G6NPOcore-PETIM betagalactose in water
259481
    1aaa     O1    1   5.260   6.306   3.359 -0.4090  0.0309  0.2588
    1aaa     C1    2   5.170   6.318   3.245  0.2103  1.0380  0.4152
    1aaa     H1    3   5.064   6.332   3.270 -0.3368 -0.3851 -0.9004
    1aaa     H2    4   5.166   6.227   3.184  0.1443  1.6854 -0.5691
    1aaa     C2    5   5.206   6.210   3.458  0.1523  0.0692  0.0250
    1aaa     H3    6   5.173   6.118   3.407 -0.0792  1.5757 -2.7454
    1aaa     H4    7   5.113   6.255   3.494  0.6475 -0.4290  2.0346
    1aaa     C3    8   5.235   6.423   3.156 -0.4653  0.3884  0.0820
    1aaa     H5    9   5.236   6.515   3.216  1.8969 -0.0569  0.8429
    1aaa     H6   10   5.160   6.434   3.077 -2.5485  0.5349  1.9907
    1aaa     C4   11   5.311   6.183   3.572 -0.3006 -0.4003  0.1469
    1aaa     H7   12   5.324   6.280   3.622 -0.0090  0.8039 -2.0940
    1aaa     H8   13   5.405   6.157   3.522 -1.2379 -0.8708 -1.4412
    1aaa     C5   14   5.376   6.384   3.095 -0.2893  0.1643  0.4605
    1aaa     H9   15   5.445   6.371   3.179 -1.3958 -1.2080  1.2125
    1aaa    H10   16   5.364   6.281   3.058  0.6298 -1.4507  4.1629
    1aaa     C6   17   5.276   6.081   3.684  0.3517 -0.1266 -0.4177
    1aaa    H11   18   5.187   6.129   3.727  0.2697  1.7902 -2.4882
    1aaa    H12   19   5.346   6.076   3.768 -0.9587 -1.9588  0.6211
    1aaa     N1   20   5.432   6.483   2.999  0.6667 -0.7628 -0.7011
    1aaa     N2   21   5.249   5.944   3.657  0.0076  0.3189  0.0935
    1aaa     C7   22   5.325   5.872   3.553  0.7298  0.6413 -0.0378
    1aaa    H13   23   5.264   5.781   3.539 -0.1859  0.4101  4.0204
    1aaa    H14   24   5.322   5.933   3.462 -1.6647 -1.0494 -1.2058
    1aaa     C8   25   5.219   5.868   3.782 -0.1662  0.2744  0.0643
    1aaa    H15   26   5.293   5.885   3.861  0.5345 -0.8084 -0.3346
    1aaa    H16   27   5.124   5.908   3.821 -0.8944 -0.7180 -0.6607
    1aaa     C9   28   5.471   6.604   3.071 -0.8038 -0.7515  1.0365
    1aaa    H17   29   5.383   6.658   3.108  1.1783  2.7673  0.9982
    1aaa    H18   30   5.532   6.576   3.158  1.5613  1.9653  0.4225
    1aaa    C10   31   5.365   6.492   2.863 -0.1210 -0.3653  0.4768
    1aaa    H19   32   5.275   6.554   2.853  0.6645  0.5218 -1.9298
    1aaa    H20   33   5.434   6.544   2.796 -3.1500  1.9945 -1.0941
    1aaa    C11   34   5.458   5.820   3.598 -0.1467 -0.0659  0.4588
    1aaa    H21   35   5.447   5.771   3.695  1.0684 -1.2866  0.0051
    1aaa    H22   36   5.503   5.745   3.532  3.5391  0.5794  2.0056
    1aaa    C12   37   5.189   5.715   3.783  0.0410  0.4519  0.3602
    1aaa    H23   38   5.266   5.659   3.728  1.2767  0.7021  1.7829
    1aaa    H24   39   5.199   5.668   3.881 -1.6683 -1.2700 -0.2313
    1aaa    C13   40   5.546   6.711   2.990 -0.3063 -0.1411  0.6134
    1aaa    H25   41   5.476   6.757   2.919 -0.9716  1.1810  2.0819
    1aaa    H26   42   5.580   6.785   3.063 -1.1964 -2.0304  3.0930
    1aaa    C14   43   5.341   6.354   2.800 -0.0207  0.5244  0.5517
    1aaa    H27   44   5.424   6.282   2.808 -0.8096 -0.5113 -0.1978
    1aaa    H28   45   5.254   6.312   2.851  1.2150  0.6197  2.8513
    1aaa    C15   46   5.304   6.339   2.649  0.0501 -0.2538 -0.2205
    1aaa    H29   47   5.249   6.246   2.629  0.7721 -1.1156  1.5590
    1aaa    H30   48   5.249   6.426   2.612 -0.5830 -0.4893  0.1639
    1aaa    C16   49   5.668   6.655   2.916 -0.0256  0.1360 -0.0261
    1aaa    H31   50   5.728   6.583   2.974 -2.6612 -1.6331  0.6642
    1aaa    H32   51   5.638   6.584   2.838  2.0961 -1.4764  0.5156
    1aaa    C17   52   5.051   5.673   3.725 -0.4833  0.3312 -0.5794
    1aaa    H33   53   4.963   5.721   3.771  1.4235  0.5164  3.3083
    1aaa    H34   54   5.045   5.691   3.617  1.3122  1.7914 -0.4913
    1aaa    C18   55   5.564   5.921   3.643 -0.0528 -0.2626 -0.5299
    1aaa    H35   56   5.557   6.008   3.576  1.0518 -1.9563 -2.9989
    1aaa    H36   57   5.540   5.960   3.743  1.9720 -0.3912  0.0545
    2bbb     N1   58   5.557   6.105   2.290  0.1352 -0.2098 -0.0291
    2bbb     C1   59   5.610   6.113   2.156 -1.0337 -0.1130  0.4132
    2bbb     H1   60   5.702   6.053   2.149 -1.1963 -0.3593  0.3975
    2bbb     H2   61   5.638   6.214   2.122  0.7593 -0.3834  0.9994
    2bbb     C2   62   5.555   5.960   2.348 -0.6583 -1.2655  0.0407
    2bbb     H3   63   5.646   5.938   2.404 -0.3332 -1.0397 -0.3937
    2bbb     H4   64   5.540   5.896   2.260 -0.2922 -0.3428 -0.6988
    2bbb     C3   65   5.619   6.200   2.381 -0.0201 -0.4540  0.1387
    2bbb     H5   66   5.727   6.194   2.364 -0.2651 -0.8758 -1.4580
    2bbb     H6   67   5.600   6.167   2.484 -0.5974  0.4736  0.3331
    2bbb     C4   68   5.570   6.339   2.370 -0.4760  0.5391 -0.2093
    2bbb     H7   69   5.573   6.366   2.263 -2.0178  0.9957 -0.1517
    2bbb     H8   70   5.642   6.401   2.426 -1.6013  1.4196  0.2900
    2bbb     C5   71   5.496   6.071   2.057 -0.2110  0.7311  0.3314
    2bbb     H9   72   5.398   6.113   2.083 -0.5823  1.2452 -1.7067
    2bbb    H10   73   5.486   5.962   2.059  2.8733  0.2752 -1.6870
    2bbb     C6   74   5.432   5.944   2.449 -0.5062  0.1716  0.0809
    2bbb    H11   75   5.429   6.022   2.526 -1.6784  2.2924 -2.0047
    2bbb    H12   76   5.443   5.848   2.501  2.0540 -0.4357 -1.4068
    2bbb     C7   77   5.423   6.356   2.417  0.3883 -0.1288  0.3104
    2bbb    H13   78   5.369   6.275   2.367  2.0764 -0.2120 -1.4952
    2bbb    H14   79   5.383   6.453   2.386  1.6975 -0.1330 -1.5407
    2bbb     C8   80   5.303   5.957   2.365 -0.3750  0.2140  0.0232
    2bbb    H15   81   5.294   6.052   2.311 -0.7061 -0.2711 -0.7926
    2bbb    H16   82   5.217   5.940   2.431 -1.4677  2.3148 -0.7740
    2bbb     C9   83   5.536   6.104   1.910  0.1309  0.6872 -0.1071
    2bbb    H17   84   5.463   6.065   1.837  0.5959  1.9496 -1.2887
    2bbb    H18   85   5.641   6.072   1.901  0.7489  2.4824  0.2772
    2bbb     O1   86   5.425   6.337   2.560 -0.4419 -0.2892 -0.4671
    3bbb     N1   87   6.128   7.009   2.724  0.0692 -0.3816  0.4727
    3bbb     C1   88   6.269   6.977   2.690  0.1109 -0.0115  0.9862
    3bbb     H1   89   6.319   7.062   2.641  1.1397 -1.1137  0.0478
    3bbb     H2   90   6.277   6.890   2.624  0.0647 -3.3210  4.9547
    3bbb     C2   91   6.064   7.124   2.651  0.6714 -0.5250 -0.0834
    3bbb     H3   92   6.130   7.211   2.647 -0.4885  0.3679 -1.1354
    3bbb     H4   93   5.978   7.153   2.712  2.3718  0.8276  1.7806
    3bbb     C3   94   6.040   6.892   2.766 -0.5116 -0.8008  0.1969
    3bbb     H5   95   6.103   6.812   2.806 -0.0516  0.2580  1.6687
    3bbb     H6   96   5.999   6.856   2.671 -0.2491  0.4564 -0.4096
    3bbb     C4   97   5.925   6.922   2.866  0.0292  0.7487 -0.6827
    3bbb     H7   98   5.843   6.977   2.819 -1.5235 -0.9977 -0.1535
    3bbb     H8   99   5.970   6.980   2.948  0.3881 -0.4213 -0.0229
    3bbb     C5  100   6.359   6.938   2.810  0.3773  0.2031  0.6393
    3bbb     H9  101   6.319   6.854   2.867  2.0990  0.5700  2.4843
    3bbb    H10  102   6.365   7.013   2.890  0.8493  0.7600  0.0989
    3bbb     C6  103   6.005   7.084   2.514  0.3953  0.2682 -0.1010
    3bbb    H11  104   5.939   6.998   2.527  0.7350  0.1485  0.8731
    3bbb    H12  105   6.087   7.041   2.455 -0.0806 -1.5867  0.5152
    3bbb     C7  106   5.866   6.794   2.935 -0.7536  0.0147  0.3563
    3bbb    H13  107   5.842   6.820   3.039 -1.8492 -1.6623  0.5577
    3bbb    H14  108   5.951   6.726   2.931  0.4380  1.4314  0.8357
    3bbb     C8  109   5.918   7.194   2.445 -0.2020 -0.5530 -0.1566
    3bbb    H15  110   5.837   7.222   2.513 -0.0614  0.7467 -0.4953
    3bbb    H16  111   5.887   7.170   2.343  2.4145  0.4351 -1.2886
    3bbb     C9  112   6.494   6.888   2.774 -0.3202 -0.2767  0.5528
    3bbb    H17  113   6.519   6.948   2.686  0.1879  0.8659  1.4313
    3bbb    H18  114   6.491   6.791   2.723  1.1962  0.3726 -0.8720
    3bbb     O1  115   5.749   6.758   2.861  0.4157 -0.1934 -0.5811
    4bbb     N1  116   5.119   5.084   3.560 -0.7211  0.2454  0.4323
    4bbb     C1  117   5.108   5.003   3.438 -0.0347  0.4994 -0.1338
    4bbb     H1  118   5.097   4.901   3.476 -0.8648  0.8599  0.6189
    4bbb     H2  119   5.202   5.004   3.381 -1.7666 -3.0903 -3.6012
    4bbb     C2  120   5.209   5.029   3.666  0.0857  0.2120  0.3988
    4bbb     H3  121   5.202   4.920   3.667  0.6598  0.1733  0.7660
    4bbb     H4  122   5.167   5.059   3.763  2.3385  0.0012  1.5077
    4bbb     C3  123   5.134   5.229   3.540  0.3151 -0.0696 -0.6924
    4bbb     H5  124   5.070   5.260   3.457 -0.0126 -0.9111 -0.7589
    4bbb     H6  125   5.235   5.253   3.507 -0.0124  1.8328 -0.4677
    4bbb     C4  126   5.097   5.314   3.661 -0.1512 -0.1242  0.0328
    4bbb     H7  127   5.180   5.310   3.733 -0.1052  0.2273  0.0002
    4bbb     H8  128   5.009   5.266   3.705  0.1813 -1.1192 -0.3540
    4bbb     C5  129   4.984   5.029   3.351  0.3161 -0.1858  0.1043
    4bbb     H9  130   4.970   4.940   3.288 -3.0040 -0.1848  0.6789
    4bbb    H10  131   4.992   5.119   3.290  1.6332  1.1215  2.0760
    4bbb     C6  132   5.354   5.069   3.661  0.1399  0.2886  0.0572
    4bbb    H11  133   5.354   5.179   3.661 -0.9038  0.3531 -2.1039
    4bbb    H12  134   5.398   5.048   3.563  1.4111  1.4859  0.3400
    4bbb     C7  135   5.075   5.461   3.626 -0.3512 -0.0628 -0.5801
    4bbb    H13  136   4.993   5.462   3.554 -3.7569 -0.5569  2.9725
    4bbb    H14  137   5.166   5.502   3.580 -0.5468  0.0566 -0.8579
    4bbb     C8  138   5.445   5.007   3.762  0.1484  0.4642 -0.4963
    4bbb    H15  139   5.545   5.051   3.751  0.8440 -0.7887  0.4088
    4bbb    H16  140   5.460   4.898   3.753  0.0120  0.2400  1.4638
    4bbb     C9  141   4.849   5.049   3.431  0.4866  1.1406 -0.1029
    4bbb    H17  142   4.865   5.110   3.521  1.7698  2.0027 -0.8862
    4bbb    H18  143   4.822   4.950   3.471  0.5775  1.4122  0.6658
    4bbb     O1  144   5.037   5.531   3.749 -0.6062  0.6547  0.3539
    5bbb     N1  145   6.108   5.723   3.633 -0.1435  0.4820  0.1547
    5bbb     C1  146   6.154   5.685   3.767  0.2308 -0.7187 -0.0903
    5bbb     H1  147   6.104   5.596   3.807 -0.3308  0.6288  2.4417
    5bbb     H2  148   6.123   5.753   3.847  0.7221 -1.2657  0.5697
    5bbb     C2  149   6.156   5.635   3.523  0.6061  0.8827  0.2900
    5bbb     H3  150   6.142   5.530   3.550  1.3849  1.1423  1.8441
    5bbb     H4  151   6.265   5.635   3.534  0.7425 -0.5212 -0.7650
    5bbb     C3  152   5.966   5.780   3.624  0.4025 -0.1196  0.0810
    5bbb     H5  153   5.893   5.700   3.636  0.5660 -0.6339 -1.9335
    5bbb     H6  154   5.948   5.819   3.523  3.5112 -2.3173 -1.5096
    5bbb     C4  155   5.931   5.883   3.729  0.0844 -0.4458  0.1426
    5bbb     H7  156   6.009   5.959   3.719 -0.0430 -0.5030 -1.6557
    5bbb     H8  157   5.924   5.840   3.830  0.6512  0.1649  0.4500
    5bbb     C5  158   6.303   5.681   3.782  0.7171  0.5832  0.7986
    5bbb     H9  159   6.344   5.776   3.744 -0.0745  0.2939 -0.8461
    5bbb    H10  160   6.357   5.614   3.714  1.3835  2.1369 -0.2689
    5bbb     C6  161   6.115   5.663   3.377  0.5170 -0.2945  0.1487
    5bbb    H11  162   6.006   5.655   3.367  0.2862  2.1927  0.1622
    5bbb    H12  163   6.155   5.585   3.310  0.1057 -0.2348 -0.1691
    5bbb     C7  164   5.791   5.955   3.697 -0.4660 -0.1137  0.1162
    5bbb    H13  165   5.805   6.027   3.616  1.3072 -0.1611  0.3483
    5bbb    H14  166   5.761   6.003   3.791  1.9147  0.0727  0.8587
    5bbb     C8  167   6.158   5.796   3.313 -0.6097  0.6064  0.4167
    5bbb    H15  168   6.097   5.872   3.364 -1.2653 -0.0478  0.6194
    5bbb    H16  169   6.118   5.815   3.212 -0.8230  3.0084  0.8930
    5bbb     C9  170   6.348   5.666   3.931  0.2873 -0.1426 -0.2051
    5bbb    H17  171   6.303   5.747   3.990  1.2911 -1.5313  2.6552
    5bbb    H18  172   6.455   5.680   3.946  0.0907 -0.6446  1.9087
    5bbb     O1  173   5.693   5.860   3.654 -0.0683 -0.0809 -0.7607
    6bbb     N1  174   5.170   5.380   2.163  0.0253 -0.0428  0.2013
    6bbb     C1  175   5.288   5.340   2.085  0.3950 -0.2432 -0.0895
    6bbb     H1  176   5.368   5.313   2.155  0.2972 -0.0034  0.1145
    6bbb     H2  177   5.319   5.428   2.028 -2.1610  1.5109  1.0831
    6bbb     C2  178   5.089   5.270   2.220 -0.7110 -0.4002  0.0991
    6bbb     H3  179   5.067   5.204   2.135  0.3458 -2.2001  1.1577
    6bbb     H4  180   5.007   5.321   2.272 -0.1008 -0.0916  0.7895
    6bbb     C3  181   5.209   5.480   2.266  0.4126  0.1234 -0.5456
    6bbb     H5  182   5.294   5.442   2.323  0.4872  1.4145  0.2408
    6bbb     H6  183   5.123   5.498   2.331  0.1092  0.6287 -1.0642
    6bbb     C4  184   5.245   5.619   2.207 -0.0862  0.5523 -0.5694
    6bbb     H7  185   5.157   5.653   2.150 -0.7332  0.2342  0.2173
    6bbb     H8  186   5.328   5.607   2.136 -0.4778 -1.0562 -0.7878
    6bbb     C5  187   5.265   5.216   1.982  0.3853  0.0239  0.5623
    6bbb     H9  188   5.244   5.121   2.032 -1.4297  0.0909  0.0069
    6bbb    H10  189   5.362   5.192   1.937  2.1993  0.3401  3.9717
    6bbb     C6  190   5.159   5.180   2.323  0.0141  0.0210  0.5535
    6bbb    H11  191   5.200   5.244   2.402 -1.0948  0.3591  0.8625
    6bbb    H12  192   5.246   5.137   2.272 -0.0535 -0.8256  1.1415
    6bbb     C7  193   5.264   5.720   2.319 -0.5569 -0.7728 -0.1993
    6bbb    H13  194   5.335   5.684   2.394 -1.5014 -0.5929  0.8106
    6bbb    H14  195   5.167   5.728   2.371  0.0921  0.6017  0.8836
    6bbb     C8  196   5.077   5.070   2.380 -0.1459  0.0473  0.3927
    6bbb    H15  197   5.001   5.119   2.443  0.9611  1.7198  0.4788
    6bbb    H16  198   5.143   5.005   2.438  1.1142  0.8359 -0.1214
    6bbb     C9  199   5.161   5.236   1.877  0.1003 -0.4370  0.0364
    6bbb    H17  200   5.182   5.336   1.837  0.0762  0.0450  1.1987
    6bbb    H18  201   5.056   5.232   1.909  0.4520  1.8701  1.6896
    6bbb     O1  202   5.299   5.851   2.269 -0.5571 -0.0006  0.3211
    7bbb     N1  203   5.309   6.560   1.739  0.2254 -0.5583  0.4643
    7bbb     C1  204   5.408   6.571   1.629  0.3632 -0.1975 -1.0364
    7bbb     H1  205   5.497   6.514   1.657 -0.4209 -0.2784  1.5694
    7bbb     H2  206   5.436   6.677   1.620 -1.6344  0.6559  1.4623
    7bbb     C2  207   5.179   6.629   1.707  0.8226  0.2624  0.4020
    7bbb     H3  208   5.111   6.609   1.792 -0.1924  3.2204  0.4111
    7bbb     H4  209   5.125   6.593   1.619  2.2643  0.5122 -0.6113
    7bbb     C3  210   5.364   6.580   1.874  0.0565 -0.5009 -0.1200
    7bbb     H5  211   5.289   6.551   1.948 -0.2787 -0.5705 -0.4799
    7bbb     H6  212   5.392   6.685   1.882  0.7751 -0.5004 -1.9883
    7bbb     C4  213   5.480   6.474   1.901  0.2808 -0.0075 -0.1623
    7bbb     H7  214   5.520   6.492   2.002  1.0399  0.5515 -0.5551
    7bbb     H8  215   5.567   6.485   1.836  1.6925 -3.5276  0.8988
    7bbb     C5  216   5.365   6.513   1.497 -0.2823  0.2582 -0.6188
    7bbb     H9  217   5.272   6.554   1.455  0.0138 -1.5388 -3.3297
    7bbb    H10  218   5.349   6.405   1.506 -0.1600  0.0346 -2.5164
    7bbb     C6  219   5.199   6.783   1.681  0.6109 -0.9748 -0.1619
    7bbb    H11  220   5.253   6.792   1.586  0.9412  2.2509  0.2272
    7bbb    H12  221   5.255   6.819   1.768  0.5074  0.8731 -0.8152
    7bbb     C7  222   5.433   6.327   1.911 -0.7104  0.0330  0.4017
    7bbb    H13  223   5.360   6.316   1.830  0.4313 -2.6272 -0.3540
    7bbb    H14  224   5.377   6.318   2.005  0.6602 -1.5716  1.0946
    7bbb     C8  225   5.066   6.870   1.678  0.0168  0.0894  0.2371
    7bbb    H15  226   5.022   6.864   1.778  0.2434  0.0012  0.3333
    7bbb    H16  227   5.002   6.828   1.599 -1.7057  1.7368  0.6835
    7bbb     C9  228   5.472   6.525   1.390  0.3578 -0.2182 -0.1350
    7bbb    H17  229   5.558   6.466   1.422 -0.3201 -2.2790 -1.9097
    7bbb    H18  230   5.494   6.632   1.387  1.2786 -0.3935  0.0838
    7bbb     O1  231   5.550   6.240   1.902 -0.1129  0.3834  0.5029
    8bbb     N1  232   5.959   7.618   2.138 -0.3417  0.2438 -0.9797
    8bbb     C1  233   6.039   7.649   2.021 -0.0968  0.1862  0.6880
    8bbb     H1  234   5.993   7.731   1.965  1.8616 -1.0708 -3.0694
    8bbb     H2  235   6.057   7.564   1.953  0.8938  0.8729  0.0733
    8bbb     C2  236   5.830   7.554   2.092 -0.2610 -0.0392  0.4803
    8bbb     H3  237   5.769   7.528   2.179 -0.9225 -2.9072 -0.6931
    8bbb     H4  238   5.849   7.462   2.035 -2.4667 -0.5112  0.4230
    8bbb     C3  239   6.019   7.547   2.259  0.6513 -0.4797  0.1530
    8bbb     H5  240   5.944   7.530   2.337  0.5486  1.1501  0.4475
    8bbb     H6  241   6.105   7.601   2.300  0.1332  0.8728 -0.4642
    8bbb     C4  242   6.071   7.405   2.228  0.3728  0.1942  0.7908
    8bbb     H7  243   6.152   7.402   2.155 -0.5435 -2.4918 -0.2728
    8bbb     H8  244   5.990   7.343   2.186  0.6384  0.3092  0.1035
    8bbb     C5  245   6.177   7.701   2.062 -0.1283  0.1861  0.1808
    8bbb     H9  246   6.237   7.612   2.086  0.4474  0.9419  1.7186
    8bbb    H10  247   6.161   7.763   2.151  1.2958 -0.6753  1.0873
    8bbb     C6  248   5.736   7.643   2.010  0.5157  0.0086 -0.7645
    8bbb    H11  249   5.786   7.685   1.922  0.2785  1.4713 -0.2332
    8bbb    H12  250   5.704   7.725   2.076 -1.3863  0.6087 -2.3518
    8bbb     C7  251   6.115   7.324   2.350  0.3085 -0.0585  0.0571
    8bbb    H13  252   6.196   7.383   2.396  0.5756  1.3087 -2.0420
    8bbb    H14  253   6.141   7.223   2.317 -1.1852 -1.2132  2.2061
    8bbb     C8  254   5.608   7.575   1.952  0.8749 -0.2751  0.4081
    8bbb    H15  255   5.645   7.525   1.862 -0.4216  0.2348 -0.4215
    8bbb    H16  256   5.535   7.647   1.914  1.7672  0.1567 -0.5399
    8bbb     C9  257   6.255   7.768   1.954 -0.3172 -0.2676 -0.1192
    8bbb    H17  258   6.259   7.695   1.872 -1.5247 -1.3263  0.7235
    8bbb    H18  259   6.356   7.787   1.991 -0.2409  0.1424 -0.5303
    8bbb     O1  260   5.998   7.310   2.439 -0.5906 -0.0544 -0.3180
    9bbb     N1  261   6.650   7.223   3.261  0.6300 -0.6145 -0.6569
    9bbb     C1  262   6.716   7.348   3.302  0.0959 -0.3019  0.0723
    9bbb     H1  263   6.653   7.428   3.261 -0.0854 -1.4376 -2.0450
    9bbb     H2  264   6.815   7.339   3.255  0.1938 -1.9104  0.5367
    9bbb     C2  265   6.510   7.215   3.319  0.0779 -0.6818 -0.3903
    9bbb     H3  266   6.441   7.237   3.237  0.6170  1.1563 -0.4124
    9bbb     H4  267   6.498   7.295   3.393  0.8934 -0.4828 -0.4657
    9bbb     C3  268   6.659   7.187   3.115 -0.9202  0.5144  0.1757
    9bbb     H5  269   6.763   7.196   3.082 -2.0577  2.4455 -3.5100
    9bbb     H6  270   6.618   7.274   3.060  1.0574  2.2050  1.2266
    9bbb     C4  271   6.620   7.044   3.071  0.0432 -0.3239  0.1167
    9bbb     H7  272   6.517   7.033   3.106  0.1210 -1.2443  0.0745
    9bbb     H8  273   6.678   6.969   3.127 -0.2265 -0.0053  0.8323
    9bbb     C5  274   6.744   7.363   3.449 -0.3264  0.4052 -0.2230
    9bbb     H9  275   6.839   7.317   3.478 -1.3819 -0.4010  2.1990
    9bbb    H10  276   6.664   7.327   3.514  1.5769 -0.2203  1.9056
    9bbb     C6  277   6.480   7.079   3.397 -0.3308  0.2471  0.2014
    9bbb    H11  278   6.557   7.114   3.468  0.7582  3.8547 -2.4628
    9bbb    H12  279   6.560   7.024   3.345  1.0344  1.6335  0.7458
    9bbb     C7  280   6.636   7.030   2.916 -0.1429 -0.6218 -1.3927
    9bbb    H13  281   6.743   7.036   2.891  0.7840  0.7338  2.2581
    9bbb    H14  282   6.590   7.116   2.866  1.5339  0.6477 -0.8398
    9bbb     C8  283   6.262   6.959   3.488  0.2631  0.0726  0.6182
    9bbb    H15  284   6.197   6.899   3.424 -1.5860  0.1248  2.3348
    9bbb    H16  285   6.174   7.023   3.507 -0.5181 -0.7558 -0.1019
    9bbb     C9  286   6.739   7.513   3.483  0.1735  0.2222  0.2765
    9bbb    H17  287   6.699   7.536   3.582 -1.2979 -1.4827  0.1459
    9bbb    H18  288   6.672   7.571   3.418 -0.1321  1.1129  1.3583
    9bbb     O1  289   6.601   6.893   2.873  0.5839 -0.1257 -0.5715
   10bbb     N1  290   5.188   5.334   4.212  0.6102  0.4690 -0.2602
   10bbb     C1  291   5.224   5.260   4.331 -0.3412  0.8982 -0.1336
   10bbb     H1  292   5.319   5.297   4.372 -0.3306 -0.6344  1.2952
   10bbb     H2  293   5.241   5.153   4.313 -0.0554  1.3296 -2.8860
   10bbb     C2  294   5.132   5.475   4.223  0.4228  0.4088  0.3445
   10bbb     H3  295   5.209   5.543   4.259 -0.2273 -0.1518  3.0705
   10bbb     H4  296   5.063   5.475   4.309  1.0562  1.6403  0.8644
   10bbb     C3  297   5.293   5.310   4.105 -0.2854  0.2498 -0.1280
   10bbb     H5  298   5.388   5.347   4.145  0.2803 -0.4213 -0.8342
   10bbb     H6  299   5.276   5.381   4.023 -2.7141  0.9318  0.8703
   10bbb     C4  300   5.305   5.173   4.048  0.0197 -0.2921  0.6171
   10bbb     H7  301   5.212   5.147   3.996 -0.4824  0.4906  1.1031
   10bbb     H8  302   5.309   5.101   4.131  1.7801  1.2045  1.9186
   10bbb     C5  303   5.135   5.263   4.451  0.6849  0.1108  0.2566
   10bbb     H9  304   5.032   5.253   4.413  0.8605  0.7169 -0.4164
   10bbb    H10  305   5.139   5.362   4.498  1.0840  0.3029 -0.1768
   10bbb     C6  306   5.053   5.518   4.097  0.3242  0.3502  0.0031
   10bbb    H11  307   4.968   5.455   4.070  0.9091  0.3880 -2.0747
   10bbb    H12  308   5.111   5.499   4.006  0.6468 -0.1545  0.3100
   10bbb     C7  309   5.421   5.157   3.943 -0.2128 -0.3453 -0.4013
   10bbb    H13  310   5.520   5.154   3.991 -0.5190  1.8194  0.4706
   10bbb    H14  311   5.425   5.236   3.867  2.4326  1.5483  1.5094
   10bbb     C8  312   4.999   5.666   4.123  0.5158 -0.6106 -0.5307
   10bbb    H15  313   4.945   5.692   4.031  1.5683 -0.6108 -1.1738
   10bbb    H16  314   5.086   5.733   4.130 -0.5307  0.8672 -1.3730
   10bbb     C9  315   5.165   5.174   4.569 -0.0727  0.0711 -0.0412
   10bbb    H17  316   5.257   5.205   4.620  0.5538 -3.9659  1.6506
   10bbb    H18  317   5.177   5.071   4.534 -1.9250 -0.0344 -0.4397
   10bbb     O1  318   5.392   5.031   3.889 -0.1985 -0.9306  0.7623
   11bbb     N1  319   4.349   5.381   3.250  0.2254  0.0623 -0.3227
   11bbb     C1  320   4.224   5.297   3.266  0.4077 -0.3967  0.4414
   11bbb     H1  321   4.148   5.322   3.190  1.6746  0.1008 -0.7031
   11bbb     H2  322   4.184   5.319   3.365  0.3045  2.6219 -0.1796
   11bbb     C2  323   4.330   5.536   3.237  0.0911 -0.3385 -0.4234
   11bbb     H3  324   4.364   5.562   3.339  0.7623  1.5612 -1.0811
   11bbb     H4  325   4.226   5.530   3.272  0.6947 -1.9949  1.2212
   11bbb     C3  326   4.440   5.332   3.362 -0.0132  0.6957  0.4106
   11bbb     H5  327   4.384   5.268   3.432 -1.0530  2.7856  1.6063
   11bbb     H6  328   4.451   5.415   3.434  1.7620  0.3048  0.6364
   11bbb     C4  329   4.573   5.262   3.318 -0.3602  0.6975 -0.4055
   11bbb     H7  330   4.642   5.328   3.264 -1.0790  0.1374 -2.0610
   11bbb     H8  331   4.533   5.187   3.249 -2.3059  1.2188  0.1051
   11bbb     C5  332   4.239   5.150   3.247 -0.1494  0.4345 -1.2282
   11bbb     H9  333   4.137   5.114   3.267 -0.0640  1.2482  0.9494
   11bbb    H10  334   4.304   5.110   3.325 -2.3626  0.4092  0.7198
   11bbb     C6  335   4.394   5.723   3.067 -0.3759  1.0314 -0.3558
   11bbb    H11  336   4.347   5.732   2.968  0.7468  0.8689 -0.9172
   11bbb    H12  337   4.493   5.721   3.021 -0.5569  0.6407 -0.7358
   11bbb     C7  338   4.651   5.192   3.426 -0.9242  0.1724 -0.8234
   11bbb    H13  339   4.586   5.120   3.478 -0.1791 -2.3940 -3.2127
   11bbb    H14  340   4.684   5.266   3.500  0.0941 -1.7471  0.7508
   11bbb     C8  341   4.408   5.882   3.083 -0.9230  0.2178  0.2664
   11bbb    H15  342   4.454   5.915   3.178  0.5383  1.4729 -0.8260
   11bbb    H16  343   4.315   5.938   3.074 -2.1389 -1.5843  0.9756
   11bbb     C9  344   4.282   5.104   3.108 -0.4004  0.3947  0.2704
   11bbb    H17  345   4.375   5.154   3.077 -0.5088  2.0448  2.3693
   11bbb    H18  346   4.205   5.137   3.038  0.2451 -2.3913 -1.9344
   11bbb     O1  347   4.758   5.122   3.360 -0.2682  0.3725 -0.2394
   12bbb     N1  348   6.693   5.992   3.353 -0.2633  0.1401 -0.5368
   12bbb     C1  349   6.810   5.932   3.288  0.3505 -0.4033 -0.0001
   12bbb     H1  350   6.885   6.013   3.281 -0.1254 -0.0469 -1.2260
   12bbb     H2  351   6.788   5.901   3.185  1.9522 -0.4515 -0.3518
   12bbb     C2  352   6.647   6.125   3.292  0.5905  0.5854 -0.0533
   12bbb     H3  353   6.589   6.185   3.363 -0.2986 -0.9701  0.6044
   12bbb     H4  354   6.572   6.112   3.213  0.4466  1.0084  0.0092
   12bbb     C3  355   6.578   5.905   3.382  0.4956  0.6169 -0.1333
   12bbb     H5  356   6.502   5.963   3.434  0.5201  0.0546  0.5448
   12bbb     H6  357   6.619   5.839   3.460 -1.1112  0.2173  0.3984
   12bbb     C4  358   6.526   5.825   3.257  0.7746  0.8049  0.0519
   12bbb     H7  359   6.602   5.750   3.233  0.5217  0.5911 -0.0904
   12bbb     H8  360   6.519   5.887   3.167 -0.4020  1.7156  0.7287
   12bbb     C5  361   6.879   5.819   3.366  0.0047 -0.1225 -0.1174
   12bbb     H9  362   6.968   5.784   3.312 -0.4909 -0.6077 -0.6428
   12bbb    H10  363   6.808   5.736   3.373  0.3659 -0.3187  3.2522
   12bbb     C6  364   6.748   6.219   3.223 -0.9267  0.5795 -0.4560
   12bbb    H11  365   6.697   6.302   3.172 -1.6708  0.6913  0.4459
   12bbb    H12  366   6.795   6.154   3.148 -1.2377  0.5236 -0.6032
   12bbb     C7  367   6.390   5.749   3.269 -0.2275 -0.5979 -0.4410
   12bbb    H13  368   6.408   5.654   3.322  0.8268 -0.6364 -0.8433
   12bbb    H14  369   6.363   5.714   3.169 -0.3541 -2.2668  0.1396
   12bbb     C8  370   6.857   6.276   3.323 -0.3257  0.0176  0.0147
   12bbb    H15  371   6.907   6.199   3.384 -2.2391 -1.0359  0.3430
   12bbb    H16  372   6.801   6.342   3.391  0.7360  1.1557 -0.1876
   12bbb     C9  373   6.921   5.847   3.514  0.0765  0.2346 -0.6504
   12bbb    H17  374   6.831   5.872   3.572  0.6749 -0.4327  0.6299
   12bbb    H18  375   6.993   5.929   3.520  0.9114 -0.5559  0.8089
   12bbb     O1  376   6.296   5.825   3.341  0.6995  0.0289 -0.1868
   13bbb     N1  377   6.302   5.181   4.336 -0.4228  0.2146  0.6189
   13bbb     C1  378   6.321   5.071   4.233  0.3080 -0.6731 -0.7214
   13bbb     H1  379   6.429   5.075   4.213  0.1392  1.3955 -1.4009
   13bbb     H2  380   6.258   5.081   4.144 -2.5737  0.0626  1.2796
   13bbb     C2  381   6.185   5.168   4.424 -0.1255  0.5505 -0.3197
   13bbb     H3  382   6.164   5.068   4.465 -1.4859  0.3895 -1.3439
   13bbb     H4  383   6.099   5.196   4.363 -0.5333 -0.6262 -0.3225
   13bbb     C3  384   6.349   5.319   4.290  0.2886 -0.7625  0.0848
   13bbb     H5  385   6.458   5.328   4.286  0.4680 -2.5193  0.2400
   13bbb     H6  386   6.317   5.393   4.365  0.8189  0.8203 -1.1937
   13bbb     C4  387   6.287   5.373   4.159  0.4483  0.0707 -0.4763
   13bbb     H7  388   6.179   5.373   4.174  0.5860 -0.4899  0.6333
   13bbb     H8  389   6.326   5.310   4.078  0.4801 -1.8225  0.9580
   13bbb     C5  390   6.310   4.925   4.282 -0.0636  0.5920 -0.1126
   13bbb     H9  391   6.205   4.907   4.310 -0.2847 -0.0848 -1.3315
   13bbb    H10  392   6.378   4.921   4.368  1.4417  0.2768 -1.2863
   13bbb     C6  393   6.184   5.252   4.555 -0.2403 -0.3437  0.3692
   13bbb    H11  394   6.224   5.353   4.541 -0.0161 -0.4550  0.1968
   13bbb    H12  395   6.252   5.200   4.625  0.5603 -0.5255 -0.5164
   13bbb     C7  396   6.335   5.517   4.130  0.2104 -0.3402 -0.3171
   13bbb    H13  397   6.439   5.532   4.160 -0.0109  0.9655 -0.1484
   13bbb    H14  398   6.269   5.590   4.178 -0.0246  0.0905 -1.2611
   13bbb     C8  399   6.038   5.251   4.614 -0.7319 -0.3181 -0.2281
   13bbb    H15  400   6.039   5.280   4.719 -2.6057  0.8090 -0.4608
   13bbb    H16  401   5.996   5.152   4.592  0.0125 -0.9643  1.1467
   13bbb     C9  402   6.338   4.812   4.181 -0.8180  0.5094  0.3105
   13bbb    H17  403   6.240   4.798   4.134 -1.4113 -1.1345  1.8902
   13bbb    H18  404   6.362   4.720   4.237 -2.9918  0.7487  1.7872
   13bbb     O1  405   6.321   5.537   3.986 -0.2223  0.8528 -0.1432
   14bbb     N1  406   4.674   4.704   2.357  0.3721  0.8952  0.0732
   14bbb     C1  407   4.619   4.568   2.396 -0.6072 -0.9044 -0.5875
   14bbb     H1  408   4.702   4.499   2.417 -1.4327 -1.5640  0.6330
   14bbb     H2  409   4.560   4.523   2.316 -0.8758  0.0823 -0.9585
   14bbb     C2  410   4.567   4.796   2.305  0.1256 -0.3224 -0.6228
   14bbb     H3  411   4.601   4.900   2.296 -1.8734  0.4541  0.1203
   14bbb     H4  412   4.480   4.794   2.371  0.6937 -2.9396  0.1607
   14bbb     C3  413   4.795   4.683   2.273  0.2759 -0.1011 -0.0466
   14bbb     H5  414   4.769   4.617   2.190 -0.7431 -0.1446  0.2980
   14bbb     H6  415   4.866   4.631   2.340 -2.4553 -0.1703  3.0376
   14bbb     C4  416   4.867   4.815   2.225  0.5735 -0.3383  0.4156
   14bbb     H7  417   4.800   4.884   2.172  2.3663 -0.7300 -2.5961
   14bbb     H8  418   4.939   4.788   2.147 -0.5595  1.5497 -1.3891
   14bbb     C5  419   4.533   4.580   2.524  0.1781 -0.0919 -0.4085
   14bbb     H9  420   4.434   4.620   2.503  0.5290  0.6393 -0.7001
   14bbb    H10  421   4.568   4.663   2.587 -0.8127 -0.0018  0.0325
   14bbb     C6  422   4.512   4.757   2.163 -0.1316  0.2020 -0.3809
   14bbb    H11  423   4.447   4.668   2.166 -2.0241  1.5366 -0.4905
   14bbb    H12  424   4.588   4.735   2.087 -1.6772  2.0021 -2.5597
   14bbb     C7  425   4.935   4.897   2.341  0.3612  0.5947 -0.1217
   14bbb    H13  426   5.008   4.825   2.378  1.0445  0.5983 -1.3863
   14bbb    H14  427   4.867   4.934   2.419  0.5028  0.2535  0.1643
   14bbb     C8  428   4.429   4.868   2.092  0.0288 -0.7349 -0.7192
   14bbb    H15  429   4.386   4.835   1.997  0.8610 -0.2533 -1.2762
   14bbb    H16  430   4.487   4.959   2.074  0.8194 -1.2291 -0.7379
   14bbb     C9  431   4.512   4.444   2.596  0.0699 -0.1267  0.0925
   14bbb    H17  432   4.612   4.405   2.615  0.1249  0.1914  0.4829
   14bbb    H18  433   4.451   4.380   2.531  0.6312  0.8644 -1.4873
   14bbb     O1  434   5.005   5.004   2.281 -0.3313  0.2067 -0.0206
   15bbb     N1  435   5.394   4.995   1.344  0.3399 -0.1782  0.4707
   15bbb     C1  436   5.379   4.849   1.363  0.4132 -0.2466  0.1945
   15bbb     H1  437   5.299   4.834   1.437 -0.0754  3.0581  0.4700
   15bbb     H2  438   5.465   4.802   1.412  0.7588  0.1390 -0.0445
   15bbb     C2  439   5.502   5.037   1.254  0.3055 -0.6016 -0.2379
   15bbb     H3  440   5.490   4.975   1.165  0.8570  1.7649 -2.0549
   15bbb     H4  441   5.594   5.020   1.311 -0.7191  1.1023  2.1099
   15bbb     C3  442   5.395   5.073   1.467 -0.0324  0.4161  0.3856
   15bbb     H5  443   5.406   5.178   1.435 -2.0101  0.1521 -1.3466
   15bbb     H6  444   5.485   5.038   1.519  0.5747 -0.6118 -1.2854
   15bbb     C4  445   5.271   5.065   1.556 -0.1457 -0.0191 -0.0561
   15bbb     H7  446   5.271   4.963   1.597  1.1226  0.3794  0.9745
   15bbb     H8  447   5.177   5.094   1.508 -0.6337  0.2528  1.0554
   15bbb     C5  448   5.334   4.769   1.240 -0.4444  0.5662  0.5228
   15bbb     H9  449   5.410   4.778   1.161 -1.1986  0.0632 -0.2674
   15bbb    H10  450   5.241   4.810   1.199  0.0716  2.8883  1.4686
   15bbb     C6  451   5.496   5.180   1.201 -0.8096 -0.3221 -0.4697
   15bbb    H11  452   5.500   5.264   1.272  0.3741  0.5365 -1.5216
   15bbb    H12  453   5.403   5.175   1.143 -1.4937 -0.0222  0.5598
   15bbb     C7  454   5.286   5.155   1.675 -0.8546  0.0067  0.0687
   15bbb    H13  455   5.289   5.260   1.643  0.9130  0.4770  1.5621
   15bbb    H14  456   5.376   5.128   1.732 -0.2474  1.8418  0.0405
   15bbb     C8  457   5.613   5.198   1.098 -0.1534  0.2269 -0.3118
   15bbb    H15  458   5.614   5.113   1.029 -1.7265 -1.3102  1.4599
   15bbb    H16  459   5.712   5.203   1.145 -0.1695  1.8969 -0.4034
   15bbb     C9  460   5.315   4.618   1.273 -0.7436 -0.0846 -0.1627
   15bbb    H17  461   5.283   4.572   1.179 -1.2636  1.2284 -0.6634
   15bbb    H18  462   5.228   4.607   1.340 -1.2567  1.1757 -0.5805
   15bbb     O1  463   5.170   5.141   1.766  0.1345  0.0713 -0.1554
   16bbb     N1  464   5.089   7.438   1.708 -0.0441 -0.1592  0.0315
   16bbb     C1  465   5.111   7.516   1.829 -0.2954 -0.1085  0.0581
   16bbb     H1  466   5.156   7.613   1.804 -4.2213  2.1200  0.7492
   16bbb     H2  467   5.179   7.467   1.899 -0.9434 -2.3719 -0.8094
   16bbb     C2  468   5.208   7.445   1.618 -0.0634 -0.0673  0.5240
   16bbb     H3  469   5.230   7.551   1.598 -1.0965 -0.3078 -2.4816
   16bbb     H4  470   5.177   7.405   1.520 -2.0809 -0.7302  1.3893
   16bbb     C3  471   5.044   7.298   1.730  0.3926 -0.0776  0.1165
   16bbb     H5  472   4.964   7.301   1.805  1.8800 -0.8561  1.8280
   16bbb     H6  473   5.123   7.237   1.775  1.2495  2.2083  1.9661
   16bbb     C4  474   4.992   7.232   1.604  0.5941  0.5879  0.6622
   16bbb     H7  475   5.060   7.247   1.519  0.6719  1.3852  0.8570
   16bbb     H8  476   4.894   7.278   1.585  0.8370  1.1027  0.6446
   16bbb     C5  477   4.981   7.556   1.910  0.0391  0.2818  0.1831
   16bbb     H9  478   4.937   7.459   1.936  0.5542  0.2131  0.8089
   16bbb    H10  479   4.919   7.624   1.850 -0.7265 -0.0399  0.5871
   16bbb     C6  480   5.332   7.362   1.660 -0.7639 -0.3431  0.0732
   16bbb    H11  481   5.310   7.305   1.751 -1.5810  1.5570  1.1320
   16bbb    H12  482   5.413   7.431   1.686  0.4864 -1.3972 -0.8975
   16bbb     C7  483   4.971   7.085   1.630 -0.2237  0.1786 -0.8260
   16bbb    H13  484   4.924   7.038   1.543  1.8480 -2.9413 -0.4157
   16bbb    H14  485   4.916   7.070   1.724 -0.5793 -1.6403 -1.3064
   16bbb     C8  486   5.385   7.266   1.550 -0.2974  0.3931 -0.3164
   16bbb    H15  487   5.439   7.326   1.475 -0.1831  3.0418  1.7403
   16bbb    H16  488   5.304   7.214   1.497  1.1400  0.6613 -2.9536
   16bbb     C9  489   5.014   7.634   2.042  0.3894 -0.3123 -0.3317
   16bbb    H17  490   5.026   7.742   2.029 -0.3104 -0.0967  0.7101
   16bbb    H18  491   5.104   7.592   2.088  0.1571  0.6477  1.0414
   16bbb     O1  492   5.097   7.010   1.643  0.3667  0.0046 -0.4396
   17bbb     N1  493   5.327   6.255   0.912 -0.9289 -0.5216  0.3980
   17bbb     C1  494   5.180   6.274   0.939 -0.1697 -0.1169  0.1859
   17bbb     H1  495   5.165   6.382   0.949 -1.2403 -0.4294  2.6593
   17bbb     H2  496   5.159   6.238   1.040 -1.0805  1.8560  0.7543
   17bbb     C2  497   5.363   6.318   0.781  0.0631  0.1603 -0.3232
   17bbb     H3  498   5.365   6.428   0.782  2.2534  0.1677 -0.7265
   17bbb     H4  499   5.294   6.280   0.705  0.7846 -0.0053 -0.9056
   17bbb     C3  500   5.419   6.304   1.020  0.5427  0.6071  0.2447
   17bbb     H5  501   5.514   6.248   1.014 -1.0078 -2.1318 -0.4842
   17bbb     H6  502   5.380   6.281   1.120  3.4254  0.2044  1.4022
   17bbb     C4  503   5.436   6.453   1.041 -0.0895 -0.2680  0.1737
   17bbb     H7  504   5.339   6.503   1.053  0.3614  0.1559  2.5473
   17bbb     H8  505   5.486   6.509   0.962 -0.4202  1.5049  1.1707
   17bbb     C5  506   5.071   6.201   0.845  0.0265  0.1544  0.7971
   17bbb     H9  507   5.070   6.255   0.749 -0.6636 -1.2336  0.0000
   17bbb    H10  508   4.971   6.223   0.882 -0.3702 -0.5469  0.1693
   17bbb     C6  509   5.501   6.284   0.725 -0.0520 -0.1477 -0.1339
   17bbb    H11  510   5.515   6.175   0.724 -2.0546 -0.5008 -3.3524
   17bbb    H12  511   5.585   6.327   0.781  0.6231 -0.2317 -1.0578
   17bbb     C7  512   5.513   6.491   1.163 -0.3206 -0.0873  0.5081
   17bbb    H13  513   5.543   6.596   1.156  1.7378 -0.6823 -0.2973
   17bbb    H14  514   5.597   6.425   1.185 -0.7829 -0.6148  0.7262
   17bbb     C8  515   5.509   6.327   0.573  0.2569 -0.1590 -0.2688
   17bbb    H15  516   5.509   6.436   0.570  1.6534 -0.0926  0.8422
   17bbb    H16  517   5.418   6.284   0.529  0.2935 -2.6397  1.8326
   17bbb     C9  518   5.086   6.051   0.845  0.4264  0.4604 -0.1334
   17bbb    H17  519   5.090   6.004   0.945  0.1841 -0.6207 -0.6173
   17bbb    H18  520   5.179   6.022   0.794  0.3257  0.3799 -0.2724
   17bbb     O1  521   5.421   6.475   1.268 -0.7413  0.3221  0.6796
   18bbb     N1  522   5.209   7.173   2.238 -0.0152  0.6901 -0.2997
   18bbb     C1  523   5.088   7.091   2.223 -0.3263 -0.1819  0.3531
   18bbb     H1  524   4.995   7.150   2.234 -1.4607 -2.1688  2.3531
   18bbb     H2  525   5.081   7.024   2.310  2.6638 -1.5063 -0.3017
   18bbb     C2  526   5.198   7.255   2.358  0.3331 -0.7047 -0.4586
   18bbb     H3  527   5.294   7.277   2.408 -0.4741 -1.2724  1.4270
   18bbb     H4  528   5.146   7.194   2.432  1.6982 -2.0046 -0.5229
   18bbb     C3  529   5.257   7.238   2.111 -0.0821 -0.1592  0.7289
   18bbb     H5  530   5.176   7.304   2.078  0.0604 -0.8821 -1.1930
   18bbb     H6  531   5.279   7.170   2.028  1.9589  0.2908  0.8540
   18bbb     C4  532   5.394   7.318   2.136  0.5060 -0.0925  0.3345
   18bbb     H7  533   5.475   7.245   2.148  1.2796  0.5639 -0.6750
   18bbb     H8  534   5.393   7.379   2.227  2.3047  1.0571 -0.3477
   18bbb     C5  535   5.077   7.014   2.088 -0.1213 -0.1006 -0.2370
   18bbb     H9  536   5.172   6.962   2.072 -0.2982 -0.7329  0.6674
   18bbb    H10  537   5.067   7.096   2.015 -1.3690 -0.8989 -0.9903
   18bbb     C6  538   5.106   7.385   2.345  0.0196 -0.1392 -0.0456
   18bbb    H11  539   5.000   7.358   2.341  0.2601 -1.1068 -0.0039
   18bbb    H12  540   5.130   7.452   2.261  1.7205 -0.3389  0.2484
   18bbb     C7  541   5.442   7.413   2.020  0.3102  0.4702 -0.3467
   18bbb    H13  542   5.359   7.481   1.997  0.0195 -0.2375 -1.5061
   18bbb    H14  543   5.475   7.363   1.928  1.6614 -0.5092  0.6289
   18bbb     C8  544   5.118   7.474   2.471 -0.8723 -0.4980 -0.0026
   18bbb    H15  545   5.213   7.526   2.459 -1.4378  0.2940 -1.2887
   18bbb    H16  546   5.123   7.418   2.565  2.1581  2.1535  1.5785
   18bbb     C9  547   4.952   6.921   2.088  0.2842  0.4000 -0.3121
   18bbb    H17  548   4.924   6.898   2.192  1.6496 -0.6395 -0.1491
   18bbb    H18  549   4.967   6.825   2.039 -0.8748  0.0152  0.0532
   18bbb     O1  550   5.552   7.495   2.061  0.6848  0.2448 -0.0354
   19bbb     N1  551   6.331   8.095   1.525 -0.4635 -0.1581  0.3325
   19bbb     C1  552   6.200   8.089   1.456 -0.0272 -0.5560 -0.8752
   19bbb     H1  553   6.183   8.181   1.399 -1.4673 -0.0490  0.3161
   19bbb     H2  554   6.124   8.063   1.531  0.7276 -2.1556 -0.6054
   19bbb     C2  555   6.439   8.162   1.443  0.3535 -0.3304  0.2640
   19bbb     H3  556   6.400   8.262   1.420 -0.3193 -1.0041 -1.7433
   19bbb     H4  557   6.439   8.120   1.342 -1.2363 -0.3238  0.2349
   19bbb     C3  558   6.331   8.157   1.668  0.1144 -0.1501  0.4373
   19bbb     H5  559   6.302   8.262   1.663  0.2783 -0.1487 -1.0576
   19bbb     H6  560   6.429   8.160   1.717 -0.0671 -0.5758  0.8396
   19bbb     C4  561   6.229   8.086   1.771 -0.2690 -0.2257  0.2496
   19bbb     H7  562   6.122   8.101   1.749 -0.3405 -0.6190  0.3296
   19bbb     H8  563   6.232   8.138   1.867 -1.1925  1.6895 -0.6935
   19bbb     C5  564   6.194   7.985   1.342  0.2050 -0.0640  0.0867
   19bbb     H9  565   6.282   8.005   1.280 -0.3714 -0.3686 -0.8495
   19bbb    H10  566   6.101   8.013   1.291  0.3356 -1.7737 -1.1909
   19bbb     C6  567   6.584   8.169   1.490  0.2595  0.1439 -0.2154
   19bbb    H11  568   6.587   8.224   1.585 -0.3936  0.6755 -0.4973
   19bbb    H12  569   6.637   8.239   1.424  0.9116 -0.3083 -0.1880
   19bbb     C7  570   6.261   7.939   1.795 -1.1089 -0.8267 -0.2786
   19bbb    H13  571   6.369   7.938   1.809 -0.9332 -1.1740 -1.4934
   19bbb    H14  572   6.248   7.875   1.706  0.9251 -1.3974 -0.2018
   19bbb     C8  573   6.638   8.025   1.511  1.1984  0.3103  0.1053
   19bbb    H15  574   6.625   7.956   1.427  0.8210  1.3294 -0.7096
   19bbb    H16  575   6.587   7.977   1.595 -0.0120 -0.4423 -1.0211
   19bbb     C9  576   6.207   7.840   1.395 -0.4983 -0.2235  0.2793
   19bbb    H17  577   6.123   7.813   1.461  0.6084 -0.9774  1.4205
   19bbb    H18  578   6.302   7.840   1.449  0.4583  1.0980 -1.3349
   19bbb     O1  579   6.184   7.883   1.906 -0.2525  0.2796 -0.0605
   20bbb     N1  580   6.220   6.526   3.872 -0.5412 -0.4659  1.0345
   20bbb     C1  581   6.262   6.526   4.012  0.4579 -0.0698  0.8444
   20bbb     H1  582   6.366   6.560   4.017  0.5890  0.4793 -2.8124
   20bbb     H2  583   6.261   6.422   4.047 -3.5104 -0.1341  0.9590
   20bbb     C2  584   6.283   6.420   3.782 -0.5094  0.8935 -0.2209
   20bbb     H3  585   6.391   6.435   3.775 -0.5138  1.0869  0.0746
   20bbb     H4  586   6.244   6.414   3.680 -0.4507 -0.5067 -0.1775
   20bbb     C3  587   6.231   6.659   3.810  0.2401 -0.0802 -0.0579
   20bbb     H5  588   6.317   6.662   3.742 -2.5964 -1.5320 -4.0746
   20bbb     H6  589   6.236   6.727   3.896  0.1796  0.4102 -0.4371
   20bbb     C4  590   6.116   6.686   3.706 -0.3234 -0.7820 -1.1213
   20bbb     H7  591   6.028   6.683   3.772  0.5028 -0.7997  0.0152
   20bbb     H8  592   6.123   6.599   3.639  0.0246 -0.4215 -1.5623
   20bbb     C5  593   6.162   6.594   4.111  0.1857 -0.0594  0.1760
   20bbb     H9  594   6.123   6.690   4.076 -0.4677  0.3373  1.9057
   20bbb    H10  595   6.207   6.616   4.208 -0.3780  1.5621  0.0956
   20bbb     C6  596   6.264   6.275   3.841  0.3512 -0.3638  0.1765
   20bbb    H11  597   6.334   6.264   3.925 -0.4773  0.2586  0.9765
   20bbb    H12  598   6.300   6.205   3.765 -1.8016 -2.5693  1.0387
   20bbb     C7  599   6.113   6.826   3.638 -0.1646 -0.2046 -0.1358
   20bbb    H13  600   6.095   6.899   3.718  3.2362 -0.0053  0.5806
   20bbb    H14  601   6.042   6.817   3.555 -1.3147 -0.9500  0.8881
   20bbb     C8  602   6.123   6.244   3.886  0.2366 -0.0055 -0.0438
   20bbb    H15  603   6.053   6.275   3.808  0.3820  1.2512  0.3015
   20bbb    H16  604   6.095   6.314   3.965 -1.3518 -0.9592  0.2830
   20bbb     C9  605   6.033   6.505   4.157 -0.2847  0.4221 -0.4289
   20bbb    H17  606   6.071   6.409   4.194 -1.2224 -1.0527 -3.0305
   20bbb    H18  607   5.967   6.478   4.073 -1.0160 -2.1395  0.8792
   20bbb     O1  608   6.246   6.863   3.594  0.0006  0.1941 -0.1705
   21bbb     N1  609   7.272   7.711   3.424 -0.2912 -0.2310 -0.0750
   21bbb     C1  610   7.335   7.825   3.502 -0.0558  0.3338 -0.4577
   21bbb     H1  611   7.262   7.855   3.577  0.0805 -1.3581  0.3994
   21bbb     H2  612   7.347   7.917   3.443 -0.6567  0.1378 -0.8978
   21bbb     C2  613   7.356   7.672   3.304  0.4235 -0.5979  0.1049
   21bbb     H3  614   7.453   7.637   3.341  0.1967 -0.5326  0.7815
   21bbb     H4  615   7.371   7.750   3.227  0.4045 -2.0637 -1.4427
   21bbb     C3  616   7.123   7.729   3.402 -0.3949  0.6230 -0.1892
   21bbb     H5  617   7.095   7.639   3.345  1.9996 -0.6381  0.4741
   21bbb     H6  618   7.104   7.817   3.340 -1.6947 -0.3767 -1.2673
   21bbb     C4  619   7.048   7.727   3.537  0.0084 -0.1797  0.3310
   21bbb     H7  620   7.044   7.830   3.575  1.5810 -0.5712  1.7079
   21bbb     H8  621   7.100   7.665   3.611  1.4471 -0.9173 -1.2643
   21bbb     C5  622   7.474   7.790   3.562 -0.3706  0.0065 -0.4206
   21bbb     H9  623   7.558   7.781   3.492 -0.7423 -1.5259 -0.7129
   21bbb    H10  624   7.474   7.695   3.617  1.5370  1.4069  2.2062
   21bbb     C6  625   7.304   7.545   3.229  0.7256 -0.7974 -0.1147
   21bbb    H11  626   7.217   7.567   3.167  1.0685  0.6763 -0.0942
   21bbb    H12  627   7.274   7.467   3.301 -0.7407 -0.5222 -0.3905
   21bbb     C7  628   6.892   7.695   3.529 -0.6030  0.5526  0.6401
   21bbb    H13  629   6.832   7.755   3.460  0.5098  0.9924  0.0233
   21bbb    H14  630   6.845   7.700   3.627 -3.1732  1.0260 -0.5382
   21bbb     C8  631   7.410   7.489   3.134  0.4516  0.2138  0.2480
   21bbb    H15  632   7.435   7.572   3.067  0.7419 -0.3163 -0.3036
   21bbb    H16  633   7.357   7.420   3.067  0.0934 -0.6913  1.4369
   21bbb     C9  634   7.524   7.889   3.669  0.0559  0.1370  0.0262
   21bbb    H17  635   7.544   7.990   3.631 -0.6348  1.2209  2.3362
   21bbb    H18  636   7.619   7.855   3.713  0.5569 -0.0872 -1.1700
   21bbb     O1  637   6.875   7.552   3.478 -0.0726 -0.4812 -0.3610
   22bbb     N1  638   4.968   6.156   4.345  0.0423 -0.0050  0.0820
   22bbb     C1  639   5.091   6.141   4.430  0.3591 -0.9619  0.2755
   22bbb     H1  640   5.149   6.051   4.408  1.3150 -0.0921 -0.8594
   22bbb     H2  641   5.063   6.133   4.536 -0.7319 -2.0155 -0.0725
   22bbb     C2  642   4.893   6.275   4.378  0.9393  0.3483 -0.3632
   22bbb     H3  643   4.813   6.281   4.303 -0.5632 -1.3450  1.0108
   22bbb     H4  644   4.959   6.362   4.372  1.3982  0.2578  2.1712
   22bbb     C3  645   4.882   6.033   4.331  0.6611  0.0854  0.1623
   22bbb     H5  646   4.810   6.055   4.252 -1.0024 -0.3967  1.4751
   22bbb     H6  647   4.826   6.011   4.423  1.5399 -1.8901  0.2910
   22bbb     C4  648   4.956   5.912   4.281 -0.4347  0.3963  0.4683
   22bbb     H7  649   5.028   5.884   4.358 -0.7379 -1.5055  0.1053
   22bbb     H8  650   5.018   5.931   4.192 -0.7439 -1.8596 -0.2907
   22bbb     C5  651   5.195   6.256   4.421 -0.2154 -0.3001  0.2297
   22bbb     H9  652   5.157   6.352   4.458  1.3670  0.4553 -0.0321
   22bbb    H10  653   5.228   6.273   4.318 -0.4110 -0.6826  0.1023
   22bbb     C6  654   4.827   6.277   4.515  0.0022 -1.1762 -0.0741
   22bbb    H11  655   4.902   6.255   4.592 -0.5517  0.6703  1.0741
   22bbb    H12  656   4.748   6.202   4.508  0.7995 -2.0779  0.3606
   22bbb     C7  657   4.846   5.800   4.260 -0.1990 -0.1894 -0.2584
   22bbb    H13  658   4.772   5.820   4.182  0.1153  1.4041 -0.1778
   22bbb    H14  659   4.783   5.787   4.348 -1.0361 -1.0164 -0.9536
   22bbb     C8  660   4.762   6.408   4.546  0.1176 -0.0639  0.3431
   22bbb    H15  661   4.706   6.440   4.458  0.8440  1.4176  0.3795
   22bbb    H16  662   4.840   6.485   4.552 -0.2308  0.2767  0.5812
   22bbb     C9  663   5.330   6.238   4.491 -0.9979 -0.3401 -0.1870
   22bbb    H17  664   5.383   6.330   4.461 -1.2797  0.2802  1.1389
   22bbb    H18  665   5.387   6.153   4.453  1.9757  1.6949 -0.6187
   22bbb     O1  666   4.915   5.666   4.239  0.4868 -0.4675  0.1425
   23bbb     N1  667   4.993   4.723   4.814 -0.1549 -0.0564  0.8160
   23bbb     C1  668   5.091   4.630   4.858 -0.9475  0.5814 -0.7944
   23bbb     H1  669   5.190   4.665   4.828 -1.1137  0.3986 -1.5767
   23bbb     H2  670   5.086   4.533   4.807  0.8399 -0.6761  1.2689
   23bbb     C2  671   4.847   4.679   4.823  0.3774 -0.1070 -0.5934
   23bbb     H3  672   4.791   4.767   4.789  0.9049  0.3107 -0.3940
   23bbb     H4  673   4.823   4.655   4.928 -3.1370 -1.8503 -1.6596
   23bbb     C3  674   5.020   4.861   4.858  0.0575 -0.0327  0.0591
   23bbb     H5  675   5.125   4.866   4.891  0.0928  0.2808 -0.0947
   23bbb     H6  676   4.965   4.901   4.945 -0.9867  0.3363 -0.7504
   23bbb     C4  677   5.018   4.957   4.741  0.1996  0.2960 -0.3767
   23bbb     H7  678   4.920   4.948   4.694  1.0611 -0.1187 -2.1824
   23bbb     H8  679   5.091   4.920   4.668  0.1817 -0.6721  0.0754
   23bbb     C5  680   5.087   4.596   5.008  0.2715 -0.4110 -0.0153
   23bbb     H9  681   4.988   4.576   5.050  1.3905 -1.3732  2.3493
   23bbb    H10  682   5.126   4.685   5.059 -0.2856 -1.7395  2.8682
   23bbb     C6  683   4.806   4.558   4.731 -0.4283  0.6722 -0.1021
   23bbb    H11  684   4.857   4.571   4.634 -1.2015 -0.9646 -0.7509
   23bbb    H12  685   4.697   4.553   4.720 -0.5208 -0.9314  1.2552
   23bbb     C7  686   5.037   5.113   4.775 -0.3299  0.1199 -0.4417
   23bbb    H13  687   5.127   5.116   4.837  0.3482 -3.6851 -1.0601
   23bbb    H14  688   4.950   5.141   4.836 -0.8229  0.0679 -1.1111
   23bbb     C8  689   4.841   4.421   4.795 -0.1981 -0.9389  1.1097
   23bbb    H15  690   4.922   4.426   4.869  0.9433  0.8150 -0.1575
   23bbb    H16  691   4.885   4.365   4.712  2.5953  2.3661  0.0981
   23bbb     C9  692   5.172   4.473   5.038 -0.2270 -0.2725 -0.2352
   23bbb    H17  693   5.171   4.461   5.147  3.7384  1.4257  0.1497
   23bbb    H18  694   5.272   4.487   4.995 -0.7936  1.9480 -0.9388
   23bbb     O1  695   5.052   5.200   4.659 -0.6653  0.1992 -0.3383
   24bbb     N1  696   4.796   6.339   2.910 -0.3583 -0.2377 -0.0841
   24bbb     C1  697   4.835   6.467   2.976 -0.2688  0.1034  0.0551
   24bbb     H1  698   4.887   6.448   3.071 -1.6971 -0.4150  0.7649
   24bbb     H2  699   4.744   6.522   3.000  1.0663  1.9944  1.0252
   24bbb     C2  700   4.769   6.351   2.765 -0.1211  0.0207  0.5220
   24bbb     H3  701   4.770   6.253   2.717  1.9304  0.2811 -0.0289
   24bbb     H4  702   4.852   6.404   2.718 -1.4091  0.7580 -1.0396
   24bbb     C3  703   4.689   6.261   2.981 -0.0535  0.0964 -0.3981
   24bbb     H5  704   4.600   6.323   2.996 -0.2230 -0.5561  1.5151
   24bbb     H6  705   4.730   6.231   3.078 -2.2430  0.7902  0.7936
   24bbb     C4  706   4.646   6.127   2.921  0.1919  0.1487 -0.4275
   24bbb     H7  707   4.727   6.054   2.926  0.1655  0.1591  0.2421
   24bbb     H8  708   4.614   6.132   2.816  2.0827 -0.0601 -1.0556
   24bbb     C5  709   4.932   6.562   2.900  0.4438  0.1385  0.0241
   24bbb     H9  710   4.871   6.618   2.827 -0.5375 -1.0844 -0.1430
   24bbb    H10  711   5.012   6.502   2.856 -0.9968 -2.1871  0.3646
   24bbb     C6  712   4.641   6.424   2.731 -0.7531  0.0428 -0.2332
   24bbb    H11  713   4.659   6.529   2.757  1.8513 -0.4101  0.0194
   24bbb    H12  714   4.555   6.383   2.785 -0.6206  0.6795  0.4857
   24bbb     C7  715   4.520   6.078   3.000 -0.2829  0.2574 -0.0511
   24bbb    H13  716   4.431   6.136   2.972 -0.5966  0.2651  0.9239
   24bbb    H14  717   4.541   6.096   3.106  0.6670  2.3070 -0.5512
   24bbb     C8  718   4.613   6.417   2.574 -0.1119  0.5525 -0.2903
   24bbb    H15  719   4.530   6.483   2.544 -1.3185 -1.1760 -0.8885
   24bbb    H16  720   4.577   6.315   2.559 -0.0019  0.4689 -0.0020
   24bbb     C9  721   5.006   6.667   2.988  0.8457 -0.1474  0.7991
   24bbb    H17  722   5.077   6.622   3.059  0.4290  0.2172  1.4620
   24bbb    H18  723   4.931   6.716   3.052  0.7822  2.0100 -0.8490
   24bbb     O1  724   4.503   5.937   2.980  0.1821  0.3108 -0.5193
   25bbb     N1  725   4.092   4.819   2.745  0.6536  0.2316 -0.1447
   25bbb     C1  726   4.031   4.950   2.708  0.1993  0.1633 -0.6498
   25bbb     H1  727   3.958   4.990   2.779  1.8986  2.2276  0.0483
   25bbb     H2  728   3.982   4.939   2.611  1.3109 -0.7529 -1.1397
   25bbb     C2  729   4.159   4.742   2.641  0.7534 -0.0353  0.5106
   25bbb     H3  730   4.197   4.644   2.673  0.8698  0.3064  1.4178
   25bbb     H4  731   4.252   4.796   2.618  0.0283  1.0051 -0.0764
   25bbb     C3  732   4.172   4.815   2.867 -0.4575  0.1421  0.0011
   25bbb     H5  733   4.269   4.865   2.856 -0.6245  0.3987 -0.3024
   25bbb     H6  734   4.201   4.712   2.892 -1.5669 -0.3758 -0.7514
   25bbb     C4  735   4.098   4.876   2.993 -0.0574 -0.0575 -0.0797
   25bbb     H7  736   4.017   4.806   3.020 -0.3969  0.6085  0.6743
   25bbb     H8  737   4.061   4.978   2.977  2.8977  1.2314  0.7546
   25bbb     C5  738   4.144   5.057   2.695 -0.3187  0.4987  0.0041
   25bbb     H9  739   4.215   5.007   2.629 -0.0896 -0.4403  0.9298
   25bbb    H10  740   4.205   5.064   2.786 -0.4110  0.0561  0.1064
   25bbb     C6  741   4.068   4.711   2.524  0.4651  0.3760  0.2532
   25bbb    H11  742   4.131   4.651   2.456 -0.6927 -0.5987  0.0032
   25bbb    H12  743   4.033   4.797   2.467 -1.2238 -1.3031 -1.3990
   25bbb     C7  744   4.186   4.879   3.125 -0.3147 -0.7820 -0.9218
   25bbb    H13  745   4.226   4.780   3.149 -0.5366 -0.4939  0.7553
   25bbb    H14  746   4.129   4.916   3.211  1.3243  0.8475 -0.4511
   25bbb     C8  747   3.935   4.634   2.556 -0.1874 -0.1875  0.0506
   25bbb    H15  748   3.870   4.638   2.467 -0.6757  1.4833  0.4492
   25bbb    H16  749   3.877   4.685   2.633  0.8762 -1.3708  1.7041
   25bbb     C9  750   4.113   5.194   2.629 -1.1979  0.3138 -0.4618
   25bbb    H17  751   4.095   5.186   2.521  0.2811  0.5999 -0.7581
   25bbb    H18  752   4.193   5.269   2.635 -2.5960  1.8190  0.4814
   25bbb     O1  753   4.300   4.964   3.105  0.1601  0.2296 -0.0681
   26bbb     N1  754   7.256   6.624   3.111 -0.3366 -0.8236  1.1132
   26bbb     C1  755   7.340   6.583   2.993  0.1716 -0.0998  0.4354
   26bbb     H1  756   7.340   6.662   2.916 -2.2593 -0.3404  0.0924
   26bbb     H2  757   7.297   6.495   2.943 -0.5989  0.4103  0.1799
   26bbb     C2  758   7.297   6.741   3.193  0.1346 -0.6509  0.5552
   26bbb     H3  759   7.390   6.723   3.248  0.3397  1.6778  1.0825
   26bbb     H4  760   7.216   6.757   3.264 -0.5840 -0.7925 -0.2083
   26bbb     C3  761   7.188   6.507   3.181  0.0207  0.0185  0.7290
   26bbb     H5  762   7.104   6.553   3.235  0.4002  3.3157 -1.1906
   26bbb     H6  763   7.265   6.471   3.251  0.1676  0.6252  0.8924
   26bbb     C4  764   7.121   6.400   3.091  0.4093 -0.7407  0.2259
   26bbb     H7  765   7.194   6.349   3.027  0.3660  0.6665 -0.9833
   26bbb     H8  766   7.046   6.445   3.026  1.1417 -0.5374 -0.5012
   26bbb     C5  767   7.490   6.550   3.033  0.0618  0.3368  0.4674
   26bbb     H9  768   7.526   6.489   2.950 -3.6318 -0.9854 -0.3713
   26bbb    H10  769   7.490   6.497   3.129 -1.0229 -1.3229 -0.4071
   26bbb     C6  770   7.327   6.870   3.114 -0.6014 -0.6581  0.8954
   26bbb    H11  771   7.317   6.854   3.006 -0.2947  2.8287  0.2286
   26bbb    H12  772   7.429   6.910   3.117 -1.3522  1.4251  0.6406
   26bbb     C7  773   7.046   6.294   3.179 -0.2846 -0.4768 -0.0190
   26bbb    H13  774   7.125   6.249   3.240 -0.7503 -0.2393  0.7704
   26bbb    H14  775   6.998   6.224   3.110 -0.5456  2.1296 -2.6796
   26bbb     C8  776   7.245   6.991   3.160  0.0580  0.3634  0.0295
   26bbb    H15  777   7.138   6.966   3.165  0.2376 -0.5329 -0.5413
   26bbb    H16  778   7.249   7.059   3.074 -1.1568 -2.0048 -2.0333
   26bbb     C9  779   7.584   6.671   3.048  0.1715  0.8537 -0.1440
   26bbb    H17  780   7.681   6.626   3.067 -0.4451 -0.7142 -0.5694
   26bbb    H18  781   7.560   6.723   3.141  0.1055 -0.0082  0.3261
   26bbb     O1  782   6.947   6.362   3.258  0.1602  0.2047  1.2772
   27bbb     N1  783   7.018   5.362   3.802 -0.3643 -0.0890  0.7186
   27bbb     C1  784   7.141   5.318   3.743  0.1250 -0.7784  1.1441
   27bbb     H1  785   7.160   5.217   3.780 -0.5261 -1.4782 -0.3371
   27bbb     H2  786   7.230   5.376   3.770  1.3077 -1.4907 -0.9883
   27bbb     C2  787   7.009   5.349   3.947 -0.0615  0.0747  0.3618
   27bbb     H3  788   6.914   5.400   3.970 -1.0879 -1.3126 -0.6605
   27bbb     H4  789   7.085   5.411   3.996 -0.0021 -0.1341  0.5345
   27bbb     C3  790   6.961   5.488   3.749 -0.3089 -0.0969 -0.5427
   27bbb     H5  791   6.863   5.495   3.798  0.1144  0.8803  0.1945
   27bbb     H6  792   6.944   5.475   3.641 -1.6895  0.0284 -0.3561
   27bbb     C4  793   7.041   5.618   3.774  0.1028 -0.1726  0.5566
   27bbb     H7  794   7.134   5.608   3.717  0.8835  1.7389  1.3854
   27bbb     H8  795   7.059   5.640   3.880 -1.8277 -0.5839  1.0069
   27bbb     C5  796   7.141   5.293   3.583 -0.1585 -0.3552 -0.1492
   27bbb     H9  797   7.230   5.240   3.548 -1.1624 -1.5289 -1.0432
   27bbb    H10  798   7.144   5.391   3.534  3.7589 -0.0741  0.3766
   27bbb     C6  799   7.003   5.206   4.008  0.5359 -0.2591  0.1003
   27bbb    H11  800   6.983   5.216   4.115 -0.6470 -1.3148 -0.0027
   27bbb    H12  801   7.107   5.171   4.002  0.5737 -0.3404  1.1016
   27bbb     C7  802   6.983   5.751   3.723 -0.6068 -0.3106 -0.5367
   27bbb    H13  803   7.052   5.832   3.747  1.0618 -1.2483 -1.9185
   27bbb    H14  804   6.883   5.779   3.758 -0.0186  1.2692 -0.0535
   27bbb     C8  805   6.906   5.100   3.943 -0.3250 -0.6036 -0.4153
   27bbb    H15  806   6.911   5.122   3.835 -1.4120  1.9030 -0.0373
   27bbb    H16  807   6.807   5.126   3.982  0.2332  0.5320  0.2763
   27bbb     C9  808   7.024   5.205   3.533  0.2957 -0.2084 -0.0141
   27bbb    H17  809   6.933   5.237   3.585  0.0995 -3.3024  1.7607
   27bbb    H18  810   7.040   5.104   3.573 -0.9568  0.0202  1.1700
   27bbb     O1  811   6.981   5.726   3.578 -0.4036 -0.8263 -0.2502
   28bbb     N1  812   5.538   5.304   4.637 -0.3165  0.5652 -0.1636
   28bbb     C1  813   5.546   5.433   4.719 -0.6760 -0.1698 -0.2684
   28bbb     H1  814   5.638   5.448   4.776 -0.8135 -1.0875  0.2244
   28bbb     H2  815   5.469   5.430   4.797  1.1103  0.1409  1.5827
   28bbb     C2  816   5.549   5.171   4.716 -0.2062  0.1706  0.8169
   28bbb     H3  817   5.645   5.136   4.756 -0.5857 -0.6787  0.9956
   28bbb     H4  818   5.521   5.089   4.648  2.5275 -0.6970  0.5967
   28bbb     C3  819   5.596   5.294   4.502  0.4334  0.0023 -0.4074
   28bbb     H5  820   5.580   5.391   4.454 -3.2549 -0.9745 -1.4907
   28bbb     H6  821   5.531   5.227   4.445 -1.9350 -1.0328  3.1839
   28bbb     C4  822   5.745   5.265   4.503 -0.1485  0.6481  0.5688
   28bbb     H7  823   5.781   5.256   4.400 -0.2924 -2.4148  0.7183
   28bbb     H8  824   5.772   5.163   4.531  0.0553 -0.0477 -1.9271
   28bbb     C5  825   5.513   5.560   4.636  0.1459  0.1693 -0.7134
   28bbb     H9  826   5.593   5.577   4.563  1.2379 -0.8378  0.1917
   28bbb    H10  827   5.529   5.640   4.709  3.3136 -0.9681  0.0145
   28bbb     C6  828   5.448   5.150   4.831 -0.2986 -0.1462 -0.1790
   28bbb    H11  829   5.355   5.205   4.813  0.6487  1.0873 -1.6465
   28bbb    H12  830   5.488   5.200   4.920 -2.7299 -0.0327  0.9168
   28bbb     C7  831   5.824   5.370   4.584 -0.5344 -0.0183 -0.2915
   28bbb    H13  832   5.809   5.350   4.690  1.4207 -1.6590 -0.2702
   28bbb    H14  833   5.799   5.471   4.549 -0.6474  0.3855  0.9285
   28bbb     C8  834   5.419   5.008   4.872 -0.0457 -0.2826  0.0148
   28bbb    H15  835   5.360   4.958   4.795  0.6273  0.0999 -0.7608
   28bbb    H16  836   5.360   5.007   4.965 -0.4217  0.6735 -0.2046
   28bbb     C9  837   5.378   5.565   4.561 -0.5273 -0.7254  0.5934
   28bbb    H17  838   5.351   5.466   4.522 -1.0696 -0.2837 -0.1896
   28bbb    H18  839   5.395   5.639   4.481 -2.2607  1.1021  1.8057
   28bbb     O1  840   5.966   5.353   4.544 -0.2460 -0.3630 -0.3863
   29bbb     N1  841   6.799   4.587   4.235 -0.0721  0.0286 -0.6780
   29bbb     C1  842   6.944   4.557   4.252 -0.4562 -0.5290 -0.3262
   29bbb     H1  843   6.969   4.535   4.356  0.1020 -1.6593 -0.6794
   29bbb     H2  844   7.012   4.637   4.220  0.0379  0.5983  3.1127
   29bbb     C2  845   6.699   4.489   4.283  0.5250  0.3253 -0.6057
   29bbb     H3  846   6.707   4.409   4.209 -1.3180  0.6090 -1.1745
   29bbb     H4  847   6.597   4.529   4.281 -0.5203 -2.2065 -0.5467
   29bbb     C3  848   6.767   4.663   4.113  0.2585  0.7518  0.5048
   29bbb     H5  849   6.803   4.607   4.027 -1.0279 -1.4419  1.2979
   29bbb     H6  850   6.817   4.760   4.124 -1.2519  1.6411 -0.1919
   29bbb     C4  851   6.622   4.698   4.081  0.7332 -0.1446 -0.2762
   29bbb     H7  852   6.557   4.622   4.128  2.8384 -1.2853  0.9378
   29bbb     H8  853   6.605   4.696   3.973 -0.7872 -1.8153 -0.0532
   29bbb     C5  854   6.989   4.437   4.173  0.1510 -0.2276 -0.7709
   29bbb     H9  855   6.964   4.459   4.069  3.1884  1.4603 -1.2747
   29bbb    H10  856   6.935   4.347   4.203 -0.8187  0.1017 -1.4883
   29bbb     C6  857   6.731   4.426   4.416  0.0934  0.7610  0.3697
   29bbb    H11  858   6.749   4.511   4.483  0.9128  2.2303 -1.6089
   29bbb    H12  859   6.822   4.364   4.411 -1.7775 -2.1491 -0.1063
   29bbb     C7  860   6.576   4.840   4.124 -0.3544 -0.1186  0.5763
   29bbb    H13  861   6.638   4.914   4.071  0.1114  0.2271  1.5800
   29bbb    H14  862   6.585   4.847   4.233 -0.7237  0.5598  0.5693
   29bbb     C8  863   6.617   4.336   4.473 -0.2254 -0.5490  0.2077
   29bbb    H15  864   6.519   4.381   4.449  0.1867  2.4264  3.2619
   29bbb    H16  865   6.617   4.346   4.582 -0.6764  4.1233  0.0048
   29bbb     C9  866   7.151   4.423   4.176 -0.2416  0.4520 -0.5137
   29bbb    H17  867   7.205   4.506   4.128  2.0914  0.5834  2.1307
   29bbb    H18  868   7.179   4.339   4.111 -0.9776 -0.0218 -0.2328
   29bbb     O1  869   6.444   4.851   4.088  0.3308 -0.2587  0.5087
   30bbb     N1  870   3.901   5.024   2.225 -0.2750 -0.3176 -0.6997
   30bbb     C1  871   3.798   4.955   2.142 -0.2643  0.1256  0.6345
   30bbb     H1  872   3.693   4.975   2.167 -0.3394  1.0861 -0.3297
   30bbb     H2  873   3.808   4.847   2.133  0.6977  0.1523  1.1827
   30bbb     C2  874   3.869   5.021   2.372  0.2132  0.3720 -0.2964
   30bbb     H3  875   3.945   5.075   2.430 -1.5009  2.3730  0.2300
   30bbb     H4  876   3.867   4.920   2.414  1.4082 -0.3714 -1.9232
   30bbb     C3  877   4.032   4.969   2.197  0.1203 -0.3293 -0.3279
   30bbb     H5  878   4.055   4.980   2.091 -1.6334 -0.3864 -0.7408
   30bbb     H6  879   4.035   4.861   2.217 -0.5074 -0.0628  1.3677
   30bbb     C4  880   4.148   5.040   2.269 -0.6618  1.2953  0.1905
   30bbb     H7  881   4.160   5.005   2.372 -1.8409 -1.4056 -0.5041
   30bbb     H8  882   4.118   5.146   2.270 -0.0146  1.4906  1.5752
   30bbb     C5  883   3.803   5.004   1.991 -0.4383 -0.1027  0.5491
   30bbb     H9  884   3.899   4.976   1.947 -0.4022 -0.1782  0.6748
   30bbb    H10  885   3.808   5.113   1.992  3.0740 -0.1360  0.1209
   30bbb     C6  886   3.752   5.105   2.422  0.6186  0.2096 -0.4256
   30bbb    H11  887   3.664   5.082   2.360  0.7968  0.3065 -0.7171
   30bbb    H12  888   3.782   5.210   2.415  0.6006  0.2250 -0.2640
   30bbb     C7  889   4.279   5.032   2.190 -0.1134 -0.2786 -0.1306
   30bbb    H13  890   4.353   5.093   2.242  0.3003 -1.3673  0.6075
   30bbb    H14  891   4.258   5.069   2.089  0.1453 -2.6225 -1.1285
   30bbb     C8  892   3.710   5.066   2.564 -0.5073 -0.4675  0.1113
   30bbb    H15  893   3.634   5.137   2.599 -0.9895 -0.6802 -0.4880
   30bbb    H16  894   3.798   5.078   2.628  0.5394 -0.7875 -1.2354
   30bbb     C9  895   3.685   4.954   1.904 -0.6637  0.3783 -0.1334
   30bbb    H17  896   3.678   4.845   1.914 -0.2612  0.2458 -1.2175
   30bbb    H18  897   3.707   4.973   1.799  0.3106 -1.3614 -0.2932
   30bbb     O1  898   4.326   4.902   2.190  0.0280  0.0346  0.7761
   31bbb     N1  899   4.521   4.009   2.934 -0.1283  0.2431  0.2337
   31bbb     C1  900   4.648   4.033   3.003 -0.7098 -0.4027 -0.4578
   31bbb     H1  901   4.703   4.107   2.945  1.7233 -1.0908  0.8352
   31bbb     H2  902   4.712   3.944   3.007  0.3373  0.1646 -2.7633
   31bbb     C2  903   4.553   3.923   2.813 -0.2973 -0.9744 -0.5097
   31bbb     H3  904   4.609   3.831   2.836  1.0421 -0.6503 -2.2502
   31bbb     H4  905   4.616   3.979   2.742  1.4133 -1.8838  0.2357
   31bbb     C3  906   4.429   4.122   2.903  0.0524  0.4119  0.3215
   31bbb     H5  907   4.388   4.163   2.996 -1.7393 -0.8718  0.1420
   31bbb     H6  908   4.338   4.091   2.851 -0.2751 -0.0234  1.1353
   31bbb     C4  909   4.491   4.242   2.828  0.2388 -0.4131  0.6165
   31bbb     H7  910   4.551   4.204   2.745  1.4002 -1.1528  1.7429
   31bbb     H8  911   4.563   4.294   2.893  0.7064 -0.2475 -0.0215
   31bbb     C5  912   4.641   4.093   3.149 -0.3701 -0.3695  0.5596
   31bbb     H9  913   4.616   4.199   3.131  1.3493  0.1097  0.8217
   31bbb    H10  914   4.743   4.089   3.187 -0.1113 -0.2629 -0.1044
   31bbb     C6  915   4.431   3.865   2.737  0.1008  0.9707  0.5725
   31bbb    H11  916   4.382   3.953   2.692 -0.4660  0.1608 -0.4235
   31bbb    H12  917   4.361   3.808   2.800 -0.1961 -0.6365 -1.1411
   31bbb     C7  918   4.383   4.345   2.790  0.6027  0.4559  0.6107
   31bbb    H13  919   4.319   4.379   2.873  2.5703  4.3339  0.7978
   31bbb    H14  920   4.309   4.304   2.721  1.2895  0.8005 -0.3524
   31bbb     C8  921   4.480   3.783   2.617 -0.5842  0.2475 -0.1492
   31bbb    H15  922   4.541   3.706   2.665  0.4856  1.3596  0.3168
   31bbb    H16  923   4.543   3.831   2.541 -0.3887  0.5043  0.1698
   31bbb     C9  924   4.536   4.022   3.239  0.6934  0.2216  0.0896
   31bbb    H17  925   4.569   3.918   3.253 -1.3852 -0.7214 -1.4867
   31bbb    H18  926   4.434   4.023   3.199  1.0450  1.8047 -0.8553
   31bbb     O1  927   4.435   4.457   2.720 -0.4321 -0.1496  0.3376
   32bbb     N1  928   5.991   5.260   0.818 -0.6075  0.8434  0.4770
   32bbb     C1  929   6.072   5.200   0.931  0.3995 -0.1715  0.3038
   32bbb     H1  930   6.110   5.099   0.907 -0.1916 -0.0297 -1.4192
   32bbb     H2  931   6.014   5.176   1.020  1.4114 -1.8962  0.5652
   32bbb     C2  932   6.058   5.255   0.685 -0.5972 -0.3047  0.2796
   32bbb     H3  933   6.163   5.286   0.685 -0.8368  0.5559 -0.7414
   32bbb     H4  934   6.012   5.326   0.616 -1.0400  0.0168  0.8899
   32bbb     C3  935   5.937   5.395   0.856 -0.1630  0.0278 -0.6834
   32bbb     H5  936   5.910   5.443   0.761  0.1821  0.5165 -0.5331
   32bbb     H6  937   6.019   5.460   0.887 -1.4246  0.7189  1.4370
   32bbb     C4  938   5.823   5.387   0.965 -0.6871 -0.1332 -0.2929
   32bbb     H7  939   5.818   5.491   1.001 -0.0234  0.7155 -2.5160
   32bbb     H8  940   5.857   5.324   1.048 -0.8809 -0.4984 -0.4881
   32bbb     C5  941   6.192   5.281   0.977 -0.3071  0.0081  0.0188
   32bbb     H9  942   6.160   5.379   1.015 -1.6310 -1.0017  1.6533
   32bbb    H10  943   6.266   5.302   0.899 -0.3882  2.0622  0.4260
   32bbb     C6  944   6.070   5.108   0.619 -0.1245 -0.6173  0.3754
   32bbb    H11  945   5.975   5.054   0.626 -0.4155  0.0151  1.7505
   32bbb    H12  946   6.142   5.055   0.683  1.4544 -0.2987 -1.0718
   32bbb     C7  947   5.682   5.349   0.916 -0.3969 -0.0262  0.4531
   32bbb    H13  948   5.690   5.271   0.839 -0.0058  0.5253 -0.0768
   32bbb    H14  949   5.648   5.447   0.878 -0.3527  0.5216  1.7791
   32bbb     C8  950   6.129   5.116   0.473 -0.5307 -0.2478  0.1537
   32bbb    H15  951   6.221   5.176   0.475  0.4078 -1.6653  0.6408
   32bbb    H16  952   6.057   5.165   0.405  0.0884  1.3361  0.5937
   32bbb     C9  953   6.264   5.221   1.103 -0.0489 -0.2891  0.0504
   32bbb    H17  954   6.184   5.213   1.177  0.4051 -2.2061  0.4004
   32bbb    H18  955   6.336   5.296   1.138  1.3782 -2.4517  2.0725
   32bbb     O1  956   5.597   5.327   1.034 -0.0393 -0.9020  0.5380
   33bbb     N1  957   5.741   4.250   1.471 -0.0465  0.1772  0.4529
   33bbb     C1  958   5.702   4.173   1.597 -0.0469  0.4007  0.4873
   33bbb     H1  959   5.613   4.111   1.579  1.4037 -1.7127  0.3026
   33bbb     H2  960   5.689   4.255   1.669  2.4767 -0.6571  2.2924
   33bbb     C2  961   5.854   4.347   1.494  0.4384  0.0695  0.3929
   33bbb     H3  962   5.940   4.290   1.529  0.3383 -1.0711 -1.1205
   33bbb     H4  963   5.835   4.416   1.577 -0.5920 -1.8780  1.8484
   33bbb     C3  964   5.624   4.308   1.404  0.3721  0.3535  0.3915
   33bbb     H5  965   5.555   4.224   1.389  0.8265 -0.1013  0.8378
   33bbb     H6  966   5.651   4.346   1.305 -1.5307  0.7983 -0.0149
   33bbb     C4  967   5.556   4.417   1.490  1.0762  0.2315  0.4193
   33bbb     H7  968   5.624   4.500   1.512 -0.2468  0.9496  2.0021
   33bbb     H8  969   5.519   4.383   1.587 -0.4577  2.4275  0.6522
   33bbb     C5  970   5.824   4.081   1.645  0.0183  0.0114 -0.0423
   33bbb     H9  971   5.920   4.135   1.647  0.2554 -0.4015 -0.2261
   33bbb    H10  972   5.835   3.999   1.573 -0.3217  0.5029 -0.6750
   33bbb     C6  973   5.900   4.412   1.367  0.4572 -0.3177  1.0896
   33bbb    H11  974   5.983   4.484   1.371  1.1048 -0.5935 -3.0970
   33bbb    H12  975   5.815   4.474   1.335  0.4812 -0.0555  1.5169
   33bbb     C7  976   5.418   4.466   1.419 -0.3505 -0.2735 -0.3000
   33bbb    H13  977   5.354   4.490   1.506 -0.3692 -2.2731  0.2882
   33bbb    H14  978   5.357   4.384   1.378  0.8711 -0.9856 -0.7395
   33bbb     C8  979   5.929   4.314   1.255 -0.4759 -0.5368 -0.3763
   33bbb    H15  980   5.956   4.365   1.162  0.9011 -1.2922 -0.4237
   33bbb    H16  981   5.832   4.267   1.234 -0.5358  0.1857 -1.8119
   33bbb     C9  982   5.808   4.020   1.791 -0.1690 -0.3265  0.1983
   33bbb    H17  983   5.766   4.094   1.860 -1.2125  2.2606 -2.9773
   33bbb    H18  984   5.908   3.995   1.827  0.5195  0.0893 -1.3630
   33bbb     O1  985   5.435   4.562   1.320 -0.5278 -0.1492 -0.4344
   34bbb     N1  986   5.812   7.452   1.606  0.2501  0.2151 -0.4660
   34bbb     C1  987   5.922   7.506   1.691 -0.2165  0.3830 -0.2877
   34bbb     H1  988   5.938   7.441   1.778  0.3162 -0.8545 -1.2693
   34bbb     H2  989   5.891   7.601   1.736 -1.5454 -0.3569  0.4148
   34bbb     C2  990   5.753   7.544   1.501  0.0459  0.3612 -0.3141
   34bbb     H3  991   5.656   7.505   1.466  0.2225  0.3482 -0.7893
   34bbb     H4  992   5.818   7.547   1.413  0.0922  0.0151 -0.2937
   34bbb     C3  993   5.836   7.311   1.571  0.2965  0.2956 -0.5842
   34bbb     H5  994   5.870   7.253   1.658  0.0176  1.9374  0.6652
   34bbb     H6  995   5.910   7.306   1.491  1.0188 -0.9560  0.1309
   34bbb     C4  996   5.706   7.242   1.521  0.2464 -0.4599  0.3682
   34bbb     H7  997   5.738   7.148   1.476  1.6503 -0.4752  1.3596
   34bbb     H8  998   5.665   7.310   1.445 -1.3435 -0.7738  0.9070
   34bbb     C5  999   6.050   7.530   1.619 -0.3058  0.2026  0.9963
   34bbb     H9 1000   6.109   7.596   1.684  1.0964  1.0134 -0.9696
   34bbb    H10 1001   6.034   7.595   1.532 -1.8336  0.5877  1.5436
   34bbb     C6 1002   5.717   7.689   1.570  0.8170  0.1086  0.0249
   34bbb    H11 1003   5.805   7.744   1.604  0.2281 -0.0545  1.9686
   34bbb    H12 1004   5.645   7.682   1.653 -0.6918 -0.4228 -1.2644
   34bbb     C7 1005   5.609   7.221   1.640 -0.2223 -0.7067  0.1126
   34bbb    H13 1006   5.591   7.320   1.684  0.0283  0.3754 -2.1055
   34bbb    H14 1007   5.665   7.154   1.706  1.1935 -0.1135 -0.4412
   34bbb     C8 1008   5.646   7.776   1.461  0.4267  0.0947 -0.0257
   34bbb    H15 1009   5.709   7.775   1.370 -0.4688 -3.7154 -0.7485
   34bbb    H16 1010   5.631   7.873   1.510 -2.8650 -0.2057 -0.2048
   34bbb     C9 1011   6.146   7.411   1.592 -0.5369 -0.0401  0.4866
   34bbb    H17 1012   6.125   7.376   1.490  2.9195  0.5307 -0.5148
   34bbb    H18 1013   6.132   7.324   1.658  2.2982 -0.2481  0.9104
   34bbb     O1 1014   5.483   7.170   1.593 -0.0950 -0.5546 -0.2999
   35bbb     N1 1015   4.493   7.505   2.307 -0.4574 -0.3016  0.7962
   35bbb     C1 1016   4.504   7.542   2.445  0.5081  0.0357  0.2815
   35bbb     H1 1017   4.412   7.503   2.493  0.8331 -1.9049 -0.5632
   35bbb     H2 1018   4.517   7.650   2.456 -1.0328  0.4066 -1.1201
   35bbb     C2 1019   4.372   7.554   2.230 -0.6220 -0.0229 -1.1069
   35bbb     H3 1020   4.376   7.653   2.182 -1.8488  1.0251  0.8297
   35bbb     H4 1021   4.283   7.566   2.294  0.6835  0.1314  0.7556
   35bbb     C3 1022   4.622   7.513   2.232 -0.1754 -0.5232  0.7414
   35bbb     H5 1023   4.604   7.474   2.131  0.9215  0.1141  0.2833
   35bbb     H6 1024   4.699   7.445   2.271 -0.5906 -1.6468 -0.3170
   35bbb     C4 1025   4.680   7.657   2.225 -0.2030 -0.1133 -0.9395
   35bbb     H7 1026   4.730   7.683   2.320  0.4698 -3.1078 -0.3652
   35bbb     H8 1027   4.601   7.724   2.191  1.9558  1.9070 -2.1958
   35bbb     C5 1028   4.614   7.464   2.520  0.1198  0.2933  0.0320
   35bbb     H9 1029   4.714   7.493   2.484 -0.2887  0.3151 -1.1197
   35bbb    H10 1030   4.602   7.358   2.498 -0.4761  0.2585  0.4898
   35bbb     C6 1031   4.314   7.452   2.129 -0.0723 -0.5525 -0.3296
   35bbb    H11 1032   4.255   7.382   2.189  2.2209 -1.5249  0.9073
   35bbb    H12 1033   4.403   7.390   2.112 -0.5096 -1.2405 -0.1595
   35bbb     C7 1034   4.778   7.669   2.110 -0.0095 -0.0548  0.3734
   35bbb    H13 1035   4.785   7.770   2.070 -0.0292  0.0634  0.6645
   35bbb    H14 1036   4.735   7.628   2.018 -1.1384  1.7830  0.0315
   35bbb     C8 1037   4.244   7.511   2.009  0.3589 -0.0817 -0.2105
   35bbb    H15 1038   4.316   7.555   1.939 -0.0756  0.3200 -0.4129
   35bbb    H16 1039   4.170   7.585   2.039  0.7047 -0.4024  1.5634
   35bbb     C9 1040   4.616   7.488   2.664  0.6586 -0.1405  0.0925
   35bbb    H17 1041   4.585   7.591   2.684  0.0852 -0.1223 -0.8276
   35bbb    H18 1042   4.720   7.463   2.690  0.2450 -3.0056 -0.7083
   35bbb     O1 1043   4.909   7.615   2.145  0.0412  0.5367 -0.0255
   36bbb     N1 1044   5.904   6.071   0.226  0.4286 -0.0589 -0.1237
   36bbb     C1 1045   6.043   6.109   0.255  0.1432  0.0461 -0.1863
   36bbb     H1 1046   6.068   6.068   0.354  0.3405  2.3542  0.7882
   36bbb     H2 1047   6.054   6.216   0.278  2.1901 -0.0649 -0.3962
   36bbb     C2 1048   5.881   5.927   0.204 -0.3949  0.5196  0.2776
   36bbb     H3 1049   5.889   5.880   0.303 -0.4135 -1.6873 -0.6908
   36bbb     H4 1050   5.964   5.882   0.147  0.4154  0.8667  1.1685
   36bbb     C3 1051   5.803   6.133   0.331 -0.2436  0.3094  0.1418
   36bbb     H5 1052   5.824   6.091   0.431 -2.3418 -0.6089  0.2625
   36bbb     H6 1053   5.704   6.097   0.300 -0.5059  2.5973 -1.9514
   36bbb     C4 1054   5.806   6.282   0.339 -0.2152 -0.0958  0.0006
   36bbb     H7 1055   5.833   6.327   0.242 -0.5264  1.1350  0.4594
   36bbb     H8 1056   5.882   6.312   0.412 -1.4563  0.2559  1.1868
   36bbb     C5 1057   6.130   6.058   0.139 -0.2493  0.2996 -0.2381
   36bbb     H9 1058   6.058   6.046   0.056 -0.8893 -0.0005  0.3483
   36bbb    H10 1059   6.171   5.961   0.166 -0.2910 -0.4892 -2.7709
   36bbb     C6 1060   5.746   5.878   0.136 -0.4621 -0.3727  0.1199
   36bbb    H11 1061   5.669   5.942   0.181 -0.2937  0.2654 -0.4750
   36bbb    H12 1062   5.724   5.771   0.146  2.6257 -1.0418  1.0501
   36bbb     C7 1063   5.669   6.333   0.393  0.8205 -0.7337 -0.5267
   36bbb    H13 1064   5.593   6.305   0.320  1.7532 -3.3815 -0.5883
   36bbb    H14 1065   5.669   6.443   0.392 -0.9270 -0.6995 -2.5152
   36bbb     C8 1066   5.744   5.914  -0.014 -0.0204  0.1633  0.0046
   36bbb    H15 1067   5.759   6.022  -0.025  1.1123 -0.1219 -1.6164
   36bbb    H16 1068   5.646   5.905  -0.062  1.0310 -0.1033 -2.2260
   36bbb     C9 1069   6.244   6.161   0.105 -0.3818 -0.3104  0.2009
   36bbb    H17 1070   6.200   6.257   0.075  0.8046  0.8680  2.0027
   36bbb    H18 1071   6.304   6.131   0.018 -0.8739  1.2051 -0.7099
   36bbb     O1 1072   5.633   6.275   0.517  0.1906 -0.4001 -0.4854
   37bbb     N1 1073   4.605   5.795   0.614  0.4530 -0.6461 -0.3898
   37bbb     C1 1074   4.500   5.877   0.553 -1.0613 -0.3610 -0.8278
   37bbb     H1 1075   4.539   5.957   0.489 -0.3063  0.4663  0.6183
   37bbb     H2 1076   4.441   5.912   0.639  2.3825  0.1664  1.5283
   37bbb     C2 1077   4.552   5.700   0.718 -0.3611 -0.7421 -0.0111
   37bbb     H3 1078   4.471   5.637   0.680 -0.4760 -0.2550 -0.5930
   37bbb     H4 1079   4.523   5.757   0.807 -0.0911  3.3781 -2.3104
   37bbb     C3 1080   4.734   5.863   0.642 -0.2900  0.3117  0.6465
   37bbb     H5 1081   4.759   5.921   0.552 -1.7971 -0.5490 -0.3676
   37bbb     H6 1082   4.811   5.787   0.657  0.4707  0.6732 -1.2231
   37bbb     C4 1083   4.739   5.968   0.758  0.3787  0.0128 -0.5186
   37bbb     H7 1084   4.651   5.959   0.823 -0.6156  1.0118 -1.6690
   37bbb     H8 1085   4.733   6.071   0.720  1.6537  0.4729  0.4604
   37bbb     C5 1086   4.416   5.790   0.457  0.1095 -0.6705 -0.5237
   37bbb     H9 1087   4.357   5.727   0.524  1.3996 -0.9807  0.3551
   37bbb    H10 1088   4.473   5.718   0.397 -0.9565 -2.5295  0.6012
   37bbb     C6 1089   4.665   5.607   0.777  0.1219  0.6661  0.1449
   37bbb    H11 1090   4.727   5.650   0.856  1.0746  0.4788 -0.4838
   37bbb    H12 1091   4.728   5.561   0.699 -0.5472  0.4033 -0.2611
   37bbb     C7 1092   4.862   5.955   0.844 -0.3044 -1.1999 -0.1039
   37bbb    H13 1093   4.875   5.848   0.866 -0.3816 -1.4181 -1.0469
   37bbb    H14 1094   4.856   6.015   0.935 -0.3683 -0.3710 -0.6412
   37bbb     C8 1095   4.599   5.482   0.842  0.0024  0.5027  0.3350
   37bbb    H15 1096   4.550   5.425   0.762  1.2513 -0.2312  0.0604
   37bbb    H16 1097   4.520   5.507   0.913 -1.5581  0.1436 -1.2266
   37bbb     C9 1098   4.324   5.875   0.359  0.5180 -0.2436 -0.6396
   37bbb    H17 1099   4.252   5.939   0.411 -0.0716 -0.5179 -1.1092
   37bbb    H18 1100   4.264   5.802   0.304  0.7202 -0.2231 -0.8902
   37bbb     O1 1101   4.981   5.996   0.768  0.5384  0.5058  0.1818
   38bbb     N1 1102   4.813   8.012   2.587  0.1904 -0.3897  0.6546
   38bbb     C1 1103   4.667   7.979   2.566  0.2052 -0.3819  0.0351
   38bbb     H1 1104   4.664   7.919   2.474  1.0493 -3.9616  2.1442
   38bbb     H2 1105   4.608   8.069   2.545 -1.6505 -1.7416 -0.8424
   38bbb     C2 1106   4.863   8.081   2.462 -0.3151 -0.2510 -0.5798
   38bbb     H3 1107   4.792   8.153   2.418  0.7471  0.5433 -1.0444
   38bbb     H4 1108   4.870   8.011   2.378 -1.0271  0.9870 -1.7154
   38bbb     C3 1109   4.902   7.902   2.635  0.1374  0.0601 -0.4633
   38bbb     H5 1110   4.853   7.864   2.725 -1.7637  1.2147 -0.9426
   38bbb     H6 1111   5.000   7.937   2.669  0.4410 -0.3170 -0.9383
   38bbb     C4 1112   4.920   7.791   2.534 -0.6883  0.1727  0.5509
   38bbb     H7 1113   4.960   7.834   2.442 -2.4332 -0.8996 -0.7565
   38bbb     H8 1114   4.821   7.749   2.513 -0.4013 -0.7777  0.9975
   38bbb     C5 1115   4.589   7.897   2.668 -0.0040  0.0870 -0.3172
   38bbb     H9 1116   4.583   7.952   2.763  2.7437 -0.3011  0.1643
   38bbb    H10 1117   4.638   7.805   2.699 -0.2207  0.8774  2.6475
   38bbb     C6 1118   4.993   8.155   2.486 -0.4010  0.0057 -0.3577
   38bbb    H11 1119   5.063   8.070   2.496 -1.4727 -0.7438  1.1150
   38bbb    H12 1120   4.986   8.216   2.577 -1.0806 -0.5347 -0.0416
   38bbb     C7 1121   4.999   7.664   2.582 -0.3105  0.0874 -0.0171
   38bbb    H13 1122   4.946   7.607   2.660 -0.7728 -1.1835 -1.2188
   38bbb    H14 1123   5.097   7.695   2.619  1.2041 -0.5443 -3.1717
   38bbb     C8 1124   5.042   8.250   2.373  0.2619 -0.0964 -0.3874
   38bbb    H15 1125   5.152   8.250   2.379  0.2965  3.0631  1.1646
   38bbb    H16 1126   5.012   8.351   2.403  0.3467 -0.5813  1.4490
   38bbb     C9 1127   4.446   7.877   2.622 -0.3399  0.0769 -1.4329
   38bbb    H17 1128   4.434   7.861   2.514  2.6294  1.7195 -2.0950
   38bbb    H18 1129   4.398   7.974   2.638  0.2292 -0.1708  2.8005
   38bbb     O1 1130   5.017   7.576   2.464  0.2565  0.2047 -0.4710
   39bbb     N1 1131   4.503   7.162   1.796 -0.4794 -1.0487  0.8943
   39bbb     C1 1132   4.386   7.074   1.768 -0.6007 -0.0817  0.0793
   39bbb     H1 1133   4.426   6.983   1.723 -1.0491  0.1188 -0.7316
   39bbb     H2 1134   4.319   7.118   1.693 -1.5679  0.5184  1.2610
   39bbb     C2 1135   4.476   7.300   1.807  0.1810 -0.7341 -0.1592
   39bbb     H3 1136   4.458   7.331   1.910  0.5872 -1.4006  0.1140
   39bbb     H4 1137   4.376   7.318   1.764 -0.3121 -1.0095  0.8313
   39bbb     C3 1138   4.610   7.113   1.899 -0.1680 -1.0005  0.2686
   39bbb     H5 1139   4.575   7.131   2.001 -0.4466  0.4546 -0.0669
   39bbb     H6 1140   4.706   7.164   1.887 -1.0346  0.6427  0.0589
   39bbb     C4 1141   4.646   6.961   1.886  0.7144 -0.3200  0.4139
   39bbb     H7 1142   4.692   6.934   1.790  1.7209  0.8510  0.5423
   39bbb     H8 1143   4.556   6.900   1.896  0.2161  0.4181  0.4742
   39bbb     C5 1144   4.304   7.039   1.902 -0.5641 -0.3655 -0.0830
   39bbb     H9 1145   4.258   7.134   1.932 -0.6362 -0.5509  0.4046
   39bbb    H10 1146   4.369   7.010   1.985  1.6554  2.2901 -0.7447
   39bbb     C6 1147   4.578   7.381   1.728  1.3546  0.2965 -0.6586
   39bbb    H11 1148   4.595   7.352   1.623 -3.1730  0.6899 -1.6968
   39bbb    H12 1149   4.667   7.372   1.792  0.5724  1.7918  0.7064
   39bbb     C7 1150   4.728   6.910   2.008  0.2459  0.4055  0.1878
   39bbb    H13 1151   4.755   6.804   2.004  0.0101  0.2737  1.7616
   39bbb    H14 1152   4.663   6.917   2.095  0.9224  0.9002  0.6609
   39bbb     C8 1153   4.535   7.531   1.731  0.3029  0.2649 -0.2248
   39bbb    H15 1154   4.507   7.568   1.831 -0.2618  2.2973 -1.0781
   39bbb    H16 1155   4.446   7.554   1.670 -0.2674  0.4204  0.6395
   39bbb     C9 1156   4.199   6.931   1.873  0.9215  0.3965  0.4615
   39bbb    H17 1157   4.122   6.980   1.811  0.5116 -1.4329 -0.5455
   39bbb    H18 1158   4.140   6.898   1.959 -1.6688  0.9328 -0.9754
   39bbb     O1 1159   4.844   6.988   2.022 -0.5124  0.1431  0.1931
   40bbb     N1 1160   7.141   7.860   1.711 -0.4102  0.0793 -0.1111
   40bbb     C1 1161   7.242   7.938   1.631  0.1612 -0.2772 -0.4277
   40bbb     H1 1162   7.267   8.036   1.674  0.1076 -0.4367 -0.0332
   40bbb     H2 1163   7.201   7.971   1.535 -1.0010  1.5193  0.6342
   40bbb     C2 1164   7.171   7.852   1.858 -0.1646 -0.3754  0.1690
   40bbb     H3 1165   7.172   7.954   1.899 -2.9818 -0.0186 -0.4416
   40bbb     H4 1166   7.277   7.827   1.875  0.3463 -0.2459 -2.3954
   40bbb     C3 1167   7.001   7.903   1.677 -0.0803  0.9436 -0.4743
   40bbb     H5 1168   6.928   7.847   1.738  0.1754 -0.8961 -1.7838
   40bbb     H6 1169   6.975   7.870   1.576 -0.6526  0.0529 -0.0532
   40bbb     C4 1170   6.965   8.056   1.682 -0.1162  1.3775  0.5328
   40bbb     H7 1171   7.026   8.108   1.607 -0.0789 -0.1359 -0.5472
   40bbb     H8 1172   6.972   8.091   1.786 -3.7971  1.5697  0.8214
   40bbb     C5 1173   7.375   7.857   1.609  0.0755 -0.0825  0.0010
   40bbb     H9 1174   7.364   7.754   1.573  0.4290 -0.8751  1.9731
   40bbb    H10 1175   7.429   7.831   1.701 -0.1145 -1.2355 -0.2044
   40bbb     C6 1176   7.091   7.758   1.946  0.1418 -0.2723  0.5221
   40bbb    H11 1177   6.986   7.790   1.953  0.3722  0.5589  0.2598
   40bbb    H12 1178   7.133   7.764   2.047  0.1158 -0.7070  0.5582
   40bbb     C7 1179   6.815   8.076   1.662 -0.0564 -0.6613  0.4540
   40bbb    H13 1180   6.795   8.181   1.684  2.1775  0.2057 -1.2339
   40bbb    H14 1181   6.756   8.018   1.734 -0.6991 -0.4453  0.1107
   40bbb     C8 1182   7.089   7.611   1.895 -0.0347 -0.1560  0.9006
   40bbb    H15 1183   7.023   7.606   1.807  1.0743 -1.1110  0.1022
   40bbb    H16 1184   7.052   7.537   1.967 -0.0191 -0.3508  0.7120
   40bbb     C9 1185   7.471   7.950   1.527  0.2810  0.4813 -0.2200
   40bbb    H17 1186   7.574   7.911   1.532  0.0491  0.0471  1.5911
   40bbb    H18 1187   7.489   8.047   1.574  2.5170 -0.1136  0.2733
   40bbb     O1 1188   6.777   8.038   1.532  0.2953  0.4439 -0.7394
   41bbb     N1 1189   6.118   7.358   1.079 -0.1351  0.5775  0.4180
   41bbb     C1 1190   6.188   7.391   0.951  0.4519  0.2206  0.1239
   41bbb     H1 1191   6.295   7.399   0.976  0.7986  1.6295 -1.6013
   41bbb     H2 1192   6.153   7.490   0.920 -1.7420  0.1289  2.0526
   41bbb     C2 1193   6.161   7.226   1.127  0.4062 -0.0965 -0.9834
   41bbb     H3 1194   6.264   7.231   1.166 -0.5917 -0.1372  1.9054
   41bbb     H4 1195   6.161   7.146   1.052  1.1256  1.7513 -3.0271
   41bbb     C3 1196   6.111   7.471   1.182  0.3827 -0.3331  0.1439
   41bbb     H5 1197   6.058   7.443   1.273 -1.0108 -0.5722 -0.7084
   41bbb     H6 1198   6.051   7.552   1.137  0.1012 -0.4534  0.3011
   41bbb     C4 1199   6.252   7.521   1.213 -0.3850  0.4553  0.0675
   41bbb     H7 1200   6.286   7.572   1.122  0.5827 -0.3549 -0.0464
   41bbb     H8 1201   6.322   7.438   1.224  0.1217  0.9728  0.8557
   41bbb     C5 1202   6.168   7.292   0.837 -0.3235 -0.1606 -0.0138
   41bbb     H9 1203   6.203   7.189   0.851 -0.0159 -0.0884 -0.2181
   41bbb    H10 1204   6.218   7.338   0.750 -0.1835  0.4336  0.3734
   41bbb     C6 1205   6.063   7.169   1.232  0.3458 -0.6302  0.2081
   41bbb    H11 1206   6.068   7.228   1.324  0.8995 -0.6189  0.1702
   41bbb    H12 1207   6.097   7.070   1.267 -0.9802 -0.3757  2.4157
   41bbb     C7 1208   6.272   7.617   1.330 -0.0309  0.2943 -0.1431
   41bbb    H13 1209   6.380   7.627   1.344  0.2342 -2.0880 -0.0854
   41bbb    H14 1210   6.226   7.572   1.419 -1.7865 -0.2196 -1.2601
   41bbb     C8 1211   5.918   7.153   1.181 -1.0038  0.4754  0.3433
   41bbb    H15 1212   5.882   7.245   1.134 -0.1727  0.4849 -0.2841
   41bbb    H16 1213   5.850   7.133   1.266 -0.1752 -4.3137  0.1567
   41bbb     C9 1214   6.024   7.276   0.807 -0.2640  0.6969  0.0186
   41bbb    H17 1215   5.981   7.377   0.793 -0.8319  0.9413  2.8553
   41bbb    H18 1216   5.976   7.234   0.896  0.1559 -1.3382 -0.6602
   41bbb     O1 1217   6.210   7.739   1.297 -0.0158 -0.5584  0.1169
   42bbb     N1 1218   6.116   5.757   4.288 -0.0799  0.1076 -0.2668
   42bbb     C1 1219   5.969   5.729   4.293 -0.5075 -0.6516 -0.2163
   42bbb     H1 1220   5.918   5.786   4.215 -1.6834 -1.1848  0.1479
   42bbb     H2 1221   5.929   5.764   4.389  1.5602 -1.0076  0.8318
   42bbb     C2 1222   6.180   5.706   4.413  0.0218  0.9748 -0.0292
   42bbb     H3 1223   6.188   5.596   4.404  2.1293  1.1863 -1.7642
   42bbb     H4 1224   6.113   5.740   4.492 -1.3319 -0.8812 -0.3091
   42bbb     C3 1225   6.155   5.893   4.240 -0.1772  0.8416 -0.2411
   42bbb     H5 1226   6.264   5.897   4.231 -0.1750  0.5586 -0.3387
   42bbb     H6 1227   6.123   5.974   4.306  1.2695  2.8569 -1.8591
   42bbb     C4 1228   6.106   5.937   4.101 -0.3695  0.2785  1.0449
   42bbb     H7 1229   5.998   5.955   4.105 -1.0832 -2.1709 -2.4550
   42bbb     H8 1230   6.109   5.858   4.025 -1.9482  1.5551 -0.4204
   42bbb     C5 1231   5.931   5.583   4.268  0.0371  0.0183 -0.3619
   42bbb     H9 1232   5.843   5.560   4.328  0.0783  1.1234  0.1472
   42bbb    H10 1233   6.010   5.518   4.309  1.9755  1.3458 -1.7823
   42bbb     C6 1234   6.331   5.742   4.432  0.4579  0.5580  0.1129
   42bbb    H11 1235   6.348   5.851   4.429  1.0371  0.5097  1.0439
   42bbb    H12 1236   6.376   5.699   4.342 -0.4362  0.3284 -0.2316
   42bbb     C7 1237   6.175   6.063   4.041  0.0475 -0.1240 -0.6671
   42bbb    H13 1238   6.277   6.041   4.006 -0.0999 -0.9803 -0.5976
   42bbb    H14 1239   6.175   6.135   4.123 -0.8744 -1.6857  0.7837
   42bbb     C8 1240   6.379   5.679   4.570 -0.1889  0.0847 -0.2745
   42bbb    H15 1241   6.345   5.575   4.584 -2.1482  0.5400 -1.3222
   42bbb    H16 1242   6.322   5.739   4.642  0.2421  0.6847 -0.4262
   42bbb     C9 1243   5.927   5.551   4.118  0.2886  0.5308 -0.1191
   42bbb    H17 1244   6.031   5.552   4.085  0.7431  0.5533  1.2387
   42bbb    H18 1245   5.867   5.623   4.061 -0.5004 -2.2295 -3.0862
   42bbb     O1 1246   6.101   6.109   3.927 -0.4932 -0.0665 -0.2900
   43bbb     N1 1247   5.588   6.627   4.587  0.1096  0.1027  0.7432
   43bbb     C1 1248   5.535   6.764   4.550 -0.3233  0.6126 -0.0642
   43bbb     H1 1249   5.619   6.830   4.527 -0.9044  1.2941 -0.2402
   43bbb     H2 1250   5.476   6.808   4.631 -0.0089  0.7327  0.1002
   43bbb     C2 1251   5.678   6.623   4.708  1.1915  0.0277 -0.1508
   43bbb     H3 1252   5.776   6.670   4.689  1.5109 -1.2406 -1.9045
   43bbb     H4 1253   5.706   6.519   4.725 -1.9846 -0.7803  0.7999
   43bbb     C3 1254   5.650   6.549   4.476  0.4926  0.2660 -0.0328
   43bbb     H5 1255   5.576   6.521   4.401  0.6548 -1.1692  0.3201
   43bbb     H6 1256   5.672   6.454   4.527 -0.3863 -0.6724 -1.3643
   43bbb     C4 1257   5.775   6.613   4.416 -0.4983 -0.5134 -0.5288
   43bbb     H7 1258   5.848   6.634   4.496 -1.0300 -1.1097  0.1266
   43bbb     H8 1259   5.750   6.713   4.378  0.0198 -1.0133 -2.2942
   43bbb     C5 1260   5.440   6.760   4.424 -0.3687  0.9352 -0.0622
   43bbb     H9 1261   5.485   6.719   4.333 -2.3257 -1.6804  0.0124
   43bbb    H10 1262   5.417   6.863   4.394 -0.8602  0.9040  0.1996
   43bbb     C6 1263   5.611   6.677   4.841 -0.8360 -0.0537 -0.1183
   43bbb    H11 1264   5.632   6.785   4.834  1.3390 -0.2917  1.5186
   43bbb    H12 1265   5.674   6.641   4.923  0.5901 -0.7008 -1.4376
   43bbb     C7 1266   5.839   6.518   4.316  0.3577  0.4838 -0.0373
   43bbb    H13 1267   5.763   6.488   4.243 -0.0565  0.2703  0.4742
   43bbb    H14 1268   5.882   6.429   4.364 -2.2570 -0.8930 -0.0720
   43bbb     C8 1269   5.459   6.647   4.858 -0.4784  0.1766  0.6371
   43bbb    H15 1270   5.443   6.539   4.869  1.6787 -0.4570 -1.6943
   43bbb    H16 1271   5.400   6.669   4.769  0.0342  0.0139  0.2525
   43bbb     C9 1272   5.301   6.684   4.451 -0.2803 -0.6267  0.7360
   43bbb    H17 1273   5.257   6.729   4.541 -3.0346 -2.1321  0.2398
   43bbb    H18 1274   5.329   6.578   4.460  0.3612 -0.4449  0.9653
   43bbb     O1 1275   5.951   6.581   4.248 -0.5650 -0.2858  0.2433
   44bbb     N1 1276   7.868   7.186   3.187 -0.2176  0.2809  0.0158
   44bbb     C1 1277   7.887   7.085   3.297 -0.3896  0.2504  0.2480
   44bbb     H1 1278   7.840   7.107   3.394 -1.2644  0.7477 -0.2817
   44bbb     H2 1279   7.994   7.086   3.320  0.1147  1.0642 -1.9110
   44bbb     C2 1280   7.943   7.159   3.063 -0.3990 -0.4624  0.4041
   44bbb     H3 1281   7.878   7.101   2.996 -0.5494 -0.4741  0.5572
   44bbb     H4 1282   8.042   7.118   3.085 -0.2062  0.4507  1.3062
   44bbb     C3 1283   7.726   7.224   3.153 -0.2403  0.1545  0.2091
   44bbb     H5 1284   7.681   7.146   3.090 -0.1700 -0.6811  1.1608
   44bbb     H6 1285   7.723   7.315   3.093 -1.6879 -0.7005 -1.1096
   44bbb     C4 1286   7.639   7.252   3.279 -0.3650  0.4987  0.5475
   44bbb     H7 1287   7.690   7.330   3.338 -0.9939  0.8855  0.5880
   44bbb     H8 1288   7.622   7.154   3.326 -1.9068 -0.3101 -1.5753
   44bbb     C5 1289   7.840   6.943   3.247 -0.3074  0.4840 -0.1594
   44bbb     H9 1290   7.907   6.894   3.176  0.4565  1.8179 -0.3921
   44bbb    H10 1291   7.739   6.954   3.205  0.0306 -1.0916 -1.4986
   44bbb     C6 1292   7.972   7.291   2.988 -0.9128  0.2548  0.2356
   44bbb    H11 1293   8.026   7.364   3.049 -1.3609 -0.3385  1.3613
   44bbb    H12 1294   7.882   7.345   2.956 -0.4453 -0.7280 -3.2359
   44bbb     C7 1295   7.501   7.305   3.251 -0.1095 -0.3142  0.0429
   44bbb    H13 1296   7.448   7.317   3.346 -0.3744 -0.9603 -0.0186
   44bbb    H14 1297   7.444   7.244   3.179  1.4296 -0.8566 -0.7645
   44bbb     C8 1298   8.058   7.276   2.860  0.0684  0.1974 -0.0279
   44bbb    H15 1299   8.158   7.237   2.882  1.0050  1.8999 -1.0397
   44bbb    H16 1300   8.081   7.374   2.815 -1.5014  0.2849 -0.7114
   44bbb     C9 1301   7.819   6.854   3.379 -0.1306  0.1355 -0.7818
   44bbb    H17 1302   7.786   6.917   3.463 -0.8159 -0.9568 -0.2156
   44bbb    H18 1303   7.906   6.798   3.415 -1.1285 -1.1300 -0.2908
   44bbb     O1 1304   7.516   7.435   3.202  0.2843  0.3158 -0.2760
   45bbb     N1 1305   7.087   8.173   3.824  0.0267 -0.2220  0.0522
   45bbb     C1 1306   7.091   8.267   3.939  0.4401 -0.9187  1.1372
   45bbb     H1 1307   7.139   8.361   3.909 -0.1197 -1.1561 -0.6399
   45bbb     H2 1308   7.163   8.230   4.013  2.7071 -2.3091 -1.5804
   45bbb     C2 1309   7.090   8.247   3.690  0.3195  0.5158 -0.6861
   45bbb     H3 1310   7.100   8.181   3.603 -1.3926  0.5365 -0.9298
   45bbb     H4 1311   7.175   8.317   3.690 -1.6466  3.0832  1.0140
   45bbb     C3 1312   7.177   8.054   3.828  0.1889  0.0207  0.6155
   45bbb     H5 1313   7.156   8.000   3.735  0.3272 -0.4079  0.8298
   45bbb     H6 1314   7.155   7.986   3.911 -1.0623  1.1137  1.2122
   45bbb     C4 1315   7.318   8.110   3.836 -0.5570 -0.2969 -0.4669
   45bbb     H7 1316   7.330   8.171   3.926 -2.5337 -0.6937  0.1141
   45bbb     H8 1317   7.331   8.167   3.743 -0.7070  0.8548  0.1927
   45bbb     C5 1318   6.951   8.297   4.004 -0.1413 -0.0331  0.4555
   45bbb     H9 1319   6.878   8.313   3.924  0.8894 -2.0925 -1.0158
   45bbb    H10 1320   6.953   8.383   4.071  0.5303 -0.7288  1.3561
   45bbb     C6 1321   6.971   8.345   3.667 -0.1211 -0.2305  0.8381
   45bbb    H11 1322   6.990   8.430   3.734  2.4334 -0.3241  0.3049
   45bbb    H12 1323   6.876   8.291   3.684 -0.5722  0.1880 -0.3021
   45bbb     C7 1324   7.431   8.003   3.854 -0.5098 -0.1544  0.4938
   45bbb    H13 1325   7.419   7.964   3.956  0.7429 -0.6789  0.4517
   45bbb    H14 1326   7.528   8.055   3.848 -0.1513 -0.8133  0.5869
   45bbb     C8 1327   6.969   8.405   3.524  0.1021  0.0202 -0.1538
   45bbb    H15 1328   6.955   8.322   3.454  2.8272  1.1945 -2.2798
   45bbb    H16 1329   7.062   8.462   3.509  1.0374 -1.5146 -0.3468
   45bbb     C9 1330   6.900   8.169   4.077 -0.7095 -0.4203  0.3433
   45bbb    H17 1331   6.901   8.082   4.009 -2.4933 -2.0736  2.3166
   45bbb    H18 1332   6.795   8.184   4.103 -0.9400 -0.4262 -0.5474
   45bbb     O1 1333   7.425   7.899   3.764 -0.5101  0.1129 -0.0522
   46bbb     N1 1334   4.641   6.638   4.994  0.3408 -0.7761  0.7727
   46bbb     C1 1335   4.521   6.718   5.039 -0.1545  0.9227 -0.1843
   46bbb     H1 1336   4.479   6.687   5.136  0.8024 -3.1267 -0.8872
   46bbb     H2 1337   4.441   6.704   4.966 -0.7229  1.3621  0.3483
   46bbb     C2 1338   4.767   6.667   5.064 -1.6103 -0.2565  0.9252
   46bbb     H3 1339   4.790   6.774   5.061 -0.6025 -0.4887 -0.7827
   46bbb     H4 1340   4.846   6.624   5.002  0.8436  2.9514  1.6109
   46bbb     C3 1341   4.609   6.496   4.971 -0.5485 -0.2970 -0.0292
   46bbb     H5 1342   4.549   6.457   5.055  1.7936  1.1148  2.4776
   46bbb     H6 1343   4.700   6.435   4.961 -1.0998 -0.9179 -1.3753
   46bbb     C4 1344   4.529   6.479   4.836  0.3018  0.2294 -0.2906
   46bbb     H7 1345   4.440   6.542   4.839  0.1872  0.0270  1.4414
   46bbb     H8 1346   4.498   6.374   4.828 -0.5753  0.3591  1.1112
   46bbb     C5 1347   4.543   6.873   5.031 -0.1010  0.4349  0.3490
   46bbb     H9 1348   4.602   6.910   4.947 -0.6189  0.4597 -0.0066
   46bbb    H10 1349   4.597   6.899   5.123 -0.9694  2.9440  0.2461
   46bbb     C6 1350   4.765   6.615   5.206  0.1288  0.0764  0.6927
   46bbb    H11 1351   4.719   6.517   5.221 -2.6521  1.0711 -0.6691
   46bbb    H12 1352   4.695   6.676   5.264  1.3969  0.1377  2.2099
   46bbb     C7 1353   4.619   6.523   4.717  0.1558 -0.0411  0.3974
   46bbb    H13 1354   4.687   6.602   4.749 -1.5171  1.0073  1.5332
   46bbb    H14 1355   4.557   6.557   4.633  0.2986 -2.4064 -0.7648
   46bbb     C8 1356   4.906   6.623   5.280  0.2044 -0.0080  0.2620
   46bbb    H15 1357   4.886   6.571   5.374  1.5744 -0.6063  0.2552
   46bbb    H16 1358   4.941   6.727   5.280  1.6069 -0.4519 -0.8091
   46bbb     C9 1359   4.402   6.937   5.026 -0.1973 -0.4140  0.3601
   46bbb    H17 1360   4.323   6.871   5.063  0.8747 -1.8301  0.2161
   46bbb    H18 1361   4.375   6.952   4.921  2.6186 -0.4831 -0.4620
   46bbb     O1 1362   4.684   6.402   4.670 -0.1323  0.7330  0.1252
   47bbb     N1 1363   5.514   6.024   4.870 -0.3798  0.3849 -0.4342
   47bbb     C1 1364   5.654   6.058   4.900 -0.0051 -0.0421  0.3707
   47bbb     H1 1365   5.689   5.977   4.967 -0.7370 -2.2315 -1.7541
   47bbb     H2 1366   5.659   6.154   4.953 -1.9752 -0.0625  0.6569
   47bbb     C2 1367   5.479   5.877   4.892  0.5830 -0.0392  0.1208
   47bbb     H3 1368   5.544   5.805   4.840  0.1023 -0.5329  0.2018
   47bbb     H4 1369   5.382   5.859   4.846 -0.9978 -1.8764  3.7503
   47bbb     C3 1370   5.413   6.126   4.910 -0.5188 -0.1400  0.8098
   47bbb     H5 1371   5.399   6.124   5.018 -0.7040  0.5523  0.8053
   47bbb     H6 1372   5.321   6.085   4.867  0.6203 -1.3807 -0.5896
   47bbb     C4 1373   5.430   6.266   4.853 -0.2308  0.5692  0.2216
   47bbb     H7 1374   5.519   6.317   4.893  1.9773 -2.6665 -0.1777
   47bbb     H8 1375   5.338   6.320   4.880  0.5037  0.4904  3.3117
   47bbb     C5 1376   5.755   6.069   4.787  0.4485 -0.6103 -0.2449
   47bbb     H9 1377   5.759   6.172   4.748 -2.3020 -0.7880 -1.2174
   47bbb    H10 1378   5.721   5.999   4.709  2.0872 -0.6195 -0.9962
   47bbb     C6 1379   5.455   5.841   5.045 -0.9775 -0.8536  0.7664
   47bbb    H11 1380   5.362   5.891   5.073 -0.9163  0.7176 -1.5499
   47bbb    H12 1381   5.543   5.870   5.104 -0.7317 -1.2484  0.5981
   47bbb     C7 1382   5.442   6.267   4.699 -0.1099 -0.6178 -0.5720
   47bbb    H13 1383   5.505   6.190   4.652 -0.0456 -0.6275 -0.4691
   47bbb    H14 1384   5.492   6.361   4.671  0.9629 -0.2419  2.3033
   47bbb     C8 1385   5.426   5.693   5.043  0.6307  0.0365 -0.0985
   47bbb    H15 1386   5.346   5.675   4.970 -0.0372 -2.9256  1.2259
   47bbb    H16 1387   5.384   5.671   5.142  1.2310 -1.0950 -0.0838
   47bbb     C9 1388   5.886   6.014   4.833 -0.0779 -0.6855 -0.1339
   47bbb    H17 1389   5.871   5.936   4.909 -0.4030 -0.7234 -0.2371
   47bbb    H18 1390   5.937   6.097   4.885 -0.3230  0.1246 -1.1572
   47bbb     O1 1391   5.312   6.242   4.634  0.1568 -0.0352 -0.1825
   48bbb     N1 1392   4.462   4.152   4.675  0.2126 -1.4138  0.4082
   48bbb     C1 1393   4.358   4.224   4.599  0.3810  0.3494  0.7606
   48bbb     H1 1394   4.354   4.184   4.497  0.1626  2.6433 -0.2052
   48bbb     H2 1395   4.390   4.329   4.589 -0.0844  0.4662  0.4332
   48bbb     C2 1396   4.470   4.008   4.654  0.7198  0.3752  0.1500
   48bbb     H3 1397   4.395   3.961   4.720  0.2455 -1.7920 -1.8220
   48bbb     H4 1398   4.570   3.982   4.690  1.3448  2.6275  0.1651
   48bbb     C3 1399   4.478   4.201   4.814 -0.1575 -1.1064  0.6472
   48bbb     H5 1400   4.386   4.176   4.868 -0.2711 -1.5245  0.2624
   48bbb     H6 1401   4.485   4.311   4.813  2.2927 -1.1886 -1.4605
   48bbb     C4 1402   4.599   4.144   4.894  0.0719  0.9846  0.4205
   48bbb     H7 1403   4.614   4.036   4.878  0.1385  1.0937 -0.2601
   48bbb     H8 1404   4.562   4.160   4.996 -2.2651 -0.5231 -0.0874
   48bbb     C5 1405   4.207   4.202   4.648 -0.8782  0.3520 -0.8204
   48bbb     H9 1406   4.193   4.280   4.723  0.5046 -0.1137 -0.0526
   48bbb    H10 1407   4.200   4.107   4.701  0.4566  1.1572  0.8817
   48bbb     C6 1408   4.457   3.951   4.511 -0.5041 -0.6546  0.0317
   48bbb    H11 1409   4.532   4.000   4.448 -0.6117  2.2386  1.9433
   48bbb    H12 1410   4.358   3.970   4.468 -0.0795  0.6454 -0.4109
   48bbb     C7 1411   4.736   4.210   4.859 -0.4654 -0.0724 -0.3985
   48bbb    H13 1412   4.781   4.161   4.772 -2.1050  0.2539 -1.4823
   48bbb    H14 1413   4.811   4.194   4.938  0.9738  1.0438 -1.4957
   48bbb     C8 1414   4.486   3.799   4.506  0.1196  0.1456  0.2186
   48bbb    H15 1415   4.428   3.747   4.583 -1.8690 -0.7122 -1.7462
   48bbb    H16 1416   4.590   3.769   4.525  0.0724 -1.4875 -1.8208
   48bbb     C9 1417   4.110   4.206   4.537 -0.7341 -0.1258  0.1178
   48bbb    H17 1418   4.118   4.106   4.493 -0.5094  0.2364 -0.6706
   48bbb    H18 1419   4.140   4.284   4.466  0.7347 -0.7539  0.0111
   48bbb     O1 1420   4.719   4.356   4.841  0.2377 -0.0626 -0.1707
   49bbb     N1 1421   5.252   3.981   4.801  0.2600 -0.7307 -0.3522
   49bbb     C1 1422   5.330   3.892   4.889  0.1362 -0.7573  0.5002
   49bbb     H1 1423   5.354   3.944   4.982  2.7271 -1.0691  0.0858
   49bbb     H2 1424   5.433   3.876   4.855  0.2504  0.3053  0.3242
   49bbb     C2 1425   5.226   3.938   4.665 -0.0031  0.1718 -0.2252
   49bbb     H3 1426   5.181   4.025   4.615 -1.8778 -0.8035 -0.3198
   49bbb     H4 1427   5.165   3.848   4.654  0.4186 -0.0368 -0.9878
   49bbb     C3 1428   5.124   4.022   4.864 -0.6524  0.1673  0.0545
   49bbb     H5 1429   5.063   3.931   4.876 -1.9741  1.1755  1.2270
   49bbb     H6 1430   5.071   4.089   4.795  0.5793  1.5573  0.4035
   49bbb     C4 1431   5.132   4.099   4.998 -0.0790  0.8950  0.1224
   49bbb     H7 1432   5.182   4.040   5.076 -0.8319  1.6747  1.2315
   49bbb     H8 1433   5.029   4.118   5.031 -0.4554 -2.9151  1.6325
   49bbb     C5 1434   5.263   3.757   4.925  0.0460 -0.2963 -0.1681
   49bbb     H9 1435   5.241   3.705   4.831  2.3011  0.0942 -0.9886
   49bbb    H10 1436   5.170   3.774   4.980 -0.2591 -0.1170 -0.7302
   49bbb     C6 1437   5.352   3.926   4.587  0.0348  0.5435  0.2081
   49bbb    H11 1438   5.318   3.911   4.484  1.2759  1.0814 -0.2988
   49bbb    H12 1439   5.410   3.836   4.607  0.1615  0.3567 -0.9044
   49bbb     C7 1440   5.212   4.237   4.991 -0.1657  0.4049 -0.4672
   49bbb    H13 1441   5.267   4.241   4.896  0.4653  2.0991 -0.0567
   49bbb    H14 1442   5.278   4.247   5.078 -1.3333  2.0903  0.2525
   49bbb     C8 1443   5.447   4.052   4.565 -0.7124  0.0401 -0.5723
   49bbb    H15 1444   5.483   4.089   4.661  0.4195  1.0719 -1.3732
   49bbb    H16 1445   5.389   4.143   4.545 -1.0914  0.7001  2.9874
   49bbb     C9 1446   5.359   3.662   5.005 -0.4825 -0.0096 -0.2909
   49bbb    H17 1447   5.456   3.651   4.956  0.4513 -1.1486  1.6896
   49bbb    H18 1448   5.324   3.558   5.005 -0.3666 -0.0484 -0.7050
   49bbb     O1 1449   5.118   4.350   4.990 -0.4837 -0.7941  0.0183
   50bbb     N1 1450   5.123   6.566   2.369 -0.0208  0.1445  0.2654
   50bbb     C1 1451   5.178   6.700   2.329  0.6748  0.0818 -0.5824
   50bbb     H1 1452   5.103   6.753   2.269 -0.1304 -0.3765 -0.0054
   50bbb     H2 1453   5.268   6.688   2.267  0.7095 -0.0939 -0.4974
   50bbb     C2 1454   5.113   6.461   2.259  0.0071  0.8432  0.7557
   50bbb     H3 1455   5.205   6.455   2.200 -0.4181 -1.0058  0.2170
   50bbb     H4 1456   5.028   6.486   2.194 -0.6838 -1.8018  0.5530
   50bbb     C3 1457   5.004   6.565   2.465 -0.2018 -0.2746  0.4121
   50bbb     H5 1458   5.021   6.642   2.542  1.3685  1.7988 -1.8674
   50bbb     H6 1459   5.001   6.465   2.511 -0.4968 -0.6375 -0.3790
   50bbb     C4 1460   4.871   6.608   2.394 -0.3338  0.3987  0.2905
   50bbb     H7 1461   4.861   6.559   2.297 -0.4146 -0.5884  0.7860
   50bbb     H8 1462   4.883   6.717   2.387 -1.3549  0.5761  0.9515
   50bbb     C5 1463   5.215   6.788   2.450  0.5968  0.7971  0.1980
   50bbb     H9 1464   5.129   6.804   2.516  0.7221 -1.0361  0.8502
   50bbb    H10 1465   5.233   6.887   2.407  2.1511  0.4945  0.0872
   50bbb     C6 1466   5.085   6.313   2.308  0.6101  0.1191 -0.2666
   50bbb    H11 1467   4.982   6.308   2.345  0.6671  1.1681  0.0646
   50bbb    H12 1468   5.146   6.283   2.394  0.9035 -0.7058 -0.7451
   50bbb     C7 1469   4.750   6.586   2.481 -0.3377  0.4732  0.1631
   50bbb    H13 1470   4.669   6.641   2.431 -0.4579 -0.1406 -0.3245
   50bbb    H14 1471   4.762   6.626   2.582  0.0393  0.2738  0.2004
   50bbb     C8 1472   5.113   6.218   2.194 -0.1113  0.4478  0.9563
   50bbb    H15 1473   5.099   6.114   2.228  2.8597 -0.1704  0.5473
   50bbb    H16 1474   5.219   6.231   2.168  0.3252  0.1868  2.4659
   50bbb     C9 1475   5.338   6.748   2.526  0.0506 -0.1667  0.1533
   50bbb    H17 1476   5.344   6.639   2.539  4.1551 -0.2465 -0.9240
   50bbb    H18 1477   5.318   6.777   2.630  1.2479 -3.4146  1.4421
   50bbb     O1 1478   4.723   6.445   2.489 -0.8031 -0.4326 -0.4483
   51bbb     N1 1479   4.948   7.083   2.802  0.3853  0.3771 -0.1041
   51bbb     C1 1480   4.959   7.205   2.891 -0.1612  0.5946 -0.0271
   51bbb     H1 1481   5.036   7.185   2.967  0.2737 -1.3192 -0.9045
   51bbb     H2 1482   4.867   7.231   2.943  0.2225  2.9322 -0.3808
   51bbb     C2 1483   4.846   7.098   2.695  0.4428  0.4620 -0.3043
   51bbb     H3 1484   4.876   7.148   2.602  0.6986 -0.3488 -0.6693
   51bbb     H4 1485   4.761   7.156   2.730  1.2835  0.5092  1.8246
   51bbb     C3 1486   5.076   7.013   2.748 -0.0771 -0.7027  0.2399
   51bbb     H5 1487   5.118   7.081   2.673  1.8033  0.2633  2.0758
   51bbb     H6 1488   5.062   6.921   2.690  0.1855  0.3669 -1.6142
   51bbb     C4 1489   5.176   6.986   2.861 -0.2824 -0.3731 -0.2010
   51bbb     H7 1490   5.203   7.070   2.927 -0.6344 -1.0055  0.7782
   51bbb     H8 1491   5.273   6.954   2.821 -1.6420 -2.2248 -2.2244
   51bbb     C5 1492   4.998   7.327   2.821  0.2417 -0.3827  0.1394
   51bbb     H9 1493   4.918   7.357   2.752 -0.0662 -4.5326 -1.5724
   51bbb    H10 1494   5.081   7.306   2.753  0.8204 -0.3141  0.8076
   51bbb     C6 1495   4.791   6.959   2.650 -0.0280 -0.9271  0.6501
   51bbb    H11 1496   4.734   6.909   2.729 -0.3599 -2.1755 -0.3520
   51bbb    H12 1497   4.870   6.893   2.614  0.7509 -0.0789  0.7753
   51bbb     C7 1498   5.125   6.881   2.967 -0.0318  0.1528  0.4529
   51bbb    H13 1499   5.046   6.922   3.032  0.2089 -0.3706  1.0830
   51bbb    H14 1500   5.195   6.828   3.032 -1.4953 -2.0583  0.3084
   51bbb     C8 1501   4.695   6.988   2.531  0.8277  0.2583 -0.2253
   51bbb    H15 1502   4.761   7.023   2.451  0.8527  1.0031  0.1116
   51bbb    H16 1503   4.624   7.071   2.541 -0.6775 -0.7970 -1.5765
   51bbb     C9 1504   5.041   7.448   2.906 -0.9922 -0.5528 -0.4696
   51bbb    H17 1505   4.998   7.436   3.007  0.4376  1.2568  0.4028
   51bbb    H18 1506   4.998   7.540   2.864 -0.7196 -0.6340 -0.9278
   51bbb     O1 1507   5.073   6.763   2.896 -0.0768 -0.1742 -0.4198
   52bbb     N1 1508   4.099   4.144   2.366  0.1795  0.4665 -0.4693
   52bbb     C1 1509   4.147   4.201   2.236  0.2340  0.2885 -0.0139
   52bbb     H1 1510   4.062   4.230   2.174 -1.7237 -3.2283  0.7326
   52bbb     H2 1511   4.196   4.122   2.176 -1.0557 -0.7362  0.2287
   52bbb     C2 1512   4.025   4.019   2.335 -0.4336 -0.0793 -0.6404
   52bbb     H3 1513   4.086   3.953   2.272 -2.6141 -1.6245 -1.2874
   52bbb     H4 1514   3.939   4.038   2.269 -0.7037 -0.0178 -0.2740
   52bbb     C3 1515   4.056   4.230   2.480 -0.4696  0.2684  0.0510
   52bbb     H5 1516   4.134   4.306   2.491 -0.9066  1.0542 -1.8155
   52bbb     H6 1517   4.051   4.169   2.571 -1.8608  0.4215  0.1057
   52bbb     C4 1518   3.927   4.310   2.453 -0.3845 -0.0092 -0.0452
   52bbb     H7 1519   3.842   4.248   2.419 -1.2521  1.2616 -0.2896
   52bbb     H8 1520   3.950   4.374   2.367  1.5525  1.9375  1.7979
   52bbb     C5 1521   4.247   4.313   2.245  0.4395  0.4745  0.1886
   52bbb     H9 1522   4.321   4.305   2.165  0.3659 -0.0217  0.1621
   52bbb    H10 1523   4.304   4.294   2.337 -0.8491 -3.0809  0.4144
   52bbb     C6 1524   3.964   3.947   2.460 -0.3775  0.1191  0.2473
   52bbb    H11 1525   3.879   4.008   2.492 -2.4541 -1.2873 -2.1857
   52bbb    H12 1526   4.033   3.952   2.545 -0.6562 -0.9191  0.5427
   52bbb     C7 1527   3.880   4.392   2.578  0.3141 -0.2310  0.1064
   52bbb    H13 1528   3.887   4.326   2.665  0.9951 -1.9164 -1.1714
   52bbb    H14 1529   3.779   4.436   2.572  0.4648  0.6850  2.7716
   52bbb     C8 1530   3.923   3.796   2.439  0.0195  0.8616  0.0737
   52bbb    H15 1531   3.891   3.746   2.531 -0.5454 -0.0004 -0.5762
   52bbb    H16 1532   4.004   3.746   2.384  0.0378 -0.2829  1.1168
   52bbb     C9 1533   4.192   4.449   2.251  0.3099  0.0702  0.4416
   52bbb    H17 1534   4.275   4.513   2.283  1.1922  1.6494 -4.1315
   52bbb    H18 1535   4.122   4.473   2.331 -0.1648  1.5971 -0.3790
   52bbb     O1 1536   3.976   4.502   2.595  0.0680  0.1685  0.4444
   53bbb     N1 1537   3.718   5.254   3.016  0.7856  0.0733 -0.1835
   53bbb     C1 1538   3.605   5.294   2.935  0.0016 -0.5666  0.1001
   53bbb     H1 1539   3.587   5.217   2.858 -1.2805 -0.0502 -0.1509
   53bbb     H2 1540   3.618   5.384   2.873 -1.4544 -0.2511  0.2086
   53bbb     C2 1541   3.697   5.147   3.116  0.1812 -0.2971 -0.2028
   53bbb     H3 1542   3.688   5.052   3.060  1.3380  0.4305 -1.6900
   53bbb     H4 1543   3.609   5.167   3.178  0.2853 -1.1928  0.2459
   53bbb     C3 1544   3.835   5.235   2.935  0.5263  0.0132  0.6948
   53bbb     H5 1545   3.810   5.162   2.857  0.3365 -0.3029  1.0435
   53bbb     H6 1546   3.913   5.184   2.993 -1.4804 -3.6428  0.5017
   53bbb     C4 1547   3.886   5.363   2.864  0.2119  0.4861  0.0721
   53bbb     H7 1548   3.917   5.442   2.934  1.6142  2.8167 -2.9753
   53bbb     H8 1549   3.816   5.405   2.791  0.6631 -0.0980 -0.7141
   53bbb     C5 1550   3.467   5.305   3.010  0.2258 -0.2819 -0.5260
   53bbb     H9 1551   3.427   5.208   3.041  1.7967 -0.4204  1.2204
   53bbb    H10 1552   3.389   5.351   2.948 -1.3955  0.5270  1.9721
   53bbb     C6 1553   3.809   5.132   3.219  0.5136 -0.4120 -0.3656
   53bbb    H11 1554   3.908   5.108   3.178  1.1806 -0.3351  1.1277
   53bbb    H12 1555   3.788   5.054   3.294  2.0843 -0.7173 -0.2201
   53bbb     C7 1556   4.017   5.345   2.779  0.6037  0.0471  0.4875
   53bbb    H13 1557   4.099   5.309   2.843  1.1810 -0.9178 -0.7447
   53bbb    H14 1558   4.049   5.434   2.724 -0.1310  0.0243  0.0225
   53bbb     C8 1559   3.826   5.262   3.304  0.2914 -0.0288  1.0881
   53bbb    H15 1560   3.813   5.348   3.238  3.5459 -1.2789 -1.4855
   53bbb    H16 1561   3.930   5.263   3.341  1.4525 -0.0403 -1.8845
   53bbb     C9 1562   3.466   5.388   3.144  0.9156 -0.2714 -0.2287
   53bbb    H17 1563   3.500   5.492   3.135 -2.5029  0.9572 -0.4136
   53bbb    H18 1564   3.539   5.341   3.211  1.1557  0.1945 -0.1567
   53bbb     O1 1565   3.994   5.248   2.683 -0.1562 -0.6493 -0.1822
   54bbb     N1 1566   7.309   6.877   3.713 -0.0342 -0.4626  0.1596
   54bbb     C1 1567   7.215   6.807   3.804 -0.2418 -0.6981 -0.3338
   54bbb     H1 1568   7.112   6.830   3.775 -0.5024 -0.0762  0.9798
   54bbb     H2 1569   7.217   6.858   3.901 -0.8647 -2.5728  0.7204
   54bbb     C2 1570   7.456   6.876   3.745 -0.4434  0.4527 -0.9139
   54bbb     H3 1571   7.510   6.914   3.657  2.0533 -1.2845 -0.2387
   54bbb     H4 1572   7.500   6.776   3.737  4.6499  2.3572 -0.4240
   54bbb     C3 1573   7.257   7.007   3.665  0.1407 -0.3477 -0.2038
   54bbb     H5 1574   7.266   7.090   3.737 -2.7534  1.6371 -1.8968
   54bbb     H6 1575   7.150   6.996   3.644  0.3603 -0.3687 -1.3805
   54bbb     C4 1576   7.320   7.051   3.526 -0.7965  0.2852  0.4188
   54bbb     H7 1577   7.429   7.044   3.515 -1.0463 -1.1056 -1.9673
   54bbb     H8 1578   7.289   7.156   3.515 -3.7287 -0.5589 -0.4375
   54bbb     C5 1579   7.231   6.651   3.826 -0.0119  0.3923  0.3528
   54bbb     H9 1580   7.317   6.632   3.892 -0.0558  0.7063  0.5046
   54bbb    H10 1581   7.257   6.613   3.727  1.9396  1.4503  0.4118
   54bbb     C6 1582   7.486   6.938   3.889  0.3349  0.2508  0.1391
   54bbb    H11 1583   7.590   6.907   3.907  0.5585  1.7658  1.7066
   54bbb    H12 1584   7.414   6.894   3.960 -0.1880  1.2015  0.2159
   54bbb     C7 1585   7.260   6.981   3.401  0.2987 -0.0773  0.0788
   54bbb    H13 1586   7.151   6.974   3.407  0.1465  0.4305 -1.4612
   54bbb    H14 1587   7.301   6.879   3.396 -1.3560 -0.7992  0.7998
   54bbb     C8 1588   7.491   7.093   3.902 -0.6430  0.6752 -0.4546
   54bbb    H15 1589   7.543   7.117   3.995  0.0664 -1.5838 -0.2176
   54bbb    H16 1590   7.390   7.137   3.908 -1.6949 -1.8106  2.6330
   54bbb     C9 1591   7.118   6.595   3.906  0.5655  0.2459 -0.4490
   54bbb    H17 1592   7.094   6.491   3.882 -1.0037  0.9708 -2.3303
   54bbb    H18 1593   7.029   6.652   3.876  0.7143 -0.7273 -3.0140
   54bbb     O1 1594   7.293   7.049   3.285 -0.3395  0.3901 -0.0993
   55bbb     N1 1595   7.479   7.108   2.713  0.1335 -0.2410 -0.4953
   55bbb     C1 1596   7.560   7.196   2.627 -0.4303 -0.1550 -0.1148
   55bbb     H1 1597   7.489   7.257   2.570 -0.9107  0.5423  1.1955
   55bbb     H2 1598   7.606   7.126   2.556 -1.1125 -0.7592  0.0311
   55bbb     C2 1599   7.392   7.015   2.630 -0.2055 -0.0347 -0.4150
   55bbb     H3 1600   7.453   6.929   2.600  0.0521 -0.8110  2.0831
   55bbb     H4 1601   7.363   7.063   2.537 -0.4413 -1.6329 -1.2071
   55bbb     C3 1602   7.521   7.053   2.837  0.1213 -0.1876 -0.4305
   55bbb     H5 1603   7.442   7.003   2.896  1.0200 -2.5119 -1.0799
   55bbb     H6 1604   7.555   7.132   2.906 -2.9964  0.2330  0.8179
   55bbb     C4 1605   7.633   6.945   2.813 -0.7303 -0.1772 -0.6282
   55bbb     H7 1606   7.721   7.000   2.777 -2.0896  1.0824 -2.1820
   55bbb     H8 1607   7.601   6.885   2.727  0.1330 -1.0745 -0.3407
   55bbb     C5 1608   7.668   7.286   2.699  0.0286  0.1510  0.5201
   55bbb     H9 1609   7.744   7.323   2.629  0.1075 -1.5884 -0.3931
   55bbb    H10 1610   7.729   7.224   2.766 -1.2583 -1.5141  0.2251
   55bbb     C6 1611   7.259   6.974   2.695  0.1645  0.0667 -0.3778
   55bbb    H11 1612   7.201   7.064   2.718 -0.1897  0.3616 -2.2907
   55bbb    H12 1613   7.283   6.926   2.791 -1.2408 -2.2377 -1.0953
   55bbb     C7 1614   7.665   6.858   2.934 -0.1667  1.0060 -0.0518
   55bbb    H13 1615   7.633   6.913   3.024 -1.4763 -0.5880  0.5223
   55bbb    H14 1616   7.769   6.825   2.941 -0.6990 -0.4662  2.4137
   55bbb     C8 1617   7.191   6.872   2.603  0.2438  0.0601  0.0218
   55bbb    H15 1618   7.105   6.832   2.657  0.1554  1.5247  1.0160
   55bbb    H16 1619   7.254   6.785   2.583  1.9195  1.1229  0.4777
   55bbb     C9 1620   7.604   7.402   2.783 -0.2678 -0.0964 -0.0355
   55bbb    H17 1621   7.679   7.466   2.830 -0.1388  0.5466 -1.0762
   55bbb    H18 1622   7.551   7.347   2.862 -1.1709  0.0697 -0.5086
   55bbb     O1 1623   7.574   6.743   2.923  0.3184 -0.0070  0.4177
   56bbb     N1 1624   7.186   4.552   3.837 -0.6716  0.6671  0.1905
   56bbb     C1 1625   7.314   4.519   3.767 -0.5829 -0.2416  0.5732
   56bbb     H1 1626   7.388   4.585   3.814  0.5482 -0.9784 -0.1154
   56bbb     H2 1627   7.308   4.547   3.661  0.0411 -1.8965  0.0720
   56bbb     C2 1628   7.073   4.460   3.813 -0.0479 -0.8170 -0.1390
   56bbb     H3 1629   6.989   4.501   3.869 -0.4346 -1.9912  0.1855
   56bbb     H4 1630   7.095   4.369   3.871 -0.5342 -0.5403  0.4851
   56bbb     C3 1631   7.162   4.695   3.804  0.8001  0.1443 -0.0085
   56bbb     H5 1632   7.136   4.699   3.698  1.5994  3.0051 -0.1709
   56bbb     H6 1633   7.251   4.759   3.809  0.3755  0.7002  0.6773
   56bbb     C4 1634   7.047   4.751   3.901  0.4419 -0.0395 -0.0727
   56bbb     H7 1635   7.074   4.733   4.006 -0.2388 -2.3777 -0.2333
   56bbb     H8 1636   6.951   4.705   3.876 -0.1085 -0.5238  2.6525
   56bbb     C5 1637   7.359   4.374   3.793 -0.0431  0.3092 -0.2407
   56bbb     H9 1638   7.295   4.308   3.733  2.3710 -2.3828 -0.0221
   56bbb    H10 1639   7.341   4.334   3.894  0.0206  0.0246 -0.3418
   56bbb     C6 1640   7.019   4.450   3.668  0.7542 -0.0420 -0.1970
   56bbb    H11 1641   7.107   4.452   3.604  0.0498 -1.8963 -1.3103
   56bbb    H12 1642   6.953   4.534   3.642 -1.6487 -1.6017  0.5198
   56bbb     C7 1643   7.036   4.905   3.875 -0.3344 -0.1949  0.0663
   56bbb    H13 1644   7.009   4.928   3.772 -1.4993 -2.5920 -0.2466
   56bbb    H14 1645   7.137   4.946   3.885 -0.4434  0.9295 -2.6427
   56bbb     C8 1646   6.946   4.318   3.648 -0.3248  0.3232  0.0995
   56bbb    H15 1647   6.902   4.323   3.547  2.2802  0.2839 -1.1185
   56bbb    H16 1648   6.864   4.316   3.721  0.0819 -0.3439  0.5540
   56bbb     C9 1649   7.508   4.348   3.749  0.2429 -0.6331  0.4630
   56bbb    H17 1650   7.525   4.406   3.658 -1.0419  0.2529  0.7670
   56bbb    H18 1651   7.514   4.240   3.730 -0.2636 -0.4316 -0.9119
   56bbb     O1 1652   6.947   4.962   3.970  0.7452 -0.1867  0.1410
   57bbb     N1 1653   6.887   5.467   3.202  0.5732 -0.4005 -0.2139
   57bbb     C1 1654   6.766   5.519   3.137  0.1461 -0.0825 -0.3672
   57bbb     H1 1655   6.762   5.624   3.168  1.4618 -0.5905  1.6673
   57bbb     H2 1656   6.675   5.468   3.171 -0.0786  0.2907 -0.4071
   57bbb     C2 1657   7.014   5.541   3.184  0.4013 -0.3501 -0.7148
   57bbb     H3 1658   7.022   5.599   3.277 -4.5220  1.1959 -0.9874
   57bbb     H4 1659   7.001   5.614   3.104 -1.5846 -0.9426 -0.9791
   57bbb     C3 1660   6.857   5.428   3.345  0.3081  0.3478  0.2379
   57bbb     H5 1661   6.787   5.500   3.390  0.9566  1.5213 -0.5870
   57bbb     H6 1662   6.946   5.421   3.409  0.5746 -0.9498 -0.2617
   57bbb     C4 1663   6.787   5.288   3.356 -0.3467 -0.4601 -0.6981
   57bbb     H7 1664   6.706   5.284   3.281 -1.0195  1.3557 -0.1230
   57bbb     H8 1665   6.755   5.259   3.456 -2.1789  0.7856 -0.8669
   57bbb     C5 1666   6.771   5.502   2.984 -0.5095 -0.3562  0.3380
   57bbb     H9 1667   6.764   5.399   2.947  2.1769 -0.4788 -0.0929
   57bbb    H10 1668   6.874   5.515   2.946 -0.7164 -0.2058 -0.1776
   57bbb     C6 1669   7.143   5.462   3.151  0.0417 -0.0388 -1.0960
   57bbb    H11 1670   7.172   5.407   3.242  1.2190  0.2374 -1.2993
   57bbb    H12 1671   7.222   5.533   3.125  3.0772 -1.8989  2.0434
   57bbb     C7 1672   6.890   5.177   3.326  0.2818 -0.1398 -0.0340
   57bbb    H13 1673   6.907   5.177   3.217 -0.6864 -2.5385 -0.2524
   57bbb    H14 1674   6.864   5.077   3.363  2.1073 -1.6457 -2.4880
   57bbb     C8 1675   7.123   5.353   3.038 -0.0091  0.6179  1.1201
   57bbb    H15 1676   7.056   5.399   2.964 -0.1473  1.6856  1.8825
   57bbb    H16 1677   7.067   5.266   3.074  0.2379 -0.5233 -1.0426
   57bbb     C9 1678   6.668   5.597   2.914 -0.1192 -0.7234  0.3156
   57bbb    H17 1679   6.566   5.574   2.948 -1.0949  2.4914 -0.0623
   57bbb    H18 1680   6.661   5.572   2.807  1.7845 -0.1972  0.0419
   57bbb     O1 1681   7.015   5.200   3.393  0.1841  0.4930 -0.0658
   58bbb     N1 1682   5.623   4.505   4.947  0.7301  0.2470 -0.1581
   58bbb     C1 1683   5.660   4.529   4.808  0.2046 -0.8006  0.2423
   58bbb     H1 1684   5.768   4.526   4.794  0.3594  1.5629  0.5424
   58bbb     H2 1685   5.627   4.629   4.779  0.0603 -0.6004  1.0680
   58bbb     C2 1686   5.632   4.362   4.997 -0.7982  0.2446  0.7050
   58bbb     H3 1687   5.738   4.332   4.996 -1.5283 -2.7769 -1.3766
   58bbb     H4 1688   5.585   4.293   4.925  1.7930 -1.1211  0.1908
   58bbb     C3 1689   5.679   4.607   5.039 -0.0199  0.0090 -0.3228
   58bbb     H5 1690   5.785   4.579   5.045  0.0309  0.2145 -0.2550
   58bbb     H6 1691   5.625   4.604   5.134 -0.5552 -1.2941 -0.6393
   58bbb     C4 1692   5.670   4.754   4.987  0.3623  0.3078  0.3241
   58bbb     H7 1693   5.727   4.754   4.894 -0.2932 -0.2560 -0.0832
   58bbb     H8 1694   5.713   4.828   5.057  0.4122  0.4464  0.1471
   58bbb     C5 1695   5.580   4.435   4.704 -0.0808  0.0350  0.2216
   58bbb     H9 1696   5.611   4.332   4.724  1.4998  0.7941  2.0911
   58bbb    H10 1697   5.611   4.452   4.600  1.5385  0.7704  0.7837
   58bbb     C6 1698   5.566   4.329   5.133  0.1462 -0.0849 -0.2768
   58bbb    H11 1699   5.474   4.385   5.153 -1.5383 -2.8812  0.3599
   58bbb    H12 1700   5.642   4.361   5.205  0.8643 -1.9073 -0.1656
   58bbb     C7 1701   5.527   4.801   4.965 -0.4100  0.9475  0.3291
   58bbb    H13 1702   5.467   4.797   5.056 -0.8599 -1.7235  0.0123
   58bbb    H14 1703   5.479   4.736   4.891  1.3769 -0.1317  0.0319
   58bbb     C8 1704   5.538   4.178   5.158  0.2778  0.6356 -0.3433
   58bbb    H15 1705   5.638   4.137   5.177 -0.0038  0.8569  1.8068
   58bbb    H16 1706   5.486   4.125   5.077  1.4811  1.0159 -1.4099
   58bbb     C9 1707   5.428   4.449   4.705 -0.0067 -0.0522 -0.2181
   58bbb    H17 1708   5.406   4.556   4.708  1.0381  0.1340  1.5493
   58bbb    H18 1709   5.387   4.409   4.798  4.0666 -1.6038  1.1217
   58bbb     O1 1710   5.549   4.941   4.902 -0.0860  0.5888  0.2411
   59bbb     N1 1711   4.980   5.931   4.813  0.0286 -0.0009  0.6742
   59bbb     C1 1712   5.030   6.073   4.835 -0.4693 -0.6834  0.2172
   59bbb     H1 1713   5.083   6.108   4.745  0.3649 -0.6687  0.7068
   59bbb     H2 1714   5.115   6.059   4.904  1.0991 -1.1123 -1.7024
   59bbb     C2 1715   4.946   5.851   4.938  0.3589 -0.0537 -0.1985
   59bbb     H3 1716   4.918   5.748   4.912  1.8533 -0.5617  0.1020
   59bbb     H4 1717   4.855   5.886   4.986  1.2505  0.9674  0.7976
   59bbb     C3 1718   5.072   5.862   4.723  0.3155  0.0064  0.3670
   59bbb     H5 1719   5.173   5.879   4.761  0.3052 -2.0732  1.4327
   59bbb     H6 1720   5.070   5.929   4.636  0.0695 -0.2267  0.1945
   59bbb     C4 1721   5.049   5.715   4.671  0.3071  0.1820  0.0935
   59bbb     H7 1722   4.947   5.698   4.635  0.6844  1.1656 -1.4841
   59bbb     H8 1723   5.058   5.644   4.755  0.5081  0.2509  0.1304
   59bbb     C5 1724   4.930   6.172   4.901 -0.2559  0.4744 -0.0382
   59bbb     H9 1725   4.887   6.141   4.997 -1.7346 -0.0514 -0.8351
   59bbb    H10 1726   4.850   6.174   4.825 -0.8794 -1.1244  0.5289
   59bbb     C6 1727   5.058   5.851   5.040 -0.5880  0.4873 -0.4747
   59bbb    H11 1728   5.086   5.950   5.077 -0.7700 -0.0417  1.2073
   59bbb    H12 1729   5.143   5.806   4.987 -1.0637 -0.1487 -0.7057
   59bbb     C7 1730   5.152   5.673   4.564 -0.0897 -0.1728 -0.6949
   59bbb    H13 1731   5.178   5.763   4.508  0.8901  1.0821  1.6190
   59bbb    H14 1732   5.097   5.604   4.499 -1.0750 -2.5057  2.3348
   59bbb     C8 1733   5.025   5.766   5.162  0.5596  0.3214 -0.8427
   59bbb    H15 1734   5.005   5.665   5.123 -2.4133  0.3098  0.4715
   59bbb    H16 1735   4.937   5.809   5.212 -0.0152 -1.7311  0.0053
   59bbb     C9 1736   4.986   6.309   4.924  0.2565  0.0307  0.3301
   59bbb    H17 1737   5.081   6.299   4.979 -0.2357 -3.0470  0.7867
   59bbb    H18 1738   4.913   6.358   4.990  0.0993  0.1880  0.0428
   59bbb     O1 1739   5.271   5.625   4.635 -0.2056  0.2806  0.2445
   60bbb     N1 1740   6.369   3.860   4.236  0.3940 -0.5364  0.1564
   60bbb     C1 1741   6.432   3.740   4.299 -0.1936 -0.2075 -0.0478
   60bbb     H1 1742   6.475   3.771   4.395 -3.0742  0.7361  1.0417
   60bbb     H2 1743   6.520   3.712   4.240 -0.8612 -0.0766 -1.1374
   60bbb     C2 1744   6.353   3.852   4.088 -0.0482 -0.1112  0.5553
   60bbb     H3 1745   6.336   3.747   4.061  0.3994 -0.0307 -0.0813
   60bbb     H4 1746   6.449   3.886   4.047  0.3842 -0.7800  0.9987
   60bbb     C3 1747   6.418   3.994   4.291 -0.1267 -0.3656  0.3256
   60bbb     H5 1748   6.398   4.009   4.398 -2.6116  0.8867 -0.2467
   60bbb     H6 1749   6.369   4.078   4.240 -0.8683  0.2000  1.9224
   60bbb     C4 1750   6.566   4.019   4.270 -0.2807 -0.3284 -0.2563
   60bbb     H7 1751   6.605   3.995   4.171  0.4944 -0.9120  0.1827
   60bbb     H8 1752   6.625   3.956   4.338  1.2873  1.4577  0.1373
   60bbb     C5 1753   6.346   3.616   4.313 -0.1712  0.0307  0.0672
   60bbb     H9 1754   6.327   3.578   4.212  1.5386 -0.2390 -0.1851
   60bbb    H10 1755   6.243   3.636   4.343 -0.3195  0.5465 -0.7456
   60bbb     C6 1756   6.237   3.944   4.036 -0.4355  0.5441 -0.2794
   60bbb    H11 1757   6.268   4.048   4.051 -2.5298  1.0175  1.2928
   60bbb    H12 1758   6.160   3.938   4.114  1.0232  2.3412  1.3758
   60bbb     C7 1759   6.602   4.173   4.286 -0.0320 -0.3528  0.0292
   60bbb    H13 1760   6.523   4.237   4.243  0.3723  0.4939  0.5204
   60bbb    H14 1761   6.691   4.190   4.225 -0.9208 -0.5531 -1.3807
   60bbb     C8 1762   6.180   3.927   3.899 -0.0394 -0.0659  0.7862
   60bbb    H15 1763   6.097   3.993   3.873  0.6643  0.2853 -0.6667
   60bbb    H16 1764   6.139   3.826   3.890 -3.7352  1.1914  1.5511
   60bbb     C9 1765   6.412   3.513   4.405  0.7633 -0.0908 -0.5951
   60bbb    H17 1766   6.419   3.545   4.510  1.0931 -1.4034 -0.1856
   60bbb    H18 1767   6.515   3.487   4.378 -0.1049 -1.5485 -2.7731
   60bbb     O1 1768   6.631   4.203   4.422 -0.0525 -0.2335 -0.5417
   61bbb     N1 1769   7.381   4.433   4.680 -0.0454  0.1739 -0.2704
   61bbb     C1 1770   7.264   4.354   4.727  0.0260  0.0835  0.1490
   61bbb     H1 1771   7.266   4.342   4.837  1.0192 -1.6725 -0.0151
   61bbb     H2 1772   7.267   4.253   4.685 -0.6364  1.0436 -2.3755
   61bbb     C2 1773   7.513   4.382   4.723 -0.1018 -0.4042 -0.4513
   61bbb     H3 1774   7.532   4.284   4.676  2.5982 -0.1894  0.0263
   61bbb     H4 1775   7.503   4.381   4.832  1.5410  2.7273 -0.1681
   61bbb     C3 1776   7.384   4.469   4.537  0.0819  0.4799  0.1853
   61bbb     H5 1777   7.468   4.532   4.507  2.3314 -2.1245  0.6156
   61bbb     H6 1778   7.288   4.513   4.506 -1.4973 -3.2240 -0.7860
   61bbb     C4 1779   7.393   4.342   4.446  0.4041  0.2798 -0.2246
   61bbb     H7 1780   7.328   4.261   4.480  0.4622  0.9692  1.6879
   61bbb     H8 1781   7.493   4.297   4.454 -0.1218 -1.1511 -1.3559
   61bbb     C5 1782   7.133   4.427   4.706 -0.7835 -0.1298 -0.3853
   61bbb     H9 1783   7.058   4.348   4.720  0.0370 -1.0721 -1.0928
   61bbb    H10 1784   7.117   4.449   4.600  2.9103  0.4956 -0.9437
   61bbb     C6 1785   7.629   4.491   4.699 -0.5262  0.0452 -0.6751
   61bbb    H11 1786   7.659   4.493   4.594  0.5084  0.1578 -0.3989
   61bbb    H12 1787   7.721   4.463   4.752 -0.1540 -0.6693 -1.6763
   61bbb     C7 1788   7.348   4.374   4.304  0.9894  0.0247  0.5827
   61bbb    H13 1789   7.365   4.287   4.239 -2.5075 -1.4521  1.4018
   61bbb    H14 1790   7.407   4.460   4.270 -1.1294  1.8470  1.2910
   61bbb     C8 1791   7.583   4.634   4.738  0.6720  0.4637 -0.4333
   61bbb    H15 1792   7.556   4.625   4.844 -0.2975 -0.7384 -0.7658
   61bbb    H16 1793   7.496   4.661   4.677  1.6359  0.3360 -1.9010
   61bbb     C9 1794   7.122   4.566   4.782 -0.2241  0.2512  0.5704
   61bbb    H17 1795   7.038   4.628   4.749  0.2812  1.6916  1.8850
   61bbb    H18 1796   7.211   4.626   4.757  0.0061  0.1587  1.1564
   61bbb     O1 1797   7.205   4.404   4.309 -0.0652 -0.7494  0.0451
   62bbb     N1 1798   3.425   4.596   2.530  0.8321 -0.1564  0.3826
   62bbb     C1 1799   3.519   4.565   2.419 -0.0952 -0.5179  0.4668
   62bbb     H1 1800   3.496   4.466   2.377 -1.0925  0.4618 -1.4440
   62bbb     H2 1801   3.621   4.577   2.457  0.1357  1.7892 -0.6848
   62bbb     C2 1802   3.405   4.485   2.625 -0.3096 -0.3735  0.5187
   62bbb     H3 1803   3.331   4.518   2.699 -0.6401 -2.8420  1.3532
   62bbb     H4 1804   3.504   4.469   2.669  0.1984  2.3736  0.5984
   62bbb     C3 1805   3.445   4.728   2.600  0.3276 -0.2117 -0.3207
   62bbb     H5 1806   3.360   4.756   2.663  0.0740 -1.3255 -0.1610
   62bbb     H6 1807   3.450   4.804   2.521 -0.7596  0.8698  0.6039
   62bbb     C4 1808   3.574   4.729   2.681  0.0479  0.2010  0.0947
   62bbb     H7 1809   3.658   4.687   2.624 -1.3195  0.6975 -2.4220
   62bbb     H8 1810   3.562   4.688   2.782  0.2905  1.4549  0.6524
   62bbb     C5 1811   3.511   4.665   2.296 -0.1090 -0.4154 -0.0018
   62bbb     H9 1812   3.557   4.762   2.320 -0.9717 -0.3764  1.5696
   62bbb    H10 1813   3.406   4.680   2.269  0.2156  0.7008 -0.7262
   62bbb     C6 1814   3.350   4.362   2.555 -0.0374  0.9033  0.3453
   62bbb    H11 1815   3.436   4.310   2.510  0.3399  1.2842  0.6272
   62bbb    H12 1816   3.297   4.385   2.462 -0.5555  2.1348  0.9278
   62bbb     C7 1817   3.632   4.871   2.702 -0.1287  0.0637 -0.5856
   62bbb    H13 1818   3.713   4.870   2.777 -0.7092 -1.9510  0.0726
   62bbb    H14 1819   3.557   4.937   2.747  0.1312 -0.1035  0.1041
   62bbb     C8 1820   3.285   4.247   2.638 -0.2691  0.5016 -0.1524
   62bbb    H15 1821   3.261   4.159   2.577  0.6940 -0.6282  1.0392
   62bbb    H16 1822   3.189   4.282   2.676  0.7420  0.6172  2.4985
   62bbb     C9 1823   3.579   4.612   2.168 -0.5140  0.4511  0.1979
   62bbb    H17 1824   3.575   4.697   2.098 -2.3317 -1.4229 -2.1104
   62bbb    H18 1825   3.515   4.537   2.120 -0.0467 -0.3059  0.7375
   62bbb     O1 1826   3.667   4.925   2.574 -0.5199 -0.0748 -0.0135
   63bbb     N1 1827   3.374   5.284   2.262 -0.0030  0.1271 -0.2389
   63bbb     C1 1828   3.337   5.424   2.219  0.4353  0.0110 -0.2999
   63bbb     H1 1829   3.262   5.468   2.285  1.5449  1.1011  0.2567
   63bbb     H2 1830   3.285   5.426   2.122 -0.2548 -0.9413  0.0287
   63bbb     C2 1831   3.256   5.198   2.277  0.2147  0.0009  0.0736
   63bbb     H3 1832   3.189   5.203   2.191 -0.6074  0.0908  0.6996
   63bbb     H4 1833   3.195   5.243   2.357 -0.5229  3.1402 -2.1012
   63bbb     C3 1834   3.480   5.223   2.171 -0.1817 -0.1463  0.1487
   63bbb     H5 1835   3.516   5.127   2.209  2.5004 -0.0559 -1.8270
   63bbb     H6 1836   3.571   5.284   2.172 -1.2292  1.5259 -0.9627
   63bbb     C4 1837   3.432   5.204   2.026 -0.5549 -0.2495  0.8165
   63bbb     H7 1838   3.396   5.297   1.981  0.3273 -0.0346  0.5224
   63bbb     H8 1839   3.354   5.127   2.024  1.4640 -2.4611  2.1859
   63bbb     C5 1840   3.450   5.528   2.232 -0.4382 -0.9747 -0.2721
   63bbb     H9 1841   3.532   5.497   2.166 -0.8254 -3.1319  0.1781
   63bbb    H10 1842   3.490   5.542   2.333  0.5552  1.4951 -0.9271
   63bbb     C6 1843   3.277   5.049   2.304 -0.2137  0.3047  0.0936
   63bbb    H11 1844   3.345   4.998   2.236 -0.0958  0.3906  0.1464
   63bbb    H12 1845   3.183   5.006   2.269 -0.5126  0.0646  1.1483
   63bbb     C7 1846   3.537   5.149   1.926 -0.1484 -0.0652  0.5269
   63bbb    H13 1847   3.626   5.213   1.933 -2.4050  3.6012 -1.5951
   63bbb    H14 1848   3.491   5.154   1.827 -1.0890  0.1123  0.9650
   63bbb     C8 1849   3.319   5.000   2.449 -0.2709 -0.1417  0.6663
   63bbb    H15 1850   3.428   5.012   2.457 -0.4082  2.4240 -0.3407
   63bbb    H16 1851   3.291   4.896   2.471 -0.9124  0.2796  1.9621
   63bbb     C9 1852   3.402   5.678   2.189  0.7749 -0.3576  0.1092
   63bbb    H17 1853   3.487   5.746   2.182  1.0241 -0.4496  1.8823
   63bbb    H18 1854   3.319   5.706   2.255 -1.7558  2.1958 -3.7495
   63bbb     O1 1855   3.561   5.009   1.953 -0.0715 -0.2419  0.3554
   64bbb     N1 1856   4.287   3.321   2.369 -0.1812  0.4881 -0.1206
   64bbb     C1 1857   4.298   3.213   2.273 -0.1646 -0.3911  0.9434
   64bbb     H1 1858   4.311   3.121   2.330  0.0481  0.3409  2.0962
   64bbb     H2 1859   4.379   3.227   2.200 -2.2663 -0.4071 -1.5598
   64bbb     C2 1860   4.179   3.307   2.471  0.0840  0.6921 -0.1171
   64bbb     H3 1861   4.079   3.327   2.430 -1.3507 -0.4779  2.5392
   64bbb     H4 1862   4.188   3.379   2.553 -0.8722  0.0287  0.6040
   64bbb     C3 1863   4.276   3.446   2.291  0.9573 -0.1195  0.4239
   64bbb     H5 1864   4.188   3.437   2.225  0.7365 -0.6819  0.7943
   64bbb     H6 1865   4.365   3.464   2.230  0.7132 -0.4511 -0.0372
   64bbb     C4 1866   4.260   3.575   2.377  0.1611 -0.4571  0.2770
   64bbb     H7 1867   4.183   3.565   2.455  0.6719 -1.2264  0.6901
   64bbb     H8 1868   4.222   3.661   2.319  1.8045 -0.4169 -0.8092
   64bbb     C5 1869   4.173   3.190   2.182  0.0037  0.5053 -0.3193
   64bbb     H9 1870   4.172   3.272   2.108  1.1892  3.2766  2.4912
   64bbb    H10 1871   4.080   3.192   2.240  1.1898 -1.0210  1.7768
   64bbb     C6 1872   4.180   3.176   2.554 -1.0620  0.4809 -0.5714
   64bbb    H11 1873   4.135   3.092   2.501 -0.6071 -0.3768  0.3707
   64bbb    H12 1874   4.117   3.198   2.641  1.4949  0.9266  1.3169
   64bbb     C7 1875   4.389   3.614   2.453 -0.0883  0.7303  0.3551
   64bbb    H13 1876   4.471   3.631   2.383  0.1649  0.5054  0.5915
   64bbb    H14 1877   4.415   3.520   2.504 -2.5078  0.0524  0.4614
   64bbb     C8 1878   4.331   3.145   2.605  0.0230 -0.2089 -0.6513
   64bbb    H15 1879   4.368   3.230   2.664  1.3191 -1.2570  0.0953
   64bbb    H16 1880   4.391   3.143   2.513 -0.2680 -0.3901 -0.8397
   64bbb     C9 1881   4.192   3.058   2.111  0.6348  0.3636  0.0278
   64bbb    H17 1882   4.251   2.986   2.170 -1.0836 -0.4637  0.8146
   64bbb    H18 1883   4.258   3.085   2.027 -0.8011  0.8892 -0.9699
   64bbb     O1 1884   4.366   3.720   2.549  0.1947 -0.2901  0.2943
   65bbb     N1 1885   4.666   4.244   3.752 -0.3222 -0.6205 -0.6132
   65bbb     C1 1886   4.591   4.202   3.873  0.8861  1.1087  0.4228
   65bbb     H1 1887   4.483   4.207   3.858  0.7133 -0.3610  1.0009
   65bbb     H2 1888   4.606   4.283   3.946  0.2823  1.6675 -0.0662
   65bbb     C2 1889   4.802   4.294   3.783 -0.9767 -0.2189 -0.3552
   65bbb     H3 1890   4.861   4.208   3.818 -1.9956 -0.6323  0.4313
   65bbb     H4 1891   4.798   4.358   3.872  0.3004 -0.0164 -0.4243
   65bbb     C3 1892   4.658   4.156   3.635  0.1018 -0.0501  0.3243
   65bbb     H5 1893   4.734   4.078   3.647 -0.6888 -1.0277 -0.7794
   65bbb     H6 1894   4.685   4.210   3.543  0.2483  2.0719  1.5499
   65bbb     C4 1895   4.520   4.097   3.610 -0.0915 -0.7406  0.0130
   65bbb     H7 1896   4.449   4.178   3.591 -0.6675 -1.6979 -2.2486
   65bbb     H8 1897   4.478   4.052   3.701 -0.8358  2.4835  1.4103
   65bbb     C5 1898   4.635   4.065   3.931  0.4718  0.1319 -0.3470
   65bbb     H9 1899   4.743   4.062   3.945  0.4702 -1.1403 -0.4710
   65bbb    H10 1900   4.605   3.981   3.865 -0.3699 -0.3340  0.5975
   65bbb     C6 1901   4.881   4.363   3.668  0.2428  0.7947  0.0654
   65bbb    H11 1902   4.810   4.419   3.605 -1.7546 -1.2373  0.3709
   65bbb    H12 1903   4.930   4.289   3.604  1.2594  0.1319  1.5699
   65bbb     C7 1904   4.507   4.011   3.485 -0.5198 -0.1428  0.1919
   65bbb    H13 1905   4.401   3.984   3.479 -0.7519  0.7198  0.2723
   65bbb    H14 1906   4.567   3.921   3.503  0.2150  0.4467  0.8078
   65bbb     C8 1907   4.991   4.459   3.716  0.0435  0.3662  0.7742
   65bbb    H15 1908   5.053   4.486   3.630 -2.0016  0.4021 -0.7731
   65bbb    H16 1909   5.057   4.412   3.789 -0.4361  0.1262  1.0617
   65bbb     C9 1910   4.564   4.038   4.066  0.0450  0.0657  0.3303
   65bbb    H17 1911   4.556   4.125   4.132 -1.0428  0.5605 -0.4230
   65bbb    H18 1912   4.622   3.962   4.120  0.6152  1.6979  2.1358
   65bbb     O1 1913   4.535   4.085   3.369  0.1840  0.2886  0.0974
   66bbb     N1 1914   6.073   4.808   0.044  0.0871  0.0046 -0.3599
   66bbb     C1 1915   6.115   4.927  -0.043  0.3651  0.6171 -1.4721
   66bbb     H1 1916   6.156   4.885  -0.136 -0.0770 -4.1374  0.2232
   66bbb     H2 1917   6.196   4.979   0.010  1.1619 -0.9039 -1.1564
   66bbb     C2 1918   5.969   4.724  -0.024 -0.1694 -0.0085  0.2683
   66bbb     H3 1919   5.999   4.728  -0.129  0.7444  1.1212  0.5497
   66bbb     H4 1920   5.871   4.773  -0.026 -0.1492  0.0055 -0.9356
   66bbb     C3 1921   6.069   4.825   0.185  0.1022  0.5310 -0.4517
   66bbb     H5 1922   6.009   4.741   0.222  0.0978 -0.3393 -2.2951
   66bbb     H6 1923   6.015   4.915   0.216  0.3711  0.0007  1.6731
   66bbb     C4 1924   6.211   4.834   0.245  0.0076  0.0620  0.0364
   66bbb     H7 1925   6.292   4.812   0.174  0.0330 -0.3858  0.1978
   66bbb     H8 1926   6.222   4.755   0.321  1.3358  0.7739  0.6362
   66bbb     C5 1927   6.004   5.032  -0.076  0.7000  0.4737 -0.4576
   66bbb     H9 1928   5.987   5.097   0.010 -1.2592  1.6762 -1.6823
   66bbb    H10 1929   5.920   4.969  -0.109  1.1403  0.3146 -1.3204
   66bbb     C6 1930   5.964   4.586   0.035  0.1779 -0.6728 -0.1870
   66bbb    H11 1931   5.918   4.590   0.135 -4.0549 -0.7584 -1.8952
   66bbb    H12 1932   6.063   4.539   0.041  1.2187  1.5390  0.9816
   66bbb     C7 1933   6.237   4.968   0.316 -0.0323 -0.1502  0.4651
   66bbb    H13 1934   6.221   5.054   0.251 -2.6576 -1.4671 -0.7474
   66bbb    H14 1935   6.339   4.952   0.353  0.2821 -1.3099 -0.8357
   66bbb     C8 1936   5.872   4.491  -0.043  0.7614 -0.3427  0.2029
   66bbb    H15 1937   5.905   4.477  -0.147  0.4507  1.9499 -0.2595
   66bbb    H16 1938   5.770   4.532  -0.039  0.6897 -0.6184  1.4602
   66bbb     C9 1939   6.050   5.115  -0.199 -0.1105 -0.0783 -0.9131
   66bbb    H17 1940   6.051   5.050  -0.288 -0.3621  0.4003 -1.2698
   66bbb    H18 1941   6.151   5.156  -0.190  0.1920 -1.0428  0.3286
   66bbb     O1 1942   6.148   4.983   0.434 -0.1037 -0.3771  0.8115
   67bbb     N1 1943   6.327   4.707   0.915  0.1323  0.0894  0.2376
   67bbb     C1 1944   6.357   4.672   0.767  0.1181  0.1843 -0.2499
   67bbb     H1 1945   6.440   4.600   0.758  0.4884  0.1141  2.7305
   67bbb     H2 1946   6.388   4.765   0.718  0.4716  0.6329  0.7982
   67bbb     C2 1947   6.313   4.591   1.008  0.6193  0.7000  0.3605
   67bbb     H3 1948   6.370   4.605   1.101  0.2258  3.0940  0.2995
   67bbb     H4 1949   6.346   4.502   0.954  2.4236  1.1095  0.7091
   67bbb     C3 1950   6.396   4.819   0.978  0.2357  0.2677  0.1801
   67bbb     H5 1951   6.503   4.796   0.983  0.4304  1.3474  1.6273
   67bbb     H6 1952   6.357   4.832   1.080  1.0245  0.6668  0.4353
   67bbb     C4 1953   6.379   4.943   0.892 -0.2249  0.1620 -0.2996
   67bbb     H7 1954   6.272   4.951   0.869 -0.1503  0.5227 -0.5411
   67bbb     H8 1955   6.427   4.932   0.794 -0.4339  0.6028 -0.4560
   67bbb     C5 1956   6.232   4.618   0.688 -1.1945 -0.1187 -0.6855
   67bbb     H9 1957   6.177   4.533   0.730 -2.4518  0.4879 -1.0571
   67bbb    H10 1958   6.274   4.570   0.599  1.1923  1.3979 -0.4509
   67bbb     C6 1959   6.163   4.559   1.039  0.3530  0.1043 -0.6429
   67bbb    H11 1960   6.161   4.470   1.102  0.8647  1.9214  2.1499
   67bbb    H12 1961   6.109   4.531   0.948 -1.6651 -0.8745  0.7853
   67bbb     C7 1962   6.415   5.072   0.967 -0.0959 -0.1105 -0.2742
   67bbb    H13 1963   6.404   5.154   0.894  0.3842 -0.1247 -0.3656
   67bbb    H14 1964   6.514   5.089   1.012  0.3367  1.1956 -1.6302
   67bbb     C8 1965   6.090   4.681   1.104 -0.0494  0.1751  0.3382
   67bbb    H15 1966   6.089   4.763   1.030 -0.2640 -0.7904 -0.7568
   67bbb    H16 1967   6.146   4.730   1.184 -2.6555 -0.1273  2.4780
   67bbb     C9 1968   6.117   4.713   0.667 -0.0833 -0.5633 -0.1288
   67bbb    H17 1969   6.163   4.799   0.616  2.2039 -2.2851 -1.1764
   67bbb    H18 1970   6.070   4.737   0.763 -1.8985  3.5759 -1.8197
   67bbb     O1 1971   6.315   5.090   1.072 -0.1325  0.8309 -0.1014
   68bbb     N1 1972   6.234   3.965   1.587 -0.9358  0.3463  0.3440
   68bbb     C1 1973   6.367   3.989   1.650  0.2896  0.0364  0.1956
   68bbb     H1 1974   6.440   4.038   1.584  0.0712 -0.3537 -0.3477
   68bbb     H2 1975   6.418   3.895   1.672 -1.8309 -1.2635 -0.0994
   68bbb     C2 1976   6.142   3.897   1.676 -0.4659 -0.3928 -0.1871
   68bbb     H3 1977   6.043   3.898   1.628 -0.7112  1.3699  0.2759
   68bbb     H4 1978   6.122   3.961   1.764 -0.2283 -0.9735  0.2961
   68bbb     C3 1979   6.173   4.080   1.518 -0.2563 -0.5635  0.0156
   68bbb     H5 1980   6.173   4.166   1.586  1.5156 -1.0783  0.7106
   68bbb     H6 1981   6.070   4.049   1.495 -0.6255 -0.5774  1.5475
   68bbb     C4 1982   6.239   4.121   1.375 -0.3427 -0.4383 -0.5187
   68bbb     H7 1983   6.228   4.037   1.305  1.4339  0.2707 -1.7210
   68bbb     H8 1984   6.345   4.144   1.392 -0.7676  1.4106 -0.2265
   68bbb     C5 1985   6.367   4.079   1.777  1.1202  0.5611 -0.3957
   68bbb     H9 1986   6.273   4.134   1.791 -0.1405 -1.3897 -0.7791
   68bbb    H10 1987   6.444   4.156   1.775  0.6363  1.0446 -0.5839
   68bbb     C6 1988   6.173   3.754   1.699  0.6404 -0.3184  0.4801
   68bbb    H11 1989   6.271   3.743   1.748  0.2399 -0.5583  1.2459
   68bbb    H12 1990   6.179   3.703   1.603 -3.1560 -0.0369 -0.0509
   68bbb     C7 1991   6.167   4.242   1.311  0.3044  0.1053 -0.3649
   68bbb    H13 1992   6.212   4.261   1.213  1.1407 -0.8520 -0.1904
   68bbb    H14 1993   6.180   4.333   1.372  2.9036 -0.3154 -0.1515
   68bbb     C8 1994   6.068   3.681   1.778 -0.7885 -0.3236 -0.5257
   68bbb    H15 1995   6.105   3.578   1.768 -0.1443 -0.1970  0.4296
   68bbb    H16 1996   5.965   3.689   1.743 -1.0203  2.7200  0.6404
   68bbb     C9 1997   6.389   3.992   1.903  0.7118  0.0372  0.0940
   68bbb    H17 1998   6.494   3.967   1.923  1.2062  1.9435  0.1442
   68bbb    H18 1999   6.330   3.900   1.893  2.5029 -0.9696 -1.9816
   68bbb     O1 2000   6.026   4.208   1.293  0.1177  0.4171  0.2187
   69bbb     N1 2001   5.508   3.541   2.030  0.6642  0.2689  0.2853
   69bbb     C1 2002   5.608   3.434   2.018 -0.0249  0.0058  0.9198
   69bbb     H1 2003   5.696   3.455   2.079 -1.0783  1.3493  2.0469
   69bbb     H2 2004   5.631   3.424   1.911 -0.2605  2.0834  0.6264
   69bbb     C2 2005   5.379   3.508   1.970 -0.1591 -0.5668  0.3579
   69bbb     H3 2006   5.329   3.420   2.012 -0.2410 -0.9602 -0.5388
   69bbb     H4 2007   5.392   3.503   1.861  1.5853  0.6527  0.4781
   69bbb     C3 2008   5.558   3.679   2.022  0.3350  0.1535 -0.0977
   69bbb     H5 2009   5.646   3.682   2.088 -0.6461  2.1935  1.2128
   69bbb     H6 2010   5.494   3.758   2.062 -1.5646 -0.4882 -1.6886
   69bbb     C4 2011   5.612   3.715   1.887  0.1519 -0.2972  1.1827
   69bbb     H7 2012   5.533   3.709   1.811  3.1209  1.8309 -2.4005
   69bbb     H8 2013   5.691   3.644   1.863 -0.3922 -0.2716 -0.8902
   69bbb     C5 2014   5.564   3.294   2.059  0.3252 -0.3592  0.0426
   69bbb     H9 2015   5.486   3.263   1.987 -1.9869 -1.1832  2.7099
   69bbb    H10 2016   5.530   3.294   2.163  2.6408 -2.0539  0.8710
   69bbb     C6 2017   5.268   3.620   1.989  1.1154 -0.0965  0.3121
   69bbb    H11 2018   5.310   3.719   1.970  0.2346  0.5531  1.6057
   69bbb    H12 2019   5.219   3.632   2.086  1.0469  2.6598  0.0288
   69bbb     C7 2020   5.673   3.852   1.898 -0.6999 -0.9608  0.7444
   69bbb    H13 2021   5.744   3.852   1.981 -0.3418 -1.6098  0.4447
   69bbb    H14 2022   5.588   3.912   1.934 -0.1522 -0.4192  1.1350
   69bbb     C8 2023   5.151   3.583   1.890 -0.1044 -0.3242 -0.2268
   69bbb    H15 2024   5.189   3.560   1.790  0.8077  1.3318 -0.2909
   69bbb    H16 2025   5.083   3.669   1.878 -1.1005 -1.2344 -1.2707
   69bbb     C9 2026   5.680   3.190   2.056 -0.1432 -0.4581 -0.3442
   69bbb    H17 2027   5.727   3.192   1.957  0.5963 -0.7856 -0.0124
   69bbb    H18 2028   5.657   3.085   2.077 -2.0550 -0.0186 -0.0427
   69bbb     O1 2029   5.724   3.900   1.778 -0.0591  0.1524  0.3281
   70bbb     N1 2030   5.332   7.580   1.130 -0.2737  0.1398  0.2177
   70bbb     C1 2031   5.362   7.440   1.092  0.8693 -0.2685  0.1617
   70bbb     H1 2032   5.399   7.451   0.989  1.2878  2.0550  0.5107
   70bbb     H2 2033   5.271   7.378   1.090  0.2739  0.5906 -1.0461
   70bbb     C2 2034   5.225   7.633   1.033 -0.4423 -1.2193  0.2285
   70bbb     H3 2035   5.175   7.723   1.069 -0.7152 -1.6281  0.8901
   70bbb     H4 2036   5.148   7.558   1.010 -1.6584  0.4087 -1.3276
   70bbb     C3 2037   5.289   7.595   1.278  0.0023 -0.5091  0.7807
   70bbb     H5 2038   5.355   7.534   1.342  0.0212 -0.7571  0.5262
   70bbb     H6 2039   5.190   7.556   1.304 -0.1889 -0.3676  0.2740
   70bbb     C4 2040   5.301   7.743   1.332 -0.5410 -0.0771  0.2280
   70bbb     H7 2041   5.242   7.752   1.424 -0.4891 -3.0450  0.6500
   70bbb     H8 2042   5.239   7.804   1.266 -2.1598 -1.2153  0.6383
   70bbb     C5 2043   5.473   7.366   1.177 -0.7319 -0.0085  0.4814
   70bbb     H9 2044   5.482   7.272   1.120 -1.5568 -0.1505  0.5663
   70bbb    H10 2045   5.429   7.348   1.276 -3.4731 -0.2337 -0.6916
   70bbb     C6 2046   5.280   7.672   0.896  0.2645  0.6457  0.6925
   70bbb    H11 2047   5.195   7.703   0.833 -0.0059 -0.3663  0.5400
   70bbb    H12 2048   5.333   7.587   0.851  0.6032  1.1585  0.1024
   70bbb     C7 2049   5.438   7.807   1.348  0.1252 -0.0328 -0.3362
   70bbb    H13 2050   5.429   7.912   1.378 -1.0049 -0.2488  0.1399
   70bbb    H14 2051   5.493   7.805   1.253  2.2645  1.8438  0.7692
   70bbb     C8 2052   5.385   7.792   0.904  0.6904  0.2707 -0.1041
   70bbb    H15 2053   5.426   7.812   0.804  0.6063  0.7796 -0.0353
   70bbb    H16 2054   5.470   7.769   0.970  1.4068  2.4048 -0.2223
   70bbb     C9 2055   5.616   7.423   1.163  0.3026  0.0172  0.2317
   70bbb    H17 2056   5.687   7.371   1.228  2.1986  2.9253  0.7024
   70bbb    H18 2057   5.619   7.524   1.206  3.2423 -0.4452  1.3274
   70bbb     O1 2058   5.512   7.721   1.442 -0.3825  0.2950 -0.2934
   71bbb     N1 2059   6.695   7.550   1.693 -0.2715 -0.5084 -0.1456
   71bbb     C1 2060   6.802   7.453   1.664 -0.4985  0.7148  0.1559
   71bbb     H1 2061   6.894   7.512   1.666 -0.5052  0.8798 -2.2873
   71bbb     H2 2062   6.796   7.420   1.560 -0.2801  0.6560  0.1622
   71bbb     C2 2063   6.722   7.637   1.813  0.3850  0.3146  0.6316
   71bbb     H3 2064   6.828   7.668   1.808  0.7823 -1.2327 -1.7860
   71bbb     H4 2065   6.710   7.576   1.903  1.3846 -0.9676 -0.0756
   71bbb     C3 2066   6.556   7.497   1.690  0.3847 -0.1473 -0.4847
   71bbb     H5 2067   6.485   7.580   1.692 -2.1482 -2.1723  0.0282
   71bbb     H6 2068   6.528   7.446   1.783  0.5620  0.4947 -0.0731
   71bbb     C4 2069   6.526   7.414   1.559  0.0008 -0.4771  0.0174
   71bbb     H7 2070   6.589   7.326   1.543 -0.3418 -0.4623 -1.5474
   71bbb     H8 2071   6.548   7.480   1.474  0.4123 -2.4573 -1.4829
   71bbb     C5 2072   6.807   7.322   1.756  0.3236 -0.1361 -0.4268
   71bbb     H9 2073   6.704   7.288   1.772 -0.8413  2.8226 -1.0243
   71bbb    H10 2074   6.853   7.355   1.850  2.3853 -0.4533 -1.2745
   71bbb     C6 2075   6.631   7.764   1.831 -0.0844  0.4626 -0.3608
   71bbb    H11 2076   6.529   7.725   1.841  0.1584  0.0062  0.3711
   71bbb    H12 2077   6.637   7.839   1.751 -0.5395  1.0661  0.1534
   71bbb     C7 2078   6.380   7.352   1.561 -0.3841 -0.7413  0.5596
   71bbb    H13 2079   6.379   7.265   1.628 -1.5051 -0.2148  1.2500
   71bbb    H14 2080   6.354   7.322   1.458 -1.6314  1.3586  0.1988
   71bbb     C8 2081   6.660   7.837   1.965 -0.0565  0.4135  0.3598
   71bbb    H15 2082   6.573   7.901   1.984  0.2060  1.4775 -1.6568
   71bbb    H16 2083   6.737   7.915   1.956  0.3300 -0.0567 -0.5627
   71bbb     C9 2084   6.888   7.208   1.696 -0.4913  0.1366  0.5225
   71bbb    H17 2085   6.873   7.118   1.757 -0.6964  0.4677  0.9714
   71bbb    H18 2086   6.992   7.243   1.702 -0.2753 -0.1554 -1.1333
   71bbb     O1 2087   6.284   7.448   1.615 -0.0849 -0.2874 -0.1775
   72bbb     N1 2088   3.867   7.152   1.757  0.3487 -0.7150 -0.1999
   72bbb     C1 2089   3.807   7.175   1.621 -0.1783  0.9274 -0.1651
   72bbb     H1 2090   3.771   7.082   1.573  0.6708  0.7177 -0.4229
   72bbb     H2 2091   3.895   7.198   1.561 -0.4843  0.6396 -0.7400
   72bbb     C2 2092   3.776   7.080   1.850  0.6342 -0.4013 -0.0636
   72bbb     H3 2093   3.695   7.146   1.883  0.6413 -0.8120  0.8146
   72bbb     H4 2094   3.835   7.055   1.939  0.4794 -0.2537  0.0816
   72bbb     C3 2095   3.927   7.268   1.823 -1.0684 -0.2097  0.4337
   72bbb     H5 2096   3.975   7.229   1.914  1.1724 -0.2992 -0.7404
   72bbb     H6 2097   3.861   7.350   1.855 -0.1311  1.8036 -2.3977
   72bbb     C4 2098   4.040   7.336   1.747 -0.5398  0.5320  0.0961
   72bbb     H7 2099   4.008   7.355   1.643 -1.4099 -0.1896  0.2189
   72bbb     H8 2100   4.113   7.256   1.733 -1.4626 -0.5511  1.2280
   72bbb     C5 2101   3.703   7.289   1.602 -0.2230 -0.6504 -0.3528
   72bbb     H9 2102   3.721   7.376   1.666  0.2222  1.7257 -3.4257
   72bbb    H10 2103   3.604   7.250   1.628  0.1996 -0.9196  0.8954
   72bbb     C6 2104   3.717   6.957   1.797  0.0874  0.2573  0.4565
   72bbb    H11 2105   3.802   6.905   1.752  0.2324  1.0014 -0.1603
   72bbb    H12 2106   3.657   6.982   1.709  0.1653  1.3165  0.6829
   72bbb     C7 2107   4.107   7.456   1.815 -0.6367  0.8657  0.5862
   72bbb    H13 2108   4.038   7.537   1.842 -0.4326  2.0002 -2.0211
   72bbb    H14 2109   4.188   7.491   1.751  0.0065  1.4499  1.6770
   72bbb     C8 2110   3.638   6.876   1.900 -0.3278 -0.0925 -0.4684
   72bbb    H15 2111   3.703   6.844   1.982  0.8122  0.7535 -1.0207
   72bbb    H16 2112   3.584   6.788   1.862  0.2467 -1.6958  2.1909
   72bbb     C9 2113   3.714   7.357   1.463  0.2670 -0.8797 -0.2040
   72bbb    H17 2114   3.712   7.288   1.377  1.6144  0.2770 -1.2192
   72bbb    H18 2115   3.808   7.413   1.464  0.6007 -1.3128 -2.4048
   72bbb     O1 2116   4.175   7.408   1.937  0.1785  0.2959  0.0609
   73bbb     N1 2117   4.453   7.028   3.008  0.2767 -0.0400 -0.1501
   73bbb     C1 2118   4.530   6.902   3.021  0.3767  0.6229 -0.5315
   73bbb     H1 2119   4.548   6.863   2.920 -0.9013 -2.3321  0.2587
   73bbb     H2 2120   4.482   6.821   3.078  4.5540 -2.2511 -0.5977
   73bbb     C2 2121   4.313   7.003   2.970 -0.0273 -0.1302 -0.1596
   73bbb     H3 2122   4.302   6.936   2.884 -0.5880  0.6570 -0.7124
   73bbb     H4 2123   4.265   7.095   2.937  2.6320  1.2259 -0.4874
   73bbb     C3 2124   4.520   7.123   2.918  0.0146 -0.7126 -0.6038
   73bbb     H5 2125   4.515   7.095   2.813  0.9070  0.9312 -1.1168
   73bbb     H6 2126   4.627   7.125   2.941 -0.0608  0.0959 -0.2909
   73bbb     C4 2127   4.480   7.271   2.929  0.8956 -0.4227 -0.8614
   73bbb     H7 2128   4.491   7.307   3.032  1.7068 -0.1257 -1.0417
   73bbb     H8 2129   4.380   7.288   2.887  0.2705 -1.2418  0.2449
   73bbb     C5 2130   4.664   6.920   3.094  0.5300  0.3007 -0.6569
   73bbb     H9 2131   4.738   6.966   3.027  0.1442 -0.7540 -1.8336
   73bbb    H10 2132   4.700   6.821   3.123  0.1908  0.2637 -0.3655
   73bbb     C6 2133   4.236   6.936   3.080  0.2965  0.4932  0.2800
   73bbb    H11 2134   4.259   6.829   3.068 -1.5276  0.2161 -1.0151
   73bbb    H12 2135   4.132   6.947   3.048  0.7163  0.9653 -0.9867
   73bbb     C7 2136   4.580   7.367   2.852 -0.1109  0.3039 -0.2637
   73bbb    H13 2137   4.679   7.322   2.845 -0.2294 -0.2140  0.9931
   73bbb    H14 2138   4.599   7.456   2.914  2.0547  0.0554 -0.4864
   73bbb     C8 2139   4.259   6.999   3.225  0.2976 -0.9094  0.8873
   73bbb    H15 2140   4.242   7.106   3.205 -1.1109 -1.0681  1.1192
   73bbb    H16 2141   4.355   6.992   3.277  0.9117 -0.1563 -0.0907
   73bbb     C9 2142   4.654   7.002   3.223 -0.4910  0.0254 -0.0864
   73bbb    H17 2143   4.575   6.957   3.284  0.8968  0.6392  2.3010
   73bbb    H18 2144   4.629   7.107   3.203  1.1457  0.5760  0.6061
   73bbb     O1 2145   4.530   7.397   2.719  0.1345  0.6628  0.1365
   74bbb     N1 2146   6.236   5.765  -0.238  0.2635  0.4846 -0.5738
   74bbb     C1 2147   6.370   5.771  -0.162 -0.2038  0.0370 -0.3919
   74bbb     H1 2148   6.417   5.869  -0.177  0.3623  0.0574  1.3178
   74bbb     H2 2149   6.431   5.690  -0.204  0.2535 -0.1723  0.6572
   74bbb     C2 2150   6.262   5.738  -0.381  0.1177 -0.3746  0.4204
   74bbb     H3 2151   6.365   5.760  -0.410 -0.1321 -0.0281 -0.2470
   74bbb     H4 2152   6.210   5.805  -0.451  1.3320 -2.3517 -2.5544
   74bbb     C3 2153   6.124   5.868  -0.210  0.1874  0.9219 -0.6510
   74bbb     H5 2154   6.149   5.971  -0.241 -1.3491  2.0660  1.6218
   74bbb     H6 2155   6.101   5.886  -0.104 -0.1326 -1.1060 -0.3438
   74bbb     C4 2156   5.994   5.822  -0.278 -0.2468 -0.0192 -0.1643
   74bbb     H7 2157   5.983   5.713  -0.270 -0.2141 -0.0072  0.0416
   74bbb     H8 2158   6.000   5.853  -0.383  2.1456  0.6579  0.1226
   74bbb     C5 2159   6.358   5.748  -0.012  0.2542 -0.0282  0.1917
   74bbb     H9 2160   6.282   5.671   0.008  0.7047 -0.5704 -0.1395
   74bbb    H10 2161   6.319   5.833   0.044  1.0967  0.3023  0.3008
   74bbb     C6 2162   6.227   5.594  -0.418  0.5978  0.5682  0.1989
   74bbb    H11 2163   6.162   5.560  -0.337 -1.9123  1.8940 -1.1289
   74bbb    H12 2164   6.320   5.536  -0.417  1.1579  1.4184 -0.6556
   74bbb     C7 2165   5.864   5.888  -0.216 -0.2141  0.7981 -0.6959
   74bbb    H13 2166   5.775   5.858  -0.273 -1.7407  1.6605  1.1382
   74bbb    H14 2167   5.881   5.996  -0.221  1.5770  0.4986 -2.6968
   74bbb     C8 2168   6.150   5.586  -0.555 -0.2090  0.2597 -0.8528
   74bbb    H15 2169   6.131   5.478  -0.567 -1.2246  0.3036  0.1978
   74bbb    H16 2170   6.209   5.620  -0.641  0.5930 -1.2593 -0.9463
   74bbb     C9 2171   6.490   5.707   0.060  0.5183 -0.0699  0.0773
   74bbb    H17 2172   6.554   5.795   0.049 -1.5187  1.7791  1.9059
   74bbb    H18 2173   6.545   5.630   0.006  1.3130  0.2603  0.4003
   74bbb     O1 2174   5.851   5.842  -0.083  0.6245 -0.2241 -0.5250
   75bbb     N1 2175   6.776   6.176   0.159 -0.1416  0.0291 -0.0838
   75bbb     C1 2176   6.856   6.054   0.186 -0.0130 -0.1373  0.4163
   75bbb     H1 2177   6.950   6.079   0.136 -0.8871  1.4678 -0.4934
   75bbb     H2 2178   6.807   5.965   0.144  1.5694 -0.8978  0.1350
   75bbb     C2 2179   6.767   6.209   0.011 -0.2357  0.4247 -0.4337
   75bbb     H3 2180   6.715   6.127  -0.039  1.8181 -1.0067 -0.3644
   75bbb     H4 2181   6.870   6.214  -0.026 -0.3378 -0.9246 -0.9392
   75bbb     C3 2182   6.643   6.176   0.232 -0.1720 -0.3024  0.0803
   75bbb     H5 2183   6.596   6.275   0.229  0.1866 -0.1461 -1.9841
   75bbb     H6 2184   6.638   6.168   0.341 -1.2551  0.0103  0.0687
   75bbb     C4 2185   6.548   6.075   0.169 -0.2508  0.4701 -0.0535
   75bbb     H7 2186   6.602   5.979   0.169  0.5265  0.9002 -0.9903
   75bbb     H8 2187   6.530   6.077   0.061 -2.6725  0.4477  0.2791
   75bbb     C5 2188   6.877   6.024   0.336  0.2386  0.6567  0.1980
   75bbb     H9 2189   6.932   5.930   0.351  0.1668  0.6415  0.3659
   75bbb    H10 2190   6.779   5.994   0.375 -0.3203 -0.4430 -1.9308
   75bbb     C6 2191   6.699   6.342  -0.025 -0.6804 -0.1709  0.2253
   75bbb    H11 2192   6.749   6.436   0.001 -1.9735  0.9499 -1.0814
   75bbb    H12 2193   6.603   6.341   0.028 -0.5713 -1.4012  0.4285
   75bbb     C7 2194   6.419   6.060   0.256 -0.3431 -0.0633  0.0059
   75bbb    H13 2195   6.443   6.059   0.363  1.2674  0.8033 -0.3119
   75bbb    H14 2196   6.382   5.959   0.235  2.8588 -1.6333  1.2777
   75bbb     C8 2197   6.668   6.350  -0.180  0.0518  0.0013  0.1409
   75bbb    H15 2198   6.748   6.295  -0.232 -0.0767  0.2137 -0.2909
   75bbb    H16 2199   6.666   6.451  -0.223  0.5504 -0.2991 -0.6057
   75bbb     C9 2200   6.941   6.135   0.417  0.0998 -0.4931 -0.4722
   75bbb    H17 2201   6.906   6.235   0.388  2.6876 -0.3079 -3.5403
   75bbb    H18 2202   7.051   6.132   0.413  0.2404  1.6794  0.3020
   75bbb     O1 2203   6.325   6.175   0.223 -0.1176 -0.0583 -0.4599
   76bbb     N1 2204   4.403   5.074   0.740  0.2361  0.9510  0.1480
   76bbb     C1 2205   4.443   4.930   0.770  0.1701 -0.1146 -0.6190
   76bbb     H1 2206   4.400   4.902   0.866  1.4418 -0.4894 -0.1322
   76bbb     H2 2207   4.553   4.935   0.776  0.3214 -1.5540 -1.5838
   76bbb     C2 2208   4.257   5.085   0.736 -0.2486  0.2317  0.5384
   76bbb     H3 2209   4.234   5.066   0.841  1.2243  1.0860  1.0386
   76bbb     H4 2210   4.214   5.002   0.678 -0.6126 -0.4603  1.7639
   76bbb     C3 2211   4.457   5.172   0.838  0.0066 -0.0982  0.0032
   76bbb     H5 2212   4.429   5.143   0.941  1.2465 -3.2054 -0.4069
   76bbb     H6 2213   4.422   5.270   0.805  0.1727 -0.0807 -0.1172
   76bbb     C4 2214   4.610   5.180   0.841 -0.9240 -0.5039 -0.6199
   76bbb     H7 2215   4.647   5.210   0.742  3.0573  1.2837  1.2026
   76bbb     H8 2216   4.655   5.082   0.859  0.4289  0.2787  0.3827
   76bbb     C5 2217   4.402   4.822   0.666  0.0274 -0.0312  0.8263
   76bbb     H9 2218   4.295   4.800   0.656 -0.2576  1.5332  0.3123
   76bbb    H10 2219   4.447   4.730   0.706  0.9800  0.3692  0.7138
   76bbb     C6 2220   4.186   5.220   0.691 -0.3939 -0.5114  0.5473
   76bbb    H11 2221   4.179   5.219   0.581  0.9499 -2.0517  0.4489
   76bbb    H12 2222   4.255   5.302   0.715  0.6898 -1.3488  0.3820
   76bbb     C7 2223   4.661   5.273   0.950  0.2104 -0.1486  0.4345
   76bbb    H13 2224   4.753   5.225   0.987  1.0203  0.1990 -1.0279
   76bbb    H14 2225   4.580   5.286   1.022  0.2109  3.2750 -0.0190
   76bbb     C8 2226   4.049   5.243   0.753  0.2257 -0.3951  0.2649
   76bbb    H15 2227   3.973   5.170   0.724  0.7317 -1.7014  2.0508
   76bbb    H16 2228   4.011   5.339   0.715  0.3005  0.2064  1.6380
   76bbb     C9 2229   4.467   4.839   0.527 -0.1172  0.4633  0.3048
   76bbb    H17 2230   4.420   4.916   0.466 -0.3392 -0.1837 -0.3547
   76bbb    H18 2231   4.438   4.741   0.487 -1.4434  0.7904  0.4401
   76bbb     O1 2232   4.703   5.403   0.900  0.1056 -0.7900 -0.0054
   77bbb     N1 2233   4.536   6.352   0.117  0.1443 -0.2022 -0.2167
   77bbb     C1 2234   4.672   6.291   0.093 -0.0081 -0.5407 -0.5173
   77bbb     H1 2235   4.668   6.205   0.025 -0.4161 -1.6761  0.9017
   77bbb     H2 2236   4.716   6.269   0.191  1.0766  0.7017 -0.6890
   77bbb     C2 2237   4.538   6.486   0.190 -0.3492  0.4397 -0.2011
   77bbb     H3 2238   4.596   6.550   0.122 -0.0293 -0.4063 -0.7353
   77bbb     H4 2239   4.581   6.470   0.290  1.1252  0.7002 -0.7674
   77bbb     C3 2240   4.451   6.249   0.181  0.2804 -0.8484  0.6069
   77bbb     H5 2241   4.352   6.286   0.209  0.2734 -0.1736 -0.2563
   77bbb     H6 2242   4.502   6.213   0.272 -0.2665  1.8374  2.0632
   77bbb     C4 2243   4.421   6.128   0.097  0.0892 -0.2567  0.3404
   77bbb     H7 2244   4.507   6.069   0.066 -1.1285 -0.8326 -2.2498
   77bbb     H8 2245   4.358   6.152   0.010  0.3264  0.0128  0.2436
   77bbb     C5 2246   4.769   6.393   0.018  0.1138 -0.0818 -0.5648
   77bbb     H9 2247   4.704   6.463  -0.036  0.2273 -0.6245 -1.4295
   77bbb    H10 2248   4.832   6.342  -0.056 -0.3025 -0.8543 -0.3965
   77bbb     C6 2249   4.402   6.551   0.206  0.0343 -0.3034  0.1234
   77bbb    H11 2250   4.424   6.639   0.268 -1.0913  0.7355 -0.9140
   77bbb    H12 2251   4.332   6.500   0.274 -0.1374  1.9022  1.6878
   77bbb     C7 2252   4.335   6.033   0.175 -0.1335  0.2567  0.3642
   77bbb    H13 2253   4.277   5.969   0.108  0.4349  0.9097 -0.7708
   77bbb    H14 2254   4.266   6.092   0.238 -0.2815  0.0023  0.4409
   77bbb     C8 2255   4.335   6.585   0.069 -0.8153  0.6508  0.1279
   77bbb    H15 2256   4.334   6.486   0.022  2.4713 -0.0518  1.2800
   77bbb    H16 2257   4.398   6.650   0.007  0.6351 -0.2925  0.5673
   77bbb     C9 2258   4.856   6.473   0.117 -0.5519 -0.8016 -0.1399
   77bbb    H17 2259   4.933   6.409   0.160 -1.0442 -0.9017  0.6070
   77bbb    H18 2260   4.799   6.529   0.192 -1.3971  0.0852 -1.4038
   77bbb     O1 2261   4.407   5.951   0.270  0.5260 -0.3956  0.2826
   78bbb     N1 2262   5.105   8.405   1.858  0.8501  0.6003  0.1295
   78bbb     C1 2263   5.212   8.302   1.840 -0.5395  0.5303  0.1564
   78bbb     H1 2264   5.187   8.238   1.755  1.3076 -0.5563  0.3783
   78bbb     H2 2265   5.211   8.242   1.932  0.9810  1.5236  0.8683
   78bbb     C2 2266   5.111   8.519   1.761  0.2637 -0.2170 -0.0854
   78bbb     H3 2267   5.210   8.567   1.768  1.3767 -2.2932 -0.6023
   78bbb     H4 2268   5.027   8.581   1.794 -0.7534 -1.0538 -1.0137
   78bbb     C3 2269   4.969   8.353   1.881  0.4173  0.1442 -0.1214
   78bbb     H5 2270   4.950   8.285   1.798  0.0821  1.0251 -0.7887
   78bbb     H6 2271   4.893   8.433   1.873 -0.2499 -0.6580 -2.3532
   78bbb     C4 2272   4.956   8.261   2.001 -0.5151  0.8328  0.3865
   78bbb     H7 2273   5.009   8.166   1.987 -0.2901  0.8727  0.9706
   78bbb     H8 2274   4.850   8.234   2.010 -0.3786 -0.5356 -1.5235
   78bbb     C5 2275   5.362   8.351   1.817 -0.1468  0.0385  0.5780
   78bbb     H9 2276   5.363   8.405   1.721 -0.9659 -2.5495 -1.0030
   78bbb    H10 2277   5.422   8.261   1.804 -1.9893 -1.1806  0.1525
   78bbb     C6 2278   5.069   8.481   1.614 -0.2578  0.1078 -0.2162
   78bbb    H11 2279   4.981   8.415   1.612 -0.4427  0.3721 -1.4091
   78bbb    H12 2280   5.151   8.428   1.563 -0.3355  0.6877 -0.9651
   78bbb     C7 2281   4.982   8.323   2.143 -0.4836 -0.0641  0.1723
   78bbb    H13 2282   4.912   8.405   2.164 -0.6441  0.1993 -1.2859
   78bbb    H14 2283   5.081   8.372   2.147 -0.7445  0.6097 -1.0973
   78bbb     C8 2284   5.020   8.603   1.536 -0.2294 -0.1726 -0.0663
   78bbb    H15 2285   4.956   8.664   1.600 -0.2932  0.5717 -0.8241
   78bbb    H16 2286   4.962   8.571   1.448  0.9734 -0.3516 -0.8248
   78bbb     C9 2287   5.435   8.426   1.935 -0.1559  0.0214  0.4769
   78bbb    H17 2288   5.374   8.513   1.961  0.2792  0.7580 -0.8453
   78bbb    H18 2289   5.536   8.466   1.916  0.4967 -0.4719  2.6013
   78bbb     O1 2290   4.973   8.228   2.248 -0.2173 -0.2389  0.5579
   79bbb     N1 2291   4.145   7.574   3.001  0.2569 -0.5310 -0.3211
   79bbb     C1 2292   4.224   7.618   3.126  0.0407  0.3044 -0.2954
   79bbb     H1 2293   4.310   7.550   3.130  0.2270  0.5927  1.1916
   79bbb     H2 2294   4.165   7.597   3.216  1.2607 -1.0439  0.2316
   79bbb     C2 2295   4.094   7.432   3.013  0.4925  0.7647  0.6358
   79bbb     H3 2296   4.183   7.369   3.028  1.6265  2.3492  0.7549
   79bbb     H4 2297   4.046   7.416   2.916 -1.5562 -0.4079  1.7848
   79bbb     C3 2298   4.230   7.604   2.884  0.2100 -0.4122  0.3944
   79bbb     H5 2299   4.237   7.521   2.813  0.7250 -0.0289 -0.0198
   79bbb     H6 2300   4.333   7.619   2.918  0.5407 -2.7032  0.5160
   79bbb     C4 2301   4.167   7.718   2.799 -0.8453  0.0079 -0.3027
   79bbb     H7 2302   4.159   7.806   2.864 -1.4495  0.3509 -0.8228
   79bbb     H8 2303   4.066   7.683   2.774 -0.4940 -0.5861 -0.9190
   79bbb     C5 2304   4.271   7.768   3.127 -0.0180 -0.1687  0.4525
   79bbb     H9 2305   4.186   7.836   3.118  0.3819  0.3387  0.4387
   79bbb    H10 2306   4.339   7.793   3.044  0.2212  0.7535  0.9123
   79bbb     C6 2307   3.987   7.416   3.126 -0.4062  0.6296 -0.0332
   79bbb    H11 2308   3.898   7.480   3.122 -2.1855 -1.5080  1.9647
   79bbb    H12 2309   4.035   7.423   3.224 -0.8043 -0.6664  0.2648
   79bbb     C7 2310   4.252   7.743   2.673  0.1919  0.2393 -0.6309
   79bbb    H13 2311   4.218   7.840   2.636  0.1752 -0.0251 -1.3290
   79bbb    H14 2312   4.249   7.655   2.607  1.4401 -1.0738  0.9575
   79bbb     C8 2313   3.930   7.269   3.127  0.4072 -0.1754 -0.0256
   79bbb    H15 2314   4.012   7.196   3.113  0.5830 -0.3548  1.7599
   79bbb    H16 2315   3.870   7.260   3.035 -0.2791  0.8117  0.3209
   79bbb     C9 2316   4.342   7.802   3.261 -0.4738 -0.2715 -0.1342
   79bbb    H17 2317   4.440   7.752   3.255 -0.3944  0.0054 -1.5497
   79bbb    H18 2318   4.286   7.763   3.346  0.9083 -0.2361  0.8326
   79bbb     O1 2319   4.393   7.778   2.713  0.0599 -0.0314 -0.0303
   80bbb     N1 2320   4.793   7.653   1.286  0.5305  0.5691  0.0393
   80bbb     C1 2321   4.724   7.786   1.275  0.2409 -0.0456 -0.3371
   80bbb     H1 2322   4.662   7.810   1.362  1.3183  0.9610  0.1704
   80bbb     H2 2323   4.644   7.775   1.201  0.4151 -0.8076 -0.4236
   80bbb     C2 2324   4.848   7.613   1.150  0.1057  0.4241 -0.2443
   80bbb     H3 2325   4.926   7.685   1.121  0.7514  0.6127  1.7880
   80bbb     H4 2326   4.764   7.620   1.080 -1.7281  0.7061  1.8866
   80bbb     C3 2327   4.893   7.643   1.392 -0.1975 -0.4998  0.3559
   80bbb     H5 2328   4.967   7.718   1.361 -0.1915 -1.0988 -1.1647
   80bbb     H6 2329   4.935   7.542   1.397 -0.6607 -0.6256  3.1893
   80bbb     C4 2330   4.836   7.670   1.533  0.3319 -0.3580  0.2642
   80bbb     H7 2331   4.840   7.779   1.544  1.4675 -0.4213  0.5710
   80bbb     H8 2332   4.906   7.638   1.611  1.0790  0.0441 -0.2255
   80bbb     C5 2333   4.806   7.905   1.231 -0.0664  0.2499  0.0046
   80bbb     H9 2334   4.878   7.873   1.154 -3.1689 -1.8108 -2.2499
   80bbb    H10 2335   4.856   7.945   1.320 -0.0460 -1.1070  0.6195
   80bbb     C6 2336   4.898   7.466   1.137  0.0806 -0.1826  0.3771
   80bbb    H11 2337   4.992   7.459   1.192 -0.6951  1.2945  2.0068
   80bbb    H12 2338   4.910   7.445   1.030  2.5470 -1.6743  0.8820
   80bbb     C7 2339   4.692   7.609   1.549 -0.5618  0.5839  0.5294
   80bbb    H13 2340   4.691   7.512   1.497  0.2776  1.1198 -0.5391
   80bbb    H14 2341   4.624   7.677   1.496  0.1397  0.2851 -0.8219
   80bbb     C8 2342   4.799   7.363   1.197  0.3972  0.5004  0.5130
   80bbb    H15 2343   4.705   7.365   1.141  0.0650 -2.2739  0.8444
   80bbb    H16 2344   4.767   7.399   1.296  0.2992 -1.0497  1.0705
   80bbb     C9 2345   4.714   8.006   1.166 -0.4579  0.0888 -0.5021
   80bbb    H17 2346   4.767   8.102   1.157 -0.4003  0.0581 -0.4910
   80bbb    H18 2347   4.629   8.025   1.232  1.2094  0.6045  1.5938
   80bbb     O1 2348   4.663   7.601   1.687  0.7692  0.0153 -0.5005
   81bbb     N1 2349   4.034   6.449   1.673  0.0957  0.6157  0.1938
   81bbb     C1 2350   3.955   6.347   1.594  0.0714 -0.5803 -0.3919
   81bbb     H1 2351   3.909   6.275   1.662 -0.1415 -0.7579 -0.7172
   81bbb     H2 2352   4.027   6.297   1.528  2.0701 -0.0103  1.2597
   81bbb     C2 2353   4.078   6.386   1.797  0.3130  0.5247 -0.0040
   81bbb     H3 2354   3.993   6.340   1.848 -0.3528  0.8526 -0.7867
   81bbb     H4 2355   4.139   6.459   1.852 -0.9790  2.3331 -0.8816
   81bbb     C3 2356   4.145   6.518   1.597 -0.4986  0.3442  0.2717
   81bbb     H5 2357   4.098   6.570   1.512 -0.1225 -2.0319 -1.4763
   81bbb     H6 2358   4.206   6.446   1.541  0.7489  0.9563  0.8170
   81bbb     C4 2359   4.234   6.622   1.674 -0.5621 -0.2590 -0.2878
   81bbb     H7 2360   4.303   6.681   1.614 -0.6198 -1.0456 -1.1483
   81bbb     H8 2361   4.293   6.563   1.744 -2.0250  0.5045  1.6970
   81bbb     C5 2362   3.835   6.421   1.513 -0.6448 -0.4897 -0.8968
   81bbb     H9 2363   3.808   6.357   1.428 -1.3303  0.3889 -1.3522
   81bbb    H10 2364   3.882   6.513   1.477  1.1654 -0.6641  0.8197
   81bbb     C6 2365   4.169   6.262   1.780  0.0999  0.1441 -0.4710
   81bbb    H11 2366   4.241   6.248   1.861  0.1141  0.3119 -0.4563
   81bbb    H12 2367   4.220   6.279   1.684  0.7362  0.1125 -0.1420
   81bbb     C7 2368   4.148   6.732   1.752 -0.5274  0.4903  0.1217
   81bbb    H13 2369   4.083   6.688   1.828  0.6693 -0.5990  0.5582
   81bbb    H14 2370   4.090   6.793   1.681  0.0310 -0.2168 -0.9756
   81bbb     C8 2371   4.098   6.125   1.765  0.2310  1.0255  0.0404
   81bbb    H15 2372   4.061   6.120   1.661 -1.9271 -0.4128  0.8194
   81bbb    H16 2373   4.008   6.120   1.828  0.9331 -0.3027  0.9775
   81bbb     C9 2374   3.711   6.460   1.597  0.0938  0.2207 -0.5129
   81bbb    H17 2375   3.652   6.534   1.541 -1.0160 -1.1369 -1.1834
   81bbb    H18 2376   3.746   6.499   1.693  0.1176 -2.0868  0.4874
   81bbb     O1 2377   4.255   6.815   1.806 -0.3906 -0.0190 -0.0665
   82bbb     N1 2378   7.628   7.426   1.897  0.1098  0.4904  0.1606
   82bbb     C1 2379   7.711   7.422   2.016  0.2392  0.4013 -0.1146
   82bbb     H1 2380   7.730   7.522   2.056 -0.3428  0.5024 -0.0863
   82bbb     H2 2381   7.806   7.375   1.986 -0.4103 -1.0278 -0.0301
   82bbb     C2 2382   7.691   7.510   1.789 -0.1877  0.1420  0.0833
   82bbb     H3 2383   7.647   7.488   1.691  1.3471  1.0506 -0.8486
   82bbb     H4 2384   7.794   7.474   1.776 -0.2640  0.0032 -0.1401
   82bbb     C3 2385   7.481   7.448   1.916  0.1576 -0.0033 -0.1561
   82bbb     H5 2386   7.470   7.550   1.956 -2.5611  0.9525 -2.8894
   82bbb     H6 2387   7.440   7.375   1.987  2.1540 -0.1139  0.9349
   82bbb     C4 2388   7.397   7.431   1.780  0.1813 -0.7334  0.6715
   82bbb     H7 2389   7.420   7.335   1.731 -1.4138 -0.6591 -0.2728
   82bbb     H8 2390   7.432   7.518   1.723 -0.7994  0.1258  1.3499
   82bbb     C5 2391   7.656   7.341   2.130  0.1463 -0.5311 -0.0715
   82bbb     H9 2392   7.606   7.251   2.092 -1.0553 -0.0427  0.2849
   82bbb    H10 2393   7.577   7.400   2.180 -0.8664 -1.3481 -0.6772
   82bbb     C6 2394   7.692   7.667   1.787  0.6364 -0.4368  0.3743
   82bbb    H11 2395   7.730   7.692   1.887 -0.4387 -0.3104  0.7604
   82bbb    H12 2396   7.591   7.706   1.771  0.8666 -0.1846 -0.5405
   82bbb     C7 2397   7.252   7.452   1.815  0.2780 -0.0420  0.6779
   82bbb    H13 2398   7.219   7.373   1.883 -0.5328 -0.3609 -0.0641
   82bbb    H14 2399   7.190   7.436   1.726  0.0260  2.4653  0.3149
   82bbb     C8 2400   7.779   7.723   1.674 -0.0245  0.1118 -0.1858
   82bbb    H15 2401   7.736   7.685   1.580  1.6780 -2.1374 -0.1278
   82bbb    H16 2402   7.879   7.679   1.679 -0.9989 -2.5901 -2.1305
   82bbb     C9 2403   7.772   7.316   2.232  0.8222  0.4987 -0.0554
   82bbb    H17 2404   7.840   7.251   2.176 -0.6126 -1.6742  0.5883
   82bbb    H18 2405   7.743   7.248   2.314  3.1673 -0.9184 -0.3150
   82bbb     O1 2406   7.224   7.587   1.855  0.3886 -0.1375  0.6613
   83bbb     N1 2407   7.139   7.966   1.100 -0.0450 -0.1794 -0.3660
   83bbb     C1 2408   7.155   8.107   1.056  0.0126  0.0912 -0.0997
   83bbb     H1 2409   7.259   8.113   1.021  0.6965 -0.3534  1.7448
   83bbb     H2 2410   7.155   8.167   1.148  0.4577  1.6122 -1.0754
   83bbb     C2 2411   7.120   7.864   0.989 -0.4483  0.1078 -0.6595
   83bbb     H3 2412   7.214   7.855   0.934 -1.1078  1.6845 -2.1355
   83bbb     H4 2413   7.052   7.915   0.921 -0.9659  2.6277  1.5571
   83bbb     C3 2414   7.208   7.930   1.223  0.0820 -0.0152  0.2605
   83bbb     H5 2415   7.177   7.836   1.271  0.0500  0.0740  0.4130
   83bbb     H6 2416   7.185   8.005   1.299  0.1612 -0.5801  0.8478
   83bbb     C4 2417   7.353   7.903   1.188  0.0037 -0.4651  0.1510
   83bbb     H7 2418   7.395   7.990   1.135  0.4141 -0.3087  0.7317
   83bbb     H8 2419   7.349   7.818   1.118 -1.1761 -0.0468 -0.2994
   83bbb     C5 2420   7.032   8.158   0.977 -0.6096  0.1684 -0.0992
   83bbb     H9 2421   6.945   8.096   1.002 -1.5155  1.3844 -0.1801
   83bbb    H10 2422   7.044   8.154   0.868 -0.8273  1.8490 -0.2085
   83bbb     C6 2423   7.054   7.729   1.035  0.1493 -0.4513  0.2593
   83bbb    H11 2424   6.967   7.749   1.098 -0.8062  0.3585 -1.2383
   83bbb    H12 2425   7.121   7.668   1.096 -2.4002 -0.7895  2.9150
   83bbb     C7 2426   7.439   7.867   1.304 -0.5276  0.2542 -0.5554
   83bbb    H13 2427   7.547   7.857   1.283 -0.6833  1.1188 -1.9427
   83bbb    H14 2428   7.415   7.769   1.345  1.7035 -0.3769 -0.6078
   83bbb     C8 2429   6.992   7.649   0.917 -0.0404  0.1688  0.4149
   83bbb    H15 2430   6.960   7.551   0.956  0.0061 -0.0456 -0.0654
   83bbb    H16 2431   7.069   7.635   0.840 -0.4325 -1.5997  0.2967
   83bbb     C9 2432   6.990   8.299   1.022 -0.0283  0.3606  0.5935
   83bbb    H17 2433   6.942   8.295   1.120 -0.6691 -0.9632  0.2466
   83bbb    H18 2434   6.912   8.329   0.951  1.2903  3.6909  0.3239
   83bbb     O1 2435   7.419   7.977   1.398 -0.3113  0.5665 -0.0282
   84bbb     N1 2436   5.614   6.755   0.836 -0.3500 -0.1943 -0.0124
   84bbb     C1 2437   5.713   6.651   0.807 -0.3949 -0.4804  0.0310
   84bbb     H1 2438   5.665   6.552   0.815 -3.6396  0.9338 -0.2886
   84bbb     H2 2439   5.792   6.650   0.883  0.8082 -4.3139 -1.0328
   84bbb     C2 2440   5.486   6.740   0.767  0.5350 -0.8227 -0.0342
   84bbb     H3 2441   5.474   6.637   0.732 -0.9980 -0.5195 -0.4653
   84bbb     H4 2442   5.485   6.790   0.670  1.8370  0.9805  0.8064
   84bbb     C3 2443   5.656   6.894   0.862 -0.0884 -0.1191  0.1491
   84bbb     H5 2444   5.576   6.950   0.912 -1.7180 -1.8740 -0.3670
   84bbb     H6 2445   5.677   6.952   0.772  2.9541 -0.5161  0.5153
   84bbb     C4 2446   5.791   6.897   0.944  0.9791 -0.2122 -0.7284
   84bbb     H7 2447   5.875   6.896   0.874  2.1230  2.1463  0.5137
   84bbb     H8 2448   5.801   6.819   1.021  0.5621  1.3525  1.0141
   84bbb     C5 2449   5.785   6.664   0.672  0.5693 -0.0164 -0.7653
   84bbb     H9 2450   5.813   6.769   0.653 -1.0755  0.5901 -0.0675
   84bbb    H10 2451   5.723   6.623   0.592  1.1655  0.6423 -1.5851
   84bbb     C6 2452   5.361   6.786   0.848  0.0190  0.0415 -0.5364
   84bbb    H11 2453   5.348   6.894   0.836  1.5142  0.4485  1.1268
   84bbb    H12 2454   5.391   6.780   0.953  0.8248  0.9344 -0.7019
   84bbb     C7 2455   5.799   7.031   1.015  0.2881 -0.3879 -0.6490
   84bbb    H13 2456   5.712   7.046   1.080  0.1638  0.1124 -0.9304
   84bbb    H14 2457   5.794   7.112   0.942 -1.5548  0.8817  0.7852
   84bbb     C8 2458   5.223   6.712   0.831  0.2698  0.0383 -0.6209
   84bbb    H15 2459   5.147   6.777   0.878  2.7248  2.4730  0.2246
   84bbb    H16 2460   5.229   6.620   0.891  1.3822 -0.2067 -1.0912
   84bbb     C9 2461   5.904   6.570   0.679  0.1771  0.3845 -0.2216
   84bbb    H17 2462   5.866   6.468   0.693  2.6814 -0.9993 -2.4717
   84bbb    H18 2463   5.966   6.604   0.763  0.9646  1.2747 -1.1367
   84bbb     O1 2464   5.922   7.043   1.085 -0.8360 -0.1092 -0.0492
   85bbb     N1 2465   5.663   7.107   0.458 -0.6369 -0.3556  0.0212
   85bbb     C1 2466   5.634   7.224   0.375 -0.0515  0.0030  0.6584
   85bbb     H1 2467   5.708   7.304   0.379  0.4348 -0.4665  1.3624
   85bbb     H2 2468   5.546   7.276   0.413 -0.7555 -1.2976  0.8756
   85bbb     C2 2469   5.561   6.996   0.459 -0.0953  0.3414 -0.3458
   85bbb     H3 2470   5.590   6.920   0.533  0.0376  0.9903  0.2919
   85bbb     H4 2471   5.565   6.959   0.356  0.9701  1.9535 -0.9341
   85bbb     C3 2472   5.798   7.049   0.443 -0.2394  0.0234  0.2673
   85bbb     H5 2473   5.814   7.007   0.343 -1.4983 -1.6662  0.7349
   85bbb     H6 2474   5.824   6.967   0.511  1.1887 -0.6931 -1.0564
   85bbb     C4 2475   5.911   7.160   0.470  0.2670 -0.3347  0.0332
   85bbb     H7 2476   5.898   7.230   0.387  1.1904 -2.1385 -1.7341
   85bbb     H8 2477   6.010   7.114   0.457 -0.2354 -0.9537 -1.7454
   85bbb     C5 2478   5.615   7.186   0.227 -0.1185 -0.0681  0.3660
   85bbb     H9 2479   5.532   7.115   0.213  0.4720 -0.1889 -3.3342
   85bbb    H10 2480   5.706   7.132   0.198 -1.1403 -2.0639  0.6915
   85bbb     C6 2481   5.413   7.046   0.493 -0.4881 -0.2751 -0.2403
   85bbb    H11 2482   5.339   6.965   0.488 -1.1722  0.2946  0.3989
   85bbb    H12 2483   5.376   7.117   0.417  3.1703  2.8222  0.5525
   85bbb     C7 2484   5.904   7.235   0.605 -0.3516 -0.0546  1.0584
   85bbb    H13 2485   5.814   7.203   0.659 -0.0223  1.5660  2.6911
   85bbb    H14 2486   5.904   7.342   0.583  1.0918 -0.5067 -1.5561
   85bbb     C8 2487   5.406   7.111   0.636 -0.5475 -0.5375 -0.3890
   85bbb    H15 2488   5.485   7.187   0.636 -0.3116 -0.7466 -1.9053
   85bbb    H16 2489   5.437   7.029   0.702  0.2655 -0.3521 -0.5253
   85bbb     C9 2490   5.585   7.317   0.138 -0.1451  0.2120  0.1545
   85bbb    H17 2491   5.520   7.384   0.195 -0.8393 -1.2007  1.0934
   85bbb    H18 2492   5.544   7.297   0.038  0.1854  0.0784  0.0449
   85bbb     O1 2493   6.018   7.204   0.680 -0.2155  0.4967  0.0135
   86bbb     N1 2494   6.901   5.662   4.790 -0.0863 -0.0039  0.6374
   86bbb     C1 2495   7.033   5.650   4.724 -0.2206  0.6770 -0.1101
   86bbb     H1 2496   7.114   5.693   4.784 -1.1416  1.1848  0.7952
   86bbb     H2 2497   7.034   5.694   4.624  2.4707 -0.4713 -0.6783
   86bbb     C2 2498   6.906   5.609   4.937  1.0930 -0.0062 -0.0521
   86bbb     H3 2499   7.000   5.644   4.981  1.2690  3.0702 -2.5338
   86bbb     H4 2500   6.910   5.499   4.940  1.1864  0.0207  1.4417
   86bbb     C3 2501   6.786   5.597   4.714 -0.5712 -0.1141 -0.0934
   86bbb     H5 2502   6.696   5.613   4.775 -1.5479 -1.7912 -1.0073
   86bbb     H6 2503   6.790   5.487   4.709  1.2101 -0.1384  0.9837
   86bbb     C4 2504   6.755   5.658   4.578  0.1684  0.0673  0.5635
   86bbb     H7 2505   6.818   5.606   4.505 -1.0781  0.1743 -0.6264
   86bbb     H8 2506   6.777   5.766   4.572 -1.1104  0.3468  0.4814
   86bbb     C5 2507   7.065   5.506   4.696 -0.1235 -0.7741 -0.9221
   86bbb     H9 2508   6.980   5.447   4.661 -0.2488 -0.1838 -1.6373
   86bbb    H10 2509   7.096   5.454   4.787 -2.2202  0.4304  0.5745
   86bbb     C6 2510   6.794   5.671   5.023  0.1257 -0.0412 -0.0014
   86bbb    H11 2511   6.692   5.642   4.993  0.4369 -0.9459 -0.2107
   86bbb    H12 2512   6.795   5.780   5.012  0.2851  0.4710  3.9089
   86bbb     C7 2513   6.612   5.637   4.523 -1.0109 -0.3627 -0.3082
   86bbb    H13 2514   6.580   5.532   4.522 -1.8213 -0.1563  0.8874
   86bbb    H14 2515   6.615   5.680   4.423  2.5510  1.4056  0.4075
   86bbb     C8 2516   6.815   5.640   5.173 -0.8633  0.2724  0.0624
   86bbb    H15 2517   6.771   5.716   5.239  1.6216 -0.2089  2.4312
   86bbb    H16 2518   6.918   5.654   5.206 -1.0894  0.0199  0.8940
   86bbb     C9 2519   7.170   5.501   4.585  0.5252  0.8192 -0.3073
   86bbb    H17 2520   7.135   5.538   4.488  0.7132  0.9794 -0.3157
   86bbb    H18 2521   7.186   5.394   4.567  0.7021  0.7313  0.3482
   86bbb     O1 2522   6.514   5.720   4.587  0.1278  1.0836 -0.2381
   87bbb     N1 2523   5.835   4.930   4.094  0.5075 -0.4069 -0.2048
   87bbb     C1 2524   5.788   4.910   3.953  0.5366 -0.2355  0.2224
   87bbb     H1 2525   5.708   4.982   3.932 -0.8843 -1.6172  0.6919
   87bbb     H2 2526   5.725   4.820   3.952 -0.7123  0.5470  2.0738
   87bbb     C2 2527   5.729   4.900   4.191 -0.1658 -0.7529  0.3194
   87bbb     H3 2528   5.691   4.800   4.169  0.7927 -0.6705 -2.0155
   87bbb     H4 2529   5.647   4.973   4.179  0.9242  0.4853  0.1422
   87bbb     C3 2530   5.918   5.054   4.116  0.1133 -0.0384 -0.1793
   87bbb     H5 2531   6.005   5.071   4.053 -0.5575  2.8844 -0.4591
   87bbb     H6 2532   5.969   5.040   4.212  1.8245 -0.2319 -1.0861
   87bbb     C4 2533   5.834   5.186   4.109  0.4177 -0.3556  0.5344
   87bbb     H7 2534   5.736   5.173   4.156 -1.1920  1.0341 -2.1688
   87bbb     H8 2535   5.798   5.202   4.007 -2.4905  2.9822  1.8696
   87bbb     C5 2536   5.905   4.912   3.855  0.4294 -0.3516 -0.3889
   87bbb     H9 2537   5.987   4.850   3.891  1.7658  1.9792  0.7920
   87bbb    H10 2538   5.935   5.016   3.840 -0.9695  0.3063  1.1652
   87bbb     C6 2539   5.778   4.896   4.344 -0.6009 -0.1836  0.6543
   87bbb    H11 2540   5.812   4.996   4.370 -0.8373  0.1110 -0.1385
   87bbb    H12 2541   5.867   4.832   4.342 -0.1323  0.4765 -0.4262
   87bbb     C7 2542   5.922   5.305   4.148  0.0863  0.2774  0.4413
   87bbb    H13 2543   6.015   5.291   4.093 -1.0085  0.3138 -1.5240
   87bbb    H14 2544   5.958   5.298   4.252 -0.4855  0.4158  0.6567
   87bbb     C8 2545   5.666   4.859   4.444 -0.3666 -0.2556 -0.7253
   87bbb    H15 2546   5.618   4.957   4.440  0.1381 -0.0231 -1.2306
   87bbb    H16 2547   5.709   4.847   4.544  0.9638  0.1827 -1.2172
   87bbb     C9 2548   5.861   4.862   3.722  0.2265 -0.3214  0.3641
   87bbb    H17 2549   5.842   4.755   3.737 -0.8541 -0.2195 -0.2086
   87bbb    H18 2550   5.946   4.888   3.656  2.6368 -0.0945  3.3364
   87bbb     O1 2551   5.857   5.426   4.106 -0.2660  0.0112  0.0998
   88bbb     N1 2552   5.135   6.921   5.217  0.1844  0.2859 -0.1023
   88bbb     C1 2553   5.184   6.986   5.342 -0.4633 -0.6521  0.1264
   88bbb     H1 2554   5.105   7.049   5.385 -1.0490 -0.3155 -1.3785
   88bbb     H2 2555   5.269   7.049   5.315 -2.7140  3.1288  1.1202
   88bbb     C2 2556   5.045   7.002   5.134  0.3996 -0.6407 -0.1543
   88bbb     H3 2557   5.027   6.952   5.038  1.1844 -1.0782 -0.0811
   88bbb     H4 2558   5.091   7.098   5.107  0.9844 -0.7115  0.5753
   88bbb     C3 2559   5.220   6.828   5.135 -0.2680  0.0628  0.0863
   88bbb     H5 2560   5.159   6.790   5.052  1.1562  0.3223 -1.1284
   88bbb     H6 2561   5.254   6.742   5.194  1.6383  1.5598  1.3124
   88bbb     C4 2562   5.338   6.906   5.095  0.1961 -0.0783 -0.6418
   88bbb     H7 2563   5.412   6.902   5.176 -3.1939 -0.6353  2.7543
   88bbb     H8 2564   5.315   7.012   5.081 -1.4906 -0.2442  0.6240
   88bbb     C5 2565   5.227   6.894   5.448 -0.7825  0.7880  0.6059
   88bbb     H9 2566   5.291   6.945   5.522  1.1041  0.7047 -0.9030
   88bbb    H10 2567   5.291   6.815   5.409  0.4818  2.3581 -0.6228
   88bbb     C6 2568   4.899   7.035   5.194  0.8313 -0.4302  0.3708
   88bbb    H11 2569   4.918   7.086   5.288  1.6065 -1.7829  0.9788
   88bbb    H12 2570   4.851   6.939   5.217 -0.3706 -0.1608 -0.8490
   88bbb     C7 2571   5.404   6.853   4.967  0.2750  0.1889  0.3079
   88bbb    H13 2572   5.502   6.902   4.963 -0.3949  1.5459 -0.3094
   88bbb    H14 2573   5.347   6.884   4.878 -0.2491 -0.4780  0.4015
   88bbb     C8 2574   4.814   7.097   5.081 -0.0168 -0.0623  0.5418
   88bbb    H15 2575   4.718   7.135   5.119 -0.8762 -1.2158 -0.4178
   88bbb    H16 2576   4.812   7.022   5.002  3.3899  0.0917  0.1674
   88bbb     C9 2577   5.106   6.828   5.521  0.3391 -0.2714 -0.3501
   88bbb    H17 2578   5.045   6.781   5.443  0.4366 -1.9656  0.5474
   88bbb    H18 2579   5.044   6.904   5.571 -0.3552 -0.9301 -0.1946
   88bbb     O1 2580   5.411   6.713   4.979 -0.4401  0.0773  0.0957
   89bbb     N1 2581   4.798   6.661   4.092 -0.5836 -0.1484  0.4758
   89bbb     C1 2582   4.656   6.629   4.113  0.3467 -0.5280  0.1879
   89bbb     H1 2583   4.647   6.520   4.118  1.2682 -0.6712 -0.8866
   89bbb     H2 2584   4.601   6.667   4.027  0.5551 -0.9657 -0.1454
   89bbb     C2 2585   4.852   6.645   3.952 -0.1191  0.8054  0.7522
   89bbb     H3 2586   4.839   6.541   3.922  0.2019  1.1791 -0.7506
   89bbb     H4 2587   4.961   6.660   3.950 -0.0194  1.3418 -4.5219
   89bbb     C3 2588   4.886   6.603   4.198  0.2011  0.6978  0.0462
   89bbb     H5 2589   4.912   6.501   4.167 -1.4332  0.6847 -1.4109
   89bbb     H6 2590   4.835   6.592   4.295  1.5386 -0.1098  0.6977
   89bbb     C4 2591   5.014   6.684   4.211 -0.1644  0.8624 -0.4379
   89bbb     H7 2592   4.979   6.788   4.220  1.2923  1.4261 -0.8360
   89bbb     H8 2593   5.077   6.672   4.122 -0.4158  0.0450 -0.5064
   89bbb     C5 2594   4.594   6.679   4.252  0.2322  0.2029  0.0863
   89bbb     H9 2595   4.634   6.778   4.275 -1.1986  1.5647 -2.7917
   89bbb    H10 2596   4.624   6.618   4.339 -1.6272 -2.0221 -0.7436
   89bbb     C6 2597   4.805   6.743   3.838 -0.2787 -0.2025  0.2019
   89bbb    H11 2598   4.866   6.834   3.840 -0.6425  0.0915 -1.2783
   89bbb    H12 2599   4.706   6.778   3.868  0.3483  1.3328  0.6119
   89bbb     C7 2600   5.096   6.624   4.331 -0.1012  0.3606 -0.1621
   89bbb    H13 2601   5.132   6.524   4.305  2.9521  1.5196 -0.7161
   89bbb    H14 2602   5.036   6.637   4.422 -1.2291  3.5080 -1.2181
   89bbb     C8 2603   4.810   6.693   3.690  0.4467 -1.2569  0.1762
   89bbb    H15 2604   4.901   6.633   3.676 -0.5059 -2.5400 -0.5804
   89bbb    H16 2605   4.815   6.786   3.631  0.1576 -0.5086  1.2861
   89bbb     C9 2606   4.438   6.695   4.253 -0.2983 -0.2432 -0.2042
   89bbb    H17 2607   4.399   6.615   4.190 -1.7613  1.2869 -1.3349
   89bbb    H18 2608   4.413   6.788   4.200 -0.9807 -0.2316  0.1349
   89bbb     O1 2609   5.214   6.709   4.342  0.1562  0.3622 -0.7466
   90bbb     N1 2610   7.919   6.911   2.374  0.4313 -0.1537 -0.0968
   90bbb     C1 2611   7.774   6.933   2.353  0.3227 -0.0931 -0.6555
   90bbb     H1 2612   7.771   6.979   2.253 -2.3829  1.0047 -0.1549
   90bbb     H2 2613   7.735   7.013   2.417 -0.1179 -0.9722  0.2032
   90bbb     C2 2614   7.985   6.842   2.260 -0.0621  0.2294  0.2061
   90bbb     H3 2615   8.003   6.914   2.179 -0.4932  0.1785  0.0610
   90bbb     H4 2616   7.922   6.761   2.221 -0.8761  1.4416 -1.1333
   90bbb     C3 2617   7.989   7.030   2.421 -0.6076  0.2504  0.7929
   90bbb     H5 2618   7.973   7.117   2.356  0.4759  0.2391  0.4883
   90bbb     H6 2619   8.098   7.019   2.418 -0.4379  0.6057  3.3811
   90bbb     C4 2620   7.953   7.079   2.564 -0.2698 -0.3393  0.7254
   90bbb     H7 2621   7.935   6.991   2.626  1.2891 -1.3041 -0.1368
   90bbb     H8 2622   7.861   7.139   2.553 -1.7881 -2.1903  2.5314
   90bbb     C5 2623   7.677   6.809   2.356 -0.4362  0.1343  0.3040
   90bbb     H9 2624   7.707   6.765   2.260  1.7592  2.9605 -0.4516
   90bbb    H10 2625   7.571   6.833   2.348  0.2123  3.2704 -0.3022
   90bbb     C6 2626   8.136   6.787   2.292  0.1127  0.9281 -0.1520
   90bbb    H11 2627   8.122   6.720   2.378 -2.3575 -0.2968 -1.4094
   90bbb    H12 2628   8.196   6.867   2.337 -0.0647  0.5950  0.7036
   90bbb     C7 2629   8.054   7.169   2.632 -0.9109  0.0724 -0.8173
   90bbb    H13 2630   8.082   7.258   2.574  0.6935 -1.0016 -1.7755
   90bbb    H14 2631   8.145   7.110   2.646  0.2485  1.5140 -1.9776
   90bbb     C8 2632   8.201   6.721   2.162  0.3373 -0.2216  0.7199
   90bbb    H15 2633   8.208   6.791   2.077 -0.6459  0.0684  0.8624
   90bbb    H16 2634   8.126   6.649   2.126  0.6649 -0.3771  0.3411
   90bbb     C9 2635   7.716   6.708   2.471 -0.4022 -0.0021  0.2091
   90bbb    H17 2636   7.719   6.769   2.562 -1.8727  0.9351 -0.3401
   90bbb    H18 2637   7.816   6.670   2.446 -0.5016 -0.1599  0.0471
   90bbb     O1 2638   7.991   7.208   2.758 -0.2942 -0.2940  0.0365
   91bbb     N1 2639   7.583   6.428   3.603 -0.3369  0.0573  0.5563
   91bbb     C1 2640   7.623   6.345   3.482  0.4400 -0.4516  0.1584
   91bbb     H1 2641   7.694   6.265   3.507 -0.0851 -1.9217 -2.6198
   91bbb     H2 2642   7.660   6.414   3.405 -0.2321 -0.5294 -0.2388
   91bbb     C2 2643   7.569   6.344   3.723 -0.4548 -0.3289  0.0009
   91bbb     H3 2644   7.658   6.280   3.730 -0.3713 -0.2235 -0.0950
   91bbb     H4 2645   7.476   6.287   3.716 -0.1508 -0.9508  0.7807
   91bbb     C3 2646   7.487   6.537   3.576  0.1673 -0.0022  0.6914
   91bbb     H5 2647   7.465   6.600   3.663  0.9663  0.9096  0.2400
   91bbb     H6 2648   7.393   6.496   3.538  1.1299 -1.3208 -0.3837
   91bbb     C4 2649   7.532   6.636   3.471  0.2502 -0.6833 -0.1987
   91bbb     H7 2650   7.464   6.721   3.483  1.0274  0.1444 -1.4254
   91bbb     H8 2651   7.511   6.575   3.382 -1.4520  0.9408 -0.9493
   91bbb     C5 2652   7.502   6.272   3.420  0.2365  0.2354 -0.4917
   91bbb     H9 2653   7.426   6.346   3.390  1.6721  1.5853 -0.9048
   91bbb    H10 2654   7.459   6.200   3.491 -0.4891 -0.6587 -1.8092
   91bbb     C6 2655   7.560   6.423   3.859  0.0804 -0.1750 -0.4563
   91bbb    H11 2656   7.548   6.347   3.937  1.4169 -1.0431 -1.0686
   91bbb    H12 2657   7.471   6.483   3.836 -0.5657 -0.8437  0.2448
   91bbb     C7 2658   7.679   6.685   3.473 -0.0856 -0.0544 -0.4613
   91bbb    H13 2659   7.748   6.599   3.473 -0.8545 -0.6906 -1.3925
   91bbb    H14 2660   7.694   6.751   3.559  0.1292 -0.4686 -0.1745
   91bbb     C8 2661   7.675   6.528   3.907  0.5403 -0.0383  0.1745
   91bbb    H15 2662   7.692   6.602   3.828 -2.1804 -0.7301 -1.1804
   91bbb    H16 2663   7.767   6.470   3.922 -0.5121 -2.4230 -1.8817
   91bbb     C9 2664   7.534   6.192   3.290  1.1702 -0.7134 -0.2540
   91bbb    H17 2665   7.582   6.270   3.229  2.4271 -0.8630  0.4985
   91bbb    H18 2666   7.440   6.157   3.246 -1.1005  2.6136  1.5173
   91bbb     O1 2667   7.711   6.762   3.352 -0.7049 -0.3141 -0.0891
   92bbb     N1 2668   6.518   8.495   3.290  0.5632  0.3801 -0.1134
   92bbb     C1 2669   6.486   8.593   3.176 -0.5629 -0.1514 -0.1869
   92bbb     H1 2670   6.438   8.538   3.094  1.8877  0.5416 -2.2014
   92bbb     H2 2671   6.578   8.631   3.132 -1.5025  3.2718  0.5258
   92bbb     C2 2672   6.400   8.414   3.324  0.0948  0.4616  0.1087
   92bbb     H3 2673   6.332   8.483   3.376  0.2418  1.5757 -1.1417
   92bbb     H4 2674   6.433   8.345   3.403 -0.1982 -0.3997 -0.4988
   92bbb     C3 2675   6.580   8.557   3.410  0.2899  0.5192  0.8193
   92bbb     H5 2676   6.612   8.476   3.478  1.5095 -1.4230 -1.9049
   92bbb     H6 2677   6.502   8.622   3.452 -1.3196 -0.4916 -0.4891
   92bbb     C4 2678   6.713   8.636   3.382  0.4452 -0.0893 -0.9057
   92bbb     H7 2679   6.718   8.708   3.465 -0.3782 -0.3045 -0.6572
   92bbb     H8 2680   6.696   8.704   3.298 -0.1686  1.8040  0.6608
   92bbb     C5 2681   6.399   8.715   3.205 -0.0047  0.8979 -0.1890
   92bbb     H9 2682   6.445   8.771   3.287  1.1002  0.0358 -0.1934
   92bbb    H10 2683   6.302   8.678   3.239  0.6552 -1.1894 -0.4604
   92bbb     C6 2684   6.326   8.332   3.202  0.3434  0.3566 -0.3602
   92bbb    H11 2685   6.399   8.283   3.136  0.7111 -0.0872  0.3695
   92bbb    H12 2686   6.275   8.399   3.132 -0.8375 -1.8872 -1.7997
   92bbb     C7 2687   6.837   8.546   3.380 -0.4651  0.0546 -0.2625
   92bbb    H13 2688   6.925   8.608   3.360 -0.0655 -0.1388  0.8185
   92bbb    H14 2689   6.825   8.464   3.308  1.3845 -1.1297  0.6982
   92bbb     C8 2690   6.222   8.229   3.250 -0.4622  0.4030  1.1087
   92bbb    H15 2691   6.212   8.149   3.176 -2.0645  0.6950  0.9863
   92bbb    H16 2692   6.119   8.265   3.256 -0.2026  1.5036 -0.4513
   92bbb     C9 2693   6.389   8.804   3.076  0.1487  0.1339 -0.9578
   92bbb    H17 2694   6.490   8.805   3.033  0.6962 -0.5015  0.2521
   92bbb    H18 2695   6.330   8.893   3.103 -0.6110  0.3673 -3.1924
   92bbb     O1 2696   6.858   8.495   3.512 -0.3739  0.0662  0.2279
   93bbb     N1 2697   7.056   7.900   4.601  0.0115  0.0352 -0.3285
   93bbb     C1 2698   6.993   7.999   4.689  0.6688  0.2469 -0.3441
   93bbb     H1 2699   6.886   7.979   4.703  0.5996  1.2420  0.6485
   93bbb     H2 2700   6.986   8.097   4.640  0.1836  0.8650  0.9332
   93bbb     C2 2701   7.045   7.761   4.666 -0.5939 -0.1125  0.4690
   93bbb     H3 2702   7.114   7.744   4.749  1.5162 -1.4964 -1.4680
   93bbb     H4 2703   7.086   7.693   4.591 -2.4172  0.2371 -0.9468
   93bbb     C3 2704   7.002   7.895   4.468 -0.9837  0.2750  0.8920
   93bbb     H5 2705   6.893   7.893   4.469 -1.0619  2.5901  1.5427
   93bbb     H6 2706   7.043   7.812   4.408  2.5200  1.2248  1.7420
   93bbb     C4 2707   7.041   8.024   4.392  0.4465 -0.6629 -0.2199
   93bbb     H7 2708   7.149   8.034   4.377  0.0017  1.7467 -2.5935
   93bbb     H8 2709   7.001   8.114   4.442 -0.9949 -1.7431  0.6464
   93bbb     C5 2710   7.051   8.015   4.829 -0.5523 -0.1836  0.6174
   93bbb     H9 2711   7.160   8.012   4.840 -0.4646 -3.0537 -0.2291
   93bbb    H10 2712   7.030   7.925   4.889 -1.6541 -1.3848 -1.4547
   93bbb     C6 2713   6.907   7.711   4.719  0.2702 -0.0192 -0.7669
   93bbb    H11 2714   6.823   7.720   4.650 -1.1869  1.4965  1.1063
   93bbb    H12 2715   6.873   7.772   4.803  0.9637 -0.3396 -0.2362
   93bbb     C7 2716   6.981   8.023   4.248  0.2069  0.1926 -0.1302
   93bbb    H13 2717   6.875   7.997   4.257  0.5600 -2.1608 -1.9560
   93bbb    H14 2718   7.039   7.948   4.193 -0.4428  0.0471 -0.6268
   93bbb     C8 2719   6.914   7.568   4.773 -0.2864  0.3517 -0.0706
   93bbb    H15 2720   6.997   7.572   4.844  0.5454 -0.0642 -0.9862
   93bbb    H16 2721   6.935   7.501   4.689 -0.2432  1.3499 -0.8768
   93bbb     C9 2722   7.003   8.147   4.888  0.3769 -0.5794  0.4028
   93bbb    H17 2723   7.003   8.218   4.805 -2.9496 -1.8785 -0.8349
   93bbb    H18 2724   7.072   8.179   4.968  0.4720 -0.0938  0.1258
   93bbb     O1 2725   6.991   8.157   4.188 -0.1350 -0.0887 -0.3134
   94bbb     N1 2726   4.863   6.176   5.356 -0.3981  0.7002  0.0111
   94bbb     C1 2727   4.749   6.106   5.288 -0.2558 -0.3342 -0.7170
   94bbb     H1 2728   4.695   6.050   5.366 -3.0646  0.1236 -2.2161
   94bbb     H2 2729   4.793   6.032   5.221  1.4683 -0.6741  0.7218
   94bbb     C2 2730   4.951   6.089   5.439 -0.7298  0.3064 -0.0623
   94bbb     H3 2731   5.018   6.151   5.499 -0.3765  0.1920 -0.3315
   94bbb     H4 2732   5.021   6.032   5.377 -0.5224  0.3104  0.1660
   94bbb     C3 2733   4.946   6.268   5.273  0.0551  0.0524  0.2222
   94bbb     H5 2734   4.869   6.334   5.231  0.1705  0.9132  1.2983
   94bbb     H6 2735   4.995   6.207   5.197  1.0414 -0.2166  1.0512
   94bbb     C4 2736   5.049   6.357   5.344 -0.0479  0.1226 -0.2111
   94bbb     H7 2737   5.135   6.296   5.376 -0.2606  0.5196  1.1634
   94bbb     H8 2738   5.016   6.383   5.445  0.0392 -1.6133  0.2993
   94bbb     C5 2739   4.650   6.204   5.223  0.3796  0.0391  0.0662
   94bbb     H9 2740   4.697   6.229   5.127  0.1517 -2.2280 -0.6911
   94bbb    H10 2741   4.628   6.292   5.285 -1.9236 -1.3466  1.3657
   94bbb     C6 2742   4.881   5.996   5.535 -0.0696 -0.4787 -0.2351
   94bbb    H11 2743   4.948   5.942   5.604 -0.3418  0.2709  0.6425
   94bbb    H12 2744   4.844   5.906   5.484 -0.6548 -1.0964  1.1959
   94bbb     C7 2745   5.106   6.479   5.264  0.3449  0.0175  0.4313
   94bbb    H13 2746   5.176   6.447   5.186 -0.8012  1.3411 -1.2057
   94bbb    H14 2747   5.162   6.547   5.330 -0.1472  2.5114 -1.5781
   94bbb     C8 2748   4.769   6.060   5.627  0.0903 -0.2520 -0.5148
   94bbb    H15 2749   4.668   6.069   5.585 -1.5603 -0.8055  2.9994
   94bbb    H16 2750   4.793   6.160   5.664 -0.9405 -0.9629  2.3957
   94bbb     C9 2751   4.520   6.129   5.189 -0.3299 -0.6994 -0.1816
   94bbb    H17 2752   4.504   6.036   5.247 -0.9078 -0.3982  0.1555
   94bbb    H18 2753   4.522   6.102   5.083 -1.0029  1.0862 -0.6861
   94bbb     O1 2754   4.997   6.548   5.195 -0.4478  0.5538  0.4192
   95bbb     N1 2755   4.391   7.523   5.064 -0.7315 -0.0105 -0.1753
   95bbb     C1 2756   4.436   7.602   4.938 -0.0825 -0.3893  0.2550
   95bbb     H1 2757   4.373   7.582   4.851 -0.6281  3.8494 -0.5819
   95bbb     H2 2758   4.543   7.591   4.914  1.0812  4.1986  2.1054
   95bbb     C2 2759   4.488   7.551   5.178 -0.4455  0.3839  0.2465
   95bbb     H3 2760   4.464   7.507   5.275 -0.4696  0.0185  0.0741
   95bbb     H4 2761   4.483   7.657   5.209  2.4555 -0.5492  4.9360
   95bbb     C3 2762   4.377   7.386   5.016  0.0723  0.3600  0.0714
   95bbb     H5 2763   4.474   7.351   4.979 -0.0319  1.6993 -1.6351
   95bbb     H6 2764   4.300   7.380   4.938 -0.9455  0.7540  1.0242
   95bbb     C4 2765   4.337   7.291   5.133 -1.0570  0.9148 -0.2075
   95bbb     H7 2766   4.253   7.333   5.190 -0.4902  0.5722  0.8990
   95bbb     H8 2767   4.428   7.275   5.191 -0.0102 -0.8583 -2.1823
   95bbb     C5 2768   4.415   7.750   4.959  0.0055 -0.8274 -0.2491
   95bbb     H9 2769   4.491   7.795   5.024  1.8163  1.4755 -3.6546
   95bbb    H10 2770   4.323   7.755   5.019  1.1785  1.3987  1.5020
   95bbb     C6 2771   4.642   7.507   5.173  0.4916  0.3242 -0.3165
   95bbb    H11 2772   4.695   7.529   5.080 -0.9348 -1.2943 -1.5878
   95bbb    H12 2773   4.653   7.398   5.172  1.3070  0.3283  2.0133
   95bbb     C7 2774   4.292   7.145   5.095  0.3035  0.2328 -0.5760
   95bbb    H13 2775   4.236   7.145   5.002 -2.1910  0.2385  0.8398
   95bbb    H14 2776   4.225   7.097   5.168 -0.4656 -3.6602 -3.5342
   95bbb     C8 2777   4.724   7.551   5.292  0.2662  0.1097  0.1214
   95bbb    H15 2778   4.670   7.547   5.388  0.6418 -0.5563  0.3111
   95bbb    H16 2779   4.750   7.658   5.286 -2.9888  1.1151  1.6582
   95bbb     C9 2780   4.416   7.831   4.832  0.4727 -0.4211 -0.0229
   95bbb    H17 2781   4.416   7.938   4.856  1.3314 -0.5212  0.4472
   95bbb    H18 2782   4.319   7.810   4.785  0.3143  1.1859 -0.4687
   95bbb     O1 2783   4.411   7.064   5.096  0.1476 -0.4331  0.6689
   96bbb     N1 2784   5.765   5.242   5.182 -0.0832 -0.2545 -0.0981
   96bbb     C1 2785   5.727   5.142   5.283  0.0059 -0.6174  0.3389
   96bbb     H1 2786   5.736   5.197   5.377 -2.5914  0.2801  0.1488
   96bbb     H2 2787   5.795   5.057   5.297  0.1309 -0.2456  2.3097
   96bbb     C2 2788   5.794   5.180   5.050  0.1055 -0.6600 -0.0210
   96bbb     H3 2789   5.821   5.254   4.974 -1.4047 -0.4112 -0.3361
   96bbb     H4 2790   5.704   5.138   5.005 -1.3943  3.0806 -0.9407
   96bbb     C3 2791   5.675   5.361   5.161  0.1610  0.6757 -0.4547
   96bbb     H5 2792   5.631   5.375   5.260 -0.8032 -2.0799 -0.4195
   96bbb     H6 2793   5.597   5.335   5.088  1.0937  0.1602 -1.2851
   96bbb     C4 2794   5.748   5.497   5.110  0.2735  0.2675 -0.2500
   96bbb     H7 2795   5.798   5.490   5.012 -0.5215  3.2819 -1.0026
   96bbb     H8 2796   5.832   5.517   5.178 -0.4268  0.0043  0.7118
   96bbb     C5 2797   5.577   5.105   5.282 -0.7308 -0.2786  0.3499
   96bbb     H9 2798   5.548   5.097   5.176  0.2229 -0.0893  0.0620
   96bbb    H10 2799   5.521   5.193   5.317  0.2941  1.5848 -2.3459
   96bbb     C6 2800   5.900   5.069   5.042 -0.3747 -0.3488  0.4908
   96bbb    H11 2801   5.887   4.980   5.104  0.8993 -1.7154 -1.1321
   96bbb    H12 2802   5.997   5.111   5.074  1.2602 -2.7565 -0.9525
   96bbb     C7 2803   5.646   5.617   5.109 -0.5435  0.1294 -0.3992
   96bbb    H13 2804   5.705   5.709   5.098  1.6643 -1.2925 -0.8205
   96bbb    H14 2805   5.595   5.630   5.206  0.8599  1.0535  0.2467
   96bbb     C8 2806   5.923   5.021   4.895  0.1900 -0.4416 -0.3465
   96bbb    H15 2807   5.975   5.105   4.847  1.8144 -1.5506 -0.6192
   96bbb    H16 2808   5.822   4.998   4.858 -1.7093  2.0536  2.7238
   96bbb     C9 2809   5.546   4.975   5.356  0.0670 -0.3289  0.3613
   96bbb    H17 2810   5.576   4.901   5.280  0.5557  1.0687 -0.8701
   96bbb    H18 2811   5.440   4.957   5.375  0.0004 -1.0382 -0.6187
   96bbb     O1 2812   5.540   5.601   5.012  0.2230  0.3699 -0.7089
   97bbb     N1 2813   6.439   6.153   4.772 -0.1684 -0.1680  0.3389
   97bbb     C1 2814   6.409   6.274   4.845 -0.5760  0.1498  1.2646
   97bbb     H1 2815   6.322   6.319   4.797 -0.3888  0.8608  1.5815
   97bbb     H2 2816   6.495   6.342   4.839  0.6057 -1.3753 -0.2100
   97bbb     C2 2817   6.573   6.097   4.799  0.1816  0.3657  0.1228
   97bbb     H3 2818   6.552   6.014   4.869 -0.7930 -0.2722 -0.9075
   97bbb     H4 2819   6.640   6.164   4.854  1.1888 -1.1033  0.7729
   97bbb     C3 2820   6.335   6.044   4.782 -0.1793 -0.1077 -0.4064
   97bbb     H5 2821   6.342   5.993   4.879 -0.6875 -1.3599 -0.9984
   97bbb     H6 2822   6.364   5.969   4.707 -0.5485 -1.7858  1.0654
   97bbb     C4 2823   6.189   6.082   4.744 -0.3356 -0.6704 -0.1365
   97bbb     H7 2824   6.192   6.141   4.651  1.3200  1.6333  1.2692
   97bbb     H8 2825   6.144   6.156   4.812  0.6075  0.7379 -0.9908
   97bbb     C5 2826   6.377   6.254   4.991 -0.1521  0.5449  0.3521
   97bbb     H9 2827   6.469   6.217   5.039 -1.0260  0.4653  2.0347
   97bbb    H10 2828   6.302   6.176   5.012  2.4425 -2.6543 -1.3266
   97bbb     C6 2829   6.648   6.045   4.670  0.6985 -0.6870  0.4797
   97bbb    H11 2830   6.580   5.979   4.614  0.1531  0.9906 -0.9408
   97bbb    H12 2831   6.736   5.980   4.685  3.4540  1.8912 -2.7405
   97bbb     C7 2832   6.102   5.954   4.730  0.2213  0.0104 -1.0999
   97bbb    H13 2833   6.113   5.906   4.828  3.7094 -0.4692 -1.5996
   97bbb    H14 2834   6.137   5.888   4.650 -2.3281 -1.8138 -0.8271
   97bbb     C8 2835   6.688   6.166   4.579 -0.0151  0.2882 -0.7610
   97bbb    H15 2836   6.779   6.207   4.624 -0.9066  1.2395  0.2593
   97bbb    H16 2837   6.616   6.249   4.575  1.2379  1.3615 -2.1132
   97bbb     C9 2838   6.348   6.390   5.062 -0.1559 -0.2247  0.1568
   97bbb    H17 2839   6.331   6.385   5.170  0.9334 -2.2555  0.2644
   97bbb    H18 2840   6.246   6.409   5.026  0.2314 -0.9352 -1.4177
   97bbb     O1 2841   5.963   5.985   4.711 -0.1596 -0.4838  0.3473
   98bbb     N1 2842   4.784   3.665   4.098 -0.1813 -0.5091 -0.3044
   98bbb     C1 2843   4.805   3.718   3.961  0.0979 -0.2363 -0.1083
   98bbb     H1 2844   4.903   3.682   3.928  0.2870 -0.6811  0.9008
   98bbb     H2 2845   4.799   3.828   3.954  1.3706 -0.1886 -0.6833
   98bbb     C2 2846   4.902   3.709   4.184 -0.3467  0.0106  0.4528
   98bbb     H3 2847   4.993   3.697   4.125  0.9296  0.7029  2.2014
   98bbb     H4 2848   4.908   3.660   4.282 -1.2175  3.2871  2.2974
   98bbb     C3 2849   4.645   3.679   4.154  0.6682  0.3507 -0.6945
   98bbb     H5 2850   4.574   3.624   4.091 -1.0477  1.1380  0.4845
   98bbb     H6 2851   4.606   3.781   4.158 -2.3233 -0.7415  1.1070
   98bbb     C4 2852   4.639   3.596   4.286  0.4212 -0.3923  0.4502
   98bbb     H7 2853   4.701   3.635   4.368 -2.9109 -0.2467  3.1279
   98bbb     H8 2854   4.665   3.490   4.275 -0.6134 -0.4264 -2.2457
   98bbb     C5 2855   4.693   3.674   3.866 -0.4133 -0.0579  0.5615
   98bbb     H9 2856   4.598   3.724   3.885 -0.7093 -0.4071  0.0469
   98bbb    H10 2857   4.671   3.567   3.871  1.0212 -0.4062 -0.0675
   98bbb     C6 2858   4.892   3.860   4.223 -0.0457 -0.2680 -0.0876
   98bbb    H11 2859   4.793   3.882   4.266 -0.8974  0.2085 -2.1359
   98bbb    H12 2860   4.903   3.920   4.131  2.9135 -0.5806 -0.0340
   98bbb     C7 2861   4.492   3.610   4.349 -0.0313  0.7354  0.3886
   98bbb    H13 2862   4.490   3.542   4.435  0.2858 -1.5726 -1.3198
   98bbb    H14 2863   4.416   3.573   4.280 -1.2592  0.7540  1.6814
   98bbb     C8 2864   5.014   3.898   4.311 -0.5051  0.3736 -0.9552
   98bbb    H15 2865   5.037   4.005   4.325  1.6456 -0.1350 -0.2693
   98bbb    H16 2866   5.109   3.868   4.266  0.5943 -0.0723  1.4751
   98bbb     C9 2867   4.742   3.713   3.716 -1.0041  0.1459  0.3523
   98bbb    H17 2868   4.851   3.701   3.707 -1.0007  0.4904 -0.0422
   98bbb    H18 2869   4.738   3.821   3.698  0.6054  0.1347 -0.2993
   98bbb     O1 2870   4.453   3.750   4.375 -0.1667  0.4092  0.0905
   99bbb     N1 2871   3.629   4.475   4.601 -0.2617  0.2559 -0.5238
   99bbb     C1 2872   3.574   4.442   4.737 -0.4880 -0.2858 -0.4981
   99bbb     H1 2873   3.657   4.455   4.807 -0.5919  2.1039 -0.7448
   99bbb     H2 2874   3.567   4.332   4.737  0.9869 -0.4077 -0.8671
   99bbb     C2 2875   3.632   4.620   4.567  0.4408 -0.1161 -0.2630
   99bbb     H3 2876   3.529   4.655   4.550  0.1500 -0.8900 -0.1212
   99bbb     H4 2877   3.688   4.628   4.472 -0.0227  1.0849 -0.4570
   99bbb     C3 2878   3.765   4.415   4.576  0.3498  0.3926 -0.0128
   99bbb     H5 2879   3.831   4.425   4.663  2.6592  0.5958 -1.6877
   99bbb     H6 2880   3.822   4.471   4.500  1.0047 -0.3510 -0.0751
   99bbb     C4 2881   3.747   4.268   4.553 -0.5674 -0.1843  1.0212
   99bbb     H7 2882   3.656   4.254   4.493 -0.9740  2.3995  0.9616
   99bbb     H8 2883   3.726   4.223   4.651 -0.9513 -0.0784  0.9884
   99bbb     C5 2884   3.444   4.497   4.786 -1.0173 -0.2074  1.1344
   99bbb     H9 2885   3.380   4.480   4.698  0.8305 -1.0930 -0.1183
   99bbb    H10 2886   3.452   4.606   4.793 -0.7167 -0.1088 -0.3836
   99bbb     C6 2887   3.690   4.724   4.670  0.3528  0.2757  0.2932
   99bbb    H11 2888   3.619   4.737   4.753  0.6507 -1.6497  0.8947
   99bbb    H12 2889   3.695   4.820   4.616  2.2224 -0.6599 -1.3233
   99bbb     C7 2890   3.869   4.205   4.486 -0.0136  0.0831 -0.3090
   99bbb    H13 2891   3.890   4.254   4.391 -0.5701 -2.2284 -1.7044
   99bbb    H14 2892   3.848   4.098   4.474 -0.5670 -0.1105  1.8737
   99bbb     C8 2893   3.833   4.686   4.718  1.0490 -1.1428  0.6266
   99bbb    H15 2894   3.886   4.655   4.627 -0.7037  1.4160 -1.3814
   99bbb    H16 2895   3.829   4.598   4.783 -1.2598 -0.4747  1.4745
   99bbb     C9 2896   3.388   4.439   4.919 -0.4013 -0.5917 -0.0440
   99bbb    H17 2897   3.296   4.490   4.952  0.2621  1.6123 -1.3722
   99bbb    H18 2898   3.473   4.468   4.982 -1.1568  0.7903  0.3891
   99bbb     O1 2899   3.974   4.225   4.583 -0.0191  0.7218 -0.6081
  100bbb     N1 2900   5.956   3.942   4.345 -0.5257  0.6197 -0.5649
  100bbb     C1 2901   6.002   3.811   4.296  0.0846  0.2417  0.5276
  100bbb     H1 2902   5.983   3.728   4.365  1.2369 -0.1965  0.3517
  100bbb     H2 2903   6.110   3.802   4.279 -0.2338 -0.9887 -1.1504
  100bbb     C2 2904   6.063   4.018   4.408  0.5423 -0.1723  0.5821
  100bbb     H3 2905   6.038   4.124   4.417 -1.3506 -0.7322  3.0364
  100bbb     H4 2906   6.154   4.007   4.348  0.7432  0.2090  0.8167
  100bbb     C3 2907   5.821   3.957   4.394  0.1215  0.5716  0.0159
  100bbb     H5 2908   5.824   3.924   4.499  1.8704 -1.3969 -0.5694
  100bbb     H6 2909   5.746   3.887   4.354  0.5074 -0.4761  1.0603
  100bbb     C4 2910   5.767   4.095   4.382 -0.8324  0.7434 -0.6304
  100bbb     H7 2911   5.718   4.098   4.284 -0.9343  1.7261 -0.5572
  100bbb     H8 2912   5.840   4.175   4.399 -1.2462  0.3927  3.9765
  100bbb     C5 2913   5.934   3.761   4.165 -0.3342 -0.6534  0.1577
  100bbb     H9 2914   5.981   3.810   4.079 -0.9580  1.5060  0.9610
  100bbb    H10 2915   5.829   3.794   4.166 -0.2757 -0.4642  1.1703
  100bbb     C6 2916   6.091   3.962   4.551 -0.4920 -0.3632  0.0818
  100bbb    H11 2917   6.119   3.856   4.544 -3.5321 -1.2287 -1.0066
  100bbb    H12 2918   5.998   3.962   4.611 -0.7562 -0.0102 -0.3217
  100bbb     C7 2919   5.654   4.131   4.477 -1.1975 -0.1894  0.4423
  100bbb    H13 2920   5.616   4.226   4.437 -0.1396 -0.0367 -0.2462
  100bbb    H14 2921   5.696   4.134   4.578  0.7650  1.0019 -0.3463
  100bbb     C8 2922   6.200   4.041   4.627  1.0221  0.2821 -0.2328
  100bbb    H15 2923   6.163   4.083   4.721  0.2165 -0.1396 -0.3552
  100bbb    H16 2924   6.224   4.125   4.561 -1.7085  0.3095 -1.3080
  100bbb     C9 2925   5.934   3.612   4.145  0.7095 -0.0982  0.0904
  100bbb    H17 2926   5.845   3.573   4.194  0.6938  0.7653  0.7711
  100bbb    H18 2927   6.024   3.578   4.198  1.8551 -0.3513 -1.9006
  100bbb     O1 2928   5.553   4.030   4.464 -0.6134  0.2603  0.3362
  101bbb     N1 2929   5.704   3.626   5.515 -0.4630 -1.0244  0.2498
  101bbb     C1 2930   5.624   3.582   5.628  0.4277  0.3416  0.2746
  101bbb     H1 2931   5.524   3.627   5.619  0.5347  0.6168  0.4643
  101bbb     H2 2932   5.678   3.610   5.719  0.7375  0.5013  0.0447
  101bbb     C2 2933   5.763   3.764   5.532  0.7105  0.7665  0.6455
  101bbb     H3 2934   5.826   3.767   5.622  1.8910 -2.3048  0.0405
  101bbb     H4 2935   5.689   3.845   5.527 -2.7114 -2.1705 -1.4336
  101bbb     C3 2936   5.651   3.584   5.380 -0.0808 -0.0637 -0.6670
  101bbb     H5 2937   5.619   3.479   5.374  0.9522 -0.3587 -1.1807
  101bbb     H6 2938   5.736   3.594   5.312 -1.5781  0.9183 -2.4548
  101bbb     C4 2939   5.536   3.669   5.329  0.2786 -0.0189 -0.1756
  101bbb     H7 2940   5.565   3.773   5.314 -0.8328  0.3716  0.3012
  101bbb     H8 2941   5.451   3.657   5.398 -1.1934  1.6240 -1.6087
  101bbb     C5 2942   5.604   3.426   5.633  0.2349 -0.3613  0.4854
  101bbb     H9 2943   5.682   3.377   5.692  1.7210  0.9468 -0.3395
  101bbb    H10 2944   5.600   3.378   5.534  1.5218 -2.6454  1.4689
  101bbb     C6 2945   5.862   3.807   5.421 -0.5660  0.4075  0.1607
  101bbb    H11 2946   5.802   3.840   5.335 -0.2108  0.9783  0.1220
  101bbb    H12 2947   5.934   3.733   5.385  0.9776  0.9766  1.9150
  101bbb     C7 2948   5.492   3.618   5.192  0.2619 -0.1533 -0.3631
  101bbb    H13 2949   5.468   3.512   5.207 -0.6295  0.1811  0.7558
  101bbb    H14 2950   5.570   3.610   5.116  0.5264 -3.3537  0.0978
  101bbb     C8 2951   5.951   3.928   5.467 -0.1087 -0.0778  0.3226
  101bbb    H15 2952   6.039   3.933   5.402 -0.5901 -2.1745 -0.5659
  101bbb    H16 2953   5.986   3.918   5.570  1.7091 -2.7612 -0.4453
  101bbb     C9 2954   5.470   3.391   5.702  1.0684 -0.5517 -0.5813
  101bbb    H17 2955   5.465   3.437   5.801  0.8236  0.3843 -1.0197
  101bbb    H18 2956   5.463   3.282   5.712  1.9944 -0.5320  0.6254
  101bbb     O1 2957   5.386   3.696   5.139 -0.1108  1.0141  0.0616
  102bbb     N1 2958   4.788   6.446   1.781  0.6048  0.1958 -0.3721
  102bbb     C1 2959   4.727   6.332   1.707 -0.0679  0.0454 -0.1633
  102bbb     H1 2960   4.806   6.263   1.673 -0.6150 -0.2336 -0.8774
  102bbb     H2 2961   4.685   6.377   1.617  0.8893 -1.3229 -1.3448
  102bbb     C2 2962   4.688   6.547   1.829  0.3007  0.0669  0.5307
  102bbb     H3 2963   4.739   6.632   1.878 -1.5265  0.6067  1.5821
  102bbb     H4 2964   4.627   6.492   1.901 -0.7110 -0.9677 -1.0462
  102bbb     C3 2965   4.871   6.407   1.894 -0.4323 -0.6715  0.6398
  102bbb     H5 2966   4.816   6.380   1.985 -1.2362  0.3614  0.4843
  102bbb     H6 2967   4.927   6.494   1.931  1.1457 -1.5370  0.3576
  102bbb     C4 2968   4.972   6.296   1.855  0.0044 -0.2282 -0.3047
  102bbb     H7 2969   5.021   6.321   1.760  1.3907 -1.2814  0.1070
  102bbb     H8 2970   4.923   6.199   1.840  1.8724 -1.2949  0.1413
  102bbb     C5 2971   4.613   6.252   1.782 -0.1767 -0.3368  0.6360
  102bbb     H9 2972   4.549   6.320   1.841  0.4214 -0.0246  0.9397
  102bbb    H10 2973   4.647   6.179   1.856 -2.6031 -1.0286  1.1610
  102bbb     C6 2974   4.604   6.618   1.717 -0.4647 -0.1277  0.4226
  102bbb    H11 2975   4.548   6.694   1.772  0.4597  0.3034  0.7857
  102bbb    H12 2976   4.538   6.542   1.674  0.6165 -1.5795  1.2176
  102bbb     C7 2977   5.080   6.275   1.963  0.0089 -0.6116 -0.2264
  102bbb    H13 2978   5.124   6.374   1.976 -2.7391  0.7207 -0.2185
  102bbb    H14 2979   5.150   6.197   1.931  0.9946 -0.4960  1.5266
  102bbb     C8 2980   4.690   6.695   1.619  0.3388 -0.5371  0.0082
  102bbb    H15 2981   4.737   6.626   1.548  0.7504 -1.0280  0.7370
  102bbb    H16 2982   4.763   6.753   1.677  1.0428  1.4978 -2.7515
  102bbb     C9 2983   4.516   6.184   1.683  0.6287  0.1114 -0.4607
  102bbb    H17 2984   4.494   6.251   1.599  1.1220  0.0388 -0.6491
  102bbb    H18 2985   4.422   6.157   1.733  0.1008  1.5208 -0.6583
  102bbb     O1 2986   5.021   6.234   2.083  0.1960 -0.2574 -0.0446
  103bbb     N1 2987   5.832   6.763   2.215 -1.1959  0.6005 -0.1306
  103bbb     C1 2988   5.819   6.688   2.087  0.1061 -0.1122 -0.4861
  103bbb     H1 2989   5.890   6.731   2.016  0.4067  1.9958  1.0079
  103bbb     H2 2990   5.719   6.706   2.046 -1.1699 -3.2844  0.8487
  103bbb     C2 2991   5.855   6.903   2.188  0.4712 -0.5553  0.0750
  103bbb     H3 2992   5.850   6.960   2.282  0.6475  2.2339 -1.4898
  103bbb     H4 2993   5.777   6.944   2.122 -1.5284 -0.0251  2.5834
  103bbb     C3 2994   5.710   6.734   2.294 -0.9594 -0.4202 -0.3820
  103bbb     H5 2995   5.712   6.625   2.309  1.3597 -0.2304  1.2767
  103bbb     H6 2996   5.624   6.770   2.237 -1.0933 -0.3979 -0.1662
  103bbb     C4 2997   5.698   6.806   2.429  0.3227  0.0251  0.2547
  103bbb     H7 2998   5.678   6.913   2.415 -1.3353 -0.3654 -0.7242
  103bbb     H8 2999   5.789   6.795   2.489  1.1879  0.6509 -0.9159
  103bbb     C5 3000   5.842   6.533   2.095  0.3354  0.3878 -0.6866
  103bbb     H9 3001   5.750   6.486   2.133  0.5008  0.6683  0.0759
  103bbb    H10 3002   5.925   6.510   2.162 -1.7965 -0.8851  1.7120
  103bbb     C6 3003   5.989   6.940   2.129 -0.7917 -0.0275 -0.2108
  103bbb    H11 3004   6.005   7.048   2.137  0.8901 -0.1744 -0.9469
  103bbb    H12 3005   6.003   6.913   2.023 -1.0916  0.6763 -0.4295
  103bbb     C7 3006   5.584   6.750   2.514  0.6725  0.2435 -0.0511
  103bbb    H13 3007   5.595   6.774   2.621 -0.3478 -1.2331  0.4218
  103bbb    H14 3008   5.586   6.642   2.495  3.1142  0.6223 -2.5347
  103bbb     C8 3009   6.103   6.872   2.202 -0.1782 -0.1734 -0.3605
  103bbb    H15 3010   6.111   6.766   2.173  0.9803 -0.2294  0.1182
  103bbb    H16 3011   6.080   6.870   2.309 -1.2809 -1.1005 -0.5898
  103bbb     C9 3012   5.868   6.472   1.955 -0.5249 -0.3236  0.1937
  103bbb    H17 3013   5.941   6.538   1.906 -0.4751 -0.2908  0.3118
  103bbb    H18 3014   5.782   6.485   1.888 -0.0502 -2.7252 -0.9985
  103bbb     O1 3015   5.459   6.807   2.476  0.1269 -0.0788 -0.2269
  104bbb     N1 3016   4.244   7.071   2.451  0.4557  0.0473  0.9314
  104bbb     C1 3017   4.216   7.151   2.327  0.3228 -0.0714  0.2375
  104bbb     H1 3018   4.302   7.186   2.269  0.7422 -2.8759 -1.0033
  104bbb     H2 3019   4.149   7.236   2.348 -1.0983 -0.9003 -0.7355
  104bbb     C2 3020   4.299   7.165   2.558  0.7038 -0.4656 -0.0240
  104bbb     H3 3021   4.393   7.206   2.519  1.4419 -3.5442 -1.8552
  104bbb     H4 3022   4.315   7.102   2.646 -1.3362 -1.2991 -0.1864
  104bbb     C3 3023   4.335   6.956   2.435 -0.4136  0.1908 -0.4781
  104bbb     H5 3024   4.274   6.878   2.388 -1.8664  1.1014 -0.1522
  104bbb     H6 3025   4.369   6.909   2.528 -2.4185 -1.4321 -0.4919
  104bbb     C4 3026   4.450   6.983   2.336 -0.5825 -0.5677  0.1772
  104bbb     H7 3027   4.491   7.084   2.351  1.1006 -0.4523 -4.0518
  104bbb     H8 3028   4.414   6.996   2.234  1.1650  2.3366 -0.1975
  104bbb     C5 3029   4.142   7.083   2.209  1.3126  0.3483  0.5254
  104bbb     H9 3030   4.195   6.991   2.182  2.4951  1.0265  0.4682
  104bbb    H10 3031   4.143   7.158   2.129  0.0076  0.0578  0.2162
  104bbb     C6 3032   4.200   7.283   2.601 -0.0844 -0.3851  0.7462
  104bbb    H11 3033   4.205   7.356   2.520 -2.4611 -0.9499  0.0048
  104bbb    H12 3034   4.240   7.329   2.692 -0.6920  0.8724  0.3995
  104bbb     C7 3035   4.570   6.884   2.354  0.1344  0.3973  0.4954
  104bbb    H13 3036   4.655   6.915   2.293  0.9528 -2.1399  0.2229
  104bbb    H14 3037   4.531   6.785   2.325  0.1621 -0.2518  2.4619
  104bbb     C8 3038   4.057   7.237   2.636 -0.0760 -0.5764 -0.1482
  104bbb    H15 3039   4.057   7.148   2.701  0.4892 -0.8519 -0.5212
  104bbb    H16 3040   4.014   7.210   2.539 -1.2204 -1.1509  0.4952
  104bbb     C9 3041   3.994   7.041   2.240 -0.6646 -0.2352 -0.2669
  104bbb    H17 3042   4.008   6.977   2.328  1.6103  0.4667 -0.0500
  104bbb    H18 3043   3.945   6.983   2.161 -0.8611  0.8146 -0.9418
  104bbb     O1 3044   4.615   6.872   2.490  0.6029  0.0237 -0.0291
  105bbb     N1 3045   5.544   7.345   2.664  0.2980 -0.3704  0.1999
  105bbb     C1 3046   5.637   7.442   2.602 -0.0705  0.4155 -0.0770
  105bbb     H1 3047   5.731   7.394   2.572 -0.3643  0.4411 -1.0572
  105bbb     H2 3048   5.666   7.515   2.679  0.8748 -0.5729  0.5487
  105bbb     C2 3049   5.605   7.286   2.786 -0.4500  0.8119  0.5304
  105bbb     H3 3050   5.631   7.354   2.867 -0.4399  1.3956  0.0429
  105bbb     H4 3051   5.702   7.251   2.749 -0.3008  0.9770  0.7645
  105bbb     C3 3052   5.405   7.398   2.686  0.4651 -0.1768  0.2987
  105bbb     H5 3053   5.333   7.319   2.710 -1.0957  0.4105 -2.0897
  105bbb     H6 3054   5.365   7.425   2.587  0.7891 -1.2626 -0.1375
  105bbb     C4 3055   5.390   7.516   2.786 -0.0164 -0.0986  0.1215
  105bbb     H7 3056   5.440   7.607   2.753  1.2966 -0.5012  0.9103
  105bbb     H8 3057   5.444   7.488   2.877  2.0313  2.4751 -0.2113
  105bbb     C5 3058   5.587   7.519   2.473  0.3188 -0.3217  0.5653
  105bbb     H9 3059   5.485   7.558   2.489  1.3834  2.5140  1.1084
  105bbb    H10 3060   5.587   7.448   2.390  0.9175  0.4206 -0.0865
  105bbb     C6 3061   5.525   7.164   2.839  0.0810  0.1360  0.1516
  105bbb    H11 3062   5.520   7.094   2.755 -0.3954  1.2470 -0.7878
  105bbb    H12 3063   5.422   7.196   2.862  0.0886  0.0228  0.3414
  105bbb     C7 3064   5.238   7.545   2.807 -0.6705 -0.5027  0.5140
  105bbb    H13 3065   5.191   7.531   2.709  0.4642 -0.3048 -0.0798
  105bbb    H14 3066   5.226   7.651   2.833  0.4223 -0.1092 -0.4813
  105bbb     C8 3067   5.595   7.100   2.958  0.1782 -0.5822 -0.1299
  105bbb    H15 3068   5.696   7.070   2.927  0.2292  0.5189 -1.1183
  105bbb    H16 3069   5.543   7.008   2.985  1.4547 -1.0034  1.0239
  105bbb     C9 3070   5.677   7.631   2.422 -0.8568  0.4240 -0.0677
  105bbb    H17 3071   5.658   7.661   2.318  1.9150  0.5036 -0.6191
  105bbb    H18 3072   5.779   7.591   2.424 -1.4953 -1.3051 -0.4748
  105bbb     O1 3073   5.188   7.460   2.904  0.8204  0.3796  0.2375
  106bbb     N1 3074   3.903   3.524   2.028 -0.1739  0.1812  0.5053
  106bbb     C1 3075   4.026   3.600   2.027 -0.3908  0.0409  0.3346
  106bbb     H1 3076   4.072   3.586   2.125  0.5939 -0.5503 -0.2005
  106bbb     H2 3077   4.008   3.708   2.018 -0.0122  0.0620 -0.2497
  106bbb     C2 3078   3.914   3.373   2.034 -0.5032  0.6269  0.4280
  106bbb     H3 3079   3.956   3.339   2.129 -2.1087 -1.4258  0.4808
  106bbb     H4 3080   3.989   3.342   1.960 -0.5666  1.5692 -0.0454
  106bbb     C3 3081   3.804   3.591   2.112  0.1488  0.5067  0.0523
  106bbb     H5 3082   3.698   3.570   2.093 -0.0051 -0.1520  1.4723
  106bbb     H6 3083   3.807   3.700   2.098  0.0026  0.6581  1.1434
  106bbb     C4 3084   3.820   3.565   2.262 -0.2208 -0.1023  0.5015
  106bbb     H7 3085   3.924   3.585   2.290  0.2461  1.1380 -1.8790
  106bbb     H8 3086   3.788   3.464   2.293  0.4499 -0.3108  0.5333
  106bbb     C5 3087   4.130   3.555   1.921 -0.2269  0.3667 -0.1808
  106bbb     H9 3088   4.081   3.541   1.824  0.6713 -1.5480 -0.3995
  106bbb    H10 3089   4.171   3.455   1.940 -0.7066 -0.5383 -3.3535
  106bbb     C6 3090   3.781   3.302   1.998 -0.5615 -0.3082 -0.1664
  106bbb    H11 3091   3.768   3.288   1.890 -0.3896  0.8332 -0.3440
  106bbb    H12 3092   3.697   3.358   2.039  0.4910  0.4580  1.0280
  106bbb     C7 3093   3.735   3.671   2.340  0.9797 -0.0167 -0.4335
  106bbb    H13 3094   3.704   3.636   2.439 -0.9399  1.2426 -0.5319
  106bbb    H14 3095   3.644   3.699   2.286 -0.9063 -1.1305  1.9791
  106bbb     C8 3096   3.781   3.162   2.057 -0.2308  0.0948 -0.4230
  106bbb    H15 3097   3.846   3.146   2.144  1.3029  1.5611 -1.2218
  106bbb    H16 3098   3.824   3.090   1.986  1.7144  0.7256  0.0484
  106bbb     C9 3099   4.252   3.647   1.909 -0.4898 -0.6549  0.7160
  106bbb    H17 3100   4.226   3.754   1.915  0.0822 -0.5544  1.5118
  106bbb    H18 3101   4.295   3.634   1.809 -0.8925 -0.6291  0.5344
  106bbb     O1 3102   3.807   3.797   2.353  0.5859  0.0350  0.5637
  107bbb     N1 3103   4.064   4.634   1.720 -0.0830  0.2158 -0.5007
  107bbb     C1 3104   4.033   4.775   1.691  0.7014 -0.1717 -0.2383
  107bbb     H1 3105   3.947   4.798   1.754  1.7282 -0.1385  1.1945
  107bbb     H2 3106   4.015   4.775   1.583  0.4023 -2.8892 -0.2719
  107bbb     C2 3107   3.947   4.557   1.685  0.1998  0.1889  0.1722
  107bbb     H3 3108   3.944   4.570   1.576  1.2716 -0.2479  0.0757
  107bbb     H4 3109   3.865   4.614   1.730  2.1255  3.3902 -0.0538
  107bbb     C3 3110   4.135   4.606   1.854  0.5247 -1.0165  0.7518
  107bbb     H5 3111   4.232   4.655   1.862  0.6575 -1.3547  1.2392
  107bbb     H6 3112   4.159   4.499   1.865 -0.9966 -1.2582  2.1126
  107bbb     C4 3113   4.055   4.651   1.979 -0.0695 -0.2013 -0.2335
  107bbb     H7 3114   3.952   4.614   1.989  0.1384 -0.7283 -0.0311
  107bbb     H8 3115   4.047   4.760   1.968 -0.0510 -0.1845 -0.0783
  107bbb     C5 3116   4.137   4.888   1.715  0.4303 -0.4617 -0.2329
  107bbb     H9 3117   4.142   4.902   1.824 -0.9265  1.0326 -0.3229
  107bbb    H10 3118   4.104   4.984   1.674  1.7575 -0.2125 -0.7488
  107bbb     C6 3119   3.935   4.417   1.732 -0.3151 -0.6763  0.1905
  107bbb    H11 3120   3.923   4.404   1.840  0.2710 -0.2163  0.3173
  107bbb    H12 3121   4.025   4.356   1.716 -1.5306 -2.4461 -0.1952
  107bbb     C7 3122   4.129   4.621   2.109  0.1910  0.2309 -0.4108
  107bbb    H13 3123   4.073   4.660   2.194  0.3688 -1.5308  0.5625
  107bbb    H14 3124   4.226   4.671   2.101 -0.7486  2.6370  1.9533
  107bbb     C8 3125   3.816   4.342   1.675  0.7733  0.6889 -0.1005
  107bbb    H15 3126   3.814   4.238   1.707  1.9679  0.2452 -1.3530
  107bbb    H16 3127   3.822   4.351   1.565  0.8545  0.0084 -0.1514
  107bbb     C9 3128   4.279   4.871   1.653  0.2089 -0.1081 -0.0232
  107bbb    H17 3129   4.276   4.841   1.547  1.8576  0.7326 -0.3370
  107bbb    H18 3130   4.331   4.789   1.704 -2.2772 -0.9338  1.3401
  107bbb     O1 3131   4.142   4.479   2.120  0.2625 -0.2600 -0.3653
  108bbb     N1 3132   3.450   5.544   3.678 -0.3215 -0.6029 -0.4005
  108bbb     C1 3133   3.427   5.647   3.782  0.1933 -0.5767  0.1939
  108bbb     H1 3134   3.498   5.730   3.765  0.0265 -0.8753 -2.3629
  108bbb     H2 3135   3.441   5.611   3.884  2.6753 -1.1708 -0.2946
  108bbb     C2 3136   3.408   5.579   3.541  0.3770  0.9616 -0.0893
  108bbb     H3 3137   3.299   5.590   3.543  0.2734 -0.0306  0.5433
  108bbb     H4 3138   3.410   5.494   3.471 -0.4622  0.7279  0.1597
  108bbb     C3 3139   3.595   5.495   3.684 -0.2910 -0.2699 -0.6106
  108bbb     H5 3140   3.623   5.462   3.785  2.4196  2.2834 -0.3971
  108bbb     H6 3141   3.662   5.576   3.651 -1.5756  1.2915  0.4719
  108bbb     C4 3142   3.617   5.371   3.598  0.4535  0.1206  0.0842
  108bbb     H7 3143   3.520   5.351   3.551  0.1349  3.8716 -1.2401
  108bbb     H8 3144   3.642   5.289   3.666 -0.6683 -0.0099  0.3617
  108bbb     C5 3145   3.282   5.701   3.768  0.4394 -0.3049  0.3069
  108bbb     H9 3146   3.279   5.747   3.668 -0.2858  1.5894  1.1471
  108bbb    H10 3147   3.270   5.784   3.839 -1.9476  0.5938 -1.0313
  108bbb     C6 3148   3.478   5.697   3.464  0.6641  0.3895  0.1313
  108bbb    H11 3149   3.578   5.670   3.428  0.6118 -1.7216  1.4328
  108bbb    H12 3150   3.490   5.785   3.529 -0.5936  1.9287 -1.6229
  108bbb     C7 3151   3.727   5.382   3.482 -0.2161  0.3427 -0.5480
  108bbb    H13 3152   3.822   5.397   3.535 -0.2648  0.4505 -0.4918
  108bbb    H14 3153   3.711   5.467   3.414  0.1822  2.2306  1.5692
  108bbb     C8 3154   3.394   5.735   3.336 -0.1036 -0.0417 -0.1502
  108bbb    H15 3155   3.395   5.646   3.271  2.0194 -0.2043  0.0261
  108bbb    H16 3156   3.451   5.810   3.280 -3.4047  0.5285 -3.1051
  108bbb     C9 3157   3.166   5.608   3.795  0.2764 -0.0028  0.3740
  108bbb    H17 3158   3.180   5.559   3.891  0.5967  0.5872  0.6339
  108bbb    H18 3159   3.172   5.534   3.714 -0.9273 -0.9071  1.0842
  108bbb     O1 3160   3.730   5.260   3.411 -0.0803 -0.7761 -0.0406
  109bbb     N1 3161   2.968   5.362   3.428 -0.1782  0.4585  0.1137
  109bbb     C1 3162   2.988   5.308   3.569  0.1812  0.1876  0.6691
  109bbb     H1 3163   3.005   5.391   3.638 -0.2268  0.6831  0.1848
  109bbb     H2 3164   3.084   5.255   3.574  0.7623  0.9512 -1.3443
  109bbb     C2 3165   2.861   5.462   3.414  0.4292 -0.7086  0.1606
  109bbb     H3 3166   2.916   5.557   3.414  1.8829 -1.5198  0.2653
  109bbb     H4 3167   2.788   5.461   3.497  0.4530 -0.7129  0.1817
  109bbb     C3 3168   3.089   5.404   3.357 -0.0123  0.7414 -0.1148
  109bbb     H5 3169   3.147   5.460   3.431  1.5740 -0.2248 -0.5768
  109bbb     H6 3170   3.059   5.469   3.274 -2.1441  1.4375  1.1123
  109bbb     C4 3171   3.161   5.277   3.314 -0.3385  0.1221  0.1006
  109bbb     H7 3172   3.110   5.250   3.221  0.3589  0.6578 -0.4489
  109bbb     H8 3173   3.159   5.194   3.386  1.8748  0.7513  0.9618
  109bbb     C5 3174   2.873   5.215   3.622  0.2652 -0.0703  0.4955
  109bbb     H9 3175   2.778   5.268   3.611 -0.1994 -1.2747 -1.8850
  109bbb    H10 3176   2.880   5.198   3.731  0.9142 -3.2896  0.0690
  109bbb     C6 3177   2.785   5.440   3.279  0.1033  0.0190  1.2633
  109bbb    H11 3178   2.729   5.346   3.291 -1.5665  0.9291  1.0172
  109bbb    H12 3179   2.854   5.431   3.194 -0.2472 -2.0303  1.1402
  109bbb     C7 3180   3.313   5.289   3.288 -0.0180 -0.1277  0.2575
  109bbb    H13 3181   3.336   5.193   3.240 -2.0297 -1.4132  1.6831
  109bbb    H14 3182   3.374   5.294   3.379 -1.0713  0.2766  0.9589
  109bbb     C8 3183   2.687   5.557   3.248  0.6433 -0.5059  0.1141
  109bbb    H15 3184   2.752   5.643   3.265  2.1779 -1.9792  2.3538
  109bbb    H16 3185   2.602   5.560   3.317  1.6074 -0.0340  1.3306
  109bbb     C9 3186   2.852   5.073   3.557  0.0505 -0.3220 -0.4188
  109bbb    H17 3187   2.788   5.007   3.617 -0.0436  0.6772  0.6340
  109bbb    H18 3188   2.955   5.036   3.564  1.5479  3.4401  0.3547
  109bbb     O1 3189   3.339   5.394   3.198 -1.0655  0.1327 -0.2415
  110bbb     N1 3190   7.773   7.495   3.591 -0.1126 -0.6333 -0.6978
  110bbb     C1 3191   7.870   7.470   3.705 -0.2310  0.5691 -0.0458
  110bbb     H1 3192   7.968   7.457   3.657  0.4298  1.8600  0.9098
  110bbb     H2 3193   7.847   7.370   3.742  1.2593 -0.1177 -0.8734
  110bbb     C2 3194   7.787   7.622   3.522  0.4008  0.6365  1.1463
  110bbb     H3 3195   7.775   7.709   3.588  2.3396  1.0356  1.0579
  110bbb     H4 3196   7.703   7.621   3.452  1.6161 -2.0230 -0.4132
  110bbb     C3 3197   7.633   7.463   3.618  0.8030  0.3278  0.4714
  110bbb     H5 3198   7.570   7.490   3.532  1.0348 -0.2662  0.1127
  110bbb     H6 3199   7.593   7.506   3.711  0.5128 -0.4535  0.7146
  110bbb     C4 3200   7.606   7.311   3.638 -0.1632 -0.3433 -0.0081
  110bbb     H7 3201   7.683   7.254   3.585  0.2564  2.3825 -2.5470
  110bbb     H8 3202   7.512   7.292   3.585  0.2558  0.6675 -1.1496
  110bbb     C5 3203   7.871   7.582   3.812 -0.3666  0.3072 -0.4573
  110bbb     H9 3204   7.769   7.620   3.831 -0.0479  0.6198  0.7338
  110bbb    H10 3205   7.924   7.667   3.769  0.8936 -0.1281  0.1915
  110bbb     C6 3206   7.924   7.645   3.442 -0.3576 -0.7367  0.0547
  110bbb    H11 3207   7.992   7.696   3.511 -0.4804 -0.6018  0.0742
  110bbb    H12 3208   7.905   7.707   3.353 -1.7193 -1.5791 -0.2715
  110bbb     C7 3209   7.572   7.274   3.783  0.4722  0.1636  0.8902
  110bbb    H13 3210   7.475   7.321   3.803 -0.5327 -0.9562 -1.0806
  110bbb    H14 3211   7.655   7.305   3.847 -0.5017 -0.7245  2.6560
  110bbb     C8 3212   7.987   7.522   3.374  0.4020  0.2232 -0.1196
  110bbb    H15 3213   7.979   7.526   3.265  0.2174 -0.7478 -0.1543
  110bbb    H16 3214   7.920   7.438   3.399  1.0094 -0.5820 -1.0913
  110bbb     C9 3215   7.933   7.538   3.944  0.7158 -0.3150  0.3771
  110bbb    H17 3216   7.908   7.606   4.026 -0.9458 -1.6299  1.0237
  110bbb    H18 3217   8.041   7.556   3.938  0.5008  1.8748  2.0265
  110bbb     O1 3218   7.565   7.134   3.789 -0.1602  0.1766  0.3527
  111bbb     N1 3219   7.229   6.495   4.455  0.0992  0.4466 -0.5458
  111bbb     C1 3220   7.133   6.409   4.526 -0.1779  0.1054  0.5934
  111bbb     H1 3221   7.085   6.352   4.447  2.2810  0.4950 -1.3213
  111bbb     H2 3222   7.056   6.480   4.559 -0.1459  1.2096 -1.5452
  111bbb     C2 3223   7.248   6.624   4.529  0.2509  0.1977  0.1756
  111bbb     H3 3224   7.274   6.606   4.634  2.4483 -2.2744 -0.6793
  111bbb     H4 3225   7.153   6.676   4.542  0.8940  1.3599  0.3129
  111bbb     C3 3226   7.203   6.501   4.312 -0.0425 -0.0208  0.9495
  111bbb     H5 3227   7.202   6.403   4.264  1.3773  1.2736 -2.0017
  111bbb     H6 3228   7.284   6.561   4.269 -0.0641  2.7880  4.2894
  111bbb     C4 3229   7.067   6.565   4.271  0.1981  0.1353  0.3311
  111bbb     H7 3230   7.063   6.674   4.286 -0.3248  0.6933 -3.1157
  111bbb     H8 3231   6.982   6.518   4.322 -0.1775  0.9751  0.4927
  111bbb     C5 3232   7.186   6.313   4.628  0.0805  0.1807 -1.1862
  111bbb     H9 3233   7.247   6.352   4.710  0.8356 -0.2499 -1.5297
  111bbb    H10 3234   7.257   6.245   4.579  0.2757  0.1356 -0.8438
  111bbb     C6 3235   7.354   6.715   4.466 -0.2265 -0.5099  0.3802
  111bbb    H11 3236   7.304   6.763   4.381  0.7090  1.0527  0.6822
  111bbb    H12 3237   7.438   6.659   4.423  0.0445 -0.2882  0.6115
  111bbb     C7 3238   7.034   6.549   4.120 -0.3751 -0.4333 -0.0566
  111bbb    H13 3239   6.943   6.609   4.108 -1.4616 -1.9713  0.1348
  111bbb    H14 3240   7.021   6.443   4.097  0.5762 -0.8921  1.3373
  111bbb     C8 3241   7.402   6.812   4.574 -0.0296  0.1136 -0.1647
  111bbb    H15 3242   7.479   6.878   4.532  2.0657 -1.4370  1.0078
  111bbb    H16 3243   7.456   6.757   4.652  1.0568  0.6444 -0.5212
  111bbb     C9 3244   7.074   6.225   4.695  0.1819  0.6453 -0.1886
  111bbb    H17 3245   7.005   6.175   4.626 -0.1372 -3.4235  2.7365
  111bbb    H18 3246   7.025   6.301   4.756 -0.6074  1.0379 -1.2881
  111bbb     O1 3247   7.149   6.599   4.042  0.3760 -0.1538 -0.3747
  112bbb     N1 3248   7.326   6.861   2.080 -0.0512  0.2936 -0.1614
  112bbb     C1 3249   7.431   6.758   2.102  0.0600  0.3336  0.0200
  112bbb     H1 3250   7.400   6.685   2.178  1.2015  1.8525  2.0680
  112bbb     H2 3251   7.528   6.799   2.132  0.4143 -1.8895  2.3193
  112bbb     C2 3252   7.374   6.975   1.995 -0.3090  0.2358 -1.2052
  112bbb     H3 3253   7.397   6.930   1.897  0.7898 -1.1783 -0.3323
  112bbb     H4 3254   7.466   7.011   2.042 -0.7717  0.4372 -0.4332
  112bbb     C3 3255   7.265   6.903   2.202 -0.0526 -0.1454 -0.4845
  112bbb     H5 3256   7.187   6.976   2.178 -0.6120 -0.1353  1.1993
  112bbb     H6 3257   7.328   6.949   2.279  0.4110 -2.3596  0.5521
  112bbb     C4 3258   7.184   6.797   2.279  0.3251  0.5294  0.1774
  112bbb     H7 3259   7.251   6.725   2.327 -1.3792 -1.3366 -0.1058
  112bbb     H8 3260   7.124   6.744   2.204 -0.5003 -0.2865  1.3745
  112bbb     C5 3261   7.467   6.676   1.974  0.1155 -0.7675  0.6193
  112bbb     H9 3262   7.537   6.725   1.904 -1.7471 -0.1881 -0.9167
  112bbb    H10 3263   7.382   6.679   1.905  0.3741  0.3712  0.3173
  112bbb     C6 3264   7.284   7.091   1.971 -0.3433  0.2858  0.8659
  112bbb    H11 3265   7.333   7.176   1.921 -2.4083  0.2146 -1.5102
  112bbb    H12 3266   7.253   7.135   2.067 -1.2243  0.4546  0.5204
  112bbb     C7 3267   7.080   6.863   2.382 -0.6934 -0.6079  0.8804
  112bbb    H13 3268   7.025   6.783   2.432  0.2563  0.2868  3.5099
  112bbb    H14 3269   7.006   6.930   2.337 -0.3707  0.1775  1.5022
  112bbb     C8 3270   7.163   7.067   1.888  0.0536  0.0752  0.2780
  112bbb    H15 3271   7.109   7.160   1.870 -1.5156 -0.9849 -0.7424
  112bbb    H16 3272   7.090   7.009   1.945 -0.4532 -0.2826 -0.7192
  112bbb     C9 3273   7.507   6.536   2.020 -1.0181  0.6976  0.0485
  112bbb    H17 3274   7.531   6.473   1.934  0.9218  0.2220  0.8687
  112bbb    H18 3275   7.421   6.490   2.068  0.0193 -0.3479  0.9733
  112bbb     O1 3276   7.153   6.942   2.481  0.1824  0.2310 -0.0131
  113bbb     N1 3277   7.393   7.722   2.369  0.3269  0.2585  0.1641
  113bbb     C1 3278   7.435   7.827   2.274 -0.1044  0.3654  0.2051
  113bbb     H1 3279   7.529   7.876   2.305 -1.0168  0.9016  2.3379
  113bbb     H2 3280   7.352   7.898   2.263 -1.4139 -0.6320  2.7124
  113bbb     C2 3281   7.265   7.653   2.323 -0.8222  0.3651 -0.5421
  113bbb     H3 3282   7.232   7.704   2.232  1.5162  2.2263 -0.4297
  113bbb     H4 3283   7.183   7.656   2.397 -0.6669  0.7296 -0.3831
  113bbb     C3 3284   7.408   7.767   2.508  0.2795 -0.6808  0.1593
  113bbb     H5 3285   7.326   7.838   2.526  0.8556 -0.2649  1.1907
  113bbb     H6 3286   7.495   7.832   2.519  0.2175 -0.3903 -0.9548
  113bbb     C4 3287   7.391   7.652   2.604  0.3166  0.3846  0.5883
  113bbb     H7 3288   7.311   7.583   2.574 -0.7259  1.6680  0.3312
  113bbb     H8 3289   7.363   7.693   2.702 -1.5381  0.0979  0.2166
  113bbb     C5 3290   7.463   7.784   2.131  0.5995  0.1036  0.8894
  113bbb     H9 3291   7.371   7.751   2.080  2.3050 -0.6740 -1.9438
  113bbb    H10 3292   7.528   7.697   2.144 -0.6065 -0.9337  0.2127
  113bbb     C6 3293   7.288   7.505   2.278 -0.1054 -0.2421 -0.6081
  113bbb    H11 3294   7.348   7.452   2.352  1.1477 -0.1255 -1.5007
  113bbb    H12 3295   7.341   7.511   2.182  0.0220  0.1877 -0.5096
  113bbb     C7 3296   7.521   7.583   2.620 -0.3234  0.4141 -0.4031
  113bbb    H13 3297   7.598   7.656   2.649  0.8603 -1.6423  2.0380
  113bbb    H14 3298   7.543   7.534   2.524 -0.8087 -0.4743 -0.0733
  113bbb     C8 3299   7.142   7.440   2.262  0.2580 -0.2118 -0.7063
  113bbb    H15 3300   7.161   7.337   2.228 -0.4318 -1.1867  1.6655
  113bbb    H16 3301   7.090   7.509   2.194  2.1387  2.2837  0.2404
  113bbb     C9 3302   7.533   7.900   2.044  0.7053  0.4080  0.3717
  113bbb    H17 3303   7.582   7.863   1.953  1.2386 -3.3956  2.0226
  113bbb    H18 3304   7.613   7.939   2.108  0.3751  0.2682  0.8744
  113bbb     O1 3305   7.496   7.481   2.726 -0.1888  0.1739  0.1909
  114bbb     N1 3306   7.170   3.735   3.621  0.2518 -0.0996 -0.6177
  114bbb     C1 3307   7.119   3.600   3.575 -0.3976  0.3956 -0.0853
  114bbb     H1 3308   7.183   3.518   3.609 -0.2432  0.6680  0.2942
  114bbb     H2 3309   7.121   3.591   3.466 -1.5239 -0.5927 -0.0443
  114bbb     C2 3310   7.309   3.758   3.579 -0.3012  0.3773  0.0185
  114bbb     H3 3311   7.320   3.829   3.496 -2.9733  0.1628 -0.6015
  114bbb     H4 3312   7.347   3.663   3.539  0.0583  0.2426  0.6663
  114bbb     C3 3313   7.072   3.841   3.597  0.0590 -0.3547 -0.4677
  114bbb     H5 3314   6.995   3.820   3.672  0.3137 -1.0100 -0.3867
  114bbb     H6 3315   7.031   3.830   3.496 -0.5493 -3.7876  0.0234
  114bbb     C4 3316   7.120   3.985   3.616 -0.2544  0.8466  0.2412
  114bbb     H7 3317   7.198   4.004   3.541 -1.4728  2.9565 -0.5862
  114bbb     H8 3318   7.167   3.987   3.715  1.8312  2.0900 -0.7003
  114bbb     C5 3319   6.976   3.570   3.636 -0.7151 -0.0379 -0.4490
  114bbb     H9 3320   6.935   3.473   3.603 -0.6410 -0.4401  0.5949
  114bbb    H10 3321   6.900   3.643   3.605 -2.5017 -1.5928  0.0625
  114bbb     C6 3322   7.402   3.792   3.701 -0.4512  0.1211  0.0794
  114bbb    H11 3323   7.380   3.734   3.792  0.5463  0.6613  0.6822
  114bbb    H12 3324   7.385   3.896   3.730  0.3110 -0.1939  1.7939
  114bbb     C7 3325   7.006   4.088   3.599  0.0861 -0.0591  0.4262
  114bbb    H13 3326   6.916   4.054   3.651 -0.3740  1.2395  0.5258
  114bbb    H14 3327   6.981   4.113   3.495  0.4385  0.9605  0.5769
  114bbb     C8 3328   7.552   3.774   3.665 -0.1629 -0.3487 -0.2981
  114bbb    H15 3329   7.556   3.687   3.597 -0.2569  0.1653 -0.9760
  114bbb    H16 3330   7.612   3.751   3.753 -0.0940  0.9987  0.0259
  114bbb     C9 3331   6.976   3.562   3.790 -0.6993  0.1897  0.3508
  114bbb    H17 3332   7.070   3.595   3.836 -0.6904  1.1006 -0.2912
  114bbb    H18 3333   6.969   3.453   3.803  1.1343 -0.2119 -1.4145
  114bbb     O1 3334   7.048   4.210   3.656  0.0422  0.1065 -0.2270
  115bbb     N1 3335   7.832   4.454   4.240 -1.1219 -0.5722 -0.0579
  115bbb     C1 3336   7.974   4.440   4.273  0.6222 -0.0249 -0.1714
  115bbb     H1 3337   7.977   4.446   4.382 -3.6179  0.3067  0.0741
  115bbb     H2 3338   8.028   4.522   4.223  0.1451  1.3151  1.4378
  115bbb     C2 3339   7.761   4.571   4.306 -0.7551 -0.6525  1.0499
  115bbb     H3 3340   7.809   4.581   4.404  0.1032 -2.6209  0.8704
  115bbb     H4 3341   7.655   4.545   4.315 -1.1523  0.8873  1.1819
  115bbb     C3 3342   7.795   4.416   4.105 -0.2057  0.4732  0.1958
  115bbb     H5 3343   7.831   4.314   4.089 -2.9834 -0.9761  2.3472
  115bbb     H6 3344   7.840   4.479   4.027 -0.1874  0.7993  0.4683
  115bbb     C4 3345   7.643   4.401   4.090 -0.0136 -0.0727  0.3549
  115bbb     H7 3346   7.597   4.501   4.089  1.5465  0.6829  1.2290
  115bbb     H8 3347   7.608   4.364   4.187  0.1540 -0.3217  0.3200
  115bbb     C5 3348   8.040   4.305   4.236  0.3013 -0.4447 -0.4273
  115bbb     H9 3349   8.046   4.288   4.127 -0.0578 -2.5650 -0.1711
  115bbb    H10 3350   7.976   4.220   4.262  1.1585 -1.2675 -0.8970
  115bbb     C6 3351   7.766   4.714   4.235 -0.2272  0.0959 -0.2815
  115bbb    H11 3352   7.726   4.793   4.300  0.6467 -0.8158  1.4302
  115bbb    H12 3353   7.697   4.699   4.151 -2.0402 -0.7572  1.2871
  115bbb     C7 3354   7.593   4.314   3.974  0.7026 -0.3934 -0.0044
  115bbb    H13 3355   7.499   4.268   4.006  0.5762  0.9569  1.7452
  115bbb    H14 3356   7.653   4.222   3.979 -2.2088 -2.4666 -0.6931
  115bbb     C8 3357   7.906   4.754   4.184 -0.8745  0.0484 -0.2724
  115bbb    H15 3358   7.936   4.689   4.100  0.9269 -1.1622  1.2100
  115bbb    H16 3359   7.965   4.706   4.264 -1.1227 -1.8256 -1.1472
  115bbb     C9 3360   8.184   4.295   4.292  0.5989 -0.0246  1.3631
  115bbb    H17 3361   8.226   4.201   4.254 -0.1967 -0.1086  0.6698
  115bbb    H18 3362   8.176   4.287   4.401  0.5608 -0.0535  1.3583
  115bbb     O1 3363   7.590   4.395   3.859  0.3913 -0.9079  0.7534
  116bbb     N1 3364   6.982   5.315   2.606 -0.2489 -0.4799 -0.3057
  116bbb     C1 3365   6.962   5.459   2.650  0.1822  0.4429 -0.1493
  116bbb     H1 3366   7.052   5.484   2.707 -0.4627  0.6144  0.8142
  116bbb     H2 3367   6.872   5.460   2.713 -0.2986  0.6578 -0.8211
  116bbb     C2 3368   6.865   5.244   2.550  0.0581  0.3648 -1.0559
  116bbb     H3 3369   6.894   5.141   2.523 -0.7655 -0.2599  0.3323
  116bbb     H4 3370   6.821   5.278   2.456 -1.9050 -1.0510 -0.7187
  116bbb     C3 3371   7.048   5.231   2.710 -0.2727 -0.0796  0.6991
  116bbb     H5 3372   7.032   5.125   2.686  0.6268 -0.4982  1.8853
  116bbb     H6 3373   6.993   5.244   2.804 -0.6391 -0.0829  0.4908
  116bbb     C4 3374   7.191   5.269   2.742  0.6666 -0.3784  0.2219
  116bbb     H7 3375   7.206   5.378   2.743 -2.1979  0.1237  1.1322
  116bbb     H8 3376   7.254   5.231   2.661  2.0543  1.6462  0.2977
  116bbb     C5 3377   6.939   5.554   2.538 -1.3047 -0.6134 -0.0118
  116bbb     H9 3378   6.932   5.659   2.569  3.1857 -0.1168  0.0427
  116bbb    H10 3379   6.851   5.522   2.482 -0.8346  0.9630 -1.8143
  116bbb     C6 3380   6.752   5.227   2.662  0.6653  0.4999  0.0945
  116bbb    H11 3381   6.714   5.329   2.676 -0.0302  0.5509 -1.8255
  116bbb    H12 3382   6.804   5.183   2.748 -0.2746  0.1470  0.5044
  116bbb     C7 3383   7.243   5.211   2.866  0.0924  0.3085 -0.3301
  116bbb    H13 3384   7.349   5.191   2.847  0.1874  2.0444 -1.9311
  116bbb    H14 3385   7.188   5.121   2.894 -1.2848  1.2477  0.1353
  116bbb     C8 3386   6.631   5.141   2.630 -0.8062  0.9083  0.3930
  116bbb    H15 3387   6.564   5.133   2.717 -0.3415  1.7696  0.8446
  116bbb    H16 3388   6.666   5.038   2.613 -0.2513  1.0040  0.8937
  116bbb     C9 3389   7.063   5.559   2.454 -0.2071  0.2629 -0.2867
  116bbb    H17 3390   7.053   5.632   2.373  0.0031 -0.0816 -0.6307
  116bbb    H18 3391   7.095   5.458   2.426  1.3850  0.0627  1.9801
  116bbb     O1 3392   7.248   5.301   2.976  0.0899  0.4673  0.0196
  117bbb     N1 3393   6.984   6.021   2.766 -0.1506 -0.1947 -0.4954
  117bbb     C1 3394   7.066   6.073   2.877 -0.2282 -1.2375 -0.2575
  117bbb     H1 3395   7.017   6.050   2.972  1.1192 -0.0929  0.7747
  117bbb     H2 3396   7.078   6.181   2.860 -0.6734 -1.1454  0.0173
  117bbb     C2 3397   7.049   6.056   2.639  0.3436  0.0005 -0.4177
  117bbb     H3 3398   7.156   6.066   2.659  0.2275 -1.0417  0.8452
  117bbb     H4 3399   7.000   6.148   2.604 -0.9868 -0.3444  0.4813
  117bbb     C3 3400   6.841   6.037   2.769 -0.2542 -0.3257  0.1443
  117bbb     H5 3401   6.796   6.019   2.670 -1.0088 -0.1875  0.4591
  117bbb     H6 3402   6.811   6.136   2.805  1.2796  0.0891  0.3418
  117bbb     C4 3403   6.775   5.955   2.880 -0.4696 -0.3987  0.5108
  117bbb     H7 3404   6.668   5.976   2.870 -0.4875 -0.7793 -0.2436
  117bbb     H8 3405   6.807   5.987   2.979  2.0723  1.3815 -0.7628
  117bbb     C5 3406   7.207   6.013   2.891 -0.1631 -0.2110 -0.1651
  117bbb     H9 3407   7.250   6.047   2.986 -2.0950 -0.8824  1.0419
  117bbb    H10 3408   7.274   6.044   2.810 -0.0941 -2.1534 -0.9017
  117bbb     C6 3409   7.033   5.961   2.527 -0.5162  0.3753  0.1492
  117bbb    H11 3410   6.931   5.932   2.498 -0.2858 -0.5701  0.2457
  117bbb    H12 3411   7.073   5.864   2.560  0.0497  0.2811 -0.7573
  117bbb     C7 3412   6.788   5.800   2.864 -0.6390 -0.5599  0.3389
  117bbb    H13 3413   6.884   5.757   2.894 -1.1292 -0.8130  1.6276
  117bbb    H14 3414   6.773   5.768   2.760 -1.0331 -0.5339  0.3872
  117bbb     C8 3415   7.116   5.990   2.400 -0.2277  0.1139  0.1935
  117bbb    H15 3416   7.084   6.091   2.370 -2.1830 -0.9799 -1.7069
  117bbb    H16 3417   7.089   5.913   2.327  0.5758 -2.1388  2.1470
  117bbb     C9 3418   7.205   5.857   2.900  0.7424  0.2824  0.7389
  117bbb    H17 3419   7.170   5.816   2.804  0.0026 -2.1203  1.9289
  117bbb    H18 3420   7.135   5.827   2.980  2.5612 -0.7577  2.0246
  117bbb     O1 3421   6.688   5.737   2.943  1.0092 -0.0396  0.4929
  118bbb     N1 3422   5.329   4.120   5.691  0.5553  0.3316  0.4441
  118bbb     C1 3423   5.305   3.984   5.753 -0.4917 -0.5999  0.3731
  118bbb     H1 3424   5.225   3.934   5.696  0.3594 -1.2932 -0.2349
  118bbb     H2 3425   5.259   4.011   5.849 -1.0750  3.8067 -0.9060
  118bbb     C2 3426   5.206   4.205   5.682 -0.7759 -0.3575 -0.2171
  118bbb     H3 3427   5.157   4.200   5.780  0.5429 -0.3622  0.4541
  118bbb     H4 3428   5.138   4.163   5.607 -1.9102 -0.7296  0.9844
  118bbb     C3 3429   5.413   4.108   5.570 -0.3362 -0.3286  0.3151
  118bbb     H5 3430   5.515   4.067   5.582 -0.6707 -1.3986 -0.3225
  118bbb     H6 3431   5.439   4.209   5.536 -0.7460 -0.1843  0.4285
  118bbb     C4 3432   5.349   4.031   5.449  0.0233  0.3614 -0.0437
  118bbb     H7 3433   5.255   4.079   5.421 -1.3348 -1.5903  0.9500
  118bbb     H8 3434   5.321   3.928   5.474  0.3353  0.5473  1.1122
  118bbb     C5 3435   5.427   3.897   5.762  0.7188  0.6647  0.3501
  118bbb     H9 3436   5.470   3.870   5.665  1.3746 -0.2269  0.8696
  118bbb    H10 3437   5.397   3.801   5.806 -1.1028  1.3749  0.7565
  118bbb     C6 3438   5.240   4.353   5.655  0.1782  0.3326 -0.1443
  118bbb    H11 3439   5.347   4.368   5.675  0.1874  0.5678 -0.3689
  118bbb    H12 3440   5.185   4.406   5.734 -2.2805 -0.8141 -0.9661
  118bbb     C7 3441   5.440   4.022   5.323 -0.2324  0.0208 -0.0440
  118bbb    H13 3442   5.380   3.961   5.255 -1.3815 -0.7441  1.5603
  118bbb    H14 3443   5.532   3.968   5.348 -0.3614  0.3985  1.3954
  118bbb     C8 3444   5.202   4.403   5.517 -0.5581 -0.0377  0.0484
  118bbb    H15 3445   5.107   4.360   5.485 -0.3683  0.1844 -0.8291
  118bbb    H16 3446   5.271   4.369   5.439  0.1197  1.4999 -0.0653
  118bbb     C9 3447   5.533   3.948   5.859  0.2502 -0.1534  0.0165
  118bbb    H17 3448   5.489   3.961   5.959 -1.8661  0.7380 -0.9806
  118bbb    H18 3449   5.558   4.051   5.833 -3.4226  1.0079  0.5739
  118bbb     O1 3450   5.466   4.157   5.277 -0.1138  0.3922 -0.0883
  119bbb     N1 3451   4.948   4.271   4.355 -0.0803 -0.8397  0.2451
  119bbb     C1 3452   4.963   4.371   4.246 -1.1437  0.0045 -0.6929
  119bbb     H1 3453   5.063   4.415   4.258  0.1283 -2.7380 -0.3940
  119bbb     H2 3454   4.889   4.449   4.269 -0.0135  1.6765 -2.4122
  119bbb     C2 3455   4.820   4.205   4.349  0.3408  0.2400 -0.3029
  119bbb     H3 3456   4.837   4.100   4.375 -1.1310 -0.1768 -0.9190
  119bbb     H4 3457   4.772   4.205   4.250 -2.0706  1.0626  0.7815
  119bbb     C3 3458   5.012   4.313   4.477  0.2335  0.2101  0.5001
  119bbb     H5 3459   4.978   4.248   4.559  3.3881 -1.8729  0.3606
  119bbb     H6 3460   4.980   4.414   4.502  0.8344  0.0285  2.1641
  119bbb     C4 3461   5.164   4.308   4.474  0.6840 -0.0936 -0.5983
  119bbb     H7 3462   5.201   4.362   4.386  2.0187  3.5414  1.9490
  119bbb     H8 3463   5.191   4.201   4.478  1.1106  0.0350  0.3748
  119bbb     C5 3464   4.960   4.317   4.102  0.0244  0.3066 -0.8520
  119bbb     H9 3465   4.994   4.407   4.048  1.3332  2.0157  2.5428
  119bbb    H10 3466   4.856   4.289   4.083 -0.1538  0.2497  0.1870
  119bbb     C6 3467   4.711   4.261   4.442  0.5422  0.0748 -0.2936
  119bbb    H11 3468   4.750   4.235   4.541  0.7644 -4.0355 -1.2545
  119bbb    H12 3469   4.627   4.191   4.434  1.8031 -1.3383 -2.0250
  119bbb     C7 3470   5.221   4.387   4.594  0.9773 -0.1098 -1.0449
  119bbb    H13 3471   5.190   4.339   4.688  0.8153  2.2837  0.1922
  119bbb    H14 3472   5.177   4.487   4.595 -0.6376 -0.5639  4.7041
  119bbb     C8 3473   4.664   4.407   4.421  0.5322 -0.4914 -0.8629
  119bbb    H15 3474   4.742   4.484   4.427  1.3491 -1.2000 -1.9811
  119bbb    H16 3475   4.601   4.425   4.508 -1.4011 -1.2615 -2.0250
  119bbb     C9 3476   5.057   4.207   4.081  0.4888  0.0708 -0.4624
  119bbb    H17 3477   5.045   4.129   4.158  1.3890  0.6723  0.3148
  119bbb    H18 3478   5.156   4.247   4.106 -0.6618  1.5497  2.1009
  119bbb     O1 3479   5.367   4.391   4.587 -0.9180 -0.0984  0.0721
  120bbb     N1 3480   5.467   5.678   5.552  0.5316  0.1717  0.8151
  120bbb     C1 3481   5.573   5.573   5.532  0.3926  0.9039 -0.0392
  120bbb     H1 3482   5.618   5.591   5.434 -2.7261  0.0344 -1.7759
  120bbb     H2 3483   5.525   5.476   5.514  0.1702  1.2315 -1.3276
  120bbb     C2 3484   5.515   5.813   5.591 -0.6194 -0.1777  0.1487
  120bbb     H3 3485   5.553   5.794   5.693  1.1792 -0.6408 -0.5650
  120bbb     H4 3486   5.433   5.886   5.588  1.8302  2.7363 -1.3484
  120bbb     C3 3487   5.369   5.689   5.439  0.1653  0.4317  0.2908
  120bbb     H5 3488   5.362   5.591   5.390  0.0869  0.3870  0.3913
  120bbb     H6 3489   5.404   5.752   5.357 -0.5364 -0.9873 -1.1685
  120bbb     C4 3490   5.233   5.757   5.475 -0.1664  0.5641 -0.0844
  120bbb     H7 3491   5.247   5.865   5.480 -0.8494  0.6143  1.4106
  120bbb     H8 3492   5.206   5.725   5.577  0.8957 -1.9076 -0.5065
  120bbb     C5 3493   5.671   5.553   5.646  0.1858  0.0119 -0.1994
  120bbb     H9 3494   5.628   5.553   5.747 -0.8481 -0.6348 -0.6395
  120bbb    H10 3495   5.744   5.635   5.656 -2.4344  2.3756  1.0054
  120bbb     C6 3496   5.628   5.876   5.514  0.3210  0.1211 -0.8815
  120bbb    H11 3497   5.587   5.896   5.414 -2.8394  1.9631  0.6478
  120bbb    H12 3498   5.705   5.798   5.502  0.0716 -0.1279 -0.8745
  120bbb     C7 3499   5.113   5.717   5.386  0.0383 -0.4242  0.7994
  120bbb    H13 3500   5.017   5.752   5.426 -1.7058  0.6601 -3.7130
  120bbb    H14 3501   5.105   5.608   5.373  1.6865 -0.4396 -0.3463
  120bbb     C8 3502   5.696   6.006   5.579  0.7806  0.6358 -0.1162
  120bbb    H15 3503   5.794   6.018   5.531  0.4948 -0.1343 -0.9118
  120bbb    H16 3504   5.703   5.986   5.687  0.7014 -1.7402 -0.4983
  120bbb     C9 3505   5.751   5.422   5.638 -0.4061  0.0768 -0.1345
  120bbb    H17 3506   5.676   5.343   5.629  0.5527 -0.7131 -1.5225
  120bbb    H18 3507   5.800   5.412   5.736  2.4740 -0.5660 -1.5248
  120bbb     O1 3508   5.133   5.783   5.259 -0.2022  0.5273 -0.6361
  121bbb     N1 3509   5.037   6.853   4.660 -0.1738  0.7988 -0.3190
  121bbb     C1 3510   4.911   6.863   4.589  0.2103  0.2387  0.3480
  121bbb     H1 3511   4.885   6.763   4.550  0.9117 -0.1952  0.9621
  121bbb     H2 3512   4.913   6.924   4.498 -3.9262 -2.3012 -1.7838
  121bbb     C2 3513   5.102   6.981   4.693 -0.1438  0.0632  0.8170
  121bbb     H3 3514   5.197   6.963   4.745  1.3429  1.4036 -1.2718
  121bbb     H4 3515   5.035   7.037   4.760 -1.3738 -0.0093 -0.3257
  121bbb     C3 3516   5.056   6.751   4.774  0.0854 -0.4953  0.2760
  121bbb     H5 3517   4.996   6.773   4.863  0.6119 -0.6461  0.6745
  121bbb     H6 3518   5.159   6.755   4.813  0.6626  0.0531 -1.2139
  121bbb     C4 3519   5.031   6.606   4.730  0.4996  0.4641 -0.0507
  121bbb     H7 3520   5.070   6.597   4.628  1.5418 -0.9654  0.4559
  121bbb     H8 3521   4.922   6.594   4.732  0.5372  0.1742  1.7467
  121bbb     C5 3522   4.796   6.907   4.685  0.5016  0.2483  0.3049
  121bbb     H9 3523   4.825   7.003   4.729  1.1283  0.1403  0.1314
  121bbb    H10 3524   4.791   6.839   4.771 -0.7016  0.8117  0.7176
  121bbb     C6 3525   5.138   7.065   4.562 -0.2951  0.5541 -0.1465
  121bbb    H11 3526   5.044   7.115   4.537 -0.8379 -0.2846  0.2064
  121bbb    H12 3527   5.166   6.995   4.482 -2.1150  0.6324 -0.8887
  121bbb     C7 3528   5.092   6.500   4.821 -0.0873  0.4977 -0.1184
  121bbb    H13 3529   5.093   6.543   4.922  1.6539  5.0789 -1.7918
  121bbb    H14 3530   5.194   6.467   4.799 -0.3057 -0.0263 -0.3681
  121bbb     C8 3531   5.255   7.164   4.579  0.0431 -0.0255  0.3375
  121bbb    H15 3532   5.263   7.195   4.685  0.6747 -1.4681  0.7294
  121bbb    H16 3533   5.244   7.258   4.523 -0.0902 -1.3416 -1.9542
  121bbb     C9 3534   4.655   6.915   4.612  1.1160  0.5786 -1.3979
  121bbb    H17 3535   4.580   6.950   4.684  0.6899 -0.3424 -1.3743
  121bbb    H18 3536   4.635   6.812   4.581 -0.2643 -0.4628  2.3650
  121bbb     O1 3537   5.006   6.386   4.801 -0.3254 -0.2164  0.7785
  122bbb     N1 3538   6.595   3.979   3.502  0.3901  0.0282 -0.8770
  122bbb     C1 3539   6.675   3.861   3.517 -0.3031  0.0841 -0.4444
  122bbb     H1 3540   6.618   3.767   3.523  1.5029 -1.0668 -0.4185
  122bbb     H2 3541   6.732   3.853   3.611 -0.7640 -2.1456 -0.2898
  122bbb     C2 3542   6.671   4.108   3.491  0.8842 -0.3474  0.7764
  122bbb     H3 3543   6.755   4.107   3.421 -0.0731  0.9852 -0.4368
  122bbb     H4 3544   6.714   4.144   3.586  2.0401  1.7348 -0.4471
  122bbb     C3 3545   6.486   3.984   3.605 -0.9530  0.4759 -0.2645
  122bbb     H5 3546   6.459   4.084   3.639 -0.5776 -0.5392  3.4726
  122bbb     H6 3547   6.533   3.946   3.697  0.5139  1.3447 -0.6199
  122bbb     C4 3548   6.359   3.911   3.565  0.0840 -0.1836 -0.2601
  122bbb     H7 3549   6.373   3.803   3.551  1.7524 -0.4100  2.4927
  122bbb     H8 3550   6.329   3.950   3.467 -0.4210 -1.9905 -0.8772
  122bbb     C5 3551   6.773   3.834   3.402 -0.1238 -0.3914  0.0717
  122bbb     H9 3552   6.837   3.751   3.436  1.0870  1.2070  1.9633
  122bbb    H10 3553   6.847   3.915   3.397 -0.5655  0.2743  2.6152
  122bbb     C6 3554   6.572   4.216   3.430 -0.1834 -0.3540 -0.0370
  122bbb    H11 3555   6.484   4.234   3.493  0.6253  0.5908  0.8588
  122bbb    H12 3556   6.526   4.194   3.333 -2.0012 -0.0723  0.7254
  122bbb     C7 3557   6.237   3.920   3.657  0.3342 -0.2779  0.1275
  122bbb    H13 3558   6.168   3.834   3.653 -0.4325  0.2736  0.9298
  122bbb    H14 3559   6.180   4.011   3.633  2.9476  2.4073  3.0922
  122bbb     C8 3560   6.629   4.362   3.435  0.1577  0.1949 -0.4816
  122bbb    H15 3561   6.634   4.393   3.540  1.3313 -1.0086 -0.1551
  122bbb    H16 3562   6.546   4.424   3.397 -2.4142 -1.8680  1.3480
  122bbb     C9 3563   6.713   3.825   3.258  0.0430 -0.2010 -0.0421
  122bbb    H17 3564   6.793   3.809   3.184 -1.4497 -1.4411 -1.4566
  122bbb    H18 3565   6.669   3.923   3.236 -0.1466 -0.2379  0.1749
  122bbb     O1 3566   6.281   3.944   3.794 -0.0995  0.4006  0.1347
  123bbb     N1 3567   6.102   3.041   4.304  0.2833  0.2908 -0.5258
  123bbb     C1 3568   6.090   3.017   4.156  0.6530 -0.4201 -0.5621
  123bbb     H1 3569   6.068   3.116   4.114  2.2821  1.4270  2.5367
  123bbb     H2 3570   5.999   2.960   4.135  0.4925 -1.0077  1.4782
  123bbb     C2 3571   6.131   2.919   4.383  0.5418 -0.5611 -0.0711
  123bbb     H3 3572   6.137   2.940   4.491 -0.8149 -2.1339  0.3569
  123bbb     H4 3573   6.223   2.870   4.351  0.5252 -1.8206  1.6695
  123bbb     C3 3574   6.211   3.143   4.330  0.2733  0.0497  0.1006
  123bbb     H5 3575   6.187   3.230   4.268 -2.0300 -1.9354 -2.0215
  123bbb     H6 3576   6.307   3.099   4.302  0.1856 -2.7330  3.4183
  123bbb     C4 3577   6.213   3.199   4.473 -0.5595 -0.1811 -0.7942
  123bbb     H7 3578   6.226   3.123   4.551  0.8746 -0.1559 -0.9916
  123bbb     H8 3579   6.112   3.236   4.495 -1.4885 -2.8603 -0.1533
  123bbb     C5 3580   6.206   2.952   4.078  0.6727  0.3151 -0.4887
  123bbb     H9 3581   6.212   2.846   4.106  2.2354 -0.2007 -2.4896
  123bbb    H10 3582   6.300   3.002   4.106  0.3765  0.2336  0.6854
  123bbb     C6 3583   6.026   2.810   4.361  0.7063  0.8588  0.0150
  123bbb    H11 3584   6.044   2.761   4.265 -0.5631 -1.0516  0.6958
  123bbb    H12 3585   5.926   2.854   4.349  0.5953  0.4456 -0.6121
  123bbb     C7 3586   6.327   3.305   4.491  0.0274  0.2681 -0.1679
  123bbb    H13 3587   6.422   3.252   4.477 -1.4171 -2.3355 -0.6354
  123bbb    H14 3588   6.326   3.352   4.590  2.2697  0.8885 -0.3735
  123bbb     C8 3589   6.020   2.691   4.463 -0.0597 -0.7383  0.3039
  123bbb    H15 3590   5.929   2.630   4.457 -0.1456 -0.6154  0.3452
  123bbb    H16 3591   6.007   2.742   4.559  0.6519 -1.8080  0.9822
  123bbb     C9 3592   6.186   2.958   3.927  0.3028  0.3858  0.4175
  123bbb    H17 3593   6.140   3.054   3.904 -0.3959  0.2775  1.2859
  123bbb    H18 3594   6.114   2.879   3.901 -0.2714  0.7997  0.7113
  123bbb     O1 3595   6.328   3.399   4.386 -0.6863 -0.2693 -0.0427
  124bbb     N1 3596   8.102   4.821   4.576  0.0243 -0.8548 -0.1312
  124bbb     C1 3597   8.189   4.741   4.490 -0.0062 -0.3857 -0.6492
  124bbb     H1 3598   8.270   4.807   4.458 -0.0879  0.6674  1.1491
  124bbb     H2 3599   8.128   4.716   4.402  0.7888  2.0816 -1.9806
  124bbb     C2 3600   8.072   4.957   4.522 -0.5087 -0.6910 -0.5451
  124bbb     H3 3601   7.996   5.015   4.577 -0.3112 -1.4795  0.5925
  124bbb     H4 3602   8.040   4.952   4.417  0.4128 -0.0908 -0.8653
  124bbb     C3 3603   7.981   4.753   4.635  0.8500  1.3907 -0.3398
  124bbb     H5 3604   7.994   4.647   4.661 -0.9542  1.1353 -0.4191
  124bbb     H6 3605   7.904   4.746   4.558  0.4075  1.8745  0.0559
  124bbb     C4 3606   7.912   4.819   4.759 -0.2470 -0.0873  0.4276
  124bbb     H7 3607   7.871   4.917   4.733  2.4657  1.8977  2.9885
  124bbb     H8 3608   7.979   4.849   4.841 -2.2958  2.5639  1.2418
  124bbb     C5 3609   8.230   4.605   4.543  0.7546  0.1033  0.0591
  124bbb     H9 3610   8.296   4.561   4.468 -2.5343 -0.6073 -2.6477
  124bbb    H10 3611   8.139   4.544   4.538  0.6668  0.2244  0.1948
  124bbb     C6 3612   8.195   5.051   4.523 -0.0722  0.0238 -0.1089
  124bbb    H11 3613   8.165   5.156   4.516 -0.1424  0.0614  0.6406
  124bbb    H12 3614   8.256   5.037   4.433  2.5401 -1.6830  1.7853
  124bbb     C7 3615   7.796   4.727   4.813  0.3402  1.0397  0.6325
  124bbb    H13 3616   7.763   4.760   4.912  1.4083  0.2387  1.2762
  124bbb    H14 3617   7.847   4.633   4.836 -0.6293  0.5256  0.7384
  124bbb     C8 3618   8.287   5.030   4.647  0.0013 -0.9308 -0.6584
  124bbb    H15 3619   8.343   4.936   4.658 -0.0255 -0.8914 -0.1580
  124bbb    H16 3620   8.218   5.032   4.733 -0.1642 -2.0401 -0.7451
  124bbb     C9 3621   8.292   4.603   4.689 -0.1644  0.1889  0.2064
  124bbb    H17 3622   8.233   4.676   4.747 -0.9506  1.0499 -1.5891
  124bbb    H18 3623   8.392   4.647   4.682  0.2846 -0.8354  0.1130
  124bbb     O1 3624   7.690   4.728   4.712 -0.0288 -0.8754  0.4037
  125bbb     N1 3625   7.431   4.542   5.253 -0.2288 -0.1135 -0.2697
  125bbb     C1 3626   7.583   4.527   5.231  0.2666 -0.6519  0.4372
  125bbb     H1 3627   7.630   4.492   5.325 -1.2900  0.2686  1.5990
  125bbb     H2 3628   7.632   4.622   5.207 -2.0677  0.4871 -0.0243
  125bbb     C2 3629   7.410   4.645   5.359 -0.4038  0.5589  0.1322
  125bbb     H3 3630   7.304   4.673   5.370 -0.6408 -0.5121  0.6512
  125bbb     H4 3631   7.472   4.734   5.340  1.3661 -0.5622  0.5182
  125bbb     C3 3632   7.356   4.581   5.131  0.8722 -0.0031 -0.2568
  125bbb     H5 3633   7.363   4.491   5.068  3.1667 -1.8759  2.4361
  125bbb     H6 3634   7.400   4.669   5.083  1.0278  0.5288  0.8307
  125bbb     C4 3635   7.202   4.615   5.137 -0.3856  0.0672 -0.0162
  125bbb     H7 3636   7.179   4.703   5.199  0.6159 -0.3783  1.0228
  125bbb     H8 3637   7.151   4.532   5.188  0.3919  1.1300  2.6890
  125bbb     C5 3638   7.617   4.415   5.123  0.8553 -0.1672 -0.2414
  125bbb     H9 3639   7.579   4.441   5.024  1.5456  0.5514 -0.3265
  125bbb    H10 3640   7.562   4.324   5.146  2.7214 -1.2383  0.1731
  125bbb     C6 3641   7.464   4.600   5.502 -0.1229 -0.0479  0.1823
  125bbb    H11 3642   7.565   4.644   5.499 -1.1398  2.4511 -2.0331
  125bbb    H12 3643   7.467   4.491   5.509 -0.9124 -0.1016 -0.1765
  125bbb     C7 3644   7.140   4.642   4.999  0.3625  0.3151 -0.0704
  125bbb    H13 3645   7.201   4.717   4.947  1.2445 -0.6526 -0.4727
  125bbb    H14 3646   7.039   4.685   5.002 -0.2151 -0.9700 -0.3085
  125bbb     C8 3647   7.394   4.661   5.627  0.2645  0.2851 -0.1855
  125bbb    H15 3648   7.399   4.770   5.630  0.5740  0.3776 -2.3649
  125bbb    H16 3649   7.448   4.624   5.714 -1.2249  0.1502  0.7136
  125bbb     C9 3650   7.767   4.373   5.113  0.2309  0.7314  0.2320
  125bbb    H17 3651   7.792   4.308   5.028  1.0318  2.2853 -0.7796
  125bbb    H18 3652   7.782   4.341   5.217  1.1387  0.1544 -0.0635
  125bbb     O1 3653   7.124   4.527   4.916 -0.0687  0.4168  0.6409
  126bbb     N1 3654   3.200   3.984   3.027 -0.0069  0.3105 -0.3310
  126bbb     C1 3655   3.199   3.836   3.010  0.2174 -0.0852 -0.0696
  126bbb     H1 3656   3.252   3.807   2.918 -1.4104 -1.0310 -0.7639
  126bbb     H2 3657   3.094   3.815   2.988  0.7330 -1.8431 -1.0946
  126bbb     C2 3658   3.107   4.038   3.124 -0.1659  0.3946 -0.2446
  126bbb     H3 3659   3.152   4.025   3.223 -0.8677 -1.4467 -0.1273
  126bbb     H4 3660   3.018   3.974   3.122  0.6019 -0.9058  2.7381
  126bbb     C3 3661   3.327   4.053   3.031 -0.6091 -0.3160 -0.0626
  126bbb     H5 3662   3.387   4.019   3.116 -0.2205 -2.0631 -0.9833
  126bbb     H6 3663   3.315   4.162   3.039 -3.1075 -0.5238 -0.2721
  126bbb     C4 3664   3.412   4.035   2.905 -0.0818  0.0748 -0.4620
  126bbb     H7 3665   3.449   3.932   2.897  2.2473  0.8504 -0.4638
  126bbb     H8 3666   3.506   4.092   2.912  0.0342  0.0688 -1.6651
  126bbb     C5 3667   3.243   3.761   3.135  0.0081  0.2464 -0.5297
  126bbb     H9 3668   3.187   3.800   3.221  1.2932 -0.9114  0.8805
  126bbb    H10 3669   3.350   3.771   3.157  0.4508 -1.6149 -1.6458
  126bbb     C6 3670   3.078   4.189   3.107  0.1795  0.2697  0.5123
  126bbb    H11 3671   3.078   4.215   3.001  0.9040 -1.7520 -0.0349
  126bbb    H12 3672   3.161   4.244   3.153  0.8689 -0.5485  0.2740
  126bbb     C7 3673   3.347   4.071   2.771 -0.0774  0.6709 -0.0957
  126bbb    H13 3674   3.240   4.049   2.777  0.0480  0.3493  1.3776
  126bbb    H14 3675   3.380   4.005   2.690 -0.4705 -0.4844  0.6549
  126bbb     C8 3676   2.944   4.234   3.176 -0.1144  0.3969 -0.7466
  126bbb    H15 3677   2.859   4.226   3.107 -0.1046  0.2683 -0.7447
  126bbb    H16 3678   2.951   4.343   3.189 -0.8298  0.4793 -1.0059
  126bbb     C9 3679   3.206   3.610   3.118 -0.2500 -0.4191  0.7320
  126bbb    H17 3680   3.115   3.605   3.057  0.3505  0.7764 -0.3007
  126bbb    H18 3681   3.172   3.573   3.216 -1.3053 -0.2961  0.4251
  126bbb     O1 3682   3.366   4.211   2.745 -0.3968 -0.4051 -0.6326
  127bbb     N1 3683   3.616   4.084   2.175 -0.8026  0.0858 -0.1285
  127bbb     C1 3684   3.596   4.076   2.322  0.1167 -0.4971  0.6981
  127bbb     H1 3685   3.561   4.174   2.356 -0.9955 -0.2292 -1.0644
  127bbb     H2 3686   3.691   4.046   2.369  0.0861 -0.3586  0.8496
  127bbb     C2 3687   3.661   3.954   2.120 -0.4587  0.2714  0.5076
  127bbb     H3 3688   3.586   3.879   2.149  0.0890  0.0491  1.3941
  127bbb     H4 3689   3.764   3.925   2.147 -0.9701 -1.2206  1.0047
  127bbb     C3 3690   3.704   4.194   2.130  0.4081 -0.5024 -0.0615
  127bbb     H5 3691   3.710   4.198   2.020  1.2461 -0.4834 -0.0273
  127bbb     H6 3692   3.805   4.183   2.171  0.7354 -0.4343 -0.8328
  127bbb     C4 3693   3.653   4.330   2.171 -0.2277  0.2093  0.6608
  127bbb     H7 3694   3.640   4.340   2.279  1.1828 -2.5191  1.1670
  127bbb     H8 3695   3.550   4.339   2.135 -0.8231  2.2849  2.6365
  127bbb     C5 3696   3.495   3.973   2.375  0.7669 -0.1959  0.7734
  127bbb     H9 3697   3.492   3.969   2.485 -0.6582  0.1232  0.7764
  127bbb    H10 3698   3.510   3.868   2.349 -0.9597 -0.4255  0.5551
  127bbb     C6 3699   3.691   3.946   1.966 -0.1195  0.3229 -0.5817
  127bbb    H11 3700   3.701   3.839   1.948 -1.3834 -0.2342  1.7581
  127bbb    H12 3701   3.785   3.995   1.936  0.0544 -1.1319 -2.6243
  127bbb     C7 3702   3.741   4.442   2.116  0.6354  0.3302 -0.5417
  127bbb    H13 3703   3.719   4.458   2.010 -0.5986 -1.7307 -0.6455
  127bbb    H14 3704   3.847   4.414   2.122  0.2415 -1.0140  1.1635
  127bbb     C8 3705   3.575   3.997   1.875 -0.0652 -0.2235  0.6209
  127bbb    H15 3706   3.615   3.984   1.774  0.9319 -1.8863  1.1864
  127bbb    H16 3707   3.564   4.105   1.891 -2.1186  0.0126 -1.6698
  127bbb     C9 3708   3.352   4.007   2.326  0.5441  0.2541  0.0876
  127bbb    H17 3709   3.343   3.975   2.221 -0.4432 -0.7542  0.4429
  127bbb    H18 3710   3.327   4.113   2.324  1.3329  0.4305 -0.8794
  127bbb     O1 3711   3.719   4.559   2.192 -0.2738  0.2557  0.0458
  128bbb     N1 3712   3.026   5.358   2.797  0.4431 -0.4051  0.2396
  128bbb     C1 3713   2.880   5.378   2.771 -0.5702  0.9800 -0.6158
  128bbb     H1 3714   2.860   5.332   2.674  1.6728  2.3333 -1.8022
  128bbb     H2 3715   2.856   5.485   2.762  1.3960  1.4845 -0.3496
  128bbb     C2 3716   3.061   5.404   2.933  0.7374 -0.7740 -0.9542
  128bbb     H3 3717   3.168   5.424   2.946  0.2568  0.0964  2.9529
  128bbb     H4 3718   3.025   5.330   3.007  0.6152  0.3016  0.0892
  128bbb     C3 3719   3.070   5.224   2.755  0.4353  0.1845  0.1752
  128bbb     H5 3720   3.047   5.215   2.648  2.3050 -2.1680 -0.1062
  128bbb     H6 3721   3.026   5.147   2.820  0.2910  2.4904  3.0313
  128bbb     C4 3722   3.221   5.199   2.771  0.2070  0.2217 -0.0986
  128bbb     H7 3723   3.239   5.193   2.879 -0.7398  2.9215  0.2946
  128bbb     H8 3724   3.271   5.291   2.737  0.6912 -0.5996 -1.6943
  128bbb     C5 3725   2.793   5.307   2.880 -0.1272 -0.0396 -0.6647
  128bbb     H9 3726   2.799   5.354   2.979 -2.1138 -1.3632  0.1440
  128bbb    H10 3727   2.834   5.208   2.903 -2.4576 -1.0664 -0.6484
  128bbb     C6 3728   3.002   5.547   2.973 -0.2890  0.3738  0.7542
  128bbb    H11 3729   3.027   5.564   3.078  0.7602  1.3982  0.3684
  128bbb    H12 3730   2.893   5.544   2.979 -0.2859 -0.7390  0.4203
  128bbb     C7 3731   3.289   5.084   2.692 -0.1951 -0.0993  0.7485
  128bbb    H13 3732   3.249   4.991   2.736  1.0135 -0.8620  0.2790
  128bbb    H14 3733   3.398   5.089   2.701 -0.0785 -1.1267  0.1460
  128bbb     C8 3734   3.049   5.670   2.877  0.5717  0.2062 -0.7711
  128bbb    H15 3735   2.982   5.752   2.903 -0.0143 -0.8133  1.1511
  128bbb    H16 3736   3.021   5.644   2.774 -0.6951  0.8703 -0.6041
  128bbb     C9 3737   2.648   5.292   2.844  0.3980 -0.2211  0.5715
  128bbb    H17 3738   2.660   5.262   2.739  1.5178 -0.1810  0.6834
  128bbb    H18 3739   2.594   5.388   2.846  1.1999  0.3077 -1.1982
  128bbb     O1 3740   3.261   5.095   2.546  0.2800 -0.1774  0.2864
  129bbb     N1 3741   3.188   5.780   1.685 -0.2389 -0.5816  0.1863
  129bbb     C1 3742   3.058   5.733   1.738 -0.4737 -0.1159  0.2867
  129bbb     H1 3743   3.020   5.806   1.811  2.2963  1.6008  0.1385
  129bbb     H2 3744   3.076   5.634   1.782 -0.2865  0.0376  0.5581
  129bbb     C2 3745   3.179   5.916   1.627  0.0369 -0.0243 -0.6039
  129bbb     H3 3746   3.193   5.995   1.702 -1.6229 -0.4430  0.2042
  129bbb     H4 3747   3.085   5.934   1.574  0.0792  2.8657  0.1546
  129bbb     C3 3748   3.284   5.770   1.793 -0.0860 -0.6479 -0.3375
  129bbb     H5 3749   3.242   5.816   1.884  0.3974  0.7601 -0.8045
  129bbb     H6 3750   3.372   5.833   1.778  0.0493 -0.3880  1.3668
  129bbb     C4 3751   3.342   5.631   1.818  0.0107 -1.2007 -0.3912
  129bbb     H7 3752   3.403   5.609   1.730  0.9313  1.0266 -0.3734
  129bbb     H8 3753   3.260   5.559   1.834 -0.1133 -0.9873 -0.0674
  129bbb     C5 3754   2.956   5.705   1.631  0.1964 -0.3661 -0.3377
  129bbb     H9 3755   2.989   5.623   1.566 -1.5706 -0.4007 -1.2595
  129bbb    H10 3756   2.954   5.789   1.561  0.7125  0.0082  0.0879
  129bbb     C6 3757   3.298   5.952   1.533 -0.0233  0.2535  0.1208
  129bbb    H11 3758   3.305   5.872   1.458 -2.8721 -0.6977  0.7314
  129bbb    H12 3759   3.396   5.936   1.579 -0.2914  0.7518  0.8882
  129bbb     C7 3760   3.433   5.624   1.943 -0.5829 -0.1247 -0.0632
  129bbb    H13 3761   3.510   5.702   1.930 -0.2836 -0.3237  0.4942
  129bbb    H14 3762   3.481   5.526   1.946  2.3128  1.1332 -1.0878
  129bbb     C8 3763   3.286   6.088   1.469 -0.5316 -0.1665  0.0069
  129bbb    H15 3764   3.302   6.161   1.549  2.1099 -1.7143  0.9954
  129bbb    H16 3765   3.192   6.108   1.416 -1.5194 -1.7972  1.0638
  129bbb     C9 3766   2.812   5.684   1.678 -0.3917  0.0551 -0.4254
  129bbb    H17 3767   2.739   5.669   1.598 -0.8795  2.4251 -0.4820
  129bbb    H18 3768   2.780   5.779   1.721  2.5103  1.3930 -0.9708
  129bbb     O1 3769   3.344   5.661   2.050  0.1117 -0.7103 -0.5625
  130bbb     N1 3770   4.588   2.714   2.819  0.0926 -0.2709  0.6201
  130bbb     C1 3771   4.490   2.679   2.926  0.3959 -0.1879  0.1264
  130bbb     H1 3772   4.533   2.596   2.982 -1.2808 -1.5335 -0.4852
  130bbb     H2 3773   4.403   2.627   2.883  0.8274  1.6322 -3.3269
  130bbb     C2 3774   4.626   2.587   2.742 -0.0574 -0.2998  0.5132
  130bbb     H3 3775   4.544   2.543   2.685  2.0367 -1.5659 -1.6761
  130bbb     H4 3776   4.656   2.507   2.810 -0.7372 -1.7180 -0.8090
  130bbb     C3 3777   4.548   2.828   2.731 -0.4033 -0.1036 -0.3940
  130bbb     H5 3778   4.634   2.870   2.677 -1.3037  2.0684 -0.2388
  130bbb     H6 3779   4.541   2.920   2.791 -0.6421  1.1053 -2.1991
  130bbb     C4 3780   4.414   2.792   2.658  0.5585 -0.6799  0.1914
  130bbb     H7 3781   4.331   2.766   2.725  0.7762 -2.6292 -0.2473
  130bbb     H8 3782   4.438   2.707   2.594  0.9981 -0.4756  0.0846
  130bbb     C5 3783   4.445   2.798   3.016  0.2121 -0.1086  0.5914
  130bbb     H9 3784   4.378   2.757   3.092  0.1652  0.0949  0.6621
  130bbb    H10 3785   4.385   2.868   2.955 -0.7528 -2.5147 -1.3833
  130bbb     C6 3786   4.744   2.605   2.641 -1.0918 -0.1789 -0.0514
  130bbb    H11 3787   4.748   2.697   2.581  0.2544 -0.4920 -0.4603
  130bbb    H12 3788   4.750   2.526   2.565 -0.0367 -0.8216  0.6713
  130bbb     C7 3789   4.371   2.913   2.575  0.1034  1.0111  0.6354
  130bbb    H13 3790   4.278   2.880   2.528  0.7790  0.1402 -0.1437
  130bbb    H14 3791   4.438   2.937   2.491 -0.2669  1.0748  0.3540
  130bbb     C8 3792   4.872   2.590   2.725  0.7422 -0.0125  0.8292
  130bbb    H15 3793   4.863   2.503   2.791 -1.0540  1.7769  3.1507
  130bbb    H16 3794   4.875   2.676   2.794 -3.1607 -0.1260  1.3938
  130bbb     C9 3795   4.558   2.867   3.094  0.0874  0.4239 -0.5131
  130bbb    H17 3796   4.533   2.969   3.124  0.2207  0.1429  0.6096
  130bbb    H18 3797   4.652   2.872   3.037  1.7963 -2.4557  1.7428
  130bbb     O1 3798   4.340   3.014   2.665  0.2730 -0.0615 -0.2288
  131bbb     N1 3799   3.846   2.637   2.120  0.3836 -0.2399  0.5097
  131bbb     C1 3800   3.832   2.602   1.980 -0.6189 -0.9819 -0.0193
  131bbb     H1 3801   3.762   2.520   1.962 -2.9478  1.3280 -2.5096
  131bbb     H2 3802   3.930   2.575   1.939  1.7238  0.6960  3.9289
  131bbb     C2 3803   3.770   2.546   2.202 -0.1238 -0.1317  0.4411
  131bbb     H3 3804   3.812   2.445   2.196 -0.3016 -0.1624 -0.3191
  131bbb     H4 3805   3.668   2.536   2.163  0.2165  1.5743 -0.9509
  131bbb     C3 3806   3.991   2.644   2.155  0.3242  0.1213 -0.6990
  131bbb     H5 3807   4.031   2.546   2.125  0.4465  0.4461 -1.6011
  131bbb     H6 3808   3.999   2.645   2.265 -0.7216  1.3043 -0.6157
  131bbb     C4 3809   4.067   2.762   2.099  0.4535 -0.4258 -0.2018
  131bbb     H7 3810   4.064   2.766   1.989  1.0576 -0.9669 -0.2452
  131bbb     H8 3811   4.172   2.770   2.131  0.2025  2.3628  0.2141
  131bbb     C5 3812   3.753   2.720   1.904  0.2224  0.7060 -0.6547
  131bbb     H9 3813   3.815   2.810   1.910 -0.8092  1.7476 -3.6925
  131bbb    H10 3814   3.655   2.732   1.952 -0.4432  1.3993 -2.1275
  131bbb     C6 3815   3.765   2.582   2.353 -0.0308  1.2432  0.2245
  131bbb    H11 3816   3.865   2.578   2.399 -1.5256  2.5873  3.9037
  131bbb    H12 3817   3.705   2.503   2.400  0.4162  1.2473  0.8207
  131bbb     C7 3818   4.008   2.899   2.137 -0.2594  1.4298 -0.6309
  131bbb    H13 3819   4.012   2.918   2.245  0.9504  1.5282 -0.6883
  131bbb    H14 3820   3.902   2.889   2.111 -0.3992 -1.3397  0.7090
  131bbb     C8 3821   3.706   2.722   2.381  0.5462 -0.0837  0.1503
  131bbb    H15 3822   3.603   2.728   2.342 -0.5358 -1.6474  2.5031
  131bbb    H16 3823   3.765   2.795   2.324 -1.0212  1.7756  0.8047
  131bbb     C9 3824   3.727   2.683   1.762 -0.1091 -0.0764  0.0730
  131bbb    H17 3825   3.666   2.593   1.748 -0.9474  0.5351 -0.2595
  131bbb    H18 3826   3.817   2.631   1.724 -0.3303 -1.4508  1.3635
  131bbb     O1 3827   4.066   3.006   2.065 -0.0711  0.4398  0.5059
  132bbb     N1 3828   4.767   4.940   3.883  0.4448  0.2925  0.1245
  132bbb     C1 3829   4.791   4.977   4.016  0.0313 -0.3919 -0.4682
  132bbb     H1 3830   4.821   4.890   4.075  0.0216  0.5847  1.0526
  132bbb     H2 3831   4.692   5.011   4.049 -0.3408 -1.8055 -0.0528
  132bbb     C2 3832   4.688   5.024   3.787  1.0402  0.5191 -0.5737
  132bbb     H3 3833   4.658   4.963   3.700 -1.0843  4.2155 -2.6731
  132bbb     H4 3834   4.741   5.114   3.756 -0.8873  2.3742  1.1699
  132bbb     C3 3835   4.874   4.859   3.817 -0.0301  0.5079  0.1218
  132bbb     H5 3836   4.955   4.923   3.780  0.8193 -1.6586 -1.9910
  132bbb     H6 3837   4.839   4.813   3.724  2.5220 -0.4119 -0.4855
  132bbb     C4 3838   4.937   4.760   3.912 -0.5657 -0.2228  0.3422
  132bbb     H7 3839   4.861   4.709   3.973 -2.1683  2.2839  0.5809
  132bbb     H8 3840   5.012   4.808   3.977 -0.5537  0.6066 -0.2722
  132bbb     C5 3841   4.889   5.098   4.016 -0.7737 -0.3130  0.4307
  132bbb     H9 3842   4.862   5.169   3.937 -1.2889 -0.4739  0.4559
  132bbb    H10 3843   4.988   5.065   3.984 -0.5780  0.4644  0.2176
  132bbb     C6 3844   4.555   5.078   3.838  0.3613 -0.3634  0.3414
  132bbb    H11 3845   4.572   5.150   3.918 -1.2043 -0.5382  0.8766
  132bbb    H12 3846   4.495   5.000   3.886 -0.6808 -0.0817 -0.4701
  132bbb     C7 3847   5.019   4.664   3.829  0.2786 -0.4225 -0.0002
  132bbb    H13 3848   5.069   4.603   3.905 -1.5262  1.9771  3.4347
  132bbb    H14 3849   5.091   4.717   3.766  1.3957 -0.7308  0.9786
  132bbb     C8 3850   4.480   5.158   3.727  0.2236 -0.4374  0.5824
  132bbb    H15 3851   4.480   5.088   3.642 -0.8714  1.7372 -1.3274
  132bbb    H16 3852   4.528   5.251   3.694 -1.8873  1.2358  1.9112
  132bbb     C9 3853   4.884   5.173   4.146  0.0559 -0.0915 -0.1825
  132bbb    H17 3854   4.973   5.235   4.160  0.6410 -1.1220  0.8334
  132bbb    H18 3855   4.884   5.107   4.234  0.1404  0.7269  0.4558
  132bbb     O1 3856   4.924   4.585   3.756 -0.1668  0.1643 -0.4480
  133bbb     N1 3857   4.144   4.160   3.978 -0.7720 -1.0104 -0.3629
  133bbb     C1 3858   4.020   4.115   4.031 -0.3952  0.0901 -0.4611
  133bbb     H1 3859   4.044   4.041   4.108 -0.6519  1.1275  0.6374
  133bbb     H2 3860   3.957   4.057   3.962 -0.7527  0.5704 -0.5365
  133bbb     C2 3861   4.150   4.239   3.854  0.4222 -0.2719  0.2518
  133bbb     H3 3862   4.253   4.249   3.817 -0.2573  1.4072 -1.3890
  133bbb     H4 3863   4.115   4.342   3.867  0.0863 -0.6000  2.2208
  133bbb     C3 3864   4.244   4.222   4.072  0.1387 -0.2916 -0.0069
  133bbb     H5 3865   4.192   4.310   4.113 -1.4962 -0.5657 -1.3651
  133bbb     H6 3866   4.340   4.244   4.023 -0.2764 -0.7130 -1.0378
  133bbb     C4 3867   4.283   4.131   4.192 -0.0894  0.2397  0.1666
  133bbb     H7 3868   4.191   4.120   4.251  0.2745  0.5097  0.7911
  133bbb     H8 3869   4.363   4.162   4.259 -0.8837 -1.5617  2.0679
  133bbb     C5 3870   3.932   4.221   4.090 -0.2444 -0.5930  0.2433
  133bbb     H9 3871   3.902   4.289   4.009 -1.7048  1.2067  2.1915
  133bbb    H10 3872   3.992   4.289   4.152 -0.8713 -0.4687  0.7130
  133bbb     C6 3873   4.066   4.184   3.740  0.3001  0.5770 -0.2155
  133bbb    H11 3874   3.960   4.177   3.767  0.5022  0.3214  0.5534
  133bbb    H12 3875   4.103   4.084   3.715 -1.5777  0.2105 -1.7376
  133bbb     C7 3876   4.334   3.991   4.147  0.0072  0.7245 -0.1932
  133bbb    H13 3877   4.252   3.923   4.119  1.7683 -1.5994 -0.0266
  133bbb    H14 3878   4.381   3.940   4.232 -2.0514 -0.1888  0.4449
  133bbb     C8 3879   4.074   4.258   3.607 -0.2552  0.1126 -1.0788
  133bbb    H15 3880   4.175   4.232   3.572  1.3347  2.6531  1.1945
  133bbb    H16 3881   4.069   4.366   3.623  0.0432  0.0389 -0.4682
  133bbb     C9 3882   3.814   4.168   4.165 -0.1572  0.1542  0.0369
  133bbb    H17 3883   3.769   4.260   4.205 -0.7285  0.5350 -1.4201
  133bbb    H18 3884   3.849   4.102   4.245 -0.8888 -0.1688  0.0989
  133bbb     O1 3885   4.431   4.000   4.035  0.3550  0.9411  0.2265
  134bbb     N1 3886   5.585   4.180   0.207  0.2443  0.6358 -0.5601
  134bbb     C1 3887   5.438   4.164   0.199 -0.0613  0.4264 -0.3686
  134bbb     H1 3888   5.388   4.230   0.271  2.2665 -0.6438  2.4507
  134bbb     H2 3889   5.410   4.060   0.220  1.2463  0.1773  0.2226
  134bbb     C2 3890   5.632   4.180   0.351 -0.3175 -0.4294 -0.1533
  134bbb     H3 3891   5.735   4.220   0.347 -1.4104  2.6401 -0.4778
  134bbb     H4 3892   5.652   4.079   0.389  0.8378  0.5166  1.9574
  134bbb     C3 3893   5.658   4.083   0.121  0.5936  0.3034  0.4538
  134bbb     H5 3894   5.594   4.045   0.040 -0.6370  1.0179  1.0594
  134bbb     H6 3895   5.678   3.991   0.178  2.9944  0.1912 -0.4667
  134bbb     C4 3896   5.796   4.135   0.074  0.0865  0.2617  0.2478
  134bbb     H7 3897   5.845   4.056   0.016  2.1894  0.9747  0.9661
  134bbb     H8 3898   5.855   4.151   0.165 -1.6646  2.5228  1.0874
  134bbb     C5 3899   5.386   4.195   0.057  0.1361 -0.0102 -0.3720
  134bbb     H9 3900   5.279   4.170   0.062 -0.5578  2.8325  1.5207
  134bbb    H10 3901   5.419   4.139  -0.031  2.1344  2.2864 -1.1913
  134bbb     C6 3902   5.553   4.259   0.452 -0.0820  0.0136  0.0055
  134bbb    H11 3903   5.454   4.214   0.466  0.4725 -2.1024 -2.2692
  134bbb    H12 3904   5.548   4.361   0.412  2.5676  0.6294  1.0232
  134bbb     C7 3905   5.781   4.265  -0.012  0.6667  1.1894 -0.8557
  134bbb    H13 3906   5.678   4.298   0.006 -0.4714 -1.2543 -2.3348
  134bbb    H14 3907   5.795   4.229  -0.115 -1.0264  1.3969 -1.1782
  134bbb     C8 3908   5.631   4.262   0.586  0.8804 -0.6592  0.5637
  134bbb    H15 3909   5.580   4.326   0.659  2.8669  0.7799  0.7669
  134bbb    H16 3910   5.732   4.305   0.581  0.8354 -0.4407  1.4660
  134bbb     C9 3911   5.399   4.344   0.021 -0.3603 -0.4102 -0.1702
  134bbb    H17 3912   5.507   4.361   0.008 -0.0904 -0.8527  1.2848
  134bbb    H18 3913   5.372   4.404   0.109 -2.0077  0.0274 -0.9373
  134bbb     O1 3914   5.881   4.365   0.030 -0.2529  0.2382 -0.0571
  135bbb     N1 3915   5.590   5.470  -0.206 -0.2129 -0.2913 -0.0125
  135bbb     C1 3916   5.582   5.562  -0.095  0.1947  0.3467 -0.4011
  135bbb     H1 3917   5.671   5.625  -0.097 -0.1464  0.8417 -0.1818
  135bbb     H2 3918   5.590   5.514   0.004 -0.3186 -0.2210 -0.6275
  135bbb     C2 3919   5.473   5.376  -0.226  0.5718 -0.2052  0.2294
  135bbb     H3 3920   5.481   5.322  -0.321 -0.5367 -1.9061  1.0385
  135bbb     H4 3921   5.380   5.433  -0.237  0.3137 -0.7750 -0.6847
  135bbb     C3 3922   5.731   5.409  -0.212  0.3120  0.5943 -0.2898
  135bbb     H5 3923   5.764   5.355  -0.123  2.2466  0.3597 -1.1082
  135bbb     H6 3924   5.799   5.495  -0.218 -1.7429  2.2137 -2.0513
  135bbb     C4 3925   5.761   5.320  -0.336 -0.2418  0.2744  0.1979
  135bbb     H7 3926   5.756   5.381  -0.427 -0.2122 -0.9902 -0.6884
  135bbb     H8 3927   5.698   5.233  -0.357 -0.7273  0.9345 -1.2077
  135bbb     C5 3928   5.460   5.661  -0.095  0.1916  0.0997  1.2352
  135bbb     H9 3929   5.466   5.733  -0.013  0.4617  0.4025  0.9501
  135bbb    H10 3930   5.372   5.596  -0.090 -0.5809  0.6140 -2.4731
  135bbb     C6 3931   5.448   5.267  -0.118  0.3096 -0.4489  0.1624
  135bbb    H11 3932   5.485   5.305  -0.022 -0.6787  0.5423  0.1691
  135bbb    H12 3933   5.504   5.177  -0.147  0.0183 -1.0052  1.2598
  135bbb     C7 3934   5.908   5.273  -0.333 -0.4123 -0.3065  0.3306
  135bbb    H13 3935   5.979   5.355  -0.347  0.6072 -0.8664  1.9056
  135bbb    H14 3936   5.930   5.203  -0.415 -1.0054  1.2574 -1.2188
  135bbb     C8 3937   5.296   5.233  -0.092 -0.0130 -0.5386 -0.4509
  135bbb    H15 3938   5.289   5.143  -0.029 -1.7177 -0.0060  0.2003
  135bbb    H16 3939   5.256   5.205  -0.190 -0.3909  2.4357 -1.2237
  135bbb     C9 3940   5.461   5.735  -0.231 -0.1320 -0.1389 -0.4783
  135bbb    H17 3941   5.463   5.659  -0.311  1.2306 -0.8284  0.1681
  135bbb    H18 3942   5.553   5.795  -0.236 -0.8438  1.0389  0.3780
  135bbb     O1 3943   5.947   5.215  -0.206  0.7363  0.1783  0.1821
  136bbb     N1 3944   5.882   5.004   1.413 -0.3649 -0.0386 -0.1884
  136bbb     C1 3945   5.943   5.132   1.366 -0.3512  0.0613 -0.4729
  136bbb     H1 3946   5.947   5.131   1.257  0.0592  0.2868 -0.4596
  136bbb     H2 3947   6.048   5.133   1.399 -0.8489 -0.5117  1.2740
  136bbb     C2 3948   5.885   4.985   1.561 -0.1830 -0.5355 -0.1793
  136bbb     H3 3949   5.836   5.069   1.613 -1.5159 -0.1276 -1.9964
  136bbb     H4 3950   5.986   4.983   1.604 -0.6344  0.5843  1.0073
  136bbb     C3 3951   5.925   4.880   1.333  0.1025 -0.4394  0.2108
  136bbb     H5 3952   5.860   4.800   1.370  0.8898 -1.1093  0.1935
  136bbb     H6 3953   6.031   4.854   1.349  0.4405  1.5808  1.6325
  136bbb     C4 3954   5.884   4.886   1.182  0.2214 -0.5916  0.3714
  136bbb     H7 3955   5.956   4.939   1.117 -1.0516  0.9824  0.1765
  136bbb     H8 3956   5.793   4.947   1.172  1.0404  1.0084  2.1125
  136bbb     C5 3957   5.891   5.279   1.413 -0.0934  0.2316 -0.2571
  136bbb     H9 3958   5.876   5.288   1.522  1.6106  1.2672 -0.0706
  136bbb    H10 3959   5.785   5.277   1.383 -0.3237 -3.6243  0.2886
  136bbb     C6 3960   5.802   4.867   1.616 -0.3270 -0.5959  0.2507
  136bbb    H11 3961   5.709   4.852   1.560  0.0585  1.3404 -1.0289
  136bbb    H12 3962   5.767   4.890   1.717  2.1023 -2.7945  1.7432
  136bbb     C7 3963   5.854   4.749   1.126 -0.2152 -0.0262 -0.2523
  136bbb    H13 3964   5.835   4.761   1.019  0.3402  0.6415 -0.2895
  136bbb    H14 3965   5.760   4.723   1.176 -1.2660  1.1657 -1.5358
  136bbb     C8 3966   5.892   4.744   1.622  0.1344  0.0624 -0.5673
  136bbb    H15 3967   5.930   4.706   1.526  1.2141  2.0633 -0.9688
  136bbb    H16 3968   5.836   4.659   1.665 -2.0164  1.1433 -1.0649
  136bbb     C9 3969   5.962   5.409   1.355  0.0039  0.1576  0.6785
  136bbb    H17 3970   5.885   5.487   1.363 -0.2078  0.3043 -1.8138
  136bbb    H18 3971   5.981   5.397   1.248 -1.1572 -0.5510  0.5273
  136bbb     O1 3972   5.952   4.650   1.144 -0.4889  0.0800  0.1193
  137bbb     N1 3973   5.661   4.715   0.782 -0.2232 -0.3523 -1.3670
  137bbb     C1 3974   5.584   4.608   0.836  0.2676  0.4083 -0.7400
  137bbb     H1 3975   5.511   4.573   0.763 -0.0017  1.4226 -0.9754
  137bbb     H2 3976   5.539   4.648   0.928  0.2481 -0.7361 -0.2284
  137bbb     C2 3977   5.572   4.836   0.755 -0.8544 -0.5590 -1.0713
  137bbb     H3 3978   5.519   4.825   0.660  0.5243  1.1016 -2.0831
  137bbb     H4 3979   5.639   4.922   0.743 -1.6176  0.0881 -0.8204
  137bbb     C3 3980   5.731   4.673   0.660 -0.7587 -0.7244  0.4323
  137bbb     H5 3981   5.651   4.654   0.588  0.8734  0.6660 -1.8534
  137bbb     H6 3982   5.792   4.585   0.685  0.5536  0.1270  0.3211
  137bbb     C4 3983   5.825   4.783   0.608  0.0874 -0.1565  0.3175
  137bbb     H7 3984   5.875   4.841   0.687 -0.4414  2.5432 -1.1970
  137bbb     H8 3985   5.766   4.864   0.563 -1.3892 -0.1234  2.1835
  137bbb     C5 3986   5.644   4.484   0.908 -0.1813 -0.0830  0.0250
  137bbb     H9 3987   5.722   4.523   0.974 -0.0352 -1.0252  0.4173
  137bbb    H10 3988   5.694   4.428   0.828 -1.5528  0.4349 -1.2553
  137bbb     C6 3989   5.478   4.871   0.869  0.4743  0.4165 -0.2954
  137bbb    H11 3990   5.541   4.872   0.959 -1.8149  0.4055  1.3773
  137bbb    H12 3991   5.397   4.797   0.874  1.3050 -0.4715  0.8074
  137bbb     C7 3992   5.926   4.728   0.508 -0.1491 -0.1771  0.2869
  137bbb    H13 3993   5.976   4.806   0.449 -1.1554  0.7796  0.6657
  137bbb    H14 3994   5.876   4.654   0.444  0.1274 -1.3482  1.3603
  137bbb     C8 3995   5.434   5.018   0.863  0.3216 -0.2476  0.2777
  137bbb    H15 3996   5.517   5.076   0.821 -0.2846  0.5832  0.2012
  137bbb    H16 3997   5.423   5.043   0.969 -1.2998 -0.7061  0.2456
  137bbb     C9 3998   5.538   4.388   0.980 -0.1319 -0.6320  0.4528
  137bbb    H17 3999   5.489   4.439   1.064  0.4812  2.3707 -0.8508
  137bbb    H18 4000   5.585   4.300   1.025 -1.1249 -1.6675 -0.4775
  137bbb     O1 4001   6.017   4.640   0.582 -0.2041 -0.9852 -0.1453
  138bbb     N1 4002   5.955   3.552   2.359  0.0993 -0.9656  0.4789
  138bbb     C1 4003   5.952   3.672   2.437  0.6318  0.5371 -0.8579
  138bbb     H1 4004   6.026   3.743   2.398 -0.2211  1.6365 -0.5477
  138bbb     H2 4005   5.989   3.653   2.539 -1.1170  0.0514 -0.2693
  138bbb     C2 4006   5.921   3.429   2.428 -0.2066 -0.3482 -0.1856
  138bbb     H3 4007   5.971   3.425   2.525 -2.8718 -0.0104  1.2783
  138bbb     H4 4008   5.966   3.347   2.370  0.0980  0.7234 -1.5225
  138bbb     C3 4009   5.909   3.554   2.220  0.1028  0.3231  0.6764
  138bbb     H5 4010   5.802   3.575   2.211 -0.0799 -0.1870  1.5450
  138bbb     H6 4011   5.922   3.455   2.175  1.3612  1.1708 -0.9597
  138bbb     C4 4012   5.971   3.669   2.132 -0.0396  0.8459  0.0200
  138bbb     H7 4013   6.059   3.704   2.188 -0.1710  0.2495  0.6147
  138bbb     H8 4014   5.895   3.743   2.105 -2.1174 -1.7942 -1.8599
  138bbb     C5 4015   5.821   3.748   2.449 -0.2581  0.1151 -0.0644
  138bbb     H9 4016   5.748   3.707   2.520  0.8779 -0.5719  0.7287
  138bbb    H10 4017   5.772   3.752   2.351  0.6427  1.0390 -0.4966
  138bbb     C6 4018   5.766   3.407   2.446  0.4882  0.3408  0.5051
  138bbb    H11 4019   5.715   3.437   2.353  0.6079  3.4226  1.3463
  138bbb    H12 4020   5.728   3.484   2.514 -1.2725  2.3997 -2.5745
  138bbb     C7 4021   6.017   3.608   1.995  0.3851  0.1725  0.3784
  138bbb    H13 4022   5.937   3.553   1.944  0.1065  1.2841 -0.4309
  138bbb    H14 4023   6.094   3.533   2.016 -0.0967 -1.1026 -2.0145
  138bbb     C8 4024   5.722   3.259   2.490  0.5238  0.0494 -0.3099
  138bbb    H15 4025   5.714   3.187   2.407 -1.6588  0.6154 -0.6643
  138bbb    H16 4026   5.618   3.271   2.523  1.1128 -0.3363  1.8683
  138bbb     C9 4027   5.854   3.890   2.496  0.1519  0.7452  0.1171
  138bbb    H17 4028   5.928   3.933   2.428  0.7836  0.2324  0.4598
  138bbb    H18 4029   5.909   3.883   2.591 -1.4554 -1.5498  0.9854
  138bbb     O1 4030   6.070   3.714   1.919 -0.6366 -0.0288 -0.0083
  139bbb     N1 4031   6.461   3.838   2.392 -0.3556 -0.6738 -0.2041
  139bbb     C1 4032   6.359   3.906   2.478 -0.4118 -0.1658 -0.0203
  139bbb     H1 4033   6.297   3.824   2.518 -2.8488  1.8561  0.6440
  139bbb     H2 4034   6.293   3.973   2.421 -1.5464 -1.2139  0.0180
  139bbb     C2 4035   6.556   3.740   2.460 -0.7276 -0.3118  0.1534
  139bbb     H3 4036   6.605   3.783   2.548 -2.8829 -1.4974  2.0092
  139bbb     H4 4037   6.640   3.728   2.390 -2.1182 -0.3525 -1.5874
  139bbb     C3 4038   6.409   3.777   2.269  0.1462 -0.1117  0.2845
  139bbb     H5 4039   6.347   3.690   2.292 -0.0974 -0.2379 -0.7867
  139bbb     H6 4040   6.493   3.735   2.211 -1.2996 -2.0595 -0.5059
  139bbb     C4 4041   6.326   3.864   2.179 -0.4048  0.3987  0.3008
  139bbb     H7 4042   6.235   3.891   2.234 -1.2828  1.3512 -1.5134
  139bbb     H8 4043   6.290   3.812   2.089  1.5842  1.2629 -1.0542
  139bbb     C5 4044   6.406   3.987   2.602  0.5437 -0.3169  0.1496
  139bbb     H9 4045   6.460   3.918   2.668 -0.3849 -0.9376  0.2724
  139bbb    H10 4046   6.321   4.023   2.660  0.0578 -0.8818 -0.2060
  139bbb     C6 4047   6.500   3.604   2.510  0.4425 -0.5863 -0.0124
  139bbb    H11 4048   6.482   3.550   2.416  1.3964  0.2757 -0.7159
  139bbb    H12 4049   6.418   3.621   2.581  3.2957  0.8102  3.2595
  139bbb     C7 4050   6.400   3.995   2.152 -0.0294 -0.6132  0.4829
  139bbb    H13 4051   6.507   3.973   2.138 -0.1196 -1.1417  0.6037
  139bbb    H14 4052   6.379   4.049   2.245 -1.2622 -1.2984  0.6203
  139bbb     C8 4053   6.614   3.526   2.588 -0.4077 -0.4870  0.3326
  139bbb    H15 4054   6.672   3.590   2.656  0.3032 -2.0320  1.2335
  139bbb    H16 4055   6.686   3.480   2.519  1.4405  1.6136  0.7487
  139bbb     C9 4056   6.493   4.107   2.571  0.4489  0.2333  0.3463
  139bbb    H17 4057   6.580   4.081   2.510  0.7673 -1.2011  1.3645
  139bbb    H18 4058   6.523   4.143   2.671 -1.1503  2.8048  0.0080
  139bbb     O1 4059   6.348   4.056   2.027  0.0513 -0.4465  0.1987
  140bbb     N1 4060   4.656   3.349   2.140  0.4802 -0.6060  0.1710
  140bbb     C1 4061   4.673   3.269   2.264  0.2333  0.2694 -0.3011
  140bbb     H1 4062   4.762   3.205   2.255 -0.8701 -1.1859 -1.1066
  140bbb     H2 4063   4.587   3.202   2.267 -0.3026  0.9780  0.9283
  140bbb     C2 4064   4.605   3.271   2.024  0.9411 -0.1317  0.2183
  140bbb     H3 4065   4.554   3.181   2.062  1.4490 -1.1157 -1.3358
  140bbb     H4 4066   4.688   3.244   1.958  2.8030  1.1259  1.9114
  140bbb     C3 4067   4.753   3.452   2.104 -0.6511 -0.3182  0.4243
  140bbb     H5 4068   4.766   3.524   2.186 -0.1465 -1.9582  1.8764
  140bbb     H6 4069   4.724   3.503   2.012 -2.2624 -1.2084  0.4009
  140bbb     C4 4070   4.887   3.385   2.069 -0.6389 -0.9240  0.6980
  140bbb     H7 4071   4.888   3.313   1.986  1.8303 -1.1049  0.7984
  140bbb     H8 4072   4.912   3.321   2.155 -1.1923 -0.0948  1.4972
  140bbb     C5 4073   4.686   3.349   2.398 -0.2366 -0.3921 -0.6359
  140bbb     H9 4074   4.594   3.405   2.420  0.4329 -0.4621  2.8213
  140bbb    H10 4075   4.770   3.419   2.394  1.2343 -2.1356 -2.5368
  140bbb     C6 4076   4.513   3.355   1.936  0.3527 -0.3930  0.3454
  140bbb    H11 4077   4.557   3.451   1.906 -0.6467  0.1115  0.4706
  140bbb    H12 4078   4.426   3.380   1.997 -0.7716 -0.5712 -1.1284
  140bbb     C7 4079   4.990   3.494   2.061 -0.1029  0.1538  0.5293
  140bbb    H13 4080   5.054   3.487   2.150 -0.7299  3.6609  1.4140
  140bbb    H14 4081   4.945   3.594   2.054  2.0473  1.0938 -1.5885
  140bbb     C8 4082   4.461   3.290   1.809 -0.4240  0.0092 -0.3937
  140bbb    H15 4083   4.538   3.264   1.735 -2.2280  0.4127 -2.5222
  140bbb    H16 4084   4.407   3.368   1.754  1.0749  1.1980 -0.2408
  140bbb     C9 4085   4.707   3.250   2.519 -0.1652  0.5570  0.2389
  140bbb    H17 4086   4.625   3.178   2.528  0.8889 -0.8074 -0.6324
  140bbb    H18 4087   4.707   3.306   2.613  1.7645  2.2393 -0.6869
  140bbb     O1 4088   5.072   3.476   1.944  0.1539  0.2672  0.0196
  141bbb     N1 4089   5.974   2.817   2.266 -0.2053  0.2010 -0.3686
  141bbb     C1 4090   5.859   2.761   2.192 -0.6785  0.0229 -0.3624
  141bbb     H1 4091   5.768   2.804   2.236 -1.0869 -1.9272  0.8068
  141bbb     H2 4092   5.855   2.653   2.210 -1.2425 -0.1561 -1.5334
  141bbb     C2 4093   5.976   2.813   2.420  0.0393  0.3205 -0.2920
  141bbb     H3 4094   5.892   2.866   2.468  0.4574  0.8008 -0.0855
  141bbb     H4 4095   6.059   2.874   2.457 -2.1051  4.6053 -1.8353
  141bbb     C3 4096   6.018   2.950   2.226  0.2556 -1.1497 -0.1242
  141bbb     H5 4097   6.058   2.950   2.124  2.0792  2.9133  0.3915
  141bbb     H6 4098   6.109   2.985   2.277  1.2199  1.6780 -3.3609
  141bbb     C4 4099   5.899   3.056   2.242 -0.5021 -0.4633 -0.2073
  141bbb     H7 4100   5.900   3.096   2.344  1.5970 -0.1902 -0.2933
  141bbb     H8 4101   5.803   3.006   2.226 -0.5823  0.2260 -2.0726
  141bbb     C5 4102   5.862   2.777   2.034  0.7550  0.1470 -0.1298
  141bbb     H9 4103   5.961   2.737   2.007  1.0649  0.1277  0.9777
  141bbb    H10 4104   5.857   2.880   1.996  1.2252 -0.5750 -2.3332
  141bbb     C6 4105   5.977   2.674   2.486  0.1883  0.3476 -0.1579
  141bbb    H11 4106   5.904   2.604   2.445  0.3030 -1.2108  2.0787
  141bbb    H12 4107   5.944   2.688   2.590 -3.2372  1.7288 -1.2900
  141bbb     C7 4108   5.905   3.167   2.146 -0.0443  0.1817  0.2405
  141bbb    H13 4109   5.926   3.122   2.048  1.4783  3.0760 -0.8849
  141bbb    H14 4110   5.991   3.225   2.182  1.6049 -2.1493  0.2038
  141bbb     C8 4111   6.109   2.604   2.493 -0.5322  0.0273 -0.7810
  141bbb    H15 4112   6.135   2.580   2.390 -3.0871  0.3362 -1.5564
  141bbb    H16 4113   6.100   2.510   2.549  3.9434 -0.7214 -0.9092
  141bbb     C9 4114   5.757   2.682   1.974 -0.2162 -0.3910  1.1335
  141bbb    H17 4115   5.799   2.581   1.977  0.4030 -0.1513  0.6500
  141bbb    H18 4116   5.731   2.705   1.870 -0.2980  1.0524  1.4554
  141bbb     O1 4117   5.779   3.236   2.146 -0.8876  0.0018  0.0152
  142bbb     N1 4118   5.213   8.240   1.230  0.3992  0.2985  0.2834
  142bbb     C1 4119   5.091   8.292   1.159 -0.1443 -0.2084 -0.0439
  142bbb     H1 4120   5.027   8.210   1.122 -1.7840  1.9651 -2.3577
  142bbb     H2 4121   5.129   8.339   1.068 -1.2486 -0.8085 -0.8365
  142bbb     C2 4122   5.312   8.355   1.252  0.1608  0.1180  0.6131
  142bbb     H3 4123   5.270   8.441   1.305  0.7824 -0.3123  1.8546
  142bbb     H4 4124   5.344   8.393   1.154 -1.2689  1.0231  0.4748
  142bbb     C3 4125   5.274   8.123   1.157 -0.1032  0.0797  0.7944
  142bbb     H5 4126   5.199   8.044   1.142 -0.0015  0.2043 -0.4799
  142bbb     H6 4127   5.341   8.075   1.229  0.9387 -0.1929 -0.3325
  142bbb     C4 4128   5.335   8.145   1.020 -0.2568  0.3189 -0.1384
  142bbb     H7 4129   5.412   8.223   1.014  0.7391 -0.6933 -0.8607
  142bbb     H8 4130   5.254   8.169   0.949 -1.5318  0.0982  1.2028
  142bbb     C5 4131   4.994   8.377   1.233 -0.0182  0.0579 -0.7759
  142bbb     H9 4132   5.034   8.468   1.281 -0.8699 -1.0060  2.1504
  142bbb    H10 4133   4.968   8.310   1.315 -2.3586 -0.6062 -1.9802
  142bbb     C6 4134   5.435   8.310   1.338 -0.1771 -0.6980  1.4062
  142bbb    H11 4135   5.509   8.271   1.267 -1.3752  0.0372 -0.3288
  142bbb    H12 4136   5.408   8.229   1.406 -1.1353 -1.5271  0.0864
  142bbb     C7 4137   5.397   8.021   0.957  0.6960  1.1164  0.4620
  142bbb    H13 4138   5.486   7.987   1.012  0.6461 -2.3331 -1.3085
  142bbb    H14 4139   5.439   8.039   0.857  2.6401 -1.4167  0.6989
  142bbb     C8 4140   5.493   8.430   1.411 -0.3035 -0.8086  1.0023
  142bbb    H15 4141   5.408   8.480   1.461  0.0303  1.3703 -0.4575
  142bbb    H16 4142   5.528   8.508   1.342  1.4988 -0.7003  1.9900
  142bbb     C9 4143   4.864   8.410   1.156  0.4894  1.1871 -0.4148
  142bbb    H17 4144   4.805   8.481   1.216  1.0926  0.8709  0.5784
  142bbb    H18 4145   4.804   8.318   1.149  2.6746 -0.4208  0.6195
  142bbb     O1 4146   5.315   7.902   0.955 -0.6693 -0.1905  0.3657
  143bbb     N1 4147   5.630   7.572   0.627  0.7112 -0.2497  0.4138
  143bbb     C1 4148   5.495   7.576   0.564  0.4772 -0.3302  0.0958
  143bbb     H1 4149   5.429   7.639   0.624 -0.8034 -2.3070  0.8404
  143bbb     H2 4150   5.445   7.481   0.583  1.4594 -0.7265  0.8227
  143bbb     C2 4151   5.726   7.682   0.592  0.3601  0.4772  0.0778
  143bbb     H3 4152   5.746   7.681   0.485  2.0853 -1.5778  0.3507
  143bbb     H4 4153   5.828   7.667   0.630  1.2766 -1.6300 -2.8774
  143bbb     C3 4154   5.623   7.555   0.773 -0.4456  0.1042  0.3958
  143bbb     H5 4155   5.554   7.472   0.791 -0.2703 -0.6704 -2.1660
  143bbb     H6 4156   5.590   7.646   0.825 -1.1288 -0.2346  0.5568
  143bbb     C4 4157   5.761   7.499   0.829 -0.7624  0.1498 -0.3010
  143bbb     H7 4158   5.840   7.573   0.810 -0.7462  0.2654  0.1833
  143bbb     H8 4159   5.784   7.406   0.776  2.4077  1.6086 -1.7263
  143bbb     C5 4160   5.485   7.613   0.412  0.8529 -0.2020 -0.0715
  143bbb     H9 4161   5.551   7.552   0.349  1.1497  0.7397 -0.7039
  143bbb    H10 4162   5.512   7.718   0.396  0.7210 -0.0030  0.9495
  143bbb     C6 4163   5.677   7.829   0.620  0.5483 -0.4060  0.5520
  143bbb    H11 4164   5.697   7.843   0.727  0.0810  0.0023  0.5865
  143bbb    H12 4165   5.568   7.837   0.612  0.6771  1.5303  0.3616
  143bbb     C7 4166   5.758   7.491   0.986  0.5162 -0.7180 -0.0923
  143bbb    H13 4167   5.736   7.591   1.024  0.7500 -0.9298  0.6062
  143bbb    H14 4168   5.854   7.451   1.022 -0.1343 -0.7928  1.6692
  143bbb     C8 4169   5.754   7.932   0.534  0.2105 -0.3904 -0.0461
  143bbb    H15 4170   5.676   7.964   0.464 -2.0346 -0.7510  2.1579
  143bbb    H16 4171   5.842   7.890   0.484 -0.2678 -0.1274 -1.1301
  143bbb     C9 4172   5.339   7.585   0.368  0.2013  0.2561 -0.2572
  143bbb    H17 4173   5.272   7.650   0.425  1.5443 -0.0797  1.8203
  143bbb    H18 4174   5.319   7.481   0.396 -2.4841  0.2192 -1.9203
  143bbb     O1 4175   5.656   7.398   1.029  0.2122  0.0510  0.2475
  144bbb     N1 4176   6.964   7.882   2.387  0.0802  0.1061  0.9201
  144bbb     C1 4177   7.043   7.933   2.269  0.4536  0.1467 -0.0318
  144bbb     H1 4178   7.023   7.897   2.168  1.4383  3.1933 -1.4494
  144bbb     H2 4179   7.150   7.914   2.283  0.4973  0.8143  0.6288
  144bbb     C2 4180   7.038   7.899   2.516 -0.2999  0.1328 -0.0212
  144bbb     H3 4181   7.074   8.001   2.533 -0.7777 -0.0370  2.4534
  144bbb     H4 4182   7.122   7.829   2.532 -1.0271 -0.4991  1.2107
  144bbb     C3 4183   6.907   7.747   2.379 -0.0201  0.0724  0.7714
  144bbb     H5 4184   6.829   7.732   2.455  0.9393  0.0198  1.7692
  144bbb     H6 4185   6.983   7.671   2.401  0.7195  0.9476  1.3071
  144bbb     C4 4186   6.835   7.713   2.244  0.5980 -1.0975  0.3030
  144bbb     H7 4187   6.778   7.620   2.258 -0.7177 -0.5003 -0.9109
  144bbb     H8 4188   6.907   7.705   2.162  1.1780 -4.1823  0.9889
  144bbb     C5 4189   7.004   8.077   2.246  0.1206 -0.0382 -0.1677
  144bbb     H9 4190   7.038   8.143   2.327 -0.8956  1.3440 -0.8197
  144bbb    H10 4191   6.899   8.096   2.272  0.6536  0.3884  1.8400
  144bbb     C6 4192   6.953   7.895   2.648 -1.6506 -0.4741  0.0508
  144bbb    H11 4193   6.897   7.802   2.663 -1.6830 -0.3424  0.7830
  144bbb    H12 4194   6.875   7.972   2.637 -0.8464  0.7409  2.1707
  144bbb     C7 4195   6.729   7.812   2.194 -0.5408  0.4789  0.5251
  144bbb    H13 4196   6.775   7.908   2.168 -0.0408  0.0610 -0.1774
  144bbb    H14 4197   6.646   7.830   2.263 -0.6250 -2.0278  1.1813
  144bbb     C8 4198   7.032   7.929   2.778  0.0553  0.0853 -0.1701
  144bbb    H15 4199   7.098   7.845   2.804 -0.6192 -0.7095 -0.9664
  144bbb    H16 4200   6.956   7.925   2.857 -0.8465 -2.9055 -1.0791
  144bbb     C9 4201   7.050   8.131   2.109  0.8403 -1.1318 -0.7964
  144bbb    H17 4202   6.982   8.099   2.029  0.7264 -2.0452 -0.3426
  144bbb    H18 4203   7.148   8.089   2.084  1.6125 -0.1588  0.4645
  144bbb     O1 4204   6.686   7.744   2.071 -0.0187 -0.7265 -0.3652
  145bbb     N1 4205   6.954   6.761   1.448 -0.2880  0.0478  0.1907
  145bbb     C1 4206   7.063   6.652   1.424  0.6187 -0.4047  0.6830
  145bbb     H1 4207   7.152   6.692   1.375  0.4074 -2.0839 -1.2257
  145bbb     H2 4208   7.034   6.585   1.342  0.4446  0.0187  0.3955
  145bbb     C2 4209   6.820   6.716   1.494  1.0422 -0.1160 -0.2264
  145bbb     H3 4210   6.753   6.800   1.515  1.1466  0.2560 -1.3159
  145bbb     H4 4211   6.829   6.645   1.577  2.9729 -0.9545 -1.0785
  145bbb     C3 4212   6.940   6.868   1.348 -0.0045  0.6308 -0.1962
  145bbb     H5 4213   6.888   6.832   1.258 -0.6869 -0.6114  0.6714
  145bbb     H6 4214   7.046   6.888   1.328  0.9327 -0.2956  3.1792
  145bbb     C4 4215   6.871   7.004   1.386  1.0557  0.5492  1.1921
  145bbb     H7 4216   6.763   7.008   1.400  1.1275  3.8243  1.5876
  145bbb     H8 4217   6.884   7.077   1.305 -2.4041  1.3368  1.2238
  145bbb     C5 4218   7.095   6.572   1.549  0.7051  0.0281 -0.4647
  145bbb     H9 4219   7.003   6.520   1.575  1.2411 -0.5288  0.3626
  145bbb    H10 4220   7.114   6.649   1.625 -2.0642  1.0540 -0.6965
  145bbb     C6 4221   6.747   6.626   1.382 -1.1990  0.1952 -0.3200
  145bbb    H11 4222   6.814   6.554   1.334 -0.1003 -0.2754  1.7914
  145bbb    H12 4223   6.707   6.688   1.302 -0.3759 -0.8388 -1.5717
  145bbb     C7 4224   6.937   7.065   1.510  0.4161 -0.0415  0.1640
  145bbb    H13 4225   7.032   7.113   1.482  1.0609 -1.2210  0.2645
  145bbb    H14 4226   6.967   6.988   1.582 -0.1994 -1.7387 -1.3326
  145bbb     C8 4227   6.622   6.558   1.438  0.5788  0.4995  0.3542
  145bbb    H15 4228   6.655   6.489   1.517 -0.7124  1.4223  1.7583
  145bbb    H16 4229   6.567   6.494   1.367 -2.6825 -0.6549  3.5827
  145bbb     C9 4230   7.208   6.474   1.528  0.2046 -0.3529  0.2289
  145bbb    H17 4231   7.251   6.509   1.434 -1.9522  0.4823 -0.5172
  145bbb    H18 4232   7.173   6.371   1.519  1.1912 -0.5633 -1.5444
  145bbb     O1 4233   6.853   7.169   1.563  0.0015 -0.5561  0.3071
  146bbb     N1 4234   3.142   6.939   2.082 -0.0900  0.8243 -0.8619
  146bbb     C1 4235   3.192   6.797   2.082 -0.0017 -0.2264 -1.3323
  146bbb     H1 4236   3.269   6.775   2.156  1.2246 -2.5951 -3.1530
  146bbb     H2 4237   3.236   6.782   1.982 -1.6346 -0.3828 -2.0631
  146bbb     C2 4238   3.091   6.971   2.210 -0.0249 -0.1004  0.0731
  146bbb     H3 4239   3.169   6.945   2.284  1.1504  0.2189 -1.0140
  146bbb     H4 4240   3.007   6.904   2.232 -0.4319 -0.2336 -1.7761
  146bbb     C3 4241   3.248   7.029   2.030 -0.1375  0.3901 -0.2528
  146bbb     H5 4242   3.215   7.133   2.034 -0.4223  0.3649 -1.4818
  146bbb     H6 4243   3.268   6.998   1.926  1.8509  1.1012 -0.1185
  146bbb     C4 4244   3.378   7.034   2.119  0.4043 -0.6919 -0.4374
  146bbb     H7 4245   3.353   7.009   2.222  1.1117  0.7477  0.1026
  146bbb     H8 4246   3.427   7.131   2.106 -0.8659 -0.3473 -3.3477
  146bbb     C5 4247   3.081   6.687   2.098  0.0354  0.3563 -0.4843
  146bbb     H9 4248   3.061   6.677   2.205  1.3578 -0.3775 -0.2897
  146bbb    H10 4249   3.122   6.590   2.068  0.5533  0.8031 -1.2677
  146bbb     C6 4250   3.043   7.117   2.236 -0.1418  0.4634 -0.2394
  146bbb    H11 4251   3.132   7.178   2.215  0.7298 -1.3893 -2.2287
  146bbb    H12 4252   3.023   7.124   2.344  3.1203 -0.6367  0.5653
  146bbb     C7 4253   3.486   6.934   2.087 -0.1445  0.5584 -0.3033
  146bbb    H13 4254   3.451   6.830   2.076  0.5969  0.1356  1.1110
  146bbb    H14 4255   3.557   6.924   2.170 -0.6823  1.3678  0.2624
  146bbb     C8 4256   2.924   7.158   2.153 -0.0812  0.4038 -0.3005
  146bbb    H15 4257   2.859   7.071   2.171  2.8921 -1.4236  2.7515
  146bbb    H16 4258   2.962   7.157   2.050  0.6931  0.1684 -0.0198
  146bbb     C9 4259   2.955   6.699   2.011 -0.0475  0.2434  0.0838
  146bbb    H17 4260   2.981   6.699   1.905 -2.4488 -0.4814 -0.5690
  146bbb    H18 4261   2.911   6.798   2.028 -1.3383  0.0297 -1.7564
  146bbb     O1 4262   3.543   6.976   1.960 -0.2391  0.5864  0.5065
  147bbb     N1 4263   3.361   7.634   1.756 -0.0958 -0.4263 -0.2011
  147bbb     C1 4264   3.512   7.685   1.722  0.3641  0.0228  0.1459
  147bbb     H1 4265   3.532   7.791   1.738 -0.0519  0.1736 -0.3173
  147bbb     H2 4266   3.529   7.676   1.614  0.7916  0.4823  0.1730
  147bbb     C2 4267   3.168   7.743   1.865 -0.5182  0.1504  0.0957
  147bbb     H3 4268   3.089   7.678   1.904  0.5092  0.0809  2.2489
  147bbb     H4 4269   3.096   7.804   1.809  0.7312  2.1613  0.5730
  147bbb     C3 4270   3.385   7.502   1.675  0.8304  0.9261  0.1512
  147bbb     H5 4271   3.325   7.420   1.717 -1.5755  2.3272 -0.2938
  147bbb     H6 4272   3.479   7.450   1.694  2.0537  3.3167  1.0667
  147bbb     C4 4273   3.376   7.500   1.518 -0.1366 -0.5619 -0.4266
  147bbb     H7 4274   3.406   7.599   1.482  0.1062 -0.4321  0.1094
  147bbb     H8 4275   3.271   7.479   1.496 -1.2151 -0.4926  3.7347
  147bbb     C5 4276   3.633   7.620   1.792  0.2195 -0.5066 -0.3198
  147bbb     H9 4277   3.622   7.512   1.804  1.8919 -0.5844  0.7450
  147bbb    H10 4278   3.643   7.655   1.895  0.9846  1.2019 -0.9372
  147bbb     C6 4279   3.144   7.845   1.990  0.5767  0.8683  0.2393
  147bbb    H11 4280   3.137   7.783   2.081 -0.1062  0.7641  0.1224
  147bbb    H12 4281   3.223   7.919   2.005  2.0594 -0.6312  0.1697
  147bbb     C7 4282   3.475   7.396   1.450  0.3490 -0.2069  0.0186
  147bbb    H13 4283   3.449   7.390   1.344 -1.6183 -1.5424  0.5221
  147bbb    H14 4284   3.475   7.294   1.490  2.2801 -0.0896  0.4164
  147bbb     C8 4285   3.017   7.931   1.994  0.6233  0.8744  0.4081
  147bbb    H15 4286   3.012   8.002   1.911  0.0426 -0.9360 -1.1885
  147bbb    H16 4287   3.004   7.991   2.084 -2.4837  2.5314 -0.9903
  147bbb     C9 4288   3.771   7.646   1.717  0.3690  0.0014  0.3362
  147bbb    H17 4289   3.797   7.578   1.635 -3.2167 -3.9767  2.1483
  147bbb    H18 4290   3.855   7.631   1.785  0.9465  0.8637 -0.1712
  147bbb     O1 4291   3.608   7.452   1.465 -0.2631 -0.4473 -0.1652
  148bbb     N1 4292   4.006   6.631   3.645  0.1939 -0.3771  0.5987
  148bbb     C1 4293   4.024   6.599   3.789 -0.0002 -0.6770  0.4187
  148bbb     H1 4294   4.043   6.692   3.843  1.2904 -0.9652  0.4869
  148bbb     H2 4295   4.107   6.533   3.815  0.3159 -1.0090 -1.3129
  148bbb     C2 4296   3.925   6.533   3.572  0.5239  0.4310 -0.1150
  148bbb     H3 4297   3.887   6.557   3.472 -3.4262 -3.4229  0.1719
  148bbb     H4 4298   3.831   6.524   3.628 -1.5001  2.4050 -2.9542
  148bbb     C3 4299   4.129   6.676   3.578  0.2841  0.6919 -0.1912
  148bbb     H5 4300   4.190   6.592   3.540 -0.0772  1.2864 -2.2277
  148bbb     H6 4301   4.189   6.727   3.655 -1.7482  0.6468  1.5026
  148bbb     C4 4302   4.085   6.773   3.465 -0.1681 -0.9139 -0.4131
  148bbb     H7 4303   4.019   6.853   3.502 -0.0062  1.1578 -4.0977
  148bbb     H8 4304   4.022   6.724   3.391  1.2016  0.7582 -2.8273
  148bbb     C5 4305   3.898   6.553   3.871  0.2462  0.2631 -0.5726
  148bbb     H9 4306   3.930   6.500   3.961  0.0096 -1.6435 -1.5726
  148bbb    H10 4307   3.846   6.465   3.832 -1.1791  0.6792  0.3040
  148bbb     C6 4308   3.986   6.394   3.567  0.3069 -0.9831 -0.6292
  148bbb    H11 4309   4.020   6.360   3.665 -2.4002 -0.9828  0.3937
  148bbb    H12 4310   4.071   6.401   3.497  1.2787 -1.9459  0.4039
  148bbb     C7 4311   4.197   6.839   3.390 -0.2757  0.3514 -0.1906
  148bbb    H13 4312   4.241   6.760   3.329 -1.8480 -0.6260 -0.1093
  148bbb    H14 4313   4.278   6.880   3.452 -0.0391  0.9248 -0.8590
  148bbb     C8 4314   3.878   6.293   3.511  0.8131  0.5176 -0.3882
  148bbb    H15 4315   3.784   6.306   3.567 -1.0942 -1.8266 -2.7751
  148bbb    H16 4316   3.908   6.189   3.528 -0.1478  0.2742 -0.0719
  148bbb     C9 4317   3.773   6.651   3.877 -0.2058 -0.1022  0.4396
  148bbb    H17 4318   3.725   6.661   3.779  0.3734 -0.0247  0.1565
  148bbb    H18 4319   3.809   6.750   3.909 -1.2049 -0.2615  2.1687
  148bbb     O1 4320   4.156   6.947   3.307  0.1397 -0.0375 -0.2398
  149bbb     N1 4321   5.148   6.993   3.530 -0.2300  0.2504  0.0169
  149bbb     C1 4322   5.332   7.061   3.684 -0.2805 -0.4513 -0.2886
  149bbb     H1 4323   5.338   7.020   3.785 -1.6645 -0.5955 -0.2400
  149bbb     H2 4324   5.330   7.162   3.727  0.6424 -0.0084 -1.2340
  149bbb     C2 4325   5.081   6.856   3.486 -0.4178  0.8201 -0.4082
  149bbb     H3 4326   4.973   6.874   3.501 -0.6051  1.0696 -1.8550
  149bbb     H4 4327   5.091   6.770   3.554 -0.3269  1.9152  0.9925
  149bbb     C3 4328   5.048   7.081   3.439 -0.2685  0.3712  0.4678
  149bbb     H5 4329   5.047   7.053   3.333  0.2214  1.1035  0.2593
  149bbb     H6 4330   5.074   7.186   3.422  0.9661  0.0062 -0.0060
  149bbb     C4 4331   4.904   7.099   3.493  0.6703 -0.1027  0.2118
  149bbb     H7 4332   4.902   7.191   3.552  0.0619  0.6242 -0.9111
  149bbb     H8 4333   4.860   7.019   3.554  1.3082 -0.7002 -0.0987
  149bbb     C5 4334   5.493   7.060   3.687  0.2006  0.1882 -0.3024
  149bbb     H9 4335   5.539   7.127   3.613  2.1218  0.4931  1.0780
  149bbb    H10 4336   5.534   6.958   3.682  2.0742  0.5710  3.3331
  149bbb     C6 4337   5.088   6.795   3.344  0.6626  0.2227 -0.2895
  149bbb    H11 4338   5.179   6.738   3.319 -0.0031 -0.6933 -0.6472
  149bbb    H12 4339   5.077   6.873   3.267  1.1332 -0.9048 -1.5462
  149bbb     C7 4340   4.808   7.120   3.375  0.0393  0.0464  1.3317
  149bbb    H13 4341   4.838   7.199   3.305  2.6135  0.1740  2.4431
  149bbb    H14 4342   4.711   7.150   3.415  0.7197  2.1549  1.5515
  149bbb     C8 4343   4.959   6.713   3.327 -1.3586 -0.2904  0.1254
  149bbb    H15 4344   4.969   6.643   3.243  0.1544  0.3722 -0.2865
  149bbb    H16 4345   4.876   6.781   3.302 -0.8422  0.8698  1.4501
  149bbb     C9 4346   5.548   7.087   3.831 -0.4325  0.4103  0.5063
  149bbb    H17 4347   5.658   7.086   3.822 -0.2960  0.8897  1.8899
  149bbb    H18 4348   5.518   7.001   3.892 -3.1522  1.2663  0.4900
  149bbb     O1 4349   4.780   7.001   3.300  0.6525 -0.6333  0.1559
  150bbb     N1 4350   5.678   5.899  -0.666 -0.3941  0.2407 -0.3651
  150bbb     C1 4351   5.657   6.031  -0.602 -0.6347 -0.2068  0.9934
  150bbb     H1 4352   5.550   6.045  -0.623 -0.7664 -1.2508  0.9142
  150bbb     H2 4353   5.709   6.113  -0.654 -3.8332  1.0192 -0.5279
  150bbb     C2 4354   5.634   5.888  -0.807 -0.3318 -0.4118 -0.9980
  150bbb     H3 4355   5.543   5.950  -0.811 -0.2976 -0.3857 -1.3204
  150bbb     H4 4356   5.600   5.786  -0.825 -1.7272 -0.7305  2.6207
  150bbb     C3 4357   5.811   5.842  -0.646 -0.0141  0.1744 -0.0748
  150bbb     H5 4358   5.853   5.849  -0.546  0.4079  0.2701 -0.2575
  150bbb     H6 4359   5.880   5.902  -0.707  0.9805 -1.3681 -0.5116
  150bbb     C4 4360   5.819   5.693  -0.678 -0.2643 -0.1179  0.2780
  150bbb     H7 4361   5.769   5.665  -0.772  0.9517 -2.2482  0.1993
  150bbb     H8 4362   5.763   5.635  -0.604 -0.6088 -0.7885 -0.4850
  150bbb     C5 4363   5.679   6.033  -0.447 -0.1041 -0.4948 -0.3463
  150bbb     H9 4364   5.784   6.008  -0.430 -0.3090 -0.1790  1.5729
  150bbb    H10 4365   5.626   5.952  -0.397  1.1820 -0.7731  0.6107
  150bbb     C6 4366   5.726   5.925  -0.926  0.5746  0.1124  0.1828
  150bbb    H11 4367   5.799   5.844  -0.932  0.1465 -0.3129  0.6414
  150bbb    H12 4368   5.782   6.015  -0.898  0.9846 -0.0330 -0.1655
  150bbb     C7 4369   5.958   5.635  -0.684 -0.1969 -0.0630  0.2471
  150bbb    H13 4370   6.019   5.682  -0.763  0.0826 -0.5693  0.1569
  150bbb    H14 4371   5.951   5.532  -0.720 -1.8489  0.5754 -1.4175
  150bbb     C8 4372   5.655   5.933  -1.066  0.0169 -0.9071 -0.0602
  150bbb    H15 4373   5.554   5.890  -1.064  0.4498 -2.0434 -1.4174
  150bbb    H16 4374   5.712   5.872  -1.136  0.3476 -1.2082  0.4621
  150bbb     C9 4375   5.651   6.167  -0.375 -0.2622  0.0754  0.3091
  150bbb    H17 4376   5.732   6.240  -0.387 -1.5557  1.3996 -0.8910
  150bbb    H18 4377   5.644   6.147  -0.267  0.3865 -0.4416  0.2544
  150bbb     O1 4378   6.023   5.647  -0.557 -0.0638 -0.6455 -0.1739
  151bbb     N1 4379   6.428   5.807   0.605 -0.7844 -0.0308  0.7195
  151bbb     C1 4380   6.373   5.939   0.648 -0.1768 -0.5753  0.2232
  151bbb     H1 4381   6.447   6.018   0.627 -2.1193  1.2006 -0.2274
  151bbb     H2 4382   6.371   5.938   0.757 -0.9339  1.9114  0.2788
  151bbb     C2 4383   6.541   5.754   0.696 -0.0227 -0.7108 -0.7033
  151bbb     H3 4384   6.576   5.652   0.675  1.1021 -0.6877  0.8175
  151bbb     H4 4385   6.504   5.744   0.799  0.5379 -1.1543 -0.5372
  151bbb     C3 4386   6.470   5.793   0.462  0.3929 -0.1472 -0.5227
  151bbb     H5 4387   6.563   5.846   0.438 -0.7885  3.9738  2.7820
  151bbb     H6 4388   6.385   5.830   0.404 -1.2229  2.8060  3.3008
  151bbb     C4 4389   6.482   5.638   0.424 -0.3015 -0.4585 -0.1090
  151bbb     H7 4390   6.384   5.590   0.429 -0.0276 -0.9571  0.9119
  151bbb     H8 4391   6.542   5.577   0.493  0.6786 -0.1720 -0.6887
  151bbb     C5 4392   6.237   5.979   0.584 -0.3878  0.3193 -0.3821
  151bbb     H9 4393   6.157   5.908   0.609 -0.0760 -0.6796 -2.0683
  151bbb    H10 4394   6.245   5.984   0.475 -0.9580  1.9796 -0.3760
  151bbb     C6 4395   6.663   5.851   0.708  0.1987  0.3447 -0.2253
  151bbb    H11 4396   6.626   5.941   0.759 -0.2067 -0.2468  0.5369
  151bbb    H12 4397   6.694   5.893   0.611  1.9764  1.1487  0.6490
  151bbb     C7 4398   6.548   5.623   0.284 -0.1816 -0.3068 -0.1454
  151bbb    H13 4399   6.566   5.520   0.252 -3.0708 -0.2213 -2.4796
  151bbb    H14 4400   6.638   5.684   0.267 -0.1320 -0.9653 -2.6808
  151bbb     C8 4401   6.783   5.786   0.790  0.1767  0.0134 -0.8526
  151bbb    H15 4402   6.874   5.845   0.776  0.6614 -0.6007 -0.3460
  151bbb    H16 4403   6.803   5.687   0.748 -0.1106  0.3415 -1.7765
  151bbb     C9 4404   6.191   6.115   0.644  0.3640 -0.2069 -0.4995
  151bbb    H17 4405   6.091   6.146   0.609  1.3214  2.4470 -1.0683
  151bbb    H18 4406   6.258   6.195   0.611  1.0275 -0.7986 -0.5960
  151bbb     O1 4407   6.445   5.666   0.196  0.8722 -0.3727 -0.7661
  152bbb     N1 4408   6.135   6.228  -0.355 -0.5192  0.5071 -0.1399
  152bbb     C1 4409   6.110   6.151  -0.484 -0.6836  0.2385 -0.3536
  152bbb     H1 4410   6.025   6.083  -0.477  0.5876 -1.4770 -0.7014
  152bbb     H2 4411   6.190   6.078  -0.500  0.6703  0.6205  3.5860
  152bbb     C2 4412   6.012   6.298  -0.297 -0.3150  0.2998  0.7416
  152bbb     H3 4413   5.933   6.230  -0.331  1.2166 -1.3676  0.3133
  152bbb     H4 4414   6.004   6.401  -0.335 -2.6716  1.0385  2.9917
  152bbb     C3 4415   6.267   6.289  -0.331 -0.3680  0.2820 -0.1756
  152bbb     H5 4416   6.263   6.315  -0.225 -1.1197 -3.4818  0.8516
  152bbb     H6 4417   6.284   6.374  -0.399  2.3441 -0.1374 -0.1307
  152bbb     C4 4418   6.380   6.184  -0.354 -0.7387  0.5544 -0.5139
  152bbb     H7 4419   6.368   6.138  -0.452 -1.6934 -1.3833  0.4478
  152bbb     H8 4420   6.372   6.106  -0.277 -0.1156  1.6554  0.7020
  152bbb     C5 4421   6.078   6.243  -0.605 -0.1305 -0.5002 -1.0394
  152bbb     H9 4422   6.169   6.299  -0.630 -0.1954  0.1875  0.1972
  152bbb    H10 4423   6.005   6.315  -0.568  0.3065 -1.1024  1.1067
  152bbb     C6 4424   6.003   6.294  -0.147  0.8925  0.2812  0.0726
  152bbb    H11 4425   6.073   6.365  -0.101 -0.7946  0.6475  2.2459
  152bbb    H12 4426   6.036   6.197  -0.110  6.5531  1.6398 -0.3757
  152bbb     C7 4427   6.522   6.239  -0.336  0.2601  0.1580 -0.4998
  152bbb    H13 4428   6.537   6.315  -0.414 -0.4339  2.8077  1.7715
  152bbb    H14 4429   6.589   6.155  -0.357 -1.2152 -1.2776  0.3114
  152bbb     C8 4430   5.862   6.341  -0.095  0.1299 -0.0392  0.2434
  152bbb    H15 4431   5.846   6.338   0.013 -1.5594  1.7641  0.0994
  152bbb    H16 4432   5.785   6.270  -0.127  2.0136 -2.1068  0.0262
  152bbb     C9 4433   6.027   6.164  -0.725 -0.2406  0.2084  0.7880
  152bbb    H17 4434   5.926   6.133  -0.694  0.7521 -2.1164  1.9796
  152bbb    H18 4435   6.085   6.071  -0.732  0.3715  0.6558 -0.3831
  152bbb     O1 4436   6.538   6.281  -0.203 -0.8088 -0.3760 -0.3900
  153bbb     N1 4437   6.897   6.449   0.838  0.5916 -0.2334  0.0301
  153bbb     C1 4438   6.858   6.503   0.970  0.2952 -0.2094 -0.0904
  153bbb     H1 4439   6.803   6.596   0.951  1.0681 -0.1089 -2.0085
  153bbb     H2 4440   6.943   6.533   1.033  1.0988 -0.1401 -1.1853
  153bbb     C2 4441   7.001   6.532   0.770 -0.0723  0.3500  0.2337
  153bbb     H3 4442   6.991   6.639   0.792 -0.1810  0.4303 -0.2042
  153bbb     H4 4443   7.003   6.526   0.661  0.5495  2.7615  0.0558
  153bbb     C3 4444   6.777   6.412   0.753 -0.1207 -0.7898 -0.2925
  153bbb     H5 4445   6.742   6.508   0.713  1.6005  0.3299  0.7512
  153bbb     H6 4446   6.701   6.362   0.816  0.4724  1.2983  2.2467
  153bbb     C4 4447   6.801   6.323   0.628 -0.2134  0.5999 -0.2793
  153bbb     H7 4448   6.866   6.374   0.556 -0.0104  1.6429  0.6290
  153bbb     H8 4449   6.713   6.281   0.576  0.3216  1.8180 -2.2517
  153bbb     C5 4450   6.767   6.411   1.061 -0.8379  0.2786  0.8648
  153bbb     H9 4451   6.665   6.405   1.019 -0.5135 -0.9181  0.1891
  153bbb    H10 4452   6.754   6.457   1.159  1.7623  2.6242  0.2165
  153bbb     C6 4453   7.141   6.487   0.814 -0.2640 -0.5865 -0.7928
  153bbb    H11 4454   7.136   6.378   0.807 -1.2701 -0.5244 -1.2011
  153bbb    H12 4455   7.162   6.517   0.917 -0.2997 -0.5874 -0.7854
  153bbb     C7 4456   6.891   6.200   0.661  1.1930  0.4306 -0.1742
  153bbb    H13 4457   6.840   6.147   0.742  3.5961 -2.8595 -0.6381
  153bbb    H14 4458   6.993   6.222   0.693  1.3100  0.8037 -0.7890
  153bbb     C8 4459   7.263   6.537   0.727  0.2096  0.3151 -0.2485
  153bbb    H15 4460   7.266   6.482   0.632  1.3800 -1.6922  0.8842
  153bbb    H16 4461   7.354   6.497   0.772 -0.5732  0.3435  1.4254
  153bbb     C9 4462   6.813   6.260   1.068  0.0608  0.0934 -0.5641
  153bbb    H17 4463   6.900   6.240   1.132  0.0853 -0.1600 -0.6764
  153bbb    H18 4464   6.829   6.224   0.966 -0.3473  2.2063 -1.4135
  153bbb     O1 4465   6.881   6.108   0.549 -0.0369 -0.5013 -0.7062
  154bbb     N1 4466   3.867   5.642   1.020 -0.1790  0.0138 -0.6176
  154bbb     C1 4467   3.750   5.640   1.112 -0.2296  0.3596  0.5555
  154bbb     H1 4468   3.772   5.576   1.198 -1.3687 -0.5237  0.2129
  154bbb     H2 4469   3.662   5.589   1.071  0.1262 -1.3278  1.7896
  154bbb     C2 4470   3.847   5.723   0.905 -0.2107  0.0918  0.1274
  154bbb     H3 4471   3.947   5.737   0.862 -0.9931  2.1879 -1.1703
  154bbb     H4 4472   3.817   5.826   0.927  0.2143  0.1181  0.6268
  154bbb     C3 4473   3.918   5.503   1.001  0.1918 -0.0497 -0.0567
  154bbb     H5 4474   3.846   5.443   0.945 -0.6527 -0.5812  1.5423
  154bbb     H6 4475   3.913   5.460   1.102  0.2267  1.4831  0.6391
  154bbb     C4 4476   4.058   5.497   0.932  0.2275  0.0341 -0.8866
  154bbb     H7 4477   4.112   5.582   0.975 -0.1302 -0.5541  0.8260
  154bbb     H8 4478   4.042   5.509   0.824  1.6746  1.2954 -0.9899
  154bbb     C5 4479   3.708   5.780   1.159 -0.0634  0.0459  0.5210
  154bbb     H9 4480   3.712   5.853   1.077  0.8586 -0.7402 -0.1489
  154bbb    H10 4481   3.775   5.823   1.234  0.2228  2.5510 -1.0448
  154bbb     C6 4482   3.756   5.662   0.803 -0.9892  0.3995 -0.3052
  154bbb    H11 4483   3.659   5.641   0.850  0.5366  0.8980  3.4077
  154bbb    H12 4484   3.802   5.571   0.761  0.3238  0.2172  1.3822
  154bbb     C7 4485   4.129   5.359   0.958  0.5046  0.8268  0.3461
  154bbb    H13 4486   4.127   5.346   1.067  2.0630  1.9242  0.5519
  154bbb    H14 4487   4.234   5.358   0.926  0.5019  0.4220  0.3483
  154bbb     C8 4488   3.727   5.776   0.694 -0.8146  0.6938 -0.3235
  154bbb    H15 4489   3.698   5.728   0.600 -0.5836 -0.7379  0.3166
  154bbb    H16 4490   3.823   5.830   0.685 -1.2917  1.5115 -0.6354
  154bbb     C9 4491   3.561   5.779   1.205 -0.0893 -0.6420  0.0719
  154bbb    H17 4492   3.501   5.755   1.116  3.2608 -2.1071 -1.9805
  154bbb    H18 4493   3.533   5.878   1.244  1.5631 -0.3272  0.5385
  154bbb     O1 4494   4.055   5.249   0.899  0.1514  0.0367 -0.0433
  155bbb     N1 4495   5.073   4.676   0.580 -0.8041  0.1827  0.4421
  155bbb     C1 4496   5.159   4.552   0.560  0.1781  0.2392  0.2309
  155bbb     H1 4497   5.103   4.481   0.497 -1.7620  0.1293  1.9591
  155bbb     H2 4498   5.183   4.502   0.654  0.6745  1.0291  0.5269
  155bbb     C2 4499   5.121   4.771   0.680 -0.0787 -0.4819 -0.3284
  155bbb     H3 4500   5.098   4.869   0.636 -1.8948 -0.8558 -0.2887
  155bbb     H4 4501   5.230   4.771   0.693  0.0550  3.0560 -0.4216
  155bbb     C3 4502   4.931   4.646   0.570 -0.5081 -0.5213  0.7137
  155bbb     H5 4503   4.896   4.594   0.660  1.0280 -0.9247  1.1017
  155bbb     H6 4504   4.912   4.568   0.495 -2.0702 -0.9292  1.4942
  155bbb     C4 4505   4.845   4.768   0.544  0.0852 -0.7679 -0.2188
  155bbb     H7 4506   4.863   4.798   0.440 -1.3112 -1.2986 -0.6457
  155bbb     H8 4507   4.868   4.856   0.604 -1.0306  1.1301 -2.3714
  155bbb     C5 4508   5.302   4.578   0.501  0.8597 -0.5583 -0.1329
  155bbb     H9 4509   5.358   4.491   0.536  0.5390  0.2284  2.5600
  155bbb    H10 4510   5.342   4.666   0.553 -0.9297 -0.7353  1.6537
  155bbb     C6 4511   5.058   4.760   0.819 -0.6777 -0.6601 -0.1767
  155bbb    H11 4512   4.953   4.787   0.805 -0.6597 -0.8934 -0.7683
  155bbb    H12 4513   5.103   4.840   0.880  1.3786 -1.5920 -0.3641
  155bbb     C7 4514   4.694   4.739   0.560  0.8274 -0.7488 -0.7024
  155bbb    H13 4515   4.681   4.692   0.659  0.5087 -2.3635 -1.4843
  155bbb    H14 4516   4.669   4.658   0.491  3.9107 -1.9293 -0.5587
  155bbb     C8 4517   5.085   4.637   0.902 -0.2355 -0.7672  0.8642
  155bbb    H15 4518   5.192   4.617   0.915  0.1462 -1.6933 -2.7698
  155bbb    H16 4519   5.039   4.558   0.841 -1.0367  1.0729 -1.0373
  155bbb     C9 4520   5.292   4.592   0.345 -0.0625 -0.2493 -0.5508
  155bbb    H17 4521   5.225   4.674   0.318 -1.1115 -1.0566 -0.4411
  155bbb    H18 4522   5.250   4.502   0.299  4.7590 -2.2068 -1.7860
  155bbb     O1 4523   4.613   4.860   0.533 -0.0911  0.2153  0.8698
  156bbb     N1 4524   3.830   6.903  -0.048 -0.3290 -0.0608  0.2768
  156bbb     C1 4525   3.743   6.948  -0.161  0.1421 -0.3879 -0.2103
  156bbb     H1 4526   3.641   6.974  -0.132  0.8535  1.1855  1.0362
  156bbb     H2 4527   3.732   6.853  -0.215 -0.3706 -1.5472  1.8374
  156bbb     C2 4528   3.842   6.991   0.070  0.7969  0.2728 -0.1590
  156bbb     H3 4529   3.895   7.082   0.040 -2.4543  1.9048 -1.4228
  156bbb     H4 4530   3.888   6.938   0.154 -0.0970  1.0483  0.8502
  156bbb     C3 4531   3.953   6.834  -0.084  0.3541 -0.3667  0.7226
  156bbb     H5 4532   4.029   6.908  -0.112 -0.0228  0.2462  1.3027
  156bbb     H6 4533   3.932   6.775  -0.174 -0.1054 -0.0686  0.6322
  156bbb     C4 4534   4.010   6.748   0.027 -0.5697 -0.3482  0.5704
  156bbb     H7 4535   3.924   6.689   0.060 -0.3726 -1.7828 -1.2953
  156bbb     H8 4536   4.048   6.805   0.113  0.8233 -0.0601 -0.2057
  156bbb     C5 4537   3.809   7.060  -0.248  0.2085  0.6819 -0.0996
  156bbb     H9 4538   3.917   7.041  -0.259  0.2825 -0.0280  1.5865
  156bbb    H10 4539   3.789   7.156  -0.199 -0.5139  1.1722 -1.3096
  156bbb     C6 4540   3.703   7.043   0.125 -0.3133 -0.1924  0.5036
  156bbb    H11 4541   3.639   6.956   0.144  0.4174 -0.2875  2.9115
  156bbb    H12 4542   3.657   7.109   0.050  0.4312 -1.5922 -1.2481
  156bbb     C7 4543   4.121   6.658  -0.024 -0.0701 -0.6926  0.0462
  156bbb    H13 4544   4.185   6.704  -0.100  1.1318 -1.5191  0.5378
  156bbb    H14 4545   4.070   6.567  -0.057 -1.6388 -0.0879  0.7083
  156bbb     C8 4546   3.726   7.119   0.254  0.6767  0.4716 -1.0541
  156bbb    H15 4547   3.631   7.170   0.274  0.7174 -0.7090  2.9420
  156bbb    H16 4548   3.814   7.185   0.252  0.1859  1.1538 -0.8513
  156bbb     C9 4549   3.753   7.067  -0.392  0.1916 -0.0561 -0.0924
  156bbb    H17 4550   3.827   7.129  -0.443 -0.6361  2.7325  1.8942
  156bbb    H18 4551   3.662   7.128  -0.387  1.6504  2.4291 -1.8936
  156bbb     O1 4552   4.198   6.630   0.091 -0.2416  0.4163 -0.2346
  157bbb     N1 4553   4.972   6.906  -0.123  0.4511  0.6214 -0.2046
  157bbb     C1 4554   4.847   6.825  -0.141 -0.0343 -0.0345 -0.5397
  157bbb     H1 4555   4.859   6.716  -0.137  0.3578  0.0132 -0.3830
  157bbb     H2 4556   4.805   6.861  -0.236 -1.0035 -0.0883 -0.1433
  157bbb     C2 4557   5.059   6.883  -0.240 -0.6658  0.1384  0.0035
  157bbb     H3 4558   5.009   6.932  -0.324  0.2786 -0.5281 -0.9801
  157bbb     H4 4559   5.075   6.775  -0.255 -0.2807  0.2027 -0.0436
  157bbb     C3 4560   5.038   6.872   0.006  0.0637 -0.3437 -0.7420
  157bbb     H5 4561   4.975   6.895   0.093  1.9966  1.3761  0.2957
  157bbb     H6 4562   5.112   6.953   0.013 -3.4441  3.1067  0.3293
  157bbb     C4 4563   5.112   6.740   0.032  0.3035  0.3246  0.3593
  157bbb     H7 4564   5.210   6.752   0.079  0.3020 -2.5220  1.2753
  157bbb     H8 4565   5.141   6.694  -0.064 -1.9598 -0.2798 -0.0901
  157bbb     C5 4566   4.740   6.839  -0.020 -0.7968 -0.1000  0.7438
  157bbb     H9 4567   4.768   6.779   0.067 -0.1960 -0.2591  0.4440
  157bbb    H10 4568   4.648   6.791  -0.056 -0.7307  0.2539  0.0681
  157bbb     C6 4569   5.195   6.952  -0.215  0.4564  0.7553  0.4346
  157bbb    H11 4570   5.256   6.887  -0.150  0.4742  0.1805 -0.1437
  157bbb    H12 4571   5.181   7.051  -0.169 -1.7037  1.4521 -1.5035
  157bbb     C7 4572   5.033   6.645   0.121 -1.1045  0.1349 -0.1427
  157bbb    H13 4573   4.981   6.707   0.195 -0.5728 -0.1010  0.4394
  157bbb    H14 4574   5.100   6.584   0.184  0.7666  0.7245 -1.4647
  157bbb     C8 4575   5.273   6.973  -0.349  0.5198  0.4133  0.1952
  157bbb    H15 4576   5.259   7.073  -0.393 -0.6264  0.2882  0.2623
  157bbb    H16 4577   5.222   6.906  -0.419 -2.0793  2.4986 -0.0706
  157bbb     C9 4578   4.724   6.988   0.018  0.8573  0.0218  0.6842
  157bbb    H17 4579   4.671   7.037  -0.065  1.3350 -1.0327 -0.2793
  157bbb    H18 4580   4.824   7.029   0.036  2.3584 -2.1406 -1.8409
  157bbb     O1 4581   4.930   6.577   0.044 -0.2195  0.3838  0.4975
  158bbb     N1 4582   5.387   8.833   1.147  0.1835  0.3571 -1.0025
  158bbb     C1 4583   5.402   8.781   1.010  0.1025 -0.0399  0.6502
  158bbb     H1 4584   5.467   8.852   0.958 -1.0883 -0.9123 -2.2918
  158bbb     H2 4585   5.311   8.798   0.950  0.0989  0.2632  0.7376
  158bbb     C2 4586   5.508   8.837   1.229 -0.5766 -0.1538  0.5010
  158bbb     H3 4587   5.560   8.740   1.228 -2.8578 -1.4342 -0.1086
  158bbb     H4 4588   5.494   8.877   1.330 -0.9599 -0.3389  0.5222
  158bbb     C3 4589   5.270   8.769   1.210  1.1912  0.5742  0.2769
  158bbb     H5 4590   5.282   8.665   1.241  0.0058  0.3369 -0.0428
  158bbb     H6 4591   5.184   8.769   1.142 -0.0415  0.5360  1.7754
  158bbb     C4 4592   5.225   8.854   1.335 -0.3134  0.0663  0.0945
  158bbb     H7 4593   5.224   8.961   1.308  0.7517  0.0292 -0.1377
  158bbb     H8 4594   5.301   8.855   1.413 -0.8037  1.4764  0.5844
  158bbb     C5 4595   5.459   8.640   0.996  0.7116 -0.4532  0.2778
  158bbb     H9 4596   5.409   8.574   1.068  2.1209 -1.6663  0.1953
  158bbb    H10 4597   5.562   8.653   1.032  0.3573  0.6649  0.9424
  158bbb     C6 4598   5.611   8.945   1.175 -0.3863 -0.7849 -0.5346
  158bbb    H11 4599   5.561   9.040   1.150  0.7308  0.2450  0.9698
  158bbb    H12 4600   5.650   8.906   1.080 -0.7126  1.3001 -1.5854
  158bbb     C7 4601   5.092   8.789   1.395 -0.4040  0.2129 -0.1085
  158bbb    H13 4602   5.027   8.745   1.319  0.2804  1.0753 -1.2228
  158bbb    H14 4603   5.032   8.862   1.452  0.0643 -0.3661  1.1578
  158bbb     C8 4604   5.738   8.978   1.262  1.0903  0.1706  0.0783
  158bbb    H15 4605   5.808   9.040   1.205  1.8154 -2.0745 -1.6238
  158bbb    H16 4606   5.781   8.880   1.287 -2.1976 -1.9455 -1.7979
  158bbb     C9 4607   5.469   8.568   0.852  0.2934 -0.2800 -0.4339
  158bbb    H17 4608   5.366   8.544   0.820 -0.1004 -0.1097  0.6705
  158bbb    H18 4609   5.543   8.488   0.851  1.6367  0.9099 -0.0366
  158bbb     O1 4610   5.134   8.675   1.483 -0.2758 -0.2619  0.0179
  159bbb     N1 4611   5.308   8.648   2.424 -0.4598  0.3024 -0.3402
  159bbb     C1 4612   5.173   8.598   2.436  0.2530 -0.0374 -0.5211
  159bbb     H1 4613   5.165   8.509   2.499 -1.6161 -0.6258 -1.5087
  159bbb     H2 4614   5.145   8.576   2.332  1.9904  1.6305 -1.4238
  159bbb     C2 4615   5.365   8.731   2.535  0.5569  0.0534 -0.6347
  159bbb     H3 4616   5.296   8.815   2.553  0.9960  0.7117 -1.8544
  159bbb     H4 4617   5.463   8.767   2.499  0.6829 -2.1322 -2.7016
  159bbb     C3 4618   5.405   8.545   2.376  0.3260 -0.5124  0.8868
  159bbb     H5 4619   5.403   8.462   2.448  1.2219 -0.2159  1.2728
  159bbb     H6 4620   5.503   8.594   2.382  0.0060  0.3750 -0.6618
  159bbb     C4 4621   5.380   8.497   2.231  0.0905  0.1144 -0.0863
  159bbb     H7 4622   5.345   8.577   2.164 -3.0347 -0.8192  0.2731
  159bbb     H8 4623   5.295   8.428   2.236 -0.9604  1.4316  0.9981
  159bbb     C5 4624   5.067   8.704   2.483  0.1291  0.1264  0.6186
  159bbb     H9 4625   5.076   8.790   2.415 -2.3889  1.7820  2.1929
  159bbb    H10 4626   5.094   8.740   2.583 -0.2827  2.0667  0.0886
  159bbb     C6 4627   5.393   8.651   2.662 -0.1199 -0.0204  0.4719
  159bbb    H11 4628   5.399   8.543   2.640 -2.0240  0.3348 -2.2914
  159bbb    H12 4629   5.304   8.658   2.725 -0.3274  0.7227  0.0959
  159bbb     C7 4630   5.496   8.410   2.169  0.4689 -0.3762  0.3962
  159bbb    H13 4631   5.527   8.334   2.242 -1.0320 -0.5334  0.8961
  159bbb    H14 4632   5.577   8.475   2.132  0.3812 -0.3694  0.2212
  159bbb     C8 4633   5.525   8.694   2.731  0.2292 -0.0328  0.2871
  159bbb    H15 4634   5.519   8.802   2.745  0.1173 -0.2065  1.7070
  159bbb    H16 4635   5.612   8.676   2.666  0.2854  1.3337 -0.0278
  159bbb     C9 4636   4.924   8.642   2.483 -0.5718  0.0295 -0.3551
  159bbb    H17 4637   4.903   8.615   2.379  0.5041  0.5059 -0.7139
  159bbb    H18 4638   4.856   8.725   2.504  0.1663  0.5279  0.1225
  159bbb     O1 4639   5.450   8.344   2.050 -0.1977  0.3610 -0.7358
  160bbb     N1 4640   3.582   6.994   3.486  0.4411  0.3420 -0.6626
  160bbb     C1 4641   3.544   6.859   3.457  0.1484 -0.0613 -0.0590
  160bbb     H1 4642   3.511   6.858   3.352  0.1037  2.5547 -0.1273
  160bbb     H2 4643   3.459   6.825   3.518  0.0170 -0.2125 -0.3237
  160bbb     C2 4644   3.635   7.017   3.628 -0.9758  0.3380  0.5022
  160bbb     H3 4645   3.638   7.126   3.640 -0.9771  0.2970  0.8624
  160bbb     H4 4646   3.739   6.987   3.640 -1.4853 -1.3948  0.8176
  160bbb     C3 4647   3.659   7.059   3.381 -0.0616 -0.1747 -0.3133
  160bbb     H5 4648   3.627   7.032   3.279  3.0854 -2.2753 -0.9048
  160bbb     H6 4649   3.762   7.025   3.397 -1.0197 -2.4232  1.6230
  160bbb     C4 4650   3.674   7.209   3.394 -0.8819  0.0731  0.2414
  160bbb     H7 4651   3.740   7.234   3.479  0.6955 -2.3103 -0.1747
  160bbb     H8 4652   3.574   7.249   3.413 -0.5427  1.6378 -1.0619
  160bbb     C5 4653   3.649   6.754   3.466  0.1874 -0.7139 -0.0742
  160bbb     H9 4654   3.682   6.751   3.571 -1.7653  2.8391  0.8122
  160bbb    H10 4655   3.729   6.786   3.397 -1.1870  0.6242 -1.1162
  160bbb     C6 4656   3.559   6.955   3.750 -0.0056  0.4086 -0.1375
  160bbb    H11 4657   3.597   6.995   3.844 -0.3276  0.9128 -0.2170
  160bbb    H12 4658   3.597   6.852   3.757 -0.1268  0.1768 -2.0852
  160bbb     C7 4659   3.721   7.275   3.260  0.4603  0.6325  0.3009
  160bbb    H13 4660   3.721   7.384   3.273  0.6952  0.8175 -1.1795
  160bbb    H14 4661   3.656   7.241   3.178 -0.1199  0.7191  0.7143
  160bbb     C8 4662   3.403   6.949   3.751 -0.0516 -0.4359  0.4385
  160bbb    H15 4663   3.359   6.897   3.665 -0.1153 -0.7752  0.6741
  160bbb    H16 4664   3.368   7.051   3.731 -1.5004 -1.2329 -1.3062
  160bbb     C9 4665   3.604   6.619   3.423  0.0151  0.0557  0.3288
  160bbb    H17 4666   3.619   6.608   3.315 -1.2072  1.6236 -0.0425
  160bbb    H18 4667   3.662   6.542   3.476  0.9932 -0.8748 -1.9834
  160bbb     O1 4668   3.854   7.231   3.246  1.0163  0.5462 -0.1664
  161bbb     N1 4669   4.399   8.358   3.411 -0.0487 -0.4445  1.2336
  161bbb     C1 4670   4.277   8.435   3.435 -0.6002 -1.1905 -0.1971
  161bbb     H1 4671   4.313   8.528   3.479  2.2772 -2.8727  1.3072
  161bbb     H2 4672   4.211   8.389   3.510  0.2927 -1.0165  0.7093
  161bbb     C2 4673   4.475   8.322   3.535  0.3620 -0.5439 -0.3757
  161bbb     H3 4674   4.567   8.278   3.494  0.9172  0.4939 -0.2814
  161bbb     H4 4675   4.428   8.240   3.590 -2.2286  1.8784  1.3195
  161bbb     C3 4676   4.375   8.231   3.330 -0.5427  0.0667  0.2095
  161bbb     H5 4677   4.472   8.180   3.328 -0.9483 -0.7134  0.2002
  161bbb     H6 4678   4.351   8.252   3.225  0.3915  1.1088  0.1898
  161bbb     C4 4679   4.268   8.137   3.396 -0.4230  0.3915  0.0952
  161bbb     H7 4680   4.174   8.191   3.410 -1.5482 -1.6956  1.0069
  161bbb     H8 4681   4.302   8.112   3.498  0.4481 -0.0717 -0.2976
  161bbb     C5 4682   4.175   8.466   3.315 -0.0241  0.5143  0.1053
  161bbb     H9 4683   4.093   8.529   3.352 -0.8940 -0.2777 -0.4394
  161bbb    H10 4684   4.124   8.374   3.284  0.2443  0.4131 -0.0343
  161bbb     C6 4685   4.504   8.432   3.634 -0.5627  0.7323 -0.4267
  161bbb    H11 4686   4.407   8.459   3.677 -1.5951 -2.0472 -0.7542
  161bbb    H12 4687   4.542   8.522   3.586  1.4379 -0.6035 -1.5008
  161bbb     C7 4688   4.240   8.017   3.300 -0.1718 -0.4279 -0.0421
  161bbb    H13 4689   4.211   8.053   3.200 -1.1481  0.4352  0.5259
  161bbb    H14 4690   4.158   7.965   3.351  1.5424 -2.2096  0.9977
  161bbb     C8 4691   4.609   8.386   3.739 -0.2108 -0.0302  0.2796
  161bbb    H15 4692   4.559   8.304   3.792  0.9968 -0.5485  0.6390
  161bbb    H16 4693   4.627   8.466   3.812 -0.5419  0.5250 -0.2372
  161bbb     C9 4694   4.238   8.531   3.182 -0.0800 -0.1784 -0.3229
  161bbb    H17 4695   4.337   8.486   3.168 -0.1512 -0.3623 -0.2374
  161bbb    H18 4696   4.247   8.637   3.209  1.8043  0.6370 -3.5947
  161bbb     O1 4697   4.361   7.936   3.288 -0.8910 -0.3107 -0.2669
  162bbb     N1 4698   5.214   6.975   1.170 -0.0482  0.6542  0.0871
  162bbb     C1 4699   5.338   7.009   1.247 -0.2056  0.8594  0.4041
  162bbb     H1 4700   5.318   7.012   1.355 -0.4594  2.3602  0.3350
  162bbb     H2 4701   5.370   7.111   1.222  0.2028  0.6183 -0.0825
  162bbb     C2 4702   5.177   6.827   1.157  0.0410  0.3717 -1.0584
  162bbb     H3 4703   5.269   6.774   1.131 -0.3492 -0.0886 -1.5474
  162bbb     H4 4704   5.096   6.813   1.084 -2.9227 -0.6510  2.1569
  162bbb     C3 4705   5.109   7.067   1.186  0.1812  0.3449 -0.3155
  162bbb     H5 4706   5.148   7.160   1.142  1.9787  0.1451  0.7795
  162bbb     H6 4707   5.085   7.079   1.292  2.3851 -2.1470  0.5838
  162bbb     C4 4708   4.975   7.031   1.107  0.3139 -0.0175  0.4721
  162bbb     H7 4709   4.907   6.960   1.156 -0.4150  1.2124  1.3065
  162bbb     H8 4710   4.992   6.993   1.006  0.2766  0.0576  0.4375
  162bbb     C5 4711   5.460   6.920   1.228 -0.3218  0.1846  0.8789
  162bbb     H9 4712   5.479   6.928   1.121  0.0979  0.9707  1.0050
  162bbb    H10 4713   5.442   6.813   1.250  4.8329 -1.0730  0.3324
  162bbb     C6 4714   5.111   6.771   1.288  0.2243 -0.2992  0.1311
  162bbb    H11 4715   5.018   6.825   1.311  0.0485  0.1727 -1.6095
  162bbb    H12 4716   5.179   6.793   1.371  0.5295  0.0498 -0.2094
  162bbb     C7 4717   4.899   7.158   1.078 -0.0557  0.2938  0.1665
  162bbb    H13 4718   4.802   7.136   1.031 -1.4086  0.2681  2.7641
  162bbb    H14 4719   4.956   7.208   1.000 -1.6206 -1.4400 -2.2495
  162bbb     C8 4720   5.075   6.622   1.276 -0.7556  0.3126 -0.3641
  162bbb    H15 4721   5.164   6.561   1.261  0.5184  2.0062  0.0251
  162bbb    H16 4722   5.012   6.609   1.187 -1.6461 -1.6062  0.5024
  162bbb     C9 4723   5.578   6.967   1.305  0.7237  0.8429 -0.3262
  162bbb    H17 4724   5.548   6.971   1.411 -0.0101  0.0792 -0.4951
  162bbb    H18 4725   5.608   7.064   1.265 -0.5349  1.2653 -0.2811
  162bbb     O1 4726   4.865   7.229   1.197  0.0432  0.0370  0.4924
  163bbb     N1 4727   4.507   7.968   0.620  0.0556  0.1391 -0.2842
  163bbb     C1 4728   4.437   8.087   0.567 -0.1809 -0.1216 -0.2130
  163bbb     H1 4729   4.359   8.131   0.631 -1.2113  0.6783 -1.9405
  163bbb     H2 4730   4.381   8.066   0.475 -0.7491  0.6085 -0.0478
  163bbb     C2 4731   4.582   7.898   0.517  0.1342 -0.2993 -0.1304
  163bbb     H3 4732   4.606   7.802   0.565 -1.3309 -0.2974  0.6840
  163bbb     H4 4733   4.670   7.959   0.494 -0.0481  1.0394  2.3074
  163bbb     C3 4734   4.588   8.013   0.736  0.4089  0.3949 -0.0164
  163bbb     H5 4735   4.534   8.062   0.818  0.8797 -0.8606  1.0862
  163bbb     H6 4736   4.672   8.071   0.696 -0.6501  1.3181 -0.9407
  163bbb     C4 4737   4.665   7.901   0.807  0.7238  0.1865  0.0016
  163bbb     H7 4738   4.738   7.857   0.737  1.4983 -0.6708  1.3164
  163bbb     H8 4739   4.591   7.823   0.826  0.4031  0.5910  0.4196
  163bbb     C5 4740   4.534   8.204   0.540 -0.2743 -0.6839  0.3437
  163bbb     H9 4741   4.625   8.169   0.489 -0.7498 -0.2186 -0.8263
  163bbb    H10 4742   4.566   8.247   0.636  0.4241  0.1525 -0.2492
  163bbb     C6 4743   4.500   7.862   0.390 -0.1325  0.5306 -0.0808
  163bbb    H11 4744   4.508   7.944   0.318  0.4623 -0.5276 -1.2633
  163bbb    H12 4745   4.393   7.850   0.410 -1.4062  2.5956 -4.3773
  163bbb     C7 4746   4.748   7.948   0.929  0.0070  0.6822  0.2818
  163bbb    H13 4747   4.802   8.037   0.895 -0.8525  0.8830 -0.6266
  163bbb    H14 4748   4.826   7.873   0.950 -1.1941 -1.4606 -2.2541
  163bbb     C8 4749   4.568   7.745   0.312 -0.0009 -0.1557  0.0251
  163bbb    H15 4750   4.627   7.686   0.383 -0.6654  2.0150  2.5649
  163bbb    H16 4751   4.636   7.772   0.231  0.7182 -2.0781 -0.0639
  163bbb     C9 4752   4.476   8.329   0.460 -0.4695  0.1257  0.3942
  163bbb    H17 4753   4.384   8.367   0.505 -0.3138  1.3253 -0.2716
  163bbb    H18 4754   4.439   8.297   0.361  0.8229 -2.6235  0.6972
  163bbb     O1 4755   4.660   7.966   1.042 -0.1281  0.1431 -0.1398
  164bbb     N1 4756   4.300   5.597   1.883 -0.5713 -0.4484  0.1037
  164bbb     C1 4757   4.416   5.586   1.791 -0.5937  0.0180  0.2946
  164bbb     H1 4758   4.434   5.479   1.781 -0.4949  0.1485 -1.1421
  164bbb     H2 4759   4.508   5.619   1.841 -0.6537 -1.1571  1.2325
  164bbb     C2 4760   4.346   5.547   2.017  0.0790 -0.3726  0.0942
  164bbb     H3 4761   4.400   5.627   2.069 -1.8167  1.2506 -0.2756
  164bbb     H4 4762   4.421   5.472   1.989  0.7604  0.3336  0.0021
  164bbb     C3 4763   4.229   5.731   1.877  0.6364  0.4367  0.2757
  164bbb     H5 4764   4.153   5.736   1.956  2.1743  1.8351  1.7711
  164bbb     H6 4765   4.180   5.744   1.780 -0.5532 -0.9549  0.6445
  164bbb     C4 4766   4.317   5.854   1.901 -0.0392  0.9173 -0.3680
  164bbb     H7 4767   4.394   5.873   1.825  0.7837 -1.9541 -0.3914
  164bbb     H8 4768   4.367   5.824   1.994  0.7845 -0.7693 -1.2975
  164bbb     C5 4769   4.408   5.642   1.646  0.1587  0.2127  0.3206
  164bbb     H9 4770   4.422   5.751   1.649  2.3126  0.0096 -0.6973
  164bbb    H10 4771   4.310   5.614   1.605  0.6640  1.2168 -1.6853
  164bbb     C6 4772   4.232   5.472   2.093  0.1981 -0.9272  0.7159
  164bbb    H11 4773   4.179   5.410   2.020 -2.4398  1.0627  0.7738
  164bbb    H12 4774   4.159   5.549   2.120  4.2883  3.0399  1.7544
  164bbb     C7 4775   4.234   5.982   1.918  0.3459  0.0587  0.6092
  164bbb    H13 4776   4.306   6.049   1.967  2.4137 -2.9595  2.0065
  164bbb    H14 4777   4.152   5.968   1.990  0.9383  1.6493  1.6455
  164bbb     C8 4778   4.284   5.398   2.215  0.1900  1.0596 -0.3041
  164bbb    H15 4779   4.361   5.324   2.187  1.2560  1.8816  0.3585
  164bbb    H16 4780   4.198   5.340   2.252  1.1955 -1.7026 -1.9636
  164bbb     C9 4781   4.513   5.576   1.560 -0.1346 -0.3394  0.0280
  164bbb    H17 4782   4.493   5.468   1.553  1.7986 -0.6605 -1.3872
  164bbb    H18 4783   4.500   5.614   1.458  0.2550 -0.3426 -0.0243
  164bbb     O1 4784   4.191   6.013   1.784  0.5866 -0.1689  0.2300
  165bbb     N1 4785   3.584   6.060   1.930  0.4161  0.1305 -0.3301
  165bbb     C1 4786   3.456   6.030   1.994 -1.2987 -0.0034 -0.2098
  165bbb     H1 4787   3.459   5.923   2.017  1.4331 -0.3610 -1.8122
  165bbb     H2 4788   3.377   6.039   1.918 -3.7360 -0.8932  2.0537
  165bbb     C2 4789   3.698   6.040   2.013 -0.1656 -0.0293  0.1181
  165bbb     H3 4790   3.674   6.074   2.114  0.4499  0.5632  0.0697
  165bbb     H4 4791   3.790   6.090   1.979 -0.0921  0.3483  0.8577
  165bbb     C3 4792   3.589   6.197   1.869 -0.3712 -0.4645  0.2100
  165bbb     H5 4793   3.685   6.206   1.817 -0.0543 -3.8225  0.0546
  165bbb     H6 4794   3.571   6.275   1.944  1.4018  1.5714 -1.3579
  165bbb     C4 4795   3.478   6.221   1.762 -0.3878 -0.2561  0.0690
  165bbb     H7 4796   3.379   6.234   1.808 -0.1103  0.3349  0.5156
  165bbb     H8 4797   3.465   6.139   1.691 -0.5305 -0.8585  0.7788
  165bbb     C5 4798   3.417   6.105   2.117  0.7156 -0.1574  0.3266
  165bbb     H9 4799   3.393   6.209   2.091 -2.6028 -0.7188  0.7474
  165bbb    H10 4800   3.492   6.106   2.197  2.2990 -1.3980 -1.0610
  165bbb     C6 4801   3.733   5.885   2.021  0.2116  0.2435 -0.0773
  165bbb    H11 4802   3.761   5.857   1.918 -0.4247 -2.1884  0.3726
  165bbb    H12 4803   3.646   5.836   2.064  1.6183 -3.0603 -0.6722
  165bbb     C7 4804   3.513   6.357   1.686  0.0263 -0.0690  0.4253
  165bbb    H13 4805   3.531   6.435   1.762  0.5542 -0.8235  1.1020
  165bbb    H14 4806   3.437   6.387   1.614  1.5951  1.5405 -0.6507
  165bbb     C8 4807   3.835   5.854   2.132 -0.2849 -0.4228 -0.1153
  165bbb    H15 4808   3.915   5.929   2.131 -1.4515  0.9545  2.0501
  165bbb    H16 4809   3.874   5.752   2.119 -1.1647 -0.8077  0.1710
  165bbb     C9 4810   3.291   6.032   2.181 -0.2162  0.2904  0.3073
  165bbb    H17 4811   3.264   6.091   2.270  1.4230 -0.0998  1.1135
  165bbb    H18 4812   3.319   5.929   2.204  3.2136  0.7210 -1.3356
  165bbb     O1 4813   3.638   6.339   1.615  0.2464  0.3899  0.5803
  166bbb     N1 4814   7.816   8.283   1.414  0.3065 -0.7596  0.0114
  166bbb     C1 4815   7.669   8.282   1.383 -0.2790 -0.1730 -0.2639
  166bbb     H1 4816   7.651   8.384   1.346  1.0460  0.7061  1.3700
  166bbb     H2 4817   7.609   8.287   1.474  1.6945 -0.9701  1.1358
  166bbb     C2 4818   7.850   8.377   1.533  0.7848 -0.2662  0.0647
  166bbb     H3 4819   7.955   8.368   1.561  0.7348 -2.9486 -0.3781
  166bbb     H4 4820   7.791   8.340   1.618  0.0174 -0.8235 -0.6924
  166bbb     C3 4821   7.875   8.152   1.442  0.2315 -0.5498  0.1730
  166bbb     H5 4822   7.984   8.161   1.438  0.3452 -1.1671  1.3532
  166bbb     H6 4823   7.850   8.082   1.361  1.1355 -0.5971 -0.0678
  166bbb     C4 4824   7.836   8.084   1.577  0.2301 -0.0625 -0.0197
  166bbb     H7 4825   7.728   8.096   1.587 -0.3789 -2.6393 -2.2644
  166bbb     H8 4826   7.889   8.132   1.660 -0.5412  2.4430 -0.8832
  166bbb     C5 4827   7.616   8.165   1.292  0.2946 -0.5825  0.9106
  166bbb     H9 4828   7.510   8.186   1.273  0.5177  1.7620  1.8797
  166bbb    H10 4829   7.615   8.068   1.343  0.3573 -1.0719 -0.0046
  166bbb     C6 4830   7.812   8.527   1.515 -0.2995 -0.5648 -0.0229
  166bbb    H11 4831   7.703   8.536   1.516 -0.1986  1.2615 -1.2067
  166bbb    H12 4832   7.836   8.566   1.415  0.9456  1.7615  1.1079
  166bbb     C7 4833   7.865   7.933   1.580 -0.2400 -0.4600  0.2730
  166bbb    H13 4834   7.974   7.925   1.594  0.0629  0.5400 -1.2475
  166bbb    H14 4835   7.844   7.886   1.483 -0.6244 -1.5480  0.8610
  166bbb     C8 4836   7.871   8.630   1.616  0.4550  0.2618  0.2485
  166bbb    H15 4837   7.833   8.732   1.604  0.4537  0.5051  2.0913
  166bbb    H16 4838   7.979   8.638   1.599  0.4207 -0.2990 -0.2835
  166bbb     C9 4839   7.682   8.165   1.154  0.4549  0.2402  0.1179
  166bbb    H17 4840   7.790   8.157   1.169  0.2503 -1.6058  0.8619
  166bbb    H18 4841   7.647   8.255   1.101 -3.8075 -1.5186 -0.4649
  166bbb     O1 4842   7.786   7.868   1.684  0.7812 -0.2640  1.0027
  167bbb     N1 4843   7.889   7.756   2.543  0.2868 -0.8104  0.1861
  167bbb     C1 4844   7.892   7.748   2.689  0.0208  0.2191  0.6008
  167bbb     H1 4845   7.792   7.725   2.728 -0.2096  2.0284  1.1955
  167bbb     H2 4846   7.921   7.842   2.738  0.8123 -0.7765  2.1250
  167bbb     C2 4847   7.806   7.874   2.515  0.1816  0.3709  0.6275
  167bbb     H3 4848   7.847   7.963   2.563  1.3571  0.4289 -0.4435
  167bbb     H4 4849   7.700   7.878   2.543  0.2231  1.8665  0.6642
  167bbb     C3 4850   7.855   7.630   2.476 -0.2175  0.7701 -0.0181
  167bbb     H5 4851   7.764   7.647   2.418 -1.0148  2.0775  1.5504
  167bbb     H6 4852   7.816   7.558   2.550 -1.1224  0.2690 -0.9499
  167bbb     C4 4853   7.968   7.569   2.398 -0.4765 -0.5979 -0.0387
  167bbb     H7 4854   8.058   7.558   2.460 -0.6091  0.9707  0.4679
  167bbb     H8 4855   7.986   7.630   2.309 -1.1667 -1.0147 -0.4803
  167bbb     C5 4856   7.994   7.649   2.735 -0.5278  0.3071 -0.0258
  167bbb     H9 4857   8.091   7.665   2.687 -1.8452  1.0223 -2.6790
  167bbb    H10 4858   7.959   7.548   2.710 -0.4054  0.2477  0.0437
  167bbb     C6 4859   7.806   7.912   2.357 -0.1716  0.2844 -0.1617
  167bbb    H11 4860   7.744   8.001   2.342 -0.6019  0.0427  0.1681
  167bbb    H12 4861   7.762   7.831   2.298  0.4508  0.0574 -0.3267
  167bbb     C7 4862   7.944   7.430   2.338 -0.1837 -0.0022 -0.4186
  167bbb    H13 4863   7.941   7.349   2.411  1.2818 -0.8346 -1.2316
  167bbb    H14 4864   8.018   7.396   2.265 -0.9798  0.6969 -1.5981
  167bbb     C8 4865   7.948   7.950   2.302 -0.4855  0.6260 -0.4852
  167bbb    H15 4866   8.013   7.868   2.335 -0.0457  1.3152  0.3933
  167bbb    H16 4867   7.979   8.038   2.360 -0.9894 -0.1619  1.0418
  167bbb     C9 4868   8.011   7.656   2.888  0.5136 -0.0254  0.4122
  167bbb    H17 4869   7.993   7.759   2.918 -0.9090  0.3979 -1.6807
  167bbb    H18 4870   7.930   7.601   2.937 -0.4335 -0.7953 -1.8705
  167bbb     O1 4871   7.825   7.441   2.262  1.0036 -0.5337 -0.2810
  168bbb     N1 4872   6.520   7.919   0.798 -0.2356  0.1093 -0.2754
  168bbb     C1 4873   6.434   7.959   0.912  0.0144 -0.8407  0.5953
  168bbb     H1 4874   6.495   8.010   0.988  0.4067  0.7517 -0.7363
  168bbb     H2 4875   6.382   7.871   0.952 -0.1457 -1.4381 -0.8476
  168bbb     C2 4876   6.571   8.031   0.726 -0.4400 -0.4130  0.2215
  168bbb     H3 4877   6.486   8.094   0.699 -2.4259 -2.9935  0.0419
  168bbb     H4 4878   6.607   7.995   0.629  2.5078  0.4645  0.8707
  168bbb     C3 4879   6.615   7.810   0.834 -0.3289  0.4440 -0.0920
  168bbb     H5 4880   6.562   7.721   0.871  0.9642 -0.9100 -1.3187
  168bbb     H6 4881   6.678   7.855   0.911  2.2256 -1.5898 -0.8310
  168bbb     C4 4882   6.703   7.760   0.717  0.0590 -0.0857 -0.1260
  168bbb     H7 4883   6.756   7.846   0.674 -1.4949  1.1629  0.3559
  168bbb     H8 4884   6.639   7.705   0.646 -0.9551  0.8611  0.0207
  168bbb     C5 4885   6.314   8.054   0.874 -0.0667 -0.8577 -0.1861
  168bbb     H9 4886   6.259   8.022   0.784  0.5705 -1.2445 -0.4432
  168bbb    H10 4887   6.351   8.156   0.856 -2.4552  0.4117  1.5626
  168bbb     C6 4888   6.694   8.095   0.792 -0.0112  0.0601  0.0970
  168bbb    H11 4889   6.775   8.029   0.824  1.4281  0.8886 -1.6374
  168bbb    H12 4890   6.649   8.137   0.882 -0.7793 -3.0898  1.3195
  168bbb     C7 4891   6.810   7.665   0.766  0.3905 -0.1821 -0.0133
  168bbb    H13 4892   6.873   7.640   0.680  0.9036 -0.2589  0.3793
  168bbb    H14 4893   6.767   7.572   0.807 -1.3126  1.0197  1.0841
  168bbb     C8 4894   6.766   8.194   0.696  0.1959 -0.0488 -0.4982
  168bbb    H15 4895   6.790   8.129   0.611  0.4804 -1.1525  0.4083
  168bbb    H16 4896   6.859   8.228   0.743 -0.9786 -0.0730  1.9673
  168bbb     C9 4897   6.227   8.080   1.004 -0.2639  0.4206  0.6253
  168bbb    H17 4898   6.290   8.113   1.088  1.6766 -1.8671  0.1700
  168bbb    H18 4899   6.186   7.983   1.032 -1.2245  0.6462  0.0405
  168bbb     O1 4900   6.887   7.728   0.862  0.3778 -0.1350 -0.2219
  169bbb     N1 4901   7.108   8.821   1.059  0.8909  0.3013  0.7452
  169bbb     C1 4902   7.132   8.945   1.139  0.5766 -0.2733 -0.6792
  169bbb     H1 4903   7.071   9.025   1.094  0.8621 -0.2382 -1.0123
  169bbb     H2 4904   7.238   8.970   1.135  1.1252 -1.7119  2.3366
  169bbb     C2 4905   7.185   8.823   0.923  0.3607 -0.6415 -0.1101
  169bbb     H3 4906   7.216   8.719   0.905 -1.4212 -0.9954 -1.3307
  169bbb     H4 4907   7.280   8.877   0.932  0.8355 -1.6377  1.2063
  169bbb     C3 4908   6.975   8.753   1.062 -0.7494  0.4968  0.0569
  169bbb     H5 4909   6.908   8.809   0.996 -0.7206  1.0085  0.4507
  169bbb     H6 4910   6.929   8.745   1.162  0.5506 -0.0712  0.6279
  169bbb     C4 4911   6.982   8.615   1.003 -0.1023 -0.4471  0.2782
  169bbb     H7 4912   7.015   8.616   0.898 -0.9454 -1.8629 -0.0212
  169bbb     H8 4913   6.876   8.586   1.001 -1.0269  2.4873  0.7777
  169bbb     C5 4914   7.091   8.941   1.285  0.0974 -0.2886  0.0028
  169bbb     H9 4915   7.167   9.010   1.325 -0.8940  0.3830  0.7835
  169bbb    H10 4916   7.106   8.844   1.334  2.0435  0.4744  1.0596
  169bbb     C6 4917   7.104   8.868   0.798  0.8843  0.5400 -0.0853
  169bbb    H11 4918   7.005   8.824   0.778  0.7151  1.2750 -0.9681
  169bbb    H12 4919   7.161   8.858   0.705 -0.3360 -1.3848 -0.7065
  169bbb     C7 4920   7.072   8.525   1.090 -0.4658 -0.0456 -0.1431
  169bbb    H13 4921   7.023   8.505   1.186  1.3639 -0.0525  0.8392
  169bbb    H14 4922   7.168   8.578   1.099 -0.1708 -0.5012 -0.5206
  169bbb     C8 4923   7.066   9.016   0.810  0.8569  0.0815 -0.4193
  169bbb    H15 4924   7.163   9.062   0.831  1.0110 -0.2886 -0.3159
  169bbb    H16 4925   6.999   9.033   0.895  2.5081  0.2009  0.9230
  169bbb     C9 4926   6.953   9.014   1.325  0.2889  0.1844 -0.4833
  169bbb    H17 4927   6.870   8.953   1.286 -0.5567  0.8462  0.2273
  169bbb    H18 4928   6.948   9.108   1.269 -1.8368  0.1868 -0.3792
  169bbb     O1 4929   7.092   8.398   1.027 -0.4536  0.2080  0.0381
  170bbb     N1 4930   4.993   6.346   0.508  0.0387 -0.3545  1.1704
  170bbb     C1 4931   4.974   6.213   0.445 -1.2886 -0.5435 -0.4483
  170bbb     H1 4932   4.943   6.237   0.342 -0.7818  2.8132  0.0689
  170bbb     H2 4933   4.891   6.155   0.486 -1.2955 -0.8885 -0.9363
  170bbb     C2 4934   4.859   6.419   0.519  0.3523  0.4253 -0.7215
  170bbb     H3 4935   4.800   6.401   0.428 -0.6353 -1.4105  0.2280
  170bbb     H4 4936   4.873   6.526   0.537  0.0776  0.4356 -0.5574
  170bbb     C3 4937   5.091   6.432   0.429  0.2923  0.1323  0.4561
  170bbb     H5 4938   5.062   6.447   0.324  2.0668  0.1547 -0.0614
  170bbb     H6 4939   5.193   6.393   0.420  0.0471 -0.2665 -0.8218
  170bbb     C4 4940   5.109   6.580   0.497  0.0737  0.2700 -0.1789
  170bbb     H7 4941   5.034   6.655   0.471 -0.0833 -0.2892 -1.4332
  170bbb     H8 4942   5.197   6.627   0.452  2.3971 -1.4432  2.2849
  170bbb     C5 4943   5.100   6.127   0.451  0.0581 -0.8720  0.4812
  170bbb     H9 4944   5.134   6.127   0.555 -0.4067  0.4029  0.6487
  170bbb    H10 4945   5.178   6.172   0.388 -0.4144 -0.3894  0.2374
  170bbb     C6 4946   4.782   6.360   0.640 -0.9040 -0.4327  0.5446
  170bbb    H11 4947   4.843   6.327   0.725 -1.6280  0.1794  1.3085
  170bbb    H12 4948   4.739   6.270   0.595  2.1033 -1.3239 -0.8727
  170bbb     C7 4949   5.138   6.578   0.651 -0.4617  0.0595 -0.0176
  170bbb    H13 4950   5.219   6.506   0.664 -0.5330 -0.0242 -0.0399
  170bbb    H14 4951   5.045   6.554   0.704 -0.1679 -0.5628  0.2171
  170bbb     C8 4952   4.671   6.445   0.692  0.4625  0.1544 -0.3509
  170bbb    H15 4953   4.635   6.402   0.786 -0.2410 -0.5537 -0.9404
  170bbb    H16 4954   4.580   6.443   0.632  0.0618 -0.7654  0.2688
  170bbb     C9 4955   5.076   5.982   0.410 -0.3156  0.7802 -0.0812
  170bbb    H17 4956   4.992   5.944   0.470 -0.1885  1.2516  0.4005
  170bbb    H18 4957   5.166   5.930   0.445 -0.7970 -0.1115 -0.1219
  170bbb     O1 4958   5.191   6.709   0.690  0.6943  0.2045 -0.4350
  171bbb     N1 4959   6.316   6.574   0.266 -0.3732 -0.1358 -0.4885
  171bbb     C1 4960   6.439   6.488   0.289  0.2353 -0.9024  0.1840
  171bbb     H1 4961   6.514   6.511   0.212  2.2666 -1.7041  1.8031
  171bbb     H2 4962   6.418   6.381   0.285  0.6737 -1.0704  1.6867
  171bbb     C2 4963   6.247   6.550   0.135 -0.1264 -0.0655  0.1636
  171bbb     H3 4964   6.175   6.630   0.111  1.3601  1.5299  0.8335
  171bbb     H4 4965   6.205   6.449   0.132  1.0139 -0.5464 -2.2144
  171bbb     C3 4966   6.218   6.589   0.378  0.5630  0.6425  1.3139
  171bbb     H5 4967   6.154   6.675   0.354  0.0766 -0.2333 -0.7117
  171bbb     H6 4968   6.271   6.634   0.463 -0.0336 -0.0209  2.0511
  171bbb     C4 4969   6.139   6.461   0.411  0.5632 -0.1316  0.4484
  171bbb     H7 4970   6.207   6.376   0.403  1.3450  0.4483  0.7455
  171bbb     H8 4971   6.059   6.451   0.336  0.6056 -0.3924  0.4375
  171bbb     C5 4972   6.513   6.511   0.427 -0.0187 -0.5110 -0.0467
  171bbb     H9 4973   6.593   6.436   0.430  0.5135  0.0485  0.0168
  171bbb    H10 4974   6.447   6.490   0.512 -0.5762 -0.2969 -0.4158
  171bbb     C6 4975   6.356   6.558   0.020 -0.0939 -0.3813  0.0693
  171bbb    H11 4976   6.395   6.456   0.011 -2.9903 -1.4670 -1.7116
  171bbb    H12 4977   6.444   6.620   0.044  1.1030 -1.1702 -1.9697
  171bbb     C7 4978   6.076   6.474   0.544 -0.2210 -0.0797 -1.1459
  171bbb    H13 4979   6.151   6.495   0.621  0.1330 -1.7086 -1.0310
  171bbb    H14 4980   6.035   6.377   0.571 -0.7868 -0.2236 -2.4392
  171bbb     C8 4981   6.300   6.598  -0.123 -0.5019  1.0679  0.4192
  171bbb    H15 4982   6.231   6.530  -0.174  0.1909  0.8740 -0.2840
  171bbb    H16 4983   6.389   6.590  -0.186 -0.5289  1.4152  0.3368
  171bbb     C9 4984   6.562   6.661   0.438  0.3012 -0.0871 -0.2678
  171bbb    H17 4985   6.468   6.719   0.439  1.1791  1.4067  0.2999
  171bbb    H18 4986   6.613   6.694   0.347 -0.4968  0.5674 -0.4934
  171bbb     O1 4987   5.967   6.566   0.550 -0.2355  0.1617  0.2970
  172bbb     N1 4988   4.997   7.517   0.682  0.1797  0.1741 -0.1846
  172bbb     C1 4989   4.864   7.450   0.701  0.6249  0.0271 -0.1501
  172bbb     H1 4990   4.867   7.367   0.773  0.0710  2.0851  2.4257
  172bbb     H2 4991   4.825   7.413   0.606  1.4735 -0.8209 -0.1853
  172bbb     C2 4992   4.997   7.643   0.609  0.4253  0.3093 -0.3753
  172bbb     H3 4993   5.087   7.705   0.614  0.6544  0.3130 -2.9692
  172bbb     H4 4994   4.922   7.703   0.663  0.9955  0.2102  0.5463
  172bbb     C3 4995   5.104   7.425   0.655 -0.2904  0.0452  0.1781
  172bbb     H5 4996   5.197   7.474   0.624 -0.5482 -0.4903 -1.5259
  172bbb     H6 4997   5.069   7.370   0.567  2.0588 -0.4529 -0.5190
  172bbb     C4 4998   5.131   7.327   0.764  0.0043 -0.2484  0.8120
  172bbb     H7 4999   5.066   7.239   0.774 -4.2472  2.6164  1.1874
  172bbb     H8 5000   5.125   7.387   0.856 -2.4243  1.2839 -0.2512
  172bbb     C5 5001   4.762   7.532   0.765 -0.3066 -0.0469 -0.0666
  172bbb     H9 5002   4.726   7.613   0.699  3.9661  1.7577 -0.5272
  172bbb    H10 5003   4.820   7.580   0.844 -0.6824 -1.2656  0.9703
  172bbb     C6 5004   4.964   7.623   0.458 -0.1142 -0.0763 -0.2318
  172bbb    H11 5005   4.885   7.549   0.444 -0.2166  0.3352 -2.2224
  172bbb    H12 5006   5.054   7.582   0.410  0.3875  1.3654 -0.6031
  172bbb     C7 5007   5.269   7.261   0.751 -0.2322  0.8845  0.4636
  172bbb    H13 5008   5.309   7.223   0.846 -1.2744  0.4030  0.7314
  172bbb    H14 5009   5.344   7.334   0.718 -0.6644  1.2097  0.1916
  172bbb     C8 5010   4.911   7.755   0.400  0.0610 -0.2149 -0.3704
  172bbb    H15 5011   4.982   7.834   0.426 -0.6073 -0.4366  2.4547
  172bbb    H16 5012   4.818   7.788   0.448 -0.1425 -1.5847  0.2209
  172bbb     C9 5013   4.645   7.456   0.829 -0.1284 -0.3818 -0.4326
  172bbb    H17 5014   4.580   7.529   0.878 -0.7182 -1.3116  0.2218
  172bbb    H18 5015   4.693   7.396   0.907  1.4882  1.3232 -0.0462
  172bbb     O1 5016   5.268   7.158   0.646 -0.0877  0.1020 -0.5717
  173bbb     N1 5017   6.012   7.664   0.221 -0.4033  0.7077 -0.4498
  173bbb     C1 5018   6.038   7.793   0.154  0.3166 -0.0465  0.4922
  173bbb     H1 5019   6.000   7.783   0.052 -0.0479 -0.6784  0.6861
  173bbb     H2 5020   6.144   7.820   0.145  0.0609  0.9304  0.2495
  173bbb     C2 5021   6.085   7.658   0.352  0.0681 -0.8307 -0.2261
  173bbb     H3 5022   6.039   7.727   0.423  0.6189  0.6031 -1.2160
  173bbb     H4 5023   6.180   7.703   0.321 -0.7750  1.2148 -0.0069
  173bbb     C3 5024   5.876   7.604   0.208  0.3694  0.6212  0.2761
  173bbb     H5 5025   5.811   7.676   0.258 -2.1764 -1.8695  0.7872
  173bbb     H6 5026   5.874   7.506   0.258 -0.4816  1.5613  2.1644
  173bbb     C4 5027   5.820   7.591   0.067  0.4336  0.5829  0.7019
  173bbb     H7 5028   5.886   7.523   0.012  2.2356  2.9819 -0.2535
  173bbb     H8 5029   5.816   7.683   0.007  0.4178  0.4124  0.4377
  173bbb     C5 5030   5.963   7.911   0.208 -0.3717 -0.2164 -0.4142
  173bbb     H9 5031   6.011   7.923   0.307 -0.3814 -0.8187 -0.3300
  173bbb    H10 5032   5.856   7.896   0.230 -0.1591 -1.1274  0.0610
  173bbb     C6 5033   6.100   7.516   0.410  0.0226 -0.4708 -0.1562
  173bbb    H11 5034   6.008   7.466   0.444  1.4208 -1.1359  3.0875
  173bbb    H12 5035   6.134   7.533   0.513 -0.3094  0.5008 -0.1989
  173bbb     C7 5036   5.683   7.526   0.078  0.0834 -0.0901 -0.2832
  173bbb    H13 5037   5.634   7.530  -0.020 -0.4040 -0.5186 -0.0664
  173bbb    H14 5038   5.614   7.585   0.140  0.6006 -0.0925  0.3043
  173bbb     C8 5039   6.194   7.425   0.333 -0.4750  0.7994  0.0243
  173bbb    H15 5040   6.285   7.480   0.307 -1.4896  2.4237 -0.2461
  173bbb    H16 5041   6.141   7.375   0.251 -3.0793 -1.0360  2.6053
  173bbb     C9 5042   5.982   8.034   0.129  0.2103 -0.5140 -0.6634
  173bbb    H17 5043   5.949   8.017   0.025 -0.1121  3.4009 -1.3675
  173bbb    H18 5044   6.085   8.072   0.137 -0.4598  1.1293  0.6037
  173bbb     O1 5045   5.699   7.388   0.128  0.0215 -0.0039  0.1086
  174bbb     N1 5046   6.821   5.173   5.582 -0.4613 -0.2527  0.3817
  174bbb     C1 5047   6.882   5.171   5.722  0.0113  0.3061  0.9530
  174bbb     H1 5048   6.862   5.263   5.780 -3.6515 -0.3280  0.9504
  174bbb     H2 5049   6.991   5.166   5.711 -0.1592 -0.4837 -0.5284
  174bbb     C2 5050   6.848   5.048   5.500  1.0215  0.6814 -0.7792
  174bbb     H3 5051   6.782   5.042   5.413  0.9385 -2.2095 -0.6112
  174bbb     H4 5052   6.827   4.955   5.555 -1.3645  1.2245 -0.6709
  174bbb     C3 5053   6.843   5.304   5.529  0.1194 -0.3985  0.2672
  174bbb     H5 5054   6.949   5.324   5.510  0.0217 -0.1708 -0.0535
  174bbb     H6 5055   6.812   5.380   5.601  4.9646  0.4446  1.7592
  174bbb     C4 5056   6.777   5.335   5.388  0.0043 -0.7012 -0.0102
  174bbb     H7 5057   6.670   5.315   5.395  0.2593 -2.1063  0.1124
  174bbb     H8 5058   6.817   5.262   5.316  1.5192  1.2232 -1.2143
  174bbb     C5 5059   6.817   5.060   5.808  0.5196 -0.1547  0.4581
  174bbb     H9 5060   6.883   4.973   5.814  1.6967  0.6836 -0.0137
  174bbb    H10 5061   6.721   5.031   5.763  0.6636  1.3724 -0.9167
  174bbb     C6 5062   6.981   5.028   5.446 -0.2390  0.0312 -0.5291
  174bbb    H11 5063   7.056   5.017   5.525 -0.8731 -1.0280 -0.0552
  174bbb    H12 5064   7.012   5.115   5.387  0.6071 -1.0416 -1.7549
  174bbb     C7 5065   6.807   5.484   5.344  0.2426  0.4221 -0.6274
  174bbb    H13 5066   6.915   5.499   5.352  0.4292  0.6036 -2.8028
  174bbb    H14 5067   6.753   5.554   5.410 -2.4282 -2.7751  0.8748
  174bbb     C8 5068   7.004   4.906   5.351 -0.3232  0.8331 -0.5507
  174bbb    H15 5069   6.914   4.848   5.325  0.2427 -0.2034 -0.2887
  174bbb    H16 5070   7.057   4.825   5.405  0.0597  0.0439 -2.0526
  174bbb     C9 5071   6.779   5.112   5.947  0.3399 -0.5045  0.0783
  174bbb    H17 5072   6.701   5.046   5.987 -1.5988  2.0932  0.8203
  174bbb    H18 5073   6.729   5.209   5.934 -0.9895 -1.1285  0.3205
  174bbb     O1 5074   6.766   5.507   5.207  0.2855 -0.3602  0.1022
  175bbb     N1 5075   7.747   5.402   4.530  0.0732 -0.2415  1.1650
  175bbb     C1 5076   7.877   5.421   4.465 -0.8948 -0.5010  0.3933
  175bbb     H1 5077   7.868   5.476   4.370 -1.5276  2.1299  1.8579
  175bbb     H2 5078   7.932   5.327   4.450  1.0563  0.4535  1.1012
  175bbb     C2 5079   7.682   5.273   4.483  0.1395 -0.2866  0.3511
  175bbb     H3 5080   7.689   5.265   4.374  1.3301 -0.5350  0.4295
  175bbb     H4 5081   7.578   5.273   4.518  0.9588 -2.4072  3.1337
  175bbb     C3 5082   7.656   5.522   4.526  0.2149 -0.3732  0.0400
  175bbb     H5 5083   7.621   5.546   4.425  1.1939  0.2052 -0.1732
  175bbb     H6 5084   7.715   5.609   4.558  1.0239  0.5204 -3.4876
  175bbb     C4 5085   7.531   5.506   4.622 -0.5471  0.2350  0.0694
  175bbb     H7 5086   7.540   5.574   4.708  0.1476 -0.0534  0.2364
  175bbb     H8 5087   7.513   5.410   4.672  1.8961  0.9253  2.5394
  175bbb     C5 5088   7.971   5.510   4.545 -0.2653  0.4823 -0.3612
  175bbb     H9 5089   7.987   5.448   4.634 -1.0735  0.3357 -0.3087
  175bbb    H10 5090   7.930   5.607   4.574  0.4141  0.5036  0.5732
  175bbb     C6 5091   7.744   5.148   4.549 -0.5503  0.8310 -0.0424
  175bbb    H11 5092   7.752   5.167   4.657 -0.6819  1.8932 -0.2048
  175bbb    H12 5093   7.846   5.126   4.515 -0.7957 -0.1698 -0.1483
  175bbb     C7 5094   7.407   5.546   4.539  0.0512 -0.0466  0.2090
  175bbb    H13 5095   7.384   5.475   4.458  0.6252  0.9365 -0.8588
  175bbb    H14 5096   7.426   5.638   4.483  3.1395 -1.7193 -1.8609
  175bbb     C8 5097   7.666   5.021   4.521  0.4969  0.1506  0.5882
  175bbb    H15 5098   7.699   4.932   4.576 -1.3852  2.1618  5.5665
  175bbb    H16 5099   7.671   4.999   4.414 -0.0016 -1.8914  0.9413
  175bbb     C9 5100   8.105   5.520   4.475  0.1616  0.4400  1.1202
  175bbb    H17 5101   8.125   5.436   4.408  0.8832  0.1214  1.7302
  175bbb    H18 5102   8.178   5.526   4.556  1.1547  2.2970  0.1756
  175bbb     O1 5103   7.294   5.561   4.632  0.0789  0.2744  0.9662
  176bbb     N1 5104   5.218   4.711   4.313  0.1340 -0.5649  0.3335
  176bbb     C1 5105   5.085   4.705   4.371  0.2648 -0.8269  0.2474
  176bbb     H1 5106   5.102   4.719   4.478  1.9463  1.6263 -0.2462
  176bbb     H2 5107   5.041   4.607   4.350  3.0149 -2.2249  0.4943
  176bbb     C2 5108   5.222   4.698   4.166 -0.2650  1.0216 -0.6483
  176bbb     H3 5109   5.209   4.790   4.108 -0.3154  0.1772 -2.0054
  176bbb     H4 5110   5.150   4.629   4.121  0.9069  0.4625 -1.7248
  176bbb     C3 5111   5.303   4.820   4.365 -0.7313  0.2685 -0.0421
  176bbb     H5 5112   5.250   4.915   4.368  0.2163  0.8381 -0.6684
  176bbb     H6 5113   5.383   4.844   4.293 -1.5869  4.0245  0.0565
  176bbb     C4 5114   5.366   4.788   4.509 -0.7988  0.2385  0.3359
  176bbb     H7 5115   5.295   4.729   4.567 -0.5506 -0.9272 -0.5047
  176bbb     H8 5116   5.378   4.888   4.553 -1.0600  0.5753 -0.3398
  176bbb     C5 5117   4.979   4.803   4.314  0.1245 -0.0748 -0.0050
  176bbb     H9 5118   4.947   4.753   4.222 -0.7347 -0.1620  0.3283
  176bbb    H10 5119   5.028   4.900   4.297 -0.3181  0.2128  0.3466
  176bbb     C6 5120   5.366   4.651   4.124  0.3257 -0.2233  0.1658
  176bbb    H11 5121   5.382   4.551   4.165 -1.8287 -1.5274 -1.9591
  176bbb    H12 5122   5.448   4.719   4.153 -0.3799  0.0691  1.5829
  176bbb     C7 5123   5.494   4.698   4.488 -0.3751  0.1104  0.1880
  176bbb    H13 5124   5.469   4.598   4.452  0.2193 -0.1721  0.5327
  176bbb    H14 5125   5.553   4.693   4.581  0.6534  0.5690 -0.4198
  176bbb     C8 5126   5.361   4.630   3.972  1.0122  0.0595  0.1339
  176bbb    H15 5127   5.335   4.730   3.936  3.3534  0.2280 -1.3470
  176bbb    H16 5128   5.290   4.553   3.940  0.2334  0.2009  1.4220
  176bbb     C9 5129   4.851   4.814   4.409 -0.1272  0.4569  0.2126
  176bbb    H17 5130   4.890   4.871   4.494 -1.5070 -2.2024  2.8157
  176bbb    H18 5131   4.823   4.719   4.456  0.6578  0.5108  0.8218
  176bbb     O1 5132   5.588   4.755   4.401 -0.4445 -0.1218 -0.1015
  177bbb     N1 5133   5.771   5.303   3.552  0.5681  0.1421 -0.0424
  177bbb     C1 5134   5.919   5.312   3.579  0.4312  0.4176  0.6507
  177bbb     H1 5135   5.956   5.402   3.528 -1.4149  0.1458 -1.3660
  177bbb     H2 5136   5.970   5.228   3.530  1.7930  0.4721  1.9294
  177bbb     C2 5137   5.709   5.425   3.613  0.1613 -0.6310 -0.3824
  177bbb     H3 5138   5.768   5.515   3.592 -2.0628  0.9622 -0.1071
  177bbb     H4 5139   5.706   5.405   3.721  0.4643 -2.0653 -0.6193
  177bbb     C3 5140   5.694   5.180   3.572 -0.2524  0.5654  0.2129
  177bbb     H5 5141   5.588   5.201   3.551 -0.4416  0.3718  0.9481
  177bbb     H6 5142   5.706   5.152   3.677 -0.4264 -1.4216 -0.2538
  177bbb     C4 5143   5.755   5.060   3.493 -0.0309  0.0371 -0.5787
  177bbb     H7 5144   5.864   5.049   3.491 -0.0047  0.3859 -1.5551
  177bbb     H8 5145   5.730   5.082   3.388 -3.0095  0.0592  0.0543
  177bbb     C5 5146   5.959   5.317   3.727 -0.2409  0.1145  0.0365
  177bbb     H9 5147   5.908   5.236   3.782 -3.4632  1.4314 -0.7478
  177bbb    H10 5148   5.924   5.415   3.760 -1.0703 -0.2299  0.2370
  177bbb     C6 5149   5.564   5.459   3.576 -1.1864 -0.3798  0.2827
  177bbb    H11 5150   5.539   5.547   3.638  2.3973  0.8260  0.1978
  177bbb    H12 5151   5.493   5.380   3.606 -1.8596  0.9746  2.4735
  177bbb     C7 5152   5.692   4.925   3.544  0.2521 -0.6798  0.1325
  177bbb    H13 5153   5.733   4.833   3.501  0.0636 -0.6938 -0.0171
  177bbb    H14 5154   5.582   4.926   3.541  0.2582 -0.5129 -0.1342
  177bbb     C8 5155   5.559   5.487   3.428  0.0947 -0.5074  0.4782
  177bbb    H15 5156   5.592   5.400   3.369 -0.8048 -0.3691 -0.2536
  177bbb    H16 5157   5.617   5.579   3.410  0.1289 -0.3182  1.5133
  177bbb     C9 5158   6.106   5.308   3.765  0.1530 -0.0760  0.2402
  177bbb    H17 5159   6.125   5.342   3.868 -0.6003  2.5261 -0.3987
  177bbb    H18 5160   6.162   5.389   3.715  2.2785  0.1286  2.7329
  177bbb     O1 5161   5.734   4.917   3.685 -0.1428  0.3527  0.3077
  178bbb     N1 5162   4.905   7.650   4.818 -0.1805  0.0680 -0.1084
  178bbb     C1 5163   5.041   7.644   4.771  0.3248  0.0200 -0.8364
  178bbb     H1 5164   5.115   7.615   4.847 -1.1100  0.6062  0.8649
  178bbb     H2 5165   5.084   7.736   4.731  0.1719 -0.0758 -1.2217
  178bbb     C2 5166   4.900   7.729   4.945 -0.1258  0.1308  0.0580
  178bbb     H3 5167   4.952   7.676   5.026 -0.2093  1.7045  1.1918
  178bbb     H4 5168   4.794   7.734   4.973 -0.4199 -0.8170 -0.8072
  178bbb     C3 5169   4.830   7.520   4.828 -0.4306 -0.2472 -0.8476
  178bbb     H5 5170   4.815   7.477   4.729 -2.4161 -1.4702 -0.0690
  178bbb     H6 5171   4.728   7.538   4.865 -0.5682 -0.8030 -0.9510
  178bbb     C4 5172   4.894   7.422   4.926  0.7178  0.2292  0.4383
  178bbb     H7 5173   4.904   7.462   5.028  0.5793 -0.5696  0.7716
  178bbb     H8 5174   4.999   7.404   4.899  0.8076  0.8305  0.3683
  178bbb     C5 5175   5.072   7.546   4.647  0.6994  0.2099  0.0774
  178bbb     H9 5176   5.022   7.450   4.664 -1.0107  1.0030 -0.3252
  178bbb    H10 5177   5.178   7.525   4.629  0.3744 -0.7842 -0.7671
  178bbb     C6 5178   4.948   7.876   4.930 -0.0873  0.1526 -0.3829
  178bbb    H11 5179   5.055   7.877   4.909  0.1699  0.1756  0.8403
  178bbb    H12 5180   4.934   7.929   5.025 -0.1106  1.3470 -1.0424
  178bbb     C7 5181   4.813   7.291   4.940  0.2435 -0.7080  0.2295
  178bbb    H13 5182   4.804   7.247   4.840 -1.3296  1.8462 -0.8438
  178bbb    H14 5183   4.716   7.320   4.983 -0.4388 -2.0474 -0.3509
  178bbb     C8 5184   4.872   7.953   4.822 -0.4471  0.0616  0.1158
  178bbb    H15 5185   4.779   7.894   4.822 -0.5975  0.2508 -1.6303
  178bbb    H16 5186   4.924   7.932   4.728  2.2678 -0.1357  1.5683
  178bbb     C9 5187   5.013   7.603   4.507  0.6370 -0.2639  0.4207
  178bbb    H17 5188   4.905   7.610   4.525  0.3183 -3.2804  0.0454
  178bbb    H18 5189   5.030   7.532   4.426 -1.3794  1.1171 -1.3249
  178bbb     O1 5190   4.888   7.212   5.036  0.3023 -0.3844  0.6291
  179bbb     N1 5191   5.069   6.334   5.915  0.4468  0.2510 -0.5646
  179bbb     C1 5192   5.170   6.237   5.866 -0.0768 -0.1289 -0.2521
  179bbb     H1 5193   5.233   6.212   5.952 -1.0090 -1.6215  0.0099
  179bbb     H2 5194   5.240   6.298   5.806 -0.3840  2.4559  1.7965
  179bbb     C2 5195   4.959   6.260   5.988  0.1707 -0.2581  0.2278
  179bbb     H3 5196   4.889   6.213   5.917  0.0752  1.9338 -1.2136
  179bbb     H4 5197   4.901   6.335   6.043  1.1826 -0.1374  1.1656
  179bbb     C3 5198   5.022   6.423   5.813  0.9773  0.3450  0.1264
  179bbb     H5 5199   4.943   6.482   5.860 -0.5541 -2.2469  1.0493
  179bbb     H6 5200   4.965   6.372   5.734 -0.7990  0.3635  1.3176
  179bbb     C4 5201   5.116   6.533   5.751  0.3813 -0.3806 -0.1915
  179bbb     H7 5202   5.201   6.484   5.701  0.2809  0.9952 -1.8042
  179bbb     H8 5203   5.157   6.589   5.836  0.0349  1.2139 -1.0401
  179bbb     C5 5204   5.114   6.116   5.790  0.5697 -0.5783 -0.3645
  179bbb     H9 5205   5.043   6.156   5.716 -2.1471  0.1731  2.4588
  179bbb    H10 5206   5.046   6.050   5.846 -0.5211  0.1157 -0.8367
  179bbb     C6 5207   5.002   6.175   6.107 -0.5761 -0.0495 -0.6325
  179bbb    H11 5208   5.050   6.084   6.070 -0.3417 -0.3723  0.4421
  179bbb    H12 5209   4.916   6.134   6.162 -0.8707  0.1908 -0.9081
  179bbb     C7 5210   5.054   6.638   5.653  0.5159 -0.1657 -0.6340
  179bbb    H13 5211   4.966   6.683   5.702  0.2771  1.9790 -2.8303
  179bbb    H14 5212   5.011   6.586   5.566  0.5511 -0.3928 -0.5176
  179bbb     C8 5213   5.106   6.255   6.207  0.0405  0.7007  0.7070
  179bbb    H15 5214   5.045   6.328   6.262 -0.7787 -0.0465  0.8193
  179bbb    H16 5215   5.181   6.314   6.153 -0.6395  0.7380 -0.2269
  179bbb     C9 5216   5.238   6.040   5.732 -0.0163  0.0296  0.7904
  179bbb    H17 5217   5.325   6.107   5.735  0.7528 -0.9455  0.6305
  179bbb    H18 5218   5.219   6.007   5.629  0.8451 -2.3162  1.3204
  179bbb     O1 5219   5.155   6.737   5.619  0.2793 -0.2933 -0.7238
  180bbb     N1 5220   4.291   6.312   3.292 -0.2512  0.7567 -0.1594
  180bbb     C1 5221   4.206   6.359   3.180  0.0092 -0.4059  0.4764
  180bbb     H1 5222   4.126   6.285   3.163  0.2381 -0.5529  0.0320
  180bbb     H2 5223   4.265   6.340   3.090 -1.2165 -1.6252 -0.1088
  180bbb     C2 5224   4.300   6.165   3.327  0.2739  0.0816  0.7733
  180bbb     H3 5225   4.377   6.154   3.404  0.6545 -1.0879  0.2448
  180bbb     H4 5226   4.332   6.108   3.239  1.1119 -0.2910  1.3056
  180bbb     C3 5227   4.419   6.381   3.312 -0.8346  0.4066 -0.2430
  180bbb     H5 5228   4.419   6.469   3.247 -0.9221  1.3572  1.0029
  180bbb     H6 5229   4.502   6.315   3.288 -0.3675  0.0652  2.0882
  180bbb     C4 5230   4.441   6.428   3.459  0.0703 -0.1621 -0.9503
  180bbb     H7 5231   4.430   6.342   3.526  0.2109 -1.1592 -2.1594
  180bbb     H8 5232   4.358   6.498   3.471 -0.3830 -0.6778 -1.0665
  180bbb     C5 5233   4.154   6.499   3.188  0.2588  0.3498 -0.2219
  180bbb     H9 5234   4.213   6.568   3.128  0.3350  2.4691  2.1153
  180bbb    H10 5235   4.172   6.539   3.289  0.0328  1.8382 -0.7553
  180bbb     C6 5236   4.165   6.105   3.377 -0.5192  0.1180 -0.0815
  180bbb    H11 5237   4.083   6.136   3.310 -0.2931 -0.4749 -0.6428
  180bbb    H12 5238   4.138   6.143   3.477  0.5444  2.3547 -0.5745
  180bbb     C7 5239   4.584   6.494   3.483 -0.1807 -0.6294 -0.1666
  180bbb    H13 5240   4.571   6.545   3.387 -0.8654  0.1616  0.3347
  180bbb    H14 5241   4.639   6.408   3.441  1.5078  0.8081 -1.0607
  180bbb     C8 5242   4.171   5.951   3.386 -0.0598 -0.1699  0.3596
  180bbb    H15 5243   4.086   5.916   3.445 -0.7527 -0.1070 -0.5759
  180bbb    H16 5244   4.265   5.926   3.437  0.3110 -2.5260 -1.3436
  180bbb     C9 5245   4.012   6.520   3.146  0.2929 -0.3136  0.0595
  180bbb    H17 5246   3.942   6.473   3.217 -1.5689  0.6461 -1.0676
  180bbb    H18 5247   3.994   6.473   3.048 -2.0041  1.2140 -0.3230
  180bbb     O1 5248   4.688   6.612   3.656  0.0190  0.3985 -0.1512
  181bbb     N1 5249   4.179   6.468   4.560  0.8420  0.4140 -0.4231
  181bbb     C1 5250   4.028   6.480   4.544  0.0835 -0.3591  0.0244
  181bbb     H1 5251   4.010   6.542   4.455  0.1627  1.0494  0.9390
  181bbb     H2 5252   3.985   6.543   4.624  0.2279 -0.3728  0.1120
  181bbb     C2 5253   4.247   6.384   4.451 -0.0761  0.6094  0.0364
  181bbb     H3 5254   4.260   6.450   4.364 -1.9228  1.3348  0.2576
  181bbb     H4 5255   4.188   6.297   4.420  0.7187  0.2911 -0.6317
  181bbb     C3 5256   4.255   6.582   4.614  1.0071 -0.4786 -0.3365
  181bbb     H5 5257   4.364   6.571   4.612  1.1880  0.1068  2.4580
  181bbb     H6 5258   4.230   6.581   4.721  2.1136  0.2255 -0.0649
  181bbb     C4 5259   4.225   6.719   4.548  0.1138  0.5315 -0.2861
  181bbb     H7 5260   4.289   6.792   4.598 -1.2176  0.4024  1.7257
  181bbb     H8 5261   4.119   6.728   4.574  0.0326  0.8536 -0.7229
  181bbb     C5 5262   3.931   6.362   4.551 -0.1162 -0.5758 -0.2616
  181bbb     H9 5263   3.952   6.311   4.646  0.6571 -1.4055 -0.8657
  181bbb    H10 5264   3.953   6.295   4.467  0.2078 -0.0667 -0.5958
  181bbb     C6 5265   4.390   6.337   4.490  0.3235 -0.5422  0.2000
  181bbb    H11 5266   4.379   6.295   4.590 -0.0381 -0.8841  0.0207
  181bbb    H12 5267   4.461   6.420   4.502 -0.9676  0.7755 -0.8888
  181bbb     C7 5268   4.257   6.733   4.405  0.2336  0.2922  0.0694
  181bbb    H13 5269   4.252   6.835   4.365  2.3050 -0.5986 -2.8319
  181bbb    H14 5270   4.193   6.669   4.344  1.6075 -2.0953  1.0108
  181bbb     C8 5271   4.437   6.237   4.375 -0.0600 -0.2047  0.0211
  181bbb    H15 5272   4.545   6.219   4.379 -0.0170 -0.2051 -1.0648
  181bbb    H16 5273   4.430   6.283   4.276 -1.5330 -1.3247 -0.4288
  181bbb     C9 5274   3.781   6.394   4.564  0.4340  0.0442  0.1576
  181bbb    H17 5275   3.739   6.292   4.565  1.4824 -0.5103 -2.5754
  181bbb    H18 5276   3.748   6.447   4.473 -1.8033 -0.6043  0.5247
  181bbb     O1 5277   4.391   6.694   4.389  0.2866 -0.3739 -0.3736
  182bbb     N1 5278   8.695   6.352   2.095 -0.0204  0.1149  0.1305
  182bbb     C1 5279   8.743   6.233   2.015 -0.1313  0.7858  0.4004
  182bbb     H1 5280   8.851   6.215   2.021 -0.0529 -1.5743 -3.7733
  182bbb     H2 5281   8.731   6.251   1.907 -0.8137  1.4617  0.5869
  182bbb     C2 5282   8.817   6.441   2.136 -0.3233  0.4064 -0.0565
  182bbb     H3 5283   8.895   6.379   2.181  0.4403  1.8165  0.6109
  182bbb     H4 5284   8.793   6.523   2.205 -0.4181  1.4982 -1.3553
  182bbb     C3 5285   8.574   6.414   2.040  0.4546 -0.1028 -1.2630
  182bbb     H5 5286   8.498   6.336   2.027 -0.9624  1.1476 -0.7679
  182bbb     H6 5287   8.592   6.460   1.942 -0.6260 -0.2409 -1.5322
  182bbb     C4 5288   8.522   6.517   2.138 -0.4353 -0.3238  0.5237
  182bbb     H7 5289   8.588   6.605   2.138 -1.4474  0.4647 -0.5827
  182bbb     H8 5290   8.512   6.486   2.242 -1.4824  1.2789  0.9382
  182bbb     C5 5291   8.682   6.103   2.069 -0.4427  0.0800 -0.1222
  182bbb     H9 5292   8.575   6.126   2.077 -0.2691  0.2272  3.3253
  182bbb    H10 5293   8.723   6.074   2.166 -1.1612 -1.9490 -0.3911
  182bbb     C6 5294   8.883   6.522   2.020  0.6662 -0.7749 -0.3856
  182bbb    H11 5295   8.932   6.614   2.053  0.3439 -0.2822 -1.2419
  182bbb    H12 5296   8.794   6.557   1.967  1.2347  1.1397 -0.1527
  182bbb     C7 5297   8.375   6.563   2.095  0.0541 -0.0093  0.0707
  182bbb    H13 5298   8.317   6.470   2.090  1.3368 -0.8013 -0.7352
  182bbb    H14 5299   8.383   6.606   1.994 -0.1409 -0.8593 -0.3182
  182bbb     C8 5300   8.978   6.442   1.926  0.1134  0.1775 -0.6986
  182bbb    H15 5301   9.027   6.507   1.853  0.4699  1.6937  0.8191
  182bbb    H16 5302   8.919   6.365   1.874 -0.6098  0.6556 -0.6026
  182bbb     C9 5303   8.719   5.992   1.966  0.6905  0.0607  0.4047
  182bbb    H17 5304   8.825   5.965   1.966  0.2680 -2.0272 -2.0687
  182bbb    H18 5305   8.695   6.019   1.862  0.7628  3.3209  1.1360
  182bbb     O1 5306   8.322   6.652   2.198 -0.5680 -0.0194 -0.2582
  183bbb     N1 5307   7.245   6.426   2.624  0.5483 -0.6547  0.0906
  183bbb     C1 5308   7.224   6.351   2.500 -0.1038  0.3725  0.8695
  183bbb     H1 5309   7.135   6.291   2.522 -2.4991  2.8916 -1.2437
  183bbb     H2 5310   7.307   6.281   2.486  1.5219  2.0166  1.8274
  183bbb     C2 5311   7.135   6.520   2.674 -0.9335 -0.3792 -0.5920
  183bbb     H3 5312   7.135   6.608   2.607  1.5790  1.6903  1.8713
  183bbb     H4 5313   7.172   6.560   2.769 -1.7919 -1.9972  0.4448
  183bbb     C3 5314   7.375   6.506   2.628 -0.1371 -0.6494 -1.0413
  183bbb     H5 5315   7.385   6.535   2.733 -0.4262 -0.7007 -1.0003
  183bbb     H6 5316   7.369   6.601   2.573 -0.7564  1.0389  1.7619
  183bbb     C4 5317   7.501   6.428   2.596 -0.6922  0.6155 -0.3462
  183bbb     H7 5318   7.508   6.373   2.501  1.3922  1.6125 -0.8143
  183bbb     H8 5319   7.518   6.356   2.677  2.0389  2.6025  0.9766
  183bbb     C5 5320   7.199   6.448   2.384  0.4236  0.5285 -0.5843
  183bbb     H9 5321   7.292   6.495   2.351  1.0499 -1.3995 -1.7095
  183bbb    H10 5322   7.115   6.516   2.405 -0.4876 -0.3343 -1.2848
  183bbb     C6 5323   7.003   6.448   2.695  0.6211  0.2807 -0.8165
  183bbb    H11 5324   7.004   6.363   2.764 -0.8943 -0.4237 -1.6200
  183bbb    H12 5325   6.967   6.398   2.604 -0.1554 -1.2158  0.2779
  183bbb     C7 5326   7.625   6.522   2.596 -0.3266 -0.4484 -0.4519
  183bbb    H13 5327   7.713   6.458   2.579  0.3432  0.4552 -0.4932
  183bbb    H14 5328   7.629   6.563   2.698 -3.1862 -2.9459  0.8123
  183bbb     C8 5329   6.894   6.543   2.752 -0.1071 -0.2887  0.0712
  183bbb    H15 5330   6.895   6.635   2.694  2.1833  0.0257  0.5336
  183bbb    H16 5331   6.925   6.565   2.855  0.8442 -0.3308 -0.1986
  183bbb     C9 5332   7.151   6.368   2.260  0.2845  0.1411  0.1338
  183bbb    H17 5333   7.078   6.297   2.302 -1.8416  2.5412  0.7405
  183bbb    H18 5334   7.230   6.310   2.211 -0.0866 -0.5847  0.3776
  183bbb     O1 5335   7.611   6.613   2.486  0.2949  0.4302 -0.7862
  184bbb     N1 5336   7.855   6.767   4.364  0.1305  1.0009  0.6913
  184bbb     C1 5337   7.831   6.646   4.443  0.2046 -0.5591  0.3138
  184bbb     H1 5338   7.801   6.564   4.377  2.0020 -1.4174  0.5020
  184bbb     H2 5339   7.744   6.678   4.501  0.0448  0.3192 -0.3706
  184bbb     C2 5340   7.935   6.869   4.441 -0.3370  0.4918 -0.2590
  184bbb     H3 5341   7.957   6.953   4.375 -0.3102 -0.0836 -0.9972
  184bbb     H4 5342   8.031   6.828   4.475  0.7435  0.6197 -2.8902
  184bbb     C3 5343   7.734   6.828   4.293  0.2017 -0.1332  0.4977
  184bbb     H5 5344   7.755   6.921   4.238  0.4188 -0.7070 -0.4254
  184bbb     H6 5345   7.665   6.866   4.369 -0.9899  1.0608 -1.1023
  184bbb     C4 5346   7.647   6.734   4.210 -0.4888 -0.1408 -0.6196
  184bbb     H7 5347   7.566   6.797   4.172 -2.2427 -1.9737 -0.1127
  184bbb     H8 5348   7.610   6.650   4.270  0.3810 -0.7689 -0.9538
  184bbb     C5 5349   7.937   6.584   4.541  0.1486  0.6422 -0.8225
  184bbb     H9 5350   7.883   6.502   4.589  0.0773  0.7402 -0.7351
  184bbb    H10 5351   7.972   6.658   4.614  3.0042 -0.7182 -0.6415
  184bbb     C6 5352   7.861   6.933   4.565  0.5038 -0.0775 -0.5170
  184bbb    H11 5353   7.827   6.862   4.641 -0.1207  0.6409 -0.1106
  184bbb    H12 5354   7.777   6.985   4.519  0.7889  1.2366  0.3782
  184bbb     C7 5355   7.719   6.686   4.081  0.1319 -0.2725 -0.4243
  184bbb    H13 5356   7.804   6.630   4.122 -0.5039 -0.5247  0.5831
  184bbb    H14 5357   7.748   6.764   4.010  3.0117 -0.0413  0.8331
  184bbb     C8 5358   7.947   7.040   4.637 -0.0744 -0.5679 -0.1760
  184bbb    H15 5359   7.979   7.113   4.562  0.5390 -1.3096 -0.6480
  184bbb    H16 5360   8.039   6.996   4.677  0.0756  0.6397  0.8840
  184bbb     C9 5361   8.069   6.532   4.468  0.6285 -0.1191 -0.4957
  184bbb    H17 5362   8.130   6.621   4.445 -2.5747  2.9478  1.8308
  184bbb    H18 5363   8.035   6.488   4.374 -2.5708  0.5335  0.2353
  184bbb     O1 5364   7.620   6.599   4.021  0.1339  0.1279 -0.2136
  185bbb     N1 5365   7.484   5.685   3.440  0.2103 -0.0226 -0.8256
  185bbb     C1 5366   7.458   5.572   3.351  0.5303 -0.6089  0.1133
  185bbb     H1 5367   7.425   5.605   3.252  0.0648 -0.8650  0.1798
  185bbb     H2 5368   7.379   5.508   3.393  0.5581 -0.1749  0.8420
  185bbb     C2 5369   7.350   5.744   3.481  0.2591  0.2961  0.6886
  185bbb     H3 5370   7.288   5.671   3.534 -2.1511  1.4953 -0.3298
  185bbb     H4 5371   7.290   5.766   3.392 -0.5425  0.7209  1.3196
  185bbb     C3 5372   7.578   5.789   3.380  0.5823  0.8035  0.2485
  185bbb     H5 5373   7.678   5.751   3.354  0.0692  0.7577 -1.8816
  185bbb     H6 5374   7.602   5.867   3.454  0.5897  1.2995 -0.2665
  185bbb     C4 5375   7.537   5.871   3.252 -0.1350  0.1673 -0.1707
  185bbb     H7 5376   7.436   5.914   3.261  0.3568  0.9570  2.5751
  185bbb     H8 5377   7.541   5.809   3.162  0.4557 -1.8178  1.1500
  185bbb     C5 5378   7.576   5.468   3.332  0.1010 -0.4854 -0.0618
  185bbb     H9 5379   7.634   5.456   3.424 -0.2840 -0.6128  0.1613
  185bbb    H10 5380   7.649   5.516   3.265 -1.3838  1.1086 -0.6022
  185bbb     C6 5381   7.360   5.873   3.582  0.6831 -0.1267  0.1441
  185bbb    H11 5382   7.258   5.896   3.617 -0.2725 -2.9892 -0.5208
  185bbb    H12 5383   7.396   5.965   3.534 -0.8587  1.0521  1.1433
  185bbb     C7 5384   7.641   5.980   3.225  0.5079  0.4728 -0.3558
  185bbb    H13 5385   7.608   6.013   3.126 -0.6856  0.3909 -0.0079
  185bbb    H14 5386   7.741   5.936   3.226  0.5333  0.5303  0.4944
  185bbb     C8 5387   7.458   5.854   3.703 -0.1414  0.8206  0.2728
  185bbb    H15 5388   7.478   5.954   3.742  1.7501  0.2205  0.9572
  185bbb    H16 5389   7.559   5.818   3.680 -0.7897 -0.1325 -1.2668
  185bbb     C9 5390   7.533   5.330   3.274  0.5729  0.4193  0.1809
  185bbb    H17 5391   7.502   5.339   3.169 -0.7752 -2.0446  0.3005
  185bbb    H18 5392   7.450   5.283   3.328  0.0687  0.8298 -0.2266
  185bbb     O1 5393   7.629   6.092   3.326  0.1207  0.4224 -0.2196
  186bbb     N1 5394   6.146   7.856   3.746 -0.5393 -0.0288 -0.4378
  186bbb     C1 5395   6.081   7.950   3.832  0.1484  0.5653 -0.6408
  186bbb     H1 5396   6.131   8.043   3.804 -0.5222  0.6650 -1.5916
  186bbb     H2 5397   6.110   7.937   3.937  1.5539 -0.1245 -1.0886
  186bbb     C2 5398   6.099   7.718   3.770  0.0165 -0.0228 -0.1700
  186bbb     H3 5399   6.139   7.653   3.692 -0.5465 -2.0853  1.1748
  186bbb     H4 5400   5.990   7.718   3.756  0.2600  1.1712 -2.4375
  186bbb     C3 5401   6.156   7.889   3.601  0.0217 -0.2545 -0.0144
  186bbb     H5 5402   6.054   7.889   3.561  0.3808 -0.1264 -0.9600
  186bbb     H6 5403   6.200   7.802   3.550  0.0531  0.5752 -1.4508
  186bbb     C4 5404   6.224   8.015   3.554 -0.1306 -0.1874  0.2865
  186bbb     H7 5405   6.333   8.011   3.542 -0.3010  0.7568 -2.0468
  186bbb     H8 5406   6.213   8.095   3.628  1.5789 -1.7832  2.3816
  186bbb     C5 5407   5.927   7.970   3.817 -0.4496 -0.0563  0.1624
  186bbb     H9 5408   5.878   7.888   3.872  0.9551 -1.2774 -0.3347
  186bbb    H10 5409   5.902   7.960   3.711 -0.4788  1.1812  0.0395
  186bbb     C6 5410   6.129   7.649   3.902  0.3702 -0.1874 -0.3742
  186bbb    H11 5411   6.089   7.547   3.909 -0.5344  0.1624 -0.2635
  186bbb    H12 5412   6.075   7.709   3.977  1.2208  0.2151 -0.0725
  186bbb     C7 5413   6.169   8.069   3.424  0.4309  0.5474 -0.4969
  186bbb    H13 5414   6.083   8.125   3.461  1.3535  1.0568  0.9740
  186bbb    H14 5415   6.138   7.991   3.354 -0.2494 -0.6329  1.0520
  186bbb     C8 5416   6.273   7.636   3.939 -0.3419  0.4225  0.1335
  186bbb    H15 5417   6.317   7.737   3.947 -1.5370  0.8918  0.9889
  186bbb    H16 5418   6.329   7.587   3.857  0.1536  3.4757 -1.5051
  186bbb     C9 5419   5.877   8.106   3.856  0.2119 -0.3045 -0.6372
  186bbb    H17 5420   5.875   8.125   3.964 -0.8503 -0.2514 -0.6596
  186bbb    H18 5421   5.772   8.115   3.824  0.4605  0.3067 -1.3274
  186bbb     O1 5422   6.265   8.161   3.370  0.1302  0.3801 -0.0631
  187bbb     N1 5423   6.093   8.739   2.550 -0.7543  0.4769 -0.1899
  187bbb     C1 5424   5.972   8.810   2.489  0.3414  0.6072  0.3801
  187bbb     H1 5425   5.932   8.736   2.419  1.7692 -0.6302  0.8139
  187bbb     H2 5426   6.002   8.898   2.430 -0.7154  0.8874  0.2496
  187bbb     C2 5427   6.200   8.710   2.444  0.0367 -0.5504 -0.2966
  187bbb     H3 5428   6.153   8.640   2.374 -0.5506 -1.2383  0.7650
  187bbb     H4 5429   6.286   8.655   2.485  1.1288  1.5804  0.4218
  187bbb     C3 5430   6.144   8.812   2.665 -0.0469 -0.3904  0.4529
  187bbb     H5 5431   6.063   8.817   2.740 -2.5109  0.2379 -2.0634
  187bbb     H6 5432   6.159   8.914   2.629  0.9493 -0.7980 -0.3387
  187bbb     C4 5433   6.268   8.745   2.737  0.8102 -1.0065  0.3154
  187bbb     H7 5434   6.351   8.760   2.667 -1.5459  1.3467 -2.1880
  187bbb     H8 5435   6.244   8.638   2.749 -2.8910 -0.5168 -1.4924
  187bbb     C5 5436   5.850   8.837   2.583 -0.5294  0.2195  0.0030
  187bbb     H9 5437   5.878   8.902   2.667 -0.4589  0.0611  0.1028
  187bbb    H10 5438   5.826   8.742   2.632  2.1965  0.2538  1.5769
  187bbb     C6 5439   6.258   8.839   2.377 -0.0854 -0.1038  0.4401
  187bbb    H11 5440   6.315   8.893   2.453  0.7559  0.4693 -0.5763
  187bbb    H12 5441   6.186   8.913   2.339  1.3061  0.5089 -1.1121
  187bbb     C7 5442   6.290   8.831   2.865  0.2225 -0.5732 -0.2445
  187bbb    H13 5443   6.202   8.889   2.893  0.0162 -0.6994 -0.6287
  187bbb    H14 5444   6.372   8.901   2.847 -0.9116  1.2904  1.4434
  187bbb     C8 5445   6.356   8.824   2.254  1.1628  0.6041 -0.6261
  187bbb    H15 5446   6.375   8.922   2.207 -0.1808  1.3315  0.3007
  187bbb    H16 5447   6.313   8.758   2.177  1.7755 -0.1921 -0.3007
  187bbb     C9 5448   5.727   8.900   2.515 -0.2454  0.2174  0.4126
  187bbb    H17 5449   5.669   8.821   2.465  0.7986 -0.6415  0.5311
  187bbb    H18 5450   5.658   8.939   2.591  0.8050 -2.0860  2.6408
  187bbb     O1 5451   6.311   8.740   2.970 -0.1635  0.7470 -0.0728
  188bbb     N1 5452   6.475   7.402   5.117 -0.3715 -0.1649 -0.4184
  188bbb     C1 5453   6.348   7.472   5.094  0.2229 -0.7211  0.8700
  188bbb     H1 5454   6.288   7.401   5.035  0.8645 -0.3168 -0.3015
  188bbb     H2 5455   6.365   7.559   5.029  0.4730 -1.6664 -0.3613
  188bbb     C2 5456   6.477   7.278   5.207 -0.2396 -0.0763  0.0017
  188bbb     H3 5457   6.451   7.306   5.310 -1.7860  0.6824 -0.5755
  188bbb     H4 5458   6.579   7.241   5.227 -0.5244  0.7253  3.7423
  188bbb     C3 5459   6.548   7.389   4.990  0.0050 -0.1777 -0.8422
  188bbb     H5 5460   6.525   7.472   4.922 -0.3487 -0.3797 -0.9729
  188bbb     H6 5461   6.536   7.298   4.930  3.0980  0.0631 -1.9830
  188bbb     C4 5462   6.699   7.376   5.023  0.0342  0.5060  0.5789
  188bbb     H7 5463   6.709   7.271   5.053 -0.5336 -0.1394 -1.3455
  188bbb     H8 5464   6.735   7.437   5.107  0.3280 -0.0953  0.8980
  188bbb     C5 5465   6.279   7.527   5.220  0.2268  0.3496 -0.1213
  188bbb     H9 5466   6.223   7.614   5.184  0.0800  0.0102 -0.7268
  188bbb    H10 5467   6.355   7.568   5.289 -0.8820 -0.4642  1.6474
  188bbb     C6 5468   6.399   7.164   5.162  0.2151  1.2710  0.2712
  188bbb    H11 5469   6.443   7.114   5.075 -0.1636  1.4998 -0.0544
  188bbb    H12 5470   6.311   7.210   5.115 -0.2164  2.2258  1.9243
  188bbb     C7 5471   6.793   7.394   4.898  1.0547  0.5262 -0.3478
  188bbb    H13 5472   6.774   7.329   4.812 -0.1941  0.2598  0.1122
  188bbb    H14 5473   6.896   7.374   4.931  0.1816  0.5579  2.6932
  188bbb     C8 5474   6.359   7.060   5.270  0.4304 -0.3375  0.0726
  188bbb    H15 5475   6.453   7.031   5.320  1.3785 -0.0555 -1.4688
  188bbb    H16 5476   6.316   6.974   5.218  0.3313 -1.3207  1.7235
  188bbb     C9 5477   6.191   7.427   5.295 -0.0770  0.1490  0.3731
  188bbb    H17 5478   6.247   7.385   5.379 -0.7062 -0.1373  0.6520
  188bbb    H18 5479   6.166   7.351   5.220  0.3634 -0.1722  0.5488
  188bbb     O1 5480   6.795   7.533   4.846 -0.1812  0.5727  0.0795
  189bbb     N1 5481   6.620   8.283   4.629  0.6150 -0.4153  0.0505
  189bbb     C1 5482   6.731   8.285   4.525 -0.4874  0.5454  0.4097
  189bbb     H1 5483   6.751   8.178   4.514 -1.2002  0.4299  0.1891
  189bbb     H2 5484   6.820   8.328   4.573  0.6489 -0.0016 -1.1310
  189bbb     C2 5485   6.559   8.415   4.635 -0.0897 -0.3081  0.5999
  189bbb     H3 5486   6.538   8.441   4.530  2.2875 -0.9842 -0.1203
  189bbb     H4 5487   6.629   8.490   4.673  0.4985  1.3333 -3.2764
  189bbb     C3 5488   6.662   8.224   4.765  0.7748 -0.0699 -0.2224
  189bbb     H5 5489   6.708   8.125   4.755 -1.1266 -1.3202  2.1719
  189bbb     H6 5490   6.571   8.207   4.824  0.5001  0.2387 -0.5531
  189bbb     C4 5491   6.754   8.314   4.849 -0.5889  0.0539  0.0397
  189bbb     H7 5492   6.687   8.398   4.870 -0.8869 -0.2811  0.4365
  189bbb     H8 5493   6.840   8.345   4.789 -0.6603 -1.4165 -0.8813
  189bbb     C5 5494   6.708   8.338   4.383  0.0708  0.0987 -0.1866
  189bbb     H9 5495   6.801   8.326   4.326  2.0946  4.3472  1.7094
  189bbb    H10 5496   6.695   8.446   4.397 -0.6187  0.1393 -1.0646
  189bbb     C6 5497   6.424   8.403   4.716  0.2611  1.1102  0.2722
  189bbb    H11 5498   6.367   8.497   4.713 -1.8224 -0.0990  0.8506
  189bbb    H12 5499   6.443   8.393   4.823 -3.0675 -0.2173  0.8589
  189bbb     C7 5500   6.804   8.246   4.979 -0.2246 -0.5745 -0.1494
  189bbb    H13 5501   6.713   8.227   5.037  0.6697 -1.7385  0.9325
  189bbb    H14 5502   6.868   8.318   5.032  0.4809 -1.4936  0.2665
  189bbb     C8 5503   6.340   8.277   4.678 -0.7026 -0.8502  0.1317
  189bbb    H15 5504   6.391   8.184   4.703  0.2239 -0.3118  0.3123
  189bbb    H16 5505   6.335   8.277   4.568 -0.9605 -1.5886  0.1408
  189bbb     C9 5506   6.585   8.268   4.326  0.4973 -0.1607  0.2594
  189bbb    H17 5507   6.495   8.302   4.379 -1.2021  0.2219 -2.6316
  189bbb    H18 5508   6.592   8.159   4.336 -1.4101 -0.7015 -2.9118
  189bbb     O1 5509   6.874   8.128   4.940  0.5034  0.0127  0.0092
  190bbb     N1 5510   4.516   6.049   6.105 -0.2234 -0.5963  0.3371
  190bbb     C1 5511   4.608   6.046   6.215 -0.2883  0.8584  0.2035
  190bbb     H1 5512   4.608   6.148   6.257 -1.5855  1.0076 -0.1356
  190bbb     H2 5513   4.709   6.035   6.173 -0.1659 -1.6031  1.0022
  190bbb     C2 5514   4.384   6.087   6.150  0.8764 -0.3141  0.6993
  190bbb     H3 5515   4.389   6.169   6.224 -1.2425  0.2093  0.3276
  190bbb     H4 5516   4.329   6.008   6.202  1.2422 -1.9808 -1.3261
  190bbb     C3 5517   4.501   5.925   6.021  0.0674  0.6218  0.0099
  190bbb     H5 5518   4.423   5.938   5.946  0.3170  1.2192 -0.1508
  190bbb     H6 5519   4.466   5.839   6.079  0.1853  0.8701  0.4540
  190bbb     C4 5520   4.629   5.895   5.928  1.2276  0.5280  0.0507
  190bbb     H7 5521   4.623   5.800   5.873 -2.7360 -0.0301  1.1524
  190bbb     H8 5522   4.718   5.883   5.991  3.2197  1.6987 -2.3677
  190bbb     C5 5523   4.586   5.951   6.332  0.1770 -0.7118  0.2718
  190bbb     H9 5524   4.565   5.849   6.298 -0.0006 -1.4935  2.5472
  190bbb    H10 5525   4.496   5.989   6.384 -0.4039  0.3870 -1.4517
  190bbb     C6 5526   4.297   6.148   6.031 -0.1888  0.2856 -0.1093
  190bbb    H11 5527   4.258   6.070   5.964  1.7880  0.4087 -1.4781
  190bbb    H12 5528   4.358   6.215   5.970 -0.1491 -0.3823 -0.8139
  190bbb     C7 5529   4.650   6.005   5.826 -0.0878 -1.6444  0.5658
  190bbb    H13 5530   4.677   6.100   5.874 -0.4068 -1.7197  0.8960
  190bbb    H14 5531   4.555   6.021   5.773  0.7429  1.4885 -0.2047
  190bbb     C8 5532   4.177   6.225   6.080  0.8518  0.6987 -0.6051
  190bbb    H15 5533   4.112   6.268   6.002 -1.8897 -0.0059  1.1597
  190bbb    H16 5534   4.203   6.311   6.144 -2.6484  1.1442  0.4292
  190bbb     C9 5535   4.711   5.960   6.431  0.5594  0.5901 -0.2014
  190bbb    H17 5536   4.689   5.916   6.529 -2.2945 -0.3838 -1.1847
  190bbb    H18 5537   4.726   6.066   6.459  1.4655  0.2925  0.4793
  190bbb     O1 5538   4.755   5.970   5.739  0.2451 -0.1036 -0.1146
  191bbb     N1 5539   3.967   6.380   5.087 -0.4079  0.3530 -0.0451
  191bbb     C1 5540   3.819   6.371   5.099 -0.1867 -0.4580  0.3419
  191bbb     H1 5541   3.779   6.470   5.073  0.0352 -0.1092  1.2881
  191bbb     H2 5542   3.789   6.352   5.203 -0.3409  1.4020  0.6685
  191bbb     C2 5543   4.002   6.447   4.957 -0.1942 -0.1223  0.2263
  191bbb     H3 5544   3.972   6.389   4.869 -0.6113  0.7440 -0.2183
  191bbb     H4 5545   4.111   6.448   4.954 -0.2076  1.2903 -1.6390
  191bbb     C3 5546   4.041   6.255   5.112  0.4145  0.5976 -0.1365
  191bbb     H5 5547   4.059   6.197   5.021 -0.2069 -0.3360  0.3182
  191bbb     H6 5548   3.982   6.187   5.175 -0.6531  1.3338 -0.3163
  191bbb     C4 5549   4.182   6.278   5.180  0.3864 -0.4782 -0.0141
  191bbb     H7 5550   4.160   6.304   5.284 -0.3995 -2.4618  0.3546
  191bbb     H8 5551   4.231   6.364   5.133  2.6252 -0.5627  1.9796
  191bbb     C5 5552   3.745   6.273   4.998  0.1791  0.3663  0.2765
  191bbb     H9 5553   3.775   6.172   5.027  0.7698  0.2508 -0.6850
  191bbb    H10 5554   3.773   6.299   4.895 -0.5492  0.3898  0.0824
  191bbb     C6 5555   3.959   6.592   4.940  0.5055 -0.3679  0.3215
  191bbb    H11 5556   3.850   6.605   4.942  0.7598  2.6456  0.1420
  191bbb    H12 5557   3.990   6.612   4.837  1.9312 -1.1251  0.5852
  191bbb     C7 5558   4.278   6.160   5.166 -0.3132 -0.0257  0.8751
  191bbb    H13 5559   4.287   6.140   5.059 -0.3574  1.1928  0.6298
  191bbb    H14 5560   4.246   6.075   5.226 -1.2583  0.2293  0.7465
  191bbb     C8 5561   4.015   6.698   5.042  0.4946  0.0421 -0.1109
  191bbb    H15 5562   4.118   6.727   5.023 -0.0046  2.3127  0.3365
  191bbb    H16 5563   4.008   6.642   5.136  0.2931 -2.9711 -1.8090
  191bbb     C9 5564   3.584   6.275   5.017  0.0734 -0.0104 -0.2426
  191bbb    H17 5565   3.560   6.188   5.080 -0.4630 -1.0900 -1.8502
  191bbb    H18 5566   3.534   6.257   4.921 -2.0776 -1.2078  1.0180
  191bbb     O1 5567   4.407   6.216   5.212 -0.2971  0.0254  0.2065
  192bbb     N1 5568   5.261   7.517   5.272  0.3345 -0.4333  0.0490
  192bbb     C1 5569   5.225   7.652   5.340 -0.2398 -0.2119  0.7074
  192bbb     H1 5570   5.319   7.703   5.365  0.1535  0.5284 -1.9113
  192bbb     H2 5571   5.162   7.643   5.429 -1.0575  2.3247  0.4669
  192bbb     C2 5572   5.338   7.523   5.147 -0.0449 -0.4161  1.1511
  192bbb     H3 5573   5.272   7.556   5.066  0.5859 -0.8328  0.4528
  192bbb     H4 5574   5.363   7.419   5.118 -2.4783 -0.9706  0.8071
  192bbb     C3 5575   5.144   7.431   5.251  0.7070 -0.3465 -0.4744
  192bbb     H5 5576   5.166   7.338   5.197 -0.4016 -0.9019 -0.0052
  192bbb     H6 5577   5.079   7.486   5.182 -0.7806 -1.7851 -0.2877
  192bbb     C4 5578   5.061   7.393   5.374  0.3030 -0.2761  0.2320
  192bbb     H7 5579   5.123   7.406   5.464 -0.0253  0.0228  0.4192
  192bbb     H8 5580   5.031   7.288   5.364 -0.2259 -0.4787  3.0981
  192bbb     C5 5581   5.146   7.749   5.246 -0.1770  0.3384  0.3543
  192bbb     H9 5582   5.057   7.699   5.204  0.0076  1.0627 -0.9426
  192bbb    H10 5583   5.211   7.781   5.164 -0.1494  2.2049  1.0655
  192bbb     C6 5584   5.473   7.605   5.155 -0.5339  0.0652 -0.2403
  192bbb    H11 5585   5.526   7.543   5.228 -1.9814 -1.1167 -0.1582
  192bbb    H12 5586   5.459   7.708   5.191 -1.3688  0.6656 -2.1504
  192bbb     C7 5587   4.941   7.481   5.401  0.4690  0.5034  0.1147
  192bbb    H13 5588   4.970   7.582   5.432  1.6259  0.2466 -0.0795
  192bbb    H14 5589   4.886   7.442   5.488 -0.3413  2.1963  0.3986
  192bbb     C8 5590   5.560   7.601   5.021 -0.1628  0.3431 -0.1259
  192bbb    H15 5591   5.494   7.632   4.939 -0.2745 -1.1872 -0.6289
  192bbb    H16 5592   5.602   7.502   4.999 -0.0616  0.4123 -0.2501
  192bbb     C9 5593   5.092   7.869   5.329 -0.6859  0.0514  0.1611
  192bbb    H17 5594   5.154   7.883   5.418 -2.2851 -2.3539  1.8113
  192bbb    H18 5595   4.992   7.846   5.370 -0.0370 -1.0063  1.2283
  192bbb     O1 5596   4.845   7.474   5.292  0.0245 -0.5327 -0.6632
  193bbb     N1 5597   4.525   7.661   4.390  0.8259  0.5749 -0.0333
  193bbb     C1 5598   4.430   7.543   4.408  0.5249 -0.0936  0.3781
  193bbb     H1 5599   4.491   7.452   4.406  2.1099  0.8720  1.4416
  193bbb     H2 5600   4.362   7.531   4.324  0.8796 -0.0907  0.0875
  193bbb     C2 5601   4.539   7.692   4.245  1.0998  0.4235 -0.5080
  193bbb     H3 5602   4.598   7.784   4.237 -1.6692  2.2734 -0.7933
  193bbb     H4 5603   4.441   7.716   4.204  1.4481  4.1647  0.4807
  193bbb     C3 5604   4.644   7.674   4.476 -0.8075 -0.7076  0.2398
  193bbb     H5 5605   4.731   7.640   4.419 -0.9274 -1.5236  0.5211
  193bbb     H6 5606   4.626   7.610   4.564  1.3729  1.1434  2.1476
  193bbb     C4 5607   4.651   7.825   4.536  0.2590  0.2583  0.0161
  193bbb     H7 5608   4.656   7.897   4.454  0.0494  2.9056  2.1694
  193bbb     H8 5609   4.739   7.835   4.601 -0.5750  1.0594  1.0671
  193bbb     C5 5610   4.346   7.555   4.537 -0.5051  0.5519  0.0564
  193bbb     H9 5611   4.293   7.651   4.539  1.1181  1.5554  3.4047
  193bbb    H10 5612   4.413   7.571   4.623  0.2651  0.7295 -0.5639
  193bbb     C6 5613   4.611   7.584   4.161 -0.3641  0.3458  0.1768
  193bbb    H11 5614   4.559   7.488   4.171  0.9932 -0.4453 -0.0943
  193bbb    H12 5615   4.707   7.557   4.206 -1.6258 -1.7413  1.8224
  193bbb     C7 5616   4.521   7.872   4.617 -0.3973  0.1938 -0.1251
  193bbb    H13 5617   4.430   7.848   4.561 -2.3006 -1.0528  3.1565
  193bbb    H14 5618   4.534   7.979   4.637 -0.7880  0.5847 -1.8306
  193bbb     C8 5619   4.655   7.625   4.021  0.1567 -0.0975  0.5124
  193bbb    H15 5620   4.739   7.559   3.997 -1.0079 -1.7504  0.8186
  193bbb    H16 5621   4.686   7.730   4.030 -0.9694  0.3047 -0.0709
  193bbb     C9 5622   4.240   7.434   4.551 -0.4483 -0.4594 -0.8144
  193bbb    H17 5623   4.187   7.439   4.647 -1.0630  0.0161 -1.1684
  193bbb    H18 5624   4.300   7.342   4.549 -0.3600 -0.4139 -0.3383
  193bbb     O1 5625   4.521   7.788   4.735  0.3356 -0.0586  0.2928
  194bbb     N1 5626   6.104   4.608   4.563 -0.1223  0.4123 -0.0935
  194bbb     C1 5627   6.124   4.554   4.428 -0.9038  0.5580  0.2356
  194bbb     H1 5628   6.122   4.649   4.373 -1.2725  0.4990  0.1426
  194bbb     H2 5629   6.038   4.497   4.391 -0.7355 -0.3866  1.2561
  194bbb     C2 5630   6.110   4.505   4.673 -0.1694  0.9245  0.1010
  194bbb     H3 5631   6.100   4.561   4.767  2.4517  0.7895  0.5428
  194bbb     H4 5632   6.208   4.455   4.673 -0.6920 -0.1479 -0.4767
  194bbb     C3 5633   5.990   4.704   4.573  0.1401 -0.1346  0.2539
  194bbb     H5 5634   5.907   4.639   4.542 -0.3091 -0.5103  2.1108
  194bbb     H6 5635   6.006   4.782   4.498  1.1843 -1.3610 -0.8287
  194bbb     C4 5636   5.955   4.775   4.699  0.9906  0.2403 -0.6312
  194bbb     H7 5637   5.912   4.705   4.771 -1.0427  0.3180 -1.6902
  194bbb     H8 5638   5.877   4.850   4.681  0.6959  0.0199 -0.2724
  194bbb     C5 5639   6.250   4.465   4.406  0.1280 -1.1827  0.2445
  194bbb     H9 5640   6.246   4.383   4.478 -0.0078 -0.3300  1.2324
  194bbb    H10 5641   6.333   4.536   4.415 -2.1427  1.6692  0.1888
  194bbb     C6 5642   6.003   4.382   4.668  0.5727 -0.8200 -0.1773
  194bbb    H11 5643   6.038   4.310   4.593 -0.7751 -0.2961 -1.3396
  194bbb    H12 5644   5.905   4.425   4.647 -0.3222 -1.9451  1.4724
  194bbb     C7 5645   6.066   4.855   4.765 -0.3612  0.2451  0.1262
  194bbb    H13 5646   6.107   4.933   4.699  1.2209  0.2779  1.1116
  194bbb    H14 5647   6.156   4.798   4.790 -0.8938 -0.6814 -0.0117
  194bbb     C8 5648   5.991   4.322   4.808  0.3802 -0.1461  0.5779
  194bbb    H15 5649   5.930   4.392   4.866  0.4587  0.7754 -0.4270
  194bbb    H16 5650   6.087   4.324   4.861  0.6201  2.2685  0.1542
  194bbb     C9 5651   6.261   4.395   4.269  0.6543 -0.6458  0.9137
  194bbb    H17 5652   6.175   4.327   4.266 -0.3686  0.5233  2.2086
  194bbb    H18 5653   6.357   4.344   4.264  0.5226 -0.7841 -0.3481
  194bbb     O1 5654   6.013   4.909   4.888 -0.0859 -0.1631 -0.1987
  195bbb     N1 5655   5.832   4.950   5.870  0.0346  0.8291  0.0751
  195bbb     C1 5656   5.809   4.808   5.902  0.2363  0.1179 -0.6547
  195bbb     H1 5657   5.848   4.748   5.820  1.4544  0.3538 -0.2621
  195bbb     H2 5658   5.702   4.785   5.908  0.4681 -0.6203  2.1859
  195bbb     C2 5659   5.797   5.038   5.989  0.7697  0.1463 -0.2325
  195bbb     H3 5660   5.858   5.009   6.076 -0.7085 -2.3942  0.0618
  195bbb     H4 5661   5.694   5.014   6.019  0.8468  0.1176  0.0146
  195bbb     C3 5662   5.785   4.992   5.735 -0.3753 -0.4894 -0.1611
  195bbb     H5 5663   5.826   4.926   5.658  0.1798  0.3093 -0.5608
  195bbb     H6 5664   5.813   5.093   5.701 -0.5017 -0.0358  1.0122
  195bbb     C4 5665   5.632   4.982   5.729 -0.4218 -0.3777 -0.4002
  195bbb     H7 5666   5.591   5.044   5.809 -0.0444  0.1199 -0.5815
  195bbb     H8 5667   5.590   4.884   5.752  0.3955 -0.5256  0.5286
  195bbb     C5 5668   5.874   4.747   6.027  0.3512  0.1094  0.2624
  195bbb     H9 5669   5.888   4.639   6.013  1.8041  0.3252 -0.1283
  195bbb    H10 5670   5.807   4.762   6.113 -1.4447 -1.9277 -0.6803
  195bbb     C6 5671   5.806   5.189   5.968 -0.2409 -0.3182 -0.3352
  195bbb    H11 5672   5.718   5.206   5.905 -0.9377  1.1508  0.9677
  195bbb    H12 5673   5.900   5.207   5.914 -1.7195  1.4026 -2.5133
  195bbb     C7 5674   5.581   5.046   5.594 -0.0921  0.3299 -0.3236
  195bbb    H13 5675   5.626   5.144   5.575 -0.0357 -0.0559 -2.3681
  195bbb    H14 5676   5.472   5.052   5.596 -0.1295  1.1572 -2.3426
  195bbb     C8 5677   5.794   5.271   6.104 -0.0932 -0.1897  0.4023
  195bbb    H15 5678   5.844   5.367   6.094 -0.2413  0.0850  1.9923
  195bbb    H16 5679   5.841   5.228   6.194  1.8289  1.5023  0.2780
  195bbb     C9 5680   6.017   4.797   6.067 -1.2712  0.1268 -0.2627
  195bbb    H17 5681   6.039   4.885   6.006  2.3250 -1.1106 -1.0113
  195bbb    H18 5682   6.085   4.718   6.035 -0.6734  0.6174 -0.2219
  195bbb     O1 5683   5.623   4.968   5.478  0.8085  0.3818  0.1301
  196bbb     N1 5684   7.093   6.040   4.197 -0.1686  0.1513  0.0698
  196bbb     C1 5685   7.129   5.987   4.332 -0.3638 -0.1660 -0.1136
  196bbb     H1 5686   7.062   5.904   4.357  0.1225 -0.1346  1.4204
  196bbb     H2 5687   7.115   6.064   4.410  2.3223  0.2241  0.0694
  196bbb     C2 5688   7.203   6.104   4.120 -0.5579  0.0418 -0.7344
  196bbb     H3 5689   7.278   6.027   4.096  0.2773  0.3949  0.6344
  196bbb     H4 5690   7.248   6.181   4.184 -0.5814 -0.2352 -0.3762
  196bbb     C3 5691   6.967   6.119   4.186 -0.8153 -0.3587 -0.0262
  196bbb     H5 5692   6.942   6.106   4.080 -0.1312 -3.8133  0.1271
  196bbb     H6 5693   6.981   6.226   4.209  1.0098 -0.7449  0.8639
  196bbb     C4 5694   6.840   6.072   4.257  0.5351 -0.3945  0.4116
  196bbb     H7 5695   6.837   5.966   4.285  0.2078 -0.0120  1.9252
  196bbb     H8 5696   6.752   6.101   4.197  0.6542 -0.1697  0.3460
  196bbb     C5 5697   7.283   5.948   4.357 -0.6052 -0.5788 -0.2950
  196bbb     H9 5698   7.346   6.033   4.326 -1.4865  0.4071  0.5411
  196bbb    H10 5699   7.318   5.867   4.292  0.1097 -1.2640  0.9213
  196bbb     C6 5700   7.178   6.168   3.984 -0.4001 -0.4889  0.1339
  196bbb    H11 5701   7.279   6.192   3.948 -0.0120 -1.7608  0.3406
  196bbb    H12 5702   7.119   6.261   3.985  1.2366  0.6076 -1.0397
  196bbb     C7 5703   6.829   6.160   4.389 -0.1539 -0.1908 -0.3407
  196bbb    H13 5704   6.818   6.265   4.362  3.8245  0.7889  1.0579
  196bbb    H14 5705   6.926   6.141   4.438  0.3991  1.2554 -0.8111
  196bbb     C8 5706   7.130   6.061   3.882 -0.2659  0.4090 -0.1963
  196bbb    H15 5707   7.080   5.973   3.923 -0.1433  0.6429  0.4591
  196bbb    H16 5708   7.221   6.024   3.832  1.2797  0.2173  2.5890
  196bbb     C9 5709   7.314   5.920   4.506 -0.1021  0.4754  0.1150
  196bbb    H17 5710   7.281   5.821   4.541  1.9639 -0.2434  0.2029
  196bbb    H18 5711   7.248   5.984   4.565 -2.2310 -2.8106  1.5772
  196bbb     O1 5712   6.723   6.097   4.452 -0.0866  0.0380 -0.6187
  197bbb     N1 5713   6.875   6.527   4.862  0.1078  0.4368  0.2691
  197bbb     C1 5714   6.986   6.564   4.959  0.0266 -0.4465 -0.2857
  197bbb     H1 5715   6.989   6.487   5.038 -4.2813 -0.9714 -0.3906
  197bbb     H2 5716   6.953   6.659   5.004  1.6840  0.7071 -1.4015
  197bbb     C2 5717   6.842   6.615   4.752  0.0167 -0.0571 -0.1490
  197bbb     H3 5718   6.930   6.664   4.710 -1.6364  3.3653  0.0200
  197bbb     H4 5719   6.783   6.703   4.782 -0.0549  0.0311 -0.5416
  197bbb     C3 5720   6.762   6.466   4.939 -0.8636 -0.2334  0.3697
  197bbb     H5 5721   6.794   6.377   4.994 -0.3916 -0.9105 -0.9470
  197bbb     H6 5722   6.691   6.425   4.866 -2.1648  0.8443  0.9817
  197bbb     C4 5723   6.675   6.564   5.015 -0.2487 -0.1458  0.0895
  197bbb     H7 5724   6.626   6.631   4.944 -0.5285 -0.4639 -0.0228
  197bbb     H8 5725   6.739   6.625   5.080  0.7997 -1.0369 -0.0745
  197bbb     C5 5726   7.120   6.583   4.883 -0.1441  0.1687 -0.0940
  197bbb     H9 5727   7.120   6.648   4.795  1.8927  0.6225  0.1784
  197bbb    H10 5728   7.155   6.489   4.841  1.0526 -0.1269  1.4492
  197bbb     C6 5729   6.771   6.538   4.647  0.3267  0.1839 -0.6702
  197bbb    H11 5730   6.667   6.513   4.673 -0.3308  3.3246  0.2079
  197bbb    H12 5731   6.818   6.441   4.629  0.4425  0.2885 -0.9388
  197bbb     C7 5732   6.567   6.493   5.094  0.8686  0.2383  0.1079
  197bbb    H13 5733   6.548   6.540   5.192 -2.0843 -0.4693 -0.0173
  197bbb    H14 5734   6.587   6.388   5.119  0.7895  0.0055 -0.7798
  197bbb     C8 5735   6.768   6.620   4.512 -0.0372 -0.0535  0.2542
  197bbb    H15 5736   6.875   6.631   4.490 -0.1651  3.0041  0.6567
  197bbb    H16 5737   6.729   6.722   4.523  1.0333  0.1020  3.7100
  197bbb     C9 5738   7.253   6.622   4.968  0.3413  0.5615  0.7707
  197bbb    H17 5739   7.341   6.614   4.902 -0.3999 -0.7331 -0.1116
  197bbb    H18 5740   7.265   6.554   5.053  0.4453 -0.8465 -0.3190
  197bbb     O1 5741   6.441   6.499   5.022 -0.5026  0.7346 -0.4217
  198bbb     N1 5742   4.787   3.671   4.860 -0.1410  0.7152 -0.4338
  198bbb     C1 5743   4.799   3.714   5.001 -0.6286  0.6089  0.0704
  198bbb     H1 5744   4.901   3.752   5.013 -0.6672  1.9054 -2.8378
  198bbb     H2 5745   4.794   3.625   5.065 -1.0227  0.6617  0.1151
  198bbb     C2 5746   4.669   3.575   4.837 -0.1777 -0.2599 -0.5973
  198bbb     H3 5747   4.654   3.557   4.730  0.0336  1.3083 -0.9091
  198bbb     H4 5748   4.573   3.616   4.872  0.5586  1.2310 -0.2166
  198bbb     C3 5749   4.806   3.778   4.764 -0.2937 -0.0498  0.1946
  198bbb     H5 5750   4.864   3.855   4.815 -0.3047 -0.1304  0.3308
  198bbb     H6 5751   4.714   3.833   4.741  0.0637  1.2755  1.7416
  198bbb     C4 5752   4.890   3.744   4.635  0.0523  0.3135  0.3571
  198bbb     H7 5753   4.841   3.659   4.586 -1.3347 -0.0029  2.1926
  198bbb     H8 5754   4.990   3.707   4.662  0.3899  0.3843 -0.7294
  198bbb     C5 5755   4.699   3.813   5.059  0.0142  0.1261  0.3854
  198bbb     H9 5756   4.599   3.798   5.016 -1.0197  1.0417  2.3252
  198bbb    H10 5757   4.722   3.915   5.025  0.3331 -0.3422 -0.8561
  198bbb     C6 5758   4.690   3.435   4.897  0.0869  0.5570  0.6541
  198bbb    H11 5759   4.680   3.444   5.006 -0.0013  1.5490  0.5788
  198bbb    H12 5760   4.793   3.406   4.874 -0.0087  0.7001  0.0254
  198bbb     C7 5761   4.905   3.858   4.537  0.9822 -0.0902  0.0823
  198bbb    H13 5762   4.926   3.954   4.585 -0.2883  0.2820 -0.0823
  198bbb    H14 5763   4.808   3.869   4.487  0.1864 -0.9779  1.3915
  198bbb     C8 5764   4.588   3.330   4.841  0.4321 -0.0817  0.1890
  198bbb    H15 5765   4.586   3.244   4.909 -2.7097  1.1052  1.7753
  198bbb    H16 5766   4.634   3.299   4.746 -2.3922 -0.9818 -0.9781
  198bbb     C9 5767   4.703   3.804   5.217 -0.6621 -0.5851  0.4044
  198bbb    H17 5768   4.807   3.824   5.245 -0.2680 -2.2687  0.2248
  198bbb    H18 5769   4.680   3.706   5.260 -0.1964 -0.0740  1.9020
  198bbb     O1 5770   5.000   3.823   4.435 -0.7030  0.5286 -0.5485
  199bbb     N1 5771   4.379   3.535   3.291 -0.1033 -0.2312  0.2313
  199bbb     C1 5772   4.408   3.538   3.144 -0.6203  0.0117 -0.2619
  199bbb     H1 5773   4.334   3.485   3.083 -0.4654 -1.5641  0.8478
  199bbb     H2 5774   4.506   3.491   3.125  0.1311  1.6789 -0.6497
  199bbb     C2 5775   4.237   3.558   3.329 -0.0697 -0.3140  0.0121
  199bbb     H3 5776   4.208   3.664   3.325 -1.0293 -0.5457  0.5243
  199bbb     H4 5777   4.221   3.531   3.434 -0.0201  1.2143  0.4272
  199bbb     C3 5778   4.466   3.619   3.382  0.4126  0.1287 -0.0489
  199bbb     H5 5779   4.421   3.618   3.482 -3.7116 -3.2793 -1.6363
  199bbb     H6 5780   4.472   3.725   3.354  0.9093  0.5129  1.4180
  199bbb     C4 5781   4.614   3.573   3.388  0.0883 -0.2656 -0.2139
  199bbb     H7 5782   4.656   3.570   3.287 -0.9433  0.5196 -0.6914
  199bbb     H8 5783   4.624   3.472   3.428  1.8651  0.2577  0.7815
  199bbb     C5 5784   4.422   3.677   3.077 -0.4802  0.9559 -0.5806
  199bbb     H9 5785   4.451   3.649   2.975 -0.6578  0.4508 -0.4947
  199bbb    H10 5786   4.510   3.727   3.121 -0.5279 -0.0179  0.6529
  199bbb     C6 5787   4.136   3.465   3.259  0.0850 -0.0330  0.3739
  199bbb    H11 5788   4.175   3.363   3.269 -0.0622 -0.0078  1.3945
  199bbb    H12 5789   4.137   3.490   3.153 -0.0847  1.7094  0.7485
  199bbb     C7 5790   4.702   3.669   3.471 -0.4516 -0.3036 -0.2780
  199bbb    H13 5791   4.685   3.772   3.438 -0.9316 -0.6492 -1.1331
  199bbb    H14 5792   4.806   3.650   3.443 -0.9017 -0.8746 -1.6594
  199bbb     C8 5793   3.988   3.467   3.319 -0.3405 -0.5728 -0.1322
  199bbb    H15 5794   3.988   3.418   3.417  0.5150 -0.1813  0.0775
  199bbb    H16 5795   3.927   3.403   3.254  2.2684 -0.7688 -2.6266
  199bbb     C9 5796   4.301   3.772   3.077 -0.3051 -0.1933  0.2573
  199bbb    H17 5797   4.256   3.794   3.174 -1.2636  2.4786 -0.6934
  199bbb    H18 5798   4.327   3.867   3.029  0.2785  0.4552  1.8173
  199bbb     O1 5799   4.669   3.641   3.610 -0.3784 -0.0846  0.1960
  200bbb     N1 5800   4.097   4.934   5.152  0.0758  0.1446 -0.4214
  200bbb     C1 5801   4.074   4.883   5.286  0.0203 -0.0575  0.0535
  200bbb     H1 5802   4.062   4.776   5.265  0.6833  0.0586 -0.9713
  200bbb     H2 5803   3.986   4.933   5.328 -0.3682 -1.0684  0.4703
  200bbb     C2 5804   4.097   5.079   5.143  0.6519  0.9305  0.1913
  200bbb     H3 5805   4.119   5.108   5.040  0.3934  1.1172  0.1868
  200bbb     H4 5806   4.173   5.118   5.212  3.5654 -2.9181 -0.5451
  200bbb     C3 5807   4.025   4.875   5.031  0.4999 -0.6206  0.0660
  200bbb     H5 5808   3.929   4.926   5.017  1.1360  0.7237  0.4111
  200bbb     H6 5809   4.019   4.767   5.050  0.7506 -0.1967  2.9226
  200bbb     C4 5810   4.094   4.895   4.892 -0.2789  0.2912 -0.0594
  200bbb     H7 5811   4.200   4.882   4.919 -0.8232  0.0702  2.1677
  200bbb     H8 5812   4.077   4.997   4.854  1.4477  0.3078 -0.9027
  200bbb     C5 5813   4.191   4.897   5.383  0.6017 -0.6007 -0.8767
  200bbb     H9 5814   4.194   5.002   5.414  2.9473 -0.5753 -1.0234
  200bbb    H10 5815   4.287   4.869   5.339 -0.2014 -3.0094 -1.2878
  200bbb     C6 5816   3.945   5.136   5.169 -0.0895 -0.0970 -0.2559
  200bbb    H11 5817   3.939   5.182   5.268 -4.2223  0.2716 -0.4787
  200bbb    H12 5818   3.875   5.052   5.167  0.7517 -0.8039 -0.3854
  200bbb     C7 5819   4.036   4.794   4.794 -0.0913 -0.5591  0.4848
  200bbb    H13 5820   4.068   4.692   4.819 -0.8386 -0.6784  1.0132
  200bbb    H14 5821   4.075   4.826   4.697  0.2790 -0.9914  0.4871
  200bbb     C8 5822   3.908   5.246   5.065  0.3318 -0.0183 -0.6072
  200bbb    H15 5823   3.994   5.313   5.054 -0.9056  2.2345  2.0354
  200bbb    H16 5824   3.818   5.302   5.094 -0.6055 -0.2789 -2.8404
  200bbb     C9 5825   4.181   4.814   5.513  0.1836 -0.8787 -0.4266
  200bbb    H17 5826   4.099   4.859   5.570 -0.4133 -0.3440 -1.6910
  200bbb    H18 5827   4.270   4.834   5.574 -0.7921 -0.3781  0.8757
  200bbb     O1 5828   3.891   4.804   4.790  0.6057  0.2745  0.4311
  201bbb     N1 5829   3.748   4.078   5.060  0.2158 -0.1973  0.3561
  201bbb     C1 5830   3.815   3.978   4.970  0.8989  1.1983  0.1893
  201bbb     H1 5831   3.748   3.894   4.946  2.1902  0.4402 -0.9287
  201bbb     H2 5832   3.899   3.938   5.029 -0.8721 -0.5585  1.6608
  201bbb     C2 5833   3.842   4.174   5.121 -0.8519 -0.3862  0.5299
  201bbb     H3 5834   3.777   4.225   5.193  2.2239  0.6203  2.8091
  201bbb     H4 5835   3.882   4.231   5.036 -3.2764 -1.1781 -1.2527
  201bbb     C3 5836   3.639   4.152   4.989  0.1363  0.3840  0.4062
  201bbb     H5 5837   3.588   4.080   4.924  1.8205  0.9401 -1.6361
  201bbb     H6 5838   3.681   4.222   4.917  1.6677 -1.7581 -0.9040
  201bbb     C4 5839   3.540   4.224   5.079  1.2192  0.7491  0.0054
  201bbb     H7 5840   3.590   4.318   5.108  0.8410 -0.0249  3.6417
  201bbb     H8 5841   3.541   4.161   5.169 -1.2472  1.1849  0.4073
  201bbb     C5 5842   3.875   4.023   4.838 -0.1315  0.3991  0.2349
  201bbb     H9 5843   3.934   4.115   4.851 -0.2380  0.3699  0.9433
  201bbb    H10 5844   3.811   4.063   4.758  0.2388  1.9956  0.6940
  201bbb     C6 5845   3.964   4.117   5.197 -0.5510 -0.1859 -0.0256
  201bbb    H11 5846   4.029   4.204   5.216 -2.4148  1.4624 -0.7831
  201bbb    H12 5847   4.027   4.067   5.122  2.4688  1.5529  1.1633
  201bbb     C7 5848   3.391   4.231   5.028  0.2371  0.2486 -0.2658
  201bbb    H13 5849   3.330   4.288   5.100 -1.0547  1.7009 -2.4068
  201bbb    H14 5850   3.368   4.125   5.011 -1.4156  0.3786  0.8306
  201bbb     C8 5851   3.936   4.031   5.318 -0.2378 -0.1426 -0.5315
  201bbb    H15 5852   4.030   3.980   5.342 -0.4844 -0.8331 -1.0120
  201bbb    H16 5853   3.865   3.956   5.283 -0.6590  0.4794 -1.0142
  201bbb     C9 5854   3.967   3.910   4.783  0.0099 -0.9161  0.5236
  201bbb    H17 5855   4.068   3.934   4.818  0.0532  1.9391 -1.2467
  201bbb    H18 5856   3.973   3.918   4.673 -1.1529  1.5950  0.5784
  201bbb     O1 5857   3.388   4.302   4.904  0.4289  0.1149 -0.0932
  202bbb     N1 5858   6.780   3.929   4.778 -0.0677  0.2763  0.1781
  202bbb     C1 5859   6.833   3.942   4.636 -0.1679 -0.9613 -0.0050
  202bbb     H1 5860   6.754   3.948   4.561  0.6542  0.1382 -0.8207
  202bbb     H2 5861   6.891   3.853   4.609  1.6232 -0.3236  1.5000
  202bbb     C2 5862   6.765   3.788   4.833 -0.6966 -0.3359  0.6739
  202bbb     H3 5863   6.712   3.718   4.766  0.8508 -0.3159 -0.6394
  202bbb     H4 5864   6.720   3.792   4.933  0.3609  0.3664  1.1333
  202bbb     C3 5865   6.653   3.998   4.794 -0.2609  0.3485  0.0293
  202bbb     H5 5866   6.663   4.096   4.746  0.7220 -0.1037 -0.7413
  202bbb     H6 5867   6.632   4.009   4.901  0.5470 -0.3829  0.2771
  202bbb     C4 5868   6.535   3.928   4.730 -0.0296 -0.1638 -0.3210
  202bbb     H7 5869   6.497   3.839   4.781 -0.0474  0.7060  1.2329
  202bbb     H8 5870   6.555   3.901   4.625  2.1128  3.6591 -1.0918
  202bbb     C5 5871   6.923   4.068   4.621 -0.0619 -0.2985  0.0142
  202bbb     H9 5872   7.012   4.048   4.682  0.3674  1.8795  0.2078
  202bbb    H10 5873   6.868   4.152   4.665  0.1544 -0.8042  1.3078
  202bbb     C6 5874   6.904   3.724   4.858 -0.0743 -0.2432  0.3695
  202bbb    H11 5875   6.958   3.778   4.936 -0.0868  1.6960 -0.8824
  202bbb    H12 5876   6.967   3.729   4.768 -1.7290 -0.0932 -0.8198
  202bbb     C7 5877   6.415   4.025   4.724  0.0013  0.7013  0.4651
  202bbb    H13 5878   6.445   4.115   4.667 -1.2078  1.4658  0.9932
  202bbb    H14 5879   6.392   4.051   4.828 -0.8475 -0.0087  0.4620
  202bbb     C8 5880   6.890   3.576   4.901  0.6186  0.0876 -0.7340
  202bbb    H15 5881   6.831   3.573   4.993  0.0518  1.0217 -1.0513
  202bbb    H16 5882   6.983   3.527   4.933  0.1308 -0.8913 -0.7868
  202bbb     C9 5883   6.971   4.093   4.473  0.1681 -0.0401 -0.1411
  202bbb    H17 5884   7.039   4.178   4.486 -0.6878  0.5904  0.2593
  202bbb    H18 5885   6.891   4.129   4.407  1.9336  1.1362 -1.7580
  202bbb     O1 5886   6.319   3.959   4.643 -0.1136  0.0192 -0.4412
  203bbb     N1 5887   5.879   3.231   3.660 -0.1145  0.2612 -0.2042
  203bbb     C1 5888   5.967   3.303   3.564 -0.4590 -0.1094  0.7635
  203bbb     H1 5889   6.072   3.289   3.595 -1.3446 -1.4114  3.4921
  203bbb     H2 5890   5.945   3.411   3.561 -2.0830 -0.4361 -0.7870
  203bbb     C2 5891   5.862   3.085   3.643 -0.1288  0.5050  0.4961
  203bbb     H3 5892   5.930   3.031   3.709  1.1067 -0.7696 -1.7076
  203bbb     H4 5893   5.894   3.059   3.541 -2.4563  1.7726 -0.6499
  203bbb     C3 5894   5.884   3.271   3.802  0.7541  0.3864 -0.4042
  203bbb     H5 5895   5.942   3.209   3.871  0.2091  2.9562  2.5670
  203bbb     H6 5896   5.780   3.259   3.836  0.8228 -0.8184 -0.5636
  203bbb     C4 5897   5.919   3.421   3.826  0.1791  0.0640  0.2065
  203bbb     H7 5898   5.843   3.484   3.778 -1.4583 -1.4203  0.7558
  203bbb     H8 5899   6.024   3.443   3.802 -0.2195 -0.5038 -2.3126
  203bbb     C5 5900   5.951   3.273   3.411  0.3794 -0.6412 -0.5291
  203bbb     H9 5901   5.998   3.176   3.388  2.3679 -0.1268  1.0556
  203bbb    H10 5902   6.012   3.337   3.346  1.6823 -2.8240 -1.5672
  203bbb     C6 5903   5.717   3.034   3.673  0.3266  0.3122  0.4819
  203bbb    H11 5904   5.684   3.093   3.760 -1.0969  1.8622 -1.0237
  203bbb    H12 5905   5.738   2.932   3.705  0.5811  0.1659 -0.1455
  203bbb     C7 5906   5.894   3.451   3.969  0.0661 -0.4472  0.2023
  203bbb    H13 5907   5.940   3.374   4.032  1.0231 -0.1179 -0.0777
  203bbb    H14 5908   5.787   3.441   3.992  0.3515 -2.4007  0.8449
  203bbb     C8 5909   5.605   3.053   3.563  0.4926 -0.0541  0.0163
  203bbb    H15 5910   5.635   3.008   3.467  0.9539 -0.0905  0.1753
  203bbb    H16 5911   5.593   3.161   3.548 -0.8233 -0.3300 -1.1951
  203bbb     C9 5912   5.803   3.266   3.349 -0.1646  0.2893 -0.2350
  203bbb    H17 5913   5.759   3.187   3.412  3.4246 -1.8830 -0.1633
  203bbb    H18 5914   5.810   3.215   3.252 -0.5544  0.5529 -0.4005
  203bbb     O1 5915   5.948   3.580   4.006  0.1329  0.0095 -0.2922
  204bbb     N1 5916   5.847   4.541   5.430 -0.2309  0.2156  0.7933
  204bbb     C1 5917   5.940   4.653   5.461 -0.0751 -0.2319 -0.1878
  204bbb     H1 5918   6.046   4.635   5.441  0.1098  1.3196 -0.7738
  204bbb     H2 5919   5.939   4.661   5.571 -1.4752  1.4111 -0.2746
  204bbb     C2 5920   5.703   4.569   5.443  0.1568  0.7858  0.6815
  204bbb     H3 5921   5.648   4.481   5.409  2.1041 -0.2307  0.0055
  204bbb     H4 5922   5.676   4.659   5.387  2.0091  0.8096 -0.2251
  204bbb     C3 5923   5.893   4.418   5.495  0.4500  0.1439  0.0309
  204bbb     H5 5924   5.887   4.422   5.604 -0.7314  0.5890 -0.0354
  204bbb     H6 5925   6.001   4.410   5.485  0.5777  0.6179  0.9425
  204bbb     C4 5926   5.842   4.289   5.432 -0.8152 -0.1831  0.0379
  204bbb     H7 5927   5.841   4.302   5.323 -1.5321  0.0477  0.0651
  204bbb     H8 5928   5.742   4.272   5.475 -0.7563  0.1714  0.3317
  204bbb     C5 5929   5.916   4.789   5.376  0.5804  0.2478  0.2697
  204bbb     H9 5930   5.831   4.841   5.422 -0.4282 -1.2048  0.1410
  204bbb    H10 5931   5.893   4.764   5.272  1.8927 -0.2120  0.0633
  204bbb     C6 5932   5.661   4.595   5.581  0.2676  0.1867  0.2689
  204bbb    H11 5933   5.710   4.686   5.620 -1.0251  1.6067 -1.2851
  204bbb    H12 5934   5.693   4.508   5.639  2.8466 -0.0585 -1.3626
  204bbb     C7 5935   5.938   4.175   5.472 -0.1611 -0.1120 -0.4578
  204bbb    H13 5936   5.957   4.186   5.580 -3.6870  3.0946  0.0553
  204bbb    H14 5937   6.037   4.187   5.427 -0.0132  2.3294  0.3659
  204bbb     C8 5938   5.509   4.619   5.606 -0.1277 -0.2847 -0.4495
  204bbb    H15 5939   5.446   4.538   5.568 -1.1814 -1.0977  2.7068
  204bbb    H16 5940   5.484   4.721   5.575 -2.8201 -0.9378 -0.6286
  204bbb     C9 5941   6.035   4.887   5.378  0.2446  0.1846  0.6796
  204bbb    H17 5942   6.015   4.983   5.328  1.0078 -0.6244 -1.2618
  204bbb    H18 5943   6.113   4.834   5.322  0.1401 -0.9676  1.5913
  204bbb     O1 5944   5.873   4.048   5.438 -0.0100  0.0984 -0.8856
  205bbb     N1 5945   5.057   3.445   5.322  0.3160 -0.1651 -0.3315
  205bbb     C1 5946   4.908   3.441   5.352 -0.0951  0.6947 -0.2159
  205bbb     H1 5947   4.842   3.479   5.273  1.5622  2.4277 -0.8204
  205bbb     H2 5948   4.896   3.515   5.431  1.1087  2.4284 -1.5894
  205bbb     C2 5949   5.098   3.374   5.196 -0.6810 -0.7993 -0.1846
  205bbb     H3 5950   5.100   3.265   5.206 -1.0297 -1.1053 -2.7876
  205bbb     H4 5951   5.200   3.409   5.176 -0.4163 -0.5948  1.4362
  205bbb     C3 5952   5.155   3.402   5.427 -0.0177 -1.1017 -0.5177
  205bbb     H5 5953   5.257   3.424   5.394 -1.1303 -0.3250 -3.8166
  205bbb     H6 5954   5.145   3.293   5.441 -1.1250 -0.8113  1.2347
  205bbb     C4 5955   5.120   3.467   5.563  0.9810 -0.4143 -0.9641
  205bbb     H7 5956   5.020   3.430   5.592  0.7739 -0.1540 -1.3386
  205bbb     H8 5957   5.106   3.575   5.546  0.3217  0.0581  1.9865
  205bbb     C5 5958   4.856   3.302   5.409 -0.3537 -0.2122 -0.4588
  205bbb     H9 5959   4.911   3.268   5.498 -0.2527  1.5858  0.2129
  205bbb    H10 5960   4.888   3.218   5.347 -0.8273  0.0870 -1.1159
  205bbb     C6 5961   5.015   3.425   5.067 -0.0843  0.0637 -0.1343
  205bbb    H11 5962   5.027   3.532   5.048 -1.5600  0.0135 -1.5499
  205bbb    H12 5963   4.908   3.419   5.089 -0.4739 -0.2917 -1.9567
  205bbb     C7 5964   5.222   3.430   5.672 -0.0503 -0.1501 -0.3675
  205bbb    H13 5965   5.207   3.323   5.688  1.8960 -0.2591  1.0688
  205bbb    H14 5966   5.207   3.481   5.768 -0.6929  0.2780 -0.6825
  205bbb     C8 5967   5.053   3.344   4.942 -0.6627  0.4599  0.0551
  205bbb    H15 5968   5.160   3.318   4.940 -0.4994  1.0783 -2.5665
  205bbb    H16 5969   5.024   3.407   4.857  0.7380  0.9592 -0.0920
  205bbb     C9 5970   4.704   3.294   5.433 -0.0916 -0.0390 -1.0978
  205bbb    H17 5971   4.672   3.341   5.527 -2.0631 -1.2705 -1.1072
  205bbb    H18 5972   4.675   3.189   5.447  2.2103 -0.6949 -0.8349
  205bbb     O1 5973   5.363   3.451   5.628 -0.0671  0.4587 -0.1191
  206bbb     N1 5974   4.357   7.087   1.425 -0.5490 -0.0227 -0.0908
  206bbb     C1 5975   4.390   7.227   1.385  0.2793  0.3487  0.2313
  206bbb     H1 5976   4.389   7.236   1.276  1.4098  2.3358  0.3402
  206bbb     H2 5977   4.494   7.253   1.408  0.5931  0.8111 -1.5250
  206bbb     C2 5978   4.215   7.059   1.398 -0.7983  0.5045 -0.5560
  206bbb     H3 5979   4.193   7.077   1.292  2.4385 -0.6270 -1.5353
  206bbb     H4 5980   4.152   7.125   1.460 -0.1729  0.8199 -0.2497
  206bbb     C3 5981   4.456   6.990   1.390 -0.5349  0.7690  0.1125
  206bbb     H5 5982   4.459   6.957   1.285  0.6765 -1.3340  0.7335
  206bbb     H6 5983   4.423   6.898   1.441 -0.0273 -0.5564 -1.8225
  206bbb     C4 5984   4.599   7.015   1.435  0.3574 -0.4701 -0.3546
  206bbb     H7 5985   4.603   7.076   1.526  1.4480  0.5768 -1.0614
  206bbb     H8 5986   4.654   7.067   1.355 -0.2443 -1.2455 -1.2924
  206bbb     C5 5987   4.311   7.340   1.440  0.2451 -0.6481 -0.4861
  206bbb     H9 5988   4.315   7.328   1.549 -4.2967  0.0274 -0.0698
  206bbb    H10 5989   4.203   7.329   1.429 -0.0057 -2.1092  2.4136
  206bbb     C6 5990   4.164   6.919   1.426 -0.0900  0.2192  0.1174
  206bbb    H11 5991   4.191   6.895   1.530  0.2501 -0.6958 -0.1761
  206bbb    H12 5992   4.210   6.843   1.361 -1.9913 -1.3086  0.4668
  206bbb     C7 5993   4.673   6.883   1.461  0.0313 -0.2787  0.1776
  206bbb    H13 5994   4.774   6.897   1.501 -0.2533  1.9323  0.2595
  206bbb    H14 5995   4.686   6.832   1.365 -2.7190  2.0097 -1.5852
  206bbb     C8 5996   4.015   6.903   1.411  0.2648  0.3237 -0.1946
  206bbb    H15 5997   3.964   6.988   1.458  0.4206  1.9235 -2.7306
  206bbb    H16 5998   3.983   6.813   1.465  0.6015 -0.2186 -0.8778
  206bbb     C9 5999   4.358   7.483   1.409 -0.4841 -0.2282  0.0215
  206bbb    H17 6000   4.467   7.477   1.415 -0.6025 -2.6384  0.6544
  206bbb    H18 6001   4.331   7.556   1.486 -0.6698  1.6170 -1.6978
  206bbb     O1 6002   4.600   6.797   1.551 -0.0719  0.3546 -0.7242
  207bbb     N1 6003   4.657   5.798   1.218  0.2035  0.4656  0.0970
  207bbb     C1 6004   4.592   5.749   1.095  0.6022  0.1896 -0.3699
  207bbb     H1 6005   4.642   5.659   1.056 -1.1932 -1.3012  0.5865
  207bbb     H2 6006   4.595   5.822   1.013  0.2650 -0.7712 -1.2592
  207bbb     C2 6007   4.792   5.834   1.191  0.4278  0.1274  0.6821
  207bbb     H3 6008   4.834   5.900   1.268  3.5552 -0.7948 -0.0990
  207bbb     H4 6009   4.799   5.895   1.100  1.4508  0.5993  1.0627
  207bbb     C3 6010   4.578   5.896   1.297 -0.5608 -0.0252 -0.5289
  207bbb     H5 6011   4.477   5.865   1.326 -0.3751  0.3843  0.5752
  207bbb     H6 6012   4.558   5.990   1.244 -1.0940 -0.4596 -1.1145
  207bbb     C4 6013   4.640   5.934   1.439  0.3609 -0.1800  0.2352
  207bbb     H7 6014   4.728   5.999   1.432  0.7291 -0.6681  0.2535
  207bbb     H8 6015   4.672   5.845   1.494 -1.6160 -1.0704  0.0176
  207bbb     C5 6016   4.443   5.698   1.103  0.0813  0.1467 -0.4534
  207bbb     H9 6017   4.403   5.678   1.003 -0.7042  0.6934 -0.2583
  207bbb    H10 6018   4.377   5.772   1.148 -2.6961 -0.3899 -3.2957
  207bbb     C6 6019   4.885   5.712   1.167 -0.2692 -0.3752 -0.0283
  207bbb    H11 6020   4.851   5.653   1.081  0.2573 -1.7572  0.6744
  207bbb    H12 6021   4.880   5.649   1.257 -2.5226 -1.8044 -1.0597
  207bbb     C7 6022   4.537   6.001   1.530 -0.0087 -0.0060  0.1184
  207bbb    H13 6023   4.474   5.921   1.572  2.1071 -0.4622  2.6497
  207bbb    H14 6024   4.476   6.068   1.468  0.8076  0.2964 -0.3707
  207bbb     C8 6025   5.034   5.753   1.150  0.5398  0.2761 -0.1734
  207bbb    H15 6026   5.048   5.859   1.125 -0.3117  0.7728  1.3282
  207bbb    H16 6027   5.075   5.685   1.075 -1.5212 -1.2921  0.0616
  207bbb     C9 6028   4.442   5.570   1.193  0.2016  0.1576  0.1789
  207bbb    H17 6029   4.510   5.595   1.275  1.0628 -0.2549 -0.3832
  207bbb    H18 6030   4.488   5.482   1.146  0.4139  0.2092  0.2891
  207bbb     O1 6031   4.597   6.076   1.635 -0.1372 -0.0114  0.3344
  208bbb     N1 6032   6.559   7.225   2.237  0.1163  0.5676  0.0100
  208bbb     C1 6033   6.521   7.366   2.221 -0.4095  0.4334 -0.2594
  208bbb     H1 6034   6.434   7.375   2.155  0.6635  0.9680 -1.6501
  208bbb     H2 6035   6.605   7.415   2.172 -1.2527 -0.7253 -3.0307
  208bbb     C2 6036   6.680   7.204   2.318 -0.4457 -0.2658 -0.3146
  208bbb     H3 6037   6.690   7.099   2.349 -0.4442  0.1074  1.0127
  208bbb     H4 6038   6.670   7.265   2.409 -0.8340 -0.2318 -0.3797
  208bbb     C3 6039   6.442   7.136   2.290 -0.1363  0.1656 -0.1286
  208bbb     H5 6040   6.344   7.175   2.259 -0.7757 -0.8002  0.6103
  208bbb     H6 6041   6.433   7.123   2.399  1.6622 -3.4057 -0.2532
  208bbb     C4 6042   6.451   6.997   2.224  0.3881  0.5046 -0.3281
  208bbb     H7 6043   6.542   6.949   2.262 -0.9268 -0.3976  1.8785
  208bbb     H8 6044   6.454   7.009   2.115  1.8473  1.5255 -0.2142
  208bbb     C5 6045   6.491   7.438   2.358 -0.1979  0.1712  0.0777
  208bbb     H9 6046   6.584   7.451   2.413 -0.6334  1.8834  0.4606
  208bbb    H10 6047   6.417   7.379   2.414 -0.0408  0.1959  0.3112
  208bbb     C6 6048   6.818   7.224   2.238  0.3471 -0.0737 -0.0177
  208bbb    H11 6049   6.903   7.184   2.294  0.8444  0.2951 -0.4979
  208bbb    H12 6050   6.834   7.330   2.216  1.3606 -0.1038  0.5281
  208bbb     C7 6051   6.336   6.898   2.254 -0.6284 -0.5801  0.4377
  208bbb    H13 6052   6.304   6.901   2.359 -1.1086  1.6758  0.2841
  208bbb    H14 6053   6.374   6.798   2.230  0.1887 -0.5819  1.6413
  208bbb     C8 6054   6.815   7.159   2.098 -0.3361 -0.4602  0.0110
  208bbb    H15 6055   6.910   7.179   2.048 -0.4001 -1.2388 -0.4275
  208bbb    H16 6056   6.729   7.198   2.041  1.0937  1.0880 -1.1764
  208bbb     C9 6057   6.438   7.580   2.328  0.0656  0.1461  0.2276
  208bbb    H17 6058   6.512   7.639   2.273 -0.9408  1.5344  0.2999
  208bbb    H18 6059   6.357   7.575   2.255  1.5596  1.2050 -1.5774
  208bbb     O1 6060   6.230   6.937   2.170  0.1235  0.0142 -0.7247
  209bbb     N1 6061   6.011   5.950   2.106  0.4429 -0.2826  0.3071
  209bbb     C1 6062   6.093   5.851   2.010 -0.1836  0.1439  0.2812
  209bbb     H1 6063   6.190   5.896   2.035 -0.3895 -0.4722  2.4335
  209bbb     H2 6064   6.079   5.921   1.927 -0.3580  0.3059  0.4466
  209bbb     C2 6065   6.078   5.992   2.230 -0.0219  0.5785  0.1081
  209bbb     H3 6066   6.142   6.076   2.201  1.2406 -0.5719 -0.5365
  209bbb     H4 6067   6.141   5.913   2.271 -0.0766 -1.4489 -3.3207
  209bbb     C3 6068   5.952   6.070   2.039 -0.4651 -0.1723  0.2836
  209bbb     H5 6069   5.892   6.125   2.112 -1.2652  0.2524 -0.6730
  209bbb     H6 6070   5.888   6.032   1.958  0.5427 -2.1113  0.3244
  209bbb     C4 6071   6.065   6.164   1.980  0.3225  0.4274  0.7675
  209bbb     H7 6072   6.084   6.148   1.873 -0.5297 -0.2900  0.7180
  209bbb     H8 6073   6.166   6.148   2.021  1.1075 -2.2965 -1.8269
  209bbb     C5 6074   6.077   5.594   1.956 -0.5895  0.4515  0.4373
  209bbb     H9 6075   6.156   5.548   1.896 -0.5381 -0.6700  1.3349
  209bbb    H10 6076   6.002   5.550   1.889 -0.9599  0.5843  0.7647
  209bbb     C6 6077   5.974   6.041   2.334 -0.3040 -0.2599  0.6029
  209bbb    H11 6078   5.889   5.972   2.337 -0.6537  0.1513  0.2440
  209bbb    H12 6079   5.942   6.142   2.306 -0.6984 -0.3053  0.8749
  209bbb     C7 6080   6.036   6.312   2.006  0.3837 -0.6621  0.1637
  209bbb    H13 6081   6.105   6.376   1.949 -2.4813 -0.1899 -3.1438
  209bbb    H14 6082   6.040   6.336   2.113  1.3101 -1.9234  0.4274
  209bbb     C8 6083   6.028   6.046   2.484  0.2401  0.0210  0.6284
  209bbb    H15 6084   5.939   6.080   2.539 -1.1129 -1.2951 -0.6355
  209bbb    H16 6085   6.104   6.125   2.481 -0.2077  0.4210 -1.2367
  209bbb     C9 6086   6.074   5.452   2.039  0.1100  0.0554  0.3039
  209bbb    H17 6087   6.146   5.445   2.121  0.3998  0.4347  0.0872
  209bbb    H18 6088   6.114   5.375   1.972 -0.2475  0.2354 -0.1234
  209bbb     O1 6089   5.904   6.333   1.958  0.1651  0.1897  0.2928
  210bbb     N1 6090   3.543   7.339   2.792 -0.1041 -0.5071  0.2567
  210bbb     C1 6091   3.470   7.424   2.692  0.0491 -0.0811  0.1086
  210bbb     H1 6092   3.400   7.355   2.645  0.1481 -0.3015  0.2827
  210bbb     H2 6093   3.538   7.457   2.613  0.0010 -2.8831 -1.2199
  210bbb     C2 6094   3.460   7.277   2.895  0.3077  0.0405 -0.1869
  210bbb     H3 6095   3.391   7.342   2.950  0.6703 -0.3194  0.7150
  210bbb     H4 6096   3.523   7.228   2.970 -0.2060 -0.9281 -0.3740
  210bbb     C3 6097   3.653   7.412   2.863  0.2810 -0.1836  1.1543
  210bbb     H5 6098   3.697   7.354   2.945  2.1983  0.9225  0.9744
  210bbb     H6 6099   3.615   7.498   2.920 -0.0147 -0.7952  1.8952
  210bbb     C4 6100   3.774   7.457   2.777  0.3864  0.5720  0.3476
  210bbb     H7 6101   3.837   7.521   2.839 -0.5347  0.8372  1.0472
  210bbb     H8 6102   3.738   7.509   2.688 -4.6149  1.5179  2.5564
  210bbb     C5 6103   3.386   7.545   2.746 -0.6391 -0.3161  0.2362
  210bbb     H9 6104   3.449   7.598   2.819 -0.7958 -0.8535  0.7737
  210bbb    H10 6105   3.312   7.517   2.821 -1.2164 -0.8912 -0.5360
  210bbb     C6 6106   3.365   7.153   2.865 -0.2307 -0.1561 -0.1484
  210bbb    H11 6107   3.412   7.077   2.801 -1.8325 -1.0437 -0.3323
  210bbb    H12 6108   3.279   7.178   2.802 -1.0488 -1.1364  0.5421
  210bbb     C7 6109   3.840   7.318   2.732  0.3193 -0.6341  0.4246
  210bbb    H13 6110   3.781   7.281   2.648  2.2704  0.0204 -1.3232
  210bbb    H14 6111   3.854   7.247   2.814  1.2310 -1.5599 -0.4943
  210bbb     C8 6112   3.320   7.076   2.991 -0.4076  0.0390  0.3171
  210bbb    H15 6113   3.403   7.009   3.015 -0.6104 -0.4112 -0.1983
  210bbb    H16 6114   3.240   7.006   2.961 -0.7302 -0.1123  1.4903
  210bbb     C9 6115   3.330   7.635   2.638  0.2116  0.1378 -0.5014
  210bbb    H17 6116   3.419   7.673   2.585  1.2357 -2.1359 -0.5261
  210bbb    H18 6117   3.279   7.712   2.698 -2.4064 -1.8914  0.0483
  210bbb     O1 6118   3.970   7.347   2.680  0.3663 -0.6656 -0.4547
  211bbb     N1 6119   3.735   7.565   2.230 -0.7218  0.6353  0.3611
  211bbb     C1 6120   3.593   7.587   2.242  0.5357 -0.1093 -0.5081
  211bbb     H1 6121   3.551   7.549   2.336  1.1005  2.8825  1.0659
  211bbb     H2 6122   3.546   7.542   2.154 -0.7715  0.9528 -0.3937
  211bbb     C2 6123   3.798   7.599   2.359 -0.4935 -0.2018 -0.0725
  211bbb     H3 6124   3.778   7.527   2.439  2.4259  0.3575  1.2833
  211bbb     H4 6125   3.767   7.697   2.398  2.9806 -0.0202  2.7369
  211bbb     C3 6126   3.777   7.443   2.155 -0.2088  0.3749 -0.3403
  211bbb     H5 6127   3.887   7.446   2.149 -0.0396  0.7662  1.9644
  211bbb     H6 6128   3.726   7.430   2.059  0.1603 -2.2891 -0.2507
  211bbb     C4 6129   3.739   7.319   2.233 -0.5331  1.3528 -0.8280
  211bbb     H7 6130   3.632   7.295   2.227 -0.2688  0.2680 -1.5715
  211bbb     H8 6131   3.761   7.324   2.340  1.1177 -2.5311 -0.8179
  211bbb     C5 6132   3.567   7.740   2.227  0.4460 -0.0898 -0.0362
  211bbb     H9 6133   3.623   7.792   2.148 -0.7771  0.0378 -0.8496
  211bbb    H10 6134   3.589   7.791   2.321 -1.2620  0.5598  0.0407
  211bbb     C6 6135   3.952   7.592   2.353  0.4647 -0.5885 -0.1425
  211bbb    H11 6136   3.995   7.632   2.261  0.7381 -0.2303  0.1344
  211bbb    H12 6137   3.982   7.487   2.354  0.5829 -0.5575 -0.5562
  211bbb     C7 6138   3.824   7.194   2.178  0.5231  0.5838  0.2195
  211bbb    H13 6139   3.868   7.224   2.082  0.6849 -1.5828 -0.4264
  211bbb    H14 6140   3.755   7.113   2.154  0.1142  2.0495 -4.5212
  211bbb     C8 6141   4.033   7.661   2.468 -0.7866 -0.1886  0.3879
  211bbb    H15 6142   4.139   7.654   2.438 -0.4033  2.7539  0.7533
  211bbb    H16 6143   4.024   7.606   2.563 -0.1415 -0.6842  0.1735
  211bbb     C9 6144   3.417   7.777   2.202  0.5002 -0.0636  0.3188
  211bbb    H17 6145   3.421   7.867   2.139  0.5376 -1.0252 -1.1087
  211bbb    H18 6146   3.384   7.798   2.304  1.7679 -3.8484  1.6684
  211bbb     O1 6147   3.920   7.155   2.276 -0.4293  0.5091  0.0744
  212bbb     N1 6148   5.831   7.385   3.474 -0.1574 -0.0369  0.1705
  212bbb     C1 6149   5.792   7.518   3.424 -0.7025  0.5573  1.0132
  212bbb     H1 6150   5.816   7.582   3.509  2.6656  2.1397 -0.8959
  212bbb     H2 6151   5.685   7.509   3.401 -0.1874 -1.8144 -0.8786
  212bbb     C2 6152   5.964   7.394   3.532  0.0688 -0.1694 -0.4051
  212bbb     H3 6153   5.957   7.455   3.623 -2.3817 -0.8983 -0.0517
  212bbb     H4 6154   6.036   7.443   3.466  0.6315  0.2855  0.5236
  212bbb     C3 6155   5.819   7.280   3.369 -0.0695  0.6488 -0.5239
  212bbb     H5 6156   5.840   7.183   3.415 -0.3460  0.3430 -1.0436
  212bbb     H6 6157   5.889   7.305   3.288 -2.9396  0.6156 -3.1947
  212bbb     C4 6158   5.676   7.263   3.294 -0.4320 -0.6212  0.0252
  212bbb     H7 6159   5.639   7.359   3.255  0.8325 -0.8123 -1.7421
  212bbb     H8 6160   5.602   7.219   3.362  1.8186 -0.6159  2.6437
  212bbb     C5 6161   5.866   7.559   3.290  0.1492 -0.6110  0.6500
  212bbb     H9 6162   5.820   7.500   3.210 -1.4783  0.0629  1.0525
  212bbb    H10 6163   5.974   7.542   3.286  0.2007  0.0064 -1.3075
  212bbb     C6 6164   6.025   7.260   3.577 -0.6970  0.4052  0.2893
  212bbb    H11 6165   6.059   7.209   3.485  0.6973 -0.7070  1.3680
  212bbb    H12 6166   5.953   7.199   3.632 -1.3487  0.3761 -0.5762
  212bbb     C7 6167   5.702   7.177   3.166  0.1238 -0.3808 -0.1593
  212bbb    H13 6168   5.707   7.071   3.195 -2.5723 -0.5498  0.0119
  212bbb    H14 6169   5.796   7.204   3.117  0.6799 -1.1753  0.4412
  212bbb     C8 6170   6.150   7.296   3.659 -0.0062  0.0527 -0.7791
  212bbb    H15 6171   6.112   7.329   3.757  1.1662  0.8665 -0.5844
  212bbb    H16 6172   6.201   7.380   3.611 -1.0179  0.8423 -0.4903
  212bbb     C9 6173   5.851   7.708   3.266 -0.2703  0.0416  0.1101
  212bbb    H17 6174   5.905   7.759   3.347 -0.0610  2.4556 -1.4767
  212bbb    H18 6175   5.748   7.743   3.263 -0.0498  0.7161  0.2934
  212bbb     O1 6176   5.594   7.185   3.073  0.2915  0.7586 -0.4933
  213bbb     N1 6177   5.498   8.175   2.650 -0.7095  0.1354  0.8652
  213bbb     C1 6178   5.394   8.265   2.693  0.5283  0.2094 -0.0824
  213bbb     H1 6179   5.335   8.308   2.612 -1.3804 -0.1461  1.0489
  213bbb     H2 6180   5.437   8.347   2.752  0.1818 -0.2306  0.8023
  213bbb     C2 6181   5.591   8.257   2.563  1.0356  0.4893 -0.7275
  213bbb     H3 6182   5.525   8.305   2.490  1.2526 -3.3073 -3.6922
  213bbb     H4 6183   5.654   8.192   2.501  2.1696  1.7963 -0.9926
  213bbb     C3 6184   5.453   8.056   2.582  0.2544 -0.7289 -0.4135
  213bbb     H5 6185   5.419   8.088   2.483  1.1520  1.6718 -0.0129
  213bbb     H6 6186   5.370   8.003   2.631 -0.0315 -0.0039 -0.1073
  213bbb     C4 6187   5.574   7.960   2.563  0.0332  0.2998 -0.0362
  213bbb     H7 6188   5.619   7.950   2.663  0.6117 -0.2816 -0.3471
  213bbb     H8 6189   5.648   8.006   2.497  0.5764  0.0763  0.4051
  213bbb     C5 6190   5.281   8.195   2.781  0.4585 -0.8913 -0.1962
  213bbb     H9 6191   5.336   8.131   2.852  0.0889 -2.3933 -1.2028
  213bbb    H10 6192   5.223   8.117   2.729  1.3300 -2.2445  0.7767
  213bbb     C6 6193   5.675   8.372   2.624  0.4604  0.9119 -0.1945
  213bbb    H11 6194   5.706   8.344   2.725 -0.0523 -0.2395 -0.3436
  213bbb    H12 6195   5.608   8.457   2.637  0.2005  0.5255  1.1730
  213bbb     C7 6196   5.547   7.822   2.500  1.2028 -0.1480 -0.8927
  213bbb    H13 6197   5.506   7.835   2.399  1.3559 -2.0893 -1.2394
  213bbb    H14 6198   5.481   7.765   2.566  0.3520  1.9499  0.1502
  213bbb     C8 6199   5.801   8.409   2.549  0.2420 -0.7034  0.3758
  213bbb    H15 6200   5.876   8.329   2.542  1.8545  0.8773 -1.5918
  213bbb    H16 6201   5.852   8.494   2.597  1.2346 -0.4004 -1.1667
  213bbb     C9 6202   5.184   8.287   2.865  0.0207 -0.4050 -0.0074
  213bbb    H17 6203   5.124   8.347   2.796  1.4856  3.1728  1.5974
  213bbb    H18 6204   5.235   8.369   2.917 -0.5682 -0.2161  0.2809
  213bbb     O1 6205   5.672   7.749   2.501  0.4737 -0.0991 -0.1185
  214bbb     N1 6206   3.261   3.041   2.256 -0.1831 -0.1919  0.6800
  214bbb     C1 6207   3.206   3.071   2.117 -0.0452 -0.6636 -0.3158
  214bbb     H1 6208   3.275   3.102   2.038 -2.2805  1.4295 -1.6298
  214bbb     H2 6209   3.129   3.150   2.122  0.3263 -0.3976  2.2300
  214bbb     C2 6210   3.211   3.126   2.366 -0.2328  0.2806  0.0982
  214bbb     H3 6211   3.240   3.230   2.344  0.4099  0.0746 -0.0485
  214bbb     H4 6212   3.270   3.107   2.456 -2.8353  0.2892  1.9215
  214bbb     C3 6213   3.409   3.047   2.259  0.6390  0.0456 -0.4650
  214bbb     H5 6214   3.448   3.017   2.357 -3.8180  0.9008  1.8012
  214bbb     H6 6215   3.439   3.150   2.237  3.5212 -0.4234  0.7275
  214bbb     C4 6216   3.486   2.960   2.158  0.6933  0.4282 -0.3401
  214bbb     H7 6217   3.442   2.971   2.058  1.9648 -0.3743 -1.0187
  214bbb     H8 6218   3.472   2.855   2.184 -0.8796  0.3076 -1.5030
  214bbb     C5 6219   3.139   2.947   2.053  0.4349  0.7047 -0.1324
  214bbb     H9 6220   3.065   2.894   2.115  1.5552 -1.5308 -0.6029
  214bbb    H10 6221   3.223   2.877   2.045 -1.0726 -1.2039  0.1790
  214bbb     C6 6222   3.063   3.112   2.398 -0.0876 -0.1740 -0.4202
  214bbb    H11 6223   3.009   3.106   2.302  1.2956 -0.1098 -1.2268
  214bbb    H12 6224   3.028   3.200   2.454  1.1409  0.6409 -0.8810
  214bbb     C7 6225   3.637   2.996   2.149  0.1762  0.5863 -0.3292
  214bbb    H13 6226   3.692   2.918   2.095  0.5435  0.4521  0.2401
  214bbb    H14 6227   3.682   2.978   2.247 -1.5716 -1.8627  0.1178
  214bbb     C8 6228   3.036   2.980   2.483  0.7302  0.1392  0.0998
  214bbb    H15 6229   3.127   2.919   2.478  1.4746  1.0955  1.4403
  214bbb    H16 6230   2.962   2.919   2.429  2.1022 -2.5420  1.0998
  214bbb     C9 6231   3.075   2.967   1.913  0.6366 -0.7262  0.1991
  214bbb    H17 6232   3.006   2.885   1.891  0.1665  0.0978 -1.5544
  214bbb    H18 6233   3.147   2.966   1.831  0.1304 -0.0541 -0.2641
  214bbb     O1 6234   3.646   3.128   2.089  0.4459 -0.7370  0.1255
  215bbb     N1 6235   4.741   3.843   2.235  0.2591  0.0036  0.1509
  215bbb     C1 6236   4.774   3.738   2.334 -0.1220 -0.2012 -0.6386
  215bbb     H1 6237   4.843   3.660   2.298 -0.7488 -1.3815  0.6234
  215bbb     H2 6238   4.678   3.686   2.343 -1.5730  2.3983 -0.3345
  215bbb     C2 6239   4.860   3.931   2.210  0.1751  0.5333  0.2504
  215bbb     H3 6240   4.893   3.983   2.301  3.9820  2.6531 -2.0817
  215bbb     H4 6241   4.811   4.010   2.152 -1.7081 -1.2779 -0.7199
  215bbb     C3 6242   4.674   3.805   2.114 -0.7795  0.4948  0.1576
  215bbb     H5 6243   4.742   3.739   2.058  0.4893  0.2772  1.8847
  215bbb     H6 6244   4.659   3.898   2.058 -0.2709  0.0402 -0.7717
  215bbb     C4 6245   4.539   3.728   2.128  0.0553 -1.1133  0.4686
  215bbb     H7 6246   4.480   3.790   2.196  0.9953  2.3926 -1.6667
  215bbb     H8 6247   4.565   3.629   2.166  3.2499 -0.6109 -0.1016
  215bbb     C5 6248   4.827   3.781   2.474  0.1852  0.8255  0.6360
  215bbb     H9 6249   4.760   3.858   2.515 -0.7391  0.1091  0.5044
  215bbb    H10 6250   4.930   3.819   2.470  0.1464  1.3952  3.0782
  215bbb     C6 6251   4.972   3.866   2.129 -0.1783 -0.1634  0.3588
  215bbb    H11 6252   4.925   3.827   2.037 -0.3941  0.1215  0.3474
  215bbb    H12 6253   5.005   3.777   2.184 -1.4673 -0.4792  0.6530
  215bbb     C7 6254   4.465   3.717   1.995 -0.1450  0.1733  0.8564
  215bbb    H13 6255   4.527   3.675   1.914 -1.3957  0.8243 -0.4797
  215bbb    H14 6256   4.435   3.817   1.962 -1.7534 -0.1996  1.1203
  215bbb     C8 6257   5.097   3.949   2.083 -0.5673 -0.2553 -0.1391
  215bbb    H15 6258   5.179   3.887   2.045 -0.4835  1.1130 -2.4076
  215bbb    H16 6259   5.138   3.999   2.172 -0.3706 -0.8783  0.1254
  215bbb     C9 6260   4.832   3.656   2.572  0.6158 -0.7570 -0.2229
  215bbb    H17 6261   4.745   3.593   2.550 -0.9301  1.0713  0.4208
  215bbb    H18 6262   4.828   3.676   2.680  0.9993 -0.4263 -0.2688
  215bbb     O1 6263   4.348   3.632   2.013 -0.2328 -0.0434  0.1780
  216bbb     N1 6264   3.301   4.467   1.922  0.3902  0.2048 -0.9858
  216bbb     C1 6265   3.204   4.352   1.940  0.2253  0.0304  0.2538
  216bbb     H1 6266   3.184   4.300   1.845  0.8235  1.2055 -0.5500
  216bbb     H2 6267   3.110   4.391   1.982  0.9129 -1.7507  3.7841
  216bbb     C2 6268   3.242   4.587   1.862  0.8296  0.6158 -0.5685
  216bbb     H3 6269   3.138   4.605   1.894  0.6419 -2.2134  0.6851
  216bbb     H4 6270   3.235   4.559   1.756 -0.3452 -2.0039  0.1139
  216bbb     C3 6271   3.434   4.430   1.867  0.0896 -0.3402 -0.7347
  216bbb     H5 6272   3.478   4.350   1.928  0.3689 -1.0634 -1.8332
  216bbb     H6 6273   3.510   4.509   1.867  1.8696 -1.9727 -1.3671
  216bbb     C4 6274   3.431   4.382   1.717  0.6594  0.1554 -0.1998
  216bbb     H7 6275   3.404   4.470   1.658 -0.4412  1.0904  1.6122
  216bbb     H8 6276   3.345   4.314   1.709  0.3373  0.5570 -0.1891
  216bbb     C5 6277   3.255   4.240   2.030 -0.2357  0.0746 -0.2174
  216bbb     H9 6278   3.280   4.283   2.128 -0.6636 -0.4100  0.1106
  216bbb    H10 6279   3.355   4.201   2.007 -0.0625  0.7616 -0.6590
  216bbb     C6 6280   3.328   4.713   1.893  0.0312  0.6674 -0.6015
  216bbb    H11 6281   3.394   4.728   1.807  1.5438  1.1183  0.5812
  216bbb    H12 6282   3.387   4.685   1.982  1.0638  1.1308 -1.1209
  216bbb     C7 6283   3.569   4.325   1.672 -0.0585  0.6624 -0.0303
  216bbb    H13 6284   3.558   4.323   1.563  1.2560  4.7534 -0.3859
  216bbb    H14 6285   3.579   4.221   1.706 -0.8649  0.3667 -0.6576
  216bbb     C8 6286   3.258   4.843   1.914 -0.2566 -0.8235 -0.8495
  216bbb    H15 6287   3.330   4.923   1.893  0.3593 -1.0746  0.2085
  216bbb    H16 6288   3.223   4.844   2.018 -0.8493 -1.8048 -1.0220
  216bbb     C9 6289   3.159   4.124   2.046  0.6461  0.5507  0.8536
  216bbb    H17 6290   3.132   4.103   2.150 -1.4568 -0.9837  0.0751
  216bbb    H18 6291   3.199   4.028   2.013 -4.8177 -2.7774  2.6067
  216bbb     O1 6292   3.684   4.404   1.715 -0.3769 -0.2842  0.0859
  217bbb     N1 6293   4.638   5.142   1.931 -0.1893 -0.3190 -0.5810
  217bbb     C1 6294   4.748   5.131   1.837  0.2182 -0.1262 -0.8300
  217bbb     H1 6295   4.814   5.216   1.861  0.3680 -0.5965  0.5207
  217bbb     H2 6296   4.716   5.155   1.735  0.0459  3.3585 -0.0918
  217bbb     C2 6297   4.670   5.159   2.076 -0.4932  0.3234 -0.3341
  217bbb     H3 6298   4.731   5.070   2.098 -1.6407 -0.2448  0.6507
  217bbb     H4 6299   4.578   5.151   2.135  0.1341 -0.2015  0.5835
  217bbb     C3 6300   4.538   5.237   1.883 -0.1611 -0.3356 -0.3723
  217bbb     H5 6301   4.597   5.326   1.857  1.4248 -1.3970 -0.5562
  217bbb     H6 6302   4.468   5.258   1.965 -0.4439 -0.8405 -0.4815
  217bbb     C4 6303   4.459   5.187   1.759  0.0321 -0.3638  0.7333
  217bbb     H7 6304   4.516   5.185   1.666  0.8171  0.4272  1.1789
  217bbb     H8 6305   4.391   5.272   1.744  2.0936  1.1931 -0.2713
  217bbb     C5 6306   4.843   5.011   1.844 -0.2459 -0.0630 -0.6926
  217bbb     H9 6307   4.861   5.000   1.951 -3.3384 -0.2425 -0.0912
  217bbb    H10 6308   4.938   5.031   1.793 -0.3590  2.3940 -0.0253
  217bbb     C6 6309   4.753   5.278   2.132  0.0126 -0.8276  0.5411
  217bbb    H11 6310   4.844   5.284   2.071  0.3903  1.6504  1.2378
  217bbb    H12 6311   4.785   5.247   2.232 -2.4734 -3.4254  0.6640
  217bbb     C7 6312   4.379   5.058   1.784  0.2763 -0.4826 -0.1121
  217bbb    H13 6313   4.283   5.085   1.831 -1.1804 -0.4010 -2.9212
  217bbb    H14 6314   4.442   4.987   1.840  1.8097  0.9672  0.0521
  217bbb     C8 6315   4.687   5.419   2.125 -0.1882 -0.7147 -0.3628
  217bbb    H15 6316   4.585   5.398   2.160 -0.8215 -0.7809 -2.1350
  217bbb    H16 6317   4.690   5.462   2.024  1.2964 -1.4533 -0.6715
  217bbb     C9 6318   4.775   4.883   1.799 -0.2012  0.6308  0.6123
  217bbb    H17 6319   4.682   4.878   1.857 -0.2110  0.3237  0.5752
  217bbb    H18 6320   4.829   4.793   1.832 -0.8688  0.8777  2.4636
  217bbb     O1 6321   4.353   4.999   1.654 -0.6691 -0.7153  0.3863
  218bbb     N1 6322   2.888   6.005   3.242  0.6143 -0.2771  0.4336
  218bbb     C1 6323   2.863   6.060   3.380 -0.2312 -0.7705  0.1583
  218bbb     H1 6324   2.837   5.972   3.439  2.9019 -2.4681 -0.7699
  218bbb     H2 6325   2.782   6.134   3.380  1.3742  1.0860 -0.6048
  218bbb     C2 6326   2.763   5.934   3.181 -0.1554 -0.4628 -0.3194
  218bbb     H3 6327   2.742   5.850   3.249 -0.7128 -0.2262 -0.1889
  218bbb     H4 6328   2.796   5.896   3.084  2.0647  1.3604 -0.3587
  218bbb     C3 6329   3.015   5.936   3.220  0.7606 -0.4225  0.4224
  218bbb     H5 6330   3.104   5.997   3.241  1.7590 -1.0133 -1.7587
  218bbb     H6 6331   3.018   5.911   3.113  1.0406 -0.8697  0.5331
  218bbb     C4 6332   3.035   5.804   3.294  0.3556  0.0755  0.8955
  218bbb     H7 6333   2.961   5.733   3.254  0.0935  1.3763 -1.0442
  218bbb     H8 6334   3.018   5.824   3.401 -0.0365 -2.2559  1.3339
  218bbb     C5 6335   2.988   6.121   3.448  0.5466 -0.3053 -0.6921
  218bbb     H9 6336   3.063   6.042   3.461  0.9552 -0.0771 -1.6372
  218bbb    H10 6337   2.958   6.143   3.552 -1.5599  1.3076 -1.5548
  218bbb     C6 6338   2.633   6.016   3.168  0.6428 -0.6734 -0.2857
  218bbb    H11 6339   2.594   6.031   3.269  0.0505 -3.2872 -0.0448
  218bbb    H12 6340   2.554   5.953   3.125 -0.4857  0.6906 -0.2605
  218bbb     C7 6341   3.175   5.757   3.256 -0.0047  0.1893  0.0277
  218bbb    H13 6342   3.217   5.787   3.160  1.6166 -0.3015  0.5564
  218bbb    H14 6343   3.167   5.649   3.242  2.7510  0.1661 -2.1754
  218bbb     C8 6344   2.659   6.142   3.088  0.4251  0.0340  0.3305
  218bbb    H15 6345   2.731   6.204   3.142  0.6495  0.2323 -0.1892
  218bbb    H16 6346   2.570   6.205   3.072  0.2889  0.1223  1.3822
  218bbb     C9 6347   3.056   6.248   3.394  0.5918  0.2050 -0.6224
  218bbb    H17 6348   3.056   6.250   3.285 -0.8477  1.0740 -0.6292
  218bbb    H18 6349   3.162   6.239   3.420  0.3429  2.6856  1.8242
  218bbb     O1 6350   3.264   5.778   3.362  0.4339 -0.2879 -1.0095
  219bbb     N1 6351   2.595   5.704   3.745 -0.8043  0.0567 -0.5663
  219bbb     C1 6352   2.520   5.583   3.802  0.0799  0.0868  0.4764
  219bbb     H1 6353   2.414   5.610   3.807 -0.3886 -0.2975 -3.6696
  219bbb     H2 6354   2.549   5.563   3.905 -4.1928  0.7783  2.0199
  219bbb     C2 6355   2.571   5.835   3.809 -0.4753  0.2614 -0.1002
  219bbb     H3 6356   2.609   5.920   3.752 -3.0111  1.5556 -0.0118
  219bbb     H4 6357   2.627   5.823   3.903  1.1024  0.7729 -0.9367
  219bbb     C3 6358   2.736   5.665   3.731 -0.2243 -0.0410  0.0143
  219bbb     H5 6359   2.750   5.572   3.674  3.1897  0.9293 -0.9452
  219bbb     H6 6360   2.777   5.641   3.829 -0.3215  0.3640  0.1588
  219bbb     C4 6361   2.842   5.771   3.671 -0.1632  0.7786 -0.1985
  219bbb     H7 6362   2.844   5.859   3.737  2.3560  0.9986 -0.4520
  219bbb     H8 6363   2.808   5.814   3.577 -0.0284  0.4592 -0.3937
  219bbb     C5 6364   2.541   5.443   3.727  0.0263 -0.8713 -0.0545
  219bbb     H9 6365   2.486   5.360   3.773 -1.6056  1.1999  1.9326
  219bbb    H10 6366   2.645   5.413   3.746 -0.5602 -2.1295  1.4301
  219bbb     C6 6367   2.419   5.856   3.850 -0.3510 -0.2336  0.5403
  219bbb    H11 6368   2.414   5.952   3.903  1.0569  0.1368  0.0612
  219bbb    H12 6369   2.377   5.780   3.917 -0.7861 -1.0351 -0.6145
  219bbb     C7 6370   2.987   5.715   3.661  0.1075  0.0042  0.6603
  219bbb    H13 6371   3.046   5.791   3.609 -1.3092  0.9584  0.3706
  219bbb    H14 6372   2.986   5.619   3.607  0.1348  0.5491 -0.3452
  219bbb     C8 6373   2.325   5.898   3.732  0.4208  0.6582  1.0806
  219bbb    H15 6374   2.328   5.813   3.662 -2.4509 -0.3369  2.0004
  219bbb    H16 6375   2.364   5.987   3.682 -4.2211  1.8732 -0.9228
  219bbb     C9 6376   2.495   5.454   3.578  0.9769  0.0512 -0.6132
  219bbb    H17 6377   2.544   5.380   3.514  0.8246 -0.1773 -0.4651
  219bbb    H18 6378   2.525   5.550   3.533  0.8015 -0.3714 -1.6580
  219bbb     O1 6379   3.036   5.670   3.785  0.6842 -0.5685 -0.0983
  220bbb     N1 6380   2.566   5.736   2.727 -0.1369  0.1394  0.0668
  220bbb     C1 6381   2.662   5.815   2.652 -0.2213  0.2293 -0.0992
  220bbb     H1 6382   2.737   5.748   2.609 -1.6704 -1.7048  0.2830
  220bbb     H2 6383   2.718   5.873   2.727  1.8567 -0.0358 -1.3566
  220bbb     C2 6384   2.494   5.633   2.649 -0.8563  1.3593  0.9081
  220bbb     H3 6385   2.445   5.688   2.567  0.3002  1.4411  0.2613
  220bbb     H4 6386   2.420   5.592   2.719 -0.0540  1.0538  1.5876
  220bbb     C3 6387   2.623   5.690   2.854  0.5632 -0.1014  0.0166
  220bbb     H5 6388   2.692   5.756   2.906 -1.6930  0.6379  2.2766
  220bbb     H6 6389   2.673   5.593   2.840  0.0946 -0.6618  1.9203
  220bbb     C4 6390   2.501   5.664   2.947  0.1694  0.1833  0.3663
  220bbb     H7 6391   2.448   5.571   2.926  0.5808 -0.3592  1.6051
  220bbb     H8 6392   2.432   5.744   2.921  0.1861 -0.4718 -1.8987
  220bbb     C5 6393   2.609   5.915   2.549 -1.0533 -0.1383  0.0955
  220bbb     H9 6394   2.688   5.989   2.534  0.1871 -0.9612  2.1481
  220bbb    H10 6395   2.520   5.973   2.576 -1.7831 -0.7174 -1.0124
  220bbb     C6 6396   2.589   5.534   2.573 -0.3385 -0.0334 -0.0736
  220bbb    H11 6397   2.670   5.513   2.644 -0.3889  0.2650  0.0714
  220bbb    H12 6398   2.628   5.586   2.485 -2.0643  0.9519 -0.3100
  220bbb     C7 6399   2.546   5.656   3.094  0.7306 -0.5570 -0.1037
  220bbb    H13 6400   2.460   5.643   3.161  1.0682  1.3687  0.7583
  220bbb    H14 6401   2.582   5.756   3.122 -0.4451 -0.1826  0.1264
  220bbb     C8 6402   2.512   5.401   2.533  0.3510  0.1285 -0.3092
  220bbb    H15 6403   2.423   5.427   2.475  0.3983 -0.7720 -0.8085
  220bbb    H16 6404   2.477   5.356   2.627  0.1967  0.2657 -0.3006
  220bbb     C9 6405   2.585   5.853   2.407  0.2767  0.1785 -0.4920
  220bbb    H17 6406   2.497   5.787   2.404  0.7107 -0.4718  0.6806
  220bbb    H18 6407   2.675   5.796   2.379  1.2928  0.9670  1.0385
  220bbb     O1 6408   2.651   5.557   3.111  0.0891 -0.2555 -0.0121
  221bbb     N1 6409   2.904   4.864   3.071 -0.1325  0.5033 -0.0625
  221bbb     C1 6410   2.901   4.732   3.010  0.5414  0.3199  0.5513
  221bbb     H1 6411   3.000   4.692   3.036  1.1606  3.2071  3.1985
  221bbb     H2 6412   2.875   4.737   2.903 -0.4597  0.2620  0.7853
  221bbb     C2 6413   3.018   4.941   3.020 -0.2553  0.0544  0.4670
  221bbb     H3 6414   3.004   5.035   3.075  1.6443  1.4164 -1.2234
  221bbb     H4 6415   3.000   4.958   2.914 -1.8846 -2.0633  0.3432
  221bbb     C3 6416   2.769   4.933   3.085  0.7018 -0.0948  0.5296
  221bbb     H5 6417   2.707   4.845   3.107  0.7784 -1.0296 -2.4934
  221bbb     H6 6418   2.737   4.986   2.995 -0.0937  0.2421  1.0012
  221bbb     C4 6419   2.765   5.040   3.194 -0.0676  0.5244 -1.3154
  221bbb     H7 6420   2.664   5.083   3.195  0.0557  0.8463 -1.9172
  221bbb     H8 6421   2.829   5.121   3.156  1.0425  0.9271  1.2131
  221bbb     C5 6422   2.793   4.634   3.066  0.2537 -0.1851  0.3900
  221bbb     H9 6423   2.690   4.673   3.068  0.8777  1.5693  2.6634
  221bbb    H10 6424   2.808   4.631   3.175 -1.1142 -1.0153  0.5825
  221bbb     C6 6425   3.160   4.878   3.053  0.1806  0.2214 -0.6179
  221bbb    H11 6426   3.223   4.961   3.018 -0.2281  0.6170 -0.4286
  221bbb    H12 6427   3.185   4.793   2.990 -1.5669 -2.0826  1.5922
  221bbb     C7 6428   2.818   4.987   3.337 -0.1499 -0.0597 -0.9525
  221bbb    H13 6429   2.925   4.963   3.339 -0.0082  0.2500  3.3182
  221bbb    H14 6430   2.762   4.895   3.360  1.3746 -0.8643 -0.3584
  221bbb     C8 6431   3.185   4.843   3.204  0.1175  0.0516 -0.2786
  221bbb    H15 6432   3.100   4.787   3.244  1.1225 -0.7291  0.8209
  221bbb    H16 6433   3.194   4.932   3.269  0.9509  0.8585 -1.4646
  221bbb     C9 6434   2.780   4.497   2.999 -0.3876 -0.0620 -0.0099
  221bbb    H17 6435   2.688   4.454   3.041 -1.6703  0.0223 -2.5490
  221bbb    H18 6436   2.867   4.438   3.029 -1.0828 -0.0515  2.2254
  221bbb     O1 6437   2.787   5.088   3.431  0.2174  0.2885 -0.7900
  222bbb     N1 6438   8.368   7.357   3.728  0.3422 -0.6516 -0.4196
  222bbb     C1 6439   8.464   7.246   3.714  0.1151  0.1029  0.0266
  222bbb     H1 6440   8.556   7.253   3.773 -0.2030 -0.6181  0.6218
  222bbb     H2 6441   8.500   7.244   3.610 -1.6707  1.3780 -0.6661
  222bbb     C2 6442   8.340   7.409   3.865 -0.1510 -0.7180 -1.1705
  222bbb     H3 6443   8.305   7.332   3.935 -0.9979  1.4102  0.8919
  222bbb     H4 6444   8.267   7.491   3.864 -1.4467 -1.8358 -2.3332
  222bbb     C3 6445   8.254   7.348   3.638  0.5819 -0.5871  0.2795
  222bbb     H5 6446   8.189   7.435   3.649  0.7092 -0.6459  1.6348
  222bbb     H6 6447   8.175   7.275   3.662 -0.9987  1.4849  1.6678
  222bbb     C4 6448   8.286   7.342   3.489  0.0225  0.2480  0.6121
  222bbb     H7 6449   8.325   7.242   3.467  1.6193  0.5982  1.7144
  222bbb     H8 6450   8.371   7.410   3.478  0.1904  0.0593  0.7459
  222bbb     C5 6451   8.409   7.106   3.742 -0.5492  0.4345 -0.1941
  222bbb     H9 6452   8.344   7.071   3.661  1.3757 -3.0123 -0.4201
  222bbb    H10 6453   8.348   7.108   3.833  0.1621  1.2497  0.2766
  222bbb     C6 6454   8.471   7.479   3.919  1.2197  0.1933 -0.1338
  222bbb    H11 6455   8.507   7.553   3.847 -0.5182  0.4145 -0.8145
  222bbb    H12 6456   8.552   7.404   3.919  0.2041 -0.9312  0.5731
  222bbb     C7 6457   8.172   7.373   3.393 -0.0363 -0.2580  0.5124
  222bbb    H13 6458   8.101   7.293   3.417 -0.3352 -0.0953  0.1839
  222bbb    H14 6459   8.192   7.364   3.285 -3.1603 -0.3763 -0.1712
  222bbb     C8 6460   8.453   7.537   4.063  0.3694  0.2092  0.4665
  222bbb    H15 6461   8.554   7.553   4.103  0.6776  1.5156 -0.7330
  222bbb    H16 6462   8.390   7.471   4.124 -4.0256  2.7562 -0.8654
  222bbb     C9 6463   8.524   7.007   3.754 -0.1812  0.6526  0.4304
  222bbb    H17 6464   8.596   7.039   3.831 -0.6616  2.1345  0.2850
  222bbb    H18 6465   8.584   7.000   3.662 -1.0517 -0.9332 -0.0449
  222bbb     O1 6466   8.118   7.501   3.425 -0.0115  0.7846 -0.3121
  223bbb     N1 6467   8.031   6.994   3.979 -0.5200  0.5311  0.3027
  223bbb     C1 6468   7.905   6.963   3.911 -0.5200  0.1479  0.2131
  223bbb     H1 6469   7.815   6.985   3.969 -0.9378  0.3716 -0.5137
  223bbb     H2 6470   7.910   6.855   3.892  3.3846  0.1779  0.1831
  223bbb     C2 6471   8.068   6.906   4.091 -0.3167  0.1407  0.2735
  223bbb     H3 6472   7.978   6.882   4.149 -1.6620 -3.3262 -2.8529
  223bbb     H4 6473   8.141   6.957   4.155 -0.4466  0.9107 -0.1814
  223bbb     C3 6474   8.047   7.141   4.013 -0.0917 -0.7174  0.4882
  223bbb     H5 6475   8.054   7.198   3.920  2.5113  2.1277  2.2358
  223bbb     H6 6476   8.146   7.146   4.061 -0.9448 -1.2830  2.4017
  223bbb     C4 6477   7.949   7.198   4.114  0.6101  0.4100  0.2343
  223bbb     H7 6478   7.981   7.172   4.216  0.3059  1.6132  0.6586
  223bbb     H8 6479   7.844   7.169   4.096  1.0365 -1.5787  0.7309
  223bbb     C5 6480   7.882   7.038   3.783 -0.3312 -0.0790  0.9012
  223bbb     H9 6481   7.882   7.147   3.794 -1.1498  0.2540 -1.6742
  223bbb    H10 6482   7.782   7.012   3.745 -0.0358  2.0118 -1.5225
  223bbb     C6 6483   8.134   6.776   4.043  0.3066  0.1018 -0.2436
  223bbb    H11 6484   8.223   6.798   3.982 -0.0521  2.2205 -0.0532
  223bbb    H12 6485   8.064   6.721   3.979 -0.4005 -2.1385  2.2504
  223bbb     C7 6486   7.957   7.350   4.107 -0.1560  0.2062 -0.0610
  223bbb    H13 6487   8.061   7.382   4.118 -0.2135  0.7470 -1.0162
  223bbb    H14 6488   7.899   7.381   4.195  2.8153 -0.3677  2.2711
  223bbb     C8 6489   8.173   6.680   4.160 -0.4376 -0.1058 -0.0961
  223bbb    H15 6490   8.088   6.666   4.228 -0.1253  0.3325  0.3961
  223bbb    H16 6491   8.251   6.723   4.224  0.2123 -2.4850  0.8220
  223bbb     C9 6492   7.997   6.993   3.684 -0.4918  0.3451  0.2654
  223bbb    H17 6493   8.093   7.038   3.711  0.8862 -1.6129 -1.0400
  223bbb    H18 6494   7.979   7.038   3.585  0.0315 -0.0161  0.0000
  223bbb     O1 6495   7.902   7.404   3.980  0.3220  0.5659  0.0525
  224bbb     N1 6496   6.840   6.989   4.699 -0.2421  0.0056 -0.0910
  224bbb     C1 6497   6.864   7.058   4.829  0.4412  0.4615 -0.2737
  224bbb     H1 6498   6.770   7.097   4.870 -0.3685 -0.6825 -0.9752
  224bbb     H2 6499   6.931   7.143   4.813  0.8605  0.1937  0.0607
  224bbb     C2 6500   6.752   7.056   4.602 -0.0757 -0.3439 -0.4315
  224bbb     H3 6501   6.752   7.005   4.505  0.6771 -0.0790 -0.5820
  224bbb     H4 6502   6.791   7.158   4.591  1.7711 -1.0891 -1.1654
  224bbb     C3 6503   6.961   6.927   4.639 -0.3285  0.0374  0.4783
  224bbb     H5 6504   6.939   6.871   4.548 -0.4375 -1.2684  1.2829
  224bbb     H6 6505   6.992   6.864   4.724  0.0369  0.0001  0.3207
  224bbb     C4 6506   7.084   7.033   4.614  0.1607  0.1326  0.6214
  224bbb     H7 6507   7.117   7.085   4.705 -2.4627  2.0215  0.5979
  224bbb     H8 6508   7.045   7.109   4.545 -0.9270 -2.5172 -1.9010
  224bbb     C5 6509   6.910   6.970   4.945  0.2039  1.0909 -0.1327
  224bbb     H9 6510   7.007   6.928   4.915 -0.6040 -1.3850  0.4884
  224bbb    H10 6511   6.837   6.888   4.941  1.7082 -0.2678 -1.0432
  224bbb     C6 6512   6.602   7.057   4.640  0.5629 -1.4598 -0.3144
  224bbb    H11 6513   6.548   7.096   4.553  1.1033 -0.5850 -0.2663
  224bbb    H12 6514   6.578   7.127   4.721  0.5127 -2.6212  0.7207
  224bbb     C7 6515   7.202   6.964   4.539  0.1266 -0.4462 -0.4315
  224bbb    H13 6516   7.256   7.045   4.488  0.4461 -0.3947 -0.0162
  224bbb    H14 6517   7.164   6.893   4.464 -2.7415 -0.5405  0.9776
  224bbb     C8 6518   6.562   6.908   4.671  0.6538 -0.2875 -0.2971
  224bbb    H15 6519   6.638   6.868   4.739  1.5267  2.7155  0.6530
  224bbb    H16 6520   6.563   6.846   4.581  1.0630 -4.0141  2.0755
  224bbb     C9 6521   6.908   7.048   5.076 -0.3787  0.3474  0.6075
  224bbb    H17 6522   6.956   6.982   5.149  0.6774  0.1459 -0.2431
  224bbb    H18 6523   6.812   7.080   5.118 -0.2562  2.1253 -0.3451
  224bbb     O1 6524   7.294   6.888   4.627  0.1620 -0.1352 -0.7280
  225bbb     N1 6525   6.998   6.075   5.203 -0.3558  0.2252 -0.0652
  225bbb     C1 6526   7.093   5.967   5.226 -0.1444  0.6819  0.4108
  225bbb     H1 6527   7.191   5.999   5.191 -0.7181  1.0080 -0.9490
  225bbb     H2 6528   7.067   5.883   5.161  0.4518  0.1854  0.8015
  225bbb     C2 6529   6.863   6.032   5.246 -0.5212 -0.5538 -0.5195
  225bbb     H3 6530   6.866   6.022   5.355 -0.6082  2.0005 -0.2303
  225bbb     H4 6531   6.833   5.931   5.215 -1.0686 -0.7448  0.5863
  225bbb     C3 6532   7.014   6.138   5.060 -0.3779  0.4799 -0.0587
  225bbb     H5 6533   7.121   6.159   5.051 -0.6928  1.2280 -3.0367
  225bbb     H6 6534   6.963   6.235   5.053 -2.1328 -0.3902  0.0691
  225bbb     C4 6535   6.969   6.054   4.933  0.0157  0.3817  0.0403
  225bbb     H7 6536   6.891   6.114   4.885 -0.6078  0.3380  0.9708
  225bbb     H8 6537   6.912   5.960   4.945 -0.6470  0.7465 -0.1777
  225bbb     C5 6538   7.096   5.917   5.375 -0.3667 -0.5705  0.7098
  225bbb     H9 6539   7.009   5.852   5.395 -2.0236  1.1200 -0.6437
  225bbb    H10 6540   7.107   5.998   5.447  3.3462 -0.5457  0.2661
  225bbb     C6 6541   6.756   6.139   5.224  0.5309 -0.1909  0.9402
  225bbb    H11 6542   6.746   6.136   5.115  2.0425 -1.3879  0.8005
  225bbb    H12 6543   6.795   6.236   5.258 -0.0936 -0.2432  1.8385
  225bbb     C7 6544   7.082   6.015   4.830  0.0122 -0.2543 -0.2710
  225bbb    H13 6545   7.040   5.960   4.744 -0.9863  2.4297 -1.6072
  225bbb    H14 6546   7.151   5.946   4.880 -1.3216 -1.2058  0.3327
  225bbb     C8 6547   6.619   6.091   5.285  0.1615  1.3324  0.6901
  225bbb    H15 6548   6.539   6.162   5.263 -1.5553 -0.9850 -1.0068
  225bbb    H16 6549   6.621   6.083   5.394 -2.5694  1.3451  0.8066
  225bbb     C9 6550   7.222   5.831   5.399 -0.0634  0.2006  0.0705
  225bbb    H17 6551   7.223   5.811   5.507 -2.0219 -0.9030 -0.0821
  225bbb    H18 6552   7.318   5.882   5.385  0.4635 -0.3912  1.3236
  225bbb     O1 6553   7.146   6.132   4.778  0.0237  0.1051 -0.8744
  226bbb     N1 6554   7.491   6.829   1.496  0.3053  0.4053  0.4553
  226bbb     C1 6555   7.441   6.778   1.365 -0.1632 -0.0337 -0.4375
  226bbb     H1 6556   7.341   6.819   1.346  0.5776  2.1382  0.0460
  226bbb     H2 6557   7.445   6.669   1.354  0.2399 -0.2021  1.1656
  226bbb     C2 6558   7.618   6.773   1.553  0.3087  0.4343  0.3238
  226bbb     H3 6559   7.681   6.739   1.471 -1.3553 -2.8207  0.2293
  226bbb     H4 6560   7.594   6.679   1.604 -3.3376  1.0374 -0.0377
  226bbb     C3 6561   7.388   6.857   1.593 -0.0826  0.0776 -0.0685
  226bbb     H5 6562   7.428   6.877   1.693 -1.0827 -0.4093  0.4449
  226bbb     H6 6563   7.331   6.766   1.617 -0.3328  0.4526  0.8151
  226bbb     C4 6564   7.298   6.981   1.550 -0.5644  0.0349 -0.2447
  226bbb     H7 6565   7.213   6.935   1.499 -1.6131  0.6285  0.9288
  226bbb     H8 6566   7.351   7.049   1.482  1.2597 -2.3077 -1.3046
  226bbb     C5 6567   7.524   6.838   1.244 -0.5049 -0.6308  0.1625
  226bbb     H9 6568   7.511   6.772   1.157  0.7940 -0.8826  0.1506
  226bbb    H10 6569   7.632   6.838   1.262 -0.8775 -1.2506  2.6803
  226bbb     C6 6570   7.693   6.879   1.640  0.4513 -0.2885  1.1387
  226bbb    H11 6571   7.793   6.836   1.654  0.0910 -1.4113  0.3431
  226bbb    H12 6572   7.646   6.888   1.738 -1.4639 -2.8352  0.5423
  226bbb     C7 6573   7.254   7.073   1.664 -0.2858  0.4227 -0.1106
  226bbb    H13 6574   7.193   7.157   1.626 -0.0872  1.7701  2.3407
  226bbb    H14 6575   7.340   7.116   1.716 -0.4722  0.8190 -0.1209
  226bbb     C8 6576   7.699   7.013   1.564 -0.6647 -0.3229  0.0806
  226bbb    H15 6577   7.602   7.063   1.558  0.5639  2.1258 -0.5088
  226bbb    H16 6578   7.739   6.988   1.465  0.6453 -1.3654  0.8372
  226bbb     C9 6579   7.491   6.986   1.212  0.0112 -0.0548  0.2351
  226bbb    H17 6580   7.566   7.020   1.139  1.8152 -1.6431  1.2609
  226bbb    H18 6581   7.493   7.059   1.294 -2.2431 -0.6354  0.8611
  226bbb     O1 6582   7.177   7.006   1.761  0.3197  0.5091  0.1528
  227bbb     N1 6583   7.994   6.272   2.304 -0.0024  0.2396  0.5273
  227bbb     C1 6584   8.025   6.336   2.434  0.2134  0.2671 -0.5333
  227bbb     H1 6585   7.938   6.331   2.500 -0.7060 -2.4604 -1.8022
  227bbb     H2 6586   8.051   6.441   2.421  0.9939 -0.0052 -1.2734
  227bbb     C2 6587   8.090   6.300   2.191 -0.2528 -0.1596  0.4904
  227bbb     H3 6588   8.196   6.287   2.215  0.8129 -0.9124 -3.8741
  227bbb     H4 6589   8.099   6.407   2.166  0.8100 -0.0048  1.4550
  227bbb     C3 6590   7.847   6.268   2.282  0.0879  0.4378  0.4049
  227bbb     H5 6591   7.794   6.237   2.372 -1.8499 -2.4544 -1.5489
  227bbb     H6 6592   7.830   6.191   2.206 -2.2990 -1.3120  2.5328
  227bbb     C4 6593   7.788   6.405   2.231  0.3614 -0.0887 -0.5404
  227bbb     H7 6594   7.862   6.444   2.159 -0.3118 -0.7839 -1.6422
  227bbb     H8 6595   7.780   6.477   2.313 -1.3533  0.3360 -1.0489
  227bbb     C5 6596   8.144   6.261   2.504  0.0681  0.3007  0.3592
  227bbb     H9 6597   8.189   6.334   2.572  1.8597 -0.9281  0.5645
  227bbb    H10 6598   8.223   6.269   2.429  1.6343  3.8697  2.1335
  227bbb     C6 6599   8.061   6.207   2.072  0.0006 -0.1289 -0.1473
  227bbb    H11 6600   7.967   6.224   2.018  0.2709  0.2152 -0.5176
  227bbb    H12 6601   8.047   6.105   2.108  0.9233  0.5498  2.3767
  227bbb     C7 6602   7.656   6.396   2.157  0.1737 -0.0569  0.7394
  227bbb    H13 6603   7.583   6.354   2.228 -3.0520  1.4053 -1.4316
  227bbb    H14 6604   7.670   6.337   2.066 -0.0410  1.6410 -0.4428
  227bbb     C8 6605   8.166   6.217   1.961 -0.1588 -0.3000  0.3360
  227bbb    H15 6606   8.231   6.304   1.978  1.0062 -1.2156  0.7468
  227bbb    H16 6607   8.107   6.224   1.869 -0.8451 -2.7246  0.5273
  227bbb     C9 6608   8.102   6.122   2.559  0.0047  0.7745  0.4941
  227bbb    H17 6609   8.034   6.076   2.487  1.3368  0.2542 -0.4768
  227bbb    H18 6610   8.044   6.146   2.649 -1.7131  1.2839 -0.6878
  227bbb     O1 6611   7.612   6.530   2.118 -0.5036  0.0666 -0.3943
  228bbb     N1 6612   6.927   7.448   2.820 -0.3570  0.6402 -0.8777
  228bbb     C1 6613   6.787   7.389   2.802  0.0262 -0.0393  0.7466
  228bbb     H1 6614   6.744   7.342   2.890 -0.1001  1.7659  1.6982
  228bbb     H2 6615   6.796   7.305   2.732 -0.0533 -0.8827  1.7264
  228bbb     C2 6616   6.938   7.570   2.905 -0.4495 -0.1949  0.6529
  228bbb     H3 6617   6.866   7.649   2.880 -2.7513 -1.6927  2.1584
  228bbb     H4 6618   7.041   7.608   2.891 -0.5631 -0.1973 -0.2009
  228bbb     C3 6619   7.002   7.471   2.691  0.3408 -0.5758 -0.7126
  228bbb     H5 6620   7.109   7.480   2.712  0.0503  0.5036  0.4226
  228bbb     H6 6621   6.973   7.566   2.645 -1.0413 -1.0816 -0.9093
  228bbb     C4 6622   6.996   7.345   2.597 -0.2039  0.3284  0.2419
  228bbb     H7 6623   6.903   7.343   2.538  0.8618  1.1552 -1.5562
  228bbb     H8 6624   6.991   7.248   2.648  1.1306  0.4533  0.6432
  228bbb     C5 6625   6.682   7.486   2.756  0.0477  0.2327 -0.4066
  228bbb     H9 6626   6.731   7.546   2.678 -2.0447  1.0367 -1.1740
  228bbb    H10 6627   6.655   7.551   2.840 -2.8554 -3.0588  1.4763
  228bbb     C6 6628   6.917   7.541   3.057 -0.0318  0.7312  0.5391
  228bbb    H11 6629   7.004   7.486   3.096 -1.1348 -1.3250  0.2614
  228bbb    H12 6630   6.831   7.474   3.068  0.2951  0.3574  0.8920
  228bbb     C7 6631   7.106   7.348   2.483  0.2228  0.6816 -0.3728
  228bbb    H13 6632   7.118   7.243   2.454 -1.9945 -0.3625  2.0935
  228bbb    H14 6633   7.203   7.377   2.525 -1.0236 -0.2113  3.5005
  228bbb     C8 6634   6.885   7.677   3.122 -0.6891  0.6940 -0.1085
  228bbb    H15 6635   6.958   7.759   3.119  0.2039 -0.0587  0.7192
  228bbb    H16 6636   6.855   7.665   3.227  0.6353  2.0462  0.4556
  228bbb     C9 6637   6.546   7.421   2.697 -0.6481 -0.6257 -0.2876
  228bbb    H17 6638   6.569   7.334   2.634 -1.5067 -0.9365 -0.1898
  228bbb    H18 6639   6.500   7.500   2.638  1.2108  2.0858  1.6605
  228bbb     O1 6640   7.061   7.433   2.374 -0.1466  0.7319 -0.7987
  229bbb     N1 6641   7.312   8.380   1.745 -0.1474  0.2703 -0.1674
  229bbb     C1 6642   7.330   8.464   1.628 -0.0661  0.3141  0.0571
  229bbb     H1 6643   7.432   8.503   1.627 -0.3041  1.0148  1.2892
  229bbb     H2 6644   7.264   8.550   1.640 -1.4074 -0.3515 -1.9616
  229bbb     C2 6645   7.173   8.319   1.768 -0.5929 -1.1556  0.0533
  229bbb     H3 6646   7.165   8.298   1.875  3.4713  1.6130  1.1034
  229bbb     H4 6647   7.169   8.222   1.717  0.3357 -1.1172 -0.1084
  229bbb     C3 6648   7.423   8.296   1.785  0.0198  0.3777 -0.3410
  229bbb     H5 6649   7.520   8.348   1.784  0.1376  0.2029  0.7267
  229bbb     H6 6650   7.432   8.230   1.698 -0.7449  1.2972 -1.1453
  229bbb     C4 6651   7.402   8.222   1.914 -0.5204  0.2559  0.0378
  229bbb     H7 6652   7.307   8.167   1.912  0.4471 -1.4595 -1.1860
  229bbb     H8 6653   7.397   8.294   1.997 -0.4011  1.9463 -1.3788
  229bbb     C5 6654   7.314   8.375   1.496  0.4053  0.5152  0.9833
  229bbb     H9 6655   7.237   8.297   1.503 -1.1751  1.9096  0.0152
  229bbb    H10 6656   7.404   8.316   1.478 -1.1369 -1.5353 -0.6035
  229bbb     C6 6657   7.049   8.399   1.733  0.4358  0.2101  1.0654
  229bbb    H11 6658   6.961   8.333   1.728  0.6696 -0.0353 -0.4213
  229bbb    H12 6659   7.063   8.436   1.631 -0.1893 -0.8928  0.5583
  229bbb     C7 6660   7.516   8.123   1.943 -0.2496  0.8775 -0.0286
  229bbb    H13 6661   7.592   8.169   2.007  0.4182  0.9402 -0.8567
  229bbb    H14 6662   7.556   8.077   1.852  1.3448  0.9796  0.5963
  229bbb     C8 6663   7.012   8.515   1.820 -0.0247 -0.0162 -0.4728
  229bbb    H15 6664   7.100   8.579   1.831  0.0075 -0.0978 -0.2470
  229bbb    H16 6665   6.989   8.480   1.921 -0.6838  0.9394 -0.2831
  229bbb     C9 6666   7.291   8.458   1.358 -0.3137 -0.7184  0.6884
  229bbb    H17 6667   7.190   8.501   1.366 -0.7614 -1.7291  0.6451
  229bbb    H18 6668   7.288   8.396   1.268 -0.2513  2.2695 -1.4863
  229bbb     O1 6669   7.454   8.018   2.021  0.1601 -0.2585 -0.2830
  230bbb     N1 6670   7.651   4.145   3.264  0.1333  0.1955  1.2383
  230bbb     C1 6671   7.679   4.265   3.334 -0.0618 -0.8178  0.4066
  230bbb     H1 6672   7.777   4.254   3.383  0.0894  0.0423  0.3206
  230bbb     H2 6673   7.595   4.279   3.404 -0.5979 -2.5586  0.1628
  230bbb     C2 6674   7.727   4.110   3.137  0.1052 -0.4352 -0.3714
  230bbb     H3 6675   7.833   4.127   3.158  0.0705 -2.4808  1.9343
  230bbb     H4 6676   7.693   4.186   3.066  0.8791  1.5801  1.3250
  230bbb     C3 6677   7.620   4.030   3.355 -0.9263 -0.0141  0.0005
  230bbb     H5 6678   7.569   3.949   3.302 -0.1868  0.8915 -2.2667
  230bbb     H6 6679   7.553   4.060   3.436 -0.8599 -2.2019  0.9341
  230bbb     C4 6680   7.751   3.961   3.418  0.0950 -0.3273 -0.9076
  230bbb     H7 6681   7.800   4.034   3.483 -1.0028  0.4769 -0.9535
  230bbb     H8 6682   7.824   3.926   3.344 -0.2940  1.2598 -2.1057
  230bbb     C5 6683   7.683   4.395   3.240 -0.0100 -0.2721  0.9808
  230bbb     H9 6684   7.775   4.371   3.184  0.0322  1.8111  0.0853
  230bbb    H10 6685   7.701   4.488   3.295  1.0754  0.6577 -0.8483
  230bbb     C6 6686   7.701   3.972   3.074 -0.3510  0.2128 -0.1168
  230bbb    H11 6687   7.594   3.961   3.052 -0.8196  2.5410  0.6409
  230bbb    H12 6688   7.733   3.895   3.145  0.0684 -0.8662 -1.4228
  230bbb     C7 6689   7.707   3.841   3.498 -0.1699  0.5903  0.0275
  230bbb    H13 6690   7.795   3.794   3.544 -0.1475  0.6331  0.0273
  230bbb    H14 6691   7.662   3.767   3.431  1.7083 -0.9080  0.3322
  230bbb     C8 6692   7.781   3.951   2.944  0.4250  0.6054  0.3889
  230bbb    H15 6693   7.778   3.844   2.921 -1.6829  0.8869 -1.0064
  230bbb    H16 6694   7.887   3.976   2.959  0.7891 -0.0427 -0.9897
  230bbb     C9 6695   7.560   4.419   3.146 -0.3569 -0.1425 -0.1864
  230bbb    H17 6696   7.481   4.459   3.210 -0.1094 -2.7032  1.9106
  230bbb    H18 6697   7.523   4.321   3.113 -1.0652  0.7013 -2.0257
  230bbb     O1 6698   7.610   3.883   3.597  0.0237  0.6159 -0.1026
  231bbb     N1 6699   6.410   3.508   3.801  0.2738 -0.1954 -0.0388
  231bbb     C1 6700   6.326   3.468   3.684  0.4283  0.0615 -0.4917
  231bbb     H1 6701   6.266   3.549   3.641  0.1372  0.4279  0.5825
  231bbb     H2 6702   6.264   3.382   3.715 -0.6113  1.2977  0.9984
  231bbb     C2 6703   6.338   3.509   3.932  0.2072  0.1000 -0.2644
  231bbb     H3 6704   6.262   3.587   3.930  0.9758  0.8825 -2.7425
  231bbb     H4 6705   6.409   3.528   4.014 -0.9676 -0.3511  0.9047
  231bbb     C3 6706   6.481   3.635   3.780 -0.3775  0.5336 -0.2379
  231bbb     H5 6707   6.423   3.725   3.804 -1.6460 -0.1128 -0.8040
  231bbb     H6 6708   6.504   3.642   3.673 -0.1114  0.9090 -0.1583
  231bbb     C4 6709   6.618   3.664   3.849  0.0962 -0.0594 -0.4879
  231bbb     H7 6710   6.603   3.650   3.957 -0.1000  0.9146 -0.3799
  231bbb     H8 6711   6.638   3.771   3.839  0.5230  0.2173  2.5339
  231bbb     C5 6712   6.414   3.416   3.575  0.9804  0.5464 -0.9342
  231bbb     H9 6713   6.476   3.335   3.614 -0.4527  0.8722  2.3129
  231bbb    H10 6714   6.490   3.485   3.537  1.8098  0.4527  0.4993
  231bbb     C6 6715   6.294   3.367   3.972 -0.1370 -0.1441 -0.0729
  231bbb    H11 6716   6.216   3.332   3.903  0.6785  0.5539 -1.3895
  231bbb    H12 6717   6.236   3.365   4.065  1.8919 -0.3637  1.2371
  231bbb     C7 6718   6.729   3.573   3.811  0.1649 -0.1505 -0.1045
  231bbb    H13 6719   6.725   3.550   3.704 -3.7145 -2.1110  0.2759
  231bbb    H14 6720   6.708   3.484   3.872 -1.9508  0.0221 -0.5016
  231bbb     C8 6721   6.396   3.261   3.984  0.4361  0.9237 -0.7407
  231bbb    H15 6722   6.451   3.269   3.890  0.5970  3.1248 -0.5022
  231bbb    H16 6723   6.349   3.162   3.992 -0.3978  1.3376 -0.3538
  231bbb     C9 6724   6.341   3.357   3.448  0.8656 -0.4448 -0.5238
  231bbb    H17 6725   6.283   3.438   3.402  2.1121  0.1637 -1.0706
  231bbb    H18 6726   6.278   3.275   3.484  1.9972 -0.9667  0.3582
  231bbb     O1 6727   6.858   3.634   3.848 -0.1024 -0.1937  0.5070
  232bbb     N1 6728   8.218   5.297   4.129 -0.6958 -0.1466  0.3588
  232bbb     C1 6729   8.306   5.308   4.249 -0.7623  0.4983  0.1163
  232bbb     H1 6730   8.285   5.234   4.326  4.0127  1.6810  2.9742
  232bbb     H2 6731   8.302   5.406   4.299 -4.0353 -0.3702  1.7735
  232bbb     C2 6732   8.094   5.381   4.124  0.4070 -0.8666 -0.0363
  232bbb     H3 6733   8.121   5.485   4.147  4.1559 -1.1220 -2.5444
  232bbb     H4 6734   8.024   5.347   4.202  0.4713 -2.3231 -0.5754
  232bbb     C3 6735   8.195   5.157   4.092  0.0211 -0.8724  0.0694
  232bbb     H5 6736   8.281   5.096   4.121  0.3118  0.7604  2.9961
  232bbb     H6 6737   8.175   5.160   3.984 -0.4483 -2.0434  0.1141
  232bbb     C4 6738   8.075   5.087   4.161  0.2476 -0.9216 -0.2295
  232bbb     H7 6739   7.982   5.128   4.119 -0.4103 -2.6818 -0.5580
  232bbb     H8 6740   8.092   5.105   4.268 -1.9564  0.7024 -0.0676
  232bbb     C5 6741   8.457   5.283   4.215 -0.1334 -0.2421 -0.0281
  232bbb     H9 6742   8.477   5.373   4.155 -0.4189 -0.1282  0.0445
  232bbb    H10 6743   8.472   5.199   4.146  0.2457 -0.6725  0.5692
  232bbb     C6 6744   8.017   5.391   3.985  0.0071  0.7605  0.8315
  232bbb    H11 6745   7.924   5.449   3.997  0.2051  0.9148  1.6864
  232bbb    H12 6746   7.985   5.290   3.958 -0.8737  0.3096  3.2332
  232bbb     C7 6747   8.060   4.934   4.134  0.3145  0.5450 -0.2569
  232bbb    H13 6748   8.141   4.889   4.194  0.3795  1.1678  0.1307
  232bbb    H14 6749   8.082   4.900   4.031  2.9862 -0.2695  0.4974
  232bbb     C8 6750   8.101   5.444   3.870 -0.2112  0.5564 -0.8590
  232bbb    H15 6751   8.040   5.457   3.779 -2.1725 -0.9427  0.1541
  232bbb    H16 6752   8.188   5.380   3.855 -0.5824 -0.4029  0.8280
  232bbb     C9 6753   8.553   5.278   4.340  0.2801 -0.3891 -0.2898
  232bbb    H17 6754   8.532   5.173   4.366 -2.6009  0.2093  0.0602
  232bbb    H18 6755   8.519   5.347   4.418 -0.2242  1.9687 -2.4618
  232bbb     O1 6756   7.925   4.895   4.179 -0.1478 -0.1357  0.4161
  233bbb     N1 6757   8.366   4.779   4.031  0.0749 -0.3886 -0.0664
  233bbb     C1 6758   8.397   4.786   3.882 -0.0095  0.4993 -0.3197
  233bbb     H1 6759   8.473   4.708   3.867 -2.1270 -1.6504 -0.5234
  233bbb     H2 6760   8.438   4.886   3.862 -2.1718  1.8367  1.5781
  233bbb     C2 6761   8.490   4.807   4.108  0.0485 -0.0089  0.2278
  233bbb     H3 6762   8.517   4.910   4.079 -3.5735  0.6955 -1.1614
  233bbb     H4 6763   8.566   4.738   4.070 -0.2983  0.1426 -0.7883
  233bbb     C3 6764   8.284   4.664   4.082  0.1423 -0.8540 -0.4657
  233bbb     H5 6765   8.184   4.655   4.036 -0.2304 -1.8896  0.5228
  233bbb     H6 6766   8.265   4.671   4.189  0.2845  2.9261 -0.5416
  233bbb     C4 6767   8.358   4.535   4.058 -0.1040  0.4776  0.0653
  233bbb     H7 6768   8.456   4.531   4.105  0.6088 -2.3380 -1.4321
  233bbb     H8 6769   8.396   4.533   3.955  1.7015  2.1694  0.6486
  233bbb     C5 6770   8.278   4.764   3.786 -0.5183 -0.2062  0.1051
  233bbb     H9 6771   8.208   4.848   3.797 -0.4459 -0.4237  3.0360
  233bbb    H10 6772   8.216   4.678   3.818  0.6687 -0.1125  2.9386
  233bbb     C6 6773   8.484   4.792   4.265  0.3373 -0.0419  0.7645
  233bbb    H11 6774   8.447   4.695   4.298  0.5657 -0.5665 -0.4425
  233bbb    H12 6775   8.417   4.869   4.303  0.6334  0.8173 -0.3789
  233bbb     C7 6776   8.273   4.411   4.093  0.3414 -0.2840 -0.4963
  233bbb    H13 6777   8.315   4.316   4.058 -3.5175 -2.1615 -0.5140
  233bbb    H14 6778   8.182   4.416   4.032 -2.1000  0.0394  2.8900
  233bbb     C8 6779   8.623   4.819   4.331  0.0343 -0.8409 -0.4150
  233bbb    H15 6780   8.608   4.842   4.437  0.2938  3.4596 -1.1012
  233bbb    H16 6781   8.658   4.918   4.299 -1.0425 -0.9890 -2.2302
  233bbb     C9 6782   8.318   4.752   3.636 -0.0460  0.4808  0.5153
  233bbb    H17 6783   8.394   4.674   3.626  1.6357  2.0336  0.6556
  233bbb    H18 6784   8.373   4.843   3.608  1.9028 -1.0633 -0.9765
  233bbb     O1 6785   8.250   4.407   4.238 -0.0815  0.1012 -0.2174
  234bbb     N1 6786   6.449   5.425   2.167 -0.0297  0.0187  0.6235
  234bbb     C1 6787   6.532   5.542   2.135  0.1862  0.6321 -0.2328
  234bbb     H1 6788   6.494   5.597   2.048  1.9741  2.1255 -0.1314
  234bbb     H2 6789   6.639   5.519   2.124 -0.1503 -1.6551  0.5901
  234bbb     C2 6790   6.416   5.351   2.039 -0.6246  0.1013 -0.0406
  234bbb     H3 6791   6.360   5.424   1.979  0.0332  1.5371  1.0266
  234bbb     H4 6792   6.350   5.265   2.057 -3.7075  2.3642  0.2414
  234bbb     C3 6793   6.522   5.338   2.266  0.8226 -0.3464  0.3494
  234bbb     H5 6794   6.529   5.405   2.353 -2.4240  0.4280  0.1182
  234bbb     H6 6795   6.621   5.315   2.224  0.0581 -0.8065 -1.2545
  234bbb     C4 6796   6.464   5.208   2.307  0.4647  0.5083  0.0620
  234bbb     H7 6797   6.437   5.137   2.228 -1.5963  0.0051  1.1314
  234bbb     H8 6798   6.368   5.222   2.359  0.2166 -1.7928  0.3356
  234bbb     C5 6799   6.532   5.653   2.241 -0.1638 -0.2130 -0.4410
  234bbb     H9 6800   6.594   5.730   2.193  2.2278 -2.5236 -1.2669
  234bbb    H10 6801   6.580   5.614   2.332 -0.2356 -0.3874 -0.4785
  234bbb     C6 6802   6.527   5.295   1.948 -0.8191  0.3774  0.1446
  234bbb    H11 6803   6.560   5.202   1.995 -0.2054 -0.2974 -1.5234
  234bbb    H12 6804   6.617   5.358   1.947  0.4230 -1.3139  0.4156
  234bbb     C7 6805   6.543   5.120   2.401 -0.7396 -0.1863 -0.3592
  234bbb    H13 6806   6.636   5.096   2.347 -0.5786 -0.4433  0.0332
  234bbb    H14 6807   6.499   5.023   2.429  1.9154 -1.5615 -0.6348
  234bbb     C8 6808   6.481   5.265   1.806 -0.4882 -0.7000  0.6889
  234bbb    H15 6809   6.406   5.336   1.768 -0.3151 -0.6785  0.3787
  234bbb    H16 6810   6.432   5.166   1.805 -0.2440 -0.8234  0.8570
  234bbb     C9 6811   6.397   5.715   2.293 -0.0348  0.0383 -0.4687
  234bbb    H17 6812   6.409   5.785   2.376  2.0198 -0.0125 -0.6703
  234bbb    H18 6813   6.347   5.626   2.333  1.9894 -0.6717  0.6744
  234bbb     O1 6814   6.563   5.200   2.519 -0.2688 -0.1692  0.0489
  235bbb     N1 6815   7.460   5.372   2.304  0.0057  0.1001  0.1128
  235bbb     C1 6816   7.390   5.245   2.342  1.1526 -0.7790  0.1253
  235bbb     H1 6817   7.327   5.266   2.429 -0.3311 -1.6666 -0.6910
  235bbb     H2 6818   7.463   5.169   2.372  0.5504 -1.4878 -0.1964
  235bbb     C2 6819   7.544   5.343   2.178 -0.7981  0.1424 -0.9843
  235bbb     H3 6820   7.481   5.338   2.089  0.2301 -0.5145 -1.7034
  235bbb     H4 6821   7.600   5.249   2.187 -2.0430 -0.5582 -0.4441
  235bbb     C3 6822   7.374   5.496   2.300  0.1511  0.6226  0.2705
  235bbb     H5 6823   7.268   5.484   2.274 -0.0655 -0.2785  1.5066
  235bbb     H6 6824   7.403   5.560   2.215 -1.6761 -0.5469 -1.3213
  235bbb     C4 6825   7.389   5.560   2.435  0.0104 -0.2242  0.1348
  235bbb     H7 6826   7.492   5.598   2.434  0.2463 -0.7941 -2.2965
  235bbb     H8 6827   7.376   5.484   2.513 -2.0205  1.4281  1.5305
  235bbb     C5 6828   7.296   5.191   2.227 -0.3658 -0.8573 -0.2279
  235bbb     H9 6829   7.354   5.137   2.152  1.0365  0.7930 -0.4181
  235bbb    H10 6830   7.248   5.272   2.171  0.3136  0.0216  0.4159
  235bbb     C6 6831   7.640   5.460   2.138 -0.3973 -0.7138  0.1514
  235bbb    H11 6832   7.582   5.549   2.110 -0.8156 -0.9917  0.1247
  235bbb    H12 6833   7.691   5.434   2.045 -0.2410  1.0745 -0.2942
  235bbb     C7 6834   7.280   5.667   2.469 -0.5348 -0.1365 -0.2626
  235bbb    H13 6835   7.248   5.716   2.377  2.1519 -1.4044 -2.0179
  235bbb    H14 6836   7.320   5.743   2.538 -1.1127 -0.4568  0.4448
  235bbb     C8 6837   7.749   5.484   2.247 -0.2114  0.6128 -0.2543
  235bbb    H15 6838   7.811   5.393   2.242 -2.5799 -1.0164 -2.0628
  235bbb    H16 6839   7.700   5.494   2.345 -1.8054 -0.0552 -0.9524
  235bbb     C9 6840   7.195   5.090   2.290  0.7036  0.0318 -0.0624
  235bbb    H17 6841   7.127   5.046   2.217  0.4613  1.9559 -1.0622
  235bbb    H18 6842   7.142   5.148   2.367 -0.7114 -2.2843  0.7971
  235bbb     O1 6843   7.164   5.611   2.540  0.0410 -0.2846 -0.1432
  236bbb     N1 6844   7.695   5.934   2.476  0.2217  0.0807  0.8323
  236bbb     C1 6845   7.747   5.805   2.524 -0.2002  0.4539 -0.2998
  236bbb     H1 6846   7.714   5.730   2.452 -0.4289  0.6354 -0.3841
  236bbb     H2 6847   7.699   5.776   2.618  0.7316 -1.4640 -0.3589
  236bbb     C2 6848   7.717   6.050   2.559 -0.7130 -0.0465  0.2668
  236bbb     H3 6849   7.676   6.138   2.507  1.1293  0.0281 -1.1541
  236bbb     H4 6850   7.821   6.084   2.565 -0.6615  0.2710 -1.6234
  236bbb     C3 6851   7.552   5.912   2.439 -0.1339  0.0041  0.6869
  236bbb     H5 6852   7.493   5.911   2.531 -1.1545  1.8024  0.1061
  236bbb     H6 6853   7.531   5.817   2.389 -1.1359  0.0344  1.0357
  236bbb     C4 6854   7.488   6.025   2.354  0.2309  0.1167  0.0971
  236bbb     H7 6855   7.544   6.050   2.263  1.3550  2.1826  1.2795
  236bbb     H8 6856   7.495   6.116   2.414  0.3844 -0.4307  0.9219
  236bbb     C5 6857   7.901   5.798   2.535  0.8434 -0.1808 -0.1488
  236bbb     H9 6858   7.913   5.849   2.631 -0.5054  0.7454 -0.4496
  236bbb    H10 6859   7.952   5.856   2.457 -0.4569 -0.9282 -1.6118
  236bbb     C6 6860   7.655   6.051   2.698  0.2084  0.3841 -0.6130
  236bbb    H11 6861   7.695   5.963   2.750 -1.0579 -1.2844 -2.3266
  236bbb    H12 6862   7.547   6.036   2.688  0.6630 -2.0995 -3.1073
  236bbb     C7 6863   7.343   6.010   2.316  0.2661  0.1155 -1.0236
  236bbb    H13 6864   7.336   5.923   2.250 -1.4882 -0.9648  0.5100
  236bbb    H14 6865   7.306   6.104   2.272  0.6738  0.6089 -0.3274
  236bbb     C8 6866   7.693   6.184   2.777  0.1658  0.0940  0.3801
  236bbb    H15 6867   7.617   6.196   2.855  0.0488 -1.0071  0.4522
  236bbb    H16 6868   7.707   6.262   2.702 -0.3720  1.1088  1.3034
  236bbb     C9 6869   7.948   5.647   2.538  0.3343  0.2430  1.0814
  236bbb    H17 6870   7.888   5.603   2.458  1.9095 -1.4795  0.7781
  236bbb    H18 6871   7.915   5.596   2.629 -1.9977 -1.4046 -0.5779
  236bbb     O1 6872   7.255   5.992   2.431 -0.0923  0.2956 -0.1072
  237bbb     N1 6873   7.669   5.444   2.821 -0.3248  0.2015 -0.6515
  237bbb     C1 6874   7.734   5.452   2.954  0.1142  0.0558 -0.2995
  237bbb     H1 6875   7.688   5.384   3.026  0.3602  1.9842  1.7769
  237bbb     H2 6876   7.727   5.553   2.997 -0.0942 -0.8148  1.7935
  237bbb     C2 6877   7.700   5.317   2.747 -0.7731 -0.4774  0.7977
  237bbb     H3 6878   7.668   5.234   2.810 -0.6436 -0.3185  1.0742
  237bbb     H4 6879   7.806   5.297   2.732 -0.5311  1.0374  0.2861
  237bbb     C3 6880   7.523   5.477   2.831  1.3081 -0.0824 -0.2650
  237bbb     H5 6881   7.479   5.393   2.887  1.0031  0.0435 -0.3117
  237bbb     H6 6882   7.474   5.476   2.733  3.2032  1.2151 -1.2899
  237bbb     C4 6883   7.496   5.612   2.896 -0.0544  0.1242 -0.3289
  237bbb     H7 6884   7.566   5.686   2.855  2.8085 -1.9902  0.4385
  237bbb     H8 6885   7.510   5.584   3.001  1.3089 -3.0870 -1.2308
  237bbb     C5 6886   7.882   5.426   2.960 -1.1080  0.4762  0.1512
  237bbb     H9 6887   7.933   5.484   2.882 -0.8173  1.1756  0.8448
  237bbb    H10 6888   7.907   5.319   2.951 -2.0452  0.4151 -2.3756
  237bbb     C6 6889   7.632   5.308   2.609  0.1478 -0.1223  0.3465
  237bbb    H11 6890   7.623   5.409   2.568  1.1187 -0.3801 -0.5433
  237bbb    H12 6891   7.530   5.271   2.626  0.0984 -0.8106 -1.2574
  237bbb     C7 6892   7.345   5.659   2.874  0.4915  0.7079 -0.9864
  237bbb    H13 6893   7.290   5.583   2.930  0.1355  2.1861  0.7281
  237bbb    H14 6894   7.314   5.647   2.769 -2.1796 -2.0511 -0.0278
  237bbb     C8 6895   7.706   5.220   2.510 -0.4957  0.4210  0.0929
  237bbb    H15 6896   7.802   5.267   2.484 -0.1078 -1.2311 -1.6424
  237bbb    H16 6897   7.650   5.218   2.416  2.5335 -2.9067 -1.9077
  237bbb     C9 6898   7.946   5.469   3.094 -0.1535  1.1401 -0.0911
  237bbb    H17 6899   7.923   5.390   3.167 -0.0143  1.0884 -0.1031
  237bbb    H18 6900   7.902   5.560   3.136 -1.2898  0.2179  0.8020
  237bbb     O1 6901   7.332   5.794   2.925  0.3778  0.1917  0.0506
  238bbb     N1 6902   5.031   4.961   5.372  0.4977  0.1920  0.5564
  238bbb     C1 6903   4.898   5.014   5.411  0.1486 -0.3822  0.0945
  238bbb     H1 6904   4.888   5.123   5.404 -1.1005 -0.5152 -0.4889
  238bbb     H2 6905   4.888   5.004   5.520  1.3780  1.7835  0.4538
  238bbb     C2 6906   5.059   4.973   5.225  0.2574  0.2790 -0.7153
  238bbb     H3 6907   4.974   4.933   5.168 -1.4597  1.9605  0.5200
  238bbb     H4 6908   5.145   4.907   5.208  0.4756  0.3768 -0.0157
  238bbb     C3 6909   5.054   4.827   5.416 -0.4143  0.9332 -0.2702
  238bbb     H5 6910   4.987   4.757   5.365 -0.6655  1.2154 -0.3295
  238bbb     H6 6911   5.019   4.829   5.520  0.8565 -0.2541  0.2121
  238bbb     C4 6912   5.194   4.765   5.406 -0.1195  0.3897 -0.1139
  238bbb     H7 6913   5.241   4.793   5.501  4.8152 -1.4495 -1.7010
  238bbb     H8 6914   5.264   4.805   5.331 -0.1379 -1.3645 -1.1066
  238bbb     C5 6915   4.773   4.941   5.344  1.0448 -0.4118 -0.4389
  238bbb     H9 6916   4.782   4.833   5.330 -0.0167 -0.4399 -1.0200
  238bbb    H10 6917   4.783   4.985   5.243 -1.0603  4.2283  1.1046
  238bbb     C6 6918   5.091   5.116   5.182 -0.4024  0.3649 -0.2316
  238bbb    H11 6919   5.163   5.109   5.100 -1.2025 -0.2935 -0.8852
  238bbb    H12 6920   5.157   5.165   5.256 -0.9744 -0.0179  0.5494
  238bbb     C7 6921   5.202   4.611   5.401 -0.6506  0.0839  0.1924
  238bbb    H13 6922   5.298   4.582   5.356 -0.3991  0.0244  0.7567
  238bbb    H14 6923   5.124   4.579   5.331 -1.5296 -1.4984  1.8497
  238bbb     C8 6924   4.967   5.205   5.147 -0.2514 -0.0626  0.0578
  238bbb    H15 6925   4.997   5.299   5.098 -0.1683 -0.8055 -1.3949
  238bbb    H16 6926   4.909   5.236   5.234 -0.1721  0.7244 -0.1654
  238bbb     C9 6927   4.640   4.983   5.416 -0.0859  0.7811  0.0367
  238bbb    H17 6928   4.558   4.928   5.369 -0.0463  0.7160  0.0428
  238bbb    H18 6929   4.609   5.087   5.406 -0.5927  0.5421 -1.0331
  238bbb     O1 6930   5.187   4.548   5.528 -0.1112  1.0440  0.7011
  239bbb     N1 6931   6.053   3.880   6.047 -0.2843 -0.1596  0.4421
  239bbb     C1 6932   6.127   3.952   5.942  0.0830  0.2575  0.7354
  239bbb     H1 6933   6.129   3.897   5.847 -1.4847  0.2099  0.7094
  239bbb     H2 6934   6.233   3.948   5.969  0.9272 -0.6431 -2.2770
  239bbb     C2 6935   6.138   3.819   6.156 -0.5755  0.7240  0.1689
  239bbb     H3 6936   6.191   3.732   6.116 -2.1417  0.1085 -0.6505
  239bbb     H4 6937   6.054   3.788   6.220 -1.2826  1.4845 -0.3668
  239bbb     C3 6938   5.971   3.770   5.993 -0.2011 -0.7370  0.1365
  239bbb     H5 6939   5.914   3.724   6.075 -1.1121 -0.8136 -0.5247
  239bbb     H6 6940   6.037   3.687   5.966  0.4911  0.2467 -1.2782
  239bbb     C4 6941   5.877   3.801   5.879 -0.1268  0.7160  0.2385
  239bbb     H7 6942   5.825   3.714   5.837 -0.7278  0.3539  1.6905
  239bbb     H8 6943   5.929   3.845   5.793  1.8843 -0.7209  0.6472
  239bbb     C5 6944   6.073   4.098   5.924  0.0869  0.8058  0.1353
  239bbb     H9 6945   6.088   4.157   6.015  0.8152  0.7329  0.0645
  239bbb    H10 6946   5.966   4.112   5.904  0.8445  2.7569 -3.5557
  239bbb     C6 6947   6.222   3.914   6.241  0.0131 -0.2723  0.1823
  239bbb    H11 6948   6.297   3.946   6.168 -0.6709 -2.2018 -1.4432
  239bbb    H12 6949   6.282   3.858   6.314  1.9117  0.9635 -0.3684
  239bbb     C7 6950   5.759   3.884   5.932 -0.2749  0.0515  0.7358
  239bbb    H13 6951   5.788   3.990   5.929 -0.6493  0.1407  0.1351
  239bbb    H14 6952   5.743   3.870   6.039 -0.2395 -1.1194  0.6031
  239bbb     C8 6953   6.140   4.029   6.304  0.1246  0.5709 -1.0073
  239bbb    H15 6954   6.056   3.983   6.359  0.0764  1.6695 -0.1226
  239bbb    H16 6955   6.087   4.097   6.236 -1.3167  1.6907  1.1252
  239bbb     C9 6956   6.148   4.177   5.807  0.7492 -0.7240 -0.0246
  239bbb    H17 6957   6.108   4.278   5.789 -0.5734 -1.5192 -1.8669
  239bbb    H18 6958   6.120   4.116   5.720 -1.0313 -0.6235  0.4370
  239bbb     O1 6959   5.641   3.862   5.848  0.0120  0.3344 -0.2209
  240bbb     N1 6960   4.299   4.703   3.998  0.7116  0.3262 -0.5923
  240bbb     C1 6961   4.255   4.843   3.965  1.3087 -0.1497 -1.0454
  240bbb     H1 6962   4.309   4.878   3.876  0.1179  2.8317 -0.7218
  240bbb     H2 6963   4.287   4.904   4.050  1.4506  0.2192 -1.3596
  240bbb     C2 6964   4.337   4.627   3.876  0.1429 -0.2212 -0.9258
  240bbb     H3 6965   4.261   4.633   3.797  0.4093 -1.2961 -1.2904
  240bbb     H4 6966   4.333   4.524   3.913  0.5977  0.0161 -0.2004
  240bbb     C3 6967   4.393   4.693   4.113 -0.4798  0.1972 -0.0452
  240bbb     H5 6968   4.355   4.750   4.198  0.0361  1.0666 -0.3867
  240bbb     H6 6969   4.488   4.744   4.091 -1.4159  1.9071 -0.2899
  240bbb     C4 6970   4.426   4.548   4.158  0.3191 -1.3963 -0.0464
  240bbb     H7 6971   4.464   4.483   4.077  0.6340 -1.1201 -0.1223
  240bbb     H8 6972   4.332   4.504   4.194  0.7931 -3.1402 -0.8265
  240bbb     C5 6973   4.101   4.847   3.928 -0.4497 -0.7386 -0.3484
  240bbb     H9 6974   4.065   4.764   3.866 -1.3190 -1.5890  1.2278
  240bbb    H10 6975   4.081   4.933   3.864 -0.8901  0.9595  1.9620
  240bbb     C6 6976   4.475   4.665   3.816  0.1371  0.5025  0.3012
  240bbb    H11 6977   4.546   4.653   3.899  1.3830 -0.0226 -0.8201
  240bbb    H12 6978   4.475   4.767   3.776  0.8675 -0.9335 -3.7701
  240bbb     C7 6979   4.526   4.550   4.275 -0.2724  0.0254 -0.2552
  240bbb    H13 6980   4.497   4.592   4.372  0.9260  0.9445 -0.2623
  240bbb    H14 6981   4.609   4.615   4.245  0.1303 -0.6440 -0.6027
  240bbb     C8 6982   4.505   4.556   3.704 -0.2569 -0.1802  0.0071
  240bbb    H15 6983   4.490   4.454   3.740 -1.6606  0.1499  0.4470
  240bbb    H16 6984   4.611   4.571   3.684 -0.3628  2.2224  0.8907
  240bbb     C9 6985   4.022   4.872   4.064  0.0328 -0.0859 -0.9448
  240bbb    H17 6986   4.024   4.979   4.091  0.8570 -0.2083 -0.4967
  240bbb    H18 6987   4.076   4.822   4.145  0.2486 -0.4946 -1.3420
  240bbb     O1 6988   4.583   4.412   4.301  1.1295  0.0579 -0.2570
  241bbb     N1 6989   5.125   4.016   3.537 -0.1071 -0.5935  0.3259
  241bbb     C1 6990   4.990   3.969   3.505 -0.3167 -0.0169 -0.6732
  241bbb     H1 6991   4.917   4.050   3.519  1.3398  1.9475 -2.5801
  241bbb     H2 6992   4.972   3.887   3.575  3.4681  0.1032  0.6629
  241bbb     C2 6993   5.237   3.923   3.504 -0.1309 -0.3253 -0.3305
  241bbb     H3 6994   5.233   3.885   3.401  1.2051  2.0268 -1.3491
  241bbb     H4 6995   5.235   3.834   3.567 -1.9268 -0.5225 -0.6085
  241bbb     C3 6996   5.123   4.075   3.677  0.3234  0.4106 -0.5037
  241bbb     H5 6997   5.035   4.140   3.685 -0.0684 -0.2029  0.3683
  241bbb     H6 6998   5.204   4.149   3.684 -1.0322  1.9083  0.1745
  241bbb     C4 6999   5.109   3.971   3.794  0.2429 -0.0832 -0.5324
  241bbb     H7 7000   5.178   3.886   3.786 -0.2629 -0.4281 -1.2803
  241bbb     H8 7001   5.004   3.939   3.797 -0.2193  1.3846  0.5509
  241bbb     C5 7002   4.965   3.934   3.358  0.1187  0.0278  0.2901
  241bbb     H9 7003   4.856   3.922   3.351  0.0103  0.9426  0.2795
  241bbb    H10 7004   4.999   3.832   3.337 -1.3042 -0.4494  0.1614
  241bbb     C6 7005   5.381   3.974   3.516  0.2187  0.3320  0.1463
  241bbb    H11 7006   5.450   3.890   3.529 -0.1200 -0.2921 -1.7473
  241bbb    H12 7007   5.390   4.040   3.603  0.3117 -0.4165  0.7129
  241bbb     C7 7008   5.141   4.038   3.930  1.0672  0.0452 -0.2571
  241bbb    H13 7009   5.237   4.091   3.930  0.6825  0.8115  1.6812
  241bbb    H14 7010   5.147   3.961   4.008  1.3814 -2.7952 -2.8886
  241bbb     C8 7011   5.432   4.059   3.390 -0.0051 -0.3530  0.3076
  241bbb    H15 7012   5.371   4.149   3.376  0.0698 -0.2922  0.3723
  241bbb    H16 7013   5.401   4.006   3.299 -2.7222  0.6175  0.5712
  241bbb     C9 7014   5.010   4.044   3.257  0.2069  1.0008 -0.3435
  241bbb    H17 7015   5.116   4.059   3.278  0.1661 -0.9542  1.5560
  241bbb    H18 7016   4.960   4.138   3.285 -0.9961  0.2179  0.2483
  241bbb     O1 7017   5.044   4.145   3.955  0.2196  0.0446 -0.1537
  242bbb     N1 7018   5.576   6.600   5.704  0.4429  0.5767 -0.0030
  242bbb     C1 7019   5.472   6.593   5.811  0.7210 -0.0336  0.3208
  242bbb     H1 7020   5.400   6.513   5.794  0.3792  0.6664 -1.8722
  242bbb     H2 7021   5.419   6.689   5.805 -1.8185 -1.4562 -2.3652
  242bbb     C2 7022   5.528   6.677   5.587 -0.5814 -0.0787 -0.2390
  242bbb     H3 7023   5.483   6.771   5.621 -0.5461 -0.2235  0.2020
  242bbb     H4 7024   5.444   6.629   5.536 -0.8699  1.2180 -1.0485
  242bbb     C3 7025   5.656   6.472   5.678 -1.2924 -0.4693 -0.2886
  242bbb     H5 7026   5.713   6.445   5.768  1.4801  0.8912 -1.4962
  242bbb     H6 7027   5.741   6.490   5.610  0.0599 -2.9936  0.6090
  242bbb     C4 7028   5.577   6.353   5.632  0.0381  0.1641 -0.2080
  242bbb     H7 7029   5.503   6.378   5.556  0.5137  0.5495 -0.5496
  242bbb     H8 7030   5.522   6.305   5.714 -1.6264  2.5056  0.1743
  242bbb     C5 7031   5.523   6.582   5.955 -0.0552 -0.0268 -0.0200
  242bbb     H9 7032   5.575   6.676   5.981  0.7562 -0.3001 -0.6069
  242bbb    H10 7033   5.599   6.505   5.972 -2.1052 -2.8139 -2.4559
  242bbb     C6 7034   5.637   6.723   5.483  0.6335  0.5264  0.3729
  242bbb    H11 7035   5.693   6.640   5.438  0.8907  1.2466 -0.6911
  242bbb    H12 7036   5.712   6.788   5.528  0.2426  0.6164  0.9137
  242bbb     C7 7037   5.673   6.246   5.580 -0.3105 -0.1942  0.4074
  242bbb    H13 7038   5.740   6.217   5.662 -1.5140  0.4735  1.6698
  242bbb    H14 7039   5.734   6.295   5.503  0.3640  1.1019  1.7183
  242bbb     C8 7040   5.566   6.792   5.359  0.1537 -0.4317  0.2003
  242bbb    H15 7041   5.525   6.886   5.396  2.7768  0.7774  0.3052
  242bbb    H16 7042   5.487   6.722   5.331 -0.3215  0.6142 -1.1607
  242bbb     C9 7043   5.416   6.556   6.063  0.0590  0.5348 -0.2180
  242bbb    H17 7044   5.376   6.455   6.047 -0.4443  0.8385 -0.9533
  242bbb    H18 7045   5.334   6.629   6.068 -0.2904  0.1224  0.1163
  242bbb     O1 7046   5.606   6.119   5.553 -0.3869  0.0418  0.5313
  243bbb     N1 7047   6.238   5.415   5.756 -0.0858  0.1981 -0.3880
  243bbb     C1 7048   6.188   5.461   5.888 -0.0036  0.1755 -0.3874
  243bbb     H1 7049   6.268   5.477   5.962 -0.2595  2.3640 -0.5208
  243bbb     H2 7050   6.124   5.386   5.936  0.2168  1.1562  1.5265
  243bbb     C2 7051   6.319   5.296   5.771 -0.3952  1.0863  0.5958
  243bbb     H3 7052   6.359   5.264   5.674 -1.0960  1.2514  0.2457
  243bbb     H4 7053   6.255   5.216   5.811  1.1969 -0.9660 -0.7508
  243bbb     C3 7054   6.136   5.417   5.645 -0.8930 -0.1553 -0.5869
  243bbb     H5 7055   6.188   5.400   5.550 -0.5103 -1.2169 -0.2053
  243bbb     H6 7056   6.090   5.516   5.639  0.0718  0.3112 -0.5501
  243bbb     C4 7057   6.035   5.299   5.643  0.4138 -0.3637 -0.5324
  243bbb     H7 7058   5.980   5.296   5.737  2.4877 -0.8298  0.7468
  243bbb     H8 7059   6.093   5.205   5.643 -0.7322 -1.1337  1.9624
  243bbb     C5 7060   6.111   5.592   5.901  0.4751  0.5663  0.0422
  243bbb     H9 7061   6.008   5.588   5.862 -0.7984 -0.9874  3.2116
  243bbb    H10 7062   6.171   5.662   5.842  1.2230 -1.0283 -1.1516
  243bbb     C6 7063   6.441   5.307   5.858 -0.5271  0.3639  0.0125
  243bbb    H11 7064   6.501   5.215   5.848 -2.0580 -0.6259 -0.4159
  243bbb    H12 7065   6.404   5.312   5.962  0.6126 -0.9547  0.5174
  243bbb     C7 7066   5.948   5.309   5.522  0.8752  0.2802  0.8655
  243bbb    H13 7067   5.880   5.223   5.517 -0.7695  1.5670 -2.8229
  243bbb    H14 7068   6.003   5.311   5.427  0.1866  0.8495  0.4671
  243bbb     C8 7069   6.535   5.433   5.840  0.5608 -0.4250  0.0872
  243bbb    H15 7070   6.471   5.522   5.849 -0.0481 -0.7825 -0.5734
  243bbb    H16 7071   6.572   5.438   5.737 -2.5809  4.0317 -1.1150
  243bbb     C9 7072   6.100   5.633   6.050  0.6409  0.3409 -0.0964
  243bbb    H17 7073   6.059   5.734   6.059 -0.4762 -0.0146 -0.9767
  243bbb    H18 7074   6.195   5.634   6.104 -0.2218 -0.4205  1.5376
  243bbb     O1 7075   5.861   5.425   5.533 -0.1007 -0.3135 -0.2948
  244bbb     N1 7076   5.767   7.123   4.282 -0.1152  0.5409 -0.3549
  244bbb     C1 7077   5.900   7.149   4.345  0.0361 -0.0079 -1.3977
  244bbb     H1 7078   5.975   7.108   4.277 -0.0727 -0.0834 -1.4724
  244bbb     H2 7079   5.899   7.092   4.439 -0.6987 -1.3982 -2.2149
  244bbb     C2 7080   5.764   6.983   4.246  0.1751  0.0956 -0.2148
  244bbb     H3 7081   5.661   6.954   4.221  1.2523 -2.8577 -1.6505
  244bbb     H4 7082   5.801   6.921   4.328  1.0866 -1.7653 -1.9759
  244bbb     C3 7083   5.640   7.175   4.347 -0.0574  0.7813 -0.5292
  244bbb     H5 7084   5.550   7.139   4.295 -0.7444  1.0059  0.4676
  244bbb     H6 7085   5.641   7.282   4.324 -0.7944  0.8620 -0.2318
  244bbb     C4 7086   5.617   7.142   4.498 -0.6006  0.2772  0.5271
  244bbb     H7 7087   5.704   7.164   4.561  2.0105 -1.1095 -2.3191
  244bbb     H8 7088   5.607   7.033   4.512  1.3096  0.2439  1.9792
  244bbb     C5 7089   5.936   7.299   4.370  1.0017 -0.1262 -0.0073
  244bbb     H9 7090   5.862   7.336   4.442 -0.5491 -0.7397 -1.2117
  244bbb    H10 7091   5.905   7.347   4.276  2.3218 -0.5599 -0.6829
  244bbb     C6 7092   5.852   6.962   4.125 -0.0956  0.8065 -0.6203
  244bbb    H11 7093   5.958   6.964   4.150  0.0193 -1.3067 -0.7505
  244bbb    H12 7094   5.835   7.041   4.051 -1.7822  0.5883 -0.5084
  244bbb     C7 7095   5.486   7.197   4.556  0.3635 -0.3189  0.2844
  244bbb    H13 7096   5.469   7.291   4.503 -0.1037  0.0628  1.0976
  244bbb    H14 7097   5.498   7.220   4.662  1.3592  1.9365 -0.2623
  244bbb     C8 7098   5.835   6.815   4.064  0.1732 -0.8277 -0.1616
  244bbb    H15 7099   5.916   6.792   3.994  0.3807  2.1748 -1.0398
  244bbb    H16 7100   5.839   6.753   4.154  1.1467 -0.5775 -0.0261
  244bbb     C9 7101   6.082   7.339   4.408  0.4525  0.1991  0.1255
  244bbb    H17 7102   6.142   7.328   4.316  0.2679 -4.3369  0.3369
  244bbb    H18 7103   6.131   7.272   4.480  2.4127  1.1099 -0.2905
  244bbb     O1 7104   5.378   7.109   4.532  0.3783 -0.3164  0.1376
  245bbb     N1 7105   4.643   7.147   4.090  0.3934 -0.3495  0.0950
  245bbb     C1 7106   4.514   7.193   4.026  0.0812  0.4145  0.5695
  245bbb     H1 7107   4.545   7.261   3.946 -0.4096 -0.0940 -0.0673
  245bbb     H2 7108   4.451   7.257   4.089 -1.3621  1.9210 -2.2455
  245bbb     C2 7109   4.755   7.104   3.992  0.9972 -0.4997 -0.2224
  245bbb     H3 7110   4.734   7.004   3.952 -1.1290 -0.4252  0.5682
  245bbb     H4 7111   4.844   7.104   4.055  1.6694  2.2613 -1.0424
  245bbb     C3 7112   4.636   7.069   4.210 -0.0581  0.3551  0.4072
  245bbb     H5 7113   4.735   7.050   4.253 -0.2245  2.8521  2.0897
  245bbb     H6 7114   4.582   6.977   4.184 -2.1488  1.2001  1.5947
  245bbb     C4 7115   4.546   7.130   4.314  0.0103  0.0465  0.0687
  245bbb     H7 7116   4.450   7.154   4.267  1.3408  1.8234 -1.9474
  245bbb     H8 7117   4.591   7.226   4.342  1.2521  0.5738 -3.2991
  245bbb     C5 7118   4.427   7.079   3.967  0.3430 -0.0406  0.4904
  245bbb     H9 7119   4.379   7.020   4.047 -2.2117  0.2775 -0.6952
  245bbb    H10 7120   4.487   7.009   3.908  0.4883 -0.6349  1.3301
  245bbb     C6 7121   4.781   7.206   3.879 -0.5318 -0.3252 -0.0199
  245bbb    H11 7122   4.746   7.306   3.908  0.7457  0.6636 -1.7137
  245bbb    H12 7123   4.718   7.180   3.793 -1.5600  1.2832  0.2075
  245bbb     C7 7124   4.524   7.043   4.436 -0.5601  0.2830 -0.4334
  245bbb    H13 7125   4.479   6.949   4.403 -1.7648 -0.1350  2.1132
  245bbb    H14 7126   4.453   7.085   4.509  2.2243 -0.7806  3.1820
  245bbb     C8 7127   4.922   7.226   3.822 -0.6788  1.0970  0.0745
  245bbb    H15 7128   4.991   7.254   3.903  1.0437  0.4099 -1.1006
  245bbb    H16 7129   4.937   7.305   3.748  1.5458  0.9662  0.3314
  245bbb     C9 7130   4.319   7.134   3.868  0.8652 -0.3845  0.1125
  245bbb    H17 7131   4.274   7.224   3.911 -1.6518 -1.9577  0.9853
  245bbb    H18 7132   4.364   7.179   3.778 -0.0973 -0.0115 -0.1921
  245bbb     O1 7133   4.655   7.008   4.495  0.7943  0.1089  0.1912
  246bbb     N1 7134   7.042   4.387   3.057  0.4512  1.0912  0.0126
  246bbb     C1 7135   7.104   4.258   3.111  0.1174  0.1132 -0.3461
  246bbb     H1 7136   7.174   4.284   3.191 -0.6587  1.8445 -0.1875
  246bbb     H2 7137   7.164   4.221   3.028  2.2891  1.4937  0.5207
  246bbb     C2 7138   7.134   4.495   3.028 -0.0351  0.1014  0.3692
  246bbb     H3 7139   7.189   4.518   3.120  2.4168  0.2154 -1.0313
  246bbb     H4 7140   7.074   4.581   2.996 -0.9138  0.0703  1.8862
  246bbb     C3 7141   6.926   4.434   3.137  0.3591  0.2893  0.7477
  246bbb     H5 7142   6.851   4.355   3.122  1.3851 -1.0772  2.4506
  246bbb     H6 7143   6.892   4.528   3.090  0.8036  0.1477  0.1325
  246bbb     C4 7144   6.945   4.472   3.288 -0.4502 -0.3638 -0.1902
  246bbb     H7 7145   6.997   4.566   3.311 -1.2759  0.1671 -0.4783
  246bbb     H8 7146   7.001   4.395   3.343 -0.9472  0.0129  0.8631
  246bbb     C5 7147   7.009   4.143   3.168 -0.4227 -0.0833 -0.4345
  246bbb     H9 7148   6.961   4.184   3.258 -0.4404  0.8152 -0.8345
  246bbb    H10 7149   7.073   4.070   3.219  1.1851  0.0040 -2.2289
  246bbb     C6 7150   7.247   4.458   2.927 -0.0798  0.2911  0.1113
  246bbb    H11 7151   7.314   4.383   2.970 -0.7342 -0.2188  0.2648
  246bbb    H12 7152   7.308   4.547   2.911 -0.2155  0.2528 -0.6522
  246bbb     C7 7153   6.810   4.490   3.350  0.3834 -0.3175 -0.1313
  246bbb    H13 7154   6.747   4.547   3.280 -1.5981 -1.6456  0.4991
  246bbb    H14 7155   6.811   4.546   3.444 -2.4171 -1.1760  0.5088
  246bbb     C8 7156   7.197   4.416   2.791  0.5890 -0.6345  0.5937
  246bbb    H15 7157   7.111   4.483   2.776  0.0408 -1.0865  1.5871
  246bbb    H16 7158   7.157   4.314   2.799  0.3600 -0.8263 -2.1483
  246bbb     C9 7159   6.911   4.079   3.070 -0.3988 -0.2219 -0.1058
  246bbb    H17 7160   6.903   4.156   2.993 -2.5326 -1.5375 -1.2838
  246bbb    H18 7161   6.815   4.061   3.119 -0.4291  0.2878  0.0250
  246bbb     O1 7162   6.757   4.356   3.370  0.6160 -0.3079  0.2227
  247bbb     N1 7163   6.119   3.660   3.235 -0.1456  0.0675 -0.0908
  247bbb     C1 7164   6.113   3.535   3.163 -0.3870  0.1327  0.1683
  247bbb     H1 7165   6.146   3.452   3.226  0.9595  1.4228  1.2202
  247bbb     H2 7166   6.192   3.533   3.086 -0.5012 -0.6465  0.0601
  247bbb     C2 7167   6.073   3.648   3.377 -0.5113 -0.7834 -0.1135
  247bbb     H3 7168   6.156   3.622   3.443 -0.8942 -1.5258  0.0803
  247bbb     H4 7169   6.001   3.566   3.377  0.9396 -2.1353  2.0794
  247bbb     C3 7170   6.236   3.746   3.220  0.2759 -0.2287 -1.0171
  247bbb     H5 7171   6.228   3.832   3.288  1.8121 -2.9670  3.0259
  247bbb     H6 7172   6.236   3.773   3.114 -1.9654 -0.8250 -1.2260
  247bbb     C4 7173   6.370   3.681   3.251 -0.7244  0.1203 -0.2273
  247bbb     H7 7174   6.392   3.586   3.201 -1.0173 -1.4818  2.5293
  247bbb     H8 7175   6.384   3.669   3.359  3.7321  0.4932 -0.5691
  247bbb     C5 7176   5.979   3.494   3.094  0.6124  0.2548 -0.1942
  247bbb     H9 7177   5.944   3.582   3.039  0.9236  0.7335  0.3649
  247bbb    H10 7178   5.900   3.476   3.169 -2.3261  1.1076 -2.8664
  247bbb     C6 7179   5.999   3.774   3.433 -0.1078 -0.0521  0.9761
  247bbb    H11 7180   5.938   3.810   3.349  0.2399 -0.4807  0.5373
  247bbb    H12 7181   6.075   3.851   3.450  1.2635 -0.3281 -2.8875
  247bbb     C7 7182   6.479   3.779   3.209  0.2305 -0.3479 -0.6161
  247bbb    H13 7183   6.457   3.875   3.258  1.6517 -0.8820  1.1789
  247bbb    H14 7184   6.476   3.787   3.100 -0.3209 -3.3132 -0.9157
  247bbb     C8 7185   5.907   3.751   3.555 -0.1576  0.5607 -0.5461
  247bbb    H15 7186   5.977   3.722   3.634 -0.3746  0.3892 -0.4133
  247bbb    H16 7187   5.836   3.671   3.527  1.7043 -1.0499 -0.8466
  247bbb     C9 7188   5.988   3.370   3.008  0.3252  0.2142  0.0999
  247bbb    H17 7189   5.893   3.348   2.957  0.1036 -0.7233  0.8752
  247bbb    H18 7190   5.989   3.278   3.069 -0.2844 -0.3351 -0.6982
  247bbb     O1 7191   6.608   3.724   3.248 -0.3765  0.0770  0.0353
  248bbb     N1 7192   6.151   2.321   4.866  0.3605 -0.1678  0.1817
  248bbb     C1 7193   6.209   2.199   4.922 -0.3639  0.4890  0.3641
  248bbb     H1 7194   6.151   2.112   4.889 -0.0381 -0.0694  1.2009
  248bbb     H2 7195   6.190   2.202   5.030 -1.2893  1.3491  0.1841
  248bbb     C2 7196   6.027   2.363   4.940  0.6903 -0.2849  0.1261
  248bbb     H3 7197   5.996   2.466   4.921 -0.4882 -0.3529  1.5553
  248bbb     H4 7198   6.032   2.349   5.048  0.3342  1.7183  0.4330
  248bbb     C3 7199   6.147   2.323   4.717  0.6195 -0.4423 -0.3840
  248bbb     H5 7200   6.075   2.246   4.688  1.1075 -0.9215 -0.3429
  248bbb     H6 7201   6.249   2.306   4.680  0.1829 -2.9684 -0.6003
  248bbb     C4 7202   6.128   2.466   4.656  0.0611  0.2640 -0.6966
  248bbb     H7 7203   6.188   2.540   4.710 -2.8610  2.5308 -0.3210
  248bbb     H8 7204   6.030   2.506   4.687  0.3138  0.4981 -0.1883
  248bbb     C5 7205   6.347   2.169   4.869  0.4072 -0.1242  0.2801
  248bbb     H9 7206   6.403   2.263   4.877  0.3795 -0.2381  2.1450
  248bbb    H10 7207   6.330   2.142   4.764 -1.7813 -0.7619  0.7521
  248bbb     C6 7208   5.903   2.273   4.902  0.5947 -0.5785  0.1300
  248bbb    H11 7209   5.921   2.174   4.944 -0.1711 -1.2720 -1.1173
  248bbb    H12 7210   5.892   2.267   4.793  0.1528 -0.6450  0.1748
  248bbb     C7 7211   6.140   2.469   4.500  0.9311 -0.2296 -0.0748
  248bbb    H13 7212   6.050   2.427   4.455  1.2896 -2.3282  1.0395
  248bbb    H14 7213   6.225   2.408   4.467  1.0164  0.1016 -0.4705
  248bbb     C8 7214   5.768   2.332   4.960 -0.2426  0.3202 -0.5492
  248bbb    H15 7215   5.686   2.263   4.936 -0.2495 -0.2841  1.0606
  248bbb    H16 7216   5.745   2.424   4.906  0.8274  0.1492 -1.3299
  248bbb     C9 7217   6.397   2.047   4.946  0.0682  0.2300  0.2527
  248bbb    H17 7218   6.321   1.968   4.935  0.4416 -0.6580  3.0865
  248bbb    H18 7219   6.391   2.058   5.055 -2.4751  0.3644  0.1781
  248bbb     O1 7220   6.146   2.606   4.454  0.1708  0.2395  0.3573
  249bbb     N1 7221   6.685   3.059   3.658  0.2700 -0.5690  0.6769
  249bbb     C1 7222   6.796   3.076   3.750 -0.4473 -0.2179 -0.0044
  249bbb     H1 7223   6.892   3.046   3.707 -0.9874  0.0765 -1.4963
  249bbb     H2 7224   6.782   3.011   3.837 -0.6846  1.4097  1.2280
  249bbb     C2 7225   6.680   3.142   3.528 -0.4959 -0.3292 -0.3991
  249bbb     H3 7226   6.663   3.244   3.564 -0.2427 -0.7201  0.8899
  249bbb     H4 7227   6.595   3.103   3.472  1.3830  0.1775 -3.9295
  249bbb     C3 7228   6.558   3.063   3.729 -0.1376  0.6764 -0.9237
  249bbb     H5 7229   6.527   3.166   3.749 -1.0356  0.0631  1.0749
  249bbb     H6 7230   6.570   3.015   3.827  1.6386 -1.9714 -2.3145
  249bbb     C4 7231   6.446   2.987   3.654 -0.2658 -0.6385 -0.7727
  249bbb     H7 7232   6.473   2.881   3.665  0.9398 -0.4640 -1.7801
  249bbb     H8 7233   6.434   3.021   3.550 -0.6952  1.1795 -0.1718
  249bbb     C5 7234   6.813   3.216   3.816 -0.3813  0.2975  0.2100
  249bbb     H9 7235   6.718   3.239   3.866  0.5427 -0.1632  2.2853
  249bbb    H10 7236   6.827   3.300   3.747  0.2466 -0.6670 -0.8622
  249bbb     C6 7237   6.805   3.119   3.439 -0.5017 -0.2485  0.4491
  249bbb    H11 7238   6.890   3.172   3.483 -0.2068  0.1618 -0.5959
  249bbb    H12 7239   6.790   3.175   3.346  1.2488  0.7072  0.6886
  249bbb     C7 7240   6.309   3.013   3.723  0.4063  0.6933 -0.1211
  249bbb    H13 7241   6.235   2.971   3.653 -1.1476 -0.1828  1.9327
  249bbb    H14 7242   6.291   3.121   3.726 -1.0111  0.4721  2.4464
  249bbb     C8 7243   6.844   2.972   3.411 -0.4941  0.5602  0.2061
  249bbb    H15 7244   6.828   2.918   3.505  1.7688 -1.8361 -0.6298
  249bbb    H16 7245   6.952   2.977   3.393 -0.6706  2.8381 -0.4844
  249bbb     C9 7246   6.925   3.213   3.922 -0.3984  0.0776  0.3141
  249bbb    H17 7247   7.023   3.226   3.875  0.0555 -0.6722  1.0134
  249bbb    H18 7248   6.923   3.110   3.963  0.2131 -0.7023 -1.5303
  249bbb     O1 7249   6.307   2.944   3.853 -0.2327  0.1054 -0.0359
  250bbb     N1 7250   8.249   5.423   4.918 -0.1612  0.2383  0.2749
  250bbb     C1 7251   8.187   5.546   4.876  0.4233 -0.7638  0.1664
  250bbb     H1 7252   8.128   5.582   4.961 -0.3143  1.1253 -1.0645
  250bbb     H2 7253   8.120   5.536   4.790  0.1767  0.9166  0.1266
  250bbb     C2 7254   8.161   5.336   5.002  0.6011  0.3814 -0.4914
  250bbb     H3 7255   8.110   5.402   5.073 -1.3474 -0.5387 -0.9621
  250bbb     H4 7256   8.217   5.259   5.058 -0.1232 -0.5876 -1.0548
  250bbb     C3 7257   8.311   5.341   4.812  0.3186 -0.0019  0.0481
  250bbb     H5 7258   8.377   5.394   4.742 -1.0475 -1.0651 -2.1633
  250bbb     H6 7259   8.238   5.294   4.744  0.7608 -0.4759 -0.1019
  250bbb     C4 7260   8.402   5.220   4.866 -0.0533 -0.0771 -0.2233
  250bbb     H7 7261   8.347   5.146   4.926 -0.5693 -1.1951 -1.9823
  250bbb     H8 7262   8.473   5.256   4.941 -0.5304  1.5445 -0.5161
  250bbb     C5 7263   8.286   5.659   4.842  0.6512 -0.6827  0.1725
  250bbb     H9 7264   8.368   5.638   4.771  1.5383  0.3441  0.8588
  250bbb    H10 7265   8.343   5.698   4.927 -0.9931  0.1090  0.9453
  250bbb     C6 7266   8.035   5.270   4.920  0.2704 -0.3483 -0.9122
  250bbb    H11 7267   8.060   5.178   4.865 -1.9498 -0.2585 -2.2256
  250bbb    H12 7268   8.006   5.340   4.841 -1.2572  0.0748 -0.0360
  250bbb     C7 7269   8.474   5.144   4.757  0.0023  0.2028  0.0334
  250bbb    H13 7270   8.506   5.046   4.795 -2.4286 -0.3628  0.8128
  250bbb    H14 7271   8.560   5.207   4.732 -0.6836  2.3324  2.5399
  250bbb     C8 7272   7.915   5.249   5.008 -0.0371  0.2363 -0.7467
  250bbb    H15 7273   7.903   5.332   5.078  1.0688 -0.5662  0.4407
  250bbb    H16 7274   7.935   5.158   5.067 -3.2678  0.5115  1.0301
  250bbb     C9 7275   8.213   5.777   4.781  0.3741 -0.2709  0.1555
  250bbb    H17 7276   8.136   5.805   4.854 -0.0730 -3.0037  0.8179
  250bbb    H18 7277   8.161   5.753   4.687 -1.7496 -0.2628  1.2605
  250bbb     O1 7278   8.380   5.135   4.645 -0.1178 -0.0988 -0.6186
  251bbb     N1 7279   8.269   4.048   4.702 -0.0474 -0.0471  0.6758
  251bbb     C1 7280   8.399   4.021   4.764 -0.1833  0.1086  0.3281
  251bbb     H1 7281   8.418   3.915   4.784 -0.2040  0.0190 -0.1295
  251bbb     H2 7282   8.402   4.078   4.858 -2.4992  1.4931 -0.3614
  251bbb     C2 7283   8.261   3.961   4.582 -0.3424  0.4661 -0.0892
  251bbb     H3 7284   8.282   3.857   4.612  1.3998  0.2215 -1.9397
  251bbb     H4 7285   8.330   3.995   4.504 -0.1267 -0.0064 -0.1059
  251bbb     C3 7286   8.236   4.191   4.678  0.0064  0.0631 -0.3549
  251bbb     H5 7287   8.146   4.194   4.616  1.1108  0.2169 -2.0001
  251bbb     H6 7288   8.314   4.255   4.635  0.2095  1.1696  1.5662
  251bbb     C4 7289   8.190   4.266   4.803 -0.2065  0.3177  0.0309
  251bbb     H7 7290   8.265   4.245   4.881 -0.8290 -1.5760  0.1546
  251bbb     H8 7291   8.093   4.225   4.830 -0.2352  0.4651  0.1524
  251bbb     C5 7292   8.529   4.063   4.684  0.2330 -0.6130  0.2840
  251bbb     H9 7293   8.487   4.153   4.637 -1.9234 -1.5828  0.2219
  251bbb    H10 7294   8.532   3.991   4.601 -0.8037 -0.5221  0.1501
  251bbb     C6 7295   8.121   3.939   4.520  0.3171 -0.1744  0.3981
  251bbb    H11 7296   8.087   4.037   4.484 -1.5670 -0.5983  0.9228
  251bbb    H12 7297   8.059   3.898   4.600  0.3323 -2.3070 -0.6231
  251bbb     C7 7298   8.168   4.415   4.780 -0.1955  0.8918 -0.0781
  251bbb    H13 7299   8.150   4.463   4.877 -1.7604  0.6603 -0.2367
  251bbb    H14 7300   8.087   4.429   4.708 -2.0093  0.3819  1.7818
  251bbb     C8 7301   8.113   3.854   4.390  0.2983  0.0749 -0.2413
  251bbb    H15 7302   8.169   3.761   4.404 -1.4297 -0.6144  2.9221
  251bbb    H16 7303   8.158   3.917   4.311  0.7463 -0.3488 -0.3239
  251bbb     C9 7304   8.665   4.069   4.760 -0.5383  0.1420 -0.1360
  251bbb    H17 7305   8.665   4.020   4.859  0.6596  0.7819  0.1947
  251bbb    H18 7306   8.672   4.175   4.787 -1.7833  0.3783 -0.6675
  251bbb     O1 7307   8.296   4.467   4.730 -0.0726 -0.1883  0.2733
  252bbb     N1 7308   6.854   4.494   5.567 -0.0221 -0.1642 -0.1028
  252bbb     C1 7309   6.789   4.515   5.699  0.0824  0.9288 -0.2498
  252bbb     H1 7310   6.836   4.446   5.770 -3.1534  0.2127  1.3895
  252bbb     H2 7311   6.685   4.481   5.694  0.5419 -0.7362  0.6918
  252bbb     C2 7312   6.781   4.562   5.458 -0.5989  0.1853  0.6631
  252bbb     H3 7313   6.773   4.668   5.485 -0.2923 -0.1047  1.9484
  252bbb     H4 7314   6.686   4.510   5.443 -1.1900  1.1920  0.8024
  252bbb     C3 7315   6.996   4.529   5.576 -0.6169  0.2801 -0.3046
  252bbb     H5 7316   7.001   4.638   5.569  1.4593  0.1487 -1.9146
  252bbb     H6 7317   7.044   4.492   5.484 -0.5759  2.5585 -1.2595
  252bbb     C4 7318   7.080   4.458   5.690  0.1045  0.4215  0.6336
  252bbb     H7 7319   7.059   4.351   5.697 -2.7841  0.9348  0.8213
  252bbb     H8 7320   7.066   4.509   5.786 -2.9411 -0.0552  0.5365
  252bbb     C5 7321   6.793   4.661   5.763 -0.4065 -0.0561 -0.4745
  252bbb     H9 7322   6.756   4.729   5.685  1.0029  0.4146 -0.7607
  252bbb    H10 7323   6.896   4.696   5.778 -0.6997  1.1766 -1.2167
  252bbb     C6 7324   6.853   4.555   5.323 -0.0240  0.1806  0.2315
  252bbb    H11 7325   6.871   4.448   5.309 -2.2183 -0.1619 -0.3337
  252bbb    H12 7326   6.947   4.613   5.317  0.5584 -0.8111 -0.6811
  252bbb     C7 7327   7.230   4.473   5.656 -0.2854 -0.2193  0.2291
  252bbb    H13 7328   7.237   4.414   5.564  0.6594  2.1553 -1.3096
  252bbb    H14 7329   7.302   4.436   5.730  3.2726  0.3077 -2.6667
  252bbb     C8 7330   6.759   4.604   5.209  0.1993 -0.1439 -0.2546
  252bbb    H15 7331   6.817   4.612   5.117  1.7083  0.3329  0.7015
  252bbb    H16 7332   6.727   4.706   5.233  1.3276  0.0464  0.5302
  252bbb     C9 7333   6.708   4.676   5.897 -0.5047 -0.1209  0.1881
  252bbb    H17 7334   6.706   4.778   5.936 -1.9982 -1.2101  3.4015
  252bbb    H18 7335   6.768   4.624   5.973 -0.2562  0.4867  0.4104
  252bbb     O1 7336   7.257   4.613   5.636 -0.3102  0.1756 -0.4958
  253bbb     N1 7337   8.221   4.791   5.087  0.5287 -0.5324  0.2081
  253bbb     C1 7338   8.136   4.909   5.119 -0.3897  0.3056 -0.5086
  253bbb     H1 7339   8.042   4.890   5.065 -0.8414  1.2785 -0.0806
  253bbb     H2 7340   8.185   5.001   5.085  0.8535 -0.0176  0.3729
  253bbb     C2 7341   8.371   4.821   5.099  0.1771  0.0203  0.6574
  253bbb     H3 7342   8.410   4.827   5.201  0.8222  2.2423  0.3454
  253bbb     H4 7343   8.406   4.920   5.067 -0.7276  0.4914  1.1005
  253bbb     C3 7344   8.174   4.651   5.125  0.3077 -0.1036  0.2294
  253bbb     H5 7345   8.198   4.633   5.230  4.3684 -0.8125 -0.6725
  253bbb     H6 7346   8.235   4.583   5.065  2.2546  1.4132  0.4049
  253bbb     C4 7347   8.028   4.626   5.095 -0.6989  0.3041 -0.4263
  253bbb     H7 7348   8.008   4.644   4.988 -2.9379  0.3873 -0.0566
  253bbb     H8 7349   7.966   4.699   5.149 -1.3141  0.1331 -0.8786
  253bbb     C5 7350   8.124   4.921   5.274  0.2711  0.3002  0.0501
  253bbb     H9 7351   8.224   4.907   5.319  2.0652 -0.1222 -3.7120
  253bbb    H10 7352   8.063   4.836   5.306 -0.7847  0.0138 -2.4954
  253bbb     C6 7353   8.451   4.712   5.019  0.1990  0.5707  0.0861
  253bbb    H11 7354   8.521   4.768   4.955 -0.7393  1.1809 -0.4187
  253bbb    H12 7355   8.387   4.657   4.949  0.3331 -1.0142  1.1581
  253bbb     C7 7356   7.985   4.481   5.122  0.2416 -0.4066 -0.0308
  253bbb    H13 7357   7.992   4.460   5.229  1.4962 -0.3302 -0.0873
  253bbb    H14 7358   8.041   4.402   5.070  1.6103  1.2739 -1.2167
  253bbb     C8 7359   8.519   4.603   5.105  0.6792  0.1250 -0.4841
  253bbb    H15 7360   8.559   4.525   5.039 -0.5688 -2.1629  1.3079
  253bbb    H16 7361   8.434   4.558   5.158  0.7999  1.2724  0.7329
  253bbb     C9 7362   8.055   5.046   5.332  0.1967 -0.5156 -0.1090
  253bbb    H17 7363   8.028   5.037   5.438 -3.0709 -0.5028 -0.8190
  253bbb    H18 7364   7.958   5.063   5.284  0.5136 -0.5855 -0.7783
  253bbb     O1 7365   7.845   4.490   5.091 -0.0732  0.0890 -0.0500
  254ccc     C1 7366   2.649   4.364   3.466 -0.0766 -1.0728  0.2413
  254ccc     C2 7367   2.623   4.282   3.598  0.5886 -0.8263 -0.3503
  254ccc     H1 7368   2.576   4.334   3.389 -0.4850  0.6319 -0.0834
  254ccc     H2 7369   2.518   4.294   3.630  0.3389  1.5597 -1.8080
  254ccc     C3 7370   2.639   4.131   3.576 -0.4339 -0.4294  0.0938
  254ccc     C4 7371   2.773   4.096   3.502  0.2763  0.1803 -0.1984
  254ccc     C5 7372   2.798   4.192   3.376  0.4010 -0.3831 -0.3695
  254ccc     H3 7373   2.860   4.108   3.568  0.1799 -1.0416  0.1567
  254ccc     H4 7374   2.556   4.106   3.509  0.5979 -1.6702 -0.7431
  254ccc     H5 7375   2.728   4.165   3.296  0.6742  0.2230 -0.8240
  254ccc     O1 7376   2.928   4.179   3.313 -0.2666  0.0151  0.7515
  254ccc     O2 7377   2.766   3.960   3.449 -0.4371  0.1421  0.5175
  254ccc     O3 7378   2.629   4.055   3.704  0.1373 -0.3789 -0.1226
  254ccc     O4 7379   2.710   4.326   3.698 -0.0267 -0.1071  0.2104
  254ccc     C6 7380   2.641   4.522   3.476 -0.5493 -0.1840  0.3145
  254ccc     H6 7381   2.562   3.986   3.696 -1.7787  1.3756 -0.0575
  254ccc     H7 7382   2.736   4.416   3.672  3.5448 -1.0565 -0.0590
  254ccc     H8 7383   2.855   3.964   3.409 -0.3299 -2.0755  0.4212
  254ccc     H9 7384   2.540   4.550   3.508 -0.7693  1.1531 -1.4242
  254ccc    H10 7385   2.660   4.561   3.375 -0.2984  0.0192  0.4388
  254ccc     O5 7386   2.731   4.576   3.572  0.5205  0.0303 -0.3642
  254ccc    H11 7387   2.817   4.570   3.527  1.3997 -0.0420  1.2415
  254ccc     O6 7388   2.778   4.327   3.415  0.3910 -0.4091 -0.0665
  255ccc     C1 7389   3.121   3.207   3.083 -1.0008  0.4461  0.2228
  255ccc     C2 7390   3.237   3.113   3.121 -0.5790 -0.0044 -0.1135
  255ccc     H1 7391   3.095   3.178   2.981 -0.8458 -0.5619  0.4525
  255ccc     H2 7392   3.219   3.009   3.094 -3.9806 -0.1390  2.0172
  255ccc     C3 7393   3.369   3.153   3.053 -0.3301 -0.2416 -0.8110
  255ccc     C4 7394   3.403   3.303   3.072  0.3123  0.1987 -0.0518
  255ccc     C5 7395   3.289   3.394   3.032  0.0554 -1.0086  0.4591
  255ccc     H3 7396   3.413   3.316   3.180 -2.2279  0.1350  0.2455
  255ccc     H4 7397   3.364   3.132   2.946  1.9546 -1.2068 -0.7746
  255ccc     H5 7398   3.287   3.386   2.923 -2.6304 -0.5779  0.4129
  255ccc     O1 7399   3.316   3.535   3.070  0.0158  0.3671 -0.0452
  255ccc     O2 7400   3.525   3.332   3.011 -0.1825 -0.1583  0.4784
  255ccc     O3 7401   3.470   3.065   3.098 -0.2986  0.0333  0.4427
  255ccc     O4 7402   3.244   3.124   3.265  0.0656 -0.3870 -0.0597
  255ccc     C6 7403   2.977   3.189   3.150 -0.2514  0.2419  0.0168
  255ccc     H6 7404   3.543   3.062   3.033 -1.6177  0.9947 -1.1659
  255ccc     H7 7405   3.151   3.147   3.285  0.5086 -0.2263  2.0826
  255ccc     H8 7406   3.601   3.287   3.052  1.2228 -0.5116 -2.2953
  255ccc     H9 7407   2.933   3.104   3.096  1.1033 -0.6672  0.3020
  255ccc    H10 7408   2.916   3.280   3.140  0.1176  0.2624 -2.9568
  255ccc     O5 7409   2.987   3.171   3.285 -0.1133 -0.3138  0.1696
  255ccc    H11 7410   2.895   3.194   3.309 -0.6372 -0.9883 -1.0884
  255ccc     O6 7411   3.160   3.350   3.092 -0.3207 -0.0634  0.4331
  256ccc     C1 7412   3.494   3.666   1.637  0.6466 -0.6486 -0.1520
  256ccc     C2 7413   3.362   3.586   1.654 -0.1701  0.1538  0.5466
  256ccc     H1 7414   3.571   3.606   1.687  0.8147  0.0238  0.4239
  256ccc     H2 7415   3.370   3.492   1.598 -0.3967  1.1570 -1.2548
  256ccc     C3 7416   3.320   3.575   1.802  0.0541 -0.1834 -0.0478
  256ccc     C4 7417   3.316   3.715   1.862  0.1843 -0.2497 -0.6880
  256ccc     C5 7418   3.451   3.779   1.842 -0.3407 -0.8108  0.2273
  256ccc     H3 7419   3.248   3.777   1.801  1.4803  0.7504 -1.1667
  256ccc     H4 7420   3.391   3.525   1.870 -2.1151 -0.0493  2.5046
  256ccc     H5 7421   3.522   3.713   1.894  1.1965 -0.2317 -1.0491
  256ccc     O1 7422   3.458   3.924   1.893  0.3276  0.9108  0.0976
  256ccc     O2 7423   3.279   3.706   2.000  0.0242 -0.8227  0.2017
  256ccc     O3 7424   3.186   3.515   1.811 -0.1384 -0.0790 -0.4776
  256ccc     O4 7425   3.269   3.669   1.579  0.0128  0.1591  0.6010
  256ccc     C6 7426   3.550   3.688   1.495  0.2393 -0.1985 -0.2885
  256ccc     H6 7427   3.200   3.421   1.833 -0.2002 -0.6628 -2.7107
  256ccc     H7 7428   3.324   3.713   1.512  0.2867 -0.3312  0.4925
  256ccc     H8 7429   3.184   3.690   2.010 -0.0434  0.6658  2.9305
  256ccc     H9 7430   3.581   3.597   1.442  1.1353  0.8173 -1.5721
  256ccc    H10 7431   3.637   3.755   1.499 -1.2755  1.8390  0.7916
  256ccc     O5 7432   3.456   3.747   1.408  0.0472 -0.0930 -0.3759
  256ccc    H11 7433   3.503   3.754   1.323 -2.1912 -1.3336 -1.7955
  256ccc     O6 7434   3.484   3.795   1.700  0.2971 -0.3126 -0.0913
  257ccc     C1 7435   2.964   4.137   2.381  0.0288 -0.1462  0.2964
  257ccc     C2 7436   2.888   4.084   2.503  0.4745 -0.1263  0.1298
  257ccc     H1 7437   2.916   4.087   2.296 -0.4530 -0.3009  0.6561
  257ccc     H2 7438   2.784   4.110   2.479  0.9556 -0.9085 -3.3949
  257ccc     C3 7439   2.898   3.932   2.509  0.3620 -0.4087 -0.3394
  257ccc     C4 7440   3.041   3.883   2.506 -0.1484  0.2537  0.7486
  257ccc     C5 7441   3.123   3.952   2.388 -0.2091 -0.3570 -0.5380
  257ccc     H3 7442   3.095   3.897   2.601  0.6298 -2.6882  0.8324
  257ccc     H4 7443   2.840   3.892   2.425  1.0867 -1.1173 -0.5152
  257ccc     H5 7444   3.077   3.923   2.293 -3.2772  1.7378  0.1389
  257ccc     O1 7445   3.260   3.912   2.399 -0.2795 -0.0659 -0.3365
  257ccc     O2 7446   3.032   3.743   2.467  0.2082  0.7486 -0.2068
  257ccc     O3 7447   2.826   3.895   2.629  0.6072 -0.1761 -0.0277
  257ccc     O4 7448   2.942   4.152   2.612 -0.3016  0.1319 -0.4718
  257ccc     C6 7449   2.952   4.290   2.357 -0.1818  0.1767  0.3059
  257ccc     H6 7450   2.889   3.916   2.701 -0.4819  1.1395  0.5745
  257ccc     H7 7451   2.977   4.228   2.562 -0.9836 -0.8654 -2.5835
  257ccc     H8 7452   3.002   3.734   2.374 -0.9003 -0.1442  0.2098
  257ccc     H9 7453   2.848   4.316   2.332 -0.1663 -1.0885 -1.2532
  257ccc    H10 7454   3.005   4.295   2.261  0.4623 -3.4386  0.3132
  257ccc     O5 7455   3.003   4.358   2.469  0.3450 -0.2440 -0.1933
  257ccc    H11 7456   3.036   4.442   2.433 -1.5036  0.5123 -0.2297
  257ccc     O6 7457   3.101   4.096   2.378 -0.0706 -0.3114  0.1161
  258ccc     C1 7458   3.231   5.969   2.641  0.3974  0.0662 -0.1178
  258ccc     C2 7459   3.380   5.981   2.643 -0.4443 -0.3964 -0.0818
  258ccc     H1 7460   3.197   6.059   2.694 -2.3954 -0.0009 -1.6185
  258ccc     H2 7461   3.414   6.080   2.609 -1.3828  0.5345  1.5896
  258ccc     C3 7462   3.432   5.978   2.785 -0.0954 -0.1129  0.1245
  258ccc     C4 7463   3.369   5.861   2.864 -0.4376  0.1400  0.4031
  258ccc     C5 7464   3.214   5.840   2.842 -0.4042  0.0473  0.4918
  258ccc     H3 7465   3.424   5.772   2.829  0.9552  1.4725 -0.9538
  258ccc     H4 7466   3.393   6.064   2.840  1.6540 -0.3772  1.9127
  258ccc     H5 7467   3.156   5.918   2.893 -0.9968 -1.1073  1.6399
  258ccc     O1 7468   3.182   5.713   2.899  0.0252 -0.2211  0.2914
  258ccc     O2 7469   3.399   5.879   3.001 -0.1373 -0.0616  0.1946
  258ccc     O3 7470   3.581   5.975   2.788 -0.0200 -0.3349 -0.2861
  258ccc     O4 7471   3.433   5.877   2.565 -0.7186 -0.4211 -0.1774
  258ccc     C6 7472   3.166   5.973   2.508 -0.0210  0.0127  0.4055
  258ccc     H6 7473   3.599   6.052   2.845 -2.0682  0.2207 -0.3187
  258ccc     H7 7474   3.369   5.804   2.558  1.8827 -2.7745 -2.5259
  258ccc     H8 7475   3.451   5.798   3.015 -0.7933 -0.4166  0.6318
  258ccc     H9 7476   3.197   5.890   2.445  1.1480  0.6530  0.1167
  258ccc    H10 7477   3.205   6.066   2.464 -0.9090 -0.1423 -0.7594
  258ccc     O5 7478   3.020   5.982   2.531 -0.7119  0.0578  0.4056
  258ccc    H11 7479   2.994   5.890   2.512  3.5934 -1.8011  2.2031
  258ccc     O6 7480   3.181   5.848   2.706 -0.4877  0.1876  0.1484
  259ccc     C1 7481   2.237   5.279   2.840 -0.4963  0.4441 -0.5515
  259ccc     C2 7482   2.172   5.193   2.955  0.6199 -0.1418  0.8410
  259ccc     H1 7483   2.230   5.218   2.749 -1.3239 -0.1336 -0.1105
  259ccc     H2 7484   2.065   5.178   2.937  0.1061  2.1347  1.6472
  259ccc     C3 7485   2.239   5.057   2.978 -0.6204  0.3462  0.3104
  259ccc     C4 7486   2.389   5.067   2.994  0.1602 -0.5403  0.1282
  259ccc     C5 7487   2.452   5.153   2.880  0.7802  0.4137 -0.5712
  259ccc     H3 7488   2.402   5.112   3.093  0.2016 -1.8381  0.7340
  259ccc     H4 7489   2.232   4.994   2.889  4.3560 -0.8608  0.4700
  259ccc     H5 7490   2.447   5.103   2.783 -0.6640  2.3483 -1.5684
  259ccc     O1 7491   2.588   5.186   2.912 -0.7501 -0.6775 -0.1656
  259ccc     O2 7492   2.451   4.936   2.992 -0.3069 -0.5413 -0.0377
  259ccc     O3 7493   2.169   4.986   3.083  0.4966  0.1522  0.4848
  259ccc     O4 7494   2.189   5.259   3.076  0.2180  0.2765 -0.5560
  259ccc     C6 7495   2.188   5.425   2.823  0.0622  0.3692  0.3385
  259ccc     H6 7496   2.180   4.891   3.065  0.9879  0.2737  0.1194
  259ccc     H7 7497   2.192   5.352   3.048  0.4784  0.9357  1.5018
  259ccc     H8 7498   2.436   4.913   3.085 -0.4488  1.6650  0.5459
  259ccc     H9 7499   2.083   5.423   2.792  0.8003  1.7691 -2.6752
  259ccc    H10 7500   2.243   5.474   2.742  0.6108 -0.6909  0.0424
  259ccc     O5 7501   2.199   5.480   2.952  1.0366 -0.3575  0.2660
  259ccc    H11 7502   2.160   5.568   2.940 -2.9126 -2.1505 -2.3078
  259ccc     O6 7503   2.379   5.286   2.871 -0.0850  0.1985 -0.0592
  260ccc     C1 7504   3.358   6.465   1.274 -0.0560 -0.0128  0.1065
  260ccc     C2 7505   3.428   6.451   1.145 -0.0139 -0.8828  0.3214
  260ccc     H1 7506   3.416   6.533   1.339 -1.0177 -1.1060  2.2045
  260ccc     H2 7507   3.433   6.552   1.101 -3.9624 -0.7949 -0.3517
  260ccc     C3 7508   3.564   6.385   1.174 -0.6052  0.2960 -0.3016
  260ccc     C4 7509   3.543   6.238   1.231  0.3935  0.5271  0.2992
  260ccc     C5 7510   3.453   6.245   1.353  0.2296  0.5649  0.1074
  260ccc     H3 7511   3.478   6.184   1.161 -0.7338 -0.4321  2.0009
  260ccc     H4 7512   3.616   6.439   1.254  0.9636  0.0989 -1.1655
  260ccc     H5 7513   3.524   6.293   1.421  1.1379  0.8868 -1.0398
  260ccc     O1 7514   3.410   6.112   1.389 -0.1181  0.1210 -0.0402
  260ccc     O2 7515   3.670   6.176   1.254 -0.1044  0.6645 -0.1266
  260ccc     O3 7516   3.657   6.375   1.063  0.1034  0.4393 -0.3621
  260ccc     O4 7517   3.353   6.375   1.053 -0.9855  0.4573  0.0148
  260ccc     C6 7518   3.217   6.527   1.266  0.8252  0.2339 -0.1019
  260ccc     H6 7519   3.748   6.357   1.092  0.9917  3.5796 -0.8837
  260ccc     H7 7520   3.412   6.375   0.976  0.4657  2.7388  1.0221
  260ccc     H8 7521   3.697   6.153   1.163 -0.6891 -0.4216 -0.0368
  260ccc     H9 7522   3.153   6.453   1.217 -0.3405  0.8497  0.4642
  260ccc    H10 7523   3.219   6.619   1.207 -0.6736  0.8172  0.7176
  260ccc     O5 7524   3.162   6.556   1.398 -0.3111 -0.2355  0.4450
  260ccc    H11 7525   3.095   6.625   1.382  1.6753  1.6951 -0.2045
  260ccc     O6 7526   3.339   6.335   1.337 -0.8038  0.4071 -0.1956
  261ccc     C1 7527   2.508   5.644   1.959 -0.5258 -0.4574  0.0366
  261ccc     C2 7528   2.496   5.529   2.054 -0.6228  0.1050  0.2834
  261ccc     H1 7529   2.435   5.622   1.880  0.3175 -1.3359 -0.5282
  261ccc     H2 7530   2.393   5.493   2.050 -0.2190 -1.0348 -0.2487
  261ccc     C3 7531   2.577   5.402   2.009  0.2513 -0.4498 -1.0915
  261ccc     C4 7532   2.714   5.432   1.942  0.3916 -0.0197 -0.3484
  261ccc     C5 7533   2.693   5.546   1.839  0.4547 -0.0914 -0.4651
  261ccc     H3 7534   2.784   5.465   2.021 -0.0359  2.3135 -0.8563
  261ccc     H4 7535   2.516   5.344   1.940 -2.1911 -1.0456  1.3743
  261ccc     H5 7536   2.622   5.512   1.763  0.8864  0.6599 -1.2259
  261ccc     O1 7537   2.818   5.573   1.773 -0.1191  0.4502 -0.1238
  261ccc     O2 7538   2.760   5.316   1.869  0.0134  0.0636 -0.1750
  261ccc     O3 7539   2.600   5.319   2.124 -0.0172 -0.1898  0.3795
  261ccc     O4 7540   2.529   5.561   2.187  0.2158  0.0505 -0.1169
  261ccc     C6 7541   2.463   5.777   2.018 -1.2284  0.0339 -0.1841
  261ccc     H6 7542   2.574   5.231   2.092  0.0801  0.5655 -1.9992
  261ccc     H7 7543   2.568   5.474   2.208  1.2593  0.5594  0.1415
  261ccc     H8 7544   2.855   5.335   1.858  0.0196 -1.2151 -3.4775
  261ccc     H9 7545   2.516   5.799   2.112  0.0399  0.1681 -0.9171
  261ccc    H10 7546   2.359   5.769   2.053 -1.2548 -0.1260 -0.2973
  261ccc     O5 7547   2.485   5.880   1.920 -0.0316 -0.6834  0.2843
  261ccc    H11 7548   2.399   5.923   1.934  0.4952  0.2039  0.8947
  261ccc     O6 7549   2.642   5.657   1.909 -0.1169  0.3372 -0.1155
  262ccc     C1 7550   5.030   2.235   2.540 -0.3090  0.3032 -0.0540
  262ccc     C2 7551   5.167   2.247   2.480 -0.9763  0.4425 -0.6584
  262ccc     H1 7552   4.963   2.231   2.453  0.5350 -1.7642 -0.6731
  262ccc     H2 7553   5.173   2.158   2.416 -0.9151  0.9553 -1.3777
  262ccc     C3 7554   5.188   2.378   2.399  0.9605 -0.3734  0.3063
  262ccc     C4 7555   5.141   2.508   2.475  1.1157  0.4400  0.2821
  262ccc     C5 7556   5.006   2.481   2.547 -0.0768  0.7442 -0.3629
  262ccc     H3 7557   5.214   2.529   2.555 -0.4069  0.3388  1.7517
  262ccc     H4 7558   5.117   2.380   2.315  0.1701 -0.7967  0.9475
  262ccc     H5 7559   4.929   2.477   2.470 -1.5656  0.8160  1.0730
  262ccc     O1 7560   4.987   2.594   2.639  0.0121 -0.1900  0.1183
  262ccc     O2 7561   5.131   2.614   2.373  0.3419 -0.0189  0.5576
  262ccc     O3 7562   5.324   2.376   2.346 -0.1320  0.3393  0.2425
  262ccc     O4 7563   5.261   2.250   2.599 -0.1700  0.2360 -0.1909
  262ccc     C6 7564   5.012   2.112   2.627  1.0036 -0.1319 -0.0946
  262ccc     H6 7565   5.350   2.466   2.319 -0.0329  0.5911  1.1227
  262ccc     H7 7566   5.352   2.251   2.566 -0.0736 -1.6451 -0.1174
  262ccc     H8 7567   5.166   2.699   2.406 -2.7808  1.5310  0.1935
  262ccc     H9 7568   5.065   2.131   2.722  0.9986  0.3255 -0.1802
  262ccc    H10 7569   5.048   2.020   2.581 -0.4647 -0.8970  0.2367
  262ccc     O5 7570   4.872   2.092   2.646  0.0037 -0.5935 -0.1262
  262ccc    H11 7571   4.849   2.028   2.576  0.2357  0.4253 -1.1481
  262ccc     O6 7572   5.002   2.352   2.623  0.1586  0.5481 -0.4080
  263ccc     C1 7573   4.908   2.916   3.354 -0.3119 -0.3840  0.0510
  263ccc     C2 7574   4.948   2.798   3.442  0.4404  0.6605 -0.0059
  263ccc     H1 7575   4.879   2.991   3.428 -0.1540 -0.0833 -0.1894
  263ccc     H2 7576   5.019   2.825   3.521 -2.1346  0.8257  2.3914
  263ccc     C3 7577   4.826   2.741   3.513 -0.9169  0.1075 -0.0554
  263ccc     C4 7578   4.707   2.711   3.415  0.1890  0.5672  0.4382
  263ccc     C5 7579   4.673   2.836   3.320 -0.2866  0.0114 -0.9485
  263ccc     H3 7580   4.742   2.627   3.352  1.6939 -0.5008  2.5724
  263ccc     H4 7581   4.791   2.829   3.569  1.2064  0.8375  0.1877
  263ccc     H5 7582   4.620   2.917   3.370  1.0371  1.0917 -1.2345
  263ccc     O1 7583   4.590   2.781   3.209  0.1986 -0.6365 -0.5024
  263ccc     O2 7584   4.588   2.661   3.482  0.1550  0.0802  0.4860
  263ccc     O3 7585   4.863   2.634   3.606 -0.3991 -0.1950  0.4591
  263ccc     O4 7586   5.011   2.703   3.362 -0.5311  0.1032 -0.0475
  263ccc     C6 7587   5.022   2.968   3.273 -0.2011 -0.5929 -0.0783
  263ccc     H6 7588   4.851   2.547   3.565 -0.0036  0.5073 -1.1932
  263ccc     H7 7589   5.065   2.658   3.429 -2.9953 -1.3222  1.1226
  263ccc     H8 7590   4.572   2.580   3.431 -0.0633 -0.3888  1.2795
  263ccc     H9 7591   5.054   2.903   3.190  1.0245  1.9862 -1.7686
  263ccc    H10 7592   5.105   2.985   3.343 -0.3097  0.1731 -0.1346
  263ccc     O5 7593   4.986   3.097   3.224 -0.3688 -0.3538 -0.0806
  263ccc    H11 7594   4.923   3.124   3.293 -1.7092 -0.9254 -1.0434
  263ccc     O6 7595   4.799   2.881   3.264 -0.1925 -0.0386  0.1681
  264ccc     C1 7596   3.640   3.097   2.542 -0.2947  0.1076 -0.1026
  264ccc     C2 7597   3.696   3.106   2.682  0.4740  0.2175  0.5531
  264ccc     H1 7598   3.531   3.107   2.552 -0.1761 -0.0956  1.6111
  264ccc     H2 7599   3.664   3.204   2.718  0.5715  0.2527  0.5451
  264ccc     C3 7600   3.625   3.004   2.774 -0.0779  0.3609 -0.2489
  264ccc     C4 7601   3.654   2.866   2.715  0.2363  0.1886 -0.1004
  264ccc     C5 7602   3.631   2.844   2.566 -0.6165 -0.4241  0.5403
  264ccc     H3 7603   3.763   2.857   2.725  0.1303 -0.0639  0.9686
  264ccc     H4 7604   3.518   3.027   2.773 -0.5586 -1.6575  0.0034
  264ccc     H5 7605   3.525   2.829   2.543 -0.8338  1.2203  0.3095
  264ccc     O1 7606   3.711   2.734   2.519  0.0436  0.4962  0.1815
  264ccc     O2 7607   3.583   2.774   2.802  0.7204 -0.3050 -0.5492
  264ccc     O3 7608   3.663   3.027   2.916 -0.1952  0.3246 -0.4018
  264ccc     O4 7609   3.839   3.098   2.679  0.0804  0.7169 -0.0485
  264ccc     C6 7610   3.698   3.210   2.447  0.0782  0.1481  0.3002
  264ccc     H6 7611   3.737   2.967   2.937 -0.8172 -0.4067 -0.2774
  264ccc     H7 7612   3.875   3.144   2.757 -1.6461  0.2718  1.0501
  264ccc     H8 7613   3.645   2.700   2.816  0.4350 -0.2608  1.1869
  264ccc     H9 7614   3.662   3.306   2.487 -0.6693  0.0578 -0.1256
  264ccc    H10 7615   3.662   3.223   2.345 -0.7395  2.7251  0.8444
  264ccc     O5 7616   3.841   3.203   2.445  0.0809 -0.1516  0.5461
  264ccc    H11 7617   3.862   3.165   2.532  0.2654  0.1300  0.6262
  264ccc     O6 7618   3.676   2.965   2.493  0.2172  0.3824 -0.4138
  265ccc     C1 7619   3.516   2.619   1.416  0.0175  0.1217 -0.1947
  265ccc     C2 7620   3.643   2.594   1.323  0.4253  0.0179  0.0264
  265ccc     H1 7621   3.453   2.686   1.357 -0.7232 -1.5055 -1.3406
  265ccc     H2 7622   3.610   2.585   1.218 -1.4592 -0.8116  0.6475
  265ccc     C3 7623   3.751   2.703   1.329 -0.8241 -0.2783 -1.3140
  265ccc     C4 7624   3.778   2.755   1.473  0.4211 -0.1858  0.4466
  265ccc     C5 7625   3.644   2.776   1.550 -0.1687  0.1718  0.3755
  265ccc     H3 7626   3.836   2.680   1.529  1.2817  0.3735  0.3158
  265ccc     H4 7627   3.708   2.788   1.274  3.2852  2.2503 -1.0403
  265ccc     H5 7628   3.587   2.862   1.514 -0.0674  0.1285  0.1122
  265ccc     O1 7629   3.675   2.804   1.690 -0.3886  0.7355 -0.5670
  265ccc     O2 7630   3.843   2.881   1.456  0.8597 -0.7385 -0.9893
  265ccc     O3 7631   3.868   2.660   1.256 -0.0818  0.0160  0.0049
  265ccc     O4 7632   3.703   2.467   1.364 -0.5865 -0.1543 -0.1336
  265ccc     C6 7633   3.425   2.493   1.428 -0.6162 -0.5173  0.0007
  265ccc     H6 7634   3.939   2.725   1.267  1.0295 -1.3747  1.8935
  265ccc     H7 7635   3.794   2.502   1.360  0.1653 -2.0473 -0.5160
  265ccc     H8 7636   3.872   2.905   1.546  0.4132  0.7513 -1.2170
  265ccc     H9 7637   3.472   2.414   1.488 -0.2580  0.2232  0.7174
  265ccc    H10 7638   3.394   2.463   1.327  1.0908  1.9156 -1.3534
  265ccc     O5 7639   3.311   2.544   1.493  0.6213 -0.0526 -0.4374
  265ccc    H11 7640   3.361   2.597   1.557  1.9464 -1.4203 -0.2794
  265ccc     O6 7641   3.555   2.660   1.550 -0.0107 -0.3305  0.0403
  266ccc     C1 7642   4.284   5.525   3.623  0.5808 -0.5332  0.0897
  266ccc     C2 7643   4.169   5.573   3.711  0.5890  0.1077  0.3471
  266ccc     H1 7644   4.242   5.493   3.526 -0.8995  2.6456 -0.4360
  266ccc     H2 7645   4.113   5.657   3.668  0.9787  0.7162  0.9966
  266ccc     C3 7646   4.069   5.454   3.723  0.7290 -0.1804 -0.3150
  266ccc     C4 7647   4.139   5.333   3.788 -0.0427 -0.2922  0.2346
  266ccc     C5 7648   4.261   5.296   3.700  0.4311  0.2116 -0.9980
  266ccc     H3 7649   4.171   5.364   3.888  2.9084 -1.0934 -0.3692
  266ccc     H4 7650   4.040   5.430   3.620  1.9124 -0.7902 -0.5285
  266ccc     H5 7651   4.230   5.256   3.603 -1.0035 -0.4258 -0.3045
  266ccc     O1 7652   4.342   5.194   3.768  0.1741  0.4376 -0.3433
  266ccc     O2 7653   4.030   5.229   3.794 -0.2701  0.0071  0.5130
  266ccc     O3 7654   3.951   5.495   3.790  0.3627 -0.1970 -0.0420
  266ccc     O4 7655   4.231   5.605   3.837 -0.6469 -0.3583  0.1900
  266ccc     C6 7656   4.392   5.626   3.596  0.0366 -0.0208 -0.6850
  266ccc     H6 7657   3.907   5.411   3.812 -0.0756  0.3503  1.2826
  266ccc     H7 7658   4.177   5.673   3.881 -0.1244  0.7782 -0.8756
  266ccc     H8 7659   3.972   5.256   3.867  0.9771 -0.4199  1.7156
  266ccc     H9 7660   4.353   5.707   3.533 -1.7921 -0.5287 -0.2798
  266ccc    H10 7661   4.479   5.591   3.539  0.0414 -0.9083 -0.1601
  266ccc     O5 7662   4.445   5.676   3.716  0.2876  0.2223 -0.3908
  266ccc    H11 7663   4.367   5.654   3.769 -0.2670 -1.1323 -1.6894
  266ccc     O6 7664   4.353   5.411   3.678  0.4689  0.1649  0.3191
  267ccc     C1 7665   4.707   5.379   4.490  0.4971  0.6540  0.3182
  267ccc     C2 7666   4.575   5.448   4.480 -0.5769 -0.3874 -0.6849
  267ccc     H1 7667   4.793   5.446   4.500  3.4015 -3.0037  2.6396
  267ccc     H2 7668   4.564   5.521   4.561 -5.2108 -0.4370 -0.9914
  267ccc     C3 7669   4.562   5.528   4.346  0.1521  0.3403  0.1776
  267ccc     C4 7670   4.597   5.428   4.230  0.1785  0.1486 -0.0632
  267ccc     C5 7671   4.734   5.350   4.253  0.4570 -0.7278  0.6905
  267ccc     H3 7672   4.517   5.353   4.225 -1.1839  1.5477  0.1300
  267ccc     H4 7673   4.642   5.602   4.338  0.2277  0.3431  0.9670
  267ccc     H5 7674   4.815   5.423   4.256  1.0135 -1.3204  0.3805
  267ccc     O1 7675   4.761   5.254   4.139  0.2171  0.1756 -0.1739
  267ccc     O2 7676   4.610   5.510   4.109 -0.6196  0.1404  0.1971
  267ccc     O3 7677   4.425   5.585   4.338 -0.0401 -0.4125 -0.1877
  267ccc     O4 7678   4.470   5.361   4.489  0.3518 -0.1796  1.2638
  267ccc     C6 7679   4.729   5.301   4.621 -0.5051  0.0132  0.2022
  267ccc     H6 7680   4.439   5.627   4.252 -0.8442 -0.6328 -0.4279
  267ccc     H7 7681   4.495   5.292   4.554  1.9323 -0.4896  0.3967
  267ccc     H8 7682   4.555   5.468   4.040  0.9445  0.5348 -1.3871
  267ccc     H9 7683   4.727   5.379   4.698  1.7768 -0.1674  0.5125
  267ccc    H10 7684   4.822   5.243   4.625 -1.7938 -2.1180  2.0381
  267ccc     O5 7685   4.627   5.204   4.641 -0.2668 -0.0188 -0.8150
  267ccc    H11 7686   4.655   5.157   4.721  1.3392  1.5824 -0.3820
  267ccc     O6 7687   4.719   5.288   4.375  0.4871 -0.0882 -0.2823
  268ccc     C1 7688   3.966   4.475   3.290 -0.4949  0.3988 -0.0198
  268ccc     C2 7689   3.835   4.455   3.209  0.7556  0.2508  0.9203
  268ccc     H1 7690   4.050   4.435   3.233  0.6220  1.2382  0.9912
  268ccc     H2 7691   3.859   4.484   3.106 -1.9598  0.2706  0.2112
  268ccc     C3 7692   3.793   4.306   3.208 -0.1141 -0.0230  0.2613
  268ccc     C4 7693   3.814   4.230   3.345 -0.3022  0.3042 -0.0583
  268ccc     C5 7694   3.942   4.275   3.404  0.0582  0.7984 -0.7129
  268ccc     H3 7695   3.730   4.274   3.400  0.0354  0.0445  0.6756
  268ccc     H4 7696   3.866   4.256   3.142 -0.1354  1.2676 -0.7596
  268ccc     H5 7697   4.013   4.244   3.326 -0.5615 -2.2501 -0.1958
  268ccc     O1 7698   3.964   4.213   3.534 -0.0050 -0.2895 -0.3387
  268ccc     O2 7699   3.805   4.090   3.323 -0.0959  0.1487  0.6376
  268ccc     O3 7700   3.664   4.289   3.150  0.0109  0.0913 -0.4243
  268ccc     O4 7701   3.726   4.539   3.255  0.1069 -0.1061  0.4981
  268ccc     C6 7702   3.983   4.626   3.315 -0.0163 -0.3322  0.5180
  268ccc     H6 7703   3.677   4.274   3.055  1.1989  2.3665 -0.6955
  268ccc     H7 7704   3.648   4.519   3.200  0.9430  0.8208 -1.1207
  268ccc     H8 7705   3.798   4.051   3.412 -0.7586 -1.3057 -0.0117
  268ccc     H9 7706   3.898   4.659   3.376 -0.0788 -0.7014  0.6331
  268ccc    H10 7707   3.979   4.685   3.222 -1.7915  0.4368  1.0383
  268ccc     O5 7708   4.112   4.641   3.375  0.2291  0.1605 -0.1753
  268ccc    H11 7709   4.108   4.717   3.437 -1.0277 -0.3633  0.4044
  268ccc     O6 7710   3.938   4.417   3.414 -0.0070 -0.0827  0.2039
  269ccc     C1 7711   3.478   4.329   3.937  0.3362 -0.6461 -0.0701
  269ccc     C2 7712   3.406   4.228   3.847 -0.0283  0.0201  0.7615
  269ccc     H1 7713   3.524   4.398   3.866 -1.7702 -1.3818 -2.3039
  269ccc     H2 7714   3.351   4.284   3.771  0.8272 -0.2342 -0.0619
  269ccc     C3 7715   3.505   4.131   3.771 -0.4739  0.4807  0.3687
  269ccc     C4 7716   3.599   4.065   3.875  0.1258 -0.0986 -0.1356
  269ccc     C5 7717   3.665   4.171   3.960 -0.4804 -0.1772  0.1263
  269ccc     H3 7718   3.544   4.013   3.955 -2.5752  1.2961 -0.9559
  269ccc     H4 7719   3.569   4.193   3.707 -1.5362  1.4282  0.1909
  269ccc     H5 7720   3.740   4.220   3.898 -1.1992  0.3630 -0.3308
  269ccc     O1 7721   3.729   4.096   4.071  0.6366  0.0834 -0.7324
  269ccc     O2 7722   3.695   3.983   3.804 -0.1095  0.1916  0.5358
  269ccc     O3 7723   3.429   4.038   3.693  0.3437  0.0959  0.3491
  269ccc     O4 7724   3.314   4.150   3.919 -0.1733  0.3686  0.0191
  269ccc     C6 7725   3.374   4.410   4.006  0.3377 -0.0591 -0.4299
  269ccc     H6 7726   3.448   4.064   3.601 -0.4272 -0.3353  0.0556
  269ccc     H7 7727   3.294   4.088   3.847  0.0373  2.6906 -2.2269
  269ccc     H8 7728   3.699   3.910   3.868 -3.0559 -0.8787 -0.3708
  269ccc     H9 7729   3.329   4.355   4.089  0.5818 -0.5711 -0.6359
  269ccc    H10 7730   3.286   4.449   3.953 -1.5079 -1.2018  1.6553
  269ccc     O5 7731   3.444   4.534   4.049 -0.4819 -0.1535 -0.0376
  269ccc    H11 7732   3.480   4.514   4.137 -1.4972  0.4166  0.5127
  269ccc     O6 7733   3.563   4.256   4.026 -0.1149 -0.6057 -0.2543
  270ccc     C1 7734   5.842   4.120   0.940 -0.3564  0.0530 -0.3003
  270ccc     C2 7735   5.838   3.970   0.956  0.2311 -0.7282 -0.6420
  270ccc     H1 7736   5.781   4.162   1.021  0.5831  1.7280 -0.4197
  270ccc     H2 7737   5.869   3.946   1.059 -1.6058  1.1175  0.4141
  270ccc     C3 7738   5.686   3.916   0.931  0.6080  0.1195 -0.8477
  270ccc     C4 7739   5.637   3.959   0.793 -0.2641 -0.2587 -0.0326
  270ccc     C5 7740   5.663   4.108   0.772  0.2414  0.8375  0.5642
  270ccc     H3 7741   5.707   3.911   0.724 -0.4177 -2.5636  1.3205
  270ccc     H4 7742   5.619   3.968   1.000 -0.8463  1.1770 -2.9526
  270ccc     H5 7743   5.583   4.158   0.829  0.1323 -0.5356  1.6423
  270ccc     O1 7744   5.637   4.128   0.634  0.1340 -0.1007 -0.3706
  270ccc     O2 7745   5.511   3.895   0.762 -0.1337  0.1507 -0.8993
  270ccc     O3 7746   5.674   3.764   0.952 -0.0701  0.1408 -0.0840
  270ccc     O4 7747   5.925   3.897   0.870  0.2010 -0.1414 -0.2841
  270ccc     C6 7748   5.990   4.179   0.950  0.2635  0.3235 -0.6679
  270ccc     H6 7749   5.732   3.746   1.028 -1.6770 -1.3022  0.8739
  270ccc     H7 7750   5.987   3.970   0.853 -0.0040  0.0637 -0.1632
  270ccc     H8 7751   5.533   3.810   0.804 -3.5077 -0.9262 -1.0473
  270ccc     H9 7752   6.019   4.180   1.055 -1.6758 -3.9813  0.0982
  270ccc    H10 7753   5.977   4.285   0.924 -0.4145  0.4982  0.3290
  270ccc     O5 7754   6.081   4.107   0.868 -0.0414 -0.3453  0.2359
  270ccc    H11 7755   6.157   4.161   0.895 -1.4590  0.6331  2.5827
  270ccc     O6 7756   5.794   4.153   0.803 -0.1536  0.0943 -0.6745
  271ccc     C1 7757   5.498   4.502  -0.354 -0.8226  0.8592  0.3607
  271ccc     C2 7758   5.521   4.655  -0.316 -0.3784 -0.2794 -0.0937
  271ccc     H1 7759   5.412   4.489  -0.421 -0.0040  0.3022 -0.6133
  271ccc     H2 7760   5.527   4.720  -0.404  0.6055  0.7935  0.7283
  271ccc     C3 7761   5.405   4.705  -0.231  0.0023 -0.3547 -0.2255
  271ccc     C4 7762   5.352   4.608  -0.125 -0.1688 -0.8317 -0.4526
  271ccc     C5 7763   5.343   4.471  -0.180 -0.7171  0.7195  0.4214
  271ccc     H3 7764   5.422   4.606  -0.041 -2.3143  0.0009  1.4662
  271ccc     H4 7765   5.327   4.721  -0.307 -0.9686 -1.9157  0.3919
  271ccc     H5 7766   5.261   4.478  -0.253 -0.4347  2.6256  0.2522
  271ccc     O1 7767   5.305   4.373  -0.085  0.5755  0.1727  0.3090
  271ccc     O2 7768   5.226   4.668  -0.094 -0.2001 -0.0229  0.0457
  271ccc     O3 7769   5.444   4.826  -0.161  0.1280 -0.1753  0.3829
  271ccc     O4 7770   5.650   4.656  -0.251  0.0614  0.4392  0.0304
  271ccc     C6 7771   5.626   4.442  -0.435  0.0706 -0.4373 -0.0655
  271ccc     H6 7772   5.403   4.900  -0.209 -0.4718 -0.4330  0.4965
  271ccc     H7 7773   5.683   4.568  -0.276  0.1197  0.2009  0.9059
  271ccc     H8 7774   5.251   4.754  -0.056  3.5823 -0.3648 -1.2927
  271ccc     H9 7775   5.655   4.509  -0.517 -1.1841  0.8141  0.4701
  271ccc    H10 7776   5.618   4.342  -0.480  1.9763 -1.1599  1.0653
  271ccc     O5 7777   5.728   4.431  -0.338 -0.0004 -0.5545  0.2285
  271ccc    H11 7778   5.714   4.340  -0.304 -2.7564 -0.3304 -0.0703
  271ccc     O6 7779   5.470   4.422  -0.241  0.1980 -1.0822  0.3729
  272ccc     C1 7780   4.926   5.229   0.135 -0.3691  0.0741  0.0788
  272ccc     C2 7781   4.827   5.210   0.023  0.7473  0.1575 -0.2500
  272ccc     H1 7782   4.888   5.317   0.188 -2.5487 -0.7460  0.0064
  272ccc     H2 7783   4.729   5.220   0.072  1.6369  0.2735  1.5785
  272ccc     C3 7784   4.841   5.321  -0.084 -0.0391 -0.0307  0.2070
  272ccc     C4 7785   4.984   5.332  -0.131 -0.2635 -0.3055 -0.3211
  272ccc     C5 7786   5.081   5.347  -0.008  0.4770 -0.0286 -0.1566
  272ccc     H3 7787   5.005   5.239  -0.185 -4.4588 -0.3412 -2.2182
  272ccc     H4 7788   4.816   5.409  -0.024  1.1174  0.2298  0.3294
  272ccc     H5 7789   5.049   5.438   0.045 -1.2012 -0.8935  0.3726
  272ccc     O1 7790   5.224   5.351  -0.048  0.0087  0.3080  0.0067
  272ccc     O2 7791   4.986   5.438  -0.221  1.4683 -0.4085  0.0385
  272ccc     O3 7792   4.738   5.302  -0.186  0.9837  0.3028 -0.0689
  272ccc     O4 7793   4.851   5.084  -0.032  0.1027  0.3777  0.0726
  272ccc     C6 7794   4.931   5.115   0.243  0.4110  0.1798  0.2058
  272ccc     H6 7795   4.728   5.389  -0.227  1.0579 -0.0975 -0.9627
  272ccc     H7 7796   4.887   5.034   0.044 -1.5608  0.9102  1.2664
  272ccc     H8 7797   4.953   5.402  -0.305  0.6969 -2.1515  1.0536
  272ccc     H9 7798   4.840   5.111   0.303  1.4367 -1.0812  1.7284
  272ccc    H10 7799   5.007   5.140   0.318  0.7901 -0.8740  0.1795
  272ccc     O5 7800   4.964   4.987   0.185  0.3812  0.3015 -0.0371
  272ccc    H11 7801   5.012   4.949   0.261 -0.4974  0.1529  0.4640
  272ccc     O6 7802   5.062   5.248   0.090  0.4102  1.0317 -0.8716
  273ccc     C1 7803   5.381   6.129  -0.027 -0.3485  0.1822 -0.1882
  273ccc     C2 7804   5.236   6.180  -0.041  0.3526  0.3588  0.5510
  273ccc     H1 7805   5.447   6.188  -0.092 -0.0702 -0.1936 -0.2518
  273ccc     H2 7806   5.239   6.283  -0.003 -0.6748  0.5453  0.1425
  273ccc     C3 7807   5.194   6.184  -0.189 -0.5256  0.5943 -0.7065
  273ccc     C4 7808   5.206   6.034  -0.239  0.3716  0.5587  0.2735
  273ccc     C5 7809   5.344   5.963  -0.210  0.5072  0.0586 -0.8807
  273ccc     H3 7810   5.129   5.981  -0.182 -0.8279  1.3437 -0.5652
  273ccc     H4 7811   5.272   6.235  -0.248 -0.9471  2.3752  0.2141
  273ccc     H5 7812   5.412   6.013  -0.280  3.2758 -0.6309  1.1734
  273ccc     O1 7813   5.344   5.817  -0.238  0.0261 -0.4795  0.0670
  273ccc     O2 7814   5.184   6.037  -0.378 -0.0436  0.2832 -0.1082
  273ccc     O3 7815   5.063   6.242  -0.198 -0.2689  0.0253 -0.0987
  273ccc     O4 7816   5.158   6.091   0.034 -0.1074 -0.4633  0.1650
  273ccc     C6 7817   5.453   6.136   0.111 -0.3372 -0.8658 -0.2668
  273ccc     H6 7818   5.012   6.181  -0.254 -1.7569 -0.9783  2.2227
  273ccc     H7 7819   5.213   6.090   0.114 -0.2903 -0.4973  0.2903
  273ccc     H8 7820   5.156   5.947  -0.404  0.7217 -0.0883  0.3174
  273ccc     H9 7821   5.491   6.237   0.132  0.5906 -1.0445 -1.0194
  273ccc    H10 7822   5.549   6.084   0.104  0.2310  0.2816 -1.7057
  273ccc     O5 7823   5.367   6.085   0.205 -0.1008 -0.1257  0.2024
  273ccc    H11 7824   5.405   6.090   0.294 -0.5961 -1.1343  0.4730
  273ccc     O6 7825   5.397   5.992  -0.083 -0.2496  0.4130  0.4760
  274ccc     C1 7826   6.119   4.453   1.840  0.2173  0.3438 -0.1236
  274ccc     C2 7827   6.225   4.498   1.939  0.0537  0.3766  0.3628
  274ccc     H1 7828   6.162   4.407   1.750 -0.1584  2.0936 -1.2627
  274ccc     H2 7829   6.295   4.417   1.964  1.2439  0.9691 -0.8657
  274ccc     C3 7830   6.301   4.611   1.870 -0.0417 -0.0206  0.8122
  274ccc     C4 7831   6.212   4.725   1.827 -0.4469 -0.9477 -0.2870
  274ccc     C5 7832   6.096   4.674   1.737  0.2418 -0.0671  0.1555
  274ccc     H3 7833   6.175   4.762   1.923 -0.2997 -0.4611 -0.4161
  274ccc     H4 7834   6.339   4.578   1.773 -1.2832  2.9903 -0.8147
  274ccc     H5 7835   6.138   4.632   1.644 -0.6018 -3.5008  1.1641
  274ccc     O1 7836   5.992   4.773   1.721  0.2978 -0.3189  0.5886
  274ccc     O2 7837   6.298   4.818   1.757  0.1172 -0.1643  0.0614
  274ccc     O3 7838   6.411   4.659   1.945  0.0370  0.4056  0.5983
  274ccc     O4 7839   6.165   4.545   2.051  0.5486  0.7407 -0.6681
  274ccc     C6 7840   6.027   4.347   1.904 -0.6794 -0.2016  0.5136
  274ccc     H6 7841   6.373   4.701   2.024  1.5133 -0.0280  1.5799
  274ccc     H7 7842   6.070   4.527   2.042  0.4038  0.0057  1.6340
  274ccc     H8 7843   6.373   4.833   1.819 -0.0703 -2.6808  1.0172
  274ccc     H9 7844   6.092   4.274   1.956  1.0000  1.2526  0.5595
  274ccc    H10 7845   5.964   4.297   1.829  1.1915  1.0258 -2.0361
  274ccc     O5 7846   5.941   4.410   2.005 -0.3432 -0.5291  0.2427
  274ccc    H11 7847   5.859   4.413   1.952  0.1822  2.6478 -0.5769
  274ccc     O6 7848   6.030   4.561   1.803  0.1056  0.2413 -0.3338
  275ccc     C1 7849   6.270   5.670   1.179  0.0749 -0.2428  0.4979
  275ccc     C2 7850   6.410   5.657   1.244  0.1865 -0.1259  0.1523
  275ccc     H1 7851   6.223   5.760   1.222 -2.6246 -1.1362 -0.3959
  275ccc     H2 7852   6.475   5.736   1.206 -3.1266  2.9914  0.4920
  275ccc     C3 7853   6.402   5.670   1.399  0.1581 -0.3910 -0.6130
  275ccc     C4 7854   6.311   5.545   1.440  0.0410 -0.2471  0.6414
  275ccc     C5 7855   6.168   5.545   1.373 -0.1969  0.5982 -1.2557
  275ccc     H3 7856   6.354   5.451   1.402  0.8364  1.1310 -2.1678
  275ccc     H4 7857   6.347   5.763   1.418 -0.3465 -1.1263  1.9915
  275ccc     H5 7858   6.121   5.636   1.410  1.4202  0.3309  1.7861
  275ccc     O1 7859   6.094   5.427   1.419  0.3066 -0.5410  0.0880
  275ccc     O2 7860   6.307   5.538   1.583  0.0884 -0.2991 -0.1341
  275ccc     O3 7861   6.529   5.666   1.471 -0.6621  0.0276 -0.0098
  275ccc     O4 7862   6.455   5.528   1.210 -0.2559  0.4075 -0.2993
  275ccc     C6 7863   6.261   5.673   1.023 -0.4698 -0.3711  0.1028
  275ccc     H6 7864   6.593   5.611   1.423 -0.3994 -1.1312  1.6045
  275ccc     H7 7865   6.407   5.512   1.127  0.9733 -0.7905 -0.8419
  275ccc     H8 7866   6.244   5.471   1.616  0.7120 -0.5247  0.6094
  275ccc     H9 7867   6.288   5.773   0.986  0.2535 -0.9336 -0.9578
  275ccc    H10 7868   6.158   5.641   1.002  0.2316 -2.8971  0.1962
  275ccc     O5 7869   6.340   5.565   0.968  0.1611  0.1555 -0.2590
  275ccc    H11 7870   6.310   5.569   0.875  2.5587  2.9458 -1.0748
  275ccc     O6 7871   6.187   5.560   1.232  0.6865  0.0671  0.5760
  276ccc     C1 7872   5.218   5.370   0.935 -0.0359  0.3104 -0.0182
  276ccc     C2 7873   5.075   5.395   0.885 -0.4861  0.4261  0.2786
  276ccc     H1 7874   5.281   5.432   0.870  0.3882 -0.6000 -0.4918
  276ccc     H2 7875   5.063   5.504   0.879  3.8506  1.0732 -0.1643
  276ccc     C3 7876   5.047   5.330   0.744  0.2439  0.5893 -0.8227
  276ccc     C4 7877   5.103   5.182   0.738 -0.0400 -0.1267 -0.0172
  276ccc     C5 7878   5.252   5.172   0.796  0.3531  0.2358 -0.3863
  276ccc     H3 7879   5.043   5.119   0.804  3.9400 -3.7631  0.5342
  276ccc     H4 7880   5.108   5.384   0.671 -0.2288  1.8035 -0.3472
  276ccc     H5 7881   5.315   5.228   0.726 -0.1531  0.6473 -0.5228
  276ccc     O1 7882   5.301   5.034   0.800 -0.4878 -0.8520 -0.0342
  276ccc     O2 7883   5.098   5.134   0.599 -0.9291 -0.0306 -0.1275
  276ccc     O3 7884   4.904   5.340   0.713  0.1579  0.0975  0.1082
  276ccc     O4 7885   5.003   5.336   0.984 -0.3960 -0.2351 -0.2466
  276ccc     C6 7886   5.264   5.428   1.074 -0.7038  0.4674 -0.1472
  276ccc     H6 7887   4.857   5.371   0.793  1.1508  0.1775  0.6882
  276ccc     H7 7888   5.065   5.320   1.057 -1.7547 -0.9074  0.8111
  276ccc     H8 7889   5.016   5.173   0.565 -0.3106 -0.3344 -2.0477
  276ccc     H9 7890   5.229   5.531   1.090  1.4638  1.0350  1.3765
  276ccc    H10 7891   5.371   5.442   1.094 -1.0684  0.7437  1.8592
  276ccc     O5 7892   5.192   5.344   1.165  0.3602 -0.6487 -0.2622
  276ccc    H11 7893   5.243   5.376   1.241 -0.1250  3.2173 -1.3360
  276ccc     O6 7894   5.256   5.233   0.925 -0.1927 -0.1519 -0.0957
  277ccc     C1 7895   5.263   4.080   1.184  0.7213  0.4168  0.3948
  277ccc     C2 7896   5.183   3.940   1.055 -0.4507 -0.1433  0.0017
  277ccc     H1 7897   5.184   4.102   1.257  1.6081  0.2685  1.4361
  277ccc     H2 7898   5.085   3.905   1.089 -0.0183 -2.5269 -1.0379
  277ccc     C3 7899   5.170   3.984   0.849  0.6156 -0.4288 -0.0703
  277ccc     C4 7900   5.236   4.163   0.784 -0.4032 -0.3024  0.0807
  277ccc     C5 7901   5.316   4.298   0.923  0.4071  0.0506  0.4478
  277ccc     H3 7902   5.331   4.135   0.738  0.3896  0.5597  1.1292
  277ccc     H4 7903   5.064   3.994   0.822  0.9348 -0.3246 -1.3400
  277ccc     H5 7904   5.255   4.389   0.915  2.1002  1.2192  0.2753
  277ccc     O1 7905   5.448   4.341   0.875  0.3203  0.2880 -0.0717
  277ccc     O2 7906   5.133   4.217   0.695 -0.2398 -0.0905 -0.2347
  277ccc     O3 7907   5.229   3.878   0.766  0.4163 -0.7368 -0.2595
  277ccc     O4 7908   5.266   3.826   1.079  0.7162 -0.1326  0.0286
  277ccc     C6 7909   5.367   4.008   1.269 -0.3751 -0.1481 -0.4146
  277ccc     H6 7910   5.323   3.896   0.784 -0.3074  2.9615  0.7294
  277ccc     H7 7911   5.352   3.871   1.078  0.8959 -0.4111  1.0091
  277ccc     H8 7912   5.125   4.156   0.619  0.3564 -2.5027  1.5286
  277ccc     H9 7913   5.317   3.918   1.306 -2.7369  1.2569  0.0348
  277ccc    H10 7914   5.393   4.070   1.356 -1.0523  0.0754 -0.3618
  277ccc     O5 7915   5.462   3.989   1.179 -0.1186  0.2830 -0.5737
  277ccc    H11 7916   5.547   4.000   1.226 -0.5789  0.9656  0.1155
  277ccc     O6 7917   5.327   4.242   1.107  0.2986  0.0025 -0.0620
  278ccc     C1 7918   5.645   2.874   2.642 -0.2107  0.1304  0.0054
  278ccc     C2 7919   5.513   2.912   2.719  0.6758  0.0242  0.1815
  278ccc     H1 7920   5.701   2.812   2.712 -0.5131 -1.0108 -0.7342
  278ccc     H2 7921   5.481   2.822   2.774 -0.5633 -0.0286 -0.5908
  278ccc     C3 7922   5.535   3.023   2.816  0.1068 -0.7879  0.2209
  278ccc     C4 7923   5.610   3.143   2.758 -0.0192  0.0203  0.3212
  278ccc     C5 7924   5.734   3.098   2.678 -0.9527 -0.7252 -0.2490
  278ccc     H3 7925   5.549   3.184   2.677  1.8151  1.1096 -0.5635
  278ccc     H4 7926   5.599   2.978   2.893  0.6981  1.3230  1.0302
  278ccc     H5 7927   5.799   3.063   2.759  0.6413  2.4746 -0.0073
  278ccc     O1 7928   5.792   3.213   2.610 -0.6139  0.4479 -0.0363
  278ccc     O2 7929   5.648   3.237   2.869 -0.2292 -0.6120  0.4246
  278ccc     O3 7930   5.415   3.071   2.876 -0.0053  0.1227 -0.4422
  278ccc     O4 7931   5.408   2.944   2.635 -0.4631 -0.5586 -0.1822
  278ccc     C6 7932   5.620   2.755   2.541 -0.2754  0.1095 -0.3052
  278ccc     H6 7933   5.445   3.114   2.958  1.0784  1.2171 -1.3603
  278ccc     H7 7934   5.354   2.992   2.700  1.6629  0.1082  1.1584
  278ccc     H8 7935   5.709   3.182   2.922  1.2007 -0.6995 -1.2294
  278ccc     H9 7936   5.584   2.668   2.598 -2.9662  0.9184 -0.5855
  278ccc    H10 7937   5.714   2.721   2.496 -1.0213 -2.5657 -0.0031
  278ccc     O5 7938   5.527   2.809   2.444  0.7733  0.3488  0.9715
  278ccc    H11 7939   5.468   2.859   2.503 -0.0393 -0.3978  0.8155
  278ccc     O6 7940   5.711   2.988   2.588 -0.4686 -0.0060 -0.3318
  279ccc     C1 7941   5.877   4.308   2.435 -0.4619  0.4079  0.7809
  279ccc     C2 7942   5.942   4.343   2.574  0.1971  0.2414  0.7073
  279ccc     H1 7943   5.790   4.374   2.429 -0.7661  0.0021  0.7252
  279ccc     H2 7944   5.952   4.452   2.578 -1.9485  0.6606 -2.5194
  279ccc     C3 7945   5.848   4.296   2.688  0.4724  0.4620 -0.7354
  279ccc     C4 7946   5.804   4.147   2.670  0.5792  0.9709 -0.2031
  279ccc     C5 7947   5.751   4.117   2.530  0.1078  0.4737  0.5432
  279ccc     H3 7948   5.900   4.096   2.681  0.0311 -0.5579 -1.9049
  279ccc     H4 7949   5.758   4.357   2.676  1.1613  1.7697  0.4958
  279ccc     H5 7950   5.655   4.170   2.525  0.0033  0.1807 -2.5947
  279ccc     O1 7951   5.737   3.969   2.503  0.1591  0.2060  0.0103
  279ccc     O2 7952   5.710   4.109   2.769 -0.0933 -0.1966 -0.0306
  279ccc     O3 7953   5.915   4.321   2.811 -0.6101  0.0377 -0.2390
  279ccc     O4 7954   6.071   4.268   2.602 -0.3036 -0.2824 -0.1750
  279ccc     C6 7955   5.978   4.337   2.322  0.1834  0.0104 -0.7344
  279ccc     H6 7956   5.907   4.258   2.884 -0.2252  0.9536  0.6114
  279ccc     H7 7957   6.090   4.297   2.693  0.1123 -1.6172  0.1873
  279ccc     H8 7958   5.729   4.015   2.784 -1.4692 -0.4068  0.5875
  279ccc     H9 7959   6.016   4.440   2.329 -0.1226  0.1079 -0.5143
  279ccc    H10 7960   5.918   4.333   2.230 -0.7014  0.1272 -0.1695
  279ccc     O5 7961   6.087   4.248   2.333 -0.3168  0.8955  0.1788
  279ccc    H11 7962   6.091   4.228   2.428 -0.3880 -0.9487 -0.1641
  279ccc     O6 7963   5.843   4.164   2.428  0.3139 -0.1359 -0.7535
  280ccc     C1 7964   6.868   3.343   2.859  0.1261  0.4873 -0.8372
  280ccc     C2 7965   6.912   3.218   2.784 -0.4249  0.8707 -0.4166
  280ccc     H1 7966   6.815   3.308   2.948  1.4898 -0.1423 -0.2535
  280ccc     H2 7967   6.979   3.161   2.849 -1.3801  0.4421  0.2173
  280ccc     C3 7968   6.795   3.121   2.754  0.0377  0.7525 -0.0285
  280ccc     C4 7969   6.690   3.205   2.677  0.0724  0.2329  0.9845
  280ccc     C5 7970   6.651   3.337   2.754  0.3449 -0.3807 -0.1290
  280ccc     H3 7971   6.739   3.232   2.582 -1.3848 -2.9459 -0.8670
  280ccc     H4 7972   6.760   3.097   2.856 -1.3398 -1.4559 -0.9422
  280ccc     H5 7973   6.592   3.308   2.842 -2.2635 -0.9078 -1.9314
  280ccc     O1 7974   6.561   3.419   2.667 -0.4918 -0.2636 -0.4536
  280ccc     O2 7975   6.581   3.113   2.644  1.2032  0.2747 -0.0909
  280ccc     O3 7976   6.843   2.991   2.696  0.3873 -0.3013 -0.2458
  280ccc     O4 7977   6.969   3.253   2.657  0.7649 -0.3397  0.5157
  280ccc     C6 7978   6.992   3.430   2.892  0.4378 -0.1853  0.2556
  280ccc     H6 7979   6.900   2.957   2.768 -0.2705  1.3083  1.1186
  280ccc     H7 7980   7.016   3.171   2.636  0.0738 -0.4545 -0.6875
  280ccc     H8 7981   6.508   3.161   2.601  0.5942 -0.7563 -0.2447
  280ccc     H9 7982   7.041   3.475   2.804 -0.1335 -1.1312 -0.5602
  280ccc    H10 7983   7.077   3.373   2.931 -0.9559  0.1133  4.0770
  280ccc     O5 7984   6.952   3.528   2.994 -0.2699 -0.2230  0.8960
  280ccc    H11 7985   6.858   3.509   3.014 -0.3331  0.3878  1.1970
  280ccc     O6 7986   6.769   3.412   2.776 -0.5667 -1.0914 -0.4054
  281ccc     C1 7987   6.571   4.523   2.541  0.0338  0.2657  1.0535
  281ccc     C2 7988   6.476   4.612   2.456 -0.2509 -0.7316 -0.1035
  281ccc     H1 7989   6.665   4.510   2.486 -0.8443 -0.3571 -0.3395
  281ccc     H2 7990   6.529   4.707   2.438 -1.5664 -0.1636 -1.1133
  281ccc     C3 7991   6.435   4.539   2.329 -0.4238 -0.4099  0.0751
  281ccc     C4 7992   6.380   4.396   2.357 -0.6185  0.0473 -0.2819
  281ccc     C5 7993   6.481   4.314   2.442  0.2072  0.0139 -0.4823
  281ccc     H3 7994   6.288   4.407   2.415 -0.3327 -1.1254  0.4385
  281ccc     H4 7995   6.524   4.512   2.272 -0.5155 -0.9289  0.1722
  281ccc     H5 7996   6.570   4.297   2.379  1.4685 -1.1884  1.5319
  281ccc     O1 7997   6.411   4.196   2.495  0.3230  0.0077  0.5441
  281ccc     O2 7998   6.344   4.327   2.235  0.0797 -0.4691 -0.1289
  281ccc     O3 7999   6.354   4.622   2.236  0.3990 -0.4150 -0.3363
  281ccc     O4 8000   6.361   4.645   2.528 -0.0853  0.1577  0.0905
  281ccc     C6 8001   6.607   4.584   2.680 -0.0173 -0.3259  0.8950
  281ccc     H6 8002   6.311   4.555   2.180 -1.7362 -0.3203  1.0918
  281ccc     H7 8003   6.302   4.701   2.473 -0.2681  0.5849  0.7130
  281ccc     H8 8004   6.253   4.295   2.243  0.4588 -2.3131 -2.1683
  281ccc     H9 8005   6.644   4.686   2.672  1.7653 -0.7008  3.4000
  281ccc    H10 8006   6.682   4.525   2.733 -0.9725 -2.5207 -0.0528
  281ccc     O5 8007   6.495   4.574   2.762 -0.2047  0.5242 -0.4731
  281ccc    H11 8008   6.426   4.611   2.704 -0.0497  1.6543  0.0461
  281ccc     O6 8009   6.515   4.386   2.559  0.1060  0.2032  0.5933
  282ccc     C1 8010   4.102   3.245   1.599 -0.1047 -0.3510 -0.0915
  282ccc     C2 8011   4.007   3.122   1.621 -0.3114  0.5849  0.0046
  282ccc     H1 8012   4.159   3.228   1.507  1.4434  1.5505  0.4430
  282ccc     H2 8013   3.932   3.119   1.541 -0.5136  1.3208  0.1585
  282ccc     C3 8014   4.086   2.994   1.641  0.2198  0.5429 -0.5102
  282ccc     C4 8015   4.205   3.013   1.741  0.2205  0.5160  0.2679
  282ccc     C5 8016   4.281   3.152   1.726 -0.3190  0.0723  0.2334
  282ccc     H3 8017   4.169   3.006   1.845 -0.5474 -1.5973 -0.0854
  282ccc     H4 8018   4.115   2.963   1.540 -1.1673 -1.7345 -0.2722
  282ccc     H5 8019   4.337   3.149   1.632 -0.1256  1.0473  0.3081
  282ccc     O1 8020   4.376   3.176   1.838 -0.1842  0.0579  0.7445
  282ccc     O2 8021   4.302   2.909   1.709  0.1675  0.5791 -0.0378
  282ccc     O3 8022   3.995   2.889   1.687 -0.7292 -0.0888 -0.2868
  282ccc     O4 8023   3.933   3.139   1.736  0.3931  0.1740 -0.1193
  282ccc     C6 8024   4.029   3.373   1.576 -0.3425  0.5289  0.7449
  282ccc     H6 8025   4.032   2.811   1.642 -1.0553 -0.2262 -0.3224
  282ccc     H7 8026   3.930   3.044   1.757 -0.3188 -0.0569 -1.2038
  282ccc     H8 8027   4.302   2.847   1.784 -0.8667  2.1747  1.3568
  282ccc     H9 8028   4.009   3.391   1.469  1.2310 -2.7382 -0.2334
  282ccc    H10 8029   4.090   3.456   1.611 -1.1801  0.4274  2.5410
  282ccc     O5 8030   3.917   3.381   1.656  0.5139  0.0662 -0.7681
  282ccc    H11 8031   3.917   3.295   1.703  2.0020  0.6905  0.4721
  282ccc     O6 8032   4.181   3.262   1.717  0.4115 -0.1869  0.3734
  283ccc     C1 8033   4.937   2.958   2.760  0.0681  1.1053  0.4389
  283ccc     C2 8034   5.072   2.919   2.702  0.5052 -0.0945  0.0947
  283ccc     H1 8035   4.877   2.869   2.738 -0.4047  1.7937 -1.2557
  283ccc     H2 8036   5.090   2.823   2.752  0.7675 -0.4077 -0.5868
  283ccc     C3 8037   5.061   2.888   2.552  0.5206 -0.0439  0.3158
  283ccc     C4 8038   5.000   3.007   2.479  0.1884  0.3409  0.2348
  283ccc     C5 8039   4.862   3.050   2.544  0.0708  0.4879  1.1460
  283ccc     H3 8040   5.066   3.094   2.487  1.1362 -0.1679 -1.4951
  283ccc     H4 8041   4.989   2.806   2.541  1.6055 -0.8604 -1.3054
  283ccc     H5 8042   4.780   2.979   2.528  0.5645  0.4055 -1.4730
  283ccc     O1 8043   4.828   3.183   2.490 -0.5225 -0.2125 -0.4894
  283ccc     O2 8044   4.981   2.968   2.340  0.2448 -1.0064 -0.3166
  283ccc     O3 8045   5.180   2.845   2.489 -0.2019  0.0975 -0.5632
  283ccc     O4 8046   5.167   3.019   2.727 -0.3090 -0.3483  0.2158
  283ccc     C6 8047   4.940   2.980   2.916  0.3698 -0.5344 -0.1929
  283ccc     H6 8048   5.243   2.892   2.546  0.8651 -1.1245 -0.6920
  283ccc     H7 8049   5.142   3.046   2.817  0.9606  1.8423 -0.0156
  283ccc     H8 8050   5.061   2.919   2.318  1.8443  1.7512 -1.1558
  283ccc     H9 8051   4.947   2.885   2.971  1.3407 -0.4132 -0.0885
  283ccc    H10 8052   4.850   3.037   2.943  0.6990 -0.5367  0.9686
  283ccc     O5 8053   5.054   3.061   2.954  0.4370 -0.2867 -0.0338
  283ccc    H11 8054   5.036   3.076   3.049 -0.6264  0.7127 -0.3645
  283ccc     O6 8055   4.888   3.069   2.684  0.5977 -0.1795 -0.2723
  284ccc     C1 8056   6.403   2.481   2.780 -0.3015 -0.6493  0.1536
  284ccc     C2 8057   6.516   2.575   2.838  0.2066 -0.0677 -0.1473
  284ccc     H1 8058   6.461   2.417   2.713 -0.4764 -1.2739  0.5853
  284ccc     H2 8059   6.608   2.517   2.843  0.2295  0.0500  1.0287
  284ccc     C3 8060   6.540   2.690   2.731 -0.4515 -0.4381 -0.0097
  284ccc     C4 8061   6.414   2.748   2.660  0.0211 -0.3210  0.9309
  284ccc     C5 8062   6.330   2.628   2.604  0.2423 -0.7706  0.0107
  284ccc     H3 8063   6.350   2.791   2.739  0.2233  1.2727  0.2705
  284ccc     H4 8064   6.595   2.641   2.649 -0.5672  0.5606 -0.6980
  284ccc     H5 8065   6.374   2.577   2.518  1.0142  1.5369 -1.0625
  284ccc     O1 8066   6.214   2.687   2.556  0.6971 -0.1716 -0.0038
  284ccc     O2 8067   6.461   2.848   2.564  0.0286  0.0152  0.2074
  284ccc     O3 8068   6.621   2.799   2.786 -0.2023 -0.5726  0.2159
  284ccc     O4 8069   6.468   2.632   2.962 -0.3931  0.5552 -0.5938
  284ccc     C6 8070   6.340   2.386   2.879  0.3348  0.4883  0.2280
  284ccc     H6 8071   6.703   2.762   2.824  1.4400  0.9480 -1.6709
  284ccc     H7 8072   6.542   2.673   3.011  0.8268 -1.9693 -0.1947
  284ccc     H8 8073   6.439   2.819   2.473  0.1751  1.0850 -0.1876
  284ccc     H9 8074   6.252   2.424   2.933  1.2283  2.5477  0.3211
  284ccc    H10 8075   6.417   2.362   2.954 -0.5394  2.9874  2.0446
  284ccc     O5 8076   6.314   2.271   2.801 -0.1697  0.2767 -0.2772
  284ccc    H11 8077   6.291   2.201   2.865  1.6160 -0.9859 -0.9297
  284ccc     O6 8078   6.294   2.552   2.722 -0.1225  0.5120 -0.0478
  285ccc     C1 8079   5.412   2.484   1.850 -0.7864 -0.1881  0.0406
  285ccc     C2 8080   5.281   2.533   1.911 -0.0452  0.3903 -0.7608
  285ccc     H1 8081   5.434   2.383   1.887  0.1439 -0.0439 -0.0842
  285ccc     H2 8082   5.202   2.461   1.886  0.7582 -0.3572 -1.1834
  285ccc     C3 8083   5.292   2.529   2.060 -0.1133 -0.0820  0.0541
  285ccc     C4 8084   5.408   2.618   2.112  0.1871 -0.3883  0.0339
  285ccc     C5 8085   5.541   2.571   2.037  0.7876  0.1844 -0.3862
  285ccc     H3 8086   5.383   2.722   2.087 -1.4479 -0.2853  1.8820
  285ccc     H4 8087   5.305   2.425   2.091  0.3196 -0.8147 -2.3573
  285ccc     H5 8088   5.558   2.467   2.068  0.3103  0.4711  0.9173
  285ccc     O1 8089   5.640   2.676   2.064 -0.2932  0.6630  0.1322
  285ccc     O2 8090   5.423   2.601   2.256  0.4736  0.0635 -0.5548
  285ccc     O3 8091   5.165   2.575   2.107  0.0834 -0.0329 -0.3044
  285ccc     O4 8092   5.253   2.662   1.857 -0.1013 -0.1911 -0.5469
  285ccc     C6 8093   5.417   2.478   1.693 -0.6088 -0.0541  0.2787
  285ccc     H6 8094   5.169   2.586   2.203 -0.4689  1.5174 -0.4210
  285ccc     H7 8095   5.294   2.652   1.769  0.1795 -1.0787 -0.3267
  285ccc     H8 8096   5.476   2.669   2.301 -1.3225  0.0811  1.7133
  285ccc     H9 8097   5.343   2.401   1.668 -2.4165  1.0140  2.0669
  285ccc    H10 8098   5.522   2.455   1.669 -0.2516  1.2358  0.5185
  285ccc     O5 8099   5.387   2.602   1.636 -0.0676  0.8383 -0.3535
  285ccc    H11 8100   5.375   2.579   1.542  0.8366  0.1998 -0.3263
  285ccc     O6 8101   5.522   2.565   1.891  0.3097 -0.1426 -0.1017
  286ccc     C1 8102   5.601   8.683   1.719 -0.3200  0.4043 -0.4045
  286ccc     C2 8103   5.695   8.772   1.633 -0.0513  0.0681 -0.1916
  286ccc     H1 8104   5.659   8.638   1.801 -0.1812 -1.6467 -1.5788
  286ccc     H2 8105   5.729   8.849   1.703 -1.9189 -0.0777  0.9459
  286ccc     C3 8106   5.816   8.686   1.588 -0.9746 -0.3418 -0.3517
  286ccc     C4 8107   5.777   8.553   1.517  0.0908  0.0462 -0.1904
  286ccc     C5 8108   5.661   8.477   1.597  0.3788  0.4408  0.5569
  286ccc     H3 8109   5.733   8.590   1.424 -1.5422 -0.7104  0.2582
  286ccc     H4 8110   5.865   8.661   1.683 -0.6055  1.8316  0.0763
  286ccc     H5 8111   5.694   8.422   1.686 -1.8206 -3.1228 -0.5949
  286ccc     O1 8112   5.593   8.384   1.508  0.2706 -0.6869  0.1225
  286ccc     O2 8113   5.885   8.461   1.504 -0.1331  0.1640 -0.1713
  286ccc     O3 8114   5.906   8.769   1.513  0.3590  0.4711 -0.4191
  286ccc     O4 8115   5.618   8.830   1.519 -0.5982  0.4056  0.6123
  286ccc     C6 8116   5.483   8.763   1.780  0.0085 -0.2748 -0.4710
  286ccc     H6 8117   5.934   8.850   1.560  2.5288  0.2085 -1.1448
  286ccc     H7 8118   5.682   8.883   1.467 -0.5280 -0.5944 -0.3484
  286ccc     H8 8119   5.905   8.432   1.595  0.3465 -2.8216 -1.0937
  286ccc     H9 8120   5.511   8.855   1.831  1.1326 -1.5265  1.2980
  286ccc    H10 8121   5.434   8.696   1.852  1.7097 -0.4887  0.5414
  286ccc     O5 8122   5.398   8.803   1.669  0.6520  0.3114 -0.1730
  286ccc    H11 8123   5.471   8.801   1.605  1.7879 -1.2165  1.0794
  286ccc     O6 8124   5.556   8.572   1.637 -0.9301  0.2373 -0.3546
  287ccc     C1 8125   4.865   8.839   1.100 -0.4303  0.6272  0.5438
  287ccc     C2 8126   4.899   8.899   0.955  0.1487  0.4686 -0.4531
  287ccc     H1 8127   4.953   8.847   1.164  1.4952  0.2057 -1.9091
  287ccc     H2 8128   4.933   9.002   0.971  0.2758  0.4247 -0.4443
  287ccc     C3 8129   5.013   8.813   0.888 -0.8828  0.5844  0.1574
  287ccc     C4 8130   4.993   8.661   0.893  0.0058 -0.1672 -0.8688
  287ccc     C5 8131   4.950   8.615   1.034  0.1775  0.2178  0.1327
  287ccc     H3 8132   4.908   8.639   0.828  1.1080  1.3065 -2.9280
  287ccc     H4 8133   5.097   8.841   0.952 -0.4610  1.6235 -0.8090
  287ccc     H5 8134   5.033   8.613   1.105 -1.2301 -0.0414  1.8602
  287ccc     O1 8135   4.896   8.476   1.031 -0.1541  0.3161  0.1939
  287ccc     O2 8136   5.115   8.602   0.845 -0.5098 -0.0634 -0.0934
  287ccc     O3 8137   5.020   8.866   0.756  0.0661  0.0422  0.3506
  287ccc     O4 8138   4.776   8.891   0.891 -0.4138 -0.2513 -0.2349
  287ccc     C6 8139   4.743   8.913   1.167  0.2164  0.0575 -0.6431
  287ccc     H6 8140   5.074   8.947   0.764  0.9096 -0.0871 -2.8595
  287ccc     H7 8141   4.715   8.904   0.965  0.2296  0.8291  0.1366
  287ccc     H8 8142   5.138   8.653   0.765 -0.7967 -0.6828 -0.5690
  287ccc     H9 8143   4.747   9.022   1.175 -1.7772  0.3458 -2.6743
  287ccc    H10 8144   4.725   8.875   1.269 -0.9163  1.8505 -0.1151
  287ccc     O5 8145   4.624   8.889   1.095 -0.0766  0.2970 -0.4022
  287ccc    H11 8146   4.596   8.804   1.133  1.6176  1.0081  2.8085
  287ccc     O6 8147   4.844   8.698   1.084  0.1955 -0.0685  0.2814
  288ccc     C1 8148   6.080   8.208   0.468  0.3361  0.4720  0.0849
  288ccc     C2 8149   6.098   8.327   0.571 -0.4825  0.6944 -0.6832
  288ccc     H1 8150   6.017   8.248   0.387  2.3740 -0.5691 -2.1644
  288ccc     H2 8151   6.148   8.412   0.523  0.5774  0.0508 -0.7491
  288ccc     C3 8152   5.962   8.369   0.628  0.5944 -0.0599 -0.0704
  288ccc     C4 8153   5.876   8.255   0.694  0.2734 -0.6847  0.3683
  288ccc     C5 8154   5.862   8.149   0.577 -0.3422 -0.1578 -0.0063
  288ccc     H3 8155   5.939   8.218   0.775 -3.2093 -0.1465  3.6049
  288ccc     H4 8156   5.914   8.420   0.544 -0.1500 -0.9985 -0.2237
  288ccc     H5 8157   5.805   8.181   0.489  0.6400 -1.3584 -1.1101
  288ccc     O1 8158   5.790   8.038   0.629 -0.2094 -0.0273 -0.4281
  288ccc     O2 8159   5.756   8.318   0.750  0.1975 -0.3095 -0.3291
  288ccc     O3 8160   5.987   8.473   0.728  0.0601 -0.0997 -0.3477
  288ccc     O4 8161   6.172   8.275   0.679  0.2022 -0.2129  0.0681
  288ccc     C6 8162   6.216   8.152   0.423  0.8121 -0.4654  0.4162
  288ccc     H6 8163   5.903   8.505   0.765  0.2387  0.6521 -0.5714
  288ccc     H7 8164   6.220   8.197   0.646 -0.5575 -0.4058 -0.6230
  288ccc     H8 8165   5.713   8.245   0.797 -0.8067  1.1856  1.1699
  288ccc     H9 8166   6.277   8.232   0.377  1.2524 -1.8593 -1.5753
  288ccc    H10 8167   6.202   8.078   0.343  1.2857 -3.1090  2.6502
  288ccc     O5 8168   6.282   8.090   0.536  0.3785  0.4595  0.3395
  288ccc    H11 8169   6.346   8.045   0.477  0.2678  0.6725  0.0525
  288ccc     O6 8170   5.993   8.102   0.529  0.6262 -0.2679 -0.1845
  289ccc     C1 8171   5.109   7.297   0.149 -0.5879  0.1571 -0.2943
  289ccc     C2 8172   5.125   7.304  -0.007 -0.1190 -0.8757  0.0509
  289ccc     H1 8173   5.015   7.343   0.182  0.7209  1.8739  1.2477
  289ccc     H2 8174   5.042   7.252  -0.056  1.4800 -1.8083 -1.8110
  289ccc     C3 8175   5.123   7.445  -0.067 -0.6314  0.1781 -0.3676
  289ccc     C4 8176   5.226   7.534   0.008  0.1865 -0.4949  0.4893
  289ccc     C5 8177   5.210   7.531   0.160 -0.0302 -0.3408 -0.1888
  289ccc     H3 8178   5.321   7.480  -0.004 -0.6966 -2.0864  0.4130
  289ccc     H4 8179   5.025   7.487  -0.045  0.0806  1.8313 -0.1736
  289ccc     H5 8180   5.113   7.576   0.184  0.6465  1.4877 -0.7855
  289ccc     O1 8181   5.324   7.597   0.221  0.0677  0.5283  0.1701
  289ccc     O2 8182   5.216   7.675  -0.041  0.0318  0.4357  0.4508
  289ccc     O3 8183   5.146   7.437  -0.208  0.0108  0.6683  0.5139
  289ccc     O4 8184   5.246   7.244  -0.040 -0.3507 -0.0898 -1.1752
  289ccc     C6 8185   5.117   7.159   0.223  0.7915 -0.2986  0.2023
  289ccc     H6 8186   5.174   7.521  -0.248 -1.3911 -0.8041 -4.1454
  289ccc     H7 8187   5.280   7.256  -0.130  2.0075 -0.8716 -0.4719
  289ccc     H8 8188   5.120   7.693  -0.043 -0.1868 -0.6753  0.5084
  289ccc     H9 8189   5.035   7.092   0.197  1.2614 -1.3227  1.2844
  289ccc    H10 8190   5.109   7.181   0.330  3.0265 -1.5594  0.7056
  289ccc     O5 8191   5.234   7.098   0.189  0.2424 -0.1182  0.4731
  289ccc    H11 8192   5.243   7.139   0.101  0.7363 -0.0002  0.5729
  289ccc     O6 8193   5.212   7.387   0.203  0.1305  0.4537 -0.1713
  290ccc     C1 8194   7.215   8.113   3.113  0.4289  0.4831 -0.1034
  290ccc     C2 8195   7.259   8.257   3.112  0.0113 -0.4288  0.3949
  290ccc     H1 8196   7.306   8.053   3.107  1.1454  1.7231 -3.2502
  290ccc     H2 8197   7.333   8.286   3.188  0.1300  2.4431 -0.7022
  290ccc     C3 8198   7.321   8.297   2.975 -0.3583  0.0112 -0.0265
  290ccc     C4 8199   7.238   8.249   2.850 -0.4157 -0.0477 -0.4232
  290ccc     C5 8200   7.190   8.101   2.869  0.5060 -0.2081  0.0771
  290ccc     H3 8201   7.152   8.316   2.847  0.3735  1.1247  1.4504
  290ccc     H4 8202   7.413   8.237   2.973 -1.3799 -1.6125 -0.4924
  290ccc     H5 8203   7.281   8.039   2.868  1.3327  0.9686  0.5416
  290ccc     O1 8204   7.095   8.055   2.770  0.2514  0.1189 -0.3679
  290ccc     O2 8205   7.318   8.259   2.734  0.4543  0.5154 -0.1746
  290ccc     O3 8206   7.357   8.435   2.972 -1.0121 -0.0602  0.3582
  290ccc     O4 8207   7.145   8.332   3.133  0.3640 -0.6090 -0.8184
  290ccc     C6 8208   7.139   8.067   3.239 -0.3129 -0.3193  0.1566
  290ccc     H6 8209   7.294   8.488   3.023 -0.5631  1.3666 -0.5098
  290ccc     H7 8210   7.096   8.271   3.191  1.5488 -0.8672 -0.0568
  290ccc     H8 8211   7.400   8.215   2.762 -0.8312 -1.4555  0.7661
  290ccc     H9 8212   7.213   8.060   3.320 -0.2894  1.8384  0.3814
  290ccc    H10 8213   7.098   7.968   3.217  1.3230 -1.4589  1.9477
  290ccc     O5 8214   7.029   8.149   3.266 -0.2656  0.7080 -0.1211
  290ccc    H11 8215   6.981   8.105   3.338 -0.6334 -2.5304 -2.1730
  290ccc     O6 8216   7.129   8.080   2.999 -0.2839 -0.5812 -0.3701
  291ccc     C1 8217   7.360   8.304   2.318  0.1639 -0.8893 -0.0503
  291ccc     C2 8218   7.294   8.388   2.431 -0.8917  1.0186  0.9450
  291ccc     H1 8219   7.436   8.366   2.270 -0.4726 -0.2379 -0.2447
  291ccc     H2 8220   7.366   8.441   2.494  0.9697 -1.5005  1.1267
  291ccc     C3 8221   7.209   8.499   2.364  0.0476 -0.1469  0.3110
  291ccc     C4 8222   7.103   8.437   2.273  0.4014  0.0554 -0.5879
  291ccc     C5 8223   7.163   8.345   2.169 -0.5515  0.1654  0.2930
  291ccc     H3 8224   7.039   8.382   2.343  1.7476 -1.0943 -0.2283
  291ccc     H4 8225   7.276   8.557   2.298 -1.2090 -1.7430 -2.5475
  291ccc     H5 8226   7.198   8.411   2.089 -0.8290  1.5110  1.2385
  291ccc     O1 8227   7.048   8.276   2.109  0.4892 -0.4616 -0.5046
  291ccc     O2 8228   7.028   8.546   2.213  0.1773  0.9045  0.0531
  291ccc     O3 8229   7.164   8.591   2.460 -0.3059  0.2726 -0.2572
  291ccc     O4 8230   7.208   8.298   2.507  0.1163  0.2785 -0.5609
  291ccc     C6 8231   7.433   8.184   2.371 -0.0982  0.1379  0.5105
  291ccc     H6 8232   7.125   8.534   2.528  0.5949 -0.3025 -0.1981
  291ccc     H7 8233   7.253   8.277   2.590  0.0463 -2.4494 -1.1221
  291ccc     H8 8234   6.934   8.529   2.231  0.4182 -0.3307  0.2451
  291ccc     H9 8235   7.360   8.110   2.408 -0.3824  0.8251  1.3327
  291ccc    H10 8236   7.493   8.206   2.460  0.2182 -0.6124  0.4981
  291ccc     O5 8237   7.519   8.123   2.270  0.3029 -0.2881  0.2933
  291ccc    H11 8238   7.457   8.101   2.199  2.8128 -0.9826 -1.8306
  291ccc     O6 8239   7.264   8.251   2.225  0.3281 -0.3107  0.0147
  292ccc     C1 8240   6.332   6.477   1.735 -0.3933  0.3178  0.9135
  292ccc     C2 8241   6.231   6.400   1.644 -0.0890 -0.2565 -0.5547
  292ccc     H1 8242   6.278   6.559   1.783 -0.8395  0.0739  0.8328
  292ccc     H2 8243   6.143   6.377   1.705  0.0085  1.0650  0.1353
  292ccc     C3 8244   6.179   6.496   1.535 -0.3411  0.8946 -0.0168
  292ccc     C4 8245   6.304   6.554   1.452  0.5677  0.4328 -0.4471
  292ccc     C5 8246   6.408   6.619   1.551 -0.0461 -0.8058  0.7557
  292ccc     H3 8247   6.362   6.473   1.406 -1.6815 -0.4358 -1.9356
  292ccc     H4 8248   6.135   6.583   1.585  0.2600  2.2726 -1.7533
  292ccc     H5 8249   6.372   6.715   1.590  0.5932 -1.1624  2.3030
  292ccc     O1 8250   6.526   6.664   1.481  0.1386  0.8669 -0.0131
  292ccc     O2 8251   6.243   6.643   1.357  0.2441 -0.0599  0.0862
  292ccc     O3 8252   6.071   6.425   1.460  0.3773  0.1093 -0.6293
  292ccc     O4 8253   6.293   6.290   1.576 -0.1038 -0.5140  0.4284
  292ccc     C6 8254   6.387   6.389   1.849 -0.4339 -0.0599  0.9135
  292ccc     H6 8255   6.108   6.421   1.370  0.3444  0.8985 -0.6878
  292ccc     H7 8256   6.222   6.257   1.519 -0.1841  1.6365 -0.8119
  292ccc     H8 8257   6.197   6.709   1.413  0.6379 -1.0616  1.6548
  292ccc     H9 8258   6.309   6.338   1.907 -0.0902 -3.7401 -1.5850
  292ccc    H10 8259   6.435   6.461   1.917 -1.9549 -0.2542  2.2641
  292ccc     O5 8260   6.464   6.285   1.788 -0.1353  0.1724  0.0730
  292ccc    H11 8261   6.426   6.281   1.699  0.5100  1.3567 -0.2657
  292ccc     O6 8262   6.443   6.537   1.660  0.1855  0.6366  0.3169
  293ccc     C1 8263   7.608   6.376   1.458  0.4664 -0.4091  0.0533
  293ccc     C2 8264   7.622   6.230   1.499  0.2250 -0.4590  0.0479
  293ccc     H1 8265   7.677   6.438   1.516  0.9378 -0.1503 -0.7696
  293ccc     H2 8266   7.728   6.203   1.497  0.2653 -0.2982  0.0232
  293ccc     C3 8267   7.565   6.200   1.645  0.7646 -0.3581 -0.1746
  293ccc     C4 8268   7.428   6.271   1.665 -0.0751 -0.0634 -0.0779
  293ccc     C5 8269   7.432   6.421   1.619 -0.1642  0.0347 -0.5362
  293ccc     H3 8270   7.352   6.226   1.601  0.4142 -0.0580 -0.6755
  293ccc     H4 8271   7.630   6.252   1.717 -0.9054 -1.0528  1.9408
  293ccc     H5 8272   7.511   6.469   1.678 -0.0037 -1.6049  0.6599
  293ccc     O1 8273   7.302   6.488   1.633 -0.5701 -0.2141 -0.1760
  293ccc     O2 8274   7.382   6.253   1.805  0.0396  0.3167  0.0601
  293ccc     O3 8275   7.559   6.058   1.678 -0.6764  0.2734  0.2194
  293ccc     O4 8276   7.544   6.157   1.402 -0.1964  0.7677  0.6746
  293ccc     C6 8277   7.633   6.398   1.305 -0.7085  0.3137 -0.1370
  293ccc     H6 8278   7.586   6.061   1.771  0.5829  0.2623 -0.1361
  293ccc     H7 8279   7.502   6.221   1.341 -0.3211  0.3450  0.3043
  293ccc     H8 8280   7.288   6.232   1.797  0.0489  0.5518 -0.8491
  293ccc     H9 8281   7.725   6.349   1.271  0.4759  2.4639 -0.2346
  293ccc    H10 8282   7.657   6.502   1.280 -2.2283  0.9848  1.0651
  293ccc     O5 8283   7.522   6.360   1.228  0.3195 -0.1529  0.2061
  293ccc    H11 8284   7.550   6.367   1.135 -0.0965  1.0907  0.1533
  293ccc     O6 8285   7.468   6.416   1.481  0.7304 -1.0830  0.0738
  294ccc     C1 8286   2.528   7.258   2.071  0.1077 -0.1808  0.7573
  294ccc     C2 8287   2.553   7.299   1.924 -0.1355  0.3857  0.6291
  294ccc     H1 8288   2.473   7.343   2.113 -2.2384 -1.2115 -0.1084
  294ccc     H2 8289   2.452   7.327   1.891 -0.3645 -0.3321  0.7098
  294ccc     C3 8290   2.646   7.423   1.917  0.0586 -0.4647 -1.0547
  294ccc     C4 8291   2.774   7.389   1.991 -0.0515  0.4002  0.2891
  294ccc     C5 8292   2.753   7.336   2.135  0.6331  0.1383  0.9514
  294ccc     H3 8293   2.822   7.310   1.932 -1.9881 -0.1324 -0.6223
  294ccc     H4 8294   2.594   7.504   1.970  0.5436  0.4806 -1.9887
  294ccc     H5 8295   2.715   7.423   2.190 -0.5553  0.2373  0.0351
  294ccc     O1 8296   2.872   7.280   2.197  0.6550 -0.3326 -0.2804
  294ccc     O2 8297   2.869   7.500   1.989  0.2758 -0.1292  0.0128
  294ccc     O3 8298   2.667   7.471   1.778  0.3087  0.5945  0.4424
  294ccc     O4 8299   2.596   7.185   1.843  0.3454 -0.3902 -0.8694
  294ccc     C6 8300   2.451   7.125   2.076  0.0484  0.1082  0.5088
  294ccc     H6 8301   2.721   7.402   1.735  0.3598  1.5409 -1.0616
  294ccc     H7 8302   2.555   7.203   1.756 -0.9709 -0.1677 -0.2099
  294ccc     H8 8303   2.892   7.507   1.894 -1.2085 -0.7753 -0.4327
  294ccc     H9 8304   2.511   7.039   2.041 -0.3847 -0.7362  1.7343
  294ccc    H10 8305   2.360   7.127   2.016  0.2350 -1.0264  0.1625
  294ccc     O5 8306   2.408   7.101   2.208  0.3924 -0.2888 -0.5406
  294ccc    H11 8307   2.365   7.014   2.199 -2.0372  0.6885  0.7156
  294ccc     O6 8308   2.656   7.234   2.136 -0.3772  0.0532 -0.1874
  295ccc     C1 8309   2.783   6.466   1.697 -0.4087 -0.5332 -0.4108
  295ccc     C2 8310   2.648   6.411   1.728  0.0210  0.2321 -0.6314
  295ccc     H1 8311   2.856   6.385   1.686 -1.9296 -2.1193  0.7044
  295ccc     H2 8312   2.615   6.347   1.645 -1.7380  1.2828 -0.7820
  295ccc     C3 8313   2.665   6.326   1.855 -0.3936 -0.1793 -0.5191
  295ccc     C4 8314   2.710   6.411   1.980  0.1521 -0.1940  0.3842
  295ccc     C5 8315   2.833   6.492   1.939  0.1537  0.5425  0.1270
  295ccc     H3 8316   2.629   6.484   1.991  0.1152  0.4009 -2.7915
  295ccc     H4 8317   2.747   6.255   1.834 -1.4251 -1.6462  0.2234
  295ccc     H5 8318   2.922   6.429   1.928 -1.7040 -2.0031 -1.4819
  295ccc     O1 8319   2.862   6.589   2.041 -0.3264 -0.4064 -0.0109
  295ccc     O2 8320   2.726   6.320   2.084 -0.1715  0.4420 -0.0252
  295ccc     O3 8321   2.544   6.246   1.874  0.7300 -0.0700  0.6272
  295ccc     O4 8322   2.562   6.519   1.758 -0.6013 -0.7043 -0.4026
  295ccc     C6 8323   2.792   6.556   1.570 -0.1556  0.2157  0.2258
  295ccc     H6 8324   2.543   6.184   1.799 -2.0212 -0.7340  1.0920
  295ccc     H7 8325   2.602   6.596   1.715 -1.4442  0.2156  0.4018
  295ccc     H8 8326   2.797   6.262   2.051 -0.5089  0.5147 -0.9114
  295ccc     H9 8327   2.756   6.501   1.482 -2.5247  3.3896 -0.9352
  295ccc    H10 8328   2.898   6.580   1.558  0.2654 -1.8294 -0.6439
  295ccc     O5 8329   2.701   6.668   1.593 -0.0183 -0.3136 -0.0819
  295ccc    H11 8330   2.744   6.741   1.545 -1.1103 -1.3443 -2.8354
  295ccc     O6 8331   2.819   6.554   1.813 -0.2384 -0.1485 -0.0843
  296ccc     C1 8332   2.606   7.954   2.154 -0.1007  0.8986 -0.3423
  296ccc     C2 8333   2.517   7.830   2.132 -0.2421  0.2625 -0.6838
  296ccc     H1 8334   2.570   8.031   2.084 -1.3491  0.6829  0.0327
  296ccc     H2 8335   2.410   7.847   2.146 -0.1615  1.6819 -1.5763
  296ccc     C3 8336   2.529   7.797   1.987  0.4963  0.1013  1.1837
  296ccc     C4 8337   2.673   7.767   1.938  0.3912  0.5817 -0.7626
  296ccc     C5 8338   2.766   7.880   1.978 -0.7371 -0.2280 -0.1134
  296ccc     H3 8339   2.712   7.681   1.994 -1.0878  0.3567 -0.0278
  296ccc     H4 8340   2.497   7.881   1.925  0.2868 -0.9125 -0.1364
  296ccc     H5 8341   2.762   7.966   1.909 -0.1243 -0.2663 -0.1987
  296ccc     O1 8342   2.904   7.836   1.976  0.1950 -0.3476  0.4092
  296ccc     O2 8343   2.673   7.744   1.794  0.3956  0.1719  0.0397
  296ccc     O3 8344   2.450   7.681   1.967 -0.0573  0.5635  0.0008
  296ccc     O4 8345   2.567   7.716   2.209  0.3259 -0.2481  0.2832
  296ccc     C6 8346   2.599   8.018   2.297  0.7761 -0.0183  0.3758
  296ccc     H6 8347   2.440   7.679   1.870 -2.5255  1.2878  0.1745
  296ccc     H7 8348   2.484   7.668   2.225 -0.0529  0.2428 -0.1825
  296ccc     H8 8349   2.666   7.647   1.789  2.8153 -0.2895  2.7287
  296ccc     H9 8350   2.517   8.090   2.293 -0.5313 -1.5101 -0.8633
  296ccc    H10 8351   2.697   8.067   2.305  1.6906 -1.5748 -0.7677
  296ccc     O5 8352   2.593   7.927   2.407 -0.0955 -0.3941  0.3155
  296ccc    H11 8353   2.518   7.940   2.468  0.6065  0.0895  1.0956
  296ccc     O6 8354   2.739   7.915   2.126 -0.3731 -0.6136  0.8055
  297ccc     C1 8355   3.774   7.774   1.321  0.2298  0.2145 -0.2359
  297ccc     C2 8356   3.881   7.879   1.294 -0.1185  0.0279 -0.4776
  297ccc     H1 8357   3.677   7.814   1.289  0.6127  2.3691  1.0335
  297ccc     H2 8358   3.869   7.925   1.195 -0.3855 -0.5626 -0.7255
  297ccc     C3 8359   3.869   7.994   1.398 -0.0748  0.3426  0.7733
  297ccc     C4 8360   3.845   7.949   1.541  0.0385 -0.0770  0.1207
  297ccc     C5 8361   3.737   7.840   1.555 -0.3895 -0.3965  0.0410
  297ccc     H3 8362   3.935   7.892   1.568  0.3817 -0.1495 -1.1278
  297ccc     H4 8363   3.771   8.039   1.377 -1.0057 -1.3447  1.3366
  297ccc     H5 8364   3.635   7.880   1.548 -1.0794 -2.0412  0.4095
  297ccc     O1 8365   3.774   7.783   1.688 -0.0011  0.0250 -0.0200
  297ccc     O2 8366   3.806   8.055   1.628 -0.4189 -0.0993  0.0831
  297ccc     O3 8367   3.975   8.092   1.391 -0.2851  0.3532 -0.0569
  297ccc     O4 8368   4.011   7.819   1.320  0.0124  0.2980  0.4003
  297ccc     C6 8369   3.812   7.650   1.240  0.0417  0.3911 -0.4663
  297ccc     H6 8370   3.938   8.153   1.324  1.4659 -0.1390 -1.5699
  297ccc     H7 8371   4.078   7.876   1.278 -0.3533  0.4700  0.0485
  297ccc     H8 8372   3.796   8.137   1.577 -0.1708 -0.0180  0.1624
  297ccc     H9 8373   3.887   7.588   1.290 -1.2521 -2.1333 -1.4397
  297ccc    H10 8374   3.853   7.685   1.144  1.2018 -0.5640 -0.3404
  297ccc     O5 8375   3.688   7.576   1.231  0.2166 -0.1669 -0.3036
  297ccc    H11 8376   3.677   7.522   1.311 -0.1001  1.2081  0.6194
  297ccc     O6 8377   3.759   7.738   1.459 -0.4548 -0.9464 -0.1065
  298ccc     C1 8378   3.732   5.985   3.238 -0.7504  0.1153  0.0144
  298ccc     C2 8379   3.703   6.022   3.097 -0.4097  0.1820 -0.5810
  298ccc     H1 8380   3.637   5.976   3.291 -0.5606 -3.0590  0.0274
  298ccc     H2 8381   3.629   5.944   3.073 -0.0322 -0.2106 -0.4705
  298ccc     C3 8382   3.645   6.164   3.082 -0.4740  0.4160  0.1334
  298ccc     C4 8383   3.738   6.259   3.161 -0.0770 -0.4814 -0.3249
  298ccc     C5 8384   3.753   6.217   3.310 -0.5672  0.5309  0.3272
  298ccc     H3 8385   3.829   6.248   3.101  0.7208 -0.0855  0.7906
  298ccc     H4 8386   3.547   6.163   3.131 -1.0049 -1.3520 -0.8790
  298ccc     H5 8387   3.660   6.209   3.366 -1.4774 -0.9854 -1.3142
  298ccc     O1 8388   3.848   6.317   3.369  0.5769 -0.1573  0.1686
  298ccc     O2 8389   3.681   6.393   3.148  0.0667  0.1189  0.1435
  298ccc     O3 8390   3.633   6.186   2.941 -0.0442  0.4051 -0.3454
  298ccc     O4 8391   3.816   6.004   3.015 -0.4031  0.4815 -0.5025
  298ccc     C6 8392   3.802   5.851   3.247 -0.0472 -0.3011 -0.6094
  298ccc     H6 8393   3.614   6.280   2.924 -0.6547  0.0123 -2.0759
  298ccc     H7 8394   3.807   6.056   2.933 -1.0747  0.5738 -0.3831
  298ccc     H8 8395   3.605   6.382   3.208  1.4134 -2.2348  1.5290
  298ccc     H9 8396   3.900   5.847   3.198 -0.2695  0.8451 -1.1872
  298ccc    H10 8397   3.742   5.784   3.183 -0.7794  0.4938 -0.7705
  298ccc     O5 8398   3.789   5.809   3.382  0.1049 -0.2918 -0.1486
  298ccc    H11 8399   3.751   5.890   3.422 -3.1923 -1.8193  0.1331
  298ccc     O6 8400   3.817   6.084   3.297 -0.6944  0.3352 -0.4042
  299ccc     C1 8401   3.585   6.928   4.123 -0.4965  0.7002  0.1174
  299ccc     C2 8402   3.496   6.877   4.234  0.1724 -0.3777  0.1714
  299ccc     H1 8403   3.525   6.963   4.038 -0.8716  1.1136  0.5501
  299ccc     H2 8404   3.434   6.960   4.269  0.2154 -0.4640  0.4587
  299ccc     C3 8405   3.403   6.764   4.195 -0.1241 -0.1411 -0.2001
  299ccc     C4 8406   3.488   6.648   4.137  0.1207  0.1351 -0.2358
  299ccc     C5 8407   3.583   6.704   4.024 -0.3436 -0.2558  0.4363
  299ccc     H3 8408   3.544   6.605   4.221  1.0874  0.2952 -0.7834
  299ccc     H4 8409   3.341   6.797   4.111  2.0066  1.1297 -1.3697
  299ccc     H5 8410   3.523   6.741   3.940  0.1782 -0.2168  0.0722
  299ccc     O1 8411   3.679   6.606   3.983  0.1096  0.2716  0.0787
  299ccc     O2 8412   3.399   6.552   4.074  0.6684  0.0243  0.0557
  299ccc     O3 8413   3.323   6.723   4.315  0.3314  0.1996 -0.1757
  299ccc     O4 8414   3.581   6.842   4.345 -0.3764  0.2618 -0.1880
  299ccc     C6 8415   3.680   7.042   4.168  0.0768  0.5252  0.4194
  299ccc     H6 8416   3.230   6.747   4.298  0.8923  1.2642 -1.9627
  299ccc     H7 8417   3.525   6.842   4.425 -0.1583 -1.0619 -0.0208
  299ccc     H8 8418   3.351   6.516   4.151  0.9386 -1.0344 -0.2708
  299ccc     H9 8419   3.769   7.004   4.219  1.2973 -0.9856 -2.5707
  299ccc    H10 8420   3.616   7.096   4.239  0.5576 -0.8294  1.9603
  299ccc     O5 8421   3.715   7.133   4.062  0.2999 -0.4911  0.3717
  299ccc    H11 8422   3.785   7.088   4.013 -2.0926 -1.6329 -2.2725
  299ccc     O6 8423   3.664   6.817   4.071  0.5771 -0.0433 -0.1105
  300ccc     C1 8424   4.494   6.699   3.571 -0.3184  0.1208 -0.5301
  300ccc     C2 8425   4.481   6.547   3.701 -0.5529  0.4335  0.1623
  300ccc     H1 8426   4.412   6.698   3.499 -0.4631  0.2458 -0.3696
  300ccc     H2 8427   4.388   6.492   3.680  0.3194 -0.8263 -0.5378
  300ccc     C3 8428   4.623   6.399   3.701  0.4405 -0.5062  0.2627
  300ccc     C4 8429   4.791   6.427   3.593 -0.3987 -0.1750 -0.2459
  300ccc     C5 8430   4.799   6.581   3.457 -0.1136 -0.5768 -0.2904
  300ccc     H3 8431   4.871   6.447   3.665  0.6991  0.3297 -1.5649
  300ccc     H4 8432   4.572   6.308   3.668 -0.2987 -1.0785  2.7639
  300ccc     H5 8433   4.782   6.532   3.361 -0.4688 -3.1036  0.9594
  300ccc     O1 8434   4.931   6.631   3.444 -0.4472  0.2365 -0.1513
  300ccc     O2 8435   4.824   6.298   3.539 -0.3428 -0.3206  0.0213
  300ccc     O3 8436   4.650   6.372   3.838 -0.0641  0.7256 -0.7230
  300ccc     O4 8437   4.475   6.595   3.834  0.5126 -0.5187 -0.2447
  300ccc     C6 8438   4.492   6.841   3.626 -0.3024 -0.1534 -0.2267
  300ccc     H6 8439   4.734   6.324   3.843 -0.5663 -0.4114 -2.3579
  300ccc     H7 8440   4.547   6.548   3.879 -0.1982  0.2556  1.8151
  300ccc     H8 8441   4.866   6.244   3.607 -1.3338 -0.6177  0.4175
  300ccc     H9 8442   4.565   6.855   3.708 -2.1263 -0.5444  1.5494
  300ccc    H10 8443   4.393   6.870   3.663 -1.0162 -0.6582 -1.6698
  300ccc     O5 8444   4.518   6.925   3.514  0.0027 -0.0282 -0.6885
  300ccc    H11 8445   4.597   6.873   3.495 -0.0718 -0.5821  0.4085
  300ccc     O6 8446   4.657   6.711   3.467  0.4809 -0.1501 -0.2665
  301ccc     C1 8447   5.280   7.084   4.172  0.5629 -0.1029  0.6245
  301ccc     C2 8448   5.210   7.216   4.215 -0.0115 -0.0758  0.3549
  301ccc     H1 8449   5.373   7.074   4.229  1.2638 -0.8301 -0.5843
  301ccc     H2 8450   5.173   7.214   4.318 -0.3172 -0.7144  0.2385
  301ccc     C3 8451   5.308   7.333   4.202  0.5381 -0.2917  0.3045
  301ccc     C4 8452   5.389   7.338   4.071 -0.0031 -0.0684 -0.0257
  301ccc     C5 8453   5.444   7.198   4.027  0.0483 -0.0205 -0.0015
  301ccc     H3 8454   5.328   7.367   3.985  0.8023  0.6570 -0.3588
  301ccc     H4 8455   5.377   7.321   4.286  0.9907 -0.4994 -0.0872
  301ccc     H5 8456   5.527   7.153   4.082 -0.7417 -0.2200  1.0512
  301ccc     O1 8457   5.488   7.203   3.887 -0.1769  0.4285  0.2517
  301ccc     O2 8458   5.494   7.436   4.081 -0.0785 -0.0465  0.0657
  301ccc     O3 8459   5.254   7.460   4.244  0.2801 -0.7376  0.4870
  301ccc     O4 8460   5.110   7.235   4.121 -0.0696  0.0815 -0.3470
  301ccc     C6 8461   5.202   6.948   4.194  0.1640 -0.0772 -0.5265
  301ccc     H6 8462   5.199   7.493   4.171 -0.7576  2.2433  2.4395
  301ccc     H7 8463   5.033   7.279   4.161 -0.0179 -0.5515  0.4905
  301ccc     H8 8464   5.476   7.507   4.018 -1.1066  0.5953  1.0570
  301ccc     H9 8465   5.152   6.941   4.291  0.6578 -0.1066 -0.2716
  301ccc    H10 8466   5.271   6.863   4.191 -0.4885 -0.8449  2.8088
  301ccc     O5 8467   5.108   6.951   4.085 -0.0418 -0.2130  0.4659
  301ccc    H11 8468   5.099   7.048   4.077  2.3017  0.3101  2.6778
  301ccc     O6 8469   5.338   7.100   4.034 -0.3352  0.8200 -0.7308
  302ccc     C1 8470   5.299   6.179  -1.056 -0.2084 -0.5118 -0.8351
  302ccc     C2 8471   5.310   6.324  -1.112  1.0671  1.0043  0.1962
  302ccc     H1 8472   5.292   6.196  -0.948 -2.7368 -1.1238 -0.8303
  302ccc     H2 8473   5.221   6.374  -1.071 -1.0998 -1.6974 -0.8344
  302ccc     C3 8474   5.446   6.398  -1.090 -0.4368  0.2876  0.2353
  302ccc     C4 8475   5.574   6.306  -1.100 -0.1281  0.0377  0.4864
  302ccc     C5 8476   5.545   6.160  -1.055 -0.2360 -0.2527 -0.2045
  302ccc     H3 8477   5.594   6.307  -1.208 -1.7106 -0.9188  0.1604
  302ccc     H4 8478   5.436   6.429  -0.985 -0.0869 -0.1922  0.4166
  302ccc     H5 8479   5.557   6.158  -0.946 -0.9383  2.1791 -0.0350
  302ccc     O1 8480   5.655   6.074  -1.111  0.0637 -0.3834  0.1192
  302ccc     O2 8481   5.689   6.363  -1.033 -0.1668 -0.4056 -0.0815
  302ccc     O3 8482   5.456   6.515  -1.169 -0.6846  0.0189  0.0874
  302ccc     O4 8483   5.285   6.308  -1.250 -0.0420 -0.2803 -0.1422
  302ccc     C6 8484   5.175   6.105  -1.098  0.1249  0.3625  0.0352
  302ccc     H6 8485   5.371   6.562  -1.161 -1.5498 -1.2751 -1.0648
  302ccc     H7 8486   5.355   6.251  -1.287  0.5097 -0.3391  0.9539
  302ccc     H8 8487   5.664   6.362  -0.939  1.0245  0.1014  0.2531
  302ccc     H9 8488   5.176   6.082  -1.205  0.9013  0.9617 -0.0954
  302ccc    H10 8489   5.093   6.178  -1.085 -0.6608 -0.6418  0.8942
  302ccc     O5 8490   5.155   5.989  -1.018 -0.3154  1.0596  0.0085
  302ccc    H11 8491   5.082   5.937  -1.054  0.6968 -1.5262  1.3816
  302ccc     O6 8492   5.420   6.102  -1.093  0.5449 -0.1060 -0.6011
  303ccc     C1 8493   5.495   6.526  -0.225  0.5646 -0.3254 -0.3712
  303ccc     C2 8494   5.365   6.586  -0.281  0.5432  0.0754 -0.0339
  303ccc     H1 8495   5.579   6.577  -0.271 -0.2833  1.0380 -0.4642
  303ccc     H2 8496   5.366   6.693  -0.261  1.9697 -0.1086  1.0037
  303ccc     C3 8497   5.351   6.557  -0.436 -0.5029 -0.7050 -0.6423
  303ccc     C4 8498   5.385   6.412  -0.476 -0.1310 -0.5231  0.3126
  303ccc     C5 8499   5.518   6.367  -0.411  0.0099 -0.5153  0.5719
  303ccc     H3 8500   5.310   6.345  -0.435  0.6472 -1.2641  0.5516
  303ccc     H4 8501   5.425   6.621  -0.486 -0.7084  0.0890  0.0654
  303ccc     H5 8502   5.602   6.424  -0.453 -1.3319 -0.0401 -1.6410
  303ccc     O1 8503   5.533   6.228  -0.435 -0.2057  0.1175  0.3027
  303ccc     O2 8504   5.387   6.404  -0.620  0.0104 -0.1411 -0.2579
  303ccc     O3 8505   5.214   6.598  -0.471 -0.3111 -0.1753 -0.0454
  303ccc     O4 8506   5.258   6.521  -0.211 -0.0007 -0.3426 -0.0362
  303ccc     C6 8507   5.505   6.532  -0.073 -0.2725 -0.5529  0.6211
  303ccc     H6 8508   5.153   6.555  -0.409 -0.3440 -0.4387 -0.2593
  303ccc     H7 8509   5.309   6.511  -0.129 -0.3159  0.7833  0.3216
  303ccc     H8 8510   5.300   6.441  -0.643 -0.2823  0.6495  1.8931
  303ccc     H9 8511   5.511   6.633  -0.032  0.0443 -0.6355  0.7805
  303ccc    H10 8512   5.599   6.481  -0.047  0.2103 -2.2744 -3.5850
  303ccc     O5 8513   5.399   6.468   0.001  0.0816  0.5248 -0.2455
  303ccc    H11 8514   5.403   6.490   0.096 -0.2330 -0.5437  0.0267
  303ccc     O6 8515   5.506   6.389  -0.268  0.0366 -0.5594  0.0216
  304ccc     C1 8516   6.893   5.435   1.009  0.4012  0.3051  0.4220
  304ccc     C2 8517   6.794   5.416   1.127 -0.3143 -0.0734 -0.1153
  304ccc     H1 8518   6.997   5.434   1.045  0.4705 -3.2884  0.5069
  304ccc     H2 8519   6.831   5.333   1.189 -0.2752 -1.0697 -1.4333
  304ccc     C3 8520   6.797   5.545   1.225 -0.4298  0.3304  0.4040
  304ccc     C4 8521   6.758   5.666   1.148  0.2109 -0.5042  0.0003
  304ccc     C5 8522   6.831   5.678   1.011  0.6508 -0.3975  0.3187
  304ccc     H3 8523   6.654   5.669   1.113  1.7451 -0.8693 -5.5401
  304ccc     H4 8524   6.902   5.557   1.253  0.5001 -0.9844 -2.2282
  304ccc     H5 8525   6.927   5.728   1.029 -0.4082  1.8853 -0.0500
  304ccc     O1 8526   6.748   5.772   0.935  0.1625  0.0233  0.1828
  304ccc     O2 8527   6.793   5.789   1.231 -0.0060  0.7781  0.4991
  304ccc     O3 8528   6.706   5.516   1.340 -0.8653  0.3245 -0.0109
  304ccc     O4 8529   6.664   5.391   1.080  0.1331 -0.5781 -0.1604
  304ccc     C6 8530   6.883   5.319   0.906  0.1800 -0.2759 -0.1027
  304ccc     H6 8531   6.727   5.442   1.401  0.0279  2.2428  2.1669
  304ccc     H7 8532   6.608   5.435   1.146  0.9325 -1.2216  0.9596
  304ccc     H8 8533   6.723   5.799   1.298  0.2193  0.0143  0.8563
  304ccc     H9 8534   6.789   5.328   0.851 -0.1366 -3.3806 -0.2305
  304ccc    H10 8535   6.875   5.218   0.949 -1.1907 -0.0357  0.2340
  304ccc     O5 8536   6.986   5.322   0.811 -0.1077  0.3183  0.1615
  304ccc    H11 8537   6.962   5.264   0.736 -0.3112 -0.7049  0.9904
  304ccc     O6 8538   6.855   5.555   0.943 -0.0606  0.4957  0.3351
  305ccc     C1 8539   6.256   6.453   0.891  0.6973 -0.9745  0.2261
  305ccc     C2 8540   6.285   6.428   1.045  0.5385 -0.2959  0.2815
  305ccc     H1 8541   6.153   6.490   0.880  0.8811 -0.7090 -0.7513
  305ccc     H2 8542   6.290   6.523   1.098  0.2998  0.5029 -1.0798
  305ccc     C3 8543   6.175   6.341   1.104 -0.3737  0.0145  0.4449
  305ccc     C4 8544   6.158   6.208   1.021 -0.1300  0.4088  0.6046
  305ccc     C5 8545   6.153   6.234   0.859  0.1711 -0.2511  0.1325
  305ccc     H3 8546   6.242   6.145   1.051 -0.7534 -0.3919  0.7020
  305ccc     H4 8547   6.082   6.397   1.094 -1.2234 -1.6890 -2.0367
  305ccc     H5 8548   6.058   6.284   0.834 -0.0377 -0.1409  1.0885
  305ccc     O1 8549   6.187   6.109   0.787  0.4168 -0.1078 -0.3298
  305ccc     O2 8550   6.032   6.147   1.054  0.0830  0.3452 -0.1500
  305ccc     O3 8551   6.202   6.314   1.245  0.1474  0.1055  0.0404
  305ccc     O4 8552   6.407   6.362   1.056  0.1374 -0.4547 -0.0479
  305ccc     C6 8553   6.349   6.558   0.825  0.8353 -0.1544  0.0196
  305ccc     H6 8554   6.293   6.280   1.255 -0.0471 -0.1524  1.0213
  305ccc     H7 8555   6.454   6.426   1.001  0.3963 -0.4046  0.2309
  305ccc     H8 8556   6.039   6.051   1.034 -1.6904  0.2413 -0.4162
  305ccc     H9 8557   6.303   6.657   0.839  0.7531 -0.0267 -1.0875
  305ccc    H10 8558   6.347   6.537   0.717  0.6197 -0.2403  0.0380
  305ccc     O5 8559   6.481   6.558   0.885 -0.1707  0.2235 -0.4878
  305ccc    H11 8560   6.529   6.634   0.847 -0.3792  1.1589  1.0506
  305ccc     O6 8561   6.263   6.325   0.824 -0.0962  0.1068  0.1609
  306ccc     C1 8562   5.873   6.720   0.134 -0.5300 -0.6221  0.5093
  306ccc     C2 8563   5.810   6.845   0.063  0.3754  0.0841  0.0333
  306ccc     H1 8564   5.982   6.731   0.134 -0.7165  1.8884  0.5180
  306ccc     H2 8565   5.828   6.939   0.116 -1.8328  0.8039 -0.4016
  306ccc     C3 8566   5.865   6.852  -0.084  0.0097 -0.3156  0.1922
  306ccc     C4 8567   5.846   6.724  -0.160 -0.1564 -0.2018  0.4117
  306ccc     C5 8568   5.905   6.598  -0.078 -0.0293  0.5918  0.0323
  306ccc     H3 8569   5.738   6.708  -0.163 -0.2048  0.0118  0.8738
  306ccc     H4 8570   5.973   6.865  -0.072  0.3183 -1.7988 -0.7401
  306ccc     H5 8571   6.013   6.581  -0.078 -0.1049 -0.0401 -1.5375
  306ccc     O1 8572   5.844   6.480  -0.141  0.2829 -0.1553  0.5622
  306ccc     O2 8573   5.887   6.735  -0.298  0.0565 -0.0926  0.2294
  306ccc     O3 8574   5.814   6.973  -0.152  0.0967 -0.2393 -0.4201
  306ccc     O4 8575   5.664   6.828   0.065  0.6246 -0.2251 -0.0730
  306ccc     C6 8576   5.835   6.698   0.282 -0.6747 -0.4560  0.7594
  306ccc     H6 8577   5.834   7.047  -0.093 -0.5825 -0.0704 -0.3892
  306ccc     H7 8578   5.621   6.884  -0.001 -0.8988  0.0036  1.0603
  306ccc     H8 8579   5.902   6.829  -0.320 -0.4385 -0.4997 -2.0871
  306ccc     H9 8580   5.852   6.785   0.347 -0.5229 -0.6142  0.9283
  306ccc    H10 8581   5.888   6.610   0.320  1.0464  0.0115 -0.4602
  306ccc     O5 8582   5.705   6.664   0.269 -0.2670 -0.2218 -0.7961
  306ccc    H11 8583   5.680   6.704   0.184 -1.6455  0.3575 -0.1553
  306ccc     O6 8584   5.850   6.598   0.060 -0.0946  0.1746  0.0450
  307ccc     C1 8585   6.022   5.996  -1.123  0.2119 -0.6515  0.4456
  307ccc     C2 8586   6.035   6.091  -1.247 -0.7653  0.4199  0.2793
  307ccc     H1 8587   5.916   5.965  -1.123 -0.6315  1.7484 -2.4465
  307ccc     H2 8588   5.987   6.048  -1.335  0.3506  1.3342 -0.8186
  307ccc     C3 8589   5.970   6.231  -1.227  1.0417 -0.5607  0.0083
  307ccc     C4 8590   6.017   6.291  -1.096 -0.4598  0.4586 -0.8496
  307ccc     C5 8591   5.992   6.193  -0.973 -0.1997 -0.0166 -0.2253
  307ccc     H3 8592   6.124   6.316  -1.094 -0.5226  0.7802  1.0678
  307ccc     H4 8593   5.862   6.230  -1.212  0.8388 -1.4511 -1.3690
  307ccc     H5 8594   5.883   6.180  -0.967 -0.2865  1.0724  0.8717
  307ccc     O1 8595   6.042   6.244  -0.845  0.3998 -0.2272 -0.3872
  307ccc     O2 8596   5.948   6.417  -1.082 -0.1660  0.3434  0.5719
  307ccc     O3 8597   5.994   6.326  -1.339  0.2208 -0.0485 -0.2465
  307ccc     O4 8598   6.176   6.111  -1.262 -0.4789  0.2340 -0.0638
  307ccc     C6 8599   6.103   5.867  -1.149 -0.0319 -0.6792 -0.9353
  307ccc     H6 8600   5.939   6.404  -1.320 -0.5383 -0.9274  1.4657
  307ccc     H7 8601   6.192   6.147  -1.350 -0.0954  1.3076  0.4284
  307ccc     H8 8602   5.857   6.398  -1.056  0.1404  1.0182  2.2682
  307ccc     H9 8603   6.212   5.879  -1.154 -0.1909  0.3012 -2.7407
  307ccc    H10 8604   6.077   5.830  -1.248 -0.8263  1.0251 -1.4069
  307ccc     O5 8605   6.061   5.769  -1.050 -0.3335  0.4261 -0.4730
  307ccc    H11 8606   6.119   5.775  -0.972  0.6702  1.4933 -1.2732
  307ccc     O6 8607   6.052   6.063  -0.994  0.4576  0.0179  0.0554
  308ccc     C1 8608   7.628   6.767   0.721 -0.0841 -0.3313 -1.0572
  308ccc     C2 8609   7.611   6.918   0.745  0.7487 -0.2401  0.4088
  308ccc     H1 8610   7.649   6.760   0.614  0.2151  2.5144 -1.2468
  308ccc     H2 8611   7.704   6.964   0.710  0.7462 -0.5143  0.0293
  308ccc     C3 8612   7.493   6.966   0.656  0.3289  0.1729 -0.0792
  308ccc     C4 8613   7.367   6.888   0.690  0.4444  0.1185 -0.1124
  308ccc     C5 8614   7.386   6.734   0.667  0.7746 -0.0066 -0.0778
  308ccc     H3 8615   7.336   6.897   0.795 -0.1449  0.1431 -0.2832
  308ccc     H4 8616   7.515   6.949   0.550  2.1736 -1.4062  0.5025
  308ccc     H5 8617   7.377   6.704   0.562 -1.4121 -0.4330  0.1730
  308ccc     O1 8618   7.269   6.676   0.723 -0.0916 -0.1063 -1.0831
  308ccc     O2 8619   7.251   6.938   0.607 -0.0087  0.1294  0.2232
  308ccc     O3 8620   7.475   7.106   0.672 -0.6428 -0.4670  0.4107
  308ccc     O4 8621   7.585   6.943   0.878  0.3462  0.1043 -0.5771
  308ccc     C6 8622   7.742   6.707   0.801  0.5098  0.3029  0.3664
  308ccc     H6 8623   7.405   7.138   0.612  1.0903  3.6693  0.2098
  308ccc     H7 8624   7.604   7.037   0.896 -0.5824  0.0979  0.5072
  308ccc     H8 8625   7.167   6.916   0.651 -0.3503 -1.5506 -1.1283
  308ccc     H9 8626   7.836   6.754   0.770  0.7665 -1.8218 -2.4973
  308ccc    H10 8627   7.750   6.600   0.777 -0.2960  0.2373  0.3594
  308ccc     O5 8628   7.723   6.718   0.939 -0.2761 -0.4106  0.0648
  308ccc    H11 8629   7.647   6.779   0.938 -0.0068 -0.0181 -2.5163
  308ccc     O6 8630   7.504   6.688   0.740 -0.2022 -0.6053 -0.2873
  309ccc     C1 8631   6.770   6.110   1.475  0.0075  0.3223 -0.1965
  309ccc     C2 8632   6.650   6.009   1.502  0.2759  0.0432  0.6954
  309ccc     H1 8633   6.755   6.210   1.516 -0.8266  0.3117 -0.4556
  309ccc     H2 8634   6.626   6.002   1.609  2.2423  0.6901  1.2310
  309ccc     C3 8635   6.523   6.074   1.442 -0.7778  0.6129 -0.0892
  309ccc     C4 8636   6.542   6.107   1.292 -0.0371  0.1241  0.4275
  309ccc     C5 8637   6.680   6.183   1.264 -0.0282 -0.1278 -0.5130
  309ccc     H3 8638   6.554   6.010   1.242  1.4980  1.0721 -1.1615
  309ccc     H4 8639   6.510   6.172   1.490 -1.4797  1.3105 -1.6446
  309ccc     H5 8640   6.682   6.287   1.298 -0.1863  0.0267 -0.9663
  309ccc     O1 8641   6.699   6.185   1.123 -1.1798 -0.4214  0.1098
  309ccc     O2 8642   6.432   6.188   1.251  0.3259 -0.3049  0.7319
  309ccc     O3 8643   6.404   5.999   1.473  0.2755 -0.1755 -0.2363
  309ccc     O4 8644   6.674   5.886   1.443  0.2086  0.5821 -0.2655
  309ccc     C6 8645   6.891   6.056   1.548  0.7061 -0.3226  0.0144
  309ccc     H6 8646   6.325   6.049   1.445 -1.9122 -1.4229  3.0866
  309ccc     H7 8647   6.599   5.830   1.470  2.2015 -1.9316  0.3962
  309ccc     H8 8648   6.448   6.232   1.165 -0.9112 -0.2148  0.5257
  309ccc     H9 8649   6.924   5.967   1.492 -1.1933 -0.1218 -1.5552
  309ccc    H10 8650   6.860   6.026   1.649  1.9754  0.3787  0.6313
  309ccc     O5 8651   6.997   6.146   1.557  0.7090 -0.5714 -0.0529
  309ccc    H11 8652   7.013   6.178   1.466  1.8718 -1.1604 -0.0809
  309ccc     O6 8653   6.787   6.117   1.336  0.4135  0.1020 -0.1119
  310ccc     C1 8654   3.752   6.189   0.596 -0.3860 -0.0559 -0.3205
  310ccc     C2 8655   3.686   6.291   0.697 -0.2016 -0.4173 -0.1520
  310ccc     H1 8656   3.680   6.184   0.514 -0.5559  0.3448 -0.2000
  310ccc     H2 8657   3.689   6.393   0.656 -1.2719 -0.5049 -0.4726
  310ccc     C3 8658   3.537   6.256   0.718 -0.3132  0.3862 -0.1903
  310ccc     C4 8659   3.531   6.101   0.767 -0.8791 -0.0914  0.5037
  310ccc     C5 8660   3.623   5.999   0.684  0.8579  0.0704 -0.1923
  310ccc     H3 8661   3.565   6.088   0.870 -2.4595 -2.8907  0.7999
  310ccc     H4 8662   3.485   6.268   0.622 -2.1111 -0.3714  0.6335
  310ccc     H5 8663   3.582   5.999   0.582 -1.0611  0.4838  0.5437
  310ccc     O1 8664   3.628   5.868   0.747  0.2376 -0.0539 -0.4120
  310ccc     O2 8665   3.401   6.052   0.767 -0.2226  0.0804 -0.4054
  310ccc     O3 8666   3.481   6.347   0.812 -0.5796  0.2069 -0.4063
  310ccc     O4 8667   3.755   6.294   0.819  0.0534 -0.0373  0.3482
  310ccc     C6 8668   3.894   6.231   0.550 -0.6877 -0.1886 -0.1233
  310ccc     H6 8669   3.456   6.431   0.769  1.5839  0.5716 -1.0803
  310ccc     H7 8670   3.688   6.332   0.880 -0.2851 -0.8722  0.5119
  310ccc     H8 8671   3.344   6.109   0.822 -0.2826 -0.2682 -0.0960
  310ccc     H9 8672   3.877   6.324   0.494 -0.9440 -1.0569 -1.5540
  310ccc    H10 8673   3.945   6.157   0.486 -0.3090  1.2118 -1.4967
  310ccc     O5 8674   3.975   6.261   0.665  0.7007  0.2721  0.3706
  310ccc    H11 8675   3.902   6.267   0.730  1.6090  1.5985  1.3160
  310ccc     O6 8676   3.753   6.057   0.665  0.0395  0.2457 -0.1749
  311ccc     C1 8677   3.691   5.899   1.573 -0.0463  0.1104 -0.2091
  311ccc     C2 8678   3.812   5.808   1.608 -0.6386 -0.3184  0.2982
  311ccc     H1 8679   3.621   5.889   1.657 -0.4122  2.1710 -0.2072
  311ccc     H2 8680   3.849   5.834   1.708  2.5082 -2.1946 -0.2420
  311ccc     C3 8681   3.775   5.661   1.612 -0.6690  0.3990 -0.0409
  311ccc     C4 8682   3.714   5.624   1.473  0.6488 -0.1787 -0.5805
  311ccc     C5 8683   3.592   5.711   1.449 -0.4141 -0.0229 -0.3630
  311ccc     H3 8684   3.787   5.647   1.395 -0.1922  1.1883 -1.0041
  311ccc     H4 8685   3.701   5.665   1.693  1.6117  2.5917  2.1275
  311ccc     H5 8686   3.513   5.688   1.523 -1.7946  1.4181 -1.3305
  311ccc     O1 8687   3.550   5.679   1.310  0.7026  0.0554  0.1597
  311ccc     O2 8688   3.683   5.482   1.485 -0.0498 -0.9694  0.2406
  311ccc     O3 8689   3.888   5.581   1.651 -0.1508 -0.7770  0.1775
  311ccc     O4 8690   3.921   5.833   1.513  0.0011 -0.0227 -0.7053
  311ccc     C6 8691   3.717   6.051   1.550 -0.3271  0.1071  0.0687
  311ccc     H6 8692   3.954   5.603   1.583  2.1443  2.2758  3.0538
  311ccc     H7 8693   3.872   5.901   1.462 -1.3464 -1.6188 -1.6383
  311ccc     H8 8694   3.765   5.429   1.483 -0.7765 -2.3141  2.4520
  311ccc     H9 8695   3.773   6.085   1.638 -0.7604  1.0040  0.0129
  311ccc    H10 8696   3.618   6.096   1.535  0.3406  1.1718 -1.4135
  311ccc     O5 8697   3.794   6.050   1.435 -1.2231  0.7127 -0.1685
  311ccc    H11 8698   3.734   6.101   1.378 -1.6511  0.6197  0.1867
  311ccc     O6 8699   3.629   5.846   1.456 -0.3105 -1.0286 -1.2902
  312ccc     C1 8700   5.071   4.275   1.109 -0.3127  0.1904 -0.3467
  312ccc     C2 8701   4.919   4.241   1.143 -0.1589  0.8099  0.2228
  312ccc     H1 8702   5.127   4.287   1.203  0.6758 -1.6007 -0.6543
  312ccc     H2 8703   4.906   4.159   1.215 -2.3254  0.4810 -0.4939
  312ccc     C3 8704   4.859   4.363   1.218 -0.2678  0.1798 -0.2506
  312ccc     C4 8705   4.874   4.497   1.154 -0.0959 -0.2807  0.1677
  312ccc     C5 8706   5.021   4.523   1.119 -0.4963 -0.3442 -0.3476
  312ccc     H3 8707   4.824   4.511   1.057  0.5619  3.3928  0.2240
  312ccc     H4 8708   4.920   4.373   1.308 -1.6719 -0.2843  0.7870
  312ccc     H5 8709   5.074   4.547   1.212  0.2016  0.7618 -1.0147
  312ccc     O1 8710   5.026   4.640   1.033  0.0235  0.1582 -0.7204
  312ccc     O2 8711   4.832   4.603   1.240  0.1391  0.3995  0.3975
  312ccc     O3 8712   4.718   4.337   1.241  0.5703 -0.0355 -0.1088
  312ccc     O4 8713   4.851   4.221   1.021  0.3638 -0.2519  0.2297
  312ccc     C6 8714   5.130   4.170   1.003  0.1692  0.1801 -0.2813
  312ccc     H6 8715   4.664   4.358   1.163  0.0801  2.2685  0.7756
  312ccc     H7 8716   4.780   4.158   1.040  1.4737 -1.7872 -0.4797
  312ccc     H8 8717   4.738   4.586   1.257  0.4449 -1.0506  0.7585
  312ccc     H9 8718   5.085   4.224   0.920 -1.2549  0.1912  0.4623
  312ccc    H10 8719   5.045   4.101   1.005 -1.4090  2.0639  0.6077
  312ccc     O5 8720   5.339   4.080   0.968 -0.1950  0.0855  0.2014
  312ccc    H11 8721   5.387   4.083   1.053 -0.4016 -0.7962  0.3641
  312ccc     O6 8722   5.077   4.405   1.057  0.0361  0.3883 -0.0967
  313ccc     C1 8723   5.490   4.958   0.385 -0.0044 -0.6214 -0.1406
  313ccc     C2 8724   5.532   5.017   0.245  0.6928  0.3076 -0.0888
  313ccc     H1 8725   5.588   4.942   0.432  0.2546 -1.3351 -0.9031
  313ccc     H2 8726   5.595   5.106   0.257 -0.7422  1.3681 -0.1524
  313ccc     C3 8727   5.622   4.915   0.168  0.2214  0.6384 -0.3410
  313ccc     C4 8728   5.543   4.782   0.161  0.5889  0.9625  0.1406
  313ccc     C5 8729   5.512   4.720   0.302  0.5236  0.3928  0.0335
  313ccc     H3 8730   5.448   4.791   0.107 -0.1235 -0.5809  1.0391
  313ccc     H4 8731   5.709   4.904   0.234 -0.1339  2.0268  0.4042
  313ccc     H5 8732   5.605   4.704   0.357  0.2008 -1.9427 -0.0043
  313ccc     O1 8733   5.427   4.603   0.293  0.5271 -0.0460  0.3062
  313ccc     O2 8734   5.628   4.694   0.080 -0.4210 -0.4362 -0.1686
  313ccc     O3 8735   5.677   4.966   0.040 -0.0391  0.0395 -0.4497
  313ccc     O4 8736   5.411   5.049   0.166  0.7080  0.0740 -0.1101
  313ccc     C6 8737   5.411   5.051   0.481 -0.0092  0.3016 -0.4022
  313ccc     H6 8738   5.709   5.057   0.057 -0.6429  0.2693 -0.5226
  313ccc     H7 8739   5.349   5.045   0.241  0.9850 -1.8617  0.0845
  313ccc     H8 8740   5.648   4.614   0.132 -2.2476 -0.7253  0.1295
  313ccc     H9 8741   5.476   5.133   0.515 -0.5888  0.5727  0.0633
  313ccc    H10 8742   5.384   4.992   0.569  0.6939 -1.3336 -1.2443
  313ccc     O5 8743   5.296   5.098   0.406  0.4893 -0.5220 -0.2963
  313ccc    H11 8744   5.235   5.126   0.476  1.4755  0.9059  0.0333
  313ccc     O6 8745   5.430   4.825   0.364  0.5234 -0.1315  0.1257
  314ccc     C1 8746   3.711   7.207   0.674 -0.1864  1.0308 -0.7974
  314ccc     C2 8747   3.858   7.236   0.711  0.0022  0.4265  0.4582
  314ccc     H1 8748   3.682   7.123   0.739 -1.6954  0.2371 -2.3831
  314ccc     H2 8749   3.867   7.240   0.820  3.0613  0.8806  0.2812
  314ccc     C3 8750   3.949   7.120   0.663 -0.7817 -0.0834 -0.0291
  314ccc     C4 8751   3.923   7.071   0.519  0.3563 -0.8552  0.1776
  314ccc     C5 8752   3.774   7.047   0.491  0.7360  0.4569 -0.2848
  314ccc     H3 8753   3.954   7.149   0.448  0.1966 -2.0695 -1.2734
  314ccc     H4 8754   3.935   7.036   0.733 -1.0301 -0.8643 -0.9909
  314ccc     H5 8755   3.755   6.961   0.556  0.8593 -0.7902 -1.8413
  314ccc     O1 8756   3.748   7.017   0.355 -0.3891  0.2650  0.1043
  314ccc     O2 8757   3.998   6.955   0.492  0.2124 -0.1723 -0.1546
  314ccc     O3 8758   4.085   7.174   0.667 -0.1317  0.1960  0.3871
  314ccc     O4 8759   3.889   7.362   0.649  0.0686  0.1793 -0.4798
  314ccc     C6 8760   3.615   7.323   0.704  0.2007 -0.5078 -0.6345
  314ccc     H6 8761   4.110   7.165   0.761 -0.9536  0.1777  0.6163
  314ccc     H7 8762   3.985   7.365   0.664 -0.1142  1.8388  0.7095
  314ccc     H8 8763   4.094   6.973   0.500  0.0804 -0.2540  2.7132
  314ccc     H9 8764   3.605   7.405   0.633 -1.8639 -0.8822 -0.8239
  314ccc    H10 8765   3.653   7.354   0.802 -0.4963 -0.7021 -0.2964
  314ccc     O5 8766   3.487   7.260   0.716 -0.3673  0.2865 -0.2622
  314ccc    H11 8767   3.447   7.307   0.792 -0.5261 -1.2905  0.6702
  314ccc     O6 8768   3.699   7.160   0.535  0.0328 -0.0484  0.8279
  315ccc     C1 8769   3.429   6.999  -0.646 -0.9930  0.0369 -0.9065
  315ccc     C2 8770   3.338   7.002  -0.526  0.0365 -0.2835 -0.0013
  315ccc     H1 8771   3.407   6.905  -0.697 -0.3064 -0.3247 -0.5492
  315ccc     H2 8772   3.237   7.004  -0.569  0.5767  2.6725 -1.3919
  315ccc     C3 8773   3.352   6.881  -0.441 -0.0212 -0.5253  0.1132
  315ccc     C4 8774   3.495   6.870  -0.390 -0.5383  0.2106 -0.8935
  315ccc     C5 8775   3.604   6.886  -0.501 -0.5462  0.5667  0.6038
  315ccc     H3 8776   3.509   6.946  -0.312  0.1115  0.0066 -0.8100
  315ccc     H4 8777   3.340   6.785  -0.493  2.2973 -1.2939  0.8833
  315ccc     H5 8778   3.619   6.792  -0.556  0.8700  0.6413  0.8261
  315ccc     O1 8779   3.734   6.931  -0.450 -0.3851  0.1559 -0.2707
  315ccc     O2 8780   3.512   6.741  -0.327  0.5242 -0.9667  0.2707
  315ccc     O3 8781   3.256   6.886  -0.328 -0.2626 -0.5427 -0.3770
  315ccc     O4 8782   3.350   7.125  -0.450  0.1345  0.1465  0.0168
  315ccc     C6 8783   3.408   7.113  -0.752  0.4062 -0.1340 -0.1627
  315ccc     H6 8784   3.267   6.978  -0.299 -1.7264 -0.1495 -0.9608
  315ccc     H7 8785   3.352   7.202  -0.510  0.5182  1.9448  2.2129
  315ccc     H8 8786   3.467   6.753  -0.241  0.9061 -0.5839  0.4180
  315ccc     H9 8787   3.303   7.109  -0.784  0.0931 -1.0934  0.9060
  315ccc    H10 8788   3.476   7.104  -0.837 -0.8664 -1.2694 -1.0986
  315ccc     O5 8789   3.421   7.238  -0.687  0.1789 -0.0503 -0.0706
  315ccc    H11 8790   3.512   7.235  -0.653  0.7236 -0.5924 -1.4960
  315ccc     O6 8791   3.566   6.996  -0.592  0.1243 -0.2087 -0.7194
  316ccc     C1 8792   5.536   6.844  -0.679  0.0033  0.2077 -0.3428
  316ccc     C2 8793   5.683   6.817  -0.643 -0.2207 -0.1071 -0.6504
  316ccc     H1 8794   5.541   6.938  -0.734 -0.3228  1.0223  0.9655
  316ccc     H2 8795   5.739   6.830  -0.737  1.4534  1.4302  0.4937
  316ccc     C3 8796   5.735   6.928  -0.543 -0.0330  0.1778  0.1133
  316ccc     C4 8797   5.642   6.947  -0.426 -0.4131  0.1441 -0.6642
  316ccc     C5 8798   5.494   6.957  -0.463 -0.1635 -0.3251  0.0973
  316ccc     H3 8799   5.649   6.857  -0.364  2.1343  0.2690 -0.6888
  316ccc     H4 8800   5.725   7.017  -0.607 -1.8749 -0.7451 -0.9839
  316ccc     H5 8801   5.476   7.057  -0.504 -0.4971 -1.1910 -1.9669
  316ccc     O1 8802   5.413   6.939  -0.344 -0.2365 -0.2429  0.1498
  316ccc     O2 8803   5.682   7.070  -0.355 -0.2106  0.3074  0.2360
  316ccc     O3 8804   5.876   6.922  -0.516  0.4154 -0.0856 -0.0250
  316ccc     O4 8805   5.691   6.686  -0.577 -0.0971 -0.0468  0.3626
  316ccc     C6 8806   5.487   6.733  -0.769 -0.6447  0.1464  0.7255
  316ccc     H6 8807   5.922   6.913  -0.600 -1.9243  0.7930 -1.5061
  316ccc     H7 8808   5.786   6.682  -0.554 -0.1180 -1.3905  0.3220
  316ccc     H8 8809   5.727   7.041  -0.274 -0.8925 -1.1683  0.1305
  316ccc     H9 8810   5.472   6.644  -0.707  1.4223 -0.9084 -0.1759
  316ccc    H10 8811   5.564   6.705  -0.842 -0.2813  3.1163 -0.1516
  316ccc     O5 8812   5.378   6.790  -0.834  0.3553  0.1198 -0.1494
  316ccc    H11 8813   5.303   6.778  -0.772  1.3161  0.4939  1.1333
  316ccc     O6 8814   5.450   6.859  -0.559  0.4626  0.3172 -0.2645
  317ccc     C1 8815   4.286   7.040   0.046 -0.3725 -0.6505 -0.6120
  317ccc     C2 8816   4.222   7.080   0.186 -0.2432 -0.6472  0.5956
  317ccc     H1 8817   4.265   6.934   0.027  4.2192 -1.6995 -1.0432
  317ccc     H2 8818   4.114   7.065   0.196 -0.5338  1.5039  1.1390
  317ccc     C3 8819   4.288   6.983   0.292  0.1784 -0.1345  0.4823
  317ccc     C4 8820   4.443   6.971   0.278  0.0882  0.3290 -0.9242
  317ccc     C5 8821   4.494   6.964   0.129 -0.3309 -0.5452  0.3007
  317ccc     H3 8822   4.479   7.069   0.311 -1.1928  0.2803  0.7853
  317ccc     H4 8823   4.232   6.893   0.264  0.9666 -1.0628  1.7848
  317ccc     H5 8824   4.477   6.866   0.084  1.9215 -0.0810 -1.7681
  317ccc     O1 8825   4.642   6.982   0.136  0.2635  0.3550 -0.1442
  317ccc     O2 8826   4.500   6.863   0.355  0.7730  0.0057 -0.5422
  317ccc     O3 8827   4.256   7.005   0.433 -0.1275  0.0955  0.1634
  317ccc     O4 8828   4.258   7.213   0.207 -0.5283  0.1940  0.0266
  317ccc     C6 8829   4.230   7.138  -0.059  0.8852  0.2287  0.0339
  317ccc     H6 8830   4.309   7.078   0.468  0.0421  0.2754 -0.4660
  317ccc     H7 8831   4.233   7.237   0.298  1.5011 -0.3243  0.7789
  317ccc     H8 8832   4.503   6.897   0.446 -0.8470 -2.1090  0.3819
  317ccc     H9 8833   4.275   7.238  -0.047 -0.0560  0.4596  2.1547
  317ccc    H10 8834   4.123   7.156  -0.043  0.2125 -2.1097 -1.3968
  317ccc     O5 8835   4.259   7.090  -0.188 -0.2636  0.2072  0.2940
  317ccc    H11 8836   4.287   6.999  -0.168 -0.9629  0.4525  2.5709
  317ccc     O6 8837   4.429   7.063   0.047 -0.7549 -0.4365 -0.5150
  318ccc     C1 8838   5.969   9.092   1.616 -0.7328 -0.2566 -0.3508
  318ccc     C2 8839   5.896   9.180   1.718  0.4315 -0.6084  0.3354
  318ccc     H1 8840   6.018   9.166   1.552 -2.5628 -0.3073 -1.9271
  318ccc     H2 8841   5.971   9.235   1.776 -1.4896  0.7853  1.6276
  318ccc     C3 8842   5.799   9.278   1.655  0.3906 -0.6709  0.5050
  318ccc     C4 8843   5.702   9.210   1.556 -0.2891 -0.6582 -0.3293
  318ccc     C5 8844   5.785   9.124   1.458  0.1872 -0.0902  0.4417
  318ccc     H3 8845   5.641   9.145   1.620 -0.9209  0.8391  0.6542
  318ccc     H4 8846   5.865   9.345   1.598  0.2500  0.8520  2.0723
  318ccc     H5 8847   5.839   9.196   1.396  0.4916 -2.6308 -2.5035
  318ccc     O1 8848   5.693   9.053   1.377 -0.0586  0.3710  0.5496
  318ccc     O2 8849   5.614   9.307   1.484 -0.0971  0.1663 -0.2031
  318ccc     O3 8850   5.731   9.363   1.755  0.1170 -0.1342  0.3309
  318ccc     O4 8851   5.828   9.093   1.807 -0.1958 -0.7063 -0.3032
  318ccc     C6 8852   6.079   9.001   1.671  0.1564 -0.1951  0.1194
  318ccc     H6 8853   5.723   9.306   1.834  1.6495  1.6298  1.8726
  318ccc     H7 8854   5.867   9.005   1.789  0.3233  0.0699 -3.5803
  318ccc     H8 8855   5.554   9.334   1.555 -2.9035 -3.2898 -0.9758
  318ccc     H9 8856   6.137   9.066   1.737 -1.0848  2.2776 -1.1160
  318ccc    H10 8857   6.138   8.960   1.588 -2.2305  0.0139 -1.7846
  318ccc     O5 8858   6.003   8.900   1.737  0.2513  0.3020 -0.4402
  318ccc    H11 8859   6.070   8.862   1.797  1.3030  0.0259 -1.7126
  318ccc     O6 8860   5.866   9.030   1.529 -0.0079  0.4026 -0.2751
  319ccc     C1 8861   5.294   8.662   0.483  0.4320  0.3649  0.3900
  319ccc     C2 8862   5.340   8.527   0.418  0.4035 -0.6417  0.4691
  319ccc     H1 8863   5.341   8.744   0.429  0.8573  0.1451  0.4181
  319ccc     H2 8864   5.309   8.532   0.313 -1.6868 -2.8021  0.8888
  319ccc     C3 8865   5.497   8.512   0.414  0.2214 -0.1252 -0.2456
  319ccc     C4 8866   5.545   8.527   0.563 -0.2397 -0.0092  0.6641
  319ccc     C5 8867   5.485   8.663   0.626  0.4428  0.2428  0.2684
  319ccc     H3 8868   5.502   8.441   0.614  0.0793 -0.7560 -0.3052
  319ccc     H4 8869   5.543   8.594   0.358  0.8787 -0.6650 -0.5139
  319ccc     H5 8870   5.523   8.749   0.569  2.8182  0.0636  1.4669
  319ccc     O1 8871   5.518   8.671   0.765  0.1113  0.3705 -0.8716
  319ccc     O2 8872   5.688   8.507   0.573 -0.5486  0.2428 -0.0093
  319ccc     O3 8873   5.526   8.384   0.352  0.2571 -0.2133 -0.1130
  319ccc     O4 8874   5.271   8.422   0.480 -0.0577 -0.5078  0.4352
  319ccc     C6 8875   5.138   8.683   0.485  0.0884 -0.3932 -0.4321
  319ccc     H6 8876   5.526   8.316   0.421  1.1200 -1.3412 -1.1897
  319ccc     H7 8877   5.188   8.471   0.497  0.4922  1.4505 -1.9862
  319ccc     H8 8878   5.699   8.437   0.639 -0.3467  0.7662  0.5198
  319ccc     H9 8879   5.103   8.700   0.383 -1.5683 -0.9827  0.0185
  319ccc    H10 8880   5.129   8.777   0.540 -1.2021 -1.4856  1.3217
  319ccc     O5 8881   5.073   8.587   0.548 -0.3781 -0.3663  0.3026
  319ccc    H11 8882   4.975   8.585   0.549 -0.3635 -1.2515  1.1437
  319ccc     O6 8883   5.344   8.659   0.616  0.3108  0.2459  0.3258
  320ccc     C1 8884   5.897   8.589   2.952 -0.3668  0.0101  0.2187
  320ccc     C2 8885   5.875   8.520   3.087  0.0377  0.6937  0.0571
  320ccc     H1 8886   5.920   8.696   2.964  0.0929 -0.2192  1.5385
  320ccc     H2 8887   5.968   8.540   3.142  0.1362  0.8059 -0.1502
  320ccc     C3 8888   5.754   8.583   3.151 -0.1948 -0.1750 -0.4038
  320ccc     C4 8889   5.623   8.586   3.071  0.2265  0.0621 -0.0746
  320ccc     C5 8890   5.656   8.641   2.936 -0.3855  0.4227  0.0168
  320ccc     H3 8891   5.592   8.481   3.063  1.2894 -0.2316 -0.5343
  320ccc     H4 8892   5.783   8.687   3.172  1.8981 -0.6724 -0.5737
  320ccc     H5 8893   5.668   8.750   2.947 -0.1473  0.5804 -1.5819
  320ccc     O1 8894   5.540   8.616   2.848 -0.1164  0.0153  0.0785
  320ccc     O2 8895   5.519   8.668   3.134  0.1440 -0.0410  0.8699
  320ccc     O3 8896   5.730   8.528   3.281 -0.5309  0.2927  0.1300
  320ccc     O4 8897   5.860   8.371   3.073 -0.5551 -0.2413 -0.2562
  320ccc     C6 8898   6.018   8.536   2.872 -0.0577 -0.1465 -0.1554
  320ccc     H6 8899   5.696   8.438   3.269  0.7326 -0.0024 -1.5351
  320ccc     H7 8900   5.909   8.372   2.989 -1.0946  1.2690 -0.5760
  320ccc     H8 8901   5.510   8.623   3.220  1.1495  1.7894  1.9971
  320ccc     H9 8902   6.114   8.559   2.920 -1.1163  0.1157  1.9322
  320ccc    H10 8903   6.015   8.578   2.770 -1.5228 -0.9833 -0.4949
  320ccc     O5 8904   6.013   8.393   2.869 -0.1420 -0.0883 -0.4813
  320ccc    H11 8905   6.102   8.369   2.837 -0.5530  1.4302 -3.0441
  320ccc     O6 8906   5.773   8.576   2.877  0.0120  0.0031  0.0389
  321ccc     C1 8907   4.597   8.402   2.454 -0.3576  0.5712  0.3428
  321ccc     C2 8908   4.502   8.507   2.522 -0.0692  0.1583 -0.0798
  321ccc     H1 8909   4.594   8.305   2.505 -1.3763 -0.4399 -1.5373
  321ccc     H2 8910   4.401   8.466   2.518  0.3376 -1.0518  1.2147
  321ccc     C3 8911   4.544   8.536   2.667 -0.6120  0.3700 -0.0388
  321ccc     C4 8912   4.694   8.570   2.675 -0.3682 -0.5747 -0.3703
  321ccc     C5 8913   4.782   8.466   2.594 -0.7594  0.1530  0.1819
  321ccc     H3 8914   4.695   8.668   2.626  0.9443 -0.5883 -0.4160
  321ccc     H4 8915   4.527   8.444   2.725  0.0589  0.8936  1.0309
  321ccc     H5 8916   4.797   8.369   2.642 -0.2132 -0.9095 -1.9875
  321ccc     O1 8917   4.910   8.532   2.577 -0.2291  0.5500 -0.2344
  321ccc     O2 8918   4.745   8.587   2.816  0.6784  0.0443 -0.1903
  321ccc     O3 8919   4.469   8.643   2.718 -0.4888 -0.0350  0.1719
  321ccc     O4 8920   4.508   8.634   2.457 -0.1172 -0.1489  0.5302
  321ccc     C6 8921   4.566   8.375   2.308 -0.5948  0.1126  0.0983
  321ccc     H6 8922   4.466   8.623   2.813  1.9106  2.4780  0.9185
  321ccc     H7 8923   4.499   8.702   2.525  0.8396  0.3606  0.1533
  321ccc     H8 8924   4.842   8.577   2.806  0.5166 -0.9736 -0.8893
  321ccc     H9 8925   4.470   8.323   2.302 -0.2910 -0.3134 -1.6629
  321ccc    H10 8926   4.641   8.300   2.281 -2.6024 -1.2830 -1.9727
  321ccc     O5 8927   4.570   8.501   2.235  0.1014 -0.3118  0.8118
  321ccc    H11 8928   4.570   8.563   2.310  1.7312  1.4559 -0.5571
  321ccc     O6 8929   4.731   8.448   2.463  0.1995  0.5352  0.1700
  322ccc     C1 8930   2.977   6.914   3.886  0.6243  0.2137  0.4997
  322ccc     C2 8931   2.951   7.072   3.900  0.4096  0.2069  0.4767
  322ccc     H1 8932   2.972   6.864   3.984 -0.0112 -0.0924  0.3137
  322ccc     H2 8933   2.850   7.093   3.936 -0.6850 -1.7689 -1.2025
  322ccc     C3 8934   3.058   7.137   3.987 -0.4885 -0.6144 -0.3978
  322ccc     C4 8935   3.211   7.098   3.958  0.3991 -0.2936 -0.4956
  322ccc     C5 8936   3.219   6.945   3.934 -0.2924  0.1941  0.7491
  322ccc     H3 8937   3.241   7.145   3.864  1.4833  0.8782  0.4157
  322ccc     H4 8938   3.032   7.081   4.078  0.4252  1.2760  1.1172
  322ccc     H5 8939   3.199   6.901   4.033 -0.0255  0.1456  0.7830
  322ccc     O1 8940   3.353   6.914   3.885 -0.2340  0.8629 -0.1516
  322ccc     O2 8941   3.287   7.138   4.078  0.2799  0.1310  0.2421
  322ccc     O3 8942   3.035   7.281   4.003  0.3698 -0.4386  0.3931
  322ccc     O4 8943   2.961   7.116   3.765 -0.2375  0.2875  0.2910
  322ccc     C6 8944   2.880   6.825   3.795  0.2149  0.0576 -0.2215
  322ccc     H6 8945   3.089   7.312   4.077  0.3233  0.4663  0.0604
  322ccc     H7 8946   2.955   7.035   3.711  2.4845  1.3763 -1.9070
  322ccc     H8 8947   3.362   7.184   4.037  1.2308 -0.3356  1.3765
  322ccc     H9 8948   2.776   6.855   3.809  0.1748 -0.3134  0.2911
  322ccc    H10 8949   2.888   6.717   3.815 -0.5247 -0.1463 -0.9740
  322ccc     O5 8950   2.926   6.859   3.665 -0.6830  0.5526  0.4338
  322ccc    H11 8951   2.863   6.819   3.602  1.1638 -1.5663 -0.1970
  322ccc     O6 8952   3.114   6.894   3.843  0.2207 -0.2539  0.4491
  323ccc     C1 8953   3.472   6.413   3.785  0.3217 -0.3796  0.6843
  323ccc     C2 8954   3.320   6.406   3.818 -0.2386 -0.4987 -0.2557
  323ccc     H1 8955   3.517   6.479   3.861  1.3624  1.1439 -1.1564
  323ccc     H2 8956   3.302   6.388   3.925  0.2238 -0.2617 -0.1374
  323ccc     C3 8957   3.250   6.538   3.772  0.8133 -0.1817 -0.1242
  323ccc     C4 8958   3.277   6.567   3.625  0.4340  0.2371 -0.3632
  323ccc     C5 8959   3.434   6.581   3.611 -0.2112  0.3014 -0.0102
  323ccc     H3 8960   3.241   6.484   3.564  1.2048 -0.2620 -0.1476
  323ccc     H4 8961   3.273   6.626   3.834 -2.2782  1.7444 -1.4220
  323ccc     H5 8962   3.479   6.662   3.669 -1.4458 -0.1681  1.6710
  323ccc     O1 8963   3.462   6.599   3.471 -0.1209 -0.3962  0.0728
  323ccc     O2 8964   3.213   6.694   3.597 -0.1654 -0.0784  0.3650
  323ccc     O3 8965   3.101   6.523   3.776 -0.3073  0.2933 -0.2288
  323ccc     O4 8966   3.273   6.297   3.748 -0.5198 -0.0529  0.2651
  323ccc     C6 8967   3.554   6.288   3.804  0.2393  0.5308 -0.0531
  323ccc     H6 8968   3.077   6.514   3.870  2.7356  2.1499  0.8653
  323ccc     H7 8969   3.181   6.284   3.775  0.3873 -2.1042  2.8000
  323ccc     H8 8970   3.160   6.723   3.674  1.6178 -0.4303  1.7980
  323ccc     H9 8971   3.546   6.276   3.913 -2.3975  1.1479 -0.1033
  323ccc    H10 8972   3.662   6.305   3.796  0.1039  1.0764 -0.7668
  323ccc     O5 8973   3.505   6.181   3.724 -0.1509 -0.0827  0.3943
  323ccc    H11 8974   3.414   6.217   3.728  0.4222  1.4565  0.4749
  323ccc     O6 8975   3.492   6.450   3.642  0.4823  0.0483  0.2790
  324ccc     C1 8976   4.934   8.313   3.982 -0.3131  0.8055  0.5048
  324ccc     C2 8977   5.063   8.260   3.920 -0.3967 -0.0326 -0.0174
  324ccc     H1 8978   4.887   8.237   4.045  1.6969 -0.2274  0.8483
  324ccc     H2 8979   5.127   8.211   3.994 -0.5599  0.0960  0.2103
  324ccc     C3 8980   5.042   8.162   3.802  0.0890  0.2050  0.4142
  324ccc     C4 8981   4.944   8.221   3.694 -0.2715  0.3651  0.7915
  324ccc     C5 8982   4.818   8.266   3.770  0.1914  0.1916  0.2941
  324ccc     H3 8983   4.986   8.318   3.665 -1.6981  0.1452 -2.4613
  324ccc     H4 8984   4.993   8.079   3.855  2.3116  0.2323  2.6823
  324ccc     H5 8985   4.762   8.186   3.821 -2.0134  1.2298 -0.3680
  324ccc     O1 8986   4.729   8.334   3.683  0.0670  0.4592 -0.2300
  324ccc     O2 8987   4.913   8.126   3.584 -0.2585 -0.5884 -0.2506
  324ccc     O3 8988   5.170   8.120   3.742  0.3982 -0.0076  0.0639
  324ccc     O4 8989   5.138   8.363   3.868  0.0626 -0.5751 -0.2721
  324ccc     C6 8990   4.961   8.427   4.081  0.4221 -0.1671  0.2013
  324ccc     H6 8991   5.140   8.047   3.684  0.2357  0.5739 -0.5929
  324ccc     H7 8992   5.182   8.400   3.947 -3.6681  0.5124  1.5433
  324ccc     H8 8993   4.962   8.177   3.517 -1.5219 -0.9688 -1.4838
  324ccc     H9 8994   5.019   8.508   4.035  0.1930  0.2686  0.6770
  324ccc    H10 8995   5.026   8.388   4.160  0.7307 -0.0110  0.0289
  324ccc     O5 8996   4.833   8.477   4.137 -0.2452  0.1082  0.1854
  324ccc    H11 8997   4.851   8.533   4.215  1.8604  0.7200 -0.6460
  324ccc     O6 8998   4.856   8.361   3.870  0.3514  0.0822  0.3080
  325ccc     C1 8999   4.265   8.202   2.929  1.1659  0.1305 -0.5735
  325ccc     C2 9000   4.183   8.197   2.798  0.3670  0.2720  0.4202
  325ccc     H1 9001   4.228   8.138   3.011 -1.2508  1.8983 -0.1588
  325ccc     H2 9002   4.179   8.092   2.768  0.7374  0.1121  0.9204
  325ccc     C3 9003   4.037   8.252   2.810  0.2201 -0.1648 -0.0369
  325ccc     C4 9004   4.047   8.392   2.876  0.6821 -1.0236 -0.2850
  325ccc     C5 9005   4.128   8.388   3.011  0.1536  1.1955 -0.1604
  325ccc     H3 9006   4.110   8.455   2.811  1.1519  3.0468  3.5977
  325ccc     H4 9007   3.983   8.185   2.879  1.0942 -3.4567 -2.3364
  325ccc     H5 9008   4.083   8.312   3.076  1.9349  1.8728  1.9808
  325ccc     O1 9009   4.148   8.521   3.073 -0.2837 -0.5756  0.4918
  325ccc     O2 9010   3.923   8.454   2.899  0.2172 -0.1267 -0.6999
  325ccc     O3 9011   3.980   8.247   2.679  0.4400  0.0542 -0.0423
  325ccc     O4 9012   4.251   8.281   2.700 -0.5786 -0.2615 -0.1934
  325ccc     C6 9013   4.413   8.165   2.912  1.1091  0.1225  0.7601
  325ccc     H6 9014   3.883   8.256   2.681  0.5003  1.2090 -1.1192
  325ccc     H7 9015   4.342   8.266   2.732 -0.5399  1.7143  0.7231
  325ccc     H8 9016   3.937   8.539   2.854  1.2620  0.1081  0.0487
  325ccc     H9 9017   4.423   8.057   2.929  2.2841  0.2737  1.1453
  325ccc    H10 9018   4.463   8.223   2.990 -1.4676  2.8031  0.5930
  325ccc     O5 9019   4.473   8.201   2.789 -0.0936 -0.2035  0.3281
  325ccc    H11 9020   4.570   8.202   2.798 -0.0234 -1.0090 -0.2003
  325ccc     O6 9021   4.260   8.340   2.973 -1.0716 -0.5823 -0.0875
  326ccc     C1 9022   5.050   6.217   1.425 -0.4057  0.4506  0.4096
  326ccc     C2 9023   4.939   6.171   1.339  0.1818  0.5028 -0.2894
  326ccc     H1 9024   5.008   6.203   1.525  0.6143 -0.0507  0.7791
  326ccc     H2 9025   4.918   6.068   1.371  2.3072 -0.2683 -1.1502
  326ccc     C3 9026   4.810   6.264   1.334  0.2597 -0.0103 -0.0312
  326ccc     C4 9027   4.844   6.417   1.313  0.3511  0.9607 -0.0166
  326ccc     C5 9028   4.958   6.450   1.413  0.1521 -0.0393  0.2415
  326ccc     H3 9029   4.894   6.426   1.216  1.3147 -0.9920  0.2364
  326ccc     H4 9030   4.752   6.248   1.426  1.2666 -0.1387  0.5985
  326ccc     H5 9031   4.929   6.444   1.518  1.6285 -3.2893  0.5758
  326ccc     O1 9032   4.996   6.587   1.391 -0.0056 -0.3818 -0.0323
  326ccc     O2 9033   4.718   6.496   1.328  0.2131  0.3693  0.8291
  326ccc     O3 9034   4.742   6.208   1.221 -0.0012  1.1595 -0.0184
  326ccc     O4 9035   4.991   6.152   1.208 -0.5210 -0.0360  0.0857
  326ccc     C6 9036   5.178   6.142   1.413  0.3999 -0.1085  0.3155
  326ccc     H6 9037   4.652   6.238   1.245 -0.1745  0.6082  0.0375
  326ccc     H7 9038   4.905   6.168   1.165 -0.7202  2.1399  1.1700
  326ccc     H8 9039   4.737   6.578   1.280 -0.2519 -0.0971 -0.1789
  326ccc     H9 9040   5.157   6.034   1.411  3.1618 -0.7347  0.8074
  326ccc    H10 9041   5.245   6.147   1.500  0.8275 -0.9843  0.0520
  326ccc     O5 9042   5.243   6.168   1.288  0.0471 -0.2026  0.3735
  326ccc    H11 9043   5.165   6.198   1.239  0.6915 -1.0231 -1.2059
  326ccc     O6 9044   5.072   6.361   1.402 -0.0680 -0.0694  0.8133
  327ccc     C1 9045   5.772   6.763   1.622 -0.2192 -0.4517  0.3558
  327ccc     C2 9046   5.927   6.800   1.627 -1.3154  0.4544  0.0554
  327ccc     H1 9047   5.765   6.654   1.620 -0.0454 -0.4586 -0.1906
  327ccc     H2 9048   5.977   6.740   1.704 -2.7050  0.0815  0.6861
  327ccc     C3 9049   5.995   6.778   1.491  0.3046 -0.2938  0.4360
  327ccc     C4 9050   5.906   6.830   1.368  0.3426  0.0759  0.0579
  327ccc     C5 9051   5.759   6.795   1.380 -0.1235 -0.1384 -0.4391
  327ccc     H3 9052   5.899   6.939   1.371 -2.3872 -0.0102 -0.6522
  327ccc     H4 9053   5.990   6.670   1.474 -1.1002 -0.2160  0.2643
  327ccc     H5 9054   5.744   6.689   1.357 -0.8864 -0.2515  0.5108
  327ccc     O1 9055   5.686   6.868   1.274 -0.0146 -0.2259 -0.8545
  327ccc     O2 9056   5.956   6.784   1.239  0.5888 -0.2088 -0.0979
  327ccc     O3 9057   6.131   6.821   1.498  0.7983  0.3352  0.3837
  327ccc     O4 9058   5.934   6.938   1.656  0.0578  0.1531 -0.5552
  327ccc     C6 9059   5.700   6.793   1.754 -0.2518  0.4079  0.3977
  327ccc     H6 9060   6.125   6.907   1.542 -1.9529 -0.6299  2.2237
  327ccc     H7 9061   5.849   6.937   1.704  0.0532 -0.8485 -0.5732
  327ccc     H8 9062   5.921   6.855   1.182  0.2158 -0.9205 -0.7726
  327ccc     H9 9063   5.747   6.727   1.828  1.8796  1.3681 -0.0236
  327ccc    H10 9064   5.594   6.766   1.747 -0.2555 -0.0870  2.0037
  327ccc     O5 9065   5.717   6.924   1.796  0.0729 -0.3921  0.3821
  327ccc    H11 9066   5.649   6.938   1.865 -1.6061 -0.3009 -1.2093
  327ccc     O6 9067   5.708   6.833   1.513  0.1489  0.6100 -0.6630
  328ccc     C1 9068   4.604   7.330   0.250  0.1059  0.0271  0.5655
  328ccc     C2 9069   4.636   7.316   0.095  0.5207  1.3582  0.4009
  328ccc     H1 9070   4.519   7.267   0.280  0.4428  0.1262  1.8109
  328ccc     H2 9071   4.626   7.210   0.072  0.4973  1.2931  0.7101
  328ccc     C3 9072   4.528   7.381   0.003  0.2385 -0.5850  0.0858
  328ccc     C4 9073   4.490   7.519   0.059  0.3477 -1.2519  0.6486
  328ccc     C5 9074   4.459   7.523   0.213 -0.6703  0.2818 -0.2175
  328ccc     H3 9075   4.574   7.585   0.036  0.4188 -1.6776 -0.3747
  328ccc     H4 9076   4.442   7.315   0.019 -2.1503  2.1411 -0.6408
  328ccc     H5 9077   4.358   7.481   0.216 -0.3326 -0.8634 -2.2660
  328ccc     O1 9078   4.462   7.661   0.258 -0.0556  0.1072 -0.1021
  328ccc     O2 9079   4.376   7.573  -0.017 -0.5533 -0.0050  0.0562
  328ccc     O3 9080   4.579   7.375  -0.132 -0.6749 -0.2965  0.2926
  328ccc     O4 9081   4.766   7.369   0.074 -0.3958  0.1064  0.3186
  328ccc     C6 9082   4.724   7.275   0.339  0.2068  0.1304  0.2006
  328ccc     H6 9083   4.498   7.383  -0.184 -1.7172 -3.3644  1.2262
  328ccc     H7 9084   4.765   7.364  -0.023  0.6048  3.9685 -0.0353
  328ccc     H8 9085   4.411   7.657  -0.052  1.4646 -0.9425 -0.3342
  328ccc     H9 9086   4.791   7.360   0.361 -1.6074  1.3730  1.1190
  328ccc    H10 9087   4.776   7.192   0.289 -0.0211 -0.4341  0.8867
  328ccc     O5 9088   4.664   7.224   0.461  0.0145 -0.3114  0.2043
  328ccc    H11 9089   4.743   7.213   0.517  0.7559  2.6336 -0.1195
  328ccc     O6 9090   4.563   7.462   0.287 -0.0222 -0.2619 -0.0191
  329ccc     C1 9091   4.455   8.710   0.657 -0.6107 -0.9101 -0.2418
  329ccc     C2 9092   4.569   8.810   0.645 -0.0946  0.0537  0.0739
  329ccc     H1 9093   4.476   8.654   0.749  0.5425  1.8010  1.2620
  329ccc     H2 9094   4.584   8.875   0.732  0.1780  0.4785 -0.2872
  329ccc     C3 9095   4.712   8.740   0.620 -1.0025  0.1607  0.3180
  329ccc     C4 9096   4.693   8.628   0.511 -0.5021  0.1346  0.0788
  329ccc     C5 9097   4.573   8.536   0.535 -0.3703 -0.5569  0.2023
  329ccc     H3 9098   4.672   8.690   0.422 -1.0753 -0.6582 -0.3568
  329ccc     H4 9099   4.744   8.700   0.716 -0.5876  2.9002  1.4126
  329ccc     H5 9100   4.597   8.479   0.626 -0.2834 -1.3197 -0.2851
  329ccc     O1 9101   4.559   8.435   0.430 -0.6397  0.1090  0.4802
  329ccc     O2 9102   4.812   8.547   0.498 -0.4396 -0.0594  0.1326
  329ccc     O3 9103   4.805   8.842   0.584  0.4435 -0.1547 -0.0228
  329ccc     O4 9104   4.546   8.892   0.538  0.6374 -0.2510  0.1126
  329ccc     C6 9105   4.309   8.758   0.674 -0.0376 -0.0844 -0.4113
  329ccc     H6 9106   4.885   8.833   0.638 -0.0590 -2.2065  0.4670
  329ccc     H7 9107   4.450   8.883   0.529  0.2636  1.4464  1.7850
  329ccc     H8 9108   4.804   8.533   0.403 -1.3611  1.2497 -0.0082
  329ccc     H9 9109   4.292   8.817   0.765  0.8724  0.9968 -0.9142
  329ccc    H10 9110   4.243   8.671   0.683 -1.8891  1.3159  0.2431
  329ccc     O5 9111   4.269   8.844   0.567  0.0636 -0.1371  0.1040
  329ccc    H11 9112   4.203   8.906   0.603 -2.0250 -0.4207 -2.8575
  329ccc     O6 9113   4.452   8.619   0.544 -0.5581 -0.4676 -0.2325
  330ccc     C1 9114   4.570   5.287   2.539  0.2935  0.3933  0.2725
  330ccc     C2 9115   4.566   5.378   2.655  0.4566 -0.5634 -0.8465
  330ccc     H1 9116   4.673   5.303   2.503 -0.2050 -0.3864 -1.6065
  330ccc     H2 9117   4.648   5.356   2.725 -0.8819 -1.4344  0.5052
  330ccc     C3 9118   4.566   5.531   2.618 -0.5143 -0.6617  0.7917
  330ccc     C4 9119   4.440   5.560   2.532 -0.5002  0.5986  0.1785
  330ccc     C5 9120   4.445   5.467   2.404 -0.1997 -0.5657  0.0163
  330ccc     H3 9121   4.352   5.537   2.594 -0.4133 -0.1174  0.0417
  330ccc     H4 9122   4.657   5.540   2.559 -0.7420 -0.1167  0.5140
  330ccc     H5 9123   4.539   5.496   2.356 -0.9228  1.3272 -0.3445
  330ccc     O1 9124   4.337   5.492   2.310 -0.1194 -0.2542  0.0565
  330ccc     O2 9125   4.439   5.701   2.496 -0.0506  0.7368  0.4878
  330ccc     O3 9126   4.570   5.626   2.716 -0.0917 -0.2169 -0.2579
  330ccc     O4 9127   4.445   5.341   2.722  0.0841  0.0979 -0.1380
  330ccc     C6 9128   4.563   5.133   2.562 -0.4341 -0.5259  0.8618
  330ccc     H6 9129   4.556   5.578   2.799  0.3900 -2.0343 -1.1689
  330ccc     H7 9130   4.439   5.247   2.699  1.7852 -0.0461 -0.1473
  330ccc     H8 9131   4.479   5.735   2.579 -0.1696 -0.6276  1.1313
  330ccc     H9 9132   4.666   5.103   2.585  0.3825  2.1612  1.0585
  330ccc    H10 9133   4.533   5.087   2.467  0.3670 -0.5162  0.5933
  330ccc     O5 9134   4.480   5.101   2.666 -0.8909  0.1256 -0.2390
  330ccc    H11 9135   4.504   5.010   2.692  0.3250  0.9383  1.7196
  330ccc     O6 9136   4.470   5.327   2.434 -0.4770 -0.4741  0.0676
  331ccc     C1 9137   4.812   5.325   1.389  0.4955  0.1644 -0.3882
  331ccc     C2 9138   4.945   5.304   1.468 -0.3727  0.0540 -0.2548
  331ccc     H1 9139   4.833   5.391   1.304 -2.0840  0.7916 -0.6212
  331ccc     H2 9140   5.023   5.262   1.403  1.0036  2.6501 -0.4108
  331ccc     C3 9141   4.998   5.448   1.503 -0.2416 -0.2432  0.0880
  331ccc     C4 9142   4.892   5.534   1.583  0.6233  0.5198 -0.1378
  331ccc     C5 9143   4.753   5.534   1.512  0.2641 -0.1151  0.0421
  331ccc     H3 9144   4.881   5.478   1.677  0.7340  0.8991  0.1006
  331ccc     H4 9145   5.018   5.508   1.414 -1.6147  0.9014  0.5017
  331ccc     H5 9146   4.760   5.599   1.424  1.4275  0.2695  0.4137
  331ccc     O1 9147   4.651   5.581   1.611  0.2354 -0.0170 -0.5328
  331ccc     O2 9148   4.946   5.671   1.604  0.6473  0.5400  0.2891
  331ccc     O3 9149   5.108   5.427   1.590  0.2138  0.3718  0.0905
  331ccc     O4 9150   4.924   5.226   1.584  0.0014 -0.4735  0.2766
  331ccc     C6 9151   4.726   5.213   1.330 -0.1007  0.3020 -0.6604
  331ccc     H6 9152   5.109   5.494   1.661 -1.4375 -0.7641  1.2569
  331ccc     H7 9153   5.003   5.245   1.638 -0.6722 -1.1241  1.5122
  331ccc     H8 9154   4.896   5.703   1.682 -0.9605  1.9469 -1.2368
  331ccc     H9 9155   4.782   5.169   1.247  0.5145 -1.3675  0.5654
  331ccc    H10 9156   4.622   5.239   1.307 -0.7485 -0.5585  1.0864
  331ccc     O5 9157   4.716   5.121   1.444  0.2245 -0.0085  0.0098
  331ccc    H11 9158   4.780   5.167   1.502 -0.6066  2.6363 -0.9912
  331ccc     O6 9159   4.722   5.401   1.472 -0.0043  1.0991  0.7089
  332ccc     C1 9160   3.953   5.643   2.479  0.2910  0.5556  0.6293
  332ccc     C2 9161   3.845   5.626   2.587 -1.3232 -0.8215 -0.6275
  332ccc     H1 9162   4.034   5.705   2.519 -2.6286  5.4462 -0.0982
  332ccc     H2 9163   3.896   5.586   2.676 -1.6483  0.3850  0.1266
  332ccc     C3 9164   3.793   5.768   2.630 -0.0569  1.2318 -0.2158
  332ccc     C4 9165   3.737   5.847   2.500 -0.7228 -0.3259  0.0821
  332ccc     C5 9166   3.844   5.846   2.383  0.0190 -0.3154  0.6988
  332ccc     H3 9167   3.650   5.794   2.459 -0.2754  1.1770 -3.1278
  332ccc     H4 9168   3.879   5.822   2.672  0.8545 -1.3153  1.4592
  332ccc     H5 9169   3.928   5.916   2.388  0.1884 -0.0116 -3.3732
  332ccc     O1 9170   3.769   5.871   2.258 -0.1344 -0.1180 -0.3362
  332ccc     O2 9171   3.710   5.985   2.531  0.1603  0.4821 -0.2216
  332ccc     O3 9172   3.682   5.750   2.726 -0.1701 -0.1419  0.1752
  332ccc     O4 9173   3.741   5.538   2.541  0.0016  0.0745  0.2741
  332ccc     C6 9174   3.996   5.508   2.423  0.0885  0.4989  0.4554
  332ccc     H6 9175   3.646   5.837   2.752 -2.9443 -1.0960 -0.1538
  332ccc     H7 9176   3.685   5.531   2.620 -1.5456  0.4488 -0.7475
  332ccc     H8 9177   3.617   5.981   2.557 -0.5403 -0.9546 -2.6196
  332ccc     H9 9178   4.027   5.453   2.513 -0.2345  1.3274  1.0828
  332ccc    H10 9179   4.082   5.520   2.356  0.2081 -1.9818  0.0527
  332ccc     O5 9180   3.893   5.433   2.363  0.4477 -0.5753  0.1356
  332ccc    H11 9181   3.816   5.467   2.411  0.3372  0.6006 -0.8442
  332ccc     O6 9182   3.893   5.714   2.370  0.3363 -0.0237  0.5123
  333ccc     C1 9183   2.906   5.838   2.231  0.5408  0.0880 -0.0070
  333ccc     C2 9184   2.829   5.835   2.101 -0.6774  0.2374  1.0236
  333ccc     H1 9185   2.860   5.902   2.306 -0.5830  0.2332 -0.8006
  333ccc     H2 9186   2.733   5.781   2.107 -1.4060  1.1539 -1.2335
  333ccc     C3 9187   2.813   5.969   2.028  0.0156  0.8582 -0.6021
  333ccc     C4 9188   2.952   6.034   2.011  0.0159 -0.3384  0.3398
  333ccc     C5 9189   3.040   6.022   2.136 -0.1741 -0.1008  0.3634
  333ccc     H3 9190   3.004   5.984   1.929 -0.4325 -0.1489 -0.0669
  333ccc     H4 9191   2.755   6.028   2.100  1.2151 -0.6069  1.6989
  333ccc     H5 9192   3.012   6.097   2.211 -0.1381  0.9064 -0.5962
  333ccc     O1 9193   3.184   6.046   2.084  0.6431  0.5071 -0.3028
  333ccc     O2 9194   2.933   6.177   1.986  0.9062 -0.0411  0.2994
  333ccc     O3 9195   2.748   5.966   1.897 -0.3333 -0.0103 -0.7846
  333ccc     O4 9196   2.910   5.747   2.015  0.2972  0.1320 -0.2375
  333ccc     C6 9197   2.915   5.715   2.309 -0.0501 -0.1521 -0.3215
  333ccc     H6 9198   2.653   5.945   1.909 -0.3559 -0.1367 -1.1542
  333ccc     H7 9199   2.865   5.718   1.934  2.0911 -1.5536 -0.7116
  333ccc     H8 9200   3.013   6.211   1.943  0.8295  0.9781  0.9285
  333ccc     H9 9201   2.989   5.646   2.266 -0.6027 -1.5382  0.8856
  333ccc    H10 9202   2.823   5.655   2.300  1.3608 -2.1058 -3.1457
  333ccc     O5 9203   2.942   5.750   2.441  0.5665  0.2088  0.2366
  333ccc    H11 9204   2.988   5.673   2.480  0.1274  1.2203  3.0185
  333ccc     O6 9205   3.031   5.896   2.210  0.4355  0.1625 -0.1823
  334ccc     C1 9206   7.527   8.711   1.860 -0.4635 -0.5138  0.6440
  334ccc     C2 9207   7.536   8.683   2.009  0.0993  0.0097 -0.1445
  334ccc     H1 9208   7.466   8.630   1.818  0.9083 -0.6365 -1.2652
  334ccc     H2 9209   7.432   8.695   2.043  0.6836 -0.0024  1.7912
  334ccc     C3 9210   7.597   8.545   2.040  0.2400 -0.2621 -0.2050
  334ccc     C4 9211   7.730   8.525   1.960  0.5061 -0.8449  0.5233
  334ccc     C5 9212   7.718   8.562   1.808 -0.7545 -0.5557  0.3289
  334ccc     H3 9213   7.815   8.580   2.002 -0.5788  1.8466 -0.6179
  334ccc     H4 9214   7.525   8.466   2.014  0.7111 -1.0206  0.7458
  334ccc     H5 9215   7.658   8.488   1.754 -0.6067  1.5317 -2.9520
  334ccc     O1 9216   7.858   8.575   1.753  0.4704  0.3519  0.4346
  334ccc     O2 9217   7.756   8.385   1.964  0.3053 -0.3246 -0.1033
  334ccc     O3 9218   7.613   8.524   2.186  0.3481  0.0005 -0.2628
  334ccc     O4 9219   7.616   8.792   2.063 -0.1730 -0.0851  0.0438
  334ccc     C6 9220   7.466   8.840   1.811  0.1332  0.4406 -0.6770
  334ccc     H6 9221   7.669   8.447   2.203 -0.7068 -0.7055  0.1525
  334ccc     H7 9222   7.585   8.853   1.994 -2.4563 -2.1130 -0.8687
  334ccc     H8 9223   7.848   8.362   1.942  0.7137 -0.2633  1.3973
  334ccc     H9 9224   7.360   8.845   1.837  0.6650 -0.3169  1.9458
  334ccc    H10 9225   7.471   8.873   1.707 -0.1086  2.1522 -0.1890
  334ccc     O5 9226   7.525   8.948   1.887 -0.1893 -0.2404  0.4574
  334ccc    H11 9227   7.496   9.032   1.847  2.3828  1.0766  1.1780
  334ccc     O6 9228   7.660   8.689   1.802  0.5915  0.3498  0.0271
  335ccc     C1 9229   7.600   8.085   0.725 -0.1830  0.4224 -1.1076
  335ccc     C2 9230   7.552   7.942   0.706 -0.2707 -0.6780 -0.4344
  335ccc     H1 9231   7.700   8.106   0.686 -0.3291  2.7465 -0.3815
  335ccc     H2 9232   7.558   7.917   0.599 -1.6187  1.1543 -0.9787
  335ccc     C3 9233   7.637   7.834   0.779 -0.1617  0.0163  0.4386
  335ccc     C4 9234   7.647   7.865   0.931  0.2494 -0.2394 -0.2566
  335ccc     C5 9235   7.681   8.017   0.961  0.2366  0.7706  0.8362
  335ccc     H3 9236   7.553   7.845   0.983  0.4320  2.5176  1.3101
  335ccc     H4 9237   7.739   7.839   0.739 -0.1212 -2.2205  0.1748
  335ccc     H5 9238   7.790   8.026   0.964  0.3691  0.3065 -1.3467
  335ccc     O1 9239   7.636   8.044   1.094  0.1903 -0.2473  0.0079
  335ccc     O2 9240   7.753   7.785   0.988  0.2991  0.7350  0.0027
  335ccc     O3 9241   7.581   7.696   0.750 -0.6018 -0.2190  0.0248
  335ccc     O4 9242   7.416   7.921   0.746  0.5159  0.5113  0.1183
  335ccc     C6 9243   7.503   8.178   0.652  0.1881  0.3274 -0.7501
  335ccc     H6 9244   7.607   7.672   0.660  0.7983 -1.5132  0.7309
  335ccc     H7 9245   7.412   7.824   0.743 -1.0103  0.5127  1.2599
  335ccc     H8 9246   7.736   7.694   0.956  1.1419 -0.1339  1.9137
  335ccc     H9 9247   7.407   8.181   0.705  0.7062  2.4323  0.1488
  335ccc    H10 9248   7.493   8.142   0.549 -3.5104  1.8128 -1.0783
  335ccc     O5 9249   7.573   8.307   0.637  0.1793 -0.0444 -0.0629
  335ccc    H11 9250   7.650   8.275   0.586  0.0695 -0.4736  0.0380
  335ccc     O6 9251   7.624   8.117   0.870 -0.2101 -0.4078  0.2960
  336ccc     C1 9252   8.098   8.287   2.102  0.4660 -0.5052  0.8760
  336ccc     C2 9253   8.116   8.284   1.947 -0.1904 -0.4066  0.3784
  336ccc     H1 9254   8.197   8.256   2.140  0.9575 -1.1789 -0.8364
  336ccc     H2 9255   8.194   8.352   1.910 -0.3753 -0.1184  0.5223
  336ccc     C3 9256   8.141   8.141   1.896 -0.1061 -0.7981  0.4720
  336ccc     C4 9257   8.057   8.027   1.958 -0.0064  0.2272 -0.3536
  336ccc     C5 9258   8.041   8.050   2.109 -0.2906  0.0917 -0.2860
  336ccc     H3 9259   7.958   8.049   1.917  0.5157 -0.8598 -2.3395
  336ccc     H4 9260   8.245   8.116   1.920 -0.1977 -0.5097  1.2207
  336ccc     H5 9261   8.137   8.022   2.154  0.3874 -2.3913 -3.0073
  336ccc     O1 9262   7.944   7.963   2.161  0.5918 -0.3318 -1.1089
  336ccc     O2 9263   8.102   7.892   1.915 -0.3403 -0.3565 -0.9159
  336ccc     O3 9264   8.120   8.138   1.756  0.3171 -0.9517 -0.3109
  336ccc     O4 9265   7.996   8.320   1.884  0.4636  0.4515 -0.3895
  336ccc     C6 9266   8.049   8.426   2.148  0.0228 -0.4024  0.1187
  336ccc     H6 9267   8.187   8.187   1.705  0.2426  1.4789  1.7316
  336ccc     H7 9268   8.012   8.281   1.796 -1.4522  0.9092 -0.9858
  336ccc     H8 9269   8.128   7.901   1.822 -2.0891  0.2893 -1.3800
  336ccc     H9 9270   7.941   8.438   2.135 -0.0518 -0.5483  0.6064
  336ccc    H10 9271   8.092   8.500   2.079 -0.6578  1.2450  1.3915
  336ccc     O5 9272   8.084   8.436   2.282 -0.0603 -0.1167 -0.7103
  336ccc    H11 9273   8.006   8.463   2.335 -0.1582 -2.2150  0.3092
  336ccc     O6 9274   8.000   8.186   2.140 -0.0280 -0.5833 -0.5740
  337ccc     C1 9275   8.200   7.801   3.260 -0.2080 -0.9394  0.9391
  337ccc     C2 9276   8.353   7.786   3.256 -0.2020 -0.6928  0.2405
  337ccc     H1 9277   8.158   7.743   3.343 -0.4908 -0.6865  0.9744
  337ccc     H2 9278   8.391   7.809   3.356  0.3509 -1.5089  0.2319
  337ccc     C3 9279   8.390   7.639   3.226 -0.6976  0.2338 -0.2402
  337ccc     C4 9280   8.334   7.596   3.087 -0.2952  0.0937 -0.0101
  337ccc     C5 9281   8.181   7.627   3.083  0.3188  0.0966  0.3250
  337ccc     H3 9282   8.374   7.651   3.001 -1.2929 -1.0406 -1.2471
  337ccc     H4 9283   8.342   7.574   3.300 -1.3749  0.9973  0.0035
  337ccc     H5 9284   8.123   7.548   3.131 -0.8008 -1.1199 -2.7669
  337ccc     O1 9285   8.145   7.632   2.939  1.0496 -0.0401  0.0629
  337ccc     O2 9286   8.350   7.445   3.075 -0.5947 -0.7369  0.3756
  337ccc     O3 9287   8.533   7.623   3.234  0.0188 -0.1950  1.0068
  337ccc     O4 9288   8.410   7.883   3.160  0.2934 -0.0896  0.0852
  337ccc     C6 9289   8.155   7.949   3.258 -0.6278  0.9770  0.2769
  337ccc     H6 9290   8.535   7.527   3.219 -1.6695 -0.1807  0.4110
  337ccc     H7 9291   8.506   7.876   3.169  0.5940 -1.1837 -2.7726
  337ccc     H8 9292   8.385   7.436   2.985 -0.9334 -0.0431  0.1644
  337ccc     H9 9293   8.168   7.989   3.156  0.5352 -0.4008 -0.1404
  337ccc    H10 9294   8.224   8.009   3.319  0.6842 -1.1572  1.0003
  337ccc     O5 9295   8.019   7.947   3.299 -0.5696 -0.0449  0.4900
  337ccc    H11 9296   8.002   8.040   3.321  1.7859  0.0656  2.1496
  337ccc     O6 9297   8.154   7.754   3.134  0.8758 -0.2819 -0.0942
  338ccc     C1 9298   6.580   8.486   0.932 -0.0617  0.1940 -0.1875
  338ccc     C2 9299   6.437   8.514   0.886  0.1952  0.2468  0.4688
  338ccc     H1 9300   6.627   8.584   0.926 -2.2214  1.3310  0.4498
  338ccc     H2 9301   6.398   8.589   0.956  0.4558  0.8856 -0.0669
  338ccc     C3 9302   6.435   8.571   0.746  0.2955 -0.4129 -0.6979
  338ccc     C4 9303   6.509   8.473   0.649  0.4771 -0.1008 -0.1168
  338ccc     C5 9304   6.637   8.412   0.708  0.4328 -0.4063  0.6143
  338ccc     H3 9305   6.435   8.396   0.625 -0.6941  0.5042  1.3915
  338ccc     H4 9306   6.496   8.661   0.760  1.7362 -1.3449 -0.7981
  338ccc     H5 9307   6.714   8.490   0.700 -1.6313  1.5860 -1.3088
  338ccc     O1 9308   6.677   8.293   0.640 -0.3631 -0.6501  0.1972
  338ccc     O2 9309   6.542   8.550   0.529  0.8001  0.3547 -0.2004
  338ccc     O3 9310   6.303   8.604   0.701  0.2184 -0.0443 -0.2739
  338ccc     O4 9311   6.346   8.405   0.894  0.0369 -0.0872  0.0035
  338ccc     C6 9312   6.585   8.438   1.082  1.0841  0.3697 -0.0742
  338ccc     H6 9313   6.318   8.652   0.618 -0.7569 -0.1747 -0.5403
  338ccc     H7 9314   6.396   8.354   0.961 -1.4772 -0.1840  1.1097
  338ccc     H8 9315   6.534   8.484   0.458  0.3269 -0.3795  0.5241
  338ccc     H9 9316   6.549   8.529   1.130  1.3468  0.7270 -0.5384
  338ccc    H10 9317   6.682   8.408   1.124  1.8703 -0.7045 -2.4567
  338ccc     O5 9318   6.501   8.326   1.096 -0.0877  0.2596  0.3370
  338ccc    H11 9319   6.572   8.262   1.112  0.4369  0.3958 -1.2680
  338ccc     O6 9320   6.633   8.381   0.847 -0.4199 -0.1712  0.0637
  339ccc     C1 9321   5.876   8.184   1.245  0.9121  0.1478 -0.6314
  339ccc     C2 9322   5.804   8.316   1.214 -0.5546  0.2327  0.1802
  339ccc     H1 9323   5.950   8.200   1.324  2.0389  0.9101 -1.8042
  339ccc     H2 9324   5.760   8.349   1.309  0.0639 -0.9358  0.8929
  339ccc     C3 9325   5.903   8.429   1.163 -0.0360  0.6755  0.0927
  339ccc     C4 9326   5.994   8.371   1.046 -0.3372 -0.5886 -0.6516
  339ccc     C5 9327   6.054   8.236   1.087 -0.4178 -0.2705 -0.2370
  339ccc     H3 9328   5.919   8.355   0.968  0.8696  1.2180 -2.2756
  339ccc     H4 9329   5.970   8.442   1.249  1.8800  0.7709 -1.3323
  339ccc     H5 9330   6.135   8.246   1.160  0.7636  0.4573 -1.6016
  339ccc     O1 9331   6.123   8.171   0.972 -0.0071  0.4624 -0.4861
  339ccc     O2 9332   6.094   8.472   1.014 -0.3770  0.7106  0.1236
  339ccc     O3 9333   5.835   8.554   1.123  0.0137  1.4242  0.3076
  339ccc     O4 9334   5.702   8.296   1.114 -0.1818  0.2761  0.3388
  339ccc     C6 9335   5.780   8.072   1.284  0.6596  0.3998  0.0695
  339ccc     H6 9336   5.894   8.624   1.156 -0.9599  1.5669  1.8639
  339ccc     H7 9337   5.690   8.386   1.080 -0.5788  0.3358  0.6175
  339ccc     H8 9338   6.163   8.467   1.083 -0.0994 -0.6369 -0.2309
  339ccc     H9 9339   5.740   8.025   1.193  2.3123 -4.0731  1.4491
  339ccc    H10 9340   5.699   8.113   1.347 -0.9560 -3.2368  0.5925
  339ccc     O5 9341   5.859   7.975   1.351  0.4773 -0.4437  0.3307
  339ccc    H11 9342   5.869   8.013   1.440 -0.4971  0.4277  0.0930
  339ccc     O6 9343   5.944   8.147   1.128  0.3625 -0.0037 -0.0066
  340ccc     C1 9344   6.835   9.378   0.809  0.7517  0.1203  0.3614
  340ccc     C2 9345   6.774   9.422   0.677 -0.2769 -0.1442  0.1535
  340ccc     H1 9346   6.910   9.456   0.825  1.3526 -0.4447  0.3256
  340ccc     H2 9347   6.751   9.529   0.690 -0.7839 -0.3490  1.0721
  340ccc     C3 9348   6.873   9.397   0.556  0.1411 -1.0949 -0.7708
  340ccc     C4 9349   6.926   9.248   0.559 -0.3278 -0.0853  0.0258
  340ccc     C5 9350   6.988   9.212   0.689 -0.5048 -0.0878  0.3796
  340ccc     H3 9351   6.841   9.181   0.539  0.2893 -0.2808 -2.2603
  340ccc     H4 9352   6.964   9.453   0.577  1.6007 -3.7133  0.3502
  340ccc     H5 9353   7.083   9.266   0.700 -0.3973 -0.4408  1.2308
  340ccc     O1 9354   7.007   9.065   0.691 -0.4830 -0.1418 -0.2602
  340ccc     O2 9355   7.007   9.228   0.438  0.9120 -0.2353  0.2476
  340ccc     O3 9356   6.810   9.424   0.429  0.0751 -0.3714 -0.0414
  340ccc     O4 9357   6.654   9.359   0.651 -0.0657  0.2658  0.1697
  340ccc     C6 9358   6.727   9.374   0.923  0.1594  0.5741  0.0619
  340ccc     H6 9359   6.725   9.381   0.448 -0.1927  0.3427  0.3839
  340ccc     H7 9360   6.578   9.416   0.669  0.0420  0.0412  1.3851
  340ccc     H8 9361   6.945   9.201   0.368 -0.1000 -0.1817  1.0874
  340ccc     H9 9362   6.657   9.290   0.923  0.0715  0.6466  0.1506
  340ccc    H10 9363   6.675   9.470   0.920 -0.6739  0.0922 -2.0716
  340ccc     O5 9364   6.799   9.369   1.049  0.9073 -0.3506 -0.1340
  340ccc    H11 9365   6.890   9.338   1.035  1.1651  0.2225  0.2161
  340ccc     O6 9366   6.897   9.246   0.793  0.5260  0.6169  0.0605
  341ccc     C1 9367   6.697   9.306   1.501 -0.6466 -1.0966  0.1673
  341ccc     C2 9368   6.715   9.349   1.645  0.2692  0.7298 -0.2163
  341ccc     H1 9369   6.609   9.242   1.487 -0.4562 -0.7831 -3.0297
  341ccc     H2 9370   6.621   9.385   1.688  0.7335  3.4251 -1.2053
  341ccc     C3 9371   6.760   9.236   1.738  0.3746  0.0206  0.4941
  341ccc     C4 9372   6.874   9.151   1.674 -0.3347  0.1091 -0.1212
  341ccc     C5 9373   6.837   9.101   1.529 -0.9499  0.5969  0.2585
  341ccc     H3 9374   6.967   9.208   1.669 -1.8003  3.0604  2.5970
  341ccc     H4 9375   6.684   9.160   1.759 -0.2869  0.4107 -0.4091
  341ccc     H5 9376   6.746   9.042   1.515 -0.8003  0.6136 -0.9149
  341ccc     O1 9377   6.947   9.034   1.469 -0.4543  0.8375  0.1819
  341ccc     O2 9378   6.889   9.034   1.759 -0.2540 -0.2846 -0.0852
  341ccc     O3 9379   6.814   9.281   1.858 -0.3751 -0.1862  0.2611
  341ccc     O4 9380   6.808   9.456   1.646 -0.1806  0.4621  0.2360
  341ccc     C6 9381   6.686   9.427   1.408  0.1131  0.4353  0.6718
  341ccc     H6 9382   6.903   9.321   1.860 -0.5685  0.2271  0.7080
  341ccc     H7 9383   6.810   9.484   1.739  0.8180 -1.3269  0.8020
  341ccc     H8 9384   6.984   9.015   1.769 -0.3585 -2.3630 -2.1713
  341ccc     H9 9385   6.783   9.478   1.400  0.3317 -0.0599  0.0604
  341ccc    H10 9386   6.621   9.502   1.454  0.0189  0.6247  0.2408
  341ccc     O5 9387   6.632   9.374   1.277  0.1507 -0.8013 -0.5889
  341ccc    H11 9388   6.708   9.369   1.217 -0.2712 -0.3796 -1.1660
  341ccc     O6 9389   6.817   9.229   1.460  0.6166  0.2781  0.0613
  342ccc     C1 9390   4.399   6.766   0.723 -0.5442 -0.5503 -0.6505
  342ccc     C2 9391   4.464   6.912   0.722  0.2878 -0.2055  0.3480
  342ccc     H1 9392   4.360   6.756   0.825  1.7595  2.9169  0.7583
  342ccc     H2 9393   4.390   6.982   0.763  0.1491 -0.8191  1.1701
  342ccc     C3 9394   4.581   6.909   0.820 -0.3890 -0.6886  0.2382
  342ccc     C4 9395   4.685   6.803   0.783  0.3262  0.1432 -0.1523
  342ccc     C5 9396   4.616   6.667   0.771  0.6981 -0.0282 -0.5655
  342ccc     H3 9397   4.734   6.823   0.687 -1.1767 -0.1860 -1.0278
  342ccc     H4 9398   4.532   6.896   0.917 -4.2600  1.1324 -1.2471
  342ccc     H5 9399   4.593   6.639   0.874  0.7064 -2.1466 -1.0824
  342ccc     O1 9400   4.713   6.583   0.709 -0.0887 -0.3467 -0.1188
  342ccc     O2 9401   4.774   6.802   0.894 -0.3365 -0.5567 -0.1910
  342ccc     O3 9402   4.642   7.039   0.832  0.1456 -0.2479 -0.1429
  342ccc     O4 9403   4.510   6.950   0.598  0.1290  0.6247  0.2115
  342ccc     C6 9404   4.284   6.757   0.620  0.1955 -0.4116 -0.3191
  342ccc     H6 9405   4.586   7.096   0.887 -0.4708  0.2978 -1.3120
  342ccc     H7 9406   4.541   7.041   0.613  0.8599  0.1150  2.1758
  342ccc     H8 9407   4.818   6.889   0.891  1.7894 -1.5317  0.8133
  342ccc     H9 9408   4.328   6.743   0.520 -1.4867  1.6844 -1.4496
  342ccc    H10 9409   4.220   6.845   0.621 -1.6821 -1.7028 -1.0667
  342ccc     O5 9410   4.206   6.639   0.656  0.0030  0.1258  0.3818
  342ccc    H11 9411   4.254   6.586   0.722 -0.3613  1.8816  2.1300
  342ccc     O6 9412   4.497   6.671   0.684 -0.4371 -0.3512  0.1911
  343ccc     C1 9413   4.756   5.718   0.253  0.0971 -0.0382 -0.3275
  343ccc     C2 9414   4.778   5.678   0.107 -0.1289 -0.8825  0.2706
  343ccc     H1 9415   4.673   5.789   0.250 -0.3217 -0.5487 -1.4706
  343ccc     H2 9416   4.692   5.618   0.074 -1.3507  0.1666  1.3896
  343ccc     C3 9417   4.798   5.806   0.018 -0.0732 -0.4531 -0.9795
  343ccc     C4 9418   4.907   5.909   0.072 -0.7715  0.0569 -0.2911
  343ccc     C5 9419   4.905   5.917   0.231 -0.0133 -0.1098  0.4668
  343ccc     H3 9420   5.006   5.867   0.049 -1.2400 -0.5504 -1.2496
  343ccc     H4 9421   4.701   5.857   0.029  1.3937  2.0494  2.2802
  343ccc     H5 9422   4.822   5.985   0.255 -0.6971 -0.2905 -1.2543
  343ccc     O1 9423   5.041   5.965   0.270  0.5189 -0.8159  0.5149
  343ccc     O2 9424   4.875   6.034   0.007 -0.0092 -0.3575  0.0711
  343ccc     O3 9425   4.811   5.769  -0.117 -0.0778  0.4545 -0.1237
  343ccc     O4 9426   4.893   5.590   0.104  0.2732 -0.1557  0.5664
  343ccc     C6 9427   4.708   5.595   0.342 -0.2487 -0.2900 -0.4144
  343ccc     H6 9428   4.898   5.725  -0.110  0.1671  0.9414 -0.0976
  343ccc     H7 9429   4.884   5.570   0.199 -0.7987 -0.7459  0.3536
  343ccc     H8 9430   4.953   6.089   0.025 -0.0033 -0.3600  0.0527
  343ccc     H9 9431   4.614   5.548   0.312 -0.7094  0.0264  0.4949
  343ccc    H10 9432   4.684   5.620   0.446  1.0732 -1.3760  0.1852
  343ccc     O5 9433   4.818   5.495   0.340 -0.0040  0.2246 -0.4596
  343ccc    H11 9434   4.792   5.419   0.396 -0.4088  0.1288 -0.7748
  343ccc     O6 9435   4.879   5.787   0.291  0.2697 -0.5997 -0.4283
  344ccc     C1 9436   6.169   6.756  -0.474  0.0001 -0.1173  0.6629
  344ccc     C2 9437   6.306   6.781  -0.535 -0.0850  0.2752 -0.3018
  344ccc     H1 9438   6.117   6.852  -0.480 -1.4684 -0.9390 -0.3123
  344ccc     H2 9439   6.298   6.815  -0.638  0.1016 -1.1673 -0.8172
  344ccc     C3 9440   6.398   6.874  -0.452  1.2149  0.0334  0.2290
  344ccc     C4 9441   6.386   6.847  -0.300  0.4027 -0.6854 -0.4288
  344ccc     C5 9442   6.243   6.812  -0.249 -0.3778 -0.7744 -0.2947
  344ccc     H3 9443   6.453   6.767  -0.267 -1.9274 -2.5867 -0.0694
  344ccc     H4 9444   6.364   6.977  -0.469  1.0117 -0.2569 -1.2314
  344ccc     H5 9445   6.190   6.907  -0.246 -0.9540 -1.0702 -0.8412
  344ccc     O1 9446   6.258   6.739  -0.122  0.5827  0.5091  1.2025
  344ccc     O2 9447   6.426   6.971  -0.240  0.2612 -0.3819 -0.3598
  344ccc     O3 9448   6.539   6.859  -0.496 -0.0313  0.3635 -0.5452
  344ccc     O4 9449   6.382   6.660  -0.542  0.2091  0.0804 -0.4595
  344ccc     C6 9450   6.107   6.639  -0.556 -0.3132  0.7122  0.1387
  344ccc     H6 9451   6.549   6.919  -0.572  3.2030  2.3287  1.1887
  344ccc     H7 9452   6.471   6.698  -0.534  0.5000 -0.2341 -1.8080
  344ccc     H8 9453   6.452   6.948  -0.149  1.2400  1.1036 -0.2260
  344ccc     H9 9454   6.132   6.540  -0.518 -1.0551 -0.0399 -1.2693
  344ccc    H10 9455   6.119   6.639  -0.665  2.8283 -3.5951  0.2562
  344ccc     O5 9456   5.969   6.644  -0.529 -0.2188 -0.0295  0.3087
  344ccc    H11 9457   5.963   6.668  -0.435  0.4200 -0.7870  0.5589
  344ccc     O6 9458   6.177   6.725  -0.338 -0.1410  0.6796  0.0396
  345ccc     C1 9459   6.850   6.993   0.531  0.0580  0.0506 -0.3953
  345ccc     C2 9460   6.900   7.007   0.677  0.0941 -0.0415  0.7342
  345ccc     H1 9461   6.774   7.068   0.510  0.8630  0.3732 -2.3868
  345ccc     H2 9462   6.922   7.114   0.690 -0.2986  0.1492 -0.1186
  345ccc     C3 9463   6.792   6.960   0.784  0.8903 -0.4589 -0.4204
  345ccc     C4 9464   6.726   6.821   0.738  0.1980 -0.4760  0.3420
  345ccc     C5 9465   6.684   6.820   0.586  0.5919  0.4426 -0.4754
  345ccc     H3 9466   6.805   6.746   0.749 -0.6414 -1.4924 -0.3932
  345ccc     H4 9467   6.713   7.036   0.786  0.0867 -1.2291 -1.7322
  345ccc     H5 9468   6.598   6.886   0.571  0.4442  0.5214  0.5868
  345ccc     O1 9469   6.652   6.682   0.556  0.2609 -0.7044 -0.2881
  345ccc     O2 9470   6.619   6.793   0.830 -0.2061 -0.2497  0.9509
  345ccc     O3 9471   6.861   6.953   0.919  0.4988  0.1396  0.6338
  345ccc     O4 9472   7.014   6.920   0.702 -0.2843 -0.4250  0.2959
  345ccc     C6 9473   6.957   7.031   0.433 -0.3266  0.2368  1.0134
  345ccc     H6 9474   6.786   6.940   0.979 -2.5216 -0.2083 -2.8314
  345ccc     H7 9475   7.017   6.917   0.799  2.9005  1.4489  0.4086
  345ccc     H8 9476   6.648   6.842   0.909  2.2866 -0.5795  0.3443
  345ccc     H9 9477   7.031   6.950   0.437 -0.1866  0.3002 -0.1486
  345ccc    H10 9478   7.008   7.120   0.472 -2.5136  0.8750  2.5792
  345ccc     O5 9479   6.913   7.052   0.296 -0.0015 -0.1567  0.3669
  345ccc    H11 9480   6.969   6.988   0.249  0.2095  0.2077  0.1217
  345ccc     O6 9481   6.805   6.857   0.508  0.4135 -0.2216 -0.2613
  346ccc     C1 9482   4.845   8.074   0.162  0.0686 -0.3575 -0.0528
  346ccc     C2 9483   4.773   8.052   0.025 -0.5791 -0.1926 -0.4233
  346ccc     H1 9484   4.948   8.101   0.135  0.1100 -0.1926  0.2613
  346ccc     H2 9485   4.790   8.143  -0.034  1.2184  1.0238  1.7604
  346ccc     C3 9486   4.849   7.929  -0.051  0.2115 -0.2644  0.1811
  346ccc     C4 9487   4.868   7.805   0.035 -0.2861  0.6079  0.1217
  346ccc     C5 9488   4.918   7.849   0.178  0.8099  0.3601  0.5719
  346ccc     H3 9489   4.774   7.753   0.059  0.4558  0.1426  2.1753
  346ccc     H4 9490   4.948   7.962  -0.086 -0.5846  0.8086 -1.1628
  346ccc     H5 9491   5.024   7.878   0.170  1.1800 -0.9593  0.5022
  346ccc     O1 9492   4.893   7.733   0.262  0.0322 -0.5063  0.2940
  346ccc     O2 9493   4.962   7.708  -0.030  0.2757  0.6950 -0.1684
  346ccc     O3 9494   4.773   7.898  -0.168  0.0641 -0.2971  0.0530
  346ccc     O4 9495   4.634   8.019   0.039 -0.2512  0.2618  0.1709
  346ccc     C6 9496   4.780   8.193   0.252  0.1907  0.1653  0.2863
  346ccc     H6 9497   4.720   7.979  -0.185  1.1040  0.0615 -1.6481
  346ccc     H7 9498   4.617   8.085   0.109  1.5581 -0.2943  1.2188
  346ccc     H8 9499   4.903   7.669  -0.097 -0.8305  2.3011 -0.2048
  346ccc     H9 9500   4.804   8.286   0.199  1.6628 -0.6347 -0.5082
  346ccc    H10 9501   4.819   8.203   0.354 -0.3896  0.3447  0.4960
  346ccc     O5 9502   4.640   8.178   0.243  0.6424 -0.6314  0.0439
  346ccc    H11 9503   4.602   8.225   0.320 -0.1701 -0.2290 -0.5926
  346ccc     O6 9504   4.845   7.957   0.238 -0.1589  0.2486 -0.2549
  347ccc     C1 9505   4.322   7.598   0.598 -0.7533  1.0745  0.2701
  347ccc     C2 9506   4.206   7.505   0.554 -0.2024 -0.2051  0.5634
  347ccc     H1 9507   4.360   7.628   0.500 -0.3976  2.5488  0.8353
  347ccc     H2 9508   4.139   7.551   0.481  0.5817 -0.9640 -0.6790
  347ccc     C3 9509   4.270   7.382   0.492  0.7798  0.9128  1.4373
  347ccc     C4 9510   4.371   7.314   0.589  0.0377  0.2415  0.3705
  347ccc     C5 9511   4.487   7.414   0.630 -0.4226 -0.1927  0.0783
  347ccc     H3 9512   4.324   7.270   0.677 -1.0935 -0.6726 -0.6654
  347ccc     H4 9513   4.328   7.418   0.406  0.8259 -0.7280  0.7416
  347ccc     H5 9514   4.546   7.439   0.541 -0.2515  0.2293  0.3070
  347ccc     O1 9515   4.573   7.365   0.734 -0.2936  0.5843  0.0134
  347ccc     O2 9516   4.426   7.203   0.522 -0.0146  0.2459  0.5527
  347ccc     O3 9517   4.170   7.291   0.443 -0.2904  0.0332 -0.4406
  347ccc     O4 9518   4.138   7.458   0.675 -0.4459 -0.7093 -0.3167
  347ccc     C6 9519   4.277   7.722   0.678  0.4622 -0.4538 -0.1952
  347ccc     H6 9520   4.125   7.259   0.523 -1.9069 -0.1631 -1.3754
  347ccc     H7 9521   4.160   7.539   0.724  2.6055 -0.5580 -1.6894
  347ccc     H8 9522   4.517   7.225   0.493 -0.6383  1.9325 -0.2942
  347ccc     H9 9523   4.217   7.780   0.607  1.0834  0.2546 -0.1624
  347ccc    H10 9524   4.359   7.785   0.717 -2.0466  1.6766  2.0502
  347ccc     O5 9525   4.184   7.693   0.787  0.1191 -0.3335  0.8707
  347ccc    H11 9526   4.170   7.772   0.841  1.9388  0.7979 -0.1979
  347ccc     O6 9527   4.420   7.537   0.676 -0.4842 -0.9082 -0.4001
  348ccc     C1 9528   6.314   7.036   0.213 -0.5174 -0.0645 -0.7075
  348ccc     C2 9529   6.303   6.933   0.318  1.1680 -0.3596 -0.6339
  348ccc     H1 9530   6.422   7.040   0.196 -0.2038 -0.2642  1.0761
  348ccc     H2 9531   6.345   6.838   0.282  0.5127 -1.5782  1.6621
  348ccc     C3 9532   6.366   6.978   0.457 -0.7055 -0.0210  0.2839
  348ccc     C4 9533   6.318   7.116   0.504  0.3193 -0.6047 -0.7512
  348ccc     C5 9534   6.314   7.217   0.384  0.2573 -0.2072 -0.5831
  348ccc     H3 9535   6.214   7.096   0.534  0.1664 -0.3142 -1.0991
  348ccc     H4 9536   6.474   6.989   0.443 -0.6266  3.4341  2.4420
  348ccc     H5 9537   6.415   7.254   0.361  0.1018  1.7744  1.4988
  348ccc     O1 9538   6.230   7.327   0.426  0.1892  0.1646  0.3008
  348ccc     O2 9539   6.402   7.164   0.611 -0.1648 -0.2490  0.1376
  348ccc     O3 9540   6.341   6.884   0.565 -0.3680 -0.2208  0.1274
  348ccc     O4 9541   6.165   6.920   0.342  0.1129 -0.2343 -0.2593
  348ccc     C6 9542   6.255   6.988   0.078  0.4757  0.0789 -0.6087
  348ccc     H6 9543   6.250   6.855   0.549 -0.8421  1.0043  0.5585
  348ccc     H7 9544   6.126   6.944   0.256  0.7770  0.5326 -0.3581
  348ccc     H8 9545   6.401   7.095   0.680 -2.5017  0.3447  0.7971
  348ccc     H9 9546   6.290   6.887   0.052 -1.1878 -0.5274 -0.5952
  348ccc    H10 9547   6.288   7.063   0.006 -1.3628  1.7906  0.2298
  348ccc     O5 9548   6.111   6.986   0.092  0.0053  0.2722 -0.4848
  348ccc    H11 9549   6.076   7.076   0.081 -3.0401 -0.5161  1.5983
  348ccc     O6 9550   6.254   7.154   0.264  0.1390 -0.3529  0.2285
  349ccc     C1 9551   6.069   8.463   0.070 -0.1915  0.2445  0.1096
  349ccc     C2 9552   5.977   8.558   0.155 -0.4546  0.5045 -0.1551
  349ccc     H1 9553   6.046   8.473  -0.037  0.7335 -0.6247 -0.1787
  349ccc     H2 9554   5.996   8.661   0.121 -0.7557  1.1857  1.6391
  349ccc     C3 9555   5.828   8.517   0.133  0.0554 -0.0542 -0.5579
  349ccc     C4 9556   5.811   8.368   0.177  1.1986 -0.2847  0.5041
  349ccc     C5 9557   5.908   8.269   0.101 -0.4395  0.5209 -0.2798
  349ccc     H3 9558   5.833   8.354   0.283  0.3038  0.6241  0.8263
  349ccc     H4 9559   5.807   8.524   0.025 -0.0850  0.4401 -0.5007
  349ccc     H5 9560   5.874   8.246  -0.001  0.2444  0.8365 -0.5852
  349ccc     O1 9561   5.898   8.143   0.176  0.0178  0.2515  0.0804
  349ccc     O2 9562   5.671   8.321   0.145 -0.1985 -0.7951  0.2584
  349ccc     O3 9563   5.735   8.609   0.197 -0.3196 -1.1210 -0.5969
  349ccc     O4 9564   6.022   8.537   0.293 -0.0736 -0.1740 -0.6116
  349ccc     C6 9565   6.214   8.503   0.086  0.2620 -1.1576 -0.0560
  349ccc     H6 9566   5.654   8.589   0.147  0.0003 -2.1565 -0.7155
  349ccc     H7 9567   5.956   8.587   0.345 -0.3647 -0.9042 -0.2691
  349ccc     H8 9568   5.611   8.357   0.212  0.1373 -0.3271  0.3157
  349ccc     H9 9569   6.219   8.612   0.074 -0.0589 -1.3062 -1.8089
  349ccc    H10 9570   6.282   8.472   0.006 -0.3206  1.5268 -1.7337
  349ccc     O5 9571   6.268   8.477   0.216 -0.3137  0.1479 -0.1112
  349ccc    H11 9572   6.197   8.512   0.272 -0.0978  0.3211  0.0537
  349ccc     O6 9573   6.045   8.318   0.100  0.7591  0.2266  0.8409
  350ccc     C1 9574   6.819   4.956   4.974  0.6878  1.1734 -0.1553
  350ccc     C2 9575   6.911   4.991   4.853 -0.8445 -0.4362 -0.0002
  350ccc     H1 9576   6.760   5.044   5.003 -0.2897  1.1429 -1.9399
  350ccc     H2 9577   6.849   5.043   4.780  0.3795  2.0978  0.6825
  350ccc     C3 9578   7.009   5.101   4.904 -0.0993  0.2954 -0.4358
  350ccc     C4 9579   7.094   5.059   5.026  0.5547  0.2139  0.5000
  350ccc     C5 9580   6.995   5.006   5.133  0.2126 -0.0439  1.1744
  350ccc     H3 9581   7.155   4.971   5.004 -1.7977 -1.2416 -0.6213
  350ccc     H4 9582   6.952   5.187   4.940  1.6817  1.0210  0.8171
  350ccc     H5 9583   6.938   5.087   5.180  1.4859  1.5922  0.0537
  350ccc     O1 9584   7.075   4.934   5.232  0.2079 -0.4397 -0.3259
  350ccc     O2 9585   7.176   5.165   5.074 -0.2670 -0.1806  0.1615
  350ccc     O3 9586   7.089   5.144   4.789 -0.3027  0.2915 -0.1660
  350ccc     O4 9587   6.987   4.874   4.814  0.3614  0.0434 -0.5142
  350ccc     C6 9588   6.717   4.842   4.948  0.3531 -0.1683 -0.0544
  350ccc     H6 9589   7.152   5.210   4.822  1.4479 -1.6712  0.6332
  350ccc     H7 9590   7.028   4.899   4.729  0.5294  0.6602 -0.2580
  350ccc     H8 9591   7.115   5.241   5.067  0.7016  0.5880 -0.1818
  350ccc     H9 9592   6.636   4.882   4.886  0.2057 -0.5727 -0.1250
  350ccc    H10 9593   6.679   4.810   5.047 -1.8774 -2.1658 -1.4261
  350ccc     O5 9594   6.775   4.725   4.884 -0.8903  0.3138  0.1223
  350ccc    H11 9595   6.860   4.761   4.855 -1.4497  0.2730 -1.6774
  350ccc     O6 9596   6.906   4.906   5.081 -0.4745 -0.2253 -0.1625
  351ccc     C1 9597   6.870   4.802   6.232  0.6860 -0.4653  0.7016
  351ccc     C2 9598   6.953   4.856   6.352  0.3169  0.1505  0.7648
  351ccc     H1 9599   6.938   4.742   6.171 -0.9357  0.7687 -2.5693
  351ccc     H2 9600   6.987   4.765   6.402  2.5726  0.4755 -0.0472
  351ccc     C3 9601   7.078   4.917   6.300 -0.1063 -0.0684  0.4049
  351ccc     C4 9602   7.033   5.039   6.213 -0.0781 -0.2006 -0.7544
  351ccc     C5 9603   6.941   4.995   6.097  0.4348  0.6404 -0.5709
  351ccc     H3 9604   6.977   5.113   6.272  2.9589 -0.2926  2.5200
  351ccc     H4 9605   7.134   4.842   6.243  0.2015 -1.5070  2.4866
  351ccc     H5 9606   6.993   4.928   6.028 -0.4219  1.0524 -1.6319
  351ccc     O1 9607   6.895   5.118   6.029 -0.8231 -0.1865 -0.2202
  351ccc     O2 9608   7.155   5.106   6.174  0.2181 -0.1261  0.2748
  351ccc     O3 9609   7.167   4.960   6.408  0.2046 -0.3186 -0.4615
  351ccc     O4 9610   6.878   4.942   6.445 -0.2393  0.5833  0.2993
  351ccc     C6 9611   6.766   4.709   6.288 -0.1279  0.2571  0.6370
  351ccc     H6 9612   7.210   5.039   6.372  1.0975  0.4269  2.0099
  351ccc     H7 9613   6.913   4.919   6.533  0.8232  1.2698  0.0816
  351ccc     H8 9614   7.120   5.179   6.121  1.6613  0.2798 -0.1779
  351ccc     H9 9615   6.809   4.626   6.346 -2.5448 -2.7516 -1.5913
  351ccc    H10 9616   6.720   4.650   6.208  0.4730 -1.1885  1.3127
  351ccc     O5 9617   6.672   4.781   6.370 -0.0614  0.3102 -0.2677
  351ccc    H11 9618   6.725   4.832   6.434  0.0872  1.7210 -1.4784
  351ccc     O6 9619   6.830   4.919   6.144 -0.0294  0.6297  0.7210
  352ccc     C1 9620   7.338   4.799   4.347 -0.2276 -0.1128 -0.5669
  352ccc     C2 9621   7.203   4.860   4.370  0.6356  0.2271 -0.1183
  352ccc     H1 9622   7.338   4.700   4.394  3.0729  0.3749  0.6986
  352ccc     H2 9623   7.122   4.792   4.339  1.2195  0.0829 -1.3670
  352ccc     C3 9624   7.185   4.876   4.524 -0.1578 -0.5322 -0.2611
  352ccc     C4 9625   7.294   4.965   4.586 -0.8255 -0.7536  0.5194
  352ccc     C5 9626   7.439   4.925   4.549 -0.0921 -0.1000  0.0906
  352ccc     H3 9627   7.281   5.067   4.547 -0.3871 -1.1169 -0.6224
  352ccc     H4 9628   7.210   4.774   4.554 -1.5518 -0.7542  0.2368
  352ccc     H5 9629   7.473   4.847   4.617 -0.9523 -0.5320  0.0456
  352ccc     O1 9630   7.525   5.042   4.559  0.8491  0.9690 -0.2574
  352ccc     O2 9631   7.272   4.967   4.724  0.6420  0.0544  0.2703
  352ccc     O3 9632   7.049   4.918   4.560  0.3903 -0.2731  0.4829
  352ccc     O4 9633   7.202   4.980   4.299  0.5599 -0.3476  0.5793
  352ccc     C6 9634   7.370   4.760   4.205 -0.1457 -1.1763 -0.4769
  352ccc     H6 9635   6.978   4.874   4.510  0.6963 -0.3766  0.1343
  352ccc     H7 9636   7.247   4.964   4.214  1.4779  0.6924  0.8501
  352ccc     H8 9637   7.197   5.028   4.733 -0.2031 -0.6234 -1.7316
  352ccc     H9 9638   7.315   4.669   4.179  0.0081 -1.4678  0.2010
  352ccc    H10 9639   7.477   4.745   4.189  0.0978 -0.2576  0.2341
  352ccc     O5 9640   7.338   4.863   4.111 -0.4071 -0.2680  0.0471
  352ccc    H11 9641   7.399   4.843   4.038  1.3723  0.5518  1.2590
  352ccc     O6 9642   7.444   4.883   4.411  0.6563  0.0254  0.3113
  353ccc     C1 9643   8.454   5.751   4.418  0.1146 -0.8131  0.1849
  353ccc     C2 9644   8.437   5.895   4.365 -0.1005 -0.0275  0.6781
  353ccc     H1 9645   8.486   5.680   4.341  0.4300 -0.9081  0.4018
  353ccc     H2 9646   8.536   5.925   4.328 -0.1102 -1.2505 -0.4492
  353ccc     C3 9647   8.338   5.907   4.244  0.1975 -0.6930  0.2148
  353ccc     C4 9648   8.210   5.828   4.280  0.1180 -0.6814 -0.5682
  353ccc     C5 9649   8.233   5.696   4.353 -0.8355 -0.3649  0.4615
  353ccc     H3 9650   8.156   5.884   4.359  0.7279 -2.5064  1.2306
  353ccc     H4 9651   8.380   5.858   4.156 -0.1098 -1.8962  0.7255
  353ccc     H5 9652   8.265   5.627   4.274 -1.7436  0.6222 -0.8160
  353ccc     O1 9653   8.109   5.649   4.400 -0.0526 -0.2541  0.0011
  353ccc     O2 9654   8.115   5.810   4.170 -0.2089  0.2597  0.2474
  353ccc     O3 9655   8.324   6.051   4.205 -0.2717 -0.2868 -0.8000
  353ccc     O4 9656   8.397   5.986   4.473 -0.3151  0.6082 -0.1253
  353ccc     C6 9657   8.558   5.740   4.526  0.3586 -0.0134  0.1347
  353ccc     H6 9658   8.243   6.058   4.152 -0.0665  1.5889 -0.9361
  353ccc     H7 9659   8.346   6.054   4.425 -0.3821  0.6334 -0.0188
  353ccc     H8 9660   8.041   5.763   4.212 -0.8625  0.0990 -1.0334
  353ccc     H9 9661   8.538   5.810   4.608  1.0808 -1.5225  1.6729
  353ccc    H10 9662   8.659   5.754   4.486  0.0361 -0.9043 -1.0452
  353ccc     O5 9663   8.545   5.608   4.576 -0.2770 -1.0084  1.0576
  353ccc    H11 9664   8.449   5.611   4.589 -0.3016  0.9529  0.7124
  353ccc     O6 9665   8.323   5.706   4.460 -0.5158  0.3089  1.0304
  354ccc     C1 9666   5.457   4.636   3.569 -0.0812 -0.0456 -0.0100
  354ccc     C2 9667   5.486   4.489   3.528  0.5370  0.0375  0.6675
  354ccc     H1 9668   5.551   4.684   3.540  0.8058 -1.8930 -0.3851
  354ccc     H2 9669   5.515   4.475   3.424 -1.4793  2.3614 -0.3058
  354ccc     C3 9670   5.606   4.436   3.614  0.1288 -0.3607  0.0521
  354ccc     C4 9671   5.578   4.466   3.763  0.2623  0.3705 -0.0678
  354ccc     C5 9672   5.541   4.614   3.793  0.5691  0.5199  0.0673
  354ccc     H3 9673   5.488   4.412   3.795 -0.8126  1.4513 -1.1261
  354ccc     H4 9674   5.698   4.484   3.577 -0.7316  1.8818  0.6252
  354ccc     H5 9675   5.630   4.677   3.781 -0.1264  1.4115 -0.5184
  354ccc     O1 9676   5.494   4.608   3.937 -0.2922 -0.0166 -0.0502
  354ccc     O2 9677   5.691   4.417   3.841 -0.1747  0.3855  0.3987
  354ccc     O3 9678   5.622   4.291   3.587 -0.0194  0.4541  0.0689
  354ccc     O4 9679   5.366   4.412   3.556 -0.7222 -0.5103  0.3657
  354ccc     C6 9680   5.335   4.692   3.497 -0.1228  0.3073 -0.4228
  354ccc     H6 9681   5.537   4.250   3.567 -1.2809  2.5927  0.7744
  354ccc     H7 9682   5.294   4.478   3.558 -2.0784 -1.8974 -0.3292
  354ccc     H8 9683   5.771   4.471   3.827  1.7108 -1.9850  1.3978
  354ccc     H9 9684   5.351   4.711   3.390 -0.1770 -0.1758 -0.5167
  354ccc    H10 9685   5.316   4.789   3.545 -0.6011  0.3115 -0.6125
  354ccc     O5 9686   5.225   4.610   3.527 -0.6301 -0.1556  0.3024
  354ccc    H11 9687   5.143   4.658   3.505 -1.8506 -2.4434 -0.5336
  354ccc     O6 9688   5.438   4.658   3.709  0.3443 -0.2732 -0.1037
  355ccc     C1 9689   4.488   4.890   4.603 -0.7304  0.5581 -0.3593
  355ccc     C2 9690   4.358   4.918   4.526  0.7645 -0.2057 -0.3794
  355ccc     H1 9691   4.505   4.985   4.655 -1.3102 -0.0866  1.0767
  355ccc     H2 9692   4.293   4.966   4.601  2.5554  1.7304  0.0098
  355ccc     C3 9693   4.391   5.011   4.411 -0.0541  0.7959 -0.6853
  355ccc     C4 9694   4.516   4.967   4.335  0.0989 -0.2707  0.2937
  355ccc     C5 9695   4.642   4.941   4.424  0.0616 -0.2012 -0.9478
  355ccc     H3 9696   4.497   4.871   4.285 -0.4981 -0.4024  0.7678
  355ccc     H4 9697   4.401   5.109   4.458  0.7944  0.4080 -0.0346
  355ccc     H5 9698   4.673   5.030   4.479 -1.7530  0.9477 -1.7140
  355ccc     O1 9699   4.742   4.880   4.336  0.2434 -0.3888 -0.0040
  355ccc     O2 9700   4.545   5.064   4.236  1.0786  0.4296 -0.3261
  355ccc     O3 9701   4.274   5.003   4.321  0.0870  0.1470  0.8908
  355ccc     O4 9702   4.306   4.798   4.476  0.3528  0.3186  0.0216
  355ccc     C6 9703   4.471   4.777   4.711  0.0739 -0.1079  0.6882
  355ccc     H6 9704   4.290   5.065   4.248 -1.7419 -1.6976 -1.2507
  355ccc     H7 9705   4.240   4.813   4.406 -2.2960  1.1706  2.4779
  355ccc     H8 9706   4.640   5.085   4.242  1.4837 -1.3208 -0.1202
  355ccc     H9 9707   4.496   4.675   4.679  0.2560  0.1644 -0.0640
  355ccc    H10 9708   4.365   4.776   4.739  0.2230  0.9378  1.3418
  355ccc     O5 9709   4.547   4.829   4.824 -0.3990  0.4667 -0.1880
  355ccc    H11 9710   4.554   4.751   4.882  0.2660  1.2706  0.8346
  355ccc     O6 9711   4.595   4.852   4.519 -0.0231  0.5014 -0.4850
  356ccc     C1 9712   5.396   5.757   3.119 -0.4283  0.5698  0.0211
  356ccc     C2 9713   5.244   5.776   3.114 -0.2631 -0.3467  0.6822
  356ccc     H1 9714   5.426   5.690   3.038  2.0296 -1.3473  2.3293
  356ccc     H2 9715   5.210   5.824   3.021  0.3648 -1.5687 -0.2054
  356ccc     C3 9716   5.174   5.635   3.141 -0.0104  0.8270 -0.8689
  356ccc     C4 9717   5.222   5.573   3.272  0.2447  0.4309 -0.5558
  356ccc     C5 9718   5.374   5.559   3.272 -0.5608 -0.1268 -0.4400
  356ccc     H3 9719   5.191   5.638   3.355 -1.0841  0.7203 -1.2584
  356ccc     H4 9720   5.190   5.562   3.061  0.4224  0.7222 -0.6930
  356ccc     H5 9721   5.405   5.491   3.192  2.5694 -0.7276  1.1508
  356ccc     O1 9722   5.419   5.517   3.400  0.0274 -0.2249  0.2338
  356ccc     O2 9723   5.156   5.443   3.282 -0.3213  0.1345 -0.2123
  356ccc     O3 9724   5.029   5.640   3.156  0.2021 -0.8207  0.0210
  356ccc     O4 9725   5.216   5.863   3.224  0.2159 -0.3850 -0.3193
  356ccc     C6 9726   5.481   5.880   3.100 -0.1098  0.0244 -0.2687
  356ccc     H6 9727   4.993   5.684   3.078 -1.8240  0.5567  1.6209
  356ccc     H7 9728   5.296   5.918   3.224 -0.2534  0.3286 -1.4621
  356ccc     H8 9729   5.070   5.471   3.247 -0.7834 -2.1419 -1.1103
  356ccc     H9 9730   5.457   5.929   3.005  1.6522  0.5394 -0.4799
  356ccc    H10 9731   5.586   5.848   3.098 -0.1884 -0.1862 -1.3437
  356ccc     O5 9732   5.457   5.971   3.205 -0.4347  0.6324 -0.3982
  356ccc    H11 9733   5.526   6.038   3.198 -0.6380  1.0304  1.1739
  356ccc     O6 9734   5.428   5.695   3.248  0.4135  0.1507 -0.7171
  357ccc     C1 9735   6.498   5.182   3.828 -0.0624 -0.0329  0.5268
  357ccc     C2 9736   6.549   5.070   3.734 -0.0556 -0.6579  0.3419
  357ccc     H1 9737   6.491   5.143   3.930  2.4981 -0.5613  0.5693
  357ccc     H2 9738   6.654   5.049   3.757  0.1114  0.4808  0.7320
  357ccc     C3 9739   6.453   4.947   3.754  0.3418 -0.9616  0.8923
  357ccc     C4 9740   6.303   4.991   3.723  0.3086  0.0927  0.0779
  357ccc     C5 9741   6.265   5.124   3.798 -0.2659 -0.1789  0.1428
  357ccc     H3 9742   6.304   5.012   3.615 -2.3705  1.9274  0.3288
  357ccc     H4 9743   6.448   4.920   3.860  0.8039 -1.1310  0.8743
  357ccc     H5 9744   6.248   5.108   3.905  0.7121 -1.1831  0.1650
  357ccc     O1 9745   6.145   5.167   3.732 -0.0031 -0.0403 -0.2823
  357ccc     O2 9746   6.220   4.881   3.757 -0.0289  0.1118 -0.5220
  357ccc     O3 9747   6.489   4.824   3.680  0.1955  0.6042 -0.0133
  357ccc     O4 9748   6.542   5.108   3.593  0.1880 -0.0111 -0.4222
  357ccc     C6 9749   6.590   5.304   3.817 -0.1137  0.0470 -0.8090
  357ccc     H6 9750   6.418   4.759   3.697  0.5039  0.1144 -0.5744
  357ccc     H7 9751   6.576   5.030   3.546  0.1715  0.4905 -1.2681
  357ccc     H8 9752   6.201   4.827   3.678  0.5699 -0.0766 -0.5467
  357ccc     H9 9753   6.574   5.361   3.724 -1.5758 -2.1393 -1.9715
  357ccc    H10 9754   6.693   5.267   3.814  0.2118  0.9146 -0.6629
  357ccc     O5 9755   6.553   5.380   3.934 -0.4661  0.0445 -0.8439
  357ccc    H11 9756   6.457   5.394   3.922 -0.3901  1.9493  0.3090
  357ccc     O6 9757   6.364   5.227   3.785 -0.3025  0.1779 -0.1161
  358ccc     C1 9758   4.773   8.246   4.520  0.8198  0.1852 -0.2183
  358ccc     C2 9759   4.759   8.390   4.567  0.5964 -0.0459 -1.1187
  358ccc     H1 9760   4.672   8.204   4.516  0.0705  1.8212  0.5988
  358ccc     H2 9761   4.696   8.445   4.497 -1.0378  0.2329  0.4860
  358ccc     C3 9762   4.684   8.406   4.702  0.4291  0.1135 -0.0844
  358ccc     C4 9763   4.750   8.314   4.814  0.1489  0.1417 -0.0605
  358ccc     C5 9764   4.768   8.175   4.756 -0.1614  0.4646 -0.7675
  358ccc     H3 9765   4.850   8.354   4.832 -0.3411  1.3610  0.0440
  358ccc     H4 9766   4.593   8.348   4.683  1.5317 -2.0637  0.8479
  358ccc     H5 9767   4.667   8.133   4.752 -1.1078  2.7072 -1.6837
  358ccc     O1 9768   4.856   8.097   4.851 -0.3165 -0.4074 -0.1380
  358ccc     O2 9769   4.669   8.310   4.935 -1.0260  0.9805  0.3040
  358ccc     O3 9770   4.650   8.540   4.739  0.1213 -0.3861 -0.2671
  358ccc     O4 9771   4.895   8.446   4.578  0.2827  0.5750  0.5730
  358ccc     C6 9772   4.859   8.242   4.390 -0.2133 -0.5159 -0.0480
  358ccc     H6 9773   4.585   8.539   4.810 -0.5697  2.6702 -0.6973
  358ccc     H7 9774   4.879   8.539   4.602 -0.3849  0.3480  1.0486
  358ccc     H8 9775   4.588   8.256   4.931  0.1685 -0.8923  0.1122
  358ccc     H9 9776   4.962   8.266   4.416  0.2114 -1.6779 -0.6079
  358ccc    H10 9777   4.818   8.318   4.321  2.7925  0.0695 -1.3245
  358ccc     O5 9778   4.862   8.110   4.345  0.7556  0.0712 -0.5227
  358ccc    H11 9779   4.938   8.070   4.390  0.1227  0.6973  1.1847
  358ccc     O6 9780   4.831   8.159   4.619  0.3907  0.0508 -0.0663
  359ccc     C1 9781   5.047   7.751   4.114  0.2157 -0.0429 -0.9076
  359ccc     C2 9782   5.148   7.856   4.073  0.1410 -0.6283 -0.0209
  359ccc     H1 9783   4.950   7.802   4.116  1.4440  2.4194  0.6996
  359ccc     H2 9784   5.118   7.901   3.977 -3.0193 -1.7889  0.2978
  359ccc     C3 9785   5.147   7.977   4.182 -0.0153  0.1709  0.3290
  359ccc     C4 9786   5.141   7.919   4.328 -0.5687 -0.0008  0.1345
  359ccc     C5 9787   5.046   7.794   4.346  0.5682 -0.2612 -0.6348
  359ccc     H3 9788   5.244   7.887   4.350 -0.7127  1.3176  3.3291
  359ccc     H4 9789   5.050   8.028   4.175  0.5869  1.4180  0.7967
  359ccc     H5 9790   4.942   7.822   4.330  0.1057 -1.8822 -0.7213
  359ccc     O1 9791   5.069   7.735   4.480  0.3533  0.1152  0.7412
  359ccc     O2 9792   5.114   8.028   4.416  0.1524 -0.1152 -0.3969
  359ccc     O3 9793   5.251   8.072   4.164  0.4855  0.0339 -0.7127
  359ccc     O4 9794   5.276   7.788   4.071  0.6141  0.2854 -0.0700
  359ccc     C6 9795   5.027   7.627   4.023  0.1751 -0.4710 -0.3018
  359ccc     H6 9796   5.245   8.118   4.249 -0.9261 -0.5373 -0.4843
  359ccc     H7 9797   5.273   7.695   4.043 -0.9776  0.5992 -1.0242
  359ccc     H8 9798   5.173   8.015   4.492  0.5321  4.0385  0.2455
  359ccc     H9 9799   4.976   7.654   3.929 -3.0687  0.6464  1.6337
  359ccc    H10 9800   4.947   7.576   4.077  0.0989 -0.0117  0.0172
  359ccc     O5 9801   5.144   7.546   4.004  0.1681 -0.4368 -0.4468
  359ccc    H11 9802   5.139   7.519   3.910  0.2329 -2.3902  0.0732
  359ccc     O6 9803   5.074   7.697   4.243  0.0192  0.1337  0.2480
  360ccc     C1 9804   5.027   6.186   6.645 -0.2196  0.2230  0.3927
  360ccc     C2 9805   5.129   6.102   6.723  0.2487  0.0554 -0.0257
  360ccc     H1 9806   4.936   6.133   6.616 -1.0826  1.6166  0.4214
  360ccc     H2 9807   5.093   6.079   6.824  0.8895 -2.7209 -0.3525
  360ccc     C3 9808   5.146   5.969   6.636 -0.8518  0.3045 -0.5174
  360ccc     C4 9809   5.197   6.009   6.492  0.3517 -0.4608  0.3693
  360ccc     C5 9810   5.109   6.112   6.417  1.0893  0.2288 -0.2965
  360ccc     H3 9811   5.285   6.068   6.520  0.2377 -0.9417  1.8418
  360ccc     H4 9812   5.051   5.916   6.629  0.0203 -1.2718 -0.7024
  360ccc     H5 9813   5.013   6.070   6.385  1.2489 -0.0089 -0.4667
  360ccc     O1 9814   5.172   6.161   6.297  0.0663 -0.0356 -0.6118
  360ccc     O2 9815   5.220   5.886   6.413 -0.9512 -0.1040 -0.0022
  360ccc     O3 9816   5.245   5.885   6.701  0.4829 -0.3698  0.0707
  360ccc     O4 9817   5.252   6.178   6.733 -0.4485  0.8109  0.2850
  360ccc     C6 9818   4.984   6.319   6.714  0.1227 -0.1587  0.4034
  360ccc     H6 9819   5.246   5.798   6.658  1.6942  0.1983 -1.1107
  360ccc     H7 9820   5.211   6.265   6.715 -0.9534  0.3836 -0.7619
  360ccc     H8 9821   5.311   5.863   6.438  0.0641  3.0406 -0.4188
  360ccc     H9 9822   4.940   6.299   6.813  0.3866  0.3277  0.6215
  360ccc    H10 9823   4.912   6.383   6.661  0.4456  0.3882  0.6187
  360ccc     O5 9824   5.102   6.395   6.738  0.0282 -0.2370 -0.9799
  360ccc    H11 9825   5.072   6.472   6.789  0.4812 -1.4540  1.2526
  360ccc     O6 9826   5.082   6.223   6.511  0.0471 -0.6785 -0.6888
  361ccc     C1 9827   5.474   6.047   6.086  0.1216  0.0766  0.3136
  361ccc     C2 9828   5.563   5.922   6.108  0.1480  0.5438  0.1617
  361ccc     H1 9829   5.396   6.044   6.164 -0.2027 -3.4055  0.0122
  361ccc     H2 9830   5.603   5.928   6.210 -1.1189  1.8644  0.6242
  361ccc     C3 9831   5.482   5.789   6.091 -0.1975 -0.0151  0.2493
  361ccc     C4 9832   5.378   5.793   5.980  0.9314 -0.2618  0.5320
  361ccc     C5 9833   5.315   5.931   5.947 -0.2694  0.3236  0.0538
  361ccc     H3 9834   5.436   5.767   5.890 -0.4542  0.2412 -0.5448
  361ccc     H4 9835   5.424   5.773   6.183 -1.3162 -0.6080 -0.5374
  361ccc     H5 9836   5.228   5.961   6.006 -0.5336  1.7324 -0.9762
  361ccc     O1 9837   5.268   5.928   5.808 -0.2409 -0.3034  0.5711
  361ccc     O2 9838   5.275   5.688   5.996  0.1614  0.1193  0.0759
  361ccc     O3 9839   5.574   5.679   6.073  0.4762  0.0078 -0.2102
  361ccc     O4 9840   5.664   5.923   6.010 -0.1014  0.5783 -0.4136
  361ccc     C6 9841   5.547   6.182   6.081 -0.3772 -0.0805  0.4386
  361ccc     H6 9842   5.525   5.595   6.077 -0.4544  0.5641  0.5432
  361ccc     H7 9843   5.677   5.827   5.996  1.6001  1.0787 -3.1502
  361ccc     H8 9844   5.303   5.617   5.936  1.3518  0.8475 -0.2812
  361ccc     H9 9845   5.557   6.219   6.184  1.8881 -0.4094  0.4049
  361ccc    H10 9846   5.487   6.255   6.026 -0.5015  1.7637  2.8423
  361ccc     O5 9847   5.677   6.179   6.014  0.3473  0.4809 -0.3925
  361ccc    H11 9848   5.679   6.082   6.007  1.4813  0.4968 -0.3656
  361ccc     O6 9849   5.416   6.027   5.953  0.3795 -0.3208 -0.1177
  362ccc     C1 9850   4.551   5.616   3.208  0.4727  0.6996  0.6227
  362ccc     C2 9851   4.482   5.500   3.054 -0.2829  0.4317 -0.2188
  362ccc     H1 9852   4.562   5.542   3.288 -1.1638  0.6823  0.8649
  362ccc     H2 9853   4.494   5.393   3.076  1.8229 -0.0415 -3.1530
  362ccc     C3 9854   4.291   5.516   3.001 -0.1785 -0.2477  0.6689
  362ccc     C4 9855   4.169   5.648   3.101 -0.5304 -0.0768  0.5557
  362ccc     C5 9856   4.242   5.755   3.252 -0.3095 -0.5591  0.0070
  362ccc     H3 9857   4.148   5.728   3.030  1.2733 -0.3328 -0.3249
  362ccc     H4 9858   4.246   5.423   3.037 -0.3058 -0.1658  0.7230
  362ccc     H5 9859   4.189   5.712   3.338 -0.4927  0.3868  0.3792
  362ccc     O1 9860   4.195   5.894   3.256  0.1498 -0.2019 -0.5834
  362ccc     O2 9861   4.047   5.586   3.134 -0.0291  0.1349 -0.3304
  362ccc     O3 9862   4.282   5.515   2.852 -0.4210 -0.6641 -0.5033
  362ccc     O4 9863   4.566   5.519   2.945 -0.1419  0.5064 -0.1053
  362ccc     C6 9864   4.685   5.685   3.181 -0.1049 -0.5554  0.6620
  362ccc     H6 9865   4.354   5.457   2.824  0.3591 -0.3689  0.7952
  362ccc     H7 9866   4.653   5.487   2.976 -1.1654 -2.6643 -0.1505
  362ccc     H8 9867   3.982   5.635   3.079 -0.1816  2.0393  1.4243
  362ccc     H9 9868   4.696   5.731   3.081 -1.4714 -0.0669  0.7095
  362ccc    H10 9869   4.766   5.614   3.200 -0.2177 -0.3744  1.8412
  362ccc     O5 9870   4.689   5.777   3.281 -0.0765 -0.1732 -0.8022
  362ccc    H11 9871   4.594   5.795   3.293  0.5766  1.8493  4.1113
  362ccc     O6 9872   4.428   5.743   3.293 -0.1903 -0.2306  0.1393
  363ccc     C1 9873   3.658   6.667   2.962  1.0480 -0.0979  0.8282
  363ccc     C2 9874   3.643   6.816   2.938 -0.2110 -0.5200  0.1857
  363ccc     H1 9875   3.584   6.634   3.036 -0.2742  0.0487 -0.3776
  363ccc     H2 9876   3.539   6.851   2.926  0.6859  1.4567 -2.9016
  363ccc     C3 9877   3.694   6.909   3.051  0.6176 -0.1886  0.1341
  363ccc     C4 9878   3.837   6.860   3.096 -0.2710 -0.7209  0.5405
  363ccc     C5 9879   3.835   6.704   3.122 -0.3121 -0.6085 -0.2700
  363ccc     H3 9880   3.905   6.885   3.013 -0.7278 -1.3911 -0.0473
  363ccc     H4 9881   3.628   6.891   3.137  1.0143 -0.7043  0.3341
  363ccc     H5 9882   3.781   6.677   3.214  1.4067  2.1812  1.7045
  363ccc     O1 9883   3.979   6.666   3.136  0.1499 -0.1090  0.4303
  363ccc     O2 9884   3.882   6.935   3.207  0.3471 -0.3167 -0.7402
  363ccc     O3 9885   3.698   7.054   3.016  0.2386 -0.2959  0.0851
  363ccc     O4 9886   3.704   6.859   2.817 -0.1642 -0.4638 -0.1488
  363ccc     C6 9887   3.609   6.582   2.839 -0.1344 -0.3412  1.0648
  363ccc     H6 9888   3.750   7.095   3.087  0.0608  0.9192 -0.4542
  363ccc     H7 9889   3.718   6.953   2.835  0.1273 -0.2971 -1.2028
  363ccc     H8 9890   3.977   6.918   3.219  0.5700  1.3187  0.0819
  363ccc     H9 9891   3.681   6.602   2.758  0.3795 -1.9723  1.0871
  363ccc    H10 9892   3.508   6.609   2.806 -0.0873 -1.2322  0.1309
  363ccc     O5 9893   3.623   6.447   2.882  0.2144 -0.0134  0.1971
  363ccc    H11 9894   3.647   6.447   2.977 -0.3521  0.0862  0.3431
  363ccc     O6 9895   3.789   6.631   3.010 -0.1676 -0.0608  0.0493
  364ccc     C1 9896   4.534   5.946   4.680  0.2079  0.2664  0.2292
  364ccc     C2 9897   4.509   5.792   4.648 -0.2252  0.1410  0.5197
  364ccc     H1 9898   4.470   5.965   4.768  1.1941  0.6600  0.8838
  364ccc     H2 9899   4.523   5.729   4.737  2.8825 -2.1205 -1.3666
  364ccc     C3 9900   4.363   5.782   4.599  0.1759 -0.1925  0.3152
  364ccc     C4 9901   4.340   5.873   4.472 -0.3095  0.1801 -0.0675
  364ccc     C5 9902   4.366   6.019   4.504  0.5396  0.3112  0.4751
  364ccc     H3 9903   4.412   5.842   4.395  1.9413 -0.3114  2.0973
  364ccc     H4 9904   4.305   5.828   4.680  0.7886  1.9204 -0.3869
  364ccc     H5 9905   4.301   6.057   4.584  2.2288  0.1492  1.9963
  364ccc     O1 9906   4.354   6.111   4.387  0.0506  0.0770  0.5191
  364ccc     O2 9907   4.205   5.859   4.421 -0.0506  0.1817  0.6535
  364ccc     O3 9908   4.315   5.644   4.580 -0.3185  0.1782 -0.7640
  364ccc     O4 9909   4.597   5.759   4.541  0.3577 -0.5833  0.6440
  364ccc     C6 9910   4.676   5.971   4.739 -0.3800  0.3255  0.3890
  364ccc     H6 9911   4.359   5.616   4.498 -0.7753 -1.5520 -0.4557
  364ccc     H7 9912   4.665   5.827   4.553  1.4170 -1.3159 -0.8207
  364ccc     H8 9913   4.194   5.775   4.373  0.2706  0.0522  0.8028
  364ccc     H9 9914   4.692   5.921   4.836  1.6976 -0.5221 -0.3314
  364ccc    H10 9915   4.681   6.080   4.732  1.3772  0.1893 -1.4134
  364ccc     O5 9916   4.765   5.919   4.641 -0.1655  0.0572  0.0193
  364ccc    H11 9917   4.853   5.915   4.683  1.1508  1.0017 -2.4510
  364ccc     O6 9918   4.497   6.028   4.567 -0.2903  0.3328  0.0669
  365ccc     C1 9919   3.396   6.445   4.712 -0.3514  0.3545  0.5678
  365ccc     C2 9920   3.373   6.563   4.625 -0.4942 -0.5513  0.0957
  365ccc     H1 9921   3.380   6.477   4.816 -0.2482  0.6666  0.4878
  365ccc     H2 9922   3.268   6.592   4.642 -0.3092  0.3997 -0.3140
  365ccc     C3 9923   3.465   6.686   4.659 -0.1238  0.5317 -0.1362
  365ccc     C4 9924   3.611   6.642   4.662 -0.6711 -1.0397 -0.2549
  365ccc     C5 9925   3.643   6.509   4.730 -0.4167 -0.2983 -0.5807
  365ccc     H3 9926   3.625   6.648   4.554  1.8031  1.0608  0.0797
  365ccc     H4 9927   3.435   6.706   4.763  0.3137 -0.3527  0.1763
  365ccc     H5 9928   3.637   6.533   4.837 -2.1978  0.9094 -0.8918
  365ccc     O1 9929   3.774   6.462   4.689 -0.4575 -0.0419  0.5759
  365ccc     O2 9930   3.696   6.744   4.730 -0.0424  0.5929 -0.1404
  365ccc     O3 9931   3.437   6.803   4.582  0.1160 -0.1928  0.0735
  365ccc     O4 9932   3.391   6.530   4.486  0.0426 -0.4318 -0.1172
  365ccc     C6 9933   3.308   6.325   4.676 -0.1299 -0.0948  0.0445
  365ccc     H6 9934   3.347   6.831   4.605 -0.7830 -2.1382 -0.7961
  365ccc     H7 9935   3.375   6.613   4.437  0.7890  0.5872  1.2904
  365ccc     H8 9936   3.700   6.819   4.668  2.4385 -0.1085 -0.9497
  365ccc     H9 9937   3.205   6.360   4.669 -0.0725 -0.2143 -1.9177
  365ccc    H10 9938   3.319   6.255   4.760 -0.8573  1.3937  1.4438
  365ccc     O5 9939   3.350   6.275   4.547 -0.7092 -0.0366 -1.0492
  365ccc    H11 9940   3.412   6.348   4.528  1.4157 -0.9264  1.8075
  365ccc     O6 9941   3.537   6.410   4.703  0.0761  0.6400 -0.0100
  366ccc     C1 9942   9.150   6.069   1.805 -0.0537  0.3724 -0.0034
  366ccc     C2 9943   9.183   5.967   1.919  0.0958  0.6395 -0.6223
  366ccc     H1 9944   9.253   6.101   1.785 -0.2797  1.4430  0.5017
  366ccc     H2 9945   9.253   5.888   1.888 -0.7420 -0.6507  0.6689
  366ccc     C3 9946   9.258   6.050   2.028 -1.0034 -0.7882 -0.2679
  366ccc     C4 9947   9.181   6.167   2.081 -0.6320  0.3750 -0.1544
  366ccc     C5 9948   9.149   6.264   1.962 -0.8789  0.6640  0.4020
  366ccc     H3 9949   9.086   6.132   2.122 -1.4217  1.0902 -1.3273
  366ccc     H4 9950   9.358   6.086   1.999 -0.5141 -2.5460 -0.8916
  366ccc     H5 9951   9.243   6.290   1.912 -0.1319 -0.3275  1.2477
  366ccc     O1 9952   9.080   6.381   2.017  0.1702 -0.0867 -0.2590
  366ccc     O2 9953   9.258   6.236   2.182  0.5811  0.3671 -0.4157
  366ccc     O3 9954   9.287   5.962   2.137  0.5008  0.0391  0.0375
  366ccc     O4 9955   9.057   5.911   1.957 -0.7339  0.0351 -0.0651
  366ccc     C6 9956   9.097   6.012   1.671  0.6972 -0.6739  0.0930
  366ccc     H6 9957   9.309   5.881   2.088  0.8647  0.4250 -0.4451
  366ccc     H7 9958   9.021   5.900   1.868 -0.6555  0.8408 -0.2107
  366ccc     H8 9959   9.214   6.322   2.188 -1.9604 -0.8573 -0.1809
  366ccc     H9 9960   9.187   5.980   1.616  1.1364 -0.4871  0.6901
  366ccc    H10 9961   9.053   6.098   1.619  0.9098 -1.4655 -1.4627
  366ccc     O5 9962   9.003   5.906   1.694 -0.6362  0.8263 -0.3529
  366ccc    H11 9963   8.939   5.900   1.622 -2.2171 -0.3749  1.0671
  366ccc     O6 9964   9.074   6.189   1.854  0.0048 -0.1563 -0.2589
  367ccc     C1 9965   8.711   5.687   1.676  0.3346  0.4203 -0.3574
  367ccc     C2 9966   8.607   5.571   1.678 -0.4718 -0.2352  0.2798
  367ccc     H1 9967   8.803   5.632   1.702 -0.7667 -1.1667  0.3379
  367ccc     H2 9968   8.642   5.491   1.613 -0.1535  0.3291 -0.2466
  367ccc     C3 9969   8.594   5.522   1.822 -0.0614 -0.3535 -0.5215
  367ccc     C4 9970   8.568   5.644   1.925  0.6057  0.2020 -0.8757
  367ccc     C5 9971   8.678   5.753   1.916 -0.2718 -0.0167  0.3075
  367ccc     H3 9972   8.476   5.696   1.897  1.4180  1.3576 -1.4569
  367ccc     H4 9973   8.694   5.488   1.853  0.5161 -1.4672 -3.2938
  367ccc     H5 9974   8.774   5.712   1.950 -0.2495  0.2584  0.5860
  367ccc     O1 9975   8.644   5.874   1.994  0.0127  0.0207 -0.7496
  367ccc     O2 9976   8.557   5.590   2.062 -0.0906  0.2330  0.0736
  367ccc     O3 9977   8.499   5.410   1.842 -0.1344 -0.8480  0.1995
  367ccc     O4 9978   8.484   5.621   1.632  0.6394 -0.6792  0.1250
  367ccc     C6 9979   8.720   5.748   1.530  0.2717 -0.4541  0.4348
  367ccc     H6 9980   8.516   5.379   1.932 -1.8221 -1.9865  0.1666
  367ccc     H7 9981   8.417   5.551   1.639  0.1467 -0.1823  0.4302
  367ccc     H8 9982   8.651   5.571   2.083  0.7238  2.0905 -1.6374
  367ccc     H9 9983   8.627   5.792   1.491  0.8277 -1.2360 -2.0023
  367ccc    H10 9984   8.739   5.660   1.467 -1.5374  1.3738 -2.9967
  367ccc     O5 9985   8.823   5.855   1.507 -0.4894  0.0313 -0.4957
  367ccc    H11 9986   8.788   5.878   1.419 -1.4867 -1.0353 -0.3971
  367ccc     O6 9987   8.690   5.790   1.779 -0.3546 -0.2462  0.1603
  368ccc     C1 9988   6.630   6.596   3.069  0.2699 -0.6541 -0.2340
  368ccc     C2 9989   6.489   6.543   3.062  0.3474 -0.1304  0.4488
  368ccc     H1 9990   6.633   6.702   3.042 -0.2352  0.0401  2.1818
  368ccc     H2 9991   6.416   6.603   3.119  0.0185 -2.2079  2.3806
  368ccc     C3 9992   6.432   6.547   2.914  0.3493  0.0486 -0.4832
  368ccc     C4 9993   6.530   6.463   2.820 -0.0650 -0.5340 -0.9640
  368ccc     C5 9994   6.659   6.531   2.837 -0.2097 -0.3239 -0.4526
  368ccc     H3 9995   6.534   6.356   2.847  3.1722  0.0932  1.6499
  368ccc     H4 9996   6.434   6.652   2.884  0.5530 -0.8583 -4.1035
  368ccc     H5 9997   6.647   6.634   2.803 -2.8477 -0.3729  0.1273
  368ccc     O1 9998   6.763   6.475   2.749 -0.2913  0.0155 -0.4485
  368ccc     O2 9999   6.476   6.474   2.682  0.1096 -0.3972  0.3971
  368ccc     O310000   6.290   6.492   2.904  0.0116 -0.3021  0.1793
  368ccc     O410001   6.474   6.411   3.116  0.2994 -0.3668  0.2854
  368ccc     C610002   6.696   6.569   3.198 -0.2874 -0.1586 -0.1420
  368ccc     H610003   6.233   6.549   2.959 -0.3915  1.8974 -2.3067
  368ccc     H710004   6.392   6.404   3.167  1.9278 -0.1468  3.1788
  368ccc     H810005   6.388   6.435   2.679 -1.3981  2.6225  1.2583
  368ccc     H910006   6.761   6.480   3.204 -1.7093 -1.1598  1.9204
  368ccc    H1010007   6.626   6.561   3.282  2.2463 -0.1223  2.1306
  368ccc     O510008   6.771   6.689   3.219 -0.0545 -0.3614 -0.2658
  368ccc    H1110009   6.848   6.678   3.160  0.5659 -0.5685  0.5673
  368ccc     O610010   6.712   6.534   2.970  0.0418  0.2940 -0.3361
  369ccc     C110011   6.838   6.233   2.023  0.9040 -0.4448 -0.0069
  369ccc     C210012   6.928   6.162   1.925 -0.1667 -0.7061  0.3015
  369ccc     H110013   6.766   6.299   1.974 -0.3821 -0.4800  1.7432
  369ccc     H210014   6.863   6.120   1.847  0.3987 -1.2918  0.1349
  369ccc     C310015   7.033   6.265   1.854  0.1207  0.0520  0.1412
  369ccc     C410016   7.098   6.368   1.944 -0.1700  0.0034  0.6478
  369ccc     C510017   7.002   6.422   2.064 -0.2233  0.1024  0.0548
  369ccc     H310018   7.178   6.318   2.000 -0.0067 -0.7269 -0.2267
  369ccc     H410019   6.970   6.324   1.786  2.1688  3.0878  0.7183
  369ccc     H510020   6.945   6.509   2.029  2.3331  2.0129  0.3447
  369ccc     O110021   7.097   6.467   2.167 -0.1099  0.5901  0.2151
  369ccc     O210022   7.155   6.484   1.870 -0.1952  0.2874 -0.2680
  369ccc     O310023   7.136   6.195   1.769 -0.3204  0.4345 -0.7625
  369ccc     O410024   6.998   6.063   1.997 -0.5472  0.8017 -0.2742
  369ccc     C610025   6.755   6.142   2.109  0.9993  1.0050  0.4070
  369ccc     H610026   7.087   6.160   1.693  2.5321 -1.7377 -1.7955
  369ccc     H710027   6.955   6.053   2.083  1.7694 -0.7963  0.8102
  369ccc     H810028   7.208   6.452   1.795 -1.3469  1.6152 -1.6991
  369ccc     H910029   6.699   6.077   2.041  1.1912  0.6557  0.5813
  369ccc    H1010030   6.680   6.197   2.166 -0.3601 -0.2652 -0.0942
  369ccc     O510031   6.839   6.065   2.195  0.0110 -0.2677  0.4923
  369ccc    H1110032   6.827   6.106   2.282  0.0147 -1.1049  0.9053
  369ccc     O610033   6.920   6.313   2.119  0.8664  0.4253  0.1643
  370ccc     C110034   8.045   7.417   4.822 -0.2503  0.9280 -0.2573
  370ccc     C210035   8.156   7.349   4.913  0.1729 -0.8489 -0.2319
  370ccc     H110036   7.976   7.467   4.891  1.3644 -0.7562  2.8005
  370ccc     H210037   8.204   7.430   4.968 -2.4494  1.4755 -1.0908
  370ccc     C310038   8.091   7.246   5.004 -0.1548 -0.2790 -0.0170
  370ccc     C410039   8.018   7.136   4.922  0.2694 -0.2436 -0.1154
  370ccc     C510040   7.920   7.210   4.823  0.2668 -0.4625  0.2164
  370ccc     H310041   8.083   7.079   4.855 -0.6683 -0.7193 -0.6355
  370ccc     H410042   8.013   7.298   5.061  0.2455 -1.3637  1.5833
  370ccc     H510043   7.846   7.264   4.883  1.2001  1.6827 -0.4959
  370ccc     O110044   7.863   7.104   4.736 -0.7095  0.5356 -0.2887
  370ccc     O210045   7.947   7.061   5.019 -0.4457  0.1467 -0.6672
  370ccc     O310046   8.190   7.174   5.089  0.5946 -0.3937  0.5998
  370ccc     O410047   8.261   7.296   4.831 -0.2193 -0.1512  0.0623
  370ccc     C610048   8.084   7.530   4.730 -0.7811  0.0802 -0.0987
  370ccc     H610049   8.213   7.245   5.151  1.2900 -0.4746  0.4470
  370ccc     H710050   8.315   7.232   4.881  0.2247 -0.9948 -1.4224
  370ccc     H810051   7.968   6.970   4.990  0.1477  0.1559 -0.2877
  370ccc     H910052   8.117   7.624   4.777 -1.1340  0.1610 -0.0121
  370ccc    H1010053   7.998   7.564   4.671 -1.2567  2.2131  1.6831
  370ccc     O510054   8.181   7.488   4.639 -0.3041 -0.1947 -0.8291
  370ccc    H1110055   8.206   7.410   4.692 -1.6826 -0.1296 -0.0279
  370ccc     O610056   7.989   7.310   4.741  0.0826 -0.2636 -0.2308
  371ccc     C110057   8.493   6.532   4.519  0.1234  0.0428 -0.0607
  371ccc     C210058   8.535   6.445   4.400  0.4659 -0.0294 -0.0681
  371ccc     H110059   8.523   6.478   4.610 -0.7996  0.2661  0.3875
  371ccc     H210060   8.642   6.422   4.399  0.6189  0.6584 -0.9244
  371ccc     C310061   8.447   6.317   4.387 -0.9341 -0.0165 -0.1491
  371ccc     C410062   8.298   6.336   4.412  0.4026 -0.1792 -0.1177
  371ccc     C510063   8.278   6.419   4.532 -0.9712 -0.7078  0.8216
  371ccc     H310064   8.246   6.390   4.331 -2.3561 -0.5143  1.2993
  371ccc     H410065   8.486   6.251   4.466 -1.6871  3.6949  3.6538
  371ccc     H510066   8.324   6.370   4.619  0.1181 -0.3807  0.4504
  371ccc     O110067   8.142   6.448   4.558 -0.4856  0.0399  0.2825
  371ccc     O210068   8.228   6.208   4.435  0.3413  0.0786 -0.2038
  371ccc     O310069   8.472   6.258   4.258 -0.0819 -0.3358  0.3496
  371ccc     O410070   8.495   6.516   4.282 -0.8780  0.0917 -0.2943
  371ccc     C610071   8.573   6.664   4.525  0.1956 -0.3267  0.3210
  371ccc     H610072   8.414   6.182   4.238  1.1655 -0.5817 -3.0129
  371ccc     H710073   8.487   6.448   4.213 -0.8505  2.2892 -2.6025
  371ccc     H810074   8.133   6.221   4.418  0.2111 -0.3311  0.1889
  371ccc     H910075   8.680   6.644   4.514  0.1911 -0.1643 -0.0230
  371ccc    H1010076   8.562   6.699   4.628 -1.3646  0.0670  0.0492
  371ccc     O510077   8.524   6.751   4.413 -0.1189 -0.5688 -0.4580
  371ccc    H1110078   8.486   6.684   4.354 -0.6443  1.4259 -2.5576
  371ccc     O610079   8.348   6.547   4.523 -0.1753 -0.3758 -0.4164
  372ccc     C110080   7.700   5.708   4.022  0.0945  0.5627 -0.0933
  372ccc     C210081   7.642   5.592   4.104  0.0577  0.1196 -0.3862
  372ccc     H110082   7.701   5.789   4.097 -1.4039 -0.2199  0.8396
  372ccc     H210083   7.695   5.585   4.200  0.0391 -0.3885 -0.4104
  372ccc     C310084   7.494   5.610   4.141  0.8891 -0.3684  0.1138
  372ccc     C410085   7.406   5.633   4.014  0.4442 -0.6503  0.3061
  372ccc     C510086   7.463   5.762   3.942 -0.2656 -0.1703 -0.2184
  372ccc     H310087   7.423   5.553   3.941  2.8680  0.2763 -0.2289
  372ccc     H410088   7.481   5.691   4.213 -0.8446 -1.7057  1.3633
  372ccc     H510089   7.441   5.855   3.996  0.5470 -0.3615  0.4689
  372ccc     O110090   7.396   5.767   3.804  0.2459 -0.3507  0.0553
  372ccc     O210091   7.268   5.660   4.055 -0.8558 -0.0915 -0.1170
  372ccc     O310092   7.459   5.492   4.215  0.0721 -0.4887 -0.0924
  372ccc     O410093   7.677   5.488   4.016  0.1354 -0.4629 -0.1765
  372ccc     C610094   7.845   5.698   3.965  0.4901 -0.1887  0.4560
  372ccc     H610095   7.361   5.488   4.214  0.0604 -1.1686 -2.4721
  372ccc     H710096   7.680   5.407   4.071  1.1494 -0.2143  0.1626
  372ccc     H810097   7.235   5.573   4.083  1.6490 -0.5162  1.8802
  372ccc     H910098   7.851   5.606   3.905  0.3631 -1.0029  1.6521
  372ccc    H1010099   7.922   5.691   4.042 -0.5258  0.8708  1.5990
  372ccc     O510100   7.867   5.818   3.890 -0.1466  0.1988 -0.1078
  372ccc    H1110101   7.963   5.828   3.897 -0.2832  1.2483  0.5618
  372ccc     O610102   7.604   5.740   3.915  0.1109 -0.0358 -0.3767
  373ccc     C110103   7.573   4.896   3.186 -0.2195  0.2384  0.0035
  373ccc     C210104   7.699   4.827   3.234  0.1275  0.6072 -0.3858
  373ccc     H110105   7.567   4.895   3.076 -2.7993 -0.1242  0.0875
  373ccc     H210106   7.702   4.727   3.189 -0.9102 -0.3033  1.4580
  373ccc     C310107   7.814   4.918   3.196 -0.5753 -0.5296  0.0930
  373ccc     C410108   7.807   5.070   3.230 -0.3045  0.1905  0.4307
  373ccc     C510109   7.666   5.129   3.204  0.5206  0.1050  0.4813
  373ccc     H310110   7.813   5.084   3.339  1.2496  1.3318  0.2345
  373ccc     H410111   7.813   4.929   3.087 -2.0449  1.5295  0.2573
  373ccc     H510112   7.656   5.161   3.099 -2.6589 -0.1205  0.6196
  373ccc     O110113   7.654   5.252   3.276 -0.4086  0.3490  0.0053
  373ccc     O210114   7.907   5.147   3.167 -0.4485  0.0297 -0.8076
  373ccc     O310115   7.950   4.869   3.237  0.4542 -0.0774 -0.6551
  373ccc     O410116   7.712   4.805   3.377 -0.0645  0.1431  0.3951
  373ccc     C610117   7.452   4.827   3.240 -0.2491  0.5792  0.1871
  373ccc     H610118   7.970   4.793   3.180 -0.9531  0.0982 -1.4206
  373ccc     H710119   7.792   4.851   3.405  0.3076  0.5247 -1.2090
  373ccc     H810120   7.970   5.184   3.231 -0.0698  1.6025 -2.0262
  373ccc     H910121   7.431   4.856   3.343  0.4406  0.0189  0.4924
  373ccc    H1010122   7.471   4.719   3.238 -2.4662  0.1490 -0.9198
  373ccc     O510123   7.344   4.856   3.153  0.0108 -0.0863 -0.5689
  373ccc    H1110124   7.318   4.948   3.168  1.6233  0.5580 -1.3939
  373ccc     O610125   7.571   5.029   3.250  0.2818 -0.5977 -0.9748
  374ccc     C110126   6.645   7.451   4.026 -0.2968 -0.1398 -0.4240
  374ccc     C210127   6.625   7.320   3.949 -1.0125 -0.0387 -0.0934
  374ccc     H110128   6.674   7.434   4.130  2.1091 -1.9065 -1.2976
  374ccc     H210129   6.708   7.252   3.970 -0.0468  0.9237 -0.7036
  374ccc     C310130   6.499   7.250   4.001  0.2607 -0.4272  0.8791
  374ccc     C410131   6.369   7.331   4.026  0.0933  0.3586  0.5489
  374ccc     C510132   6.408   7.477   4.083  0.4493  0.1537  0.6556
  374ccc     H310133   6.322   7.356   3.930  1.0780  1.2773  0.2894
  374ccc     H410134   6.520   7.212   4.102 -1.1211 -1.3532  0.8421
  374ccc     H510135   6.442   7.470   4.187 -2.4440 -2.6897  1.6035
  374ccc     O110136   6.291   7.566   4.063 -0.2290 -0.0600 -0.4482
  374ccc     O210137   6.276   7.255   4.115  1.0406 -0.1598 -0.1342
  374ccc     O310138   6.483   7.133   3.908  0.1678  0.1746 -0.4404
  374ccc     O410139   6.622   7.353   3.811  0.6271 -0.5303  0.1318
  374ccc     C610140   6.765   7.537   3.974 -0.0034 -0.7034 -0.1660
  374ccc     H610141   6.409   7.080   3.941  1.4304 -2.0727 -0.9965
  374ccc     H710142   6.705   7.321   3.772  1.6141 -0.7773  2.2853
  374ccc     H810143   6.190   7.295   4.093  2.3616  3.3240  0.3870
  374ccc     H910144   6.736   7.568   3.872  2.9287 -1.3138 -1.2731
  374ccc    H1010145   6.852   7.472   3.959  0.4480 -1.0576  3.2166
  374ccc     O510146   6.781   7.643   4.063  0.1915 -0.8000 -0.3888
  374ccc    H1110147   6.862   7.688   4.035  0.7232 -1.4522  0.0371
  374ccc     O610148   6.526   7.535   4.011 -0.0588  0.5041 -0.1648
  375ccc     C110149   5.763   8.498   3.887 -0.4921  0.0966  0.1601
  375ccc     C210150   5.640   8.487   3.795 -0.3101  0.1152 -0.6210
  375ccc     H110151   5.828   8.576   3.845 -0.7015 -1.2518 -2.9345
  375ccc     H210152   5.592   8.585   3.800 -0.1535  0.1839  4.0413
  375ccc     C310153   5.681   8.447   3.653  0.0081  0.2642 -0.4930
  375ccc     C410154   5.770   8.317   3.647 -0.3231  0.5878 -0.7145
  375ccc     C510155   5.886   8.331   3.751  0.5927 -0.2564 -0.7679
  375ccc     H310156   5.703   8.237   3.681 -1.0917  1.0421 -1.1093
  375ccc     H410157   5.753   8.527   3.632  0.5979  0.2973  1.4806
  375ccc     H510158   5.960   8.402   3.712 -0.2446  0.4045 -1.1851
  375ccc     O110159   5.947   8.199   3.775 -0.4409  0.3882 -0.4980
  375ccc     O210160   5.826   8.282   3.513  0.2945 -0.2333  0.7061
  375ccc     O310161   5.568   8.434   3.569  1.1004  0.2615  0.6139
  375ccc     O410162   5.555   8.385   3.846 -0.5690  0.1402  0.2803
  375ccc     C610163   5.727   8.544   4.027  0.4491  0.7107  0.0189
  375ccc     H610164   5.503   8.393   3.628  0.2359  0.6302 -0.0690
  375ccc     H710165   5.584   8.396   3.938 -0.1742 -0.9643  0.3108
  375ccc     H810166   5.757   8.315   3.453  0.9422  1.0099  0.6330
  375ccc     H910167   5.678   8.641   4.006 -0.0374  0.1619 -1.5855
  375ccc    H1010168   5.815   8.565   4.089  1.4111 -0.3634 -0.9366
  375ccc     O510169   5.622   8.454   4.081 -0.0123 -0.0571  0.5418
  375ccc    H1110170   5.589   8.492   4.164  1.4278  0.9691  0.6840
  375ccc     O610171   5.831   8.371   3.876 -0.2690  0.4076  0.4078
  376ccc     C110172   6.748   9.019   2.234  0.1033  0.4221  0.5388
  376ccc     C210173   6.862   8.951   2.307 -0.7852  0.0363  0.5030
  376ccc     H110174   6.707   9.099   2.296 -0.4455 -0.5318  1.4502
  376ccc     H210175   6.940   9.022   2.336 -0.0014 -1.0232  1.0671
  376ccc     C310176   6.816   8.886   2.438  1.2113  0.5537  0.0375
  376ccc     C410177   6.690   8.794   2.421  0.3880 -0.3898  0.2600
  376ccc     C510178   6.582   8.863   2.329 -1.3365 -0.1750 -0.4240
  376ccc     H310179   6.718   8.700   2.372 -0.2495 -1.2402  1.4590
  376ccc     H410180   6.789   8.968   2.505  0.0846 -0.0767  0.3849
  376ccc     H510181   6.540   8.942   2.392 -0.2623  0.1816 -0.1269
  376ccc     O110182   6.477   8.765   2.296  0.5642 -0.2067 -0.2924
  376ccc     O210183   6.633   8.755   2.553 -0.1401  0.1148  0.1584
  376ccc     O310184   6.931   8.812   2.493  0.8224 -0.0717 -0.0046
  376ccc     O410185   6.917   8.850   2.218 -0.7002 -0.8476 -0.8262
  376ccc     C610186   6.777   9.084   2.096 -0.0272 -0.1980  0.2255
  376ccc     H610187   6.923   8.794   2.588  3.1743  0.5371  0.3521
  376ccc     H710188   6.891   8.890   2.133  1.4020  1.4705 -0.4727
  376ccc     H810189   6.618   8.659   2.547  0.2574  0.1125 -0.9253
  376ccc     H910190   6.853   9.160   2.118  0.2089 -0.6124  0.8981
  376ccc    H1010191   6.687   9.131   2.057 -1.3287 -0.2242  2.9434
  376ccc     O510192   6.839   8.988   2.014 -0.2550 -0.4568 -0.9337
  376ccc    H1110193   6.844   9.034   1.928 -1.8736 -1.0798 -1.4002
  376ccc     O610194   6.641   8.915   2.211  0.6862 -0.0649 -0.1441
  377ccc     C110195   5.497   9.008   2.180 -0.6165 -0.5813  0.0034
  377ccc     C210196   5.560   9.088   2.063 -0.8526  0.3538  0.3234
  377ccc     H110197   5.439   9.086   2.229  0.0348  0.2805 -0.5605
  377ccc     H210198   5.477   9.135   2.009  0.0776  0.2388 -1.3039
  377ccc     C310199   5.647   9.199   2.121  0.2540 -0.6138  0.4942
  377ccc     C410200   5.744   9.139   2.222 -0.4767 -0.5231  0.1703
  377ccc     C510201   5.667   9.067   2.342 -0.4742 -0.9203  0.8443
  377ccc     H310202   5.809   9.060   2.182 -1.2530 -1.8867  1.4898
  377ccc     H410203   5.588   9.277   2.170 -0.8811 -0.8353 -0.4687
  377ccc     H510204   5.598   9.138   2.389 -1.0695 -0.8440 -0.1049
  377ccc     O110205   5.764   9.006   2.425  0.1705  0.7445  0.7445
  377ccc     O210206   5.818   9.250   2.270 -0.3135 -0.1527  0.3669
  377ccc     O310207   5.709   9.271   2.009 -0.3823  0.1977 -0.3227
  377ccc     O410208   5.631   8.997   1.975  0.4675  0.0075  0.3871
  377ccc     C610209   5.405   8.895   2.141  0.1639 -0.4074  0.5934
  377ccc     H610210   5.745   9.357   2.037 -0.0853  0.0905 -0.3764
  377ccc     H710211   5.684   9.056   1.919  1.4690 -2.1823 -1.1202
  377ccc     H810212   5.877   9.264   2.194  2.1648 -1.4980  1.9366
  377ccc     H910213   5.460   8.801   2.128 -1.2676 -1.7324  3.3448
  377ccc    H1010214   5.352   8.921   2.048  0.1297  3.2218  1.5040
  377ccc     O510215   5.313   8.887   2.245  0.1610  0.1218  0.3380
  377ccc    H1110216   5.316   8.795   2.278  0.3312 -0.0616 -0.1746
  377ccc     O610217   5.596   8.962   2.276  0.2506 -0.1136 -0.7278
  378ccc     C110218   6.140   6.861   5.594  0.3802  0.3877  0.5279
  378ccc     C210219   6.047   6.949   5.683 -0.3972  0.7183 -0.4610
  378ccc     H110220   6.234   6.847   5.649  1.8679  0.4590 -1.8511
  378ccc     H210221   6.041   6.892   5.776  3.0309  0.0381 -0.5391
  378ccc     C310222   6.116   7.083   5.713  0.1365 -0.0804 -0.7782
  378ccc     C410223   6.159   7.153   5.581 -0.0933  0.0007 -0.0945
  378ccc     C510224   6.233   7.048   5.484 -0.4505 -0.6610  0.6288
  378ccc     H310225   6.063   7.184   5.537  0.3449  1.6914  0.0526
  378ccc     H410226   6.213   7.064   5.761 -0.0586  2.4671  0.8047
  378ccc     H510227   6.329   7.018   5.529  0.3970 -3.3207 -2.5669
  378ccc     O110228   6.260   7.121   5.358 -0.2746 -0.1748 -0.5996
  378ccc     O210229   6.243   7.268   5.618 -0.3625 -0.6132  0.0270
  378ccc     O310230   6.030   7.166   5.793 -0.5575  0.0406  0.3582
  378ccc     O410231   5.916   6.957   5.625  0.4970 -0.4024  0.6091
  378ccc     C610232   6.088   6.716   5.583 -0.3417 -0.0381 -0.0527
  378ccc     H610233   6.070   7.254   5.799  1.0603 -0.7097  1.5231
  378ccc     H710234   5.886   7.049   5.627  1.9000  0.0939  0.4025
  378ccc     H810235   6.193   7.325   5.680  2.0690  1.8063 -0.0550
  378ccc     H910236   6.009   6.717   5.508 -2.4220 -0.6185  2.0243
  378ccc    H1010237   6.042   6.682   5.677 -0.6649  1.3614  0.3130
  378ccc     O510238   6.195   6.624   5.553 -0.1080  0.3329  0.3562
  378ccc    H1110239   6.282   6.663   5.572  0.5655 -1.2556  0.7891
  378ccc     O610240   6.165   6.925   5.465 -0.7941 -0.4431  0.6323
  379ccc     C110241   6.039   7.566   5.704  0.3270  0.0243  0.0095
  379ccc     C210242   5.928   7.674   5.698 -0.5715 -0.3912  0.0610
  379ccc     H110243   6.141   7.604   5.713  0.1977  0.6163 -0.9079
  379ccc     H210244   5.951   7.746   5.778  1.9583  1.7296 -2.3423
  379ccc     C310245   5.940   7.752   5.565  0.6674  0.9646  0.3633
  379ccc     C410246   5.942   7.660   5.437  0.3620  0.4119  0.6829
  379ccc     C510247   6.066   7.570   5.459  0.3980  0.4611  0.5493
  379ccc     H310248   5.851   7.600   5.428 -0.3911  1.8196 -4.3069
  379ccc     H410249   6.039   7.798   5.582  0.7281  0.1035  2.7540
  379ccc     H510250   6.153   7.637   5.463  0.2297  0.7665 -0.5987
  379ccc     O110251   6.064   7.479   5.339 -0.5992  0.5155  0.0976
  379ccc     O210252   5.945   7.757   5.325 -0.1508  0.3074 -0.0557
  379ccc     O310253   5.844   7.850   5.546  0.0524 -0.2547 -0.3324
  379ccc     O410254   5.801   7.624   5.722 -0.0307 -0.5197  1.0290
  379ccc     C610255   6.019   7.469   5.819 -0.4462  0.4455 -0.0729
  379ccc     H610256   5.868   7.901   5.467  0.5007  1.1428  0.6731
  379ccc     H710257   5.781   7.651   5.813  1.5646 -0.7175  1.4722
  379ccc     H810258   5.965   7.696   5.252  0.2890 -1.1841  1.2657
  379ccc     H910259   5.935   7.402   5.799  0.1654 -1.0040  1.9822
  379ccc    H1010260   6.004   7.517   5.917 -0.7713 -0.1190  0.1576
  379ccc     O510261   6.149   7.400   5.830 -0.0142  0.1591 -0.1782
  379ccc    H1110262   6.204   7.457   5.887 -0.7913 -0.4654  1.2649
  379ccc     O610263   6.037   7.493   5.581 -0.4473 -0.0740 -0.6553
  380ccc     C110264   6.241   8.006   4.996  0.2413 -1.0252 -0.1212
  380ccc     C210265   6.091   7.990   5.027  0.5441  0.2921 -0.1928
  380ccc     H110266   6.293   8.060   5.076 -2.0565 -0.9001  1.3512
  380ccc     H210267   6.089   7.929   5.117  0.6715 -2.1895 -1.7834
  380ccc     C310268   6.023   8.133   5.048 -0.0954  0.1549 -0.0507
  380ccc     C410269   6.044   8.219   4.922 -0.2092 -0.3668  0.4232
  380ccc     C510270   6.193   8.225   4.877  0.9203 -0.3838  0.4117
  380ccc     H310271   5.981   8.169   4.847 -1.0555 -0.4488  1.1778
  380ccc     H410272   6.090   8.182   5.119  0.5046 -0.1702 -0.3831
  380ccc     H510273   6.248   8.287   4.950 -1.1735  3.5573 -1.0496
  380ccc     O110274   6.208   8.287   4.743  0.0178  0.4747  0.3771
  380ccc     O210275   5.996   8.350   4.945  0.2774  0.0214 -0.6169
  380ccc     O310276   5.891   8.118   5.117 -0.3876  0.4072  0.0000
  380ccc     O410277   6.022   7.928   4.918  0.0688 -0.0515 -0.9749
  380ccc     C610278   6.305   7.870   4.975 -0.1329  0.2416  0.5345
  380ccc     H610279   5.827   8.066   5.065  0.2181 -0.7234  0.3557
  380ccc     H710280   6.085   7.861   4.887  2.4617  0.4889  2.2358
  380ccc     H810281   5.900   8.347   4.962 -0.0906 -0.6273 -2.5412
  380ccc     H910282   6.315   7.819   5.072 -0.4235 -1.0696 -0.0956
  380ccc    H1010283   6.404   7.882   4.930 -0.8526  0.2940 -1.1297
  380ccc     O510284   6.232   7.785   4.882 -0.2954 -0.2352  0.0798
  380ccc    H1110285   6.259   7.814   4.793  0.1922 -0.4332  0.1600
  380ccc     O610286   6.253   8.093   4.873  0.2413  0.3811 -0.0040
  381ccc     C110287   6.503   8.011   3.964  0.6547 -0.4187  0.2727
  381ccc     C210288   6.514   8.079   3.826 -0.1039 -0.4289  0.2733
  381ccc     H110289   6.396   7.997   3.987  0.4204  3.3545  2.3709
  381ccc     H210290   6.466   8.013   3.752 -1.2751  0.8053 -0.1311
  381ccc     C310291   6.459   8.227   3.826 -0.7912 -0.1412  0.3274
  381ccc     C410292   6.528   8.311   3.940 -0.0418 -0.1572 -0.5851
  381ccc     C510293   6.506   8.234   4.078  0.0961 -0.3020  0.8314
  381ccc     H310294   6.636   8.322   3.924 -0.3007 -0.0091 -2.3141
  381ccc     H410295   6.355   8.217   3.859 -0.3603 -1.7847  1.2613
  381ccc     H510296   6.402   8.234   4.112  0.2655  2.0591  1.5002
  381ccc     O110297   6.582   8.306   4.182 -0.0913 -0.4626  0.1079
  381ccc     O210298   6.471   8.438   3.947 -0.4095  0.0713  0.2029
  381ccc     O310299   6.474   8.283   3.693  0.8749  0.4501 -0.6213
  381ccc     O410300   6.658   8.094   3.786  0.3043  0.4324  0.1896
  381ccc     C610301   6.585   7.882   3.967 -0.2539 -0.4225 -0.4013
  381ccc     H610302   6.428   8.367   3.707 -1.1863 -0.7363  0.1164
  381ccc     H710303   6.658   8.160   3.715 -1.2452 -0.0567 -0.2922
  381ccc     H810304   6.540   8.492   3.991  0.4586 -1.3093  0.5882
  381ccc     H910305   6.691   7.901   3.943  0.3538 -1.3250  1.3616
  381ccc    H1010306   6.560   7.815   3.885  2.2354  2.7217 -4.1122
  381ccc     O510307   6.574   7.810   4.094  0.2679 -0.5510 -0.1750
  381ccc    H1110308   6.627   7.730   4.080 -1.1099 -1.7609  1.1053
  381ccc     O610309   6.561   8.098   4.063 -0.3431 -0.3728 -0.3429
  382ccc     C110310   3.798   6.341   6.230 -0.0798  0.0879  0.0093
  382ccc     C210311   3.848   6.416   6.356  0.1139 -0.2230 -0.4141
  382ccc     H110312   3.720   6.271   6.262 -1.0089  1.4663  0.9195
  382ccc     H210313   3.760   6.445   6.416  0.3093  0.8262 -0.6023
  382ccc     C310314   3.925   6.324   6.452  0.0278  0.3734 -0.4577
  382ccc     C410315   4.033   6.242   6.376  0.8357 -0.1337  0.1323
  382ccc     C510316   3.979   6.181   6.238  0.0107 -0.4306 -0.9660
  382ccc     H310317   4.112   6.313   6.351 -0.3357  1.2588  0.2182
  382ccc     H410318   3.845   6.265   6.498  0.0604  0.8790  0.2815
  382ccc     H510319   3.909   6.100   6.261  1.4940 -0.8579  2.8572
  382ccc     O110320   4.092   6.137   6.158 -1.3308 -0.1764  0.5586
  382ccc     O210321   4.090   6.138   6.451  0.2724 -0.3539 -0.1942
  382ccc     O310322   4.008   6.402   6.549  0.0470 -0.5137 -0.0712
  382ccc     O410323   3.933   6.522   6.315 -0.3022  0.0355  0.1714
  382ccc     C610324   3.719   6.446   6.142 -0.7493 -0.1014  0.4701
  382ccc     H610325   3.947   6.441   6.615 -0.7764  0.9599 -1.6449
  382ccc     H710326   3.997   6.535   6.388 -0.2553  0.3957  0.0729
  382ccc     H810327   4.121   6.180   6.534  0.0009 -0.2911 -0.1252
  382ccc     H910328   3.788   6.513   6.090 -0.5872 -0.1312  0.6445
  382ccc    H1010329   3.650   6.507   6.201  0.4838  1.1840  0.6445
  382ccc     O510330   3.646   6.367   6.050 -0.2130 -0.0723 -0.0994
  382ccc    H1110331   3.656   6.420   5.969 -1.8893 -2.5649 -2.1213
  382ccc     O610332   3.908   6.285   6.162  0.3522 -0.8832 -0.0454
  383ccc     C110333   4.754   5.563   6.249  0.4501 -0.0487  0.5371
  383ccc     C210334   4.899   5.511   6.239  0.2452  0.6807 -0.2451
  383ccc     H110335   4.718   5.581   6.147 -0.2987 -0.3416  0.7418
  383ccc     H210336   4.894   5.423   6.174 -1.1262  1.9911 -1.9943
  383ccc     C310337   4.997   5.616   6.180  0.2272 -0.2373 -0.3599
  383ccc     C410338   4.987   5.752   6.256  0.6756 -0.5119  0.0850
  383ccc     C510339   4.840   5.800   6.272 -0.3716 -0.7147  0.3742
  383ccc     H310340   5.026   5.739   6.357 -0.9926  2.5465  1.2737
  383ccc     H410341   4.971   5.648   6.078  1.1795 -4.5445 -2.1833
  383ccc     H510342   4.804   5.838   6.175  0.7494  0.2052  0.3060
  383ccc     O110343   4.833   5.910   6.365 -0.3075 -0.0376  0.1769
  383ccc     O210344   5.058   5.856   6.188 -0.0558  0.1923 -0.0587
  383ccc     O310345   5.133   5.561   6.182 -0.3148 -0.3720  0.2690
  383ccc     O410346   4.938   5.477   6.378 -0.1032 -0.2080 -0.1557
  383ccc     C610347   4.663   5.459   6.318 -0.1407 -0.0608 -0.6528
  383ccc     H610348   5.188   5.626   6.134  0.1616 -1.7997 -1.2391
  383ccc     H710349   5.034   5.463   6.366 -0.3415 -1.1332 -1.1392
  383ccc     H810350   5.113   5.876   6.266 -1.3241 -0.6282  1.0934
  383ccc     H910351   4.702   5.446   6.419  0.3651  1.1844 -0.6617
  383ccc    H1010352   4.680   5.362   6.270  0.2840 -0.8627  1.0411
  383ccc     O510353   4.532   5.512   6.319 -0.1698  0.4671 -0.2953
  383ccc    H1110354   4.492   5.446   6.378 -3.4525  1.5558 -1.1043
  383ccc     O610355   4.757   5.693   6.317 -0.1388  0.3513  0.3297
  384ccc     C110356   4.033   7.020   4.768  0.0495 -0.0003 -0.4337
  384ccc     C210357   3.959   7.157   4.791  1.0599  0.1392 -0.1696
  384ccc     H110358   3.973   6.963   4.696 -1.7113  1.8988 -0.5591
  384ccc     H210359   3.928   7.194   4.693 -0.2339  1.0527  0.5543
  384ccc     C310360   3.829   7.136   4.881 -0.0683 -0.3368 -0.6895
  384ccc     C410361   3.840   7.028   4.992  0.4043 -0.2166 -0.1165
  384ccc     C510362   3.912   6.900   4.944 -0.4939 -0.2211 -0.2248
  384ccc     H310363   3.912   7.076   5.060 -0.5015  0.3814  0.4317
  384ccc     H410364   3.745   7.107   4.816  0.0527 -0.8972 -0.6022
  384ccc     H510365   3.859   6.842   4.868  2.0272 -0.8859 -1.5954
  384ccc     O110366   3.929   6.809   5.060  0.2123 -0.2865  0.4426
  384ccc     O210367   3.711   7.002   5.053  0.2484 -0.3658 -0.0256
  384ccc     O310368   3.793   7.268   4.937 -0.3416  0.1570  0.0962
  384ccc     O410369   4.049   7.239   4.857  0.7968 -0.3231  0.3529
  384ccc     C610370   4.170   7.022   4.699  0.0536  0.0971  0.3646
  384ccc     H610371   3.789   7.263   5.034  1.4800  1.8964  0.3121
  384ccc     H710372   3.987   7.311   4.881  1.7831  0.3598  0.9724
  384ccc     H810373   3.727   6.984   5.147  0.8115 -2.0471 -0.4101
  384ccc     H910374   4.157   7.020   4.590 -1.5317  0.5275  0.5273
  384ccc    H1010375   4.223   6.930   4.729 -1.4508 -0.9063  0.0575
  384ccc     O510376   4.243   7.140   4.734  0.4776 -0.0771 -0.3744
  384ccc    H1110377   4.169   7.170   4.789 -0.5635 -1.1809 -1.1014
  384ccc     O610378   4.039   6.940   4.892 -0.3430  0.4811 -0.5799
  385ccc     C110379   3.160   6.342   5.056  0.2046 -0.3191  0.1333
  385ccc     C210380   3.121   6.493   5.055  0.5883 -0.3382 -0.3871
  385ccc     H110381   3.136   6.304   5.156  1.0737 -1.3645 -0.0315
  385ccc     H210382   3.013   6.508   5.069  0.4705  0.3353 -1.7883
  385ccc     C310383   3.208   6.577   5.159  0.0448  0.1782  0.3790
  385ccc     C410384   3.363   6.563   5.132  0.0857 -0.1684 -0.9321
  385ccc     C510385   3.397   6.413   5.117 -0.7666 -0.5799  0.1434
  385ccc     H310386   3.404   6.616   5.046  1.3038  0.4135 -0.0168
  385ccc     H410387   3.201   6.529   5.257  1.4569  1.6100  1.2190
  385ccc     H510388   3.378   6.364   5.213 -1.5081  1.3900  1.0624
  385ccc     O110389   3.534   6.399   5.073  0.1879  0.4487 -0.3040
  385ccc     O210390   3.423   6.617   5.256  0.2262 -0.3435 -0.1462
  385ccc     O310391   3.168   6.711   5.168  0.0776  0.1631 -0.0349
  385ccc     O410392   3.149   6.545   4.924 -0.2103  0.0183  0.9105
  385ccc     C610393   3.073   6.267   4.950  0.4677  0.0657 -0.6666
  385ccc     H610394   3.239   6.750   5.222 -0.8433  1.1245  0.5318
  385ccc     H710395   3.173   6.636   4.949  0.6850  0.2046 -0.4881
  385ccc     H810396   3.518   6.627   5.238  0.0105  0.6959 -0.8027
  385ccc     H910397   3.104   6.299   4.850 -1.2364 -0.6838 -1.4773
  385ccc    H1010398   2.970   6.299   4.966  0.6755  0.8610 -0.8779
  385ccc     O510399   3.094   6.129   4.964  0.5116  0.1620  0.1498
  385ccc    H1110400   3.070   6.109   5.056  3.6300  0.4640  1.1513
  385ccc     O610401   3.311   6.343   5.022  0.1942  0.7937 -0.2980
  386ccc     C110402   5.828   7.601   4.717  0.2821  0.3534  0.2695
  386ccc     C210403   5.903   7.471   4.760 -0.0816  0.1470  0.1787
  386ccc     H110404   5.900   7.683   4.708 -0.0708  0.7047  0.6142
  386ccc     H210405   5.985   7.463   4.687 -0.8570  0.7355 -0.7739
  386ccc     C310406   5.973   7.493   4.898  0.3886 -0.3211 -0.2293
  386ccc     C410407   5.875   7.553   5.008  0.3483 -0.1669 -0.2825
  386ccc     C510408   5.790   7.671   4.948  0.2138 -0.6137 -0.5974
  386ccc     H310409   5.795   7.485   5.036  0.2644  0.0067 -0.0975
  386ccc     H410410   6.054   7.566   4.885 -1.1537  1.8686  1.6726
  386ccc     H510411   5.837   7.769   4.959 -2.3121  0.6014  0.1415
  386ccc     O110412   5.681   7.683   5.035 -0.7859  0.5026  0.1285
  386ccc     O210413   5.949   7.595   5.123  0.1955  0.0796  0.6452
  386ccc     O310414   6.031   7.369   4.959 -0.1356 -0.1949  0.4005
  386ccc     O410415   5.806   7.364   4.772  0.5080 -0.0968 -0.7638
  386ccc     C610416   5.753   7.578   4.584  0.8087  0.0840  0.4659
  386ccc     H610417   6.110   7.351   4.904  0.6446  2.1417  0.6721
  386ccc     H710418   5.741   7.386   4.703 -2.3806 -2.0676  1.0512
  386ccc     H810419   6.005   7.516   5.135  1.0274  0.7663  1.4674
  386ccc     H910420   5.828   7.543   4.512  0.9673 -0.1077  0.7204
  386ccc    H1010421   5.717   7.675   4.550 -1.5391 -1.1805 -0.9371
  386ccc     O510422   5.648   7.480   4.600 -0.1433 -0.1811 -0.4056
  386ccc    H1110423   5.595   7.516   4.527  0.1355  0.2597 -0.3920
  386ccc     O610424   5.735   7.646   4.816 -0.4374 -0.4215  0.4103
  387ccc     C110425   4.855   8.228   5.393 -0.3440 -0.4117 -0.6354
  387ccc     C210426   4.826   8.302   5.263  0.6464 -0.0563 -0.1186
  387ccc     H110427   4.912   8.285   5.468 -0.4324  1.4323 -1.9103
  387ccc     H210428   4.769   8.394   5.285  0.4331 -0.1719 -0.1867
  387ccc     C310429   4.961   8.345   5.197  0.8879  0.2951 -0.3291
  387ccc     C410430   5.052   8.214   5.173 -0.3378  0.2919  0.3170
  387ccc     C510431   5.060   8.114   5.295 -0.7424  0.4387 -0.7971
  387ccc     H310432   4.990   8.150   5.110 -0.5593 -1.4970  2.2460
  387ccc     H410433   4.999   8.411   5.276 -1.8932 -0.7205  2.0304
  387ccc     H510434   5.127   8.145   5.375 -1.4952  1.6127 -0.6015
  387ccc     O110435   5.091   7.979   5.240 -0.3267 -0.6079 -0.1280
  387ccc     O210436   5.182   8.237   5.104  0.1277 -0.3761 -0.0518
  387ccc     O310437   4.928   8.423   5.077 -0.3858 -0.1424  0.0056
  387ccc     O410438   4.738   8.217   5.179 -0.0487 -0.1939  0.1862
  387ccc     C610439   4.724   8.197   5.463  0.2726 -0.0322 -0.7424
  387ccc     H610440   5.002   8.412   5.015  2.5918  2.2574  2.7792
  387ccc     H710441   4.741   8.263   5.092  0.7958 -0.6285 -0.0283
  387ccc     H810442   5.221   8.312   5.152 -1.4071  0.8159 -0.5955
  387ccc     H910443   4.655   8.137   5.403 -1.4295  1.6109 -0.5399
  387ccc    H1010444   4.674   8.292   5.489 -3.3262 -1.6798 -1.0942
  387ccc     O510445   4.760   8.138   5.587 -0.1101 -0.1916 -0.6556
  387ccc    H1110446   4.721   8.049   5.579  0.7328 -1.0981  3.3715
  387ccc     O610447   4.927   8.101   5.355  0.0049  0.7716 -0.1833
  388ccc     C110448   4.582   7.801   3.621 -0.7583  0.1597  0.7923
  388ccc     C210449   4.437   7.814   3.594 -0.0590 -0.9397  0.3481
  388ccc     H110450   4.625   7.730   3.549 -0.0090  2.6020 -1.3099
  388ccc     H210451   4.427   7.843   3.489 -2.0777 -2.0434  0.1928
  388ccc     C310452   4.369   7.668   3.613 -0.4224 -0.1119  0.4167
  388ccc     C410453   4.390   7.615   3.761  0.1701  0.8327  0.5302
  388ccc     C510454   4.538   7.626   3.808 -0.1523 -0.2719  0.1037
  388ccc     H310455   4.320   7.673   3.823 -2.1327  0.1993 -1.3200
  388ccc     H410456   4.418   7.602   3.541 -0.9109 -1.7469  1.5333
  388ccc     H510457   4.603   7.544   3.776 -0.8212 -0.2567 -1.3522
  388ccc     O110458   4.531   7.607   3.947 -0.0781  0.3248  0.0614
  388ccc     O210459   4.346   7.475   3.768 -0.1427  0.2606  0.6763
  388ccc     O310460   4.226   7.677   3.576  0.1529  0.2504  0.2746
  388ccc     O410461   4.377   7.916   3.674 -0.4583 -0.8559  0.6295
  388ccc     C610462   4.654   7.935   3.610 -0.3523  0.8223 -0.1505
  388ccc     H610463   4.204   7.582   3.578 -0.5061  0.3136 -2.0662
  388ccc     H710464   4.280   7.909   3.667 -0.4063 -0.0299 -2.7268
  388ccc     H810465   4.335   7.461   3.864  1.5890  2.4672  1.2982
  388ccc     H910466   4.607   8.002   3.682 -0.2800 -1.0554  1.7331
  388ccc    H1010467   4.645   7.984   3.512  0.9684  0.4451 -0.4826
  388ccc     O510468   4.786   7.926   3.652 -0.1442 -0.6998  0.4400
  388ccc    H1110469   4.826   8.013   3.637  0.5248 -1.1192 -0.2577
  388ccc     O610470   4.592   7.760   3.765  0.2167  0.0749 -0.1615
  389ccc     C110471   3.827   7.542   4.537 -0.6111 -0.4136  0.1291
  389ccc     C210472   3.764   7.541   4.396  0.3908 -0.5654 -0.3743
  389ccc     H110473   3.847   7.647   4.562 -3.0489  0.4633 -1.2353
  389ccc     H210474   3.676   7.606   4.401  1.3941  0.7488  1.3933
  389ccc     C310475   3.854   7.606   4.288  0.1374 -0.1957  0.0933
  389ccc     C410476   3.987   7.521   4.286 -0.9223  0.3881 -0.1020
  389ccc     C510477   4.047   7.519   4.430 -1.2305  0.5233  0.4598
  389ccc     H310478   3.976   7.420   4.245  2.2870  0.3656 -1.2762
  389ccc     H410479   3.886   7.706   4.319 -0.3603  0.2172 -0.7170
  389ccc     H510480   4.087   7.614   4.466  1.6111 -0.9608  1.5285
  389ccc     O110481   4.159   7.431   4.430  0.6461  0.1870  0.4608
  389ccc     O210482   4.081   7.582   4.196 -0.3917  0.4540  0.5334
  389ccc     O310483   3.789   7.622   4.159 -0.1315  0.6237  0.8710
  389ccc     O410484   3.718   7.414   4.349 -0.1867  0.0174 -0.2778
  389ccc     C610485   3.736   7.475   4.645  0.1055 -0.3363 -0.3402
  389ccc     H610486   3.869   7.605   4.106  1.5133  0.6247  3.1708
  389ccc     H710487   3.628   7.423   4.314 -0.5275  1.0812  0.7847
  389ccc     H810488   4.139   7.627   4.260  0.1664 -0.2488  0.5366
  389ccc     H910489   3.794   7.398   4.697 -0.5314 -1.9870 -1.9498
  389ccc    H1010490   3.658   7.426   4.585 -0.5993 -0.1556  0.4218
  389ccc     O510491   3.683   7.571   4.730 -0.2453 -0.3286  0.0076
  389ccc    H1110492   3.617   7.518   4.779  0.4494 -1.7350 -0.5072
  389ccc     O610493   3.952   7.466   4.523  0.3804 -0.0592 -0.2230
  390ccc     C110494   6.086   4.018   5.088  0.5597 -0.5710  0.1056
  390ccc     C210495   5.999   3.885   5.095  0.2241  0.5913 -0.8087
  390ccc     H110496   6.063   4.089   5.169  2.5746 -0.0924  0.3040
  390ccc     H210497   6.008   3.842   5.196 -2.3916  1.2036 -0.2430
  390ccc     C310498   5.852   3.914   5.066  0.3686  0.0066 -0.5356
  390ccc     C410499   5.838   3.988   4.931 -0.0324  0.5675 -0.0289
  390ccc     C510500   5.926   4.114   4.930  0.0080 -0.7149 -0.1697
  390ccc     H310501   5.872   3.927   4.847  1.2491 -0.1124  0.9581
  390ccc     H410502   5.817   3.988   5.139  1.0940  2.1864 -2.3017
  390ccc     H510503   5.893   4.185   5.007 -2.5010  0.1453 -1.8989
  390ccc     O110504   5.935   4.186   4.800 -0.1894  0.0649  0.4757
  390ccc     O210505   5.699   4.016   4.925 -0.0305 -0.0593  0.3321
  390ccc     O310506   5.760   3.800   5.060  0.1111 -0.3285  0.9255
  390ccc     O410507   6.047   3.795   4.999  0.4723 -0.1990 -0.0757
  390ccc     C610508   6.240   4.001   5.087 -0.5261  0.1173  0.1615
  390ccc     H610509   5.682   3.849   5.030 -0.1493 -1.5262 -0.5026
  390ccc     H710510   5.995   3.714   4.988  0.3793  0.1608 -3.1484
  390ccc     H810511   5.680   3.980   4.836 -1.0152  0.5572  0.2769
  390ccc     H910512   6.291   3.969   4.995  0.1613 -0.3957  0.7171
  390ccc    H1010513   6.267   3.922   5.158  1.5377  0.2538 -0.4133
  390ccc     O510514   6.298   4.123   5.126 -0.5743  0.8186  0.0653
  390ccc    H1110515   6.224   4.178   5.095  0.3318  2.8198  1.1885
  390ccc     O610516   6.056   4.082   4.964 -0.2954  0.2398  0.2194
  391ccc     C110517   6.379   4.298   3.886  0.0262 -0.6114 -0.1820
  391ccc     C210518   6.413   4.409   3.775  0.1295  0.8948  0.4863
  391ccc     H110519   6.294   4.235   3.857  0.8381 -0.9753 -1.8777
  391ccc     H210520   6.407   4.365   3.675  0.7486 -1.6636  1.4979
  391ccc     C310521   6.300   4.517   3.780  0.3532 -0.2359 -0.0238
  391ccc     C410522   6.263   4.578   3.922 -0.7856  0.5119  1.0827
  391ccc     C510523   6.248   4.461   4.022  0.0015 -0.4390 -0.0996
  391ccc     H310524   6.359   4.626   3.945 -0.0493 -0.5913  0.3979
  391ccc     H410525   6.209   4.465   3.747 -0.7702  0.5635  1.6446
  391ccc     H510526   6.154   4.411   3.997 -1.8364  2.2476  0.8693
  391ccc     O110527   6.246   4.500   4.163  0.4973 -0.0501 -0.0786
  391ccc     O210528   6.145   4.661   3.915  0.1039 -0.4244 -0.0523
  391ccc     O310529   6.332   4.623   3.695  0.5046 -0.2787  0.4492
  391ccc     O410530   6.536   4.463   3.807  0.0245 -0.1211  0.6333
  391ccc     C610531   6.488   4.195   3.916 -0.5010  0.2276 -0.6470
  391ccc     H610532   6.324   4.598   3.602  3.3245  0.0291  0.0228
  391ccc     H710533   6.572   4.396   3.868 -1.0008  0.5338  1.9971
  391ccc     H810534   6.187   4.740   3.878 -2.0792  0.3170 -1.1614
  391ccc     H910535   6.491   4.119   3.837  0.4357  0.4422 -0.8314
  391ccc    H1010536   6.456   4.146   4.008  0.1139 -1.0421 -1.0771
  391ccc     O510537   6.613   4.260   3.947 -0.5473  0.4889  0.1778
  391ccc    H1110538   6.671   4.183   3.962 -3.2227 -1.5632  0.6538
  391ccc     O610539   6.358   4.362   4.015 -0.2626 -0.6656 -0.0979
  392ccc     C110540   5.652   5.399   6.483 -0.2160  0.1384 -0.2644
  392ccc     C210541   5.503   5.428   6.491  0.1737  0.0558 -0.2166
  392ccc     H110542   5.714   5.487   6.464  0.8555 -0.2455  1.2411
  392ccc     H210543   5.476   5.509   6.560  1.2473 -0.3959  0.7668
  392ccc     C310544   5.432   5.488   6.367 -0.0608  0.4475  0.0339
  392ccc     C410545   5.469   5.399   6.244 -0.5980  0.0591  0.2004
  392ccc     C510546   5.624   5.374   6.242 -0.1726 -1.5060  0.1448
  392ccc     H310547   5.428   5.298   6.244  0.3777 -0.3585 -0.7860
  392ccc     H410548   5.474   5.588   6.355  1.0048  0.5299  3.4711
  392ccc     H510549   5.676   5.469   6.223 -2.8702 -0.0143 -0.3936
  392ccc     O110550   5.657   5.291   6.130  0.1700  0.5508  0.3310
  392ccc     O210551   5.422   5.469   6.119 -0.6712 -0.3296 -0.4344
  392ccc     O310552   5.291   5.497   6.388  0.9759  0.0304 -0.0772
  392ccc     O410553   5.421   5.315   6.536 -0.1278  0.8073  0.6536
  392ccc     C610554   5.700   5.332   6.617  0.5743  0.4157  0.6432
  392ccc     H610555   5.262   5.522   6.299  3.8225  2.4963 -0.4420
  392ccc     H710556   5.332   5.344   6.513  0.0186 -0.6792 -2.2768
  392ccc     H810557   5.435   5.408   6.044  1.8679 -0.4067 -0.0130
  392ccc     H910558   5.657   5.232   6.630 -1.3029  1.3228  1.8633
  392ccc    H1010559   5.668   5.385   6.708 -2.6096 -0.1301 -0.0376
  392ccc     O510560   5.841   5.336   6.614 -0.5313  0.0659  0.0396
  392ccc    H1110561   5.867   5.282   6.538  0.6102 -0.3786  0.7036
  392ccc     O610562   5.663   5.317   6.370  0.3715 -0.4238 -0.0112
  393ccc     C110563   6.353   4.950   6.268 -0.2667 -0.3962  0.3174
  393ccc     C210564   6.371   4.900   6.410 -0.6801 -0.6149 -0.2500
  393ccc     H110565   6.329   5.056   6.278  0.3088 -0.1622 -0.6249
  393ccc     H210566   6.452   4.964   6.447 -0.4383 -0.8662 -0.3409
  393ccc     C310567   6.240   4.914   6.496  0.2307 -0.1107  0.0153
  393ccc     C410568   6.113   4.881   6.414 -0.8222  0.4006 -0.1298
  393ccc     C510569   6.118   4.909   6.262  0.0297  0.1453 -0.1122
  393ccc     H310570   6.098   4.773   6.424 -1.0234  0.4881  0.6006
  393ccc     H410571   6.232   5.020   6.523 -2.1028  0.2399 -1.6504
  393ccc     H510572   6.112   5.017   6.245  1.0926 -0.1566 -2.8501
  393ccc     O110573   6.021   4.826   6.203 -0.3641  0.6699 -0.3851
  393ccc     O210574   6.000   4.945   6.472  0.1787 -0.0794  0.5715
  393ccc     O310575   6.244   4.833   6.620  0.1403 -0.0184  0.2461
  393ccc     O410576   6.418   4.764   6.394  0.9748  0.4568  0.8922
  393ccc     C610577   6.472   4.971   6.179  0.2107  0.2544 -0.4269
  393ccc     H610578   6.203   4.886   6.690 -0.4229  1.5067 -1.1774
  393ccc     H710579   6.515   4.777   6.389  1.2675 -1.4549  0.5286
  393ccc     H810580   5.965   4.887   6.542  0.3059  1.5976  2.1074
  393ccc     H910581   6.497   4.871   6.140  0.6010  0.6198 -1.1529
  393ccc    H1010582   6.554   5.012   6.239  0.3010 -0.0914 -0.3082
  393ccc     O510583   6.431   5.057   6.076 -0.3224  0.2048  0.6376
  393ccc    H1110584   6.438   5.000   5.997  0.4809  1.1969 -0.0213
  393ccc     O610585   6.242   4.871   6.205  0.7401  0.3827  0.1639
  394ccc     C110586   6.697   6.024   3.875 -0.0829 -0.4744  0.4326
  394ccc     C210587   6.619   6.084   3.762 -0.1757 -0.8446  0.1063
  394ccc     H110588   6.689   6.094   3.959  1.1161  1.5711 -1.0580
  394ccc     H210589   6.515   6.094   3.794 -0.0810 -0.1172  0.2118
  394ccc     C310590   6.679   6.223   3.725  0.5203  0.3357  0.2830
  394ccc     C410591   6.830   6.227   3.705  0.3219  0.7198  0.1885
  394ccc     C510592   6.901   6.147   3.816 -0.5279 -0.6787  0.1612
  394ccc     H310593   6.854   6.166   3.617  1.4721 -1.4134  1.8688
  394ccc     H410594   6.654   6.287   3.811  0.7300 -0.0675  0.6465
  394ccc     H510595   6.910   6.203   3.910  0.3392  1.4553 -1.1178
  394ccc     O110596   7.048   6.124   3.782  0.0472 -0.1038  0.1794
  394ccc     O210597   6.881   6.362   3.697  0.7981 -0.2222 -0.5466
  394ccc     O310598   6.614   6.277   3.611  0.4436  0.6176  0.4055
  394ccc     O410599   6.619   6.003   3.648 -0.1860  0.1196 -0.2333
  394ccc     C610600   6.656   5.887   3.926  0.6644 -0.0167 -0.3247
  394ccc     H610601   6.645   6.370   3.607  0.8328  0.4663 -0.1649
  394ccc     H710602   6.616   6.062   3.571  0.5754 -0.8781 -1.0643
  394ccc     H810603   6.963   6.374   3.647  0.2582  1.5620 -1.0775
  394ccc     H910604   6.559   5.893   3.978  0.8391 -1.8020  0.2829
  394ccc    H1010605   6.730   5.851   3.998  0.2422 -2.2781 -0.9254
  394ccc     O510606   6.638   5.802   3.823  0.2295  0.3906  0.3927
  394ccc    H1110607   6.637   5.865   3.749 -0.1262 -0.3625 -0.2595
  394ccc     O610608   6.838   6.017   3.845  0.1410 -0.4365  0.0996
  395ccc     C110609   7.478   5.825   4.884 -0.0396  0.2377 -0.4115
  395ccc     C210610   7.507   5.959   4.952  0.4290 -0.4103  0.1400
  395ccc     H110611   7.574   5.772   4.880 -0.4312 -0.7360  1.6792
  395ccc     H210612   7.567   5.925   5.038 -1.0454 -0.8300  1.0420
  395ccc     C310613   7.586   6.063   4.869  0.6369  0.4114  0.3265
  395ccc     C410614   7.526   6.064   4.726 -0.1689  0.0636 -0.5166
  395ccc     C510615   7.516   5.919   4.658  0.6460  0.8435 -0.6276
  395ccc     H310616   7.424   6.106   4.727  0.9265  2.9292  1.1929
  395ccc     H410617   7.691   6.031   4.857  0.4226  0.1356 -0.8971
  395ccc     H510618   7.618   5.881   4.657  0.3882  0.1246 -0.2895
  395ccc     O110619   7.460   5.940   4.527  0.6915  0.6506  0.1779
  395ccc     O210620   7.618   6.161   4.663  0.2844 -0.0461 -0.1883
  395ccc     O310621   7.578   6.188   4.934 -0.2623 -0.2891  0.0981
  395ccc     O410622   7.392   6.024   4.989  0.1091  0.0258 -0.1774
  395ccc     C610623   7.381   5.741   4.958  0.3132  0.0999  0.2887
  395ccc     H610624   7.670   6.207   4.959 -0.6100 -0.0740  1.3115
  395ccc     H710625   7.418   6.116   4.975 -0.6621  0.1545 -0.8311
  395ccc     H810626   7.621   6.242   4.716  0.3149  0.1962 -0.5649
  395ccc     H910627   7.283   5.790   4.966 -1.4368 -2.9476 -0.4286
  395ccc    H1010628   7.410   5.716   5.061  0.0449 -1.9031 -0.0856
  395ccc     O510629   7.368   5.610   4.898  0.1799 -0.4731 -0.3749
  395ccc    H1110630   7.368   5.637   4.804  2.6623  0.6623 -0.1448
  395ccc     O610631   7.428   5.837   4.748  0.4855 -0.2260 -0.1393
  396ccc     C110632   6.751   6.806   4.144  0.4520 -0.1678  0.5776
  396ccc     C210633   6.611   6.877   4.165  0.1955 -0.8796  0.0738
  396ccc     H110634   6.749   6.740   4.057  0.9553  1.2383 -0.5465
  396ccc     H210635   6.596   6.927   4.069  2.2420  0.0637  0.1949
  396ccc     C310636   6.506   6.772   4.181  0.0839  0.5483  0.5383
  396ccc     C410637   6.535   6.658   4.283 -0.1401 -0.4298 -0.3822
  396ccc     C510638   6.682   6.620   4.281 -0.2118  0.2141 -0.1167
  396ccc     H310639   6.506   6.692   4.383  0.7594 -2.1030  0.4817
  396ccc     H410640   6.512   6.714   4.088  2.5191  0.5743  0.6309
  396ccc     H510641   6.697   6.560   4.191  0.3185 -2.0054  1.3926
  396ccc     O110642   6.719   6.540   4.399  0.2777 -0.1474 -0.2652
  396ccc     O210643   6.461   6.535   4.244 -0.0992 -0.0400 -0.1661
  396ccc     O310644   6.377   6.827   4.188 -0.3089  0.5783 -0.6616
  396ccc     O410645   6.616   6.968   4.270  0.0637  0.1732  0.6955
  396ccc     C610646   6.887   6.895   4.136 -0.1780  0.2777  0.1150
  396ccc     H610647   6.370   6.866   4.277 -0.3712  1.4774 -1.0475
  396ccc     H710648   6.713   6.966   4.270  0.3141  1.7848 -3.9979
  396ccc     H810649   6.396   6.516   4.314 -1.7600  0.4657 -1.5228
  396ccc     H910650   6.911   6.940   4.039  0.9778  0.6242  0.5444
  396ccc    H1010651   6.978   6.840   4.163  0.5313  0.9283 -0.8909
  396ccc     O510652   6.868   6.992   4.233 -0.0539  0.1330 -0.1381
  396ccc    H1110653   6.957   7.030   4.245  0.2572 -0.9371  1.1360
  396ccc     O610654   6.769   6.732   4.263 -0.4534 -0.4463 -0.0288
  397ccc     C110655   7.551   6.824   5.170 -0.7612 -0.6260 -0.3668
  397ccc     C210656   7.517   6.957   5.256  0.0422  0.3665 -0.0941
  397ccc     H110657   7.618   6.860   5.091 -0.1997  1.6526  1.0436
  397ccc     H210658   7.612   7.006   5.279 -1.1949  2.9045 -0.0716
  397ccc     C310659   7.432   7.051   5.165 -0.4261 -0.4750 -0.0433
  397ccc     C410660   7.314   6.978   5.095  1.3151 -0.8428 -0.3240
  397ccc     C510661   7.354   6.841   5.036  0.1494  0.0469  0.0671
  397ccc     H310662   7.242   6.962   5.176  2.4209  0.5475  0.9846
  397ccc     H410663   7.500   7.075   5.082  2.1982 -3.1765  1.1342
  397ccc     H510664   7.410   6.859   4.943 -0.9382  1.8436 -0.2917
  397ccc     O110665   7.239   6.758   5.010 -0.2502 -0.3334  0.1687
  397ccc     O210666   7.254   7.060   4.995 -1.0543  0.0654  0.3495
  397ccc     O310667   7.383   7.170   5.243  0.2156 -0.1941 -0.5406
  397ccc     O410668   7.443   6.916   5.370  0.2067 -0.2326  0.0265
  397ccc     C610669   7.640   6.731   5.256  0.1106  0.9843  0.2510
  397ccc     H610670   7.344   7.235   5.181  0.7744  0.8392  0.1772
  397ccc     H710671   7.411   7.002   5.400  1.8484 -0.2159  1.9293
  397ccc     H810672   7.160   7.071   5.016 -1.2526  0.7385 -0.8251
  397ccc     H910673   7.590   6.696   5.347  1.0612  1.0539  0.8185
  397ccc    H1010674   7.733   6.780   5.287 -0.1854  0.5661  1.8979
  397ccc     O510675   7.668   6.630   5.162  0.3053 -0.0782 -0.0151
  397ccc    H1110676   7.591   6.573   5.176 -1.0062  1.3417 -1.0520
  397ccc     O610677   7.436   6.758   5.124  0.4905 -0.0987  0.1849
  398ccc     C110678   4.332   3.186   4.543 -0.2945 -0.1631 -0.1962
  398ccc     C210679   4.202   3.265   4.519  0.2942  0.4779 -0.3222
  398ccc     H110680   4.308   3.087   4.584 -0.2191 -0.0076  0.2243
  398ccc     H210681   4.127   3.201   4.471  0.8359  0.7603 -1.5742
  398ccc     C310682   4.129   3.309   4.653 -0.5480 -0.2292 -0.5231
  398ccc     C410683   4.228   3.393   4.740 -0.0534 -0.3600 -0.5655
  398ccc     C510684   4.357   3.306   4.757  0.2755  0.4874  0.7917
  398ccc     H310685   4.243   3.486   4.685  0.5120  0.7903  1.4183
  398ccc     H410686   4.112   3.216   4.709 -1.5660  0.3036  0.0803
  398ccc     H510687   4.346   3.213   4.814  1.7108 -0.2630 -0.0994
  398ccc     O110688   4.452   3.390   4.826 -0.6058 -0.3545 -0.2578
  398ccc     O210689   4.170   3.439   4.869  0.3985  0.0165 -0.7591
  398ccc     O310690   4.004   3.380   4.621 -0.7280  0.1816  0.2952
  398ccc     O410691   4.240   3.381   4.439  0.8024 -0.4529 -0.2360
  398ccc     C610692   4.410   3.151   4.413 -0.1888 -0.1928 -0.7785
  398ccc     H610693   3.971   3.420   4.703 -4.1761 -1.3949 -0.1567
  398ccc     H710694   4.156   3.426   4.422 -0.4770 -1.8830  1.7355
  398ccc     H810695   4.171   3.536   4.865 -1.5975  0.1905  0.9937
  398ccc     H910696   4.337   3.104   4.346 -2.5606  0.1442  1.4155
  398ccc    H1010697   4.494   3.085   4.439 -0.7807 -0.1530  1.4086
  398ccc     O510698   4.465   3.272   4.361 -0.0177 -0.1165 -0.1157
  398ccc    H1110699   4.421   3.339   4.417  1.3100 -0.0382  0.8952
  398ccc     O610700   4.414   3.260   4.635 -0.3216 -0.4031 -0.2840
  399ccc     C110701   4.563   3.742   5.602 -0.9827  0.0453  0.5833
  399ccc     C210702   4.416   3.779   5.628  0.9680 -0.1708  0.2235
  399ccc     H110703   4.631   3.805   5.660 -2.4001 -0.4434  2.9237
  399ccc     H210704   4.399   3.789   5.736  0.6866  1.0559  0.0738
  399ccc     C310705   4.388   3.923   5.573 -0.2598  0.1187 -0.7222
  399ccc     C410706   4.427   3.942   5.431 -0.0291 -0.4623 -0.5616
  399ccc     C510707   4.580   3.889   5.413 -0.1543 -0.3257 -0.2405
  399ccc     H310708   4.366   3.877   5.368 -0.4284 -0.2351 -0.4109
  399ccc     H410709   4.443   3.993   5.637 -1.0011 -0.5008  0.6308
  399ccc     H510710   4.646   3.959   5.466 -2.6745  1.7345  0.4238
  399ccc     O110711   4.614   3.899   5.270  0.0059  0.0816 -0.1405
  399ccc     O210712   4.409   4.086   5.416  0.6991 -0.7903 -0.0881
  399ccc     O310713   4.245   3.940   5.602 -0.1885 -0.6843 -0.5631
  399ccc     O410714   4.332   3.686   5.558 -0.2015 -0.3883 -0.1757
  399ccc     C610715   4.592   3.600   5.658 -0.7985  0.4143 -1.0783
  399ccc     H610716   4.219   4.024   5.560  0.3977  1.3149  2.6915
  399ccc     H710717   4.244   3.719   5.581 -0.1461  1.1241 -1.8824
  399ccc     H810718   4.397   4.097   5.320  1.0775 -0.2807 -0.0823
  399ccc     H910719   4.524   3.528   5.613 -0.3771 -0.2486 -0.6717
  399ccc    H1010720   4.582   3.600   5.768  0.9053 -0.3971 -0.8817
  399ccc     O510721   4.717   3.559   5.610 -0.6812 -0.5756  0.2469
  399ccc    H1110722   4.686   3.518   5.528 -0.9110  0.3596 -0.1452
  399ccc     O610723   4.599   3.759   5.466 -0.0142  0.2469 -0.3553
  400ccc     C110724   3.585   3.640   3.426 -0.2432 -0.6344  0.9043
  400ccc     C210725   3.591   3.799   3.448  0.5945  0.1930  0.3829
  400ccc     H110726   3.571   3.593   3.524 -0.5224  0.8706  1.6077
  400ccc     H210727   3.501   3.820   3.507  0.9573  3.1232  0.0582
  400ccc     C310728   3.723   3.842   3.524  0.5117 -0.6423  0.1064
  400ccc     C410729   3.852   3.781   3.467 -0.8663 -0.7046  0.5835
  400ccc     C510730   3.841   3.634   3.419  0.5102  0.4049 -0.1824
  400ccc     H310731   3.884   3.839   3.380  1.2833 -1.2364  0.9632
  400ccc     H410732   3.719   3.786   3.618 -1.0555  0.1691  0.5428
  400ccc     H510733   3.855   3.560   3.499 -1.1035 -0.7939 -0.9485
  400ccc     O110734   3.948   3.604   3.330 -0.7328  0.2335 -0.2029
  400ccc     O210735   3.948   3.796   3.567 -0.3387 -0.2597 -0.6397
  400ccc     O310736   3.727   3.984   3.552 -0.5517  0.1380  0.1168
  400ccc     O410737   3.568   3.860   3.321  0.5543 -0.2064  0.1665
  400ccc     C610738   3.463   3.590   3.342 -0.3690  0.1444 -0.3868
  400ccc     H610739   3.713   3.997   3.648 -0.9547 -0.3822  0.1297
  400ccc     H710740   3.646   3.838   3.267  0.3930  0.9222 -0.5478
  400ccc     H810741   3.992   3.880   3.545  1.2090  0.0370  2.8800
  400ccc     H910742   3.485   3.592   3.234  0.5495 -1.1641 -0.2513
  400ccc    H1010743   3.372   3.637   3.381  0.8422 -0.0069  2.9256
  400ccc     O510744   3.453   3.451   3.393  0.1024  0.4843  0.0962
  400ccc    H1110745   3.359   3.425   3.390 -0.3512  1.9900  0.5206
  400ccc     O610746   3.713   3.604   3.355  0.1580  1.1766  0.2746
  401ccc     C110747   4.008   3.998   2.902  0.1294 -0.3386  0.4412
  401ccc     C210748   3.897   3.985   3.009 -0.7124 -1.2984 -0.2461
  401ccc     H110749   3.966   3.957   2.809  0.9590 -0.1315 -0.0307
  401ccc     H210750   3.811   4.051   2.992 -0.3458 -0.6263  0.4526
  401ccc     C310751   3.859   3.841   3.017  0.5180  0.2002  0.3697
  401ccc     C410752   3.973   3.741   3.053 -0.5880  0.2225  0.0213
  401ccc     C510753   4.087   3.776   2.954 -0.6968 -0.2226  0.3180
  401ccc     H310754   4.013   3.746   3.155  2.7994 -2.4453 -0.9849
  401ccc     H410755   3.816   3.811   2.921 -3.5914  0.0741  2.0230
  401ccc     H510756   4.072   3.728   2.857  2.1480 -3.0761  1.0979
  401ccc     O110757   4.205   3.705   2.988 -0.1109  0.1264 -1.1017
  401ccc     O210758   3.929   3.600   3.033 -0.1609 -0.2854  0.0689
  401ccc     O310759   3.739   3.831   3.108 -0.9122  0.4724  0.3372
  401ccc     O410760   3.972   4.019   3.129 -0.6881 -0.0768  0.3692
  401ccc     C610761   4.058   4.142   2.864 -0.2138  0.4145  0.6132
  401ccc     H610762   3.678   3.770   3.064 -0.4660  1.6473 -2.0590
  401ccc     H710763   3.906   4.030   3.200 -1.2943  1.5227 -0.3736
  401ccc     H810764   3.919   3.567   3.124  0.4119  2.2945  1.1621
  401ccc     H910765   3.984   4.194   2.802 -1.1997 -2.1594 -0.4625
  401ccc    H1010766   4.151   4.143   2.807 -0.4151  0.6081  0.2846
  401ccc     O510767   4.081   4.216   2.983 -0.4066 -0.1052  0.0287
  401ccc    H1110768   4.065   4.143   3.045 -0.4689 -0.2639 -0.1724
  401ccc     O610769   4.116   3.922   2.938 -0.4998  0.4957  0.0816
  402ccc     C110770   3.606   5.362   4.778 -0.0347 -0.7584  0.8377
  402ccc     C210771   3.620   5.304   4.634  0.2664  0.4145  0.2160
  402ccc     H110772   3.634   5.468   4.774 -0.9957 -0.5043  0.1966
  402ccc     H210773   3.570   5.370   4.562 -0.3049  0.7350  0.8876
  402ccc     C310774   3.764   5.301   4.584 -0.5868  0.1195 -0.0675
  402ccc     C410775   3.852   5.228   4.694 -0.1175  0.1794 -0.7004
  402ccc     C510776   3.828   5.281   4.841 -0.0058 -0.3942 -0.0358
  402ccc     H310777   3.822   5.122   4.696 -1.5519  0.5519 -1.0171
  402ccc     H410778   3.797   5.405   4.586 -2.6255  0.8194 -0.8831
  402ccc     H510779   3.885   5.374   4.854  0.1518 -0.6487  1.2365
  402ccc     O110780   3.886   5.183   4.937 -0.2205 -0.1015  0.4458
  402ccc     O210781   3.995   5.243   4.653 -0.0730 -0.5822  0.1967
  402ccc     O310782   3.778   5.239   4.454  0.2394  0.4473  0.0519
  402ccc     O410783   3.564   5.172   4.622  0.2238 -0.6933 -0.3320
  402ccc     C610784   3.464   5.358   4.837  1.2406 -0.3673  0.8047
  402ccc     H610785   3.865   5.267   4.419  1.8734 -1.4322  2.2568
  402ccc     H710786   3.620   5.130   4.555  1.3838 -0.2580  0.3304
  402ccc     H810787   3.998   5.197   4.567  2.5286  1.6498 -1.0784
  402ccc     H910788   3.440   5.255   4.864  0.7626 -0.7052 -0.7882
  402ccc    H1010789   3.396   5.394   4.759  0.2610 -1.3431  1.1894
  402ccc     O510790   3.439   5.434   4.953  0.8518 -0.1938 -0.0915
  402ccc    H1110791   3.471   5.379   5.026 -1.9337 -4.2640 -1.5654
  402ccc     O610792   3.691   5.290   4.869  0.1027 -0.4575 -0.2641
  403ccc     C110793   4.325   4.469   5.718 -0.1891  0.6615 -0.3743
  403ccc     C210794   4.315   4.334   5.651 -0.1053  0.3861  0.1007
  403ccc     H110795   4.263   4.447   5.806  1.8662 -1.0995  0.7354
  403ccc     H210796   4.314   4.257   5.730  3.1749 -2.4555 -2.2942
  403ccc     C310797   4.171   4.319   5.582 -0.2549 -0.2525  0.1800
  403ccc     C410798   4.145   4.434   5.480 -0.1869  0.7130 -0.0830
  403ccc     C510799   4.157   4.564   5.571  0.2562 -0.8083 -0.1985
  403ccc     H310800   4.228   4.422   5.409 -1.0602 -0.3803 -0.9529
  403ccc     H410801   4.101   4.339   5.663  0.4259  0.7646  0.5286
  403ccc     H510802   4.069   4.571   5.636 -2.6070 -0.0114 -3.7900
  403ccc     O110803   4.161   4.671   5.476 -0.6034 -0.2224 -0.0031
  403ccc     O210804   4.021   4.418   5.412 -0.0339  0.1734  0.3585
  403ccc     O310805   4.140   4.190   5.520  0.4238 -0.0668  0.0778
  403ccc     O410806   4.417   4.320   5.552 -0.1496  0.2967  0.0362
  403ccc     C610807   4.467   4.509   5.781 -0.0675  0.0905 -0.0192
  403ccc     H610808   4.057   4.213   5.475 -1.3794 -1.1599  2.5951
  403ccc     H710809   4.413   4.231   5.511  1.0797  0.0607  0.3975
  403ccc     H810810   4.031   4.459   5.325  0.9574  2.0415  1.3084
  403ccc     H910811   4.546   4.539   5.712  1.3988 -2.6430  0.3402
  403ccc    H1010812   4.512   4.423   5.833  1.1652 -0.1194 -1.3827
  403ccc     O510813   4.438   4.616   5.875  0.0958  0.8701  0.0977
  403ccc    H1110814   4.504   4.682   5.850 -0.2212  0.4959 -1.8417
  403ccc     O610815   4.278   4.577   5.636  0.2823  0.3557  0.3862
  404ccc     C110816   3.855   3.832   5.676 -0.2498 -0.2119  0.5512
  404ccc     C210817   3.698   3.818   5.682 -1.1978  0.8804  0.1605
  404ccc     H110818   3.876   3.873   5.776 -4.1332  0.5980  1.1966
  404ccc     H210819   3.678   3.764   5.776  1.2929  1.8531  1.3414
  404ccc     C310820   3.640   3.960   5.685 -0.7745 -0.0889 -0.0556
  404ccc     C410821   3.689   4.038   5.560 -0.3634 -0.2626 -0.4830
  404ccc     C510822   3.846   4.053   5.553 -0.1397 -0.0833 -0.5082
  404ccc     H310823   3.666   3.979   5.471 -0.5748 -0.4295 -0.3203
  404ccc     H410824   3.665   4.017   5.775 -1.2375  0.8055 -0.4830
  404ccc     H510825   3.866   4.111   5.644  0.9318 -1.1796 -0.0170
  404ccc     O110826   3.894   4.114   5.430 -0.9738 -0.6439 -0.0458
  404ccc     O210827   3.626   4.167   5.560 -0.4815 -0.2160 -0.6152
  404ccc     O310828   3.492   3.960   5.692 -0.2115 -0.1678 -0.5224
  404ccc     O410829   3.657   3.752   5.562  0.4462  0.1375  0.3667
  404ccc     C610830   3.926   3.692   5.672 -0.3502  0.4419 -0.3612
  404ccc     H610831   3.468   4.032   5.632 -1.2063 -0.5844 -0.6440
  404ccc     H710832   3.560   3.754   5.568  0.3676 -1.0420 -0.2740
  404ccc     H810833   3.693   4.232   5.532 -1.6344  1.7906  1.0100
  404ccc     H910834   3.913   3.641   5.576 -1.2793 -1.2997  0.6383
  404ccc    H1010835   3.882   3.628   5.750  1.4721  0.7874  1.0492
  404ccc     O510836   4.066   3.719   5.691  0.2231  0.0080 -0.2161
  404ccc    H1110837   4.061   3.816   5.697  0.9448 -0.0187  1.0123
  404ccc     O610838   3.902   3.919   5.569  0.3640 -0.1952 -0.1042
  405ccc     C110839   3.652   3.753   4.568  0.2394  0.2516 -0.1550
  405ccc     C210840   3.575   3.640   4.637 -0.3703  0.3134  0.4616
  405ccc     H110841   3.686   3.716   4.471 -0.6699  1.6430 -1.0417
  405ccc     H210842   3.506   3.600   4.562  0.6437  1.5608 -1.2223
  405ccc     C310843   3.673   3.534   4.686 -0.4915  0.1537  0.3565
  405ccc     C410844   3.774   3.589   4.780 -0.2736 -0.6775  0.2534
  405ccc     C510845   3.846   3.711   4.717  0.4495  0.2121 -0.6069
  405ccc     H310846   3.721   3.629   4.867  0.0112 -0.9103  0.5383
  405ccc     H410847   3.740   3.499   4.605  2.6853  3.0782  1.4741
  405ccc     H510848   3.913   3.665   4.644 -0.6277 -2.9571  0.1949
  405ccc     O110849   3.930   3.781   4.823 -0.0735 -0.0823 -0.6865
  405ccc     O210850   3.873   3.487   4.813 -0.1637 -0.0929 -0.7062
  405ccc     O310851   3.598   3.425   4.755 -0.3172 -0.5054  0.9652
  405ccc     O410852   3.511   3.691   4.756 -0.0090 -0.2187 -0.2208
  405ccc     C610853   3.557   3.863   4.533  1.0152 -0.1963 -0.6433
  405ccc     H610854   3.658   3.351   4.775 -0.0257 -0.6021 -0.1643
  405ccc     H710855   3.445   3.758   4.731 -1.0947 -1.3996 -0.5760
  405ccc     H810856   3.900   3.501   4.905  1.6359  0.8803 -1.3231
  405ccc     H910857   3.540   3.915   4.628 -0.8014 -2.3024  0.2879
  405ccc    H1010858   3.462   3.834   4.485 -0.3045  0.5547  1.3820
  405ccc     O510859   3.634   3.942   4.442 -0.3491  0.6001  0.2962
  405ccc    H1110860   3.723   3.910   4.464 -0.4889 -0.5848 -0.7318
  405ccc     O610861   3.753   3.803   4.653 -0.8284  0.1132 -0.5101
  406ccc     C110862   6.728   3.181   4.940 -0.1889  0.3527 -0.5086
  406ccc     C210863   6.692   3.093   4.823  0.1704  0.3658  0.6612
  406ccc     H110864   6.631   3.210   4.982 -0.2389 -2.1942  1.3340
  406ccc     H210865   6.627   3.012   4.859 -1.0604  1.8268  1.8927
  406ccc     C310866   6.616   3.175   4.710 -0.7974 -0.7605  0.1281
  406ccc     C410867   6.703   3.308   4.686  1.2130  0.1564  0.2761
  406ccc     C510868   6.735   3.391   4.817 -0.3248 -0.0317 -0.1525
  406ccc     H310869   6.803   3.282   4.648  1.8372  2.1874  0.3832
  406ccc     H410870   6.517   3.200   4.749 -0.1599  2.0345  0.1438
  406ccc     H510871   6.642   3.418   4.868  0.9640  1.6698  1.4731
  406ccc     O110872   6.820   3.503   4.795  0.3559 -0.3258 -0.3486
  406ccc     O210873   6.637   3.398   4.585 -0.4770  0.8246 -0.1212
  406ccc     O310874   6.605   3.091   4.593 -0.3374 -0.0788  0.4791
  406ccc     O410875   6.806   3.028   4.765  0.0259  0.4675 -0.0285
  406ccc     C610876   6.801   3.105   5.053  0.0968 -1.3088 -0.1334
  406ccc     H610877   6.688   3.092   4.543  0.0042  1.2940  1.0279
  406ccc     H710878   6.780   2.964   4.696  1.0598  1.9788 -1.9444
  406ccc     H810879   6.562   3.446   4.624 -1.0680 -0.3590  0.2418
  406ccc     H910880   6.739   3.030   5.103 -2.3888  0.5922 -0.1349
  406ccc    H1010881   6.835   3.170   5.135  0.7668 -0.9688 -0.6735
  406ccc     O510882   6.928   3.053   4.998  0.2166 -0.3247  0.1094
  406ccc    H1110883   6.899   3.041   4.906  1.6969 -2.5052 -0.1519
  406ccc     O610884   6.804   3.299   4.900 -0.1264 -0.1540 -0.4059
  407ccc     C110885   7.042   4.035   4.040 -0.2506  0.7587 -0.1946
  407ccc     C210886   7.051   3.888   3.999  0.2335  0.2516 -0.6816
  407ccc     H110887   7.134   4.089   4.016 -0.0635  0.3811 -0.3260
  407ccc     H210888   7.078   3.892   3.893 -1.3624  2.5723 -1.0683
  407ccc     C310889   7.162   3.817   4.090  0.3335 -0.0368 -0.0785
  407ccc     C410890   7.128   3.820   4.240 -0.1239  0.0100 -0.0663
  407ccc     C510891   7.095   3.971   4.281  0.2116 -0.3896 -0.4990
  407ccc     H310892   7.035   3.763   4.249 -0.7733  1.2998  2.2945
  407ccc     H410893   7.251   3.880   4.076  0.6390  0.1234  2.1615
  407ccc     H510894   7.189   4.025   4.298 -1.3742  2.2120  0.5350
  407ccc     O110895   7.032   3.968   4.418 -0.3480 -0.4202 -0.3975
  407ccc     O210896   7.239   3.761   4.315  0.0339 -0.0545 -0.1282
  407ccc     O310897   7.198   3.682   4.051 -0.6559 -0.6699  0.4828
  407ccc     O410898   6.929   3.834   4.028 -0.3620  0.3003  0.0388
  407ccc     C610899   6.926   4.105   3.962  0.1920 -0.2049 -0.1972
  407ccc     H610900   7.128   3.632   4.097 -0.1930 -1.8388 -0.0549
  407ccc     H710901   6.932   3.751   3.976 -0.6224 -0.9379  1.9089
  407ccc     H810902   7.204   3.674   4.338 -2.0143  0.8271  0.3616
  407ccc     H910903   6.942   4.083   3.856 -3.3643  1.5432 -1.2187
  407ccc    H1010904   6.931   4.214   3.973  0.1529 -0.1513 -0.6791
  407ccc     O510905   6.793   4.060   3.998 -0.1263  0.2917  0.4859
  407ccc    H1110906   6.816   3.987   4.058  0.8649 -0.9334 -1.3020
  407ccc     O610907   7.016   4.038   4.187  0.2945 -0.4928  0.1251
  408ccc     C110908   5.562   2.629   3.543  0.2805  0.4032  0.3686
  408ccc     C210909   5.425   2.585   3.487  0.0331 -0.1173 -0.7362
  408ccc     H110910   5.572   2.587   3.644  0.7498  0.7830  0.4866
  408ccc     H210911   5.400   2.480   3.502 -1.2228  0.0676 -1.3899
  408ccc     C310912   5.311   2.658   3.569  0.8221 -0.5530 -0.0867
  408ccc     C410913   5.329   2.808   3.571  0.3827 -0.0988  0.5364
  408ccc     C510914   5.470   2.845   3.618 -0.1173 -0.5915  0.7036
  408ccc     H310915   5.312   2.846   3.470 -1.7785  1.2375  1.3431
  408ccc     H410916   5.331   2.625   3.671  0.8407  0.4448  0.2409
  408ccc     H510917   5.485   2.805   3.719 -2.4446  1.3115  1.9064
  408ccc     O110918   5.483   2.994   3.611  0.0339 -0.6964 -0.4834
  408ccc     O210919   5.231   2.853   3.673 -0.7399  0.3737 -0.5909
  408ccc     O310920   5.189   2.617   3.514  0.3913 -0.0734  0.4633
  408ccc     O410921   5.421   2.622   3.349 -0.3278  0.5856  0.0566
  408ccc     C610922   5.684   2.566   3.464 -0.1662  0.0364 -0.4516
  408ccc     H610923   5.156   2.542   3.567  0.0256  0.1862  0.6075
  408ccc     H710924   5.337   2.596   3.309  0.1650 -2.6222  0.8071
  408ccc     H810925   5.228   2.948   3.653  1.7557  0.3893 -1.2290
  408ccc     H910926   5.669   2.460   3.440  1.3044  0.0142 -1.3960
  408ccc    H1010927   5.783   2.579   3.510 -0.2074  1.0501 -0.6271
  408ccc     O510928   5.693   2.627   3.336 -0.2796  0.2332 -0.0070
  408ccc    H1110929   5.596   2.634   3.329 -0.2903 -0.5734 -0.8057
  408ccc     O610930   5.569   2.775   3.534 -0.1134 -0.6945 -0.2127
  409ccc     C110931   5.393   3.300   3.313  0.0038  0.4104 -0.5165
  409ccc     C210932   5.376   3.293   3.160 -0.0249 -0.2698  0.5083
  409ccc     H110933   5.338   3.388   3.348  0.0748  0.7159 -1.1637
  409ccc     H210934   5.271   3.284   3.132  0.3430 -3.6967 -0.2325
  409ccc     C310935   5.455   3.405   3.088 -0.1495 -0.9720  0.3994
  409ccc     C410936   5.601   3.418   3.141 -0.2829  0.0595 -0.7934
  409ccc     C510937   5.610   3.419   3.299 -0.5944  0.1014  0.6781
  409ccc     H310938   5.666   3.337   3.106  0.2376  0.7003 -1.3386
  409ccc     H410939   5.401   3.494   3.124  0.8379 -0.4221  0.5690
  409ccc     H510940   5.581   3.515   3.342 -0.5443 -0.7011  2.6186
  409ccc     O110941   5.744   3.399   3.347 -0.3101 -0.1283 -0.1798
  409ccc     O210942   5.648   3.546   3.091  0.4611  0.1101  0.5909
  409ccc     O310943   5.463   3.398   2.947  0.7296 -0.3874  0.2327
  409ccc     O410944   5.436   3.166   3.127  0.5560 -0.5138 -0.0332
  409ccc     C610945   5.320   3.186   3.388 -0.2633  0.8125  0.5343
  409ccc     H610946   5.540   3.348   2.916 -0.3343 -0.6520 -2.1829
  409ccc     H710947   5.433   3.133   3.218  2.1286  0.3854  0.3686
  409ccc     H810948   5.621   3.555   2.999  0.2629 -1.6387  0.4349
  409ccc     H910949   5.217   3.168   3.357 -0.2116 -0.8640  1.2233
  409ccc    H1010950   5.324   3.219   3.493  0.8061  1.2664  0.3668
  409ccc     O510951   5.392   3.066   3.376 -0.2438  0.5939  0.3883
  409ccc    H1110952   5.431   3.060   3.465 -2.3310  0.3126  1.3334
  409ccc     O610953   5.533   3.310   3.352  0.9978  0.0844 -0.8890
  410ccc     C110954   5.203   4.859   5.777  0.5414 -0.2464  0.8635
  410ccc     C210955   5.170   4.857   5.931 -0.2235 -0.1170  0.1894
  410ccc     H110956   5.136   4.785   5.732 -0.2325  0.1860  1.2794
  410ccc     H210957   5.068   4.885   5.959  0.0940  0.7365  0.5530
  410ccc     C310958   5.192   4.716   5.987 -0.4874  0.1953 -0.5186
  410ccc     C410959   5.327   4.647   5.942  0.0770  0.3848  0.9207
  410ccc     C510960   5.352   4.667   5.790  0.3082  0.6184  1.2864
  410ccc     H310961   5.414   4.702   5.979  0.8359 -0.5822  0.6056
  410ccc     H410962   5.109   4.657   5.945 -0.7993 -0.0869  0.4542
  410ccc     H510963   5.277   4.616   5.728  3.5137 -0.1166 -2.4184
  410ccc     O110964   5.487   4.626   5.748  0.1991  0.0595  0.2133
  410ccc     O210965   5.332   4.510   5.979 -0.0441  0.5154 -0.6178
  410ccc     O310966   5.179   4.718   6.130  0.0544  0.3560 -0.1094
  410ccc     O410967   5.259   4.945   5.990 -0.2075 -0.2108 -0.3339
  410ccc     C610968   5.185   4.998   5.714  0.2198  0.7137  0.1499
  410ccc     H610969   5.256   4.765   6.166  0.6434 -0.8694  0.2837
  410ccc     H710970   5.278   5.006   5.917 -2.4463 -0.3739 -1.1146
  410ccc     H810971   5.239   4.484   5.995  0.7302 -1.8000  0.6957
  410ccc     H910972   5.078   5.022   5.709  0.6703  2.5438 -2.2735
  410ccc    H1010973   5.216   4.994   5.609 -1.2283 -2.3206 -0.2873
  410ccc     O510974   5.250   5.102   5.785  0.2908  0.5428 -0.5124
  410ccc    H1110975   5.211   5.187   5.755 -1.6806 -0.2226 -0.2762
  410ccc     O610976   5.339   4.813   5.760 -0.0283 -0.0943  0.3054
  411ccc     C110977   6.458   4.922   5.508 -0.5151  0.0150 -0.4562
  411ccc     C210978   6.485   4.865   5.653 -0.5224  0.1602  1.3022
  411ccc     H110979   6.471   5.031   5.513 -2.1093  0.2259 -0.6222
  411ccc     H210980   6.583   4.910   5.674 -0.2134 -0.1863  0.6425
  411ccc     C310981   6.380   4.924   5.745 -0.5619  0.2372 -0.8141
  411ccc     C410982   6.232   4.907   5.703  0.4569 -0.1849 -0.0927
  411ccc     C510983   6.212   4.945   5.555  0.2719  0.2480  0.5451
  411ccc     H310984   6.206   4.800   5.695  2.4012 -0.6816 -0.1683
  411ccc     H410985   6.408   5.030   5.747 -3.0530  0.9734 -0.7164
  411ccc     H510986   6.220   5.054   5.546 -0.7770  0.3621  0.8571
  411ccc     O110987   6.079   4.897   5.512  0.1752 -0.4344  0.7277
  411ccc     O210988   6.134   4.983   5.779 -0.2259  0.1417  0.5718
  411ccc     O310989   6.407   4.876   5.886 -0.3360  0.2463  0.5646
  411ccc     O410990   6.490   4.725   5.655  0.0249 -0.6548  0.2934
  411ccc     C610991   6.556   4.859   5.405 -0.0295  0.1430 -0.5748
  411ccc     H610992   6.359   4.792   5.893  2.2403 -1.2303  1.7505
  411ccc     H710993   6.514   4.696   5.745  0.9654 -0.3020  0.1698
  411ccc     H810994   6.043   4.952   5.773 -0.4824  0.6988  1.3852
  411ccc     H910995   6.522   4.756   5.390 -0.0909 -1.2460  6.0528
  411ccc    H1010996   6.657   4.864   5.448 -0.5581 -1.6042  0.9947
  411ccc     O510997   6.534   4.932   5.288 -0.1139 -0.6934  0.5536
  411ccc    H1110998   6.452   4.900   5.248  1.4280 -1.6168 -2.1682
  411ccc     O610999   6.321   4.885   5.472 -0.4544  0.2522  0.2551
  412ccc     C111000   5.114   3.053   4.659 -0.1401  0.5827 -0.2191
  412ccc     C211001   4.984   3.043   4.580 -0.0624  1.2541 -0.6166
  412ccc     H111002   5.141   2.954   4.699  1.7143  0.3195 -1.9744
  412ccc     H211003   4.989   2.963   4.506 -2.0229  1.5407 -1.1183
  412ccc     C311004   4.869   3.005   4.676  0.9142  0.3340 -0.4006
  412ccc     C411005   4.857   3.095   4.811 -0.6473 -0.3190 -0.0385
  412ccc     C511006   4.998   3.113   4.870 -0.8852  0.1109  0.6557
  412ccc     H311007   4.821   3.188   4.764 -0.2121 -0.1693 -0.0819
  412ccc     H411008   4.896   2.905   4.711 -1.3653 -0.2062 -0.0603
  412ccc     H511009   5.034   3.025   4.924  0.3724 -0.3116 -0.7990
  412ccc     O111010   4.986   3.217   4.963 -0.0154  0.0470  0.2622
  412ccc     O211011   4.766   3.029   4.902  0.1429 -0.0876 -0.0146
  412ccc     O311012   4.740   3.007   4.604 -0.4461 -0.2966  0.1015
  412ccc     O411013   4.957   3.165   4.516 -0.5719  0.0632 -0.4771
  412ccc     C611014   5.237   3.103   4.573  0.3012  0.3258 -0.6245
  412ccc     H611015   4.674   3.012   4.676  0.5075  0.9346  0.9370
  412ccc     H711016   4.872   3.155   4.470 -0.3727  0.9419 -1.0682
  412ccc     H811017   4.780   3.089   4.977  2.1317  1.5870 -1.6042
  412ccc     H911018   5.265   3.039   4.488  0.1636 -1.0209  0.3112
  412ccc    H1011019   5.326   3.113   4.637 -0.2090  1.9633 -0.1425
  412ccc     O511020   5.208   3.234   4.534  0.0957 -0.0723 -0.9981
  412ccc    H1111021   5.113   3.229   4.558  0.1581 -2.9635 -1.0596
  412ccc     O611022   5.096   3.149   4.770  0.3386  0.2160  0.4266
  413ccc     C111023   4.297   3.232   5.440  1.2013 -0.0574  0.0626
  413ccc     C211024   4.214   3.234   5.308  0.2643  0.2822 -0.1834
  413ccc     H111025   4.264   3.320   5.495  0.0448 -0.2455 -0.3010
  413ccc     H211026   4.111   3.246   5.346 -0.5324 -4.2975 -0.3166
  413ccc     C311027   4.260   3.347   5.210  0.1847 -0.6960  0.8861
  413ccc     C411028   4.414   3.348   5.183 -0.3820  0.3717 -0.1128
  413ccc     C511029   4.485   3.347   5.326 -0.3408 -1.0026  0.4740
  413ccc     H311030   4.442   3.254   5.134  0.3618  0.4684  0.1151
  413ccc     H411031   4.218   3.444   5.239  3.3335  1.1683 -0.3458
  413ccc     H511032   4.455   3.438   5.378  1.1025 -1.7901  2.8836
  413ccc     O111033   4.632   3.345   5.322  0.2844 -0.0333  0.2807
  413ccc     O211034   4.447   3.456   5.090  0.0089 -0.2912  0.3693
  413ccc     O311035   4.196   3.310   5.084 -0.2802 -0.4229  0.3357
  413ccc     O411036   4.225   3.116   5.240 -0.4336  0.2100 -0.3518
  413ccc     C611037   4.266   3.104   5.518 -0.3783  0.2293 -1.1097
  413ccc     H611038   4.194   3.389   5.027  0.4328 -1.1983 -0.8061
  413ccc     H711039   4.200   3.136   5.148  2.7774 -2.6832 -2.1193
  413ccc     H811040   4.446   3.421   4.999  1.0636  0.5680 -0.0043
  413ccc     H911041   4.312   3.013   5.476 -0.7316 -0.6321  0.3159
  413ccc    H1011042   4.158   3.087   5.522 -0.0139 -2.2513  0.6857
  413ccc     O511043   4.308   3.123   5.653 -0.2172  0.2763 -0.7327
  413ccc    H1111044   4.399   3.090   5.650 -0.8818 -1.7728 -0.1105
  413ccc     O611045   4.436   3.229   5.403 -0.4899 -0.0851  0.5832
  414ccc     C111046   3.600   6.943   1.299  0.0568 -0.1419  0.8508
  414ccc     C211047   3.559   6.883   1.162 -0.4237  0.2550  0.1457
  414ccc     H111048   3.581   7.051   1.285 -0.6010 -0.1628  1.5459
  414ccc     H211049   3.462   6.925   1.133 -0.7207  1.6293  2.7875
  414ccc     C311050   3.658   6.921   1.052 -0.7415 -0.4188 -0.3986
  414ccc     C411051   3.809   6.889   1.088  0.2891  0.0387 -0.1813
  414ccc     C511052   3.840   6.952   1.233  0.1640 -0.6864 -0.1870
  414ccc     H311053   3.832   6.783   1.100  1.8391  0.0063 -2.6442
  414ccc     H411054   3.655   7.030   1.040  0.2468 -0.5255 -1.9156
  414ccc     H511055   3.862   7.059   1.224  3.0931 -1.0618  1.3353
  414ccc     O111056   3.974   6.908   1.272  0.1257  0.5545 -0.2317
  414ccc     O211057   3.896   6.944   0.987 -0.5295 -0.0686  0.3581
  414ccc     O311058   3.616   6.863   0.929 -0.7096 -0.1921  0.3147
  414ccc     O411059   3.547   6.742   1.174  0.3911 -0.1568 -0.1378
  414ccc     C611060   3.513   6.903   1.419 -0.4094 -0.0659  0.2483
  414ccc     H611061   3.642   6.769   0.930 -2.9506 -0.9079 -0.8513
  414ccc     H711062   3.534   6.726   1.269 -0.6288  0.7951 -0.0951
  414ccc     H811063   3.868   6.901   0.904  0.2513  1.3918 -0.7050
  414ccc     H911064   3.411   6.936   1.394 -0.3559  0.2319  0.4154
  414ccc    H1011065   3.552   6.954   1.508 -0.2706  0.2115  0.0314
  414ccc     O511066   3.520   6.761   1.429 -0.2138  0.2340  0.0519
  414ccc    H1111067   3.466   6.738   1.507  0.0565 -2.2022 -0.3921
  414ccc     O611068   3.740   6.920   1.334 -0.0061  0.0003 -0.4285
  415ccc     C111069   4.356   7.898   1.317  0.0755  0.3528 -0.0857
  415ccc     C211070   4.310   7.949   1.183 -0.2030  0.5257  0.0569
  415ccc     H111071   4.466   7.904   1.318  0.2221 -1.6602  0.1021
  415ccc     H211072   4.359   8.042   1.150  1.6906 -0.1686  0.8174
  415ccc     C311073   4.323   7.847   1.068  0.1925 -0.5650 -0.9484
  415ccc     C411074   4.289   7.702   1.105 -0.2274 -0.1549 -0.6104
  415ccc     C511075   4.359   7.661   1.241 -0.5617  0.4819  0.2220
  415ccc     H311076   4.181   7.696   1.122 -0.4428 -0.5275 -1.9899
  415ccc     H411077   4.428   7.849   1.036  0.3612 -0.3972 -0.3851
  415ccc     H511078   4.468   7.666   1.238 -0.6121  1.8763 -0.2048
  415ccc     O111079   4.312   7.531   1.277 -0.4214  0.6623  0.4619
  415ccc     O211080   4.325   7.618   0.994 -0.7006 -0.2827  0.3595
  415ccc     O311081   4.253   7.897   0.949 -0.3745  0.0486  0.7365
  415ccc     O411082   4.172   7.981   1.185  0.1327 -0.5611 -0.0363
  415ccc     C611083   4.312   7.994   1.429 -0.0392  0.9495 -0.1209
  415ccc     H611084   4.284   7.987   0.929 -1.8549  1.2104  3.2947
  415ccc     H711085   4.139   7.990   1.094 -0.4475  0.2733  0.2456
  415ccc     H811086   4.283   7.652   0.914 -1.9123  0.4663  1.2838
  415ccc     H911087   4.207   7.966   1.444 -0.2999  1.7233 -0.4406
  415ccc    H1011088   4.308   8.100   1.401 -1.7316  0.6023 -1.3701
  415ccc     O511089   4.389   7.962   1.542 -0.2079 -0.4494  0.0563
  415ccc    H1111090   4.362   7.868   1.547  1.0945 -0.9192 -1.1103
  415ccc     O611091   4.301   7.759   1.338  0.0159  0.0361  0.4396
  416ccc     C111092   5.469   5.734   1.281 -0.1465 -0.2004  0.4045
  416ccc     C211093   5.494   5.729   1.434  1.0238 -0.2800  0.0526
  416ccc     H111094   5.483   5.839   1.252 -1.7343 -0.3291 -0.9740
  416ccc     H211095   5.585   5.789   1.440 -0.1973  1.7727 -0.8421
  416ccc     C311096   5.379   5.814   1.508 -0.8826 -0.3076 -1.1164
  416ccc     C411097   5.242   5.759   1.463  0.4684 -0.0014 -0.3527
  416ccc     C511098   5.230   5.774   1.312 -0.1410 -0.6412  0.0819
  416ccc     H311099   5.234   5.652   1.486  1.8766 -0.3757 -1.4644
  416ccc     H411100   5.400   5.914   1.469 -0.0548 -1.0853 -2.7927
  416ccc     H511101   5.231   5.882   1.291  1.5322 -0.0359  2.7325
  416ccc     O111102   5.106   5.713   1.267 -0.4789 -0.5897 -0.2921
  416ccc     O211103   5.138   5.838   1.537  0.1670  0.4351  0.2913
  416ccc     O311104   5.386   5.817   1.652  0.0478 -0.0484 -0.3980
  416ccc     O411105   5.498   5.595   1.480  0.0280  0.2014  0.1897
  416ccc     C611106   5.574   5.646   1.212  0.0106  0.0959 -0.2759
  416ccc     H611107   5.299   5.843   1.688  0.5875 -2.1296  2.8817
  416ccc     H711108   5.590   5.589   1.509  0.6773 -0.0181 -1.7561
  416ccc     H811109   5.064   5.776   1.551  0.4865  0.2931  1.4607
  416ccc     H911110   5.551   5.541   1.229 -1.2607  0.6842  2.0488
  416ccc    H1011111   5.676   5.654   1.254 -0.1987  2.0820 -0.0229
  416ccc     O511112   5.576   5.702   1.079 -0.1511  0.7216  0.1665
  416ccc    H1111113   5.481   5.702   1.055 -0.0875 -1.2095 -0.2532
  416ccc     O611114   5.337   5.700   1.245 -0.2181 -0.0526 -0.1993
  417ccc     C111115   4.274   5.214   1.398 -0.0091 -0.6265  0.7169
  417ccc     C211116   4.117   5.209   1.383 -0.1277 -0.0192 -0.5469
  417ccc     H111117   4.313   5.234   1.498 -1.8147  0.3670  1.2648
  417ccc     H211118   4.075   5.126   1.442  0.7810  0.9060  1.4992
  417ccc     C311119   4.048   5.343   1.434 -0.3247 -0.4682  0.4043
  417ccc     C411120   4.115   5.461   1.362 -0.0290  0.0868  0.7773
  417ccc     C511121   4.270   5.453   1.347 -0.3342  0.3911 -0.0513
  417ccc     H311122   4.087   5.451   1.257  1.1881 -0.6178  0.5158
  417ccc     H411123   4.059   5.362   1.542 -3.0960  0.4576  0.5905
  417ccc     H511124   4.309   5.478   1.446 -0.5577 -0.3752  0.2320
  417ccc     O111125   4.311   5.549   1.249 -0.4410  0.2463 -0.0724
  417ccc     O211126   4.060   5.580   1.421  0.3571 -0.4180 -0.0417
  417ccc     O311127   3.907   5.335   1.411  0.2078 -0.3743  0.8935
  417ccc     O411128   4.090   5.193   1.240  0.0502 -0.4944 -0.4346
  417ccc     C611129   4.348   5.086   1.350 -0.7094 -0.0815 -0.5108
  417ccc     H611130   3.890   5.281   1.332 -1.5568  1.9979 -0.4790
  417ccc     H711131   4.173   5.145   1.224  1.7623  1.9840  0.3670
  417ccc     H811132   4.071   5.650   1.354  0.9205  0.3284  0.7827
  417ccc     H911133   4.307   5.000   1.404  2.0447 -1.8955 -1.0933
  417ccc    H1011134   4.456   5.088   1.368 -0.6383  0.9495 -0.9568
  417ccc     O511135   4.321   5.074   1.213  0.4352  0.4957  0.5993
  417ccc    H1111136   4.390   5.012   1.184  0.3514  0.2368  0.9438
  417ccc     O611137   4.318   5.324   1.316  0.1110  0.2520 -0.3682
  418ccc     C111138   6.668   6.907   1.789  0.2361 -0.3207 -0.8144
  418ccc     C211139   6.629   6.767   1.836  0.2757  0.2117 -0.8537
  418ccc     H111140   6.757   6.891   1.726  2.2696 -3.2556  2.3807
  418ccc     H211141   6.618   6.699   1.751  1.9317  1.2290 -1.9380
  418ccc     C311142   6.738   6.705   1.915 -0.4524  0.1782  0.3063
  418ccc     C411143   6.768   6.794   2.042 -0.0917  0.3431 -0.1768
  418ccc     C511144   6.805   6.941   1.996  0.0981 -0.3103 -0.3409
  418ccc     H311145   6.673   6.797   2.096  0.2143 -3.8143  0.9608
  418ccc     H411146   6.828   6.694   1.853 -0.3180 -1.8409  0.7699
  418ccc     H511147   6.907   6.951   1.956  0.6788  0.8913  1.3216
  418ccc     O111148   6.809   7.019   2.118  0.0253  0.0430  0.0777
  418ccc     O211149   6.867   6.744   2.127  0.1750 -0.3765 -0.3627
  418ccc     O311150   6.707   6.568   1.946 -0.4922 -0.1583  0.2588
  418ccc     O411151   6.506   6.766   1.911 -0.3005  0.4596  0.2150
  418ccc     C611152   6.560   6.984   1.705 -0.2773 -0.0389 -0.4995
  418ccc     H611153   6.619   6.584   1.986  0.0570  0.6285  1.2073
  418ccc     H711154   6.460   6.837   1.863 -0.1627  1.0632  0.9542
  418ccc     H811155   6.949   6.756   2.076  1.8450 -0.4163  2.1329
  418ccc     H911156   6.547   6.925   1.613 -0.2474 -0.4430 -0.2502
  418ccc    H1011157   6.584   7.084   1.667 -1.5827  0.7193  0.5780
  418ccc     O511158   6.440   6.996   1.778 -0.0559  0.0644 -0.3391
  418ccc    H1111159   6.467   7.061   1.845  0.0931 -1.2410  0.9353
  418ccc     O611160   6.701   6.997   1.903  0.1134  0.1057 -0.8656
  419ccc     C111161   6.363   7.992   2.335  0.3236  0.3422 -0.6538
  419ccc     C211162   6.436   8.057   2.455  0.7847  0.1396 -0.2501
  419ccc     H111163   6.257   7.991   2.364  0.8390 -1.7695  1.5242
  419ccc     H211164   6.396   8.159   2.467 -0.9831 -0.7019  1.5476
  419ccc     C311165   6.413   7.993   2.594  0.4440  0.1394  0.2202
  419ccc     C411166   6.444   7.842   2.581 -0.4160  0.1881 -0.9446
  419ccc     C511167   6.370   7.780   2.461 -0.3925 -0.0646 -0.0382
  419ccc     H311168   6.551   7.834   2.560 -0.4197  0.1713 -0.9578
  419ccc     H411169   6.305   8.002   2.611  0.0891  0.9502 -2.1073
  419ccc     H511170   6.263   7.799   2.478 -0.4006  0.0240 -0.1948
  419ccc     O111171   6.401   7.641   2.453  0.2427  0.0247 -0.0007
  419ccc     O211172   6.422   7.772   2.710 -0.2556 -0.2267 -0.1064
  419ccc     O311173   6.484   8.067   2.697 -0.3820  0.5749 -0.6394
  419ccc     O411174   6.567   8.078   2.419 -0.3163 -0.3205  0.0701
  419ccc     C611175   6.381   8.056   2.195  0.4065 -0.5034 -0.3889
  419ccc     H611176   6.572   8.077   2.655 -0.1355 -0.7945 -0.4765
  419ccc     H711177   6.565   8.088   2.322 -0.4155 -2.4454 -0.2067
  419ccc     H811178   6.328   7.749   2.717 -0.6509  0.9711 -1.1791
  419ccc     H911179   6.304   8.133   2.188  0.0857 -0.7951 -0.1130
  419ccc    H1011180   6.370   7.979   2.117 -2.4143 -0.1551 -0.4151
  419ccc     O511181   6.508   8.117   2.172  0.0173  0.2325  0.0457
  419ccc    H1111182   6.512   8.143   2.078 -0.4955  0.9889  0.2287
  419ccc     O611183   6.404   7.854   2.341  0.1288 -0.4270  0.5284
  420ccc     C111184   6.395   5.999   2.695 -0.4460  0.8545  0.2942
  420ccc     C211185   6.430   5.857   2.753  0.1943  0.6144  0.1522
  420ccc     H111186   6.351   6.059   2.776 -0.7729 -0.7972  1.3907
  420ccc     H211187   6.471   5.876   2.853  0.6532  0.8098 -0.0700
  420ccc     C311188   6.302   5.773   2.778 -0.0572  0.6895  0.1461
  420ccc     C411189   6.222   5.763   2.652 -0.1366 -0.4958  0.2226
  420ccc     C511190   6.177   5.908   2.620 -0.3859  0.2726 -0.3468
  420ccc     H311191   6.284   5.733   2.566 -0.0366  0.1921  0.0498
  420ccc     H411192   6.238   5.811   2.858  0.4006  2.1913 -0.1743
  420ccc     H511193   6.128   5.945   2.710  1.0998  2.3137 -0.3211
  420ccc     O111194   6.082   5.917   2.518  0.2309  0.0642  0.8984
  420ccc     O211195   6.114   5.673   2.672  0.2858  0.0337  0.4189
  420ccc     O311196   6.356   5.641   2.816 -0.2118 -0.4485 -0.5987
  420ccc     O411197   6.522   5.778   2.669 -0.1427  0.3213  0.1180
  420ccc     C611198   6.517   6.075   2.647  0.5233 -0.0284  0.1766
  420ccc     H611199   6.378   5.588   2.738 -2.4570 -1.1141 -0.8432
  420ccc     H711200   6.522   5.705   2.734 -1.0301 -1.3569 -1.6686
  420ccc     H811201   6.145   5.600   2.616  1.4854  0.9382 -0.1199
  420ccc     H911202   6.595   6.094   2.722 -0.9524 -0.4789  1.9023
  420ccc    H1011203   6.483   6.175   2.617  0.7512  0.2466  0.8211
  420ccc     O511204   6.573   6.011   2.536 -0.6919  0.8787 -0.2121
  420ccc    H1111205   6.573   5.917   2.559 -0.1535  0.9042 -0.1134
  420ccc     O611206   6.299   5.988   2.587 -0.3190  0.2057 -0.4871
  421ccc     C111207   5.966   5.167   2.332  0.4107  0.4904 -0.1396
  421ccc     C211208   6.003   5.038   2.250 -0.0414  0.2488 -0.5447
  421ccc     H111209   5.859   5.175   2.354  0.9113  1.4095  2.2012
  421ccc     H211210   5.961   4.953   2.305 -1.4738  2.4362  1.9738
  421ccc     C311211   5.939   5.036   2.108  0.0088 -0.3689  0.6337
  421ccc     C411212   5.962   5.171   2.042  0.3430  0.4399  0.6025
  421ccc     C511213   5.914   5.289   2.136 -0.3079 -0.0462 -0.9915
  421ccc     H311214   6.069   5.178   2.019  0.0491 -1.9071 -2.1380
  421ccc     H411215   5.831   5.028   2.127 -0.1478 -0.5444 -0.3034
  421ccc     H511216   5.808   5.275   2.160 -0.7178  0.0919 -2.6233
  421ccc     O111217   5.937   5.416   2.073 -0.2150 -0.1291 -0.1073
  421ccc     O211218   5.891   5.171   1.916  0.5689 -0.3178 -0.3681
  421ccc     O311219   5.991   4.932   2.017  0.3170  0.1711 -0.3120
  421ccc     O411220   6.140   5.028   2.241  0.1852 -0.3004  0.6277
  421ccc     C611221   6.022   5.179   2.473 -0.1095  0.1994 -0.2210
  421ccc     H611222   5.920   4.868   2.032 -0.0895  1.1172  2.5705
  421ccc     H711223   6.158   5.104   2.300  0.3314  0.1567  0.0027
  421ccc     H811224   5.934   5.103   1.861 -0.8282 -0.8500 -0.8283
  421ccc     H911225   6.006   5.088   2.531  0.5016  0.3726  0.2393
  421ccc    H1011226   5.978   5.260   2.533  1.3561  0.3132  0.7414
  421ccc     O511227   6.163   5.205   2.455  0.6987 -0.2141  0.0935
  421ccc    H1111228   6.198   5.206   2.546 -1.3119 -1.8950  0.9616
  421ccc     O611229   6.001   5.280   2.249 -0.5875 -0.2780 -0.3313
  422ccc     C111230   3.174   6.962   3.371 -0.6660 -0.5742 -0.3866
  422ccc     C211231   3.121   7.072   3.458  0.0735 -0.5297 -0.1775
  422ccc     H111232   3.265   6.927   3.422  0.1464  0.3752 -1.1524
  422ccc     H211233   3.102   7.035   3.560  1.5281  1.3739  0.8614
  422ccc     C311234   3.212   7.196   3.467 -0.4783 -0.3964 -0.1474
  422ccc     C411235   3.248   7.240   3.328  0.1674 -0.5564  0.0759
  422ccc     C511236   3.300   7.125   3.235 -0.0609 -0.3569  0.0267
  422ccc     H311237   3.158   7.279   3.277  1.4056  2.7006  0.0934
  422ccc     H411238   3.304   7.171   3.522  0.9358  1.2134 -1.6738
  422ccc     H511239   3.403   7.098   3.263 -0.2711 -1.5581 -0.2898
  422ccc     O111240   3.290   7.170   3.101  0.3258 -0.4373  0.2116
  422ccc     O211241   3.349   7.348   3.336 -0.0281 -0.6467  0.1407
  422ccc     O311242   3.134   7.297   3.534  0.3845  0.0779 -0.3928
  422ccc     O411243   2.995   7.114   3.410 -0.3653  0.2184  0.0953
  422ccc     C611244   3.097   6.840   3.347  0.7171 -0.3547  0.3483
  422ccc     H611245   3.181   7.376   3.502  3.5186 -1.0105  1.2041
  422ccc     H711246   2.989   7.204   3.447 -0.5152  0.3054 -0.1370
  422ccc     H811247   3.351   7.391   3.248  0.3497  3.3945  1.8785
  422ccc     H911248   3.038   6.860   3.257 -1.3995  1.2381  1.9731
  422ccc    H1011249   3.025   6.831   3.430 -0.2800 -0.4571 -0.5079
  422ccc     O511250   3.183   6.725   3.335 -0.1503  0.5565  0.1619
  422ccc    H1111251   3.202   6.709   3.429 -2.7301  1.3460  0.9174
  422ccc     O611252   3.215   7.008   3.243  0.6591 -0.4877 -0.0347
  423ccc     C111253   3.110   7.857   2.385 -0.9440 -0.1181 -0.9450
  423ccc     C211254   2.980   7.802   2.331  0.1762 -0.0239  0.0045
  423ccc     H111255   3.184   7.846   2.305  0.3410 -1.1220  0.3194
  423ccc     H211256   2.955   7.868   2.248  2.0873 -0.0912 -0.6827
  423ccc     C311257   2.992   7.659   2.284  0.3708  0.6884 -0.1857
  423ccc     C411258   3.047   7.568   2.397 -0.5146  0.1343  0.0578
  423ccc     C511259   3.180   7.635   2.448 -0.3358 -0.3482  0.2137
  423ccc     H311260   2.977   7.559   2.481  0.7638 -0.7529  1.0674
  423ccc     H411261   3.059   7.649   2.198  0.5345 -1.4927  0.1426
  423ccc     H511262   3.253   7.627   2.366  1.5783 -1.0913  1.9236
  423ccc     O111263   3.231   7.566   2.564 -0.2827 -0.4193 -0.4668
  423ccc     O211264   3.091   7.442   2.328 -0.1762 -0.3053 -0.4109
  423ccc     O311265   2.861   7.628   2.239  0.2954 -0.2490  0.1373
  423ccc     O411266   2.886   7.823   2.437 -0.3303  0.3853 -0.3340
  423ccc     C611267   3.121   8.004   2.436  0.2485  0.2138  0.4469
  423ccc     H611268   2.875   7.582   2.155 -1.6646  1.4324 -1.2234
  423ccc     H711269   2.939   7.886   2.489 -2.2270  1.2477  0.6748
  423ccc     H811270   3.013   7.408   2.280 -0.0288  0.7052 -1.4018
  423ccc     H911271   3.114   8.076   2.353 -0.9270  0.7696  1.0147
  423ccc    H1011272   3.219   8.024   2.482  0.3110  3.4706 -0.8142
  423ccc     O511273   3.013   8.033   2.530 -0.0418 -0.2570  0.2249
  423ccc    H1111274   3.028   8.130   2.534 -3.7182  0.4207  1.4264
  423ccc     O611275   3.160   7.770   2.491  0.6400 -0.4039  0.5148
  424ccc     C111276   4.218   7.988   2.253 -0.0989  0.0528 -0.2237
  424ccc     C211277   4.180   8.126   2.304  0.9082 -0.0117 -0.1772
  424ccc     H111278   4.175   7.982   2.152  0.3573  1.6156 -0.5273
  424ccc     H211279   4.212   8.205   2.234  0.5631 -0.7827 -1.2253
  424ccc     C311280   4.026   8.139   2.325  0.2870 -0.5042  0.1408
  424ccc     C411281   3.973   8.021   2.410 -0.2580 -0.3728 -0.1597
  424ccc     C511282   4.021   7.881   2.369 -0.5797 -0.0662  0.0915
  424ccc     H311283   3.998   8.038   2.515  2.5786 -0.3507 -0.7711
  424ccc     H411284   3.971   8.137   2.230  0.2386 -1.6991  0.1714
  424ccc     H511285   3.955   7.843   2.289 -0.9946 -0.3776  0.5768
  424ccc     O111286   4.002   7.798   2.485 -0.2499 -0.5967  0.4204
  424ccc     O211287   3.828   8.028   2.387  0.8457 -0.1211  0.0474
  424ccc     O311288   4.001   8.270   2.392  0.0037  0.0236 -0.1708
  424ccc     O411289   4.242   8.144   2.432 -0.1319 -0.3261 -0.8131
  424ccc     C611290   4.363   7.966   2.220  0.2406 -0.1714 -0.0923
  424ccc     H611291   3.906   8.277   2.411 -0.0274 -1.5096  0.3121
  424ccc     H711292   4.330   8.109   2.409  0.4807 -0.0873  1.0566
  424ccc     H811293   3.792   7.981   2.464  1.7471 -1.2951 -0.2063
  424ccc     H911294   4.371   8.027   2.128  1.4604 -0.0035  0.1019
  424ccc    H1011295   4.391   7.863   2.195 -0.0929 -0.1037 -0.7662
  424ccc     O511296   4.445   8.019   2.323 -0.2356  0.6783  0.2855
  424ccc    H1111297   4.532   8.021   2.281  0.2422 -0.7497  1.1417
  424ccc     O611298   4.168   7.889   2.342  0.8910 -0.7710 -0.0210
  425ccc     C111299   3.313   7.862   1.718  0.0365  0.2157 -0.0848
  425ccc     C211300   3.187   7.731   1.631 -0.0102  0.2838 -0.1045
  425ccc     H111301   3.387   7.873   1.638 -2.3143  0.8513 -2.3036
  425ccc     H211302   3.235   7.694   1.539 -0.3890 -2.1039  0.6047
  425ccc     C311303   3.138   7.557   1.727  0.1361  0.7739 -0.2887
  425ccc     C411304   3.221   7.515   1.909 -0.4784  0.5350 -0.5889
  425ccc     C511305   3.357   7.653   1.985  0.0385 -0.2807 -0.7275
  425ccc     H311306   3.139   7.524   1.981 -1.9772  2.4431 -2.4146
  425ccc     H411307   3.158   7.476   1.656  0.0100  0.4861  0.0036
  425ccc     H511308   3.449   7.593   1.989 -0.0967 -0.4306  0.7131
  425ccc     O111309   3.340   7.669   2.134 -0.0109 -0.3295 -0.6730
  425ccc     O211310   3.262   7.381   1.937 -0.0282  0.0855 -0.3473
  425ccc     O311311   2.990   7.548   1.741  0.7691  0.3170  0.1851
  425ccc     O411312   3.078   7.810   1.566 -0.0210  0.3574  0.6755
  425ccc     C611313   3.264   8.006   1.716 -0.1656 -1.0588  0.2535
  425ccc     H611314   2.961   7.570   1.650 -1.5183  0.3753  0.8631
  425ccc     H711315   3.109   7.847   1.482  0.0776  3.0577  1.8120
  425ccc     H811316   3.314   7.382   2.019  2.1150  1.3829 -1.6039
  425ccc     H911317   3.159   8.018   1.746 -0.3066  0.1558 -0.6939
  425ccc    H1011318   3.279   8.049   1.617  1.7164 -0.2704  0.8420
  425ccc     O511319   3.339   8.093   1.803  0.1799  0.5816  0.1863
  425ccc    H1111320   3.429   8.055   1.807 -0.7651 -1.7370  1.7701
  425ccc     O611321   3.387   7.817   1.893 -0.2762 -0.4862  0.4797
  426ccc     C111322   6.287   7.038   3.264 -0.1128 -0.0020 -0.0195
  426ccc     C211323   6.392   6.869   3.309  0.1450  0.2650 -0.6139
  426ccc     H111324   6.333   7.082   3.175 -1.1568 -0.0349 -0.5944
  426ccc     H211325   6.464   6.860   3.227 -1.2072 -1.4828 -1.6898
  426ccc     C311326   6.483   6.861   3.487  0.3184 -0.5731  0.3518
  426ccc     C411327   6.449   7.007   3.626  0.0989  0.1839  0.2386
  426ccc     C511328   6.346   7.167   3.572  0.4096 -0.1639  0.0620
  426ccc     H311329   6.397   6.960   3.710 -2.4181  1.1378 -0.6744
  426ccc     H411330   6.590   6.865   3.464  0.5982 -1.9739  1.2378
  426ccc     H511331   6.404   7.258   3.593 -2.8362  1.9285  0.5995
  426ccc     O111332   6.234   7.174   3.670 -0.3304  0.4742  0.4036
  426ccc     O211333   6.577   7.029   3.685  0.5140 -0.2355  0.2048
  426ccc     O311334   6.472   6.730   3.544  0.3343 -0.5128  0.0457
  426ccc     O411335   6.302   6.762   3.281 -0.5610  0.2378 -0.0525
  426ccc     C611336   6.136   7.015   3.221  0.1379 -0.3312  0.4691
  426ccc     H611337   6.379   6.704   3.535  0.1332  0.3596 -0.5796
  426ccc     H711338   6.300   6.698   3.354 -0.4977  1.2121  0.8353
  426ccc     H811339   6.554   7.066   3.772  0.4799  0.1895  0.0203
  426ccc     H911340   6.056   7.013   3.296 -1.5043  0.3220 -1.1744
  426ccc    H1011341   6.113   6.929   3.158 -4.4347  1.6399 -1.0143
  426ccc     O511342   6.102   7.132   3.147 -0.1980 -0.4163  0.6558
  426ccc    H1111343   6.185   7.159   3.106 -0.7921  3.4365  1.6251
  426ccc     O611344   6.272   7.172   3.400  0.5639 -0.0454  0.2361
  427ccc     C111345   5.784   8.062   2.994  0.1511  0.7963  0.2147
  427ccc     C211346   5.895   8.070   2.888  0.3469  0.1897  0.1081
  427ccc     H111347   5.810   8.139   3.068 -0.7123  0.6713  0.6658
  427ccc     H211348   5.898   8.169   2.841 -1.6373  0.5016  0.5699
  427ccc     C311349   6.035   8.049   2.956  0.9106 -0.8994 -0.5006
  427ccc     C411350   6.033   7.906   3.021 -0.2129 -0.2916  0.7535
  427ccc     C511351   5.916   7.885   3.117 -0.0257 -0.7795  0.1356
  427ccc     H311352   6.018   7.850   2.928  2.3763  2.5576 -1.5742
  427ccc     H411353   6.042   8.127   3.034  0.5527 -1.2487 -0.1094
  427ccc     H511354   5.937   7.933   3.213 -0.6425  0.2663 -0.2414
  427ccc     O111355   5.915   7.744   3.137  0.6695 -0.3058 -0.6910
  427ccc     O211356   6.157   7.883   3.085 -0.0165 -0.3952 -1.0166
  427ccc     O311357   6.140   8.063   2.856 -0.2482 -0.4166  0.1717
  427ccc     O411358   5.857   7.969   2.793 -0.1068  0.1116 -0.0971
  427ccc     C611359   5.641   8.103   2.951 -0.7153  0.5816  0.2662
  427ccc     H611360   6.223   8.039   2.902 -0.4388 -3.3508 -0.7942
  427ccc     H711361   5.909   7.998   2.716 -1.2839 -0.0873 -0.9897
  427ccc     H811362   6.145   7.795   3.125 -1.4070  0.7120  1.1014
  427ccc     H911363   5.598   8.042   2.871 -0.2979  0.7344 -0.0798
  427ccc    H1011364   5.640   8.203   2.905  1.2854  0.0866 -0.9938
  427ccc     O511365   5.558   8.103   3.069  0.6258  0.0535  0.0371
  427ccc    H1111366   5.587   8.013   3.090 -0.6501 -1.0786 -2.6194
  427ccc     O611367   5.788   7.928   3.055  0.3993  0.7013  0.2528
  428ccc     C111368   5.919   8.640   2.128  0.5341  0.4374  0.0556
  428ccc     C211369   5.925   8.518   2.032 -0.3391 -0.5253 -0.3887
  428ccc     H111370   6.017   8.647   2.176  1.1958 -1.9471 -0.8025
  428ccc     H211371   6.006   8.535   1.961 -0.1599 -1.8071 -0.5140
  428ccc     C311372   5.971   8.390   2.107  0.2459  0.2295  0.2801
  428ccc     C411373   5.878   8.350   2.225 -0.2293 -0.2133 -0.0115
  428ccc     C511374   5.858   8.479   2.311  0.2712 -0.2155  0.2258
  428ccc     H311375   5.781   8.316   2.187 -0.6291  1.3870 -0.5123
  428ccc     H411376   6.071   8.404   2.149  1.3355 -1.6301 -1.4968
  428ccc     H511377   5.957   8.505   2.351 -0.3057  1.0405  0.9102
  428ccc     O111378   5.755   8.448   2.411 -0.9811 -0.1236 -1.1264
  428ccc     O211379   5.938   8.244   2.305  0.4427  0.2279 -0.0338
  428ccc     O311380   5.967   8.278   2.011  0.1857 -0.1437 -0.0766
  428ccc     O411381   5.800   8.497   1.970 -0.4948  0.3006  0.2419
  428ccc     C611382   5.898   8.775   2.067 -0.4385 -0.2273 -0.2112
  428ccc     H611383   6.013   8.204   2.055  0.0723  0.3062  0.8248
  428ccc     H711384   5.773   8.588   1.949 -2.3661 -0.7459 -2.3908
  428ccc     H811385   5.904   8.163   2.264  1.6240  0.2301 -1.0665
  428ccc     H911386   5.992   8.820   2.033 -0.7123 -1.1306 -2.3230
  428ccc    H1011387   5.845   8.838   2.139 -0.9994 -0.4690 -0.4117
  428ccc     O511388   5.817   8.759   1.952 -0.0547 -0.6516 -0.3678
  428ccc    H1111389   5.736   8.812   1.968  0.8243  0.8816 -0.7634
  428ccc     O611390   5.819   8.600   2.223 -0.0912 -0.0261 -0.5051
  429ccc     C111391   4.974   8.441   3.213  0.1570 -0.0205 -0.7049
  429ccc     C211392   4.904   8.335   3.305  0.0350  0.0324 -0.2196
  429ccc     H111393   4.894   8.500   3.168 -0.9018 -1.1948 -0.4256
  429ccc     H211394   4.837   8.387   3.374  1.3307  1.4382  0.0289
  429ccc     C311395   4.836   8.229   3.228 -0.2273 -0.0239  0.2928
  429ccc     C411396   4.930   8.170   3.118  0.3425  0.9854 -0.3443
  429ccc     C511397   4.994   8.279   3.030 -0.0112 -0.0707 -0.3106
  429ccc     H311398   5.017   8.125   3.168 -0.1351  1.1896  0.7046
  429ccc     H411399   4.755   8.285   3.179 -0.9013 -0.4975  0.8580
  429ccc     H511400   4.917   8.334   2.975 -0.0035 -0.4017 -0.6561
  429ccc     O111401   5.107   8.208   2.952 -0.2035  0.0012 -0.4946
  429ccc     O211402   4.851   8.074   3.042  0.3200 -0.0764 -0.1114
  429ccc     O311403   4.766   8.128   3.302  0.2312  0.4294 -0.2964
  429ccc     O411404   5.012   8.270   3.384  0.0493  1.0645  0.1706
  429ccc     C611405   5.059   8.547   3.298 -0.1190 -0.1723  0.0504
  429ccc     H611406   4.829   8.092   3.366 -0.7742  3.1315  2.4840
  429ccc     H711407   5.069   8.345   3.408 -0.2206  0.8891  1.4563
  429ccc     H811408   4.799   8.040   3.117 -0.2955  0.9461 -0.0508
  429ccc     H911409   4.988   8.603   3.361 -1.2627  1.5063 -2.5362
  429ccc    H1011410   5.105   8.626   3.238  1.7863 -0.9272  0.4736
  429ccc     O511411   5.155   8.481   3.376 -0.4177 -0.2578 -0.0834
  429ccc    H1111412   5.223   8.445   3.317 -0.7194  0.7653 -1.0946
  429ccc     O611413   5.062   8.373   3.117 -0.3367  0.3165 -0.3133
  430ccc     C111414   2.987   2.666   2.746  0.5757 -0.4507 -0.3495
  430ccc     C211415   2.846   2.627   2.704 -0.1390 -0.1547  0.5421
  430ccc     H111416   2.979   2.688   2.853  1.7434 -1.3083 -0.0553
  430ccc     H211417   2.812   2.539   2.759  0.4388 -2.4573 -2.5558
  430ccc     C311418   2.751   2.748   2.717 -0.5827 -0.1021  0.0360
  430ccc     C411419   2.814   2.879   2.654  0.1696 -0.1450 -0.4176
  430ccc     C511420   2.958   2.911   2.702 -0.1781  0.0881  0.6153
  430ccc     H311421   2.807   2.873   2.545  2.0805 -1.1959 -0.5371
  430ccc     H411422   2.730   2.756   2.825 -2.5245 -4.7666  0.2363
  430ccc     H511423   2.962   2.933   2.810  0.2436 -0.9299  0.8191
  430ccc     O111424   3.010   3.021   2.617 -0.5994 -0.0439 -0.1067
  430ccc     O211425   2.724   2.995   2.679  0.3557  0.5011  0.0319
  430ccc     O311426   2.626   2.717   2.649  0.6947 -0.6581  0.0848
  430ccc     O411427   2.857   2.584   2.573  0.0955 -0.3009  0.3301
  430ccc     C611428   3.095   2.554   2.739 -0.3887  0.1821  0.4323
  430ccc     H611429   2.597   2.634   2.690 -3.3727 -0.3393 -1.6596
  430ccc     H711430   2.908   2.654   2.528  0.0922  0.6255  1.7158
  430ccc     H811431   2.640   2.975   2.634 -0.1128 -3.8433  2.2729
  430ccc     H911432   3.131   2.540   2.636  0.7927  3.3512  0.3077
  430ccc    H1011433   3.047   2.464   2.779  0.7672  0.6234  3.0258
  430ccc     O511434   3.202   2.585   2.826 -0.6922 -0.4112  0.0047
  430ccc    H1111435   3.251   2.501   2.829 -0.0164 -0.0974 -1.3600
  430ccc     O611436   3.036   2.786   2.681  0.1648 -0.1956  0.0183
  431ccc     C111437   2.998   3.139   1.546 -0.1465 -0.4385  1.3594
  431ccc     C211438   2.969   3.291   1.543  0.2814 -0.0783  0.2322
  431ccc     H111439   2.912   3.086   1.503  0.4722 -3.0631  3.1086
  431ccc     H211440   2.917   3.320   1.451 -0.9577  1.3268  1.3346
  431ccc     C311441   2.869   3.334   1.646  0.3575 -0.0337 -0.6668
  431ccc     C411442   2.901   3.278   1.784  0.0363  0.3267  0.0427
  431ccc     C511443   2.936   3.133   1.778  0.4505 -0.2083  0.0666
  431ccc     H311444   2.981   3.335   1.834  0.7068 -0.3625 -0.2379
  431ccc     H411445   2.771   3.309   1.604  0.5463 -0.4133 -0.8929
  431ccc     H511446   2.844   3.077   1.757 -0.1094  0.6995  0.0770
  431ccc     O111447   2.999   3.092   1.906 -0.6251  0.5058 -0.0433
  431ccc     O211448   2.780   3.299   1.858  0.5473  0.1086  0.1002
  431ccc     O311449   2.873   3.477   1.660 -0.5394  0.2599 -0.3130
  431ccc     O411450   3.091   3.366   1.554  0.0956  0.1645  0.1988
  431ccc     C611451   3.121   3.098   1.458  0.1048 -0.4602 -0.0583
  431ccc     H611452   2.782   3.503   1.685 -0.0195  1.9837 -0.1534
  431ccc     H711453   3.161   3.306   1.522  0.3463 -0.2573  1.4923
  431ccc     H811454   2.809   3.316   1.949  1.0167 -1.6085  0.3115
  431ccc     H911455   3.088   3.113   1.354 -0.4193 -0.7325  0.0659
  431ccc    H1011456   3.135   2.989   1.465  0.2056 -0.4656 -0.3216
  431ccc     O511457   3.244   3.162   1.492 -0.0001  0.0725  0.4992
  431ccc    H1111458   3.271   3.100   1.562 -0.4728  1.7147  2.2533
  431ccc     O611459   3.028   3.094   1.680  0.4323  0.5066 -0.0775
  432ccc     C111460   5.155   3.888   1.670  0.5773 -0.9269 -0.6136
  432ccc     C211461   5.110   3.998   1.568 -1.3095 -0.0135 -0.6685
  432ccc     H111462   5.068   3.821   1.665 -0.8072  0.8400 -1.3278
  432ccc     H211463   5.099   3.951   1.469  0.3003 -0.1411 -0.8098
  432ccc     C311464   4.980   4.067   1.615 -0.3680 -0.6550  1.1231
  432ccc     C411465   4.989   4.115   1.763 -0.2721 -0.1734  0.7069
  432ccc     C511466   5.047   4.003   1.855  0.0588  0.4179  0.9437
  432ccc     H311467   5.051   4.205   1.760  0.0554 -0.3957 -1.9871
  432ccc     H411468   4.904   3.988   1.616 -0.7476 -0.4225 -1.5432
  432ccc     H511469   4.976   3.919   1.858  1.5135 -1.0093 -1.0513
  432ccc     O111470   5.068   4.056   1.990  0.0769 -0.2809  0.5927
  432ccc     O211471   4.862   4.167   1.820  0.2407  0.0861  0.4117
  432ccc     O311472   4.932   4.165   1.522 -0.0044  0.0480 -0.3930
  432ccc     O411473   5.214   4.094   1.564 -0.4734  0.5571 -0.5438
  432ccc     C611474   5.281   3.821   1.628 -0.4998  0.1161  0.0943
  432ccc     H611475   5.001   4.232   1.507  0.3451  0.1663  1.4824
  432ccc     H711476   5.281   4.033   1.599 -2.3759 -0.6598  1.1736
  432ccc     H811477   4.855   4.260   1.793  0.3829  0.2839  1.0481
  432ccc     H911478   5.267   3.779   1.527 -0.1821 -0.0820  0.1343
  432ccc    H1011479   5.315   3.740   1.692  0.7092  0.0261 -0.6363
  432ccc     O511480   5.392   3.914   1.626 -0.0545  0.0839  0.1298
  432ccc    H1111481   5.471   3.866   1.596  0.4326  0.6224  0.5221
  432ccc     O611482   5.167   3.952   1.793  0.0496 -0.2393 -0.2037
  433ccc     C111483   5.037   3.354   2.815  1.0230  0.7245 -0.4917
  433ccc     C211484   5.184   3.367   2.790 -1.0971 -0.4100  0.2850
  433ccc     H111485   5.004   3.255   2.782 -0.6030  0.2799  2.1344
  433ccc     H211486   5.232   3.284   2.843  0.7442  1.3602  1.5218
  433ccc     C311487   5.214   3.351   2.638  0.2115  0.2160 -0.0061
  433ccc     C411488   5.146   3.458   2.556  1.0441 -0.0815  0.1400
  433ccc     C511489   4.995   3.460   2.591  0.1827 -0.1065  0.2084
  433ccc     H311490   5.205   3.550   2.563 -0.1600  0.8341 -1.0558
  433ccc     H411491   5.166   3.260   2.600 -0.7339  1.5554 -2.2414
  433ccc     H511492   4.938   3.376   2.550  1.4698 -1.7218  1.5979
  433ccc     O111493   4.956   3.588   2.536  0.2043  0.6138  0.2410
  433ccc     O211494   5.168   3.426   2.415  0.0363  0.0022  0.2470
  433ccc     O311495   5.359   3.347   2.623 -0.0439 -0.9796  0.5908
  433ccc     O411496   5.229   3.498   2.841 -0.5735 -0.1804  0.0258
  433ccc     C611497   5.001   3.377   2.964 -0.1133  0.2431 -0.0066
  433ccc     H611498   5.357   3.284   2.548 -0.6937  1.8528 -1.9952
  433ccc     H711499   5.322   3.477   2.857 -0.0084  1.7465 -0.4135
  433ccc     H811500   5.250   3.468   2.382  0.5239 -1.1367 -0.0574
  433ccc     H911501   5.044   3.303   3.032 -1.7590 -0.0868  0.7190
  433ccc    H1011502   4.894   3.355   2.972  0.0600 -2.8374 -3.3786
  433ccc     O511503   5.034   3.509   3.003 -0.4775  0.8940  0.1893
  433ccc    H1111504   5.105   3.515   2.937 -1.5691 -1.2623 -1.3170
  433ccc     O611505   4.976   3.465   2.735 -0.1158 -0.0798  0.1117
  434ccc     C111506   2.900   5.047   2.003 -0.8759 -0.1900  0.9767
  434ccc     C211507   2.781   5.000   1.915  0.1034 -0.5058  0.2674
  434ccc     H111508   2.933   5.149   1.978  1.7510 -0.6100  2.3894
  434ccc     H211509   2.692   5.062   1.934 -0.9288 -2.2082  1.2448
  434ccc     C311510   2.814   5.004   1.761 -0.1703  0.5293  0.1594
  434ccc     C411511   2.941   4.916   1.741  0.3591  0.2639  0.3261
  434ccc     C511512   3.050   4.954   1.840  0.7306  0.2584  0.3642
  434ccc     H311513   2.915   4.814   1.771 -1.2725  0.5137 -0.1534
  434ccc     H411514   2.831   5.108   1.732  0.7421  0.5151  0.5976
  434ccc     H511515   3.092   5.048   1.802  1.1530 -0.2550 -0.4536
  434ccc     O111516   3.149   4.850   1.823  0.2626  0.2411 -0.2279
  434ccc     O211517   2.980   4.920   1.596 -0.2286  0.5516 -0.0870
  434ccc     O311518   2.702   4.956   1.679  0.1615  0.3903  0.1915
  434ccc     O411519   2.737   4.862   1.945 -0.2903 -0.6966 -0.5579
  434ccc     C611520   2.875   5.040   2.154 -0.6335 -0.0143 -0.4568
  434ccc     H611521   2.695   4.860   1.686 -2.4403  0.5147  0.2512
  434ccc     H711522   2.759   4.879   2.038 -1.0893 -2.1221 -0.0802
  434ccc     H811523   2.961   5.010   1.564 -1.2385  0.1577 -0.6487
  434ccc     H911524   2.803   5.118   2.183 -2.2221 -1.6156  0.1131
  434ccc    H1011525   2.966   5.056   2.211 -1.4173  1.7073  0.3736
  434ccc     O511526   2.827   4.908   2.175 -0.5767  0.1846  0.1345
  434ccc    H1111527   2.843   4.882   2.267  0.4485  1.1819  0.2555
  434ccc     O611528   3.010   4.959   1.982  0.2496  0.1994  0.3664
  435ccc     C111529   2.850   3.812   2.039 -0.4053 -0.0102  0.8182
  435ccc     C211530   2.904   3.729   1.918  0.6662 -0.5883 -0.4835
  435ccc     H111531   2.751   3.853   2.013  1.3986  3.2686 -1.6517
  435ccc     H211532   2.824   3.661   1.890  0.4359 -0.4386 -0.1938
  435ccc     C311533   2.938   3.818   1.795 -0.3102 -0.1694  0.1069
  435ccc     C411534   3.019   3.948   1.834 -0.3870 -0.2229 -0.2488
  435ccc     C511535   2.943   4.025   1.948 -0.8695  0.4185  0.2187
  435ccc     H311536   3.121   3.917   1.860 -0.0101  0.1243 -1.2734
  435ccc     H411537   2.849   3.852   1.741  0.0585  0.9455  0.1715
  435ccc     H511538   2.842   4.053   1.916 -0.8273 -1.7319 -2.1665
  435ccc     O111539   3.029   4.139   1.982 -0.0640 -0.7760  0.0308
  435ccc     O211540   3.036   4.022   1.713  0.8135  0.1157  0.4088
  435ccc     O311541   3.020   3.745   1.697 -0.9945 -0.3561 -0.0096
  435ccc     O411542   3.014   3.656   1.964  0.2083  0.4173  0.4103
  435ccc     C611543   2.832   3.732   2.171  0.0200 -0.1424  0.2814
  435ccc     H611544   3.023   3.798   1.615 -2.8309 -1.4351 -0.8370
  435ccc     H711545   3.056   3.632   1.880  1.2688  1.5790  0.5822
  435ccc     H811546   3.111   4.084   1.723  1.6557 -0.2649 -2.5264
  435ccc     H911547   2.800   3.627   2.160 -0.7895 -0.0015  1.1704
  435ccc    H1011548   2.762   3.782   2.238  0.7860 -0.2967  1.2178
  435ccc     O511549   2.966   3.738   2.231 -0.3126  0.0581  0.8406
  435ccc    H1111550   3.019   3.705   2.156 -2.3105  1.0714 -1.1487
  435ccc     O611551   2.932   3.930   2.058  0.0317  0.5113 -0.2777
  436ccc     C111552   4.713   5.833   2.047  0.3712 -0.0465 -0.2535
  436ccc     C211553   4.826   5.917   2.117 -0.1712  0.3575 -0.4142
  436ccc     H111554   4.612   5.863   2.074  0.2403 -2.3143  2.2178
  436ccc     H211555   4.803   6.024   2.115  1.1261  0.6466 -1.8366
  436ccc     C311556   4.845   5.882   2.275  0.0069  0.5567 -0.2887
  436ccc     C411557   4.847   5.729   2.291  0.5883  0.5005  0.0858
  436ccc     C511558   4.734   5.655   2.210 -0.2693  0.4760 -0.3463
  436ccc     H311559   4.938   5.686   2.248  0.3789 -0.0281  0.1667
  436ccc     H411560   4.757   5.912   2.333 -0.3641  0.1960 -0.6607
  436ccc     H511561   4.638   5.670   2.261 -0.7269 -0.1901 -0.9964
  436ccc     O111562   4.761   5.509   2.212  0.3275 -0.1905  0.5882
  436ccc     O211563   4.822   5.697   2.431 -0.5246  0.1364 -0.2848
  436ccc     O311564   4.965   5.937   2.320 -0.2171 -0.2832 -0.4200
  436ccc     O411565   4.952   5.888   2.057 -0.1841  0.4276  0.0593
  436ccc     C611566   4.711   5.854   1.896 -0.9834  0.5760 -1.0562
  436ccc     H611567   4.968   5.920   2.416 -0.3134  0.0971 -0.3477
  436ccc     H711568   5.010   5.932   2.123  1.9072  0.1913 -1.5184
  436ccc     H811569   4.861   5.609   2.446  3.3279  1.7380  0.4222
  436ccc     H911570   4.705   5.960   1.867 -0.5201  0.5401 -1.2773
  436ccc    H1011571   4.627   5.797   1.856 -0.5760 -0.5468 -0.3504
  436ccc     O511572   4.833   5.795   1.847 -0.1560 -0.0600 -0.2840
  436ccc    H1111573   4.894   5.812   1.921  0.8512  0.3473 -1.1811
  436ccc     O611574   4.732   5.693   2.073  0.5923  0.0094  0.6897
  437ccc     C111575   4.611   4.542   1.676  0.4949  0.2432  0.1982
  437ccc     C211576   4.593   4.505   1.526  0.6928 -0.3217  0.9503
  437ccc     H111577   4.513   4.571   1.715  0.8086  1.6084  0.0138
  437ccc     H211578   4.509   4.436   1.515  1.6575 -1.2099 -1.6964
  437ccc     C311579   4.565   4.631   1.436  0.9752 -1.0779 -0.2332
  437ccc     C411580   4.648   4.758   1.478  0.3084  0.3119  0.2976
  437ccc     C511581   4.645   4.780   1.626 -0.3573 -0.0038  0.2644
  437ccc     H311582   4.754   4.739   1.454 -0.4832 -0.6749 -2.8925
  437ccc     H411583   4.459   4.654   1.450  1.1594  1.7639 -2.4936
  437ccc     H511584   4.547   4.810   1.664  0.3475  1.3268  1.1165
  437ccc     O111585   4.741   4.881   1.659 -0.4401 -0.6050  0.4918
  437ccc     O211586   4.604   4.866   1.398  0.0441 -0.6848 -0.3230
  437ccc     O311587   4.579   4.607   1.298  0.4813  0.4815  0.9200
  437ccc     O411588   4.721   4.446   1.477 -0.4868  0.2038 -0.2699
  437ccc     C611589   4.661   4.419   1.755  0.2952 -0.5399 -0.1426
  437ccc     H611590   4.524   4.675   1.256 -1.8147 -0.6366  1.9399
  437ccc     H711591   4.701   4.422   1.385 -1.1201  0.8929 -0.3219
  437ccc     H811592   4.646   4.948   1.430  1.4581 -0.9164 -1.4506
  437ccc     H911593   4.607   4.326   1.731 -0.7031 -0.8248  2.7467
  437ccc    H1011594   4.659   4.450   1.860  0.7466 -0.1955 -0.2391
  437ccc     O511595   4.799   4.414   1.722  0.3166  1.0525 -0.3368
  437ccc    H1111596   4.794   4.422   1.625 -2.8249  1.1011 -0.2803
  437ccc     O611597   4.695   4.657   1.688  0.2053  0.1183 -0.5778
  438ccc     C111598   2.642   6.397   2.743  0.1162 -0.5888  0.8595
  438ccc     C211599   2.696   6.336   2.610  0.2070 -0.4429  0.2724
  438ccc     H111600   2.712   6.473   2.779 -1.0442  0.3568  1.2087
  438ccc     H211601   2.727   6.421   2.548 -1.4715  0.9523  1.2265
  438ccc     C311602   2.830   6.262   2.632 -0.7788 -0.6467  0.0835
  438ccc     C411603   2.812   6.160   2.750  0.3362 -0.0384 -0.3239
  438ccc     C511604   2.756   6.221   2.881 -0.3889  0.4182  0.1788
  438ccc     H311605   2.724   6.105   2.713  1.0334 -1.2458 -0.2355
  438ccc     H411606   2.896   6.345   2.658 -2.0345  0.4363 -0.0485
  438ccc     H511607   2.833   6.281   2.931  1.5113 -1.1420 -0.7327
  438ccc     O111608   2.721   6.110   2.964 -0.6549  0.0372 -0.1525
  438ccc     O211609   2.931   6.073   2.763  0.1579 -0.1687  0.2109
  438ccc     O311610   2.866   6.194   2.507 -0.4131  0.3038 -0.5073
  438ccc     O411611   2.594   6.248   2.558 -0.5073 -0.5936  0.0159
  438ccc     C611612   2.511   6.473   2.714 -0.9852  1.0484 -0.3246
  438ccc     H611613   2.916   6.113   2.524 -1.1301  0.1663  1.0996
  438ccc     H711614   2.634   6.228   2.471 -1.5826  1.9905 -1.1658
  438ccc     H811615   2.961   6.040   2.676 -1.0606 -4.3533  1.1324
  438ccc     H911616   2.434   6.395   2.711 -0.1809  0.2048  0.1950
  438ccc    H1011617   2.516   6.528   2.619  0.3409 -0.4491 -1.1853
  438ccc     O511618   2.482   6.568   2.818  0.1172  0.0552  0.8774
  438ccc    H1111619   2.450   6.510   2.890 -0.9825 -1.1556 -0.5270
  438ccc     O611620   2.633   6.292   2.846  0.6183  0.5528 -0.0982
  439ccc     C111621   2.738   6.503   3.247  0.7929 -0.5903 -0.2562
  439ccc     C211622   2.705   6.631   3.331  0.2611  0.4474 -0.4101
  439ccc     H111623   2.664   6.427   3.273 -0.2451 -0.4584 -2.6160
  439ccc     H211624   2.604   6.663   3.302 -0.4145 -1.2999 -0.1176
  439ccc     C311625   2.723   6.613   3.480  0.4279  0.3344  0.2826
  439ccc     C411626   2.859   6.550   3.519 -0.1810  0.1599 -1.3111
  439ccc     C511627   2.878   6.423   3.434 -0.3172  0.3254  0.6823
  439ccc     H311628   2.935   6.617   3.477  3.0018 -3.3207 -1.7067
  439ccc     H411629   2.635   6.557   3.515  1.3576 -0.1931  1.9066
  439ccc     H511630   2.804   6.344   3.452  0.0745 -0.9653 -2.6416
  439ccc     O111631   3.012   6.369   3.460  0.3569 -0.0284 -0.3620
  439ccc     O211632   2.861   6.529   3.665 -0.3996 -0.0080 -0.1588
  439ccc     O311633   2.697   6.736   3.551 -0.1342  0.2432 -0.0273
  439ccc     O411634   2.798   6.728   3.290  0.4685  0.0473  0.2763
  439ccc     C611635   2.737   6.516   3.095  0.3931  0.0780  0.4691
  439ccc     H611636   2.602   6.755   3.543  0.0839  1.0690 -0.8577
  439ccc     H711637   2.771   6.809   3.335 -2.1225 -0.7342  0.2972
  439ccc     H811638   2.954   6.528   3.695 -0.7361  1.0051  1.0044
  439ccc     H911639   2.633   6.513   3.059  0.1941  1.0462  0.9171
  439ccc    H1011640   2.798   6.438   3.049  0.6046  1.3311 -1.4977
  439ccc     O511641   2.804   6.633   3.059  0.3906 -0.1742  0.6306
  439ccc    H1111642   2.803   6.683   3.142 -0.7909 -0.3757  0.7581
  439ccc     O611643   2.868   6.452   3.292 -0.3074 -0.3886  0.0543
  440ccc     C111644   2.056   6.123   3.499  0.2024  0.1162 -0.1559
  440ccc     C211645   1.924   6.171   3.562  0.8309  0.0531 -0.0845
  440ccc     H111646   2.047   6.039   3.429  0.9027  1.0517 -1.4009
  440ccc     H211647   1.855   6.195   3.480 -2.0607  1.5590  2.5708
  440ccc     C311648   1.861   6.065   3.645 -0.0326  0.3048  0.3343
  440ccc     C411649   1.955   6.006   3.751  0.1650 -0.4188 -0.3784
  440ccc     C511650   2.089   5.971   3.683 -0.1767  0.2894 -0.0470
  440ccc     H311651   1.978   6.082   3.827  0.1482  1.1253 -1.8371
  440ccc     H411652   1.835   5.979   3.581  1.5529 -1.0483  1.4113
  440ccc     H511653   2.073   5.885   3.616  0.2584 -1.0685  1.5310
  440ccc     O111654   2.191   5.926   3.773 -0.5411  0.4930 -0.4759
  440ccc     O211655   1.886   5.894   3.803 -0.3221  0.4067  0.5685
  440ccc     O311656   1.739   6.116   3.698  0.0187 -0.2631 -0.2624
  440ccc     O411657   1.936   6.290   3.646 -0.6640 -0.3514 -0.0989
  440ccc     C611658   2.129   6.239   3.427  0.4397  0.5235  0.3661
  440ccc     H611659   1.674   6.048   3.723  1.8990 -2.1092 -0.1472
  440ccc     H711660   1.847   6.312   3.680  0.0259  1.9231  0.3682
  440ccc     H811661   1.926   5.866   3.888 -3.1477 -0.4203  1.7707
  440ccc     H911662   2.169   6.313   3.498 -0.0847  0.2012  1.0087
  440ccc    H1011663   2.051   6.284   3.366 -1.8568  0.3125  2.9406
  440ccc     O511664   2.225   6.185   3.342  0.4984 -0.2144  0.0765
  440ccc    H1111665   2.309   6.205   3.387  0.7112 -0.7373 -0.0867
  440ccc     O611666   2.140   6.081   3.610  0.2980  0.2556  0.1590
  441ccc     C111667   2.219   5.696   3.326 -0.2619 -0.1527  0.1151
  441ccc     C211668   2.070   5.662   3.335  0.2319 -0.3932  0.8159
  441ccc     H111669   2.256   5.663   3.228 -0.8825  0.4452 -0.3297
  441ccc     H211670   2.014   5.704   3.250  0.3314 -1.4425  0.2064
  441ccc     C311671   2.061   5.509   3.329  0.0650 -0.0222 -0.5265
  441ccc     C411672   2.144   5.431   3.434 -0.2197 -0.1351 -0.3542
  441ccc     C511673   2.293   5.481   3.438 -0.3023 -0.3075  0.0577
  441ccc     H311674   2.104   5.446   3.536  0.6787 -2.9256  0.5043
  441ccc     H411675   2.111   5.487   3.234  2.4409 -0.5760  0.7815
  441ccc     H511676   2.344   5.432   3.355  0.6415  0.3332  0.2421
  441ccc     O111677   2.349   5.442   3.572  0.5384 -0.5792 -0.0110
  441ccc     O211678   2.137   5.292   3.399 -0.3925 -0.5878 -0.2752
  441ccc     O311679   1.921   5.465   3.318 -0.0455  0.0050  0.3412
  441ccc     O411680   2.019   5.712   3.459 -0.0743  0.6009  0.6089
  441ccc     C611681   2.248   5.844   3.340 -0.5896 -0.5635  0.3514
  441ccc     H611682   1.886   5.459   3.409 -2.4167  1.5727 -0.3803
  441ccc     H711683   1.923   5.701   3.447  0.3969 -2.0106 -1.8491
  441ccc     H811684   2.165   5.244   3.479  0.2584 -0.4877 -0.4441
  441ccc     H911685   2.225   5.872   3.443  0.1599  0.2956  0.2989
  441ccc    H1011686   2.175   5.887   3.270  1.3507  0.3789 -1.2007
  441ccc     O511687   2.382   5.861   3.285 -0.0776 -0.4289  0.0216
  441ccc    H1111688   2.433   5.825   3.359 -0.8356 -0.6900  0.4269
  441ccc     O611689   2.287   5.626   3.437  0.1842  0.0093  0.6969
  442ccc     C111690   2.335   5.042   2.395  0.5501  0.6577  0.0737
  442ccc     C211691   2.402   4.923   2.479  0.4619 -0.3927  0.0958
  442ccc     H111692   2.355   5.013   2.291 -0.2071  0.1400  0.0617
  442ccc     H211693   2.356   4.828   2.452 -1.6095  0.8665 -1.0283
  442ccc     C311694   2.553   4.934   2.470 -0.3562  0.3097 -0.8182
  442ccc     C411695   2.608   5.074   2.498 -0.2905 -0.5296 -1.0459
  442ccc     C511696   2.535   5.182   2.415 -0.0738  0.3519 -0.4385
  442ccc     H311697   2.592   5.099   2.604  0.6116 -3.4055 -0.1368
  442ccc     H411698   2.578   4.920   2.364 -0.6951  1.2317 -1.0326
  442ccc     H511699   2.561   5.159   2.311  0.6760 -0.9835  0.0192
  442ccc     O111700   2.584   5.310   2.443 -0.4354 -0.0551 -0.2948
  442ccc     O211701   2.752   5.072   2.470 -0.1636  0.3858  0.0924
  442ccc     O311702   2.617   4.831   2.552  0.4237 -0.0500 -0.7665
  442ccc     O411703   2.360   4.949   2.613 -0.2484  1.0779 -0.0535
  442ccc     C611704   2.184   5.060   2.407  0.5161 -0.6761 -0.4807
  442ccc     H611705   2.608   4.861   2.644 -0.6923  3.5753 -1.8920
  442ccc     H711706   2.279   5.000   2.597 -0.1232  0.9040 -1.2898
  442ccc     H811707   2.783   5.017   2.544 -0.4412  0.5093  0.3062
  442ccc     H911708   2.128   4.968   2.384 -1.8770  0.1443  1.5217
  442ccc    H1011709   2.158   5.153   2.356  1.0080  0.2229  0.8423
  442ccc     O511710   2.150   5.086   2.548 -0.7367 -0.3302  0.2958
  442ccc    H1111711   2.176   5.179   2.548  0.8554 -0.7379  1.5783
  442ccc     O611712   2.393   5.179   2.428  0.0006  0.6319 -0.4313
  443ccc     C111713   2.223   6.023   2.223 -0.1946  0.3283  0.4469
  443ccc     C211714   2.247   6.130   2.115  0.0109  0.7182 -0.4396
  443ccc     H111715   2.178   6.070   2.311  0.3650  0.8226  0.4731
  443ccc     H211716   2.157   6.188   2.092  1.7079  3.0526 -1.5607
  443ccc     C311717   2.349   6.233   2.162  0.0462  0.3840 -0.1358
  443ccc     C411718   2.482   6.159   2.207  0.5578 -0.8711 -0.1674
  443ccc     C511719   2.453   6.039   2.308 -0.1346 -0.5057 -0.1091
  443ccc     H311720   2.525   6.109   2.120 -0.4612 -0.3817 -0.9762
  443ccc     H411721   2.309   6.287   2.248 -0.6036 -0.7171  0.2714
  443ccc     H511722   2.417   6.077   2.405 -2.1243 -2.7624  0.1260
  443ccc     O111723   2.577   5.960   2.314 -0.5514  0.0051 -0.1680
  443ccc     O211724   2.560   6.265   2.263  0.0701 -0.0407  0.6088
  443ccc     O311725   2.382   6.330   2.060  0.1323 -0.1109 -0.4749
  443ccc     O411726   2.293   6.066   1.994 -0.0492  0.6364  0.3800
  443ccc     C611727   2.119   5.918   2.180 -0.8279 -0.3502 -0.3936
  443ccc     H611728   2.451   6.292   2.004  0.1817 -1.3416  0.3842
  443ccc     H711729   2.284   6.135   1.927  0.7191  0.9172  0.5528
  443ccc     H811730   2.611   6.293   2.185 -0.9836  1.2669  0.3657
  443ccc     H911731   2.141   5.867   2.085  0.6569  0.4143 -0.4962
  443ccc    H1011732   2.024   5.968   2.155  0.6302  1.8187 -2.0804
  443ccc     O511733   2.107   5.826   2.284 -0.4352  0.1342 -0.6089
  443ccc    H1111734   2.193   5.779   2.277 -0.9398 -0.8468 -0.4525
  443ccc     O611735   2.347   5.957   2.250 -0.7251 -0.3763  0.2126
  444ccc     C111736   3.174   4.488   3.409  0.1607  0.1138 -0.7044
  444ccc     C211737   3.299   4.402   3.441 -0.4976  0.1928 -0.6391
  444ccc     H111738   3.111   4.443   3.331  1.5605  0.9982 -2.4395
  444ccc     H211739   3.277   4.298   3.469  0.8242 -0.2128 -1.0370
  444ccc     C311740   3.391   4.399   3.311 -0.5819 -0.1942 -0.0872
  444ccc     C411741   3.423   4.547   3.262  0.2648  1.3679  0.5484
  444ccc     C511742   3.283   4.619   3.246  0.0044  0.2109  0.1606
  444ccc     H311743   3.487   4.601   3.334  1.9458  0.4704 -0.2037
  444ccc     H411744   3.338   4.358   3.224  1.4521 -1.8015 -0.6446
  444ccc     H511745   3.222   4.571   3.168 -0.9839  0.1005  0.9760
  444ccc     O111746   3.304   4.759   3.210 -0.1913  0.2621  0.1865
  444ccc     O211747   3.490   4.536   3.127  0.0112  0.2649  0.6788
  444ccc     O311748   3.510   4.330   3.337 -0.2440  0.0193 -0.2823
  444ccc     O411749   3.374   4.456   3.552 -0.3610 -0.4707  0.0638
  444ccc     C611750   3.089   4.512   3.529 -0.2896 -0.6705 -0.7246
  444ccc     H611751   3.557   4.325   3.252 -0.6718  0.2448 -0.5391
  444ccc     H711752   3.465   4.424   3.538  0.3108  0.9897  0.8602
  444ccc     H811753   3.424   4.499   3.065  0.9280  0.4161 -0.4151
  444ccc     H911754   3.138   4.569   3.609 -1.0884 -1.0305  0.0427
  444ccc    H1011755   3.051   4.420   3.575 -0.3159  0.0904  0.8467
  444ccc     O511756   2.976   4.585   3.486 -0.2484 -0.4327 -0.0032
  444ccc    H1111757   3.017   4.673   3.482  1.5636 -1.2340  0.0241
  444ccc     O611758   3.228   4.619   3.376 -0.3872 -0.1395 -0.5428
  445ccc     C111759   2.452   4.407   2.733  0.0977  0.5768 -0.5696
  445ccc     C211760   2.500   4.351   2.591  0.2700 -0.2813 -0.1569
  445ccc     H111761   2.391   4.497   2.719  0.3067  0.7560 -0.3463
  445ccc     H211762   2.408   4.336   2.533  0.3695 -0.2170 -0.3330
  445ccc     C311763   2.585   4.469   2.529  0.0448 -0.3909 -0.3315
  445ccc     C411764   2.714   4.503   2.616  0.5732 -0.9059 -0.3228
  445ccc     C511765   2.672   4.533   2.769  0.3770 -0.1782 -0.6288
  445ccc     H311766   2.773   4.411   2.619  1.1565 -0.5245 -0.1008
  445ccc     H411767   2.527   4.562   2.538 -1.1885 -1.1705  0.1787
  445ccc     H511768   2.633   4.635   2.779  0.1509 -0.4457  1.9775
  445ccc     O111769   2.785   4.518   2.855 -0.4071 -0.6287  0.9368
  445ccc     O211770   2.788   4.620   2.559  0.5154 -0.6267 -0.8042
  445ccc     O311771   2.617   4.436   2.390  0.1438 -0.3100  0.6138
  445ccc     O411772   2.573   4.225   2.606 -0.2394 -0.4737 -0.4830
  445ccc     C611773   2.362   4.301   2.804 -0.1280 -0.4690 -0.1381
  445ccc     H611774   2.647   4.518   2.347 -2.9320  1.0445  0.7835
  445ccc     H711775   2.611   4.221   2.516  1.3930 -1.0688  0.1883
  445ccc     H811776   2.726   4.693   2.573  0.1151 -0.9794 -0.6888
  445ccc     H911777   2.431   4.224   2.839 -0.7008 -0.0978  1.9590
  445ccc    H1011778   2.290   4.268   2.728  1.7221 -1.1121 -1.6876
  445ccc     O511779   2.292   4.374   2.903  0.1436 -0.0590 -0.8927
  445ccc    H1111780   2.247   4.442   2.850  0.1607  0.5801 -0.1090
  445ccc     O611781   2.574   4.436   2.814 -0.2103  0.2006  0.0540
  446ccc     C111782   8.144   7.671   4.335  0.5299  0.6496 -0.5879
  446ccc     C211783   8.107   7.826   4.325 -0.1662  0.2340 -0.1756
  446ccc     H111784   8.216   7.653   4.416  0.8606 -2.5731 -1.4460
  446ccc     H211785   8.054   7.859   4.415 -1.6240  1.0776 -1.3061
  446ccc     C311786   8.234   7.900   4.306  0.5335  0.0868 -0.3588
  446ccc     C411787   8.313   7.848   4.182  0.5338 -0.1138  0.3483
  446ccc     C511788   8.335   7.693   4.189  0.5260 -0.4583 -0.5449
  446ccc     H311789   8.240   7.866   4.102 -0.3547  0.6688  1.3104
  446ccc     H411790   8.296   7.877   4.394 -0.2778  0.2120  0.2557
  446ccc     H511791   8.406   7.672   4.270 -0.9463 -0.8402  0.6907
  446ccc     O111792   8.382   7.664   4.058  0.6260  0.2524  0.0272
  446ccc     O211793   8.435   7.923   4.157  0.3991 -0.4488 -0.1187
  446ccc     O311794   8.212   8.046   4.303  0.9122  0.3455  0.0900
  446ccc     O411795   8.013   7.837   4.208  0.4129 -0.5298 -0.5308
  446ccc     C611796   8.027   7.576   4.369 -0.3112 -0.5293 -0.8297
  446ccc     H611797   8.155   8.065   4.379  0.4640 -0.6296  0.0177
  446ccc     H711798   7.988   7.931   4.199 -0.7325 -0.8405 -0.7849
  446ccc     H811799   8.491   7.910   4.235 -0.3035 -3.1169  0.0307
  446ccc     H911800   7.948   7.586   4.293  0.7292 -1.4677 -2.0879
  446ccc    H1011801   7.977   7.635   4.446 -0.1815  0.9138 -1.8075
  446ccc     O511802   8.066   7.448   4.412  0.2571  0.2562  0.4388
  446ccc    H1111803   8.127   7.461   4.488  0.3380 -1.5726  0.7253
  446ccc     O611804   8.208   7.625   4.210 -0.2712 -0.1964 -0.1381
  447ccc     C111805   8.705   6.616   3.695  0.0236 -0.0865 -0.7084
  447ccc     C211806   8.651   6.495   3.776 -0.2951 -0.2990  0.0917
  447ccc     H111807   8.794   6.660   3.742 -0.3994 -0.8569  0.9146
  447ccc     H211808   8.722   6.417   3.805 -0.1790  0.5930  2.4430
  447ccc     C311809   8.582   6.535   3.918  0.2824  0.2517 -0.3408
  447ccc     C411810   8.502   6.669   3.919 -0.4565  1.0487  0.7417
  447ccc     C511811   8.560   6.775   3.824  0.0155 -0.1553  0.2055
  447ccc     H311812   8.401   6.650   3.880  0.8052  0.2779 -2.5160
  447ccc     H411813   8.660   6.544   3.995  0.5353  1.1782 -0.6948
  447ccc     H511814   8.643   6.827   3.873  0.3254 -2.9531  2.9823
  447ccc     O111815   8.466   6.880   3.790  0.3197  0.2226 -0.1221
  447ccc     O211816   8.484   6.712   4.057 -0.3306  0.0303  0.4942
  447ccc     O311817   8.495   6.426   3.962 -0.5984 -0.2109  0.4487
  447ccc     O411818   8.543   6.443   3.689 -0.6987  0.0406 -0.0917
  447ccc     C611819   8.751   6.582   3.553 -0.1131  0.1906 -0.0971
  447ccc     H611820   8.418   6.421   3.903 -1.0764  0.0955  1.0281
  447ccc     H711821   8.544   6.349   3.715 -0.0488 -0.9995 -3.4687
  447ccc     H811822   8.418   6.656   4.101  2.4492 -0.9030  3.8671
  447ccc     H911823   8.807   6.488   3.569  0.9481  0.8510  0.1854
  447ccc    H1011824   8.829   6.649   3.515  0.3278 -1.6706 -2.7520
  447ccc     O511825   8.637   6.568   3.468 -0.0380  0.0558 -0.4453
  447ccc    H1111826   8.582   6.522   3.535 -2.9741  0.9410 -2.0525
  447ccc     O611827   8.612   6.728   3.693  0.0800 -0.0391  0.1061
  448ccc     C111828   7.952   6.300   4.122 -0.6031 -0.5875 -0.8329
  448ccc     C211829   8.019   6.187   4.042  0.8309 -0.6357  0.5271
  448ccc     H111830   7.874   6.343   4.058 -1.1614 -1.7116 -0.9202
  448ccc     H211831   7.931   6.126   4.015  0.4156  0.4590 -0.7354
  448ccc     C311832   8.098   6.246   3.922 -0.6310  0.3711  0.9124
  448ccc     C411833   8.193   6.357   3.967 -0.0460  0.6883  0.7983
  448ccc     C511834   8.126   6.467   4.049 -0.7627  0.0019 -0.3186
  448ccc     H311835   8.266   6.308   4.033  0.9177  0.3978 -0.4350
  448ccc     H411836   8.024   6.286   3.852 -0.7795 -1.3749  0.0295
  448ccc     H511837   8.055   6.516   3.980 -0.2367 -0.2989 -1.0922
  448ccc     O111838   8.225   6.555   4.107  0.3048 -0.2087  0.4030
  448ccc     O211839   8.266   6.415   3.855  0.2656  0.1100 -0.4249
  448ccc     O311840   8.173   6.137   3.863 -0.5208  0.1690  0.0407
  448ccc     O411841   8.093   6.107   4.131  0.6357  0.4211 -0.3383
  448ccc     C611842   7.881   6.256   4.252 -0.0215  0.0386 -0.1172
  448ccc     H611843   8.146   6.068   3.926  0.4870 -0.9524 -0.7065
  448ccc     H711844   8.050   6.131   4.215 -1.3705 -1.4490 -0.7523
  448ccc     H811845   8.200   6.454   3.795 -0.5469 -1.0800 -0.3350
  448ccc     H911846   7.820   6.169   4.225  0.3665  0.1033 -1.2286
  448ccc    H1011847   7.816   6.336   4.291 -1.3177 -1.2485  0.4862
  448ccc     O511848   7.974   6.212   4.347 -0.2014  0.0785 -0.5414
  448ccc    H1111849   7.946   6.254   4.430  1.0419  0.0996 -0.1081
  448ccc     O611850   8.043   6.411   4.159 -0.2375  0.8092  0.1707
  449ccc     C111851   8.327   6.814   3.474  0.5228  0.3872 -0.3962
  449ccc     C211852   8.290   6.679   3.409  0.3791 -0.4331  0.7352
  449ccc     H111853   8.408   6.811   3.547  0.7220 -2.7153 -0.5999
  449ccc     H211854   8.381   6.639   3.361  1.9141  2.3401  1.0935
  449ccc     C311855   8.243   6.585   3.524 -0.7627  0.1659  0.1658
  449ccc     C411856   8.119   6.640   3.599  0.4619 -0.1448  0.5089
  449ccc     C511857   8.135   6.786   3.638  0.4447  0.0153 -0.8402
  449ccc     H311858   8.037   6.643   3.526 -0.1002 -0.0453  1.1378
  449ccc     H411859   8.325   6.588   3.597 -0.2193  2.3561 -0.4570
  449ccc     H511860   8.197   6.803   3.728 -2.0500 -1.9502  1.4257
  449ccc     O111861   8.011   6.851   3.665 -0.2628 -0.0007 -0.0977
  449ccc     O211862   8.092   6.552   3.712  0.0109 -0.3525  0.2345
  449ccc     O311863   8.225   6.455   3.463  0.1841  1.0043  0.3213
  449ccc     O411864   8.185   6.705   3.313 -0.4041  0.8249 -0.0282
  449ccc     C611865   8.376   6.917   3.366 -0.4961 -0.2730 -0.2664
  449ccc     H611866   8.221   6.392   3.537  1.3362  0.5226 -0.0109
  449ccc     H711867   8.201   6.800   3.300 -0.7259  0.8109 -0.5415
  449ccc     H811868   8.009   6.505   3.691 -0.4471  0.7724 -0.5880
  449ccc     H911869   8.471   6.881   3.323 -0.5857 -0.4838 -0.2887
  449ccc    H1011870   8.396   7.013   3.416 -0.3346  0.1595 -1.1382
  449ccc     O511871   8.278   6.938   3.270  0.3668 -0.2861 -0.7758
  449ccc    H1111872   8.303   7.014   3.215 -0.0243 -0.0601 -0.6481
  449ccc     O611873   8.200   6.863   3.529  0.0065 -0.3339  0.5067
  450ccc     C111874   6.329   6.572   4.676  0.5894  0.5203  0.0753
  450ccc     C211875   6.181   6.573   4.727 -0.4780  0.1648  0.0807
  450ccc     H111876   6.381   6.551   4.771  0.7517  2.9475  0.5791
  450ccc     H211877   6.161   6.481   4.784  0.7234  0.2894  0.7323
  450ccc     C311878   6.146   6.681   4.834 -0.1247 -0.6631 -0.5259
  450ccc     C411879   6.217   6.818   4.806 -0.7322 -0.8924  0.5015
  450ccc     C511880   6.364   6.787   4.753  0.2932 -0.5137 -0.3596
  450ccc     H311881   6.166   6.873   4.726  1.1290 -1.7058 -1.3484
  450ccc     H411882   6.187   6.643   4.929  1.7193  2.2438 -0.0286
  450ccc     H511883   6.408   6.734   4.838 -2.5793 -0.7376  1.1342
  450ccc     O111884   6.429   6.910   4.715  0.5622 -0.0402 -0.5474
  450ccc     O211885   6.238   6.905   4.920  0.1018  0.2296 -0.2763
  450ccc     O311886   6.004   6.705   4.843 -0.8716 -0.0222 -0.7956
  450ccc     O411887   6.087   6.575   4.618 -0.4456  0.4008  0.6721
  450ccc     C611888   6.369   6.477   4.566  0.0477  0.1701 -0.7603
  450ccc     H611889   5.974   6.728   4.932  0.5410 -2.5387  0.4264
  450ccc     H711890   6.008   6.612   4.660 -3.1344 -0.6272 -2.9081
  450ccc     H811891   6.145   6.933   4.927 -0.6997 -2.2552 -0.3419
  450ccc     H911892   6.358   6.373   4.600  2.2948  0.6753  1.8680
  450ccc    H1011893   6.472   6.501   4.536 -0.6089 -0.2615 -3.6714
  450ccc     O511894   6.289   6.510   4.457  0.0597 -0.8011 -0.0428
  450ccc    H1111895   6.227   6.565   4.508  1.1813 -0.7153  1.2675
  450ccc     O611896   6.359   6.703   4.637  0.2472 -0.7073  0.1205
  451ccc     C111897   6.911   7.345   5.373  0.1237  0.2891  0.1738
  451ccc     C211898   6.973   7.478   5.344 -0.7439 -0.3884  0.3662
  451ccc     H111899   6.979   7.282   5.432 -0.3465  2.7340  3.6829
  451ccc     H211900   7.007   7.533   5.433 -0.2812  2.2741 -1.3707
  451ccc     C311901   7.116   7.460   5.272  0.4663 -0.4273  0.0703
  451ccc     C411902   7.101   7.372   5.141 -0.8916 -0.4031  0.4753
  451ccc     C511903   7.027   7.242   5.176  0.4248 -0.0192 -0.5942
  451ccc     H311904   7.049   7.429   5.062  0.4977 -1.1296 -1.0312
  451ccc     H411905   7.189   7.405   5.332  0.2002 -0.5585  0.2781
  451ccc     H511906   7.084   7.180   5.247 -0.9948  0.4978  1.0853
  451ccc     O111907   6.997   7.165   5.061 -0.0774  0.2446  0.1055
  451ccc     O211908   7.229   7.349   5.091 -0.2559  0.1973  0.1226
  451ccc     O311909   7.167   7.588   5.239 -0.5294 -0.1329 -0.0382
  451ccc     O411910   6.885   7.566   5.280 -0.2740  0.1340 -0.2005
  451ccc     C611911   6.768   7.359   5.436  0.2994 -0.5124 -0.2987
  451ccc     H611912   7.206   7.622   5.322  0.9591 -1.6339 -0.0879
  451ccc     H711913   6.940   7.645   5.267  0.1666 -0.0317  0.6020
  451ccc     H811914   7.248   7.429   5.037  1.1486 -0.6140 -0.6397
  451ccc     H911915   6.698   7.355   5.351  0.9740 -1.1869 -0.8496
  451ccc    H1011916   6.759   7.457   5.483  1.9892  1.1519 -3.1648
  451ccc     O511917   6.757   7.245   5.522 -0.5920  0.2203  0.3034
  451ccc    H1111918   6.670   7.250   5.564 -0.7648  3.0832 -0.1551
  451ccc     O611919   6.897   7.283   5.241 -0.3679 -0.0055  0.0946
  452ccc     C111920   6.377   5.789   5.497 -0.0405  0.0886 -0.1097
  452ccc     C211921   6.338   5.663   5.415  0.2626 -0.7966  0.3631
  452ccc     H111922   6.293   5.859   5.493  0.9894  1.4207  0.5934
  452ccc     H211923   6.246   5.613   5.449 -0.1896 -0.4452 -0.3033
  452ccc     C311924   6.295   5.708   5.272  0.6156  0.1909 -0.1055
  452ccc     C411925   6.404   5.792   5.201  0.3458 -0.1181  0.3581
  452ccc     C511926   6.462   5.903   5.291  0.7117 -0.9954 -0.2536
  452ccc     H311927   6.484   5.722   5.175  2.4278  2.4682 -0.6682
  452ccc     H411928   6.202   5.763   5.289  1.0496  1.9838 -2.9193
  452ccc     H511929   6.390   5.986   5.293  1.9823  0.1621 -0.9421
  452ccc     O111930   6.588   5.957   5.234  0.2610  0.3582  0.1010
  452ccc     O211931   6.335   5.853   5.087  0.3941 -0.0524  0.2512
  452ccc     O311932   6.268   5.588   5.197 -0.1424 -0.5309  0.1995
  452ccc     O411933   6.455   5.583   5.417 -0.2013 -0.4256 -0.2241
  452ccc     C611934   6.417   5.755   5.646  0.2012 -0.9116 -0.2287
  452ccc     H611935   6.352   5.541   5.209  0.6494  0.7891  0.0786
  452ccc     H711936   6.499   5.609   5.499 -0.8766 -1.5475  0.5206
  452ccc     H811937   6.374   5.805   5.012 -2.4351 -1.8846 -0.1761
  452ccc     H911938   6.340   5.686   5.682  0.0790 -1.0255 -0.7079
  452ccc    H1011939   6.420   5.844   5.711 -3.1142 -0.8680  0.0362
  452ccc     O511940   6.545   5.683   5.634  0.3009  0.1667 -0.3296
  452ccc    H1111941   6.588   5.687   5.721  1.6299 -1.3044 -0.8726
  452ccc     O611942   6.482   5.867   5.434 -0.2744  0.1920 -0.3064
  453ccc     C111943   7.566   5.576   5.359  0.2388  0.2705  0.4954
  453ccc     C211944   7.558   5.469   5.247  0.5377 -0.0676 -0.8825
  453ccc     H111945   7.558   5.517   5.451  2.0041 -1.1261 -0.1939
  453ccc     H211946   7.634   5.390   5.255  0.1001 -0.6551 -2.1320
  453ccc     C311947   7.418   5.396   5.245 -0.0391 -0.5191 -0.0282
  453ccc     C411948   7.295   5.492   5.245 -0.1884  0.4110  0.5517
  453ccc     C511949   7.313   5.604   5.349 -0.1485 -0.2113  0.1891
  453ccc     H311950   7.284   5.543   5.148 -1.1386 -1.0695 -0.1676
  453ccc     H411951   7.414   5.341   5.339  0.3678 -0.3723  0.0776
  453ccc     H511952   7.303   5.563   5.450  1.2289  0.3666  0.5818
  453ccc     O111953   7.213   5.705   5.325  0.5054  0.2353  0.0055
  453ccc     O211954   7.167   5.423   5.266 -0.2314 -0.0294  0.0268
  453ccc     O311955   7.420   5.323   5.120 -0.1732 -0.4172 -0.2429
  453ccc     O411956   7.576   5.536   5.123  0.4503  0.6271 -0.0094
  453ccc     C611957   7.696   5.657   5.359  0.4218 -0.5162 -0.7392
  453ccc     H611958   7.334   5.298   5.082 -0.3011  0.3483 -0.4668
  453ccc     H711959   7.531   5.490   5.050  2.3004 -0.3395 -0.6147
  453ccc     H811960   7.163   5.404   5.362 -0.7224 -0.6332 -0.1015
  453ccc     H911961   7.786   5.596   5.361 -0.3124 -1.6519  2.2518
  453ccc    H1011962   7.691   5.703   5.458 -0.4385 -1.5921 -0.2671
  453ccc     O511963   7.692   5.754   5.257  0.1197  0.1997  0.2443
  453ccc    H1111964   7.651   5.693   5.193  0.3060 -0.8622  1.1136
  453ccc     O611965   7.454   5.660   5.341 -0.1009 -0.2051  0.0319
  454ccc     C111966   7.729   7.405   1.420 -0.2674 -0.3831 -0.0275
  454ccc     C211967   7.792   7.349   1.295 -0.9682  0.2331 -0.7126
  454ccc     H111968   7.797   7.488   1.443 -2.1880  1.7035 -1.5706
  454ccc     H211969   7.789   7.426   1.217  1.6070  2.2355  0.9979
  454ccc     C311970   7.939   7.304   1.330 -0.4307  0.0617  0.0556
  454ccc     C411971   7.938   7.187   1.434  0.3163 -0.3004 -0.8099
  454ccc     C511972   7.840   7.230   1.560  0.1819  0.1790  0.2050
  454ccc     H311973   7.890   7.100   1.389  0.5589 -1.5595  1.2572
  454ccc     H411974   7.997   7.388   1.370 -0.2930  0.1095 -0.2413
  454ccc     H511975   7.899   7.295   1.627  1.0506 -2.1047  1.7743
  454ccc     O111976   7.797   7.107   1.624 -0.1819  0.0389 -0.3522
  454ccc     O211977   8.075   7.153   1.483 -0.1452  0.0618  0.1054
  454ccc     O311978   8.017   7.262   1.208 -0.2656 -0.5663 -0.4873
  454ccc     O411979   7.720   7.233   1.252  0.3231 -0.5248  0.3078
  454ccc     C611980   7.587   7.465   1.407  0.1349  0.1865 -0.2713
  454ccc     H611981   7.972   7.178   1.187  0.0641 -0.6009 -1.0694
  454ccc     H711982   7.634   7.256   1.290  1.5069 -0.4515  3.1702
  454ccc     H811983   8.061   7.078   1.544 -0.8292  0.5337  0.5348
  454ccc     H911984   7.594   7.563   1.358 -1.1222 -0.5335 -1.9945
  454ccc    H1011985   7.547   7.480   1.508  0.9995  1.8704 -0.1546
  454ccc     O511986   7.502   7.378   1.339 -0.2322 -0.2042 -0.0315
  454ccc    H1111987   7.417   7.414   1.369 -0.1069 -1.4702  2.0350
  454ccc     O611988   7.722   7.301   1.523  0.2386 -0.0631  0.0259
  455ccc     C111989   7.309   7.327   1.014 -0.1099 -0.0250  0.3988
  455ccc     C211990   7.154   7.334   1.023 -0.2515  0.2791 -0.2500
  455ccc     H111991   7.338   7.305   0.910 -0.1692  0.1104  0.3537
  455ccc     H211992   7.115   7.412   0.958 -0.9261  0.1456 -0.0097
  455ccc     C311993   7.104   7.200   0.973  0.3341  0.3137 -0.1620
  455ccc     C411994   7.170   7.070   1.037 -0.7475  0.3459 -0.8111
  455ccc     C511995   7.323   7.084   1.056  0.2444 -0.0427 -0.4092
  455ccc     H311996   7.132   7.052   1.138  0.2451  0.2402 -0.4448
  455ccc     H411997   7.127   7.192   0.866  1.6278 -0.9443  0.1838
  455ccc     H511998   7.376   7.067   0.961 -0.3514 -0.7290 -0.6277
  455ccc     O111999   7.361   6.982   1.152  0.1623  0.3702 -0.0342
  455ccc     O212000   7.129   6.960   0.959  0.1084  0.5956  0.2803
  455ccc     O312001   6.962   7.189   0.993 -0.0296 -0.1484  0.4668
  455ccc     O412002   7.116   7.347   1.161  0.3418 -0.1943  0.2141
  455ccc     C612003   7.370   7.457   1.059  0.5666  0.2801  0.1816
  455ccc     H612004   6.936   7.099   0.967 -3.4956  0.4169  1.5081
  455ccc     H712005   7.022   7.322   1.153  0.6509 -0.8664 -1.8677
  455ccc     H812006   7.145   6.881   1.013 -1.1767 -0.0266 -0.2007
  455ccc     H912007   7.343   7.483   1.162 -2.2091  0.3220 -0.4607
  455ccc    H1012008   7.338   7.541   0.996  1.7846  0.1731 -0.6051
  455ccc     O512009   7.504   7.417   1.043 -0.0060  0.2950  0.1674
  455ccc    H1112010   7.496   7.357   1.120 -1.9444 -0.8476 -0.8274
  455ccc     O612011   7.357   7.217   1.102  0.0214 -0.1500  0.4131
  456ccc     C112012   8.479   6.199   1.683 -0.3338 -0.3394  0.3818
  456ccc     C212013   8.452   6.093   1.570 -0.2802 -0.4623 -0.4924
  456ccc     H112014   8.567   6.156   1.732 -1.5442 -0.2669  2.7740
  456ccc     H212015   8.544   6.075   1.512 -1.1317 -1.9661 -1.4451
  456ccc     C312016   8.406   5.959   1.626  0.0580  0.1987 -0.3050
  456ccc     C412017   8.296   5.963   1.742 -0.0290  0.6452  0.7165
  456ccc     C512018   8.340   6.074   1.848 -0.3773  0.3348 -0.1921
  456ccc     H312019   8.199   5.992   1.699  0.0292  0.2194  0.2842
  456ccc     H412020   8.498   5.927   1.676  0.3662 -2.4029 -2.3319
  456ccc     H512021   8.430   6.037   1.900 -0.4922 -2.1234 -1.6358
  456ccc     O112022   8.237   6.094   1.956  0.3808 -0.1889 -0.4564
  456ccc     O212023   8.285   5.830   1.799 -0.0837 -0.6657 -0.2160
  456ccc     O312024   8.381   5.864   1.521 -0.4756 -0.0535  0.4890
  456ccc     O412025   8.352   6.147   1.483 -0.1803 -0.4382  0.6339
  456ccc     C612026   8.505   6.343   1.651  0.0137 -0.0989 -0.4161
  456ccc     H612027   8.426   5.783   1.552  0.4434 -1.0768 -3.0782
  456ccc     H712028   8.374   6.098   1.402 -3.4102  1.7775 -1.8388
  456ccc     H812029   8.235   5.783   1.730  0.8297  1.2655 -2.3198
  456ccc     H912030   8.584   6.345   1.575  2.1467  1.4754  1.7117
  456ccc    H1012031   8.536   6.398   1.741 -2.8221  0.3664  0.3752
  456ccc     O512032   8.389   6.387   1.589  0.4269 -0.6685 -0.4041
  456ccc    H1112033   8.355   6.307   1.545 -1.7490 -0.1044  0.1288
  456ccc     O612034   8.366   6.194   1.773 -0.3006  0.3616  0.2965
  457ccc     C112035   8.086   5.805   2.858 -0.6828  0.1997  0.0623
  457ccc     C212036   8.217   5.744   2.908 -0.2613  0.8147 -0.2004
  457ccc     H112037   8.053   5.731   2.783  0.3603  0.5109 -0.7287
  457ccc     H212038   8.184   5.651   2.956  1.7956  0.6633  0.9922
  457ccc     C312039   8.312   5.713   2.784  0.3966 -0.2243 -1.2389
  457ccc     C412040   8.330   5.839   2.697 -0.3865 -0.8668 -0.8276
  457ccc     C512041   8.196   5.915   2.668  0.1344  0.3337  0.0227
  457ccc     H312042   8.385   5.921   2.745 -0.7683  0.0142 -1.8512
  457ccc     H412043   8.255   5.635   2.733 -0.0723 -2.5186  2.3761
  457ccc     H512044   8.140   5.843   2.608  0.0069 -0.6892  1.3127
  457ccc     O112045   8.221   6.042   2.598 -0.2342  0.2165  0.0047
  457ccc     O212046   8.398   5.802   2.582 -0.1881 -0.3716  0.4754
  457ccc     O312047   8.445   5.658   2.825  0.2403  0.0006 -0.1094
  457ccc     O412048   8.269   5.841   2.997 -0.4088 -0.0728  0.0084
  457ccc     C612049   7.971   5.833   2.959 -0.0574  0.2731  0.2568
  457ccc     H612050   8.483   5.737   2.867 -0.2343  0.5397 -0.6704
  457ccc     H712051   8.191   5.884   3.037  1.6554  0.0332  4.5019
  457ccc     H812052   8.480   5.854   2.590 -0.0166 -0.5338 -0.1776
  457ccc     H912053   7.920   5.738   2.977 -0.5571  0.5613  0.3541
  457ccc    H1012054   7.907   5.903   2.904 -0.2696 -0.0844  0.0509
  457ccc     O512055   8.027   5.892   3.078  0.1548 -0.5924  0.0280
  457ccc    H1112056   8.007   5.986   3.067  1.2403 -0.4557 -1.0166
  457ccc     O612057   8.120   5.932   2.789  0.5697 -0.0306  0.0794
  458ccc     C112058   6.585   7.955   3.288  0.1528  0.1690  0.4715
  458ccc     C212059   6.469   7.988   3.196  0.3789  0.0173 -0.1730
  458ccc     H112060   6.659   8.037   3.285  0.4733 -0.1347  0.0250
  458ccc     H212061   6.434   8.090   3.220 -1.5430 -0.5236 -0.5311
  458ccc     C312062   6.510   7.993   3.042 -0.6159 -0.4484 -0.2502
  458ccc     C412063   6.588   7.865   3.002 -0.2267 -0.3302  0.4674
  458ccc     C512064   6.708   7.851   3.098  0.4219 -0.1011  0.3659
  458ccc     H312065   6.528   7.775   3.018 -1.4106 -0.2267 -2.6514
  458ccc     H412066   6.584   8.073   3.036  0.2810 -1.2105  0.4311
  458ccc     H512067   6.777   7.937   3.099 -0.2069  0.7172  5.7954
  458ccc     O112068   6.763   7.724   3.058 -0.4114 -0.1796  0.2816
  458ccc     O212069   6.632   7.870   2.866 -0.0847  0.0811  0.4514
  458ccc     O312070   6.391   8.015   2.957 -0.3243 -0.1510  0.6810
  458ccc     O412071   6.371   7.886   3.216 -0.0771  0.4417  0.1086
  458ccc     C612072   6.566   7.920   3.434 -0.2063 -0.8755 -0.1915
  458ccc     H612073   6.421   8.025   2.865  1.0583 -0.4617  1.0746
  458ccc     H712074   6.304   7.900   3.147 -0.0838 -2.8243 -0.7086
  458ccc     H812075   6.556   7.834   2.816 -0.6348  1.1873  0.4491
  458ccc     H912076   6.545   8.011   3.492 -0.2381  0.9679 -2.9057
  458ccc    H1012077   6.653   7.872   3.481  0.0007 -0.0955  0.2468
  458ccc     O512078   6.455   7.829   3.441 -0.0749  0.5626 -0.3274
  458ccc    H1112079   6.413   7.853   3.356 -0.0541 -0.3881 -0.6158
  458ccc     O612080   6.666   7.843   3.239 -0.2559  0.0668  0.0188
  459ccc     C112081   6.128   7.499   2.714  1.3828 -0.0094  0.2751
  459ccc     C212082   6.055   7.493   2.852 -0.3538  1.0153 -0.0203
  459ccc     H112083   6.091   7.410   2.661 -0.3917  0.6269  0.3983
  459ccc     H212084   5.949   7.474   2.832  0.0694 -1.5981 -0.2292
  459ccc     C312085   6.105   7.377   2.942  0.2513  0.0459  1.3896
  459ccc     C412086   6.269   7.382   2.948  0.7421  0.6439 -0.3965
  459ccc     C512087   6.315   7.376   2.798  0.2297  0.1060 -0.0207
  459ccc     H312088   6.312   7.472   2.993  2.0505 -0.3864  0.4663
  459ccc     H412089   6.074   7.282   2.898  0.7654 -0.4087  1.9808
  459ccc     H512090   6.295   7.276   2.758  2.9087 -0.0259 -1.3126
  459ccc     O112091   6.462   7.382   2.809 -0.5142  0.2755  0.0989
  459ccc     O212092   6.314   7.267   3.022 -0.0605  0.0980  0.4014
  459ccc     O312093   6.035   7.387   3.064  0.3408 -0.0883 -0.3316
  459ccc     O412094   6.091   7.608   2.923  0.0267  0.4921 -0.3094
  459ccc     C612095   6.103   7.624   2.626  0.1169  0.3276  0.0659
  459ccc     H612096   6.052   7.306   3.115  0.1604  0.5863  0.8496
  459ccc     H712097   6.085   7.592   3.018  0.7308  2.0289  0.0316
  459ccc     H812098   6.405   7.293   3.045 -0.7970  2.5115  0.8748
  459ccc     H912099   5.995   7.619   2.609 -0.2783  1.5717  1.8834
  459ccc    H1012100   6.148   7.613   2.526  1.6037  2.2818  0.4473
  459ccc     O512101   6.134   7.743   2.693 -0.0800 -0.7893 -0.0849
  459ccc    H1112102   6.134   7.703   2.781 -1.6209 -0.7541 -0.0372
  459ccc     O612103   6.266   7.485   2.717 -0.3163 -1.0174 -1.0134
  460ccc     C112104   6.681   8.627   2.043  0.5745  0.4621 -0.0519
  460ccc     C212105   6.552   8.673   1.968  0.0408  0.8731 -0.3733
  460ccc     H112106   6.723   8.717   2.088  1.8441 -0.1285 -0.0051
  460ccc     H212107   6.480   8.720   2.036  1.7160 -0.9809  2.9353
  460ccc     C312108   6.583   8.772   1.857 -0.0737 -0.3733  0.5876
  460ccc     C412109   6.697   8.723   1.763  0.6015 -0.4349  0.2003
  460ccc     C512110   6.818   8.667   1.840 -0.0751  0.3722 -1.1130
  460ccc     H312111   6.660   8.636   1.708  1.4731 -0.6304 -0.0988
  460ccc     H412112   6.626   8.863   1.901 -2.7166  2.6340 -2.5100
  460ccc     H512113   6.874   8.749   1.886 -0.0229  0.2890 -1.0276
  460ccc     O112114   6.904   8.589   1.757  0.2538 -0.1527  0.5397
  460ccc     O212115   6.740   8.834   1.677 -0.2443  0.0265  0.0532
  460ccc     O312116   6.472   8.815   1.783  0.6059  0.1518  0.2771
  460ccc     O412117   6.490   8.554   1.920  0.0304 -0.2230 -0.2201
  460ccc     C612118   6.664   8.521   2.162  0.6738 -0.6122 -0.2314
  460ccc     H612119   6.499   8.905   1.756  1.3355  0.8438  3.0102
  460ccc     H712120   6.549   8.517   1.852  1.2219  1.1874 -0.0123
  460ccc     H812121   6.783   8.901   1.733  0.5124 -0.2241 -0.2178
  460ccc     H912122   6.628   8.423   2.129 -2.2450 -0.5588  2.3485
  460ccc    H1012123   6.580   8.549   2.227  0.2941 -1.6928 -0.2360
  460ccc     O512124   6.777   8.510   2.249  0.3011  0.7996  0.0022
  460ccc    H1112125   6.760   8.428   2.299  0.6733  0.5085 -0.3382
  460ccc     O612126   6.771   8.578   1.939 -0.0429  0.3592 -0.0359
  461ccc     C112127   7.518   8.593   1.005 -0.0170 -0.0193 -0.6148
  461ccc     C212128   7.634   8.691   1.045  0.5275 -0.4819 -0.4664
  461ccc     H112129   7.437   8.650   0.958  1.1801  2.3424  0.0491
  461ccc     H212130   7.676   8.724   0.949  1.6156 -2.3277 -0.6644
  461ccc     C312131   7.578   8.808   1.126  0.4382 -0.7740 -0.1663
  461ccc     C412132   7.506   8.753   1.254 -0.3226 -0.0278 -0.0863
  461ccc     C512133   7.415   8.635   1.231  0.4018 -0.3959  0.3626
  461ccc     H312134   7.584   8.721   1.325 -0.2669  2.1066  0.8896
  461ccc     H412135   7.491   8.846   1.072  0.6873 -0.8108 -0.6011
  461ccc     H512136   7.316   8.674   1.204  1.5891  1.8396 -1.0246
  461ccc     O112137   7.396   8.557   1.354 -0.2932 -0.6978 -0.0012
  461ccc     O212138   7.428   8.861   1.319  0.1872 -0.1299  0.3242
  461ccc     O312139   7.680   8.907   1.163 -0.2095 -0.0417  0.2288
  461ccc     O412140   7.735   8.622   1.119  0.0823  0.2676 -0.3119
  461ccc     C612141   7.548   8.476   0.912 -0.4497 -0.1806 -0.5898
  461ccc     H612142   7.672   8.988   1.109 -2.1802  1.2705  2.3105
  461ccc     H712143   7.790   8.690   1.163  2.3960 -0.9024 -1.2341
  461ccc     H812144   7.495   8.917   1.362  1.7762 -0.9603 -0.9410
  461ccc     H912145   7.473   8.397   0.923  0.6287 -1.2574 -0.7135
  461ccc    H1012146   7.639   8.424   0.944 -0.9018  0.5682  2.1833
  461ccc     O512147   7.556   8.526   0.778  0.7607 -0.5096 -0.2378
  461ccc    H1112148   7.569   8.450   0.719 -1.5251 -0.1456 -1.3030
  461ccc     O612149   7.455   8.541   1.127 -0.2560 -0.8384  0.0546
  462ccc     C112150   7.986   3.983   2.579 -0.1860 -0.2814  0.8872
  462ccc     C212151   7.925   4.069   2.466  0.1377  0.2482  0.3511
  462ccc     H112152   7.975   3.876   2.556  1.0514 -0.1085 -0.6851
  462ccc     H212153   7.974   4.026   2.379  0.6676  0.9861  0.2785
  462ccc     C312154   7.772   4.040   2.451  0.6836 -0.4424 -0.0284
  462ccc     C412155   7.692   4.069   2.589 -0.0475 -0.4763 -0.2871
  462ccc     C512156   7.778   3.998   2.704  0.1523  0.2205 -0.0346
  462ccc     H312157   7.686   4.176   2.614 -0.4661 -0.2569 -1.2799
  462ccc     H412158   7.762   3.934   2.424 -1.3583 -1.0802  2.8209
  462ccc     H512159   7.775   3.889   2.702 -1.4688  0.2489 -1.0442
  462ccc     O112160   7.721   4.030   2.836 -0.2735  0.0686 -0.8542
  462ccc     O212161   7.565   3.999   2.581  0.4059  0.3475  0.2648
  462ccc     O312162   7.709   4.128   2.357  0.4336  0.4365  0.6720
  462ccc     O412163   7.961   4.209   2.472 -0.4893  0.5391 -0.3498
  462ccc     C612164   8.136   4.009   2.591 -0.1931  0.2581  0.0682
  462ccc     H612165   7.767   4.136   2.280 -0.0339  2.1788  0.4543
  462ccc     H712166   8.043   4.223   2.421 -0.0859  0.1784  0.1883
  462ccc     H812167   7.537   4.033   2.494  2.1401  3.7066  0.8549
  462ccc     H912168   8.156   4.110   2.629  0.5450 -0.0425  0.5093
  462ccc    H1012169   8.173   3.996   2.489 -0.4205  0.8647 -0.1009
  462ccc     O512170   8.200   3.918   2.678  0.4738  0.1904  0.1557
  462ccc    H1112171   8.258   3.980   2.726  0.2334 -1.0358  2.1716
  462ccc     O612172   7.915   4.031   2.694 -0.1347  0.1561  0.0205
  463ccc     C112173   7.854   4.366   2.831 -0.6129 -0.6772  0.1268
  463ccc     C212174   7.883   4.495   2.755  0.1723  0.3958 -0.1358
  463ccc     H112175   7.815   4.288   2.765  0.5252 -0.6177 -0.6552
  463ccc     H212176   7.952   4.471   2.673 -0.8803  0.7041 -1.1273
  463ccc     C312177   7.757   4.567   2.699  0.1066 -0.5904 -0.5520
  463ccc     C412178   7.648   4.584   2.810 -0.2825 -0.1248  0.0861
  463ccc     C512179   7.631   4.465   2.911 -0.8129  0.4532 -0.0339
  463ccc     H312180   7.689   4.668   2.865  1.7528  0.2619 -1.8723
  463ccc     H412181   7.715   4.494   2.628  0.1566 -1.1948  0.0293
  463ccc     H512182   7.547   4.405   2.876 -2.4044  0.9989  2.5859
  463ccc     O112183   7.588   4.517   3.040 -0.1907  0.2079 -0.0566
  463ccc     O212184   7.524   4.623   2.754  0.0104  0.6236  0.1809
  463ccc     O312185   7.791   4.693   2.635 -0.2367  0.7648  0.5884
  463ccc     O412186   7.946   4.585   2.846  0.5041 -0.4272 -0.1241
  463ccc     C612187   7.967   4.298   2.901 -0.1509  0.5233 -0.3651
  463ccc     H612188   7.713   4.741   2.604  1.4445  1.3259 -3.3720
  463ccc     H712189   7.995   4.519   2.898 -0.0336 -1.4299 -0.8458
  463ccc     H812190   7.480   4.674   2.825  2.1823  1.6478  0.8835
  463ccc     H912191   8.011   4.235   2.823 -1.5441 -0.5572 -0.3300
  463ccc    H1012192   7.913   4.234   2.973 -0.4542  2.1926  0.9484
  463ccc     O512193   8.054   4.386   2.969 -0.4469 -1.3986 -0.1674
  463ccc    H1112194   8.092   4.331   3.039 -1.1477 -0.0463  1.3358
  463ccc     O612195   7.758   4.399   2.936  0.2051  0.3252 -0.3493
  464ccc     C112196   6.649   2.966   4.114  0.1445 -0.3769  0.1680
  464ccc     C212197   6.716   2.965   4.253 -0.2690 -0.4875  0.3341
  464ccc     H112198   6.728   2.982   4.041  0.3472  1.4709  0.7357
  464ccc     H212199   6.814   2.918   4.261  1.2088  2.3546  0.0987
  464ccc     C312200   6.749   3.110   4.300 -0.0476 -0.3530  0.0526
  464ccc     C412201   6.633   3.210   4.287  0.3611  0.3206 -0.2370
  464ccc     C512202   6.588   3.204   4.141  0.5526  0.3149  0.2862
  464ccc     H312203   6.552   3.170   4.349  1.8536 -2.2311  0.2342
  464ccc     H412204   6.821   3.149   4.227 -1.9323 -0.4769 -1.9978
  464ccc     H512205   6.678   3.243   4.091 -0.0988  0.3088 -0.9469
  464ccc     O112206   6.481   3.291   4.105  0.1058  0.3124 -0.3260
  464ccc     O212207   6.684   3.342   4.316 -0.1124 -0.0435  0.0187
  464ccc     O312208   6.808   3.110   4.432 -0.1026 -0.2188  0.3056
  464ccc     O412209   6.619   2.903   4.342 -0.2136 -0.4099 -0.7266
  464ccc     C612210   6.593   2.833   4.069 -0.1949 -0.2293 -0.5992
  464ccc     H612211   6.893   3.158   4.428  0.6898 -1.5767  0.2585
  464ccc     H712212   6.679   2.898   4.418 -0.6894  0.6615 -0.2504
  464ccc     H812213   6.663   3.349   4.410 -0.3058 -0.4832  0.0110
  464ccc     H912214   6.683   2.771   4.057  0.8277  1.2431 -0.7391
  464ccc    H1012215   6.546   2.836   3.970  0.9127 -0.1156 -1.1413
  464ccc     O512216   6.505   2.786   4.165  0.4590  0.1728  0.2282
  464ccc    H1112217   6.543   2.823   4.247  1.7150 -0.1895 -0.1868
  464ccc     O612218   6.558   3.072   4.098  0.5391 -0.9119 -0.4431
  465ccc     C112219   6.258   3.066   3.154  0.5398 -0.2836  0.3471
  465ccc     C212220   6.379   2.996   3.092 -0.0025 -0.3884  0.0437
  465ccc     H112221   6.210   3.142   3.092 -0.3245  0.0141  1.3504
  465ccc     H212222   6.345   2.946   3.001 -1.1849  2.1194 -0.9649
  465ccc     C312223   6.483   3.095   3.049  0.5672  0.2950 -0.2822
  465ccc     C412224   6.520   3.181   3.171  0.1968  0.0816  0.0118
  465ccc     C512225   6.393   3.249   3.233 -1.0353 -0.0502  0.3245
  465ccc     H312226   6.559   3.122   3.255  0.8495  2.5428  1.5250
  465ccc     H412227   6.438   3.159   2.973  0.3745  0.5939  0.0808
  465ccc     H512228   6.353   3.315   3.155  0.6856  0.0572 -0.5065
  465ccc     O112229   6.445   3.313   3.356  0.3766 -0.7604 -0.3385
  465ccc     O212230   6.611   3.278   3.119  0.0459 -0.5572  0.2348
  465ccc     O312231   6.596   3.028   2.987  0.5872 -0.3683 -0.0878
  465ccc     O412232   6.422   2.899   3.183  0.2045 -0.1732  0.1662
  465ccc     C612233   6.145   2.977   3.203 -0.0681 -0.6713 -0.2593
  465ccc     H612234   6.572   2.974   2.909  1.9165  0.1286 -0.8659
  465ccc     H712235   6.344   2.876   3.237 -0.5651  1.7546 -0.0411
  465ccc     H812236   6.692   3.224   3.112  0.6895  0.2281  1.4136
  465ccc     H912237   6.108   2.921   3.117  1.8624 -2.2911 -0.1049
  465ccc    H1012238   6.054   3.032   3.231 -0.6967 -1.3307 -0.9627
  465ccc     O512239   6.191   2.883   3.306 -0.2503  0.5838 -0.0322
  465ccc    H1112240   6.111   2.829   3.316 -0.6273  1.1336 -0.0406
  465ccc     O612241   6.293   3.143   3.270 -0.0963  0.8343  0.3948
  466ccc     C112242   8.394   5.639   3.646 -0.1100 -0.3328  0.6424
  466ccc     C212243   8.434   5.784   3.671 -0.2358  0.0317  0.4295
  466ccc     H112244   8.321   5.640   3.564  0.3101  0.2710  0.2641
  466ccc     H212245   8.462   5.835   3.578  2.6480  0.2995  1.3586
  466ccc     C312246   8.323   5.869   3.748 -0.0572  0.3854  0.5625
  466ccc     C412247   8.247   5.796   3.863  0.0465  0.0679 -0.2663
  466ccc     C512248   8.210   5.656   3.809  0.1047 -0.4344  0.5098
  466ccc     H312249   8.326   5.782   3.938 -0.5411  0.7492  0.4962
  466ccc     H412250   8.249   5.907   3.677  0.5451  1.1004  0.3077
  466ccc     H512251   8.133   5.666   3.732  2.0562  2.3904 -1.2362
  466ccc     O112252   8.148   5.574   3.910  0.4944 -0.1360  0.2578
  466ccc     O212253   8.133   5.872   3.909  0.2186 -0.0816 -0.4477
  466ccc     O312254   8.382   5.990   3.799 -0.2761  0.1418  0.2625
  466ccc     O412255   8.544   5.793   3.760  0.7346  0.6850 -0.1840
  466ccc     C612256   8.521   5.561   3.605  0.1180  0.4057 -0.1320
  466ccc     H612257   8.311   6.049   3.827  2.1904  2.3256  2.5273
  466ccc     H712258   8.520   5.881   3.794 -1.6691  0.0886 -0.1581
  466ccc     H812259   8.130   5.842   4.001 -1.6574 -2.0200 -1.0517
  466ccc     H912260   8.587   5.556   3.692 -0.4458 -1.7974  0.2189
  466ccc    H1012261   8.566   5.605   3.515 -0.2187 -2.5898 -1.8884
  466ccc     O512262   8.474   5.420   3.581 -0.2398 -0.0999  0.6207
  466ccc    H1112263   8.396   5.410   3.640 -1.0496 -2.2331 -0.6972
  466ccc     O612264   8.333   5.591   3.766  0.4709  0.0731 -0.0436
  467ccc     C112265   8.900   5.422   4.575 -0.3227  0.5492 -0.4866
  467ccc     C212266   9.037   5.389   4.512 -0.0359 -0.5783  0.4533
  467ccc     H112267   8.884   5.343   4.650 -0.3210  0.8254 -0.1915
  467ccc     H212268   9.102   5.371   4.599 -1.3084 -2.2700  1.1067
  467ccc     C312269   9.043   5.256   4.430  0.4453 -1.0262  0.5141
  467ccc     C412270   8.922   5.238   4.331 -0.0560 -0.0326  0.4454
  467ccc     C512271   8.792   5.277   4.401 -0.4109  0.0715 -0.2687
  467ccc     H312272   8.927   5.313   4.251  0.0064  0.5345  0.9743
  467ccc     H412273   9.027   5.179   4.507  1.4159 -1.1121  0.6336
  467ccc     H512274   8.764   5.195   4.468  3.5878 -1.5351 -0.2826
  467ccc     O112275   8.691   5.293   4.296 -0.3155 -0.2591  0.2618
  467ccc     O212276   8.920   5.102   4.280 -0.0278  0.0643 -0.0475
  467ccc     O312277   9.168   5.233   4.357  0.5461  0.3024 -0.0495
  467ccc     O412278   9.065   5.502   4.432  0.3084  0.0636  0.4363
  467ccc     C612279   8.891   5.564   4.644  0.4297 -0.1420  0.6983
  467ccc     H612280   9.179   5.309   4.298  0.6957  1.3586  1.2972
  467ccc     H712281   9.160   5.486   4.416 -0.3327 -3.6796 -0.4548
  467ccc     H812282   8.860   5.111   4.203 -1.1189 -0.4519  0.7118
  467ccc     H912283   8.889   5.643   4.568 -0.4519  0.3053  1.1687
  467ccc    H1012284   8.973   5.569   4.717 -1.7171 -0.6769  3.3352
  467ccc     O512285   8.763   5.563   4.708  0.0706 -0.4254  0.4120
  467ccc    H1112286   8.709   5.556   4.627  1.7802 -1.3292 -0.7028
  467ccc     O612287   8.798   5.406   4.471  0.2439  0.5159 -0.0105
  468ccc     C112288   8.700   4.470   4.572 -0.3131 -0.1528  0.0991
  468ccc     C212289   8.815   4.368   4.539 -0.1997  0.2297  0.1829
  468ccc     H112290   8.609   4.426   4.530  0.4287  0.2273 -2.0067
  468ccc     H212291   8.775   4.271   4.573 -0.3942  0.4840  0.6885
  468ccc     C312292   8.832   4.357   4.386 -0.0425 -0.0257 -0.3250
  468ccc     C412293   8.843   4.496   4.324 -0.1719 -0.3065  0.1427
  468ccc     C512294   8.719   4.588   4.358  0.6175 -0.8731 -0.6845
  468ccc     H312295   8.936   4.544   4.358  0.3107 -0.2577 -1.1547
  468ccc     H412296   8.754   4.299   4.335  0.1116 -1.4511  0.9583
  468ccc     H512297   8.633   4.534   4.316  2.1832 -2.0423 -2.5464
  468ccc     O112298   8.726   4.722   4.302  0.1763  0.0936  0.0685
  468ccc     O212299   8.860   4.477   4.181  0.9550 -0.0502  0.1159
  468ccc     O312300   8.947   4.280   4.341 -0.3114 -0.6029  0.3749
  468ccc     O412301   8.933   4.424   4.601  0.3575  0.4396 -0.9577
  468ccc     C612302   8.674   4.502   4.720  0.2990 -0.5738  0.0228
  468ccc     H612303   8.911   4.190   4.331 -1.6531 -0.2288  1.4662
  468ccc     H712304   9.007   4.361   4.599  2.1781  2.4435 -0.0945
  468ccc     H812305   8.921   4.402   4.174  0.5369 -0.4720  0.9127
  468ccc     H912306   8.633   4.409   4.761  1.0072 -1.1849 -0.6351
  468ccc    H1012307   8.601   4.583   4.730  0.2867 -0.4870 -0.7420
  468ccc     O512308   8.794   4.544   4.784  0.1817 -0.0611  0.0980
  468ccc    H1112309   8.862   4.508   4.725  0.4378 -0.8592  0.8659
  468ccc     O612310   8.718   4.595   4.496  0.2863  0.1288  0.2450
  469ccc     C112311   8.367   4.633   3.229 -0.4658 -0.6422  0.4468
  469ccc     C212312   8.380   4.767   3.158  0.6223 -0.2250 -0.1576
  469ccc     H112313   8.279   4.583   3.186 -2.4999  2.2232  0.9061
  469ccc     H212314   8.376   4.756   3.049 -1.9466  0.9198 -0.2413
  469ccc     C312315   8.263   4.869   3.196  0.5083  0.1175  0.1041
  469ccc     C412316   8.232   4.881   3.350 -0.6891  0.2875 -0.1281
  469ccc     C512317   8.210   4.738   3.399  0.2865  0.5233  0.3206
  469ccc     H312318   8.317   4.930   3.400  0.4928 -0.8377 -0.9771
  469ccc     H412319   8.177   4.813   3.158  1.4569 -0.4915 -1.2225
  469ccc     H512320   8.119   4.699   3.351  0.0437  0.6026  0.7092
  469ccc     O112321   8.199   4.736   3.547 -0.5997  0.4901  0.0317
  469ccc     O212322   8.126   4.978   3.377 -0.4789  0.3619 -0.2233
  469ccc     O312323   8.269   5.001   3.130  0.2812  0.0675  0.0691
  469ccc     O412324   8.505   4.821   3.206 -0.2020 -0.3440  0.6941
  469ccc     C612325   8.478   4.531   3.210  0.9474 -0.1144 -0.3791
  469ccc     H612326   8.316   5.049   3.200 -0.3403 -0.8790  1.1905
  469ccc     H712327   8.508   4.915   3.181 -0.0023 -0.2723  0.9825
  469ccc     H812328   8.051   4.940   3.328  1.0896 -1.1169 -1.6243
  469ccc     H912329   8.571   4.571   3.252  0.1510 -1.1800  2.6823
  469ccc    H1012330   8.494   4.523   3.102  1.7544  0.6561 -0.3378
  469ccc     O512331   8.429   4.414   3.273  0.0216 -0.0154  0.0225
  469ccc    H1112332   8.441   4.453   3.362  1.9680  3.0221 -1.4153
  469ccc     O612333   8.328   4.656   3.372 -0.2759 -0.1006 -0.2579
  470ccc     C112334   6.422   5.064   1.453  0.0089 -0.4366 -0.1494
  470ccc     C212335   6.543   5.027   1.361  0.0362 -0.4043 -0.2564
  470ccc     H112336   6.370   5.150   1.410 -0.5359 -0.3648  0.6440
  470ccc     H212337   6.507   5.005   1.260 -0.6986  0.4042 -0.1777
  470ccc     C312338   6.648   5.145   1.359 -0.0221 -0.1542 -0.1480
  470ccc     C412339   6.684   5.196   1.501  0.1635 -0.3422 -0.1361
  470ccc     C512340   6.555   5.212   1.585  1.0553 -0.3521 -0.2529
  470ccc     H312341   6.745   5.114   1.542 -0.1035 -2.9205 -4.2942
  470ccc     H412342   6.608   5.233   1.307  0.9528  0.0638 -0.5614
  470ccc     H512343   6.495   5.291   1.537 -0.7229 -1.2795  0.3439
  470ccc     O112344   6.591   5.254   1.716 -0.5892 -0.0990  0.1385
  470ccc     O212345   6.768   5.322   1.499  0.0878  0.1393 -0.6857
  470ccc     O312346   6.765   5.102   1.286 -0.1370 -0.5239  0.2788
  470ccc     O412347   6.596   4.905   1.408 -0.2131 -0.2819 -0.0873
  470ccc     C612348   6.300   4.966   1.458  0.2819  0.9630  0.0901
  470ccc     H612349   6.732   5.025   1.235 -0.0195 -1.3215  1.3876
  470ccc     H712350   6.516   4.866   1.447  0.7820 -1.9516  0.3951
  470ccc     H812351   6.778   5.352   1.591 -2.4962  1.5065 -0.7663
  470ccc     H912352   6.262   4.946   1.357  2.3516 -0.5923 -0.4513
  470ccc    H1012353   6.213   5.000   1.515 -1.3113 -0.4245 -1.4030
  470ccc     O512354   6.349   4.837   1.501  0.7947  0.3007 -0.1812
  470ccc    H1112355   6.319   4.836   1.594 -0.7426 -3.6029 -0.4975
  470ccc     O612356   6.461   5.096   1.583 -0.0783  0.0653  1.0420
  471ccc     C112357   6.148   5.759   1.797 -0.0132  0.5869  0.2246
  471ccc     C212358   5.955   5.766   1.837  0.1425 -0.6916  0.8316
  471ccc     H112359   6.174   5.686   1.720  0.6561 -0.6562  1.5780
  471ccc     H212360   5.903   5.691   1.776 -2.7474  2.6532 -1.1083
  471ccc     C312361   5.893   5.725   2.026  0.5608  0.6841 -0.1292
  471ccc     C412362   6.031   5.688   2.170  0.1790 -0.0252 -0.0470
  471ccc     C512363   6.224   5.689   2.121  0.2080 -1.2267  0.0665
  471ccc     H312364   6.020   5.767   2.245 -1.4504 -1.4740  1.3459
  471ccc     H412365   5.848   5.626   2.019  3.4752 -0.6447 -4.6126
  471ccc     H512366   6.261   5.593   2.158 -1.9510 -2.1010  0.1056
  471ccc     O112367   6.312   5.776   2.196  0.0152  0.0512 -0.6952
  471ccc     O212368   5.997   5.583   2.264  0.2265  0.0686  0.2432
  471ccc     O312369   5.783   5.810   2.066  0.0900 -0.3087  0.0546
  471ccc     O412370   5.890   5.883   1.786 -0.8998 -0.0832  0.3334
  471ccc     C612371   6.200   5.881   1.722 -0.0041  0.4944 -0.0577
  471ccc     H612372   5.838   5.890   2.073  1.2101 -0.5586 -3.7819
  471ccc     H712373   5.797   5.862   1.806 -0.6422 -2.3506 -0.5761
  471ccc     H812374   5.979   5.504   2.209  0.4953 -0.2534  0.6131
  471ccc     H912375   6.223   5.960   1.795  0.6272 -0.2088  0.5339
  471ccc    H1012376   6.133   5.913   1.642  0.9762  0.9188 -0.7151
  471ccc     O512377   6.327   5.834   1.665  0.1353 -0.3526 -0.0505
  471ccc    H1112378   6.340   5.912   1.608  0.3828  0.1507  0.6708
  471ccc     O612379   6.266   5.724   1.942 -0.3495  0.3504 -0.4826
  472ccc     C112380   8.055   5.456   1.963 -0.4599 -1.0334  0.0723
  472ccc     C212381   8.174   5.546   1.984 -0.4466 -0.1511  0.2907
  472ccc     H112382   8.006   5.499   1.875  0.1487  1.8485  1.0378
  472ccc     H212383   8.247   5.544   1.902  0.2602  0.4259  0.8938
  472ccc     C312384   8.133   5.688   2.017  0.1585  0.6772  0.3948
  472ccc     C412385   8.034   5.691   2.134  0.4387 -0.2316 -0.3600
  472ccc     C512386   7.909   5.595   2.105 -0.1800 -0.4006 -0.0872
  472ccc     H312387   8.079   5.664   2.230 -0.1076 -0.6199 -0.2139
  472ccc     H412388   8.068   5.717   1.934  0.0028 -0.4139  0.1243
  472ccc     H512389   7.858   5.627   2.014  2.2252 -1.0200 -1.7402
  472ccc     O112390   7.826   5.601   2.223  0.1906  0.0002 -0.2772
  472ccc     O212391   7.998   5.826   2.142  0.5664  0.3988 -0.1784
  472ccc     O312392   8.249   5.775   2.039 -0.0537  0.5907  0.3493
  472ccc     O412393   8.238   5.497   2.097 -0.4265  0.5079  0.1295
  472ccc     C612394   8.080   5.306   1.939  0.5563  0.0915 -0.0641
  472ccc     H612395   8.266   5.803   1.947  0.6216  1.9223  0.8569
  472ccc     H712396   8.226   5.401   2.083  2.7887 -0.0030  0.1311
  472ccc     H812397   8.076   5.864   2.185  1.4262 -2.4434  1.0478
  472ccc     H912398   8.137   5.287   1.848  0.9379  0.9936 -0.0238
  472ccc    H1012399   7.982   5.258   1.935 -0.3288  1.3954  2.9155
  472ccc     O512400   8.159   5.242   2.047 -0.1946 -0.4748  0.1479
  472ccc    H1112401   8.101   5.176   2.088 -1.2416  1.1988  1.4982
  472ccc     O612402   7.960   5.466   2.070  0.2260  0.5382 -0.1085
  473ccc     C112403   7.003   4.754   2.467  0.0618 -0.1498 -0.5164
  473ccc     C212404   7.009   4.782   2.616  0.4184 -0.3015  0.3149
  473ccc     H112405   7.053   4.657   2.452  0.4622  0.0027 -0.1973
  473ccc     H212406   6.959   4.703   2.673  0.6861 -0.2291  0.6519
  473ccc     C312407   7.154   4.798   2.672  0.2619  0.0851  0.3600
  473ccc     C412408   7.229   4.904   2.589  0.5854 -0.6462 -0.2515
  473ccc     C512409   7.216   4.877   2.434  0.3161 -0.3124 -0.5255
  473ccc     H312410   7.180   4.999   2.616 -1.6538 -1.8209  0.0208
  473ccc     H412411   7.204   4.700   2.668  2.3031  0.7819  4.2081
  473ccc     H512412   7.267   4.783   2.411  0.5923 -0.8739  2.1140
  473ccc     O112413   7.276   4.988   2.352 -0.5892 -0.0703 -0.1806
  473ccc     O212414   7.367   4.907   2.626 -0.1976  0.7779  0.0520
  473ccc     O312415   7.136   4.846   2.800  0.5775 -0.0208  0.2248
  473ccc     O412416   6.933   4.903   2.645 -0.2677 -0.4482 -0.1524
  473ccc     C612417   6.859   4.737   2.404 -0.0463  0.2747 -0.4901
  473ccc     H612418   7.043   4.874   2.802  0.5286 -0.0079 -1.4224
  473ccc     H712419   6.870   4.908   2.571 -0.8332 -0.8106  0.2978
  473ccc     H812420   7.374   4.895   2.722  0.5651 -2.8092 -0.2826
  473ccc     H912421   6.833   4.635   2.436 -1.1691  0.3573 -1.0660
  473ccc    H1012422   6.865   4.733   2.294 -2.1084 -0.5472 -0.6173
  473ccc     O512423   6.767   4.847   2.431 -0.1298  0.1016 -0.4087
  473ccc    H1112424   6.699   4.836   2.362 -0.4699  2.1725 -0.4551
  473ccc     O612425   7.083   4.857   2.390 -0.0767  0.2425 -0.4046
  474ccc     C112426   7.978   6.494   2.837  0.2590  0.0947  0.0432
  474ccc     C212427   8.107   6.463   2.917  0.7464 -0.2960  0.0794
  474ccc     H112428   7.907   6.542   2.906 -2.1393 -1.8171 -0.9407
  474ccc     H212429   8.143   6.557   2.961  1.0634 -0.7515  0.8190
  474ccc     C312430   8.073   6.362   3.026 -1.3444 -0.1388  0.3205
  474ccc     C412431   8.006   6.229   2.971  0.4303  0.6088  0.3639
  474ccc     C512432   7.884   6.272   2.886 -0.6971 -1.0096 -0.4218
  474ccc     H312433   8.075   6.169   2.910 -1.8932 -0.6522 -1.1511
  474ccc     H412434   8.004   6.403   3.101 -1.6004 -1.0898  0.6077
  474ccc     H512435   7.802   6.319   2.941  1.5309 -0.1655  2.3691
  474ccc     O112436   7.825   6.153   2.821  0.5726  0.2064 -0.4356
  474ccc     O212437   7.968   6.140   3.076 -0.0177  0.1381 -0.5504
  474ccc     O312438   8.198   6.327   3.087  0.2237 -0.3737  0.9934
  474ccc     O412439   8.203   6.412   2.828 -0.0737 -0.3170  0.5496
  474ccc     C612440   7.999   6.595   2.721 -0.4257  0.3486  0.3831
  474ccc     H612441   8.239   6.270   3.020 -0.0291  0.6531 -0.0684
  474ccc     H712442   8.283   6.446   2.872 -0.0405 -2.7753  2.5987
  474ccc     H812443   7.913   6.200   3.129  0.8505 -0.5198  1.1797
  474ccc     H912444   7.998   6.690   2.776 -0.3803 -0.2771  1.4889
  474ccc    H1012445   7.914   6.574   2.655  1.1991 -2.0489 -1.1108
  474ccc     O512446   8.121   6.567   2.643  0.1803 -0.0722  0.6080
  474ccc    H1112447   8.151   6.498   2.705 -0.4859 -0.4929  0.4741
  474ccc     O612448   7.930   6.371   2.787 -0.2100  0.5320 -0.0468
  475ccc     C112449   8.155   5.286   2.537  0.0631 -0.1797  0.0092
  475ccc     C212450   8.310   5.287   2.506 -0.2206  0.7071  0.1044
  475ccc     H112451   8.110   5.263   2.439 -1.8748  4.4908 -0.4551
  475ccc     H212452   8.343   5.192   2.462  1.1255  1.4253 -0.4758
  475ccc     C312453   8.356   5.393   2.405 -0.0172  0.0140  0.1733
  475ccc     C412454   8.298   5.528   2.453 -0.1689  0.6241  0.1544
  475ccc     C512455   8.144   5.516   2.476 -0.0069 -0.5723  0.3362
  475ccc     H312456   8.336   5.544   2.555 -3.8914 -0.0178  1.8029
  475ccc     H412457   8.317   5.363   2.307  0.7355  1.7249 -0.6799
  475ccc     H512458   8.089   5.496   2.383 -0.8071  0.4876  0.5612
  475ccc     O112459   8.088   5.642   2.515 -0.2552 -0.4060  0.0227
  475ccc     O212460   8.332   5.634   2.367  0.5071  0.5186  0.1548
  475ccc     O312461   8.498   5.397   2.385  0.0654 -0.4118 -0.5532
  475ccc     O412462   8.376   5.300   2.636 -0.2096 -0.2143  0.2263
  475ccc     C612463   8.109   5.176   2.640  0.3357 -0.4188 -0.7141
  475ccc     H612464   8.531   5.488   2.380  1.8167 -0.8474  1.5243
  475ccc     H712465   8.317   5.275   2.710 -0.2888  0.0113  0.2393
  475ccc     H812466   8.332   5.711   2.427  0.3752  1.2953 -0.8228
  475ccc     H912467   8.151   5.081   2.607  1.2755  0.2432 -1.4930
  475ccc    H1012468   8.000   5.166   2.629  0.0068  0.5163  1.1947
  475ccc     O512469   8.160   5.208   2.767 -0.3569  0.5511  0.2261
  475ccc    H1112470   8.104   5.170   2.836 -0.0924  1.3864  0.9270
  475ccc     O612471   8.119   5.421   2.578  0.3634 -0.8480 -0.1235
  476ccc     C112472   7.826   4.943   2.232  0.4886 -0.0403 -0.3555
  476ccc     C212473   7.707   4.849   2.186  0.2893 -0.6862 -0.4935
  476ccc     H112474   7.904   4.880   2.277  0.0943 -0.6058 -0.4415
  476ccc     H212475   7.749   4.763   2.132  0.5346 -0.5325 -0.5482
  476ccc     C312476   7.639   4.797   2.315 -0.2592  0.0072  0.0895
  476ccc     C412477   7.625   4.903   2.430  0.0869  0.4656  0.1518
  476ccc     C512478   7.756   4.991   2.454  0.1860 -0.0927 -0.8853
  476ccc     H312479   7.545   4.966   2.389  0.0050 -0.4295 -1.0999
  476ccc     H412480   7.705   4.719   2.354 -0.0472 -1.5844 -3.1689
  476ccc     H512481   7.831   4.920   2.489 -0.5619 -0.9042 -0.9026
  476ccc     O112482   7.725   5.092   2.555 -0.4132  0.0533 -0.0047
  476ccc     O212483   7.599   4.832   2.560  0.3266  0.6474  0.1063
  476ccc     O312484   7.514   4.734   2.288 -0.3514 -0.4249  0.0133
  476ccc     O412485   7.617   4.937   2.118 -0.3400 -0.6603  0.2075
  476ccc     C612486   7.886   5.012   2.112  0.5012  0.0627 -0.1735
  476ccc     H612487   7.489   4.679   2.364  0.1522 -2.2024 -1.0478
  476ccc     H712488   7.534   4.888   2.133 -0.4117 -0.4832  0.3979
  476ccc     H812489   7.510   4.868   2.578 -0.3808 -0.4510 -0.9876
  476ccc     H912490   7.827   5.103   2.094  2.0850  1.3040  0.6347
  476ccc    H1012491   7.874   4.945   2.026 -1.1141 -0.9889  0.8382
  476ccc     O512492   8.025   5.042   2.141 -0.2605 -0.6411  0.4854
  476ccc    H1112493   8.052   4.957   2.180 -2.0570 -1.1647  0.6889
  476ccc     O612494   7.798   5.047   2.327  0.0761 -0.7700  0.0204
  477ccc     C112495   8.412   5.528   3.256 -0.4254  0.4330 -0.7228
  477ccc     C212496   8.463   5.381   3.261 -0.7509  0.4438  0.6176
  477ccc     H112497   8.389   5.562   3.358 -0.3873 -0.1922 -0.5002
  477ccc     H212498   8.540   5.377   3.339  0.1414  0.3886 -0.2546
  477ccc     C312499   8.344   5.295   3.306 -0.8003 -0.2625  0.0995
  477ccc     C412500   8.213   5.313   3.218 -0.0856 -0.0753  0.1418
  477ccc     C512501   8.179   5.465   3.194  0.1829 -0.2277 -0.2506
  477ccc     H312502   8.232   5.265   3.121 -0.7242 -2.3219  1.0718
  477ccc     H412503   8.299   5.338   3.396 -2.6387 -0.2140 -0.7811
  477ccc     H512504   8.130   5.499   3.285  0.8599 -2.2341  0.9118
  477ccc     O112505   8.091   5.475   3.080 -0.0966 -0.1679  0.4282
  477ccc     O212506   8.120   5.242   3.297 -0.2220 -0.0315  0.4437
  477ccc     O312507   8.377   5.156   3.313 -0.4914 -0.4370  0.1454
  477ccc     O412508   8.514   5.343   3.132  0.3261 -0.1842 -0.0909
  477ccc     C612509   8.514   5.628   3.207  0.3825 -0.3538 -0.2516
  477ccc     H612510   8.415   5.141   3.401 -0.2382 -1.3976 -0.1180
  477ccc     H712511   8.458   5.391   3.069  0.9585 -0.7806 -1.1431
  477ccc     H812512   8.168   5.160   3.317  2.0409  1.1997  0.4872
  477ccc     H912513   8.534   5.599   3.103 -1.2576  1.6224 -1.1749
  477ccc    H1012514   8.608   5.625   3.264 -0.1777 -1.3307  0.6523
  477ccc     O512515   8.453   5.756   3.199 -0.0325  0.5967 -0.3197
  477ccc    H1112516   8.404   5.753   3.115 -1.8924 -0.6858  0.7320
  477ccc     O612517   8.296   5.539   3.170  0.2160 -0.6621  0.2068
  478ccc     C112518   4.551   5.319   5.109 -0.7492 -0.1585 -1.3892
  478ccc     C212519   4.451   5.215   5.059 -0.6497  0.0235  0.1288
  478ccc     H112520   4.568   5.397   5.034  0.7504  1.2607  0.3474
  478ccc     H212521   4.355   5.263   5.038  0.4462  1.2232 -2.7910
  478ccc     C312522   4.508   5.147   4.932  0.0947 -0.0801  0.2566
  478ccc     C412523   4.648   5.081   4.959 -0.3528 -0.0469 -0.2505
  478ccc     C512524   4.750   5.188   5.015  0.0685 -0.2257 -0.3178
  478ccc     H312525   4.645   4.998   5.030 -0.0106 -0.4186 -0.6658
  478ccc     H412526   4.517   5.221   4.851 -1.0716  0.5793  0.7072
  478ccc     H512527   4.777   5.259   4.936  1.2506 -0.8413 -0.4914
  478ccc     O112528   4.879   5.126   5.060 -0.2766 -0.2691  0.1373
  478ccc     O212529   4.694   5.031   4.832 -0.8328  0.7904 -0.0686
  478ccc     O312530   4.414   5.049   4.883  0.2827 -0.0280 -0.5591
  478ccc     O412531   4.445   5.118   5.166 -0.1402  0.3056  0.1749
  478ccc     C612532   4.513   5.391   5.243  0.1046 -0.7248  0.0944
  478ccc     H612533   4.460   4.967   4.859  2.1251 -0.1231  2.7723
  478ccc     H712534   4.476   5.170   5.243  2.3292 -1.4397  0.4638
  478ccc     H812535   4.637   4.953   4.816 -2.8489  2.3105 -0.7396
  478ccc     H912536   4.411   5.428   5.223  0.7809  2.0276  1.2277
  478ccc    H1012537   4.576   5.478   5.262  0.2542 -0.6351 -0.7899
  478ccc     O512538   4.517   5.295   5.350  0.3735  0.2763 -0.0291
  478ccc    H1112539   4.433   5.301   5.399 -1.1517  0.7261 -2.5507
  478ccc     O612540   4.690   5.265   5.130  0.3338 -0.5461  0.5558
  479ccc     C112541   4.380   5.169   5.684 -0.7362  0.4728  0.6649
  479ccc     C212542   4.393   5.155   5.837  0.1915  0.6625 -0.1321
  479ccc     H112543   4.299   5.105   5.648 -0.3167  1.4131 -2.2445
  479ccc     H212544   4.291   5.165   5.876 -0.2894 -1.1558 -0.7991
  479ccc     C312545   4.436   5.009   5.875 -0.5454 -0.2477  0.5155
  479ccc     C412546   4.566   4.969   5.788  0.2914 -0.4092 -0.1162
  479ccc     C512547   4.539   4.992   5.640 -0.2429 -0.3166  0.0865
  479ccc     H312548   4.655   5.032   5.802  0.4259 -0.6576  0.1637
  479ccc     H412549   4.353   4.947   5.839  0.6460 -1.4632 -0.1783
  479ccc     H512550   4.453   4.931   5.608  0.4929 -2.6130  2.2066
  479ccc     O112551   4.654   4.952   5.560  0.6557  0.3558 -0.3004
  479ccc     O212552   4.596   4.834   5.812 -0.2094 -0.0823  0.2140
  479ccc     O312553   4.442   4.990   6.016 -0.8080  0.3786 -0.5109
  479ccc     O412554   4.484   5.247   5.890 -0.1633 -0.1126  0.1352
  479ccc     C612555   4.335   5.300   5.635  0.3927 -0.0784 -0.0059
  479ccc     H612556   4.503   4.915   6.027 -0.6560  0.7487  1.4682
  479ccc     H712557   4.476   5.223   5.984  1.4664 -1.9808 -0.1314
  479ccc     H812558   4.688   4.818   5.785 -0.7069 -1.7832 -0.6216
  479ccc     H912559   4.412   5.372   5.665 -1.7177  1.7495  1.4242
  479ccc    H1012560   4.248   5.330   5.696 -1.5830  0.5850 -2.9629
  479ccc     O512561   4.308   5.296   5.496 -0.2487 -0.5097  0.4464
  479ccc    H1112562   4.211   5.305   5.492 -0.0895  1.6335  0.3188
  479ccc     O612563   4.506   5.134   5.615  0.0516  0.1935 -0.3909
  480ccc     C112564   6.034   4.424   6.458  0.1675 -0.6216  0.3843
  480ccc     C212565   6.135   4.506   6.536 -0.4212  0.3457  0.0589
  480ccc     H112566   5.966   4.380   6.532 -0.8528 -0.1790 -0.2537
  480ccc     H212567   6.090   4.575   6.608  1.1604  0.7190  0.7331
  480ccc     C312568   6.205   4.408   6.639  0.6838  0.1061  0.2258
  480ccc     C412569   6.263   4.278   6.568 -0.1943 -0.9255  0.4080
  480ccc     C512570   6.155   4.209   6.477  1.0679 -0.8498  0.7298
  480ccc     H312571   6.344   4.304   6.499 -0.4846 -1.5742 -0.1986
  480ccc     H412572   6.123   4.379   6.705 -1.3008  0.7747 -1.8370
  480ccc     H512573   6.071   4.170   6.535  1.0357 -0.1553  1.1655
  480ccc     O112574   6.217   4.102   6.403 -0.0607  0.0419 -0.2119
  480ccc     O212575   6.306   4.194   6.669  0.3314  0.1563 -0.3789
  480ccc     O312576   6.305   4.490   6.703 -0.0468 -0.4366  0.5463
  480ccc     O412577   6.226   4.558   6.438  0.3646 -0.2057  0.4525
  480ccc     C612578   5.949   4.511   6.363  0.2375  0.4192  0.1153
  480ccc     H612579   6.358   4.433   6.761  1.5059 -2.0306 -2.1835
  480ccc     H712580   6.166   4.565   6.362 -1.4503 -1.0720  1.7268
  480ccc     H812581   6.354   4.120   6.630  1.1411  0.0695  0.7285
  480ccc     H912582   5.899   4.590   6.421 -3.4084 -0.2375 -1.8216
  480ccc    H1012583   5.874   4.449   6.311 -0.3037  0.7916  0.4385
  480ccc     O512584   6.041   4.561   6.266 -0.2351 -0.7005 -0.1356
  480ccc    H1112585   6.000   4.645   6.238 -1.3138 -1.1321  0.1036
  480ccc     O612586   6.100   4.313   6.386  0.2362  0.5804 -0.6468
  481ccc     C112587   6.424   4.386   5.561 -0.0272  0.0730 -0.3551
  481ccc     C212588   6.490   4.277   5.474 -0.6498  0.0639 -0.4678
  481ccc     H112589   6.509   4.435   5.611 -1.1507 -1.4007  3.3377
  481ccc     H212590   6.562   4.312   5.399 -0.3949 -2.8802 -1.7517
  481ccc     C312591   6.544   4.147   5.552  0.4257 -0.1422 -0.1321
  481ccc     C412592   6.448   4.096   5.658  0.3507 -0.1948 -0.1615
  481ccc     C512593   6.401   4.217   5.748 -0.6695  0.4000 -0.4309
  481ccc     H312594   6.357   4.056   5.611  0.7343 -0.5286 -0.6286
  481ccc     H412595   6.620   4.186   5.621 -1.0897  1.8751  0.4973
  481ccc     H512596   6.482   4.264   5.804 -0.5004  0.8521 -1.0573
  481ccc     O112597   6.290   4.180   5.844 -0.2369  0.3921  0.0085
  481ccc     O212598   6.515   4.007   5.753  0.5389 -0.2263 -0.0243
  481ccc     O312599   6.597   4.043   5.464 -0.2487 -0.0072  0.3588
  481ccc     O412600   6.385   4.221   5.397 -0.1263  0.2946  0.0281
  481ccc     C612601   6.349   4.505   5.490 -0.4666 -0.3172 -0.3530
  481ccc     H612602   6.690   4.033   5.490 -0.2020 -2.8092 -0.6035
  481ccc     H712603   6.321   4.294   5.404  0.0188  0.4046  0.1992
  481ccc     H812604   6.523   3.924   5.702 -0.1652  0.8015 -1.8864
  481ccc     H912605   6.423   4.563   5.433 -0.6299  0.6915  0.4456
  481ccc    H1012606   6.309   4.564   5.573 -0.0529 -1.5576  0.7585
  481ccc     O512607   6.239   4.449   5.408  0.1165 -0.3668  0.0754
  481ccc    H1112608   6.221   4.530   5.356 -0.2453 -1.4401 -1.5199
  481ccc     O612609   6.341   4.318   5.662  0.1257 -0.0192 -0.4758
  482ccc     C112610   4.670   4.439   3.315  0.4573  0.3219 -0.3567
  482ccc     C212611   4.593   4.477   3.188  0.4210 -0.1771 -0.4904
  482ccc     H112612   4.655   4.331   3.333 -1.5912  0.9068  2.0939
  482ccc     H212613   4.624   4.422   3.098 -3.2559  0.5559 -2.4166
  482ccc     C312614   4.441   4.463   3.199  0.7361 -0.4106 -0.1452
  482ccc     C412615   4.385   4.508   3.342 -0.3189 -0.4451 -0.2438
  482ccc     C512616   4.480   4.490   3.461 -0.2844  0.0839  0.2650
  482ccc     H312617   4.368   4.616   3.331 -0.4900 -0.4250  0.2240
  482ccc     H412618   4.418   4.356   3.188 -0.4963 -0.1160 -0.5675
  482ccc     H512619   4.475   4.383   3.486  1.8387  0.4959  2.8867
  482ccc     O112620   4.441   4.574   3.577  0.0705  0.5018 -0.1007
  482ccc     O212621   4.266   4.431   3.366  0.4569  0.2932  0.5982
  482ccc     O312622   4.377   4.545   3.089 -0.3006 -0.7172  0.0035
  482ccc     O412623   4.606   4.619   3.164 -0.7736 -0.8747 -0.2416
  482ccc     C612624   4.824   4.466   3.298 -0.0501  0.1722  0.1729
  482ccc     H612625   4.286   4.515   3.070 -1.4836  2.5528 -0.1875
  482ccc     H712626   4.515   4.649   3.149 -0.1685  0.5008 -1.4799
  482ccc     H812627   4.197   4.498   3.384 -0.0537  0.2349 -1.0222
  482ccc     H912628   4.863   4.407   3.215 -0.6184 -0.5678  0.4215
  482ccc    H1012629   4.873   4.426   3.387 -0.2957 -1.4142 -0.3819
  482ccc     O512630   4.851   4.602   3.284  0.2577 -0.4030 -0.0866
  482ccc    H1112631   4.760   4.628   3.261  0.1693  0.1510  0.8257
  482ccc     O612632   4.613   4.513   3.427  0.0838 -0.0390 -0.2547
  483ccc     C112633   3.719   5.131   3.937  0.0467 -1.2275  0.3728
  483ccc     C212634   3.574   5.080   3.921  0.2733 -0.3085  0.5422
  483ccc     H112635   3.757   5.152   3.836 -0.4628  3.1848  0.9026
  483ccc     H212636   3.521   5.124   3.836 -2.1511 -0.4752  1.8811
  483ccc     C312637   3.569   4.937   3.874 -0.3208  0.6364 -0.6285
  483ccc     C412638   3.652   4.843   3.962  0.2896 -0.0524 -0.0286
  483ccc     C512639   3.800   4.896   3.960  0.3804 -0.3520 -0.3439
  483ccc     H312640   3.612   4.841   4.064 -1.8299 -0.7896 -0.8166
  483ccc     H412641   3.610   4.940   3.772 -0.9546  0.8815 -0.8808
  483ccc     H512642   3.836   4.868   3.860  0.3020 -1.7630  0.0007
  483ccc     O112643   3.882   4.826   4.055  0.1153  0.0740 -0.2768
  483ccc     O212644   3.659   4.712   3.902 -0.2051  0.2611  0.1035
  483ccc     O312645   3.433   4.890   3.867  0.0502 -0.0826  0.0723
  483ccc     O412646   3.507   5.101   4.045  0.1131  0.1122 -0.0044
  483ccc     C612647   3.725   5.263   4.002  0.3143 -0.4107 -0.2472
  483ccc     H612648   3.430   4.826   3.794 -0.8269 -0.8260  0.7392
  483ccc     H712649   3.431   5.045   4.024  1.3241 -0.9611 -1.8073
  483ccc     H812650   3.586   4.661   3.940 -0.7673 -0.6943 -2.1033
  483ccc     H912651   3.707   5.250   4.110  0.1621 -0.2602 -0.2517
  483ccc    H1012652   3.650   5.332   3.960  2.7960  2.8062  0.1644
  483ccc     O512653   3.860   5.319   3.972  0.3755  0.3225  0.0669
  483ccc    H1112654   3.922   5.273   4.030  0.6250 -0.6168 -0.9208
  483ccc     O612655   3.799   5.035   4.005 -0.2169 -0.0833 -0.0093
  484ccc     C112656   5.609   4.368   3.157  0.1628 -0.5378 -0.5875
  484ccc     C212657   5.683   4.301   3.039  0.7409  0.5613  0.5400
  484ccc     H112658   5.685   4.426   3.212  0.1204 -2.8873  2.2270
  484ccc     H212659   5.721   4.386   2.982 -1.2004  2.0895  1.4146
  484ccc     C312660   5.792   4.206   3.103  0.1869  0.0710 -0.2286
  484ccc     C412661   5.720   4.103   3.191  0.2187 -0.0622  0.0710
  484ccc     C512662   5.647   4.173   3.306  0.6583 -0.1519 -0.6450
  484ccc     H312663   5.647   4.049   3.128 -0.0307 -0.1129  0.3975
  484ccc     H412664   5.854   4.260   3.175 -0.3065  0.9678 -0.4609
  484ccc     H512665   5.712   4.241   3.363  0.2571  0.0924 -0.4748
  484ccc     O112666   5.576   4.076   3.392 -0.0201 -0.0304  0.2773
  484ccc     O212667   5.815   4.008   3.241  0.0380  0.4464 -0.3608
  484ccc     O312668   5.885   4.150   3.001  0.4414 -0.1203  0.2836
  484ccc     O412669   5.588   4.223   2.960  0.1268 -0.5263 -0.5214
  484ccc     C612670   5.510   4.472   3.103  0.1772  0.2592  0.5533
  484ccc     H612671   5.902   4.056   3.019  0.5176 -0.1096  0.2652
  484ccc     H712672   5.641   4.175   2.894 -1.3976 -2.9626 -0.0995
  484ccc     H812673   5.761   3.929   3.261 -1.3651  1.6475  0.8179
  484ccc     H912674   5.422   4.417   3.069  0.7809 -0.2112 -0.3000
  484ccc    H1012675   5.558   4.519   3.016  1.2247 -0.6461  0.6261
  484ccc     O512676   5.471   4.577   3.198 -0.6716  0.5461  0.2650
  484ccc    H1112677   5.383   4.544   3.223 -0.1915 -2.4517 -1.5954
  484ccc     O612678   5.549   4.274   3.252 -0.7779  0.3209  0.7847
  485ccc     C112679   5.290   3.792   3.042  0.8926 -0.1102  0.2772
  485ccc     C212680   5.290   3.802   2.890  0.0493 -0.4759  0.4621
  485ccc     H112681   5.246   3.693   3.060 -1.9996  1.0045 -0.1756
  485ccc     H212682   5.343   3.714   2.849 -0.6469 -0.4592 -0.5217
  485ccc     C312683   5.144   3.806   2.833  0.3064 -0.1817  0.3266
  485ccc     C412684   5.054   3.914   2.901  0.3297  0.0129 -0.7490
  485ccc     C512685   5.063   3.898   3.056 -0.2575  0.1007 -0.9086
  485ccc     H312686   5.086   4.016   2.875  1.5787 -0.6280 -1.8781
  485ccc     H412687   5.099   3.710   2.861 -0.2449 -0.0134  0.0387
  485ccc     H512688   5.018   3.805   3.093 -0.8556  0.5424 -0.5214
  485ccc     O112689   4.993   4.013   3.115 -0.2356  0.4384  0.1765
  485ccc     O212690   4.910   3.900   2.857  0.2709 -0.5143  0.3218
  485ccc     O312691   5.143   3.814   2.683  0.1916 -0.4053  0.2738
  485ccc     O412692   5.352   3.929   2.868 -0.8122 -0.1151 -0.4254
  485ccc     C612693   5.435   3.801   3.097 -0.1909  0.2545  0.0317
  485ccc     H612694   5.053   3.783   2.662  1.0896 -2.7530 -0.4907
  485ccc     H712695   5.395   3.912   2.783 -0.2768  1.1592 -0.4284
  485ccc     H812696   4.869   3.817   2.888  0.6028 -0.7763  0.0740
  485ccc     H912697   5.480   3.900   3.109  1.2553 -0.3289 -0.3545
  485ccc    H1012698   5.507   3.742   3.039 -1.4553 -1.0390 -0.2614
  485ccc     O512699   5.438   3.738   3.223  0.1367  0.0303  0.7141
  485ccc    H1112700   5.533   3.740   3.242  0.7092 -0.2648 -1.7513
  485ccc     O612701   5.202   3.894   3.098  0.0257 -0.9563  0.0310
  486ccc     C112702   5.874   7.104   5.318  0.9270 -0.4572  0.3265
  486ccc     C212703   5.938   7.132   5.178 -0.2644 -0.4168 -0.2894
  486ccc     H112704   5.956   7.052   5.370 -0.5177 -0.3620  2.8738
  486ccc     H212705   6.039   7.176   5.181 -0.2542 -0.3777 -1.2045
  486ccc     C312706   5.953   6.996   5.113 -0.4331 -0.7593 -0.5102
  486ccc     C412707   5.826   6.900   5.114 -0.7572 -0.1043 -0.0005
  486ccc     C512708   5.772   6.889   5.256  0.8010  0.1853 -0.1770
  486ccc     H312709   5.738   6.939   5.062  0.1388  4.0693  1.1783
  486ccc     H412710   6.036   6.948   5.167  0.0628 -1.4437 -1.8199
  486ccc     H512711   5.838   6.827   5.319  1.9720  0.8465 -0.7159
  486ccc     O112712   5.650   6.812   5.242  0.0131  0.1442 -0.1820
  486ccc     O212713   5.869   6.770   5.071 -0.4458  0.0165  0.6027
  486ccc     O312714   6.003   7.015   4.975 -0.3864 -0.5036  0.3314
  486ccc     O412715   5.844   7.218   5.104  0.3483  0.1237 -0.4657
  486ccc     C612716   5.847   7.236   5.391 -0.2697 -0.7588  0.0682
  486ccc     H612717   5.930   7.063   4.932  0.0472 -1.8021 -2.0365
  486ccc     H712718   5.907   7.271   5.053  1.1947 -0.4991 -0.1034
  486ccc     H812719   5.837   6.700   5.129 -0.9537 -2.6391 -2.5801
  486ccc     H912720   5.768   7.290   5.337  1.2662 -0.1040 -1.6214
  486ccc    H1012721   5.938   7.297   5.390  1.3803 -2.8943  3.1715
  486ccc     O512722   5.809   7.210   5.524 -0.2673  0.0166 -0.0824
  486ccc    H1112723   5.757   7.289   5.547 -0.3389 -0.3789  1.1944
  486ccc     O612724   5.752   7.027   5.313 -0.2456  0.2155  0.2164
  487ccc     C112725   5.224   6.563   6.468 -0.1236  0.1951 -0.2260
  487ccc     C212726   5.327   6.563   6.581  0.5560 -0.1046 -0.1769
  487ccc     H112727   5.181   6.462   6.466 -0.8262  0.4750  0.2476
  487ccc     H212728   5.277   6.531   6.673  0.2577 -1.3734 -0.7513
  487ccc     C312729   5.447   6.462   6.562  0.5105  0.2368  0.3154
  487ccc     C412730   5.505   6.500   6.430 -0.5082  0.4489  0.3614
  487ccc     C512731   5.408   6.493   6.308  0.2364 -0.3005  0.0856
  487ccc     H312732   5.548   6.601   6.423  0.1398  0.0963 -1.4219
  487ccc     H412733   5.419   6.356   6.554 -1.2156  0.7989 -1.9513
  487ccc     H512734   5.380   6.390   6.283  2.1628 -0.4569 -1.7628
  487ccc     O112735   5.486   6.548   6.192 -0.1566  0.2651 -0.6441
  487ccc     O212736   5.617   6.413   6.412 -0.0356 -0.1519 -0.2914
  487ccc     O312737   5.546   6.475   6.667 -0.4368  0.0891  0.6089
  487ccc     O412738   5.374   6.703   6.589 -0.0638  0.1043  0.3521
  487ccc     C612739   5.114   6.666   6.481  0.3952 -0.8013  0.1244
  487ccc     H612740   5.616   6.410   6.646 -0.7312  0.4325 -1.6833
  487ccc     H712741   5.460   6.703   6.634 -0.2661  1.9256  0.7893
  487ccc     H812742   5.668   6.456   6.341  2.5428 -3.1410 -0.4861
  487ccc     H912743   5.160   6.765   6.468 -1.1832  0.4800  3.3162
  487ccc    H1012744   5.071   6.661   6.581 -0.2716 -0.5846 -0.1493
  487ccc     O512745   5.015   6.637   6.385  0.1191 -0.1586  0.3229
  487ccc    H1112746   5.084   6.635   6.317 -0.0266  0.3908  0.1492
  487ccc     O612747   5.285   6.571   6.330 -0.5533  0.2657 -0.6211
  488ccc     C112748   7.006   5.509   5.973 -0.5676 -0.5006  0.4719
  488ccc     C212749   6.996   5.652   6.028 -0.0185  0.5178  0.0696
  488ccc     H112750   7.047   5.508   5.871  0.0184  0.2659  0.6951
  488ccc     H212751   7.094   5.699   6.017 -0.1317  0.4069 -1.5787
  488ccc     C312752   6.886   5.734   5.949  0.0201  0.8469  0.4172
  488ccc     C412753   6.745   5.662   5.956 -0.0962  0.8649  0.4758
  488ccc     C512754   6.765   5.509   5.912  1.0022 -0.5340 -1.0601
  488ccc     H312755   6.725   5.651   6.064  3.0342  2.9955  1.4141
  488ccc     H412756   6.915   5.728   5.843 -0.1115 -1.4126  0.4609
  488ccc     H512757   6.784   5.518   5.804 -0.7355  0.3751 -1.3317
  488ccc     O112758   6.645   5.423   5.939  0.1149  0.0306 -0.2208
  488ccc     O212759   6.657   5.727   5.867 -0.2462  0.1843 -0.0638
  488ccc     O312760   6.876   5.860   6.010  0.1023 -0.5528  0.0082
  488ccc     O412761   6.954   5.636   6.169 -0.0619 -0.6207  0.0281
  488ccc     C612762   7.101   5.423   6.057  0.1129 -0.4668  0.4335
  488ccc     H612763   6.814   5.919   5.963  0.7285 -0.7810 -1.1304
  488ccc     H712764   7.010   5.691   6.228  1.4656 -0.7626 -1.2098
  488ccc     H812765   6.646   5.821   5.890 -0.5680  0.7395 -2.2757
  488ccc     H912766   7.054   5.416   6.155 -0.5218 -1.2994  0.0765
  488ccc    H1012767   7.197   5.469   6.083 -0.0728 -0.3702  0.9514
  488ccc     O512768   7.111   5.297   5.987  0.0377 -0.0868  0.5411
  488ccc    H1112769   7.017   5.288   5.961  0.2743 -0.5478 -0.2140
  488ccc     O612770   6.878   5.446   5.973  0.5774 -0.1281  0.2511
  489ccc     C112771   6.126   5.623   6.489 -0.1773 -0.1294  0.5766
  489ccc     C212772   6.249   5.523   6.493  0.0049 -0.4527 -0.2628
  489ccc     H112773   6.050   5.575   6.552  0.5941  0.1243  1.7395
  489ccc     H212774   6.269   5.504   6.599  0.4888 -1.1269 -0.4749
  489ccc     C312775   6.200   5.393   6.435  0.0252 -0.1521  0.8469
  489ccc     C412776   6.149   5.401   6.292 -0.0946  0.0361  0.6376
  489ccc     C512777   6.046   5.514   6.274 -0.4539  0.8294  1.0753
  489ccc     H312778   6.240   5.412   6.231  1.6918 -1.4511  2.8562
  489ccc     H412779   6.115   5.361   6.496  0.2015  0.2186  1.2914
  489ccc     H512780   5.955   5.476   6.321 -0.1013  0.6066  1.5844
  489ccc     O112781   6.022   5.538   6.130  0.2019  0.2812 -0.0192
  489ccc     O212782   6.089   5.272   6.244 -0.0908  0.0887 -0.0311
  489ccc     O312783   6.306   5.289   6.451  1.2467 -0.0803 -0.1337
  489ccc     O412784   6.362   5.566   6.424 -0.0292 -0.6420  0.2648
  489ccc     C612785   6.167   5.761   6.536 -0.6900  0.2854 -0.4563
  489ccc     H612786   6.362   5.301   6.372  0.3188  3.0499 -0.4761
  489ccc     H712787   6.436   5.527   6.474 -0.2135 -1.1750  0.1335
  489ccc     H812788   6.116   5.250   6.153 -0.4476 -0.2369 -0.0609
  489ccc     H912789   6.208   5.753   6.638  1.0628 -1.3245 -1.2122
  489ccc    H1012790   6.085   5.834   6.539 -2.3794 -1.5685  0.2275
  489ccc     O512791   6.272   5.805   6.447  0.6386 -0.1334  0.1266
  489ccc    H1112792   6.300   5.720   6.409 -1.2674  0.1083 -2.0394
  489ccc     O612793   6.079   5.635   6.347 -0.0248 -0.2414 -0.0677
  490ccc     C112794   5.716   6.489   3.803 -0.4051  0.2453  0.2440
  490ccc     C212795   5.580   6.504   3.727  0.3792 -0.4151 -0.4138
  490ccc     H112796   5.700   6.413   3.880  0.3285 -0.0380  0.1325
  490ccc     H212797   5.555   6.403   3.690 -0.1678 -0.6259  0.4983
  490ccc     C312798   5.463   6.537   3.827  0.1134  0.0367 -0.3538
  490ccc     C412799   5.510   6.670   3.904  0.0833 -0.5262 -0.2833
  490ccc     C512800   5.655   6.666   3.966  0.7642  0.5298 -0.4896
  490ccc     H312801   5.515   6.753   3.832  3.9110  0.5925  0.9918
  490ccc     H412802   5.464   6.454   3.898 -0.1202 -0.9501 -1.4704
  490ccc     H512803   5.657   6.598   4.051  1.1255  0.4569 -0.5554
  490ccc     O112804   5.703   6.797   3.996  0.6194 -0.1410 -0.6680
  490ccc     O212805   5.413   6.705   4.005 -0.1294  0.2215 -0.3632
  490ccc     O312806   5.335   6.548   3.767 -0.1899 -0.0744 -0.1136
  490ccc     O412807   5.596   6.599   3.620  0.1629 -0.1524  0.7877
  490ccc     C612808   5.836   6.438   3.726 -0.1884 -0.1906 -0.0622
  490ccc     H612809   5.272   6.508   3.830 -0.8427  0.6095 -0.3118
  490ccc     H712810   5.526   6.572   3.558 -1.4210 -0.3351  2.5671
  490ccc     H812811   5.353   6.766   3.957 -0.9801  0.5278  1.0180
  490ccc     H912812   5.828   6.329   3.712 -1.2862  0.0802 -1.9313
  490ccc    H1012813   5.926   6.456   3.786 -0.8313 -0.1727  0.9240
  490ccc     O512814   5.851   6.508   3.605  0.3077  0.8038 -0.6465
  490ccc    H1112815   5.796   6.583   3.632 -0.2750  0.3696 -0.6059
  490ccc     O612816   5.752   6.615   3.871  0.3560  0.0513  0.1897
  491ccc     C112817   6.441   7.542   4.473  0.3420 -0.2693 -0.4875
  491ccc     C212818   6.429   7.646   4.585 -0.8527 -0.5905 -0.3506
  491ccc     H112819   6.451   7.584   4.372  1.2710  2.1683  0.5329
  491ccc     H212820   6.526   7.696   4.600 -1.3786  0.7721 -1.2956
  491ccc     C312821   6.316   7.738   4.557 -0.3490  0.5507 -0.2808
  491ccc     C412822   6.179   7.666   4.544  0.7242 -0.7222  0.4457
  491ccc     C512823   6.204   7.546   4.443 -0.0853  0.0070  0.3246
  491ccc     H312824   6.145   7.624   4.639 -0.0073  0.8739  0.9088
  491ccc     H412825   6.333   7.774   4.454 -1.8291 -1.0737 -1.1617
  491ccc     H512826   6.220   7.581   4.340  2.4809  1.0769  1.0020
  491ccc     O112827   6.081   7.469   4.457 -0.3092  0.2501 -0.4562
  491ccc     O212828   6.075   7.761   4.508  0.0539 -0.6174 -0.0531
  491ccc     O312829   6.310   7.845   4.653  0.5255 -0.0048  0.2081
  491ccc     O412830   6.402   7.578   4.714  0.2355 -0.0993 -0.6880
  491ccc     C612831   6.557   7.451   4.502 -0.4212  0.7557  0.8647
  491ccc     H612832   6.392   7.897   4.647  0.9041 -0.6099  0.1150
  491ccc     H712833   6.434   7.647   4.775  0.7240 -0.7622 -0.1867
  491ccc     H812834   6.107   7.852   4.523 -0.6488 -0.4110  0.2323
  491ccc     H912835   6.534   7.367   4.570  1.4506 -0.1762  0.4156
  491ccc    H1012836   6.645   7.501   4.544 -0.2014  1.8840 -0.8641
  491ccc     O512837   6.598   7.402   4.379  0.8351 -0.2323  0.4592
  491ccc    H1112838   6.536   7.327   4.369  0.9090 -0.3759  1.0771
  491ccc     O612839   6.321   7.469   4.479  0.4494  0.5679  0.0689
  492ccc     C112840   5.310   7.161   3.475  0.4013  0.1793  0.4613
  492ccc     C212841   5.373   6.969   3.469 -0.0409  0.5022  0.5893
  492ccc     H112842   5.405   7.210   3.502  0.4918 -0.5660  1.5802
  492ccc     H212843   5.482   6.960   3.460 -0.2503 -1.6884 -0.1804
  492ccc     C312844   5.312   6.838   3.613  0.3706 -0.3241  0.4637
  492ccc     C412845   5.172   6.897   3.748  0.2497  0.9089  0.3091
  492ccc     C512846   5.104   7.088   3.741 -0.6981 -0.8158 -0.4576
  492ccc     H312847   5.080   6.840   3.728  0.7813  0.2835 -0.4357
  492ccc     H412848   5.400   6.817   3.675  0.2449 -0.4486  0.6023
  492ccc     H512849   5.157   7.123   3.830  0.6066 -1.0200 -1.1293
  492ccc     O112850   4.965   7.097   3.765  0.3664  0.1952 -0.5448
  492ccc     O212851   5.207   6.843   3.876 -0.2726 -0.2943 -0.0183
  492ccc     O312852   5.307   6.703   3.566  0.6480  0.3117 -0.2253
  492ccc     O412853   5.327   6.928   3.344  0.2749 -0.0274  0.4585
  492ccc     C612854   5.291   7.226   3.336  0.8537  0.0658  0.4323
  492ccc     H612855   5.295   6.648   3.646 -1.0425  2.5047  1.1670
  492ccc     H712856   5.236   6.915   3.376 -0.2296  3.0482  0.5532
  492ccc     H812857   5.149   6.882   3.944 -0.9224 -0.8727 -0.2176
  492ccc     H912858   5.224   7.170   3.269 -1.9464 -0.1482  3.1557
  492ccc    H1012859   5.388   7.227   3.286  0.9955  0.1768  0.7055
  492ccc     O512860   5.245   7.359   3.356  0.7300 -0.2799 -0.3792
  492ccc    H1112861   5.289   7.405   3.283 -0.1071  0.7727 -0.2496
  492ccc     O612862   5.174   7.205   3.610 -0.0552 -0.1511 -0.5733
  493ccc     C112863   4.021   7.246   3.612  0.3941 -0.0384  0.5871
  493ccc     C212864   3.957   7.334   3.715  0.4679 -0.6988  0.4572
  493ccc     H112865   3.943   7.178   3.575 -0.4642  2.4019 -2.4668
  493ccc     H212866   3.880   7.390   3.661  2.2118  0.9356 -0.4207
  493ccc     C312867   3.888   7.240   3.823  0.2920  0.0834  0.0718
  493ccc     C412868   3.998   7.150   3.886 -0.2786  0.3833  0.8779
  493ccc     C512869   4.093   7.085   3.776  0.1351  0.3055  0.3580
  493ccc     H312870   4.067   7.214   3.943  3.8724 -0.9492 -2.1283
  493ccc     H412871   3.808   7.182   3.775  0.2330  0.0636  0.1936
  493ccc     H512872   4.048   6.994   3.733  0.8840  0.2974 -0.4157
  493ccc     O112873   4.219   7.041   3.839 -0.1805  0.2541  0.6216
  493ccc     O212874   3.931   7.051   3.962 -0.0485  0.3462  0.0637
  493ccc     O312875   3.821   7.327   3.915 -0.1571 -0.2640  0.3144
  493ccc     O412876   4.061   7.418   3.767 -0.0082 -0.5977 -0.3178
  493ccc     C612877   4.066   7.319   3.488 -0.3705 -0.1036  0.0243
  493ccc     H612878   3.802   7.266   3.989 -1.9277 -0.1571 -0.0020
  493ccc     H712879   4.120   7.423   3.690  0.7590  1.1833  0.3220
  493ccc     H812880   4.003   7.006   4.009 -0.3831  1.0596  1.2797
  493ccc     H912881   3.978   7.364   3.441 -1.2300 -0.3175  1.3754
  493ccc    H1012882   4.120   7.249   3.422 -1.1486 -1.9606  1.2569
  493ccc     O512883   4.160   7.425   3.518  0.3286  0.2068  0.1513
  493ccc    H1112884   4.231   7.420   3.451 -1.0770  1.1620 -1.5002
  493ccc     O612885   4.127   7.175   3.669  0.1097 -0.2121 -0.0349
  494ccc     C112886   7.202   4.281   2.378  0.1843 -0.6288 -0.2820
  494ccc     C212887   7.343   4.242   2.329 -0.4780  0.6274 -0.2295
  494ccc     H112888   7.170   4.366   2.316  1.4328  1.0070  1.1844
  494ccc     H212889   7.327   4.221   2.223 -0.8584  0.8958 -0.2270
  494ccc     C312890   7.425   4.368   2.348 -0.1058  0.0019 -0.0828
  494ccc     C412891   7.418   4.426   2.491  0.2110  0.2570 -0.6861
  494ccc     C512892   7.280   4.429   2.559 -0.2240 -0.5366 -0.8161
  494ccc     H312893   7.481   4.354   2.546  1.3893  2.4861  1.0814
  494ccc     H412894   7.386   4.453   2.291  1.5719  1.2080  0.4539
  494ccc     H512895   7.224   4.516   2.522 -0.2141 -0.5611 -0.8888
  494ccc     O112896   7.304   4.435   2.696  0.4050  0.5404 -0.5384
  494ccc     O212897   7.478   4.560   2.496 -0.2869 -0.3196  0.3221
  494ccc     O312898   7.567   4.344   2.313 -0.2208  0.2131  0.1363
  494ccc     O412899   7.401   4.123   2.392  0.5642  0.0296  0.1539
  494ccc     C612900   7.109   4.166   2.359 -0.3978  0.1664 -0.6282
  494ccc     H612901   7.612   4.261   2.338  1.9328  0.5789 -2.0915
  494ccc     H712902   7.367   4.044   2.347  0.9704  0.7255 -1.4529
  494ccc     H812903   7.500   4.581   2.589 -1.3321 -0.7272  0.6777
  494ccc     H912904   7.117   4.090   2.439 -0.2876  0.1693 -0.6371
  494ccc    H1012905   7.135   4.116   2.265  0.6253 -1.1483  0.3058
  494ccc     O512906   6.975   4.217   2.348  0.1887  0.2763 -0.4158
  494ccc    H1112907   6.936   4.195   2.435 -1.4550  2.3084 -0.5477
  494ccc     O612908   7.207   4.306   2.524  0.4097 -0.3854 -0.4791
  495ccc     C112909   6.969   3.961   2.656 -0.1122  0.1137 -0.2059
  495ccc     C212910   7.020   3.812   2.630 -0.1340 -0.2536  0.0143
  495ccc     H112911   7.054   4.026   2.632  1.2117 -1.1585  0.8965
  495ccc     H212912   7.047   3.803   2.525  0.6147  0.2298  0.1629
  495ccc     C312913   7.135   3.791   2.727 -0.5084 -0.1809  0.0332
  495ccc     C412914   7.082   3.807   2.872 -0.0843  1.1172  0.2287
  495ccc     C512915   7.026   3.951   2.894  0.5136 -0.4126  0.0035
  495ccc     H312916   6.999   3.737   2.886  0.8427  0.1387  1.0617
  495ccc     H412917   7.200   3.879   2.713 -1.4231  0.8856  1.9932
  495ccc     H512918   7.106   4.026   2.891  0.7039 -0.5982  0.4165
  495ccc     O112919   6.954   3.950   3.020 -0.0499 -0.1872 -0.0697
  495ccc     O212920   7.177   3.776   2.964 -0.5598 -0.1760  0.2170
  495ccc     O312921   7.202   3.674   2.698 -0.2767  0.6720  0.5119
  495ccc     O412922   6.908   3.715   2.654 -0.3193 -0.8481 -0.0859
  495ccc     C612923   6.847   3.997   2.567  0.3213  0.0160  0.3144
  495ccc     H612924   7.239   3.640   2.781 -1.9999 -1.9653  0.3126
  495ccc     H712925   6.952   3.632   2.630  0.3206 -0.5090 -0.1129
  495ccc     H812926   7.125   3.754   3.044 -0.4504  0.9187  0.6018
  495ccc     H912927   6.755   3.951   2.603  0.0321  0.3527  0.0164
  495ccc    H1012928   6.859   3.955   2.466 -3.2333 -0.4449 -0.0478
  495ccc     O512929   6.843   4.138   2.554 -0.0604 -0.3559 -0.0584
  495ccc    H1112930   6.811   4.173   2.639 -0.2840 -0.0913 -0.2471
  495ccc     O612931   6.926   3.981   2.787 -0.0148 -0.0675 -0.4000
  496ccc     C112932   5.657   3.808   3.905 -0.6587 -0.3291 -0.3400
  496ccc     C212933   5.586   3.938   3.922 -0.1306 -0.1496  0.8117
  496ccc     H112934   5.746   3.808   3.969 -2.6655  0.0462  2.7036
  496ccc     H212935   5.577   3.956   4.030  1.0812 -2.3654  1.3445
  496ccc     C312936   5.659   4.064   3.858  0.5106 -0.6095 -0.3824
  496ccc     C412937   5.722   4.037   3.727 -0.7431 -0.3709 -0.3187
  496ccc     C512938   5.794   3.895   3.727 -0.2056 -0.6474  0.7354
  496ccc     H312939   5.643   4.036   3.650 -0.7539  0.1646 -0.3185
  496ccc     H412940   5.746   4.079   3.923  0.2962  1.8898 -0.5445
  496ccc     H512941   5.881   3.889   3.794  0.2749 -0.3142  0.1456
  496ccc     O112942   5.833   3.872   3.587 -0.5014 -0.7829 -0.4269
  496ccc     O212943   5.811   4.146   3.691 -1.0939  0.4731 -0.1865
  496ccc     O312944   5.571   4.175   3.860 -0.5125  0.0140  0.4209
  496ccc     O412945   5.455   3.924   3.858  0.4846 -0.4479 -0.2866
  496ccc     C612946   5.576   3.683   3.967 -0.0713 -0.3995  0.4898
  496ccc     H612947   5.624   4.256   3.849 -0.7348  0.1191  0.0802
  496ccc     H712948   5.429   4.017   3.866 -2.0593 -1.1255  0.2132
  496ccc     H812949   5.752   4.213   3.653 -1.2567  0.2597 -0.3096
  496ccc     H912950   5.574   3.705   4.075  1.1712  1.3028  0.2106
  496ccc    H1012951   5.632   3.590   3.948 -0.6597 -0.8162  0.7738
  496ccc     O512952   5.444   3.674   3.921 -0.5311 -0.3949  1.0117
  496ccc    H1112953   5.435   3.769   3.905 -1.3867 -0.9211 -2.2069
  496ccc     O612954   5.704   3.795   3.768  0.7136  0.0648 -0.5016
  497ccc     C112955   6.110   3.046   2.760 -0.3828 -0.0878 -0.6588
  497ccc     C212956   6.248   3.057   2.687 -0.2330 -0.2386 -0.1091
  497ccc     H112957   6.025   3.052   2.690 -1.2478  1.3067  0.4448
  497ccc     H212958   6.253   2.976   2.613 -0.1433 -1.2326  0.9527
  497ccc     C312959   6.251   3.200   2.620  0.5580  0.0107  0.0418
  497ccc     C412960   6.225   3.308   2.725  0.1279  0.3201 -0.1473
  497ccc     C512961   6.093   3.283   2.807  0.1638 -0.1357  0.7344
  497ccc     H312962   6.301   3.299   2.803 -2.0337 -3.1341  1.8308
  497ccc     H412963   6.177   3.207   2.538  2.4538 -2.4415 -2.0392
  497ccc     H512964   6.004   3.297   2.745 -0.7745  0.0267  2.0686
  497ccc     O112965   6.088   3.389   2.904  1.3494 -0.4431  0.3149
  497ccc     O212966   6.234   3.437   2.653 -0.3316 -0.2298  0.4843
  497ccc     O312967   6.370   3.238   2.557  0.0019  0.5444  0.2754
  497ccc     O412968   6.354   3.040   2.779 -0.1020 -0.2154  0.3434
  497ccc     C612969   6.092   2.903   2.820  0.7904  0.3444  0.0788
  497ccc     H612970   6.365   3.335   2.559 -3.3619  0.5179 -0.8184
  497ccc     H712971   6.438   3.039   2.728 -0.1089 -1.8628  0.3197
  497ccc     H812972   6.230   3.511   2.715  1.6356  1.4758 -1.2773
  497ccc     H912973   6.179   2.875   2.881  1.8895  1.3313 -0.9931
  497ccc    H1012974   6.084   2.827   2.741 -1.5037 -0.5207  1.0707
  497ccc     O512975   5.970   2.896   2.885 -0.4514  0.5913 -0.5416
  497ccc    H1112976   5.954   2.800   2.896 -2.1152  0.9279  0.4546
  497ccc     O612977   6.094   3.151   2.857 -0.1697  0.6198 -0.0060
  498ccc     C112978   5.580   2.104   5.291 -0.4502  0.0879 -0.4209
  498ccc     C212979   5.598   2.153   5.431  0.4527 -0.1791 -0.5154
  498ccc     H112980   5.637   2.012   5.272  1.4332  1.3169 -1.0281
  498ccc     H212981   5.576   2.071   5.501 -0.0801 -1.7547 -2.4271
  498ccc     C312982   5.749   2.194   5.449  0.3865  0.2756  0.3598
  498ccc     C412983   5.791   2.298   5.350 -0.4239 -0.2218 -0.0573
  498ccc     C512984   5.759   2.251   5.206 -0.0065  0.1325  0.1462
  498ccc     H312985   5.721   2.382   5.363 -0.8652 -0.0295 -2.9300
  498ccc     H412986   5.791   2.095   5.429 -0.1544  0.1289 -0.0648
  498ccc     H512987   5.836   2.177   5.179  1.0608  1.9415 -2.1350
  498ccc     O112988   5.769   2.356   5.106  0.2861 -0.0675 -0.2453
  498ccc     O212989   5.935   2.327   5.369  0.5494  0.0305  0.8492
  498ccc     O312990   5.777   2.232   5.587  0.6163 -0.5805 -0.5593
  498ccc     O412991   5.504   2.269   5.446  0.7386 -0.1501 -0.4166
  498ccc     C612992   5.438   2.073   5.253  1.2095 -0.2290  0.3601
  498ccc     H612993   5.724   2.172   5.642  2.1152 -2.7831 -1.3860
  498ccc     H712994   5.474   2.268   5.539 -1.7316 -2.5310 -1.1301
  498ccc     H812995   5.972   2.239   5.349  0.2558 -0.1348  1.0370
  498ccc     H912996   5.380   2.166   5.251 -1.4488 -1.8176 -0.8320
  498ccc    H1012997   5.393   2.006   5.328 -0.7729  0.6978  0.0599
  498ccc     O512998   5.421   2.012   5.128  0.3983 -0.0645  0.3679
  498ccc    H1112999   5.341   1.957   5.140 -0.8641  1.7574  0.8109
  498ccc     O613000   5.627   2.205   5.198  0.1333  0.7591  0.1717
  499ccc     C113001   6.691   1.894   5.226  0.0539  0.1319  0.2212
  499ccc     C213002   6.827   1.833   5.181  0.2773  0.4084 -0.1404
  499ccc     H113003   6.616   1.818   5.250 -0.6219  0.9307  0.7276
  499ccc     H213004   6.873   1.772   5.260  0.7029 -2.0899 -2.1767
  499ccc     C313005   6.806   1.755   5.046  0.4132  0.0087 -0.4299
  499ccc     C413006   6.728   1.840   4.944 -0.3141 -0.2260  0.5581
  499ccc     C513007   6.598   1.910   5.001  0.2599  0.2306 -0.1138
  499ccc     H313008   6.794   1.919   4.905  0.4564 -1.6881 -1.2832
  499ccc     H413009   6.740   1.671   5.070  3.8298 -1.6082  4.9160
  499ccc     H513010   6.530   1.827   5.025  0.7472  0.5381  2.5612
  499ccc     O113011   6.526   1.995   4.906 -0.2417  0.7299  0.0488
  499ccc     O213012   6.691   1.749   4.829 -0.4730 -0.2055 -0.9734
  499ccc     O313013   6.916   1.689   4.998 -0.6120 -0.4775 -0.7381
  499ccc     O413014   6.909   1.944   5.155  0.7782  0.4066  0.4127
  499ccc     C613015   6.702   1.978   5.353 -0.8841  0.1070  0.0707
  499ccc     H613016   6.879   1.613   4.949  1.8380 -1.5241 -1.1566
  499ccc     H713017   6.997   1.914   5.126  1.4778  1.3339  1.5298
  499ccc     H813018   6.776   1.747   4.782 -0.4202 -0.3323 -0.8728
  499ccc     H913019   6.740   2.078   5.327  0.5319 -0.4398 -0.0828
  499ccc    H1013020   6.777   1.937   5.422  2.3409  0.8437 -2.7346
  499ccc     O513021   6.567   1.971   5.402 -0.1386 -0.6177  0.4503
  499ccc    H1113022   6.564   2.026   5.482 -0.4363  1.0296 -0.6365
  499ccc     O613023   6.627   1.975   5.124 -0.0426  0.0537  0.0186
  500ccc     C113024   7.079   2.816   3.099 -0.1660  0.2027  0.6337
  500ccc     C213025   7.015   2.787   2.965 -0.2230 -0.8454 -0.3011
  500ccc     H113026   7.095   2.717   3.144  0.5175 -0.0622 -0.1661
  500ccc     H213027   7.086   2.724   2.909  1.7350  1.7012 -0.8664
  500ccc     C313028   6.882   2.714   2.988  0.6477 -0.1660 -0.2654
  500ccc     C413029   6.795   2.810   3.070 -0.1912 -0.3062  0.1161
  500ccc     C513030   6.857   2.840   3.208  0.4080 -0.2573  0.6606
  500ccc     H313031   6.793   2.904   3.014 -0.1108 -0.9759 -1.0585
  500ccc     H413032   6.903   2.628   3.053 -2.5912 -1.9107 -1.2909
  500ccc     H513033   6.865   2.754   3.274 -1.6549  0.3148  1.7622
  500ccc     O113034   6.780   2.936   3.287  0.0839  0.0319 -0.1722
  500ccc     O213035   6.659   2.762   3.084 -0.2174 -0.0766  0.3795
  500ccc     O313036   6.822   2.677   2.865  0.2274  0.4211 -0.3245
  500ccc     O413037   6.997   2.914   2.898 -0.1930  0.2253  0.0738
  500ccc     C613038   7.212   2.882   3.087 -0.4506  0.0420 -0.0718
  500ccc     H613039   6.871   2.597   2.841 -0.8315 -0.1344 -0.7025
  500ccc     H713040   7.059   2.969   2.949 -0.0956 -0.9356  1.2661
  500ccc     H813041   6.610   2.841   3.115 -0.0192 -0.3344  1.4019
  500ccc     H913042   7.284   2.825   3.027  0.7285  2.8415 -1.4968
  500ccc    H1013043   7.259   2.886   3.186  1.0051  0.7717 -0.7657
  500ccc     O513044   7.188   3.010   3.035  0.1534 -0.2395 -0.0138
  500ccc    H1113045   7.268   3.066   3.037 -1.4610  2.2406 -0.1760
  500ccc     O613046   6.987   2.898   3.176 -0.4175 -0.3179 -0.1659
  501ccc     C113047   7.167   3.174   4.275  0.2698 -0.0216 -0.0265
  501ccc     C213048   7.150   3.283   4.383 -0.2507 -0.3820  0.6772
  501ccc     H113049   7.254   3.200   4.214  1.2000  0.2011  1.3313
  501ccc     H213050   7.230   3.279   4.459 -1.8313  0.3806  2.4784
  501ccc     C313051   7.133   3.426   4.320  0.0460 -0.4557 -0.4061
  501ccc     C413052   7.018   3.419   4.215 -0.3475 -0.4127  0.2907
  501ccc     C513053   7.035   3.305   4.114 -0.0433  0.0004  0.1986
  501ccc     H313054   6.927   3.394   4.271  0.2095 -0.1809  1.3248
  501ccc     H413055   7.224   3.442   4.261  0.0826  3.2665  0.4423
  501ccc     H513056   7.121   3.327   4.050  0.1044  0.6450  0.6132
  501ccc     O113057   6.919   3.304   4.030 -0.3257 -0.0474 -0.3225
  501ccc     O213058   6.992   3.551   4.152  0.2756  0.4554 -0.8801
  501ccc     O313059   7.114   3.531   4.417 -0.3660 -0.1121 -0.1977
  501ccc     O413060   7.036   3.249   4.455  0.1959 -0.5053  0.5337
  501ccc     C613061   7.179   3.034   4.339 -0.3857 -0.3152  0.2727
  501ccc     H613062   7.020   3.552   4.433  0.1592  3.0114 -0.7326
  501ccc     H713063   7.047   3.302   4.536 -1.9418  0.6897  0.1049
  501ccc     H813064   6.895   3.560   4.147 -0.3220 -3.1691  0.7454
  501ccc     H913065   7.079   2.989   4.347 -0.0524 -1.4680 -1.6367
  501ccc    H1013066   7.225   3.033   4.439 -0.6415 -2.7487  0.4152
  501ccc     O513067   7.269   2.956   4.255  0.4458 -0.5649  0.7034
  501ccc    H1113068   7.196   2.910   4.211 -0.2382 -1.2615  2.4453
  501ccc     O613069   7.054   3.177   4.184  0.3799  0.1894 -0.4782
  502ccc     C113070   7.605   5.040   5.195 -0.3214  0.0469 -0.5130
  502ccc     C213071   7.525   4.941   5.113 -0.2157 -0.1493  0.8522
  502ccc     H113072   7.540   5.121   5.232  0.1247 -1.1131  3.2292
  502ccc     H213073   7.444   4.892   5.167  0.1763 -0.6412  1.0058
  502ccc     C313074   7.469   5.015   4.993 -0.2714 -0.0465 -1.1924
  502ccc     C413075   7.577   5.090   4.915  0.4193 -0.4641  0.7132
  502ccc     C513076   7.677   5.172   5.000  0.8910 -0.3360 -0.9188
  502ccc     H313077   7.646   5.015   4.874 -0.0646 -0.6202  0.1665
  502ccc     H413078   7.392   5.088   5.021 -0.4407  0.6288 -3.2383
  502ccc     H513079   7.632   5.269   5.022  1.4383  0.2371 -2.2409
  502ccc     O113080   7.800   5.206   4.928  0.2721  0.2329 -0.5416
  502ccc     O213081   7.517   5.168   4.806  0.5703  0.1961 -0.2216
  502ccc     O313082   7.417   4.913   4.915  0.5485  0.2343 -0.2167
  502ccc     O413083   7.605   4.841   5.064 -0.1965 -0.4078 -0.2410
  502ccc     C613084   7.669   4.975   5.315 -0.1991  0.0059 -0.2239
  502ccc     H613085   7.378   4.945   4.831  0.4236 -0.4016 -0.4085
  502ccc     H713086   7.546   4.826   4.988 -1.5920  1.0710  0.4894
  502ccc     H813087   7.543   5.127   4.721 -1.9390 -2.3532  0.0740
  502ccc     H913088   7.588   4.961   5.388  0.3952 -0.3625  0.3734
  502ccc    H1013089   7.742   5.045   5.357 -1.4070  1.5308 -0.5792
  502ccc     O513090   7.730   4.847   5.295 -0.1892  0.0751  0.0056
  502ccc    H1113091   7.691   4.831   5.208 -2.4054  1.9654  0.5502
  502ccc     O613092   7.716   5.092   5.114  0.1554 -0.0404 -0.2153
  503ccc     C113093   8.293   6.048   5.083  0.7196  0.1427  0.0361
  503ccc     C213094   8.315   6.196   5.037  0.7340  0.1388 -0.4710
  503ccc     H113095   8.384   6.010   5.131  1.3396  0.8205 -0.5867
  503ccc     H213096   8.359   6.250   5.121  2.3454 -1.2810 -0.3464
  503ccc     C313097   8.413   6.200   4.916  0.0983 -1.7128  0.1269
  503ccc     C413098   8.385   6.102   4.800 -0.0400  0.4176  0.8095
  503ccc     C513099   8.362   5.952   4.864  0.2460 -0.4473 -0.0548
  503ccc     H313100   8.290   6.137   4.759 -0.1534  1.5142  1.9590
  503ccc     H413101   8.508   6.177   4.966  1.8997  1.4332 -1.4880
  503ccc     H513102   8.456   5.910   4.903 -1.3012 -2.3244  1.9047
  503ccc     O113103   8.317   5.874   4.755  0.3957 -0.5028  1.0034
  503ccc     O213104   8.491   6.101   4.709  0.2856 -0.4647  0.2068
  503ccc     O313105   8.429   6.339   4.866  0.3601  0.3518  0.6807
  503ccc     O413106   8.188   6.247   4.989  0.3601  0.0143  0.0160
  503ccc     C613107   8.176   6.042   5.182 -0.2183 -0.7490 -0.0070
  503ccc     H613108   8.524   6.356   4.865  0.4806 -0.2481 -1.0768
  503ccc     H713109   8.211   6.340   4.971 -2.1378  0.7630  0.3067
  503ccc     H813110   8.464   6.040   4.637 -0.2788  0.8994 -0.7819
  503ccc     H913111   8.081   6.053   5.130 -0.3978 -2.9792 -0.2294
  503ccc    H1013112   8.183   6.122   5.257  0.6376  0.0671 -0.9218
  503ccc     O513113   8.179   5.908   5.234 -0.6737 -0.8049  0.1572
  503ccc    H1113114   8.099   5.872   5.191 -2.2044  2.4080 -0.0237
  503ccc     O613115   8.260   5.966   4.970  0.2721  0.4766  0.0274
  504ccc     C113116   7.956   3.569   4.115 -0.1199 -0.0753  0.4438
  504ccc     C213117   7.995   3.651   3.988  0.0046 -0.1126  0.1288
  504ccc     H113118   7.849   3.544   4.113 -0.5427  1.1851  2.9703
  504ccc     H213119   7.954   3.597   3.902  1.4122  2.8030 -2.5912
  504ccc     C313120   7.914   3.783   4.000  0.2325  0.5695  0.4387
  504ccc     C413121   7.939   3.863   4.127 -0.6704  0.2064 -0.2996
  504ccc     C513122   7.928   3.767   4.254  0.1296  1.0852  0.1984
  504ccc     H313123   8.044   3.895   4.124 -1.2764  2.2487 -0.9543
  504ccc     H413124   7.811   3.747   4.015  1.5020 -3.4136  0.8188
  504ccc     H513125   7.819   3.757   4.267  0.3083 -0.5681  0.5826
  504ccc     O113126   7.971   3.837   4.374 -0.5254  0.0331  0.1507
  504ccc     O213127   7.847   3.972   4.143 -0.4193  0.6143  0.0216
  504ccc     O313128   7.936   3.860   3.881 -0.1603 -0.0874 -0.2629
  504ccc     O413129   8.133   3.677   3.981 -0.7746  0.3965  0.2683
  504ccc     C613130   8.026   3.432   4.111  0.4053  0.0035  0.4613
  504ccc     H613131   7.865   3.926   3.875  0.0379  0.0501 -1.1659
  504ccc     H713132   8.129   3.770   3.954 -1.3954  0.8954  1.9619
  504ccc     H813133   7.878   4.028   4.070  1.0380  0.9169  0.8420
  504ccc     H913134   8.135   3.448   4.117  0.4159 -0.5812  2.2458
  504ccc    H1013135   7.989   3.375   4.025  0.4956  3.8820 -2.4173
  504ccc     O513136   7.980   3.353   4.226  0.4222 -0.0194  0.3323
  504ccc    H1113137   8.044   3.361   4.298  0.6430  0.0690  0.1297
  504ccc     O613138   7.995   3.644   4.232  0.1342 -0.5894  0.1874
  505ccc     C113139   9.071   4.167   4.836  0.3080  0.1016  0.0129
  505ccc     C213140   9.164   4.143   4.717 -0.3285  0.6406 -0.1026
  505ccc     H113141   9.094   4.099   4.919  1.6719  0.5946  0.0626
  505ccc     H213142   9.267   4.154   4.753 -0.9926  1.0216  1.7725
  505ccc     C313143   9.148   3.999   4.656 -0.0397 -0.0945  0.2002
  505ccc     C413144   8.999   3.982   4.613 -0.0108  0.3257  0.0774
  505ccc     C513145   8.904   4.016   4.729 -0.2379  0.0311 -0.4870
  505ccc     H313146   8.970   4.043   4.527 -0.7765  0.2730  0.2946
  505ccc     H413147   9.175   3.923   4.731  2.4806 -0.0796 -0.5922
  505ccc     H513148   8.905   3.940   4.808  0.3334 -1.8477 -2.2163
  505ccc     O113149   8.772   4.023   4.675 -0.3295  0.2295 -0.2323
  505ccc     O213150   8.981   3.846   4.588  0.0736  0.3574  0.1785
  505ccc     O313151   9.241   3.968   4.554 -0.7180 -0.0660 -1.3944
  505ccc     O413152   9.139   4.249   4.620 -0.9328  0.3540  0.0360
  505ccc     C613153   9.084   4.310   4.907 -1.0062  0.2294  0.1786
  505ccc     H613154   9.198   3.910   4.489  0.2390  0.0396 -2.1555
  505ccc     H713155   9.210   4.231   4.556  1.8922  1.4174  2.6074
  505ccc     H813156   9.002   3.795   4.668  2.5285  1.1555  0.1573
  505ccc     H913157   9.053   4.387   4.834  0.3189  2.3668  1.7376
  505ccc    H1013158   9.189   4.333   4.927 -1.2383  0.9836  0.5764
  505ccc     O513159   9.025   4.311   5.033  0.2520  0.1475  0.5312
  505ccc    H1113160   9.046   4.402   5.059 -3.2061  1.1827  0.2304
  505ccc     O613161   8.940   4.149   4.783 -0.2581  0.3042  0.1845
  506ccc     C113162   6.367   4.701   5.020 -0.2640 -0.2272  0.0207
  506ccc     C213163   6.259   4.605   5.056  0.1926 -0.0907 -0.4325
  506ccc     H113164   6.384   4.688   4.913 -2.2310  0.7995 -0.4641
  506ccc     H213165   6.175   4.625   4.987 -0.2470  0.0041  0.1258
  506ccc     C313166   6.303   4.459   5.031  0.2827  0.6549 -0.0942
  506ccc     C413167   6.443   4.424   5.096 -0.0793  0.1696 -0.4050
  506ccc     C513168   6.552   4.541   5.084  0.8416 -0.2447 -0.0675
  506ccc     H313169   6.435   4.429   5.206  2.9204  2.9146 -0.1440
  506ccc     H413170   6.313   4.448   4.923 -2.2865  0.2855 -0.3692
  506ccc     H513171   6.604   4.530   4.988 -0.5406 -0.9595 -0.7724
  506ccc     O113172   6.643   4.524   5.199 -0.0765  0.3647 -0.1886
  506ccc     O213173   6.498   4.297   5.058 -0.4528 -0.0615 -0.8499
  506ccc     O313174   6.208   4.363   5.072  0.4096 -0.1745  0.5330
  506ccc     O413175   6.230   4.629   5.191 -0.3837 -0.1115 -0.0939
  506ccc     C613176   6.336   4.853   5.037  0.2703  0.4010  0.7426
  506ccc     H613177   6.132   4.409   5.112 -0.8098 -1.4316 -0.2482
  506ccc     H713178   6.261   4.721   5.198 -0.8414  0.0625 -0.2883
  506ccc     H813179   6.417   4.245   5.064  0.0057 -0.8256 -1.1275
  506ccc     H913180   6.257   4.889   4.969 -0.2502 -0.1939  1.0235
  506ccc    H1013181   6.434   4.891   5.005  0.1570 -0.5248 -0.7705
  506ccc     O513182   6.304   4.874   5.174  0.0520 -0.4521 -0.9232
  506ccc    H1113183   6.273   4.966   5.183  0.0562 -0.6621  2.8225
  506ccc     O613184   6.485   4.675   5.098  0.5887  0.2624  0.5507
  507ccc     C113185   6.494   4.441   6.187 -0.1359 -0.2186 -1.2417
  507ccc     C213186   6.349   4.388   6.154  0.0188 -0.0234 -1.2408
  507ccc     H113187   6.486   4.536   6.240 -2.8424 -1.5667  1.0230
  507ccc     H213188   6.301   4.369   6.250  1.2860  0.2894 -0.5255
  507ccc     C313189   6.267   4.497   6.077 -0.2977  0.3500  0.6037
  507ccc     C413190   6.352   4.538   5.949 -0.6845  0.7862 -0.1305
  507ccc     C513191   6.497   4.574   5.992  0.4348  1.0162 -0.1237
  507ccc     H313192   6.359   4.448   5.887 -0.6394 -0.0969  1.1091
  507ccc     H413193   6.267   4.590   6.135 -2.0158  0.8537 -0.1527
  507ccc     H513194   6.493   4.659   6.061  0.6567 -0.0624  1.2537
  507ccc     O113195   6.578   4.612   5.877 -0.2517  0.7521  0.2158
  507ccc     O213196   6.282   4.646   5.885 -0.1585  0.2564 -0.5214
  507ccc     O313197   6.139   4.459   6.040  0.6147  0.1190 -0.2639
  507ccc     O413198   6.351   4.259   6.087  0.4429 -0.1922 -0.2765
  507ccc     C613199   6.576   4.343   6.281  0.3610 -0.3496 -0.2843
  507ccc     H613200   6.076   4.469   6.115 -1.8080  2.3704 -2.3848
  507ccc     H713201   6.270   4.250   6.033  1.4344 -0.8272 -1.7246
  507ccc     H813202   6.197   4.602   5.866  0.0777 -1.1588  1.3946
  507ccc     H913203   6.599   4.260   6.213  0.9029  2.8551 -4.3653
  507ccc    H1013204   6.526   4.300   6.369  1.3856  0.5109  0.7544
  507ccc     O513205   6.698   4.397   6.323  0.3759 -0.9269  0.1309
  507ccc    H1113206   6.746   4.426   6.244  1.1399  0.5649  1.0723
  507ccc     O613207   6.566   4.468   6.068  0.3801 -0.1127  0.4486
  508ccc     C113208   8.770   4.380   5.361 -0.0002  0.6908  0.0929
  508ccc     C213209   8.833   4.451   5.481  0.6113  0.5079 -0.2717
  508ccc     H113210   8.856   4.373   5.293  0.8473  0.3727  1.1662
  508ccc     H213211   8.913   4.386   5.516 -1.5018 -1.6663  0.8234
  508ccc     C313212   8.891   4.586   5.443 -0.1403 -0.5357 -0.6178
  508ccc     C413213   8.793   4.678   5.355 -0.2012  0.5830 -0.2874
  508ccc     C513214   8.723   4.587   5.249  0.0854  0.1484  0.1602
  508ccc     H313215   8.713   4.715   5.420 -0.3590  1.5344 -1.0109
  508ccc     H413216   8.974   4.557   5.377 -0.2190 -0.0530 -0.9400
  508ccc     H513217   8.802   4.567   5.176 -1.3351  0.3570 -1.5029
  508ccc     O113218   8.609   4.670   5.201  0.0422  0.0361  0.0501
  508ccc     O213219   8.858   4.792   5.288 -0.0792  0.4612 -0.1690
  508ccc     O313220   8.934   4.661   5.564  0.2702  0.6986 -0.2797
  508ccc     O413221   8.731   4.456   5.580 -0.0859  0.8156 -0.0144
  508ccc     C613222   8.718   4.237   5.380  0.0955 -0.2228 -0.2329
  508ccc     H613223   9.014   4.714   5.552  0.2355  0.8659  0.1835
  508ccc     H713224   8.689   4.369   5.568 -0.2432  0.7600  0.9143
  508ccc     H813225   8.798   4.835   5.225  1.8561  0.1375 -2.3603
  508ccc     H913226   8.809   4.176   5.385  1.7289  1.8016 -2.4811
  508ccc    H1013227   8.671   4.203   5.286 -0.2337  2.2833 -1.0619
  508ccc     O513228   8.631   4.228   5.498  0.2903  0.4620 -0.0899
  508ccc    H1113229   8.557   4.181   5.457  0.7446  0.1689 -0.5882
  508ccc     O613230   8.663   4.461   5.305 -0.2182 -0.4807  0.2571
  509ccc     C113231   8.313   5.217   5.645 -0.5062  0.1400 -0.2824
  509ccc     C213232   8.378   5.350   5.613  0.2171  0.1304 -0.4142
  509ccc     H113233   8.397   5.146   5.639 -0.8689 -0.3388  0.2155
  509ccc     H213234   8.462   5.350   5.684 -0.0534 -0.6027 -0.0760
  509ccc     C313235   8.415   5.381   5.467  0.2118 -0.2912 -0.3411
  509ccc     C413236   8.334   5.310   5.360  0.2716 -0.3532 -0.1339
  509ccc     C513237   8.260   5.180   5.403 -0.2613  0.3212  0.4801
  509ccc     H313238   8.249   5.377   5.340 -1.9067 -2.2089  2.1206
  509ccc     H413239   8.521   5.353   5.457  0.0088 -1.3900  0.4749
  509ccc     H513240   8.328   5.094   5.392 -0.0181  0.2066  2.5184
  509ccc     O113241   8.136   5.169   5.318 -0.3235  0.2576 -0.9110
  509ccc     O213242   8.415   5.285   5.251 -0.4941  0.1147  0.1710
  509ccc     O313243   8.409   5.524   5.452 -0.1875  0.0349  0.5051
  509ccc     O413244   8.280   5.444   5.650 -0.4364  0.4750  0.1535
  509ccc     C613245   8.254   5.212   5.785 -0.3417  0.7364 -0.2377
  509ccc     H613246   8.495   5.542   5.409 -0.7630 -1.3730 -1.3514
  509ccc     H713247   8.309   5.511   5.585 -1.6130 -0.7749 -1.7573
  509ccc     H813248   8.432   5.370   5.206 -0.4937 -1.5060 -3.2700
  509ccc     H913249   8.157   5.262   5.799 -1.1089 -0.9400  0.8400
  509ccc    H1013250   8.330   5.240   5.859 -1.4962  0.9215  0.9255
  509ccc     O513251   8.235   5.071   5.802  0.1998 -0.4117  0.1336
  509ccc    H1113252   8.241   5.064   5.899  3.4383  1.0459  0.1687
  509ccc     O613253   8.218   5.179   5.543  0.6032  0.3300 -0.2913
  510SOL     OW13254   2.061  13.720  12.652 -0.1387  0.3961  0.7670
  510SOL    HW113255   2.083  13.813  12.642  1.7873 -0.1316 -0.3369
  510SOL    HW213256   2.115  13.690  12.725  0.6068 -0.2394 -0.0271
  511SOL     OW13257   0.711   8.830   4.373 -0.4312 -0.0338  0.0917
  511SOL    HW113258   0.662   8.764   4.324 -0.0942  0.9040 -1.5825
  511SOL    HW213259   0.709   8.908   4.318  2.1256  0.3382  0.3712
  512SOL     OW13260   1.269   3.660   3.973  0.0500 -0.4930  0.4604
  512SOL    HW113261   1.277   3.652   4.068  0.3620  2.1921  0.7157
  512SOL    HW213262   1.225   3.744   3.959 -2.1038 -1.8359 -1.7463
  513SOL     OW13263  10.257   3.154   1.042  0.3188  0.1027  0.0865
  513SOL    HW113264  10.238   3.065   1.011 -0.3521 -0.0506  0.9166
  513SOL    HW213265  10.275   3.144   1.135  0.4889  0.8078  0.1360
  514SOL     OW13266  12.286   9.095  13.138  1.1795 -0.0210  0.4291
  514SOL    HW113267  12.269   9.003  13.116 -0.9558  0.7638 -1.5572
  514SOL    HW213268  12.292   9.096  13.233 -1.7522 -1.8354  0.7469
  515SOL     OW13269  12.895   2.337   5.204  0.1804  0.2513 -1.1909
  515SOL    HW113270  12.913   2.306   5.115  3.1998 -2.6845  0.2175
  515SOL    HW213271  12.955   2.411   5.216 -1.0867  1.4333 -1.9051
  516SOL     OW13272   9.285   3.784   8.377  0.1553 -0.0635 -0.3254
  516SOL    HW113273   9.303   3.876   8.395 -0.4838  0.3066 -1.4455
  516SOL    HW213274   9.368   3.739   8.393  1.0849  1.0360 -1.8581
  517SOL     OW13275   6.077  11.991   2.935 -0.4371  1.1063  0.1712
  517SOL    HW113276   6.126  11.916   2.970 -0.3630  1.3653  0.6244
  517SOL    HW213277   6.145  12.052   2.906 -0.4705  0.3125 -1.7513
  518SOL     OW13278   9.502   6.891   7.678  0.0107 -0.2052  0.2467
  518SOL    HW113279   9.459   6.833   7.616  0.7030  0.4239 -0.8459
  518SOL    HW213280   9.593   6.862   7.678  0.3437  0.8038 -0.2427
  519SOL     OW13281   1.309   5.259   0.807 -0.0878 -0.3543  0.3824
  519SOL    HW113282   1.388   5.235   0.759 -0.3522 -0.3503 -0.0585
  519SOL    HW213283   1.248   5.289   0.740 -0.2756  0.1656  0.7732
  520SOL     OW13284  12.272   3.084  11.368  0.1665  0.0688  0.4666
  520SOL    HW113285  12.249   3.121  11.453 -2.0646  0.4232 -0.2307
  520SOL    HW213286  12.354   3.127  11.344 -0.5182  1.9133  1.2795
  521SOL     OW13287  11.628   7.766   2.622  0.4161 -0.7298 -0.3886
  521SOL    HW113288  11.720   7.786   2.604  0.2029  1.1282  0.3572
  521SOL    HW213289  11.627   7.740   2.714  0.0141  0.7323  0.0381
  522SOL     OW13290   3.575   5.375   7.696 -0.2277 -0.0551  0.0523
  522SOL    HW113291   3.652   5.379   7.639  0.6111 -0.7538  1.0985
  522SOL    HW213292   3.507   5.337   7.640 -0.5884  2.8076 -1.6379
  523SOL     OW13293   7.388  11.856  12.601 -0.2168 -0.4821  0.1594
  523SOL    HW113294   7.448  11.788  12.633  0.2340 -0.6023 -0.9124
  523SOL    HW213295   7.431  11.938  12.624 -0.5474 -0.5402  1.0526
  524SOL     OW13296   3.142   2.730   0.828  0.2354  0.2413  0.9466
  524SOL    HW113297   3.077   2.784   0.871  0.5431  0.5274  1.0530
  524SOL    HW213298   3.094   2.652   0.800  0.1318 -0.1773  2.2360
  525SOL     OW13299   8.659   2.136   5.942  0.8850  0.1601 -0.1055
  525SOL    HW113300   8.638   2.048   5.973 -1.8343  0.7893  0.0631
  525SOL    HW213301   8.655   2.129   5.846 -1.9936  0.5745 -0.0971
  526SOL     OW13302   2.321   2.496   1.268 -0.2079  0.3328 -0.0156
  526SOL    HW113303   2.378   2.555   1.319 -1.3430  0.7164  0.8705
  526SOL    HW213304   2.284   2.437   1.334  0.0952 -0.6969 -0.7540
  527SOL     OW13305   1.642  12.124  11.969 -0.3423 -0.3464 -1.3563
  527SOL    HW113306   1.702  12.072  11.916  0.8994  1.0439 -1.3732
  527SOL    HW213307   1.697  12.161  12.038 -1.5201 -0.4082 -0.3405
  528SOL     OW13308   0.853  13.626  12.841 -0.1769 -0.4637  0.0272
  528SOL    HW113309   0.943  13.621  12.872 -0.4218 -0.7872  0.7230
  528SOL    HW213310   0.860  13.633  12.746  0.6397  1.9435  0.2017
  529SOL     OW13311   4.065   3.407   7.213  0.5392  0.3146 -0.3242
  529SOL    HW113312   4.029   3.489   7.248 -1.2514 -1.6785  3.1110
  529SOL    HW213313   4.004   3.383   7.143  0.8968  1.6620 -1.1485
  530SOL     OW13314   1.552   1.904  13.398  0.0596 -0.0249 -0.1799
  530SOL    HW113315   1.517   1.985  13.434  0.8202 -0.8631  2.6652
  530SOL    HW213316   1.490   1.836  13.425  0.4565 -0.6644 -0.8136
  531SOL     OW13317  11.444   2.419   8.083  0.4506 -0.9540  0.4293
  531SOL    HW113318  11.521   2.374   8.049  1.2202 -0.5407  1.5869
  531SOL    HW213319  11.455   2.417   8.178  0.1900  1.0895  0.5441
  532SOL     OW13320   1.880   0.731  11.729  0.8034 -0.0030 -0.0166
  532SOL    HW113321   1.929   0.765  11.654  2.6293  0.7230  1.4251
  532SOL    HW213322   1.838   0.808  11.767 -0.1137 -0.3668 -0.2614
  533SOL     OW13323  12.494   8.822  13.002  0.1075 -0.9480 -0.2831
  533SOL    HW113324  12.491   8.804  12.908  0.6504 -1.8831 -0.1355
  533SOL    HW213325  12.484   8.736  13.043 -0.6734 -0.4841  0.5324
  534SOL     OW13326   4.445  11.023   4.360 -0.3450  0.3085  0.3318
  534SOL    HW113327   4.394  11.103   4.346  0.8291  1.1263  0.5780
  534SOL    HW213328   4.498  11.042   4.438  0.9480 -0.1906 -0.4037
  535SOL     OW13329  12.143   6.281  10.830  0.8291  0.1880  0.3327
  535SOL    HW113330  12.164   6.281  10.737  1.7783 -1.5689  0.5044
  535SOL    HW213331  12.058   6.323  10.835  0.0082 -1.0925 -1.5442
  536SOL     OW13332   7.176   9.619   9.629  0.4780  0.4000 -0.3268
  536SOL    HW113333   7.093   9.666   9.644  0.3641  0.4841 -1.1860
  536SOL    HW213334   7.241   9.688   9.618  0.9902  0.3504  1.9072
  537SOL     OW13335   8.668   5.437   4.927 -0.1243  0.3797  0.1203
  537SOL    HW113336   8.696   5.346   4.920 -0.8157  0.0021  1.6401
  537SOL    HW213337   8.693   5.478   4.844  1.6329 -0.7935  0.0343
  538SOL     OW13338   0.719   5.847   6.568  0.8486  0.2086 -0.4775
  538SOL    HW113339   0.682   5.908   6.505 -1.3383 -0.3089  0.2143
  538SOL    HW213340   0.804   5.884   6.591 -0.2253  2.7828 -0.3688
  539SOL     OW13341   5.970   9.585   4.336 -0.4057  0.3668 -0.0470
  539SOL    HW113342   5.879   9.584   4.364  0.1270  0.7796  1.8040
  539SOL    HW213343   5.977   9.511   4.276 -1.7269 -0.2792  0.5532
  540SOL     OW13344   1.210  11.958  10.878 -0.3237  0.7734 -0.2630
  540SOL    HW113345   1.144  11.893  10.854  1.4064 -1.1999 -0.0508
  540SOL    HW213346   1.198  11.972  10.971  0.4605 -0.7735  0.1082
  541SOL     OW13347   1.845  11.140   3.255 -0.6837 -0.1863  0.5460
  541SOL    HW113348   1.816  11.124   3.165  0.3358  0.0924  0.1529
  541SOL    HW213349   1.822  11.060   3.302 -1.4072 -0.2598  0.0870
  542SOL     OW13350   4.967   1.136   7.436 -0.4910  0.4326  0.3870
  542SOL    HW113351   4.984   1.193   7.361  1.5686  1.0637  1.2564
  542SOL    HW213352   4.916   1.190   7.496 -0.8074  0.4587  0.0955
  543SOL     OW13353   2.442   7.103   8.750 -0.1868 -0.0800 -0.0417
  543SOL    HW113354   2.353   7.067   8.747 -0.7440  1.2663 -2.5993
  543SOL    HW213355   2.431   7.195   8.728  1.7034  0.5660  1.4577
  544SOL     OW13356  11.673   7.420   4.290  0.4125 -0.3414 -0.4983
  544SOL    HW113357  11.697   7.394   4.201 -0.1712  1.5103 -1.2378
  544SOL    HW213358  11.730   7.368   4.347  0.7116 -1.6430 -1.9301
  545SOL     OW13359   0.066   8.020  11.403  0.0496  0.3338 -0.1157
  545SOL    HW113360  -0.009   8.079  11.398 -0.7522 -0.3087  2.6249
  545SOL    HW213361   0.027   7.933  11.413  1.1977 -0.3311 -1.2062
  546SOL     OW13362   9.103   4.628   0.634 -0.1054 -0.3329  0.5871
  546SOL    HW113363   9.135   4.696   0.694 -0.4659 -1.8990  2.7113
  546SOL    HW213364   9.171   4.560   0.638 -0.9046 -1.1524  0.4810
  547SOL     OW13365   3.525   4.811   9.745  0.4242  0.0627  0.4328
  547SOL    HW113366   3.572   4.892   9.723  0.0196 -0.5048 -3.1234
  547SOL    HW213367   3.433   4.831   9.728  0.2253 -0.9172  0.3111
  548SOL     OW13368   8.774   1.276   9.902 -0.3431 -0.2835 -0.1606
  548SOL    HW113369   8.853   1.288   9.850  0.0147 -0.9715  0.2128
  548SOL    HW213370   8.733   1.362   9.904  1.6822  0.7509  1.7547
  549SOL     OW13371   8.993   2.661   2.710  0.5588 -0.0272  0.1875
  549SOL    HW113372   9.021   2.745   2.747  0.4620  0.0905 -0.0061
  549SOL    HW213373   8.906   2.678   2.674  0.7226 -0.0967 -0.2463
  550SOL     OW13374   6.529   1.398   0.455  0.1191 -0.3888  0.0394
  550SOL    HW113375   6.590   1.421   0.386  0.1562  2.1464  0.8242
  550SOL    HW213376   6.471   1.333   0.416  0.8883  0.0803 -1.9716
  551SOL     OW13377   1.178  10.053   1.506 -0.1684 -0.2161  1.0063
  551SOL    HW113378   1.151   9.965   1.533 -3.5795  0.9091  1.8572
  551SOL    HW213379   1.170  10.105   1.586 -0.9080  1.3361 -0.0339
  552SOL     OW13380  10.991   4.910   1.790  0.3174  0.5949 -0.5618
  552SOL    HW113381  10.931   4.979   1.762 -0.5303  0.2515  0.3375
  552SOL    HW213382  10.936   4.849   1.840  1.4722  0.4614  0.5968
  553SOL     OW13383   5.914   2.940  11.432  0.0241 -0.5117  0.7394
  553SOL    HW113384   5.943   2.884  11.360 -0.1741  0.7013 -0.3307
  553SOL    HW213385   5.887   2.880  11.501 -1.0642 -1.7403 -0.7063
  554SOL     OW13386  10.279   1.690  11.805  0.1129  0.3414 -0.0085
  554SOL    HW113387  10.282   1.616  11.867 -1.3868 -0.0171 -0.3140
  554SOL    HW213388  10.351   1.673  11.744  1.4155  0.5278  1.4081
  555SOL     OW13389   8.492   5.042   8.574 -0.8518  0.2217 -0.1786
  555SOL    HW113390   8.471   5.101   8.646 -0.8313 -0.0677  0.0643
  555SOL    HW213391   8.447   4.960   8.595  1.7384 -0.9666  1.1918
  556SOL     OW13392   0.575  11.162   0.999  0.4136 -0.8414  0.0898
  556SOL    HW113393   0.612  11.170   1.086  2.1750 -2.0181 -0.5025
  556SOL    HW213394   0.642  11.117   0.948 -1.5737 -2.4803 -1.2339
  557SOL     OW13395  13.090   1.338  10.011  0.4299  0.1461 -0.3636
  557SOL    HW113396  13.180   1.315  10.035 -0.2894 -1.4820  0.9434
  557SOL    HW213397  13.069   1.414  10.066  0.6059 -0.2263  0.2207
  558SOL     OW13398   6.930   9.651   6.086  0.0124  0.3681  0.4349
  558SOL    HW113399   6.888   9.656   6.000  0.0804  1.0395  0.4337
  558SOL    HW213400   6.864   9.685   6.146 -0.5770 -1.4313  0.8637
  559SOL     OW13401   6.736   0.109   2.271  0.1182 -0.1514  0.2785
  559SOL    HW113402   6.777   0.139   2.189  1.0050  0.8074  1.0407
  559SOL    HW213403   6.785   0.154   2.340 -1.7234  0.4130  1.2849
  560SOL     OW13404  13.578  13.551  12.586  0.4934 -0.4548  0.1785
  560SOL    HW113405  13.489  13.521  12.565 -0.0263  1.0647  0.0451
  560SOL    HW213406  13.590  13.529  12.679  0.5316 -1.9232 -0.1597
  561SOL     OW13407  10.982   3.094   0.332 -0.4081  0.0586  0.2691
  561SOL    HW113408  11.001   3.126   0.244  1.0993 -1.3522  0.0353
  561SOL    HW213409  10.905   3.039   0.321 -0.2815 -0.0397 -0.1499
  562SOL     OW13410   9.772   5.248   7.995  0.5280  0.2070  0.5376
  562SOL    HW113411   9.851   5.274   8.042 -0.1183  0.9139  1.2608
  562SOL    HW213412   9.717   5.326   7.996  0.6423  0.3875 -1.7760
  563SOL     OW13413   4.023   3.482   9.021  0.4064  0.5779  0.1825
  563SOL    HW113414   4.005   3.448   8.933  1.8666  2.0081 -0.7282
  563SOL    HW213415   4.091   3.425   9.056  0.1122  0.2554  0.2400
  564SOL     OW13416  13.233   2.170  13.569  0.2311  0.2404  0.4927
  564SOL    HW113417  13.190   2.255  13.574 -0.5114 -0.1349  0.4918
  564SOL    HW213418  13.327   2.192  13.567  0.0303  1.0802 -0.2140
  565SOL     OW13419   0.088   0.394   7.503  0.5168 -0.0229  0.2603
  565SOL    HW113420   0.150   0.418   7.435 -0.5887  0.1307 -0.7378
  565SOL    HW213421   0.086   0.469   7.562  1.0676  0.0859  0.1397
  566SOL     OW13422   1.216  13.384   7.169 -0.4674 -0.3110  0.7314
  566SOL    HW113423   1.160  13.324   7.120  0.4882  0.1114 -0.9570
  566SOL    HW213424   1.163  13.462   7.182 -0.3037  0.1166 -0.9223
  567SOL     OW13425  10.805  13.300   5.078 -0.0051 -0.3299 -1.0419
  567SOL    HW113426  10.735  13.264   5.024 -0.2760  0.1860 -1.0498
  567SOL    HW213427  10.885  13.259   5.045 -0.2578 -0.6080 -1.3115
  568SOL     OW13428   7.378   0.606   2.106  0.1132 -0.4707  0.0183
  568SOL    HW113429   7.441   0.666   2.066 -0.6467 -0.7648 -1.7420
  568SOL    HW213430   7.301   0.660   2.123  0.6959 -0.1642  1.9509
  569SOL     OW13431   1.286   6.343   6.587  0.1229 -0.3557 -0.3827
  569SOL    HW113432   1.210   6.291   6.612 -0.4322 -0.9867 -3.1153
  569SOL    HW213433   1.256   6.434   6.594 -0.3257 -0.5359  0.1428
  570SOL     OW13434   8.851   9.407  10.925  0.3655  0.0351 -0.0127
  570SOL    HW113435   8.830   9.390  11.017 -1.1660  1.0603 -0.1291
  570SOL    HW213436   8.905   9.333  10.898  0.3057 -0.6022  1.5330
  571SOL     OW13437  13.025   6.119  13.303 -0.2216  0.7104 -0.6452
  571SOL    HW113438  12.931   6.134  13.293 -0.3940 -0.0209 -0.1141
  571SOL    HW213439  13.065   6.198  13.266 -1.0824  1.9213  0.9070
  572SOL     OW13440   9.363  10.851  11.239 -0.7070  0.0363 -0.4358
  572SOL    HW113441   9.448  10.877  11.274 -0.7237 -1.7601  1.0725
  572SOL    HW213442   9.365  10.882  11.148  0.9368  1.3380 -0.0114
  573SOL     OW13443   0.181  12.164  11.049  0.2317 -0.4710  0.6637
  573SOL    HW113444   0.109  12.129  11.100 -1.3826  0.4413 -0.8677
  573SOL    HW213445   0.164  12.258  11.043  0.7737 -0.4316 -0.8548
  574SOL     OW13446  12.319   6.226   4.872 -0.2944 -0.7007 -0.3583
  574SOL    HW113447  12.272   6.298   4.829  0.2614  0.2343  0.5392
  574SOL    HW213448  12.306   6.242   4.965  1.1580 -0.8560 -0.1065
  575SOL     OW13449   8.951   6.441   9.121 -0.5421  0.3463 -0.0166
  575SOL    HW113450   8.919   6.353   9.100 -0.4732  0.6686 -1.6463
  575SOL    HW213451   8.882   6.500   9.091 -1.0820  0.8607  2.0620
  576SOL     OW13452   2.657   6.900   9.231 -0.2961  0.3166 -0.3645
  576SOL    HW113453   2.665   6.990   9.198 -2.3855  1.2401  1.4666
  576SOL    HW213454   2.625   6.850   9.156  0.8628  1.0506 -1.3977
  577SOL     OW13455   9.910  13.289   5.815 -0.8550 -0.5031  0.2066
  577SOL    HW113456   9.819  13.304   5.787 -0.8008  1.2232  0.8438
  577SOL    HW213457   9.902  13.267   5.908 -0.5462  1.9804  0.9111
  578SOL     OW13458   6.291   3.060   8.484  0.3732 -0.1407  0.3091
  578SOL    HW113459   6.349   3.056   8.407  0.6772 -0.2857  0.5454
  578SOL    HW213460   6.313   3.143   8.526  1.1529 -0.6709  0.9787
  579SOL     OW13461   2.200  12.026   0.904 -0.2625  0.6625 -0.0506
  579SOL    HW113462   2.251  11.986   0.974  0.2265 -1.2925 -1.4426
  579SOL    HW213463   2.206  11.964   0.831 -1.0976  2.4083 -1.7004
  580SOL     OW13464   8.763   3.693   4.132  0.0199  0.0318 -0.8528
  580SOL    HW113465   8.813   3.696   4.213 -0.9311  3.7992 -0.2434
  580SOL    HW213466   8.672   3.686   4.161 -0.1944 -2.1687 -1.8160
  581SOL     OW13467   8.624  11.786   9.434  0.1885  0.1977  0.0929
  581SOL    HW113468   8.684  11.719   9.403  0.8821 -0.1448  2.0362
  581SOL    HW213469   8.667  11.869   9.412  0.0833  0.0029 -0.8931
  582SOL     OW13470  10.765   8.654   9.326  0.3446  0.0006  0.1918
  582SOL    HW113471  10.825   8.639   9.252 -0.2211  2.1997 -0.7942
  582SOL    HW213472  10.722   8.569   9.339  0.4233 -0.4555 -2.0561
  583SOL     OW13473   3.684  10.020   7.435 -0.1431 -0.1994 -0.4287
  583SOL    HW113474   3.678   9.931   7.400  1.1013 -1.5289  2.3463
  583SOL    HW213475   3.773  10.048   7.417  0.5799 -0.9803  1.5829
  584SOL     OW13476   7.035   2.909   6.871  0.7721 -0.0779  0.5264
  584SOL    HW113477   7.100   2.961   6.920  1.0601  0.9121 -0.8536
  584SOL    HW213478   7.029   2.952   6.786 -1.7395 -0.1386  0.6048
  585SOL     OW13479   0.519   3.079   4.976  1.0027 -0.9510  0.4166
  585SOL    HW113480   0.538   3.113   5.064  1.0929  0.0675  0.0209
  585SOL    HW213481   0.456   3.009   4.990 -0.9298  0.8257  1.1313
  586SOL     OW13482   4.467  10.327   3.606 -0.3254  0.6117 -0.1624
  586SOL    HW113483   4.486  10.372   3.689 -0.3701 -1.2472  0.9092
  586SOL    HW213484   4.553  10.320   3.563  0.0817 -0.3527  0.7677
  587SOL     OW13485   7.862   3.022  12.240 -0.1150  0.2748  0.1164
  587SOL    HW113486   7.782   3.013  12.188 -0.6242 -0.2177  0.9551
  587SOL    HW213487   7.929   3.045  12.177 -1.1185  1.7536 -0.4631
  588SOL     OW13488   6.748   8.111   2.831  0.1943 -0.5232  0.0066
  588SOL    HW113489   6.783   8.122   2.920  0.0941 -1.5061  0.1747
  588SOL    HW213490   6.732   8.017   2.823  0.0416 -0.4178 -0.9980
  589SOL     OW13491   6.172  11.951  11.935 -0.1907  0.2237  0.3730
  589SOL    HW113492   6.267  11.962  11.931 -0.2005  0.3548  0.5100
  589SOL    HW213493   6.139  12.002  11.861 -0.3365  2.2494  1.7799
  590SOL     OW13494  13.512   1.894   9.878 -0.4783 -0.0240 -0.0574
  590SOL    HW113495  13.426   1.857   9.862  0.1334 -1.2828 -0.5399
  590SOL    HW213496  13.514   1.911   9.972 -1.2239 -0.0494 -0.0348
  591SOL     OW13497   0.521   4.416   8.069  0.3388 -0.0815 -0.2747
  591SOL    HW113498   0.582   4.486   8.094  1.0876 -0.9813  0.5097
  591SOL    HW213499   0.472   4.397   8.149 -0.6014  0.2518 -0.7593
  592SOL     OW13500  11.092  12.661   5.877 -0.0642 -0.5034  0.1477
  592SOL    HW113501  11.114  12.571   5.853  2.1368  0.4316 -1.7845
  592SOL    HW213502  10.998  12.668   5.864  0.1970 -1.6435 -3.2150
  593SOL     OW13503   1.825   7.125  11.651 -0.5929 -0.5463 -0.4361
  593SOL    HW113504   1.753   7.131  11.588 -0.9748  1.6241  0.1444
  593SOL    HW213505   1.895   7.177  11.613 -1.0416  1.3182  1.1341
  594SOL     OW13506   1.535   2.981  12.777  0.0837  0.3324  0.2608
  594SOL    HW113507   1.441   2.965  12.792 -0.0377  0.6705 -0.1133
  594SOL    HW213508   1.577   2.953  12.858 -0.3793  0.4895  0.5635
  595SOL     OW13509  13.722  11.263   5.744 -0.2094  0.2035  0.6549
  595SOL    HW113510  13.644  11.318   5.738  0.0922  0.6518  0.8114
  595SOL    HW213511  13.772  11.300   5.817  0.2178  0.0051  0.4686
  596SOL     OW13512   4.025   6.891  13.254  0.0641 -0.1784  0.2655
  596SOL    HW113513   3.960   6.953  13.286 -1.0758 -0.1380 -1.9521
  596SOL    HW213514   3.984   6.805  13.263  0.9343 -0.4889  1.6399
  597SOL     OW13515   7.010  10.177   7.683 -0.6404  0.2690 -0.2975
  597SOL    HW113516   6.960  10.097   7.668 -1.6311  0.8536 -0.2452
  597SOL    HW213517   7.089  10.167   7.632  0.0065 -1.4253  0.9520
  598SOL     OW13518   6.755   4.551  11.611 -0.0916 -0.5255  0.0351
  598SOL    HW113519   6.803   4.506  11.541 -0.4448  0.5130 -0.9064
  598SOL    HW213520   6.796   4.637  11.618 -0.3793 -0.4371  0.7710
  599SOL     OW13521   2.507  10.258   5.797 -0.0177  0.1606  0.2671
  599SOL    HW113522   2.469  10.297   5.718 -1.2226  1.3864  1.3759
  599SOL    HW213523   2.553  10.331   5.839 -1.1214  0.1030  1.6784
  600SOL     OW13524   0.230   1.129  10.778 -0.5796 -0.1458 -0.4766
  600SOL    HW113525   0.273   1.139  10.863 -0.7692 -0.8314 -0.2960
  600SOL    HW213526   0.137   1.134  10.797 -0.7528 -2.6351 -0.2610
  601SOL     OW13527   6.588  12.624   7.953  0.2170 -0.0039  0.2837
  601SOL    HW113528   6.499  12.590   7.941  0.5629 -1.2236  0.9869
  601SOL    HW213529   6.619  12.582   8.033  1.4796  0.2948 -0.0248
  602SOL     OW13530  12.813   9.542   0.364  0.1002  0.1047 -0.2325
  602SOL    HW113531  12.727   9.580   0.381  0.1616  0.1458  0.0017
  602SOL    HW213532  12.805   9.499   0.279  0.6508  2.5249 -1.6012
  603SOL     OW13533   9.704   4.289  11.427  0.2117 -0.1444  0.4648
  603SOL    HW113534   9.618   4.301  11.468 -0.4586 -3.5463  0.4072
  603SOL    HW213535   9.744   4.217  11.477  2.1320 -0.0560 -0.8390
  604SOL     OW13536   5.353   8.927  10.302  0.4866 -0.0744  0.5871
  604SOL    HW113537   5.324   9.018  10.299 -1.5265 -0.6207  1.5489
  604SOL    HW213538   5.448   8.932  10.300  0.4112  1.9780 -0.5964
  605SOL     OW13539   9.030   5.703  11.073  0.1779  0.4659  0.1407
  605SOL    HW113540   8.974   5.760  11.126 -0.0475  0.2029  0.1877
  605SOL    HW213541   9.095   5.669  11.134  0.4409  0.8364  0.0694
  606SOL     OW13542  12.406   0.423   6.208 -0.1448  0.2215  0.0700
  606SOL    HW113543  12.356   0.492   6.165 -1.4678  0.2185  1.4981
  606SOL    HW213544  12.396   0.347   6.151  0.6993  0.9956 -1.1348
  607SOL     OW13545   0.992   0.785   7.465  0.6631  0.5744 -0.4643
  607SOL    HW113546   0.938   0.841   7.409 -1.0375 -0.7327 -0.2141
  607SOL    HW213547   0.981   0.821   7.553  0.8694  0.7790 -0.5185
  608SOL     OW13548   7.365  13.271   5.252  0.4795  0.0110 -0.6274
  608SOL    HW113549   7.440  13.314   5.210  0.6879  0.0590 -0.2038
  608SOL    HW213550   7.356  13.188   5.204  1.1373 -0.2374 -0.3321
  609SOL     OW13551   8.294   3.514   2.815  0.7267  0.9509  0.3265
  609SOL    HW113552   8.316   3.551   2.900  2.5381  0.3812  0.1513
  609SOL    HW213553   8.377   3.482   2.780 -0.3282 -1.0327 -0.5978
  610SOL     OW13554   1.482   3.893   5.130  0.0860  0.4734  0.2036
  610SOL    HW113555   1.494   3.987   5.119  0.9510  0.4183  0.6223
  610SOL    HW213556   1.557   3.865   5.183 -0.8592 -0.2325  1.2043
  611SOL     OW13557   2.986  12.512   1.313  0.5532  0.0173  0.5658
  611SOL    HW113558   2.966  12.508   1.406 -2.6064 -1.2938 -0.0642
  611SOL    HW213559   3.007  12.422   1.288  0.2455  0.1476 -0.2098
  612SOL     OW13560   5.952   5.526   9.151  0.4834  0.5685 -0.3355
  612SOL    HW113561   6.012   5.515   9.225  0.8728  1.1298 -0.5642
  612SOL    HW213562   5.986   5.467   9.084 -0.4420 -0.6885  0.2670
  613SOL     OW13563   7.326  12.682  10.691 -0.2541 -0.1330 -0.4542
  613SOL    HW113564   7.275  12.603  10.709 -2.2410  1.1026 -0.3530
  613SOL    HW213565   7.278  12.752  10.736  1.3955  1.1644 -0.6159
  614SOL     OW13566   5.568   9.934   3.352  0.4261  0.6313  0.7730
  614SOL    HW113567   5.623   9.898   3.422  0.3956  1.1480  1.0699
  614SOL    HW213568   5.479   9.931   3.387  0.3717  0.5958  0.6331
  615SOL     OW13569  11.314  12.037   0.589  0.0604 -0.0850 -0.0695
  615SOL    HW113570  11.278  12.019   0.502  0.5501 -0.3931 -0.2095
  615SOL    HW213571  11.362  11.957   0.613  1.8681  0.8334 -0.4978
  616SOL     OW13572   5.030   9.616  11.512  0.1273  0.3719 -0.7233
  616SOL    HW113573   4.947   9.593  11.472  0.6393 -3.2429 -0.0578
  616SOL    HW213574   5.087   9.640  11.439 -0.3776 -1.1339 -1.6411
  617SOL     OW13575   5.083  10.453   0.660  0.0035 -0.1206  0.2715
  617SOL    HW113576   5.127  10.526   0.703  0.7661  0.2712 -1.1285
  617SOL    HW213577   4.995  10.486   0.643 -0.1307 -0.0825  0.9741
  618SOL     OW13578  12.266   1.421  10.440  0.1174  0.2127 -0.0387
  618SOL    HW113579  12.361   1.416  10.447  0.1001 -1.1635 -0.5767
  618SOL    HW213580  12.233   1.361  10.506 -0.3796  0.4452 -0.0676
  619SOL     OW13581  12.929   1.095   7.647 -0.3579  0.0348 -0.0031
  619SOL    HW113582  12.897   1.151   7.718 -0.3631 -0.5330  0.4546
  619SOL    HW213583  13.020   1.122   7.635 -0.5486  0.5787 -0.2276
  620SOL     OW13584   4.856   1.661   0.939  0.0600 -0.1013 -0.0946
  620SOL    HW113585   4.896   1.680   1.024  0.2151 -0.7681 -0.0179
  620SOL    HW213586   4.769   1.628   0.960 -0.9455  2.1832 -0.2789
  621SOL     OW13587  12.932  13.712   9.195 -0.2254  0.3183  0.3086
  621SOL    HW113588  12.904  13.671   9.277 -2.0323  1.8291  0.5138
  621SOL    HW213589  13.009  13.763   9.219  1.2769 -1.7800  0.3105
  622SOL     OW13590   2.004   3.967   0.420  0.5835 -0.5398 -0.5539
  622SOL    HW113591   1.993   3.959   0.514  1.4959 -2.1169 -0.5361
  622SOL    HW213592   2.067   4.037   0.408  0.5330 -0.4001  0.0166
  623SOL     OW13593   5.393   3.546   2.310  0.0390  0.1436 -0.3492
  623SOL    HW113594   5.372   3.636   2.286 -1.1684 -0.3990 -1.3874
  623SOL    HW213595   5.445   3.513   2.237 -2.2733 -0.9966 -1.5756
  624SOL     OW13596  10.264   1.451   9.331 -0.0968 -0.2568  0.2472
  624SOL    HW113597  10.333   1.515   9.314  2.6353 -2.4627  2.1142
  624SOL    HW213598  10.202   1.497   9.386  1.5130  0.9852  1.1175
  625SOL     OW13599   3.163  11.552   3.359  0.2444  0.5964  0.1419
  625SOL    HW113600   3.130  11.474   3.402 -1.6788  0.4306 -1.4981
  625SOL    HW213601   3.257  11.538   3.352 -0.1059 -1.8011 -0.5213
  626SOL     OW13602  10.216   0.774   6.191 -0.0898 -0.2215  0.2081
  626SOL    HW113603  10.301   0.731   6.192  0.7360  1.3367  0.2799
  626SOL    HW213604  10.229   0.853   6.138 -1.4196  0.1727  0.4219
  627SOL     OW13605   0.738   2.740  13.594 -0.3890  0.5300  0.0105
  627SOL    HW113606   0.670   2.753  13.660 -0.2026 -0.4042  0.4038
  627SOL    HW213607   0.698   2.770  13.512 -1.5680 -0.6652  0.0985
  628SOL     OW13608  12.980   6.944   9.536  0.4610  0.6686 -0.3248
  628SOL    HW113609  12.919   7.007   9.575 -0.5999 -1.2124  1.2432
  628SOL    HW213610  13.018   6.898   9.610 -0.2170 -1.7800 -1.3838
  629SOL     OW13611   0.206   4.449   1.521 -0.1556 -0.0710  0.4030
  629SOL    HW113612   0.290   4.458   1.475  0.8315  0.8489  2.2481
  629SOL    HW213613   0.165   4.535   1.513 -0.1321 -0.0065  0.8917
  630SOL     OW13614   7.143   9.659   2.155  0.0787  0.5510  0.0599
  630SOL    HW113615   7.187   9.715   2.091  0.2545  0.0889 -0.2311
  630SOL    HW213616   7.185   9.679   2.238 -1.0769  2.1596  0.3005
  631SOL     OW13617   5.861   0.297   2.069 -0.2972 -0.0607 -0.5323
  631SOL    HW113618   5.891   0.209   2.092  0.8090  1.0869  2.9795
  631SOL    HW213619   5.807   0.324   2.143 -0.1949  2.4237 -1.2939
  632SOL     OW13620  13.418   7.184   0.014 -0.6304 -0.2043 -0.0070
  632SOL    HW113621  13.506   7.210  -0.015 -0.6377 -0.4531 -0.2535
  632SOL    HW213622  13.429   7.168   0.108 -0.0086 -1.8395 -0.3200
  633SOL     OW13623   4.395  10.886   3.219  0.4174 -0.6442 -0.3520
  633SOL    HW113624   4.379  10.967   3.172  0.8271 -0.4113 -0.0979
  633SOL    HW213625   4.326  10.826   3.190 -0.5125  0.1129  0.2395
  634SOL     OW13626   5.543  11.042   7.702 -0.4501  0.6331 -0.0545
  634SOL    HW113627   5.526  10.957   7.741  1.1058 -0.3482 -1.3876
  634SOL    HW213628   5.512  11.034   7.611  0.1018  1.3313 -0.3191
  635SOL     OW13629   5.038   3.700   5.849 -0.1330  0.2516  0.0050
  635SOL    HW113630   5.060   3.614   5.885 -0.7595  0.5079  1.0249
  635SOL    HW213631   5.102   3.760   5.886  0.6408  0.1582 -1.1310
  636SOL     OW13632   4.525  13.018   2.021 -0.6271  0.3864  0.4404
  636SOL    HW113633   4.550  13.108   2.002  1.3101 -0.2423 -0.3531
  636SOL    HW213634   4.521  13.013   2.116 -0.2128  1.1817  0.5049
  637SOL     OW13635  10.679   7.332   0.552 -0.3265 -0.3817  0.5831
  637SOL    HW113636  10.696   7.379   0.470  0.6689 -0.4667  0.7253
  637SOL    HW213637  10.761   7.286   0.570 -1.0103 -1.5141  0.8831
  638SOL     OW13638  11.204   0.226   1.113 -0.3807 -0.5636  0.2188
  638SOL    HW113639  11.198   0.321   1.111 -0.9649 -0.5616  1.2137
  638SOL    HW213640  11.271   0.207   1.179 -0.4901 -0.8456  0.2517
  639SOL     OW13641   6.294   2.548   5.774 -0.0897  0.2997 -0.9514
  639SOL    HW113642   6.233   2.592   5.833  0.8570 -0.5697  0.7440
  639SOL    HW213643   6.351   2.618   5.743 -0.8983  0.8449 -1.2480
  640SOL     OW13644   4.607   9.157   0.926  0.3219 -0.3225  0.0886
  640SOL    HW113645   4.605   9.101   1.003  2.1045 -3.2516 -1.8024
  640SOL    HW213646   4.516   9.162   0.897 -0.3993  0.9928  2.3808
  641SOL     OW13647   3.281  13.434   7.138 -0.6641 -0.8125  0.7136
  641SOL    HW113648   3.347  13.367   7.124  0.4426  0.7871 -3.0694
  641SOL    HW213649   3.198  13.389   7.125  0.0252 -1.7095 -0.9602
  642SOL     OW13650   7.498  10.151   3.084 -0.2004 -0.2391 -0.3953
  642SOL    HW113651   7.514  10.099   3.164 -1.2804  0.9145  0.6077
  642SOL    HW213652   7.451  10.091   3.026 -0.5934 -0.6879  0.3694
  643SOL     OW13653  12.180   0.905   7.843  0.2791  0.1969 -0.3948
  643SOL    HW113654  12.111   0.847   7.873 -0.6130  2.3221  2.0516
  643SOL    HW213655  12.159   0.923   7.751 -2.0124  0.2197  0.0862
  644SOL     OW13656   0.848   1.102  13.464 -0.2347  0.4017 -0.0463
  644SOL    HW113657   0.792   1.024  13.453  0.0592 -0.2915  2.6452
  644SOL    HW213658   0.936   1.071  13.445 -0.2301  0.2966  0.1396
  645SOL     OW13659   1.692  11.185   9.275  0.0077 -0.2755  0.2487
  645SOL    HW113660   1.757  11.115   9.275 -0.3504 -0.6184  0.1429
  645SOL    HW213661   1.723  11.247   9.209 -0.5294 -1.1769 -0.8959
  646SOL     OW13662   3.217   3.701   6.362 -0.1598 -0.0543 -0.3785
  646SOL    HW113663   3.165   3.627   6.393 -0.8810  1.0126  1.0681
  646SOL    HW213664   3.209   3.698   6.267 -1.8528 -0.6464 -0.2386
  647SOL     OW13665  11.509   0.288  11.650 -0.2862  0.2435  0.3902
  647SOL    HW113666  11.453   0.260  11.723  0.3611  1.4601  1.3872
  647SOL    HW213667  11.486   0.380  11.637  0.8587  0.5235  0.2467
  648SOL     OW13668   5.318   8.659   4.964  0.4521 -0.4541  0.0223
  648SOL    HW113669   5.303   8.713   4.886  0.2702  0.4630  0.6761
  648SOL    HW213670   5.272   8.706   5.034  2.2389 -0.2134  1.0792
  649SOL     OW13671  10.538   8.857  13.222  0.0942  0.2711 -0.4295
  649SOL    HW113672  10.552   8.804  13.143  1.6093 -0.9737  0.5941
  649SOL    HW213673  10.519   8.945  13.189 -0.0008 -0.3586 -2.1817
  650SOL     OW13674   0.145  10.041   2.656  0.3668  0.4263 -0.1772
  650SOL    HW113675   0.217  10.100   2.633  1.3604 -0.2908  1.0114
  650SOL    HW213676   0.087  10.094   2.711  1.7063  0.1025  1.6261
  651SOL     OW13677   0.074  12.522   9.985  0.0370  0.0283 -0.4857
  651SOL    HW113678   0.089  12.615   9.966 -0.2972  0.7931  2.4471
  651SOL    HW213679   0.158  12.490  10.016 -0.5808  0.3683  1.7916
  652SOL     OW13680   5.834  10.641   2.101  0.1490  0.2528  0.3818
  652SOL    HW113681   5.861  10.723   2.061 -1.6826  0.9984  0.5696
  652SOL    HW213682   5.866  10.573   2.041  1.6887  1.0814  0.2316
  653SOL     OW13683  11.908   0.756  12.894  0.2035  0.3352  0.1385
  653SOL    HW113684  11.955   0.794  12.968  0.1158 -0.0035  0.3691
  653SOL    HW213685  11.958   0.677  12.873 -0.1007  0.1273  0.2026
  654SOL     OW13686  13.240   9.712   6.894 -0.6206  0.4493  0.3836
  654SOL    HW113687  13.171   9.645   6.905 -1.6534  1.2140 -1.0189
  654SOL    HW213688  13.317   9.662   6.866  0.1198 -0.6815  3.9264
  655SOL     OW13689   8.305   2.044  12.338  0.3194  0.5085 -0.1854
  655SOL    HW113690   8.248   1.986  12.287  0.3602  0.6357 -0.3808
  655SOL    HW213691   8.280   2.029  12.429  1.6838 -1.2677 -0.0599
  656SOL     OW13692   5.185  12.810   9.788  0.3811  0.1921  0.1120
  656SOL    HW113693   5.150  12.852   9.866 -0.3282 -0.2879  0.0563
  656SOL    HW213694   5.138  12.727   9.781  0.5857  0.1311 -0.7073
  657SOL     OW13695   3.376  10.158   3.696  0.7504  0.4869  0.2237
  657SOL    HW113696   3.452  10.159   3.754 -0.2029  0.6495  1.5186
  657SOL    HW213697   3.404  10.108   3.619  2.1815  0.6312  0.6322
  658SOL     OW13698   3.733  11.384   3.093  0.0830 -0.1325  0.4094
  658SOL    HW113699   3.735  11.311   3.155  0.5280 -0.4037  0.0789
  658SOL    HW213700   3.818  11.426   3.101  0.7482 -1.1005 -1.1033
  659SOL     OW13701  11.074   9.778   1.411  0.1149 -0.0429 -0.1723
  659SOL    HW113702  11.006   9.760   1.475  2.4344 -0.4027  2.4172
  659SOL    HW213703  11.063   9.870   1.388 -1.3093 -0.1386  0.0698
  660SOL     OW13704   4.340   3.034   8.597 -0.5355 -0.4005  0.7583
  660SOL    HW113705   4.356   3.112   8.651  0.7543 -1.0132  1.3105
  660SOL    HW213706   4.255   3.051   8.555 -0.7944  0.8166  1.7021
  661SOL     OW13707   1.255   5.881  12.739  0.3739 -0.6699 -0.5549
  661SOL    HW113708   1.224   5.871  12.829 -0.3957 -0.7035 -0.8144
  661SOL    HW213709   1.316   5.954  12.742 -1.0778  0.5660 -0.3438
  662SOL     OW13710   3.026  13.622   1.781  0.5644 -0.1559 -0.8924
  662SOL    HW113711   2.978  13.585   1.855 -0.3603  1.4814 -0.6223
  662SOL    HW213712   3.111  13.648   1.817  0.1752  0.4929 -0.4103
  663SOL     OW13713  12.722   5.911   7.451 -0.2419 -1.1433  0.1937
  663SOL    HW113714  12.759   5.872   7.372 -0.1388 -0.8913  0.1147
  663SOL    HW213715  12.635   5.873   7.459 -1.1260  0.4689 -1.2721
  664SOL     OW13716   2.018  13.319   8.975 -0.0495 -0.5113  0.0084
  664SOL    HW113717   1.948  13.383   8.991  2.4749  2.0707  1.5174
  664SOL    HW213718   2.030  13.319   8.880 -2.4271 -1.5366 -0.3790
  665SOL     OW13719  10.913   1.219   4.029  0.2732  0.4901  0.2884
  665SOL    HW113720  10.850   1.160   4.070 -0.6191 -1.0985 -3.0034
  665SOL    HW213721  10.997   1.172   4.035 -0.0871 -0.3315 -0.6582
  666SOL     OW13722   5.102   0.222   6.120  0.1027 -0.1478  0.4489
  666SOL    HW113723   5.138   0.133   6.116 -1.9487 -1.0188 -2.1598
  666SOL    HW213724   5.007   0.209   6.117 -0.3249  2.1299  2.1080
  667SOL     OW13725   8.796   1.240   4.758 -0.7481  0.3832  0.0714
  667SOL    HW113726   8.744   1.175   4.805 -0.1176  1.0106  1.7110
  667SOL    HW213727   8.851   1.281   4.825  0.8720  0.6991 -1.3660
  668SOL     OW13728  13.243   8.851  13.215 -0.3343  0.2008 -0.4404
  668SOL    HW113729  13.328   8.849  13.258  0.3874  1.4193 -1.7179
  668SOL    HW213730  13.220   8.944  13.211 -1.8134 -0.1216  0.0388
  669SOL     OW13731   9.543   4.274  13.703 -0.0635 -0.2889  0.0164
  669SOL    HW113732   9.561   4.330  13.780  0.0013 -0.3800  0.0680
  669SOL    HW213733   9.528   4.336  13.632  1.5592 -0.1988 -0.2856
  670SOL     OW13734   3.126   7.311   1.001  0.3772  0.3172 -0.7323
  670SOL    HW113735   3.135   7.253   0.925  0.1192  1.5144 -1.7055
  670SOL    HW213736   3.035   7.340   0.998  0.2816  0.1484  0.2244
  671SOL     OW13737  11.965  11.774  11.767 -0.5749 -0.1472  0.1443
  671SOL    HW113738  11.947  11.747  11.677 -0.2781 -0.8798  0.2994
  671SOL    HW213739  11.976  11.692  11.815 -0.0127  0.2454  0.7032
  672SOL     OW13740   5.144   0.073   4.065  0.6657 -0.2615 -0.0147
  672SOL    HW113741   5.227   0.118   4.048  1.4550 -1.0268  1.6781
  672SOL    HW213742   5.095   0.134   4.120  0.5933 -0.3256 -0.0089
  673SOL     OW13743   2.019   0.430   8.251  0.1243  0.6887  0.0412
  673SOL    HW113744   2.039   0.476   8.333 -2.4745  2.4575 -0.1870
  673SOL    HW213745   2.075   0.472   8.186  1.4053  0.0207  0.6667
  674SOL     OW13746   0.048   9.276   9.480 -0.1642 -0.2209 -0.5383
  674SOL    HW113747  -0.035   9.240   9.512 -1.7760  3.0541 -0.5484
  674SOL    HW213748   0.046   9.261   9.386 -0.6125 -0.4734 -0.4921
  675SOL     OW13749  13.667   3.278  13.321 -0.3799  0.3823  0.0292
  675SOL    HW113750  13.675   3.298  13.228  0.2105 -0.5173 -0.1169
  675SOL    HW213751  13.578   3.244  13.330 -0.2773  0.0249 -0.2925
  676SOL     OW13752  10.929   6.682   3.249  0.2474  0.1217 -0.0838
  676SOL    HW113753  10.983   6.608   3.221  0.9597 -0.4457  2.5023
  676SOL    HW213754  10.982   6.728   3.313 -0.9621  1.7360 -0.1702
  677SOL     OW13755   5.191  12.744   3.833  0.1966  0.3286 -0.3200
  677SOL    HW113756   5.212  12.698   3.915 -1.1734  1.0392  0.4778
  677SOL    HW213757   5.204  12.679   3.765 -0.2588 -0.8041  0.6403
  678SOL     OW13758  13.376  13.004   9.028  0.2389  0.0490 -0.7585
  678SOL    HW113759  13.336  12.998   8.941 -0.1891  2.1022 -0.7676
  678SOL    HW213760  13.470  13.001   9.010  0.1928  1.6427 -1.4736
  679SOL     OW13761   8.684   7.602   6.915  0.0429 -0.3638  0.3810
  679SOL    HW113762   8.751   7.533   6.918  1.0738  0.6056  0.5759
  679SOL    HW213763   8.621   7.571   6.850 -0.1878 -2.0553  1.3649
  680SOL     OW13764  12.527  11.778   8.427 -0.2798  0.2751  0.2351
  680SOL    HW113765  12.581  11.841   8.378 -0.1058 -0.9960 -1.2811
  680SOL    HW213766  12.579  11.698   8.429 -1.0431 -0.2195  1.0097
  681SOL     OW13767   8.616   5.799  10.639  0.5047  0.1145  0.4978
  681SOL    HW113768   8.547   5.788  10.574 -0.5056 -1.2814  1.7544
  681SOL    HW213769   8.588   5.874  10.691  0.3334  0.0340  0.5218
  682SOL     OW13770   7.416  10.942   1.281 -0.3431 -0.0564 -0.4426
  682SOL    HW113771   7.362  10.943   1.202  2.5474  0.1009 -2.5996
  682SOL    HW213772   7.446  10.851   1.288 -1.4863 -0.3449  1.2330
  683SOL     OW13773   6.229   1.130   5.622 -0.0316 -0.1932 -0.0718
  683SOL    HW113774   6.207   1.056   5.566 -0.0541 -1.3196  1.3475
  683SOL    HW213775   6.215   1.097   5.711  0.2500  1.4323  0.6097
  684SOL     OW13776   7.409   1.091  11.203  0.9727 -0.5310 -0.2629
  684SOL    HW113777   7.473   1.078  11.132  1.1563 -0.5665 -0.0919
  684SOL    HW213778   7.358   1.167  11.176  0.6302 -0.9187 -0.7364
  685SOL     OW13779   0.023   1.945   8.830 -0.1345  0.4827 -1.1641
  685SOL    HW113780  -0.070   1.926   8.843 -0.1541  0.7781 -0.8571
  685SOL    HW213781   0.066   1.903   8.905 -0.1360  1.2825 -0.7073
  686SOL     OW13782   2.311   4.498   4.330  0.0420 -0.0462  0.1437
  686SOL    HW113783   2.364   4.563   4.376  0.5303 -0.3821  0.0678
  686SOL    HW213784   2.230   4.493   4.381  0.1307  0.3811  0.3332
  687SOL     OW13785  12.115   4.099  12.545 -0.1762 -0.1255 -0.1299
  687SOL    HW113786  12.096   4.162  12.615  0.1234  1.4056 -1.3811
  687SOL    HW213787  12.210   4.087  12.548 -0.3390 -1.4338  0.8222
  688SOL     OW13788  11.904  10.183  10.040 -0.5444  0.4736 -0.1971
  688SOL    HW113789  11.925  10.276  10.050  0.7545  0.1307  0.5127
  688SOL    HW213790  11.812  10.177  10.065 -1.1040  1.7854 -1.7318
  689SOL     OW13791   4.658   5.555   4.870  0.0542 -0.2760  0.3040
  689SOL    HW113792   4.629   5.608   4.944 -0.4182 -2.5583  1.8767
  689SOL    HW213793   4.576   5.527   4.828  0.2633 -0.3072 -0.0833
  690SOL     OW13794  13.726  12.732   3.932  0.2017 -0.2540 -0.1438
  690SOL    HW113795  13.653  12.760   3.987  0.4799  0.2381 -0.0174
  690SOL    HW213796  13.795  12.708   3.993  0.7850  1.0185 -0.2561
  691SOL     OW13797  11.609  11.700   5.644  0.1163 -0.3596 -0.4871
  691SOL    HW113798  11.571  11.637   5.582  0.1743 -1.8690  0.9473
  691SOL    HW213799  11.636  11.647   5.718 -0.8341  1.4967  1.2801
  692SOL     OW13800  13.724   6.911   5.064 -0.2297 -0.1280 -0.1385
  692SOL    HW113801  13.771   6.875   5.140 -1.0888  0.0104  0.4775
  692SOL    HW213802  13.659   6.971   5.102 -1.0759 -0.5095 -0.9386
  693SOL     OW13803   9.948   0.277  10.644 -0.2961  0.2024 -0.0012
  693SOL    HW113804   9.883   0.320  10.700  0.2755  0.1229  0.7333
  693SOL    HW213805   9.901   0.260  10.562 -1.5539 -0.8693  0.9028
  694SOL     OW13806  13.427   7.309   8.633 -0.4158  0.2054  0.0808
  694SOL    HW113807  13.428   7.247   8.706  2.1727  2.4862  2.1854
  694SOL    HW213808  13.337   7.343   8.633 -1.0120 -1.2536  0.8966
  695SOL     OW13809  11.966   0.620   3.003  0.6754  0.7895 -0.1486
  695SOL    HW113810  11.882   0.644   3.041  0.6803 -1.0131  1.1324
  695SOL    HW213811  12.021   0.697   3.014 -0.6885  1.8816 -0.7177
  696SOL     OW13812   6.818   1.076   0.897  0.1834  0.0130  0.2921
  696SOL    HW113813   6.779   1.140   0.956  0.0072  0.1421  0.0384
  696SOL    HW213814   6.823   0.996   0.949 -0.1373  0.0758  0.4237
  697SOL     OW13815   6.615   9.424   9.049 -0.4849  0.6986  0.4391
  697SOL    HW113816   6.533   9.473   9.055  1.3640  3.8591  2.4617
  697SOL    HW213817   6.664   9.467   8.978 -0.1583 -0.5295 -0.1074
  698SOL     OW13818   6.630   2.407   8.606 -0.6104 -0.0803  0.3244
  698SOL    HW113819   6.541   2.410   8.643 -0.6022 -1.6179  0.5193
  698SOL    HW213820   6.669   2.328   8.644  0.6829  0.3200 -0.1338
  699SOL     OW13821   0.528  13.549   0.489 -0.8415  0.0563  0.1728
  699SOL    HW113822   0.593  13.610   0.452 -1.7227  0.2069 -1.1856
  699SOL    HW213823   0.579  13.470   0.509 -0.1909  0.2201 -0.7413
  700SOL     OW13824   9.250   8.046   8.428  0.1103  0.5641 -0.3863
  700SOL    HW113825   9.271   7.965   8.475 -0.2299  0.3580 -0.5927
  700SOL    HW213826   9.174   8.024   8.375 -1.3104  1.5816  1.1331
  701SOL     OW13827   5.689  11.335   3.311  0.0049  0.1256 -0.5433
  701SOL    HW113828   5.714  11.293   3.229  1.3274 -0.7776  0.2722
  701SOL    HW213829   5.772  11.343   3.360 -0.9510 -0.9175  1.3741
  702SOL     OW13830  13.001   0.081   9.574  0.3836  0.6088 -0.1263
  702SOL    HW113831  13.051   0.035   9.641  0.2503 -0.5599 -0.7925
  702SOL    HW213832  12.909   0.073   9.601  0.1597 -1.3636 -1.2543
  703SOL     OW13833   9.139  11.786   5.222  0.2647  0.5548  0.3053
  703SOL    HW113834   9.075  11.857   5.219  0.0907  0.3882 -1.5643
  703SOL    HW213835   9.218  11.823   5.183 -0.0376 -0.4198 -1.3497
  704SOL     OW13836   8.961   3.680   5.468 -0.3557  0.6105  0.0446
  704SOL    HW113837   8.967   3.705   5.560  0.0344  0.2118  0.1297
  704SOL    HW213838   9.029   3.614   5.456  0.5244  1.6468 -0.8605
  705SOL     OW13839   7.627   3.065   4.481 -0.4591  0.3150 -0.1967
  705SOL    HW113840   7.590   2.994   4.429 -2.1230  0.6733  0.4263
  705SOL    HW213841   7.552   3.103   4.526  0.5576  1.7527  0.3567
  706SOL     OW13842  13.190   0.931  12.087 -0.0910  0.7370  0.4576
  706SOL    HW113843  13.240   0.905  12.164  1.0051  1.8741  0.1626
  706SOL    HW213844  13.113   0.875  12.089  1.0757 -0.9227  1.0446
  707SOL     OW13845   0.718   0.545   2.242 -0.0252 -0.2461  0.5184
  707SOL    HW113846   0.809   0.562   2.216  0.5535 -0.8146  2.0695
  707SOL    HW213847   0.676   0.515   2.162  1.2170 -0.2163 -0.1739
  708SOL     OW13848   7.028   8.417  10.797  0.4539  0.2744  0.1858
  708SOL    HW113849   7.113   8.430  10.755  0.6092 -0.7062  0.1574
  708SOL    HW213850   7.019   8.491  10.857  0.9038  0.8839 -0.4820
  709SOL     OW13851  12.938   9.748   3.650 -0.1982  0.1055 -0.2959
  709SOL    HW113852  12.955   9.773   3.560 -1.2151  2.5615  0.0927
  709SOL    HW213853  12.852   9.706   3.648 -0.7055  1.1176 -0.3705
  710SOL     OW13854  12.530  11.205  11.852 -0.2979 -0.4107 -0.2034
  710SOL    HW113855  12.508  11.289  11.893 -0.3953 -1.8533  2.9864
  710SOL    HW213856  12.465  11.143  11.885  2.0128 -2.5210  0.7553
  711SOL     OW13857   2.951   5.247  12.891 -0.2256 -0.0737  0.0040
  711SOL    HW113858   2.959   5.342  12.897 -1.4317  0.0282  0.2240
  711SOL    HW213859   3.027   5.220  12.839  0.7268  0.8847  0.8273
  712SOL     OW13860   2.770   2.680   7.819  0.1866  0.3262  0.7708
  712SOL    HW113861   2.857   2.677   7.780 -0.0826  1.7801 -0.0068
  712SOL    HW213862   2.713   2.713   7.749 -0.6850  0.9595  1.7445
  713SOL     OW13863   0.035   0.513   3.470 -0.2744  1.0816  0.2688
  713SOL    HW113864   0.035   0.493   3.377 -0.9719  0.2839  0.4388
  713SOL    HW213865  -0.054   0.542   3.489 -0.6260 -0.3916  1.0172
  714SOL     OW13866   0.610  10.041  10.811  0.1996 -0.1423 -0.4596
  714SOL    HW113867   0.578  10.131  10.804  4.2113  1.5288 -0.2522
  714SOL    HW213868   0.657  10.025  10.729  0.0715 -1.8311 -0.2521
  715SOL     OW13869   0.626   4.196  10.654  0.2354  0.0476 -0.7451
  715SOL    HW113870   0.564   4.228  10.720 -1.2682  0.2833 -2.2031
  715SOL    HW213871   0.590   4.227  10.571  2.0171 -0.3340 -1.7050
  716SOL     OW13872  12.797   8.516   5.202 -0.7139  0.1676 -0.0386
  716SOL    HW113873  12.773   8.531   5.293 -0.1885  1.6419 -0.1146
  716SOL    HW213874  12.724   8.553   5.152 -1.0141 -0.6644 -0.2182
  717SOL     OW13875   7.306  12.645   3.253  0.3186 -0.1342  0.1540
  717SOL    HW113876   7.360  12.724   3.245  0.2106 -0.2134 -1.9519
  717SOL    HW213877   7.239  12.655   3.185  2.8649 -3.9097 -3.4005
  718SOL     OW13878  10.773   9.688   2.218 -0.0405 -0.0788  0.2417
  718SOL    HW113879  10.828   9.763   2.199 -1.3798  0.7368 -0.5836
  718SOL    HW213880  10.729   9.669   2.135 -1.9673  0.1240  1.1611
  719SOL     OW13881   7.042  11.490   8.089  0.4140 -0.3175  0.2350
  719SOL    HW113882   7.087  11.474   8.007  0.3091 -0.8736  0.2791
  719SOL    HW213883   6.997  11.407   8.108  0.7695 -0.3339  1.0574
  720SOL     OW13884  10.423  12.173  13.187 -0.2705 -0.1136 -0.2686
  720SOL    HW113885  10.424  12.079  13.171  0.5662 -0.1043 -0.3509
  720SOL    HW213886  10.516  12.197  13.192 -0.4433  0.2704  2.3328
  721SOL     OW13887   5.778   0.352   1.814 -0.3160 -0.5233  0.0079
  721SOL    HW113888   5.812   0.339   1.903  2.2328  0.9897 -0.6347
  721SOL    HW213889   5.821   0.284   1.762 -0.3334 -0.2488 -0.3703
  722SOL     OW13890   5.004  11.851   7.915 -0.1664 -0.0834 -0.2954
  722SOL    HW113891   5.087  11.899   7.918  1.2274 -2.2751 -1.3548
  722SOL    HW213892   5.005  11.795   7.993 -0.4828 -0.3622 -0.4847
  723SOL     OW13893   6.206  10.316   4.493 -0.1042  0.0551  0.1433
  723SOL    HW113894   6.113  10.312   4.471 -0.5086  1.0626  1.5104
  723SOL    HW213895   6.226  10.409   4.497  1.0032 -0.1484 -0.2515
  724SOL     OW13896   8.988   1.565   0.122  0.1173 -0.0316  0.3967
  724SOL    HW113897   8.921   1.545   0.056  0.2548 -1.3829  0.6367
  724SOL    HW213898   8.973   1.657   0.144 -0.3413  0.2649 -1.0401
  725SOL     OW13899   9.354   3.527   1.275 -0.5388 -0.5305  0.4307
  725SOL    HW113900   9.416   3.456   1.291 -0.9467 -0.7384  1.1140
  725SOL    HW213901   9.273   3.499   1.318 -0.6403  0.4538  0.9138
  726SOL     OW13902   2.423  13.699   0.522 -0.2874  0.5330 -0.2030
  726SOL    HW113903   2.513  13.687   0.553 -0.8358 -1.0841  0.9405
  726SOL    HW213904   2.425  13.675   0.430  0.3980  0.0995 -0.0807
  727SOL     OW13905   2.717   1.904   7.301 -0.1185  0.1746  0.1301
  727SOL    HW113906   2.668   1.822   7.288  0.3011  0.0294 -0.6158
  727SOL    HW213907   2.666   1.952   7.365 -2.0203  0.6208 -1.6203
  728SOL     OW13908   2.297   4.362  10.362 -0.4492  0.4104  0.0197
  728SOL    HW113909   2.344   4.293  10.407 -0.9766 -0.3149 -0.5220
  728SOL    HW213910   2.242   4.402  10.429  0.7059  1.0789  0.5928
  729SOL     OW13911   0.072   7.112   5.667  0.0636 -0.0709 -0.3755
  729SOL    HW113912   0.124   7.063   5.604 -0.1598 -1.0571  0.1975
  729SOL    HW213913   0.117   7.098   5.751 -0.1505  0.4885 -0.1602
  730SOL     OW13914  13.498   8.400   0.970  0.0647  0.3646 -0.0306
  730SOL    HW113915  13.560   8.464   0.935  0.1324  0.0558 -0.4789
  730SOL    HW213916  13.539   8.315   0.953 -1.0420  0.0914 -1.4784
  731SOL     OW13917  11.722   2.632   4.775 -0.0591 -0.0824 -0.0801
  731SOL    HW113918  11.777   2.709   4.787  1.1489 -0.8529 -0.4920
  731SOL    HW213919  11.669   2.652   4.698  1.0685 -0.0984 -0.8825
  732SOL     OW13920  10.217   2.813   4.317  0.4065 -0.2454  0.4588
  732SOL    HW113921  10.307   2.846   4.308 -0.2119  1.3946 -0.1466
  732SOL    HW213922  10.192   2.787   4.229 -0.7964  2.4771 -0.1300
  733SOL     OW13923  10.781   9.325   9.065  0.4317  0.1651 -0.0370
  733SOL    HW113924  10.715   9.390   9.041  0.1624 -0.0483  0.1327
  733SOL    HW213925  10.778   9.323   9.160  1.4560  0.9670  0.0361
  734SOL     OW13926   9.706   0.656   3.233  0.1218 -0.3435 -0.0956
  734SOL    HW113927   9.768   0.729   3.231  1.1031 -1.0027  2.6059
  734SOL    HW213928   9.746   0.590   3.176  0.8778 -0.0019  0.0245
  735SOL     OW13929   4.024   0.231  12.816  0.5321  0.0295  0.9876
  735SOL    HW113930   4.069   0.315  12.827 -1.3187  1.0736  0.8863
  735SOL    HW213931   3.986   0.212  12.902 -0.2878  0.0272  0.6272
  736SOL     OW13932   1.864  10.292   5.965 -0.1124  0.2702  0.4156
  736SOL    HW113933   1.861  10.201   5.937  2.3432 -0.0898  1.0568
  736SOL    HW213934   1.929  10.333   5.907 -0.9266  1.5293  0.3537
  737SOL     OW13935   9.615   6.234  13.370 -0.2442  0.5979  0.2748
  737SOL    HW113936   9.689   6.198  13.418 -0.9542 -0.6608  0.4583
  737SOL    HW213937   9.585   6.308  13.424  0.7251  0.9862  0.3017
  738SOL     OW13938   1.346  12.729  13.034  0.1296  0.0619 -0.1854
  738SOL    HW113939   1.314  12.713  13.122  0.3222  0.3392 -0.0624
  738SOL    HW213940   1.274  12.775  12.990  0.3836  0.7647  0.1181
  739SOL     OW13941   4.766   6.647  12.142 -0.7862  0.6332  0.2190
  739SOL    HW113942   4.728   6.657  12.229 -0.4404  3.0133  0.1886
  739SOL    HW213943   4.716   6.578  12.100 -1.6545  0.1861  1.9361
  740SOL     OW13944   5.829   4.215   9.884 -0.0612  0.2112 -0.0117
  740SOL    HW113945   5.911   4.250   9.918 -0.0143  1.7303 -1.5279
  740SOL    HW213946   5.851   4.185   9.795 -0.6177 -1.7056  0.4534
  741SOL     OW13947  13.396   4.072  12.655 -0.0332 -1.0219 -0.0885
  741SOL    HW113948  13.384   4.057  12.561  0.7074 -0.6570 -0.2484
  741SOL    HW213949  13.465   4.138  12.660  1.4355 -2.5291  0.7489
  742SOL     OW13950   0.270   6.013   7.167  0.3287 -0.3788  0.0773
  742SOL    HW113951   0.179   5.993   7.190  1.1067 -2.4614  1.6470
  742SOL    HW213952   0.322   5.949   7.216  2.7199  1.3314 -0.0565
  743SOL     OW13953   2.107   2.342   9.020  0.5170  0.1805  0.1197
  743SOL    HW113954   2.057   2.263   9.040  1.2839 -0.1847  0.6527
  743SOL    HW213955   2.045   2.413   9.032 -1.2446 -0.4407 -3.7298
  744SOL     OW13956   8.080   9.113   7.646  0.5175 -0.0962  0.0266
  744SOL    HW113957   7.997   9.112   7.598  0.4564  1.5467  0.0388
  744SOL    HW213958   8.144   9.148   7.584  0.9949 -0.4447  0.3131
  745SOL     OW13959  11.368   7.976   5.825  0.7373 -0.3402 -0.2254
  745SOL    HW113960  11.415   8.051   5.862 -1.3729  0.9990 -0.1010
  745SOL    HW213961  11.416   7.899   5.858  2.2314  0.9107  0.6586
  746SOL     OW13962   6.259   1.242   3.653 -0.4876 -0.4010  0.4458
  746SOL    HW113963   6.346   1.277   3.673 -0.8368  0.5560  0.3362
  746SOL    HW213964   6.276   1.163   3.603  0.3168  0.0008  0.0732
  747SOL     OW13965   8.040   1.536   1.596 -0.8361 -0.0684 -0.4940
  747SOL    HW113966   8.085   1.559   1.515  2.5900 -0.4651  1.1071
  747SOL    HW213967   8.035   1.441   1.595 -1.4305 -0.0387 -0.5426
  748SOL     OW13968   1.864   6.237  12.699  0.1267 -0.5455 -0.0241
  748SOL    HW113969   1.871   6.331  12.719 -0.5795  0.0381 -2.3252
  748SOL    HW213970   1.950   6.202  12.722  1.0869  1.0669 -0.9668
  749SOL     OW13971  11.530   4.163  13.601 -0.5006  0.1728 -0.1915
  749SOL    HW113972  11.489   4.084  13.635  1.0415 -1.4697 -1.8931
  749SOL    HW213973  11.472   4.191  13.530 -0.0389 -0.6463 -0.9109
  750SOL     OW13974   5.168   4.101   0.404  0.1113 -0.2410 -0.2108
  750SOL    HW113975   5.250   4.062   0.432 -0.4006 -0.3574  1.1929
  750SOL    HW213976   5.128   4.036   0.346 -1.0624 -2.2357  2.6416
  751SOL     OW13977   9.223  11.663   4.297 -0.5135  0.2008 -0.5816
  751SOL    HW113978   9.169  11.664   4.218 -0.5224  0.2139 -0.5756
  751SOL    HW213979   9.162  11.641   4.367 -0.4591 -0.0510 -0.6128
  752SOL     OW13980   0.010   7.325   3.857 -0.0455 -0.2888 -0.5278
  752SOL    HW113981   0.085   7.384   3.865 -0.0159 -0.4863  1.0594
  752SOL    HW213982  -0.066   7.384   3.846  0.3183 -0.0913 -2.1747
  753SOL     OW13983   1.407  12.770   4.103  0.1123  0.0539 -0.4077
  753SOL    HW113984   1.323  12.725   4.112 -0.3944  1.0380 -0.0889
  753SOL    HW213985   1.460  12.738   4.176 -0.5304  0.5721  0.2973
  754SOL     OW13986   4.498  12.881   2.548 -0.4093 -0.2321 -0.6429
  754SOL    HW113987   4.491  12.974   2.570 -0.2775 -0.8024  2.1952
  754SOL    HW213988   4.592  12.865   2.539 -0.5016  0.3102 -3.5810
  755SOL     OW13989  12.258   3.149   9.847 -0.0978  0.0337  0.1879
  755SOL    HW113990  12.299   3.088   9.785  1.2205 -0.2305  1.2812
  755SOL    HW213991  12.273   3.235   9.809 -0.8251 -0.2203 -0.7115
  756SOL     OW13992   0.261  12.438   4.908  0.2444 -0.0081 -0.1191
  756SOL    HW113993   0.321  12.365   4.923  0.7279  0.1688 -1.1088
  756SOL    HW213994   0.193  12.427   4.974  0.6877 -0.9402  0.2034
  757SOL     OW13995   3.701   0.619   7.829  0.0832  0.2278  0.3206
  757SOL    HW113996   3.747   0.698   7.799  2.8105 -1.2226  0.3274
  757SOL    HW213997   3.718   0.555   7.761 -2.7022 -0.2518 -0.0365
  758SOL     OW13998   2.731   4.037   6.093 -0.0731 -0.6470 -0.1140
  758SOL    HW113999   2.721   4.107   6.157  1.2144 -0.2633 -0.2935
  758SOL    HW214000   2.642   4.005   6.078 -0.2297 -2.5164  3.7598
  759SOL     OW14001   3.656  13.321   7.078 -0.2612  0.4424  0.1983
  759SOL    HW114002   3.668  13.394   7.018 -0.6786 -0.5606 -1.1409
  759SOL    HW214003   3.724  13.333   7.145  1.2974  0.6741 -1.3680
  760SOL     OW14004   2.438  11.302   9.894  0.9779 -0.0565  0.3689
  760SOL    HW114005   2.437  11.247   9.972  0.9125  0.7622  0.9649
  760SOL    HW214006   2.350  11.295   9.857  0.8701 -0.0829  0.6338
  761SOL     OW14007   3.354   7.672   1.222 -0.2726  0.0229 -0.0799
  761SOL    HW114008   3.425   7.652   1.161 -1.7745  2.9197 -3.1160
  761SOL    HW214009   3.377   7.758   1.258 -2.5571  1.5379 -1.9459
  762SOL     OW14010   8.995   7.103   4.189 -0.0942  0.1868  0.5877
  762SOL    HW114011   8.967   7.052   4.265 -1.5411 -0.4827 -0.3462
  762SOL    HW214012   8.914   7.139   4.154  0.6619  1.2784 -0.0991
  763SOL     OW14013   9.608  11.879  11.337 -0.4751 -0.2730  0.2564
  763SOL    HW114014   9.675  11.913  11.396 -0.0265 -0.8606  0.0920
  763SOL    HW214015   9.546  11.952  11.327 -0.6852 -0.2320  1.6275
  764SOL     OW14016   6.714   5.899  11.430 -0.3581 -0.3940 -0.5417
  764SOL    HW114017   6.743   5.989  11.416 -0.5323 -0.4002 -0.9531
  764SOL    HW214018   6.773   5.865  11.498  0.7709 -0.4831 -1.5331
  765SOL     OW14019   3.559   3.800   4.180  0.6827 -0.4301  0.0019
  765SOL    HW114020   3.504   3.740   4.231 -0.7214 -0.4452 -1.4498
  765SOL    HW214021   3.575   3.874   4.239  1.5234 -1.7122  1.4408
  766SOL     OW14022  10.628   4.250   9.150  0.4064  0.1660  0.0619
  766SOL    HW114023  10.716   4.272   9.180  0.8303  0.6125 -1.4331
  766SOL    HW214024  10.572   4.320   9.184  1.2686  2.0562 -2.1211
  767SOL     OW14025  12.586   3.091   7.164 -0.0190  0.0639  0.2499
  767SOL    HW114026  12.666   3.124   7.205 -1.5086  2.7898  1.2124
  767SOL    HW214027  12.518   3.152   7.191 -1.6656  0.5329 -4.1065
  768SOL     OW14028   4.707  10.846   0.429  0.1912  0.4551 -0.1228
  768SOL    HW114029   4.800  10.850   0.408  0.4131 -1.1049  0.4215
  768SOL    HW214030   4.669  10.794   0.357 -0.0196 -0.0206  0.3228
  769SOL     OW14031   4.334   4.895   8.156 -0.4562  0.1243  0.7984
  769SOL    HW114032   4.328   4.846   8.075  0.8011  0.3773  0.5397
  769SOL    HW214033   4.340   4.829   8.225  0.4745 -0.1039  0.5121
  770SOL     OW14034   7.042  11.463  10.938 -0.0884  0.0745  0.2286
  770SOL    HW114035   6.982  11.444  11.010  0.0139  0.7922  0.5181
  770SOL    HW214036   7.000  11.426  10.861 -1.9290  2.2651  0.0716
  771SOL     OW14037   5.235   8.535  11.421  0.0477 -0.1466 -0.1296
  771SOL    HW114038   5.324   8.503  11.438  0.2500  0.1384 -0.6068
  771SOL    HW214039   5.240   8.572  11.333 -0.7840 -0.9559 -0.5268
  772SOL     OW14040   0.249   7.688   6.293 -0.6942 -0.2505 -0.2741
  772SOL    HW114041   0.248   7.703   6.199 -3.3624  3.4213  0.1039
  772SOL    HW214042   0.304   7.759   6.327 -0.5653 -0.9396  1.0272
  773SOL     OW14043   3.143   2.364   1.063 -0.6891 -0.3229  0.0447
  773SOL    HW114044   3.133   2.440   1.120 -0.0164  0.3242 -0.6741
  773SOL    HW214045   3.064   2.312   1.078 -1.1640  0.5198  0.5380
  774SOL     OW14046  11.076   5.663  10.516  0.0625  0.0108  0.2126
  774SOL    HW114047  11.067   5.688  10.607 -0.3015  3.5557 -0.6515
  774SOL    HW214048  10.986   5.651  10.485  0.0841  0.4629 -0.0434
  775SOL     OW14049  12.253  10.374   2.275  0.4731  0.1118 -0.3484
  775SOL    HW114050  12.336  10.388   2.231  0.6513  0.0850 -0.0274
  775SOL    HW214051  12.263  10.289   2.319 -0.0632 -0.3421 -1.0713
  776SOL     OW14052  12.449   1.592   3.129  0.0006 -0.2209  0.1295
  776SOL    HW114053  12.488   1.647   3.060  1.4896  0.0539  1.1349
  776SOL    HW214054  12.478   1.503   3.107 -0.8573 -0.3591 -0.4689
  777SOL     OW14055   7.848   9.448  12.877  0.2757  0.1817 -0.0022
  777SOL    HW114056   7.843   9.469  12.784  2.1730  0.3417 -0.1096
  777SOL    HW214057   7.939   9.423  12.891 -0.4042 -1.6607  1.4619
  778SOL     OW14058   9.433   5.320   3.131  0.2171 -0.1186 -0.0088
  778SOL    HW114059   9.479   5.403   3.139  0.7069 -0.3791 -0.0894
  778SOL    HW214060   9.438   5.281   3.219  0.2913 -0.2226 -0.0597
  779SOL     OW14061   5.686   2.038  11.844 -0.2642 -0.3453 -0.9516
  779SOL    HW114062   5.708   2.003  11.758 -0.7405  0.1559 -1.2849
  779SOL    HW214063   5.597   2.071  11.835  0.4239  1.7057 -0.9196
  780SOL     OW14064   3.272   9.986   7.452 -0.1399 -0.9836  0.1358
  780SOL    HW114065   3.330   9.954   7.384 -0.4278  0.7460 -1.0021
  780SOL    HW214066   3.321   9.975   7.533  1.5168 -0.2157 -0.7164
  781SOL     OW14067   6.436   3.687  13.441 -0.3559 -0.6518  0.1724
  781SOL    HW114068   6.444   3.612  13.382  0.6779 -2.2459  2.2020
  781SOL    HW214069   6.342   3.705  13.443 -0.6587 -2.0367 -0.2108
  782SOL     OW14070   5.258   0.110   5.106  0.2774  0.5135  0.6657
  782SOL    HW114071   5.329   0.048   5.091  0.9323  1.5264 -0.6267
  782SOL    HW214072   5.233   0.096   5.197 -0.3064 -2.3244  0.1529
  783SOL     OW14073  11.478   7.944   8.287  0.1186 -0.5228  0.7561
  783SOL    HW114074  11.386   7.948   8.258  0.7293 -2.1339 -1.7718
  783SOL    HW214075  11.473   7.940   8.382 -2.4934 -1.1147  0.6841
  784SOL     OW14076   2.982   0.764   5.259  0.4451  0.2779 -0.1300
  784SOL    HW114077   3.054   0.715   5.299  1.1513  1.0300 -0.4366
  784SOL    HW214078   2.949   0.820   5.330  2.0746  2.0346 -0.6737
  785SOL     OW14079  12.018   1.432   9.351  0.0372  0.3131 -0.4864
  785SOL    HW114080  11.957   1.472   9.288  0.4561  2.0023  0.1214
  785SOL    HW214081  12.073   1.505   9.380 -0.9102 -0.0911  2.7566
  786SOL     OW14082   4.030   7.889   7.278  0.3485 -0.0366 -0.1351
  786SOL    HW114083   4.012   7.884   7.184  0.5091  1.6483 -0.2797
  786SOL    HW214084   4.125   7.900   7.284  0.1091  2.3790  0.0635
  787SOL     OW14085   8.178   9.614  12.296  0.2575 -0.0948  0.5516
  787SOL    HW114086   8.170   9.701  12.259  3.6130  0.8388  1.6716
  787SOL    HW214087   8.093   9.597  12.336 -1.2447  1.5987 -1.7174
  788SOL     OW14088  13.698   6.888   2.487 -0.7514  0.3499  0.1717
  788SOL    HW114089  13.789   6.888   2.455 -1.3867 -0.1078 -1.7950
  788SOL    HW214090  13.700   6.834   2.566  0.8983  1.3959  0.9012
  789SOL     OW14091  10.061   8.150   0.265 -0.3367  0.3508  0.8208
  789SOL    HW114092  10.003   8.183   0.197  0.1604  2.3350  1.2935
  789SOL    HW214093  10.014   8.165   0.347 -0.5797 -1.2611  1.0284
  790SOL     OW14094  11.890  10.490   4.637  0.3250 -0.3252  0.5838
  790SOL    HW114095  11.867  10.404   4.601 -0.9221  0.3952 -0.3820
  790SOL    HW214096  11.934  10.535   4.565 -1.3064  0.7651  0.2242
  791SOL     OW14097   8.352   3.446   9.974  0.1036  0.3827  0.0588
  791SOL    HW114098   8.306   3.512  10.027  0.5531 -0.0602  1.0238
  791SOL    HW214099   8.432   3.429  10.023 -0.6739 -1.9706  0.6028
  792SOL     OW14100   7.332  10.493   0.447  0.0143  0.1692  0.6020
  792SOL    HW114101   7.342  10.542   0.366  0.1747  1.0059  1.1239
  792SOL    HW214102   7.238  10.493   0.464  0.1367  1.5726  1.3719
  793SOL     OW14103  10.468  10.982   5.080  0.6955  0.3788 -0.0356
  793SOL    HW114104  10.433  10.893   5.079  0.5499  0.3988  1.3993
  793SOL    HW214105  10.551  10.975   5.127  0.1330  1.1741  1.1256
  794SOL     OW14106   0.878   7.311   8.656 -0.0103  0.7922  0.1764
  794SOL    HW114107   0.915   7.243   8.599  0.5934 -0.2388  1.7147
  794SOL    HW214108   0.788   7.321   8.625 -0.0385 -0.5377 -0.2729
  795SOL     OW14109   4.803  13.697  10.907 -0.2900 -0.5828 -0.1854
  795SOL    HW114110   4.728  13.744  10.944 -0.6876 -0.9628 -0.5063
  795SOL    HW214111   4.770  13.658  10.827  0.1910 -0.9467 -0.2099
  796SOL     OW14112   0.652   3.527   9.249  0.1375  0.4992  0.0290
  796SOL    HW114113   0.686   3.522   9.160  0.1114 -1.7292  0.1036
  796SOL    HW214114   0.727   3.504   9.304 -0.8466 -2.4838  0.2978
  797SOL     OW14115  10.354   6.277  11.042 -0.5337 -0.0373 -0.3005
  797SOL    HW114116  10.390   6.356  11.083 -1.9447  0.6239 -0.2622
  797SOL    HW214117  10.379   6.284  10.950  1.4890 -0.8408  0.1474
  798SOL     OW14118   7.528   3.098   0.935  0.3573  0.1077 -0.0608
  798SOL    HW114119   7.475   3.085   1.014  0.0742  0.8792 -0.1190
  798SOL    HW214120   7.570   3.183   0.947  1.4344 -0.4063 -0.1140
  799SOL     OW14121   6.698   1.076   2.908  0.3848 -0.4544 -0.5092
  799SOL    HW114122   6.735   1.007   2.853 -0.5487 -0.3885 -1.2404
  799SOL    HW214123   6.763   1.146   2.905 -0.5289  0.4014 -3.2615
  800SOL     OW14124   2.019   1.345  13.643 -0.6242  0.3756 -0.7903
  800SOL    HW114125   2.056   1.272  13.592  0.3177  0.8905 -0.8773
  800SOL    HW214126   1.948   1.379  13.588  0.3000  0.8519 -1.7412
  801SOL     OW14127   8.291  12.995   5.010 -0.2468 -0.1881  0.2049
  801SOL    HW114128   8.278  12.998   4.916 -1.5733 -0.0077  0.3705
  801SOL    HW214129   8.376  13.036   5.025  0.3910 -1.0217 -0.9731
  802SOL     OW14130  12.960   9.347  10.236 -0.2057  0.0232  0.3920
  802SOL    HW114131  12.919   9.430  10.212 -0.2401  0.3015  1.3524
  802SOL    HW214132  12.916   9.281  10.183 -1.3913  0.4075  0.8779
  803SOL     OW14133   3.389   5.418   0.216  0.4510  0.2704 -0.5044
  803SOL    HW114134   3.299   5.449   0.204 -0.8797 -3.6865 -2.5924
  803SOL    HW214135   3.425   5.414   0.127  2.0852  0.0372  0.1228
  804SOL     OW14136  11.922   8.019  11.332 -0.1257  0.3283  0.3075
  804SOL    HW114137  11.993   8.055  11.279  0.0236 -1.1338 -0.5483
  804SOL    HW214138  11.935   8.057  11.419  0.9126  1.1052 -0.1646
  805SOL     OW14139   1.670   7.934   0.413 -0.1441 -0.3605 -0.0471
  805SOL    HW114140   1.757   7.951   0.448  0.3261 -1.2918 -0.7156
  805SOL    HW214141   1.676   7.960   0.321 -0.8717  0.4927  0.1271
  806SOL     OW14142   7.199   4.701   9.267  0.0191  0.3374 -0.2691
  806SOL    HW114143   7.205   4.613   9.230  0.2749  0.7495 -1.2305
  806SOL    HW214144   7.127   4.742   9.220  0.4514  0.9181 -0.4380
  807SOL     OW14145   1.899   3.144  10.536 -0.2563  0.4153  0.2906
  807SOL    HW114146   1.986   3.182  10.531 -0.4542  0.7191 -1.2139
  807SOL    HW214147   1.857   3.167  10.453 -1.1707 -1.1926  0.2624
  808SOL     OW14148   4.236   8.916   5.214 -0.4234  0.1837  0.0176
  808SOL    HW114149   4.284   8.922   5.296 -0.3983  0.1205  0.0073
  808SOL    HW214150   4.203   8.826   5.212  0.8595 -0.2945 -0.7635
  809SOL     OW14151   0.363   1.803   6.190  0.3246  0.2743  0.2602
  809SOL    HW114152   0.457   1.806   6.209 -0.1797 -0.8758  3.6510
  809SOL    HW214153   0.356   1.740   6.119  2.1791  1.5473 -1.1634
  810SOL     OW14154   0.266  13.352   9.641 -0.3055  0.1044 -0.4288
  810SOL    HW114155   0.349  13.364   9.595 -0.7818  1.7608 -0.9289
  810SOL    HW214156   0.269  13.414   9.714 -0.8727 -0.2199 -0.1236
  811SOL     OW14157   1.120   1.246   3.388  0.0299  0.0773  0.0678
  811SOL    HW114158   1.155   1.247   3.478  0.0904 -0.6456  0.0574
  811SOL    HW214159   1.026   1.228   3.400  0.1413 -0.6048 -0.0367
  812SOL     OW14160   8.704   8.045   1.005  0.3707  0.0200 -0.3742
  812SOL    HW114161   8.795   8.073   1.009  0.2963  0.1592  1.3601
  812SOL    HW214162   8.655   8.117   1.045 -0.4483 -0.2635 -0.8473
  813SOL     OW14163   4.435  11.321   4.693 -0.6043  0.5110  0.2946
  813SOL    HW114164   4.381  11.374   4.636 -1.8406  0.2264  1.1468
  813SOL    HW214165   4.389  11.322   4.777  1.0218  0.7132  1.2191
  814SOL     OW14166   9.763   1.827   0.911  0.2060 -0.1323  0.2951
  814SOL    HW114167   9.705   1.829   0.836 -0.6346 -0.2018  0.9316
  814SOL    HW214168   9.833   1.888   0.889  1.0267 -1.5617 -1.3626
  815SOL     OW14169   3.064   3.932   4.937  0.0654  0.1049 -0.0073
  815SOL    HW114170   3.144   3.932   4.990 -0.7179  0.2033  1.2272
  815SOL    HW214171   3.061   3.845   4.899  0.9878  0.2457 -0.4423
  816SOL     OW14172  10.862   8.552   9.673  0.1456 -0.3494  0.4645
  816SOL    HW114173  10.929   8.615   9.643 -0.5203  0.8377  1.3819
  816SOL    HW214174  10.904   8.507   9.747  0.1362  0.0202  0.7013
  817SOL     OW14175   2.368   3.630   2.738  0.5132  0.6040 -0.4981
  817SOL    HW114176   2.380   3.548   2.786  0.9809 -0.3857 -2.2043
  817SOL    HW214177   2.457   3.662   2.722  0.3263  1.6568  0.4629
  818SOL     OW14178   1.854   0.927  11.368 -0.6172  0.0775 -0.5853
  818SOL    HW114179   1.922   0.964  11.312  1.4594 -0.7924  1.2108
  818SOL    HW214180   1.845   0.990  11.439  0.0587 -0.9292  0.4174
  819SOL     OW14181  10.212  12.548   9.481  0.2505 -0.0491 -0.3293
  819SOL    HW114182  10.190  12.576   9.393  0.5873  0.4452 -0.2609
  819SOL    HW214183  10.305  12.570   9.491  0.6625 -1.6245 -0.4337
  820SOL     OW14184   8.584   6.268  12.325 -0.4925 -0.0672 -0.1221
  820SOL    HW114185   8.541   6.250  12.241 -1.2428 -1.1866  0.4813
  820SOL    HW214186   8.603   6.362  12.322 -3.2925  0.5821 -0.3104
  821SOL     OW14187   6.358   7.572   9.356  0.5424 -0.2242 -0.0299
  821SOL    HW114188   6.340   7.638   9.289 -0.5951 -0.7163 -0.2448
  821SOL    HW214189   6.398   7.620   9.428  2.2004  0.2471 -1.2243
  822SOL     OW14190   0.188   5.984   2.368 -0.0583 -0.0470 -0.6277
  822SOL    HW114191   0.272   5.993   2.323 -0.7937  2.4316 -1.6712
  822SOL    HW214192   0.194   6.043   2.443 -0.4108 -0.8845  0.0814
  823SOL     OW14193   4.339   3.455   9.110  0.4864 -0.0252  0.0808
  823SOL    HW114194   4.350   3.366   9.078 -1.9759  0.4016 -2.3069
  823SOL    HW214195   4.331   3.508   9.031  0.2967  2.1061  1.4493
  824SOL     OW14196   0.259   7.156   8.681 -0.5568  0.0665 -0.8045
  824SOL    HW114197   0.330   7.189   8.735  0.5475 -0.9797 -1.5575
  824SOL    HW214198   0.180   7.166   8.735  0.3085  0.3022  0.4455
  825SOL     OW14199   5.295   4.252   7.643  0.4669  0.4565  0.3384
  825SOL    HW114200   5.218   4.195   7.647  0.3625  0.4867 -0.7776
  825SOL    HW214201   5.369   4.192   7.650  0.3656  0.0835 -1.2375
  826SOL     OW14202   2.440   9.685   0.657 -0.2955  0.6152  0.3409
  826SOL    HW114203   2.346   9.686   0.638 -0.1593  0.2895 -0.3740
  826SOL    HW214204   2.449   9.623   0.730 -0.6287  0.6198  0.3882
  827SOL     OW14205  11.846   2.029   4.413  0.4486 -0.9332 -0.2144
  827SOL    HW114206  11.804   2.029   4.327  0.2642  0.0390 -0.1412
  827SOL    HW214207  11.848   1.937   4.440 -2.7883 -0.9547  0.3332
  828SOL     OW14208   8.752   7.300   5.022 -0.3359 -0.1289  0.2198
  828SOL    HW114209   8.844   7.321   5.034 -1.1084  2.7403  2.3068
  828SOL    HW214210   8.743   7.283   4.928  2.3099 -0.6987  0.0074
  829SOL     OW14211   9.664   8.283   3.569  0.2646 -0.1650  0.6284
  829SOL    HW114212   9.737   8.344   3.555  0.2483  0.4565  2.9027
  829SOL    HW214213   9.620   8.279   3.484  0.9967  2.0468  0.0627
  830SOL     OW14214  11.944   0.668  13.382 -0.0757  0.4710 -0.5518
  830SOL    HW114215  11.882   0.732  13.347 -0.2026  1.2284  0.9705
  830SOL    HW214216  11.890   0.593  13.408 -0.2222  0.6469 -0.3343
  831SOL     OW14217   7.282   4.235   8.404 -0.4950 -0.1586  0.3708
  831SOL    HW114218   7.337   4.164   8.436 -0.9617  0.7403  3.4486
  831SOL    HW214219   7.211   4.191   8.358  0.2314 -1.5732  0.5406
  832SOL     OW14220   5.430   7.551  12.458 -0.1942  0.0128 -0.4235
  832SOL    HW114221   5.451   7.567  12.366 -0.7519  0.2081 -0.5192
  832SOL    HW214222   5.342   7.513  12.456  0.4555 -1.5912 -0.0922
  833SOL     OW14223   4.753   0.036  10.062  0.4055 -0.9080 -0.1160
  833SOL    HW114224   4.684  -0.029  10.049 -0.6481 -0.1347  1.2622
  833SOL    HW214225   4.823  -0.012  10.106  0.3639 -1.4906 -0.6748
  834SOL     OW14226   5.545   2.857   1.633  0.1465 -0.3999  0.5160
  834SOL    HW114227   5.529   2.903   1.715  1.2129 -0.1673  0.6006
  834SOL    HW214228   5.542   2.764   1.656 -1.7028 -0.4147  0.3994
  835SOL     OW14229   1.642   4.068  11.650 -0.1160 -0.2576  0.1949
  835SOL    HW114230   1.600   3.987  11.679  0.3247 -0.6092 -0.1509
  835SOL    HW214231   1.572   4.133  11.654 -0.7051 -0.8355 -0.3822
  836SOL     OW14232   3.973   8.705   2.827 -0.1210 -0.4094 -0.1125
  836SOL    HW114233   3.938   8.793   2.814 -0.5748 -0.3677  1.2997
  836SOL    HW214234   4.056   8.705   2.779 -0.3114  0.6536 -0.4592
  837SOL     OW14235  11.012  13.291  10.041  0.2068 -0.0619 -0.2898
  837SOL    HW114236  10.919  13.272  10.032 -0.1565 -0.0742  2.6084
  837SOL    HW214237  11.043  13.231  10.109  1.8936  1.2160  0.1545
  838SOL     OW14238   1.349   5.391   7.479  0.0011  0.1477  0.1782
  838SOL    HW114239   1.256   5.412   7.485 -0.2055 -0.3593 -1.0084
  838SOL    HW214240   1.394   5.475   7.480 -0.3730  0.3651  1.9063
  839SOL     OW14241   3.664   9.902   7.712 -0.0411  0.0271 -0.2071
  839SOL    HW114242   3.664   9.929   7.621  1.5143 -1.1902 -0.6243
  839SOL    HW214243   3.686   9.808   7.709  1.6106  0.2909  1.4388
  840SOL     OW14244   1.427   9.566  12.541 -0.2167 -0.0787 -0.3038
  840SOL    HW114245   1.438   9.528  12.627  1.3708 -1.0289 -0.8900
  840SOL    HW214246   1.399   9.493  12.485  2.0854 -0.2947 -1.2711
  841SOL     OW14247  11.105   3.967   3.109  0.2047  0.4455  0.4347
  841SOL    HW114248  11.200   3.976   3.104  0.3650 -1.4530 -1.0672
  841SOL    HW214249  11.090   3.905   3.179  0.0180  1.1281  1.0101
  842SOL     OW14250  12.324  11.885  12.129 -0.4437  0.2889 -0.1797
  842SOL    HW114251  12.409  11.886  12.085 -1.8066 -0.5293 -3.0654
  842SOL    HW214252  12.311  11.976  12.156  1.6167  0.2929  0.9822
  843SOL     OW14253   2.376   4.156   4.975 -0.2542 -0.0537  0.1811
  843SOL    HW114254   2.301   4.189   4.925  0.2758  1.1098  0.1004
  843SOL    HW214255   2.391   4.223   5.041  0.4346 -0.4939  0.4790
  844SOL     OW14256   8.165   6.197  10.469 -0.0925 -0.2040  0.2020
  844SOL    HW114257   8.107   6.144  10.522 -2.8177  0.6186 -1.7581
  844SOL    HW214258   8.145   6.173  10.378  0.1279  2.5521 -0.6715
  845SOL     OW14259   5.866   9.760   6.226  0.1165 -0.0156 -0.3749
  845SOL    HW114260   5.928   9.752   6.298  0.3259  1.0476 -0.4104
  845SOL    HW214261   5.786   9.795   6.267  0.0278 -0.0073 -0.5518
  846SOL     OW14262  13.443   0.201   1.072 -0.2486  0.1657 -0.1415
  846SOL    HW114263  13.455   0.177   1.164  1.1610  0.1116 -0.3105
  846SOL    HW214264  13.399   0.286   1.075  1.1587  0.8954  0.6409
  847SOL     OW14265  10.745  13.550  11.745 -0.1673  0.3335  0.6793
  847SOL    HW114266  10.738  13.472  11.689 -0.0961 -0.4956  1.7865
  847SOL    HW214267  10.656  13.584  11.751 -0.5282 -0.7382  1.6573
  848SOL     OW14268   7.500   8.469   8.488  0.3816  0.2584  0.1772
  848SOL    HW114269   7.491   8.393   8.431  0.1315  0.1804  0.3207
  848SOL    HW214270   7.497   8.433   8.577  0.9938  0.3527  0.2399
  849SOL     OW14271   9.899   3.714   4.141  0.3909  0.3306  0.4550
  849SOL    HW114272   9.849   3.782   4.186  0.1927 -0.3416  1.2789
  849SOL    HW214273   9.985   3.717   4.183  1.1189  1.5918 -1.0671
  850SOL     OW14274  10.772   5.736  12.408 -0.3845 -0.0532 -0.0278
  850SOL    HW114275  10.825   5.736  12.488  0.2797  1.2461 -0.4318
  850SOL    HW214276  10.694   5.687  12.431 -0.4942  0.8188  1.6303
  851SOL     OW14277   0.296   7.030  10.939  0.4682 -0.1947 -0.4362
  851SOL    HW114278   0.290   7.044  10.844 -0.5920  0.9560 -0.2257
  851SOL    HW214279   0.302   6.935  10.949 -0.7483 -0.4158 -1.5987
  852SOL     OW14280   3.247   9.485   9.645 -0.0389  0.6235 -0.2650
  852SOL    HW114281   3.251   9.395   9.677  3.2565 -0.7110 -3.6888
  852SOL    HW214282   3.193   9.481   9.566  0.7697  1.4022 -0.8896
  853SOL     OW14283   2.685   8.664   2.995  0.1325 -0.1353  0.2843
  853SOL    HW114284   2.707   8.751   3.027  1.3607 -0.4531  0.3230
  853SOL    HW214285   2.638   8.622   3.067 -0.9627  0.6620  0.0715
  854SOL     OW14286   2.782  10.602   7.532  0.0317  0.3755 -0.3052
  854SOL    HW114287   2.738  10.642   7.456 -1.6949 -0.4996  0.1807
  854SOL    HW214288   2.867  10.576   7.499 -0.6744  0.0350 -1.9634
  855SOL     OW14289   1.352   0.519  10.748 -0.6652 -0.4277 -0.1545
  855SOL    HW114290   1.370   0.603  10.791  1.5281 -0.6124 -0.5754
  855SOL    HW214291   1.330   0.542  10.658  0.3096 -0.2850 -0.3720
  856SOL     OW14292   1.913   4.554  13.641 -0.0877 -0.0261  0.7661
  856SOL    HW114293   1.846   4.510  13.693 -1.3773  0.4530 -0.4275
  856SOL    HW214294   1.886   4.540  13.550  0.4169  1.7343  0.3068
  857SOL     OW14295   4.229  12.608   6.996  0.0044  0.4420  0.2304
  857SOL    HW114296   4.293  12.658   6.944 -0.7623 -0.2833 -1.4945
  857SOL    HW214297   4.175  12.564   6.931 -0.8951 -0.6877  1.6821
  858SOL     OW14298   8.372   8.417  11.654 -0.1913  0.3696  0.2810
  858SOL    HW114299   8.464   8.388  11.655 -0.8375 -1.8699  0.5099
  858SOL    HW214300   8.344   8.408  11.745 -0.9957 -0.2730 -0.0198
  859SOL     OW14301   1.105   7.157   7.196  0.5029 -0.0747 -0.0683
  859SOL    HW114302   1.070   7.195   7.276  0.4669 -0.5839  0.1586
  859SOL    HW214303   1.080   7.218   7.127  0.2901  0.2190  0.2703
  860SOL     OW14304   6.002   9.737   1.272 -0.1758  0.3159  0.0393
  860SOL    HW114305   6.042   9.747   1.186  0.8048  0.3147  0.4856
  860SOL    HW214306   6.024   9.817   1.318 -1.9633  0.9742 -0.1882
  861SOL     OW14307   4.703   8.889   5.840  0.3913  0.0585  0.8740
  861SOL    HW114308   4.773   8.828   5.815  0.6732  0.6326  0.2269
  861SOL    HW214309   4.665   8.851   5.919 -0.9832 -2.2188 -0.7587
  862SOL     OW14310   1.510   6.850   9.459 -0.5529  0.1587 -0.4293
  862SOL    HW114311   1.498   6.757   9.476 -1.9929  0.3343 -0.3451
  862SOL    HW214312   1.605   6.862   9.457 -0.2316 -1.8305 -3.3476
  863SOL     OW14313   1.424   3.702  12.887 -0.2440 -0.0545  0.0808
  863SOL    HW114314   1.481   3.676  12.960  1.1405  0.5489 -0.7518
  863SOL    HW214315   1.399   3.620  12.846 -0.2483 -0.3492  0.6597
  864SOL     OW14316   0.592   1.037   9.108 -0.1620 -0.8163 -0.8765
  864SOL    HW114317   0.579   1.126   9.142  3.1003 -0.9186  1.0017
  864SOL    HW214318   0.519   0.987   9.143 -0.6214  0.5761  0.2701
  865SOL     OW14319   7.920  13.621   2.106 -0.0400 -0.3848  0.6350
  865SOL    HW114320   8.002  13.618   2.155  0.5133 -0.8631 -0.2933
  865SOL    HW214321   7.900  13.714   2.098  0.1660 -0.2846  1.2744
  866SOL     OW14322  11.252   5.382  10.786 -0.1394 -0.1094 -0.2439
  866SOL    HW114323  11.282   5.293  10.768  0.1276 -0.5269  1.9353
  866SOL    HW214324  11.322   5.438  10.754 -0.3485 -0.6610 -1.7204
  867SOL     OW14325   7.515   6.408   4.478 -0.1300  0.0392  0.0646
  867SOL    HW114326   7.550   6.391   4.565  2.7982 -0.3866 -1.0569
  867SOL    HW214327   7.420   6.407   4.489  0.1137  1.2754  3.4483
  868SOL     OW14328   8.014   9.102   5.669 -0.1840  0.0387  0.2910
  868SOL    HW114329   8.027   9.153   5.749  0.0422  0.5730 -0.0770
  868SOL    HW214330   8.083   9.036   5.671 -1.4875 -1.3643  1.6013
  869SOL     OW14331   0.156   8.266  10.393  0.0342  0.6575 -0.0711
  869SOL    HW114332   0.127   8.321  10.466 -2.4984  0.2002 -0.6236
  869SOL    HW214333   0.101   8.294  10.319  1.7446  0.3406 -1.5334
  870SOL     OW14334   8.426  13.563   7.505  0.0179  0.1403  0.1899
  870SOL    HW114335   8.400  13.600   7.421  0.1856  0.1391  0.1375
  870SOL    HW214336   8.349  13.512   7.533  0.5023 -1.1275 -0.6864
  871SOL     OW14337   1.847   6.335   4.769 -0.1250 -0.0394 -0.3238
  871SOL    HW114338   1.863   6.273   4.698 -0.1083  0.1594 -0.4912
  871SOL    HW214339   1.925   6.327   4.825 -0.3696 -0.5683 -0.0561
  872SOL     OW14340   9.731   4.921   0.124  0.0776 -0.1647  0.4165
  872SOL    HW114341   9.747   5.008   0.087 -1.3385  0.2571  0.7332
  872SOL    HW214342   9.672   4.879   0.062 -0.6708 -0.2241  1.1600
  873SOL     OW14343   7.918  12.825   3.755 -1.0947 -0.0555 -0.4904
  873SOL    HW114344   7.888  12.797   3.842 -0.2713 -1.3871 -0.6063
  873SOL    HW214345   7.841  12.866   3.716 -1.2687  1.2942  1.1463
  874SOL     OW14346   1.212   2.400  12.473 -0.1699 -0.2429  0.2740
  874SOL    HW114347   1.191   2.492  12.487 -0.3058 -0.1386 -0.5243
  874SOL    HW214348   1.162   2.376  12.394 -0.1713 -1.0089  0.4993
  875SOL     OW14349  12.704   6.745   3.779 -0.6430 -0.2496 -0.7065
  875SOL    HW114350  12.750   6.766   3.698  0.8112 -0.2658  0.0656
  875SOL    HW214351  12.641   6.678   3.755 -0.4604 -0.0276 -1.8738
  876SOL     OW14352   7.411  10.410   4.877 -0.4228  0.4622  0.2040
  876SOL    HW114353   7.412  10.320   4.908 -1.2681  0.4919  0.3347
  876SOL    HW214354   7.329  10.417   4.827 -0.2172  1.0724 -0.0560
  877SOL     OW14355   9.325  11.536   9.798 -0.2585  0.4254 -0.3846
  877SOL    HW114356   9.257  11.549   9.865 -0.2091 -0.5078 -0.1484
  877SOL    HW214357   9.291  11.583   9.721 -0.9430  0.3748 -0.1249
  878SOL     OW14358   8.500   2.314  11.817  0.1710 -0.2855  0.5325
  878SOL    HW114359   8.500   2.358  11.902 -0.0643  0.8087 -0.0269
  878SOL    HW214360   8.553   2.371  11.761  0.7845 -1.2752  0.0711
  879SOL     OW14361  12.065   8.043  12.363 -0.5807  0.3531 -0.1974
  879SOL    HW114362  12.051   7.957  12.402  1.1272  0.0769 -0.0970
  879SOL    HW214363  12.154   8.039  12.328 -0.7802  1.7975 -0.9532
  880SOL     OW14364   9.897  13.282  12.328  0.5610  0.1995 -0.6700
  880SOL    HW114365   9.906  13.193  12.295  0.5472  0.7686 -2.3115
  880SOL    HW214366   9.981  13.324  12.308  0.6861  0.4834  0.3766
  881SOL     OW14367  10.191   6.767   0.668  0.1170 -0.3786 -0.2438
  881SOL    HW114368  10.209   6.791   0.577 -0.5471 -1.9095 -0.8217
  881SOL    HW214369  10.264   6.710   0.693  0.8847  0.9389  0.5814
  882SOL     OW14370  12.438   1.443   0.094 -0.3366 -0.1706 -0.5005
  882SOL    HW114371  12.399   1.444   0.006  0.1578 -1.2320 -0.7537
  882SOL    HW214372  12.393   1.371   0.139 -0.4099  0.2073  0.0339
  883SOL     OW14373  13.705   3.954   8.153 -0.2449  0.1131 -0.1311
  883SOL    HW114374  13.750   3.948   8.237 -1.3821 -1.5681  0.4253
  883SOL    HW214375  13.775   3.968   8.089  0.6206  1.5973  1.0756
  884SOL     OW14376   9.025  12.240   9.090  0.1594  0.4719 -0.1042
  884SOL    HW114377   9.099  12.300   9.085  1.2791 -0.7177  1.3875
  884SOL    HW214378   9.064  12.156   9.111 -1.6177 -0.2128  0.6107
  885SOL     OW14379  10.379   9.731  12.599 -0.2438 -0.6760 -0.4249
  885SOL    HW114380  10.391   9.792  12.672 -2.4668 -0.9570  0.2592
  885SOL    HW214381  10.394   9.783  12.521 -2.9717  1.1136  0.0975
  886SOL     OW14382   2.663   9.529  13.172 -0.2864 -0.0268 -0.1082
  886SOL    HW114383   2.669   9.437  13.148  0.1481  0.1556 -0.7105
  886SOL    HW214384   2.589   9.533  13.233 -2.0361 -0.3685 -2.0864
  887SOL     OW14385  13.741   6.303  13.428 -0.4920 -0.5595  0.5063
  887SOL    HW114386  13.821   6.287  13.378 -0.9562  0.9310 -0.7837
  887SOL    HW214387  13.752   6.250  13.507  0.4676 -2.6495 -0.9296
  888SOL     OW14388   9.319  11.995   1.891 -0.7513 -0.3110  0.4618
  888SOL    HW114389   9.367  11.965   1.814  1.7837 -2.1138  2.5552
  888SOL    HW214390   9.242  11.938   1.896 -1.8047  0.8467 -1.4733
  889SOL     OW14391   8.337   4.438  11.379 -0.3106  0.0476 -0.5427
  889SOL    HW114392   8.246   4.466  11.376 -0.8540 -0.9459  2.5050
  889SOL    HW214393   8.375   4.486  11.453  1.4708 -0.1047 -1.2877
  890SOL     OW14394   5.471   0.485   4.946 -0.0869  0.4575 -0.6452
  890SOL    HW114395   5.418   0.437   5.009 -1.0759  1.5906 -0.5938
  890SOL    HW214396   5.521   0.417   4.900 -0.5570 -0.5050  0.2460
  891SOL     OW14397  11.378   9.781   0.996  0.0031  0.0205  0.2620
  891SOL    HW114398  11.333   9.733   0.927  0.7897 -0.6533  0.2020
  891SOL    HW214399  11.351   9.872   0.984  0.2094 -0.0739 -0.9964
  892SOL     OW14400  13.573  12.915   3.181 -0.8055 -0.0037 -0.1733
  892SOL    HW114401  13.623  12.933   3.261 -0.9830 -1.6007  0.3414
  892SOL    HW214402  13.558  12.820   3.183  0.7011 -0.4049 -3.0186
  893SOL     OW14403  13.592   2.765   6.711  0.2057 -0.3315 -0.0322
  893SOL    HW114404  13.680   2.730   6.724  0.1501 -0.5616 -0.2451
  893SOL    HW214405  13.553   2.705   6.647 -0.1258 -0.2670  0.1101
  894SOL     OW14406   8.698   7.752   1.042  0.2418  0.4302  0.4569
  894SOL    HW114407   8.619   7.729   1.090 -1.4432 -0.0610 -2.3119
  894SOL    HW214408   8.682   7.841   1.011  1.0966  0.5863  0.4267
  895SOL     OW14409  12.230  11.069   2.018 -0.3745 -0.0800 -0.3807
  895SOL    HW114410  12.247  11.007   2.089 -2.2289  1.6631  1.7320
  895SOL    HW214411  12.189  11.016   1.949 -2.2822 -1.2232  1.5146
  896SOL     OW14412  11.146  12.520   1.220 -0.1767  0.4101 -0.0325
  896SOL    HW114413  11.163  12.459   1.291  1.7728  0.2277 -0.5802
  896SOL    HW214414  11.233  12.553   1.195 -1.0524  2.5837 -0.4869
  897SOL     OW14415   4.278  13.247   8.369  0.4801 -0.5451  0.0801
  897SOL    HW114416   4.355  13.278   8.416 -0.5587  0.5223  1.1686
  897SOL    HW214417   4.241  13.180   8.427 -0.5067  0.3909  0.5699
  898SOL     OW14418   3.433   0.055  12.170  0.2325 -0.7200 -0.3400
  898SOL    HW114419   3.399   0.104  12.245 -0.6255 -0.7003 -0.7376
  898SOL    HW214420   3.441  -0.035  12.201  0.2296 -0.6424 -0.1135
  899SOL     OW14421   8.747  12.208   1.902 -0.3109 -0.3038  0.6083
  899SOL    HW114422   8.812  12.251   1.958  1.2317 -2.2665  0.4335
  899SOL    HW214423   8.784  12.214   1.814 -1.3346  0.2290  0.1950
  900SOL     OW14424  13.217  12.381  12.514  0.3360 -0.0283 -0.1168
  900SOL    HW114425  13.171  12.448  12.564  1.0143  0.4327 -0.0944
  900SOL    HW214426  13.150  12.315  12.496 -0.3048  0.5648  0.0130
  901SOL     OW14427   5.643   2.509   7.636  0.1310 -0.2602  0.0146
  901SOL    HW114428   5.650   2.550   7.722  1.4644 -1.8197  0.7102
  901SOL    HW214429   5.554   2.476   7.632  0.0036 -0.0178  0.7125
  902SOL     OW14430   0.321   7.894  12.952 -0.2155  0.0334 -0.2373
  902SOL    HW114431   0.323   7.872  12.859 -0.9953 -0.2764 -0.1871
  902SOL    HW214432   0.400   7.946  12.966 -1.3311  2.2700 -1.6338
  903SOL     OW14433   4.284   7.926   7.394 -0.1191 -0.2089  0.4247
  903SOL    HW114434   4.338   7.997   7.360  0.0294 -0.7577 -0.5141
  903SOL    HW214435   4.277   7.944   7.487 -1.0680  1.6954  0.0296
  904SOL     OW14436   3.742   2.531   0.582  0.7942  0.0763 -0.2850
  904SOL    HW114437   3.682   2.463   0.611 -0.4467  0.4863 -1.7590
  904SOL    HW214438   3.766   2.505   0.493  1.5751  0.7380 -0.2845
  905SOL     OW14439   8.020  10.048  13.711 -0.2368 -0.7033 -0.4668
  905SOL    HW114440   7.934  10.011  13.730 -0.2786 -1.6899 -2.3125
  905SOL    HW214441   8.078   9.972  13.705  0.4559 -0.1716 -0.6799
  906SOL     OW14442  12.562   0.398   8.201  0.5053 -0.4672  0.4927
  906SOL    HW114443  12.494   0.355   8.252  0.1437 -1.5927 -0.8509
  906SOL    HW214444  12.618   0.326   8.171 -0.1196 -0.0755 -1.8467
  907SOL     OW14445   9.748   7.831   5.555  0.3278 -0.2164 -0.4639
  907SOL    HW114446   9.722   7.914   5.595 -1.8086 -0.7785 -0.5302
  907SOL    HW214447   9.835   7.814   5.589  0.2582  1.3785  0.6266
  908SOL     OW14448  12.497   3.610   7.369  0.2761  0.4022 -0.1801
  908SOL    HW114449  12.513   3.606   7.464 -0.5378  0.1052 -0.0437
  908SOL    HW214450  12.405   3.586   7.360  0.6635 -0.8099 -1.1538
  909SOL     OW14451  10.797   2.138   5.626  0.4003  0.6093  0.0316
  909SOL    HW114452  10.842   2.223   5.628 -0.3622  1.0412 -0.4495
  909SOL    HW214453  10.767   2.124   5.715 -0.8871  1.6426 -0.2150
  910SOL     OW14454  12.723   5.565   8.005 -0.2731  0.8766 -0.2648
  910SOL    HW114455  12.715   5.635   8.069  3.0290  0.3716  0.9029
  910SOL    HW214456  12.712   5.608   7.921  2.1271  3.0060  0.3823
  911SOL     OW14457   0.632   4.643  13.130  0.1083  0.4926 -0.1477
  911SOL    HW114458   0.661   4.663  13.219 -0.2299  0.6657 -0.0799
  911SOL    HW214459   0.712   4.614  13.085  0.3539  0.7957  0.0961
  912SOL     OW14460  10.382   5.941  11.885  0.1992  0.0954 -0.4954
  912SOL    HW114461  10.376   5.980  11.972 -0.0314 -2.8366  0.9337
  912SOL    HW214462  10.440   5.999  11.836  0.0899  2.0058  1.5084
  913SOL     OW14463   3.127   2.076   8.077  0.1376 -0.4203 -0.3073
  913SOL    HW114464   3.145   2.098   7.986  0.3375 -2.5267 -0.8173
  913SOL    HW214465   3.036   2.045   8.077 -0.3236  0.8346  0.4898
  914SOL     OW14466   8.780   8.078  11.611 -0.0227  0.0918  0.4366
  914SOL    HW114467   8.733   8.114  11.535 -0.1329  0.7480  0.8067
  914SOL    HW214468   8.872   8.098  11.593  0.1701 -1.4447 -0.4234
  915SOL     OW14469   0.307   5.136  12.073 -0.4743 -0.0004  0.2650
  915SOL    HW114470   0.216   5.108  12.079 -0.9553  1.8083  3.1796
  915SOL    HW214471   0.353   5.082  12.138  0.0828  0.6695  0.4328
  916SOL     OW14472   5.548  12.362   6.446 -0.0027  0.7104 -0.0453
  916SOL    HW114473   5.475  12.301   6.457 -0.0682  0.4500 -1.6387
  916SOL    HW214474   5.514  12.428   6.386  0.9772  0.7485 -0.5671
  917SOL     OW14475   1.960   8.196   5.731  0.3756  0.2957 -0.4522
  917SOL    HW114476   1.869   8.192   5.703  0.6230 -0.0554 -1.2446
  917SOL    HW214477   1.967   8.128   5.799 -0.0836  0.7264  0.0373
  918SOL     OW14478   7.255   7.742   4.071  0.1020 -0.0340 -0.3559
  918SOL    HW114479   7.208   7.667   4.106  0.2231  0.5661  1.1744
  918SOL    HW214480   7.315   7.705   4.006  2.0067 -1.6739  2.1334
  919SOL     OW14481  13.623   7.341   2.706  0.1783  0.7268 -0.2449
  919SOL    HW114482  13.557   7.394   2.751 -2.8503 -2.8729  0.0414
  919SOL    HW214483  13.577   7.305   2.630  1.1337 -3.1359  0.7661
  920SOL     OW14484   9.496   8.553   2.352  0.1267 -0.0326  0.3548
  920SOL    HW114485   9.575   8.569   2.301 -0.7029 -1.4045 -1.4772
  920SOL    HW214486   9.468   8.639   2.382  3.0999  0.3804  2.4189
  921SOL     OW14487  10.947   3.450  12.910 -0.9490 -0.6674  0.1553
  921SOL    HW114488  10.981   3.438  12.822 -1.9978 -2.4768 -0.0509
  921SOL    HW214489  10.852   3.460  12.899 -0.8712  1.2744  0.9317
  922SOL     OW14490  13.301  11.177  10.276 -0.0300 -1.3219 -0.1326
  922SOL    HW114491  13.265  11.201  10.361 -1.4910 -0.9922 -0.8071
  922SOL    HW214492  13.224  11.165  10.220  0.8883 -1.7118 -1.3617
  923SOL     OW14493  11.570  11.939   8.181 -0.1250 -0.1363  0.0042
  923SOL    HW114494  11.570  11.857   8.132 -1.0811 -2.0714  2.9499
  923SOL    HW214495  11.491  11.985   8.151 -1.2947 -1.7736  0.4026
  924SOL     OW14496  10.717   8.985   4.450 -0.6257 -0.1909 -0.0158
  924SOL    HW114497  10.789   8.963   4.391  0.8084 -0.6528  1.7968
  924SOL    HW214498  10.708   9.080   4.444  2.6813  0.4338  2.3520
  925SOL     OW14499   3.885   2.144   7.775  0.2180 -0.6764  0.4227
  925SOL    HW114500   3.912   2.230   7.808  0.1737 -1.0374  1.4293
  925SOL    HW214501   3.938   2.131   7.696  1.5348 -0.5044  1.2481
  926SOL     OW14502   0.991   2.230  12.015  0.3365  0.5827  0.2876
  926SOL    HW114503   1.046   2.175  11.959 -1.1301  0.2906 -0.9014
  926SOL    HW214504   0.964   2.172  12.086  1.1571  0.6106  0.6452
  927SOL     OW14505  12.516   8.689   6.127 -0.0111  0.3561 -0.3309
  927SOL    HW114506  12.493   8.781   6.124  0.1094  0.3675 -0.9055
  927SOL    HW214507  12.504   8.657   6.038 -0.9232 -0.4002  0.0429
  928SOL     OW14508   4.864   1.737   2.075 -0.0871 -0.1442 -0.3511
  928SOL    HW114509   4.910   1.658   2.102  0.6020 -0.7114 -2.8499
  928SOL    HW214510   4.914   1.768   1.999 -0.3995  2.6644  0.4964
  929SOL     OW14511  11.191   2.864  11.833  0.0790 -0.1585  0.3345
  929SOL    HW114512  11.192   2.868  11.928  0.4824  0.8503  0.2927
  929SOL    HW214513  11.280   2.840  11.809  0.3912  1.1116  0.1622
  930SOL     OW14514   9.073   7.998   7.303 -0.0061  0.2010  0.1035
  930SOL    HW114515   9.100   7.925   7.247 -0.0244 -0.2512  0.6767
  930SOL    HW214516   9.092   7.968   7.392 -0.5653  0.6609  0.3805
  931SOL     OW14517   0.820   1.240  11.905  0.3441 -0.5257  0.2180
  931SOL    HW114518   0.748   1.297  11.875  1.7151  0.9772 -0.3360
  931SOL    HW214519   0.778   1.181  11.968 -1.8283 -1.1420 -1.6407
  932SOL     OW14520  11.407   7.102   5.219  0.6256  0.0870  0.5690
  932SOL    HW114521  11.410   7.189   5.260  0.2237  0.5000 -0.2586
  932SOL    HW214522  11.319   7.070   5.238  0.3884  0.3408 -0.0842
  933SOL     OW14523   1.888   8.023  12.210  0.0738 -0.6522 -0.2786
  933SOL    HW114524   1.941   7.992  12.284  1.4973 -0.0478 -1.0039
  933SOL    HW214525   1.852   7.944  12.171 -2.6003 -0.9251  2.3215
  934SOL     OW14526   7.711   1.478  13.398 -0.0877 -0.0203  0.3400
  934SOL    HW114527   7.638   1.468  13.458 -2.1110  1.9996 -1.5573
  934SOL    HW214528   7.767   1.544  13.439 -1.0489  0.7882  0.3873
  935SOL     OW14529   3.262  13.430  10.509  0.3427 -0.3688 -1.1294
  935SOL    HW114530   3.206  13.506  10.525  0.0020 -0.9177  0.5016
  935SOL    HW214531   3.342  13.449  10.558  0.9437 -0.3103 -2.1197
  936SOL     OW14532   5.002   2.251   6.404  0.6028 -0.7951  0.4376
  936SOL    HW114533   4.957   2.281   6.483 -2.3154  0.4952 -1.5261
  936SOL    HW214534   5.094   2.243   6.429  0.7693  4.5545  2.6956
  937SOL     OW14535  13.055   1.963  10.935 -0.5374 -0.4351  0.2490
  937SOL    HW114536  13.139   1.971  10.889 -0.1145 -0.4043  1.0083
  937SOL    HW214537  13.002   1.908  10.878 -0.0619 -0.3178 -0.3245
  938SOL     OW14538  12.673   3.198   6.690  0.0522 -0.7078 -0.3303
  938SOL    HW114539  12.718   3.120   6.656 -0.3361 -1.4237  0.7238
  938SOL    HW214540  12.582   3.185   6.666 -0.4044 -1.7043  1.7000
  939SOL     OW14541   4.900   7.653   6.104 -0.3056 -0.0580 -0.3106
  939SOL    HW114542   4.943   7.685   6.183  1.4381 -0.1118 -1.1890
  939SOL    HW214543   4.884   7.560   6.121  1.8134 -0.5488 -0.6762
  940SOL     OW14544   8.886   2.432   0.891 -0.0133  0.2565  0.0129
  940SOL    HW114545   8.949   2.394   0.952 -2.0688 -1.5433  1.1654
  940SOL    HW214546   8.871   2.363   0.827 -0.8296  0.6252 -0.2001
  941SOL     OW14547   4.830   4.708   6.049  0.0677 -0.5685  0.1222
  941SOL    HW114548   4.829   4.781   5.987  1.1073  0.0179  0.7569
  941SOL    HW214549   4.820   4.630   5.995 -2.5149  0.0681 -0.4625
  942SOL     OW14550   6.758   3.018   5.547  0.1006  0.6810  0.0172
  942SOL    HW114551   6.691   3.081   5.574 -0.2038 -0.4246  2.0584
  942SOL    HW214552   6.841   3.063   5.564 -0.0776  1.6776 -1.5715
  943SOL     OW14553   9.605   2.680   3.323 -0.2743  0.6650  0.0009
  943SOL    HW114554   9.568   2.721   3.402  0.1099  0.2905  0.3797
  943SOL    HW214555   9.549   2.710   3.252 -1.3801  0.0162  0.5803
  944SOL     OW14556   8.920  10.650   2.270  0.1362 -0.3462  0.3567
  944SOL    HW114557   8.902  10.664   2.363 -0.6535 -0.5434  0.2386
  944SOL    HW214558   9.015  10.658   2.263  0.1684  0.0328  1.1170
  945SOL     OW14559   2.232  10.950   9.063  0.2672 -0.6300  0.1857
  945SOL    HW114560   2.273  10.863   9.073  2.0833  0.3574  2.1315
  945SOL    HW214561   2.277  10.988   8.987  0.5126 -0.8492  0.2163
  946SOL     OW14562  13.704   3.396   8.058 -0.6680  0.0336  0.6863
  946SOL    HW114563  13.704   3.446   8.140 -0.2421 -0.7432  1.1817
  946SOL    HW214564  13.612   3.390   8.033 -0.6562  1.9057  0.0711
  947SOL     OW14565  11.958   6.656   1.356 -0.4981  0.3100  0.2650
  947SOL    HW114566  12.020   6.729   1.365 -0.9810  0.8603 -0.6822
  947SOL    HW214567  11.872   6.698   1.355 -0.8836 -0.4282  1.3440
  948SOL     OW14568   5.510  11.598   9.467 -0.4415  0.1556  0.3682
  948SOL    HW114569   5.498  11.592   9.561 -2.3349  0.6061  0.2003
  948SOL    HW214570   5.605  11.597   9.454 -0.1592 -0.1171  2.2455
  949SOL     OW14571   0.572   1.824   9.461 -0.5863 -0.2398  0.3773
  949SOL    HW114572   0.582   1.918   9.454 -0.2161 -0.3919 -1.6457
  949SOL    HW214573   0.657   1.788   9.436 -1.6830 -1.1471 -2.3949
  950SOL     OW14574  12.526   1.442   3.520 -0.1842 -0.2186  0.3047
  950SOL    HW114575  12.465   1.415   3.451 -0.6925  0.9820  0.2728
  950SOL    HW214576  12.534   1.537   3.510  1.5732 -0.3262  0.4089
  951SOL     OW14577   6.255   5.682   7.549  0.1306 -0.2091 -0.0212
  951SOL    HW114578   6.197   5.615   7.512 -0.0083 -0.2004  0.1758
  951SOL    HW214579   6.258   5.751   7.483 -1.0222  0.3216  0.4509
  952SOL     OW14580   7.231  13.038   1.980 -0.1880 -0.2275 -0.2215
  952SOL    HW114581   7.150  13.061   1.933 -2.4009 -2.0305  2.4268
  952SOL    HW214582   7.233  13.098   2.055  0.4518 -0.7946  0.2211
  953SOL     OW14583   5.267  11.312  11.919  0.3191  0.6415  0.3282
  953SOL    HW114584   5.215  11.383  11.881  0.4527  1.1093  1.0016
  953SOL    HW214585   5.275  11.248  11.848  0.2735  1.3386 -0.3272
  954SOL     OW14586   4.144   7.133   0.915  0.2833 -0.1663  0.4470
  954SOL    HW114587   4.128   7.062   0.977 -0.9729  0.0629  0.4073
  954SOL    HW214588   4.189   7.200   0.967 -0.3866 -0.1445  1.0055
  955SOL     OW14589   0.943   5.374  10.059 -0.4400 -0.0293 -0.4917
  955SOL    HW114590   0.978   5.447  10.111 -0.8721 -1.4895  2.0137
  955SOL    HW214591   1.003   5.302  10.076 -0.9325 -0.7259 -1.6192
  956SOL     OW14592   2.789   3.281  12.114 -0.2199 -0.4201 -0.0833
  956SOL    HW114593   2.851   3.274  12.187 -0.6604  0.0937  0.3518
  956SOL    HW214594   2.829   3.230  12.044  0.4924 -0.4472  0.3282
  957SOL     OW14595   5.283   0.707  10.872 -0.2399 -0.3308  0.3971
  957SOL    HW114596   5.258   0.781  10.926 -2.2775 -1.4850  1.1612
  957SOL    HW214597   5.314   0.641  10.935 -3.1871 -1.9084  0.3834
  958SOL     OW14598   9.571   7.420   4.178  0.6462  0.0388  0.5019
  958SOL    HW114599   9.658   7.452   4.153  1.3241 -2.2154 -0.2607
  958SOL    HW214600   9.589   7.357   4.249 -0.1855 -1.3421 -0.4616
  959SOL     OW14601  13.216   7.294   7.365 -0.5267  0.2207  0.3783
  959SOL    HW114602  13.214   7.320   7.274 -0.1167 -0.4632  0.1636
  959SOL    HW214603  13.308   7.273   7.382 -0.4933  0.9019  1.1159
  960SOL     OW14604   7.568  12.099  10.226 -0.9001 -0.4076 -0.1617
  960SOL    HW114605   7.604  12.010  10.233 -0.4502 -0.1762  0.5817
  960SOL    HW214606   7.534  12.118  10.314  0.8263  0.9018  0.3001
  961SOL     OW14607   2.357   4.454   5.440 -0.3807  0.1040  0.4739
  961SOL    HW114608   2.271   4.447   5.480 -0.4935 -1.4564  0.0351
  961SOL    HW214609   2.416   4.410   5.501  0.0939  0.9594  0.6605
  962SOL     OW14610  10.218   2.419  11.884 -0.4887 -0.0162  0.2318
  962SOL    HW114611  10.250   2.434  11.795 -1.4103 -1.4532 -0.3878
  962SOL    HW214612  10.246   2.330  11.906 -0.5422  0.2032  1.2590
  963SOL     OW14613   3.123   3.846  11.290  0.5106  0.2665  0.6883
  963SOL    HW114614   3.068   3.867  11.214 -0.4052 -0.8129  1.0327
  963SOL    HW214615   3.061   3.829  11.361  1.2546 -1.4122  0.9828
  964SOL     OW14616  13.469   2.608   4.889  0.2340 -0.4076 -0.1236
  964SOL    HW114617  13.550   2.641   4.928  0.1787  0.0836 -0.4090
  964SOL    HW214618  13.495   2.583   4.800 -0.3907  1.9660 -1.0404
  965SOL     OW14619   4.185   4.772   5.841  0.3940  0.2449 -0.9413
  965SOL    HW114620   4.168   4.782   5.934  3.5220  0.3008 -0.2861
  965SOL    HW214621   4.241   4.695   5.835  1.4476  1.0892 -2.5994
  966SOL     OW14622   7.785   1.098   9.551  0.2564 -0.0803 -0.8688
  966SOL    HW114623   7.698   1.062   9.568  0.0206  1.2037  1.0361
  966SOL    HW214624   7.768   1.180   9.504  0.4553 -0.0697 -0.9211
  967SOL     OW14625   9.635   5.086  10.731  0.3687  0.1114 -0.6133
  967SOL    HW114626   9.696   5.156  10.708 -1.0785  1.6175 -0.0911
  967SOL    HW214627   9.615   5.100  10.823  0.6152 -1.4715 -0.2912
  968SOL     OW14628   3.172   7.496   5.663  0.3578 -0.2201  0.3422
  968SOL    HW114629   3.186   7.446   5.582  0.8554  1.1579 -0.4555
  968SOL    HW214630   3.211   7.581   5.645 -0.3793  0.4295  1.7084
  969SOL     OW14631   2.990   6.094   6.811 -0.4722  0.2218 -0.1259
  969SOL    HW114632   2.967   6.186   6.803  2.8030  1.1831 -0.0574
  969SOL    HW214633   2.951   6.066   6.893 -1.8889  1.3832 -0.3692
  970SOL     OW14634   9.347  13.591  11.068  0.0941 -0.5254  0.2568
  970SOL    HW114635   9.438  13.561  11.065  0.2064 -0.1483 -0.1530
  970SOL    HW214636   9.346  13.660  11.134  0.3222  0.1800 -0.4660
  971SOL     OW14637   5.068  10.256   5.173  0.1870 -0.1332  0.3613
  971SOL    HW114638   5.081  10.330   5.231  3.4816 -0.7817  0.6059
  971SOL    HW214639   4.973  10.255   5.156 -0.1592  3.1819  1.4907
  972SOL     OW14640  13.027   4.892   3.971  0.7594 -0.0750  0.1984
  972SOL    HW114641  13.005   4.906   4.063  0.0134 -1.5179  0.2643
  972SOL    HW214642  12.948   4.918   3.923  0.0118 -2.1536  0.2078
  973SOL     OW14643   0.232  11.039   0.500 -0.4586  0.0571 -0.5380
  973SOL    HW114644   0.157  10.980   0.488 -0.8233  0.3144  0.3434
  973SOL    HW214645   0.308  10.981   0.502 -0.6749 -0.2510 -1.0091
  974SOL     OW14646   5.975   6.913   7.796 -0.2811  0.5990 -0.3566
  974SOL    HW114647   5.969   6.941   7.887  0.1119 -1.0869  0.2242
  974SOL    HW214648   5.894   6.863   7.781 -0.2808  0.7520 -0.8948
  975SOL     OW14649   4.810   7.982  10.299 -0.6527  0.3390 -0.0816
  975SOL    HW114650   4.859   8.020  10.372  1.5301 -2.3343 -0.0039
  975SOL    HW214651   4.855   8.014  10.221 -0.1868 -0.3057 -0.0836
  976SOL     OW14652   3.024   5.107   8.968 -0.0487  0.1864  0.4501
  976SOL    HW114653   2.933   5.135   8.977 -0.2652  0.4547 -1.9392
  976SOL    HW214654   3.073   5.188   8.952  0.3876 -0.1142  0.2494
  977SOL     OW14655   3.478   0.973   5.697 -0.3024  0.3160  0.0199
  977SOL    HW114656   3.455   0.884   5.725 -0.2049 -1.0496 -3.7307
  977SOL    HW214657   3.566   0.986   5.731 -0.3947 -0.9130  0.8092
  978SOL     OW14658  11.158   3.189  12.433 -0.1573 -0.5075  0.5128
  978SOL    HW114659  11.171   3.140  12.515 -0.9866  0.7926  1.4571
  978SOL    HW214660  11.064   3.204  12.430  0.1693  2.1647  0.9700
  979SOL     OW14661   0.982   9.309   7.121  0.9774 -0.2572 -0.1800
  979SOL    HW114662   1.011   9.336   7.034  0.1255  0.0290 -0.3786
  979SOL    HW214663   0.887   9.303   7.114  0.9080 -0.3035  0.7138
  980SOL     OW14664   4.688  10.521  12.845 -0.4734 -0.0937 -0.0286
  980SOL    HW114665   4.649  10.574  12.776 -1.0084 -0.0854  0.2770
  980SOL    HW214666   4.774  10.560  12.859 -0.8805  0.7244  0.2313
  981SOL     OW14667   1.941   7.391   2.395  0.1324 -0.5135  0.6877
  981SOL    HW114668   1.917   7.476   2.358  0.8297 -0.1498  1.0516
  981SOL    HW214669   1.888   7.328   2.347  1.3175 -0.1018 -1.2567
  982SOL     OW14670   9.977   5.127  10.246  0.2190 -0.1819  0.1929
  982SOL    HW114671   9.993   5.146  10.154 -0.7937  1.2801  0.2861
  982SOL    HW214672   9.891   5.164  10.264  0.1136 -1.0148  1.5723
  983SOL     OW14673   0.317   6.985  11.373  0.3721  0.5458 -0.4402
  983SOL    HW114674   0.402   6.947  11.352 -0.0464 -2.3437  2.2981
  983SOL    HW214675   0.275   6.920  11.429 -2.3864  3.2092  0.9007
  984SOL     OW14676  11.500   6.994   0.967  0.5791  0.2631 -0.2215
  984SOL    HW114677  11.526   7.060   1.031  0.4428 -0.5610  0.6930
  984SOL    HW214678  11.482   6.915   1.018  0.4790 -0.4193 -1.2667
  985SOL     OW14679   6.518  11.283   1.051 -0.2342  0.8300 -0.0424
  985SOL    HW114680   6.550  11.194   1.041  0.6716  1.0285  0.8915
  985SOL    HW214681   6.596  11.335   1.070 -0.7001  1.8826 -0.8296
  986SOL     OW14682  11.074   4.982  11.046 -0.1232 -0.2275  0.3066
  986SOL    HW114683  10.981   4.991  11.068  0.1153  1.7598  0.7451
  986SOL    HW214684  11.084   5.033  10.966  0.8708  1.1123  1.2271
  987SOL     OW14685  12.272   5.324  12.277  0.4913  0.0961  0.1575
  987SOL    HW114686  12.304   5.330  12.187  0.7128 -1.6894  0.0668
  987SOL    HW214687  12.190   5.373  12.277 -0.5987 -1.5833 -1.5995
  988SOL     OW14688   6.811  11.745   6.520  0.3498  0.4355  0.0390
  988SOL    HW114689   6.767  11.815   6.568  1.4738  0.5378  0.9294
  988SOL    HW214690   6.867  11.702   6.584  0.1417 -0.9041 -0.6385
  989SOL     OW14691   4.264  12.719   2.995  0.2612  0.6974 -0.1208
  989SOL    HW114692   4.350  12.678   3.001  0.6041  1.1197 -1.7457
  989SOL    HW214693   4.252  12.736   2.902 -1.6866  0.4392  0.0466
  990SOL     OW14694  10.665   0.532   3.382  0.3467  0.6801  0.1478
  990SOL    HW114695  10.628   0.597   3.323 -1.6430 -1.1378 -0.7001
  990SOL    HW214696  10.701   0.465   3.325  0.3765 -0.0524  1.0031
  991SOL     OW14697   8.833   3.100   8.230  0.3239  0.7414  0.2355
  991SOL    HW114698   8.740   3.117   8.241  0.4121  0.0406  2.5862
  991SOL    HW214699   8.866   3.177   8.183 -1.5609  0.5495 -1.4928
  992SOL     OW14700  13.085   4.230   1.017  0.1640  0.4868  0.1071
  992SOL    HW114701  13.140   4.225   0.939 -0.9640 -0.7705 -0.6430
  992SOL    HW214702  13.101   4.318   1.052  3.5395 -0.1870  0.5993
  993SOL     OW14703  13.038  11.386   2.599  0.0893 -0.3742  0.2930
  993SOL    HW114704  13.072  11.475   2.613 -0.8145 -0.1568  1.2790
  993SOL    HW214705  12.981  11.371   2.674 -2.3760 -0.5340 -1.5050
  994SOL     OW14706   3.520   2.994   1.340  0.7754 -0.4705 -0.1551
  994SOL    HW114707   3.553   3.084   1.333 -1.3460  0.3879 -0.0122
  994SOL    HW214708   3.524   2.960   1.251  1.4899 -0.1901 -0.2332
  995SOL     OW14709   6.750   1.562   6.848  0.6906 -0.5114  0.2456
  995SOL    HW114710   6.796   1.646   6.848  2.3446 -1.3596  0.9504
  995SOL    HW214711   6.661   1.583   6.818  1.2848  1.3388 -0.3847
  996SOL     OW14712   9.412   5.919  11.040 -0.1286 -0.4767  0.2176
  996SOL    HW114713   9.336   5.949  11.091 -1.4175 -1.7400 -0.8822
  996SOL    HW214714   9.485   5.922  11.103 -0.3462  3.5956  0.5533
  997SOL     OW14715   2.865   5.004   9.270  0.4855 -0.2029  0.1121
  997SOL    HW114716   2.882   5.098   9.265  0.2963 -0.2224 -1.2112
  997SOL    HW214717   2.950   4.966   9.294  0.1069  0.4355  2.7133
  998SOL     OW14718   7.794  13.596  13.050 -0.2018  0.6875  0.3154
  998SOL    HW114719   7.767  13.557  13.133  0.6910  0.4935  0.5310
  998SOL    HW214720   7.811  13.521  12.993 -2.9205  0.8222 -0.7912
  999SOL     OW14721   0.925   2.438  12.674  0.2446  0.1103  0.3780
  999SOL    HW114722   1.010   2.403  12.700  0.8988  0.4830 -1.1696
  999SOL    HW214723   0.943   2.526  12.643 -0.5461 -0.1017 -0.7667
 1000SOL     OW14724   1.641  13.321   4.957  0.1982 -0.3078  0.2576
 1000SOL    HW114725   1.565  13.297   5.010  0.0170  0.2656  0.2679
 1000SOL    HW214726   1.613  13.401   4.911  0.8571  0.0053  0.3977
 1001SOL     OW14727   6.217  10.421   1.130  0.0379  0.5907  0.0927
 1001SOL    HW114728   6.123  10.421   1.143  0.1641  2.0516  1.3103
 1001SOL    HW214729   6.230  10.375   1.047 -1.8354  1.2989 -0.6516
 1002SOL     OW14730   1.803  12.269   5.326  0.5304  0.4632  0.3974
 1002SOL    HW114731   1.843  12.258   5.240  1.6170  1.0265  0.8029
 1002SOL    HW214732   1.710  12.253   5.312  0.5835  1.2146 -1.0227
 1003SOL     OW14733  13.639   4.116  11.180  0.2621  0.2358 -0.1517
 1003SOL    HW114734  13.571   4.049  11.186 -0.4939  0.9943 -0.0533
 1003SOL    HW214735  13.670   4.111  11.090  1.9450 -1.8662  0.4326
 1004SOL     OW14736   0.562  12.228   4.035 -0.2463 -0.1532 -0.3118
 1004SOL    HW114737   0.627  12.189   4.093  0.2974  0.8304 -0.2480
 1004SOL    HW214738   0.518  12.294   4.088 -1.8226 -1.2796 -0.1328
 1005SOL     OW14739   1.889   4.326   7.858  0.0097  0.2046  0.4280
 1005SOL    HW114740   1.897   4.308   7.951 -2.6027  0.9703  0.8838
 1005SOL    HW214741   1.919   4.417   7.849 -0.5108  0.4008  0.6679
 1006SOL     OW14742   8.089   4.572   2.311  0.3113  0.5841 -0.0601
 1006SOL    HW114743   7.998   4.546   2.294  0.4693  0.7166 -1.1863
 1006SOL    HW214744   8.141   4.509   2.262  0.8170  0.8260  0.1609
 1007SOL     OW14745   2.627  12.439   2.805 -0.8462 -0.2141 -0.5983
 1007SOL    HW114746   2.545  12.488   2.810 -0.2681  0.6918  0.4832
 1007SOL    HW214747   2.646  12.414   2.896 -0.2295 -0.9395 -0.9132
 1008SOL     OW14748   1.215  12.242   6.109  0.2688  0.6238 -0.3797
 1008SOL    HW114749   1.302  12.221   6.074 -0.0253 -1.2230 -0.1230
 1008SOL    HW214750   1.154  12.210   6.042 -0.2377 -0.4750  0.5611
 1009SOL     OW14751   7.599   9.425  13.512  0.1301  0.0628  0.4038
 1009SOL    HW114752   7.541   9.459  13.444  0.6134  0.2232  0.0647
 1009SOL    HW214753   7.565   9.464  13.593  1.1824  2.1248 -0.0679
 1010SOL     OW14754  12.053   9.887  10.016 -0.1233 -0.0899  0.9665
 1010SOL    HW114755  12.042   9.873   9.922  0.7876  1.8189  0.5343
 1010SOL    HW214756  12.091   9.805  10.048 -0.3322 -0.7250 -0.3447
 1011SOL     OW14757   6.445   5.253   0.593 -0.2452  0.9389  0.4652
 1011SOL    HW114758   6.424   5.162   0.612 -1.4819  1.3630  1.2959
 1011SOL    HW214759   6.459   5.293   0.678 -0.1333  1.6127  0.1390
 1012SOL     OW14760   6.050  10.175  10.095  0.2715 -0.3542  0.3222
 1012SOL    HW114761   6.128  10.150  10.145  0.4837  0.9163  0.6449
 1012SOL    HW214762   6.004  10.237  10.151  0.5291  1.1300 -1.0516
 1013SOL     OW14763   4.813  12.231  13.453  0.0521  0.5710 -0.0150
 1013SOL    HW114764   4.905  12.252  13.437  1.0348 -2.4945  0.9748
 1013SOL    HW214765   4.765  12.293  13.398  2.7528  0.8427 -2.3031
 1014SOL     OW14766  11.112   5.553   6.774  0.3048 -0.4598  0.4918
 1014SOL    HW114767  11.158   5.494   6.834 -0.3428 -1.3421  0.1421
 1014SOL    HW214768  11.138   5.641   6.803 -1.1460 -0.7776  3.0754
 1015SOL     OW14769   8.218   7.214  13.003 -0.2629 -0.0026  0.0687
 1015SOL    HW114770   8.265   7.282  13.052  0.9903 -0.6775 -0.1603
 1015SOL    HW214771   8.260   7.214  12.917 -0.4578 -0.8625 -0.0319
 1016SOL     OW14772   9.755   5.118   4.582  0.3300 -0.0382  0.8056
 1016SOL    HW114773   9.734   5.129   4.489 -1.2112 -0.5994  1.0576
 1016SOL    HW214774   9.821   5.049   4.584  1.3127  0.8406  0.0616
 1017SOL     OW14775   8.994   7.761   5.546 -0.4215 -0.7657 -0.3488
 1017SOL    HW114776   8.956   7.812   5.618  2.3172  0.7732  0.1610
 1017SOL    HW214777   9.063   7.709   5.587  0.2238 -0.9667 -1.6322
 1018SOL     OW14778   3.356   8.865   6.855  0.2796 -0.0290 -0.5501
 1018SOL    HW114779   3.311   8.837   6.775 -0.0460  2.2311 -1.2129
 1018SOL    HW214780   3.377   8.957   6.840 -1.8939  1.1971  2.8278
 1019SOL     OW14781  12.979   4.966  12.883  0.0377 -0.3668 -0.1008
 1019SOL    HW114782  12.979   4.939  12.975 -0.7413  0.5202  0.1850
 1019SOL    HW214783  13.051   4.918  12.843 -0.6262 -2.0290  0.6014
 1020SOL     OW14784   5.356   9.324   8.023 -0.2117 -0.1880 -0.4364
 1020SOL    HW114785   5.411   9.330   7.944  0.1860 -1.8089 -0.3167
 1020SOL    HW214786   5.414   9.287   8.089 -1.0502 -0.5299  0.1190
 1021SOL     OW14787  12.209   8.425   5.497  0.7520 -0.3812  0.3046
 1021SOL    HW114788  12.287   8.461   5.454  1.2353 -2.0190 -0.2463
 1021SOL    HW214789  12.168   8.370   5.431 -1.0027  0.5725  0.5324
 1022SOL     OW14790  11.166   2.249   7.088 -0.0041 -1.0130 -0.4214
 1022SOL    HW114791  11.145   2.158   7.069 -1.2881 -0.5258 -1.5468
 1022SOL    HW214792  11.087   2.283   7.131  1.3967 -1.0503  2.4178
 1023SOL     OW14793  10.141   8.308  12.885  0.2699 -0.0400 -0.5123
 1023SOL    HW114794  10.213   8.328  12.826 -0.6513 -0.2706 -1.7379
 1023SOL    HW214795  10.136   8.384  12.943  0.0341  1.0105 -1.8847
 1024SOL     OW14796   2.203   1.079   3.870 -0.4138 -0.1604  0.2966
 1024SOL    HW114797   2.229   1.078   3.963  1.0108 -3.4521  0.0338
 1024SOL    HW214798   2.282   1.050   3.824 -1.7764 -0.9038 -1.6725
 1025SOL     OW14799  10.059   4.240   3.513 -0.0907  0.3682 -0.0169
 1025SOL    HW114800  10.152   4.257   3.525 -0.2275  3.2731 -1.9586
 1025SOL    HW214801  10.039   4.276   3.426 -2.6137 -2.1769 -0.6294
 1026SOL     OW14802  11.173  11.647  10.007 -0.0263  0.1750 -0.8692
 1026SOL    HW114803  11.141  11.569   9.962 -1.1212  0.2166 -0.2044
 1026SOL    HW214804  11.094  11.691  10.037  0.6398 -0.6903  2.5119
 1027SOL     OW14805  11.373   3.905   3.095  0.5295 -0.3166  0.2487
 1027SOL    HW114806  11.347   3.813   3.090 -3.1897  0.5791 -0.0569
 1027SOL    HW214807  11.392   3.920   3.188 -1.8887 -0.7964  0.8871
 1028SOL     OW14808   8.699   5.925   1.290 -0.2919 -0.5135  0.8371
 1028SOL    HW114809   8.622   5.893   1.243 -0.3371  0.4542  0.2057
 1028SOL    HW214810   8.750   5.970   1.222 -0.0237  0.3190  1.5744
 1029SOL     OW14811   1.330   8.197   1.019 -0.8015 -0.0441  0.7289
 1029SOL    HW114812   1.333   8.126   0.955 -0.6915  0.0832  0.5944
 1029SOL    HW214813   1.266   8.167   1.085 -2.2963  0.6131 -0.3697
 1030SOL     OW14814  12.292  11.261  11.551  0.1998 -0.4230  0.2847
 1030SOL    HW114815  12.242  11.234  11.628 -1.0784  2.3950  0.5718
 1030SOL    HW214816  12.383  11.252  11.576 -0.1872 -0.7811  1.6281
 1031SOL     OW14817  11.117   6.477   3.468  0.0723  0.1490  0.1658
 1031SOL    HW114818  11.127   6.382   3.460 -0.7403  0.0804 -0.1414
 1031SOL    HW214819  11.028   6.489   3.501  0.5608  0.7720  1.2963
 1032SOL     OW14820   4.056   7.239  12.108 -0.0437  0.0511 -0.3436
 1032SOL    HW114821   4.128   7.265  12.051  1.7000 -0.6555  1.3927
 1032SOL    HW214822   4.043   7.146  12.090  0.7882 -0.2751  0.6148
 1033SOL     OW14823  11.360   9.747   4.667 -0.4819 -0.2448  0.4335
 1033SOL    HW114824  11.398   9.664   4.639 -0.4843 -0.9029  2.2095
 1033SOL    HW214825  11.433   9.810   4.661 -0.3609 -0.4648 -0.5008
 1034SOL     OW14826   0.612   9.287   8.226  0.6633  0.1081  0.2936
 1034SOL    HW114827   0.666   9.337   8.287  0.1402 -1.4807  2.1698
 1034SOL    HW214828   0.532   9.268   8.275 -1.1985  1.4239 -1.9991
 1035SOL     OW14829   6.404   9.419  11.592  0.4096  0.1362 -0.9796
 1035SOL    HW114830   6.332   9.449  11.537  0.2970  0.0694 -0.8732
 1035SOL    HW214831   6.388   9.325  11.602 -3.0165  0.8198  3.9194
 1036SOL     OW14832  12.286  11.777  13.622 -0.0565 -0.2243 -0.0339
 1036SOL    HW114833  12.377  11.778  13.653 -0.4990  1.1007  1.3172
 1036SOL    HW214834  12.277  11.692  13.579  1.9984 -0.1378 -0.7848
 1037SOL     OW14835   7.407  10.355   8.951 -0.1238 -0.5906 -0.3286
 1037SOL    HW114836   7.385  10.434   9.000 -0.9567 -0.8889 -0.2041
 1037SOL    HW214837   7.418  10.288   9.018 -2.7444 -1.3548 -0.5696
 1038SOL     OW14838  12.373   6.347   1.944 -0.3846  0.0429  0.4257
 1038SOL    HW114839  12.316   6.418   1.975 -0.0273 -0.2591  1.8480
 1038SOL    HW214840  12.461   6.372   1.974  0.3370  0.6241 -1.9523
 1039SOL     OW14841   1.591   4.960   2.919 -0.1797 -0.0920  0.2669
 1039SOL    HW114842   1.518   4.970   2.981  0.0531 -0.0563  0.5342
 1039SOL    HW214843   1.548   4.954   2.834 -0.4601  0.6391  0.3497
 1040SOL     OW14844   4.871   8.630   7.695  0.0752  0.1376  0.0651
 1040SOL    HW114845   4.918   8.579   7.628 -0.1362 -2.5253  1.7973
 1040SOL    HW214846   4.797   8.668   7.648 -0.7969 -2.6881 -1.0479
 1041SOL     OW14847  11.438   5.420   4.085  0.0885 -0.2675 -0.1903
 1041SOL    HW114848  11.494   5.497   4.095  0.4421 -0.7178  1.9624
 1041SOL    HW214849  11.499   5.347   4.074 -0.1553 -0.5075  0.0354
 1042SOL     OW14850   2.397   4.957  13.476 -0.3549 -0.3128 -0.5278
 1042SOL    HW114851   2.467   4.933  13.536  1.5682  1.3228 -1.9320
 1042SOL    HW214852   2.348   5.025  13.522 -0.3457 -0.7112  0.0718
 1043SOL     OW14853   2.808  11.637   8.791 -0.7831  0.0320 -0.0030
 1043SOL    HW114854   2.851  11.701   8.734 -0.6938  0.8143  0.9160
 1043SOL    HW214855   2.719  11.630   8.757 -1.2408  1.7442  0.7085
 1044SOL     OW14856   3.848  11.011   1.731  0.7044 -0.7290  0.3607
 1044SOL    HW114857   3.914  10.956   1.774  1.3553 -0.9422 -0.8634
 1044SOL    HW214858   3.897  11.086   1.698  0.2307 -0.5861 -0.0296
 1045SOL     OW14859  10.445   2.050   8.722  0.1219  0.6955 -0.1152
 1045SOL    HW114860  10.396   1.993   8.663 -0.1018  0.9317 -0.1610
 1045SOL    HW214861  10.525   2.073   8.674  0.3978  0.1117  0.0566
 1046SOL     OW14862   8.698   9.090   9.379 -0.4338 -0.3110  0.0598
 1046SOL    HW114863   8.758   9.019   9.358 -0.1048 -0.3199  0.9964
 1046SOL    HW214864   8.666   9.070   9.467 -0.6262  0.5007  0.1875
 1047SOL     OW14865   6.658   4.605   1.277  0.0145 -0.3435  0.5343
 1047SOL    HW114866   6.643   4.511   1.277  0.0609 -0.3507  0.4729
 1047SOL    HW214867   6.570   4.644   1.282 -0.1447 -0.3675 -1.3548
 1048SOL     OW14868   0.450  13.010   5.605 -0.1580  0.2160  0.1379
 1048SOL    HW114869   0.450  12.928   5.555 -1.8323 -0.0925  0.5658
 1048SOL    HW214870   0.440  13.079   5.540 -1.4229 -0.1252 -0.0572
 1049SOL     OW14871   8.447   9.411  12.968 -0.1935  0.0671 -0.4233
 1049SOL    HW114872   8.511   9.447  13.029 -1.4331  0.9186  0.4245
 1049SOL    HW214873   8.461   9.316  12.972  1.2072  0.2548 -0.5028
 1050SOL     OW14874   2.185   2.517   6.949  0.0305  0.3693  0.3921
 1050SOL    HW114875   2.146   2.487   7.031  1.6220  0.0576  1.0582
 1050SOL    HW214876   2.211   2.608   6.966 -1.5047  1.0309 -0.4764
 1051SOL     OW14877   9.617   6.116  12.264 -0.7078 -0.0869 -0.2798
 1051SOL    HW114878   9.641   6.072  12.183  0.3028  1.0089 -0.6127
 1051SOL    HW214879   9.545   6.065  12.300  0.3451 -1.9243 -0.6905
 1052SOL     OW14880   9.362  11.684   0.816  0.1227 -0.3534 -0.0459
 1052SOL    HW114881   9.342  11.591   0.813  1.7322 -0.7247 -0.2515
 1052SOL    HW214882   9.316  11.721   0.740  0.2088 -1.1339 -0.4830
 1053SOL     OW14883   6.214   0.653   5.572  0.2707 -0.2199  0.4369
 1053SOL    HW114884   6.147   0.627   5.509 -2.0618  0.2661  2.5615
 1053SOL    HW214885   6.270   0.576   5.581 -1.7793 -1.7312  0.7689
 1054SOL     OW14886   2.288   9.547   4.761 -0.2808 -0.3396 -0.4612
 1054SOL    HW114887   2.330   9.474   4.717  0.4495  1.3463 -2.7650
 1054SOL    HW214888   2.218   9.507   4.813  0.5527 -2.6906 -1.0146
 1055SOL     OW14889   1.616   2.403   4.982 -0.0893  0.3939 -0.0866
 1055SOL    HW114890   1.629   2.497   4.969  1.3971  0.4185  1.1604
 1055SOL    HW214891   1.705   2.368   4.990 -0.5708 -0.4494  3.3890
 1056SOL     OW14892   6.058   2.247  11.609 -0.7880 -0.0160  0.2027
 1056SOL    HW114893   6.113   2.309  11.656 -1.3613 -1.3257  2.8432
 1056SOL    HW214894   6.103   2.163  11.620 -1.0611 -0.4288 -1.5214
 1057SOL     OW14895  12.762  10.151   5.992  0.2360  0.0109 -0.4944
 1057SOL    HW114896  12.688  10.160   5.932 -0.7463 -0.5764  0.5728
 1057SOL    HW214897  12.832  10.202   5.953 -0.6328  0.3043 -1.7125
 1058SOL     OW14898   2.111   8.434   5.721  0.2473 -0.0377 -0.5601
 1058SOL    HW114899   2.040   8.462   5.664  0.0009 -1.5509 -1.0345
 1058SOL    HW214900   2.103   8.339   5.725  0.8605 -0.0604  1.2142
 1059SOL     OW14901   8.770   5.995  12.398  0.2013 -0.5425 -0.3770
 1059SOL    HW114902   8.784   6.023  12.308  0.3221  0.0969 -0.1651
 1059SOL    HW214903   8.847   6.027  12.445  0.8897 -2.1848 -0.3239
 1060SOL     OW14904  13.329   5.305   2.579  0.5072  0.3937 -0.3210
 1060SOL    HW114905  13.344   5.258   2.497  1.2495 -0.2409  0.1532
 1060SOL    HW214906  13.328   5.236   2.646  1.2054  1.0098  0.3476
 1061SOL     OW14907   4.614   9.421   7.508 -0.5484 -0.1020 -0.1473
 1061SOL    HW114908   4.570   9.484   7.566  1.2045  3.7455 -2.6182
 1061SOL    HW214909   4.550   9.351   7.497 -1.8208 -0.0288  4.5089
 1062SOL     OW14910   0.983  11.390   8.247 -0.6698 -0.1635  0.7847
 1062SOL    HW114911   0.936  11.308   8.259 -3.0746  0.9391 -0.3181
 1062SOL    HW214912   0.971  11.437   8.330 -0.9056 -0.1895  0.7671
 1063SOL     OW14913   8.379  11.449  11.379  0.1564 -0.1927  0.1663
 1063SOL    HW114914   8.304  11.392  11.360 -0.7196  0.7328  0.7801
 1063SOL    HW214915   8.456  11.393  11.363 -0.5637 -0.6271 -2.2997
 1064SOL     OW14916   1.899   6.501  12.802  0.0317 -0.2227  0.1742
 1064SOL    HW114917   1.890   6.460  12.888 -0.3637  0.8135  0.6484
 1064SOL    HW214918   1.888   6.594  12.819  0.8628  0.0835 -0.8786
 1065SOL     OW14919   1.749   6.557   3.091 -0.1364 -0.3628  0.3448
 1065SOL    HW114920   1.670   6.612   3.087  0.2539  0.3265  1.7050
 1065SOL    HW214921   1.814   6.612   3.134  0.0379 -2.1315  2.4893
 1066SOL     OW14922  12.964  12.717   4.493 -0.1424 -0.3862  0.6136
 1066SOL    HW114923  12.899  12.764   4.546  0.1286 -2.4628  2.9817
 1066SOL    HW214924  13.019  12.785   4.456 -2.1856  1.3203  0.5398
 1067SOL     OW14925   4.300   4.100  10.016 -0.2132 -0.3610  0.3495
 1067SOL    HW114926   4.317   4.066   9.928  2.4269 -0.2245  0.7138
 1067SOL    HW214927   4.205   4.104  10.022 -0.5027 -1.5729 -2.0261
 1068SOL     OW14928   6.350   2.315   1.619  0.0435 -0.2456 -0.1788
 1068SOL    HW114929   6.349   2.230   1.662 -1.6097 -0.4851 -0.6114
 1068SOL    HW214930   6.397   2.373   1.679  1.2256 -1.4599  0.0995
 1069SOL     OW14931  11.472   5.328   1.954  0.3128 -0.0092  0.0599
 1069SOL    HW114932  11.539   5.260   1.953 -0.6048 -0.9678  0.8646
 1069SOL    HW214933  11.494   5.381   2.031  1.6623  1.3175 -1.1760
 1070SOL     OW14934   6.089  12.683   0.850 -0.2785 -0.3542  0.5413
 1070SOL    HW114935   6.062  12.683   0.758 -0.0917  1.3443  0.4472
 1070SOL    HW214936   6.168  12.629   0.852 -0.5196 -0.7572 -0.2058
 1071SOL     OW14937   5.196  11.798   5.254 -0.0724  0.1830  0.0580
 1071SOL    HW114938   5.211  11.813   5.347 -2.1476  2.1624  0.1732
 1071SOL    HW214939   5.117  11.745   5.251 -2.4891  3.5102 -0.4626
 1072SOL     OW14940   7.691   2.427   6.153  0.3221 -0.4912  0.1642
 1072SOL    HW114941   7.738   2.473   6.083 -0.1146  0.4894  0.4922
 1072SOL    HW214942   7.659   2.347   6.111  2.0124 -1.0577 -0.1393
 1073SOL     OW14943   0.090   5.116   1.065 -0.6031  1.0056  0.4204
 1073SOL    HW114944   0.141   5.188   1.027 -0.8704  0.3506 -1.2425
 1073SOL    HW214945   0.021   5.099   1.001 -0.3181 -0.9953  0.5860
 1074SOL     OW14946  12.758   0.647   7.411  0.8724 -0.2713 -0.3197
 1074SOL    HW114947  12.696   0.656   7.484  2.0543 -0.1320  0.7065
 1074SOL    HW214948  12.806   0.730   7.411  1.0027 -0.3399 -1.1609
 1075SOL     OW14949   9.959   7.912   8.614 -0.3889  0.3207 -0.0264
 1075SOL    HW114950  10.034   7.919   8.673 -0.5128 -1.0458  0.3426
 1075SOL    HW214951   9.944   8.001   8.583  1.6286  0.5647 -0.4306
 1076SOL     OW14952   4.876   9.996  10.131  0.5698  0.2566  0.0293
 1076SOL    HW114953   4.825  10.021  10.208 -0.4118  0.0799 -0.5414
 1076SOL    HW214954   4.886   9.901  10.139  0.9650  0.3142  0.2302
 1077SOL     OW14955   1.064   9.186  10.547  0.3932 -0.1954 -0.4069
 1077SOL    HW114956   1.114   9.152  10.473  0.8529 -1.0886  0.2955
 1077SOL    HW214957   1.036   9.107  10.595  0.5619  0.3826  0.6620
 1078SOL     OW14958  13.137   2.016   4.049  0.8520  0.1581 -0.1226
 1078SOL    HW114959  13.062   2.016   3.988  0.5439  0.7256  0.2477
 1078SOL    HW214960  13.097   2.009   4.135  1.2382  0.3319  0.0690
 1079SOL     OW14961   4.777   8.795   8.102 -0.3695  0.2768  0.1201
 1079SOL    HW114962   4.721   8.823   8.030 -0.7639 -2.7722 -0.9124
 1079SOL    HW214963   4.866   8.801   8.067 -0.4870 -0.1615 -0.2679
 1080SOL     OW14964   0.850   3.989   2.666  0.6873  0.1694  0.3435
 1080SOL    HW114965   0.882   4.058   2.725  1.2035 -0.8153  1.2548
 1080SOL    HW214966   0.904   3.913   2.687  1.4827  0.0165 -2.0656
 1081SOL     OW14967  10.447  10.457  13.523 -0.3104 -0.0935  1.2029
 1081SOL    HW114968  10.519  10.459  13.460 -3.0003  0.6541 -2.1146
 1081SOL    HW214969  10.449  10.368  13.558  0.4586 -1.0501 -1.0634
 1082SOL     OW14970   0.019   1.990   8.326  0.2143 -0.3264 -0.5294
 1082SOL    HW114971   0.043   1.958   8.413  0.8821 -0.2118 -0.6651
 1082SOL    HW214972   0.027   1.914   8.270 -2.1150 -0.8930 -0.1849
 1083SOL     OW14973  12.317   7.041   5.463  0.3465 -0.0923 -0.2792
 1083SOL    HW114974  12.351   7.130   5.467  1.7074 -0.6253  2.1270
 1083SOL    HW214975  12.239   7.042   5.518  0.8279 -0.5295  0.4314
 1084SOL     OW14976  11.170   2.986   2.263  0.1160  0.1400 -0.4704
 1084SOL    HW114977  11.202   3.012   2.177 -0.1897  0.3314 -0.5265
 1084SOL    HW214978  11.076   2.971   2.251  0.5182 -2.5649 -0.8156
 1085SOL     OW14979   5.853  12.781   0.950  0.1865 -0.2697  0.7192
 1085SOL    HW114980   5.845  12.758   1.043 -0.2310 -0.7392  0.5715
 1085SOL    HW214981   5.945  12.763   0.930  0.2964 -0.0951  1.0608
 1086SOL     OW14982   3.652   1.100   1.091 -0.4357  0.4515  0.2227
 1086SOL    HW114983   3.716   1.078   1.023  0.3271  0.4197  0.9224
 1086SOL    HW214984   3.628   1.191   1.074 -1.3340  0.0176 -0.9213
 1087SOL     OW14985   7.909  11.624  12.226 -0.4732 -0.1268 -0.0768
 1087SOL    HW114986   7.907  11.554  12.291  1.6251 -0.3925 -0.2379
 1087SOL    HW214987   7.913  11.580  12.142 -1.9202  0.2232 -0.3585
 1088SOL     OW14988  12.968   1.727   8.547  0.2256  0.0654  0.1620
 1088SOL    HW114989  12.942   1.639   8.570 -2.2618  0.8729  0.7124
 1088SOL    HW214990  13.062   1.721   8.530  0.1204 -2.6438  0.2042
 1089SOL     OW14991   0.976   3.172  13.555 -0.0870  0.0015 -0.4778
 1089SOL    HW114992   0.980   3.099  13.494  0.9144  0.3653 -0.8624
 1089SOL    HW214993   0.967   3.132  13.641 -2.6648 -0.5141 -0.8860
 1090SOL     OW14994   8.074   1.154   0.001 -0.1073  0.4457 -0.7619
 1090SOL    HW114995   7.989   1.145   0.043 -0.0182  1.2225 -0.3966
 1090SOL    HW214996   8.059   1.212  -0.074 -0.0569 -0.0836 -1.1895
 1091SOL     OW14997   9.350  10.323   9.158  0.5067  0.4960 -0.1948
 1091SOL    HW114998   9.347  10.385   9.230 -0.4076  1.2314 -0.8431
 1091SOL    HW214999   9.433  10.276   9.170 -0.0047  0.0174  1.7892
 1092SOL     OW15000   8.241   7.551   6.112  0.0229 -0.1064 -0.1839
 1092SOL    HW115001   8.168   7.505   6.072  0.2758  0.4137 -1.2808
 1092SOL    HW215002   8.258   7.625   6.053  0.9469  0.2061  0.4480
 1093SOL     OW15003   1.288   8.715   7.753 -0.3584  0.3442 -0.7500
 1093SOL    HW115004   1.320   8.629   7.783 -0.6366  0.0933 -1.1589
 1093SOL    HW215005   1.291   8.770   7.831 -0.6576 -0.1817 -0.3575
 1094SOL     OW15006   3.733  10.417   8.659 -0.1524 -0.0133  0.4892
 1094SOL    HW115007   3.805  10.405   8.720  1.7488 -0.6436 -1.7244
 1094SOL    HW215008   3.710  10.329   8.630 -1.0131  0.2630  0.3065
 1095SOL     OW15009   6.113  12.815   7.669  0.7811  0.0498  0.1280
 1095SOL    HW115010   6.029  12.849   7.637  1.2011  0.1199 -0.9400
 1095SOL    HW215011   6.089  12.752   7.737 -0.1323  0.2747  0.0256
 1096SOL     OW15012   6.115   1.313  11.576 -0.1940  0.0720  0.1044
 1096SOL    HW115013   6.099   1.222  11.554  0.7401  0.0625 -0.6346
 1096SOL    HW215014   6.129   1.314  11.671  1.0488 -0.7748 -0.0447
 1097SOL     OW15015  13.320   7.138   4.561  0.7972 -0.0467  0.8789
 1097SOL    HW115016  13.274   7.062   4.596 -0.7337  0.0958 -0.7097
 1097SOL    HW215017  13.391   7.101   4.508 -1.0307 -0.5236 -1.3912
 1098SOL     OW15018   0.585   9.700  10.107 -0.1600  0.3591 -0.1709
 1098SOL    HW115019   0.590   9.734  10.018 -0.4118 -1.2876 -0.8529
 1098SOL    HW215020   0.672   9.661  10.122 -0.7661 -1.2279 -0.5330
 1099SOL     OW15021  12.948   0.096   8.038  0.0940 -0.0744  1.0670
 1099SOL    HW115022  12.986   0.085   8.125  0.6790  0.3066  0.8647
 1099SOL    HW215023  13.023   0.109   7.981 -0.3311  0.3817  0.6111
 1100SOL     OW15024   3.754   1.412   5.269 -0.1461  0.4909 -0.2349
 1100SOL    HW115025   3.781   1.324   5.296 -1.1087 -0.0517 -0.9764
 1100SOL    HW215026   3.770   1.413   5.175 -3.5333 -0.2430 -0.9488
 1101SOL     OW15027   6.840   0.198  11.606  0.1763  0.5362 -0.2214
 1101SOL    HW115028   6.749   0.229  11.609  0.3624  1.0481  0.2517
 1101SOL    HW215029   6.873   0.230  11.522 -0.3251 -0.3897 -0.8024
 1102SOL     OW15030   2.909   4.726  11.378  0.0266 -0.0025 -0.2308
 1102SOL    HW115031   2.858   4.807  11.384  1.3869  0.7711  2.6000
 1102SOL    HW215032   2.843   4.657  11.375 -1.1623  1.1303 -2.4819
 1103SOL     OW15033   0.433  11.593   9.857 -0.7271 -0.1751  0.2330
 1103SOL    HW115034   0.454  11.668   9.913  0.6443 -0.8926  0.7399
 1103SOL    HW215035   0.347  11.563   9.886 -0.3439 -0.0961  1.4929
 1104SOL     OW15036   7.150  11.394   6.925 -0.1666  0.6684  0.1425
 1104SOL    HW115037   7.062  11.367   6.949  0.5736 -2.3206 -0.1411
 1104SOL    HW215038   7.205  11.365   6.998  0.9272 -0.4059 -1.0455
 1105SOL     OW15039   4.711   7.068   8.783 -0.2083 -0.1115 -0.5146
 1105SOL    HW115040   4.656   7.139   8.752  1.4894  0.5073 -2.3366
 1105SOL    HW215041   4.760   7.040   8.706  3.1391  0.4606  1.2051
 1106SOL     OW15042   3.161   7.092  11.522  0.5493  0.7573  0.5129
 1106SOL    HW115043   3.097   7.053  11.463 -0.3198  1.6718  0.8329
 1106SOL    HW215044   3.210   7.017  11.557  1.1934  0.2009 -1.4596
 1107SOL     OW15045  13.451   1.091   7.450  0.7389  0.4525 -0.1140
 1107SOL    HW115046  13.506   1.061   7.377 -0.2324 -1.5292 -0.1187
 1107SOL    HW215047  13.503   1.074   7.528  0.1222 -1.7592 -0.0927
 1108SOL     OW15048   9.311   0.455   3.694 -0.2431  0.3457  0.5008
 1108SOL    HW115049   9.385   0.393   3.700 -0.5325  0.0061  0.5929
 1108SOL    HW215050   9.307   0.496   3.780 -1.0366 -0.6559  0.9655
 1109SOL     OW15051   8.234   5.116   1.240  0.0240 -0.5040  0.3793
 1109SOL    HW115052   8.290   5.057   1.291  0.8407  1.1298  1.4275
 1109SOL    HW215053   8.274   5.202   1.251 -1.2580  0.2874 -0.9651
 1110SOL     OW15054  12.498   8.166   9.814 -0.4395  0.0909 -0.9544
 1110SOL    HW115055  12.492   8.257   9.842 -0.9957 -0.7808  2.0004
 1110SOL    HW215056  12.590   8.142   9.829 -0.8932 -0.5820  0.9679
 1111SOL     OW15057   9.162   0.861  10.336  0.0811  0.5084 -0.6576
 1111SOL    HW115058   9.084   0.863  10.390 -0.2367 -3.3432 -0.6812
 1111SOL    HW215059   9.134   0.892  10.250 -1.1642  0.1529 -0.3873
 1112SOL     OW15060   3.202   1.758   5.588  0.2013  0.0549 -0.2269
 1112SOL    HW115061   3.217   1.762   5.494 -1.7678 -1.3337 -0.6767
 1112SOL    HW215062   3.165   1.843   5.610  0.5436  0.3376 -0.7247
 1113SOL     OW15063   9.255  10.073   9.280 -0.4789  0.1834  0.4861
 1113SOL    HW115064   9.331  10.129   9.298 -1.5797  1.8589  0.2009
 1113SOL    HW215065   9.182  10.121   9.319 -1.2002 -2.2826  2.4431
 1114SOL     OW15066   7.292   6.150  13.129  0.2003  0.4785 -0.9044
 1114SOL    HW115067   7.309   6.243  13.117 -1.3928  0.8024 -0.8659
 1114SOL    HW215068   7.377   6.108  13.120  1.0851  2.0240 -0.0164
 1115SOL     OW15069   4.932   5.086   6.574  0.3039 -0.4688 -0.0036
 1115SOL    HW115070   4.912   5.063   6.484  1.2266  0.3673 -0.4330
 1115SOL    HW215071   4.847   5.094   6.617 -0.1144 -1.6402 -0.5939
 1116SOL     OW15072   8.043  11.643  13.145  0.3797 -0.1799 -0.4670
 1116SOL    HW115073   8.126  11.637  13.192  0.2904  0.1998 -0.2551
 1116SOL    HW215074   8.028  11.555  13.111 -0.1459 -0.7714  1.2173
 1117SOL     OW15075   2.951   3.505   6.872 -0.1596  0.4476  0.3149
 1117SOL    HW115076   2.880   3.447   6.898  0.2468 -0.4328 -0.4837
 1117SOL    HW215077   3.024   3.446   6.851  0.2931  1.2454 -0.4277
 1118SOL     OW15078   0.845   1.635   0.390  0.5986 -0.3262 -0.8198
 1118SOL    HW115079   0.769   1.675   0.349 -0.3529  1.0495  2.0009
 1118SOL    HW215080   0.826   1.541   0.389 -0.7023 -0.0793 -0.9804
 1119SOL     OW15081   1.486   3.025   2.715  0.2578 -0.1411 -0.7000
 1119SOL    HW115082   1.467   3.101   2.770 -0.3681 -1.1554  0.5196
 1119SOL    HW215083   1.416   3.026   2.649  0.9355  1.0005 -1.4471
 1120SOL     OW15084   1.468   5.895   2.233  0.5483  0.5020  0.3353
 1120SOL    HW115085   1.494   5.843   2.157 -1.7086 -0.4204  0.1161
 1120SOL    HW215086   1.379   5.924   2.213 -0.7589 -1.1026  3.2182
 1121SOL     OW15087  11.570  12.859   9.010 -0.4485  0.2584  0.2574
 1121SOL    HW115088  11.510  12.888   9.079 -0.6969  0.5036 -0.0599
 1121SOL    HW215089  11.516  12.804   8.954 -0.3662  0.4650 -0.0220
 1122SOL     OW15090   3.265   7.135  10.768 -0.2916 -0.8534 -0.0048
 1122SOL    HW115091   3.283   7.145  10.862 -2.9191 -0.7720  0.5859
 1122SOL    HW215092   3.236   7.222  10.740 -0.7819 -1.1926 -0.5668
 1123SOL     OW15093  11.097   7.357   3.169 -0.1380  0.3571  0.1998
 1123SOL    HW115094  11.057   7.435   3.209  0.0473  0.2035  0.6894
 1123SOL    HW215095  11.107   7.296   3.241  0.6263  0.2445  0.0026
 1124SOL     OW15096  12.123   1.093  11.710  0.2816 -0.0531  0.6164
 1124SOL    HW115097  12.095   1.138  11.790  1.1415 -0.8092  1.3723
 1124SOL    HW215098  12.218   1.100  11.712  0.2929  0.2164 -0.5396
 1125SOL     OW15099  10.802   5.450   3.592  0.3006  0.2097 -0.5783
 1125SOL    HW115100  10.790   5.545   3.603  0.5921  0.2456 -0.5653
 1125SOL    HW215101  10.875   5.442   3.532  1.2940 -0.0062  0.6161
 1126SOL     OW15102   4.591  10.845  12.918 -0.1988  0.6794  0.1035
 1126SOL    HW115103   4.682  10.873  12.928  0.2053  1.3350 -3.6692
 1126SOL    HW215104   4.542  10.927  12.913 -1.2066  0.3269  2.6892
 1127SOL     OW15105   7.304   7.313   2.824  0.2051  0.4457 -0.3978
 1127SOL    HW115106   7.345   7.239   2.780  0.6449  0.7040 -0.4233
 1127SOL    HW215107   7.339   7.390   2.779  0.6747  0.7134  0.4124
 1128SOL     OW15108   0.569   9.766   8.777  0.1850  0.5403  0.1823
 1128SOL    HW115109   0.549   9.855   8.807  0.3634  0.7632 -0.3568
 1128SOL    HW215110   0.518   9.710   8.836 -0.3675  1.0193  0.1789
 1129SOL     OW15111  12.918   2.898  11.958  0.8260  0.2537  0.7842
 1129SOL    HW115112  12.992   2.957  11.970  1.9969 -1.2023  0.9867
 1129SOL    HW215113  12.956   2.811  11.961 -0.6149 -0.5074 -1.0575
 1130SOL     OW15114   6.370   0.926   9.409 -0.0107  0.3228 -0.1995
 1130SOL    HW115115   6.431   0.957   9.342 -0.2259  1.5014  0.1337
 1130SOL    HW215116   6.422   0.870   9.466  0.4939  0.4187 -0.5638
 1131SOL     OW15117   5.341   9.226  10.042 -0.6945 -0.3830  0.0183
 1131SOL    HW115118   5.283   9.178   9.983 -1.0870  0.9523 -0.6989
 1131SOL    HW215119   5.340   9.316  10.011  0.9219 -0.1019  0.6583
 1132SOL     OW15120   0.532   3.650  11.752 -0.2114 -0.2186 -0.5425
 1132SOL    HW115121   0.504   3.606  11.833 -1.4976  0.7564 -0.4227
 1132SOL    HW215122   0.626   3.665  11.765 -0.6114  1.0505  1.3664
 1133SOL     OW15123  12.475   6.737   2.944  0.0910  0.7955  1.0392
 1133SOL    HW115124  12.390   6.734   2.901  0.9643 -0.0961 -0.7611
 1133SOL    HW215125  12.537   6.715   2.875  1.9308  2.7918  1.9317
 1134SOL     OW15126   2.676  13.675   1.202 -0.2271 -0.8616 -0.3326
 1134SOL    HW115127   2.619  13.608   1.165 -1.3633 -0.0248 -0.1838
 1134SOL    HW215128   2.671  13.748   1.140  0.3713 -0.6306 -0.1202
 1135SOL     OW15129   5.160  10.924  11.148 -0.0522  0.1768  0.1697
 1135SOL    HW115130   5.176  11.018  11.139  1.9472 -0.3279 -2.7538
 1135SOL    HW215131   5.073  10.919  11.188 -0.1609  3.2190  0.5907
 1136SOL     OW15132  10.770  12.994   0.169  0.2288 -0.1717  0.1858
 1136SOL    HW115133  10.739  12.904   0.162  1.3136 -0.7891  2.3280
 1136SOL    HW215134  10.691  13.047   0.166 -0.5762 -1.3170  0.4190
 1137SOL     OW15135   1.509   9.466   9.240  0.0804 -0.2017  0.3180
 1137SOL    HW115136   1.418   9.437   9.247  0.4094 -1.7543 -1.1265
 1137SOL    HW215137   1.549   9.438   9.322 -0.6483  0.1812  0.8196
 1138SOL     OW15138   8.981  11.226   5.124 -0.4951 -0.0249 -0.2566
 1138SOL    HW115139   8.914  11.231   5.055 -0.9301  0.4144  0.1919
 1138SOL    HW215140   8.998  11.317   5.147  1.8686  0.0219 -1.8919
 1139SOL     OW15141  12.739  10.075  12.284 -0.3531 -0.1497  0.6790
 1139SOL    HW115142  12.696  10.113  12.208  0.6863  1.0909  0.6721
 1139SOL    HW215143  12.823  10.045  12.251 -0.6095 -1.2412  0.9860
 1140SOL     OW15144   2.550  13.651   8.951  0.1411 -0.2675 -0.1498
 1140SOL    HW115145   2.555  13.606   9.035 -0.5713 -0.0442  0.0206
 1140SOL    HW215146   2.595  13.734   8.965  1.2761 -0.8154 -0.4058
 1141SOL     OW15147   5.863   5.730  11.832  0.0650  0.6357  0.4388
 1141SOL    HW115148   5.834   5.734  11.741  0.6693  1.3108  0.2660
 1141SOL    HW215149   5.864   5.637  11.854 -1.9944  0.5444  0.3859
 1142SOL     OW15150   8.383  10.526   1.618  0.3473 -0.6316  0.1457
 1142SOL    HW115151   8.472  10.541   1.586  0.7963  0.2849  1.7025
 1142SOL    HW215152   8.332  10.505   1.539  1.8112 -0.6024 -0.8478
 1143SOL     OW15153   1.743   4.724   7.796 -0.2471  0.0114  0.0625
 1143SOL    HW115154   1.665   4.775   7.816  0.3705  0.5584  1.1763
 1143SOL    HW215155   1.759   4.740   7.703 -0.7877  0.8385  0.1032
 1144SOL     OW15156   7.715  12.672   6.497 -0.1400 -0.2945 -0.7669
 1144SOL    HW115157   7.684  12.712   6.578 -0.6853  1.0987 -1.6133
 1144SOL    HW215158   7.750  12.587   6.523  1.1887  0.7833  1.1538
 1145SOL     OW15159   2.607   1.183   6.586 -0.2782  0.3114 -0.3150
 1145SOL    HW115160   2.688   1.192   6.636 -1.7543  2.7461  1.9300
 1145SOL    HW215161   2.568   1.102   6.619 -0.9464  1.5748  2.2975
 1146SOL     OW15162   9.481  12.109   7.520 -0.3573 -0.3809 -0.3916
 1146SOL    HW115163   9.490  12.036   7.459  0.5178  0.1671 -0.9311
 1146SOL    HW215164   9.480  12.067   7.607 -1.3515 -1.1377 -0.7490
 1147SOL     OW15165   2.069  10.310   5.332  0.3429 -0.1566 -0.4284
 1147SOL    HW115166   2.032  10.358   5.406  0.5911 -1.2266  0.4145
 1147SOL    HW215167   2.015  10.336   5.257  0.0425  0.8876  0.1280
 1148SOL     OW15168  13.373   3.100   9.039 -0.4890 -0.4711 -0.8984
 1148SOL    HW115169  13.462   3.104   9.006  0.2897 -0.1699  1.0959
 1148SOL    HW215170  13.367   3.014   9.080 -0.6972 -0.0124  0.0526
 1149SOL     OW15171   7.501   2.402   0.447 -0.7373  0.2241 -0.3567
 1149SOL    HW115172   7.455   2.345   0.510 -0.5550 -1.0733 -1.3457
 1149SOL    HW215173   7.496   2.354   0.364  1.6805  0.4166 -0.6878
 1150SOL     OW15174  11.824   3.482  13.704 -0.4981 -0.2865 -0.2407
 1150SOL    HW115175  11.914   3.508  13.722 -0.3690 -1.6660  1.3589
 1150SOL    HW215176  11.802   3.421  13.774 -2.7386  0.1218 -0.5089
 1151SOL     OW15177  12.853   9.787  13.597  0.7424  0.1059 -0.3965
 1151SOL    HW115178  12.824   9.748  13.680  0.3884 -0.1055 -0.6188
 1151SOL    HW215179  12.819   9.876  13.598 -0.3491 -0.2906 -0.8740
 1152SOL     OW15180   8.602   8.589   1.631  0.1147  0.2645  0.1452
 1152SOL    HW115181   8.686   8.621   1.599  0.9101 -0.8443  1.0202
 1152SOL    HW215182   8.624   8.533   1.705 -1.3203 -0.7602 -0.1373
 1153SOL     OW15183   5.560   1.568  13.313  0.9474 -0.6991 -0.3577
 1153SOL    HW115184   5.553   1.473  13.310  0.5600 -0.7022  0.5153
 1153SOL    HW215185   5.560   1.595  13.221  1.2694 -1.5501 -0.6140
 1154SOL     OW15186   1.061   5.360   8.719  0.4079 -0.1971 -0.2091
 1154SOL    HW115187   1.143   5.335   8.761  0.0973 -1.5402 -0.3304
 1154SOL    HW215188   1.019   5.276   8.699 -0.6771  0.4611 -0.7624
 1155SOL     OW15189   9.312   6.619   8.869 -0.0938  0.0179 -0.2577
 1155SOL    HW115190   9.229   6.645   8.830  0.0451  1.9216  0.6046
 1155SOL    HW215191   9.296   6.622   8.964  1.1724  1.3484 -0.0412
 1156SOL     OW15192   1.328   2.596   1.253  0.7831  0.6682 -0.5009
 1156SOL    HW115193   1.342   2.611   1.160 -1.8351 -0.6670 -1.2153
 1156SOL    HW215194   1.320   2.501   1.260 -0.0966  0.8292  0.9237
 1157SOL     OW15195   2.424   7.962  12.913  0.3234  0.2379 -0.1051
 1157SOL    HW115196   2.487   7.908  12.866  0.4307  0.9151 -0.7426
 1157SOL    HW215197   2.478   8.020  12.968  0.2123 -0.1345  0.4115
 1158SOL     OW15198  11.593  12.378   9.838 -0.3008 -0.4182 -0.2651
 1158SOL    HW115199  11.576  12.333   9.755 -0.0229  0.5597 -0.8742
 1158SOL    HW215200  11.670  12.334   9.873  0.3921  0.0208 -1.1967
 1159SOL     OW15201  11.783  10.990   1.423 -0.2833  0.2161  0.9356
 1159SOL    HW115202  11.797  10.988   1.328 -0.8773  0.3945  0.8415
 1159SOL    HW215203  11.688  10.986   1.434 -0.2359  0.5252  1.5145
 1160SOL     OW15204   0.177   5.798   9.119 -0.2255  0.0641  0.1645
 1160SOL    HW115205   0.154   5.887   9.094 -1.9554 -0.5535 -0.5989
 1160SOL    HW215206   0.272   5.796   9.118 -0.1552  1.9261  0.3174
 1161SOL     OW15207   6.772   7.485   6.888  0.8614 -0.7632  0.1149
 1161SOL    HW115208   6.841   7.463   6.825 -0.7402  0.7049 -2.2936
 1161SOL    HW215209   6.726   7.403   6.903  0.1491 -0.8296 -2.1216
 1162SOL     OW15210   8.012  12.080   6.432  0.2875 -0.1030 -0.3648
 1162SOL    HW115211   8.080  12.017   6.456  0.3232 -0.1470 -0.5759
 1162SOL    HW215212   7.937  12.057   6.487  0.2396 -0.4478 -0.5726
 1163SOL     OW15213   5.336   7.812   4.827  0.2546  0.2255 -0.2819
 1163SOL    HW115214   5.426   7.842   4.832 -0.0855  1.2869 -0.2923
 1163SOL    HW215215   5.339   7.735   4.770  1.2327 -0.1244  0.2202
 1164SOL     OW15216   0.154  11.755  11.256 -0.2526  0.2838 -0.1854
 1164SOL    HW115217   0.072  11.749  11.207 -0.5587 -1.3456  0.4476
 1164SOL    HW215218   0.200  11.830  11.218 -1.2638  0.1666 -1.7199
 1165SOL     OW15219   9.064   1.732   3.013  0.2003  0.2049  0.0555
 1165SOL    HW115220   9.046   1.751   2.921  1.0917  0.1408 -0.1363
 1165SOL    HW215221   9.000   1.785   3.061 -1.3161 -0.9264 -0.6157
 1166SOL     OW15222   4.857  13.648   4.377  0.2879 -0.7250  0.2373
 1166SOL    HW115223   4.766  13.668   4.358  0.3920  0.4480  0.8401
 1166SOL    HW215224   4.884  13.717   4.438  1.0296 -2.1528  1.5934
 1167SOL     OW15225   8.688  11.222   2.059  0.3335 -0.3729  0.2433
 1167SOL    HW115226   8.601  11.197   2.027  0.5215  0.5743 -1.0450
 1167SOL    HW215227   8.728  11.139   2.086 -0.6765 -0.9117  0.1130
 1168SOL     OW15228   1.590   0.024  10.742  0.0575 -0.5513  0.6430
 1168SOL    HW115229   1.543   0.100  10.776 -1.2327 -0.4306 -1.2423
 1168SOL    HW215230   1.542  -0.052  10.775 -3.1936 -0.4486 -3.1244
 1169SOL     OW15231   3.656   5.332  10.302  0.2176 -0.1737  0.1445
 1169SOL    HW115232   3.711   5.406  10.276 -2.2584  1.2211 -1.5841
 1169SOL    HW215233   3.615   5.304  10.220  0.2289 -2.7956  0.9496
 1170SOL     OW15234   7.468   2.788   0.300 -0.2910 -0.2422  0.0409
 1170SOL    HW115235   7.390   2.740   0.271 -1.1353 -0.4956  2.4720
 1170SOL    HW215236   7.449   2.879   0.279 -0.2175 -0.5463 -1.4355
 1171SOL     OW15237   2.767   2.010   8.797  0.0160 -0.6410  0.5166
 1171SOL    HW115238   2.704   2.062   8.747  0.5410 -2.1019 -1.8638
 1171SOL    HW215239   2.852   2.047   8.773  0.4105 -2.5520 -1.3600
 1172SOL     OW15240  10.766   3.326  12.272  0.0899  0.0542  0.6846
 1172SOL    HW115241  10.802   3.414  12.286 -1.5804  0.9883 -0.5323
 1172SOL    HW215242  10.776   3.283  12.357  0.9400  1.4038  1.3179
 1173SOL     OW15243   9.517   5.502  13.073 -0.3657  0.4680  0.2350
 1173SOL    HW115244   9.426   5.510  13.102 -0.3741  0.1943  0.2857
 1173SOL    HW215245   9.558   5.583  13.102 -0.8773  1.1352 -0.8480
 1174SOL     OW15246   8.855   3.947   4.097  0.4199  0.2582  0.2575
 1174SOL    HW115247   8.816   3.859   4.092  0.3159  0.1906  1.9370
 1174SOL    HW215248   8.790   4.003   4.054 -0.4257 -0.2101  0.8750
 1175SOL     OW15249   6.874   4.196   8.494  0.2393  0.7407 -0.5336
 1175SOL    HW115250   6.933   4.183   8.421  1.0692  0.4134  0.1773
 1175SOL    HW215251   6.789   4.215   8.454 -0.8474 -4.9556 -1.7723
 1176SOL     OW15252   6.091   0.326   9.916  0.0083  0.5358  0.1362
 1176SOL    HW115253   5.997   0.346   9.906 -0.1706 -0.2000  0.2750
 1176SOL    HW215254   6.113   0.356  10.004 -0.3217 -0.1030  0.4431
 1177SOL     OW15255   0.542   0.005   6.253  0.0201 -0.0939  0.6129
 1177SOL    HW115256   0.540   0.081   6.312 -0.4277  0.5428 -0.2063
 1177SOL    HW215257   0.492  -0.063   6.300 -0.7178  0.5471  0.7799
 1178SOL     OW15258  12.983   4.178  10.417 -0.6003  0.1074  0.1273
 1178SOL    HW115259  12.902   4.127  10.420 -0.3966 -0.1952  2.7951
 1178SOL    HW215260  13.052   4.113  10.407 -0.5570  0.1995 -0.1875
 1179SOL     OW15261   9.177   9.124   2.943  0.5576 -0.1632  0.1571
 1179SOL    HW115262   9.160   9.190   3.010 -1.1978  0.5951 -0.9664
 1179SOL    HW215263   9.164   9.041   2.988 -0.9409  0.3298  0.7084
 1180SOL     OW15264  11.334   2.756   2.241 -0.3004 -0.0120  0.1809
 1180SOL    HW115265  11.275   2.810   2.294 -0.9748  1.5562 -2.0298
 1180SOL    HW215266  11.326   2.791   2.152  0.6051 -2.6519 -1.0475
 1181SOL     OW15267   2.516   9.073   9.545 -0.0675  0.3581 -0.6736
 1181SOL    HW115268   2.452   9.025   9.493 -1.6191  0.6782  0.8899
 1181SOL    HW215269   2.580   9.104   9.480 -1.2457 -0.3097 -2.2215
 1182SOL     OW15270   0.203   3.713   7.652 -0.3161  0.0856 -0.2430
 1182SOL    HW115271   0.155   3.791   7.679  1.6281  1.0395  0.6263
 1182SOL    HW215272   0.280   3.747   7.605 -0.9675 -1.4128 -2.5850
 1183SOL     OW15273   8.752   8.493   0.941 -0.3021 -0.1186 -0.1723
 1183SOL    HW115274   8.815   8.544   0.891  1.7155 -2.5158 -0.2683
 1183SOL    HW215275   8.704   8.441   0.875  0.0475 -0.8292  0.1192
 1184SOL     OW15276   4.273   6.263  13.474  0.1348  0.1521 -1.0878
 1184SOL    HW115277   4.197   6.212  13.503  0.6581  0.8075  1.7556
 1184SOL    HW215278   4.249   6.295  13.387 -1.6243 -2.0038 -1.4916
 1185SOL     OW15279   9.918  10.593   2.469  0.2433  0.3103 -0.0695
 1185SOL    HW115280   9.969  10.663   2.511 -1.0170  1.6112 -0.6337
 1185SOL    HW215281   9.947  10.594   2.378  0.0279  0.2689 -0.1368
 1186SOL     OW15282   9.240   0.259   1.242 -0.3341 -0.7831 -0.1909
 1186SOL    HW115283   9.306   0.208   1.194 -0.7995 -0.0820 -1.6348
 1186SOL    HW215284   9.168   0.198   1.254  0.3846 -1.4362  1.0487
 1187SOL     OW15285   6.918   2.000  11.459 -0.0280  0.2694 -0.1568
 1187SOL    HW115286   6.966   2.067  11.507  1.4055 -0.7341 -0.1061
 1187SOL    HW215287   6.872   2.047  11.390 -0.7276  1.5235  1.1079
 1188SOL     OW15288   5.590   3.063   5.599 -0.0757 -0.4857  0.0408
 1188SOL    HW115289   5.643   3.109   5.664  0.6533 -1.8654  0.4584
 1188SOL    HW215290   5.569   2.979   5.640 -1.2769 -0.5976 -0.7494
 1189SOL     OW15291   4.870  13.141   8.391  0.4113  0.4066  0.5189
 1189SOL    HW115292   4.818  13.217   8.365  0.2301  0.4578  1.0063
 1189SOL    HW215293   4.807  13.082   8.432  0.1811 -0.8783 -1.5703
 1190SOL     OW15294   6.015   7.191   7.820  0.8219 -0.2090  0.1775
 1190SOL    HW115295   6.086   7.225   7.875  0.0398 -2.0481  2.4575
 1190SOL    HW215296   5.992   7.107   7.859 -2.9933  0.5148 -0.1547
 1191SOL     OW15297   1.521  12.524   1.667 -0.6198 -1.0227  0.8051
 1191SOL    HW115298   1.554  12.453   1.612  0.7868  0.2779 -0.0990
 1191SOL    HW215299   1.585  12.594   1.657 -0.5494 -0.5385  3.7560
 1192SOL     OW15300   7.798   3.742  11.206  0.0414  0.3480  0.1635
 1192SOL    HW115301   7.834   3.801  11.273  0.6740 -0.2359  0.3518
 1192SOL    HW215302   7.705   3.765  11.202  0.0504  0.6000  1.0300
 1193SOL     OW15303   8.183  13.286   1.923 -0.3005 -0.2522 -0.0792
 1193SOL    HW115304   8.109  13.256   1.976  0.3350 -2.1453 -0.1928
 1193SOL    HW215305   8.235  13.340   1.983 -0.8261 -0.4230  0.5410
 1194SOL     OW15306   6.705   3.981   8.943  0.1137 -0.0177  0.1204
 1194SOL    HW115307   6.665   4.064   8.915 -0.9484 -0.5102  0.1103
 1194SOL    HW215308   6.639   3.915   8.923  1.5333 -1.0872 -1.2775
 1195SOL     OW15309   6.313   0.530   8.788 -0.2989 -0.3277  0.1888
 1195SOL    HW115310   6.333   0.613   8.744  0.2483  0.2025  1.3856
 1195SOL    HW215311   6.232   0.500   8.747  0.2720  0.0444 -1.2901
 1196SOL     OW15312   1.341   6.552   5.976 -0.3236 -0.2093  0.5065
 1196SOL    HW115313   1.381   6.529   5.892 -0.4046  0.2097  0.3484
 1196SOL    HW215314   1.403   6.521   6.042 -0.4939 -0.9939  0.3138
 1197SOL     OW15315   6.377   1.830   2.982 -0.0374 -0.2284 -0.4571
 1197SOL    HW115316   6.406   1.771   2.912 -1.3393 -1.4126 -0.0506
 1197SOL    HW215317   6.415   1.792   3.062  0.9509  0.7767 -0.4255
 1198SOL     OW15318   5.903   3.571   5.023  0.1554  0.0149  0.2606
 1198SOL    HW115319   5.845   3.502   4.991  1.5457 -1.2914  0.4692
 1198SOL    HW215320   5.845   3.647   5.033 -1.0267 -0.5073 -1.8814
 1199SOL     OW15321  10.137   5.763  10.483  0.0446 -0.1685 -0.2140
 1199SOL    HW115322  10.045   5.780  10.504  0.7699  1.2829  2.2521
 1199SOL    HW215323  10.167   5.841  10.437  0.0829 -0.5841 -0.9039
 1200SOL     OW15324   1.176   8.620   8.056  0.1368 -0.0386  0.5930
 1200SOL    HW115325   1.195   8.712   8.036  1.0921 -0.7436 -2.1710
 1200SOL    HW215326   1.085   8.608   8.030  0.7530 -0.4240 -1.5887
 1201SOL     OW15327   4.915   8.667   9.800 -0.0886 -0.1402 -0.3241
 1201SOL    HW115328   4.976   8.740   9.810 -1.0118  0.6000  0.0124
 1201SOL    HW215329   4.923   8.617   9.881  0.7202 -0.5608 -0.6539
 1202SOL     OW15330   9.240   8.173   0.609 -0.6512  0.0144  0.5720
 1202SOL    HW115331   9.295   8.194   0.684  0.7911 -2.1144  0.1820
 1202SOL    HW215332   9.259   8.243   0.546  1.4484 -0.5137  0.5516
 1203SOL     OW15333   8.585  10.718   5.013 -0.3280  0.0186 -0.1491
 1203SOL    HW115334   8.604  10.800   4.967  0.3642 -0.4066 -0.6448
 1203SOL    HW215335   8.501  10.689   4.976 -0.5631  0.4851  0.0099
 1204SOL     OW15336   1.965   7.795  10.242  0.6698 -0.3398 -0.2107
 1204SOL    HW115337   1.959   7.794  10.147 -0.1818  2.2669 -0.2422
 1204SOL    HW215338   2.059   7.798  10.261  0.8217  1.4855 -1.0801
 1205SOL     OW15339  12.443   4.799   0.149 -0.2906  0.3690 -0.0308
 1205SOL    HW115340  12.424   4.815   0.057  1.2191  2.1124 -0.0933
 1205SOL    HW215341  12.357   4.796   0.191 -0.9869 -0.1080 -1.4198
 1206SOL     OW15342  12.985   9.738   9.244  0.1154  0.1429  0.5050
 1206SOL    HW115343  12.932   9.722   9.323  1.3736 -0.8632  1.1745
 1206SOL    HW215344  13.057   9.794   9.274  0.7065 -0.4014  0.1222
 1207SOL     OW15345   3.321   6.605   8.833 -0.1064  0.2793  0.3628
 1207SOL    HW115346   3.368   6.523   8.822  1.7512  1.4458 -0.8996
 1207SOL    HW215347   3.296   6.606   8.926  1.7269 -0.7379  0.9051
 1208SOL     OW15348   0.582  11.493   8.930 -0.6843 -0.1633 -0.2278
 1208SOL    HW115349   0.646  11.467   8.997 -1.4764  0.1418  0.6804
 1208SOL    HW215350   0.565  11.412   8.881 -0.8783 -0.6589  0.6307
 1209SOL     OW15351   6.547  12.831   5.415 -0.0155  0.4868  0.3794
 1209SOL    HW115352   6.464  12.857   5.453  0.1642  0.3314  0.8845
 1209SOL    HW215353   6.537  12.737   5.400  0.0793  0.4627  0.4676
 1210SOL     OW15354  12.563   8.033   9.546 -0.0034 -0.3417  0.1327
 1210SOL    HW115355  12.499   8.091   9.585 -0.6760 -0.1583 -1.1957
 1210SOL    HW215356  12.620   8.090   9.494  2.1352 -0.3050  2.3509
 1211SOL     OW15357   5.488   6.066   0.458 -0.0852  0.1022 -0.6056
 1211SOL    HW115358   5.516   6.152   0.489  0.0885  0.4170 -1.5922
 1211SOL    HW215359   5.563   6.009   0.477  0.9784  0.7786 -2.5174
 1212SOL     OW15360  13.714  11.572  10.730 -0.4542 -0.4558 -0.5486
 1212SOL    HW115361  13.781  11.523  10.777  0.3184  0.6816 -0.4396
 1212SOL    HW215362  13.670  11.624  10.798  0.8200  1.3727 -1.0316
 1213SOL     OW15363   3.141  10.438   3.493  0.1125  0.1277 -0.0047
 1213SOL    HW115364   3.050  10.439   3.525  0.1197 -1.6095  0.1582
 1213SOL    HW215365   3.181  10.515   3.534 -0.5099 -0.7062  2.3460
 1214SOL     OW15366   1.156  11.048   6.368  0.0133 -0.0627 -0.0772
 1214SOL    HW115367   1.175  11.038   6.461  2.1530  1.7198 -0.2302
 1214SOL    HW215368   1.076  11.101   6.365 -0.9208 -1.3863  0.7056
 1215SOL     OW15369   0.475   3.378   8.963 -0.0814  0.1262 -0.1580
 1215SOL    HW115370   0.566   3.396   8.941 -0.4688  2.0807 -0.3210
 1215SOL    HW215371   0.477   3.353   9.056  0.7822 -1.5010 -0.5926
 1216SOL     OW15372  11.379  12.257   5.143 -0.2754 -0.7257 -0.1790
 1216SOL    HW115373  11.414  12.346   5.140 -1.4853 -0.2296 -0.1967
 1216SOL    HW215374  11.372  12.230   5.051  1.0892 -1.2710 -0.1482
 1217SOL     OW15375  12.769   6.252   6.210 -0.4366 -0.6517 -0.5948
 1217SOL    HW115376  12.800   6.173   6.165 -0.3974 -0.7658 -0.3712
 1217SOL    HW215377  12.833   6.265   6.280 -0.8768 -0.8697 -0.1486
 1218SOL     OW15378   6.026   7.873   7.647  0.2809  0.4421 -0.3187
 1218SOL    HW115379   6.118   7.884   7.667  0.2985  1.6252 -0.9304
 1218SOL    HW215380   5.995   7.806   7.708  2.3107 -2.6259 -2.3656
 1219SOL     OW15381   3.426   9.205   7.543 -0.2100  0.2295 -0.9356
 1219SOL    HW115382   3.423   9.188   7.637 -0.3365  0.3203 -0.9233
 1219SOL    HW215383   3.336   9.192   7.512 -0.1439  0.0794 -1.0651
 1220SOL     OW15384   1.995   8.096   1.769 -0.2517  0.4439  0.1159
 1220SOL    HW115385   2.023   8.106   1.860 -0.2716  0.5421  0.1110
 1220SOL    HW215386   2.058   8.035   1.731  0.5115  1.3831 -0.1524
 1221SOL     OW15387  11.322   3.790   6.538 -0.6940  0.1553  0.3274
 1221SOL    HW115388  11.381   3.859   6.568 -2.4283  0.4666  3.3540
 1221SOL    HW215389  11.330   3.721   6.603 -1.7830 -0.9027 -0.6085
 1222SOL     OW15390   3.267  11.854   2.219  0.1809 -0.4237 -0.1992
 1222SOL    HW115391   3.209  11.796   2.269  1.0489 -1.5730 -0.4758
 1222SOL    HW215392   3.340  11.871   2.278 -0.3136  0.8404  0.0682
 1223SOL     OW15393   3.306   0.664   5.051 -0.5538 -0.1008 -0.2830
 1223SOL    HW115394   3.378   0.724   5.068  0.6459 -1.5660  0.0822
 1223SOL    HW215395   3.244   0.714   4.998  1.2869  0.8508 -1.6222
 1224SOL     OW15396   9.303   0.653   5.018 -0.2927 -0.1580 -0.2047
 1224SOL    HW115397   9.217   0.653   4.976 -0.6457 -0.6413  0.5055
 1224SOL    HW215398   9.353   0.718   4.968 -0.1922 -1.7945 -2.3615
 1225SOL     OW15399  13.563  11.138  11.073  0.4372 -0.8036  0.2139
 1225SOL    HW115400  13.651  11.109  11.097  0.7881  1.2803  1.6256
 1225SOL    HW215401  13.563  11.232  11.090 -1.9813 -0.7087 -0.0375
 1226SOL     OW15402  12.995   7.022  13.173 -0.0123 -0.5064 -0.2746
 1226SOL    HW115403  12.914   7.020  13.224  0.7116  0.4876  0.9397
 1226SOL    HW215404  12.982   7.094  13.111  0.5232  0.6355  0.9226
 1227SOL     OW15405   3.496  10.637   7.413  0.4953 -0.1641  0.6592
 1227SOL    HW115406   3.434  10.659   7.343  0.3930 -0.5200  0.6347
 1227SOL    HW215407   3.523  10.721   7.448  1.4218  0.0813 -0.5665
 1228SOL     OW15408   4.199  12.891   5.213 -0.3110  0.2715  0.1976
 1228SOL    HW115409   4.252  12.816   5.239 -0.8968  0.0058  0.6513
 1228SOL    HW215410   4.171  12.872   5.124 -0.7013 -0.1994  0.4130
 1229SOL     OW15411   9.195   5.402   9.958  0.3470 -0.0502 -0.0274
 1229SOL    HW115412   9.240   5.330  10.001  3.1060  1.0648 -0.8028
 1229SOL    HW215413   9.161   5.456  10.030  0.2323 -0.9354  0.5959
 1230SOL     OW15414   7.522   7.958  11.999  0.1566 -0.1420 -0.4274
 1230SOL    HW115415   7.477   7.895  12.055 -0.1789 -0.7421 -1.3424
 1230SOL    HW215416   7.591   7.995  12.054 -0.0523 -0.8417  0.3164
 1231SOL     OW15417  13.330   0.821   7.361 -0.2396  0.4355  0.3843
 1231SOL    HW115418  13.383   0.892   7.327 -0.0185  0.0673 -0.0433
 1231SOL    HW215419  13.392   0.761   7.402 -0.1927 -0.5050 -1.0061
 1232SOL     OW15420   5.101   7.172  10.313 -0.7374  0.0924  0.1166
 1232SOL    HW115421   5.163   7.194  10.382  0.8572  1.1084 -1.5158
 1232SOL    HW215422   5.147   7.108  10.259 -0.8840  1.1656 -1.3627
 1233SOL     OW15423  12.952  12.492   1.415  0.0176 -0.0370  0.2953
 1233SOL    HW115424  12.980  12.545   1.340  0.8976  1.5029  1.6454
 1233SOL    HW215425  12.939  12.404   1.379  1.6996  0.3411 -1.4130
 1234SOL     OW15426   0.394  12.139   6.088  0.3283 -0.6256 -0.2969
 1234SOL    HW115427   0.489  12.145   6.100  0.6782 -2.5078 -1.6659
 1234SOL    HW215428   0.362  12.227   6.109  2.3460  0.0318  0.2985
 1235SOL     OW15429   9.828  13.216   6.657  0.1848 -0.0604 -0.4855
 1235SOL    HW115430   9.857  13.294   6.703  0.5427 -2.1695  3.2888
 1235SOL    HW215431   9.733  13.223   6.654  0.2455  0.7590 -0.7493
 1236SOL     OW15432  12.654   5.195   8.943 -0.0536  0.4260  0.4254
 1236SOL    HW115433  12.736   5.150   8.919 -0.1820 -0.0322  0.8217
 1236SOL    HW215434  12.616   5.140   9.012 -0.7398  0.5897  0.1852
 1237SOL     OW15435   8.596   6.119  11.685 -0.5457  0.6053  0.4492
 1237SOL    HW115436   8.662   6.109  11.616 -0.7562 -0.0298  0.3283
 1237SOL    HW215437   8.640   6.171  11.753  1.7548 -3.3304  2.3615
 1238SOL     OW15438   2.059   6.763   9.671 -0.0098 -0.0819  0.3512
 1238SOL    HW115439   2.083   6.746   9.580 -2.4523 -2.0247 -0.0494
 1238SOL    HW215440   2.003   6.840   9.667  2.5252  1.9044  0.7482
 1239SOL     OW15441   9.343  13.060  12.647 -0.4109  0.1933 -0.4074
 1239SOL    HW115442   9.315  13.004  12.720  0.9133 -0.9040 -0.7082
 1239SOL    HW215443   9.321  13.010  12.568  0.3607  0.2949 -0.6937
 1240SOL     OW15444  11.227   9.874   9.233 -0.0620 -0.4398  0.2405
 1240SOL    HW115445  11.263   9.958   9.203 -0.1203 -0.3165  0.5113
 1240SOL    HW215446  11.132   9.886   9.227 -0.1309  0.1479  1.9427
 1241SOL     OW15447   7.213   0.014   3.786 -0.4242  0.6279 -0.3165
 1241SOL    HW115448   7.226  -0.077   3.812  1.9771  0.9580 -0.1207
 1241SOL    HW215449   7.224   0.014   3.691  3.5259  1.1689  0.0031
 1242SOL     OW15450   4.407   6.794  11.783  0.7342  0.2781 -0.6993
 1242SOL    HW115451   4.396   6.851  11.860  3.6846  1.7761 -1.2292
 1242SOL    HW215452   4.443   6.713  11.818 -1.6067 -0.6087 -0.1618
 1243SOL     OW15453   7.507   6.632  10.811  0.5600  0.2163 -0.5397
 1243SOL    HW115454   7.481   6.546  10.777 -2.8092 -0.3505  2.7336
 1243SOL    HW215455   7.444   6.693  10.771  1.8736  0.9546 -1.5552
 1244SOL     OW15456  10.326   2.967   6.554  0.0555  0.4024 -0.4797
 1244SOL    HW115457  10.319   3.015   6.471  1.6997  1.2288 -0.1831
 1244SOL    HW215458  10.236   2.945   6.577 -0.3952 -0.9300 -3.0939
 1245SOL     OW15459  11.448   9.424   0.999  0.6240 -0.8196  0.1039
 1245SOL    HW115460  11.483   9.446   1.086 -0.4081 -1.0843  0.5992
 1245SOL    HW215461  11.521   9.442   0.939  0.6969  1.4949  0.7617
 1246SOL     OW15462   5.670   2.641   4.448 -1.0820  0.3677  0.0978
 1246SOL    HW115463   5.632   2.577   4.508 -2.1083  0.2994 -0.5963
 1246SOL    HW215464   5.680   2.593   4.366  0.8910  0.2812  0.3527
 1247SOL     OW15465   8.741   9.660   0.637 -0.4667 -0.2250  0.2358
 1247SOL    HW115466   8.831   9.675   0.663 -0.7420  0.8943  0.5900
 1247SOL    HW215467   8.700   9.620   0.714  0.0984 -2.3479 -0.4811
 1248SOL     OW15468   7.094   8.528  11.142  0.3146 -0.3093 -0.3446
 1248SOL    HW115469   7.116   8.493  11.228  1.8341  1.7415  0.1696
 1248SOL    HW215470   7.000   8.509  11.132  0.6386 -2.7828  0.6296
 1249SOL     OW15471  12.182   1.911   8.453  0.1071  0.2312  0.2078
 1249SOL    HW115472  12.171   1.924   8.359  3.4172 -1.5406 -0.5805
 1249SOL    HW215473  12.199   1.998   8.487  0.4579  0.7026 -1.1067
 1250SOL     OW15474  11.696   3.889   7.917 -0.4286 -0.0292 -0.1425
 1250SOL    HW115475  11.748   3.950   7.971 -0.7764 -0.1532  0.3364
 1250SOL    HW215476  11.630   3.854   7.977 -0.9006 -0.0782 -0.6829
 1251SOL     OW15477  11.532  10.552   5.950  0.0994 -0.0371 -0.1206
 1251SOL    HW115478  11.548  10.467   5.909  0.2582  0.0383 -0.2182
 1251SOL    HW215479  11.497  10.606   5.879 -2.5540 -0.7637  0.5303
 1252SOL     OW15480  11.486   2.193   6.515  0.1548  0.4201 -0.3333
 1252SOL    HW115481  11.444   2.206   6.600 -0.4170  0.5298 -0.6273
 1252SOL    HW215482  11.494   2.281   6.479 -2.6108  0.1876 -1.8000
 1253SOL     OW15483   3.448   8.116  13.003 -0.1115 -0.3558 -0.0484
 1253SOL    HW115484   3.433   8.049  13.071 -0.5681  0.6398  0.8592
 1253SOL    HW215485   3.496   8.185  13.049  0.8024 -0.2686 -1.1056
 1254SOL     OW15486   8.349   0.103   6.672  0.1237  0.1257  0.1546
 1254SOL    HW115487   8.349   0.182   6.617 -0.8990  0.7878  1.0529
 1254SOL    HW215488   8.270   0.112   6.726  0.7195 -0.8565  1.2217
 1255SOL     OW15489   8.689   1.606   3.397  0.1411  0.1957  0.1021
 1255SOL    HW115490   8.676   1.701   3.389 -0.5196  0.1589  0.6140
 1255SOL    HW215491   8.757   1.597   3.464 -0.8334  0.2942  1.1484
 1256SOL     OW15492   5.481   8.511   9.330 -0.0008  0.2462  0.2408
 1256SOL    HW115493   5.455   8.424   9.300 -0.3369  0.3561  0.2066
 1256SOL    HW215494   5.426   8.571   9.280 -1.0054  0.4167  1.4852
 1257SOL     OW15495   9.893   2.805  11.988  0.7000 -0.5432  0.2174
 1257SOL    HW115496   9.892   2.860  12.066 -0.8282  0.9477 -0.7892
 1257SOL    HW215497   9.824   2.740  12.004  0.2770 -0.1406  0.0715
 1258SOL     OW15498   8.214   7.482  11.371 -0.3469 -0.5272  0.6595
 1258SOL    HW115499   8.269   7.561  11.367 -1.2662  0.1672  1.3090
 1258SOL    HW215500   8.205   7.455  11.280  0.4471 -0.2200  0.4750
 1259SOL     OW15501   9.212   1.776   5.257  0.7848 -0.4375 -0.2631
 1259SOL    HW115502   9.150   1.716   5.214 -0.1688  1.1004 -1.1387
 1259SOL    HW215503   9.190   1.862   5.222  1.0158  0.6956  2.1937
 1260SOL     OW15504  10.835   8.895  11.975  0.7925  0.7428  0.2221
 1260SOL    HW115505  10.765   8.910  12.038 -0.8355  1.8708 -1.7461
 1260SOL    HW215506  10.881   8.979  11.969  1.1197  0.5591  0.1247
 1261SOL     OW15507   4.760   3.057  12.014  0.0946 -0.3268  0.0404
 1261SOL    HW115508   4.802   3.122  11.958  0.3219  2.0815  2.7580
 1261SOL    HW215509   4.829   3.026  12.073 -0.7648 -0.2879  1.1146
 1262SOL     OW15510   4.791  13.446  13.096 -0.1079 -0.0000 -0.0293
 1262SOL    HW115511   4.738  13.525  13.085  1.9284  1.4841  0.2619
 1262SOL    HW215512   4.795  13.434  13.191  0.9620  0.5595  0.0065
 1263SOL     OW15513   8.453   5.784   5.760 -0.7790 -0.1198 -0.1648
 1263SOL    HW115514   8.505   5.708   5.786 -1.4183 -0.4789  0.1054
 1263SOL    HW215515   8.466   5.791   5.665 -0.4727 -0.3836 -0.1443
 1264SOL     OW15516   8.902   6.863   0.124 -0.8236 -0.7242  0.1550
 1264SOL    HW115517   8.896   6.781   0.075 -1.0406  0.1136 -1.2854
 1264SOL    HW215518   8.970   6.913   0.078  0.1791 -0.5580  1.7488
 1265SOL     OW15519  11.958   6.485   0.645  0.1682  0.1323 -0.1382
 1265SOL    HW115520  11.879   6.494   0.592 -1.6298 -1.5311  2.0428
 1265SOL    HW215521  11.979   6.392   0.642  1.0472  0.2863  0.6625
 1266SOL     OW15522   6.014  12.687   1.848  0.1797  0.0405  1.0623
 1266SOL    HW115523   6.098  12.671   1.892  0.7138 -0.2491 -0.0241
 1266SOL    HW215524   6.037  12.695   1.755 -1.1019 -0.9568  0.6274
 1267SOL     OW15525  11.955  13.693  12.148 -0.1947 -0.4196  0.6278
 1267SOL    HW115526  12.018  13.753  12.186 -1.9587  3.3677 -1.8721
 1267SOL    HW215527  11.986  13.677  12.059 -0.9197 -1.4987  0.5393
 1268SOL     OW15528  11.704   7.656   7.622 -0.0389 -0.1331  0.0846
 1268SOL    HW115529  11.679   7.567   7.646  0.4648 -0.2566  0.1644
 1268SOL    HW215530  11.695   7.659   7.527  1.5972 -0.8143 -0.1305
 1269SOL     OW15531  13.161   0.975   0.222 -0.5286 -0.0765  0.2678
 1269SOL    HW115532  13.074   0.955   0.186 -0.7487  0.7048  0.3621
 1269SOL    HW215533  13.194   0.890   0.252 -0.4743 -0.7074 -1.4757
 1270SOL     OW15534   1.799   7.040  12.015 -0.1698 -0.2595 -0.0111
 1270SOL    HW115535   1.780   7.000  11.930 -3.2971  0.5744  0.1530
 1270SOL    HW215536   1.858   7.112  11.995  0.6030 -1.1709 -1.1788
 1271SOL     OW15537   1.981   5.854   4.030  0.1287  0.7927 -0.7127
 1271SOL    HW115538   2.042   5.913   4.074 -1.1407  0.8605  1.0557
 1271SOL    HW215539   2.005   5.767   4.062 -0.5306  0.7952 -0.1981
 1272SOL     OW15540  13.719   1.980  11.901 -0.0899  0.0577  0.2269
 1272SOL    HW115541  13.724   2.029  11.983 -0.5469 -0.9448  0.8673
 1272SOL    HW215542  13.728   1.889  11.927  0.0054 -0.2596 -0.8740
 1273SOL     OW15543   8.720   7.473   8.898 -0.0006 -0.0935 -0.2133
 1273SOL    HW115544   8.628   7.470   8.926 -0.0416  0.0892 -0.3277
 1273SOL    HW215545   8.769   7.488   8.979 -0.1199  0.4463 -0.2356
 1274SOL     OW15546   8.300  12.985   0.298 -0.3287  0.0468  0.0310
 1274SOL    HW115547   8.377  12.947   0.256  0.1925  0.1613  0.8446
 1274SOL    HW215548   8.231  12.980   0.232 -0.4255 -2.7234  0.2307
 1275SOL     OW15549   8.332   1.641  11.961  0.0910  0.1218 -0.6624
 1275SOL    HW115550   8.426   1.625  11.963  0.0910  0.1988  0.7974
 1275SOL    HW215551   8.296   1.583  12.028 -0.6254  1.6982  0.3677
 1276SOL     OW15552   7.586   3.321   4.086  0.6283  0.1618 -0.2331
 1276SOL    HW115553   7.514   3.384   4.074 -0.8499 -1.4125 -0.0099
 1276SOL    HW215554   7.631   3.351   4.165  0.4408  1.3700 -0.5612
 1277SOL     OW15555  11.989   3.558  13.102 -0.3186 -0.3750  0.0166
 1277SOL    HW115556  12.019   3.510  13.025 -1.0796  1.7547 -1.7266
 1277SOL    HW215557  11.974   3.647  13.070 -0.4097  0.6775  2.7208
 1278SOL     OW15558   2.231  12.491   6.807  0.0840  0.8012  0.4472
 1278SOL    HW115559   2.165  12.427   6.833 -0.1865  1.4126  1.3313
 1278SOL    HW215560   2.315  12.447   6.824 -0.0509 -0.3254 -1.5531
 1279SOL     OW15561   8.519   8.772   1.279 -0.7418 -0.4140 -0.2034
 1279SOL    HW115562   8.441   8.719   1.264 -0.3801 -1.1697  0.5068
 1279SOL    HW215563   8.509   8.804   1.368 -0.2995 -0.4221 -0.1486
 1280SOL     OW15564   5.679  13.400   7.310 -0.0078 -0.0659 -0.5570
 1280SOL    HW115565   5.640  13.408   7.397 -0.7648 -0.1599 -0.8834
 1280SOL    HW215566   5.766  13.439   7.319 -0.3620  0.6040  0.0590
 1281SOL     OW15567   0.457   1.160  10.007  0.5822 -0.5848  0.1990
 1281SOL    HW115568   0.424   1.187  10.093  0.9784  1.1523 -0.1504
 1281SOL    HW215569   0.396   1.200   9.944  0.6631 -1.3053 -0.3582
 1282SOL     OW15570   9.053  13.435  12.336  0.6191 -0.1576  0.1810
 1282SOL    HW115571   9.135  13.473  12.367  1.3220 -1.6813  0.2628
 1282SOL    HW215572   9.003  13.510  12.304  2.4353  0.6985 -0.7954
 1283SOL     OW15573   7.615   3.835  12.869  0.3527  0.2928  0.1466
 1283SOL    HW115574   7.542   3.779  12.841  0.9603 -0.4925  0.1015
 1283SOL    HW215575   7.654   3.788  12.943  0.8142  0.7083  0.1739
 1284SOL     OW15576  10.541   4.594   9.321  0.1017 -0.5009 -0.1720
 1284SOL    HW115577  10.485   4.527   9.281 -2.1323  0.6877  0.7849
 1284SOL    HW215578  10.566   4.557   9.406  1.7015 -1.4425 -0.9913
 1285SOL     OW15579   8.995   9.027   9.935 -0.3433  0.2080  0.7340
 1285SOL    HW115580   8.926   8.991   9.991 -0.2067  1.6706  1.9044
 1285SOL    HW215581   9.075   8.984   9.965 -0.4800 -0.1681  0.5763
 1286SOL     OW15582   4.958  12.456  11.564 -0.2758  0.0102  0.3003
 1286SOL    HW115583   4.973  12.441  11.471  0.6268  3.9016 -0.3433
 1286SOL    HW215584   5.045  12.462  11.602 -0.6163 -0.3162  1.1592
 1287SOL     OW15585   2.488   2.145   8.406 -0.0336 -0.1648  0.2178
 1287SOL    HW115586   2.400   2.176   8.426 -0.4893 -1.0948 -0.3018
 1287SOL    HW215587   2.508   2.181   8.320 -0.6231 -1.4048 -0.4529
 1288SOL     OW15588   9.293  11.314   4.889 -0.3368 -0.0874  0.4206
 1288SOL    HW115589   9.372  11.318   4.942 -0.8689  0.1642  1.2015
 1288SOL    HW215590   9.272  11.220   4.884 -0.0061 -0.1509  0.2323
 1289SOL     OW15591  12.501   6.245  13.389 -0.3147  0.1155 -0.7465
 1289SOL    HW115592  12.471   6.302  13.460 -0.4850 -0.9608  0.0702
 1289SOL    HW215593  12.514   6.160  13.431 -2.4215 -1.1029 -2.4248
 1290SOL     OW15594   8.083   3.654  11.821  0.2992  0.1626 -0.1767
 1290SOL    HW115595   8.093   3.688  11.732 -0.1436  1.8678  0.3793
 1290SOL    HW215596   8.172   3.655  11.856  0.5710 -1.1340 -0.7950
 1291SOL     OW15597  10.777   0.437  11.372  0.4138  0.2497  0.3248
 1291SOL    HW115598  10.752   0.524  11.341 -0.0549 -0.6082 -1.9190
 1291SOL    HW215599  10.872   0.441  11.383  0.1842  1.6037  2.3540
 1292SOL     OW15600   5.717  12.143   6.652  0.5033  0.3980  0.2969
 1292SOL    HW115601   5.783  12.088   6.609 -0.0107 -0.2529  0.3191
 1292SOL    HW215602   5.678  12.087   6.719 -0.4381  0.5868 -0.0642
 1293SOL     OW15603   6.811   5.512  10.439 -0.3738  0.0039 -0.3662
 1293SOL    HW115604   6.776   5.598  10.416 -0.7009  0.3462  1.2695
 1293SOL    HW215605   6.733   5.456  10.448 -0.1505 -0.5443 -1.6605
 1294SOL     OW15606  11.369   1.488   2.090  0.1191  0.2001 -0.6250
 1294SOL    HW115607  11.396   1.575   2.119 -2.1107  1.0402 -0.8126
 1294SOL    HW215608  11.411   1.427   2.150  1.4299  1.4155 -0.2666
 1295SOL     OW15609   6.087   8.632   7.891 -0.1111 -0.0614 -0.3213
 1295SOL    HW115610   6.106   8.722   7.915 -0.4885  0.3315 -1.4242
 1295SOL    HW215611   6.152   8.610   7.825 -0.6639 -0.2293 -0.8226
 1296SOL     OW15612   8.602   6.787   6.630  0.9340  0.1398 -0.4338
 1296SOL    HW115613   8.622   6.725   6.699  1.0392 -0.2641 -0.8237
 1296SOL    HW215614   8.561   6.735   6.561 -1.1531  0.8597  0.1649
 1297SOL     OW15615   9.820   7.838   6.458  0.5052  0.1053 -0.1961
 1297SOL    HW115616   9.823   7.911   6.396 -0.5453  0.5265  0.2333
 1297SOL    HW215617   9.906   7.840   6.500  0.6802  0.7621 -0.5564
 1298SOL     OW15618   6.936   4.849  11.418 -0.0530  0.6312 -0.2114
 1298SOL    HW115619   6.897   4.763  11.405 -0.5473  0.9958 -1.2746
 1298SOL    HW215620   7.024   4.831  11.450 -0.3688 -0.2462  0.1943
 1299SOL     OW15621   7.628   8.494  12.149 -0.3123  0.1158 -0.0520
 1299SOL    HW115622   7.659   8.581  12.175 -0.5422  0.9082 -2.1541
 1299SOL    HW215623   7.569   8.512  12.075 -1.0601 -1.7796  0.0372
 1300SOL     OW15624   4.143   8.033   5.736 -0.2361 -0.3111 -0.1909
 1300SOL    HW115625   4.132   8.122   5.769 -1.2134 -0.2124 -0.7381
 1300SOL    HW215626   4.161   8.045   5.642  2.1530 -0.5953  0.1535
 1301SOL     OW15627   6.733  10.653   3.781 -0.2429 -0.3795 -0.0937
 1301SOL    HW115628   6.793  10.636   3.854 -0.6148  1.1261  0.5956
 1301SOL    HW215629   6.757  10.740   3.750 -2.2380  0.4053  0.3966
 1302SOL     OW15630  11.399   2.217  12.665  0.0165 -0.1681 -0.5665
 1302SOL    HW115631  11.351   2.229  12.583 -1.2658 -1.0005  0.0391
 1302SOL    HW215632  11.364   2.136  12.702 -0.1300  0.7025  1.2867
 1303SOL     OW15633   9.115  11.120   8.195 -0.1481 -0.1321  0.0509
 1303SOL    HW115634   9.209  11.120   8.211 -0.0489  1.0269 -0.3843
 1303SOL    HW215635   9.105  11.169   8.112 -1.1190 -0.2794  0.0650
 1304SOL     OW15636   2.285   2.719  12.586 -0.3078  0.3065  0.4455
 1304SOL    HW115637   2.251   2.646  12.637  0.6884 -0.1456  0.4877
 1304SOL    HW215638   2.379   2.720  12.606  0.1365  0.0223 -1.4842
 1305SOL     OW15639   2.625   3.492   9.266  0.6718 -0.0492 -0.7990
 1305SOL    HW115640   2.683   3.432   9.313 -0.5821 -0.7820 -0.1085
 1305SOL    HW215641   2.629   3.464   9.175  2.0161  0.4495 -0.9062
 1306SOL     OW15642   3.880  13.691   2.900 -0.8116 -0.2269 -0.1361
 1306SOL    HW115643   3.823  13.763   2.874  0.9165  1.0230 -0.7115
 1306SOL    HW215644   3.894  13.641   2.819 -2.4699 -1.6142  0.3807
 1307SOL     OW15645   8.129   1.344   5.469  0.2352 -0.1465  0.0272
 1307SOL    HW115646   8.121   1.436   5.494 -1.3982 -0.5432  1.1323
 1307SOL    HW215647   8.223   1.324   5.478  0.2314  0.6283  2.8170
 1308SOL     OW15648   3.585   3.853   0.638 -0.0840 -0.5430 -0.2134
 1308SOL    HW115649   3.546   3.807   0.564  1.3651 -2.7773  0.2928
 1308SOL    HW215650   3.679   3.836   0.630  0.6939  3.2180 -0.4686
 1309SOL     OW15651  13.124  13.491   5.732  0.4147 -0.2736  0.3163
 1309SOL    HW115652  13.091  13.579   5.714  2.5914  0.5889  0.3249
 1309SOL    HW215653  13.142  13.454   5.645  1.2050 -0.0184  0.3690
 1310SOL     OW15654  11.892   3.727  11.658  0.4361 -0.3549 -0.4957
 1310SOL    HW115655  11.908   3.680  11.576 -0.7090 -0.6429 -0.5734
 1310SOL    HW215656  11.966   3.788  11.666  0.3188  0.0356 -2.0037
 1311SOL     OW15657   3.298  12.673   9.796 -0.1368  0.1320 -0.0053
 1311SOL    HW115658   3.322  12.605   9.860 -0.2079 -0.0992 -0.2252
 1311SOL    HW215659   3.257  12.741   9.849  0.7647  0.4222  0.3521
 1312SOL     OW15660   2.246   5.203   2.002 -0.3384 -0.1729 -0.3004
 1312SOL    HW115661   2.259   5.279   1.945  0.8977 -0.6471 -0.7035
 1312SOL    HW215662   2.178   5.152   1.958 -0.3021  0.0970 -0.6824
 1313SOL     OW15663   3.399   2.050   4.278 -0.5904  0.7514  0.3934
 1313SOL    HW115664   3.463   2.080   4.213 -1.0841  0.8482 -0.0475
 1313SOL    HW215665   3.412   2.111   4.352 -0.0061  0.6178  0.4106
 1314SOL     OW15666   5.202  11.100   8.677  0.0495  0.2860 -0.2593
 1314SOL    HW115667   5.140  11.041   8.634  1.0079 -1.3258  0.4812
 1314SOL    HW215668   5.286  11.083   8.634  0.5949  0.1461  0.8202
 1315SOL     OW15669   3.073   2.304  13.061 -0.4033 -0.0242 -0.3920
 1315SOL    HW115670   3.164   2.330  13.074 -0.0402 -1.1324 -0.6269
 1315SOL    HW215671   3.078   2.222  13.013 -1.5268 -0.3066 -0.0601
 1316SOL     OW15672  10.727   3.301   9.260  0.1307  0.2868 -0.3639
 1316SOL    HW115673  10.773   3.266   9.337  0.6794  2.4899  0.4102
 1316SOL    HW215674  10.659   3.237   9.241  2.7194 -2.5572 -0.8429
 1317SOL     OW15675  12.207   6.653  11.926  0.0421  0.3332  0.0245
 1317SOL    HW115676  12.159   6.735  11.913  1.0073  1.4540  2.8761
 1317SOL    HW215677  12.252   6.639  11.842 -0.5057  2.4576 -0.6955
 1318SOL     OW15678   2.546   9.377   6.434 -0.5605  0.7483  0.2400
 1318SOL    HW115679   2.467   9.359   6.486 -0.6064  0.0049 -0.0719
 1318SOL    HW215680   2.536   9.468   6.406 -0.0415  1.5139  2.3795
 1319SOL     OW15681   5.680   0.160   5.094  0.0169  0.3522 -0.6037
 1319SOL    HW115682   5.741   0.118   5.033  1.5296 -1.1644  1.7378
 1319SOL    HW215683   5.594   0.129   5.067  0.3097  1.5728 -3.2701
 1320SOL     OW15684   6.152   2.623   9.653  0.3269  0.0537  0.3447
 1320SOL    HW115685   6.159   2.580   9.738  0.0478 -0.9578 -0.1288
 1320SOL    HW215686   6.064   2.602   9.622  0.4183  0.4230 -0.1797
 1321SOL     OW15687  12.260  12.969   1.183  0.2799  0.1584 -0.0068
 1321SOL    HW115688  12.182  12.980   1.237  0.5542 -1.8415  0.9029
 1321SOL    HW215689  12.328  13.019   1.228  0.2816 -0.7440  1.0494
 1322SOL     OW15690  10.184   1.082   9.131 -0.1905  0.3111 -0.0708
 1322SOL    HW115691  10.135   1.075   9.050  0.6570 -1.3631 -0.4823
 1322SOL    HW215692  10.192   1.176   9.146 -0.3964  0.6554 -1.8911
 1323SOL     OW15693   0.040  12.143  13.244 -0.4751  0.3485  0.3139
 1323SOL    HW115694   0.116  12.169  13.296 -1.7306  0.3990  2.1925
 1323SOL    HW215695   0.078  12.110  13.162  1.5146  1.2123  0.8197
 1324SOL     OW15696   1.758   2.344   0.333  0.3109 -0.4048  0.1449
 1324SOL    HW115697   1.830   2.352   0.270  0.1854 -0.0528  0.0413
 1324SOL    HW215698   1.681   2.376   0.285 -0.3641 -2.7561 -0.4898
 1325SOL     OW15699   8.236   9.033   1.276 -0.5930  0.1556 -0.0030
 1325SOL    HW115700   8.287   9.102   1.320 -0.5189  0.3874 -0.4520
 1325SOL    HW215701   8.274   9.027   1.189  0.6032 -1.7020  0.5837
 1326SOL     OW15702  10.995   9.245  11.804 -0.5639 -0.0373  0.1291
 1326SOL    HW115703  11.067   9.306  11.818  0.1218 -0.6759 -0.5301
 1326SOL    HW215704  10.979   9.206  11.890  0.7412 -0.8205  0.0392
 1327SOL     OW15705  10.983  12.845   8.029 -0.1093  0.0464  0.1779
 1327SOL    HW115706  11.041  12.855   8.104  0.5874  0.1394 -0.3617
 1327SOL    HW215707  10.941  12.930   8.020 -1.5094 -0.4623  1.5025
 1328SOL     OW15708   8.794   1.353   2.706 -0.1054  0.0222  0.0857
 1328SOL    HW115709   8.811   1.259   2.700  0.2120  0.0056  1.0621
 1328SOL    HW215710   8.733   1.371   2.634  0.2588 -0.8228 -0.4458
 1329SOL     OW15711   8.863   1.716   8.712  0.2171 -0.2735  0.2791
 1329SOL    HW115712   8.888   1.720   8.804 -1.1703  1.5239  0.6102
 1329SOL    HW215713   8.821   1.631   8.702  0.0205 -0.3163  1.3993
 1330SOL     OW15714   7.924  10.184   7.431 -0.4863 -0.0365  0.2742
 1330SOL    HW115715   7.975  10.108   7.403  1.0088  0.8821  0.3965
 1330SOL    HW215716   7.923  10.242   7.355  0.7692  1.0153  1.0194
 1331SOL     OW15717  12.303   3.021  12.411  0.1620 -0.0534 -0.0624
 1331SOL    HW115718  12.335   2.933  12.396  1.6128  0.7616 -2.1559
 1331SOL    HW215719  12.382   3.074  12.426 -0.3708  1.4114 -2.0132
 1332SOL     OW15720   9.027   5.680   8.588 -0.0681 -0.0217  0.0609
 1332SOL    HW115721   9.039   5.587   8.569  1.7255 -0.1308  1.4317
 1332SOL    HW215722   9.093   5.724   8.535 -1.3157  0.5571 -1.0528
 1333SOL     OW15723   1.457   6.594  12.957  0.1918  0.3011  0.0988
 1333SOL    HW115724   1.496   6.646  12.887  0.2762 -0.9129 -0.7816
 1333SOL    HW215725   1.493   6.506  12.945 -1.7621 -0.5499  0.0683
 1334SOL     OW15726   1.050  12.394   0.655  0.1119 -0.8805  0.4009
 1334SOL    HW115727   1.005  12.391   0.739  1.6572  1.3475  1.3919
 1334SOL    HW215728   1.143  12.399   0.677  0.4804  2.3375 -1.2441
 1335SOL     OW15729  11.661  11.210  12.835  0.1352 -0.2534 -0.3061
 1335SOL    HW115730  11.680  11.290  12.787  0.5459 -1.6863 -2.6709
 1335SOL    HW215731  11.722  11.211  12.909 -0.4731  1.9897  0.2574
 1336SOL     OW15732   1.455  11.933   2.725  0.2470  0.2277  0.4163
 1336SOL    HW115733   1.405  11.854   2.705  0.3581  0.2503  0.0551
 1336SOL    HW215734   1.420  11.962   2.810 -0.1469  0.0796  0.3074
 1337SOL     OW15735   9.136   7.241   7.883 -0.3227 -0.3468  0.4713
 1337SOL    HW115736   9.060   7.216   7.830 -0.6887  1.5547  0.0376
 1337SOL    HW215737   9.099   7.266   7.967 -0.0535 -0.4656  0.6266
 1338SOL     OW15738   4.494   9.893   5.046 -0.4359 -0.1021 -0.3195
 1338SOL    HW115739   4.490   9.983   5.079 -0.4143 -0.3993  0.5090
 1338SOL    HW215740   4.475   9.901   4.953 -0.7882  0.7232 -0.1843
 1339SOL     OW15741   3.591   8.161   5.006 -0.8536 -0.1383 -0.1708
 1339SOL    HW115742   3.680   8.133   4.984 -0.3898  1.3991 -0.4001
 1339SOL    HW215743   3.572   8.117   5.089  0.6259  0.4691  0.5219
 1340SOL     OW15744   2.173   8.121   6.947  0.0432 -0.3952  0.0073
 1340SOL    HW115745   2.164   8.031   6.976  0.7276 -0.5960 -0.3980
 1340SOL    HW215746   2.117   8.127   6.869 -1.2192 -0.0461  0.9021
 1341SOL     OW15747   0.366   3.769  13.039  0.0419 -0.1431 -0.3859
 1341SOL    HW115748   0.280   3.727  13.032 -0.7395  1.3896 -0.4592
 1341SOL    HW215749   0.374   3.821  12.959 -0.7986  2.8921  1.3312
 1342SOL     OW15750  10.357   2.358   0.735 -0.0843  0.2159  0.2785
 1342SOL    HW115751  10.361   2.452   0.755 -0.2042  0.1357  0.6951
 1342SOL    HW215752  10.350   2.354   0.640 -0.4873  0.6450  0.2860
 1343SOL     OW15753   6.030  13.220   9.991 -0.4382  0.8498 -0.4691
 1343SOL    HW115754   5.977  13.147  10.023 -0.0305  0.2672 -1.1050
 1343SOL    HW215755   6.120  13.193  10.007 -0.2541  0.8155 -1.5344
 1344SOL     OW15756   5.660   6.297   9.089 -0.2107 -0.0924 -0.1080
 1344SOL    HW115757   5.729   6.247   9.132  0.1511 -0.8179 -1.4775
 1344SOL    HW215758   5.589   6.234   9.075 -0.1558  0.0155 -0.9348
 1345SOL     OW15759   3.569   7.160   4.664  0.0067  0.0186  0.2691
 1345SOL    HW115760   3.532   7.133   4.748  0.6914 -1.5216  0.1236
 1345SOL    HW215761   3.498   7.143   4.601 -0.0202 -0.2043  0.3564
 1346SOL     OW15762   7.597   8.399   6.720 -0.0645 -0.6801 -0.0656
 1346SOL    HW115763   7.605   8.319   6.668 -0.6999 -0.7974  0.0053
 1346SOL    HW215764   7.502   8.414   6.727  0.0360  1.0757 -1.6138
 1347SOL     OW15765   0.877  11.303  12.871 -0.0743  0.2356 -0.0695
 1347SOL    HW115766   0.813  11.367  12.838 -0.6613 -0.4232 -0.2309
 1347SOL    HW215767   0.952  11.356  12.896 -0.3112  0.9388 -0.7739
 1348SOL     OW15768   5.995   3.870   3.086  0.1847 -0.3767  0.0397
 1348SOL    HW115769   6.038   3.800   3.136  0.5382  1.0129  1.7543
 1348SOL    HW215770   5.955   3.926   3.152  0.3725  1.3466 -1.2527
 1349SOL     OW15771   6.281   8.411   8.336 -0.3812 -0.0482  0.2182
 1349SOL    HW115772   6.261   8.353   8.409  1.5234  0.8467  1.5410
 1349SOL    HW215773   6.371   8.390   8.311 -1.4614 -1.4836 -3.0770
 1350SOL     OW15774   3.343  10.145   0.711 -0.3695  0.0357 -0.4992
 1350SOL    HW115775   3.268  10.107   0.756  0.5680  0.3027  1.3696
 1350SOL    HW215776   3.389  10.070   0.675 -0.1721 -0.3688  0.5535
 1351SOL     OW15777  12.100   4.984  10.435  0.1532 -0.1136  0.3991
 1351SOL    HW115778  12.067   5.068  10.467  0.4236  0.2262 -0.2120
 1351SOL    HW215779  12.095   4.927  10.512 -1.5648  0.0029  0.4232
 1352SOL     OW15780  10.906   7.310   2.466 -0.1507  0.5441  0.5003
 1352SOL    HW115781  10.858   7.372   2.521  0.1543  1.2070  0.0274
 1352SOL    HW215782  10.990   7.352   2.450 -0.3261  0.4841 -0.6647
 1353SOL     OW15783   4.935   4.511   9.554  0.1352  0.2819  0.1971
 1353SOL    HW115784   5.017   4.506   9.505  0.4549  0.4444  0.7142
 1353SOL    HW215785   4.955   4.471   9.639 -1.1527 -2.6539 -0.7440
 1354SOL     OW15786   3.009  12.833   4.453  0.4223 -0.0214  0.3012
 1354SOL    HW115787   3.036  12.746   4.482  2.1754  0.1550 -0.6435
 1354SOL    HW215788   3.082  12.890   4.478  0.0747  0.8639 -0.6462
 1355SOL     OW15789   6.632   2.715  12.128  0.2031 -0.4380 -0.2303
 1355SOL    HW115790   6.672   2.683  12.209 -2.7027 -0.8522  1.1844
 1355SOL    HW215791   6.587   2.795  12.154  0.9180  0.5595 -1.9585
 1356SOL     OW15792  12.970   5.692   8.196  0.4932  0.4035  0.1218
 1356SOL    HW115793  12.900   5.729   8.142 -0.2820  0.5434  1.1762
 1356SOL    HW215794  13.051   5.714   8.150 -0.0256  2.1710 -0.0033
 1357SOL     OW15795  10.088  12.109  11.959 -0.9279 -0.2474 -0.3255
 1357SOL    HW115796  10.010  12.164  11.963 -0.4399  0.3783  1.2632
 1357SOL    HW215797  10.054  12.020  11.947 -1.9382 -0.0814  1.1278
 1358SOL     OW15798   9.138   8.613  12.936  0.3595  0.2337 -0.2839
 1358SOL    HW115799   9.193   8.666  12.878 -2.6419  2.4394 -1.4176
 1358SOL    HW215800   9.147   8.654  13.022  0.0125  1.0500 -0.6173
 1359SOL     OW15801  12.069   3.994   8.326  0.5146 -0.2648 -0.1979
 1359SOL    HW115802  12.016   3.914   8.327  1.3935 -0.9084  2.0388
 1359SOL    HW215803  12.020   4.055   8.381  1.6713 -0.6405  1.3311
 1360SOL     OW15804  13.632   7.182   9.246 -0.4294 -0.0443 -0.1802
 1360SOL    HW115805  13.598   7.107   9.198  0.7140  0.2618 -1.5587
 1360SOL    HW215806  13.724   7.187   9.220 -0.5344  1.9619 -0.3207
 1361SOL     OW15807  10.411   3.834   1.418  0.1416 -0.8449 -0.5983
 1361SOL    HW115808  10.465   3.772   1.369  0.4517  0.1162 -1.5196
 1361SOL    HW215809  10.389   3.902   1.355 -0.0396  0.0798  0.4151
 1362SOL     OW15810   7.927  12.942   1.442 -0.2850 -0.0029 -0.1631
 1362SOL    HW115811   7.880  12.858   1.445 -0.8904  0.2973 -0.9728
 1362SOL    HW215812   7.970  12.942   1.357 -0.4077  0.5692 -0.2291
 1363SOL     OW15813   5.914  10.692   1.301 -0.0317 -0.1010 -0.3542
 1363SOL    HW115814   5.859  10.674   1.225  1.4423 -1.2108 -1.2174
 1363SOL    HW215815   5.967  10.613   1.312  0.6545  0.5150  1.0754
 1364SOL     OW15816  10.977   5.653   0.287  0.5517 -0.1050 -0.3521
 1364SOL    HW115817  10.910   5.683   0.226 -0.4594  0.8652  1.1825
 1364SOL    HW215818  10.973   5.558   0.283  0.5254 -0.0682 -1.7837
 1365SOL     OW15819   1.705   8.330  13.138 -0.2513  0.1386  0.9112
 1365SOL    HW115820   1.800   8.317  13.139 -0.2296  0.2376  0.5078
 1365SOL    HW215821   1.687   8.380  13.217  0.2945  1.8021  0.0406
 1366SOL     OW15822  13.288   9.001   0.836 -0.0401 -0.5331  0.1176
 1366SOL    HW115823  13.291   9.036   0.747  2.4298 -0.3137  0.2113
 1366SOL    HW215824  13.320   9.073   0.890  1.4673 -1.6278  0.7660
 1367SOL     OW15825  12.997   5.107   1.693  0.6484  0.0944 -0.3221
 1367SOL    HW115826  13.070   5.075   1.640 -0.4215 -0.4622 -1.5130
 1367SOL    HW215827  13.035   5.176   1.747  1.8133  0.6295 -1.7547
 1368SOL     OW15828   1.256   4.902   2.422 -0.9114 -0.1891 -0.2613
 1368SOL    HW115829   1.172   4.913   2.378 -0.8286 -1.2290 -0.7098
 1368SOL    HW215830   1.253   4.813   2.457  0.1710 -0.3964 -0.6553
 1369SOL     OW15831   1.701   0.559   9.837 -0.7584  0.6136 -0.1940
 1369SOL    HW115832   1.764   0.531   9.904 -1.0395  0.2131 -0.0939
 1369SOL    HW215833   1.739   0.639   9.801 -0.9175  1.2065  0.9094
 1370SOL     OW15834   3.509  11.400  11.452 -0.2469 -0.1179  0.6384
 1370SOL    HW115835   3.491  11.306  11.463 -1.0850 -0.1998 -1.0925
 1370SOL    HW215836   3.518  11.433  11.541  0.1416 -1.8536  1.2861
 1371SOL     OW15837   8.536   7.314   6.225  0.6571 -0.5134 -0.0744
 1371SOL    HW115838   8.460   7.280   6.178  0.6932 -1.2851  0.4091
 1371SOL    HW215839   8.598   7.338   6.157 -0.2261  0.6370 -0.4927
 1372SOL     OW15840   0.931   2.960   8.796  0.1486 -0.2971  0.3980
 1372SOL    HW115841   0.957   3.016   8.869 -0.7744 -0.6327  0.9980
 1372SOL    HW215842   0.869   2.898   8.834  1.4124 -1.9800 -0.1746
 1373SOL     OW15843  10.826   6.667   9.686  0.2061 -0.4030 -0.1158
 1373SOL    HW115844  10.794   6.592   9.635 -0.3851  0.8858 -1.7608
 1373SOL    HW215845  10.839   6.736   9.621 -0.3147  1.2617  1.4491
 1374SOL     OW15846   6.713   9.198   4.822  0.2363  0.6332 -0.1918
 1374SOL    HW115847   6.685   9.286   4.849  1.4635  1.1890 -0.6185
 1374SOL    HW215848   6.716   9.202   4.726 -0.6325 -0.1913 -0.2645
 1375SOL     OW15849   3.949   8.259  12.719  0.4885  0.3377 -0.2833
 1375SOL    HW115850   3.854   8.247  12.729  0.5591  0.6890  0.9382
 1375SOL    HW215851   3.958   8.305  12.636 -0.1855 -2.3503 -1.9730
 1376SOL     OW15852   4.107  13.488   8.995 -0.2001  0.3144  0.0163
 1376SOL    HW115853   4.128  13.481   8.902 -0.4563  2.0715 -0.1977
 1376SOL    HW215854   4.073  13.401   9.019  0.5469 -0.3791 -1.3347
 1377SOL     OW15855   7.286   7.912   7.672  0.1285  0.1027 -0.1083
 1377SOL    HW115856   7.361   7.853   7.674  0.7947  0.8315  3.2264
 1377SOL    HW215857   7.211   7.855   7.653  1.0689 -1.3692  0.4400
 1378SOL     OW15858  12.300   4.201   9.895  0.6081  0.6306  0.4069
 1378SOL    HW115859  12.305   4.139   9.822  0.5927  2.2838 -1.0671
 1378SOL    HW215860  12.207   4.206   9.916  0.4220  1.2923 -0.5212
 1379SOL     OW15861   8.737   7.510   6.346  0.1340  0.0934  0.0482
 1379SOL    HW115862   8.717   7.597   6.381  0.5050 -0.4543  1.6888
 1379SOL    HW215863   8.769   7.460   6.421 -0.2080 -1.5138 -0.8190
 1380SOL     OW15864   1.082   5.755  12.579  0.0824 -0.1807  0.1194
 1380SOL    HW115865   1.127   5.798  12.652  0.2544  2.2653 -1.3088
 1380SOL    HW215866   1.051   5.827  12.525 -1.1665 -1.9019 -1.5743
 1381SOL     OW15867   3.627  11.070   0.239 -0.5890  0.0437 -0.4982
 1381SOL    HW115868   3.655  10.982   0.264 -0.4056  0.1513 -0.3187
 1381SOL    HW215869   3.635  11.071   0.144  2.0896  0.7428 -0.3482
 1382SOL     OW15870   9.045   0.800   3.182  0.9169 -0.4064 -0.4705
 1382SOL    HW115871   9.050   0.719   3.234  1.7431 -1.0233 -1.4720
 1382SOL    HW215872   9.015   0.771   3.096  0.1152  0.5271 -0.5273
 1383SOL     OW15873   5.582   3.683   7.593 -0.4223 -0.0399 -0.0109
 1383SOL    HW115874   5.580   3.627   7.516 -1.0162 -1.2187  0.8342
 1383SOL    HW215875   5.625   3.763   7.563 -2.2779  0.2895 -2.0457
 1384SOL     OW15876   6.821  12.605   3.543 -0.3418 -0.0700  0.0447
 1384SOL    HW115877   6.764  12.544   3.497  1.6017 -0.4946 -1.9421
 1384SOL    HW215878   6.893  12.622   3.483 -0.5357  3.9055  0.6256
 1385SOL     OW15879   6.151  11.565   1.045  0.7304 -0.0754  0.2581
 1385SOL    HW115880   6.136  11.535   0.956  0.9961  0.9327 -0.1436
 1385SOL    HW215881   6.070  11.543   1.092  0.5374 -0.4854 -0.2573
 1386SOL     OW15882   6.977   9.781   9.674 -0.6839  0.1129 -0.4133
 1386SOL    HW115883   6.994   9.865   9.717  0.8553  0.0601 -0.8625
 1386SOL    HW215884   6.883   9.781   9.657 -1.2450  0.4480  2.2627
 1387SOL     OW15885   9.215   4.153   3.841  1.0298  0.3078  0.2898
 1387SOL    HW115886   9.197   4.105   3.760 -0.8160  1.9652 -0.3440
 1387SOL    HW215887   9.282   4.217   3.816  0.2067  1.0557 -0.0583
 1388SOL     OW15888   5.953   0.457   7.498 -0.7284  0.1032  0.8958
 1388SOL    HW115889   5.919   0.546   7.489 -1.7060 -0.1325  2.0889
 1388SOL    HW215890   6.020   0.464   7.567 -1.0992 -0.1556  1.2857
 1389SOL     OW15891   1.481  12.832  10.623 -0.6601 -0.0653  0.3352
 1389SOL    HW115892   1.575  12.829  10.639 -0.4298  0.8907 -0.7281
 1389SOL    HW215893   1.442  12.831  10.711  0.2632 -1.7361  0.7677
 1390SOL     OW15894  13.039  12.346   8.559 -0.3619 -0.0339  0.1229
 1390SOL    HW115895  12.964  12.404   8.542  0.7964  0.9675 -1.9614
 1390SOL    HW215896  13.042  12.288   8.483  0.0005 -1.1940  1.0003
 1391SOL     OW15897   9.788   4.081  13.312  0.1519 -0.4398  0.0236
 1391SOL    HW115898   9.795   4.157  13.370  1.5469  0.1406 -0.8691
 1391SOL    HW215899   9.837   4.012  13.358 -0.8858 -0.7487  0.7038
 1392SOL     OW15900   1.031   6.681   5.797  0.1979 -0.5747 -0.0304
 1392SOL    HW115901   1.096   6.749   5.815 -0.7397  0.0523  1.1964
 1392SOL    HW215902   1.054   6.647   5.711  1.6945  0.1378  0.0601
 1393SOL     OW15903  10.822  10.253   9.228 -0.2199  0.0874  0.1141
 1393SOL    HW115904  10.812  10.247   9.133  1.9205  2.9683 -0.4244
 1393SOL    HW215905  10.778  10.335   9.252  0.5320  0.1463  1.3805
 1394SOL     OW15906   0.338  11.761   4.852  0.3067 -0.3076  0.2205
 1394SOL    HW115907   0.247  11.769   4.879 -0.0224  3.0090 -1.3994
 1394SOL    HW215908   0.388  11.800   4.923  0.3079 -0.5222  0.3374
 1395SOL     OW15909   8.474  12.738   6.973 -0.3782 -0.4990  0.0855
 1395SOL    HW115910   8.570  12.738   6.975 -0.3844 -0.0975  0.5548
 1395SOL    HW215911   8.450  12.826   6.944 -0.6069 -0.5985 -0.0352
 1396SOL     OW15912   7.918   0.052  11.599 -0.1548  0.2619 -0.3375
 1396SOL    HW115913   8.003   0.055  11.555  0.2451  0.2650  0.4323
 1396SOL    HW215914   7.902   0.142  11.626 -0.6429  0.3575 -0.9167
 1397SOL     OW15915   0.475   9.898  11.015  0.2514 -0.1131  0.2772
 1397SOL    HW115916   0.484   9.809  10.981  0.0909  0.7868 -2.3334
 1397SOL    HW215917   0.516   9.953  10.949  2.8067  1.6325  3.1031
 1398SOL     OW15918  12.225   0.944   1.650 -0.0419 -0.7041  0.2877
 1398SOL    HW115919  12.235   0.951   1.745 -0.0818 -2.2135  0.4352
 1398SOL    HW215920  12.229   0.850   1.633 -0.0203 -0.4511 -1.2147
 1399SOL     OW15921   1.010   0.285   6.169  0.1201 -0.1828 -0.1819
 1399SOL    HW115922   1.103   0.283   6.148  0.5014  1.7097  1.0548
 1399SOL    HW215923   0.994   0.375   6.197 -1.9752 -0.6073  0.1326
 1400SOL     OW15924  11.645   9.237   0.747 -0.1246  0.2369 -0.0440
 1400SOL    HW115925  11.722   9.188   0.775  0.0324 -0.9053 -2.2678
 1400SOL    HW215926  11.574   9.202   0.800  0.3711 -0.9099 -0.0954
 1401SOL     OW15927   8.932  13.384  12.585 -0.0729 -0.0298 -0.1350
 1401SOL    HW115928   8.921  13.462  12.639  1.8200 -0.3022  0.7213
 1401SOL    HW215929   8.985  13.414  12.511 -1.5502  0.0493 -1.1995
 1402SOL     OW15930   1.343   3.654   1.121  0.4391 -0.3722 -0.2135
 1402SOL    HW115931   1.252   3.642   1.149  0.5515  2.7481  2.0102
 1402SOL    HW215932   1.338   3.659   1.025 -1.2583 -2.9725 -0.3614
 1403SOL     OW15933  13.273   8.238   0.782 -0.3545 -0.8311 -0.1149
 1403SOL    HW115934  13.182   8.210   0.783 -1.2567  1.8186 -0.5032
 1403SOL    HW215935  13.285   8.278   0.695 -0.4274  3.3576  1.5772
 1404SOL     OW15936   0.381   2.846   4.336 -0.0029  0.1655  0.1117
 1404SOL    HW115937   0.430   2.766   4.321  0.7691  0.7716 -0.7063
 1404SOL    HW215938   0.360   2.843   4.430  1.5060 -0.1886  0.4808
 1405SOL     OW15939  12.047   8.299  12.574  0.2141  0.7713  0.5603
 1405SOL    HW115940  11.980   8.317  12.507  1.4111  0.7837 -0.6853
 1405SOL    HW215941  12.062   8.205  12.568  1.5558  1.0193 -0.4441
 1406SOL     OW15942   0.386   5.152   2.010 -0.1595 -0.1083 -0.6883
 1406SOL    HW115943   0.312   5.127   1.956 -0.2825 -1.7019  0.1361
 1406SOL    HW215944   0.353   5.221   2.067 -0.1611  1.2314 -2.2362
 1407SOL     OW15945   3.256  11.676   1.463  0.3634  0.5322 -0.0264
 1407SOL    HW115946   3.172  11.678   1.417  0.8712 -0.3049 -1.0234
 1407SOL    HW215947   3.281  11.584   1.463  0.7433  0.6159  1.2878
 1408SOL     OW15948   8.887   5.305   0.658  0.3137 -0.3777  0.0775
 1408SOL    HW115949   8.894   5.395   0.624  2.5113  0.1182  1.6354
 1408SOL    HW215950   8.962   5.260   0.620  0.6208 -0.8549  1.2181
 1409SOL     OW15951  12.263  12.917   7.350 -0.2873 -0.0308 -0.1354
 1409SOL    HW115952  12.180  12.893   7.309 -0.7906  1.2856  0.0951
 1409SOL    HW215953  12.255  13.010   7.369  1.4721  0.2670 -0.6434
 1410SOL     OW15954  12.574   7.881   6.391  0.2841  0.1309 -0.4455
 1410SOL    HW115955  12.570   7.977   6.396 -1.6796  0.0698 -0.0475
 1410SOL    HW215956  12.534   7.860   6.307  0.5739 -0.3667 -0.4620
 1411SOL     OW15957   4.117  12.372   6.508  0.2357 -0.3481 -0.6985
 1411SOL    HW115958   4.182  12.305   6.488  0.9250  0.4484 -1.1493
 1411SOL    HW215959   4.121  12.432   6.434 -0.7278 -0.0664 -0.5334
 1412SOL     OW15960   4.486   7.178   4.815 -0.1041 -0.1231  0.1423
 1412SOL    HW115961   4.508   7.160   4.906  1.6335  0.3443 -0.1519
 1412SOL    HW215962   4.396   7.146   4.805 -0.6667  0.6630  2.2546
 1413SOL     OW15963   1.826   3.279   1.362  0.1709 -0.1338  0.5423
 1413SOL    HW115964   1.763   3.348   1.383 -0.1899  0.0045 -0.9278
 1413SOL    HW215965   1.821   3.269   1.267 -1.7680 -4.0248  0.8305
 1414SOL     OW15966   5.426  10.635   3.946  0.1257 -0.0125 -0.0745
 1414SOL    HW115967   5.430  10.633   4.042 -0.3650 -0.5035 -0.0594
 1414SOL    HW215968   5.429  10.728   3.924 -1.0836  0.1787  0.4801
 1415SOL     OW15969   2.865   9.269   6.117  0.1663  0.0661 -0.2133
 1415SOL    HW115970   2.866   9.244   6.025  1.0116 -2.8181  0.4611
 1415SOL    HW215971   2.955   9.294   6.137  0.2041 -0.2703  0.0441
 1416SOL     OW15972   6.929  12.143  10.704 -0.2203  0.1951  0.7173
 1416SOL    HW115973   6.931  12.054  10.737 -1.0109 -0.1239 -0.0473
 1416SOL    HW215974   6.837  12.158  10.680  0.4262 -0.0198 -2.3310
 1417SOL     OW15975   5.208   2.382   7.295  0.1327  0.2980 -0.3062
 1417SOL    HW115976   5.297   2.419   7.295  0.5460 -0.6507  0.1593
 1417SOL    HW215977   5.159   2.438   7.355 -0.0594  1.8449 -1.8178
 1418SOL     OW15978   2.538  11.841   7.205  0.2342 -0.4089  0.3995
 1418SOL    HW115979   2.597  11.766   7.198 -0.7989 -1.1058 -1.1979
 1418SOL    HW215980   2.451  11.803   7.214 -0.3429  0.5799 -0.7411
 1419SOL     OW15981   8.293   6.779   9.220  0.5025 -0.2438  0.3025
 1419SOL    HW115982   8.276   6.719   9.147  1.7360 -2.8348  1.9964
 1419SOL    HW215983   8.388   6.782   9.226  0.4214 -0.4487  2.0542
 1420SOL     OW15984  10.445   7.237   7.744  0.2491 -0.2702  0.1297
 1420SOL    HW115985  10.390   7.315   7.745  1.2339  0.4403  1.2206
 1420SOL    HW215986  10.504   7.250   7.669  0.1846 -0.1327  0.1029
 1421SOL     OW15987   0.282   2.875   1.233  0.2014 -0.3394 -0.6484
 1421SOL    HW115988   0.296   2.787   1.268  0.2610 -0.9851 -2.2054
 1421SOL    HW215989   0.200   2.868   1.184  0.0947  0.5281 -0.6075
 1422SOL     OW15990   5.036   0.978  13.428  0.2341  0.4416 -0.2590
 1422SOL    HW115991   5.086   0.938  13.499 -1.2995 -0.8535  0.1453
 1422SOL    HW215992   4.961   1.018  13.471 -1.1049 -0.9843 -1.1797
 1423SOL     OW15993   4.616  10.103   0.639 -0.4365 -0.1380 -0.3213
 1423SOL    HW115994   4.633  10.147   0.556 -0.5271  0.8464  0.1637
 1423SOL    HW215995   4.702  10.091   0.678 -0.4239 -0.2537 -0.3839
 1424SOL     OW15996   0.239   3.691   9.690 -0.3671 -0.2268  0.1164
 1424SOL    HW115997   0.223   3.781   9.661 -0.0333 -0.6631 -1.4779
 1424SOL    HW215998   0.170   3.675   9.754 -1.7495  0.4587 -1.1318
 1425SOL     OW15999   3.218   0.932   5.451 -0.1955  0.2031 -0.1665
 1425SOL    HW116000   3.195   1.024   5.460  1.3883  0.7771 -1.4921
 1425SOL    HW216001   3.275   0.914   5.525 -1.2292 -0.0051  0.6102
 1426SOL     OW16002   5.456   7.359   6.104  0.3987  0.1230  0.6793
 1426SOL    HW116003   5.495   7.388   6.021  0.3165  1.8633  1.1987
 1426SOL    HW216004   5.468   7.264   6.104  0.2454  0.0557 -1.3929
 1427SOL     OW16005   2.678  10.245   0.588 -0.1185 -0.0413  0.0949
 1427SOL    HW116006   2.590  10.222   0.618 -0.1231  0.6219  0.6127
 1427SOL    HW216007   2.735  10.183   0.633 -0.3627 -0.8190 -0.6554
 1428SOL     OW16008  13.171   3.627   2.304  0.5031  0.2649 -0.0305
 1428SOL    HW116009  13.106   3.665   2.245  1.6217 -0.0912 -1.5352
 1428SOL    HW216010  13.207   3.702   2.352  0.7525  0.7889 -1.0046
 1429SOL     OW16011   8.836  13.708   0.014 -0.0653  0.3662  0.4151
 1429SOL    HW116012   8.883  13.791   0.011 -0.7334  0.7340 -0.0526
 1429SOL    HW216013   8.744  13.731  -0.002 -0.1284 -0.5669 -0.6759
 1430SOL     OW16014   0.116  10.252   9.432 -0.5607  0.5677  0.3944
 1430SOL    HW116015   0.122  10.324   9.369  0.1241 -0.0922 -0.3173
 1430SOL    HW216016   0.022  10.235   9.440 -0.8439  2.3571  1.5526
 1431SOL     OW16017   5.464   1.942   8.284  0.2136  0.3505  0.4636
 1431SOL    HW116018   5.552   1.938   8.246  0.9153 -2.5775  2.0200
 1431SOL    HW216019   5.413   1.881   8.231 -0.9369  1.9948 -0.3957
 1432SOL     OW16020   2.792   3.019   2.111 -0.1227 -0.4943  0.4487
 1432SOL    HW116021   2.773   3.052   2.199 -0.6796 -2.2600  1.0393
 1432SOL    HW216022   2.870   3.067   2.084 -1.2999  1.8247  0.8933
 1433SOL     OW16023   3.221   6.133   0.954 -0.2905  0.5933 -0.2040
 1433SOL    HW116024   3.233   6.075   1.029 -1.6976 -1.1047 -1.1918
 1433SOL    HW216025   3.247   6.219   0.985 -1.2870  0.0603  2.3886
 1434SOL     OW16026   7.766   3.645  10.766 -0.3321  0.3910  0.3323
 1434SOL    HW116027   7.701   3.580  10.794 -1.4290 -0.1244 -2.9269
 1434SOL    HW216028   7.839   3.593  10.732  0.6529  0.9641  1.4987
 1435SOL     OW16029   2.050  10.947   3.906 -0.0989  0.5751 -0.3694
 1435SOL    HW116030   1.959  10.936   3.931 -0.0229 -0.8685 -0.6096
 1435SOL    HW216031   2.098  10.885   3.961  0.3654 -0.7706 -2.1933
 1436SOL     OW16032  10.619   9.070   9.538  0.1773  0.4406  0.2584
 1436SOL    HW116033  10.661   9.099   9.619  0.0098  0.5775  0.2959
 1436SOL    HW216034  10.581   8.985   9.560  0.7688  0.1301  0.1138
 1437SOL     OW16035  11.355  12.429   9.966 -0.0249  0.0465 -0.4288
 1437SOL    HW116036  11.438  12.425   9.919  1.9182 -0.4340  2.7438
 1437SOL    HW216037  11.343  12.340  10.001 -0.4038  0.7729  1.3971
 1438SOL     OW16038   8.275  10.880   8.867 -0.1716 -0.7033 -0.8621
 1438SOL    HW116039   8.308  10.966   8.840  0.5603 -1.1192 -1.3331
 1438SOL    HW216040   8.354  10.825   8.873 -0.0432 -0.3651  3.4417
 1439SOL     OW16041  10.036   5.589   0.302 -0.4691  0.2680 -0.4780
 1439SOL    HW116042   9.969   5.657   0.292  0.4974  1.1494 -1.1453
 1439SOL    HW216043  10.114   5.627   0.261 -0.1053 -1.5524 -1.5527
 1440SOL     OW16044   7.400   7.625  11.383  0.4548 -0.1052 -0.2000
 1440SOL    HW116045   7.390   7.623  11.478  0.4807  1.4363 -0.1447
 1440SOL    HW216046   7.404   7.533  11.358  1.5877 -0.5355  1.4089
 1441SOL     OW16047   5.237  11.589   2.976 -0.0398 -0.1304  0.5715
 1441SOL    HW116048   5.175  11.569   3.046 -0.6197 -0.4102 -0.0157
 1441SOL    HW216049   5.231  11.684   2.966  1.3635  0.1709  2.1014
 1442SOL     OW16050   8.509   3.441   6.151 -0.8872 -0.0799 -0.3990
 1442SOL    HW116051   8.592   3.416   6.190 -1.4032 -0.4226  0.4889
 1442SOL    HW216052   8.526   3.438   6.056 -0.6632 -2.8608 -0.3476
 1443SOL     OW16053   2.519  13.136  12.171  0.0840 -0.6375 -0.4223
 1443SOL    HW116054   2.485  13.056  12.212 -0.9984 -0.4029 -0.8381
 1443SOL    HW216055   2.602  13.109  12.132 -0.8091 -1.8763 -1.5731
 1444SOL     OW16056  10.177  13.123  11.799  0.5514  0.2156 -0.2289
 1444SOL    HW116057  10.240  13.065  11.842  0.2595  0.3334  0.3576
 1444SOL    HW216058  10.098  13.070  11.790 -0.4190  1.1421  2.2027
 1445SOL     OW16059  12.458  12.486   4.780 -0.1553 -0.1486  0.5839
 1445SOL    HW116060  12.544  12.526   4.771  0.0939 -0.9693 -1.2621
 1445SOL    HW216061  12.474  12.402   4.822 -0.4087  0.7007  2.4814
 1446SOL     OW16062   5.575   0.959   2.975  0.0662 -0.5888 -0.1021
 1446SOL    HW116063   5.588   0.918   2.890  2.3797 -0.4103  0.0915
 1446SOL    HW216064   5.518   1.034   2.958  1.4855  0.1740 -1.7643
 1447SOL     OW16065  12.757   4.628  12.106 -0.3109  0.2083  0.1414
 1447SOL    HW116066  12.716   4.619  12.192  0.0778  0.2268  0.3286
 1447SOL    HW216067  12.842   4.667  12.123 -0.1186 -0.0355 -0.2254
 1448SOL     OW16068   2.082   5.591   5.045 -0.0835 -0.0083  0.2237
 1448SOL    HW116069   2.105   5.500   5.027 -1.3364 -0.0431 -1.4135
 1448SOL    HW216070   1.989   5.597   5.026  0.1310  1.8081 -0.5434
 1449SOL     OW16071  12.443  10.005  13.648 -0.0823  0.0270 -0.1789
 1449SOL    HW116072  12.480   9.928  13.690  0.4285  0.1973 -0.3093
 1449SOL    HW216073  12.434  10.069  13.719 -1.3687 -0.4436  0.1188
 1450SOL     OW16074   2.028   6.251   1.174 -0.0747 -0.3180 -0.5869
 1450SOL    HW116075   2.024   6.169   1.223 -0.4282  0.8379  1.4223
 1450SOL    HW216076   1.970   6.237   1.099 -0.0643 -1.9138 -0.3311
 1451SOL     OW16077   9.489   9.316   2.988  0.0629 -0.3001  0.2034
 1451SOL    HW116078   9.488   9.221   2.980  0.7952 -0.2312 -0.9492
 1451SOL    HW216079   9.565   9.344   2.937  0.8682  0.8004  1.8979
 1452SOL     OW16080  13.412  11.361  11.759 -0.2425  0.2938 -0.7400
 1452SOL    HW116081  13.454  11.389  11.678 -0.7027  0.9743 -0.7536
 1452SOL    HW216082  13.365  11.281  11.735  0.2279  0.0854 -0.9650
 1453SOL     OW16083   8.163   1.460  11.044 -0.0850  0.0627  0.5240
 1453SOL    HW116084   8.198   1.436  11.130  0.1408 -0.8472  0.1823
 1453SOL    HW216085   8.074   1.425  11.045 -0.1918  0.3351  0.5092
 1454SOL     OW16086  11.393   2.389   9.548  0.5969 -0.0951  0.7140
 1454SOL    HW116087  11.333   2.321   9.518 -0.1333  1.1347 -0.7498
 1454SOL    HW216088  11.469   2.341   9.581 -0.5848 -1.6473  1.2992
 1455SOL     OW16089  13.110   8.669   4.954 -0.1469 -0.0362  0.6412
 1455SOL    HW116090  13.088   8.576   4.951  1.2294 -0.4127  1.5891
 1455SOL    HW216091  13.192   8.676   4.907  0.6453  0.3985  2.0301
 1456SOL     OW16092   8.618   2.576   4.446  0.0565  0.0166  0.3827
 1456SOL    HW116093   8.681   2.550   4.513 -1.7979  0.2217  2.2752
 1456SOL    HW216094   8.632   2.670   4.436 -0.9171  0.3472  1.9019
 1457SOL     OW16095  10.764  11.564   3.134  0.2239 -0.2082  0.0449
 1457SOL    HW116096  10.707  11.527   3.066  1.0200 -2.2587  0.4343
 1457SOL    HW216097  10.716  11.548   3.215  1.2130 -1.8032  0.3585
 1458SOL     OW16098   5.820  13.340   7.711 -0.1971 -0.1303  0.3809
 1458SOL    HW116099   5.879  13.283   7.662  1.4387  2.0186 -0.3168
 1458SOL    HW216100   5.733  13.322   7.674  0.4998 -0.9857 -0.9352
 1459SOL     OW16101   1.357   8.654  11.960 -0.3855  0.4638 -0.0787
 1459SOL    HW116102   1.396   8.646  11.873  1.8331  4.1113  0.3975
 1459SOL    HW216103   1.270   8.691  11.945 -0.6970 -0.5056 -0.7632
 1460SOL     OW16104   8.081   7.554   9.755  0.4060  0.0765 -0.4798
 1460SOL    HW116105   8.077   7.643   9.791 -0.9889 -0.8217  1.7668
 1460SOL    HW216106   8.004   7.547   9.699  1.2486  0.6595 -1.7810
 1461SOL     OW16107  13.490  13.321   5.578  0.7085 -0.5340 -0.3474
 1461SOL    HW116108  13.447  13.275   5.650  0.1159 -1.6473 -1.3801
 1461SOL    HW216109  13.457  13.411   5.584  0.8263 -0.5586  0.8739
 1462SOL     OW16110   2.457   0.351   0.082  0.5457  0.1480  0.3765
 1462SOL    HW116111   2.516   0.417   0.120 -0.5989  0.4152  1.7801
 1462SOL    HW216112   2.443   0.289   0.153 -1.3890  0.4568  0.3037
 1463SOL     OW16113   9.768   8.275  10.803 -0.7386 -0.3728 -0.0535
 1463SOL    HW116114   9.760   8.200  10.744 -2.8090 -0.0503 -0.2444
 1463SOL    HW216115   9.840   8.252  10.861  0.9728 -0.9617 -2.2913
 1464SOL     OW16116  10.715  12.560   4.621 -0.0901  0.3448  0.6553
 1464SOL    HW116117  10.745  12.531   4.707  1.8055 -0.6846 -0.3037
 1464SOL    HW216118  10.708  12.480   4.570 -1.9267  0.8605  0.0185
 1465SOL     OW16119   9.474   5.200   0.992 -0.4893 -0.6436 -0.3461
 1465SOL    HW116120   9.556   5.174   0.950  0.0385 -0.4365  0.5270
 1465SOL    HW216121   9.431   5.117   1.012  0.5827 -0.8635  1.2430
 1466SOL     OW16122   1.807   1.822   9.059 -0.2992 -0.3093 -0.1561
 1466SOL    HW116123   1.793   1.890   8.992  2.6072 -1.3428 -2.0125
 1466SOL    HW216124   1.773   1.861   9.140 -0.7130  2.4687 -1.5315
 1467SOL     OW16125   5.068   9.600   7.504 -0.3524 -0.4874 -0.3273
 1467SOL    HW116126   4.985   9.631   7.468 -0.0468 -0.3828 -0.9553
 1467SOL    HW216127   5.103   9.541   7.438  0.8891  0.8007 -0.8818
 1468SOL     OW16128   2.064   9.326   4.008  0.1020 -0.7547  0.3220
 1468SOL    HW116129   2.058   9.329   4.103 -1.4437  0.0817  0.2336
 1468SOL    HW216130   2.157   9.334   3.989  0.3043  0.7248  1.7306
 1469SOL     OW16131  12.078   2.225  10.914  0.1717 -0.4564  0.0638
 1469SOL    HW116132  12.091   2.138  10.951  1.6511  0.5570  2.1571
 1469SOL    HW216133  11.989   2.249  10.938  0.0544 -1.0700  0.2503
 1470SOL     OW16134   6.249   1.389   8.487 -0.3029  0.1701  0.0630
 1470SOL    HW116135   6.265   1.474   8.448 -1.6471  1.0832  1.4057
 1470SOL    HW216136   6.280   1.398   8.577  0.0423 -0.9493  0.0752
 1471SOL     OW16137   8.322  13.352   4.917  0.3397 -0.1999 -0.1243
 1471SOL    HW116138   8.295  13.326   5.005 -0.3386  0.6486 -0.0673
 1471SOL    HW216139   8.409  13.314   4.906  0.0084 -1.1799  0.5153
 1472SOL     OW16140   1.933   5.005   6.732 -0.1235 -0.2069 -0.0044
 1472SOL    HW116141   1.918   5.077   6.672  0.7923  0.4793  0.5769
 1472SOL    HW216142   1.895   4.929   6.687 -0.6271  0.5210 -0.8527
 1473SOL     OW16143   7.526   9.589   3.092 -0.6758  0.4080  0.1393
 1473SOL    HW116144   7.523   9.542   3.008  1.7347 -0.9476  0.7107
 1473SOL    HW216145   7.452   9.555   3.141 -0.4944 -0.8756 -0.4395
 1474SOL     OW16146  11.018   0.189   5.331 -0.2042 -0.5234 -0.3582
 1474SOL    HW116147  11.037   0.234   5.249 -0.0700 -2.9446 -1.7595
 1474SOL    HW216148  11.086   0.219   5.392  0.4696  0.3571 -1.5184
 1475SOL     OW16149   3.078   5.139  10.811 -0.2151 -0.0060  0.3662
 1475SOL    HW116150   3.030   5.218  10.838 -0.7461  0.0268 -0.6226
 1475SOL    HW216151   3.019   5.095  10.749  1.0038  0.0203 -0.8741
 1476SOL     OW16152   0.412   4.443  13.174  0.1117 -0.2210 -0.2194
 1476SOL    HW116153   0.467   4.365  13.168  1.9994  0.7739  2.2173
 1476SOL    HW216154   0.471   4.516  13.158 -1.2581  0.8018 -0.8266
 1477SOL     OW16155   1.748   7.617  13.397 -0.2631  0.2918 -0.4103
 1477SOL    HW116156   1.840   7.592  13.406  0.3093  1.9023 -1.4603
 1477SOL    HW216157   1.736   7.688  13.461 -0.4672  0.8469 -1.0549
 1478SOL     OW16158   1.284   6.350   1.650  0.3737 -0.1381 -0.3539
 1478SOL    HW116159   1.292   6.424   1.710  1.6809 -1.4110  1.1360
 1478SOL    HW216160   1.366   6.302   1.659 -0.5720 -1.9988 -0.9464
 1479SOL     OW16161   9.413   0.765   8.163  0.0877  0.0100 -0.4707
 1479SOL    HW116162   9.400   0.737   8.253 -2.0247  0.2836 -0.6180
 1479SOL    HW216163   9.390   0.688   8.110 -0.3819  0.3602 -0.7864
 1480SOL     OW16164   1.025  13.152   9.772  0.1218 -0.0675  0.6211
 1480SOL    HW116165   0.978  13.071   9.793  0.6088 -0.8509 -1.0856
 1480SOL    HW216166   1.117  13.131   9.789  0.1672  0.3971  0.9483
 1481SOL     OW16167  13.294   4.684  12.976  0.5550 -0.0638 -0.1059
 1481SOL    HW116168  13.261   4.756  13.029  0.1861  0.1088 -0.5763
 1481SOL    HW216169  13.357   4.724  12.916 -0.4810  0.0606 -1.1400
 1482SOL     OW16170  10.139   4.261   1.182 -0.0573  0.4640 -0.3113
 1482SOL    HW116171  10.176   4.328   1.125 -0.5921  1.5159  0.5369
 1482SOL    HW216172  10.082   4.309   1.242 -1.5008 -0.9086 -0.5055
 1483SOL     OW16173   1.839   8.462   9.231  0.1488  0.3785  0.4415
 1483SOL    HW116174   1.914   8.483   9.287  0.7351 -1.5360  0.4590
 1483SOL    HW216175   1.811   8.376   9.261 -0.6446  0.0910 -1.0448
 1484SOL     OW16176   3.437   0.098   2.082 -0.4910 -0.5355 -0.0343
 1484SOL    HW116177   3.439   0.022   2.140 -1.0691  0.3787  1.2353
 1484SOL    HW216178   3.401   0.169   2.136  3.0079  1.5339 -0.0755
 1485SOL     OW16179   9.959   2.213  10.522  0.4274  0.1241 -0.0059
 1485SOL    HW116180   9.978   2.172  10.438  0.2380 -1.5343  0.7321
 1485SOL    HW216181   9.895   2.282  10.501  1.5210  0.7666 -1.4045
 1486SOL     OW16182  11.802  10.591   3.111 -0.0014  0.1736 -0.0034
 1486SOL    HW116183  11.836  10.501   3.114 -0.7062 -0.3702 -3.4699
 1486SOL    HW216184  11.712  10.581   3.079  0.3798  2.1408 -1.8855
 1487SOL     OW16185   5.261   3.835   6.041 -0.2731  0.4626 -0.4901
 1487SOL    HW116186   5.189   3.810   6.098  0.1823  0.2469  0.0035
 1487SOL    HW216187   5.289   3.921   6.074 -1.1053  1.1207 -1.4683
 1488SOL     OW16188   8.650  12.649   1.343 -0.1031  0.4609  0.2737
 1488SOL    HW116189   8.567  12.693   1.362  1.0259  1.8107  2.6464
 1488SOL    HW216190   8.672  12.605   1.425  1.7218  0.5291 -0.1422
 1489SOL     OW16191  12.331  11.160   3.656  0.0376 -0.3957  0.8050
 1489SOL    HW116192  12.413  11.208   3.651  0.6363 -1.4664 -0.6546
 1489SOL    HW216193  12.272  11.208   3.598 -0.8544  1.1592  2.9037
 1490SOL     OW16194  10.946  10.877   8.396 -0.3722  0.8578  0.2228
 1490SOL    HW116195  10.922  10.793   8.358 -0.3955  1.6911 -1.7129
 1490SOL    HW216196  10.867  10.931   8.388  0.5154  2.0084 -1.4810
 1491SOL     OW16197  13.023  11.002   4.582 -0.0198  0.0109 -0.0173
 1491SOL    HW116198  13.083  10.933   4.610  0.6383  1.2666  1.8489
 1491SOL    HW216199  12.946  10.991   4.639  0.0044  0.6468  0.1509
 1492SOL     OW16200   5.445   9.550   2.093  0.1252 -0.7416 -0.3525
 1492SOL    HW116201   5.394   9.632   2.097 -0.2590 -1.0318  0.8739
 1492SOL    HW216202   5.455   9.534   1.999 -0.7430  0.1314 -0.6161
 1493SOL     OW16203   9.796   9.632   4.793 -0.4512  0.2721 -0.7183
 1493SOL    HW116204   9.825   9.554   4.840  0.9230  0.1565 -1.6858
 1493SOL    HW216205   9.763   9.598   4.710 -1.8516  0.5655 -0.3074
 1494SOL     OW16206   1.538   2.534   4.647 -0.2492  0.1275  0.2643
 1494SOL    HW116207   1.532   2.629   4.637  1.5746  0.3201  0.6971
 1494SOL    HW216208   1.611   2.521   4.707  0.9992 -1.6108 -1.5319
 1495SOL     OW16209  12.534   2.615  12.024  0.0453  0.1376  0.3910
 1495SOL    HW116210  12.512   2.522  12.033 -1.9310  0.5873  0.5243
 1495SOL    HW216211  12.462   2.652  11.973  0.1051  1.8616  1.4813
 1496SOL     OW16212   1.920  11.633  11.179  0.0339  0.0366  0.2492
 1496SOL    HW116213   1.853  11.591  11.125 -0.8588  0.6913  0.8035
 1496SOL    HW216214   1.953  11.705  11.125 -0.7767  0.6219  0.5037
 1497SOL     OW16215   0.622   5.600   3.987  0.3260 -0.2444 -0.0892
 1497SOL    HW116216   0.692   5.658   3.958  0.4736 -0.5534 -0.3584
 1497SOL    HW216217   0.562   5.596   3.912  0.5727 -0.8344 -0.2622
 1498SOL     OW16218   2.764  12.669   3.411 -0.2765  0.3036  0.0265
 1498SOL    HW116219   2.782  12.611   3.485 -0.8001  0.8402  0.5846
 1498SOL    HW216220   2.849  12.680   3.368 -0.1782 -0.8997 -0.1164
 1499SOL     OW16221  10.739   1.778   9.251 -0.2422 -0.3863  0.2702
 1499SOL    HW116222  10.793   1.730   9.315  2.2505  0.0995 -1.3024
 1499SOL    HW216223  10.792   1.778   9.171 -2.2091  1.0407 -1.1346
 1500SOL     OW16224   3.924  12.273   2.331 -0.3015 -0.3255 -0.2787
 1500SOL    HW116225   3.931  12.221   2.411 -0.8560  1.7462  1.2313
 1500SOL    HW216226   3.983  12.231   2.269 -0.5527 -2.5538  0.8944
 1501SOL     OW16227   2.326   4.949   8.849 -0.1195  0.4317 -0.4492
 1501SOL    HW116228   2.330   4.957   8.944  0.8462 -0.9479 -0.3439
 1501SOL    HW216229   2.342   4.857   8.832  1.0612  0.8896 -2.0250
 1502SOL     OW16230  11.634  11.424   5.703 -0.3168 -0.4000 -0.3635
 1502SOL    HW116231  11.541  11.400   5.707 -1.1596  2.6280  0.5349
 1502SOL    HW216232  11.661  11.433   5.794  0.0391  1.4768 -0.6195
 1503SOL     OW16233  13.739   0.988  11.304 -0.3483  0.0583  0.0721
 1503SOL    HW116234  13.791   1.056  11.262 -0.1389  0.7696  1.3963
 1503SOL    HW216235  13.653   0.995  11.264 -0.7448  2.1036  1.1246
 1504SOL     OW16236   7.795   0.098  12.087 -0.3695  0.2597 -0.1548
 1504SOL    HW116237   7.734   0.161  12.050 -0.7095  0.3673  0.5673
 1504SOL    HW216238   7.868   0.096  12.025 -0.8614  0.5272 -0.7507
 1505SOL     OW16239   1.596   7.198   1.632 -0.1994  0.3192 -0.2418
 1505SOL    HW116240   1.623   7.216   1.722 -0.8428  1.5013 -0.2611
 1505SOL    HW216241   1.541   7.120   1.638 -1.8632  1.5061  0.7189
 1506SOL     OW16242   3.794   2.801   3.422  0.0885  0.1369 -0.1024
 1506SOL    HW116243   3.743   2.840   3.493 -0.6639  0.1619 -0.6458
 1506SOL    HW216244   3.801   2.708   3.445  0.5428  0.2919  0.4047
 1507SOL     OW16245   8.339   9.836   6.478  0.0406 -0.3007 -0.0444
 1507SOL    HW116246   8.353   9.742   6.486  0.6701 -0.0538  4.0873
 1507SOL    HW216247   8.423   9.870   6.447  0.5537 -0.9655  0.5624
 1508SOL     OW16248   9.211   7.259  11.763 -0.4626 -0.0388  0.4915
 1508SOL    HW116249   9.229   7.286  11.854  1.3486 -0.1020  0.1771
 1508SOL    HW216250   9.209   7.341  11.714  1.5986 -0.1670  0.1141
 1509SOL     OW16251  12.739  10.443   8.938 -0.0101  0.1313 -0.3885
 1509SOL    HW116252  12.778  10.355   8.934  1.3139  0.6816 -0.0112
 1509SOL    HW216253  12.653  10.429   8.976 -0.1233 -1.0983 -1.0410
 1510SOL     OW16254  11.142   6.513   8.354  0.0630  0.4404  0.5516
 1510SOL    HW116255  11.148   6.552   8.441 -3.5869 -0.1459  1.2267
 1510SOL    HW216256  11.159   6.420   8.367 -1.7716  0.1337  0.9366
 1511SOL     OW16257   0.854   3.505  12.746 -0.2403 -0.7528  0.2981
 1511SOL    HW116258   0.832   3.462  12.829 -1.1587  0.0095  0.4649
 1511SOL    HW216259   0.822   3.594  12.756  2.0346  0.1412  0.1217
 1512SOL     OW16260   4.695   6.723  13.177  0.0073  0.4907 -0.2189
 1512SOL    HW116261   4.782   6.739  13.139  0.5944 -2.0666 -0.1535
 1512SOL    HW216262   4.710   6.660  13.247 -2.0208 -1.1179 -1.1033
 1513SOL     OW16263  11.771  13.462   5.661 -0.3641  0.2724  0.2834
 1513SOL    HW116264  11.712  13.519   5.710 -0.5412  1.6858 -1.4920
 1513SOL    HW216265  11.759  13.375   5.701 -1.2061  1.1536  2.0505
 1514SOL     OW16266  12.919   6.856  12.848  0.4615  0.4325 -0.1187
 1514SOL    HW116267  12.919   6.952  12.848 -1.5122  0.4990 -1.3083
 1514SOL    HW216268  12.952   6.832  12.762 -0.5902  0.1088 -0.4437
 1515SOL     OW16269   6.288   0.085  10.136 -0.1527 -0.1648  0.3330
 1515SOL    HW116270   6.219   0.083  10.070 -1.0818  0.1525  1.2648
 1515SOL    HW216271   6.244   0.114  10.216  0.2834 -3.2981  1.8532
 1516SOL     OW16272   5.031   8.969   2.228  0.6857 -0.0895  0.0964
 1516SOL    HW116273   5.121   8.935   2.231  1.2176  1.0427 -1.4984
 1516SOL    HW216274   5.042   9.063   2.213 -0.7732  0.0867  0.0048
 1517SOL     OW16275   4.776   4.778  12.783 -0.3435  0.1488 -0.0872
 1517SOL    HW116276   4.801   4.703  12.728  1.9378  1.4844 -0.9993
 1517SOL    HW216277   4.700   4.816  12.739 -0.1301 -0.3199 -0.8839
 1518SOL     OW16278  12.657   8.371   8.304 -0.3849  0.4319 -0.7722
 1518SOL    HW116279  12.729   8.326   8.259  0.5711 -1.0458  1.9826
 1518SOL    HW216280  12.594   8.391   8.235  0.5175 -2.5404 -2.6462
 1519SOL     OW16281   7.754   8.787  10.777 -0.2053 -0.5177 -0.1863
 1519SOL    HW116282   7.675   8.817  10.733 -0.6968 -0.8459  0.4522
 1519SOL    HW216283   7.809   8.865  10.786 -0.1497 -0.4293 -1.2606
 1520SOL     OW16284   7.631   6.775   9.742  0.0851 -0.2282  0.6300
 1520SOL    HW116285   7.671   6.843   9.796  2.2557 -0.4308 -0.6240
 1520SOL    HW216286   7.688   6.699   9.752 -1.2618 -1.2952  0.5326
 1521SOL     OW16287   7.808   4.143   8.428 -0.1079  0.0753  0.4196
 1521SOL    HW116288   7.738   4.194   8.469  0.2284 -0.6041  1.9010
 1521SOL    HW216289   7.763   4.090   8.361 -0.5982  1.5479 -0.4509
 1522SOL     OW16290   8.818  11.514   7.009  0.7339 -0.3720 -0.2980
 1522SOL    HW116291   8.847  11.575   6.940 -0.2373 -0.5960 -0.9243
 1522SOL    HW216292   8.769  11.569   7.070 -1.0296 -0.6416 -1.3941
 1523SOL     OW16293   9.395  13.347  12.967 -0.1617 -0.2658 -0.8056
 1523SOL    HW116294   9.383  13.402  12.889  0.1054  0.0968 -0.5968
 1523SOL    HW216295   9.459  13.282  12.941  0.0902 -0.0120 -0.8294
 1524SOL     OW16296   6.797  12.149   3.862 -0.0967 -0.8976 -0.2898
 1524SOL    HW116297   6.888  12.129   3.882 -0.3106 -0.6661  0.9619
 1524SOL    HW216298   6.799  12.237   3.826  0.1403 -0.7640  0.0468
 1525SOL     OW16299  11.215   6.845   4.317  0.3304  0.0627 -0.4712
 1525SOL    HW116300  11.199   6.909   4.386  3.2873 -0.4167  0.8125
 1525SOL    HW216301  11.171   6.765   4.348  1.7442 -0.1870  0.9983
 1526SOL     OW16302   1.839   9.186   4.998 -0.3747 -0.2390  0.6769
 1526SOL    HW116303   1.902   9.174   4.927 -0.9551  0.3814  0.0347
 1526SOL    HW216304   1.856   9.114   5.058  0.7652 -0.2326  0.3877
 1527SOL     OW16305   2.688   3.293  10.241 -0.0208  0.1096  0.1398
 1527SOL    HW116306   2.737   3.295  10.323 -0.6708 -0.4166  0.5511
 1527SOL    HW216307   2.661   3.383  10.227 -0.0794  0.1693  0.6138
 1528SOL     OW16308   1.319   0.275   4.047  0.4577 -0.0357 -0.0421
 1528SOL    HW116309   1.280   0.357   4.079 -0.6219 -1.5055  2.7905
 1528SOL    HW216310   1.261   0.247   3.977 -0.2282  0.7027  0.2100
 1529SOL     OW16311   7.437   4.427  10.082  0.9350  0.6271  0.5327
 1529SOL    HW116312   7.454   4.368  10.008  0.4532  1.0520  0.0762
 1529SOL    HW216313   7.456   4.374  10.159 -1.2060 -0.7137  0.2061
 1530SOL     OW16314   3.219   2.097   8.878 -0.0156  0.1580  0.0513
 1530SOL    HW116315   3.292   2.142   8.834 -1.1588  0.2907 -1.8202
 1530SOL    HW216316   3.246   2.005   8.882 -0.7214 -0.2841 -2.9988
 1531SOL     OW16317   3.383   3.530   9.114 -0.1413 -0.0826  0.0866
 1531SOL    HW116318   3.455   3.484   9.071 -0.1419 -1.3563  1.3805
 1531SOL    HW216319   3.399   3.623   9.095  0.8797 -0.4656 -1.0477
 1532SOL     OW16320   2.313   4.109   1.155  0.0352  0.0666  0.4222
 1532SOL    HW116321   2.298   4.184   1.211  0.5922  0.1140  0.5132
 1532SOL    HW216322   2.375   4.140   1.089 -0.5907  0.0084 -0.2133
 1533SOL     OW16323   3.198  13.264   9.516  0.3689  0.3749 -0.0535
 1533SOL    HW116324   3.212  13.243   9.424  1.9237  1.1236 -0.0107
 1533SOL    HW216325   3.137  13.197   9.547  2.8570 -2.3721 -0.6512
 1534SOL     OW16326  12.676   7.893  10.883  0.7295  0.0207  0.3372
 1534SOL    HW116327  12.587   7.903  10.848 -0.0978 -1.6069  1.8018
 1534SOL    HW216328  12.727   7.859  10.810 -0.3661 -0.9516 -0.0080
 1535SOL     OW16329   0.110  12.084   4.671  0.7285 -0.0503  0.6697
 1535SOL    HW116330   0.120  12.085   4.766  0.4290 -2.2857  0.7846
 1535SOL    HW216331   0.198  12.102   4.637  0.5370  2.3872  1.2858
 1536SOL     OW16332   8.786   9.627   3.546  0.2029 -0.1247  0.3684
 1536SOL    HW116333   8.868   9.676   3.534  0.3096 -0.4698 -0.4143
 1536SOL    HW216334   8.754   9.613   3.457 -1.6705  1.5610  0.6871
 1537SOL     OW16335   1.777   8.372   7.148  0.3592  0.2002  0.2428
 1537SOL    HW116336   1.819   8.433   7.087 -0.9092 -2.4352 -3.6627
 1537SOL    HW216337   1.846   8.309   7.170 -0.2154 -1.6530 -2.6987
 1538SOL     OW16338   4.692   1.010   0.033  0.3857  0.0756  0.2337
 1538SOL    HW116339   4.712   1.089   0.083  0.7228 -1.1490  2.1091
 1538SOL    HW216340   4.598   1.018   0.014  0.2465  0.5572  1.0686
 1539SOL     OW16341   3.970   3.436  12.295  0.3399 -0.0302 -0.0265
 1539SOL    HW116342   3.966   3.482  12.378  0.1987 -0.2433  0.0883
 1539SOL    HW216343   4.041   3.477  12.247  1.4699 -0.9320  0.8168
 1540SOL     OW16344   3.688  10.916   1.535  0.1940 -0.0231  0.1192
 1540SOL    HW116345   3.764  10.915   1.476  0.8220 -0.4980  0.9137
 1540SOL    HW216346   3.724  10.945   1.619 -0.7456  0.9533  0.2150
 1541SOL     OW16347   6.419  12.738   2.087  0.0833 -0.0926 -0.1207
 1541SOL    HW116348   6.466  12.669   2.042  0.5198  1.3562 -2.0346
 1541SOL    HW216349   6.400  12.803   2.019 -2.3203  0.6350  1.1062
 1542SOL     OW16350  11.623  13.353   6.752  0.5064 -0.4556  0.3587
 1542SOL    HW116351  11.567  13.372   6.677  1.3851  1.1402  0.0586
 1542SOL    HW216352  11.708  13.333   6.714  0.7167 -0.5902  0.8921
 1543SOL     OW16353   3.370   8.329   7.509  0.1076 -0.6075 -0.1221
 1543SOL    HW116354   3.313   8.381   7.453 -0.1411 -0.2227  0.4737
 1543SOL    HW216355   3.387   8.385   7.585  1.7660 -0.4743 -0.5401
 1544SOL     OW16356  10.235   4.391   3.862 -0.0502 -0.4827 -0.3561
 1544SOL    HW116357  10.177   4.465   3.881 -0.8320 -1.0333 -0.5306
 1544SOL    HW216358  10.310   4.404   3.920  0.5516  1.2490 -1.4452
 1545SOL     OW16359   6.033  10.709   3.629  0.6010 -0.5636 -0.0341
 1545SOL    HW116360   6.028  10.615   3.648  1.1877 -0.5936  0.0110
 1545SOL    HW216361   6.104  10.741   3.686 -0.4055  0.1494  0.8712
 1546SOL     OW16362   6.402   2.415   8.781  0.4319 -0.8209  0.4114
 1546SOL    HW116363   6.467   2.465   8.830  0.2164  0.3428 -0.4377
 1546SOL    HW216364   6.338   2.387   8.846  0.6847 -0.1905  0.9443
 1547SOL     OW16365   8.987  12.492  12.689  0.0628 -0.2882  0.2865
 1547SOL    HW116366   9.036  12.551  12.746 -1.4144  1.5132 -0.2317
 1547SOL    HW216367   8.967  12.544  12.612  0.7769 -2.2349 -1.3182
 1548SOL     OW16368   2.888  12.654   1.104 -0.0281  0.4185 -0.1885
 1548SOL    HW116369   2.803  12.639   1.145 -0.3265 -0.2857 -1.0345
 1548SOL    HW216370   2.952  12.622   1.167 -0.4986 -1.0379 -0.4315
 1549SOL     OW16371   8.707   7.140  10.817 -0.1299  0.3941  0.2251
 1549SOL    HW116372   8.743   7.097  10.895  0.1435 -1.6188 -0.9565
 1549SOL    HW216373   8.625   7.180  10.848 -0.7210 -1.5197  1.2740
 1550SOL     OW16374   7.587  12.131  12.167 -0.1816 -0.1420 -0.4957
 1550SOL    HW116375   7.518  12.119  12.231 -0.3221 -0.2591 -0.6671
 1550SOL    HW216376   7.578  12.056  12.108  0.7123 -0.7003  0.0439
 1551SOL     OW16377   7.557   3.177  11.479 -0.5264 -0.2501  0.1411
 1551SOL    HW116378   7.650   3.159  11.466 -0.4794  0.6538 -0.9012
 1551SOL    HW216379   7.514   3.092  11.467  0.1672 -0.7044  0.7941
 1552SOL     OW16380   7.721  11.216  13.478 -0.6434 -0.7024 -0.2787
 1552SOL    HW116381   7.634  11.199  13.442 -1.0022  1.5079 -0.6082
 1552SOL    HW216382   7.764  11.270  13.413  0.9369 -1.5783 -0.0126
 1553SOL     OW16383   9.862  10.292   0.431  0.1554  0.4161  0.4479
 1553SOL    HW116384   9.945  10.333   0.406 -0.6389  1.2504 -0.9262
 1553SOL    HW216385   9.810  10.364   0.468 -0.0805 -0.0311  0.9968
 1554SOL     OW16386   9.677   3.278   8.107 -0.3215  0.0259 -0.3710
 1554SOL    HW116387   9.667   3.205   8.046 -0.4039 -0.3808  0.1270
 1554SOL    HW216388   9.771   3.292   8.114 -0.3317  0.4440 -1.0275
 1555SOL     OW16389   0.699  12.571   2.642 -0.2317  0.0753  0.0761
 1555SOL    HW116390   0.713  12.552   2.734 -1.9259 -0.6631  0.2193
 1555SOL    HW216391   0.622  12.520   2.618 -2.3198  3.2878 -0.7170
 1556SOL     OW16392   3.481   4.883   8.655  0.0252  0.1441 -0.1392
 1556SOL    HW116393   3.431   4.849   8.729  1.0074  0.1392  0.5508
 1556SOL    HW216394   3.426   4.866   8.578 -0.6254 -0.6490  0.4833
 1557SOL     OW16395   7.182  13.699   7.026  0.1760  0.0973 -0.6867
 1557SOL    HW116396   7.150  13.768   6.968  1.4831  0.2350 -1.2957
 1557SOL    HW216397   7.119  13.695   7.097 -0.0067  1.8192 -0.7236
 1558SOL     OW16398   9.123  10.819   7.922 -0.1473  0.1006  0.1557
 1558SOL    HW116399   9.042  10.846   7.879 -0.7510 -1.0897  0.5029
 1558SOL    HW216400   9.190  10.875   7.883 -1.0642  0.8419 -0.4212
 1559SOL     OW16401  11.012   5.317   3.800  0.2599  0.4837  0.0436
 1559SOL    HW116402  10.935   5.328   3.743 -0.4547 -0.0205  0.8938
 1559SOL    HW216403  11.080   5.284   3.741 -0.0247  1.3623 -0.8173
 1560SOL     OW16404   8.985   9.717  10.696  0.6068  0.1741 -0.0665
 1560SOL    HW116405   9.062   9.751  10.650  1.0989 -0.0012  0.6177
 1560SOL    HW216406   8.954   9.645  10.641  2.4768 -1.4770  0.9278
 1561SOL     OW16407   8.289   1.257  11.274  0.3658  0.5326 -0.1654
 1561SOL    HW116408   8.288   1.334  11.331  1.0550 -0.7645  1.6721
 1561SOL    HW216409   8.380   1.251  11.244  0.0573  1.0744 -1.2948
 1562SOL     OW16410   8.338   9.403  11.582  0.3511  0.5925  0.5987
 1562SOL    HW116411   8.312   9.315  11.609  0.3431 -0.2557 -1.9592
 1562SOL    HW216412   8.427   9.414  11.617 -0.0476  0.0130  1.8324
 1563SOL     OW16413   2.311   1.390  10.312 -0.2382 -0.2960 -0.0680
 1563SOL    HW116414   2.311   1.483  10.292 -1.3515 -0.3357 -0.3536
 1563SOL    HW216415   2.345   1.385  10.401 -1.6878  0.5688  0.5833
 1564SOL     OW16416  12.182  13.275   1.131 -0.1771  0.0408  0.2417
 1564SOL    HW116417  12.194  13.180   1.128 -1.6099 -0.1410 -1.9800
 1564SOL    HW216418  12.165  13.294   1.223  0.6481 -1.7699  0.8173
 1565SOL     OW16419   3.333   9.816   6.455  0.0475  0.0668 -0.7279
 1565SOL    HW116420   3.287   9.831   6.372  0.2691 -0.9788 -1.0609
 1565SOL    HW216421   3.351   9.722   6.455  1.6093  0.3393 -0.3076
 1566SOL     OW16422  12.830  10.661  12.072  0.2058 -0.3591 -0.0490
 1566SOL    HW116423  12.799  10.713  12.146 -1.6560  0.4754 -1.3221
 1566SOL    HW216424  12.787  10.700  11.996  2.1818 -1.0517 -1.6285
 1567SOL     OW16425   6.481  10.386   9.096  0.1394  0.3035  0.1448
 1567SOL    HW116426   6.395  10.378   9.054 -0.5372  0.9107  1.3467
 1567SOL    HW216427   6.542  10.400   9.024 -0.8514  0.4440 -0.6907
 1568SOL     OW16428  10.609  10.186   8.737  0.0180 -0.0666  0.0332
 1568SOL    HW116429  10.543  10.132   8.780 -1.2190  1.4671  0.1144
 1568SOL    HW216430  10.561  10.235   8.671  1.2214  0.4971 -0.4532
 1569SOL     OW16431   1.997   9.815  13.329 -0.3645 -0.0587 -1.0769
 1569SOL    HW116432   1.945   9.755  13.276 -3.0993  0.7245  0.5165
 1569SOL    HW216433   2.039   9.759  13.394 -1.2063 -0.4774 -0.8846
 1570SOL     OW16434   2.261   3.123   3.168  0.0573  0.1682 -0.6930
 1570SOL    HW116435   2.179   3.119   3.216  0.6391  0.6881  0.3699
 1570SOL    HW216436   2.286   3.215   3.169  1.3089 -0.1430  0.1601
 1571SOL     OW16437   7.327   2.291   8.921 -0.2106  0.5805 -0.6537
 1571SOL    HW116438   7.335   2.380   8.956  1.5208  0.8064 -1.4903
 1571SOL    HW216439   7.278   2.302   8.840 -0.6395  0.6613 -0.3845
 1572SOL     OW16440   6.965   7.353  11.282  0.0947  0.1545 -0.1964
 1572SOL    HW116441   7.016   7.433  11.274  0.3929  0.0164  0.3059
 1572SOL    HW216442   7.029   7.283  11.283 -0.1089 -0.0281  0.3092
 1573SOL     OW16443   2.094   3.942  11.542 -1.0914  0.6307  0.3129
 1573SOL    HW116444   2.176   3.893  11.539 -1.0088  0.8024 -0.3725
 1573SOL    HW216445   2.037   3.898  11.479 -1.3801  0.7786  0.4666
 1574SOL     OW16446   3.973   6.986  11.496  0.3831  0.0882 -0.3119
 1574SOL    HW116447   3.915   6.990  11.572  1.0804  0.1882  0.2311
 1574SOL    HW216448   4.036   7.056  11.511  0.6858 -0.0681 -0.8509
 1575SOL     OW16449   1.738   3.357  10.666 -0.1148  0.0405 -0.0738
 1575SOL    HW116450   1.664   3.345  10.727  2.0955  0.2840  2.8873
 1575SOL    HW216451   1.764   3.268  10.643 -0.1699 -0.1051  0.4043
 1576SOL     OW16452   3.675   1.814   3.764  0.1615 -0.6761 -0.0312
 1576SOL    HW116453   3.690   1.878   3.695  0.6933 -1.8448 -1.0455
 1576SOL    HW216454   3.741   1.834   3.830  0.6192 -0.4540 -0.5434
 1577SOL     OW16455   1.326   3.470  12.772  0.4208  0.3781  0.8595
 1577SOL    HW116456   1.348   3.410  12.701 -0.6984 -0.2860  1.0446
 1577SOL    HW216457   1.278   3.416  12.835 -0.3335  1.3860  1.1821
 1578SOL     OW16458   7.149   4.396   9.248 -0.3864  0.1585 -0.1632
 1578SOL    HW116459   7.061   4.404   9.285 -0.3041  0.3915 -0.0186
 1578SOL    HW216460   7.135   4.386   9.154 -0.6034 -0.5904 -0.0603
 1579SOL     OW16461   1.114   4.487   6.405  0.1594  0.1225  0.0706
 1579SOL    HW116462   1.065   4.563   6.436  0.4858  0.1998  0.4052
 1579SOL    HW216463   1.124   4.502   6.311 -2.1225 -0.8344 -0.3990
 1580SOL     OW16464   6.574  10.433   4.775 -0.0194  0.2619 -0.0034
 1580SOL    HW116465   6.656  10.384   4.782  0.0038  0.3548  0.4591
 1580SOL    HW216466   6.540  10.411   4.689  0.5819  0.3625 -0.2751
 1581SOL     OW16467   7.850   2.824   9.720  0.0835  0.0008  0.1839
 1581SOL    HW116468   7.825   2.805   9.630 -2.3567 -2.4307  1.2427
 1581SOL    HW216469   7.767   2.834   9.767  1.2594  0.1261  2.3970
 1582SOL     OW16470   3.594   1.883   2.846  0.0136  0.2069  0.1893
 1582SOL    HW116471   3.509   1.882   2.889 -0.5097 -1.4877 -0.7900
 1582SOL    HW216472   3.574   1.890   2.753  0.9047 -0.9239 -0.1045
 1583SOL     OW16473   8.904  10.429   9.623 -0.3260 -0.0304  0.1286
 1583SOL    HW116474   8.886  10.345   9.664  0.6002  0.3029  1.2935
 1583SOL    HW216475   8.955  10.477   9.689 -1.5893  1.7867 -0.1436
 1584SOL     OW16476   3.341  11.892   6.291 -0.5101 -0.5071 -0.2732
 1584SOL    HW116477   3.315  11.919   6.380 -0.0712  0.0414 -0.3035
 1584SOL    HW216478   3.258  11.873   6.247 -0.6616 -2.2632  0.6983
 1585SOL     OW16479  10.733   0.267   3.236  0.0428  0.1924 -0.4172
 1585SOL    HW116480  10.820   0.274   3.196 -0.9138  0.3183 -2.6065
 1585SOL    HW216481  10.718   0.173   3.245  0.1457  0.1548 -0.6338
 1586SOL     OW16482  11.400   7.188   7.908  0.7428 -0.4611  0.1153
 1586SOL    HW116483  11.431   7.106   7.870  2.0770  0.1689 -0.2271
 1586SOL    HW216484  11.468   7.213   7.970 -0.5735 -0.5673  1.6826
 1587SOL     OW16485   9.456   1.822   7.812  0.7448  0.0005 -0.0236
 1587SOL    HW116486   9.518   1.866   7.871  0.1837  1.4777 -0.4754
 1587SOL    HW216487   9.484   1.848   7.724  1.2152 -1.6971 -0.3996
 1588SOL     OW16488   7.616   9.420   7.595 -0.1853  0.1359 -0.3539
 1588SOL    HW116489   7.580   9.501   7.630  0.2135  0.4090 -0.5589
 1588SOL    HW216490   7.543   9.358   7.596  0.0040 -0.1156  1.6984
 1589SOL     OW16491   8.594   2.061   7.674  0.0791 -0.5604  0.2773
 1589SOL    HW116492   8.621   2.024   7.590 -1.1246 -0.5002 -0.1501
 1589SOL    HW216493   8.617   1.993   7.738  0.6221 -0.7809 -0.1424
 1590SOL     OW16494   2.118   8.322   7.364 -0.0971  0.0047  0.0255
 1590SOL    HW116495   2.148   8.264   7.434 -2.1475  0.2445  1.2150
 1590SOL    HW216496   2.126   8.410   7.402 -0.5618  0.1909 -0.3058
 1591SOL     OW16497   9.907   6.504   0.727 -0.4443  0.1594 -0.2812
 1591SOL    HW116498   9.933   6.571   0.664  0.8847  0.5775  0.6614
 1591SOL    HW216499   9.856   6.441   0.676 -1.1592  1.5364 -1.3235
 1592SOL     OW16500   1.382   8.211   6.800 -0.1796  0.0576 -0.2267
 1592SOL    HW116501   1.362   8.118   6.811  0.7384 -0.1200  0.0068
 1592SOL    HW216502   1.296   8.252   6.788 -0.5426 -0.9164 -1.1210
 1593SOL     OW16503  10.603   3.475   1.085 -0.5853 -0.4111 -0.8923
 1593SOL    HW116504  10.544   3.455   1.012 -0.7036 -0.7296 -0.7083
 1593SOL    HW216505  10.682   3.510   1.042 -0.6626 -0.5764 -1.1725
 1594SOL     OW16506   3.340  10.966   9.637 -0.0813  0.6051 -0.0102
 1594SOL    HW116507   3.427  11.000   9.614 -0.3939  1.3010 -0.2008
 1594SOL    HW216508   3.286  11.045   9.649 -0.2911  0.2311  1.6906
 1595SOL     OW16509   9.162   5.633  12.572 -0.0710  0.2360  0.3445
 1595SOL    HW116510   9.196   5.694  12.507  0.1811 -1.9661 -1.7435
 1595SOL    HW216511   9.068   5.629  12.555 -0.0901  0.0518  0.4889
 1596SOL     OW16512   1.803   6.148  13.726 -1.1769 -0.3375  0.4040
 1596SOL    HW116513   1.791   6.053  13.726 -0.5575 -0.4244  0.4061
 1596SOL    HW216514   1.807   6.172  13.819  1.1346 -0.6738  0.4579
 1597SOL     OW16515   1.709   2.291   3.435 -0.4536  0.3345  0.1620
 1597SOL    HW116516   1.782   2.282   3.497 -1.5224  2.7686  1.9623
 1597SOL    HW216517   1.689   2.202   3.408  1.9018 -0.5786  1.1362
 1598SOL     OW16518   8.883  10.239   7.199  0.7228 -0.1728  0.2207
 1598SOL    HW116519   8.945  10.236   7.126 -1.1455 -0.5609 -1.4406
 1598SOL    HW216520   8.857  10.148   7.213  0.2484  0.0223  0.6415
 1599SOL     OW16521   0.961   0.624   2.074  0.2076  0.3620  0.2909
 1599SOL    HW116522   0.964   0.560   2.002 -2.6814  0.1859  0.2072
 1599SOL    HW216523   0.903   0.694   2.042 -1.2591  0.2268  2.4128
 1600SOL     OW16524  13.232   9.724   7.368 -0.1701 -0.0595 -0.1030
 1600SOL    HW116525  13.274   9.646   7.405 -1.0840 -0.3958  0.2756
 1600SOL    HW216526  13.142   9.696   7.352 -0.2564  0.6413 -0.8799
 1601SOL     OW16527   0.864   2.458   6.371  0.2168  0.6853 -0.1279
 1601SOL    HW116528   0.866   2.525   6.303  1.6790  1.9619  1.0802
 1601SOL    HW216529   0.806   2.493   6.439  0.3655  0.3719  0.1714
 1602SOL     OW16530   8.074   4.738   2.524 -0.6516 -0.4157  0.0725
 1602SOL    HW116531   8.165   4.766   2.514  0.4450 -2.5945  2.5805
 1602SOL    HW216532   8.058   4.682   2.448 -0.2671  0.7922 -0.9210
 1603SOL     OW16533   5.612  10.850  10.491  0.0489 -0.1698  0.3373
 1603SOL    HW116534   5.655  10.914  10.435  0.5695  0.1474  1.0754
 1603SOL    HW216535   5.521  10.881  10.497  0.4717  0.9868  1.3248
 1604SOL     OW16536   9.077   2.175   4.890 -0.2813 -0.4810 -0.9595
 1604SOL    HW116537   9.058   2.216   4.975 -0.3820 -2.1830 -0.1186
 1604SOL    HW216538   8.991   2.146   4.858 -0.0257 -1.4783 -0.7578
 1605SOL     OW16539   8.621   9.009   4.505 -0.2451  0.0241 -0.4364
 1605SOL    HW116540   8.565   8.984   4.432  0.1089 -1.6416 -0.1743
 1605SOL    HW216541   8.653   8.926   4.541  1.2753  0.8780  0.2933
 1606SOL     OW16542  13.438   3.609  10.816 -0.2401 -0.0495  0.1354
 1606SOL    HW116543  13.402   3.576  10.898 -0.2354  1.7045  0.8942
 1606SOL    HW216544  13.531   3.583  10.818  0.0898  1.1513  1.3592
 1607SOL     OW16545   4.384  11.802   4.898  0.3129  0.1195 -0.5467
 1607SOL    HW116546   4.462  11.852   4.872  0.9878 -1.4434 -1.7467
 1607SOL    HW216547   4.411  11.753   4.976  0.4351 -0.1654 -0.7658
 1608SOL     OW16548   2.162   5.408   2.227  0.6179 -1.0164  0.0689
 1608SOL    HW116549   2.174   5.351   2.152  2.5745  0.2417 -0.6572
 1608SOL    HW216550   2.070   5.397   2.252  0.5210 -3.1745 -1.0540
 1609SOL     OW16551  10.826  10.825   8.872 -0.3462 -0.6860  0.2041
 1609SOL    HW116552  10.891  10.805   8.804 -2.1011 -1.0699 -1.4368
 1609SOL    HW216553  10.848  10.914   8.900 -0.0495 -0.1926 -1.4533
 1610SOL     OW16554   5.198   1.630   0.757  0.0940 -0.1480 -0.6426
 1610SOL    HW116555   5.232   1.712   0.793 -1.1748 -0.3273  1.0892
 1610SOL    HW216556   5.118   1.656   0.711 -0.2257 -0.3931 -0.2268
 1611SOL     OW16557   0.689   8.787   7.189  0.5347  0.6565 -0.7422
 1611SOL    HW116558   0.722   8.708   7.146  0.5576  0.1921  0.0892
 1611SOL    HW216559   0.603   8.801   7.151 -0.3083 -0.9193  0.4426
 1612SOL     OW16560   3.448   3.965  13.455  0.1574 -0.2529 -0.2254
 1612SOL    HW116561   3.388   3.993  13.525  0.1159 -0.1753 -0.2922
 1612SOL    HW216562   3.521   4.027  13.460 -0.5290  0.6699 -1.2016
 1613SOL     OW16563   0.740   0.117   6.560  0.6648  0.3658  0.2755
 1613SOL    HW116564   0.789   0.194   6.587  0.9668  1.4901 -3.0462
 1613SOL    HW216565   0.806   0.058   6.523 -0.0485  0.4490 -1.2041
 1614SOL     OW16566   2.953   6.464   0.347  0.2602 -0.0959 -0.4774
 1614SOL    HW116567   3.006   6.539   0.319  1.1676 -0.6366 -0.2539
 1614SOL    HW216568   3.005   6.422   0.416  1.3370 -2.7800 -2.7269
 1615SOL     OW16569   8.727   7.812  12.011 -0.1089  0.3996  0.2473
 1615SOL    HW116570   8.799   7.774  11.961 -0.1478  1.7035 -0.8670
 1615SOL    HW216571   8.766   7.888  12.054 -1.1591  2.2791 -1.9120
 1616SOL     OW16572   6.718  13.129  11.455 -0.1191 -0.1613 -0.4442
 1616SOL    HW116573   6.654  13.155  11.389 -0.3096 -1.3564 -0.7566
 1616SOL    HW216574   6.757  13.211  11.485 -2.5756  0.7136  0.5695
 1617SOL     OW16575  11.361   0.976  13.514  0.2480  0.5483  0.0889
 1617SOL    HW116576  11.455   0.977  13.501  0.3203 -2.2662 -0.2114
 1617SOL    HW216577  11.325   1.000  13.428  0.6397  1.4885  0.1685
 1618SOL     OW16578   7.983   3.978   8.557 -0.1002  0.5025  0.3377
 1618SOL    HW116579   8.067   4.024   8.561 -1.4250  3.0878  2.1182
 1618SOL    HW216580   7.929   4.031   8.498 -0.7812 -0.5653 -0.0264
 1619SOL     OW16581   5.540   9.894   0.634 -0.6566 -0.3343  0.5133
 1619SOL    HW116582   5.520   9.946   0.557  0.1539 -2.5217 -1.2811
 1619SOL    HW216583   5.532   9.955   0.707 -0.5792  2.0545 -1.3622
 1620SOL     OW16584   4.826  10.663   6.321 -0.1188  0.3501 -0.3439
 1620SOL    HW116585   4.856  10.589   6.374  1.8359  0.6150 -0.9749
 1620SOL    HW216586   4.822  10.630   6.232 -0.4946  0.6650 -0.4463
 1621SOL     OW16587   0.327   6.809  12.991  0.1508  0.2588 -0.1048
 1621SOL    HW116588   0.297   6.846  12.908 -0.7862  0.9953  0.5349
 1621SOL    HW216589   0.353   6.885  13.043 -1.6836  0.0441  1.1969
 1622SOL     OW16590   7.682   9.888   5.344 -0.5280  0.1684  0.4331
 1622SOL    HW116591   7.598   9.931   5.357  0.2809  1.8314  0.4095
 1622SOL    HW216592   7.725   9.894   5.429 -1.3335 -2.9183  1.2124
 1623SOL     OW16593  10.852   4.125   4.911  0.1006 -0.0906 -0.0700
 1623SOL    HW116594  10.827   4.097   4.823 -0.7736 -1.8395  0.6713
 1623SOL    HW216595  10.937   4.083   4.926  0.0665 -0.1148  0.0575
 1624SOL     OW16596   8.922   2.028  13.539 -0.2569  0.3128 -0.2115
 1624SOL    HW116597   8.867   2.037  13.617  0.2178 -0.1317  0.1755
 1624SOL    HW216598   8.872   2.071  13.470 -1.0124  0.0705  0.1770
 1625SOL     OW16599   6.445   2.518  12.431  0.4397  0.3134 -0.5282
 1625SOL    HW116600   6.418   2.475  12.513  0.1321 -0.4427 -1.0114
 1625SOL    HW216601   6.379   2.586  12.418  0.8487  0.8575  0.1720
 1626SOL     OW16602   3.885   4.080   9.389 -0.3025  0.1135  0.2773
 1626SOL    HW116603   3.929   4.021   9.450  1.8368  2.4700  1.1729
 1626SOL    HW216604   3.895   4.167   9.427 -0.0837  1.5346 -2.7062
 1627SOL     OW16605   8.836   7.504   9.155 -0.2212  0.1290 -0.0635
 1627SOL    HW116606   8.765   7.466   9.206  0.9825 -1.3227  0.6207
 1627SOL    HW216607   8.836   7.597   9.178 -0.3367 -0.3116  1.8559
 1628SOL     OW16608   5.805   0.462   5.887  0.3394 -0.1975  0.0500
 1628SOL    HW116609   5.854   0.479   5.807 -1.5205 -2.4607 -1.7157
 1628SOL    HW216610   5.798   0.366   5.890 -2.6208 -0.0279  0.9998
 1629SOL     OW16611   4.663  10.094  11.738  0.1931 -0.0028 -0.4480
 1629SOL    HW116612   4.615  10.136  11.809  1.2865  0.7655 -0.1443
 1629SOL    HW216613   4.744  10.144  11.730 -0.4014  0.6811 -3.0369
 1630SOL     OW16614  11.128   5.466   7.679  0.6411  0.1793  0.0699
 1630SOL    HW116615  11.122   5.420   7.595  0.8129 -1.6780  1.0231
 1630SOL    HW216616  11.041   5.503   7.692  0.6140  0.4784 -0.9186
 1631SOL     OW16617   9.233  13.696   4.934  0.3082 -0.3436  0.3363
 1631SOL    HW116618   9.293  13.622   4.926  1.2603  0.1580  2.2275
 1631SOL    HW216619   9.190  13.683   5.018  0.9896  1.5648  1.0389
 1632SOL     OW16620  12.580   3.569   2.248  0.1105 -0.0965 -0.1331
 1632SOL    HW116621  12.586   3.482   2.210  1.5565  0.5631 -1.5445
 1632SOL    HW216622  12.521   3.617   2.190 -2.2040 -0.5718  1.6756
 1633SOL     OW16623  12.607   0.428   6.847 -0.0596  0.3009 -0.1757
 1633SOL    HW116624  12.600   0.426   6.752  0.3318  1.2941 -0.2388
 1633SOL    HW216625  12.683   0.485   6.864  0.8963 -1.1631  0.6868
 1634SOL     OW16626   9.669   9.009   6.329  0.0139  0.3290  0.0025
 1634SOL    HW116627   9.711   8.935   6.373  1.7143  1.5454  0.5211
 1634SOL    HW216628   9.675   8.988   6.235 -1.3070 -1.0698  0.1983
 1635SOL     OW16629   9.072   7.113   0.535 -0.2265 -0.0520  0.1055
 1635SOL    HW116630   9.126   7.036   0.555 -1.6361 -0.7056  1.6853
 1635SOL    HW216631   9.023   7.088   0.456  1.2864  0.3225 -0.9947
 1636SOL     OW16632   5.358   9.274  13.270 -0.0674  0.1906 -0.1537
 1636SOL    HW116633   5.336   9.367  13.256 -0.5229 -0.0717 -1.2943
 1636SOL    HW216634   5.274   9.231  13.285  0.2668  0.1788  1.9657
 1637SOL     OW16635   1.357   9.052   7.433 -0.1026  0.0582  0.1584
 1637SOL    HW116636   1.367   8.963   7.468 -1.5828  0.4154  1.6006
 1637SOL    HW216637   1.439   9.069   7.387 -0.2952 -2.5693 -1.3967
 1638SOL     OW16638   8.821   9.388   6.654 -0.3351 -1.0813 -1.1868
 1638SOL    HW116639   8.763   9.325   6.698 -2.1076  0.5580 -1.0279
 1638SOL    HW216640   8.896   9.396   6.713 -1.2983 -1.1325  0.1028
 1639SOL     OW16641  11.807  10.131   5.089 -0.2154  0.3930 -0.4744
 1639SOL    HW116642  11.749  10.055   5.087 -1.1217  0.9816  1.1610
 1639SOL    HW216643  11.893  10.098   5.063 -0.6118 -1.1640  0.1291
 1640SOL     OW16644   2.929   7.325  13.001 -0.8333 -0.5390  0.2571
 1640SOL    HW116645   2.999   7.328  13.067 -0.9894  1.7516  0.4095
 1640SOL    HW216646   2.960   7.262  12.936  0.7612 -0.5543  0.9732
 1641SOL     OW16647   4.934   9.281  10.958  0.0989  0.5312 -0.1181
 1641SOL    HW116648   4.961   9.289  10.866  2.0246  1.6354  0.4709
 1641SOL    HW216649   4.938   9.371  10.992 -1.7973  0.3228  0.7631
 1642SOL     OW16650   2.266   8.707   1.343 -0.4325  0.0445 -0.0318
 1642SOL    HW116651   2.216   8.770   1.393 -1.1880 -1.6812  1.4774
 1642SOL    HW216652   2.346   8.754   1.319 -0.0409  0.9942  2.7681
 1643SOL     OW16653  13.174   8.711   5.656  0.2384  0.2985  0.8435
 1643SOL    HW116654  13.155   8.715   5.563 -1.4280  1.7539  1.2075
 1643SOL    HW216655  13.242   8.643   5.664  0.4423  0.1871 -1.3996
 1644SOL     OW16656  12.888   0.495   6.523 -0.0572 -0.0126  0.3567
 1644SOL    HW116657  12.935   0.566   6.567  1.6984  0.3612 -1.8949
 1644SOL    HW216658  12.922   0.415   6.562  1.6215  0.3019 -0.3659
 1645SOL     OW16659   3.953   9.504   7.261  0.7977 -0.0748 -0.8517
 1645SOL    HW116660   3.868   9.536   7.229 -0.6457 -0.4942  2.2153
 1645SOL    HW216661   3.931   9.435   7.323  3.2006  1.3054  1.7694
 1646SOL     OW16662  12.394  12.389   0.015 -0.8150 -0.3690  0.9516
 1646SOL    HW116663  12.361  12.300   0.028  1.6932 -1.5877 -0.3954
 1646SOL    HW216664  12.331  12.429  -0.046 -0.9472 -1.8882  0.0468
 1647SOL     OW16665   0.459   5.608   0.577 -0.2735 -0.6675 -0.1263
 1647SOL    HW116666   0.536   5.576   0.624  1.2041  0.3711 -1.7199
 1647SOL    HW216667   0.467   5.570   0.490 -2.5480 -1.9294  0.1335
 1648SOL     OW16668  12.740   8.206  11.663 -0.4330 -0.1406 -0.2198
 1648SOL    HW116669  12.812   8.253  11.706 -1.2772  0.2599  0.7926
 1648SOL    HW216670  12.782   8.130  11.623  0.4773 -0.2345  0.8555
 1649SOL     OW16671  13.233   8.522   3.230  0.0736  0.0078 -0.2392
 1649SOL    HW116672  13.209   8.473   3.308 -1.5581  0.0923 -0.6659
 1649SOL    HW216673  13.325   8.498   3.214  0.2150 -0.5477  1.2712
 1650SOL     OW16674   3.678  10.144   9.671 -0.1153 -0.2419 -0.0962
 1650SOL    HW116675   3.700  10.083   9.742  2.3477  0.6956  0.0359
 1650SOL    HW216676   3.650  10.223   9.717 -0.3862 -0.2677 -0.2166
 1651SOL     OW16677  11.883   1.211   2.725  0.3400 -0.4274  0.4039
 1651SOL    HW116678  11.815   1.180   2.666  0.1924  0.0997  0.2875
 1651SOL    HW216679  11.840   1.278   2.778  0.9757  0.5390 -0.2669
 1652SOL     OW16680   6.324  10.219   9.797 -0.2306  0.2662 -0.5611
 1652SOL    HW116681   6.352  10.156   9.863 -2.4095  0.1691  0.3641
 1652SOL    HW216682   6.295  10.166   9.723  1.5775  0.3582 -1.3963
 1653SOL     OW16683   3.637  10.756   2.953  0.0862 -0.4007  0.1557
 1653SOL    HW116684   3.665  10.839   2.991 -2.3547  0.7502 -0.3647
 1653SOL    HW216685   3.714  10.723   2.907  1.3738  1.0977  1.1433
 1654SOL     OW16686   1.586   9.495   6.689 -0.1694 -0.2948 -0.1045
 1654SOL    HW116687   1.560   9.529   6.774  1.9672 -0.6248  0.7205
 1654SOL    HW216688   1.650   9.427   6.708  0.3722 -0.3755 -1.9795
 1655SOL     OW16689   1.101   7.005  11.023 -0.4383 -0.2118  0.5179
 1655SOL    HW116690   1.058   6.949  10.958 -1.2930 -0.2933  1.1340
 1655SOL    HW216691   1.190   6.969  11.031  0.2615  0.8014 -1.7831
 1656SOL     OW16692   6.905  11.740   1.521  0.2235 -0.3518  0.4413
 1656SOL    HW116693   6.869  11.791   1.448  1.0909  0.9155  0.8759
 1656SOL    HW216694   6.831  11.725   1.579 -0.4863 -1.3953 -0.6805
 1657SOL     OW16695   3.293   0.058   3.157  1.0547 -0.2952 -0.4724
 1657SOL    HW116696   3.326   0.046   3.246 -1.4657 -2.1568  0.3152
 1657SOL    HW216697   3.203   0.087   3.168  1.3757  1.8038 -2.5043
 1658SOL     OW16698   0.850   5.511   7.580 -0.3820  0.2032  0.3858
 1658SOL    HW116699   0.847   5.456   7.659  1.6371 -0.2586  0.1962
 1658SOL    HW216700   0.847   5.601   7.614 -0.7998  0.0107  0.8888
 1659SOL     OW16701   5.892   0.673   4.166 -0.0990 -0.4565  0.2764
 1659SOL    HW116702   5.807   0.674   4.210  0.1614  1.6487  0.8178
 1659SOL    HW216703   5.933   0.592   4.196 -1.7072 -1.2866  0.3640
 1660SOL     OW16704   9.030   4.868   8.819 -0.3525  0.0349  0.3989
 1660SOL    HW116705   9.057   4.824   8.739 -2.2764 -1.3423  0.4297
 1660SOL    HW216706   9.014   4.959   8.793 -1.7977 -0.5766 -1.0249
 1661SOL     OW16707  11.042  11.797   9.188  0.1935 -0.6695  0.8126
 1661SOL    HW116708  11.037  11.841   9.103 -0.0784 -2.3605 -0.0930
 1661SOL    HW216709  10.953  11.797   9.221 -0.1618 -2.0927 -0.0518
 1662SOL     OW16710  12.051   5.340   8.191  0.6312  0.3105  0.1512
 1662SOL    HW116711  12.045   5.434   8.173 -0.1433  0.0996 -0.7776
 1662SOL    HW216712  12.140   5.317   8.168  0.3500  0.5178 -1.2427
 1663SOL     OW16713  12.738   6.742   7.850 -0.3546  0.1815  0.1221
 1663SOL    HW116714  12.676   6.676   7.883  2.1126 -2.4282 -0.0631
 1663SOL    HW216715  12.719   6.748   7.756 -0.2406 -0.7030  0.0377
 1664SOL     OW16716   6.660  10.031  10.689  0.2525  1.0947  0.6252
 1664SOL    HW116717   6.598  10.026  10.762 -0.8061 -1.5293 -0.3234
 1664SOL    HW216718   6.619  10.090  10.626 -0.4439  0.7445  0.7491
 1665SOL     OW16719   1.163  12.430   1.350 -0.2076  0.4168 -0.3287
 1665SOL    HW116720   1.077  12.441   1.389 -0.5029 -1.4839 -0.3383
 1665SOL    HW216721   1.150  12.449   1.257 -0.6349  0.0905 -0.3367
 1666SOL     OW16722   1.207   5.657  13.242 -0.3492  0.3422 -0.6412
 1666SOL    HW116723   1.161   5.613  13.314 -0.1321 -2.7348 -2.2159
 1666SOL    HW216724   1.153   5.641  13.165  0.3026  2.0247 -1.5006
 1667SOL     OW16725   7.491   0.623  11.901  0.1121 -0.1799  0.3090
 1667SOL    HW116726   7.506   0.716  11.918 -2.6916  0.3916  0.1628
 1667SOL    HW216727   7.546   0.603  11.825  0.7629  1.3389  0.3502
 1668SOL     OW16728  11.970  11.600  11.076  0.7395  0.4693 -0.1665
 1668SOL    HW116729  12.063  11.576  11.080  0.4125 -0.9960 -0.6784
 1668SOL    HW216730  11.925  11.531  11.125 -0.2265  0.0990 -1.5045
 1669SOL     OW16731   0.401   7.882   9.396  0.0038 -0.1429 -0.4392
 1669SOL    HW116732   0.348   7.955   9.363  0.8425  1.2050  1.0403
 1669SOL    HW216733   0.456   7.921   9.465  0.4399 -2.1927  0.4611
 1670SOL     OW16734   6.348   3.465   9.271 -0.2442 -0.2306  0.1524
 1670SOL    HW116735   6.346   3.515   9.352  1.2680 -0.2205  0.2226
 1670SOL    HW216736   6.313   3.524   9.204  0.4173  0.5100  0.4437
 1671SOL     OW16737   4.156   0.229   0.119  0.3419  0.0545  0.2644
 1671SOL    HW116738   4.242   0.269   0.134  0.0554  0.8975 -0.2597
 1671SOL    HW216739   4.171   0.169   0.046  0.4960  0.1664  0.2021
 1672SOL     OW16740   0.564   6.989   1.529  0.6322  0.3600  0.0062
 1672SOL    HW116741   0.590   7.079   1.549 -0.9066  0.5438  1.3651
 1672SOL    HW216742   0.471   6.986   1.550  0.9526 -1.9467  1.4561
 1673SOL     OW16743  12.632   7.418   7.153 -0.5874 -0.2665 -0.1581
 1673SOL    HW116744  12.643   7.512   7.165  1.3271 -0.7416  3.0896
 1673SOL    HW216745  12.702   7.393   7.092  1.0650  0.0709  1.5063
 1674SOL     OW16746   0.241  11.456   5.323 -0.3987 -0.6186 -0.1160
 1674SOL    HW116747   0.289  11.375   5.341 -1.4429 -0.9757  1.1914
 1674SOL    HW216748   0.153  11.427   5.300 -1.2909  0.1786  2.0664
 1675SOL     OW16749   9.939   2.142  12.806 -0.4460 -0.3339 -0.0501
 1675SOL    HW116750   9.980   2.056  12.818  0.2261  0.0425  0.4168
 1675SOL    HW216751   9.921   2.172  12.894  0.9700  0.7790 -0.1123
 1676SOL     OW16752   7.631  11.251   5.605  0.4205  0.2480 -0.2286
 1676SOL    HW116753   7.710  11.286   5.564  1.3468  0.5870  1.7606
 1676SOL    HW216754   7.644  11.156   5.605 -0.3490  0.0926 -2.1324
 1677SOL     OW16755   1.057   9.408   3.362 -0.0111 -0.2654 -0.5782
 1677SOL    HW116756   1.129   9.429   3.421 -0.4170 -0.2779 -0.0780
 1677SOL    HW216757   1.028   9.494   3.330 -0.6299 -0.1692  0.2355
 1678SOL     OW16758   2.176   1.718   7.999 -0.0388 -0.1177  0.3550
 1678SOL    HW116759   2.102   1.778   8.003  1.1021  1.6183 -2.1356
 1678SOL    HW216760   2.137   1.630   7.998 -2.0993  0.7517 -1.2259
 1679SOL     OW16761   4.807   9.911   9.732 -0.8630  0.4261 -0.1398
 1679SOL    HW116762   4.898   9.918   9.759 -0.2036 -1.8675 -1.4905
 1679SOL    HW216763   4.776  10.001   9.728  1.7094  1.3669 -0.7616
 1680SOL     OW16764   4.045   1.031   5.380  0.3668  0.2216 -0.0500
 1680SOL    HW116765   4.069   1.120   5.354  1.6027 -0.1034 -0.0691
 1680SOL    HW216766   4.124   0.979   5.363 -0.3744 -0.9017 -0.1424
 1681SOL     OW16767  11.174   2.422  11.152  0.3581  0.3320 -0.1910
 1681SOL    HW116768  11.267   2.407  11.169  0.5382  0.6399 -0.8705
 1681SOL    HW216769  11.172   2.466  11.067 -0.3841  0.7169  0.0154
 1682SOL     OW16770   0.146  12.701   3.130  0.1296 -0.6556  0.1368
 1682SOL    HW116771   0.125  12.747   3.212  0.4313 -0.9829  0.3989
 1682SOL    HW216772   0.233  12.664   3.145  0.6673  0.1977 -0.7280
 1683SOL     OW16773   0.517   4.394  12.785  0.6191  0.4350 -0.0752
 1683SOL    HW116774   0.444   4.394  12.847 -1.1977  0.3987 -2.0821
 1683SOL    HW216775   0.579   4.458  12.820  0.2216 -0.3456  2.2813
 1684SOL     OW16776  12.014   8.479   4.762 -0.2048  0.7994 -0.1490
 1684SOL    HW116777  11.963   8.526   4.696 -0.1841  1.1286  0.0609
 1684SOL    HW216778  11.948   8.439   4.819 -0.3253  2.6585  1.1564
 1685SOL     OW16779  12.001   3.750   1.585 -0.5527  0.5338  0.3957
 1685SOL    HW116780  12.009   3.689   1.512  0.7650  1.5514 -0.3597
 1685SOL    HW216781  11.941   3.818   1.553  1.5865  2.0644 -0.5959
 1686SOL     OW16782   3.102   6.860   4.265 -0.3619 -0.2313 -0.4244
 1686SOL    HW116783   3.108   6.953   4.287  1.4636 -0.2799 -0.5523
 1686SOL    HW216784   3.015   6.834   4.295 -0.5295  1.2811  0.5390
 1687SOL     OW16785   3.582  13.280   2.164 -0.1820 -0.0054  0.7519
 1687SOL    HW116786   3.616  13.325   2.087  0.6581  0.5007  1.3922
 1687SOL    HW216787   3.488  13.300   2.165 -0.0511  0.6616  0.3138
 1688SOL     OW16788   8.761   2.332  11.665  0.0234  0.4652  0.4603
 1688SOL    HW116789   8.820   2.299  11.734  1.0807 -1.2364 -1.1691
 1688SOL    HW216790   8.772   2.427  11.669  0.5563  0.3803  2.1906
 1689SOL     OW16791   1.374   3.413  10.880  1.1278  0.6302 -0.2220
 1689SOL    HW116792   1.457   3.367  10.867  0.6166 -0.2059 -0.5559
 1689SOL    HW216793   1.307   3.350  10.855  0.4120  1.5493 -0.6636
 1690SOL     OW16794   4.072   0.015   5.472 -0.3092 -0.2655 -0.6412
 1690SOL    HW116795   4.140   0.014   5.540  0.8271  0.6869 -1.7079
 1690SOL    HW216796   4.069  -0.075   5.441  0.5147 -0.3241 -0.5929
 1691SOL     OW16797   1.942   5.139   6.388 -0.5927  0.1432  0.5750
 1691SOL    HW116798   1.892   5.173   6.462 -1.9753  1.0926 -0.7331
 1691SOL    HW216799   1.949   5.214   6.328  1.4052 -0.3091  0.1889
 1692SOL     OW16800  10.606  13.743   8.050 -0.0429  0.1271 -0.3948
 1692SOL    HW116801  10.644  13.786   7.974  1.4289 -0.7525 -0.2041
 1692SOL    HW216802  10.618  13.649   8.032  0.5951 -0.0855  1.0313
 1693SOL     OW16803  10.636   5.726   2.207 -0.0939 -0.4116  0.2433
 1693SOL    HW116804  10.699   5.666   2.248  0.5439  0.1656  0.1164
 1693SOL    HW216805  10.610   5.785   2.277 -0.3000 -0.4852  0.2306
 1694SOL     OW16806   6.592   5.442   6.510  0.4466  0.1554 -0.0775
 1694SOL    HW116807   6.631   5.376   6.567 -0.7806 -2.1803 -1.7948
 1694SOL    HW216808   6.666   5.486   6.469  1.2924  0.3052  1.5161
 1695SOL     OW16809   5.901   6.147   4.488  0.0275  0.1426 -0.4435
 1695SOL    HW116810   5.898   6.124   4.581  1.3826 -0.5860 -0.5466
 1695SOL    HW216811   5.984   6.193   4.478  0.7904 -1.3772 -1.5902
 1696SOL     OW16812   1.358   5.687  11.697  0.0016 -0.1927  0.1878
 1696SOL    HW116813   1.359   5.730  11.783  0.1074 -0.2417  0.2108
 1696SOL    HW216814   1.447   5.656  11.685 -0.3155 -1.3110  0.6340
 1697SOL     OW16815   6.444   9.917  11.310 -0.3312  0.2655  0.3512
 1697SOL    HW116816   6.470  10.000  11.351 -0.8320  0.2803  0.6558
 1697SOL    HW216817   6.419   9.861  11.384 -0.2946 -0.0498  0.1254
 1698SOL     OW16818   8.477   1.344   2.555  0.2877 -0.4304 -0.1924
 1698SOL    HW116819   8.429   1.274   2.511 -0.8300  0.0296  0.2495
 1698SOL    HW216820   8.487   1.413   2.489  0.6797 -0.6677 -0.3888
 1699SOL     OW16821   4.753   3.028   6.305 -0.0048  0.0028  0.0510
 1699SOL    HW116822   4.832   2.974   6.301  0.6288  0.9194 -0.3192
 1699SOL    HW216823   4.682   2.966   6.320  0.7815 -0.8480  0.3546
 1700SOL     OW16824   6.140  12.245  11.494 -0.0639 -0.2952 -0.5313
 1700SOL    HW116825   6.195  12.299  11.437  0.2122  0.4419  0.3888
 1700SOL    HW216826   6.182  12.253  11.580  1.0805 -3.4923 -0.6730
 1701SOL     OW16827   6.066  12.384  12.992  0.1886 -0.6656 -0.0455
 1701SOL    HW116828   6.079  12.401  13.085  2.0027  0.0738 -0.3820
 1701SOL    HW216829   6.131  12.317  12.971 -0.4592 -1.1029 -0.7176
 1702SOL     OW16830   8.500   5.887   0.026  0.2254 -0.4892  0.2300
 1702SOL    HW116831   8.514   5.973  -0.014  2.0838 -1.4452 -1.3784
 1702SOL    HW216832   8.405   5.873   0.020  0.1372  0.5283 -1.5732
 1703SOL     OW16833   7.036   9.844   8.704 -0.4499  0.2471 -0.9354
 1703SOL    HW116834   6.971   9.810   8.642 -2.4172  3.4408 -0.8352
 1703SOL    HW216835   7.066   9.926   8.665 -1.7722  2.4042  2.1907
 1704SOL     OW16836   2.318   8.890   1.702  0.1047 -0.9568 -0.2540
 1704SOL    HW116837   2.378   8.876   1.775 -0.4775 -1.4084  0.1461
 1704SOL    HW216838   2.269   8.808   1.694  0.3835 -1.0392 -1.3702
 1705SOL     OW16839   2.607   2.201  12.292  0.2589  0.0012  0.4664
 1705SOL    HW116840   2.567   2.203  12.379  0.3440 -1.7153  0.5773
 1705SOL    HW216841   2.650   2.116  12.287  1.3720  0.5946 -0.7854
 1706SOL     OW16842   2.343  11.440   1.662 -0.1562 -0.0003  0.0568
 1706SOL    HW116843   2.299  11.524   1.673 -0.8163 -0.4252  0.7353
 1706SOL    HW216844   2.338  11.399   1.749  2.1920  0.2314  0.3630
 1707SOL     OW16845   4.584   4.110   1.876  0.1660  0.0322  0.8062
 1707SOL    HW116846   4.642   4.069   1.813 -1.2043 -0.6519 -0.0687
 1707SOL    HW216847   4.641   4.138   1.948  1.8437  1.3269 -0.9474
 1708SOL     OW16848  11.200  12.221   3.769  0.0935  0.2918  0.2706
 1708SOL    HW116849  11.283  12.240   3.813  1.0552 -1.9001 -0.4715
 1708SOL    HW216850  11.225  12.191   3.682 -1.4598 -0.7002  0.1194
 1709SOL     OW16851   7.184   2.833   3.609  0.6076  0.0242  0.5029
 1709SOL    HW116852   7.102   2.791   3.635  0.7164 -0.0189  0.7780
 1709SOL    HW216853   7.242   2.761   3.587  0.3043  0.0721 -0.5281
 1710SOL     OW16854  10.714   8.218   4.690 -0.3034  0.0347 -0.6858
 1710SOL    HW116855  10.760   8.301   4.703 -0.5815  0.1671 -0.5245
 1710SOL    HW216856  10.643   8.219   4.756 -2.5747  1.3022 -2.9807
 1711SOL     OW16857  12.111   2.098   9.453 -0.3467  0.6447 -0.0749
 1711SOL    HW116858  12.113   2.005   9.475 -0.9587  1.0826  2.0146
 1711SOL    HW216859  12.030   2.109   9.404  0.5113 -0.1658 -1.7801
 1712SOL     OW16860   2.465  12.092   9.755 -0.0809 -0.8995  0.3025
 1712SOL    HW116861   2.450  12.089   9.849  0.2385 -0.9640  0.3547
 1712SOL    HW216862   2.413  12.020   9.720  0.2526 -1.2385  0.4967
 1713SOL     OW16863  10.443   0.618   4.978  0.1751 -0.2547 -0.1968
 1713SOL    HW116864  10.348   0.618   4.978  0.1618 -0.0753  0.8713
 1713SOL    HW216865  10.467   0.652   5.064  1.1913 -2.1107  0.3012
 1714SOL     OW16866   4.902   4.376   9.054 -0.4831  0.0603  0.5742
 1714SOL    HW116867   4.849   4.308   9.096  1.7717 -2.0468  0.1761
 1714SOL    HW216868   4.985   4.374   9.100  0.2015  1.4599 -0.5249
 1715SOL     OW16869  10.484  10.323  11.938  0.2607  0.5005 -0.3619
 1715SOL    HW116870  10.533  10.309  12.018  2.0432  0.6375 -1.3864
 1715SOL    HW216871  10.550  10.344  11.872 -0.8711 -1.9711 -2.4611
 1716SOL     OW16872  12.599   6.236  11.292 -0.7706  0.3316 -0.1548
 1716SOL    HW116873  12.682   6.248  11.245 -1.4189 -0.2965 -1.4956
 1716SOL    HW216874  12.609   6.152  11.338 -0.7972  0.0644 -0.6298
 1717SOL     OW16875   7.704   5.030   8.309  0.1715  0.1519 -0.2338
 1717SOL    HW116876   7.743   4.973   8.376 -1.6150 -0.8709  0.0099
 1717SOL    HW216877   7.670   5.105   8.359 -0.2933 -0.1354 -0.1100
 1718SOL     OW16878   6.315  10.791   3.179  0.0880  0.1030  0.5993
 1718SOL    HW116879   6.371  10.867   3.162 -2.0931  2.2336  2.2146
 1718SOL    HW216880   6.241  10.826   3.229 -2.3365 -2.6543 -0.7353
 1719SOL     OW16881  10.779  12.386  11.412 -0.0664 -0.2713  0.9701
 1719SOL    HW116882  10.819  12.309  11.371  0.9665  1.3185 -1.2428
 1719SOL    HW216883  10.719  12.419  11.345 -0.3208  0.9813  1.7922
 1720SOL     OW16884   7.820  11.952  10.625  0.2336  0.8094  0.6262
 1720SOL    HW116885   7.875  12.003  10.685  2.2350 -0.5552  0.0454
 1720SOL    HW216886   7.882  11.910  10.565 -1.3688 -1.5856  0.5127
 1721SOL     OW16887  12.686  10.675   7.250 -0.2839  0.4153  0.2022
 1721SOL    HW116888  12.725  10.654   7.165  1.6109  1.4587  0.7513
 1721SOL    HW216889  12.643  10.594   7.278 -0.4156 -0.1184 -1.4723
 1722SOL     OW16890  10.064   5.819   5.303  0.4229  0.0914  0.2190
 1722SOL    HW116891  10.143   5.786   5.346  1.6094  0.1028 -1.8281
 1722SOL    HW216892  10.093   5.843   5.215 -1.5305  1.6433 -0.0677
 1723SOL     OW16893   0.310   2.014   7.217  0.1155 -0.4198 -0.3371
 1723SOL    HW116894   0.377   2.066   7.172  0.1869 -0.3594 -0.1623
 1723SOL    HW216895   0.227   2.042   7.178 -0.0257  1.0726  0.9434
 1724SOL     OW16896  11.829   2.254  11.309  0.5233 -0.4565  0.0146
 1724SOL    HW116897  11.901   2.214  11.358 -0.6226 -2.3461  0.2631
 1724SOL    HW216898  11.871   2.319  11.253  2.1126  0.4015  2.0328
 1725SOL     OW16899  12.867  11.174   9.559  0.1618 -0.4095  0.0557
 1725SOL    HW116900  12.896  11.137   9.643  0.9295 -2.1863 -0.9400
 1725SOL    HW216901  12.799  11.114   9.528  0.7869 -0.5136 -1.1725
 1726SOL     OW16902   0.033   3.884   5.513 -0.1009  0.0417 -0.2519
 1726SOL    HW116903  -0.000   3.796   5.530 -1.2052  0.8954  2.6464
 1726SOL    HW216904   0.086   3.905   5.590  0.2739  1.8640 -0.9431
 1727SOL     OW16905   8.258   0.292   2.405 -0.4062 -0.1364  0.0696
 1727SOL    HW116906   8.335   0.282   2.461 -0.6672 -0.5602  0.3574
 1727SOL    HW216907   8.282   0.247   2.324 -0.3899 -0.3593  0.1975
 1728SOL     OW16908   2.253   8.418   9.240  0.1298  1.0924 -0.2132
 1728SOL    HW116909   2.324   8.413   9.305 -0.0512  0.8687 -0.0302
 1728SOL    HW216910   2.278   8.356   9.172 -0.3635  0.2820  0.3258
 1729SOL     OW16911   0.174   0.366   4.123  0.3845  0.6620 -0.0840
 1729SOL    HW116912   0.148   0.321   4.042 -1.7463  0.4360  0.6728
 1729SOL    HW216913   0.167   0.299   4.191  0.8500  1.1918  0.4998
 1730SOL     OW16914   2.118   3.826   1.703  0.0084 -0.0977 -0.4452
 1730SOL    HW116915   2.057   3.889   1.666  1.6271  1.1886 -1.0737
 1730SOL    HW216916   2.188   3.819   1.638  0.7743 -1.1290  0.4492
 1731SOL     OW16917   0.436   9.232   8.403  0.6090  0.0457 -0.7376
 1731SOL    HW116918   0.349   9.260   8.373  0.0272  2.2957  2.5180
 1731SOL    HW216919   0.420   9.196   8.490  2.9633  1.0343  0.1683
 1732SOL     OW16920   9.750   4.299   6.366 -0.2955 -0.7189  0.2719
 1732SOL    HW116921   9.660   4.329   6.374 -0.5162 -1.0003 -1.0337
 1732SOL    HW216922   9.796   4.342   6.439 -0.7575  2.2089 -1.0422
 1733SOL     OW16923   1.335   2.642   8.474  0.1868 -0.2000  0.0593
 1733SOL    HW116924   1.379   2.710   8.423 -0.6612 -0.1342 -0.6163
 1733SOL    HW216925   1.366   2.654   8.564  1.2594  0.0574 -0.3430
 1734SOL     OW16926  13.484  12.872   7.716  0.0153  0.2250 -0.0898
 1734SOL    HW116927  13.476  12.883   7.621 -1.7638 -0.4098 -0.0474
 1734SOL    HW216928  13.477  12.778   7.730  1.9650  0.1404  0.5749
 1735SOL     OW16929   0.059  11.924   5.238 -0.4644  0.2304  0.1275
 1735SOL    HW116930   0.098  11.852   5.287 -0.5026  0.1541  0.0469
 1735SOL    HW216931  -0.026  11.889   5.209  0.5866 -0.6126 -2.1138
 1736SOL     OW16932   0.679   9.262   8.930 -0.2433  0.5904  0.5994
 1736SOL    HW116933   0.610   9.288   8.991  0.8579  0.9840  1.7237
 1736SOL    HW216934   0.759   9.297   8.968  0.6237 -0.0450 -0.5598
 1737SOL     OW16935   9.101  11.820   7.328 -0.0441  0.0399  0.2911
 1737SOL    HW116936   9.178  11.845   7.380  0.0157  0.6952 -0.1027
 1737SOL    HW216937   9.072  11.737   7.366  0.5035  0.0892  0.8265
 1738SOL     OW16938   1.054   3.550  11.776 -0.1057 -0.0351  0.4021
 1738SOL    HW116939   1.035   3.457  11.790  1.8365 -0.6911 -0.8851
 1738SOL    HW216940   1.133   3.566  11.828  0.0499  0.6685 -0.0392
 1739SOL     OW16941   9.283  12.174   6.724 -0.4758 -0.3845 -0.3589
 1739SOL    HW116942   9.208  12.129   6.684 -0.7279 -1.8040  1.5371
 1739SOL    HW216943   9.359  12.145   6.673 -0.9764 -0.6097 -0.9950
 1740SOL     OW16944   3.338  11.654  13.162  0.1459  0.0477  0.7447
 1740SOL    HW116945   3.331  11.703  13.080 -0.9043 -0.3004  0.6104
 1740SOL    HW216946   3.389  11.576  13.139 -1.3805 -0.7907  0.0321
 1741SOL     OW16947  10.023   3.958   3.598  0.4498  0.5564  0.7007
 1741SOL    HW116948  10.102   3.907   3.614 -0.1495  0.1970  2.8300
 1741SOL    HW216949  10.050   4.049   3.612  0.8146  0.5790 -0.0938
 1742SOL     OW16950  11.176   1.608   7.672  0.3229  0.2192  0.7899
 1742SOL    HW116951  11.244   1.665   7.635  0.1602 -0.4737 -0.6412
 1742SOL    HW216952  11.094   1.648   7.646  0.2015 -0.0966  0.6802
 1743SOL     OW16953   1.378   7.656   7.251 -0.1973  0.0622 -0.2663
 1743SOL    HW116954   1.364   7.608   7.169  0.9042 -4.1442  1.7299
 1743SOL    HW216955   1.291   7.686   7.276 -0.7320  0.4168 -2.3038
 1744SOL     OW16956   8.746   7.321  11.755  0.4687 -0.0783 -0.0700
 1744SOL    HW116957   8.692   7.343  11.680  1.0623 -2.2741 -1.2353
 1744SOL    HW216958   8.789   7.403  11.779 -1.8442  1.2910 -0.3070
 1745SOL     OW16959  12.351   3.751   0.921 -0.2533 -0.1550  0.5354
 1745SOL    HW116960  12.266   3.733   0.962 -0.7855 -0.4685 -0.6622
 1745SOL    HW216961  12.414   3.702   0.975 -0.9898 -0.9798  0.6790
 1746SOL     OW16962  11.823   6.222  11.551  0.1940  0.0301  0.0182
 1746SOL    HW116963  11.801   6.307  11.590 -1.0118  1.3081 -3.0896
 1746SOL    HW216964  11.744   6.170  11.560  0.5567 -0.3881  0.9060
 1747SOL     OW16965  10.447   4.524  12.832  0.6379 -0.2548 -0.1401
 1747SOL    HW116966  10.461   4.431  12.850 -1.1118 -0.6309 -0.4553
 1747SOL    HW216967  10.418   4.560  12.916 -2.0407 -0.7953 -0.7339
 1748SOL     OW16968   2.661   4.464   1.890 -0.5565 -0.4997  0.3781
 1748SOL    HW116969   2.627   4.394   1.835 -3.1951  2.2699 -1.8428
 1748SOL    HW216970   2.750   4.480   1.857 -0.6018 -1.5625 -0.2904
 1749SOL     OW16971   4.227   8.706   4.880  0.2560 -0.2321  0.4751
 1749SOL    HW116972   4.203   8.793   4.912  0.5151  0.2939 -0.7043
 1749SOL    HW216973   4.152   8.651   4.903 -1.2520  0.9468 -1.2987
 1750SOL     OW16974   6.781  13.535   7.659 -0.0339 -0.5398  0.1784
 1750SOL    HW116975   6.771  13.449   7.700  1.0456 -0.4264  0.7208
 1750SOL    HW216976   6.859  13.572   7.701 -0.6304  0.8101  0.1377
 1751SOL     OW16977   3.350  10.558   1.365 -0.5323  0.2955  0.0612
 1751SOL    HW116978   3.334  10.568   1.459 -1.4827  0.2342 -0.0854
 1751SOL    HW216979   3.384  10.469   1.356 -4.1179 -1.1882 -0.0638
 1752SOL     OW16980  10.257   2.014  12.861  0.2517  0.1435 -0.2986
 1752SOL    HW116981  10.345   2.020  12.899 -0.5083  1.2205  1.3857
 1752SOL    HW216982  10.214   1.946  12.912  0.0819 -0.4027 -1.1417
 1753SOL     OW16983   3.611   0.076   6.975  0.9829 -0.1210  0.3451
 1753SOL    HW116984   3.619   0.137   7.049 -0.6554  2.3937 -1.3906
 1753SOL    HW216985   3.534   0.024   6.996  1.0965 -0.0976  0.8410
 1754SOL     OW16986  13.276   2.921   5.558  0.2900 -0.1579 -0.1083
 1754SOL    HW116987  13.339   2.917   5.486  0.9284 -0.3566  0.4540
 1754SOL    HW216988  13.281   3.011   5.590  1.4669 -0.5741  0.9575
 1755SOL     OW16989   8.767   2.065   9.968  0.5663 -0.3729  0.6049
 1755SOL    HW116990   8.740   2.152   9.997  0.0335 -0.3629  0.1247
 1755SOL    HW216991   8.862   2.067   9.969  0.5778  0.5648 -0.3558
 1756SOL     OW16992   1.900   6.796   4.449  0.5024  0.0974 -0.0365
 1756SOL    HW116993   1.876   6.710   4.482 -0.3364  0.5774  0.6602
 1756SOL    HW216994   1.816   6.840   4.435  0.8587  0.2446 -1.9559
 1757SOL     OW16995   9.935   0.075   1.424 -0.0920 -0.3036 -0.8767
 1757SOL    HW116996   9.950   0.148   1.364 -2.5640  0.9276 -0.1509
 1757SOL    HW216997   9.869   0.021   1.380 -1.4144  0.2415  0.3418
 1758SOL     OW16998   1.461  13.380   2.705  0.1478 -0.4643  0.2530
 1758SOL    HW116999   1.520  13.375   2.780  1.9678 -1.2123 -1.1479
 1758SOL    HW217000   1.407  13.301   2.712 -0.2352 -0.1324  1.1766
 1759SOL     OW17001   5.869  13.410  11.367  0.3411  0.7783 -0.2189
 1759SOL    HW117002   5.859  13.420  11.462 -0.1675  2.9316 -0.4488
 1759SOL    HW217003   5.867  13.315  11.353 -0.2062  0.4206  1.8422
 1760SOL     OW17004   0.372   2.530   9.458 -0.5181  0.7538  1.0914
 1760SOL    HW117005   0.346   2.447   9.418  0.7423 -0.1743  2.1170
 1760SOL    HW217006   0.362   2.594   9.387  0.9909 -0.7115 -0.5632
 1761SOL     OW17007   6.366   0.414  11.968 -0.1347  0.1382  0.4337
 1761SOL    HW117008   6.364   0.499  12.011  0.3565 -0.6187  2.0268
 1761SOL    HW217009   6.275   0.383  11.970  0.0024 -0.2141  1.6334
 1762SOL     OW17010   1.148  13.141   6.990  0.4811 -0.2440  0.0584
 1762SOL    HW117011   1.192  13.131   6.906 -0.5214 -1.6706 -0.3389
 1762SOL    HW217012   1.212  13.113   7.055  1.4279  1.3102 -0.1460
 1763SOL     OW17013   8.523   8.938  11.699 -0.6716 -0.6145 -0.1361
 1763SOL    HW117014   8.519   8.970  11.789 -0.0991  0.7006 -0.5569
 1763SOL    HW217015   8.608   8.895  11.692 -0.6857 -0.6534 -0.0639
 1764SOL     OW17016  11.963   8.817   2.655 -0.2552 -0.3595  0.1388
 1764SOL    HW117017  11.869   8.804   2.640 -0.1269 -1.0918 -0.0500
 1764SOL    HW217018  11.987   8.751   2.719  0.1652 -0.2609  0.0892
 1765SOL     OW17019   2.815   6.607  12.811 -0.2369 -0.4974 -0.1983
 1765SOL    HW117020   2.737   6.645  12.770 -0.5392  0.0433  0.8560
 1765SOL    HW217021   2.792   6.598  12.903  1.4503  1.1306  0.4625
 1766SOL     OW17022  13.009   8.214  12.728  0.1506 -0.0139  0.0849
 1766SOL    HW117023  13.063   8.138  12.706 -2.4844 -2.7781  2.2096
 1766SOL    HW217024  13.053   8.254  12.803  0.8885 -0.2666 -0.2110
 1767SOL     OW17025   1.906   8.747   9.220 -0.5804 -0.3086 -0.1887
 1767SOL    HW117026   1.905   8.653   9.202 -0.7885 -0.5651  1.1308
 1767SOL    HW217027   1.922   8.754   9.314  1.8254  1.0337 -0.6241
 1768SOL     OW17028   3.626   5.903  10.955  0.1529  0.0149 -0.4752
 1768SOL    HW117029   3.573   5.827  10.979  0.0695  0.1928 -0.0885
 1768SOL    HW217030   3.659   5.883  10.867  2.5421 -1.8236  0.7265
 1769SOL     OW17031   5.560   7.719   7.493  0.0759 -0.2020 -0.5298
 1769SOL    HW117032   5.535   7.676   7.412  0.2802 -0.9454 -0.2030
 1769SOL    HW217033   5.622   7.659   7.534  1.3853  0.9866 -0.6796
 1770SOL     OW17034   4.651   8.606   8.279  0.5517 -0.5342  0.0093
 1770SOL    HW117035   4.721   8.541   8.288  0.4600 -0.6624 -0.2157
 1770SOL    HW217036   4.690   8.677   8.229  0.5563 -0.5553 -0.0169
 1771SOL     OW17037   4.504   9.396   8.222  0.6558  0.0447 -0.5107
 1771SOL    HW117038   4.596   9.416   8.201  0.7381  0.4756  0.2339
 1771SOL    HW217039   4.509   9.329   8.291  0.4336  0.8793  0.3305
 1772SOL     OW17040   3.966  12.436  13.439 -0.2154 -0.4035 -0.0316
 1772SOL    HW117041   3.957  12.530  13.449  1.8658 -0.1817  0.0838
 1772SOL    HW217042   3.883  12.400  13.473  0.2656  1.1868  3.2127
 1773SOL     OW17043   0.333   0.614   2.333 -0.2029 -0.4955 -0.4625
 1773SOL    HW117044   0.388   0.544   2.300  0.2731 -0.0260 -0.6669
 1773SOL    HW217045   0.245   0.593   2.301 -0.0770 -1.0343 -0.4601
 1774SOL     OW17046   1.977   5.181  13.663  0.1753  0.0456 -0.2895
 1774SOL    HW117047   2.061   5.142  13.638 -0.0949 -0.7281 -0.0033
 1774SOL    HW217048   1.947   5.226  13.584  0.7215  0.0847 -0.4767
 1775SOL     OW17049   4.729   2.827   9.521  0.0439  0.2999 -0.0761
 1775SOL    HW117050   4.715   2.921   9.533  0.3317  0.2409  0.8267
 1775SOL    HW217051   4.781   2.801   9.597 -1.4735 -0.9081  0.6097
 1776SOL     OW17052  12.172   1.168  10.924  0.4788  0.4323 -0.2303
 1776SOL    HW117053  12.096   1.109  10.923  1.3261 -0.7397  1.1081
 1776SOL    HW217054  12.156   1.224  11.000  0.5747  0.7071 -0.4140
 1777SOL     OW17055   3.044   8.946   5.953  0.6316  0.8438  0.2129
 1777SOL    HW117056   3.008   9.023   5.909 -0.8504 -0.0129 -0.1505
 1777SOL    HW217057   3.123   8.978   5.996 -0.0497  2.6113  0.2564
 1778SOL     OW17058   8.433   9.344  11.298 -0.1923 -0.3676 -0.2643
 1778SOL    HW117059   8.400   9.370  11.384  0.7591 -0.7159  0.2218
 1778SOL    HW217060   8.482   9.420  11.266 -0.8836 -0.0942 -0.6819
 1779SOL     OW17061   4.148  11.665  10.357  0.1349 -0.7886 -0.0454
 1779SOL    HW117062   4.176  11.747  10.397 -1.5969 -0.3298  0.3160
 1779SOL    HW217063   4.207  11.599  10.392  0.8447  0.1358  0.5429
 1780SOL     OW17064  13.310   4.595   2.307 -0.0973 -0.0263 -0.4427
 1780SOL    HW117065  13.351   4.638   2.232  1.9766  0.6767  1.0082
 1780SOL    HW217066  13.357   4.629   2.383 -2.0354 -0.8032  1.1974
 1781SOL     OW17067  12.655  13.574   4.317  0.1766  0.0462  0.2967
 1781SOL    HW117068  12.750  13.573   4.306  0.0597  0.8787 -0.9572
 1781SOL    HW217069  12.620  13.562   4.228 -0.8918 -0.0894  0.7189
 1782SOL     OW17070  10.133   9.446   0.419  0.1451  0.3147 -0.1082
 1782SOL    HW117071  10.183   9.528   0.426 -0.3259  0.6486 -0.5443
 1782SOL    HW217072  10.081   9.444   0.499  1.0453 -0.1791  0.4896
 1783SOL     OW17073   3.689   4.896  11.782 -0.2774 -0.3374  0.3204
 1783SOL    HW117074   3.723   4.983  11.801  0.8062 -0.9879  1.5416
 1783SOL    HW217075   3.683   4.854  11.867 -2.8460 -0.7713  0.0096
 1784SOL     OW17076   0.915   6.509   2.432  0.3695  0.7065  0.1782
 1784SOL    HW117077   0.991   6.566   2.442  1.7166 -0.8664 -0.6974
 1784SOL    HW217078   0.925   6.443   2.501 -0.3056  0.5824  0.1660
 1785SOL     OW17079  11.618   7.031  13.003 -1.0689  0.7231  0.5568
 1785SOL    HW117080  11.558   7.106  13.004 -0.8059  0.9653 -0.4939
 1785SOL    HW217081  11.581   6.971  12.939 -0.5980  0.5293  0.4622
 1786SOL     OW17082   7.192  13.284  10.288 -0.4775 -0.1389 -0.6465
 1786SOL    HW117083   7.186  13.190  10.301  0.9677 -0.0166  1.5175
 1786SOL    HW217084   7.121  13.320  10.342 -1.4572  0.0194 -2.0016
 1787SOL     OW17085   8.405   6.065   6.597 -0.4632 -0.0411  0.2606
 1787SOL    HW117086   8.406   6.028   6.509 -0.2641  0.0957  0.2033
 1787SOL    HW217087   8.464   6.009   6.647  0.1385  0.4123  0.0802
 1788SOL     OW17088   6.257   0.041   5.507 -0.5231 -0.3475 -0.3673
 1788SOL    HW117089   6.349   0.032   5.533  0.0812  0.1130 -2.1576
 1788SOL    HW217090   6.211   0.064   5.588  1.3956  2.2361  0.1058
 1789SOL     OW17091   7.498   0.116   6.638  1.0428  0.9002  0.0622
 1789SOL    HW117092   7.494   0.021   6.626  0.8270  0.9974 -0.7073
 1789SOL    HW217093   7.510   0.151   6.549 -2.3323  1.7661 -0.1974
 1790SOL     OW17094   9.767  13.667   5.830 -0.0070  0.3702 -0.0092
 1790SOL    HW117095   9.751  13.733   5.763  0.6837  0.3323 -0.2155
 1790SOL    HW217096   9.862  13.656   5.831 -0.1249 -0.7947 -0.1426
 1791SOL     OW17097   8.099   7.391   9.160  0.7041  0.3193 -0.3039
 1791SOL    HW117098   8.057   7.334   9.096 -3.3632  2.3475  0.2193
 1791SOL    HW217099   8.133   7.464   9.108  1.5495 -0.1938 -0.4987
 1792SOL     OW17100   1.080  10.691   6.714  0.6172  0.1707 -0.0096
 1792SOL    HW117101   1.102  10.660   6.626  0.1529  2.7301 -1.1014
 1792SOL    HW217102   0.984  10.699   6.714  0.7663  3.0787 -0.4227
 1793SOL     OW17103   0.877   2.418   4.281  0.0001 -0.2137  0.5467
 1793SOL    HW117104   0.953   2.360   4.285  0.6640  0.3454 -2.0120
 1793SOL    HW217105   0.823   2.392   4.356  2.4222 -0.9918  2.1593
 1794SOL     OW17106   0.551   2.070   2.413  0.3504 -0.3085 -0.7716
 1794SOL    HW117107   0.518   2.069   2.503 -0.4538  0.0294 -1.0592
 1794SOL    HW217108   0.539   2.160   2.383 -1.4532 -0.8924 -1.9583
 1795SOL     OW17109   9.911   3.648   5.917  0.3841  0.0973 -0.6554
 1795SOL    HW117110   9.886   3.741   5.920 -0.4045 -0.1197  1.4792
 1795SOL    HW217111   9.827   3.601   5.919  0.8021 -0.6432  0.0841
 1796SOL     OW17112   1.229   3.533   4.619  0.6437 -0.3505 -0.0760
 1796SOL    HW117113   1.196   3.443   4.611  0.6048 -0.1615 -4.0962
 1796SOL    HW217114   1.295   3.528   4.689 -1.4799 -2.7270  1.9718
 1797SOL     OW17115   6.740  12.894   6.027 -0.1671  0.1589 -0.4819
 1797SOL    HW117116   6.656  12.874   6.068  0.2513 -0.1087  0.2552
 1797SOL    HW217117   6.798  12.824   6.054  0.8192  1.3533  0.6234
 1798SOL     OW17118   0.209  10.927  13.599  0.1303  0.1644 -0.4015
 1798SOL    HW117119   0.177  11.017  13.604  1.3672  0.7927 -2.5402
 1798SOL    HW217120   0.131  10.875  13.578 -0.4512  0.8228  0.0652
 1799SOL     OW17121   2.035   1.955   2.462  0.2375 -0.1720  0.1084
 1799SOL    HW117122   2.106   1.939   2.399 -0.6307 -1.0054 -0.6780
 1799SOL    HW217123   1.955   1.952   2.410 -0.5191 -0.9705  1.2723
 1800SOL     OW17124   3.808   0.059  11.202 -0.3777 -0.1168 -0.0171
 1800SOL    HW117125   3.768   0.146  11.209  0.1479  0.1792 -0.5619
 1800SOL    HW217126   3.867   0.066  11.127  2.1262  0.0655  1.8082
 1801SOL     OW17127   1.645   7.543  12.049  0.0142 -0.0091 -0.2786
 1801SOL    HW117128   1.685   7.501  12.125 -0.5849  0.2927  0.2120
 1801SOL    HW217129   1.644   7.474  11.982  0.7418 -0.2131 -0.0878
 1802SOL     OW17130   0.957  10.906  12.645  0.3713 -0.0690  0.3538
 1802SOL    HW117131   1.029  10.901  12.582  1.2931  0.6001  1.3097
 1802SOL    HW217132   0.984  10.975  12.706 -1.7767  1.2613 -0.0980
 1803SOL     OW17133  12.347   6.350  11.204 -0.1658 -0.0787  0.0186
 1803SOL    HW117134  12.362   6.436  11.242  0.6359  0.1891 -0.8665
 1803SOL    HW217135  12.433   6.308  11.206 -0.7446 -1.2670  1.3868
 1804SOL     OW17136   8.401   1.741   1.955  0.2123  0.1373  0.0537
 1804SOL    HW117137   8.343   1.708   2.024 -0.6973  0.2440 -0.6272
 1804SOL    HW217138   8.439   1.820   1.992 -1.3315  0.9629 -0.0265
 1805SOL     OW17139  12.037   9.544  13.625  0.6507  0.4253 -0.3104
 1805SOL    HW117140  12.084   9.530  13.707 -1.3586  2.7828  1.3991
 1805SOL    HW217141  12.104   9.570  13.562  2.2177 -1.2830  0.5855
 1806SOL     OW17142   9.176   0.679   2.655 -0.5566 -0.4139  0.3810
 1806SOL    HW117143   9.222   0.729   2.722  0.4181 -1.8473  0.8217
 1806SOL    HW217144   9.150   0.598   2.699  0.5074 -1.5923 -1.0626
 1807SOL     OW17145   0.627  11.348   9.531 -0.1660  0.5992 -0.4226
 1807SOL    HW117146   0.558  11.369   9.468  1.0452  0.9282 -1.6798
 1807SOL    HW217147   0.692  11.299   9.481  1.2384  1.5987  0.3610
 1808SOL     OW17148   6.863  13.259   2.129  0.1920 -0.9468  0.3825
 1808SOL    HW117149   6.821  13.181   2.166  0.3856 -1.3284 -0.1974
 1808SOL    HW217150   6.912  13.297   2.202 -0.5500 -0.9101  0.8797
 1809SOL     OW17151   2.740   9.118   2.644  0.5625 -0.9836  0.4954
 1809SOL    HW117152   2.716   9.063   2.719  0.9811 -1.0522  0.5820
 1809SOL    HW217153   2.829   9.148   2.664 -0.6195  2.0347  1.8000
 1810SOL     OW17154   1.664   4.416   8.604 -0.8461  0.6853  0.0526
 1810SOL    HW117155   1.742   4.366   8.582 -2.1541 -0.8873 -1.2934
 1810SOL    HW217156   1.629   4.374   8.682 -0.3980  1.3516  0.6194
 1811SOL     OW17157   4.309  10.359   8.026  0.8922  0.2716  0.5617
 1811SOL    HW117158   4.312  10.269   8.057  1.2277  0.0069 -0.2008
 1811SOL    HW217159   4.394  10.373   7.985  1.7820  1.7257  2.7375
 1812SOL     OW17160  13.169   2.343   4.294  0.3438  0.0661 -0.3851
 1812SOL    HW117161  13.245   2.393   4.325  0.7715 -1.3592  1.0167
 1812SOL    HW217162  13.199   2.302   4.213  1.1406 -0.5702  0.2084
 1813SOL     OW17163   1.739   4.437   3.048 -0.4121  0.3286  0.8122
 1813SOL    HW117164   1.653   4.409   3.014 -0.7229  0.0709  1.7834
 1813SOL    HW217165   1.741   4.404   3.138  0.4331  0.9162  1.0178
 1814SOL     OW17166   6.889   4.362   8.744  0.0195 -0.2916 -0.1967
 1814SOL    HW117167   6.884   4.442   8.692 -2.1160  0.2271  0.6775
 1814SOL    HW217168   6.868   4.291   8.683  1.2432 -0.1556 -0.8166
 1815SOL     OW17169   6.609  11.208   2.878  0.1491 -0.5741 -0.0669
 1815SOL    HW117170   6.651  11.208   2.793  0.8991 -1.5623  0.2885
 1815SOL    HW217171   6.515  11.206   2.859  0.3183 -1.1753 -0.8586
 1816SOL     OW17172   0.692   5.580   1.515  0.3839 -0.2384 -0.0612
 1816SOL    HW117173   0.673   5.505   1.571 -3.0160  0.5368  0.0056
 1816SOL    HW217174   0.665   5.553   1.428  3.0304 -0.4326 -0.9331
 1817SOL     OW17175   8.231  13.361  11.867 -0.3944  0.2293 -0.1943
 1817SOL    HW117176   8.204  13.298  11.801  0.3557  1.5847 -1.8690
 1817SOL    HW217177   8.326  13.370  11.855 -0.5692  2.1662 -0.5295
 1818SOL     OW17178   1.889  10.335  13.082 -0.0978  0.0952 -0.1912
 1818SOL    HW117179   1.874  10.397  13.011  1.0346 -1.2594 -1.6865
 1818SOL    HW217180   1.929  10.387  13.151 -1.3060  1.4619 -0.4798
 1819SOL     OW17181  11.924   0.983   7.099 -0.1458 -0.0400 -0.1203
 1819SOL    HW117182  11.922   1.078   7.098 -0.5937 -0.0509 -1.0023
 1819SOL    HW217183  12.009   0.960   7.061 -1.1048  0.0041 -2.4446
 1820SOL     OW17184   9.736   4.385   4.555  0.0523 -0.2364  0.5801
 1820SOL    HW117185   9.823   4.357   4.527 -0.3427  0.6294 -1.7313
 1820SOL    HW217186   9.740   4.481   4.553  0.0552 -0.0304  4.0242
 1821SOL     OW17187   7.697   3.650   2.467  0.0768  0.4017  0.1082
 1821SOL    HW117188   7.655   3.621   2.386  1.6406 -3.5756  0.4873
 1821SOL    HW217189   7.639   3.618   2.536  0.9138 -0.1486  0.5647
 1822SOL     OW17190   7.858  12.501  10.188 -0.8386 -0.2885  0.2287
 1822SOL    HW117191   7.877  12.543  10.104 -2.3099 -1.3713 -0.7117
 1822SOL    HW217192   7.856  12.407  10.167  0.4236 -0.7122  1.8437
 1823SOL     OW17193   4.110   7.561   5.143 -0.1755  0.6471  0.3038
 1823SOL    HW117194   4.201   7.547   5.118  0.0265 -0.8879  1.6852
 1823SOL    HW217195   4.106   7.534   5.235 -2.1211  0.2426  0.1511
 1824SOL     OW17196  11.132   6.465   7.655 -0.5012 -0.0343 -0.1922
 1824SOL    HW117197  11.153   6.374   7.636  0.2577  0.2256 -0.6363
 1824SOL    HW217198  11.217   6.507   7.671 -0.9363  0.2406  1.6515
 1825SOL     OW17199   8.310   0.382  12.529  0.2251 -0.4851  0.0102
 1825SOL    HW117200   8.286   0.469  12.495 -1.3364 -1.3035 -1.1229
 1825SOL    HW217201   8.311   0.326  12.451 -0.9159 -1.9107  0.9711
 1826SOL     OW17202   0.729   7.206  12.662 -0.4290 -0.6028  0.0056
 1826SOL    HW117203   0.817   7.185  12.630 -0.9354 -0.7653 -1.3637
 1826SOL    HW217204   0.734   7.298  12.687 -0.2960 -0.0830 -1.7804
 1827SOL     OW17205   4.498   6.265   5.504 -0.0188  0.2124  0.0946
 1827SOL    HW117206   4.483   6.264   5.410 -0.3022 -0.8559  0.1419
 1827SOL    HW217207   4.432   6.206   5.540  0.2152  0.4479  0.9484
 1828SOL     OW17208  12.589   8.157   6.476 -0.2733  0.1913 -0.2064
 1828SOL    HW117209  12.618   8.098   6.546  0.8559  0.0437 -0.7844
 1828SOL    HW217210  12.626   8.242   6.499  0.3807  0.0736 -0.7740
 1829SOL     OW17211  10.042  13.155   7.002  0.3404 -0.3249  0.1451
 1829SOL    HW117212  10.081  13.216   6.939 -1.2356 -0.3646 -0.9123
 1829SOL    HW217213   9.954  13.139   6.969 -0.4407 -0.5967  2.2072
 1830SOL     OW17214   7.627   2.872   1.547  0.0529  0.4320 -0.3851
 1830SOL    HW117215   7.556   2.873   1.483 -1.1044 -0.8814  0.8125
 1830SOL    HW217216   7.707   2.861   1.495 -1.0200 -3.2858 -1.5614
 1831SOL     OW17217  12.232   6.731   8.617 -0.3853  0.0775 -0.2826
 1831SOL    HW117218  12.321   6.712   8.590 -0.0744 -0.6180  1.1460
 1831SOL    HW217219  12.178   6.673   8.563 -0.0372  0.7939 -1.4412
 1832SOL     OW17220   2.036  11.034   1.131  0.0446 -0.1636  0.0038
 1832SOL    HW117221   2.006  11.118   1.096 -0.5205 -0.9200 -1.4242
 1832SOL    HW217222   2.118  11.055   1.175 -0.2185  1.1825 -0.0846
 1833SOL     OW17223  13.133  12.334  13.142  0.2292 -0.6719  0.5062
 1833SOL    HW117224  13.144  12.298  13.054  1.7937 -1.3458  0.9516
 1833SOL    HW217225  13.183  12.275  13.198 -1.5499 -0.8432  2.0096
 1834SOL     OW17226   4.103   1.576   4.603  0.5403 -0.1024 -0.5602
 1834SOL    HW117227   4.042   1.603   4.534  0.1430  1.5621  0.3964
 1834SOL    HW217228   4.163   1.650   4.612 -0.7575  0.7158  2.3804
 1835SOL     OW17229  13.235  12.950   1.685  0.1077  0.4402  0.4124
 1835SOL    HW117230  13.240  12.870   1.634  0.3711  1.3844 -1.0898
 1835SOL    HW217231  13.149  12.948   1.726 -0.7651  0.4273 -1.3764
 1836SOL     OW17232   2.691   8.842  11.414  0.5539 -0.0969 -0.4772
 1836SOL    HW117233   2.775   8.820  11.373  1.6720  0.4687  1.3670
 1836SOL    HW217234   2.652   8.907  11.356  0.0386 -2.3432 -2.8172
 1837SOL     OW17235   5.835   9.117  11.853  0.5083 -0.2428  0.5638
 1837SOL    HW117236   5.883   9.142  11.932  0.2277  1.1567  0.3345
 1837SOL    HW217237   5.749   9.089  11.885  0.2552  0.6990  0.7639
 1838SOL     OW17238  12.529  11.046  11.219 -0.3339 -0.4820  0.0727
 1838SOL    HW117239  12.449  11.086  11.252  0.0201 -0.2590  0.6713
 1838SOL    HW217240  12.536  10.963  11.266 -0.0296 -0.3379  0.2874
 1839SOL     OW17241   5.427   3.422  11.100  1.1664  0.4199  0.1093
 1839SOL    HW117242   5.491   3.480  11.058  2.4099 -0.6906  0.4017
 1839SOL    HW217243   5.431   3.341  11.049  0.6141  0.0363  0.6602
 1840SOL     OW17244  12.582   9.105   9.106 -0.3172  0.3053  0.4353
 1840SOL    HW117245  12.592   9.196   9.078 -3.2794  0.5893 -0.0276
 1840SOL    HW217246  12.488   9.093   9.116  0.0239 -2.5384  1.1821
 1841SOL     OW17247   0.901  12.340   6.252 -0.0003 -0.2017  0.2782
 1841SOL    HW117248   0.908  12.392   6.172  0.0140  2.3862  1.8374
 1841SOL    HW217249   0.991  12.311   6.270  0.1526  0.0005 -0.1426
 1842SOL     OW17250   5.115   0.653  12.527  0.0533 -0.0963  0.1645
 1842SOL    HW117251   5.083   0.577  12.575 -1.4092  1.8207  2.4647
 1842SOL    HW217252   5.207   0.660  12.550 -0.2654 -0.0972  1.5006
 1843SOL     OW17253  13.731   6.099   4.407 -0.2719  0.2786 -0.3626
 1843SOL    HW117254  13.680   6.175   4.433  1.7834  0.9668  2.0203
 1843SOL    HW217255  13.694   6.073   4.322 -2.3373  2.6672 -0.3042
 1844SOL     OW17256   0.248   8.089   2.824  0.2927  0.6204 -0.4546
 1844SOL    HW117257   0.339   8.060   2.831 -0.3484 -1.7472 -0.8502
 1844SOL    HW217258   0.208   8.061   2.906  0.2592  3.3322  0.5549
 1845SOL     OW17259   0.121  10.620   2.687  0.0771  0.2478  0.9093
 1845SOL    HW117260   0.092  10.710   2.699 -0.6349  0.4963 -1.8890
 1845SOL    HW217261   0.145  10.615   2.594 -2.0583 -2.9466  0.3616
 1846SOL     OW17262  12.935   7.781  13.296 -0.0406  0.2801  0.0699
 1846SOL    HW117263  12.923   7.742  13.383  0.3883  0.6695  0.3123
 1846SOL    HW217264  13.003   7.847  13.309  1.9117 -1.3883 -1.0887
 1847SOL     OW17265   2.424   9.735  13.517 -0.0896  0.2134  0.0550
 1847SOL    HW117266   2.351   9.742  13.579 -0.8869  0.5719 -0.9196
 1847SOL    HW217267   2.438   9.824  13.485  2.1168  0.5528  1.6924
 1848SOL     OW17268   9.649   2.393   6.566  0.1034  0.3019  0.0652
 1848SOL    HW117269   9.694   2.326   6.516  0.0489 -0.1664  0.6270
 1848SOL    HW217270   9.635   2.353   6.652  0.3961  1.1644  0.5268
 1849SOL     OW17271   3.344   8.659   8.302  1.5071  0.1736  0.5994
 1849SOL    HW117272   3.438   8.675   8.292  1.6233 -1.1252 -0.7572
 1849SOL    HW217273   3.327   8.580   8.250 -0.1288 -0.3327  1.8099
 1850SOL     OW17274   2.530   0.639  11.484  0.2750  0.3107  0.5779
 1850SOL    HW117275   2.446   0.597  11.462  0.7483  0.3301 -1.4847
 1850SOL    HW217276   2.518   0.671  11.573 -1.7810 -0.0417  0.4807
 1851SOL     OW17277   2.751   4.811   9.856 -0.1209  0.0545 -0.2204
 1851SOL    HW117278   2.686   4.846   9.795  1.1848 -0.0677 -1.7384
 1851SOL    HW217279   2.800   4.888   9.885  0.3857 -0.0913 -0.6896
 1852SOL     OW17280  13.241   4.486   4.103 -0.2715 -0.5024 -0.3798
 1852SOL    HW117281  13.214   4.522   4.019 -1.7051  0.2164  0.3544
 1852SOL    HW217282  13.189   4.534   4.168 -0.7652 -2.5036  0.7765
 1853SOL     OW17283   5.736   3.407   4.899  0.3670  0.7031 -0.3714
 1853SOL    HW117284   5.750   3.337   4.835  0.0124  0.4226 -0.1412
 1853SOL    HW217285   5.704   3.481   4.846 -0.1739  0.3909 -0.4845
 1854SOL     OW17286   2.351   9.622  12.586  0.5298  0.6622 -0.0597
 1854SOL    HW117287   2.368   9.568  12.508  0.0388  0.9964 -0.4052
 1854SOL    HW217288   2.275   9.581  12.627  0.8174  0.4588  0.2742
 1855SOL     OW17289   7.984   9.020  13.404  0.7821 -0.4279 -0.5730
 1855SOL    HW117290   8.013   8.957  13.470 -0.2597  0.4742  0.7774
 1855SOL    HW217291   8.039   9.097  13.419  1.0258 -0.4585 -1.2515
 1856SOL     OW17292   5.310   7.673   4.411 -0.2686  0.1014  0.3178
 1856SOL    HW117293   5.282   7.612   4.343  1.4097  0.6772 -0.9660
 1856SOL    HW217294   5.231   7.688   4.464 -1.4351 -0.9499 -1.0341
 1857SOL     OW17295  11.068   2.161   5.376 -0.6875  0.5457  0.1161
 1857SOL    HW117296  11.035   2.172   5.287 -0.9525  0.8943  0.2544
 1857SOL    HW217297  11.095   2.069   5.380  0.9132  0.9340 -0.8367
 1858SOL     OW17298   0.657  12.086   5.244  0.7421 -0.2786  0.5253
 1858SOL    HW117299   0.653  11.993   5.223 -0.5069 -0.2922  0.6999
 1858SOL    HW217300   0.716  12.123   5.178 -0.8530 -0.7869 -1.2983
 1859SOL     OW17301  10.453   7.698   9.382 -0.2972 -0.3667 -0.0059
 1859SOL    HW117302  10.463   7.762   9.453  1.0686 -0.4477 -0.1058
 1859SOL    HW217303  10.411   7.747   9.311  0.4628  0.3440  0.0253
 1860SOL     OW17304   7.749  12.801   5.427  0.1433  0.1526 -0.3254
 1860SOL    HW117305   7.819  12.738   5.443 -0.0962 -0.2152 -0.7041
 1860SOL    HW217306   7.729  12.838   5.513  0.8087  0.2709 -0.2156
 1861SOL     OW17307   0.407   5.468   1.931 -0.1106  0.1659  0.4925
 1861SOL    HW117308   0.316   5.494   1.925 -0.0436  0.1283 -0.9181
 1861SOL    HW217309   0.423   5.458   2.025 -2.3229 -2.5435  0.6933
 1862SOL     OW17310   4.226   9.545   1.949 -0.3326  0.3100 -0.4331
 1862SOL    HW117311   4.162   9.555   2.020 -0.0341 -0.2651 -0.0709
 1862SOL    HW217312   4.258   9.633   1.933 -0.1784  0.4118  0.3715
 1863SOL     OW17313   0.224   8.451  12.036 -0.0198  0.0317 -0.0679
 1863SOL    HW117314   0.237   8.387  11.966  2.7174 -1.3636  1.4903
 1863SOL    HW217315   0.134   8.438  12.064 -1.4893  1.1906 -3.6721
 1864SOL     OW17316   5.937  11.073   9.617 -0.1592 -1.0199  0.2048
 1864SOL    HW117317   5.956  11.004   9.681 -0.0789  0.7224  2.1522
 1864SOL    HW217318   5.852  11.108   9.643  1.3432  1.9574  1.5591
 1865SOL     OW17319  11.406   9.574  11.153  0.1210 -0.6845  0.1859
 1865SOL    HW117320  11.431   9.665  11.139 -0.2731 -0.6481 -0.3175
 1865SOL    HW217321  11.489   9.529  11.171  0.2718 -0.1606  0.8360
 1866SOL     OW17322   5.231   1.508   1.879  0.2074  0.5043 -0.3688
 1866SOL    HW117323   5.315   1.508   1.833  0.9166  1.6131  0.8679
 1866SOL    HW217324   5.253   1.497   1.971 -1.0973 -0.3879 -0.1380
 1867SOL     OW17325   3.005   2.138  12.795  0.4183 -0.0782  0.0399
 1867SOL    HW117326   3.037   2.048  12.788  1.5766  0.3693 -0.6196
 1867SOL    HW217327   2.947   2.137  12.872 -0.1390 -1.5346 -0.3697
 1868SOL     OW17328  11.939   1.688   2.239  0.3501 -0.1555  0.2308
 1868SOL    HW117329  11.961   1.661   2.328 -1.5686 -1.6140  0.3068
 1868SOL    HW217330  12.024   1.697   2.195  1.2488 -1.4758  1.6194
 1869SOL     OW17331  11.063   2.229   6.563  0.1708 -0.1687  0.0250
 1869SOL    HW117332  11.030   2.160   6.620 -0.1359 -0.1657 -0.1490
 1869SOL    HW217333  11.082   2.186   6.480 -2.3290  0.3655 -0.9064
 1870SOL     OW17334  13.519   3.838   0.211 -0.1196  0.5014 -0.1670
 1870SOL    HW117335  13.429   3.810   0.201 -0.4999  1.9908 -1.1893
 1870SOL    HW217336  13.524   3.871   0.301 -0.3824 -0.2565  0.1335
 1871SOL     OW17337  13.063   4.095   6.740 -0.1609  0.4840 -0.4891
 1871SOL    HW117338  13.004   4.031   6.700 -1.2354  1.4022 -0.4318
 1871SOL    HW217339  13.032   4.179   6.707 -0.8149  1.2570  1.8816
 1872SOL     OW17340   1.356   8.689  10.395  0.1795  0.1153 -0.0988
 1872SOL    HW117341   1.421   8.622  10.374  0.8511  0.8120 -0.2784
 1872SOL    HW217342   1.394   8.738  10.467 -0.4786  0.0767  0.2825
 1873SOL     OW17343   3.093   1.065  11.409  0.5856  0.0394 -0.0373
 1873SOL    HW117344   3.105   1.063  11.504  2.2675 -0.6155 -0.2357
 1873SOL    HW217345   3.074   0.974  11.385  1.4391 -0.0301 -0.4710
 1874SOL     OW17346   7.607  11.088   8.038  0.7575 -0.1003  0.2526
 1874SOL    HW117347   7.626  10.995   8.026  0.6566 -0.0036 -0.7453
 1874SOL    HW217348   7.512  11.092   8.042  0.5460  0.2786 -3.0228
 1875SOL     OW17349   0.557   2.221   3.574  0.1217  0.2407  0.3716
 1875SOL    HW117350   0.622   2.243   3.640 -0.7014  3.1021  0.3827
 1875SOL    HW217351   0.473   2.248   3.613 -0.8069 -1.2611 -0.4936
 1876SOL     OW17352   4.306   0.339   8.874  0.2203 -0.6162 -0.2053
 1876SOL    HW117353   4.292   0.245   8.873 -0.0839 -0.5694 -0.7910
 1876SOL    HW217354   4.218   0.377   8.868  0.3349 -0.2934  0.1147
 1877SOL     OW17355   3.357   9.736  11.896  0.0936 -0.2916  0.5798
 1877SOL    HW117356   3.352   9.814  11.952 -0.6955  0.0012  0.1220
 1877SOL    HW217357   3.385   9.769  11.811 -1.0335 -0.3698  0.1576
 1878SOL     OW17358  10.172  11.731  11.352  0.3449  0.6373 -0.0563
 1878SOL    HW117359  10.171  11.638  11.377  3.3684 -0.3910 -2.9645
 1878SOL    HW217360  10.232  11.772  11.413 -1.0062  0.7797  1.2442
 1879SOL     OW17361   8.640   0.754   7.120  0.8994 -0.4755 -0.5562
 1879SOL    HW117362   8.561   0.699   7.123  0.4622  0.1556 -0.2397
 1879SOL    HW217363   8.607   0.844   7.122  1.6585 -0.1955  0.9382
 1880SOL     OW17364  13.369   9.418   1.230 -0.0224  0.1383  0.4331
 1880SOL    HW117365  13.442   9.394   1.172 -2.4410 -3.0209 -1.6805
 1880SOL    HW217366  13.407   9.481   1.291  3.7795  0.6276 -2.0695
 1881SOL     OW17367   6.084   0.782   3.618 -0.1661  0.0811 -0.0058
 1881SOL    HW117368   6.001   0.741   3.597 -0.5206  1.3747 -1.3030
 1881SOL    HW217369   6.146   0.709   3.626 -1.2893 -0.8442  0.3501
 1882SOL     OW17370   9.703   2.590   5.779  0.3209 -0.3601 -0.2074
 1882SOL    HW117371   9.614   2.570   5.808  0.7339 -0.7669  0.7996
 1882SOL    HW217372   9.699   2.579   5.684 -1.0404  0.9735 -0.3446
 1883SOL     OW17373   5.571   0.248  10.864 -0.5365 -0.5265  0.3435
 1883SOL    HW117374   5.635   0.193  10.909  0.4060  0.3157  0.0568
 1883SOL    HW217375   5.598   0.338  10.882 -0.6321 -0.1535 -1.1878
 1884SOL     OW17376   4.712  10.033   4.677  0.0699 -0.1676 -0.0937
 1884SOL    HW117377   4.756  10.036   4.592  2.1553 -2.9981  0.7151
 1884SOL    HW217378   4.746   9.953   4.718 -1.2709  0.7998  3.1946
 1885SOL     OW17379   8.201  10.448   5.415  0.2997  0.1973  0.2335
 1885SOL    HW117380   8.169  10.381   5.355 -0.4616 -0.4244  1.3044
 1885SOL    HW217381   8.227  10.521   5.358 -0.7161 -0.2387 -0.8235
 1886SOL     OW17382  11.970  11.760   4.329 -0.1869 -0.1128 -0.0271
 1886SOL    HW117383  12.049  11.710   4.307 -0.4038 -1.3573  1.7834
 1886SOL    HW217384  12.004  11.840   4.370  0.2533 -1.3488  2.2495
 1887SOL     OW17385   6.474   3.774   5.575 -0.6079  0.4530 -0.2296
 1887SOL    HW117386   6.473   3.679   5.561 -0.7540  0.1450  1.6296
 1887SOL    HW217387   6.560   3.802   5.544  0.9006 -0.8765  2.4032
 1888SOL     OW17388  11.464   0.320   6.253  0.4295  0.3576 -0.0855
 1888SOL    HW117389  11.399   0.253   6.231 -0.9972  2.1313 -1.5603
 1888SOL    HW217390  11.465   0.321   6.349 -2.3236  0.7644  0.0341
 1889SOL     OW17391  12.513  10.854  13.534  0.1370 -0.1330  0.6672
 1889SOL    HW117392  12.509  10.942  13.571  1.4012 -0.9191  2.8535
 1889SOL    HW217393  12.485  10.797  13.606  0.0595 -1.5906 -0.4756
 1890SOL     OW17394  10.343   1.436  10.598  0.5841 -0.1401  0.3993
 1890SOL    HW117395  10.320   1.427  10.505  1.6916 -0.3303  0.1357
 1890SOL    HW217396  10.438   1.443  10.599  0.5558  0.2762  1.4989
 1891SOL     OW17397   7.161   1.292   6.117  0.3199  0.0927 -0.6348
 1891SOL    HW117398   7.110   1.325   6.192  1.6307 -0.1643  0.4043
 1891SOL    HW217399   7.237   1.251   6.157  1.5802  0.8489 -2.1707
 1892SOL     OW17400   4.469   2.006  11.624  0.1071  0.2594 -0.2226
 1892SOL    HW117401   4.474   1.982  11.531 -0.1922 -0.8739  0.0487
 1892SOL    HW217402   4.383   2.048  11.633  0.1076  0.3075 -0.4320
 1893SOL     OW17403   9.314   9.665   8.424  0.5165  0.4422  0.5344
 1893SOL    HW117404   9.327   9.637   8.514  0.1263  0.1584  0.5043
 1893SOL    HW217405   9.220   9.660   8.411  0.3593  2.2857  0.6983
 1894SOL     OW17406   4.927  13.007  11.191 -0.1134  0.3409  0.1734
 1894SOL    HW117407   4.902  13.080  11.247 -0.3455  0.1259  0.3494
 1894SOL    HW217408   4.925  13.044  11.102 -0.6077  0.4459  0.2251
 1895SOL     OW17409   9.451   6.365   5.234 -0.1231 -0.2902 -0.1748
 1895SOL    HW117410   9.401   6.324   5.164 -1.9414 -0.7622  1.3158
 1895SOL    HW217411   9.426   6.458   5.230  0.0050 -0.2641 -0.3503
 1896SOL     OW17412   1.181   3.674   8.437  0.8474  0.1630 -0.0343
 1896SOL    HW117413   1.119   3.604   8.456 -0.2150  0.8354 -0.8807
 1896SOL    HW217414   1.185   3.676   8.341 -1.4413  3.1319 -0.1977
 1897SOL     OW17415  12.977  12.349   2.551  0.1958  0.3521  0.0847
 1897SOL    HW117416  13.022  12.403   2.616 -1.9265  0.3822  1.6204
 1897SOL    HW217417  13.006  12.384   2.466  0.2387  2.7503  1.0285
 1898SOL     OW17418   9.580   3.852  11.312  0.1051  0.0141  0.1826
 1898SOL    HW117419   9.591   3.764  11.276  0.9963 -0.2694  1.0998
 1898SOL    HW217420   9.565   3.907  11.235 -0.4264 -0.9189 -0.4105
 1899SOL     OW17421   7.982   8.678   4.525 -0.0139  0.0386 -0.1246
 1899SOL    HW117422   8.054   8.726   4.567  0.2764  0.3608 -0.9835
 1899SOL    HW217423   8.024   8.606   4.480 -0.4238 -0.8851  0.9266
 1900SOL     OW17424   7.563   2.716   7.900 -0.1177  0.2965 -0.9166
 1900SOL    HW117425   7.628   2.786   7.914  0.4501 -0.5669  1.0859
 1900SOL    HW217426   7.481   2.753   7.931 -0.1124  0.5565 -1.2028
 1901SOL     OW17427   8.435   9.949   7.560  0.0924 -0.3673 -0.6778
 1901SOL    HW117428   8.417   9.954   7.654 -0.6519  1.8828 -0.8690
 1901SOL    HW217429   8.394   9.867   7.532 -2.2659  0.2969  0.5102
 1902SOL     OW17430  13.632   3.584   9.340  0.1780  0.1619 -0.6863
 1902SOL    HW117431  13.555   3.591   9.397  1.0830  2.3588  0.3621
 1902SOL    HW217432  13.648   3.674   9.310  2.2370 -0.2710 -1.0105
 1903SOL     OW17433   8.155   6.851   6.387  0.0805  0.4700  0.6583
 1903SOL    HW117434   8.072   6.888   6.359 -0.0727  0.0316  0.5258
 1903SOL    HW217435   8.222   6.908   6.349 -0.1702  1.5144  1.7239
 1904SOL     OW17436   9.561   5.795   0.196 -0.5083  0.4891 -0.0551
 1904SOL    HW117437   9.476   5.839   0.193  0.1122  1.6864 -1.4585
 1904SOL    HW217438   9.610   5.832   0.123  1.7083  0.7785  1.4768
 1905SOL     OW17439   0.408  12.421   1.310 -0.2145 -0.5470 -0.0741
 1905SOL    HW117440   0.359  12.431   1.229 -0.4227 -1.3034 -0.0520
 1905SOL    HW217441   0.344  12.440   1.379 -0.6025 -1.8696 -0.0331
 1906SOL     OW17442   7.410   2.013   9.348 -0.5226  0.4017 -0.2391
 1906SOL    HW117443   7.450   2.033   9.432 -2.7149  0.4796  0.8424
 1906SOL    HW217444   7.435   2.087   9.292  2.7851 -0.6955 -0.4256
 1907SOL     OW17445  11.365  12.993   5.475  0.0355  0.2155 -0.0948
 1907SOL    HW117446  11.441  12.946   5.440  0.0983 -0.5635  1.0317
 1907SOL    HW217447  11.347  12.950   5.558 -0.2299  1.8615  0.7458
 1908SOL     OW17448  12.088  12.665   0.109  0.1293 -0.2417  0.5306
 1908SOL    HW117449  12.178  12.671   0.141  0.5176 -2.5980  0.1265
 1908SOL    HW217450  12.036  12.712   0.174  1.6224  1.0713  0.8367
 1909SOL     OW17451   2.947   5.864   9.368 -0.0842  0.0324 -0.5514
 1909SOL    HW117452   2.945   5.925   9.294  1.6888 -1.6179 -2.0190
 1909SOL    HW217453   3.035   5.828   9.368 -0.4692 -1.0530  1.5407
 1910SOL     OW17454   2.964   7.072  13.198  0.0947 -0.0938  0.6235
 1910SOL    HW117455   2.889   7.103  13.249  0.5981 -0.4875  1.6334
 1910SOL    HW217456   3.029   7.142  13.207  0.2576 -0.2530  0.6869
 1911SOL     OW17457  11.380  10.190   3.251  0.5730  0.2254 -0.0401
 1911SOL    HW117458  11.466  10.211   3.287  0.5870 -0.9016  0.6483
 1911SOL    HW217459  11.320  10.252   3.294  0.9849  0.7590 -0.2338
 1912SOL     OW17460   2.819   2.778   1.507 -0.2981 -0.7981 -0.1366
 1912SOL    HW117461   2.793   2.836   1.435  0.3747  0.4316  0.5726
 1912SOL    HW217462   2.806   2.831   1.586 -1.0930 -2.1462  0.6634
 1913SOL     OW17463  12.346  10.333   5.030 -0.4391 -0.9070 -0.5259
 1913SOL    HW117464  12.376  10.312   5.118 -2.6048  0.3844  0.6207
 1913SOL    HW217465  12.394  10.273   4.973  2.5728 -0.4223  1.2733
 1914SOL     OW17466   3.856   3.006  11.271 -0.5736  0.1876  0.3452
 1914SOL    HW117467   3.945   2.971  11.274 -1.2614 -1.6621  0.3792
 1914SOL    HW217468   3.837   3.018  11.178 -1.0636 -1.6088  0.1823
 1915SOL     OW17469   8.337  12.838   9.204 -0.5419  0.3789  0.2616
 1915SOL    HW117470   8.300  12.783   9.273  0.5969 -0.7498  0.0180
 1915SOL    HW217471   8.406  12.888   9.247  0.2876 -0.4534 -0.0592
 1916SOL     OW17472  11.580   9.663  10.417 -0.9529  0.0905 -0.1159
 1916SOL    HW117473  11.614   9.639  10.331 -1.1069  0.3409 -0.2459
 1916SOL    HW217474  11.611   9.593  10.475  0.6221  0.8310 -0.0403
 1917SOL     OW17475   8.612   7.296  10.118 -0.7440 -0.2021 -0.2912
 1917SOL    HW117476   8.537   7.349  10.092 -1.1129 -1.1162 -1.1386
 1917SOL    HW217477   8.594   7.269  10.207  0.5803  3.0758  1.1404
 1918SOL     OW17478  11.643   6.725  12.164 -0.4426  0.0360 -0.6360
 1918SOL    HW117479  11.647   6.736  12.259  2.4323 -2.7753 -0.2465
 1918SOL    HW217480  11.725   6.762  12.132  0.0891 -1.8254 -1.5698
 1919SOL     OW17481   3.102   8.835  11.677 -0.0926 -0.2698  0.1685
 1919SOL    HW117482   3.115   8.927  11.700 -0.5626 -0.1717  0.0414
 1919SOL    HW217483   3.073   8.793  11.758 -2.7040  0.2649 -0.4057
 1920SOL     OW17484  11.239   0.762   0.478 -0.0813 -0.4348  0.5445
 1920SOL    HW117485  11.261   0.716   0.560 -0.2133 -1.5719 -0.0299
 1920SOL    HW217486  11.236   0.854   0.502 -1.3016 -0.8360  2.1024
 1921SOL     OW17487   9.425   2.272   1.998 -0.7790  0.4240 -0.0895
 1921SOL    HW117488   9.381   2.238   2.076  0.2884  0.5377  0.5880
 1921SOL    HW217489   9.452   2.360   2.023  0.6654  0.0164 -0.1363
 1922SOL     OW17490   2.043  10.515   8.633  0.1188  0.4336 -0.0535
 1922SOL    HW117491   2.095  10.449   8.679 -0.4155  1.2417  1.8117
 1922SOL    HW217492   2.003  10.468   8.560  0.7575 -1.0023  0.4882
 1923SOL     OW17493  11.287  12.864  11.083 -0.4500 -0.3107 -0.3528
 1923SOL    HW117494  11.258  12.828  11.167 -2.2765 -0.3251 -0.9502
 1923SOL    HW217495  11.208  12.904  11.045  0.2501 -0.5684 -2.1891
 1924SOL     OW17496  13.709   9.610  10.058  0.1765 -0.4726 -0.9334
 1924SOL    HW117497  13.797   9.573  10.061 -0.2170 -1.3962 -0.5972
 1924SOL    HW217498  13.714   9.676   9.989  1.9605  1.6797  1.0335
 1925SOL     OW17499  10.051   1.215   0.498 -0.1125  0.4775  0.3421
 1925SOL    HW117500   9.992   1.289   0.509  0.0944  0.7472 -0.2701
 1925SOL    HW217501  10.002   1.153   0.444  0.2432  0.8230 -0.4069
 1926SOL     OW17502   5.112   9.452   2.519  0.1786 -0.2356 -0.1983
 1926SOL    HW117503   5.203   9.469   2.545 -0.3536  2.9549 -0.0077
 1926SOL    HW217504   5.112   9.464   2.424 -0.2167  0.8329 -0.0706
 1927SOL     OW17505  11.773   4.813  12.363 -0.3919  0.1819 -0.0242
 1927SOL    HW117506  11.797   4.754  12.292 -0.7425 -0.2332  0.1968
 1927SOL    HW217507  11.757   4.755  12.438 -0.7123  0.5564  0.2021
 1928SOL     OW17508  13.582   9.107   9.224 -0.1611  0.2694  0.2908
 1928SOL    HW117509  13.656   9.167   9.219 -1.3957  1.8063 -0.4837
 1928SOL    HW217510  13.568   9.077   9.134  0.3580 -1.1344  0.6456
 1929SOL     OW17511   3.302   7.498   7.542 -0.1016 -1.0242 -0.1296
 1929SOL    HW117512   3.394   7.472   7.535 -0.4162 -2.3860  0.4638
 1929SOL    HW217513   3.255   7.437   7.485 -0.7623 -1.1433  0.5211
 1930SOL     OW17514   2.546   9.382   8.066 -0.0622 -0.1964 -0.6708
 1930SOL    HW117515   2.493   9.422   7.997 -1.6172  3.2382  2.2447
 1930SOL    HW217516   2.631   9.426   8.060 -0.0762 -0.1598 -0.5969
 1931SOL     OW17517   4.344   3.799   7.928 -0.2948  0.0205  0.2606
 1931SOL    HW117518   4.251   3.798   7.948 -0.1785  0.8015  0.8946
 1931SOL    HW217519   4.384   3.743   7.995 -0.3729 -0.8712 -0.4215
 1932SOL     OW17520   7.374   5.216   9.449 -0.0725  0.1845  0.1139
 1932SOL    HW117521   7.372   5.136   9.396  0.8993  1.3146 -1.7357
 1932SOL    HW217522   7.467   5.232   9.464 -0.3016  0.5123  1.2028
 1933SOL     OW17523  10.204   2.722   6.961  0.4588 -0.4394 -0.6273
 1933SOL    HW117524  10.230   2.630   6.970  0.7663 -0.1921  1.5116
 1933SOL    HW217525  10.119   2.727   7.006  0.0726  0.1860 -1.4030
 1934SOL     OW17526   7.759  13.277  13.549 -0.2782 -0.2677  0.4031
 1934SOL    HW117527   7.827  13.223  13.509  0.7717  0.1086  1.6187
 1934SOL    HW217528   7.681  13.260  13.496  1.3701  1.4925 -2.9069
 1935SOL     OW17529   0.116   9.386   5.108  0.4616 -0.3628  0.0696
 1935SOL    HW117530   0.025   9.357   5.109  0.6268 -0.8748  0.1513
 1935SOL    HW217531   0.139   9.394   5.200  1.1879 -2.4035  0.1002
 1936SOL     OW17532   2.760  11.620   3.689 -0.2301 -0.1202 -0.6867
 1936SOL    HW117533   2.831  11.561   3.714 -0.9180  0.1166  2.1843
 1936SOL    HW217534   2.732  11.589   3.603  1.0464 -2.3982 -0.3631
 1937SOL     OW17535   1.105   0.975   2.250  0.3302 -0.2078 -0.1162
 1937SOL    HW117536   1.076   0.893   2.288 -0.1573  0.3898  0.8451
 1937SOL    HW217537   1.055   1.042   2.297  0.6013  0.6274 -0.9865
 1938SOL     OW17538  10.559   5.129   9.349  0.3735 -0.1638 -0.0586
 1938SOL    HW117539  10.540   5.036   9.340  1.1377 -0.2580 -0.7665
 1938SOL    HW217540  10.603   5.137   9.434 -2.4209  0.0206  1.4993
 1939SOL     OW17541   8.651   1.808   6.461 -0.1688  0.5811  0.0582
 1939SOL    HW117542   8.672   1.797   6.368 -0.6138  1.1875 -0.1211
 1939SOL    HW217543   8.559   1.782   6.468 -0.2352  0.8671  0.2626
 1940SOL     OW17544  11.355   3.439   7.743  0.0226 -0.1951 -0.1993
 1940SOL    HW117545  11.369   3.523   7.785 -0.0241 -1.2096  1.9900
 1940SOL    HW217546  11.424   3.383   7.777  0.4515 -0.9299 -2.1139
 1941SOL     OW17547   8.177  10.319  11.773 -0.8949 -0.0022 -0.2083
 1941SOL    HW117548   8.193  10.286  11.862 -0.5188  0.9944  0.1052
 1941SOL    HW217549   8.219  10.255  11.716 -0.1089 -0.0437  0.3948
 1942SOL     OW17550  11.790  10.149   1.423 -0.1730 -0.6515 -0.3715
 1942SOL    HW117551  11.801  10.244   1.436  0.2901 -0.7048 -0.3620
 1942SOL    HW217552  11.850  10.109   1.486  1.3538 -0.9282 -1.9393
 1943SOL     OW17553  11.825   8.127   1.689 -0.4995  0.0704  0.6048
 1943SOL    HW117554  11.812   8.169   1.604  0.9731 -1.1552 -0.2754
 1943SOL    HW217555  11.788   8.039   1.678 -0.4647 -0.0358  1.2982
 1944SOL     OW17556  12.179   0.259   5.430  0.0601  0.3817  0.1959
 1944SOL    HW117557  12.201   0.314   5.355  0.8426 -0.1154  0.0455
 1944SOL    HW217558  12.153   0.320   5.498  0.2776  0.8995 -0.1785
 1945SOL     OW17559   1.760  10.537   1.419 -0.4104  0.6506 -1.0107
 1945SOL    HW117560   1.830  10.534   1.485 -0.6990 -1.5731 -0.7179
 1945SOL    HW217561   1.724  10.626   1.426  0.9743  1.1517  0.3232
 1946SOL     OW17562   9.563   0.571  12.140 -0.2862  0.4846 -0.1393
 1946SOL    HW117563   9.625   0.635  12.174  0.8943  0.2519 -1.7274
 1946SOL    HW217564   9.607   0.534  12.063 -1.7746 -0.7901 -0.4184
 1947SOL     OW17565   0.775   2.186   7.970 -0.1930 -0.6466  0.1404
 1947SOL    HW117566   0.788   2.122   8.041 -1.4817 -1.7558 -0.5747
 1947SOL    HW217567   0.806   2.269   8.007  0.0805 -1.3754  1.6526
 1948SOL     OW17568   7.527  13.255   7.146 -0.0275  0.1601  0.2722
 1948SOL    HW117569   7.493  13.246   7.057  0.5374  0.8698 -0.0264
 1948SOL    HW217570   7.479  13.329   7.183 -1.6666 -1.3202  1.2609
 1949SOL     OW17571   7.252   6.314   0.084  0.4161  0.0768 -0.1700
 1949SOL    HW117572   7.162   6.330   0.114  0.0155  1.0021 -1.7391
 1949SOL    HW217573   7.241   6.267   0.001  1.4095 -0.1902 -0.1583
 1950SOL     OW17574   5.113   9.905   0.124  0.1477  0.4219 -0.3391
 1950SOL    HW117575   5.018   9.898   0.137 -0.1070  3.9110  0.7479
 1950SOL    HW217576   5.123   9.956   0.044  0.9589  2.0674  0.7418
 1951SOL     OW17577   4.027   4.521  11.415 -0.8559  0.1964 -0.0358
 1951SOL    HW117578   4.111   4.494  11.379 -0.0106  1.0345  1.2334
 1951SOL    HW217579   3.971   4.535  11.338  0.5033  0.7313 -0.9556
 1952SOL     OW17580   4.027   6.533   5.344  0.4093  0.0710  0.2385
 1952SOL    HW117581   4.023   6.481   5.264  2.7024  0.8108 -0.4483
 1952SOL    HW217582   3.992   6.475   5.412 -1.2946 -0.6755 -1.2229
 1953SOL     OW17583   6.118   5.876  11.135 -0.4925  0.1598  0.3674
 1953SOL    HW117584   6.102   5.789  11.171  0.9878  0.6265  2.3309
 1953SOL    HW217585   6.213   5.882  11.128 -0.5465  1.7203  0.5819
 1954SOL     OW17586   9.940  13.610  12.768  0.1656 -0.1737 -0.2050
 1954SOL    HW117587   9.925  13.567  12.684  0.3154  1.0914 -0.9066
 1954SOL    HW217588  10.031  13.590  12.791  0.3743  0.1451 -0.7506
 1955SOL     OW17589   1.233   5.636   8.813  0.1128 -0.0778 -0.1026
 1955SOL    HW117590   1.165   5.585   8.857 -1.0741  0.5491 -1.1111
 1955SOL    HW217591   1.258   5.703   8.877  1.2048 -1.4837  0.9820
 1956SOL     OW17592  11.713   8.709   8.847  0.5471 -0.0060  0.0288
 1956SOL    HW117593  11.663   8.640   8.802 -0.5873  0.2491  0.8648
 1956SOL    HW217594  11.749   8.762   8.776  1.9042 -1.7444 -0.6631
 1957SOL     OW17595   8.804   3.516   0.680  0.1736  0.0314 -0.0078
 1957SOL    HW117596   8.842   3.440   0.635  0.0483 -0.8960  1.3870
 1957SOL    HW217597   8.880   3.572   0.699  0.6590 -0.9528  1.1436
 1958SOL     OW17598   8.753   7.248   4.175  0.1424 -0.2323  0.8348
 1958SOL    HW117599   8.755   7.334   4.218  0.2058  0.1587  0.0802
 1958SOL    HW217600   8.662   7.219   4.183  0.1025 -0.0545  1.0208
 1959SOL     OW17601   0.528  10.746   3.837  0.1890 -0.0068  0.4719
 1959SOL    HW117602   0.586  10.671   3.851  0.2622 -0.1382 -0.4420
 1959SOL    HW217603   0.504  10.740   3.744 -1.3837 -0.0218  0.8480
 1960SOL     OW17604   5.277   2.984   5.536  0.7750  0.2276  1.0149
 1960SOL    HW117605   5.360   2.943   5.560  0.9152 -0.8732 -1.1463
 1960SOL    HW217606   5.228   2.915   5.492 -1.5045  0.7338  2.5843
 1961SOL     OW17607   1.101  13.729   5.237  0.3862 -1.0864  0.3121
 1961SOL    HW117608   1.112  13.671   5.162 -0.2533 -0.6155 -0.1547
 1961SOL    HW217609   1.167  13.699   5.301 -0.2723 -2.6383  0.2942
 1962SOL     OW17610  12.746   1.701   7.371 -0.2443  0.1669  0.0170
 1962SOL    HW117611  12.743   1.743   7.457 -1.3389 -1.1946  0.6690
 1962SOL    HW217612  12.664   1.727   7.329 -0.1541  0.0446 -0.2376
 1963SOL     OW17613   3.534  12.823   5.936 -0.2414  0.0729  0.0075
 1963SOL    HW117614   3.576  12.770   6.004  0.7066  0.5790 -0.1688
 1963SOL    HW217615   3.607  12.857   5.884 -0.7724  2.0898  0.5089
 1964SOL     OW17616   6.733   0.479   0.518  0.4195 -0.3617  0.1613
 1964SOL    HW117617   6.771   0.523   0.442  3.5394  0.9080  2.2399
 1964SOL    HW217618   6.745   0.386   0.501  2.5277 -0.0537 -0.2897
 1965SOL     OW17619  10.844   0.633   1.416  0.0808 -0.3368 -0.1814
 1965SOL    HW117620  10.785   0.590   1.354  0.8129  0.1231 -1.2365
 1965SOL    HW217621  10.793   0.704   1.453 -0.6241 -1.1075  0.3632
 1966SOL     OW17622  11.702   8.582   4.948 -0.2915  0.5183 -0.9894
 1966SOL    HW117623  11.730   8.663   4.905 -0.0008  0.4783 -0.8797
 1966SOL    HW217624  11.711   8.514   4.880 -0.0578  0.4950 -0.9364
 1967SOL     OW17625   4.711   0.331  10.123  0.0941  1.0019 -0.4001
 1967SOL    HW117626   4.666   0.353  10.205  0.4219  0.0356  0.0577
 1967SOL    HW217627   4.732   0.238  10.132 -1.2277  0.4575 -2.2308
 1968SOL     OW17628   6.791   5.495   8.838  0.4122  0.4743  0.3675
 1968SOL    HW117629   6.841   5.454   8.767 -0.3971 -0.0989  0.1195
 1968SOL    HW217630   6.853   5.500   8.911  1.2325  0.9974 -0.3363
 1969SOL     OW17631  12.912   7.655   2.477  0.2071 -0.2541  0.0440
 1969SOL    HW117632  12.880   7.745   2.474  0.5408 -0.1482 -1.9547
 1969SOL    HW217633  12.863   7.611   2.408  1.5789 -1.0481 -0.4634
 1970SOL     OW17634   7.956   6.838   6.652  0.8220 -0.3168  0.7107
 1970SOL    HW117635   7.977   6.916   6.704  1.2143  1.1137 -1.4666
 1970SOL    HW217636   7.929   6.873   6.567 -0.3605 -2.5332  0.1100
 1971SOL     OW17637   2.212   9.436   5.205  0.2686 -0.0900 -0.4756
 1971SOL    HW117638   2.171   9.441   5.291 -0.1479  0.2193 -0.6933
 1971SOL    HW217639   2.280   9.504   5.207 -1.9058  2.2912 -1.5446
 1972SOL     OW17640   5.183   7.644   5.684  0.2543  0.7632 -0.0047
 1972SOL    HW117641   5.126   7.716   5.713 -0.2709  0.1567  0.4810
 1972SOL    HW217642   5.239   7.627   5.759  0.0913  0.3816  0.0319
 1973SOL     OW17643   2.366   8.051   4.911  0.1830  0.1795 -0.4771
 1973SOL    HW117644   2.405   8.076   4.994 -0.4951  0.8755 -0.3618
 1973SOL    HW217645   2.286   8.103   4.904 -1.1104 -1.6916 -0.3924
 1974SOL     OW17646   1.752   3.424   3.508 -0.1535  0.4701 -0.0999
 1974SOL    HW117647   1.675   3.373   3.532  1.2779 -1.3617  0.9529
 1974SOL    HW217648   1.757   3.493   3.575 -1.2263  1.0364 -0.5814
 1975SOL     OW17649   8.003  13.181   2.102  0.1460  0.2637 -0.2922
 1975SOL    HW117650   7.973  13.090   2.098 -0.6173  0.5369 -1.1109
 1975SOL    HW217651   8.065  13.182   2.175 -0.3643 -0.7532  0.1835
 1976SOL     OW17652   9.174   2.215   2.563 -0.2878 -0.4038  0.1058
 1976SOL    HW117653   9.147   2.231   2.473 -0.8157  0.2294  0.3686
 1976SOL    HW217654   9.149   2.125   2.580 -0.6105 -0.3810 -0.2315
 1977SOL     OW17655  12.881   8.456   8.055 -0.0021 -0.3589  0.6331
 1977SOL    HW117656  12.804   8.505   8.025  0.9530  0.6594 -0.2294
 1977SOL    HW217657  12.950   8.478   7.992  1.3454 -0.2856  2.0840
 1978SOL     OW17658   6.105   0.991  10.377  0.4411  0.3416  0.3010
 1978SOL    HW117659   6.110   1.033  10.291 -0.3717  0.4730  0.3161
 1978SOL    HW217660   6.029   0.932  10.370  2.0419 -1.8283 -0.0373
 1979SOL     OW17661   6.888   8.689   0.121 -0.0837 -0.1773  0.6742
 1979SOL    HW117662   6.937   8.760   0.079  0.6736 -1.0680  0.0218
 1979SOL    HW217663   6.953   8.621   0.137 -1.1417 -1.4892 -0.4177
 1980SOL     OW17664   3.100   8.972   4.816  0.0495 -0.4960 -0.2705
 1980SOL    HW117665   3.135   9.022   4.889 -0.0013 -0.0755 -0.5297
 1980SOL    HW217666   3.147   8.889   4.818  0.1446 -0.4312  0.1535
 1981SOL     OW17667   8.199  12.228   8.614 -0.0317  0.2896 -0.6113
 1981SOL    HW117668   8.153  12.182   8.684  0.8474  1.0125  0.4686
 1981SOL    HW217669   8.292  12.211   8.630  0.2112  0.9482 -1.2614
 1982SOL     OW17670   7.106   0.733  12.443 -0.1903  0.5084 -0.2869
 1982SOL    HW117671   7.050   0.661  12.412 -1.4454  1.1700  0.4165
 1982SOL    HW217672   7.175   0.689  12.492 -1.1865 -0.2139  0.5072
 1983SOL     OW17673   7.567   9.072   0.152  0.1842  0.0973 -0.8381
 1983SOL    HW117674   7.481   9.030   0.151  0.3267 -0.2104 -0.2871
 1983SOL    HW217675   7.606   9.048   0.068 -0.8285  1.4354 -1.7386
 1984SOL     OW17676   9.690   4.344   3.725 -0.1361  0.3309  0.1941
 1984SOL    HW117677   9.631   4.411   3.760  0.0048  0.0067  1.0921
 1984SOL    HW217678   9.640   4.302   3.655 -1.3038 -0.4589  1.4382
 1985SOL     OW17679   5.057  10.287   3.394 -0.4563 -0.2027  0.0560
 1985SOL    HW117680   5.065  10.201   3.436 -2.2695 -0.3076  0.2438
 1985SOL    HW217681   5.089  10.349   3.459  0.1526 -0.6562  0.1981
 1986SOL     OW17682   9.762   0.653   8.312  0.2475 -0.1929  0.3020
 1986SOL    HW117683   9.830   0.692   8.366  0.5403  1.2158 -1.0172
 1986SOL    HW217684   9.680   0.676   8.356  0.5362 -0.3815  0.9493
 1987SOL     OW17685  11.525   8.851   6.180  0.1429  0.3242  0.0806
 1987SOL    HW117686  11.438   8.862   6.141  1.0897  1.1412 -1.9346
 1987SOL    HW217687  11.585   8.881   6.113  1.9875  0.3288  1.6483
 1988SOL     OW17688  10.386   4.407   7.595  0.0040  0.4366 -0.5285
 1988SOL    HW117689  10.398   4.315   7.620 -1.5937  0.3871  0.1547
 1988SOL    HW217690  10.465   4.428   7.545  0.3173 -1.3610 -0.8736
 1989SOL     OW17691   7.059  13.002  10.260  0.5395  0.3127  0.1679
 1989SOL    HW117692   7.090  13.021  10.348  1.9645 -0.7777 -0.0741
 1989SOL    HW217693   7.136  12.973  10.212 -0.0932  1.2965 -1.5927
 1990SOL     OW17694  12.789   8.977  12.244 -0.0473  0.0280  0.4288
 1990SOL    HW117695  12.807   9.003  12.334  1.3025  1.7026 -0.2605
 1990SOL    HW217696  12.724   8.907  12.251 -0.2645  0.3941  2.6561
 1991SOL     OW17697  11.077   8.564  10.186 -0.5575 -0.0204 -0.4773
 1991SOL    HW117698  11.028   8.646  10.174 -0.3468  0.3078  0.7229
 1991SOL    HW217699  11.011   8.495  10.182 -1.1591  0.4194  1.1632
 1992SOL     OW17700   7.776   2.192   9.901  0.1249 -0.3447  0.5753
 1992SOL    HW117701   7.864   2.190   9.938  0.1196 -2.1162  0.5658
 1992SOL    HW217702   7.718   2.210   9.975  0.4189 -0.0282  0.7284
 1993SOL     OW17703   0.870   0.581  13.090  0.5318  0.0096 -0.9373
 1993SOL    HW117704   0.886   0.569  12.996  2.4614 -1.0735 -0.5208
 1993SOL    HW217705   0.955   0.565  13.131 -0.3712  0.0275  1.0405
 1994SOL     OW17706  11.355  11.552   1.808 -0.0266 -0.2159  0.0821
 1994SOL    HW117707  11.324  11.588   1.891  0.8806  1.0725 -0.1214
 1994SOL    HW217708  11.450  11.558   1.812  0.0655 -0.8873 -0.7232
 1995SOL     OW17709   4.757  10.849   1.865 -0.0484  0.4021  0.3066
 1995SOL    HW117710   4.732  10.928   1.816  0.3677 -0.0665 -0.6971
 1995SOL    HW217711   4.684  10.834   1.926 -1.3401  0.1518 -1.2188
 1996SOL     OW17712  11.649   1.623   7.830 -0.2411 -0.3794 -0.5286
 1996SOL    HW117713  11.722   1.652   7.884  0.0525  1.2572 -1.7216
 1996SOL    HW217714  11.684   1.549   7.779  0.6054  0.3877 -1.0812
 1997SOL     OW17715   4.079   4.635   0.260  0.2823 -0.2452 -0.8854
 1997SOL    HW117716   4.158   4.686   0.244  0.9711 -1.2070 -0.6337
 1997SOL    HW217717   4.090   4.602   0.350 -0.1908 -0.7480 -1.0078
 1998SOL     OW17718   9.812  11.273   5.955  0.1937  0.0067  0.1826
 1998SOL    HW117719   9.766  11.355   5.935 -0.8991 -0.6989 -0.2750
 1998SOL    HW217720   9.901  11.287   5.920  0.5130  1.5503  1.4570
 1999SOL     OW17721  12.609   2.861   6.265 -0.3120 -0.7853 -0.1666
 1999SOL    HW117722  12.596   2.923   6.193  1.7488 -3.2658 -2.9440
 1999SOL    HW217723  12.533   2.802   6.260  0.2428 -1.4603 -0.9528
 2000SOL     OW17724   5.361   4.346   6.745 -0.0659  0.1656 -0.0660
 2000SOL    HW117725   5.353   4.270   6.802  1.5600 -0.7273 -0.9422
 2000SOL    HW217726   5.298   4.409   6.779 -1.9056 -1.7783  0.3215
 2001SOL     OW17727   1.872  10.960   8.344 -0.0787 -0.4086  0.0131
 2001SOL    HW117728   1.856  10.987   8.254 -0.1721  0.2403  0.2202
 2001SOL    HW217729   1.807  11.009   8.396  0.4126 -0.2694  0.5019
 2002SOL     OW17730   3.969   9.845  11.075  0.4944  0.2321 -0.0217
 2002SOL    HW117731   3.932   9.836  10.987  1.6760 -2.4764 -0.3424
 2002SOL    HW217732   3.893   9.845  11.133 -0.2903  1.8790 -0.9779
 2003SOL     OW17733   3.871   7.435   6.859 -0.3675 -0.1119  0.6156
 2003SOL    HW117734   3.790   7.406   6.817 -0.6574  0.3809  0.8307
 2003SOL    HW217735   3.859   7.529   6.873  0.3959  0.0400  0.3100
 2004SOL     OW17736   1.409  13.051  11.658  0.3985 -0.3621 -0.7896
 2004SOL    HW117737   1.447  13.115  11.598  0.5023  0.7844  0.4305
 2004SOL    HW217738   1.485  13.003  11.692  0.5980  0.5494  0.1163
 2005SOL     OW17739   6.177   1.650   8.179 -0.0887 -0.4822  0.4543
 2005SOL    HW117740   6.134   1.589   8.118  0.4683 -0.2650 -0.1756
 2005SOL    HW217741   6.231   1.594   8.234 -3.0199 -1.0806  2.9781
 2006SOL     OW17742   0.102   5.522   5.958 -0.4423 -0.5794 -0.1446
 2006SOL    HW117743   0.108   5.492   6.049 -1.3203  1.7979  0.7623
 2006SOL    HW217744   0.167   5.469   5.911  0.5327 -1.3909  1.9977
 2007SOL     OW17745   0.361   1.492  11.989  0.3654 -0.4762  0.4184
 2007SOL    HW117746   0.327   1.533  12.069  0.7262  0.6627  0.0061
 2007SOL    HW217747   0.363   1.398  12.010  0.7853 -0.1762  1.8779
 2008SOL     OW17748   5.824   2.528  11.188  0.2088  0.5935 -0.0645
 2008SOL    HW117749   5.904   2.491  11.151 -0.5502  1.4768 -2.8511
 2008SOL    HW217750   5.839   2.622  11.187 -0.1804  0.6777  1.1517
 2009SOL     OW17751   7.586   3.403   5.437 -0.8260 -0.6448  0.2577
 2009SOL    HW117752   7.668   3.403   5.387 -0.4570  0.1349  0.8371
 2009SOL    HW217753   7.565   3.495   5.450  0.4958 -0.6733  3.7440
 2010SOL     OW17754  11.134   2.439   6.745  0.3709 -0.3468 -0.1691
 2010SOL    HW117755  11.055   2.486   6.772  0.8496 -0.9043  2.5078
 2010SOL    HW217756  11.101   2.360   6.703 -0.4308  1.6754 -3.6979
 2011SOL     OW17757   0.180   0.768   2.072 -0.3929 -0.8471  0.5993
 2011SOL    HW117758   0.177   0.838   2.137  0.2527 -1.0508  0.8611
 2011SOL    HW217759   0.164   0.812   1.988 -0.4903 -0.4681  0.8174
 2012SOL     OW17760   4.647   1.810  10.526  0.0338  0.0245  0.5070
 2012SOL    HW117761   4.621   1.901  10.540  0.0114  0.1379 -0.2147
 2012SOL    HW217762   4.600   1.784  10.447  2.0325  0.2123 -0.8134
 2013SOL     OW17763  13.576   0.803  11.041  0.0485 -0.1821  0.2559
 2013SOL    HW117764  13.535   0.890  11.048  1.0523  0.2378  1.2133
 2013SOL    HW217765  13.557   0.775  10.951 -0.4521  0.9406 -0.0125
 2014SOL     OW17766   5.049   7.731  10.618  0.3662 -0.3177  0.0294
 2014SOL    HW117767   5.000   7.706  10.696 -0.2210 -1.1958 -0.6000
 2014SOL    HW217768   4.986   7.724  10.547  0.2785  2.6112 -0.2924
 2015SOL     OW17769   0.386  11.916   0.802 -0.6026 -0.0759 -0.6017
 2015SOL    HW117770   0.403  11.823   0.817  0.2942 -0.2900 -2.6910
 2015SOL    HW217771   0.457  11.960   0.848 -0.0564 -0.5110 -1.0164
 2016SOL     OW17772   6.860  10.875   3.670 -0.3979 -0.1068 -0.7266
 2016SOL    HW117773   6.835  10.966   3.683 -0.4663 -0.2829  0.5371
 2016SOL    HW217774   6.954  10.873   3.686 -0.8479 -0.7456  2.5288
 2017SOL     OW17775   2.148   1.831   7.063  0.2319  0.0543 -0.1364
 2017SOL    HW117776   2.207   1.761   7.093  0.5638  0.0303 -0.8414
 2017SOL    HW217777   2.098   1.854   7.142 -0.5471 -1.6193 -0.0852
 2018SOL     OW17778   3.384   1.446   3.742  0.3587 -0.0449  0.1187
 2018SOL    HW117779   3.328   1.374   3.712  1.4373 -1.0305  0.3894
 2018SOL    HW217780   3.458   1.446   3.682  1.5710 -0.7689  1.5510
 2019SOL     OW17781  11.804   4.432   1.038  0.0412  0.6428 -0.1137
 2019SOL    HW117782  11.764   4.506   0.991 -0.4499 -0.9367 -2.3207
 2019SOL    HW217783  11.738   4.405   1.102 -1.4155 -0.2422 -1.9061
 2020SOL     OW17784   1.380   3.336   6.565  0.0207 -0.2265 -0.4949
 2020SOL    HW117785   1.392   3.242   6.581  0.6581 -0.2278 -0.9208
 2020SOL    HW217786   1.453   3.377   6.611 -1.1820  0.2094  1.0780
 2021SOL     OW17787   3.721   0.695   0.107 -0.2453 -0.2595 -0.2026
 2021SOL    HW117788   3.786   0.625   0.099 -0.1233 -0.6658  3.0042
 2021SOL    HW217789   3.636   0.650   0.104 -0.3973  0.0629 -2.5609
 2022SOL     OW17790   9.754  11.832   9.742 -0.3696  1.2297  0.0221
 2022SOL    HW117791   9.799  11.781   9.675 -0.8414 -0.3130  0.8232
 2022SOL    HW217792   9.662  11.807   9.733 -0.2864 -0.0619  2.0558
 2023SOL     OW17793   4.148  11.739   1.408  0.5414 -0.0341 -0.0453
 2023SOL    HW117794   4.181  11.813   1.459 -2.5227  3.5595 -2.7500
 2023SOL    HW217795   4.177  11.756   1.319  0.1617 -2.4334 -0.6974
 2024SOL     OW17796   7.604   3.202   5.784 -0.2380  0.2336 -0.3108
 2024SOL    HW117797   7.684   3.208   5.731 -0.5174  0.2778 -0.7242
 2024SOL    HW217798   7.559   3.284   5.768 -0.0411  0.5071  0.4575
 2025SOL     OW17799   4.625   4.361   6.456  0.4356 -0.2286 -0.2722
 2025SOL    HW117800   4.676   4.422   6.404  0.3296  0.6941  0.6898
 2025SOL    HW217801   4.674   4.350   6.537 -1.0027  0.9652  0.8327
 2026SOL     OW17802   4.921   2.000   1.527 -0.4621 -0.6700 -0.3596
 2026SOL    HW117803   4.981   1.974   1.457  0.1515 -1.7144  0.5110
 2026SOL    HW217804   4.966   2.071   1.573 -0.3032 -0.8279 -0.2701
 2027SOL     OW17805  13.649  11.644   3.399  0.1266 -0.5664 -0.1781
 2027SOL    HW117806  13.690  11.629   3.484  2.9895  0.9189 -1.1569
 2027SOL    HW217807  13.665  11.736   3.381 -2.2690 -0.3310 -1.4683
 2028SOL     OW17808   8.515   9.282  13.408 -0.6493  0.5079  0.5687
 2028SOL    HW117809   8.487   9.228  13.334 -1.6013 -0.8173  1.8492
 2028SOL    HW217810   8.573   9.225  13.458 -1.0935  0.9188  1.5695
 2029SOL     OW17811  11.057   2.738   6.787  0.0213  0.2805  0.0152
 2029SOL    HW117812  11.140   2.735   6.834 -0.5109 -2.3488  0.9730
 2029SOL    HW217813  10.994   2.770   6.851 -0.1332 -0.1847  0.1000
 2030SOL     OW17814  10.308  11.345   5.565  0.9374  0.2876  0.2455
 2030SOL    HW117815  10.231  11.392   5.597  0.8354  0.8213 -0.7422
 2030SOL    HW217816  10.382  11.397   5.597  0.8261  1.1532 -0.8345
 2031SOL     OW17817  13.293  12.133  10.089 -0.1349 -0.4633 -0.1316
 2031SOL    HW117818  13.375  12.089  10.111 -0.6039 -1.7260 -0.8355
 2031SOL    HW217819  13.247  12.072  10.032 -2.4088 -0.5983  1.7233
 2032SOL     OW17820   1.248   9.025   5.274 -0.2071 -0.5702  0.0027
 2032SOL    HW117821   1.325   9.026   5.217 -1.0780 -0.8541 -1.2043
 2032SOL    HW217822   1.227   8.932   5.284  1.4614 -0.7416  2.9666
 2033SOL     OW17823   1.114   9.766   0.194  0.1915 -0.2768  0.0761
 2033SOL    HW117824   1.091   9.691   0.138  0.3870 -0.3770  0.1292
 2033SOL    HW217825   1.075   9.746   0.279 -0.0970 -0.1291 -0.0227
 2034SOL     OW17826  13.354   0.359  12.047 -0.1153  0.2566  0.0531
 2034SOL    HW117827  13.398   0.275  12.061  0.7632  0.1985 -2.5642
 2034SOL    HW217828  13.260   0.337  12.051 -0.0487  0.0470  3.7886
 2035SOL     OW17829   7.807   1.079   8.724 -0.3485 -0.3724 -0.0583
 2035SOL    HW117830   7.819   0.984   8.720  2.2908 -0.1065 -0.3270
 2035SOL    HW217831   7.893   1.112   8.751 -1.4418  1.9021  0.8414
 2036SOL     OW17832   5.818   5.758   4.671  0.3311 -0.1821  0.2047
 2036SOL    HW117833   5.827   5.848   4.704  0.2576 -0.0802 -0.0453
 2036SOL    HW217834   5.896   5.713   4.701  0.8575  0.2341 -0.5030
 2037SOL     OW17835   1.575   9.394   5.296 -0.0340 -0.0621  0.0593
 2037SOL    HW117836   1.664   9.382   5.328  0.3007 -1.2199 -1.2429
 2037SOL    HW217837   1.584   9.407   5.202 -1.1125  1.8314  0.1421
 2038SOL     OW17838   2.724   9.448  11.489  0.0323  0.1393  0.4641
 2038SOL    HW117839   2.681   9.510  11.430 -0.2953  0.1653  0.7225
 2038SOL    HW217840   2.815   9.476  11.492  0.7170 -1.5158 -2.2077
 2039SOL     OW17841   9.060   9.714   1.185 -0.3034 -0.0258 -0.8560
 2039SOL    HW117842   8.973   9.720   1.145 -1.0423 -1.5905  0.3900
 2039SOL    HW217843   9.120   9.740   1.116 -1.7078  0.1683 -2.0564
 2040SOL     OW17844   4.135   0.122   1.621  0.1367  1.3121  0.0422
 2040SOL    HW117845   4.142   0.188   1.552  1.3360  0.3978 -0.7330
 2040SOL    HW217846   4.138   0.038   1.576 -0.2071  0.6904  1.1178
 2041SOL     OW17847   8.520   3.471   4.990  0.3100  0.4093 -0.2914
 2041SOL    HW117848   8.463   3.426   4.928  1.9337 -1.4558 -0.5369
 2041SOL    HW217849   8.510   3.422   5.072  0.5429  0.8886  0.0298
 2042SOL     OW17850   3.779  13.368   6.349 -0.1523  0.0504  0.1437
 2042SOL    HW117851   3.725  13.381   6.271  0.3396  0.9271 -0.0759
 2042SOL    HW217852   3.760  13.279   6.378 -2.0334  0.4737  0.3322
 2043SOL     OW17853   2.235   9.950  13.027 -0.7111  0.0005  0.1123
 2043SOL    HW117854   2.167   9.899  12.983  0.3027 -0.6016 -0.7952
 2043SOL    HW217855   2.308   9.888  13.039  0.2411  1.0146 -0.2590
 2044SOL     OW17856   9.477   5.741   6.883  0.3231 -0.1042 -0.0655
 2044SOL    HW117857   9.392   5.772   6.913 -0.3823  0.0277 -2.0431
 2044SOL    HW217858   9.536   5.814   6.899 -0.3877  0.6010 -0.5685
 2045SOL     OW17859  11.543   7.805  12.725  0.4720 -0.0182 -0.2925
 2045SOL    HW117860  11.623   7.789  12.674 -0.0740 -1.5356 -0.7514
 2045SOL    HW217861  11.567   7.874  12.786  2.0855 -0.3059 -0.5370
 2046SOL     OW17862  12.256   4.247   6.108  0.1826 -0.0552  0.4164
 2046SOL    HW117863  12.216   4.244   6.195 -0.2503 -1.5154  0.1964
 2046SOL    HW217864  12.350   4.256   6.125 -0.0706  2.0291  0.9670
 2047SOL     OW17865   3.607   8.511   6.919  0.7828  0.3892  0.7916
 2047SOL    HW117866   3.514   8.492   6.929  0.8020  0.6680  1.6264
 2047SOL    HW217867   3.651   8.431   6.949  0.8132  0.3095  0.5327
 2048SOL     OW17868   8.309   4.265   0.621  0.7239 -0.2084 -0.0069
 2048SOL    HW117869   8.369   4.276   0.694  0.5614 -0.3083  0.1415
 2048SOL    HW217870   8.222   4.265   0.661  0.6111  0.1572 -0.2447
 2049SOL     OW17871   0.964   8.965   7.694 -0.8136 -0.1602  0.2072
 2049SOL    HW117872   0.926   9.047   7.662 -1.8931  0.0418  1.8805
 2049SOL    HW217873   1.019   8.991   7.768  3.2411 -0.3706 -2.4572
 2050SOL     OW17874   0.183   3.135   6.819  0.7356 -0.0748 -0.1733
 2050SOL    HW117875   0.235   3.213   6.805  1.5235 -0.6212 -0.3451
 2050SOL    HW217876   0.192   3.117   6.913 -0.3142  0.6290  0.0840
 2051SOL     OW17877  13.254  10.071   3.600  0.1735 -0.2969  0.9361
 2051SOL    HW117878  13.167  10.110   3.605  0.8999  1.4000  1.4294
 2051SOL    HW217879  13.242   9.981   3.628 -1.8574 -0.9629 -1.6915
 2052SOL     OW17880   4.875   9.289   5.032  0.1506  0.1840  0.0107
 2052SOL    HW117881   4.829   9.341   5.098  0.1005 -1.3397  1.2417
 2052SOL    HW217882   4.845   9.199   5.047  1.3432 -0.4321 -1.0587
 2053SOL     OW17883  10.723   0.736   7.611  0.3984  0.2159 -0.2587
 2053SOL    HW117884  10.774   0.778   7.680 -0.6980 -1.2544  1.5474
 2053SOL    HW217885  10.745   0.644   7.617 -1.4944 -0.2864 -0.2557
 2054SOL     OW17886  11.062  11.570   3.478 -0.1044  0.3920  0.0332
 2054SOL    HW117887  11.086  11.539   3.565 -0.7754 -0.9421 -0.2292
 2054SOL    HW217888  10.967  11.585   3.484 -0.0836  0.6641 -0.3505
 2055SOL     OW17889  12.192  10.408   4.744  0.2256 -0.2019 -0.6006
 2055SOL    HW117890  12.216  10.341   4.808  0.8990 -0.0296 -0.6597
 2055SOL    HW217891  12.148  10.476   4.796  0.4244 -0.2402 -0.3798
 2056SOL     OW17892  13.571   0.140   5.066  0.7501 -0.3294 -0.2809
 2056SOL    HW117893  13.582   0.200   5.140  0.9075 -0.4186 -0.2335
 2056SOL    HW217894  13.655   0.096   5.057  1.5163  1.3559 -2.0011
 2057SOL     OW17895  12.314  13.251   2.546  0.9478  0.6263 -0.1872
 2057SOL    HW117896  12.365  13.309   2.603  2.6315  0.4353 -1.4148
 2057SOL    HW217897  12.380  13.210   2.489 -0.4201 -0.9098 -0.7473
 2058SOL     OW17898  10.924  10.862   0.564 -0.1333 -0.0156  0.0924
 2058SOL    HW117899  10.869  10.784   0.551 -1.5903  1.1762 -1.2811
 2058SOL    HW217900  10.985  10.860   0.491  0.3935 -0.3104  0.5371
 2059SOL     OW17901   9.403   0.712  11.052 -0.3980  0.1009 -0.1404
 2059SOL    HW117902   9.335   0.757  11.103  0.4867 -0.2063  1.3638
 2059SOL    HW217903   9.460   0.783  11.022 -0.6671  0.2446 -0.3191
 2060SOL     OW17904  11.206   6.546  12.738 -0.0487 -0.1194  0.4483
 2060SOL    HW117905  11.236   6.579  12.653 -1.9325  1.1183  0.1986
 2060SOL    HW217906  11.231   6.454  12.739 -0.0025 -0.1590 -1.4529
 2061SOL     OW17907  13.392   9.021   5.517  0.5633 -0.1374 -0.0156
 2061SOL    HW117908  13.340   9.036   5.439 -1.3428 -1.7788  0.8495
 2061SOL    HW217909  13.335   9.043   5.590  2.9899  3.4853  1.0699
 2062SOL     OW17910   5.270   1.500  10.935 -0.6497  0.4194  0.0341
 2062SOL    HW117911   5.309   1.549  11.008  0.8425 -0.1927 -0.3208
 2062SOL    HW217912   5.329   1.426  10.922 -2.5280 -1.1848  0.1737
 2063SOL     OW17913  12.476   4.674  12.702  0.8258 -0.4855  0.0461
 2063SOL    HW117914  12.540   4.611  12.667  1.8335  0.5212  0.0470
 2063SOL    HW217915  12.486   4.751  12.647 -2.3584 -1.1900 -1.8200
 2064SOL     OW17916  12.074  10.352   6.914  0.4429  0.5284  0.7293
 2064SOL    HW117917  12.007  10.300   6.959  0.8299 -0.2090  0.4670
 2064SOL    HW217918  12.063  10.330   6.822  0.8786  0.5998  0.6598
 2065SOL     OW17919   1.114   5.293  11.571 -0.4346 -0.0223  0.5188
 2065SOL    HW117920   1.084   5.283  11.661 -3.2096 -0.3688 -0.3631
 2065SOL    HW217921   1.044   5.256  11.518  0.9854  0.4525 -1.8238
 2066SOL     OW17922   6.920  12.918   0.818 -0.3615 -0.5434  0.9956
 2066SOL    HW117923   6.962  12.852   0.762 -1.8616 -1.0427  0.3956
 2066SOL    HW217924   6.991  12.975   0.845  0.6407 -1.1154 -0.2945
 2067SOL     OW17925   8.317   9.398   4.881  0.3155  0.3914 -0.0037
 2067SOL    HW117926   8.235   9.372   4.839 -1.2025  2.7396  1.2416
 2067SOL    HW217927   8.377   9.325   4.865 -1.7618 -1.0922 -1.6216
 2068SOL     OW17928   0.493   0.439   2.553  0.1264 -0.0313  0.7001
 2068SOL    HW117929   0.535   0.512   2.508  0.9545 -1.4548 -0.9495
 2068SOL    HW217930   0.561   0.404   2.611  0.7363 -1.2334 -0.6632
 2069SOL     OW17931   2.913  10.714   7.924  0.4580 -0.1145  0.7402
 2069SOL    HW117932   2.913  10.810   7.932  2.2074  0.1135 -1.1023
 2069SOL    HW217933   2.953  10.684   8.005 -1.5162  0.5509  2.0454
 2070SOL     OW17934   0.388  11.723   3.683  0.3024  0.3910 -0.2561
 2070SOL    HW117935   0.393  11.673   3.602  1.4021 -0.6885  0.4430
 2070SOL    HW217936   0.478  11.728   3.714  0.1539  2.4358 -0.0504
 2071SOL     OW17937  10.298  12.584  10.187 -0.1924 -0.3712  0.0911
 2071SOL    HW117938  10.231  12.621  10.130  0.6617  0.6808 -0.2768
 2071SOL    HW217939  10.370  12.648  10.183  0.2270 -0.7113  1.6601
 2072SOL     OW17940  12.017   7.392   1.666  0.3950 -0.1073  0.4892
 2072SOL    HW117941  12.105   7.365   1.639 -1.0048 -3.8164 -0.9252
 2072SOL    HW217942  11.975   7.420   1.585 -0.4805 -0.7815  0.6969
 2073SOL     OW17943   1.216   9.207   2.003 -0.4394  0.0945 -0.0194
 2073SOL    HW117944   1.308   9.183   2.000 -0.5181 -0.1486 -1.3468
 2073SOL    HW217945   1.185   9.177   2.088  0.9101  0.9920  0.8155
 2074SOL     OW17946   6.418   3.276   8.201 -0.3852 -0.2319 -0.3232
 2074SOL    HW117947   6.406   3.332   8.277  2.4928  0.5630 -0.3508
 2074SOL    HW217948   6.440   3.190   8.237 -1.8941 -0.6418 -0.3034
 2075SOL     OW17949  11.068  13.316  12.528 -0.0642  0.0010 -0.3627
 2075SOL    HW117950  11.042  13.257  12.599  1.8713 -1.1516 -0.5319
 2075SOL    HW217951  11.163  13.326  12.539  0.2123  0.1946 -2.4827
 2076SOL     OW17952   2.735   9.437   2.897 -0.0356 -1.3715 -0.7816
 2076SOL    HW117953   2.724   9.473   2.809 -0.1305 -0.5615 -0.4553
 2076SOL    HW217954   2.647   9.408   2.923 -0.2235 -0.6313 -0.5574
 2077SOL     OW17955  11.261  11.984  13.675  0.3657  0.7814  0.0392
 2077SOL    HW117956  11.188  11.924  13.691  1.6433 -1.2716 -1.3410
 2077SOL    HW217957  11.222  12.060  13.634 -1.1493  0.3120  0.5532
 2078SOL     OW17958  11.544   2.569   2.516  0.4576 -0.3072 -0.5385
 2078SOL    HW117959  11.487   2.529   2.451 -0.6035 -0.6084  0.5262
 2078SOL    HW217960  11.583   2.495   2.563  1.5037 -0.1016 -1.0479
 2079SOL     OW17961   4.380   4.010  10.642  0.3001  0.2652  0.2336
 2079SOL    HW117962   4.384   3.952  10.566 -1.9106 -0.4893  0.6079
 2079SOL    HW217963   4.378   4.098  10.605  0.3179 -0.0482 -0.5379
 2080SOL     OW17964   2.871   5.966   7.024  0.3862 -0.6951  0.0857
 2080SOL    HW117965   2.888   5.877   7.055  1.0961 -0.0394  1.7034
 2080SOL    HW217966   2.910   6.023   7.091  1.0506  0.8405 -1.5032
 2081SOL     OW17967   2.559  10.546   6.447 -0.2469  0.6343 -0.1920
 2081SOL    HW117968   2.464  10.534   6.447 -0.2605  0.3202 -2.5743
 2081SOL    HW217969   2.574  10.615   6.383  1.1212  0.7820  0.2695
 2082SOL     OW17970   7.358   3.878   0.159 -0.3131 -0.4155 -0.3176
 2082SOL    HW117971   7.310   3.913   0.084 -1.8503 -1.8007 -0.0478
 2082SOL    HW217972   7.447   3.911   0.148 -0.8943  0.7830 -1.8303
 2083SOL     OW17973   0.304   7.120   2.636  0.0646  0.0185 -0.3735
 2083SOL    HW117974   0.257   7.201   2.617  1.2902  0.2767 -2.6578
 2083SOL    HW217975   0.335   7.131   2.726 -4.0530 -0.1780  1.2786
 2084SOL     OW17976   9.600  11.001  13.550  0.3030  0.2514 -0.2405
 2084SOL    HW117977   9.608  10.906  13.552 -0.4306  0.1882  1.0888
 2084SOL    HW217978   9.690  11.033  13.555  0.4790 -0.4111  2.6416
 2085SOL     OW17979   4.275  13.219  12.331  0.1019 -0.1101 -0.5775
 2085SOL    HW117980   4.302  13.269  12.408 -0.3781  0.6280 -0.8709
 2085SOL    HW217981   4.315  13.133  12.342 -0.8624 -0.3857  1.0471
 2086SOL     OW17982  10.853   9.559   8.244 -0.1052 -0.1305 -0.4317
 2086SOL    HW117983  10.836   9.645   8.282 -0.7842 -0.2186 -0.5345
 2086SOL    HW217984  10.939   9.535   8.278 -0.8492 -0.3736  1.3698
 2087SOL     OW17985   7.475   6.041   0.688  0.4015  0.0790 -0.3398
 2087SOL    HW117986   7.471   5.950   0.717 -1.1450  0.4704  0.7772
 2087SOL    HW217987   7.491   6.092   0.767  0.9063  0.8220 -0.8980
 2088SOL     OW17988   9.625   6.957  13.154 -0.0016  0.3024 -0.5809
 2088SOL    HW117989   9.541   6.949  13.109 -0.7526 -1.8459  1.0157
 2088SOL    HW217990   9.618   7.037  13.206 -1.8241 -0.7114  0.8576
 2089SOL     OW17991  13.451  13.239  11.213  0.4493  0.4662  0.0467
 2089SOL    HW117992  13.389  13.221  11.283  0.9545 -2.5821 -0.1818
 2089SOL    HW217993  13.411  13.311  11.163 -2.8090 -1.1856  0.0512
 2090SOL     OW17994  10.621   4.445  13.684 -0.5781  0.0441  0.4631
 2090SOL    HW117995  10.631   4.451  13.589  0.8574  1.6974  0.6778
 2090SOL    HW217996  10.623   4.351  13.702 -2.3380 -0.3841 -1.2497
 2091SOL     OW17997  12.177   3.795  10.880  0.5501 -0.1360 -0.2922
 2091SOL    HW117998  12.167   3.890  10.875  0.7581 -0.1560 -1.1741
 2091SOL    HW217999  12.272   3.782  10.883  0.5400 -0.2278  2.1746
 2092SOL     OW18000   1.609  10.035   5.144  0.1041  0.2232  0.4341
 2092SOL    HW118001   1.516  10.042   5.123  0.1095 -0.9992 -0.0423
 2092SOL    HW218002   1.617  10.076   5.230 -0.5997  1.6995 -0.1592
 2093SOL     OW18003   8.268  10.711  12.060 -0.2745 -0.2989  0.0356
 2093SOL    HW118004   8.204  10.767  12.016  1.2353  0.7000 -0.9934
 2093SOL    HW218005   8.327  10.682  11.990  1.5430  0.4285  1.1796
 2094SOL     OW18006   4.540   8.515   6.623 -0.3729  1.0847  0.1873
 2094SOL    HW118007   4.551   8.421   6.616  0.6433  1.2742 -1.1569
 2094SOL    HW218008   4.446   8.528   6.637 -0.5616 -0.0903  0.0826
 2095SOL     OW18009   5.510  11.004   6.064  0.0327 -0.3884 -0.0335
 2095SOL    HW118010   5.550  11.033   5.982 -0.8969 -0.5535 -0.5659
 2095SOL    HW218011   5.581  11.008   6.128  0.7110  0.0009 -0.7834
 2096SOL     OW18012  13.112  11.782   4.321 -0.1537 -0.2556 -0.2187
 2096SOL    HW118013  13.203  11.807   4.307 -0.5840  1.5359 -0.0564
 2096SOL    HW218014  13.064  11.829   4.253 -1.0083 -0.8182 -0.0138
 2097SOL     OW18015   8.466  12.858   9.608 -0.0597 -0.0052 -0.2839
 2097SOL    HW118016   8.525  12.822   9.675  0.5003 -0.2437 -0.8926
 2097SOL    HW218017   8.524  12.882   9.536 -0.9283 -3.2996 -2.3050
 2098SOL     OW18018   2.060  10.600   4.330 -0.2563 -0.6571  0.6498
 2098SOL    HW118019   2.068  10.675   4.388 -0.7787  0.1146 -0.2468
 2098SOL    HW218020   2.093  10.631   4.246 -0.6450 -1.3743  0.2232
 2099SOL     OW18021   6.679  11.071   5.771  0.0933 -0.9020  0.3856
 2099SOL    HW118022   6.675  10.987   5.725 -1.7415 -0.0745 -1.0774
 2099SOL    HW218023   6.769  11.102   5.756 -0.2203 -0.9940 -2.1536
 2100SOL     OW18024   3.647   2.552  10.220  0.4027 -0.3962 -0.0757
 2100SOL    HW118025   3.597   2.485  10.266  0.5734 -0.3196  0.2248
 2100SOL    HW218026   3.737   2.519  10.219  0.2207 -0.8804 -1.2663
 2101SOL     OW18027   2.415  12.977   9.670 -0.1723  0.4509  0.2372
 2101SOL    HW118028   2.439  13.027   9.592 -0.2159  1.1977  0.6924
 2101SOL    HW218029   2.358  12.908   9.637 -2.8713  2.6244 -0.0984
 2102SOL     OW18030   0.791   6.800   4.906  0.1385 -0.1308  0.0827
 2102SOL    HW118031   0.741   6.881   4.905  1.0359  0.4700  1.1086
 2102SOL    HW218032   0.736   6.738   4.955  0.2107  0.4082  0.8673
 2103SOL     OW18033   1.035   9.713  13.494  0.5443  0.5493 -0.3297
 2103SOL    HW118034   1.095   9.780  13.462 -1.1337  2.1983 -0.2595
 2103SOL    HW218035   1.058   9.703  13.587  1.4789  0.2439 -0.5850
 2104SOL     OW18036   3.098   9.905  11.788  0.1560 -0.5217  0.0193
 2104SOL    HW118037   3.124   9.864  11.706 -1.1069 -2.0661  0.3435
 2104SOL    HW218038   3.161   9.976  11.800  0.1185  0.0328 -2.4691
 2105SOL     OW18039   7.450   3.423   4.557 -0.4242  0.2382 -0.5968
 2105SOL    HW118040   7.431   3.474   4.477 -2.3073  0.5758  0.0132
 2105SOL    HW218041   7.503   3.482   4.610 -1.4228  1.0846 -0.4897
 2106SOL     OW18042   3.445   5.491  12.522  0.2342  0.0409  0.4143
 2106SOL    HW118043   3.522   5.433  12.522 -0.2834 -0.6792 -0.8405
 2106SOL    HW218044   3.465   5.557  12.457 -0.5373 -0.6366 -0.5426
 2107SOL     OW18045   0.893   3.979  11.245 -0.0270 -0.7093 -0.0270
 2107SOL    HW118046   0.806   3.965  11.207  0.5161 -1.5832 -1.0018
 2107SOL    HW218047   0.916   3.894  11.283  0.2476 -0.3740  0.5584
 2108SOL     OW18048  11.567   8.992   7.774 -0.2370 -0.1494  0.3830
 2108SOL    HW118049  11.547   9.086   7.781 -2.5778 -0.4298 -1.3492
 2108SOL    HW218050  11.650   8.982   7.820  0.0009  2.7400  0.7805
 2109SOL     OW18051   8.209   7.680  13.426 -0.6044 -0.4535  0.1924
 2109SOL    HW118052   8.168   7.761  13.458 -0.6113 -0.3381 -0.0985
 2109SOL    HW218053   8.202   7.687  13.331  2.4595  0.8715 -0.0651
 2110SOL     OW18054   8.222   0.667   8.400  0.5862 -0.0565  0.0234
 2110SOL    HW118055   8.305   0.704   8.430  0.7109  0.1143 -0.5120
 2110SOL    HW218056   8.245   0.617   8.322  0.3219 -0.7725  0.3979
 2111SOL     OW18057   6.526   3.122  10.708  0.3668 -0.3572  0.0067
 2111SOL    HW118058   6.598   3.062  10.726 -0.6176 -1.1113  1.6717
 2111SOL    HW218059   6.506   3.110  10.615  0.0071 -2.8657  0.3531
 2112SOL     OW18060   2.611   3.327  12.326 -0.0213 -0.3996  0.6200
 2112SOL    HW118061   2.675   3.287  12.268  1.0953  1.1895  0.6734
 2112SOL    HW218062   2.531   3.332  12.275  1.3941  2.6421 -1.6054
 2113SOL     OW18063  11.354  10.339   7.159  0.4402 -0.2961 -0.1510
 2113SOL    HW118064  11.294  10.394   7.110  0.7337 -0.9614 -1.2967
 2113SOL    HW218065  11.324  10.346   7.250  0.7293  2.0430 -0.1757
 2114SOL     OW18066  10.103   1.547   0.658  0.1805 -0.5883 -0.8411
 2114SOL    HW118067  10.103   1.627   0.711  1.9271 -1.5619  0.7722
 2114SOL    HW218068  10.191   1.543   0.621 -0.1672 -1.3379 -1.6165
 2115SOL     OW18069   9.567  13.714   4.016 -0.1709 -0.1429  0.0866
 2115SOL    HW118070   9.602  13.634   4.056  0.6058  0.3873  0.5047
 2115SOL    HW218071   9.643  13.772   4.008 -0.9392  1.0587  1.0355
 2116SOL     OW18072   7.047  12.174   3.659  0.5554  0.3836 -0.1553
 2116SOL    HW118073   7.042  12.144   3.750 -0.2130  0.8571 -0.0345
 2116SOL    HW218074   6.976  12.128   3.615 -0.5532  1.8742  0.0014
 2117SOL     OW18075   8.517   1.702  11.618  0.5049 -0.3577 -0.6345
 2117SOL    HW118076   8.429   1.735  11.636  0.5307  0.0775 -1.2720
 2117SOL    HW218077   8.556   1.688  11.705  0.2184  0.5553 -0.3456
 2118SOL     OW18078   6.981  12.934   4.144  0.1837 -0.4655  0.2709
 2118SOL    HW118079   7.052  12.988   4.177  1.0330 -2.3040  1.6375
 2118SOL    HW218080   6.912  12.996   4.121  1.1486  1.1902  1.6498
 2119SOL     OW18081   4.296  13.460   5.893  0.1952  0.1139 -0.1684
 2119SOL    HW118082   4.373  13.511   5.870  0.4498  0.7061  1.8169
 2119SOL    HW218083   4.326  13.400   5.961 -1.3025  1.2099  1.5746
 2120SOL     OW18084   7.189   8.748  10.729  0.0628 -0.1313  0.0134
 2120SOL    HW118085   7.110   8.781  10.686 -0.0385 -1.0049 -0.4904
 2120SOL    HW218086   7.160   8.726  10.818 -0.3499 -0.7693 -0.2734
 2121SOL     OW18087   5.092  12.177   8.466 -0.5014 -0.3041  0.0517
 2121SOL    HW118088   5.018  12.237   8.472 -0.4515 -0.2725  0.3720
 2121SOL    HW218089   5.125  12.171   8.555  2.2613  2.7141 -0.5636
 2122SOL     OW18090   7.180   2.963   3.918  0.0793  0.2504 -0.2703
 2122SOL    HW118091   7.265   2.977   3.961 -0.2864  0.8574  0.2608
 2122SOL    HW218092   7.195   2.990   3.827  1.5419 -3.2319 -1.2702
 2123SOL     OW18093   7.304   2.231   3.279 -0.3554 -0.0620  0.1525
 2123SOL    HW118094   7.390   2.251   3.315 -0.3537  1.1858 -0.5103
 2123SOL    HW218095   7.322   2.191   3.194 -0.4196 -0.9869  0.5554
 2124SOL     OW18096   4.330   1.656   6.772  0.2718 -0.1821 -0.6542
 2124SOL    HW118097   4.262   1.709   6.813  0.1951 -0.2384 -0.7108
 2124SOL    HW218098   4.384   1.719   6.724 -0.8965 -0.3602 -2.2727
 2125SOL     OW18099   9.327   6.387   7.505 -0.1150  0.6857  0.2705
 2125SOL    HW118100   9.249   6.416   7.552  0.1897  1.6024  0.2261
 2125SOL    HW218101   9.293   6.350   7.423 -0.4822  1.6744 -0.0460
 2126SOL     OW18102   4.347   6.001  11.387 -0.5793  0.1783  0.4329
 2126SOL    HW118103   4.392   6.009  11.303 -0.7155  0.8682  0.4223
 2126SOL    HW218104   4.257   5.978  11.364 -0.2508 -1.2263  0.4559
 2127SOL     OW18105   0.808  11.292   7.039  0.0765  0.0368 -0.3672
 2127SOL    HW118106   0.869  11.361   7.064 -1.7437  1.1016  1.4535
 2127SOL    HW218107   0.773  11.259   7.122 -0.4051 -1.8879 -1.2686
 2128SOL     OW18108   2.939   3.000  13.101  0.0393  0.4237 -0.0206
 2128SOL    HW118109   2.979   3.059  13.037 -0.6105  1.0432  0.1337
 2128SOL    HW218110   2.886   2.940  13.048  0.5895  0.0578 -0.1650
 2129SOL     OW18111   4.284   2.318   9.962  0.0019 -0.0259 -0.0053
 2129SOL    HW118112   4.190   2.302   9.950 -0.1341 -0.3979  1.3331
 2129SOL    HW218113   4.306   2.268  10.041  1.4634 -0.4039 -0.6372
 2130SOL     OW18114   7.795  12.590   4.574 -0.1603  0.1444  0.0585
 2130SOL    HW118115   7.717  12.601   4.628  1.2855  1.7516  1.9585
 2130SOL    HW218116   7.861  12.647   4.615  3.0623 -3.5876  0.5824
 2131SOL     OW18117   9.613   3.780   7.935  0.0839 -0.2631  0.1080
 2131SOL    HW118118   9.528   3.812   7.905  0.5705  1.4304  0.4606
 2131SOL    HW218119   9.598   3.687   7.953 -1.2141 -0.4356 -1.5718
 2132SOL     OW18120   9.568   0.427   8.803 -0.1549 -0.1291 -0.5359
 2132SOL    HW118121   9.628   0.359   8.835 -0.6605 -1.6153 -2.5089
 2132SOL    HW218122   9.623   0.505   8.794  0.5998 -0.4220  1.1761
 2133SOL     OW18123   4.660   2.957   9.900 -0.6973  0.5254  0.0065
 2133SOL    HW118124   4.635   3.049   9.901 -1.5193  0.3119  1.0432
 2133SOL    HW218125   4.580   2.910   9.925 -0.4635 -0.5155 -1.1342
 2134SOL     OW18126  13.415   2.698   5.222  0.9366 -0.0338 -0.2103
 2134SOL    HW118127  13.504   2.666   5.208  1.6020  0.9660  1.4634
 2134SOL    HW218128  13.372   2.630   5.274 -0.5432 -2.2602 -3.9453
 2135SOL     OW18129  12.523   6.821  13.079 -0.1184  0.3254  0.1169
 2135SOL    HW118130  12.432   6.802  13.054 -0.5669  1.1100  1.1018
 2135SOL    HW218131  12.521   6.911  13.111  0.9449  0.2249  0.4961
 2136SOL     OW18132   0.352   7.620   2.491  0.4584 -0.1836 -0.2382
 2136SOL    HW118133   0.440   7.595   2.462  0.8494  0.0442  0.7231
 2136SOL    HW218134   0.366   7.693   2.550 -0.5717  1.5395 -1.9904
 2137SOL     OW18135  10.072   4.813   3.419 -0.4473  0.2920 -0.2777
 2137SOL    HW118136  10.092   4.843   3.508  0.2644 -1.2328  0.0979
 2137SOL    HW218137   9.976   4.815   3.415 -0.5353 -0.6131  0.8912
 2138SOL     OW18138   3.516  11.654  11.964  0.1726  0.2856 -0.8691
 2138SOL    HW118139   3.529  11.675  12.057  0.0925  0.2456 -0.8484
 2138SOL    HW218140   3.601  11.621  11.935 -0.4916 -2.2918 -0.1145
 2139SOL     OW18141  11.199   1.706  12.723  0.2592 -0.0582  0.2352
 2139SOL    HW118142  11.181   1.800  12.721  1.1787  0.1355 -1.8048
 2139SOL    HW218143  11.287   1.698  12.685  1.0882 -1.6083  2.2847
 2140SOL     OW18144   2.625   7.757  12.893  0.2865  0.1837  0.6625
 2140SOL    HW118145   2.650   7.670  12.924  1.4025  1.1152  2.6359
 2140SOL    HW218146   2.687   7.777  12.823  0.5197 -0.3010  0.7277
 2141SOL     OW18147   8.351   2.111  11.347 -0.4338 -0.2493  0.6428
 2141SOL    HW118148   8.281   2.176  11.340 -0.7501 -0.5207  1.1512
 2141SOL    HW218149   8.307   2.028  11.330  0.4872 -0.1609 -2.8724
 2142SOL     OW18150   0.920  10.828   1.818 -0.5149 -0.4350 -0.3373
 2142SOL    HW118151   1.008  10.835   1.853 -0.1741  3.3860 -1.4904
 2142SOL    HW218152   0.863  10.832   1.896  0.3215  0.9389  0.2446
 2143SOL     OW18153   7.089   3.632   2.278  0.3414  0.5059 -0.0323
 2143SOL    HW118154   7.030   3.577   2.330  1.0246  1.4025  1.7970
 2143SOL    HW218155   7.176   3.610   2.310  0.6564  2.3109  0.4527
 2144SOL     OW18156   9.919  10.956   1.607  0.0838 -0.1013  0.3907
 2144SOL    HW118157   9.871  11.039   1.608 -1.6964 -0.9790 -2.0484
 2144SOL    HW218158   9.880  10.905   1.679 -2.3097 -0.5168 -1.0783
 2145SOL     OW18159  12.563   9.635   5.076 -0.0613 -0.1813 -0.4513
 2145SOL    HW118160  12.633   9.583   5.038 -0.6959 -0.8442 -0.7248
 2145SOL    HW218161  12.524   9.680   5.002 -2.0582 -2.3731 -0.8244
 2146SOL     OW18162  12.805  10.247   8.086 -0.3316 -0.1294  0.6273
 2146SOL    HW118163  12.711  10.232   8.091 -0.5309 -0.4895 -2.5240
 2146SOL    HW218164  12.818  10.291   8.002  2.5379 -2.3395 -0.2249
 2147SOL     OW18165  12.539   0.057   2.266 -0.1640 -0.2751 -0.4998
 2147SOL    HW118166  12.546   0.149   2.242  1.3810 -0.6784 -1.7518
 2147SOL    HW218167  12.575   0.053   2.355 -1.2538  0.4742 -0.0072
 2148SOL     OW18168  12.928   5.374   2.239  0.6203  0.1318 -0.6769
 2148SOL    HW118169  12.960   5.430   2.168  0.3115  0.6049 -0.4455
 2148SOL    HW218170  13.006   5.357   2.291  1.0834 -1.1299 -1.7213
 2149SOL     OW18171   8.574   9.442   3.948  0.1267 -0.2427  0.2778
 2149SOL    HW118172   8.514   9.479   3.883 -0.1004  0.8268  1.0629
 2149SOL    HW218173   8.570   9.503   4.022 -0.0871 -1.7327  1.5489
 2150SOL     OW18174  10.949  11.370   2.186 -0.1733 -0.1567  0.2483
 2150SOL    HW118175  10.949  11.449   2.241  1.8288  0.4774 -0.5934
 2150SOL    HW218176  10.959  11.298   2.248 -0.9117  0.3086  0.9334
 2151SOL     OW18177  10.416  11.787   1.770  0.3432 -0.1866  0.7172
 2151SOL    HW118178  10.498  11.742   1.791  0.6347 -0.4755 -0.8899
 2151SOL    HW218179  10.347  11.726   1.795  0.5656  0.2232  2.4642
 2152SOL     OW18180  13.213  12.730   3.389 -0.1652  0.2676  0.5165
 2152SOL    HW118181  13.264  12.736   3.470 -0.2611  1.0859  0.5241
 2152SOL    HW218182  13.274  12.754   3.320  0.1659 -1.2858  0.2208
 2153SOL     OW18183   9.708   7.346   8.669  0.4547  0.5582  0.0827
 2153SOL    HW118184   9.721   7.424   8.724 -0.6571  0.0412  1.1273
 2153SOL    HW218185   9.623   7.311   8.696  1.1258 -1.2772 -0.0281
 2154SOL     OW18186   2.211  10.744   4.096 -0.6629 -1.0601  0.5886
 2154SOL    HW118187   2.165  10.665   4.065  1.9365 -2.5081  0.1236
 2154SOL    HW218188   2.263  10.713   4.170  0.8082  0.0720  0.0707
 2155SOL     OW18189   7.860   8.913   1.822 -0.2860 -0.3516 -0.6018
 2155SOL    HW118190   7.812   8.831   1.824  0.1700 -0.6317 -1.0348
 2155SOL    HW218191   7.942   8.893   1.776 -0.7948  0.6522 -2.0347
 2156SOL     OW18192   1.703  10.282  11.045 -1.1057 -0.1459 -0.4166
 2156SOL    HW118193   1.676  10.342  11.114  0.0315 -0.5075  0.3844
 2156SOL    HW218194   1.627  10.275  10.987 -2.2128 -0.0960  0.9768
 2157SOL     OW18195   7.710   9.427   6.690  0.2870  0.2141 -0.0905
 2157SOL    HW118196   7.737   9.456   6.778  1.0146  1.0547 -0.5742
 2157SOL    HW218197   7.627   9.381   6.705 -0.1512  1.2610  0.9227
 2158SOL     OW18198  11.031  12.850  11.733  0.3346  0.3864 -0.0692
 2158SOL    HW118199  11.030  12.770  11.787 -1.8887  1.1125  1.0964
 2158SOL    HW218200  11.101  12.903  11.771 -1.4419  1.0551  2.5223
 2159SOL     OW18201   0.958  10.296   6.280  0.1067  0.6491 -0.0320
 2159SOL    HW118202   1.027  10.304   6.214 -0.4176  0.5661 -0.6026
 2159SOL    HW218203   0.998  10.245   6.350  0.4317  0.0496 -0.6362
 2160SOL     OW18204   6.979  12.824   1.225 -0.1750 -0.0262 -0.1935
 2160SOL    HW118205   7.054  12.861   1.179  0.6495 -2.4472 -0.9609
 2160SOL    HW218206   7.005  12.822   1.317  0.6632 -0.7077 -0.4347
 2161SOL     OW18207   6.388   2.803   8.564  0.4464  0.3319 -0.0632
 2161SOL    HW118208   6.407   2.739   8.496 -1.7362 -1.7726  1.1305
 2161SOL    HW218209   6.340   2.872   8.520  0.4388 -0.2043 -0.9204
 2162SOL     OW18210   6.853   8.333  11.793  0.3564  0.4881 -0.1543
 2162SOL    HW118211   6.879   8.424  11.805  1.8856 -0.0590  0.9764
 2162SOL    HW218212   6.792   8.315  11.865  1.2178  0.2158  0.5203
 2163SOL     OW18213  13.641   3.770  10.266 -0.6157 -0.0299 -0.4943
 2163SOL    HW118214  13.688   3.687  10.252  1.0467  0.8601 -0.4498
 2163SOL    HW218215  13.553   3.744  10.291 -0.1754 -1.7895 -0.6597
 2164SOL     OW18216  10.424   7.157   8.637  0.6382  0.7802  0.1447
 2164SOL    HW118217  10.469   7.235   8.606  0.9693  0.3871 -0.3933
 2164SOL    HW218218  10.376   7.125   8.560 -0.6497  1.2445  0.7269
 2165SOL     OW18219  10.930   7.019  11.743 -0.6349  0.2418 -0.4437
 2165SOL    HW118220  10.974   7.065  11.671 -2.4090  0.8638 -1.1716
 2165SOL    HW218221  10.924   7.083  11.813 -0.1172  0.0545 -0.2227
 2166SOL     OW18222   3.341   3.549   0.213  0.1693  0.2935  0.4161
 2166SOL    HW118223   3.290   3.524   0.135 -1.8288  2.0133  1.0751
 2166SOL    HW218224   3.306   3.493   0.282 -0.3055  0.9543  0.7153
 2167SOL     OW18225  13.083  12.319   6.474  0.1005  0.1969 -0.2131
 2167SOL    HW118226  13.160  12.354   6.429  0.3214 -0.3873 -0.2976
 2167SOL    HW218227  13.010  12.340   6.416  0.3539 -0.3532 -0.7394
 2168SOL     OW18228  11.139  13.628   8.166  0.2138  0.2860  0.4900
 2168SOL    HW118229  11.219  13.671   8.197  1.2250 -1.6849  0.7382
 2168SOL    HW218230  11.109  13.577   8.242  0.7077 -1.7415 -0.6091
 2169SOL     OW18231  10.863   2.502  12.151  0.3688  0.6576 -0.1323
 2169SOL    HW118232  10.784   2.554  12.169  0.8225  0.7764  1.6653
 2169SOL    HW218233  10.909   2.552  12.083 -1.0750  0.5774 -1.2180
 2170SOL     OW18234  10.171  10.854   5.743 -0.8149  0.0847 -0.3140
 2170SOL    HW118235  10.215  10.930   5.706  1.6726 -0.4669  1.2496
 2170SOL    HW218236  10.115  10.889   5.812 -0.1356  0.5830 -0.0017
 2171SOL     OW18237   6.993   3.176   8.988 -0.0095 -0.6030 -0.2081
 2171SOL    HW118238   6.987   3.182   9.084 -1.9132  0.4814 -0.3420
 2171SOL    HW218239   7.075   3.221   8.967 -1.6898  3.4075  0.6994
 2172SOL     OW18240   0.966   8.697  11.193  0.4930 -0.0576 -0.3339
 2172SOL    HW118241   0.935   8.759  11.260 -0.8736  0.1884 -1.1742
 2172SOL    HW218242   1.018   8.751  11.134  0.1586  0.0962 -0.4928
 2173SOL     OW18243   3.288   0.241   7.069 -0.3268 -0.1881 -0.6021
 2173SOL    HW118244   3.231   0.202   7.135  0.8485 -0.1500  0.4632
 2173SOL    HW218245   3.257   0.331   7.061  0.4778  0.2756  1.0734
 2174SOL     OW18246   9.023   0.681   6.216 -0.5945 -0.0492  0.4447
 2174SOL    HW118247   9.091   0.748   6.214 -1.9189  1.3132 -0.9033
 2174SOL    HW218248   9.059   0.610   6.162 -0.1759  0.5994 -0.1529
 2175SOL     OW18249  12.011   5.832   1.022 -0.2570  0.3278  0.0278
 2175SOL    HW118250  12.047   5.765   1.080  0.6370 -1.8464 -2.7992
 2175SOL    HW218251  11.923   5.849   1.056 -0.9860 -3.1683  0.2979
 2176SOL     OW18252   0.881   8.066   9.640  0.2211  0.4137 -0.2191
 2176SOL    HW118253   0.970   8.102   9.634  0.0915  0.9051  0.6375
 2176SOL    HW218254   0.894   7.978   9.677  0.4118  0.1531 -0.8866
 2177SOL     OW18255   9.329   0.915  13.175  0.6584  0.3873 -0.0201
 2177SOL    HW118256   9.377   0.985  13.220  3.6086 -1.7166  0.3876
 2177SOL    HW218257   9.237   0.933  13.196  1.5780  1.2159  4.5893
 2178SOL     OW18258  10.927   4.349   0.161 -0.1221  0.2891 -0.5038
 2178SOL    HW118259  10.848   4.321   0.208 -1.7547  2.7804 -1.5542
 2178SOL    HW218260  10.919   4.308   0.075 -0.1329  0.3234 -0.5191
 2179SOL     OW18261   7.499  11.077  10.544  0.0031 -0.2832  0.0906
 2179SOL    HW118262   7.463  11.165  10.543  0.6993  0.0065 -0.8136
 2179SOL    HW218263   7.564  11.079  10.614 -1.1404 -0.5847  1.2005
 2180SOL     OW18264   5.650   3.661   9.408  0.1817 -0.2704  0.1029
 2180SOL    HW118265   5.720   3.654   9.342  1.1719 -0.6212  1.1558
 2180SOL    HW218266   5.571   3.676   9.357  0.9097 -0.6048 -1.1790
 2181SOL     OW18267   4.118   1.872  11.116  0.1955  0.2756  0.1315
 2181SOL    HW118268   4.104   1.798  11.055 -0.4975  2.0930 -2.0605
 2181SOL    HW218269   4.044   1.866  11.177 -0.2083 -0.4714 -0.4041
 2182SOL     OW18270   0.520   9.934   4.408 -0.6598 -0.1470 -0.0318
 2182SOL    HW118271   0.529   9.861   4.347 -0.5102  1.1060 -1.5819
 2182SOL    HW218272   0.607   9.975   4.408 -0.9803  0.5337  0.1548
 2183SOL     OW18273  10.299   1.903   1.246  0.2822  0.7019  0.4351
 2183SOL    HW118274  10.212   1.942   1.231  0.9262  1.5394 -1.4366
 2183SOL    HW218275  10.292   1.815   1.208 -0.1916  0.1779  1.6985
 2184SOL     OW18276   4.772   3.683  11.788 -0.4208 -0.7273 -0.7037
 2184SOL    HW118277   4.741   3.607  11.738  0.5760  0.2080 -2.8400
 2184SOL    HW218278   4.845   3.717  11.737  0.1809  0.7334  1.0513
 2185SOL     OW18279  11.924  11.857   2.522 -0.1207 -0.4206  0.0422
 2185SOL    HW118280  11.897  11.794   2.588 -1.5645 -0.6034 -0.6780
 2185SOL    HW218281  11.855  11.852   2.455  0.6838  0.6072 -0.8919
 2186SOL     OW18282   9.217   5.936   8.780 -0.2275  0.0799 -0.3028
 2186SOL    HW118283   9.307   5.912   8.755 -0.3393  0.6657 -1.3246
 2186SOL    HW218284   9.197   5.879   8.854  0.1498 -1.7202 -1.5316
 2187SOL     OW18285   2.139   0.271  10.959 -0.0812 -0.7587  0.1104
 2187SOL    HW118286   2.232   0.294  10.952  0.3420 -2.1682  0.6926
 2187SOL    HW218287   2.138   0.190  11.011 -1.7695  0.1966  1.7073
 2188SOL     OW18288   8.067  13.353  11.618 -0.2306 -0.5432 -0.3817
 2188SOL    HW118289   8.013  13.424  11.583  1.3293  0.6831 -0.4167
 2188SOL    HW218290   8.156  13.375  11.590  0.3222 -2.4174 -0.2082
 2189SOL     OW18291  10.843   2.563   9.072 -0.0001  0.2074 -0.5938
 2189SOL    HW118292  10.906   2.512   9.020  0.8133  0.8949 -0.3055
 2189SOL    HW218293  10.789   2.497   9.115 -1.1402 -0.3924 -2.7998
 2190SOL     OW18294  13.250   9.597   4.774  0.1747  0.5244 -0.2631
 2190SOL    HW118295  13.333   9.564   4.807 -0.0782  0.3782  0.2350
 2190SOL    HW218296  13.234   9.678   4.822 -0.0211  0.4975 -0.2784
 2191SOL     OW18297   9.838  12.207  13.095 -0.0335  0.1012  0.9340
 2191SOL    HW118298   9.758  12.239  13.054 -0.9457  0.8007  3.1149
 2191SOL    HW218299   9.866  12.135  13.040 -1.5598  0.5360 -0.4923
 2192SOL     OW18300  12.961   1.986   2.974 -0.3056  0.0218  0.7278
 2192SOL    HW118301  12.867   1.966   2.975 -0.5532  1.1227  0.2246
 2192SOL    HW218302  12.970   2.066   3.025  0.5076 -0.6062  1.6077
 2193SOL     OW18303  13.342  10.877   4.154 -0.1221 -0.3692 -0.4212
 2193SOL    HW118304  13.422  10.826   4.161  0.2519  0.1639 -0.7742
 2193SOL    HW218305  13.274  10.821   4.193  0.6843 -0.1816  1.3112
 2194SOL     OW18306   8.390   3.449  10.458  0.8270  0.3706 -0.2209
 2194SOL    HW118307   8.408   3.521  10.399 -2.3674 -1.7595 -4.2645
 2194SOL    HW218308   8.320   3.480  10.515  1.5433  1.3612  0.1318
 2195SOL     OW18309   1.784   2.457   7.977 -0.6115  0.1323  0.2523
 2195SOL    HW118310   1.859   2.405   8.005 -1.2585  0.0376  1.9521
 2195SOL    HW218311   1.810   2.548   7.995 -0.6150  0.1538  0.1460
 2196SOL     OW18312   9.024   5.740  11.990 -0.0698 -0.2953  0.3097
 2196SOL    HW118313   9.119   5.734  11.985  0.0424  0.4257  1.1664
 2196SOL    HW218314   8.993   5.651  11.975  0.7495 -0.5605  0.1551
 2197SOL     OW18315   3.711   1.840   0.691 -0.3106 -0.7201  0.2392
 2197SOL    HW118316   3.631   1.892   0.701 -0.4722 -1.0027  0.4702
 2197SOL    HW218317   3.762   1.860   0.769  0.3047  0.2354 -0.4046
 2198SOL     OW18318   5.723   8.902   0.231  0.4727 -0.0836 -0.1820
 2198SOL    HW118319   5.747   8.813   0.205 -0.2531 -0.7734  1.3734
 2198SOL    HW218320   5.691   8.893   0.321  1.8761  2.0004  0.5973
 2199SOL     OW18321  12.971   8.146  11.454  0.1775 -0.1675 -0.0401
 2199SOL    HW118322  12.977   8.213  11.386  0.0367 -0.9056 -0.7930
 2199SOL    HW218323  13.060   8.140  11.489  0.1280  0.6097  0.2360
 2200SOL     OW18324   0.638   4.298   3.905 -0.0167 -0.6895 -0.4625
 2200SOL    HW118325   0.596   4.370   3.857  1.3320  0.5525  0.1607
 2200SOL    HW218326   0.603   4.219   3.863 -2.9918  0.2202  0.0319
 2201SOL     OW18327   9.239   9.877   9.488  0.2984  0.0968 -0.2220
 2201SOL    HW118328   9.263   9.896   9.579  2.4898 -0.3851 -0.6350
 2201SOL    HW218329   9.301   9.929   9.436  0.2325 -0.9786 -1.4113
 2202SOL     OW18330  11.727   2.893   0.816 -0.4908 -0.0523  0.0387
 2202SOL    HW118331  11.698   2.964   0.873 -0.2302  0.6368 -0.6684
 2202SOL    HW218332  11.759   2.937   0.738 -0.1019 -0.9438 -0.3146
 2203SOL     OW18333   3.670  13.693   0.326 -0.8490  0.2368 -0.5048
 2203SOL    HW118334   3.599  13.630   0.322  0.5542 -1.5306  0.9997
 2203SOL    HW218335   3.746  13.646   0.293  0.7103  0.3240  2.6382
 2204SOL     OW18336   1.640  12.181   5.707  0.4748  0.5925 -0.1984
 2204SOL    HW118337   1.568  12.120   5.716 -0.1881  1.5440  1.2805
 2204SOL    HW218338   1.719  12.127   5.719 -0.0579 -0.1083  0.2227
 2205SOL     OW18339   6.541   1.617   0.663 -0.0145  0.2528  0.2731
 2205SOL    HW118340   6.607   1.602   0.730 -1.6033  0.0934  1.8743
 2205SOL    HW218341   6.524   1.531   0.626  1.9868  0.5409 -1.5506
 2206SOL     OW18342  13.499   7.410   7.646  0.0897  0.2763 -0.0734
 2206SOL    HW118343  13.524   7.413   7.738  1.0029  0.9671 -0.3282
 2206SOL    HW218344  13.404   7.423   7.646  0.0594  0.0815  0.7761
 2207SOL     OW18345   4.630  13.428   6.646  0.4314 -0.2102 -0.7095
 2207SOL    HW118346   4.543  13.461   6.625  0.9739  0.3056 -2.3307
 2207SOL    HW218347   4.690  13.494   6.609  1.5350  0.0569  1.3825
 2208SOL     OW18348  10.423   3.377   6.630  0.0765 -0.2967 -0.0009
 2208SOL    HW118349  10.515   3.394   6.612  0.0591  1.1725  1.1225
 2208SOL    HW218350  10.376   3.439   6.574 -0.1199  0.8168  1.3470
 2209SOL     OW18351  10.736  11.833  10.653 -0.2466  0.0558 -0.0339
 2209SOL    HW118352  10.691  11.901  10.602 -1.3282  0.3234  1.2245
 2209SOL    HW218353  10.824  11.830  10.616 -0.6724  0.9841 -1.1962
 2210SOL     OW18354   2.100   4.961   3.733 -0.5669 -0.6682 -0.2978
 2210SOL    HW118355   2.122   4.880   3.686 -1.0899  0.6114 -2.9136
 2210SOL    HW218356   2.155   5.028   3.693 -0.1970  0.3437  1.7777
 2211SOL     OW18357  13.242   4.096   7.591 -0.0710 -0.4159 -0.3268
 2211SOL    HW118358  13.244   4.012   7.637 -0.3622 -1.8876 -2.8158
 2211SOL    HW218359  13.296   4.154   7.644  0.5193 -2.2954  1.2363
 2212SOL     OW18360   5.026  11.769   1.493  0.3040 -0.0515  0.2724
 2212SOL    HW118361   4.982  11.712   1.556  1.6776  0.6208  1.9275
 2212SOL    HW218362   5.109  11.791   1.535 -0.8274  4.5907  0.6313
 2213SOL     OW18363   6.361   7.944  12.350  0.1099  0.0511  0.0527
 2213SOL    HW118364   6.279   7.949  12.300 -0.3796  0.9337  0.9123
 2213SOL    HW218365   6.384   7.851  12.348 -0.5660 -0.1093 -0.7534
 2214SOL     OW18366   4.951   9.922  12.952 -0.0541  0.4583 -0.1297
 2214SOL    HW118367   5.034   9.969  12.952 -0.0778  0.5129 -0.5987
 2214SOL    HW218368   4.941   9.891  12.862 -1.3543  1.9152 -0.5377
 2215SOL     OW18369   2.564   2.925   0.430 -0.3553  0.0576  0.5310
 2215SOL    HW118370   2.580   2.830   0.423  0.2471  0.2726 -1.8909
 2215SOL    HW218371   2.641   2.958   0.477 -0.4828 -0.6019  1.2366
 2216SOL     OW18372   3.607  13.223   3.410 -0.1452  0.2348 -0.0472
 2216SOL    HW118373   3.604  13.181   3.496  3.1980 -1.0421 -0.4020
 2216SOL    HW218374   3.573  13.157   3.350  0.6460 -0.2136 -0.0308
 2217SOL     OW18375   7.505  10.103   7.628  0.1556 -0.2263  0.1294
 2217SOL    HW118376   7.520  10.016   7.591 -0.7493  0.3271 -1.6653
 2217SOL    HW218377   7.591  10.130   7.660  0.6854 -1.3315 -0.2867
 2218SOL     OW18378   6.250   0.183   6.359  0.3655  0.2501 -0.0027
 2218SOL    HW118379   6.198   0.191   6.439  0.3720  1.2230 -0.0887
 2218SOL    HW218380   6.337   0.160   6.390  0.3286  0.4522  0.2548
 2219SOL     OW18381  11.485   9.664   6.600  0.6802 -0.2884 -0.6126
 2219SOL    HW118382  11.533   9.617   6.532  1.0720  1.0385 -1.3012
 2219SOL    HW218383  11.496   9.611   6.679  1.2134 -1.2591 -1.3131
 2220SOL     OW18384   3.889   6.587   7.200  0.6999 -0.4267  0.6853
 2220SOL    HW118385   3.861   6.672   7.166 -2.2766 -1.9807 -1.1942
 2220SOL    HW218386   3.818   6.528   7.176  1.6454 -3.0835  3.7991
 2221SOL     OW18387   6.538   2.317   4.369  0.0621  0.1691  0.2347
 2221SOL    HW118388   6.617   2.313   4.314 -0.4358 -1.3730 -0.4315
 2221SOL    HW218389   6.493   2.396   4.341  0.6877  0.3245 -0.3594
 2222SOL     OW18390   7.910  10.612   9.756  0.4301 -0.3231  0.0874
 2222SOL    HW118391   7.903  10.704   9.730 -1.1027 -0.1624  0.9218
 2222SOL    HW218392   7.857  10.606   9.836  0.6874 -1.8882  0.1730
 2223SOL     OW18393   5.504   9.721   2.651 -0.2831  0.2932  0.0588
 2223SOL    HW118394   5.423   9.706   2.699  0.4195  0.9031  1.5119
 2223SOL    HW218395   5.569   9.741   2.719  0.4442  2.6581 -1.2062
 2224SOL     OW18396   7.378  10.157   6.991 -0.3667 -0.1206  0.0809
 2224SOL    HW118397   7.470  10.176   6.979 -0.5520  0.0544 -1.1750
 2224SOL    HW218398   7.337  10.177   6.907 -1.5397 -0.2647  0.5837
 2225SOL     OW18399   1.651  13.532   8.067  0.3944 -0.4328 -0.1002
 2225SOL    HW118400   1.630  13.578   7.985 -0.6338 -0.4713  0.1193
 2225SOL    HW218401   1.728  13.578   8.101  0.8389 -0.4264 -1.0906
 2226SOL     OW18402  12.621  11.477  12.629  0.3978 -0.1490  0.7601
 2226SOL    HW118403  12.651  11.466  12.539  0.9030 -0.2783  0.9429
 2226SOL    HW218404  12.694  11.447  12.683  0.2555  0.3121  1.2167
 2227SOL     OW18405  12.588   1.956  13.502 -0.1924  0.1000 -0.6566
 2227SOL    HW118406  12.493   1.967  13.501 -0.1120  0.9882  0.1958
 2227SOL    HW218407  12.611   1.936  13.411 -1.0215  1.3930 -1.1814
 2228SOL     OW18408  11.904   1.239  11.607  0.5345 -0.4237 -0.0692
 2228SOL    HW118409  11.985   1.200  11.640  0.0546 -0.6308  0.8996
 2228SOL    HW218410  11.846   1.164  11.592 -1.2622 -0.1266  4.0913
 2229SOL     OW18411  10.100   4.348   6.208 -0.5049 -0.7554 -0.8794
 2229SOL    HW118412  10.181   4.342   6.158 -0.0660 -1.7070 -0.0918
 2229SOL    HW218413  10.090   4.441   6.226 -0.1568 -0.5093 -1.8785
 2230SOL     OW18414   7.913   9.981   9.509 -0.8155  0.2145  0.0583
 2230SOL    HW118415   7.880   9.892   9.500 -1.3912  0.2568  1.5260
 2230SOL    HW218416   8.003   9.970   9.539 -1.5121  0.0824  2.2787
 2231SOL     OW18417   6.410   9.399   2.672 -0.3575  0.4355 -0.4422
 2231SOL    HW118418   6.365   9.322   2.706  1.2509  0.1883  1.2755
 2231SOL    HW218419   6.394   9.467   2.737  1.0957  0.5429 -0.1727
 2232SOL     OW18420   2.060   1.924  12.684  0.1899  0.0865 -0.1495
 2232SOL    HW118421   2.151   1.949  12.700  0.1931 -0.4004  0.6268
 2232SOL    HW218422   2.050   1.934  12.589  0.2248  2.8592  0.0478
 2233SOL     OW18423  10.023   0.339   0.862  0.3801 -0.2170 -0.2387
 2233SOL    HW118424   9.945   0.291   0.833  0.4101  0.2144 -1.0410
 2233SOL    HW218425  10.083   0.271   0.893 -0.6901 -0.4998  1.3380
 2234SOL     OW18426   4.731   8.015   7.664 -0.1339 -0.1744 -0.1652
 2234SOL    HW118427   4.658   8.073   7.686  0.1149  0.2204 -0.3657
 2234SOL    HW218428   4.693   7.950   7.605 -0.4604 -0.3405  0.2246
 2235SOL     OW18429   6.848  10.597   5.769  0.6086  0.2004  0.0745
 2235SOL    HW118430   6.866  10.503   5.758 -1.6338 -0.0424 -3.0310
 2235SOL    HW218431   6.907  10.639   5.706  1.4129  0.8790  1.2623
 2236SOL     OW18432   1.816   2.982   2.092 -0.5645  0.5411  0.4601
 2236SOL    HW118433   1.776   3.023   2.169  0.2333  1.6102  0.3342
 2236SOL    HW218434   1.831   2.891   2.117  0.1383  0.9886  1.7420
 2237SOL     OW18435   1.829   1.858   1.477 -0.2891 -0.2373  0.1614
 2237SOL    HW118436   1.894   1.796   1.443 -0.9757 -1.3701  0.8597
 2237SOL    HW218437   1.746   1.811   1.472 -1.0261  1.0707 -0.4063
 2238SOL     OW18438   1.536   9.708   4.547  0.6588 -0.3299  0.2639
 2238SOL    HW118439   1.628   9.710   4.521  0.6276  1.0400  0.1635
 2238SOL    HW218440   1.488   9.734   4.468  0.4990  3.0048  1.3198
 2239SOL     OW18441   4.315   0.014   8.952 -0.0764  0.0217  0.1137
 2239SOL    HW118442   4.379  -0.055   8.936 -1.2237 -0.7168 -1.5270
 2239SOL    HW218443   4.331   0.042   9.042  0.4858 -2.3226  0.7931
 2240SOL     OW18444  10.209   3.887   8.227 -0.1166 -0.9561  0.6001
 2240SOL    HW118445  10.246   3.818   8.282 -1.2401  0.1493  2.8546
 2240SOL    HW218446  10.159   3.840   8.160  2.3322 -2.3627 -0.4017
 2241SOL     OW18447   9.549   3.299   9.709 -0.2449 -0.3673 -0.1252
 2241SOL    HW118448   9.579   3.363   9.774  0.3228  0.7931 -1.4637
 2241SOL    HW218449   9.477   3.343   9.663  1.9885  0.6715 -3.0221
 2242SOL     OW18450   2.100   5.945   7.613 -0.1663 -0.0006 -0.1768
 2242SOL    HW118451   2.155   5.868   7.628  0.6071  0.5659 -0.0539
 2242SOL    HW218452   2.031   5.913   7.555 -0.4824 -1.0482  0.7193
 2243SOL     OW18453  10.648   2.015   5.054  0.2877 -0.0788 -0.3343
 2243SOL    HW118454  10.736   1.981   5.038 -0.3242 -1.1920 -1.5349
 2243SOL    HW218455  10.605   2.011   4.968 -1.5370 -1.3596  0.5757
 2244SOL     OW18456  13.220   3.529   7.602  0.1465 -0.3919  0.2609
 2244SOL    HW118457  13.280   3.579   7.547 -2.4763  2.9886  0.1810
 2244SOL    HW218458  13.134   3.540   7.561 -1.2186 -1.5705  2.5599
 2245SOL     OW18459  11.243   5.964   6.682 -0.4260  0.3402 -0.0175
 2245SOL    HW118460  11.153   5.998   6.679 -0.8369 -0.6075  1.0263
 2245SOL    HW218461  11.295   6.033   6.640 -1.8413  0.1278 -2.3384
 2246SOL     OW18462   9.205   5.708   0.039 -0.5200  0.6490 -0.0127
 2246SOL    HW118463   9.123   5.703  -0.011 -0.7857 -1.0290  0.5314
 2246SOL    HW218464   9.182   5.757   0.118 -0.5023  1.8789 -0.7537
 2247SOL     OW18465   9.231   0.526   0.476 -0.7175  0.5968  0.3718
 2247SOL    HW118466   9.177   0.600   0.447 -0.4990  1.7431  2.6671
 2247SOL    HW218467   9.204   0.511   0.567 -0.0897 -1.5674  0.2455
 2248SOL     OW18468  12.041   0.051   2.658  0.2936  0.6192 -0.6333
 2248SOL    HW118469  12.091   0.125   2.691  1.0688 -0.6961  1.3408
 2248SOL    HW218470  12.099   0.009   2.594  0.8097  0.3844 -0.0132
 2249SOL     OW18471   4.341  10.562   0.382 -0.0902  0.0742  0.4825
 2249SOL    HW118472   4.253  10.558   0.419 -0.3652  0.8342 -0.0666
 2249SOL    HW218473   4.348  10.482   0.329 -0.7115  0.3339 -0.0133
 2250SOL     OW18474  10.962  13.611  12.608 -0.0434 -0.7200 -0.1466
 2250SOL    HW118475  11.030  13.550  12.579 -1.7648 -1.9955 -1.7518
 2250SOL    HW218476  10.881  13.577  12.569 -1.4268  1.4017  0.6903
 2251SOL     OW18477   0.890  11.459   4.213 -0.0270  0.3150 -0.2171
 2251SOL    HW118478   0.979  11.431   4.237 -0.6592 -1.7015 -0.0949
 2251SOL    HW218479   0.854  11.494   4.294  0.1070 -0.3798  0.1516
 2252SOL     OW18480   2.787   5.151   4.882 -0.2308  0.2048 -0.6769
 2252SOL    HW118481   2.794   5.121   4.973 -0.3692  1.5316 -0.2080
 2252SOL    HW218482   2.741   5.080   4.837 -0.4503 -0.3330  0.3573
 2253SOL     OW18483   3.698   5.826   7.867  0.3113 -0.2921 -0.0335
 2253SOL    HW118484   3.727   5.882   7.795  0.4037 -2.0842 -1.4799
 2253SOL    HW218485   3.778   5.787   7.901  0.0916 -1.0961 -0.4154
 2254SOL     OW18486   7.877   8.519  12.006  0.2923  0.1661 -0.6184
 2254SOL    HW118487   7.863   8.447  11.946 -1.0489 -0.4049  0.3110
 2254SOL    HW218488   7.799   8.518  12.063  1.3906  0.7846  0.9861
 2255SOL     OW18489   7.239   7.592  10.599  0.0178 -0.2747 -0.1815
 2255SOL    HW118490   7.299   7.576  10.672  1.6122 -0.2228 -1.4042
 2255SOL    HW218491   7.287   7.651  10.541 -2.1907  1.7256 -0.1077
 2256SOL     OW18492  10.047   4.854  13.329  0.2926 -0.4824 -0.1876
 2256SOL    HW118493  10.072   4.816  13.413 -1.4268  0.3614  0.7622
 2256SOL    HW218494   9.966   4.809  13.306  0.1232  0.1173 -0.7918
 2257SOL     OW18495   5.419  10.054   6.611 -0.1722  0.2294  0.2575
 2257SOL    HW118496   5.400  10.137   6.654  0.7256 -0.3720  1.9021
 2257SOL    HW218497   5.428   9.991   6.682 -0.8851 -1.3142 -0.9482
 2258SOL     OW18498   3.609   1.728   1.304  0.1445  0.0590  0.2262
 2258SOL    HW118499   3.660   1.671   1.247  0.1029  0.2815 -0.0356
 2258SOL    HW218500   3.662   1.734   1.384 -0.7015 -1.7856  0.9704
 2259SOL     OW18501   8.892   7.150   5.641 -0.2845 -0.0994  0.6567
 2259SOL    HW118502   8.819   7.207   5.620  1.4166  1.5854 -1.0787
 2259SOL    HW218503   8.882   7.075   5.582 -0.5818  0.1213  0.4258
 2260SOL     OW18504   2.386  13.381  12.138  0.3475  0.3149  0.2268
 2260SOL    HW118505   2.418  13.291  12.143  0.6723  0.4225  0.1214
 2260SOL    HW218506   2.330  13.391  12.215  0.2579  0.0045  0.2028
 2261SOL     OW18507   1.771   0.774   8.478  0.6097 -0.5992 -0.4733
 2261SOL    HW118508   1.803   0.864   8.484 -0.8334  0.0793 -1.9640
 2261SOL    HW218509   1.675   0.782   8.479  0.4322 -1.9903 -1.7855
 2262SOL     OW18510   7.771   0.141   9.199  0.0606 -0.0081 -0.4280
 2262SOL    HW118511   7.863   0.167   9.194  0.5198 -1.6458 -1.4622
 2262SOL    HW218512   7.738   0.183   9.278  1.7667  0.4146  0.0949
 2263SOL     OW18513  11.433   5.489   7.961  0.2898 -0.4832 -0.0945
 2263SOL    HW118514  11.509   5.445   7.925  1.1727 -0.5539  1.7436
 2263SOL    HW218515  11.436   5.470   8.055  0.1738  2.6146  0.6650
 2264SOL     OW18516  10.119   2.972   2.075 -0.0449 -0.2025 -0.1031
 2264SOL    HW118517  10.148   3.029   2.146 -2.2971 -0.0096  0.7336
 2264SOL    HW218518  10.026   2.991   2.065 -0.5992 -2.8018 -0.6388
 2265SOL     OW18519   5.658   7.852  11.492  0.5186  0.0321  0.2226
 2265SOL    HW118520   5.681   7.773  11.541  0.1621 -0.5269 -0.4978
 2265SOL    HW218521   5.737   7.872  11.441 -0.1760 -1.3527 -1.5374
 2266SOL     OW18522   6.990  11.691   2.147  0.3404  0.8548  0.0001
 2266SOL    HW118523   7.057  11.647   2.199  0.4401 -0.5768 -1.2597
 2266SOL    HW218524   7.039  11.742   2.082  0.2124  2.1974  0.9246
 2267SOL     OW18525   3.829   5.514   7.256  0.2066 -0.1616 -0.2658
 2267SOL    HW118526   3.883   5.576   7.207  1.4402 -1.2518 -0.3334
 2267SOL    HW218527   3.739   5.539   7.236  0.6648  1.5198 -0.3889
 2268SOL     OW18528   9.843  12.245   5.422 -0.0860 -0.5215  0.4906
 2268SOL    HW118529   9.768  12.279   5.373 -0.5208 -1.4589  0.4761
 2268SOL    HW218530   9.919  12.266   5.367 -0.1742  1.5497  1.0982
 2269SOL     OW18531  11.023   2.484  13.211 -0.3306 -0.4419 -0.3404
 2269SOL    HW118532  11.110   2.522  13.195 -0.4443  0.6888  1.5547
 2269SOL    HW218533  11.035   2.427  13.287 -1.0448 -1.1185 -0.7182
 2270SOL     OW18534   9.540   4.944   9.639  0.1204 -0.5201 -0.2212
 2270SOL    HW118535   9.565   4.866   9.688 -0.2730 -0.8567 -0.5495
 2270SOL    HW218536   9.467   4.916   9.585 -2.0795  0.7994  1.8508
 2271SOL     OW18537   0.589   2.319  12.071  0.0523  0.3671 -0.0748
 2271SOL    HW118538   0.547   2.404  12.062  0.6614  0.6706 -0.1335
 2271SOL    HW218539   0.651   2.315  11.998  0.5107  0.1683  0.3163
 2272SOL     OW18540  12.907   1.879   6.054 -0.0752 -0.4252  0.3992
 2272SOL    HW118541  12.936   1.968   6.074 -0.0579 -0.1514 -0.7364
 2272SOL    HW218542  12.987   1.827   6.054  0.1608 -0.0919 -0.6001
 2273SOL     OW18543   9.077   7.415   5.408  0.1876  0.2117 -0.5302
 2273SOL    HW118544   9.116   7.404   5.321  0.7740  0.1679 -0.2676
 2273SOL    HW218545   8.985   7.436   5.391  0.4372  0.8194 -1.1806
 2274SOL     OW18546  12.389   1.253   1.910  0.1307  0.4016 -0.0286
 2274SOL    HW118547  12.313   1.308   1.893  0.2047 -0.0850 -2.4077
 2274SOL    HW218548  12.378   1.223   2.000 -2.4911  0.3888 -0.2717
 2275SOL     OW18549   4.149   4.318   8.925  0.3595 -0.1635 -0.3000
 2275SOL    HW118550   4.170   4.334   8.834  0.1261  1.3500 -0.1098
 2275SOL    HW218551   4.096   4.238   8.924  1.3664 -0.8326 -1.3444
 2276SOL     OW18552   3.767   2.438   9.368  0.5381 -0.3006  1.0096
 2276SOL    HW118553   3.714   2.492   9.426 -1.5650  1.4474 -2.2368
 2276SOL    HW218554   3.714   2.360   9.353 -0.8982  1.0495 -1.5381
 2277SOL     OW18555   8.080  12.287   5.656 -0.0582 -0.0207  1.0103
 2277SOL    HW118556   8.013  12.331   5.707  0.6456  0.2735  1.6896
 2277SOL    HW218557   8.041  12.277   5.569 -1.2387 -0.4706  1.5711
 2278SOL     OW18558   0.983   3.658   0.078  0.4921  0.0059 -0.1969
 2278SOL    HW118559   1.038   3.696   0.009 -1.8967  1.9492 -1.1846
 2278SOL    HW218560   0.910   3.618   0.031  0.2370 -1.1746  1.1292
 2279SOL     OW18561   5.051   0.951   7.126 -0.3072  0.7439  1.0940
 2279SOL    HW118562   5.027   1.044   7.118 -0.6421  0.5772 -0.1296
 2279SOL    HW218563   5.026   0.913   7.041  0.3981 -0.3356  1.3544
 2280SOL     OW18564   2.150   0.621   8.057 -0.5589 -0.2069  0.6001
 2280SOL    HW118565   2.160   0.650   7.967 -1.3155 -2.5663 -0.3124
 2280SOL    HW218566   2.061   0.647   8.081 -2.5472 -4.2653 -1.3746
 2281SOL     OW18567   4.512   8.606  13.440 -0.6795 -0.2603  0.2185
 2281SOL    HW118568   4.466   8.654  13.371  1.1415  0.7203 -0.3871
 2281SOL    HW218569   4.465   8.628  13.520 -2.4105 -0.8496 -0.5927
 2282SOL     OW18570  10.826  13.692   2.311  0.4381 -0.1236 -0.2238
 2282SOL    HW118571  10.865  13.616   2.267 -0.3533 -1.0471  0.6172
 2282SOL    HW218572  10.732  13.679   2.301  0.1971 -0.7347  2.2564
 2283SOL     OW18573   3.238   4.895  10.674 -0.3271  0.6511  0.7444
 2283SOL    HW118574   3.150   4.930  10.690 -0.6361  0.9423 -1.2892
 2283SOL    HW218575   3.270   4.946  10.600  0.9789 -0.4641  0.5187
 2284SOL     OW18576   2.880  12.272   7.994  0.2422 -0.4235 -0.0928
 2284SOL    HW118577   2.821  12.235   7.929  0.8503 -2.0705  0.2493
 2284SOL    HW218578   2.832  12.347   8.030 -0.3119  0.2061 -2.0200
 2285SOL     OW18579   6.510   1.181   5.865 -0.3049  0.3541 -0.2084
 2285SOL    HW118580   6.509   1.086   5.856 -2.4299  0.2093  1.0503
 2285SOL    HW218581   6.594   1.200   5.906  0.8131 -0.7868 -1.8322
 2286SOL     OW18582   4.951   5.283   9.676 -0.3343 -0.1847  0.4871
 2286SOL    HW118583   4.960   5.376   9.657 -2.0115 -0.0471  0.1894
 2286SOL    HW218584   4.996   5.270   9.759  0.2175  0.8187  0.3478
 2287SOL     OW18585   1.412  10.456   3.846 -0.0562  0.6068 -0.4871
 2287SOL    HW118586   1.341  10.408   3.802  0.4795 -0.6071 -0.0729
 2287SOL    HW218587   1.371  10.536   3.878 -1.4721 -0.4887  0.5399
 2288SOL     OW18588   9.676   1.736  11.049  0.8037  0.1961  0.3723
 2288SOL    HW118589   9.638   1.796  10.985  1.8434  0.7730  0.2741
 2288SOL    HW218590   9.603   1.713  11.107 -0.0154  0.1249 -0.6587
 2289SOL     OW18591  10.145  10.881   9.251 -0.8322  0.1529  0.8311
 2289SOL    HW118592  10.106  10.963   9.219 -0.3259  0.4517  0.9793
 2289SOL    HW218593  10.162  10.897   9.343  0.2218  0.2501  0.6326
 2290SOL     OW18594   2.189   6.113  12.185  0.1080  0.3678 -0.4198
 2290SOL    HW118595   2.141   6.152  12.258  0.1501  1.1365 -0.8013
 2290SOL    HW218596   2.122   6.074  12.130 -0.0956  1.4123 -0.9342
 2291SOL     OW18597  10.732  10.597   3.975  0.1760 -0.1095 -0.3383
 2291SOL    HW118598  10.685  10.625   4.054  0.9156 -0.5531  0.2763
 2291SOL    HW218599  10.725  10.672   3.916 -0.7007  0.0988 -0.0015
 2292SOL     OW18600   6.178   2.275  11.322 -0.4299  0.0590 -0.3644
 2292SOL    HW118601   6.246   2.209  11.339 -0.6727  0.0326  0.5231
 2292SOL    HW218602   6.136   2.288  11.406 -3.0398 -1.5507 -1.3116
 2293SOL     OW18603  12.706  13.141   7.936 -0.4658 -0.1590  0.0363
 2293SOL    HW118604  12.630  13.096   7.974 -1.4393 -0.4855 -2.1387
 2293SOL    HW218605  12.669  13.217   7.891  0.6728  0.4042  0.0058
 2294SOL     OW18606   9.285  13.398   6.101  0.4149 -0.3293 -0.1423
 2294SOL    HW118607   9.349  13.331   6.124  0.3120 -0.5293 -0.4361
 2294SOL    HW218608   9.294  13.464   6.170  0.6191 -0.5718  0.0652
 2295SOL     OW18609  13.288  10.742   7.146  0.2793 -0.2152 -0.2926
 2295SOL    HW118610  13.281  10.820   7.091 -0.2079 -0.7235 -0.9754
 2295SOL    HW218611  13.313  10.775   7.232 -0.4930  0.7476 -0.4248
 2296SOL     OW18612   9.236  11.470   5.889  0.2521  0.0258  0.4752
 2296SOL    HW118613   9.177  11.442   5.818  0.2297  3.8654 -1.2694
 2296SOL    HW218614   9.184  11.531   5.941  1.7428  1.1818  0.6824
 2297SOL     OW18615   1.653   5.214   3.429 -0.8600  0.4079  0.1512
 2297SOL    HW118616   1.607   5.200   3.512  1.1862 -0.5846  1.2127
 2297SOL    HW218617   1.708   5.290   3.445  1.7516 -1.4693  0.8582
 2298SOL     OW18618   2.464  13.499   9.583  0.5058 -0.7030 -0.2309
 2298SOL    HW118619   2.479  13.588   9.551 -0.4577  0.1118  1.4139
 2298SOL    HW218620   2.458  13.509   9.678  1.1271 -2.6571  0.0574
 2299SOL     OW18621  13.615  10.559  11.084  0.2939 -0.1142  0.4106
 2299SOL    HW118622  13.636  10.469  11.058  0.2861 -0.3238  1.1274
 2299SOL    HW218623  13.609  10.557  11.179  0.3143  0.6535  0.4399
 2300SOL     OW18624  10.194   5.684   6.931  0.0266 -0.1587 -0.0943
 2300SOL    HW118625  10.246   5.610   6.963  1.1376  0.6520  0.0164
 2300SOL    HW218626  10.108   5.646   6.911  0.3774 -1.3419  0.5815
 2301SOL     OW18627   5.330   0.400   2.738  0.5086  0.2818  0.4782
 2301SOL    HW118628   5.260   0.418   2.675 -1.8467 -1.1739  2.5227
 2301SOL    HW218629   5.339   0.482   2.787 -0.7686  0.0699  1.0978
 2302SOL     OW18630  13.173   4.113  10.893 -0.5784 -0.0000 -0.2593
 2302SOL    HW118631  13.176   4.168  10.815 -1.6808 -0.8558 -0.9347
 2302SOL    HW218632  13.230   4.039  10.873 -0.5094  0.0008 -0.0726
 2303SOL     OW18633  12.036   8.260   8.034  0.0915 -0.0998  0.6272
 2303SOL    HW118634  12.116   8.291   8.077  0.2195  1.3640 -0.5981
 2303SOL    HW218635  11.965   8.294   8.090  0.2812  0.7444  0.3651
 2304SOL     OW18636   2.001  12.144   3.801 -0.1881 -0.9956 -0.5821
 2304SOL    HW118637   2.092  12.116   3.788  0.3989  0.5102  0.1386
 2304SOL    HW218638   2.000  12.185   3.887 -0.7515  2.0052 -1.8986
 2305SOL     OW18639   3.137   6.530  11.893  0.1338  0.3253  0.2876
 2305SOL    HW118640   3.067   6.590  11.919 -1.3239 -0.7742 -0.8866
 2305SOL    HW218641   3.091   6.451  11.864  1.9426 -0.9158  0.6524
 2306SOL     OW18642  12.087  11.105   4.040 -0.1646  0.1526  0.0647
 2306SOL    HW118643  12.137  11.062   4.109  0.2685 -0.1053 -0.4025
 2306SOL    HW218644  12.142  11.178   4.012 -0.7725  0.8486  0.6628
 2307SOL     OW18645  11.234   8.652  10.597 -0.2444 -0.0439  0.2221
 2307SOL    HW118646  11.157   8.615  10.554  0.1409 -0.5074 -0.0825
 2307SOL    HW218647  11.203   8.732  10.638 -1.0832 -0.6569  0.8182
 2308SOL     OW18648  13.570  12.892  10.920  0.7550 -0.3669 -0.2177
 2308SOL    HW118649  13.482  12.870  10.890  0.3742 -0.3989  0.8661
 2308SOL    HW218650  13.555  12.944  11.000  1.7165 -0.8315  0.2792
 2309SOL     OW18651   9.865   4.016   1.910  0.2637  0.4496 -0.3163
 2309SOL    HW118652   9.826   3.965   1.981  1.0899  0.5695  0.2362
 2309SOL    HW218653   9.952   4.039   1.942  0.1135  1.7367 -0.7830
 2310SOL     OW18654   1.406   8.421   5.923 -0.5295 -0.2577  0.3205
 2310SOL    HW118655   1.383   8.417   5.830 -0.3169 -0.6643  0.2830
 2310SOL    HW218656   1.437   8.333   5.944  3.2583  0.7886 -0.2014
 2311SOL     OW18657   0.505  12.807  12.858  0.2159  0.2516 -0.3579
 2311SOL    HW118658   0.455  12.884  12.833 -0.5899  0.0977  0.7282
 2311SOL    HW218659   0.445  12.734  12.848  0.5387 -0.0632 -0.0538
 2312SOL     OW18660   4.432   3.998   9.375 -0.0064  0.5015 -0.1481
 2312SOL    HW118661   4.357   3.952   9.414 -0.7407  1.5771 -0.2356
 2312SOL    HW218662   4.492   3.928   9.349 -0.6341 -0.3518  0.6207
 2313SOL     OW18663   1.022  13.472   0.702 -0.2290 -0.4325  0.5495
 2313SOL    HW118664   1.095  13.484   0.763 -1.1970 -1.4989  1.9714
 2313SOL    HW218665   0.946  13.508   0.747 -0.6672  0.4311 -0.8123
 2314SOL     OW18666   1.037   1.724   2.149  0.6119  1.0204 -0.5583
 2314SOL    HW118667   0.995   1.639   2.159  0.5454  0.9080 -1.7544
 2314SOL    HW218668   0.973   1.779   2.104  0.7424  1.6464 -0.0107
 2315SOL     OW18669   5.625   6.160  12.127  0.6851 -0.0237  0.2813
 2315SOL    HW118670   5.609   6.077  12.083  2.1664 -0.0227 -0.3468
 2315SOL    HW218671   5.710   6.189  12.093 -0.6472  2.7589 -1.0810
 2316SOL     OW18672  11.360  12.685   0.344 -0.3934 -0.2352  0.5904
 2316SOL    HW118673  11.339  12.603   0.300  0.7972 -0.9554  1.3354
 2316SOL    HW218674  11.328  12.753   0.284 -1.1404 -1.2237 -0.1604
 2317SOL     OW18675  12.589   1.923  12.281  0.2873 -0.5384 -0.1041
 2317SOL    HW118676  12.572   1.988  12.212  0.8899 -0.5774 -0.2885
 2317SOL    HW218677  12.509   1.924  12.334  0.3814  0.5382  0.0449
 2318SOL     OW18678   7.001   3.223   6.851 -0.0037 -0.2529  0.3062
 2318SOL    HW118679   7.075   3.183   6.806 -0.0090 -1.6243  1.4144
 2318SOL    HW218680   6.968   3.289   6.791  2.2449  0.5629 -0.1306
 2319SOL     OW18681   8.864  10.215   1.786 -0.7127  0.1910 -0.2325
 2319SOL    HW118682   8.947  10.166   1.790 -0.9667 -0.2231 -0.0255
 2319SOL    HW218683   8.832  10.201   1.697 -1.6955 -1.5449  0.3444
 2320SOL     OW18684  10.116  12.007  11.603  0.4260 -0.5718 -0.0646
 2320SOL    HW118685  10.091  12.026  11.693 -0.1098 -0.8125 -0.1577
 2320SOL    HW218686  10.179  11.935  11.610 -0.0515 -0.9765  0.0823
 2321SOL     OW18687   2.702   8.725   7.897 -0.4110  0.2087 -0.0901
 2321SOL    HW118688   2.778   8.679   7.863 -0.4822  1.3895 -1.9841
 2321SOL    HW218689   2.672   8.779   7.824 -0.7790  2.6905  1.7671
 2322SOL     OW18690   2.796  11.556  12.523  0.4494  0.1147  0.3236
 2322SOL    HW118691   2.718  11.503  12.505  1.3916 -0.8884 -1.0180
 2322SOL    HW218692   2.844  11.508  12.589  0.6390 -0.0104  0.0952
 2323SOL     OW18693   6.377  10.873   6.804 -0.2096 -0.2801 -0.0019
 2323SOL    HW118694   6.463  10.904   6.831  0.0552  0.2020 -1.3705
 2323SOL    HW218695   6.330  10.861   6.887  0.9288  0.1264  0.7299
 2324SOL     OW18696   3.041   8.151   9.329 -0.2797 -0.6962 -0.3359
 2324SOL    HW118697   2.996   8.217   9.277  0.0355 -0.6226 -0.5185
 2324SOL    HW218698   3.130   8.149   9.293 -0.4945 -1.7502 -0.8321
 2325SOL     OW18699  11.527   5.970  12.566  0.3559  0.0956 -0.1335
 2325SOL    HW118700  11.583   5.914  12.511  0.4417  0.6066 -0.5823
 2325SOL    HW218701  11.573   6.054  12.567  0.5816 -0.0249  1.0939
 2326SOL     OW18702   7.263   6.967   0.129 -0.0202 -0.6157 -0.4532
 2326SOL    HW118703   7.318   7.011   0.065  1.0860 -0.8001  0.3388
 2326SOL    HW218704   7.290   6.875   0.126 -1.6031 -1.0985 -1.3709
 2327SOL     OW18705  12.367   1.596   3.818 -0.1774 -0.0880  0.1440
 2327SOL    HW118706  12.417   1.677   3.823 -0.7219  0.4090 -1.5646
 2327SOL    HW218707  12.346   1.587   3.725  0.1275 -2.3571  0.2293
 2328SOL     OW18708   4.578  11.606  13.501  0.1019 -0.2940  0.5916
 2328SOL    HW118709   4.539  11.669  13.440 -0.3920  0.5503  1.7541
 2328SOL    HW218710   4.557  11.640  13.588  1.3369 -1.1423  1.2515
 2329SOL     OW18711   8.943  10.066  13.120  0.4364  0.0607  0.5517
 2329SOL    HW118712   8.880  10.022  13.178  0.6191 -0.2979  0.4819
 2329SOL    HW218713   8.899  10.068  13.035 -0.1250  1.2253  0.8493
 2330SOL     OW18714   4.546   0.677   0.756  0.1559  0.3030  0.2108
 2330SOL    HW118715   4.524   0.587   0.729  1.3776  0.0511 -0.0041
 2330SOL    HW218716   4.462   0.722   0.759 -0.6299 -1.1436  1.4290
 2331SOL     OW18717  13.117   9.347   6.004  0.5168  0.3325  0.2734
 2331SOL    HW118718  13.144   9.427   6.049  0.0301 -0.1308  1.4130
 2331SOL    HW218719  13.022   9.343   6.015  0.1416  0.9891 -2.1345
 2332SOL     OW18720   6.411  12.122   2.777  0.1195 -0.2306  0.4191
 2332SOL    HW118721   6.422  12.091   2.867 -1.5722  3.0375  1.9477
 2332SOL    HW218722   6.489  12.175   2.761 -0.5653  0.9355  0.8405
 2333SOL     OW18723   7.510   4.650   7.260 -0.4960  0.3212 -0.0843
 2333SOL    HW118724   7.464   4.599   7.194 -0.2716 -0.2559  0.1975
 2333SOL    HW218725   7.551   4.584   7.317 -1.4950  0.7786  1.2095
 2334SOL     OW18726   2.653  11.613  13.016 -0.1818  0.0905 -0.6573
 2334SOL    HW118727   2.685  11.642  13.102 -0.1358 -0.6553 -0.4225
 2334SOL    HW218728   2.697  11.672  12.954  0.7469 -0.1624 -0.2569
 2335SOL     OW18729   0.769   8.259   5.404 -0.2208  0.6921 -0.0526
 2335SOL    HW118730   0.848   8.251   5.458  0.1571 -0.2997 -0.7146
 2335SOL    HW218731   0.779   8.342   5.358  0.5146  0.5122 -0.2288
 2336SOL     OW18732   4.197  11.082  10.886 -0.0840 -0.1331 -0.1898
 2336SOL    HW118733   4.274  11.082  10.829  0.0767  1.1727  0.0017
 2336SOL    HW218734   4.137  11.145  10.845 -0.2850  0.2431  0.6552
 2337SOL     OW18735  12.204   1.164   8.241 -0.7495  0.8136 -0.9548
 2337SOL    HW118736  12.181   1.220   8.316 -2.3592  1.3511 -1.7982
 2337SOL    HW218737  12.120   1.147   8.198 -0.3082 -2.1470 -0.8502
 2338SOL     OW18738   9.848   4.479   9.250  0.6778 -0.3408 -0.0914
 2338SOL    HW118739   9.823   4.444   9.165 -2.1412  0.2860  0.3804
 2338SOL    HW218740   9.838   4.405   9.310 -1.0746  0.1177  0.2339
 2339SOL     OW18741   9.293  10.337   1.577 -0.9357  0.0552  0.3808
 2339SOL    HW118742   9.320  10.344   1.668 -0.4720 -0.5832  0.3036
 2339SOL    HW218743   9.303  10.244   1.556 -0.2386  0.3175 -0.5530
 2340SOL     OW18744   1.457   4.196   3.961  0.1165  0.0819  0.2326
 2340SOL    HW118745   1.406   4.135   3.908 -0.9426  2.4898 -1.7130
 2340SOL    HW218746   1.393   4.235   4.021  0.5421  0.1018  0.6820
 2341SOL     OW18747   6.324   5.850   8.943  0.5764  0.1461  0.3152
 2341SOL    HW118748   6.407   5.815   8.978 -1.2410 -1.9892  2.9262
 2341SOL    HW218749   6.278   5.773   8.910 -0.7237  1.1816 -0.3592
 2342SOL     OW18750  12.370  13.745   1.958 -0.3304  0.2248  0.0813
 2342SOL    HW118751  12.447  13.781   1.916 -0.8731  0.7827 -0.4476
 2342SOL    HW218752  12.404  13.680   2.020  0.6230  1.3078  0.7122
 2343SOL     OW18753   9.903   3.740   2.876 -0.3200  0.2762 -0.0978
 2343SOL    HW118754   9.823   3.722   2.926 -1.4054 -0.6738 -2.0937
 2343SOL    HW218755   9.918   3.834   2.889 -0.5699  0.0963  1.9087
 2344SOL     OW18756   7.742   1.693  11.304 -0.7349 -0.1514  0.1007
 2344SOL    HW118757   7.777   1.776  11.336  1.2745 -1.5921  1.8893
 2344SOL    HW218758   7.758   1.695  11.209  0.6170  0.8814  0.3308
 2345SOL     OW18759   7.880   9.151   5.143 -0.0514  0.2372  0.2264
 2345SOL    HW118760   7.842   9.238   5.152 -0.9204 -0.0811 -0.2050
 2345SOL    HW218761   7.942   9.144   5.215  0.3549  1.3692  0.0034
 2346SOL     OW18762   4.924   7.846   7.119 -0.0947  0.1016 -0.3672
 2346SOL    HW118763   4.913   7.845   7.024 -0.1014  0.6295 -0.3745
 2346SOL    HW218764   4.849   7.896   7.151 -1.3794 -2.0262  0.1072
 2347SOL     OW18765  12.944   3.355   9.769  0.3553  0.0538 -0.4136
 2347SOL    HW118766  12.852   3.377   9.781 -0.1564 -1.8143 -0.5256
 2347SOL    HW218767  12.957   3.277   9.823  2.3351  1.2336  0.9601
 2348SOL     OW18768   5.325   1.925   7.100  0.2430  0.3196 -0.2188
 2348SOL    HW118769   5.241   1.886   7.124  0.6037 -0.4738 -0.2201
 2348SOL    HW218770   5.386   1.852   7.099  0.4627  0.4511 -2.5825
 2349SOL     OW18771   4.047  10.832   1.813 -0.1452  0.3094  0.0580
 2349SOL    HW118772   4.093  10.892   1.873  1.8359  0.0139 -1.0648
 2349SOL    HW218773   4.047  10.748   1.859 -0.4334  0.5254  0.4647
 2350SOL     OW18774  10.134  10.849   7.180 -0.2372  0.2513  0.2088
 2350SOL    HW118775  10.071  10.834   7.250 -1.9805 -0.0402 -1.3438
 2350SOL    HW218776  10.154  10.942   7.185  0.2256  0.0972  1.5212
 2351SOL     OW18777   7.718  10.953  10.032  0.6551 -0.3249 -0.0904
 2351SOL    HW118778   7.646  10.987   9.978  0.4257  0.0358  0.4441
 2351SOL    HW218779   7.702  10.988  10.119  1.2785 -0.5437  0.1171
 2352SOL     OW18780   9.593   0.722   4.951 -0.1258  0.3922 -0.3300
 2352SOL    HW118781   9.634   0.804   4.924 -2.3641  2.0497  0.9618
 2352SOL    HW218782   9.602   0.721   5.046  1.9836 -2.1628 -0.4354
 2353SOL     OW18783  12.008  13.042   1.380 -0.4081 -0.1494 -0.6695
 2353SOL    HW118784  11.922  13.014   1.349 -1.0471  1.0279 -0.0232
 2353SOL    HW218785  12.009  13.019   1.473  0.6637 -1.7119 -1.0309
 2354SOL     OW18786   4.724   9.769   2.700  0.9024  0.7227  0.0950
 2354SOL    HW118787   4.723   9.803   2.789  0.4752  1.2267 -0.1021
 2354SOL    HW218788   4.753   9.678   2.710  1.7589  1.0511  0.6446
 2355SOL     OW18789   9.453   3.100   7.093  0.6629 -0.1670  0.2459
 2355SOL    HW118790   9.405   3.183   7.081 -0.4660 -0.8525 -0.2055
 2355SOL    HW218791   9.488   3.080   7.006  1.2262  0.0086  0.4328
 2356SOL     OW18792  12.703  10.622   0.402 -0.5031  0.2494 -0.4664
 2356SOL    HW118793  12.762  10.672   0.458 -1.0106  0.3946 -0.0587
 2356SOL    HW218794  12.657  10.563   0.461 -0.0172 -0.6141 -0.9234
 2357SOL     OW18795   2.369   7.321   2.372 -0.2376 -0.3258  0.0830
 2357SOL    HW118796   2.383   7.253   2.305 -3.6794 -0.5374 -0.5903
 2357SOL    HW218797   2.345   7.272   2.451  0.8313  0.0338  0.6464
 2358SOL     OW18798   4.835  12.855   6.839  0.0215 -0.2144 -0.9045
 2358SOL    HW118799   4.871  12.875   6.925 -0.0419 -0.7621 -0.7451
 2358SOL    HW218800   4.824  12.940   6.797 -2.2116  0.3140  0.5175
 2359SOL     OW18801  13.352  13.090   6.044 -0.2160 -0.1322 -0.0076
 2359SOL    HW118802  13.288  13.156   6.016 -1.1594 -0.3351  1.5521
 2359SOL    HW218803  13.315  13.007   6.015  1.2747 -0.0369 -2.5330
 2360SOL     OW18804  13.158   2.304   2.714  0.5917 -0.4341  0.0996
 2360SOL    HW118805  13.184   2.322   2.804  1.5626 -0.0034 -0.2459
 2360SOL    HW218806  13.176   2.385   2.667  1.3405 -1.0556 -0.7297
 2361SOL     OW18807   2.958   1.040   6.880  0.2885 -0.5064  0.2843
 2361SOL    HW118808   3.030   1.020   6.821 -0.8934 -1.3097 -0.9408
 2361SOL    HW218809   2.961   0.972   6.947  2.4850  1.1788  2.0800
 2362SOL     OW18810   2.998   3.394   3.650  0.1193 -0.6373  0.2415
 2362SOL    HW118811   3.056   3.452   3.698  0.6713 -0.8362 -0.1706
 2362SOL    HW218812   2.926   3.450   3.621 -0.6105 -0.6524  1.8916
 2363SOL     OW18813   6.620   6.421   6.730 -0.1331  0.1879 -0.0228
 2363SOL    HW118814   6.691   6.470   6.771  0.2501  0.5009 -1.0320
 2363SOL    HW218815   6.621   6.336   6.774  0.9975  0.1202 -0.1455
 2364SOL     OW18816   4.989   4.683   3.491 -0.0365  0.6463  0.4187
 2364SOL    HW118817   4.922   4.663   3.425 -0.7379 -0.1224  1.3316
 2364SOL    HW218818   4.953   4.647   3.573  1.4302  0.3501  0.9570
 2365SOL     OW18819   7.213   0.225   6.494  0.1155  0.5510 -0.2859
 2365SOL    HW118820   7.281   0.192   6.435  1.2584  2.1432  0.1098
 2365SOL    HW218821   7.259   0.251   6.573 -0.8778  2.1628 -0.2017
 2366SOL     OW18822   0.152   2.728   4.891 -0.3359 -0.2450 -0.4168
 2366SOL    HW118823   0.181   2.637   4.894 -0.0827 -0.1454  0.4569
 2366SOL    HW218824   0.116   2.739   4.803 -0.3638 -1.1845 -0.5318
 2367SOL     OW18825  10.582   2.174   1.868 -0.3061 -0.6471 -0.7323
 2367SOL    HW118826  10.540   2.178   1.954  0.1992  1.4011 -0.5377
 2367SOL    HW218827  10.597   2.081   1.853 -1.9912 -1.1837  0.6034
 2368SOL     OW18828   5.936  10.958   3.137 -0.2881  0.3118  1.0585
 2368SOL    HW118829   6.008  10.943   3.198 -0.4437  0.6904  1.3432
 2368SOL    HW218830   5.863  10.908   3.173  0.1820 -1.1330  0.0641
 2369SOL     OW18831  13.689  11.560  11.666 -0.1438  0.5159  0.2003
 2369SOL    HW118832  13.746  11.555  11.589 -1.3288 -2.6059 -0.6571
 2369SOL    HW218833  13.739  11.516  11.735 -1.5576 -3.0506 -0.7855
 2370SOL     OW18834   8.755  10.022  11.316  0.1875  0.1476 -0.1411
 2370SOL    HW118835   8.682   9.965  11.338 -1.0321  1.1289 -1.4295
 2370SOL    HW218836   8.810   9.969  11.259  1.7223 -1.3347  2.5106
 2371SOL     OW18837   5.222   8.550   4.424  0.2049  0.5364  0.0501
 2371SOL    HW118838   5.157   8.609   4.462 -0.1618 -0.5183  1.1119
 2371SOL    HW218839   5.303   8.571   4.471  0.5102  1.4198 -0.8387
 2372SOL     OW18840   8.105   0.707   4.126  0.1719 -0.0162  0.3610
 2372SOL    HW118841   8.098   0.788   4.178 -0.7854  0.2416 -0.1425
 2372SOL    HW218842   8.071   0.639   4.184  1.9455 -0.2643  1.1739
 2373SOL     OW18843   9.369  12.450   8.790 -0.1362 -0.3804  0.0064
 2373SOL    HW118844   9.361  12.544   8.805  1.0141 -0.0795 -1.1019
 2373SOL    HW218845   9.279  12.418   8.792 -0.9635  1.3186 -2.9835
 2374SOL     OW18846  13.351   5.670  11.569 -0.0496 -0.1137 -0.0358
 2374SOL    HW118847  13.434   5.663  11.615  0.3120  0.2053 -0.6226
 2374SOL    HW218848  13.290   5.705  11.634  0.9949  2.5708 -0.3687
 2375SOL     OW18849   3.684   7.834   3.967  0.0489 -0.5102 -0.0268
 2375SOL    HW118850   3.625   7.760   3.981 -0.1547 -0.0894  1.5676
 2375SOL    HW218851   3.706   7.863   4.055 -1.0749  2.2849 -0.5585
 2376SOL     OW18852  13.435  12.441   0.876  0.1411 -0.3693  0.5976
 2376SOL    HW118853  13.423  12.516   0.934 -0.6269  0.2625 -0.3527
 2376SOL    HW218854  13.428  12.365   0.933 -1.2487  0.2176  1.2454
 2377SOL     OW18855   0.253   0.630   6.445 -0.4503  0.0690 -0.0264
 2377SOL    HW118856   0.342   0.662   6.462 -0.4738  0.5426 -0.7551
 2377SOL    HW218857   0.250   0.546   6.490  1.3097 -1.2842 -2.1950
 2378SOL     OW18858  13.228   6.904   6.920 -0.0956  0.3689  0.5550
 2378SOL    HW118859  13.200   6.868   6.836  0.1516  1.2650  0.0700
 2378SOL    HW218860  13.317   6.871   6.933  0.7331  1.9900 -0.6437
 2379SOL     OW18861   1.521   6.650   7.348  0.5596  0.0850 -0.4362
 2379SOL    HW118862   1.506   6.655   7.443 -1.1495  1.3111 -0.7481
 2379SOL    HW218863   1.549   6.738   7.323  3.3886 -0.8092 -0.7522
 2380SOL     OW18864   3.239   9.009  10.673 -0.3127 -0.1391 -0.0286
 2380SOL    HW118865   3.156   9.040  10.709  0.0062  0.8244 -0.1009
 2380SOL    HW218866   3.238   9.036  10.582 -0.4358 -1.2018 -0.3590
 2381SOL     OW18867   6.690  13.357   5.773  0.2403 -0.2176  0.2384
 2381SOL    HW118868   6.657  13.281   5.821  1.1035 -0.9001 -0.2202
 2381SOL    HW218869   6.697  13.327   5.683  0.0469  0.5918 -0.0526
 2382SOL     OW18870  11.931   9.365   7.550  0.0337  0.3653 -0.1473
 2382SOL    HW118871  11.901   9.395   7.636  1.0642 -1.8069  1.0582
 2382SOL    HW218872  11.920   9.441   7.493 -0.0778  2.0902  2.0404
 2383SOL     OW18873   2.580   2.796  11.535 -0.0283 -0.5985  0.0095
 2383SOL    HW118874   2.486   2.794  11.515  0.3590 -1.2041 -1.9966
 2383SOL    HW218875   2.587   2.755  11.621 -1.4244 -2.7279 -0.8030
 2384SOL     OW18876   5.337   1.194   3.262 -0.0714 -0.6014  0.2341
 2384SOL    HW118877   5.346   1.153   3.348 -1.4271  1.4482  1.4374
 2384SOL    HW218878   5.259   1.153   3.224 -0.2960 -0.5215  0.6014
 2385SOL     OW18879   8.381   6.395   3.252  0.1851 -0.0693  0.1168
 2385SOL    HW118880   8.317   6.380   3.182  0.2512  0.8336 -0.1478
 2385SOL    HW218881   8.328   6.414   3.329  0.0106 -3.4553  0.9958
 2386SOL     OW18882   8.597   2.708   6.896 -0.0488  0.0070  0.1341
 2386SOL    HW118883   8.609   2.758   6.976  3.9287 -0.3532 -0.0445
 2386SOL    HW218884   8.555   2.626   6.924 -3.7969  1.9707  0.8637
 2387SOL     OW18885   0.813   3.714  11.774  0.0494  0.0066 -0.7526
 2387SOL    HW118886   0.859   3.786  11.731  1.3400  0.5075  1.3117
 2387SOL    HW218887   0.879   3.647  11.786 -0.0115  0.2185  1.1171
 2388SOL     OW18888   4.551   8.002  11.957  0.0287 -0.2238  0.1223
 2388SOL    HW118889   4.617   8.059  11.919  0.8677 -1.2830 -0.0728
 2388SOL    HW218890   4.478   8.060  11.978  1.7964  1.3745  2.3642
 2389SOL     OW18891  11.177   5.485   9.375 -0.2281  0.4328 -0.8539
 2389SOL    HW118892  11.150   5.571   9.409  1.9018 -0.0600  2.4446
 2389SOL    HW218893  11.148   5.423   9.441  3.1752 -0.7399 -0.2718
 2390SOL     OW18894  11.549  13.134   7.807 -0.4688  0.2003 -0.1956
 2390SOL    HW118895  11.601  13.213   7.797 -0.8278  0.3840 -0.6800
 2390SOL    HW218896  11.541  13.121   7.902 -1.4212  1.4319 -0.0806
 2391SOL     OW18897  11.979  11.923  12.162  0.3008  0.5451  0.2471
 2391SOL    HW118898  12.025  11.962  12.088 -0.5524 -1.1148 -1.2482
 2391SOL    HW218899  11.897  11.971  12.168 -0.0780  0.0217 -0.5871
 2392SOL     OW18900   3.135   3.175   9.979 -0.2306 -0.3900 -0.2468
 2392SOL    HW118901   3.065   3.239   9.988  0.7301  0.7365 -0.6589
 2392SOL    HW218902   3.156   3.150  10.069 -1.6782 -1.3724 -0.1273
 2393SOL     OW18903  12.704  12.859   2.603 -0.1282 -0.4949 -0.4550
 2393SOL    HW118904  12.715  12.778   2.653  1.8605 -0.4074 -0.6529
 2393SOL    HW218905  12.793  12.884   2.578 -0.6596  1.8519 -0.2661
 2394SOL     OW18906  12.710   3.377  11.451 -0.2420 -0.1890 -0.1711
 2394SOL    HW118907  12.668   3.463  11.448  0.2062  0.0957  0.9954
 2394SOL    HW218908  12.801   3.394  11.427 -0.5601 -0.6759 -1.8864
 2395SOL     OW18909  10.096  10.823   8.305  0.2226  0.2678 -0.1551
 2395SOL    HW118910  10.176  10.801   8.352  1.1818  0.6618 -1.5188
 2395SOL    HW218911  10.060  10.739   8.277  0.0135  0.0752  0.6797
 2396SOL     OW18912  11.523  13.460   8.539 -0.1032  0.1207  0.2812
 2396SOL    HW118913  11.575  13.395   8.588  0.5150 -0.3246 -0.9173
 2396SOL    HW218914  11.530  13.431   8.448 -0.9724  1.1036 -0.1052
 2397SOL     OW18915   8.731   8.407   3.177 -0.0439  0.1001  0.4104
 2397SOL    HW118916   8.685   8.323   3.173 -1.0864  0.6665  0.2473
 2397SOL    HW218917   8.823   8.384   3.159 -0.4013 -0.9222 -0.2320
 2398SOL     OW18918  10.934   2.785   8.669 -0.1720 -0.3242 -0.0014
 2398SOL    HW118919  10.980   2.836   8.736 -0.0876  2.0082 -1.7035
 2398SOL    HW218920  11.001   2.728   8.631  0.5522  0.6356 -0.2042
 2399SOL     OW18921   3.212   0.300   5.727 -0.2120 -0.3118  0.2984
 2399SOL    HW118922   3.121   0.327   5.713  0.1730 -0.4481 -3.7040
 2399SOL    HW218923   3.209   0.204   5.725  0.0078 -0.3166  0.1057
 2400SOL     OW18924  11.799   3.052   0.586  0.3541  0.0354  0.1756
 2400SOL    HW118925  11.867   3.111   0.554 -0.2734  0.5504 -0.2448
 2400SOL    HW218926  11.719   3.105   0.586 -0.1232 -0.6676  0.2669
 2401SOL     OW18927   7.040   0.095   4.866 -0.0555  0.1285  0.8836
 2401SOL    HW118928   6.945   0.095   4.853 -0.2059 -1.4391  1.7195
 2401SOL    HW218929   7.052   0.054   4.952  1.3625  0.8383  1.0545
 2402SOL     OW18930  11.873  10.424   1.483 -0.4584  0.5888  0.0631
 2402SOL    HW118931  11.844  10.493   1.543 -2.7861 -0.0352 -0.2159
 2402SOL    HW218932  11.968  10.422   1.491 -0.6100  1.1731  3.0000
 2403SOL     OW18933   3.392  13.738   6.605  0.1805  0.7823 -0.3884
 2403SOL    HW118934   3.343  13.658   6.589 -0.6191  1.0657  0.5136
 2403SOL    HW218935   3.462  13.738   6.540 -1.2266  0.5440 -1.9606
 2404SOL     OW18936   8.859   0.478   0.843  0.2997 -0.3553 -0.2730
 2404SOL    HW118937   8.820   0.402   0.801  0.1379 -0.0284 -0.7280
 2404SOL    HW218938   8.863   0.455   0.936 -0.9566 -0.4142 -0.2165
 2405SOL     OW18939   1.854   4.084  12.623  0.0322  0.7125 -0.3795
 2405SOL    HW118940   1.932   4.107  12.573  0.4143  1.4612  0.5454
 2405SOL    HW218941   1.781   4.109  12.566  0.4038 -1.7383 -2.0725
 2406SOL     OW18942  13.339   1.883   1.867  0.1882 -0.0593 -0.4409
 2406SOL    HW118943  13.326   1.953   1.931  0.4099  1.3176 -1.8534
 2406SOL    HW218944  13.262   1.827   1.878 -0.0227  0.4146  0.6827
 2407SOL     OW18945   7.257   8.175   6.178  0.4708 -0.1022 -0.3384
 2407SOL    HW118946   7.269   8.143   6.089 -0.9435 -0.0499 -0.5677
 2407SOL    HW218947   7.167   8.152   6.201  0.9623 -0.5962  1.2904
 2408SOL     OW18948  12.231   6.130   3.302 -0.2282  0.4987 -0.4480
 2408SOL    HW118949  12.219   6.084   3.219  0.0824  0.4010 -0.4408
 2408SOL    HW218950  12.155   6.104   3.355 -1.8297  2.5766 -1.5912
 2409SOL     OW18951  12.686   0.633  13.715  0.2661 -0.5099  0.0580
 2409SOL    HW118952  12.735   0.645  13.797  0.8330  0.3673 -0.3911
 2409SOL    HW218953  12.615   0.696  13.720  0.9237  0.3056 -0.5764
 2410SOL     OW18954   9.036   4.086   8.450 -0.2383  0.1123  0.1804
 2410SOL    HW118955   8.995   4.008   8.412  1.9277  0.1797 -2.6359
 2410SOL    HW218956   9.127   4.082   8.422  0.1429  3.3021  0.5417
 2411SOL     OW18957   9.440   1.571   2.555  0.9102  0.3979 -0.5638
 2411SOL    HW118958   9.388   1.494   2.534  0.5998  0.4246  0.0728
 2411SOL    HW218959   9.496   1.584   2.479 -1.8298  1.9587 -2.4748
 2412SOL     OW18960   5.125   5.823   7.886  0.0083 -0.0908  0.4192
 2412SOL    HW118961   5.133   5.750   7.947 -2.0836 -0.2747  0.5364
 2412SOL    HW218962   5.054   5.876   7.921 -1.1016 -0.0750 -1.6944
 2413SOL     OW18963   7.748   6.247  13.533 -0.4127 -0.7333  0.3635
 2413SOL    HW118964   7.664   6.210  13.559  0.2121 -1.2305  1.7581
 2413SOL    HW218965   7.814   6.194  13.579  0.5610  1.2059  1.3463
 2414SOL     OW18966   3.550  10.819   2.671 -0.1166  0.2826 -0.1315
 2414SOL    HW118967   3.641  10.830   2.642  0.1450 -0.1330  0.5141
 2414SOL    HW218968   3.557  10.783   2.759 -0.9208 -1.5752 -0.7684
 2415SOL     OW18969   4.762   8.994   6.209  0.2816  0.1208  0.3130
 2415SOL    HW118970   4.753   8.927   6.277 -1.3389 -1.1182 -1.0337
 2415SOL    HW218971   4.852   8.986   6.179 -0.0759 -2.0713 -0.3548
 2416SOL     OW18972  10.672   6.323   3.696  0.5543  0.1843 -0.2569
 2416SOL    HW118973  10.725   6.244   3.686 -0.6224 -0.7527  0.5483
 2416SOL    HW218974  10.679   6.345   3.789  0.0396  0.4020 -0.2649
 2417SOL     OW18975   5.000   2.344   1.202 -0.6604  0.1192  0.0192
 2417SOL    HW118976   5.007   2.293   1.121 -2.0297  1.0829 -0.7423
 2417SOL    HW218977   5.043   2.427   1.182  2.1003 -0.8196  1.4479
 2418SOL     OW18978   1.533  12.010   0.444 -0.4547 -0.2735 -0.3954
 2418SOL    HW118979   1.577  11.945   0.499 -1.3523  0.1274  0.8277
 2418SOL    HW218980   1.484  12.065   0.505 -0.5815  0.8979 -1.5010
 2419SOL     OW18981   7.413   0.981   1.825 -0.0093  0.1233 -0.3063
 2419SOL    HW118982   7.498   0.937   1.838 -0.6956 -1.1663  0.0461
 2419SOL    HW218983   7.425   1.068   1.863  0.8079 -0.4627  0.8541
 2420SOL     OW18984   0.246  10.267  10.365  0.8528  0.4952 -0.5575
 2420SOL    HW118985   0.188  10.192  10.351  2.3014 -0.7760 -0.0450
 2420SOL    HW218986   0.259  10.305  10.278 -1.2678  1.2688 -0.5992
 2421SOL     OW18987   5.393   1.465   0.631 -0.1715 -0.0379  0.1637
 2421SOL    HW118988   5.338   1.506   0.697  0.1812  1.1370 -0.2384
 2421SOL    HW218989   5.434   1.538   0.585 -1.1408 -0.7701 -2.0000
 2422SOL     OW18990   7.217  11.148   9.648 -0.1802 -0.3526 -0.0197
 2422SOL    HW118991   7.125  11.168   9.661 -0.5626 -0.5561 -2.1579
 2422SOL    HW218992   7.235  11.075   9.707 -0.9538  0.6670  1.5418
 2423SOL     OW18993   3.851   5.495  12.071  0.2632 -0.0804 -0.5351
 2423SOL    HW118994   3.837   5.585  12.042 -0.3766 -0.1968 -0.5984
 2423SOL    HW218995   3.800   5.442  12.011 -0.7749 -0.3556  0.5503
 2424SOL     OW18996   9.100   7.666   4.598 -0.7640  0.1930  0.6575
 2424SOL    HW118997   9.123   7.746   4.551 -1.7003  1.3700  2.0873
 2424SOL    HW218998   9.142   7.596   4.549 -0.9610  1.4158 -1.3972
 2425SOL     OW18999   9.187   5.813   7.541 -0.2302  0.2179 -0.1707
 2425SOL    HW119000   9.252   5.778   7.602 -1.0914 -0.7724  0.1912
 2425SOL    HW219001   9.115   5.751   7.543  0.0918 -0.4013 -2.9335
 2426SOL     OW19002  13.673   3.883  12.147  0.0990  0.4299 -0.5403
 2426SOL    HW119003  13.698   3.909  12.236 -0.9208 -1.0177  0.2108
 2426SOL    HW219004  13.726   3.805  12.129 -1.3573 -0.6604 -0.2532
 2427SOL     OW19005   4.867  11.089  13.409 -0.1791 -0.1475  0.5289
 2427SOL    HW119006   4.852  11.166  13.354  0.7613 -0.2655  0.0812
 2427SOL    HW219007   4.850  11.119  13.498 -0.7798  0.3046  0.2729
 2428SOL     OW19008   4.594  11.664  10.983 -0.0278 -0.2235  0.5348
 2428SOL    HW119009   4.556  11.590  11.029  0.2640 -0.8248 -0.1696
 2428SOL    HW219010   4.669  11.690  11.036  0.7228 -1.3566  0.0551
 2429SOL     OW19011  10.369   6.132   5.165 -0.4022  0.6739  0.2066
 2429SOL    HW119012  10.457   6.149   5.199  0.1271  0.6630 -1.1108
 2429SOL    HW219013  10.314   6.198   5.207  0.7474  2.5453 -1.1165
 2430SOL     OW19014  13.582   2.700  13.409 -0.0832  0.4751  0.2675
 2430SOL    HW119015  13.610   2.725  13.497  1.0822 -1.1856  0.3969
 2430SOL    HW219016  13.487   2.693  13.416 -0.3234  2.9426  0.6722
 2431SOL     OW19017  10.288   6.857   6.103  0.3019  0.0176 -0.9084
 2431SOL    HW119018  10.375   6.821   6.087  0.3175 -0.1044 -0.5578
 2431SOL    HW219019  10.236   6.826   6.029 -0.0325 -1.9048  0.0741
 2432SOL     OW19020   5.771   3.391  13.625 -0.0898 -0.3666  0.0815
 2432SOL    HW119021   5.783   3.298  13.605  0.4266 -0.3149  0.1371
 2432SOL    HW219022   5.799   3.399  13.717  0.8631  0.0226 -0.2251
 2433SOL     OW19023   3.276   4.046   4.515 -0.6340  0.2172 -0.1044
 2433SOL    HW119024   3.350   4.065   4.458  0.5752 -0.1463  1.2678
 2433SOL    HW219025   3.270   4.121   4.574 -0.0623 -0.6231  1.0681
 2434SOL     OW19026   5.303  13.469   0.979 -0.2121 -0.2720  0.3806
 2434SOL    HW119027   5.380  13.464   1.035  0.0627  1.2853  0.1685
 2434SOL    HW219028   5.337  13.468   0.890 -0.4840 -0.1285  0.2746
 2435SOL     OW19029   0.719   3.358  13.709 -0.2841  0.0631  0.1124
 2435SOL    HW119030   0.704   3.264  13.698  2.2459 -0.4176  0.2042
 2435SOL    HW219031   0.791   3.364  13.771 -0.9995  2.1379  0.8444
 2436SOL     OW19032   4.935   5.640   9.225  0.1549  0.3249 -0.0879
 2436SOL    HW119033   4.923   5.708   9.291  1.8485 -0.7634  1.4671
 2436SOL    HW219034   5.017   5.664   9.181  0.4647 -0.3883  0.0868
 2437SOL     OW19035  13.192   7.873   5.579  0.3905  0.0667 -0.3405
 2437SOL    HW119036  13.153   7.886   5.665  0.1613  1.7795 -0.6696
 2437SOL    HW219037  13.274   7.827   5.596 -0.0915 -0.4343  0.6917
 2438SOL     OW19038   1.086  13.499   5.542 -0.1325 -0.4100 -0.5762
 2438SOL    HW119039   1.025  13.469   5.475  0.4413 -2.4902 -0.2227
 2438SOL    HW219040   1.160  13.534   5.492 -0.9562  0.8014 -0.9941
 2439SOL     OW19041  13.533   6.179   4.684  0.4732  1.0907 -0.6627
 2439SOL    HW119042  13.606   6.239   4.675  0.7128  0.9125  0.0309
 2439SOL    HW219043  13.567   6.107   4.737 -0.2170  1.0372 -0.2740
 2440SOL     OW19044  10.557   8.267   5.956 -0.1073  0.0531 -0.0866
 2440SOL    HW119045  10.493   8.207   5.917  0.0922 -1.0264  1.1575
 2440SOL    HW219046  10.511   8.351   5.960 -1.0478 -0.4357 -0.2671
 2441SOL     OW19047   8.095  13.666  13.098  0.3682 -0.3222  0.1231
 2441SOL    HW119048   8.003  13.648  13.079  0.0655  0.6639  0.5836
 2441SOL    HW219049   8.128  13.707  13.018  0.2030  0.0211  0.2297
 2442SOL     OW19050   4.729   3.522   8.267 -0.5844 -0.0841  0.1446
 2442SOL    HW119051   4.808   3.551   8.222 -1.2280 -0.6078 -1.3935
 2442SOL    HW219052   4.722   3.429   8.245 -0.5938 -0.5233  1.8769
 2443SOL     OW19053   0.438   6.302   1.301 -0.2279 -0.6891  0.0723
 2443SOL    HW119054   0.414   6.311   1.393  0.8598  0.0240  0.3125
 2443SOL    HW219055   0.369   6.249   1.262 -0.9085 -0.6553  1.2133
 2444SOL     OW19056  13.358   0.995   0.541 -0.2122 -0.1342 -0.1003
 2444SOL    HW119057  13.443   0.960   0.513 -1.2585 -1.8764 -1.3280
 2444SOL    HW219058  13.329   1.049   0.468 -0.3423  0.1119  0.1332
 2445SOL     OW19059   6.128   4.047  12.152  0.6181  0.0361  0.4227
 2445SOL    HW119060   6.202   4.009  12.104  0.2692  0.8839 -0.8297
 2445SOL    HW219061   6.076   3.971  12.179  0.2784 -0.4620 -1.4676
 2446SOL     OW19062   4.410   9.503   1.012  0.3820 -0.4298 -0.4363
 2446SOL    HW119063   4.382   9.557   1.086 -1.7835 -0.3319 -1.2430
 2446SOL    HW219064   4.384   9.414   1.036 -0.2362 -0.4132 -0.9993
 2447SOL     OW19065   7.626   7.314   8.418 -0.9389  0.3091  0.4256
 2447SOL    HW119066   7.571   7.255   8.468 -2.7723  0.2066 -1.5492
 2447SOL    HW219067   7.707   7.266   8.405 -2.0231 -1.4104 -0.2886
 2448SOL     OW19068   4.002   9.858   6.743  0.1844 -0.2787  0.4400
 2448SOL    HW119069   3.936   9.915   6.784 -0.6924 -1.6573  1.0046
 2448SOL    HW219070   3.951   9.795   6.693  1.1285 -0.7506  0.0658
 2449SOL     OW19071   2.028   9.986  11.129 -0.4217  0.6702 -0.2392
 2449SOL    HW119072   2.042   9.934  11.209  0.4457  0.5340 -0.4720
 2449SOL    HW219073   2.058  10.073  11.151  1.4817  0.2298 -0.9380
 2450SOL     OW19074   4.487   2.394   7.677  0.0161  0.0583 -0.0189
 2450SOL    HW119075   4.491   2.461   7.746 -1.2299 -1.1353  1.2645
 2450SOL    HW219076   4.457   2.315   7.722 -0.3139 -0.8975 -1.8446
 2451SOL     OW19077  13.530   7.887  12.460 -0.2705  0.2209  0.2568
 2451SOL    HW119078  13.470   7.839  12.517  1.0319 -0.5792  1.0029
 2451SOL    HW219079  13.595   7.925  12.519 -0.7422  2.2033 -0.4058
 2452SOL     OW19080   6.595   5.156   5.175 -0.1011 -0.3928  0.5523
 2452SOL    HW119081   6.615   5.070   5.213  1.2086  0.3081  1.5069
 2452SOL    HW219082   6.640   5.155   5.090  0.6088 -0.3625  0.9191
 2453SOL     OW19083   0.949   8.474   0.997  0.3322 -0.1223 -0.4762
 2453SOL    HW119084   1.008   8.404   0.972  0.8086  0.2529 -0.4222
 2453SOL    HW219085   0.973   8.547   0.939  0.1011  0.1122 -0.2795
 2454SOL     OW19086  13.097   3.184   3.970  0.0247  0.1594 -0.0610
 2454SOL    HW119087  13.120   3.268   4.009 -1.7455  0.2124  0.9712
 2454SOL    HW219088  13.077   3.204   3.878  1.0908  0.5846 -0.2095
 2455SOL     OW19089   4.363  11.279   4.208  0.1290 -0.3607 -0.2530
 2455SOL    HW119090   4.334  11.370   4.208  0.1236 -0.3617 -0.0475
 2455SOL    HW219091   4.318  11.239   4.133 -0.8407 -0.4949  0.3734
 2456SOL     OW19092  13.611   0.689   1.094  0.3165  0.1410  0.3719
 2456SOL    HW119093  13.620   0.771   1.045 -0.1826 -0.9297 -1.5936
 2456SOL    HW219094  13.526   0.696   1.137  0.1043  0.4892 -0.1012
 2457SOL     OW19095   0.157   0.689   7.067  0.8546  0.5894 -0.2682
 2457SOL    HW119096   0.063   0.710   7.065  0.5237 -0.2329  2.5877
 2457SOL    HW219097   0.170   0.631   6.992 -1.6767 -1.9115  1.0196
 2458SOL     OW19098   6.748   7.411  10.207 -0.0769 -0.2360 -0.1076
 2458SOL    HW119099   6.710   7.461  10.136 -0.1292  0.6265  0.5117
 2458SOL    HW219100   6.819   7.362  10.166  0.1062  0.4977 -0.6931
 2459SOL     OW19101  10.895  12.123  10.517 -0.2800  0.4101  0.4838
 2459SOL    HW119102  10.884  12.200  10.462  1.6863  2.4934  2.7500
 2459SOL    HW219103  10.809  12.110  10.556 -0.7310  1.2589 -0.1785
 2460SOL     OW19104   9.489   5.487   8.377 -0.1444  0.2334  0.1138
 2460SOL    HW119105   9.539   5.461   8.454 -0.3295  1.5911  0.7121
 2460SOL    HW219106   9.397   5.470   8.400 -0.0869 -1.2948 -0.6074
 2461SOL     OW19107   5.347   8.283   0.700  0.1769  0.4212 -0.2341
 2461SOL    HW119108   5.329   8.322   0.615 -1.3860 -0.9375 -0.5693
 2461SOL    HW219109   5.265   8.292   0.749  0.3532 -0.7924  0.3211
 2462SOL     OW19110  12.737   3.089   1.637  0.4010  0.1704 -0.4862
 2462SOL    HW119111  12.659   3.145   1.638 -1.5592 -2.3560  1.5781
 2462SOL    HW219112  12.743   3.058   1.546 -0.9750  0.4555 -0.7007
 2463SOL     OW19113   9.014   5.867   6.117  0.4314 -0.0699 -0.5243
 2463SOL    HW119114   9.108   5.874   6.133  0.1113 -1.4452  2.5434
 2463SOL    HW219115   8.981   5.955   6.132  0.7462 -0.4344  2.9803
 2464SOL     OW19116   3.430   3.263  13.548 -0.0083  0.0462 -0.0409
 2464SOL    HW119117   3.362   3.310  13.500  0.7212  2.3185  1.0194
 2464SOL    HW219118   3.383   3.220  13.620 -0.7499 -1.3335 -1.2957
 2465SOL     OW19119   1.220  12.559   6.842 -0.1373  0.1909 -0.0596
 2465SOL    HW119120   1.238  12.642   6.886  1.2042 -1.1266  2.0601
 2465SOL    HW219121   1.253  12.571   6.753  2.6760  1.0683  0.9808
 2466SOL     OW19122   2.610   7.090   8.323 -0.4518  0.4734  0.6642
 2466SOL    HW119123   2.559   7.037   8.262  2.4926  0.6298 -2.2332
 2466SOL    HW219124   2.625   7.173   8.277 -1.7817  2.4892  3.5310
 2467SOL     OW19125   6.955   7.853  11.228 -0.1228 -0.6015 -0.0372
 2467SOL    HW119126   7.042   7.826  11.197  0.3248  0.0515  0.6215
 2467SOL    HW219127   6.972   7.928  11.284 -1.1111 -0.5400  0.1923
 2468SOL     OW19128   9.313   4.058   8.378  0.2142  0.0786 -0.0195
 2468SOL    HW119129   9.299   4.114   8.301 -0.3509  0.3089  0.2422
 2468SOL    HW219130   9.393   4.092   8.418  0.7434 -0.3083 -0.7334
 2469SOL     OW19131   9.848   3.544   1.013  0.6718  0.1249  0.0353
 2469SOL    HW119132   9.787   3.520   1.084  0.2111  0.4153 -0.2574
 2469SOL    HW219133   9.901   3.465   1.000 -0.3585 -0.5099 -0.4320
 2470SOL     OW19134   6.749  10.814   9.457  0.3236 -0.0431  0.5089
 2470SOL    HW119135   6.817  10.867   9.416  0.7706  0.7857  2.2408
 2470SOL    HW219136   6.688  10.877   9.494 -0.2766 -0.7626  0.7639
 2471SOL     OW19137  12.666   3.404   8.674 -0.3464  0.0905 -0.1324
 2471SOL    HW119138  12.589   3.437   8.720 -0.4297  0.5163 -0.5723
 2471SOL    HW219139  12.740   3.432   8.727 -0.4829 -0.1496  0.1885
 2472SOL     OW19140   6.232   6.350   3.221 -0.3237  0.0134 -0.1952
 2472SOL    HW119141   6.247   6.285   3.291 -0.4564  1.0280  0.8028
 2472SOL    HW219142   6.148   6.325   3.183 -0.4362 -0.3402  0.2666
 2473SOL     OW19143   7.213   0.236   6.094 -0.4769 -0.0579  0.6186
 2473SOL    HW119144   7.162   0.273   6.022  0.8668 -3.1144 -2.1820
 2473SOL    HW219145   7.148   0.218   6.162 -2.0893  1.5191 -0.4068
 2474SOL     OW19146  11.020   5.018   0.365 -0.0810 -0.5157  0.3718
 2474SOL    HW119147  11.088   5.039   0.430  0.7775 -0.3875 -0.5393
 2474SOL    HW219148  11.057   4.945   0.316 -0.1386  0.2239 -0.8041
 2475SOL     OW19149   4.699   7.366  11.229  0.0694 -0.6960 -0.2924
 2475SOL    HW119150   4.719   7.364  11.136  1.4055  0.1449 -0.0482
 2475SOL    HW219151   4.775   7.326  11.272  0.3909  0.7258  0.5434
 2476SOL     OW19152  12.998  13.021  10.486  0.4105 -0.3918  0.0658
 2476SOL    HW119153  13.008  12.984  10.574  1.0317  0.0223  0.1762
 2476SOL    HW219154  13.009  12.947  10.427 -2.5940 -1.2103  0.3577
 2477SOL     OW19155   0.245   3.682   1.988 -0.4615  0.1536  0.0777
 2477SOL    HW119156   0.211   3.699   2.075  0.1636  0.4407  0.2674
 2477SOL    HW219157   0.196   3.740   1.930 -1.3857 -0.5523  0.1305
 2478SOL     OW19158   1.834   4.132   7.043 -0.4446 -0.3101 -0.3724
 2478SOL    HW119159   1.759   4.082   7.013 -1.1054 -0.3334  1.2066
 2478SOL    HW219160   1.820   4.142   7.137  2.6101 -2.2351  0.4563
 2479SOL     OW19161  12.790   8.384   4.101  0.1959  0.6186 -0.3325
 2479SOL    HW119162  12.842   8.326   4.155 -1.5668 -0.5823  0.1715
 2479SOL    HW219163  12.720   8.415   4.159 -1.7580 -0.7102 -1.8233
 2480SOL     OW19164  10.817  12.946   7.801  0.8588  0.2161  0.1457
 2480SOL    HW119165  10.868  12.882   7.852 -0.3283 -0.5790  0.3679
 2480SOL    HW219166  10.836  12.925   7.710 -0.0499 -0.9246  0.2021
 2481SOL     OW19167   3.858   6.863   6.204 -0.3972 -0.0811 -0.2508
 2481SOL    HW119168   3.863   6.956   6.222  1.9464 -0.0351 -0.8566
 2481SOL    HW219169   3.898   6.821   6.281  2.1025 -0.3055 -1.5615
 2482SOL     OW19170  10.033   1.177   5.546 -0.4781 -0.2040  0.5215
 2482SOL    HW119171  10.005   1.252   5.599  1.1253  1.2016 -0.5142
 2482SOL    HW219172  10.099   1.133   5.600  0.7216  0.8872  0.0261
 2483SOL     OW19173   2.388   4.940   7.336 -0.1584 -0.1787 -0.4544
 2483SOL    HW119174   2.450   4.944   7.409  0.1109 -2.9749 -0.4172
 2483SOL    HW219175   2.303   4.927   7.378 -0.3537  0.5592 -0.6038
 2484SOL     OW19176   1.846  12.496  10.321  0.2523  0.2437  0.5854
 2484SOL    HW119177   1.935  12.530  10.326 -0.1387  1.9122 -2.1603
 2484SOL    HW219178   1.796  12.553  10.380  0.7438  0.1158  1.1421
 2485SOL     OW19179  12.416   1.937   8.624  0.3672  0.4353  0.0804
 2485SOL    HW119180  12.461   1.977   8.550  2.0351 -2.6312 -0.7298
 2485SOL    HW219181  12.353   1.877   8.584 -0.2145  0.2918  1.1696
 2486SOL     OW19182   7.268   7.913  10.758 -0.0642 -0.2858 -0.4129
 2486SOL    HW119183   7.233   7.930  10.846  0.2116 -0.8373 -0.1924
 2486SOL    HW219184   7.342   7.854  10.773 -1.3327 -2.1435 -1.1830
 2487SOL     OW19185   0.224  13.191   0.867 -0.0475 -0.0003  0.2496
 2487SOL    HW119186   0.309  13.190   0.823  0.4157  0.5353  1.1089
 2487SOL    HW219187   0.161  13.204   0.796  0.5106 -1.2035 -0.4884
 2488SOL     OW19188  11.734   0.372   2.490 -0.7669  0.2529  0.2296
 2488SOL    HW119189  11.725   0.323   2.572  1.0295  0.4553  0.5880
 2488SOL    HW219190  11.774   0.310   2.429 -1.0745  0.4388 -0.1646
 2489SOL     OW19191  10.290   6.669   5.583 -0.1516 -0.3614  0.2994
 2489SOL    HW119192  10.285   6.743   5.645 -1.2996  0.4176 -0.6820
 2489SOL    HW219193  10.249   6.702   5.503  1.8413 -1.1295 -1.1223
 2490SOL     OW19194  12.558   8.050  10.511  0.3827  0.4427 -0.2415
 2490SOL    HW119195  12.535   7.974  10.457 -0.8886  1.6994 -1.5969
 2490SOL    HW219196  12.653   8.050  10.514  0.4188 -0.7820 -0.8418
 2491SOL     OW19197  10.221   8.776  11.860  0.1813  0.2809 -0.7963
 2491SOL    HW119198  10.194   8.788  11.769 -1.6323  0.9944 -0.2051
 2491SOL    HW219199  10.183   8.849  11.907  0.6240 -0.3679  0.6416
 2492SOL     OW19200   5.477   3.415   7.078 -0.1020  0.4308  0.2217
 2492SOL    HW119201   5.538   3.435   7.008  0.2962  1.4507  0.8338
 2492SOL    HW219202   5.501   3.327   7.107 -0.9599 -0.4606 -1.5910
 2493SOL     OW19203   7.798   7.767   4.545 -0.0790  0.1325 -0.0685
 2493SOL    HW119204   7.756   7.853   4.535  2.2348  1.3908  0.2825
 2493SOL    HW219205   7.759   7.713   4.477  0.1946  2.2386 -2.0380
 2494SOL     OW19206   7.683   2.637   1.277 -0.2509 -0.2806 -0.2870
 2494SOL    HW119207   7.636   2.662   1.198  0.0677  0.6230 -0.1961
 2494SOL    HW219208   7.754   2.701   1.284  0.7262 -1.3493 -0.1809
 2495SOL     OW19209   9.551  13.586   9.280 -0.1341 -0.1383  0.1204
 2495SOL    HW119210   9.603  13.566   9.358  0.1492  1.0999  0.2679
 2495SOL    HW219211   9.602  13.653   9.233 -0.7865 -0.1251 -0.5989
 2496SOL     OW19212   9.552  11.291   0.283  0.3925  0.7038  0.2724
 2496SOL    HW119213   9.486  11.300   0.214  0.3183  0.9480  0.3718
 2496SOL    HW219214   9.571  11.381   0.309  1.4467  0.6904 -0.3961
 2497SOL     OW19215   2.765  13.045   4.537  0.0488 -0.3056 -0.2412
 2497SOL    HW119216   2.703  12.991   4.585  0.7421 -0.8080  0.1134
 2497SOL    HW219217   2.847  12.996   4.540  0.6735  0.7162 -0.0061
 2498SOL     OW19218  11.057  13.051  12.247 -0.1279  0.4381  0.2511
 2498SOL    HW119219  11.119  12.984  12.276  0.2294 -0.2610 -1.9810
 2498SOL    HW219220  11.112  13.126  12.223 -0.2928  0.4716 -0.0248
 2499SOL     OW19221  13.583   6.764   2.030 -0.0958 -0.0665  0.0496
 2499SOL    HW119222  13.521   6.836   2.036 -1.1549 -0.9169 -0.2744
 2499SOL    HW219223  13.665   6.799   2.066 -0.4757  1.3853 -0.4415
 2500SOL     OW19224   5.169   6.468   7.683  0.7336 -0.2807  0.4723
 2500SOL    HW119225   5.078   6.443   7.671  0.9824 -0.3794 -1.4804
 2500SOL    HW219226   5.180   6.547   7.630  1.9553 -0.6816  0.0856
 2501SOL     OW19227   6.275  10.726   6.119 -0.0576  0.3542  0.2429
 2501SOL    HW119228   6.365  10.728   6.151 -0.2714  1.4403  0.8207
 2501SOL    HW219229   6.273  10.794   6.052 -0.2321 -0.2713 -0.3979
 2502SOL     OW19230   4.329   2.061   2.127 -0.3742  0.3752 -0.4481
 2502SOL    HW119231   4.336   2.083   2.220  2.0523 -0.2537 -0.4134
 2502SOL    HW219232   4.412   2.091   2.090 -1.4888  1.0458 -2.5297
 2503SOL     OW19233  12.593   4.604   4.046 -0.4048  0.0620  0.1514
 2503SOL    HW119234  12.598   4.695   4.077  0.8032 -0.7224  2.5583
 2503SOL    HW219235  12.564   4.555   4.123 -1.1730 -1.6028 -1.1483
 2504SOL     OW19236   2.737  13.536   4.402  0.6233 -0.0486  0.7359
 2504SOL    HW119237   2.741  13.586   4.484  2.0778 -1.7545  1.7883
 2504SOL    HW219238   2.692  13.455   4.426  0.7586 -0.4256 -0.2401
 2505SOL     OW19239   8.644   8.176   1.306 -0.1144  0.1212  0.1002
 2505SOL    HW119240   8.572   8.163   1.244  0.3338 -1.1440 -0.1784
 2505SOL    HW219241   8.643   8.270   1.325 -0.9530  0.3421 -0.9762
 2506SOL     OW19242   2.716   8.624  12.833  0.5102  0.8025 -0.2436
 2506SOL    HW119243   2.676   8.664  12.910 -0.8501  1.3618 -1.1894
 2506SOL    HW219244   2.806   8.607  12.858  0.1772  1.2645  1.3554
 2507SOL     OW19245   6.486   5.715  10.107  0.3195 -0.0984 -0.0355
 2507SOL    HW119246   6.580   5.728  10.090  0.5921  2.0381  2.4437
 2507SOL    HW219247   6.462   5.789  10.164 -2.7641 -0.8946 -0.1519
 2508SOL     OW19248   0.373   4.976   2.635  0.8048 -0.5371 -0.3006
 2508SOL    HW119249   0.374   4.892   2.681  0.8949 -0.4674 -0.1771
 2508SOL    HW219250   0.399   4.953   2.545  1.3036 -0.5682 -0.1469
 2509SOL     OW19251  10.080   6.247   6.551  0.3524 -0.1126 -0.5278
 2509SOL    HW119252  10.102   6.271   6.640  0.5336 -1.8354 -0.0777
 2509SOL    HW219253  10.162   6.255   6.502  0.0089  1.9758 -0.8495
 2510SOL     OW19254   6.348   0.355   1.534  0.7742 -0.1244 -0.0028
 2510SOL    HW119255   6.431   0.308   1.539  0.7593 -0.0894  0.6953
 2510SOL    HW219256   6.292   0.300   1.479  1.0863 -0.4116 -0.0365
 2511SOL     OW19257   7.812   2.677   6.655 -0.2733 -0.7645 -0.2327
 2511SOL    HW119258   7.738   2.733   6.680 -0.8127 -0.1984 -2.7627
 2511SOL    HW219259   7.889   2.726   6.684 -0.7676  0.9692 -1.6517
 2512SOL     OW19260   8.247   2.225   2.701 -0.0353 -0.3259 -1.0313
 2512SOL    HW119261   8.182   2.176   2.650 -1.7403  0.6925  0.0552
 2512SOL    HW219262   8.274   2.164   2.770 -3.0070  0.4163  1.0252
 2513SOL     OW19263   9.650   0.388   2.607  0.3391 -0.7146  0.5841
 2513SOL    HW119264   9.585   0.377   2.538 -0.7718  1.7928  1.1252
 2513SOL    HW219265   9.733   0.403   2.561 -0.5106  1.7063 -0.3275
 2514SOL     OW19266  12.789  11.808   5.461 -0.6897 -0.8200 -0.1571
 2514SOL    HW119267  12.695  11.817   5.443 -0.2326 -0.4149 -2.8169
 2514SOL    HW219268  12.799  11.715   5.484 -1.7502 -0.8600  0.2129
 2515SOL     OW19269   6.182   6.352   7.297  0.5636 -0.0488 -0.1613
 2515SOL    HW119270   6.094   6.335   7.331  1.1401 -4.1937 -0.1184
 2515SOL    HW219271   6.219   6.415   7.358 -1.4786 -0.3192  1.4855
 2516SOL     OW19272  13.418  11.036   2.983  0.0156  0.6458  0.3179
 2516SOL    HW119273  13.433  11.089   3.062 -1.5913 -0.6696  1.5767
 2516SOL    HW219274  13.496  10.981   2.976  0.3173  1.0042  0.8076
 2517SOL     OW19275  10.682   6.111   7.848  0.3508  0.6170  0.2437
 2517SOL    HW119276  10.599   6.067   7.829  2.0597 -2.8445 -0.0975
 2517SOL    HW219277  10.706   6.153   7.765  0.5272 -1.3827 -0.7774
 2518SOL     OW19278   9.011   2.015   2.368 -0.0476  0.0118  0.5758
 2518SOL    HW119279   8.963   1.943   2.325  2.0361 -2.6977  2.4598
 2518SOL    HW219280   9.044   2.067   2.295  0.4204 -2.3722 -1.0510
 2519SOL     OW19281   2.591   5.347  12.738  0.6271  0.2512  0.1218
 2519SOL    HW119282   2.622   5.437  12.725  0.7031  0.2019 -0.0400
 2519SOL    HW219283   2.663   5.303  12.782  1.8449 -0.5338 -2.4492
 2520SOL     OW19284   5.015   3.572   1.537 -0.8973  0.0689  0.2025
 2520SOL    HW119285   5.003   3.478   1.547 -0.1735 -0.1883 -1.0825
 2520SOL    HW219286   4.959   3.596   1.464 -0.6124  0.5154  0.1227
 2521SOL     OW19287  12.004   6.329  13.654  0.7004  0.0925  0.4233
 2521SOL    HW119288  12.048   6.413  13.638  1.5107 -0.3072  0.5303
 2521SOL    HW219289  12.054   6.288  13.724  2.6928 -2.1640 -2.0896
 2522SOL     OW19290  11.785   5.021  10.917  0.4712 -0.2262  0.4439
 2522SOL    HW119291  11.736   5.016  10.999  2.0037 -0.9077  1.3496
 2522SOL    HW219292  11.841   5.098  10.927  1.2627 -0.7857  0.3886
 2523SOL     OW19293   9.935   4.073   9.278 -0.4662 -0.1265  0.4090
 2523SOL    HW119294   9.942   4.066   9.183 -0.6463  0.5250  0.3439
 2523SOL    HW219295   9.866   4.137   9.292  1.7816  2.3317  0.9453
 2524SOL     OW19296  10.452  13.364   9.793  0.1895  0.4942 -0.0422
 2524SOL    HW119297  10.431  13.386   9.703  1.3846  1.0518 -0.1968
 2524SOL    HW219298  10.516  13.429   9.820  1.6440 -1.0501  0.4373
 2525SOL     OW19299   3.518   9.960   4.656 -0.0994 -0.3614  0.6667
 2525SOL    HW119300   3.447   9.910   4.696  1.1587 -0.9341  2.3431
 2525SOL    HW219301   3.559  10.006   4.729  3.0682 -2.3786  0.3947
 2526SOL     OW19302   9.732   0.595   0.429  0.2142 -0.0445 -0.0648
 2526SOL    HW119303   9.705   0.509   0.397  2.1538 -0.3782 -0.9735
 2526SOL    HW219304   9.665   0.620   0.492 -0.4369 -2.1743  0.1511
 2527SOL     OW19305  10.867   9.745  11.875  0.2478 -0.2723  0.2969
 2527SOL    HW119306  10.776   9.767  11.896  0.2421  0.4039 -0.3725
 2527SOL    HW219307  10.911   9.829  11.868  0.5817 -0.5268 -0.8429
 2528SOL     OW19308  13.472   9.439  10.414 -0.3865  0.4276 -0.9536
 2528SOL    HW119309  13.533   9.403  10.478 -0.7627  0.2394 -0.6968
 2528SOL    HW219310  13.388   9.399  10.436 -0.3805 -0.2164 -2.0333
 2529SOL     OW19311   8.461  11.068  12.064 -0.0209  0.0536 -0.2956
 2529SOL    HW119312   8.469  11.042  11.972  1.0921  0.5622 -0.3576
 2529SOL    HW219313   8.471  10.987  12.113  1.3948  0.0508 -0.5590
 2530SOL     OW19314  12.739   9.153   5.158  0.4904  0.6404 -0.4683
 2530SOL    HW119315  12.711   9.184   5.072 -0.7157 -0.6768 -0.5815
 2530SOL    HW219316  12.687   9.204   5.220 -0.7935 -0.4255 -0.6275
 2531SOL     OW19317   7.523   7.606   5.370 -0.0750 -0.4681 -0.4320
 2531SOL    HW119318   7.614   7.634   5.374  0.0901 -1.0995  0.2991
 2531SOL    HW219319   7.521   7.521   5.415 -1.2522  0.1504  0.7667
 2532SOL     OW19320   0.799  11.004   0.898  0.5192  0.1714 -0.1165
 2532SOL    HW119321   0.875  10.981   0.845  0.1075 -0.5503 -0.4016
 2532SOL    HW219322   0.808  10.951   0.977  1.2235  1.3680  0.6441
 2533SOL     OW19323   6.532   0.259   9.118  0.2776 -0.2365 -0.3090
 2533SOL    HW119324   6.521   0.354   9.109 -0.6417 -0.1962  0.9483
 2533SOL    HW219325   6.496   0.224   9.037  0.0125  0.4675 -0.5103
 2534SOL     OW19326   4.836   8.889  12.948 -0.5739 -0.0005  0.0816
 2534SOL    HW119327   4.748   8.885  12.911 -0.8975  0.7362  0.7627
 2534SOL    HW219328   4.886   8.826  12.896 -1.1445  0.6256 -1.2757
 2535SOL     OW19329  11.462   4.307   2.183 -0.0522 -0.7277 -0.1110
 2535SOL    HW119330  11.405   4.378   2.212 -0.9633 -1.6394  0.4240
 2535SOL    HW219331  11.448   4.238   2.248  2.4955 -0.6017  0.6640
 2536SOL     OW19332  10.192  10.363   3.449 -0.2774 -0.3640  0.9737
 2536SOL    HW119333  10.274  10.358   3.499  0.1580 -0.8603  0.2189
 2536SOL    HW219334  10.191  10.452   3.414 -0.0803 -0.3478  1.0062
 2537SOL     OW19335   2.219   9.005   7.430  0.2452 -0.0479 -0.4084
 2537SOL    HW119336   2.246   8.972   7.344 -0.5921  0.1826 -0.7722
 2537SOL    HW219337   2.129   9.035   7.417  0.1240  0.0362  0.5437
 2538SOL     OW19338   0.900   7.711   4.155  0.0637 -0.0093  0.4879
 2538SOL    HW119339   0.833   7.644   4.146 -0.0114  0.0511  0.5936
 2538SOL    HW219340   0.973   7.666   4.198  0.8329 -0.5717 -1.3403
 2539SOL     OW19341   0.938   4.233   9.169 -0.4958 -0.1161 -0.7921
 2539SOL    HW119342   0.871   4.255   9.104  0.4105 -1.3351 -2.1788
 2539SOL    HW219343   0.944   4.138   9.167 -1.2040 -0.3229  1.9169
 2540SOL     OW19344   4.732  11.690   1.060  0.0097 -0.2292  0.3831
 2540SOL    HW119345   4.810  11.710   1.111  0.2677 -3.0224  1.2656
 2540SOL    HW219346   4.766  11.650   0.979 -0.3288 -3.4491  1.6531
 2541SOL     OW19347   4.098   9.745   9.615  0.1901 -0.3832  0.4958
 2541SOL    HW119348   4.054   9.691   9.681 -0.5233 -1.2917 -0.6781
 2541SOL    HW219349   4.190   9.723   9.624  0.0577 -0.7780  0.9448
 2542SOL     OW19350   8.605  10.854  13.600 -0.2681  0.5111 -0.1753
 2542SOL    HW119351   8.565  10.919  13.542  0.8047  0.3587 -1.1234
 2542SOL    HW219352   8.681  10.821  13.551  0.0579 -0.3967  0.8873
 2543SOL     OW19353   2.703   7.822   1.111  0.1423 -0.5452  0.2606
 2543SOL    HW119354   2.691   7.842   1.204  0.8499 -0.9014  0.4405
 2543SOL    HW219355   2.752   7.897   1.076 -1.6633  0.4527 -0.2542
 2544SOL     OW19356  11.135   3.470   3.866  0.4391 -0.1003  0.5416
 2544SOL    HW119357  11.134   3.519   3.784 -0.0520  0.0606  0.6408
 2544SOL    HW219358  11.197   3.518   3.921  0.4434  0.0397  0.4159
 2545SOL     OW19359  12.802  11.691  10.682  0.2222  0.8100  0.0491
 2545SOL    HW119360  12.835  11.605  10.656 -0.5039  0.6603 -0.4199
 2545SOL    HW219361  12.841  11.752  10.618  0.0443  0.7100 -0.1574
 2546SOL     OW19362   7.218   6.696  10.094  0.0433  0.4350  0.3950
 2546SOL    HW119363   7.292   6.728  10.042 -0.0626 -0.2553 -0.1904
 2546SOL    HW219364   7.222   6.748  10.174  3.2397 -1.8220  1.9404
 2547SOL     OW19365   0.443   4.150  11.643 -0.1630  0.6185  0.3607
 2547SOL    HW119366   0.517   4.184  11.592  1.3081 -1.9514  0.6636
 2547SOL    HW219367   0.425   4.219  11.707  1.7721  1.4321  0.1023
 2548SOL     OW19368   1.656   0.855  11.163 -0.0244 -0.3905  0.0478
 2548SOL    HW119369   1.665   0.766  11.129 -0.1608 -0.1936 -0.5110
 2548SOL    HW219370   1.700   0.852  11.248 -0.3775 -1.0976  0.2220
 2549SOL     OW19371   0.674   2.815   1.967 -0.0996 -0.6150  0.2525
 2549SOL    HW119372   0.762   2.846   1.946 -0.5484  0.4080 -0.2170
 2549SOL    HW219373   0.653   2.756   1.895 -0.4456  0.5044 -0.6104
 2550SOL     OW19374   6.519   0.599   9.903  0.1888 -0.8810  0.2230
 2550SOL    HW119375   6.546   0.555   9.822 -0.2996 -0.3840 -0.2179
 2550SOL    HW219376   6.425   0.616   9.891  0.7352  2.2454 -0.6099
 2551SOL     OW19377  12.014   6.783   7.462 -0.3761 -0.0983 -0.0440
 2551SOL    HW119378  12.009   6.876   7.438 -2.2162 -0.0565  0.4086
 2551SOL    HW219379  12.108   6.765   7.464 -0.0046  1.3149 -1.7903
 2552SOL     OW19380  10.776   0.055   1.362  0.1751 -0.2379  0.0062
 2552SOL    HW119381  10.695   0.093   1.396  0.0654  0.3404 -0.8499
 2552SOL    HW219382  10.836   0.055   1.437  0.4317  2.3775 -0.0944
 2553SOL     OW19383   5.341   0.047  10.309  0.9322  0.0478  0.0892
 2553SOL    HW119384   5.412  -0.012  10.284  1.0011  0.7753 -1.5461
 2553SOL    HW219385   5.335   0.110  10.237 -1.5148 -0.1032  0.0680
 2554SOL     OW19386   7.433   6.548   8.270 -0.1270 -0.0402 -0.1700
 2554SOL    HW119387   7.509   6.537   8.327 -0.5734 -2.5087  0.0497
 2554SOL    HW219388   7.469   6.577   8.186  0.7490  1.4484  0.6720
 2555SOL     OW19389   8.820  11.963   2.852 -0.1986  0.7836 -0.4571
 2555SOL    HW119390   8.797  11.906   2.925 -0.7587  1.7295  0.1361
 2555SOL    HW219391   8.909  11.993   2.871 -0.3203  0.9768 -0.1946
 2556SOL     OW19392   3.378   0.612  13.352 -0.2626  0.3456 -0.1096
 2556SOL    HW119393   3.422   0.693  13.378  0.3041  0.1162 -0.3481
 2556SOL    HW219394   3.287   0.638  13.337 -0.6584  0.4843  2.1752
 2557SOL     OW19395   3.292   2.898   2.813 -0.3892  0.1157  0.1467
 2557SOL    HW119396   3.222   2.836   2.792 -0.1764 -0.1521  0.2230
 2557SOL    HW219397   3.371   2.844   2.819  0.2486  0.7155 -2.1918
 2558SOL     OW19398   6.661   9.245   0.041 -0.0382 -0.1505  0.4693
 2558SOL    HW119399   6.575   9.272   0.009  0.3730  1.1090  0.3761
 2558SOL    HW219400   6.649   9.154   0.069 -1.3825 -0.0041  0.4212
 2559SOL     OW19401   6.572   4.441  10.688  0.1423 -1.0687 -0.1244
 2559SOL    HW119402   6.579   4.395  10.772 -0.1411  0.9110  1.0551
 2559SOL    HW219403   6.640   4.509  10.693 -2.4145  1.6437  0.2725
 2560SOL     OW19404   6.948   6.827  10.352 -0.0306 -0.0796 -0.3347
 2560SOL    HW119405   7.038   6.843  10.322  0.1291 -2.0544 -1.0857
 2560SOL    HW219406   6.894   6.839  10.274 -0.1245 -1.0914 -0.4422
 2561SOL     OW19407   9.560   6.360   5.712  0.3085 -0.3016 -0.6344
 2561SOL    HW119408   9.548   6.441   5.663  0.6114  1.2009  1.6402
 2561SOL    HW219409   9.612   6.385   5.788  1.7956 -2.9678 -0.6520
 2562SOL     OW19410   1.781   7.936   0.148  0.6674 -0.2000 -0.2965
 2562SOL    HW119411   1.766   8.011   0.091  0.3021 -0.5444 -0.6529
 2562SOL    HW219412   1.787   7.861   0.089  0.8125 -0.4849  0.0734
 2563SOL     OW19413  12.630   6.383  12.274  1.1183 -0.1322 -0.8271
 2563SOL    HW119414  12.571   6.310  12.285  2.3486 -1.2570 -1.4132
 2563SOL    HW219415  12.630   6.427  12.359 -0.3207 -0.2511 -0.7363
 2564SOL     OW19416   8.089   2.311   6.872 -0.1123 -0.1540 -0.0585
 2564SOL    HW119417   8.109   2.361   6.793 -1.5265 -0.1744 -0.4525
 2564SOL    HW219418   8.017   2.253   6.847 -0.3161 -0.4483  1.1360
 2565SOL     OW19419  11.966  10.341   8.186  0.6128 -0.0791  0.3191
 2565SOL    HW119420  12.049  10.319   8.227 -0.2686 -1.2922  1.5582
 2565SOL    HW219421  11.965  10.289   8.105  1.1202  0.0601  0.2211
 2566SOL     OW19422   1.538   5.984   0.239  0.2214  0.3417 -0.4452
 2566SOL    HW119423   1.452   5.977   0.279  0.1190  0.5061 -0.6349
 2566SOL    HW219424   1.586   6.044   0.297  1.5079 -2.6718  1.8813
 2567SOL     OW19425   3.853   8.589   3.130 -0.3940  0.4392 -0.3674
 2567SOL    HW119426   3.880   8.521   3.069  1.5424  0.4697  0.3909
 2567SOL    HW219427   3.840   8.543   3.213 -3.1255  0.3705 -0.7309
 2568SOL     OW19428   2.702  12.665   6.149  0.5119  0.1343 -0.2761
 2568SOL    HW119429   2.796  12.660   6.167  0.3862 -0.4762  0.2448
 2568SOL    HW219430   2.668  12.726   6.215  0.3253 -0.7600  0.4756
 2569SOL     OW19431   9.460   1.351  12.311  0.1648  0.2004  0.1278
 2569SOL    HW119432   9.388   1.380  12.255  0.6325 -0.1174 -0.6584
 2569SOL    HW219433   9.480   1.263  12.280  1.6194  0.6990 -0.4238
 2570SOL     OW19434  13.226  10.905   1.744 -0.3322  0.1879 -0.4315
 2570SOL    HW119435  13.263  10.827   1.785  1.7830  1.1334 -0.4029
 2570SOL    HW219436  13.227  10.885   1.650  1.3174  0.5580 -0.5286
 2571SOL     OW19437   5.869   4.624  12.581 -0.2235  0.9347 -0.2866
 2571SOL    HW119438   5.941   4.565  12.559 -1.1310 -0.7082  0.9314
 2571SOL    HW219439   5.792   4.582  12.544 -0.8347  1.5814  0.2359
 2572SOL     OW19440   4.550   2.164   7.123 -0.0356 -0.2918  0.2041
 2572SOL    HW119441   4.471   2.112   7.107 -0.3123  0.6352 -1.6055
 2572SOL    HW219442   4.519   2.254   7.130  0.9449  0.2747 -1.9263
 2573SOL     OW19443   1.991   1.371   2.636 -0.2865 -0.0419  0.3071
 2573SOL    HW119444   1.901   1.382   2.665  0.1277 -0.3728  1.8272
 2573SOL    HW219445   2.039   1.348   2.716  1.0263 -0.5106 -0.5842
 2574SOL     OW19446   1.012   5.447   7.087  0.4961 -0.6153 -0.1898
 2574SOL    HW119447   0.936   5.480   7.039  0.8239  2.3286  1.1265
 2574SOL    HW219448   0.975   5.418   7.171  0.8404  1.8951  0.9184
 2575SOL     OW19449  10.962   5.280   1.240  0.6080  0.4760 -0.0493
 2575SOL    HW119450  10.985   5.187   1.233 -1.2862 -0.1163  0.9815
 2575SOL    HW219451  11.016   5.323   1.173  0.3995 -1.5732 -1.6280
 2576SOL     OW19452   7.893  10.767  10.099  0.0192  0.4733 -0.8028
 2576SOL    HW119453   7.819  10.731  10.147  1.1909 -0.9662  0.0303
 2576SOL    HW219454   7.863  10.852  10.068 -1.2572  0.8549  1.2962
 2577SOL     OW19455   0.237   2.808  13.155 -0.0986 -0.3322 -0.4038
 2577SOL    HW119456   0.319   2.761  13.168  0.5493  1.1597  1.2490
 2577SOL    HW219457   0.258   2.875  13.090 -0.5549 -1.1722 -1.4410
 2578SOL     OW19458   6.530  13.314   4.955 -0.7682 -0.0407  0.1556
 2578SOL    HW119459   6.494  13.384   5.010 -1.0862 -0.7759  0.9055
 2578SOL    HW219460   6.528  13.349   4.866 -0.0202  1.2630  0.6326
 2579SOL     OW19461   2.239   4.682   1.319  0.2262  0.3435  0.0464
 2579SOL    HW119462   2.282   4.636   1.247  1.5145  0.5273  0.6714
 2579SOL    HW219463   2.311   4.711   1.375 -0.7918 -0.5718  1.8877
 2580SOL     OW19464   4.554   5.919  10.852 -0.9087 -0.4769 -0.7671
 2580SOL    HW119465   4.626   5.983  10.856 -0.8662 -0.5906  0.7748
 2580SOL    HW219466   4.546   5.899  10.759  0.2315  0.4771 -1.1041
 2581SOL     OW19467   3.436  10.559   0.312  0.0912 -0.4921 -0.1275
 2581SOL    HW119468   3.344  10.578   0.329 -0.2374 -0.2675 -1.9233
 2581SOL    HW219469   3.478  10.646   0.307  0.6621 -0.6234  1.8645
 2582SOL     OW19470   1.015   4.435  12.849  0.3175  0.3295  0.0148
 2582SOL    HW119471   1.108   4.435  12.871  0.7187 -2.9800 -1.1123
 2582SOL    HW219472   1.009   4.481  12.765  1.7131 -2.7591 -1.9638
 2583SOL     OW19473   7.412   9.194   5.456  0.1307 -0.0957  0.5391
 2583SOL    HW119474   7.494   9.209   5.503  2.3242 -6.1288 -0.5483
 2583SOL    HW219475   7.435   9.199   5.364 -0.8213 -1.2922  0.2045
 2584SOL     OW19476  12.601   1.257  11.250  0.0033 -0.1691  0.2551
 2584SOL    HW119477  12.674   1.227  11.304  0.4882 -1.1982 -0.9343
 2584SOL    HW219478  12.524   1.240  11.304  0.4879 -0.9995  0.7199
 2585SOL     OW19479   2.000   1.426   4.895 -0.5950 -0.1086  0.0593
 2585SOL    HW119480   2.061   1.495   4.871 -0.2997 -0.6780 -0.9252
 2585SOL    HW219481   1.919   1.449   4.849 -0.5650 -0.2869 -0.0859
 2586SOL     OW19482   9.600   8.193   2.490  0.1457 -0.1723 -0.5361
 2586SOL    HW119483   9.609   8.173   2.397  1.1846 -0.5422 -0.3646
 2586SOL    HW219484   9.667   8.140   2.533  1.6840  2.1790  0.1463
 2587SOL     OW19485  11.676   5.258  12.001  0.2334  0.6537  1.0742
 2587SOL    HW119486  11.586   5.270  12.032 -1.1608 -0.7220 -2.0544
 2587SOL    HW219487  11.707   5.181  12.048 -2.2562 -2.1313 -1.4123
 2588SOL     OW19488   1.234   3.572   8.181  0.6485 -0.4613 -0.4690
 2588SOL    HW119489   1.226   3.633   8.107 -0.8981 -1.0067 -0.7824
 2588SOL    HW219490   1.328   3.551   8.184  0.9841  0.7457 -1.3015
 2589SOL     OW19491  13.487  12.044  12.798  0.1192 -0.8108 -0.0056
 2589SOL    HW119492  13.429  11.988  12.746 -0.9634  0.2725 -0.0075
 2589SOL    HW219493  13.562  11.988  12.820 -0.9707 -2.2906  0.0779
 2590SOL     OW19494  12.504   6.199   5.290  0.5325 -0.1316 -0.5251
 2590SOL    HW119495  12.517   6.258   5.215  2.2840 -2.3762 -2.1274
 2590SOL    HW219496  12.411   6.208   5.311  0.5235  2.4203 -1.3138
 2591SOL     OW19497   2.437   1.752  13.096 -0.2651 -0.0112 -0.2910
 2591SOL    HW119498   2.415   1.699  13.172  1.2661  0.7277  0.7160
 2591SOL    HW219499   2.354   1.764  13.050 -0.5340 -4.4776 -1.4412
 2592SOL     OW19500   1.933   1.374  12.616  0.3020  0.6322 -0.3385
 2592SOL    HW119501   1.983   1.427  12.554  0.7498  0.3296 -0.2426
 2592SOL    HW219502   1.850   1.356  12.571 -0.4372  2.5259  0.1427
 2593SOL     OW19503   7.787  11.638   5.722 -0.7616  0.1174 -0.4103
 2593SOL    HW119504   7.830  11.618   5.806  0.7813  0.0879 -1.1613
 2593SOL    HW219505   7.773  11.553   5.681 -0.3980  0.1931 -0.6979
 2594SOL     OW19506   9.512  12.314   1.318  0.4429 -0.2134  0.0650
 2594SOL    HW119507   9.428  12.287   1.355  0.4554  0.0869  0.3204
 2594SOL    HW219508   9.534  12.246   1.255  0.7406 -1.0967  1.0960
 2595SOL     OW19509   4.451   3.081   7.573 -0.1474  0.6078  0.0643
 2595SOL    HW119510   4.363   3.110   7.550 -0.0002  0.8138 -0.2503
 2595SOL    HW219511   4.463   2.998   7.525  0.0247  0.8515 -0.3199
 2596SOL     OW19512   5.756   9.388  11.848 -0.0005 -0.1055 -0.1201
 2596SOL    HW119513   5.683   9.396  11.910 -0.4892 -0.5936 -0.6149
 2596SOL    HW219514   5.768   9.293  11.838  0.1334 -0.0335 -0.6893
 2597SOL     OW19515   4.155  10.110   9.864  0.7019 -0.2780  0.2516
 2597SOL    HW119516   4.249  10.124   9.857  0.5475  1.3535  0.9223
 2597SOL    HW219517   4.125  10.107   9.773  1.2612  0.4189  0.0297
 2598SOL     OW19518   7.686  11.983   5.422  0.3717  0.3324  0.1949
 2598SOL    HW119519   7.712  11.997   5.513  0.7193 -2.9237  0.7190
 2598SOL    HW219520   7.768  11.969   5.375  0.0932 -1.1410  0.0830
 2599SOL     OW19521   0.161  11.223   6.368 -0.1418 -0.0847 -0.5807
 2599SOL    HW119522   0.189  11.292   6.429 -2.1436  0.7731 -0.5546
 2599SOL    HW219523   0.092  11.177   6.415 -1.0667 -0.0164 -1.8281
 2600SOL     OW19524   7.078  13.180   7.942  0.3120  0.0718  0.1233
 2600SOL    HW119525   6.998  13.186   7.994 -0.7939  0.4026 -1.5185
 2600SOL    HW219526   7.105  13.089   7.948 -1.1152 -0.4194 -0.5629
 2601SOL     OW19527   2.607   1.266   2.082  0.4122 -0.7684 -0.4504
 2601SOL    HW119528   2.594   1.220   2.000 -1.9733  1.1974 -1.3188
 2601SOL    HW219529   2.565   1.210   2.148  3.2247 -2.8526 -0.2454
 2602SOL     OW19530   6.377  10.382   3.333  0.0381  0.4005  0.0673
 2602SOL    HW119531   6.346  10.448   3.396 -0.6075  1.2946 -1.1525
 2602SOL    HW219532   6.381  10.428   3.250  0.3464 -0.9109 -0.6714
 2603SOL     OW19533   5.199   4.856   7.811  0.7152 -0.1390  0.1031
 2603SOL    HW119534   5.236   4.782   7.859 -0.7382  0.3731  2.1695
 2603SOL    HW219535   5.267   4.923   7.812  0.3136  0.3314  2.7138
 2604SOL     OW19536   3.572   9.630  10.344 -0.4108 -0.1168  0.3365
 2604SOL    HW119537   3.656   9.592  10.373  0.8155  1.6413 -0.7021
 2604SOL    HW219538   3.531   9.560  10.293  2.1095  0.0655 -2.1833
 2605SOL     OW19539   4.964  12.459  12.543 -0.4142  0.0339  0.1408
 2605SOL    HW119540   5.005  12.433  12.460  1.2415 -2.9493  1.7479
 2605SOL    HW219541   5.038  12.487  12.597 -1.1133 -0.7151  1.5073
 2606SOL     OW19542   7.189  11.520   2.264  0.3101  0.4050  0.3584
 2606SOL    HW119543   7.173  11.472   2.345  2.2939  0.0489  0.5711
 2606SOL    HW219544   7.277  11.555   2.273  0.3628  0.8342 -1.4131
 2607SOL     OW19545  13.313   2.830   3.364 -0.3968  0.1180  0.4653
 2607SOL    HW119546  13.361   2.913   3.365 -0.0255 -0.0635 -0.6761
 2607SOL    HW219547  13.340   2.788   3.282 -2.9649  0.2987 -0.5621
 2608SOL     OW19548  11.988   7.323   5.720  0.4529  0.3377 -0.6689
 2608SOL    HW119549  12.005   7.410   5.755 -2.8683  1.1293 -0.6676
 2608SOL    HW219550  11.919   7.288   5.777  1.2379 -2.0647 -1.0697
 2609SOL     OW19551  13.690  11.297  12.891  0.0206  0.6139 -0.2065
 2609SOL    HW119552  13.760  11.244  12.928  1.2041  1.4991 -1.1145
 2609SOL    HW219553  13.720  11.387  12.903 -0.7658  0.9927 -1.0069
 2610SOL     OW19554  10.690  12.706  13.190 -0.6486  0.4512 -0.0523
 2610SOL    HW119555  10.617  12.752  13.231 -1.2613  1.9312 -2.5524
 2610SOL    HW219556  10.764  12.767  13.196 -0.3805  0.1227  0.0344
 2611SOL     OW19557  11.862   4.122   5.545  0.1920  0.1493 -0.1297
 2611SOL    HW119558  11.842   4.088   5.632  0.6276 -2.2636 -0.8844
 2611SOL    HW219559  11.793   4.186   5.528  0.7042  1.4872  2.3641
 2612SOL     OW19560   3.912  12.668   7.301  0.0732 -0.0306 -0.2507
 2612SOL    HW119561   3.995  12.645   7.259 -0.4487 -0.7238 -0.9403
 2612SOL    HW219562   3.874  12.734   7.244 -0.8041 -1.2313 -1.1146
 2613SOL     OW19563  13.362   5.282   0.645 -0.1503  0.5176  0.1024
 2613SOL    HW119564  13.386   5.210   0.587  0.2306 -1.3819  2.4454
 2613SOL    HW219565  13.269   5.297   0.628 -0.5077 -1.2874  0.2806
 2614SOL     OW19566   7.509  12.840   8.198  0.5924 -1.0742 -0.0159
 2614SOL    HW119567   7.453  12.917   8.198  1.5623 -0.3636 -0.2044
 2614SOL    HW219568   7.449  12.767   8.214 -0.0362 -0.0790  2.4812
 2615SOL     OW19569   7.287   8.724   5.887 -0.1400 -0.0730  0.2163
 2615SOL    HW119570   7.301   8.815   5.859 -0.7394  0.7676  2.4376
 2615SOL    HW219571   7.374   8.694   5.914 -0.0166 -0.0267 -0.1210
 2616SOL     OW19572  12.622   5.851   0.577 -0.3893 -0.0874  0.4041
 2616SOL    HW119573  12.564   5.923   0.551 -0.2404  0.3435  1.2245
 2616SOL    HW219574  12.707   5.893   0.590 -0.2192 -0.4770  0.5533
 2617SOL     OW19575   7.426   7.773   7.321 -0.3410  0.5411 -0.1457
 2617SOL    HW119576   7.476   7.806   7.396 -2.2121  0.7051  1.1032
 2617SOL    HW219577   7.447   7.680   7.317 -1.5621  0.0973  1.8114
 2618SOL     OW19578  10.553   4.644   8.919 -0.1568 -0.2580  0.8484
 2618SOL    HW119579  10.624   4.596   8.961 -1.7784 -3.2153  0.5123
 2618SOL    HW219580  10.509   4.690   8.990  0.0473 -1.2466  1.6320
 2619SOL     OW19581  10.952   2.229  13.643  0.5468 -0.5292 -0.0388
 2619SOL    HW119582  10.878   2.197  13.693  1.5057 -2.0357  0.5058
 2619SOL    HW219583  11.009   2.152  13.634  2.5352  0.8181  0.4747
 2620SOL     OW19584   1.290   4.224   7.118 -0.4587 -0.0841  0.1278
 2620SOL    HW119585   1.261   4.215   7.027 -0.2362  0.5292 -0.0068
 2620SOL    HW219586   1.327   4.138   7.140 -0.7508 -0.3151 -0.2740
 2621SOL     OW19587   1.717  13.375   0.267  0.4521  0.2906 -0.2786
 2621SOL    HW119588   1.802  13.382   0.310 -0.7569 -1.6834  2.7362
 2621SOL    HW219589   1.718  13.290   0.225 -0.0594  0.2091 -0.1327
 2622SOL     OW19590   8.792   0.660   6.918  0.0868  0.5397 -0.1682
 2622SOL    HW119591   8.794   0.743   6.870 -3.8761  0.8066 -0.2410
 2622SOL    HW219592   8.743   0.680   6.998 -0.4337 -1.5835  0.1075
 2623SOL     OW19593  11.390   3.169   8.298 -0.4136  0.0548  0.2525
 2623SOL    HW119594  11.436   3.234   8.244 -1.7659  1.3878  0.6155
 2623SOL    HW219595  11.309   3.152   8.250 -1.0076  0.2195  1.1630
 2624SOL     OW19596   9.427   7.921   3.594  0.2200 -0.2245 -0.1988
 2624SOL    HW119597   9.412   7.882   3.680  0.3115 -1.4259 -0.6932
 2624SOL    HW219598   9.340   7.930   3.556  0.1703  0.4361  0.0723
 2625SOL     OW19599  11.229   6.647  10.956  0.3471 -0.2400 -0.6064
 2625SOL    HW119600  11.294   6.612  11.017  1.3599  0.8663 -1.0158
 2625SOL    HW219601  11.224   6.581  10.887  2.4273  0.4700 -1.5050
 2626SOL     OW19602   8.021   3.239   1.220 -0.2025  0.1925 -0.2121
 2626SOL    HW119603   8.031   3.275   1.308  2.0085  0.2692 -0.4348
 2626SOL    HW219604   8.096   3.274   1.171 -1.3256  0.0905 -2.1200
 2627SOL     OW19605   9.176  12.015   9.167  0.3707 -0.0382  0.0847
 2627SOL    HW119606   9.243  12.041   9.230  1.5303 -1.1995 -0.6283
 2627SOL    HW219607   9.114  11.963   9.217  0.2030  0.6910  0.6610
 2628SOL     OW19608   8.846   5.266  13.503  0.0371 -0.3959 -0.4557
 2628SOL    HW119609   8.873   5.347  13.460  1.6384 -0.1283  0.9247
 2628SOL    HW219610   8.776   5.293  13.563  0.5328 -0.0158 -0.0342
 2629SOL     OW19611   8.582  13.540   6.377  0.2362  0.1621  0.1847
 2629SOL    HW119612   8.625  13.464   6.416 -0.3779 -0.0664  0.4266
 2629SOL    HW219613   8.562  13.513   6.287 -2.4104 -1.0030  1.0148
 2630SOL     OW19614  13.575  12.974   5.599  0.2337 -0.0252 -0.0085
 2630SOL    HW119615  13.561  13.068   5.609  0.7864  0.0041  0.5207
 2630SOL    HW219616  13.542  12.936   5.680  0.3354 -0.2497 -0.0719
 2631SOL     OW19617   5.982   9.017   5.935  0.3447 -0.2192  0.2640
 2631SOL    HW119618   6.035   9.040   5.859  1.0799 -0.1694  0.7802
 2631SOL    HW219619   5.917   9.087   5.942  1.7971  1.0910  1.1079
 2632SOL     OW19620  13.597  12.420   3.323  0.5684  0.3535  0.2080
 2632SOL    HW119621  13.617  12.440   3.232  1.5339 -0.0555  0.3207
 2632SOL    HW219622  13.519  12.364   3.319  1.9027 -1.5334 -0.5163
 2633SOL     OW19623   9.739   1.146  13.596 -0.0810 -0.6276 -0.1184
 2633SOL    HW119624   9.721   1.052  13.598  0.1801 -0.6723  0.2870
 2633SOL    HW219625   9.653   1.187  13.596 -0.1950 -0.8664 -0.1396
 2634SOL     OW19626   9.102   8.093   2.143  0.0665 -0.5427  0.2646
 2634SOL    HW119627   9.177   8.083   2.085  1.5784 -0.5338  2.1307
 2634SOL    HW219628   9.062   8.007   2.147 -0.8962 -0.2503 -1.7923
 2635SOL     OW19629   0.020   0.621  13.156 -0.2493  0.1137  0.4892
 2635SOL    HW119630  -0.002   0.590  13.244 -0.3122 -0.1525  0.3807
 2635SOL    HW219631   0.112   0.645  13.162  0.5914 -2.5420 -0.0707
 2636SOL     OW19632   3.502   5.160  10.147  0.1576  0.2294  0.2560
 2636SOL    HW119633   3.421   5.149  10.198 -0.1210 -0.3646 -0.2982
 2636SOL    HW219634   3.475   5.148  10.056  0.5530  1.8716 -0.0982
 2637SOL     OW19635   0.778   7.201   6.887 -0.0315 -0.2136  0.8549
 2637SOL    HW119636   0.755   7.109   6.900 -1.9091 -0.0228 -0.5595
 2637SOL    HW219637   0.853   7.199   6.828 -0.8139 -0.8772 -0.1706
 2638SOL     OW19638  11.266   5.750   0.055 -0.7108  0.2130  0.2214
 2638SOL    HW119639  11.206   5.695   0.006  0.7199 -0.6906 -0.5958
 2638SOL    HW219640  11.285   5.823  -0.004 -0.6613  0.2599  0.2948
 2639SOL     OW19641  13.667   5.594   7.865 -0.3804  0.5647 -0.4072
 2639SOL    HW119642  13.617   5.515   7.844  0.1007  0.5000 -1.3428
 2639SOL    HW219643  13.642   5.614   7.955 -1.7979  0.3135 -0.7159
 2640SOL     OW19644  12.158  11.755   3.953  0.1518  0.3128 -0.7487
 2640SOL    HW119645  12.221  11.763   3.882 -1.0406 -0.1162 -1.9135
 2640SOL    HW219646  12.079  11.721   3.910 -0.2420 -1.1124  0.9906
 2641SOL     OW19647   3.534   9.023   6.218  0.4372 -0.1759 -0.5750
 2641SOL    HW119648   3.500   9.079   6.288 -0.3990 -0.5804 -0.6496
 2641SOL    HW219649   3.606   9.074   6.180  0.0391  0.6167 -0.2886
 2642SOL     OW19650  11.655   5.989  10.211 -0.4120 -0.0131 -0.2920
 2642SOL    HW119651  11.746   5.968  10.231 -0.3854  0.0511 -0.3419
 2642SOL    HW219652  11.617   5.906  10.183 -0.8751 -0.4481  1.5345
 2643SOL     OW19653   0.526   5.222   5.873 -0.3701 -0.1599  0.0703
 2643SOL    HW119654   0.526   5.177   5.788  2.2827 -0.8666  0.3741
 2643SOL    HW219655   0.543   5.314   5.851 -0.7592 -0.1518 -0.2161
 2644SOL     OW19656  13.017   8.018  10.630 -0.0101  0.6573 -0.5239
 2644SOL    HW119657  13.061   8.046  10.710 -0.5131  0.8358 -0.3055
 2644SOL    HW219658  12.987   7.929  10.649 -1.2137  1.1364 -0.0485
 2645SOL     OW19659  10.400   2.240   7.167  0.3721  0.0016  0.3450
 2645SOL    HW119660  10.466   2.196   7.114  2.0192  1.7083  0.8633
 2645SOL    HW219661  10.448   2.308   7.214 -1.6649  0.9344  1.2235
 2646SOL     OW19662   9.613   0.716   2.806  0.1019 -0.4516 -0.3664
 2646SOL    HW119663   9.588   0.631   2.842  1.6884 -0.4312  0.8680
 2646SOL    HW219664   9.535   0.746   2.760 -0.7140 -2.2566 -0.2436
 2647SOL     OW19665   7.933  10.914   7.641 -0.3849  0.0678 -0.1976
 2647SOL    HW119666   8.020  10.941   7.672 -0.1544  0.2270 -0.9780
 2647SOL    HW219667   7.950  10.838   7.586 -0.8567 -0.5569  0.4934
 2648SOL     OW19668   4.658  11.358   4.874 -0.1010  0.1464 -0.1387
 2648SOL    HW119669   4.674  11.271   4.912  0.5692  0.4692  0.3433
 2648SOL    HW219670   4.610  11.341   4.794 -0.6157 -0.6319  0.3185
 2649SOL     OW19671   3.040   3.617   9.767  0.6212 -0.2893 -0.6690
 2649SOL    HW119672   3.050   3.655   9.854  1.5989 -0.6388 -0.6144
 2649SOL    HW219673   3.100   3.542   9.767 -1.1781 -1.8037 -0.8009
 2650SOL     OW19674   1.298  10.174  13.687 -0.5148 -0.3560 -0.0252
 2650SOL    HW119675   1.281  10.105  13.751  0.6005  0.5165  1.2895
 2650SOL    HW219676   1.216  10.184  13.640 -1.4917 -0.8429  1.4914
 2651SOL     OW19677  10.757  10.824   3.360 -0.0291 -0.3623 -0.1383
 2651SOL    HW119678  10.733  10.741   3.401  0.4381 -1.0957 -1.3028
 2651SOL    HW219679  10.702  10.829   3.282  2.6852 -1.5633 -2.2858
 2652SOL     OW19680  10.880   4.640   1.871 -0.2966 -0.5821  0.2386
 2652SOL    HW119681  10.894   4.696   1.947 -1.2188  0.0136 -0.0148
 2652SOL    HW219682  10.962   4.590   1.863  0.0464 -0.2124  1.2403
 2653SOL     OW19683   8.101   5.167   7.118 -0.3470 -0.1467  0.8175
 2653SOL    HW119684   8.035   5.140   7.183 -2.1404  1.1012 -0.4000
 2653SOL    HW219685   8.122   5.258   7.142 -0.6317  0.1470 -0.0216
 2654SOL     OW19686   0.356   5.981   0.224 -0.2644 -0.5571 -0.4195
 2654SOL    HW119687   0.394   6.068   0.223 -1.0396 -0.0070  3.6775
 2654SOL    HW219688   0.421   5.926   0.268 -0.3309 -1.8133 -1.7930
 2655SOL     OW19689  11.669   2.338  11.977  0.3287  0.5430  0.3041
 2655SOL    HW119690  11.642   2.390  11.902 -0.1597 -0.7864 -0.4667
 2655SOL    HW219691  11.626   2.380  12.052  1.1545  2.1264 -0.0606
 2656SOL     OW19692   6.401  13.094  11.758 -0.5456  0.7793 -0.3546
 2656SOL    HW119693   6.475  13.043  11.789 -0.6190  0.6323 -0.4249
 2656SOL    HW219694   6.326  13.061  11.809 -0.8435 -0.1023 -1.3332
 2657SOL     OW19695   6.080   8.486   8.898 -0.2401  0.7832 -0.1375
 2657SOL    HW119696   6.014   8.421   8.922  0.9499 -0.2838  0.4352
 2657SOL    HW219697   6.129   8.445   8.826  0.2506  1.2253 -0.0623
 2658SOL     OW19698   6.729   4.175   2.230 -0.7145  0.0228 -0.6338
 2658SOL    HW119699   6.748   4.085   2.204 -0.7570  0.2244 -1.3941
 2658SOL    HW219700   6.809   4.206   2.272 -0.8541 -0.5119  0.0230
 2659SOL     OW19701   3.053  10.941   1.973  0.3345  0.0493 -0.6087
 2659SOL    HW119702   3.010  10.966   1.891 -0.5199 -0.3441 -0.2889
 2659SOL    HW219703   3.046  10.846   1.976 -0.2198  0.1088  0.2310
 2660SOL     OW19704  13.084   6.658   4.961  0.0367 -0.1835  0.6055
 2660SOL    HW119705  13.085   6.631   5.052  1.0496  1.1257  1.0107
 2660SOL    HW219706  13.108   6.579   4.912  2.5646 -0.2025  1.7264
 2661SOL     OW19707   8.381   5.188   0.308 -0.0996 -0.1410 -0.3617
 2661SOL    HW119708   8.325   5.142   0.245 -1.0981 -0.5035  0.7507
 2661SOL    HW219709   8.379   5.132   0.386 -0.9417  1.5192  0.8585
 2662SOL     OW19710   1.135   1.596  12.040  0.1381  0.6067  0.0392
 2662SOL    HW119711   1.076   1.583  12.115  2.5454  0.9176  2.1230
 2662SOL    HW219712   1.123   1.518  11.986  0.6551 -1.3090  2.5040
 2663SOL     OW19713  12.508   3.795   7.155 -0.1001 -0.7397 -0.1592
 2663SOL    HW119714  12.532   3.882   7.188  1.0427 -1.0322 -0.1687
 2663SOL    HW219715  12.505   3.740   7.233 -0.9954 -0.6627 -0.1335
 2664SOL     OW19716   6.316   3.142  10.865 -0.4996 -0.1895 -0.1197
 2664SOL    HW119717   6.320   3.065  10.922 -0.0168  1.0904  1.6530
 2664SOL    HW219718   6.388   3.130  10.804 -1.2121 -1.7398 -0.7032
 2665SOL     OW19719   0.907   9.530  11.484 -0.6776  0.3558 -0.0936
 2665SOL    HW119720   0.872   9.442  11.475 -0.3394  0.3869 -2.2083
 2665SOL    HW219721   0.868   9.564  11.565 -2.2868 -1.0491 -0.2383
 2666SOL     OW19722   8.968   4.249   8.687  0.4707  0.1542  0.3680
 2666SOL    HW119723   8.928   4.335   8.671 -0.0317 -0.2355 -0.4913
 2666SOL    HW219724   8.969   4.206   8.602  2.4300  0.0118  0.4360
 2667SOL     OW19725  11.341   8.218   4.322  0.3507  0.1029  0.2724
 2667SOL    HW119726  11.246   8.225   4.308  0.5857  1.3083 -0.8395
 2667SOL    HW219727  11.353   8.129   4.356 -1.0306 -0.5352 -0.8003
 2668SOL     OW19728   5.497   1.921   5.943  0.4267 -0.1744  0.1225
 2668SOL    HW119729   5.571   1.912   6.003 -0.1725  1.5666  1.2101
 2668SOL    HW219730   5.421   1.932   6.000 -0.1182  1.8928 -0.9056
 2669SOL     OW19731  13.150   8.695   0.659  0.6995  0.4086 -0.1285
 2669SOL    HW119732  13.075   8.638   0.675  0.9281 -0.0100 -0.5125
 2669SOL    HW219733  13.128   8.777   0.703 -0.1467  0.4237 -0.5632
 2670SOL     OW19734   6.385  11.625  11.975 -0.3640  0.3992  0.4867
 2670SOL    HW119735   6.331  11.682  12.031 -0.1029  1.4734 -0.3106
 2670SOL    HW219736   6.463  11.678  11.957  0.0387 -0.3557 -0.0072
 2671SOL     OW19737   5.972   3.604  12.084 -0.2055  0.5755 -0.3799
 2671SOL    HW119738   5.880   3.613  12.108 -0.5879  1.8793 -2.1335
 2671SOL    HW219739   5.973   3.538  12.015  0.1966  0.5073 -0.3137
 2672SOL     OW19740   2.060  12.724   4.280  0.3514  0.2639  0.1726
 2672SOL    HW119741   2.028  12.654   4.222  0.2907 -1.3040  1.9867
 2672SOL    HW219742   2.112  12.781   4.223  2.3380 -2.5169 -1.0261
 2673SOL     OW19743  12.581   8.672   9.294  0.0039 -0.2621  0.0177
 2673SOL    HW119744  12.540   8.753   9.262  0.8650 -0.4548 -1.6403
 2673SOL    HW219745  12.674   8.684   9.277  0.0120 -2.1406 -1.5190
 2674SOL     OW19746   2.604   1.064   3.507  0.0445  0.3920 -0.8377
 2674SOL    HW119747   2.535   1.130   3.512 -1.2854 -0.9849 -0.1914
 2674SOL    HW219748   2.566   0.992   3.457  1.0531 -0.3436 -0.5921
 2675SOL     OW19749  11.338   0.328  12.210  0.0480 -0.1773 -0.1531
 2675SOL    HW119750  11.257   0.290  12.177  1.2382  0.5334 -4.6045
 2675SOL    HW219751  11.311   0.383  12.283 -3.2420 -1.1429 -0.4821
 2676SOL     OW19752   9.119   9.938   0.755 -0.3584  0.1644 -0.1232
 2676SOL    HW119753   9.055   9.870   0.731 -0.9013  1.0166 -1.1766
 2676SOL    HW219754   9.096  10.013   0.700  0.7466  0.9323  0.4280
 2677SOL     OW19755  10.198   1.036   4.762 -0.5925  0.0991 -0.1552
 2677SOL    HW119756  10.213   1.080   4.845 -1.7051 -2.3393  1.4398
 2677SOL    HW219757  10.128   0.973   4.780 -0.4323 -0.9733 -2.7768
 2678SOL     OW19758   5.720   6.862   3.549 -0.4824 -0.0693 -0.2787
 2678SOL    HW119759   5.651   6.799   3.571 -1.4804  1.2875  0.6699
 2678SOL    HW219760   5.750   6.895   3.634  0.6467  0.0871 -0.7256
 2679SOL     OW19761  12.151   0.465   0.721  0.0307  0.3969 -0.2802
 2679SOL    HW119762  12.173   0.490   0.631 -2.2788  0.0254 -1.0299
 2679SOL    HW219763  12.100   0.539   0.754 -2.4236 -1.0151 -0.6898
 2680SOL     OW19764   0.205   3.781   2.801 -0.1890  0.5153 -0.3554
 2680SOL    HW119765   0.213   3.875   2.820 -3.1115  0.4058  2.1613
 2680SOL    HW219766   0.206   3.739   2.887  0.8137 -1.7705 -1.4210
 2681SOL     OW19767   4.505   7.116  12.620  0.2786 -0.2528 -0.0818
 2681SOL    HW119768   4.442   7.058  12.577 -0.0470 -0.0846  0.1575
 2681SOL    HW219769   4.453   7.163  12.686  0.2348  1.2836 -1.1488
 2682SOL     OW19770  11.398   2.291   1.813  0.3137 -0.2376  0.3623
 2682SOL    HW119771  11.452   2.369   1.799 -0.9178  0.1015 -3.7527
 2682SOL    HW219772  11.309   2.321   1.799 -0.4602 -1.9304  1.3556
 2683SOL     OW19773  11.953   6.139   7.279 -0.6532  0.2883  0.6932
 2683SOL    HW119774  11.995   6.069   7.329 -0.8040 -1.7213 -1.8029
 2683SOL    HW219775  11.925   6.097   7.198 -0.3570  3.3680 -1.1475
 2684SOL     OW19776   0.984   5.865   5.455  0.1166 -0.0595 -0.1783
 2684SOL    HW119777   0.890   5.846   5.459 -0.1954  0.6876 -2.6188
 2684SOL    HW219778   1.023   5.785   5.419  0.5119 -0.5169  1.2046
 2685SOL     OW19779   0.132   5.399  12.028 -0.1151 -0.2816  0.2052
 2685SOL    HW119780   0.206   5.450  11.996  0.7033  1.2305  3.9667
 2685SOL    HW219781   0.166   5.353  12.105 -2.2019 -2.5517 -0.0956
 2686SOL     OW19782   8.066  10.948  11.468 -0.0121  0.3802 -0.0244
 2686SOL    HW119783   8.145  11.000  11.480 -1.1024  2.0930  0.0702
 2686SOL    HW219784   8.020  10.955  11.552 -0.3477 -0.4703 -0.1304
 2687SOL     OW19785  11.393   5.390   2.653  0.3076 -0.2967 -0.5878
 2687SOL    HW119786  11.469   5.347   2.614 -0.7585 -2.7918 -0.1084
 2687SOL    HW219787  11.349   5.321   2.703 -1.6361  1.3469  0.1187
 2688SOL     OW19788   6.437   5.184   2.947 -0.3507  0.4850 -0.3632
 2688SOL    HW119789   6.524   5.207   2.980 -0.2295  1.1850 -1.1549
 2688SOL    HW219790   6.451   5.102   2.900 -0.9796 -2.0514  3.4051
 2689SOL     OW19791   7.450   6.128  11.233 -0.3323  0.3024  0.0797
 2689SOL    HW119792   7.545   6.135  11.240 -0.4598  2.0279  0.3192
 2689SOL    HW219793   7.433   6.034  11.243  1.1200  0.2350  2.6736
 2690SOL     OW19794   1.272   4.270  12.068 -0.0129  0.0824 -0.5007
 2690SOL    HW119795   1.256   4.359  12.039 -1.4770  0.0725  0.1780
 2690SOL    HW219796   1.365   4.256  12.055  0.0804  1.4302 -1.3705
 2691SOL     OW19797   1.095   3.291   4.582 -0.3421 -0.2727  0.3137
 2691SOL    HW119798   1.077   3.309   4.674 -1.2882  1.0053 -0.1010
 2691SOL    HW219799   1.179   3.243   4.583  1.1617  2.1824  1.6479
 2692SOL     OW19800   9.681   8.297   7.185 -0.1180  0.2978 -0.9127
 2692SOL    HW119801   9.612   8.238   7.215 -1.2754  0.1800 -3.4818
 2692SOL    HW219802   9.755   8.280   7.243 -2.1510  0.3323  1.9108
 2693SOL     OW19803   8.907   9.482   4.246  0.3009  0.1034  0.1552
 2693SOL    HW119804   8.923   9.478   4.340  0.2905 -1.1546  0.1236
 2693SOL    HW219805   8.992   9.461   4.207  0.1802  0.0988 -0.1045
 2694SOL     OW19806  12.601   9.418  11.857 -0.6356 -0.3977 -0.1419
 2694SOL    HW119807  12.623   9.355  11.925  1.1152 -0.2568 -0.5362
 2694SOL    HW219808  12.680   9.425  11.804 -0.9870  1.6627 -0.4749
 2695SOL     OW19809   8.683   9.855   7.282  0.0855  0.3058 -0.2766
 2695SOL    HW119810   8.722   9.828   7.364 -0.0178  0.5481 -0.1457
 2695SOL    HW219811   8.698   9.950   7.278  2.7042 -0.0620 -1.9121
 2696SOL     OW19812  12.777   2.289   1.707 -0.0776 -0.7502  0.7649
 2696SOL    HW119813  12.843   2.336   1.656  0.2695 -1.1914  0.7989
 2696SOL    HW219814  12.752   2.351   1.777 -1.5910  0.4047 -0.7212
 2697SOL     OW19815   6.821   9.108   6.033  0.5554  0.0491  0.5712
 2697SOL    HW119816   6.878   9.034   6.056  0.1285 -0.7866 -0.9279
 2697SOL    HW219817   6.804   9.152   6.117  1.5973 -0.9796  1.3605
 2698SOL     OW19818  10.320   2.077  12.375  0.6097 -0.5300 -0.2247
 2698SOL    HW119819  10.283   2.033  12.452  0.4045  0.6437  0.3703
 2698SOL    HW219820  10.303   2.170  12.390 -0.7800 -0.3644 -2.3956
 2699SOL     OW19821  12.676   8.291   5.798 -0.0487 -0.1167  0.3512
 2699SOL    HW119822  12.714   8.271   5.712  0.7800  0.8555  0.4755
 2699SOL    HW219823  12.581   8.294   5.782  0.1232  0.5182 -0.6443
 2700SOL     OW19824  13.071   5.900   1.237  0.5289  0.1645  0.1562
 2700SOL    HW119825  13.059   5.957   1.160 -0.3351  0.3581  0.4230
 2700SOL    HW219826  13.007   5.932   1.300 -0.2492 -1.3520  0.1796
 2701SOL     OW19827  10.382  10.739   2.681 -0.3809 -0.0009 -0.5611
 2701SOL    HW119828  10.410  10.665   2.735  3.1839  1.6947  0.1839
 2701SOL    HW219829  10.380  10.814   2.741  0.1595  1.2604 -2.0569
 2702SOL     OW19830   8.713   7.772   6.461  0.4960  0.7903 -0.4753
 2702SOL    HW119831   8.627   7.786   6.502  1.0070  1.0676  0.5239
 2702SOL    HW219832   8.713   7.832   6.386 -0.1785  0.7979 -0.4789
 2703SOL     OW19833   8.795   4.938   6.958 -0.0617 -0.2181  0.1314
 2703SOL    HW119834   8.849   5.012   6.988  1.5002 -1.5356  0.7534
 2703SOL    HW219835   8.762   4.966   6.873 -0.8687  1.8205  1.0378
 2704SOL     OW19836  12.280  12.534   7.684 -0.1362  0.1309  0.0332
 2704SOL    HW119837  12.367  12.537   7.723  0.4738  0.6907 -1.3301
 2704SOL    HW219838  12.284  12.593   7.609 -1.3136 -0.7742 -0.8012
 2705SOL     OW19839   8.805   2.583   5.263 -0.6424  0.1514 -0.6441
 2705SOL    HW119840   8.891   2.620   5.242  0.4386 -0.8902  1.6110
 2705SOL    HW219841   8.743   2.639   5.218  1.2121  0.8736 -2.4479
 2706SOL     OW19842   7.421  10.344   4.559  0.2649 -0.1368 -0.3725
 2706SOL    HW119843   7.441  10.267   4.505 -0.2507 -0.8402  0.4280
 2706SOL    HW219844   7.502  10.362   4.606  0.6703  0.3833 -1.2244
 2707SOL     OW19845   1.633   8.224  10.298 -0.2379 -0.8142 -0.3841
 2707SOL    HW119846   1.616   8.186  10.384 -0.9366 -1.7859 -0.9324
 2707SOL    HW219847   1.723   8.199  10.278 -0.6968 -2.2706 -0.7525
 2708SOL     OW19848   6.772   0.816   9.194 -0.2532 -0.0175  0.0568
 2708SOL    HW119849   6.757   0.722   9.208  1.0966 -0.1144  1.0425
 2708SOL    HW219850   6.850   0.835   9.245 -0.1426  1.5257 -0.6522
 2709SOL     OW19851   2.895  10.020  10.263  0.8416 -0.0627 -0.0413
 2709SOL    HW119852   2.846  10.086  10.215  0.5178  0.0436  0.4373
 2709SOL    HW219853   2.939  10.068  10.333 -1.4876 -0.6892  1.9637
 2710SOL     OW19854   8.420   2.583   9.968  0.0238 -0.4379 -0.2999
 2710SOL    HW119855   8.367   2.662   9.970  1.2831  0.4469 -0.7079
 2710SOL    HW219856   8.377   2.523  10.029 -0.4925  0.8450  0.6299
 2711SOL     OW19857   1.341  10.142  11.274 -0.1326 -0.0458 -0.0608
 2711SOL    HW119858   1.279  10.078  11.310 -0.7234  1.5849  2.0337
 2711SOL    HW219859   1.303  10.227  11.297  1.0946  1.0901 -1.9436
 2712SOL     OW19860  11.838   8.838   4.894 -0.7821 -0.2558  0.6731
 2712SOL    HW119861  11.893   8.856   4.817 -2.0129 -0.1178 -0.1980
 2712SOL    HW219862  11.901   8.831   4.966  0.3411  0.4180 -0.1913
 2713SOL     OW19863   0.635  12.185   1.493  0.3723  0.0191 -0.0612
 2713SOL    HW119864   0.571  12.222   1.554  0.7421  0.6668 -0.0574
 2713SOL    HW219865   0.596  12.199   1.406 -0.3191 -1.2223  0.0225
 2714SOL     OW19866   3.994  13.526   6.661 -0.5885  0.1636  0.0348
 2714SOL    HW119867   3.927  13.588   6.632 -0.8292  0.4813  1.2364
 2714SOL    HW219868   3.947  13.463   6.715 -0.0137  0.0614  0.4265
 2715SOL     OW19869  12.900   7.487  11.383  0.6743  0.2088 -0.1556
 2715SOL    HW119870  12.865   7.538  11.456 -1.3743  1.7443 -2.0731
 2715SOL    HW219871  12.867   7.398  11.399 -0.0781  0.6007  0.5862
 2716SOL     OW19872   2.565   0.939   1.970 -0.1605 -0.2141  0.0829
 2716SOL    HW119873   2.590   0.865   2.027  1.2241  1.1784  1.3783
 2716SOL    HW219874   2.617   0.926   1.891  1.1635  0.0978  0.8730
 2717SOL     OW19875   7.891   2.893   0.981  0.8243 -0.5343 -0.5390
 2717SOL    HW119876   7.957   2.931   0.922  0.3800 -0.0472 -0.7336
 2717SOL    HW219877   7.921   2.803   0.995  1.4147 -0.3863 -0.7974
 2718SOL     OW19878  11.063   8.740   6.749 -0.3344  0.3441 -0.6610
 2718SOL    HW119879  11.132   8.714   6.811 -2.1751  0.4219  1.5679
 2718SOL    HW219880  11.092   8.705   6.665  1.7925 -0.6973  0.4142
 2719SOL     OW19881   2.159   1.951   0.892 -0.0091  0.8515  0.0146
 2719SOL    HW119882   2.138   2.045   0.893  1.4305  1.2282 -0.8528
 2719SOL    HW219883   2.112   1.917   0.816  0.0043  1.0283 -0.0753
 2720SOL     OW19884   1.539   6.663  13.205 -0.0975  0.1759 -0.6996
 2720SOL    HW119885   1.485   6.644  13.128 -1.0167  0.4114 -0.1290
 2720SOL    HW219886   1.574   6.578  13.231  0.7524  0.1782 -1.7434
 2721SOL     OW19887   2.942   5.036   4.499 -0.9926 -0.0731 -0.2430
 2721SOL    HW119888   2.923   5.124   4.466 -2.1328  0.4114  1.5579
 2721SOL    HW219889   3.036   5.036   4.516 -0.7639  0.3622 -1.3952
 2722SOL     OW19890   0.931   3.874  12.886 -0.5458 -0.0226  0.2636
 2722SOL    HW119891   1.000   3.816  12.919  0.8063  1.3054 -0.0848
 2722SOL    HW219892   0.979   3.945  12.843 -2.1132  1.4413  0.8320
 2723SOL     OW19893   5.533   8.937   3.183 -0.1607  0.2879 -0.6876
 2723SOL    HW119894   5.443   8.968   3.173 -0.3480 -0.4059 -1.1840
 2723SOL    HW219895   5.527   8.842   3.176  0.3281  0.0547  1.5039
 2724SOL     OW19896   3.573   0.002  10.642 -0.2829 -0.0564  0.0671
 2724SOL    HW119897   3.667  -0.018  10.640 -0.0512  0.6439  1.9030
 2724SOL    HW219898   3.559   0.056  10.564  0.2204 -2.4315 -1.7722
 2725SOL     OW19899   1.625   3.517  13.535  0.0340  0.4329  0.0650
 2725SOL    HW119900   1.719   3.508  13.522 -0.0451  0.5258 -0.6392
 2725SOL    HW219901   1.601   3.441  13.589  0.2410 -0.5898 -1.2221
 2726SOL     OW19902   0.237  10.838   8.755 -0.8246  0.1278  0.0568
 2726SOL    HW119903   0.288  10.762   8.725 -1.1567  0.0957 -0.4349
 2726SOL    HW219904   0.169  10.849   8.689 -0.8380  0.8016  0.1805
 2727SOL     OW19905   3.521   7.991   9.099 -0.5046 -0.2365  0.1672
 2727SOL    HW119906   3.484   7.932   9.032  1.0346 -1.6748  0.5129
 2727SOL    HW219907   3.561   8.062   9.049 -0.2384 -0.7775 -0.4092
 2728SOL     OW19908   6.970  10.297   4.078 -0.3485  0.2822  0.0599
 2728SOL    HW119909   6.914  10.299   4.156 -0.3688  0.1869  0.0475
 2728SOL    HW219910   6.920  10.246   4.015 -0.1862  0.0806  0.0948
 2729SOL     OW19911   8.481   4.504   2.060 -0.4248  0.5642 -0.4217
 2729SOL    HW119912   8.525   4.590   2.058  0.8522 -0.0653 -0.5699
 2729SOL    HW219913   8.507   4.462   1.978 -2.8450  0.8525 -1.4288
 2730SOL     OW19914   0.482   2.637   0.166  0.5991 -0.5064 -0.1408
 2730SOL    HW119915   0.570   2.606   0.186  0.0628 -2.2292 -0.3293
 2730SOL    HW219916   0.440   2.564   0.121 -0.9149  0.3140 -0.1291
 2731SOL     OW19917  13.364   4.646   6.781  0.0982  0.1020 -0.1918
 2731SOL    HW119918  13.353   4.735   6.813 -0.0793  0.0166 -0.0117
 2731SOL    HW219919  13.314   4.592   6.843 -0.4071 -0.0413 -0.7164
 2732SOL     OW19920   7.658   0.958   8.257  0.0078 -0.7753  0.5562
 2732SOL    HW119921   7.731   1.016   8.233 -1.0282  1.6361  2.7523
 2732SOL    HW219922   7.667   0.883   8.199  2.0554  1.1155 -1.7955
 2733SOL     OW19923   0.645  12.480   5.772  0.6969 -0.4059  0.0011
 2733SOL    HW119924   0.713  12.543   5.746 -0.6105  0.5059 -1.3674
 2733SOL    HW219925   0.638  12.491   5.867  0.6334  1.4315 -0.1733
 2734SOL     OW19926   1.950  12.431   3.917  0.1715 -0.2032 -0.0756
 2734SOL    HW119927   1.879  12.401   3.861 -0.1710  0.4582 -0.0089
 2734SOL    HW219928   1.990  12.504   3.869  0.9470 -0.7104 -0.2103
 2735SOL     OW19929   3.468   1.611  12.118  0.3562  0.2702  0.2261
 2735SOL    HW119930   3.395   1.650  12.071 -0.6928 -1.5615  0.2281
 2735SOL    HW219931   3.525   1.576  12.049 -0.1116 -0.5568  0.2382
 2736SOL     OW19932   1.962  11.126   8.153 -0.4895 -0.1486 -0.5454
 2736SOL    HW119933   1.965  11.191   8.083 -1.7984 -0.4735 -0.9342
 2736SOL    HW219934   1.995  11.172   8.230  0.6660  0.3121 -1.2933
 2737SOL     OW19935  12.089  12.856  12.160 -0.5176  0.3598 -0.3116
 2737SOL    HW119936  11.999  12.825  12.155 -0.0033 -1.4467  0.5855
 2737SOL    HW219937  12.111  12.880  12.070 -2.0480  1.3599 -0.4467
 2738SOL     OW19938   4.439   8.992   8.478 -0.1442 -0.0183  0.2612
 2738SOL    HW119939   4.461   8.997   8.385 -0.2392  0.0688  0.2425
 2738SOL    HW219940   4.477   8.910   8.507  0.1707  0.1134  0.2223
 2739SOL     OW19941   9.924   7.709   5.935  0.4974  0.0291 -0.3783
 2739SOL    HW119942   9.943   7.802   5.923  2.2822 -0.2470 -0.0046
 2739SOL    HW219943   9.830   7.706   5.949  0.6283  2.0164  1.5256
 2740SOL     OW19944   7.479  11.662   4.022 -0.0653 -0.1063  0.1129
 2740SOL    HW119945   7.566  11.637   3.991  0.6214  2.4130 -0.2514
 2740SOL    HW219946   7.418  11.617   3.964  1.1151  2.0982 -3.1265
 2741SOL     OW19947   7.788   4.839   3.910  0.3572 -0.3157 -0.1682
 2741SOL    HW119948   7.799   4.808   4.000  0.4122 -3.4710 -1.1358
 2741SOL    HW219949   7.822   4.929   3.911  1.6851 -0.7431  2.6421
 2742SOL     OW19950  11.523   8.398   6.314 -0.3049 -0.2511  0.2955
 2742SOL    HW119951  11.597   8.417   6.256 -0.7448 -0.5969 -0.3858
 2742SOL    HW219952  11.562   8.354   6.389  0.5307  1.7849  1.1469
 2743SOL     OW19953   3.856   8.615   7.703 -0.4647 -0.9764 -0.1672
 2743SOL    HW119954   3.866   8.596   7.610  2.1138 -0.7194 -0.0025
 2743SOL    HW219955   3.920   8.684   7.720 -0.7440 -1.1650  1.8386
 2744SOL     OW19956   5.009   6.494  13.458 -0.0790  0.4640  0.5554
 2744SOL    HW119957   5.022   6.535  13.544  2.0961  2.1360 -0.4647
 2744SOL    HW219958   5.028   6.402  13.472  0.7773  0.8002  1.7646
 2745SOL     OW19959   1.645   3.495   1.473 -0.7344  0.6140 -0.0375
 2745SOL    HW119960   1.611   3.559   1.412  0.6522  0.8174 -0.6418
 2745SOL    HW219961   1.698   3.546   1.535 -0.4429  0.1787  0.0813
 2746SOL     OW19962  13.259   3.837   2.450 -0.0332 -0.0256 -0.2026
 2746SOL    HW119963  13.327   3.770   2.445  0.1444  0.1682 -0.4837
 2746SOL    HW219964  13.303   3.917   2.419 -0.2041  0.2461  0.2479
 2747SOL     OW19965   1.370   5.263  10.741  0.4601  0.4094  0.0706
 2747SOL    HW119966   1.382   5.355  10.720 -1.2929  0.7856  0.5201
 2747SOL    HW219967   1.318   5.263  10.822  3.3444 -0.9761  2.1151
 2748SOL     OW19968   6.477  13.501   0.732  0.3381  0.2369 -0.1581
 2748SOL    HW119969   6.436  13.562   0.671 -0.0576  0.4804  0.3448
 2748SOL    HW219970   6.514  13.557   0.800  2.5052  0.1171 -1.1479
 2749SOL     OW19971   3.526   2.935  12.950 -0.0756  0.7087  0.1703
 2749SOL    HW119972   3.549   2.931  12.857 -0.6409  3.2334 -0.1346
 2749SOL    HW219973   3.571   2.860  12.989 -0.1725 -0.6737 -2.1830
 2750SOL     OW19974   1.903   8.873  13.279  0.0961 -0.8240 -0.4870
 2750SOL    HW119975   1.871   8.788  13.312 -1.9537 -0.0617 -0.3240
 2750SOL    HW219976   1.833   8.903  13.220 -0.2955  1.7137  1.1305
 2751SOL     OW19977   2.342   8.789  11.166 -0.5242  0.3529  0.5945
 2751SOL    HW119978   2.403   8.862  11.155 -0.3374  0.0792 -0.2169
 2751SOL    HW219979   2.335   8.778  11.261 -0.6880  1.5389  0.7428
 2752SOL     OW19980   3.501  12.464   3.408  0.2077  0.0284 -1.1209
 2752SOL    HW119981   3.555  12.468   3.329 -0.5141  1.7036 -1.5751
 2752SOL    HW219982   3.413  12.486   3.378  0.2809  2.8115  0.4342
 2753SOL     OW19983   4.682   1.718   4.413 -0.0916  0.3396  0.7628
 2753SOL    HW119984   4.726   1.663   4.348  0.7085 -0.0678  1.6363
 2753SOL    HW219985   4.614   1.662   4.450 -1.7836  1.1293 -0.9602
 2754SOL     OW19986   5.471   8.002  11.974 -0.1616  0.0449 -0.3824
 2754SOL    HW119987   5.425   8.084  11.956 -0.8846 -0.2061  0.2294
 2754SOL    HW219988   5.491   7.965  11.888 -0.7919  0.3420 -0.6617
 2755SOL     OW19989  12.177   7.896  13.143 -0.3305 -0.6799 -0.3446
 2755SOL    HW119990  12.256   7.914  13.195  0.2616 -1.0634 -1.1023
 2755SOL    HW219991  12.169   7.971  13.085  0.2270 -1.2529 -1.1741
 2756SOL     OW19992  13.074   4.494  11.179  0.7811  0.4908 -0.0951
 2756SOL    HW119993  13.003   4.444  11.138  0.2253 -0.2600  1.6656
 2756SOL    HW219994  13.147   4.432  11.183  0.4609  0.1486  1.0303
 2757SOL     OW19995  12.561   3.670   9.265  0.2085 -0.8943  0.0986
 2757SOL    HW119996  12.482   3.712   9.231  0.2453 -0.5908  0.3841
 2757SOL    HW219997  12.571   3.591   9.211  0.3170 -0.3810 -0.6539
 2758SOL     OW19998   8.620   7.114  13.355 -0.2889 -0.5957 -0.6895
 2758SOL    HW119999   8.548   7.083  13.299 -0.4397 -2.5498  0.4613
 2758SOL    HW220000   8.586   7.103  13.444  1.1780 -0.8971 -0.1443
 2759SOL     OW20001   5.040  13.582   5.916 -0.1640 -0.1396  0.4447
 2759SOL    HW120002   5.030  13.505   5.972  0.7247 -0.8362 -0.3280
 2759SOL    HW220003   5.105  13.636   5.962  0.8097 -0.8624 -0.0384
 2760SOL     OW20004   9.532   7.954   6.977  0.2095 -0.2206  0.2225
 2760SOL    HW120005   9.437   7.958   6.973 -0.0965 -0.7946  3.5843
 2760SOL    HW220006   9.551   7.912   7.061  3.4445 -0.5055 -0.4962
 2761SOL     OW20007  11.344  11.662   2.323 -0.1835 -0.1137 -0.3495
 2761SOL    HW120008  11.427  11.615   2.331  0.0866  0.2114 -1.0987
 2761SOL    HW220009  11.283  11.615   2.380  0.6363 -0.0744  0.5622
 2762SOL     OW20010   3.134  12.290   6.702 -0.1787  0.2464 -0.1859
 2762SOL    HW120011   3.196  12.362   6.689  0.6128 -0.2924  0.5042
 2762SOL    HW220012   3.166  12.220   6.645  0.7323 -0.5552  1.2605
 2763SOL     OW20013   0.005  11.668   8.663  0.3743  0.1033  0.0243
 2763SOL    HW120014  -0.022  11.704   8.748  0.0322 -0.0797 -0.0036
 2763SOL    HW220015  -0.014  11.737   8.600  1.4732  0.5906  0.2038
 2764SOL     OW20016  11.775   8.345   0.961  0.1753 -0.2159  0.3483
 2764SOL    HW120017  11.772   8.250   0.958  1.1113 -0.2742  0.7266
 2764SOL    HW220018  11.776   8.366   1.054 -2.8196  0.3205  0.3487
 2765SOL     OW20019   5.734  13.400   5.576  0.1786  0.7348  0.7769
 2765SOL    HW120020   5.751  13.464   5.507 -0.5963 -0.1792 -0.2987
 2765SOL    HW220021   5.676  13.445   5.637 -0.8308  0.8881 -0.2680
 2766SOL     OW20022  11.956  10.979  10.570 -0.2749 -0.4735  0.2967
 2766SOL    HW120023  12.047  10.994  10.546 -0.8886  0.2931 -1.7367
 2766SOL    HW220024  11.945  10.884  10.565 -0.0304 -0.4350 -1.2675
 2767SOL     OW20025   2.392  13.225   1.071  0.3985  0.8679 -0.0747
 2767SOL    HW120026   2.444  13.153   1.034 -2.3234 -0.2239 -2.1858
 2767SOL    HW220027   2.388  13.206   1.165  1.0718 -0.8709 -0.3502
 2768SOL     OW20028  12.327   6.766   3.944  0.2703 -0.6956  0.0169
 2768SOL    HW120029  12.362   6.804   3.863  0.5911  0.4028  0.6616
 2768SOL    HW220030  12.402   6.725   3.986  0.1585 -1.0237 -0.1018
 2769SOL     OW20031  13.181   0.873  13.445  0.2510 -0.4159 -0.3173
 2769SOL    HW120032  13.120   0.799  13.451  0.5634 -0.6861 -0.4729
 2769SOL    HW220033  13.170   0.919  13.528 -0.1293 -0.4923 -0.3233
 2770SOL     OW20034  13.024  11.864   8.077  0.1926 -0.3721 -0.3690
 2770SOL    HW120035  13.090  11.845   8.143  0.4580  0.0514 -0.5037
 2770SOL    HW220036  13.073  11.866   7.995  0.6042  2.8796 -0.1582
 2771SOL     OW20037   1.034   7.367   8.043  0.1878 -0.2773 -0.0513
 2771SOL    HW120038   0.996   7.346   8.128  1.3260 -2.4021 -0.0296
 2771SOL    HW220039   0.993   7.451   8.019 -0.1028  0.4029  2.5828
 2772SOL     OW20040  13.300  10.057   1.482 -0.3727  0.4488 -0.0711
 2772SOL    HW120041  13.240  10.029   1.552  1.9855  2.0518  2.8216
 2772SOL    HW220042  13.268  10.144   1.457 -1.1153 -0.0538 -0.9277
 2773SOL     OW20043   0.924   6.750  10.143  0.1532  0.2747  0.1828
 2773SOL    HW120044   1.009   6.731  10.104 -0.7404 -1.8526 -0.8864
 2773SOL    HW220045   0.877   6.798  10.075 -0.0027  0.1805  0.2246
 2774SOL     OW20046   7.629   2.514   8.784 -0.1724  0.3359 -0.7744
 2774SOL    HW120047   7.682   2.576   8.733 -0.0971 -0.0795 -1.2059
 2774SOL    HW220048   7.547   2.562   8.801 -0.3438  0.3576 -1.6066
 2775SOL     OW20049   4.506  10.144   1.315  0.2586 -0.4513 -0.7716
 2775SOL    HW120050   4.439  10.176   1.376 -0.0988 -2.7914  0.1685
 2775SOL    HW220051   4.578  10.206   1.324 -0.5483  0.3508  0.5702
 2776SOL     OW20052   2.893  11.036   6.661  0.6791  0.0794  0.0226
 2776SOL    HW120053   2.889  11.122   6.704  1.3779  0.5721 -0.8862
 2776SOL    HW220054   2.886  10.974   6.734 -0.9492  0.8721  0.6126
 2777SOL     OW20055  10.304   0.592  10.491  0.6964 -0.2380 -0.2046
 2777SOL    HW120056  10.272   0.505  10.470 -1.3960  0.8566 -1.9251
 2777SOL    HW220057  10.229   0.638  10.527  1.5895  1.0358  0.1182
 2778SOL     OW20058   5.674  10.749  12.530  0.6335 -0.1743  0.4388
 2778SOL    HW120059   5.764  10.738  12.561  0.8476 -1.8521 -0.5986
 2778SOL    HW220060   5.622  10.758  12.609  1.2431 -3.4551  1.3745
 2779SOL     OW20061  10.589   5.065   7.221 -0.4507  0.1477 -0.2246
 2779SOL    HW120062  10.649   5.130   7.259 -1.1064  0.6670 -0.0729
 2779SOL    HW220063  10.570   5.006   7.294  0.1352 -0.2121 -0.3586
 2780SOL     OW20064  13.736   2.483  13.544 -0.1719  0.1013  0.3252
 2780SOL    HW120065  13.677   2.517  13.477  1.0224  0.5477 -0.5474
 2780SOL    HW220066  13.725   2.541  13.619 -0.6234  0.3481  0.0657
 2781SOL     OW20067  13.705   5.755   5.785  0.2843  0.2294 -0.2540
 2781SOL    HW120068  13.753   5.683   5.826 -2.2491  0.0709  2.8793
 2781SOL    HW220069  13.748   5.834   5.818  0.1356  0.0908  0.2906
 2782SOL     OW20070   0.252   4.036   2.413 -0.0925 -0.0143  0.3858
 2782SOL    HW120071   0.234   4.106   2.475 -0.1721 -0.7008  1.1593
 2782SOL    HW220072   0.218   3.957   2.456  1.5131 -0.7931  0.3101
 2783SOL     OW20073   6.530  10.425  11.488  0.2386 -0.2452  0.8189
 2783SOL    HW120074   6.442  10.453  11.512  0.2962  1.0686 -0.3885
 2783SOL    HW220075   6.518  10.338  11.450 -0.4468 -0.3527  1.2667
 2784SOL     OW20076  13.438   0.736  10.539 -0.3423 -0.0817 -0.2690
 2784SOL    HW120077  13.484   0.681  10.602  1.9041 -0.1651 -1.8603
 2784SOL    HW220078  13.436   0.685  10.458 -0.3813  1.2193 -1.1186
 2785SOL     OW20079  10.521   0.904   4.539 -0.2148  0.1047 -0.0322
 2785SOL    HW120080  10.536   0.836   4.473  0.4649  0.9190 -0.7406
 2785SOL    HW220081  10.427   0.922   4.534 -0.2800 -0.3124 -0.3073
 2786SOL     OW20082   2.133   1.965   0.170 -0.0134 -0.1786 -0.0310
 2786SOL    HW120083   2.137   1.897   0.238 -0.5129  0.3718  0.5547
 2786SOL    HW220084   2.044   1.960   0.136  0.4138 -0.8864 -1.1222
 2787SOL     OW20085   3.259   3.493   7.714 -0.0524  0.7575 -0.6281
 2787SOL    HW120086   3.218   3.412   7.744 -0.8626 -0.6355 -4.8121
 2787SOL    HW220087   3.343   3.465   7.678 -0.7222  1.4878 -2.9518
 2788SOL     OW20088   8.890   4.104   6.427  0.7375 -0.4554 -0.1670
 2788SOL    HW120089   8.864   4.011   6.429 -1.1801 -0.0004 -1.2456
 2788SOL    HW220090   8.875   4.134   6.517 -2.0260 -0.4149 -0.5419
 2789SOL     OW20091   2.924  12.242  13.555 -0.3023  0.1158  0.2923
 2789SOL    HW120092   2.938  12.251  13.649  2.2599  0.6574 -0.0660
 2789SOL    HW220093   2.880  12.323  13.529 -1.5533 -0.2815  1.0604
 2790SOL     OW20094   7.669   4.051   6.898 -0.0022 -0.1875 -0.5100
 2790SOL    HW120095   7.627   4.133   6.871 -1.6738 -1.0819 -0.7619
 2790SOL    HW220096   7.748   4.046   6.844 -0.2019  0.9483 -0.9399
 2791SOL     OW20097   4.159   3.466  12.868 -0.7321  0.0177 -0.0893
 2791SOL    HW120098   4.115   3.420  12.939 -1.7065  0.3545 -0.4611
 2791SOL    HW220099   4.172   3.400  12.800 -0.8724 -0.0262 -0.0723
 2792SOL     OW20100   2.577  12.960  12.523  0.1136  0.1469  0.3991
 2792SOL    HW120101   2.528  12.917  12.453 -0.1902  2.3460 -0.8401
 2792SOL    HW220102   2.532  12.934  12.603 -0.8558 -0.7434 -0.4063
 2793SOL     OW20103   8.190  12.815   9.511 -0.5378  0.1443  0.8661
 2793SOL    HW120104   8.143  12.823   9.594 -0.6185  0.0955  0.8264
 2793SOL    HW220105   8.282  12.810   9.535 -0.3638  2.2552  0.8553
 2794SOL     OW20106   9.771   6.170   1.021  0.2058  0.2413 -0.3194
 2794SOL    HW120107   9.792   6.137   1.109  1.2294  0.9372 -0.2833
 2794SOL    HW220108   9.715   6.246   1.037 -0.3513 -0.1677 -0.3113
 2795SOL     OW20109   0.722   2.401   8.413 -0.5120  0.3710 -0.0717
 2795SOL    HW120110   0.661   2.341   8.370 -1.2918  0.9115  0.2483
 2795SOL    HW220111   0.763   2.348   8.481 -0.8530  0.0725 -0.0892
 2796SOL     OW20112   8.182   9.329   1.096 -0.9000 -0.1142  0.1835
 2796SOL    HW120113   8.266   9.297   1.063 -1.0121  0.5590 -0.7782
 2796SOL    HW220114   8.201   9.418   1.127 -0.8974 -0.5598  1.5557
 2797SOL     OW20115  10.855  13.152   2.657  0.1345 -0.1848  0.1269
 2797SOL    HW120116  10.808  13.229   2.689 -0.9553  0.2275 -2.2789
 2797SOL    HW220117  10.904  13.121   2.734 -1.6104  1.1972  1.9174
 2798SOL     OW20118  10.411   3.154   6.378 -0.4886  0.3606 -0.9883
 2798SOL    HW120119  10.506   3.142   6.384 -0.6426 -0.0099  2.5068
 2798SOL    HW220120  10.398   3.248   6.389 -0.5411  0.2737 -0.2316
 2799SOL     OW20121  13.687   3.312   2.398 -0.0925  0.5798 -0.6840
 2799SOL    HW120122  13.678   3.389   2.343  0.2896 -0.0900 -1.7122
 2799SOL    HW220123  13.661   3.239   2.342  0.2639 -0.1161  0.0294
 2800SOL     OW20124   3.002   1.487   7.807 -0.4575  0.2345  0.0807
 2800SOL    HW120125   2.953   1.535   7.875  0.6861  1.9879 -0.2611
 2800SOL    HW220126   2.959   1.512   7.725 -0.7386 -0.4669  0.0149
 2801SOL     OW20127   4.421   1.368   6.344  0.3673 -0.0615 -0.7115
 2801SOL    HW120128   4.487   1.424   6.304 -0.1934  1.0201 -0.1624
 2801SOL    HW220129   4.394   1.415   6.423  0.4986 -1.5145  0.2355
 2802SOL     OW20130   7.106  12.400   0.630 -0.0994 -0.6889  0.1434
 2802SOL    HW120131   7.113  12.320   0.683  1.3848 -0.2152  0.6905
 2802SOL    HW220132   7.176  12.457   0.662 -0.1918  0.2497 -1.2474
 2803SOL     OW20133   7.216   6.998  12.386  0.7269  0.5078 -0.0843
 2803SOL    HW120134   7.132   6.959  12.410  0.8807 -0.6467 -1.2861
 2803SOL    HW220135   7.265   7.004  12.469  0.2200 -0.7223  0.3238
 2804SOL     OW20136  13.107   9.070   2.848 -0.3497  0.1636  0.2459
 2804SOL    HW120137  13.048   9.083   2.922 -1.2677  1.3003 -0.6659
 2804SOL    HW220138  13.137   9.158   2.825  1.1811 -0.3238  0.2546
 2805SOL     OW20139   6.728   0.436   8.636 -0.1238  0.6148 -0.0527
 2805SOL    HW120140   6.676   0.482   8.570 -1.0934 -0.8186 -0.3299
 2805SOL    HW220141   6.664   0.386   8.686  0.9822 -1.3408 -0.5117
 2806SOL     OW20142   4.132   9.700   4.265  0.4839 -0.1049 -0.7468
 2806SOL    HW120143   4.092   9.616   4.286  0.5913  0.0838  0.2739
 2806SOL    HW220144   4.204   9.679   4.206 -0.0502 -0.6245 -1.2298
 2807SOL     OW20145   5.710  10.083   2.431  0.2103  0.1016 -0.5384
 2807SOL    HW120146   5.717  10.067   2.525  0.3741 -3.1442 -0.9926
 2807SOL    HW220147   5.620  10.062   2.408  0.3932  0.0126 -1.2240
 2808SOL     OW20148   3.870   2.986  12.058  0.1327  0.1797 -0.4193
 2808SOL    HW120149   3.828   3.066  12.089 -0.6706 -0.7312  1.0010
 2808SOL    HW220150   3.830   2.970  11.972 -1.8353 -0.1544  0.4887
 2809SOL     OW20151  11.048  11.114  13.571 -0.4637  0.0507 -0.5498
 2809SOL    HW120152  11.078  11.033  13.530 -1.0539 -0.5172  0.0991
 2809SOL    HW220153  11.062  11.182  13.505 -0.1219 -0.6085 -1.1653
 2810SOL     OW20154   6.089   1.267   7.756  0.0371 -0.3536 -0.1710
 2810SOL    HW120155   6.115   1.358   7.772 -1.1320 -0.3608  2.3179
 2810SOL    HW220156   6.156   1.214   7.801 -0.2368 -0.6479 -0.1047
 2811SOL     OW20157   4.631  13.734   0.289 -0.2559  0.5563  0.3419
 2811SOL    HW120158   4.539  13.739   0.315 -0.9522  1.4726 -2.0538
 2811SOL    HW220159   4.639  13.650   0.243  0.5313 -0.2444  1.8560
 2812SOL     OW20160  10.726   7.141  10.467 -0.4510 -0.3610  0.2822
 2812SOL    HW120161  10.771   7.127  10.384 -0.0113  0.5709  0.3456
 2812SOL    HW220162  10.787   7.196  10.518 -0.8922 -0.5777  1.0583
 2813SOL     OW20163   1.975  12.604   6.415 -0.7706  0.5230  0.1800
 2813SOL    HW120164   1.888  12.569   6.396 -0.8742  0.5870  0.5267
 2813SOL    HW220165   1.961  12.670   6.482 -0.1702 -1.3841  2.3348
 2814SOL     OW20166  11.849  13.301   7.340 -1.0471 -0.4273  0.5442
 2814SOL    HW120167  11.814  13.213   7.332 -1.6641 -0.1901  0.5798
 2814SOL    HW220168  11.781  13.350   7.387 -0.2502 -0.1994  1.5090
 2815SOL     OW20169   9.512   9.836  11.138 -0.0651  0.0759 -0.1257
 2815SOL    HW120170   9.576   9.784  11.187  0.5507  2.2754  1.5582
 2815SOL    HW220171   9.433   9.782  11.139  0.9701 -1.5224  0.1175
 2816SOL     OW20172   0.395  13.176   1.320  0.2145 -0.0025  0.0760
 2816SOL    HW120173   0.333  13.237   1.361  0.5219 -0.8111  1.8300
 2816SOL    HW220174   0.342  13.101   1.295  0.3865 -0.5214  1.2080
 2817SOL     OW20175   1.506   7.359   5.938  0.2322  0.0266 -0.1307
 2817SOL    HW120176   1.591   7.367   5.895 -0.6358  0.8821 -1.7895
 2817SOL    HW220177   1.474   7.273   5.911  0.8216 -0.6004  1.0613
 2818SOL     OW20178   4.528   7.432   6.866  0.3049 -0.5852 -0.4693
 2818SOL    HW120179   4.465   7.503   6.858  2.2879  1.5250  1.1603
 2818SOL    HW220180   4.580   7.436   6.786 -0.3284 -1.0073 -0.9081
 2819SOL     OW20181   9.424   0.276   0.673 -0.0667 -0.1864 -0.0614
 2819SOL    HW120182   9.392   0.190   0.698 -0.9785  0.3836  0.7717
 2819SOL    HW220183   9.462   0.312   0.753 -0.1804  0.4063 -0.2683
 2820SOL     OW20184   2.131   1.838   1.630  0.3883  0.1989  0.2887
 2820SOL    HW120185   2.083   1.877   1.557  2.9061  2.2676 -0.4294
 2820SOL    HW220186   2.075   1.768   1.661 -1.3723  0.0529 -2.8191
 2821SOL     OW20187   7.092   5.383  12.389 -0.3733  0.0019 -0.3291
 2821SOL    HW120188   7.031   5.380  12.315 -1.2360  0.7072  0.3335
 2821SOL    HW220189   7.174   5.414  12.352  0.0773 -2.3654 -1.5386
 2822SOL     OW20190   8.556   8.035  10.370  0.0166 -0.1359  0.3173
 2822SOL    HW120191   8.559   8.127  10.344  1.3441 -0.2782 -0.1273
 2822SOL    HW220192   8.464   8.018  10.389 -0.1093  1.5693  1.4661
 2823SOL     OW20193  12.264   6.203   7.956  0.5541 -0.1881  0.0812
 2823SOL    HW120194  12.351   6.236   7.975  0.4280  0.6467 -0.7206
 2823SOL    HW220195  12.206   6.278   7.970 -0.2116 -1.0219  1.7573
 2824SOL     OW20196   7.037  10.495   0.443 -0.1812 -0.5105 -0.0815
 2824SOL    HW120197   7.023  10.589   0.436 -0.0065 -0.2595  2.0837
 2824SOL    HW220198   6.949  10.457   0.448 -0.2559 -0.2697  0.6063
 2825SOL     OW20199   6.767   2.347   5.509  0.5326  0.0595 -0.6397
 2825SOL    HW120200   6.853   2.306   5.513  0.4330 -0.2629 -1.6202
 2825SOL    HW220201   6.706   2.279   5.540  0.7125  0.6222  1.0572
 2826SOL     OW20202  12.175   7.271   2.982  0.0277  0.2673 -0.1604
 2826SOL    HW120203  12.089   7.311   2.992  1.4584  4.1151 -1.4874
 2826SOL    HW220204  12.227   7.306   3.054  0.4143 -2.7661  1.2196
 2827SOL     OW20205   2.426   8.387   5.624 -0.0655 -0.0706  0.1229
 2827SOL    HW120206   2.452   8.468   5.668 -1.3823  0.6782 -0.4407
 2827SOL    HW220207   2.509   8.343   5.605  0.8165  1.9155 -1.0016
 2828SOL     OW20208   0.875   6.286   4.550 -0.2262  0.0087  0.0265
 2828SOL    HW120209   0.823   6.279   4.470 -1.0817  1.0421  0.4743
 2828SOL    HW220210   0.932   6.208   4.549 -1.8819 -1.2440 -0.3918
 2829SOL     OW20211   9.111  13.468  10.424  0.4227  0.7874 -0.3817
 2829SOL    HW120212   9.032  13.456  10.477 -0.5656  0.4043 -1.8847
 2829SOL    HW220213   9.081  13.518  10.348  1.4240 -0.1771 -1.4395
 2830SOL     OW20214   5.988  10.741  12.313  0.2345  0.6541 -0.3901
 2830SOL    HW120215   6.009  10.809  12.249 -1.1163  1.6312  0.1500
 2830SOL    HW220216   6.056  10.749  12.380  0.8505  0.5584 -0.9903
 2831SOL     OW20217   8.199   7.923  12.294  0.5312  0.0022 -0.1546
 2831SOL    HW120218   8.137   7.860  12.258 -1.0306  0.7925  1.0351
 2831SOL    HW220219   8.219   7.982  12.222  0.0721 -0.4055 -0.6222
 2832SOL     OW20220   9.807   6.274   4.582  0.5758 -0.3181 -0.4448
 2832SOL    HW120221   9.718   6.239   4.582  0.0057  1.0800 -1.0227
 2832SOL    HW220222   9.811   6.330   4.505  2.0421 -0.5522 -0.5564
 2833SOL     OW20223   1.750  12.978   4.848 -0.5321 -0.2030 -0.0376
 2833SOL    HW120224   1.707  12.991   4.764 -0.8903 -0.2337  0.1396
 2833SOL    HW220225   1.762  12.884   4.855 -0.3279 -0.1859 -0.1370
 2834SOL     OW20226  12.652   9.327   9.662 -0.0026 -0.7605  0.4798
 2834SOL    HW120227  12.588   9.337   9.591 -1.0348 -0.8863  1.3766
 2834SOL    HW220228  12.622   9.249   9.710  0.7311 -0.7182  1.0156
 2835SOL     OW20229   0.960   9.657   6.310 -0.5872 -0.3337  0.3175
 2835SOL    HW120230   1.027   9.605   6.267 -0.5822 -0.1664  0.1224
 2835SOL    HW220231   0.923   9.599   6.376 -0.0011 -0.3148  0.6719
 2836SOL     OW20232   4.195   7.490  13.032  0.1308  0.1919  0.6336
 2836SOL    HW120233   4.245   7.542  13.095 -1.0059  0.2674  1.4937
 2836SOL    HW220234   4.112   7.473  13.075  0.6775 -2.9739  0.6680
 2837SOL     OW20235  12.803   7.457   2.000  0.4834  0.1415 -0.6355
 2837SOL    HW120236  12.745   7.469   1.925 -1.8639 -1.6515  0.7472
 2837SOL    HW220237  12.848   7.374   1.983  1.6992  0.8784 -1.0944
 2838SOL     OW20238   5.025  12.575   1.874  0.1796  0.1761 -0.3537
 2838SOL    HW120239   5.040  12.534   1.789 -1.4880  0.5427 -0.8657
 2838SOL    HW220240   5.059  12.513   1.938  1.1403 -0.2599 -1.2710
 2839SOL     OW20241   1.557   5.913   2.627  0.2760  0.2264 -0.5001
 2839SOL    HW120242   1.620   5.860   2.578 -0.9219 -2.1412  0.3216
 2839SOL    HW220243   1.471   5.883   2.594 -0.4688  0.9935  0.6735
 2840SOL     OW20244   2.489  12.232   5.572  0.1274  0.0796 -0.2046
 2840SOL    HW120245   2.550  12.249   5.644 -0.7645  1.5145  0.2640
 2840SOL    HW220246   2.473  12.138   5.575 -0.2018  0.1620  1.7474
 2841SOL     OW20247   8.988   7.886   9.353 -0.0725  0.4779 -0.4358
 2841SOL    HW120248   9.032   7.950   9.298 -0.3719 -0.1280 -1.4087
 2841SOL    HW220249   8.994   7.922   9.442 -0.8533  2.1993 -1.0350
 2842SOL     OW20250   9.389   5.229   8.886 -0.0420  0.0511  0.2687
 2842SOL    HW120251   9.300   5.199   8.908 -0.7668 -0.4896 -2.8278
 2842SOL    HW220252   9.389   5.322   8.908 -1.6234  0.2035 -0.2297
 2843SOL     OW20253   0.104   8.145  13.593  0.4210  0.0544 -0.1878
 2843SOL    HW120254   0.045   8.216  13.619  1.0266 -0.1870  1.9928
 2843SOL    HW220255   0.045   8.070  13.577  0.0434  0.0215  1.2297
 2844SOL     OW20256  11.131   1.433  11.341 -0.3824  0.1908 -0.6544
 2844SOL    HW120257  11.046   1.448  11.382  0.6125  2.0119  0.9362
 2844SOL    HW220258  11.181   1.384  11.407  1.0005  2.5282  0.1637
 2845SOL     OW20259  12.429   7.535   5.689  0.8422  0.2621  0.1396
 2845SOL    HW120260  12.392   7.520   5.602  0.8590  0.3860  0.1104
 2845SOL    HW220261  12.377   7.479   5.747  0.6061  0.4341  0.0982
 2846SOL     OW20262   2.738   1.450  12.926  0.6852 -0.5194  0.3993
 2846SOL    HW120263   2.801   1.420  12.991  1.3498 -1.0623 -0.4837
 2846SOL    HW220264   2.782   1.520  12.878 -0.0870  0.4302  1.0243
 2847SOL     OW20265   1.109  11.499   9.846  0.4931  0.4569  0.2089
 2847SOL    HW120266   1.075  11.455   9.924  1.8176 -1.2685 -0.1251
 2847SOL    HW220267   1.161  11.572   9.880  0.5174  0.1209  0.9092
 2848SOL     OW20268  11.504   8.681   1.809 -0.1396  0.4089 -0.0134
 2848SOL    HW120269  11.548   8.732   1.741 -0.3966 -0.7843 -1.1145
 2848SOL    HW220270  11.564   8.684   1.884  1.2078 -0.0965 -1.0417
 2849SOL     OW20271   2.656  11.178   7.986  0.1725  0.0962 -0.4650
 2849SOL    HW120272   2.657  11.272   8.002 -0.1511  0.3570 -1.8476
 2849SOL    HW220273   2.589  11.166   7.920 -0.0266 -1.1647 -0.0537
 2850SOL     OW20274  11.980   9.042   7.343  0.2493  0.2487  0.4697
 2850SOL    HW120275  11.886   9.059   7.338  0.3954  0.7544 -1.4569
 2850SOL    HW220276  11.997   9.027   7.436 -1.5235  1.3370  1.0161
 2851SOL     OW20277   7.342  11.368  11.744  0.0520  0.0043  0.6176
 2851SOL    HW120278   7.401  11.335  11.676 -1.0152  0.4170 -0.5390
 2851SOL    HW220279   7.375  11.455  11.764  0.0376  0.1077  0.2071
 2852SOL     OW20280   3.551   6.779   6.785 -0.0730  0.2824  0.5709
 2852SOL    HW120281   3.600   6.714   6.835  0.0907 -0.1459 -0.1224
 2852SOL    HW220282   3.615   6.847   6.765  0.4681 -0.6261 -0.9613
 2853SOL     OW20283  12.342   6.823   3.167  0.6081  0.4794 -0.4759
 2853SOL    HW120284  12.369   6.778   3.087  1.0599 -0.7320  0.3185
 2853SOL    HW220285  12.402   6.789   3.234 -1.2152 -0.3075  0.8388
 2854SOL     OW20286   4.824  10.237   9.447 -0.0775  0.1323  0.3257
 2854SOL    HW120287   4.914  10.263   9.467 -0.5921  1.8620  0.5513
 2854SOL    HW220288   4.786  10.214   9.531  0.3826 -1.4506  0.1241
 2855SOL     OW20289  13.071   8.090   1.114  0.0935  0.2231 -0.2312
 2855SOL    HW120290  13.078   8.088   1.019  0.8672  1.6937 -0.2389
 2855SOL    HW220291  13.089   8.000   1.141 -0.7727 -0.3607 -1.4876
 2856SOL     OW20292   9.960   2.296   0.226  0.5756 -0.7804 -0.7581
 2856SOL    HW120293  10.048   2.322   0.252  1.2400 -0.2068 -3.2649
 2856SOL    HW220294   9.958   2.201   0.239  0.2263 -0.4151  2.7450
 2857SOL     OW20295   8.900   6.123   3.243  0.0162 -0.1706  0.4912
 2857SOL    HW120296   8.990   6.149   3.223 -0.3490  0.5437 -0.2684
 2857SOL    HW220297   8.896   6.125   3.339  0.6866  0.2191  0.5231
 2858SOL     OW20298   7.136   0.393   0.268  0.0932 -0.0246 -0.2828
 2858SOL    HW120299   7.140   0.351   0.354  1.4322 -0.5932 -0.5906
 2858SOL    HW220300   7.217   0.443   0.263 -0.5258  0.9400 -0.7570
 2859SOL     OW20301   1.530   7.501   6.438 -0.3763  0.4056 -0.4886
 2859SOL    HW120302   1.520   7.415   6.480  0.8972 -0.8037 -2.4775
 2859SOL    HW220303   1.455   7.507   6.379 -1.2805  1.3734  0.7178
 2860SOL     OW20304   6.077   0.590   0.855  0.0764 -0.1623  0.1623
 2860SOL    HW120305   5.985   0.562   0.857 -0.1204  0.3546 -0.9664
 2860SOL    HW220306   6.121   0.526   0.799  0.6948 -1.1361  1.6824
 2861SOL     OW20307   0.229   8.175   5.493 -0.3598 -0.7433  0.2023
 2861SOL    HW120308   0.279   8.144   5.568  0.2055  0.8760  0.5441
 2861SOL    HW220309   0.270   8.133   5.418  2.5812  1.6043  0.3110
 2862SOL     OW20310   8.978   2.297   9.706 -0.1143  0.3721  0.0105
 2862SOL    HW120311   8.966   2.203   9.702 -0.9813  0.4963 -0.4548
 2862SOL    HW220312   8.896   2.334   9.673  0.9189  1.2686 -1.7100
 2863SOL     OW20313  11.496   9.076   1.437  0.3421 -0.0644 -0.1749
 2863SOL    HW120314  11.423   9.025   1.474  1.1818 -0.3991  1.0783
 2863SOL    HW220315  11.453   9.150   1.392 -0.7781 -0.3851  0.3333
 2864SOL     OW20316   9.576   0.549   3.891  0.3433 -0.2315  0.7289
 2864SOL    HW120317   9.570   0.643   3.905  0.9290  0.3898 -2.4184
 2864SOL    HW220318   9.652   0.521   3.943  1.1257  1.3227  0.4697
 2865SOL     OW20319  10.763   6.279   8.485  0.1490 -0.2585 -0.1054
 2865SOL    HW120320  10.825   6.323   8.426 -2.0430  1.7229 -1.1271
 2865SOL    HW220321  10.780   6.317   8.571 -0.0915  0.8549 -0.5286
 2866SOL     OW20322   9.487  12.911   5.230 -0.0811 -0.5811 -0.2039
 2866SOL    HW120323   9.555  12.855   5.194  0.4746  0.2131 -0.4110
 2866SOL    HW220324   9.512  12.924   5.322  1.0876  1.1897 -0.7182
 2867SOL     OW20325   1.823   6.714   2.739 -0.1923  0.5048 -0.2127
 2867SOL    HW120326   1.786   6.777   2.801 -0.4815 -0.3181  0.4715
 2867SOL    HW220327   1.764   6.718   2.664  0.4535  1.8864 -0.6848
 2868SOL     OW20328   2.426   1.020   8.218  0.0400 -0.3875  0.4448
 2868SOL    HW120329   2.494   1.051   8.158 -0.9403  0.1399 -0.4234
 2868SOL    HW220330   2.434   1.077   8.295  0.9886 -0.7481  0.6181
 2869SOL     OW20331  12.694  12.746   8.035  0.1541 -0.2227 -0.1962
 2869SOL    HW120332  12.762  12.715   8.094  0.4257 -3.1110 -1.8636
 2869SOL    HW220333  12.620  12.765   8.093  1.3891  0.1294  1.3425
 2870SOL     OW20334  10.706  12.397  12.792 -0.1898  0.2005  0.1799
 2870SOL    HW120335  10.778  12.449  12.756  0.5715 -0.9983 -0.0966
 2870SOL    HW220336  10.628  12.452  12.780  0.1981  0.3175 -2.3596
 2871SOL     OW20337   5.976  10.769   6.651  0.2324 -0.5480 -0.4206
 2871SOL    HW120338   5.939  10.744   6.567 -0.6183  0.5444 -0.3981
 2871SOL    HW220339   6.055  10.819   6.628  0.3312 -0.7667 -0.5537
 2872SOL     OW20340   8.629   0.257   0.166 -0.0226  0.1310  0.2002
 2872SOL    HW120341   8.599   0.190   0.104 -1.2985  0.5945  0.2892
 2872SOL    HW220342   8.565   0.254   0.238  0.1787  1.1042  0.4361
 2873SOL     OW20343   4.364  11.571  12.238 -0.6058 -0.2781 -0.0812
 2873SOL    HW120344   4.276  11.597  12.265 -0.8925  1.6263 -2.4124
 2873SOL    HW220345   4.407  11.653  12.214  2.1774 -1.0572  1.8053
 2874SOL     OW20346  13.586   8.087   7.255 -0.2424  0.0055  0.7632
 2874SOL    HW120347  13.568   8.018   7.191  0.6910  0.4414  0.0017
 2874SOL    HW220348  13.543   8.057   7.335 -1.5624 -0.4920 -0.0929
 2875SOL     OW20349  11.321   1.335   8.666 -0.3847  0.1151  0.1884
 2875SOL    HW120350  11.301   1.246   8.638 -0.4263 -0.5904  2.2593
 2875SOL    HW220351  11.244   1.362   8.717 -0.5111  1.4710 -0.6680
 2876SOL     OW20352   3.237  10.638   4.400 -0.1748 -0.1143  0.0073
 2876SOL    HW120353   3.266  10.561   4.350 -0.1214 -0.2600  0.2624
 2876SOL    HW220354   3.146  10.650   4.375  0.1434  0.4438 -0.9304
 2877SOL     OW20355   8.554  11.062   5.311  0.0420 -0.0194 -0.4735
 2877SOL    HW120356   8.621  11.125   5.338  0.7793 -0.4941 -1.1727
 2877SOL    HW220357   8.566  10.987   5.368 -2.0806  1.1550  1.6875
 2878SOL     OW20358   4.192   6.663   5.654 -0.2722  0.1584  0.2622
 2878SOL    HW120359   4.280   6.697   5.636  0.2134 -0.0055  2.1440
 2878SOL    HW220360   4.203   6.568   5.656 -0.0150  0.1753  2.4561
 2879SOL     OW20361  13.634   7.670   6.016  0.1546 -0.0804 -0.4710
 2879SOL    HW120362  13.629   7.736   6.084  0.6058 -1.2681  0.7549
 2879SOL    HW220363  13.602   7.714   5.937 -1.9550  0.8858  0.8259
 2880SOL     OW20364   2.668   3.629   0.308  0.1782  0.4928 -0.4223
 2880SOL    HW120365   2.742   3.628   0.369 -0.4111  0.4243  0.2993
 2880SOL    HW220366   2.683   3.708   0.255  1.1202  0.1236 -0.7332
 2881SOL     OW20367  13.384   0.155   2.849  0.2029  0.1188 -0.2193
 2881SOL    HW120368  13.312   0.146   2.787 -2.3223 -0.7832  2.5774
 2881SOL    HW220369  13.385   0.249   2.870 -1.0661 -0.0366  0.6364
 2882SOL     OW20370  11.752   4.023  12.878  0.3185  0.4392 -0.3969
 2882SOL    HW120371  11.718   3.954  12.935 -0.5535  0.1521 -1.2343
 2882SOL    HW220372  11.824   4.062  12.927 -1.0499  0.9009  1.3540
 2883SOL     OW20373   2.986   2.065   3.656  0.7782 -0.0835 -0.0884
 2883SOL    HW120374   2.894   2.039   3.660  1.1742 -1.4883  2.7555
 2883SOL    HW220375   2.989   2.150   3.700  1.0438 -1.0544  1.8903
 2884SOL     OW20376  10.015   9.606   8.875  0.2101 -0.2745 -0.0721
 2884SOL    HW120377  10.027   9.513   8.856 -0.9788 -0.7268  1.2899
 2884SOL    HW220378  10.056   9.650   8.800 -0.2354 -1.8924 -1.3361
 2885SOL     OW20379   3.537   9.136   1.912 -0.1591 -0.5620 -0.9210
 2885SOL    HW120380   3.595   9.103   1.844  1.7432 -0.0765  0.3656
 2885SOL    HW220381   3.575   9.102   1.994 -0.7870  1.0215  0.0771
 2886SOL     OW20382   2.225  12.116  10.932 -0.1735 -0.6157  0.1089
 2886SOL    HW120383   2.241  12.210  10.936 -0.5013 -0.5600  0.1240
 2886SOL    HW220384   2.305  12.077  10.968 -0.5499 -0.3075  1.3323
 2887SOL     OW20385   2.829  10.388   6.409 -0.1839  0.0568  0.4301
 2887SOL    HW120386   2.847  10.386   6.503  2.7649  1.1734 -0.0174
 2887SOL    HW220387   2.742  10.428   6.403 -0.8539 -0.9173  2.6869
 2888SOL     OW20388   0.596  12.761   3.297 -0.0086 -0.3002  0.1350
 2888SOL    HW120389   0.542  12.683   3.312 -1.3978  0.2617 -1.6441
 2888SOL    HW220390   0.656  12.763   3.372  0.3027 -3.2397  0.1020
 2889SOL     OW20391   9.939  10.427   5.110 -0.2185  0.9908 -0.3527
 2889SOL    HW120392   9.902  10.380   5.035 -0.0870  0.1064  0.1161
 2889SOL    HW220393   9.948  10.517   5.080 -0.8409  0.8010 -1.1557
 2890SOL     OW20394   6.528   4.518   6.528  0.2013  0.3493  0.1527
 2890SOL    HW120395   6.585   4.514   6.451 -0.8111 -2.0443 -0.5596
 2890SOL    HW220396   6.560   4.448   6.585 -2.3013 -1.4558 -0.5300
 2891SOL     OW20397  13.443   3.482   2.745 -0.0792  0.2928 -0.2022
 2891SOL    HW120398  13.363   3.477   2.798 -1.5508  0.2727 -2.2992
 2891SOL    HW220399  13.424   3.428   2.668  2.7740 -1.4428  0.1624
 2892SOL     OW20400  11.454   6.397   7.987  0.0472  0.2320  0.4822
 2892SOL    HW120401  11.424   6.334   7.922 -1.7660 -0.4948  1.9378
 2892SOL    HW220402  11.511   6.346   8.045 -0.0597  0.3379  0.6831
 2893SOL     OW20403  13.622   7.409  10.458  0.4828  0.2378 -0.3336
 2893SOL    HW120404  13.639   7.420  10.365  1.9557  0.5097 -0.0660
 2893SOL    HW220405  13.603   7.498  10.490  0.0551  0.1559 -0.3505
 2894SOL     OW20406  13.492   5.912   1.898 -0.0996 -0.1272 -0.1975
 2894SOL    HW120407  13.426   5.962   1.849  0.1728  0.7004  0.2611
 2894SOL    HW220408  13.470   5.821   1.881 -0.5679  0.1397 -1.1145
 2895SOL     OW20409  10.455   8.399   3.996 -0.2049  0.0355 -0.0470
 2895SOL    HW120410  10.378   8.456   3.993 -0.4759 -0.1727  1.6231
 2895SOL    HW220411  10.423   8.318   4.035  0.3627 -0.9626 -1.6076
 2896SOL     OW20412   2.513   0.500   7.904 -0.1921 -0.1898 -0.8137
 2896SOL    HW120413   2.440   0.456   7.862 -2.4545  2.0608  0.4490
 2896SOL    HW220414   2.480   0.526   7.990  2.2352  0.5848 -0.0133
 2897SOL     OW20415   5.781   1.155  12.744 -0.1086 -0.0301  0.5767
 2897SOL    HW120416   5.750   1.067  12.764  1.2253 -0.3900  1.1801
 2897SOL    HW220417   5.868   1.143  12.708 -1.2949  0.8071 -3.0283
 2898SOL     OW20418   3.554   1.065   9.618 -0.0223 -0.7001  0.7666
 2898SOL    HW120419   3.643   1.067   9.583 -0.5073 -0.5702 -0.4891
 2898SOL    HW220420   3.517   0.983   9.587 -0.7780 -0.1422  0.1513
 2899SOL     OW20421  13.564   6.497   5.424  0.6165 -0.0507 -0.6952
 2899SOL    HW120422  13.528   6.572   5.378  1.0054 -0.7315 -2.1789
 2899SOL    HW220423  13.626   6.534   5.486 -1.8340  1.0933  1.2775
 2900SOL     OW20424   2.620   9.667  12.164 -0.0965  0.3779  0.1932
 2900SOL    HW120425   2.525   9.655  12.165 -0.1212  0.6441  0.9961
 2900SOL    HW220426   2.642   9.699  12.251  0.7662  0.0859  0.0900
 2901SOL     OW20427  11.805   0.695   3.447 -0.4049  0.4022  0.6472
 2901SOL    HW120428  11.812   0.668   3.355  0.7851  1.7209  0.3147
 2901SOL    HW220429  11.711   0.705   3.462 -0.6600 -0.6217 -0.1841
 2902SOL     OW20430   7.217   2.480   8.745 -0.0506 -0.5128  0.0458
 2902SOL    HW120431   7.154   2.530   8.693  0.2836 -2.4529 -2.4733
 2902SOL    HW220432   7.299   2.528   8.736  0.0234 -0.8698 -1.3994
 2903SOL     OW20433   1.301   4.799   0.796  0.3873 -0.1956 -0.6341
 2903SOL    HW120434   1.245   4.773   0.723  0.5694  1.2604 -1.3312
 2903SOL    HW220435   1.390   4.791   0.762  0.4871  0.1372 -0.4545
 2904SOL     OW20436  11.180   5.251   7.253  0.7796 -0.0115 -0.0409
 2904SOL    HW120437  11.130   5.173   7.227  0.3123  0.3172 -0.1260
 2904SOL    HW220438  11.271   5.222   7.250  0.5760 -0.7701  0.6270
 2905SOL     OW20439   2.772  11.393   9.201 -0.3517 -0.0388  0.1379
 2905SOL    HW120440   2.752  11.454   9.272 -0.1886  0.0130  0.1398
 2905SOL    HW220441   2.808  11.448   9.132  0.1730 -0.1827  0.2918
 2906SOL     OW20442   2.329   2.280  11.792 -0.3908  0.6494  0.0824
 2906SOL    HW120443   2.309   2.359  11.742  0.9993  0.8827 -0.1355
 2906SOL    HW220444   2.248   2.261  11.840 -1.4441  0.9689 -1.4925
 2907SOL     OW20445   1.176  10.734   8.568 -0.1216  0.3594  0.4421
 2907SOL    HW120446   1.179  10.821   8.607 -0.1714  1.2084 -1.3537
 2907SOL    HW220447   1.266  10.702   8.571 -0.3079 -0.1184  2.2739
 2908SOL     OW20448   1.792   2.631   4.953 -0.3622  0.4573  0.0086
 2908SOL    HW120449   1.722   2.682   4.993  0.0124 -0.3640  1.7917
 2908SOL    HW220450   1.857   2.697   4.928 -0.4587  0.9969  1.0970
 2909SOL     OW20451   4.083  10.146   3.302 -0.1319 -0.0468 -0.2126
 2909SOL    HW120452   4.173  10.168   3.325  0.1267  0.5151 -1.6197
 2909SOL    HW220453   4.089  10.060   3.261 -0.4469 -0.6101  0.8827
 2910SOL     OW20454  13.427   6.094   6.106 -0.0937 -0.5659 -0.9229
 2910SOL    HW120455  13.365   6.021   6.106 -1.0263  0.1726 -2.3081
 2910SOL    HW220456  13.378   6.166   6.146  0.4200 -0.3870 -0.6129
 2911SOL     OW20457   5.681   3.531   0.303  0.3411 -0.4778  0.0856
 2911SOL    HW120458   5.706   3.559   0.391  1.7245 -1.5604  0.0806
 2911SOL    HW220459   5.610   3.590   0.278 -0.1380 -0.1954  1.9484
 2912SOL     OW20460   0.643  13.319   1.338  0.4245 -0.0368  0.0507
 2912SOL    HW120461   0.685  13.287   1.417  2.5966 -1.1775 -1.4689
 2912SOL    HW220462   0.562  13.269   1.332  1.7746 -2.3435 -0.0777
 2913SOL     OW20463   3.943   0.278  13.074  0.3151 -0.3289 -0.3861
 2913SOL    HW120464   3.985   0.237  13.150  0.9681  0.9696 -0.0214
 2913SOL    HW220465   3.977   0.367  13.073 -0.8724  0.1402 -1.3061
 2914SOL     OW20466   7.770   5.142  10.126 -0.1146  0.0722 -0.5189
 2914SOL    HW120467   7.707   5.084  10.083 -0.1670 -0.1694 -0.1149
 2914SOL    HW220468   7.717   5.196  10.185  0.3025 -1.7926  1.6800
 2915SOL     OW20469   3.474  13.223   1.880  0.3629  0.2011 -0.1358
 2915SOL    HW120470   3.402  13.254   1.825 -1.7689  3.2316  3.7855
 2915SOL    HW220471   3.535  13.297   1.883  1.0656 -0.3885  0.5279
 2916SOL     OW20472   1.240   6.718  13.614 -0.1721 -0.1570  0.0187
 2916SOL    HW120473   1.300   6.653  13.651 -1.3684 -0.7970  0.8859
 2916SOL    HW220474   1.235   6.787  13.681  1.1245  0.8958 -0.9113
 2917SOL     OW20475   6.097  10.763   8.580  0.4198 -0.6041 -0.1364
 2917SOL    HW120476   6.062  10.709   8.651 -0.2649 -0.7735 -0.5918
 2917SOL    HW220477   6.093  10.852   8.614  1.7565 -0.8326  0.7041
 2918SOL     OW20478   4.782   8.117  12.141  0.1190  0.4626 -0.2385
 2918SOL    HW120479   4.777   8.093  12.049  1.1025  2.0462 -0.7473
 2918SOL    HW220480   4.730   8.197  12.148 -2.1910 -1.0611  1.1722
 2919SOL     OW20481   4.378   4.854   5.098 -0.2915 -0.2464  0.6492
 2919SOL    HW120482   4.423   4.938   5.108  0.0988  0.0800 -2.6671
 2919SOL    HW220483   4.285   4.876   5.097 -0.3542 -0.2759  2.5139
 2920SOL     OW20484   3.670   3.495   3.957  0.5382 -0.5925  0.0148
 2920SOL    HW120485   3.594   3.453   3.997 -0.2660 -0.6720 -1.5236
 2920SOL    HW220486   3.741   3.433   3.970  0.0262 -1.1390  0.2720
 2921SOL     OW20487   6.046   3.129  10.675  0.0887 -0.2718 -0.0890
 2921SOL    HW120488   6.090   3.102  10.756 -0.3383  1.4817  0.7977
 2921SOL    HW220489   6.117   3.136  10.611  0.8220  0.5574  0.7735
 2922SOL     OW20490   9.394   5.932  10.335 -0.2696  0.4120 -0.0924
 2922SOL    HW120491   9.416   5.876  10.409 -0.0698 -0.6383 -0.9249
 2922SOL    HW220492   9.462   5.914  10.270  0.0661  1.9870 -0.1998
 2923SOL     OW20493   2.292   9.559   0.088  0.2875  0.4900  0.4930
 2923SOL    HW120494   2.274   9.641   0.042  1.3555  0.7926  0.6003
 2923SOL    HW220495   2.289   9.582   0.181 -5.0610 -0.7135  0.9549
 2924SOL     OW20496   4.368   1.621   0.691  0.3663 -0.4455  0.0653
 2924SOL    HW120497   4.277   1.637   0.715  0.2276 -1.5490  0.3435
 2924SOL    HW220498   4.367   1.608   0.597 -0.1846 -2.8865  0.3432
 2925SOL     OW20499  10.904  10.130   5.723  0.7616  0.5318  0.1413
 2925SOL    HW120500  10.977  10.109   5.664 -0.7168 -2.4990 -0.7909
 2925SOL    HW220501  10.921  10.078   5.801 -0.3304 -0.1766 -0.0705
 2926SOL     OW20502   8.202   5.437  12.685  0.3394  0.6311 -0.2532
 2926SOL    HW120503   8.291   5.461  12.709  0.0316  0.4252  1.1884
 2926SOL    HW220504   8.192   5.348  12.719 -0.7339  1.0282  0.5242
 2927SOL     OW20505  11.548   1.655   8.816  0.2105 -0.5346  0.0564
 2927SOL    HW120506  11.617   1.625   8.758  0.0462 -0.8797  0.0348
 2927SOL    HW220507  11.477   1.591   8.804 -0.3347  0.1351 -0.3554
 2928SOL     OW20508   3.842   6.136   7.212 -0.2232 -0.1674 -0.1776
 2928SOL    HW120509   3.835   6.214   7.267 -2.4062  0.3815 -1.1480
 2928SOL    HW220510   3.759   6.090   7.223  1.2328 -2.8257  0.9169
 2929SOL     OW20511   5.780   4.624   9.157 -0.1607  0.1362 -0.5866
 2929SOL    HW120512   5.686   4.629   9.176 -0.2776  0.5120 -1.2568
 2929SOL    HW220513   5.786   4.569   9.079  0.3139 -1.3275  0.4428
 2930SOL     OW20514   2.130   4.584   1.898  0.1568  0.4209 -0.2718
 2930SOL    HW120515   2.041   4.611   1.874 -0.3975 -1.1728 -0.0934
 2930SOL    HW220516   2.153   4.640   1.972 -1.5478 -0.5750  1.0652
 2931SOL     OW20517   5.546  11.382   4.898  0.2004 -0.4217 -1.0686
 2931SOL    HW120518   5.456  11.412   4.907  0.2717 -0.7712  1.7097
 2931SOL    HW220519   5.600  11.459   4.918  0.4446 -0.8785  0.1330
 2932SOL     OW20520   9.093  12.013   2.846 -0.0291 -0.2850  0.3205
 2932SOL    HW120521   9.162  11.964   2.800  0.5754 -0.2173  1.1398
 2932SOL    HW220522   9.138  12.090   2.881 -0.7992  0.4486 -0.2485
 2933SOL     OW20523   8.424  11.187   6.826 -0.6981 -0.2205  0.2230
 2933SOL    HW120524   8.492  11.186   6.892  0.0006 -1.4701 -0.4925
 2933SOL    HW220525   8.447  11.261   6.769  0.9676 -1.5658 -0.9115
 2934SOL     OW20526   8.963  12.756   5.726  0.3274 -0.6277  0.0220
 2934SOL    HW120527   8.888  12.816   5.732  1.2423  0.8185 -1.9274
 2934SOL    HW220528   8.935  12.690   5.663  0.3342 -0.6542  0.0470
 2935SOL     OW20529   4.873  12.561  12.939 -0.1413  0.1789 -0.6168
 2935SOL    HW120530   4.924  12.481  12.921 -0.8590  0.1065 -2.4897
 2935SOL    HW220531   4.920  12.630  12.892 -0.0399  0.7057  0.2476
 2936SOL     OW20532   0.664   6.172  11.463 -0.1212 -0.1713 -0.1184
 2936SOL    HW120533   0.684   6.214  11.547 -2.4553  0.4623  0.1803
 2936SOL    HW220534   0.618   6.240  11.413  0.2974 -0.8826 -1.5116
 2937SOL     OW20535   8.540   7.336   4.421  0.4338  0.1146 -0.2769
 2937SOL    HW120536   8.627   7.370   4.397 -0.6156  3.0615 -0.3536
 2937SOL    HW220537   8.508   7.295   4.341  0.6367  1.6659 -1.2061
 2938SOL     OW20538   1.530   4.111  11.281 -0.0586  0.4996 -0.0221
 2938SOL    HW120539   1.578   4.046  11.332  1.2889  0.7575 -0.9066
 2938SOL    HW220540   1.569   4.195  11.305 -0.1420  0.7325 -0.6759
 2939SOL     OW20541   7.123   0.764   0.991  0.1066 -0.5712 -0.3019
 2939SOL    HW120542   7.134   0.684   0.940 -0.4201  0.6352 -2.4346
 2939SOL    HW220543   7.208   0.808   0.987 -0.0773 -0.2340 -0.5767
 2940SOL     OW20544  12.687   8.387   9.467 -0.3213  0.1651 -0.0210
 2940SOL    HW120545  12.674   8.471   9.511 -0.2771 -0.9370  2.2603
 2940SOL    HW220546  12.600   8.347   9.466 -0.4360  0.4048 -1.5297
 2941SOL     OW20547  10.283   9.281   2.352 -0.5741  0.0475  0.1381
 2941SOL    HW120548  10.227   9.291   2.276 -1.5315 -1.0992  0.6682
 2941SOL    HW220549  10.271   9.361   2.402 -1.3264  0.0345 -0.0232
 2942SOL     OW20550   7.339   3.510   7.167 -0.6010  0.3067  0.1247
 2942SOL    HW120551   7.265   3.517   7.107  0.8409 -0.5907 -1.8524
 2942SOL    HW220552   7.376   3.423   7.149  0.7384  0.5984  1.3018
 2943SOL     OW20553   1.625   8.898  13.508 -0.2539 -0.7991  1.0247
 2943SOL    HW120554   1.545   8.853  13.537 -0.0741 -1.0333  1.1620
 2943SOL    HW220555   1.612   8.910  13.414 -2.3816  3.0158  1.5880
 2944SOL     OW20556  11.400   2.185   8.628  0.1696 -0.4579  0.3503
 2944SOL    HW120557  11.446   2.122   8.573 -1.3341 -0.9921 -0.3719
 2944SOL    HW220558  11.418   2.270   8.588 -1.2538 -0.8782 -1.3094
 2945SOL     OW20559  11.105   5.305   6.656 -0.3393  0.0763  0.5299
 2945SOL    HW120560  11.080   5.391   6.691 -1.2122 -1.0350  2.8721
 2945SOL    HW220561  11.199   5.314   6.636 -0.2301  1.3532  1.4869
 2946SOL     OW20562   2.410  12.571  11.120  0.1290 -0.2025  0.3584
 2946SOL    HW120563   2.425  12.542  11.211  3.1239 -2.0322 -0.5543
 2946SOL    HW220564   2.474  12.641  11.107  0.4065 -0.6300 -0.6051
 2947SOL     OW20565  10.679   3.915   7.363  0.5177 -0.0329 -0.4612
 2947SOL    HW120566  10.640   3.876   7.284  1.1131  0.5957 -1.0867
 2947SOL    HW220567  10.735   3.847   7.399 -1.0883 -0.9349  0.4250
 2948SOL     OW20568   5.958   9.423   7.044  0.0710  0.2861 -0.0979
 2948SOL    HW120569   5.872   9.460   7.026 -1.0918 -2.1518 -0.0393
 2948SOL    HW220570   5.974   9.444   7.136 -0.7054  0.3372  0.0327
 2949SOL     OW20571  11.314   1.057   9.195 -0.1579 -0.0661  0.2642
 2949SOL    HW120572  11.372   0.984   9.175 -0.0688  0.2356 -0.6252
 2949SOL    HW220573  11.226   1.024   9.177 -0.1342 -0.0167  0.0593
 2950SOL     OW20574  10.296   2.744   2.651  0.3342  0.4383  0.9409
 2950SOL    HW120575  10.202   2.761   2.662 -0.3086  0.0547 -2.6325
 2950SOL    HW220576  10.335   2.771   2.734 -3.0387 -0.6021  3.0712
 2951SOL     OW20577   3.238  11.419   0.380  0.9267  0.0745  0.4687
 2951SOL    HW120578   3.278  11.380   0.458  1.4352 -0.8653 -0.2291
 2951SOL    HW220579   3.281  11.374   0.307 -0.6742 -0.2300 -0.3296
 2952SOL     OW20580   5.453   9.972  12.769 -0.0802  0.3967 -0.1461
 2952SOL    HW120581   5.478   9.881  12.782  0.1720  0.4298 -0.3824
 2952SOL    HW220582   5.536  10.020  12.769 -0.0152  0.3662 -2.0735
 2953SOL     OW20583   3.756   8.060   5.644 -0.2326  0.1534 -0.3080
 2953SOL    HW120584   3.678   8.004   5.652 -0.0158 -0.1073  0.0060
 2953SOL    HW220585   3.823   8.003   5.606 -0.2238  0.4097 -0.6825
 2954SOL     OW20586   4.758   0.542  13.373  0.4212 -0.0677 -0.3011
 2954SOL    HW120587   4.836   0.542  13.318 -0.5407  2.5610 -1.8641
 2954SOL    HW220588   4.767   0.620  13.427 -0.0721 -1.0068  1.2087
 2955SOL     OW20589  12.283  11.664   9.651 -0.2501 -0.3902 -0.3641
 2955SOL    HW120590  12.189  11.668   9.631 -0.0524 -1.3379 -1.6500
 2955SOL    HW220591  12.323  11.725   9.590  0.0015 -0.2354 -0.0427
 2956SOL     OW20592   6.713   6.435   5.432  0.1421  0.4548 -0.1833
 2956SOL    HW120593   6.758   6.463   5.352 -1.5507  1.0746 -0.9784
 2956SOL    HW220594   6.621   6.461   5.417 -0.4992 -0.8564  1.2903
 2957SOL     OW20595   1.263  12.016   3.151 -0.3407  0.3659  0.7955
 2957SOL    HW120596   1.280  11.990   3.061  0.5880  0.4717  0.9298
 2957SOL    HW220597   1.330  11.971   3.203 -1.0367  0.0771  1.4707
 2958SOL     OW20598   3.377   5.558  12.785  0.1124 -0.1689 -0.3297
 2958SOL    HW120599   3.403   5.544  12.694  0.7518 -2.6855  0.1607
 2958SOL    HW220600   3.289   5.520  12.791 -0.4030  1.0131 -0.1299
 2959SOL     OW20601  12.198  13.387  11.072  0.0481  0.0446  0.2832
 2959SOL    HW120602  12.280  13.434  11.060  0.9097 -1.1715  1.1913
 2959SOL    HW220603  12.188  13.380  11.167 -1.6152  1.0128  0.2181
 2960SOL     OW20604   8.292   9.579   4.662 -0.2688 -0.3200  0.0467
 2960SOL    HW120605   8.380   9.565   4.628 -0.5845  0.9140 -1.3770
 2960SOL    HW220606   8.303   9.583   4.757  1.2165 -0.0972 -0.1113
 2961SOL     OW20607   9.170   4.446   4.272 -0.4440  0.2577  0.1913
 2961SOL    HW120608   9.116   4.367   4.279  0.7112 -0.5906 -0.2527
 2961SOL    HW220609   9.183   4.473   4.363 -0.7111 -0.1470  0.3542
 2962SOL     OW20610   2.178  10.736  10.316  0.5059  0.4363  0.4434
 2962SOL    HW120611   2.183  10.714  10.223 -0.2339  2.0701 -0.0291
 2962SOL    HW220612   2.142  10.825  10.317 -1.1479 -0.1814  2.3523
 2963SOL     OW20613   7.168  12.105   9.023  0.0714  0.6560  0.0645
 2963SOL    HW120614   7.256  12.081   8.995  0.1326  1.2411 -0.2436
 2963SOL    HW220615   7.112  12.080   8.949 -0.0050  0.4212  0.2003
 2964SOL     OW20616  13.557   0.422   2.369 -0.4608 -0.6776  0.7605
 2964SOL    HW120617  13.515   0.381   2.293 -1.3040  0.8995  0.3224
 2964SOL    HW220618  13.514   0.384   2.445 -0.7153 -1.1187  0.3975
 2965SOL     OW20619   9.166   9.485   1.583  0.7164 -0.0295 -0.0690
 2965SOL    HW120620   9.101   9.541   1.540 -0.2283 -1.0467 -0.0049
 2965SOL    HW220621   9.174   9.522   1.671  0.5483  0.3607 -0.2150
 2966SOL     OW20622   0.017   2.254   3.110 -0.3353  0.2124  0.1840
 2966SOL    HW120623   0.088   2.248   3.175  1.4677 -0.3810 -1.7139
 2966SOL    HW220624   0.024   2.172   3.061 -1.5812  0.6852 -0.8112
 2967SOL     OW20625   5.685  12.883   8.621  0.8193  0.2181 -0.5648
 2967SOL    HW120626   5.667  12.795   8.654  1.4801  0.3212  0.0816
 2967SOL    HW220627   5.599  12.925   8.618  0.6951  0.0671  0.6122
 2968SOL     OW20628  12.407  11.027   6.559  0.3054 -0.1892  0.0893
 2968SOL    HW120629  12.356  10.998   6.635 -0.4317 -1.4753 -0.8525
 2968SOL    HW220630  12.442  11.112   6.584  0.1027 -0.5969  1.8781
 2969SOL     OW20631   6.450  11.937  12.503 -0.0762 -0.1199  0.3861
 2969SOL    HW120632   6.544  11.947  12.514 -0.1302 -0.1486  0.9531
 2969SOL    HW220633   6.435  11.947  12.409  0.5848 -0.9254  0.1828
 2970SOL     OW20634   3.822  11.770  11.592 -0.0276 -0.0132  0.5531
 2970SOL    HW120635   3.861  11.684  11.602  2.0349  1.0772  3.2603
 2970SOL    HW220636   3.892  11.825  11.556 -1.1513  0.6511 -0.6923
 2971SOL     OW20637   9.206  12.846   2.594  0.2468  0.4036 -0.0900
 2971SOL    HW120638   9.220  12.933   2.556  2.4172  0.0119 -0.3478
 2971SOL    HW220639   9.222  12.786   2.521  2.1190 -0.2735  0.8019
 2972SOL     OW20640  11.860   9.100   0.202  0.5428 -0.2727 -0.3521
 2972SOL    HW120641  11.800   9.040   0.247  1.0558 -1.8489 -1.6775
 2972SOL    HW220642  11.937   9.104   0.258  0.2110 -0.2535  0.1099
 2973SOL     OW20643   3.684   1.785   3.455  0.8882 -0.6428  0.0847
 2973SOL    HW120644   3.619   1.851   3.432  1.9988 -0.3064 -2.4256
 2973SOL    HW220645   3.671   1.714   3.392  2.5288 -0.8108 -0.1321
 2974SOL     OW20646   6.233  10.002   7.460  0.4255 -0.2059  0.5204
 2974SOL    HW120647   6.204  10.069   7.399 -0.9821 -0.6740  0.6329
 2974SOL    HW220648   6.291   9.946   7.408 -1.1755 -0.9187 -0.6062
 2975SOL     OW20649  13.091   3.373   4.402 -0.5244 -0.1966 -0.2424
 2975SOL    HW120650  13.182   3.393   4.428 -0.3143 -1.5279  0.1150
 2975SOL    HW220651  13.086   3.278   4.403 -1.7823 -0.1576 -0.8287
 2976SOL     OW20652   9.789   7.904   9.864  0.0599  0.1809 -0.2356
 2976SOL    HW120653   9.729   7.862   9.801  0.8343  1.8332 -2.2018
 2976SOL    HW220654   9.868   7.851   9.860  0.1607  0.3651 -0.7997
 2977SOL     OW20655   1.562   6.047   3.201 -0.0056  0.1087  0.2809
 2977SOL    HW120656   1.549   6.058   3.107 -0.8935 -1.0173  0.2463
 2977SOL    HW220657   1.550   6.135   3.237 -0.4722  0.4111 -0.5759
 2978SOL     OW20658  10.534   7.851  11.029 -0.1595  0.3452  0.3836
 2978SOL    HW120659  10.488   7.894  10.957 -1.7999  0.7926  1.6517
 2978SOL    HW220660  10.477   7.862  11.105  0.1886 -2.4960  1.1815
 2979SOL     OW20661  11.222   4.047  12.371  0.5190  0.0151 -0.2007
 2979SOL    HW120662  11.289   4.008  12.314 -0.0306 -0.3666 -0.5935
 2979SOL    HW220663  11.225   3.994  12.451  1.2958  0.5562  0.1391
 2980SOL     OW20664  11.030  10.240   4.052 -0.2037  0.3371  0.1787
 2980SOL    HW120665  11.006  10.332   4.041  0.1077  0.3437 -0.5687
 2980SOL    HW220666  10.985  10.212   4.131  1.7413  1.8263  1.9231
 2981SOL     OW20667   7.046  10.555   6.519  0.0510  0.1388  0.5131
 2981SOL    HW120668   7.111  10.561   6.590  1.3644 -1.1285 -0.5462
 2981SOL    HW220669   7.049  10.642   6.478  1.5092 -0.0472  0.1473
 2982SOL     OW20670   7.163   4.047   7.435 -0.1411  0.0319  0.0210
 2982SOL    HW120671   7.181   4.008   7.349  1.4068  0.0866  0.3030
 2982SOL    HW220672   7.245   4.039   7.483 -0.4972  1.4671  0.9345
 2983SOL     OW20673   1.968   6.966  10.297 -0.6085 -0.2166 -0.0311
 2983SOL    HW120674   2.042   7.024  10.310 -0.5129 -0.2981 -0.2131
 2983SOL    HW220675   1.917   6.974  10.378  1.0919 -2.3535  1.3658
 2984SOL     OW20676   7.433  11.928   9.529  0.1717 -0.2679 -0.1432
 2984SOL    HW120677   7.460  11.999   9.588 -1.0247  0.6734 -0.6609
 2984SOL    HW220678   7.366  11.880   9.579 -0.9559  0.6251 -0.7375
 2985SOL     OW20679   1.703   1.054   1.767  0.2399  0.5157 -0.3021
 2985SOL    HW120680   1.651   0.994   1.713  0.5537  3.8776 -4.8984
 2985SOL    HW220681   1.642   1.122   1.794  0.9753  1.0901 -0.0483
 2986SOL     OW20682   5.630  11.843   7.822 -0.6797 -0.0750 -0.0686
 2986SOL    HW120683   5.669  11.850   7.734  0.9277 -1.6363  0.4593
 2986SOL    HW220684   5.659  11.758   7.854 -1.8099  0.1749  1.7301
 2987SOL     OW20685   0.404   6.815   0.892 -0.3581 -0.2700  0.3825
 2987SOL    HW120686   0.454   6.815   0.973 -1.2490 -0.9866  0.9385
 2987SOL    HW220687   0.342   6.887   0.902 -1.3356 -1.1693  0.8904
 2988SOL     OW20688   9.321   0.723  13.664  0.5753  0.3233  0.1428
 2988SOL    HW120689   9.260   0.704  13.735  0.1407  1.0186 -0.0368
 2988SOL    HW220690   9.316   0.646  13.607 -1.1932  0.9214 -0.5960
 2989SOL     OW20691   4.067   4.549   4.082  0.2295  0.2687  0.2177
 2989SOL    HW120692   4.025   4.558   3.997 -0.7158  1.2250  0.7488
 2989SOL    HW220693   4.154   4.588   4.071 -0.4715  1.8889  0.0700
 2990SOL     OW20694   6.092  11.742   6.033  0.3482 -0.5210 -0.4703
 2990SOL    HW120695   5.997  11.755   6.034  0.1947 -1.5433 -0.6843
 2990SOL    HW220696   6.119  11.767   5.945  0.4434  0.7980 -0.0842
 2991SOL     OW20697   9.446   8.027  11.334 -0.5969  0.3394 -0.1757
 2991SOL    HW120698   9.496   7.946  11.333  0.2547  0.8125  1.0849
 2991SOL    HW220699   9.364   8.006  11.289  0.4560 -0.6212 -1.7399
 2992SOL     OW20700   6.030   1.219   9.445  0.2409  0.2565  0.5541
 2992SOL    HW120701   6.079   1.154   9.495 -0.5897  1.0222  2.4428
 2992SOL    HW220702   5.951   1.234   9.496  0.2006  2.4194 -0.0378
 2993SOL     OW20703  12.702   7.867   5.549 -0.4783 -0.1224  0.3529
 2993SOL    HW120704  12.650   7.905   5.620 -0.3670  1.1429 -0.2110
 2993SOL    HW220705  12.676   7.916   5.471 -0.1284 -1.0522 -0.3670
 2994SOL     OW20706  10.504  13.543   4.830  0.1262  0.0075 -0.0082
 2994SOL    HW120707  10.409  13.532   4.835 -0.0351  0.0926 -2.1067
 2994SOL    HW220708  10.538  13.484   4.897 -1.4405  1.5116  2.2749
 2995SOL     OW20709   8.552   5.556   8.715  0.4300 -0.2956  0.0684
 2995SOL    HW120710   8.610   5.496   8.668  0.7971 -1.8032  2.2496
 2995SOL    HW220711   8.608   5.596   8.781 -0.1304  1.5032 -0.5114
 2996SOL     OW20712   5.228   7.900   2.992 -0.1292  0.3399 -0.0520
 2996SOL    HW120713   5.242   7.987   2.956  1.5227 -0.2939 -1.0381
 2996SOL    HW220714   5.299   7.887   3.054 -0.4514 -0.2557  0.2075
 2997SOL     OW20715   1.997   5.117   5.248 -0.3294  0.0648 -0.3567
 2997SOL    HW120716   1.991   5.147   5.158  1.6106  0.1546 -0.4955
 2997SOL    HW220717   2.048   5.036   5.243 -1.3013 -0.6338  0.5344
 2998SOL     OW20718   6.205   5.673  11.771 -0.2175 -0.0977  0.1128
 2998SOL    HW120719   6.163   5.750  11.809  1.9608  0.8880  0.6490
 2998SOL    HW220720   6.216   5.612  11.844  0.9298  0.4198  0.3915
 2999SOL     OW20721  11.864   5.617  11.348 -0.1359  0.3938 -0.0212
 2999SOL    HW120722  11.790   5.638  11.292 -1.1853 -2.3279  0.2316
 2999SOL    HW220723  11.919   5.559  11.296 -0.3620 -0.9660  1.1895
 3000SOL     OW20724  10.045  11.081   4.959 -0.0931 -0.1160 -0.3476
 3000SOL    HW120725  10.007  11.064   5.044  1.1785 -3.6613 -0.3108
 3000SOL    HW220726   9.971  11.104   4.903 -1.1587  0.6468  1.3077
 3001SOL     OW20727   5.245   7.407   7.779 -0.1250 -0.9530 -0.0422
 3001SOL    HW120728   5.210   7.348   7.846 -1.7109  1.8882  1.8396
 3001SOL    HW220729   5.178   7.474   7.770  2.4323  1.7145 -0.4880
 3002SOL     OW20730  12.739   4.968  12.086 -0.1258 -0.1870  0.1174
 3002SOL    HW120731  12.721   4.928  12.000 -1.1941 -0.3178  0.3911
 3002SOL    HW220732  12.830   4.945  12.104  0.6589  1.2122 -1.7138
 3003SOL     OW20733   9.629   6.124   7.389  0.1302  0.2173  0.1138
 3003SOL    HW120734   9.695   6.054   7.391 -0.3510 -0.2504 -0.0944
 3003SOL    HW220735   9.550   6.081   7.356 -0.2140  0.8281  0.1345
 3004SOL     OW20736   1.298  12.461   1.840 -0.1827  0.1580  0.3177
 3004SOL    HW120737   1.314  12.394   1.906  1.0861 -0.6156 -0.7305
 3004SOL    HW220738   1.381  12.470   1.794 -0.8685  1.0944 -0.7906
 3005SOL     OW20739   0.357  13.220  12.178  0.1751 -0.1753  0.2669
 3005SOL    HW120740   0.356  13.288  12.112 -0.8201  0.0955  0.5362
 3005SOL    HW220741   0.426  13.159  12.150  1.2050  1.0215  0.1287
 3006SOL     OW20742   9.256  11.231  10.178 -0.1606 -0.3179  0.5970
 3006SOL    HW120743   9.184  11.178  10.146  0.3372  0.9048 -2.9907
 3006SOL    HW220744   9.301  11.261  10.099  1.6918  2.5205  2.5225
 3007SOL     OW20745   3.151   5.349   5.555  0.1570  0.1384 -0.0826
 3007SOL    HW120746   3.220   5.291   5.587  2.1958  2.0474 -0.7543
 3007SOL    HW220747   3.069   5.307   5.583  1.5827 -1.7850  1.4991
 3008SOL     OW20748   1.734   2.520  11.427  0.3019  0.2663 -0.1385
 3008SOL    HW120749   1.654   2.570  11.414  0.4589  0.4439 -0.4461
 3008SOL    HW220750   1.704   2.430  11.441  0.0426  0.3552 -0.1144
 3009SOL     OW20751   6.235   9.664   7.693  0.0364  0.5687  0.7447
 3009SOL    HW120752   6.200   9.747   7.660 -0.2552  0.1282 -0.0915
 3009SOL    HW220753   6.315   9.651   7.643  0.2613  0.5144  1.1207
 3010SOL     OW20754   2.913   6.355   1.273  0.1108  0.2483 -0.3719
 3010SOL    HW120755   2.904   6.305   1.192  0.0900  1.2872 -1.0243
 3010SOL    HW220756   2.898   6.291   1.342  0.0957 -0.6469 -1.1858
 3011SOL     OW20757   8.761   9.217   7.671 -0.2327 -0.5969 -0.1164
 3011SOL    HW120758   8.844   9.251   7.704  1.3734 -4.2607  0.0479
 3011SOL    HW220759   8.722   9.291   7.624  1.4671  2.2326  2.5554
 3012SOL     OW20760   4.658  10.608   1.558  0.6673  0.2630 -0.5355
 3012SOL    HW120761   4.693  10.547   1.624  1.6408  0.9842 -0.3546
 3012SOL    HW220762   4.689  10.694   1.587 -2.8750  1.2749  0.7006
 3013SOL     OW20763   7.805  13.375   2.045 -0.2245 -0.5085  0.3693
 3013SOL    HW120764   7.840  13.464   2.056 -1.6995  0.0468  0.7671
 3013SOL    HW220765   7.870  13.318   2.086  0.0707  0.5162  1.3694
 3014SOL     OW20766   9.407   8.735   2.094 -0.1091 -0.3814 -0.3343
 3014SOL    HW120767   9.377   8.655   2.137  0.8405 -0.0727  0.9532
 3014SOL    HW220768   9.469   8.704   2.027 -0.4946 -0.7737 -0.5126
 3015SOL     OW20769   5.775  11.862  11.726 -0.1720  0.1416  0.2868
 3015SOL    HW120770   5.818  11.935  11.681 -1.0535  0.7023  0.3289
 3015SOL    HW220771   5.820  11.784  11.693  0.8477  0.6934  0.3052
 3016SOL     OW20772  10.723   9.789   9.920  0.3357 -0.2182 -0.0684
 3016SOL    HW120773  10.737   9.725   9.990  0.6679  1.0261  1.0400
 3016SOL    HW220774  10.809   9.796   9.877  0.0384 -1.2624 -0.8873
 3017SOL     OW20775   0.254   2.135   1.022  0.0171  0.3354  0.0931
 3017SOL    HW120776   0.159   2.120   1.017 -0.3246  1.9289  1.1207
 3017SOL    HW220777   0.280   2.095   1.104 -0.4763  2.9746  1.6488
 3018SOL     OW20778  12.743   3.465   8.963  0.7559  0.3851 -0.0662
 3018SOL    HW120779  12.674   3.451   9.028  0.5290  0.4447 -0.2946
 3018SOL    HW220780  12.809   3.398   8.984 -0.8632 -1.9626 -1.9297
 3019SOL     OW20781  12.827  10.173  10.005  0.5439  0.3268  1.0348
 3019SOL    HW120782  12.914  10.180  10.043  1.8247 -3.3264 -0.7061
 3019SOL    HW220783  12.838  10.205   9.915 -0.0027  0.2575  0.9404
 3020SOL     OW20784   3.799   7.436  11.805  0.0151 -0.0173 -0.1106
 3020SOL    HW120785   3.886   7.437  11.766 -0.3385  1.1503 -0.9411
 3020SOL    HW220786   3.801   7.506  11.871 -0.3622  0.1933 -0.3181
 3021SOL     OW20787   5.876   4.183   7.632 -0.9567  0.6766 -0.5075
 3021SOL    HW120788   5.967   4.214   7.636 -1.0660  0.8947  1.0214
 3021SOL    HW220789   5.841   4.222   7.552  0.3095  0.5257 -1.1640
 3022SOL     OW20790  11.545   5.893   7.172 -0.3013  0.0587  0.0105
 3022SOL    HW120791  11.566   5.803   7.198 -1.6186 -0.6001 -1.0578
 3022SOL    HW220792  11.628   5.931   7.146 -0.0597 -1.7824 -2.2127
 3023SOL     OW20793  12.138   6.770   1.716  0.0273  0.4581  0.4948
 3023SOL    HW120794  12.101   6.693   1.760 -4.4833  0.8494 -1.9436
 3023SOL    HW220795  12.208   6.735   1.661 -0.8880 -1.7159  0.5803
 3024SOL     OW20796   1.470   9.153   4.098 -0.0893 -0.4513 -0.4472
 3024SOL    HW120797   1.429   9.220   4.153  0.1909 -0.3713 -0.3314
 3024SOL    HW220798   1.540   9.199   4.052  1.3997 -1.0459  1.1132
 3025SOL     OW20799  11.909   7.695  12.309 -0.5705 -0.4528  0.2653
 3025SOL    HW120800  11.925   7.658  12.222  0.1035  1.7544 -0.6389
 3025SOL    HW220801  11.995   7.698  12.350 -0.4143  1.0253 -0.1153
 3026SOL     OW20802  12.048   9.713  12.726 -0.0580  0.1767 -0.0102
 3026SOL    HW120803  12.002   9.638  12.764 -0.4841  0.0662 -0.7348
 3026SOL    HW220804  12.122   9.728  12.785  0.2834 -1.0890 -0.0961
 3027SOL     OW20805  10.524  13.503   1.457 -0.0871  0.2205  0.2166
 3027SOL    HW120806  10.508  13.591   1.423 -0.6195 -0.4808 -1.4553
 3027SOL    HW220807  10.474  13.446   1.399  2.0708 -1.3892 -0.1634
 3028SOL     OW20808   3.505   0.423  10.790 -0.4893 -0.4237  0.0462
 3028SOL    HW120809   3.558   0.355  10.831 -0.4688  0.8364  2.2815
 3028SOL    HW220810   3.432   0.437  10.851 -0.6416  1.3313 -0.4749
 3029SOL     OW20811   8.403   3.083   9.944 -0.0364 -0.5907  0.2563
 3029SOL    HW120812   8.373   3.162   9.900  0.7873 -0.3065  0.1792
 3029SOL    HW220813   8.465   3.115  10.010  1.6608 -1.2738 -0.9357
 3030SOL     OW20814   2.341   9.942   1.357  0.2682  0.0635 -0.0250
 3030SOL    HW120815   2.391  10.009   1.310 -0.3996 -1.0258 -2.4712
 3030SOL    HW220816   2.251   9.973   1.356 -0.1012 -0.9440 -1.4644
 3031SOL     OW20817   0.474   0.807   8.432  0.1950 -0.8693  0.2032
 3031SOL    HW120818   0.400   0.777   8.379 -0.6747 -0.2383  1.0343
 3031SOL    HW220819   0.550   0.767   8.391 -0.5874 -1.4106 -0.7663
 3032SOL     OW20820   6.802   3.646   7.276  0.5242  0.4806  0.0679
 3032SOL    HW120821   6.867   3.716   7.267  0.3063  0.7885  0.7920
 3032SOL    HW220822   6.754   3.668   7.356 -0.0324 -0.1051 -0.0955
 3033SOL     OW20823   2.892   2.305   6.632 -0.1418  0.0991  0.3272
 3033SOL    HW120824   2.970   2.254   6.655  0.1625 -0.3387 -1.5826
 3033SOL    HW220825   2.819   2.244   6.644  0.1068 -0.4267 -0.7989
 3034SOL     OW20826   3.554   4.709   1.301 -0.4101  0.2394  0.7904
 3034SOL    HW120827   3.547   4.802   1.280 -1.7557  0.1300  0.6437
 3034SOL    HW220828   3.602   4.707   1.384 -0.8835  1.1099  1.1034
 3035SOL     OW20829   8.765  10.748   4.095  0.1473  0.0083 -0.2981
 3035SOL    HW120830   8.694  10.686   4.109  0.5789 -0.3600  0.3071
 3035SOL    HW220831   8.778  10.748   4.000 -0.8815  0.3465 -0.4509
 3036SOL     OW20832   4.937   9.603  10.939  0.0398 -0.5608  0.3302
 3036SOL    HW120833   5.028   9.586  10.917  0.5434  1.9544  0.1371
 3036SOL    HW220834   4.940   9.680  10.996 -1.9932  0.0341 -0.2554
 3037SOL     OW20835   4.130   0.452   2.777 -0.2685 -0.2979 -0.3319
 3037SOL    HW120836   4.067   0.523   2.770  1.7448  1.6139  0.0400
 3037SOL    HW220837   4.101   0.401   2.853 -1.2308  0.6586 -0.0447
 3038SOL     OW20838   1.981   0.715   9.667  0.1760  0.1963 -0.2847
 3038SOL    HW120839   2.018   0.627   9.665 -0.6077 -0.1491 -2.7403
 3038SOL    HW220840   1.967   0.737   9.575 -2.0215  1.8694  0.3692
 3039SOL     OW20841   9.433   9.981  12.006  0.3976 -0.2474  0.3878
 3039SOL    HW120842   9.408  10.066  11.969 -0.1731 -0.7847 -0.4910
 3039SOL    HW220843   9.365   9.962  12.071  0.2752 -0.2393  0.2624
 3040SOL     OW20844  10.285  12.452   3.099 -0.6571  0.0304  0.3711
 3040SOL    HW120845  10.348  12.437   3.169 -0.1051  0.7063  0.0311
 3040SOL    HW220846  10.291  12.546   3.081  0.0985 -0.3094 -1.3907
 3041SOL     OW20847   2.984   4.334  11.678 -0.3402  0.2913  0.8718
 3041SOL    HW120848   2.893   4.337  11.708 -0.2884 -0.9065  1.2044
 3041SOL    HW220849   2.979   4.354  11.585 -0.8812  0.8078  1.0045
 3042SOL     OW20850   1.022   9.808   6.773  0.5806 -0.2532  0.2139
 3042SOL    HW120851   0.950   9.748   6.754 -0.7521  1.4112 -0.2218
 3042SOL    HW220852   0.984   9.895   6.761  2.1568  0.7181  1.8077
 3043SOL     OW20853   7.280   1.971   1.147  0.3895  0.8337  0.0660
 3043SOL    HW120854   7.265   1.960   1.241  2.5013 -0.6686  0.2928
 3043SOL    HW220855   7.198   1.942   1.106 -0.1076  0.3165  1.3901
 3044SOL     OW20856   3.628  11.728   7.816  0.6678  0.3781 -0.0298
 3044SOL    HW120857   3.591  11.764   7.897 -0.1623 -1.2220  0.3496
 3044SOL    HW220858   3.674  11.802   7.776 -2.6244  2.4907 -0.3623
 3045SOL     OW20859  12.731   5.602   1.263  0.1698  0.5967 -0.2662
 3045SOL    HW120860  12.783   5.560   1.332 -1.3224 -1.1884 -0.1470
 3045SOL    HW220861  12.646   5.617   1.303 -0.3845  0.5296 -1.3704
 3046SOL     OW20862   9.128   1.761   6.864  0.3194 -0.0278  0.0696
 3046SOL    HW120863   9.086   1.678   6.885  0.2112  0.8306  4.2747
 3046SOL    HW220864   9.057   1.826   6.872  0.8744  0.6981 -0.7659
 3047SOL     OW20865  12.057   7.231   4.861  0.3101  0.8461  0.2821
 3047SOL    HW120866  11.965   7.207   4.873  0.2357  0.4761 -0.9220
 3047SOL    HW220867  12.055   7.299   4.794  0.9304  0.7988  0.2156
 3048SOL     OW20868   5.250   9.237   6.233 -0.4345  0.1275  0.0123
 3048SOL    HW120869   5.245   9.144   6.213  1.9061 -0.1325  0.2908
 3048SOL    HW220870   5.272   9.241   6.326 -0.6305  0.9630  0.0348
 3049SOL     OW20871   7.410   0.380   0.714  1.0717 -0.1291 -0.6283
 3049SOL    HW120872   7.406   0.356   0.807 -0.2006 -0.4591 -0.7502
 3049SOL    HW220873   7.443   0.301   0.670 -1.6120 -1.2341 -0.8383
 3050SOL     OW20874   2.933   8.395   9.166  0.3564 -0.4222  0.0522
 3050SOL    HW120875   2.963   8.484   9.182  0.9446 -0.7461  0.8028
 3050SOL    HW220876   2.912   8.394   9.072 -0.9922  0.8692  0.3042
 3051SOL     OW20877   1.630   6.207  11.195 -0.2755  0.0917  0.0236
 3051SOL    HW120878   1.587   6.285  11.231  1.1632  0.1171  1.8923
 3051SOL    HW220879   1.711   6.201  11.245  0.7020 -1.3557 -1.6451
 3052SOL     OW20880  11.865  12.691   3.430 -0.0702  0.3041 -0.9330
 3052SOL    HW120881  11.780  12.712   3.468  0.3970  0.7949 -0.1439
 3052SOL    HW220882  11.887  12.767   3.376  0.4805  0.7861 -0.0521
 3053SOL     OW20883   3.764   7.930   9.589  0.1848 -0.2465 -0.6544
 3053SOL    HW120884   3.793   8.013   9.549  1.7814 -1.0255 -1.2326
 3053SOL    HW220885   3.805   7.863   9.534 -2.3798 -1.4868 -1.1709
 3054SOL     OW20886   2.212   4.548  12.003 -0.6298 -0.0583 -0.1902
 3054SOL    HW120887   2.186   4.466  12.044 -0.8777  0.6202  1.0724
 3054SOL    HW220888   2.241   4.523  11.915  0.7966 -1.6954  0.6874
 3055SOL     OW20889   6.764  10.782   7.017  0.3006 -0.3018  0.2527
 3055SOL    HW120890   6.687  10.835   6.995 -0.2756 -1.4048 -0.4676
 3055SOL    HW220891   6.757  10.770   7.112  0.1849  0.5076  0.3575
 3056SOL     OW20892   8.251  10.881   1.651  0.0415  0.2916 -0.3981
 3056SOL    HW120893   8.291  10.838   1.727 -0.3498  0.9114  0.1661
 3056SOL    HW220894   8.321  10.934   1.614 -0.0252  0.7384  0.1059
 3057SOL     OW20895   6.829  13.006   3.639 -0.1955  0.5019 -0.3104
 3057SOL    HW120896   6.767  12.934   3.652  1.3725 -0.9716 -0.5096
 3057SOL    HW220897   6.822  13.059   3.718  0.7597 -1.6260  1.3134
 3058SOL     OW20898   8.120   0.995   7.650 -0.2252  0.1339 -0.0667
 3058SOL    HW120899   8.193   1.053   7.630  0.1481 -0.8212 -1.6471
 3058SOL    HW220900   8.154   0.937   7.719  0.5044 -0.2326 -0.7172
 3059SOL     OW20901  13.020   3.947   2.291  0.2631 -0.4234 -0.3596
 3059SOL    HW120902  13.104   3.970   2.331 -0.0464  0.9369 -0.4200
 3059SOL    HW220903  13.019   3.996   2.208 -0.2923 -0.9790 -0.6874
 3060SOL     OW20904   1.324  12.557  11.827 -0.0151 -0.2994  0.1119
 3060SOL    HW120905   1.266  12.614  11.877 -0.3037  1.0045 -1.6155
 3060SOL    HW220906   1.385  12.523  11.892 -1.4344 -0.0946  1.6359
 3061SOL     OW20907   1.857   6.446   5.690 -0.5002  0.4619  0.3181
 3061SOL    HW120908   1.855   6.464   5.597 -2.8252 -1.7123 -0.1707
 3061SOL    HW220909   1.785   6.384   5.704  0.0103  0.4094  3.4879
 3062SOL     OW20910   4.732   5.346   5.486  0.3073 -0.2171  0.2849
 3062SOL    HW120911   4.655   5.303   5.449 -0.3197  0.0782  1.2085
 3062SOL    HW220912   4.732   5.434   5.447 -0.1993  0.0020  0.7692
 3063SOL     OW20913  11.992   7.852   1.460 -0.4249  0.2537 -0.6894
 3063SOL    HW120914  12.005   7.906   1.383 -2.2937  1.5051 -0.2164
 3063SOL    HW220915  11.959   7.769   1.426  0.2025  0.2542 -1.3072
 3064SOL     OW20916   8.150   7.563   8.942  0.0457  0.6155  0.5169
 3064SOL    HW120917   8.075   7.563   8.882 -0.3348  2.0313  0.9356
 3064SOL    HW220918   8.161   7.655   8.965  2.1268  0.4811  0.2336
 3065SOL     OW20919   3.962  12.693  13.482  0.2277 -0.1484 -0.3791
 3065SOL    HW120920   4.021  12.721  13.552  3.3849 -1.1527 -2.4137
 3065SOL    HW220921   3.960  12.768  13.422 -1.0887  0.0731 -0.0911
 3066SOL     OW20922   8.202   8.175   2.408 -0.0094  0.1587 -0.1103
 3066SOL    HW120923   8.279   8.208   2.454 -0.8621  1.7462  0.2602
 3066SOL    HW220924   8.172   8.249   2.356 -0.7595 -0.7257 -0.9805
 3067SOL     OW20925   1.445   3.737   8.506  0.5561 -0.8145 -0.3058
 3067SOL    HW120926   1.495   3.761   8.428 -0.5521 -0.7808 -1.0203
 3067SOL    HW220927   1.357   3.720   8.474 -0.3528  0.7917  1.1738
 3068SOL     OW20928   1.376   4.284   2.490  0.0473  0.1471  0.5088
 3068SOL    HW120929   1.297   4.318   2.447  0.0857  2.4650  2.1196
 3068SOL    HW220930   1.373   4.190   2.473 -2.3858  0.3302 -0.5468
 3069SOL     OW20931  10.957   6.035   0.272 -0.1457  0.2900  0.3004
 3069SOL    HW120932  11.015   6.094   0.225 -2.3192  2.1470 -0.1971
 3069SOL    HW220933  10.985   6.042   0.363  0.3947  1.1964  0.0780
 3070SOL     OW20934   5.503  11.253   8.929  0.1729 -0.6957  0.1116
 3070SOL    HW120935   5.527  11.176   8.876  0.4360 -0.5882  0.0735
 3070SOL    HW220936   5.585  11.279   8.971  0.0394 -0.5616  0.2870
 3071SOL     OW20937   3.223   4.921  13.170 -0.1478 -0.0647  0.1547
 3071SOL    HW120938   3.134   4.898  13.198 -1.3044  2.1689 -1.3647
 3071SOL    HW220939   3.233   4.875  13.086 -0.5498  0.9646 -0.4762
 3072SOL     OW20940   2.333   0.564   8.529  0.1696  0.1112 -0.3036
 3072SOL    HW120941   2.251   0.601   8.494  0.5183 -0.6357 -1.9800
 3072SOL    HW220942   2.305   0.516   8.607 -0.8111  0.8063 -0.1906
 3073SOL     OW20943  13.610   3.148   8.314 -0.4609 -0.1983 -0.2812
 3073SOL    HW120944  13.597   3.059   8.345  0.3912  0.0935  0.9703
 3073SOL    HW220945  13.534   3.166   8.259 -1.7842 -0.9071  1.2715
 3074SOL     OW20946   7.841   5.322   9.307 -0.3957 -0.0258 -0.1652
 3074SOL    HW120947   7.911   5.260   9.287 -0.3372 -0.4502  1.2238
 3074SOL    HW220948   7.767   5.292   9.255 -0.4940 -1.5437  0.7820
 3075SOL     OW20949  13.520   1.839   4.933  0.0302  0.1798  0.3812
 3075SOL    HW120950  13.564   1.817   4.851 -0.5851 -1.9031  0.5655
 3075SOL    HW220951  13.491   1.929   4.921 -0.3900 -0.1892 -1.8527
 3076SOL     OW20952   5.188   8.116  13.518  0.4322 -0.0538  0.4620
 3076SOL    HW120953   5.196   8.047  13.452 -0.1062 -1.9387  2.2800
 3076SOL    HW220954   5.277   8.128  13.551  0.4281 -0.3088  0.5654
 3077SOL     OW20955  13.704   0.517  11.449 -0.1193 -0.1757  0.0432
 3077SOL    HW120956  13.737   0.452  11.511 -2.1093 -2.5070 -1.1529
 3077SOL    HW220957  13.664   0.585  11.504 -1.5215 -1.9984  1.4013
 3078SOL     OW20958  12.064   9.645   4.379 -0.4137 -0.2280 -0.3056
 3078SOL    HW120959  12.081   9.551   4.378  0.2653 -0.1173 -0.0300
 3078SOL    HW220960  12.142   9.684   4.340  1.0909  0.4373  3.0325
 3079SOL     OW20961  13.111   3.923   6.982  0.1551 -0.3915  0.1742
 3079SOL    HW120962  13.045   3.913   7.050  0.0584 -0.2287  0.1067
 3079SOL    HW220963  13.063   3.962   6.908  0.5678  0.8342  0.5333
 3080SOL     OW20964   1.697  11.562   7.846  0.0758  0.4737  0.6578
 3080SOL    HW120965   1.651  11.645   7.836 -1.4642 -0.6308 -3.5500
 3080SOL    HW220966   1.630  11.501   7.879 -0.9369 -0.4952 -2.8115
 3081SOL     OW20967  12.849  10.208   6.993  0.3746  0.7071 -0.1961
 3081SOL    HW120968  12.922  10.147   7.002  0.0375  0.3625  0.2269
 3081SOL    HW220969  12.873  10.263   6.918  1.3548  1.0048  0.3157
 3082SOL     OW20970  12.638   3.642   6.786  0.3558  0.4897  0.0542
 3082SOL    HW120971  12.712   3.582   6.778 -0.2966 -0.1389 -2.0921
 3082SOL    HW220972  12.676   3.723   6.819  2.3649  0.7134 -2.4503
 3083SOL     OW20973   9.112   2.572   0.785 -0.0083  0.5863  0.0280
 3083SOL    HW120974   9.131   2.602   0.696  2.0502 -3.2760 -1.0501
 3083SOL    HW220975   9.055   2.496   0.773  0.1269  0.1155  2.0221
 3084SOL     OW20976  12.567   4.161  11.328 -0.4499  0.5904 -0.1785
 3084SOL    HW120977  12.565   4.106  11.250 -1.0457  1.6879 -0.9646
 3084SOL    HW220978  12.515   4.239  11.304 -1.1578  0.6792  1.5031
 3085SOL     OW20979  12.401   8.916   6.029  0.2227 -0.5063 -0.4555
 3085SOL    HW120980  12.368   8.855   5.962  0.9828  0.1923 -1.4999
 3085SOL    HW220981  12.324   8.937   6.082 -0.5437 -0.5860 -1.5026
 3086SOL     OW20982  10.543   2.714  10.377  0.1161 -0.0889 -0.1075
 3086SOL    HW120983  10.517   2.686  10.289  1.2316 -1.0522 -0.1684
 3086SOL    HW220984  10.561   2.807  10.369  0.4933 -0.2242 -0.9917
 3087SOL     OW20985   9.731   2.348  10.443  0.0083  0.7472  0.4426
 3087SOL    HW120986   9.712   2.329  10.535 -2.6547 -1.0777 -0.3509
 3087SOL    HW220987   9.759   2.439  10.443  2.2419  0.2118  3.2615
 3088SOL     OW20988   1.303   5.882  11.491 -0.3728 -0.2224  0.0986
 3088SOL    HW120989   1.306   5.978  11.485  0.2443 -0.2514 -0.1665
 3088SOL    HW220990   1.291   5.864  11.584  1.2340  0.1042  0.4019
 3089SOL     OW20991   2.305   9.782  11.189 -0.0752 -0.0271 -0.2539
 3089SOL    HW120992   2.372   9.716  11.175 -1.2490 -1.5984  1.1273
 3089SOL    HW220993   2.237   9.762  11.123 -0.3521 -0.0785  0.0449
 3090SOL     OW20994   4.199  12.946  12.384 -0.1122 -0.4042  0.2305
 3090SOL    HW120995   4.287  12.922  12.355 -0.3376  0.4960 -1.3294
 3090SOL    HW220996   4.166  12.868  12.428  1.4749 -0.7357  0.9097
 3091SOL     OW20997  11.674   2.042   4.780  0.4042  0.1010 -0.3783
 3091SOL    HW120998  11.759   2.000   4.792 -0.0330 -0.7232  0.0221
 3091SOL    HW220999  11.636   1.998   4.704  0.4906  0.7344 -0.7920
 3092SOL     OW21000   7.759  10.791   2.535  0.7317  0.4195  0.4976
 3092SOL    HW121001   7.726  10.702   2.550 -0.1909  0.7223  0.3538
 3092SOL    HW221002   7.681  10.846   2.537  0.9904  0.9675 -1.6324
 3093SOL     OW21003   4.524  10.000   6.738  0.0979  0.0166 -0.3542
 3093SOL    HW121004   4.448   9.944   6.725 -0.2608  0.4420 -0.1156
 3093SOL    HW221005   4.517  10.029   6.829 -0.3328  1.3342 -0.7923
 3094SOL     OW21006   1.646   2.277   4.309 -0.2162 -0.3841  0.3739
 3094SOL    HW121007   1.722   2.232   4.348 -0.7774 -0.6348  1.2106
 3094SOL    HW221008   1.605   2.211   4.253  0.6099 -0.0144 -0.7144
 3095SOL     OW21009  12.045   2.341   4.758  0.2454 -0.2213  0.0505
 3095SOL    HW121010  12.051   2.266   4.818  1.9184 -1.1238 -1.1593
 3095SOL    HW221011  11.990   2.310   4.686  0.4586 -0.0824 -0.1738
 3096SOL     OW21012   0.586   6.722  11.490 -0.4343 -0.2012 -0.5368
 3096SOL    HW121013   0.631   6.801  11.520 -1.2982  0.4055 -0.8212
 3096SOL    HW221014   0.583   6.730  11.395 -3.6945  1.2469 -0.4282
 3097SOL     OW21015   1.383  13.616   8.528  0.4244  0.4162  0.3827
 3097SOL    HW121016   1.414  13.614   8.619  0.4051  1.3250  0.4121
 3097SOL    HW221017   1.459  13.644   8.477  0.8732 -1.4889 -0.0881
 3098SOL     OW21018   3.449   9.620   9.793  0.2580 -0.0753 -0.3807
 3098SOL    HW121019   3.499   9.689   9.749  1.5070 -1.8451 -1.8330
 3098SOL    HW221020   3.380   9.598   9.731  0.9686 -1.3740 -0.7358
 3099SOL     OW21021   6.048   1.194  11.088 -0.1920  0.3248  0.0278
 3099SOL    HW121022   6.118   1.154  11.037  1.5300  0.4146  2.1790
 3099SOL    HW221023   6.068   1.288  11.087  0.6379  0.2003  1.8778
 3100SOL     OW21024   9.177   5.040   8.996  0.1198  0.2792 -0.0054
 3100SOL    HW121025   9.093   5.001   8.968 -0.1068 -0.1363  1.1839
 3100SOL    HW221026   9.155   5.087   9.076  1.1237 -0.2845  0.6142
 3101SOL     OW21027   0.148   5.007   7.698 -0.4812  0.1829  0.1301
 3101SOL    HW121028   0.105   4.971   7.775 -1.0902  1.9247  0.6562
 3101SOL    HW221029   0.236   4.971   7.700 -0.1556  0.9440  2.2178
 3102SOL     OW21030   8.252  13.660   3.320 -0.1097 -0.0894 -0.8240
 3102SOL    HW121031   8.288  13.735   3.273 -0.5747  0.2489 -0.6425
 3102SOL    HW221032   8.302  13.585   3.287  1.4057  0.4667  0.0658
 3103SOL     OW21033   1.693   0.999   7.077  0.0743  0.4940 -0.3119
 3103SOL    HW121034   1.725   1.087   7.057  0.3607  0.5680  0.4494
 3103SOL    HW221035   1.622   0.985   7.015  0.6892  0.8633 -1.1083
 3104SOL     OW21036  11.726   7.134   0.577 -0.3005  0.1162  0.1588
 3104SOL    HW121037  11.735   7.058   0.635 -1.5035 -0.3741 -0.2531
 3104SOL    HW221038  11.633   7.133   0.551  0.0738  0.6468 -1.3107
 3105SOL     OW21039  13.605   7.668   6.377 -0.3390  0.1829  0.1934
 3105SOL    HW121040  13.525   7.639   6.421 -1.4849  0.0058 -1.9004
 3105SOL    HW221041  13.595   7.763   6.368  0.5807  0.4410  1.5598
 3106SOL     OW21042  12.854   3.561   5.537 -0.0089  0.2568  0.4435
 3106SOL    HW121043  12.797   3.571   5.614 -0.2302 -0.7439  0.4189
 3106SOL    HW221044  12.875   3.651   5.511  0.5187  0.6073  1.9956
 3107SOL     OW21045   6.940   5.520   2.133 -0.2073 -0.0183 -0.0154
 3107SOL    HW121046   6.910   5.611   2.121  1.2748  0.7276  1.4977
 3107SOL    HW221047   7.020   5.528   2.185  0.1772 -2.1933 -0.1855
 3108SOL     OW21048   0.858  13.579   4.540 -0.2838 -0.2769 -0.1926
 3108SOL    HW121049   0.938  13.629   4.525  0.5616 -1.1350  1.2331
 3108SOL    HW221050   0.835  13.544   4.454  0.4478  0.5901 -0.7592
 3109SOL     OW21051   3.219   6.054   8.402  0.3526  0.2056 -0.1256
 3109SOL    HW121052   3.222   6.149   8.409  0.1797  0.1598  0.6436
 3109SOL    HW221053   3.132   6.030   8.436  0.3966 -0.2277 -0.3037
 3110SOL     OW21054   6.910   1.349   2.771  0.1865 -0.5837  0.4366
 3110SOL    HW121055   6.944   1.378   2.686 -0.7816  0.3068  0.3386
 3110SOL    HW221056   6.952   1.264   2.786  1.8596  0.1253 -0.0234
 3111SOL     OW21057  13.168   2.675   7.129  0.1690 -0.4857 -0.6093
 3111SOL    HW121058  13.263   2.684   7.119  0.1535  1.1575  0.4963
 3111SOL    HW221059  13.157   2.603   7.191  0.7128 -0.1956 -0.1731
 3112SOL     OW21060  10.414   7.352   1.797  0.0872  0.0860  0.2903
 3112SOL    HW121061  10.329   7.318   1.826  1.2838 -4.4861 -0.7293
 3112SOL    HW221062  10.411   7.344   1.701  1.8302 -0.7325  0.2745
 3113SOL     OW21063   5.516  10.252   5.296  0.0571  0.4600  0.1178
 3113SOL    HW121064   5.497  10.335   5.338  0.7073  0.0483  1.2787
 3113SOL    HW221065   5.474  10.257   5.210 -0.8967  1.5103  0.6377
 3114SOL     OW21066   7.149   2.440   2.678  0.2414 -0.6343 -0.7865
 3114SOL    HW121067   7.217   2.489   2.724 -0.8670  1.1144 -0.9016
 3114SOL    HW221068   7.176   2.440   2.587 -0.1096  0.4823 -0.9089
 3115SOL     OW21069   0.216   4.710  12.564 -0.3760 -0.1096 -0.4945
 3115SOL    HW121070   0.203   4.654  12.640  0.6132 -0.9892 -0.9511
 3115SOL    HW221071   0.147   4.684  12.503  1.1005 -2.1321 -1.4159
 3116SOL     OW21072   2.091  12.528   1.056 -0.2130  0.4810  0.4293
 3116SOL    HW121073   2.077  12.458   0.992  0.3024  0.3804  0.4187
 3116SOL    HW221074   2.174  12.567   1.030  0.6006 -0.3151  1.7140
 3117SOL     OW21075   6.633   2.830  13.152 -0.1710  0.0695 -0.1693
 3117SOL    HW121076   6.673   2.912  13.181 -1.5243 -0.1433  2.7277
 3117SOL    HW221077   6.697   2.763  13.173 -0.7036  0.0359  1.5138
 3118SOL     OW21078   5.856   3.921   7.313 -0.4481 -0.0461 -0.0847
 3118SOL    HW121079   5.855   4.016   7.309  2.5072  0.0982  0.3182
 3118SOL    HW221080   5.793   3.893   7.247 -2.4975  2.1203  0.7997
 3119SOL     OW21081  12.563   4.311   7.783  0.1168  0.4169  0.4913
 3119SOL    HW121082  12.511   4.282   7.708 -0.0396 -1.4310  1.2686
 3119SOL    HW221083  12.651   4.324   7.747  0.4737 -2.1655  0.2568
 3120SOL     OW21084   2.769   2.038   9.990 -0.6013  0.3674 -0.0279
 3120SOL    HW121085   2.747   2.108  10.051 -0.7547 -0.6332  1.1033
 3120SOL    HW221086   2.848   2.068   9.945  0.0584  0.7248  1.3451
 3121SOL     OW21087   3.914   4.267  11.418  0.3200 -0.2585  0.4466
 3121SOL    HW121088   3.966   4.340  11.450  0.5121 -0.3034  0.2459
 3121SOL    HW221089   3.963   4.189  11.445  0.5960 -0.2923 -0.1316
 3122SOL     OW21090  13.227   4.496  12.768  0.4642 -0.2356 -0.0820
 3122SOL    HW121091  13.211   4.413  12.813  2.9554 -0.9932 -0.4235
 3122SOL    HW221092  13.259   4.554  12.837 -0.5241  0.2037  0.0128
 3123SOL     OW21093   8.954   2.019  12.235  0.0490  0.7899  0.2270
 3123SOL    HW121094   8.896   2.033  12.160  0.3658 -0.3520 -0.2461
 3123SOL    HW221095   8.894   2.013  12.310 -0.7238 -2.5004 -0.5080
 3124SOL     OW21096   9.252   5.263   0.500 -0.6990 -0.0393 -0.1566
 3124SOL    HW121097   9.327   5.215   0.465 -0.6052  0.3198 -0.4406
 3124SOL    HW221098   9.287   5.308   0.577 -0.6672 -0.0118 -0.1874
 3125SOL     OW21099   7.045   2.334   0.580 -0.2234  0.6326  0.0197
 3125SOL    HW121100   7.091   2.413   0.608 -0.7317  1.3082 -0.9748
 3125SOL    HW221101   6.991   2.309   0.656  0.7513  0.5877  0.7226
 3126SOL     OW21102  11.437   5.009   2.084 -0.5789  0.1452 -0.3754
 3126SOL    HW121103  11.512   5.045   2.037 -0.8295  2.0753  0.6006
 3126SOL    HW221104  11.437   5.057   2.167 -1.7041 -1.2774  0.4726
 3127SOL     OW21105   8.039   9.512  13.719  0.1678  0.6755  0.1518
 3127SOL    HW121106   7.991   9.563  13.654  4.4680  3.9883 -0.9193
 3127SOL    HW221107   8.086   9.445  13.668  0.8764  1.0354  0.3181
 3128SOL     OW21108   7.893   7.871  10.227 -0.2041 -0.2348 -0.4391
 3128SOL    HW121109   7.848   7.788  10.213 -1.0667 -0.0591  1.0596
 3128SOL    HW221110   7.829   7.937  10.203 -0.2147  0.0043  0.2299
 3129SOL     OW21111   2.571   5.401  11.866 -0.6713  0.0452 -0.2111
 3129SOL    HW121112   2.555   5.495  11.859  0.2451  0.3899  1.5752
 3129SOL    HW221113   2.666   5.394  11.872 -0.7341 -1.0035 -0.2726
 3130SOL     OW21114  12.590   4.413   0.398  0.1796 -0.5053 -0.2357
 3130SOL    HW121115  12.502   4.380   0.416 -0.2745  0.4344 -0.6431
 3130SOL    HW221116  12.641   4.389   0.476 -0.5064 -0.8333  0.1184
 3131SOL     OW21117   8.567  11.249   4.263 -0.0967 -0.0070  0.3046
 3131SOL    HW121118   8.561  11.301   4.183  0.3911 -0.2627  0.0984
 3131SOL    HW221119   8.486  11.268   4.310 -0.9729 -0.8152 -0.8357
 3132SOL     OW21120   0.183   9.451   4.844  0.1900 -0.5624 -0.5166
 3132SOL    HW121121   0.177   9.440   4.939  0.2379  1.0137 -0.2962
 3132SOL    HW221122   0.250   9.389   4.816 -0.4534 -1.6888  0.3321
 3133SOL     OW21123  12.665  11.079  10.342 -0.1455  0.0730 -0.1292
 3133SOL    HW121124  12.671  11.157  10.398 -2.5689  0.3192 -0.1445
 3133SOL    HW221125  12.640  11.113  10.256 -1.8025 -0.7305  0.0050
 3134SOL     OW21126   9.081   0.974   7.306  0.3429 -0.3909  0.0960
 3134SOL    HW121127   8.991   0.945   7.297  0.0260  0.6649 -0.3581
 3134SOL    HW221128   9.132   0.916   7.250 -0.0279 -1.0706  0.4557
 3135SOL     OW21129  11.418   6.551   0.510  0.3808  0.3105 -0.3154
 3135SOL    HW121130  11.410   6.559   0.605 -1.0269  0.3132 -0.4089
 3135SOL    HW221131  11.506   6.517   0.496  1.3631  2.1667  0.8873
 3136SOL     OW21132  11.848   3.457  10.257  0.0908 -0.3791 -0.2831
 3136SOL    HW121133  11.813   3.420  10.338 -1.3152  0.0093 -0.6797
 3136SOL    HW221134  11.928   3.502  10.283 -0.7468  0.3969  1.0327
 3137SOL     OW21135  11.841   7.136  13.290 -0.0350  0.1081 -1.1267
 3137SOL    HW121136  11.789   7.056  13.298  0.2421  0.0943  1.1229
 3137SOL    HW221137  11.781   7.206  13.318  1.3662 -0.0545  2.9473
 3138SOL     OW21138   1.170   4.428  10.789 -0.0959 -0.1659 -0.1196
 3138SOL    HW121139   1.103   4.471  10.841  0.6909 -0.5591  1.2813
 3138SOL    HW221140   1.244   4.489  10.790  0.5282 -0.8967  0.7140
 3139SOL     OW21141   5.165   1.179   9.142  0.3082  0.3195  0.4761
 3139SOL    HW121142   5.203   1.248   9.088 -1.0334  1.1847  0.5816
 3139SOL    HW221143   5.219   1.102   9.124  1.4362  1.2206 -0.1487
 3140SOL     OW21144  12.519   4.893   6.371  0.9511 -0.1490 -0.0895
 3140SOL    HW121145  12.609   4.861   6.368  1.3303  0.5679  1.9088
 3140SOL    HW221146  12.524   4.980   6.332  1.4362  0.4207  1.1665
 3141SOL     OW21147   5.606   7.595  12.647  0.4189  0.1459 -0.2311
 3141SOL    HW121148   5.561   7.565  12.567  1.0408 -1.0123 -0.1691
 3141SOL    HW221149   5.604   7.690  12.641 -1.5672  0.1417 -0.4952
 3142SOL     OW21150   9.296   2.805   7.653  0.0765 -0.5111  0.2964
 3142SOL    HW121151   9.390   2.816   7.669  0.1726 -2.1652  1.1616
 3142SOL    HW221152   9.263   2.766   7.735 -1.6176  1.1856  0.4932
 3143SOL     OW21153   6.332   0.357   1.957 -0.3103 -0.2459  0.1110
 3143SOL    HW121154   6.261   0.350   1.893 -1.6354 -3.8921  1.7252
 3143SOL    HW221155   6.362   0.268   1.971  1.5389  0.6533  2.8164
 3144SOL     OW21156   5.996   5.134  12.144 -0.0893 -0.5868  0.1918
 3144SOL    HW121157   6.023   5.226  12.148 -2.2648  0.1837 -1.2652
 3144SOL    HW221158   6.000   5.104  12.235  0.6683  0.9363  0.6913
 3145SOL     OW21159   8.397   6.869   2.972  0.2948  0.3918 -0.4522
 3145SOL    HW121160   8.479   6.850   2.927  0.4700 -0.7449  0.3046
 3145SOL    HW221161   8.424   6.896   3.059 -0.1243 -0.2057 -0.1284
 3146SOL     OW21162   6.935   8.186  12.693  0.7149 -0.5136  0.3028
 3146SOL    HW121163   6.934   8.239  12.613  0.6147 -0.0488  0.6077
 3146SOL    HW221164   6.845   8.154  12.702 -0.3676  2.5833  2.2708
 3147SOL     OW21165   5.978   9.534  11.567 -0.0303  0.0338 -0.4944
 3147SOL    HW121166   5.936   9.618  11.552 -0.4072 -0.1544 -0.5075
 3147SOL    HW221167   6.024   9.544  11.650 -1.0249 -0.1112  0.0856
 3148SOL     OW21168   6.669   4.432  11.831 -0.1504 -0.2365 -0.0709
 3148SOL    HW121169   6.573   4.430  11.840 -0.1659 -0.6614 -0.2711
 3148SOL    HW221170   6.684   4.465  11.743 -0.0830  0.8575  0.3444
 3149SOL     OW21171   4.532  13.551   5.822 -1.0888  0.6529 -0.1838
 3149SOL    HW121172   4.580  13.489   5.766 -1.4103 -0.7169  0.9955
 3149SOL    HW221173   4.598  13.583   5.883 -1.1538  0.6813 -0.1292
 3150SOL     OW21174   0.664   4.469   4.311 -0.3701 -0.5513  0.0871
 3150SOL    HW121175   0.590   4.424   4.269  0.3518 -1.5951 -0.0995
 3150SOL    HW221176   0.650   4.561   4.290 -1.3239 -0.7918 -0.4203
 3151SOL     OW21177   5.987  13.151   5.821 -0.0329  0.1455 -0.1884
 3151SOL    HW121178   5.980  13.172   5.728 -1.9954  0.1597 -0.0659
 3151SOL    HW221179   6.003  13.057   5.823  1.8206  0.4015 -0.5420
 3152SOL     OW21180   4.698   7.218   2.268 -0.4595  0.3495 -0.8469
 3152SOL    HW121181   4.729   7.233   2.179  0.5966  2.5917 -0.1995
 3152SOL    HW221182   4.643   7.295   2.287  0.2395  0.4887  0.7706
 3153SOL     OW21183   1.339   7.893  12.347 -0.0981 -0.2143 -0.3474
 3153SOL    HW121184   1.333   7.823  12.281 -0.6243 -0.3652 -0.1460
 3153SOL    HW221185   1.309   7.971  12.301  1.4337  0.0893 -0.8607
 3154SOL     OW21186  10.990  12.724  12.836  0.0286 -0.0250 -0.3429
 3154SOL    HW121187  11.067  12.707  12.890  0.8574  1.5002 -0.9563
 3154SOL    HW221188  10.980  12.645  12.783 -0.9323 -1.6415  2.0729
 3155SOL     OW21189  10.320   5.564   3.116 -0.1375 -0.3401 -0.3510
 3155SOL    HW121190  10.252   5.619   3.156 -0.4376  0.2199 -1.5931
 3155SOL    HW221191  10.271   5.494   3.073  0.2132 -1.2506  0.6802
 3156SOL     OW21192   6.091   8.376   3.466 -0.5929 -0.2263  0.1916
 3156SOL    HW121193   6.156   8.317   3.429 -0.7171  0.2428 -0.8106
 3156SOL    HW221194   6.009   8.326   3.463 -0.2634 -0.9162  1.7011
 3157SOL     OW21195   6.097  10.966   1.876 -0.8623 -0.5601 -0.4951
 3157SOL    HW121196   6.148  11.046   1.865 -1.6665  0.1757  0.8151
 3157SOL    HW221197   6.139  10.902   1.819 -0.6331  0.9876 -2.1454
 3158SOL     OW21198   8.865   8.365   9.995  0.9588  0.1765 -0.4364
 3158SOL    HW121199   8.947   8.414   9.991  1.6154 -0.7817  0.5548
 3158SOL    HW221200   8.889   8.281  10.035 -0.5897  0.0593  0.3476
 3159SOL     OW21201   9.344   2.115   3.451 -0.0972  0.2533 -0.3341
 3159SOL    HW121202   9.275   2.176   3.479 -0.6082 -0.0167 -0.9673
 3159SOL    HW221203   9.296   2.039   3.419  0.5279 -0.3004  0.0452
 3160SOL     OW21204   6.173   3.540   7.872  0.4241 -0.6809  0.1816
 3160SOL    HW121205   6.083   3.508   7.869 -0.1946  0.9340 -2.9304
 3160SOL    HW221206   6.176   3.598   7.948 -1.2290 -0.6199  0.2331
 3161SOL     OW21207   8.218   9.668   3.054  0.8312 -0.2635 -0.2593
 3161SOL    HW121208   8.289   9.697   2.996  1.8253 -1.6330  0.2021
 3161SOL    HW221209   8.209   9.574   3.035 -0.0314 -0.3550  0.5474
 3162SOL     OW21210  13.338   2.477   2.393 -0.1403  0.0378  0.3400
 3162SOL    HW121211  13.371   2.567   2.384 -0.6400  0.1679 -0.1961
 3162SOL    HW221212  13.295   2.458   2.310 -1.6986 -0.0245  1.1224
 3163SOL     OW21213  13.426  13.197   0.401 -0.1004 -0.2606 -0.2209
 3163SOL    HW121214  13.340  13.158   0.389 -0.2606 -0.0340  0.1554
 3163SOL    HW221215  13.461  13.207   0.313 -0.5048 -0.2586 -0.3821
 3164SOL     OW21216   2.102   8.604   4.500  0.1559  0.2362  0.0267
 3164SOL    HW121217   2.045   8.539   4.542  0.9012  0.4730  1.4711
 3164SOL    HW221218   2.158   8.552   4.442  1.3525 -0.5813  1.8265
 3165SOL     OW21219   9.017  13.137   5.987  0.1095 -0.2441  0.2781
 3165SOL    HW121220   9.001  13.223   6.026  0.0595  0.7739 -1.8695
 3165SOL    HW221221   8.934  13.114   5.944  0.6994 -0.4504 -0.7931
 3166SOL     OW21222   7.093   4.509   6.317 -0.2631 -0.1834 -0.1294
 3166SOL    HW121223   7.111   4.417   6.299  3.1772  0.1227  1.1046
 3166SOL    HW221224   7.084   4.514   6.412 -0.8365  0.7183 -0.2153
 3167SOL     OW21225   3.543   3.421   5.987  0.6499 -0.4554 -0.0247
 3167SOL    HW121226   3.524   3.481   6.059 -0.7793 -1.7283  0.7018
 3167SOL    HW221227   3.630   3.448   5.956 -0.6690  3.2414 -1.0461
 3168SOL     OW21228   0.132  13.676   7.756  0.2162  0.2069 -0.3317
 3168SOL    HW121229   0.140  13.755   7.704 -2.6323  0.4045 -0.6538
 3168SOL    HW221230   0.197  13.616   7.720  0.6834  1.5259 -1.7687
 3169SOL     OW21231   9.424   4.814   9.429 -0.0528  0.0617 -0.0329
 3169SOL    HW121232   9.338   4.823   9.389  0.6355  1.6224 -1.2753
 3169SOL    HW221233   9.477   4.771   9.362  1.2148  3.0329 -1.0681
 3170SOL     OW21234  10.290   1.922   4.230 -0.6094  0.1122  0.0693
 3170SOL    HW121235  10.252   1.999   4.274 -0.8677  0.3458 -0.5525
 3170SOL    HW221236  10.371   1.906   4.277 -1.6373 -0.6335  1.6877
 3171SOL     OW21237  13.663   1.408   1.433  0.4004  0.3834 -0.2613
 3171SOL    HW121238  13.634   1.428   1.344 -1.6782 -0.2143  0.2222
 3171SOL    HW221239  13.646   1.314   1.443 -0.5762  0.6776  1.1391
 3172SOL     OW21240   3.380  11.916   5.264 -0.5440 -0.3496 -0.2659
 3172SOL    HW121241   3.365  11.958   5.179 -0.1970  0.5789  0.1154
 3172SOL    HW221242   3.408  11.827   5.243 -0.6057 -0.1720 -1.1190
 3173SOL     OW21243   7.144   1.998   9.336 -0.8012  0.5911  0.4250
 3173SOL    HW121244   7.238   1.989   9.350 -0.7415 -0.9118 -0.7337
 3173SOL    HW221245   7.108   2.014   9.423  0.6528  2.8684  0.7038
 3174SOL     OW21246   5.068   6.271  11.484 -0.6055 -0.1873 -0.2517
 3174SOL    HW121247   5.108   6.252  11.568 -0.4412 -0.6640 -0.4347
 3174SOL    HW221248   5.062   6.366  11.481 -1.1224 -0.1938  0.5330
 3175SOL     OW21249   4.170   7.086   8.824  0.9374  0.0307  0.0453
 3175SOL    HW121250   4.126   7.161   8.862 -0.3610 -0.7326  0.0986
 3175SOL    HW221251   4.219   7.048   8.897 -2.1186 -1.8617  1.3244
 3176SOL     OW21252   8.421   8.804  12.918 -0.2202  0.4502 -0.1116
 3176SOL    HW121253   8.428   8.816  12.824  0.7858  2.0589  0.1185
 3176SOL    HW221254   8.328   8.811  12.937 -0.2895  1.7289 -0.8250
 3177SOL     OW21255   1.705   6.881   2.914  0.2703 -0.2013  0.1963
 3177SOL    HW121256   1.779   6.937   2.937  0.1509 -0.0205  0.1397
 3177SOL    HW221257   1.629   6.923   2.955  0.2582 -0.6002  0.5878
 3178SOL     OW21258   7.902   4.174   5.883  0.0375  1.0306  0.0659
 3178SOL    HW121259   7.958   4.251   5.894 -1.7264  2.1796  1.4421
 3178SOL    HW221260   7.917   4.123   5.962  0.9656  0.0599 -0.7033
 3179SOL     OW21261   2.228   2.250   0.224 -0.4939  0.1612 -0.2018
 3179SOL    HW121262   2.188   2.165   0.205 -0.2594  0.1744 -0.7893
 3179SOL    HW221263   2.295   2.232   0.289  1.2411 -0.5421 -2.0707
 3180SOL     OW21264   9.654   6.098   9.955 -0.2659 -0.1380  0.0719
 3180SOL    HW121265   9.660   6.194   9.948  0.9896 -0.0722  1.4504
 3180SOL    HW221266   9.682   6.067   9.869 -0.5581  0.7268 -0.3535
 3181SOL     OW21267   0.896   6.764   6.007 -0.3276 -0.0896 -0.2999
 3181SOL    HW121268   0.972   6.804   6.050 -0.3661 -1.4358  1.0942
 3181SOL    HW221269   0.932   6.723   5.929  0.2164  0.0946 -0.1522
 3182SOL     OW21270   5.980   9.275   9.617 -0.4386 -0.3951 -0.0621
 3182SOL    HW121271   6.017   9.332   9.684  1.7360 -0.3121 -1.2197
 3182SOL    HW221272   5.937   9.335   9.556  0.7404 -0.0666 -0.6050
 3183SOL     OW21273  10.253  10.688   9.983 -0.7073 -0.3242 -0.4737
 3183SOL    HW121274  10.242  10.776   9.947 -1.0455  0.9001  2.3408
 3183SOL    HW221275  10.344  10.666   9.966  0.1604  1.7448  1.0102
 3184SOL     OW21276   3.746  13.414   5.646 -0.0536  0.2858  0.6953
 3184SOL    HW121277   3.754  13.330   5.691 -2.1061  0.9462  2.4611
 3184SOL    HW221278   3.729  13.391   5.554 -1.4567 -1.2864  1.3062
 3185SOL     OW21279   4.725   3.132   3.847 -0.7523  0.3882 -0.1547
 3185SOL    HW121280   4.672   3.174   3.915  0.4099  2.4608 -0.4356
 3185SOL    HW221281   4.765   3.057   3.891 -0.9873  0.9734  1.1113
 3186SOL     OW21282  10.479   2.174   4.094  0.1185  0.1540 -0.1318
 3186SOL    HW121283  10.453   2.111   4.027 -1.6901 -0.5240  1.1370
 3186SOL    HW221284  10.559   2.137   4.132 -0.0671 -0.5875 -0.4396
 3187SOL     OW21285   2.419   0.291   3.158  0.4384 -0.2542  0.1704
 3187SOL    HW121286   2.443   0.335   3.240  1.5486  0.3989 -0.4734
 3187SOL    HW221287   2.447   0.200   3.171  2.1775  0.2002 -0.0555
 3188SOL     OW21288   9.066   6.502   8.096  1.2764 -0.6614 -0.1292
 3188SOL    HW121289   9.093   6.588   8.127  2.2898 -1.0911  0.2037
 3188SOL    HW221290   8.971   6.508   8.087  1.3445  0.4940 -0.1274
 3189SOL     OW21291   6.600  13.219   9.862  0.2168  0.1986  0.7256
 3189SOL    HW121292   6.647  13.176   9.933 -0.9270  1.7625  2.5441
 3189SOL    HW221293   6.628  13.311   9.866 -0.6196  0.5151 -0.1813
 3190SOL     OW21294   9.635   2.684   3.730  0.0944 -0.3502 -0.2972
 3190SOL    HW121295   9.597   2.606   3.690  0.4873 -0.6603 -0.0777
 3190SOL    HW221296   9.621   2.753   3.666 -1.0591 -0.3978 -0.1133
 3191SOL     OW21297   6.619   7.070  12.367  0.4574 -0.2432  0.4272
 3191SOL    HW121298   6.657   6.982  12.357 -2.3613 -1.3370 -2.6361
 3191SOL    HW221299   6.525   7.057  12.353 -0.0234  3.3353 -0.7389
 3192SOL     OW21300   5.443   4.685  11.566 -0.3417 -0.6727  0.2373
 3192SOL    HW121301   5.512   4.685  11.632  1.6437  0.8567 -1.6969
 3192SOL    HW221302   5.431   4.593  11.544  0.8713 -0.9902  0.8173
 3193SOL     OW21303   2.150   9.071   3.683  0.2348 -0.3169  0.1191
 3193SOL    HW121304   2.087   9.000   3.696  0.6191 -0.6055  0.4381
 3193SOL    HW221305   2.173   9.099   3.772  1.2874 -0.8662  0.0266
 3194SOL     OW21306   0.864   9.537   4.732  0.0583 -0.1325  0.2117
 3194SOL    HW121307   0.913   9.580   4.803  1.8901 -2.8916  0.7655
 3194SOL    HW221308   0.775   9.530   4.766  0.2676  1.0065  1.0847
 3195SOL     OW21309   7.790  11.215   9.964  0.3790 -0.1860  0.2644
 3195SOL    HW121310   7.708  11.216   9.915  1.2178  2.4267 -1.2623
 3195SOL    HW221311   7.788  11.132  10.012 -2.9535 -0.3687  0.0196
 3196SOL     OW21312   6.816   9.110   0.281 -0.0911  0.1840 -0.0968
 3196SOL    HW121313   6.736   9.060   0.299 -0.7409  1.1372 -0.2138
 3196SOL    HW221314   6.817   9.119   0.186 -0.2423  0.7861 -0.0458
 3197SOL     OW21315   9.405   1.035   0.061 -0.0581 -0.4609 -0.0318
 3197SOL    HW121316   9.367   0.992   0.138  1.1936  0.5390  1.1936
 3197SOL    HW221317   9.423   0.964   0.000  0.6761 -1.5299  1.3840
 3198SOL     OW21318   3.617   8.052   2.917  0.4228  1.1887  0.1074
 3198SOL    HW121319   3.529   8.016   2.914  0.4370  1.2145 -1.5048
 3198SOL    HW221320   3.643   8.045   3.009 -0.2883 -1.1793  0.2025
 3199SOL     OW21321   6.536  10.111   1.349 -0.3459 -0.4721  0.1677
 3199SOL    HW121322   6.564  10.096   1.439  2.5172  1.3627 -0.3012
 3199SOL    HW221323   6.486  10.193   1.352 -0.2930 -0.4364  0.0877
 3200SOL     OW21324   2.065  10.534   3.993 -0.0933 -0.3148 -0.0093
 3200SOL    HW121325   2.091  10.445   4.017 -1.0284 -0.4573  0.5176
 3200SOL    HW221326   1.997  10.523   3.927  0.7601  0.0453 -0.9768
 3201SOL     OW21327   6.051   2.098   5.282 -0.0788 -0.3992  0.1986
 3201SOL    HW121328   6.139   2.069   5.256 -0.2395 -0.1899 -0.5996
 3201SOL    HW221329   6.008   2.019   5.314 -0.2361 -0.8983 -1.1822
 3202SOL     OW21330   3.436   6.947   9.968 -0.3322  0.1197  0.1145
 3202SOL    HW121331   3.409   6.856   9.977 -1.4401  0.0998 -2.5586
 3202SOL    HW221332   3.530   6.943   9.953 -0.0896 -0.4087  1.5675
 3203SOL     OW21333   7.064   9.216   7.869 -0.0916  0.4744  0.1968
 3203SOL    HW121334   7.016   9.185   7.793  2.5375 -0.9290 -1.0454
 3203SOL    HW221335   7.081   9.137   7.921  0.6951  0.9220  0.6454
 3204SOL     OW21336   7.595   1.995  10.647  0.1109 -0.3746 -0.1732
 3204SOL    HW121337   7.680   2.036  10.634 -0.1703  0.4780  0.5879
 3204SOL    HW221338   7.592   1.975  10.741 -0.7936  0.2256 -0.0633
 3205SOL     OW21339   8.176   7.390  11.905  0.4940 -0.5686  0.1119
 3205SOL    HW121340   8.200   7.482  11.917 -0.4049 -0.5969  2.4985
 3205SOL    HW221341   8.108   7.392  11.838 -0.2380  0.6430  0.8448
 3206SOL     OW21342   9.930   7.534   3.650 -0.2460 -0.5772 -0.1920
 3206SOL    HW121343   9.890   7.568   3.731 -1.4714 -1.1141 -0.5444
 3206SOL    HW221344  10.022   7.523   3.672 -0.2321  0.8854  0.6042
 3207SOL     OW21345   4.241   7.360   1.042  0.6156  0.5360 -0.0995
 3207SOL    HW121346   4.239   7.378   1.136  1.7958  0.3983 -0.0301
 3207SOL    HW221347   4.282   7.437   1.003 -0.9311  1.1160 -0.6636
 3208SOL     OW21348   0.809   0.247   9.587 -0.2869  0.3764  0.2065
 3208SOL    HW121349   0.742   0.184   9.615 -0.7382  0.6118 -0.3222
 3208SOL    HW221350   0.847   0.279   9.668  1.3164 -2.0038  0.5079
 3209SOL     OW21351   0.527   1.065   5.649 -0.0501 -0.0284  0.0007
 3209SOL    HW121352   0.560   0.985   5.609  1.4313 -0.1427  1.3415
 3209SOL    HW221353   0.602   1.103   5.694 -1.6482 -0.2754  3.1868
 3210SOL     OW21354   1.807   0.503   6.713  0.1737  0.1253 -0.3415
 3210SOL    HW121355   1.738   0.437   6.713  2.1455 -2.0266  0.0311
 3210SOL    HW221356   1.804   0.540   6.624 -1.1990 -0.1707 -0.4440
 3211SOL     OW21357  11.058  11.229  12.192  0.0880  0.4637 -0.0714
 3211SOL    HW121358  11.138  11.195  12.232 -0.3574  0.0684  0.5062
 3211SOL    HW221359  11.088  11.299  12.134  0.7289  1.4754  1.3996
 3212SOL     OW21360  12.990   0.172  11.338  0.1853 -0.0373 -0.1275
 3212SOL    HW121361  12.946   0.171  11.253  0.2969 -1.1011 -0.1876
 3212SOL    HW221362  12.920   0.188  11.401  0.0580  0.4667 -0.3930
 3213SOL     OW21363   1.689   6.916   6.046  0.1593  0.3328 -0.3200
 3213SOL    HW121364   1.766   6.905   6.102  0.2892 -0.2745 -0.6082
 3213SOL    HW221365   1.702   6.852   5.976 -1.5996 -1.2370  0.7015
 3214SOL     OW21366   5.338   2.543   4.405 -0.1453  0.3892  0.4638
 3214SOL    HW121367   5.245   2.561   4.393 -0.3260 -0.8900 -0.2931
 3214SOL    HW221368   5.343   2.494   4.488 -0.1901  0.1987  0.3552
 3215SOL     OW21369   9.237   3.668   2.485  0.4645 -0.4980 -0.5273
 3215SOL    HW121370   9.233   3.660   2.390  1.3147 -1.2388 -0.5085
 3215SOL    HW221371   9.280   3.752   2.501 -1.3816  0.5471 -0.7645
 3216SOL     OW21372   8.145   6.337  13.388 -0.1112  0.6612 -0.5487
 3216SOL    HW121373   8.239   6.323  13.404  0.1410  0.7134 -1.8917
 3216SOL    HW221374   8.113   6.374  13.470  0.5773 -1.3797  0.7240
 3217SOL     OW21375   8.351   1.487   3.238  0.2105 -0.0487  0.1890
 3217SOL    HW121376   8.338   1.396   3.215 -1.9682  0.5370 -1.1741
 3217SOL    HW221377   8.422   1.517   3.181 -0.8353 -0.2486 -1.2425
 3218SOL     OW21378   5.720   2.168   2.055  0.1847 -0.1044 -0.3985
 3218SOL    HW121379   5.636   2.199   2.089  1.0910  2.9038 -0.6127
 3218SOL    HW221380   5.696   2.105   1.988 -1.9265  0.6026 -0.4021
 3219SOL     OW21381  11.032   9.243   8.344 -0.8558 -0.3739  0.1083
 3219SOL    HW121382  11.102   9.198   8.297 -1.4405 -0.9668 -0.2251
 3219SOL    HW221383  11.064   9.332   8.357 -0.5113 -0.3139 -1.0592
 3220SOL     OW21384  13.374   0.686   1.243  0.7858 -0.4523 -0.2844
 3220SOL    HW121385  13.403   0.765   1.289  0.8396 -1.1001  0.8442
 3220SOL    HW221386  13.281   0.677   1.266  0.2999  0.2382 -1.8537
 3221SOL     OW21387   5.404   8.853   8.981 -0.1391  0.3098 -0.0552
 3221SOL    HW121388   5.457   8.776   8.960 -1.6509 -0.8666  0.3268
 3221SOL    HW221389   5.331   8.819   9.031 -1.5374  1.8281 -0.9776
 3222SOL     OW21390  12.288  10.856  12.408  0.1165 -0.3533 -0.1901
 3222SOL    HW121391  12.352  10.790  12.435 -0.1937 -0.6871 -0.2485
 3222SOL    HW221392  12.301  10.928  12.469  1.5383  0.2079 -1.1114
 3223SOL     OW21393   3.501  11.979   9.841 -0.1131 -0.6447  0.6301
 3223SOL    HW121394   3.412  12.012   9.827  0.2232  0.0451  0.0554
 3223SOL    HW221395   3.553  12.023   9.775  0.5312 -1.6167  0.4670
 3224SOL     OW21396   0.678   6.347   4.340 -0.3214  0.5334  0.0864
 3224SOL    HW121397   0.635   6.327   4.257 -1.2647 -0.4544  0.7906
 3224SOL    HW221398   0.621   6.410   4.383 -0.0630  0.7051  0.1823
 3225SOL     OW21399   5.313   2.455   9.091  0.4449 -0.6292 -0.4437
 3225SOL    HW121400   5.395   2.408   9.075  0.2513 -0.6523 -1.4404
 3225SOL    HW221401   5.295   2.500   9.009 -1.2862 -1.7863 -0.7555
 3226SOL     OW21402   6.720   0.812   8.382  0.4988 -0.7609 -0.5906
 3226SOL    HW121403   6.668   0.883   8.345 -1.0927 -1.5744 -0.0113
 3226SOL    HW221404   6.786   0.856   8.435 -0.2508  0.2966 -0.4942
 3227SOL     OW21405   3.681   2.542   8.837 -0.0025  0.4592 -0.0600
 3227SOL    HW121406   3.624   2.480   8.791  1.2566 -1.5460  0.9201
 3227SOL    HW221407   3.749   2.487   8.875  1.3781  2.5346  0.6049
 3228SOL     OW21408  11.653   6.638   3.501 -0.1615  0.0290  0.0370
 3228SOL    HW121409  11.654   6.730   3.475 -0.1158 -0.2870 -1.1155
 3228SOL    HW221410  11.745   6.616   3.516  0.0819 -0.4086 -1.8763
 3229SOL     OW21411   4.750  12.406   9.538 -0.3117  0.5002 -0.1353
 3229SOL    HW121412   4.667  12.452   9.551 -0.4964  1.0234 -2.5803
 3229SOL    HW221413   4.733  12.349   9.463  0.8061 -1.3663  0.9767
 3230SOL     OW21414   4.637  12.450  13.011 -1.0527  0.2046 -0.1209
 3230SOL    HW121415   4.712  12.485  12.964 -0.2877 -0.6261  0.4630
 3230SOL    HW221416   4.564  12.507  12.985 -0.4613  0.3614 -1.5233
 3231SOL     OW21417   1.785   8.112   3.556  0.2099 -0.1678 -0.1744
 3231SOL    HW121418   1.821   8.087   3.471  0.0017  0.1628 -0.3652
 3231SOL    HW221419   1.861   8.133   3.610  0.4147 -1.4632  0.0871
 3232SOL     OW21420   1.291   2.646  12.819 -0.0220  0.0542  0.3380
 3232SOL    HW121421   1.368   2.659  12.764  1.1017  0.0953  1.8497
 3232SOL    HW221422   1.325   2.651  12.909 -1.7636 -0.1066  1.0395
 3233SOL     OW21423  10.665  13.323   8.701 -0.3833  0.5751  0.0626
 3233SOL    HW121424  10.664  13.228   8.690 -0.0899  0.7151 -1.5397
 3233SOL    HW221425  10.754  13.349   8.678 -0.0069  1.1123  2.0191
 3234SOL     OW21426  11.789  11.040  12.043  0.4822 -0.4124 -0.0270
 3234SOL    HW121427  11.838  11.060  12.123  1.6688 -0.3700 -0.7447
 3234SOL    HW221428  11.706  11.003  12.075  0.3812  0.8023  1.2371
 3235SOL     OW21429  11.148   2.469   9.389 -0.4613 -0.0668  0.1214
 3235SOL    HW121430  11.113   2.402   9.330 -1.5907  0.1834  0.4765
 3235SOL    HW221431  11.228   2.431   9.424 -0.8058 -1.0178 -0.0872
 3236SOL     OW21432   6.568   5.491   9.078 -0.2843 -0.2367  0.0961
 3236SOL    HW121433   6.604   5.458   9.160  0.0835 -0.4225 -0.1395
 3236SOL    HW221434   6.635   5.472   9.012 -0.5141  0.0398 -0.2225
 3237SOL     OW21435  11.931   5.480   8.690  0.1125  0.5557  0.0200
 3237SOL    HW121436  11.861   5.545   8.684 -0.1106  0.2761 -0.4319
 3237SOL    HW221437  11.997   5.521   8.747 -0.6361  0.6155  0.8731
 3238SOL     OW21438   2.737   7.394  11.142  0.3335 -0.0691 -0.5116
 3238SOL    HW121439   2.740   7.370  11.049 -0.4074 -1.6207 -0.1686
 3238SOL    HW221440   2.828   7.400  11.169  0.5583 -1.2873 -0.9461
 3239SOL     OW21441   4.030   1.838   5.945 -0.0401 -0.2866  0.3511
 3239SOL    HW121442   3.986   1.885   5.875  0.9206  0.6368  0.3387
 3239SOL    HW221443   4.002   1.882   6.025 -0.4949 -0.8208  0.4976
 3240SOL     OW21444   1.814   0.679  12.175  0.5125  0.3640 -0.0413
 3240SOL    HW121445   1.740   0.686  12.235 -1.5900 -1.5088 -2.1828
 3240SOL    HW221446   1.869   0.611  12.214 -0.6836 -0.6454 -0.0109
 3241SOL     OW21447   8.151   4.646   8.513 -0.8655  0.4208  0.9379
 3241SOL    HW121448   8.197   4.569   8.480 -2.4719  0.1911 -0.8822
 3241SOL    HW221449   8.067   4.646   8.469 -1.7971  2.0368  2.5427
 3242SOL     OW21450   1.171   0.661   9.494  0.3793 -0.9180 -0.0116
 3242SOL    HW121451   1.099   0.707   9.450 -0.8071  0.6092  3.2258
 3242SOL    HW221452   1.249   0.712   9.472 -0.6012  1.5495  1.7359
 3243SOL     OW21453   9.330   4.784   2.072 -0.5220  0.1130  0.4402
 3243SOL    HW121454   9.374   4.833   2.141  2.0275  1.7674 -2.1761
 3243SOL    HW221455   9.247   4.829   2.060  0.1528  1.4438  0.6311
 3244SOL     OW21456  11.954  11.929   1.489 -0.1222 -0.5620 -0.0875
 3244SOL    HW121457  11.954  12.020   1.519 -2.4367 -0.3256 -0.5822
 3244SOL    HW221458  11.998  11.881   1.558  0.1869  0.8058  0.6979
 3245SOL     OW21459   1.832  12.465   3.196 -0.2467  0.2099 -0.0251
 3245SOL    HW121460   1.880  12.511   3.264 -0.5338  0.1549  0.2125
 3245SOL    HW221461   1.740  12.472   3.221 -0.4045  0.7048 -0.7205
 3246SOL     OW21462   2.792  11.148   3.531  0.1985  0.0293  0.5036
 3246SOL    HW121463   2.707  11.140   3.576 -1.6546  2.6516 -2.1742
 3246SOL    HW221464   2.773  11.198   3.452  4.0588 -0.5323 -0.9969
 3247SOL     OW21465   0.511  13.713   4.928  0.2198 -0.2717  0.3218
 3247SOL    HW121466   0.601  13.745   4.921 -0.1861  1.6978  2.7195
 3247SOL    HW221467   0.518  13.637   4.986  0.4259 -0.6491 -0.1922
 3248SOL     OW21468   3.220   7.962  10.569 -0.0447  0.1222  0.5720
 3248SOL    HW121469   3.281   7.913  10.513  0.6117  0.4714  0.9640
 3248SOL    HW221470   3.276   8.004  10.634 -0.9310 -1.7852  2.6961
 3249SOL     OW21471   2.724  13.267  13.009 -0.0736  0.0050  0.5033
 3249SOL    HW121472   2.749  13.216  13.086 -0.2290 -0.7728  0.0484
 3249SOL    HW221473   2.633  13.291  13.025 -0.0057  0.1309  0.7089
 3250SOL     OW21474   0.907   4.692   3.139 -0.0068 -0.6287  0.2236
 3250SOL    HW121475   0.942   4.636   3.208  0.5948 -2.6442 -1.6160
 3250SOL    HW221476   0.842   4.637   3.095 -0.0131  0.4298 -1.1420
 3251SOL     OW21477  10.732   4.481   4.938  0.2317  0.0015 -0.2216
 3251SOL    HW121478  10.718   4.462   4.846  0.4251  0.1437 -0.2824
 3251SOL    HW221479  10.820   4.448   4.957  1.0081  1.7456 -0.6014
 3252SOL     OW21480   4.859  11.301   6.027 -0.1852  0.3540 -0.0112
 3252SOL    HW121481   4.831  11.217   5.991  0.3453 -0.0220  0.4522
 3252SOL    HW221482   4.951  11.289   6.050 -0.9785 -0.1346  3.4730
 3253SOL     OW21483  11.231   1.340   0.567  0.1661  0.1099 -0.2365
 3253SOL    HW121484  11.302   1.301   0.617  0.1241 -0.9193 -0.9406
 3253SOL    HW221485  11.274   1.384   0.494  0.1697  0.8076  0.1818
 3254SOL     OW21486   9.022   2.356   6.459  0.2774 -0.0642 -0.1394
 3254SOL    HW121487   9.040   2.382   6.369 -0.1193  1.5404  0.2083
 3254SOL    HW221488   8.927   2.351   6.464  0.2564  0.6608  0.3822
 3255SOL     OW21489   1.025   6.921  12.339 -0.4894  0.5536  0.0148
 3255SOL    HW121490   0.956   6.885  12.394  0.1473 -0.8928 -0.0860
 3255SOL    HW221491   0.981   6.987  12.286 -1.7941 -0.3146 -0.0315
 3256SOL     OW21492   0.284   6.520   8.855 -0.0329 -0.3430 -0.1697
 3256SOL    HW121493   0.324   6.551   8.774  0.3308  0.3385  0.2579
 3256SOL    HW221494   0.358   6.510   8.915 -0.3512 -0.3851  0.2168
 3257SOL     OW21495   2.309   9.783   0.957 -0.2619 -0.6192  0.0733
 3257SOL    HW121496   2.357   9.701   0.963  1.0856  0.0927 -0.5005
 3257SOL    HW221497   2.373   9.851   0.979 -1.2999  0.2928  0.3901
 3258SOL     OW21498   5.139   5.629   1.801  0.3599 -0.0003  0.0842
 3258SOL    HW121499   5.150   5.721   1.829 -0.4992  0.5118 -1.2020
 3258SOL    HW221500   5.064   5.598   1.851 -0.3891  0.5256 -0.6937
 3259SOL     OW21501  12.460   3.865   7.543 -0.1408  0.5074 -0.6071
 3259SOL    HW121502  12.445   3.934   7.608  0.5016  0.9971 -0.9664
 3259SOL    HW221503  12.459   3.911   7.459  1.7138  0.3460 -0.7623
 3260SOL     OW21504   4.785   3.559   8.875 -0.2511  0.2265  0.0386
 3260SOL    HW121505   4.729   3.481   8.876 -2.1763  1.4982  2.2161
 3260SOL    HW221506   4.869   3.528   8.907 -0.4838 -1.2148 -0.6226
 3261SOL     OW21507  10.468   6.996   3.975  0.7337  0.1997 -1.1074
 3261SOL    HW121508  10.462   7.091   3.989  0.3067  0.1472 -0.9210
 3261SOL    HW221509  10.533   6.967   4.039 -1.2487 -0.0485  0.9209
 3262SOL     OW21510   1.526   8.572  11.038  0.3293  0.1262  0.2564
 3262SOL    HW121511   1.604   8.619  11.066  0.8379 -1.0116  0.8444
 3262SOL    HW221512   1.486   8.540  11.119 -1.5098  1.7861  0.0824
 3263SOL     OW21513  13.288  13.679  10.399  0.1481  0.3420  0.3236
 3263SOL    HW121514  13.317  13.739  10.330  0.4616 -0.3384 -0.1520
 3263SOL    HW221515  13.271  13.596  10.353 -0.5654  0.1467  0.9170
 3264SOL     OW21516   8.190   1.201   2.228 -0.0596 -0.1602 -0.0381
 3264SOL    HW121517   8.241   1.190   2.148  0.5223  1.9286 -0.0055
 3264SOL    HW221518   8.187   1.296   2.242 -2.0702 -0.3474  1.1852
 3265SOL     OW21519   8.352  12.772   7.720 -0.6296  0.0409 -0.0009
 3265SOL    HW121520   8.334  12.807   7.808  1.4867  0.7033  0.2111
 3265SOL    HW221521   8.329  12.679   7.726 -0.7470  0.1298  1.1870
 3266SOL     OW21522   5.591   1.951   4.112  0.1747  0.4740 -0.8111
 3266SOL    HW121523   5.512   1.936   4.163 -0.0401  0.6091 -1.1023
 3266SOL    HW221524   5.661   1.953   4.177 -0.0753  0.4824 -0.5383
 3267SOL     OW21525  12.555   1.361   2.233  0.1774  0.4940 -0.4094
 3267SOL    HW121526  12.639   1.358   2.188  0.6454  0.3163  0.4502
 3267SOL    HW221527  12.577   1.393   2.321 -0.7900  1.4309 -0.4932
 3268SOL     OW21528  12.667   6.590   2.827  0.3390  0.2151  0.2139
 3268SOL    HW121529  12.756   6.555   2.819 -0.2937 -1.1388 -1.3961
 3268SOL    HW221530  12.639   6.607   2.738 -1.0712  0.5086  0.6861
 3269SOL     OW21531   7.755   6.000  10.955  0.2749 -0.0099 -0.3807
 3269SOL    HW121532   7.752   5.905  10.958  0.9358 -0.1086 -1.9694
 3269SOL    HW221533   7.677   6.025  10.905  1.7199  0.0296 -2.8057
 3270SOL     OW21534   2.706   4.887  12.170  0.2849  0.0190 -0.0514
 3270SOL    HW121535   2.667   4.811  12.127  0.2908  0.2049 -0.3941
 3270SOL    HW221536   2.786   4.904  12.119  2.8972 -2.5682  2.7195
 3271SOL     OW21537   6.920   7.595  12.191 -0.1611  0.1365 -0.3926
 3271SOL    HW121538   6.915   7.500  12.204 -0.9688  0.4937  2.8141
 3271SOL    HW221539   6.829   7.623  12.184 -0.1145  0.9303  1.6727
 3272SOL     OW21540  13.399   4.304  12.113 -0.1651 -0.8136  0.1935
 3272SOL    HW121541  13.305   4.314  12.128  0.1983  2.6350  1.1560
 3272SOL    HW221542  13.433   4.267  12.194 -0.5803 -0.9418  0.3067
 3273SOL     OW21543   2.003   1.117   7.299  0.5782  0.4287  0.0440
 3273SOL    HW121544   2.083   1.168   7.314  1.0074  0.6790 -2.7017
 3273SOL    HW221545   2.018   1.035   7.346  1.6345  1.1845  1.1084
 3274SOL     OW21546   9.438   2.984   8.638 -0.4443  0.2030  0.0647
 3274SOL    HW121547   9.435   2.897   8.598 -1.2825  0.2162  0.0653
 3274SOL    HW221548   9.411   3.043   8.568  1.7767  0.6874 -0.4488
 3275SOL     OW21549   8.440   5.550   8.416 -0.2080  0.0903 -0.5599
 3275SOL    HW121550   8.463   5.458   8.407  0.8566  0.3518 -0.6678
 3275SOL    HW221551   8.356   5.559   8.370  0.1529 -0.6334 -1.3680
 3276SOL     OW21552   8.566  13.083   0.715 -0.3834 -0.1472  0.5570
 3276SOL    HW121553   8.628  13.044   0.777 -0.3913 -0.8430  0.1400
 3276SOL    HW221554   8.563  13.176   0.739  1.8894  0.1995 -0.2952
 3277SOL     OW21555  10.487  13.107  10.839  0.4853 -0.0791  0.6507
 3277SOL    HW121556  10.451  13.159  10.767  1.2756 -0.3693  0.0315
 3277SOL    HW221557  10.578  13.136  10.846  1.0905 -1.7233 -0.0438
 3278SOL     OW21558   5.788  12.478   5.062 -0.2085  0.1691  0.3909
 3278SOL    HW121559   5.861  12.422   5.087 -1.1545 -1.5677 -0.5137
 3278SOL    HW221560   5.790  12.478   4.966 -1.9202 -0.7237  0.3135
 3279SOL     OW21561  12.887   3.932   3.169 -0.7845 -0.1792 -0.1619
 3279SOL    HW121562  12.796   3.956   3.156 -0.9251 -0.2456  0.6301
 3279SOL    HW221563  12.936   3.989   3.109 -1.2788  0.4842  0.0523
 3280SOL     OW21564   9.115   2.814   7.217  0.9855 -0.0346  0.5340
 3280SOL    HW121565   9.173   2.742   7.239  0.8422 -0.1741  0.4597
 3280SOL    HW221566   9.166   2.893   7.235  2.5236 -0.0979 -2.7793
 3281SOL     OW21567   8.699   3.235  12.506 -0.1057  0.2919  0.6993
 3281SOL    HW121568   8.637   3.281  12.562 -1.3311  0.9668 -1.1183
 3281SOL    HW221569   8.659   3.150  12.491 -0.1771  0.4043  0.2325
 3282SOL     OW21570   7.139   8.739  13.500  0.0026 -0.3643  0.0735
 3282SOL    HW121571   7.152   8.813  13.440  0.8035  0.0913  0.7867
 3282SOL    HW221572   7.186   8.667  13.458 -0.0469 -0.2396 -0.2013
 3283SOL     OW21573   2.908  10.573   8.892 -0.2958  0.3257 -0.6596
 3283SOL    HW121574   2.838  10.634   8.914 -0.0819  0.1120  0.7002
 3283SOL    HW221575   2.978  10.592   8.955 -0.2512 -1.3427 -0.1592
 3284SOL     OW21576   0.479   8.890  12.965 -0.3406 -0.2428  0.1931
 3284SOL    HW121577   0.514   8.803  12.950  0.3289 -0.5437  2.9480
 3284SOL    HW221578   0.389   8.875  12.995 -1.0658  0.2112 -1.6254
 3285SOL     OW21579  10.405   6.999   5.026  0.4620  0.1974 -0.1933
 3285SOL    HW121580  10.470   6.935   5.054  0.3413 -0.0195 -0.4067
 3285SOL    HW221581  10.338   6.948   4.981  1.5014  0.6845 -2.4852
 3286SOL     OW21582   2.893   9.495   6.735 -0.0927 -0.1349 -0.3468
 3286SOL    HW121583   2.964   9.438   6.762 -0.4667 -0.6482 -0.4305
 3286SOL    HW221584   2.899   9.571   6.793  1.0102  0.2001 -0.8805
 3287SOL     OW21585   9.109   5.454   9.702  0.5074  0.5298  0.3882
 3287SOL    HW121586   9.186   5.404   9.677  2.4009  1.5515  3.5478
 3287SOL    HW221587   9.100   5.438   9.796 -0.9951  3.2010  0.8025
 3288SOL     OW21588   3.171   0.140   5.074 -0.0368 -0.0812 -0.9574
 3288SOL    HW121589   3.248   0.149   5.018 -0.1567 -0.2139 -1.1460
 3288SOL    HW221590   3.129   0.226   5.070  1.3280  0.7390  0.9884
 3289SOL     OW21591  10.415   1.204  10.846 -0.2434  0.1118  0.2371
 3289SOL    HW121592  10.477   1.215  10.919  0.3329  0.4151 -0.2949
 3289SOL    HW221593  10.467   1.167  10.775 -0.3933  1.5001 -0.6170
 3290SOL     OW21594   7.800   6.969   7.574  0.1994  0.3508  0.4632
 3290SOL    HW121595   7.787   7.042   7.513  0.2027  0.7878  0.9800
 3290SOL    HW221596   7.713   6.948   7.606  0.2786  0.5713  0.8225
 3291SOL     OW21597   7.107   5.866  12.880  0.0514  0.3709  0.2068
 3291SOL    HW121598   7.073   5.934  12.938 -0.2436  0.7921 -0.4463
 3291SOL    HW221599   7.107   5.906  12.793 -1.6147 -0.9569 -0.4598
 3292SOL     OW21600   8.286   6.858   4.468  0.0937 -0.4247 -0.0350
 3292SOL    HW121601   8.365   6.804   4.469  0.4114  0.0144  1.2121
 3292SOL    HW221602   8.318   6.946   4.449  0.0583 -0.0804  1.3552
 3293SOL     OW21603   6.325   8.975   9.614  0.4646  0.0678  0.0863
 3293SOL    HW121604   6.364   8.926   9.686  1.0248 -0.8860 -0.8286
 3293SOL    HW221605   6.315   8.910   9.544 -3.5629  0.0138  0.4923
 3294SOL     OW21606   3.369  13.333  11.697 -0.3982 -0.0149 -0.0402
 3294SOL    HW121607   3.330  13.268  11.755 -2.2203  1.8034  0.9098
 3294SOL    HW221608   3.425  13.386  11.753 -1.0633  0.8868 -0.2036
 3295SOL     OW21609  12.137  11.460  12.906  1.0303 -0.3451  0.0491
 3295SOL    HW121610  12.139  11.424  12.817 -0.3097  1.3895 -0.7447
 3295SOL    HW221611  12.056  11.510  12.910  1.0153 -0.4563  2.3071
 3296SOL     OW21612   1.949   9.388  10.384  0.1239 -0.4355  0.2338
 3296SOL    HW121613   1.900   9.441  10.320  0.2649 -0.4823  0.0864
 3296SOL    HW221614   1.883   9.363  10.449  0.4745  1.8941  1.6220
 3297SOL     OW21615   9.680   6.926   7.146 -0.6200  0.4813  0.4497
 3297SOL    HW121616   9.709   7.011   7.179 -1.9496  0.7096  1.1017
 3297SOL    HW221617   9.637   6.947   7.063 -1.0938  0.4767  0.6909
 3298SOL     OW21618   6.565   1.072   4.829 -0.5024  0.3367  0.1271
 3298SOL    HW121619   6.566   1.136   4.901 -1.8979  0.1972  0.2916
 3298SOL    HW221620   6.605   1.119   4.755  2.7823 -0.1287  1.4041
 3299SOL     OW21621  13.658   5.859   6.788  0.2481 -0.6650  0.0882
 3299SOL    HW121622  13.641   5.785   6.730  0.5159 -0.5564 -0.1273
 3299SOL    HW221623  13.581   5.862   6.845 -0.4087 -0.2614 -0.7904
 3300SOL     OW21624   2.113   0.044   9.194  0.3983  0.2016 -0.1913
 3300SOL    HW121625   2.083   0.134   9.185 -0.1353  0.1101  0.5778
 3300SOL    HW221626   2.208   0.051   9.204  0.2761  0.7323  0.6289
 3301SOL     OW21627  11.703   7.086   7.340 -0.2644 -0.3326 -0.2207
 3301SOL    HW121628  11.658   7.078   7.425 -0.6634  0.6229 -0.3267
 3301SOL    HW221629  11.641   7.049   7.277 -0.5712  0.2376 -0.2627
 3302SOL     OW21630   3.096  13.204   4.593 -0.8015 -0.0401 -0.0490
 3302SOL    HW121631   3.032  13.244   4.535 -0.1315  2.1316  0.5851
 3302SOL    HW221632   3.050  13.196   4.677 -0.5284  0.7499  0.1880
 3303SOL     OW21633  12.191  12.873   6.488 -0.2738 -0.0621 -0.3934
 3303SOL    HW121634  12.273  12.830   6.463 -0.0464 -1.5797  2.5929
 3303SOL    HW221635  12.156  12.907   6.405  1.1377 -3.2320 -2.4602
 3304SOL     OW21636  12.345   2.434   4.831  0.0379 -0.0216 -0.1032
 3304SOL    HW121637  12.254   2.464   4.835 -0.2587 -0.8937 -0.2930
 3304SOL    HW221638  12.379   2.450   4.919  0.3238  2.1947 -0.5422
 3305SOL     OW21639   5.771   4.741  13.006  0.2114 -0.1832 -0.3208
 3305SOL    HW121640   5.860   4.710  12.989 -0.2605 -1.9736  0.1885
 3305SOL    HW221641   5.729   4.740  12.920  0.5460  0.2003 -0.4914
 3306SOL     OW21642  12.253   3.113   8.316  0.2361  0.5973 -0.1444
 3306SOL    HW121643  12.314   3.183   8.339  0.1615  1.1094 -1.4408
 3306SOL    HW221644  12.293   3.034   8.351  0.1251  1.3141  1.7121
 3307SOL     OW21645   9.010   4.911  10.260 -0.3364 -0.5501 -0.0687
 3307SOL    HW121646   9.026   4.938  10.350 -1.2665  0.0277 -0.0698
 3307SOL    HW221647   9.058   4.974  10.207 -0.0974 -0.6686  0.0025
 3308SOL     OW21648  11.463   6.849   5.493 -0.1950 -0.0061 -0.4162
 3308SOL    HW121649  11.529   6.851   5.562 -0.0303  0.0051 -0.5744
 3308SOL    HW221650  11.406   6.775   5.517 -1.8095  1.6631  1.2642
 3309SOL     OW21651   8.550   3.413  12.268  0.6471 -0.1294  0.6474
 3309SOL    HW121652   8.487   3.345  12.294  1.0966 -0.3920  1.0731
 3309SOL    HW221653   8.556   3.470  12.345  1.9275 -0.8642  1.1281
 3310SOL     OW21654   2.385   2.974  13.426  0.2490 -0.1003  0.1289
 3310SOL    HW121655   2.345   3.060  13.436 -2.4062 -1.4087  1.8114
 3310SOL    HW221656   2.396   2.941  13.515 -1.5700 -2.6205 -0.4581
 3311SOL     OW21657   9.390   6.732   9.541 -0.1302  0.1765  0.1802
 3311SOL    HW121658   9.464   6.684   9.578 -0.4886 -0.4409  0.1103
 3311SOL    HW221659   9.429   6.807   9.497  0.4509 -0.1304  0.1687
 3312SOL     OW21660   2.450   5.055   1.759 -0.0777  0.4960  0.2702
 3312SOL    HW121661   2.397   4.999   1.817  0.5944 -1.7394 -1.1583
 3312SOL    HW221662   2.538   5.019   1.765  0.0413  0.2755 -2.0160
 3313SOL     OW21663  10.690   1.278   0.921  0.0479  0.1276  0.0183
 3313SOL    HW121664  10.678   1.235   0.836  0.1904  0.3909 -0.1375
 3313SOL    HW221665  10.680   1.208   0.985  0.7316 -0.2276 -0.2518
 3314SOL     OW21666  12.927   7.790   4.637 -0.2894  0.1340 -0.0198
 3314SOL    HW121667  12.969   7.835   4.711  2.1728 -1.1506 -0.5302
 3314SOL    HW221668  12.945   7.697   4.653 -1.3482 -0.3104 -1.2997
 3315SOL     OW21669   3.414   3.736   3.823 -0.3801  0.0976  0.2217
 3315SOL    HW121670   3.510   3.742   3.823 -0.4255  1.1462  0.3798
 3315SOL    HW221671   3.395   3.652   3.782  0.6039 -0.0064 -0.0571
 3316SOL     OW21672  13.333   4.003  13.457 -0.6454  0.1405 -0.1913
 3316SOL    HW121673  13.255   3.988  13.404 -0.1210 -1.4569 -0.5523
 3316SOL    HW221674  13.304   3.986  13.547 -1.4514  2.5375  0.0758
 3317SOL     OW21675  13.180  10.526   5.492  0.9074 -0.3889  0.5970
 3317SOL    HW121676  13.189  10.443   5.539  0.0063 -0.6058  0.3990
 3317SOL    HW221677  13.197  10.503   5.400 -0.5330 -0.6026  0.3674
 3318SOL     OW21678   2.037   7.980   9.460 -0.0807 -0.3775 -0.0040
 3318SOL    HW121679   2.068   8.043   9.525 -0.1418 -0.8982  0.5360
 3318SOL    HW221680   2.104   7.912   9.460  0.2071 -0.1057 -0.9061
 3319SOL     OW21681  11.978   7.018   1.490  0.3238  0.2782 -0.2352
 3319SOL    HW121682  11.973   7.023   1.586  0.5813  1.6900 -0.2676
 3319SOL    HW221683  12.037   7.089   1.465  1.1331 -0.7620 -1.3933
 3320SOL     OW21684   0.212   5.081  12.347 -0.5254  0.2551 -0.0183
 3320SOL    HW121685   0.158   5.020  12.297  0.3205  0.7979 -1.6323
 3320SOL    HW221686   0.186   5.168  12.317 -0.2992  0.6224  0.8015
 3321SOL     OW21687  10.609   1.725   4.130 -0.5212 -0.5519 -0.2340
 3321SOL    HW121688  10.662   1.728   4.051 -1.1518 -1.3453 -0.7030
 3321SOL    HW221689  10.672   1.732   4.202  0.0809 -0.1060 -0.7916
 3322SOL     OW21690  11.659   4.748   4.780 -0.0150 -0.1847 -0.2736
 3322SOL    HW121691  11.694   4.808   4.846 -0.4832 -0.7739  0.5330
 3322SOL    HW221692  11.639   4.804   4.705  0.0128  0.5964  0.2850
 3323SOL     OW21693   9.987   6.069   3.898  0.3569  0.5452  0.5835
 3323SOL    HW121694   9.908   6.123   3.903 -0.3166  0.1948 -3.2656
 3323SOL    HW221695  10.054   6.128   3.863 -0.2118 -0.6593 -3.0042
 3324SOL     OW21696   1.416   5.776   5.570  0.2391 -0.1407  0.2628
 3324SOL    HW121697   1.324   5.776   5.542  0.0999  0.8105  0.6912
 3324SOL    HW221698   1.417   5.828   5.650  1.6414  2.7224 -1.4679
 3325SOL     OW21699   9.459   8.539   8.412  0.8132  0.7381 -0.1004
 3325SOL    HW121700   9.526   8.593   8.370  0.9657  0.1724 -0.5992
 3325SOL    HW221701   9.504   8.496   8.484  1.0821  0.0854 -0.6504
 3326SOL     OW21702  13.134   4.703   5.986 -0.1096 -0.8969 -0.4587
 3326SOL    HW121703  13.183   4.750   6.054 -1.9304  0.3628  0.0526
 3326SOL    HW221704  13.165   4.740   5.904 -0.4045  0.1129 -0.1272
 3327SOL     OW21705   8.627   8.728  11.919  0.1153  0.3530  0.3971
 3327SOL    HW121706   8.702   8.744  11.977  0.5186 -1.7626  0.5078
 3327SOL    HW221707   8.552   8.726  11.979  0.2036  0.6044  0.5222
 3328SOL     OW21708   8.108   4.012   1.231 -0.2208 -0.1703 -0.0844
 3328SOL    HW121709   8.122   3.930   1.280 -0.0895  0.3767  0.8139
 3328SOL    HW221710   8.095   3.983   1.141  1.9223 -1.0682 -0.1787
 3329SOL     OW21711  12.452   1.931   6.387  0.0209  0.1148 -0.4494
 3329SOL    HW121712  12.514   1.939   6.315 -1.3874  0.7060 -1.6347
 3329SOL    HW221713  12.392   2.004   6.376  0.2486  0.7274  1.8348
 3330SOL     OW21714  11.141   3.032  13.123 -0.1118  0.3396  0.6217
 3330SOL    HW121715  11.221   3.083  13.139  1.2713 -0.6100 -2.4054
 3330SOL    HW221716  11.096   3.079  13.054 -0.7754 -0.5501  0.4318
 3331SOL     OW21717   7.841   8.173  11.799 -0.2393 -0.1159 -0.4253
 3331SOL    HW121718   7.797   8.089  11.809 -1.2408  0.5368  1.0851
 3331SOL    HW221719   7.898   8.180  11.876  0.1586  0.3945 -0.7596
 3332SOL     OW21720  11.001   7.661   1.450 -0.2399  0.6354 -0.0768
 3332SOL    HW121721  11.082   7.702   1.480  0.9648 -0.7954 -1.2342
 3332SOL    HW221722  11.026   7.571   1.429 -1.5601  0.8250 -2.8282
 3333SOL     OW21723   7.942   1.517   9.926  0.1291  0.6612  0.7930
 3333SOL    HW121724   8.003   1.448   9.899 -1.4969 -0.6494  0.2276
 3333SOL    HW221725   7.985   1.599   9.903  1.2277 -0.2518 -0.5694
 3334SOL     OW21726   5.795  13.304  11.664  0.2326  0.7754 -0.1480
 3334SOL    HW121727   5.718  13.302  11.721  0.2040 -0.1672 -0.2169
 3334SOL    HW221728   5.832  13.391  11.678 -0.7231  1.1733  0.0451
 3335SOL     OW21729   6.703   7.554  11.836  0.4417  0.1228  0.5678
 3335SOL    HW121730   6.696   7.489  11.766  1.4890 -1.1377  1.5770
 3335SOL    HW221731   6.629   7.534  11.895  1.1589 -0.6523  1.2385
 3336SOL     OW21732   1.164  12.921   3.981 -0.0203 -0.0860 -0.2594
 3336SOL    HW121733   1.071  12.903   3.971 -0.3631  1.1365  0.5094
 3336SOL    HW221734   1.184  12.898   4.071  0.5957 -0.9850 -0.6103
 3337SOL     OW21735   7.080   3.474  10.962  0.0084 -0.2003 -0.4894
 3337SOL    HW121736   7.163   3.428  10.976 -0.3797 -0.6272  0.4792
 3337SOL    HW221737   7.098   3.533  10.889  1.4654  0.4349  0.3318
 3338SOL     OW21738   5.321   0.350   7.225  0.2310  0.4938 -0.1321
 3338SOL    HW121739   5.230   0.322   7.222  0.4459 -0.4134  0.9852
 3338SOL    HW221740   5.345   0.342   7.318  0.6545  3.3087  0.1118
 3339SOL     OW21741  11.455   9.271   8.280  0.4241  0.0276  0.2245
 3339SOL    HW121742  11.392   9.206   8.311  0.1116  0.6510  0.9075
 3339SOL    HW221743  11.508   9.292   8.357  0.3651  0.7655  0.0691
 3340SOL     OW21744   7.512   3.461   3.385 -0.3037  0.0784  0.0503
 3340SOL    HW121745   7.543   3.392   3.327 -1.7908 -0.4033 -0.2099
 3340SOL    HW221746   7.535   3.542   3.341  1.7456 -0.1991  0.5063
 3341SOL     OW21747   8.350  13.389   0.910 -0.6976 -0.0216  0.3476
 3341SOL    HW121748   8.362  13.444   0.833  0.3591  1.3450  1.4272
 3341SOL    HW221749   8.290  13.438   0.966  1.1604  0.7236  1.8469
 3342SOL     OW21750   6.144   9.850   9.088 -0.1473 -0.2375 -0.4129
 3342SOL    HW121751   6.064   9.901   9.082  0.2952  0.7135  1.1893
 3342SOL    HW221752   6.213   9.911   9.060  0.2328 -0.3664  0.2169
 3343SOL     OW21753   3.683   5.583  11.242  0.0790 -0.8379 -0.1277
 3343SOL    HW121754   3.634   5.597  11.161 -0.3206  0.3777  0.2969
 3343SOL    HW221755   3.637   5.636  11.307  0.5814 -1.5398  0.8337
 3344SOL     OW21756  10.794   6.739   3.972  0.7083  0.8237  0.6160
 3344SOL    HW121757  10.885   6.715   3.992  1.1164 -0.3340 -2.1813
 3344SOL    HW221758  10.744   6.658   3.987  0.6577  0.6009 -0.6538
 3345SOL     OW21759   0.486  10.674   0.411 -0.4040 -0.1285  0.4780
 3345SOL    HW121760   0.557  10.642   0.356  0.2113 -0.6918  1.5633
 3345SOL    HW221761   0.525  10.745   0.462 -1.0313  0.5548  0.0266
 3346SOL     OW21762   4.662   3.022   8.137 -0.3343 -0.5055 -0.2217
 3346SOL    HW121763   4.727   3.006   8.069 -0.2297  0.0069 -0.2445
 3346SOL    HW221764   4.588   3.063   8.091 -0.4322 -0.5410 -0.0982
 3347SOL     OW21765   3.747   2.835   9.937  0.0644  0.1711  0.2165
 3347SOL    HW121766   3.755   2.910   9.996 -0.8756  0.8948 -0.5398
 3347SOL    HW221767   3.790   2.863   9.856 -1.8479  0.6417 -0.7012
 3348SOL     OW21768  10.646   6.135  10.443 -0.0065 -0.5919 -0.3322
 3348SOL    HW121769  10.657   6.040  10.438 -1.1439 -0.6865 -1.7480
 3348SOL    HW221770  10.562   6.148  10.486  0.1128 -0.2232 -0.2027
 3349SOL     OW21771  12.048   4.355  11.514  0.0691  0.0113 -0.3249
 3349SOL    HW121772  11.996   4.279  11.488 -0.8427  0.2905  0.6227
 3349SOL    HW221773  12.110   4.320  11.578 -1.1981  0.2571  1.0927
 3350SOL     OW21774  13.160   4.966   3.222 -0.5248  0.3915  0.1022
 3350SOL    HW121775  13.106   5.005   3.153 -0.0697 -0.0990 -0.5385
 3350SOL    HW221776  13.158   5.030   3.293  0.5868  1.8054 -1.0974
 3351SOL     OW21777   1.815  13.733   4.789  0.4918  0.3271 -0.1966
 3351SOL    HW121778   1.891  13.697   4.742  0.7528  0.3136  0.2331
 3351SOL    HW221779   1.845  13.744   4.879 -0.7088 -1.9408  0.5676
 3352SOL     OW21780   1.021   7.782  10.892 -0.1207 -0.4743  0.0507
 3352SOL    HW121781   0.942   7.732  10.873  0.5168 -1.2508 -0.6768
 3352SOL    HW221782   1.020   7.854  10.828 -0.0077 -0.7601 -0.2775
 3353SOL     OW21783  11.017  10.805   6.707 -0.1616  0.1611  0.1403
 3353SOL    HW121784  11.072  10.869   6.661  0.8790 -1.1583 -0.5185
 3353SOL    HW221785  11.042  10.721   6.670  0.4821 -0.9502  2.8541
 3354SOL     OW21786   4.729   6.117  10.823  0.4971 -0.2744  0.3889
 3354SOL    HW121787   4.825   6.109  10.824  0.6429 -0.4028 -2.8428
 3354SOL    HW221788   4.711   6.174  10.748 -1.8875  3.0894  3.1706
 3355SOL     OW21789   6.708   7.691   1.171  0.0319  0.4356 -0.3934
 3355SOL    HW121790   6.676   7.618   1.118  0.7522  0.1310 -0.4101
 3355SOL    HW221791   6.720   7.762   1.109  0.9047  0.0698 -0.6513
 3356SOL     OW21792   8.645   7.131   0.385  0.4395 -0.4121 -0.5621
 3356SOL    HW121793   8.662   7.140   0.479  0.7472 -0.8087 -0.5779
 3356SOL    HW221794   8.552   7.111   0.379  0.3417 -0.0434 -0.3648
 3357SOL     OW21795   1.207   9.816   2.019  0.1689  0.0324  0.1142
 3357SOL    HW121796   1.226   9.774   1.935 -0.6230 -1.8800  0.8266
 3357SOL    HW221797   1.226   9.749   2.084 -1.0239  0.8200  1.3295
 3358SOL     OW21798  10.089  13.659   4.799 -0.0276 -0.2075 -0.2948
 3358SOL    HW121799  10.093  13.580   4.852  1.6808 -0.9831 -1.4728
 3358SOL    HW221800  10.162  13.712   4.830 -0.0513  0.0877 -0.7388
 3359SOL     OW21801   0.997   0.734   9.862  0.3821  0.3845  0.3800
 3359SOL    HW121802   0.975   0.808   9.805 -0.6142 -0.3267 -0.1960
 3359SOL    HW221803   0.986   0.657   9.806  0.3964 -0.2608  1.2457
 3360SOL     OW21804   3.788  12.627   3.747  0.3118  0.6793  0.6597
 3360SOL    HW121805   3.809  12.717   3.772  1.1747  0.3413  1.1807
 3360SOL    HW221806   3.811  12.575   3.824  0.4569 -0.0686  0.1169
 3361SOL     OW21807  13.379  12.233   2.746 -0.4803  0.0467 -0.2445
 3361SOL    HW121808  13.333  12.315   2.765  1.0465  0.4777  1.9503
 3361SOL    HW221809  13.325  12.165   2.785  0.0136  0.4110  1.1191
 3362SOL     OW21810  13.432   2.655   7.080 -0.2679 -0.4577  0.2541
 3362SOL    HW121811  13.487   2.711   7.026  0.0619 -0.8617  0.1663
 3362SOL    HW221812  13.416   2.578   7.026 -1.5970 -0.0002 -0.0368
 3363SOL     OW21813   8.327   7.395  10.062  0.1987 -0.2302 -0.2448
 3363SOL    HW121814   8.329   7.308  10.020  0.0546 -0.4289  0.1566
 3363SOL    HW221815   8.247   7.435  10.028  0.7106  0.0990 -1.1158
 3364SOL     OW21816   9.218  10.870  11.454  0.0106  0.1862 -0.3674
 3364SOL    HW121817   9.190  10.781  11.477  1.9112 -0.4521 -0.3371
 3364SOL    HW221818   9.261  10.860  11.369  2.7812  0.4922  0.8854
 3365SOL     OW21819  11.743  12.358   3.271 -0.2604 -0.3422 -0.3559
 3365SOL    HW121820  11.675  12.424   3.290  0.9913  0.7476  0.5026
 3365SOL    HW221821  11.701  12.275   3.294 -1.5369  0.2361 -0.4763
 3366SOL     OW21822   9.318   2.390   4.035 -0.4624  0.0479 -0.1877
 3366SOL    HW121823   9.380   2.323   4.064  0.2954  1.6176  2.0421
 3366SOL    HW221824   9.265   2.346   3.968  0.7467 -2.3976  0.3553
 3367SOL     OW21825   2.596  12.060   3.738  0.7570  0.1105  0.5008
 3367SOL    HW121826   2.543  12.126   3.694 -0.6348 -1.2824  0.0037
 3367SOL    HW221827   2.548  11.978   3.726  3.2340 -1.3408 -0.3600
 3368SOL     OW21828   1.590   7.470  10.182 -0.1314  0.1005 -0.0711
 3368SOL    HW121829   1.561   7.390  10.138  1.0724 -0.5272  0.2577
 3368SOL    HW221830   1.578   7.452  10.275  0.0516  0.3445  0.0011
 3369SOL     OW21831   0.297  11.716   7.830  0.7945 -0.3909  0.3127
 3369SOL    HW121832   0.316  11.630   7.793  0.9596 -0.6394  0.9672
 3369SOL    HW221833   0.303  11.776   7.755  1.7746 -0.7966  0.0502
 3370SOL     OW21834   5.211   8.764  10.130 -0.6152 -0.4016  0.0686
 3370SOL    HW121835   5.162   8.688  10.163  1.8065 -2.0497  0.1581
 3370SOL    HW221836   5.265   8.792  10.204  0.6378 -0.4857 -0.7731
 3371SOL     OW21837   5.223  11.819  13.662  0.0904 -0.2387  0.0518
 3371SOL    HW121838   5.264  11.816  13.576  0.4093 -2.2397  0.2298
 3371SOL    HW221839   5.297  11.813  13.724 -0.2950 -2.9780  0.3766
 3372SOL     OW21840   2.252   7.586   0.823 -0.1288 -0.1091  0.1183
 3372SOL    HW121841   2.298   7.522   0.769  0.4521 -1.1795  1.7769
 3372SOL    HW221842   2.178   7.538   0.859  0.4296  0.0496  1.5517
 3373SOL     OW21843   9.176  11.774   7.616 -0.1849  0.2433  0.0291
 3373SOL    HW121844   9.192  11.868   7.628 -0.0532  0.1829  0.3153
 3373SOL    HW221845   9.123  11.748   7.692  0.8144 -0.1745  0.5962
 3374SOL     OW21846   0.980   8.119  12.813  0.6210  0.2298 -0.2763
 3374SOL    HW121847   0.962   8.088  12.902  1.0053  0.2966 -0.1724
 3374SOL    HW221848   0.977   8.214  12.819 -3.1023  0.3321 -1.1113
 3375SOL     OW21849   5.404  10.893  13.486 -0.3893  0.2006 -0.2707
 3375SOL    HW121850   5.417  10.987  13.482  1.9375 -0.0874 -1.2434
 3375SOL    HW221851   5.420  10.871  13.578 -3.5157  0.9704  0.5703
 3376SOL     OW21852   4.562   8.918  12.851 -0.0589  0.2613  0.2108
 3376SOL    HW121853   4.521   8.966  12.923 -0.0041  0.4389  0.1239
 3376SOL    HW221854   4.489   8.894  12.794 -0.4409 -1.9799  1.5155
 3377SOL     OW21855  11.539   4.674   0.663 -0.0427  0.1667 -0.0057
 3377SOL    HW121856  11.554   4.666   0.569  3.5904  0.8291  0.3540
 3377SOL    HW221857  11.581   4.757   0.687 -1.5200  0.3841  2.1087
 3378SOL     OW21858  13.334   2.499   1.474 -0.4626  0.0773 -0.2228
 3378SOL    HW121859  13.285   2.452   1.542 -0.7845  0.5806 -0.0987
 3378SOL    HW221860  13.308   2.456   1.392 -0.4453 -0.2190 -0.0760
 3379SOL     OW21861   3.952   0.471  12.152 -0.1285  0.1647  0.8205
 3379SOL    HW121862   3.864   0.484  12.187 -1.7419  0.9042 -2.9924
 3379SOL    HW221863   3.940   0.410  12.079  2.2530  1.3618 -0.6933
 3380SOL     OW21864   4.328  11.904  10.000  0.3060  0.0661 -0.1426
 3380SOL    HW121865   4.281  11.955  10.067 -2.9025 -1.2735 -1.1873
 3380SOL    HW221866   4.355  11.969   9.935 -1.5220  0.7637 -0.2493
 3381SOL     OW21867   2.981   9.147   7.832 -0.4086 -0.3457  0.1947
 3381SOL    HW121868   3.027   9.066   7.808  0.5420  0.0272  0.6968
 3381SOL    HW221869   3.010   9.211   7.767 -0.4816 -0.1948  0.3095
 3382SOL     OW21870   4.516  13.549   9.265 -0.3646 -0.1482  0.1809
 3382SOL    HW121871   4.597  13.527   9.310 -0.2269  0.0373  0.0264
 3382SOL    HW221872   4.484  13.466   9.229 -0.9498 -0.4605  1.3884
 3383SOL     OW21873  10.409   8.517  12.942  0.2865 -0.1360 -0.1070
 3383SOL    HW121874  10.457   8.597  12.918  0.8381 -1.0095 -2.1360
 3383SOL    HW221875  10.464   8.476  13.009  0.2840  0.8697  0.5400
 3384SOL     OW21876   6.268   6.511  11.837 -0.6023  0.5136 -0.4419
 3384SOL    HW121877   6.297   6.442  11.897  0.1752 -0.2769 -1.6650
 3384SOL    HW221878   6.236   6.464  11.761 -0.7358  1.5007 -1.0115
 3385SOL     OW21879   1.479   7.761   1.570  0.0917 -0.3848 -0.0182
 3385SOL    HW121880   1.554   7.750   1.627 -1.3241 -1.8211  1.6731
 3385SOL    HW221881   1.489   7.694   1.503 -0.2367 -1.3239  0.8601
 3386SOL     OW21882   3.878   9.622   2.080  0.0951  0.5277  0.2005
 3386SOL    HW121883   3.824   9.555   2.122 -1.7824  1.9995  0.2811
 3386SOL    HW221884   3.950   9.637   2.142  1.2734 -2.1936 -0.3727
 3387SOL     OW21885   9.873   1.226   9.612 -0.0501  0.5147 -0.0946
 3387SOL    HW121886   9.894   1.212   9.704 -1.7197  2.4207  0.6452
 3387SOL    HW221887   9.911   1.312   9.591 -0.1334  0.3316 -1.0564
 3388SOL     OW21888  11.955   7.847   4.827 -0.4437  0.0089 -0.4222
 3388SOL    HW121889  11.962   7.766   4.879  1.5277 -1.4513 -2.7358
 3388SOL    HW221890  11.942   7.817   4.737 -1.4098  2.3723 -1.1441
 3389SOL     OW21891   5.767   6.644   7.411  0.6740  0.1009 -0.0507
 3389SOL    HW121892   5.767   6.566   7.354  0.1045  0.1266 -0.0945
 3389SOL    HW221893   5.733   6.613   7.494 -0.6981  0.5347 -0.4186
 3390SOL     OW21894  12.803   5.209   4.258  0.8254  0.3219  0.1902
 3390SOL    HW121895  12.740   5.265   4.213  0.1275  0.0115  0.7613
 3390SOL    HW221896  12.888   5.249   4.240  0.2474  2.5207  1.9117
 3391SOL     OW21897   1.484   8.146  12.737 -0.1639 -0.2130 -0.0658
 3391SOL    HW121898   1.437   8.203  12.798 -0.8706  0.5874 -1.3102
 3391SOL    HW221899   1.415   8.095  12.694  0.4027 -1.5023  0.4988
 3392SOL     OW21900   5.302   2.045   9.798 -0.1685 -0.1034  0.2767
 3392SOL    HW121901   5.396   2.057   9.782 -0.3769 -0.0655 -1.0235
 3392SOL    HW221902   5.290   1.950   9.801 -0.0245 -0.1034  0.8594
 3393SOL     OW21903   9.272  11.750   6.779 -0.3379 -0.6489 -0.0344
 3393SOL    HW121904   9.333  11.798   6.836 -0.8346  0.6265 -0.5234
 3393SOL    HW221905   9.284  11.789   6.693 -1.6443 -0.5446 -0.1910
 3394SOL     OW21906   0.764   7.275   0.084  0.4505  0.1714  0.2983
 3394SOL    HW121907   0.699   7.291   0.016 -0.2658  0.1733  0.9668
 3394SOL    HW221908   0.834   7.228   0.039  0.1592  0.4952 -0.5166
 3395SOL     OW21909  13.468  11.714   6.516 -0.1284 -0.0620 -0.1520
 3395SOL    HW121910  13.462  11.734   6.422 -0.5006 -2.1129 -0.6226
 3395SOL    HW221911  13.377  11.702   6.544  0.0766 -2.5372 -0.3292
 3396SOL     OW21912   7.766   3.971   8.143 -0.5243  0.2901 -0.3724
 3396SOL    HW121913   7.751   4.016   8.060 -1.3889  1.4042  0.3477
 3396SOL    HW221914   7.827   3.901   8.122 -0.1834  0.9756 -1.8105
 3397SOL     OW21915   5.799   3.885   8.435  0.2511  0.0714 -0.1440
 3397SOL    HW121916   5.873   3.935   8.468  2.1612 -3.8937  2.2664
 3397SOL    HW221917   5.810   3.884   8.340  2.0257  1.3443  0.0162
 3398SOL     OW21918  11.358   0.471  10.822  0.2726  0.6959 -0.4422
 3398SOL    HW121919  11.426   0.515  10.874 -0.6089  0.7890  0.6678
 3398SOL    HW221920  11.384   0.379  10.823 -1.0670  0.2306  2.4682
 3399SOL     OW21921   4.898  11.659   1.705 -0.1938 -0.3978 -0.1189
 3399SOL    HW121922   4.972  11.615   1.747 -0.6556 -2.0735 -1.0025
 3399SOL    HW221923   4.823  11.635   1.759 -0.3432 -0.0052 -0.1464
 3400SOL     OW21924  12.406   2.880   8.095 -0.1853 -0.2062 -0.2896
 3400SOL    HW121925  12.397   2.916   8.183 -1.4753  1.4863 -1.0608
 3400SOL    HW221926  12.475   2.932   8.054  0.1023 -0.6898 -0.4329
 3401SOL     OW21927   1.771   2.456   1.759 -0.1034 -0.4653 -0.4957
 3401SOL    HW121928   1.860   2.489   1.751 -0.1428 -0.4756 -1.0058
 3401SOL    HW221929   1.729   2.479   1.676 -0.8929  0.4850  0.1514
 3402SOL     OW21930   5.071   8.846   2.881  0.3570  0.4995 -0.1813
 3402SOL    HW121931   5.152   8.810   2.844  1.0498  0.8560  0.9440
 3402SOL    HW221932   5.096   8.879   2.967 -0.9738  0.7040  0.1544
 3403SOL     OW21933   5.646   8.513   7.583  0.4648  0.1396  0.7143
 3403SOL    HW121934   5.577   8.452   7.610  0.3918  0.2755  0.8378
 3403SOL    HW221935   5.624   8.595   7.627  0.3054  0.3851  0.1840
 3404SOL     OW21936   0.810   6.366   2.035  0.0386  0.4761  0.3886
 3404SOL    HW121937   0.871   6.349   2.107  0.9397 -0.0795 -0.4848
 3404SOL    HW221938   0.763   6.284   2.023 -0.4065  0.6963  0.6090
 3405SOL     OW21939   4.368   7.295   7.496 -0.5268 -0.0852  0.0626
 3405SOL    HW121940   4.386   7.232   7.565 -0.0339  0.4270  0.4111
 3405SOL    HW221941   4.335   7.242   7.423  0.1172 -0.7695  0.2568
 3406SOL     OW21942   8.429   7.547   4.539 -0.4461  0.9174  0.1181
 3406SOL    HW121943   8.340   7.522   4.565 -0.6913  1.3379 -0.3133
 3406SOL    HW221944   8.467   7.466   4.504 -1.4855  1.2576 -1.9383
 3407SOL     OW21945   9.909  13.268  11.480 -0.0181 -0.2509  0.4427
 3407SOL    HW121946   9.941  13.285  11.568 -0.5622 -0.9635  0.7875
 3407SOL    HW221947   9.899  13.173  11.476 -1.4866 -0.1111  0.1580
 3408SOL     OW21948   8.228   4.809   8.088  0.2186  0.1323  0.1796
 3408SOL    HW121949   8.151   4.793   8.143  0.0549  1.4714  0.3635
 3408SOL    HW221950   8.197   4.868   8.019  0.2102 -2.1237 -1.8935
 3409SOL     OW21951   6.324   8.847   8.876 -0.5265  0.6948 -0.0137
 3409SOL    HW121952   6.368   8.932   8.864  1.2784 -0.0073  1.2474
 3409SOL    HW221953   6.388   8.793   8.920 -2.9487 -0.1495  2.8144
 3410SOL     OW21954   3.781   2.070  11.878  0.1270  0.1751  0.0346
 3410SOL    HW121955   3.767   2.089  11.971 -1.6305  0.5379 -0.2649
 3410SOL    HW221956   3.792   2.156  11.837  1.3329 -0.0044 -0.0520
 3411SOL     OW21957  12.547   0.448   6.597 -0.3372  0.0315  0.1673
 3411SOL    HW121958  12.457   0.481   6.588 -0.9919 -1.8531 -0.6182
 3411SOL    HW221959  12.602   0.526   6.585 -1.8327  0.9988 -0.7371
 3412SOL     OW21960   9.096  11.837  12.529 -0.1225 -0.6975 -0.8149
 3412SOL    HW121961   9.154  11.872  12.462  1.0655 -1.2245 -0.0892
 3412SOL    HW221962   9.151  11.829  12.607 -1.3835 -0.3928  0.1480
 3413SOL     OW21963   1.616  12.274   1.958 -0.2203 -0.1832  0.5181
 3413SOL    HW121964   1.665  12.256   2.038  1.4578 -0.8015 -0.5951
 3413SOL    HW221965   1.524  12.261   1.983  0.1014  1.1936  2.7180
 3414SOL     OW21966  11.183   9.892   4.911 -0.5092  0.3520 -0.1541
 3414SOL    HW121967  11.217   9.836   4.841  0.8327  1.0652 -0.1098
 3414SOL    HW221968  11.204   9.845   4.992  2.5358  1.7591  0.0168
 3415SOL     OW21969  13.400  13.457   1.939  0.3120  0.4995 -0.2307
 3415SOL    HW121970  13.456  13.478   2.014  0.2343 -1.4509  0.4338
 3415SOL    HW221971  13.311  13.468   1.972  0.2388  2.5573 -0.9738
 3416SOL     OW21972   3.927   3.599   9.256 -0.2303  0.3629 -0.8338
 3416SOL    HW121973   3.942   3.617   9.163 -0.6634 -1.3375 -1.2763
 3416SOL    HW221974   3.992   3.532   9.278 -1.6043 -0.9547 -0.5707
 3417SOL     OW21975  10.475  12.919   4.269  0.2830  0.6340 -0.0730
 3417SOL    HW121976  10.512  12.831   4.273 -0.6689  0.1811 -0.6493
 3417SOL    HW221977  10.550  12.978   4.277  0.7259 -0.1747  2.7377
 3418SOL     OW21978   5.114   6.824   7.680  0.2132 -0.8500  0.4615
 3418SOL    HW121979   5.043   6.828   7.745 -0.2496 -1.5453  0.0143
 3418SOL    HW221980   5.122   6.914   7.649  0.2948 -0.5478  1.3189
 3419SOL     OW21981   3.997  10.317   9.576  0.3215 -0.0402  0.4647
 3419SOL    HW121982   3.909  10.296   9.544  0.9801  0.9709 -2.2507
 3419SOL    HW221983   4.037  10.231   9.592 -0.0663 -0.6907 -1.6501
 3420SOL     OW21984  12.788   4.563   1.038 -0.0779  0.3785  0.1463
 3420SOL    HW121985  12.792   4.625   1.111 -1.6434 -0.0626  0.6346
 3420SOL    HW221986  12.851   4.495   1.061  1.3366  1.5087 -0.1824
 3421SOL     OW21987   7.081   1.540   8.865  0.2596 -0.4798  0.0922
 3421SOL    HW121988   7.127   1.480   8.924  0.3700 -0.1647  0.3234
 3421SOL    HW221989   7.103   1.508   8.777  2.0360  0.4722  0.1417
 3422SOL     OW21990   6.970   2.173   8.691  0.2405 -0.0343 -0.7659
 3422SOL    HW121991   6.954   2.082   8.666  0.2123  0.1691 -1.5181
 3422SOL    HW221992   7.025   2.208   8.621 -0.0849  0.6407 -0.6959
 3423SOL     OW21993   1.385   1.225   1.647 -0.0849  0.1624 -0.1327
 3423SOL    HW121994   1.381   1.206   1.553 -0.4365 -1.0766  0.1088
 3423SOL    HW221995   1.300   1.196   1.680 -0.2159  1.2030  0.4713
 3424SOL     OW21996   9.693   7.658   4.868  0.4838  0.0243 -0.1594
 3424SOL    HW121997   9.660   7.721   4.932 -0.3353 -0.1575 -0.3847
 3424SOL    HW221998   9.754   7.603   4.918  2.1775  1.7394 -0.2519
 3425SOL     OW21999   5.838   3.170   6.566 -0.2204 -0.0185  0.6321
 3425SOL    HW122000   5.915   3.189   6.513 -0.5600 -0.2708  0.0322
 3425SOL    HW222001   5.862   3.197   6.654  0.8514 -0.8296  0.6120
 3426SOL     OW22002  11.963   0.680   3.676  0.1673  0.8628 -0.0211
 3426SOL    HW122003  11.893   0.701   3.615 -0.7902 -1.1727  0.2990
 3426SOL    HW222004  11.924   0.692   3.763  0.2102 -0.1650  0.1572
 3427SOL     OW22005  10.122   5.141   2.742 -0.2871  0.2133  0.1325
 3427SOL    HW122006  10.163   5.193   2.811  1.7442 -0.3986 -0.5473
 3427SOL    HW222007  10.122   5.051   2.776 -0.8592  0.1723  0.0292
 3428SOL     OW22008   0.540  13.675   2.548  0.5522  0.0075  0.0421
 3428SOL    HW122009   0.519  13.762   2.514  0.8052 -0.4028 -1.2289
 3428SOL    HW222010   0.467  13.652   2.604 -0.5174  0.2122 -1.2210
 3429SOL     OW22011   3.934   4.997   6.659 -0.7256 -0.1732 -0.7237
 3429SOL    HW122012   3.866   4.965   6.719 -0.1109 -2.0481 -0.9358
 3429SOL    HW222013   3.908   5.086   6.638 -1.8367 -0.0249  1.0482
 3430SOL     OW22014  11.721   8.253   9.076  0.2842  0.7091  0.0211
 3430SOL    HW122015  11.676   8.334   9.053  1.0884  1.0824 -0.2761
 3430SOL    HW222016  11.733   8.259   9.171  1.2176  1.4193 -0.1227
 3431SOL     OW22017  10.476   9.949   0.439  0.3865  0.0323  0.7077
 3431SOL    HW122018  10.456  10.023   0.496  0.6117 -0.4933  1.4742
 3431SOL    HW222019  10.566   9.926   0.461  0.4337 -0.2623  0.2251
 3432SOL     OW22020   9.012   7.317  13.097  0.3928 -0.1859  0.4086
 3432SOL    HW122021   9.053   7.344  13.015  0.9118 -0.7238  0.4759
 3432SOL    HW222022   9.086   7.291  13.152  0.0585  0.3165  1.1038
 3433SOL     OW22023  11.707   6.803   7.834  0.3823  0.1188  0.4034
 3433SOL    HW122024  11.689   6.715   7.868  0.5398  0.2783  0.9048
 3433SOL    HW222025  11.739   6.788   7.745  0.4773 -0.3347  0.5116
 3434SOL     OW22026   6.106   9.965   1.401 -0.2525  0.2366  0.4763
 3434SOL    HW122027   6.067  10.052   1.395 -0.9645 -0.1230 -0.4657
 3434SOL    HW222028   6.189   9.971   1.354 -0.5274  0.3019 -0.0129
 3435SOL     OW22029   5.969   5.917  12.225 -0.5755 -0.5167  0.3832
 3435SOL    HW122030   6.047   5.877  12.186  2.3641  0.3296  4.6843
 3435SOL    HW222031   5.972   6.008  12.196 -0.8419 -0.8131 -0.6056
 3436SOL     OW22032  11.897  10.868   6.304 -0.9004 -0.1134  0.2730
 3436SOL    HW122033  11.945  10.948   6.329 -1.9791  0.8985 -0.7524
 3436SOL    HW222034  11.928  10.802   6.365  0.6566  0.8802  0.6168
 3437SOL     OW22035   0.962   2.761   7.832  0.0804 -0.5610  0.0188
 3437SOL    HW122036   0.924   2.776   7.918 -1.5305 -2.9152 -0.1652
 3437SOL    HW222037   1.033   2.698   7.848  0.0063 -0.7309 -0.3051
 3438SOL     OW22038   6.597   6.177   6.125  0.3761 -0.1649  0.0383
 3438SOL    HW122039   6.625   6.268   6.136 -0.1483  0.2022 -1.3615
 3438SOL    HW222040   6.502   6.182   6.120  0.3496 -0.7743 -0.1087
 3439SOL     OW22041   8.414  13.657  11.479 -0.2020 -0.3728 -0.0821
 3439SOL    HW122042   8.450  13.732  11.432  0.8869 -1.1814 -0.5862
 3439SOL    HW222043   8.402  13.689  11.568 -0.6370  0.6660 -0.4941
 3440SOL     OW22044   4.240   1.870   1.481 -0.3648  0.1717  0.1022
 3440SOL    HW122045   4.185   1.803   1.442 -1.5046  0.5100  1.0651
 3440SOL    HW222046   4.314   1.823   1.517  0.5629 -0.1871 -2.1185
 3441SOL     OW22047   2.551   8.422   6.321 -0.5057 -0.1882 -0.1441
 3441SOL    HW122048   2.539   8.516   6.335 -1.1243 -0.0522 -1.4548
 3441SOL    HW222049   2.594   8.416   6.236  0.2647 -1.0839  0.2863
 3442SOL     OW22050  10.496   4.048   7.120  0.4521 -0.1742  0.2271
 3442SOL    HW122051  10.481   3.971   7.174  1.2562 -0.5827 -0.1061
 3442SOL    HW222052  10.409   4.082   7.101  0.1185 -0.6505  0.8757
 3443SOL     OW22053  10.460   5.825   9.882 -0.3256  0.4373  1.2201
 3443SOL    HW122054  10.530   5.796   9.823 -1.5027 -0.3086  0.1374
 3443SOL    HW222055  10.453   5.919   9.868  0.5269  0.5404  1.4297
 3444SOL     OW22056  12.246  13.004   5.482 -0.0683  0.1130 -0.3804
 3444SOL    HW122057  12.293  12.963   5.410 -0.8694 -2.1550  0.3058
 3444SOL    HW222058  12.155  13.004   5.455 -0.5266 -1.6693  0.9308
 3445SOL     OW22059  11.166  10.376   9.185  0.1647  0.6086 -0.6179
 3445SOL    HW122060  11.119  10.380   9.102 -1.8571 -1.4515  0.3129
 3445SOL    HW222061  11.097  10.376   9.252  1.7082  1.9671  1.0840
 3446SOL     OW22062   3.235   4.852   4.613  0.0201 -0.8621  0.3461
 3446SOL    HW122063   3.225   4.938   4.571  2.5940 -1.1630 -1.1119
 3446SOL    HW222064   3.299   4.866   4.682  1.7745 -1.8451 -0.9912
 3447SOL     OW22065  10.853   8.007   1.842 -0.3374  0.3195 -0.8893
 3447SOL    HW122066  10.914   8.073   1.808 -2.5674  2.8613 -0.2947
 3447SOL    HW222067  10.770   8.053   1.849 -1.0752 -1.2013  3.8670
 3448SOL     OW22068   8.698  13.025   9.535 -0.3441  0.2213  0.3137
 3448SOL    HW122069   8.702  13.048   9.627 -1.0648  0.3786  0.3083
 3448SOL    HW222070   8.720  13.106   9.488 -0.4050  0.2508  0.3374
 3449SOL     OW22071   3.370   9.023  11.551  0.1123  0.3848  0.5960
 3449SOL    HW122072   3.320   8.979  11.619 -1.3227  0.0808 -0.6026
 3449SOL    HW222073   3.339   9.114  11.553 -0.2999  0.2643  0.0470
 3450SOL     OW22074  10.304   4.905   7.727  0.5673  0.1834  0.2524
 3450SOL    HW122075  10.230   4.933   7.782  0.4872 -1.5905  1.1050
 3450SOL    HW222076  10.271   4.914   7.637 -0.3569  0.3191  0.5903
 3451SOL     OW22077   8.265   9.580   8.275 -0.0188 -0.2641  0.0267
 3451SOL    HW122078   8.255   9.675   8.279 -0.3644 -0.1531 -2.0684
 3451SOL    HW222079   8.177   9.547   8.261  0.1925 -0.8207 -0.0270
 3452SOL     OW22080   7.315   0.086  10.545  0.4081 -0.2984 -0.0571
 3452SOL    HW122081   7.385   0.086  10.479  0.1866 -0.1302 -0.2980
 3452SOL    HW222082   7.335   0.012  10.602 -0.6569 -1.9123 -1.6693
 3453SOL     OW22083   1.054   4.907   2.217 -0.2211 -0.0566  0.3730
 3453SOL    HW122084   0.970   4.939   2.183  0.5978  0.4122 -1.2992
 3453SOL    HW222085   1.120   4.961   2.174  1.0645 -2.0035 -0.2189
 3454SOL     OW22086   1.443   6.201   2.938 -0.2036 -0.0482  0.1352
 3454SOL    HW122087   1.518   6.147   2.911  0.4727  1.1766 -0.5346
 3454SOL    HW222088   1.379   6.190   2.868 -0.2353 -0.2927  0.2010
 3455SOL     OW22089   4.423   8.390   8.556 -0.2148  0.1177  0.0481
 3455SOL    HW122090   4.419   8.328   8.483 -0.6207  1.4848 -1.1313
 3455SOL    HW222091   4.365   8.462   8.531 -1.9026 -0.2174  2.5744
 3456SOL     OW22092  10.683   8.279   5.673 -0.2333  0.3242  0.0674
 3456SOL    HW122093  10.631   8.310   5.748  1.9260  2.0062  0.9746
 3456SOL    HW222094  10.708   8.359   5.626  3.0880 -0.1435  0.7879
 3457SOL     OW22095   7.140  11.681   7.846 -0.7882 -0.6892  0.0698
 3457SOL    HW122096   7.065  11.703   7.902  1.0657  2.1116  1.7074
 3457SOL    HW222097   7.205  11.645   7.906  0.2410 -0.2765 -0.7748
 3458SOL     OW22098   7.481  11.760   2.953 -0.0967 -0.2895 -0.2517
 3458SOL    HW122099   7.454  11.680   2.907 -0.4563 -0.5817  0.4535
 3458SOL    HW222100   7.412  11.776   3.016  1.2521 -0.9305  1.4612
 3459SOL     OW22101   2.169   5.534   8.602  0.3424 -0.6724  0.8971
 3459SOL    HW122102   2.183   5.466   8.536  1.8696  1.8877 -1.6218
 3459SOL    HW222103   2.077   5.559   8.591  0.7975  0.3211 -0.9687
 3460SOL     OW22104   8.127  12.632   1.819 -0.3245 -0.4082  0.1041
 3460SOL    HW122105   8.154  12.590   1.738 -0.0372  0.4576 -0.2663
 3460SOL    HW222106   8.191  12.703   1.831 -1.1419  0.2968  0.3840
 3461SOL     OW22107   5.512  10.334   2.072  0.1607 -0.0504 -0.0106
 3461SOL    HW122108   5.466  10.256   2.105 -0.3656  0.6520  0.9663
 3461SOL    HW222109   5.513  10.323   1.977 -0.7821 -0.7746  0.0489
 3462SOL     OW22110   2.054  10.785  10.585 -0.0448  0.8386  0.9580
 3462SOL    HW122111   2.124  10.795  10.520 -1.9670 -1.3249 -1.6456
 3462SOL    HW222112   1.989  10.851  10.561 -0.3941  0.5956  1.2255
 3463SOL     OW22113   2.157   6.502   2.674 -0.5425  0.0131 -0.1078
 3463SOL    HW122114   2.144   6.409   2.655  0.6507 -0.5303  1.5102
 3463SOL    HW222115   2.115   6.516   2.758  0.6046  0.5503  0.4052
 3464SOL     OW22116   2.724  13.356   2.922  0.2757 -0.3752  0.5055
 3464SOL    HW122117   2.753  13.341   3.012  0.2072  2.2166  1.0552
 3464SOL    HW222118   2.631  13.377   2.930 -0.1545 -1.7979 -0.4133
 3465SOL     OW22119   5.907   8.191  10.355 -0.0886  0.0079  0.0983
 3465SOL    HW122120   5.833   8.246  10.382  1.7056  1.8727  1.5286
 3465SOL    HW222121   5.945   8.160  10.438  0.3077 -1.5380 -0.6327
 3466SOL     OW22122   5.692   3.652  10.297  0.3777 -0.2827 -0.4481
 3466SOL    HW122123   5.690   3.615  10.385 -0.9099 -0.2320 -0.4500
 3466SOL    HW222124   5.768   3.610  10.255 -0.1341 -1.7443  0.0473
 3467SOL     OW22125   6.116   4.684   8.153  0.5029 -0.7051  0.2407
 3467SOL    HW122126   6.022   4.677   8.135  0.1940 -2.1218  2.0363
 3467SOL    HW222127   6.156   4.697   8.067 -1.1941 -2.0079 -0.8265
 3468SOL     OW22128  10.366  13.161   3.122  0.0264  0.1182  0.4087
 3468SOL    HW122129  10.438  13.101   3.139  0.2206  0.4784  0.8976
 3468SOL    HW222130  10.291  13.105   3.105 -0.5139 -0.3566  3.6769
 3469SOL     OW22131   1.637  12.994   1.146  0.3389 -0.3397 -0.0089
 3469SOL    HW122132   1.701  12.988   1.218  2.7135 -0.1723 -1.9660
 3469SOL    HW222133   1.585  12.914   1.153  1.3633 -0.9400  1.1514
 3470SOL     OW22134   5.710   9.903   4.061 -0.2033 -0.0710  0.1460
 3470SOL    HW122135   5.795   9.924   4.099 -0.0073  0.5382 -0.6025
 3470SOL    HW222136   5.680   9.827   4.110  1.0134 -0.6278  0.0715
 3471SOL     OW22137   0.418   0.380   5.784  0.4049 -0.2401 -0.0790
 3471SOL    HW122138   0.378   0.464   5.807 -1.2245 -1.1240  0.4772
 3471SOL    HW222139   0.510   0.401   5.765 -0.0542  1.7104 -0.3321
 3472SOL     OW22140   0.832   6.548  13.508 -0.0232  0.2260  0.3669
 3472SOL    HW122141   0.813   6.473  13.452 -0.4856  1.5203 -1.3088
 3472SOL    HW222142   0.748   6.590  13.522  0.0442 -0.1743  2.2905
 3473SOL     OW22143   4.731  13.363   4.557  0.0818  0.1400  0.3695
 3473SOL    HW122144   4.756  13.441   4.605 -1.1587  0.3754  0.6778
 3473SOL    HW222145   4.721  13.393   4.467  2.1486 -0.2450 -0.0419
 3474SOL     OW22146   5.150   1.583   8.880 -0.0055  0.0038  0.1515
 3474SOL    HW122147   5.240   1.589   8.911 -0.4164  2.6838  1.0245
 3474SOL    HW222148   5.097   1.581   8.959 -0.8572  2.7290 -0.2397
 3475SOL     OW22149   7.989   8.303  11.136 -0.0881 -0.1975 -0.0130
 3475SOL    HW122150   7.974   8.353  11.217  2.6140 -2.1088  1.8546
 3475SOL    HW222151   7.934   8.225  11.145 -0.6190  0.0981 -0.5961
 3476SOL     OW22152   6.110   9.515   2.920  0.1322  0.2276 -0.5500
 3476SOL    HW122153   6.095   9.449   2.988  0.9170  0.7317  0.1358
 3476SOL    HW222154   6.197   9.495   2.886  0.4804  1.0514 -0.1631
 3477SOL     OW22155   7.582   7.562   8.574  0.1265 -0.0407  0.4095
 3477SOL    HW122156   7.643   7.512   8.520  0.0154  0.6575 -0.3820
 3477SOL    HW222157   7.497   7.522   8.555  0.1370 -0.0277  0.3319
 3478SOL     OW22158  11.655   3.964   0.803 -0.0769 -0.3376  0.4379
 3478SOL    HW122159  11.647   4.032   0.737  1.5291 -0.2763  0.2671
 3478SOL    HW222160  11.695   4.008   0.878  1.3261 -1.1191  0.1977
 3479SOL     OW22161   0.998   4.450   7.882  0.3604  0.2481 -0.0885
 3479SOL    HW122162   0.991   4.385   7.952 -0.1228  0.3949 -0.0019
 3479SOL    HW222163   1.059   4.516   7.916  0.6557 -0.0259 -0.0777
 3480SOL     OW22164   1.916   6.840  11.670 -0.3392 -0.1637  0.1001
 3480SOL    HW122165   1.887   6.829  11.760 -0.1578  0.0685  0.1875
 3480SOL    HW222166   1.900   6.932  11.649  2.2598  0.5409  0.8657
 3481SOL     OW22167   9.868   4.622   8.255 -0.0791 -0.4958 -0.0698
 3481SOL    HW122168   9.905   4.542   8.217  0.4097 -0.7046  0.8220
 3481SOL    HW222169   9.900   4.623   8.345  1.4592  1.6569 -0.5489
 3482SOL     OW22170  13.393   9.495   7.463 -0.0192 -0.3990  0.2774
 3482SOL    HW122171  13.417   9.458   7.548 -2.2727 -1.1631  0.6469
 3482SOL    HW222172  13.366   9.420   7.411 -1.5846  0.3538 -0.0576
 3483SOL     OW22173   2.494   1.043   2.358 -0.0094 -0.2221 -0.3792
 3483SOL    HW122174   2.499   1.137   2.341  1.5997 -0.3388 -0.7524
 3483SOL    HW222175   2.411   1.016   2.320 -0.9460  1.1946  0.5779
 3484SOL     OW22176  11.757   2.545   9.990  0.0240 -0.9505 -0.1044
 3484SOL    HW122177  11.682   2.531   9.932  0.6996 -1.4335 -0.8762
 3484SOL    HW222178  11.827   2.493   9.952  1.0440  0.2691  0.0370
 3485SOL     OW22179  13.709  13.087  11.268  0.4421  0.3289 -0.2537
 3485SOL    HW122180  13.786  13.142  11.253  0.0370  0.6254 -1.3010
 3485SOL    HW222181  13.636  13.140  11.237 -0.2736  0.3065  1.2975
 3486SOL     OW22182   1.990   0.428   5.885 -0.0651  0.1149 -0.3797
 3486SOL    HW122183   2.006   0.409   5.793 -1.3357 -1.1400 -0.3818
 3486SOL    HW222184   1.899   0.457   5.888 -0.5130 -1.2616  0.6164
 3487SOL     OW22185   7.190   4.869   3.513  0.1879  0.4985 -0.3167
 3487SOL    HW122186   7.096   4.880   3.529  0.5437  1.0933  1.5123
 3487SOL    HW222187   7.232   4.891   3.596  1.7959 -2.3842 -0.2102
 3488SOL     OW22188   8.077   9.778   2.268 -0.1900 -0.7590 -0.0395
 3488SOL    HW122189   8.121   9.697   2.294  0.8710 -0.2882 -0.2748
 3488SOL    HW222190   8.149   9.842   2.260 -0.8874 -0.0421 -0.7808
 3489SOL     OW22191   5.088   4.267   3.048  0.1602 -0.0446 -0.5005
 3489SOL    HW122192   5.058   4.186   3.088  0.6287 -0.1129 -0.2844
 3489SOL    HW222193   5.164   4.241   2.995  1.3054  0.4973  0.8260
 3490SOL     OW22194   2.257   6.141   3.978  0.8022  0.3814  0.1841
 3490SOL    HW122195   2.255   6.070   3.913 -0.0726  0.5900 -0.0285
 3490SOL    HW222196   2.243   6.221   3.927 -0.6078  0.4881  0.6868
 3491SOL     OW22197   0.829   6.859  13.393  0.4162 -0.5415  0.0549
 3491SOL    HW122198   0.803   6.779  13.347  0.0298 -0.0211 -0.6579
 3491SOL    HW222199   0.898   6.897  13.339  0.6905 -0.4652  0.4582
 3492SOL     OW22200  13.517  13.647  11.696 -0.2324  0.9370 -0.5526
 3492SOL    HW122201  13.574  13.579  11.732 -0.6981  0.1664 -1.2240
 3492SOL    HW222202  13.574  13.697  11.637 -0.2128  0.2129 -1.1679
 3493SOL     OW22203  12.197   9.296  10.683 -0.3093 -0.0562  0.0762
 3493SOL    HW122204  12.183   9.389  10.668  1.0736  0.4099  1.3240
 3493SOL    HW222205  12.112   9.263  10.712 -0.6028  1.0320  0.5087
 3494SOL     OW22206   0.967   9.306   8.979  0.4893  0.2577 -0.4808
 3494SOL    HW122207   1.051   9.352   8.970  0.4049  0.3296 -0.9005
 3494SOL    HW222208   0.982   9.220   8.939 -0.1550  0.9120 -2.1956
 3495SOL     OW22209   4.993   1.986   3.265  0.3041 -0.2163  0.0437
 3495SOL    HW122210   4.996   1.893   3.287 -1.6966  0.1782  2.4037
 3495SOL    HW222211   4.901   2.002   3.243  1.1387  0.6868 -3.3374
 3496SOL     OW22212   0.102  12.577  11.199 -0.7342  0.5268 -0.0123
 3496SOL    HW122213   0.185  12.592  11.244  0.4350  1.8136 -2.3991
 3496SOL    HW222214   0.050  12.655  11.220 -0.7722  0.4321  0.2581
 3497SOL     OW22215   0.240   5.278   4.087 -0.1179 -0.0950 -0.4294
 3497SOL    HW122216   0.335   5.288   4.078 -0.0744  0.5411  0.5486
 3497SOL    HW222217   0.219   5.199   4.037  0.9467 -0.3251 -0.5380
 3498SOL     OW22218  10.580   8.096   6.748 -0.5143 -0.8303 -0.0087
 3498SOL    HW122219  10.560   8.012   6.707  0.5975 -0.0349 -2.3542
 3498SOL    HW222220  10.504   8.152   6.728 -0.1376 -0.5516 -0.6804
 3499SOL     OW22221  10.363   3.506   4.623 -0.0190  0.0759  0.2212
 3499SOL    HW122222  10.373   3.451   4.546 -0.0023 -0.5447  0.6595
 3499SOL    HW222223  10.296   3.571   4.599  0.6919  0.5043 -0.6452
 3500SOL     OW22224  10.200   1.772   8.605 -0.0442  0.0462 -0.5086
 3500SOL    HW122225  10.192   1.723   8.687  1.3446  1.1144  0.3020
 3500SOL    HW222226  10.229   1.707   8.541 -0.9566 -0.7576 -0.1443
 3501SOL     OW22227   4.090  11.483   2.609 -0.0144 -0.6466  0.4433
 3501SOL    HW122228   4.153  11.553   2.594 -1.0106  0.1875  0.0977
 3501SOL    HW222229   4.068  11.450   2.522  1.1288 -2.0343  0.6364
 3502SOL     OW22230   5.371   2.913   8.337 -0.2036 -0.0900  0.0233
 3502SOL    HW122231   5.440   2.939   8.398 -1.4337  0.3001  1.3238
 3502SOL    HW222232   5.293   2.903   8.392 -1.3394  0.1016 -1.4755
 3503SOL     OW22233   2.977   8.032   0.567  0.8250  0.2743  0.2843
 3503SOL    HW122234   3.037   7.996   0.501 -0.3126  1.1102 -1.2872
 3503SOL    HW222235   3.011   8.120   0.584  2.2804 -0.6167  2.4053
 3504SOL     OW22236  10.026   6.810   9.108 -0.9464 -0.0523  0.4289
 3504SOL    HW122237   9.944   6.787   9.152 -0.8409 -0.4231  0.4361
 3504SOL    HW222238  10.029   6.905   9.111 -0.4955 -0.0856  2.0791
 3505SOL     OW22239   7.756  10.499  10.594 -0.1764 -0.2241  0.1968
 3505SOL    HW122240   7.771  10.587  10.630 -2.4654  0.9676 -1.5112
 3505SOL    HW222241   7.701  10.456  10.659  0.3631 -0.1436  0.7133
 3506SOL     OW22242   3.223  13.349   7.600  0.2180  0.3206 -0.0673
 3506SOL    HW122243   3.189  13.377   7.515  0.5287  1.2047  0.0922
 3506SOL    HW222244   3.207  13.254   7.602  0.1526  0.2992 -1.0804
 3507SOL     OW22245  10.897   1.689   0.116  0.1342  0.1799 -0.2584
 3507SOL    HW122246  10.812   1.718   0.151  0.2014 -1.5546  1.5309
 3507SOL    HW222247  10.913   1.747   0.041 -2.6039  0.5622 -0.6555
 3508SOL     OW22248   0.796   1.461   3.182  0.3659 -0.6268 -0.2552
 3508SOL    HW122249   0.748   1.484   3.102 -0.2147 -0.9484 -0.0060
 3508SOL    HW222250   0.882   1.502   3.171 -0.0357  0.1464 -0.6164
 3509SOL     OW22251   7.451   4.591  10.500  0.0408  0.2625  0.3086
 3509SOL    HW122252   7.519   4.542  10.453  0.2690  1.4117 -0.5940
 3509SOL    HW222253   7.440   4.543  10.582  3.2939  1.0486  1.3494
 3510SOL     OW22254   6.481   2.609   3.641  0.2806  0.0317  0.1662
 3510SOL    HW122255   6.524   2.672   3.699 -0.9203  2.0934 -1.0842
 3510SOL    HW222256   6.518   2.626   3.555  0.0566 -1.1312 -0.1732
 3511SOL     OW22257   7.314   9.071  11.858  0.6145  0.3049 -0.5694
 3511SOL    HW122258   7.297   9.164  11.842 -0.4282  0.0567 -1.0357
 3511SOL    HW222259   7.227   9.032  11.867  1.0359 -0.6274 -0.3662
 3512SOL     OW22260   7.992   3.536   1.415 -0.5489  0.1890  0.1170
 3512SOL    HW122261   7.899   3.556   1.408 -0.7107 -1.0265 -2.2558
 3512SOL    HW222262   7.998   3.473   1.487 -2.0114 -1.7226 -1.3236
 3513SOL     OW22263  13.006  12.087  10.015  0.3841  0.5006  0.1671
 3513SOL    HW122264  13.008  12.166  10.070 -0.7662  0.6619 -0.0030
 3513SOL    HW222265  13.023  12.119   9.927 -1.3353  0.7600 -0.0960
 3514SOL     OW22266   6.417   8.867   4.108 -0.6989 -0.3965  0.0676
 3514SOL    HW122267   6.508   8.887   4.087 -0.2529 -1.8275  0.5248
 3514SOL    HW222268   6.422   8.792   4.167 -2.1598 -0.1504  0.5394
 3515SOL     OW22269   4.876   1.935   0.781 -0.4038  0.2483 -0.2499
 3515SOL    HW122270   4.962   1.906   0.811 -0.0784 -0.4757 -1.7998
 3515SOL    HW222271   4.815   1.868   0.813 -0.2493  0.1971 -0.0614
 3516SOL     OW22272   1.899   4.028   3.667  0.5502  0.3550 -0.6000
 3516SOL    HW122273   1.805   4.021   3.651  0.0397 -0.2302  2.0977
 3516SOL    HW222274   1.940   3.977   3.597 -1.2280 -0.6841 -0.9361
 3517SOL     OW22275  11.681   6.146   6.870  0.2276 -0.2010 -0.2817
 3517SOL    HW122276  11.591   6.147   6.903  0.0786  3.2238 -0.5015
 3517SOL    HW222277  11.714   6.060   6.895 -3.1543 -1.6980 -0.4163
 3518SOL     OW22278   4.553   9.830   8.807 -0.5024  0.7187 -0.3714
 3518SOL    HW122279   4.583   9.865   8.891 -2.1582 -0.6131  0.8399
 3518SOL    HW222280   4.633   9.798   8.765  0.4250  1.9042  0.4375
 3519SOL     OW22281  12.619   1.174   4.321 -0.6591 -0.1939  0.0279
 3519SOL    HW122282  12.527   1.183   4.344 -0.3986  0.4111  0.8951
 3519SOL    HW222283  12.666   1.209   4.397  0.2639  0.5526 -0.8608
 3520SOL     OW22284   4.710   9.762  11.116 -0.3292  0.2020  0.4169
 3520SOL    HW122285   4.710   9.677  11.072 -0.8992 -1.0525  2.6553
 3520SOL    HW222286   4.799   9.770  11.152  0.2982  1.4564 -1.3035
 3521SOL     OW22287   3.377   6.912   7.844 -1.2747  0.1975 -0.5173
 3521SOL    HW122288   3.401   6.987   7.789  2.8930 -0.0369  0.6886
 3521SOL    HW222289   3.312   6.947   7.905 -0.7358  2.3366 -1.0959
 3522SOL     OW22290   3.361   8.899   8.097 -0.1844 -0.0170  0.0638
 3522SOL    HW122291   3.378   8.892   8.003 -0.6251  0.4792 -0.0603
 3522SOL    HW222292   3.347   8.992   8.112  0.5563 -0.0090  0.7489
 3523SOL     OW22293   6.055   3.991   8.537  0.0498  0.4894  0.2503
 3523SOL    HW122294   6.070   4.085   8.547 -1.0601  0.7375 -0.3250
 3523SOL    HW222295   6.122   3.951   8.593  0.1001  1.6302  1.0577
 3524SOL     OW22296   3.417   6.019   5.885  0.0496 -0.5902  0.4607
 3524SOL    HW122297   3.485   6.036   5.951  3.5721 -0.5175 -2.8550
 3524SOL    HW222298   3.431   5.928   5.860 -0.0016 -0.1281 -1.3591
 3525SOL     OW22299   5.916  13.194   4.516 -0.2716  0.3612 -0.0016
 3525SOL    HW122300   5.963  13.111   4.518  1.3502  1.2472 -0.1060
 3525SOL    HW222301   5.848  13.183   4.583  0.9288 -0.4831  1.1454
 3526SOL     OW22302  11.748   0.939   8.229 -0.1678 -0.1976 -0.7419
 3526SOL    HW122303  11.713   0.899   8.309  2.7439  1.2533  1.4271
 3526SOL    HW222304  11.791   0.867   8.183  0.8883 -0.5184  0.6809
 3527SOL     OW22305   6.715   1.522   2.487 -0.3117 -0.4572  0.2440
 3527SOL    HW122306   6.655   1.581   2.440 -0.2997 -0.3780  0.3282
 3527SOL    HW222307   6.789   1.511   2.428  0.7107  1.3566  1.0998
 3528SOL     OW22308   7.344   5.144   5.563 -0.2003 -0.0318 -0.2045
 3528SOL    HW122309   7.300   5.109   5.485 -0.3681 -0.7446  0.1995
 3528SOL    HW222310   7.429   5.174   5.530 -0.3463 -0.1381 -0.6990
 3529SOL     OW22311   0.956   3.212   3.445 -0.1287  0.1808  0.1282
 3529SOL    HW122312   0.920   3.289   3.402  0.9858 -0.2317 -1.6878
 3529SOL    HW222313   1.004   3.246   3.520  0.6588  1.3055 -0.8540
 3530SOL     OW22314   3.390   3.344   2.574  0.3383 -0.0957 -0.2967
 3530SOL    HW122315   3.455   3.366   2.640  0.4454 -1.6423  0.1644
 3530SOL    HW222316   3.327   3.288   2.620 -0.7086  0.4352 -1.0132
 3531SOL     OW22317  11.915   9.779   4.776 -0.5545 -0.3735 -0.9427
 3531SOL    HW122318  11.986   9.717   4.793 -1.6235 -1.4401 -0.2139
 3531SOL    HW222319  11.944   9.829   4.700  0.5998 -1.3580 -1.1724
 3532SOL     OW22320   4.924   0.163  10.763  0.5068  0.3772 -0.3519
 3532SOL    HW122321   4.917   0.131  10.673 -0.1509  0.2799 -0.2695
 3532SOL    HW222322   4.933   0.083  10.816  1.5768  0.4634 -0.3851
 3533SOL     OW22323   5.511   1.725   4.442  0.0890  0.1605  0.6250
 3533SOL    HW122324   5.503   1.807   4.490 -0.4785 -0.6177  1.9085
 3533SOL    HW222325   5.421   1.703   4.417  0.5531  2.0554 -3.5634
 3534SOL     OW22326   7.619  11.170   1.352  0.1933 -0.1710  0.2205
 3534SOL    HW122327   7.555  11.209   1.411 -1.3588  1.6571 -2.4440
 3534SOL    HW222328   7.579  11.089   1.322  0.1031 -0.1312  0.2345
 3535SOL     OW22329   6.598   4.498  12.304 -0.0002  0.8203  0.4430
 3535SOL    HW122330   6.503   4.501  12.297 -0.0772  2.6423  1.5173
 3535SOL    HW222331   6.622   4.410  12.277 -1.9220  0.5654 -0.5695
 3536SOL     OW22332   2.716   7.666   3.460 -0.6717 -0.3694 -0.2665
 3536SOL    HW122333   2.743   7.699   3.546  2.7461 -0.6430 -1.1113
 3536SOL    HW222334   2.682   7.743   3.415  1.4045  0.7534 -0.0414
 3537SOL     OW22335   0.641   6.022  11.243  0.1628 -0.6464 -0.2672
 3537SOL    HW122336   0.671   5.932  11.243 -0.5438 -0.9063  0.6461
 3537SOL    HW222337   0.669   6.056  11.328 -1.6845 -0.7759  0.4438
 3538SOL     OW22338  13.396   7.452   5.608 -0.4673  0.0933  0.0930
 3538SOL    HW122339  13.301   7.447   5.597 -0.5230 -0.2724  0.7007
 3538SOL    HW222340  13.420   7.367   5.646  0.1739 -0.0137 -0.5278
 3539SOL     OW22341  12.955   0.429   5.392 -0.1251  0.2814  0.1616
 3539SOL    HW122342  12.904   0.348   5.382 -1.0149  0.7709  0.6220
 3539SOL    HW222343  12.916   0.490   5.329 -1.1232  1.1311  1.5479
 3540SOL     OW22344   2.432   2.003   1.018 -0.6523  0.1611 -0.0987
 3540SOL    HW122345   2.375   2.007   0.941  0.8024 -1.4891 -1.3227
 3540SOL    HW222346   2.518   1.983   0.983 -0.2081 -2.1479  2.0778
 3541SOL     OW22347   8.802   1.647  12.906  0.2256 -1.1909  0.0018
 3541SOL    HW122348   8.795   1.670  12.999  0.0973 -0.7993 -0.1041
 3541SOL    HW222349   8.891   1.671  12.881  0.1565 -0.9993 -0.0580
 3542SOL     OW22350   9.851   0.996   8.123 -0.3063 -0.4922 -0.0685
 3542SOL    HW122351   9.807   1.052   8.186 -0.7408 -0.2835 -0.5511
 3542SOL    HW222352   9.795   0.919   8.116  0.3071 -1.0241  0.6235
 3543SOL     OW22353   1.091   5.067  11.272  0.3281 -0.0458  0.2780
 3543SOL    HW122354   1.061   5.067  11.181  1.1554  2.3238 -0.0407
 3543SOL    HW222355   1.021   5.109  11.321  0.8493  0.7353  0.3642
 3544SOL     OW22356   3.574  11.381   1.535 -0.4213  0.1425  0.4124
 3544SOL    HW122357   3.606  11.373   1.625 -0.9004 -2.2460  0.4356
 3544SOL    HW222358   3.480  11.398   1.544 -0.4401  0.0647  0.3639
 3545SOL     OW22359   1.036   8.209   0.902 -0.0517  0.2190  0.4849
 3545SOL    HW122360   0.996   8.122   0.899  1.7005 -0.7032  2.0957
 3545SOL    HW222361   1.098   8.209   0.829 -1.4536  0.9132 -0.7638
 3546SOL     OW22362   6.397  13.311  12.032 -0.0608  0.3217  0.1355
 3546SOL    HW122363   6.360  13.225  12.052  0.4286  0.3215  1.0738
 3546SOL    HW222364   6.484  13.293  11.997 -1.1616  0.2720 -2.8952
 3547SOL     OW22365   5.761  12.909  11.531  0.1903 -0.4481  0.1669
 3547SOL    HW122366   5.776  12.823  11.491 -0.0432 -0.2055 -0.4697
 3547SOL    HW222367   5.667  12.923  11.521  0.1145 -0.4277  0.9108
 3548SOL     OW22368   7.217  11.926   7.722 -0.5786  0.6247  0.1008
 3548SOL    HW122369   7.170  11.843   7.720 -0.3877  0.5229 -0.5935
 3548SOL    HW222370   7.222  11.953   7.630  1.7946 -0.0027 -0.0258
 3549SOL     OW22371   8.735   7.321  13.147  0.0902 -0.1441  0.7022
 3549SOL    HW122372   8.827   7.327  13.121 -0.3439  1.5356 -0.6824
 3549SOL    HW222373   8.688   7.361  13.074 -1.6564 -0.0400  1.8432
 3550SOL     OW22374   9.573   1.748  12.475  0.8251 -0.1000 -0.4013
 3550SOL    HW122375   9.631   1.682  12.437  0.5424 -0.2579 -0.5634
 3550SOL    HW222376   9.547   1.711  12.559  0.7595 -0.1412 -0.4399
 3551SOL     OW22377   8.952  12.731  10.254 -0.0334  0.0018 -0.0387
 3551SOL    HW122378   8.999  12.813  10.233 -2.2729  1.3515 -0.0718
 3551SOL    HW222379   8.862  12.747  10.226 -0.7750 -2.1192  0.9429
 3552SOL     OW22380  13.223   7.932   7.824 -0.0491 -0.4428  0.3857
 3552SOL    HW122381  13.213   7.839   7.841 -1.8390 -0.5955 -1.2824
 3552SOL    HW222382  13.291   7.937   7.757  0.1264 -0.5148  0.5550
 3553SOL     OW22383  11.417  10.863   1.636  0.3979 -0.1531  0.1235
 3553SOL    HW122384  11.440  10.938   1.691 -1.3720 -1.7643  3.3960
 3553SOL    HW222385  11.329  10.883   1.604  0.1472 -0.5710  0.5421
 3554SOL     OW22386   6.572   1.861  10.210  0.5983  0.0588  0.1094
 3554SOL    HW122387   6.600   1.934  10.156  0.0586  0.3918  0.2795
 3554SOL    HW222388   6.631   1.789  10.185  0.6330  0.3287 -0.6010
 3555SOL     OW22389   3.178   4.489   0.731  0.1972 -0.1673 -0.1376
 3555SOL    HW122390   3.120   4.418   0.759 -1.9538  1.2601 -0.7721
 3555SOL    HW222391   3.133   4.569   0.757  1.0150  1.0622 -2.2558
 3556SOL     OW22392   0.336  10.170   8.663 -0.3158 -0.0781  0.1998
 3556SOL    HW122393   0.252  10.134   8.692 -0.2972 -0.2223  0.0752
 3556SOL    HW222394   0.314  10.258   8.630 -0.2005  0.4324  1.4495
 3557SOL     OW22395   8.807   3.893   3.435 -0.3076 -0.0017  0.4561
 3557SOL    HW122396   8.812   3.799   3.422 -1.6913 -0.1817  1.1135
 3557SOL    HW222397   8.772   3.904   3.523 -1.5789  1.0857 -0.1372
 3558SOL     OW22398  12.955  11.798  11.912 -0.1544  0.7197 -0.4808
 3558SOL    HW122399  12.934  11.810  11.819 -0.1381 -2.8720 -1.1015
 3558SOL    HW222400  12.891  11.733  11.942  0.9583  0.4944  1.5584
 3559SOL     OW22401  10.131   6.948   1.576 -0.5192  0.3630 -0.4426
 3559SOL    HW122402  10.190   7.007   1.529  1.5660  0.7953  2.4091
 3559SOL    HW222403  10.144   6.863   1.534 -0.1678  1.0551 -1.7911
 3560SOL     OW22404   9.076   1.283   3.156 -0.4169 -0.3436 -1.0385
 3560SOL    HW122405   9.134   1.208   3.167 -0.7397 -0.4603 -0.0380
 3560SOL    HW222406   8.989   1.250   3.177 -0.4709  0.4655  0.0824
 3561SOL     OW22407   4.139   4.481   2.994 -0.1036 -0.7656 -0.0223
 3561SOL    HW122408   4.125   4.523   2.909  0.9673 -1.1499 -0.4046
 3561SOL    HW222409   4.093   4.397   2.987 -2.8272  0.5478  0.9839
 3562SOL     OW22410  10.177   7.659   6.622 -0.1624  0.4728 -0.1776
 3562SOL    HW122411  10.224   7.597   6.567 -1.0287 -0.2737 -0.0995
 3562SOL    HW222412  10.157   7.610   6.702  1.7809  1.7579  1.2027
 3563SOL     OW22413   4.332  11.789  11.227 -0.6459  0.4323  0.1227
 3563SOL    HW122414   4.411  11.807  11.279 -0.6639  1.2652 -0.1156
 3563SOL    HW222415   4.283  11.724  11.278 -0.5830  1.1120  1.0700
 3564SOL     OW22416  11.913  11.705  11.512  0.3381 -0.0611  0.1021
 3564SOL    HW122417  11.918  11.629  11.454  0.9795  1.7174 -2.3637
 3564SOL    HW222418  11.831  11.748  11.487  0.6052  0.7163  0.5349
 3565SOL     OW22419   1.869  11.890   3.214 -0.7950  0.1302  0.0985
 3565SOL    HW122420   1.799  11.912   3.276 -2.2217 -0.5262 -1.2169
 3565SOL    HW222421   1.887  11.973   3.169 -0.9023  0.2484  0.2681
 3566SOL     OW22422   5.779  12.003  12.143  0.1453  0.3434 -0.1213
 3566SOL    HW122423   5.842  11.934  12.118  1.1893  0.3774  2.1482
 3566SOL    HW222424   5.707  11.955  12.184  1.3966  0.5712  2.5103
 3567SOL     OW22425   7.325   6.735   9.117 -0.6277 -0.0008  0.1342
 3567SOL    HW122426   7.378   6.681   9.059 -0.3339  1.5455 -1.1112
 3567SOL    HW222427   7.275   6.673   9.169  1.7218 -1.5218  0.7442
 3568SOL     OW22428   0.407   6.821   8.226 -0.3143 -0.5075  0.1213
 3568SOL    HW122429   0.417   6.753   8.159 -1.1535 -0.3792 -0.1544
 3568SOL    HW222430   0.324   6.799   8.269  0.2961 -0.6882  1.2501
 3569SOL     OW22431   3.150   2.384  10.935  0.0288  0.7872  0.0864
 3569SOL    HW122432   3.148   2.379  11.031 -0.3333 -0.9612  0.0211
 3569SOL    HW222433   3.237   2.351  10.912  0.2475  1.5394 -0.1886
 3570SOL     OW22434   9.181  10.999  12.591  0.2509  0.0227  0.0178
 3570SOL    HW122435   9.189  10.937  12.663 -1.0791 -1.3950 -0.9705
 3570SOL    HW222436   9.086  11.011  12.581  0.4464  0.9822 -0.8305
 3571SOL     OW22437  13.631   7.221   0.687 -0.9126 -0.0542 -0.5999
 3571SOL    HW122438  13.717   7.253   0.714 -0.2549 -0.9035 -1.6250
 3571SOL    HW222439  13.590   7.296   0.644 -1.3734  0.8550  1.3089
 3572SOL     OW22440   9.738   4.379  10.985 -0.1368 -0.6028 -0.1721
 3572SOL    HW122441   9.651   4.338  10.979 -0.5349  0.1395  0.3486
 3572SOL    HW222442   9.744   4.432  10.906 -0.4816 -0.0557  0.1630
 3573SOL     OW22443   5.082  10.178   8.703  0.1378 -0.1651 -0.1917
 3573SOL    HW122444   5.158  10.126   8.727 -1.1768 -1.8191  0.6111
 3573SOL    HW222445   5.084  10.183   8.608  1.4037  0.1030 -0.1645
 3574SOL     OW22446  11.350  12.652  13.365 -0.1567  0.1723  0.3301
 3574SOL    HW122447  11.387  12.573  13.324 -0.8097  0.6439 -1.2195
 3574SOL    HW222448  11.421  12.684  13.422  0.5870 -0.7952 -0.0124
 3575SOL     OW22449   3.636   8.882   6.560  0.1094  0.1243 -0.6511
 3575SOL    HW122450   3.602   8.837   6.483 -2.2981 -0.7601  0.8114
 3575SOL    HW222451   3.573   8.953   6.576  1.6462  1.5526 -0.5667
 3576SOL     OW22452  11.774   2.134  10.321  0.5707 -0.3719 -0.6829
 3576SOL    HW122453  11.758   2.171  10.407 -0.4998 -1.8567 -0.2038
 3576SOL    HW222454  11.833   2.196  10.279 -1.6053  2.2326 -0.1923
 3577SOL     OW22455  12.601   7.141   4.048  0.1272 -0.3384  0.5213
 3577SOL    HW122456  12.558   7.139   4.134  0.0254 -2.6606  0.4629
 3577SOL    HW222457  12.661   7.067   4.049  2.9205  1.7703 -0.0923
 3578SOL     OW22458   4.850   2.991   0.815 -0.2290 -0.4886 -0.0570
 3578SOL    HW122459   4.888   2.936   0.883 -0.8710  0.5480  1.1814
 3578SOL    HW222460   4.921   3.004   0.752  0.9372 -0.0138  1.3135
 3579SOL     OW22461   1.946   5.874   5.293  0.1357 -0.3898 -0.4629
 3579SOL    HW122462   1.918   5.788   5.260 -3.4674  1.2277 -2.2391
 3579SOL    HW222463   1.873   5.932   5.272  2.0004  2.9761  1.5077
 3580SOL     OW22464   6.367   5.526  10.963 -0.2112 -0.2407  0.4163
 3580SOL    HW122465   6.276   5.554  10.973  0.8197  3.0641  2.1074
 3580SOL    HW222466   6.386   5.534  10.870 -0.8050  2.4623  0.4489
 3581SOL     OW22467  11.697  11.427   5.297  0.8113 -0.0401  0.6321
 3581SOL    HW122468  11.709  11.358   5.232 -0.8975  0.9437 -0.8049
 3581SOL    HW222469  11.767  11.490   5.279  0.2988  0.2683 -0.3549
 3582SOL     OW22470   2.859   3.671   2.865 -0.5239  0.0203  0.4831
 3582SOL    HW122471   2.837   3.579   2.880 -0.9251  0.3029  1.7590
 3582SOL    HW222472   2.865   3.709   2.953 -2.8724  1.8104 -0.0257
 3583SOL     OW22473  11.744   5.776   9.654  0.4799 -0.5180  0.2373
 3583SOL    HW122474  11.833   5.811   9.654  0.3264 -0.1093 -0.8435
 3583SOL    HW222475  11.706   5.807   9.572 -1.4254  1.2483  1.6958
 3584SOL     OW22476   7.709   8.211  11.408 -0.0567  0.1757  0.1789
 3584SOL    HW122477   7.750   8.135  11.367 -0.2067  1.6152 -2.9612
 3584SOL    HW222478   7.782   8.269  11.428 -0.0575 -0.1800  1.2740
 3585SOL     OW22479   3.913   0.321  13.467 -0.4199  0.0576 -0.6441
 3585SOL    HW122480   3.901   0.416  13.458 -1.7691  0.1523  1.4487
 3585SOL    HW222481   3.831   0.291  13.507  0.9202 -1.6320  0.9478
 3586SOL     OW22482  10.893   2.273  11.608  0.1239 -0.1563 -0.3944
 3586SOL    HW122483  10.968   2.330  11.623 -2.3517  2.8439  2.1065
 3586SOL    HW222484  10.881   2.228  11.692 -0.6145 -0.9122 -0.8978
 3587SOL     OW22485   8.569   6.777  11.045  0.0058  0.1516 -0.4149
 3587SOL    HW122486   8.536   6.795  10.957 -2.2887  2.6360  0.8139
 3587SOL    HW222487   8.642   6.838  11.056 -0.1859  0.3772 -0.3678
 3588SOL     OW22488   4.339   5.301  13.061  0.8228 -0.1693 -0.0544
 3588SOL    HW122489   4.400   5.229  13.077  0.0669 -0.5819  1.1347
 3588SOL    HW222490   4.253   5.259  13.057  0.1696  0.7589  2.2314
 3589SOL     OW22491   0.137   7.577   5.772 -0.2615 -0.0502  0.4033
 3589SOL    HW122492   0.101   7.600   5.858 -1.4773 -0.2974 -0.0076
 3589SOL    HW222493   0.138   7.659   5.723  1.0841  0.2217  0.8612
 3590SOL     OW22494  11.108  12.347   3.487 -0.1907 -0.4506  0.0373
 3590SOL    HW122495  11.067  12.342   3.573 -0.5862  0.2877 -0.1009
 3590SOL    HW222496  11.165  12.271   3.483 -0.3290 -0.6043  0.8701
 3591SOL     OW22497  10.611  12.637   0.670  0.3679 -0.2032  0.2113
 3591SOL    HW122498  10.536  12.580   0.686  1.0470 -1.1952 -0.0752
 3591SOL    HW222499  10.622  12.686   0.752  0.0734 -0.8211  0.6215
 3592SOL     OW22500   8.856   1.240   2.354  0.2391 -0.0773  0.6297
 3592SOL    HW122501   8.827   1.190   2.430 -0.4944 -1.2462 -0.4030
 3592SOL    HW222502   8.887   1.175   2.292 -0.8959  0.7015 -0.8186
 3593SOL     OW22503  10.851  10.323  12.959  0.0223  0.0827 -0.3777
 3593SOL    HW122504  10.820  10.236  12.934  2.6910 -0.2647 -3.0533
 3593SOL    HW222505  10.792  10.383  12.914 -0.4598 -0.3814 -0.3785
 3594SOL     OW22506  11.055   6.207   2.341  0.2746  0.2782 -0.2540
 3594SOL    HW122507  10.992   6.162   2.398  0.4135  0.8784  0.3851
 3594SOL    HW222508  11.004   6.227   2.263  0.1404 -0.7524 -0.4541
 3595SOL     OW22509   1.365   0.413  13.032 -0.0029 -0.4263 -0.7942
 3595SOL    HW122510   1.364   0.357  12.954 -0.4528 -1.1805 -0.2581
 3595SOL    HW222511   1.403   0.495  13.002 -3.1933  0.5177 -2.6569
 3596SOL     OW22512  10.889   2.068   3.954  0.2800 -0.0550 -0.3298
 3596SOL    HW122513  10.868   2.161   3.947  0.6530  0.2978  2.2529
 3596SOL    HW222514  10.982   2.063   3.932  0.2362  0.1776 -0.5686
 3597SOL     OW22515   3.431   9.571   8.521  0.0693  0.0641  0.1061
 3597SOL    HW122516   3.410   9.589   8.613  0.1682  0.0611  0.1294
 3597SOL    HW222517   3.480   9.648   8.492  1.0665 -0.4420  0.3884
 3598SOL     OW22518   0.988   3.639   9.773 -0.0287 -0.8721 -0.3198
 3598SOL    HW122519   0.999   3.558   9.824 -0.6331 -0.3590  0.6508
 3598SOL    HW222520   1.064   3.692   9.796 -0.3889 -0.5719  0.1734
 3599SOL     OW22521   6.344   1.976  12.953 -0.0505  0.1120 -0.1001
 3599SOL    HW122522   6.294   2.017  12.882  1.3744  0.1729 -1.1169
 3599SOL    HW222523   6.333   2.035  13.027  0.0219  1.1127 -0.8542
 3600SOL     OW22524  11.350  11.305   2.676 -0.2994 -0.3036  0.6042
 3600SOL    HW122525  11.298  11.372   2.719  2.0275  0.7342  2.0206
 3600SOL    HW222526  11.359  11.236   2.742 -0.2897 -0.6857  0.2079
 3601SOL     OW22527  10.434  11.166   6.256 -0.0608 -0.0337 -0.3792
 3601SOL    HW122528  10.403  11.160   6.165  1.0218  1.1721 -0.8487
 3601SOL    HW222529  10.421  11.077   6.291 -1.9337 -0.1374 -1.2087
 3602SOL     OW22530   1.146  11.669  13.656 -0.0742 -0.4233  0.4642
 3602SOL    HW122531   1.216  11.683  13.720  0.7551  0.5518 -0.6213
 3602SOL    HW222532   1.071  11.717  13.692  0.1995 -0.3831  0.9936
 3603SOL     OW22533   8.308   9.756   5.675 -0.2500 -0.0006  0.1867
 3603SOL    HW122534   8.323   9.850   5.663  0.1860 -0.2917 -1.9615
 3603SOL    HW222535   8.215   9.744   5.656 -0.1476 -0.0996 -0.2561
 3604SOL     OW22536  10.260   8.388   6.997 -0.6538 -0.8080 -0.3679
 3604SOL    HW122537  10.303   8.304   6.980  0.6526 -0.4396  0.9393
 3604SOL    HW222538  10.323   8.454   6.969 -1.0780 -0.2511 -0.0377
 3605SOL     OW22539  10.497   5.645  12.002 -0.7119  0.0206 -0.2835
 3605SOL    HW122540  10.497   5.553  12.030  0.6094  0.6945  2.2126
 3605SOL    HW222541  10.555   5.647  11.926 -1.3427 -1.2943 -0.8388
 3606SOL     OW22542   0.849   1.270  12.458  0.5719 -0.4322  0.1732
 3606SOL    HW122543   0.898   1.232  12.531  0.5632  1.0551  0.9756
 3606SOL    HW222544   0.823   1.357  12.488  0.5065  0.1963 -1.5821
 3607SOL     OW22545  13.357   6.426  12.826  0.0740  0.8032 -0.0818
 3607SOL    HW122546  13.422   6.444  12.894 -0.4903 -1.2033  1.0469
 3607SOL    HW222547  13.401   6.452  12.745  1.3174  1.8586  0.8730
 3608SOL     OW22548  10.483   9.699   3.874 -0.3136  0.0860 -0.0732
 3608SOL    HW122549  10.542   9.708   3.949 -1.5256  1.8489  0.7331
 3608SOL    HW222550  10.529   9.742   3.802 -0.7392  1.8197  0.6517
 3609SOL     OW22551   7.820   9.094   2.367 -0.4105 -0.2666  0.1097
 3609SOL    HW122552   7.902   9.051   2.391 -0.6980 -0.8160  0.1430
 3609SOL    HW222553   7.801   9.153   2.440 -0.2918 -0.4974  0.3278
 3610SOL     OW22554   7.734   6.360  12.556  0.4314 -0.2581  0.0030
 3610SOL    HW122555   7.683   6.325  12.482  1.5712  0.7046 -1.2913
 3610SOL    HW222556   7.668   6.391  12.618 -0.5830  0.8785 -1.5829
 3611SOL     OW22557   1.293  12.655   1.477  0.0954 -0.4727 -0.2589
 3611SOL    HW122558   1.369  12.641   1.533 -0.1419 -1.0071 -0.0738
 3611SOL    HW222559   1.272  12.568   1.443  0.2140 -0.1691 -1.1496
 3612SOL     OW22560   5.365  12.931  12.800 -0.2436 -0.5050  0.1614
 3612SOL    HW122561   5.328  13.019  12.801  1.6046  0.3338  0.7407
 3612SOL    HW222562   5.457  12.945  12.776  0.2190 -2.2148  0.8146
 3613SOL     OW22563   7.395   8.940   4.559  0.0706  0.0782  0.2649
 3613SOL    HW122564   7.370   9.032   4.565  1.4944  0.5224 -0.2277
 3613SOL    HW222565   7.476   8.933   4.611  1.8748 -0.1160 -2.3837
 3614SOL     OW22566   2.906  12.049   5.985 -0.6475 -0.1324 -0.5767
 3614SOL    HW122567   2.995  12.014   5.980 -0.4961  0.3126 -1.1564
 3614SOL    HW222568   2.863  12.016   5.906 -1.0176 -0.4019 -0.2640
 3615SOL     OW22569  12.250  10.648  13.087  0.5240  0.0555  0.4271
 3615SOL    HW122570  12.209  10.564  13.108 -0.9442  0.6430 -0.0123
 3615SOL    HW222571  12.338  10.625  13.057  0.3381 -1.2780  0.8690
 3616SOL     OW22572  13.108  13.146  12.373 -0.0285  0.4544  0.3407
 3616SOL    HW122573  13.030  13.110  12.330 -0.3949  2.4252 -0.8067
 3616SOL    HW222574  13.124  13.088  12.447 -2.8150  0.1941  0.8400
 3617SOL     OW22575   6.014   3.401  11.916  0.4385  0.4744 -0.4204
 3617SOL    HW122576   5.944   3.347  11.877  1.7236 -0.6414 -1.2816
 3617SOL    HW222577   6.043   3.350  11.992 -0.7435  1.7214  0.9324
 3618SOL     OW22578   2.379   8.033   8.701  0.1341  0.1252 -0.0137
 3618SOL    HW122579   2.468   7.998   8.713 -0.8040 -2.3688  0.2284
 3618SOL    HW222580   2.392   8.127   8.687  2.7297  0.0121  1.0459
 3619SOL     OW22581   4.757  11.092  11.022  0.2477  0.2864 -0.0580
 3619SOL    HW122582   4.764  11.004  10.986 -0.1451  0.1296  0.2405
 3619SOL    HW222583   4.771  11.150  10.947  0.7612 -0.0262 -0.2054
 3620SOL     OW22584   1.039   1.217   9.233 -0.3837 -0.0262  0.2065
 3620SOL    HW122585   1.076   1.133   9.263 -2.2078 -0.6416  0.8623
 3620SOL    HW222586   1.028   1.268   9.313 -2.5963 -0.5803  0.3365
 3621SOL     OW22587   5.153  12.353   0.267  0.1438 -0.6518 -0.4045
 3621SOL    HW122588   5.197  12.415   0.325  0.9452 -0.5341 -1.1135
 3621SOL    HW222589   5.071  12.396   0.243  0.1772 -0.3551  0.0048
 3622SOL     OW22590   2.076  11.010   8.540 -0.4490 -0.1218  0.0422
 3622SOL    HW122591   2.045  10.928   8.580 -0.0194 -0.2175  0.1852
 3622SOL    HW222592   2.010  11.031   8.475 -0.5241 -0.6274 -0.0494
 3623SOL     OW22593   2.615   5.358   4.739  0.0905 -0.5823 -0.1765
 3623SOL    HW122594   2.530   5.314   4.743  0.5687 -1.6645 -1.3855
 3623SOL    HW222595   2.679   5.288   4.751  0.8652 -0.2874 -2.1721
 3624SOL     OW22596  12.027   2.765   6.035  0.2036 -0.2617 -0.4608
 3624SOL    HW122597  11.962   2.820   5.991 -0.0605  0.1624  0.4335
 3624SOL    HW222598  11.988   2.746   6.120  1.5369  0.5641  0.3699
 3625SOL     OW22599   2.691  13.398   5.691  0.2152  0.1022 -0.0707
 3625SOL    HW122600   2.631  13.430   5.623  0.1799 -1.4039 -0.7752
 3625SOL    HW222601   2.649  13.319   5.725  1.1379 -0.1979  0.3978
 3626SOL     OW22602   3.086   5.734   1.313  0.0640 -0.3445 -0.0268
 3626SOL    HW122603   3.118   5.765   1.228  1.2328 -3.7599 -0.9801
 3626SOL    HW222604   2.995   5.764   1.316  1.1524  3.5478 -0.4161
 3627SOL     OW22605  11.926   0.385  11.950 -0.6044  0.4821 -0.3077
 3627SOL    HW122606  11.897   0.316  11.889 -1.0082 -0.8668  1.3328
 3627SOL    HW222607  11.908   0.467  11.903 -0.7894 -0.4877 -2.0336
 3628SOL     OW22608  13.224  10.299   7.125 -0.5427 -0.6093  0.0508
 3628SOL    HW122609  13.230  10.235   7.196  0.0142 -0.1913  0.3916
 3628SOL    HW222610  13.155  10.359   7.153  1.1771  0.8628  1.3496
 3629SOL     OW22611   8.332   2.173   9.372  0.1053 -0.4244  0.3051
 3629SOL    HW122612   8.416   2.215   9.352  0.4480 -1.2422 -0.0397
 3629SOL    HW222613   8.291   2.230   9.437  0.3953  0.6158 -0.4012
 3630SOL     OW22614   8.193   8.582   8.255 -0.6262 -0.1317  0.5107
 3630SOL    HW122615   8.140   8.535   8.319  0.4565 -0.3627  1.2741
 3630SOL    HW222616   8.130   8.637   8.207 -2.0994 -3.0212 -1.1186
 3631SOL     OW22617  10.467   8.825  13.697 -0.6695  0.0529 -0.1972
 3631SOL    HW122618  10.541   8.844  13.640 -2.2000  0.9989 -2.0035
 3631SOL    HW222619  10.495   8.853  13.784  1.3124 -0.2851 -0.6835
 3632SOL     OW22620  13.448   9.677  10.528 -0.3268  0.2530  0.1769
 3632SOL    HW122621  13.454   9.589  10.490 -1.5858 -0.3202  1.2130
 3632SOL    HW222622  13.533   9.690  10.570 -0.6919 -1.2222  1.4900
 3633SOL     OW22623   2.058  13.573  10.298 -0.0338  0.4060 -0.1862
 3633SOL    HW122624   2.080  13.612  10.382  0.1642  2.2450 -1.0387
 3633SOL    HW222625   2.033  13.482  10.318  0.4111  0.6923  1.7680
 3634SOL     OW22626   2.252   2.894   6.401  0.0067 -0.3077 -0.6866
 3634SOL    HW122627   2.263   2.873   6.494  0.8966  0.0475 -0.7079
 3634SOL    HW222628   2.256   2.809   6.357 -0.3231 -0.4677 -0.4112
 3635SOL     OW22629  12.376  11.031   4.817 -0.3562  0.8693 -0.2470
 3635SOL    HW122630  12.368  11.113   4.768  0.8088  2.7907  2.4542
 3635SOL    HW222631  12.457  11.042   4.868 -0.0505 -2.0935  0.0971
 3636SOL     OW22632  10.040  12.302   1.149  0.1658  0.5990 -0.2727
 3636SOL    HW122633   9.945  12.303   1.136  0.0833  0.3411  0.2884
 3636SOL    HW222634  10.053  12.351   1.230  0.5645  1.1171 -0.6432
 3637SOL     OW22635   6.896   3.170  12.447  0.2932  0.1753  0.5586
 3637SOL    HW122636   6.899   3.256  12.404 -0.1838 -0.3608 -0.6045
 3637SOL    HW222637   6.981   3.131  12.428  0.0863 -0.0575  0.0932
 3638SOL     OW22638   6.667  10.804   5.683 -0.2457 -0.1530  0.3639
 3638SOL    HW122639   6.729  10.735   5.705  0.1701 -0.4662 -1.6615
 3638SOL    HW222640   6.583  10.759   5.675 -0.1890 -0.2309  0.2045
 3639SOL     OW22641  13.301   9.497  11.992 -0.2678  0.1071  0.1298
 3639SOL    HW122642  13.232   9.443  11.955  0.5904 -2.1328  1.5606
 3639SOL    HW222643  13.340   9.542  11.917 -3.2274  1.5390 -0.7011
 3640SOL     OW22644   8.485   9.094   7.345 -0.0189  0.0174  0.1872
 3640SOL    HW122645   8.460   9.089   7.253  1.0419 -0.2527 -0.0988
 3640SOL    HW222646   8.461   9.183   7.372  0.5299  0.4160 -0.6085
 3641SOL     OW22647  10.420  12.528  13.392 -0.4726  0.2527 -0.6481
 3641SOL    HW122648  10.418  12.620  13.421 -2.6838 -0.2132  0.9156
 3641SOL    HW222649  10.375  12.529  13.307  0.4944  0.7279 -1.1784
 3642SOL     OW22650  11.735   1.060   2.915  0.1794  0.7973 -0.0461
 3642SOL    HW122651  11.741   1.155   2.923  0.3208  0.8662 -0.8185
 3642SOL    HW222652  11.797   1.039   2.845  0.9992  0.0096  0.8756
 3643SOL     OW22653   8.462   3.809   2.165 -0.2058  0.4166  0.6109
 3643SOL    HW122654   8.471   3.741   2.099  1.3990 -0.7985  1.9926
 3643SOL    HW222655   8.387   3.782   2.218  0.6168 -0.4996  1.3473
 3644SOL     OW22656   6.863   8.662   6.185  0.2634  0.4103 -0.1947
 3644SOL    HW122657   6.811   8.742   6.190 -1.5617 -0.7482  0.1588
 3644SOL    HW222658   6.808   8.595   6.226  2.5399 -0.6591  1.2897
 3645SOL     OW22659  11.955  12.175  12.462  0.1865 -0.1082  0.4113
 3645SOL    HW122660  11.989  12.230  12.533 -0.4936  0.5465  0.2395
 3645SOL    HW222661  11.938  12.236  12.390 -0.4024 -0.5687  0.1536
 3646SOL     OW22662   2.181   1.981   4.648  0.2218  0.2471  0.2221
 3646SOL    HW122663   2.271   1.996   4.619  0.0944 -0.5916 -0.6509
 3646SOL    HW222664   2.140   1.933   4.576 -1.2512  1.5814  0.1102
 3647SOL     OW22665   5.407   6.380  11.677  0.0910 -1.0407 -0.1209
 3647SOL    HW122666   5.430   6.290  11.651  2.1779 -0.9317  1.0910
 3647SOL    HW222667   5.381   6.372  11.769 -2.2280 -0.7073 -0.6828
 3648SOL     OW22668  10.779   4.953   7.831 -0.1071  0.1991 -0.1753
 3648SOL    HW122669  10.727   4.972   7.910 -0.8090  2.1538 -1.0431
 3648SOL    HW222670  10.841   5.025   7.825  1.5710 -1.1872 -0.1435
 3649SOL     OW22671   4.068  11.445  12.159  0.0735  0.1409  0.0226
 3649SOL    HW122672   4.120  11.431  12.238  0.8337  1.5002 -0.2067
 3649SOL    HW222673   4.134  11.446  12.088 -0.5432 -0.5611 -0.5844
 3650SOL     OW22674   7.506   1.879   3.244  0.2505  0.2366 -0.0009
 3650SOL    HW122675   7.578   1.852   3.187  0.1929 -3.6671  1.4676
 3650SOL    HW222676   7.433   1.895   3.185  0.7045 -1.8731 -1.2375
 3651SOL     OW22677   0.685   3.048   7.924 -0.2072 -0.2347  0.2633
 3651SOL    HW122678   0.769   3.060   7.969 -1.0450  0.2879  1.7608
 3651SOL    HW222679   0.706   3.055   7.831  1.3435  0.2801  0.6295
 3652SOL     OW22680  11.331   1.004   4.005 -0.8339  0.4589  0.4129
 3652SOL    HW122681  11.351   1.065   4.076  2.0898 -1.1282  1.0971
 3652SOL    HW222682  11.252   0.958   4.034  0.1271  0.0390  2.5320
 3653SOL     OW22683   0.587  11.223   9.239  0.2428  0.2932 -0.2030
 3653SOL    HW122684   0.569  11.181   9.155  1.5675  0.4142 -0.5810
 3653SOL    HW222685   0.580  11.317   9.221  0.9686  0.3360 -0.3103
 3654SOL     OW22686   4.886  11.044  10.009  0.0377  0.5367 -0.5081
 3654SOL    HW122687   4.868  11.110  10.076  0.5337  1.2398 -1.0502
 3654SOL    HW222688   4.974  11.064   9.979  0.1725 -0.3496 -0.7210
 3655SOL     OW22689   2.657   8.388   0.285 -0.0694  0.2337  0.0904
 3655SOL    HW122690   2.750   8.375   0.302  0.1414 -1.6672 -2.0729
 3655SOL    HW222691   2.618   8.403   0.371  2.3273  2.0501  0.9702
 3656SOL     OW22692   3.619   9.364   6.765  0.8822 -0.2200  0.5956
 3656SOL    HW122693   3.582   9.438   6.716  1.3119 -0.9170 -0.8358
 3656SOL    HW222694   3.711   9.385   6.774  1.4803 -1.4954 -1.7184
 3657SOL     OW22695   1.280  11.899   7.609  0.0812  0.3381  0.0756
 3657SOL    HW122696   1.210  11.915   7.672  0.2166 -1.7163  0.8346
 3657SOL    HW222697   1.235  11.873   7.529 -0.1130 -1.8655  0.8196
 3658SOL     OW22698   7.662   9.198   3.407 -0.4730 -0.3776 -0.3255
 3658SOL    HW122699   7.690   9.256   3.336 -1.3305 -0.2417 -0.5628
 3658SOL    HW222700   7.657   9.111   3.366 -1.7713 -0.1618 -0.6573
 3659SOL     OW22701   1.509  11.927   3.760  0.2100  0.3691  0.6212
 3659SOL    HW122702   1.495  11.955   3.850 -0.6192  0.1232  0.5808
 3659SOL    HW222703   1.449  11.853   3.749  0.5375  0.1955 -0.0350
 3660SOL     OW22704   5.783  13.526   0.666  0.4461  0.4993  0.7545
 3660SOL    HW122705   5.740  13.504   0.749  0.4256 -1.4080  0.2798
 3660SOL    HW222706   5.867  13.481   0.670  0.4262  0.3462 -0.2630
 3661SOL     OW22707  11.773  10.417   8.901  0.6470 -0.0965 -0.6653
 3661SOL    HW122708  11.854  10.452   8.937  1.0628 -0.1686 -1.5186
 3661SOL    HW222709  11.796  10.387   8.813 -0.3237 -0.0266 -0.9570
 3662SOL     OW22710   3.078  10.873   7.674 -0.2228 -0.0604  0.0476
 3662SOL    HW122711   3.131  10.929   7.618  0.3756 -0.3244  0.3358
 3662SOL    HW222712   3.112  10.785   7.659 -1.6610 -0.4661 -0.9721
 3663SOL     OW22713   3.108   7.442   9.570 -0.2671 -0.4258  0.0314
 3663SOL    HW122714   3.088   7.388   9.647 -0.7511 -1.6717 -0.9322
 3663SOL    HW222715   3.148   7.521   9.606 -0.8595 -0.7945  1.5911
 3664SOL     OW22716   7.709   4.939   6.610  0.1414 -0.8793 -0.0619
 3664SOL    HW122717   7.764   4.975   6.540 -0.3913 -0.8074 -0.4411
 3664SOL    HW222718   7.725   4.845   6.606 -0.7177 -0.9942 -0.9953
 3665SOL     OW22719  12.865  12.400   6.080 -0.2747 -0.1281 -0.3515
 3665SOL    HW122720  12.785  12.450   6.063 -0.4609  0.2369  1.3860
 3665SOL    HW222721  12.922  12.460   6.127 -0.4857 -1.4238  1.7429
 3666SOL     OW22722  10.703   1.083  13.622  0.3498 -0.0326 -0.9277
 3666SOL    HW122723  10.608   1.084  13.626  0.3012  0.3734 -1.9132
 3666SOL    HW222724  10.728   0.994  13.647 -0.2937 -0.2249 -0.9604
 3667SOL     OW22725  12.881  12.279   1.138 -0.1594  0.1167 -0.2396
 3667SOL    HW122726  12.815  12.215   1.165  1.6729 -1.3680  0.9304
 3667SOL    HW222727  12.956  12.226   1.112  0.8404  1.7739 -0.8695
 3668SOL     OW22728  10.625   2.931  11.844 -0.5107  0.7085 -0.3240
 3668SOL    HW122729  10.690   2.927  11.773  0.0085  0.3096  0.1633
 3668SOL    HW222730  10.638   2.850  11.893  0.2187  1.6757  1.1426
 3669SOL     OW22731  12.002   4.683   7.645  0.0031  0.7095 -0.3530
 3669SOL    HW122732  12.048   4.640   7.718 -0.7469 -1.3049 -0.9964
 3669SOL    HW222733  11.958   4.758   7.685  0.4148  0.2193  1.0742
 3670SOL     OW22734  10.782   5.479   8.169  0.5082 -0.0206 -0.1523
 3670SOL    HW122735  10.787   5.519   8.256  0.7760  0.0055 -0.1766
 3670SOL    HW222736  10.797   5.386   8.185  1.9354  0.1507 -0.3044
 3671SOL     OW22737   3.981   2.056   3.004  0.2695 -0.5563 -0.1064
 3671SOL    HW122738   3.936   2.087   3.082 -1.1812  0.1056 -1.1467
 3671SOL    HW222739   3.935   1.975   2.981  1.6415 -1.5499  0.5150
 3672SOL     OW22740   0.112   8.585  13.189  0.1486  0.6486  0.3459
 3672SOL    HW122741   0.075   8.654  13.134 -0.5837 -0.3736 -0.4635
 3672SOL    HW222742   0.039   8.558  13.246  0.3913  0.4406  0.5626
 3673SOL     OW22743   1.445   9.233   1.332 -0.0401  0.4434 -0.4336
 3673SOL    HW122744   1.402   9.269   1.254 -0.9441  2.1359  0.7820
 3673SOL    HW222745   1.518   9.293   1.348  1.6501 -1.2938 -1.3368
 3674SOL     OW22746  10.875   5.864   7.377 -0.0490 -0.0492 -0.2348
 3674SOL    HW122747  10.947   5.806   7.352 -0.1405 -0.7112  0.9926
 3674SOL    HW222748  10.918   5.945   7.405  0.0454  0.8652 -2.7783
 3675SOL     OW22749   1.377   3.031  11.429 -0.3003 -0.7255 -0.0183
 3675SOL    HW122750   1.282   3.032  11.433 -0.4237 -1.4944 -1.6191
 3675SOL    HW222751   1.404   2.973  11.500 -1.0321 -0.5175  0.4328
 3676SOL     OW22752  10.970   3.525   8.007 -0.0688 -0.6072 -0.0923
 3676SOL    HW122753  11.050   3.483   8.038  0.2064 -1.8922 -2.3749
 3676SOL    HW222754  10.993   3.618   8.000  0.7040 -0.7194  0.7628
 3677SOL     OW22755  12.387   2.104   6.793  0.0757 -0.2479 -0.1335
 3677SOL    HW122756  12.468   2.093   6.842 -0.2377  0.0594  0.4720
 3677SOL    HW222757  12.397   2.188   6.748 -0.8545  1.0218  1.8813
 3678SOL     OW22758   7.449  12.412   2.240  0.2148 -0.0698  0.2655
 3678SOL    HW122759   7.531  12.442   2.279  0.2306  0.7045 -0.3588
 3678SOL    HW222760   7.394  12.490   2.233 -0.6972 -0.6276  0.9410
 3679SOL     OW22761   2.644   9.786   6.544 -0.0466  0.2101 -0.4757
 3679SOL    HW122762   2.600   9.761   6.625 -1.2517  1.0158 -0.8628
 3679SOL    HW222763   2.611   9.873   6.524 -0.0709 -0.1273 -2.0336
 3680SOL     OW22764  13.386   5.139   4.715 -0.1612 -0.2997  0.4135
 3680SOL    HW122765  13.472   5.144   4.673  0.6440  0.6645  2.0671
 3680SOL    HW222766  13.358   5.231   4.721 -2.0504 -0.6766 -1.4656
 3681SOL     OW22767   3.528  10.906  10.957  0.3529 -0.1445  0.0598
 3681SOL    HW122768   3.576  10.970  10.905  2.4881 -0.5596  1.3986
 3681SOL    HW222769   3.514  10.951  11.041  1.9691 -1.3920  1.0502
 3682SOL     OW22770   0.727  10.818   3.513  0.6474  0.1342 -0.3448
 3682SOL    HW122771   0.724  10.831   3.418  0.3613 -0.3668 -0.4074
 3682SOL    HW222772   0.635  10.812   3.539  0.6694  1.6344  0.1692
 3683SOL     OW22773  11.190   3.043  11.277  0.1379  0.4446 -0.6751
 3683SOL    HW122774  11.182   3.102  11.351 -1.0009  0.7385 -1.0055
 3683SOL    HW222775  11.280   3.052  11.248  0.2756  1.1983 -0.0466
 3684SOL     OW22776   2.364  11.732   9.841  0.1536  0.3876  0.3913
 3684SOL    HW122777   2.351  11.797   9.910  2.5043  0.5208  0.8012
 3684SOL    HW222778   2.358  11.783   9.759  1.3311  1.0239  0.6829
 3685SOL     OW22779   2.664   1.260  10.505  0.1073  0.7984  0.1670
 3685SOL    HW122780   2.606   1.209  10.449 -0.5804 -0.0804  1.6298
 3685SOL    HW222781   2.688   1.201  10.576 -0.7366  2.4613  1.9513
 3686SOL     OW22782  10.771  12.100   6.685 -0.0273 -0.2852  0.7422
 3686SOL    HW122783  10.681  12.108   6.655 -0.1335 -0.3323  1.0531
 3686SOL    HW222784  10.821  12.153   6.623 -0.1683 -0.8680  0.1161
 3687SOL     OW22785   0.614   4.724   4.284 -0.1699  0.0824 -0.0138
 3687SOL    HW122786   0.608   4.788   4.213 -0.4767 -1.0887 -1.0620
 3687SOL    HW222787   0.697   4.744   4.327 -0.8746  2.0510  0.5580
 3688SOL     OW22788   9.226   5.723   3.848  0.2184  0.1779  0.7502
 3688SOL    HW122789   9.266   5.795   3.798  0.0373 -0.5964 -0.5544
 3688SOL    HW222790   9.149   5.762   3.889 -2.3083 -0.0822 -3.2555
 3689SOL     OW22791  13.346   6.093   4.334  0.5827  0.0399 -0.1849
 3689SOL    HW122792  13.377   6.147   4.261 -2.1355  1.1203 -0.6465
 3689SOL    HW222793  13.320   6.156   4.401  0.4396 -0.8538  0.6200
 3690SOL     OW22794   9.489   8.584   4.501  0.5127  0.0777  0.3308
 3690SOL    HW122795   9.456   8.494   4.507  0.1975  0.1845  0.2220
 3690SOL    HW222796   9.566   8.585   4.557  0.6994 -0.3458  0.0875
 3691SOL     OW22797   4.829   2.786  13.488  0.1998 -0.0838 -0.1091
 3691SOL    HW122798   4.749   2.784  13.437  0.4659  0.2863 -0.5505
 3691SOL    HW222799   4.839   2.696  13.521 -1.1969  0.2100  1.2287
 3692SOL     OW22800   8.846  11.568  12.608 -0.3458 -0.1075 -0.5336
 3692SOL    HW122801   8.900  11.637  12.648 -0.0474 -0.8772  0.4347
 3692SOL    HW222802   8.764  11.611  12.586 -0.1285  0.5785 -0.0235
 3693SOL     OW22803   7.128   8.769  12.350  0.0019  0.1995 -0.3739
 3693SOL    HW122804   7.081   8.850  12.367 -0.4056  0.1510 -1.2176
 3693SOL    HW222805   7.168   8.781  12.264  0.7355 -0.1331 -0.0938
 3694SOL     OW22806   1.297   3.639   1.505  0.3005 -0.0271  0.0689
 3694SOL    HW122807   1.280   3.633   1.411 -0.0200 -1.3510  0.1878
 3694SOL    HW222808   1.332   3.727   1.518  1.2105 -0.1266 -1.4362
 3695SOL     OW22809  13.566   4.089   1.370 -0.3393 -0.2602  0.2900
 3695SOL    HW122810  13.595   4.001   1.397  0.8898  0.8152  2.8474
 3695SOL    HW222811  13.477   4.096   1.405 -0.5975 -0.6078 -0.2807
 3696SOL     OW22812   1.427  13.570   8.791  0.6423 -0.1633  0.3425
 3696SOL    HW122813   1.502  13.630   8.796  1.3101 -1.0208  0.9621
 3696SOL    HW222814   1.425  13.527   8.877  0.2104 -1.0513 -0.0965
 3697SOL     OW22815   1.879   7.750   3.503  0.2792  0.3389  0.0533
 3697SOL    HW122816   1.964   7.785   3.476  0.4891 -1.0952 -1.2474
 3697SOL    HW222817   1.900   7.686   3.571  0.1595  0.5211  0.2648
 3698SOL     OW22818   1.141   5.772  10.156  0.0379  0.4225 -0.3032
 3698SOL    HW122819   1.108   5.688  10.188 -0.5002  1.0713  0.8713
 3698SOL    HW222820   1.147   5.827  10.234  1.0817  1.2603 -0.9467
 3699SOL     OW22821   9.960  12.546   0.513 -0.4223 -0.0549  0.1755
 3699SOL    HW122822   9.976  12.640   0.514  2.2458 -0.3875 -1.5374
 3699SOL    HW222823  10.035  12.509   0.467 -2.1232 -2.9017 -0.5853
 3700SOL     OW22824  10.296   4.442   8.154 -0.0699  0.3346 -0.3057
 3700SOL    HW122825  10.363   4.376   8.172  0.4177  0.9052 -0.0133
 3700SOL    HW222826  10.305   4.460   8.060 -0.4456 -0.2675 -0.4638
 3701SOL     OW22827   9.328   5.831   9.960 -0.2510  0.0961 -0.1078
 3701SOL    HW122828   9.275   5.759   9.992 -0.3078 -0.1039 -0.6382
 3701SOL    HW222829   9.394   5.845  10.028 -0.5560 -0.1144  0.2321
 3702SOL     OW22830   0.772   1.683  13.196  0.4173  0.2117 -0.2971
 3702SOL    HW122831   0.733   1.614  13.142 -1.0644  0.5278  0.3270
 3702SOL    HW222832   0.866   1.664  13.195  0.2896 -0.5138 -1.9433
 3703SOL     OW22833  10.930  11.703   1.831 -0.0968  0.4756  0.0795
 3703SOL    HW122834  10.998  11.662   1.778 -1.5650 -1.0327 -0.7631
 3703SOL    HW222835  10.886  11.629   1.873 -1.4582  1.3578  0.2602
 3704SOL     OW22836   3.121   0.860  13.608 -0.0470  0.0112 -0.0935
 3704SOL    HW122837   3.212   0.890  13.617 -0.8731  2.4951  0.9159
 3704SOL    HW222838   3.092   0.844  13.697 -0.9978  0.5607 -0.2924
 3705SOL     OW22839  13.025  12.380   4.711 -0.0557 -0.0962 -0.2395
 3705SOL    HW122840  13.049  12.339   4.794 -1.2598  0.2960  0.3237
 3705SOL    HW222841  13.037  12.474   4.726 -1.7261  0.1022  0.0173
 3706SOL     OW22842   6.214   9.475   4.159 -0.4609  0.0128 -0.2460
 3706SOL    HW122843   6.201   9.410   4.091  0.4042 -0.0229 -0.3933
 3706SOL    HW222844   6.242   9.425   4.235 -0.6578  0.1264 -0.0988
 3707SOL     OW22845   8.942   9.720   4.045  0.2391  0.0382  0.1407
 3707SOL    HW122846   8.908   9.730   3.956 -0.4422 -0.2595  0.3531
 3707SOL    HW222847   8.915   9.631   4.070 -0.2842  0.4113  0.9331
 3708SOL     OW22848   1.450   7.999   9.283  0.2046 -0.2676  0.4599
 3708SOL    HW122849   1.526   7.987   9.225 -0.1129  0.3609 -0.1010
 3708SOL    HW222850   1.488   8.004   9.371  0.7257 -0.8691  0.2761
 3709SOL     OW22851   4.911  11.472   4.111 -0.2707 -0.1570  0.0674
 3709SOL    HW122852   4.884  11.498   4.023  0.8403  3.5059  0.6350
 3709SOL    HW222853   5.007  11.473   4.108 -0.2010  0.8038  1.4368
 3710SOL     OW22854   4.917  12.487   6.494 -0.6484  0.3494  0.3310
 3710SOL    HW122855   4.868  12.537   6.559  0.1590 -0.3467  1.5330
 3710SOL    HW222856   4.980  12.550   6.458 -0.7094  0.6073  0.6649
 3711SOL     OW22857   0.200  10.238   4.979  0.1694 -0.5719 -0.3668
 3711SOL    HW122858   0.239  10.280   4.903 -0.8761  0.5936 -0.2812
 3711SOL    HW222859   0.206  10.144   4.960  0.6892 -0.3297 -1.4859
 3712SOL     OW22860   6.168   0.366   1.729  0.1724 -0.0513 -0.7214
 3712SOL    HW122861   6.223   0.362   1.650 -1.7436 -1.5177 -2.0808
 3712SOL    HW222862   6.081   0.339   1.699 -0.3248 -2.1289  2.1728
 3713SOL     OW22863   2.057   9.892   2.723 -0.5657 -0.3539 -0.1836
 3713SOL    HW122864   2.043   9.951   2.649 -0.7442 -0.5170 -0.2848
 3713SOL    HW222865   2.152   9.881   2.728 -0.6023 -1.2354 -1.1166
 3714SOL     OW22866  11.475   9.746  10.094  0.1601  0.3219  0.1057
 3714SOL    HW122867  11.434   9.825  10.132  0.1294  1.2533 -1.7725
 3714SOL    HW222868  11.426   9.674  10.133  0.1705  1.2099  1.8692
 3715SOL     OW22869  11.171   6.558   6.814  0.2013 -0.3840 -0.5003
 3715SOL    HW122870  11.237   6.537   6.880  0.5044  1.3973 -0.1886
 3715SOL    HW222871  11.124   6.476   6.801  1.0728 -1.1449  0.8599
 3716SOL     OW22872   7.245   6.230   8.576 -0.4255 -0.2904  0.1781
 3716SOL    HW122873   7.203   6.225   8.490 -2.8567  0.8200  1.2094
 3716SOL    HW222874   7.284   6.317   8.579  2.0519 -1.2863 -0.7420
 3717SOL     OW22875   9.863   9.304   9.011  0.2172 -0.2148  0.4771
 3717SOL    HW122876   9.896   9.217   9.034 -1.1914 -0.8532  0.2020
 3717SOL    HW222877   9.899   9.322   8.924 -1.3256 -1.5756 -0.4994
 3718SOL     OW22878   3.594   1.539   2.119 -0.1469 -0.2056  0.2743
 3718SOL    HW122879   3.600   1.481   2.194 -0.8564  0.5463  0.9331
 3718SOL    HW222880   3.604   1.627   2.156  1.5477  0.0986 -0.7684
 3719SOL     OW22881   5.681   3.253  10.306  0.7146 -0.9184  0.2199
 3719SOL    HW122882   5.759   3.244  10.360 -0.2568 -1.4561  1.5872
 3719SOL    HW222883   5.642   3.166  10.305 -0.1088 -0.5626 -0.0718
 3720SOL     OW22884  11.819   2.008   7.140 -0.5353  0.1312 -0.6515
 3720SOL    HW122885  11.736   1.997   7.093 -0.3511 -0.0736 -0.9307
 3720SOL    HW222886  11.800   2.073   7.208 -0.1779  2.2823 -2.5066
 3721SOL     OW22887   7.045  10.606  13.312  0.3359 -0.6281 -0.2755
 3721SOL    HW122888   7.052  10.553  13.391  3.0642  0.1973  0.1439
 3721SOL    HW222889   7.011  10.546  13.246 -0.3202 -1.8173  1.0902
 3722SOL     OW22890   7.060   2.845  13.499 -0.3064 -0.1546  0.2847
 3722SOL    HW122891   7.087   2.911  13.563  0.1627  1.0446 -1.0955
 3722SOL    HW222892   7.119   2.858  13.425 -0.2542 -2.0990 -0.0652
 3723SOL     OW22893  10.663   2.749   8.562  0.8494 -0.2333  0.1121
 3723SOL    HW122894  10.661   2.675   8.503  0.3777  0.1645 -0.3779
 3723SOL    HW222895  10.754   2.755   8.590  0.6265 -1.9173  1.3548
 3724SOL     OW22896   2.635  11.516   1.817 -0.4897  0.4918  0.4004
 3724SOL    HW122897   2.541  11.528   1.831 -1.3261 -2.7181 -1.2892
 3724SOL    HW222898   2.650  11.550   1.728 -0.4652 -0.4578  0.0250
 3725SOL     OW22899   4.820   3.030   0.234 -0.4622  0.1494 -0.2018
 3725SOL    HW122900   4.811   2.984   0.151  0.8629 -0.5105 -0.0014
 3725SOL    HW222901   4.730   3.050   0.260 -0.9665 -0.8072 -1.1346
 3726SOL     OW22902   9.224  13.488   0.645  0.1643 -0.0267  0.0304
 3726SOL    HW122903   9.266  13.573   0.631 -1.3707  0.6464 -0.6776
 3726SOL    HW222904   9.130  13.506   0.642 -0.2585 -1.2889  2.7025
 3727SOL     OW22905  10.385   0.135   2.985  0.1837  0.3934 -0.1283
 3727SOL    HW122906  10.461   0.119   2.928 -0.7456  2.0570 -1.9593
 3727SOL    HW222907  10.423   0.171   3.065  1.3335  2.3108 -1.4535
 3728SOL     OW22908  11.391   5.851   3.008 -0.3180 -0.4675  0.2921
 3728SOL    HW122909  11.405   5.796   2.931 -0.6901  0.7372 -0.6800
 3728SOL    HW222910  11.334   5.800   3.065 -1.8617 -0.5444 -1.2405
 3729SOL     OW22911   9.432  13.546   5.509 -0.3885  0.0874  0.1231
 3729SOL    HW122912   9.413  13.468   5.562 -0.2640 -0.1583 -0.1903
 3729SOL    HW222913   9.392  13.528   5.424  2.2875 -1.0304 -1.0011
 3730SOL     OW22914   4.810   1.996   3.730  0.1160  0.4861 -0.4768
 3730SOL    HW122915   4.837   1.967   3.817  1.6722  1.5917 -0.5676
 3730SOL    HW222916   4.862   1.943   3.670  0.6924  1.2761 -0.6853
 3731SOL     OW22917   7.299   8.690   4.684 -0.1045 -0.1124 -0.2948
 3731SOL    HW122918   7.316   8.778   4.650 -0.6244 -0.3687 -1.2517
 3731SOL    HW222919   7.340   8.689   4.771  0.2264  0.9476 -0.4311
 3732SOL     OW22920   0.765   4.426  10.451 -0.0914 -0.1714 -0.5446
 3732SOL    HW122921   0.763   4.473  10.535  1.2037  0.1815 -0.6832
 3732SOL    HW222922   0.675   4.396  10.438 -0.9437  2.1213 -0.3553
 3733SOL     OW22923   6.247   5.435   8.683  0.4073  0.0758  0.4216
 3733SOL    HW122924   6.162   5.464   8.716 -0.1196 -0.6984 -0.2221
 3733SOL    HW222925   6.292   5.516   8.658 -1.0164  0.4066 -1.2913
 3734SOL     OW22926  10.889   8.938   1.704 -0.1623 -0.0648  0.5311
 3734SOL    HW122927  10.981   8.957   1.683 -0.5901  1.9272  0.3318
 3734SOL    HW222928  10.855   8.897   1.624 -0.2555  2.1729 -0.6569
 3735SOL     OW22929   1.984   1.793   4.025 -0.2708  0.4411 -0.3745
 3735SOL    HW122930   2.046   1.861   4.000 -0.7612  0.4011 -1.7852
 3735SOL    HW222931   2.035   1.712   4.021  0.0440  0.5921  0.3062
 3736SOL     OW22932   7.832   3.854   5.828  0.1300 -0.2887  0.2234
 3736SOL    HW122933   7.841   3.948   5.816 -0.1673  0.1057  2.5157
 3736SOL    HW222934   7.742   3.842   5.858  0.2678 -1.2442  0.2915
 3737SOL     OW22935   6.886   8.130   7.752 -0.3074  0.1435 -0.0389
 3737SOL    HW122936   6.874   8.221   7.727  0.1331  0.6065  1.3360
 3737SOL    HW222937   6.800   8.089   7.737 -0.2003  0.4778 -1.7459
 3738SOL     OW22938   0.335  12.081   5.808 -0.2371  0.0889 -0.8540
 3738SOL    HW122939   0.255  12.028   5.814  1.7189 -3.3369 -2.0997
 3738SOL    HW222940   0.367  12.086   5.898 -1.6470  1.2936 -0.3813
 3739SOL     OW22941   8.327   4.135   8.092 -0.2771 -0.2424 -0.2293
 3739SOL    HW122942   8.354   4.043   8.095 -0.9712 -0.4368  2.2214
 3739SOL    HW222943   8.234   4.133   8.118 -0.5220  1.0921 -0.9105
 3740SOL     OW22944  13.332  10.615   0.933 -0.4422  0.6303 -0.2722
 3740SOL    HW122945  13.370  10.684   0.879 -0.2234  0.0533 -0.8744
 3740SOL    HW222946  13.401  10.590   0.993 -0.0374 -0.0451 -1.0064
 3741SOL     OW22947   8.004   0.573   7.450 -0.1930  0.2386 -0.7863
 3741SOL    HW122948   8.046   0.657   7.470 -1.5388  0.7738 -0.0140
 3741SOL    HW222949   8.004   0.526   7.533  0.1844 -0.3616 -1.1224
 3742SOL     OW22950  13.629   3.587   0.567 -0.5256 -0.6152  0.6183
 3742SOL    HW122951  13.679   3.538   0.632  2.1103  1.2951  0.2076
 3742SOL    HW222952  13.675   3.571   0.484 -0.8840  0.7838  0.1132
 3743SOL     OW22953   0.911   4.363  11.867  0.1504  0.5493  0.3068
 3743SOL    HW122954   0.955   4.329  11.789  0.0626 -1.8022  1.1994
 3743SOL    HW222955   0.818   4.362  11.845  0.2131  1.1856 -0.0073
 3744SOL     OW22956   3.229  11.865   4.584  0.5475 -0.3346 -0.3532
 3744SOL    HW122957   3.152  11.841   4.634  1.0920 -0.4901  0.4245
 3744SOL    HW222958   3.225  11.961   4.578  1.2491 -0.1724  1.2929
 3745SOL     OW22959   9.958   0.405   6.958 -0.5824  0.2460  0.0294
 3745SOL    HW122960   9.922   0.327   6.916  1.0599 -0.4225 -0.2036
 3745SOL    HW222961   9.962   0.382   7.051  1.4952 -0.6548 -0.2369
 3746SOL     OW22962  10.519   4.136   4.556  0.0066 -0.3550  0.1729
 3746SOL    HW122963  10.587   4.130   4.488 -0.6925 -1.2411 -0.4766
 3746SOL    HW222964  10.507   4.230   4.570  2.0995 -0.1743  1.0805
 3747SOL     OW22965   2.474   1.286   7.149 -0.3734  0.0695  0.2681
 3747SOL    HW122966   2.554   1.334   7.129 -0.5444  0.3961  0.3501
 3747SOL    HW222967   2.406   1.331   7.099 -0.2282 -1.3393 -1.3021
 3748SOL     OW22968   5.401   4.123   4.196  0.4334  0.0290  0.1505
 3748SOL    HW122969   5.405   4.208   4.153  0.2913  0.0122  0.1052
 3748SOL    HW222970   5.459   4.132   4.272 -1.9133  1.1777  1.9312
 3749SOL     OW22971   3.445  10.633   0.889 -0.2363 -0.4271 -0.7384
 3749SOL    HW122972   3.506  10.610   0.819  0.6967  0.8376 -0.3884
 3749SOL    HW222973   3.460  10.726   0.904 -0.6188 -0.6013  0.9416
 3750SOL     OW22974   1.450   8.830   7.561  0.3945  0.2816 -0.1980
 3750SOL    HW122975   1.391   8.793   7.627 -1.7805  0.4926 -1.9121
 3750SOL    HW222976   1.515   8.761   7.545  0.1240 -0.3041  1.1198
 3751SOL     OW22977   5.776   4.401  11.333  0.0839  0.0478  0.2366
 3751SOL    HW122978   5.697   4.388  11.384  0.1907  1.5262  0.8525
 3751SOL    HW222979   5.757   4.477  11.278 -0.4917 -2.2383 -2.9750
 3752SOL     OW22980  11.023   4.962   8.420  0.3488  0.5028 -0.3460
 3752SOL    HW122981  11.053   4.921   8.501 -0.0997 -0.2217 -0.5386
 3752SOL    HW222982  10.947   5.014   8.446 -0.8804 -1.1105 -0.5651
 3753SOL     OW22983  10.009   9.666   4.110  0.0216 -0.0594  0.0211
 3753SOL    HW122984   9.958   9.628   4.182 -1.4432  2.5709  0.4887
 3753SOL    HW222985  10.039   9.750   4.143 -0.0320  0.8902 -2.1775
 3754SOL     OW22986   8.849  10.186   1.497 -0.2494 -0.3138  0.1381
 3754SOL    HW122987   8.850  10.204   1.403  0.0410  2.9491  0.6433
 3754SOL    HW222988   8.913  10.115   1.508 -0.4118 -0.8861 -2.1005
 3755SOL     OW22989   0.273  11.200   3.196  0.1375  0.1024  0.1347
 3755SOL    HW122990   0.211  11.174   3.264 -1.7275  0.7502 -1.2218
 3755SOL    HW222991   0.322  11.273   3.234  0.1462 -0.4846  1.2751
 3756SOL     OW22992  12.528   3.201  12.901 -0.2195  0.8261  0.6126
 3756SOL    HW122993  12.446   3.177  12.857  0.7590 -1.4797 -0.0802
 3756SOL    HW222994  12.596   3.189  12.834  0.8019  2.0286  1.3809
 3757SOL     OW22995   4.978  11.985   1.030  0.1403 -0.3522  0.4283
 3757SOL    HW122996   4.955  11.930   1.105  1.0210  0.6324  1.4618
 3757SOL    HW222997   5.073  11.981   1.026  0.2611  1.3032  0.7336
 3758SOL     OW22998   3.731   8.460  11.977 -0.2207 -0.2981 -0.0476
 3758SOL    HW122999   3.751   8.543  11.934 -0.5572  0.9214  2.0210
 3758SOL    HW223000   3.636   8.452  11.970 -0.7534  1.5533  3.0448
 3759SOL     OW23001  12.653   1.151  11.716  0.1866  0.5232 -0.2298
 3759SOL    HW123002  12.721   1.083  11.716  0.2106  0.5464  0.0064
 3759SOL    HW223003  12.624   1.156  11.807  0.2917  0.9347 -0.2175
 3760SOL     OW23004   5.360  12.557   7.769 -0.5392 -0.5011 -0.1137
 3760SOL    HW123005   5.303  12.520   7.702 -0.4796 -0.9881  0.1028
 3760SOL    HW223006   5.365  12.490   7.837 -1.1870  0.2774  0.7356
 3761SOL     OW23007  12.443  11.359   8.171  0.0781 -0.4955  0.6354
 3761SOL    HW123008  12.466  11.436   8.223 -0.0500 -1.1122  1.6394
 3761SOL    HW223009  12.515  11.298   8.185  0.3575 -0.4352 -0.4485
 3762SOL     OW23010  10.591  10.415   0.501  0.1557 -0.8141 -0.0849
 3762SOL    HW123011  10.575  10.383   0.412 -0.3300  0.6623 -0.5653
 3762SOL    HW223012  10.513  10.467   0.522  1.3548  0.9667  0.1770
 3763SOL     OW23013   6.587  10.081  13.232  0.7315 -0.3681 -0.0885
 3763SOL    HW123014   6.561  10.028  13.307  0.7842 -1.1191 -0.5849
 3763SOL    HW223015   6.541  10.165  13.244  0.6904 -0.5007  0.7366
 3764SOL     OW23016   5.516  12.063   7.934 -0.0462 -0.2163 -0.1109
 3764SOL    HW123017   5.581  12.133   7.927  1.3675 -1.1995  2.0058
 3764SOL    HW223018   5.540  12.001   7.865  1.0748 -0.3653  0.3808
 3765SOL     OW23019   5.046   0.909  10.651  1.0456 -0.2924 -0.2495
 3765SOL    HW123020   5.107   0.858  10.597  1.9890  0.1161  0.4034
 3765SOL    HW223021   4.971   0.924  10.594 -0.1864 -4.0174  0.0974
 3766SOL     OW23022   5.461   3.509   6.460 -0.7924  0.1082 -0.1197
 3766SOL    HW123023   5.409   3.460   6.525 -0.0834 -0.7898 -0.2003
 3766SOL    HW223024   5.542   3.529   6.506 -0.8943  0.8400 -0.2435
 3767SOL     OW23025   0.670   3.005  10.263  0.2414  0.2159 -0.0156
 3767SOL    HW123026   0.605   2.935  10.256  0.8073 -0.3238 -0.0157
 3767SOL    HW223027   0.647   3.067  10.194  2.3211 -2.1650 -3.1210
 3768SOL     OW23028   0.078   5.664   2.678 -0.2539 -0.3858 -0.5395
 3768SOL    HW123029   0.075   5.673   2.774  0.4973 -0.9321 -0.4497
 3768SOL    HW223030   0.159   5.616   2.662 -0.0058  0.3378 -1.5098
 3769SOL     OW23031   1.426  11.307   9.859 -0.6068 -0.2560  0.0819
 3769SOL    HW123032   1.365  11.258   9.914 -0.1181 -1.6864 -0.5966
 3769SOL    HW223033   1.465  11.371   9.918 -0.8241 -1.0937  1.1774
 3770SOL     OW23034   6.558   1.402   8.346  0.7503 -0.6790 -0.0894
 3770SOL    HW123035   6.520   1.397   8.434 -1.0069  0.1830 -0.7498
 3770SOL    HW223036   6.486   1.378   8.288  0.7373  2.2765 -1.4754
 3771SOL     OW23037  10.109   4.336   1.793  0.0137  0.6543 -0.0496
 3771SOL    HW123038  10.038   4.399   1.803 -0.8332 -0.5582  2.2255
 3771SOL    HW223039  10.065   4.251   1.790  1.2380  0.0228 -1.2311
 3772SOL     OW23040   3.859   9.041   3.658 -0.4677  0.1975  0.8268
 3772SOL    HW123041   3.891   9.054   3.747  0.1584  1.4447  0.4408
 3772SOL    HW223042   3.782   8.985   3.668 -0.7771  0.8382  2.2118
 3773SOL     OW23043  11.379  10.786   3.962  0.4000  0.4839  0.3182
 3773SOL    HW123044  11.439  10.744   4.025 -0.3111 -0.7810  0.1867
 3773SOL    HW223045  11.349  10.865   4.006  1.0456  0.3725  0.9766
 3774SOL     OW23046   8.538   7.456   8.143  0.0042  0.4770  0.3891
 3774SOL    HW123047   8.576   7.530   8.191 -0.8329  1.0599  0.1764
 3774SOL    HW223048   8.444   7.463   8.159 -0.2311  0.3434 -0.8607
 3775SOL     OW23049   4.183  12.078   1.785  0.2975 -0.9179 -0.0408
 3775SOL    HW123050   4.115  12.038   1.840  1.3865 -2.7622  0.0640
 3775SOL    HW223051   4.243  12.119   1.846 -0.5044  0.4042 -0.1135
 3776SOL     OW23052   6.089   2.899  10.348 -0.0344 -0.4003  0.1356
 3776SOL    HW123053   6.069   2.813  10.385  2.0500 -1.1697 -0.3885
 3776SOL    HW223054   6.017   2.916  10.287 -0.8871 -1.3930  0.8329
 3777SOL     OW23055  12.496  11.950   5.002  0.4045  0.1993  0.4599
 3777SOL    HW123056  12.458  11.864   4.984 -0.0315  0.5086 -0.1575
 3777SOL    HW223057  12.584  11.946   4.965  0.4481 -0.0396  0.5881
 3778SOL     OW23058   2.652   7.232   8.567  0.0588 -0.1442 -0.3867
 3778SOL    HW123059   2.642   7.216   8.473  0.5348 -0.0782 -0.4471
 3778SOL    HW223060   2.563   7.223   8.601  0.1357 -2.0297 -0.5547
 3779SOL     OW23061   8.730   6.839   1.678  0.6607  0.0076 -0.1646
 3779SOL    HW123062   8.755   6.878   1.594  2.3193 -1.0147 -0.1871
 3779SOL    HW223063   8.794   6.874   1.740  0.2382 -0.2562  0.4236
 3780SOL     OW23064   4.632   3.935   8.395 -1.0410  0.4167  0.5094
 3780SOL    HW123065   4.583   3.968   8.320 -2.1864 -1.1610  0.5142
 3780SOL    HW223066   4.583   3.858   8.424  0.8847 -0.6380  1.1585
 3781SOL     OW23067   1.007   2.728   2.629  0.2838 -0.0883  0.0643
 3781SOL    HW123068   1.021   2.793   2.560 -1.8643 -0.2215 -0.5554
 3781SOL    HW223069   1.079   2.742   2.690  2.0766  0.2662 -2.0038
 3782SOL     OW23070  10.569   4.366   3.228  0.1342  0.6008  0.2569
 3782SOL    HW123071  10.597   4.297   3.168 -0.8976 -0.2033  0.6574
 3782SOL    HW223072  10.547   4.320   3.309 -0.3946  1.4230  0.5947
 3783SOL     OW23073  13.726   2.728  10.072  0.3213 -0.3096 -0.5034
 3783SOL    HW123074  13.816   2.759  10.074  1.7003 -3.4159 -3.5891
 3783SOL    HW223075  13.684   2.781  10.004 -0.0671  0.7507  0.5346
 3784SOL     OW23076   9.895   6.776   8.281  0.3391  0.0680  0.2738
 3784SOL    HW123077   9.832   6.799   8.213 -0.4782  1.5118  1.4398
 3784SOL    HW223078   9.844   6.728   8.346  0.9919 -0.8366  0.1327
 3785SOL     OW23079   6.249   0.092  12.173  1.4637  0.2594  0.1280
 3785SOL    HW123080   6.341   0.080  12.199  1.2708 -2.6966 -0.2015
 3785SOL    HW223081   6.249   0.076  12.079  0.3300 -2.3541  0.4880
 3786SOL     OW23082   1.814   3.408   2.777 -0.0579 -0.4253  0.1076
 3786SOL    HW123083   1.880   3.455   2.725  0.7424 -0.8900  0.6939
 3786SOL    HW223084   1.769   3.353   2.713 -0.7771  0.8349 -0.5309
 3787SOL     OW23085   3.889   3.528   6.348  0.2880  0.1243  0.0304
 3787SOL    HW123086   3.932   3.608   6.321  0.9531  0.4016  1.7658
 3787SOL    HW223087   3.923   3.460   6.290  1.6811  0.6696  0.1878
 3788SOL     OW23088  11.996   9.843   3.096 -0.3600 -0.7521 -0.2380
 3788SOL    HW123089  11.905   9.843   3.125 -0.4479  2.8414 -0.0713
 3788SOL    HW223090  11.991   9.837   3.000 -0.9356  0.7871 -0.3380
 3789SOL     OW23091   7.689  11.944  11.793 -0.3423  0.2158 -0.0769
 3789SOL    HW123092   7.700  11.850  11.808 -1.3155  0.1603  0.3343
 3789SOL    HW223093   7.611  11.968  11.843 -0.4364  1.1293 -0.6332
 3790SOL     OW23094   4.796   2.665   3.037  0.4789 -0.3237 -0.3519
 3790SOL    HW123095   4.773   2.717   3.114  1.4490  2.4972 -1.8390
 3790SOL    HW223096   4.724   2.680   2.976 -0.9426 -3.5612  0.2659
 3791SOL     OW23097  10.977   6.881  13.349 -0.3204 -0.0592 -0.5567
 3791SOL    HW123098  10.989   6.827  13.271  1.9182 -1.2222  0.4989
 3791SOL    HW223099  10.982   6.819  13.422  1.3095  1.3960  0.6588
 3792SOL     OW23100  11.412   5.267  12.060 -0.0398  0.2557 -0.1975
 3792SOL    HW123101  11.390   5.255  12.153  0.6332 -1.4568 -0.2210
 3792SOL    HW223102  11.328   5.261  12.014 -0.0687 -2.1395  0.0570
 3793SOL     OW23103   7.057  13.165   5.370  0.1510 -0.1047  0.2641
 3793SOL    HW123104   7.054  13.232   5.302  1.7343  0.7581  1.0038
 3793SOL    HW223105   6.995  13.098   5.340 -2.2628  2.1019  0.0038
 3794SOL     OW23106   8.715   5.885   9.163  0.8462  0.4269  0.2605
 3794SOL    HW123107   8.636   5.929   9.195  0.2411 -1.3876  1.3945
 3794SOL    HW223108   8.686   5.839   9.084  1.0315  0.6092  0.0862
 3795SOL     OW23109   7.003   7.943  10.366  0.5330 -0.8531  0.4638
 3795SOL    HW123110   6.927   7.949  10.309  0.4496 -2.2122  0.4053
 3795SOL    HW223111   7.046   8.029  10.358 -0.9218 -0.0992  0.4388
 3796SOL     OW23112   4.416   5.180  12.744  0.1435  0.1535  0.4962
 3796SOL    HW123113   4.474   5.181  12.668  0.2994  1.4659  0.6105
 3796SOL    HW223114   4.334   5.218  12.712 -0.3300 -0.7641  0.5907
 3797SOL     OW23115   3.177   8.406  11.817 -0.1353 -0.2042  0.1473
 3797SOL    HW123116   3.177   8.472  11.748  0.6119 -1.0446 -0.6939
 3797SOL    HW223117   3.265   8.368  11.814 -0.5985 -1.3576  0.4810
 3798SOL     OW23118   2.182  12.627   5.592 -0.2215 -0.6960  0.3882
 3798SOL    HW123119   2.149  12.717   5.592 -0.4431 -0.7744 -0.2798
 3798SOL    HW223120   2.212  12.612   5.503 -0.7284 -1.4784  0.3357
 3799SOL     OW23121   2.341  10.124  12.793 -0.3220  0.5150 -0.0145
 3799SOL    HW123122   2.277  10.161  12.732 -1.0787 -0.0775  0.4123
 3799SOL    HW223123   2.289  10.090  12.865  0.4522 -0.3021  0.1747
 3800SOL     OW23124   6.595  11.798   7.336 -0.4222 -0.6055  0.6106
 3800SOL    HW123125   6.543  11.814   7.257 -1.1695 -1.1531  0.9684
 3800SOL    HW223126   6.686  11.800   7.307 -0.6480  0.2470 -0.0605
 3801SOL     OW23127  12.933   7.987   2.054 -0.6066 -0.2326 -0.0116
 3801SOL    HW123128  12.951   7.899   2.086  1.5150  0.6560  1.4239
 3801SOL    HW223129  12.956   7.983   1.961 -0.2188 -1.1110  0.1065
 3802SOL     OW23130   0.048   8.867   2.359 -0.3207  0.0427 -0.0997
 3802SOL    HW123131   0.002   8.851   2.276  0.8873  0.9809 -0.9958
 3802SOL    HW223132   0.013   8.951   2.390  1.1455  1.0770 -1.1054
 3803SOL     OW23133   2.407   9.515  10.654 -0.1347  0.4695  0.0328
 3803SOL    HW123134   2.416   9.562  10.572 -0.1602  0.7758  0.2021
 3803SOL    HW223135   2.450   9.431  10.639 -0.4464  0.3840 -0.4043
 3804SOL     OW23136  12.693   4.223   8.498 -0.4102  0.1938 -0.2621
 3804SOL    HW123137  12.641   4.297   8.468 -0.8789  0.2402  0.6422
 3804SOL    HW223138  12.727   4.250   8.583  0.5329 -0.1077 -0.5302
 3805SOL     OW23139  12.352  11.316   7.922  0.6116 -0.8303 -0.3371
 3805SOL    HW123140  12.413  11.329   7.995 -0.1930  0.8132  0.0698
 3805SOL    HW223141  12.324  11.404   7.897 -0.8139 -1.4889 -1.1966
 3806SOL     OW23142   1.320   2.841   0.672  0.8053  0.1866 -0.4141
 3806SOL    HW123143   1.355   2.919   0.716  1.4086 -0.6098  0.5542
 3806SOL    HW223144   1.287   2.874   0.588  1.3395  1.4319 -0.1604
 3807SOL     OW23145   3.724   3.211   3.816 -0.5389 -0.1898  0.5284
 3807SOL    HW123146   3.804   3.200   3.868 -0.2808  1.8003  0.6171
 3807SOL    HW223147   3.751   3.266   3.742 -2.0063  1.3778  1.1028
 3808SOL     OW23148  11.233  11.947  10.488 -0.0609  0.4951  0.4222
 3808SOL    HW123149  11.182  11.911  10.415 -0.0802  3.6310 -1.2317
 3808SOL    HW223150  11.324  11.929  10.466 -0.0195  2.0558 -0.8169
 3809SOL     OW23151   6.109  11.878  10.762  0.3176  0.2796  0.4295
 3809SOL    HW123152   6.168  11.846  10.830  1.0549 -0.3233 -0.4705
 3809SOL    HW223153   6.043  11.928  10.809  0.8927 -0.0071  1.5715
 3810SOL     OW23154   9.375   8.707  12.484  0.1118 -0.6235  0.2472
 3810SOL    HW123155   9.435   8.640  12.516  0.4189 -0.1728  0.6458
 3810SOL    HW223156   9.432   8.782  12.465 -0.4821  0.4452  2.3144
 3811SOL     OW23157  10.426   9.460   3.455  0.1709  0.0799 -0.0591
 3811SOL    HW123158  10.483   9.439   3.530  0.7268  3.9526  0.8306
 3811SOL    HW223159  10.338   9.464   3.493  0.2676  0.6765  0.1195
 3812SOL     OW23160  12.217   4.888   7.408  0.5449 -0.1620  0.5411
 3812SOL    HW123161  12.264   4.893   7.491  1.3821  0.0896  0.0587
 3812SOL    HW223162  12.273   4.835   7.352  0.4195  0.4131 -0.1420
 3813SOL     OW23163   0.015   3.666   3.027  0.3663 -0.6138 -0.3676
 3813SOL    HW123164   0.039   3.759   3.033 -1.5967 -0.1290  0.7435
 3813SOL    HW223165   0.051   3.628   3.108  0.1512 -0.5740 -0.2540
 3814SOL     OW23166   0.497   0.992   3.760  0.0388  0.2050  0.2637
 3814SOL    HW123167   0.531   0.905   3.740 -0.9240 -0.6894  2.1916
 3814SOL    HW223168   0.539   1.016   3.843 -1.6323  0.4049  1.0955
 3815SOL     OW23169  10.141   9.862   2.785  0.3894  0.3798  0.0856
 3815SOL    HW123170  10.184   9.922   2.724  0.1177  1.7880  1.2168
 3815SOL    HW223171  10.213   9.822   2.834  0.5210  1.6133  0.9545
 3816SOL     OW23172  10.436  12.353  12.585 -0.5050  0.1241 -0.8862
 3816SOL    HW123173  10.380  12.398  12.649  0.6811  1.3305 -0.6661
 3816SOL    HW223174  10.488  12.293  12.638 -0.3958  0.2273 -0.8763
 3817SOL     OW23175   2.129   7.211   2.822 -0.5043  0.2366  0.5032
 3817SOL    HW123176   2.065   7.255   2.765  1.3714  1.2137 -0.9979
 3817SOL    HW223177   2.147   7.275   2.891 -0.3196  0.4485  0.2645
 3818SOL     OW23178   1.934   6.692   5.774 -0.2275 -0.2255 -0.1131
 3818SOL    HW123179   1.918   6.601   5.748 -1.2531 -0.0418 -0.1667
 3818SOL    HW223180   2.029   6.703   5.763 -0.3420 -0.6810 -2.1085
 3819SOL     OW23181  11.286  11.330  13.519  0.5793 -0.1157  0.8330
 3819SOL    HW123182  11.336  11.393  13.467  0.5793 -0.5655  0.2873
 3819SOL    HW223183  11.208  11.312  13.467  0.9788 -1.2051  0.5906
 3820SOL     OW23184  12.047   2.266  11.810  0.2639 -0.0275  0.4004
 3820SOL    HW123185  12.068   2.239  11.899 -2.7967 -1.8996  0.7029
 3820SOL    HW223186  12.012   2.187  11.769 -0.0164  1.2083 -1.9045
 3821SOL     OW23187   5.370  10.503   2.424  0.0123  0.5989 -0.3324
 3821SOL    HW123188   5.308  10.433   2.402  0.2824  0.2600 -0.0218
 3821SOL    HW223189   5.454  10.471   2.393  0.4324  0.0422  1.2812
 3822SOL     OW23190   7.393   1.862  11.872 -0.4621  0.4398 -0.6730
 3822SOL    HW123191   7.399   1.772  11.905 -0.5380  1.1494  1.4200
 3822SOL    HW223192   7.303   1.888  11.890  0.4132  2.0344  1.9722
 3823SOL     OW23193   6.652  13.660   8.689 -0.2153 -0.5485  0.3079
 3823SOL    HW123194   6.592  13.716   8.639  0.2913 -0.1593  0.1371
 3823SOL    HW223195   6.721  13.638   8.627  0.3323 -0.2040  0.7946
 3824SOL     OW23196   2.660   5.694   0.296  0.3238 -1.0229 -0.1561
 3824SOL    HW123197   2.630   5.650   0.217 -0.8311  1.8500 -1.4688
 3824SOL    HW223198   2.712   5.628   0.342 -1.6578 -3.8174 -1.6407
 3825SOL     OW23199   6.571  12.029   1.043  0.1504  0.2233  0.6087
 3825SOL    HW123200   6.480  12.052   1.021  0.5048 -0.3312 -1.7632
 3825SOL    HW223201   6.574  11.934   1.034  1.3381  0.3791 -1.2470
 3826SOL     OW23202   3.577  10.595   3.323 -0.2214  0.2014 -0.5918
 3826SOL    HW123203   3.498  10.625   3.368  0.9352 -0.4376  2.0687
 3826SOL    HW223204   3.639  10.667   3.334  0.7374 -0.7832  0.7599
 3827SOL     OW23205   5.661   8.579   4.673  0.0668 -0.2505  0.2005
 3827SOL    HW123206   5.686   8.574   4.765  2.5893 -0.4633 -0.4166
 3827SOL    HW223207   5.689   8.666   4.645 -0.2509 -0.3560 -0.4798
 3828SOL     OW23208  12.003   4.895   9.855 -0.0983 -0.1058 -0.4435
 3828SOL    HW123209  12.057   4.967   9.823 -1.3880  0.2796 -1.8807
 3828SOL    HW223210  11.938   4.938   9.910  0.3055 -0.4195  0.2843
 3829SOL     OW23211  10.484   5.074   2.197  0.1313 -0.5592 -0.2188
 3829SOL    HW123212  10.444   5.138   2.256  1.3185  2.1754 -2.1578
 3829SOL    HW223213  10.553   5.033   2.249  0.0011  0.4909  0.8135
 3830SOL     OW23214   7.075  10.732  11.121  0.0156 -0.1668  0.1076
 3830SOL    HW123215   7.064  10.811  11.174  1.5641 -1.3794  2.3958
 3830SOL    HW223216   7.153  10.749  11.069  0.0285  0.0344  0.1931
 3831SOL     OW23217   5.966   5.621  12.419 -0.1989  0.2400  0.1388
 3831SOL    HW123218   5.993   5.701  12.375  0.9464 -1.0067 -1.5911
 3831SOL    HW223219   5.905   5.579  12.357 -0.2831 -0.5146  0.7150
 3832SOL     OW23220   4.789   5.550   3.431  0.0975 -0.1682  0.0472
 3832SOL    HW123221   4.854   5.620   3.420 -0.1798  0.1790  0.6023
 3832SOL    HW223222   4.755   5.562   3.519 -0.6404 -0.4197 -0.1952
 3833SOL     OW23223   2.918   7.558  11.783 -0.3247  0.3487  0.1910
 3833SOL    HW123224   2.991   7.551  11.720  0.5979 -1.0682  1.3344
 3833SOL    HW223225   2.946   7.626  11.844 -1.0138  1.3955 -0.6140
 3834SOL     OW23226   7.715   4.942   7.177 -0.4696  0.2466  0.0797
 3834SOL    HW123227   7.764   4.914   7.100 -0.3191  0.4025  0.1191
 3834SOL    HW223228   7.765   4.908   7.251  0.1302  1.2503  0.1597
 3835SOL     OW23229   9.723   2.428   8.119 -0.1894 -0.5894  0.1333
 3835SOL    HW123230   9.779   2.408   8.194 -0.7857 -1.4760  0.3561
 3835SOL    HW223231   9.671   2.503   8.147  1.4268  0.7809 -0.3713
 3836SOL     OW23232   1.994   3.707   3.262  0.4743 -0.0289  0.7710
 3836SOL    HW123233   1.899   3.709   3.251  0.6022 -0.3958 -0.5329
 3836SOL    HW223234   2.018   3.616   3.245  1.1209  0.1906  0.4767
 3837SOL     OW23235   2.473   6.156   5.745  0.3061  0.1423  0.5034
 3837SOL    HW123236   2.554   6.125   5.705  0.6845  1.4700  0.1848
 3837SOL    HW223237   2.420   6.187   5.671  0.0723  0.5284  0.8314
 3838SOL     OW23238   4.898   2.539   5.773 -0.3548  0.1103  0.1764
 3838SOL    HW123239   4.953   2.508   5.845  1.6853 -2.3663 -2.2136
 3838SOL    HW223240   4.931   2.627   5.754  0.8882 -0.2358  0.6290
 3839SOL     OW23241  11.168  12.407   8.566  0.1483  0.4881  0.5777
 3839SOL    HW123242  11.166  12.473   8.497  1.2839 -0.8880 -0.8249
 3839SOL    HW223243  11.260  12.385   8.576 -0.0905  0.0018  1.9217
 3840SOL     OW23244   0.623   4.453   0.281 -0.0699 -0.1824 -0.3892
 3840SOL    HW123245   0.669   4.454   0.197 -0.5562  2.0081 -0.7001
 3840SOL    HW223246   0.610   4.545   0.303 -0.4123 -0.6925  1.8652
 3841SOL     OW23247   0.217  12.430   0.305  1.0172  0.0233 -0.2847
 3841SOL    HW123248   0.202  12.484   0.227  0.0594  1.5356  0.8834
 3841SOL    HW223249   0.298  12.383   0.286  1.3585  1.1271 -1.7729
 3842SOL     OW23250   2.864   8.736   0.310  0.1948 -0.0434 -0.1565
 3842SOL    HW123251   2.919   8.766   0.238  0.8633  0.5510  0.5846
 3842SOL    HW223252   2.779   8.777   0.294  0.7176  1.1748  0.1107
 3843SOL     OW23253   0.060   7.643  11.719  0.7661  0.1804  0.4892
 3843SOL    HW123254   0.086   7.572  11.778  1.7539 -0.3117 -0.5108
 3843SOL    HW223255   0.067   7.722  11.773 -0.3432 -0.4370  1.6164
 3844SOL     OW23256  11.812   7.142  11.333 -0.1456 -0.1412 -0.2633
 3844SOL    HW123257  11.799   7.059  11.288 -0.3971 -0.0178 -0.4162
 3844SOL    HW223258  11.903   7.165  11.314 -0.2532 -0.0831 -0.7211
 3845SOL     OW23259  10.249   4.911  11.340 -0.6656 -0.4284 -0.7699
 3845SOL    HW123260  10.220   4.999  11.316  1.3930  0.1580 -1.2717
 3845SOL    HW223261  10.243   4.860  11.260 -0.5676 -0.3784 -0.8093
 3846SOL     OW23262   1.455   2.894   2.155  0.1426 -0.3146  0.1386
 3846SOL    HW123263   1.372   2.849   2.136  0.6082 -0.4886 -1.7025
 3846SOL    HW223264   1.493   2.845   2.227 -2.1034  0.7859  2.2163
 3847SOL     OW23265   7.538   7.236   4.596 -0.4566  0.0360  0.3034
 3847SOL    HW123266   7.594   7.313   4.598  0.0942 -0.2947 -1.1524
 3847SOL    HW223267   7.505   7.228   4.686  1.6044  0.3789  1.1460
 3848SOL     OW23268  12.719   6.405  13.046  0.1082 -0.3762  0.1858
 3848SOL    HW123269  12.777   6.355  12.987  0.6685 -0.7936  1.0737
 3848SOL    HW223270  12.748   6.496  13.037 -2.2203  0.2263 -2.9921
 3849SOL     OW23271   8.105  13.706   7.512  0.1345  0.4811  0.3971
 3849SOL    HW123272   8.117  13.686   7.419  1.2846  0.4552  0.5363
 3849SOL    HW223273   8.053  13.633   7.546  1.2861 -0.4832  0.1537
 3850SOL     OW23274  11.019   0.749   5.637 -0.2018 -0.7950  0.0533
 3850SOL    HW123275  10.957   0.678   5.618  0.0269 -0.5225 -1.9832
 3850SOL    HW223276  11.104   0.705   5.643 -0.0141 -0.7137 -1.5243
 3851SOL     OW23277   3.529   2.209   6.781  0.1460  0.1768  0.2913
 3851SOL    HW123278   3.497   2.166   6.701  1.4243  0.0804 -0.1954
 3851SOL    HW223279   3.556   2.137   6.837 -0.0975  0.2689  0.5263
 3852SOL     OW23280   6.313   5.276  13.162 -0.0899 -0.5497 -0.2711
 3852SOL    HW123281   6.245   5.218  13.194  0.5706 -0.9663  0.4273
 3852SOL    HW223282   6.395   5.237  13.194  0.2943  1.7076  1.8067
 3853SOL     OW23283   8.847   7.566   4.724  0.2427  0.0791 -0.3054
 3853SOL    HW123284   8.867   7.566   4.818  0.1217  3.5340 -0.1619
 3853SOL    HW223285   8.930   7.588   4.682 -0.0180 -0.0828 -0.9142
 3854SOL     OW23286   7.667   9.978  11.158  0.0664  0.9833 -1.1326
 3854SOL    HW123287   7.724  10.035  11.107  1.2287  1.2431  0.3576
 3854SOL    HW223288   7.638  10.033  11.232 -0.9802  0.4283 -1.1081
 3855SOL     OW23289   0.507   5.604   4.629  0.3838  0.5151  0.4227
 3855SOL    HW123290   0.419   5.577   4.606  0.8976 -1.0212  0.1734
 3855SOL    HW223291   0.528   5.675   4.568 -0.4642  0.5094  0.1235
 3856SOL     OW23292   2.979   5.415   4.143 -0.2514 -0.5146  1.1445
 3856SOL    HW123293   2.911   5.408   4.210  0.2661 -1.7836  1.5754
 3856SOL    HW223294   3.029   5.492   4.167 -0.1882 -0.8538  2.1079
 3857SOL     OW23295   5.543   9.817   9.178 -0.2113  0.1389 -0.3509
 3857SOL    HW123296   5.448   9.813   9.167 -0.2359  1.4675 -0.8449
 3857SOL    HW223297   5.575   9.854   9.096  0.7078 -0.0299 -0.0790
 3858SOL     OW23298   4.786  13.454   9.329  0.4217 -0.0336 -0.0730
 3858SOL    HW123299   4.744  13.417   9.406  2.8708 -1.3493  0.7568
 3858SOL    HW223300   4.837  13.528   9.363  1.1713 -0.3497 -0.4815
 3859SOL     OW23301  10.162   9.891   2.455  0.0011 -0.2719 -0.0660
 3859SOL    HW123302  10.130   9.910   2.367  1.1952  0.6949 -0.3207
 3859SOL    HW223303  10.140   9.799   2.470 -0.9353 -0.2197 -1.0413
 3860SOL     OW23304   5.277  10.333  13.283 -0.3670  0.5988  0.1119
 3860SOL    HW123305   5.316  10.261  13.233 -2.5462 -0.5895  0.0252
 3860SOL    HW223306   5.250  10.396  13.216  0.2258  0.8407  0.0920
 3861SOL     OW23307   9.586  13.563   8.901 -0.6123 -0.0125  0.5258
 3861SOL    HW123308   9.630  13.592   8.820  1.6270 -2.7377  0.6100
 3861SOL    HW223309   9.504  13.524   8.871 -0.4517  0.2526 -0.2811
 3862SOL     OW23310   9.046   2.559   2.454 -0.1361  0.6259  0.1916
 3862SOL    HW123311   9.034   2.600   2.539  2.3985  1.3472  0.2807
 3862SOL    HW223312   8.990   2.481   2.457 -1.2021  1.4011  1.9290
 3863SOL     OW23313   7.287   7.061   5.509  0.0664 -0.8254 -0.1781
 3863SOL    HW123314   7.309   7.032   5.597 -0.2829 -0.8555 -0.0988
 3863SOL    HW223315   7.232   7.138   5.522 -0.1130 -0.9210 -0.3653
 3864SOL     OW23316   8.543  10.658   7.961 -0.3972  0.2080 -0.4720
 3864SOL    HW123317   8.503  10.613   7.887 -1.4376  0.7597 -0.2802
 3864SOL    HW223318   8.564  10.589   8.023  1.3720 -0.3619 -1.6572
 3865SOL     OW23319   2.232  10.092   4.779  0.0662 -0.1697  0.5271
 3865SOL    HW123320   2.271  10.160   4.835  1.0199 -0.0453 -0.2681
 3865SOL    HW223321   2.289  10.016   4.791  0.3652 -0.0961 -0.3750
 3866SOL     OW23322   7.649   2.374   1.913  0.2853  0.0219  0.0986
 3866SOL    HW123323   7.738   2.397   1.939  0.8420  0.6788 -2.1404
 3866SOL    HW223324   7.656   2.284   1.882  0.3569  0.3264 -0.7921
 3867SOL     OW23325  11.379  10.925   0.136  0.2844 -0.0729 -0.2368
 3867SOL    HW123326  11.317  10.995   0.112  0.6628 -0.5536 -2.9146
 3867SOL    HW223327  11.465  10.966   0.127  0.4743 -0.5979 -0.8351
 3868SOL     OW23328   4.498   6.400  13.570  0.0556 -0.1245  0.3401
 3868SOL    HW123329   4.509   6.376  13.662  2.0286  0.6462  0.3484
 3868SOL    HW223330   4.418   6.355  13.543 -0.5977 -0.3205  2.4390
 3869SOL     OW23331   1.079   6.296  11.837 -0.4860 -0.2209 -0.0923
 3869SOL    HW123332   1.051   6.209  11.808 -0.1905  0.1093 -1.4622
 3869SOL    HW223333   1.025   6.315  11.913 -2.0393 -0.7467 -1.0120
 3870SOL     OW23334   6.421   5.711  12.469 -0.1208 -0.0400 -0.7372
 3870SOL    HW123335   6.357   5.675  12.530  0.0332  0.0609 -0.5171
 3870SOL    HW223336   6.456   5.788  12.514 -0.4026  0.3491 -1.1759
 3871SOL     OW23337   6.942   5.197   4.558  0.2386  0.3285 -0.1484
 3871SOL    HW123338   7.004   5.186   4.630  0.0180 -1.0988 -0.1552
 3871SOL    HW223339   6.932   5.110   4.520 -1.8677  0.4576 -0.0543
 3872SOL     OW23340   2.758  12.696   4.021 -0.1770  0.7379 -0.1497
 3872SOL    HW123341   2.704  12.674   4.097  1.1043  0.6192  0.7667
 3872SOL    HW223342   2.848  12.689   4.053  0.3897  1.0505 -1.5903
 3873SOL     OW23343   5.423   3.612   9.971 -0.1903 -0.1604 -0.0269
 3873SOL    HW123344   5.495   3.597   9.910 -1.2886 -0.2154 -1.3431
 3873SOL    HW223345   5.450   3.689  10.021  0.7990 -0.2115 -0.4591
 3874SOL     OW23346  10.536   7.591   5.751 -0.0537 -0.2958  0.3703
 3874SOL    HW123347  10.508   7.599   5.842 -0.5105  0.9034  0.1538
 3874SOL    HW223348  10.630   7.577   5.755 -0.1815 -1.0086  1.0405
 3875SOL     OW23349  11.658   7.760  13.142 -0.0960  0.0062 -0.0270
 3875SOL    HW123350  11.699   7.809  13.072 -0.2800  0.2912  0.0612
 3875SOL    HW223351  11.679   7.669  13.124  0.2708  0.1221 -0.1767
 3876SOL     OW23352   6.068  12.264   6.145 -0.1272  0.2696 -0.1002
 3876SOL    HW123353   6.030  12.206   6.210 -0.2053 -1.9995 -2.0296
 3876SOL    HW223354   6.060  12.216   6.062  0.7393  2.6262 -1.6671
 3877SOL     OW23355   7.884   2.141   6.537 -0.1692 -0.4794  0.0387
 3877SOL    HW123356   7.862   2.072   6.475 -0.7419 -1.3850  1.2243
 3877SOL    HW223357   7.873   2.222   6.487 -0.9598 -1.1712 -0.9418
 3878SOL     OW23358   9.517  12.891   1.260  0.2655 -0.1224  0.0212
 3878SOL    HW123359   9.515  12.895   1.356 -1.4667 -0.7817  0.0510
 3878SOL    HW223360   9.516  12.797   1.240 -1.2943 -0.0164 -0.6017
 3879SOL     OW23361   7.042  13.239  12.054 -0.0961  0.1298 -0.0836
 3879SOL    HW123362   7.129  13.251  12.092  1.2890  0.0492 -2.9438
 3879SOL    HW223363   7.018  13.325  12.020 -0.8431  0.0073  0.1116
 3880SOL     OW23364  11.199   5.647   8.300 -0.5196 -0.4377 -0.4357
 3880SOL    HW123365  11.107   5.650   8.326 -1.2092 -0.1664 -2.7395
 3880SOL    HW223366  11.212   5.727   8.250  0.9054 -0.6428 -0.4350
 3881SOL     OW23367   2.066   1.333   2.321  0.4888  0.5741 -0.3485
 3881SOL    HW123368   1.990   1.390   2.332  0.9484  0.9120  1.2794
 3881SOL    HW223369   2.059   1.302   2.231 -2.5609 -0.8297  0.2405
 3882SOL     OW23370   9.102   0.194  12.345  0.0951 -0.8091  0.1301
 3882SOL    HW123371   9.153   0.214  12.266  1.0276 -1.3531  0.5756
 3882SOL    HW223372   9.164   0.207  12.417 -0.8253 -0.0283  0.8068
 3883SOL     OW23373   9.350   1.167   7.506 -0.1883 -0.0807 -0.5534
 3883SOL    HW123374   9.307   1.082   7.518 -0.3644 -0.1855 -1.8076
 3883SOL    HW223375   9.304   1.207   7.432  0.1164  0.9637 -0.1833
 3884SOL     OW23376   3.308   8.461   4.236  0.0050  0.1522 -0.2276
 3884SOL    HW123377   3.267   8.516   4.302  2.8114  1.6604  0.4063
 3884SOL    HW223378   3.329   8.521   4.164  2.3187 -0.1886  0.0948
 3885SOL     OW23379   7.865  10.615   4.927  0.0535  0.1471 -0.2629
 3885SOL    HW123380   7.846  10.626   4.834  0.4463 -0.6630 -0.4485
 3885SOL    HW223381   7.945  10.563   4.929  0.5068  0.8400  0.5282
 3886SOL     OW23382   9.715  10.036  12.983  0.2767 -0.6213  0.0136
 3886SOL    HW123383   9.769   9.977  12.929 -1.5914 -2.2876 -0.1605
 3886SOL    HW223384   9.656   9.977  13.030 -0.2899  1.0211  1.4616
 3887SOL     OW23385  10.058   1.081   4.525  0.1520 -0.4505 -0.3579
 3887SOL    HW123386  10.100   1.069   4.611  1.0079  0.0346 -0.6942
 3887SOL    HW223387  10.108   1.151   4.484  0.1520 -1.0965 -1.5048
 3888SOL     OW23388   3.057   3.538  10.089  0.1203 -0.5486  0.3732
 3888SOL    HW123389   2.993   3.469  10.073 -2.0658  1.0916  1.5388
 3888SOL    HW223390   3.033   3.574  10.175  1.1295  1.6711 -0.2024
 3889SOL     OW23391   5.272  10.695  11.219  0.0738  0.1225  0.3766
 3889SOL    HW123392   5.211  10.654  11.280 -0.4430  0.5802  0.1800
 3889SOL    HW223393   5.238  10.784  11.208 -0.4339 -0.2425 -1.3479
 3890SOL     OW23394   7.078   6.345  13.309  0.2294 -0.0199 -0.2465
 3890SOL    HW123395   7.070   6.414  13.375 -0.7160 -0.7072  0.3802
 3890SOL    HW223396   7.150   6.374  13.252 -0.1383  1.4618  0.0143
 3891SOL     OW23397   1.384   5.337   3.418  0.2501 -0.1651  0.2686
 3891SOL    HW123398   1.472   5.349   3.384 -0.0536 -0.1168 -0.5241
 3891SOL    HW223399   1.327   5.383   3.355 -0.3330 -0.1358  0.7995
 3892SOL     OW23400  10.844  11.835   5.860 -0.5429 -0.4159  0.3595
 3892SOL    HW123401  10.885  11.790   5.933 -0.1098  0.7152  0.8372
 3892SOL    HW223402  10.839  11.926   5.888  0.1330  0.1490 -1.2113
 3893SOL     OW23403  11.839   9.246   6.082 -0.2652 -0.9890 -0.3013
 3893SOL    HW123404  11.765   9.235   6.142 -0.1785 -1.1329 -0.2198
 3893SOL    HW223405  11.870   9.157   6.066  0.1994 -0.8902  0.0515
 3894SOL     OW23406   1.027   2.852   5.448 -0.4103  0.1944  0.2019
 3894SOL    HW123407   1.051   2.759   5.450 -1.9974 -0.3664 -2.1917
 3894SOL    HW223408   1.088   2.891   5.386 -0.8052  0.4000 -0.0553
 3895SOL     OW23409   5.950   0.787  12.220 -0.3658  0.8060 -0.2184
 3895SOL    HW123410   6.011   0.818  12.153  0.0368  1.0221  0.2451
 3895SOL    HW223411   5.964   0.845  12.295 -1.8435  1.4987 -0.4354
 3896SOL     OW23412   2.894  12.066   2.859 -0.4764  0.5942  0.4899
 3896SOL    HW123413   2.898  11.983   2.905 -1.7814  1.5138  2.4070
 3896SOL    HW223414   2.979  12.107   2.874  0.3757 -0.5496 -0.9189
 3897SOL     OW23415   8.516   8.363  13.134 -0.1875 -0.3071  0.6348
 3897SOL    HW123416   8.527   8.420  13.058  1.0441  0.3346  1.2678
 3897SOL    HW223417   8.597   8.313  13.139 -1.3822 -2.4273 -0.1058
 3898SOL     OW23418   6.409  11.771  12.931 -0.1568 -0.3073 -0.1975
 3898SOL    HW123419   6.362  11.760  12.848 -1.4182 -0.0596  0.4561
 3898SOL    HW223420   6.419  11.681  12.964 -1.8379 -0.2570  0.5289
 3899SOL     OW23421   2.253   5.855   5.888 -0.4483 -0.1148 -0.1267
 3899SOL    HW123422   2.200   5.924   5.927  0.4355  1.5315 -1.6600
 3899SOL    HW223423   2.335   5.857   5.938 -0.8167 -0.8401  0.5305
 3900SOL     OW23424   9.149   1.665   6.413 -0.0059  0.1565 -0.0584
 3900SOL    HW123425   9.060   1.670   6.449 -0.9610 -1.1282 -2.0872
 3900SOL    HW223426   9.205   1.653   6.490 -1.7584 -0.8629  1.1357
 3901SOL     OW23427   2.966  12.224  13.064  0.2025 -0.0584  0.3081
 3901SOL    HW123428   2.914  12.144  13.059  0.0042  0.0410  0.6865
 3901SOL    HW223429   2.914  12.289  13.017  0.4862 -0.2146 -0.2191
 3902SOL     OW23430   3.364  12.081  10.589  0.1794 -0.0333 -0.2977
 3902SOL    HW123431   3.295  12.016  10.592 -1.7493  1.8511 -1.0899
 3902SOL    HW223432   3.386  12.089  10.496  0.1510  0.6611 -0.2516
 3903SOL     OW23433   4.950   8.116   8.039 -0.4622 -0.4498 -0.5300
 3903SOL    HW123434   5.019   8.111   7.973  0.5154  0.1176  0.4192
 3903SOL    HW223435   4.882   8.056   8.007  1.1137 -2.2451 -0.7115
 3904SOL     OW23436  12.373   7.634   6.985 -0.0390  0.4165  0.6179
 3904SOL    HW123437  12.283   7.660   6.965 -0.3414 -0.3227  0.9586
 3904SOL    HW223438  12.421   7.652   6.905 -0.7630 -0.3745 -0.0234
 3905SOL     OW23439   4.582   2.669   9.325 -0.1831 -0.5798  1.0295
 3905SOL    HW123440   4.642   2.725   9.375 -1.2690  1.4669  0.1414
 3905SOL    HW223441   4.621   2.664   9.238 -0.5654 -0.4461  0.8514
 3906SOL     OW23442   5.074  12.214   4.442  0.0051  0.4291 -0.1487
 3906SOL    HW123443   5.062  12.128   4.483 -0.1532 -0.1394 -1.3512
 3906SOL    HW223444   5.080  12.196   4.348 -0.7670  1.7924 -0.4977
 3907SOL     OW23445   1.779  11.497   9.837  0.1443 -0.0802 -0.2528
 3907SOL    HW123446   1.718  11.510   9.910  0.9859  1.8554  0.1801
 3907SOL    HW223447   1.765  11.573   9.781  0.4624 -0.8625 -1.4105
 3908SOL     OW23448  10.622   1.453   7.609 -0.0440 -0.1922 -0.2235
 3908SOL    HW123449  10.612   1.358   7.599  0.6617 -0.1227 -1.8621
 3908SOL    HW223450  10.599   1.489   7.524  0.9690  0.9961 -0.0327
 3909SOL     OW23451  12.969   5.633   0.779  0.1263  0.1454 -0.1233
 3909SOL    HW123452  12.934   5.646   0.867  2.1244 -0.5507  0.8425
 3909SOL    HW223453  12.916   5.564   0.741 -0.8136  0.5099  0.5046
 3910SOL     OW23454   2.293   1.501   4.169  0.4995 -0.1925 -0.1191
 3910SOL    HW123455   2.343   1.422   4.187 -0.7244 -0.9053  0.2227
 3910SOL    HW223456   2.215   1.494   4.223  0.6844  1.5946  0.4522
 3911SOL     OW23457   8.829   9.745   1.052  0.1338 -0.4707  0.6553
 3911SOL    HW123458   8.744   9.715   1.018  0.5624 -0.1244 -0.8137
 3911SOL    HW223459   8.888   9.739   0.976  0.9415  1.2048  1.1102
 3912SOL     OW23460  12.705   4.430   3.845 -0.0744 -0.3101  0.0318
 3912SOL    HW123461  12.672   4.466   3.928 -0.6248 -1.1567  0.1909
 3912SOL    HW223462  12.798   4.450   3.846 -0.2027  0.3090  0.5322
 3913SOL     OW23463   4.611  12.768  13.274  0.1663  0.0318  0.1066
 3913SOL    HW123464   4.564  12.751  13.192 -1.1367 -3.1945  1.3721
 3913SOL    HW223465   4.692  12.717  13.266  0.5950  0.6600  0.3814
 3914SOL     OW23466   6.977   8.356  12.493  0.0441  0.5515 -0.2121
 3914SOL    HW123467   7.004   8.322  12.407  1.7901  2.3889 -0.4819
 3914SOL    HW223468   6.926   8.435  12.472  0.2785  0.8797  0.4194
 3915SOL     OW23469   7.110   7.091   6.413 -0.1129  0.2880 -0.0955
 3915SOL    HW123470   7.163   7.052   6.343  1.5132  3.5401 -0.8629
 3915SOL    HW223471   7.039   7.135   6.366  1.2140  2.8386  0.1349
 3916SOL     OW23472   8.055   3.035   1.685 -0.2886 -0.1912 -0.0780
 3916SOL    HW123473   8.146   3.036   1.657 -0.0415 -1.1264  0.6364
 3916SOL    HW223474   8.025   2.946   1.665 -0.9613  0.0259 -0.0637
 3917SOL     OW23475   3.275   1.916   2.641  0.6451 -0.3118  0.2080
 3917SOL    HW123476   3.292   1.857   2.714 -1.7949 -0.5420  0.6761
 3917SOL    HW223477   3.310   1.870   2.564  0.0655 -1.7210  0.7571
 3918SOL     OW23478   2.754   8.248   2.518  0.2554 -0.1665 -0.6659
 3918SOL    HW123479   2.789   8.169   2.559  0.1335 -1.4089 -2.7860
 3918SOL    HW223480   2.821   8.314   2.533  0.7010 -0.8513  0.5344
 3919SOL     OW23481   9.936  11.946   4.797  0.3228  0.1733  0.6188
 3919SOL    HW123482  10.005  12.004   4.831  1.1445 -1.3926  1.7155
 3919SOL    HW223483   9.858  11.971   4.846  0.6945  0.2866  1.1641
 3920SOL     OW23484  12.495  13.300   3.622  0.3852  0.7014 -0.0022
 3920SOL    HW123485  12.411  13.255   3.623  0.2937  0.8398 -0.8032
 3920SOL    HW223486  12.478  13.384   3.665  0.4935  0.1022  1.2537
 3921SOL     OW23487  10.339  13.228   7.439 -0.4202  0.1353 -0.6642
 3921SOL    HW123488  10.268  13.186   7.391 -1.6828 -1.0818  2.0389
 3921SOL    HW223489  10.402  13.158   7.455 -0.4463  0.2884  0.1625
 3922SOL     OW23490  13.243  11.077   9.579 -0.4944 -0.2030 -0.4282
 3922SOL    HW123491  13.177  11.044   9.518 -3.1552 -1.0940  2.6395
 3922SOL    HW223492  13.202  11.154   9.619  0.4901 -0.5148  1.2476
 3923SOL     OW23493   4.374   2.422   2.023 -0.2350 -0.1584 -0.3098
 3923SOL    HW123494   4.421   2.341   2.002  0.8709  0.4981 -0.3945
 3923SOL    HW223495   4.418   2.456   2.101 -1.0219  0.1077  0.0282
 3924SOL     OW23496   5.981   9.239   7.665 -0.1721 -0.1744  0.0896
 3924SOL    HW123497   6.064   9.202   7.636  0.5452  1.8885 -0.6961
 3924SOL    HW223498   5.922   9.227   7.591  0.3523  1.0708 -0.5621
 3925SOL     OW23499   1.246   8.675  12.278 -0.1249 -0.0724  0.1503
 3925SOL    HW123500   1.282   8.690  12.190 -0.0878 -0.2989  0.1273
 3925SOL    HW223501   1.210   8.587  12.274 -0.6995  0.1573  0.1690
 3926SOL     OW23502   8.570  13.323   8.476 -0.2044  0.3101 -0.0700
 3926SOL    HW123503   8.562  13.260   8.547  2.8623  1.7914  1.8240
 3926SOL    HW223504   8.508  13.293   8.409 -2.5038 -1.7615  2.7406
 3927SOL     OW23505   3.540   5.625  11.970  0.1941  0.3653 -0.0524
 3927SOL    HW123506   3.485   5.639  11.892  1.9381  0.7430 -1.2869
 3927SOL    HW223507   3.575   5.711  11.991  1.1869 -0.0296 -0.0020
 3928SOL     OW23508  10.697   3.387   2.243 -0.1361  0.2257 -0.0447
 3928SOL    HW123509  10.625   3.337   2.281  0.7840 -1.0706  0.0682
 3928SOL    HW223510  10.685   3.476   2.276 -0.5710 -0.4040  1.5431
 3929SOL     OW23511   0.741   5.239   5.284  0.0248  0.4560  0.0127
 3929SOL    HW123512   0.813   5.203   5.232 -0.4269 -0.3860 -0.0518
 3929SOL    HW223513   0.734   5.330   5.256  0.9640  0.5071 -0.0859
 3930SOL     OW23514   1.306  11.811  12.223  0.2324  0.3548  0.0135
 3930SOL    HW123515   1.293  11.842  12.133  0.9684 -0.0281 -0.2340
 3930SOL    HW223516   1.227  11.761  12.243 -0.1857  0.9111 -0.2126
 3931SOL     OW23517   6.104   5.413  13.673  0.0791 -0.1474  0.4710
 3931SOL    HW123518   6.192   5.383  13.695  0.5621  0.3484 -0.6932
 3931SOL    HW223519   6.074   5.353  13.605 -0.3156 -0.0648  0.5721
 3932SOL     OW23520   9.069   8.871  11.877 -0.1633 -0.0351  0.4414
 3932SOL    HW123521   9.013   8.947  11.862  1.4498  0.8766 -1.3887
 3932SOL    HW223522   9.120   8.894  11.955 -1.1930 -0.2144  1.1898
 3933SOL     OW23523  13.300  11.605  12.347 -0.3865 -0.0639  0.3702
 3933SOL    HW123524  13.299  11.530  12.406  0.9509  0.7711  1.5181
 3933SOL    HW223525  13.347  11.573  12.269  0.7344 -0.2638  1.1079
 3934SOL     OW23526   0.769  12.968  12.966 -0.2033 -0.6211 -0.1989
 3934SOL    HW123527   0.800  12.967  13.057  1.5197 -1.4026 -0.7585
 3934SOL    HW223528   0.688  12.916  12.968  0.4696 -1.6872  0.6893
 3935SOL     OW23529   4.358   8.210  10.364 -0.2345 -0.2891  0.5818
 3935SOL    HW123530   4.385   8.252  10.446 -0.0739  1.7537 -0.4323
 3935SOL    HW223531   4.266   8.233  10.355  0.2064  1.1673 -0.6824
 3936SOL     OW23532  10.951   6.887  11.360 -0.2156 -0.6998 -0.0138
 3936SOL    HW123533  11.031   6.927  11.395 -0.6902  1.0609 -0.8284
 3936SOL    HW223534  10.882   6.917  11.418 -0.5796 -0.3558 -0.6165
 3937SOL     OW23535   5.439   7.776   9.022  0.0048  0.3407  0.1742
 3937SOL    HW123536   5.510   7.806   8.965 -0.0092  0.5854  0.2834
 3937SOL    HW223537   5.389   7.855   9.040 -1.9116 -0.2441 -2.1048
 3938SOL     OW23538  11.548  10.344   2.752  0.5588  0.2283  0.3485
 3938SOL    HW123539  11.564  10.429   2.793 -0.0834  0.4993  0.0424
 3938SOL    HW223540  11.507  10.365   2.668  0.4345 -0.3812  0.2514
 3939SOL     OW23541   3.689   2.942   5.397 -0.0779 -0.2218  0.5569
 3939SOL    HW123542   3.743   2.869   5.424 -0.0465 -0.1274  0.7463
 3939SOL    HW223543   3.599   2.911   5.409 -0.0931 -0.7105 -0.6054
 3940SOL     OW23544  11.710   2.585   1.393  0.2513  0.1791 -0.0938
 3940SOL    HW123545  11.781   2.573   1.330 -0.7726  0.0240 -1.2396
 3940SOL    HW223546  11.699   2.498   1.433  1.1103  0.3529  0.5535
 3941SOL     OW23547   8.747   7.370   7.969  0.4822  1.1389 -0.7685
 3941SOL    HW123548   8.665   7.395   8.013  0.1302 -0.3295 -0.5345
 3941SOL    HW223549   8.802   7.336   8.039 -0.1253 -1.3444 -1.3883
 3942SOL     OW23550   0.120   1.861   4.819 -0.2515 -0.4784 -0.0261
 3942SOL    HW123551   0.045   1.843   4.762  0.0754  0.6882 -0.8642
 3942SOL    HW223552   0.109   1.952   4.845 -0.8689 -1.2192  2.5723
 3943SOL     OW23553   0.551   3.092   6.242  0.0328  0.1065 -0.7367
 3943SOL    HW123554   0.485   3.029   6.215  1.2414 -1.3537 -0.4572
 3943SOL    HW223555   0.590   3.123   6.160 -1.6538  1.7879 -0.9599
 3944SOL     OW23556   7.959  11.336   2.817  0.2844 -0.4010 -0.0769
 3944SOL    HW123557   7.965  11.246   2.849 -2.5965 -1.7440 -2.7492
 3944SOL    HW223558   7.867  11.346   2.790  1.2205  2.1908 -2.9029
 3945SOL     OW23559   8.581   9.406   6.315  0.5442 -0.4172  0.3788
 3945SOL    HW123560   8.630   9.419   6.234 -0.0879  0.7485  0.1581
 3945SOL    HW223561   8.514   9.342   6.293 -0.5977  1.0039 -0.4947
 3946SOL     OW23562   1.053   8.001   9.356  0.1381 -0.4362  0.5780
 3946SOL    HW123563   1.109   8.078   9.354  0.2574 -0.4754  1.7906
 3946SOL    HW223564   1.058   7.965   9.267  1.7802 -0.2655  0.5814
 3947SOL     OW23565   8.156  10.504   5.688 -0.3009  0.3321 -0.3123
 3947SOL    HW123566   8.226  10.464   5.740  1.4654  1.4529 -1.7048
 3947SOL    HW223567   8.181  10.486   5.597 -2.3565 -0.0322 -0.8487
 3948SOL     OW23568   1.551   2.829   8.727  0.6312  0.4083 -0.0064
 3948SOL    HW123569   1.502   2.902   8.689 -1.2747 -1.0201 -0.4468
 3948SOL    HW223570   1.586   2.863   8.810 -1.9163  1.2788  0.7823
 3949SOL     OW23571   1.226   4.258   4.107 -0.1341 -0.2378  0.4793
 3949SOL    HW123572   1.159   4.312   4.066  0.3765 -0.0341 -0.1107
 3949SOL    HW223573   1.187   4.229   4.189 -0.3850  1.1299  0.8662
 3950SOL     OW23574   1.089  10.338  13.224 -0.4624  1.1264  0.3431
 3950SOL    HW123575   1.100  10.426  13.188  0.2237  1.0283  0.2916
 3950SOL    HW223576   1.015  10.345  13.283 -1.3572  1.3943 -0.7734
 3951SOL     OW23577   7.544   6.475  12.696 -0.9148 -0.2711 -0.0144
 3951SOL    HW123578   7.506   6.559  12.673  0.5111  1.1303  2.3651
 3951SOL    HW223579   7.531   6.467  12.791 -0.3616 -2.4018 -0.0573
 3952SOL     OW23580   9.402   3.646   3.099  0.6324  0.3323  0.4267
 3952SOL    HW123581   9.385   3.654   3.005 -2.9278 -1.2190  0.7637
 3952SOL    HW223582   9.350   3.716   3.138 -2.3566 -2.1791  1.3740
 3953SOL     OW23583   8.371  10.119   4.611 -0.5227 -0.0425  0.0591
 3953SOL    HW123584   8.389  10.090   4.700 -1.1711 -0.3175  0.1052
 3953SOL    HW223585   8.453  10.105   4.564  0.1653  1.1199  0.8627
 3954SOL     OW23586  11.283   4.331   3.008 -0.0043 -0.0737 -0.0084
 3954SOL    HW123587  11.340   4.254   3.013 -1.0798 -0.9450 -0.6420
 3954SOL    HW223588  11.317   4.381   2.934 -0.1986 -0.7149 -0.5426
 3955SOL     OW23589   0.042  13.071   4.907  0.1092 -0.5705  0.4343
 3955SOL    HW123590   0.134  13.096   4.896 -0.2898  0.8378  0.0057
 3955SOL    HW223591   0.043  12.976   4.915  1.4570 -0.7397 -1.2581
 3956SOL     OW23592  13.116  13.721   3.098  0.1516 -0.0452  0.5135
 3956SOL    HW123593  13.164  13.659   3.044 -0.5862 -0.7162  0.6099
 3956SOL    HW223594  13.163  13.722   3.182 -0.0510 -0.7690  0.6433
 3957SOL     OW23595   1.180   2.479   0.201  0.0141  0.5018  0.2346
 3957SOL    HW123596   1.205   2.393   0.168 -0.2506  0.1527  0.9360
 3957SOL    HW223597   1.143   2.462   0.288 -0.4344  1.2728  0.2024
 3958SOL     OW23598  12.400   6.452   4.229 -0.6989 -0.0741 -0.3302
 3958SOL    HW123599  12.363   6.370   4.196 -0.0033  0.1990 -1.8528
 3958SOL    HW223600  12.469   6.425   4.289 -1.8597 -0.5822  0.8175
 3959SOL     OW23601   2.850   8.904  11.174  0.2773  0.2214  0.2539
 3959SOL    HW123602   2.886   8.819  11.148 -2.9018 -1.1918  0.0552
 3959SOL    HW223603   2.927   8.957  11.196  2.4621 -2.1839 -1.0802
 3960SOL     OW23604  10.784   7.808   0.706 -0.2017  0.2191  0.2155
 3960SOL    HW123605  10.717   7.786   0.642 -0.7487  0.6659  0.6313
 3960SOL    HW223606  10.760   7.758   0.784 -1.2556  1.9664  1.0529
 3961SOL     OW23607  12.949   0.630   7.775 -0.1181  0.2209  0.3337
 3961SOL    HW123608  13.001   0.679   7.838 -2.9457  2.6270  1.0033
 3961SOL    HW223609  12.951   0.540   7.807  3.0789  0.2475  0.5687
 3962SOL     OW23610   4.862   9.261   2.015  0.8185 -0.0084 -0.4813
 3962SOL    HW123611   4.822   9.175   2.005 -0.3443  0.3370  0.7536
 3962SOL    HW223612   4.799   9.310   2.070  1.7439  1.4105 -0.6240
 3963SOL     OW23613   5.116  11.251  10.580  0.1217  0.6264  0.3383
 3963SOL    HW123614   5.073  11.166  10.581  3.1503 -1.0493  0.6355
 3963SOL    HW223615   5.046  11.314  10.564 -2.4353 -1.7721  1.4301
 3964SOL     OW23616   7.169   1.039  10.728  0.5627  0.5738 -0.0020
 3964SOL    HW123617   7.073   1.028  10.729  0.7210 -1.0468  0.4552
 3964SOL    HW223618   7.202   0.958  10.766  2.0513  2.2628  2.5816
 3965SOL     OW23619   1.739  11.590   2.187  0.4125  0.2950  0.3159
 3965SOL    HW123620   1.822  11.589   2.235  0.1621 -0.6974  0.7511
 3965SOL    HW223621   1.671  11.585   2.254  0.0126  0.4787 -0.0638
 3966SOL     OW23622  12.027   0.686   0.808  0.2876  0.3326 -0.3084
 3966SOL    HW123623  11.952   0.690   0.867  0.5591  1.1670 -0.0115
 3966SOL    HW223624  12.016   0.760   0.749  0.5392  0.0792 -0.6812
 3967SOL     OW23625  11.917   7.487   7.085  0.1523 -0.0305 -0.0198
 3967SOL    HW123626  11.946   7.507   7.174  0.2997 -2.9188  0.6763
 3967SOL    HW223627  11.846   7.424   7.096  0.1283 -0.4003 -1.9564
 3968SOL     OW23628   7.825   2.874  13.720  0.5925  0.3650 -0.0735
 3968SOL    HW123629   7.858   2.871  13.810 -0.1743 -0.8049  0.1846
 3968SOL    HW223630   7.742   2.922  13.726 -1.2036 -2.5845  0.4747
 3969SOL     OW23631   9.100   2.335   1.035 -0.4045 -0.3157 -0.3664
 3969SOL    HW123632   9.153   2.286   0.973 -1.1972 -0.8689 -0.6121
 3969SOL    HW223633   9.079   2.272   1.105 -2.1309 -0.6087 -1.0984
 3970SOL     OW23634  11.083  11.597  12.780  0.9788  0.4047  0.1393
 3970SOL    HW123635  11.049  11.675  12.736  3.1370  0.3733 -1.7903
 3970SOL    HW223636  11.096  11.534  12.709 -0.8179 -1.8238  1.6753
 3971SOL     OW23637   1.402   5.048   0.229 -0.8185  0.2151  0.5046
 3971SOL    HW123638   1.438   4.969   0.270 -1.5427 -0.1416  0.4878
 3971SOL    HW223639   1.403   5.028   0.135 -0.1645  0.5976  0.4236
 3972SOL     OW23640   1.156   2.638   4.318 -0.7408 -0.9611 -0.5186
 3972SOL    HW123641   1.177   2.720   4.363 -1.6981 -1.6305  1.2565
 3972SOL    HW223642   1.212   2.573   4.359 -0.1327 -1.2517 -1.7740
 3973SOL     OW23643   8.909   4.418  10.924  0.4890  0.3470 -0.2381
 3973SOL    HW123644   8.987   4.415  10.869  0.4785  2.0943 -0.3923
 3973SOL    HW223645   8.851   4.481  10.882 -0.1063  0.6880  1.0304
 3974SOL     OW23646   6.400   0.248   6.948  0.3083 -0.1363 -0.3895
 3974SOL    HW123647   6.483   0.222   6.907  0.9423  0.0306  0.7729
 3974SOL    HW223648   6.410   0.226   7.040 -1.0435 -0.3402 -0.2671
 3975SOL     OW23649   1.786   3.618   5.688  0.3849  0.1486 -0.2789
 3975SOL    HW123650   1.760   3.647   5.775  3.5290 -1.7607  1.4839
 3975SOL    HW223651   1.756   3.528   5.682  0.8371  0.0256 -0.8490
 3976SOL     OW23652   1.146   7.801   6.957  0.5177  0.3147  0.2422
 3976SOL    HW123653   1.225   7.848   6.927  0.1470  0.0946 -1.1774
 3976SOL    HW223654   1.091   7.869   6.994  1.9729  0.2647  2.7095
 3977SOL     OW23655   5.745  12.781   7.166  0.2707  0.1394  0.1294
 3977SOL    HW123656   5.742  12.741   7.079 -1.5486  1.6492 -0.5870
 3977SOL    HW223657   5.827  12.751   7.204  0.5317 -1.5601 -1.6178
 3978SOL     OW23658   7.828  12.987   6.191  0.6265  0.4534  0.3762
 3978SOL    HW123659   7.869  12.948   6.114  1.9847 -0.4414  1.5080
 3978SOL    HW223660   7.764  12.922   6.219  1.3949 -0.0391  1.0241
 3979SOL     OW23661   4.695   5.365  12.668 -0.1952 -0.2881  0.1176
 3979SOL    HW123662   4.646   5.301  12.616 -0.9052 -0.5620  1.1033
 3979SOL    HW223663   4.777   5.377  12.619 -0.3428 -1.4238 -0.4534
 3980SOL     OW23664  11.220   1.604  13.087 -0.4854  0.2903 -0.1017
 3980SOL    HW123665  11.277   1.680  13.079 -0.1518  0.3758  2.2669
 3980SOL    HW223666  11.163   1.624  13.162 -2.1231 -0.7502 -0.9932
 3981SOL     OW23667  11.236   9.670  10.727 -0.0017  0.0499  0.8152
 3981SOL    HW123668  11.292   9.744  10.702  1.2739 -1.0497  0.2421
 3981SOL    HW223669  11.147   9.701  10.715  0.5012  0.6197 -2.2135
 3982SOL     OW23670   3.060   3.731   8.443  0.5517  0.3610  0.0111
 3982SOL    HW123671   3.071   3.777   8.360  0.0073  0.1824 -0.1678
 3982SOL    HW223672   3.046   3.799   8.508 -2.1724  0.4625 -0.5353
 3983SOL     OW23673   2.558  10.888   7.122 -0.5421 -0.7616  0.6793
 3983SOL    HW123674   2.542  10.815   7.061 -3.7928 -0.0437  0.5328
 3983SOL    HW223675   2.533  10.854   7.207 -1.5570 -0.0151  0.6924
 3984SOL     OW23676  12.381   6.366  12.664  0.2764 -0.4602 -0.6868
 3984SOL    HW123677  12.355   6.401  12.578  1.3902 -0.6144 -1.1003
 3984SOL    HW223678  12.462   6.411  12.685 -0.5038  0.3427  0.7973
 3985SOL     OW23679  11.899  13.455   3.497 -0.2874 -0.5897 -0.0728
 3985SOL    HW123680  11.833  13.509   3.453  0.3516 -0.3448 -0.7702
 3985SOL    HW223681  11.982  13.501   3.479  0.0020 -0.5275  1.3546
 3986SOL     OW23682  10.971   3.018   1.647 -0.0572 -0.4624  0.1537
 3986SOL    HW123683  11.015   3.057   1.571  3.3349  0.4855  2.3644
 3986SOL    HW223684  10.912   3.086   1.677  1.6125  0.8400  0.6511
 3987SOL     OW23685   2.975   7.120   4.992 -0.0678 -0.6789 -0.2167
 3987SOL    HW123686   3.054   7.130   4.938 -0.3351 -0.2104 -0.5281
 3987SOL    HW223687   3.008   7.116   5.082  0.2710  0.2970 -0.2797
 3988SOL     OW23688  11.553  12.412   3.801  0.5046  0.2111  0.4663
 3988SOL    HW123689  11.514  12.335   3.843 -0.4726 -0.8132 -2.0780
 3988SOL    HW223690  11.537  12.398   3.707  0.7094  3.3206 -0.1284
 3989SOL     OW23691   7.268   7.831   8.996 -0.0312  0.4925 -0.1582
 3989SOL    HW123692   7.328   7.904   8.979 -1.1766  1.5524  0.1304
 3989SOL    HW223693   7.193   7.873   9.038 -0.4603 -0.9649  0.5722
 3990SOL     OW23694   6.133   8.295  10.665 -0.2735  1.2000 -0.5497
 3990SOL    HW123695   6.164   8.384  10.679  0.4912  0.5402  2.4928
 3990SOL    HW223696   6.211   8.246  10.640 -0.7246  1.3254 -2.4068
 3991SOL     OW23697  10.754   3.242  13.175  0.0540  0.2318 -0.2611
 3991SOL    HW123698  10.834   3.237  13.122  0.2598  0.1373  0.0540
 3991SOL    HW223699  10.778   3.202  13.258 -0.7173 -1.1061 -0.6328
 3992SOL     OW23700   4.101   5.928  10.879 -0.5015  0.5066 -0.0100
 3992SOL    HW123701   4.150   5.878  10.813 -0.5841 -0.3381  0.5488
 3992SOL    HW223702   4.019   5.951  10.835  0.1376  1.4229 -0.7561
 3993SOL     OW23703   5.266  13.333   0.317 -0.4474 -0.0440 -0.3108
 3993SOL    HW123704   5.324  13.256   0.317 -0.6867 -0.2390 -0.9792
 3993SOL    HW223705   5.178  13.297   0.325 -0.5497  0.1709 -0.4544
 3994SOL     OW23706   8.950   1.547   1.713  0.2430 -0.1852  0.4537
 3994SOL    HW123707   8.987   1.480   1.770 -0.7371 -1.1678 -0.0210
 3994SOL    HW223708   8.861   1.561   1.746  0.1546  0.2868  0.0395
 3995SOL     OW23709  12.946  12.639   7.839  0.3161  0.3410  0.2193
 3995SOL    HW123710  12.989  12.627   7.755  1.3868  1.5152  0.5755
 3995SOL    HW223711  12.853  12.623   7.821  0.5722  0.2703 -1.1049
 3996SOL     OW23712   4.656   5.560  10.473 -0.2312 -0.1405 -0.1009
 3996SOL    HW123713   4.749   5.553  10.492 -0.4040 -2.2954  0.1773
 3996SOL    HW223714   4.613   5.548  10.558 -0.7688  1.6011 -0.0978
 3997SOL     OW23715   3.652   8.127   1.146 -0.7294 -0.6702 -0.0111
 3997SOL    HW123716   3.716   8.167   1.206 -1.8749  2.7528 -0.8383
 3997SOL    HW223717   3.586   8.089   1.204 -0.7458  0.7154  0.9243
 3998SOL     OW23718   7.325   5.434   1.244  0.5591  0.3642  0.2473
 3998SOL    HW123719   7.406   5.438   1.192 -0.1547 -2.2168 -1.2225
 3998SOL    HW223720   7.351   5.391   1.325  0.5978 -1.0245 -0.4748
 3999SOL     OW23721   7.852   5.920   9.687  0.2266 -0.0996 -0.2340
 3999SOL    HW123722   7.868   6.012   9.705 -2.2166  0.2410  0.5970
 3999SOL    HW223723   7.863   5.912   9.592 -0.8277  1.3695 -0.5137
 4000SOL     OW23724  13.275   3.533   1.574  0.1957 -0.5522  0.0859
 4000SOL    HW123725  13.250   3.605   1.632  0.3750  0.1988 -0.7497
 4000SOL    HW223726  13.212   3.464   1.592 -1.3341  0.6139 -0.6501
 4001SOL     OW23727   6.142  11.835   1.663  0.3631 -0.1036 -0.8678
 4001SOL    HW123728   6.230  11.800   1.679  0.2238 -0.0023  0.2374
 4001SOL    HW223729   6.126  11.821   1.570  1.8807  0.6239 -1.2697
 4002SOL     OW23730   0.715  10.000  12.656 -0.1007 -0.0105  0.0090
 4002SOL    HW123731   0.661   9.998  12.578  0.3207  0.5796 -0.3087
 4002SOL    HW223732   0.685  10.077  12.704 -0.5236 -0.5070  0.5526
 4003SOL     OW23733   4.212  12.740   7.478  0.0321  0.5052 -0.0344
 4003SOL    HW123734   4.228  12.652   7.445 -0.3065  0.2532  0.4657
 4003SOL    HW223735   4.207  12.730   7.573  1.9498  1.3596  0.2180
 4004SOL     OW23736  10.408   2.289   6.870 -0.1805  0.2348 -0.0164
 4004SOL    HW123737  10.346   2.273   6.799  1.0827  1.2771 -1.4128
 4004SOL    HW223738  10.353   2.315   6.944 -1.4298  4.3945 -2.0622
 4005SOL     OW23739  13.697   8.149   4.124  1.0459  0.0155  0.4212
 4005SOL    HW123740  13.689   8.219   4.189 -2.6675  0.0455  0.1863
 4005SOL    HW223741  13.673   8.191   4.041 -1.9458 -1.4882  0.3785
 4006SOL     OW23742  11.245  10.061   8.686 -0.0307 -0.0790  0.2244
 4006SOL    HW123743  11.210   9.972   8.676 -2.4788  0.7554  0.7520
 4006SOL    HW223744  11.330  10.049   8.729  0.3199 -2.2154 -0.9274
 4007SOL     OW23745  11.378   4.818   0.357  0.1943  0.2581  0.0897
 4007SOL    HW123746  11.436   4.775   0.295  0.5485 -0.5453  0.9501
 4007SOL    HW223747  11.434   4.881   0.403 -0.0685  0.8585 -0.4007
 4008SOL     OW23748  11.369   1.964   7.676 -0.3595  0.5769  0.0311
 4008SOL    HW123749  11.381   2.059   7.684  0.6327  0.3164  2.7275
 4008SOL    HW223750  11.326   1.939   7.758 -1.2451 -1.2560 -0.9333
 4009SOL     OW23751   8.876  12.784  10.836 -0.7213  0.0790  0.0768
 4009SOL    HW123752   8.859  12.730  10.758  0.3061 -1.2385  0.7271
 4009SOL    HW223753   8.958  12.750  10.871 -1.5570  0.0979  2.2069
 4010SOL     OW23754  11.902   1.491   5.330 -0.5780  0.1361  0.1569
 4010SOL    HW123755  11.992   1.496   5.362 -0.6604 -0.7495  0.5676
 4010SOL    HW223756  11.887   1.398   5.314 -0.4129  0.5488 -2.9215
 4011SOL     OW23757   8.413   6.975   4.041  0.4531  0.3094  0.0342
 4011SOL    HW123758   8.450   6.890   4.063 -0.8413 -0.1202  0.6372
 4011SOL    HW223759   8.393   6.970   3.948  0.6214  0.0479  0.0124
 4012SOL     OW23760   5.733  10.252  12.475  0.5833 -0.1107 -0.0531
 4012SOL    HW123761   5.646  10.290  12.463  0.5761  0.7564  2.2929
 4012SOL    HW223762   5.780  10.316  12.529  2.1147 -1.3293  0.1275
 4013SOL     OW23763   7.047   2.500   4.080 -0.4170  0.4109 -0.2126
 4013SOL    HW123764   7.138   2.473   4.073 -0.9769 -1.2609 -1.7742
 4013SOL    HW223765   7.014   2.454   4.158  0.4448  2.3742  1.4021
 4014SOL     OW23766   4.230   0.112   1.051  0.3595  0.7689 -0.0425
 4014SOL    HW123767   4.181   0.038   1.014 -0.2866  0.6946  0.9128
 4014SOL    HW223768   4.316   0.075   1.071 -1.0543 -0.9624  4.0268
 4015SOL     OW23769   9.915   1.038   7.427  0.2231  0.1631  0.1398
 4015SOL    HW123770   9.908   1.064   7.519  3.0070 -0.8864  0.7601
 4015SOL    HW223771   9.883   0.947   7.425 -0.3095  0.3530 -0.0372
 4016SOL     OW23772   3.555   8.764   7.291 -0.0444 -0.0112  0.0935
 4016SOL    HW123773   3.583   8.850   7.321 -1.1323  1.0312 -1.7289
 4016SOL    HW223774   3.574   8.706   7.365  2.1356  1.4768  0.8147
 4017SOL     OW23775  11.382   3.702   0.268  0.3311 -0.6389  0.3643
 4017SOL    HW123776  11.299   3.675   0.228  0.3480  0.5593 -0.5581
 4017SOL    HW223777  11.446   3.696   0.197  0.7290 -0.1586  0.6758
 4018SOL     OW23778   1.035  12.606   4.398  0.1886 -0.0695  0.2875
 4018SOL    HW123779   1.002  12.634   4.484  0.2744  1.5630 -0.1966
 4018SOL    HW223780   0.970  12.542   4.368  0.4535 -1.1286  1.7936
 4019SOL     OW23781  13.600   8.615   9.162  0.2341 -0.1517  0.2713
 4019SOL    HW123782  13.584   8.647   9.073 -1.4924 -1.3084  0.1198
 4019SOL    HW223783  13.624   8.693   9.212  1.0146  0.5555 -1.1474
 4020SOL     OW23784   3.976   9.914   2.156  0.2656  0.1791 -0.5022
 4020SOL    HW123785   3.886   9.925   2.126 -0.0331  0.7947  0.5768
 4020SOL    HW223786   3.994   9.821   2.142 -0.0355  0.3296 -2.0427
 4021SOL     OW23787   8.418   9.338   4.582 -0.2183  0.3134 -0.1759
 4021SOL    HW123788   8.333   9.344   4.626 -0.1911  0.9321 -0.2018
 4021SOL    HW223789   8.474   9.292   4.645  0.0718  1.9779  0.8343
 4022SOL     OW23790  11.682   4.280   8.762  0.5670 -0.4620  0.2484
 4022SOL    HW123791  11.727   4.322   8.835 -0.6125  1.0502  0.1477
 4022SOL    HW223792  11.597   4.254   8.798  0.4157 -0.7231 -0.2869
 4023SOL     OW23793   2.474   0.236  11.823 -0.1489 -0.5174  0.1344
 4023SOL    HW123794   2.458   0.216  11.730 -0.1429  0.0631  0.0026
 4023SOL    HW223795   2.530   0.166  11.853 -1.3469 -1.5287  0.0832
 4024SOL     OW23796  11.450   8.195   3.925 -0.1750  0.0332  0.0848
 4024SOL    HW123797  11.518   8.131   3.904  1.4440  2.1569 -1.6047
 4024SOL    HW223798  11.463   8.213   4.018  0.3835 -0.8972  0.2056
 4025SOL     OW23799   0.197  11.992   1.246 -0.6973  0.1727  0.1038
 4025SOL    HW123800   0.225  12.059   1.183 -2.7976  2.1153  1.0877
 4025SOL    HW223801   0.190  11.912   1.195 -1.3135  1.4441 -1.9139
 4026SOL     OW23802   1.784   6.371  12.215 -0.3089 -0.1665 -0.0164
 4026SOL    HW123803   1.728   6.440  12.250  1.6000  0.6256  1.6398
 4026SOL    HW223804   1.771   6.297  12.274  0.6867  0.1777  0.6630
 4027SOL     OW23805  11.957  11.537   3.853 -0.3383  0.2053  0.8169
 4027SOL    HW123806  11.908  11.619   3.851  0.3447  0.6177  0.2638
 4027SOL    HW223807  11.892  11.469   3.838 -0.8387  0.6911  0.7801
 4028SOL     OW23808   3.787   3.488   4.325  0.1002  0.5060 -0.0972
 4028SOL    HW123809   3.697   3.467   4.347  0.1470 -0.6111 -0.8907
 4028SOL    HW223810   3.800   3.452   4.237  0.9134  1.8558 -0.5670
 4029SOL     OW23811   5.783   7.423  12.772  0.2017 -0.1470  0.2093
 4029SOL    HW123812   5.800   7.339  12.730  0.2398 -0.4228  0.7541
 4029SOL    HW223813   5.736   7.474  12.707 -0.3918 -0.8216  0.0940
 4030SOL     OW23814   4.638   9.685   6.475  0.2161  0.3055  0.1276
 4030SOL    HW123815   4.556   9.646   6.444  0.1381  0.1945  0.4753
 4030SOL    HW223816   4.706   9.645   6.419 -0.0964  1.5112 -1.1834
 4031SOL     OW23817   7.445   1.607   4.561 -0.3067  0.7358  0.2192
 4031SOL    HW123818   7.432   1.523   4.517 -0.0829  1.2128 -0.7749
 4031SOL    HW223819   7.536   1.606   4.589 -0.2058  0.7884 -0.1040
 4032SOL     OW23820   2.715   2.334  12.722 -0.0511 -0.0417 -0.6965
 4032SOL    HW123821   2.758   2.348  12.806 -0.2063  0.1098 -0.6436
 4032SOL    HW223822   2.675   2.248  12.730  1.3506 -0.7806 -1.2119
 4033SOL     OW23823   7.085   1.710   9.384  0.3733  0.1817  0.5001
 4033SOL    HW123824   7.017   1.700   9.317  1.1204 -2.0164  0.0106
 4033SOL    HW223825   7.160   1.746   9.337  0.1684  0.8813  0.6816
 4034SOL     OW23826   7.524   1.866   4.434 -0.0263 -0.0842 -0.4451
 4034SOL    HW123827   7.430   1.855   4.452  0.2077 -1.2384  0.1994
 4034SOL    HW223828   7.535   1.832   4.345 -0.2949  0.5222 -0.7141
 4035SOL     OW23829  10.301   0.046   4.210 -0.5519  0.3789  0.2824
 4035SOL    HW123830  10.217   0.081   4.179 -0.9046  0.1857  1.0055
 4035SOL    HW223831  10.329  -0.013   4.141 -0.3712  1.4176 -0.5662
 4036SOL     OW23832   5.412   0.167   2.624 -0.1261  0.0869 -0.2482
 4036SOL    HW123833   5.347   0.104   2.654 -0.1467 -0.0688 -0.6133
 4036SOL    HW223834   5.390   0.248   2.670  0.4072 -0.3739  0.8765
 4037SOL     OW23835   9.059   0.191  12.903  0.6490 -0.0453 -0.4274
 4037SOL    HW123836   9.098   0.265  12.856 -0.3570  0.2327 -0.8490
 4037SOL    HW223837   9.076   0.210  12.996  0.8710  0.4337 -0.5637
 4038SOL     OW23838   8.355   1.116   0.454  0.7338 -0.2188  0.1636
 4038SOL    HW123839   8.329   1.046   0.394  0.3483 -1.2005  1.4207
 4038SOL    HW223840   8.345   1.197   0.403 -0.2746 -0.9546 -0.8612
 4039SOL     OW23841  11.614   1.948  10.209 -0.2049 -0.0752 -0.0687
 4039SOL    HW123842  11.658   2.026  10.240  0.2495 -0.1330 -0.5414
 4039SOL    HW223843  11.654   1.930  10.123  0.6343 -1.5564  0.5838
 4040SOL     OW23844   3.104   5.784   6.562  0.3421 -0.4918  0.2654
 4040SOL    HW123845   3.083   5.876   6.545  0.0049  0.1615  3.5632
 4040SOL    HW223846   3.020   5.738   6.553 -0.5001  0.3487  2.9067
 4041SOL     OW23847   6.565   4.183   8.804 -0.3856 -0.0562  0.5877
 4041SOL    HW123848   6.518   4.257   8.840  0.3199 -0.0660  1.5515
 4041SOL    HW223849   6.555   4.192   8.709 -1.4893  0.4718  0.7423
 4042SOL     OW23850   2.071   2.055   5.858 -0.1978  0.3028 -0.5642
 4042SOL    HW123851   2.161   2.026   5.845 -0.4466 -0.8999  0.1231
 4042SOL    HW223852   2.073   2.150   5.847  0.9900  0.1983 -1.3591
 4043SOL     OW23853   8.546   4.531  10.619 -0.1550  0.7243 -0.1110
 4043SOL    HW123854   8.529   4.595  10.549 -0.9157  1.0503  0.3602
 4043SOL    HW223855   8.459   4.508  10.652 -0.0204 -1.6910 -1.2577
 4044SOL     OW23856   9.029  12.976   3.495  0.2498  0.6910  0.1727
 4044SOL    HW123857   9.091  12.991   3.566  1.5499  2.1748 -1.2029
 4044SOL    HW223858   9.073  12.915   3.436 -0.3260  0.4040  0.0309
 4045SOL     OW23859   3.892  11.031   9.938  0.2583  0.0753  0.1741
 4045SOL    HW123860   3.963  10.968   9.934  0.8143  0.7009  0.0264
 4045SOL    HW223861   3.889  11.059  10.029  0.2815  0.1378  0.1555
 4046SOL     OW23862   4.656   1.660   2.761 -0.3250 -0.4514 -0.1564
 4046SOL    HW123863   4.718   1.643   2.691 -0.9764  0.1791 -0.9118
 4046SOL    HW223864   4.708   1.701   2.830  0.3172 -1.0533 -0.2806
 4047SOL     OW23865  10.080   1.671  13.590  0.5374 -1.1774  0.4278
 4047SOL    HW123866  10.105   1.690  13.499  0.2634 -0.4655  0.4926
 4047SOL    HW223867  10.109   1.581  13.604  2.3053 -0.6844  0.2323
 4048SOL     OW23868  12.377   4.715   9.911 -0.3644  0.5286 -0.8416
 4048SOL    HW123869  12.283   4.734   9.910 -0.5514 -0.3300 -1.8117
 4048SOL    HW223870  12.416   4.790   9.957 -1.5750  0.5776  0.1767
 4049SOL     OW23871   0.358  12.214  11.294  0.0213  0.1726  0.8748
 4049SOL    HW123872   0.301  12.218  11.217 -0.1851 -3.0796  0.7068
 4049SOL    HW223873   0.410  12.294  11.290 -2.2261  1.6614 -0.8053
 4050SOL     OW23874   7.007   4.770   2.008 -0.0953 -0.2440 -0.4648
 4050SOL    HW123875   6.942   4.726   1.954 -0.2497 -0.2792 -0.2537
 4050SOL    HW223876   6.957   4.834   2.059 -0.1657 -1.1242  0.6174
 4051SOL     OW23877  11.011   2.814   5.962  0.0772 -0.5005  0.1396
 4051SOL    HW123878  10.991   2.899   6.000 -1.6375 -0.5568 -0.5208
 4051SOL    HW223879  11.047   2.763   6.034  0.5156  0.5732  0.7033
 4052SOL     OW23880   8.285   5.402  11.069 -0.2906 -0.3531  0.2585
 4052SOL    HW123881   8.299   5.376  10.978  2.0885 -0.7682  0.6808
 4052SOL    HW223882   8.361   5.368  11.116 -1.3576  0.0063  2.3981
 4053SOL     OW23883   9.978   7.519   5.254 -0.3170  0.8202 -0.3766
 4053SOL    HW123884   9.939   7.506   5.340  1.1713 -0.7496  0.1292
 4053SOL    HW223885  10.065   7.554   5.272  0.0894  0.2733 -1.2160
 4054SOL     OW23886   8.674   3.612   0.247  0.3389  0.0862  0.4813
 4054SOL    HW123887   8.663   3.529   0.294  2.4191  0.4256  1.7095
 4054SOL    HW223888   8.625   3.675   0.298 -2.0060 -0.4634 -0.9497
 4055SOL     OW23889  10.280  10.209   1.800  0.6479 -0.0385  0.3604
 4055SOL    HW123890  10.242  10.245   1.720 -0.5856  0.9583  1.3408
 4055SOL    HW223891  10.219  10.139   1.826 -0.6692  1.5782  1.9510
 4056SOL     OW23892   2.866   6.745   9.283  0.4572  0.3896 -0.0493
 4056SOL    HW123893   2.789   6.801   9.280 -0.3995 -0.7669 -0.3710
 4056SOL    HW223894   2.841   6.667   9.234  1.3239 -0.6366  1.0820
 4057SOL     OW23895   7.885   6.963   7.956 -0.0474 -0.7324  1.1275
 4057SOL    HW123896   7.831   7.030   7.999  0.0594 -0.4330  0.8010
 4057SOL    HW223897   7.923   7.008   7.881  0.9998 -0.8184  1.5828
 4058SOL     OW23898  13.420   1.910  11.956 -0.0195 -0.0390 -0.1980
 4058SOL    HW123899  13.429   1.839  11.892 -0.1540 -0.8795  0.6724
 4058SOL    HW223900  13.506   1.915  11.998  0.3809  1.2014 -1.1139
 4059SOL     OW23901  13.012   5.496  12.787  0.1827 -0.3085  0.6461
 4059SOL    HW123902  13.103   5.523  12.774  0.2209 -0.0241  1.4529
 4059SOL    HW223903  13.004   5.485  12.882 -1.7904  3.8347  1.1538
 4060SOL     OW23904   7.041   9.618   0.961  0.5530 -0.4326  0.2345
 4060SOL    HW123905   7.024   9.677   0.888 -0.7483 -1.1946 -0.0974
 4060SOL    HW223906   7.110   9.560   0.929 -0.7677 -1.4832 -0.8496
 4061SOL     OW23907   3.564   0.272   0.681  0.2923 -0.5016 -0.5736
 4061SOL    HW123908   3.519   0.221   0.747  0.1427 -0.6244 -0.7694
 4061SOL    HW223909   3.614   0.207   0.631  1.7509 -0.2337  0.4673
 4062SOL     OW23910   4.919  10.737   5.370  0.3426  0.0103 -1.0536
 4062SOL    HW123911   4.968  10.797   5.313 -0.3630  1.0662 -0.5783
 4062SOL    HW223912   4.834  10.780   5.383  0.4855 -0.1832  0.8023
 4063SOL     OW23913   5.925   3.249   0.331  0.3943  0.3987  0.1588
 4063SOL    HW123914   5.903   3.157   0.316  1.9106  0.1809 -0.9147
 4063SOL    HW223915   5.872   3.274   0.407 -2.6969 -0.3374 -1.5972
 4064SOL     OW23916   4.743  11.687   2.175 -0.6856 -0.1752 -1.0125
 4064SOL    HW123917   4.785  11.661   2.257 -1.4307 -1.0795 -0.8861
 4064SOL    HW223918   4.650  11.694   2.198 -0.9222 -0.6129 -1.8140
 4065SOL     OW23919   4.476   7.034   8.166  0.1956 -0.2873  0.5560
 4065SOL    HW123920   4.406   7.006   8.225  0.9163 -0.3572  1.4041
 4065SOL    HW223921   4.505   6.954   8.122  0.3698 -0.4095  0.8944
 4066SOL     OW23922   6.258   0.926   7.938 -0.0006 -0.0843 -0.3174
 4066SOL    HW123923   6.169   0.959   7.924 -0.8030 -2.3905 -1.1859
 4066SOL    HW223924   6.276   0.873   7.861  0.2904 -3.3077  1.7650
 4067SOL     OW23925   2.891   5.296   2.406 -0.1579  0.1482  0.4757
 4067SOL    HW123926   2.878   5.202   2.419 -0.9871  0.3835  1.4196
 4067SOL    HW223927   2.805   5.330   2.382  0.1245  0.6783  0.1908
 4068SOL     OW23928   3.501  12.823   5.540 -0.0167  0.3970  0.0679
 4068SOL    HW123929   3.520  12.731   5.557  0.8195  0.8133  1.5232
 4068SOL    HW223930   3.577  12.855   5.491 -1.0807 -0.0737 -1.9693
 4069SOL     OW23931   9.396   7.467   7.385  0.0521  0.2972  0.7512
 4069SOL    HW123932   9.373   7.376   7.365  1.9723  0.0244 -0.5074
 4069SOL    HW223933   9.402   7.470   7.480  1.1442 -1.2315  0.7602
 4070SOL     OW23934  10.868   6.174   6.885  0.0697 -0.0051 -0.0463
 4070SOL    HW123935  10.871   6.099   6.945  0.1578  0.9132  1.1487
 4070SOL    HW223936  10.776   6.178   6.857  0.2208 -1.0022 -0.7320
 4071SOL     OW23937   1.551  12.845   7.615  0.1463 -0.0354  0.3815
 4071SOL    HW123938   1.466  12.805   7.633 -0.7747  1.1976 -0.9790
 4071SOL    HW223939   1.566  12.828   7.522  0.9243  0.5805  0.3865
 4072SOL     OW23940  10.421   0.745  11.351  0.4780 -0.1966  0.5672
 4072SOL    HW123941  10.441   0.681  11.283 -0.5304  0.4396 -0.3699
 4072SOL    HW223942  10.477   0.820  11.330  0.7653 -0.3031  0.9388
 4073SOL     OW23943   0.138   0.530   8.365 -0.2515  0.4280  0.1908
 4073SOL    HW123944   0.147   0.446   8.319  0.9920  0.2565  0.6897
 4073SOL    HW223945   0.052   0.563   8.339 -0.8941 -1.1423  0.2150
 4074SOL     OW23946   7.158   0.201   4.539  0.1517 -0.3651  0.0012
 4074SOL    HW123947   7.168   0.223   4.447 -0.1320 -0.1243  0.0284
 4074SOL    HW223948   7.160   0.105   4.542 -2.2083 -0.4925 -0.5337
 4075SOL     OW23949   8.568   2.001  11.767 -0.4306  0.0810  0.3986
 4075SOL    HW123950   8.530   2.089  11.770 -2.3466 -0.6229 -1.0045
 4075SOL    HW223951   8.495   1.943  11.787  0.7088 -1.2290  0.9109
 4076SOL     OW23952   4.866  11.750   9.872 -0.2798 -0.0593  0.1396
 4076SOL    HW123953   4.824  11.810   9.810 -1.9826 -2.6375 -1.3784
 4076SOL    HW223954   4.908  11.684   9.817 -1.0838 -1.9469  1.6559
 4077SOL     OW23955   9.945   1.865  11.121 -0.2232 -0.5317  0.1423
 4077SOL    HW123956   9.890   1.861  11.042 -0.5863 -0.4773  0.3872
 4077SOL    HW223957   9.900   1.928  11.178  0.3352 -0.1496  0.1676
 4078SOL     OW23958  10.165  10.265   0.354 -0.2446  0.3112 -0.1559
 4078SOL    HW123959  10.182  10.240   0.264  1.0595  2.3035 -0.5302
 4078SOL    HW223960  10.132  10.185   0.396 -1.3616 -0.5360 -2.4744
 4079SOL     OW23961  11.303  10.127  12.382 -0.4956  0.1567  0.7746
 4079SOL    HW123962  11.298  10.094  12.471  0.6784 -0.7485  0.5375
 4079SOL    HW223963  11.350  10.210  12.389 -1.2318  0.5487  1.0981
 4080SOL     OW23964   2.444   1.493   5.637  0.4906 -0.1156 -0.1654
 4080SOL    HW123965   2.486   1.407   5.642  0.0022 -0.4259 -1.1401
 4080SOL    HW223966   2.516   1.554   5.621  0.9987 -0.1543  1.6875
 4081SOL     OW23967   3.345  12.806  11.394 -0.0346  0.0423 -1.1738
 4081SOL    HW123968   3.349  12.899  11.373  0.3011  0.7114  1.5182
 4081SOL    HW223969   3.264  12.775  11.354 -0.1794  1.4832 -2.0419
 4082SOL     OW23970   7.833  12.174   2.427 -0.0374  0.4273 -0.0813
 4082SOL    HW123971   7.805  12.259   2.460 -0.9695 -0.0663  0.4502
 4082SOL    HW223972   7.759  12.116   2.445  0.7235 -0.5737 -0.1033
 4083SOL     OW23973   6.389  10.682  10.775  0.4362 -0.0243 -0.2402
 4083SOL    HW123974   6.453  10.613  10.760  0.7730  0.1883  0.2071
 4083SOL    HW223975   6.308  10.636  10.795  0.6136 -0.2912 -0.1380
 4084SOL     OW23976   6.183   2.476   7.306 -0.1716 -0.6555  0.2403
 4084SOL    HW123977   6.117   2.416   7.271  0.3549  0.1969 -2.4116
 4084SOL    HW223978   6.258   2.466   7.247  0.0952  2.2177 -0.0274
 4085SOL     OW23979   6.691   4.243  10.540 -0.1783 -0.3661 -0.3702
 4085SOL    HW123980   6.641   4.312  10.582  2.3496  0.9325  0.7117
 4085SOL    HW223981   6.738   4.287  10.469  0.2675 -1.3041 -0.6707
 4086SOL     OW23982   4.694   2.623   0.498 -0.2380  0.3751 -0.0846
 4086SOL    HW123983   4.721   2.622   0.406 -0.3351 -3.1045 -0.1981
 4086SOL    HW223984   4.674   2.715   0.516  2.0008  1.5590 -2.8399
 4087SOL     OW23985  11.873   8.671   0.609  0.6433 -0.2385  0.0082
 4087SOL    HW123986  11.884   8.590   0.659 -2.0524  1.1164  3.1398
 4087SOL    HW223987  11.941   8.730   0.642 -0.8422  0.4993  1.8989
 4088SOL     OW23988   0.246   5.854   0.913  0.2703  0.3677  0.3655
 4088SOL    HW123989   0.191   5.806   0.850  0.0179  0.0700  0.8100
 4088SOL    HW223990   0.237   5.946   0.887 -1.6294  0.4984  1.3011
 4089SOL     OW23991   7.363  12.930   0.691  0.5665 -0.8104  0.3555
 4089SOL    HW123992   7.369  12.943   0.785  0.8554  0.2577  0.2029
 4089SOL    HW223993   7.453  12.916   0.662  0.5911 -0.1776  0.1136
 4090SOL     OW23994   1.236   4.769   0.520  0.0509 -0.0439  0.1234
 4090SOL    HW123995   1.316   4.773   0.468  0.1624  0.3015  0.3165
 4090SOL    HW223996   1.167   4.748   0.458  0.2298  0.0667 -0.1123
 4091SOL     OW23997   2.589  11.346   2.948  0.0157  0.0764 -0.4660
 4091SOL    HW123998   2.581  11.252   2.932  0.1715  0.0957 -0.6682
 4091SOL    HW223999   2.683  11.362   2.949  0.0530 -0.0356  1.2020
 4092SOL     OW24000  12.353   0.619  11.187  0.2339  0.2261 -0.8403
 4092SOL    HW124001  12.271   0.590  11.227 -1.7292  1.5531 -3.6210
 4092SOL    HW224002  12.362   0.710  11.213  1.3057 -0.1150  0.0769
 4093SOL     OW24003   4.075  10.973   0.100 -1.0888 -0.3418 -0.1452
 4093SOL    HW124004   4.148  10.915   0.118 -2.4108 -1.6961  1.1530
 4093SOL    HW224005   4.032  10.935   0.023 -0.2021  0.7252 -1.2066
 4094SOL     OW24006   5.165  12.553   0.738 -0.5166  0.0319 -0.1816
 4094SOL    HW124007   5.148  12.617   0.668  0.5563 -0.7924 -1.2477
 4094SOL    HW224008   5.261  12.551   0.746 -0.6223  0.1674  1.3982
 4095SOL     OW24009   7.575  11.231  11.309 -0.1148 -0.3643  0.1582
 4095SOL    HW124010   7.518  11.203  11.380 -1.2181  0.5077 -0.3526
 4095SOL    HW224011   7.543  11.318  11.285  2.1841  0.7084  0.6499
 4096SOL     OW24012   9.411   9.878   5.454  0.0486  0.7135 -0.0905
 4096SOL    HW124013   9.494   9.838   5.426 -0.7647 -0.4887 -0.8977
 4096SOL    HW224014   9.377   9.920   5.375 -0.6191  0.2518 -0.0578
 4097SOL     OW24015  10.727  13.218  12.833 -0.1644  0.2405  0.1110
 4097SOL    HW124016  10.676  13.288  12.873 -0.3353  0.0072  0.3018
 4097SOL    HW224017  10.672  13.139  12.842 -0.4141  0.2756 -1.0134
 4098SOL     OW24018  12.049   6.167   5.684 -0.7204  0.1081 -0.0071
 4098SOL    HW124019  12.001   6.204   5.759 -0.0512  1.9624 -0.4431
 4098SOL    HW224020  12.138   6.156   5.716 -0.4075  1.0127 -0.5430
 4099SOL     OW24021   7.372   0.283   8.264  0.0583  0.3318 -0.5612
 4099SOL    HW124022   7.382   0.244   8.351  0.6092  3.3873  0.8596
 4099SOL    HW224023   7.282   0.316   8.263 -0.1479 -0.2331 -1.4209
 4100SOL     OW24024   4.525  12.332   3.049  0.2971  0.0902 -0.2000
 4100SOL    HW124025   4.542  12.284   2.968 -1.5245  2.3236 -2.0846
 4100SOL    HW224026   4.438  12.304   3.076  0.4519  0.1451  0.3679
 4101SOL     OW24027  10.364  12.254   3.684  0.0463 -0.4070  0.2864
 4101SOL    HW124028  10.271  12.276   3.695 -0.0262 -0.5438 -0.0538
 4101SOL    HW224029  10.380  12.186   3.749 -0.6920 -2.1055 -1.2241
 4102SOL     OW24030   7.531   0.365   2.092  0.5821 -0.1841 -0.7427
 4102SOL    HW124031   7.578   0.372   2.175  0.3525 -0.9365 -0.5443
 4102SOL    HW224032   7.476   0.443   2.090  1.8785  0.7625 -1.0188
 4103SOL     OW24033   8.947   0.416   0.434  0.2739 -0.0170  0.8576
 4103SOL    HW124034   9.024   0.472   0.444  0.3770  0.0500 -0.1630
 4103SOL    HW224035   8.919   0.432   0.344 -0.1280 -1.0626  0.7957
 4104SOL     OW24036   0.068  12.373   8.505  0.0086 -0.1041  0.1966
 4104SOL    HW124037   0.100  12.316   8.435  1.7443 -0.4758  1.2400
 4104SOL    HW224038   0.085  12.461   8.473 -0.7183 -0.2104 -0.5223
 4105SOL     OW24039   6.744   4.238  12.830 -0.3261  0.5958  0.4250
 4105SOL    HW124040   6.805   4.297  12.874  1.5057 -1.7050  1.2081
 4105SOL    HW224041   6.742   4.268  12.739  0.8317  1.6209  0.7092
 4106SOL     OW24042   9.938   9.229   9.889  0.6898  0.3895  0.2973
 4106SOL    HW124043   9.941   9.134   9.903 -1.0259  0.1836 -0.5365
 4106SOL    HW224044   9.885   9.240   9.810 -0.6581  2.1161  1.3712
 4107SOL     OW24045   0.478   5.504   2.202  0.1100  0.5266  0.1772
 4107SOL    HW124046   0.565   5.538   2.182  0.8710 -0.9189  0.8497
 4107SOL    HW224047   0.455   5.544   2.285  0.2819  0.6547  0.1628
 4108SOL     OW24048   0.429   7.927   6.276 -0.0378  0.0216  0.3023
 4108SOL    HW124049   0.466   8.011   6.301  0.3820 -0.6557  2.1178
 4108SOL    HW224050   0.495   7.862   6.302 -1.1261 -0.9833  0.6621
 4109SOL     OW24051  12.385   8.996   5.093  0.7942 -0.0734  0.0661
 4109SOL    HW124052  12.299   9.002   5.051  0.5290 -1.0923  0.4371
 4109SOL    HW224053  12.382   8.914   5.143  1.4705  0.5710  1.2216
 4110SOL     OW24054  12.215  13.264   3.679 -0.0495 -0.0416 -0.0032
 4110SOL    HW124055  12.231  13.356   3.702 -0.7005  0.8133 -2.6534
 4110SOL    HW224056  12.143  13.267   3.617  0.6135 -2.2610 -0.9704
 4111SOL     OW24057   7.009   6.428   6.217 -0.4981  0.0509  0.2297
 4111SOL    HW124058   7.000   6.449   6.310  0.0138  0.4214  0.1969
 4111SOL    HW224059   7.101   6.403   6.207 -1.0326 -2.1964  0.2682
 4112SOL     OW24060   6.353   9.616   7.148 -0.4111 -0.0870 -0.0173
 4112SOL    HW124061   6.338   9.522   7.149 -0.3603 -0.1821  3.1252
 4112SOL    HW224062   6.265   9.655   7.152 -0.3986 -0.0553 -0.0495
 4113SOL     OW24063  10.720   6.625   7.779  0.0107  0.2564  0.4878
 4113SOL    HW124064  10.745   6.717   7.774  0.6133  0.0684 -0.2097
 4113SOL    HW224065  10.737   6.600   7.870  1.6665  0.3425  0.2275
 4114SOL     OW24066   3.709   7.546  10.001 -0.0070 -0.3788  0.7562
 4114SOL    HW124067   3.793   7.579   9.970 -0.0093 -0.4999  0.6137
 4114SOL    HW224068   3.651   7.556   9.925  0.4030 -2.2343  0.1499
 4115SOL     OW24069   9.648  10.101  10.382  0.1100 -0.0443 -0.1463
 4115SOL    HW124070   9.728  10.088  10.432 -0.1724  0.0987  0.3420
 4115SOL    HW224071   9.678  10.137  10.298  0.5782 -0.2640 -0.0755
 4116SOL     OW24072   7.231   3.351  11.282 -0.6980 -0.1841  0.0655
 4116SOL    HW124073   7.230   3.358  11.378  1.6112 -0.6124  0.1766
 4116SOL    HW224074   7.169   3.281  11.262 -0.3428 -0.8963  1.3558
 4117SOL     OW24075  12.514   7.685  12.942  0.4710  0.0859  0.5685
 4117SOL    HW124076  12.521   7.769  12.897  0.3882  0.3577  1.0592
 4117SOL    HW224077  12.581   7.690  13.011  0.9058 -0.5035  0.2002
 4118SOL     OW24078   3.670  11.455   9.317  0.9426  0.2725 -0.4859
 4118SOL    HW124079   3.760  11.450   9.348  0.8153  1.8176  0.2149
 4118SOL    HW224080   3.677  11.476   9.224  1.3522  2.6200  0.0097
 4119SOL     OW24081   7.398   1.662  10.850  0.8989  0.3248 -0.2299
 4119SOL    HW124082   7.478   1.618  10.822  0.2902 -0.6282 -0.5635
 4119SOL    HW224083   7.328   1.602  10.822  0.0466  1.4183 -0.4912
 4120SOL     OW24084  13.060   1.082   8.143  0.1681 -0.3191  0.1351
 4120SOL    HW124085  13.142   1.123   8.170  0.3056 -0.2354 -0.4019
 4120SOL    HW224086  13.006   1.083   8.222  0.0405  1.2086  0.0671
 4121SOL     OW24087   9.590  11.447  10.217  0.1536  0.1899  0.0197
 4121SOL    HW124088   9.683  11.440  10.195 -0.0919  0.0236 -1.0003
 4121SOL    HW224089   9.551  11.496  10.145 -0.8507 -1.2055 -0.4167
 4122SOL     OW24090   9.777  10.370   9.050  0.1497 -0.2193  0.6273
 4122SOL    HW124091   9.798  10.281   9.021  1.3643 -0.1637  1.2947
 4122SOL    HW224092   9.808  10.374   9.140 -3.9073 -0.5603  2.2736
 4123SOL     OW24093   6.067   2.278   3.115 -0.2101  0.0246 -0.1555
 4123SOL    HW124094   6.037   2.246   3.030 -0.4835  1.6935 -0.7267
 4123SOL    HW224095   6.000   2.341   3.142 -0.3218 -0.7776  1.5015
 4124SOL     OW24096  10.885   3.565  10.103  0.3425 -0.3028  0.5232
 4124SOL    HW124097  10.848   3.611  10.178  0.9593  0.8394  0.1492
 4124SOL    HW224098  10.874   3.626  10.030 -0.4169 -1.4686 -0.3648
 4125SOL     OW24099   5.536   2.950   9.963 -0.1617 -0.2691 -0.1357
 4125SOL    HW124100   5.452   2.985   9.991  0.3811 -0.2370  1.5589
 4125SOL    HW224101   5.583   3.026   9.926 -0.2208  0.0960  0.5287
 4126SOL     OW24102   6.709   3.307  13.354  0.2767 -0.3644 -0.0405
 4126SOL    HW124103   6.627   3.291  13.307 -0.6783 -1.0811  1.7518
 4126SOL    HW224104   6.683   3.358  13.430  1.2840 -1.6065  1.1934
 4127SOL     OW24105  13.635   0.588  12.062  0.0735 -0.3889  0.1314
 4127SOL    HW124106  13.695   0.663  12.067  0.5623 -0.7753  0.0987
 4127SOL    HW224107  13.549   0.626  12.079  0.5119 -0.1028  1.8439
 4128SOL     OW24108  11.978   2.608   4.134  0.1679  0.2286 -0.0980
 4128SOL    HW124109  12.002   2.581   4.046 -1.7041 -0.2694 -0.5146
 4128SOL    HW224110  12.009   2.698   4.142 -1.2292  0.9390 -1.9723
 4129SOL     OW24111   4.990   0.844   9.311  0.4006  0.4741  0.1251
 4129SOL    HW124112   4.979   0.792   9.231  0.1004  2.3048 -1.0655
 4129SOL    HW224113   5.084   0.847   9.326  0.3706 -2.5266  1.7270
 4130SOL     OW24114  12.830   3.200   4.978 -0.4575 -0.2332 -0.2213
 4130SOL    HW124115  12.783   3.266   4.926 -0.2650 -0.0582 -0.1726
 4130SOL    HW224116  12.794   3.209   5.066 -0.7871 -0.5328 -0.3194
 4131SOL     OW24117   9.332   4.229   5.362  0.8597  0.1031 -0.4611
 4131SOL    HW124118   9.358   4.300   5.304  1.4363 -0.2363 -0.6287
 4131SOL    HW224119   9.413   4.180   5.378  0.6091 -0.0974  0.2276
 4132SOL     OW24120  11.291   9.710   2.049  0.0278  0.1807 -0.0710
 4132SOL    HW124121  11.371   9.666   2.022  0.6043 -0.5976  2.5907
 4132SOL    HW224122  11.303   9.801   2.020  1.6265 -0.0414 -0.1936
 4133SOL     OW24123  13.335  12.978   8.756  0.0778  0.2394  0.0722
 4133SOL    HW124124  13.387  12.986   8.677 -1.0599  0.0516 -0.7149
 4133SOL    HW224125  13.244  12.975   8.726 -0.3108 -1.4813  1.2505
 4134SOL     OW24126  12.855   3.670   7.297 -0.0999 -0.3956  0.1804
 4134SOL    HW124127  12.836   3.649   7.389  1.5812 -0.2170  0.6139
 4134SOL    HW224128  12.899   3.592   7.263  0.0562 -0.1413 -0.2114
 4135SOL     OW24129   1.221   7.036   8.185  0.2857 -0.2181 -0.6261
 4135SOL    HW124130   1.130   7.018   8.208  0.4245  0.5013  0.5668
 4135SOL    HW224131   1.219   7.050   8.090 -1.2595  2.0154 -0.3650
 4136SOL     OW24132   6.005   0.135  13.216  0.4330  0.5473  0.7937
 4136SOL    HW124133   5.932   0.155  13.275 -0.1058 -0.8993  0.6503
 4136SOL    HW224134   5.992   0.193  13.141  0.5752  1.7067  1.6369
 4137SOL     OW24135   7.563   9.880   7.503 -0.4973 -0.7942  0.1288
 4137SOL    HW124136   7.520   9.856   7.421  1.2069 -0.2449 -1.0006
 4137SOL    HW224137   7.561   9.801   7.556 -0.5975 -1.5198 -0.9267
 4138SOL     OW24138   3.091   5.931   4.768  0.6027 -0.1169  0.5822
 4138SOL    HW124139   3.085   5.984   4.688  2.5628  0.2313  0.6265
 4138SOL    HW224140   3.057   5.989   4.837 -0.4751 -0.1829  0.1221
 4139SOL     OW24141   4.608   2.346   7.445 -0.2540 -0.1893 -0.6478
 4139SOL    HW124142   4.585   2.375   7.534  1.0619  0.8053 -0.6089
 4139SOL    HW224143   4.619   2.251   7.453 -0.7842 -0.1954  0.1039
 4140SOL     OW24144   6.052   5.979  11.531  0.4718  0.0612  0.2154
 4140SOL    HW124145   6.005   6.053  11.494 -0.4853 -0.6836 -0.0963
 4140SOL    HW224146   6.036   5.984  11.626  0.5129  0.3128  0.2083
 4141SOL     OW24147  12.506  13.308   3.021 -0.4526  0.0012  0.0090
 4141SOL    HW124148  12.532  13.257   3.097  1.5145  1.1182  0.1452
 4141SOL    HW224149  12.427  13.354   3.049  0.2327  0.3796  1.3856
 4142SOL     OW24150   4.530   5.908  10.579 -0.6640 -0.1918 -0.4551
 4142SOL    HW124151   4.526   5.951  10.493 -0.1338  0.6785 -0.0604
 4142SOL    HW224152   4.466   5.837  10.573 -1.5546  0.6325 -1.1483
 4143SOL     OW24153   4.574   1.459   0.404 -0.4803 -0.0752  0.2748
 4143SOL    HW124154   4.503   1.400   0.428 -0.1895 -0.6979 -0.3628
 4143SOL    HW224155   4.607   1.424   0.321 -1.0412  1.6237 -0.7113
 4144SOL     OW24156   9.512   7.294   9.967 -0.1692 -0.6143 -0.1371
 4144SOL    HW124157   9.565   7.343  10.029 -1.4025 -1.4795  1.6909
 4144SOL    HW224158   9.567   7.286   9.889  1.0414  1.3816  0.4438
 4145SOL     OW24159   7.059   5.659   8.218  0.0825 -0.2468  0.3199
 4145SOL    HW124160   7.096   5.671   8.131  0.9829  2.1282  0.9605
 4145SOL    HW224161   7.066   5.565   8.235  1.2518 -0.5383 -1.5579
 4146SOL     OW24162   6.773   2.033   6.634 -0.2009  0.0025 -0.1588
 4146SOL    HW124163   6.795   2.044   6.542 -0.6986 -1.1324 -0.4356
 4146SOL    HW224164   6.696   1.977   6.634 -1.6462  1.8813  0.8707
 4147SOL     OW24165   9.440   6.491   4.186 -0.0071  0.1435 -0.2423
 4147SOL    HW124166   9.482   6.573   4.160  0.9388  0.0333  0.8414
 4147SOL    HW224167   9.381   6.517   4.257  1.5476 -0.3189  1.2749
 4148SOL     OW24168   8.915   2.114   2.094 -0.3428  0.0273  0.4806
 4148SOL    HW124169   8.830   2.092   2.130 -0.0527 -1.3888  0.3493
 4148SOL    HW224170   8.962   2.030   2.088  0.2951  0.4578 -1.3941
 4149SOL     OW24171   7.139   5.152   9.231  0.2328 -0.6584 -0.1440
 4149SOL    HW124172   7.190   5.071   9.227 -0.4529 -1.2576  1.7715
 4149SOL    HW224173   7.108   5.155   9.322 -0.4907  1.3115 -0.4206
 4150SOL     OW24174   0.623   9.398   2.703  0.3087 -0.4702 -0.0859
 4150SOL    HW124175   0.583   9.411   2.617  0.0451 -0.0792  0.0941
 4150SOL    HW224176   0.683   9.472   2.712 -1.0489  0.5599  0.8605
 4151SOL     OW24177  13.457  13.404   2.504  0.3119  0.2608 -0.4031
 4151SOL    HW124178  13.466  13.328   2.561 -1.2441 -1.8846 -2.8495
 4151SOL    HW224179  13.429  13.474   2.563  1.0609 -1.2005  1.8195
 4152SOL     OW24180   9.211   9.582  13.058  0.0330  0.0816 -0.6675
 4152SOL    HW124181   9.166   9.539  12.986  0.7632 -0.2127 -0.9595
 4152SOL    HW224182   9.266   9.514  13.097 -0.5840  0.1571  0.3721
 4153SOL     OW24183   4.449  10.169   5.087 -0.0829  0.0241 -0.1881
 4153SOL    HW124184   4.512  10.215   5.032 -1.2217 -0.2248 -1.7588
 4153SOL    HW224185   4.403  10.239   5.133  2.3251  0.1761  2.2409
 4154SOL     OW24186   1.262   8.314   9.784 -0.1199  0.4427 -0.2945
 4154SOL    HW124187   1.352   8.333   9.812  0.4837  0.4979 -2.1349
 4154SOL    HW224188   1.218   8.283   9.863  1.1009  1.8240  0.9754
 4155SOL     OW24189   0.315   6.963   4.171  0.3956  0.8296 -0.2922
 4155SOL    HW124190   0.235   6.998   4.133 -0.5384 -1.1269 -0.2264
 4155SOL    HW224191   0.345   7.032   4.231 -1.8488  1.1568  0.5475
 4156SOL     OW24192   4.440   5.718  12.000 -0.2642  0.2805 -0.0542
 4156SOL    HW124193   4.498   5.654  12.041 -1.1198  0.2348  1.1139
 4156SOL    HW224194   4.352   5.681  12.008 -0.5427  0.6160 -1.2970
 4157SOL     OW24195   8.608   1.275   5.844 -0.5623 -0.3201  0.2515
 4157SOL    HW124196   8.648   1.339   5.786 -1.8992 -0.0533 -0.4250
 4157SOL    HW224197   8.644   1.295   5.931  1.2053 -0.5149 -0.4070
 4158SOL     OW24198  11.750  10.151   5.897  0.1740  0.7809  0.5497
 4158SOL    HW124199  11.763  10.188   5.984  0.9688  1.3182  0.2173
 4158SOL    HW224200  11.730  10.227   5.842  2.2376  0.8247 -0.2274
 4159SOL     OW24201  12.328   5.713   3.080  0.6375  0.0427  0.0253
 4159SOL    HW124202  12.416   5.745   3.058  1.3459 -0.6629  1.6748
 4159SOL    HW224203  12.343   5.637   3.137 -0.9510 -3.2091 -3.4317
 4160SOL     OW24204   4.876  10.943   8.385 -0.6963 -0.0626 -0.0945
 4160SOL    HW124205   4.853  10.888   8.310 -0.6832  0.7901 -0.7400
 4160SOL    HW224206   4.813  11.015   8.381  1.2256  1.6703 -1.1755
 4161SOL     OW24207   8.110   0.998  13.090 -0.0849 -0.3620 -0.4023
 4161SOL    HW124208   8.158   0.974  13.169  2.6472  1.0092 -1.5124
 4161SOL    HW224209   8.106   0.917  13.039  2.4253 -0.2459 -0.8873
 4162SOL     OW24210   5.284   0.063   8.063  0.0018  0.3855  0.1002
 4162SOL    HW124211   5.234   0.042   7.984  0.2137  0.0729  0.0471
 4162SOL    HW224212   5.336  -0.016   8.079  0.8417  0.8836 -0.1238
 4163SOL     OW24213  12.011   7.358   1.080 -0.5256 -0.1106  0.0209
 4163SOL    HW124214  12.016   7.391   0.991 -2.5039 -0.5588 -0.3085
 4163SOL    HW224215  11.982   7.267   1.070 -0.5877 -0.2251  1.1005
 4164SOL     OW24216   8.347   4.353  10.749 -0.0374  0.2801  0.5158
 4164SOL    HW124217   8.330   4.305  10.668 -0.7473 -0.5247  1.1152
 4164SOL    HW224218   8.403   4.295  10.800 -1.6046 -0.3417  1.6041
 4165SOL     OW24219   5.041   3.374   9.296  0.5814 -0.6358  0.3481
 4165SOL    HW124220   4.961   3.377   9.243  1.5803 -0.1538 -1.1855
 4165SOL    HW224221   5.048   3.283   9.324  0.6557 -1.1844 -1.3705
 4166SOL     OW24222   5.204  10.917  12.344  0.7367 -0.1788 -0.2682
 4166SOL    HW124223   5.264  10.981  12.383  0.9839 -1.0490  0.8444
 4166SOL    HW224224   5.119  10.938  12.383  0.9880 -1.0634  0.8145
 4167SOL     OW24225  12.878   7.314   5.028  0.1184  0.5997  0.5328
 4167SOL    HW124226  12.876   7.337   5.121 -0.0089  1.0559  0.4215
 4167SOL    HW224227  12.804   7.362   4.990 -0.0595  0.1205  0.2607
 4168SOL     OW24228  11.148   0.982   7.207 -0.3580 -0.7719 -0.3426
 4168SOL    HW124229  11.117   0.968   7.296 -2.8524 -0.3898 -1.0779
 4168SOL    HW224230  11.212   0.912   7.192 -0.3401 -1.1962  1.5359
 4169SOL     OW24231  13.447  13.011   0.749 -0.3232 -0.1855 -0.0624
 4169SOL    HW124232  13.472  13.099   0.720  1.0820 -1.0229 -1.5716
 4169SOL    HW224233  13.517  12.955   0.716 -1.2398 -1.8915  0.7995
 4170SOL     OW24234  12.932   2.200   0.457 -0.9613 -0.1403  0.0023
 4170SOL    HW124235  12.989   2.137   0.413 -2.0447 -1.2505  0.1368
 4170SOL    HW224236  12.931   2.276   0.399  1.4118  0.3275  0.4650
 4171SOL     OW24237   4.048   8.868   0.001 -0.1411  0.5709  0.4927
 4171SOL    HW124238   4.007   8.863   0.087  0.8242  1.1489  1.0024
 4171SOL    HW224239   4.086   8.781  -0.012  0.5078  0.7615  1.0669
 4172SOL     OW24240   5.427   9.486  13.732  1.0018 -0.4524  0.6528
 4172SOL    HW124241   5.337   9.455  13.720  0.7200  0.8461 -0.8915
 4172SOL    HW224242   5.437   9.491  13.827 -1.0214  0.5381  0.8853
 4173SOL     OW24243   1.345   6.492   9.183 -0.3075 -0.1438  0.3879
 4173SOL    HW124244   1.438   6.514   9.192 -0.2937 -0.9826  3.4342
 4173SOL    HW224245   1.334   6.469   9.091  2.4263  0.2700 -0.1132
 4174SOL     OW24246   4.682   6.731  11.364 -0.3791  0.0368 -0.0483
 4174SOL    HW124247   4.609   6.745  11.304 -0.1108  0.6620 -0.2321
 4174SOL    HW224248   4.694   6.636  11.365 -0.3553  0.0205 -1.0085
 4175SOL     OW24249   2.777   1.532   6.017 -0.2332  0.7963 -0.1647
 4175SOL    HW124250   2.751   1.623   6.007  0.2403  1.1022  1.1976
 4175SOL    HW224251   2.725   1.485   5.952  1.3915  2.3201 -2.7288
 4176SOL     OW24252  12.716  11.401  10.142  0.1187 -0.2895 -0.0654
 4176SOL    HW124253  12.750  11.485  10.172 -1.7941  0.0441  1.2914
 4176SOL    HW224254  12.769  11.381  10.065  0.9793  1.8780 -0.1186
 4177SOL     OW24255  11.224   4.758  10.704 -0.4808 -0.3630 -0.2071
 4177SOL    HW124256  11.173   4.796  10.775  0.4040 -1.6946  1.1897
 4177SOL    HW224257  11.293   4.707  10.747  1.3673  0.4377 -2.0044
 4178SOL     OW24258  10.039  13.621   3.209  0.5017  0.3329 -0.4257
 4178SOL    HW124259  10.124  13.647   3.172  0.1694  2.0152 -0.1102
 4178SOL    HW224260   9.975  13.672   3.159 -0.1767  0.4553  0.5424
 4179SOL     OW24261   3.773   4.452   0.916 -0.0398  0.2660 -0.4689
 4179SOL    HW124262   3.784   4.508   0.993  1.1927  1.6842 -1.6054
 4179SOL    HW224263   3.680   4.456   0.897 -0.0214  1.8296 -0.3914
 4180SOL     OW24264   2.777  10.257  11.089  0.6661 -0.2670 -0.3194
 4180SOL    HW124265   2.767  10.243  10.995 -1.5870  0.2275 -0.2122
 4180SOL    HW224266   2.726  10.187  11.130  1.3559 -0.2886  0.5391
 4181SOL     OW24267   8.069   1.781   9.867 -0.0143  0.1026  0.0901
 4181SOL    HW124268   8.143   1.778   9.807 -0.2055 -0.3338 -0.1312
 4181SOL    HW224269   8.106   1.764   9.953  0.2710  0.7871  0.1074
 4182SOL     OW24270   7.214   4.859   7.568 -0.0750  0.4881 -0.2185
 4182SOL    HW124271   7.190   4.943   7.606  0.2556  1.5770 -2.2867
 4182SOL    HW224272   7.286   4.827   7.622 -0.0551  1.6389  0.4479
 4183SOL     OW24273   8.432   6.922   2.236 -0.0737  0.3218 -0.2401
 4183SOL    HW124274   8.405   6.832   2.218  1.6787  0.2347 -2.9923
 4183SOL    HW224275   8.484   6.917   2.316 -1.9148 -0.6575  0.9600
 4184SOL     OW24276  13.611   4.875   6.165  0.1268 -0.0646 -0.3559
 4184SOL    HW124277  13.634   4.949   6.222 -0.5537 -0.0034 -0.1490
 4184SOL    HW224278  13.606   4.800   6.224  1.1670 -0.3575 -0.6219
 4185SOL     OW24279   9.997   6.165   3.144 -0.1727  0.3269 -0.5795
 4185SOL    HW124280  10.005   6.107   3.068  0.6362 -0.8854  0.3899
 4185SOL    HW224281  10.034   6.115   3.216 -3.6048  0.2335  1.2806
 4186SOL     OW24282  12.219   9.578   5.644 -0.0238  0.3723  0.2735
 4186SOL    HW124283  12.206   9.640   5.716 -0.2034  0.6481  0.0089
 4186SOL    HW224284  12.216   9.632   5.565 -1.5906 -0.1406 -0.0648
 4187SOL     OW24285   7.174   1.177   0.411 -0.0496  0.7776 -0.5012
 4187SOL    HW124286   7.188   1.084   0.429 -0.1128  0.5179 -1.7087
 4187SOL    HW224287   7.122   1.208   0.485 -1.8123 -0.6525 -1.0479
 4188SOL     OW24288  10.752  11.790  10.922  0.1099  0.2644  0.0040
 4188SOL    HW124289  10.760  11.700  10.952 -2.2948 -0.2305 -0.6410
 4188SOL    HW224290  10.764  11.785  10.827  0.1834  0.6515 -0.0087
 4189SOL     OW24291   0.249   6.541   5.164  0.3379 -0.1812 -0.8003
 4189SOL    HW124292   0.279   6.567   5.077  0.3936 -1.0449 -1.0512
 4189SOL    HW224293   0.329   6.520   5.212  0.3171  0.4488 -0.4843
 4190SOL     OW24294  12.783  10.694   2.065  0.1016 -0.0796 -0.0139
 4190SOL    HW124295  12.853  10.722   2.006  1.3688 -1.1819  0.8906
 4190SOL    HW224296  12.747  10.616   2.023 -0.5052  0.3957 -0.3982
 4191SOL     OW24297   0.480   0.659   0.803  0.2647  0.1728  0.1369
 4191SOL    HW124298   0.567   0.691   0.829  0.7965 -1.0924  0.0019
 4191SOL    HW224299   0.440   0.629   0.884 -0.0666  0.7962  0.2047
 4192SOL     OW24300   7.093   0.359   7.482 -0.1632 -0.5521  0.0408
 4192SOL    HW124301   7.084   0.443   7.437  2.5106 -0.5608 -0.6737
 4192SOL    HW224302   7.117   0.381   7.571  1.3185 -0.5043 -0.3439
 4193SOL     OW24303   1.851   9.174   3.968  0.1083 -0.4208  0.4933
 4193SOL    HW124304   1.917   9.239   3.987  0.4706 -0.3169 -0.9676
 4193SOL    HW224305   1.768   9.222   3.970  0.1578 -0.3683  1.4699
 4194SOL     OW24306  10.901  11.174   7.273 -0.0591 -0.2487 -1.0521
 4194SOL    HW124307  10.973  11.211   7.222  1.3481  1.1394  1.7614
 4194SOL    HW224308  10.897  11.082   7.246  1.9762 -0.0784 -2.1014
 4195SOL     OW24309   0.125   7.587   2.912  0.0584 -0.1737 -0.0200
 4195SOL    HW124310   0.126   7.666   2.858 -1.7227  0.9053  1.4014
 4195SOL    HW224311   0.062   7.530   2.869  0.2974 -0.2338 -0.2903
 4196SOL     OW24312  11.382  12.271   1.586  0.4438  0.3325 -0.1089
 4196SOL    HW124313  11.393  12.198   1.524  0.0543  0.3137 -0.1584
 4196SOL    HW224314  11.404  12.233   1.671 -1.1055 -0.2540  0.0803
 4197SOL     OW24315  13.188   6.244  10.358  0.3123  0.1783 -0.1785
 4197SOL    HW124316  13.229   6.184  10.420 -2.1784 -1.7486 -0.2302
 4197SOL    HW224317  13.214   6.211  10.272 -0.5042 -0.4322 -0.1983
 4198SOL     OW24318  10.144  13.259  10.160 -0.7900 -0.6624 -0.9987
 4198SOL    HW124319  10.064  13.262  10.211 -0.7295  0.0510 -0.9378
 4198SOL    HW224320  10.208  13.307  10.213 -0.3763 -1.0453 -1.1424
 4199SOL     OW24321   6.245  12.120   0.399 -0.1346  0.6996  0.5835
 4199SOL    HW124322   6.289  12.135   0.482  0.0862 -0.1366  0.6187
 4199SOL    HW224323   6.243  12.206   0.357  1.8234  0.7035  0.4274
 4200SOL     OW24324   8.345   9.279   7.783  0.8032  0.1037 -0.0677
 4200SOL    HW124325   8.323   9.203   7.837  2.6848  0.4709  1.3199
 4200SOL    HW224326   8.304   9.353   7.828  0.5033  0.1568 -0.4166
 4201SOL     OW24327   1.611   4.473   5.767 -0.2336 -0.5346 -0.0701
 4201SOL    HW124328   1.620   4.384   5.733 -1.6956 -0.4213 -0.7878
 4201SOL    HW224329   1.615   4.462   5.862  0.2187 -1.2779 -0.1616
 4202SOL     OW24330   4.368  12.589   7.746  0.1397 -0.2159 -0.1319
 4202SOL    HW124331   4.294  12.532   7.767  0.6190 -1.6860 -2.1629
 4202SOL    HW224332   4.384  12.574   7.653  0.5467  2.9964 -0.7101
 4203SOL     OW24333   9.498  11.832   1.454  0.0421  0.0770 -0.6558
 4203SOL    HW124334   9.558  11.820   1.380  0.2108  1.0282 -0.6834
 4203SOL    HW224335   9.415  11.795   1.423 -0.2368  1.5785 -1.8108
 4204SOL     OW24336   9.739   9.762   2.272 -0.0871  0.4121  0.1762
 4204SOL    HW124337   9.689   9.819   2.214  0.7996  0.6806 -0.3388
 4204SOL    HW224338   9.794   9.822   2.323 -0.5437  0.1468  1.0010
 4205SOL     OW24339   4.839   5.056  13.454  0.1835  0.3227 -0.2241
 4205SOL    HW124340   4.818   5.149  13.457  2.0257  0.7594  0.6179
 4205SOL    HW224341   4.854   5.032  13.546  1.0322 -0.4653 -0.5533
 4206SOL     OW24342  13.583   6.875   6.186  0.5147  0.0219  0.2046
 4206SOL    HW124343  13.542   6.951   6.227  0.4069  0.5081 -0.7670
 4206SOL    HW224344  13.521   6.804   6.200 -0.4805  0.6492 -0.8645
 4207SOL     OW24345  12.339   0.136   4.687  0.1368 -0.1749  0.1934
 4207SOL    HW124346  12.244   0.141   4.693  0.1588 -1.2374  2.8810
 4207SOL    HW224347  12.369   0.223   4.714 -0.0709  0.0064 -0.1586
 4208SOL     OW24348   2.800   4.322   4.923 -0.0632  0.4053  0.2058
 4208SOL    HW124349   2.772   4.392   4.864  0.7640 -1.0678 -2.0566
 4208SOL    HW224350   2.718   4.283   4.954 -0.5275  0.6232 -0.7083
 4209SOL     OW24351   8.583   9.100   0.266  0.0314 -0.2840  0.2650
 4209SOL    HW124352   8.578   9.144   0.181 -2.0736 -0.2932  0.3176
 4209SOL    HW224353   8.494   9.105   0.300  1.0593  0.8878  3.0873
 4210SOL     OW24354  13.282  12.431  10.336 -0.2703 -0.3290 -0.0120
 4210SOL    HW124355  13.316  12.422  10.247 -0.2160  0.7707 -0.1224
 4210SOL    HW224356  13.352  12.396  10.392 -0.4761 -1.4092 -0.4045
 4211SOL     OW24357   9.236   6.335   2.676 -0.1531  0.4942  0.1559
 4211SOL    HW124358   9.151   6.317   2.717  0.4856 -0.4723  1.1195
 4211SOL    HW224359   9.268   6.413   2.721 -1.5578  2.3577 -1.8861
 4212SOL     OW24360   3.988   2.729   0.125 -0.0422 -0.1402  0.1377
 4212SOL    HW124361   4.011   2.710   0.216 -1.1502  0.6762  0.6197
 4212SOL    HW224362   4.055   2.686   0.073 -0.2171 -1.8819  1.2886
 4213SOL     OW24363   7.142  13.171   5.622 -0.3432 -0.2919 -0.4294
 4213SOL    HW124364   7.075  13.114   5.661 -2.1614  1.2166 -1.1959
 4213SOL    HW224365   7.151  13.138   5.532  0.0668 -0.5823 -0.2842
 4214SOL     OW24366  11.676  12.468   2.612  0.6496  0.2905  0.3928
 4214SOL    HW124367  11.625  12.530   2.560  1.1396 -0.6344 -1.2464
 4214SOL    HW224368  11.634  12.383   2.596  1.6139 -0.2124  0.4410
 4215SOL     OW24369   7.970  13.282   8.826 -0.8007 -0.4687 -0.6198
 4215SOL    HW124370   7.966  13.323   8.912 -1.5303  1.4299 -1.5011
 4215SOL    HW224371   7.885  13.237   8.817  0.2522 -2.9338  0.6157
 4216SOL     OW24372   1.449  11.233   3.943 -0.0764  0.1362 -0.0034
 4216SOL    HW124373   1.484  11.308   3.895 -0.0834 -0.1433 -0.4486
 4216SOL    HW224374   1.388  11.192   3.882  1.0599 -1.1258 -0.3453
 4217SOL     OW24375  13.661  11.595   9.438  0.2000  0.4832  0.0891
 4217SOL    HW124376  13.613  11.512   9.434  1.0152 -0.0082  0.2431
 4217SOL    HW224377  13.622  11.649   9.369 -0.5053  0.0685  0.1533
 4218SOL     OW24378   6.276   0.899   5.465 -0.8372 -0.0722  0.3608
 4218SOL    HW124379   6.299   0.903   5.372 -0.6508  2.6927  0.4336
 4218SOL    HW224380   6.277   0.806   5.487 -1.4322 -0.8408 -2.5234
 4219SOL     OW24381  10.427   8.377   5.048 -0.5315 -0.2738 -0.4580
 4219SOL    HW124382  10.496   8.315   5.024 -1.2791 -0.6125 -1.8269
 4219SOL    HW224383  10.464   8.463   5.028  0.1348 -0.3275  0.4902
 4220SOL     OW24384   8.996   3.805   3.717  0.3721  0.1762 -0.0930
 4220SOL    HW124385   9.053   3.881   3.702 -1.1715  1.4404  0.2023
 4220SOL    HW224386   8.910   3.842   3.733 -0.4676 -1.6676 -0.0548
 4221SOL     OW24387   5.854  10.161   4.233  0.1899  0.1725  0.3281
 4221SOL    HW124388   5.898  10.218   4.170 -0.7384  1.1184  0.5094
 4221SOL    HW224389   5.897  10.076   4.223 -0.6252 -0.0107 -2.3207
 4222SOL     OW24390  10.348   9.416  13.114  0.5287  0.2546  0.0828
 4222SOL    HW124391  10.264   9.431  13.158  0.7039 -1.7325  1.2343
 4222SOL    HW224392  10.324   9.404  13.022 -0.3516  0.6009  0.2525
 4223SOL     OW24393   3.926   4.764   6.190  0.0519  0.4239 -0.7199
 4223SOL    HW124394   3.946   4.809   6.273  0.7137  0.6810 -1.0127
 4223SOL    HW224395   3.918   4.835   6.126  1.0808  0.1396 -1.1819
 4224SOL     OW24396  10.363   6.009  13.175  0.7837  0.1322  0.1648
 4224SOL    HW124397  10.279   5.998  13.129  1.7722  0.6266 -1.8526
 4224SOL    HW224398  10.339   6.050  13.259 -0.8519  1.7110 -0.9952
 4225SOL     OW24399  10.183   0.368  10.730 -0.1415  0.2121 -0.2499
 4225SOL    HW124400  10.092   0.342  10.723 -0.1463  0.1937 -0.1365
 4225SOL    HW224401  10.183   0.463  10.715 -0.5775  0.7590  2.6201
 4226SOL     OW24402   8.443   6.844   1.874  0.2383  0.4119  0.0924
 4226SOL    HW124403   8.386   6.916   1.848 -0.3703  0.2269  0.8784
 4226SOL    HW224404   8.426   6.776   1.809  0.3208  0.7342 -0.2681
 4227SOL     OW24405   3.022  13.353   2.248 -0.2407 -0.2963  0.6205
 4227SOL    HW124406   3.033  13.305   2.330  1.4414 -2.0444 -0.5191
 4227SOL    HW224407   2.968  13.295   2.194  1.8349 -1.0397 -0.7943
 4228SOL     OW24408   4.132   4.152   1.004  0.1450 -0.0332  0.2584
 4228SOL    HW124409   4.177   4.094   0.942  0.6983 -0.7116  1.2596
 4228SOL    HW224410   4.183   4.232   1.004  0.9030 -0.4986  0.7720
 4229SOL     OW24411   9.049   4.511  10.698 -0.6005 -0.0376  0.0811
 4229SOL    HW124412   9.055   4.588  10.641  0.1608 -0.0724  0.1047
 4229SOL    HW224413   9.001   4.447  10.646 -1.1196  0.4002  0.0092
 4230SOL     OW24414   9.237   2.214   1.379  0.3766  0.3958  0.0473
 4230SOL    HW124415   9.195   2.163   1.448 -0.5683  0.8559 -0.1679
 4230SOL    HW224416   9.189   2.191   1.300 -0.5484  2.1190  0.0628
 4231SOL     OW24417   2.280   2.976   5.275  0.2685 -0.5855 -0.2968
 4231SOL    HW124418   2.300   2.991   5.368  2.5824 -2.7192 -0.3535
 4231SOL    HW224419   2.298   2.883   5.261 -1.0748 -0.5601 -2.6641
 4232SOL     OW24420  11.075   0.889   1.906  0.0564  0.1407  0.1782
 4232SOL    HW124421  10.989   0.868   1.943  1.0358 -1.9866  1.4159
 4232SOL    HW224422  11.085   0.829   1.833  1.6069 -1.7034  1.8009
 4233SOL     OW24423   9.534  13.198  10.405  0.4933  0.4986  0.7386
 4233SOL    HW124424   9.446  13.205  10.368  0.3024  0.4679  1.1842
 4233SOL    HW224425   9.588  13.167  10.332  0.1327  0.4938  0.4694
 4234SOL     OW24426   3.728   3.461   0.096  0.4486  0.4294 -0.2175
 4234SOL    HW124427   3.804   3.437   0.043  0.7328 -2.2166  1.2341
 4234SOL    HW224428   3.671   3.384   0.092 -0.4245  0.9355  1.7008
 4235SOL     OW24429   3.860  11.683   5.863 -0.3824 -0.5378 -0.2343
 4235SOL    HW124430   3.935  11.740   5.847 -1.9799  1.1910 -2.1058
 4235SOL    HW224431   3.853  11.678   5.958  1.9570 -0.6543 -0.0057
 4236SOL     OW24432   5.532   2.133   7.132  0.2199  0.1140  0.2368
 4236SOL    HW124433   5.482   2.053   7.112  0.4045 -0.2737  1.2454
 4236SOL    HW224434   5.566   2.162   7.047 -1.6164  0.3426 -0.4792
 4237SOL     OW24435  12.157   8.951   4.938  0.1365  0.1204  0.8108
 4237SOL    HW124436  12.110   9.029   4.969  0.5695  0.6600  0.1266
 4237SOL    HW224437  12.180   8.971   4.847 -1.3361 -1.5270  0.0114
 4238SOL     OW24438   3.697  12.413  11.561  0.4791 -0.3829  0.2532
 4238SOL    HW124439   3.748  12.337  11.532  4.3289  1.5436  1.3732
 4238SOL    HW224440   3.706  12.476  11.489 -0.7102 -0.0766  0.3448
 4239SOL     OW24441  11.489  10.272   0.986 -0.7614 -0.3111  0.2213
 4239SOL    HW124442  11.483  10.362   1.016 -1.8106 -0.5639  0.8221
 4239SOL    HW224443  11.575  10.266   0.945 -0.9908  1.1634 -0.5301
 4240SOL     OW24444   3.257  12.275   5.236 -0.4820 -0.4211  0.6283
 4240SOL    HW124445   3.207  12.303   5.313 -1.6935 -0.6110 -0.0691
 4240SOL    HW224446   3.207  12.201   5.200  0.1777 -0.4715 -0.2263
 4241SOL     OW24447   6.217   1.469   3.907 -0.1132  0.4034 -0.0449
 4241SOL    HW124448   6.203   1.378   3.882 -1.3767  1.3013 -3.2023
 4241SOL    HW224449   6.286   1.499   3.848 -0.5274  1.7516  0.1183
 4242SOL     OW24450   6.597   8.638   9.890 -0.0730  0.1269 -0.3538
 4242SOL    HW124451   6.623   8.570   9.827 -0.3283  0.1851 -0.5270
 4242SOL    HW224452   6.658   8.710   9.875  0.8123 -0.4240  0.4920
 4243SOL     OW24453  12.338   8.250   6.417 -0.1461  0.2003 -0.3386
 4243SOL    HW124454  12.416   8.204   6.446 -0.6488  0.5881  1.8142
 4243SOL    HW224455  12.364   8.294   6.336  2.0089  0.6954  0.5598
 4244SOL     OW24456   9.937   6.860   0.342  0.0311 -0.1614  0.1170
 4244SOL    HW124457   9.878   6.799   0.298  0.7079 -1.3121  0.7738
 4244SOL    HW224458  10.023   6.818   0.338  0.2582  0.0885  1.7817
 4245SOL     OW24459   2.300   1.678   4.367  0.8346  0.7552  0.1608
 4245SOL    HW124460   2.375   1.656   4.422  1.1397  0.9096 -0.1931
 4245SOL    HW224461   2.317   1.633   4.284  0.0489 -0.0390  0.4081
 4246SOL     OW24462  12.900   0.969   3.662  0.0594 -0.1113 -0.1371
 4246SOL    HW124463  12.915   1.001   3.573 -0.7010 -1.1624 -0.6710
 4246SOL    HW224464  12.860   1.042   3.708  0.9734  0.6329 -0.4763
 4247SOL     OW24465   1.724  10.105  11.689 -0.0214  0.3658  0.0753
 4247SOL    HW124466   1.643  10.156  11.687 -0.5351 -0.4568 -0.8816
 4247SOL    HW224467   1.781  10.147  11.625  1.0023  1.9844  1.9390
 4248SOL     OW24468   3.479  12.805  10.257 -0.0026  0.2435  0.3194
 4248SOL    HW124469   3.541  12.878  10.254  2.0207 -1.3378  0.7131
 4248SOL    HW224470   3.496  12.756  10.176  0.3245 -1.0035  1.1145
 4249SOL     OW24471   7.087  12.721   5.046 -0.1723 -0.4020  0.5243
 4249SOL    HW124472   7.016  12.658   5.032  0.1241 -1.1146  2.0350
 4249SOL    HW224473   7.072  12.789   4.981 -1.3116 -1.3405 -0.2319
 4250SOL     OW24474  10.698   6.439   6.349 -0.1538  0.4872  0.2247
 4250SOL    HW124475  10.787   6.474   6.349 -0.4318  1.2665  1.4069
 4250SOL    HW224476  10.673   6.435   6.257  0.8049  1.0709 -0.0720
 4251SOL     OW24477   7.377   0.445  12.799 -0.2804  0.0335 -0.6689
 4251SOL    HW124478   7.409   0.470  12.886  0.5576 -0.8227 -0.7113
 4251SOL    HW224479   7.282   0.445  12.808 -0.2205  0.4105  0.1109
 4252SOL     OW24480   1.778   2.739  10.983  0.1158 -0.7277 -0.1876
 4252SOL    HW124481   1.789   2.656  11.029 -0.5480 -0.7562 -0.0718
 4252SOL    HW224482   1.692   2.732  10.942 -0.9630  0.7787  1.6730
 4253SOL     OW24483   6.548  13.033   3.395  0.1811  0.1336  0.2694
 4253SOL    HW124484   6.625  13.036   3.338 -0.5992 -0.2745 -0.8418
 4253SOL    HW224485   6.504  13.116   3.379 -0.4320 -0.2922 -0.3092
 4254SOL     OW24486   4.250   3.983  11.194  0.0191 -0.2638 -0.1029
 4254SOL    HW124487   4.321   3.935  11.152  0.4515  0.7737 -0.5897
 4254SOL    HW224488   4.220   4.045  11.127 -0.6530  0.0206  0.4430
 4255SOL     OW24489   4.009  11.161   4.960 -0.2834 -0.3090  0.0079
 4255SOL    HW124490   3.961  11.087   4.997 -0.7704 -0.4733 -0.9478
 4255SOL    HW224491   3.994  11.233   5.022 -1.2556 -0.5276  0.0334
 4256SOL     OW24492  12.670   8.921   4.410 -0.0329 -0.3873 -0.1862
 4256SOL    HW124493  12.638   8.841   4.450  1.2136 -1.4824 -1.2726
 4256SOL    HW224494  12.595   8.956   4.363 -0.5384 -1.0359  0.1282
 4257SOL     OW24495   5.325   2.043  12.692  0.1850 -0.2452 -0.1778
 4257SOL    HW124496   5.384   2.047  12.767 -0.4774 -1.4698  0.4365
 4257SOL    HW224497   5.256   2.107  12.712 -0.5869 -1.3408  0.8280
 4258SOL     OW24498   5.585  12.440   3.817 -0.1701  0.1288 -0.0462
 4258SOL    HW124499   5.581  12.524   3.771  0.7409  0.3788  0.3289
 4258SOL    HW224500   5.493  12.421   3.838 -0.2776  1.6551  1.0163
 4259SOL     OW24501   5.849  11.232   5.128  0.2305  0.6025 -0.7107
 4259SOL    HW124502   5.847  11.169   5.056 -1.4761  0.7005 -0.7949
 4259SOL    HW224503   5.909  11.301   5.098  0.2003  0.2244 -1.6875
 4260SOL     OW24504   6.330   9.403   3.625 -0.1672  0.2318 -0.2699
 4260SOL    HW124505   6.386   9.417   3.701  1.3723  0.3914 -1.3739
 4260SOL    HW224506   6.321   9.308   3.618 -0.2808  0.2171  0.0815
 4261SOL     OW24507   6.788  11.521  12.910  0.4360 -0.3330  0.3769
 4261SOL    HW124508   6.732  11.522  12.833 -2.2309  0.4902  2.1793
 4261SOL    HW224509   6.781  11.431  12.943  1.1203 -0.5322 -0.0010
 4262SOL     OW24510   9.286   0.829  10.734 -0.0168 -0.2043 -0.2623
 4262SOL    HW124511   9.257   0.887  10.804  0.7016  0.2156 -0.3034
 4262SOL    HW224512   9.238   0.858  10.657  1.1743  1.1145 -0.5507
 4263SOL     OW24513   5.138   1.590   1.062  0.6905  0.0699  0.4371
 4263SOL    HW124514   5.119   1.656   1.128  1.7356  1.3230 -0.4737
 4263SOL    HW224515   5.190   1.635   0.996  0.1551 -1.2850 -0.9846
 4264SOL     OW24516   3.731  11.395  13.515  0.2373 -0.0959  0.0534
 4264SOL    HW124517   3.724  11.387  13.610 -0.7219  1.6125  0.1706
 4264SOL    HW224518   3.643  11.378  13.483 -0.3677  2.9081 -0.1547
 4265SOL     OW24519   2.928   8.522  10.692  0.0670  0.2362 -0.0558
 4265SOL    HW124520   2.955   8.607  10.725  1.1857  0.0332 -0.3943
 4265SOL    HW224521   3.009   8.470  10.692  0.1209  0.1703 -2.9176
 4266SOL     OW24522   1.648   7.239   1.356 -0.2634 -0.3506  0.6590
 4266SOL    HW124523   1.669   7.150   1.328 -0.1387 -0.5645  1.4250
 4266SOL    HW224524   1.619   7.230   1.447 -0.1781  0.4022  0.7681
 4267SOL     OW24525   8.117  10.190   6.648  0.0047 -0.0780 -0.1773
 4267SOL    HW124526   8.092  10.187   6.555  1.0746 -2.1525 -0.4622
 4267SOL    HW224527   8.160  10.106   6.663  0.8076  0.6686  1.9488
 4268SOL     OW24528   4.939   5.915  12.603 -0.1132 -0.0328 -0.5979
 4268SOL    HW124529   4.858   5.878  12.637 -0.8229  1.0876 -0.9949
 4268SOL    HW224530   4.912   5.997  12.560  1.3918  1.0134  0.3493
 4269SOL     OW24531  10.997   6.348  12.705  0.1362 -0.3233 -0.2044
 4269SOL    HW124532  11.019   6.430  12.660 -1.1348  0.4539  0.5197
 4269SOL    HW224533  11.081   6.308  12.724  0.8773  1.5633  0.7776
 4270SOL     OW24534   2.189   3.413   1.278 -0.0129  0.0809 -0.0958
 4270SOL    HW124535   2.254   3.429   1.209 -0.6321 -1.4453 -1.0934
 4270SOL    HW224536   2.223   3.337   1.326 -0.6309 -0.1844 -0.0709
 4271SOL     OW24537   9.593   5.937  11.252  0.2279  0.3489  0.3097
 4271SOL    HW124538   9.586   5.978  11.339  0.8790 -1.2351  1.1434
 4271SOL    HW224539   9.685   5.946  11.229  0.4750 -1.0054  0.7077
 4272SOL     OW24540  12.194   9.579   3.211 -0.0090  0.3224 -0.2356
 4272SOL    HW124541  12.100   9.586   3.194  0.0112  1.1803 -0.0133
 4272SOL    HW224542  12.231   9.661   3.179  0.5859  0.2329  0.1982
 4273SOL     OW24543   4.157  11.982   4.880 -0.4583 -0.3401  0.8021
 4273SOL    HW124544   4.106  11.978   4.960  1.2596  0.5893  2.0304
 4273SOL    HW224545   4.219  11.909   4.887 -1.1349 -1.0457 -0.3294
 4274SOL     OW24546   3.345   0.542  12.985  0.6721  0.0081  0.1711
 4274SOL    HW124547   3.275   0.513  13.043  0.9144 -0.8340  0.0689
 4274SOL    HW224548   3.305   0.607  12.928  0.4143  0.8007  1.2217
 4275SOL     OW24549   4.454  13.172   8.657 -0.2457 -0.0800  0.2252
 4275SOL    HW124550   4.526  13.186   8.719  0.3121 -0.8312 -0.2421
 4275SOL    HW224551   4.463  13.245   8.594 -0.1395  0.0587  0.3999
 4276SOL     OW24552   0.948  12.039   0.225  0.3814  0.2760 -0.4601
 4276SOL    HW124553   0.866  11.993   0.207 -0.6015  0.6973  2.4171
 4276SOL    HW224554   0.921  12.129   0.242  1.8551  1.1349 -2.2769
 4277SOL     OW24555  11.598   6.811   8.307 -0.1656 -0.6910  0.5366
 4277SOL    HW124556  11.628   6.889   8.354  0.2261 -0.9106  0.6540
 4277SOL    HW224557  11.678   6.773   8.271 -0.0455 -2.2020  2.2540
 4278SOL     OW24558  11.307   1.554   1.307  0.7622  0.2282  0.2923
 4278SOL    HW124559  11.360   1.475   1.297  0.6952  0.1979  0.1757
 4278SOL    HW224560  11.358   1.609   1.367  0.1004 -0.5382  1.6168
 4279SOL     OW24561   5.224   4.940   8.417  0.1318  0.2120  0.4453
 4279SOL    HW124562   5.217   5.014   8.477  1.2224 -0.1291  1.0202
 4279SOL    HW224563   5.174   4.870   8.459 -1.5946  0.8313 -0.4925
 4280SOL     OW24564   3.902   4.323   8.734 -0.5895 -0.0808 -0.0953
 4280SOL    HW124565   3.863   4.262   8.672 -1.1029  0.0199  0.1236
 4280SOL    HW224566   3.950   4.267   8.796 -2.8856 -0.4942  1.4369
 4281SOL     OW24567   4.824   4.082  11.060 -0.0641 -0.5217 -0.1052
 4281SOL    HW124568   4.740   4.081  11.015 -0.1452  2.4279 -0.2350
 4281SOL    HW224569   4.889   4.062  10.993 -0.5285 -1.2243 -0.3521
 4282SOL     OW24570   1.921   2.238  12.504 -0.1044  0.1998  0.8143
 4282SOL    HW124571   1.971   2.255  12.424  1.5855 -2.0077  1.3237
 4282SOL    HW224572   1.980   2.261  12.575 -0.7595 -0.0490  1.4564
 4283SOL     OW24573   2.062   1.973  12.095  0.6981 -0.2879 -0.0834
 4283SOL    HW124574   2.147   1.994  12.056  0.1573  0.2525 -1.0052
 4283SOL    HW224575   2.056   2.030  12.171 -0.0770  1.8932 -1.6750
 4284SOL     OW24576   5.797   1.386  10.077 -0.6802 -0.1305 -0.8235
 4284SOL    HW124577   5.817   1.475  10.105  1.5365 -1.0070  0.6221
 4284SOL    HW224578   5.809   1.332  10.155 -2.8301 -1.6553 -1.4305
 4285SOL     OW24579   1.167   2.694   0.840  0.2205 -0.1973  0.1749
 4285SOL    HW124580   1.205   2.753   0.775  1.2620 -0.5200  0.4820
 4285SOL    HW224581   1.077   2.681   0.810  0.7367 -0.5095 -1.3333
 4286SOL     OW24582   7.873   2.709   2.089  0.0366  0.2386 -0.3574
 4286SOL    HW124583   7.800   2.770   2.098  0.3080  0.4460  0.5029
 4286SOL    HW224584   7.921   2.740   2.012 -0.2242  0.6905 -0.3411
 4287SOL     OW24585  10.927   8.248   2.799 -0.1750 -0.1937 -0.3233
 4287SOL    HW124586  10.997   8.209   2.852 -0.7119 -3.7098 -1.8820
 4287SOL    HW224587  10.967   8.263   2.713 -0.3483  1.5863 -0.1158
 4288SOL     OW24588  12.646   7.763   4.339  0.6480 -0.0419  0.0308
 4288SOL    HW124589  12.711   7.693   4.345  0.9388  0.0474 -1.6111
 4288SOL    HW224590  12.570   7.721   4.299  0.7064  0.4985 -0.6614
 4289SOL     OW24591  11.234  13.309   5.860 -0.3918 -0.1175  0.3657
 4289SOL    HW124592  11.315  13.349   5.890 -0.4551 -0.9866  1.7775
 4289SOL    HW224593  11.222  13.342   5.771  0.5878  1.3853  0.7687
 4290SOL     OW24594   6.903  11.595   9.138  0.1058 -0.1431  0.4127
 4290SOL    HW124595   6.949  11.523   9.096 -0.3407 -0.5603  0.6311
 4290SOL    HW224596   6.812  11.585   9.109 -0.5533 -1.3555  2.6471
 4291SOL     OW24597   0.905   4.215   4.822 -0.7036  0.7139 -0.1208
 4291SOL    HW124598   0.903   4.225   4.727 -0.8942  0.4727 -0.1440
 4291SOL    HW224599   0.980   4.267   4.851  1.8937 -2.3522 -0.7861
 4292SOL     OW24600   3.561   1.552   4.652  0.0873  0.6509  0.1981
 4292SOL    HW124601   3.559   1.457   4.637 -0.7371  0.7657 -0.5087
 4292SOL    HW224602   3.607   1.562   4.735  1.1726 -0.2909 -0.2579
 4293SOL     OW24603  10.603   9.756   6.772 -0.2105 -0.4093 -0.1765
 4293SOL    HW124604  10.694   9.755   6.804 -0.0172 -0.1315 -0.7061
 4293SOL    HW224605  10.593   9.843   6.732 -0.5473 -0.6302 -0.5755
 4294SOL     OW24606  12.147   7.117   9.024  0.9750  0.4475 -0.1119
 4294SOL    HW124607  12.141   7.070   8.941 -0.1099  0.3609  0.0103
 4294SOL    HW224608  12.115   7.055   9.090  1.5094  0.6335  0.3337
 4295SOL     OW24609   3.678   1.071  11.970  0.0115  0.1648 -0.0024
 4295SOL    HW124610   3.590   1.076  12.006  1.3653 -0.2106  3.8547
 4295SOL    HW224611   3.720   1.152  11.999  1.7116 -0.9418  0.7441
 4296SOL     OW24612   6.673  12.458   8.176  0.3365 -0.7201 -0.7007
 4296SOL    HW124613   6.637  12.443   8.263 -0.0827 -1.4902 -0.9904
 4296SOL    HW224614   6.668  12.372   8.133 -1.3867  0.0556 -2.1893
 4297SOL     OW24615  11.972  10.871  10.252  0.2777 -0.1409  0.3707
 4297SOL    HW124616  12.066  10.853  10.255 -0.1408 -2.6260  0.3242
 4297SOL    HW224617  11.954  10.888  10.160  0.6781  0.3664  0.3836
 4298SOL     OW24618   9.103   9.457  12.848 -0.1918  0.0595  0.0276
 4298SOL    HW124619   9.042   9.383  12.848 -1.4180  1.0435  0.1669
 4298SOL    HW224620   9.082   9.506  12.769  2.7215 -1.3607 -1.7943
 4299SOL     OW24621   2.357   7.591  10.039  0.4878  0.3298 -0.0514
 4299SOL    HW124622   2.385   7.682  10.027  1.9395 -0.0904  0.0106
 4299SOL    HW224623   2.374   7.572  10.131 -0.6684  0.2496  0.1662
 4300SOL     OW24624   4.344   4.758   0.154  0.1678 -0.1560 -0.4873
 4300SOL    HW124625   4.384   4.678   0.190  0.0338 -0.1958 -0.4240
 4300SOL    HW224626   4.417   4.808   0.119  0.6707  1.1109  2.1457
 4301SOL     OW24627   0.409   9.095   3.929  0.1563  0.0844  0.3109
 4301SOL    HW124628   0.403   9.000   3.924 -0.0751  0.1188 -0.0326
 4301SOL    HW224629   0.319   9.125   3.932  0.1805  0.3723 -1.0644
 4302SOL     OW24630   6.932  10.218   0.775 -0.2414  0.2645 -0.3630
 4302SOL    HW124631   6.876  10.155   0.820  0.7952  0.6497  1.5615
 4302SOL    HW224632   6.885  10.301   0.781 -0.8228  0.0251 -1.4068
 4303SOL     OW24633   6.725   6.378   1.744 -0.1887 -0.2449  0.3258
 4303SOL    HW124634   6.632   6.357   1.736 -0.0911 -0.4863 -0.2105
 4303SOL    HW224635   6.731   6.427   1.826 -0.5462 -1.5820  1.1844
 4304SOL     OW24636  13.665   1.414   8.397 -0.0520  0.7518 -0.1138
 4304SOL    HW124637  13.730   1.392   8.463 -1.7050  1.8562  2.0094
 4304SOL    HW224638  13.687   1.504   8.371  0.0723  0.6352 -0.4131
 4305SOL     OW24639   5.228   1.682  11.981  0.2451 -0.0443 -0.1641
 4305SOL    HW124640   5.312   1.663  12.024 -0.1175 -0.8652  0.2154
 4305SOL    HW224641   5.163   1.668  12.049 -0.2626 -0.3333 -0.6993
 4306SOL     OW24642   2.199   1.330   7.602 -0.1172 -0.2966  1.0857
 4306SOL    HW124643   2.259   1.357   7.672 -1.1078  0.2427  1.7662
 4306SOL    HW224644   2.114   1.321   7.647 -0.9207  0.7303 -0.1693
 4307SOL     OW24645   0.071   4.015   0.794 -0.1411 -0.0388  0.2958
 4307SOL    HW124646   0.094   3.979   0.879 -1.5481  1.0955  1.2091
 4307SOL    HW224647   0.064   3.939   0.737  0.3046 -0.8754  1.3165
 4308SOL     OW24648   8.436  13.738  10.205  0.9094  0.1755  0.4246
 4308SOL    HW124649   8.371  13.758  10.273  0.2313 -1.7486  0.3956
 4308SOL    HW224650   8.515  13.715  10.254  0.8466  0.1642  0.5216
 4309SOL     OW24651   2.444  10.472   6.101  0.1150  0.2467  0.0313
 4309SOL    HW124652   2.514  10.471   6.035 -0.2527 -0.0368 -0.3608
 4309SOL    HW224653   2.454  10.388   6.147 -0.1181  0.1010 -0.1851
 4310SOL     OW24654   1.120  12.181   0.468 -0.1584  0.1066  0.0186
 4310SOL    HW124655   1.082  12.255   0.516  2.2415  0.4293  1.6150
 4310SOL    HW224656   1.148  12.218   0.384  1.0399  1.0788  0.8140
 4311SOL     OW24657   0.191  13.205   0.413  0.1494  0.0393 -0.0912
 4311SOL    HW124658   0.153  13.272   0.355  0.2789 -0.6069 -0.9537
 4311SOL    HW224659   0.163  13.230   0.501 -0.7491  0.5913 -0.5218
 4312SOL     OW24660   2.187   2.741   0.648  0.1104  0.8060 -0.5301
 4312SOL    HW124661   2.147   2.824   0.622  0.2341  0.8219 -0.6722
 4312SOL    HW224662   2.144   2.719   0.730  0.1307  1.0499 -0.4517
 4313SOL     OW24663  13.185  13.304   3.574  0.0130 -0.4130  0.5441
 4313SOL    HW124664  13.277  13.285   3.557 -0.0515  0.6925 -1.3806
 4313SOL    HW224665  13.186  13.387   3.622  0.0917  2.1737 -3.3963
 4314SOL     OW24666   9.600  10.175   9.230  0.0146  0.1279 -0.2358
 4314SOL    HW124667   9.662  10.234   9.273 -1.1223  1.7064 -0.6770
 4314SOL    HW224668   9.564  10.122   9.302  0.8781  0.1119  0.1990
 4315SOL     OW24669   7.137   2.172  11.682 -0.0057  0.5706  0.5350
 4315SOL    HW124670   7.227   2.139  11.692  0.1709  0.6477 -0.6581
 4315SOL    HW224671   7.133   2.246  11.742  1.3701  1.7518 -0.7133
 4316SOL     OW24672   5.744  10.508   6.765  0.4598 -0.0916 -0.5874
 4316SOL    HW124673   5.838  10.505   6.783  0.6197  0.2893 -1.3510
 4316SOL    HW224674   5.727  10.430   6.713  0.5911  0.4860 -1.5189
 4317SOL     OW24675   9.803   7.476  13.496 -0.3453 -0.5110 -0.0041
 4317SOL    HW124676   9.761   7.544  13.444  1.0306  0.3176 -0.0566
 4317SOL    HW224677   9.807   7.512  13.585  1.2501 -0.0908 -0.2179
 4318SOL     OW24678   6.390   1.104  13.474 -0.2823  0.1129  0.2496
 4318SOL    HW124679   6.415   1.195  13.487  1.8836 -0.1437 -1.4836
 4318SOL    HW224680   6.453   1.054  13.526  0.2343 -0.4525 -0.8848
 4319SOL     OW24681   4.508  11.695  10.002 -0.2398  0.3597 -0.3806
 4319SOL    HW124682   4.448  11.770  10.008 -0.9364 -0.1965 -0.3178
 4319SOL    HW224683   4.451  11.618  10.003  0.5778 -0.3015  2.1559
 4320SOL     OW24684   0.829  11.972   2.976  0.7262 -0.6060  0.2608
 4320SOL    HW124685   0.826  12.045   3.037  0.3468 -1.5398  1.3879
 4320SOL    HW224686   0.889  11.909   3.016  1.6872 -0.5895 -1.0843
 4321SOL     OW24687   9.052   4.474   6.669 -1.0953  1.0810 -0.0807
 4321SOL    HW124688   8.990   4.407   6.639  1.0041 -1.0116 -0.0791
 4321SOL    HW224689   9.105   4.494   6.592 -0.5976  1.4370  0.3501
 4322SOL     OW24690  12.208   1.262   7.647  0.2082 -0.8482 -0.9200
 4322SOL    HW124691  12.289   1.247   7.597  0.3987  0.5647 -1.0794
 4322SOL    HW224692  12.232   1.239   7.737  2.3076  3.7743 -0.0279
 4323SOL     OW24693   8.721  13.528  10.685 -0.3050 -0.0765  0.2931
 4323SOL    HW124694   8.714  13.603  10.626  1.4301  0.6584  0.9352
 4323SOL    HW224695   8.692  13.561  10.770  1.6017  0.2959  0.8550
 4324SOL     OW24696   1.254   1.811   9.460  0.6610 -0.2297  0.3603
 4324SOL    HW124697   1.299   1.884   9.502 -0.6491 -0.2276  1.8775
 4324SOL    HW224698   1.322   1.745   9.448  1.4339  0.4429  0.9373
 4325SOL     OW24699  13.550   9.316   1.060  1.3579  0.4349 -0.1537
 4325SOL    HW124700  13.601   9.359   0.992  1.7419  0.7351  0.3203
 4325SOL    HW224701  13.612   9.257   1.104  0.7245 -1.0302 -1.1294
 4326SOL     OW24702  12.781  11.938   9.948  0.2795  0.6936  0.1738
 4326SOL    HW124703  12.769  11.969   9.858  2.6115 -1.6278 -1.0764
 4326SOL    HW224704  12.842  11.999   9.988  1.2163  0.3529 -0.7029
 4327SOL     OW24705  10.394  12.861   1.463  0.2342 -0.7763 -0.3780
 4327SOL    HW124706  10.334  12.926   1.427  0.4430 -0.6568 -0.5115
 4327SOL    HW224707  10.445  12.909   1.529 -1.2427 -1.3590  1.2649
 4328SOL     OW24708   9.315   1.543   0.260  0.0959  0.1441  0.0826
 4328SOL    HW124709   9.320   1.472   0.196 -0.4905 -1.2101  1.4728
 4328SOL    HW224710   9.304   1.622   0.207 -0.4987 -0.9360 -1.4878
 4329SOL     OW24711  11.383   6.102   2.645 -0.2003 -0.1251  0.4670
 4329SOL    HW124712  11.314   6.165   2.625 -1.1866 -0.9534  1.1302
 4329SOL    HW224713  11.347   6.018   2.615 -0.1058 -0.7950  2.1451
 4330SOL     OW24714   0.039   8.282   6.740 -0.4936 -0.0428  0.0681
 4330SOL    HW124715   0.104   8.257   6.675 -0.0142  0.7493  0.2230
 4330SOL    HW224716   0.084   8.346   6.796 -2.0183  2.3227 -1.2013
 4331SOL     OW24717   9.784   8.625  10.074 -0.0544  0.2670 -0.0913
 4331SOL    HW124718   9.812   8.572  10.000 -0.4779  0.2714 -0.2571
 4331SOL    HW224719   9.780   8.563  10.147  0.0258  0.1910 -0.1505
 4332SOL     OW24720   2.068   6.306   3.037 -0.2061 -0.1246 -0.3050
 4332SOL    HW124721   2.040   6.230   3.087 -0.7366  0.0353 -0.3511
 4332SOL    HW224722   1.998   6.319   2.972  0.1960  0.0089 -0.7165
 4333SOL     OW24723   2.271   4.134   5.939  0.3092 -0.1136 -0.6392
 4333SOL    HW124724   2.296   4.046   5.910 -0.5675  0.0640 -2.0166
 4333SOL    HW224725   2.298   4.191   5.867  1.7341  0.9041  0.6411
 4334SOL     OW24726  13.603  12.568   5.255  0.2897 -0.0404 -0.5113
 4334SOL    HW124727  13.673  12.568   5.320 -0.6313 -3.8274  0.6982
 4334SOL    HW224728  13.642  12.525   5.178  0.1538  0.6626 -0.9852
 4335SOL     OW24729  11.166   1.371   4.180  0.0320  0.0166  0.0064
 4335SOL    HW124730  11.183   1.410   4.266  0.2912 -0.8720  0.3692
 4335SOL    HW224731  11.109   1.297   4.198  0.1605 -0.2294 -0.5789
 4336SOL     OW24732  13.416   3.674   9.501 -0.4741 -0.6348  0.6911
 4336SOL    HW124733  13.476   3.714   9.563 -0.7708 -0.8391  1.1124
 4336SOL    HW224734  13.335   3.661   9.550 -2.1223  2.8613 -0.7079
 4337SOL     OW24735   7.546   4.418   1.596  0.0954  0.1541  1.0006
 4337SOL    HW124736   7.631   4.427   1.553 -1.2925  0.8090 -1.8010
 4337SOL    HW224737   7.541   4.325   1.620  1.7810  0.2168  1.7878
 4338SOL     OW24738   3.852   2.476   5.529 -0.0022  0.0547  0.4652
 4338SOL    HW124739   3.847   2.400   5.471 -0.9168 -0.8754  1.7106
 4338SOL    HW224740   3.887   2.441   5.611 -0.9883  0.8533  1.2467
 4339SOL     OW24741   7.142   9.816   2.722 -0.0192  0.3634 -0.0512
 4339SOL    HW124742   7.126   9.783   2.811 -1.3876  1.5179  0.1732
 4339SOL    HW224743   7.226   9.779   2.698 -0.7667 -2.0493  0.7412
 4340SOL     OW24744   2.574   6.979   5.638 -0.3601 -0.0277  0.6894
 4340SOL    HW124745   2.572   6.885   5.621  1.6968 -0.0401  0.2678
 4340SOL    HW224746   2.554   6.986   5.732  0.0194 -0.9299  0.8507
 4341SOL     OW24747  11.864   8.709   7.355  0.0920  0.0638  0.2414
 4341SOL    HW124748  11.954   8.710   7.386 -0.0513  1.3829  0.6771
 4341SOL    HW224749  11.811   8.694   7.433 -0.0295 -3.3876 -0.3283
 4342SOL     OW24750   4.942   6.576  12.646 -0.9015 -0.2512 -0.4251
 4342SOL    HW124751   4.986   6.532  12.574 -1.3876 -0.9025 -0.3368
 4342SOL    HW224752   5.000   6.648  12.670 -0.3206 -0.5600 -0.8904
 4343SOL     OW24753   4.191  10.575   4.398 -0.2835 -0.0530 -0.4982
 4343SOL    HW124754   4.156  10.619   4.475 -1.1715 -0.0540 -0.8843
 4343SOL    HW224755   4.230  10.645   4.345  1.6279 -0.2223  0.5814
 4344SOL     OW24756   3.101  13.077   7.138 -0.8437 -0.4291 -0.1159
 4344SOL    HW124757   3.185  13.042   7.169 -0.2069  0.2724 -0.9877
 4344SOL    HW224758   3.039  13.057   7.208  0.1573 -0.5251  0.7646
 4345SOL     OW24759  12.086   5.019   5.918  0.2396  0.4613 -0.0558
 4345SOL    HW124760  12.081   4.998   5.824  0.5273  0.8669 -0.1655
 4345SOL    HW224761  12.115   4.937   5.959  5.3529  1.4701 -0.9466
 4346SOL     OW24762   9.604   7.369   3.269  0.1969 -0.1623  0.0557
 4346SOL    HW124763   9.588   7.384   3.176 -0.5650  2.5965  0.5195
 4346SOL    HW224764   9.560   7.442   3.312  0.4137 -1.4389  2.6109
 4347SOL     OW24765   9.033  11.330   6.100 -0.4806 -0.4955 -0.4823
 4347SOL    HW124766   9.055  11.287   6.183 -0.0127  0.4324 -0.1084
 4347SOL    HW224767   9.090  11.406   6.097  0.0945 -0.9539 -2.0593
 4348SOL     OW24768  10.442   2.813   3.980  0.3831 -1.1971 -0.0567
 4348SOL    HW124769  10.363   2.759   3.981 -0.2813 -0.2604 -0.8952
 4348SOL    HW224770  10.418   2.890   3.930  1.0687  0.2562  1.7567
 4349SOL     OW24771   8.437   4.404   3.536  0.0509  0.4761 -0.6221
 4349SOL    HW124772   8.342   4.397   3.528  0.0987 -0.7212 -0.3339
 4349SOL    HW224773   8.458   4.348   3.610  1.1640 -0.7267 -1.8055
 4350SOL     OW24774   4.995   8.064  10.492  0.5513  0.2171 -0.0446
 4350SOL    HW124775   4.985   8.106  10.577  1.9273 -1.4508  1.0130
 4350SOL    HW224776   5.075   8.012  10.500 -0.2914 -1.4711 -1.7322
 4351SOL     OW24777  11.178   7.744   1.652 -1.0664  0.2289  0.3983
 4351SOL    HW124778  11.163   7.749   1.747 -1.4547  0.5818  0.3209
 4351SOL    HW224779  11.222   7.660   1.640  3.0517  2.0013  1.3992
 4352SOL     OW24780   7.778   0.804   9.653 -0.8027  0.4571  0.0542
 4352SOL    HW124781   7.714   0.874   9.663 -0.1808  1.1183 -0.4799
 4352SOL    HW224782   7.826   0.802   9.736 -0.9886  0.4995  0.1622
 4353SOL     OW24783   9.181   8.812   2.636  0.3010 -0.2546  0.3048
 4353SOL    HW124784   9.152   8.772   2.718  0.0328 -2.0142 -0.6139
 4353SOL    HW224785   9.268   8.775   2.620  0.6286  0.5714  0.1009
 4354SOL     OW24786  12.767  11.923   2.462  0.3821 -0.2223 -0.3190
 4354SOL    HW124787  12.782  11.839   2.418  1.8963 -0.6536  0.9307
 4354SOL    HW224788  12.855  11.951   2.489 -0.0934  1.7814 -0.7013
 4355SOL     OW24789   6.508   8.646  10.619  0.5858 -0.0026 -0.3029
 4355SOL    HW124790   6.529   8.720  10.561  1.4223 -0.5103 -0.6751
 4355SOL    HW224791   6.578   8.647  10.684 -0.1665  0.3618  0.5246
 4356SOL     OW24792   7.228   5.255   0.904 -0.0121  0.1007 -0.4525
 4356SOL    HW124793   7.217   5.270   0.998 -0.2280 -2.0950 -0.0726
 4356SOL    HW224794   7.147   5.290   0.865 -0.5117 -0.1535  0.3311
 4357SOL     OW24795   9.588   4.365   7.609  0.1101  0.1525  0.1955
 4357SOL    HW124796   9.508   4.330   7.571  0.2119 -0.1289  0.2354
 4357SOL    HW224797   9.560   4.441   7.659 -0.1314  0.0593  0.2025
 4358SOL     OW24798   9.903   2.414   4.809  0.4690 -0.0532  0.1111
 4358SOL    HW124799   9.883   2.400   4.716  0.1064  0.5350  0.0947
 4358SOL    HW224800   9.986   2.369   4.823  0.9246  0.5115 -0.6897
 4359SOL     OW24801  10.406   2.167   3.668  0.2139 -0.3117  0.1698
 4359SOL    HW124802  10.426   2.104   3.738 -1.3565  0.0552  0.9844
 4359SOL    HW224803  10.339   2.224   3.705 -1.2085 -0.5447 -1.8572
 4360SOL     OW24804   6.448  13.423   8.380  0.1093 -0.0332  0.4501
 4360SOL    HW124805   6.382  13.463   8.322 -2.2753 -0.8021  2.4346
 4360SOL    HW224806   6.524  13.480   8.372 -0.8020  1.0193 -1.8702
 4361SOL     OW24807   0.105   1.920   6.912 -0.3318  0.2812  0.3512
 4361SOL    HW124808   0.065   2.001   6.941  0.5412  0.9901 -0.3582
 4361SOL    HW224809   0.199   1.936   6.917 -0.1443 -0.8208  0.5683
 4362SOL     OW24810   8.728   7.923  13.125  0.5292 -0.0802 -0.2559
 4362SOL    HW124811   8.722   7.859  13.195  0.5315  1.3862  1.1558
 4362SOL    HW224812   8.682   7.883  13.051 -1.1243 -0.9206  1.1573
 4363SOL     OW24813   7.029  13.593  12.598 -0.0417  0.3529  0.1683
 4363SOL    HW124814   7.074  13.554  12.523  1.2120  0.0185  1.0590
 4363SOL    HW224815   7.068  13.679  12.607 -0.3958  0.5042  0.2646
 4364SOL     OW24816   9.974   1.975   6.404  0.2313  0.1234  0.5226
 4364SOL    HW124817   9.940   1.915   6.337 -0.3877  1.0380 -0.0112
 4364SOL    HW224818  10.065   1.987   6.380  0.1697 -0.0244  0.1953
 4365SOL     OW24819  13.419   2.693   9.426  0.1859 -0.4612  0.5877
 4365SOL    HW124820  13.479   2.762   9.455  0.3766 -1.3831  2.4806
 4365SOL    HW224821  13.332   2.727   9.446  0.3011 -0.9469  2.0266
 4366SOL     OW24822   0.043  12.960   0.426  0.8855  0.2639  0.7492
 4366SOL    HW124823   0.122  12.906   0.421  1.4099  1.0290  0.6137
 4366SOL    HW224824   0.075  13.049   0.433  0.0263  0.5760  0.8641
 4367SOL     OW24825  11.644   4.046   8.326 -0.5484  0.1053  0.4581
 4367SOL    HW124826  11.580   4.107   8.365  0.4436  0.3667  1.7454
 4367SOL    HW224827  11.721   4.053   8.383 -0.0111 -1.5365 -0.0274
 4368SOL     OW24828   0.150   6.484   9.205 -0.6056 -0.3788  0.0798
 4368SOL    HW124829   0.210   6.539   9.154 -0.4040 -0.2735  0.4287
 4368SOL    HW224830   0.159   6.397   9.166  1.3721 -0.8630  1.4439
 4369SOL     OW24831   5.830   6.905  12.643 -0.3143 -0.0017  0.4485
 4369SOL    HW124832   5.740   6.880  12.666 -0.1593 -0.1891  0.8563
 4369SOL    HW224833   5.882   6.827  12.663  0.0553  0.3742  0.9669
 4370SOL     OW24834   5.125   1.130   8.847  0.1830  0.2908 -0.0438
 4370SOL    HW124835   5.047   1.185   8.840 -0.0357  0.5369  3.0100
 4370SOL    HW224836   5.091   1.040   8.846  0.2575  0.2530 -2.1579
 4371SOL     OW24837  12.600   6.930   7.673 -0.3260  0.2019  0.1027
 4371SOL    HW124838  12.632   6.916   7.584 -1.0589  1.1961 -0.3319
 4371SOL    HW224839  12.667   6.985   7.715  0.0582 -0.3338  0.1970
 4372SOL     OW24840   0.152   4.687   9.511 -0.1060  0.3549  0.1959
 4372SOL    HW124841   0.101   4.692   9.431  0.3686  0.9431 -0.0783
 4372SOL    HW224842   0.127   4.765   9.561  1.1958  1.1723 -0.3660
 4373SOL     OW24843   5.332   9.709   6.550 -0.3480 -0.4446 -0.4209
 4373SOL    HW124844   5.331   9.750   6.463  0.5149  2.1195  0.6750
 4373SOL    HW224845   5.242   9.716   6.581 -0.5532 -0.9159 -0.9019
 4374SOL     OW24846   6.091   1.424  10.235 -0.4402  0.1920  0.2565
 4374SOL    HW124847   6.053   1.414  10.322  0.1314 -2.2976  0.2829
 4374SOL    HW224848   6.181   1.392  10.244 -0.1756  0.4908 -1.1077
 4375SOL     OW24849   3.508  11.456   2.371  0.7804  0.4551  0.0275
 4375SOL    HW124850   3.543  11.520   2.309  0.4672 -0.1557 -0.7934
 4375SOL    HW224851   3.438  11.411   2.323  1.7567 -1.2959  0.1644
 4376SOL     OW24852   6.315   9.067   3.420  0.4425  0.2006 -0.0343
 4376SOL    HW124853   6.260   9.062   3.342  1.5430 -0.3995 -0.7925
 4376SOL    HW224854   6.261   9.113   3.484 -0.7374  0.0978 -0.9214
 4377SOL     OW24855   5.842   7.312  12.424  0.1933 -0.3387 -0.5491
 4377SOL    HW124856   5.857   7.243  12.359 -0.6648 -2.4936  1.4016
 4377SOL    HW224857   5.893   7.386  12.392  2.5665 -2.3975 -1.9442
 4378SOL     OW24858   1.473  13.325   7.692 -0.1469  0.5410  0.3168
 4378SOL    HW124859   1.527  13.398   7.725  0.8606  0.2246 -0.5891
 4378SOL    HW224860   1.461  13.344   7.599  3.2486 -2.1995 -0.8918
 4379SOL     OW24861   7.692   8.468   9.840 -0.2120  0.0122  0.0806
 4379SOL    HW124862   7.672   8.561   9.829 -2.0475 -0.4319 -0.5962
 4379SOL    HW224863   7.784   8.467   9.867 -0.2881  2.0407  0.5882
 4380SOL     OW24864   8.667   1.881   1.637 -0.5780  0.7446 -0.1352
 4380SOL    HW124865   8.676   1.838   1.552  1.3447  0.1212  0.3291
 4380SOL    HW224866   8.723   1.959   1.630  0.4580  0.1230  0.8790
 4381SOL     OW24867   7.309   9.247  13.459 -0.6707 -0.2001 -0.4532
 4381SOL    HW124868   7.402   9.268  13.458  0.1078 -3.0927  0.9923
 4381SOL    HW224869   7.293   9.204  13.376 -0.6352 -0.0694 -0.5286
 4382SOL     OW24870   9.742   9.007   4.947 -0.1735  0.1740  0.0349
 4382SOL    HW124871   9.758   9.038   4.857 -1.7029  0.3232 -0.2176
 4382SOL    HW224872   9.694   9.079   4.988  2.1492  0.9254  1.6134
 4383SOL     OW24873   2.883   5.333  13.678  0.1900 -0.0610 -0.2349
 4383SOL    HW124874   2.844   5.309  13.593 -0.5351 -0.7314  0.2765
 4383SOL    HW224875   2.977   5.335  13.661  0.2626 -2.4327 -0.5623
 4384SOL     OW24876   3.858   3.096   1.271 -0.4585  0.4224  0.1600
 4384SOL    HW124877   3.947   3.079   1.241 -0.7676  1.8915 -1.7145
 4384SOL    HW224878   3.836   3.019   1.324  1.5221 -0.4665 -0.2257
 4385SOL     OW24879   8.095   8.959   8.778  0.5592  0.2898  0.8624
 4385SOL    HW124880   8.166   8.963   8.843 -0.2883 -0.1492  1.8345
 4385SOL    HW224881   8.017   8.982   8.827 -0.0162  0.5452 -0.1559
 4386SOL     OW24882  12.060   5.666  11.088 -0.2199 -0.0529 -0.1635
 4386SOL    HW124883  12.130   5.714  11.132  0.2357 -0.9084  0.0504
 4386SOL    HW224884  12.066   5.577  11.121 -1.5900 -0.0891  0.0672
 4387SOL     OW24885   3.618  11.017  10.542  0.2529 -0.2805 -0.0276
 4387SOL    HW124886   3.546  10.964  10.576  0.4065 -1.2167 -1.0978
 4387SOL    HW224887   3.601  11.105  10.577 -0.4675 -0.8325  1.1075
 4388SOL     OW24888   2.830  11.640  10.836  0.0797 -0.1767 -0.0570
 4388SOL    HW124889   2.810  11.710  10.773  0.6815  1.4406  1.4521
 4388SOL    HW224890   2.915  11.666  10.873 -0.3594 -0.9658  1.5699
 4389SOL     OW24891   3.337   2.243   6.326  0.1619 -0.1925 -0.2013
 4389SOL    HW124892   3.280   2.226   6.250  0.7922 -0.4713 -0.6172
 4389SOL    HW224893   3.423   2.210   6.299  0.3693 -0.3745  0.6725
 4390SOL     OW24894  10.465  10.255   7.562  0.0046  0.2481 -0.4606
 4390SOL    HW124895  10.553  10.218   7.554 -0.4926 -0.9656 -0.6220
 4390SOL    HW224896  10.414  10.207   7.496 -1.4942 -1.3722  1.7383
 4391SOL     OW24897   6.732   9.260   8.354 -0.1285 -0.1541 -0.2135
 4391SOL    HW124898   6.698   9.174   8.332  0.6017 -0.1113 -1.5851
 4391SOL    HW224899   6.827   9.251   8.350 -0.0436  0.9262 -1.3109
 4392SOL     OW24900  13.686   5.728   5.092  0.1016  0.3347 -0.1382
 4392SOL    HW124901  13.657   5.790   5.025  0.1817 -0.4049 -0.8765
 4392SOL    HW224902  13.765   5.767   5.129 -0.6758  1.3809  0.4576
 4393SOL     OW24903   5.193   8.878   7.048 -0.4222 -0.4430 -0.0910
 4393SOL    HW124904   5.171   8.805   6.991  2.2097 -0.4257 -1.2918
 4393SOL    HW224905   5.144   8.952   7.012 -0.0818 -0.7955 -1.3156
 4394SOL     OW24906  12.019   1.581   3.464 -0.0387  0.1073  0.1166
 4394SOL    HW124907  12.107   1.603   3.434 -1.0822  1.3210 -2.3971
 4394SOL    HW224908  12.007   1.490   3.435  0.5789 -0.3054  1.0880
 4395SOL     OW24909   7.281  13.376  13.513 -0.6138  0.4740 -0.3170
 4395SOL    HW124910   7.203  13.365  13.566 -0.4275  1.5478  0.2043
 4395SOL    HW224911   7.250  13.418  13.433 -0.6292  0.4953 -0.3004
 4396SOL     OW24912   1.329   3.505   2.804 -0.0891 -0.1870 -0.0208
 4396SOL    HW124913   1.423   3.492   2.821 -0.2332 -0.8199  0.3264
 4396SOL    HW224914   1.287   3.486   2.888 -0.6603 -1.6258 -0.5994
 4397SOL     OW24915   0.494  11.014   5.070  0.4159  0.5987 -0.4690
 4397SOL    HW124916   0.585  10.989   5.087  0.2637 -1.2650 -2.0284
 4397SOL    HW224917   0.480  10.994   4.977 -2.0213 -0.7420  0.0819
 4398SOL     OW24918   7.403   4.827   2.884 -0.0176 -0.2634 -0.1199
 4398SOL    HW124919   7.420   4.817   2.978  1.2966 -1.9163 -0.4831
 4398SOL    HW224920   7.307   4.823   2.877 -0.3336  2.2362  1.3271
 4399SOL     OW24921  11.137   7.238   4.704 -0.1335  0.0978 -0.0147
 4399SOL    HW124922  11.090   7.321   4.702 -1.8354 -0.8360 -0.7894
 4399SOL    HW224923  11.086   7.180   4.646  0.9745 -1.4992  0.5408
 4400SOL     OW24924   2.556   8.856  11.864  0.5362 -0.3959 -0.7244
 4400SOL    HW124925   2.627   8.831  11.804  1.7062  0.0233  0.4266
 4400SOL    HW224926   2.551   8.784  11.927  1.6445  0.6365  0.6277
 4401SOL     OW24927   3.446   5.302  11.875  0.1880  0.4142  0.4630
 4401SOL    HW124928   3.406   5.375  11.922 -1.0134  0.6796 -0.9216
 4401SOL    HW224929   3.391   5.227  11.896 -0.1736  0.4719 -0.2576
 4402SOL     OW24930   7.814  13.438   3.261  0.3525 -0.2388  0.1612
 4402SOL    HW124931   7.855  13.514   3.303  0.2547 -0.6574  1.0423
 4402SOL    HW224932   7.859  13.363   3.299  0.5483 -0.6210 -0.8184
 4403SOL     OW24933  13.741   7.402   8.721  0.2402  0.0952  0.4104
 4403SOL    HW124934  13.678   7.408   8.793 -0.6202  1.9076 -0.4311
 4403SOL    HW224935  13.787   7.486   8.722  0.1297  0.2077 -1.2003
 4404SOL     OW24936  12.538   6.214   8.839 -0.0521 -0.5169  0.1633
 4404SOL    HW124937  12.583   6.131   8.856 -0.5866 -0.7017  0.7328
 4404SOL    HW224938  12.601   6.281   8.863  0.7702 -0.7262 -1.2958
 4405SOL     OW24939   0.380   2.638   3.876  0.2576 -0.0435  0.4619
 4405SOL    HW124940   0.400   2.731   3.867  0.9813 -0.3514 -1.5208
 4405SOL    HW224941   0.303   2.624   3.822  0.3902 -0.6742  0.4280
 4406SOL     OW24942   2.784   9.232   0.600 -0.6339  0.1929  0.1303
 4406SOL    HW124943   2.790   9.284   0.680 -0.3043 -0.0548  0.2676
 4406SOL    HW224944   2.760   9.296   0.532 -0.8278  0.4176  0.4053
 4407SOL     OW24945  12.555   0.850  10.009 -0.4819  0.1866  0.3660
 4407SOL    HW124946  12.542   0.935  10.051  0.8807  0.8185 -0.4240
 4407SOL    HW224947  12.588   0.871   9.922 -0.3040 -1.1501  0.0932
 4408SOL     OW24948   1.688  12.336   7.194  0.2118 -0.0773  0.0962
 4408SOL    HW124949   1.631  12.266   7.225  2.2217 -2.2988 -0.8764
 4408SOL    HW224950   1.696  12.321   7.100 -0.6426  2.5914 -0.4988
 4409SOL     OW24951   6.228  11.314  12.870 -0.2950 -0.0511 -0.3354
 4409SOL    HW124952   6.171  11.244  12.901  0.0089  0.3511  1.2229
 4409SOL    HW224953   6.177  11.359  12.803 -1.6515  0.0454  0.7376
 4410SOL     OW24954  10.849   5.101   4.309  0.1028 -0.2121 -0.6717
 4410SOL    HW124955  10.894   5.169   4.358 -0.8335 -0.8458  1.2035
 4410SOL    HW224956  10.916   5.064   4.251  1.1320  0.9330 -0.2571
 4411SOL     OW24957   9.934   7.285   6.013  0.1997  0.7136  0.1486
 4411SOL    HW124958   9.879   7.308   5.938  0.5125 -2.2194 -1.1182
 4411SOL    HW224959  10.023   7.302   5.984  0.3790 -1.1317 -0.5261
 4412SOL     OW24960   7.220  12.531   8.136  0.3465 -0.2091  0.4120
 4412SOL    HW124961   7.186  12.544   8.048  1.8641 -0.5017 -0.2457
 4412SOL    HW224962   7.147  12.494   8.185 -0.7578  0.7042 -0.5001
 4413SOL     OW24963   7.850   0.526   4.951  0.0637 -0.0434  0.2094
 4413SOL    HW124964   7.781   0.472   4.910  0.5177 -0.6676  0.2483
 4413SOL    HW224965   7.932   0.487   4.920  0.4304  1.8506 -1.3679
 4414SOL     OW24966   7.293  12.144   5.261  0.3378  0.3553 -0.0620
 4414SOL    HW124967   7.215  12.176   5.305 -0.0880  1.0150 -1.2511
 4414SOL    HW224968   7.329  12.078   5.320 -0.4304  0.9180  1.0618
 4415SOL     OW24969   6.476   9.196   3.748 -0.0071  0.4898  0.2320
 4415SOL    HW124970   6.497   9.165   3.837  0.2205 -0.1842 -0.0451
 4415SOL    HW224971   6.557   9.234   3.716  0.8049 -1.8865 -0.7439
 4416SOL     OW24972   7.719  13.209   8.791 -0.1712  0.2454  0.1843
 4416SOL    HW124973   7.726  13.305   8.797 -0.0536  0.2971 -0.7079
 4416SOL    HW224974   7.626  13.191   8.802 -0.2594  0.5027 -0.1413
 4417SOL     OW24975   3.135  11.617   0.783  0.2935 -0.0950 -0.4487
 4417SOL    HW124976   3.210  11.634   0.725  0.6183 -2.1834 -0.7481
 4417SOL    HW224977   3.059  11.650   0.735  0.5919 -1.5112 -2.0059
 4418SOL     OW24978   3.541  10.908   1.003  0.0204 -0.3386 -0.0975
 4418SOL    HW124979   3.618  10.955   1.036  0.7243 -1.4111 -0.1731
 4418SOL    HW224980   3.524  10.841   1.070 -1.2658  0.3089  0.2499
 4419SOL     OW24981   9.113  13.385   7.172  0.4199 -0.0565  0.3918
 4419SOL    HW124982   9.051  13.452   7.143  0.1136  1.1370  3.4099
 4419SOL    HW224983   9.194  13.404   7.125 -0.4848  0.6269 -0.9299
 4420SOL     OW24984   8.644   4.897   9.101 -0.2181  0.3097 -0.0066
 4420SOL    HW124985   8.628   4.830   9.035 -0.8203  0.7072 -0.2646
 4420SOL    HW224986   8.740   4.906   9.103 -0.1519 -0.3100 -0.2077
 4421SOL     OW24987   0.504   0.429   6.635  0.1958 -0.0937 -0.3589
 4421SOL    HW124988   0.530   0.512   6.676 -1.3326  0.8382 -1.1733
 4421SOL    HW224989   0.408   0.432   6.636  0.1308 -1.5093 -1.1120
 4422SOL     OW24990  11.628   3.904  11.831  0.4900  0.8240  0.1773
 4422SOL    HW124991  11.705   3.919  11.776  1.1162  0.5943  0.9805
 4422SOL    HW224992  11.662   3.862  11.910 -0.3369  1.5285  0.9357
 4423SOL     OW24993  13.123  13.357   0.457 -0.0554 -0.3611 -0.9729
 4423SOL    HW124994  13.183  13.406   0.402  0.9105 -1.4400 -0.9053
 4423SOL    HW224995  13.059  13.320   0.396  0.4696 -0.7922 -1.2575
 4424SOL     OW24996   9.219   4.747  11.881  0.2931  0.7508 -0.2527
 4424SOL    HW124997   9.205   4.800  11.959 -0.6329  0.7903 -0.4373
 4424SOL    HW224998   9.262   4.805  11.819 -0.9416  1.3833 -0.5464
 4425SOL     OW24999  12.290   6.484   2.764  0.1481  0.0621 -0.5900
 4425SOL    HW125000  12.208   6.470   2.810 -1.2266 -1.5223 -3.2641
 4425SOL    HW225001  12.291   6.577   2.743 -1.1002  0.0601 -0.6975
 4426SOL     OW25002  13.276  10.225   6.770 -0.0494 -0.7707  0.3088
 4426SOL    HW125003  13.329  10.253   6.695 -0.0385 -1.2523  0.1300
 4426SOL    HW225004  13.335  10.229   6.844  0.1478 -0.9915  0.1650
 4427SOL     OW25005  13.500   1.180   9.417  0.8655 -0.3396  0.1489
 4427SOL    HW125006  13.511   1.250   9.481  0.0680  0.4671 -0.5731
 4427SOL    HW225007  13.409   1.152   9.427  0.5785  0.1334 -0.9394
 4428SOL     OW25008   2.360   5.838  13.357  0.5812  0.1294 -0.0082
 4428SOL    HW125009   2.277   5.855  13.313  1.2086  3.0131 -0.3079
 4428SOL    HW225010   2.409   5.784  13.295  0.5288  2.0794 -1.9091
 4429SOL     OW25011   7.915   5.861  11.234 -0.3209  0.3209  0.3660
 4429SOL    HW125012   7.992   5.876  11.290 -0.0122 -0.4969  0.1803
 4429SOL    HW225013   7.950   5.854  11.146 -0.4629 -1.1226  0.4049
 4430SOL     OW25014   2.735   1.767   6.548  0.2066  0.0581  0.1552
 4430SOL    HW125015   2.706   1.858   6.541  0.0618 -0.0976 -1.7216
 4430SOL    HW225016   2.830   1.773   6.553  0.2166  0.3025 -0.2944
 4431SOL     OW25017   4.818   1.786   9.722 -0.1039 -0.0588 -0.2833
 4431SOL    HW125018   4.730   1.750   9.706  0.6182 -2.5782  0.8967
 4431SOL    HW225019   4.865   1.769   9.640 -0.7901  1.8020 -1.1257
 4432SOL     OW25020   1.284   1.131   2.856  0.2329  0.0552 -0.3664
 4432SOL    HW125021   1.209   1.127   2.798  0.2361 -0.1706 -0.3564
 4432SOL    HW225022   1.247   1.152   2.942  0.0948 -0.7855 -0.2087
 4433SOL     OW25023  11.834   8.969   5.485  0.5495  0.2026 -0.2079
 4433SOL    HW125024  11.892   8.894   5.486  1.3428  0.5938 -3.5886
 4433SOL    HW225025  11.747   8.933   5.467  0.7108 -0.0037 -0.5719
 4434SOL     OW25026   0.006  10.113   5.616  0.0609  0.4020 -0.2183
 4434SOL    HW125027   0.088  10.161   5.628  0.3619 -0.2443  0.3916
 4434SOL    HW225028  -0.030  10.148   5.535  0.1656  1.7901  0.3140
 4435SOL     OW25029  10.791   2.267   1.171 -0.1938 -0.4442 -0.1996
 4435SOL    HW125030  10.813   2.266   1.078  1.5526  1.8248  0.0957
 4435SOL    HW225031  10.876   2.266   1.216 -0.9670 -0.1388  1.3509
 4436SOL     OW25032   3.190   4.120   7.673  0.1596 -0.2140 -0.1588
 4436SOL    HW125033   3.270   4.089   7.717 -0.0791 -2.2624 -1.0829
 4436SOL    HW225034   3.207   4.105   7.580 -1.8060 -2.0255 -0.2898
 4437SOL     OW25035  11.718   6.178  12.637  0.1922  0.4971 -0.0667
 4437SOL    HW125036  11.742   6.142  12.722 -2.8262 -2.2641 -0.1749
 4437SOL    HW225037  11.671   6.258  12.657 -0.1745  0.0670  0.8744
 4438SOL     OW25038   8.331  13.594  10.906 -0.4483  0.0516 -0.5754
 4438SOL    HW125039   8.331  13.506  10.869 -1.6920  0.4671 -1.6628
 4438SOL    HW225040   8.390  13.589  10.981 -1.2464 -1.9597 -0.0223
 4439SOL     OW25041   2.658   2.901   1.704  0.0857 -0.5237  0.0180
 4439SOL    HW125042   2.579   2.955   1.711  0.8689  1.1846 -2.7674
 4439SOL    HW225043   2.626   2.814   1.682 -1.1047 -0.6505  2.0242
 4440SOL     OW25044   8.838  11.565  10.321  0.0443  0.7018  0.0911
 4440SOL    HW125045   8.883  11.510  10.257 -1.0730 -0.9536  0.6471
 4440SOL    HW225046   8.864  11.530  10.406 -0.0052  1.6102  0.4931
 4441SOL     OW25047   7.892   1.137   1.755 -0.0125 -0.1523  0.4112
 4441SOL    HW125048   7.854   1.197   1.819  0.4429 -0.3548  0.8853
 4441SOL    HW225049   7.957   1.087   1.805  1.6090  0.8596 -0.5637
 4442SOL     OW25050   6.483  10.299   4.547 -0.3537 -0.1557 -0.6994
 4442SOL    HW125051   6.389  10.318   4.543 -0.0788  1.1641 -1.5310
 4442SOL    HW225052   6.495  10.222   4.492 -0.8739  0.0206 -1.0690
 4443SOL     OW25053  10.962   8.683  10.751  0.4047  0.1624 -0.6582
 4443SOL    HW125054  10.969   8.615  10.684 -2.1291  0.3574 -1.2171
 4443SOL    HW225055  10.890   8.655  10.807  1.6655  0.6473  1.2672
 4444SOL     OW25056   6.422   3.096   5.338 -0.4257  0.2414  0.2583
 4444SOL    HW125057   6.446   3.029   5.274 -0.8121  0.0240  0.3375
 4444SOL    HW225058   6.330   3.115   5.319 -0.1069  1.3353 -0.2845
 4445SOL     OW25059   6.913   2.722  10.949  0.8774 -0.2402  0.3915
 4445SOL    HW125060   6.849   2.657  10.979  1.9828 -1.2878  0.5559
 4445SOL    HW225061   6.959   2.749  11.028 -0.4127  1.7428  0.5226
 4446SOL     OW25062   2.825   0.334   9.375  0.7423 -0.0065 -0.1181
 4446SOL    HW125063   2.770   0.330   9.298  1.0013  0.2701 -0.3201
 4446SOL    HW225064   2.907   0.374   9.345  0.6696  0.5454  0.3987
 4447SOL     OW25065  11.539   2.679   6.821  0.4502 -0.5053  0.8152
 4447SOL    HW125066  11.553   2.713   6.732  0.9716 -0.8007  0.7767
 4447SOL    HW225067  11.455   2.716   6.848 -0.2065 -1.1726 -0.1809
 4448SOL     OW25068  13.042  13.187   9.995  0.3330  0.4044  0.3423
 4448SOL    HW125069  12.952  13.155   9.983 -0.4557  2.6303 -0.1071
 4448SOL    HW225070  13.042  13.225  10.082  0.4492  1.5274 -0.1311
 4449SOL     OW25071   1.638   7.208   4.121 -0.0119 -0.2921  0.5830
 4449SOL    HW125072   1.650   7.303   4.122 -1.9899  0.0930 -1.9217
 4449SOL    HW225073   1.555   7.194   4.167 -0.5982 -0.5734 -0.5186
 4450SOL     OW25074   9.357  13.044   2.933  0.0423  0.3662  0.2069
 4450SOL    HW125075   9.359  13.138   2.951 -0.4729  0.7492 -1.6057
 4450SOL    HW225076   9.420  13.031   2.862 -1.0344 -0.3999 -0.6312
 4451SOL     OW25077   6.964   3.413   8.298 -0.2958 -0.3402  0.5886
 4451SOL    HW125078   6.929   3.392   8.384  1.3185  0.2643  1.4264
 4451SOL    HW225079   7.037   3.473   8.315 -0.4929  0.4868 -1.2597
 4452SOL     OW25080  13.509   0.306   6.547  0.4638  0.0871 -0.1610
 4452SOL    HW125081  13.603   0.309   6.528  0.4670 -2.7174 -1.0333
 4452SOL    HW225082  13.467   0.321   6.463  0.1169  0.9274  0.1531
 4453SOL     OW25083   5.654  10.212   2.929 -0.1756  0.6613 -0.0982
 4453SOL    HW125084   5.577  10.239   2.979 -0.7768 -1.3577  0.1263
 4453SOL    HW225085   5.641  10.119   2.912  2.2933  0.2203  0.0688
 4454SOL     OW25086   9.320   4.450  12.540  0.1123 -0.0947 -0.1152
 4454SOL    HW125087   9.338   4.422  12.630 -0.5092  0.7854  0.2950
 4454SOL    HW225088   9.393   4.507  12.517  0.1278 -0.0985 -0.0737
 4455SOL     OW25089  11.820  11.658   3.306  0.1267 -0.3313  0.6807
 4455SOL    HW125090  11.835  11.572   3.344 -0.0384 -0.0741  1.3410
 4455SOL    HW225091  11.873  11.659   3.226 -0.7780 -1.4664  0.0472
 4456SOL     OW25092   7.158   3.509  13.295 -0.2236  0.0827 -0.2403
 4456SOL    HW125093   7.101   3.437  13.321  1.7690 -1.8020 -0.7303
 4456SOL    HW225094   7.128   3.532  13.207 -0.7058 -0.3554 -0.1983
 4457SOL     OW25095   7.265   9.309   8.383  0.1078 -0.4549 -0.2169
 4457SOL    HW125096   7.323   9.250   8.432 -0.2578 -1.6169 -1.1467
 4457SOL    HW225097   7.276   9.393   8.427  1.0569 -1.0718  0.8166
 4458SOL     OW25098   6.154  13.656   1.896 -0.0722  0.7052  0.0083
 4458SOL    HW125099   6.198  13.602   1.830  2.0737  1.8419  0.4163
 4458SOL    HW225100   6.143  13.598   1.971  0.6124  0.3529 -0.1590
 4459SOL     OW25101   4.013   7.289   7.487 -0.5344  0.2993  0.4027
 4459SOL    HW125102   4.002   7.383   7.473  0.2776  0.2793 -0.3945
 4459SOL    HW225103   4.089   7.282   7.544 -2.1012  0.2280  2.6236
 4460SOL     OW25104   6.916   7.147   6.195  0.0946 -0.3173 -0.9199
 4460SOL    HW125105   6.882   7.079   6.138 -0.2045 -1.1297  0.2030
 4460SOL    HW225106   6.872   7.134   6.279  1.9756 -0.4242  0.1220
 4461SOL     OW25107   6.106   8.331   7.928  0.0568 -0.2388 -0.1751
 4461SOL    HW125108   6.107   8.243   7.965 -0.6646 -0.0470  0.3182
 4461SOL    HW225109   6.162   8.325   7.850  0.6373 -0.9371  0.2786
 4462SOL     OW25110   3.682   8.851   3.706 -0.7094 -0.5200 -0.3370
 4462SOL    HW125111   3.733   8.778   3.742  1.8375  1.8420  1.2793
 4462SOL    HW225112   3.614   8.868   3.771 -0.9036 -1.0353 -0.4044
 4463SOL     OW25113   6.189   5.696   0.275  0.3123  0.5099  0.1149
 4463SOL    HW125114   6.121   5.693   0.207  0.5033 -1.4179 -0.0384
 4463SOL    HW225115   6.269   5.675   0.228  0.9841  2.3022  0.3895
 4464SOL     OW25116  10.432   4.292  11.627  0.2522  0.3273 -0.1783
 4464SOL    HW125117  10.358   4.347  11.599  0.5604  1.2115  0.6998
 4464SOL    HW225118  10.488   4.351  11.676  1.0744 -0.5720 -0.0173
 4465SOL     OW25119  11.750  12.268  13.105 -0.1375  0.1255  0.1255
 4465SOL    HW125120  11.809  12.234  13.038 -0.3520 -1.6675  0.7820
 4465SOL    HW225121  11.667  12.222  13.089 -0.7280  1.0429  0.5001
 4466SOL     OW25122   1.921   3.445   9.468  0.4352 -0.1817  0.9849
 4466SOL    HW125123   1.933   3.377   9.402 -1.7796  0.6804 -0.4305
 4466SOL    HW225124   1.948   3.526   9.425 -1.4504  0.4557  0.8755
 4467SOL     OW25125   4.431  11.467  11.109  0.0182 -0.0584  0.0506
 4467SOL    HW125126   4.341  11.438  11.119  0.5071 -2.3173 -1.4009
 4467SOL    HW225127   4.451  11.514  11.190 -2.7699  1.5379 -0.0634
 4468SOL     OW25128  11.147   2.575   7.883 -0.4106 -0.0361 -0.1895
 4468SOL    HW125129  11.061   2.585   7.842 -1.0146  0.6225  1.1838
 4468SOL    HW225130  11.139   2.496   7.936  0.1196 -0.4411 -0.6936
 4469SOL     OW25131  13.313   5.019  10.736  0.4024  0.0751 -0.0184
 4469SOL    HW125132  13.349   5.014  10.825  0.5352  0.4016 -0.0497
 4469SOL    HW225133  13.339   4.937  10.695  2.2811  0.8212 -0.4593
 4470SOL     OW25134  13.600   9.239   5.539  0.1016 -0.2796 -0.3025
 4470SOL    HW125135  13.618   9.201   5.625  0.2658  0.1345 -0.1502
 4470SOL    HW225136  13.545   9.175   5.495  0.5199 -0.7715 -0.1143
 4471SOL     OW25137   8.931   1.623  13.478 -0.4075 -0.0451 -0.3306
 4471SOL    HW125138   8.858   1.682  13.458 -0.3306 -0.2188 -1.1362
 4471SOL    HW225139   9.003   1.654  13.425 -0.2099 -0.5382 -0.3572
 4472SOL     OW25140   2.422   5.223   7.715  0.0249 -0.2546  0.1331
 4472SOL    HW125141   2.466   5.196   7.796 -1.0462 -0.5672  0.6299
 4472SOL    HW225142   2.483   5.284   7.674  0.5402 -0.0044  1.2313
 4473SOL     OW25143   6.247   0.840   7.682  0.8045  0.5369 -0.7598
 4473SOL    HW125144   6.338   0.868   7.674  0.3470  1.7721 -2.3872
 4473SOL    HW225145   6.206   0.868   7.599 -1.0600  0.1009 -0.0454
 4474SOL     OW25146   2.617  13.690  11.470 -0.4671 -0.0555  0.2356
 4474SOL    HW125147   2.665  13.718  11.548  0.5265 -0.5670 -0.1696
 4474SOL    HW225148   2.544  13.638  11.504 -0.8894  0.9048  0.8698
 4475SOL     OW25149   9.404  10.924  10.978  0.7156 -0.3177  0.0284
 4475SOL    HW125150   9.477  10.986  10.983  1.9187 -1.4986 -1.9086
 4475SOL    HW225151   9.443  10.842  10.950 -0.8381 -2.0368  2.5126
 4476SOL     OW25152   9.729   1.550  11.899 -0.0718 -0.2303 -0.2839
 4476SOL    HW125153   9.766   1.638  11.907 -1.7895  0.6086 -1.1723
 4476SOL    HW225154   9.686   1.534  11.983 -0.3909  0.0868 -0.3854
 4477SOL     OW25155   5.120  11.142   9.929 -0.0275  0.2099  0.6299
 4477SOL    HW125156   5.204  11.117   9.968  0.1674 -1.0970 -0.5610
 4477SOL    HW225157   5.127  11.236   9.916  1.5768  0.0185 -0.1399
 4478SOL     OW25158  13.407   9.000   7.394  0.6840 -0.1510  0.1250
 4478SOL    HW125159  13.364   8.959   7.319  1.1662  0.5267 -0.5446
 4478SOL    HW225160  13.457   9.073   7.356 -0.3110  1.1931  1.2754
 4479SOL     OW25161   7.175   5.009   0.987 -0.3860 -0.0999  0.6186
 4479SOL    HW125162   7.223   5.083   0.951 -1.4769  1.2007  1.7229
 4479SOL    HW225163   7.105   5.048   1.039 -0.7303 -1.9139  1.6180
 4480SOL     OW25164   7.330  13.335   6.009 -0.4427  0.1772 -0.4494
 4480SOL    HW125165   7.278  13.273   6.061  0.6360 -0.2702  0.1307
 4480SOL    HW225166   7.397  13.367   6.070  1.2147 -0.7919 -1.6987
 4481SOL     OW25167   5.228   2.985  10.764 -0.1134  0.1599 -0.6915
 4481SOL    HW125168   5.300   2.924  10.780  0.1562  0.4830 -0.6580
 4481SOL    HW225169   5.221   2.990  10.669  1.4127  1.8478 -0.7703
 4482SOL     OW25170   6.174   8.084  12.780  0.3414 -0.0860  0.3632
 4482SOL    HW125171   6.248   8.118  12.731  1.0457 -1.5092  0.4035
 4482SOL    HW225172   6.141   8.012  12.728  0.2075 -0.7123  1.2879
 4483SOL     OW25173  10.331   6.391   1.633  0.2468 -0.4890 -0.5181
 4483SOL    HW125174  10.286   6.393   1.548 -0.7269 -1.8493 -0.0609
 4483SOL    HW225175  10.273   6.342   1.690  0.5419  1.0396  1.1809
 4484SOL     OW25176   2.639   5.958   8.797  0.7883  0.3182 -0.1081
 4484SOL    HW125177   2.663   5.892   8.732 -0.5753 -0.5374  0.2202
 4484SOL    HW225178   2.655   6.041   8.753  0.0098 -0.2357 -1.5222
 4485SOL     OW25179  12.707  10.147   8.655 -0.1093 -0.3845  0.2648
 4485SOL    HW125180  12.765  10.172   8.583 -0.1745  0.4485  0.4962
 4485SOL    HW225181  12.635  10.209   8.651  0.3202  0.2432  1.5862
 4486SOL     OW25182  12.031  11.070  13.508 -0.3806 -0.1438  0.3852
 4486SOL    HW125183  12.007  10.977  13.505  0.1137 -0.2552 -0.3413
 4486SOL    HW225184  12.120  11.073  13.472 -0.4186  0.6222  0.3412
 4487SOL     OW25185   6.273   8.266  13.600  0.1661 -0.1578 -0.2229
 4487SOL    HW125186   6.180   8.254  13.583  0.4840 -0.8295 -1.6777
 4487SOL    HW225187   6.317   8.214  13.533  1.5991  0.3647  0.2543
 4488SOL     OW25188   6.307   9.488   0.218  0.2515  0.0116  0.3513
 4488SOL    HW125189   6.332   9.551   0.151  1.1322 -0.7139 -0.0233
 4488SOL    HW225190   6.271   9.414   0.169 -3.0288  1.0921  0.8565
 4489SOL     OW25191   9.436  11.367   6.353 -0.1960 -0.3832  0.0120
 4489SOL    HW125192   9.398  11.437   6.406 -0.5080 -1.4509  1.2246
 4489SOL    HW225193   9.387  11.371   6.270  0.1732  1.1715 -0.1742
 4490SOL     OW25194   1.740  11.014  11.416  0.0300 -0.1048 -0.0891
 4490SOL    HW125195   1.776  11.082  11.474  1.0405 -0.8251  0.1662
 4490SOL    HW225196   1.659  11.052  11.382  0.9114  1.5123 -0.4961
 4491SOL     OW25197   0.123  11.178  13.655  0.1571 -0.5289 -0.2062
 4491SOL    HW125198   0.096  11.261  13.694  1.9412 -0.0909  0.1891
 4491SOL    HW225199   0.109  11.189  13.561  0.6950  0.3570 -0.1913
 4492SOL     OW25200   1.988   9.882   0.100 -0.2253 -0.1802 -0.0752
 4492SOL    HW125201   1.918   9.856   0.161 -0.0377  1.1665  0.7422
 4492SOL    HW225202   1.944   9.934   0.033  0.2652  3.0744  1.9216
 4493SOL     OW25203   5.454   8.758   5.512  0.1693 -0.0857 -0.5434
 4493SOL    HW125204   5.545   8.789   5.508  0.5362 -1.1100 -0.4963
 4493SOL    HW225205   5.448   8.712   5.596 -0.3388 -0.1919 -0.6355
 4494SOL     OW25206   1.867  11.152  13.305 -0.6387  0.1211 -0.3913
 4494SOL    HW125207   1.816  11.138  13.226 -1.1852  1.3009 -0.2610
 4494SOL    HW225208   1.919  11.231  13.287 -0.6725  0.3257  0.3670
 4495SOL     OW25209   2.958  12.608   7.803 -0.5686  0.9602 -0.5750
 4495SOL    HW125210   2.941  12.530   7.751  1.5620 -1.3307  1.9023
 4495SOL    HW225211   3.029  12.652   7.756 -0.1379  0.0930 -0.7593
 4496SOL     OW25212   8.401  13.136   1.862 -0.0507  0.4961 -0.5266
 4496SOL    HW125213   8.454  13.135   1.942  1.1208  3.1121 -1.1670
 4496SOL    HW225214   8.323  13.185   1.886 -2.4017 -3.2153  0.3700
 4497SOL     OW25215  13.729   5.411   9.589 -0.0110  0.0889  0.0472
 4497SOL    HW125216  13.701   5.323   9.562  0.4421  0.2186 -0.8984
 4497SOL    HW225217  13.709   5.466   9.513  1.2932  0.4751 -0.0338
 4498SOL     OW25218   4.013   2.530  13.290  0.2098  0.2407  0.3643
 4498SOL    HW125219   4.096   2.561  13.326 -0.2399  0.1849  1.4902
 4498SOL    HW225220   3.960   2.510  13.367 -0.2223 -1.4269 -0.3383
 4499SOL     OW25221   4.490   9.394  11.504 -0.0681 -0.1924 -0.0297
 4499SOL    HW125222   4.410   9.378  11.555 -1.0966  1.6285 -0.9791
 4499SOL    HW225223   4.504   9.312  11.457 -1.7113 -0.3910 -0.2633
 4500SOL     OW25224   0.688   3.284   4.245  0.0632  0.1730 -0.0690
 4500SOL    HW125225   0.629   3.213   4.269  0.6062 -0.3857 -0.3753
 4500SOL    HW225226   0.646   3.325   4.169 -0.2338  0.1693  0.0885
 4501SOL     OW25227   6.014   9.659   9.423 -0.3555  0.3676  0.3023
 4501SOL    HW125228   6.107   9.633   9.425 -0.0661  0.6394 -3.3507
 4501SOL    HW225229   5.967   9.578   9.440  0.5339 -0.0894  0.6901
 4502SOL     OW25230  11.905  11.574   9.053 -0.5937 -0.1595  0.3974
 4502SOL    HW125231  11.868  11.546   8.969 -1.0040  2.1014 -0.2433
 4502SOL    HW225232  11.832  11.569   9.115 -0.7264 -0.2574  0.2331
 4503SOL     OW25233  12.355   6.899   1.130 -0.0840  0.1981 -0.1048
 4503SOL    HW125234  12.367   6.852   1.048 -1.9476 -0.3097 -0.1347
 4503SOL    HW225235  12.332   6.988   1.104  1.3761  0.6135 -0.0710
 4504SOL     OW25236  12.449   0.440   5.597  0.3892  0.4905 -0.5009
 4504SOL    HW125237  12.465   0.503   5.527  3.4080  0.9272  0.4161
 4504SOL    HW225238  12.528   0.445   5.652 -1.6035 -0.1612  2.6972
 4505SOL     OW25239  12.416   5.702   1.401 -0.4177 -0.4553  0.1434
 4505SOL    HW125240  12.330   5.673   1.430 -0.4891 -0.5506 -0.1539
 4505SOL    HW225241  12.478   5.660   1.460 -0.5374 -0.9563 -0.0831
 4506SOL     OW25242   0.831   4.697   5.518 -0.5587 -0.0046 -0.2394
 4506SOL    HW125243   0.838   4.630   5.450  0.3874 -0.5490  0.3799
 4506SOL    HW225244   0.860   4.654   5.598 -0.5966  0.9490  0.3031
 4507SOL     OW25245   1.895   4.274   4.462  0.0291 -0.2909 -0.0107
 4507SOL    HW125246   1.929   4.312   4.544  0.9552 -0.1086 -0.4674
 4507SOL    HW225247   1.882   4.350   4.405  0.5920 -0.5280 -0.4614
 4508SOL     OW25248   5.298   0.742   5.856 -0.0770  0.2966 -0.6633
 4508SOL    HW125249   5.245   0.664   5.835  1.4028 -1.1953  0.8863
 4508SOL    HW225250   5.371   0.738   5.795 -0.0012  0.4983 -0.5862
 4509SOL     OW25251  12.953   2.598   2.575 -0.1784 -0.2154 -0.5224
 4509SOL    HW125252  12.912   2.574   2.658  2.7986 -2.5312  0.4719
 4509SOL    HW225253  13.024   2.657   2.600  0.7174 -0.9028 -1.3454
 4510SOL     OW25254   7.787   1.755   3.873  0.3923  0.4338  0.2434
 4510SOL    HW125255   7.817   1.686   3.932 -0.8476 -0.4864 -0.1595
 4510SOL    HW225256   7.795   1.835   3.924  1.2030 -0.0897  0.9640
 4511SOL     OW25257   2.283  10.330  11.805  0.1471  0.1460  0.3152
 4511SOL    HW125258   2.281  10.289  11.892  0.8963  0.8988  0.7014
 4511SOL    HW225259   2.205  10.387  11.804 -1.2413 -1.6573 -0.4485
 4512SOL     OW25260   7.384   9.752  11.574 -0.1033  0.1125  0.6788
 4512SOL    HW125261   7.418   9.771  11.486  0.6766  2.3425  1.3832
 4512SOL    HW225262   7.358   9.660  11.570  0.4053 -0.0088 -1.7158
 4513SOL     OW25263   0.003   2.350   4.580 -0.1134 -0.7206 -0.3121
 4513SOL    HW125264   0.076   2.361   4.641  0.1576 -1.3052 -0.5177
 4513SOL    HW225265   0.036   2.382   4.496 -1.0332  1.6491  0.1602
 4514SOL     OW25266  10.397  12.610   6.979 -0.1676 -0.8774 -0.0287
 4514SOL    HW125267  10.336  12.668   7.025  1.1434 -0.0877  0.7984
 4514SOL    HW225268  10.478  12.661   6.973  0.6308 -2.1492 -0.4701
 4515SOL     OW25269  11.621   3.689  11.525 -0.7941 -0.4616 -0.5988
 4515SOL    HW125270  11.694   3.711  11.584 -0.8717  2.1990 -1.4010
 4515SOL    HW225271  11.557   3.647  11.582  0.9225 -2.0255  0.3143
 4516SOL     OW25272  13.641   3.715   3.393  0.5736 -0.7545  0.2995
 4516SOL    HW125273  13.590   3.640   3.425 -1.2169  0.3710  0.2172
 4516SOL    HW225274  13.607   3.731   3.305  0.3863  0.6053  0.5980
 4517SOL     OW25275   2.634   2.596   1.799 -0.1145 -0.1325 -0.1083
 4517SOL    HW125276   2.683   2.625   1.876 -0.9810  0.4723  0.2233
 4517SOL    HW225277   2.548   2.635   1.809 -0.4505 -0.6065 -1.0496
 4518SOL     OW25278   2.570   5.761   9.899  0.5728  0.0291 -0.1745
 4518SOL    HW125279   2.480   5.792   9.914  0.4082 -1.0888  1.5032
 4518SOL    HW225280   2.598   5.728   9.984  2.2207 -0.5910 -0.9140
 4519SOL     OW25281   1.669   2.954  11.112  0.2568  0.2142  0.3265
 4519SOL    HW125282   1.709   2.867  11.110 -0.7205 -0.3338  2.0691
 4519SOL    HW225283   1.742   3.015  11.108  0.9927 -0.7026 -0.3713
 4520SOL     OW25284   8.395   6.053   1.246  0.3332 -0.1006  0.5360
 4520SOL    HW125285   8.408   5.989   1.177 -0.5260 -1.4536  1.5909
 4520SOL    HW225286   8.409   6.138   1.203  1.0078 -0.9522 -0.9903
 4521SOL     OW25287   9.678   7.473   7.314  0.4625 -0.3571  0.0783
 4521SOL    HW125288   9.716   7.434   7.394  0.7353  1.3969  0.8452
 4521SOL    HW225289   9.584   7.473   7.330  0.5554  0.6277  0.7411
 4522SOL     OW25290  13.270   8.068   1.454  0.3343  0.2126 -0.1949
 4522SOL    HW125291  13.291   7.978   1.430  1.5794  0.1940  0.8812
 4522SOL    HW225292  13.290   8.119   1.376  0.5770 -0.3168 -0.4830
 4523SOL     OW25293   1.108  13.182   5.556 -0.1451  0.3024  0.2272
 4523SOL    HW125294   1.013  13.182   5.549 -0.4202 -1.4936  2.8272
 4523SOL    HW225295   1.126  13.178   5.650  2.4320 -1.5437 -0.2340
 4524SOL     OW25296   9.755   7.530   9.866  0.5708 -0.1987 -0.0356
 4524SOL    HW125297   9.810   7.491   9.799  0.0394  1.0694 -1.2693
 4524SOL    HW225298   9.666   7.522   9.832  0.3111  0.6425  0.4125
 4525SOL     OW25299  11.585   8.107   2.282  0.2863 -0.0114 -0.1730
 4525SOL    HW125300  11.521   8.036   2.293  0.0218 -0.0325 -1.6970
 4525SOL    HW225301  11.670   8.064   2.291  0.1149 -0.4042 -0.4006
 4526SOL     OW25302   3.134   4.177  12.466 -0.4001 -0.1618  0.0723
 4526SOL    HW125303   3.160   4.090  12.495  1.0413 -0.0096 -0.6934
 4526SOL    HW225304   3.076   4.162  12.391  1.4039 -0.4820 -1.3207
 4527SOL     OW25305   7.652  12.296  11.947 -0.4357 -0.7861 -0.2620
 4527SOL    HW125306   7.564  12.285  11.911 -0.3680 -1.3100 -0.2679
 4527SOL    HW225307   7.646  12.260  12.036 -0.9232  1.5661  0.7257
 4528SOL     OW25308   1.899   8.532   5.240 -0.3733 -0.1903 -0.0881
 4528SOL    HW125309   1.811   8.500   5.256 -0.2446  0.0088  1.1986
 4528SOL    HW225310   1.953   8.453   5.235 -0.5995 -0.3052 -0.6942
 4529SOL     OW25311   6.084   0.108   2.373  0.3651  0.0738  0.3604
 4529SOL    HW125312   6.010   0.142   2.423  0.4893  2.0490 -0.7062
 4529SOL    HW225313   6.152   0.094   2.438  0.3172  2.0084  0.8910
 4530SOL     OW25314   2.844   7.833   0.691  0.1650 -0.1903  0.5512
 4530SOL    HW125315   2.841   7.769   0.620 -2.3410  0.0458  0.3560
 4530SOL    HW225316   2.900   7.903   0.659  2.3980 -1.8814  0.4895
 4531SOL     OW25317   4.721   7.936  12.812 -0.3597  0.2924  0.3272
 4531SOL    HW125318   4.675   7.971  12.888  0.5209  2.1909  0.0251
 4531SOL    HW225319   4.674   7.973  12.736 -0.3081 -0.3831 -0.0477
 4532SOL     OW25320   2.656   6.499  11.013  0.2946  0.0716  0.0325
 4532SOL    HW125321   2.627   6.484  10.923  0.3979 -1.5559  0.2530
 4532SOL    HW225322   2.641   6.416  11.058  0.3830  0.8099  1.4937
 4533SOL     OW25323  12.264   0.600   2.345 -0.9717 -0.6829  0.5299
 4533SOL    HW125324  12.336   0.542   2.317 -1.3339 -0.5671 -0.7241
 4533SOL    HW225325  12.295   0.640   2.426  1.5262  1.3359 -1.2547
 4534SOL     OW25326   0.656   3.190   6.016  0.4009  0.5268 -0.6873
 4534SOL    HW125327   0.626   3.191   5.925  0.2603  1.7130 -0.6441
 4534SOL    HW225328   0.752   3.186   6.010  0.3976  0.7309 -0.8958
 4535SOL     OW25329  10.391   6.532   0.038  0.1795  0.2054 -0.3420
 4535SOL    HW125330  10.296   6.519   0.045  0.3619 -0.6474  0.7043
 4535SOL    HW225331  10.424   6.523   0.127  0.8063  4.5642  0.0619
 4536SOL     OW25332   1.306  11.612  10.938 -0.7604  0.3912 -0.4162
 4536SOL    HW125333   1.251  11.542  10.904 -1.8645  0.6440  0.7521
 4536SOL    HW225334   1.246  11.685  10.954  0.1428  1.1438 -0.3464
 4537SOL     OW25335  10.269  10.632   5.842 -0.5141  0.0523 -0.1868
 4537SOL    HW125336  10.193  10.614   5.898 -0.9207 -1.6522 -1.1823
 4537SOL    HW225337  10.253  10.718   5.805  0.0513  1.5045  2.6840
 4538SOL     OW25338   9.780  10.276  12.100 -0.6803 -0.1264 -0.8855
 4538SOL    HW125339   9.827  10.359  12.093 -0.1998 -0.3642 -0.5325
 4538SOL    HW225340   9.812  10.224  12.026  2.8797 -1.8851  1.5868
 4539SOL     OW25341   4.827   9.562   7.373 -0.3639  0.0302  0.2341
 4539SOL    HW125342   4.770   9.509   7.428 -0.8209 -0.3912 -0.6334
 4539SOL    HW225343   4.803   9.538   7.283 -0.8072  1.9338 -0.1939
 4540SOL     OW25344   7.047   1.752   0.293  0.7277  0.1509 -0.1796
 4540SOL    HW125345   7.114   1.779   0.355  1.0339  4.0988 -1.9401
 4540SOL    HW225346   6.972   1.809   0.313 -0.5392 -1.1287 -1.0752
 4541SOL     OW25347   3.709   0.610  13.147 -0.5328 -0.0002  0.5390
 4541SOL    HW125348   3.643   0.677  13.129 -0.5019  0.0361  0.5584
 4541SOL    HW225349   3.686   0.537  13.090  1.6994  1.4509 -2.5189
 4542SOL     OW25350   9.019   3.197   1.501 -0.3249 -0.0935  0.4821
 4542SOL    HW125351   9.026   3.256   1.426  0.9858  1.7173  1.9386
 4542SOL    HW225352   9.069   3.120   1.475  2.2664  1.5132  0.3407
 4543SOL     OW25353   0.005  13.289   4.009 -0.4239  0.0561 -0.0274
 4543SOL    HW125354   0.078  13.319   4.064  0.7671 -2.2644 -0.2427
 4543SOL    HW225355  -0.066  13.273   4.071  0.5710 -1.5253  0.7714
 4544SOL     OW25356   9.938   6.494  11.555 -0.3962 -0.3680  0.0324
 4544SOL    HW125357   9.876   6.544  11.608 -0.1735  0.3281 -0.3461
 4544SOL    HW225358   9.983   6.560  11.502  0.3891 -0.8982  0.0116
 4545SOL     OW25359   4.561   0.418   1.996  0.5489  0.1693  0.0921
 4545SOL    HW125360   4.601   0.498   2.030  1.4024 -0.6072  0.9681
 4545SOL    HW225361   4.541   0.366   2.074  0.9456 -0.9024 -0.5039
 4546SOL     OW25362   6.036   4.738  11.894  0.2650 -0.0547  0.1713
 4546SOL    HW125363   5.991   4.821  11.913  0.4413 -0.1121  0.8576
 4546SOL    HW225364   6.119   4.765  11.855  0.3790  0.0914  0.5188
 4547SOL     OW25365  10.555   3.795   6.869 -0.4012 -0.3572  0.0682
 4547SOL    HW125366  10.594   3.760   6.949  0.7453 -0.9533 -0.7232
 4547SOL    HW225367  10.490   3.729   6.844 -1.2868  0.1792  0.8733
 4548SOL     OW25368  10.758   7.814  12.493  0.6301  0.1303  0.1545
 4548SOL    HW125369  10.836   7.760  12.499  0.7402  0.3274  0.5013
 4548SOL    HW225370  10.694   7.759  12.447  0.3662 -0.7211  1.4867
 4549SOL     OW25371   6.521   9.050  13.226 -0.1003 -0.2892 -0.2447
 4549SOL    HW125372   6.572   8.990  13.280  0.6262 -0.5863 -1.2354
 4549SOL    HW225373   6.468   8.992  13.170  0.0122 -0.0084 -0.6466
 4550SOL     OW25374  11.455   0.636  13.603 -0.2429 -0.6397  0.0515
 4550SOL    HW125375  11.367   0.665  13.627  0.5652  0.8471  1.4758
 4550SOL    HW225376  11.457   0.639  13.508 -1.1243  1.3702  0.0406
 4551SOL     OW25377   5.908  10.683   4.669 -0.7101 -0.4381  0.1722
 4551SOL    HW125378   5.833  10.742   4.681 -1.1367 -1.4775  3.6959
 4551SOL    HW225379   5.949  10.678   4.755  2.8221 -0.8271 -1.3583
 4552SOL     OW25380   1.121  13.504   8.227  0.0037  0.1105  0.0972
 4552SOL    HW125381   1.215  13.487   8.231 -0.0051  0.1133  0.3649
 4552SOL    HW225382   1.081  13.421   8.254 -0.0552  0.3157  0.6596
 4553SOL     OW25383   8.500   8.075  10.670 -0.3747 -0.0632 -0.0034
 4553SOL    HW125384   8.563   8.004  10.656  2.4924  2.3710 -0.2712
 4553SOL    HW225385   8.468   8.097  10.583 -0.8412 -0.5885  0.0243
 4554SOL     OW25386   0.958   7.303  13.311  0.5096  0.5719 -0.6762
 4554SOL    HW125387   1.034   7.246  13.318 -0.8223 -1.2535 -0.2523
 4554SOL    HW225388   0.991   7.390  13.332  2.2815 -0.3343  0.5081
 4555SOL     OW25389   1.056   9.393   2.319  0.3444 -0.4063 -0.0914
 4555SOL    HW125390   0.980   9.411   2.374  0.5283  0.6241 -0.1612
 4555SOL    HW225391   1.102   9.322   2.364 -0.6265 -1.0020 -0.0210
 4556SOL     OW25392   1.090   5.663   6.282 -0.2662  0.1677  0.4076
 4556SOL    HW125393   1.002   5.660   6.319 -0.3973 -0.7382  0.0568
 4556SOL    HW225394   1.127   5.577   6.301  0.0759  0.0904 -0.5488
 4557SOL     OW25395   2.115  11.399  10.074  0.6399 -0.7090  0.4629
 4557SOL    HW125396   2.186  11.463  10.070 -0.3712  0.4123 -0.8795
 4557SOL    HW225397   2.098  11.376   9.982 -0.8298 -0.8184  0.7320
 4558SOL     OW25398   1.336   3.241   5.130  0.6425 -0.2155  0.0077
 4558SOL    HW125399   1.402   3.250   5.062 -0.1384 -3.6219 -1.4007
 4558SOL    HW225400   1.372   3.177   5.191 -0.1297  0.1815  0.9304
 4559SOL     OW25401   3.938  11.645  13.718 -0.1242  0.2753 -0.0438
 4559SOL    HW125402   3.974  11.626  13.631 -0.5007  0.2294 -0.1910
 4559SOL    HW225403   3.871  11.577  13.731  1.3398 -1.0191  1.1563
 4560SOL     OW25404  10.388   9.162   1.699 -0.2985 -0.0019 -0.6844
 4560SOL    HW125405  10.318   9.098   1.682  0.7107 -1.0485 -1.0086
 4560SOL    HW225406  10.381   9.180   1.793  0.6044 -2.1082 -0.1569
 4561SOL     OW25407  13.650   6.009  11.501  0.6580 -0.2496  0.8182
 4561SOL    HW125408  13.561   5.978  11.489  1.1964 -0.7729 -3.1858
 4561SOL    HW225409  13.667   5.998  11.595 -3.4656  0.1052  1.7835
 4562SOL     OW25410   7.549  12.587  13.418  0.2489  0.3742 -0.6294
 4562SOL    HW125411   7.538  12.492  13.420 -0.5929  0.4804  0.5840
 4562SOL    HW225412   7.461  12.621  13.430  0.7940  1.2962  0.9778
 4563SOL     OW25413  12.464   7.424   7.936  0.1124 -0.3385  0.0734
 4563SOL    HW125414  12.493   7.484   7.867 -0.3381  0.7724  0.8138
 4563SOL    HW225415  12.385   7.384   7.902  1.1442 -1.5552 -0.9746
 4564SOL     OW25416  10.751   4.393   6.472  0.0860 -0.2258 -0.0636
 4564SOL    HW125417  10.791   4.403   6.559  0.8910  0.6315 -0.5196
 4564SOL    HW225418  10.696   4.314   6.480 -1.0667  0.6835  1.6687
 4565SOL     OW25419   5.905  11.025  10.577 -0.3223 -1.1344  0.3798
 4565SOL    HW125420   5.870  11.108  10.544  1.8410  0.2286  1.3291
 4565SOL    HW225421   5.933  10.978  10.499 -0.1186 -0.2746 -0.0750
 4566SOL     OW25422  11.950  11.261   9.928  0.6037  0.1636  0.3234
 4566SOL    HW125423  12.001  11.199   9.980 -0.2214 -1.4470 -0.7186
 4566SOL    HW225424  11.903  11.314   9.992 -0.3201 -1.7157  1.2600
 4567SOL     OW25425   5.228  13.120  11.741 -0.3330  0.3940 -0.4079
 4567SOL    HW125426   5.315  13.119  11.781 -0.5942 -0.0006  0.1607
 4567SOL    HW225427   5.176  13.061  11.796 -1.0352  0.8541 -0.5765
 4568SOL     OW25428  13.484   0.111   0.365 -0.0417 -0.1330 -0.1205
 4568SOL    HW125429  13.484   0.018   0.386  2.9830 -0.2082 -0.1183
 4568SOL    HW225430  13.412   0.121   0.302 -0.1585 -2.5386 -0.4541
 4569SOL     OW25431   1.329   4.261   3.558  0.2749 -0.6752  0.3026
 4569SOL    HW125432   1.370   4.208   3.490  0.2878  0.7609 -0.8756
 4569SOL    HW225433   1.377   4.344   3.556 -0.4103 -0.2352  1.3431
 4570SOL     OW25434   9.666   4.166   0.827  0.3167  0.5995 -0.3992
 4570SOL    HW125435   9.714   4.223   0.768 -0.4858  1.0892 -0.5911
 4570SOL    HW225436   9.718   4.167   0.908 -0.2900  2.6152  0.0401
 4571SOL     OW25437  12.871   3.845   0.561  0.6504 -0.1477 -0.1236
 4571SOL    HW125438  12.783   3.831   0.596  0.6569  1.7917  0.7785
 4571SOL    HW225439  12.863   3.925   0.509  1.6587 -0.5410 -0.9157
 4572SOL     OW25440  12.712   5.675   4.458 -0.0937 -0.0151  0.4330
 4572SOL    HW125441  12.735   5.589   4.422 -0.9045 -0.7988  1.6778
 4572SOL    HW225442  12.723   5.665   4.553 -1.6234  0.7808  0.7364
 4573SOL     OW25443   4.447   2.196   5.963  0.2267  0.1378  0.3571
 4573SOL    HW125444   4.538   2.178   5.989  0.2794 -0.7151 -0.3779
 4573SOL    HW225445   4.423   2.122   5.909 -1.2108 -0.0643  1.2270
 4574SOL     OW25446  12.284   9.340   6.335 -0.3639 -0.0496  0.2304
 4574SOL    HW125447  12.279   9.403   6.408 -0.7491 -0.2623  0.3944
 4574SOL    HW225448  12.205   9.358   6.284 -0.4596 -0.3745  0.2613
 4575SOL     OW25449   3.522   7.641   5.647 -0.5583  0.0473 -0.2303
 4575SOL    HW125450   3.561   7.576   5.707 -0.5210  0.1985 -0.0909
 4575SOL    HW225451   3.497   7.714   5.703 -1.9394 -0.4401 -0.1651
 4576SOL     OW25452   2.803   6.141  12.406 -0.0724 -0.4040  0.5084
 4576SOL    HW125453   2.896   6.126  12.421 -0.2528 -0.7128  1.3554
 4576SOL    HW225454   2.787   6.229  12.440 -0.3312 -0.8249  1.5172
 4577SOL     OW25455   0.400   4.832   6.097  0.7350  0.0972 -0.0784
 4577SOL    HW125456   0.455   4.906   6.123  1.3259 -0.4637  0.2995
 4577SOL    HW225457   0.342   4.867   6.030 -0.1990  1.3674  1.3230
 4578SOL     OW25458   3.586   6.878   8.757  0.0067  0.2383  0.1998
 4578SOL    HW125459   3.512   6.933   8.779 -0.4486  0.0418 -0.7869
 4578SOL    HW225460   3.663   6.934   8.771 -0.1499 -0.1276  3.0381
 4579SOL     OW25461  11.408   6.547   0.789  0.3606  0.5182  0.1936
 4579SOL    HW125462  11.331   6.581   0.835 -0.3159 -0.0710 -0.4671
 4579SOL    HW225463  11.461   6.507   0.857 -0.3402  0.1786  0.5527
 4580SOL     OW25464   7.069  10.836   6.380  0.0408 -0.5738  0.2477
 4580SOL    HW125465   7.162  10.815   6.380  0.0628 -0.4934 -0.0875
 4580SOL    HW225466   7.065  10.925   6.414 -0.0776 -1.1933  1.9297
 4581SOL     OW25467   7.776   2.231  13.001  0.1663  0.1948  0.3196
 4581SOL    HW125468   7.868   2.208  13.003 -0.2461 -1.7758 -1.0470
 4581SOL    HW225469   7.738   2.185  13.076  0.0790 -0.1380  0.0762
 4582SOL     OW25470  13.222  11.575   9.084  0.3789  0.3951 -0.3684
 4582SOL    HW125471  13.282  11.646   9.106  1.2014 -0.4667  0.2247
 4582SOL    HW225472  13.170  11.561   9.163  0.6618 -0.0895 -0.2635
 4583SOL     OW25473   0.723   4.769   2.762 -0.3068  0.2398 -0.1347
 4583SOL    HW125474   0.705   4.840   2.824 -1.2165  1.2680 -1.5037
 4583SOL    HW225475   0.659   4.782   2.692 -1.1140 -2.4812 -0.0307
 4584SOL     OW25476   0.544   0.493   7.376  0.5629  0.4504  0.0772
 4584SOL    HW125477   0.452   0.519   7.372  0.4468 -0.0060 -3.5538
 4584SOL    HW225478   0.570   0.511   7.466 -3.1296  0.3095  1.3554
 4585SOL     OW25479   7.925   5.520   7.523 -0.1940  0.0484  0.0995
 4585SOL    HW125480   7.919   5.614   7.540  0.3893  0.1294 -0.1245
 4585SOL    HW225481   7.987   5.487   7.588  0.0987 -0.0692 -0.2358
 4586SOL     OW25482  12.186   1.461   2.596  0.0123  0.2733 -0.1564
 4586SOL    HW125483  12.184   1.433   2.688 -0.5328 -0.5995 -0.4252
 4586SOL    HW225484  12.253   1.406   2.556 -2.0195 -1.7221 -1.0002
 4587SOL     OW25485   8.727   0.088  12.179  0.3046 -0.1236  0.0380
 4587SOL    HW125486   8.744   0.120  12.090  0.6332  1.4667  0.6408
 4587SOL    HW225487   8.646   0.132  12.205 -1.5712 -2.9526 -0.5522
 4588SOL     OW25488   5.969   6.776   8.641 -0.5809 -0.1110  0.3031
 4588SOL    HW125489   5.927   6.862   8.631 -3.4775 -1.1816  1.9784
 4588SOL    HW225490   6.030   6.787   8.714 -0.0134  0.8191 -0.3040
 4589SOL     OW25491   7.510   6.342  12.385  0.4253 -0.2065 -0.3966
 4589SOL    HW125492   7.514   6.246  12.379  3.1768 -0.2940  1.1677
 4589SOL    HW225493   7.498   6.371  12.294 -2.5053 -1.9883 -0.7013
 4590SOL     OW25494   9.325   1.265   9.849  0.1214  0.1761 -0.1710
 4590SOL    HW125495   9.337   1.206   9.924  0.1326  0.6756  0.2271
 4590SOL    HW225496   9.349   1.213   9.773  0.4685 -0.2230  0.2095
 4591SOL     OW25497  11.213   1.194   7.034 -0.1408  0.4268 -0.4327
 4591SOL    HW125498  11.212   1.120   7.094  0.2291  0.8019  0.0398
 4591SOL    HW225499  11.162   1.164   6.958  0.5305 -0.5320 -0.5194
 4592SOL     OW25500   7.028   6.992  12.018  0.0857 -0.9946  0.0625
 4592SOL    HW125501   7.052   7.084  12.004 -1.6251 -0.7247 -1.2916
 4592SOL    HW225502   7.096   6.960  12.078  1.2137  0.9015 -0.0971
 4593SOL     OW25503  11.066  12.728   9.204 -0.8302 -0.4798 -0.3882
 4593SOL    HW125504  11.101  12.745   9.291 -1.5003  1.4786 -0.4534
 4593SOL    HW225505  11.066  12.633   9.196 -0.5922 -0.6869  1.6753
 4594SOL     OW25506   4.724  10.450   5.360 -0.2354  0.0880 -0.3642
 4594SOL    HW125507   4.775  10.524   5.394  0.4154 -0.2698 -0.5448
 4594SOL    HW225508   4.649  10.445   5.418  1.1358 -0.8772  1.4405
 4595SOL     OW25509   2.466   6.003   6.648 -0.1518  0.3764  0.6003
 4595SOL    HW125510   2.474   6.093   6.617  0.8782 -0.3897 -1.5142
 4595SOL    HW225511   2.506   6.005   6.735  0.1736  1.8894  0.4441
 4596SOL     OW25512   4.923  10.098   3.914  0.5832 -0.0164  0.0763
 4596SOL    HW125513   4.997  10.158   3.906  0.0912  0.4733 -0.9839
 4596SOL    HW225514   4.863  10.123   3.843  0.6832 -2.2150 -0.8567
 4597SOL     OW25515   0.885   2.058  10.240  1.0540 -1.0218  0.2151
 4597SOL    HW125516   0.979   2.069  10.224  0.9478 -1.3500 -0.6489
 4597SOL    HW225517   0.855   1.998  10.171 -0.2932  1.0610 -1.0933
 4598SOL     OW25518   6.208  10.813  13.696 -0.3380  0.4526 -0.2221
 4598SOL    HW125519   6.205  10.903  13.665  0.7766  0.3484 -0.6867
 4598SOL    HW225520   6.119  10.795  13.726 -1.2640  0.8821 -2.4687
 4599SOL     OW25521   4.390  10.678   2.645  0.1257 -0.3037 -0.2866
 4599SOL    HW125522   4.399  10.682   2.740  0.2241 -1.6155 -0.2231
 4599SOL    HW225523   4.389  10.585   2.625  0.7628 -0.0493 -1.6320
 4600SOL     OW25524   2.903   8.433   5.228  0.4947 -0.1766 -0.3054
 4600SOL    HW125525   2.842   8.366   5.258  0.0999 -0.4593 -1.6334
 4600SOL    HW225526   2.987   8.389   5.220  0.2790 -0.4831 -0.9839
 4601SOL     OW25527   9.477   6.940   1.949 -1.1242 -0.1749  0.1073
 4601SOL    HW125528   9.523   6.881   2.008  0.0523  1.8337  1.3172
 4601SOL    HW225529   9.530   6.940   1.869 -1.5049 -1.2270 -0.1620
 4602SOL     OW25530   9.668  11.795  13.730 -0.2425 -0.0223 -0.8009
 4602SOL    HW125531   9.720  11.714  13.729 -0.7451 -0.3726 -0.0083
 4602SOL    HW225532   9.603  11.780  13.799 -1.2781  0.4796 -1.6497
 4603SOL     OW25533  10.464   5.144   4.485  0.0314 -0.3301  0.1797
 4603SOL    HW125534  10.527   5.206   4.448  0.2095 -0.1155  0.8244
 4603SOL    HW225535  10.382   5.193   4.490  0.3443  0.1060  1.3630
 4604SOL     OW25536   1.446   4.500   4.555 -0.0418 -0.0034 -0.1556
 4604SOL    HW125537   1.444   4.406   4.542 -1.1902  0.1271 -1.1819
 4604SOL    HW225538   1.368   4.532   4.509  0.6328  1.4962 -0.3356
 4605SOL     OW25539   2.675   8.623   4.554 -0.1001  0.4266  0.1944
 4605SOL    HW125540   2.623   8.694   4.515 -0.7640 -0.7318 -1.0930
 4605SOL    HW225541   2.734   8.596   4.484 -0.3144 -0.7356  0.4560
 4606SOL     OW25542   0.925  10.303  10.768  0.5506  0.0165  1.0068
 4606SOL    HW125543   0.987  10.375  10.761  0.1750  0.3015  0.5657
 4606SOL    HW225544   0.855  10.335  10.824  0.2808  0.0731  0.6424
 4607SOL     OW25545   9.906  12.861   6.394 -0.4475 -0.1292 -0.0023
 4607SOL    HW125546   9.826  12.908   6.370 -0.1746  0.9440  1.0736
 4607SOL    HW225547   9.938  12.907   6.472  1.6580 -0.0088 -0.8572
 4608SOL     OW25548   5.878   2.855   6.768  0.1286 -0.0471 -0.1979
 4608SOL    HW125549   5.905   2.817   6.852  1.7802 -1.4371 -1.2869
 4608SOL    HW225550   5.960   2.880   6.726 -0.7395  1.6794 -0.9739
 4609SOL     OW25551   3.571   3.706   7.344  0.1631  0.4818  0.0017
 4609SOL    HW125552   3.498   3.752   7.302  0.3775  1.4344  0.6235
 4609SOL    HW225553   3.621   3.669   7.272 -2.4898 -2.7784 -0.4139
 4610SOL     OW25554   0.623   1.085   3.120 -0.0173 -0.5818  0.6616
 4610SOL    HW125555   0.534   1.106   3.149 -1.3936 -2.5505 -1.6570
 4610SOL    HW225556   0.665   1.046   3.196 -1.8076 -1.2691  1.3586
 4611SOL     OW25557   8.924   8.706  10.486 -0.2174 -0.2680 -0.1784
 4611SOL    HW125558   8.918   8.644  10.413  0.1932  1.9385 -2.2092
 4611SOL    HW225559   8.999   8.761  10.464 -1.4121  1.8499  0.7428
 4612SOL     OW25560  12.058   3.140   6.139 -0.0370 -0.3883  0.2491
 4612SOL    HW125561  12.139   3.088   6.135  1.3286  1.5900  0.5637
 4612SOL    HW225562  12.053   3.169   6.230 -1.0219 -0.3316  0.1881
 4613SOL     OW25563   9.837   4.290   0.662 -0.2282  0.1335 -0.0281
 4613SOL    HW125564   9.925   4.326   0.665  0.3502 -1.2438  0.4692
 4613SOL    HW225565   9.836   4.236   0.583 -0.5214 -0.1037  0.1377
 4614SOL     OW25566   8.092   9.313   5.008  0.4672  0.1763 -0.1864
 4614SOL    HW125567   8.125   9.403   5.004  0.0855  0.3199 -0.1426
 4614SOL    HW225568   7.998   9.321   4.993  0.4319 -0.2175 -0.1898
 4615SOL     OW25569   4.591   8.597   4.266 -0.2831 -0.4186 -0.3754
 4615SOL    HW125570   4.667   8.651   4.285  0.8823 -2.0255 -0.2166
 4615SOL    HW225571   4.516   8.655   4.276  0.9102  1.1964 -0.4703
 4616SOL     OW25572   1.110   6.416  11.252 -0.2889 -0.0504  0.3523
 4616SOL    HW125573   1.033   6.473  11.245 -0.9257 -0.3920  3.2493
 4616SOL    HW225574   1.074   6.327  11.256  0.2207 -0.2234  1.6094
 4617SOL     OW25575   7.903  12.077  12.131 -0.0190  0.0202  0.0122
 4617SOL    HW125576   7.905  12.028  12.213  2.2766  1.2549  0.7836
 4617SOL    HW225577   7.880  12.166  12.156 -0.0139  0.2540 -0.7874
 4618SOL     OW25578  10.516   7.491  13.370  0.2066  0.5393  0.0087
 4618SOL    HW125579  10.496   7.568  13.317 -0.5388  1.3941  1.4890
 4618SOL    HW225580  10.606   7.503  13.398  0.9342 -0.3832 -1.7749
 4619SOL     OW25581   0.740   1.144   9.955 -0.0509  0.1855  0.5353
 4619SOL    HW125582   0.747   1.133   9.860 -0.7409  2.1385  0.2121
 4619SOL    HW225583   0.650   1.174   9.969  0.3915  1.0400  1.6649
 4620SOL     OW25584  13.635  13.421   9.612 -0.3940 -0.2041  0.0044
 4620SOL    HW125585  13.707  13.433   9.550 -0.6174  0.7885 -0.0799
 4620SOL    HW225586  13.631  13.504   9.661 -0.3131 -0.9045  1.2559
 4621SOL     OW25587   1.678   9.018   1.899 -0.2898  0.1761 -0.2388
 4621SOL    HW125588   1.736   8.961   1.949 -1.3937 -1.5888 -0.8535
 4621SOL    HW225589   1.658   8.968   1.820  0.1149  2.2092 -1.6910
 4622SOL     OW25590   9.393   2.988   3.880  0.0235  0.0203  0.2101
 4622SOL    HW125591   9.409   3.063   3.824 -0.4652  0.4250  0.6024
 4622SOL    HW225592   9.475   2.940   3.881  0.4590  0.7633  0.2764
 4623SOL     OW25593   9.607   1.081   1.579 -0.3216  0.0860 -0.2008
 4623SOL    HW125594   9.555   1.011   1.619  0.8691 -0.8706 -0.2635
 4623SOL    HW225595   9.572   1.161   1.617  0.4544 -0.7425  2.4574
 4624SOL     OW25596   3.349   7.062  12.500 -0.0851 -0.6225 -0.1304
 4624SOL    HW125597   3.429   7.105  12.530 -0.7611  0.6729 -0.1423
 4624SOL    HW225598   3.289   7.068  12.574 -0.2294 -1.4719 -0.1688
 4625SOL     OW25599   8.867   2.693   6.871  0.5136  0.3027  0.0877
 4625SOL    HW125600   8.775   2.711   6.851  0.0455 -2.7103 -1.0722
 4625SOL    HW225601   8.878   2.722   6.961 -1.8631 -0.0225  0.5635
 4626SOL     OW25602  12.571  11.153   0.885  0.4063 -0.1407  0.1663
 4626SOL    HW125603  12.591  11.237   0.844  1.7372 -0.7314 -0.4283
 4626SOL    HW225604  12.583  11.088   0.816 -0.7161 -0.8315  0.5874
 4627SOL     OW25605   9.237  11.735   0.572  0.1825 -0.2353 -0.5558
 4627SOL    HW125606   9.178  11.785   0.515  0.2617  0.3548 -0.1313
 4627SOL    HW225607   9.185  11.658   0.598 -0.2241  0.0305 -0.5760
 4628SOL     OW25608  11.526   1.532   4.472  0.0445  0.1599 -0.3714
 4628SOL    HW125609  11.469   1.540   4.548  1.3382 -0.9906  0.7660
 4628SOL    HW225610  11.512   1.442   4.441 -2.2168  1.2611 -3.0188
 4629SOL     OW25611   7.384   5.852  12.859  0.0624 -0.6119  0.1575
 4629SOL    HW125612   7.374   5.759  12.837  0.7726 -0.0551 -3.1575
 4629SOL    HW225613   7.295   5.885  12.863 -0.2148 -1.4505  1.7178
 4630SOL     OW25614   4.065   4.090   6.275 -0.1409  0.0134 -0.5579
 4630SOL    HW125615   4.129   4.133   6.218 -0.6810  0.6883 -0.6781
 4630SOL    HW225616   3.988   4.079   6.220 -0.9344  1.3700  0.2327
 4631SOL     OW25617  11.021   1.438   4.703 -0.1027 -0.0536  0.0477
 4631SOL    HW125618  11.054   1.454   4.614 -1.3168  1.6274 -0.1542
 4631SOL    HW225619  10.973   1.355   4.695 -0.2478  0.1036 -0.9011
 4632SOL     OW25620  11.476   8.981   5.454 -0.2114 -0.1428 -0.1620
 4632SOL    HW125621  11.533   9.036   5.507  0.6499 -1.4749  0.3497
 4632SOL    HW225622  11.452   8.908   5.511 -0.4278 -0.8672 -1.1434
 4633SOL     OW25623   6.936   8.554  12.318  0.4076  0.2560 -0.1961
 4633SOL    HW125624   6.929   8.491  12.246  0.9281 -0.2361  0.1742
 4633SOL    HW225625   7.017   8.602  12.299  1.1336 -0.5997  0.6061
 4634SOL     OW25626   4.763   3.266   8.221 -0.2493 -0.2189 -0.5030
 4634SOL    HW125627   4.830   3.251   8.288  0.2277  0.7001 -0.7467
 4634SOL    HW225628   4.717   3.183   8.213  1.7805 -1.3242 -1.3311
 4635SOL     OW25629   4.108  13.225  11.015 -0.0731 -0.0704  0.0202
 4635SOL    HW125630   4.185  13.252  10.965 -0.8353 -0.3986 -1.3770
 4635SOL    HW225631   4.097  13.294  11.081  0.8014  0.5179 -0.4292
 4636SOL     OW25632   7.707  11.777  12.943  0.1220 -0.4279 -0.6589
 4636SOL    HW125633   7.698  11.828  13.023 -1.3974 -0.6789 -0.6482
 4636SOL    HW225634   7.778  11.820  12.895 -0.4543  1.0903 -0.1967
 4637SOL     OW25635  12.310   4.246   7.581 -0.5311  0.1197  0.3530
 4637SOL    HW125636  12.282   4.164   7.542  0.9307 -0.9234  1.3882
 4637SOL    HW225637  12.299   4.311   7.512  2.9812 -1.7969 -2.3431
 4638SOL     OW25638   2.288   0.529  12.702 -0.0263 -0.1220  0.1125
 4638SOL    HW125639   2.223   0.515  12.771  0.1857 -3.6179 -0.1983
 4638SOL    HW225640   2.238   0.524  12.620  0.4465 -2.3508 -0.1094
 4639SOL     OW25641   3.928   5.505  12.807 -0.3172 -0.1735 -0.5334
 4639SOL    HW125642   3.975   5.548  12.735  0.4013  0.1065  0.0950
 4639SOL    HW225643   3.937   5.566  12.880 -4.3394  1.4994 -1.1619
 4640SOL     OW25644   6.950   5.542   4.170 -0.6355 -0.5915 -0.4565
 4640SOL    HW125645   6.981   5.631   4.154 -1.0262  0.1344  2.2188
 4640SOL    HW225646   6.874   5.533   4.113 -2.3213  1.9330  1.1571
 4641SOL     OW25647   5.054   9.113   1.129 -0.5210  0.3441 -0.1027
 4641SOL    HW125648   5.027   9.173   1.199  0.1548 -0.3003  0.7264
 4641SOL    HW225649   5.145   9.137   1.111 -0.0735 -0.7439  0.5983
 4642SOL     OW25650   9.096  12.552   6.569  0.0576  0.3628 -0.3397
 4642SOL    HW125651   9.165  12.485   6.568 -0.4588 -0.1607 -1.0954
 4642SOL    HW225652   9.136  12.628   6.525  0.6504  0.5822  0.5358
 4643SOL     OW25653  10.586   7.808   5.327 -0.0479 -0.3064 -0.5093
 4643SOL    HW125654  10.608   7.744   5.260 -0.5108 -0.8951 -0.1037
 4643SOL    HW225655  10.551   7.883   5.277 -2.1722 -1.4445 -0.8768
 4644SOL     OW25656   8.761   0.340   6.091  0.5126  0.0765  0.2565
 4644SOL    HW125657   8.786   0.250   6.113  2.1083  0.3351 -0.2943
 4644SOL    HW225658   8.827   0.394   6.135  0.8587  0.8355 -1.1270
 4645SOL     OW25659   5.702   6.313   8.735  0.1280  0.2143 -0.4091
 4645SOL    HW125660   5.752   6.357   8.803  1.3715  1.2323 -1.9046
 4645SOL    HW225661   5.678   6.228   8.773  1.6033  0.3680  0.9479
 4646SOL     OW25662   9.874   8.187   1.648 -0.1168 -0.9926  0.0320
 4646SOL    HW125663   9.928   8.184   1.727 -3.2092 -0.2430  2.3581
 4646SOL    HW225664   9.918   8.251   1.592  0.8004  0.5386  2.3464
 4647SOL     OW25665   5.943   9.150   4.877  0.4970  0.7096 -0.2039
 4647SOL    HW125666   6.024   9.191   4.907  0.6050  0.0526  0.4626
 4647SOL    HW225667   5.962   9.056   4.879 -0.3528  0.5325  0.2048
 4648SOL     OW25668   8.522   9.531   9.713 -0.5997 -0.0616  0.3894
 4648SOL    HW125669   8.582   9.471   9.667  0.2167  1.4226 -0.5728
 4648SOL    HW225670   8.497   9.595   9.646 -0.3586  1.4676  1.7045
 4649SOL     OW25671   6.143   3.660   8.847 -0.2437 -0.0235  0.5041
 4649SOL    HW125672   6.114   3.751   8.855 -0.1932  0.0058  0.3573
 4649SOL    HW225673   6.085   3.622   8.782  0.5730  0.2647 -0.4212
 4650SOL     OW25674   6.416  13.423  12.360 -0.6431  0.0942 -0.3486
 4650SOL    HW125675   6.432  13.448  12.270  0.4226  0.7835  0.0101
 4650SOL    HW225676   6.469  13.483  12.412 -0.4756 -0.9037  0.6886
 4651SOL     OW25677   4.260   6.630  13.217  0.5688 -0.0636 -0.1965
 4651SOL    HW125678   4.332   6.694  13.215 -0.3048  0.9543 -0.1712
 4651SOL    HW225679   4.297   6.553  13.260  0.9867  1.3051  2.0270
 4652SOL     OW25680   5.699   1.589   4.283 -0.0491 -0.2086  0.3570
 4652SOL    HW125681   5.665   1.645   4.352 -0.6659 -1.1227  0.8104
 4652SOL    HW225682   5.757   1.528   4.328 -0.7557 -1.0572  0.1400
 4653SOL     OW25683   2.871   3.660   1.170 -0.7887 -0.1636  0.0740
 4653SOL    HW125684   2.899   3.735   1.118  0.3308 -0.7344 -0.1647
 4653SOL    HW225685   2.777   3.674   1.183 -0.4070  1.8778  1.0091
 4654SOL     OW25686  12.419   7.648   4.752  0.1956 -0.1752 -0.5418
 4654SOL    HW125687  12.391   7.661   4.843 -1.1263  0.1443 -0.9754
 4654SOL    HW225688  12.514   7.661   4.755  0.1123  0.3814  0.6996
 4655SOL     OW25689  13.610   1.428   1.712  0.2023 -0.1554 -0.2239
 4655SOL    HW125690  13.553   1.504   1.702  0.4457  0.0415 -0.0980
 4655SOL    HW225691  13.628   1.400   1.622  1.2487  0.7739 -0.3233
 4656SOL     OW25692  12.321   7.388   3.183 -0.1125  0.5636  0.5247
 4656SOL    HW125693  12.286   7.404   3.271  1.6574 -0.1099  1.4237
 4656SOL    HW225694  12.370   7.305   3.192 -0.9178 -0.1854 -1.4257
 4657SOL     OW25695  11.102   0.921   9.126  0.0984  0.4218  0.6086
 4657SOL    HW125696  11.007   0.918   9.118  0.0426  2.0040  0.3185
 4657SOL    HW225697  11.134   0.856   9.064 -0.7730  0.3922  0.1857
 4658SOL     OW25698   6.742  10.945   4.266  0.0768 -0.1468 -0.3284
 4658SOL    HW125699   6.710  10.942   4.176 -1.9390 -1.2252  0.3631
 4658SOL    HW225700   6.707  11.027   4.301  0.2056 -0.1041 -0.2993
 4659SOL     OW25701  10.839   2.301   8.176 -0.1206 -0.3143  0.6315
 4659SOL    HW125702  10.912   2.359   8.195  1.0523 -1.3809 -0.4164
 4659SOL    HW225703  10.804   2.333   8.093  0.1406 -0.7216  0.3610
 4660SOL     OW25704   1.574  11.750   5.209 -0.0111  1.0968 -0.2795
 4660SOL    HW125705   1.568  11.697   5.289  3.4470 -0.6680 -0.9892
 4660SOL    HW225706   1.605  11.836   5.240 -1.3724  1.3483  0.4709
 4661SOL     OW25707  13.102   8.341   5.742  0.4117 -0.3320 -0.1517
 4661SOL    HW125708  13.099   8.367   5.650  1.0307 -0.8898 -0.3280
 4661SOL    HW225709  13.182   8.382   5.776 -0.2677  0.6096  0.3711
 4662SOL     OW25710  12.621  10.589   8.281 -0.4242 -0.8659 -0.0028
 4662SOL    HW125711  12.707  10.552   8.262 -0.7692 -1.2292 -0.9087
 4662SOL    HW225712  12.629  10.624   8.370  0.9835  0.0786 -0.4763
 4663SOL     OW25713  13.076   7.448  13.501 -0.1914 -0.0602  0.1988
 4663SOL    HW125714  13.140   7.458  13.572 -0.6423  0.1713  0.5751
 4663SOL    HW225715  13.117   7.386  13.440 -0.1318 -0.8767  1.0445
 4664SOL     OW25716   0.771  13.011   2.206 -0.7313  0.6881  0.1356
 4664SOL    HW125717   0.756  12.956   2.129 -0.7322 -0.0263  0.6417
 4664SOL    HW225718   0.798  12.950   2.275 -1.7546  1.1769  0.9999
 4665SOL     OW25719   1.385   6.868   5.097  0.1016  0.0922  0.1319
 4665SOL    HW125720   1.394   6.829   5.010  1.5721  1.0685 -0.1757
 4665SOL    HW225721   1.441   6.815   5.153 -1.6442 -1.1952  0.7668
 4666SOL     OW25722   1.432   4.408   3.200  0.7339  0.0795  0.0877
 4666SOL    HW125723   1.521   4.374   3.202  0.7465  0.0950 -0.2065
 4666SOL    HW225724   1.381   4.343   3.249  1.1580  0.8245  1.5918
 4667SOL     OW25725  12.401   9.650   8.377  0.2759 -0.1627 -0.2115
 4667SOL    HW125726  12.464   9.605   8.433  0.3448 -2.7872 -2.1673
 4667SOL    HW225727  12.432   9.740   8.372  1.2050 -0.2637  2.5033
 4668SOL     OW25728   2.449  10.804   2.118 -0.3283 -0.0271  0.6343
 4668SOL    HW125729   2.394  10.882   2.108  0.7747  0.5737 -1.1162
 4668SOL    HW225730   2.387  10.734   2.138 -1.3230  1.3119  2.5702
 4669SOL     OW25731   2.422   1.694   1.231  0.0896 -0.2360 -0.2496
 4669SOL    HW125732   2.399   1.765   1.291 -1.5827 -0.9750  0.0347
 4669SOL    HW225733   2.384   1.721   1.147  1.2796  0.1679 -0.6820
 4670SOL     OW25734   0.992  13.564   1.119 -0.0418 -0.3334  0.2612
 4670SOL    HW125735   1.038  13.536   1.198  1.5014 -0.3479 -0.6049
 4670SOL    HW225736   0.954  13.648   1.143 -0.7273 -0.9438  1.4153
 4671SOL     OW25737   2.001   2.322  12.774 -0.3344  0.3084  0.6618
 4671SOL    HW125738   1.995   2.374  12.854 -2.9904 -0.5012  1.0851
 4671SOL    HW225739   1.940   2.249  12.788 -0.2580 -0.3208 -1.7710
 4672SOL     OW25740   1.730   0.492   7.690  0.2831 -0.7220 -0.3748
 4672SOL    HW125741   1.750   0.424   7.625  1.2288 -0.9743  0.1577
 4672SOL    HW225742   1.804   0.552   7.686  0.1762 -0.5410  0.2040
 4673SOL     OW25743   4.423   1.742   8.676 -0.2855  0.4540  0.0315
 4673SOL    HW125744   4.339   1.700   8.694  1.5314 -3.8691 -0.4030
 4673SOL    HW225745   4.458   1.764   8.762 -0.5463 -0.6270  0.4203
 4674SOL     OW25746   8.766   9.463   6.995  0.1415 -0.2729 -0.7465
 4674SOL    HW125747   8.739   9.555   7.001  0.7300 -0.1632  0.4115
 4674SOL    HW225748   8.683   9.415   6.999 -0.0443  0.0501  3.0247
 4675SOL     OW25749   9.940   8.131   0.494 -0.0759 -0.3240  1.0648
 4675SOL    HW125750   9.977   8.172   0.572  1.4174 -1.0664  0.7921
 4675SOL    HW225751   9.848   8.115   0.515 -0.3284  1.7297  1.7353
 4676SOL     OW25752   2.033  13.712   6.256 -0.9672 -0.4879  0.0886
 4676SOL    HW125753   1.988  13.743   6.335 -1.4390 -0.8036 -0.0491
 4676SOL    HW225754   2.103  13.775   6.242 -0.0352 -1.1561  1.5301
 4677SOL     OW25755   8.346   2.022   4.190  0.6550  0.4465  0.5256
 4677SOL    HW125756   8.388   2.065   4.115 -0.2042 -0.9858 -0.8206
 4677SOL    HW225757   8.254   2.045   4.182  0.7212  1.3516  1.9379
 4678SOL     OW25758   7.388   0.189   1.703  0.3948 -0.5810  0.0296
 4678SOL    HW125759   7.413   0.246   1.775  2.0491 -1.2771  0.0454
 4678SOL    HW225760   7.298   0.162   1.724  0.5665 -0.1520  1.4023
 4679SOL     OW25761  12.284   8.510   1.317  0.1094  0.0741  0.1133
 4679SOL    HW125762  12.368   8.465   1.328 -0.4299 -1.1686 -0.7190
 4679SOL    HW225763  12.228   8.471   1.384 -0.2148 -0.1308 -0.2779
 4680SOL     OW25764   1.479   2.632   0.722 -0.2561  0.0490  0.4286
 4680SOL    HW125765   1.568   2.647   0.690 -0.4441 -0.2970 -0.2796
 4680SOL    HW225766   1.428   2.705   0.686 -1.1573 -2.0484 -2.9645
 4681SOL     OW25767   1.809   1.084   6.597  0.2050  0.1606 -0.0574
 4681SOL    HW125768   1.818   1.017   6.530  0.0423 -1.0268  1.0829
 4681SOL    HW225769   1.853   1.161   6.560  3.4896 -1.5581 -0.0002
 4682SOL     OW25770   1.520   2.431  13.106  0.6768  0.1157  0.3832
 4682SOL    HW125771   1.586   2.408  13.171 -0.0085 -0.5248  0.8672
 4682SOL    HW225772   1.492   2.520  13.130  0.8005  0.0833  0.6440
 4683SOL     OW25773   6.245   7.246   6.094  0.0606 -0.3154 -0.4318
 4683SOL    HW125774   6.322   7.244   6.152 -1.2736 -2.5517  1.4452
 4683SOL    HW225775   6.228   7.339   6.080  2.4579  0.2580 -0.0740
 4684SOL     OW25776   8.945  11.114   1.537 -0.3901  0.2481 -0.1052
 4684SOL    HW125777   8.997  11.037   1.514  0.3710  0.6016  0.4049
 4684SOL    HW225778   8.923  11.101   1.629 -0.6423  0.4246 -0.1410
 4685SOL     OW25779   3.468   9.749  13.347  0.1270 -0.1141  0.0706
 4685SOL    HW125780   3.500   9.839  13.337  1.0993 -0.2848  1.3053
 4685SOL    HW225781   3.499   9.704  13.268  2.5998 -0.1406  0.9599
 4686SOL     OW25782   9.592  12.546   7.997 -0.5993 -0.3514  0.0874
 4686SOL    HW125783   9.681  12.578   8.015 -0.1752 -0.7587 -1.1807
 4686SOL    HW225784   9.554  12.613   7.940 -1.3335  0.1140  1.1021
 4687SOL     OW25785   0.120  11.085   1.729  0.2356  0.0609  0.3781
 4687SOL    HW125786   0.037  11.049   1.697 -1.3475  1.0356  3.0329
 4687SOL    HW225787   0.094  11.163   1.778  2.5441 -0.3832  2.5025
 4688SOL     OW25788   4.946   1.692   7.151 -0.0680  0.3045  0.4254
 4688SOL    HW125789   4.867   1.658   7.109 -0.5335 -0.2261  1.6867
 4688SOL    HW225790   4.954   1.781   7.119  0.0433 -0.3212 -1.3884
 4689SOL     OW25791   4.728  10.632  13.569 -0.1324  0.5249  0.5064
 4689SOL    HW125792   4.799  10.696  13.566  0.0464  0.3002 -0.7504
 4689SOL    HW225793   4.711  10.618  13.662  1.5098  0.5424  0.8289
 4690SOL     OW25794   1.615   9.650   0.289 -0.4092 -0.7468  0.2719
 4690SOL    HW125795   1.656   9.582   0.236 -0.9753 -0.5282 -0.4589
 4690SOL    HW225796   1.564   9.602   0.354 -0.9115 -1.0270 -0.3211
 4691SOL     OW25797   8.152   8.564  11.202  0.6424 -0.3376  0.6648
 4691SOL    HW125798   8.129   8.605  11.285 -1.3351  0.0816 -0.0264
 4691SOL    HW225799   8.137   8.633  11.137 -1.1820 -1.6108 -0.3614
 4692SOL     OW25800  10.471   7.695  12.217 -0.2034  0.1996 -0.1482
 4692SOL    HW125801  10.383   7.661  12.201  1.0189 -4.1300  1.0309
 4692SOL    HW225802  10.486   7.678  12.310  2.2392 -0.3197 -0.5711
 4693SOL     OW25803   1.874   3.958   3.965 -0.2216  0.1632 -0.2071
 4693SOL    HW125804   1.881   3.978   3.871 -1.2159  0.2928 -0.2549
 4693SOL    HW225805   1.847   3.867   3.968  0.2375  0.0290 -0.0326
 4694SOL     OW25806   6.732   0.110   5.690 -0.1591  0.5107  0.3962
 4694SOL    HW125807   6.712   0.168   5.764 -1.5402 -0.5118  0.8808
 4694SOL    HW225808   6.724   0.022   5.727 -1.2605 -0.0303 -1.0341
 4695SOL     OW25809  13.290  12.953   0.983  0.2896 -0.0254  0.0462
 4695SOL    HW125810  13.218  12.992   0.933 -1.5274  1.3676  3.4346
 4695SOL    HW225811  13.368  12.998   0.949 -0.7765  0.6676 -1.6523
 4696SOL     OW25812   5.858   5.922  10.403 -0.0348  0.5089 -0.1280
 4696SOL    HW125813   5.952   5.908  10.400 -0.1603 -1.2448  1.6767
 4696SOL    HW225814   5.847   6.001  10.456  0.4091  0.9873 -0.7320
 4697SOL     OW25815   8.377   5.339   1.239 -0.1725 -0.2801  0.4781
 4697SOL    HW125816   8.425   5.397   1.179  0.6432 -0.0541  1.3304
 4697SOL    HW225817   8.305   5.394   1.271 -0.6745 -0.4307 -0.3379
 4698SOL     OW25818   0.704   3.040  13.690 -0.2036  0.0379  0.3839
 4698SOL    HW125819   0.633   2.986  13.724 -0.2261 -0.1373  0.0577
 4698SOL    HW225820   0.780   3.015  13.742 -0.8516  1.9205  2.4071
 4699SOL     OW25821   0.016   6.983   8.370  0.2461 -0.2569 -0.0624
 4699SOL    HW125822  -0.055   6.979   8.305 -1.1420  0.0028  1.3725
 4699SOL    HW225823  -0.020   7.035   8.442  1.8019 -0.3847  0.8586
 4700SOL     OW25824   7.715   9.582   5.617  0.2668  0.3150 -0.3713
 4700SOL    HW125825   7.744   9.671   5.603  0.0108  0.3796 -0.4989
 4700SOL    HW225826   7.624   9.590   5.646 -0.1015  0.0494 -1.4212
 4701SOL     OW25827   3.558   9.824   8.423  0.3354 -0.2753 -0.0739
 4701SOL    HW125828   3.611   9.880   8.366  0.0594  0.4145  0.3360
 4701SOL    HW225829   3.593   9.838   8.511  1.3201 -1.9813 -0.1401
 4702SOL     OW25830   8.483   8.106   3.592 -0.3342 -0.0923  0.1173
 4702SOL    HW125831   8.488   8.193   3.553  0.0969  0.5307  1.4916
 4702SOL    HW225832   8.418   8.115   3.662 -0.9968 -1.1390 -0.3417
 4703SOL     OW25833  12.374   6.190   2.408  0.2620 -0.2540  0.4946
 4703SOL    HW125834  12.411   6.264   2.456  0.8394 -0.6337  0.6429
 4703SOL    HW225835  12.446   6.157   2.354 -0.9875  1.7114 -2.6421
 4704SOL     OW25836   5.878   5.838   5.246 -0.4731 -0.0340  0.1721
 4704SOL    HW125837   5.924   5.795   5.318  1.6286  0.0968 -1.0082
 4704SOL    HW225838   5.881   5.775   5.174 -1.6631  0.2189 -0.1105
 4705SOL     OW25839  12.127  11.490  12.304  0.2927  0.3925 -0.0129
 4705SOL    HW125840  12.050  11.461  12.254  0.0682 -0.2181  0.6672
 4705SOL    HW225841  12.181  11.411  12.313  1.1041  0.8592 -0.6504
 4706SOL     OW25842  11.909   4.716   1.007 -0.3678 -0.0083  0.2875
 4706SOL    HW125843  11.974   4.743   0.942 -1.0022 -0.1119 -0.4106
 4706SOL    HW225844  11.848   4.661   0.957 -0.6814 -0.3626  1.0532
 4707SOL     OW25845  10.554  10.954  10.168 -0.4384 -0.4461 -0.4134
 4707SOL    HW125846  10.587  10.944  10.079 -1.8642  1.3873 -1.1981
 4707SOL    HW225847  10.620  11.008  10.212  0.8428 -2.2859  0.0547
 4708SOL     OW25848  12.213   7.131   1.091 -0.1249  0.2208 -0.0166
 4708SOL    HW125849  12.193   7.207   1.037 -1.9252  0.0727  0.3678
 4708SOL    HW225850  12.194   7.160   1.180  0.6482 -0.2245  0.2991
 4709SOL     OW25851  11.945   1.994  13.536  0.0096 -0.4795 -0.0506
 4709SOL    HW125852  12.009   2.061  13.562 -0.8864  0.5663 -0.4706
 4709SOL    HW225853  11.892   1.982  13.615  0.4300 -1.0119  0.1550
 4710SOL     OW25854  10.965  12.190   6.512 -0.4059  0.1567 -1.1404
 4710SOL    HW125855  10.944  12.283   6.504 -0.3361  0.2360 -0.4914
 4710SOL    HW225856  11.051  12.181   6.471 -0.9719  0.1343 -2.3520
 4711SOL     OW25857   8.099   7.511   5.767  0.2464  0.0561 -0.1036
 4711SOL    HW125858   8.179   7.476   5.727  0.8081 -0.5488  1.4995
 4711SOL    HW225859   8.121   7.601   5.790  0.4011 -0.0569  0.1834
 4712SOL     OW25860   6.614  12.777   2.288 -0.0696 -0.4752 -0.8960
 4712SOL    HW125861   6.558  12.768   2.210 -1.0612 -0.3326 -0.2174
 4712SOL    HW225862   6.595  12.865   2.320 -0.9287 -1.1112  0.4325
 4713SOL     OW25863  10.456   0.478   4.033  0.6261 -0.3187 -0.2143
 4713SOL    HW125864  10.523   0.496   3.967  1.1773 -0.5205  0.2783
 4713SOL    HW225865  10.499   0.496   4.116 -0.0635 -0.0596  0.0944
 4714SOL     OW25866   1.848   4.291   6.832  0.1173 -0.4343  0.4020
 4714SOL    HW125867   1.850   4.231   6.907  0.9479  1.5031  2.0143
 4714SOL    HW225868   1.755   4.309   6.817 -0.0175  0.8852  2.4841
 4715SOL     OW25869  11.466   3.137   1.862  0.3685 -0.0245  0.2455
 4715SOL    HW125870  11.376   3.158   1.837  0.1245 -0.6247  0.5749
 4715SOL    HW225871  11.509   3.221   1.872 -1.6627  0.7831  5.6787
 4716SOL     OW25872  12.152   7.148   2.620 -0.3486 -0.6208  0.3289
 4716SOL    HW125873  12.115   7.127   2.534  0.8322 -1.3088 -0.0386
 4716SOL    HW225874  12.088   7.206   2.660 -0.5638  0.3768 -1.3423
 4717SOL     OW25875  10.161   6.298   9.947 -0.1337 -0.3779 -0.2390
 4717SOL    HW125876  10.161   6.324   9.855 -1.3211  0.1113 -0.1203
 4717SOL    HW225877  10.163   6.381   9.996 -2.6263 -0.4419  0.1416
 4718SOL     OW25878  10.777   9.899   1.748 -0.0602  0.5825  0.4037
 4718SOL    HW125879  10.734   9.841   1.810 -0.5436  1.0446  0.5103
 4718SOL    HW225880  10.714   9.970   1.734  0.4009  0.9301  0.0555
 4719SOL     OW25881   8.226   6.357   5.335  0.0364 -0.6941  0.3459
 4719SOL    HW125882   8.276   6.413   5.274  1.7631 -2.3750  0.1063
 4719SOL    HW225883   8.136   6.360   5.302  0.8848 -1.4750 -2.3401
 4720SOL     OW25884  12.271  12.148   7.858 -0.3665 -0.6880 -0.5346
 4720SOL    HW125885  12.297  12.148   7.766  1.2239 -1.7579 -0.1112
 4720SOL    HW225886  12.353  12.155   7.907 -1.2845  2.5530  0.8381
 4721SOL     OW25887   6.024   2.586   7.726  0.1135 -0.5597  0.7062
 4721SOL    HW125888   6.004   2.501   7.765 -0.0359 -1.6875 -1.7011
 4721SOL    HW225889   5.977   2.587   7.643  1.1463  1.3532  0.0758
 4722SOL     OW25890  12.194   3.303   1.744 -0.0373 -0.2822 -0.1016
 4722SOL    HW125891  12.177   3.209   1.751 -0.8964 -0.1116  0.2337
 4722SOL    HW225892  12.261   3.310   1.677 -0.2136 -1.1121 -0.3792
 4723SOL     OW25893   4.909  11.946  10.705  0.3593  0.3966  0.1167
 4723SOL    HW125894   4.909  11.974  10.796  0.7830 -2.1605  0.9827
 4723SOL    HW225895   4.979  11.998  10.664  0.7813  0.9395  1.4691
 4724SOL     OW25896   7.198  11.262  10.465 -0.3209 -0.1591 -0.7373
 4724SOL    HW125897   7.254  11.305  10.530 -1.8865  0.1947  0.4669
 4724SOL    HW225898   7.155  11.192  10.515 -2.1430  0.6061 -1.1420
 4725SOL     OW25899   1.842  13.351  11.441  0.0641  0.8133  0.1566
 4725SOL    HW125900   1.878  13.288  11.379 -0.9257  1.0019 -0.6425
 4725SOL    HW225901   1.917  13.383  11.490  0.5063 -1.5669  1.1581
 4726SOL     OW25902   7.387   4.282  11.304  0.2293 -0.0141  0.0221
 4726SOL    HW125903   7.432   4.347  11.357 -1.5449  0.1029  1.4681
 4726SOL    HW225904   7.425   4.292  11.217  0.5933  2.4006  0.3922
 4727SOL     OW25905  11.653  11.885   9.859 -0.2926  0.3890  0.2581
 4727SOL    HW125906  11.718  11.955   9.852 -0.1047  0.0854 -1.3989
 4727SOL    HW225907  11.637  11.878   9.953 -1.2647  3.4924  0.4400
 4728SOL     OW25908   3.882   9.207  11.085 -0.1077  0.7548  0.3917
 4728SOL    HW125909   3.851   9.275  11.027  0.5561  0.0449 -0.8474
 4728SOL    HW225910   3.834   9.220  11.166  0.8322  3.3999  0.6161
 4729SOL     OW25911   7.360   9.999   9.867 -0.3754 -0.0485  0.1280
 4729SOL    HW125912   7.363   9.903   9.876 -1.7516 -0.1172  0.1102
 4729SOL    HW225913   7.296  10.027   9.933  0.3627  0.9162  0.4526
 4730SOL     OW25914   7.069   2.963   9.612  0.0978 -0.3593  0.0142
 4730SOL    HW125915   7.163   2.981   9.603  0.0201 -0.2113 -0.5614
 4730SOL    HW225916   7.041   2.938   9.524 -0.1280 -1.7774  0.4606
 4731SOL     OW25917  13.377   5.878   6.880 -0.1394  0.1234 -0.1939
 4731SOL    HW125918  13.408   5.827   6.954 -0.0352  1.2508  0.5663
 4731SOL    HW225919  13.349   5.961   6.918  0.4920  0.9606 -1.4867
 4732SOL     OW25920   7.543  10.977   0.576  0.0363  0.2923  0.0754
 4732SOL    HW125921   7.474  10.946   0.634  0.2835 -0.4136  0.0087
 4732SOL    HW225922   7.567  10.900   0.524  1.8693  0.0898  1.1035
 4733SOL     OW25923  11.157   9.302   9.927 -0.3947  0.3966 -0.0451
 4733SOL    HW125924  11.220   9.371   9.907 -0.4110  0.2643 -0.5672
 4733SOL    HW225925  11.164   9.290  10.022  2.9165 -2.0459 -0.4277
 4734SOL     OW25926  11.102   3.795  10.072 -1.0337  0.1179  0.2438
 4734SOL    HW125927  11.100   3.731  10.144  1.9289  0.9005  1.1777
 4734SOL    HW225928  11.024   3.848  10.085 -0.1685  0.8292  3.5790
 4735SOL     OW25929  12.164   8.043  11.972  0.1629 -0.4758 -0.1141
 4735SOL    HW125930  12.071   8.037  11.949  0.0738 -0.5377  0.2502
 4735SOL    HW225931  12.180   7.967  12.027  0.2771 -0.1275  0.3406
 4736SOL     OW25932  11.385   7.594   9.015  0.3431  0.0392  0.4827
 4736SOL    HW125933  11.436   7.529   9.064  1.7453 -0.2442 -1.2667
 4736SOL    HW225934  11.328   7.541   8.959 -0.1781  0.3546  0.7097
 4737SOL     OW25935  13.676   2.018  10.900  0.0089 -0.2504  0.6705
 4737SOL    HW125936  13.657   1.977  10.984  1.8015  0.2979  1.3933
 4737SOL    HW225937  13.708   2.106  10.923  0.4579 -0.0658 -0.5711
 4738SOL     OW25938  12.263   7.508  10.788 -0.5959  0.1327  0.4129
 4738SOL    HW125939  12.312   7.472  10.714 -1.4756 -1.2360  0.4727
 4738SOL    HW225940  12.330   7.543  10.846  0.1474  0.6717 -0.7287
 4739SOL     OW25941   1.702  12.908  12.640 -0.5942 -0.1970 -0.1661
 4739SOL    HW125942   1.736  12.997  12.626 -0.4423  0.0021  1.2780
 4739SOL    HW225943   1.780  12.856  12.659 -0.9499  0.1608  2.6651
 4740SOL     OW25944   9.367  13.455   5.845 -0.3807 -0.1520 -0.8078
 4740SOL    HW125945   9.349  13.549   5.849  0.9511  0.0825  1.3037
 4740SOL    HW225946   9.327  13.421   5.926 -0.5699 -1.3640 -1.3978
 4741SOL     OW25947   0.247   1.849  12.994  0.1675  0.2889 -0.2269
 4741SOL    HW125948   0.223   1.762  12.962  0.9580  0.1350 -0.4379
 4741SOL    HW225949   0.229   1.846  13.088  0.2592 -0.1339 -0.2184
 4742SOL     OW25950   4.041   1.516   9.982  0.1317 -0.1891 -0.1920
 4742SOL    HW125951   4.040   1.611   9.992 -2.2898 -0.1941  0.2236
 4742SOL    HW225952   4.019   1.501   9.890  0.1571 -0.3565 -0.1719
 4743SOL     OW25953   0.471  10.375   6.200  0.0745 -0.5836 -0.7084
 4743SOL    HW125954   0.559  10.405   6.221  0.1188 -1.7281  0.9009
 4743SOL    HW225955   0.483  10.316   6.126  0.5989 -0.4511 -0.7355
 4744SOL     OW25956   9.623   8.786   9.575 -0.1328  0.0406  0.5396
 4744SOL    HW125957   9.658   8.859   9.626  0.4698 -1.8907  3.1153
 4744SOL    HW225958   9.567   8.738   9.637 -0.3455 -1.7774 -0.9616
 4745SOL     OW25959   7.974   8.695   8.103 -0.2048  0.8659  0.3264
 4745SOL    HW125960   7.929   8.771   8.064 -0.7205 -0.0621 -0.9679
 4745SOL    HW225961   7.903   8.638   8.132 -0.0783 -1.2863 -3.0266
 4746SOL     OW25962   5.060   1.948   8.097 -0.0545 -0.4834 -0.3522
 4746SOL    HW125963   5.153   1.968   8.081  0.3223 -1.3395  0.6170
 4746SOL    HW225964   5.037   2.003   8.172 -0.5026  0.1390 -0.9372
 4747SOL     OW25965   5.765   0.306   5.458 -0.4104 -0.2207  0.2787
 4747SOL    HW125966   5.697   0.307   5.392 -0.9054  0.0625  0.7805
 4747SOL    HW225967   5.839   0.261   5.417 -1.2029 -1.3357  0.0297
 4748SOL     OW25968   0.179   8.295   2.093 -0.0516 -0.0996  0.2728
 4748SOL    HW125969   0.264   8.253   2.101  0.1480 -0.1723 -1.7214
 4748SOL    HW225970   0.116   8.222   2.092  0.0581 -0.1888 -0.4304
 4749SOL     OW25971   1.788   2.325   8.855 -0.5699 -0.4776  0.1490
 4749SOL    HW125972   1.760   2.381   8.927  1.7449 -1.7484  2.2147
 4749SOL    HW225973   1.721   2.256   8.851 -0.8054 -0.3174  1.0314
 4750SOL     OW25974   4.939   0.509   3.782  0.5015 -0.3528 -0.2158
 4750SOL    HW125975   5.014   0.486   3.726  0.6642  0.5331 -0.3795
 4750SOL    HW225976   4.924   0.602   3.765 -0.4867 -0.4610  0.0069
 4751SOL     OW25977   6.984  11.330   1.582  0.2203  0.4078 -0.6816
 4751SOL    HW125978   6.974  11.242   1.546  1.5721  0.5805 -1.5963
 4751SOL    HW225979   7.071  11.329   1.623 -0.1055  1.0714  0.0378
 4752SOL     OW25980   2.342   6.673   7.554 -0.0329 -0.0187 -0.4226
 4752SOL    HW125981   2.407   6.710   7.495 -1.3462  1.9533 -0.7423
 4752SOL    HW225982   2.321   6.745   7.615  0.4790 -1.6314  1.7998
 4753SOL     OW25983   7.454   2.283  12.551  0.3890 -0.0888  0.4323
 4753SOL    HW125984   7.424   2.373  12.541 -0.9978 -0.3775  1.6502
 4753SOL    HW225985   7.381   2.230  12.522  1.1686 -0.8517 -0.2064
 4754SOL     OW25986   1.153  12.768   2.035  0.4209  0.0371 -0.1535
 4754SOL    HW125987   1.211  12.741   2.105 -0.0019 -1.2299 -0.2681
 4754SOL    HW225988   1.192  12.731   1.956  0.5847  0.9681 -0.5268
 4755SOL     OW25989   2.716  12.217   6.112 -0.3683 -0.5198 -0.5319
 4755SOL    HW125990   2.772  12.161   6.058 -0.6856 -0.2719 -1.1217
 4755SOL    HW225991   2.680  12.157   6.178 -0.6901 -1.0166 -1.1430
 4756SOL     OW25992   9.400   0.578  10.787  0.1300  0.1770 -0.0607
 4756SOL    HW125993   9.374   0.649  10.728 -0.1859 -0.0642 -0.2158
 4756SOL    HW225994   9.395   0.616  10.875 -3.3846 -0.5666  0.2008
 4757SOL     OW25995   8.366   3.808   4.151 -0.4160 -0.8924 -0.4660
 4757SOL    HW125996   8.339   3.720   4.126  0.0737 -1.1465 -0.1286
 4757SOL    HW225997   8.334   3.864   4.081 -1.5080 -1.2168 -0.2588
 4758SOL     OW25998   8.185   3.187  11.215 -0.0820 -0.5274  0.5582
 4758SOL    HW125999   8.218   3.148  11.297  0.5981  0.4313  0.7630
 4758SOL    HW226000   8.094   3.209  11.235 -0.1062 -0.8684  0.8510
 4759SOL     OW26001  12.413   8.285   9.472  0.2407  0.1696  0.3171
 4759SOL    HW126002  12.419   8.239   9.388 -0.7408  0.6788 -0.0548
 4759SOL    HW226003  12.350   8.233   9.523 -0.0049  0.4634  0.3186
 4760SOL     OW26004  13.365   6.892   4.373 -0.5151 -0.2272 -0.2138
 4760SOL    HW126005  13.303   6.928   4.309  1.0318  0.1790 -1.5342
 4760SOL    HW226006  13.416   6.828   4.324 -0.1253 -0.8385  0.9499
 4761SOL     OW26007   1.563   5.191   8.299 -0.3327 -0.3577 -0.1467
 4761SOL    HW126008   1.504   5.243   8.245  0.3816  0.9038  0.2615
 4761SOL    HW226009   1.522   5.188   8.385  0.5151  1.1586  0.3459
 4762SOL     OW26010  12.643   7.828  10.395  0.1285  0.1936 -0.5765
 4762SOL    HW126011  12.588   7.821  10.316  0.0226 -1.4762 -0.3888
 4762SOL    HW226012  12.731   7.845  10.361 -0.0165  0.0521 -1.0382
 4763SOL     OW26013   0.529   2.186   6.812  0.2590 -0.4999 -0.1585
 4763SOL    HW126014   0.624   2.183   6.802  0.3610  1.5925 -0.2725
 4763SOL    HW226015   0.496   2.215   6.727 -0.2863  0.7342  0.4446
 4764SOL     OW26016   5.144   7.471   3.752 -0.5118 -0.8556 -0.0655
 4764SOL    HW126017   5.221   7.486   3.696 -0.4702 -0.7078  0.0306
 4764SOL    HW226018   5.115   7.383   3.730  1.1091 -1.8688  1.6154
 4765SOL     OW26019  11.483  12.565   0.670 -0.0694  0.0393  0.2906
 4765SOL    HW126020  11.452  12.519   0.592  1.4561  1.6985 -1.4008
 4765SOL    HW226021  11.415  12.629   0.689 -0.9664 -1.1135  1.0351
 4766SOL     OW26022   0.718   2.324   5.120  0.0706  0.7456  0.7455
 4766SOL    HW126023   0.776   2.257   5.084  0.5834  1.4785  0.1794
 4766SOL    HW226024   0.648   2.275   5.162  1.1725 -0.1566  1.5796
 4767SOL     OW26025  13.282   7.265   1.827 -0.4356  0.3919 -0.0658
 4767SOL    HW126026  13.301   7.174   1.804 -2.1137  0.3271 -1.4129
 4767SOL    HW226027  13.307   7.272   1.919 -1.1376 -1.7231  0.3558
 4768SOL     OW26028   8.521  13.586  11.117 -0.2661 -0.5854 -0.8292
 4768SOL    HW126029   8.608  13.587  11.158  0.5388 -1.5686 -2.4307
 4768SOL    HW226030   8.462  13.557  11.187  0.9879 -1.7576 -0.2164
 4769SOL     OW26031   2.261   9.150   3.041  0.4187  0.1037 -0.2771
 4769SOL    HW126032   2.203   9.219   3.075  1.0366  0.7796 -0.5613
 4769SOL    HW226033   2.217   9.118   2.963 -1.1891 -1.7064  1.2839
 4770SOL     OW26034  12.115   3.731   9.927 -0.2560 -0.2578  0.0369
 4770SOL    HW126035  12.068   3.658   9.969  0.1262 -0.5505 -0.0416
 4770SOL    HW226036  12.207   3.717   9.949 -0.3219  1.0171  1.2614
 4771SOL     OW26037   7.424  11.259  10.271  0.6918  0.0976  0.2475
 4771SOL    HW126038   7.406  11.353  10.273 -0.2168 -0.0551 -0.2581
 4771SOL    HW226039   7.342  11.218  10.299  0.0422 -0.6531 -2.4640
 4772SOL     OW26040   9.035  13.315   0.360 -0.1417 -0.9581 -0.3342
 4772SOL    HW126041   9.081  13.260   0.423 -0.0587 -1.5043 -0.8579
 4772SOL    HW226042   8.943  13.310   0.386  0.0947  0.2737  0.8186
 4773SOL     OW26043   2.932   0.128  10.009  0.1396  0.2266  0.1362
 4773SOL    HW126044   2.883   0.104  10.088  0.2009 -0.3889 -0.0123
 4773SOL    HW226045   2.886   0.085   9.938 -0.2282  1.2202 -0.2378
 4774SOL     OW26046  13.680   7.447   5.520 -0.8195  0.0176  0.2652
 4774SOL    HW126047  13.585   7.435   5.525 -0.7364 -1.4777 -0.9858
 4774SOL    HW226048  13.711   7.427   5.609 -1.7672  1.9085  1.0633
 4775SOL     OW26049   2.413  13.201   5.907  0.1453  0.0482 -0.1536
 4775SOL    HW126050   2.392  13.211   5.814 -0.2240  1.3476  0.0399
 4775SOL    HW226051   2.490  13.145   5.909 -0.2667 -0.5766 -1.1955
 4776SOL     OW26052   1.765   9.688  13.696 -0.4133  0.1897 -0.2081
 4776SOL    HW126053   1.781   9.614  13.756 -0.2678 -0.4756 -1.0543
 4776SOL    HW226054   1.852   9.720  13.674 -0.4595  0.3194 -0.2011
 4777SOL     OW26055   8.190   6.736   4.697 -0.0440  0.3428 -0.0722
 4777SOL    HW126056   8.146   6.657   4.665 -2.4800  1.8311 -0.5793
 4777SOL    HW226057   8.216   6.783   4.618 -0.1076  0.8467  0.2011
 4778SOL     OW26058   8.608   7.217   7.640 -0.3873  0.3174  0.4886
 4778SOL    HW126059   8.545   7.281   7.675 -1.1956 -0.6407  0.8585
 4778SOL    HW226060   8.596   7.220   7.546 -1.2381 -0.0699  0.5721
 4779SOL     OW26061   7.737  11.436  12.787  0.2751 -0.1160 -0.0036
 4779SOL    HW126062   7.796  11.499  12.747  0.7834 -0.9970 -0.6977
 4779SOL    HW226063   7.742  11.359  12.730 -2.3409  0.1364 -0.6981
 4780SOL     OW26064   5.592  13.373   1.746  0.4592  0.1634 -0.2423
 4780SOL    HW126065   5.523  13.401   1.807  1.0702 -0.2056  0.6425
 4780SOL    HW226066   5.617  13.453   1.700  0.2566  0.5333  0.2713
 4781SOL     OW26067   2.405   7.317   6.115 -0.1478  0.4164 -0.0964
 4781SOL    HW126068   2.360   7.359   6.041 -2.1985  0.9950  1.3865
 4781SOL    HW226069   2.369   7.229   6.117 -0.4237  0.5376  0.4427
 4782SOL     OW26070  11.198   2.784   0.596 -0.7657 -0.2072 -0.2020
 4782SOL    HW126071  11.243   2.765   0.679 -0.5687 -2.2946 -0.7367
 4782SOL    HW226072  11.250   2.854   0.557  1.7390 -2.0961 -0.4945
 4783SOL     OW26073  12.644   6.361   2.346  0.0446 -0.0084  0.2171
 4783SOL    HW126074  12.654   6.348   2.440 -1.4691 -0.8081  0.2979
 4783SOL    HW226075  12.586   6.291   2.318  1.1839 -0.3418 -1.4963
 4784SOL     OW26076  10.533   8.591   7.847  0.0442 -0.0335  0.1630
 4784SOL    HW126077  10.541   8.512   7.902 -0.5044 -0.1716  0.0509
 4784SOL    HW226078  10.591   8.655   7.888 -1.7474  0.4810  2.0086
 4785SOL     OW26079   7.226  12.428   7.676 -0.0700  0.1166 -1.2477
 4785SOL    HW126080   7.297  12.377   7.716 -0.4500  0.6332  0.1562
 4785SOL    HW226081   7.174  12.363   7.629  1.1946 -0.3001 -2.1107
 4786SOL     OW26082   3.947   0.811   5.152  0.0883 -0.2532  0.0133
 4786SOL    HW126083   3.873   0.805   5.213  0.1573  1.9906  0.4093
 4786SOL    HW226084   3.948   0.903   5.125  3.1314 -0.0428  0.5298
 4787SOL     OW26085   2.739  13.597  10.828 -0.3259  0.3890 -0.0755
 4787SOL    HW126086   2.699  13.673  10.870 -0.0909  0.4599  0.0245
 4787SOL    HW226087   2.754  13.625  10.737  0.1956  0.6361  0.0785
 4788SOL     OW26088   5.917  11.372   5.998 -0.0953 -0.6078  0.4312
 4788SOL    HW126089   5.879  11.459   6.008  1.1936  0.1508 -0.9931
 4788SOL    HW226090   5.890  11.344   5.911  0.8582 -0.9435  0.2346
 4789SOL     OW26091  12.691  12.950  11.171 -0.7318  0.0325 -0.0205
 4789SOL    HW126092  12.730  12.902  11.244 -0.2236 -1.4922 -1.2268
 4789SOL    HW226093  12.645  12.883  11.121 -1.0558  1.0388 -1.1100
 4790SOL     OW26094   6.879   7.734   1.370 -0.4953 -0.7050  0.1225
 4790SOL    HW126095   6.823   7.711   1.295  1.0243 -0.7439 -1.0660
 4790SOL    HW226096   6.818   7.751   1.441 -1.9611 -2.0492 -0.7334
 4791SOL     OW26097   5.562  13.319  12.171  0.2311 -0.1919 -0.2015
 4791SOL    HW126098   5.505  13.244  12.162  0.0812  0.0286 -1.2104
 4791SOL    HW226099   5.541  13.356  12.256  0.6430 -1.5508  0.5182
 4792SOL     OW26100   4.631   9.214   3.936 -0.2380  0.5060  0.0466
 4792SOL    HW126101   4.642   9.252   4.023 -1.6281  1.7182 -0.2681
 4792SOL    HW226102   4.650   9.121   3.948  2.7408  1.1098  0.9644
 4793SOL     OW26103  12.415  10.000  11.934 -0.0186 -0.1465 -0.1452
 4793SOL    HW126104  12.452  10.032  12.016 -0.4813 -1.3480  0.5575
 4793SOL    HW226105  12.424  10.073  11.873 -1.5401  1.5189  1.5252
 4794SOL     OW26106  12.886  10.968   3.898  0.3819  0.4976 -0.1857
 4794SOL    HW126107  12.903  10.877   3.925  1.4993  0.8282  0.2942
 4794SOL    HW226108  12.832  10.960   3.819 -0.5835 -0.5574  0.5469
 4795SOL     OW26109   7.341   0.408   7.283 -0.0634 -0.3047  0.3714
 4795SOL    HW126110   7.412   0.399   7.347  0.2222 -3.3747 -0.1998
 4795SOL    HW226111   7.275   0.344   7.311 -1.5231  0.7474 -0.4962
 4796SOL     OW26112  12.669   8.932   2.026  0.5884  0.0937 -0.1121
 4796SOL    HW126113  12.600   8.921   1.961 -0.8021 -0.7827  1.4419
 4796SOL    HW226114  12.631   8.901   2.108  2.4200  0.7453  1.0640
 4797SOL     OW26115   6.360   0.653   2.614  0.3911 -0.5893  0.1291
 4797SOL    HW126116   6.277   0.672   2.658 -0.1122  0.3520 -1.1650
 4797SOL    HW226117   6.426   0.664   2.682 -0.5312 -1.6264  1.2567
 4798SOL     OW26118   7.105   6.493   8.783  0.0363 -0.0173 -0.1107
 4798SOL    HW126119   7.171   6.560   8.770 -0.8128  0.9841  0.5218
 4798SOL    HW226120   7.085   6.496   8.877 -1.4330  0.2414 -0.3999
 4799SOL     OW26121   8.123   8.828   9.369 -0.2644 -0.3377  0.3213
 4799SOL    HW126122   8.212   8.837   9.335  0.5172 -1.2196  1.9965
 4799SOL    HW226123   8.106   8.733   9.365 -1.4155 -0.1144 -0.6182
 4800SOL     OW26124   0.001  12.016   0.523 -0.4365 -0.1573  0.1161
 4800SOL    HW126125   0.009  11.950   0.454 -0.0827  0.1495 -0.1387
 4800SOL    HW226126   0.024  12.099   0.480 -0.5898  0.0893  0.5060
 4801SOL     OW26127   6.272  13.691   0.700 -0.9373  0.2704  0.1011
 4801SOL    HW126128   6.182  13.664   0.717 -1.4449  2.0252  0.4524
 4801SOL    HW226129   6.270  13.724   0.610 -1.5179  3.3821  1.1358
 4802SOL     OW26130   9.342   0.711   9.349  0.3388 -0.1577 -0.0948
 4802SOL    HW126131   9.427   0.749   9.326 -0.4671  0.6045 -1.9510
 4802SOL    HW226132   9.352   0.684   9.441  2.2440  0.8370  0.0306
 4803SOL     OW26133   7.579  13.328   0.959 -0.0795  0.4729 -0.1451
 4803SOL    HW126134   7.607  13.297   0.873  2.2630  0.3613  0.5973
 4803SOL    HW226135   7.627  13.273   1.021 -0.3101  1.7649  1.2220
 4804SOL     OW26136   5.496  10.361  12.406  0.1125  0.4751 -0.4388
 4804SOL    HW126137   5.441  10.293  12.445  1.6859 -1.9217 -2.1230
 4804SOL    HW226138   5.435  10.418  12.360 -1.1328 -1.0222 -0.7140
 4805SOL     OW26139   5.683  12.970   4.814  0.2824  0.0296 -0.6507
 4805SOL    HW126140   5.741  12.923   4.874  0.9140  1.1887 -0.3181
 4805SOL    HW226141   5.740  13.037   4.773 -0.4726  0.1994 -1.4575
 4806SOL     OW26142  12.528   5.493   0.919 -0.2841 -0.1124  0.1881
 4806SOL    HW126143  12.530   5.525   0.829 -3.1121 -1.7450 -0.6157
 4806SOL    HW226144  12.515   5.398   0.910  2.3238 -0.8020  2.4006
 4807SOL     OW26145   7.053   2.408   2.005  0.1428 -0.0497 -0.5815
 4807SOL    HW126146   7.120   2.447   2.062 -0.5421 -0.4646  0.5442
 4807SOL    HW226147   7.081   2.317   1.993  0.1495 -0.0329 -0.6929
 4808SOL     OW26148   7.860   2.860   5.985 -0.2751  0.2108 -0.3866
 4808SOL    HW126149   7.875   2.767   5.965  0.9673 -0.3245  2.5759
 4808SOL    HW226150   7.768   2.874   5.965 -0.4012 -1.5563 -1.2359
 4809SOL     OW26151  13.324   7.356   2.518 -0.6265 -0.1022  0.0435
 4809SOL    HW126152  13.237   7.393   2.536 -0.7302  0.1498 -0.9314
 4809SOL    HW226153  13.315   7.263   2.539 -0.9285  0.0523  0.6175
 4810SOL     OW26154  12.141   3.442   4.278  0.7643  0.2294 -0.0918
 4810SOL    HW126155  12.161   3.384   4.204 -1.4895 -0.6723 -0.0742
 4810SOL    HW226156  12.221   3.441   4.331  0.8672 -2.8436 -0.1366
 4811SOL     OW26157   6.664   3.108   7.491 -0.4864  0.1824 -0.3859
 4811SOL    HW126158   6.630   3.165   7.422 -0.4324  0.9650  0.2117
 4811SOL    HW226159   6.649   3.158   7.572 -1.7066 -1.2265  0.3113
 4812SOL     OW26160   0.631   8.641   6.766 -0.4743  0.1658  0.7258
 4812SOL    HW126161   0.611   8.708   6.700  1.0576  0.3109  0.3479
 4812SOL    HW226162   0.633   8.559   6.716 -2.5377 -0.2310  1.2234
 4813SOL     OW26163   7.072  13.140   0.276  0.0073  0.4727  0.4264
 4813SOL    HW126164   7.047  13.060   0.230  0.2827  1.2778 -1.1808
 4813SOL    HW226165   7.065  13.118   0.369  0.7515 -1.6217  0.0201
 4814SOL     OW26166   7.691   2.406   3.145 -0.5331  0.4001  0.1728
 4814SOL    HW126167   7.671   2.482   3.091  1.6621  0.0894 -1.2043
 4814SOL    HW226168   7.780   2.422   3.176 -0.9097 -0.5209  1.8550
 4815SOL     OW26169  10.651  13.376   6.036 -0.0725 -0.0844  0.2278
 4815SOL    HW126170  10.629  13.290   6.000 -0.0679  0.2477 -0.5741
 4815SOL    HW226171  10.589  13.436   5.996 -2.2186 -0.1219  3.1858
 4816SOL     OW26172   8.507   4.042   8.764 -0.3173 -0.2197 -0.4150
 4816SOL    HW126173   8.549   4.098   8.829  2.2898 -0.8135 -1.4816
 4816SOL    HW226174   8.500   4.096   8.686 -1.3482 -0.2292 -0.3512
 4817SOL     OW26175  11.337   9.679   1.697  0.2277  0.2595  0.2909
 4817SOL    HW126176  11.247   9.697   1.725  0.5137  2.1571  0.1202
 4817SOL    HW226177  11.329   9.608   1.634 -1.2707  1.0206 -0.4118
 4818SOL     OW26178   9.304   2.716   6.125  0.4491 -0.3004  0.0460
 4818SOL    HW126179   9.397   2.717   6.103  0.3604  1.0487 -0.3210
 4818SOL    HW226180   9.270   2.639   6.080  1.4846 -1.1545  0.6646
 4819SOL     OW26181   7.508   9.200   6.709 -0.1129  0.1922 -0.5431
 4819SOL    HW126182   7.589   9.155   6.685 -0.3604 -0.6946  0.2094
 4819SOL    HW226183   7.524   9.231   6.798  0.5246  2.7736 -1.4864
 4820SOL     OW26184   1.328  10.911   7.682  0.5148 -0.2320 -1.1445
 4820SOL    HW126185   1.409  10.909   7.630  0.2481  0.9934 -1.6180
 4820SOL    HW226186   1.334  10.832   7.736  3.5833  1.3096  1.1539
 4821SOL     OW26187   4.530   7.033  12.038  0.0216 -0.0447  0.5553
 4821SOL    HW126188   4.446   7.030  11.994  0.1518 -4.0498  0.1735
 4821SOL    HW226189   4.510   7.057  12.128 -1.4907 -0.4533  0.3449
 4822SOL     OW26190  12.573   7.434   1.827  0.0099 -0.2963  0.2883
 4822SOL    HW126191  12.532   7.517   1.854 -2.1130 -1.6873  1.6181
 4822SOL    HW226192  12.570   7.436   1.732 -1.3985  0.5130  0.3218
 4823SOL     OW26193   2.569   5.901   4.167  0.4928  0.0209  0.3438
 4823SOL    HW126194   2.628   5.959   4.118  0.8039 -0.1338  0.5296
 4823SOL    HW226195   2.573   5.934   4.257 -0.1054  0.3280  0.2647
 4824SOL     OW26196   8.654   0.632   5.414  0.2111  0.2075  0.5165
 4824SOL    HW126197   8.742   0.595   5.403  0.0544 -0.2823  0.8874
 4824SOL    HW226198   8.668   0.709   5.469  0.3730 -0.0204  0.7959
 4825SOL     OW26199   2.557   2.136   8.682 -0.0084  0.0597  0.5825
 4825SOL    HW126200   2.495   2.173   8.745 -0.7011  0.5708 -0.3763
 4825SOL    HW226201   2.526   2.166   8.597  0.3944 -1.3511 -0.0928
 4826SOL     OW26202  12.775  12.522  10.287 -0.5964 -0.4389 -0.5391
 4826SOL    HW126203  12.707  12.484  10.343 -1.3247  0.8935 -0.4875
 4826SOL    HW226204  12.779  12.614  10.314 -1.1661  0.3169 -2.8289
 4827SOL     OW26205  11.225   6.873   9.907  0.2119  0.4359  0.1469
 4827SOL    HW126206  11.258   6.891   9.995 -1.7298  3.2783  0.4342
 4827SOL    HW226207  11.265   6.941   9.852 -0.4911  0.2358 -0.6393
 4828SOL     OW26208   7.868   5.595  11.282  0.6497 -0.1423  0.2953
 4828SOL    HW126209   7.910   5.679  11.269 -1.2871  0.8189 -0.1096
 4828SOL    HW226210   7.774   5.613  11.272  0.2482 -2.6125 -1.3692
 4829SOL     OW26211  11.034   1.391  13.483  0.1516 -0.0463 -0.4278
 4829SOL    HW126212  11.033   1.363  13.392 -1.6462 -1.2662 -0.0786
 4829SOL    HW226213  11.046   1.310  13.533 -0.0687  0.4518  0.4610
 4830SOL     OW26214   4.529   2.595   4.582 -0.0201 -0.4392 -0.0815
 4830SOL    HW126215   4.586   2.529   4.623  0.5412  0.3135  0.3714
 4830SOL    HW226216   4.457   2.544   4.545  0.5959 -1.3477 -0.0679
 4831SOL     OW26217   5.825   2.704  11.571  0.8879 -0.6182  0.2145
 4831SOL    HW126218   5.781   2.709  11.486  1.3087  2.1664  0.0823
 4831SOL    HW226219   5.754   2.704  11.635  0.5337  2.2238 -0.0505
 4832SOL     OW26220   3.298   5.721   6.754  0.2818  0.0625  0.2905
 4832SOL    HW126221   3.364   5.734   6.685  0.6211  3.2573  1.0467
 4832SOL    HW226222   3.215   5.715   6.707  0.8599 -1.7346 -0.5581
 4833SOL     OW26223   8.248   4.148   5.846 -0.0596 -0.5347 -0.6175
 4833SOL    HW126224   8.338   4.168   5.870 -0.6661 -0.3974  1.7331
 4833SOL    HW226225   8.228   4.066   5.891 -2.0694  1.0601  1.6736
 4834SOL     OW26226   7.149  13.321  11.265 -0.3833  0.7334  0.2948
 4834SOL    HW126227   7.123  13.230  11.280 -0.1239  0.3882 -1.1973
 4834SOL    HW226228   7.070  13.363  11.232 -0.2803  0.8253  0.1641
 4835SOL     OW26229   6.381   0.691  13.351 -0.3769  0.1315 -0.0365
 4835SOL    HW126230   6.321   0.685  13.425 -0.9393  0.4402 -0.4591
 4835SOL    HW226231   6.464   0.719  13.389 -0.8414  0.9722  0.3872
 4836SOL     OW26232   6.972  12.071   2.747 -0.3593 -0.7041 -0.1214
 4836SOL    HW126233   7.043  12.131   2.727 -0.3017 -0.6801  0.1546
 4836SOL    HW226234   6.926  12.059   2.664  0.1638 -0.9803 -0.3729
 4837SOL     OW26235   3.029   3.897   8.729  0.2670  0.5576 -0.0943
 4837SOL    HW126236   3.111   3.891   8.680  0.9410 -0.6094  1.0879
 4837SOL    HW226237   3.056   3.930   8.815 -0.3390 -0.7450  0.6174
 4838SOL     OW26238   8.650   4.188  11.678  0.0254  0.1709  0.0752
 4838SOL    HW126239   8.741   4.185  11.648 -0.3377 -1.0242 -0.9580
 4838SOL    HW226240   8.600   4.143  11.611 -1.2185 -0.0786  1.1157
 4839SOL     OW26241   0.818   1.670   1.815  0.1534  0.9468 -0.1658
 4839SOL    HW126242   0.871   1.607   1.767 -0.1478  0.0316  0.6804
 4839SOL    HW226243   0.835   1.754   1.771 -0.1705  0.1366 -1.8968
 4840SOL     OW26244  13.371   6.472  12.376 -0.1407 -0.7240 -0.3654
 4840SOL    HW126245  13.369   6.517  12.461 -0.4121 -0.8715 -0.2922
 4840SOL    HW226246  13.464   6.452  12.362  0.0674  0.4553 -0.7233
 4841SOL     OW26247   6.034   0.541   7.205  0.3236  0.1911 -0.1508
 4841SOL    HW126248   5.978   0.590   7.145  0.4633  0.3507 -0.1544
 4841SOL    HW226249   6.106   0.509   7.151 -0.4754 -1.1975 -0.4200
 4842SOL     OW26250  10.879   3.784   3.522 -0.5062 -0.1455  0.0192
 4842SOL    HW126251  10.930   3.775   3.441 -1.2464 -0.4340 -0.4270
 4842SOL    HW226252  10.792   3.754   3.498 -1.1694  1.3103  0.4832
 4843SOL     OW26253   8.681  11.127   4.496  0.3386 -0.2937  0.2263
 4843SOL    HW126254   8.652  11.047   4.542  0.3444 -1.2788 -1.3880
 4843SOL    HW226255   8.613  11.142   4.430  1.1522  0.0959 -0.5413
 4844SOL     OW26256   9.774   1.829   2.588 -0.0520 -0.1809  0.1717
 4844SOL    HW126257   9.785   1.849   2.495  2.0528  1.7065  0.7437
 4844SOL    HW226258   9.768   1.734   2.591  0.2356 -0.3178 -1.8584
 4845SOL     OW26259   9.384   7.219   1.107  0.1175 -0.0297 -0.2708
 4845SOL    HW126260   9.314   7.241   1.167  0.5909 -1.9902  1.0838
 4845SOL    HW226261   9.342   7.166   1.039 -0.2633  1.5068 -1.2864
 4846SOL     OW26262  13.042   7.667   8.138  0.1984  0.1238 -0.0696
 4846SOL    HW126263  13.078   7.608   8.203 -1.4811 -0.1110  0.6961
 4846SOL    HW226264  12.947   7.652   8.141 -0.4847  3.6088  1.0201
 4847SOL     OW26265   4.933   6.702   9.243  0.4597  0.4932  0.0951
 4847SOL    HW126266   5.024   6.728   9.255  1.2053 -2.0535  0.5318
 4847SOL    HW226267   4.926   6.617   9.287 -2.5063  1.2266  1.2600
 4848SOL     OW26268   5.752   3.297   1.302 -0.6489 -0.7968  0.1972
 4848SOL    HW126269   5.725   3.220   1.353  1.7832 -1.1608  1.0729
 4848SOL    HW226270   5.818   3.263   1.241  0.2914  0.5233  0.4332
 4849SOL     OW26271   0.991   5.270   0.964  0.0676  0.6514 -0.1203
 4849SOL    HW126272   1.085   5.273   0.982 -0.0388  0.4927  0.5081
 4849SOL    HW226273   0.976   5.181   0.933  0.0955  0.6136 -0.0268
 4850SOL     OW26274  13.290   7.231   0.974 -0.7928 -0.7173  0.7366
 4850SOL    HW126275  13.263   7.185   1.053  0.7927  0.0849  1.7870
 4850SOL    HW226276  13.385   7.238   0.981 -0.7815  0.7640 -0.4512
 4851SOL     OW26277  13.602   2.465   3.447 -0.3110 -0.1972  0.1673
 4851SOL    HW126278  13.532   2.527   3.470  1.1303  1.0224  1.5178
 4851SOL    HW226279  13.631   2.494   3.361 -0.7091  0.0043  0.0962
 4852SOL     OW26280   9.344   7.288   6.483  0.1390  0.4000  0.1967
 4852SOL    HW126281   9.262   7.302   6.435 -0.4450 -0.7053  0.8345
 4852SOL    HW226282   9.376   7.377   6.501  0.3697  0.8814 -2.1538
 4853SOL     OW26283   7.728   7.612  10.698  0.0100 -0.2734  0.6377
 4853SOL    HW126284   7.761   7.696  10.665 -1.5535  0.8694  1.7983
 4853SOL    HW226285   7.676   7.578  10.625 -0.5636  0.5076  0.6647
 4854SOL     OW26286   3.235  13.693   8.928 -0.1730 -0.0334  0.3282
 4854SOL    HW126287   3.177  13.679   9.004  0.1409  0.9909  0.7808
 4854SOL    HW226288   3.185  13.752   8.871 -0.2862 -0.5655 -0.1302
 4855SOL     OW26289  12.704  10.981   5.409  0.1954  0.1313 -0.1167
 4855SOL    HW126290  12.613  11.008   5.400  0.1477  0.3844  1.0081
 4855SOL    HW226291  12.755  11.056   5.377  0.0118  0.0278 -0.6496
 4856SOL     OW26292   4.762   9.544   5.665  0.1740  0.2963  0.3207
 4856SOL    HW126293   4.805   9.621   5.630 -1.1326  0.8954 -0.0288
 4856SOL    HW226294   4.677   9.575   5.695 -0.0914 -0.8707  0.8430
 4857SOL     OW26295   5.356  12.416  12.862  0.1226  0.1767  0.2652
 4857SOL    HW126296   5.357  12.486  12.927  1.3143  0.9113 -0.5252
 4857SOL    HW226297   5.275  12.368  12.882  0.9409 -0.2709  2.9375
 4858SOL     OW26298   9.301   7.139  12.189 -0.7651 -0.9008  0.6749
 4858SOL    HW126299   9.301   7.049  12.222  1.3989 -1.0204  0.4569
 4858SOL    HW226300   9.368   7.184  12.240  0.0086 -0.1019 -0.9507
 4859SOL     OW26301   4.085   0.001   9.726 -0.2485  0.1915  0.0606
 4859SOL    HW126302   3.990  -0.013   9.734 -0.5033  1.7804  0.1422
 4859SOL    HW226303   4.104  -0.014   9.633 -0.6241  0.1352 -0.0085
 4860SOL     OW26304   1.309   6.202   4.622 -0.4379  0.1099  0.5742
 4860SOL    HW126305   1.265   6.270   4.673 -0.7572 -0.1763  0.6856
 4860SOL    HW226306   1.247   6.183   4.550 -1.3069 -1.5077  1.6780
 4861SOL     OW26307  11.759  11.736   8.374 -0.1320  0.0537 -0.3069
 4861SOL    HW126308  11.766  11.745   8.469 -0.2978 -1.2930 -0.1560
 4861SOL    HW226309  11.691  11.799   8.350  0.6419  1.1684  0.3084
 4862SOL     OW26310   5.148   8.271  11.562  0.2129  0.1428 -0.4886
 4862SOL    HW126311   5.216   8.268  11.629 -2.1240  0.6223  2.0675
 4862SOL    HW226312   5.153   8.361  11.528  0.5266  0.3355  0.0492
 4863SOL     OW26313   5.574   1.964   3.002 -0.1085  0.2875  0.0723
 4863SOL    HW126314   5.593   1.875   2.973  0.1443 -0.2679  1.8029
 4863SOL    HW226315   5.554   2.012   2.922 -1.6168 -1.6389 -0.7725
 4864SOL     OW26316   4.831   9.237  12.742 -0.9575  0.1499 -0.4363
 4864SOL    HW126317   4.860   9.175  12.674  2.0662  0.3054  0.5591
 4864SOL    HW226318   4.897   9.305  12.742 -1.2970  0.5835  2.1075
 4865SOL     OW26319   0.315  13.599   5.935  0.0729 -0.3969 -0.1718
 4865SOL    HW126320   0.366  13.680   5.942 -0.5426 -0.0316  0.0690
 4865SOL    HW226321   0.305  13.586   5.841  0.0554 -0.1257 -0.2077
 4866SOL     OW26322   4.496  12.659   6.074  0.1267  0.5004 -0.0614
 4866SOL    HW126323   4.512  12.752   6.057  1.2874  0.7276  1.9923
 4866SOL    HW226324   4.514  12.616   5.991  0.7314  1.9832 -0.7327
 4867SOL     OW26325   9.135   7.773   4.083 -0.1643 -0.0915 -0.0932
 4867SOL    HW126326   9.148   7.773   3.988 -0.6506  2.4925 -0.2385
 4867SOL    HW226327   9.154   7.863   4.109 -0.9637 -0.5134  2.1308
 4868SOL     OW26328   7.072  12.172   1.818 -0.2604 -0.3300  0.2590
 4868SOL    HW126329   6.990  12.121   1.816 -0.4262 -0.1001  0.8974
 4868SOL    HW226330   7.064  12.234   1.745 -0.6883 -0.2615  0.3625
 4869SOL     OW26331   9.675  10.585  13.070 -0.3395 -0.4430 -0.2484
 4869SOL    HW126332   9.620  10.650  13.027  0.0833  0.4033  0.4643
 4869SOL    HW226333   9.626  10.503  13.062 -0.8871 -0.0439 -1.1337
 4870SOL     OW26334   2.746   1.249   0.240 -0.1180 -0.0736 -0.3856
 4870SOL    HW126335   2.719   1.340   0.250  0.0810 -0.0890  0.3754
 4870SOL    HW226336   2.782   1.244   0.151 -0.8053  0.4066 -0.6978
 4871SOL     OW26337   4.681   2.675   0.844  0.6183  0.4818  0.1731
 4871SOL    HW126338   4.725   2.590   0.834 -1.3561 -0.4185 -1.7324
 4871SOL    HW226339   4.742   2.728   0.896  3.1809 -1.1894 -0.9157
 4872SOL     OW26340   1.426   4.953   1.016 -0.3933 -0.1182 -0.4638
 4872SOL    HW126341   1.385   4.914   0.939 -0.2765  0.2360 -0.7049
 4872SOL    HW226342   1.355   5.004   1.057 -0.4957 -0.4300 -0.2522
 4873SOL     OW26343  13.692   9.867   7.693 -0.0985 -0.8023 -0.1816
 4873SOL    HW126344  13.668   9.856   7.600  0.9576  1.1754 -0.7496
 4873SOL    HW226345  13.778   9.826   7.700  0.6299  0.5984 -0.5561
 4874SOL     OW26346   8.689   5.866  12.994 -0.0858 -0.3192 -0.0436
 4874SOL    HW126347   8.667   5.774  13.007 -0.2789 -0.3303 -0.4200
 4874SOL    HW226348   8.729   5.869  12.907  0.1031 -0.0768  0.0486
 4875SOL     OW26349   5.638   2.078   0.569 -0.3401  0.2076  0.4815
 4875SOL    HW126350   5.589   2.034   0.638  0.1715 -1.0534  0.0555
 4875SOL    HW226351   5.578   2.084   0.495 -0.7773  1.2618  0.8982
 4876SOL     OW26352   8.154   0.696   9.651  0.5313 -0.0752 -0.1797
 4876SOL    HW126353   8.151   0.657   9.563  0.7861  0.4129 -0.4107
 4876SOL    HW226354   8.145   0.622   9.710  0.6743 -0.4493 -0.6156
 4877SOL     OW26355   7.880  12.982  10.985 -0.0612 -0.6445 -0.4936
 4877SOL    HW126356   7.849  13.071  10.968 -0.2487  0.0335  2.6845
 4877SOL    HW226357   7.973  12.984  10.963 -0.2503  0.0712 -1.2755
 4878SOL     OW26358   0.625  11.954   8.088 -0.9671  0.5394 -0.2284
 4878SOL    HW126359   0.557  11.989   8.146 -0.3594  1.1988  0.1076
 4878SOL    HW226360   0.707  11.987   8.125 -0.5020  0.2334 -0.9597
 4879SOL     OW26361  12.317  10.680   0.222  0.0310  0.3866  0.1877
 4879SOL    HW126362  12.360  10.701   0.139  0.6668  0.4409  0.5197
 4879SOL    HW226363  12.375  10.718   0.289 -0.0792 -0.2965  0.6868
 4880SOL     OW26364   8.586   1.938  10.880  0.2160 -0.1842  0.0920
 4880SOL    HW126365   8.591   1.997  10.955  0.2523  1.1509 -0.9116
 4880SOL    HW226366   8.600   1.851  10.916 -0.9120  0.2916  1.7950
 4881SOL     OW26367   2.981   1.353   9.018  0.0872  0.3118  0.4774
 4881SOL    HW126368   2.921   1.353   8.944  0.0316 -0.4158  0.5187
 4881SOL    HW226369   3.068   1.340   8.979  0.2910  1.7760  0.3769
 4882SOL     OW26370   7.211   1.227   1.705 -0.3045 -0.1351  0.3085
 4882SOL    HW126371   7.253   1.313   1.697  0.1974 -0.1191  2.3314
 4882SOL    HW226372   7.272   1.166   1.664 -0.1444  0.3448 -0.1751
 4883SOL     OW26373  11.516  11.676   6.190  0.4751 -0.0564 -0.2035
 4883SOL    HW126374  11.475  11.655   6.106  1.3035 -1.8249 -0.1947
 4883SOL    HW226375  11.610  11.670   6.173  0.8012  2.8660  0.0531
 4884SOL     OW26376  10.313  12.862  12.734  0.0689  0.3297  0.5397
 4884SOL    HW126377  10.378  12.918  12.691 -0.0452 -0.2758 -0.4684
 4884SOL    HW226378  10.350  12.846  12.821  1.4282 -0.2227 -0.1021
 4885SOL     OW26379   2.270  13.041   0.584 -0.2412  0.2987  0.0839
 4885SOL    HW126380   2.315  13.083   0.657  1.1369  0.5602 -0.8777
 4885SOL    HW226381   2.304  12.951   0.583  0.7918  0.6656 -1.0173
 4886SOL     OW26382  11.002   0.307  11.831 -0.4707 -0.0651 -0.1691
 4886SOL    HW126383  11.008   0.260  11.748  2.8263 -0.7993  0.3388
 4886SOL    HW226384  10.984   0.238  11.896  0.2250 -0.0082  0.0890
 4887SOL     OW26385  12.828   3.870   6.114  0.0347  0.3111 -0.2555
 4887SOL    HW126386  12.883   3.798   6.142  1.5435  1.7085  0.5710
 4887SOL    HW226387  12.845   3.879   6.021 -1.3716 -1.3354 -0.7290
 4888SOL     OW26388  12.012   6.292   4.166  0.2924 -0.1443  0.5758
 4888SOL    HW126389  12.102   6.315   4.189 -0.0390  2.6800 -0.5066
 4888SOL    HW226390  12.011   6.294   4.070 -0.4090 -2.6623  0.4675
 4889SOL     OW26391  11.716   9.589   0.960 -0.1277  0.5732  0.7558
 4889SOL    HW126392  11.747   9.620   1.045  1.6707  0.5645  0.1383
 4889SOL    HW226393  11.712   9.667   0.906 -0.8488  0.5121  0.7104
 4890SOL     OW26394   3.225  11.803  10.992 -0.0223 -0.2874  0.5988
 4890SOL    HW126395   3.222  11.781  11.085  0.1767 -0.2956  0.6039
 4890SOL    HW226396   3.169  11.738  10.950 -0.6658  0.1293  0.7909
 4891SOL     OW26397   4.474   1.345   0.761 -0.2043 -0.1112 -0.2382
 4891SOL    HW126398   4.417   1.271   0.780  0.5534 -0.4706  0.7740
 4891SOL    HW226399   4.415   1.416   0.737 -0.8918 -1.4558 -2.9158
 4892SOL     OW26400  13.348   0.639  12.499  0.0493  0.0183  0.2214
 4892SOL    HW126401  13.313   0.644  12.589 -3.4202  0.0406 -0.9807
 4892SOL    HW226402  13.423   0.698  12.500 -1.0991  1.6583  2.6315
 4893SOL     OW26403   6.770   8.809   8.965 -0.2661 -0.0200 -0.0929
 4893SOL    HW126404   6.753   8.877   8.899 -0.5420  0.4764  0.4823
 4893SOL    HW226405   6.864   8.816   8.983  0.0373 -0.8805 -1.2067
 4894SOL     OW26406  12.730   7.668   0.568  0.0718 -0.4771  0.0218
 4894SOL    HW126407  12.656   7.715   0.530  2.3909  1.3638 -2.6004
 4894SOL    HW226408  12.741   7.707   0.655 -1.7202 -0.5136  0.3086
 4895SOL     OW26409   2.813   2.749   3.435 -0.0315 -0.2407 -0.0195
 4895SOL    HW126410   2.813   2.833   3.482 -1.4449 -0.2626  0.0854
 4895SOL    HW226411   2.752   2.763   3.362  2.1429 -0.2085 -1.9231
 4896SOL     OW26412   5.782   9.599   4.579  0.1326  0.0265 -0.7294
 4896SOL    HW126413   5.794   9.504   4.567  1.1366  0.3472 -2.5964
 4896SOL    HW226414   5.715   9.605   4.648 -0.3756 -2.0402 -0.9455
 4897SOL     OW26415   1.315   9.641  12.845 -0.3590  0.3506  0.2655
 4897SOL    HW126416   1.332   9.729  12.880 -0.4666 -0.1279  1.5622
 4897SOL    HW226417   1.233   9.651  12.797 -0.5367  0.8972  0.6608
 4898SOL     OW26418   7.855  10.206   6.117  0.3446 -0.2418  0.5748
 4898SOL    HW126419   7.911  10.255   6.056  2.8069 -0.8728  2.1749
 4898SOL    HW226420   7.852  10.260   6.196  1.3304 -1.6036  1.6066
 4899SOL     OW26421  10.048   2.849   6.586 -0.4784 -0.6105 -0.7914
 4899SOL    HW126422  10.034   2.869   6.679 -1.1757 -0.7563 -0.8590
 4899SOL    HW226423  10.003   2.919   6.540 -1.0238 -1.1063 -1.0224
 4900SOL     OW26424   4.498   6.354   5.773 -0.0349  0.4258  0.0250
 4900SOL    HW126425   4.531   6.344   5.684 -0.2440  1.0335 -0.1219
 4900SOL    HW226426   4.407   6.380   5.762 -0.6436 -1.3529  0.4285
 4901SOL     OW26427   7.376   0.793   4.263 -0.2801 -0.0977  0.0560
 4901SOL    HW126428   7.415   0.746   4.189  1.6990  1.0329  0.3085
 4901SOL    HW226429   7.451   0.829   4.310 -1.6386  2.5406  0.3616
 4902SOL     OW26430  12.834   5.756   3.005  0.3946  0.4492  0.0432
 4902SOL    HW126431  12.818   5.741   2.912  1.1486 -1.7570  0.1951
 4902SOL    HW226432  12.853   5.849   3.012  1.4886  0.4717 -2.2166
 4903SOL     OW26433   5.218  10.534   6.399 -0.0055 -0.4061  0.0191
 4903SOL    HW126434   5.287  10.468   6.406  0.1062 -0.5048 -1.6432
 4903SOL    HW226435   5.161  10.502   6.330 -0.4197  0.8322 -0.2373
 4904SOL     OW26436  10.575   8.970  10.281 -0.1951  0.0115  0.0874
 4904SOL    HW126437  10.529   9.049  10.253  0.6837 -0.1269 -1.9725
 4904SOL    HW226438  10.655   8.969  10.228 -0.1849 -2.2575  0.0453
 4905SOL     OW26439   9.932   6.835  12.726  0.5923 -0.3665 -0.1359
 4905SOL    HW126440   9.915   6.868  12.638  0.2861  1.0375  0.4318
 4905SOL    HW226441   9.846   6.832  12.768  0.6322 -1.7312 -0.0851
 4906SOL     OW26442   8.564   0.530   1.979  0.3423  0.0501  0.5628
 4906SOL    HW126443   8.565   0.589   1.904  1.1246  0.4826  0.9007
 4906SOL    HW226444   8.515   0.454   1.948  1.2807 -0.1075 -0.6538
 4907SOL     OW26445   7.607   5.290   9.847 -0.6023  0.1808 -0.0696
 4907SOL    HW126446   7.592   5.383   9.860 -0.2227  0.1076  0.9238
 4907SOL    HW226447   7.645   5.259   9.929 -0.9985 -0.9077 -0.2711
 4908SOL     OW26448   4.420   0.123  13.028  0.0296  0.2252 -0.1292
 4908SOL    HW126449   4.428   0.136  12.934  1.3144 -0.1669 -0.0921
 4908SOL    HW226450   4.361   0.048  13.037 -0.4559  0.5434 -0.5921
 4909SOL     OW26451  12.969  12.089   7.529 -0.3651  0.3831 -0.0165
 4909SOL    HW126452  12.920  12.013   7.499 -1.7861  1.4308 -0.4846
 4909SOL    HW226453  13.061  12.061   7.528 -0.8280 -1.2252 -0.3888
 4910SOL     OW26454  10.225   0.842   5.277 -0.8698  0.1295  0.1435
 4910SOL    HW126455  10.311   0.818   5.242 -0.0209  1.3536  1.3043
 4910SOL    HW226456  10.202   0.771   5.336  0.2741  0.7188  1.3352
 4911SOL     OW26457   7.531   6.969   7.623 -0.0310 -0.3483 -0.0983
 4911SOL    HW126458   7.472   6.981   7.697 -0.5776 -1.0291 -0.4122
 4911SOL    HW226459   7.476   6.932   7.554  0.7848 -1.1057 -0.3624
 4912SOL     OW26460   3.725   4.690   8.934 -0.5488 -0.0017  0.6434
 4912SOL    HW126461   3.661   4.631   8.894 -0.4387 -2.5573  3.7799
 4912SOL    HW226462   3.676   4.736   9.002  0.3648  0.0992  1.2493
 4913SOL     OW26463  10.157   8.332   1.133  0.3622 -0.2649  0.2233
 4913SOL    HW126464  10.173   8.385   1.211 -1.5894 -1.4026  1.4771
 4913SOL    HW226465  10.235   8.344   1.080  1.0488  1.8672  1.5756
 4914SOL     OW26466  10.690   3.591   0.055 -0.0892 -0.1139  0.3296
 4914SOL    HW126467  10.605   3.595   0.010  0.1691  0.5815 -0.1032
 4914SOL    HW226468  10.668   3.600   0.148 -0.5176 -0.2493  0.2434
 4915SOL     OW26469  10.678   8.287  11.805  0.5688  0.6007 -0.0879
 4915SOL    HW126470  10.621   8.274  11.880  0.8957 -0.9135 -0.0657
 4915SOL    HW226471  10.621   8.277  11.729  0.9341 -2.1224 -0.0962
 4916SOL     OW26472   0.958   3.775   6.951 -0.1073  0.4004  0.4902
 4916SOL    HW126473   0.956   3.840   7.022  0.8088 -0.3216  1.1959
 4916SOL    HW226474   0.967   3.828   6.872  2.4694  1.1610  1.1679
 4917SOL     OW26475   3.436   1.374  11.936  0.3419  0.3437 -0.2540
 4917SOL    HW126476   3.426   1.367  11.841 -0.3511  2.2508 -0.3684
 4917SOL    HW226477   3.348   1.356  11.971  0.0443  1.8544 -0.1596
 4918SOL     OW26478   5.495   5.544   9.137  0.5943  0.5524 -0.3289
 4918SOL    HW126479   5.429   5.600   9.178  0.9888  0.4647  0.4337
 4918SOL    HW226480   5.457   5.456   9.140  0.4946  0.5906 -0.4352
 4919SOL     OW26481   4.707   7.760  11.880  0.5262 -0.5743  0.3797
 4919SOL    HW126482   4.787   7.774  11.929  1.6409 -1.5924 -1.0439
 4919SOL    HW226483   4.645   7.823  11.915  2.3976  1.2769  0.5117
 4920SOL     OW26484   0.607   9.694  12.188 -0.2158 -0.7018  0.2519
 4920SOL    HW126485   0.652   9.678  12.105 -0.2417  1.9848 -0.3502
 4920SOL    HW226486   0.675   9.683  12.255  0.1412 -1.4404 -0.2115
 4921SOL     OW26487  12.050   4.073  10.486 -0.3323  0.7921 -0.7401
 4921SOL    HW126488  12.129   4.084  10.433 -1.1445  1.5410 -1.8467
 4921SOL    HW226489  12.082   4.065  10.576  1.1591 -1.8853 -1.4280
 4922SOL     OW26490   3.041   0.084   9.257 -0.5209  0.3101 -0.2991
 4922SOL    HW126491   3.060   0.148   9.188 -0.1140  0.4124 -0.0962
 4922SOL    HW226492   2.959   0.043   9.229 -0.3596  0.3474 -0.8441
 4923SOL     OW26493  10.751   9.026  13.143 -0.3220  0.5848  0.4251
 4923SOL    HW126494  10.724   9.089  13.075  0.4077 -0.4278 -0.8537
 4923SOL    HW226495  10.846   9.040  13.151 -0.2062 -0.1387  0.3387
 4924SOL     OW26496   8.176   6.962   0.097 -0.0572 -0.0369 -0.1708
 4924SOL    HW126497   8.233   6.899   0.140 -1.4431 -1.0509  0.2600
 4924SOL    HW226498   8.215   6.976   0.011  2.4306  1.5450  1.1133
 4925SOL     OW26499   6.174  12.320   6.753  0.1255 -0.7684  0.6108
 4925SOL    HW126500   6.206  12.327   6.663  1.9646 -1.8241  1.1221
 4925SOL    HW226501   6.124  12.238   6.754  0.3586 -0.9109  0.6174
 4926SOL     OW26502   0.855   2.856   0.113  0.0130  0.4152  0.1455
 4926SOL    HW126503   0.891   2.794   0.177 -1.7416 -0.2144  0.5815
 4926SOL    HW226504   0.819   2.801   0.044 -1.0483  0.9514  0.2518
 4927SOL     OW26505   5.739   4.648   7.703  0.2044 -0.2365  0.0122
 4927SOL    HW126506   5.706   4.734   7.677  1.0899  0.1278  0.0380
 4927SOL    HW226507   5.681   4.620   7.773 -0.4530  0.0720 -0.3953
 4928SOL     OW26508   7.415  12.727   0.040 -0.0078  0.4140  0.2899
 4928SOL    HW126509   7.465  12.807   0.027  1.4041 -0.5473 -0.4890
 4928SOL    HW226510   7.435  12.700   0.129  2.8714 -1.1934 -0.7050
 4929SOL     OW26511  11.781  10.584   7.546  0.2502 -0.3067 -0.0275
 4929SOL    HW126512  11.751  10.641   7.617  0.6795 -0.2128  0.0776
 4929SOL    HW226513  11.791  10.641   7.471 -0.1443 -0.3960 -0.1556
 4930SOL     OW26514   4.929  12.900   5.773 -0.4042  0.3230  0.0202
 4930SOL    HW126515   4.993  12.954   5.726 -1.1697  1.3540  0.1246
 4930SOL    HW226516   4.879  12.963   5.826 -1.9688 -0.3485 -0.6046
 4931SOL     OW26517   1.393   3.814   6.544 -0.5333 -0.0886  0.3491
 4931SOL    HW126518   1.350   3.893   6.577  0.4885 -0.0311  1.6183
 4931SOL    HW226519   1.466   3.847   6.491 -0.1826 -0.1823  0.7747
 4932SOL     OW26520  13.551  11.894  11.394 -0.5539  0.2118 -0.1765
 4932SOL    HW126521  13.504  11.954  11.336 -0.4214 -0.1183 -0.6343
 4932SOL    HW226522  13.591  11.830  11.335  1.0145  0.8570  0.1297
 4933SOL     OW26523   5.038   0.899  12.585 -0.1881  0.1306  0.2512
 4933SOL    HW126524   5.123   0.943  12.597  0.1604 -0.7511  1.2158
 4933SOL    HW226525   5.060   0.809  12.564 -0.8639 -0.3684  1.5644
 4934SOL     OW26526   5.078   6.138   9.875  0.0346 -0.7968 -0.3281
 4934SOL    HW126527   5.085   6.067   9.811 -0.2355 -1.7100  0.6279
 4934SOL    HW226528   5.024   6.203   9.832  0.9187 -0.8058 -1.5273
 4935SOL     OW26529   6.104   0.873   2.318  0.0493 -0.2817 -0.0342
 4935SOL    HW126530   6.122   0.956   2.360  2.0981 -2.0750  3.0214
 4935SOL    HW226531   6.149   0.878   2.233 -0.1175  1.7542 -0.0340
 4936SOL     OW26532   2.873   5.249   0.727 -0.3762  0.1374  0.4113
 4936SOL    HW126533   2.898   5.194   0.801  1.7321 -0.6446 -0.8046
 4936SOL    HW226534   2.804   5.199   0.683 -0.1133 -0.4380  0.6407
 4937SOL     OW26535   2.262  10.833   2.400  0.1929  0.4802  0.0122
 4937SOL    HW126536   2.307  10.749   2.405 -0.4655  0.1509  0.8636
 4937SOL    HW226537   2.176  10.811   2.365  0.5530  1.0449 -1.2561
 4938SOL     OW26538   7.752  10.605  13.622  0.8451  0.3106 -0.2127
 4938SOL    HW126539   7.774  10.515  13.599  0.4806  0.2760 -0.4304
 4938SOL    HW226540   7.745  10.650  13.539  1.2691  0.6013 -0.0927
 4939SOL     OW26541   9.092   1.455  11.163 -0.6191 -0.2195 -0.0396
 4939SOL    HW126542   9.008   1.411  11.161 -0.6702 -0.3108  2.0493
 4939SOL    HW226543   9.147   1.406  11.101 -2.3443  0.5216 -2.2855
 4940SOL     OW26544   6.112  11.509   9.847 -0.4132  0.1143 -0.1972
 4940SOL    HW126545   6.091  11.435   9.790 -1.8195 -1.5383  2.2921
 4940SOL    HW226546   6.030  11.558   9.854 -0.1681  0.4862  0.1405
 4941SOL     OW26547  11.358  12.319   8.963 -0.0676 -0.0924  0.2152
 4941SOL    HW126548  11.278  12.369   8.973  0.1189 -0.0893  2.0406
 4941SOL    HW226549  11.366  12.304   8.869 -1.6496  0.7880 -0.0850
 4942SOL     OW26550  11.923   8.747  12.400 -0.0242 -0.0261 -0.1085
 4942SOL    HW126551  11.835   8.713  12.386  0.6975 -1.2630 -2.1054
 4942SOL    HW226552  11.934   8.747  12.495 -0.9879 -3.1416  0.1264
 4943SOL     OW26553   4.688   4.699   8.279  0.1959  0.0540 -0.1247
 4943SOL    HW126554   4.732   4.769   8.327  0.6297 -0.3692  0.1005
 4943SOL    HW226555   4.697   4.724   8.187  2.5255 -0.8934 -0.2386
 4944SOL     OW26556   6.566   0.045  10.412  0.0757  0.0340 -0.1862
 4944SOL    HW126557   6.509   0.122  10.406 -0.1464 -0.2315 -2.3531
 4944SOL    HW226558   6.507  -0.025  10.439 -0.0616  0.3008  0.2185
 4945SOL     OW26559   1.358   1.586  13.406 -0.4149  0.1567 -0.1032
 4945SOL    HW126560   1.277   1.586  13.458  0.1468 -0.7899  0.8189
 4945SOL    HW226561   1.425   1.555  13.467  0.7768  1.4802 -0.6744
 4946SOL     OW26562   3.245  12.847   9.999 -0.2296  0.2772 -0.1549
 4946SOL    HW126563   3.299  12.924  10.015 -0.5511  0.1359  1.9434
 4946SOL    HW226564   3.244  12.801  10.083 -0.9234 -1.4561 -1.0570
 4947SOL     OW26565   8.699   2.444  12.911  0.3295 -0.1669  0.0320
 4947SOL    HW126566   8.710   2.404  12.824  0.6163 -2.0092  0.8732
 4947SOL    HW226567   8.786   2.475  12.934  0.3823 -0.2294 -0.0786
 4948SOL     OW26568   2.769   7.301   5.034 -0.6506  0.0698  0.9207
 4948SOL    HW126569   2.701   7.317   4.969 -0.1575  0.0536  0.3934
 4948SOL    HW226570   2.827   7.238   4.993 -1.0669 -0.9973  1.9037
 4949SOL     OW26571  10.168   2.791  13.538 -0.5872 -0.0883 -0.3597
 4949SOL    HW126572  10.251   2.750  13.565 -0.4058  0.6691  0.2713
 4949SOL    HW226573  10.189   2.884  13.530 -0.9531 -0.1173 -1.9694
 4950SOL     OW26574   7.298   6.432   9.035  0.2581 -0.7974 -0.2398
 4950SOL    HW126575   7.209   6.416   9.067 -0.3476 -0.5251 -1.6946
 4950SOL    HW226576   7.347   6.353   9.058 -0.4712 -1.1265  0.2089
 4951SOL     OW26577   5.330  12.981   7.992 -0.4544  0.9986  0.0640
 4951SOL    HW126578   5.274  12.906   7.976  2.1616 -1.0117 -0.4769
 4951SOL    HW226579   5.322  12.998   8.086 -0.4295 -0.5808  0.3720
 4952SOL     OW26580   0.513   1.052   4.838  0.3506 -0.7491  0.4371
 4952SOL    HW126581   0.550   1.089   4.919 -0.9190 -2.3503  1.8323
 4952SOL    HW226582   0.453   0.983   4.869 -0.4689 -1.1462 -1.8791
 4953SOL     OW26583   4.329   9.845   8.629 -0.6395 -0.4714  0.5252
 4953SOL    HW126584   4.296   9.755   8.635  0.3961 -0.9080  0.0243
 4953SOL    HW226585   4.398   9.849   8.695 -1.3527  0.2886  1.2504
 4954SOL     OW26586   0.164   1.559   9.144  0.4508 -0.2837 -0.1146
 4954SOL    HW126587   0.219   1.582   9.218  0.6778 -0.3881 -0.2507
 4954SOL    HW226588   0.120   1.641   9.120  1.8263  0.2061 -1.0772
 4955SOL     OW26589  12.773  12.350   9.711  0.0813  0.6382 -0.2167
 4955SOL    HW126590  12.740  12.358   9.801 -0.2719 -2.7714  0.1065
 4955SOL    HW226591  12.809  12.436   9.691 -1.0172  1.9191  2.6900
 4956SOL     OW26592   6.104  12.309   9.937 -0.6210  0.3444  0.3985
 4956SOL    HW126593   6.134  12.337  10.023 -0.2753  1.3516 -0.0283
 4956SOL    HW226594   6.082  12.391   9.892  0.2616 -0.0746 -0.8460
 4957SOL     OW26595  10.900   8.758   5.312 -0.2507 -0.0782  0.4056
 4957SOL    HW126596  10.903   8.662   5.307  1.9437 -0.1663  1.9127
 4957SOL    HW226597  10.980   8.787   5.267 -0.2810  0.9639  0.9834
 4958SOL     OW26598   9.447   8.700   4.901  0.4043 -0.6252 -0.5563
 4958SOL    HW126599   9.415   8.627   4.954  1.7473 -0.2957  0.7584
 4958SOL    HW226600   9.509   8.746   4.958 -1.1210  2.1610 -0.9654
 4959SOL     OW26601  13.672   4.851   1.227  0.6426  0.0855 -0.3776
 4959SOL    HW126602  13.618   4.925   1.254  1.9226  1.7235 -2.0787
 4959SOL    HW226603  13.613   4.775   1.233 -0.5325  1.0642  2.0156
 4960SOL     OW26604   9.161   0.019   1.127 -0.0390  0.4230  0.2930
 4960SOL    HW126605   9.088   0.067   1.088  0.0076  0.8310  0.7018
 4960SOL    HW226606   9.124  -0.065   1.152 -0.5952  0.9641  1.3280
 4961SOL     OW26607   0.312   0.449   6.163 -0.1422  0.2729  0.0722
 4961SOL    HW126608   0.286   0.384   6.098  0.8617 -1.3237  1.1974
 4961SOL    HW226609   0.299   0.406   6.247 -0.3505  1.8916  0.9256
 4962SOL     OW26610   6.493   7.537  12.590  0.0481  0.6106 -0.2656
 4962SOL    HW126611   6.437   7.528  12.667 -0.4429 -0.6038 -0.7279
 4962SOL    HW226612   6.582   7.526  12.623 -0.2166 -0.9742  0.0232
 4963SOL     OW26613   8.039   8.446   8.423 -0.2437  0.2247 -0.1206
 4963SOL    HW126614   7.950   8.478   8.414  0.2319  2.4282  1.8528
 4963SOL    HW226615   8.056   8.448   8.517  0.5383 -4.3512  0.0675
 4964SOL     OW26616   9.944  10.117  13.305 -0.6181 -0.1312  0.3050
 4964SOL    HW126617   9.899  10.041  13.267 -0.1776 -0.2798  0.0635
 4964SOL    HW226618   9.990  10.156  13.231  0.5631 -0.6427  0.7437
 4965SOL     OW26619   1.307   9.878   9.717 -0.1378  0.5292 -0.1238
 4965SOL    HW126620   1.283   9.820   9.789  2.2157  0.5473  0.7617
 4965SOL    HW226621   1.389   9.918   9.744  1.2213  0.0383 -3.0773
 4966SOL     OW26622   0.126  12.581   4.705 -0.2022  0.0907  0.5931
 4966SOL    HW126623   0.051  12.594   4.764 -0.3628 -0.6656  0.5675
 4966SOL    HW226624   0.190  12.535   4.759  0.5266  1.3421  0.8184
 4967SOL     OW26625   7.744   2.396  11.496  0.2593 -0.1916  0.0413
 4967SOL    HW126626   7.753   2.372  11.404  0.0498  1.0502 -0.3230
 4967SOL    HW226627   7.834   2.400  11.528  0.3497 -0.3102 -0.1944
 4968SOL     OW26628  13.224   5.351   1.703  0.4334 -0.2894  0.4337
 4968SOL    HW126629  13.217   5.356   1.798  0.9225  1.3228  0.4149
 4968SOL    HW226630  13.317   5.338   1.686  0.5687  0.9523  0.1528
 4969SOL     OW26631   9.625   6.426  13.026  0.2386  0.1177 -0.2287
 4969SOL    HW126632   9.536   6.389  13.024 -0.9586  2.7750 -0.3072
 4969SOL    HW226633   9.639   6.459  12.937  0.4193  1.5568  0.3040
 4970SOL     OW26634   9.378   6.017   4.112  0.1896  0.1560 -0.4157
 4970SOL    HW126635   9.309   5.950   4.112 -0.2072  0.4847  1.3834
 4970SOL    HW226636   9.460   5.967   4.108 -0.0625 -0.5879  1.8285
 4971SOL     OW26637   6.859   0.781   1.527  0.9237 -0.0085  1.0110
 4971SOL    HW126638   6.950   0.805   1.508  0.5836  0.7444  0.2500
 4971SOL    HW226639   6.819   0.772   1.440 -0.5479  2.9211  1.2635
 4972SOL     OW26640   7.187  11.059  10.916  0.9136  0.0482 -0.4171
 4972SOL    HW126641   7.105  11.023  10.948 -0.5476  1.9095 -1.7987
 4972SOL    HW226642   7.252  10.991  10.934 -0.9967 -1.7165  0.2392
 4973SOL     OW26643  11.442   6.076   0.051 -0.3700 -0.6751  0.4097
 4973SOL    HW126644  11.510   6.020   0.088 -2.6091 -1.6418  3.3842
 4973SOL    HW226645  11.414   6.031  -0.028  0.7685 -1.5229  0.4614
 4974SOL     OW26646   3.507   3.209   6.199  0.0241 -0.2701  0.4316
 4974SOL    HW126647   3.491   3.293   6.155  2.9368 -0.3252 -0.9211
 4974SOL    HW226648   3.602   3.202   6.204 -0.0602 -3.9034 -0.3019
 4975SOL     OW26649   5.675   8.953  11.416  0.0125 -0.1080 -0.4735
 4975SOL    HW126650   5.730   9.016  11.464 -0.9921  0.0022  0.5880
 4975SOL    HW226651   5.710   8.953  11.327  0.1539  1.8430 -0.4616
 4976SOL     OW26652   1.128   6.716  12.785 -0.7406 -0.0955  0.5092
 4976SOL    HW126653   1.052   6.670  12.749 -0.1817  0.8805 -2.2223
 4976SOL    HW226654   1.099   6.807  12.795 -0.4931 -0.1018  1.3968
 4977SOL     OW26655   8.748  11.875   9.963 -0.1176  0.0348  0.0034
 4977SOL    HW126656   8.791  11.794   9.936 -0.0529  0.8000 -2.4615
 4977SOL    HW226657   8.685  11.849  10.030  1.4356 -1.6884  0.8668
 4978SOL     OW26658   1.812   4.806   4.744  0.0553 -0.4488 -0.3520
 4978SOL    HW126659   1.748   4.810   4.815 -0.8492 -2.1589 -0.9874
 4978SOL    HW226660   1.892   4.774   4.784  0.2843  0.8765  0.2970
 4979SOL     OW26661   3.155   9.102  11.700 -0.6806 -0.3248 -0.0286
 4979SOL    HW126662   3.068   9.142  11.697  0.1939  1.6493 -0.7023
 4979SOL    HW226663   3.208   9.162  11.752  0.8736 -0.1383 -1.6929
 4980SOL     OW26664   8.658   4.194   9.977 -0.3518  0.0260 -0.5118
 4980SOL    HW126665   8.703   4.143  10.045 -0.2529  1.0094  0.1866
 4980SOL    HW226666   8.704   4.277   9.976 -0.0923 -0.1194 -2.1036
 4981SOL     OW26667   0.725   8.819  13.403 -0.6020  0.0693  0.2192
 4981SOL    HW126668   0.681   8.800  13.321 -0.3302 -0.1644  0.1261
 4981SOL    HW226669   0.686   8.901  13.433 -0.2023  0.5297 -0.4973
 4982SOL     OW26670   0.239   5.868  12.151  0.2023  0.5363  0.2899
 4982SOL    HW126671   0.241   5.963  12.156 -0.2329  0.5588  0.0711
 4982SOL    HW226672   0.152   5.847  12.118  0.6758  0.1100 -0.7484
 4983SOL     OW26673   0.615   6.146   3.333  0.0028  0.0639  0.4261
 4983SOL    HW126674   0.522   6.169   3.333  0.0657  0.3233  0.6213
 4983SOL    HW226675   0.632   6.114   3.245 -0.2722  0.0179  0.3888
 4984SOL     OW26676   8.853  12.113  13.259 -0.1568  0.2573 -0.5368
 4984SOL    HW126677   8.877  12.206  13.259  1.9521 -0.2268 -0.9421
 4984SOL    HW226678   8.761  12.112  13.233 -0.3945  2.2556  0.0665
 4985SOL     OW26679  11.202  11.873   0.869 -0.4780 -0.3476 -0.3159
 4985SOL    HW126680  11.296  11.881   0.852 -0.4156  0.4029  0.3211
 4985SOL    HW226681  11.196  11.854   0.962 -1.0191  3.6824  0.6943
 4986SOL     OW26682   1.376   9.564   5.733 -0.5415 -0.2732  0.4142
 4986SOL    HW126683   1.432   9.566   5.655 -1.8270 -2.0165 -0.6344
 4986SOL    HW226684   1.295   9.605   5.704 -0.7870 -0.3082  1.0469
 4987SOL     OW26685  13.140   8.869  10.129 -0.1419  0.1209 -0.1495
 4987SOL    HW126686  13.055   8.894  10.093 -1.1207 -1.5677  0.8522
 4987SOL    HW226687  13.175   8.805  10.067  0.3306  0.6874 -0.4741
 4988SOL     OW26688   6.914   8.667   5.766  0.8369  0.9447  0.1764
 4988SOL    HW126689   6.945   8.757   5.767  1.4302  0.7581 -0.7209
 4988SOL    HW226690   6.964   8.624   5.836  1.9987  0.8598 -0.6716
 4989SOL     OW26691  11.294   1.988  11.260 -0.2844  0.2967 -0.0802
 4989SOL    HW126692  11.288   1.912  11.318  1.5186  0.5227  0.4931
 4989SOL    HW226693  11.205   2.001  11.228 -0.5236 -2.5721 -0.9051
 4990SOL     OW26694  13.448   8.696  10.335  0.7659 -0.3437  0.0580
 4990SOL    HW126695  13.384   8.732  10.397 -0.7911  1.2782 -2.3507
 4990SOL    HW226696  13.435   8.601  10.339 -1.6154 -0.0760 -0.1272
 4991SOL     OW26697   5.319  13.368  11.691 -0.7906 -0.0261 -0.1063
 4991SOL    HW126698   5.235  13.407  11.665 -0.6982 -1.4038 -2.8308
 4991SOL    HW226699   5.303  13.274  11.690  0.4822 -0.2629  0.5508
 4992SOL     OW26700   9.337  13.073  11.581  0.0279  0.1936 -0.2947
 4992SOL    HW126701   9.367  13.137  11.645 -0.0445 -0.4677  0.4094
 4992SOL    HW226702   9.242  13.072  11.591  0.1418 -1.3350  0.9954
 4993SOL     OW26703  11.731   8.748   5.772 -0.0262  0.4016  0.4512
 4993SOL    HW126704  11.764   8.659   5.788 -0.6747  0.2194  0.8123
 4993SOL    HW226705  11.723   8.753   5.676  0.4908  0.2469  0.3987
 4994SOL     OW26706  10.713  12.950   9.544  0.1302 -0.8533  0.2844
 4994SOL    HW126707  10.659  13.000   9.483 -0.1251 -0.8332  0.5257
 4994SOL    HW226708  10.728  13.010   9.618  0.4131 -0.8871  0.2555
 4995SOL     OW26709  12.305   0.938   8.996 -0.1486 -0.1649 -0.5449
 4995SOL    HW126710  12.393   0.947   8.959 -0.5173 -2.0131 -2.0648
 4995SOL    HW226711  12.258   1.015   8.964 -0.3055 -1.4105 -3.7941
 4996SOL     OW26712   9.066   6.880   7.853 -0.5407 -0.1564 -0.3007
 4996SOL    HW126713   8.972   6.858   7.851 -0.9230  1.3581 -1.3148
 4996SOL    HW226714   9.110   6.798   7.831 -1.6634 -0.7717 -0.3451
 4997SOL     OW26715   3.879  13.383   9.535  0.0983  0.3912  0.1541
 4997SOL    HW126716   3.849  13.352   9.449  1.5637  0.0167 -0.2377
 4997SOL    HW226717   3.959  13.335   9.552 -0.8909 -0.5893  2.4102
 4998SOL     OW26718   8.365  13.199  11.295  0.7793 -0.2091  0.4252
 4998SOL    HW126719   8.439  13.225  11.240 -0.2529  0.7600 -0.5777
 4998SOL    HW226720   8.321  13.130  11.246  0.3238  0.0818  0.4103
 4999SOL     OW26721   7.255   8.783   1.537  0.0326  0.1974  0.5990
 4999SOL    HW126722   7.312   8.771   1.461  0.3330  0.3683  0.7958
 4999SOL    HW226723   7.191   8.713   1.530  0.6821 -0.4160  0.7517
 5000SOL     OW26724   5.878  12.986   8.809 -0.4282 -0.0027  0.0709
 5000SOL    HW126725   5.823  12.994   8.731  0.5874 -0.1701 -0.6828
 5000SOL    HW226726   5.890  12.891   8.820  0.4968  0.0622 -0.3421
 5001SOL     OW26727  12.486   0.101  10.008 -0.3306 -0.1536 -0.0943
 5001SOL    HW126728  12.533   0.184  10.010 -1.1401  0.3396 -0.6026
 5001SOL    HW226729  12.393   0.126  10.011 -0.6037 -1.0007 -0.9639
 5002SOL     OW26730  11.486   4.010   9.347  0.0274  0.0308 -0.3535
 5002SOL    HW126731  11.527   4.078   9.401  0.3117 -1.0139  0.8022
 5002SOL    HW226732  11.500   4.038   9.257 -0.3073  1.7585  0.0936
 5003SOL     OW26733   1.721  11.785   8.648 -0.1117 -0.2395  0.0905
 5003SOL    HW126734   1.722  11.700   8.691 -1.9786 -1.1395 -1.4626
 5003SOL    HW226735   1.662  11.838   8.701 -1.4794 -0.9787 -0.6108
 5004SOL     OW26736   0.877   4.992  13.608  0.1193 -0.2906  0.0861
 5004SOL    HW126737   0.955   4.949  13.643 -0.0598 -0.9307 -0.2864
 5004SOL    HW226738   0.861   5.065  13.668  3.0198  2.0516 -1.7265
 5005SOL     OW26739   4.140   9.754   7.722  0.0244 -0.2401 -0.3192
 5005SOL    HW126740   4.111   9.772   7.811  1.5550 -0.3371  0.2267
 5005SOL    HW226741   4.110   9.830   7.672 -0.8660 -0.1939  0.2535
 5006SOL     OW26742   7.888   5.407   9.548  0.3797  0.2958 -0.0876
 5006SOL    HW126743   7.856   5.375   9.464 -0.4835  1.0967 -0.0868
 5006SOL    HW226744   7.983   5.397   9.544  0.2143 -1.3297 -0.4448
 5007SOL     OW26745   2.853   2.208   5.227 -0.1530 -0.4160 -0.9593
 5007SOL    HW126746   2.763   2.239   5.219  0.3171  0.8263 -1.7353
 5007SOL    HW226747   2.891   2.224   5.141  1.8395  2.4787  0.3138
 5008SOL     OW26748   0.122  10.713   3.033 -0.0386 -0.6838  0.0612
 5008SOL    HW126749   0.190  10.748   2.975  0.8439 -1.2713  0.7197
 5008SOL    HW226750   0.145  10.621   3.044 -0.9624 -0.8966  0.2881
 5009SOL     OW26751   2.450  12.174  12.934  0.1264 -0.1925  0.4601
 5009SOL    HW126752   2.421  12.139  13.018 -0.0846  3.0769  1.9012
 5009SOL    HW226753   2.387  12.244  12.914  1.1012  0.1799 -1.6160
 5010SOL     OW26754   0.517  12.841  11.354 -0.1731 -0.3479  0.2008
 5010SOL    HW126755   0.463  12.776  11.398  1.5580 -2.1156 -0.1335
 5010SOL    HW226756   0.567  12.882  11.424  0.8100 -1.4448  0.1706
 5011SOL     OW26757   5.257  13.539   9.790  0.3679 -0.1058 -0.8105
 5011SOL    HW126758   5.173  13.554   9.834  1.7727  1.9666  1.4398
 5011SOL    HW226759   5.315  13.508   9.860  1.7358 -0.5437 -2.0892
 5012SOL     OW26760   9.023  11.815   9.595  0.2704 -0.1380 -0.2430
 5012SOL    HW126761   9.066  11.874   9.657 -0.7712  0.1429  0.2418
 5012SOL    HW226762   8.929  11.825   9.614 -0.0042 -0.8318 -1.1664
 5013SOL     OW26763   1.539  10.055   3.537  0.3490 -0.5964  0.3696
 5013SOL    HW126764   1.525   9.970   3.496 -0.0936  0.2729 -1.3477
 5013SOL    HW226765   1.629  10.050   3.570  1.4112 -0.7613 -2.2683
 5014SOL     OW26766   9.211   7.249  12.838  0.1576 -0.0616  0.0320
 5014SOL    HW126767   9.276   7.286  12.898  0.5370  1.2626 -1.1531
 5014SOL    HW226768   9.190   7.320  12.778  0.2663 -1.4879 -1.8027
 5015SOL     OW26769   6.690   9.359   3.658  0.2426  0.4150  0.2461
 5015SOL    HW126770   6.659   9.302   3.588  0.0584  1.3343 -0.4449
 5015SOL    HW226771   6.778   9.328   3.679 -0.0926 -0.5033  0.3246
 5016SOL     OW26772  13.193  13.294   5.962 -0.1116 -0.2759  0.0155
 5016SOL    HW126773  13.111  13.291   6.011 -0.4126  1.6337 -0.2810
 5016SOL    HW226774  13.172  13.345   5.884  1.0476 -0.8780 -0.7086
 5017SOL     OW26775   9.285   9.463   2.908 -0.0458 -0.0717 -0.0784
 5017SOL    HW126776   9.355   9.397   2.904  2.2323  1.7311  3.8539
 5017SOL    HW226777   9.224   9.428   2.973  0.5279  1.0704  1.1023
 5018SOL     OW26778   8.095  13.409   7.143  0.1720 -0.6879 -0.5470
 5018SOL    HW126779   8.076  13.372   7.229  0.6766 -0.6039 -0.3949
 5018SOL    HW226780   8.070  13.341   7.081  1.5873 -1.5069 -0.2529
 5019SOL     OW26781   3.362   5.762   4.609 -0.0127 -0.2652 -0.1434
 5019SOL    HW126782   3.407   5.840   4.579 -0.1536 -1.1909 -3.0881
 5019SOL    HW226783   3.292   5.794   4.666  0.0950  1.7319 -1.0667
 5020SOL     OW26784   9.825   3.224  13.277  0.1336 -0.0716 -0.4690
 5020SOL    HW126785   9.843   3.143  13.230  1.8139 -0.1154  0.1862
 5020SOL    HW226786   9.892   3.228  13.345  0.7582  2.3852 -1.1174
 5021SOL     OW26787   6.871   3.306  12.059 -0.0554  0.4163 -0.3541
 5021SOL    HW126788   6.897   3.313  12.151 -0.9148 -0.8647  0.0097
 5021SOL    HW226789   6.855   3.396  12.031 -0.4760  0.7650  0.9655
 5022SOL     OW26790   1.247  13.123  11.140  0.3400  0.6448 -0.2177
 5022SOL    HW126791   1.226  13.136  11.232  0.4759  0.2563 -0.1271
 5022SOL    HW226792   1.167  13.086  11.102  0.4082  0.4429 -0.1687
 5023SOL     OW26793   9.517   6.789  12.225  0.3016 -0.1375 -0.0513
 5023SOL    HW126794   9.429   6.825  12.230  1.5312  3.2134 -0.2017
 5023SOL    HW226795   9.504   6.694  12.221 -3.2989  0.2654 -1.2917
 5024SOL     OW26796  10.918   3.251   6.799 -0.3253  0.3369  0.0822
 5024SOL    HW126797  10.981   3.200   6.748 -0.5420  0.1066  0.0436
 5024SOL    HW226798  10.839   3.197   6.801 -0.7651  0.9394 -0.4912
 5025SOL     OW26799  13.588  11.167   4.535  0.1315 -0.2543 -0.3408
 5025SOL    HW126800  13.522  11.110   4.496 -1.0531  1.5386 -1.0862
 5025SOL    HW226801  13.577  11.156   4.629 -0.8725 -0.4126 -0.4633
 5026SOL     OW26802  11.988  11.986   6.140 -0.4292  0.5942 -0.3151
 5026SOL    HW126803  12.062  11.979   6.080  0.2017 -0.4208  0.5508
 5026SOL    HW226804  11.911  11.990   6.083  0.2923  2.1945 -1.2479
 5027SOL     OW26805  13.708   5.839  12.127  0.1356 -0.3106  0.0242
 5027SOL    HW126806  13.650   5.913  12.143 -0.3861 -0.9044  0.9199
 5027SOL    HW226807  13.651   5.762  12.132  0.6624 -0.7885 -0.9285
 5028SOL     OW26808   7.490   6.279   6.062  0.0838 -0.3061 -0.1819
 5028SOL    HW126809   7.574   6.233   6.051  0.0454 -0.2422 -0.7703
 5028SOL    HW226810   7.508   6.369   6.033 -0.3304 -0.4360 -0.8649
 5029SOL     OW26811   0.569   4.059  11.283 -0.3528  0.3222 -0.2171
 5029SOL    HW126812   0.623   4.051  11.361  0.1571  2.2498 -0.3333
 5029SOL    HW226813   0.479   4.059  11.316 -0.2971 -1.6275  0.0789
 5030SOL     OW26814  12.599   3.261   6.334  0.1312  0.0799  0.2276
 5030SOL    HW126815  12.606   3.191   6.269  0.4456  0.0075  0.3362
 5030SOL    HW226816  12.507   3.260   6.362 -0.4752  1.3246 -1.5485
 5031SOL     OW26817   7.941  12.609  13.206  0.2907 -0.4991  0.0645
 5031SOL    HW126818   8.025  12.654  13.197  0.0652 -0.2293 -0.7500
 5031SOL    HW226819   7.962  12.516  13.193  0.6118 -0.5522  0.8679
 5032SOL     OW26820   1.204   3.421   0.126  0.0947 -0.3677  0.1805
 5032SOL    HW126821   1.198   3.517   0.131 -0.1460 -0.4051  0.6008
 5032SOL    HW226822   1.148   3.398   0.052 -0.4925 -0.2497  0.5859
 5033SOL     OW26823   6.989   2.505  12.639  0.2317 -0.2273  0.5205
 5033SOL    HW126824   6.967   2.587  12.683  0.4286 -0.2892  0.7337
 5033SOL    HW226825   7.006   2.443  12.709 -0.2603 -0.5500  0.3602
 5034SOL     OW26826  10.855   0.290   5.982 -0.1196  0.4175  0.0490
 5034SOL    HW126827  10.859   0.300   6.077 -1.2256 -2.0633  0.4485
 5034SOL    HW226828  10.790   0.354   5.954 -0.0709  0.9125  1.0125
 5035SOL     OW26829  10.814  11.603   0.032  0.1305 -0.2677  0.4369
 5035SOL    HW126830  10.722  11.612   0.058 -0.4314 -3.1991 -0.1497
 5035SOL    HW226831  10.844  11.525   0.079  3.0684  1.7944  2.3198
 5036SOL     OW26832   5.072  12.114   6.073 -0.3272 -0.2627  0.0952
 5036SOL    HW126833   5.166  12.128   6.082  0.8204 -4.2430 -2.7226
 5036SOL    HW226834   5.045  12.172   6.002  0.0482  0.5220  0.5763
 5037SOL     OW26835   2.018   2.851   7.932  0.0699 -0.0697  0.3148
 5037SOL    HW126836   1.933   2.825   7.969  1.1184 -1.7282  1.6933
 5037SOL    HW226837   2.060   2.900   8.003  0.4569  0.3678 -0.2110
 5038SOL     OW26838   0.178   9.422   4.344  0.0074 -0.1260  0.3028
 5038SOL    HW126839   0.119   9.459   4.410  0.2179  1.6426 -0.4565
 5038SOL    HW226840   0.130   9.346   4.309 -0.9980  0.1699  1.0053
 5039SOL     OW26841   9.930  10.895   5.534  0.3581  0.6634  0.3349
 5039SOL    HW126842   9.969  10.876   5.619 -0.0198 -0.7044  0.2211
 5039SOL    HW226843   9.903  10.987   5.540  0.4219  0.6149  1.6545
 5040SOL     OW26844   7.080   1.732   1.405 -0.0853  0.0258 -0.2354
 5040SOL    HW126845   7.135   1.808   1.423  1.2252 -1.2137  1.2656
 5040SOL    HW226846   7.107   1.703   1.318  1.4195 -0.3690  0.3472
 5041SOL     OW26847   5.141  10.901  11.799 -0.1220  0.8399 -0.0121
 5041SOL    HW126848   5.169  10.929  11.886  0.2251  0.0890  0.1273
 5041SOL    HW226849   5.215  10.924  11.742  0.2950 -0.0501  0.1539
 5042SOL     OW26850   0.468   8.567   4.934 -0.1140 -0.0403  0.0036
 5042SOL    HW126851   0.391   8.521   4.901 -2.1305  0.8091  3.0575
 5042SOL    HW226852   0.496   8.515   5.010  0.8057  1.0041  0.4084
 5043SOL     OW26853   6.509   4.014   6.544  0.1882 -0.4732 -0.3177
 5043SOL    HW126854   6.582   4.060   6.584 -0.1784  1.0323 -1.3164
 5043SOL    HW226855   6.535   4.000   6.453 -1.4081  1.6780 -1.1830
 5044SOL     OW26856   8.443  11.456   9.498  0.2122 -0.3113 -0.2634
 5044SOL    HW126857   8.379  11.387   9.480  0.7575 -0.8376 -0.2307
 5044SOL    HW226858   8.509  11.446   9.430  0.1654  0.3561 -0.4149
 5045SOL     OW26859   0.458   6.875  12.333 -0.0325 -0.4459 -0.8002
 5045SOL    HW126860   0.497   6.933  12.398  0.8170 -1.9674  0.0982
 5045SOL    HW226861   0.367   6.865  12.360 -0.1423  0.3139 -0.8733
 5046SOL     OW26862   6.912  13.047  13.086 -0.3976 -0.0522  0.4128
 5046SOL    HW126863   6.818  13.062  13.075 -1.3884 -2.6217  3.7042
 5046SOL    HW226864   6.938  13.107  13.157  0.8512  1.5668 -1.3187
 5047SOL     OW26865  10.423   0.147   4.551  0.3147  0.0211  0.7154
 5047SOL    HW126866  10.421   0.219   4.487 -1.6265  1.4113  2.2175
 5047SOL    HW226867  10.344   0.097   4.534 -0.4689  0.6705  2.2277
 5048SOL     OW26868   6.926   9.413  12.481  0.2963  0.0114 -0.0023
 5048SOL    HW126869   6.838   9.444  12.502  0.8194  1.0494  0.7397
 5048SOL    HW226870   6.970   9.405  12.565  0.7597 -1.0392 -0.3215
 5049SOL     OW26871   9.455   8.759   2.980 -0.1995  0.4758 -0.0108
 5049SOL    HW126872   9.420   8.673   2.960 -0.5739  0.8480 -1.0411
 5049SOL    HW226873   9.398   8.794   3.048 -1.1339  0.6103 -0.8489
 5050SOL     OW26874  11.906   5.858  12.143  0.1025  0.4801  0.2925
 5050SOL    HW126875  11.907   5.821  12.231  2.8206 -3.2757 -1.0413
 5050SOL    HW226876  11.814   5.856  12.117 -0.4073 -1.1266  2.0265
 5051SOL     OW26877   8.330   3.730   4.991 -0.1492  0.1093  0.5375
 5051SOL    HW126878   8.376   3.746   5.074  0.9521  0.1584 -0.0624
 5051SOL    HW226879   8.255   3.676   5.016  0.0105  0.3447  1.6037
 5052SOL     OW26880   1.224  13.366   7.832  0.0794  0.0879  0.6755
 5052SOL    HW126881   1.240  13.448   7.785 -1.3360 -0.3431 -0.6627
 5052SOL    HW226882   1.300  13.312   7.812 -0.0427  0.2703 -0.3529
 5053SOL     OW26883   0.144   6.272   5.567  0.1260  0.1872 -0.4391
 5053SOL    HW126884   0.070   6.212   5.559 -0.1595  0.4188  0.4353
 5053SOL    HW226885   0.109   6.347   5.614  1.5750 -0.8714  2.5366
 5054SOL     OW26886   8.927   2.102   7.375 -0.4784  0.1859  0.1650
 5054SOL    HW126887   8.964   2.168   7.316  0.9333 -1.4126 -0.8429
 5054SOL    HW226888   8.874   2.046   7.317 -0.6522 -0.2806  0.7658
 5055SOL     OW26889   1.072   6.724   2.546  0.0369  0.0231  0.3657
 5055SOL    HW126890   0.987   6.769   2.551  0.8259  1.5287  0.9706
 5055SOL    HW226891   1.124   6.779   2.486  0.6715 -0.7362  0.2126
 5056SOL     OW26892   6.877   2.003  13.021  0.6103  0.4603 -0.0988
 5056SOL    HW126893   6.827   2.081  12.996  0.0184  0.1422  0.0671
 5056SOL    HW226894   6.830   1.969  13.097 -0.0316 -0.9289 -1.0916
 5057SOL     OW26895   9.359   3.799  10.275 -0.3517 -0.7271 -0.3263
 5057SOL    HW126896   9.368   3.883  10.320 -0.7400 -0.7608 -0.1818
 5057SOL    HW226897   9.349   3.735  10.346 -2.7467 -0.5731 -0.4603
 5058SOL     OW26898   5.178   2.459   8.665 -0.2581 -0.2281  0.0676
 5058SOL    HW126899   5.258   2.487   8.708 -1.1385  1.8769  0.4343
 5058SOL    HW226900   5.160   2.372   8.701  0.9513 -0.0315  1.2005
 5059SOL     OW26901  11.645  10.545   6.492 -0.0726  0.0660 -0.0532
 5059SOL    HW126902  11.611  10.537   6.403  0.0782 -0.4575 -0.0727
 5059SOL    HW226903  11.717  10.607   6.484 -0.8965  1.0412 -0.0443
 5060SOL     OW26904   6.315   3.450  11.899  0.3177 -0.2404  0.2312
 5060SOL    HW126905   6.367   3.486  11.970  2.0262 -2.7955  0.4423
 5060SOL    HW226906   6.227   3.442  11.934  0.9997 -0.8821  1.8765
 5061SOL     OW26907   4.276   4.796   7.775  0.2594 -0.0261  0.6835
 5061SOL    HW126908   4.319   4.721   7.732  0.0719 -0.0448  0.5294
 5061SOL    HW226909   4.249   4.853   7.703  1.3192  0.7015  0.8354
 5062SOL     OW26910   5.663   1.181   1.761  0.1024  0.5955 -0.5013
 5062SOL    HW126911   5.683   1.273   1.744  1.1157  0.2602 -1.1975
 5062SOL    HW226912   5.567   1.179   1.771  0.0493  1.6889 -0.6650
 5063SOL     OW26913  12.554   4.783  13.287 -0.0672 -0.1175  0.5306
 5063SOL    HW126914  12.515   4.757  13.204  1.3278 -0.4576 -0.0365
 5063SOL    HW226915  12.566   4.878  13.279  0.7589 -0.2566  0.0301
 5064SOL     OW26916   3.848   3.259   9.141  0.1371 -0.4317  0.0167
 5064SOL    HW126917   3.924   3.279   9.195  0.5446  0.4445 -0.8602
 5064SOL    HW226918   3.799   3.341   9.138 -1.2659 -1.1816  1.1964
 5065SOL     OW26919   5.748   9.879  12.662 -0.4100  0.3430  0.0432
 5065SOL    HW126920   5.812   9.842  12.601 -1.4498  0.3057 -1.0698
 5065SOL    HW226921   5.764   9.973  12.660  1.5931  0.1272  2.1311
 5066SOL     OW26922   8.669   2.106   9.212  0.2346 -0.3633  0.6447
 5066SOL    HW126923   8.610   2.145   9.147  0.8821 -0.1753  0.1565
 5066SOL    HW226924   8.747   2.081   9.162  0.5640 -0.6214  1.2738
 5067SOL     OW26925   0.687  13.652  12.541  0.5161 -0.3996 -0.4976
 5067SOL    HW126926   0.667  13.570  12.495  2.4866 -1.2262  0.0332
 5067SOL    HW226927   0.759  13.691  12.492  2.9736 -1.5134  1.9659
 5068SOL     OW26928   7.226   7.495   9.902 -0.1238  0.0779  0.0550
 5068SOL    HW126929   7.243   7.407   9.867  1.2532  0.8156 -1.2886
 5068SOL    HW226930   7.140   7.519   9.868 -0.3412 -0.5937  0.1230
 5069SOL     OW26931   4.520  11.417   1.418 -0.5626  0.3605  0.6044
 5069SOL    HW126932   4.489  11.501   1.450  0.6721  0.7070  0.9179
 5069SOL    HW226933   4.562  11.436   1.335  0.6117  0.2247  1.1488
 5070SOL     OW26934   6.593   3.602   7.543  0.0411  0.2924 -0.0231
 5070SOL    HW126935   6.521   3.573   7.598 -0.2422  1.3220  0.1678
 5070SOL    HW226936   6.554   3.668   7.485  1.0399  1.6590  0.8078
 5071SOL     OW26937   6.276   7.392   1.898  0.4987 -0.1200 -0.1754
 5071SOL    HW126938   6.191   7.350   1.910  0.5521 -0.4425 -0.9114
 5071SOL    HW226939   6.267   7.442   1.817  0.9934 -0.1130 -0.2270
 5072SOL     OW26940   6.189   6.670  12.441 -0.4710 -0.6423  0.2662
 5072SOL    HW126941   6.115   6.659  12.501 -1.6008 -0.7829 -1.0876
 5072SOL    HW226942   6.205   6.582  12.407  0.3512 -0.6161  0.5613
 5073SOL     OW26943   9.910   1.581   5.219  0.0620  0.7184  0.5308
 5073SOL    HW126944   9.829   1.571   5.170 -0.4717  0.0366  1.5211
 5073SOL    HW226945   9.934   1.673   5.207 -0.0105  0.5562 -1.0324
 5074SOL     OW26946  10.285   1.186   7.815  0.3101  0.1374  0.5608
 5074SOL    HW126947  10.305   1.263   7.869  1.0984  0.6818 -0.4778
 5074SOL    HW226948  10.192   1.169   7.831  0.7503 -0.3708  2.8981
 5075SOL     OW26949   5.144   9.479   7.029 -0.0446 -0.1874 -0.3658
 5075SOL    HW126950   5.194   9.411   6.984  0.7458 -0.2236  0.5224
 5075SOL    HW226951   5.059   9.481   6.984  0.6010 -0.4265 -1.6207
 5076SOL     OW26952   3.630  11.043   8.218  0.1969 -0.1269  0.1312
 5076SOL    HW126953   3.661  11.003   8.136  1.2445  0.2945  0.3073
 5076SOL    HW226954   3.709  11.052   8.271 -0.6735 -1.7621  1.8040
 5077SOL     OW26955   7.265   1.922   3.076  0.4308 -0.2058 -0.2631
 5077SOL    HW126956   7.207   1.860   3.032  0.3234 -0.1598 -0.1860
 5077SOL    HW226957   7.233   1.925   3.166 -0.8334  1.4948 -0.7390
 5078SOL     OW26958   0.103  13.485  12.802 -0.0963 -0.7803 -0.3574
 5078SOL    HW126959   0.120  13.409  12.747  0.2109 -0.4940 -0.6654
 5078SOL    HW226960   0.008  13.489  12.810 -0.1476 -0.7516 -0.9748
 5079SOL     OW26961   9.740  13.212  12.564  0.5715  0.3944 -1.0831
 5079SOL    HW126962   9.815  13.246  12.516  0.9618  2.3045  0.7453
 5079SOL    HW226963   9.663  13.246  12.518  0.8822  0.4790 -1.5372
 5080SOL     OW26964   5.283  10.514  11.698 -0.7962  0.4913  0.5527
 5080SOL    HW126965   5.268  10.452  11.626 -0.5765  1.0193  0.0467
 5080SOL    HW226966   5.311  10.458  11.771 -2.0307 -0.1651  0.5571
 5081SOL     OW26967   3.213  12.493  11.556  0.1245  0.3221 -0.2405
 5081SOL    HW126968   3.293  12.542  11.574  0.0422 -0.2019  1.9018
 5081SOL    HW226969   3.236  12.431  11.488  1.4812  0.3628  0.1615
 5082SOL     OW26970   4.716  13.427  12.629  0.3530 -0.0924  0.3412
 5082SOL    HW126971   4.638  13.481  12.640  1.0002  0.7523  0.8611
 5082SOL    HW226972   4.730  13.388  12.716  0.3899 -0.4056  0.1948
 5083SOL     OW26973  12.683   2.715   1.886 -0.2573  0.1850  0.0177
 5083SOL    HW126974  12.691   2.782   1.954  0.1558  0.7025 -0.5279
 5083SOL    HW226975  12.753   2.652   1.906 -0.6886 -0.1245  0.5696
 5084SOL     OW26976   7.451   9.097   3.141  0.5455  0.6461 -0.7951
 5084SOL    HW126977   7.509   9.170   3.123  1.3261 -0.0422 -1.1572
 5084SOL    HW226978   7.510   9.025   3.166 -0.3256  0.8090  2.0023
 5085SOL     OW26979   3.423   1.613  12.710  0.2682  0.2899  0.0680
 5085SOL    HW126980   3.513   1.641  12.695  0.2943  0.1042 -0.1294
 5085SOL    HW226981   3.379   1.629  12.627  0.1714  0.1839  0.0989
 5086SOL     OW26982   9.015   1.584   5.152 -0.8730 -0.4621 -0.0303
 5086SOL    HW126983   9.014   1.493   5.184 -1.3153 -0.5710 -0.3287
 5086SOL    HW226984   8.980   1.577   5.063  1.5082 -0.3434 -1.0546
 5087SOL     OW26985   8.800   4.024   7.417  0.7597 -0.2215  0.3616
 5087SOL    HW126986   8.711   4.045   7.389  1.0475 -0.0231 -0.4402
 5087SOL    HW226987   8.789   3.980   7.501 -0.2544 -1.9597 -0.6110
 5088SOL     OW26988   9.860   3.740   8.322  0.0488  0.4358 -0.4968
 5088SOL    HW126989   9.858   3.796   8.244  0.3990  0.8182 -0.2385
 5088SOL    HW226990   9.935   3.772   8.372  0.5927 -0.6318 -0.6052
 5089SOL     OW26991  13.572  10.897   9.248  0.1423 -0.2234 -0.3356
 5089SOL    HW126992  13.555  10.946   9.168 -1.5852  1.7479  1.1445
 5089SOL    HW226993  13.584  10.964   9.316  3.1141 -1.7709  0.8657
 5090SOL     OW26994   9.144  12.159   0.975  0.7888 -0.4387  0.4081
 5090SOL    HW126995   9.080  12.100   0.935 -3.0464  2.1265  2.1698
 5090SOL    HW226996   9.175  12.113   1.053  0.5317 -1.4261 -0.0586
 5091SOL     OW26997  10.489   1.297   9.399  0.3010  0.5093  0.3653
 5091SOL    HW126998  10.548   1.365   9.367  0.4784  0.0873 -0.2216
 5091SOL    HW226999  10.402   1.338   9.396  0.3591  0.6025 -0.3287
 5092SOL     OW27000   1.881  10.133   8.276 -0.6661  0.0942  0.3572
 5092SOL    HW127001   1.836  10.101   8.198  0.3125 -1.5612  0.4233
 5092SOL    HW227002   1.920  10.055   8.315  2.9451  1.4431 -0.1613
 5093SOL     OW27003   8.688   4.347  13.076  0.5071 -0.5286  0.2265
 5093SOL    HW127004   8.655   4.366  13.164  0.7089 -0.8839  0.3789
 5093SOL    HW227005   8.611   4.314  13.029  0.2549  0.2537  0.0855
 5094SOL     OW27006   1.110   2.523   5.894 -0.2141  0.2943  0.5456
 5094SOL    HW127007   1.071   2.608   5.914 -1.9421 -0.5132  0.8052
 5094SOL    HW227008   1.111   2.476   5.977 -0.6516 -0.4572  0.1426
 5095SOL     OW27009   7.010   5.094   9.501  0.4470  0.0837  0.1219
 5095SOL    HW127010   7.003   5.184   9.533  1.9240  0.0448  0.6220
 5095SOL    HW227011   6.925   5.076   9.460  0.2167  1.7778 -0.1901
 5096SOL     OW27012   7.844   4.227   0.705  0.0184 -0.0151 -0.0197
 5096SOL    HW127013   7.764   4.203   0.752  1.4097  0.0881  2.5554
 5096SOL    HW227014   7.845   4.169   0.629 -1.8015 -0.9686  0.6208
 5097SOL     OW27015   0.192  10.121   0.219 -0.2846  0.1449 -0.4624
 5097SOL    HW127016   0.283  10.095   0.232  0.2103  1.6267 -0.7151
 5097SOL    HW227017   0.150  10.105   0.304  0.3961  0.1346 -0.1257
 5098SOL     OW27018   7.637   1.475   8.517 -0.4792  0.7737 -0.3845
 5098SOL    HW127019   7.609   1.549   8.571  0.3469 -0.2314  1.5250
 5098SOL    HW227020   7.625   1.398   8.573 -0.3569 -0.4300 -1.9463
 5099SOL     OW27021  11.913   9.535   1.385  0.1548 -0.7359 -0.1186
 5099SOL    HW127022  11.886   9.625   1.367  0.3797 -0.5831  0.3158
 5099SOL    HW227023  12.007   9.539   1.398  0.1544 -1.0203 -0.0072
 5100SOL     OW27024   0.617   4.942   4.099  0.6614  0.1257 -0.0298
 5100SOL    HW127025   0.662   4.936   4.014  1.9551 -0.1997  0.6640
 5100SOL    HW227026   0.663   5.011   4.146 -0.0945  0.3452  0.4068
 5101SOL     OW27027   4.453   9.281   1.395  0.0845 -0.2177  0.1960
 5101SOL    HW127028   4.404   9.230   1.330 -0.5705 -0.6361  1.0037
 5101SOL    HW227029   4.543   9.281   1.362 -0.1401 -0.8566 -0.4479
 5102SOL     OW27030   0.125   2.397   2.789 -0.0006  0.2706  0.8181
 5102SOL    HW127031   0.189   2.364   2.726  0.9092 -2.4291  2.9663
 5102SOL    HW227032   0.178   2.428   2.862 -1.0934 -0.4649  1.9473
 5103SOL     OW27033   0.856  13.156   0.317  0.1276 -0.2675 -0.2456
 5103SOL    HW127034   0.870  13.078   0.370  0.8813  0.0610  0.0643
 5103SOL    HW227035   0.918  13.220   0.353  0.5087  0.0248 -1.3937
 5104SOL     OW27036   0.921  10.402  10.410 -0.1837  0.6307 -0.1776
 5104SOL    HW127037   0.887  10.352  10.335  2.3023  0.5287 -1.3445
 5104SOL    HW227038   1.002  10.356  10.435  0.1555  1.9017  1.2023
 5105SOL     OW27039   0.548  11.254   1.274 -0.6060 -0.1126 -0.5490
 5105SOL    HW127040   0.549  11.230   1.367  0.5127  1.7467 -0.0287
 5105SOL    HW227041   0.468  11.215   1.240 -0.7919 -1.2481  1.0758
 5106SOL     OW27042   1.246   0.607  13.531 -0.4423 -0.0317 -0.1651
 5106SOL    HW127043   1.234   0.699  13.555 -0.3684 -0.4316  1.5525
 5106SOL    HW227044   1.278   0.610  13.441 -1.8304  1.5518 -0.6508
 5107SOL     OW27045   1.253   7.480  10.738  0.4540  0.4108 -0.2534
 5107SOL    HW127046   1.328   7.489  10.797  0.1544  0.1048  0.1798
 5107SOL    HW227047   1.205   7.404  10.771  0.5754 -0.1054 -1.2312
 5108SOL     OW27048   1.941  12.534   8.883  0.1629  0.1576  0.2399
 5108SOL    HW127049   1.918  12.610   8.935  1.2638  1.6727 -1.3721
 5108SOL    HW227050   1.946  12.462   8.946  1.2993  1.8642  2.2197
 5109SOL     OW27051  12.180  12.291  12.057  0.3534 -0.4241 -0.9608
 5109SOL    HW127052  12.276  12.297  12.050  0.3623 -1.2560 -1.7249
 5109SOL    HW227053  12.150  12.381  12.041  1.0630  0.1826  0.8754
 5110SOL     OW27054   9.167   6.066   8.519 -0.3125  0.4349  0.0065
 5110SOL    HW127055   9.181   6.018   8.600  2.1022 -1.4480 -1.3989
 5110SOL    HW227056   9.228   6.140   8.524  0.4219 -0.1365 -0.4148
 5111SOL     OW27057   6.952   6.591   9.281  0.1258  0.6123 -0.0817
 5111SOL    HW127058   7.033   6.584   9.332  0.6957 -1.7391 -1.1685
 5111SOL    HW227059   6.889   6.537   9.329 -0.4528  1.4102  0.0774
 5112SOL     OW27060   3.319   5.056  11.902 -0.5788 -0.5306 -0.3923
 5112SOL    HW127061   3.320   5.039  11.996  1.3498  0.0901 -0.2573
 5112SOL    HW227062   3.342   4.972  11.862  2.1732 -0.0407 -0.0645
 5113SOL     OW27063   5.634   1.673   2.908  0.2653 -0.1385 -0.4954
 5113SOL    HW127064   5.639   1.668   2.813 -0.4771 -1.4589 -0.4908
 5113SOL    HW227065   5.590   1.592   2.934  0.2042  0.3279  0.9527
 5114SOL     OW27066  12.665  13.281   4.191 -0.1151  0.3258  0.3118
 5114SOL    HW127067  12.752  13.249   4.217 -0.3077  0.6467  1.4087
 5114SOL    HW227068  12.667  13.281   4.095  0.8858 -0.2352  0.3197
 5115SOL     OW27069   1.135  11.318   1.208  0.3555  0.1749  0.1312
 5115SOL    HW127070   1.228  11.311   1.187  0.4692  0.7031  0.4435
 5115SOL    HW227071   1.129  11.287   1.298  0.2316  0.1493  0.1137
 5116SOL     OW27072   9.297  12.350   4.325  0.1985  0.0435  0.2024
 5116SOL    HW127073   9.309  12.261   4.291 -0.2239 -0.6721  1.8436
 5116SOL    HW227074   9.359  12.356   4.398 -1.9416 -0.0700  2.1459
 5117SOL     OW27075   1.856   1.135   2.854  0.0247 -0.6238  0.5206
 5117SOL    HW127076   1.891   1.215   2.893 -1.8314  0.0697  0.8757
 5117SOL    HW227077   1.762   1.140   2.870 -0.1746 -2.7768  0.3425
 5118SOL     OW27078   9.325   4.822   4.715  0.9175 -0.1667 -0.2592
 5118SOL    HW127079   9.419   4.808   4.712  0.9632 -0.1981  1.0596
 5118SOL    HW227080   9.287   4.736   4.701  1.1134 -0.4035  0.6119
 5119SOL     OW27081  11.162   6.255   6.983  0.0982  0.1459  0.3132
 5119SOL    HW127082  11.084   6.293   7.021 -1.1340 -0.7631 -1.1637
 5119SOL    HW227083  11.149   6.263   6.888  0.7951 -1.8858 -0.0053
 5120SOL     OW27084   4.487  10.911   8.453  0.1397 -0.1654  0.7503
 5120SOL    HW127085   4.537  10.929   8.532  1.1729  1.0706 -0.1484
 5120SOL    HW227086   4.552  10.910   8.383 -0.9441  0.3275 -0.2987
 5121SOL     OW27087  11.932   4.246  10.290  0.6315 -0.1488  0.3161
 5121SOL    HW127088  11.961   4.333  10.316  1.2097 -0.6307  1.3377
 5121SOL    HW227089  11.917   4.199  10.373  1.1982 -1.3032 -0.2050
 5122SOL     OW27090  10.959   5.301  13.580 -0.4902 -0.2181 -0.0559
 5122SOL    HW127091  10.918   5.238  13.522 -0.8625  0.4113 -0.4939
 5122SOL    HW227092  11.017   5.352  13.522  1.6330 -1.6546  0.6831
 5123SOL     OW27093   3.136   8.211  11.089  0.1745 -0.2846  0.4515
 5123SOL    HW127094   3.185   8.291  11.109  1.9858 -1.6374  1.6531
 5123SOL    HW227095   3.197   8.157  11.040 -0.6747 -1.3852  0.5763
 5124SOL     OW27096   0.601   7.798  13.210  0.8335 -0.0806  0.0474
 5124SOL    HW127097   0.632   7.710  13.232  1.5760  0.1594 -0.0240
 5124SOL    HW227098   0.645   7.819  13.127 -0.5157 -0.2396 -0.7465
 5125SOL     OW27099   8.886   5.589   3.860 -0.0486 -0.4331  0.0980
 5125SOL    HW127100   8.867   5.662   3.801 -1.6161  0.7695  1.9389
 5125SOL    HW227101   8.906   5.631   3.944  1.9585 -2.0654  0.5089
 5126SOL     OW27102   1.280   9.638  13.682  0.0085  0.0856  0.1355
 5126SOL    HW127103   1.318   9.645  13.595  1.2589  2.4821  0.8000
 5126SOL    HW227104   1.348   9.669  13.741 -0.9286 -1.1679  1.9793
 5127SOL     OW27105   8.964   6.126  12.528  0.9033 -0.2989  0.1965
 5127SOL    HW127106   8.967   6.086  12.614  1.8652 -1.3472 -0.2962
 5127SOL    HW227107   8.904   6.199  12.537  0.5891 -0.7139  1.6160
 5128SOL     OW27108   5.580   3.043   4.681 -0.3211  0.0327 -0.0793
 5128SOL    HW127109   5.520   3.038   4.755 -1.8303 -0.2321 -1.2700
 5128SOL    HW227110   5.603   2.952   4.662 -0.4146  0.0552 -0.3055
 5129SOL     OW27111   1.948   0.922   3.661 -0.0289 -0.2903 -0.3351
 5129SOL    HW127112   2.039   0.914   3.634 -0.0355 -1.4917 -0.0439
 5129SOL    HW227113   1.935   0.852   3.725 -1.0249  0.1749  0.0022
 5130SOL     OW27114   2.751   1.530   9.845 -0.5679  0.5361  0.3284
 5130SOL    HW127115   2.702   1.481   9.911 -1.3232 -0.0315 -0.6075
 5130SOL    HW227116   2.683   1.565   9.787  0.1157 -0.5962 -1.2332
 5131SOL     OW27117   0.418  12.892  12.525 -0.5968  0.5267 -0.0077
 5131SOL    HW127118   0.474  12.837  12.471 -2.4851  0.5582 -2.1717
 5131SOL    HW227119   0.405  12.972  12.473 -3.0972  0.2519  0.0567
 5132SOL     OW27120   5.970  11.040   5.868  0.1010  0.4286 -0.1870
 5132SOL    HW127121   5.936  11.113   5.817 -2.1802  0.7093  1.5221
 5132SOL    HW227122   5.926  10.963   5.832  3.0377 -0.3568 -2.4625
 5133SOL     OW27123   3.434   9.175   1.586 -0.2003  0.1918 -0.9405
 5133SOL    HW127124   3.360   9.230   1.612  0.1512  1.0140 -1.6475
 5133SOL    HW227125   3.492   9.233   1.538  1.4740 -0.1623  0.5280
 5134SOL     OW27126   9.300   9.913   2.901  0.2933 -0.2590  0.2504
 5134SOL    HW127127   9.229   9.977   2.913 -0.2901 -1.0523  1.2165
 5134SOL    HW227128   9.279   9.870   2.818  0.3576  0.3843 -0.1073
 5135SOL     OW27129   9.142   0.238  13.519 -0.5101  0.0291 -0.1998
 5135SOL    HW127130   9.089   0.225  13.597 -0.6751  1.4534 -0.0356
 5135SOL    HW227131   9.176   0.152  13.498  0.3950 -0.2242  2.0590
 5136SOL     OW27132   7.059   3.584  11.715 -0.6438  0.4899 -0.3887
 5136SOL    HW127133   7.073   3.658  11.657 -0.6120  1.0843  0.3608
 5136SOL    HW227134   7.115   3.601  11.791 -1.5398  0.3139  0.3404
 5137SOL     OW27135  12.065  11.783  10.626 -0.4735  0.8691 -0.4841
 5137SOL    HW127136  12.021  11.807  10.545 -1.6147  2.6364  0.6131
 5137SOL    HW227137  12.001  11.731  10.674  0.4454 -0.7764 -0.9586
 5138SOL     OW27138   2.056  12.242  11.192  0.4891  0.1816  0.1840
 5138SOL    HW127139   2.031  12.317  11.247 -0.3006  0.7209 -0.8740
 5138SOL    HW227140   1.985  12.235  11.128  1.0299 -0.8911 -0.3163
 5139SOL     OW27141  10.053   2.793  11.442  0.1675  0.0064 -0.0955
 5139SOL    HW127142  10.047   2.856  11.514 -0.3818  1.0238 -1.0010
 5139SOL    HW227143  10.050   2.846  11.363  1.9298 -1.0000 -0.8965
 5140SOL     OW27144  13.563   7.910   6.812  0.1743 -0.2719  0.8728
 5140SOL    HW127145  13.560   7.999   6.846  0.2868  0.8038 -1.6662
 5140SOL    HW227146  13.655   7.894   6.792  0.2816 -1.3191  2.0446
 5141SOL     OW27147   1.353  13.550   2.203  0.4563 -0.6213 -0.2987
 5141SOL    HW127148   1.404  13.522   2.279 -1.1663 -1.3576  0.5511
 5141SOL    HW227149   1.320  13.637   2.227  1.3543 -0.0849 -0.9046
 5142SOL     OW27150   0.663  12.541   3.611 -0.1280 -0.4451 -0.0578
 5142SOL    HW127151   0.744  12.506   3.648 -0.0648 -0.5887 -0.3280
 5142SOL    HW227152   0.637  12.611   3.671 -0.3144 -1.0276  0.5475
 5143SOL     OW27153  10.648  12.761  13.577  0.3596 -0.5579 -0.2742
 5143SOL    HW127154  10.631  12.699  13.647 -0.9273 -0.8604 -0.8168
 5143SOL    HW227155  10.566  12.810  13.569  1.5518  1.7160  0.6056
 5144SOL     OW27156   1.017  12.659   3.070  0.4674 -0.0939  0.0415
 5144SOL    HW127157   0.946  12.694   3.124  0.2290  0.6983 -0.7566
 5144SOL    HW227158   1.017  12.715   2.992 -0.6634 -2.5193 -1.8288
 5145SOL     OW27159  11.966  12.496   3.154  0.2541  0.2040 -0.0543
 5145SOL    HW127160  11.941  12.537   3.072  1.2636  2.3268  0.6166
 5145SOL    HW227161  11.885  12.461   3.190 -0.5021  0.8623 -1.0868
 5146SOL     OW27162   1.109  10.558   6.979  0.0322  0.2082 -0.1866
 5146SOL    HW127163   1.103  10.590   6.889  0.3109  1.1739  0.1281
 5146SOL    HW227164   1.122  10.637   7.032  1.2545 -0.4605  0.5650
 5147SOL     OW27165   3.091  10.905  11.858 -0.2136 -0.5615  0.2620
 5147SOL    HW127166   3.018  10.894  11.798  0.4248 -2.2969 -0.2625
 5147SOL    HW227167   3.167  10.875  11.809  0.4193 -1.4452  1.7063
 5148SOL     OW27168  12.276   9.191  11.305  0.8506  0.2661 -0.0894
 5148SOL    HW127169  12.286   9.221  11.395  0.4524  1.5429 -0.4420
 5148SOL    HW227170  12.318   9.105  11.303  0.3512 -0.0455  1.4431
 5149SOL     OW27171   8.441  10.701   3.883 -0.1650 -0.5841  0.3992
 5149SOL    HW127172   8.405  10.711   3.795 -0.0706 -0.3999  0.3801
 5149SOL    HW227173   8.536  10.696   3.870 -0.2071 -1.5592  0.4089
 5150SOL     OW27174  12.380  13.606   8.961  0.4694  0.6299 -0.5596
 5150SOL    HW127175  12.380  13.607   9.057  0.6518 -1.1435 -0.4998
 5150SOL    HW227176  12.463  13.563   8.938  0.2734  0.7374 -1.5032
 5151SOL     OW27177   2.639   1.217  13.031  0.4132  0.8299 -0.0396
 5151SOL    HW127178   2.680   1.292  12.988  1.3793  0.6136  0.4566
 5151SOL    HW227179   2.709   1.181  13.086 -0.8111  1.1950  1.8425
 5152SOL     OW27180  12.217   4.069   5.358  0.2018 -0.1946 -0.3618
 5152SOL    HW127181  12.252   4.059   5.447 -1.5329  0.5742  0.4387
 5152SOL    HW227182  12.173   4.153   5.359 -1.5480 -1.0565 -1.3538
 5153SOL     OW27183   6.119  12.550   6.407  0.5090  0.1025 -0.4684
 5153SOL    HW127184   6.159  12.518   6.325 -0.3099 -0.1787 -0.7679
 5153SOL    HW227185   6.105  12.471   6.458  0.6627  0.2413 -0.2099
 5154SOL     OW27186   4.118   7.497  12.761  0.2536 -0.1651 -0.0023
 5154SOL    HW127187   4.023   7.502  12.770 -0.0450 -1.1688 -2.0723
 5154SOL    HW227188   4.149   7.476  12.849 -1.2923  1.4290  0.9865
 5155SOL     OW27189  11.038   4.817  13.461  0.1534 -1.0842 -0.5393
 5155SOL    HW127190  11.002   4.731  13.440 -0.8918 -1.4709  2.3368
 5155SOL    HW227191  11.100   4.800  13.532  0.0970  0.4810 -0.0777
 5156SOL     OW27192  12.523   3.434   3.674 -0.1770 -0.3472 -0.2761
 5156SOL    HW127193  12.575   3.386   3.739 -0.0709  2.3398  1.8109
 5156SOL    HW227194  12.588   3.473   3.616 -0.1036 -0.5226 -0.3124
 5157SOL     OW27195   7.917   9.622   4.942 -0.0386 -0.5550  0.5851
 5157SOL    HW127196   8.001   9.661   4.920  0.9166 -1.7287  1.9743
 5157SOL    HW227197   7.875   9.686   5.000  0.3132 -0.3815  0.6531
 5158SOL     OW27198   7.383   1.754   7.106 -0.5380  0.2650 -0.6495
 5158SOL    HW127199   7.355   1.841   7.078  2.0940  1.3024 -0.3376
 5158SOL    HW227200   7.329   1.734   7.182 -0.6232  2.0195 -0.2190
 5159SOL     OW27201   2.180   8.249   4.859 -0.2137  0.6690  0.6425
 5159SOL    HW127202   2.118   8.179   4.880 -1.0714  1.3311  0.3855
 5159SOL    HW227203   2.126   8.328   4.853  0.5855  1.1849 -0.0683
 5160SOL     OW27204   1.854   5.047   3.436 -0.3005 -0.1378 -0.3025
 5160SOL    HW127205   1.893   5.045   3.348  0.7348 -0.3967  0.1439
 5160SOL    HW227206   1.779   5.105   3.428 -0.9931 -1.1615 -1.6710
 5161SOL     OW27207   4.153   9.637   9.878 -0.4942  0.1575 -0.4866
 5161SOL    HW127208   4.109   9.572   9.824  1.4306 -0.2675 -1.6402
 5161SOL    HW227209   4.111   9.630   9.964  0.5708 -3.6872 -0.0868
 5162SOL     OW27210   9.968   8.206   8.584 -0.3288 -0.3592  0.4058
 5162SOL    HW127211   9.888   8.230   8.536 -0.6136 -2.4356 -0.2616
 5162SOL    HW227212  10.037   8.257   8.542 -1.0032 -0.0295 -0.3398
 5163SOL     OW27213  11.970   7.330  12.247 -0.4003  0.1385 -0.4898
 5163SOL    HW127214  11.877   7.341  12.265 -0.3384  0.9186 -0.6262
 5163SOL    HW227215  11.984   7.235  12.253 -0.7421  0.1608  1.8341
 5164SOL     OW27216   0.736   2.670   7.699 -0.1654 -0.1889 -0.1742
 5164SOL    HW127217   0.722   2.585   7.740  0.6050 -0.4792 -0.4874
 5164SOL    HW227218   0.821   2.699   7.732  0.0905 -0.0584 -0.9101
 5165SOL     OW27219   9.905   5.792  10.638 -0.4495  0.0164  0.3226
 5165SOL    HW127220   9.862   5.712  10.668 -0.2594 -0.4480 -0.6153
 5165SOL    HW227221   9.972   5.809  10.705  1.3966 -2.1709 -0.8104
 5166SOL     OW27222  13.004  13.192   4.039 -0.3531  0.4674 -0.1487
 5166SOL    HW127223  13.024  13.162   3.951 -0.4278 -0.9037  0.2757
 5166SOL    HW227224  12.920  13.151   4.060  0.2032 -0.1576  0.9668
 5167SOL     OW27225   1.491   7.725  11.466  0.4910  0.5819 -0.0424
 5167SOL    HW127226   1.530   7.786  11.403  1.9103  0.4155  0.6444
 5167SOL    HW227227   1.489   7.774  11.548  0.0536  0.2796  0.1279
 5168SOL     OW27228   8.182   8.836  10.438  0.2683  0.1051 -0.5898
 5168SOL    HW127229   8.157   8.916  10.391 -0.7503  0.0424 -0.1757
 5168SOL    HW227230   8.274   8.849  10.460  0.2698  0.9081 -1.0405
 5169SOL     OW27231  13.076  12.636   4.741  0.2576 -0.2338  0.5710
 5169SOL    HW127232  13.033  12.686   4.672  0.8207 -1.0199 -0.3638
 5169SOL    HW227233  13.141  12.696   4.777  0.6531 -0.1555 -0.2682
 5170SOL     OW27234  11.325   2.708   9.394 -0.9436  0.3058  0.4703
 5170SOL    HW127235  11.414   2.723   9.361 -0.5992  0.1961  1.3185
 5170SOL    HW227236  11.324   2.615   9.417 -0.4082  0.8561  2.9420
 5171SOL     OW27237   9.950   0.750   9.884  0.0492 -0.1517  0.2725
 5171SOL    HW127238   9.985   0.662   9.868 -0.8507 -0.1434 -2.1022
 5171SOL    HW227239  10.025   0.800   9.914  1.0059 -1.2979 -0.1078
 5172SOL     OW27240   0.805   9.940  11.004  0.3165 -0.0203 -0.1672
 5172SOL    HW127241   0.725   9.967  10.957  0.9978 -0.2862 -1.5472
 5172SOL    HW227242   0.797   9.981  11.090 -1.6546 -0.6367  0.0042
 5173SOL     OW27243  13.309   5.551   7.813 -0.2673  0.2333 -0.5445
 5173SOL    HW127244  13.348   5.639   7.821 -0.6022  0.3726 -0.4211
 5173SOL    HW227245  13.345   5.517   7.732  1.3517 -0.2640  0.3261
 5174SOL     OW27246   5.850   2.184   8.087  0.3335 -0.3678 -0.0141
 5174SOL    HW127247   5.811   2.098   8.105  1.1084 -0.8491 -0.5679
 5174SOL    HW227248   5.935   2.164   8.049  0.1559  0.6333 -1.0080
 5175SOL     OW27249   6.429   9.895  12.365 -0.3837 -0.5666 -0.3895
 5175SOL    HW127250   6.384   9.955  12.426  0.6921  1.1952 -1.2566
 5175SOL    HW227251   6.400   9.922  12.279  0.9380 -0.5824 -0.8622
 5176SOL     OW27252   7.899   1.880   2.884 -0.5769 -0.2658 -0.3687
 5176SOL    HW127253   7.988   1.908   2.904 -0.4239 -0.4944 -0.7471
 5176SOL    HW227254   7.855   1.960   2.855 -0.3088 -0.2893 -0.8433
 5177SOL     OW27255   9.563   2.735  11.139 -0.6890  0.4230 -0.2077
 5177SOL    HW127256   9.647   2.698  11.166 -0.3688  0.7654 -0.7114
 5177SOL    HW227257   9.550   2.810  11.198 -1.6738 -0.8620  1.2751
 5178SOL     OW27258   8.341  13.507  10.092  0.2235  0.2472  0.0980
 5178SOL    HW127259   8.271  13.502  10.157  0.8671 -1.0129  0.7229
 5178SOL    HW227260   8.384  13.590  10.110 -1.1574  1.1024 -0.3714
 5179SOL     OW27261  12.759   0.559   2.604 -0.6136 -0.7243  0.1150
 5179SOL    HW127262  12.688   0.619   2.624 -0.0201  0.7378 -1.8322
 5179SOL    HW227263  12.805   0.546   2.687 -0.5067  1.8649  0.5330
 5180SOL     OW27264  10.126   6.887   3.611  0.1617 -0.4396 -0.0905
 5180SOL    HW127265  10.201   6.827   3.612  1.6799  1.3788  1.0391
 5180SOL    HW227266  10.163   6.972   3.588 -1.3599  0.7104  1.4725
 5181SOL     OW27267   8.566  13.194   3.660 -0.5030  0.2289  0.6398
 5181SOL    HW127268   8.578  13.184   3.566 -0.1173  0.0374  0.7044
 5181SOL    HW227269   8.589  13.108   3.696  1.1249  0.8015  1.0550
 5182SOL     OW27270   3.035   0.234   9.604  0.3544  0.2398  0.3547
 5182SOL    HW127271   3.104   0.203   9.545  0.7597 -0.4328  1.1664
 5182SOL    HW227272   2.978   0.157   9.616  0.5075  0.2503  1.1665
 5183SOL     OW27273  11.883   1.710   6.106  0.2163 -0.3737  0.1954
 5183SOL    HW127274  11.844   1.681   6.024  0.4079  1.5701 -0.6375
 5183SOL    HW227275  11.814   1.763   6.148  0.1337 -1.3048  1.2946
 5184SOL     OW27276   8.629   6.086  13.155  0.0336 -0.3406  0.2884
 5184SOL    HW127277   8.684   6.136  13.094  0.3944 -0.5519  0.4371
 5184SOL    HW227278   8.645   5.994  13.132 -0.4095 -0.3952  0.2019
 5185SOL     OW27279   1.939   5.860   9.898 -0.3128 -0.2710  0.4234
 5185SOL    HW127280   1.982   5.941   9.871 -0.1449 -0.4391  0.1761
 5185SOL    HW227281   1.977   5.793   9.841 -1.7806 -0.2353 -0.6581
 5186SOL     OW27282  12.403   7.821   8.803 -0.3043  0.0169 -0.2912
 5186SOL    HW127283  12.407   7.910   8.769 -3.3886 -0.1731 -1.5225
 5186SOL    HW227284  12.332   7.823   8.868  0.1420 -1.3634  0.2814
 5187SOL     OW27285   2.917  13.697  12.871 -0.3951 -0.0712 -0.4119
 5187SOL    HW127286   2.864  13.688  12.950  0.5139  1.6394  0.4466
 5187SOL    HW227287   2.989  13.635  12.883  0.2788  0.8690  0.6052
 5188SOL     OW27288   4.213   1.897   8.455  0.1295 -0.5184 -0.0223
 5188SOL    HW127289   4.136   1.947   8.483 -2.1483 -1.9024 -3.2019
 5188SOL    HW227290   4.277   1.963   8.429 -0.7308  0.6860  0.8209
 5189SOL     OW27291   8.309   8.135   7.819 -0.7550 -1.0461  0.9284
 5189SOL    HW127292   8.228   8.185   7.814  0.4020  0.8112 -0.1298
 5189SOL    HW227293   8.302   8.071   7.749 -0.8299 -0.1290  0.0798
 5190SOL     OW27294  12.365   2.551  13.654 -0.0593 -0.1598  0.4795
 5190SOL    HW127295  12.294   2.576  13.712  0.0472 -1.5608  1.2475
 5190SOL    HW227296  12.338   2.582  13.568 -0.0243  2.3621  1.2923
 5191SOL     OW27297  12.146   8.743  11.285 -0.7436 -0.4088  0.0591
 5191SOL    HW127298  12.131   8.727  11.379 -1.9725  0.2622 -0.0025
 5191SOL    HW227299  12.236   8.774  11.280 -0.4970 -0.9315  0.9550
 5192SOL     OW27300   9.980   6.521   6.235  0.4238  0.0356 -0.4667
 5192SOL    HW127301  10.027   6.585   6.288 -0.6077  0.4195  0.0184
 5192SOL    HW227302   9.992   6.551   6.145  0.5485  0.5103 -0.2942
 5193SOL     OW27303   6.937   7.345   0.221 -0.3973  0.0682  0.4741
 5193SOL    HW127304   6.900   7.282   0.282 -0.0128  0.3296  0.9872
 5193SOL    HW227305   6.945   7.426   0.271 -0.4374  0.3920 -0.0351
 5194SOL     OW27306   7.731  11.176   0.007  0.3124 -0.0778  0.6441
 5194SOL    HW127307   7.719  11.180  -0.088  1.7837 -2.5747  0.2430
 5194SOL    HW227308   7.649  11.138   0.039 -0.2687  0.9547  0.4170
 5195SOL     OW27309   2.013   5.956  11.227 -0.3737  0.4449  0.6842
 5195SOL    HW127310   2.016   5.992  11.138  1.1626  0.4622  0.7227
 5195SOL    HW227311   1.924   5.921  11.235 -1.1253  2.0619 -0.1976
 5196SOL     OW27312  10.406  13.699  13.507 -0.3038 -0.4100  0.1201
 5196SOL    HW127313  10.410  13.747  13.590  1.2452 -0.0108 -0.1457
 5196SOL    HW227314  10.331  13.641  13.516 -1.2899  0.9435  1.0667
 5197SOL     OW27315  11.778  12.366   3.925  0.1023 -0.0229  0.2195
 5197SOL    HW127316  11.835  12.388   3.851 -0.4727  4.3139  0.7985
 5197SOL    HW227317  11.691  12.391   3.896 -0.3812  0.1834  1.7587
 5198SOL     OW27318   7.805   5.610  10.089 -0.2105  0.3045 -0.0080
 5198SOL    HW127319   7.815   5.656  10.006 -0.2834 -0.4184 -0.4272
 5198SOL    HW227320   7.711   5.605  10.103 -0.1795  1.3946  0.6822
 5199SOL     OW27321   1.778   3.817   2.760  0.2200 -0.2765  0.4278
 5199SOL    HW127322   1.732   3.790   2.840  0.5899 -0.9280  0.4310
 5199SOL    HW227323   1.870   3.822   2.786  0.2795 -0.0120  0.1656
 5200SOL     OW27324   9.774   8.743   1.527  0.3969  0.5799 -0.0579
 5200SOL    HW127325   9.725   8.686   1.587  2.4620  0.5452  1.7052
 5200SOL    HW227326   9.724   8.741   1.446 -0.3330 -2.6702  0.3498
 5201SOL     OW27327   0.608  13.367   5.811 -0.3050  0.4311 -0.5469
 5201SOL    HW127328   0.651  13.338   5.892  0.9498 -1.8889 -1.9466
 5201SOL    HW227329   0.517  13.338   5.821 -0.7668  2.1543  0.8982
 5202SOL     OW27330   0.649   7.554   4.224 -0.7234  0.2000 -0.5470
 5202SOL    HW127331   0.616   7.641   4.201  0.7611  0.3030 -2.6742
 5202SOL    HW227332   0.612   7.497   4.157 -0.7054 -0.5884  0.1065
 5203SOL     OW27333   3.100   7.871  13.545 -0.3939  0.3084  0.1731
 5203SOL    HW127334   3.018   7.906  13.510 -1.5500 -0.9521  1.4615
 5203SOL    HW227335   3.129   7.937  13.608  0.2489  1.3154 -1.1461
 5204SOL     OW27336   5.119  10.854   9.422  0.2032  0.6386 -0.3759
 5204SOL    HW127337   5.059  10.877   9.351 -0.4342 -2.4419 -1.0076
 5204SOL    HW227338   5.066  10.861   9.501  0.8866  3.9829 -0.0646
 5205SOL     OW27339   3.491  10.789  13.153  0.2356 -0.5812  0.0070
 5205SOL    HW127340   3.530  10.721  13.098 -3.1324 -0.6471 -2.6780
 5205SOL    HW227341   3.412  10.749  13.188 -0.3488  1.0975  0.6986
 5206SOL     OW27342   2.374   2.949  12.687  0.0105  0.2761  0.1505
 5206SOL    HW127343   2.323   2.878  12.649  1.4398 -0.6294 -0.1089
 5206SOL    HW227344   2.445   2.906  12.734  0.6022  1.5149  0.4273
 5207SOL     OW27345   0.791   4.105   3.538  0.5267  0.4062 -0.0115
 5207SOL    HW127346   0.840   4.187   3.543  1.5424 -0.2300  1.0663
 5207SOL    HW227347   0.753   4.095   3.625 -1.3003  0.7172 -0.7340
 5208SOL     OW27348   5.076  10.804   4.172 -0.9552  0.1635  0.1698
 5208SOL    HW127349   5.064  10.799   4.267 -0.8976  0.2565  0.1820
 5208SOL    HW227350   5.170  10.813   4.160 -0.9596  0.1109  0.1019
 5209SOL     OW27351  11.416   0.146  13.411  0.4227 -0.1068 -0.0336
 5209SOL    HW127352  11.388   0.073  13.355  0.4508  1.2159 -1.8832
 5209SOL    HW227353  11.404   0.114  13.500 -1.9055 -1.5101 -0.7457
 5210SOL     OW27354   3.777  10.483   3.043 -0.5007 -0.1538  0.2890
 5210SOL    HW127355   3.702  10.473   3.101 -1.0076 -2.6753 -0.6705
 5210SOL    HW227356   3.840  10.417   3.072  1.2599  1.6754  0.8513
 5211SOL     OW27357   4.564   4.202  13.204 -0.1101  0.4203 -0.3654
 5211SOL    HW127358   4.599   4.129  13.254  1.1371  0.9865 -0.3712
 5211SOL    HW227359   4.590   4.184  13.114 -2.1718 -0.4955 -0.8417
 5212SOL     OW27360  11.017   8.708   0.291 -0.0412  0.2930 -0.4141
 5212SOL    HW127361  11.078   8.771   0.328  1.2078 -1.8558  1.4600
 5212SOL    HW227362  10.976   8.667   0.367 -2.9758  0.7654 -1.5948
 5213SOL     OW27363   7.801   8.055   2.839  0.0178 -0.6938  0.5299
 5213SOL    HW127364   7.775   8.119   2.772 -0.6443 -1.2669  0.2229
 5213SOL    HW227365   7.895   8.066   2.849  0.0375 -0.2556 -0.1329
 5214SOL     OW27366   0.135   6.164   0.180  0.0133  0.1470  0.2092
 5214SOL    HW127367   0.051   6.156   0.226 -0.3056  1.9844  0.0169
 5214SOL    HW227368   0.190   6.095   0.218 -1.2587 -0.4371  1.0502
 5215SOL     OW27369   0.789   1.593   6.594  0.0696 -0.9195  0.3013
 5215SOL    HW127370   0.772   1.684   6.619  0.0042 -0.4046 -1.4658
 5215SOL    HW227371   0.739   1.541   6.656 -3.0091  0.3747 -0.9043
 5216SOL     OW27372   6.733  11.204   2.331  0.1772 -0.7088 -0.0701
 5216SOL    HW127373   6.760  11.284   2.286  0.9185 -1.4530 -0.9911
 5216SOL    HW227374   6.660  11.231   2.387 -0.1255  0.4409 -0.9841
 5217SOL     OW27375   6.508   7.245   5.623 -0.4571 -0.1605  0.1095
 5217SOL    HW127376   6.417   7.272   5.619 -0.0080  2.1505  2.5207
 5217SOL    HW227377   6.510   7.175   5.688 -0.4643  0.0348  0.3197
 5218SOL     OW27378   5.951   2.699   9.893  0.1087  0.1137  0.0712
 5218SOL    HW127379   5.867   2.679   9.935 -1.3211  1.8419 -1.7527
 5218SOL    HW227380   6.012   2.711   9.966 -1.3162 -0.7173  1.4683
 5219SOL     OW27381  13.380   4.869   6.979  0.3583  0.0174 -0.3316
 5219SOL    HW127382  13.335   4.847   7.060  0.0453  0.8309 -0.2717
 5219SOL    HW227383  13.472   4.846   6.996  0.3638  0.5245  0.3990
 5220SOL     OW27384   4.525  12.111   3.540  0.0500 -0.0928 -0.3180
 5220SOL    HW127385   4.507  12.181   3.477  0.7098  1.0872  0.7557
 5220SOL    HW227386   4.550  12.156   3.620  1.9209 -1.5567  0.0126
 5221SOL     OW27387   7.235   1.533  12.442  0.1070 -0.0104 -0.2843
 5221SOL    HW127388   7.302   1.465  12.431  0.3239 -0.1222  1.5228
 5221SOL    HW227389   7.278   1.603  12.490 -0.6863  0.5393 -0.3440
 5222SOL     OW27390   9.537  12.618   7.062  0.0419  0.2648  0.0683
 5222SOL    HW127391   9.464  12.669   7.098 -0.3159 -0.7848  0.8757
 5222SOL    HW227392   9.601  12.614   7.133  0.7017  0.7720 -0.4770
 5223SOL     OW27393   1.741   2.437   2.037  0.2424 -0.0508  0.1275
 5223SOL    HW127394   1.796   2.359   2.035 -1.0543 -0.9869 -0.3802
 5223SOL    HW227395   1.731   2.461   1.945  2.3119  2.0094  0.3307
 5224SOL     OW27396   1.236   3.635  11.961 -0.8082  0.0508 -0.3633
 5224SOL    HW127397   1.221   3.648  12.054 -1.5405 -1.2308 -0.2835
 5224SOL    HW227398   1.321   3.591  11.955  0.1732  1.8474 -0.4522
 5225SOL     OW27399   3.405   1.771   1.143 -0.2866 -0.5321 -0.5335
 5225SOL    HW127400   3.483   1.761   1.197  0.4451  0.0676 -1.4344
 5225SOL    HW227401   3.331   1.755   1.202  0.4157  1.5931  1.0050
 5226SOL     OW27402   9.016  11.003   8.948 -0.5839 -0.0064  0.4372
 5226SOL    HW127403   8.922  10.990   8.939 -0.4298 -2.6221  1.4526
 5226SOL    HW227404   9.028  11.025   9.041 -0.2315  1.0330  0.1569
 5227SOL     OW27405  12.138   8.300   8.921  0.0023  0.9799 -0.2030
 5227SOL    HW127406  12.065   8.345   8.879 -0.8503  0.1035  0.2934
 5227SOL    HW227407  12.097   8.242   8.985  1.0828 -0.2768 -0.5984
 5228SOL     OW27408  13.649  12.943  10.561  0.2920 -0.2404  0.2458
 5228SOL    HW127409  13.736  12.960  10.525  1.2335 -0.8366  2.1496
 5228SOL    HW227410  13.631  13.018  10.617 -1.4506  1.0027 -1.8253
 5229SOL     OW27411   9.472   0.722   8.968  0.1927 -0.0253  0.2724
 5229SOL    HW127412   9.468   0.803   9.019  0.3532  0.2159 -0.0930
 5229SOL    HW227413   9.520   0.661   9.023 -1.1105 -0.3090  1.1363
 5230SOL     OW27414   2.282   9.077  12.496 -0.6433 -0.3140  0.5226
 5230SOL    HW127415   2.354   9.054  12.437  0.6236  0.9364  1.5098
 5230SOL    HW227416   2.308   9.043  12.581 -0.7162  1.0085  1.1082
 5231SOL     OW27417  12.495   2.189   1.815  0.2315  0.2996  0.3803
 5231SOL    HW127418  12.554   2.154   1.749  2.6556  1.2086  1.9210
 5231SOL    HW227419  12.541   2.266   1.851 -2.6543  2.1289  0.5302
 5232SOL     OW27420  10.622   5.011  12.598  0.5580 -0.3771 -0.3667
 5232SOL    HW127421  10.607   5.061  12.678  2.8603 -0.7572  0.3804
 5232SOL    HW227422  10.605   4.920  12.623  0.8176 -0.4478 -0.4449
 5233SOL     OW27423   8.264   6.757   7.895 -0.3017 -0.3196 -0.2670
 5233SOL    HW127424   8.193   6.733   7.955  0.4666 -0.9422  0.4051
 5233SOL    HW227425   8.312   6.676   7.880  1.3445  0.4378  0.7265
 5234SOL     OW27426   9.844   5.025   4.954  0.5533  0.2914  0.0469
 5234SOL    HW127427   9.890   5.029   4.870  0.4635  1.5376  0.0265
 5234SOL    HW227428   9.762   5.071   4.938  1.4441  2.4969  1.3318
 5235SOL     OW27429   6.038   8.985   7.364  0.1063 -0.7215 -0.3050
 5235SOL    HW127430   6.079   8.904   7.394 -0.3483 -0.9807 -0.3663
 5235SOL    HW227431   6.047   8.982   7.268  1.1355 -0.1231 -0.2435
 5236SOL     OW27432   2.834   8.104   5.833 -0.1174 -0.0905 -0.2818
 5236SOL    HW127433   2.776   8.102   5.910 -1.4164 -0.8734 -1.2464
 5236SOL    HW227434   2.908   8.158   5.861 -0.3560 -0.6785  1.6590
 5237SOL     OW27435   4.229  13.332   0.176  0.6228  0.0026  0.4228
 5237SOL    HW127436   4.283  13.384   0.235 -1.2657  1.0784  1.3020
 5237SOL    HW227437   4.276  13.249   0.166  1.0507 -0.2221  3.4360
 5238SOL     OW27438   1.096   6.382   3.881  0.7713  0.2968 -0.1275
 5238SOL    HW127439   1.143   6.462   3.861  0.2898 -0.0611 -3.0989
 5238SOL    HW227440   1.045   6.363   3.802 -1.7482 -1.1431  1.6801
 5239SOL     OW27441   9.309   7.399   8.142 -0.5081  0.1818 -0.3783
 5239SOL    HW127442   9.329   7.488   8.113 -0.8336  0.9884  1.7513
 5239SOL    HW227443   9.352   7.343   8.077  0.9496  1.8776 -0.9547
 5240SOL     OW27444   1.426   0.623  11.366 -0.4510  0.6987 -0.5327
 5240SOL    HW127445   1.515   0.652  11.389  0.2241  0.5267 -2.6812
 5240SOL    HW227446   1.390   0.589  11.447  1.4972  0.6845  0.3760
 5241SOL     OW27447   8.315   0.251  12.772 -0.7936  0.0273  0.2140
 5241SOL    HW127448   8.325   0.296  12.688 -1.0361 -0.2314  0.0450
 5241SOL    HW227449   8.263   0.310  12.825 -0.4885  0.2719  0.2467
 5242SOL     OW27450   2.381   7.169  11.666  0.3893 -0.1716 -0.1621
 5242SOL    HW127451   2.420   7.229  11.604  0.1393 -1.9987 -2.2076
 5242SOL    HW227452   2.448   7.157  11.733 -0.3136  3.8911  1.5536
 5243SOL     OW27453   6.601   4.393   0.045  0.2687  0.0532  0.0148
 5243SOL    HW127454   6.689   4.366   0.019 -0.0069 -0.6382 -0.2142
 5243SOL    HW227455   6.542   4.333  -0.000 -0.4319  1.5996 -1.2374
 5244SOL     OW27456   0.684  10.796  10.249  0.3667  0.1593  0.2177
 5244SOL    HW127457   0.774  10.764  10.260  0.5178  0.7822  0.8814
 5244SOL    HW227458   0.629  10.719  10.263  0.7818 -0.1357  0.2463
 5245SOL     OW27459   6.021   6.854   8.340 -0.0209  0.0113  0.4373
 5245SOL    HW127460   5.964   6.884   8.411 -1.0775  1.7740 -1.0671
 5245SOL    HW227461   6.087   6.924   8.331 -0.7705  0.5432 -1.2244
 5246SOL     OW27462  13.654   8.824   6.299  0.2813  0.2904  0.9871
 5246SOL    HW127463  13.726   8.812   6.361  0.8373  0.2167  0.3432
 5246SOL    HW227464  13.694   8.868   6.224 -0.6303  1.4435  1.1542
 5247SOL     OW27465   9.214   8.980  12.085 -0.0660  0.3446 -0.6261
 5247SOL    HW127466   9.191   9.057  12.136  0.8202  1.1194 -1.3525
 5247SOL    HW227467   9.309   8.981  12.080 -0.0054 -1.0542 -0.2881
 5248SOL     OW27468   9.673   3.377   5.291 -0.3104 -0.5486 -0.2082
 5248SOL    HW127469   9.726   3.415   5.361  0.1539  1.5700 -1.5945
 5248SOL    HW227470   9.584   3.376   5.326 -0.4189  2.2478 -0.1277
 5249SOL     OW27471   0.700   9.131  11.739 -0.3478 -0.5764 -0.1299
 5249SOL    HW127472   0.770   9.087  11.787 -0.3498 -0.6352 -0.1805
 5249SOL    HW227473   0.634   9.062  11.725  0.5415 -1.1114 -2.0163
 5250SOL     OW27474  12.979  10.994   7.955 -0.1166  0.3801  0.2164
 5250SOL    HW127475  12.950  11.080   7.985  1.9484  1.2809 -0.2153
 5250SOL    HW227476  13.013  11.010   7.866  1.3657 -0.6102  0.5699
 5251SOL     OW27477  11.674   8.899   9.141 -0.3644 -0.3703 -0.1937
 5251SOL    HW127478  11.643   8.866   9.057 -2.0149  0.4471  0.0485
 5251SOL    HW227479  11.610   8.966   9.165  0.1200 -0.5278  1.6799
 5252SOL     OW27480   4.271  13.096   3.595  0.0735 -0.5685  0.3434
 5252SOL    HW127481   4.333  13.033   3.632  1.7657  0.4849 -0.5755
 5252SOL    HW227482   4.238  13.054   3.516  1.6911 -0.1077 -0.6248
 5253SOL     OW27483   4.586   3.070  10.584  0.0041 -0.5035  0.0404
 5253SOL    HW127484   4.551   2.999  10.638 -3.2726  1.4640  0.7989
 5253SOL    HW227485   4.519   3.085  10.518  1.3200  0.9043 -1.0370
 5254SOL     OW27486  10.400   2.929   9.649  0.1059  0.0729 -0.0249
 5254SOL    HW127487  10.469   2.958   9.708  1.6149 -1.4122 -0.9720
 5254SOL    HW227488  10.381   2.839   9.675 -1.0104  0.2370 -0.2150
 5255SOL     OW27489   0.676   4.586   6.526 -0.7249  0.0012  0.0833
 5255SOL    HW127490   0.683   4.517   6.591  1.2623 -1.2525 -1.3349
 5255SOL    HW227491   0.642   4.542   6.448 -0.1707  0.7726 -0.6128
 5256SOL     OW27492  10.461   4.174   9.792 -0.0173 -0.3568 -0.1678
 5256SOL    HW127493  10.463   4.082   9.766  2.3161 -1.0174  1.9596
 5256SOL    HW227494  10.447   4.173   9.886 -0.9439  1.5489 -0.2360
 5257SOL     OW27495   0.427   9.386  13.337 -0.5752 -0.0093 -0.2438
 5257SOL    HW127496   0.460   9.466  13.378  0.2592 -1.2023  1.5514
 5257SOL    HW227497   0.471   9.382  13.253 -0.5036  1.3162 -0.2938
 5258SOL     OW27498   1.688  12.154   6.560 -0.7940  0.0376  0.0927
 5258SOL    HW127499   1.719  12.203   6.484 -1.1617 -1.0792 -0.7926
 5258SOL    HW227500   1.759  12.164   6.625 -0.2821  0.6331 -0.5382
 5259SOL     OW27501   7.701   2.698  13.509 -0.5980  0.4977  0.4299
 5259SOL    HW127502   7.706   2.710  13.414 -0.5655  0.0518  0.3727
 5259SOL    HW227503   7.759   2.765  13.544 -1.5603  1.4838  0.1950
 5260SOL     OW27504   5.138   9.845   9.163 -0.1282  0.7883  0.4947
 5260SOL    HW127505   5.199   9.807   9.100 -0.5057  0.2912  0.4265
 5260SOL    HW227506   5.091   9.912   9.113 -1.3833 -0.5248 -0.1450
 5261SOL     OW27507  12.233  13.724   5.058 -0.0929 -0.0733  0.0796
 5261SOL    HW127508  12.148  13.751   5.024  0.7990 -0.4122 -2.6386
 5261SOL    HW227509  12.294  13.742   4.987  2.2866  0.9187  2.2263
 5262SOL     OW27510  12.084   6.246   0.656  0.2542  0.5437  0.0451
 5262SOL    HW127511  12.138   6.209   0.586 -0.5857  0.0906 -0.3725
 5262SOL    HW227512  12.076   6.175   0.720 -1.4568 -0.0880 -0.8106
 5263SOL     OW27513   8.703   1.039   4.939  0.7162 -0.3322  0.0349
 5263SOL    HW127514   8.684   1.049   5.032 -0.0747  0.9033 -0.2360
 5263SOL    HW227515   8.784   0.988   4.936 -0.3543 -2.2626  1.3346
 5264SOL     OW27516  11.609   7.803   0.364 -0.3169 -0.0083  0.3809
 5264SOL    HW127517  11.613   7.746   0.287  0.1858 -1.0131  1.1197
 5264SOL    HW227518  11.605   7.891   0.329  2.1329 -0.2897 -0.8168
 5265SOL     OW27519   7.248  13.504   5.014 -0.5115  0.5128 -0.0955
 5265SOL    HW127520   7.330  13.549   5.034 -0.3676 -0.0278  0.5652
 5265SOL    HW227521   7.224  13.535   4.927  0.3738  0.7079 -0.2770
 5266SOL     OW27522  12.750   9.074  10.362  0.0019  0.6059  0.0768
 5266SOL    HW127523  12.678   9.013  10.341  1.8837 -1.1197 -1.8477
 5266SOL    HW227524  12.781   9.103  10.277  3.0287 -0.5166  0.6891
 5267SOL     OW27525  13.557  12.144   9.007 -0.5741  0.6810 -0.0604
 5267SOL    HW127526  13.541  12.165   9.099 -2.0067 -0.5239 -0.0110
 5267SOL    HW227527  13.552  12.049   9.003  1.8577  0.5306 -0.9906
 5268SOL     OW27528   6.350   4.088  13.546  0.0474 -0.3079  0.0241
 5268SOL    HW127529   6.328   4.026  13.615  0.8159  0.3098  0.8535
 5268SOL    HW227530   6.316   4.172  13.576 -0.5214 -0.2170 -0.8403
 5269SOL     OW27531  10.137   4.986   7.070 -0.0094 -0.1202  0.7025
 5269SOL    HW127532  10.190   4.910   7.094  0.7197  0.1151 -0.0952
 5269SOL    HW227533  10.059   4.979   7.124 -0.3143 -1.8618  0.1078
 5270SOL     OW27534   0.942  12.485  11.950  0.5931 -0.4535 -0.1046
 5270SOL    HW127535   1.018  12.431  11.928  0.1136 -1.9206  1.6703
 5270SOL    HW227536   0.868  12.424  11.950 -0.1228  0.3814  0.9911
 5271SOL     OW27537   4.203   0.876  10.248 -0.1477  0.1350 -0.3433
 5271SOL    HW127538   4.292   0.870  10.285 -0.7791 -0.9070  1.1145
 5271SOL    HW227539   4.203   0.958  10.199  1.1466  0.9866  0.9977
 5272SOL     OW27540   6.377   7.635  12.346 -0.6539  0.1559 -0.3596
 5272SOL    HW127541   6.421   7.632  12.431 -0.5315  0.2154 -0.4203
 5272SOL    HW227542   6.286   7.610  12.364 -0.5840 -0.0103 -0.2408
 5273SOL     OW27543  10.260   0.200   8.790 -0.2173  0.1808  0.5767
 5273SOL    HW127544  10.197   0.261   8.751 -2.1251 -0.6240  2.2081
 5273SOL    HW227545  10.209   0.150   8.853  1.8199 -1.4432  1.0526
 5274SOL     OW27546   5.991   0.260   1.565 -0.2666  0.0741 -0.7405
 5274SOL    HW127547   5.927   0.189   1.568 -0.4813  0.2929 -0.0055
 5274SOL    HW227548   6.002   0.278   1.471 -0.7559 -0.4327 -0.9025
 5275SOL     OW27549   4.850  11.834  12.325  0.5974 -0.6351 -0.7200
 5275SOL    HW127550   4.822  11.762  12.382 -0.6235  1.6900  1.8908
 5275SOL    HW227551   4.779  11.844  12.262  0.8734 -1.7853 -1.2381
 5276SOL     OW27552   4.966  12.441   4.590 -0.0576 -0.2924  0.1902
 5276SOL    HW127553   5.012  12.360   4.568 -0.8202 -0.6925  0.0273
 5276SOL    HW227554   4.881  12.432   4.547 -0.7759 -0.1416  1.5277
 5277SOL     OW27555   8.452   8.863   2.242 -0.3990  0.0970  0.0247
 5277SOL    HW127556   8.546   8.871   2.226  0.2214  2.0512  3.6227
 5277SOL    HW227557   8.415   8.946   2.210 -1.1434 -0.9784 -2.1075
 5278SOL     OW27558  11.435   7.591   2.900  0.5044  0.2436  0.2606
 5278SOL    HW127559  11.360   7.539   2.872  0.8112 -0.2897  0.4171
 5278SOL    HW227560  11.409   7.682   2.883  0.6753 -0.0489 -1.7155
 5279SOL     OW27561   3.281  10.533   1.642  0.1923 -0.6778  0.2256
 5279SOL    HW127562   3.319  10.596   1.704  0.6358 -0.8813  0.1619
 5279SOL    HW227563   3.268  10.454   1.693 -0.6015 -0.4653  0.3692
 5280SOL     OW27564  13.368  11.779   9.419  0.0931  0.1535 -0.0713
 5280SOL    HW127565  13.313  11.706   9.448  0.0514  0.2840  0.1798
 5280SOL    HW227566  13.350  11.787   9.325  0.0462 -0.1131 -0.0867
 5281SOL     OW27567   9.241   8.956   8.317  0.1493 -0.4819  0.3629
 5281SOL    HW127568   9.174   9.020   8.338  0.7892 -0.5295  2.8497
 5281SOL    HW227569   9.197   8.894   8.259 -1.5000  0.3151  0.6987
 5282SOL     OW27570  11.812   6.009  10.527 -0.3072  0.1583 -0.4816
 5282SOL    HW127571  11.832   5.952  10.453 -3.4715 -1.1902 -0.4878
 5282SOL    HW227572  11.821   6.098  10.493  1.1350 -0.3776 -1.5820
 5283SOL     OW27573  11.303   4.982   0.034 -0.0708 -0.0085  0.4902
 5283SOL    HW127574  11.295   4.944  -0.053 -0.9458  1.1261  0.0642
 5283SOL    HW227575  11.217   4.970   0.074 -0.0147  0.5071  0.7701
 5284SOL     OW27576   6.210  13.231   4.683 -0.6173  0.7551  0.0122
 5284SOL    HW127577   6.125  13.222   4.641  0.0340 -3.3153 -0.8867
 5284SOL    HW227578   6.212  13.161   4.749  1.9595  0.7841  0.0893
 5285SOL     OW27579   2.170   1.519   5.402 -0.0493  0.6851 -0.1830
 5285SOL    HW127580   2.176   1.440   5.349  0.4234 -0.4150  1.4385
 5285SOL    HW227581   2.153   1.488   5.490  1.9880  2.2846  0.8553
 5286SOL     OW27582   9.367  12.588  11.332  0.1342 -0.1492  0.4184
 5286SOL    HW127583   9.440  12.632  11.288  0.1608 -0.4502  0.1641
 5286SOL    HW227584   9.304  12.571  11.262 -0.3311  0.4232  0.6980
 5287SOL     OW27585  11.301   4.043  13.022  0.0904 -0.5780  0.5137
 5287SOL    HW127586  11.269   4.096  13.095  2.2907 -0.7665  1.7033
 5287SOL    HW227587  11.223   4.027  12.969 -1.3013  0.8827  1.9683
 5288SOL     OW27588   4.894   3.975   7.514  0.4441 -0.5666  0.7476
 5288SOL    HW127589   4.841   3.901   7.484 -0.7723  0.1504  1.0590
 5288SOL    HW227590   4.838   4.021   7.577  1.5683  0.0347  1.3396
 5289SOL     OW27591   7.871   2.840   1.301  0.0158 -0.0116  0.5464
 5289SOL    HW127592   7.854   2.920   1.251  2.6675 -1.2825 -2.7978
 5289SOL    HW227593   7.967   2.835   1.306 -0.0994 -1.3117  3.7366
 5290SOL     OW27594   4.135   3.999   0.254 -0.0131  0.1403  0.1220
 5290SOL    HW127595   4.121   4.070   0.316  0.7126  1.4699 -1.1877
 5290SOL    HW227596   4.048   3.977   0.222 -0.1019  1.6159 -0.7037
 5291SOL     OW27597  12.252  12.303  13.082 -0.2708  0.1372  0.1564
 5291SOL    HW127598  12.221  12.394  13.083  2.5034  1.1805 -0.0623
 5291SOL    HW227599  12.262  12.281  13.175  2.3971  1.4070  0.2641
 5292SOL     OW27600   9.812   9.234  10.488  0.2259  0.4141  0.3922
 5292SOL    HW127601   9.816   9.246  10.583 -0.2658  0.9318  0.3538
 5292SOL    HW227602   9.851   9.314  10.452 -0.8047  0.8284  0.1498
 5293SOL     OW27603   2.330   4.769   9.692 -0.2609 -0.5888  0.6316
 5293SOL    HW127604   2.332   4.676   9.714 -1.0459 -0.8478 -0.3468
 5293SOL    HW227605   2.254   4.803   9.740 -0.4283 -0.6131  0.3841
 5294SOL     OW27606   2.357   4.918   9.994 -0.0785  0.2159  0.0829
 5294SOL    HW127607   2.390   4.998   9.953 -0.5858  0.4937  0.2142
 5294SOL    HW227608   2.262   4.928   9.994 -0.1650 -0.5666 -0.2470
 5295SOL     OW27609   6.075  13.293   4.323  0.0543 -0.0359  0.4774
 5295SOL    HW127610   6.149  13.335   4.366 -0.3845  0.9924  0.2656
 5295SOL    HW227611   6.017  13.266   4.395  0.8938 -1.4024  0.6765
 5296SOL     OW27612  12.213   6.213   0.088  0.6037  0.5971  0.0467
 5296SOL    HW127613  12.268   6.273   0.139  0.6242  1.6143 -1.1300
 5296SOL    HW227614  12.173   6.157   0.154  2.2111  0.5217  1.0260
 5297SOL     OW27615   0.659   1.650   1.317 -0.0561  0.0129 -0.1267
 5297SOL    HW127616   0.678   1.607   1.400  2.3840  1.5035  0.1653
 5297SOL    HW227617   0.623   1.735   1.341  0.2505  0.2821 -0.6046
 5298SOL     OW27618   2.903   6.605   5.426 -0.2342  0.2421  0.2532
 5298SOL    HW127619   2.940   6.517   5.426 -0.2065  0.2533  0.0704
 5298SOL    HW227620   2.839   6.604   5.355  0.2487  0.5709 -0.1939
 5299SOL     OW27621  11.621   0.268   3.377  0.0684 -0.2257 -0.5537
 5299SOL    HW127622  11.572   0.220   3.311  0.6269 -2.1264  0.3246
 5299SOL    HW227623  11.562   0.337   3.406 -1.1043 -0.8779 -1.3103
 5300SOL     OW27624  12.845   7.897  11.404  0.2292  0.7812  0.8258
 5300SOL    HW127625  12.891   7.872  11.325 -1.1337 -0.7835  0.4667
 5300SOL    HW227626  12.858   7.992  11.411  0.5932  0.9033 -1.1084
 5301SOL     OW27627  12.176  10.534   2.971 -1.0919 -0.1178  0.1892
 5301SOL    HW127628  12.135  10.620   2.987 -3.3741 -0.9294 -0.8142
 5301SOL    HW227629  12.157  10.484   3.051  1.1271  0.5564  1.2050
 5302SOL     OW27630   5.780  12.015   7.588  0.3591 -0.4254 -0.4653
 5302SOL    HW127631   5.847  11.959   7.628  0.0302  0.0072  0.7227
 5302SOL    HW227632   5.815  12.103   7.597  0.0635 -0.2812 -0.7269
 5303SOL     OW27633   1.011   5.382  11.110  0.7230 -0.6176 -0.3776
 5303SOL    HW127634   0.951   5.452  11.087 -0.0439 -0.5311  1.6572
 5303SOL    HW227635   0.963   5.302  11.090 -1.3493 -0.6322  3.5805
 5304SOL     OW27636  13.561   6.097  12.502  0.0138  0.1514  0.2799
 5304SOL    HW127637  13.649   6.132  12.518  0.7446 -1.4488 -0.0536
 5304SOL    HW227638  13.561   6.074  12.409 -0.7128 -0.0062  0.3108
 5305SOL     OW27639   9.705  12.265   6.209 -0.5442 -0.3133 -0.3602
 5305SOL    HW127640   9.730  12.265   6.302  1.3254 -1.1686 -0.8258
 5305SOL    HW227641   9.774  12.216   6.165  0.0433  2.3305 -2.6134
 5306SOL     OW27642   3.209   9.368   7.289 -0.2407 -0.2140  0.0179
 5306SOL    HW127643   3.236   9.286   7.247  1.8460  0.6096 -0.3480
 5306SOL    HW227644   3.236   9.437   7.228 -1.1600  0.7984  0.7217
 5307SOL     OW27645  12.778   5.147  13.728  0.4160  0.1718 -0.2464
 5307SOL    HW127646  12.715   5.076  13.741  1.3248 -0.4938  0.6189
 5307SOL    HW227647  12.798   5.144  13.635 -0.0476 -0.2871 -0.3369
 5308SOL     OW27648   5.314  11.908   7.699  0.0865  0.3182  0.4480
 5308SOL    HW127649   5.308  11.815   7.678 -0.3627  0.4737 -0.1507
 5308SOL    HW227650   5.361  11.946   7.624 -0.1701  0.6470  0.4532
 5309SOL     OW27651   7.811   3.148   6.500 -0.3587  0.6366  0.2722
 5309SOL    HW127652   7.732   3.202   6.506 -1.6310 -1.1369  0.1121
 5309SOL    HW227653   7.781   3.063   6.469  1.4636 -0.4118  1.1568
 5310SOL     OW27654   3.354   4.324   1.080 -0.0440 -0.7984  0.0200
 5310SOL    HW127655   3.432   4.270   1.087 -0.5223 -1.6522 -0.8787
 5310SOL    HW227656   3.380   4.398   1.025  0.7791  0.2538  1.7514
 5311SOL     OW27657   2.243   2.856   6.666 -0.1147 -0.4625  0.4313
 5311SOL    HW127658   2.306   2.900   6.724 -0.6172  0.2026  0.4843
 5311SOL    HW227659   2.239   2.766   6.699  0.9511 -0.5728  0.3085
 5312SOL     OW27660  10.137   5.507  11.842 -0.0771  0.7045 -0.4425
 5312SOL    HW127661  10.214   5.514  11.786 -0.4726 -0.6188 -1.2182
 5312SOL    HW227662  10.127   5.593  11.882  0.8505  1.3672 -1.5992
 5313SOL     OW27663  13.209  13.534   2.939  0.2321  0.9942 -0.1812
 5313SOL    HW127664  13.165  13.525   2.854  0.9469  0.6315 -0.5215
 5313SOL    HW227665  13.224  13.444   2.968 -1.1222  1.0885  0.9424
 5314SOL     OW27666   8.418   9.930   4.913  0.3522  0.1391  0.1423
 5314SOL    HW127667   8.493   9.909   4.857 -0.5129 -2.2026 -0.2544
 5314SOL    HW227668   8.451   9.918   5.002  0.3996 -1.3444 -0.0372
 5315SOL     OW27669  10.888   8.113   5.706 -0.5516 -0.0517  0.7683
 5315SOL    HW127670  10.856   8.031   5.669 -0.8450  0.9941 -1.4750
 5315SOL    HW227671  10.817   8.176   5.689  1.5500  1.7600 -2.0674
 5316SOL     OW27672   4.887   7.250   9.585 -0.0195  0.5403 -0.3416
 5316SOL    HW127673   4.812   7.251   9.644 -0.1991 -1.2423 -0.4751
 5316SOL    HW227674   4.962   7.235   9.643  0.0972  1.1453 -0.3319
 5317SOL     OW27675   2.838  10.708   5.641  0.4291 -0.3480 -0.5615
 5317SOL    HW127676   2.924  10.747   5.624  1.3596 -1.6294  0.9578
 5317SOL    HW227677   2.853  10.649   5.714 -2.2000  0.9277  1.1316
 5318SOL     OW27678   3.122   9.872  10.633 -0.1771 -0.1339  0.4116
 5318SOL    HW127679   3.043   9.859  10.581  0.3855  0.7993 -0.7059
 5318SOL    HW227680   3.109   9.956  10.677 -0.0772 -0.2959  0.7606
 5319SOL     OW27681   0.730  11.414   2.487 -0.4638  0.3869  0.3949
 5319SOL    HW127682   0.782  11.468   2.428 -0.3015  0.7124  0.8321
 5319SOL    HW227683   0.775  11.420   2.571  0.7515 -2.0688  0.0245
 5320SOL     OW27684   7.861  10.751   3.595  0.1370 -0.3111  0.1735
 5320SOL    HW127685   7.828  10.833   3.557  1.5039  0.1830 -0.0167
 5320SOL    HW227686   7.945  10.775   3.634  0.6997 -1.6831 -0.1390
 5321SOL     OW27687   8.724  11.413   5.318  0.1218 -0.5740 -0.5713
 5321SOL    HW127688   8.779  11.340   5.348 -0.8036  0.0430  3.1583
 5321SOL    HW227689   8.781  11.464   5.261  2.7676 -1.1403  1.3614
 5322SOL     OW27690   5.600   6.122  11.742  0.1575 -0.4846  0.9836
 5322SOL    HW127691   5.647   6.184  11.799 -1.7384  0.7153  1.3202
 5322SOL    HW227692   5.589   6.044  11.797 -0.8409  0.3301  2.0029
 5323SOL     OW27693  11.645   2.802   5.230  0.5858 -0.4269  0.1151
 5323SOL    HW127694  11.601   2.718   5.245  0.6528 -0.4370  0.2566
 5323SOL    HW227695  11.584   2.867   5.267  0.3772 -0.3855 -0.3007
 5324SOL     OW27696   1.540   2.969  10.073  0.9386  0.8511 -0.2976
 5324SOL    HW127697   1.468   3.002  10.020 -0.2140 -0.3797  0.4408
 5324SOL    HW227698   1.516   2.991  10.163  1.0947 -0.1974  0.0256
 5325SOL     OW27699   2.988   2.785  10.110  0.4129 -0.3193 -0.3458
 5325SOL    HW127700   3.036   2.716  10.065  0.2716 -0.6782  0.0518
 5325SOL    HW227701   2.903   2.789  10.066  0.1293 -0.9356  0.1319
 5326SOL     OW27702   5.945  10.269   2.704 -0.3283 -0.0489  0.1683
 5326SOL    HW127703   5.855  10.267   2.669 -0.0850  0.9009 -0.5812
 5326SOL    HW227704   5.962  10.180   2.733 -1.3994 -0.3224 -0.0035
 5327SOL     OW27705   6.201   0.783   8.894  0.3823  0.3537 -0.2841
 5327SOL    HW127706   6.258   0.747   8.827 -0.6991 -0.2117 -0.9248
 5327SOL    HW227707   6.256   0.845   8.942  1.1737  0.7575 -1.6740
 5328SOL     OW27708   9.927   9.016  10.081  0.3732 -0.0789  0.0593
 5328SOL    HW127709   9.889   8.968  10.153 -1.7554  1.2074 -0.1338
 5328SOL    HW227710   9.984   9.081  10.123  0.8418 -0.7271  0.4449
 5329SOL     OW27711   7.523  10.724  11.554 -0.1659  0.0781  0.0315
 5329SOL    HW127712   7.435  10.687  11.549  0.2789 -1.0228  0.1997
 5329SOL    HW227713   7.552  10.731  11.463 -0.3769  0.3518 -0.0182
 5330SOL     OW27714  11.670  10.704   4.329  0.3331  0.0606  0.3932
 5330SOL    HW127715  11.764  10.721   4.337  0.2266  1.3002 -0.5977
 5330SOL    HW227716  11.633  10.732   4.412  0.7679  0.1765  0.5494
 5331SOL     OW27717   3.043   8.897   1.139 -0.1362 -0.1050 -0.0850
 5331SOL    HW127718   3.064   8.806   1.116  0.6174 -0.0264  0.2530
 5331SOL    HW227719   3.039   8.943   1.055  0.8414 -0.1793 -0.1880
 5332SOL     OW27720   1.969   6.995   9.580  0.1890 -0.0120  0.2254
 5332SOL    HW127721   1.906   7.046   9.633  2.1784 -0.5178  3.3071
 5332SOL    HW227722   2.049   7.048   9.582  1.2127 -1.5174  0.4002
 5333SOL     OW27723   4.039  13.105   4.972  0.0855 -0.2075 -0.7552
 5333SOL    HW127724   3.997  13.096   5.058 -1.4331  2.0598 -1.1779
 5333SOL    HW227725   4.036  13.016   4.935  0.0268 -1.0614  1.1661
 5334SOL     OW27726   0.761   3.405  10.527 -0.3263  0.0371 -0.0325
 5334SOL    HW127727   0.830   3.444  10.474 -0.0183  1.0260  1.0681
 5334SOL    HW227728   0.795   3.319  10.551  0.7915  0.7412  0.9824
 5335SOL     OW27729  10.863   5.638  12.705 -0.1217 -0.4190  0.2986
 5335SOL    HW127730  10.947   5.632  12.750 -0.2139  0.4463  0.6090
 5335SOL    HW227731  10.804   5.679  12.769  0.2652  2.8461 -1.2238
 5336SOL     OW27732   5.367  12.463   1.275  0.4842  0.3274 -0.0426
 5336SOL    HW127733   5.326  12.438   1.192 -0.6604 -0.5923  0.7843
 5336SOL    HW227734   5.346  12.556   1.286  0.8453  0.5194 -0.8744
 5337SOL     OW27735  10.189   2.233   1.358 -0.0006  0.2658  0.0880
 5337SOL    HW127736  10.158   2.181   1.283 -0.0641 -1.9651  1.5683
 5337SOL    HW227737  10.201   2.321   1.323  0.3665 -0.7803 -2.6511
 5338SOL     OW27738   2.266  11.140   1.237 -0.4755 -0.2202  0.1782
 5338SOL    HW127739   2.243  11.188   1.317 -1.4525 -0.2497 -0.0716
 5338SOL    HW227740   2.323  11.069   1.267  0.3950  0.6471  0.6447
 5339SOL     OW27741   1.939  12.549   0.665 -0.7842 -0.3042 -0.1238
 5339SOL    HW127742   1.975  12.461   0.676 -1.3548 -0.5352 -0.0671
 5339SOL    HW227743   2.014  12.607   0.678 -0.4630 -0.7702  0.1430
 5340SOL     OW27744   1.099   9.655  11.342  0.1114  0.2997  0.1147
 5340SOL    HW127745   1.035   9.605  11.392  0.2010 -0.1567 -0.2194
 5340SOL    HW227746   1.151   9.589  11.296  0.7032  0.6672  0.2358
 5341SOL     OW27747   2.883   5.899   9.941 -0.0531 -0.1610 -0.7392
 5341SOL    HW127748   2.815   5.958   9.909  1.4600  0.7144 -2.4952
 5341SOL    HW227749   2.944   5.890   9.868  2.0548 -0.4120  0.9428
 5342SOL     OW27750   0.071   9.619   8.314 -0.4428 -0.4745  0.6663
 5342SOL    HW127751  -0.007   9.663   8.349  0.1096 -0.5216  2.0076
 5342SOL    HW227752   0.144   9.672   8.346  0.0695  0.4225 -1.7789
 5343SOL     OW27753   1.350  10.688  10.349  0.4008 -0.5528 -0.1930
 5343SOL    HW127754   1.290  10.621  10.318 -1.5153  0.9160  0.1322
 5343SOL    HW227755   1.353  10.753  10.279  0.6474 -0.0136  0.2983
 5344SOL     OW27756   6.029   7.477  13.131  0.0705 -1.2709  0.1094
 5344SOL    HW127757   5.982   7.550  13.090 -0.7503 -0.4116  2.4078
 5344SOL    HW227758   6.035   7.411  13.062  0.5437  0.7965 -1.9703
 5345SOL     OW27759   9.603  10.765   3.783  0.4241  0.3298 -0.0447
 5345SOL    HW127760   9.656  10.703   3.833 -0.0624 -1.9232 -2.1203
 5345SOL    HW227761   9.666  10.824   3.743  1.1202 -0.3448  0.0302
 5346SOL     OW27762  10.255   8.114   9.268  0.3795  0.3522  0.4447
 5346SOL    HW127763  10.313   8.063   9.211 -0.1691 -1.1257  1.1432
 5346SOL    HW227764  10.167   8.081   9.247  0.0127  0.9956  0.9496
 5347SOL     OW27765   8.155   0.836   4.358  0.4946 -0.0978  0.6275
 5347SOL    HW127766   8.229   0.813   4.415  0.8257 -0.0809  0.2068
 5347SOL    HW227767   8.186   0.911   4.307  0.2280 -0.1638  0.3652
 5348SOL     OW27768  10.023   0.249   3.694 -0.4983  0.1250  0.5404
 5348SOL    HW127769  10.044   0.178   3.755 -0.5416  0.5261  1.0329
 5348SOL    HW227770  10.109   0.279   3.662 -0.5170 -2.9152 -2.9967
 5349SOL     OW27771  12.913   3.083   0.356 -0.2691  0.3436  0.1960
 5349SOL    HW127772  12.950   3.011   0.304  1.3129  1.5391 -0.4247
 5349SOL    HW227773  12.989   3.122   0.400 -0.9593  2.0604 -0.0577
 5350SOL     OW27774  10.097   8.156  12.420 -0.3678  0.1803 -0.2362
 5350SOL    HW127775  10.149   8.231  12.391 -1.0877  0.5905 -0.4638
 5350SOL    HW227776  10.089   8.168  12.514 -0.8537  0.6232 -0.3324
 5351SOL     OW27777   8.817  12.848   8.199 -0.3093  0.3295 -0.0563
 5351SOL    HW127778   8.765  12.836   8.120 -2.5677 -0.0273  1.3877
 5351SOL    HW227779   8.870  12.768   8.205 -2.1024 -0.9112  0.1446
 5352SOL     OW27780   1.521   3.462   0.997 -0.3679 -0.0330 -0.6313
 5352SOL    HW127781   1.561   3.537   1.042  0.9443 -0.2264 -1.4467
 5352SOL    HW227782   1.501   3.400   1.066 -0.8162  0.7726 -0.0233
 5353SOL     OW27783   2.021   0.268   6.107 -0.0301  0.3165 -0.3107
 5353SOL    HW127784   2.004   0.300   6.018  1.8974 -0.2968 -0.9587
 5353SOL    HW227785   2.042   0.347   6.157  3.2662  0.3956 -1.5445
 5354SOL     OW27786   6.923   3.072  13.061 -0.0823  0.1724 -0.1354
 5354SOL    HW127787   6.896   2.999  13.117  0.2475 -0.1881 -0.4403
 5354SOL    HW227788   6.847   3.130  13.059 -0.4303 -0.2793 -0.0813
 5355SOL     OW27789   8.092  12.045   4.211  0.2446  0.3801 -0.1538
 5355SOL    HW127790   8.074  12.062   4.303 -0.3941 -1.2990  0.0609
 5355SOL    HW227791   8.164  12.105   4.189  1.5124 -0.3021  1.8624
 5356SOL     OW27792   3.352   7.924   0.058  0.0571 -0.2432  0.4830
 5356SOL    HW127793   3.348   7.840   0.012 -2.3287  0.1070 -0.0681
 5356SOL    HW227794   3.262   7.941   0.085 -0.0333  3.2359 -1.4666
 5357SOL     OW27795  10.337   9.041   3.069 -0.6825 -0.3283 -0.1879
 5357SOL    HW127796  10.390   9.120   3.055  0.6173 -0.8369  1.4931
 5357SOL    HW227797  10.308   9.017   2.982 -0.6320  1.6713 -0.8196
 5358SOL     OW27798   4.913   9.606   1.021 -0.0616  0.3830 -0.1527
 5358SOL    HW127799   4.897   9.512   1.011 -1.2083  0.7355 -2.0127
 5358SOL    HW227800   4.946   9.634   0.935 -1.9804  2.0907 -0.3884
 5359SOL     OW27801   6.363   9.623  13.472 -0.1164  0.0990  0.3093
 5359SOL    HW127802   6.322   9.674  13.542 -0.9535  0.3801 -0.3625
 5359SOL    HW227803   6.452   9.607  13.503  0.0296  1.5769  0.7551
 5360SOL     OW27804   3.921   7.724   9.980  0.3497 -0.2678  0.4354
 5360SOL    HW127805   4.014   7.730   9.997  0.2050 -1.6760  1.8735
 5360SOL    HW227806   3.884   7.805  10.018  1.0481  0.7732 -1.0062
 5361SOL     OW27807   0.435   9.708   3.983  0.3519 -0.0800 -0.5405
 5361SOL    HW127808   0.486   9.762   4.044  0.4293 -0.9689  0.1957
 5361SOL    HW227809   0.413   9.629   4.033 -1.7706  0.2671 -0.8378
 5362SOL     OW27810   9.008   1.389   7.377 -0.5401 -0.5313 -0.0700
 5362SOL    HW127811   8.967   1.335   7.445 -1.0591  0.1793  0.2020
 5362SOL    HW227812   9.020   1.474   7.419  0.6790 -0.5455 -0.3441
 5363SOL     OW27813  11.954  10.910   7.567  0.3960 -0.4782 -0.3311
 5363SOL    HW127814  12.047  10.898   7.588  0.6028 -0.4055 -1.1671
 5363SOL    HW227815  11.918  10.954   7.643  0.8497 -1.3293  0.3906
 5364SOL     OW27816   7.020   8.820   5.271 -0.2027 -0.3360  0.0640
 5364SOL    HW127817   7.016   8.724   5.273  2.8791 -0.6301 -1.3225
 5364SOL    HW227818   7.008   8.847   5.362 -1.0750 -2.0028  0.4886
 5365SOL     OW27819   8.592   4.982  11.237  0.0152  0.7950 -0.4065
 5365SOL    HW127820   8.612   4.904  11.184  2.3075 -0.1022  1.5947
 5365SOL    HW227821   8.503   5.006  11.211 -1.0745 -2.8875 -0.7143
 5366SOL     OW27822   0.289  12.628   5.607  0.2146  0.3328  0.4348
 5366SOL    HW127823   0.201  12.623   5.569  1.1930  0.7044 -2.0458
 5366SOL    HW227824   0.303  12.541   5.645 -0.8678 -0.0456  0.0233
 5367SOL     OW27825   4.733   6.409   5.482  0.0266  0.2523  0.2943
 5367SOL    HW127826   4.645   6.378   5.501 -0.7408  1.9666 -0.2788
 5367SOL    HW227827   4.773   6.338   5.432 -1.4617 -0.0493 -0.5150
 5368SOL     OW27828   3.463  11.130   8.447 -0.2002  0.3345  0.0334
 5368SOL    HW127829   3.502  11.128   8.534 -1.1441 -1.6905  0.4790
 5368SOL    HW227830   3.537  11.129   8.387  0.4634  1.8536  0.7764
 5369SOL     OW27831   4.195  10.915   2.036 -0.2481  0.2952 -0.4525
 5369SOL    HW127832   4.159  10.952   2.116 -0.6328  0.8813 -0.8937
 5369SOL    HW227833   4.288  10.902   2.055 -0.4053  0.0987  0.2018
 5370SOL     OW27834   2.803   0.259   6.191  0.2849 -0.2189  0.0602
 5370SOL    HW127835   2.756   0.177   6.184  1.0789 -0.6736 -0.1076
 5370SOL    HW227836   2.886   0.235   6.232  0.0904  0.6704  1.0192
 5371SOL     OW27837   2.002  10.643   0.405 -0.6446  0.0356 -0.4792
 5371SOL    HW127838   1.911  10.636   0.433 -0.2745  0.8118  1.0444
 5371SOL    HW227839   2.053  10.619   0.483  0.4811 -1.3787 -1.5744
 5372SOL     OW27840   1.444   0.258  10.829 -0.5039 -0.2216  0.1324
 5372SOL    HW127841   1.454   0.262  10.924 -1.5406 -0.7897  0.2789
 5372SOL    HW227842   1.441   0.350  10.802 -1.1288 -0.0487  0.7645
 5373SOL     OW27843   3.118  12.911   2.407 -0.0260  0.2266  0.5108
 5373SOL    HW127844   3.148  12.978   2.468 -1.2700  0.7948  0.5223
 5373SOL    HW227845   3.198  12.864   2.382  0.6373  0.6030  1.8151
 5374SOL     OW27846  11.981   3.317  11.295  0.4841  0.2409 -0.7084
 5374SOL    HW127847  11.984   3.225  11.321  2.0372  0.7015  0.9628
 5374SOL    HW227848  11.991   3.315  11.200  1.0753 -1.3069 -0.6474
 5375SOL     OW27849  10.789   9.677   0.488 -0.0524 -0.7025 -0.2083
 5375SOL    HW127850  10.757   9.748   0.544  1.4199 -0.3932  0.2828
 5375SOL    HW227851  10.723   9.670   0.419 -0.6179  0.6153  0.1603
 5376SOL     OW27852  12.230  11.144   0.062  0.5327 -0.1042  0.6329
 5376SOL    HW127853  12.170  11.070   0.064  1.3210 -0.7634  2.3670
 5376SOL    HW227854  12.180  11.217   0.097 -0.2745  0.2385 -1.1591
 5377SOL     OW27855   9.638  10.758   7.399  0.6616  0.2758 -0.0259
 5377SOL    HW127856   9.602  10.741   7.486 -0.2327 -2.4196 -0.8413
 5377SOL    HW227857   9.584  10.831   7.366  0.5634  0.8808  1.3724
 5378SOL     OW27858   5.481   5.380  12.144  0.2388  0.1715  0.3011
 5378SOL    HW127859   5.449   5.343  12.061  1.6878  0.0536 -0.2294
 5378SOL    HW227860   5.425   5.341  12.211 -1.5019  0.8930 -0.6650
 5379SOL     OW27861   5.219   1.055   6.807  0.4013 -0.9030 -0.0238
 5379SOL    HW127862   5.128   1.033   6.826  0.6336 -1.6963  0.2373
 5379SOL    HW227863   5.266   1.033   6.887  0.6543  0.7147  0.3055
 5380SOL     OW27864  11.522  13.081   9.614  0.4748  0.4200 -0.3637
 5380SOL    HW127865  11.557  13.165   9.586  0.0624 -0.2429 -3.1907
 5380SOL    HW227866  11.440  13.103   9.659  1.5992  1.6219  1.1951
 5381SOL     OW27867   7.149   1.940   1.749  0.1271  0.2476 -0.4051
 5381SOL    HW127868   7.086   2.006   1.718 -0.0911  0.7483  1.0199
 5381SOL    HW227869   7.105   1.857   1.733 -1.1353  0.6051  0.9814
 5382SOL     OW27870   9.864   6.403   3.157 -0.5902 -0.3427 -0.2474
 5382SOL    HW127871   9.877   6.445   3.242  0.2379  0.8590 -0.9320
 5382SOL    HW227872   9.905   6.317   3.165  2.0523  0.8196 -0.2683
 5383SOL     OW27873   4.078   2.391  10.373  0.0921  0.3224 -0.0589
 5383SOL    HW127874   4.171   2.369  10.381  0.2445  0.8333 -0.3795
 5383SOL    HW227875   4.075   2.486  10.389  0.0581  0.9452 -3.1260
 5384SOL     OW27876   8.474   1.765   8.168 -0.2635 -0.6597 -0.1273
 5384SOL    HW127877   8.569   1.781   8.167 -0.4112  0.2009 -0.4966
 5384SOL    HW227878   8.467   1.673   8.195  0.6539 -0.5996  0.3942
 5385SOL     OW27879   1.997   8.558  13.236 -0.2944  0.4202  0.0165
 5385SOL    HW127880   1.919   8.600  13.199 -2.0152 -1.2093  1.6235
 5385SOL    HW227881   2.012   8.481  13.181  0.0807  0.6137 -0.1597
 5386SOL     OW27882   9.306   3.230  13.564 -0.2077 -0.5280  0.5320
 5386SOL    HW127883   9.252   3.239  13.643 -0.0365 -3.9267  1.1715
 5386SOL    HW227884   9.395   3.217  13.598  0.3130  0.5804 -0.3563
 5387SOL     OW27885   0.723   2.861  12.389  0.0257  0.3500  0.3259
 5387SOL    HW127886   0.647   2.866  12.332 -0.2575 -0.1849  0.6426
 5387SOL    HW227887   0.687   2.866  12.477  0.5078  1.6773  0.4594
 5388SOL     OW27888   6.358  10.959   5.069 -0.1474  0.9093  0.3542
 5388SOL    HW127889   6.349  10.873   5.028  1.8074 -0.0659  1.8344
 5388SOL    HW227890   6.371  11.019   4.995  1.1130 -0.4737 -0.6113
 5389SOL     OW27891   7.510  12.339   4.539  0.1679  0.1408 -0.0905
 5389SOL    HW127892   7.476  12.428   4.553  0.7588  0.9056 -2.9081
 5389SOL    HW227893   7.436  12.282   4.559 -0.3586  1.2499  1.3447
 5390SOL     OW27894  12.016   7.278   5.436 -0.1137 -0.2595  0.7371
 5390SOL    HW127895  12.041   7.310   5.523 -0.4517 -0.8047  1.0409
 5390SOL    HW227896  11.924   7.304   5.427 -0.0321 -0.0569  0.4680
 5391SOL     OW27897  11.668  13.066   6.422  0.4625 -0.3742  0.2949
 5391SOL    HW127898  11.636  12.983   6.386  0.8829 -0.6118  0.4597
 5391SOL    HW227899  11.610  13.083   6.496 -2.1314  1.4645 -1.9529
 5392SOL     OW27900   1.172   2.413   0.469 -0.2156  0.3663 -0.1921
 5392SOL    HW127901   1.179   2.360   0.549  0.3291 -1.0517 -1.1355
 5392SOL    HW227902   1.241   2.479   0.478 -0.5695  0.6232  0.7749
 5393SOL     OW27903   2.534   0.051   3.155  0.0365  0.0869  0.1424
 5393SOL    HW127904   2.618   0.008   3.140  0.1143  0.2078  0.2240
 5393SOL    HW227905   2.473   0.004   3.099  0.7177  1.9001 -2.2857
 5394SOL     OW27906   3.884   5.036   8.884  0.4203 -0.1328 -0.8902
 5394SOL    HW127907   3.936   5.071   8.812 -0.9736  0.6081 -1.5701
 5394SOL    HW227908   3.796   5.070   8.870  0.1800  0.3786  1.4129
 5395SOL     OW27909   1.197   3.819  11.317 -0.3529 -0.2639 -0.2336
 5395SOL    HW127910   1.133   3.756  11.351  0.2693 -0.5347  0.4558
 5395SOL    HW227911   1.265   3.823  11.384 -0.2078  0.8853 -0.4168
 5396SOL     OW27912  10.026   6.151   2.065 -0.5055  0.2813  0.3563
 5396SOL    HW127913  10.028   6.184   2.155  0.1853 -1.2863  0.9451
 5396SOL    HW227914  10.041   6.229   2.011  0.5183  1.0240  1.6602
 5397SOL     OW27915   5.395   0.660  12.391  0.1771 -0.2856  0.0769
 5397SOL    HW127916   5.383   0.666  12.296  0.1920  3.4015  0.1769
 5397SOL    HW227917   5.489   0.675  12.404 -0.0052  0.3298  0.7189
 5398SOL     OW27918  13.559   5.615   1.145  0.0094 -0.4918  0.3168
 5398SOL    HW127919  13.507   5.641   1.220 -0.7080 -0.2993 -0.2334
 5398SOL    HW227920  13.527   5.527   1.122  0.1313 -0.4966  0.1574
 5399SOL     OW27921   2.456   7.248   1.615  0.2216  0.0357  0.1280
 5399SOL    HW127922   2.382   7.194   1.587 -0.8312  0.7825  1.3636
 5399SOL    HW227923   2.458   7.320   1.552  0.8276 -0.7304 -0.7605
 5400SOL     OW27924   7.314   0.500  12.085 -0.0080 -0.3169 -0.1325
 5400SOL    HW127925   7.378   0.530  12.020 -1.6910 -0.9960 -2.2254
 5400SOL    HW227926   7.337   0.409  12.102 -0.1150 -0.4148 -0.5062
 5401SOL     OW27927  12.930   1.318   3.125 -0.2372  0.6429  0.1577
 5401SOL    HW127928  12.908   1.316   3.218  0.3012 -1.2898  0.2852
 5401SOL    HW227929  13.026   1.320   3.123 -0.2248 -0.1567 -0.3437
 5402SOL     OW27930  13.006   7.337   6.624 -0.0798 -0.2386  0.1748
 5402SOL    HW127931  13.044   7.321   6.538  0.1462  2.3627 -0.2994
 5402SOL    HW227932  13.014   7.253   6.671  3.3023 -0.7071 -0.9844
 5403SOL     OW27933  11.310   4.712   5.787  0.2847  0.6831  0.7254
 5403SOL    HW127934  11.346   4.624   5.773  1.3613  1.0258  1.2724
 5403SOL    HW227935  11.314   4.725   5.882 -1.1378  0.8116  0.7934
 5404SOL     OW27936   9.715  10.165   7.084  0.8384  0.0232  0.4999
 5404SOL    HW127937   9.800  10.195   7.051  0.7126 -1.4105 -1.2744
 5404SOL    HW227938   9.729  10.073   7.106 -0.5895 -0.6573 -1.2337
 5405SOL     OW27939   5.499   7.738   6.243 -0.1874  0.0635 -0.3231
 5405SOL    HW127940   5.573   7.678   6.249  0.7474  0.9856 -2.0630
 5405SOL    HW227941   5.496   7.782   6.328  1.0426 -0.2291 -0.1206
 5406SOL     OW27942   5.732  13.122   2.012  0.7138  0.7031  0.5298
 5406SOL    HW127943   5.750  13.028   2.004  1.1144  0.9427 -2.0535
 5406SOL    HW227944   5.646  13.126   2.053  0.0806 -0.8490 -0.5543
 5407SOL     OW27945   7.203  13.023   8.654 -0.0266  0.0912  0.0492
 5407SOL    HW127946   7.229  12.983   8.571 -2.0133 -0.8239 -0.2008
 5407SOL    HW227947   7.111  13.047   8.641  0.5924  3.2973  0.7793
 5408SOL     OW27948  11.856   2.189  12.826 -0.1503  0.1756  0.1793
 5408SOL    HW127949  11.911   2.172  12.749  0.9638 -1.1658  1.2042
 5408SOL    HW227950  11.900   2.261  12.871 -1.8254  2.2501 -1.3248
 5409SOL     OW27951  10.638  12.653   3.374  0.5817  0.4302 -0.2435
 5409SOL    HW127952  10.683  12.584   3.423  0.3411  1.5797  1.6890
 5409SOL    HW227953  10.708  12.712   3.348  0.5742  0.4264 -0.2734
 5410SOL     OW27954   2.714  12.643   5.879  0.2392 -0.2296 -0.1669
 5410SOL    HW127955   2.688  12.644   5.971 -1.0228  1.4068 -0.4884
 5410SOL    HW227956   2.631  12.638   5.831  0.7042  1.1760 -1.1969
 5411SOL     OW27957   1.535   8.694  12.746  0.1716  0.0068  0.1913
 5411SOL    HW127958   1.501   8.680  12.658  0.9692 -0.1908 -0.0894
 5411SOL    HW227959   1.461   8.674  12.804 -1.3325  3.0046 -0.4840
 5412SOL     OW27960   4.917   0.284   5.045  0.3861 -0.4267  0.3836
 5412SOL    HW127961   4.857   0.340   4.996  1.0718 -0.3769 -0.4268
 5412SOL    HW227962   4.924   0.204   4.992 -1.2703 -1.7138  1.9515
 5413SOL     OW27963   4.947  10.684   3.199 -0.0395  0.3454  0.2491
 5413SOL    HW127964   4.857  10.688   3.229 -0.3899  0.8240 -0.8122
 5413SOL    HW227965   4.952  10.750   3.130  0.6040 -1.0332 -1.0708
 5414SOL     OW27966  10.403  13.262  10.640  0.8469 -0.2188  0.7824
 5414SOL    HW127967  10.375  13.338  10.692  2.1414  0.5926  0.3499
 5414SOL    HW227968  10.424  13.298  10.554 -0.9865 -1.5012 -0.2794
 5415SOL     OW27969  10.494   3.515  10.583 -0.2339  0.1923 -0.6263
 5415SOL    HW127970  10.425   3.556  10.636  0.0438  2.4902 -1.8800
 5415SOL    HW227971  10.487   3.558  10.498  0.6717 -1.8888 -1.8191
 5416SOL     OW27972  12.044   6.629   6.391 -0.3654  0.0569 -0.0551
 5416SOL    HW127973  11.956   6.631   6.353 -0.4403 -1.1439  0.0112
 5416SOL    HW227974  12.101   6.604   6.319 -0.2187 -0.1994  0.1513
 5417SOL     OW27975  11.461   3.977   1.545  0.0997 -0.2044  0.2429
 5417SOL    HW127976  11.545   3.932   1.553  0.3806 -0.0182 -1.2785
 5417SOL    HW227977  11.408   3.942   1.616 -0.2249 -4.1522 -1.6627
 5418SOL     OW27978  12.368  11.636   5.222 -0.0749  0.3779 -0.3711
 5418SOL    HW127979  12.371  11.690   5.143 -0.4192 -0.7451 -1.1764
 5418SOL    HW227980  12.300  11.572   5.204 -1.3145  1.0977  1.5219
 5419SOL     OW27981   8.544   4.153   5.981  0.0204 -0.6313 -0.5726
 5419SOL    HW127982   8.515   4.095   6.051  0.1739 -0.0418 -0.0124
 5419SOL    HW227983   8.588   4.095   5.919  1.0062 -0.9981  0.4300
 5420SOL     OW27984  12.668   1.178   1.182  0.1425  0.1008 -0.0087
 5420SOL    HW127985  12.626   1.250   1.229 -0.7291 -0.3423 -0.0909
 5420SOL    HW227986  12.607   1.105   1.191  0.1553 -0.1160 -1.4595
 5421SOL     OW27987   6.845   2.303   4.740 -0.3500 -0.0293  0.3625
 5421SOL    HW127988   6.916   2.353   4.781  1.3878 -2.2848  0.3035
 5421SOL    HW227989   6.786   2.282   4.812 -0.1391  0.5735  0.7154
 5422SOL     OW27990   3.844  12.376   9.540 -0.4159  0.2393  0.0785
 5422SOL    HW127991   3.822  12.458   9.585  0.0274  0.9538 -0.9638
 5422SOL    HW227992   3.792  12.309   9.585  0.9435  0.6941  2.4845
 5423SOL     OW27993  13.571  12.334   0.378  0.5924 -0.0582 -0.1317
 5423SOL    HW127994  13.508  12.285   0.325  1.4909 -2.5221  0.9401
 5423SOL    HW227995  13.526  12.346   0.462  0.2104  1.4586 -0.5139
 5424SOL     OW27996   6.644  10.248  13.529  0.6730 -0.1684  0.1713
 5424SOL    HW127997   6.639  10.340  13.558 -0.6719  0.1031 -0.8312
 5424SOL    HW227998   6.709  10.209  13.587  0.7565  1.2453  1.0975
 5425SOL     OW27999  12.548  11.812  10.779 -0.1897 -0.1489 -0.2487
 5425SOL    HW128000  12.543  11.793  10.873 -0.3526  0.3481 -0.1557
 5425SOL    HW228001  12.626  11.765  10.749 -1.6242 -2.5757 -0.4178
 5426SOL     OW28002   0.212   6.805   5.788  0.1770 -0.2875 -0.5078
 5426SOL    HW128003   0.186   6.753   5.864 -0.7822 -1.4331 -1.5881
 5426SOL    HW228004   0.233   6.891   5.824 -2.4465 -0.1129  0.8082
 5427SOL     OW28005   4.184  10.030   4.046  0.5712  0.2729 -0.1297
 5427SOL    HW128006   4.265   9.988   4.016 -0.5185 -2.8425  0.8484
 5427SOL    HW228007   4.181  10.012   4.140 -1.2359  0.2885 -0.1422
 5428SOL     OW28008   4.180   2.822   6.748 -0.0764 -0.1211 -0.1217
 5428SOL    HW128009   4.088   2.823   6.720 -0.7608 -1.3128  1.9192
 5428SOL    HW228010   4.204   2.915   6.751 -1.2139  0.2170 -0.6677
 5429SOL     OW28011   1.575  11.406  13.222  0.6724 -0.1777  0.1076
 5429SOL    HW128012   1.535  11.368  13.301 -0.8797 -0.3539 -0.7154
 5429SOL    HW228013   1.629  11.477  13.255 -0.5846  0.2900  1.2978
 5430SOL     OW28014   5.264   0.476   8.159 -0.6548 -0.5121  0.0213
 5430SOL    HW128015   5.323   0.551   8.153 -1.0810 -0.2439 -1.3017
 5430SOL    HW228016   5.319   0.405   8.192 -0.3048  0.4189  1.5549
 5431SOL     OW28017   3.929  10.576  12.203 -0.1377 -0.1289  0.3715
 5431SOL    HW128018   3.892  10.502  12.252  1.2700 -0.5671  0.8010
 5431SOL    HW228019   3.854  10.635  12.190 -1.4543 -1.8989 -0.5668
 5432SOL     OW28020   9.077   6.861   4.823  0.2037  0.4498  0.7276
 5432SOL    HW128021   8.987   6.894   4.830  0.1776  0.1916  1.7235
 5432SOL    HW228022   9.076   6.777   4.868  1.0134  0.5659  0.9826
 5433SOL     OW28023   1.129   4.136   2.786 -0.4064 -0.1733 -0.1024
 5433SOL    HW128024   1.109   4.192   2.711  1.7399  1.6593  0.5662
 5433SOL    HW228025   1.206   4.085   2.759 -0.8167 -0.9696  0.1857
 5434SOL     OW28026  11.095   9.166   1.083  0.8012 -0.1073 -0.1254
 5434SOL    HW128027  11.039   9.102   1.126  1.3561 -0.7804 -0.3862
 5434SOL    HW228028  11.169   9.115   1.049  2.1137  0.8992  1.1122
 5435SOL     OW28029   4.888   2.773   0.290 -0.4635 -0.5558 -0.0322
 5435SOL    HW128030   4.857   2.863   0.293  2.2588  0.4507  1.2023
 5435SOL    HW228031   4.930   2.759   0.375  0.2104 -2.6084 -0.6360
 5436SOL     OW28032   7.956   8.448   9.900  0.1683 -0.1189  0.0184
 5436SOL    HW128033   8.029   8.394   9.931  1.3137  1.2749 -0.1341
 5436SOL    HW228034   7.996   8.533   9.881 -1.7871  1.2989  1.7231
 5437SOL     OW28035   2.100   4.930  13.612 -0.4067 -0.2230  0.5623
 5437SOL    HW128036   2.189   4.944  13.645  0.0657 -1.0025 -0.3011
 5437SOL    HW228037   2.054   4.887  13.684  0.1968 -0.6518  0.7033
 5438SOL     OW28038  12.399   9.940   7.052  0.0647 -0.2031 -0.1371
 5438SOL    HW128039  12.319   9.970   7.096 -1.3621 -1.9776 -1.3644
 5438SOL    HW228040  12.432  10.018   7.008 -0.9407  0.6022  0.4712
 5439SOL     OW28041   0.285   6.145   0.913 -0.0519  0.4869  0.2066
 5439SOL    HW128042   0.291   6.240   0.907  0.1717  0.4014 -1.6436
 5439SOL    HW228043   0.369   6.117   0.948  0.0115  0.9432  0.4174
 5440SOL     OW28044  12.068   1.925   0.161 -0.3631 -0.4590 -0.4241
 5440SOL    HW128045  11.995   1.925   0.099  0.5093 -1.9874 -1.5217
 5440SOL    HW228046  12.057   1.846   0.213  1.2498 -1.5264 -1.5973
 5441SOL     OW28047   2.694   9.711   5.838 -0.6070  0.4645 -0.4509
 5441SOL    HW128048   2.665   9.683   5.751 -0.6855 -0.6048 -0.0952
 5441SOL    HW228049   2.618   9.697   5.894  0.2092 -1.2870  0.2685
 5442SOL     OW28050   2.412   8.760   6.017 -0.6343  0.1870 -0.4106
 5442SOL    HW128051   2.356   8.766   6.094 -1.4577 -0.2198 -0.9598
 5442SOL    HW228052   2.352   8.741   5.945  0.0455  1.1276 -1.2614
 5443SOL     OW28053   7.075  11.101   4.811 -0.1095 -0.7431  0.1562
 5443SOL    HW128054   7.145  11.037   4.817  0.5010  0.0007  1.1951
 5443SOL    HW228055   7.114  11.176   4.767 -1.0111 -1.2919 -1.6999
 5444SOL     OW28056   9.323  10.397   7.551  0.4439 -0.1389 -0.2763
 5444SOL    HW128057   9.357  10.326   7.605 -0.1674  0.1290  0.4866
 5444SOL    HW228058   9.230  10.402   7.574  0.7415  1.7758  0.6831
 5445SOL     OW28059   5.518   3.748   6.068  0.0073  0.1559 -0.1780
 5445SOL    HW128060   5.542   3.778   5.981 -0.4356 -0.1181 -0.3950
 5445SOL    HW228061   5.427   3.775   6.079 -0.3203 -0.8600 -0.2744
 5446SOL     OW28062  12.970   0.256   1.350 -0.2842 -0.2719  0.0355
 5446SOL    HW128063  12.968   0.192   1.278  0.5687 -0.0164 -0.2275
 5446SOL    HW228064  12.966   0.341   1.306  1.0649 -0.0914  0.2321
 5447SOL     OW28065  13.623   5.525   2.550 -0.0627 -0.2859  0.1804
 5447SOL    HW128066  13.537   5.559   2.573  0.4652  1.2353 -0.0117
 5447SOL    HW228067  13.684   5.576   2.602  0.7964 -0.6641 -0.4274
 5448SOL     OW28068   6.206   1.514  10.947  0.0075 -0.5507  0.3288
 5448SOL    HW128069   6.155   1.527  11.027 -1.8622  0.0140 -0.8673
 5448SOL    HW228070   6.153   1.555  10.879  1.1910 -1.6429 -1.3246
 5449SOL     OW28071  12.414  10.644   1.837  0.7098  0.3915 -0.2992
 5449SOL    HW128072  12.419  10.563   1.787  0.2496  0.2979 -0.1941
 5449SOL    HW228073  12.505  10.671   1.848  0.8735 -0.2156 -0.1614
 5450SOL     OW28074   5.914   0.945   3.427 -0.3946  0.0872 -0.6264
 5450SOL    HW128075   5.887   0.854   3.440  0.7358 -0.0242  1.4017
 5450SOL    HW228076   5.872   0.992   3.499 -0.2573  1.0180 -1.1445
 5451SOL     OW28077   6.015   7.961   2.570  0.0806  0.5024  0.1734
 5451SOL    HW128078   6.006   7.913   2.488 -1.8638  0.5345  0.3223
 5451SOL    HW228079   6.055   7.897   2.630 -0.3503 -0.1769 -0.2454
 5452SOL     OW28080   3.984   0.972   3.270  0.6967  0.3187  0.5352
 5452SOL    HW128081   4.055   0.909   3.279  0.1549 -0.3914  0.0094
 5452SOL    HW228082   3.982   0.992   3.176  0.2789  0.4073  0.5602
 5453SOL     OW28083   3.296   4.431   2.959 -0.0336 -0.3517 -0.2697
 5453SOL    HW128084   3.208   4.447   2.926 -0.4503 -0.6481  0.6758
 5453SOL    HW228085   3.332   4.364   2.901 -0.2168  0.1750 -0.9998
 5454SOL     OW28086   9.839  10.727  10.802 -0.3613  0.1525 -0.7223
 5454SOL    HW128087   9.812  10.771  10.721 -0.0791  1.5515 -0.0715
 5454SOL    HW228088   9.855  10.798  10.864  0.4625 -0.8596  0.2530
 5455SOL     OW28089   9.657   7.711   0.221 -0.5577  0.3992 -0.4996
 5455SOL    HW128090   9.608   7.762   0.286  0.2508  0.3683  0.1490
 5455SOL    HW228091   9.738   7.687   0.266 -1.1619 -1.9776 -0.5639
 5456SOL     OW28092  13.114  12.013   6.852  0.1470  0.3888 -0.6350
 5456SOL    HW128093  13.035  11.959   6.851 -0.2269  0.8592  1.0871
 5456SOL    HW228094  13.086  12.097   6.887  1.4443  0.4937  0.2532
 5457SOL     OW28095  10.781   7.790   3.107  0.2268 -0.3243  0.0923
 5457SOL    HW128096  10.724   7.714   3.119 -0.0046  0.0254  1.3286
 5457SOL    HW228097  10.869   7.755   3.120  0.3075 -0.7882 -1.4555
 5458SOL     OW28098  12.438   4.150   8.802 -0.0733  0.1640 -0.5195
 5458SOL    HW128099  12.427   4.111   8.715 -0.0752 -0.3328 -0.3021
 5458SOL    HW228100  12.532   4.166   8.809 -0.0089 -0.2475 -0.4250
 5459SOL     OW28101   3.909  10.564   1.584 -0.0935  0.7548  0.2270
 5459SOL    HW128102   3.962  10.641   1.561  0.1864  0.6107  0.3789
 5459SOL    HW228103   3.939  10.496   1.523  0.8576  0.2835  1.1866
 5460SOL     OW28104   5.061   6.825  12.702  0.1063 -0.1135  0.0814
 5460SOL    HW128105   5.085   6.901  12.755 -1.2418  0.0666  0.4735
 5460SOL    HW228106   5.018   6.862  12.625  0.3860 -0.4382 -0.2294
 5461SOL     OW28107   3.487   7.297  10.324 -0.3732  0.7902 -0.2488
 5461SOL    HW128108   3.581   7.312  10.310 -0.5357  5.9931  2.0361
 5461SOL    HW228109   3.484   7.240  10.401  1.0303  1.6792  0.5248
 5462SOL     OW28110   8.373  11.811   5.438  0.0167  0.2109  0.3839
 5462SOL    HW128111   8.346  11.739   5.381 -1.5840  1.6002 -0.7237
 5462SOL    HW228112   8.395  11.769   5.521 -0.0078 -1.6280 -0.5040
 5463SOL     OW28113  11.650   4.838   6.993 -0.2333  0.0033  0.1625
 5463SOL    HW128114  11.590   4.866   6.924  0.0742  0.3705  0.0439
 5463SOL    HW228115  11.642   4.743   6.994  0.5226 -0.0962 -1.0815
 5464SOL     OW28116   3.658   0.784   7.317 -0.5005 -0.5807 -0.5595
 5464SOL    HW128117   3.571   0.747   7.326 -1.4240  1.4179 -0.5704
 5464SOL    HW228118   3.712   0.713   7.282 -2.1749 -1.7787 -0.8070
 5465SOL     OW28119  11.903   5.068   2.779  0.6305 -0.3439 -0.4418
 5465SOL    HW128120  11.918   5.099   2.869  0.0785 -1.1985 -0.0401
 5465SOL    HW228121  11.986   5.081   2.734  0.4762  1.5551 -0.2509
 5466SOL     OW28122   0.322   8.760  12.255  0.1523 -0.2110  0.1930
 5466SOL    HW128123   0.338   8.827  12.322  1.5701  0.4935 -0.7773
 5466SOL    HW228124   0.390   8.776  12.189 -2.2916  0.3623 -2.3897
 5467SOL     OW28125  13.001  12.385  12.199 -0.1214  0.2366 -0.2097
 5467SOL    HW128126  12.923  12.440  12.192 -1.3215 -1.3570  0.2265
 5467SOL    HW228127  13.015  12.352  12.110 -0.8635 -0.6503 -0.0176
 5468SOL     OW28128   2.958   4.301   9.665 -0.0040 -0.0610  0.1558
 5468SOL    HW128129   2.977   4.226   9.721 -0.5075 -1.2250 -1.1802
 5468SOL    HW228130   3.039   4.351   9.663 -0.0191  0.1244  2.0373
 5469SOL     OW28131   8.867   9.996   1.234  0.2025 -0.1718  0.9197
 5469SOL    HW128132   8.877  10.087   1.208  1.4482 -0.3933  0.5333
 5469SOL    HW228133   8.917   9.947   1.168 -1.3722 -1.2395  0.4720
 5470SOL     OW28134   5.720   3.110   5.341 -0.3487 -0.1715 -0.4416
 5470SOL    HW128135   5.652   3.083   5.403  1.3783 -0.5589  1.4112
 5470SOL    HW228136   5.781   3.163   5.394  1.4969 -0.9715 -1.6624
 5471SOL     OW28137  13.447   6.245   5.494  0.2186 -0.2494  0.0881
 5471SOL    HW128138  13.352   6.253   5.491  0.0092 -0.7912  2.7028
 5471SOL    HW228139  13.479   6.333   5.476 -0.8105  0.0964 -0.1222
 5472SOL     OW28140  12.710   4.388  13.552  0.4197  0.4365  0.4692
 5472SOL    HW128141  12.765   4.317  13.517 -0.3145  0.0537  0.0806
 5472SOL    HW228142  12.698   4.447  13.477  1.9878  1.6066  1.0778
 5473SOL     OW28143  10.783  11.906   5.086 -0.1548 -0.3832  0.4970
 5473SOL    HW128144  10.785  11.822   5.040  0.1441  0.1416 -0.5025
 5473SOL    HW228145  10.856  11.902   5.148 -0.8663 -1.2952  1.2955
 5474SOL     OW28146   1.361  11.128   3.706  0.1586 -0.4932  0.0327
 5474SOL    HW128147   1.416  11.121   3.628 -0.1980 -0.4246 -0.2321
 5474SOL    HW228148   1.301  11.054   3.700 -0.6553  0.1719 -0.4004
 5475SOL     OW28149   0.452  11.033   3.029  0.3263  0.3853 -0.0824
 5475SOL    HW128150   0.532  11.084   3.034 -1.1860  2.8919 -0.0502
 5475SOL    HW228151   0.381  11.097   3.035 -1.7127 -1.6882 -0.3655
 5476SOL     OW28152  11.214   0.792  11.072  0.2919 -0.0176  0.1415
 5476SOL    HW128153  11.239   0.791  10.980 -0.9475 -1.2217 -0.2196
 5476SOL    HW228154  11.297   0.791  11.119  0.9417  0.1303 -0.9702
 5477SOL     OW28155   8.771   3.911   1.825 -0.0137 -0.1118 -0.1341
 5477SOL    HW128156   8.679   3.925   1.802 -0.0468 -0.9915 -0.5612
 5477SOL    HW228157   8.798   3.994   1.865 -0.9876  0.1608 -0.0065
 5478SOL     OW28158  10.336  10.977   8.226 -0.1541 -0.5554 -0.1961
 5478SOL    HW128159  10.330  11.065   8.261 -0.5701 -0.8701  0.5418
 5478SOL    HW228160  10.249  10.959   8.191 -0.7453 -1.4581  1.6121
 5479SOL     OW28161   1.979   7.362   6.805  0.3956  0.2631  0.8256
 5479SOL    HW128162   1.994   7.272   6.835  0.4416  0.3938  1.2063
 5479SOL    HW228163   1.935   7.405   6.878  0.2371  0.5097  0.5875
 5480SOL     OW28164  13.293  11.556   9.558  0.0317 -0.0095 -0.1272
 5480SOL    HW128165  13.355  11.616   9.599 -0.2857 -0.4865  1.1014
 5480SOL    HW228166  13.342  11.474   9.548 -0.0511 -0.0452 -0.2396
 5481SOL     OW28167  12.694   4.840  10.484 -0.2927 -0.0081 -0.2207
 5481SOL    HW128168  12.662   4.795  10.405 -1.3785 -1.4124  0.9729
 5481SOL    HW228169  12.751   4.776  10.526 -0.3039  0.4659  0.5173
 5482SOL     OW28170   4.537   2.196  13.172 -0.0210  0.0627  0.0405
 5482SOL    HW128171   4.568   2.274  13.127  0.5749 -0.8229 -1.1469
 5482SOL    HW228172   4.593   2.125  13.139  0.9861 -0.5358  2.7755
 5483SOL     OW28173   8.750   1.120   6.561  0.3102  0.8332 -0.2707
 5483SOL    HW128174   8.810   1.167   6.620  0.2985  0.6911 -0.1448
 5483SOL    HW228175   8.704   1.190   6.514 -0.0238  0.9619  0.2342
 5484SOL     OW28176   5.465  10.522   1.282 -0.2319  0.2179  0.6321
 5484SOL    HW128177   5.370  10.521   1.283 -0.3179  2.2510  0.0586
 5484SOL    HW228178   5.490  10.548   1.371 -0.2514  0.1590  0.6541
 5485SOL     OW28179   7.402   2.072   0.900  0.3723  0.1269  0.0845
 5485SOL    HW128180   7.472   2.009   0.888  0.3598  0.2875 -0.8920
 5485SOL    HW228181   7.367   2.053   0.987 -0.0549 -1.6385 -0.4387
 5486SOL     OW28182   8.992   2.346   8.584 -0.3051  0.6564 -0.0012
 5486SOL    HW128183   9.050   2.369   8.511 -0.2638  0.6216  0.0207
 5486SOL    HW228184   8.907   2.381   8.559  0.1196  2.4023  0.7948
 5487SOL     OW28185   1.420  13.011   2.006 -0.3330 -0.5567  0.3562
 5487SOL    HW128186   1.482  13.058   2.062 -1.0932  0.2850  0.5098
 5487SOL    HW228187   1.462  12.927   1.988 -0.2621 -1.0272  2.5429
 5488SOL     OW28188   5.434  10.125   6.098  0.1778 -0.3471 -0.1876
 5488SOL    HW128189   5.490  10.055   6.063 -1.1455 -0.6841 -1.7601
 5488SOL    HW228190   5.493  10.200   6.107  0.8536 -0.5985 -2.0944
 5489SOL     OW28191  12.358   9.209   2.154  0.1888  0.0471  0.0808
 5489SOL    HW128192  12.385   9.156   2.229 -0.5255 -0.0334  0.2827
 5489SOL    HW228193  12.299   9.153   2.104  1.0341 -0.0788 -0.8164
 5490SOL     OW28194   6.683   3.064  13.469  0.1487 -0.7045  0.0851
 5490SOL    HW128195   6.750   3.012  13.423 -0.0667 -0.4138 -0.5609
 5490SOL    HW228196   6.686   3.149  13.427 -1.3694 -0.9982 -0.6812
 5491SOL     OW28197   0.227   7.910  10.987  0.5973  0.0429  0.6355
 5491SOL    HW128198   0.147   7.859  10.975  0.9402 -0.1547 -1.0028
 5491SOL    HW228199   0.296   7.858  10.945  1.0266  1.6058 -0.6969
 5492SOL     OW28200   4.500   0.928   9.849  0.0877 -0.1128  0.0822
 5492SOL    HW128201   4.518   0.963   9.761 -1.2545 -0.6770 -0.4432
 5492SOL    HW228202   4.446   0.995   9.891  0.5428  0.0560  0.4045
 5493SOL     OW28203   2.752   8.928   2.926 -0.0691 -0.0210 -0.5182
 5493SOL    HW128204   2.722   8.990   2.992 -0.8364 -1.6064  0.7102
 5493SOL    HW228205   2.847   8.933   2.929 -0.1071  1.9525 -1.3468
 5494SOL     OW28206   5.561   1.334   4.161  0.0386  0.0038 -0.3797
 5494SOL    HW128207   5.560   1.426   4.136 -0.2213 -0.5735 -2.7092
 5494SOL    HW228208   5.473   1.318   4.196  0.2807  0.7460  0.6178
 5495SOL     OW28209   9.371   3.659   2.823 -0.0376 -0.0733  0.4197
 5495SOL    HW128210   9.410   3.740   2.791 -0.3279 -0.5248 -1.1281
 5495SOL    HW228211   9.280   3.663   2.796  0.2678 -1.5549 -1.0136
 5496SOL     OW28212   6.032   2.482  13.485 -0.0196  0.5173 -0.0978
 5496SOL    HW128213   6.105   2.542  13.471  1.2097 -0.7925  0.4997
 5496SOL    HW228214   5.959   2.539  13.508  0.5423  1.9307 -1.6050
 5497SOL     OW28215   6.504   4.262   1.107 -0.2812 -0.3104  0.4615
 5497SOL    HW128216   6.530   4.342   1.060  1.9364 -1.0441  0.2928
 5497SOL    HW228217   6.528   4.279   1.198 -0.3214 -0.5674  0.5197
 5498SOL     OW28218  12.645   0.943   7.943  0.3818  0.2880 -0.0183
 5498SOL    HW128219  12.659   1.031   7.980 -0.8456 -0.2709  1.9547
 5498SOL    HW228220  12.730   0.900   7.949  0.8161  1.0823 -0.3040
 5499SOL     OW28221   8.021   0.701   5.905  0.7102 -0.1796 -0.3330
 5499SOL    HW128222   8.114   0.695   5.927  1.2243  0.5684 -2.1526
 5499SOL    HW228223   7.996   0.611   5.884  1.3022 -0.2373 -0.8383
 5500SOL     OW28224  12.283  13.092   1.535 -0.6592 -0.1591  0.2690
 5500SOL    HW128225  12.225  13.044   1.595  0.3308 -0.4968  0.9920
 5500SOL    HW228226  12.302  13.174   1.582 -0.7894  0.0754 -0.0902
 5501SOL     OW28227  10.785   2.810   6.260  0.9643  0.4997 -0.9103
 5501SOL    HW128228  10.810   2.768   6.342  0.2624  1.1068 -0.3742
 5501SOL    HW228229  10.830   2.759   6.192  1.9124  0.2645 -0.1277
 5502SOL     OW28230   2.101  11.395   2.576  0.4116 -0.1557 -0.2813
 5502SOL    HW128231   2.057  11.380   2.659  0.2952 -2.1879 -0.6703
 5502SOL    HW228232   2.194  11.388   2.595  0.3736 -1.0232 -0.3667
 5503SOL     OW28233   8.169   2.115  11.738 -0.6150 -0.0131  0.1100
 5503SOL    HW128234   8.237   2.177  11.710 -0.7830  0.2949  0.3742
 5503SOL    HW228235   8.170   2.119  11.833 -1.3240  0.3522  0.1101
 5504SOL     OW28236   6.458   3.481  12.843  0.2642 -0.6482 -0.2377
 5504SOL    HW128237   6.549   3.478  12.813  0.0386 -2.1388 -0.8397
 5504SOL    HW228238   6.407   3.505  12.766  0.1685  0.7082  0.2190
 5505SOL     OW28239   0.121   6.984  10.103  0.3630  0.7593  0.6959
 5505SOL    HW128240   0.147   7.024  10.186 -0.5648  0.7669  0.9983
 5505SOL    HW228241   0.202   6.946  10.069  1.2788  2.8019  0.4199
 5506SOL     OW28242   5.011   0.151   5.266 -0.3802  0.0139 -0.0342
 5506SOL    HW128243   5.009   0.212   5.193  0.0833  0.4926  0.3449
 5506SOL    HW228244   4.949   0.082   5.242 -0.0537  0.0456 -0.9707
 5507SOL     OW28245   8.454   1.632   9.491  0.4704  0.0367  0.4702
 5507SOL    HW128246   8.523   1.569   9.473 -0.2921 -0.8102  0.4614
 5507SOL    HW228247   8.424   1.661   9.404 -0.0702 -0.5820  0.4454
 5508SOL     OW28248  10.784   1.255   5.663 -0.7738  0.6008 -0.7867
 5508SOL    HW128249  10.712   1.213   5.616 -0.5301  1.9908 -2.4828
 5508SOL    HW228250  10.831   1.305   5.596  0.9023  0.9163  0.5549
 5509SOL     OW28251   2.736   3.784  10.489  0.0119  0.4094 -0.4856
 5509SOL    HW128252   2.768   3.861  10.536 -1.0051  0.0426  0.8824
 5509SOL    HW228253   2.812   3.726  10.484  0.2703  0.6699  0.2781
 5510SOL     OW28254  10.432   7.140   0.585 -0.1439 -0.7052 -1.0547
 5510SOL    HW128255  10.475   7.224   0.599  1.1712 -1.3426 -1.1614
 5510SOL    HW228256  10.343   7.163   0.560  0.3541  0.6642 -1.6550
 5511SOL     OW28257   0.236   6.762  12.482  0.1945  0.6795 -0.1083
 5511SOL    HW128258   0.160   6.819  12.492 -1.1857 -1.1278  0.3046
 5511SOL    HW228259   0.207   6.693  12.421  1.5409  0.0075 -0.0385
 5512SOL     OW28260   0.912   0.737   5.602  0.6211 -0.5717  0.0728
 5512SOL    HW128261   0.922   0.732   5.697  0.2822  2.9848  0.4326
 5512SOL    HW228262   0.994   0.776   5.571  0.2668 -0.6003 -0.9537
 5513SOL     OW28263   1.924  10.558  10.860 -0.4193 -0.6764 -0.5434
 5513SOL    HW128264   1.992  10.561  10.928 -0.6664 -0.6279 -0.2960
 5513SOL    HW228265   1.854  10.614  10.894  0.1291  0.6978 -1.5860
 5514SOL     OW28266  12.525   1.459  11.938  0.6298 -0.5180  0.3552
 5514SOL    HW128267  12.469   1.389  11.904  0.0743  0.0708  0.0253
 5514SOL    HW228268  12.607   1.416  11.961  0.6496 -1.1257 -0.7643
 5515SOL     OW28269   2.450   5.085   3.847  0.2946  0.1209  0.1763
 5515SOL    HW128270   2.533   5.068   3.892 -0.6514 -1.9686  1.2772
 5515SOL    HW228271   2.385   5.088   3.917 -0.9348 -1.1710 -0.8541
 5516SOL     OW28272  10.150  10.952   9.543  0.1089  0.3864 -0.0060
 5516SOL    HW128273  10.145  11.047   9.533  0.4619  0.3488 -0.5670
 5516SOL    HW228274  10.060  10.922   9.527  0.4178  0.4317 -2.1404
 5517SOL     OW28275   3.214  12.879   1.363  0.3602 -0.4255  0.3415
 5517SOL    HW128276   3.157  12.858   1.437 -1.6257  1.0631 -0.6659
 5517SOL    HW228277   3.234  12.795   1.323 -1.6267 -0.9757  0.4036
 5518SOL     OW28278   6.081  10.524   2.008  0.6825  0.4332  0.4519
 5518SOL    HW128279   6.093  10.451   2.069 -2.4203  0.9558  1.8628
 5518SOL    HW228280   6.126  10.598   2.050  2.4723 -0.2056 -0.2238
 5519SOL     OW28281  13.724   2.333   0.627  0.1142 -0.0596 -0.2667
 5519SOL    HW128282  13.702   2.384   0.705  1.1451  0.7325 -0.4642
 5519SOL    HW228283  13.669   2.370   0.558 -1.2293 -1.1515  0.1797
 5520SOL     OW28284   4.495   1.571  11.108  0.1161  0.1977  0.9863
 5520SOL    HW128285   4.557   1.526  11.166  0.1239 -0.8493  0.2066
 5520SOL    HW228286   4.550   1.613  11.042  0.0277 -0.5132  0.4457
 5521SOL     OW28287  11.089   1.824   5.467  0.4176 -0.0946  0.3188
 5521SOL    HW128288  11.052   1.736   5.474  0.4741 -0.0504  1.2399
 5521SOL    HW228289  11.136   1.823   5.383  0.1288 -0.8307  0.1574
 5522SOL     OW28290   6.053  10.328   2.198  0.0522 -0.4492  0.0620
 5522SOL    HW128291   5.990  10.265   2.233 -1.3375  1.3014  0.8836
 5522SOL    HW228292   6.081  10.379   2.274 -1.3175  1.9691 -0.9260
 5523SOL     OW28293   7.233   5.935   8.301 -0.1946  0.4568  0.5927
 5523SOL    HW128294   7.200   5.846   8.294  1.7733 -0.4388  1.7197
 5523SOL    HW228295   7.311   5.927   8.356 -0.8737  3.1143  2.1476
 5524SOL     OW28296   4.316  13.480   2.487  0.2905 -0.0113  0.0808
 5524SOL    HW128297   4.285  13.571   2.490  1.8581  0.5297  2.1781
 5524SOL    HW228298   4.302  13.447   2.576  0.8366 -1.4380 -0.3445
 5525SOL     OW28299  13.145   6.603  12.746  0.3270  0.3853 -0.5218
 5525SOL    HW128300  13.118   6.637  12.832  1.4864  0.1994 -0.0688
 5525SOL    HW228301  13.217   6.543  12.765  0.1695 -0.1637 -1.5743
 5526SOL     OW28302   9.038   1.896   1.764 -0.2110  0.2579  0.0935
 5526SOL    HW128303   9.087   1.839   1.823  1.3684  1.2922 -0.1602
 5526SOL    HW228304   8.948   1.893   1.797  0.3795 -0.1886  1.7705
 5527SOL     OW28305   2.461  11.036   4.924 -0.2221  0.1182  0.2954
 5527SOL    HW128306   2.436  11.077   5.007 -2.4593 -0.7285  0.0989
 5527SOL    HW228307   2.459  10.942   4.942 -1.3374 -0.1053 -0.8422
 5528SOL     OW28308   9.015   8.929   0.147  0.6913 -0.4904 -0.1823
 5528SOL    HW128309   8.945   8.884   0.101  1.1893 -2.1733  0.5903
 5528SOL    HW228310   9.095   8.885   0.118  1.3192  0.5827 -0.1401
 5529SOL     OW28311   0.698   8.013  11.002  0.2154 -0.2548  0.2106
 5529SOL    HW128312   0.689   7.947  10.934 -0.7547  0.3855 -0.3011
 5529SOL    HW228313   0.626   8.074  10.987  0.6506  0.5216  1.1212
 5530SOL     OW28314   7.682  10.799   9.314  0.1592  0.1979 -0.3248
 5530SOL    HW128315   7.686  10.713   9.272  0.6307 -0.1684  0.4467
 5530SOL    HW228316   7.773  10.826   9.323  0.0387  0.5279 -0.0587
 5531SOL     OW28317  10.052   7.580   6.369  0.5303  0.2442  0.2289
 5531SOL    HW128318  10.018   7.669   6.353  0.0562 -0.1529 -1.1012
 5531SOL    HW228319  10.003   7.549   6.444 -2.6268 -0.5271 -1.9679
 5532SOL     OW28320   1.318  11.769   0.787 -1.0014 -0.3366  0.1946
 5532SOL    HW128321   1.397  11.822   0.792 -1.0222 -0.3828  1.3976
 5532SOL    HW228322   1.324  11.725   0.703  1.2050 -1.7771  0.9996
 5533SOL     OW28323  11.735  10.455  11.864  0.1281  0.0304 -0.0713
 5533SOL    HW128324  11.649  10.418  11.886  1.7472 -3.4371  1.2857
 5533SOL    HW228325  11.763  10.406  11.787  1.7669 -0.6332  0.8710
 5534SOL     OW28326   1.750  12.778  13.255 -0.1656  0.3970 -0.0049
 5534SOL    HW128327   1.812  12.742  13.191  1.4012  3.4279 -0.4223
 5534SOL    HW228328   1.674  12.721  13.251  1.7902 -2.3374 -1.0001
 5535SOL     OW28329   4.916   6.359   7.616 -0.3218  0.3740  0.2930
 5535SOL    HW128330   4.850   6.408   7.567  0.1531  1.5046  0.7508
 5535SOL    HW228331   4.968   6.315   7.549  0.6187  2.2701 -0.2857
 5536SOL     OW28332   2.931  13.565   8.900 -0.0278 -0.1464 -0.0436
 5536SOL    HW128333   2.898  13.569   8.810  0.4654  0.6245 -0.1997
 5536SOL    HW228334   3.001  13.500   8.896  0.4257  0.3502 -0.3717
 5537SOL     OW28335  11.379  12.039   6.094  0.1702 -0.3467  0.2372
 5537SOL    HW128336  11.443  12.061   6.161  0.1238  0.2287  0.0988
 5537SOL    HW228337  11.406  12.090   6.017  1.5793 -2.6911 -0.9451
 5538SOL     OW28338   3.029   4.465  12.386 -0.5483 -0.4920  0.3119
 5538SOL    HW128339   3.054   4.376  12.413  0.1722 -1.1475 -2.2328
 5538SOL    HW228340   2.936   4.458  12.365 -0.1806 -1.1010 -1.2998
 5539SOL     OW28341   2.498   9.045  12.275 -0.2050  0.3938 -0.1076
 5539SOL    HW128342   2.560   9.113  12.299 -0.8253  0.3895  1.7024
 5539SOL    HW228343   2.526   8.968  12.325 -1.0411  0.1098 -0.0570
 5540SOL     OW28344   3.611  11.255   6.588 -0.0943 -0.8010 -0.7572
 5540SOL    HW128345   3.625  11.272   6.681  0.8110 -2.2214 -0.6046
 5540SOL    HW228346   3.674  11.310   6.543 -0.0937 -0.5902 -0.4964
 5541SOL     OW28347   4.695   1.314   0.604  0.3280 -0.2180 -0.4278
 5541SOL    HW128348   4.649   1.340   0.524 -0.4659 -0.3968 -0.0343
 5541SOL    HW228349   4.638   1.343   0.675  1.0105 -0.1002  0.0798
 5542SOL     OW28350  13.548  13.561   0.351  0.5443 -1.1640 -0.2730
 5542SOL    HW128351  13.548  13.606   0.267  0.2820 -0.2442  0.1991
 5542SOL    HW228352  13.553  13.468   0.329  0.8502 -0.9206 -1.2856
 5543SOL     OW28353   4.547  10.974   1.087 -0.3738  0.5054  0.3359
 5543SOL    HW128354   4.537  11.023   1.169  0.4202  0.2106  0.6265
 5543SOL    HW228355   4.606  10.903   1.110  0.2664  0.7110 -0.6146
 5544SOL     OW28356   9.147   5.011   4.625 -0.9530 -0.5247  0.7995
 5544SOL    HW128357   9.212   4.941   4.626  1.8287  1.8280  0.5561
 5544SOL    HW228358   9.139   5.035   4.532  0.7017  1.4801  1.0728
 5545SOL     OW28359   5.900   1.771   9.553  0.3059  0.2175  0.3742
 5545SOL    HW128360   5.864   1.858   9.535  0.4435  0.2364  0.1851
 5545SOL    HW228361   5.855   1.742   9.632 -0.7706 -0.1185 -0.3408
 5546SOL     OW28362   7.491   1.093   8.029 -0.5596  0.3320  0.6036
 5546SOL    HW128363   7.560   1.083   8.095  0.7304  2.0365 -0.4022
 5546SOL    HW228364   7.455   1.005   8.018  2.6494 -1.0478 -0.0608
 5547SOL     OW28365  11.910   5.805   9.898  0.5855 -0.0595  0.4767
 5547SOL    HW128366  11.978   5.870   9.879  0.5118 -0.4775 -1.4064
 5547SOL    HW228367  11.828   5.851   9.881  0.4983 -0.3147  0.1996
 5548SOL     OW28368   6.529   0.536   9.092  0.3661  0.4759 -0.1076
 5548SOL    HW128369   6.613   0.554   9.050  1.2900 -0.5127  1.2219
 5548SOL    HW228370   6.471   0.605   9.059  1.2699  0.3197 -2.2000
 5549SOL     OW28371  12.028   3.962  11.683 -0.1742 -0.1999  0.4900
 5549SOL    HW128372  12.105   4.019  11.672 -0.2743  0.1630  1.5375
 5549SOL    HW228373  12.008   3.966  11.777 -0.1285 -2.0616  0.6149
 5550SOL     OW28374   8.378   1.708   9.245  0.1356 -0.1921  0.1461
 5550SOL    HW128375   8.330   1.785   9.274 -0.2976 -0.2169 -0.4686
 5550SOL    HW228376   8.453   1.743   9.196 -0.3552 -0.1546 -0.5926
 5551SOL     OW28377   0.590   5.554   0.934 -0.0076 -0.0753 -0.0464
 5551SOL    HW128378   0.678   5.562   0.972 -0.1837  0.6204  0.2356
 5551SOL    HW228379   0.603   5.509   0.851  0.4775 -0.9818  0.5138
 5552SOL     OW28380  10.940   4.737   9.282 -0.1689  0.1722  0.0371
 5552SOL    HW128381  10.966   4.783   9.361 -1.3279 -0.5510  0.8709
 5552SOL    HW228382  11.017   4.685   9.258 -0.4860 -1.3021  1.9675
 5553SOL     OW28383  12.121  13.537   3.970  0.0929 -0.1008 -0.2064
 5553SOL    HW128384  12.041  13.532   3.917 -0.0643  0.3696 -0.0176
 5553SOL    HW228385  12.115  13.622   4.014  1.0034  0.2158 -0.6735
 5554SOL     OW28386  12.703   2.663   8.651 -0.3440  0.6533  0.3222
 5554SOL    HW128387  12.680   2.681   8.559  0.5728  2.1183  0.3486
 5554SOL    HW228388  12.798   2.675   8.655 -0.2039 -0.5855  1.2274
 5555SOL     OW28389   0.428   7.845   9.070  0.4634 -0.1210  0.6951
 5555SOL    HW128390   0.404   7.895   8.992 -2.1595 -0.9634  0.8673
 5555SOL    HW228391   0.394   7.897   9.143  1.1285 -0.3202  1.1630
 5556SOL     OW28392  11.982   2.640   8.256  0.4637  0.0442  0.1366
 5556SOL    HW128393  12.068   2.615   8.220 -0.7506  0.7149 -3.6562
 5556SOL    HW228394  11.934   2.557   8.262  0.1252  0.0680 -1.6480
 5557SOL     OW28395  10.140   3.503   5.847  0.6517 -0.5832  0.1525
 5557SOL    HW128396  10.199   3.482   5.920  1.3772  0.0523 -0.2356
 5557SOL    HW228397  10.084   3.573   5.881  1.3885  0.1337 -0.0783
 5558SOL     OW28398   3.034  11.284   1.300  0.3080 -0.4001 -0.0710
 5558SOL    HW128399   2.983  11.208   1.273 -0.8045  0.6744 -1.1496
 5558SOL    HW228400   3.102  11.293   1.233 -1.0193  0.9023 -1.2983
 5559SOL     OW28401   1.216   1.238   1.112 -0.6222  0.3295  0.7242
 5559SOL    HW128402   1.212   1.159   1.057  0.2466  1.4633 -1.0551
 5559SOL    HW228403   1.126   1.251   1.141 -1.2103 -0.0941 -0.7849
 5560SOL     OW28404  11.941   5.359   6.670  0.8140  0.0480 -0.2769
 5560SOL    HW128405  11.897   5.443   6.686  0.3730  0.0903 -1.5627
 5560SOL    HW228406  11.871   5.301   6.639  1.0875 -0.8553  0.7637
 5561SOL     OW28407   2.706   7.850   1.378  0.0578  1.1281  0.0319
 5561SOL    HW128408   2.688   7.758   1.397 -0.2194  1.1215 -0.2593
 5561SOL    HW228409   2.776   7.874   1.439 -0.1820  0.8510  0.4184
 5562SOL     OW28410  12.919   4.653  11.379  0.3526 -0.1370  0.2898
 5562SOL    HW128411  12.943   4.639  11.287  0.4883 -0.5548  0.3837
 5562SOL    HW228412  12.847   4.592  11.394 -0.7458  1.0485  0.0344
 5563SOL     OW28413   5.793   7.913   6.777  0.3508  0.0849  0.1816
 5563SOL    HW128414   5.824   7.840   6.830  0.8022  1.1413  1.4280
 5563SOL    HW228415   5.852   7.915   6.702 -1.1264 -2.2786 -1.1702
 5564SOL     OW28416   2.544   9.532   6.075 -0.2978  0.6405 -0.1070
 5564SOL    HW128417   2.470   9.578   6.115 -0.4273  0.7870 -0.5031
 5564SOL    HW228418   2.620   9.558   6.127 -0.5292  0.4708  0.3175
 5565SOL     OW28419  12.206  12.966   2.380 -0.3016  0.0000  0.2846
 5565SOL    HW128420  12.248  12.887   2.345  0.1194  0.7437 -0.9199
 5565SOL    HW228421  12.240  13.038   2.327 -3.4201  0.6130 -1.1436
 5566SOL     OW28422   5.890   2.751   6.504 -0.1448 -0.4453 -0.0138
 5566SOL    HW128423   5.943   2.792   6.436 -1.1492  0.1161 -0.4847
 5566SOL    HW228424   5.877   2.820   6.570 -0.1665 -0.6215  0.1677
 5567SOL     OW28425   9.069  11.366   3.589 -0.5226  0.1710 -0.2378
 5567SOL    HW128426   9.060  11.453   3.627 -0.3700  0.3031 -0.5002
 5567SOL    HW228427   8.999  11.361   3.524 -0.1399  0.3401 -0.6701
 5568SOL     OW28428  10.853   7.327  11.134 -0.0270 -0.6840 -0.2541
 5568SOL    HW128429  10.870   7.402  11.077 -1.3318 -0.2034 -0.0344
 5568SOL    HW228430  10.899   7.254  11.092 -0.6766 -0.2706 -1.7395
 5569SOL     OW28431   0.462   5.623   8.025  0.2729  0.2145 -0.3402
 5569SOL    HW128432   0.379   5.665   8.002 -0.4192 -1.0471 -0.2246
 5569SOL    HW228433   0.522   5.696   8.042 -0.7031  1.1464 -0.7781
 5570SOL     OW28434   0.531  12.959  11.758  0.3899  0.0093  0.1271
 5570SOL    HW128435   0.601  13.015  11.789  2.0717 -1.4910 -0.7791
 5570SOL    HW228436   0.547  12.875  11.802 -1.8645  0.0754  1.2100
 5571SOL     OW28437   1.732   8.517   4.029  0.0606 -0.0517  0.1213
 5571SOL    HW128438   1.761   8.520   4.121 -0.5568  2.7251  0.3120
 5571SOL    HW228439   1.752   8.604   3.995  0.8226 -1.1952 -2.6173
 5572SOL     OW28440   2.850   7.079  12.430 -0.7345 -0.1536 -0.4705
 5572SOL    HW128441   2.821   7.139  12.360 -1.0727  0.2293 -0.0109
 5572SOL    HW228442   2.913   7.021  12.387 -1.0116  0.0119 -1.1188
 5573SOL     OW28443  12.909   5.707  12.446  0.1360  0.0894  0.2993
 5573SOL    HW128444  12.941   5.617  12.445 -0.3692 -0.0878 -0.7179
 5573SOL    HW228445  12.874   5.718  12.534  1.3193 -0.2899  0.8437
 5574SOL     OW28446   6.925   1.364   1.357 -0.3585 -0.3854  0.6004
 5574SOL    HW128447   7.017   1.381   1.333 -0.1175 -1.6454  0.5650
 5574SOL    HW228448   6.875   1.412   1.291  0.3002 -2.1817 -1.3242
 5575SOL     OW28449   1.104   1.451   4.823 -0.6338 -0.5933 -0.2959
 5575SOL    HW128450   1.093   1.404   4.740 -2.9321 -0.9266  0.1399
 5575SOL    HW228451   1.067   1.393   4.889 -0.5152  0.4436  0.7141
 5576SOL     OW28452  12.978   3.362  10.373  0.2188 -1.0153 -0.4416
 5576SOL    HW128453  12.934   3.336  10.453  0.8369  0.7060  0.5133
 5576SOL    HW228454  13.037   3.289  10.353 -0.1392 -1.5774  0.5202
 5577SOL     OW28455   2.915   8.330  13.637  0.4417 -0.1254  0.7162
 5577SOL    HW128456   2.893   8.398  13.702  0.9718  2.0753 -1.2620
 5577SOL    HW228457   2.834   8.314  13.590  0.8125  0.8721 -0.3014
 5578SOL     OW28458  11.568   1.022   6.260 -0.5830  0.3428 -0.1244
 5578SOL    HW128459  11.531   1.110   6.268 -1.2980  0.1479 -1.0809
 5578SOL    HW228460  11.492   0.965   6.254 -0.1217 -0.3510  0.4859
 5579SOL     OW28461  10.160   2.578   0.510 -0.5669  1.0895 -0.5839
 5579SOL    HW128462  10.174   2.492   0.470  0.2048  1.4665 -1.1465
 5579SOL    HW228463  10.174   2.563   0.604 -0.2516  0.6439 -0.6991
 5580SOL     OW28464   9.681   6.463   0.161 -0.3124 -0.3560  0.3663
 5580SOL    HW128465   9.612   6.513   0.116  3.0388  1.3465 -3.4777
 5580SOL    HW228466   9.722   6.527   0.220  0.2296 -0.3145 -0.0562
 5581SOL     OW28467   3.962   6.335   2.440  0.2917 -0.1468  0.0021
 5581SOL    HW128468   3.877   6.376   2.455  1.4403  2.4984 -0.0068
 5581SOL    HW228469   3.944   6.259   2.384 -2.3835 -1.7421  2.7865
 5582SOL     OW28470   8.107   3.394  10.887  0.3493 -0.7041 -0.1809
 5582SOL    HW128471   8.029   3.390  10.943 -0.0996  2.1649 -0.4112
 5582SOL    HW228472   8.174   3.433  10.944  0.3195  0.8150 -1.1203
 5583SOL     OW28473   6.375   2.925   4.653 -0.0005  0.2045 -0.0305
 5583SOL    HW128474   6.451   2.980   4.634 -0.3712  0.5108 -0.6819
 5583SOL    HW228475   6.398   2.839   4.617  0.3204  0.1084  0.4045
 5584SOL     OW28476   7.012   2.832  10.490  0.1128  0.6125  0.3158
 5584SOL    HW128477   7.038   2.908  10.542  1.4705 -0.0917  0.7201
 5584SOL    HW228478   6.967   2.774  10.551  0.5279  0.3702  0.3914
 5585SOL     OW28479   9.964   4.860   1.663 -0.0987  0.2991 -0.3495
 5585SOL    HW128480   9.997   4.908   1.739  0.2725  0.9066 -0.8878
 5585SOL    HW228481   9.899   4.800   1.700  1.7460 -1.1351  0.8014
 5586SOL     OW28482   3.941   9.869  10.213  0.0086 -0.5420 -0.3842
 5586SOL    HW128483   3.971   9.879  10.123  2.0945  0.7880  0.3880
 5586SOL    HW228484   4.022   9.858  10.264 -0.4663  4.2090  1.9751
 5587SOL     OW28485  11.118   2.221   3.309 -0.7554  0.3647 -0.1637
 5587SOL    HW128486  11.108   2.178   3.224 -1.7859  0.2945 -0.0277
 5587SOL    HW228487  11.114   2.150   3.372  0.5519  0.3575 -0.0650
 5588SOL     OW28488   9.146  12.407   0.645 -0.2097  0.1336 -0.3796
 5588SOL    HW128489   9.159  12.494   0.684 -1.3110 -0.6871  1.9640
 5588SOL    HW228490   9.235  12.374   0.631  0.2220  0.6857  0.9507
 5589SOL     OW28491   6.940   9.675   7.642 -0.2941  0.2628 -0.0007
 5589SOL    HW128492   7.032   9.649   7.656 -0.6414 -0.3038  1.4298
 5589SOL    HW228493   6.896   9.594   7.620 -0.6714  0.3087  0.5680
 5590SOL     OW28494   8.189   3.030  10.994  0.8185  0.2734 -0.1706
 5590SOL    HW128495   8.171   3.073  11.078 -0.8003 -0.3873 -0.1524
 5590SOL    HW228496   8.282   3.046  10.979  1.3493 -0.2966  2.1623
 5591SOL     OW28497   5.821   7.736   8.524  0.4885  0.9180  0.2907
 5591SOL    HW128498   5.861   7.787   8.595  1.2034 -1.8174  2.0197
 5591SOL    HW228499   5.729   7.727   8.551  1.0778 -1.4411  1.8817
 5592SOL     OW28500   8.324  11.287   3.752 -0.2214  0.3340 -0.1710
 5592SOL    HW128501   8.243  11.335   3.766 -0.5880 -0.5843  1.0624
 5592SOL    HW228502   8.392  11.346   3.784 -0.7493 -0.2907  2.3276
 5593SOL     OW28503   4.368   8.459   7.386 -0.0209 -0.3556  0.0441
 5593SOL    HW128504   4.289   8.510   7.405 -0.4007 -1.2534  0.9244
 5593SOL    HW228505   4.360   8.436   7.293 -0.6346 -0.1669  0.0474
 5594SOL     OW28506  10.708   6.630   1.701  0.4717 -0.3586 -0.1374
 5594SOL    HW128507  10.755   6.641   1.618 -1.3024  1.1221 -1.0136
 5594SOL    HW228508  10.768   6.665   1.767  1.2799 -0.0755 -0.9974
 5595SOL     OW28509   2.586   3.168   8.210  0.9010 -0.0244  0.3432
 5595SOL    HW128510   2.658   3.231   8.217  0.8849 -0.0928  1.2103
 5595SOL    HW228511   2.627   3.088   8.179  0.9661  0.3205 -0.5094
 5596SOL     OW28512  10.657  11.451   4.013 -0.0800 -0.1301  0.1968
 5596SOL    HW128513  10.584  11.500   4.052  0.6120  1.0638  0.0602
 5596SOL    HW228514  10.657  11.367   4.058 -0.5765  0.4468  1.3094
 5597SOL     OW28515   6.443  13.457   0.078  0.2471 -0.1296 -0.0525
 5597SOL    HW128516   6.499  13.394   0.031 -0.4991 -0.8974  0.0678
 5597SOL    HW228517   6.496  13.537   0.083  1.5901 -1.0192  0.6096
 5598SOL     OW28518   0.849  11.586  13.478  0.1816  0.3490  0.3542
 5598SOL    HW128519   0.897  11.532  13.541  0.8759 -0.7230 -1.0453
 5598SOL    HW228520   0.774  11.531  13.452  0.4777  0.3477 -0.5194
 5599SOL     OW28521  11.303   6.068  12.330 -0.4493  0.3491  0.4454
 5599SOL    HW128522  11.227   6.024  12.366 -1.1103  0.3913 -0.8397
 5599SOL    HW228523  11.334   6.010  12.260 -0.2657  1.0739 -0.0872
 5600SOL     OW28524   1.060   5.373   3.023  0.2978  0.4783  0.3111
 5600SOL    HW128525   1.134   5.420   3.061  1.0748  0.1444 -0.7545
 5600SOL    HW228526   1.098   5.293   2.987 -0.1191  1.3740 -2.3596
 5601SOL     OW28527   4.281  10.550  11.695 -0.1657 -0.3314  0.1063
 5601SOL    HW128528   4.236  10.535  11.611 -2.2006 -0.0586  1.0982
 5601SOL    HW228529   4.360  10.495  11.689 -0.6913 -0.9865 -1.6326
 5602SOL     OW28530   2.415  10.979   4.216 -0.1129  0.4836  0.2480
 5602SOL    HW128531   2.454  11.022   4.292  1.9116  0.6984 -0.8454
 5602SOL    HW228532   2.385  10.894   4.249  1.2178  0.3407  1.1925
 5603SOL     OW28533  11.822  11.502  11.295  0.6937  0.0899  0.0007
 5603SOL    HW128534  11.840  11.411  11.274  0.2421  0.2121 -0.9566
 5603SOL    HW228535  11.743  11.523  11.245  0.4036  0.8119  0.7353
 5604SOL     OW28536  12.083   0.775   5.113  0.2908 -0.4953 -0.0853
 5604SOL    HW128537  12.143   0.729   5.055  0.6350 -0.8096  0.5101
 5604SOL    HW228538  12.009   0.797   5.058  0.0378 -1.9125 -0.3594
 5605SOL     OW28539   8.730   8.792   1.887  0.6245 -0.2512  0.6179
 5605SOL    HW128540   8.812   8.765   1.846  1.1622  0.4648  1.2160
 5605SOL    HW228541   8.724   8.738   1.966  0.7133 -0.0384  0.7718
 5606SOL     OW28542   3.459   3.613   6.556 -0.2490  0.0094 -0.1482
 5606SOL    HW128543   3.400   3.602   6.481  1.6469  1.1487 -1.9305
 5606SOL    HW228544   3.470   3.708   6.564  1.1137 -0.1581  0.2803
 5607SOL     OW28545   7.832  12.867   4.116  0.7090 -0.1191  0.2944
 5607SOL    HW128546   7.754  12.824   4.082 -0.3933  0.9018  1.4334
 5607SOL    HW228547   7.905  12.824   4.071 -0.4489 -1.6718 -0.1806
 5608SOL     OW28548  10.232   1.960   4.971  0.0016  0.1684 -0.0096
 5608SOL    HW128549  10.210   2.048   4.941  0.5840  1.3296  2.6063
 5608SOL    HW228550  10.325   1.950   4.949 -0.0971  0.1606 -0.4250
 5609SOL     OW28551   9.039   1.820  10.347  0.4891 -0.2749 -0.1067
 5609SOL    HW128552   9.101   1.765  10.299 -0.1255 -1.8974  0.9142
 5609SOL    HW228553   9.040   1.787  10.436  0.5181  1.7602  0.6936
 5610SOL     OW28554  13.044   0.835   4.355 -0.2775 -0.3109 -0.0087
 5610SOL    HW128555  13.061   0.748   4.319 -0.3010 -0.7894  1.1125
 5610SOL    HW228556  12.956   0.830   4.390  0.8024 -0.8779  2.9123
 5611SOL     OW28557   6.827   9.756   3.491  0.1432  0.5499  0.1914
 5611SOL    HW128558   6.754   9.754   3.553  0.5379  0.2985  0.6486
 5611SOL    HW228559   6.834   9.666   3.459  0.2766  0.5677  0.1693
 5612SOL     OW28560   6.890   4.008   6.514  0.0743 -0.2412 -0.0302
 5612SOL    HW128561   6.897   3.973   6.425  0.4799 -0.5418  0.1159
 5612SOL    HW228562   6.867   4.100   6.502  2.1920  0.2787 -0.5249
 5613SOL     OW28563  10.648  13.526   7.159  0.3613 -0.4599  0.1647
 5613SOL    HW128564  10.692  13.610   7.147 -2.2285  1.0225  0.3666
 5613SOL    HW228565  10.627  13.497   7.070 -1.0641  0.4574  0.1829
 5614SOL     OW28566   9.591   3.756   6.801  0.5367 -0.0219 -0.0150
 5614SOL    HW128567   9.523   3.777   6.738  0.3484 -0.1434  0.1482
 5614SOL    HW228568   9.564   3.673   6.840 -0.0216  0.6947  1.1730
 5615SOL     OW28569   3.658   2.250  12.779 -0.0312 -0.6057 -0.2080
 5615SOL    HW128570   3.747   2.285  12.772  0.4127 -1.2421  1.5868
 5615SOL    HW228571   3.664   2.162  12.740  0.3768 -1.0083  0.7374
 5616SOL     OW28572   0.580  11.632  10.136  0.7626 -0.2380 -0.2447
 5616SOL    HW128573   0.533  11.687  10.199  0.2253 -1.0150  0.0432
 5616SOL    HW228574   0.561  11.543  10.163  2.9408 -0.5873  0.2700
 5617SOL     OW28575   8.170   1.688   0.439 -0.2032 -0.2249 -0.0143
 5617SOL    HW128576   8.095   1.705   0.382  0.8484 -0.3531 -1.4651
 5617SOL    HW228577   8.240   1.661   0.380  0.9709 -0.2110  1.3274
 5618SOL     OW28578   8.735   0.452   4.712  0.2569 -0.5539 -0.7809
 5618SOL    HW128579   8.734   0.467   4.618 -0.4261 -0.7709 -0.8089
 5618SOL    HW228580   8.743   0.357   4.722 -2.4965 -0.8495 -0.6644
 5619SOL     OW28581  12.135   1.758   6.092 -0.2643  0.1958  0.6173
 5619SOL    HW128582  12.138   1.836   6.147  0.8647 -0.9858  2.3240
 5619SOL    HW228583  12.042   1.732   6.092 -0.4669  0.8991  0.9390
 5620SOL     OW28584  10.049   5.048   4.740 -0.2128 -0.2364 -0.5521
 5620SOL    HW128585  10.116   4.985   4.767 -0.2724 -1.7255 -3.4496
 5620SOL    HW228586  10.099   5.122   4.705 -0.1068 -0.3025 -0.5426
 5621SOL     OW28587   7.028   2.053   7.157  0.5928 -0.0684 -0.2258
 5621SOL    HW128588   7.024   2.121   7.090  1.6703  0.5554  0.3268
 5621SOL    HW228589   6.943   2.008   7.150 -0.9952  2.5413  0.6766
 5622SOL     OW28590   8.981   5.818   3.999  0.4770 -0.4590 -0.2007
 5622SOL    HW128591   8.892   5.853   4.012  0.2992 -0.7005 -0.7198
 5622SOL    HW228592   9.000   5.772   4.081  0.8483  1.0914  0.6358
 5623SOL     OW28593   8.286  12.030  13.605  0.8974  0.5503 -0.3604
 5623SOL    HW128594   8.252  12.115  13.577 -1.2494  0.2707  1.1173
 5623SOL    HW228595   8.332  12.048  13.686  0.4308  0.3109 -0.0396
 5624SOL     OW28596   6.526   2.039  12.354  0.4571 -0.5562  0.4446
 5624SOL    HW128597   6.618   2.013  12.356  0.8138  0.7037  0.9390
 5624SOL    HW228598   6.526   2.126  12.314 -0.3888 -0.0513  1.5007
 5625SOL     OW28599   9.176  12.140   6.197  0.1155  0.0922  0.4000
 5625SOL    HW128600   9.164  12.071   6.131 -0.8305  1.1748 -0.6037
 5625SOL    HW228601   9.271  12.142   6.212  0.0516 -2.9153  2.1646
 5626SOL     OW28602   4.908  10.222   1.575  0.3734  0.3516  0.0309
 5626SOL    HW128603   4.946  10.245   1.659  0.4284  1.4140 -0.2780
 5626SOL    HW228604   4.830  10.277   1.568  0.1102 -0.0656 -0.4125
 5627SOL     OW28605   1.980   4.043   2.348  0.1275 -0.3519 -0.0750
 5627SOL    HW128606   1.913   4.034   2.415 -0.4132 -0.0046 -0.5640
 5627SOL    HW228607   2.058   4.001   2.386 -0.2749 -0.4861  0.6121
 5628SOL     OW28608   4.100  12.234   9.590  0.0554  0.8140 -0.1444
 5628SOL    HW128609   4.009  12.259   9.606  0.3118  2.3380 -0.9561
 5628SOL    HW228610   4.096  12.177   9.513 -0.4208 -1.0578  1.1742
 5629SOL     OW28611   8.158  13.079   4.294  0.5390 -0.5557 -0.0260
 5629SOL    HW128612   8.240  13.097   4.341 -1.5545  1.6157  3.1215
 5629SOL    HW228613   8.148  13.154   4.235 -0.0847  0.2216  1.0347
 5630SOL     OW28614   9.314   6.933   5.660 -0.2213 -0.4662  0.7430
 5630SOL    HW128615   9.228   6.891   5.658 -0.5329  0.1618  0.6978
 5630SOL    HW228616   9.338   6.943   5.568 -1.5402  2.2150  0.6010
 5631SOL     OW28617  12.849   1.914   9.294 -0.3546  0.2735  0.5852
 5631SOL    HW128618  12.894   1.830   9.292 -1.8758 -0.5781 -0.2249
 5631SOL    HW228619  12.870   1.955   9.210 -0.5243  0.1923  0.5031
 5632SOL     OW28620  10.054   7.924   5.089 -0.0347 -0.1175 -0.1758
 5632SOL    HW128621  10.033   7.838   5.051  0.1727 -0.3717  0.2814
 5632SOL    HW228622  10.012   7.924   5.174 -0.5111  0.4631 -0.4058
 5633SOL     OW28623  12.231  10.301   5.554  0.2579 -0.2649  0.3505
 5633SOL    HW128624  12.282  10.232   5.596 -0.4067 -1.2583 -0.4360
 5633SOL    HW228625  12.158  10.256   5.513 -0.1025  0.8898 -0.3389
 5634SOL     OW28626  13.247   4.208   5.442  0.2949  0.2904 -0.3276
 5634SOL    HW128627  13.250   4.297   5.408  1.3695 -0.0519 -1.1928
 5634SOL    HW228628  13.334   4.195   5.482  0.5216 -0.6910 -1.1065
 5635SOL     OW28629  13.672   5.352  12.930  0.3788  0.1462 -0.2119
 5635SOL    HW128630  13.761   5.335  12.899  0.2102 -0.8356 -0.2008
 5635SOL    HW228631  13.619   5.352  12.850  0.6022  2.5211 -0.4333
 5636SOL     OW28632  11.332  13.187   7.315  0.0540  0.7650 -0.2981
 5636SOL    HW128633  11.342  13.219   7.405  1.4346  2.9335 -1.1424
 5636SOL    HW228634  11.411  13.137   7.298 -1.7881 -2.8244  0.7748
 5637SOL     OW28635   6.596  10.486   8.290 -0.1832  0.4737  0.3370
 5637SOL    HW128636   6.597  10.457   8.199  0.3836  0.2720  0.4073
 5637SOL    HW228637   6.657  10.560   8.292 -1.3515  1.4757  0.2297
 5638SOL     OW28638   3.593  10.594  11.499  1.1404 -0.0880 -0.2356
 5638SOL    HW128639   3.687  10.586  11.516  1.1268 -2.5107 -0.9134
 5638SOL    HW228640   3.554  10.598  11.586  1.9117  4.1066  0.1598
 5639SOL     OW28641   9.265   1.995   6.570 -0.5355 -0.0416  0.3489
 5639SOL    HW128642   9.307   1.909   6.574  1.0375  0.5378 -1.7373
 5639SOL    HW228643   9.232   2.002   6.480 -1.6170  1.1231  0.8039
 5640SOL     OW28644   1.555  12.760   1.964 -0.2259 -0.1716  0.2756
 5640SOL    HW128645   1.633  12.761   1.907 -1.0924 -1.7902 -1.0271
 5640SOL    HW228646   1.541  12.667   1.983 -2.6217 -0.0876 -0.6954
 5641SOL     OW28647   9.343   3.154  12.807  0.2050 -0.0910  0.4711
 5641SOL    HW128648   9.361   3.188  12.894  0.6704  1.8316 -0.3289
 5641SOL    HW228649   9.272   3.091  12.820  1.6665 -1.4499  2.5118
 5642SOL     OW28650   2.571  13.205   8.625  0.2998 -0.5987  0.3483
 5642SOL    HW128651   2.662  13.232   8.629 -0.1542  1.5191 -1.5309
 5642SOL    HW228652   2.563  13.159   8.541 -0.5489  0.1468  0.0054
 5643SOL     OW28653   2.338  11.089   0.145 -0.3049  0.2366  0.9414
 5643SOL    HW128654   2.388  11.100   0.226 -0.2667  2.2910  0.6848
 5643SOL    HW228655   2.391  11.131   0.078 -0.3776 -1.3668 -0.1757
 5644SOL     OW28656   8.172   6.235  11.779 -0.1971 -0.1916 -0.2312
 5644SOL    HW128657   8.126   6.201  11.702  1.8607 -1.1370 -1.1246
 5644SOL    HW228658   8.189   6.327  11.758  0.8799 -0.5952 -1.2093
 5645SOL     OW28659   9.949  10.285   6.395  0.3713 -0.6120  0.2372
 5645SOL    HW128660   9.939  10.241   6.311  0.8494  0.5713 -0.4592
 5645SOL    HW228661   9.918  10.374   6.380 -1.5779 -0.9248  1.8947
 5646SOL     OW28662  12.089   8.787  13.585 -0.0637  0.4276 -0.2864
 5646SOL    HW128663  12.026   8.728  13.545 -1.1456  2.1086 -1.1492
 5646SOL    HW228664  12.036   8.853  13.630  1.0973  1.0823  0.1833
 5647SOL     OW28665   0.530   6.193   0.223  0.1015 -0.4523  0.1742
 5647SOL    HW128666   0.563   6.170   0.135 -0.1976 -1.2639  0.2651
 5647SOL    HW228667   0.600   6.246   0.261  0.0931  0.1956 -0.6747
 5648SOL     OW28668  13.642   8.745   4.951  0.8797 -0.1259 -0.3775
 5648SOL    HW128669  13.557   8.752   4.994  1.2186 -0.2178  0.3200
 5648SOL    HW228670  13.698   8.701   5.015  1.1540 -1.1035 -1.2722
 5649SOL     OW28671   8.071   3.771   7.727  0.2901 -0.1339  0.2071
 5649SOL    HW128672   8.119   3.693   7.699  0.3833 -0.2507  0.6711
 5649SOL    HW228673   8.091   3.837   7.662  1.4366 -0.0466  0.6309
 5650SOL     OW28674   7.191   5.636   9.281  0.5258  0.0974 -0.6209
 5650SOL    HW128675   7.164   5.582   9.207 -0.8116  0.1532 -0.2019
 5650SOL    HW228676   7.232   5.574   9.342 -0.6712 -0.4170 -0.3041
 5651SOL     OW28677   3.066   3.382   2.700 -0.2361 -0.0460  0.2475
 5651SOL    HW128678   3.087   3.472   2.726  1.1772  0.0817 -1.1849
 5651SOL    HW228679   3.089   3.377   2.608 -1.9284 -1.4192 -0.1656
 5652SOL     OW28680  13.556  10.367   8.572 -0.3161  0.3869 -0.2890
 5652SOL    HW128681  13.460  10.362   8.577 -0.3892  1.3278 -0.4455
 5652SOL    HW228682  13.585  10.351   8.662 -0.7143  1.4580  0.0565
 5653SOL     OW28683   0.694   4.918   2.312  0.3849 -0.2700  0.0009
 5653SOL    HW128684   0.734   4.998   2.346 -0.1594 -0.3725  0.9308
 5653SOL    HW228685   0.622   4.948   2.257 -1.7343 -0.0536  2.6826
 5654SOL     OW28686   2.919   0.889   2.206  0.4318  0.1113 -0.8816
 5654SOL    HW128687   2.884   0.936   2.282  0.4499 -0.6323 -0.4047
 5654SOL    HW228688   3.014   0.904   2.209  0.7408 -1.7704  0.5793
 5655SOL     OW28689   3.300   9.422   2.943  0.2048  0.3371 -0.6860
 5655SOL    HW128690   3.260   9.362   3.006  1.2637 -1.1260 -1.3539
 5655SOL    HW228691   3.325   9.498   2.995  0.5854 -0.6102  0.5706
 5656SOL     OW28692   9.199   8.922   3.651 -0.3563 -0.9946  0.0249
 5656SOL    HW128693   9.235   8.939   3.564  0.2345 -0.7339  0.3077
 5656SOL    HW228694   9.270   8.947   3.711 -0.4130 -2.0546  0.5524
 5657SOL     OW28695   7.236  13.137   2.953  0.2357  0.1784 -1.1698
 5657SOL    HW128696   7.217  13.086   3.032  1.4485  1.4169 -0.0285
 5657SOL    HW228697   7.331  13.149   2.954  0.3165  0.0246 -2.9696
 5658SOL     OW28698   0.306   0.747   7.561 -0.2109  0.1453 -0.3828
 5658SOL    HW128699   0.363   0.718   7.490  0.8633  0.6835  0.2381
 5658SOL    HW228700   0.289   0.668   7.612  0.2966  0.0549 -0.3533
 5659SOL     OW28701   4.166   6.199   2.844  0.1966  0.2659 -0.3520
 5659SOL    HW128702   4.143   6.149   2.922  1.3964 -0.8859 -0.7060
 5659SOL    HW228703   4.084   6.207   2.795 -0.2820 -0.1874  0.3603
 5660SOL     OW28704   0.444  13.106  12.768  0.4077 -0.2368 -0.0607
 5660SOL    HW128705   0.534  13.097  12.738  0.3628  1.2822 -0.7799
 5660SOL    HW228706   0.394  13.127  12.688  0.0138  2.2544  0.7413
 5661SOL     OW28707  10.040  12.035   7.681 -0.0970 -0.0752  1.0565
 5661SOL    HW128708  10.015  11.962   7.625  0.1974  1.1496 -0.7681
 5661SOL    HW228709   9.970  12.042   7.745 -1.3875 -0.4150 -0.2734
 5662SOL     OW28710  11.746   9.069   0.527  0.3329  0.8819  0.4923
 5662SOL    HW128711  11.699   9.067   0.444  0.1438  1.0278  0.5929
 5662SOL    HW228712  11.677   9.061   0.593  0.4627  0.9552  0.6370
 5663SOL     OW28713   2.809  12.167   5.566  0.6925  0.0071  0.3403
 5663SOL    HW128714   2.788  12.242   5.621 -0.3981  0.9109 -1.2008
 5663SOL    HW228715   2.812  12.093   5.626  0.2215  1.0398  1.6974
 5664SOL     OW28716  10.010  13.176   4.010 -0.1099 -0.3571  0.0329
 5664SOL    HW128717  10.074  13.224   4.062 -0.8789  1.0826 -0.2988
 5664SOL    HW228718   9.987  13.100   4.064  0.8570 -0.1720  0.7262
 5665SOL     OW28719   5.658   8.810   4.419 -0.2508  0.3049 -0.2046
 5665SOL    HW128720   5.684   8.843   4.505 -0.2447 -0.4226  0.0743
 5665SOL    HW228721   5.725   8.745   4.397 -0.9482 -0.4176 -0.2043
 5666SOL     OW28722   2.768   3.488   3.562 -0.1791 -0.0352  0.3436
 5666SOL    HW128723   2.721   3.460   3.641 -0.7693  0.3892  0.1498
 5666SOL    HW228724   2.785   3.581   3.575  2.3635 -0.5716  1.2745
 5667SOL     OW28725   3.634   3.311   0.743 -0.1610 -0.2179 -0.4821
 5667SOL    HW128726   3.677   3.240   0.792 -0.6367 -0.7965 -0.8776
 5667SOL    HW228727   3.549   3.274   0.718 -0.5930  0.6557 -0.3292
 5668SOL     OW28728   9.713   7.514   5.147 -0.1854 -0.3750 -0.3703
 5668SOL    HW128729   9.795   7.504   5.194 -1.2738  0.5854  1.9101
 5668SOL    HW228730   9.656   7.445   5.181 -0.2077 -1.4096 -2.3489
 5669SOL     OW28731   9.297  11.654  11.829 -0.0165 -0.1073  0.0290
 5669SOL    HW128732   9.223  11.712  11.845  0.2317  0.6583 -1.4159
 5669SOL    HW228733   9.258  11.571  11.801 -0.3446  0.3292 -0.8456
 5670SOL     OW28734   9.845  11.940   1.909 -0.6899  0.1408 -0.4090
 5670SOL    HW128735   9.918  11.927   1.968 -0.0759  1.5670 -0.8108
 5670SOL    HW228736   9.879  11.997   1.840 -1.9896  0.3111 -0.9485
 5671SOL     OW28737  11.843  10.679   5.937 -0.0479 -0.3145  0.1570
 5671SOL    HW128738  11.903  10.732   5.884  0.9641  0.3329  1.8773
 5671SOL    HW228739  11.793  10.629   5.872 -0.0079  1.6031 -1.4886
 5672SOL     OW28740   8.707   7.758  11.490  0.1209 -0.3894  0.9580
 5672SOL    HW128741   8.659   7.797  11.418  1.8987  2.6878  1.2456
 5672SOL    HW228742   8.717   7.829  11.554  1.3293 -2.0885  2.8031
 5673SOL     OW28743  11.858   1.226   6.742  0.1477 -0.5655 -0.1931
 5673SOL    HW128744  11.914   1.304   6.743 -1.6787  0.7974  0.8283
 5673SOL    HW228745  11.875   1.185   6.657  1.0147  1.0352 -0.8320
 5674SOL     OW28746   1.352   4.430   0.700  0.1444  0.3070  0.5071
 5674SOL    HW128747   1.416   4.361   0.715 -1.2269 -0.9646  0.8180
 5674SOL    HW228748   1.403   4.511   0.699  1.4633 -0.3737  3.1351
 5675SOL     OW28749   8.520   1.458   7.456  0.9137  0.0880  0.0141
 5675SOL    HW128750   8.424   1.455   7.450  0.9761 -0.3288 -1.0265
 5675SOL    HW228751   8.539   1.439   7.548  0.0285 -0.8161  0.0306
 5676SOL     OW28752   0.055   2.568  13.039  0.1153 -0.2852  0.1525
 5676SOL    HW128753   0.114   2.529  12.975  0.0734  1.5738 -1.0677
 5676SOL    HW228754   0.101   2.644  13.072 -0.6662 -0.1231  0.9067
 5677SOL     OW28755  12.934  13.449   2.522  0.1083 -0.0758 -0.0841
 5677SOL    HW128756  12.953  13.493   2.604  0.1971 -0.1772 -0.0496
 5677SOL    HW228757  12.932  13.356   2.544 -2.1852  0.0026  0.2666
 5678SOL     OW28758   0.406   2.805   0.377 -0.1173  0.1386 -0.1659
 5678SOL    HW128759   0.448   2.869   0.320 -1.2304  0.1181 -1.0309
 5678SOL    HW228760   0.431   2.720   0.340 -1.9713  0.1257 -1.5364
 5679SOL     OW28761   8.884   4.939   9.710 -0.3627 -0.3034 -0.2881
 5679SOL    HW128762   8.904   4.905   9.797 -0.7114  0.0726 -0.0593
 5679SOL    HW228763   8.796   4.976   9.718  0.3117  1.3575 -0.3261
 5680SOL     OW28764   0.879  11.636  11.993 -0.2015 -0.8513 -0.2599
 5680SOL    HW128765   0.911  11.722  12.018 -1.7929 -0.4685  0.5629
 5680SOL    HW228766   0.786  11.649  11.973 -0.7854 -2.5621  1.0565
 5681SOL     OW28767   3.650   8.047   8.009  0.6247 -0.9623 -0.2381
 5681SOL    HW128768   3.677   8.061   7.918  0.1711  0.5759 -0.1733
 5681SOL    HW228769   3.555   8.035   8.004 -0.2431  3.7034  0.2914
 5682SOL     OW28770  10.169  10.920   3.822 -0.0890 -0.2993 -0.0318
 5682SOL    HW128771  10.203  10.841   3.780  1.3492  1.3525 -2.2068
 5682SOL    HW228772  10.074  10.915   3.809 -0.1075 -1.9333  0.4771
 5683SOL     OW28773   4.730   0.572   3.251 -0.9725  0.0148  0.0802
 5683SOL    HW128774   4.754   0.555   3.342  0.1559 -0.5989 -0.3121
 5683SOL    HW228775   4.729   0.485   3.210  1.3177  0.4709 -1.1243
 5684SOL     OW28776   4.004   9.866   7.094 -0.2256  0.2675 -0.1749
 5684SOL    HW128777   4.056   9.939   7.059  0.4297 -0.1199 -0.0213
 5684SOL    HW228778   3.982   9.813   7.018 -1.1267  0.8719 -0.3590
 5685SOL     OW28779  13.430   0.010   8.363  0.3115 -0.1652 -0.3066
 5685SOL    HW128780  13.396  -0.004   8.452  1.5651 -0.5514  0.1373
 5685SOL    HW228781  13.524  -0.003   8.371  0.4042 -0.6013 -1.7884
 5686SOL     OW28782   6.427   8.734   6.611  0.2375  0.2510  0.7718
 5686SOL    HW128783   6.513   8.720   6.652  0.7005  0.0820 -0.2173
 5686SOL    HW228784   6.427   8.826   6.585  0.1172  0.2509  0.7709
 5687SOL     OW28785  13.596   2.017   7.770  0.3597 -0.0454  0.0531
 5687SOL    HW128786  13.618   1.963   7.694 -0.2411 -2.7173  1.6465
 5687SOL    HW228787  13.680   2.048   7.802  0.8540 -1.0705 -0.2021
 5688SOL     OW28788  12.322   7.508   5.434 -0.4002  0.5416  0.2909
 5688SOL    HW128789  12.231   7.524   5.411 -0.2734  1.9327  0.6744
 5688SOL    HW228790  12.371   7.581   5.395  0.6622 -0.5572 -0.5120
 5689SOL     OW28791  12.061   3.369  11.670 -0.3471 -0.1546  0.2583
 5689SOL    HW128792  12.002   3.365  11.746  0.0718 -0.1186  0.5901
 5689SOL    HW228793  12.094   3.458  11.670 -0.5958 -0.0602 -0.1634
 5690SOL     OW28794   3.233  13.547  11.593 -0.2999  0.2819  0.0949
 5690SOL    HW128795   3.259  13.456  11.597  1.4879  0.7495 -0.1466
 5690SOL    HW228796   3.314  13.596  11.607 -0.8396  1.8217 -1.7344
 5691SOL     OW28797   5.375  11.129  13.618  0.0587  0.1081 -0.0552
 5691SOL    HW128798   5.441  11.133  13.687  0.5405  2.5111 -0.5678
 5691SOL    HW228799   5.308  11.192  13.644 -1.5726 -1.5021 -0.0939
 5692SOL     OW28800  10.140   9.014   1.696 -0.4686 -0.1138 -0.3538
 5692SOL    HW128801  10.077   9.086   1.701  0.1913  0.4081  1.0618
 5692SOL    HW228802  10.091   8.937   1.726 -0.0359  0.6167  2.4977
 5693SOL     OW28803   6.255   2.043   3.349  0.0870  0.0451  0.1807
 5693SOL    HW128804   6.341   2.009   3.373 -0.4625 -0.1530  2.0489
 5693SOL    HW228805   6.273   2.130   3.313  1.1024 -0.1502  0.1905
 5694SOL     OW28806   5.560   5.381  13.017 -0.2639 -0.3243  0.2057
 5694SOL    HW128807   5.478   5.397  12.971  0.5837 -2.7836 -2.4621
 5694SOL    HW228808   5.569   5.455  13.077 -3.4970  0.9523 -0.6829
 5695SOL     OW28809   8.801  10.220  12.340  0.0916 -0.2245 -0.3490
 5695SOL    HW128810   8.730  10.253  12.285 -1.1089 -1.1609  0.5569
 5695SOL    HW228811   8.807  10.283  12.411  1.3426  0.7496 -1.2833
 5696SOL     OW28812   0.688  10.944   3.931  0.3299 -0.3800  0.3977
 5696SOL    HW128813   0.635  10.872   3.895 -0.2559 -0.5334  1.5293
 5696SOL    HW228814   0.775  10.905   3.942 -0.2776 -1.3739  2.2188
 5697SOL     OW28815   7.210   7.964  11.031 -0.1674 -1.0441  0.0971
 5697SOL    HW128816   7.223   8.059  11.034  1.6796 -1.1690 -1.5250
 5697SOL    HW228817   7.274   7.929  11.093  1.3139 -1.3005 -1.4951
 5698SOL     OW28818   3.042   3.639   1.377  0.2949 -0.1199 -0.5532
 5698SOL    HW128819   3.103   3.682   1.318 -0.9390 -0.9024 -2.4998
 5698SOL    HW228820   2.964   3.622   1.324 -1.1158 -0.3685  1.4622
 5699SOL     OW28821  12.041   1.656   1.184  0.5456 -0.0803  0.2424
 5699SOL    HW128822  12.033   1.623   1.095 -0.7542  0.2035  0.2382
 5699SOL    HW228823  11.952   1.653   1.219  0.9238  0.4641  1.2989
 5700SOL     OW28824   3.606   0.970  11.325 -0.2056  0.7073  0.5047
 5700SOL    HW128825   3.618   0.986  11.418 -2.9961 -3.8225  2.0126
 5700SOL    HW228826   3.662   0.894  11.306  0.2077  1.4468 -1.5365
 5701SOL     OW28827  10.221   2.279   3.845  0.6390  0.2718  0.1182
 5701SOL    HW128828  10.187   2.352   3.896  1.4236  0.5935  0.2013
 5701SOL    HW228829  10.144   2.227   3.823  0.1602  0.7264  0.6838
 5702SOL     OW28830   2.195   4.206   9.384 -0.2473 -0.0658  0.0931
 5702SOL    HW128831   2.230   4.120   9.406 -1.3626 -0.6649 -0.4245
 5702SOL    HW228832   2.181   4.248   9.469 -1.0841 -0.9711  0.4246
 5703SOL     OW28833   0.920  12.849   3.958 -0.1393 -0.2804  0.4374
 5703SOL    HW128834   0.894  12.817   4.044 -2.5985 -0.4932 -0.3219
 5703SOL    HW228835   0.864  12.924   3.942 -0.5558 -0.9352 -1.4349
 5704SOL     OW28836   8.111   2.654   0.372 -0.3827 -0.5201 -0.1576
 5704SOL    HW128837   8.133   2.698   0.454 -0.1334 -0.1522 -0.4183
 5704SOL    HW228838   8.048   2.586   0.397  1.7868 -2.2948  0.7809
 5705SOL     OW28839   8.114  12.267   7.605 -0.5900 -0.4167 -0.0719
 5705SOL    HW128840   8.033  12.298   7.645 -2.2919 -0.3500 -3.2261
 5705SOL    HW228841   8.178  12.334   7.625 -1.5624  0.0912  1.5774
 5706SOL     OW28842   9.546   7.651  12.271  0.6040 -0.4013  0.5684
 5706SOL    HW128843   9.533   7.687  12.183  0.0542  0.6279  1.0588
 5706SOL    HW228844   9.556   7.728  12.327  2.0089 -1.0603  1.2596
 5707SOL     OW28845  11.224   8.017  12.109 -0.3672  0.6562 -0.5482
 5707SOL    HW128846  11.180   7.933  12.096  1.4564 -0.7553  1.5370
 5707SOL    HW228847  11.314   8.003  12.078  0.4242  1.2289  1.2931
 5708SOL     OW28848  13.164   7.614   3.841  0.7007 -0.0844  0.2617
 5708SOL    HW128849  13.126   7.687   3.890  0.6834  1.2374 -1.6526
 5708SOL    HW228850  13.127   7.621   3.754 -2.3854 -4.7025  0.8657
 5709SOL     OW28851  10.348   6.818   8.780  0.1055  0.2011 -0.1429
 5709SOL    HW128852  10.302   6.738   8.804  1.0214 -0.5069 -0.6731
 5709SOL    HW228853  10.284   6.868   8.729 -1.4153  1.1293  2.4963
 5710SOL     OW28854   6.864   6.965  13.244  0.7883 -0.6780 -0.1044
 5710SOL    HW128855   6.821   6.985  13.327 -0.9613 -1.2159 -0.8383
 5710SOL    HW228856   6.947   6.924  13.269  0.7661  0.1056  1.3626
 5711SOL     OW28857   8.580  13.332   9.966  0.2867  0.6076 -0.4432
 5711SOL    HW128858   8.623  13.330   9.880 -0.4534 -0.9253 -0.8127
 5711SOL    HW228859   8.495  13.374   9.949 -0.7364 -1.5425 -0.9412
 5712SOL     OW28860  10.766   1.788   4.344  0.1445 -0.3807  0.1302
 5712SOL    HW128861  10.843   1.731   4.337  1.7196  1.5863  0.6375
 5712SOL    HW228862  10.797   1.864   4.394 -2.6558 -0.3691  2.0463
 5713SOL     OW28863   9.541   3.534  10.580  0.4082  0.9933 -0.2715
 5713SOL    HW128864   9.481   3.462  10.562 -0.1650  1.3224  0.2686
 5713SOL    HW228865   9.489   3.613  10.566  1.0533  1.3174 -0.9406
 5714SOL     OW28866   1.508  10.528   8.007  0.3562 -0.0389  0.3070
 5714SOL    HW128867   1.587  10.488   7.971 -0.8595 -1.6302 -0.7306
 5714SOL    HW228868   1.529  10.546   8.098  1.5251 -1.5484  0.3691
 5715SOL     OW28869  11.975   0.942   5.619  0.2291  0.4103  0.1153
 5715SOL    HW128870  11.931   0.924   5.702  0.3216 -0.2273  0.0320
 5715SOL    HW228871  11.907   0.982   5.564 -0.5946 -1.5440 -0.3773
 5716SOL     OW28872  12.731   3.042  13.324 -0.7889 -0.2610  0.1015
 5716SOL    HW128873  12.815   3.024  13.281 -0.1494  0.2233  1.1072
 5716SOL    HW228874  12.669   3.053  13.252  0.2044  0.2992 -0.6937
 5717SOL     OW28875   8.799   0.203   4.259 -0.6554 -0.8067 -0.3212
 5717SOL    HW128876   8.872   0.207   4.196 -0.8419 -1.2672 -0.5701
 5717SOL    HW228877   8.841   0.207   4.345 -0.3369 -1.0099 -0.4657
 5718SOL     OW28878   3.278   4.783   4.302  0.4353  0.2920 -1.1268
 5718SOL    HW128879   3.284   4.780   4.397 -0.0370 -0.6740 -1.1133
 5718SOL    HW228880   3.193   4.743   4.282  0.9430 -0.3832 -1.9974
 5719SOL     OW28881  13.719   0.374   3.716 -0.4138  0.0473 -0.6080
 5719SOL    HW128882  13.796   0.394   3.663 -0.6421  2.5261 -0.1524
 5719SOL    HW228883  13.654   0.342   3.653 -0.0047  0.9380 -1.5148
 5720SOL     OW28884   2.076  13.701   8.674 -0.0902  0.5318  0.2404
 5720SOL    HW128885   2.105  13.788   8.704  0.9332  1.1888 -2.3293
 5720SOL    HW228886   2.151  13.644   8.690  0.2195  0.7434 -0.3920
 5721SOL     OW28887   8.135   3.713  11.573 -0.5839 -0.0366  0.3160
 5721SOL    HW128888   8.212   3.740  11.523 -0.6090  0.1818  0.3943
 5721SOL    HW228889   8.074   3.681  11.508 -0.3217 -0.4624  0.2785
 5722SOL     OW28890   3.245   0.730  12.808 -0.7602 -0.1664  0.1469
 5722SOL    HW128891   3.168   0.733  12.751 -2.3264 -1.4232  2.0759
 5722SOL    HW228892   3.238   0.807  12.863  0.1350  0.4306 -0.5343
 5723SOL     OW28893   9.292   7.393   5.917  0.1601  0.8656  0.0140
 5723SOL    HW128894   9.218   7.455   5.918 -0.2143  0.4246  1.0255
 5723SOL    HW228895   9.251   7.307   5.910  0.5207  0.5663  1.3366
 5724SOL     OW28896   2.972  13.232  11.295  0.5262  0.3246  0.3382
 5724SOL    HW128897   3.000  13.254  11.206  0.7311 -1.3101 -0.0242
 5724SOL    HW228898   2.877  13.247  11.294  0.6632  1.2985  0.1767
 5725SOL     OW28899   4.474  13.736   1.018 -0.4008  0.2363  0.1139
 5725SOL    HW128900   4.518  13.758   1.100 -1.6996  3.1761  0.1408
 5725SOL    HW228901   4.437  13.649   1.034 -0.3507  0.5794  2.5395
 5726SOL     OW28902   8.363   5.412   2.926 -0.1171 -0.1187  0.7385
 5726SOL    HW128903   8.295   5.364   2.877  1.4934 -1.4877 -0.2720
 5726SOL    HW228904   8.388   5.484   2.868 -0.1462 -0.0914  0.7599
 5727SOL     OW28905   2.511   2.705   6.483 -0.2222  0.0602 -0.1773
 5727SOL    HW128906   2.510   2.800   6.495 -0.1124  0.6202 -3.5657
 5727SOL    HW228907   2.435   2.673   6.533  0.8013  1.6034  2.5439
 5728SOL     OW28908  10.051   1.835   5.121  0.1215  0.7221  0.1556
 5728SOL    HW128909  10.088   1.863   5.204  1.2907 -1.7967  0.5802
 5728SOL    HW228910  10.107   1.874   5.054  0.4853  1.0212  0.6381
 5729SOL     OW28911   9.386   7.658   8.005 -0.0962 -1.2100  0.4072
 5729SOL    HW128912   9.347   7.648   7.919  0.2512  1.1694 -0.1019
 5729SOL    HW228913   9.479   7.670   7.988 -0.3746  2.3845  0.7332
 5730SOL     OW28914   5.725   1.323   9.009 -0.2642 -0.2533 -0.5433
 5730SOL    HW128915   5.768   1.276   9.080  0.3885 -0.2321 -0.9204
 5730SOL    HW228916   5.652   1.267   8.984 -0.8181 -0.0265  0.4792
 5731SOL     OW28917   8.022   1.960   8.585 -0.3456 -0.3059  0.2688
 5731SOL    HW128918   7.988   1.924   8.667 -1.2319  0.6228  0.3177
 5731SOL    HW228919   8.117   1.948   8.592 -0.5234 -1.7512  0.6889
 5732SOL     OW28920  13.501   7.457   3.835  0.2567 -0.0782  0.1126
 5732SOL    HW128921  13.540   7.529   3.787  4.1443 -1.3704  0.9605
 5732SOL    HW228922  13.444   7.499   3.900 -0.6053  1.9272 -1.8480
 5733SOL     OW28923  13.596  10.333   6.250  0.1507 -0.3489  0.3316
 5733SOL    HW128924  13.628  10.398   6.312  0.8477  0.8296 -1.2083
 5733SOL    HW228925  13.585  10.380   6.167 -1.7240 -1.6334 -0.2370
 5734SOL     OW28926   0.104   4.977   2.655 -0.4608  0.2751  0.1017
 5734SOL    HW128927   0.059   5.037   2.715  0.6240  0.8113  0.3952
 5734SOL    HW228928   0.197   4.993   2.670 -0.1594  0.3982 -1.6803
 5735SOL     OW28929   5.657  13.601   6.012  0.0417 -0.0909  0.0141
 5735SOL    HW128930   5.665  13.670   6.078 -0.1483 -1.8520  1.9950
 5735SOL    HW228931   5.746  13.567   6.002 -0.0220 -0.1844 -0.2227
 5736SOL     OW28932   1.429   1.010  11.808  0.3223 -0.1810  0.6811
 5736SOL    HW128933   1.353   1.026  11.752 -1.1141 -1.1526  2.2701
 5736SOL    HW228934   1.464   0.926  11.778  1.3613  0.6835 -0.6362
 5737SOL     OW28935   1.970   7.349  11.491  0.0747 -0.1322 -0.3393
 5737SOL    HW128936   2.026   7.273  11.473 -0.3838 -0.0242 -2.4576
 5737SOL    HW228937   2.016   7.397  11.559  0.9517 -1.7024  0.2260
 5738SOL     OW28938   3.555  13.419   9.359  0.0483 -0.2473 -0.5863
 5738SOL    HW128939   3.638  13.372   9.351 -1.4468 -3.0545 -0.9284
 5738SOL    HW228940   3.519  13.419   9.270 -0.4379  0.7728 -0.4091
 5739SOL     OW28941   6.629   7.874   4.368  0.3670  0.3946  0.1184
 5739SOL    HW128942   6.603   7.865   4.276  1.5908  1.3579 -0.3476
 5739SOL    HW228943   6.692   7.804   4.382 -2.5645 -2.2398  1.3798
 5740SOL     OW28944   0.236   8.183   5.037  0.2155  0.2000 -0.2781
 5740SOL    HW128945   0.276   8.199   5.122 -0.4785  0.0938  0.0742
 5740SOL    HW228946   0.149   8.147   5.057 -0.0496  0.3970 -1.0222
 5741SOL     OW28947   6.878   6.698   6.510 -0.0921 -0.3568  0.3358
 5741SOL    HW128948   6.819   6.651   6.451 -0.3728 -0.1815  0.4761
 5741SOL    HW228949   6.953   6.640   6.521 -0.2609 -0.5997  0.1939
 5742SOL     OW28950   4.101   4.798  12.049 -0.1561 -0.0670  0.4263
 5742SOL    HW128951   4.171   4.854  12.016  0.1957  0.1721  1.5593
 5742SOL    HW228952   4.083   4.831  12.137 -0.8603 -0.8980  0.6066
 5743SOL     OW28953   1.620   6.877   8.648  0.6482 -0.6977 -0.3698
 5743SOL    HW128954   1.614   6.962   8.605 -0.1098  0.4369  1.8274
 5743SOL    HW228955   1.689   6.831   8.600  0.0327  0.5256 -2.5886
 5744SOL     OW28956   1.835  11.513   7.250 -0.1851 -0.7198  0.2742
 5744SOL    HW128957   1.782  11.481   7.323  1.0178  1.0626  2.0382
 5744SOL    HW228958   1.807  11.603   7.238  2.6573  0.4500  1.6035
 5745SOL     OW28959   6.615   0.164   3.227  0.1233 -0.1528  0.3096
 5745SOL    HW128960   6.629   0.197   3.315  0.6455  1.2520 -0.2573
 5745SOL    HW228961   6.521   0.177   3.211  0.2655  0.8397  0.2050
 5746SOL     OW28962   6.431   0.180   9.596  0.0070  0.4002 -0.6801
 5746SOL    HW128963   6.377   0.240   9.647  0.0556 -0.5178  0.4922
 5746SOL    HW228964   6.416   0.206   9.505 -0.5919  1.6543 -0.2515
 5747SOL     OW28965   4.197  11.394  13.409 -0.3038  0.2458  0.2688
 5747SOL    HW128966   4.146  11.341  13.348 -0.7100  1.6112 -0.6280
 5747SOL    HW228967   4.214  11.475  13.362  0.2738  0.9361  1.6045
 5748SOL     OW28968   4.130  11.197  10.501  0.7243 -0.6361 -0.1943
 5748SOL    HW128969   4.066  11.127  10.493 -0.5559  0.4547  0.0434
 5748SOL    HW228970   4.121  11.227  10.592  1.2391 -0.1635 -0.2915
 5749SOL     OW28971   4.331   7.292  11.732  0.1734  0.3725 -0.1739
 5749SOL    HW128972   4.399   7.351  11.699 -0.9899  0.8282 -1.8793
 5749SOL    HW228973   4.311   7.235  11.658 -0.2489 -0.7694  0.7887
 5750SOL     OW28974  10.419   9.875  10.515  0.0107  0.1532  0.5036
 5750SOL    HW128975  10.399   9.859  10.607 -0.1879 -0.8495  0.2985
 5750SOL    HW228976  10.514   9.864  10.508  0.1290  0.9865  0.7270
 5751SOL     OW28977   2.690   9.103  12.609  0.2953  0.3097 -0.8483
 5751SOL    HW128978   2.624   9.065  12.667  0.1708  0.5877 -0.8086
 5751SOL    HW228979   2.751   9.031  12.592 -0.4450 -0.1722 -1.5227
 5752SOL     OW28980  12.932   8.245   2.136  0.2327 -0.3534  0.0361
 5752SOL    HW128981  12.838   8.263   2.141  0.4331  1.2139 -0.9913
 5752SOL    HW228982  12.938   8.152   2.116 -1.2361  0.0405 -2.7635
 5753SOL     OW28983   4.729  11.140   6.508  0.2023 -0.0680 -0.0810
 5753SOL    HW128984   4.726  11.048   6.534 -0.5549  0.3446  1.4185
 5753SOL    HW228985   4.663  11.182   6.563  2.5880  1.9009  1.4456
 5754SOL     OW28986   3.482   2.867   3.849 -0.6307 -0.2854 -0.0824
 5754SOL    HW128987   3.389   2.889   3.839 -0.5006 -0.1629 -1.1422
 5754SOL    HW228988   3.497   2.870   3.943 -1.5904  0.1738  0.0718
 5755SOL     OW28989  13.240   8.197   3.632 -0.7282  0.1273  0.4320
 5755SOL    HW128990  13.164   8.254   3.620  0.0929  1.2783  0.5888
 5755SOL    HW228991  13.282   8.230   3.712  0.7218  0.4289 -0.4148
 5756SOL     OW28992  10.510  13.126   2.436 -0.2686  0.1878  0.3982
 5756SOL    HW128993  10.446  13.127   2.507  0.1720  0.0165  0.8028
 5756SOL    HW228994  10.578  13.066   2.465  0.7304  1.3509  0.5676
 5757SOL     OW28995  13.488   2.709   1.363  0.1720 -0.2857 -0.0678
 5757SOL    HW128996  13.444   2.723   1.279 -1.1603  1.7416  0.8999
 5757SOL    HW228997  13.436   2.639   1.405  1.1785 -1.7107 -1.0913
 5758SOL     OW28998   5.449  12.262  11.671 -0.5444 -0.6423  0.0636
 5758SOL    HW128999   5.510  12.319  11.718  1.0392 -1.8189 -0.5176
 5758SOL    HW229000   5.484  12.256  11.583 -3.4679  1.5144 -1.4212
 5759SOL     OW29001   5.112   2.517   9.999  0.0618  0.5516  0.4275
 5759SOL    HW129002   5.151   2.430  10.010 -2.0027 -0.3394  1.0890
 5759SOL    HW229003   5.051   2.508   9.926  1.3317  2.0519 -0.9187
 5760SOL     OW29004   0.223   3.577  10.561 -0.1257 -0.5342  0.8348
 5760SOL    HW129005   0.296   3.526  10.527  0.0364 -0.1680  0.6270
 5760SOL    HW229006   0.264   3.654  10.601 -0.4636  0.3662 -0.4971
 5761SOL     OW29007   4.184  13.715  12.860 -0.6281 -0.0886 -0.1157
 5761SOL    HW129008   4.218  13.653  12.795 -1.3479  0.2670 -0.8486
 5761SOL    HW229009   4.192  13.800  12.818  0.7991  0.4069  1.0731
 5762SOL     OW29010  12.657   1.548   6.688 -0.4502  0.2075 -0.7123
 5762SOL    HW129011  12.674   1.640   6.667  0.5291  0.1882 -0.0819
 5762SOL    HW229012  12.589   1.521   6.626 -1.2521  1.5461 -0.4477
 5763SOL     OW29013   1.628  12.348   8.355  0.6016 -0.1591  0.6786
 5763SOL    HW129014   1.721  12.341   8.374  0.9446 -1.7013 -1.2087
 5763SOL    HW229015   1.624  12.365   8.261 -1.0246  0.0123  0.7439
 5764SOL     OW29016   2.508   7.729   4.065 -0.1941  0.0459  0.2282
 5764SOL    HW129017   2.529   7.730   3.971 -1.9395  1.0453 -0.1999
 5764SOL    HW229018   2.558   7.803   4.101  0.2752 -0.1746  0.0415
 5765SOL     OW29019   8.360  11.712   1.996 -0.5197 -0.2848  0.4394
 5765SOL    HW129020   8.374  11.797   2.038 -0.8437 -0.7617  1.5642
 5765SOL    HW229021   8.266  11.707   1.982 -0.4360 -0.2225 -0.1485
 5766SOL     OW29022   6.264   2.085   7.218  0.1377 -0.5775  0.3908
 5766SOL    HW129023   6.234   2.012   7.272 -0.3207 -1.2376 -0.7470
 5766SOL    HW229024   6.219   2.161   7.256  0.9239 -0.7824  1.8272
 5767SOL     OW29025   2.226   0.554   9.226 -0.7858 -0.3265 -0.3463
 5767SOL    HW129026   2.212   0.492   9.154 -0.3991  0.1415 -0.8230
 5767SOL    HW229027   2.262   0.500   9.297 -0.6860 -0.6971 -0.6761
 5768SOL     OW29028   0.468  12.576   2.903 -0.8146 -0.6534 -0.0564
 5768SOL    HW129029   0.403  12.609   2.842  0.1521  1.7844  0.1382
 5768SOL    HW229030   0.492  12.490   2.868 -0.1813  0.6845 -3.2837
 5769SOL     OW29031   2.783   6.684   5.671  0.1992  0.5357  0.2586
 5769SOL    HW129032   2.801   6.669   5.578  0.5606 -0.9395  0.5382
 5769SOL    HW229033   2.855   6.641   5.717  0.4129  1.8602  1.2243
 5770SOL     OW29034  11.768   4.631   9.830  0.0755 -0.3284 -0.3251
 5770SOL    HW129035  11.863   4.626   9.817  0.3969  1.4649  0.9679
 5770SOL    HW229036  11.757   4.645   9.924 -1.3600  1.4066 -0.6941
 5771SOL     OW29037   8.223   2.627   3.620 -0.0933  0.0270 -0.3937
 5771SOL    HW129038   8.207   2.696   3.685  0.1069  0.3854 -0.7257
 5771SOL    HW229039   8.171   2.654   3.544  0.1695 -0.0689 -0.6059
 5772SOL     OW29040   4.058   7.018   5.399 -0.1816 -0.4927 -0.0946
 5772SOL    HW129041   3.983   7.011   5.458 -1.2973 -0.7116 -1.4897
 5772SOL    HW229042   4.100   6.931   5.402 -0.2100 -0.4922  0.3790
 5773SOL     OW29043   7.565   4.116   6.002 -0.0958  0.7052 -0.7519
 5773SOL    HW129044   7.485   4.158   5.970 -1.0301  1.1252  1.8750
 5773SOL    HW229045   7.605   4.078   5.924 -4.2264 -1.9158 -1.8970
 5774SOL     OW29046  12.668  11.253  10.540 -0.2408 -0.3473 -0.2128
 5774SOL    HW129047  12.573  11.263  10.533 -0.2100  0.1295 -0.0228
 5774SOL    HW229048  12.683  11.232  10.632 -0.1566 -0.3303 -0.2220
 5775SOL     OW29049   3.808   9.379   0.903  0.3395  0.4250 -0.5739
 5775SOL    HW129050   3.776   9.406   0.817 -1.2962  0.3529 -0.0237
 5775SOL    HW229051   3.869   9.449   0.929 -1.1359  1.7995 -0.6933
 5776SOL     OW29052   9.877   1.536   3.310  0.0300 -0.3454 -0.4111
 5776SOL    HW129053   9.939   1.574   3.373 -1.0555  0.7957  0.0050
 5776SOL    HW229054   9.793   1.575   3.333 -0.7836 -1.5803 -1.2104
 5777SOL     OW29055   4.583   1.611   7.564  0.0609 -0.3262 -0.0881
 5777SOL    HW129056   4.676   1.627   7.547  0.4703 -1.4055  1.0142
 5777SOL    HW229057   4.549   1.579   7.480  0.7490 -0.2285 -0.4178
 5778SOL     OW29058   2.047  11.986   6.228  0.8334 -0.5059  0.0744
 5778SOL    HW129059   2.067  12.070   6.187 -0.9476  0.2290  0.6551
 5778SOL    HW229060   2.023  11.929   6.155 -1.9163  0.6795 -0.0725
 5779SOL     OW29061   9.895   8.647   2.480  0.1509  0.2796  0.1682
 5779SOL    HW129062   9.925   8.557   2.468 -1.9028 -0.2490 -1.7655
 5779SOL    HW229063   9.974   8.700   2.475  1.2897 -1.3399  0.2412
 5780SOL     OW29064   9.064   2.819   0.929  0.6371 -0.0888  0.3440
 5780SOL    HW129065   8.978   2.841   0.893  1.4876  1.6209 -0.7694
 5780SOL    HW229066   9.084   2.733   0.891  0.0095  0.1237 -0.5032
 5781SOL     OW29067   9.364  12.295   7.976  0.4806  0.4505 -0.5052
 5781SOL    HW129068   9.345  12.294   7.882 -0.1223 -0.1868 -0.3848
 5781SOL    HW229069   9.279  12.286   8.018  0.8473 -0.3526  0.0894
 5782SOL     OW29070   9.003   1.823  11.917  0.2368 -0.1335  0.4083
 5782SOL    HW129071   9.083   1.793  11.961  0.3577 -1.2199 -0.4956
 5782SOL    HW229072   8.933   1.794  11.975  0.4743  0.5189  1.0357
 5783SOL     OW29073   7.159  10.786   0.841 -0.9112  0.2256  0.0479
 5783SOL    HW129074   7.169  10.695   0.813 -0.2572  0.1496  0.5132
 5783SOL    HW229075   7.076  10.814   0.802 -1.9145 -1.0492  1.1652
 5784SOL     OW29076   1.650   5.654   0.480  0.3314  0.1586 -0.3408
 5784SOL    HW129077   1.650   5.748   0.496  0.1363 -0.0068  0.7076
 5784SOL    HW229078   1.567   5.637   0.435  0.9060  0.6446 -1.6132
 5785SOL     OW29079   7.066   5.603  12.998  0.0388  0.5438  0.3973
 5785SOL    HW129080   7.003   5.558  12.942  0.8139 -0.5263  0.3606
 5785SOL    HW229081   7.072   5.691  12.962  0.1001  0.0419 -0.8392
 5786SOL     OW29082  13.073   8.844   7.350  0.0428  0.4667  0.0799
 5786SOL    HW129083  13.109   8.914   7.295  0.6849 -1.4368 -2.0604
 5786SOL    HW229084  13.148   8.786   7.366 -0.5572  0.0411  1.5213
 5787SOL     OW29085  12.109   9.559   9.577 -0.1112  0.6706 -0.7502
 5787SOL    HW129086  12.154   9.529   9.656  0.7863  0.5715 -1.2817
 5787SOL    HW229087  12.076   9.478   9.537  0.6267  0.5758 -1.1810
 5788SOL     OW29088  13.544   4.878   4.425 -0.5873  0.3512 -0.0228
 5788SOL    HW129089  13.573   4.955   4.473 -1.0264  0.5015  0.0064
 5788SOL    HW229090  13.531   4.811   4.492 -0.7104  0.4096  0.0118
 5789SOL     OW29091   7.815  13.683   3.886  0.1780  0.3787  0.1917
 5789SOL    HW129092   7.791  13.759   3.939 -0.4174  0.0653  0.3824
 5789SOL    HW229093   7.904  13.701   3.857 -0.0980  1.3424 -0.0976
 5790SOL     OW29094   3.719   0.762   1.419 -0.0445 -0.1267  0.1178
 5790SOL    HW129095   3.800   0.713   1.405 -0.6446 -0.6242 -1.8915
 5790SOL    HW229096   3.741   0.852   1.393 -0.2201 -0.3384 -0.7880
 5791SOL     OW29097  10.773   7.469   2.653 -0.0277 -0.3794 -0.1289
 5791SOL    HW129098  10.723   7.396   2.689 -1.0971 -1.0172 -2.6503
 5791SOL    HW229099  10.738   7.546   2.698 -1.5126 -1.0702 -0.0298
 5792SOL     OW29100   5.234  12.437  11.693  0.2456 -0.3240 -0.1683
 5792SOL    HW129101   5.297  12.368  11.674 -0.2174 -0.9179  0.4009
 5792SOL    HW229102   5.284  12.519  11.682  0.3550 -0.6498 -2.4822
 5793SOL     OW29103   9.997   2.959  11.675 -0.3866  0.2502 -0.0002
 5793SOL    HW129104  10.009   2.884  11.733 -0.7216  0.5783  0.4965
 5793SOL    HW229105  10.043   3.030  11.718  0.7806  0.1122 -0.9528
 5794SOL     OW29106   4.171   3.030   4.861  0.0300 -0.1936 -0.1191
 5794SOL    HW129107   4.118   3.095   4.908  1.0255 -0.3435  1.2541
 5794SOL    HW229108   4.122   3.014   4.780 -1.1465  0.9304  0.3324
 5795SOL     OW29109   1.238  10.824   4.339  0.0507 -0.2118  0.5646
 5795SOL    HW129110   1.215  10.748   4.286  0.4880  0.8374 -1.2535
 5795SOL    HW229111   1.212  10.899   4.285  1.3245  0.9399  1.4667
 5796SOL     OW29112  13.560   6.253   1.579 -0.3109 -0.6126 -0.3932
 5796SOL    HW129113  13.532   6.286   1.493  0.2214  1.3670  0.1253
 5796SOL    HW229114  13.648   6.218   1.563 -0.5333 -0.9907 -0.8090
 5797SOL     OW29115  10.723   1.682  10.255 -0.7222  0.4807 -0.5443
 5797SOL    HW129116  10.796   1.704  10.312 -1.7381  0.3805  0.8219
 5797SOL    HW229117  10.761   1.622  10.190  0.6841  1.4485 -0.6706
 5798SOL     OW29118   3.415   1.170   8.778 -0.6586 -0.4683  0.1507
 5798SOL    HW129119   3.432   1.151   8.870  0.3761 -2.7150 -0.4365
 5798SOL    HW229120   3.322   1.151   8.766 -0.6580 -0.7642  0.5973
 5799SOL     OW29121  11.587   6.154  10.605 -0.0196  0.4457  0.7736
 5799SOL    HW129122  11.676   6.147  10.572  0.0343  2.4726  0.3541
 5799SOL    HW229123  11.532   6.149  10.527 -0.1940  0.5183  0.8918
 5800SOL     OW29124   8.130   9.066  10.295  0.0156 -0.2423  0.0987
 5800SOL    HW129125   8.218   9.062  10.256  0.2783  1.8677  0.3359
 5800SOL    HW229126   8.129   9.150  10.342 -1.6508 -0.8935  1.3126
 5801SOL     OW29127   9.720   6.935  10.355  0.5721  0.3685  0.3713
 5801SOL    HW129128   9.807   6.925  10.393  0.8720  2.2927  0.2958
 5801SOL    HW229129   9.660   6.914  10.427  0.9800 -2.7886 -0.0628
 5802SOL     OW29130   5.054   8.017   0.849  0.3784 -0.2749  0.1452
 5802SOL    HW129131   5.049   8.111   0.833  1.0429  0.4202  3.3226
 5802SOL    HW229132   5.148   8.001   0.865  0.3903 -1.6666 -1.0907
 5803SOL     OW29133   3.542  10.577   7.795  0.0513  0.3322  0.3810
 5803SOL    HW129134   3.596  10.649   7.762  0.5061  0.4682  1.3800
 5803SOL    HW229135   3.499  10.612   7.872  2.0588 -1.0956  2.2640
 5804SOL     OW29136   3.913   8.671  12.629 -0.3873 -0.3668 -0.4598
 5804SOL    HW129137   3.883   8.615  12.558 -2.9128 -0.7381  0.7631
 5804SOL    HW229138   3.895   8.620  12.708  2.5969 -0.1005  0.5229
 5805SOL     OW29139  10.162   5.121  12.751  0.4054 -0.8953  0.0081
 5805SOL    HW129140  10.205   5.164  12.825  0.5981  0.5625 -0.9292
 5805SOL    HW229141  10.199   5.033  12.750  2.0286 -0.2478  0.3211
 5806SOL     OW29142   7.432   9.594   4.535  0.2269 -0.0108 -0.2194
 5806SOL    HW129143   7.474   9.558   4.614  0.7454 -0.0933 -0.5295
 5806SOL    HW229144   7.486   9.669   4.511 -0.8913  1.0659  0.4650
 5807SOL     OW29145   1.433   4.210   1.443 -0.0476 -0.7253 -0.1892
 5807SOL    HW129146   1.407   4.287   1.493 -0.7709 -0.5638 -0.7940
 5807SOL    HW229147   1.439   4.242   1.353 -0.2346 -1.3506 -0.4269
 5808SOL     OW29148   7.362   8.285   7.085 -0.2363 -0.1002 -0.2605
 5808SOL    HW129149   7.322   8.349   7.143 -0.8768 -1.2953  0.6569
 5808SOL    HW229150   7.305   8.208   7.090  0.4533 -0.7250 -1.4049
 5809SOL     OW29151   6.830   7.373   6.608 -0.3862  0.2333 -0.1745
 5809SOL    HW129152   6.736   7.379   6.626  0.0029  0.3981  2.0374
 5809SOL    HW229153   6.865   7.319   6.679  1.3693  1.2191 -0.2364
 5810SOL     OW29154   7.383  10.804   5.289  0.2956  0.2614  0.4729
 5810SOL    HW129155   7.452  10.751   5.249 -0.2570 -0.5248  0.5439
 5810SOL    HW229156   7.336  10.842   5.215  0.5470  0.4623  0.4166
 5811SOL     OW29157   1.048   4.471   9.241  0.0857  0.0968  0.0716
 5811SOL    HW129158   0.983   4.413   9.202 -0.5256  1.3980 -0.9246
 5811SOL    HW229159   1.124   4.466   9.182 -0.7864  1.9540 -1.3260
 5812SOL     OW29160  10.409  10.764   6.899 -0.1760 -0.0084  0.7435
 5812SOL    HW129161  10.371  10.852   6.895 -0.5416 -0.1266  1.4120
 5812SOL    HW229162  10.333  10.706   6.910  0.1691 -0.2610  1.9595
 5813SOL     OW29163   6.325   2.982   9.793 -0.4737  0.8151  0.4718
 5813SOL    HW129164   6.398   2.946   9.743 -2.6776 -2.2747 -0.8816
 5813SOL    HW229165   6.351   3.072   9.814  3.1437  0.2391 -0.9000
 5814SOL     OW29166   0.908   4.863  11.934  0.5840 -0.0163 -0.8553
 5814SOL    HW129167   0.911   4.767  11.930 -0.3485 -0.0420 -1.2193
 5814SOL    HW229168   0.870   4.882  12.020  1.5379  0.0548 -0.4398
 5815SOL     OW29169   7.640   3.519   8.845 -0.2500  0.3360 -0.2823
 5815SOL    HW129170   7.554   3.534   8.805  0.1416  1.9616 -0.5926
 5815SOL    HW229171   7.689   3.468   8.781 -1.3248 -1.6268  0.3770
 5816SOL     OW29172  12.701   0.188   0.710 -0.1603  0.3002  0.0685
 5816SOL    HW129173  12.793   0.216   0.714 -0.4219  2.0750 -3.0638
 5816SOL    HW229174  12.704   0.105   0.663 -0.1201 -0.1039  0.7721
 5817SOL     OW29175   6.291   8.506   3.638  0.2355 -0.0335  0.6792
 5817SOL    HW129176   6.309   8.588   3.592 -0.6835  2.6561  4.6240
 5817SOL    HW229177   6.206   8.477   3.604 -0.2125  1.5738  0.3626
 5818SOL     OW29178   6.339   4.012  11.288  0.3832  0.2587 -0.0837
 5818SOL    HW129179   6.393   4.015  11.367  0.9383  0.9888 -0.4717
 5818SOL    HW229180   6.384   3.950  11.231  0.5374  0.4836 -0.2092
 5819SOL     OW29181   1.122   3.079   6.683 -0.3783 -0.3018 -0.3474
 5819SOL    HW129182   1.099   3.086   6.590  2.1459 -1.3252 -1.1295
 5819SOL    HW229183   1.103   2.988   6.705  1.3943 -0.7762 -0.6282
 5820SOL     OW29184   5.182  12.709   6.432  0.0323 -0.3244  0.0558
 5820SOL    HW129185   5.198  12.684   6.341 -0.2051 -1.9258  0.4259
 5820SOL    HW229186   5.267  12.736   6.465 -0.3052  2.8480 -1.3346
 5821SOL     OW29187   2.173  12.001   1.447  0.1496  0.0533 -0.3336
 5821SOL    HW129188   2.138  11.913   1.457  2.3082 -0.6742  1.3004
 5821SOL    HW229189   2.265  11.994   1.469  0.2808  2.8271  0.3666
 5822SOL     OW29190   6.519   2.850   1.569  0.3883  0.8481  0.4817
 5822SOL    HW129191   6.446   2.791   1.590  0.5478 -0.5306 -2.3915
 5822SOL    HW229192   6.593   2.814   1.619 -0.6281  1.8786  2.9088
 5823SOL     OW29193  13.310   6.061   4.796  0.2012 -0.3201 -0.5976
 5823SOL    HW129194  13.391   6.106   4.772  0.0252  0.2375 -0.1696
 5823SOL    HW229195  13.335   5.968   4.802  0.7690 -0.1746 -0.6263
 5824SOL     OW29196   5.274  12.799   8.692 -0.0109 -0.0728 -0.3378
 5824SOL    HW129197   5.323  12.814   8.772 -0.2432 -1.1270  0.0290
 5824SOL    HW229198   5.293  12.874   8.637  1.3427 -0.0536  0.1170
 5825SOL     OW29199   2.156  11.056  13.651  0.9281 -0.6074 -0.0347
 5825SOL    HW129200   2.128  11.128  13.594 -0.7795 -1.0648  0.1994
 5825SOL    HW229201   2.170  10.983  13.591  0.5270 -0.6896 -0.0292
 5826SOL     OW29202   7.519  12.067   1.685 -0.4451  0.7396 -0.6903
 5826SOL    HW129203   7.462  12.026   1.750  1.4946 -1.1548 -0.0658
 5826SOL    HW229204   7.598  12.090   1.734  0.4164  0.7552 -2.0499
 5827SOL     OW29205   3.578  12.231   9.245  0.0571 -0.0640  0.4225
 5827SOL    HW129206   3.492  12.214   9.282  0.8018 -2.8789  1.0793
 5827SOL    HW229207   3.565  12.229   9.150 -0.7276  0.4676  0.5150
 5828SOL     OW29208   8.788   0.014   9.100 -0.2806  0.7395  0.5909
 5828SOL    HW129209   8.827  -0.073   9.091  0.0600  0.9434  0.0111
 5828SOL    HW229210   8.808   0.040   9.190 -0.6021  0.1181  0.8461
 5829SOL     OW29211  12.116   4.056   9.284 -0.4278  0.1562  0.0590
 5829SOL    HW129212  12.175   4.085   9.353  1.3320  1.1606 -1.7592
 5829SOL    HW229213  12.118   3.960   9.288  1.9372  0.1271 -0.3596
 5830SOL     OW29214  13.628   1.035   8.626  0.5083 -0.3415  0.1257
 5830SOL    HW129215  13.599   0.948   8.654  1.3475 -0.3524  1.0133
 5830SOL    HW229216  13.659   1.077   8.706 -0.4210  1.0061 -0.1945
 5831SOL     OW29217   1.572   5.497   4.989 -0.1325  0.1138  0.4887
 5831SOL    HW129218   1.542   5.406   4.991 -1.3261  0.3988 -1.2181
 5831SOL    HW229219   1.496   5.548   5.017 -0.3384  0.6873 -0.9867
 5832SOL     OW29220  10.321   6.210  11.715 -0.0397 -0.2812  0.0231
 5832SOL    HW129221  10.369   6.220  11.797  1.5747  3.2095 -1.1497
 5832SOL    HW229222  10.230   6.228  11.738 -0.1366 -2.2686  1.4538
 5833SOL     OW29223   0.814   1.029   4.446 -0.3735  0.0038  0.1575
 5833SOL    HW129224   0.853   1.023   4.533  1.9827 -1.7673 -0.8918
 5833SOL    HW229225   0.734   0.978   4.451  0.1411 -0.7413  1.1290
 5834SOL     OW29226   6.661   7.828  12.554  0.1293  0.6466  0.2823
 5834SOL    HW129227   6.578   7.804  12.595 -0.2139  1.5802  0.1633
 5834SOL    HW229228   6.702   7.745  12.532 -0.5266  0.1651  0.8389
 5835SOL     OW29229  11.373   7.782  10.367 -0.0851  0.2563  0.2382
 5835SOL    HW129230  11.393   7.731  10.446 -1.1980 -0.9728 -0.2267
 5835SOL    HW229231  11.288   7.823  10.386 -0.2801  0.0863 -0.2480
 5836SOL     OW29232   2.532   9.401   9.457 -0.4413  0.4051 -0.5565
 5836SOL    HW129233   2.505   9.438   9.541  0.0869 -0.2462 -0.0909
 5836SOL    HW229234   2.560   9.477   9.405 -1.8176  0.9383 -0.5662
 5837SOL     OW29235   1.106   0.070   0.479  0.8175 -0.2427 -0.5456
 5837SOL    HW129236   1.167   0.044   0.548 -0.8053 -0.4349  0.8808
 5837SOL    HW229237   1.114   0.165   0.474 -0.7487  0.0804  1.6730
 5838SOL     OW29238   8.781  11.142   6.553  0.2549 -0.6119  0.7639
 5838SOL    HW129239   8.795  11.211   6.489  2.4984 -1.1538  0.5700
 5838SOL    HW229240   8.825  11.174   6.632  0.3077 -1.3164  1.0258
 5839SOL     OW29241  10.739   5.150   0.807 -0.3814  0.2402 -0.4647
 5839SOL    HW129242  10.733   5.112   0.720 -0.2301 -1.0970  0.0846
 5839SOL    HW229243  10.777   5.081   0.861 -2.2504  0.3231  1.0756
 5840SOL     OW29244   9.623  10.217   8.864 -0.0084 -0.3950  0.1394
 5840SOL    HW129245   9.598  10.309   8.869  0.2879 -0.2357 -1.0206
 5840SOL    HW229246   9.576  10.184   8.788  0.0111 -1.1763  0.4578
 5841SOL     OW29247   5.771  10.520   7.121 -0.4979 -0.3828 -0.5701
 5841SOL    HW129248   5.691  10.573   7.129 -0.1107  0.0165  0.8023
 5841SOL    HW229249   5.740  10.431   7.105 -1.3008 -0.5931  1.8640
 5842SOL     OW29250   2.346   7.902   9.233 -0.0689 -0.1741 -0.1331
 5842SOL    HW129251   2.430   7.876   9.196  0.9113  0.8362  1.2879
 5842SOL    HW229252   2.308   7.819   9.264 -0.6902 -0.9664 -2.7811
 5843SOL     OW29253   5.664  12.022   8.967  0.0096 -0.1542 -0.0336
 5843SOL    HW129254   5.600  12.089   8.990 -0.5044  0.3050 -2.5278
 5843SOL    HW229255   5.735  12.069   8.924  0.2878 -1.0527 -0.5937
 5844SOL     OW29256   4.856   0.200   4.221  0.5160 -0.0471  0.3308
 5844SOL    HW129257   4.780   0.142   4.234  1.7706 -1.9855 -0.5040
 5844SOL    HW229258   4.818   0.282   4.188 -1.1816 -1.2213 -0.8070
 5845SOL     OW29259   8.003   4.347   7.078  0.2717  0.0394 -0.1702
 5845SOL    HW129260   7.979   4.256   7.060  0.8717  0.0909 -1.3600
 5845SOL    HW229261   8.094   4.342   7.107  0.0758  0.1965  0.4730
 5846SOL     OW29262  11.999   0.566   5.290 -0.1633 -0.0677 -0.2332
 5846SOL    HW129263  12.030   0.634   5.230 -1.6008  0.7499 -0.0880
 5846SOL    HW229264  12.009   0.605   5.377 -0.9748 -0.0455 -0.1460
 5847SOL     OW29265   5.914  12.034   5.832  0.3724  0.5286  0.3237
 5847SOL    HW129266   5.873  11.994   5.909 -1.3006  2.8783  0.7327
 5847SOL    HW229267   5.879  11.984   5.759  0.6507 -0.6447  0.9599
 5848SOL     OW29268   4.475   9.623   6.934  0.0787 -0.3660  0.4782
 5848SOL    HW129269   4.389   9.598   6.900  0.1579  0.3746 -0.2953
 5848SOL    HW229270   4.537   9.592   6.868  0.1484  2.1909 -0.7745
 5849SOL     OW29271   6.611   8.966   8.253  0.2375  0.6531 -0.4220
 5849SOL    HW129272   6.526   9.007   8.234  0.9725  2.8269  0.6547
 5849SOL    HW229273   6.604   8.938   8.345 -0.0628 -1.2979 -0.9850
 5850SOL     OW29274   9.327   4.758  12.264  0.7708 -0.5807 -0.0792
 5850SOL    HW129275   9.248   4.710  12.287  0.9243 -1.2902 -0.9645
 5850SOL    HW229276   9.395   4.723  12.321  1.0352 -1.9497 -1.1790
 5851SOL     OW29277   5.383   1.153  11.210  0.1831  0.2103 -0.4728
 5851SOL    HW129278   5.475   1.171  11.195  0.8776 -1.8893  0.8295
 5851SOL    HW229279   5.367   1.182  11.300  0.0719 -1.0439 -0.0663
 5852SOL     OW29280   5.527   8.023   2.145 -0.5087  0.4691  0.2561
 5852SOL    HW129281   5.491   7.941   2.179  0.9212 -0.0818  0.5220
 5852SOL    HW229282   5.482   8.037   2.062 -1.5893  0.0268  0.7465
 5853SOL     OW29283  11.583   4.575   2.896 -0.2137  0.6130  0.0680
 5853SOL    HW129284  11.638   4.526   2.834  0.1724 -0.8456  1.5144
 5853SOL    HW229285  11.506   4.598   2.845 -0.6647 -1.9827 -0.5823
 5854SOL     OW29286   2.548   5.957   1.348  0.2439  0.2113 -0.1560
 5854SOL    HW129287   2.524   5.927   1.260  0.2162 -0.1381 -0.0319
 5854SOL    HW229288   2.536   6.052   1.345 -2.0064 -0.0069  0.1312
 5855SOL     OW29289  11.175   6.350  11.796  0.0844 -0.3846  0.4296
 5855SOL    HW129290  11.148   6.325  11.885 -0.4586  0.2368  0.4431
 5855SOL    HW229291  11.192   6.444  11.801 -0.1762 -0.3014 -0.1838
 5856SOL     OW29292   6.091   9.141   9.347 -0.2676  0.1135 -0.5162
 5856SOL    HW129293   6.060   9.204   9.412 -0.3335 -0.3582 -0.0905
 5856SOL    HW229294   6.042   9.061   9.364 -1.3996  0.4084 -2.1194
 5857SOL     OW29295   4.372   7.302   9.055 -0.4900  0.5935 -0.7050
 5857SOL    HW129296   4.353   7.208   9.045 -1.9310  0.6533  0.9682
 5857SOL    HW229297   4.461   7.305   9.089 -0.2037 -0.1338 -1.3655
 5858SOL     OW29298  12.986   0.258   0.241  0.6302  0.0978 -0.0733
 5858SOL    HW129299  13.013   0.213   0.321  0.9623 -2.1689 -1.3772
 5858SOL    HW229300  12.926   0.197   0.198 -2.3135  2.6597 -0.0045
 5859SOL     OW29301  12.015  13.320   0.871 -0.1377  0.1659 -0.3682
 5859SOL    HW129302  12.055  13.370   0.801  1.0850 -3.1482 -2.2731
 5859SOL    HW229303  12.087  13.299   0.930 -0.1017 -1.3082 -0.9058
 5860SOL     OW29304   1.358   2.121   9.843  0.2927  0.4610 -0.4525
 5860SOL    HW129305   1.432   2.080   9.798  0.8324  0.4058  0.4638
 5860SOL    HW229306   1.349   2.072   9.924 -1.7814 -0.5505 -1.2452
 5861SOL     OW29307  11.474   1.769   5.433 -0.2151 -0.6163 -0.1132
 5861SOL    HW129308  11.487   1.813   5.517  1.1347 -0.6505 -0.2825
 5861SOL    HW229309  11.562   1.747   5.403 -0.7277 -1.4735 -1.0849
 5862SOL     OW29310  12.932   0.653  11.975  0.1305 -0.0959  0.1922
 5862SOL    HW129311  12.947   0.674  12.067 -1.3667  0.6737  0.2918
 5862SOL    HW229312  12.991   0.580  11.957  0.3293 -0.3666  1.8069
 5863SOL     OW29313   3.418   0.056  11.270  0.5767  1.0972  0.2442
 5863SOL    HW129314   3.448   0.095  11.352 -1.4509  0.6332  1.2870
 5863SOL    HW229315   3.383   0.130  11.220  1.7346  1.3684 -0.1944
 5864SOL     OW29316  11.314   4.635   7.861 -0.0082  0.0741  0.3289
 5864SOL    HW129317  11.357   4.706   7.815  0.8707 -1.4994 -1.3892
 5864SOL    HW229318  11.379   4.564   7.863 -0.2485 -0.2071  3.4104
 5865SOL     OW29319   5.295  11.102   6.485  0.0081  0.1151  0.1413
 5865SOL    HW129320   5.315  11.056   6.404  1.9678  0.1522  0.5729
 5865SOL    HW229321   5.238  11.174   6.458  0.4855  0.0242 -1.1789
 5866SOL     OW29322  12.938   7.618  10.488 -0.2968 -0.1630 -0.6137
 5866SOL    HW129323  13.011   7.609  10.550  0.3966  1.6539 -1.1065
 5866SOL    HW229324  12.980   7.633  10.403 -1.2051  1.9859 -0.7355
 5867SOL     OW29325   8.814   0.142   8.871 -0.3687  0.4929  0.0293
 5867SOL    HW129326   8.905   0.170   8.867  0.4771 -1.7609  1.2668
 5867SOL    HW229327   8.807   0.095   8.955 -2.4591 -0.0783 -0.3903
 5868SOL     OW29328   3.851   9.427   6.959 -0.2010  0.7767 -0.1568
 5868SOL    HW129329   3.783   9.455   7.020 -0.7586  0.1456 -0.4734
 5868SOL    HW229330   3.906   9.369   7.010 -0.0110  1.1282  0.0448
 5869SOL     OW29331   4.950   3.385  11.561 -0.1303  0.0629 -0.2692
 5869SOL    HW129332   5.044   3.404  11.550 -0.3474  0.7598 -0.9740
 5869SOL    HW229333   4.940   3.295  11.528  0.4087 -0.2951  0.4993
 5870SOL     OW29334   5.988   0.938   1.478  0.8140 -0.4787 -0.3868
 5870SOL    HW129335   5.916   0.895   1.523  0.5782 -0.8062 -1.0659
 5870SOL    HW229336   5.946   0.996   1.414  1.1364  0.2621  0.0541
 5871SOL     OW29337   7.036   0.715   0.086  0.2073  0.1930  0.3628
 5871SOL    HW129338   7.058   0.625   0.062  0.8051  0.1742  0.9531
 5871SOL    HW229339   6.943   0.711   0.110  0.6781 -0.6724  2.2025
 5872SOL     OW29340   7.482   8.871   3.427  0.3899  0.3236  0.2588
 5872SOL    HW129341   7.559   8.921   3.454  1.3309 -0.5692 -0.6420
 5872SOL    HW229342   7.508   8.831   3.344  0.4747 -3.2148  1.8100
 5873SOL     OW29343   7.459  12.368  11.509 -0.1398  0.1433 -0.1409
 5873SOL    HW129344   7.453  12.285  11.558  0.4756  0.2970  0.2169
 5873SOL    HW229345   7.396  12.426  11.552  0.8209  0.4667  0.8839
 5874SOL     OW29346   6.587   7.604   8.968 -0.6652  0.2253  0.5422
 5874SOL    HW129347   6.541   7.660   8.906 -0.2462 -1.7767 -1.7241
 5874SOL    HW229348   6.549   7.517   8.954  1.8798 -0.9568  0.5228
 5875SOL     OW29349  11.242   9.699   5.889  0.3171 -0.1623  0.2386
 5875SOL    HW129350  11.217   9.621   5.839 -1.4862 -0.4214  1.4462
 5875SOL    HW229351  11.178   9.766   5.864  1.1946  0.6176  0.0195
 5876SOL     OW29352   0.398  11.880   7.224 -0.3536  0.2274 -0.2934
 5876SOL    HW129353   0.423  11.858   7.314 -0.7473  0.5062 -0.1163
 5876SOL    HW229354   0.414  11.799   7.175 -1.9113 -0.5398  0.3790
 5877SOL     OW29355   3.827  13.467   7.443  0.0564  0.0584  0.5981
 5877SOL    HW129356   3.860  13.547   7.485  0.1374  0.3160  0.0445
 5877SOL    HW229357   3.767  13.498   7.375  1.0995 -0.2925 -0.5165
 5878SOL     OW29358  13.021   6.368   3.423  0.3485  0.3549 -0.0804
 5878SOL    HW129359  13.065   6.450   3.400  0.1599  0.2595 -0.8200
 5878SOL    HW229360  13.054   6.346   3.510 -0.2051  1.6419  0.4894
 5879SOL     OW29361   0.214   7.509   7.198  0.1122 -0.1398 -0.1676
 5879SOL    HW129362   0.218   7.601   7.171  1.5025 -0.3850 -0.9125
 5879SOL    HW229363   0.210   7.461   7.116  0.1386 -0.7753  0.2023
 5880SOL     OW29364  12.004   0.563  12.315  0.2705 -0.1217  0.1035
 5880SOL    HW129365  12.092   0.573  12.280  0.0421  0.1485 -0.4080
 5880SOL    HW229366  12.015   0.566  12.410  0.5628  2.1113  0.0450
 5881SOL     OW29367   7.768   7.160   5.219 -0.8758  0.5095 -0.5675
 5881SOL    HW129368   7.700   7.185   5.156 -2.1783 -0.6640  0.3426
 5881SOL    HW229369   7.850   7.164   5.168 -1.9433 -0.9887 -2.5286
 5882SOL     OW29370   0.488   8.154   2.523 -0.3921  0.3524 -0.1037
 5882SOL    HW129371   0.584   8.157   2.527 -0.4379  2.1375  0.2241
 5882SOL    HW229372   0.464   8.090   2.590  0.5329  0.8939  0.7820
 5883SOL     OW29373   9.017  10.286   4.497 -0.2968  0.4471 -0.1136
 5883SOL    HW129374   8.999  10.254   4.586  1.0068 -1.3730 -0.4473
 5883SOL    HW229375   9.037  10.379   4.509 -0.4742  0.3119  1.4587
 5884SOL     OW29376  12.064  10.681  10.816 -0.7751  0.4102  0.0087
 5884SOL    HW129377  11.991  10.671  10.756  0.1033 -1.2289 -0.8417
 5884SOL    HW229378  12.044  10.623  10.889 -0.5106  0.2542 -0.0409
 5885SOL     OW29379   5.430  10.486   4.192 -0.0668 -0.0712 -0.0693
 5885SOL    HW129380   5.427  10.533   4.276 -0.1618 -3.0203  1.7200
 5885SOL    HW229381   5.494  10.416   4.206  0.1594 -0.4618 -2.6118
 5886SOL     OW29382   0.796   9.199   0.528  0.7027 -0.3476  0.2174
 5886SOL    HW129383   0.790   9.181   0.434  0.7615 -2.6349  0.6037
 5886SOL    HW229384   0.867   9.142   0.558 -0.0667 -0.4743  1.8505
 5887SOL     OW29385   6.895   6.727  12.139  0.5272  0.3302  1.0168
 5887SOL    HW129386   6.875   6.636  12.116 -0.2600  0.7900 -0.2337
 5887SOL    HW229387   6.926   6.766  12.057  2.8495  0.6966  1.9937
 5888SOL     OW29388   6.879   7.240  11.871  0.2129 -0.1138  0.1357
 5888SOL    HW129389   6.824   7.225  11.948  1.9794  1.8889  1.8942
 5888SOL    HW229390   6.885   7.154  11.829 -3.0474 -0.6833  0.6133
 5889SOL     OW29391  13.581   5.393   4.520  0.1635  0.1970  0.1711
 5889SOL    HW129392  13.612   5.371   4.608  1.0289 -0.5239 -0.3034
 5889SOL    HW229393  13.574   5.489   4.521  1.6958  0.3238  0.5392
 5890SOL     OW29394   1.530   0.310   4.507 -0.4324 -0.4686 -0.3318
 5890SOL    HW129395   1.468   0.383   4.514 -0.2976 -0.2061 -1.6190
 5890SOL    HW229396   1.599   0.331   4.571 -0.2590  0.6762 -0.8756
 5891SOL     OW29397   7.481   7.211  11.977  0.3189  0.1076  0.2185
 5891SOL    HW129398   7.435   7.282  11.932  1.8728  0.6553 -0.5713
 5891SOL    HW229399   7.444   7.211  12.065 -1.4437  0.2536 -0.4673
 5892SOL     OW29400  13.131   1.812  12.254 -0.2107 -0.1989 -0.4193
 5892SOL    HW129401  13.203   1.836  12.313  0.4181  0.1508 -1.3096
 5892SOL    HW229402  13.063   1.877  12.272  0.0400  0.0010 -0.1908
 5893SOL     OW29403   2.583   1.680   4.361  0.2357  0.4422  0.1587
 5893SOL    HW129404   2.604   1.598   4.407  0.0386 -0.1857 -0.8179
 5893SOL    HW229405   2.603   1.749   4.424  2.4148 -0.2516  0.3181
 5894SOL     OW29406   0.265   6.243  12.917  0.1790  0.2353 -1.0133
 5894SOL    HW129407   0.296   6.312  12.976 -1.0333  1.0212 -1.2476
 5894SOL    HW229408   0.193   6.201  12.964  0.9571 -0.9462 -0.8457
 5895SOL     OW29409  12.707   9.592   8.269  0.0878 -0.0015 -0.0097
 5895SOL    HW129410  12.716   9.530   8.197  0.4439  0.7400 -0.6129
 5895SOL    HW229411  12.722   9.678   8.230  0.2948  0.4171  0.9462
 5896SOL     OW29412   7.401  10.797  10.078 -0.0355  0.4427  0.5943
 5896SOL    HW129413   7.312  10.792  10.112 -0.4261  0.2215 -0.4254
 5896SOL    HW229414   7.447  10.855  10.139 -0.7413  0.1837  1.3934
 5897SOL     OW29415   5.239   9.958  10.938  0.0940  0.2308  0.6997
 5897SOL    HW129416   5.251   9.882  10.880 -0.3311  0.9038 -0.2970
 5897SOL    HW229417   5.213  10.029  10.879  0.9550  1.2816  1.5445
 5898SOL     OW29418   3.496   0.348   5.532  0.2675 -0.6601 -0.5730
 5898SOL    HW129419   3.502   0.284   5.604 -0.4544 -0.1941 -0.0869
 5898SOL    HW229420   3.412   0.391   5.545  0.8871  0.6499 -0.6705
 5899SOL     OW29421   1.878   0.037   5.076  0.0617  0.1002  0.4324
 5899SOL    HW129422   1.836   0.079   5.152  1.1177  1.1187  0.4773
 5899SOL    HW229423   1.856  -0.055   5.085 -0.6046  0.3386  1.4700
 5900SOL     OW29424  11.032   3.942   8.675  0.3685 -0.0817 -0.1783
 5900SOL    HW129425  11.033   3.976   8.585 -1.6625 -0.4947 -0.4025
 5900SOL    HW229426  11.028   3.847   8.664 -1.0900 -0.0953  0.3088
 5901SOL     OW29427   9.054   8.048   0.021  0.4317  0.1501  0.4531
 5901SOL    HW129428   9.050   7.974   0.082  0.9240  0.3739  0.7720
 5901SOL    HW229429   9.140   8.040  -0.020  0.3739  0.3853  0.2849
 5902SOL     OW29430   6.723   1.388  12.704  0.5146  0.0042 -0.3822
 5902SOL    HW129431   6.719   1.481  12.726  3.4449 -0.4496  2.6481
 5902SOL    HW229432   6.787   1.383  12.633  0.5279  0.2294 -0.3876
 5903SOL     OW29433   9.552  13.205   7.732 -0.2906 -0.3634 -0.2845
 5903SOL    HW129434   9.629  13.150   7.719 -0.3864 -0.1724 -1.9795
 5903SOL    HW229435   9.582  13.277   7.786  0.2964 -1.1302  0.4289
 5904SOL     OW29436   6.268   9.689   0.777 -0.2826 -0.3281  1.0474
 5904SOL    HW129437   6.259   9.627   0.849 -0.2010 -0.2180  1.1522
 5904SOL    HW229438   6.360   9.715   0.778  0.2489 -1.9850 -0.4768
 5905SOL     OW29439  13.271   6.707  12.281  0.9492 -0.0267 -0.0445
 5905SOL    HW129440  13.202   6.705  12.215 -0.1637 -1.1911  1.1026
 5905SOL    HW229441  13.292   6.615  12.297  1.5913  0.2501  0.8113
 5906SOL     OW29442   8.185   4.693  13.294  0.3957 -0.1197 -0.1899
 5906SOL    HW129443   8.127   4.720  13.365  1.6630 -0.7106  1.1329
 5906SOL    HW229444   8.259   4.753  13.299  0.5081 -0.1758 -1.0091
 5907SOL     OW29445   0.299   0.146   6.641 -0.8603 -0.0626 -0.1691
 5907SOL    HW129446   0.274   0.055   6.625  1.1507 -0.8541  0.8743
 5907SOL    HW229447   0.394   0.144   6.645 -0.8320  1.8690  1.1594
 5908SOL     OW29448   8.239  12.497   2.528 -0.2100  0.5583 -0.0465
 5908SOL    HW129449   8.222  12.451   2.445  1.5533 -0.2474  0.0002
 5908SOL    HW229450   8.315  12.552   2.510  1.9120 -1.5935  1.6608
 5909SOL     OW29451   1.535   8.629   9.283 -0.0823  0.4775  0.1634
 5909SOL    HW129452   1.605   8.633   9.348  0.8069  0.0925 -0.7440
 5909SOL    HW229453   1.568   8.680   9.209 -1.5965  1.9733  0.4592
 5910SOL     OW29454   9.485   1.504   2.814 -0.2747 -0.1254 -0.2651
 5910SOL    HW129455   9.484   1.543   2.727  1.3669  0.4686 -0.0453
 5910SOL    HW229456   9.392   1.487   2.833 -1.1986  3.7156 -0.3854
 5911SOL     OW29457   9.416   5.174   4.291  0.1318 -0.4497  0.3904
 5911SOL    HW129458   9.422   5.162   4.197 -2.3332  1.0901 -0.0444
 5911SOL    HW229459   9.322   5.166   4.311  0.3527  1.0565  2.4138
 5912SOL     OW29460   9.231  13.398   4.392  0.2225  0.0387 -0.3054
 5912SOL    HW129461   9.269  13.474   4.348  0.5483 -1.1846 -2.2775
 5912SOL    HW229462   9.299  13.370   4.453  0.5627  0.6735 -0.3842
 5913SOL     OW29463   0.622   7.017   0.101 -0.5091  0.6417 -0.3410
 5913SOL    HW129464   0.632   6.968   0.020  0.5327  0.5636 -0.1808
 5913SOL    HW229465   0.638   7.108   0.076  2.4312  0.3695  0.1691
 5914SOL     OW29466   8.210  11.618   3.736 -0.8602  0.0642  0.1532
 5914SOL    HW129467   8.180  11.693   3.684 -2.1344 -0.9770 -0.7055
 5914SOL    HW229468   8.232  11.655   3.821 -1.9147  1.3516 -0.0978
 5915SOL     OW29469   4.923   4.863   3.045 -0.3484 -0.4098  0.0590
 5915SOL    HW129470   4.963   4.813   3.116 -2.4646 -1.2319  0.7542
 5915SOL    HW229471   4.915   4.800   2.973 -0.6650 -0.3401  0.0342
 5916SOL     OW29472   0.233   8.756   7.337 -0.3788 -0.6860 -0.3802
 5916SOL    HW129473   0.233   8.742   7.432  0.6813  1.2328 -0.0452
 5916SOL    HW229474   0.142   8.777   7.317 -0.3253  0.5020  0.5112
 5917SOL     OW29475   3.521   1.479   9.980  0.2701 -0.1649  0.3079
 5917SOL    HW129476   3.484   1.535   9.912 -0.0413 -0.3865  0.2949
 5917SOL    HW229477   3.529   1.393   9.939  1.6514  0.0764  0.0160
 5918SOL     OW29478   8.772  13.568  11.244 -0.0704  0.3297 -0.1809
 5918SOL    HW129479   8.863  13.595  11.236  0.0081 -0.2532 -1.3792
 5918SOL    HW229480   8.746  13.599  11.331  0.8317  1.7743 -0.3967
 5919SOL     OW29481   9.820   9.655  13.687 -0.1127  0.4466 -0.1126
 5919SOL    HW129482   9.806   9.727  13.626  1.7131 -0.3177 -1.5336
 5919SOL    HW229483   9.889   9.686  13.746  0.2182  0.1082 -0.3178
 5920SOL     OW29484   8.222   6.491  13.138 -0.0099  0.1637 -0.0303
 5920SOL    HW129485   8.149   6.499  13.076  0.1308 -3.1255 -0.7944
 5920SOL    HW229486   8.201   6.413  13.190  2.2944 -0.0666  0.6460
 5921SOL     OW29487   1.288   1.963   5.571  0.8212 -0.0092 -0.3772
 5921SOL    HW129488   1.330   1.999   5.650  1.2861 -0.3009 -0.4867
 5921SOL    HW229489   1.198   1.948   5.597  1.0407 -0.3731  0.1974
 5922SOL     OW29490   9.157   9.257   3.716 -0.4322  0.4219 -0.1488
 5922SOL    HW129491   9.213   9.281   3.789 -0.4718  1.1283 -0.3411
 5922SOL    HW229492   9.217   9.249   3.642 -0.4417  0.0762 -0.1210
 5923SOL     OW29493   8.846  11.337   9.025  0.0068  0.3366  0.6742
 5923SOL    HW129494   8.778  11.282   8.985  0.4125  0.6924 -0.5618
 5923SOL    HW229495   8.914  11.343   8.958  0.5979  1.1950  1.3269
 5924SOL     OW29496  10.766   6.120   0.593 -0.3488  0.1498 -0.0957
 5924SOL    HW129497  10.841   6.093   0.541 -2.1253 -1.6888 -1.8890
 5924SOL    HW229498  10.771   6.068   0.673  0.6791  0.6175  0.1521
 5925SOL     OW29499   5.244   1.148   3.904 -0.4300 -0.0939  1.1250
 5925SOL    HW129500   5.252   1.086   3.832 -2.2118  1.3244 -0.3777
 5925SOL    HW229501   5.292   1.225   3.874  0.0209  0.0069  2.0845
 5926SOL     OW29502   9.483   2.180  13.275 -0.0863  0.1790 -0.2105
 5926SOL    HW129503   9.522   2.198  13.189  0.8395  1.5665  0.4712
 5926SOL    HW229504   9.539   2.113  13.313  0.7155  1.0175  0.1155
 5927SOL     OW29505   3.724   8.534   6.366 -0.1325  0.5934  0.1670
 5927SOL    HW129506   3.658   8.599   6.341 -1.8874 -0.8646  0.8686
 5927SOL    HW229507   3.756   8.564   6.451 -0.1287  1.1153 -0.0132
 5928SOL     OW29508   1.213   0.171   3.134 -0.3895  0.3029  0.3798
 5928SOL    HW129509   1.191   0.259   3.103 -0.5751  0.4403  0.8792
 5928SOL    HW229510   1.145   0.115   3.098 -1.7160  0.7523  2.0615
 5929SOL     OW29511   4.804  10.493   7.023 -0.1098 -0.4740  0.2445
 5929SOL    HW129512   4.732  10.511   7.083 -2.0585 -1.4965 -1.6445
 5929SOL    HW229513   4.841  10.410   7.053 -0.8946 -0.8399  0.2275
 5930SOL     OW29514   3.674   3.750  12.589  0.4676  0.0927 -0.1715
 5930SOL    HW129515   3.660   3.655  12.592  1.7328 -0.1853 -1.6972
 5930SOL    HW229516   3.656   3.780  12.678  0.3772 -1.6290  0.4223
 5931SOL     OW29517   8.965   7.128  11.763  0.2065  0.1134  0.0500
 5931SOL    HW129518   8.889   7.186  11.764  0.0728  0.1394 -2.9561
 5931SOL    HW229519   9.037   7.183  11.732  0.9584 -0.4607  0.7328
 5932SOL     OW29520   3.215   8.589   5.416 -0.4273  0.0632 -0.7470
 5932SOL    HW129521   3.133   8.635   5.399  0.6272  2.4869  0.2788
 5932SOL    HW229522   3.267   8.650   5.467  1.1881 -2.2629  0.5839
 5933SOL     OW29523  13.659   9.748   3.621 -0.2333  0.6548 -0.4363
 5933SOL    HW129524  13.694   9.669   3.663  0.9506  0.5743 -1.5154
 5933SOL    HW229525  13.607   9.715   3.547 -1.2036  0.8468  0.1383
 5934SOL     OW29526   0.691  10.452   1.369  0.2266 -0.2806  0.4195
 5934SOL    HW129527   0.677  10.513   1.297  0.7185 -1.0912 -0.3663
 5934SOL    HW229528   0.632  10.379   1.351  2.4110 -1.8449 -0.7642
 5935SOL     OW29529   6.262  12.301   9.296  0.5672  0.0640 -1.0255
 5935SOL    HW129530   6.216  12.378   9.329  0.6634  0.5194 -1.9536
 5935SOL    HW229531   6.236  12.231   9.356 -0.9420  0.4220 -1.2168
 5936SOL     OW29532   5.988  10.535  11.569 -0.3622  0.5524  0.2830
 5936SOL    HW129533   5.936  10.609  11.601 -1.0148 -0.0089  0.5317
 5936SOL    HW229534   5.924  10.476  11.529 -0.5386 -1.8963  3.7400
 5937SOL     OW29535   7.141   7.945  11.607 -0.3586  0.4029 -0.2183
 5937SOL    HW129536   7.208   7.969  11.671 -0.1028  0.4102 -0.4853
 5937SOL    HW229537   7.061   7.985  11.640 -0.3418 -0.0391  0.3780
 5938SOL     OW29538   5.395   7.749   1.708 -0.0512  0.0165 -0.4705
 5938SOL    HW129539   5.302   7.764   1.691  0.2007  0.4632 -1.5921
 5938SOL    HW229540   5.439   7.787   1.631  1.0393 -0.3691 -0.0507
 5939SOL     OW29541   4.615  10.544   5.965 -0.0063  0.2288  0.3089
 5939SOL    HW129542   4.569  10.492   6.032 -0.3343  0.7696  0.5102
 5939SOL    HW229543   4.626  10.484   5.892  0.4902 -0.4269  0.8985
 5940SOL     OW29544   2.703   2.359  11.858 -0.1728 -0.3865  0.2185
 5940SOL    HW129545   2.739   2.425  11.917  0.4820  0.2266 -0.8329
 5940SOL    HW229546   2.611   2.351  11.884  0.0873 -0.1067  1.2774
 5941SOL     OW29547  10.123   7.645  12.548 -0.1161 -0.7907  0.5167
 5941SOL    HW129548  10.041   7.687  12.575  0.9059  0.9939  0.9985
 5941SOL    HW229549  10.180   7.652  12.625  2.2941  2.8880 -1.3166
 5942SOL     OW29550   2.312  12.019   0.489  0.2067  0.3762 -0.6516
 5942SOL    HW129551   2.392  12.006   0.539 -0.0850 -1.0069 -0.5038
 5942SOL    HW229552   2.296  11.935   0.446 -1.7108  0.2596  0.1594
 5943SOL     OW29553  12.161   5.796   0.638 -0.4048  0.5894 -0.1481
 5943SOL    HW129554  12.129   5.828   0.554  0.1248  0.0463 -0.5608
 5943SOL    HW229555  12.167   5.874   0.693  2.3688  1.5295 -1.6050
 5944SOL     OW29556  11.784   3.930   5.171  0.0679 -0.5791 -0.2919
 5944SOL    HW129557  11.701   3.886   5.186 -1.3355  1.2937 -2.0625
 5944SOL    HW229558  11.804   3.974   5.254 -1.2525 -0.2070 -0.1583
 5945SOL     OW29559   7.686   7.668   5.923  0.1985 -0.6753 -0.3067
 5945SOL    HW129560   7.764   7.714   5.953  0.0030 -0.8054  0.4352
 5945SOL    HW229561   7.707   7.638   5.835  1.2185 -1.2653  0.1298
 5946SOL     OW29562   1.547   3.345   4.985  0.4304 -0.1520  0.0207
 5946SOL    HW129563   1.553   3.433   5.023  0.6433  0.4574 -1.3383
 5946SOL    HW229564   1.639   3.317   4.976  0.3538 -0.6648  0.7548
 5947SOL     OW29565   7.475   5.774  10.975  0.2714  0.6308  0.4056
 5947SOL    HW129566   7.547   5.767  10.913 -1.5272 -1.9189 -1.5864
 5947SOL    HW229567   7.410   5.829  10.930 -0.9627 -1.0636  0.0400
 5948SOL     OW29568   8.924   3.570   6.710 -0.1293  0.7769  0.4570
 5948SOL    HW129569   8.934   3.515   6.632 -1.7957  1.4140 -0.2412
 5948SOL    HW229570   8.981   3.529   6.775 -1.1046 -1.6349 -0.1021
 5949SOL     OW29571   3.328   4.801   7.246  0.4635  1.0535 -0.5765
 5949SOL    HW129572   3.242   4.776   7.281  0.3753 -0.4202 -1.7300
 5949SOL    HW229573   3.380   4.823   7.323 -1.1449  2.7609  0.1011
 5950SOL     OW29574   0.083   0.679  13.552  0.0883  0.1479 -0.4912
 5950SOL    HW129575   0.027   0.602  13.555  0.4639 -0.1276 -0.5666
 5950SOL    HW229576   0.045   0.739  13.616  0.9674 -0.8852  1.0476
 5951SOL     OW29577  13.187   2.025  10.500  0.0445  0.0606 -0.1787
 5951SOL    HW129578  13.273   2.058  10.475 -0.3455  0.8431 -0.5435
 5951SOL    HW229579  13.205   1.949  10.555  0.9643  0.2262 -0.2378
 5952SOL     OW29580   7.042   4.510   6.587 -0.0903 -0.1858 -0.1633
 5952SOL    HW129581   7.120   4.496   6.642 -1.1024  0.4919  1.5484
 5952SOL    HW229582   6.991   4.430   6.598 -0.6766  0.2773  0.5817
 5953SOL     OW29583   8.594   2.767  10.980  0.3115  0.0794 -0.2615
 5953SOL    HW129584   8.590   2.672  10.995  1.7059 -0.3649 -2.1775
 5953SOL    HW229585   8.661   2.798  11.041 -0.9954  0.0832  1.2280
 5954SOL     OW29586   7.249   9.170   4.601  0.7561  0.3910 -0.3931
 5954SOL    HW129587   7.264   9.239   4.536 -0.5957  0.7504 -0.3501
 5954SOL    HW229588   7.237   9.217   4.684 -2.8762  0.3962 -0.7895
 5955SOL     OW29589   5.151  12.656   3.268  0.1555  0.9833  0.3672
 5955SOL    HW129590   5.122  12.740   3.303 -0.9874  1.2747 -1.2037
 5955SOL    HW229591   5.245  12.655   3.283  0.1384  2.4212  0.6540
 5956SOL     OW29592   5.285  11.351   0.492  0.0135 -0.5695 -0.8549
 5956SOL    HW129593   5.202  11.363   0.447 -0.3849 -0.1558 -0.0370
 5956SOL    HW229594   5.286  11.420   0.559  1.9782  0.8425 -2.2225
 5957SOL     OW29595   1.847   6.463  11.577 -0.4402  0.8573  0.2902
 5957SOL    HW129596   1.812   6.535  11.525  0.4911  1.7768  0.8999
 5957SOL    HW229597   1.813   6.478  11.665  1.4598  1.8164  0.9135
 5958SOL     OW29598  11.768  13.530   4.976  0.7397  0.1046 -0.0913
 5958SOL    HW129599  11.799  13.610   4.933  0.6586 -0.8709 -2.0511
 5958SOL    HW229600  11.798  13.459   4.920 -1.3308 -1.1251  0.2722
 5959SOL     OW29601   6.546   9.493   7.778 -0.3606  0.3784 -0.3228
 5959SOL    HW129602   6.478   9.461   7.837 -0.5507 -3.3359 -2.2151
 5959SOL    HW229603   6.498   9.534   7.706 -0.3143  1.6017  0.3225
 5960SOL     OW29604   5.079   7.369   8.879 -0.6421  0.3628  0.1573
 5960SOL    HW129605   5.058   7.414   8.961 -1.9485 -1.1648  0.7121
 5960SOL    HW229606   5.014   7.401   8.817  0.8072  2.0938 -0.5625
 5961SOL     OW29607  13.392  11.080  11.744  0.4132 -0.5382 -0.4549
 5961SOL    HW129608  13.350  11.047  11.665 -0.7948  1.6801 -0.8334
 5961SOL    HW229609  13.387  11.007  11.806 -2.4923 -1.0171 -1.0816
 5962SOL     OW29610   4.309   6.914  12.526  0.0125  0.4226 -0.1157
 5962SOL    HW129611   4.252   6.908  12.450 -0.9938 -0.5238  0.6725
 5962SOL    HW229612   4.251   6.898  12.601  1.3057 -0.6729  0.7131
 5963SOL     OW29613   5.776   4.565   4.310 -0.1322  0.0840  0.3442
 5963SOL    HW129614   5.714   4.638   4.318 -0.9264 -0.2168 -2.1685
 5963SOL    HW229615   5.848   4.601   4.258 -0.9893 -1.1016 -1.7775
 5964SOL     OW29616   9.634   9.909   9.843  0.2927  0.4177 -0.0708
 5964SOL    HW129617   9.689   9.845   9.798  0.9945  1.6201 -0.9917
 5964SOL    HW229618   9.663   9.994   9.808 -1.3099  1.1731  0.3541
 5965SOL     OW29619   2.805   0.307   1.254  0.2345 -0.5390  0.2735
 5965SOL    HW129620   2.813   0.402   1.260 -1.0328 -0.0667 -3.1669
 5965SOL    HW229621   2.714   0.292   1.228  0.0287 -2.8265  2.0141
 5966SOL     OW29622   6.326  12.825   0.434  0.1503  0.5138  0.0198
 5966SOL    HW129623   6.277  12.760   0.383 -0.0341 -0.8380  1.8292
 5966SOL    HW229624   6.291  12.910   0.405 -0.9401 -0.2665 -1.0434
 5967SOL     OW29625   0.365   3.421   9.660  0.6081 -0.1424 -0.5220
 5967SOL    HW129626   0.356   3.513   9.683  2.2867 -0.2955  0.9795
 5967SOL    HW229627   0.449   3.415   9.614  1.3076 -1.1226  0.8095
 5968SOL     OW29628   4.091  11.932   9.584 -0.0826  0.4490  0.1787
 5968SOL    HW129629   4.122  11.881   9.658 -1.7170 -0.4205  0.3033
 5968SOL    HW229630   4.018  11.984   9.620 -0.2421  0.7653 -0.5846
 5969SOL     OW29631   1.041  10.318   2.996  0.2235  0.0623  0.5262
 5969SOL    HW129632   1.036  10.407   2.963 -1.3809  0.4522  1.7145
 5969SOL    HW229633   0.961  10.275   2.965  0.4232 -0.6197  0.9227
 5970SOL     OW29634   0.797  12.806   8.677  0.1263 -0.1207 -0.1290
 5970SOL    HW129635   0.814  12.883   8.731  0.6155 -0.5682  0.3763
 5970SOL    HW229636   0.727  12.832   8.618  0.8047  0.9554 -0.4771
 5971SOL     OW29637  12.617   9.359   9.045  0.3089  0.0524 -0.2488
 5971SOL    HW129638  12.534   9.405   9.033  0.3654  0.4957  0.9453
 5971SOL    HW229639  12.677   9.425   9.079  0.9636 -0.4398 -0.4210
 5972SOL     OW29640  12.503   3.979   2.896  0.2069  0.5245  0.0608
 5972SOL    HW129641  12.420   3.939   2.920  0.4783 -0.2602 -0.2687
 5972SOL    HW229642  12.554   3.907   2.858  0.2542  1.4312 -1.7111
 5973SOL     OW29643   1.049  13.225   1.165 -0.3329 -0.0926  0.0840
 5973SOL    HW129644   1.013  13.181   1.242  1.4961  1.1459  1.7343
 5973SOL    HW229645   0.973  13.248   1.112 -1.5996 -1.3980  1.2630
 5974SOL     OW29646  11.432   6.164   7.837  0.1783  0.2118  0.1314
 5974SOL    HW129647  11.345   6.184   7.802  0.6246  1.7882 -0.1099
 5974SOL    HW229648  11.444   6.071   7.817 -1.5538 -0.1231  0.4123
 5975SOL     OW29649   2.539   7.824   6.762 -0.1995  0.1787  0.2269
 5975SOL    HW129650   2.473   7.823   6.830  0.0410 -0.5867  0.4529
 5975SOL    HW229651   2.528   7.909   6.719 -0.4745  0.5860  1.0916
 5976SOL     OW29652  12.954   7.389   5.314 -0.4849 -0.0252 -0.5624
 5976SOL    HW129653  12.971   7.361   5.404  0.4087  0.0904 -0.6818
 5976SOL    HW229654  12.864   7.421   5.315 -0.6705 -0.5467  0.1580
 5977SOL     OW29655  12.190   4.019   1.145 -0.1396  0.1274 -0.2653
 5977SOL    HW129656  12.239   4.091   1.105  0.7060 -0.5702 -0.5013
 5977SOL    HW229657  12.252   3.978   1.205 -0.3099 -0.9644 -0.8045
 5978SOL     OW29658  10.041   8.743   1.653  0.3358 -0.3154 -0.1426
 5978SOL    HW129659  10.110   8.677   1.646 -0.2808 -0.8937 -1.0199
 5978SOL    HW229660   9.980   8.722   1.581 -1.6722 -0.8949  1.6168
 5979SOL     OW29661   2.463   1.537   8.338  0.6175  0.0393 -0.2241
 5979SOL    HW129662   2.528   1.601   8.310  1.9160 -1.4186 -0.6663
 5979SOL    HW229663   2.512   1.475   8.392 -0.7403 -0.2239  0.7629
 5980SOL     OW29664   5.977  11.521   2.588 -0.3753 -0.8154 -0.8618
 5980SOL    HW129665   5.889  11.552   2.612 -0.3314  1.2618 -3.0355
 5980SOL    HW229666   6.033  11.597   2.600  0.3234 -0.8258 -3.5000
 5981SOL     OW29667   8.551  13.245  13.028  0.2136 -0.0179  0.4748
 5981SOL    HW129668   8.615  13.201  13.084 -1.1002 -2.5489  0.1131
 5981SOL    HW229669   8.601  13.316  12.987  2.6311 -1.4601  0.6831
 5982SOL     OW29670   0.278   7.291   9.885 -0.0430 -1.1417 -0.3575
 5982SOL    HW129671   0.353   7.283   9.945 -0.1298 -0.6110 -0.1705
 5982SOL    HW229672   0.304   7.361   9.825 -1.1942  0.4701  0.9406
 5983SOL     OW29673   1.506   9.760   0.067 -0.5587 -0.3545 -0.0305
 5983SOL    HW129674   1.518   9.748   0.161  0.2406  0.2185 -0.0537
 5983SOL    HW229675   1.591   9.740   0.029 -0.1659  1.7593 -0.3999
 5984SOL     OW29676   1.572   9.147  12.497  0.3544 -0.4535 -0.2860
 5984SOL    HW129677   1.652   9.154  12.444  0.1125  2.1628 -0.4510
 5984SOL    HW229678   1.501   9.146  12.433  0.0911  2.0821 -0.1251
 5985SOL     OW29679  12.017   2.025   5.078  0.1516 -0.1851 -0.1760
 5985SOL    HW129680  11.972   2.016   5.162 -0.9460 -1.8873 -0.8936
 5985SOL    HW229681  11.950   2.055   5.017  1.2333  2.2954 -0.2503
 5986SOL     OW29682   1.353   6.834   9.205  0.2988 -0.2267 -0.3299
 5986SOL    HW129683   1.360   6.740   9.187  2.0690 -0.2103  0.1157
 5986SOL    HW229684   1.386   6.844   9.294  1.4344  0.9726 -0.8564
 5987SOL     OW29685  11.974  12.994   5.406 -0.3636  0.4767  0.2737
 5987SOL    HW129686  11.911  13.048   5.454  0.3113  2.0710 -0.5650
 5987SOL    HW229687  11.931  12.978   5.322 -1.2570 -1.7354  1.0880
 5988SOL     OW29688   2.409  13.064   4.042  0.3821  0.1606  0.2765
 5988SOL    HW129689   2.408  13.101   3.954  3.6864 -0.3677 -0.1205
 5988SOL    HW229690   2.393  13.138   4.100  1.1698  1.0960 -0.6763
 5989SOL     OW29691   0.143   3.477   6.464  0.2038 -0.0374  0.5145
 5989SOL    HW129692   0.225   3.498   6.421 -0.8706  0.0011 -1.6512
 5989SOL    HW229693   0.121   3.389   6.431 -1.0457  0.3245  0.3281
 5990SOL     OW29694   1.916  10.615  11.355 -0.2990 -0.1433 -0.2824
 5990SOL    HW129695   1.907  10.649  11.444  1.7102 -0.3884  0.0589
 5990SOL    HW229696   1.959  10.686  11.307 -0.5259 -0.3718 -0.8330
 5991SOL     OW29697   9.659   0.328  13.072  0.3633  0.2249 -0.1107
 5991SOL    HW129698   9.602   0.401  13.097 -0.4765 -0.5696  0.4009
 5991SOL    HW229699   9.604   0.251  13.085  1.2940 -0.5079 -0.4559
 5992SOL     OW29700  13.642   3.115   6.746 -0.1340 -0.5150  0.0870
 5992SOL    HW129701  13.732   3.104   6.777 -0.6211 -2.9307  0.8957
 5992SOL    HW229702  13.650   3.127   6.652  1.1021  1.1986  0.3816
 5993SOL     OW29703  13.137  11.666   3.569 -0.0156 -0.2296 -0.4222
 5993SOL    HW129704  13.060  11.677   3.514  0.5584 -0.8186 -1.3728
 5993SOL    HW229705  13.211  11.674   3.509  0.6508 -0.1410  0.3915
 5994SOL     OW29706  11.996   0.567   9.606 -0.2528  0.4454 -0.3780
 5994SOL    HW129707  12.048   0.644   9.628 -0.2317  0.0427  1.0793
 5994SOL    HW229708  11.910   0.603   9.582 -0.2344  0.9273  0.2532
 5995SOL     OW29709   5.163   5.673   0.070  0.1875 -0.0774 -0.0415
 5995SOL    HW129710   5.072   5.644   0.074 -0.6038  2.1712 -0.1166
 5995SOL    HW229711   5.174   5.706  -0.019  1.3885 -1.1220 -0.3140
 5996SOL     OW29712  11.092   0.107   8.600  0.0981 -0.1192  0.7556
 5996SOL    HW129713  11.062   0.018   8.614  0.6910 -0.8703 -2.1056
 5996SOL    HW229714  11.043   0.137   8.524  1.2328  1.3335  0.5477
 5997SOL     OW29715   4.350   8.035   9.546 -0.0266 -0.3752 -0.1776
 5997SOL    HW129716   4.287   8.041   9.474  1.4521  2.0819 -1.4102
 5997SOL    HW229717   4.386   8.124   9.554  2.0372 -1.2742  1.5755
 5998SOL     OW29718  13.585   3.802  13.678 -0.3485  0.2990  0.3287
 5998SOL    HW129719  13.573   3.785  13.771 -0.3779 -0.2499  0.2286
 5998SOL    HW229720  13.654   3.742  13.651 -1.1530 -0.3993 -0.2469
 5999SOL     OW29721  12.453   8.135   3.665 -0.2972  0.0939 -0.6732
 5999SOL    HW129722  12.400   8.204   3.704 -0.0103 -0.1252  0.1063
 5999SOL    HW229723  12.394   8.060   3.660  0.0783 -0.3039  0.6723
 6000SOL     OW29724   1.665  10.406  12.843  0.0327 -0.2275 -0.1571
 6000SOL    HW129725   1.664  10.467  12.917  1.1071 -0.2957 -0.0765
 6000SOL    HW229726   1.597  10.439  12.784 -0.1469  0.4066  0.3945
 6001SOL     OW29727   5.589   8.133  11.560  0.2002  0.0049  0.1124
 6001SOL    HW129728   5.566   8.207  11.503 -2.1023  0.5600  1.6071
 6001SOL    HW229729   5.657   8.086  11.512  0.4591  2.0660 -1.7204
 6002SOL     OW29730   8.056  13.219   2.675 -0.0222 -0.4091 -0.0988
 6002SOL    HW129731   8.031  13.294   2.730 -0.1344  0.3879 -1.2053
 6002SOL    HW229732   8.006  13.146   2.711  0.3142 -0.0231  1.1900
 6003SOL     OW29733  12.967   3.233  13.591 -1.0194 -0.0015 -0.1835
 6003SOL    HW129734  13.029   3.174  13.549 -0.5717  0.7218 -0.5540
 6003SOL    HW229735  12.921   3.275  13.519  0.1800  1.7077 -0.0115
 6004SOL     OW29736   7.141  12.069   5.903  0.0296 -0.3078 -0.2515
 6004SOL    HW129737   7.204  12.137   5.877 -0.8591  0.7157  0.2214
 6004SOL    HW229738   7.128  12.084   5.997 -0.8288 -0.5882 -0.3229
 6005SOL     OW29739   8.807   1.003   1.974 -0.1329 -0.1392  0.3202
 6005SOL    HW129740   8.848   0.938   2.030 -0.9429 -0.4189  0.6019
 6005SOL    HW229741   8.810   0.964   1.886 -1.6304 -1.1100  0.6472
 6006SOL     OW29742  10.195   7.444  10.090 -0.1161 -0.0184 -0.3142
 6006SOL    HW129743  10.179   7.369  10.148  0.6876 -0.4747 -0.6679
 6006SOL    HW229744  10.193   7.406  10.002 -0.7446  0.5683 -0.5604
 6007SOL     OW29745   5.832   0.787   0.550 -0.2160  0.2023  0.1080
 6007SOL    HW129746   5.766   0.850   0.522  0.0097  0.7915  0.8905
 6007SOL    HW229747   5.816   0.774   0.643  2.1512  2.1061  0.8873
 6008SOL     OW29748   9.717  11.829   4.384 -0.0023 -0.1192 -0.4392
 6008SOL    HW129749   9.729  11.899   4.320 -0.6100  1.1040  0.7405
 6008SOL    HW229750   9.762  11.859   4.463 -2.0439 -0.0203  0.7796
 6009SOL     OW29751  10.037   8.278   4.204  0.5888 -0.3138 -0.2804
 6009SOL    HW129752  10.081   8.351   4.160 -2.0779 -0.4759 -3.6284
 6009SOL    HW229753  10.067   8.200   4.158  0.6254 -0.9892  0.8417
 6010SOL     OW29754   0.024   4.246   8.259 -0.1399  0.5877  0.2172
 6010SOL    HW129755  -0.056   4.199   8.283  0.0908  0.1302  0.0994
 6010SOL    HW229756   0.055   4.283   8.341  0.0287 -0.0144  0.4313
 6011SOL     OW29757   9.682  10.204   5.555 -0.2444  0.1546 -0.1993
 6011SOL    HW129758   9.675  10.278   5.616  0.3033 -0.8350  1.0970
 6011SOL    HW229759   9.723  10.241   5.477 -1.8139  1.6587 -0.3605
 6012SOL     OW29760   7.971   4.999   1.257 -0.5438  0.2108  0.4528
 6012SOL    HW129761   8.038   5.066   1.240 -0.2692 -0.4671 -1.4429
 6012SOL    HW229762   8.009   4.918   1.222 -2.2857 -0.2162 -0.5568
 6013SOL     OW29763   0.361   3.665   3.046  0.3385  0.5244  0.1244
 6013SOL    HW129764   0.276   3.646   3.085 -0.1572  0.4013 -0.9745
 6013SOL    HW229765   0.393   3.580   3.015 -0.0547  0.8366 -1.2138
 6014SOL     OW29766   0.921   3.086   8.113 -0.2068  0.3560  0.0229
 6014SOL    HW129767   0.914   3.182   8.108 -1.2073  0.3321  0.5884
 6014SOL    HW229768   1.013   3.069   8.131  0.2886  1.1366 -1.5847
 6015SOL     OW29769  10.556   1.917   3.767 -0.3418  0.1359  0.5487
 6015SOL    HW129770  10.496   1.925   3.840 -1.8639 -1.0458 -0.5116
 6015SOL    HW229771  10.589   1.827   3.772 -0.0614  0.2087  0.0850
 6016SOL     OW29772   9.334  11.291   9.915  0.4033  0.3100  0.5344
 6016SOL    HW129773   9.385  11.234   9.859  0.5043  0.5750  0.3527
 6016SOL    HW229774   9.355  11.380   9.884  0.2894  0.4463  0.8430
 6017SOL     OW29775  11.544   1.455   1.063  0.0463  0.5765  0.3116
 6017SOL    HW129776  11.474   1.415   1.115  0.8621 -1.0903  0.1793
 6017SOL    HW229777  11.576   1.527   1.118 -0.4267  0.0848  1.2696
 6018SOL     OW29778   6.968  10.669   7.621  0.3163 -0.2555  0.2555
 6018SOL    HW129779   6.983  10.581   7.587 -0.9982 -0.3227 -0.2109
 6018SOL    HW229780   6.876  10.669   7.649 -0.1065  1.3259 -0.9512
 6019SOL     OW29781   6.589   4.612  13.419 -0.2048  0.0312  0.2203
 6019SOL    HW129782   6.530   4.614  13.494  0.0464 -0.0701  0.4249
 6019SOL    HW229783   6.662   4.557  13.448  0.7235  1.3800  0.5333
 6020SOL     OW29784  12.209   7.359  12.435  0.2400  0.0983  0.0874
 6020SOL    HW129785  12.196   7.350  12.530 -0.0661 -0.8925 -0.0391
 6020SOL    HW229786  12.132   7.319  12.396  1.3548 -1.5289 -0.5922
 6021SOL     OW29787   5.324   1.310   8.024  0.1069  0.3360 -0.0435
 6021SOL    HW129788   5.355   1.332   8.112 -0.9130 -1.8528  0.9263
 6021SOL    HW229789   5.232   1.288   8.036 -0.3039  0.9518 -1.8543
 6022SOL     OW29790   9.496  11.521   1.555  0.4070 -0.0991 -0.0596
 6022SOL    HW129791   9.480  11.603   1.509  0.3052  0.1810  0.4715
 6022SOL    HW229792   9.584  11.530   1.592 -0.5637  0.8120  2.1468
 6023SOL     OW29793   9.963  12.245   9.507  0.8266 -0.0520  0.2565
 6023SOL    HW129794   9.903  12.191   9.559  0.5900 -1.9815 -1.8776
 6023SOL    HW229795  10.017  12.290   9.573  0.3519 -2.1040  2.1943
 6024SOL     OW29796   3.310   8.773  12.711 -0.5188 -0.0721  0.5513
 6024SOL    HW129797   3.364   8.774  12.791 -0.8415  0.2593  0.7654
 6024SOL    HW229798   3.353   8.836  12.653  0.2463 -0.9693  0.0993
 6025SOL     OW29799   9.741   9.526  11.668  0.0185 -0.1547  0.6339
 6025SOL    HW129800   9.756   9.539  11.762  1.9910 -0.9001  0.4559
 6025SOL    HW229801   9.687   9.601  11.642 -2.2844 -0.9389  2.7222
 6026SOL     OW29802   9.377   9.543  10.163 -0.4140 -0.8665  0.3556
 6026SOL    HW129803   9.369   9.485  10.238 -2.4323  1.1581  1.8395
 6026SOL    HW229804   9.289   9.546  10.125  0.4073 -1.3255 -1.7669
 6027SOL     OW29805  11.526   6.913   9.168  0.3030  0.1623 -0.0350
 6027SOL    HW129806  11.472   6.991   9.177  1.5634  1.1875 -0.8830
 6027SOL    HW229807  11.563   6.899   9.256  1.5445  1.6951 -0.2583
 6028SOL     OW29808  11.623   8.023   3.751 -0.5110  0.1426  0.5910
 6028SOL    HW129809  11.647   7.934   3.777 -0.1326  0.0690  0.0063
 6028SOL    HW229810  11.706   8.065   3.730 -0.7708  0.2975 -0.1642
 6029SOL     OW29811   3.553   9.992  13.278  0.6836  0.8203  0.6222
 6029SOL    HW129812   3.589  10.032  13.199  1.1026 -1.1335 -0.2200
 6029SOL    HW229813   3.626   9.989  13.339  0.6803  1.2007  0.6489
 6030SOL     OW29814  13.289   7.097   9.603 -0.0255  0.2583  0.3671
 6030SOL    HW129815  13.280   7.135   9.690 -1.4963 -0.3456  0.5106
 6030SOL    HW229816  13.351   7.154   9.557 -0.7594  1.7354  1.1637
 6031SOL     OW29817   3.668  12.038   6.887 -0.8013 -0.2079 -0.1521
 6031SOL    HW129818   3.734  11.975   6.919 -0.5742 -0.4404 -1.0563
 6031SOL    HW229819   3.702  12.067   6.803 -1.3750  0.4341 -0.1680
 6032SOL     OW29820   0.560   7.267   8.181 -0.3599 -0.2340 -0.0240
 6032SOL    HW129821   0.513   7.299   8.104  0.7099  0.5928 -0.3615
 6032SOL    HW229822   0.637   7.223   8.144  0.4376  0.6278  0.5662
 6033SOL     OW29823   0.320  12.776   7.593 -0.4084  0.5180  1.1544
 6033SOL    HW129824   0.319  12.756   7.687 -0.2472  2.5337  1.6238
 6033SOL    HW229825   0.360  12.863   7.587  2.5318 -0.7989 -1.0724
 6034SOL     OW29826   4.072   2.866   5.336  0.4580  0.3542 -0.1503
 6034SOL    HW129827   4.135   2.842   5.268 -0.5596 -0.2472 -0.9042
 6034SOL    HW229828   4.052   2.958   5.319 -0.0961  0.0962 -0.9159
 6035SOL     OW29829   4.441  10.350   7.147  0.1770  0.1580  0.5702
 6035SOL    HW129830   4.435  10.365   7.053  1.0952  1.4760  0.7061
 6035SOL    HW229831   4.417  10.433   7.187 -3.3435 -1.1766  1.6619
 6036SOL     OW29832   2.009   1.602   7.306 -0.3411 -0.0723 -0.3755
 6036SOL    HW129833   1.996   1.518   7.263 -0.3491 -0.4951  0.4382
 6036SOL    HW229834   1.922   1.626   7.338 -0.1844 -0.1545  0.1112
 6037SOL     OW29835   1.103   1.736   2.658 -0.2171  0.2123 -0.0113
 6037SOL    HW129836   1.146   1.751   2.574 -1.9087  0.5396 -0.8609
 6037SOL    HW229837   1.022   1.691   2.636 -1.2516  1.3231  1.3188
 6038SOL     OW29838  11.738   0.743   7.808  0.9527  0.6197  0.2994
 6038SOL    HW129839  11.674   0.688   7.855  1.8978  0.0215  0.9072
 6038SOL    HW229840  11.701   0.831   7.811 -0.2682  0.1460 -0.1169
 6039SOL     OW29841   5.452  13.707  13.343 -0.1959  0.2388 -0.8877
 6039SOL    HW129842   5.497  13.624  13.330  0.4732  0.5037 -0.3179
 6039SOL    HW229843   5.475  13.734  13.432 -1.3449  0.4721 -0.6432
 6040SOL     OW29844   2.571   7.918   3.583 -0.4854 -0.0135 -0.2492
 6040SOL    HW129845   2.587   7.853   3.651  1.6401 -0.3238 -0.9740
 6040SOL    HW229846   2.530   7.992   3.628 -1.0428 -1.0210  0.9499
 6041SOL     OW29847   0.254   4.118   1.809 -0.1342 -0.8888 -0.4355
 6041SOL    HW129848   0.184   4.089   1.751 -1.6009  0.9058  0.3523
 6041SOL    HW229849   0.257   4.213   1.799 -0.2744 -0.5159  2.1817
 6042SOL     OW29850   2.334   3.226  10.315  0.0422 -0.0151  0.2311
 6042SOL    HW129851   2.383   3.247  10.394  0.6381  0.9269 -0.3755
 6042SOL    HW229852   2.400   3.200  10.252  0.0621  3.0025 -1.1757
 6043SOL     OW29853   2.367   9.037   0.045 -0.2164 -0.3113 -0.2450
 6043SOL    HW129854   2.278   9.062   0.020 -0.4927 -0.9531  0.0770
 6043SOL    HW229855   2.423   9.094  -0.008 -0.7989 -0.9846 -1.6568
 6044SOL     OW29856   0.150   3.277   6.271 -0.2632  0.0308 -0.2715
 6044SOL    HW129857   0.076   3.282   6.211 -0.6080 -0.4740  0.1070
 6044SOL    HW229858   0.226   3.302   6.218 -0.8813  2.0590 -0.2991
 6045SOL     OW29859   3.059   3.832   9.207 -0.5841 -0.1153  0.2945
 6045SOL    HW129860   2.970   3.811   9.233 -0.3179 -0.2447  1.1299
 6045SOL    HW229861   3.112   3.760   9.243  0.0199  0.6627  1.0069
 6046SOL     OW29862   1.618  12.110  11.369  0.0792 -0.2142  0.4354
 6046SOL    HW129863   1.625  12.093  11.275  1.4415 -1.0385  0.6626
 6046SOL    HW229864   1.700  12.076  11.406 -0.4275  0.1081  1.9212
 6047SOL     OW29865  12.073   4.972   5.114  0.7664 -0.1036 -0.7687
 6047SOL    HW129866  12.103   5.063   5.118 -2.2934  1.0577 -1.7872
 6047SOL    HW229867  12.049   4.959   5.023 -1.1176 -1.0891 -0.1736
 6048SOL     OW29868   0.288   8.990  11.583 -0.0343 -0.1730 -0.1550
 6048SOL    HW129869   0.261   9.044  11.509 -0.3101  0.3434  0.3162
 6048SOL    HW229870   0.239   9.024  11.658  1.8325  0.7671  0.7298
 6049SOL     OW29871   2.909  12.316   1.932 -0.2702 -0.2653 -0.6172
 6049SOL    HW129872   2.888  12.356   2.016  1.3842  0.1872 -0.3930
 6049SOL    HW229873   2.919  12.223   1.951 -0.3695 -0.2357 -0.4135
 6050SOL     OW29874  13.008  13.542   1.644  0.3433 -0.2473 -0.1651
 6050SOL    HW129875  13.075  13.593   1.690 -1.4109  1.6510  0.4694
 6050SOL    HW229876  13.037  13.541   1.553  1.8873 -0.6261  0.3124
 6051SOL     OW29877   9.596   8.012   8.338 -0.2096 -0.1553 -0.4987
 6051SOL    HW129878   9.515   7.968   8.367 -0.5789  0.7935 -0.0331
 6051SOL    HW229879   9.570   8.061   8.260  0.3985 -1.3930 -1.5059
 6052SOL     OW29880  12.273  10.872   4.631 -0.1174  0.6997  0.3605
 6052SOL    HW129881  12.273  10.919   4.548  2.0244 -0.4581 -0.3491
 6052SOL    HW229882  12.298  10.938   4.696  1.8072  0.8336 -0.4639
 6053SOL     OW29883   5.528   4.043  11.325  0.0660  0.2993 -0.3053
 6053SOL    HW129884   5.512   4.122  11.274 -0.6831 -0.4948 -1.3582
 6053SOL    HW229885   5.559   3.979  11.261 -0.6148 -0.6394  0.2761
 6054SOL     OW29886   5.198   8.061   5.974  0.3622 -0.5395 -0.0203
 6054SOL    HW129887   5.165   8.102   6.054 -0.2648 -2.5530  0.8236
 6054SOL    HW229888   5.294   8.065   5.982  0.3081  0.0374  0.3914
 6055SOL     OW29889   8.212   9.248  13.380 -0.0374  0.4152 -0.5096
 6055SOL    HW129890   8.189   9.314  13.315 -0.5272  0.6387 -0.1209
 6055SOL    HW229891   8.233   9.299  13.459 -0.3184  0.1131 -0.2362
 6056SOL     OW29892   0.926   1.600   1.340 -0.3743  0.8962 -0.0936
 6056SOL    HW129893   0.965   1.630   1.258 -0.0233 -1.1420 -0.7122
 6056SOL    HW229894   0.835   1.631   1.335 -0.6151  0.0335 -1.6935
 6057SOL     OW29895   7.572   0.779   2.131 -0.4372  0.0168  0.1475
 6057SOL    HW129896   7.588   0.852   2.071 -1.7088  2.2809  2.3590
 6057SOL    HW229897   7.644   0.782   2.193 -1.2372  0.3659  1.0934
 6058SOL     OW29898  11.835   1.787   8.258  0.0409  0.1453 -0.0410
 6058SOL    HW129899  11.868   1.853   8.197 -1.1675  1.2322  0.4327
 6058SOL    HW229900  11.774   1.734   8.205 -1.3614  1.3743  0.2770
 6059SOL     OW29901   2.117   1.317   3.047 -0.2610 -0.0308  0.1494
 6059SOL    HW129902   2.147   1.273   2.967  0.0685 -1.0576  0.8207
 6059SOL    HW229903   2.190   1.310   3.108 -1.0493 -0.6435  1.0650
 6060SOL     OW29904   1.647   6.925   3.498 -0.6178 -0.1046 -0.0297
 6060SOL    HW129905   1.580   6.982   3.459 -1.2459 -1.4924 -1.0745
 6060SOL    HW229906   1.597   6.868   3.557  0.0859  0.7775  1.4775
 6061SOL     OW29907   7.932   0.542  10.908 -0.1213  0.0204 -0.0863
 6061SOL    HW129908   7.885   0.624  10.893 -0.2572 -0.3025 -1.6199
 6061SOL    HW229909   8.022   0.561  10.883 -0.1300 -0.2510 -0.3410
 6062SOL     OW29910   1.871   3.267   8.432 -0.5037 -0.3658  0.4612
 6062SOL    HW129911   1.858   3.362   8.435 -1.8116 -0.4873 -0.5299
 6062SOL    HW229912   1.965   3.255   8.450 -0.1932  1.1472 -0.0148
 6063SOL     OW29913   6.608  10.429   5.969  0.5563  0.4093  0.6320
 6063SOL    HW129914   6.654  10.512   5.963  1.2343  0.0661  0.9647
 6063SOL    HW229915   6.549  10.439   6.044 -0.2994  1.0310 -0.1129
 6064SOL     OW29916  11.217   5.914  12.046  0.3928 -0.0030 -0.2236
 6064SOL    HW129917  11.259   5.970  11.981  1.1102  0.9945  1.0515
 6064SOL    HW229918  11.286   5.895  12.110 -0.0033 -1.8285 -0.2650
 6065SOL     OW29919  12.705  13.398  13.427 -0.0639  0.0098  0.4739
 6065SOL    HW129920  12.762  13.393  13.350  1.9743  1.1564  1.8309
 6065SOL    HW229921  12.628  13.346  13.403  1.3991 -1.3658 -1.5696
 6066SOL     OW29922  10.571   4.484   3.924  0.0360 -0.1887  0.7065
 6066SOL    HW129923  10.600   4.417   3.861  0.1492 -0.1555  0.7235
 6066SOL    HW229924  10.627   4.470   4.001  0.9266  0.7309  0.2548
 6067SOL     OW29925   1.136   1.313   6.245 -0.2128 -0.3863  0.0006
 6067SOL    HW129926   1.203   1.333   6.180  0.2291 -1.1190  0.2271
 6067SOL    HW229927   1.162   1.229   6.282 -0.6176 -0.1081  0.9336
 6068SOL     OW29928   9.684  12.382  11.557 -0.1441  0.7157  0.3078
 6068SOL    HW129929   9.701  12.469  11.592 -0.8433  0.9279  0.1234
 6068SOL    HW229930   9.589  12.373  11.558 -0.0877  0.0022  0.2051
 6069SOL     OW29931   0.193  13.137   7.997 -0.1814  0.2152 -0.4609
 6069SOL    HW129932   0.221  13.051   7.964 -0.5787  0.6271 -1.9604
 6069SOL    HW229933   0.220  13.137   8.088 -0.9789 -1.8652 -0.1606
 6070SOL     OW29934   6.090   9.435   1.652 -0.7958  0.0085 -0.0886
 6070SOL    HW129935   6.053   9.421   1.565  0.7288  1.1392 -0.9970
 6070SOL    HW229936   6.130   9.523   1.646 -0.1971 -0.1220  1.5736
 6071SOL     OW29937   0.324   7.726   1.643 -0.1881 -0.0114 -0.5118
 6071SOL    HW129938   0.381   7.751   1.570 -1.1240  1.5141 -0.7660
 6071SOL    HW229939   0.382   7.678   1.703  0.8155 -0.4937 -1.8014
 6072SOL     OW29940   7.092   3.442   5.478  0.1142  0.3096  0.6746
 6072SOL    HW129941   7.131   3.354   5.479  1.9039  1.0411  2.8407
 6072SOL    HW229942   7.157   3.496   5.434  0.1940  1.0028  1.6258
 6073SOL     OW29943  10.728  13.225   1.537 -0.0182 -0.6695  0.1456
 6073SOL    HW129944  10.703  13.290   1.602 -2.5275 -0.5453 -0.8195
 6073SOL    HW229945  10.755  13.275   1.460  0.6865 -0.8090  0.2928
 6074SOL     OW29946  11.881   7.536   0.572 -0.0636 -0.1076 -0.0148
 6074SOL    HW129947  11.910   7.478   0.501 -2.4035 -1.5465  0.0720
 6074SOL    HW229948  11.952   7.533   0.636  1.4433  0.0188 -1.6017
 6075SOL     OW29949   6.385   0.938  12.226 -0.6217 -0.1163  0.3040
 6075SOL    HW129950   6.386   0.850  12.188  2.2913  0.5507 -1.4194
 6075SOL    HW229951   6.370   0.996  12.151  0.0543  0.9879  0.9963
 6076SOL     OW29952   0.447   7.335   2.185 -0.8268 -0.2115 -0.0974
 6076SOL    HW129953   0.417   7.315   2.097 -0.7996 -0.7686  0.0162
 6076SOL    HW229954   0.413   7.263   2.239 -0.8012  0.0950  0.3390
 6077SOL     OW29955   3.569  11.441   3.714  0.0734 -0.1737  0.1393
 6077SOL    HW129956   3.639  11.507   3.715  0.5320 -0.6266 -0.9406
 6077SOL    HW229957   3.588  11.386   3.638 -1.3584 -0.4330 -0.0590
 6078SOL     OW29958   0.988   6.361  10.631 -0.2548 -0.2642 -0.1613
 6078SOL    HW129959   0.906   6.348  10.679 -0.9970 -0.5339 -1.4749
 6078SOL    HW229960   0.963   6.411  10.553  1.0050  0.5497 -0.0825
 6079SOL     OW29961  11.323  12.983   3.061 -0.0591 -0.1553 -0.6528
 6079SOL    HW129962  11.349  12.917   2.997  1.3835  0.1313 -0.4109
 6079SOL    HW229963  11.349  12.946   3.146  1.4261  0.9743 -0.5674
 6080SOL     OW29964   3.116   2.533   1.285  0.7479  0.4437  0.0419
 6080SOL    HW129965   3.160   2.530   1.370 -0.2006  1.1834  0.5779
 6080SOL    HW229966   3.066   2.614   1.287 -0.1742 -0.0807 -0.7803
 6081SOL     OW29967   0.128   3.952  10.782 -0.3659  0.1577  0.1599
 6081SOL    HW129968   0.209   3.989  10.818 -1.1092  0.1126  1.9831
 6081SOL    HW229969   0.154   3.916  10.697  1.4938  0.2740  0.6376
 6082SOL     OW29970   8.952  11.164   5.898  0.3409  0.1582 -0.0615
 6082SOL    HW129971   8.925  11.085   5.945 -1.8363 -0.3736 -2.0324
 6082SOL    HW229972   8.986  11.222   5.967  2.5584 -2.6197  1.3732
 6083SOL     OW29973   0.877   4.461   8.676 -0.2617 -0.1392  0.2352
 6083SOL    HW129974   0.968   4.436   8.659 -0.0329 -0.3147  1.5874
 6083SOL    HW229975   0.836   4.380   8.707 -0.7684  0.0386  0.0193
 6084SOL     OW29976  10.089  12.565   0.966  0.1007 -0.1074 -0.5077
 6084SOL    HW129977  10.131  12.479   0.966 -0.1588 -0.2334 -0.6862
 6084SOL    HW229978  10.104  12.599   1.054  2.8304  0.9490 -1.2757
 6085SOL     OW29979   4.040   8.852   5.004  0.1328  0.1810  0.0983
 6085SOL    HW129980   4.003   8.771   5.038  2.2743 -1.9367 -2.1787
 6085SOL    HW229981   4.090   8.888   5.078  0.9468 -1.8089  0.5870
 6086SOL     OW29982   1.895   1.845  10.738 -0.6183  0.1827  0.5828
 6086SOL    HW129983   1.882   1.804  10.653  0.2950 -1.0919  1.0287
 6086SOL    HW229984   1.972   1.901  10.726  0.3036 -0.9953  0.8901
 6087SOL     OW29985  13.090   1.660   2.579  0.4475  0.1281  0.0073
 6087SOL    HW129986  13.075   1.623   2.666  2.9145 -1.6204 -0.2102
 6087SOL    HW229987  13.160   1.723   2.592  0.4853  0.2202 -0.6288
 6088SOL     OW29988   3.443  13.288  10.765 -0.5158 -0.0875 -0.0279
 6088SOL    HW129989   3.520  13.323  10.809 -0.2779  0.2331 -0.6738
 6088SOL    HW229990   3.474  13.263  10.678  0.0044 -4.5556  1.2172
 6089SOL     OW29991   9.124   2.723   7.896  0.3509 -0.5471  0.0826
 6089SOL    HW129992   9.084   2.675   7.969 -0.4077  0.3129  0.2477
 6089SOL    HW229993   9.199   2.767   7.936  0.4460 -0.7764  0.1570
 6090SOL     OW29994   8.333   4.543   1.654  0.1360  0.1392  0.3002
 6090SOL    HW129995   8.380   4.551   1.571  0.5971 -2.0800  0.2920
 6090SOL    HW229996   8.249   4.504   1.631  1.2716 -3.0579  1.0435
 6091SOL     OW29997   4.117   2.355   8.640 -0.3266  0.0266 -0.2290
 6091SOL    HW129998   4.150   2.274   8.678  1.0166  1.0047  0.8260
 6091SOL    HW229999   4.066   2.395   8.711  1.4402  1.4390  0.3298
 6092SOL     OW30000  10.418   8.424   8.399 -0.2484  0.9912 -0.3925
 6092SOL    HW130001  10.420   8.371   8.319  0.5338 -1.0021  0.8709
 6092SOL    HW230002  10.500   8.473   8.396  0.0001  0.5753 -0.5967
 6093SOL     OW30003   5.630   5.151   1.838  0.0553 -0.2885  0.0113
 6093SOL    HW130004   5.723   5.154   1.860 -0.0673 -0.4527  0.5611
 6093SOL    HW230005   5.599   5.240   1.857  0.0849 -0.2458 -0.1337
 6094SOL     OW30006  10.718   8.630  10.887  0.4139  0.0168 -0.4445
 6094SOL    HW130007  10.640   8.624  10.832 -0.9718  1.1056  1.2459
 6094SOL    HW230008  10.720   8.547  10.934  1.5360 -0.8679 -1.9984
 6095SOL     OW30009   4.231  10.951   7.163 -0.1067 -0.2806  0.4514
 6095SOL    HW130010   4.142  10.981   7.143  0.3300  2.0619  1.6143
 6095SOL    HW230011   4.252  10.888   7.094 -2.2041  0.0263 -0.5426
 6096SOL     OW30012   9.476   3.402   9.233 -0.5954 -0.0588 -0.0587
 6096SOL    HW130013   9.544   3.393   9.300 -0.9147  1.4825  0.4891
 6096SOL    HW230014   9.514   3.360   9.156  0.1883 -0.9471  0.7789
 6097SOL     OW30015   4.162   0.009  13.673 -0.4539 -0.4136  0.9830
 6097SOL    HW130016   4.177   0.020  13.579  1.4387 -1.8542  1.0642
 6097SOL    HW230017   4.240  -0.036  13.705 -0.9042  0.3493  3.3332
 6098SOL     OW30018  11.378   4.681   8.531  0.4362 -0.3742 -0.0656
 6098SOL    HW130019  11.434   4.755   8.555 -0.2437 -0.1991  1.0298
 6098SOL    HW230020  11.295   4.697   8.577  0.1999 -1.7100  0.0186
 6099SOL     OW30021   0.894  12.790  10.273 -0.0683  0.7416  0.2516
 6099SOL    HW130022   0.912  12.697  10.256 -0.7073  0.8568 -1.1459
 6099SOL    HW230023   0.923  12.803  10.363  0.8362 -0.6040  0.1874
 6100SOL     OW30024  11.171   0.591   8.504  0.1950 -0.2192 -0.0061
 6100SOL    HW130025  11.255   0.613   8.542  0.1635  0.0514 -0.0898
 6100SOL    HW230026  11.149   0.506   8.541  1.2985 -1.0951 -1.2936
 6101SOL     OW30027   9.806   5.934   5.348  0.0226 -0.5326 -0.1503
 6101SOL    HW130028   9.824   6.020   5.385  0.4325 -0.1217 -1.2744
 6101SOL    HW230029   9.892   5.899   5.325 -0.0928 -1.4697  0.7363
 6102SOL     OW30030   4.339   3.313   0.279  0.0318  0.1927 -0.5177
 6102SOL    HW130031   4.310   3.226   0.305 -2.0102  0.6558 -1.0872
 6102SOL    HW230032   4.368   3.303   0.189 -1.4731  0.3161 -1.0445
 6103SOL     OW30033  10.387  13.594   5.256 -0.3628  0.3366  0.5771
 6103SOL    HW130034  10.378  13.687   5.238  0.0996  0.3693  0.5104
 6103SOL    HW230035  10.298  13.565   5.276 -0.5880  0.6891  0.1146
 6104SOL     OW30036   9.867   9.896   0.155  0.2682 -0.2786 -0.1794
 6104SOL    HW130037   9.871   9.988   0.183  2.6313 -1.1631  3.1467
 6104SOL    HW230038   9.796   9.859   0.206  0.4654 -0.6386 -0.1648
 6105SOL     OW30039   8.854   1.857   5.289 -0.6264  0.2155  0.1634
 6105SOL    HW130040   8.830   1.858   5.197  3.3076 -1.0189 -1.0835
 6105SOL    HW230041   8.948   1.872   5.289 -0.2225 -1.2754  3.8721
 6106SOL     OW30042   8.083   9.270   5.909  0.5265  0.7686 -1.1315
 6106SOL    HW130043   8.020   9.318   5.855 -0.4145  0.1375 -0.6171
 6106SOL    HW230044   8.108   9.333   5.977 -0.9528  0.4609 -0.2643
 6107SOL     OW30045  11.177   1.398   9.007  0.1885  0.0483  0.3541
 6107SOL    HW130046  11.091   1.431   9.034 -0.2686  0.0146 -0.9914
 6107SOL    HW230047  11.160   1.350   8.926  1.7130  1.4318 -0.8483
 6108SOL     OW30048   6.797   3.479   5.212 -0.2191 -0.2483 -0.4094
 6108SOL    HW130049   6.789   3.438   5.298  0.3461  1.3401  0.4414
 6108SOL    HW230050   6.882   3.449   5.179  0.0458 -0.0153  0.0563
 6109SOL     OW30051  13.123  12.457  12.871  0.2059 -0.0430  0.3311
 6109SOL    HW130052  13.061  12.521  12.835  0.6813 -0.7969 -1.9894
 6109SOL    HW230053  13.208  12.484  12.838  0.5826 -1.1281  0.3515
 6110SOL     OW30054   0.703  10.550   4.687 -0.3519 -0.2027  0.6908
 6110SOL    HW130055   0.686  10.457   4.700 -1.0015  0.0335  1.6158
 6110SOL    HW230056   0.728  10.582   4.773 -1.7633  0.8149  0.7513
 6111SOL     OW30057  10.438   5.840  11.165  0.0143 -0.2918  0.3861
 6111SOL    HW130058  10.396   5.922  11.191 -2.2933 -1.1281 -0.4186
 6111SOL    HW230059  10.413   5.777  11.233  0.3783 -0.7168  0.1365
 6112SOL     OW30060   6.104   9.969   6.793 -0.4398  0.0772 -0.0486
 6112SOL    HW130061   6.075   9.881   6.768 -0.6164  0.0403  0.2896
 6112SOL    HW230062   6.066   9.984   6.879  3.0176 -1.1719  1.8636
 6113SOL     OW30063  12.134   1.563  12.372  0.2035 -0.2475 -0.7099
 6113SOL    HW130064  12.138   1.601  12.461  0.7401 -0.5466 -0.6020
 6113SOL    HW230065  12.060   1.608  12.331  0.7654  0.8661 -0.5519
 6114SOL     OW30066   8.262   9.388   7.096  0.2287 -0.3109 -0.0620
 6114SOL    HW130067   8.194   9.321   7.097  1.5180 -1.7106 -1.4740
 6114SOL    HW230068   8.244   9.441   7.019 -1.0794  1.3688  1.3195
 6115SOL     OW30069  12.792   2.318   3.577  0.1570 -0.2051  0.0419
 6115SOL    HW130070  12.846   2.376   3.523  0.5556 -1.9085 -1.5334
 6115SOL    HW230071  12.841   2.307   3.658  0.1870  1.4022  0.2755
 6116SOL     OW30072  11.662   4.584   8.417 -0.2347 -0.5272 -0.0375
 6116SOL    HW130073  11.693   4.589   8.326  1.8445 -0.1796  0.6239
 6116SOL    HW230074  11.595   4.652   8.424 -0.1785 -0.3294 -1.2270
 6117SOL     OW30075   2.757   7.543   8.064 -0.0785 -0.5525  0.8672
 6117SOL    HW130076   2.728   7.557   7.974  0.3518 -0.1589  0.7858
 6117SOL    HW230077   2.840   7.589   8.070  0.9932 -2.4049  0.8457
 6118SOL     OW30078   4.862   4.203  12.107  0.3988  0.6839 -0.4849
 6118SOL    HW130079   4.871   4.189  12.013  1.0564  0.1265 -0.3459
 6118SOL    HW230080   4.913   4.133  12.147  1.1462  1.6314  0.2739
 6119SOL     OW30081   2.697  11.185  11.714 -0.5100 -0.8255 -0.1392
 6119SOL    HW130082   2.714  11.092  11.729 -0.1792 -0.6206  0.8411
 6119SOL    HW230083   2.673  11.190  11.622  0.1538 -1.7886 -0.3818
 6120SOL     OW30084   5.796   3.980   9.370  0.1263  0.2577  0.1086
 6120SOL    HW130085   5.834   3.894   9.352 -2.7049 -1.0492 -0.3440
 6120SOL    HW230086   5.797   4.025   9.285  1.6768  0.7362  0.3596
 6121SOL     OW30087   1.835   1.584   5.210 -0.1633  0.0698  0.5811
 6121SOL    HW130088   1.918   1.607   5.168  1.4660 -1.3439  2.7942
 6121SOL    HW230089   1.778   1.558   5.137  1.8734 -0.4866 -0.9198
 6122SOL     OW30090   8.887   4.580   2.788  0.4962 -0.2737  0.7340
 6122SOL    HW130091   8.839   4.636   2.850 -0.8294 -0.2876 -0.2478
 6122SOL    HW230092   8.929   4.642   2.728  0.5811 -0.2937  0.7727
 6123SOL     OW30093   0.728   8.400   2.870  0.2261 -0.5613  0.0552
 6123SOL    HW130094   0.672   8.451   2.812  0.6646  1.3759  1.2687
 6123SOL    HW230095   0.668   8.360   2.933  0.0781  1.1095  1.0472
 6124SOL     OW30096   3.664   6.036  11.743 -0.0660  0.0513  0.2946
 6124SOL    HW130097   3.716   6.112  11.767  0.6265  0.1674 -1.3820
 6124SOL    HW230098   3.725   5.962  11.749 -0.2258 -0.0943  0.1508
 6125SOL     OW30099   8.480   7.197  12.210  0.1785 -0.0512  0.0484
 6125SOL    HW130100   8.496   7.240  12.126 -2.2412  0.2323 -0.3248
 6125SOL    HW230101   8.533   7.117  12.207 -1.4560 -1.1580 -2.6816
 6126SOL     OW30102   0.497  10.696  11.595  0.5401 -0.0480  0.3116
 6126SOL    HW130103   0.452  10.640  11.658 -0.2714  1.2203  0.8972
 6126SOL    HW230104   0.588  10.696  11.623  0.3555 -0.2293  0.9300
 6127SOL     OW30105   3.540   4.143   1.123  0.1222 -0.0624  0.4361
 6127SOL    HW130106   3.632   4.134   1.149 -0.6095 -1.9427  2.5887
 6127SOL    HW230107   3.529   4.080   1.052  0.7212  0.9513 -0.5881
 6128SOL     OW30108  10.194   0.745  10.193 -0.5021 -0.3647 -0.4263
 6128SOL    HW130109  10.119   0.686  10.183 -0.7834  0.0508 -0.7906
 6128SOL    HW230110  10.198   0.793  10.111 -0.4651  0.3389 -0.0218
 6129SOL     OW30111   6.552   1.256  12.924  0.0344  0.1648  0.6834
 6129SOL    HW130112   6.621   1.286  12.865 -0.2603  0.3525  0.4323
 6129SOL    HW230113   6.471   1.274  12.877 -0.2513  1.1693  1.5101
 6130SOL     OW30114   2.093   3.772   8.348  0.0681 -0.3364  0.0862
 6130SOL    HW130115   2.117   3.687   8.386 -0.5519 -1.9774 -2.8858
 6130SOL    HW230116   2.171   3.799   8.300 -0.5117 -0.4536 -0.9440
 6131SOL     OW30117  13.683  10.601  11.627  0.4437 -0.0217 -0.1108
 6131SOL    HW130118  13.700  10.601  11.533  0.5072  0.4021 -0.0997
 6131SOL    HW230119  13.770  10.587  11.666  0.5556  0.6911 -0.0937
 6132SOL     OW30120   4.802  10.056  13.376 -0.0759  0.0797 -0.6042
 6132SOL    HW130121   4.870  10.055  13.309  0.2492  1.6764 -0.3432
 6132SOL    HW230122   4.724  10.087  13.330  0.4607  2.4856 -0.0588
 6133SOL     OW30123  10.036  13.090   9.707  0.1868 -0.0975 -0.3056
 6133SOL    HW130124  10.117  13.117   9.751 -0.3490  1.6327 -0.3031
 6133SOL    HW230125  10.002  13.019   9.761  0.7688  0.3831  0.7353
 6134SOL     OW30126   4.198   5.156   6.438 -0.0956 -0.0021  0.3715
 6134SOL    HW130127   4.109   5.135   6.465 -0.0632  0.9619  1.3253
 6134SOL    HW230128   4.211   5.107   6.357 -2.0663  1.0595 -0.6827
 6135SOL     OW30129   9.023   8.965  11.591  0.0606  0.1374  0.2275
 6135SOL    HW130130   9.059   9.022  11.523 -2.9565 -1.2581 -2.8713
 6135SOL    HW230131   9.082   8.890  11.594  1.2127  1.0309  0.5324
 6136SOL     OW30132   2.185   8.127  10.842  0.2344 -0.0311  0.1255
 6136SOL    HW130133   2.213   8.218  10.858  0.3018 -0.2280  1.1644
 6136SOL    HW230134   2.267   8.079  10.830  0.3508 -0.4446  2.2937
 6137SOL     OW30135   5.439   1.471   8.594 -0.2214 -0.1295  0.9166
 6137SOL    HW130136   5.410   1.429   8.675 -0.7624  1.8002  1.7798
 6137SOL    HW230137   5.358   1.498   8.550  0.1070  0.6489  0.7650
 6138SOL     OW30138   9.043  11.965   4.550 -0.3915  0.2873  0.5707
 6138SOL    HW130139   8.949  11.976   4.562 -0.4959  1.0576 -0.8068
 6138SOL    HW230140   9.065  11.889   4.604 -1.6469  0.5943  1.5616
 6139SOL     OW30141  10.621   3.994   3.287 -0.0136 -0.3202  0.2485
 6139SOL    HW130142  10.584   3.974   3.373 -2.5600  1.7864 -0.2363
 6139SOL    HW230143  10.592   3.922   3.231 -1.8944  0.3106  0.3290
 6140SOL     OW30144   3.640   9.350   3.597 -0.0735  0.3091  0.0745
 6140SOL    HW130145   3.584   9.392   3.662  0.6737  0.4683  0.6355
 6140SOL    HW230146   3.685   9.281   3.645 -2.0282 -1.8870 -1.0442
 6141SOL     OW30147   8.873   2.613   1.728  0.7203 -1.2487 -0.0549
 6141SOL    HW130148   8.866   2.707   1.714  1.0061 -1.4904 -2.2517
 6141SOL    HW230149   8.801   2.592   1.787  0.3790  0.2763  0.1120
 6142SOL     OW30150  11.823  12.573   0.450  0.0376 -0.2907 -0.2278
 6142SOL    HW130151  11.733  12.605   0.446 -0.3298 -1.2852 -0.0087
 6142SOL    HW230152  11.832  12.516   0.373  0.4059 -0.3935 -0.1131
 6143SOL     OW30153   2.964   1.802   7.358 -0.2094  0.7014  0.5253
 6143SOL    HW130154   3.017   1.857   7.302 -1.7310  1.9109  0.1966
 6143SOL    HW230155   2.874   1.832   7.344 -1.2391 -2.2998 -0.1714
 6144SOL     OW30156   7.114   1.060   9.041  0.2403 -0.1774  0.5412
 6144SOL    HW130157   7.207   1.035   9.040  0.7524  1.6163  0.3465
 6144SOL    HW230158   7.097   1.094   8.953 -0.5552 -0.2773  0.6486
 6145SOL     OW30159   9.745   5.082  12.812  0.6208 -0.0116 -1.6618
 6145SOL    HW130160   9.679   5.088  12.881  2.6279 -0.4851  0.4239
 6145SOL    HW230161   9.722   5.150  12.749 -0.8652  0.9425 -0.1316
 6146SOL     OW30162   2.576   5.262  10.036 -0.2857 -0.6868 -0.3322
 6146SOL    HW130163   2.575   5.353  10.066  2.5782 -0.8839  0.6459
 6146SOL    HW230164   2.549   5.267   9.944  1.2320  1.3603 -0.7365
 6147SOL     OW30165   4.257   5.383   7.606  0.2857  0.2097 -0.4395
 6147SOL    HW130166   4.285   5.469   7.575 -3.6408  2.3503  1.1182
 6147SOL    HW230167   4.245   5.395   7.701 -1.1593 -1.7963 -0.3094
 6148SOL     OW30168   8.301   9.612   4.218 -0.2228  0.3887  0.1750
 6148SOL    HW130169   8.366   9.557   4.261 -1.7287 -1.2018  0.5437
 6148SOL    HW230170   8.293   9.689   4.275 -0.0263 -0.2985  1.1491
 6149SOL     OW30171   0.629   3.035   4.044 -0.1783  0.4515  0.1431
 6149SOL    HW130172   0.589   3.031   4.131 -0.0312  0.2308  0.2006
 6149SOL    HW230173   0.691   2.962   4.043  1.7152  1.9579  0.7810
 6150SOL     OW30174  11.067   7.868   4.930  0.1669 -0.6265  0.1547
 6150SOL    HW130175  11.117   7.896   4.854  0.0216  0.3197  0.3930
 6150SOL    HW230176  11.007   7.802   4.897 -0.9313  0.8252 -0.8604
 6151SOL     OW30177  12.991   7.664   7.630  0.4316  0.3405 -0.5287
 6151SOL    HW130178  12.978   7.735   7.693  0.0952 -0.1810 -0.0015
 6151SOL    HW230179  12.996   7.708   7.545  0.4322  1.0124 -0.1844
 6152SOL     OW30180   5.512  12.936   1.901  0.4730  0.0322 -0.8260
 6152SOL    HW130181   5.585  12.934   1.840  2.5287  0.3788  1.5059
 6152SOL    HW230182   5.520  12.856   1.952 -2.4805 -1.3486 -2.2771
 6153SOL     OW30183  12.097   0.963   1.399 -0.3844  0.2549 -0.0613
 6153SOL    HW130184  12.122   0.969   1.491 -2.3536  3.4820  0.4272
 6153SOL    HW230185  12.180   0.945   1.353  1.0242  0.7013  2.1424
 6154SOL     OW30186   3.388  12.728   4.300 -0.4980 -0.0879  1.0122
 6154SOL    HW130187   3.473  12.767   4.319 -0.7262  0.3562  1.1556
 6154SOL    HW230188   3.325  12.798   4.320 -0.7327  0.8300 -2.3216
 6155SOL     OW30189   6.018   0.960   4.206  0.1682 -0.4004  0.3686
 6155SOL    HW130190   5.994   0.878   4.164  0.6293 -0.3655  0.0277
 6155SOL    HW230191   6.001   0.946   4.299  2.7322 -1.8306  0.7142
 6156SOL     OW30192  13.562   5.574  11.253 -0.2128  0.7184 -0.0809
 6156SOL    HW130193  13.488   5.532  11.209  0.6483  0.1511 -1.0257
 6156SOL    HW230194  13.561   5.539  11.342 -0.4157 -0.1459 -0.4227
 6157SOL     OW30195  10.545   6.597   8.611 -0.0977 -0.0321  0.6184
 6157SOL    HW130196  10.477   6.570   8.674  0.8586  0.8005  2.0573
 6157SOL    HW230197  10.501   6.594   8.526 -2.5148  2.1969  1.6634
 6158SOL     OW30198  12.888   1.553  10.412  0.1233 -0.3249  0.1178
 6158SOL    HW130199  12.838   1.595  10.342 -1.4804 -1.0651  0.7808
 6158SOL    HW230200  12.855   1.463  10.413  0.0978 -0.3136  1.8379
 6159SOL     OW30201   5.682   1.136   8.313  0.0794  0.1604  0.0754
 6159SOL    HW130202   5.611   1.077   8.339  1.3820 -1.0015  1.1282
 6159SOL    HW230203   5.716   1.170   8.396  1.7037 -0.4661 -0.3049
 6160SOL     OW30204   9.328   4.479   0.641 -0.0569  0.1937 -0.0266
 6160SOL    HW130205   9.417   4.482   0.675 -0.5550  0.5904  1.2853
 6160SOL    HW230206   9.301   4.388   0.653 -0.2678  0.3541  0.7693
 6161SOL     OW30207  12.802   7.322  10.492 -0.1172 -0.3249  0.3524
 6161SOL    HW130208  12.771   7.408  10.462  0.6445 -0.7941 -1.9204
 6161SOL    HW230209  12.878   7.342  10.546  0.0898  0.4365 -0.2081
 6162SOL     OW30210   5.577  12.951  12.247 -0.4649  0.1206  0.3723
 6162SOL    HW130211   5.484  12.968  12.235 -0.4755 -0.6340 -0.7117
 6162SOL    HW230212   5.603  12.898  12.171  0.8121  0.1840  0.7288
 6163SOL     OW30213   7.152   0.708  10.280 -0.0800 -0.4530  0.7342
 6163SOL    HW130214   7.237   0.699  10.324 -0.6714 -1.1434  1.7680
 6163SOL    HW230215   7.118   0.793  10.309  1.3355  1.0785 -1.6826
 6164SOL     OW30216   1.505   6.229   9.055  0.0433 -0.4146  0.9505
 6164SOL    HW130217   1.469   6.196   9.137 -2.6993  2.4740  1.0691
 6164SOL    HW230218   1.428   6.256   9.004  1.6710 -1.4246 -2.3324
 6165SOL     OW30219   7.596   6.412   4.762  0.4742  0.2271 -0.0890
 6165SOL    HW130220   7.623   6.497   4.796  2.6503 -0.5716  0.3202
 6165SOL    HW230221   7.578   6.360   4.840  1.1932 -0.3037 -0.2737
 6166SOL     OW30222   4.315  11.645   4.702  0.1062 -0.4177  0.1521
 6166SOL    HW130223   4.236  11.611   4.741 -0.1134  0.5317  0.5580
 6166SOL    HW230224   4.354  11.700   4.769  0.3966  0.2032 -0.5053
 6167SOL     OW30225  13.019   6.579   1.490  0.1158  0.1626 -0.2611
 6167SOL    HW130226  13.112   6.560   1.504  0.0190  0.2822  0.6038
 6167SOL    HW230227  12.974   6.497   1.513 -0.3175  1.3034  3.6743
 6168SOL     OW30228   0.241   4.487   5.717 -0.4886 -0.0135  0.1383
 6168SOL    HW130229   0.278   4.541   5.787 -1.4355  0.3925  0.3463
 6168SOL    HW230230   0.259   4.536   5.637  2.0842 -1.2705 -0.1547
 6169SOL     OW30231   9.215   2.855   2.308  0.0875 -0.4050 -0.3819
 6169SOL    HW130232   9.205   2.778   2.253 -0.1811 -0.4668 -0.2514
 6169SOL    HW230233   9.258   2.919   2.252  1.0499 -0.9136 -0.2414
 6170SOL     OW30234  12.227   7.132   6.282 -0.1796  0.1123  0.6113
 6170SOL    HW130235  12.135   7.152   6.266  0.5126  1.6218 -2.1930
 6170SOL    HW230236  12.248   7.180   6.362 -1.2103  2.0573 -0.2177
 6171SOL     OW30237   2.487   1.161   6.324 -0.3490 -0.3665  0.4111
 6171SOL    HW130238   2.424   1.229   6.348  1.3245  0.8504  1.5780
 6171SOL    HW230239   2.513   1.123   6.408 -0.7320 -2.0092 -0.1854
 6172SOL     OW30240  10.775   4.173   9.814 -0.3409 -0.4796  0.5053
 6172SOL    HW130241  10.847   4.163   9.751 -0.7920 -1.3132  0.1048
 6172SOL    HW230242  10.744   4.262   9.802  1.7471  0.5283  1.9014
 6173SOL     OW30243   4.249   8.218   6.106 -0.1642 -0.1660  0.1310
 6173SOL    HW130244   4.319   8.280   6.084 -0.4190 -0.5376 -1.9459
 6173SOL    HW230245   4.289   8.159   6.169  0.6250  1.0644  0.8343
 6174SOL     OW30246  12.158   6.572   6.138  0.3358  0.5716  0.2460
 6174SOL    HW130247  12.121   6.581   6.050  0.5480  2.2251  0.2905
 6174SOL    HW230248  12.252   6.563   6.124  0.1823 -1.5850  0.2324
 6175SOL     OW30249  13.664   5.378   0.472  0.6930  0.7254  0.0622
 6175SOL    HW130250  13.668   5.313   0.402 -1.1317  0.7646 -0.1065
 6175SOL    HW230251  13.720   5.341   0.541  0.1600 -0.7449 -0.2548
 6176SOL     OW30252   3.393   0.989   6.516 -0.0787  0.4675  1.2453
 6176SOL    HW130253   3.449   0.993   6.593  0.8189  0.7065  0.6047
 6176SOL    HW230254   3.386   1.080   6.487 -0.2961  0.3635  0.9708
 6177SOL     OW30255   3.869  10.448  13.580  0.3913 -0.3702  0.2249
 6177SOL    HW130256   3.860  10.401  13.498  0.7843 -0.2071  0.0873
 6177SOL    HW230257   3.816  10.527  13.569  0.0166 -0.6034  0.3272
 6178SOL     OW30258   0.108   9.967   4.328  0.0789  0.1628  0.5275
 6178SOL    HW130259   0.159   9.912   4.387 -0.3144 -2.0839 -1.1166
 6178SOL    HW230260   0.020   9.967   4.366  0.1310 -0.1611  0.6553
 6179SOL     OW30261   5.599   9.076   3.694  0.5728 -0.6273  0.0464
 6179SOL    HW130262   5.577   9.018   3.621 -0.4165  0.2876 -0.4059
 6179SOL    HW230263   5.652   9.021   3.752 -1.5621 -2.4688  0.3831
 6180SOL     OW30264  12.371   4.992  10.307 -0.5867 -0.1623  0.1430
 6180SOL    HW130265  12.282   5.027  10.314 -0.8642 -1.0831  1.7279
 6180SOL    HW230266  12.359   4.898  10.294  0.1550 -0.1917 -0.3564
 6181SOL     OW30267   0.652  12.724  11.835  0.5738  0.5304 -0.0401
 6181SOL    HW130268   0.626  12.633  11.823  0.5003 -0.1417  3.9008
 6181SOL    HW230269   0.747  12.722  11.847  1.0362  1.4694 -2.8699
 6182SOL     OW30270   1.630   3.898   5.614  0.1638  0.5004 -0.1727
 6182SOL    HW130271   1.668   3.811   5.621 -3.3118 -1.3652 -1.9552
 6182SOL    HW230272   1.639   3.922   5.522  0.1024  1.5648  0.0788
 6183SOL     OW30273  12.930   9.016   0.469 -0.3997 -0.9354 -0.1260
 6183SOL    HW130274  12.945   8.925   0.442 -1.4209 -1.1469 -0.0543
 6183SOL    HW230275  12.837   9.017   0.494 -0.4165  0.1518 -0.2150
 6184SOL     OW30276  10.399   4.074   0.068  0.7231 -0.0921  0.4582
 6184SOL    HW130277  10.424   3.991   0.108 -0.3086 -0.9494 -0.5624
 6184SOL    HW230278  10.329   4.050   0.006  0.1603  1.5913  0.3894
 6185SOL     OW30279   3.212   6.427  11.123  0.0850 -0.9289  0.2696
 6185SOL    HW130280   3.204   6.369  11.199  0.2796 -0.5043  0.6191
 6185SOL    HW230281   3.256   6.505  11.157 -0.6280 -0.3656 -0.0816
 6186SOL     OW30282   3.944   8.307   7.970 -0.2885  0.1317  0.1418
 6186SOL    HW130283   3.969   8.399   7.983  0.0719  0.4576 -2.3695
 6186SOL    HW230284   3.892   8.308   7.890 -0.5232 -1.8449  0.2325
 6187SOL     OW30285   4.939   2.520   1.845 -0.2178  0.3954  0.3292
 6187SOL    HW130286   4.868   2.584   1.854 -0.0953  0.4052  1.3171
 6187SOL    HW230287   4.963   2.524   1.752 -0.1801  1.8201  0.3751
 6188SOL     OW30288   2.719  12.758   5.433  0.1339 -0.1753 -0.1206
 6188SOL    HW130289   2.721  12.844   5.389  0.1374 -0.4004 -0.5627
 6188SOL    HW230290   2.719  12.780   5.527 -0.4458  0.3260 -0.2237
 6189SOL     OW30291   1.856   6.205   0.244  0.3449 -0.4019  0.3494
 6189SOL    HW130292   1.866   6.268   0.315  1.1505  0.2566 -0.3227
 6189SOL    HW230293   1.885   6.122   0.281  2.8681  0.3348  0.2194
 6190SOL     OW30294   0.629  10.938  10.966  0.1278  0.2424  0.4118
 6190SOL    HW130295   0.612  10.857  11.015 -0.4055  0.6899  0.9792
 6190SOL    HW230296   0.693  10.985  11.018  0.3321  0.2599  0.1509
 6191SOL     OW30297   4.036   4.715  10.917 -0.4459  0.3838  0.2963
 6191SOL    HW130298   4.102   4.705  10.985 -0.5782 -1.7467  0.1510
 6191SOL    HW230299   3.964   4.658  10.945 -1.7445  1.7230 -0.1648
 6192SOL     OW30300   6.384   3.706   0.351  0.2169  0.2007  0.1812
 6192SOL    HW130301   6.434   3.655   0.288  0.1012 -1.2545  1.2132
 6192SOL    HW230302   6.450   3.743   0.410  0.1946 -0.1072  0.3978
 6193SOL     OW30303   9.209   7.008   4.641  0.1454  1.0023  0.0056
 6193SOL    HW130304   9.278   6.966   4.589  0.4378  1.2470  0.1975
 6193SOL    HW230305   9.170   6.936   4.691  0.4817  0.9135  0.1453
 6194SOL     OW30306  12.838   6.332   0.874  0.1533 -0.5451 -0.3330
 6194SOL    HW130307  12.775   6.322   0.945  0.0458  1.7977 -0.0053
 6194SOL    HW230308  12.801   6.283   0.801 -1.3230 -0.4273  0.3024
 6195SOL     OW30309   1.314  13.102   7.218 -0.0955 -0.0746 -0.1032
 6195SOL    HW130310   1.399  13.078   7.182 -0.1772 -0.4517 -0.0469
 6195SOL    HW230311   1.316  13.070   7.308 -0.6903 -1.0392 -0.4159
 6196SOL     OW30312   0.815   2.333   3.128 -0.3534 -0.6686 -0.6861
 6196SOL    HW130313   0.868   2.356   3.204  0.7946 -1.0661 -1.3503
 6196SOL    HW230314   0.814   2.412   3.075  2.7330 -1.6612 -2.4667
 6197SOL     OW30315  11.273   7.571   0.134 -0.1835 -0.4368  0.6344
 6197SOL    HW130316  11.203   7.512   0.165 -1.0948  0.8638  1.1421
 6197SOL    HW230317  11.333   7.514   0.086 -0.7169 -1.8877  1.6090
 6198SOL     OW30318   2.775  11.361   7.072  0.2705 -0.1081 -0.2358
 6198SOL    HW130319   2.834  11.311   7.128 -1.2649  0.7523  2.2886
 6198SOL    HW230320   2.765  11.446   7.115 -2.9329 -0.2686 -0.3895
 6199SOL     OW30321  11.439  13.204  11.220 -0.6254 -0.6687  1.1307
 6199SOL    HW130322  11.488  13.225  11.300 -1.1495  0.7409  1.1201
 6199SOL    HW230323  11.456  13.277  11.162  0.3562 -2.0444 -0.3919
 6200SOL     OW30324   4.571   5.964   2.572  0.1597  0.2312  0.0529
 6200SOL    HW130325   4.514   6.014   2.631  1.5219  0.8938  0.8605
 6200SOL    HW230326   4.521   5.956   2.491 -1.7192 -0.5642  1.2158
 6201SOL     OW30327   6.569   3.443  11.037  0.9952 -0.4142 -0.4136
 6201SOL    HW130328   6.591   3.528  11.000  0.4349  0.0139  0.2324
 6201SOL    HW230329   6.630   3.431  11.109  0.1581  0.0850  0.3966
 6202SOL     OW30330   2.611   3.876   1.717 -0.7072 -0.1976  0.6457
 6202SOL    HW130331   2.623   3.968   1.743 -0.2754 -0.1446  0.2589
 6202SOL    HW230332   2.564   3.837   1.791 -1.0540  0.3754  0.7358
 6203SOL     OW30333  11.343   9.444   4.245 -0.0535  0.0029 -0.6638
 6203SOL    HW130334  11.312   9.421   4.157 -1.1173  2.4801 -1.0317
 6203SOL    HW230335  11.421   9.498   4.229  2.0064 -2.5405  0.1226
 6204SOL     OW30336   8.207  11.984   6.973  0.3092  0.4754  0.9365
 6204SOL    HW130337   8.165  11.992   7.059 -1.6499  1.4213 -0.0409
 6204SOL    HW230338   8.186  11.896   6.944  2.1522 -0.3638  1.9385
 6205SOL     OW30339   4.964  10.823  10.853 -0.2670  0.1226  0.1463
 6205SOL    HW130340   5.009  10.755  10.904 -1.2597 -0.2491  0.5656
 6205SOL    HW230341   4.872  10.815  10.880 -1.1384 -1.1053 -2.7626
 6206SOL     OW30342   1.529   3.039   6.887 -0.1710  0.6674  0.4499
 6206SOL    HW130343   1.551   2.968   6.947  0.4601  0.2278 -0.2723
 6206SOL    HW230344   1.571   3.014   6.805 -1.6772  0.8641 -0.4081
 6207SOL     OW30345   2.630   3.890  11.211  0.0700 -1.2200  0.6625
 6207SOL    HW130346   2.610   3.971  11.164  0.6464 -1.1311  0.5567
 6207SOL    HW230347   2.691   3.917  11.280  1.7386 -1.8419 -0.5164
 6208SOL     OW30348   7.041   8.912   5.786  0.2539  0.0021 -0.4588
 6208SOL    HW130349   7.011   8.876   5.870 -0.2524 -0.6254 -0.8930
 6208SOL    HW230350   7.105   8.979   5.810  1.4421 -1.3827  0.3744
 6209SOL     OW30351  10.090   7.100   1.090 -0.1438  0.3972 -0.0883
 6209SOL    HW130352  10.162   7.074   1.147 -1.1706 -2.1402  0.1383
 6209SOL    HW230353  10.107   7.054   1.008 -1.1241  0.3862 -0.2911
 6210SOL     OW30354   9.676   5.522   3.036 -0.4820  0.0093  0.1729
 6210SOL    HW130355   9.633   5.547   3.118  0.2198 -0.6260  0.7479
 6210SOL    HW230356   9.760   5.568   3.038 -0.1271 -0.6223  0.1920
 6211SOL     OW30357  10.195   8.829   0.046  0.2926  0.2321  0.1192
 6211SOL    HW130358  10.178   8.745   0.004 -3.0630  1.4873 -1.4040
 6211SOL    HW230359  10.290   8.840   0.041  0.5908 -2.3601 -1.8335
 6212SOL     OW30360   8.352  12.370  12.460 -0.3405  0.6475 -0.3423
 6212SOL    HW130361   8.339  12.464  12.453 -1.2438  0.8116  2.3898
 6212SOL    HW230362   8.341  12.337  12.370 -0.2060  3.0781 -1.3126
 6213SOL     OW30363   3.521   7.418   3.760 -0.8728 -0.1958  0.3694
 6213SOL    HW130364   3.480   7.434   3.675 -1.2184 -1.2192  0.3187
 6213SOL    HW230365   3.592   7.482   3.766 -2.8209  2.0645  0.7323
 6214SOL     OW30366  10.985   9.126  10.669 -0.0519 -0.3192 -0.5187
 6214SOL    HW130367  11.077   9.148  10.685 -0.0036 -0.6326 -0.3681
 6214SOL    HW230368  10.940   9.155  10.749  0.1287 -1.4990  0.0388
 6215SOL     OW30369   0.742  12.358  12.755  0.5885  0.1509 -0.3212
 6215SOL    HW130370   0.837  12.352  12.756  0.5137 -1.4270  0.3479
 6215SOL    HW230371   0.716  12.315  12.673  0.5106  2.7288 -1.7466
 6216SOL     OW30372   0.117  13.558  13.741 -0.6799 -0.1434  0.2152
 6216SOL    HW130373   0.189  13.499  13.763 -2.2558 -1.4333  2.4091
 6216SOL    HW230374   0.125  13.572  13.647  2.0734 -0.6379  0.2913
 6217SOL     OW30375   2.037  10.260   7.102  0.1754  0.0949  0.0876
 6217SOL    HW130376   1.996  10.234   7.019 -0.8596  2.3956 -0.1916
 6217SOL    HW230377   1.970  10.312   7.147  2.0335  2.1579  0.6143
 6218SOL     OW30378   5.533   6.508   9.609  0.6541 -0.2632  0.0494
 6218SOL    HW130379   5.451   6.471   9.641  0.6285  0.1128  0.4272
 6218SOL    HW230380   5.585   6.521   9.688  1.6838 -1.9317 -0.3125
 6219SOL     OW30381  11.875   6.329   6.829 -0.1547 -0.6694 -0.2612
 6219SOL    HW130382  11.813   6.257   6.842 -0.5377 -0.1142  1.0464
 6219SOL    HW230383  11.922   6.305   6.748 -1.7325 -1.3276 -1.0207
 6220SOL     OW30384   4.349  10.620   8.213 -0.1948  0.3746  0.0892
 6220SOL    HW130385   4.326  10.563   8.285 -0.9744 -0.5852 -0.8847
 6220SOL    HW230386   4.380  10.561   8.144 -0.7931  1.1295 -0.8586
 6221SOL     OW30387   3.123   9.212  10.975  0.2289 -0.1969  0.0700
 6221SOL    HW130388   3.083   9.145  10.919  0.2913  0.1984 -0.4534
 6221SOL    HW230389   3.050   9.269  10.999  0.2575 -0.1931  0.1477
 6222SOL     OW30390  10.810   9.001   1.378  0.1005  0.4927  0.7718
 6222SOL    HW130391  10.804   9.080   1.431  0.7571  1.5357 -0.6357
 6222SOL    HW230392  10.871   9.025   1.308 -0.8998 -0.7561 -0.5616
 6223SOL     OW30393   2.511   9.848   2.043 -0.5135 -0.9823  0.3480
 6223SOL    HW130394   2.427   9.809   2.019 -1.5217  0.6995  0.9535
 6223SOL    HW230395   2.490   9.940   2.063  1.3495 -0.6952  1.2065
 6224SOL     OW30396  12.888   4.446   2.781  0.1798  0.3958  0.2289
 6224SOL    HW130397  12.837   4.365   2.788 -0.2980  0.8279  2.8770
 6224SOL    HW230398  12.979   4.417   2.773 -0.1707 -0.3766 -1.2227
 6225SOL     OW30399   4.623   1.028   0.767  0.3223  0.2214 -0.1509
 6225SOL    HW130400   4.569   1.039   0.845  1.1048  0.5228  0.3603
 6225SOL    HW230401   4.713   1.035   0.799  0.6452  1.0597 -1.1706
 6226SOL     OW30402   0.221   7.463   7.656  0.8214  0.3208  0.1443
 6226SOL    HW130403   0.201   7.464   7.749 -0.3564  0.5255 -0.0946
 6226SOL    HW230404   0.168   7.390   7.621  2.1015 -0.4779 -0.1880
 6227SOL     OW30405   3.470  12.369   5.387 -0.3886  0.3542 -0.3969
 6227SOL    HW130406   3.552  12.334   5.353  0.1611  2.1565 -1.0585
 6227SOL    HW230407   3.405  12.348   5.320 -0.3046 -0.3463 -0.2644
 6228SOL     OW30408   9.245   6.193   3.910  0.2758 -0.0177  0.6648
 6228SOL    HW130409   9.273   6.159   3.995  2.9745  0.6964  0.1491
 6228SOL    HW230410   9.315   6.168   3.850 -1.1500  0.2429 -1.2196
 6229SOL     OW30411   5.747   1.990  13.674  0.6142  0.4973 -0.0122
 6229SOL    HW130412   5.717   1.913  13.626  0.8482  1.1916 -1.3260
 6229SOL    HW230413   5.837   1.969  13.700  0.6776  0.3312 -0.3687
 6230SOL     OW30414  10.158   4.098   2.195  0.2698 -0.6164 -0.0515
 6230SOL    HW130415  10.134   4.009   2.221  0.4280  0.4342  4.5413
 6230SOL    HW230416  10.108   4.155   2.254  0.5610  2.4209 -2.4467
 6231SOL     OW30417   3.050   9.527   1.283 -0.1765  0.1960 -0.3086
 6231SOL    HW130418   3.054   9.619   1.256  0.8971 -0.4581 -2.6410
 6231SOL    HW230419   3.100   9.481   1.216 -2.4704 -2.3500 -0.4455
 6232SOL     OW30420   3.783  11.991   0.971 -0.0104 -0.0297  0.0657
 6232SOL    HW130421   3.749  12.074   0.937 -0.9513 -1.1781 -1.9011
 6232SOL    HW230422   3.771  11.928   0.901  1.1940 -1.7603  1.3080
 6233SOL     OW30423  11.435   1.018   6.691 -0.2293 -0.2039  0.2225
 6233SOL    HW130424  11.510   1.076   6.700  0.0760 -0.1046 -2.2219
 6233SOL    HW230425  11.472   0.930   6.688  0.0747 -0.0614 -2.7306
 6234SOL     OW30426   4.691   8.411  13.691 -0.1427 -0.3517  0.3583
 6234SOL    HW130427   4.664   8.320  13.686  2.9100 -1.3697 -0.1940
 6234SOL    HW230428   4.733   8.428  13.607  2.4710  0.3396  1.6693
 6235SOL     OW30429   8.384  11.619   8.859 -0.6618  0.2407  0.2419
 6235SOL    HW130430   8.438  11.671   8.918 -0.8599  0.2940  0.3776
 6235SOL    HW230431   8.294  11.639   8.885 -0.7317 -1.0909  1.0889
 6236SOL     OW30432   8.383   8.827   7.396 -0.1144  0.4634 -0.5369
 6236SOL    HW130433   8.450   8.895   7.401 -0.0799  0.3700  0.4031
 6236SOL    HW230434   8.304   8.870   7.430 -0.7310  0.7985 -2.2993
 6237SOL     OW30435   2.088   3.546   3.617  0.2875  0.0548 -0.0953
 6237SOL    HW130436   1.995   3.564   3.633  0.0753 -2.0680  1.5586
 6237SOL    HW230437   2.088   3.458   3.579  1.6290  0.0341 -0.0842
 6238SOL     OW30438   0.548   9.548  11.512 -0.4907  0.5741  0.0293
 6238SOL    HW130439   0.622   9.588  11.558  0.8593  0.6379 -2.0649
 6238SOL    HW230440   0.516   9.616  11.453 -1.5587  0.2154  0.1832
 6239SOL     OW30441   3.618   1.858   6.331  0.0641  0.4863  0.0277
 6239SOL    HW130442   3.684   1.851   6.400  0.4712  1.3155 -0.2752
 6239SOL    HW230443   3.621   1.949   6.303  0.6935 -0.0624 -1.8515
 6240SOL     OW30444   4.600   7.374  12.590 -1.1353 -0.2732  0.8706
 6240SOL    HW130445   4.541   7.440  12.555  0.4571  1.5483  1.4496
 6240SOL    HW230446   4.544   7.299  12.608 -2.9929  0.8420  0.0297
 6241SOL     OW30447   9.855   3.128   9.271  0.4483  0.0948 -0.1597
 6241SOL    HW130448   9.816   3.160   9.352  1.7170 -1.4146  1.1187
 6241SOL    HW230449   9.833   3.035   9.269  1.9168 -0.2768 -0.5907
 6242SOL     OW30450  13.548   1.402   3.926 -0.4452 -0.2854  0.4094
 6242SOL    HW130451  13.601   1.323   3.933  0.1762  0.1853  1.2486
 6242SOL    HW230452  13.562   1.433   3.836 -1.9346 -1.9502 -0.4634
 6243SOL     OW30453   1.071   2.643  12.170 -0.2565 -0.0956  0.1240
 6243SOL    HW130454   1.062   2.717  12.110  1.3465  1.6719  1.9152
 6243SOL    HW230455   1.166   2.631  12.178 -0.4665 -1.0430  1.4275
 6244SOL     OW30456   6.239   6.325   2.695  0.4841  0.0501 -0.8375
 6244SOL    HW130457   6.258   6.378   2.772 -0.6398  1.4465 -1.4743
 6244SOL    HW230458   6.173   6.262   2.724  1.6879 -0.9363 -0.1273
 6245SOL     OW30459  11.133   3.145   4.275  0.5925 -0.1873  0.1104
 6245SOL    HW130460  11.190   3.216   4.304  2.6601 -1.3596 -0.8699
 6245SOL    HW230461  11.151   3.073   4.336  0.7348 -0.8109 -0.6466
 6246SOL     OW30462   9.995  10.544   8.378  0.1811 -0.2015  0.0400
 6246SOL    HW130463   9.952  10.479   8.433 -2.2980  2.5436  1.5738
 6246SOL    HW230464  10.053  10.591   8.438  0.9604 -0.1174 -0.7606
 6247SOL     OW30465   1.406   4.093  13.315 -0.0055 -0.2040  0.2620
 6247SOL    HW130466   1.341   4.067  13.380 -0.1538  0.6650  0.4782
 6247SOL    HW230467   1.490   4.086  13.361 -0.2209  1.9523  1.1238
 6248SOL     OW30468   4.964   7.050   5.836  0.1635 -0.3878 -0.3385
 6248SOL    HW130469   4.887   7.011   5.877 -0.3316 -0.2022 -1.0749
 6248SOL    HW230470   4.951   7.145   5.845  0.3119 -0.3550 -0.4640
 6249SOL     OW30471   9.744   3.789   0.935  0.2358 -0.1401  0.0130
 6249SOL    HW130472   9.792   3.736   0.998  0.4604 -0.2687 -0.2637
 6249SOL    HW230473   9.682   3.839   0.988  2.3747  1.9637  0.7082
 6250SOL     OW30474  11.701   2.280  13.412 -1.0000  0.0488 -0.8826
 6250SOL    HW130475  11.730   2.345  13.476 -1.2770  1.0366 -1.7385
 6250SOL    HW230476  11.665   2.209  13.465  3.6524 -1.7373  0.3611
 6251SOL     OW30477   9.274   2.299   7.235  0.0053  0.5913 -0.1878
 6251SOL    HW130478   9.311   2.373   7.187 -0.7118  2.0784  1.4335
 6251SOL    HW230479   9.258   2.334   7.323 -2.1586 -0.9301  0.0923
 6252SOL     OW30480   2.573  12.205   8.146  0.0580 -0.0306 -0.2297
 6252SOL    HW130481   2.596  12.115   8.121 -1.3929 -0.4425 -0.1996
 6252SOL    HW230482   2.591  12.208   8.240  0.5343 -0.1596 -0.3181
 6253SOL     OW30483   7.045   3.912  10.231 -0.4573  0.0659  0.6116
 6253SOL    HW130484   7.074   3.840  10.175  2.7429  1.1829  0.6442
 6253SOL    HW230485   6.977   3.956  10.180  0.2827 -0.6726 -1.0870
 6254SOL     OW30486  10.439   3.647  12.096  0.5431  0.1801 -0.2280
 6254SOL    HW130487  10.533   3.650  12.109  0.5198  2.4106 -0.2347
 6254SOL    HW230488  10.402   3.650  12.184  0.4569 -0.0902 -0.2527
 6255SOL     OW30489  10.503   3.431   9.014  0.7241 -0.2668  0.0853
 6255SOL    HW130490  10.596   3.421   8.994  0.5218  0.5007 -1.3852
 6255SOL    HW230491  10.498   3.515   9.060  0.6686  0.1073 -0.5929
 6256SOL     OW30492   1.709   1.111  11.070  0.6564  0.1843  0.1688
 6256SOL    HW130493   1.684   1.025  11.102  0.3397  0.8358  1.7736
 6256SOL    HW230494   1.804   1.106  11.056  0.4313 -0.8380 -1.2291
 6257SOL     OW30495   1.113   3.369   9.066 -0.5334 -0.1540  0.0965
 6257SOL    HW130496   1.161   3.416   9.134 -1.5918  1.2817 -0.0811
 6257SOL    HW230497   1.032   3.341   9.108 -1.3483  1.0377 -0.5950
 6258SOL     OW30498   7.176  11.283  13.043 -0.3142  0.9210 -0.4099
 6258SOL    HW130499   7.113  11.350  13.070 -0.4470  0.4466  0.5126
 6258SOL    HW230500   7.127  11.228  12.982 -0.3660  1.3416 -0.7595
 6259SOL     OW30501   1.000   6.951   6.917 -0.0892 -0.6554 -0.0757
 6259SOL    HW130502   1.042   6.928   6.999 -1.1942 -0.2447  0.6369
 6259SOL    HW230503   0.908   6.928   6.930 -0.5338  0.6739 -0.6826
 6260SOL     OW30504   5.943   1.579   3.734 -0.4300 -0.5754 -0.5318
 6260SOL    HW130505   5.901   1.511   3.785  1.8799 -1.6581  0.0809
 6260SOL    HW230506   5.879   1.603   3.667 -2.6980 -0.6814  1.4772
 6261SOL     OW30507   4.312   6.884   6.387 -0.4020  0.5865  0.5263
 6261SOL    HW130508   4.293   6.792   6.404  1.2922  0.0357 -0.3105
 6261SOL    HW230509   4.241   6.932   6.430 -1.1904 -1.0866  1.1703
 6262SOL     OW30510   3.518   5.101  12.441 -0.3626 -0.0325 -0.5688
 6262SOL    HW130511   3.547   5.026  12.389 -1.3743 -0.2220 -0.8796
 6262SOL    HW230512   3.474   5.158  12.379 -2.4731 -0.7250  0.1845
 6263SOL     OW30513   7.983  10.476   8.176 -0.0497 -0.4393 -0.1119
 6263SOL    HW130514   8.002  10.430   8.259  2.2253 -0.6585 -0.6730
 6263SOL    HW230515   8.043  10.551   8.176 -0.6382  0.0550 -1.1809
 6264SOL     OW30516   8.523   2.744   0.569  0.3323 -0.0022 -0.0188
 6264SOL    HW130517   8.617   2.757   0.556  0.5579 -1.2786  0.2155
 6264SOL    HW230518   8.500   2.675   0.506 -0.0616 -1.0045  1.1874
 6265SOL     OW30519   9.047   1.757   1.546  0.0586 -0.2175 -0.2362
 6265SOL    HW130520   9.001   1.678   1.576 -2.0723  1.0858  0.1623
 6265SOL    HW230521   9.037   1.819   1.618 -0.8470  1.3483 -1.6329
 6266SOL     OW30522   8.403  10.664   4.523  0.2804 -0.1887 -0.1377
 6266SOL    HW130523   8.317  10.695   4.551  0.2863 -0.1465 -0.1656
 6266SOL    HW230524   8.401  10.569   4.538  0.6088 -0.0460  0.8385
 6267SOL     OW30525  13.713   1.251  10.824  0.1009  0.2582 -0.0258
 6267SOL    HW130526  13.688   1.326  10.878  0.0740 -0.3950  0.8997
 6267SOL    HW230527  13.645   1.246  10.756 -1.3278 -0.3818  1.3627
 6268SOL     OW30528   6.421  12.922  13.161  0.7731 -0.0297  0.4313
 6268SOL    HW130529   6.505  12.888  13.132  0.4111 -0.1808 -0.4697
 6268SOL    HW230530   6.366  12.921  13.083  0.6531  2.3938  0.4028
 6269SOL     OW30531   1.877   2.700   2.275 -0.3262  0.3960  0.3083
 6269SOL    HW130532   1.812   2.671   2.339  0.5122 -0.8465  0.6137
 6269SOL    HW230533   1.961   2.678   2.313  0.1957 -0.5163 -1.2839
 6270SOL     OW30534   5.921   3.702  12.568  0.3497 -0.3028  0.5427
 6270SOL    HW130535   5.931   3.625  12.624  0.9695  0.1970  1.1275
 6270SOL    HW230536   5.914   3.776  12.629  0.1934  0.1562 -0.0192
 6271SOL     OW30537   3.241   1.896   6.016  0.1037  0.2206 -0.4824
 6271SOL    HW130538   3.227   1.866   6.106 -0.6526 -1.0270 -0.9906
 6271SOL    HW230539   3.333   1.877   5.999 -0.2794 -1.6451 -0.6935
 6272SOL     OW30540   0.588   5.460   2.690  0.4477  0.1758  0.2550
 6272SOL    HW130541   0.582   5.551   2.719 -1.0583 -0.1344  1.0260
 6272SOL    HW230542   0.634   5.414   2.760  0.0237  0.1092  0.4957
 6273SOL     OW30543  11.754   8.523   6.774  0.3928 -0.2520  0.1762
 6273SOL    HW130544  11.806   8.560   6.846 -0.2608 -1.4517  1.3222
 6273SOL    HW230545  11.680   8.481   6.818 -0.0252 -1.0232 -1.2178
 6274SOL     OW30546  12.037   7.432   8.889  0.0607 -0.2355  0.4523
 6274SOL    HW130547  12.107   7.467   8.944 -0.3524  0.2233  0.6911
 6274SOL    HW230548  12.080   7.363   8.837  0.9398  0.7449 -0.1708
 6275SOL     OW30549   3.703   1.221   9.092 -0.0595  0.1634 -0.0518
 6275SOL    HW130550   3.693   1.315   9.102  3.0812  0.7942 -1.5701
 6275SOL    HW230551   3.773   1.198   9.152  0.8251 -0.7278 -1.3745
 6276SOL     OW30552  10.303   0.880   9.666 -0.0918 -1.0432  0.7015
 6276SOL    HW130553  10.268   0.794   9.689 -1.6537 -1.6392 -3.0636
 6276SOL    HW230554  10.354   0.865   9.587 -1.8721  1.6030 -1.1485
 6277SOL     OW30555  12.965   8.280  12.301  0.1061 -0.3238  0.0278
 6277SOL    HW130556  12.989   8.191  12.327  0.3267 -0.2467  0.0964
 6277SOL    HW230557  13.044   8.315  12.259 -0.3163 -0.5247 -0.9654
 6278SOL     OW30558   6.205   4.222  11.631  0.2594  0.2587 -0.1891
 6278SOL    HW130559   6.117   4.219  11.595  0.5520  2.0847 -1.1609
 6278SOL    HW230560   6.238   4.133  11.624 -1.7590 -0.6380  0.9244
 6279SOL     OW30561   5.125   5.242   6.427 -0.5741 -0.2801 -0.0281
 6279SOL    HW130562   5.151   5.198   6.346 -0.6452  2.0683 -1.4242
 6279SOL    HW230563   5.044   5.197   6.453 -0.2837 -1.4007 -0.9499
 6280SOL     OW30564   1.187   3.415   8.789 -0.1130  0.7475 -0.1669
 6280SOL    HW130565   1.176   3.508   8.805  1.8287  0.7177  1.8373
 6280SOL    HW230566   1.150   3.372   8.866  0.5607 -0.0192 -0.2583
 6281SOL     OW30567   7.128  11.858  11.992  0.3574 -0.5083  0.0083
 6281SOL    HW130568   7.134  11.866  12.087  1.6363  1.4975 -0.1842
 6281SOL    HW230569   7.039  11.884  11.971  0.0855 -0.9068  0.6460
 6282SOL     OW30570   7.836   9.014   6.928  0.4437  0.5305  0.5442
 6282SOL    HW130571   7.907   8.980   6.982  0.0207  1.8900  2.0599
 6282SOL    HW230572   7.757   8.977   6.968  0.2679 -1.8341 -1.7660
 6283SOL     OW30573   9.986   3.147  10.399  0.0359 -0.5744  0.1861
 6283SOL    HW130574   9.975   3.142  10.494  1.0845 -1.1889  0.2881
 6283SOL    HW230575  10.007   3.058  10.373  1.2731 -0.1219 -0.4146
 6284SOL     OW30576   6.851   9.914  10.362 -0.1641  0.4108 -0.1330
 6284SOL    HW130577   6.780   9.852  10.380 -0.5562  0.4366 -1.4682
 6284SOL    HW230578   6.810  10.000  10.367 -0.3070  0.4164 -1.1232
 6285SOL     OW30579   6.735  13.661   9.593  0.4090  0.3641 -0.2374
 6285SOL    HW130580   6.740  13.570   9.623 -0.2644  0.7495  1.1275
 6285SOL    HW230581   6.697  13.708   9.667  2.0929  2.0249 -0.3669
 6286SOL     OW30582  13.398   6.350   8.755  0.5937 -0.0077  0.8159
 6286SOL    HW130583  13.410   6.340   8.660 -0.6155  1.3114  0.4799
 6286SOL    HW230584  13.330   6.417   8.763  1.1871  0.4369  2.6331
 6287SOL     OW30585   3.069   3.808   0.356 -0.6720 -0.6192  0.0153
 6287SOL    HW130586   3.066   3.875   0.288 -0.4259  1.4051  1.8877
 6287SOL    HW230587   3.108   3.732   0.313  2.5352  1.5629 -1.3183
 6288SOL     OW30588   8.655   0.614   3.003  0.3098 -0.5610  0.1466
 6288SOL    HW130589   8.640   0.524   3.031  1.8979 -1.0881 -0.5690
 6288SOL    HW230590   8.605   0.667   3.065 -3.6212 -1.9959 -1.4874
 6289SOL     OW30591   7.715  13.166   3.738  0.4062  0.1841 -0.1205
 6289SOL    HW130592   7.675  13.230   3.796 -2.0610 -0.6396 -0.7968
 6289SOL    HW230593   7.797  13.142   3.781 -0.7855  0.4483  2.4412
 6290SOL     OW30594   1.499  12.782   8.074 -0.2669 -0.0893  0.2107
 6290SOL    HW130595   1.591  12.756   8.079 -0.1296  0.3931  0.2340
 6290SOL    HW230596   1.501  12.875   8.052 -0.7593 -0.1853 -0.2670
 6291SOL     OW30597   8.173   4.198   8.530  0.0299  0.0834  0.0384
 6291SOL    HW130598   8.163   4.250   8.610  1.0620  0.3017  0.0385
 6291SOL    HW230599   8.266   4.174   8.529 -0.6505 -2.9722  0.7642
 6292SOL     OW30600   9.433   9.343   6.964 -0.4960  0.2326 -0.2534
 6292SOL    HW130601   9.503   9.282   6.939 -1.5176 -0.4455 -1.5990
 6292SOL    HW230602   9.475   9.403   7.026  0.6576 -1.5748  0.8148
 6293SOL     OW30603   2.378   6.186  11.192 -0.0205  0.7773  0.0579
 6293SOL    HW130604   2.433   6.175  11.269 -1.0713 -1.7422  0.5885
 6293SOL    HW230605   2.439   6.199  11.120  1.1510  0.3423  0.9381
 6294SOL     OW30606   4.053   5.143   8.689  0.1117 -0.2979 -0.1657
 6294SOL    HW130607   3.988   5.196   8.643  1.9500  1.6282 -0.6583
 6294SOL    HW230608   4.100   5.204   8.745  0.8358 -1.8376  1.0040
 6295SOL     OW30609   7.148   4.038   1.886 -0.1503 -0.0604  0.2440
 6295SOL    HW130610   7.236   4.075   1.890  0.7349 -1.6466 -2.2314
 6295SOL    HW230611   7.135   3.998   1.972  1.4831  0.3448  0.7177
 6296SOL     OW30612   2.949  13.114   3.982  0.8086  0.0465  0.0883
 6296SOL    HW130613   2.857  13.093   3.996  0.7150 -0.6924 -1.4562
 6296SOL    HW230614   2.988  13.108   4.069 -0.5237  0.0286  0.7113
 6297SOL     OW30615   0.314   0.549  10.902  0.0032  0.7394  0.9135
 6297SOL    HW130616   0.228   0.517  10.930 -0.0514  0.6077  0.6067
 6297SOL    HW230617   0.341   0.609  10.971  1.1627 -1.7029  2.7364
 6298SOL     OW30618   0.379  11.217   5.257 -0.1071 -0.1060 -0.1872
 6298SOL    HW130619   0.411  11.265   5.181 -0.2596 -1.0186 -0.8478
 6298SOL    HW230620   0.393  11.125   5.235 -0.2708 -0.3911  0.8399
 6299SOL     OW30621   8.161   8.776   4.280  0.3732  0.2714  0.7174
 6299SOL    HW130622   8.122   8.826   4.208  0.4731 -0.8915 -0.1815
 6299SOL    HW230623   8.255   8.777   4.262  0.4265  0.2502  1.0020
 6300SOL     OW30624   0.221   0.810   3.236 -0.4814 -0.2192  0.0763
 6300SOL    HW130625   0.305   0.831   3.195 -0.8972  2.2457  0.3121
 6300SOL    HW230626   0.237   0.819   3.330 -0.3023 -2.8058  0.3632
 6301SOL     OW30627  10.294   2.489   1.999 -0.0257 -0.2085 -0.3902
 6301SOL    HW130628  10.266   2.411   2.047 -0.0690 -0.5156 -0.9069
 6301SOL    HW230629  10.229   2.499   1.930  0.0479  0.2197 -0.3988
 6302SOL     OW30630  11.906   7.802   9.099 -0.2400  0.1345 -0.0764
 6302SOL    HW130631  11.939   7.838   9.017 -1.1428  3.2023  0.7877
 6302SOL    HW230632  11.831   7.748   9.073 -0.9664  1.6464 -1.2526
 6303SOL     OW30633   8.571   7.116   4.668 -0.5977 -0.4625 -0.0688
 6303SOL    HW130634   8.642   7.180   4.665  1.1483 -2.3456 -0.6952
 6303SOL    HW230635   8.573   7.073   4.582 -3.7686  0.6579 -0.8557
 6304SOL     OW30636  13.537   1.923  11.602 -0.3067  0.3313 -0.0592
 6304SOL    HW130637  13.591   1.968  11.667  1.6068 -1.4008 -0.3693
 6304SOL    HW230638  13.535   1.984  11.527  1.5241  0.3109 -0.1613
 6305SOL     OW30639   1.085   5.536  12.991 -0.5668 -0.0214  0.5929
 6305SOL    HW130640   1.143   5.491  12.930 -0.5360  0.2435  0.4208
 6305SOL    HW230641   1.022   5.581  12.934 -0.8813 -0.2287  0.7763
 6306SOL     OW30642   2.107   6.265   4.829 -0.2626 -0.2548 -0.1341
 6306SOL    HW130643   2.187   6.255   4.778  0.9884  0.9798  1.4629
 6306SOL    HW230644   2.084   6.176   4.856 -0.6666 -0.8742 -2.3036
 6307SOL     OW30645   9.768   9.265  13.252  0.0840 -0.0604  0.2510
 6307SOL    HW130646   9.839   9.327  13.237  0.3319 -0.0048  1.5389
 6307SOL    HW230647   9.714   9.306  13.319 -0.8483 -0.3754 -0.2847
 6308SOL     OW30648   1.211   6.281  10.768  0.3886  0.1902 -0.4131
 6308SOL    HW130649   1.133   6.318  10.728  0.9905  0.2168 -1.6252
 6308SOL    HW230650   1.248   6.352  10.821  0.2613  0.5676 -0.8264
 6309SOL     OW30651   0.639  11.189   6.397 -0.4366 -0.6894  0.0858
 6309SOL    HW130652   0.699  11.201   6.323 -1.9441  0.5487 -0.9872
 6309SOL    HW230653   0.552  11.192   6.358 -1.2558 -2.2192  1.6374
 6310SOL     OW30654   0.462   2.582   2.170  0.5371  0.9095  0.1295
 6310SOL    HW130655   0.485   2.674   2.158  1.6823  0.6030 -0.0608
 6310SOL    HW230656   0.400   2.564   2.099  1.1148  1.2555 -0.4705
 6311SOL     OW30657   1.970   9.936   7.586  0.5049 -0.2720 -0.3046
 6311SOL    HW130658   1.968  10.028   7.612  2.0153 -0.6197  1.2732
 6311SOL    HW230659   2.036   9.931   7.517  0.0400 -0.0890 -0.7610
 6312SOL     OW30660  12.092  13.432   2.140 -0.0604  0.1061 -0.0850
 6312SOL    HW130661  12.078  13.475   2.224 -1.1664  1.4249 -0.9096
 6312SOL    HW230662  12.149  13.492   2.091  1.0609 -0.9214 -0.1036
 6313SOL     OW30663   4.337  10.714   6.522 -0.0046 -0.1429  0.5450
 6313SOL    HW130664   4.300  10.689   6.606 -2.5067  0.8023 -0.1741
 6313SOL    HW230665   4.287  10.664   6.458 -0.0382  1.1907 -0.5097
 6314SOL     OW30666  12.690   6.795   5.909 -0.2424  0.6350  0.0714
 6314SOL    HW130667  12.739   6.864   5.864 -1.0091  1.7189  0.8365
 6314SOL    HW230668  12.651   6.743   5.839 -0.7020  1.7589 -0.5235
 6315SOL     OW30669   6.886   3.711   1.590 -0.2602  0.5627 -0.4076
 6315SOL    HW130670   6.913   3.752   1.508 -1.9331  1.5719 -0.4969
 6315SOL    HW230671   6.816   3.766   1.623 -1.9673 -1.6795 -0.0140
 6316SOL     OW30672   8.161   0.076  11.037  0.0720  0.0668 -0.0659
 6316SOL    HW130673   8.157  -0.001  10.980 -1.6779  0.9661 -1.2581
 6316SOL    HW230674   8.105   0.141  10.994  0.0777  1.4098  1.8134
 6317SOL     OW30675   2.520  12.928   3.768  0.1951  0.6529  0.5879
 6317SOL    HW130676   2.598  12.980   3.746  0.0226  0.7877  0.2832
 6317SOL    HW230677   2.447  12.984   3.743 -0.0097  0.7237  1.3246
 6318SOL     OW30678   5.300  11.621  10.450  0.0485  0.3643 -1.0256
 6318SOL    HW130679   5.209  11.650  10.456 -0.2838 -0.9482  3.0544
 6318SOL    HW230680   5.294  11.530  10.420 -0.3453 -0.5644  1.5889
 6319SOL     OW30681   5.840  10.399   3.061  0.0158 -0.1088  0.1058
 6319SOL    HW130682   5.769  10.349   3.022  0.2677 -2.0082  1.9280
 6319SOL    HW230683   5.910  10.336   3.074  0.9117  1.0429  1.1255
 6320SOL     OW30684   5.247  10.580   5.517  0.4708 -0.6184  0.3049
 6320SOL    HW130685   5.274  10.614   5.602 -0.1366  0.3926  0.1037
 6320SOL    HW230686   5.271  10.648   5.455 -2.4331  0.3358  0.1161
 6321SOL     OW30687   6.541   6.143   9.469 -0.0545 -0.0936  0.1241
 6321SOL    HW130688   6.595   6.138   9.389  0.5918 -0.5690  0.5710
 6321SOL    HW230689   6.460   6.098   9.446  0.7903 -1.7809  0.2190
 6322SOL     OW30690  11.955   9.303  11.279  0.2256 -0.5224 -0.1364
 6322SOL    HW130691  11.961   9.314  11.374  0.7020 -0.9852 -0.1074
 6322SOL    HW230692  12.020   9.237  11.259 -1.1768 -1.8183 -0.5565
 6323SOL     OW30693  10.768   3.984   5.810  0.0157  0.0637  0.2271
 6323SOL    HW130694  10.745   4.073   5.784 -0.9099  0.2865  1.6476
 6323SOL    HW230695  10.854   3.968   5.771 -0.6260  0.8618 -1.6215
 6324SOL     OW30696   0.916   0.514   2.962 -0.7470 -0.4173  0.2606
 6324SOL    HW130697   1.003   0.498   3.000 -1.1328 -0.6471  1.0917
 6324SOL    HW230698   0.855   0.486   3.031 -1.4943 -1.5884 -0.8366
 6325SOL     OW30699   5.358   3.618   3.453  0.0525 -0.5086 -0.3797
 6325SOL    HW130700   5.364   3.658   3.366  2.1448 -1.6551 -0.8205
 6325SOL    HW230701   5.441   3.638   3.495  0.2612 -2.4447  0.2296
 6326SOL     OW30702   0.424   9.982  10.115  0.1865  0.0491  0.3500
 6326SOL    HW130703   0.350   9.976  10.175  0.8031  0.2693  1.1444
 6326SOL    HW230704   0.470  10.061  10.141 -0.2668  0.8873 -1.2778
 6327SOL     OW30705   1.698   1.958  13.628 -0.3195  0.4065  0.1477
 6327SOL    HW130706   1.688   1.887  13.691 -0.0967 -0.7710 -1.1060
 6327SOL    HW230707   1.654   1.927  13.549  0.3825  1.3770 -0.6549
 6328SOL     OW30708   0.064   9.577   3.164 -0.0738 -0.2530  0.6017
 6328SOL    HW130709   0.090   9.509   3.103  0.4241 -0.3648  0.9332
 6328SOL    HW230710   0.145   9.624   3.185  0.0092 -1.0312  2.1659
 6329SOL     OW30711   2.366   8.382   4.728 -0.4170 -0.0154 -0.0680
 6329SOL    HW130712   2.367   8.332   4.647 -2.2008  0.0968 -0.1866
 6329SOL    HW230713   2.325   8.324   4.792  0.7850 -0.0277  0.7302
 6330SOL     OW30714   2.733  10.523   7.802  1.1521  0.5675 -0.2593
 6330SOL    HW130715   2.725  10.529   7.706 -1.0071  2.6476 -0.0489
 6330SOL    HW230716   2.804  10.584   7.823 -0.3567  2.4535 -0.3880
 6331SOL     OW30717  10.542   0.822   4.106  0.1029 -0.0088 -0.1441
 6331SOL    HW130718  10.461   0.845   4.059 -0.4375 -0.4637  0.5576
 6331SOL    HW230719  10.550   0.727   4.096 -0.6245 -0.2910  1.6064
 6332SOL     OW30720   4.093   8.977   2.286  0.1581  0.1030 -0.1338
 6332SOL    HW130721   4.148   8.932   2.222  0.3078  0.1425 -0.0350
 6332SOL    HW230722   4.011   8.929   2.286  0.3101 -0.1550 -0.0435
 6333SOL     OW30723   7.502   5.776  12.373  0.5995 -0.0596  0.1076
 6333SOL    HW130724   7.534   5.692  12.340  1.5685  0.1154  0.5695
 6333SOL    HW230725   7.418   5.789  12.329 -0.3563 -2.0370  1.2155
 6334SOL     OW30726  11.201  10.600   8.736 -0.6911  0.3843 -0.3657
 6334SOL    HW130727  11.121  10.652   8.742 -0.4702  0.9982 -2.1962
 6334SOL    HW230728  11.205  10.574   8.644  1.0656  0.1161 -0.2370
 6335SOL     OW30729   7.632   5.649   1.270 -0.4947 -0.4065  0.0494
 6335SOL    HW130730   7.717   5.683   1.297 -0.2990 -1.4116  0.7769
 6335SOL    HW230731   7.618   5.573   1.326 -0.9249 -1.4853 -1.4468
 6336SOL     OW30732   3.523  11.021   3.826 -0.1814  0.2571  0.5605
 6336SOL    HW130733   3.498  11.109   3.856 -0.0497  0.7213 -0.6301
 6336SOL    HW230734   3.500  11.020   3.733 -0.1796 -0.9834  0.5527
 6337SOL     OW30735  10.475   2.367  10.830  0.0545 -0.0057  0.3132
 6337SOL    HW130736  10.410   2.301  10.804 -1.6993  1.9635 -0.6933
 6337SOL    HW230737  10.497   2.411  10.748  2.2222 -0.1803  0.7581
 6338SOL     OW30738  12.573   5.645   9.503 -0.2674  0.2181  0.8613
 6338SOL    HW130739  12.478   5.634   9.506 -0.1603 -0.5179  1.5958
 6338SOL    HW230740  12.588   5.686   9.417 -1.1845 -0.2100  0.4713
 6339SOL     OW30741  10.259   7.029   7.769 -0.2399 -0.4718  0.4333
 6339SOL    HW130742  10.345   7.062   7.744 -1.1399  2.5749  0.9660
 6339SOL    HW230743  10.277   6.973   7.845  1.2786  0.0497  0.5011
 6340SOL     OW30744  10.391   6.392  10.402  0.2622  1.0823 -0.0511
 6340SOL    HW130745  10.415   6.360  10.315 -1.9446  0.0503 -0.3603
 6340SOL    HW230746  10.363   6.313  10.449 -1.3182  1.9726  0.5942
 6341SOL     OW30747   2.295  11.593  13.425  0.1507  0.5533  0.2062
 6341SOL    HW130748   2.260  11.679  13.402 -0.1624  0.1125 -1.0511
 6341SOL    HW230749   2.349  11.569  13.350 -1.0048 -1.0061 -0.1728
 6342SOL     OW30750  10.075   7.499   8.232 -0.7890 -0.0189  0.0981
 6342SOL    HW130751   9.982   7.505   8.251 -0.5021 -0.3781  1.7247
 6342SOL    HW230752  10.115   7.471   8.314  0.4379 -2.7219 -1.2894
 6343SOL     OW30753   3.679   2.394  10.430  0.0566 -0.0279  0.4073
 6343SOL    HW130754   3.756   2.351  10.466  0.5051  0.4707  0.0543
 6343SOL    HW230755   3.634   2.326  10.381  0.1476 -0.3780  0.8055
 6344SOL     OW30756   8.793  13.132   7.940  0.3677 -0.2591  0.3650
 6344SOL    HW130757   8.863  13.085   7.894  0.4999 -0.2857  0.5875
 6344SOL    HW230758   8.775  13.208   7.885  0.5718 -0.2533  0.3030
 6345SOL     OW30759   8.459   0.174   5.547  0.4982 -0.3885  0.0020
 6345SOL    HW130760   8.372   0.211   5.562  0.6437 -0.8394  2.3161
 6345SOL    HW230761   8.520   0.247   5.565  0.6781 -0.8994  1.5754
 6346SOL     OW30762   6.741   1.628   8.610  0.8228 -0.7005 -0.2204
 6346SOL    HW130763   6.683   1.677   8.551  1.0296  0.5678  0.6026
 6346SOL    HW230764   6.819   1.611   8.558  1.1798  0.7828 -0.2158
 6347SOL     OW30765  10.965   9.145   2.540  0.0416  0.3740  0.3171
 6347SOL    HW130766  11.012   9.149   2.457 -0.3599  0.0927  0.0731
 6347SOL    HW230767  11.023   9.187   2.603 -0.1150  1.5664 -0.3202
 6348SOL     OW30768  11.463  12.958   0.410  0.0267 -0.2683  0.1431
 6348SOL    HW130769  11.412  12.930   0.334 -0.0996 -1.4685  0.6514
 6348SOL    HW230770  11.541  12.903   0.408  0.3146  0.1255  0.5349
 6349SOL     OW30771   9.548   7.334   5.300 -0.6498 -0.1117  0.8336
 6349SOL    HW130772   9.485   7.269   5.271  1.6153 -2.4267  0.7141
 6349SOL    HW230773   9.583   7.299   5.382  0.2641  1.2070  1.0449
 6350SOL     OW30774   8.017   5.250   8.566 -0.0411 -0.1642  0.0794
 6350SOL    HW130775   7.967   5.318   8.520  0.2182  0.3740  0.5782
 6350SOL    HW230776   8.109   5.277   8.556  0.0859 -0.6213  0.0004
 6351SOL     OW30777   9.964  12.655   5.303  0.1893 -0.3791  0.0505
 6351SOL    HW130778  10.018  12.576   5.305  0.1252 -0.4431  2.9615
 6351SOL    HW230779   9.948  12.676   5.395 -1.1995  2.0918 -0.6573
 6352SOL     OW30780   3.938  13.702   8.902  0.3191  0.4647 -0.2176
 6352SOL    HW130781   3.905  13.689   8.813  1.2380  1.5635 -0.7353
 6352SOL    HW230782   4.003  13.633   8.914  0.0878  0.2239 -0.3323
 6353SOL     OW30783  11.029   6.074   3.195 -0.4967  0.0736 -0.3958
 6353SOL    HW130784  10.954   6.031   3.154 -0.7540  1.2151 -1.1594
 6353SOL    HW230785  11.014   6.064   3.289 -0.8981 -0.8921 -0.5520
 6354SOL     OW30786  12.954   1.299   3.997 -0.6524 -0.1880  0.1030
 6354SOL    HW130787  12.916   1.256   4.074  0.3360 -0.2201  0.5841
 6354SOL    HW230788  13.048   1.292   4.010 -0.4803  0.5596 -0.7019
 6355SOL     OW30789  12.695   5.026   5.810 -0.5726  0.1305  0.4315
 6355SOL    HW130790  12.687   5.019   5.905  0.4217  0.3071  0.5294
 6355SOL    HW230791  12.788   5.017   5.792 -0.8489 -0.8763 -0.6152
 6356SOL     OW30792   3.943   1.667   1.741 -0.2022 -0.3206  0.3760
 6356SOL    HW130793   4.012   1.649   1.677  0.1031 -1.4684  0.9908
 6356SOL    HW230794   3.987   1.712   1.812 -0.6251  1.3528 -0.3733
 6357SOL     OW30795   2.178   1.122  11.691  0.2030  0.1079 -0.4198
 6357SOL    HW130796   2.117   1.146  11.761  1.2976  1.0661  0.2426
 6357SOL    HW230797   2.149   1.173  11.615  0.8109  1.3934  0.1918
 6358SOL     OW30798   9.309   8.350   6.988  0.2240  0.0392 -0.6318
 6358SOL    HW130799   9.371   8.402   7.039 -0.0731  0.7347 -0.9734
 6358SOL    HW230800   9.277   8.285   7.050  0.0674  0.7111  0.0056
 6359SOL     OW30801   8.550  10.199  13.282 -0.3808  0.5754 -0.2769
 6359SOL    HW130802   8.520  10.200  13.373 -0.4381  0.7334 -0.2972
 6359SOL    HW230803   8.536  10.288  13.251 -0.4889  0.4849 -0.4839
 6360SOL     OW30804   0.666   9.987   9.303  0.1637 -0.3209 -0.4174
 6360SOL    HW130805   0.736  10.048   9.278 -0.8826  0.6188 -1.1746
 6360SOL    HW230806   0.646   9.940   9.222 -0.2587 -0.3907 -0.2734
 6361SOL     OW30807   9.622   7.619  12.990 -0.3247  0.2616  0.6047
 6361SOL    HW130808   9.705   7.629  12.943 -0.2559 -0.6244  0.5253
 6361SOL    HW230809   9.563   7.681  12.947 -0.1368 -0.2158 -0.3717
 6362SOL     OW30810  11.518   4.587   6.651 -0.1649  0.1087  0.3430
 6362SOL    HW130811  11.436   4.573   6.698 -0.5739  0.7287 -0.1687
 6362SOL    HW230812  11.494   4.579   6.558  0.6166 -1.0874  0.2113
 6363SOL     OW30813   1.317   6.274  11.068  0.2723  0.0519  0.1164
 6363SOL    HW130814   1.290   6.320  11.148 -0.4521 -0.1880  0.0113
 6363SOL    HW230815   1.389   6.327  11.034  0.0150  0.6331  0.4598
 6364SOL     OW30816  13.040  11.163  12.933  0.0171  0.2575  0.2097
 6364SOL    HW130817  13.081  11.249  12.921 -0.2189  0.0337 -2.8437
 6364SOL    HW230818  13.104  11.113  12.983  2.0114  0.9671 -1.4979
 6365SOL     OW30819   2.209   5.781   8.298 -0.3153  0.3391 -0.2009
 6365SOL    HW130820   2.176   5.766   8.387  0.4634 -1.8097 -0.2069
 6365SOL    HW230821   2.298   5.745   8.300  0.0368  1.0778 -1.6207
 6366SOL     OW30822  13.159   6.221   0.152  0.4473 -0.1791  0.1517
 6366SOL    HW130823  13.072   6.208   0.190  0.7154 -2.1448  0.2054
 6366SOL    HW230824  13.151   6.300   0.099 -0.8030  0.8321  1.7607
 6367SOL     OW30825   3.557   0.292   9.019  0.2972 -0.0442 -0.1948
 6367SOL    HW130826   3.572   0.242   8.938  0.5177 -0.4815  0.1153
 6367SOL    HW230827   3.645   0.306   9.055  0.2520  0.7088 -0.3578
 6368SOL     OW30828   1.334   3.648   9.756 -0.2944  0.2376 -0.1118
 6368SOL    HW130829   1.419   3.686   9.778 -0.5581  1.2489 -0.7737
 6368SOL    HW230830   1.272   3.696   9.810 -0.3752 -1.2211  1.1723
 6369SOL     OW30831   8.530   0.110   9.127  0.4333 -0.2587 -0.3206
 6369SOL    HW130832   8.512   0.197   9.161  1.3082  0.1797 -0.9205
 6369SOL    HW230833   8.626   0.106   9.122  0.3778 -0.9778 -0.9766
 6370SOL     OW30834  10.975   9.913  10.440  0.1291 -0.0844 -0.0480
 6370SOL    HW130835  10.944   9.959  10.362 -1.3886 -0.3403  0.3914
 6370SOL    HW230836  10.999   9.826  10.408  1.4238  0.4325 -0.5727
 6371SOL     OW30837  12.548  12.541  11.126 -0.5844 -0.0802  0.4063
 6371SOL    HW130838  12.642  12.549  11.106 -0.5980 -1.1071 -0.0956
 6371SOL    HW230839  12.513  12.485  11.057 -1.4747 -0.1174  0.8792
 6372SOL     OW30840   0.816  10.230   2.892 -0.3028 -0.6203  0.0901
 6372SOL    HW130841   0.824  10.136   2.905  2.1130 -0.7823 -1.8768
 6372SOL    HW230842   0.778  10.239   2.804 -0.4992  0.2614  0.2536
 6373SOL     OW30843  12.072  13.505   3.174 -0.1683  0.4850  0.2556
 6373SOL    HW130844  12.086  13.576   3.235 -0.6497  2.4692 -1.8048
 6373SOL    HW230845  12.157  13.493   3.131 -0.0541 -0.2946  0.6807
 6374SOL     OW30846   9.714   2.075  13.648 -0.0347  0.0572  0.5155
 6374SOL    HW130847   9.627   2.068  13.609  0.2873 -0.5805 -0.0974
 6374SOL    HW230848   9.773   2.087  13.574  0.6176 -1.4103  0.7773
 6375SOL     OW30849   7.846   2.136   3.738  0.0774  0.4032  0.1246
 6375SOL    HW130850   7.795   2.089   3.805  0.1145  0.4474  0.1845
 6375SOL    HW230851   7.850   2.226   3.771  0.8244  0.2411  0.4880
 6376SOL     OW30852  10.404   2.440   1.085  0.7189  0.1947  0.0635
 6376SOL    HW130853  10.421   2.351   1.117  1.3201 -0.7129 -2.5687
 6376SOL    HW230854  10.490   2.471   1.054  0.0777  0.7347 -1.2499
 6377SOL     OW30855   6.509   2.431   6.069  0.3379 -0.4012 -0.0096
 6377SOL    HW130856   6.479   2.511   6.112 -1.3123 -0.4147 -1.0066
 6377SOL    HW230857   6.583   2.458   6.016  0.8924  0.0909  1.0034
 6378SOL     OW30858   7.250   5.006   5.814 -0.2369 -1.1100 -0.1117
 6378SOL    HW130859   7.285   5.063   5.745 -0.8131  0.4378  0.8163
 6378SOL    HW230860   7.270   5.052   5.895 -0.0464 -2.6394  0.7448
 6379SOL     OW30861   4.665   7.698   6.857  0.2478 -0.1878  0.0069
 6379SOL    HW130862   4.656   7.611   6.894 -0.9306  0.1689  0.6134
 6379SOL    HW230863   4.633   7.691   6.767  0.0973 -0.3581  0.0761
 6380SOL     OW30864   2.244   4.198   4.030  0.4543 -0.3008  0.0299
 6380SOL    HW130865   2.324   4.150   4.051 -0.1528 -1.0219  0.7528
 6380SOL    HW230866   2.261   4.287   4.059  1.3700 -0.1985 -0.7685
 6381SOL     OW30867  12.853  11.791   6.534 -0.4632  0.2535 -0.7458
 6381SOL    HW130868  12.764  11.783   6.568  0.2148 -0.7120  0.8853
 6381SOL    HW230869  12.883  11.877   6.564 -0.3349 -0.0471  0.0096
 6382SOL     OW30870   4.042   2.139   0.883 -0.2157  0.2823 -0.6428
 6382SOL    HW130871   4.123   2.108   0.842 -0.8730 -3.5656  0.6187
 6382SOL    HW230872   3.996   2.185   0.812  1.1100 -1.3693 -2.7071
 6383SOL     OW30873  11.065   2.181   2.434  0.3033  0.2048  0.1879
 6383SOL    HW130874  11.008   2.241   2.384 -0.9950  0.2021  1.6118
 6383SOL    HW230875  11.105   2.126   2.367  0.6903  1.9263 -1.0824
 6384SOL     OW30876   9.875   9.285   3.769  0.5939  0.4262  0.4879
 6384SOL    HW130877   9.962   9.322   3.757  0.7778  0.1932  1.0783
 6384SOL    HW230878   9.871   9.261   3.862  0.9357 -2.1319 -0.0670
 6385SOL     OW30879  10.104   2.423   2.572  0.2740  0.6292 -0.1347
 6385SOL    HW130880  10.094   2.514   2.546 -1.2290 -0.0820 -2.4294
 6385SOL    HW230881  10.027   2.405   2.626  0.9137  0.8506  0.8820
 6386SOL     OW30882   1.132  12.018   5.686  0.8347 -0.3863 -0.6915
 6386SOL    HW130883   1.142  11.923   5.693 -1.6830 -0.7631 -1.3263
 6386SOL    HW230884   1.077  12.031   5.609  0.6527  1.5619 -0.2866
 6387SOL     OW30885   9.390   9.047   9.840  0.4519  0.5364 -0.0678
 6387SOL    HW130886   9.482   9.040   9.815  0.3903  0.7759 -0.3763
 6387SOL    HW230887   9.379   8.986   9.912  0.7211  0.0934 -0.4009
 6388SOL     OW30888  11.320   5.857   2.587 -0.1133  0.5492 -0.0073
 6388SOL    HW130889  11.298   5.779   2.535  0.8988 -0.2441  0.7156
 6388SOL    HW230890  11.361   5.822   2.666  1.6970  1.8539 -0.3059
 6389SOL     OW30891   4.745   7.671   8.468 -0.1338  0.3405 -0.4792
 6389SOL    HW130892   4.814   7.699   8.528  0.6037 -1.4536 -0.4223
 6389SOL    HW230893   4.668   7.660   8.524  0.5402 -1.2923  0.2005
 6390SOL     OW30894   6.896   1.723   4.663 -0.2043 -0.4139  0.2696
 6390SOL    HW130895   6.919   1.761   4.578 -1.0293 -0.7796 -0.1220
 6390SOL    HW230896   6.911   1.629   4.652  1.3769 -0.3041  1.0918
 6391SOL     OW30897  10.652   8.489  12.136 -0.2299 -0.3662 -0.0248
 6391SOL    HW130898  10.708   8.489  12.214 -1.0472 -2.1872  0.6178
 6391SOL    HW230899  10.705   8.533  12.069  1.1683 -0.2613  1.0891
 6392SOL     OW30900   9.332  10.020  12.320 -0.0580  0.5574  0.0479
 6392SOL    HW130901   9.384  10.022  12.400  1.0417 -4.1458 -0.2531
 6392SOL    HW230902   9.250   9.977  12.345  0.4016 -1.2177 -1.2895
 6393SOL     OW30903   9.538  10.734  13.560  0.1374 -0.0883 -0.1761
 6393SOL    HW130904   9.538  10.678  13.482 -0.0824 -0.2972 -0.0259
 6393SOL    HW230905   9.602  10.693  13.619 -0.6246 -0.6593  0.2739
 6394SOL     OW30906   9.095   0.471  11.914  0.3531 -0.2286 -0.4042
 6394SOL    HW130907   9.126   0.510  11.995 -1.3262 -0.4612  0.4053
 6394SOL    HW230908   9.137   0.522  11.845  0.8366  0.7994  0.6193
 6395SOL     OW30909   3.987  10.646   8.919 -0.4108  0.2273  0.1077
 6395SOL    HW130910   4.075  10.613   8.900 -1.0465 -3.2546  2.3420
 6395SOL    HW230911   3.959  10.687   8.837  2.0489 -1.5122 -1.7588
 6396SOL     OW30912   8.819   8.016   8.970 -0.1235 -0.4197  0.1602
 6396SOL    HW130913   8.851   7.993   8.883  0.7127 -0.0311  0.3518
 6396SOL    HW230914   8.876   8.088   8.998 -2.3191  1.5906 -0.2113
 6397SOL     OW30915  10.291   7.184   5.206 -0.2003  0.3347 -0.1882
 6397SOL    HW130916  10.214   7.212   5.157 -0.9726 -0.5942  0.4560
 6397SOL    HW230917  10.332   7.118   5.149 -0.2605  0.3402 -0.2390
 6398SOL     OW30918   4.283   8.580   6.660  0.3387  0.2138 -0.2433
 6398SOL    HW130919   4.245   8.655   6.613  2.1294  0.5199 -1.2771
 6398SOL    HW230920   4.237   8.504   6.623  0.1899  0.6278 -0.9310
 6399SOL     OW30921   8.128   9.407   8.533 -0.3254 -0.1943  0.1159
 6399SOL    HW130922   8.155   9.385   8.444  2.3521 -1.0794  1.0424
 6399SOL    HW230923   8.094   9.324   8.568  0.5864 -0.4150  0.5247
 6400SOL     OW30924   4.577   5.926   9.930 -0.0682 -0.2975  0.3769
 6400SOL    HW130925   4.536   5.847   9.892 -0.7492  1.5557 -3.2081
 6400SOL    HW230926   4.659   5.935   9.880  0.4126  0.8112  1.3485
 6401SOL     OW30927   5.146   2.221   4.505 -0.3217 -0.5873  0.5688
 6401SOL    HW130928   5.111   2.303   4.470 -1.3135 -1.3418 -0.2426
 6401SOL    HW230929   5.161   2.240   4.598  2.3322  1.4623 -0.1321
 6402SOL     OW30930   0.581  13.116   8.568 -0.4421 -0.2075 -0.0277
 6402SOL    HW130931   0.618  13.202   8.548 -1.9361  0.4932  0.0901
 6402SOL    HW230932   0.614  13.059   8.498  2.5648 -0.1828  1.2233
 6403SOL     OW30933  13.133  12.695   3.673  0.3226 -0.0609 -0.3189
 6403SOL    HW130934  13.115  12.623   3.733  0.6591  0.7810  0.8358
 6403SOL    HW230935  13.047  12.721   3.640 -0.1822  0.9543  1.6168
 6404SOL     OW30936   6.736   7.830   8.791 -0.2877 -0.3573 -0.5237
 6404SOL    HW130937   6.655   7.828   8.740  0.2515  0.7879 -1.4951
 6404SOL    HW230938   6.712   7.875   8.872 -0.7042 -0.3174 -0.6649
 6405SOL     OW30939  11.889   3.701  10.892 -0.0466  0.4479  0.4127
 6405SOL    HW130940  11.948   3.776  10.899  0.8564 -0.1940 -0.1824
 6405SOL    HW230941  11.808   3.731  10.933  0.7849  1.2374  1.5328
 6406SOL     OW30942   7.306   2.358   7.401  0.5378  0.2288 -0.3070
 6406SOL    HW130943   7.246   2.283   7.406 -0.4195  1.0446  2.2525
 6406SOL    HW230944   7.386   2.327   7.443  0.5810  0.2585 -0.3686
 6407SOL     OW30945   7.529   8.122  13.123 -0.4974 -0.6225 -0.0404
 6407SOL    HW130946   7.505   8.104  13.032  1.3706 -0.6199 -0.5660
 6407SOL    HW230947   7.624   8.113  13.126 -0.4488 -0.0407  1.7884
 6408SOL     OW30948   7.537   1.602   2.767  0.9127 -0.3951 -0.1391
 6408SOL    HW130949   7.456   1.559   2.795  0.5506  0.2378 -0.1925
 6408SOL    HW230950   7.579   1.629   2.849  1.1484 -0.8559 -0.1047
 6409SOL     OW30951  11.615   0.659   2.740  0.2926  0.2005 -0.7492
 6409SOL    HW130952  11.707   0.680   2.750  0.2124 -0.2655  1.4090
 6409SOL    HW230953  11.605   0.573   2.780 -1.7264  1.9129  2.9324
 6410SOL     OW30954   9.280   3.946   2.484 -0.0956  0.3960  0.0918
 6410SOL    HW130955   9.279   4.013   2.552 -0.5717 -0.6324  1.1383
 6410SOL    HW230956   9.209   3.971   2.424 -1.2595  0.0699  1.2701
 6411SOL     OW30957  13.694   9.914   3.293  0.4981  0.0031  0.0331
 6411SOL    HW130958  13.618   9.973   3.298 -0.1248 -0.5570 -1.8059
 6411SOL    HW230959  13.770   9.971   3.301 -0.1138  0.7086  0.9083
 6412SOL     OW30960  10.729   8.471   6.072  0.2458  0.4536 -0.3751
 6412SOL    HW130961  10.700   8.390   6.029  3.3044  0.3053 -2.4898
 6412SOL    HW230962  10.719   8.538   6.005  1.1584  1.0761  0.0975
 6413SOL     OW30963   0.827   3.791   7.978 -0.1391 -0.0308 -0.5141
 6413SOL    HW130964   0.845   3.803   8.071 -0.0439 -0.4121 -0.4818
 6413SOL    HW230965   0.833   3.879   7.940 -2.7583  0.5714  0.2799
 6414SOL     OW30966   8.846   3.310  11.551 -0.0457 -0.2696  0.5162
 6414SOL    HW130967   8.808   3.310  11.639 -2.2220  0.7955 -0.3585
 6414SOL    HW230968   8.771   3.313  11.492  1.3673 -0.6802 -1.4021
 6415SOL     OW30969   8.625   6.499   8.288  0.2208  0.2805  0.1146
 6415SOL    HW130970   8.532   6.520   8.291 -0.1198 -1.1082  2.4959
 6415SOL    HW230971   8.670   6.581   8.308 -0.4657  0.9616 -1.0774
 6416SOL     OW30972   1.691   4.573  11.656  0.0059  0.8264 -0.6813
 6416SOL    HW130973   1.718   4.506  11.719  1.4294  0.9700 -1.1130
 6416SOL    HW230974   1.679   4.652  11.709 -2.7937  0.0579  0.0225
 6417SOL     OW30975   1.352   8.393   9.535 -0.2445 -0.0177 -0.1317
 6417SOL    HW130976   1.344   8.349   9.619  2.1547 -0.8202 -0.2441
 6417SOL    HW230977   1.353   8.486   9.557  2.9403 -0.2155  1.1627
 6418SOL     OW30978   0.282   7.618   8.065 -0.6629 -0.1421 -0.4074
 6418SOL    HW130979   0.340   7.588   8.135 -1.6232 -1.1319 -0.0115
 6418SOL    HW230980   0.340   7.662   8.004  0.0079  2.2829  1.7996
 6419SOL     OW30981   9.942   8.758  12.018  0.2819  0.0126 -0.5912
 6419SOL    HW130982   9.999   8.835  12.022 -0.9545  0.9055  1.3281
 6419SOL    HW230983   9.881   8.777  11.946  1.3358 -0.2023 -1.5620
 6420SOL     OW30984   5.030  12.685   8.751 -0.3774 -0.0103 -0.1225
 6420SOL    HW130985   5.030  12.592   8.726  0.0219  0.5181 -2.2582
 6420SOL    HW230986   5.106  12.722   8.706 -1.7441  1.7655 -1.1100
 6421SOL     OW30987   1.686   5.054  13.514 -0.2241  0.2659  0.4164
 6421SOL    HW130988   1.708   4.986  13.451 -0.3139  0.9733 -0.3968
 6421SOL    HW230989   1.710   5.017  13.599 -0.6507 -0.9292  0.0323
 6422SOL     OW30990   1.220  13.457  13.218  0.8258  0.1583 -0.1518
 6422SOL    HW130991   1.315  13.445  13.225  0.8098 -0.4474 -0.8265
 6422SOL    HW230992   1.183  13.383  13.264  0.6182  1.7249  2.3947
 6423SOL     OW30993   5.208   1.175  10.941  0.0767 -0.9993  0.1003
 6423SOL    HW130994   5.266   1.202  10.869 -2.5665  2.0567 -1.1237
 6423SOL    HW230995   5.261   1.189  11.020  1.4010  0.7163 -0.9952
 6424SOL     OW30996   3.103  13.358  12.646 -0.3131 -0.3613 -0.0146
 6424SOL    HW130997   3.014  13.356  12.610 -0.2629 -0.9145 -0.1231
 6424SOL    HW230998   3.090  13.379  12.738 -0.3542  2.3909 -0.5711
 6425SOL     OW30999   1.375   7.877   0.670  1.1408  0.4731  0.3553
 6425SOL    HW131000   1.423   7.924   0.601  0.2558  0.9056  0.0186
 6425SOL    HW231001   1.408   7.787   0.665  0.0892  0.1269 -1.6241
 6426SOL     OW31002   8.585  11.496   9.723  0.2189 -0.2054 -0.3236
 6426SOL    HW131003   8.521  11.465   9.787 -0.1404  0.3144 -0.4285
 6426SOL    HW231004   8.532  11.527   9.649  0.4852  1.8028  0.2655
 6427SOL     OW31005   0.379   4.593   7.409 -0.5472  0.7903 -0.1805
 6427SOL    HW131006   0.471   4.606   7.390 -0.1765 -1.6383 -0.4333
 6427SOL    HW231007   0.334   4.610   7.327  0.1925 -2.0276 -1.2701
 6428SOL     OW31008   9.136   2.252   0.690  0.3741  0.1409  0.0548
 6428SOL    HW131009   9.199   2.317   0.659  1.5535 -0.4383  1.0972
 6428SOL    HW231010   9.176   2.217   0.770 -0.4570 -1.4898 -0.1947
 6429SOL     OW31011   9.145   7.277   1.219  0.1641  0.1838  0.2801
 6429SOL    HW131012   9.122   7.357   1.265  1.6953  1.3189 -0.8318
 6429SOL    HW231013   9.096   7.281   1.137 -0.4218 -0.4788  0.5806
 6430SOL     OW31014  10.356   8.332  12.722 -0.0245 -0.0456 -0.3074
 6430SOL    HW131015  10.372   8.388  12.646 -1.5573  0.4005 -0.3342
 6430SOL    HW231016  10.391   8.382  12.796  0.1331  0.1959 -0.5411
 6431SOL     OW31017   7.806  13.276   9.977 -0.2554  0.6397 -0.5172
 6431SOL    HW131018   7.749  13.203   9.951  0.5669  0.3091 -1.4637
 6431SOL    HW231019   7.854  13.298   9.897  1.9379 -0.0099  0.5407
 6432SOL     OW31020   5.684   1.454   0.884  0.5018  0.1424 -0.0809
 6432SOL    HW131021   5.662   1.470   0.792  0.9017 -0.3007 -0.2599
 6432SOL    HW231022   5.663   1.536   0.928 -1.2632 -0.1663 -0.2700
 6433SOL     OW31023   7.321   1.454   6.351 -0.1294  0.0401 -0.2901
 6433SOL    HW131024   7.266   1.416   6.419 -0.9549 -0.0933 -1.0223
 6433SOL    HW231025   7.402   1.479   6.397 -0.3481 -0.7912  0.5673
 6434SOL     OW31026   9.692   8.860  12.656 -0.0505  0.0133 -0.3896
 6434SOL    HW131027   9.766   8.908  12.693  0.2624 -0.0011 -1.0017
 6434SOL    HW231028   9.690   8.777  12.705 -0.1525  0.3401  0.1704
 6435SOL     OW31029   1.711   1.473  10.546  0.0826 -0.7541  0.6393
 6435SOL    HW131030   1.796   1.515  10.536 -0.1446 -0.6384 -1.0603
 6435SOL    HW231031   1.720   1.390  10.500 -0.7639 -0.6757  0.3172
 6436SOL     OW31032   9.539  13.140  10.686  0.2755 -0.0627 -0.0923
 6436SOL    HW131033   9.552  13.156  10.592 -0.4748  0.7016 -0.0744
 6436SOL    HW231034   9.564  13.222  10.728 -0.8669  0.1395  0.2378
 6437SOL     OW31035  12.707   0.399  13.582  0.1720 -0.0191  0.6097
 6437SOL    HW131036  12.697   0.475  13.640  0.1947  0.7864 -0.4116
 6437SOL    HW231037  12.654   0.331  13.623  0.1066  0.5677  1.5214
 6438SOL     OW31038   8.624  12.909   9.028 -0.5222  0.6943  0.1177
 6438SOL    HW131039   8.644  12.891   9.120 -1.1906  0.8276  0.2913
 6438SOL    HW231040   8.538  12.950   9.029 -2.2171 -2.5038 -0.8270
 6439SOL     OW31041   2.434   5.339   4.056 -0.1480 -1.0991  0.4525
 6439SOL    HW131042   2.525   5.313   4.042  0.0417 -0.0407 -0.4875
 6439SOL    HW231043   2.398   5.273   4.115  1.4363 -1.1324  1.4292
 6440SOL     OW31044   5.646   3.998  11.746 -0.3233  0.1171 -0.0420
 6440SOL    HW131045   5.699   3.927  11.711  0.9040  0.6859  0.6029
 6440SOL    HW231046   5.705   4.047  11.804 -1.5135  0.8440  0.6205
 6441SOL     OW31047  11.654  11.090   6.810 -0.0223  0.1124  0.0022
 6441SOL    HW131048  11.695  11.175   6.824 -0.4589  0.2511  0.4594
 6441SOL    HW231049  11.561  11.106   6.822 -0.1666 -0.3116 -0.4994
 6442SOL     OW31050   2.202   4.173  10.181  0.5276  0.2644 -0.4897
 6442SOL    HW131051   2.221   4.090  10.224 -0.8298  0.3987  0.4193
 6442SOL    HW231052   2.246   4.239  10.236  0.9609  0.2174 -0.7781
 6443SOL     OW31053   8.776   3.177   5.114  0.0370 -0.1504 -0.5026
 6443SOL    HW131054   8.763   3.086   5.141 -2.9848 -0.2370 -1.7321
 6443SOL    HW231055   8.870   3.186   5.103  0.6600 -2.4061  1.9210
 6444SOL     OW31056   0.636  12.352   1.036  0.1687  0.1202 -0.3147
 6444SOL    HW131057   0.661  12.260   1.042  0.5717  0.2393 -0.1148
 6444SOL    HW231058   0.647  12.385   1.125  0.7320  0.5408 -0.5353
 6445SOL     OW31059   1.988   0.005  13.282 -0.0890 -0.1344 -0.3606
 6445SOL    HW131060   2.005   0.019  13.375 -0.2130  0.3955 -0.4126
 6445SOL    HW231061   1.987   0.093  13.244 -1.8964 -0.1976 -0.5408
 6446SOL     OW31062   8.970   4.229   3.532 -0.9639  0.1044 -0.2540
 6446SOL    HW131063   8.882   4.199   3.555 -0.1737 -0.8507  1.7713
 6446SOL    HW231064   8.977   4.316   3.572 -0.1791 -0.8521  1.8111
 6447SOL     OW31065   7.052  10.529   1.418 -0.3173  0.5368  0.3809
 6447SOL    HW131066   6.991  10.471   1.373 -3.0122  1.9290  1.9713
 6447SOL    HW231067   7.138  10.492   1.399 -1.7766 -3.6572  0.8868
 6448SOL     OW31068   6.368   5.095  10.931 -0.4816 -0.2063  0.0662
 6448SOL    HW131069   6.451   5.079  10.886 -0.4756  0.5140 -0.1941
 6448SOL    HW231070   6.360   5.023  10.994 -0.8474 -1.6882 -1.5791
 6449SOL     OW31071   0.928  13.609  11.696  0.0985 -0.1839 -0.2924
 6449SOL    HW131072   0.881  13.685  11.663 -0.2007  0.2049  0.9845
 6449SOL    HW231073   0.869  13.570  11.761  0.7001 -0.8858 -0.1479
 6450SOL     OW31074  11.859  11.146  10.276 -0.1999 -0.0489  0.1383
 6450SOL    HW131075  11.928  11.106  10.222  0.4209  1.9171 -0.5935
 6450SOL    HW231076  11.906  11.195  10.343 -0.8206  1.9608 -0.8395
 6451SOL     OW31077   8.643   3.553   0.965 -0.5302  0.1807 -0.8028
 6451SOL    HW131078   8.696   3.500   1.024 -0.2728  0.4719 -0.7693
 6451SOL    HW231079   8.705   3.583   0.898 -0.6027  0.7013 -0.6440
 6452SOL     OW31080   2.987   9.119  13.618 -0.2273 -0.1889  0.3546
 6452SOL    HW131081   2.931   9.153  13.548 -0.3823  0.4322  0.7662
 6452SOL    HW231082   2.928   9.108  13.692  0.2428  0.7901  0.8971
 6453SOL     OW31083   1.280   8.972   8.845 -0.1184 -0.4547  0.0756
 6453SOL    HW131084   1.234   8.892   8.821 -0.1103 -0.0073 -1.5409
 6453SOL    HW231085   1.298   9.016   8.762  4.6515 -1.3208  0.3692
 6454SOL     OW31086   4.487  10.064  11.418  0.0202 -0.1236 -0.5379
 6454SOL    HW131087   4.479   9.999  11.488 -0.1055 -0.1698 -0.5963
 6454SOL    HW231088   4.402  10.063  11.374 -0.0942  0.3155 -0.3329
 6455SOL     OW31089  10.415  12.990  11.078  0.6513 -0.0124 -0.3795
 6455SOL    HW131090  10.404  13.072  11.126 -0.5028 -0.0001 -0.6406
 6455SOL    HW231091  10.421  13.016  10.986 -0.0473 -0.2361 -0.4943
 6456SOL     OW31092   6.842   1.007   7.240 -0.0730 -0.9035  0.0890
 6456SOL    HW131093   6.844   1.090   7.193 -1.6073 -0.8698  0.0419
 6456SOL    HW231094   6.751   0.997   7.268 -0.3786 -3.4501 -1.5015
 6457SOL     OW31095   4.239   2.056   3.253  0.1770 -0.7873 -0.1753
 6457SOL    HW131096   4.294   1.985   3.286  0.8904  0.1639  0.7339
 6457SOL    HW231097   4.177   2.013   3.195  2.3581 -1.7933 -1.8663
 6458SOL     OW31098   6.556   2.303   8.337  0.4054 -0.1470 -0.6459
 6458SOL    HW131099   6.550   2.309   8.241 -0.1025  2.0600 -0.5323
 6458SOL    HW231100   6.479   2.350   8.368  1.9287  1.4949  0.8470
 6459SOL     OW31101   4.249   5.948   7.724  0.4625  0.4490  0.1065
 6459SOL    HW131102   4.175   5.889   7.735  1.1251 -0.7874 -1.6316
 6459SOL    HW231103   4.281   5.963   7.813 -0.0762 -1.3898  0.6600
 6460SOL     OW31104   5.475   0.029   9.228 -0.0488  0.9031 -0.1614
 6460SOL    HW131105   5.445  -0.057   9.258  0.6073  1.5770  2.7848
 6460SOL    HW231106   5.528   0.010   9.150 -1.1621 -1.1541 -0.4839
 6461SOL     OW31107   8.315   1.136   2.459 -0.2226  0.2447  0.1311
 6461SOL    HW131108   8.275   1.174   2.382 -0.1951 -0.0029 -0.0067
 6461SOL    HW231109   8.284   1.046   2.461 -0.2305  0.2522  0.4133
 6462SOL     OW31110   3.265  11.348  12.542 -0.2890  0.9489 -0.6475
 6462SOL    HW131111   3.268  11.375  12.633  0.4169 -1.3688  0.0977
 6462SOL    HW231112   3.181  11.303  12.533  0.3952 -0.3722 -0.6242
 6463SOL     OW31113   9.223   2.776  12.063 -0.5565 -0.4085  0.7184
 6463SOL    HW131114   9.274   2.749  12.139  1.4051  2.4103  0.5967
 6463SOL    HW231115   9.154   2.832  12.098  0.6437  1.2958  0.5117
 6464SOL     OW31116   1.157  10.853   1.088  0.4900  0.1300 -0.6487
 6464SOL    HW131117   1.194  10.765   1.089  0.1528 -0.0092 -0.3104
 6464SOL    HW231118   1.081  10.847   1.029 -1.0908 -0.4609  1.3267
 6465SOL     OW31119  12.624  13.168  12.061  0.0631 -0.3296  0.2170
 6465SOL    HW131120  12.622  13.179  11.966 -0.2087 -0.3899  0.2157
 6465SOL    HW231121  12.643  13.075  12.074  2.0782  0.0225  0.2291
 6466SOL     OW31122   1.507   3.087  10.341  0.3539 -0.7568 -0.2846
 6466SOL    HW131123   1.428   3.091  10.395 -0.3741 -1.7907 -1.2351
 6466SOL    HW231124   1.560   3.018  10.382 -0.6612 -2.2808 -1.4338
 6467SOL     OW31125  12.181   3.822   5.561  0.7648  0.0638  0.1415
 6467SOL    HW131126  12.098   3.778   5.545  1.0821 -1.0403  1.4184
 6467SOL    HW231127  12.155   3.909   5.594  0.1101 -0.4666  1.0617
 6468SOL     OW31128   4.801   4.183   9.219  0.2197  0.3069  0.2950
 6468SOL    HW131129   4.894   4.194   9.239  0.7658 -1.2190 -1.1358
 6468SOL    HW231130   4.758   4.175   9.304  1.5569 -0.0201  0.9616
 6469SOL     OW31131   2.909   2.432  10.415  0.1580 -0.6472 -0.1231
 6469SOL    HW131132   2.874   2.485  10.487  0.9517 -1.5376  0.9529
 6469SOL    HW231133   2.860   2.461  10.338 -0.5057  0.5406  0.7151
 6470SOL     OW31134   8.430   3.706   0.443 -0.1886  0.1428  0.0194
 6470SOL    HW131135   8.408   3.799   0.447 -1.6366 -0.1325 -1.0317
 6470SOL    HW231136   8.496   3.695   0.512 -2.6550  1.2005  2.7510
 6471SOL     OW31137   2.679  11.565   1.560 -0.4005  0.7593 -0.2762
 6471SOL    HW131138   2.739  11.491   1.554 -0.2909  0.7123  0.9885
 6471SOL    HW231139   2.727  11.638   1.523 -0.9210  0.0081 -2.5866
 6472SOL     OW31140   9.717  11.601  13.491  0.6688  0.8131  0.5351
 6472SOL    HW131141   9.684  11.599  13.401  0.4563  2.0839  0.5719
 6472SOL    HW231142   9.683  11.521  13.530  0.5950  0.3422 -0.4491
 6473SOL     OW31143   0.129   4.852  13.738 -0.5042  0.0928 -0.3966
 6473SOL    HW131144   0.077   4.925  13.772 -1.8711  1.3269 -4.6085
 6473SOL    HW231145   0.067   4.780  13.732 -0.1497 -0.2609  0.1220
 6474SOL     OW31146   1.224  10.034   7.527 -0.0466  0.0052 -0.2295
 6474SOL    HW131147   1.250  10.024   7.619 -1.6214 -0.0310  0.2578
 6474SOL    HW231148   1.190   9.948   7.503 -2.4309  0.7549  0.1522
 6475SOL     OW31149  11.733  10.466  11.156  0.0504 -0.0858  0.3484
 6475SOL    HW131150  11.651  10.478  11.109  0.3591  0.5240 -0.0467
 6475SOL    HW231151  11.710  10.481  11.248 -0.6432 -1.6982  0.4861
 6476SOL     OW31152  12.461  10.874   8.147  0.4010 -0.3492 -0.1263
 6476SOL    HW131153  12.402  10.943   8.117  0.5770  0.0188  0.3563
 6476SOL    HW231154  12.469  10.816   8.072  0.1379  0.0781 -0.4964
 6477SOL     OW31155  12.475   3.101   2.507 -0.9223 -0.3868  0.8093
 6477SOL    HW131156  12.450   3.191   2.526 -0.7963 -0.1643 -0.0272
 6477SOL    HW231157  12.394   3.058   2.481 -0.8829 -0.3454  0.6112
 6478SOL     OW31158   1.915   7.920  12.473 -0.1992 -0.0308  0.4051
 6478SOL    HW131159   1.968   7.958  12.543  1.0144  1.8135 -1.4116
 6478SOL    HW231160   1.825   7.923  12.507  0.5957 -2.0830  3.0490
 6479SOL     OW31161  12.555   6.199   0.030  0.2701  0.5032  0.1068
 6479SOL    HW131162  12.544   6.267   0.097  1.9999  1.2606 -0.3121
 6479SOL    HW231163  12.503   6.230  -0.044  0.1591  0.8207  0.3171
 6480SOL     OW31164   3.149   7.895   4.369  0.1139 -0.2803 -0.3589
 6480SOL    HW131165   3.135   7.881   4.462  2.0256  0.0851  0.0351
 6480SOL    HW231166   3.203   7.973   4.364  1.2445 -1.0834 -1.6671
 6481SOL     OW31167   8.077   2.531  13.100  0.3930 -0.1782 -0.8707
 6481SOL    HW131168   8.094   2.591  13.027 -1.0071  2.5869  0.9014
 6481SOL    HW231169   8.164   2.505  13.130  1.0418  0.6897 -1.9100
 6482SOL     OW31170  10.918  10.978   7.744  0.4591 -0.2823  0.5816
 6482SOL    HW131171  10.997  10.985   7.690 -1.2872  2.9940 -1.9237
 6482SOL    HW231172  10.884  10.891   7.725  1.0046 -0.0007 -2.1553
 6483SOL     OW31173   4.470  11.702  13.238  0.0642 -0.2876  0.1656
 6483SOL    HW131174   4.514  11.783  13.212  2.2743 -0.9437  1.5436
 6483SOL    HW231175   4.533  11.633  13.216 -1.3835 -1.5728 -0.1233
 6484SOL     OW31176   8.465   1.499  13.739 -0.4534  0.1502 -0.0636
 6484SOL    HW131177   8.507   1.498  13.653 -0.8845  1.6528 -0.3133
 6484SOL    HW231178   8.435   1.409  13.751  3.4323 -1.2802  0.4981
 6485SOL     OW31179   9.989   3.096  11.360 -0.4478 -0.1393 -0.9073
 6485SOL    HW131180  10.079   3.130  11.366 -0.2673 -0.6735 -0.5678
 6485SOL    HW231181   9.939   3.153  11.417 -0.2248 -0.1628 -0.6829
 6486SOL     OW31182   0.436  12.961   5.120 -0.0496 -0.0879 -0.2359
 6486SOL    HW131183   0.501  12.991   5.184  0.9753 -0.6795 -0.9617
 6486SOL    HW231184   0.353  12.960   5.168  0.5718  0.1606  0.8758
 6487SOL     OW31185  10.376   2.000  13.216 -0.3343  0.0976  0.0656
 6487SOL    HW131186  10.437   2.011  13.143  1.3270 -0.4856  1.3193
 6487SOL    HW231187  10.299   1.959  13.176  1.2502 -1.9565 -1.0532
 6488SOL     OW31188   9.073  12.958  10.166  0.3068 -0.5084  0.0061
 6488SOL    HW131189   9.159  12.975  10.128  0.9495  0.6750  1.8895
 6488SOL    HW231190   9.057  13.032  10.225 -1.6638 -1.1082  0.3146
 6489SOL     OW31191   6.660   3.814  11.455  0.1712  0.0689 -0.3447
 6489SOL    HW131192   6.613   3.746  11.407 -1.3044  0.6984  0.1634
 6489SOL    HW231193   6.706   3.766  11.524  0.2205 -0.5417 -0.7835
 6490SOL     OW31194   5.150  12.496   5.496 -0.0438 -0.8051 -0.7067
 6490SOL    HW131195   5.165  12.401   5.488 -2.3859 -1.5391  1.9458
 6490SOL    HW231196   5.147  12.511   5.591  0.3592  1.9915 -1.0714
 6491SOL     OW31197   6.613   6.370   7.318 -0.1653  0.4931  0.2008
 6491SOL    HW131198   6.584   6.337   7.403  0.3704  0.2142  0.2755
 6491SOL    HW231199   6.559   6.448   7.304 -1.1358 -0.1487  0.2200
 6492SOL     OW31200   4.129   0.147   6.429 -0.1628  0.1245  0.4836
 6492SOL    HW131201   4.180   0.228   6.432  1.1860 -0.7155  1.0452
 6492SOL    HW231202   4.038   0.176   6.433  0.2697  1.6343  0.0230
 6493SOL     OW31203   9.970   8.941  13.722  0.1252  0.3937 -0.1100
 6493SOL    HW131204  10.029   8.880  13.767  1.7788  0.5735 -1.9296
 6493SOL    HW231205  10.007   9.027  13.738  0.4347  0.5028 -1.3390
 6494SOL     OW31206  12.463   5.133   7.869 -0.2361 -0.5495 -0.6085
 6494SOL    HW131207  12.402   5.162   7.937 -0.0689  0.0767 -0.7197
 6494SOL    HW231208  12.412   5.136   7.788 -0.0940 -0.1454 -0.6834
 6495SOL     OW31209  10.811   8.490   4.804  0.1576 -0.0359 -0.1372
 6495SOL    HW131210  10.859   8.526   4.878 -0.3441  0.7369 -0.1696
 6495SOL    HW231211  10.721   8.522   4.816 -0.2813 -1.1443 -0.2706
 6496SOL     OW31212   4.246   8.579  10.225 -0.5323 -0.2271  0.2649
 6496SOL    HW131213   4.223   8.534  10.144  0.7234 -0.8156  0.2270
 6496SOL    HW231214   4.176   8.555  10.286 -0.1390 -1.8563  0.1066
 6497SOL     OW31215   3.824   7.074   9.559  0.0383 -0.5243  0.7208
 6497SOL    HW131216   3.899   7.128   9.585  0.7605  0.8287 -3.3353
 6497SOL    HW231217   3.753   7.137   9.546  0.2907 -0.6979 -2.0638
 6498SOL     OW31218   4.565   3.353  12.019 -0.3882  0.3104 -0.3933
 6498SOL    HW131219   4.574   3.373  12.112  0.5232 -0.0201 -0.3928
 6498SOL    HW231220   4.650   3.379  11.981 -0.5880  0.0245 -1.0492
 6499SOL     OW31221   2.659   9.799   0.256  0.6605  0.5643 -0.0220
 6499SOL    HW131222   2.643   9.787   0.162 -3.0353  1.4679  0.3185
 6499SOL    HW231223   2.750   9.772   0.269  1.1149 -0.2121 -3.7214
 6500SOL     OW31224   7.741  12.048   8.136 -0.1714 -0.0700  0.2981
 6500SOL    HW131225   7.711  12.126   8.184 -0.2184 -0.0744  0.2759
 6500SOL    HW231226   7.691  12.050   8.054  0.4428  0.3431 -0.0735
 6501SOL     OW31227   7.349   3.815   5.543 -0.1347  0.1019  0.0527
 6501SOL    HW131228   7.278   3.829   5.606 -0.8744 -1.3285 -0.4284
 6501SOL    HW231229   7.307   3.773   5.468  1.5094 -2.5980  0.5223
 6502SOL     OW31230   4.756   1.267   4.223  0.1413 -0.4033  0.0854
 6502SOL    HW131231   4.695   1.194   4.213 -1.2161  0.6234  0.5456
 6502SOL    HW231232   4.763   1.305   4.136  1.4138 -1.4663 -0.3148
 6503SOL     OW31233  10.271   4.526   5.223 -0.0104 -0.3619  0.3336
 6503SOL    HW131234  10.338   4.460   5.204 -0.3659 -1.1622  1.7433
 6503SOL    HW231235  10.193   4.475   5.243 -0.4549  0.5078  0.8643
 6504SOL     OW31236   2.781  11.772  12.177 -0.0047  0.4481 -0.3283
 6504SOL    HW131237   2.750  11.797  12.264 -1.1088  2.7454 -1.2990
 6504SOL    HW231238   2.722  11.703  12.149 -1.0835  1.2644 -0.1242
 6505SOL     OW31239   0.984   5.680   2.066 -0.1237  0.2602 -0.2153
 6505SOL    HW131240   0.964   5.773   2.054  0.1354  0.1986 -1.1261
 6505SOL    HW231241   1.074   5.671   2.037  0.7655  0.2012  2.2703
 6506SOL     OW31242   3.409   6.362   2.698 -0.3487  0.3314 -0.3249
 6506SOL    HW131243   3.318   6.353   2.726 -0.0972  0.8995  0.7305
 6506SOL    HW231244   3.458   6.371   2.780  0.6581  0.0071 -0.8820
 6507SOL     OW31245   7.820   4.198   1.143 -0.1806  0.0519 -0.0977
 6507SOL    HW131246   7.789   4.285   1.117 -0.2115 -0.2778 -1.2554
 6507SOL    HW231247   7.830   4.151   1.060  0.6539 -0.7802  0.4536
 6508SOL     OW31248   6.663   8.087  13.463  0.4763 -0.2160  0.0496
 6508SOL    HW131249   6.627   8.002  13.492  0.2749 -0.1365  0.0353
 6508SOL    HW231250   6.723   8.112  13.533  0.4681 -0.3280  0.0980
 6509SOL     OW31251  12.965  12.003   6.225 -0.7231  0.2032  0.3123
 6509SOL    HW131252  12.946  12.084   6.272 -1.9283 -0.2410  0.6379
 6509SOL    HW231253  12.879  11.974   6.193 -0.2497 -0.7462 -0.1227
 6510SOL     OW31254   9.804   4.911  13.519 -0.3626  0.4235 -0.3768
 6510SOL    HW131255   9.762   4.929  13.435  2.4833 -0.0038 -2.0368
 6510SOL    HW231256   9.872   4.977  13.527 -1.0587  0.9654  2.0818
 6511SOL     OW31257   9.779  12.568   2.705 -0.2962  0.3788 -0.3661
 6511SOL    HW131258   9.847  12.502   2.693  0.7184  1.1412  0.8863
 6511SOL    HW231259   9.704  12.520   2.740  0.2981 -0.1706  0.1741
 6512SOL     OW31260  13.389   1.749   0.919  0.2934  0.6113  0.6129
 6512SOL    HW131261  13.421   1.799   0.844 -0.3742  3.7735  2.2675
 6512SOL    HW231262  13.295   1.738   0.902  0.6248 -1.3204 -0.3083
 6513SOL     OW31263  12.160   6.526   4.356  0.5651 -0.0653 -0.2713
 6513SOL    HW131264  12.144   6.590   4.425  1.5799 -0.0175 -0.0666
 6513SOL    HW231265  12.251   6.540   4.331  0.2503 -0.1676 -1.5379
 6514SOL     OW31266  11.695   5.761   0.857  0.1288  0.9403 -0.4337
 6514SOL    HW131267  11.693   5.681   0.806 -0.3410  0.4180  0.3727
 6514SOL    HW231268  11.732   5.827   0.798 -0.2511  0.3283 -1.3759
 6515SOL     OW31269  13.272   7.507   4.591 -0.3639  0.1664 -0.6951
 6515SOL    HW131270  13.289   7.572   4.523  0.0919 -1.1994 -1.9537
 6515SOL    HW231271  13.359   7.482   4.623 -0.4862 -0.2350 -0.6624
 6516SOL     OW31272  11.289  12.276   2.076 -0.1501  0.4282 -0.2574
 6516SOL    HW131273  11.365  12.302   2.128  0.3136 -1.4648  0.0624
 6516SOL    HW231274  11.236  12.224   2.135 -1.1682  0.8199 -0.8048
 6517SOL     OW31275   0.169  11.404  10.826 -0.2337 -0.5239 -0.6887
 6517SOL    HW131276   0.148  11.326  10.775 -1.1388 -1.1404  0.5713
 6517SOL    HW231277   0.188  11.371  10.914  2.5728  0.3595 -0.8527
 6518SOL     OW31278  13.705   8.630  12.841  0.1880  0.5785  0.1841
 6518SOL    HW131279  13.720   8.715  12.800  1.8537  0.1406 -0.1706
 6518SOL    HW231280  13.717   8.646  12.935  0.1630  0.8022  0.1488
 6519SOL     OW31281   8.114   2.528   1.513  0.1129  0.3694 -0.2238
 6519SOL    HW131282   8.145   2.566   1.594 -1.1356 -0.8721  0.9036
 6519SOL    HW231283   8.080   2.442   1.539  0.0170 -0.2072 -2.1206
 6520SOL     OW31284   4.064   2.393   7.460 -0.3782  0.8484 -0.0103
 6520SOL    HW131285   4.012   2.436   7.392 -1.4532  1.7818  1.3490
 6520SOL    HW231286   4.153   2.424   7.446 -0.8267  2.1108 -0.1741
 6521SOL     OW31287  11.411  13.495   5.566  0.0768 -0.2445 -0.2600
 6521SOL    HW131288  11.439  13.423   5.508 -0.4332 -0.5604 -0.1266
 6521SOL    HW231289  11.407  13.571   5.509  1.5847 -0.0944 -0.1950
 6522SOL     OW31290   9.854   6.639   6.724  0.2033  0.1429  0.1084
 6522SOL    HW131291   9.774   6.673   6.764 -1.0002  0.6459 -2.4931
 6522SOL    HW231292   9.904   6.717   6.701  1.6699 -0.1738  1.9780
 6523SOL     OW31293   8.719   8.770   2.691 -0.2504  0.0629 -0.3358
 6523SOL    HW131294   8.794   8.785   2.633 -0.0873  0.4015 -0.0470
 6523SOL    HW231295   8.752   8.793   2.778 -0.2737 -1.1291  0.0043
 6524SOL     OW31296  12.997   1.140   5.380  0.0392 -0.0413  0.7123
 6524SOL    HW131297  13.066   1.144   5.314 -0.9030  0.5835 -0.2694
 6524SOL    HW231298  12.997   1.228   5.419  0.1254 -0.1933  1.0574
 6525SOL     OW31299   2.354   9.472   6.596 -0.3161 -0.5380  0.8170
 6525SOL    HW131300   2.315   9.538   6.539 -0.4344 -1.9341 -0.8089
 6525SOL    HW231301   2.280   9.438   6.647 -0.8651 -1.5187 -0.5574
 6526SOL     OW31302  10.804  11.593   9.054 -0.0671  0.0965  0.0556
 6526SOL    HW131303  10.838  11.669   9.007  0.8466  0.6023  1.4439
 6526SOL    HW231304  10.719  11.621   9.087 -0.9550 -0.4436 -1.6691
 6527SOL     OW31305  12.781   2.973  11.168 -0.0731 -0.0529 -0.3815
 6527SOL    HW131306  12.793   3.022  11.086  1.8119 -1.1797 -0.8355
 6527SOL    HW231307  12.844   3.011  11.228  0.0413 -0.6282 -0.1317
 6528SOL     OW31308   0.125   1.645   9.950 -0.9228  0.0519 -0.1616
 6528SOL    HW131309   0.078   1.665  10.031 -1.0825  1.5392 -0.5790
 6528SOL    HW231310   0.128   1.729   9.904 -0.4117 -0.6665 -1.4756
 6529SOL     OW31311  12.782   1.192   3.777 -0.4104 -0.0258  0.0455
 6529SOL    HW131312  12.760   1.249   3.704 -0.7408  0.1804  0.3006
 6529SOL    HW231313  12.834   1.247   3.836  0.7335 -0.4791 -0.5038
 6530SOL     OW31314   1.864   3.870   6.022 -0.3251  0.0318  0.2338
 6530SOL    HW131315   1.944   3.900   5.978 -0.3244 -0.1666  0.0997
 6530SOL    HW231316   1.852   3.932   6.094  0.3418 -0.3587  0.6888
 6531SOL     OW31317   0.677  11.422  12.123  0.5799 -0.1294  0.1740
 6531SOL    HW131318   0.723  11.484  12.067  0.5339 -1.5854 -1.5711
 6531SOL    HW231319   0.594  11.465  12.144  0.9360  0.7650 -0.2167
 6532SOL     OW31320   3.905   0.226   5.358  0.0892 -0.1893  0.0457
 6532SOL    HW131321   3.832   0.198   5.413 -0.0287  0.4177  0.1962
 6532SOL    HW231322   3.976   0.165   5.380 -0.4192 -0.8990 -0.2368
 6533SOL     OW31323   6.075   1.700  10.753 -0.5394 -0.0408 -0.6097
 6533SOL    HW131324   6.099   1.790  10.732  1.6848 -0.7496 -1.3623
 6533SOL    HW231325   6.063   1.658  10.668  1.4670 -1.1675 -0.3950
 6534SOL     OW31326   7.913   0.499   8.715  0.3769 -0.2200 -0.7613
 6534SOL    HW131327   7.974   0.563   8.678 -0.7219  0.1372 -2.0450
 6534SOL    HW231328   7.935   0.417   8.669  1.9016 -0.8838  1.0055
 6535SOL     OW31329   4.798   1.962   2.221  0.0209  0.4140  0.0254
 6535SOL    HW131330   4.718   1.975   2.169  1.9061  0.1389 -3.1776
 6535SOL    HW231331   4.828   1.874   2.197  1.4526  0.6285  0.9179
 6536SOL     OW31332   4.624  12.436   6.505 -0.1325  0.1576 -0.4447
 6536SOL    HW131333   4.560  12.442   6.433 -0.1365  0.3590 -0.4258
 6536SOL    HW231334   4.692  12.499   6.481  0.1399 -0.1718 -0.5440
 6537SOL     OW31335   4.184   3.583   3.953  0.2256  0.1068  0.3126
 6537SOL    HW131336   4.191   3.541   3.867 -1.1951 -0.9606  0.6673
 6537SOL    HW231337   4.178   3.676   3.934  1.5662  0.0293 -0.6283
 6538SOL     OW31338   0.785   3.315   5.501  0.1741  0.0733 -0.3700
 6538SOL    HW131339   0.837   3.313   5.421  1.8965  1.4511  0.6511
 6538SOL    HW231340   0.849   3.319   5.572 -1.2948  1.3303  0.9809
 6539SOL     OW31341  12.141   8.117   4.193 -0.2667  0.6657  0.5504
 6539SOL    HW131342  12.113   8.065   4.268  0.7903  2.2793  2.1231
 6539SOL    HW231343  12.083   8.193   4.193 -1.2434 -0.0181 -1.2194
 6540SOL     OW31344  10.418   8.587  12.271  0.2195 -0.6396 -0.2331
 6540SOL    HW131345  10.487   8.539  12.225  1.2664 -0.3098  0.9142
 6540SOL    HW231346  10.458   8.672  12.292 -1.4388  0.6012 -1.8193
 6541SOL     OW31347   1.295   4.061   3.784  0.4728 -0.0291  0.1067
 6541SOL    HW131348   1.312   4.004   3.709  0.0902 -0.8239  0.6136
 6541SOL    HW231349   1.261   4.142   3.746  2.3240  0.4189 -0.7264
 6542SOL     OW31350  10.431  12.003   1.397 -0.2898  0.1315  0.0597
 6542SOL    HW131351  10.490  12.000   1.473  0.4074 -0.3890 -0.4860
 6542SOL    HW231352  10.466  12.073   1.343 -2.2737  2.2464  1.3710
 6543SOL     OW31353   9.360   6.065  12.363 -0.7289 -0.8617  0.6067
 6543SOL    HW131354   9.311   5.983  12.360 -1.6712 -0.4565  3.0390
 6543SOL    HW231355   9.305   6.125  12.413  1.1497  0.3862  1.2980
 6544SOL     OW31356   3.899   9.164   2.278  0.7867 -0.1746  0.5331
 6544SOL    HW131357   3.961   9.093   2.262  1.3773  0.5162 -0.3268
 6544SOL    HW231358   3.915   9.190   2.368  2.9324  1.0918 -0.1627
 6545SOL     OW31359  13.676   8.425  12.069 -0.2557  0.5205  0.1387
 6545SOL    HW131360  13.662   8.504  12.121  0.0738  0.8848 -0.3197
 6545SOL    HW231361  13.588   8.386  12.062 -0.1884  0.0381  1.6129
 6546SOL     OW31362  10.117   2.005   7.423 -0.0707 -0.2656 -0.3870
 6546SOL    HW131363  10.122   2.024   7.516  0.8964  0.3951 -0.5576
 6546SOL    HW231364  10.136   1.911   7.416 -0.0747 -0.2994  0.0703
 6547SOL     OW31365  12.924  10.322  12.630 -0.1168  0.3454  0.4209
 6547SOL    HW131366  12.994  10.256  12.627 -0.6803 -0.2172 -0.6140
 6547SOL    HW231367  12.969  10.406  12.620  0.4364 -0.0019 -0.0397
 6548SOL     OW31368   7.697   5.275   6.628 -0.1602 -0.0856  0.3805
 6548SOL    HW131369   7.681   5.358   6.673  0.3725 -0.3235  1.0320
 6548SOL    HW231370   7.722   5.215   6.698  0.4030 -0.5379 -0.2008
 6549SOL     OW31371   6.633  12.806  13.033  0.6017  0.4081  0.3375
 6549SOL    HW131372   6.671  12.792  13.120 -2.8480 -2.5180  1.6467
 6549SOL    HW231373   6.645  12.722  12.988 -0.6560  0.7277 -0.6598
 6550SOL     OW31374   7.980  13.164  13.427  0.0658 -0.0247 -0.1674
 6550SOL    HW131375   8.007  13.150  13.336  0.4357  1.0679 -0.2336
 6550SOL    HW231376   7.985  13.077  13.466  0.4259 -0.4191 -1.0476
 6551SOL     OW31377   9.464  11.848   6.986  0.6819 -0.1098 -0.0627
 6551SOL    HW131378   9.445  11.809   7.071  2.4535 -1.3435 -0.1631
 6551SOL    HW231379   9.424  11.935   6.989 -2.6554 -1.5145  0.5347
 6552SOL     OW31380   6.078   3.181   1.376  0.4623 -0.1416  0.1001
 6552SOL    HW131381   6.023   3.104   1.368  0.5495 -0.1625 -0.3446
 6552SOL    HW231382   6.069   3.226   1.292  0.0259  0.5932  0.5234
 6553SOL     OW31383   3.469   3.082  12.575  0.0493 -0.2998  0.1482
 6553SOL    HW131384   3.440   3.032  12.498 -1.0993  0.6957 -0.0947
 6553SOL    HW231385   3.529   3.147  12.539 -1.1577  0.7369 -0.0825
 6554SOL     OW31386   9.780   0.789   5.411 -0.3007 -0.7240 -0.1424
 6554SOL    HW131387   9.802   0.698   5.394  1.8372 -0.3193  0.1498
 6554SOL    HW231388   9.849   0.839   5.366 -1.3329  0.7447 -0.1650
 6555SOL     OW31389   4.304   0.553  11.346 -0.4194 -0.1859 -0.4458
 6555SOL    HW131390   4.353   0.621  11.393  0.3361 -0.7847 -0.3388
 6555SOL    HW231391   4.223   0.596  11.319 -0.4834  0.4199  0.6445
 6556SOL     OW31392   3.484   5.588   0.556  0.5192  0.3645 -0.3122
 6556SOL    HW131393   3.483   5.659   0.491  1.9656  0.0274 -0.7322
 6556SOL    HW231394   3.428   5.620   0.627  0.5040  1.5888 -0.8526
 6557SOL     OW31395   1.094   3.914   4.375  0.2719 -0.0594  0.3447
 6557SOL    HW131396   1.001   3.931   4.386  0.3381 -0.0059  0.8804
 6557SOL    HW231397   1.098   3.826   4.337 -0.0637  1.0493 -2.4330
 6558SOL     OW31398   6.777  12.328  10.134 -0.7850 -0.1104 -0.3257
 6558SOL    HW131399   6.742  12.408  10.173 -0.6100 -0.7412  1.1807
 6558SOL    HW231400   6.733  12.322  10.049 -1.0142  1.4172 -0.3447
 6559SOL     OW31401   3.870   0.792   3.975 -0.0314 -0.3649  0.4663
 6559SOL    HW131402   3.786   0.808   3.931  1.5870  0.4018 -2.5982
 6559SOL    HW231403   3.905   0.879   3.991 -0.0566 -0.6639  2.4075
 6560SOL     OW31404  12.852   1.479   4.650  0.4626  0.3345 -0.5239
 6560SOL    HW131405  12.852   1.569   4.682 -1.1131  0.3152 -0.3734
 6560SOL    HW231406  12.906   1.482   4.571  1.6630  1.0734  0.2892
 6561SOL     OW31407   4.400   5.428   0.217 -0.4936 -0.1304  0.0939
 6561SOL    HW131408   4.458   5.404   0.145 -1.5863 -1.6568 -0.3280
 6561SOL    HW231409   4.324   5.371   0.206 -1.3976  0.7467  1.5207
 6562SOL     OW31410   6.621   7.149  10.934 -0.4669 -0.3160 -0.2233
 6562SOL    HW131411   6.606   7.072  10.987  1.1426 -1.4602 -1.3315
 6562SOL    HW231412   6.664   7.211  10.993 -0.7353 -0.6943  0.3751
 6563SOL     OW31413  12.043   5.496   1.873  0.3315  0.3018 -0.4364
 6563SOL    HW131414  12.074   5.408   1.853  0.0800 -0.0422  0.6113
 6563SOL    HW231415  12.035   5.497   1.968 -1.3377  0.8835 -0.5442
 6564SOL     OW31416   2.219  10.359   1.145 -0.1444  0.3470  0.0897
 6564SOL    HW131417   2.202  10.311   1.065 -1.1823  0.1931  0.3981
 6564SOL    HW231418   2.310  10.389   1.136 -0.4224  0.8110 -1.3847
 6565SOL     OW31419  13.485   3.329   7.937  0.3060 -0.5325  0.2156
 6565SOL    HW131420  13.397   3.359   7.916  0.4422 -0.9481 -1.0366
 6565SOL    HW231421  13.475   3.277   8.017 -1.4835 -4.8320 -2.4780
 6566SOL     OW31422   0.261   8.337   8.324  0.6537  0.3897 -0.2552
 6566SOL    HW131423   0.179   8.333   8.276  0.3216  2.1482  0.1002
 6566SOL    HW231424   0.326   8.363   8.259  0.9518 -0.9431 -0.5238
 6567SOL     OW31425   2.253   3.348   4.349  0.1947 -0.5962 -0.2489
 6567SOL    HW131426   2.256   3.388   4.436 -0.8599  0.5706 -0.7118
 6567SOL    HW231427   2.297   3.411   4.292 -0.4716 -0.6176 -0.8032
 6568SOL     OW31428   5.342  10.169   1.495 -0.7198  1.1171  0.4747
 6568SOL    HW131429   5.360  10.233   1.426  0.3751  1.3355  0.9367
 6568SOL    HW231430   5.273  10.113   1.459 -0.1958  1.2505 -0.7886
 6569SOL     OW31431   5.865   4.794   6.660  0.0597  0.0929 -0.5650
 6569SOL    HW131432   5.856   4.852   6.735  1.8341  0.1460 -0.3544
 6569SOL    HW231433   5.895   4.711   6.697  0.0197 -0.1678 -1.1101
 6570SOL     OW31434   7.597   3.461   5.943 -0.2797 -0.4564  0.4024
 6570SOL    HW131435   7.529   3.442   6.008 -2.3794 -0.8749 -1.7745
 6570SOL    HW231436   7.569   3.542   5.901  0.7657 -0.4376 -0.3057
 6571SOL     OW31437   5.974  11.894   0.161  0.2638  0.3606  0.0889
 6571SOL    HW131438   5.952  11.970   0.107  2.1892  0.8989  0.0184
 6571SOL    HW231439   5.957  11.923   0.250  3.6402  2.0028  0.3647
 6572SOL     OW31440   4.470   6.359   7.427  0.0637 -0.5565  0.3770
 6572SOL    HW131441   4.510   6.400   7.350  0.5277  1.6859  1.7146
 6572SOL    HW231442   4.532   6.291   7.454  0.1615 -0.9856 -0.8721
 6573SOL     OW31443   7.294   9.412   0.362 -0.0067 -0.2823  0.0629
 6573SOL    HW131444   7.311   9.321   0.387 -2.3037 -0.9369 -0.4602
 6573SOL    HW231445   7.301   9.462   0.443  3.0643 -0.5587  0.0675
 6574SOL     OW31446  10.971  13.386   2.480  0.3488  0.7288  0.2794
 6574SOL    HW131447  10.947  13.462   2.532 -2.5625  0.2314 -0.1390
 6574SOL    HW231448  10.940  13.311   2.532 -0.5473  0.1152 -1.0719
 6575SOL     OW31449  12.942   5.298   8.755  0.2609 -0.2288 -0.2839
 6575SOL    HW131450  12.899   5.213   8.760 -0.8109  0.3258  0.5079
 6575SOL    HW231451  12.988   5.297   8.671 -0.3362 -1.3066 -0.6162
 6576SOL     OW31452   8.544   5.423   7.467  0.4545  0.2685  0.4029
 6576SOL    HW131453   8.478   5.354   7.471  1.5628 -0.8000  0.7689
 6576SOL    HW231454   8.540   5.465   7.553 -0.8687  1.3152 -0.1351
 6577SOL     OW31455  10.806   5.683  10.490  0.3785 -0.0481  0.3210
 6577SOL    HW131456  10.807   5.702  10.584 -2.2684  1.7000  0.1063
 6577SOL    HW231457  10.742   5.744  10.454 -0.0159 -1.8844 -2.3764
 6578SOL     OW31458   3.840   8.876   6.242 -0.0301  0.4374  0.3129
 6578SOL    HW131459   3.782   8.800   6.243 -0.3047  0.5840 -1.2473
 6578SOL    HW231460   3.858   8.894   6.334 -1.5907 -0.2690  0.7902
 6579SOL     OW31461   8.159   2.928   8.859  0.3913  0.3922 -0.5570
 6579SOL    HW131462   8.215   2.864   8.815 -0.3800  0.2900 -1.4249
 6579SOL    HW231463   8.218   3.000   8.883  0.8877  0.3165 -1.5178
 6580SOL     OW31464   1.756   6.356   6.016 -0.0199  0.1193 -0.3680
 6580SOL    HW131465   1.824   6.332   5.953  0.5496  1.2711 -0.2153
 6580SOL    HW231466   1.674   6.337   5.971  0.3927 -0.4396 -0.8992
 6581SOL     OW31467  11.766   5.850   2.040  0.3644 -0.0276  0.0774
 6581SOL    HW131468  11.839   5.884   1.988 -0.6311 -0.0479 -1.3862
 6581SOL    HW231469  11.704   5.923   2.046 -0.5544 -0.6997 -0.7616
 6582SOL     OW31470  13.135   5.708   9.588 -0.3369  0.7474 -0.2616
 6582SOL    HW131471  13.213   5.672   9.632 -1.4270 -2.6058 -0.7395
 6582SOL    HW231472  13.090   5.758   9.655 -0.6307 -2.0865  1.8108
 6583SOL     OW31473   3.331   1.823   8.852 -0.1236 -0.2323  0.3083
 6583SOL    HW131474   3.336   1.756   8.785  2.0073  0.8051 -0.6370
 6583SOL    HW231475   3.324   1.774   8.934  0.4979 -1.5800 -0.4186
 6584SOL     OW31476   6.229  10.042   8.837  0.0130 -0.3309 -0.3092
 6584SOL    HW131477   6.199   9.974   8.776 -0.5023  0.0421 -0.4744
 6584SOL    HW231478   6.178  10.119   8.813  1.7507  0.6013 -1.2166
 6585SOL     OW31479  13.544   1.536   4.733 -0.4428  0.3542  0.1408
 6585SOL    HW131480  13.451   1.522   4.752 -0.7890  0.1549 -1.5200
 6585SOL    HW231481  13.578   1.448   4.714  0.3644  0.2821  1.7674
 6586SOL     OW31482   1.857   4.105   6.193  0.1631  0.4276 -0.3851
 6586SOL    HW131483   1.910   4.101   6.273 -1.1364 -0.3032  0.4559
 6586SOL    HW231484   1.872   4.193   6.159  1.8420  0.2734 -0.1304
 6587SOL     OW31485   1.601  10.631  10.451 -0.3962  0.0825  0.3416
 6587SOL    HW131486   1.532  10.692  10.425  1.2106  2.0439  0.4587
 6587SOL    HW231487   1.634  10.666  10.534 -0.2965 -1.7189  1.1001
 6588SOL     OW31488   2.673   8.707   5.944  0.2887  0.4836 -0.2280
 6588SOL    HW131489   2.583   8.738   5.952 -0.3439 -1.1791 -0.4568
 6588SOL    HW231490   2.726   8.776   5.984 -1.1982  0.9027  1.1385
 6589SOL     OW31491   1.905   1.856   8.481  0.8950 -0.1635 -0.2998
 6589SOL    HW131492   1.969   1.841   8.551  0.4638 -0.8881 -0.0440
 6589SOL    HW231493   1.826   1.811   8.511 -0.3651  2.2310  0.2636
 6590SOL     OW31494   0.262   2.908   2.194 -0.1377 -0.5298 -0.0926
 6590SOL    HW131495   0.256   2.971   2.121 -1.4075 -0.0107  0.4406
 6590SOL    HW231496   0.356   2.904   2.214  0.2392 -0.6703 -1.7326
 6591SOL     OW31497  10.742  11.238   4.781  0.3425 -0.0521 -0.2572
 6591SOL    HW131498  10.738  11.308   4.717  0.4256 -0.3602 -0.6003
 6591SOL    HW231499  10.742  11.283   4.866 -0.2488  0.3398 -0.4572
 6592SOL     OW31500   8.039   3.372  13.125  0.3542  0.6168  0.4961
 6592SOL    HW131501   8.126   3.395  13.157  0.3201 -0.2681  1.2554
 6592SOL    HW231502   8.052   3.357  13.031  0.5721  2.6160  0.1693
 6593SOL     OW31503   7.736   9.559   2.274 -0.2712  0.0817  0.6028
 6593SOL    HW131504   7.795   9.566   2.349  0.1092  1.1505  0.2106
 6593SOL    HW231505   7.778   9.495   2.217 -0.3390 -0.4042  1.0819
 6594SOL     OW31506   1.304   1.962   6.743  0.4422 -0.1058 -0.1429
 6594SOL    HW131507   1.349   1.977   6.826  0.0668  1.1773 -0.1426
 6594SOL    HW231508   1.227   1.911   6.766  0.9850 -0.8424  0.0968
 6595SOL     OW31509  11.349  10.032   0.710  0.0844  0.1662 -0.7397
 6595SOL    HW131510  11.384  10.119   0.693 -1.8058  0.8766 -1.2627
 6595SOL    HW231511  11.305  10.040   0.795 -0.8271 -0.0155 -1.1802
 6596SOL     OW31512   4.865   9.232   3.789  0.3025  0.0354 -0.2704
 6596SOL    HW131513   4.918   9.218   3.868 -0.3714  1.0006  0.3822
 6596SOL    HW231514   4.775   9.233   3.821 -0.0649 -0.6384 -1.2281
 6597SOL     OW31515   6.234  13.707   0.391  0.4727  0.4007 -0.4614
 6597SOL    HW131516   6.257  13.616   0.370  1.0799 -0.0722  1.9593
 6597SOL    HW231517   6.307  13.759   0.357  0.3260 -0.0347 -1.4826
 6598SOL     OW31518   9.067  12.831   3.818 -0.9028  0.3866  0.0979
 6598SOL    HW131519   9.133  12.900   3.828 -2.1424  1.7178 -0.5448
 6598SOL    HW231520   9.104  12.772   3.752 -0.6329  1.4770 -0.7479
 6599SOL     OW31521   7.544   1.119   1.071 -0.0619 -0.1938 -0.4072
 6599SOL    HW131522   7.485   1.144   1.142 -2.0910 -1.9230 -1.3530
 6599SOL    HW231523   7.552   1.197   1.017 -1.4738  0.0977 -0.2231
 6600SOL     OW31524   8.156  10.608   8.572 -0.6566  1.2743  0.1952
 6600SOL    HW131525   8.121  10.656   8.647 -0.1670  2.5402 -0.3712
 6600SOL    HW231526   8.250  10.620   8.577 -0.2906 -1.2710  1.1254
 6601SOL     OW31527  12.975   4.528   9.067 -0.0241 -0.1689  0.2962
 6601SOL    HW131528  13.018   4.604   9.026 -0.8320  0.6127  0.8604
 6601SOL    HW231529  12.955   4.557   9.156 -2.5712 -0.1404 -0.2180
 6602SOL     OW31530  12.039   8.952   7.646 -0.3514  0.2406 -0.5363
 6602SOL    HW131531  11.961   9.000   7.674 -0.0238  1.5140 -1.6688
 6602SOL    HW231532  12.109   9.016   7.649  0.8302 -1.0430  1.0443
 6603SOL     OW31533   7.525   0.666   3.475 -0.3253 -0.5073 -0.2509
 6603SOL    HW131534   7.572   0.647   3.556  0.2024 -0.3659 -0.5188
 6603SOL    HW231535   7.549   0.595   3.415 -0.3349 -0.3527 -0.4402
 6604SOL     OW31536   2.908  13.244   3.675  0.6713  0.2261 -0.0152
 6604SOL    HW131537   2.930  13.295   3.597  0.6666  0.0190 -0.1535
 6604SOL    HW231538   2.967  13.277   3.743  0.7256  0.3577 -0.1256
 6605SOL     OW31539   1.875   5.893  12.798  0.2925 -0.7887 -0.2862
 6605SOL    HW131540   1.927   5.973  12.791  1.2689 -1.4508 -0.8924
 6605SOL    HW231541   1.921   5.830  12.742 -1.1664 -1.4084 -0.8429
 6606SOL     OW31542   3.393   5.052  11.362 -0.1193 -0.1319 -0.5852
 6606SOL    HW131543   3.401   5.089  11.450  0.6302  0.0270 -0.7127
 6606SOL    HW231544   3.451   4.977  11.361  0.6156  0.4199 -1.2213
 6607SOL     OW31545   5.579   1.361   1.427  0.3996 -0.0185  0.0070
 6607SOL    HW131546   5.553   1.307   1.501  0.5294  0.4505  0.4051
 6607SOL    HW231547   5.563   1.307   1.350 -2.4042  0.4695  0.1514
 6608SOL     OW31548   5.728   4.562   6.990 -0.6375 -0.3326  0.0681
 6608SOL    HW131549   5.699   4.586   6.902  1.0171  0.5980 -0.2530
 6608SOL    HW231550   5.736   4.645   7.036 -0.9424 -0.7728  0.9352
 6609SOL     OW31551  12.268  13.184   1.907 -0.5794  0.1457  0.2126
 6609SOL    HW131552  12.174  13.167   1.897 -0.3415 -0.8346 -0.5319
 6609SOL    HW231553  12.287  13.251   1.842 -0.5987 -0.3397 -0.3061
 6610SOL     OW31554  10.626  12.228   8.293  0.2867  0.2373  0.4481
 6610SOL    HW131555  10.565  12.282   8.241 -1.3559 -2.9377 -1.2184
 6610SOL    HW231556  10.672  12.291   8.348 -0.8097  3.4174 -1.9322
 6611SOL     OW31557  12.403   3.659  10.402 -0.0309 -0.4601  0.3511
 6611SOL    HW131558  12.426   3.575  10.443  0.0042 -0.6900 -0.1254
 6611SOL    HW231559  12.403   3.722  10.474 -0.0186 -0.8635  0.7095
 6612SOL     OW31560  10.613   2.528   0.963  0.3696 -0.2587  0.3740
 6612SOL    HW131561  10.667   2.603   0.988 -0.6558  0.7105 -0.2290
 6612SOL    HW231562  10.642   2.506   0.874  0.5295 -0.4500  0.4728
 6613SOL     OW31563   8.348   5.228   6.308  0.1909  0.2922  0.4027
 6613SOL    HW131564   8.324   5.144   6.347 -1.7577  1.7982  2.8241
 6613SOL    HW231565   8.271   5.253   6.256  0.3550  0.9428  0.4591
 6614SOL     OW31566  10.772   5.672   0.098 -0.3754 -0.5936  0.3174
 6614SOL    HW131567  10.761   5.606   0.030  0.9974  0.8816 -1.4449
 6614SOL    HW231568  10.686   5.713   0.107 -0.1740  0.5374 -2.0762
 6615SOL     OW31569  11.159   6.487   4.973 -0.0172 -0.2802  0.1647
 6615SOL    HW131570  11.223   6.447   4.913  0.1972 -1.0713  0.8971
 6615SOL    HW231571  11.074   6.459   4.939 -0.0192  0.9799 -0.9608
 6616SOL     OW31572   2.129   7.843   7.117 -0.1884  0.2409 -0.0197
 6616SOL    HW131573   2.211   7.805   7.084 -0.4500  0.9609 -1.5986
 6616SOL    HW231574   2.063   7.817   7.053 -1.3596 -0.8880  1.5789
 6617SOL     OW31575  10.922  13.640  12.925  0.2093 -0.2877 -0.6308
 6617SOL    HW131576  10.918  13.613  12.833 -0.7241 -0.9854 -0.4036
 6617SOL    HW231577  10.870  13.720  12.929 -0.1410 -0.5091 -0.6398
 6618SOL     OW31578   6.735   5.583   4.016  0.2638 -0.3392  0.4609
 6618SOL    HW131579   6.689   5.503   3.991  0.3090 -0.5758  1.1189
 6618SOL    HW231580   6.710   5.647   3.949 -0.0135 -0.8154  0.1032
 6619SOL     OW31581   6.470   7.197   1.022  0.0080  0.3661  0.3679
 6619SOL    HW131582   6.487   7.267   0.958 -0.4052 -0.5134 -0.7513
 6619SOL    HW231583   6.416   7.133   0.974 -2.1119  0.6312  2.2388
 6620SOL     OW31584   4.270  10.746   1.180 -0.2890  0.2569  0.3027
 6620SOL    HW131585   4.331  10.674   1.161  0.2647  0.9156 -0.5110
 6620SOL    HW231586   4.307  10.789   1.257 -0.6120 -0.3129  0.7811
 6621SOL     OW31587   2.571   7.783   6.066  0.0423  0.4096 -0.1632
 6621SOL    HW131588   2.632   7.747   6.002 -0.9183 -1.2891 -0.1761
 6621SOL    HW231589   2.624   7.845   6.117  2.1379 -1.8943  0.6632
 6622SOL     OW31590  11.870   1.803  11.282  0.6949 -0.6318 -0.0654
 6622SOL    HW131591  11.874   1.723  11.336  1.2445 -0.9322 -0.5410
 6622SOL    HW231592  11.783   1.801  11.243  0.3602 -0.5119  0.6557
 6623SOL     OW31593  12.457   8.171   9.206 -0.0789 -0.1810  0.8921
 6623SOL    HW131594  12.494   8.256   9.183 -1.9233  0.4970  0.2727
 6623SOL    HW231595  12.438   8.130   9.122 -0.3332 -0.6855  1.1930
 6624SOL     OW31596   2.803   2.634   6.153  0.4651  0.3998  0.5279
 6624SOL    HW131597   2.868   2.583   6.202  0.1933  0.5789  1.0816
 6624SOL    HW231598   2.852   2.709   6.119  0.3205  1.1688  1.9310
 6625SOL     OW31599  12.139  13.452   6.427 -0.5973 -0.2333 -0.5257
 6625SOL    HW131600  12.163  13.366   6.463  1.0888  0.7223  0.7932
 6625SOL    HW231601  12.089  13.494   6.498 -0.2105  0.3908 -0.6213
 6626SOL     OW31602   8.849   6.348  10.289  0.3965  0.6375  0.8542
 6626SOL    HW131603   8.942   6.366  10.276  0.2290 -0.2637 -2.3772
 6626SOL    HW231604   8.844   6.253  10.298 -0.0928  0.8256  3.0674
 6627SOL     OW31605  11.177  10.436   2.408  0.3545  0.4165 -0.4807
 6627SOL    HW131606  11.219  10.496   2.346 -1.0633  1.6562 -0.2988
 6627SOL    HW231607  11.249  10.404   2.463  1.3984  0.5325 -1.7364
 6628SOL     OW31608   4.458  10.851   2.319  0.0915 -0.1524 -0.3871
 6628SOL    HW131609   4.474  10.886   2.231  2.4920  0.2049  0.1306
 6628SOL    HW231610   4.483  10.759   2.314  1.6762  0.2032  0.2168
 6629SOL     OW31611   2.296   4.308   3.341  0.3547 -0.0098 -0.0171
 6629SOL    HW131612   2.235   4.344   3.276  0.4978  1.0250  0.3930
 6629SOL    HW231613   2.344   4.240   3.294  0.6428  0.9032 -1.0955
 6630SOL     OW31614   0.125   4.405   6.239 -0.1427  0.2498  0.2466
 6630SOL    HW131615   0.039   4.446   6.252 -0.6986 -0.7718 -0.1053
 6630SOL    HW231616   0.187   4.476   6.253 -1.0324  0.9708  0.7052
 6631SOL     OW31617   6.831  12.629   9.593  0.3060 -0.1521  0.8249
 6631SOL    HW131618   6.860  12.695   9.655 -0.6666  0.2220  0.8996
 6631SOL    HW231619   6.749  12.663   9.558 -0.3103 -1.3870  1.0021
 6632SOL     OW31620   1.674   6.540  12.574 -0.4183  0.2697  0.4798
 6632SOL    HW131621   1.641   6.594  12.646 -0.5340  2.8210 -1.3719
 6632SOL    HW231622   1.750   6.588  12.541  0.9778 -1.9660  0.2340
 6633SOL     OW31623   7.831   9.658  13.580  0.3514  0.1223  0.5100
 6633SOL    HW131624   7.816   9.641  13.487 -0.5684  1.8925  0.2892
 6633SOL    HW231625   7.744   9.658  13.619  0.7793 -1.4586  1.5892
 6634SOL     OW31626   8.916   0.653   1.113 -0.4162 -0.4001 -0.1731
 6634SOL    HW131627   8.857   0.703   1.058  0.7242  0.4467 -0.6773
 6634SOL    HW231628   8.878   0.658   1.201 -0.8154  0.5507 -0.3977
 6635SOL     OW31629   4.736  11.042   3.500  0.1667 -0.9907  0.7616
 6635SOL    HW131630   4.647  11.020   3.473  0.5406 -0.9612 -0.6130
 6635SOL    HW231631   4.740  11.021   3.593 -1.2011 -1.2131  0.7835
 6636SOL     OW31632   5.889   5.428  11.922  0.5655 -0.3168  0.1075
 6636SOL    HW131633   5.942   5.383  11.856 -0.3243 -1.5814  0.2196
 6636SOL    HW231634   5.799   5.419  11.892  0.3122  0.9583  0.4203
 6637SOL     OW31635  13.290   4.925  10.133  0.3251  0.6121  0.2234
 6637SOL    HW131636  13.274   5.011  10.094 -0.9965  0.0455 -0.5202
 6637SOL    HW231637  13.298   4.942  10.227  0.3636  1.5688  0.0532
 6638SOL     OW31638   0.925   8.149   6.785  0.1158  0.4897 -0.1871
 6638SOL    HW131639   1.004   8.201   6.772  0.0697  0.7080  0.3503
 6638SOL    HW231640   0.860   8.212   6.815 -0.0665  0.1988  0.0364
 6639SOL     OW31641   6.571   5.362   6.959  0.2925  0.2884  0.0016
 6639SOL    HW131642   6.554   5.430   6.894 -0.0006  1.1073  0.8963
 6639SOL    HW231643   6.509   5.382   7.030  0.1438 -0.9701  0.2478
 6640SOL     OW31644   8.387  11.189   0.262  0.5825  1.0429  0.0409
 6640SOL    HW131645   8.365  11.272   0.304 -0.6642  0.5087  0.5179
 6640SOL    HW231646   8.331  11.186   0.184  0.2553  0.4373  0.2943
 6641SOL     OW31647   1.669   8.367   4.373 -0.0995 -0.0927  0.3128
 6641SOL    HW131648   1.733   8.430   4.341  0.5030 -1.0047 -0.3275
 6641SOL    HW231649   1.584   8.410   4.362  0.2167  0.2036 -1.0852
 6642SOL     OW31650   0.733   5.823   6.078 -0.0889 -0.4388 -0.4650
 6642SOL    HW131651   0.745   5.740   6.032 -3.1832 -2.0645  1.3330
 6642SOL    HW231652   0.650   5.857   6.045 -1.2142 -0.4969  2.0941
 6643SOL     OW31653  12.661   5.390   0.409 -0.1559  0.2044 -0.1298
 6643SOL    HW131654  12.646   5.483   0.393  1.6813  0.5064 -0.2994
 6643SOL    HW231655  12.662   5.351   0.321 -0.2826  0.1291 -0.0984
 6644SOL     OW31656   5.322  12.629  10.243 -0.2596  0.0459 -0.1402
 6644SOL    HW131657   5.261  12.556  10.246  0.0370 -0.1936  0.0519
 6644SOL    HW231658   5.325  12.653  10.150 -1.7547  1.0033  0.0143
 6645SOL     OW31659  13.618   9.920   0.300 -0.1245 -0.2229  0.2281
 6645SOL    HW131660  13.683   9.977   0.342 -0.7479  0.2264  0.6027
 6645SOL    HW231661  13.666   9.878   0.229  0.2682  1.0477 -0.2938
 6646SOL     OW31662   0.266  12.973   0.049 -0.4907 -0.1283  0.0586
 6646SOL    HW131663   0.288  12.890   0.007 -0.4622 -0.1881  0.1918
 6646SOL    HW231664   0.327  12.979   0.122  1.6301  1.4219 -1.6876
 6647SOL     OW31665  11.685   8.430   1.667 -0.3807 -0.0369  0.0842
 6647SOL    HW131666  11.710   8.458   1.755 -1.9956  0.1550  0.5104
 6647SOL    HW231667  11.681   8.335   1.672  0.5931 -0.0987 -0.1002
 6648SOL     OW31668   5.380   0.662   2.083  0.5122  0.0243 -0.6814
 6648SOL    HW131669   5.303   0.632   2.130  0.3474  0.9918 -0.2971
 6648SOL    HW231670   5.369   0.630   1.994  0.3365 -0.9857 -0.2993
 6649SOL     OW31671   0.419   4.582   3.525 -0.2525 -0.0265 -0.0594
 6649SOL    HW131672   0.328   4.602   3.505  0.1282 -0.0088 -1.9509
 6649SOL    HW231673   0.457   4.666   3.551 -1.2280 -0.3927  3.0320
 6650SOL     OW31674  10.218  10.616   1.991  0.0269  0.5379  0.3303
 6650SOL    HW131675  10.176  10.664   2.062 -0.9739  0.1740 -0.0012
 6650SOL    HW231676  10.237  10.530   2.028  1.0907  0.9043  0.6763
 6651SOL     OW31677  12.712  12.271  12.265 -0.5550  0.2029  0.1260
 6651SOL    HW131678  12.729  12.361  12.290  0.5498  0.1641 -0.4335
 6651SOL    HW231679  12.705  12.223  12.348  2.0975  0.2308  0.4323
 6652SOL     OW31680   6.803   3.381   6.332 -0.6530  0.7054 -0.1510
 6652SOL    HW131681   6.855   3.348   6.405 -1.4992  0.9733  0.5891
 6652SOL    HW231682   6.713   3.378   6.364 -0.9747  1.4194 -0.9600
 6653SOL     OW31683   8.073   7.145   1.964  0.2892 -0.0250 -0.0737
 6653SOL    HW131684   8.114   7.115   2.045 -1.2765 -0.9437  0.4006
 6653SOL    HW231685   8.072   7.241   1.972  2.3220  0.0639 -0.1301
 6654SOL     OW31686   3.603  13.633   8.460  0.0740 -0.3031 -0.1238
 6654SOL    HW131687   3.620  13.606   8.370 -1.5875 -2.5226  0.1397
 6654SOL    HW231688   3.531  13.696   8.454  0.6988  0.4012 -0.3952
 6655SOL     OW31689   7.259  11.335  10.872 -0.0362  0.2891  0.3754
 6655SOL    HW131690   7.249  11.245  10.904 -0.9508  0.4317  0.5039
 6655SOL    HW231691   7.190  11.385  10.916 -1.1218  0.5595 -1.5209
 6656SOL     OW31692   3.910   5.407   9.062  0.2180 -0.3155 -0.7513
 6656SOL    HW131693   3.995   5.402   9.018  1.4303  1.5576  1.1804
 6656SOL    HW231694   3.902   5.325   9.110  1.7813  0.1388  0.3621
 6657SOL     OW31695  12.100   5.619   7.111  0.6915 -0.2623  0.2255
 6657SOL    HW131696  12.148   5.696   7.139  0.3826  1.2371 -2.9273
 6657SOL    HW231697  12.168   5.553   7.095  0.9940 -0.5659  2.4381
 6658SOL     OW31698   1.723   9.289   8.225  0.0117  0.0755 -0.3199
 6658SOL    HW131699   1.718   9.383   8.238 -0.3228 -0.0745  0.7066
 6658SOL    HW231700   1.634   9.264   8.197  0.0158  0.0168 -0.2801
 6659SOL     OW31701  10.143   8.359   4.968 -0.0760  0.2359  0.5697
 6659SOL    HW131702  10.083   8.307   5.023  0.0389  1.1183  1.5661
 6659SOL    HW231703  10.228   8.350   5.011  0.0151  0.9446  0.5456
 6660SOL     OW31704   1.440   4.515   1.038 -0.4642 -0.0732 -0.0477
 6660SOL    HW131705   1.520   4.552   1.001 -1.3592  1.9936 -0.0850
 6660SOL    HW231706   1.383   4.498   0.963 -0.5416 -0.3176  0.0638
 6661SOL     OW31707   0.383   8.825   3.878  0.5498 -0.0623 -0.5430
 6661SOL    HW131708   0.292   8.833   3.851  1.3415  1.6417 -2.9758
 6661SOL    HW231709   0.415   8.747   3.832  0.1116 -1.3115  1.1652
 6662SOL     OW31710  13.119   6.126   6.878  0.7331  0.4707  0.4673
 6662SOL    HW131711  13.178   6.174   6.820 -0.1616 -1.2756 -2.0804
 6662SOL    HW231712  13.036   6.124   6.831  0.0542 -1.3523  1.6248
 6663SOL     OW31713   1.258   4.020   7.856 -0.5238 -0.2439  0.4649
 6663SOL    HW131714   1.194   4.084   7.825  1.3388  1.5341  0.0943
 6663SOL    HW231715   1.266   3.957   7.784 -2.6075 -1.1603  0.9593
 6664SOL     OW31716   3.669   6.261   9.218 -0.0393 -0.2051  0.2418
 6664SOL    HW131717   3.712   6.345   9.201 -0.6715 -0.1299 -1.1004
 6664SOL    HW231718   3.714   6.226   9.295  2.1554  0.0537 -0.8596
 6665SOL     OW31719   0.438  11.031   6.578 -0.5772  0.1855 -0.0469
 6665SOL    HW131720   0.345  11.009   6.565 -0.6606  0.7393 -0.4294
 6665SOL    HW231721   0.472  11.044   6.490 -0.1103 -0.1045  0.0900
 6666SOL     OW31722  13.303   9.932   0.583  0.3674  0.2671 -1.1187
 6666SOL    HW131723  13.267   9.910   0.497  0.4479  1.2736 -1.4238
 6666SOL    HW231724  13.322   9.848   0.624 -0.7881 -0.2421 -1.6082
 6667SOL     OW31725   6.008   0.074   8.380 -0.4183  0.4454  0.3828
 6667SOL    HW131726   6.038   0.127   8.306 -2.4112  0.2815 -0.6154
 6667SOL    HW231727   5.944   0.013   8.341 -0.9493 -0.1491  2.1146
 6668SOL     OW31728   8.192   9.528   6.303  0.3495 -0.3008 -0.2018
 6668SOL    HW131729   8.260   9.477   6.348 -1.6919 -1.8764  1.3107
 6668SOL    HW231730   8.157   9.586   6.370  0.2804  0.5788 -0.9895
 6669SOL     OW31731   7.404   0.432   8.932  0.3350  0.3235  0.4881
 6669SOL    HW131732   7.429   0.435   8.839 -0.6763  0.1599  0.1988
 6669SOL    HW231733   7.401   0.524   8.959  1.6888  0.3325  0.6660
 6670SOL     OW31734   9.532  10.114   6.751  0.2990  0.7928 -0.5771
 6670SOL    HW131735   9.553  10.175   6.681 -1.7134  0.6122 -1.4276
 6670SOL    HW231736   9.472  10.163   6.808  0.5925  0.3948  0.0898
 6671SOL     OW31737   4.753   0.143   5.803 -0.0449 -0.0340 -0.2144
 6671SOL    HW131738   4.814   0.210   5.833  0.2361 -1.0575  1.6491
 6671SOL    HW231739   4.674   0.192   5.778 -0.1772  0.9537  1.9614
 6672SOL     OW31740  13.033  13.097   1.177  0.6217  0.1260 -0.5500
 6672SOL    HW131741  13.043  13.029   1.243 -1.4189 -2.8118 -2.9941
 6672SOL    HW231742  13.071  13.060   1.098 -0.5413  1.8094 -1.9770
 6673SOL     OW31743   1.309   1.587   6.384  0.0766  0.3273  0.5578
 6673SOL    HW131744   1.249   1.585   6.310  1.4158  0.4260 -0.5555
 6673SOL    HW231745   1.396   1.593   6.345  0.9475 -1.3892  2.0763
 6674SOL     OW31746   7.439   6.758  13.124  0.2584 -0.3530 -0.5109
 6674SOL    HW131747   7.379   6.688  13.100  0.2423 -0.3764 -0.4070
 6674SOL    HW231748   7.510   6.752  13.060 -0.6518  0.7271 -1.6577
 6675SOL     OW31749   4.182   9.579  10.715  0.5353 -0.3498 -0.2388
 6675SOL    HW131750   4.117   9.593  10.783  0.7318  0.6133 -0.2365
 6675SOL    HW231751   4.254   9.533  10.760 -0.0710 -1.2979 -0.2164
 6676SOL     OW31752   1.987  11.596  10.432  0.2297 -0.0792  0.7216
 6676SOL    HW131753   1.919  11.637  10.484  1.4846  0.4154  2.0303
 6676SOL    HW231754   1.981  11.639  10.346  0.2266  1.4331  1.4511
 6677SOL     OW31755   6.229  13.482   7.033 -0.1023 -0.3693  0.2122
 6677SOL    HW131756   6.254  13.442   7.116  2.2162 -0.4090 -0.4428
 6677SOL    HW231757   6.306  13.473   6.978 -1.6498 -0.5185 -2.0409
 6678SOL     OW31758  13.611   6.542   8.127 -0.2191 -0.0727  0.3198
 6678SOL    HW131759  13.598   6.544   8.222 -1.0098 -0.1805  0.2264
 6678SOL    HW231760  13.534   6.588   8.093  0.8085  1.3196 -0.2086
 6679SOL     OW31761   2.126   2.265   6.805  0.0789  0.4802 -0.2954
 6679SOL    HW131762   2.110   2.357   6.823 -1.0832 -0.0690  1.9233
 6679SOL    HW231763   2.182   2.236   6.877 -0.2715 -0.7126 -0.4712
 6680SOL     OW31764   8.453   4.054   9.646 -0.3060  0.1409  0.7795
 6680SOL    HW131765   8.424   4.058   9.555  0.8382  1.1825  0.4196
 6680SOL    HW231766   8.409   3.978   9.683 -1.8790  0.5091 -0.2506
 6681SOL     OW31767   8.455  11.866   6.143  0.5000 -0.5055 -0.4863
 6681SOL    HW131768   8.391  11.879   6.073  0.1057 -0.1938 -0.0795
 6681SOL    HW231769   8.517  11.938   6.132  0.8288 -0.8526 -0.9294
 6682SOL     OW31770   8.143  12.319   4.651  0.5829  0.2276 -0.3313
 6682SOL    HW131771   8.071  12.324   4.713 -0.0726 -1.7698 -0.8315
 6682SOL    HW231772   8.209  12.265   4.695  0.6645 -0.0947 -0.8279
 6683SOL     OW31773  12.504   6.392   2.945 -0.6755 -0.8265 -0.4920
 6683SOL    HW131774  12.415   6.416   2.917 -0.2568 -0.2577 -1.3693
 6683SOL    HW231775  12.559   6.464   2.915  0.1647 -1.4056 -0.3811
 6684SOL     OW31776   4.388  13.517   1.143  0.2847 -0.1923 -0.4885
 6684SOL    HW131777   4.435  13.450   1.093 -1.7695 -1.1226 -1.3203
 6684SOL    HW231778   4.415  13.504   1.233  0.8550 -1.3399 -0.8102
 6685SOL     OW31779  13.256  13.602  12.264  0.0402 -0.4770 -0.6485
 6685SOL    HW131780  13.167  13.615  12.228  0.2498 -0.5614 -1.2131
 6685SOL    HW231781  13.258  13.658  12.342 -0.3211 -0.0224 -0.9543
 6686SOL     OW31782   4.286   0.578   9.514  0.4153  0.4792  0.9660
 6686SOL    HW131783   4.339   0.632   9.457  1.3852 -0.6075  0.7958
 6686SOL    HW231784   4.297   0.616   9.601  1.9907 -0.0805  1.0400
 6687SOL     OW31785   8.048   1.390   9.067 -0.3124  0.3563  0.0550
 6687SOL    HW131786   8.067   1.477   9.104  0.1544 -0.2696  1.3767
 6687SOL    HW231787   8.126   1.338   9.089 -0.6231 -0.4183 -0.6403
 6688SOL     OW31788   6.889  11.887   3.157  0.4856  0.4300  0.2918
 6688SOL    HW131789   6.937  11.936   3.224 -1.9681  3.2715  0.1926
 6688SOL    HW231790   6.924  11.920   3.074 -1.4347  2.5668  0.2176
 6689SOL     OW31791  12.542  12.118   8.015  0.8352  0.0210  0.7294
 6689SOL    HW131792  12.603  12.054   7.981 -0.5103  0.1299 -2.1939
 6689SOL    HW231793  12.493  12.071   8.083 -0.2628 -2.2214 -1.4545
 6690SOL     OW31794  12.259  13.074   9.278 -0.2968  0.4859  0.2415
 6690SOL    HW131795  12.212  13.122   9.210  0.9081 -0.6594 -1.4752
 6690SOL    HW231796  12.192  13.019   9.320 -1.4514  2.6582  1.4320
 6691SOL     OW31797   1.599   8.113   3.881 -0.1859 -0.6546 -0.9334
 6691SOL    HW131798   1.520   8.107   3.828 -1.5556  0.7698  0.8247
 6691SOL    HW231799   1.567   8.115   3.971  2.0334 -3.0600  0.0523
 6692SOL     OW31800  10.847  13.084   4.527 -0.2060 -0.3396 -0.5158
 6692SOL    HW131801  10.934  13.045   4.526  0.1883  0.4838  0.3312
 6692SOL    HW231802  10.796  13.030   4.588 -0.1219 -0.4701 -0.5620
 6693SOL     OW31803   1.182  12.026   2.521 -0.2757 -0.4922  0.4084
 6693SOL    HW131804   1.107  12.063   2.567 -0.6730  1.1361 -1.4308
 6693SOL    HW231805   1.214  12.097   2.465  3.4500 -0.6785  1.9980
 6694SOL     OW31806   5.149  10.617  13.211  0.0364  0.3304 -0.1196
 6694SOL    HW131807   5.151  10.618  13.306  1.9870  0.6951 -0.1226
 6694SOL    HW231808   5.058  10.640  13.188 -0.4332  0.3193  1.6224
 6695SOL     OW31809  11.934   1.808   5.545 -0.1680  0.2004 -0.8720
 6695SOL    HW131810  11.975   1.721   5.543 -1.2124 -0.2962 -1.6309
 6695SOL    HW231811  11.881   1.808   5.625  0.0492  0.2423 -0.7282
 6696SOL     OW31812  11.186   5.942   9.844 -0.2748  0.3715  0.3012
 6696SOL    HW131813  11.122   5.980   9.905  0.5788 -1.0468  2.1954
 6696SOL    HW231814  11.251   6.011   9.831 -0.0102  0.4224  1.7408
 6697SOL     OW31815  11.119  12.746   0.943 -0.2174  0.1137  0.6072
 6697SOL    HW131816  11.138  12.832   0.982  0.6650  0.1873  0.0285
 6697SOL    HW231817  11.092  12.692   1.017 -1.0602  0.9617  0.9427
 6698SOL     OW31818   5.551   9.718  12.772  0.2248 -0.0126  0.3353
 6698SOL    HW131819   5.611   9.752  12.706 -0.0116  0.2623  0.2557
 6698SOL    HW231820   5.593   9.639  12.805  0.1103 -0.4465 -0.5085
 6699SOL     OW31821   6.038   7.853  13.186 -0.1720 -0.4656  0.6207
 6699SOL    HW131822   6.111   7.891  13.138  0.2121 -1.2539  0.5632
 6699SOL    HW231823   5.969   7.919  13.181  0.4681  0.2042  0.5126
 6700SOL     OW31824  10.604   4.511   5.811  0.2263  0.4261  0.4028
 6700SOL    HW131825  10.593   4.504   5.906  0.3046 -1.0325  0.3329
 6700SOL    HW231826  10.656   4.434   5.788  0.7955  1.1438 -0.7354
 6701SOL     OW31827   4.633   0.302  10.382 -0.1355  0.4440  0.2336
 6701SOL    HW131828   4.625   0.207  10.372 -0.9102  0.5995 -0.8057
 6701SOL    HW231829   4.723   0.315  10.412  0.3789 -0.5528 -0.8007
 6702SOL     OW31830   7.226   8.276  11.939  0.1320  0.0761 -0.8279
 6702SOL    HW131831   7.256   8.265  12.029  1.4133  1.7422 -1.0052
 6702SOL    HW231832   7.244   8.192  11.897 -0.8956 -0.8733  0.5478
 6703SOL     OW31833   0.700   0.587   9.482 -0.2858  0.2678  0.5241
 6703SOL    HW131834   0.681   0.519   9.546  0.8840  1.6788  2.4737
 6703SOL    HW231835   0.794   0.580   9.467 -0.0749  1.6528  1.0572
 6704SOL     OW31836   2.688   7.291   6.036  0.4062  0.1261 -0.0774
 6704SOL    HW131837   2.606   7.264   5.994  1.0688  0.6444 -1.8176
 6704SOL    HW231838   2.682   7.386   6.041  0.7100  0.1305  0.2261
 6705SOL     OW31839   8.835   4.057   7.077  0.2954 -0.0301  0.1845
 6705SOL    HW131840   8.928   4.039   7.087  0.5243 -0.5469 -2.1926
 6705SOL    HW231841   8.830   4.121   7.006 -1.1142  1.1139  1.2523
 6706SOL     OW31842   0.965   1.628   8.533  0.6561 -0.6750 -0.1346
 6706SOL    HW131843   0.988   1.547   8.578  0.8835 -1.3127 -1.3392
 6706SOL    HW231844   0.888   1.661   8.579 -0.7418 -2.7095 -0.8845
 6707SOL     OW31845   9.929   1.564   6.524  0.6145 -0.2459 -0.3660
 6707SOL    HW131846  10.004   1.620   6.542  0.6909 -0.2983 -0.5213
 6707SOL    HW231847   9.940   1.539   6.432  0.4930 -0.3838 -0.3420
 6708SOL     OW31848  13.595   2.411   6.353  0.0042 -0.1998  0.2510
 6708SOL    HW131849  13.512   2.407   6.306  0.3221  0.0140 -0.3340
 6708SOL    HW231850  13.588   2.342   6.419 -0.4743 -0.4594 -0.0615
 6709SOL     OW31851   1.992   7.815   6.359  0.3578 -0.4477 -0.4776
 6709SOL    HW131852   1.921   7.752   6.347 -0.9477  1.0596 -1.0642
 6709SOL    HW231853   1.983   7.875   6.285  2.1411 -0.0977 -0.4534
 6710SOL     OW31854   0.470   9.584   8.967 -0.4626  0.5873 -0.5100
 6710SOL    HW131855   0.384   9.554   8.935 -0.2856 -0.1037 -0.3552
 6710SOL    HW231856   0.487   9.530   9.044 -0.3884  1.5015  0.1308
 6711SOL     OW31857  12.544   1.732   3.592  1.0214  0.2889  0.2687
 6711SOL    HW131858  12.460   1.778   3.605  0.0943 -1.1037 -0.5487
 6711SOL    HW231859  12.603   1.799   3.558  0.3630  1.3816  1.1761
 6712SOL     OW31860   1.444   6.218  10.358  0.7140 -0.0301 -0.0301
 6712SOL    HW131861   1.438   6.290  10.421 -0.4984 -0.1010 -0.0402
 6712SOL    HW231862   1.364   6.167  10.371  0.4606 -0.0832 -1.5616
 6713SOL     OW31863  11.278  12.456   9.639  0.0968 -0.0410 -0.0887
 6713SOL    HW131864  11.306  12.545   9.661  1.1552 -0.0885 -1.1259
 6713SOL    HW231865  11.359  12.411   9.617 -0.6097 -0.7558 -1.3090
 6714SOL     OW31866   0.013   5.612   8.996  0.4014  0.0418  0.6182
 6714SOL    HW131867   0.063   5.569   8.927 -0.3475  0.4679 -0.2120
 6714SOL    HW231868   0.077   5.664   9.043  1.1473 -1.2173  1.0378
 6715SOL     OW31869  12.129   3.230   1.333 -0.9017  0.7763 -0.2132
 6715SOL    HW131870  12.042   3.239   1.370  0.1003  0.2371  2.5012
 6715SOL    HW231871  12.177   3.176   1.396  1.5472  1.5164 -1.3110
 6716SOL     OW31872   1.189   5.050   1.840  0.2617  0.3025  0.6544
 6716SOL    HW131873   1.165   5.122   1.782  1.2165 -1.6498 -2.4533
 6716SOL    HW231874   1.118   4.986   1.828  1.2800 -0.8020  0.3056
 6717SOL     OW31875  13.562   8.208   7.876 -0.6464  0.1510  0.4456
 6717SOL    HW131876  13.623   8.143   7.842 -0.1003 -0.0244  1.7086
 6717SOL    HW231877  13.508   8.159   7.938  0.3260  1.0511  2.0592
 6718SOL     OW31878   7.719   9.452   9.586  0.2046 -0.2581  1.0527
 6718SOL    HW131879   7.701   9.413   9.501 -1.6380 -0.9861  1.7072
 6718SOL    HW231880   7.654   9.522   9.594  1.5310  0.9983  1.1408
 6719SOL     OW31881   8.706   9.191  10.627  0.1152 -0.3565  0.1851
 6719SOL    HW131882   8.654   9.123  10.669  1.3208 -0.9749  0.7504
 6719SOL    HW231883   8.745   9.148  10.551  0.1121 -0.0130 -0.0144
 6720SOL     OW31884   3.733  11.083   7.715 -0.0619  0.2489 -0.0965
 6720SOL    HW131885   3.693  11.104   7.630  0.9254 -0.9661 -0.8950
 6720SOL    HW231886   3.820  11.123   7.710 -0.4062  1.1511  0.8221
 6721SOL     OW31887   6.688   1.231  13.570 -0.5466 -0.2074  0.1298
 6721SOL    HW131888   6.701   1.220  13.476 -0.6140 -2.7947  0.3531
 6721SOL    HW231889   6.747   1.167  13.610  3.1927  3.9072  2.1753
 6722SOL     OW31890   6.060   1.852   2.652 -0.0961 -0.1414 -0.3879
 6722SOL    HW131891   6.084   1.795   2.579  0.5471  2.0126 -1.9233
 6722SOL    HW231892   6.022   1.929   2.611 -0.6858  0.6886  1.6216
 6723SOL     OW31893  13.343   0.336   5.607  0.7668  0.1414 -0.3133
 6723SOL    HW131894  13.433   0.332   5.576  0.6135  0.1783 -0.7625
 6723SOL    HW231895  13.350   0.325   5.702  1.0574 -2.3987 -0.5599
 6724SOL     OW31896   7.550   7.094  13.426 -0.3593  0.0081 -0.2335
 6724SOL    HW131897   7.464   7.070  13.393 -0.8387  2.7130 -1.2046
 6724SOL    HW231898   7.600   7.117  13.348  1.0048 -0.7459  0.3822
 6725SOL     OW31899  10.511   2.487  12.247  0.4204  0.0759  0.0505
 6725SOL    HW131900  10.426   2.511  12.210 -1.9978 -3.6153  2.5543
 6725SOL    HW231901  10.544   2.417  12.190  0.6012 -0.1590  0.4390
 6726SOL     OW31902  12.834  12.913   5.091  0.6479 -0.0776 -0.2361
 6726SOL    HW131903  12.827  12.818   5.084  0.3883 -0.1608  0.9846
 6726SOL    HW231904  12.757  12.939   5.142 -0.0737  0.9636 -1.7756
 6727SOL     OW31905  11.175   7.998  12.433  0.3565 -0.0582 -0.1128
 6727SOL    HW131906  11.161   7.909  12.402 -0.0326  0.0819 -0.3479
 6727SOL    HW231907  11.131   8.001  12.518 -0.4013  0.1596 -0.5041
 6728SOL     OW31908   1.111  13.408   9.698  0.5804 -0.5044  0.7034
 6728SOL    HW131909   1.042  13.454   9.652  1.1904 -0.3959 -0.1279
 6728SOL    HW231910   1.076  13.320   9.715  0.8337 -1.0279 -1.2379
 6729SOL     OW31911   6.553   0.760   9.523 -0.1152 -0.0361 -0.0384
 6729SOL    HW131912   6.505   0.686   9.560 -0.0443 -0.3343 -0.5410
 6729SOL    HW231913   6.603   0.723   9.451  1.6545  0.0778  1.0726
 6730SOL     OW31914   9.923   5.802   2.182  0.1680  0.3556 -0.2068
 6730SOL    HW131915   9.992   5.811   2.117  0.3861 -1.9742 -0.3604
 6730SOL    HW231916   9.950   5.859   2.254  0.6058  1.8968 -1.5491
 6731SOL     OW31917   8.670  10.142   1.977 -0.2879  0.1502 -0.2694
 6731SOL    HW131918   8.724  10.195   1.918 -2.0973 -1.5710 -3.8233
 6731SOL    HW231919   8.595  10.198   1.997  0.4982  0.8698  0.7388
 6732SOL     OW31920   8.725   6.661   4.930 -0.0133  0.1410  1.0731
 6732SOL    HW131921   8.705   6.728   4.864 -1.7809  0.8549  2.2523
 6732SOL    HW231922   8.718   6.707   5.014 -0.2284 -1.2845  1.8609
 6733SOL     OW31923   1.743   3.726  11.011 -0.4143 -0.0974 -0.1978
 6733SOL    HW131924   1.794   3.791  10.963 -1.1618  0.0084 -0.8793
 6733SOL    HW231925   1.652   3.750  10.995 -0.7069  0.5114  2.0912
 6734SOL     OW31926   8.783   0.953  11.091 -0.3906 -0.4604 -0.5541
 6734SOL    HW131927   8.828   0.870  11.106 -0.9877 -0.6306  0.3068
 6734SOL    HW231928   8.764   0.986  11.178 -0.0414  0.6542 -0.8821
 6735SOL     OW31929  11.982   8.829   9.257 -0.7040 -0.4462  0.5050
 6735SOL    HW131930  11.901   8.804   9.213 -0.3763  0.2871 -0.5623
 6735SOL    HW231931  11.978   8.925   9.264  0.2574 -0.3476  0.0083
 6736SOL     OW31932   7.646  10.266   1.392 -0.2327 -0.5458 -0.5218
 6736SOL    HW131933   7.573  10.301   1.445  0.2553 -0.1608 -0.0950
 6736SOL    HW231934   7.603  10.225   1.317 -0.8551  1.1329 -1.1544
 6737SOL     OW31935   4.773  10.467   1.750  0.4212 -0.2910 -0.3721
 6737SOL    HW131936   4.849  10.461   1.808 -0.5839 -0.8574  0.9611
 6737SOL    HW231937   4.710  10.405   1.787 -0.6727  0.1244 -1.4593
 6738SOL     OW31938   5.785  11.848  10.354  0.0171  0.1639  0.3733
 6738SOL    HW131939   5.845  11.830  10.282  2.2693 -1.4528  2.4429
 6738SOL    HW231940   5.699  11.823  10.322  0.9063 -0.2923 -1.7849
 6739SOL     OW31941   2.014   4.982  10.874  0.2831  0.6003 -0.5138
 6739SOL    HW131942   1.977   5.048  10.932  0.0248 -0.0945  0.1277
 6739SOL    HW231943   2.109   4.990  10.885  0.2854  1.3962 -1.0519
 6740SOL     OW31944  13.240  13.043   9.909  0.0595  0.3174  0.3602
 6740SOL    HW131945  13.221  12.989   9.832  0.0233 -1.2284  1.4036
 6740SOL    HW231946  13.155  13.077   9.937 -0.0081  0.4022  0.0467
 6741SOL     OW31947   6.015  11.001   9.342 -0.7127 -0.2682  0.0931
 6741SOL    HW131948   6.053  11.083   9.308 -0.3020 -1.0927 -1.5226
 6741SOL    HW231949   5.989  11.023   9.432  0.7885  1.2054  0.2261
 6742SOL     OW31950   3.729   3.944   7.128  0.0029 -0.0763  0.0551
 6742SOL    HW131951   3.752   3.851   7.130  0.6242  0.0540 -0.5753
 6742SOL    HW231952   3.742   3.974   7.218 -0.0387 -0.5590  0.2235
 6743SOL     OW31953  11.406   1.388   9.695  0.3676  0.0951 -0.1940
 6743SOL    HW131954  11.335   1.329   9.719 -0.4365  1.2439  0.3643
 6743SOL    HW231955  11.455   1.341   9.627 -0.9489 -0.7083 -0.6271
 6744SOL     OW31956   4.485   2.908  13.466  0.1875  0.0657 -0.3261
 6744SOL    HW131957   4.483   2.830  13.521 -0.6811 -0.4435 -1.0415
 6744SOL    HW231958   4.490   2.875  13.376  0.5834  0.8519 -0.6080
 6745SOL     OW31959  12.390   2.048   4.452  0.4653 -0.0512 -0.1227
 6745SOL    HW131960  12.433   2.048   4.366  0.1863  0.6994 -0.2731
 6745SOL    HW231961  12.303   2.084   4.435  0.5318  0.4350  0.5384
 6746SOL     OW31962   9.694   5.638   6.167 -0.6524  0.4872  0.0609
 6746SOL    HW131963   9.786   5.613   6.155  0.1328  2.9718  0.1845
 6746SOL    HW231964   9.647   5.590   6.099  0.7139 -0.9414  0.0767
 6747SOL     OW31965   9.926  13.385   1.966 -0.5830  0.5151  0.2146
 6747SOL    HW131966   9.964  13.467   1.934  0.1377 -0.8010 -2.5637
 6747SOL    HW231967   9.832  13.398   1.959 -0.4655  0.8438 -1.1257
 6748SOL     OW31968  10.758   4.057   4.387 -0.5352  0.3216  0.4581
 6748SOL    HW131969  10.778   4.092   4.301 -0.0961  2.2126  1.2645
 6748SOL    HW231970  10.699   3.983   4.371 -2.1827  1.9217 -1.3730
 6749SOL     OW31971   2.883  10.752  13.103 -0.3189  0.1354  0.4377
 6749SOL    HW131972   2.942  10.826  13.088 -0.2552  0.1571  0.7808
 6749SOL    HW231973   2.913  10.714  13.186 -0.8374  0.1952  0.6562
 6750SOL     OW31974  12.785   6.928   4.048  0.1688 -0.1769  0.2934
 6750SOL    HW131975  12.873   6.960   4.027  1.2159 -3.1191 -0.3575
 6750SOL    HW231976  12.760   6.876   3.972 -1.0771 -1.3972  1.4824
 6751SOL     OW31977   8.900   4.556   8.554  0.2250  0.0467 -0.4192
 6751SOL    HW131978   8.945   4.502   8.489 -0.0848 -0.0751 -0.5337
 6751SOL    HW231979   8.956   4.633   8.564  1.0147 -0.6044  0.2440
 6752SOL     OW31980   2.849  12.719   1.990 -0.3121  0.6122 -0.5856
 6752SOL    HW131981   2.889  12.786   2.045  2.4457  0.7269 -2.5375
 6752SOL    HW231982   2.763  12.704   2.029  0.7054  2.0767  2.4979
 6753SOL     OW31983  10.900  10.145   4.293  0.1213 -0.2512  0.7082
 6753SOL    HW131984  10.813  10.139   4.253  0.1284  0.9046  0.4660
 6753SOL    HW231985  10.901  10.232   4.333  1.4604  0.0904 -0.0001
 6754SOL     OW31986   9.242   8.488   2.166 -0.1867  0.2717  0.0674
 6754SOL    HW131987   9.275   8.421   2.226  0.7817  1.7633  1.2865
 6754SOL    HW231988   9.264   8.455   2.079  0.1113 -1.0597  0.6230
 6755SOL     OW31989   0.926   5.398   1.200  0.0181  0.0224 -0.0691
 6755SOL    HW131990   0.968   5.344   1.133 -0.6757  0.5999 -0.9860
 6755SOL    HW231991   0.962   5.486   1.186  0.8288 -0.0830  1.1508
 6756SOL     OW31992   4.462   7.179  12.274  0.0656 -0.0286 -0.0792
 6756SOL    HW131993   4.539   7.234  12.256  0.0869  0.7494  2.0493
 6756SOL    HW231994   4.425   7.216  12.354 -1.2070 -1.8031  0.2082
 6757SOL     OW31995   7.437   2.086   2.942 -0.0805 -0.0383 -0.3430
 6757SOL    HW131996   7.522   2.066   2.980 -0.0596 -1.7921 -1.2198
 6757SOL    HW231997   7.379   2.018   2.975 -0.9531  0.6256 -0.4649
 6758SOL     OW31998  11.893   8.164   3.929 -0.2862 -0.0116 -0.1547
 6758SOL    HW131999  11.868   8.147   3.839  0.8719 -0.6274 -0.3772
 6758SOL    HW232000  11.868   8.084   3.977 -1.8600  0.7126  0.2998
 6759SOL     OW32001   1.728   9.989  13.397 -0.0492  0.6001 -0.1526
 6759SOL    HW132002   1.684  10.004  13.313  1.5100 -0.2754 -1.1743
 6759SOL    HW232003   1.806  10.045  13.394  0.8968 -0.6638 -0.0247
 6760SOL     OW32004   8.867   1.449   8.931  0.2538 -0.4193  0.1423
 6760SOL    HW132005   8.788   1.504   8.925  0.6804  0.1530 -0.3659
 6760SOL    HW232006   8.835   1.366   8.965 -1.0038 -1.0652 -2.3960
 6761SOL     OW32007   6.654   0.387   3.638 -0.2009  0.0289 -0.3477
 6761SOL    HW132008   6.718   0.320   3.665  0.0820 -0.3860 -1.9757
 6761SOL    HW232009   6.635   0.435   3.719  1.1042 -0.7448  0.4609
 6762SOL     OW32010  11.581   9.549  10.785 -0.5771 -0.5159  0.2504
 6762SOL    HW132011  11.572   9.466  10.738 -1.6164 -0.3966  0.2311
 6762SOL    HW232012  11.492   9.579  10.798 -0.1852  1.0480 -0.5239
 6763SOL     OW32013  10.745   9.233  11.676 -0.1346 -0.4672 -0.2830
 6763SOL    HW132014  10.719   9.324  11.661 -0.1643 -0.7438 -2.0667
 6763SOL    HW232015  10.840   9.234  11.671 -0.1592 -0.6132 -0.8207
 6764SOL     OW32016   4.461  13.052   6.575  0.0962  0.4238 -0.8719
 6764SOL    HW132017   4.473  12.967   6.531  0.3394  0.6807 -1.3112
 6764SOL    HW232018   4.420  13.030   6.659  0.2811 -0.1435 -0.9238
 6765SOL     OW32019   6.491   7.644   7.166 -0.2469  0.9417  0.3138
 6765SOL    HW132020   6.417   7.584   7.157  1.5925 -1.4107 -0.1675
 6765SOL    HW232021   6.484   7.677   7.256 -1.5848  0.3720  0.4422
 6766SOL     OW32022  10.698   5.959  12.256 -0.2786 -0.0301 -0.1988
 6766SOL    HW132023  10.693   5.892  12.324  0.0457 -0.9394 -1.0341
 6766SOL    HW232024  10.616   5.950  12.208  0.0805 -0.3298 -0.7635
 6767SOL     OW32025   9.410   5.693   7.664  0.9671  0.0570 -0.3235
 6767SOL    HW132026   9.414   5.755   7.737 -0.9854  2.8156 -2.3083
 6767SOL    HW232027   9.359   5.619   7.697  1.6033  0.4249  1.5776
 6768SOL     OW32028   0.173  12.360   6.114 -0.4447  0.2678  0.0368
 6768SOL    HW132029   0.210  12.439   6.153  1.8478 -1.0129  0.6552
 6768SOL    HW232030   0.163  12.381   6.021 -1.5781  1.8194  0.4586
 6769SOL     OW32031  10.235  10.399   2.748  0.6867 -0.5087  0.4445
 6769SOL    HW132032  10.177  10.450   2.804 -0.8563 -0.4547 -1.1512
 6769SOL    HW232033  10.184  10.380   2.670  3.3192  1.0527 -1.8773
 6770SOL     OW32034   6.013   3.534   9.740 -0.5135 -0.0487 -0.2294
 6770SOL    HW132035   5.952   3.599   9.776  0.6674  1.4373 -0.8273
 6770SOL    HW232036   5.957   3.461   9.713 -1.7404  0.0387  1.8151
 6771SOL     OW32037  13.374   1.863   0.442 -0.5370  0.6199  0.0705
 6771SOL    HW132038  13.327   1.861   0.359 -3.0755  1.0754  1.4045
 6771SOL    HW232039  13.372   1.772   0.473  0.9750  0.3206 -0.5881
 6772SOL     OW32040   7.987   6.557  11.218 -0.0424 -0.2853  0.7300
 6772SOL    HW132041   7.924   6.629  11.224  1.0623  0.6027  2.7721
 6772SOL    HW232042   8.069   6.594  11.251  0.8516 -2.1816  0.7831
 6773SOL     OW32043   0.754  11.734   4.134 -0.5795  0.4564 -0.0985
 6773SOL    HW132044   0.731  11.654   4.087 -1.7507  0.6973  0.0244
 6773SOL    HW232045   0.847  11.726   4.153 -0.2850 -0.0449 -1.6795
 6774SOL     OW32046   6.516   9.124   8.846  0.3624 -0.1130  0.2921
 6774SOL    HW132047   6.525   9.205   8.795  1.6848  1.6747  3.1569
 6774SOL    HW232048   6.606   9.097   8.864 -0.0559 -0.4227  2.0432
 6775SOL     OW32049   6.528   1.467   5.597 -0.7033 -0.0125 -0.3039
 6775SOL    HW132050   6.444   1.427   5.577  0.0426 -1.6442 -0.3272
 6775SOL    HW232051   6.544   1.446   5.689 -0.2515  0.1467 -0.3405
 6776SOL     OW32052   6.911   1.166   7.728 -0.1920  0.2245 -0.4203
 6776SOL    HW132053   6.843   1.121   7.678  0.0690 -0.5105 -0.1248
 6776SOL    HW232054   6.938   1.239   7.672  1.0829 -1.3716 -1.9793
 6777SOL     OW32055   5.690   6.512  10.093  0.0890  0.4250  0.3015
 6777SOL    HW132056   5.673   6.431  10.044 -2.4108  1.2520 -0.3361
 6777SOL    HW232057   5.693   6.580  10.026 -3.8403  1.6449  1.0928
 6778SOL     OW32058   6.471  12.438   5.714  0.1110  0.9379  0.4572
 6778SOL    HW132059   6.502  12.386   5.788  1.6052  0.6554 -0.3309
 6778SOL    HW232060   6.392  12.392   5.684  2.1574 -1.8569 -1.1429
 6779SOL     OW32061   0.243  11.244  10.162 -0.2213  0.3243 -0.3793
 6779SOL    HW132062   0.199  11.163  10.188  1.1565  0.0331  1.2599
 6779SOL    HW232063   0.190  11.314  10.200 -0.5541  0.1152 -0.4562
 6780SOL     OW32064   4.941   0.106  12.198 -0.0445  0.2780 -0.2226
 6780SOL    HW132065   4.986   0.085  12.279  2.4621 -2.2545 -2.0728
 6780SOL    HW232066   4.848   0.103  12.220  0.5376 -0.8457  2.4145
 6781SOL     OW32067   6.311  13.547   2.642 -0.1561  0.7541  0.1295
 6781SOL    HW132068   6.400  13.511   2.644 -0.7369 -0.7441  0.3199
 6781SOL    HW232069   6.270  13.512   2.721 -0.8442  1.6489  0.1790
 6782SOL     OW32070   3.130  11.997   4.018 -0.0029  0.0153  0.2987
 6782SOL    HW132071   3.097  11.933   3.956  0.0812 -0.5204  0.7902
 6782SOL    HW232072   3.086  12.078   3.996 -0.6931 -0.3947  0.1540
 6783SOL     OW32073  12.598   5.587  12.437  0.6266 -1.3163  0.7244
 6783SOL    HW132074  12.672   5.528  12.419  1.4208 -0.3584  0.7554
 6783SOL    HW232075  12.619   5.627  12.522  1.9918  1.7378 -0.8964
 6784SOL     OW32076   2.815  11.685   6.921 -0.2890 -0.2324  0.2950
 6784SOL    HW132077   2.895  11.635   6.902  0.6386  1.0068  0.8078
 6784SOL    HW232078   2.800  11.671   7.014 -1.8498 -2.0746 -0.1782
 6785SOL     OW32079  12.198   8.380   3.402  0.7408  0.2435  0.0760
 6785SOL    HW132080  12.291   8.360   3.412  1.0766  0.6676 -1.7448
 6785SOL    HW232081  12.193   8.475   3.414  0.2894  0.0512  1.5884
 6786SOL     OW32082  13.729   5.198   6.009  0.1813 -0.1083  0.5287
 6786SOL    HW132083  13.823   5.209   6.003  0.3360 -1.6607 -0.2125
 6786SOL    HW232084  13.706   5.236   6.094  0.8890  3.6051 -0.7683
 6787SOL     OW32085   0.425  12.491   0.785  0.4988  0.4259 -0.3793
 6787SOL    HW132086   0.367  12.445   0.846  0.2715  0.9801 -0.1742
 6787SOL    HW232087   0.496  12.428   0.768  0.0563 -0.1033 -0.3146
 6788SOL     OW32088   1.013   6.267  13.598  0.3664 -0.1398 -0.4651
 6788SOL    HW132089   1.029   6.318  13.519 -0.4429  1.0177  0.1001
 6788SOL    HW232090   1.079   6.295  13.660 -0.5051  0.7623  0.0813
 6789SOL     OW32091   2.749  10.057   0.127 -0.6515 -0.1444 -0.0408
 6789SOL    HW132092   2.802  10.023   0.056 -0.5324 -1.3252  0.5829
 6789SOL    HW232093   2.745   9.985   0.191  0.3459  1.2913  1.7530
 6790SOL     OW32094  12.959  10.651  10.915  0.3118  0.1000  0.3242
 6790SOL    HW132095  12.919  10.621  10.833  1.2984 -1.8772  0.4925
 6790SOL    HW232096  12.999  10.735  10.894 -0.6553  0.2984 -0.8232
 6791SOL     OW32097   8.159  13.007  13.618  0.3594  0.1363 -0.4259
 6791SOL    HW132098   8.142  13.026  13.710 -0.7836 -0.2683 -0.5361
 6791SOL    HW232099   8.076  12.973  13.585  0.1920  1.9574 -2.0566
 6792SOL     OW32100  11.945  13.079   6.193 -0.0682 -0.1729 -0.6183
 6792SOL    HW132101  11.932  13.142   6.264 -2.5085 -1.2547  0.0136
 6792SOL    HW232102  11.916  13.125   6.114  2.1482  0.8497 -0.9070
 6793SOL     OW32103   4.250   3.266  12.718  0.0277  0.3589 -0.1489
 6793SOL    HW132104   4.217   3.204  12.653 -1.1906 -0.0648  0.8423
 6793SOL    HW232105   4.346   3.257  12.713 -0.0763 -0.3541 -1.1946
 6794SOL     OW32106  10.659  12.307  13.323 -0.0508  0.1093  0.3232
 6794SOL    HW132107  10.575  12.341  13.353 -0.8445 -1.8667  0.4937
 6794SOL    HW232108  10.693  12.374  13.264 -1.5992  1.0751  0.4866
 6795SOL     OW32109   9.489  12.239  12.575  0.2679 -0.1959  0.0024
 6795SOL    HW132110   9.560  12.177  12.560  0.4660 -0.2028  0.9236
 6795SOL    HW232111   9.424  12.218  12.508  1.1300 -0.1883 -0.8520
 6796SOL     OW32112   2.680  10.271  10.817  0.9328  0.4004  0.7468
 6796SOL    HW132113   2.681  10.238  10.727  2.8919  0.3556  0.7304
 6796SOL    HW232114   2.625  10.210  10.865  1.2500 -0.5720 -0.0982
 6797SOL     OW32115  13.732   5.753  12.820  0.2514 -0.2798  0.2053
 6797SOL    HW132116  13.795   5.824  12.829  0.1447 -0.2710  0.9729
 6797SOL    HW232117  13.646   5.795  12.827  0.1420 -0.2373 -1.2426
 6798SOL     OW32118   7.430   9.956   2.820 -0.2315 -0.1044  0.2572
 6798SOL    HW132119   7.443   9.881   2.762  0.4490  0.0116  0.2566
 6798SOL    HW232120   7.437  10.032   2.762  1.0921  0.0437  0.5715
 6799SOL     OW32121   2.176   9.998   3.759  0.8647 -0.9710 -0.4064
 6799SOL    HW132122   2.170  10.062   3.830 -1.7990 -0.7967 -0.7094
 6799SOL    HW232123   2.269   9.999   3.734  1.5862  0.0466  2.0393
 6800SOL     OW32124   3.453   8.816  11.394  0.5773 -0.6200  0.1040
 6800SOL    HW132125   3.548   8.827  11.403  0.4416  0.7703  0.1772
 6800SOL    HW232126   3.416   8.895  11.434 -0.5530 -0.5500 -0.9908
 6801SOL     OW32127   7.666   2.556   5.761 -0.1903 -0.2999 -0.2363
 6801SOL    HW132128   7.648   2.640   5.720 -4.2801  0.3109  2.2556
 6801SOL    HW232129   7.663   2.493   5.689  1.1389  1.4433 -1.8923
 6802SOL     OW32130  12.767   3.573   5.052  0.0449  0.1903 -0.0721
 6802SOL    HW132131  12.757   3.665   5.077  1.7146  0.6275 -0.8475
 6802SOL    HW232132  12.791   3.528   5.133 -1.9359  0.1925  0.5509
 6803SOL     OW32133  13.344   9.474   3.050  0.1678  0.1405  0.1406
 6803SOL    HW132134  13.302   9.559   3.062 -0.0396 -0.1492  1.6103
 6803SOL    HW232135  13.438   9.493   3.059  0.0808  0.1127  1.2011
 6804SOL     OW32136   4.538   5.079   8.171  0.2631  0.4902  0.2552
 6804SOL    HW132137   4.532   5.128   8.089 -1.1613  2.7185  1.5862
 6804SOL    HW232138   4.454   5.034   8.178 -0.4435  1.9246  1.3909
 6805SOL     OW32139   3.040   7.547  10.157 -0.8909 -0.3861  0.0440
 6805SOL    HW132140   3.073   7.483  10.220 -0.8046  0.1911  0.5920
 6805SOL    HW232141   2.994   7.613  10.210 -1.4672 -0.2847 -0.5584
 6806SOL     OW32142   4.324   9.049  12.119 -0.1838  0.2749  0.0140
 6806SOL    HW132143   4.294   9.100  12.044  0.5303  1.2043  0.3385
 6806SOL    HW232144   4.262   8.977  12.125 -1.0050  0.8977 -0.6893
 6807SOL     OW32145   4.951  11.732   3.489  0.0715 -0.0974  0.4570
 6807SOL    HW132146   4.998  11.740   3.406  0.3926  0.6975  0.7001
 6807SOL    HW232147   4.862  11.706   3.464 -0.4129  2.0775 -0.3248
 6808SOL     OW32148   5.137   6.079   8.330 -0.2963  0.4778  0.3528
 6808SOL    HW132149   5.153   6.173   8.321 -0.9263  0.5794  0.2172
 6808SOL    HW232150   5.149   6.061   8.424  1.0995  0.4351  0.1854
 6809SOL     OW32151   6.620   9.639  13.546  0.4862  0.1703  0.2281
 6809SOL    HW132152   6.663   9.693  13.612  0.6220 -0.3124  0.5377
 6809SOL    HW232153   6.679   9.565  13.532 -0.1425 -0.4112  0.5336
 6810SOL     OW32154   1.864   7.833   8.568  0.4188 -0.2371 -0.5158
 6810SOL    HW132155   1.818   7.806   8.648  0.6734 -1.8505 -0.8698
 6810SOL    HW232156   1.796   7.836   8.501  0.3021  0.5547 -0.3685
 6811SOL     OW32157  10.460   1.670   8.180 -0.1350 -0.2778  0.3652
 6811SOL    HW132158  10.424   1.757   8.193  1.5320  0.2419  1.9800
 6811SOL    HW232159  10.549   1.685   8.149 -0.2822 -1.4541 -0.7245
 6812SOL     OW32160   1.048   0.257   1.196 -0.0559 -0.2992  0.5103
 6812SOL    HW132161   1.107   0.223   1.129 -1.2719 -1.4392 -0.0155
 6812SOL    HW232162   0.972   0.289   1.147 -0.6838 -0.5595  1.3091
 6813SOL     OW32163   6.545  13.098   4.710  0.8866  0.2336  0.2692
 6813SOL    HW132164   6.626  13.050   4.729  0.9580  0.1499 -0.2348
 6813SOL    HW232165   6.574  13.180   4.670  0.7607  0.6767  1.0735
 6814SOL     OW32166   7.311   6.994  11.880 -0.0934 -0.2466  0.3579
 6814SOL    HW132167   7.326   6.967  11.971  3.9382 -0.9244 -0.3274
 6814SOL    HW232168   7.352   7.080  11.873 -0.7352 -0.0094 -0.7559
 6815SOL     OW32169   4.770   4.518   0.267 -0.4529  0.3776 -0.1768
 6815SOL    HW132170   4.753   4.424   0.263  0.6717  0.1415  0.2776
 6815SOL    HW232171   4.862   4.527   0.244 -0.2727  1.2593  0.8251
 6816SOL     OW32172  13.742   3.789  13.200  0.4520  0.0059  0.4723
 6816SOL    HW132173  13.657   3.779  13.241  0.3976  0.2498  0.4191
 6816SOL    HW232174  13.798   3.828  13.268  0.6714 -0.6628  0.6891
 6817SOL     OW32175   7.394   1.470   1.583  0.1703  0.3888 -0.1809
 6817SOL    HW132176   7.433   1.548   1.543  1.9230 -1.1721 -1.6679
 6817SOL    HW232177   7.463   1.433   1.637 -0.8914  0.2053  1.1342
 6818SOL     OW32178   5.522  11.197   2.761  0.0383  0.1136  0.1935
 6818SOL    HW132179   5.497  11.142   2.687  0.2124 -0.2346  0.3898
 6818SOL    HW232180   5.440  11.232   2.795  0.0626  1.7528 -1.2776
 6819SOL     OW32181  12.980   8.623   2.127 -0.0902 -0.3913  0.3702
 6819SOL    HW132182  12.922   8.664   2.063 -1.0090 -1.8002  0.2616
 6819SOL    HW232183  13.042   8.572   2.074  0.1199 -0.3327  0.5536
 6820SOL     OW32184   8.303   3.043   1.627 -0.0687  0.1542 -0.4157
 6820SOL    HW132185   8.329   2.963   1.582  1.0060  0.4069 -0.2839
 6820SOL    HW232186   8.378   3.065   1.682  0.0004  1.6975 -1.0694
 6821SOL     OW32187   1.229  13.416  11.408  0.2347 -0.1489  0.6799
 6821SOL    HW132188   1.175  13.404  11.486  0.4164  1.0802  1.0141
 6821SOL    HW232189   1.167  13.411  11.335 -0.2027  0.3506  1.0074
 6822SOL     OW32190   0.285   7.986   4.792  0.0783 -0.0200  0.1282
 6822SOL    HW132191   0.306   8.009   4.882  0.5045  0.8517 -0.1847
 6822SOL    HW232192   0.370   7.961   4.754 -0.1523 -0.7230  0.0569
 6823SOL     OW32193  11.854   9.881   6.820 -0.2074 -0.5253 -0.3621
 6823SOL    HW132194  11.769   9.898   6.779 -1.8161 -3.3038  1.5081
 6823SOL    HW232195  11.858   9.943   6.893 -0.6311 -0.4145 -0.4307
 6824SOL     OW32196   7.103   4.854   1.710 -0.1398  0.0752  0.2680
 6824SOL    HW132197   7.111   4.905   1.791  0.6646 -0.6474  0.6521
 6824SOL    HW232198   7.119   4.917   1.640 -1.6499  0.8910  0.6067
 6825SOL     OW32199   0.728  11.876   1.595 -0.5583  0.2716  0.1359
 6825SOL    HW132200   0.638  11.873   1.629  0.0178  1.1126  1.8232
 6825SOL    HW232201   0.722  11.929   1.516 -1.6258 -0.1117 -0.0612
 6826SOL     OW32202   8.666   3.019  10.426 -0.2642  0.0971  0.4246
 6826SOL    HW132203   8.618   2.955  10.479 -0.2652 -0.0654  0.2298
 6826SOL    HW232204   8.608   3.037  10.352 -0.4332  0.6235  0.6793
 6827SOL     OW32205   8.093  12.803  11.813  0.1538 -0.0697 -0.2087
 6827SOL    HW132206   8.022  12.774  11.756  1.2500 -1.6657 -0.8504
 6827SOL    HW232207   8.091  12.743  11.887  1.2867 -0.6269 -0.6096
 6828SOL     OW32208  11.407  10.887  10.703  0.0367  0.0669  0.2832
 6828SOL    HW132209  11.501  10.870  10.704 -0.3162 -2.0583  1.0362
 6828SOL    HW232210  11.376  10.847  10.622 -0.6510 -2.2005  1.5833
 6829SOL     OW32211   8.035   2.544  11.251 -0.2687  0.0263  0.2389
 6829SOL    HW132212   8.027   2.484  11.176 -0.5250  0.8249 -0.3876
 6829SOL    HW232213   8.087   2.617  11.217  0.9808 -0.3176  1.2992
 6830SOL     OW32214  11.835   0.570  13.678 -0.8406 -0.1976 -0.4056
 6830SOL    HW132215  11.924   0.571  13.712 -0.7513  1.9096 -0.5749
 6830SOL    HW232216  11.782   0.536  13.750 -0.2710  1.4608  0.8690
 6831SOL     OW32217  11.381   6.225  12.975 -0.2602  0.3313 -0.2565
 6831SOL    HW132218  11.310   6.223  13.038 -1.1260  1.1565 -1.1796
 6831SOL    HW232219  11.441   6.156  13.004 -1.5358 -0.5289  0.4013
 6832SOL     OW32220   4.503  10.677  12.682  0.2178  0.4342 -0.1173
 6832SOL    HW132221   4.535  10.713  12.765  0.2582 -1.2119  0.6073
 6832SOL    HW232222   4.555  10.722  12.615  1.6403  0.3005  0.8583
 6833SOL     OW32223   5.075   5.338  12.914 -0.2564 -0.6915 -0.7420
 6833SOL    HW132224   5.025   5.261  12.939  0.3831 -1.1160 -0.7383
 6833SOL    HW232225   5.040   5.409  12.969  1.1920 -1.6162  1.5185
 6834SOL     OW32226  12.130  12.459   5.555 -0.0186 -0.6682  0.1155
 6834SOL    HW132227  12.128  12.459   5.651  1.6325 -0.4052  0.1741
 6834SOL    HW232228  12.192  12.529   5.532  1.7596 -2.5355 -1.0649
 6835SOL     OW32229   0.235  12.595   8.742  0.1953 -0.0107  0.6233
 6835SOL    HW132230   0.260  12.535   8.812  1.0681  1.4570  1.6177
 6835SOL    HW232231   0.288  12.569   8.667  0.0461 -0.9040  0.8177
 6836SOL     OW32232  13.653   0.818   8.796 -0.0324 -0.2451 -0.6262
 6836SOL    HW132233  13.592   0.745   8.810  0.1872 -0.3421 -0.1473
 6836SOL    HW232234  13.689   0.803   8.709 -0.1398 -0.6004 -0.6111
 6837SOL     OW32235   5.637   8.658  12.228  0.3440 -0.5297  0.1672
 6837SOL    HW132236   5.723   8.634  12.193  0.2476 -1.7018  0.7078
 6837SOL    HW232237   5.632   8.753  12.215  1.3709 -0.5664 -0.6268
 6838SOL     OW32238  11.274   4.458   6.950 -0.4862  0.3917 -0.5634
 6838SOL    HW132239  11.324   4.377   6.954 -0.4578  0.3716 -1.1830
 6838SOL    HW232240  11.226   4.452   6.867 -1.7384  0.2807  0.1535
 6839SOL     OW32241  12.319   5.636   9.516  0.1251 -0.0474  0.2578
 6839SOL    HW132242  12.258   5.570   9.483 -1.8922  0.9885  1.7091
 6839SOL    HW232243  12.270   5.718   9.510  2.8687  1.5976 -2.3465
 6840SOL     OW32244   2.392   9.372   3.244  0.4481 -0.1944 -0.5173
 6840SOL    HW132245   2.309   9.377   3.196 -1.6414 -4.9443  1.9121
 6840SOL    HW232246   2.373   9.414   3.328 -0.0252 -2.2563  0.4693
 6841SOL     OW32247   4.963  11.132   3.379  0.4472 -0.5289 -0.4473
 6841SOL    HW132248   5.043  11.119   3.431  1.6400  3.2411 -1.0280
 6841SOL    HW232249   4.892  11.108   3.438  1.8340  0.9784  2.0096
 6842SOL     OW32250   9.034  12.480   8.909 -0.7542 -0.2005 -0.0515
 6842SOL    HW132251   8.953  12.431   8.923 -1.1203  1.0297  2.9563
 6842SOL    HW232252   9.083  12.469   8.991  1.1541  0.8705 -0.9665
 6843SOL     OW32253  11.410   2.977   3.742 -0.5189  0.4426 -0.5805
 6843SOL    HW132254  11.406   2.884   3.718  0.5023 -0.1253  1.2226
 6843SOL    HW232255  11.498   2.989   3.778 -1.5422  1.3681  1.8807
 6844SOL     OW32256   6.910   9.697   3.968 -0.3999 -0.1246 -0.5354
 6844SOL    HW132257   6.933   9.752   3.893  2.2529  1.5827  1.3525
 6844SOL    HW232258   6.871   9.757   4.031  0.2269 -0.8881  0.6120
 6845SOL     OW32259   8.752   1.867   8.142 -0.0380  0.3338 -0.1520
 6845SOL    HW132260   8.751   1.904   8.230  0.9351  0.3906 -0.1566
 6845SOL    HW232261   8.794   1.934   8.088  0.3211 -0.1226 -0.4518
 6846SOL     OW32262  12.757  12.871   3.099  0.4489  0.0270  0.0677
 6846SOL    HW132263  12.820  12.894   3.167  1.3031 -0.7193 -0.4388
 6846SOL    HW232264  12.795  12.908   3.019  0.3742 -0.6577 -0.2849
 6847SOL     OW32265   4.497   4.297   8.634 -0.1692 -1.0112  0.3411
 6847SOL    HW132266   4.476   4.250   8.715  1.1394 -0.5501  0.9766
 6847SOL    HW232267   4.497   4.389   8.660 -0.3050 -0.8224 -0.3280
 6848SOL     OW32268   4.724   8.775   4.580 -0.2915  0.0141  0.0228
 6848SOL    HW132269   4.746   8.741   4.666  0.5445  3.9255  1.5378
 6848SOL    HW232270   4.807   8.805   4.544 -1.2842  4.4658  0.8735
 6849SOL     OW32271   9.948   5.877  10.099 -0.1839 -0.7626 -0.0556
 6849SOL    HW132272   9.938   5.874  10.004 -0.5505 -1.5323 -0.0045
 6849SOL    HW232273   9.987   5.962  10.117  1.3920 -1.2276 -1.0397
 6850SOL     OW32274   9.409   6.770   5.028 -1.1968 -0.0715  0.3250
 6850SOL    HW132275   9.373   6.706   5.090  1.8071 -1.7619  0.5480
 6850SOL    HW232276   9.356   6.759   4.949 -2.9304 -0.3434  1.4674
 6851SOL     OW32277   8.504   9.710   9.528  0.1177  0.0444  0.5835
 6851SOL    HW132278   8.437   9.651   9.495  1.3588 -0.9679 -0.2502
 6851SOL    HW232279   8.534   9.758   9.450 -0.0695  0.9530  1.0540
 6852SOL     OW32280  11.368   1.563   0.097 -0.3617 -0.6264  0.4914
 6852SOL    HW132281  11.299   1.525   0.044 -1.8651  2.3348  0.0996
 6852SOL    HW232282  11.329   1.574   0.184 -0.8113  1.8274  0.0615
 6853SOL     OW32283   5.103   5.707  10.119  0.2040  0.4675  0.4828
 6853SOL    HW132284   5.126   5.716  10.212  0.1483 -0.6507  0.6192
 6853SOL    HW232285   5.008   5.701  10.118  0.2176  0.2385  0.3857
 6854SOL     OW32286   1.874   1.961   1.729 -0.2913 -0.3950 -0.1418
 6854SOL    HW132287   1.833   1.942   1.644 -0.4602  1.8777 -0.6448
 6854SOL    HW232288   1.821   2.033   1.764  0.5638 -0.4503  1.3105
 6855SOL     OW32289  10.767  10.154   7.323  0.0050 -0.1320  0.1203
 6855SOL    HW132290  10.791  10.097   7.396  0.7178 -0.9609 -0.7353
 6855SOL    HW232291  10.689  10.114   7.285  1.4091 -1.4909 -1.4575
 6856SOL     OW32292  13.147   6.444   4.812  0.0558  0.0811 -0.5174
 6856SOL    HW132293  13.084   6.373   4.808 -0.9778  0.9411  0.0975
 6856SOL    HW232294  13.229   6.402   4.839 -0.3935 -0.9450 -0.7125
 6857SOL     OW32295   8.738   5.055   4.089 -0.2304  0.3570  0.0261
 6857SOL    HW132296   8.704   4.970   4.062 -1.8266  0.3861  1.7801
 6857SOL    HW232297   8.751   5.103   4.007  2.0764 -1.9924 -1.1375
 6858SOL     OW32298  12.902   2.806   8.836  0.1350 -0.4021  0.3306
 6858SOL    HW132299  12.967   2.753   8.883  0.3025 -1.0202 -0.5876
 6858SOL    HW232300  12.942   2.892   8.829  0.6961 -0.6820  0.0934
 6859SOL     OW32301   1.844  12.935  13.467 -0.1704  0.7331  0.0004
 6859SOL    HW132302   1.829  12.859  13.411 -1.5260  0.8424  0.1817
 6859SOL    HW232303   1.838  13.010  13.408 -0.5287  0.7898  0.1078
 6860SOL     OW32304  13.274   7.866   1.079 -0.7487 -0.6103 -0.8335
 6860SOL    HW132305  13.329   7.803   1.126 -0.3927  0.6212  0.4739
 6860SOL    HW232306  13.237   7.816   1.006  0.1986 -2.0936 -0.3428
 6861SOL     OW32307   7.342  10.388  13.401 -0.3217 -0.3153  0.3028
 6861SOL    HW132308   7.356  10.472  13.446  0.2222 -0.8519  1.1683
 6861SOL    HW232309   7.309  10.330  13.470 -0.1362 -0.9732 -0.1556
 6862SOL     OW32310  12.750   1.175   6.779 -0.2917  0.0308 -0.4222
 6862SOL    HW132311  12.725   1.190   6.871  0.0087  2.9308 -0.7176
 6862SOL    HW232312  12.667   1.176   6.731 -0.5851 -2.7107 -0.1713
 6863SOL     OW32313   4.689   9.705   7.614  0.3711  0.1136 -0.3413
 6863SOL    HW132314   4.596   9.702   7.593  0.6381  0.7988 -1.6395
 6863SOL    HW232315   4.734   9.706   7.530  1.5534  0.1887  0.2612
 6864SOL     OW32316   6.428  11.884  10.694  0.2856  0.0254  0.2833
 6864SOL    HW132317   6.374  11.909  10.769  0.7506 -1.9651  1.3577
 6864SOL    HW232318   6.513  11.926  10.710  0.4959 -0.6632  1.1190
 6865SOL     OW32319   1.198  13.116   3.819  0.0430  0.0528  0.3108
 6865SOL    HW132320   1.204  13.045   3.883 -0.7286 -0.9491 -0.6784
 6865SOL    HW232321   1.104  13.134   3.812  0.0351 -0.3363 -1.0027
 6866SOL     OW32322  13.355  12.597   5.643 -0.3195 -0.4607 -0.0803
 6866SOL    HW132323  13.329  12.565   5.729 -0.7491 -1.8423 -0.7037
 6866SOL    HW232324  13.273  12.608   5.595 -0.0835  0.2828 -0.3406
 6867SOL     OW32325   9.477  10.582   4.691  0.6046  0.2293 -0.2558
 6867SOL    HW132326   9.500  10.620   4.607 -2.6050  1.5289 -0.6679
 6867SOL    HW232327   9.391  10.542   4.677  0.6315 -0.8289  2.0568
 6868SOL     OW32328   9.095  13.497   1.244 -0.0830  0.3002 -0.0513
 6868SOL    HW132329   9.148  13.462   1.173 -0.8276 -0.5065 -0.2336
 6868SOL    HW232330   9.074  13.421   1.298 -1.2433  0.5493 -0.1242
 6869SOL     OW32331   6.379   5.187  10.499  0.1652 -0.5119 -0.1655
 6869SOL    HW132332   6.407   5.164  10.587  0.5353 -0.1034 -0.1769
 6869SOL    HW232333   6.305   5.128  10.482 -0.1066 -0.3842  0.5309
 6870SOL     OW32334  12.703   0.326   2.463  0.0899  0.0858  0.7531
 6870SOL    HW132335  12.724   0.409   2.505 -0.6470  0.5282  0.2773
 6870SOL    HW232336  12.627   0.346   2.408  0.7398 -0.5947 -0.4130
 6871SOL     OW32337   5.681   1.659   0.365  0.3171 -0.2221  0.7000
 6871SOL    HW132338   5.662   1.665   0.459  2.1498  2.5695  1.0000
 6871SOL    HW232339   5.639   1.736   0.327  1.0492 -0.3706 -0.4625
 6872SOL     OW32340   9.620  12.834  12.101  0.4326 -0.2381 -0.2947
 6872SOL    HW132341   9.662  12.814  12.184  0.2854  0.0985 -0.1369
 6872SOL    HW232342   9.611  12.930  12.101 -4.4918 -0.4156  1.7618
 6873SOL     OW32343  10.510   6.732   4.880  0.1510  0.7112 -0.1224
 6873SOL    HW132344  10.550   6.744   4.966 -0.0685  1.2492 -0.0920
 6873SOL    HW232345  10.432   6.680   4.896  1.4283 -1.3881 -0.3301
 6874SOL     OW32346  13.351   4.315   3.805  0.2267 -0.2714  0.7024
 6874SOL    HW132347  13.334   4.299   3.898  3.2402  0.6224  1.4968
 6874SOL    HW232348  13.330   4.408   3.793 -1.0081 -0.5891  0.2174
 6875SOL     OW32349   9.760   0.046   9.334  0.2355  0.2888 -0.4707
 6875SOL    HW132350   9.802  -0.041   9.330  0.2411  0.2884 -0.4248
 6875SOL    HW232351   9.831   0.108   9.318  0.1784  0.2749 -0.7862
 6876SOL     OW32352   0.917  10.045   8.468 -0.3562  0.2540  0.7388
 6876SOL    HW132353   0.901  10.052   8.562 -0.2720  1.4327  0.6877
 6876SOL    HW232354   1.013  10.047   8.460 -0.3713  0.7272  0.6094
 6877SOL     OW32355   1.676  11.216   8.152 -0.7469  0.0904  0.3135
 6877SOL    HW132356   1.704  11.256   8.234 -0.3900 -0.6052  0.5352
 6877SOL    HW232357   1.757  11.202   8.103 -0.7515 -1.2573  0.6502
 6878SOL     OW32358   5.407   1.602   9.976  0.2838  0.5490  0.2675
 6878SOL    HW132359   5.502   1.609   9.987  0.6162 -1.1278 -1.1449
 6878SOL    HW232360   5.381   1.533  10.038  0.3862 -0.6744 -1.0114
 6879SOL     OW32361   5.834   6.624   9.813  0.0919 -0.0532 -0.7555
 6879SOL    HW132362   5.742   6.648   9.820 -0.5108 -2.4385  4.6622
 6879SOL    HW232363   5.879   6.686   9.870  1.0998 -1.4255  0.0111
 6880SOL     OW32364   5.449  12.860  13.501  0.1105 -0.3274  0.1438
 6880SOL    HW132365   5.520  12.814  13.545  0.3483  0.4475  0.5806
 6880SOL    HW232366   5.493  12.929  13.451 -0.2809 -0.2881 -0.1519
 6881SOL     OW32367   3.530  11.819   2.326 -0.7680  0.2793 -0.2134
 6881SOL    HW132368   3.577  11.903   2.320 -2.9928  1.5384 -1.6218
 6881SOL    HW232369   3.550  11.775   2.243  0.0806 -0.4352  0.3593
 6882SOL     OW32370  11.585   3.601  10.195  0.0051 -0.0694  0.0457
 6882SOL    HW132371  11.517   3.538  10.171 -0.0115  0.1058 -0.3833
 6882SOL    HW232372  11.602   3.585  10.287  0.6816 -1.3527 -0.2910
 6883SOL     OW32373   0.175   6.505   4.852 -0.0150  0.7216 -0.2773
 6883SOL    HW132374   0.185   6.600   4.861 -0.6742  0.7739 -0.0969
 6883SOL    HW232375   0.100   6.483   4.907  2.1769 -0.3764  2.5264
 6884SOL     OW32376   7.734   1.043   2.664  0.4420  0.2415  0.3910
 6884SOL    HW132377   7.770   1.131   2.656  1.8984 -0.3567  0.0700
 6884SOL    HW232378   7.738   1.023   2.757  3.0817 -0.6273  0.1752
 6885SOL     OW32379   6.380   0.745   8.640 -0.3957 -0.8378  0.5517
 6885SOL    HW132380   6.385   0.759   8.545  0.5059 -0.2201  0.6826
 6885SOL    HW232381   6.470   0.759   8.671 -0.4120 -2.2627  1.3391
 6886SOL     OW32382   2.312  12.094   1.827  0.2271 -0.1871  0.3785
 6886SOL    HW132383   2.360  12.048   1.757  1.4856  0.8437  0.5238
 6886SOL    HW232384   2.346  12.055   1.907  0.2462  0.0038  0.4627
 6887SOL     OW32385   8.689   2.581   5.551 -0.4404  0.5449  0.0308
 6887SOL    HW132386   8.700   2.565   5.457  0.2348 -0.5029  0.2659
 6887SOL    HW232387   8.700   2.494   5.591 -0.9898  0.9335  1.0548
 6888SOL     OW32388   8.282   3.919   7.134  0.2002  0.0081  0.3012
 6888SOL    HW132389   8.245   4.003   7.107  0.3375 -0.4599 -1.4281
 6888SOL    HW232390   8.318   3.881   7.054 -0.0048 -1.7879  1.0084
 6889SOL     OW32391  11.505  12.722  10.697 -0.0731 -0.0324 -0.1821
 6889SOL    HW132392  11.587  12.770  10.710  2.2645 -3.5799 -0.4288
 6889SOL    HW232393  11.485  12.687  10.784 -0.4264 -0.4764 -0.4451
 6890SOL     OW32394   0.977   6.258   0.635 -0.0583 -0.2101  0.3527
 6890SOL    HW132395   0.928   6.188   0.677  0.3518 -1.2511 -0.8454
 6890SOL    HW232396   1.058   6.264   0.685  0.0902 -0.8936  0.2043
 6891SOL     OW32397   1.177   5.278   4.119 -0.2716 -0.2054 -0.3627
 6891SOL    HW132398   1.162   5.368   4.148 -0.3807 -0.6567  1.0865
 6891SOL    HW232399   1.239   5.286   4.046 -0.9432  1.0840 -0.8139
 6892SOL     OW32400   4.351  11.070   3.033  0.3368 -0.1124  0.3097
 6892SOL    HW132401   4.426  11.047   2.978  0.9502 -1.1044  1.5228
 6892SOL    HW232402   4.275  11.058   2.976  1.0089 -0.3186 -0.5652
 6893SOL     OW32403   8.066   2.361  13.646 -0.2862 -0.3276 -0.1426
 6893SOL    HW132404   8.011   2.439  13.648 -0.8217 -0.7027  0.0399
 6893SOL    HW232405   8.122   2.369  13.724  1.3931  1.0813 -1.4233
 6894SOL     OW32406   4.527   4.688  10.525  0.2426  0.4302  0.2148
 6894SOL    HW132407   4.535   4.707  10.431 -0.9575 -0.5631 -0.1246
 6894SOL    HW232408   4.534   4.592  10.530  2.5503  0.5988  1.4342
 6895SOL     OW32409   4.968   5.164  10.576 -0.2805 -0.5296  0.0895
 6895SOL    HW132410   4.933   5.251  10.558  0.4094  0.2757  2.3333
 6895SOL    HW232411   5.059   5.168  10.548 -0.3202 -0.6189 -0.0539
 6896SOL     OW32412   7.213  11.992  11.456 -0.0563  0.0520 -0.9185
 6896SOL    HW132413   7.146  12.030  11.399 -1.6553  0.9375  1.4042
 6896SOL    HW232414   7.173  11.913  11.491  0.7678 -0.2930 -0.7157
 6897SOL     OW32415  10.699  11.599  13.254 -0.2923  0.3136 -0.2245
 6897SOL    HW132416  10.666  11.683  13.286 -0.7649  0.0450  0.0066
 6897SOL    HW232417  10.777  11.582  13.307 -0.1917  0.6093 -0.2777
 6898SOL     OW32418   4.240   4.599  13.569  0.5688  0.1178  0.6410
 6898SOL    HW132419   4.218   4.620  13.660  0.0078  1.1543  0.2773
 6898SOL    HW232420   4.178   4.530  13.544  0.3468  0.2332  0.8706
 6899SOL     OW32421   7.351  11.107   3.348  0.1358  0.3320 -0.1662
 6899SOL    HW132422   7.440  11.127   3.320 -0.4594  0.6115 -1.9273
 6899SOL    HW232423   7.294  11.144   3.280 -1.3788  0.8529  1.2953
 6900SOL     OW32424  12.932  12.020   4.650 -0.2302  0.0786  0.4360
 6900SOL    HW132425  13.021  12.055   4.650 -0.0999 -0.2175  1.9067
 6900SOL    HW232426  12.942  11.930   4.620 -0.0476  0.0691  0.5252
 6901SOL     OW32427   2.986   3.261   1.188  0.0672  0.2521  0.1197
 6901SOL    HW132428   3.045   3.333   1.170 -0.1537 -0.0609 -2.1015
 6901SOL    HW232429   2.904   3.303   1.215  0.7189  0.7249  1.4268
 6902SOL     OW32430   9.649   1.936  10.083 -0.1279  0.1462 -0.7176
 6902SOL    HW132431   9.587   2.002  10.055 -2.7161 -2.7836 -2.5573
 6902SOL    HW232432   9.608   1.896  10.161  0.1342 -0.8554 -1.0756
 6903SOL     OW32433  10.823   9.990  13.392 -0.0776  0.0646  0.5332
 6903SOL    HW132434  10.743   9.942  13.413 -0.3108 -1.4115 -3.0303
 6903SOL    HW232435  10.893   9.926  13.401 -0.0099 -0.1706 -1.3310
 6904SOL     OW32436  11.226   3.989   8.849  0.3899  0.0917 -0.3194
 6904SOL    HW132437  11.266   3.903   8.863 -0.6684 -0.3450  0.1027
 6904SOL    HW232438  11.165   3.976   8.777 -0.5585  0.2092  0.4380
 6905SOL     OW32439  13.257   2.798  10.677 -0.0888  0.2814 -0.2981
 6905SOL    HW132440  13.191   2.782  10.745  0.6192 -0.0443  0.3294
 6905SOL    HW232441  13.240   2.732  10.611  0.2161 -0.4324  0.3261
 6906SOL     OW32442   6.721  13.169   8.387 -0.3323 -0.2277  0.4785
 6906SOL    HW132443   6.742  13.200   8.475  1.9635 -0.0467 -0.0774
 6906SOL    HW232444   6.703  13.076   8.398  2.5206 -0.8269  0.8614
 6907SOL     OW32445  10.567   1.934   1.331  0.9474 -0.0561 -0.9000
 6907SOL    HW132446  10.475   1.913   1.312  1.2177 -0.6793 -1.5997
 6907SOL    HW232447  10.563   2.004   1.396 -0.0227 -0.1756 -0.8126
 6908SOL     OW32448   4.687   0.799   5.696 -0.7728  1.0951  0.3142
 6908SOL    HW132449   4.672   0.761   5.609  0.8735 -1.9676  1.2201
 6908SOL    HW232450   4.775   0.835   5.692  0.7436 -2.1411  1.5364
 6909SOL     OW32451   2.720  10.053   2.579  0.4499 -0.1827 -0.3543
 6909SOL    HW132452   2.668   9.977   2.605  0.4013  0.3378  1.1727
 6909SOL    HW232453   2.785  10.062   2.649  1.3519  0.3498 -1.2370
 6910SOL     OW32454   9.923   4.678   5.643 -0.1808  0.0770 -0.1362
 6910SOL    HW132455   9.997   4.617   5.646  0.9038  1.3442 -0.1680
 6910SOL    HW232456   9.923   4.711   5.553 -0.4587  0.4670  0.0058
 6911SOL     OW32457  13.117   2.303   6.725 -0.0427  0.2230 -0.4058
 6911SOL    HW132458  13.026   2.317   6.751  0.3057  0.2817  0.8606
 6911SOL    HW232459  13.142   2.222   6.769  0.8322  0.7906  0.1794
 6912SOL     OW32460   2.000   5.209  10.015 -0.1592 -0.1303 -0.0003
 6912SOL    HW132461   2.016   5.115  10.010 -0.6540 -0.1859 -0.7399
 6912SOL    HW232462   2.066   5.248   9.958  0.3737  0.0173  0.7077
 6913SOL     OW32463   5.583   3.388   4.173  0.2668 -0.0279 -0.4173
 6913SOL    HW132464   5.515   3.374   4.107 -0.1302  1.2582 -0.3132
 6913SOL    HW232465   5.556   3.333   4.246 -0.8889  0.7434 -0.2333
 6914SOL     OW32466   4.599  13.337   7.114 -0.2287  0.4909 -0.1531
 6914SOL    HW132467   4.638  13.425   7.113  1.4284 -0.1840 -2.0456
 6914SOL    HW232468   4.674  13.278   7.120 -1.1932 -0.8225 -0.6972
 6915SOL     OW32469   1.784  11.382  13.724 -0.3426 -0.2487 -0.3468
 6915SOL    HW132470   1.848  11.452  13.723 -0.2609 -0.3039  0.3545
 6915SOL    HW232471   1.704  11.421  13.687  0.4694 -0.5849 -2.6043
 6916SOL     OW32472   3.658  13.227   0.754  0.4628  0.1956  0.0913
 6916SOL    HW132473   3.639  13.235   0.660 -1.2012  0.8047  0.4474
 6916SOL    HW232474   3.668  13.133   0.769 -1.9208 -0.1849 -0.2667
 6917SOL     OW32475   6.375  12.960   6.665 -0.3990 -0.5217  0.9789
 6917SOL    HW132476   6.428  12.895   6.712 -0.3275 -0.8726  0.4253
 6917SOL    HW232477   6.327  12.909   6.600  0.5547  0.1016 -0.2715
 6918SOL     OW32478   5.318   1.627   4.187  0.3962 -0.1253  0.0263
 6918SOL    HW132479   5.292   1.602   4.276 -0.9336  1.3230  0.0772
 6918SOL    HW232480   5.261   1.574   4.130  1.2946 -1.1027  0.0107
 6919SOL     OW32481  10.882   5.317  10.285 -0.6430  0.1380  0.2087
 6919SOL    HW132482  10.969   5.331  10.323 -0.7627  0.0634  0.5142
 6919SOL    HW232483  10.895   5.250  10.218 -0.6289 -0.5396  0.8825
 6920SOL     OW32484   8.692   9.232   5.566  0.0936 -0.2456 -0.9111
 6920SOL    HW132485   8.603   9.262   5.583 -0.5626 -1.4143 -2.1164
 6920SOL    HW232486   8.724   9.288   5.495 -0.2705 -0.8013 -1.5326
 6921SOL     OW32487   4.652  13.108   9.169  0.1638 -0.1057 -0.0728
 6921SOL    HW132488   4.679  13.058   9.246 -1.2415 -0.3501  0.2948
 6921SOL    HW232489   4.616  13.042   9.109  1.7291  0.0088 -1.1987
 6922SOL     OW32490  11.375  10.190  11.773 -0.1357  0.0880 -0.7357
 6922SOL    HW132491  11.354  10.271  11.818  0.3025 -0.6901  0.9249
 6922SOL    HW232492  11.450  10.212  11.718 -0.0680  0.8150 -0.3562
 6923SOL     OW32493  10.949   4.167   8.767 -0.2011  0.0848 -0.6284
 6923SOL    HW132494  11.027   4.211   8.735  0.2616 -0.4388 -0.2409
 6923SOL    HW232495  10.965   4.074   8.749 -0.1235 -0.1728  0.7160
 6924SOL     OW32496  11.373   1.985   5.306 -0.1800 -0.2028 -0.0614
 6924SOL    HW132497  11.459   2.016   5.279  0.1692 -1.3440 -0.3361
 6924SOL    HW232498  11.391   1.904   5.354 -1.2025 -1.9201 -2.3802
 6925SOL     OW32499   7.640  13.456   3.832 -0.4023 -0.4067 -0.3425
 6925SOL    HW132500   7.604  13.450   3.920  3.4599 -0.4026  1.4290
 6925SOL    HW232501   7.685  13.540   3.829  0.7141 -0.9860 -1.7805
 6926SOL     OW32502   1.343  11.970   9.471  0.3424 -0.2428  0.5261
 6926SOL    HW132503   1.282  11.949   9.541  0.6201  0.0383  0.8525
 6926SOL    HW232504   1.323  12.061   9.449 -1.4105 -1.0135 -1.4307
 6927SOL     OW32505  10.903   5.097   3.952 -0.4211  0.5952 -0.0041
 6927SOL    HW132506  10.955   5.176   3.938  1.1511 -0.2545  0.7095
 6927SOL    HW232507  10.933   5.064   4.037 -1.9071 -0.1369  0.2647
 6928SOL     OW32508   3.027   4.273  13.506  0.4101  0.2925 -0.2441
 6928SOL    HW132509   2.954   4.309  13.556  1.3160 -0.1181  1.4440
 6928SOL    HW232510   2.996   4.272  13.416 -0.6392  2.7515  0.0058
 6929SOL     OW32511  12.803   0.746  13.495  0.6108 -0.0190  0.2608
 6929SOL    HW132512  12.759   0.816  13.446  1.6694  0.0163 -0.6894
 6929SOL    HW232513  12.740   0.721  13.563 -0.1500  1.2242  0.0494
 6930SOL     OW32514   6.260   8.404  11.666  0.1327  0.0228 -0.0371
 6930SOL    HW132515   6.310   8.395  11.585 -1.3634  0.4024 -1.0454
 6930SOL    HW232516   6.192   8.469  11.646 -0.7923 -0.4890  1.2507
 6931SOL     OW32517   8.696  11.627   0.220 -0.0348  0.0253  0.4396
 6931SOL    HW132518   8.723  11.600   0.307 -0.1701 -0.5131  0.3200
 6931SOL    HW232519   8.778  11.642   0.172  0.0393  0.5551  0.7216
 6932SOL     OW32520   9.048   2.817   3.480  0.0024 -0.1473  0.4137
 6932SOL    HW132521   8.996   2.851   3.553  1.4616  1.8856  0.5799
 6932SOL    HW232522   9.042   2.884   3.413  3.3080  0.7753  0.8884
 6933SOL     OW32523  10.598   3.659   3.578  0.5199 -0.6004 -0.2740
 6933SOL    HW132524  10.590   3.625   3.667  0.8928 -0.0696 -0.0331
 6933SOL    HW232525  10.552   3.595   3.523 -1.3695  0.0068  0.4986
 6934SOL     OW32526  10.249   0.606   4.664  0.1090  0.1367 -0.8034
 6934SOL    HW132527  10.186   0.599   4.593 -0.5186  0.0009 -0.2461
 6934SOL    HW232528  10.222   0.686   4.711  0.7080  0.3993 -0.9032
 6935SOL     OW32529  11.054   1.291  13.242 -0.5064 -0.3531  0.7578
 6935SOL    HW132530  11.138   1.251  13.217 -0.4391  0.0347  0.3622
 6935SOL    HW232531  11.032   1.349  13.170 -0.1802  0.9957  1.7087
 6936SOL     OW32532  12.731   4.208   4.812  0.1883  0.5122  0.6913
 6936SOL    HW132533  12.732   4.277   4.877 -0.4860  1.3926 -0.1965
 6936SOL    HW232534  12.812   4.220   4.762 -0.9225  2.1222 -0.8754
 6937SOL     OW32535   1.180   3.890  11.840  0.1962 -0.1224  0.3596
 6937SOL    HW132536   1.141   3.838  11.770 -0.8466 -0.1247  0.9181
 6937SOL    HW232537   1.232   3.828  11.891  1.2671 -0.0489 -0.6152
 6938SOL     OW32538   5.370   7.001   7.403  0.0818 -0.2200  0.0258
 6938SOL    HW132539   5.337   7.001   7.313 -0.5596  1.2313  0.2217
 6938SOL    HW232540   5.311   7.061   7.449  0.3758 -0.9775  1.4287
 6939SOL     OW32541   1.882   4.229  13.629  0.2321 -0.0430 -0.0446
 6939SOL    HW132542   1.907   4.200  13.541  0.0421  3.0183 -1.2237
 6939SOL    HW232543   1.939   4.304  13.647 -2.2225  1.7484  0.8152
 6940SOL     OW32544  10.716   5.662   5.424 -0.3414  0.1495  0.2775
 6940SOL    HW132545  10.631   5.651   5.381  0.4457 -1.2441 -1.0370
 6940SOL    HW232546  10.762   5.580   5.408  0.5195  0.0763  2.7336
 6941SOL     OW32547   8.783  10.793   8.327 -0.3090  0.1952  0.2595
 6941SOL    HW132548   8.763  10.763   8.416 -1.2722  0.8807  0.2890
 6941SOL    HW232549   8.809  10.885   8.338  0.7739 -0.0573 -0.0405
 6942SOL     OW32550   3.650   8.958   5.753  0.2603  1.0795  0.2868
 6942SOL    HW132551   3.593   8.906   5.810 -0.1730 -0.3118 -1.3086
 6942SOL    HW232552   3.737   8.921   5.767  0.0009  0.0584 -0.6162
 6943SOL     OW32553   3.342   8.590   1.819 -0.2267 -0.3698 -0.2521
 6943SOL    HW132554   3.377   8.658   1.877  1.0606 -1.6437  0.5311
 6943SOL    HW232555   3.252   8.578   1.848 -0.3259  0.6441 -0.0804
 6944SOL     OW32556   3.090   8.224   5.999  0.0236  0.3317  0.0725
 6944SOL    HW132557   3.082   8.295   6.063 -0.8051 -0.0894  0.4421
 6944SOL    HW232558   3.131   8.265   5.923 -0.1465  1.1255  0.4020
 6945SOL     OW32559   4.030   4.874  13.419 -0.5946  0.1109  0.3857
 6945SOL    HW132560   3.988   4.958  13.404  0.1627  0.3914 -0.2021
 6945SOL    HW232561   3.958   4.816  13.446 -1.4065  0.5062 -0.8276
 6946SOL     OW32562   1.672   1.567   5.674  0.3543 -0.3506  0.2124
 6946SOL    HW132563   1.706   1.484   5.642 -2.0967 -1.3540 -0.0611
 6946SOL    HW232564   1.646   1.614   5.594  1.4922  0.5993  0.3784
 6947SOL     OW32565   6.716   7.655   7.551 -0.8188  0.6432 -0.0491
 6947SOL    HW132566   6.806   7.647   7.521 -0.7993  0.6720  0.0033
 6947SOL    HW232567   6.690   7.566   7.575 -1.0228  0.5146 -0.6976
 6948SOL     OW32568  12.539   7.885   2.997  0.2863 -0.5338  0.3371
 6948SOL    HW132569  12.487   7.949   2.948  0.7345 -0.1058  0.4107
 6948SOL    HW232570  12.475   7.838   3.051 -0.1409 -0.6594 -0.2781
 6949SOL     OW32571   5.346  13.302  10.149 -0.5576  0.0257  0.2747
 6949SOL    HW132572   5.353  13.240  10.076 -0.3506 -0.6842  0.8826
 6949SOL    HW232573   5.430  13.294  10.195  0.4930  2.5814 -1.0302
 6950SOL     OW32574  10.809   7.014   5.115 -0.3029 -0.1306  0.1810
 6950SOL    HW132575  10.771   7.050   5.035 -0.8828  0.5973  0.7752
 6950SOL    HW232576  10.826   7.090   5.171 -2.6450 -0.7519  1.9364
 6951SOL     OW32577  10.520   0.478  13.627  0.3293  0.7775  0.1728
 6951SOL    HW132578  10.490   0.564  13.598  1.2115  0.7885 -0.7305
 6951SOL    HW232579  10.564   0.440  13.551  2.4700  0.7060  1.3654
 6952SOL     OW32580   9.629  11.848   8.366 -0.3262  0.1826 -0.0342
 6952SOL    HW132581   9.716  11.880   8.388 -0.4791  0.9503 -0.5052
 6952SOL    HW232582   9.599  11.803   8.445  0.4886 -0.0816  0.1302
 6953SOL     OW32583  11.324   6.361   9.556 -0.3709  0.3870 -0.3958
 6953SOL    HW132584  11.335   6.362   9.461 -3.0458 -2.2846 -0.8983
 6953SOL    HW232585  11.259   6.429   9.574 -0.5932  0.2316 -0.6131
 6954SOL     OW32586   3.302   4.402   4.398  0.9405 -0.3883 -0.0623
 6954SOL    HW132587   3.318   4.492   4.368 -0.6970 -0.0468 -0.0019
 6954SOL    HW232588   3.358   4.348   4.342  1.6981  0.6451 -0.3287
 6955SOL     OW32589   2.933  11.090   8.600  0.1100  0.2161 -0.0535
 6955SOL    HW132590   2.857  11.032   8.600  0.1354  0.0755  2.0196
 6955SOL    HW232591   3.006  11.033   8.579 -0.4001  0.5350 -3.0212
 6956SOL     OW32592   1.859   1.467  12.180  0.2969  0.1489  0.4359
 6956SOL    HW132593   1.864   1.470  12.085 -1.4052  0.3169  0.3312
 6956SOL    HW232594   1.792   1.532  12.203 -0.1582 -0.7155  1.6557
 6957SOL     OW32595   9.169   3.186  11.451  0.5899  0.1817 -0.0362
 6957SOL    HW132596   9.120   3.124  11.505  1.6734 -0.1321  0.6028
 6957SOL    HW232597   9.210   3.131  11.384 -0.3913  0.5183 -0.9478
 6958SOL     OW32598   5.038   2.216   1.645 -0.2382 -0.4299 -0.8455
 6958SOL    HW132599   5.125   2.207   1.606 -1.2079 -1.1509 -2.9865
 6958SOL    HW232600   5.028   2.311   1.656  1.0458 -0.3709  0.0435
 6959SOL     OW32601  11.918   4.971   0.226  0.1011  0.1893 -0.1039
 6959SOL    HW132602  11.977   5.014   0.288 -0.2695  1.5300 -0.6421
 6959SOL    HW232603  11.839   5.025   0.226 -0.1173 -0.1009 -1.3376
 6960SOL     OW32604  11.921  11.499   0.259  0.7157 -0.0390  0.2762
 6960SOL    HW132605  11.944  11.584   0.297 -1.4712  0.6680  0.1396
 6960SOL    HW232606  11.850  11.466   0.314  0.2354 -0.8772 -0.8075
 6961SOL     OW32607   9.129  11.396   2.532  0.3885  0.1871 -0.1126
 6961SOL    HW132608   9.051  11.375   2.583  0.3506 -0.2067 -0.3325
 6961SOL    HW232609   9.202  11.384   2.592  0.2151  1.7834  0.4822
 6962SOL     OW32610   1.311   2.657  13.503  0.3892  0.5769 -0.6696
 6962SOL    HW132611   1.243   2.649  13.437  1.3760  1.6298 -1.8765
 6962SOL    HW232612   1.359   2.574  13.499 -0.9927 -0.3021  0.4275
 6963SOL     OW32613   7.176   8.261   8.979  0.0363 -0.3869 -0.2297
 6963SOL    HW132614   7.081   8.262   8.964  0.1345  3.2050 -1.5758
 6963SOL    HW232615   7.211   8.213   8.903 -0.5737  1.5626 -1.8196
 6964SOL     OW32616   8.886   6.138  13.600 -0.2289 -0.3096  0.0664
 6964SOL    HW132617   8.931   6.066  13.645 -0.5320 -1.8031 -1.8597
 6964SOL    HW232618   8.957   6.185  13.555 -0.0552  0.5331  1.1665
 6965SOL     OW32619   1.353   6.705   9.689 -0.1090  0.0183  0.4518
 6965SOL    HW132620   1.407   6.636   9.651  2.2218  1.7280  0.4532
 6965SOL    HW232621   1.416   6.766   9.727 -2.1444  1.3846  1.8054
 6966SOL     OW32622   4.086   5.072   3.587  0.5945 -0.0121 -0.0270
 6966SOL    HW132623   4.091   5.139   3.656  0.2943  0.2949 -0.2980
 6966SOL    HW232624   3.994   5.046   3.587  0.0229  1.7468 -1.9365
 6967SOL     OW32625   0.897   4.491   3.647  0.2956  0.2307  0.0264
 6967SOL    HW132626   0.954   4.416   3.637 -0.4817 -0.3180 -0.4019
 6967SOL    HW232627   0.867   4.512   3.558  0.7184  1.2220  0.1016
 6968SOL     OW32628  10.756   5.340   5.316 -0.2719  0.2514  0.6345
 6968SOL    HW132629  10.851   5.324   5.316 -0.1598  0.7390  2.2153
 6968SOL    HW232630  10.734   5.354   5.224  1.2026  0.1993  0.2488
 6969SOL     OW32631   4.269   7.283   6.240 -0.4570  0.0732  0.2226
 6969SOL    HW132632   4.300   7.316   6.156  1.6528 -1.3700  0.3762
 6969SOL    HW232633   4.269   7.188   6.231 -1.9107 -0.0731  1.3136
 6970SOL     OW32634   0.796  13.509  11.098  0.0693  0.6207  0.0770
 6970SOL    HW132635   0.751  13.590  11.075 -0.5757 -0.2847 -2.1986
 6970SOL    HW232636   0.729  13.454  11.139 -0.1923  0.3234 -0.7234
 6971SOL     OW32637   5.119   5.387  11.165 -0.3567 -0.0354 -0.3212
 6971SOL    HW132638   5.182   5.408  11.096  0.3969 -0.1068  0.3292
 6971SOL    HW232639   5.059   5.462  11.167  0.0972  0.3369 -0.5197
 6972SOL     OW32640  10.349   2.806   6.076  0.4133 -0.0102 -0.0957
 6972SOL    HW132641  10.307   2.880   6.032 -0.1716 -0.0557  0.3652
 6972SOL    HW232642  10.382   2.841   6.158  2.1762  0.2450 -0.8728
 6973SOL     OW32643   0.830   6.230   9.885 -0.0937 -0.3880 -0.5437
 6973SOL    HW132644   0.907   6.276   9.850  0.4311 -0.0925  0.9201
 6973SOL    HW232645   0.756   6.268   9.838  0.5100  0.5279 -0.7807
 6974SOL     OW32646   3.727  12.526   8.661 -0.2055  0.4962  0.5107
 6974SOL    HW132647   3.687  12.470   8.595 -1.2478  2.4066 -0.5788
 6974SOL    HW232648   3.667  12.523   8.735  1.0993 -1.8632  1.5734
 6975SOL     OW32649   2.972  11.758   9.182  0.4010  0.1111  0.4330
 6975SOL    HW132650   3.006  11.732   9.267  0.4550  1.1901  0.7551
 6975SOL    HW232651   2.886  11.796   9.200  1.5207  2.9005  0.4227
 6976SOL     OW32652  13.401   3.310   2.057  0.4087 -0.1558  0.1130
 6976SOL    HW132653  13.416   3.235   2.000 -1.6506 -0.3835 -0.1964
 6976SOL    HW232654  13.383   3.382   1.996 -1.7528 -0.3898  0.3957
 6977SOL     OW32655  10.745   9.357  12.104 -0.6489  0.6813  0.2164
 6977SOL    HW132656  10.757   9.273  12.150 -1.2093  1.5465  2.0540
 6977SOL    HW232657  10.825   9.368  12.053 -0.6191 -1.0265 -0.1649
 6978SOL     OW32658   6.459   0.348   2.813 -0.0750 -0.4089 -0.4965
 6978SOL    HW132659   6.479   0.269   2.863 -3.9596 -1.6501 -0.5294
 6978SOL    HW232660   6.473   0.322   2.722 -0.8517 -0.9474 -0.4743
 6979SOL     OW32661   9.377   7.319   4.574  0.4675  0.1698 -0.2809
 6979SOL    HW132662   9.363   7.273   4.492 -1.3049  0.2903 -0.0815
 6979SOL    HW232663   9.445   7.269   4.619 -0.4444 -1.4599 -0.6628
 6980SOL     OW32664  10.701   7.606   9.895  0.4085 -0.2230  0.8079
 6980SOL    HW132665  10.643   7.532   9.909  0.9387 -0.8007  0.0269
 6980SOL    HW232666  10.728   7.599   9.803  2.2702 -0.4072  1.3208
 6981SOL     OW32667   6.993   1.160  12.252  0.0270  0.0200  0.4746
 6981SOL    HW132668   7.067   1.209  12.217  0.2850  1.5882  2.9799
 6981SOL    HW232669   7.008   1.070  12.224  0.8460  0.8820 -2.1889
 6982SOL     OW32670   2.322   3.135   6.650 -0.4205  0.3729  0.0765
 6982SOL    HW132671   2.267   3.163   6.724  0.4525  0.6802  0.6306
 6982SOL    HW232672   2.268   3.153   6.573 -2.0881 -1.6222  0.6715
 6983SOL     OW32673   1.147   3.749  12.979  0.6372  0.5271 -0.7734
 6983SOL    HW132674   1.205   3.688  12.934 -0.2882 -1.0927  0.1249
 6983SOL    HW232675   1.201   3.785  13.050  0.2309 -2.1146  1.0125
 6984SOL     OW32676   5.196  11.861  13.160 -0.6480  0.2055  0.1934
 6984SOL    HW132677   5.101  11.852  13.148 -0.5657 -0.7937  0.1824
 6984SOL    HW232678   5.219  11.939  13.109 -1.3239 -0.1207 -0.6460
 6985SOL     OW32679   6.736  12.581   8.471  0.5832  0.1108  0.1254
 6985SOL    HW132680   6.757  12.490   8.489 -0.6789 -0.1306  0.4746
 6985SOL    HW232681   6.784  12.601   8.391  1.2247 -0.7226  0.2937
 6986SOL     OW32682  10.979   5.790  13.692 -0.3626 -0.2575  0.2243
 6986SOL    HW132683  10.912   5.758  13.752 -0.5485  1.3449  0.9100
 6986SOL    HW232684  10.980   5.884  13.705  0.6639 -0.0376 -1.2042
 6987SOL     OW32685   7.266   9.917   8.405  0.1642 -0.6368 -0.9247
 6987SOL    HW132686   7.216   9.982   8.456 -1.1290 -1.5606 -0.9720
 6987SOL    HW232687   7.328   9.969   8.354  0.7808  0.3999  0.7911
 6988SOL     OW32688   3.185   3.675  12.784 -0.1406 -0.0227  0.3101
 6988SOL    HW132689   3.141   3.760  12.782 -0.8972 -0.4066  0.1107
 6988SOL    HW232690   3.230   3.674  12.868 -1.6255 -0.1467  1.1420
 6989SOL     OW32691  10.129  11.978   7.181 -0.0760 -0.1067 -0.5554
 6989SOL    HW132692  10.084  12.038   7.241  0.5106 -1.2272  1.0907
 6989SOL    HW232693  10.128  12.023   7.097 -2.6973  0.6776 -0.2050
 6990SOL     OW32694   9.162   8.613   6.770  0.5913  0.1343  0.0630
 6990SOL    HW132695   9.126   8.556   6.702 -2.3466  2.0232 -0.1420
 6990SOL    HW232696   9.230   8.664   6.725  1.0666 -0.9919 -0.5335
 6991SOL     OW32697  12.734   9.548   5.280 -0.9187  0.3346  0.1316
 6991SOL    HW132698  12.737   9.625   5.338 -1.5898 -1.3942  2.6376
 6991SOL    HW232699  12.650   9.557   5.235 -1.8168  0.2744  1.6945
 6992SOL     OW32700   9.595   9.819   4.708  0.0623 -0.3311 -0.6801
 6992SOL    HW132701   9.635   9.906   4.709 -1.9200  0.6387  1.4290
 6992SOL    HW232702   9.656   9.764   4.758  0.1171  0.4634  0.1424
 6993SOL     OW32703   1.678   4.567   3.318 -0.1395  0.3155 -0.6575
 6993SOL    HW132704   1.676   4.474   3.341 -0.5988  0.0513 -1.6790
 6993SOL    HW232705   1.771   4.585   3.300 -0.0129  0.1196 -0.2094
 6994SOL     OW32706   1.471  12.159   5.959 -0.4551 -0.3845 -0.4295
 6994SOL    HW132707   1.448  12.239   5.912 -0.1083  0.3647  0.6351
 6994SOL    HW232708   1.441  12.088   5.902  0.3749  0.4633 -1.9763
 6995SOL     OW32709   2.938  13.428   0.913 -0.4281  0.1851 -0.4928
 6995SOL    HW132710   2.987  13.437   0.831  3.2964 -2.5325  1.1557
 6995SOL    HW232711   2.883  13.352   0.899 -0.9142  0.5954 -0.8881
 6996SOL     OW32712   6.255  10.474  11.520  0.4214  0.4497  0.1335
 6996SOL    HW132713   6.215  10.431  11.596 -0.9811 -0.2466 -0.9553
 6996SOL    HW232714   6.184  10.526  11.482  0.1214 -1.6358 -2.4491
 6997SOL     OW32715   3.133   3.948   8.980  0.5557  0.5076  0.3753
 6997SOL    HW132716   3.214   3.898   8.971 -0.0992 -0.4648 -0.3164
 6997SOL    HW232717   3.087   3.908   9.054 -0.3046 -0.4306 -0.6351
 6998SOL     OW32718   3.688  10.295   1.358 -0.1513  0.2501 -0.4084
 6998SOL    HW132719   3.708  10.274   1.449  1.0861 -1.5959 -1.0580
 6998SOL    HW232720   3.592  10.293   1.353 -0.1973 -1.0364  0.5525
 6999SOL     OW32721   5.068   1.237   8.024 -0.3209 -0.5533  0.3977
 6999SOL    HW132722   5.111   1.180   7.960  1.7628 -0.2199  1.4192
 6999SOL    HW232723   5.011   1.294   7.971 -0.2418 -1.6567 -0.9231
 7000SOL     OW32724  12.690   5.834  12.884  0.2888 -0.2379  0.1903
 7000SOL    HW132725  12.724   5.895  12.950  0.1728  1.5151 -1.3005
 7000SOL    HW232726  12.620   5.883  12.840  0.0770 -1.5174 -0.9659
 7001SOL     OW32727   7.488   0.034   0.377  0.0211 -0.2709  0.2208
 7001SOL    HW132728   7.540  -0.046   0.383  2.5482  1.3334  0.9205
 7001SOL    HW232729   7.510   0.084   0.455  0.3590  2.1576 -1.3072
 7002SOL     OW32730   5.122   0.782   7.394  0.9279  0.2740  0.1220
 7002SOL    HW132731   5.124   0.815   7.484 -2.3116 -0.0065  0.4245
 7002SOL    HW232732   5.121   0.861   7.340  1.4307  0.4814  0.4097
 7003SOL     OW32733   2.502   3.819   6.911  0.2234 -0.2643  0.0838
 7003SOL    HW132734   2.509   3.766   6.831  0.2590  0.3780 -0.3484
 7003SOL    HW232735   2.529   3.906   6.884 -2.3239  0.6306  0.1314
 7004SOL     OW32736   9.888  13.106   4.432 -0.3192 -0.4061 -0.1666
 7004SOL    HW132737   9.937  13.170   4.483 -2.1140  0.6585  0.3188
 7004SOL    HW232738   9.952  13.039   4.408  1.0958  0.3509  1.3613
 7005SOL     OW32739   0.025   8.859   1.915 -0.0077  0.4843 -0.2766
 7005SOL    HW132740   0.103   8.804   1.904  0.1006  0.4875  0.4026
 7005SOL    HW232741  -0.038   8.802   1.958 -0.6714  0.2465 -1.5211
 7006SOL     OW32742  13.127   3.044  13.474  0.0434 -0.1138  0.0821
 7006SOL    HW132743  13.136   2.953  13.448  1.9034  0.3884 -1.2495
 7006SOL    HW232744  13.210   3.064  13.517 -0.8746  0.6061  1.6122
 7007SOL     OW32745   6.754  10.225   5.877 -0.3127 -0.0030  0.0514
 7007SOL    HW132746   6.684  10.287   5.897  1.2165  1.7951  0.1480
 7007SOL    HW232747   6.782  10.249   5.788 -1.0258 -1.9261 -0.7270
 7008SOL     OW32748  12.640   3.528   4.375  0.0426  0.2948  0.0103
 7008SOL    HW132749  12.732   3.543   4.395  0.3077 -0.7922 -0.3548
 7008SOL    HW232750  12.626   3.570   4.291  0.6186 -0.8780 -0.6956
 7009SOL     OW32751   4.531  11.519   9.786 -0.0051  0.2818  0.2808
 7009SOL    HW132752   4.574  11.568   9.856 -1.4810  0.7868  0.8727
 7009SOL    HW232753   4.546  11.427   9.809  1.4692  0.4203 -0.0122
 7010SOL     OW32754   3.441  10.452   3.891  0.0631 -0.0682  0.4912
 7010SOL    HW132755   3.456  10.419   3.980  1.8392 -1.4264 -0.2454
 7010SOL    HW232756   3.436  10.547   3.901  0.3072 -0.1950  2.0473
 7011SOL     OW32757   8.979   8.040   2.625 -0.1118 -0.3557 -0.9271
 7011SOL    HW132758   8.912   8.101   2.594 -1.1079 -0.7009  0.3997
 7011SOL    HW232759   9.061   8.087   2.616 -0.7833  0.9424 -0.5683
 7012SOL     OW32760  13.746   6.020   1.952  0.5249 -0.5157 -0.1916
 7012SOL    HW132761  13.726   5.983   2.038  1.0454 -1.0598 -0.2963
 7012SOL    HW232762  13.662   6.016   1.904 -0.0510  0.8339  0.6393
 7013SOL     OW32763   5.765   9.651   5.195 -0.1464  0.3461 -0.3697
 7013SOL    HW132764   5.822   9.650   5.118  0.4883  1.1489  0.0800
 7013SOL    HW232765   5.702   9.721   5.178  0.0842  0.6213 -0.0942
 7014SOL     OW32766  10.062   7.219   3.618  0.1038  0.0441 -0.3883
 7014SOL    HW132767  10.022   7.235   3.533  1.0958  0.4838 -0.7884
 7014SOL    HW232768  10.138   7.163   3.598 -0.0714 -0.4574  0.3008
 7015SOL     OW32769  10.716   5.694  11.415  0.1906  0.5635 -0.0290
 7015SOL    HW132770  10.730   5.605  11.383  0.5495 -0.3865  2.5454
 7015SOL    HW232771  10.713   5.748  11.335 -0.4612 -1.7606 -1.6911
 7016SOL     OW32772   2.280   6.129   1.535 -0.1709 -1.0847 -0.0653
 7016SOL    HW132773   2.271   6.035   1.523 -0.5023 -1.1507  0.6172
 7016SOL    HW232774   2.198   6.165   1.501  0.1171 -1.0022 -0.6844
 7017SOL     OW32775   0.037  10.243   6.572  0.4778  0.0822  0.7690
 7017SOL    HW132776   0.044  10.185   6.647 -0.3205 -2.0792 -0.7223
 7017SOL    HW232777   0.034  10.184   6.496 -1.6586  1.9957 -0.7881
 7018SOL     OW32778  10.997  12.200   0.216 -0.4909 -0.1805  0.3082
 7018SOL    HW132779  10.930  12.158   0.162 -1.2504 -0.0162  1.0933
 7018SOL    HW232780  11.037  12.265   0.158 -0.6703 -0.6105 -0.3159
 7019SOL     OW32781   5.543   2.096   0.086 -0.1435  0.3514  0.3461
 7019SOL    HW132782   5.598   2.052   0.021 -0.0839  1.6893 -0.5506
 7019SOL    HW232783   5.455   2.063   0.069 -0.1403  0.7325 -0.4706
 7020SOL     OW32784   7.667   1.672   7.550  0.0829 -0.6712 -0.1626
 7020SOL    HW132785   7.618   1.730   7.492 -0.0372 -1.6612 -1.0818
 7020SOL    HW232786   7.603   1.606   7.577  0.5159 -1.0802 -0.1260
 7021SOL     OW32787   2.992   0.001   0.454  0.3714 -0.0301  0.3824
 7021SOL    HW132788   2.928   0.058   0.410  1.0920 -0.1520 -0.8748
 7021SOL    HW232789   3.074   0.049   0.451  1.3586 -1.6416 -2.0364
 7022SOL     OW32790   1.504  10.346   0.297  0.6923  0.0676 -0.8779
 7022SOL    HW132791   1.524  10.259   0.261 -0.6969 -0.6180 -0.0994
 7022SOL    HW232792   1.505  10.404   0.222  1.7110 -0.6117 -1.4060
 7023SOL     OW32793  10.814   7.878  12.812  0.6702 -0.4678 -0.0701
 7023SOL    HW132794  10.773   7.840  12.889  0.5096 -0.2888 -0.0648
 7023SOL    HW232795  10.749   7.868  12.742  0.0344  1.0570  0.2622
 7024SOL     OW32796   1.684   4.817   2.141 -0.2288  0.1272  0.3409
 7024SOL    HW132797   1.731   4.832   2.060 -0.4323 -0.6472  0.0652
 7024SOL    HW232798   1.593   4.839   2.121 -0.5245 -1.3407 -0.0610
 7025SOL     OW32799   0.977   8.738   4.259  0.1471 -0.2672  0.1962
 7025SOL    HW132800   0.897   8.774   4.296 -0.1878 -0.3511 -0.4349
 7025SOL    HW232801   0.948   8.679   4.190  0.7335 -0.7809  0.3758
 7026SOL     OW32802   8.014  13.482   7.629 -0.2155 -0.5268 -0.4785
 7026SOL    HW132803   7.998  13.536   7.706  3.0953  1.2199 -0.8657
 7026SOL    HW232804   8.031  13.395   7.664  1.5363  0.2947  0.8929
 7027SOL     OW32805   3.301   0.244  11.134  0.1363 -0.1447  0.2538
 7027SOL    HW132806   3.301   0.318  11.075 -0.6032 -1.2465 -1.2004
 7027SOL    HW232807   3.213   0.206  11.126 -0.5757  0.5374  3.2572
 7028SOL     OW32808   4.738   2.842   8.827  0.6926 -0.0170 -0.3094
 7028SOL    HW132809   4.820   2.829   8.781  0.6890 -5.0990  0.4533
 7028SOL    HW232810   4.678   2.778   8.787 -1.7360  0.9329  1.5501
 7029SOL     OW32811  13.242   7.557   6.692 -0.2066 -0.3741  0.0003
 7029SOL    HW132812  13.206   7.576   6.605  0.7760 -2.6096 -0.9954
 7029SOL    HW232813  13.166   7.536   6.746 -0.7032 -0.9794 -0.9153
 7030SOL     OW32814   0.556  11.635  12.458 -0.4042 -0.5454 -0.2941
 7030SOL    HW132815   0.608  11.616  12.536 -0.8288 -0.9896 -0.1171
 7030SOL    HW232816   0.465  11.625  12.486 -0.6211  0.6452 -0.4850
 7031SOL     OW32817   6.529   6.476  11.038  0.0560  0.3418 -0.0387
 7031SOL    HW132818   6.562   6.414  11.104  0.3859 -0.8323 -1.2627
 7031SOL    HW232819   6.607   6.503  10.990  0.0192  2.2795  0.8844
 7032SOL     OW32820  10.575  11.662   7.497  0.3333  0.3469 -0.2184
 7032SOL    HW132821  10.513  11.629   7.432 -0.1855 -0.1886  0.5315
 7032SOL    HW232822  10.545  11.751   7.516  1.1536  0.9402 -1.5151
 7033SOL     OW32823  13.008   1.953  11.207 -0.0950 -0.0987  0.2112
 7033SOL    HW132824  13.047   1.962  11.120 -0.3385 -1.3613 -0.0546
 7033SOL    HW232825  12.963   1.868  11.204  0.0387 -0.2384  1.6283
 7034SOL     OW32826   7.031   0.299  11.376 -0.0899  0.4676 -0.0219
 7034SOL    HW132827   6.994   0.220  11.337  1.3234  0.2892 -1.0784
 7034SOL    HW232828   6.977   0.370  11.340  0.4603  0.2044 -1.4577
 7035SOL     OW32829   8.599   7.016   4.419  0.0385 -0.4534  0.2450
 7035SOL    HW132830   8.636   7.046   4.336  0.8662  0.2582  0.8473
 7035SOL    HW232831   8.580   6.923   4.405 -2.6894  0.2765 -1.7236
 7036SOL     OW32832   1.575  11.125  11.149 -0.1723 -0.3186  0.4925
 7036SOL    HW132833   1.508  11.131  11.218 -0.8166  1.0675 -0.2263
 7036SOL    HW232834   1.652  11.167  11.187 -0.7700  1.1750  0.1121
 7037SOL     OW32835   4.882  10.473   3.044 -0.1155  0.2492  0.4912
 7037SOL    HW132836   4.895  10.533   3.117 -0.5868  0.0498  0.7448
 7037SOL    HW232837   4.969  10.463   3.004  0.0281  0.8127  0.6672
 7038SOL     OW32838  12.957   4.659  12.799  0.2807 -0.2490 -0.2099
 7038SOL    HW132839  12.965   4.615  12.715  0.7261  0.3166 -0.4685
 7038SOL    HW232840  13.031   4.720  12.802 -1.2155  1.6845 -0.5647
 7039SOL     OW32841   0.860  11.485   5.007 -0.8937 -0.0509  0.1997
 7039SOL    HW132842   0.829  11.398   5.032  0.2075 -0.1718  1.2391
 7039SOL    HW232843   0.786  11.543   5.023 -1.5935 -0.7644 -0.3825
 7040SOL     OW32844   4.560   4.111   2.228  0.1969 -0.5148  0.7357
 7040SOL    HW132845   4.481   4.067   2.259  1.1868 -1.2705  2.3152
 7040SOL    HW232846   4.624   4.040   2.214  0.6375  0.0813 -0.4445
 7041SOL     OW32847  12.650  11.537   2.200 -0.1786  0.1258  0.0155
 7041SOL    HW132848  12.694  11.491   2.128 -0.0759 -1.1239  0.8454
 7041SOL    HW232849  12.571  11.572   2.161  0.2664  0.1525 -0.8920
 7042SOL     OW32850   2.019   4.455   1.515  0.1099  0.3275 -0.0960
 7042SOL    HW132851   2.066   4.393   1.459  2.4787 -0.1724  2.2509
 7042SOL    HW232852   1.978   4.402   1.583 -0.0338  1.1359  0.4696
 7043SOL     OW32853   0.690   9.271   7.088 -0.4420  0.2800  0.0334
 7043SOL    HW132854   0.727   9.195   7.043 -0.5788 -0.9514  1.9111
 7043SOL    HW232855   0.602   9.244   7.114 -1.2209  1.7708 -0.8889
 7044SOL     OW32856   8.147   4.377   5.899  0.0078 -0.1475  0.1541
 7044SOL    HW132857   8.177   4.295   5.859 -1.7794 -1.0631  0.5819
 7044SOL    HW232858   8.163   4.366   5.992 -1.0182 -0.4124  0.3193
 7045SOL     OW32859   1.082  12.153  12.203  0.9563 -0.3188 -0.2544
 7045SOL    HW132860   1.105  12.243  12.225 -0.2200 -0.2578  0.8976
 7045SOL    HW232861   1.135  12.132  12.126  1.4036  1.2797 -0.4171
 7046SOL     OW32862  11.472   3.175   2.954 -0.7815  0.2457  0.1145
 7046SOL    HW132863  11.550   3.193   2.902 -2.2690 -0.0541 -2.3533
 7046SOL    HW232864  11.463   3.080   2.953  0.1951  0.0463  2.6425
 7047SOL     OW32865  11.335   3.676  12.822 -0.1936  0.0628 -0.1091
 7047SOL    HW132866  11.406   3.648  12.764 -1.0036 -0.2722 -0.9554
 7047SOL    HW232867  11.362   3.764  12.850  0.7793 -0.2399 -0.0401
 7048SOL     OW32868  11.431  11.978   6.652  0.1827  0.1802 -0.5476
 7048SOL    HW132869  11.378  11.921   6.596 -0.4992  2.0733 -1.9721
 7048SOL    HW232870  11.504  12.005   6.597 -0.6315  2.2871 -0.7156
 7049SOL     OW32871   0.701   4.936  12.130  0.4669 -0.5757  0.1192
 7049SOL    HW132872   0.665   4.861  12.083  0.1029 -1.0074  1.0756
 7049SOL    HW232873   0.626   4.977  12.172  0.5986  0.5835 -0.7340
 7050SOL     OW32874  10.574   0.820   8.896  0.4279  0.0673  0.4483
 7050SOL    HW132875  10.665   0.818   8.865  0.5469 -1.5433  0.8006
 7050SOL    HW232876  10.523   0.784   8.823  0.1777  0.1659  0.5736
 7051SOL     OW32877   6.124  13.401   3.875 -0.0962 -0.4701 -0.3286
 7051SOL    HW132878   6.052  13.377   3.816 -0.9258 -1.8191  1.1224
 7051SOL    HW232879   6.189  13.331   3.863  0.3723  0.0160 -0.6564
 7052SOL     OW32880   9.273   6.339   0.617  0.5274 -0.1506  0.0973
 7052SOL    HW132881   9.350   6.375   0.663  0.4738  0.6313 -0.4185
 7052SOL    HW232882   9.199   6.362   0.673  0.2947  2.0392 -1.0124
 7053SOL     OW32883   7.295   1.193   3.479 -0.2438 -0.2175  0.3569
 7053SOL    HW132884   7.351   1.121   3.508 -0.1802 -0.6154 -0.6781
 7053SOL    HW232885   7.347   1.238   3.412 -0.8500 -0.1168 -0.0558
 7054SOL     OW32886   7.987   2.212   3.520  0.1521 -0.0534 -0.0743
 7054SOL    HW132887   7.949   2.195   3.606 -0.3197  1.2371 -0.0030
 7054SOL    HW232888   8.068   2.260   3.539 -1.0837  2.2908 -0.3599
 7055SOL     OW32889   2.721   2.027   9.074 -0.1178 -0.3749 -0.0937
 7055SOL    HW132890   2.685   2.116   9.073  0.0399 -0.3107 -0.1673
 7055SOL    HW232891   2.767   2.019   8.990  0.3997 -0.3045  0.1737
 7056SOL     OW32892   0.989   0.721   1.236  0.8262  0.7671  0.1304
 7056SOL    HW132893   1.037   0.640   1.253  1.5449  1.2147  0.2724
 7056SOL    HW232894   0.903   0.692   1.206  1.0637 -0.0478  0.2143
 7057SOL     OW32895  10.735   9.642  12.554  0.0163  0.7619  0.3323
 7057SOL    HW132896  10.776   9.556  12.542 -0.1266  0.9878 -2.0865
 7057SOL    HW232897  10.793   9.687  12.616  1.4600 -0.1899 -0.2731
 7058SOL     OW32898  10.817   6.490  11.733  0.1122 -0.0133  0.1520
 7058SOL    HW132899  10.730   6.488  11.693  0.5410  1.4268 -0.9569
 7058SOL    HW232900  10.877   6.492  11.659  1.1351 -1.2898  0.9037
 7059SOL     OW32901   1.562  10.778   4.641 -0.0854  0.2681  0.4027
 7059SOL    HW132902   1.478  10.823   4.634  0.3917  1.1884  0.4491
 7059SOL    HW232903   1.623  10.846   4.668  1.5204  0.6168 -3.4452
 7060SOL     OW32904   5.384   2.499  10.591 -0.6151  0.2660  0.4890
 7060SOL    HW132905   5.360   2.434  10.526  0.7936  1.0579 -0.8903
 7060SOL    HW232906   5.302   2.518  10.638 -2.0595  0.7600 -2.0422
 7061SOL     OW32907   9.810   8.085  11.910 -0.3253  0.2622 -0.0436
 7061SOL    HW132908   9.805   8.157  11.847  1.5267  1.2936  0.8983
 7061SOL    HW232909   9.764   8.118  11.987  1.0180  0.7231  0.5948
 7062SOL     OW32910   3.139  11.197   9.595  0.2842 -0.3025  0.0776
 7062SOL    HW132911   3.193  11.255   9.648  0.1645  1.5194 -1.6678
 7062SOL    HW232912   3.049  11.225   9.612  0.2876  1.0944 -1.8016
 7063SOL     OW32913   1.407   5.469   6.069  0.5156  0.0126 -0.0026
 7063SOL    HW132914   1.412   5.563   6.053 -0.6276 -0.3195 -2.8445
 7063SOL    HW232915   1.426   5.429   5.984  1.0116 -2.3427  1.1401
 7064SOL     OW32916  12.678   5.847   5.951  0.3853  0.3050  0.1480
 7064SOL    HW132917  12.724   5.925   5.983  0.1087 -0.6814  3.2309
 7064SOL    HW232918  12.747   5.781   5.941  0.2900  0.2532 -0.1924
 7065SOL     OW32919  10.674   8.557   8.479 -0.1477 -0.2316  0.6190
 7065SOL    HW132920  10.722   8.496   8.535  0.1596  0.2218  0.8557
 7065SOL    HW232921  10.698   8.644   8.512  0.5955  0.0731 -0.6714
 7066SOL     OW32922   6.782   2.865   6.164  0.3424 -0.3962 -0.1430
 7066SOL    HW132923   6.799   2.783   6.211 -1.3864 -1.3273 -1.0207
 7066SOL    HW232924   6.824   2.933   6.217 -0.1997 -1.5763  1.8864
 7067SOL     OW32925   5.585   7.456   6.339 -0.1954 -0.3088 -0.0108
 7067SOL    HW132926   5.632   7.378   6.367 -0.0165 -0.7973 -1.5902
 7067SOL    HW232927   5.535   7.428   6.262 -1.7098  0.6336  0.5822
 7068SOL     OW32928  10.978  10.656  13.283  0.3676  0.2147  0.0930
 7068SOL    HW132929  11.001  10.609  13.363 -0.8164 -0.2352  0.1904
 7068SOL    HW232930  10.927  10.731  13.313 -0.4899 -0.2111 -0.2401
 7069SOL     OW32931   8.874   7.625  11.058 -0.4043  0.0906  0.0136
 7069SOL    HW132932   8.803   7.602  10.999 -0.2662  1.3275 -0.6673
 7069SOL    HW232933   8.924   7.691  11.010  0.5929  0.0076  0.9091
 7070SOL     OW32934   0.377   4.025  13.116 -0.0934 -0.3900  0.0886
 7070SOL    HW132935   0.300   4.074  13.145 -0.0902  0.2184 -0.8698
 7070SOL    HW232936   0.348   3.934  13.114 -0.9617 -0.1178 -0.7354
 7071SOL     OW32937   7.843  10.831  12.476 -0.1274  0.1736 -0.4990
 7071SOL    HW132938   7.889  10.802  12.555  1.9806  0.4697 -1.5255
 7071SOL    HW232939   7.782  10.761  12.457 -2.1958  0.9797  2.4500
 7072SOL     OW32940   3.507   9.334  10.790  0.3389 -0.4459 -0.1827
 7072SOL    HW132941   3.445   9.369  10.726  0.9984  2.0375  0.4604
 7072SOL    HW232942   3.469   9.249  10.815 -1.2506 -0.3227 -1.9400
 7073SOL     OW32943   4.951   7.258  11.289 -0.4491  0.4884  0.1866
 7073SOL    HW132944   5.012   7.184  11.296 -2.8492 -1.4978  1.4049
 7073SOL    HW232945   4.985   7.309  11.215  0.4652 -2.6883 -1.7922
 7074SOL     OW32946   2.363  12.409   6.352 -0.1330 -0.0935  0.9744
 7074SOL    HW132947   2.433  12.396   6.416  0.7779  1.2154  0.2806
 7074SOL    HW232948   2.406  12.448   6.276 -1.4608 -0.1394  0.1669
 7075SOL     OW32949   1.516  10.134   2.373  0.3251  0.2429 -0.3908
 7075SOL    HW132950   1.497  10.044   2.348 -0.7028  0.7526 -1.5283
 7075SOL    HW232951   1.446  10.158   2.433  1.3235 -0.1123  0.9619
 7076SOL     OW32952   7.031   0.351  13.053 -0.2769 -0.3684  0.5092
 7076SOL    HW132953   7.026   0.319  13.144  1.7552 -1.5779  0.2449
 7076SOL    HW232954   7.044   0.272  13.001 -1.1945  0.3427 -0.8547
 7077SOL     OW32955   7.568  10.906   1.766 -0.0182 -0.2008 -0.3762
 7077SOL    HW132956   7.525  10.833   1.722  2.6690 -2.2918  0.2270
 7077SOL    HW232957   7.584  10.874   1.855  2.2173  0.6589 -0.4114
 7078SOL     OW32958  12.234  10.917   1.776  0.3418  0.1284  0.1793
 7078SOL    HW132959  12.267  10.831   1.754  0.8292  0.4356 -0.3111
 7078SOL    HW232960  12.139  10.909   1.768  0.4599  0.2536 -2.3003
 7079SOL     OW32961  11.261   8.055   5.331  0.1083  0.6390 -0.3031
 7079SOL    HW132962  11.263   8.091   5.420  1.3042  0.0183 -0.0527
 7079SOL    HW232963  11.169   8.042   5.311 -0.1431  0.3445  1.0274
 7080SOL     OW32964   4.188   1.675   6.423 -0.1510 -0.2164  0.0502
 7080SOL    HW132965   4.177   1.583   6.402 -1.5984  0.1117 -0.8407
 7080SOL    HW232966   4.164   1.682   6.516 -0.7724 -0.6302 -0.0726
 7081SOL     OW32967   4.257   5.288  11.665  0.4777 -0.0108  0.4866
 7081SOL    HW132968   4.349   5.292  11.638  0.3290  0.1888  0.0077
 7081SOL    HW232969   4.224   5.207  11.624  0.4674 -0.1362  0.7416
 7082SOL     OW32970  10.786   9.959   7.987 -0.6949  0.5278  0.0719
 7082SOL    HW132971  10.696   9.984   8.010 -0.2863  0.7215  1.5344
 7082SOL    HW232972  10.775   9.885   7.928 -1.8298 -0.4037  1.3671
 7083SOL     OW32973   1.137  11.110  13.186 -0.4395  0.0513  0.7378
 7083SOL    HW132974   1.062  11.069  13.144  0.2487 -2.4507  1.8045
 7083SOL    HW232975   1.100  11.171  13.249 -1.5070  0.4689 -0.2559
 7084SOL     OW32976   7.085   7.809  12.100  0.1716 -0.7832  0.3297
 7084SOL    HW132977   7.036   7.877  12.145  2.1665  0.8977  0.1078
 7084SOL    HW232978   7.034   7.729  12.114 -1.7085  0.5418  1.4857
 7085SOL     OW32979  13.021   8.257   7.101  0.3011 -0.3908 -0.5515
 7085SOL    HW132980  13.108   8.221   7.114  0.7365  0.9191  0.3088
 7085SOL    HW232981  13.035   8.345   7.066 -0.7307 -0.8643 -2.2925
 7086SOL     OW32982   0.040   4.415  10.675 -0.3781 -0.1297  0.0585
 7086SOL    HW132983   0.035   4.322  10.653 -2.5904 -0.3086  0.9804
 7086SOL    HW232984   0.104   4.451  10.614  0.8886 -2.3190 -0.0159
 7087SOL     OW32985  11.106  12.973   8.258  0.4101  0.1181  0.0704
 7087SOL    HW132986  11.025  12.994   8.304  0.5868  0.7604  0.1077
 7087SOL    HW232987  11.168  12.951   8.328  0.0583 -1.1333 -0.0053
 7088SOL     OW32988   2.888  13.288   7.674  0.3112  0.0359  0.0762
 7088SOL    HW132989   2.850  13.203   7.697 -0.8839  0.8008  1.0025
 7088SOL    HW232990   2.855  13.305   7.585 -1.6087  0.6911  0.8649
 7089SOL     OW32991   9.542   5.676   2.784 -0.7077  0.3477 -0.4215
 7089SOL    HW132992   9.599   5.638   2.851 -1.8271  0.2920  0.5267
 7089SOL    HW232993   9.454   5.650   2.810 -1.3209  1.8221 -0.9195
 7090SOL     OW32994   4.014   6.846   2.521 -0.0691 -0.3081 -0.4682
 7090SOL    HW132995   4.092   6.888   2.556 -1.7912 -0.7418  4.8044
 7090SOL    HW232996   4.044   6.758   2.495  1.6765  0.6561 -1.9696
 7091SOL     OW32997   1.286  10.258   2.859 -0.4902  0.2839 -0.0165
 7091SOL    HW132998   1.210  10.250   2.916 -0.6425 -0.5526 -0.3237
 7091SOL    HW232999   1.361  10.247   2.917 -0.6549 -1.5071 -0.0874
 7092SOL     OW33000   9.044  12.990   0.221 -0.1269  0.0083  0.0673
 7092SOL    HW133001   8.979  12.984   0.291 -1.1356  1.8618 -0.6440
 7092SOL    HW233002   9.019  13.068   0.171  2.8587  1.0442 -0.0243
 7093SOL     OW33003   3.635   1.303   7.169  0.1946 -0.1501 -0.6682
 7093SOL    HW133004   3.631   1.223   7.221  0.5934  1.0967  1.4186
 7093SOL    HW233005   3.699   1.358   7.214 -0.6032  1.6315 -1.5916
 7094SOL     OW33006   0.812   6.039   8.008  0.3765 -0.3095  0.4159
 7094SOL    HW133007   0.735   6.081   7.972 -0.9343 -1.1543  2.0780
 7094SOL    HW233008   0.859   6.005   7.932 -0.3768  1.0177 -0.6866
 7095SOL     OW33009   6.397  11.057   0.223  0.5083  0.0623 -0.2627
 7095SOL    HW133010   6.382  10.999   0.298 -1.3795  0.1701 -0.5166
 7095SOL    HW233011   6.486  11.036   0.194  0.1658 -2.1474  0.1383
 7096SOL     OW33012   9.912   4.850   9.208  0.0598 -0.0317 -0.3138
 7096SOL    HW133013   9.997   4.889   9.230 -0.2358  0.1944  0.4500
 7096SOL    HW233014   9.875   4.825   9.293 -1.3855  1.4233 -0.4765
 7097SOL     OW33015   8.157   1.971   2.873 -0.0038 -0.1328  0.3607
 7097SOL    HW133016   8.206   1.927   2.803  0.0818 -0.7955  0.8264
 7097SOL    HW233017   8.224   1.994   2.938 -0.0835  0.4750  0.2352
 7098SOL     OW33018   2.646   9.274  13.038 -0.4964 -0.8736 -0.0733
 7098SOL    HW133019   2.647   9.296  12.945 -1.4126 -0.0580  0.0906
 7098SOL    HW233020   2.672   9.182  13.041 -0.9117 -1.0447 -1.1866
 7099SOL     OW33021   0.448   0.335  12.330  0.9372 -0.1950 -0.6038
 7099SOL    HW133022   0.380   0.284  12.374  0.3276  0.7002 -0.4851
 7099SOL    HW233023   0.401   0.392  12.269  1.5883  0.2829 -0.6797
 7100SOL     OW33024   7.623   7.772   7.532  0.4691  0.0629  0.8224
 7100SOL    HW133025   7.621   7.815   7.618  2.3249 -1.7790  1.8737
 7100SOL    HW233026   7.680   7.696   7.544 -0.8451 -1.4344 -1.5312
 7101SOL     OW33027  12.864  12.299   3.126 -0.0387  0.4075 -0.1998
 7101SOL    HW133028  12.909  12.215   3.114  1.7319  1.3494 -0.4546
 7101SOL    HW233029  12.806  12.306   3.050  2.1331  0.7936 -1.9296
 7102SOL     OW33030   3.965  12.515   1.984 -0.2364 -0.4730  0.3103
 7102SOL    HW133031   3.876  12.513   1.949 -0.0692  0.3223 -0.1831
 7102SOL    HW233032   3.965  12.590   2.044  0.1980 -0.2586  0.0428
 7103SOL     OW33033   9.207   1.825  11.033 -0.1803  0.2484  0.2977
 7103SOL    HW133034   9.138   1.842  10.969  1.2161  1.8233 -0.8663
 7103SOL    HW233035   9.271   1.772  10.986  0.6379  1.0274  0.5095
 7104SOL     OW33036  11.168  10.071  10.546  0.4470  0.2075 -0.1470
 7104SOL    HW133037  11.180  10.041  10.636  1.4927 -1.6659 -0.8585
 7104SOL    HW233038  11.091  10.024  10.516 -0.5340  1.6171  0.0402
 7105SOL     OW33039   4.965   5.871   8.250 -0.1179 -0.5408 -0.6853
 7105SOL    HW133040   4.946   5.911   8.165  0.8643 -0.4665 -0.8810
 7105SOL    HW233041   5.011   5.940   8.299 -3.2523  0.5089  1.0627
 7106SOL     OW33042   6.387   7.782  11.587  0.4407  0.1224  0.7115
 7106SOL    HW133043   6.387   7.810  11.495 -1.3007 -1.9267 -0.0061
 7106SOL    HW233044   6.452   7.712  11.590 -1.3010 -1.6338  0.2989
 7107SOL     OW33045   8.710   4.603  10.820 -0.3989  1.0499  0.4877
 7107SOL    HW133046   8.657   4.555  10.756  0.3538  0.9762 -0.0843
 7107SOL    HW233047   8.707   4.694  10.790 -0.8927  1.1868  0.9362
 7108SOL     OW33048   8.600   9.451   0.090 -0.5219 -0.0754  0.1371
 7108SOL    HW133049   8.578   9.544   0.089 -1.6313 -0.2937  1.4242
 7108SOL    HW233050   8.696   9.449   0.089 -0.4876  1.0518 -0.4255
 7109SOL     OW33051   7.470   4.673   9.018  0.3178 -0.5250  0.1494
 7109SOL    HW133052   7.462   4.604   9.084 -0.5074 -0.3305  0.2579
 7109SOL    HW233053   7.418   4.642   8.944 -0.1646  0.0311  0.2487
 7110SOL     OW33054  10.939   5.971   7.732 -0.4476 -0.0698  0.0277
 7110SOL    HW133055  10.857   5.924   7.718  0.9522 -2.3064 -1.1370
 7110SOL    HW233056  11.006   5.916   7.693  1.4501  2.5008 -0.6321
 7111SOL     OW33057   8.807   7.300   2.908 -0.3237 -0.2810 -0.7773
 7111SOL    HW133058   8.842   7.322   2.994 -2.8358  0.1847  0.2185
 7111SOL    HW233059   8.836   7.372   2.851  1.1578 -0.4688 -0.2953
 7112SOL     OW33060   1.724   5.864  13.471 -0.7373  0.2338  0.7553
 7112SOL    HW133061   1.818   5.880  13.477 -0.2569 -0.9829 -2.0625
 7112SOL    HW233062   1.711   5.780  13.516 -0.0344 -0.7708 -0.8528
 7113SOL     OW33063   0.711  11.274  12.359  0.1154  0.4133 -0.2487
 7113SOL    HW133064   0.698  11.323  12.278  0.8867  0.5000 -0.3315
 7113SOL    HW233065   0.806  11.267  12.367  0.0318 -0.7267 -0.0357
 7114SOL     OW33066   7.002   2.367   8.901 -0.2838 -0.2804 -0.1308
 7114SOL    HW133067   7.061   2.419   8.846 -0.4265  0.4078  0.3513
 7114SOL    HW233068   6.991   2.285   8.853  1.5287 -0.6602  0.0649
 7115SOL     OW33069  13.012   9.041   1.478  0.5918  0.6624 -0.8085
 7115SOL    HW133070  12.955   9.107   1.517 -1.0729 -0.3572 -1.4353
 7115SOL    HW233071  13.077   9.022   1.546 -0.3948  1.1502  0.3032
 7116SOL     OW33072   4.287   3.638   7.694 -0.0824  0.6397  0.3494
 7116SOL    HW133073   4.271   3.696   7.620  0.5428  0.0589 -0.2499
 7116SOL    HW233074   4.313   3.697   7.765  0.2887  1.1181 -0.1753
 7117SOL     OW33075   0.027   6.564   2.543  0.4341  0.0578  0.0399
 7117SOL    HW133076   0.088   6.570   2.470  1.4865 -3.3825  0.4349
 7117SOL    HW233077  -0.050   6.521   2.506 -0.0982  0.6594  0.4276
 7118SOL     OW33078   0.181   1.291  11.450  0.1655  0.3195 -0.2971
 7118SOL    HW133079   0.258   1.349  11.448  0.3860  0.0424 -2.5132
 7118SOL    HW233080   0.212   1.209  11.413 -1.0650  0.0167 -0.6969
 7119SOL     OW33081   1.692   8.520  11.880 -0.2763 -0.3774 -0.0445
 7119SOL    HW133082   1.762   8.456  11.863  0.4490  0.8252 -1.7874
 7119SOL    HW233083   1.646   8.484  11.956 -0.0748 -3.1306 -1.1050
 7120SOL     OW33084   4.378   0.910   5.903  0.0858  0.2982  0.2889
 7120SOL    HW133085   4.287   0.904   5.873 -0.1805 -1.7805  1.3768
 7120SOL    HW233086   4.419   0.829   5.874  0.3796 -0.8430  3.4849
 7121SOL     OW33087   9.087   1.541   4.684 -0.0816  0.3479 -0.2225
 7121SOL    HW133088   9.105   1.629   4.652 -0.0291  0.4666  0.1273
 7121SOL    HW233089   9.041   1.498   4.612  0.0804  0.5932 -0.4715
 7122SOL     OW33090   2.106  12.285   8.074  0.0869  0.3906 -0.0798
 7122SOL    HW133091   2.108  12.368   8.122  1.1857  0.4902 -0.2709
 7122SOL    HW233092   2.194  12.277   8.037 -0.0965 -0.7291 -0.2951
 7123SOL     OW33093   6.476   6.243   4.374 -0.1669 -0.1819 -0.3864
 7123SOL    HW133094   6.541   6.202   4.430 -1.5729  2.2406  3.4048
 7123SOL    HW233095   6.527   6.301   4.316  1.2343  1.7916  2.5813
 7124SOL     OW33096   5.723   5.971  10.165 -0.3059 -0.2410 -0.2852
 7124SOL    HW133097   5.750   5.947  10.253 -1.0729  0.0596  0.0393
 7124SOL    HW233098   5.629   5.987  10.172 -0.4943 -0.8273 -1.2870
 7125SOL     OW33099  13.034   1.208  10.350 -0.2418 -0.0121 -0.6071
 7125SOL    HW133100  13.070   1.296  10.364  0.1995 -0.1424 -0.9042
 7125SOL    HW233101  13.106   1.149  10.368 -0.6209 -0.3330 -0.1250
 7126SOL     OW33102   5.814   8.951   8.495 -0.5227  0.2499 -0.1726
 7126SOL    HW133103   5.874   9.019   8.526 -0.1013  0.0865 -0.6211
 7126SOL    HW233104   5.746   8.946   8.563 -0.8492  1.4904 -0.3833
 7127SOL     OW33105   4.762  13.665   5.954  0.4479 -0.7000 -0.0451
 7127SOL    HW133106   4.746  13.744   5.902  0.0372 -0.5256  0.3321
 7127SOL    HW233107   4.845  13.631   5.922  1.5548  0.8950  1.0386
 7128SOL     OW33108  10.469   3.936  12.060 -0.5749 -0.0797 -0.3306
 7128SOL    HW133109  10.445   3.847  12.085  1.2987 -0.7293 -0.7070
 7128SOL    HW233110  10.483   3.981  12.144  0.5754 -0.7671 -0.1374
 7129SOL     OW33111   2.726   4.994   4.662  0.1851  0.2097  0.3367
 7129SOL    HW133112   2.810   4.994   4.616  0.7028 -0.6578  1.2521
 7129SOL    HW233113   2.717   4.905   4.696 -1.9252 -0.2331 -1.1750
 7130SOL     OW33114   1.698  12.173   2.200 -0.2434  0.3810  0.2890
 7130SOL    HW133115   1.750  12.098   2.173  0.5521  1.2679 -0.7533
 7130SOL    HW233116   1.751  12.219   2.264 -1.1462 -0.4494  1.6750
 7131SOL     OW33117   3.631  10.957   7.454  0.2186 -0.3133 -0.6324
 7131SOL    HW133118   3.629  11.013   7.377  1.2330  1.3121  0.4567
 7131SOL    HW233119   3.707  10.900   7.442 -0.5303 -1.1747 -1.5102
 7132SOL     OW33120   5.878   1.067   1.907  0.0029  0.0314 -0.1612
 7132SOL    HW133121   5.815   1.110   1.850  1.1140 -0.2529 -1.6773
 7132SOL    HW233122   5.923   1.005   1.850  0.5323 -0.9437  1.2624
 7133SOL     OW33123  12.783  11.022   4.743 -0.1028 -0.1456  0.3530
 7133SOL    HW133124  12.790  10.969   4.823 -0.0309  1.1402  1.2277
 7133SOL    HW233125  12.735  11.100   4.771  0.7095  0.7316 -0.6464
 7134SOL     OW33126  11.747   7.873  10.186 -0.2709  0.7978  0.4148
 7134SOL    HW133127  11.656   7.901  10.179 -0.9260 -1.2033  0.2364
 7134SOL    HW233128  11.746   7.809  10.257  0.4369 -1.2008 -1.2944
 7135SOL     OW33129   4.283   8.120   8.640  0.5051 -0.3141  0.8049
 7135SOL    HW133130   4.235   8.178   8.580 -1.8679 -1.3822  1.5543
 7135SOL    HW233131   4.247   8.141   8.726  3.0272  0.3743  1.7869
 7136SOL     OW33132  13.134   1.511  10.541 -0.7213  0.5194  0.0057
 7136SOL    HW133133  13.054   1.543  10.500  0.6451  2.1014 -1.5730
 7136SOL    HW233134  13.187   1.479  10.468  0.3662  0.1206  0.9341
 7137SOL     OW33135  12.476  13.161   2.335  0.3335  0.3609 -0.1718
 7137SOL    HW133136  12.406  13.215   2.297  0.7844  1.2527  0.2311
 7137SOL    HW233137  12.485  13.088   2.274 -2.1119 -0.7155  0.6232
 7138SOL     OW33138   8.221  12.338  11.605 -0.2330  0.8225 -0.7011
 7138SOL    HW133139   8.230  12.380  11.520 -1.3035  3.5343  0.4279
 7138SOL    HW233140   8.138  12.370  11.640  1.0668  1.3919  2.1854
 7139SOL     OW33141  12.380  12.055   0.079 -0.2207  0.2115 -0.4984
 7139SOL    HW133142  12.299  12.024   0.039  0.8278 -0.5953 -2.0589
 7139SOL    HW233143  12.441  11.982   0.071  1.1819  1.3871 -0.9122
 7140SOL     OW33144   2.582   7.280   4.435  0.3433  0.1827 -0.0214
 7140SOL    HW133145   2.510   7.297   4.373 -1.0258 -0.3270  1.3723
 7140SOL    HW233146   2.636   7.359   4.430 -2.1978  2.1492  1.3571
 7141SOL     OW33147   7.070   4.744   8.031  0.4865 -0.0958  0.3318
 7141SOL    HW133148   7.113   4.670   7.987  1.0513  0.5395 -0.2154
 7141SOL    HW233149   7.142   4.800   8.059  0.0302  1.0257 -0.6535
 7142SOL     OW33150  11.933  11.172   9.424  0.2625  0.4169  0.3857
 7142SOL    HW133151  11.924  11.180   9.329 -0.5807 -0.5204  0.3686
 7142SOL    HW233152  11.884  11.246   9.459 -1.4033 -0.4924  0.1087
 7143SOL     OW33153  13.705  10.984   5.140 -0.4010 -0.1635  0.1207
 7143SOL    HW133154  13.705  10.898   5.099  1.2057  0.4167 -1.2206
 7143SOL    HW233155  13.779  10.982   5.201 -1.8287 -0.4986  1.9196
 7144SOL     OW33156   3.122   0.555   0.629 -0.2453  0.4032  0.0292
 7144SOL    HW133157   3.053   0.550   0.696  0.6128 -2.0946  0.8181
 7144SOL    HW233158   3.109   0.477   0.575  1.1731  0.5998 -0.6439
 7145SOL     OW33159   2.530   0.556   6.498  0.1223  0.3217  0.1414
 7145SOL    HW133160   2.615   0.512   6.509  0.6163  1.2874  0.2360
 7145SOL    HW233161   2.552   0.647   6.482 -0.9378  0.9753  2.1454
 7146SOL     OW33162   4.620   8.112  13.503 -0.2079  0.1325  0.1323
 7146SOL    HW133163   4.569   8.187  13.472 -0.2178 -0.5117 -1.5056
 7146SOL    HW233164   4.581   8.037  13.459  0.8289 -0.6368  0.4868
 7147SOL     OW33165  10.754  11.671  11.930 -0.3331 -0.6282 -0.0135
 7147SOL    HW133166  10.792  11.744  11.882  0.8857 -1.3850 -0.2472
 7147SOL    HW233167  10.704  11.623  11.865 -1.4151  0.1558  0.2114
 7148SOL     OW33168  10.306   2.162  11.946  0.1950  0.4294 -0.3712
 7148SOL    HW133169  10.324   2.089  12.006 -2.4398 -0.1544 -0.1608
 7148SOL    HW233170  10.254   2.123  11.876  0.9563  1.6430 -1.6508
 7149SOL     OW33171   6.470   2.295  12.267 -0.6833 -0.4405  0.1376
 7149SOL    HW133172   6.479   2.340  12.183 -0.7432 -1.0927 -0.2295
 7149SOL    HW233173   6.470   2.365  12.332  3.0240 -0.0976 -0.0644
 7150SOL     OW33174   5.298  10.309  12.676 -0.0405  0.6927 -0.0549
 7150SOL    HW133175   5.375  10.353  12.712 -0.3984  1.0793  0.2448
 7150SOL    HW233176   5.234  10.379  12.663 -0.2315  0.4232 -0.6156
 7151SOL     OW33177  13.390   9.540   6.650  0.1716 -0.0981 -0.2289
 7151SOL    HW133178  13.306   9.504   6.620 -0.0603  0.0304  0.2544
 7151SOL    HW233179  13.387   9.632   6.621 -1.8781  1.2751  3.6265
 7152SOL     OW33180   2.526  13.012  13.148 -0.0468  0.3259  0.1472
 7152SOL    HW133181   2.499  13.068  13.221 -0.1644  1.4890 -0.7638
 7152SOL    HW233182   2.606  12.969  13.180  0.3879  1.4702  0.6702
 7153SOL     OW33183   3.342   6.195   0.156 -0.6316 -0.7504  0.0404
 7153SOL    HW133184   3.380   6.283   0.148  0.7561 -1.0507  2.1946
 7153SOL    HW233185   3.361   6.153   0.073  0.4145  0.3856 -0.3315
 7154SOL     OW33186   8.885   4.154   6.147  0.5884 -0.4088 -0.2539
 7154SOL    HW133187   8.922   4.129   6.232  1.8457 -2.4283 -1.3259
 7154SOL    HW233188   8.866   4.071   6.103 -1.3371  0.5729 -1.4616
 7155SOL     OW33189   5.874  12.946   4.997 -0.6883  0.1131 -0.3415
 7155SOL    HW133190   5.900  12.882   5.063  0.1395 -0.7304 -1.4437
 7155SOL    HW233191   5.883  13.031   5.041  1.3945 -0.3259  0.1709
 7156SOL     OW33192   7.231   5.603   1.623 -0.5532 -0.2024  0.4963
 7156SOL    HW133193   7.199   5.549   1.696 -1.6429  0.4963  0.5519
 7156SOL    HW233194   7.309   5.556   1.592 -1.2910 -1.6505  0.7222
 7157SOL     OW33195   9.318   9.316  11.570 -0.2269 -0.2222 -0.4834
 7157SOL    HW133196   9.272   9.235  11.548 -0.1426 -0.6046  0.6961
 7157SOL    HW233197   9.379   9.329  11.497  2.0421 -2.9575  0.7392
 7158SOL     OW33198   9.236  11.089   4.627  0.3727 -0.0009 -0.2529
 7158SOL    HW133199   9.262  11.105   4.718  0.2331 -0.7931 -0.0685
 7158SOL    HW233200   9.143  11.113   4.624  0.6743  1.2184 -0.5031
 7159SOL     OW33201  13.384   4.912   4.197  0.3966  0.0544  0.4216
 7159SOL    HW133202  13.456   4.903   4.260 -0.0814 -0.0116  0.9606
 7159SOL    HW233203  13.347   4.999   4.215  0.3668  0.1080  0.1110
 7160SOL     OW33204  12.934  12.937   9.308 -0.1191  0.1744  0.1925
 7160SOL    HW133205  12.975  12.997   9.370  0.9957 -0.9189  0.5525
 7160SOL    HW233206  12.990  12.939   9.231  1.2209 -2.0222  1.0278
 7161SOL     OW33207   3.912  11.435   8.059 -0.0562  0.2771  0.4396
 7161SOL    HW133208   4.008  11.433   8.051 -0.2026 -0.8511 -2.0115
 7161SOL    HW233209   3.883  11.352   8.021 -2.0212  0.4766  1.3830
 7162SOL     OW33210   6.806  12.779  10.730 -0.3566  0.3336  0.1131
 7162SOL    HW133211   6.878  12.770  10.668  0.0660  1.7174  0.3694
 7162SOL    HW233212   6.838  12.736  10.810 -0.6450 -0.8676 -0.3977
 7163SOL     OW33213  10.334   7.731   1.604  0.3222  0.3256  0.0497
 7163SOL    HW133214  10.287   7.748   1.522  0.1834 -0.7811 -0.1168
 7163SOL    HW233215  10.267   7.697   1.663  0.6592 -0.0306  0.2283
 7164SOL     OW33216   9.718  12.699   4.397 -0.2382  0.8613 -0.1301
 7164SOL    HW133217   9.752  12.706   4.486 -0.9497 -3.4728  0.7180
 7164SOL    HW233218   9.634  12.744   4.400  0.0535  1.3670  1.1955
 7165SOL     OW33219   8.043   8.192   0.066 -0.2463  0.0000 -0.1056
 7165SOL    HW133220   8.003   8.266   0.020 -0.3658 -0.3637 -0.5827
 7165SOL    HW233221   8.137   8.202   0.050 -0.4292 -1.4680 -2.4772
 7166SOL     OW33222   3.628  10.767   9.535  0.0028 -0.3151 -0.0153
 7166SOL    HW133223   3.701  10.707   9.525  0.5311  0.4999 -1.3118
 7166SOL    HW233224   3.636  10.801   9.624 -0.5260 -2.3988  0.8864
 7167SOL     OW33225   6.603   1.289  10.703  0.1253  0.3236 -0.5236
 7167SOL    HW133226   6.661   1.359  10.733  0.0424 -0.4467  1.5628
 7167SOL    HW233227   6.516   1.314  10.734 -0.0383 -0.3034 -0.4659
 7168SOL     OW33228   4.079  10.532  13.147  0.2280  0.4879 -0.4156
 7168SOL    HW133229   4.163  10.522  13.102 -0.0353  0.5049 -0.9111
 7168SOL    HW233230   4.089  10.613  13.198  0.2168  0.9405 -1.1279
 7169SOL     OW33231   1.742  10.509   8.685 -0.0094 -0.2359  0.4918
 7169SOL    HW133232   1.785  10.440   8.634  0.7537  1.3867 -1.1990
 7169SOL    HW233233   1.768  10.590   8.641 -3.1178  0.9909  0.6625
 7170SOL     OW33234  12.486   7.688   1.883 -0.8000  0.5927 -0.1543
 7170SOL    HW133235  12.404   7.692   1.833 -1.1389 -0.1875  0.3202
 7170SOL    HW233236  12.458   7.701   1.974 -0.2275  1.6718 -0.1177
 7171SOL     OW33237   3.408   1.906  11.501  1.1203  0.5137  0.1871
 7171SOL    HW133238   3.458   1.940  11.576  1.5002 -0.6199  0.4803
 7171SOL    HW233239   3.475   1.881  11.437  0.8711  0.1601  0.0591
 7172SOL     OW33240  11.782   5.456   5.870  0.0803  0.3128  0.3763
 7172SOL    HW133241  11.837   5.499   5.936  0.1671 -1.2005  1.3265
 7172SOL    HW233242  11.698   5.503   5.875  0.8792  1.8886 -0.2833
 7173SOL     OW33243   1.805  13.166   0.126  0.2393  0.4625 -0.3364
 7173SOL    HW133244   1.727  13.113   0.115 -0.9287  1.4142  2.4292
 7173SOL    HW233245   1.873  13.104   0.151  0.4335 -0.3679 -2.7119
 7174SOL     OW33246   6.865   3.182  11.096 -0.2793 -0.2665  0.0740
 7174SOL    HW133247   6.885   3.266  11.055  0.0447 -0.4126 -0.0751
 7174SOL    HW233248   6.861   3.120  11.023 -3.4143  0.0952 -0.1870
 7175SOL     OW33249  10.223   6.173   9.076 -0.6068  0.7895  0.1818
 7175SOL    HW133250  10.298   6.222   9.041  0.3712 -0.7317  0.0321
 7175SOL    HW233251  10.161   6.169   9.003 -0.0268  0.4820 -0.3047
 7176SOL     OW33252   1.907   2.216   3.089  0.0920  0.0227 -0.2391
 7176SOL    HW133253   1.946   2.302   3.072 -1.3447  0.6350 -0.6197
 7176SOL    HW233254   1.952   2.184   3.167  0.0481  1.5199  0.4367
 7177SOL     OW33255   7.062   8.047  10.615 -0.1693 -0.2702 -0.2733
 7177SOL    HW133256   7.025   7.984  10.553 -1.1615 -1.0752  1.0881
 7177SOL    HW233257   7.135   8.001  10.655 -1.1394 -0.7476  1.0105
 7178SOL     OW33258   3.524   3.557   6.254  0.1825 -0.3264  0.7795
 7178SOL    HW133259   3.437   3.523   6.235  0.5938 -0.5413 -0.9550
 7178SOL    HW233260   3.554   3.507   6.330 -0.7029 -1.1588  0.6011
 7179SOL     OW33261   9.014   9.920   4.218  0.6275 -0.3570  0.1203
 7179SOL    HW133262   8.967   9.868   4.152  1.6367  0.5647 -1.3736
 7179SOL    HW233263   9.047   9.855   4.280 -1.0404 -1.1736  0.2155
 7180SOL     OW33264   1.671  10.523  11.192  0.1862  0.1684  0.3590
 7180SOL    HW133265   1.621  10.599  11.221  0.5331 -0.5841  3.3018
 7180SOL    HW233266   1.755  10.531  11.237  0.3447 -1.7432  0.5002
 7181SOL     OW33267   1.132   5.128   9.021  0.1811  0.2851 -0.0098
 7181SOL    HW133268   1.103   5.218   9.038 -0.2698  0.5615 -1.9267
 7181SOL    HW233269   1.072   5.073   9.070 -0.9551  0.9948 -0.5581
 7182SOL     OW33270   0.468   0.037   2.940  0.1874 -0.4493 -0.1769
 7182SOL    HW133271   0.533   0.082   2.887  0.1601  1.4026  1.2230
 7182SOL    HW233272   0.497  -0.054   2.943  2.0019  0.0701 -0.6311
 7183SOL     OW33273   7.360   9.886   0.017  0.7324  0.0609  0.2412
 7183SOL    HW133274   7.316   9.831   0.082 -0.9083  1.4342  0.3665
 7183SOL    HW233275   7.426   9.933   0.067  1.0461 -0.5831  0.4443
 7184SOL     OW33276  13.096   2.616   0.366  0.2849 -0.2197 -0.4481
 7184SOL    HW133277  13.001   2.626   0.353  0.1503 -1.6895 -0.8151
 7184SOL    HW233278  13.104   2.585   0.456  0.5175  0.9119 -0.0629
 7185SOL     OW33279   7.379   0.870   6.126  0.4445 -0.1935 -0.1729
 7185SOL    HW133280   7.456   0.894   6.177  0.7333 -1.4472  0.0220
 7185SOL    HW233281   7.414   0.840   6.042  0.0158  1.2053 -0.8826
 7186SOL     OW33282  11.320   4.913   3.980  0.1080 -0.0171  0.0030
 7186SOL    HW133283  11.272   4.831   3.976  0.9168 -0.4639 -1.4238
 7186SOL    HW233284  11.396   4.895   4.035 -0.6017  0.3075  1.1359
 7187SOL     OW33285   8.789   1.426   6.019  0.3571  0.0805 -0.7232
 7187SOL    HW133286   8.791   1.350   6.077 -0.7113 -0.2357 -1.0894
 7187SOL    HW233287   8.868   1.475   6.042 -0.5574  0.5244  1.7595
 7188SOL     OW33288  10.122   3.726   8.030  0.7552  0.4856 -0.2793
 7188SOL    HW133289  10.171   3.716   7.948  0.4734 -2.0157 -0.2217
 7188SOL    HW233290  10.127   3.639   8.072 -1.1978  0.9968  1.1603
 7189SOL     OW33291  12.513   3.634   7.667  0.4559  0.7862  0.5621
 7189SOL    HW133292  12.496   3.716   7.619  0.7880  0.1282 -0.7094
 7189SOL    HW233293  12.601   3.645   7.703  0.4171  1.0754  0.5711
 7190SOL     OW33294   8.702   3.994   2.174  0.2186  0.1604 -0.2282
 7190SOL    HW133295   8.726   4.055   2.104  1.1483  0.5963  0.4594
 7190SOL    HW233296   8.618   3.957   2.145 -0.2794  1.6274 -0.7380
 7191SOL     OW33297   3.875   0.283   5.730 -0.1792 -0.6403 -0.2716
 7191SOL    HW133298   3.855   0.218   5.662  0.7101 -0.8292 -0.3680
 7191SOL    HW233299   3.946   0.243   5.780  0.7472  0.4687 -0.6653
 7192SOL     OW33300  11.746  12.933   1.290 -0.1655  0.2807  0.1443
 7192SOL    HW133301  11.682  12.876   1.246  1.1209 -0.8173 -0.3843
 7192SOL    HW233302  11.699  13.014   1.307 -2.0466 -0.8939  0.8097
 7193SOL     OW33303   5.922   2.784   5.330  0.0148 -0.7468  0.0063
 7193SOL    HW133304   5.944   2.700   5.290 -0.8307 -0.7822 -0.4045
 7193SOL    HW233305   5.835   2.804   5.297  0.5423  0.6918 -0.5518
 7194SOL     OW33306  12.793   0.678   5.599  0.0741  0.4265 -0.1731
 7194SOL    HW133307  12.872   0.732   5.598 -1.6874  3.2171  0.5536
 7194SOL    HW233308  12.762   0.680   5.508  0.4635 -0.1304 -0.3244
 7195SOL     OW33309   6.828   1.370   3.802 -0.1794 -0.3975  0.2441
 7195SOL    HW133310   6.887   1.429   3.755  0.1828 -1.6584 -0.9658
 7195SOL    HW233311   6.871   1.285   3.798 -1.5332 -1.1169  0.3173
 7196SOL     OW33312  12.649   1.264   7.652  0.4057  0.4470  0.3346
 7196SOL    HW133313  12.663   1.359   7.657  0.1453  0.4832  0.3949
 7196SOL    HW233314  12.697   1.229   7.727  0.3663  0.5475  0.4081
 7197SOL     OW33315   9.419   0.154   5.298  0.0168 -0.2174 -0.1114
 7197SOL    HW133316   9.331   0.156   5.261  0.0928 -1.5533 -0.4235
 7197SOL    HW233317   9.459   0.075   5.261  1.4286  0.4773 -0.1472
 7198SOL     OW33318   3.050  11.162   0.967  0.1216 -0.3292 -0.3146
 7198SOL    HW133319   3.030  11.256   0.962  0.3654 -0.2173  0.6641
 7198SOL    HW233320   2.997  11.123   0.897 -2.4183  0.1644  1.2077
 7199SOL     OW33321   7.998   0.451   2.341 -0.2403 -0.1750 -0.1268
 7199SOL    HW133322   7.977   0.542   2.359 -0.3824 -0.5065  1.5646
 7199SOL    HW233323   8.094   0.449   2.338 -0.2517  0.1485 -0.9450
 7200SOL     OW33324   0.304   1.747   7.642 -0.1744 -0.1355 -0.7802
 7200SOL    HW133325   0.345   1.728   7.727 -0.0919  1.7680 -0.3475
 7200SOL    HW233326   0.325   1.839   7.625 -2.9105  0.5077 -1.2928
 7201SOL     OW33327  10.087   0.697   7.944 -0.5500  0.0179  0.5231
 7201SOL    HW133328  10.006   0.737   7.914 -0.4478  0.7662  1.2184
 7201SOL    HW233329  10.112   0.748   8.021  0.3331 -0.5028  0.5931
 7202SOL     OW33330  10.937   8.512   3.565  0.3217 -0.0460 -0.1043
 7202SOL    HW133331  10.961   8.572   3.636 -0.9844  1.0459 -0.5247
 7202SOL    HW233332  10.857   8.469   3.597  0.8767 -1.0965 -0.0868
 7203SOL     OW33333  11.147   4.926   8.909  0.2444  0.1195 -0.0369
 7203SOL    HW133334  11.119   4.837   8.931  1.8355 -0.6628 -0.9703
 7203SOL    HW233335  11.158   4.969   8.994  0.0059 -0.7603  0.4548
 7204SOL     OW33336   6.047  12.853  13.236 -0.4358 -0.0615  0.4230
 7204SOL    HW133337   5.985  12.876  13.305 -0.9944  1.4791 -0.5371
 7204SOL    HW233338   6.100  12.932  13.223 -1.5133  0.3501 -2.0867
 7205SOL     OW33339   6.659   6.715   6.017 -0.4406  0.4149  0.0168
 7205SOL    HW133340   6.653   6.649   6.086 -1.2808  0.3079 -0.1504
 7205SOL    HW233341   6.585   6.697   5.959  0.2394  0.5203 -0.9088
 7206SOL     OW33342  10.680  12.451  13.083  0.4849  0.0911  0.1971
 7206SOL    HW133343  10.681  12.541  13.115  1.0376  0.4645 -0.8207
 7206SOL    HW233344  10.659  12.458  12.990  0.9198 -0.7926  0.0129
 7207SOL     OW33345   2.731   4.520  11.383  0.1492 -0.6785 -0.5885
 7207SOL    HW133346   2.701   4.430  11.366 -0.9058 -0.7812  1.4808
 7207SOL    HW233347   2.688   4.573  11.316 -2.6892 -1.2110  0.6523
 7208SOL     OW33348   0.638  12.986   6.393  0.4063  0.2985 -0.2443
 7208SOL    HW133349   0.684  13.024   6.318 -0.3331  0.5854 -0.5597
 7208SOL    HW233350   0.696  13.003   6.467  1.2164 -0.1109 -0.7553
 7209SOL     OW33351   3.825   2.901   8.069 -0.5466  0.2840 -0.0591
 7209SOL    HW133352   3.778   2.821   8.047 -0.7537  0.2540  0.4762
 7209SOL    HW233353   3.902   2.871   8.117 -0.8142  0.4159  0.4689
 7210SOL     OW33354   8.181  10.945   9.119  0.4769  0.6336 -0.2477
 7210SOL    HW133355   8.236  11.016   9.152  1.9628 -1.0174  1.0426
 7210SOL    HW233356   8.236  10.898   9.056  0.1285 -0.3062  0.1211
 7211SOL     OW33357   2.305   3.218  11.460 -0.5474 -0.5013  0.2217
 7211SOL    HW133358   2.313   3.187  11.551 -1.0275 -1.7382 -0.1380
 7211SOL    HW233359   2.360   3.296  11.457  0.1390 -0.9052  1.3775
 7212SOL     OW33360   1.598   8.340   8.420 -0.5097  0.0648 -0.3997
 7212SOL    HW133361   1.549   8.260   8.438 -1.0768  0.0752 -1.7682
 7212SOL    HW233362   1.571   8.366   8.332  0.2874  1.3117 -0.3125
 7213SOL     OW33363   2.772   2.237   1.897  0.2721 -0.1740  0.5005
 7213SOL    HW133364   2.785   2.312   1.838 -1.7566 -1.2159 -1.4478
 7213SOL    HW233365   2.856   2.225   1.940  1.6998  1.0387 -1.7609
 7214SOL     OW33366   6.463   2.694  11.650 -0.1025  0.0360  0.9807
 7214SOL    HW133367   6.381   2.725  11.688  0.2613  2.2484  0.1001
 7214SOL    HW233368   6.525   2.691  11.723 -0.3026  0.9169  1.1945
 7215SOL     OW33369  11.624  10.121   1.775  0.3380  0.1513  0.8759
 7215SOL    HW133370  11.576  10.041   1.752  1.0607 -0.0764  0.0988
 7215SOL    HW233371  11.654  10.105   1.865  0.7605 -0.6182  0.6176
 7216SOL     OW33372  10.253   6.747  13.096 -0.4270  0.3855 -0.0816
 7216SOL    HW133373  10.181   6.695  13.061 -0.4317 -1.2516  2.1740
 7216SOL    HW233374  10.330   6.691  13.087  0.3167  1.5182 -1.0622
 7217SOL     OW33375   1.402   2.651   0.982 -0.0688  0.1650  0.1577
 7217SOL    HW133376   1.315   2.690   0.980  0.0742  0.6247  1.6268
 7217SOL    HW233377   1.426   2.641   0.890 -0.5620  2.5057 -0.2838
 7218SOL     OW33378  12.882  11.549  13.577 -0.3531  0.1817 -0.1008
 7218SOL    HW133379  12.835  11.534  13.659  0.4531 -1.4528  0.1187
 7218SOL    HW233380  12.867  11.641  13.557  0.2917  0.9441  2.4588
 7219SOL     OW33381   5.388  11.386   3.947 -0.2090  0.0167 -0.0514
 7219SOL    HW133382   5.467  11.343   3.980 -0.9320 -2.3040 -1.1578
 7219SOL    HW233383   5.421  11.452   3.886  0.9000 -1.1546 -0.7793
 7220SOL     OW33384   1.238   6.795   2.768 -0.2876 -0.3201 -0.0622
 7220SOL    HW133385   1.322   6.750   2.770 -0.0810  0.0336 -0.6008
 7220SOL    HW233386   1.197   6.766   2.687  0.6680  1.8891 -1.4197
 7221SOL     OW33387  10.421   5.060   8.267 -0.2818  0.1272  0.4414
 7221SOL    HW133388  10.472   5.050   8.347 -0.2141  0.1689  0.4037
 7221SOL    HW233389  10.460   4.998   8.205 -1.7407 -1.5385  1.1133
 7222SOL     OW33390  11.035  11.205  11.014 -0.1245 -0.0803 -0.5186
 7222SOL    HW133391  11.016  11.235  10.925 -1.7145 -1.4498 -0.6943
 7222SOL    HW233392  10.949  11.188  11.052  0.5948 -1.7083  0.4972
 7223SOL     OW33393   7.465   1.726   0.137  0.2893  0.2657 -0.1701
 7223SOL    HW133394   7.524   1.788   0.181 -1.4944  1.9071  0.0575
 7223SOL    HW233395   7.466   1.753   0.045 -0.2660  0.4679 -0.1232
 7224SOL     OW33396  11.841   2.612   2.545 -0.0331 -0.3884 -0.3282
 7224SOL    HW133397  11.795   2.694   2.525  1.1399  0.5637  0.6729
 7224SOL    HW233398  11.802   2.548   2.487 -0.5935  1.0127 -1.5712
 7225SOL     OW33399   0.064  12.358   4.125 -0.2765  0.2734 -0.3057
 7225SOL    HW133400   0.151  12.331   4.154  0.0762 -2.0360 -3.0384
 7225SOL    HW233401   0.004  12.318   4.188  0.5531 -0.4418  0.0558
 7226SOL     OW33402   2.696   9.821   7.332 -0.0769 -0.3427 -0.3156
 7226SOL    HW133403   2.605   9.795   7.321  0.1541 -0.9057 -0.9701
 7226SOL    HW233404   2.693   9.913   7.356 -0.7769 -0.1232 -1.2298
 7227SOL     OW33405   5.869   2.435  12.965  0.0474 -0.6585  0.1751
 7227SOL    HW133406   5.931   2.477  13.025 -0.0759 -1.6427  1.0209
 7227SOL    HW233407   5.851   2.502  12.899 -0.1668  0.6450  1.4809
 7228SOL     OW33408   3.622  11.060   7.194 -0.4680 -0.2805 -0.0603
 7228SOL    HW133409   3.709  11.089   7.221 -1.0531  1.5166  0.0358
 7228SOL    HW233410   3.604  11.111   7.115 -0.7011 -2.0092 -1.1721
 7229SOL     OW33411  10.054  13.655   8.531 -0.1809  0.2801 -0.0519
 7229SOL    HW133412  10.149  13.662   8.524 -0.0194 -0.8352  0.6686
 7229SOL    HW233413  10.036  13.561   8.527 -1.0482  0.3138  1.7988
 7230SOL     OW33414   7.889   9.115  10.142 -0.0365  0.9234 -0.4083
 7230SOL    HW133415   7.943   9.148  10.070 -0.5498  0.2844 -1.1105
 7230SOL    HW233416   7.949   9.106  10.216  0.2215  2.8343 -0.3603
 7231SOL     OW33417   4.213   9.620   5.900 -0.3675 -0.0723  0.3002
 7231SOL    HW133418   4.297   9.666   5.896 -0.1212 -0.5292  0.2265
 7231SOL    HW233419   4.148   9.690   5.912 -0.1505  0.4568 -1.3618
 7232SOL     OW33420   3.646   9.281  10.233  0.3385  0.2468  0.4648
 7232SOL    HW133421   3.599   9.331  10.167 -0.2222 -0.0001  0.6730
 7232SOL    HW233422   3.666   9.345  10.302  1.0673  0.5391 -0.0076
 7233SOL     OW33423   1.635   9.483  11.745  0.0097 -0.1886 -0.0993
 7233SOL    HW133424   1.669   9.481  11.656  1.8814 -0.0747  0.5588
 7233SOL    HW233425   1.692   9.545  11.791  0.8309 -2.2214  1.8180
 7234SOL     OW33426   2.550   0.475   7.396  0.1906 -0.1029 -0.0229
 7234SOL    HW133427   2.475   0.529   7.369 -0.0847 -0.1976  0.5451
 7234SOL    HW233428   2.528   0.387   7.366  1.5055  0.3739 -2.7097
 7235SOL     OW33429   8.221   8.747   0.082 -0.4616 -1.1699 -0.0441
 7235SOL    HW133430   8.291   8.682   0.081 -0.2729 -1.0826  2.2679
 7235SOL    HW233431   8.265   8.829   0.059  0.1809 -1.1706  1.0794
 7236SOL     OW33432  10.496   6.380   9.502 -0.3025  0.2785  0.1410
 7236SOL    HW133433  10.466   6.396   9.412  3.5395 -1.0903 -1.6421
 7236SOL    HW233434  10.429   6.325   9.541 -1.5956  0.0106 -2.2801
 7237SOL     OW33435  10.444   7.982   1.689  0.2533 -0.1803  0.4975
 7237SOL    HW133436  10.356   8.020   1.685  1.0616  1.7315 -0.6831
 7237SOL    HW233437  10.436   7.896   1.650 -1.1291 -0.0981  0.5736
 7238SOL     OW33438   0.930   7.095  11.224 -0.2372 -0.2952  0.4113
 7238SOL    HW133439   0.873   7.145  11.166  1.1398  0.6975 -0.1216
 7238SOL    HW233440   0.996   7.056  11.166  1.3362  0.9562  1.2907
 7239SOL     OW33441   3.698   6.668   0.595 -0.1301  0.3941 -0.0145
 7239SOL    HW133442   3.782   6.654   0.551 -0.2559  0.4730 -0.2780
 7239SOL    HW233443   3.634   6.677   0.524 -0.2566  0.9886  0.1716
 7240SOL     OW33444   3.744   0.111   5.556  0.1604 -0.9220 -0.8004
 7240SOL    HW133445   3.691   0.136   5.631  1.6556 -1.3251  0.4524
 7240SOL    HW233446   3.691   0.045   5.510 -1.0825 -0.1324 -0.5449
 7241SOL     OW33447   5.028  10.209  13.040 -0.3953  0.0663  0.1072
 7241SOL    HW133448   5.059  10.218  12.950  1.3960  0.0258  0.6877
 7241SOL    HW233449   4.961  10.141  13.036 -2.1906  1.8069 -1.5801
 7242SOL     OW33450  10.816   9.182  11.233  0.1424  0.8124 -0.8632
 7242SOL    HW133451  10.906   9.203  11.257  0.1112 -0.7071  0.8245
 7242SOL    HW233452  10.763   9.246  11.281  0.2384 -0.1189  0.5554
 7243SOL     OW33453   7.645  11.140   4.770 -0.2059 -0.3895 -0.0842
 7243SOL    HW133454   7.607  11.226   4.783 -1.2190 -0.8509  0.0524
 7243SOL    HW233455   7.689  11.145   4.684  0.8518  0.6374  0.4893
 7244SOL     OW33456   6.895   8.775  10.060  0.3302 -0.4182 -0.1269
 7244SOL    HW133457   6.984   8.801  10.038  0.6025 -2.0836 -1.1840
 7244SOL    HW233458   6.841   8.816   9.993 -0.0040  2.1719  1.5920
 7245SOL     OW33459  10.620   5.396   6.996 -0.1175 -0.0633 -1.0432
 7245SOL    HW133460  10.682   5.347   7.051 -0.7438  1.5465  1.2341
 7245SOL    HW233461  10.542   5.405   7.051 -1.0128  1.1319 -2.4522
 7246SOL     OW33462  11.952  12.999  11.112  0.4175 -0.0260  0.1473
 7246SOL    HW133463  11.926  13.036  11.196  0.7704 -0.6741  0.5551
 7246SOL    HW233464  11.889  13.035  11.049 -0.2819 -0.0757  0.8003
 7247SOL     OW33465  12.822   6.574   5.925 -0.0401 -0.0423  0.3985
 7247SOL    HW133466  12.769   6.654   5.928  0.4196  0.2982 -0.3193
 7247SOL    HW233467  12.823   6.542   6.016  2.1319  2.3112  1.3156
 7248SOL     OW33468  12.453   4.361  13.687  1.1169 -0.2940  0.1978
 7248SOL    HW133469  12.534   4.379  13.639  1.4287 -1.0378  0.4244
 7248SOL    HW233470  12.462   4.409  13.769  0.1341  1.8272 -0.8644
 7249SOL     OW33471   9.591  12.101  10.647  0.0748  0.0692 -0.2628
 7249SOL    HW133472   9.593  12.021  10.594  0.1147  0.5346 -0.9805
 7249SOL    HW233473   9.556  12.168  10.588  1.2283  0.8681 -0.0716
 7250SOL     OW33474  10.937   7.119   9.323  0.1959  0.5600 -0.3621
 7250SOL    HW133475  10.941   7.094   9.415 -3.1105 -2.4113 -0.7893
 7250SOL    HW233476  10.918   7.213   9.325 -0.8879  0.3809  2.0684
 7251SOL     OW33477   6.560   7.188   8.473 -0.4931  0.1756  0.1871
 7251SOL    HW133478   6.578   7.276   8.507  0.6805  0.3582 -0.8485
 7251SOL    HW233479   6.625   7.175   8.404 -2.2115 -0.5233 -1.3902
 7252SOL     OW33480   0.926   2.054   0.351 -0.2558  0.2979 -0.2212
 7252SOL    HW133481   0.985   1.978   0.351 -1.6047 -0.8084  0.5980
 7252SOL    HW233482   0.842   2.018   0.321 -1.0822  1.3291  0.7938
 7253SOL     OW33483   6.358   9.936   6.655  0.4278  0.3979  0.1358
 7253SOL    HW133484   6.275   9.937   6.702 -0.2997  0.4223 -1.0966
 7253SOL    HW233485   6.375  10.028   6.634  0.0907  0.2632 -0.7454
 7254SOL     OW33486   1.558   2.669  10.843  0.5020  0.0638 -0.8536
 7254SOL    HW133487   1.557   2.663  10.747  0.7169 -0.4263 -0.8250
 7254SOL    HW233488   1.465   2.667  10.868  0.4717 -2.7906 -0.8743
 7255SOL     OW33489   1.659   0.363  10.683 -0.0931 -0.0462 -0.3494
 7255SOL    HW133490   1.603   0.311  10.741 -0.9048  1.6232  0.4237
 7255SOL    HW233491   1.660   0.450  10.722  1.1798  0.5547 -1.6343
 7256SOL     OW33492   1.557   4.027   7.620 -0.6659  0.0076  0.0177
 7256SOL    HW133493   1.646   3.994   7.617 -0.1902  1.1009  1.4454
 7256SOL    HW233494   1.527   4.023   7.529  1.2417  0.7166 -0.6815
 7257SOL     OW33495   7.782  11.881   6.640 -0.2397  0.4618  0.4554
 7257SOL    HW133496   7.821  11.879   6.727  0.8238 -0.5714 -0.0221
 7257SOL    HW233497   7.837  11.823   6.587 -1.9126 -0.3607 -0.4727
 7258SOL     OW33498   5.781   8.619   0.860 -0.0207 -0.4828  0.1695
 7258SOL    HW133499   5.687   8.626   0.843 -0.1442 -2.5146 -0.2544
 7258SOL    HW233500   5.787   8.603   0.954 -0.2559 -1.9646 -0.0375
 7259SOL     OW33501  13.672   7.830   8.615  0.5022  0.1499  0.0866
 7259SOL    HW133502  13.739   7.767   8.590  0.9062  0.5177  0.2386
 7259SOL    HW233503  13.655   7.812   8.708  3.0134  2.3874  1.1064
 7260SOL     OW33504   4.433  10.617  12.415 -0.3580 -0.1563  0.0503
 7260SOL    HW133505   4.489  10.547  12.379  0.1768  0.8211 -1.0713
 7260SOL    HW233506   4.450  10.614  12.510  0.2151 -1.0687 -0.0673
 7261SOL     OW33507   1.536  10.378   5.484 -0.2896 -0.9100 -0.4160
 7261SOL    HW133508   1.526  10.472   5.470 -1.6470 -0.7644  1.3092
 7261SOL    HW233509   1.467  10.338   5.431 -0.0498 -0.9185 -0.7280
 7262SOL     OW33510   6.854  12.507   2.642 -0.4476 -0.2019 -0.2098
 7262SOL    HW133511   6.898  12.453   2.576  1.9731  2.4460 -0.9320
 7262SOL    HW233512   6.919  12.572   2.667 -2.8233  1.6869  1.4874
 7263SOL     OW33513   8.493  13.410   5.588 -0.0554 -0.3000 -0.2282
 7263SOL    HW133514   8.401  13.391   5.566 -0.4488  0.6093  0.5824
 7263SOL    HW233515   8.491  13.498   5.624  0.6238 -1.4146  2.8562
 7264SOL     OW33516  11.975  13.232  11.773  0.3922  0.3882 -0.0280
 7264SOL    HW133517  11.992  13.275  11.857  1.4217 -1.5509  0.8395
 7264SOL    HW233518  12.043  13.165  11.767 -1.3931 -1.4645 -1.0022
 7265SOL     OW33519   8.133  13.485   4.755  0.1507 -0.2088  0.8243
 7265SOL    HW133520   8.185  13.409   4.784  0.0928 -0.6812 -0.2678
 7265SOL    HW233521   8.042  13.455   4.761  0.1029 -0.0657  0.8057
 7266SOL     OW33522   6.434   4.696  13.615 -0.0223  0.2068  0.1147
 7266SOL    HW133523   6.359   4.740  13.575 -0.2115  0.8082  1.0930
 7266SOL    HW233524   6.396   4.647  13.689 -0.0794 -2.9337 -1.8058
 7267SOL     OW33525   0.678  11.162  12.986 -0.1443  0.5648  0.6244
 7267SOL    HW133526   0.655  11.096  12.921  0.9589  0.6876  0.0869
 7267SOL    HW233527   0.731  11.225  12.938 -1.0671  1.7792  1.1656
 7268SOL     OW33528   9.137   8.491   2.868  0.2871  0.2846 -0.3581
 7268SOL    HW133529   9.230   8.482   2.890  0.3806  2.1906  0.1819
 7268SOL    HW233530   9.135   8.488   2.772  0.7878 -0.5967 -0.3536
 7269SOL     OW33531  13.640   0.877   9.292 -0.0499 -0.0052  0.7207
 7269SOL    HW133532  13.656   0.912   9.379  4.4704  1.0228 -0.2615
 7269SOL    HW233533  13.620   0.954   9.239  2.5690  0.2745 -0.0218
 7270SOL     OW33534   0.118   0.726   4.019 -0.2295 -0.1239  0.0995
 7270SOL    HW133535   0.195   0.683   4.057 -0.4800 -0.1914  0.5464
 7270SOL    HW233536   0.053   0.655   4.010 -0.8781  0.2469  1.4646
 7271SOL     OW33537   3.572   9.439   8.000 -0.6175  0.2982  0.4776
 7271SOL    HW133538   3.562   9.507   8.067  0.2374  0.1629  0.7608
 7271SOL    HW233539   3.665   9.444   7.975 -0.4850 -0.9169  0.6661
 7272SOL     OW33540  13.135   0.871   5.047 -0.2815 -0.1569  0.4758
 7272SOL    HW133541  13.140   0.905   4.958 -2.4920 -0.1640  0.2837
 7272SOL    HW233542  13.092   0.941   5.097  0.5485 -0.3178  1.4449
 7273SOL     OW33543   5.004   8.662  11.535  0.6118 -0.7504  0.2730
 7273SOL    HW133544   5.040   8.585  11.490  0.6802 -0.6296  0.1175
 7273SOL    HW233545   5.050   8.736  11.495  0.4278 -0.6183  0.3064
 7274SOL     OW33546   4.883   5.159   8.999 -0.0807  0.4190 -0.0794
 7274SOL    HW133547   4.872   5.253   9.015  1.4690  0.7418 -0.6998
 7274SOL    HW233548   4.906   5.154   8.906 -0.2392 -0.5998 -0.0719
 7275SOL     OW33549  10.526  12.004   0.485 -0.3611 -0.3335  0.5164
 7275SOL    HW133550  10.478  11.929   0.520 -1.4915 -0.3868 -1.0638
 7275SOL    HW233551  10.586  11.966   0.421 -1.1122  0.1102 -0.4715
 7276SOL     OW33552   1.058  11.977   7.767 -0.1201 -0.3553  0.2305
 7276SOL    HW133553   1.009  11.895   7.758 -0.4830 -0.1590  0.4464
 7276SOL    HW233554   1.006  12.031   7.826 -0.7431  0.7127 -1.2421
 7277SOL     OW33555  12.908   2.180   7.804 -0.3985  0.7528  0.2279
 7277SOL    HW133556  12.843   2.111   7.810 -0.9168  1.3493  2.0005
 7277SOL    HW233557  12.902   2.227   7.888  2.9162  0.2794  0.8607
 7278SOL     OW33558   6.730   8.642   9.233  0.0303  0.0490  0.3326
 7278SOL    HW133559   6.682   8.560   9.245  1.8084 -1.3917 -1.4698
 7278SOL    HW233560   6.704   8.673   9.147  2.2680 -0.8306 -0.7357
 7279SOL     OW33561  13.563   3.234   9.581 -0.2363 -0.5618 -0.4403
 7279SOL    HW133562  13.594   3.288   9.654 -1.8512  1.5972 -1.2155
 7279SOL    HW233563  13.613   3.266   9.506 -0.6670 -0.6821 -0.7766
 7280SOL     OW33564   2.017   4.933  11.465 -0.2916 -0.4153  0.1225
 7280SOL    HW133565   1.983   4.890  11.386 -1.8614 -0.2081  0.6651
 7280SOL    HW233566   2.106   4.958  11.441 -0.1605 -1.8334 -1.0186
 7281SOL     OW33567  12.193   4.627   2.898  0.7687 -0.0182  0.3443
 7281SOL    HW133568  12.137   4.559   2.936 -0.3276 -0.0320 -1.2129
 7281SOL    HW233569  12.282   4.597   2.915  0.3263 -0.5356  1.9385
 7282SOL     OW33570   6.439  10.974   4.122  0.0618 -0.4873 -0.1865
 7282SOL    HW133571   6.365  10.970   4.061 -0.1735 -0.3712  0.0869
 7282SOL    HW233572   6.508  10.922   4.080 -0.0288 -0.2451 -0.6399
 7283SOL     OW33573   2.237   3.431   2.522  0.3647  0.0311  0.6035
 7283SOL    HW133574   2.257   3.499   2.586 -1.7075 -0.3226  1.7210
 7283SOL    HW233575   2.258   3.470   2.437  1.0238  1.3273  1.3363
 7284SOL     OW33576   6.041   8.120  11.360  0.3049  0.2366  0.0473
 7284SOL    HW133577   5.991   8.134  11.280  0.4336 -3.8258 -0.9497
 7284SOL    HW233578   6.132   8.121  11.333  0.3746 -0.5085  0.2182
 7285SOL     OW33579   0.461  13.368   2.806  0.1260 -0.5763 -0.1379
 7285SOL    HW133580   0.483  13.397   2.895  0.7773 -1.1958 -0.0829
 7285SOL    HW233581   0.527  13.408   2.750  0.6559 -1.4063 -0.1364
 7286SOL     OW33582   9.314   1.059   8.502 -0.1917  0.3986 -0.3005
 7286SOL    HW133583   9.357   1.123   8.558 -0.3122  1.4996 -1.4128
 7286SOL    HW233584   9.234   1.036   8.549  1.5031 -1.6856  1.8076
 7287SOL     OW33585   2.475   4.069   9.900  0.0277  0.5206  0.2905
 7287SOL    HW133586   2.494   4.041   9.990  0.6123  0.7189  0.2342
 7287SOL    HW233587   2.464   4.163   9.907  2.2390  0.8711 -0.1655
 7288SOL     OW33588  13.384   6.458   9.329  0.2431 -0.2585  0.1369
 7288SOL    HW133589  13.412   6.372   9.297  0.9552  0.1879 -0.4713
 7288SOL    HW233590  13.348   6.502   9.252 -0.0838  0.0108  0.4378
 7289SOL     OW33591   4.880  11.553   3.859 -0.0557  0.3079 -0.1410
 7289SOL    HW133592   4.946  11.567   3.790 -2.0865  3.4895 -1.7238
 7289SOL    HW233593   4.796  11.566   3.814 -1.8678 -3.3047  1.8237
 7290SOL     OW33594   7.559   8.704   7.651 -0.4172 -0.1382 -0.2469
 7290SOL    HW133595   7.472   8.722   7.687 -0.8139 -1.8129 -0.3100
 7290SOL    HW233596   7.543   8.641   7.581  0.7741  0.1447 -0.7955
 7291SOL     OW33597   8.227   3.603   1.684 -0.6220 -0.4152  0.4504
 7291SOL    HW133598   8.242   3.562   1.770 -0.2959 -0.4516  0.3773
 7291SOL    HW233599   8.132   3.612   1.678 -0.6205  0.1673  1.0889
 7292SOL     OW33600   1.916   7.975   4.501 -0.6124 -0.0526 -0.0682
 7292SOL    HW133601   1.964   8.058   4.500 -0.7157  0.0180  0.8193
 7292SOL    HW233602   1.953   7.926   4.427  1.6167 -0.4434  1.2131
 7293SOL     OW33603   0.631   2.921   0.899  0.1348 -0.4721 -0.1532
 7293SOL    HW133604   0.598   2.847   0.950 -0.4553 -0.6303 -0.7540
 7293SOL    HW233605   0.585   2.916   0.816  2.6548 -1.4981 -1.6057
 7294SOL     OW33606   4.692   5.063   6.938 -0.8152  0.4888  0.4553
 7294SOL    HW133607   4.707   4.975   6.972  1.3242  0.7476  0.2664
 7294SOL    HW233608   4.633   5.103   7.002  1.5159  0.2864  2.8932
 7295SOL     OW33609   6.984   5.040   7.594 -0.3150 -0.4792  0.0585
 7295SOL    HW133610   6.961   4.999   7.677 -0.8474 -0.2313  0.0332
 7295SOL    HW233611   6.916   5.012   7.533 -0.7644  0.5360  0.0728
 7296SOL     OW33612   8.262   2.418   2.310  0.4520  0.5260 -0.1213
 7296SOL    HW133613   8.317   2.369   2.371 -1.1007 -2.1091 -0.7127
 7296SOL    HW233614   8.256   2.363   2.232 -1.3007  1.7044 -0.8905
 7297SOL     OW33615   7.284   5.319   4.873 -0.2499  0.5582 -0.2892
 7297SOL    HW133616   7.306   5.406   4.838 -0.4740 -0.0386 -1.9853
 7297SOL    HW233617   7.349   5.261   4.834 -0.3159 -0.0933  0.5639
 7298SOL     OW33618   2.176  11.758   4.365 -0.2498  0.5517 -0.1917
 7298SOL    HW133619   2.249  11.745   4.305 -0.0680 -2.1611  0.4604
 7298SOL    HW233620   2.182  11.684   4.426 -2.4406  1.2919  1.0340
 7299SOL     OW33621  11.058  12.321   1.004  0.1463 -0.2425  0.8720
 7299SOL    HW133622  11.137  12.353   0.960  0.2437  0.0470  1.2535
 7299SOL    HW233623  11.065  12.355   1.093  1.0867 -2.6688  1.8171
 7300SOL     OW33624   4.554   2.356   8.787  0.9708 -0.1195  0.3021
 7300SOL    HW133625   4.528   2.440   8.750 -3.2502 -0.4899  1.7799
 7300SOL    HW233626   4.583   2.377   8.876 -0.1401 -0.1698  0.6919
 7301SOL     OW33627   2.850  10.256   0.819 -0.2922 -0.2837  1.0502
 7301SOL    HW133628   2.861  10.324   0.753 -1.5188  0.7149  1.8355
 7301SOL    HW233629   2.922  10.268   0.880  0.7914 -1.1485 -0.0056
 7302SOL     OW33630  11.089   4.855  10.426 -0.1269  0.5326 -0.7157
 7302SOL    HW133631  11.091   4.930  10.485  0.6424  0.0598 -0.1200
 7302SOL    HW233632  11.044   4.887  10.348  1.0789  1.9249 -0.8913
 7303SOL     OW33633   9.770   2.193   8.592 -0.0946 -0.2903 -0.2289
 7303SOL    HW133634   9.859   2.162   8.575  0.0607  0.4292 -0.7807
 7303SOL    HW233635   9.766   2.203   8.687  0.8299  0.8437 -0.2831
 7304SOL     OW33636   6.382  10.708   7.674 -0.0308  0.0785 -0.1142
 7304SOL    HW133637   6.403  10.647   7.744  1.6379  0.6350 -0.0846
 7304SOL    HW233638   6.391  10.657   7.594  2.8579  0.5460 -0.1984
 7305SOL     OW33639  13.540  10.400   9.569 -0.4080  0.2593  0.0818
 7305SOL    HW133640  13.596  10.474   9.594 -1.0694  0.6431  0.4710
 7305SOL    HW233641  13.498  10.428   9.488 -0.2494  0.0792 -0.0652
 7306SOL     OW33642   7.007   7.889   9.071 -0.2732  0.1501  0.4915
 7306SOL    HW133643   6.983   7.895   9.163  0.2634  2.5399  0.5367
 7306SOL    HW233644   6.951   7.954   9.027  0.1784 -0.2395 -0.7028
 7307SOL     OW33645   8.908   9.542   2.304  1.0280  0.2004  0.2949
 7307SOL    HW133646   8.839   9.594   2.265  1.3782  0.0271 -0.5800
 7307SOL    HW233647   8.986   9.563   2.253  1.1003 -1.4466 -0.3489
 7308SOL     OW33648  10.050   6.655   2.775 -0.6187  0.2422  0.2244
 7308SOL    HW133649  10.000   6.737   2.777 -1.6062 -0.3416 -0.0162
 7308SOL    HW233650  10.060   6.635   2.682 -0.2451  0.1725  0.2800
 7309SOL     OW33651   3.212  13.104  13.260  0.0892 -0.1302 -0.1224
 7309SOL    HW133652   3.155  13.030  13.283 -1.6445  1.3297  0.5528
 7309SOL    HW233653   3.255  13.127  13.343 -1.5574  1.3388  0.3920
 7310SOL     OW33654  13.273   0.744  11.166 -0.1501 -0.3159 -0.1862
 7310SOL    HW133655  13.260   0.723  11.074 -0.9466  1.4109 -0.5151
 7310SOL    HW233656  13.357   0.791  11.169  0.7094 -1.8174  0.2548
 7311SOL     OW33657   6.422   4.238  13.315 -0.5713 -0.1425 -0.0288
 7311SOL    HW133658   6.459   4.315  13.271 -0.7984  0.2115  0.3932
 7311SOL    HW233659   6.382   4.273  13.394 -0.0053 -0.8046  0.5586
 7312SOL     OW33660  10.956   6.936  10.237  0.0912 -0.5372  0.1679
 7312SOL    HW133661  10.971   6.862  10.178  0.6424 -0.7618  0.5710
 7312SOL    HW233662  10.921   6.896  10.317  0.7621 -0.4259  0.5338
 7313SOL     OW33663   4.710   6.692   1.169 -0.2456  0.1525  0.0241
 7313SOL    HW133664   4.618   6.695   1.143 -0.3181 -3.0849 -0.5727
 7313SOL    HW233665   4.758   6.697   1.086 -0.1692 -2.7347 -0.2015
 7314SOL     OW33666  13.658   3.857   9.323  0.5036  0.6724  1.0509
 7314SOL    HW133667  13.739   3.897   9.355  0.1199  1.8008  0.6686
 7314SOL    HW233668  13.590   3.921   9.343  0.1883  1.2975 -1.6624
 7315SOL     OW33669   4.842   2.723  12.806 -0.4101  0.4447 -0.2631
 7315SOL    HW133670   4.831   2.655  12.873 -0.5564  0.8448  0.1256
 7315SOL    HW233671   4.831   2.805  12.854 -0.1747  0.7434 -0.7200
 7316SOL     OW33672   1.077   2.608   8.540 -0.1379 -0.4802  0.0265
 7316SOL    HW133673   1.172   2.607   8.526 -0.2685  1.0591 -1.2675
 7316SOL    HW233674   1.064   2.556   8.619  1.6474 -1.9055 -0.5300
 7317SOL     OW33675  12.053   8.891   6.608  0.3048 -0.2578  0.5224
 7317SOL    HW133676  12.094   8.975   6.591 -2.1442  0.7716 -0.8593
 7317SOL    HW233677  12.102   8.829   6.553  1.3619  0.4716  0.6193
 7318SOL     OW33678  11.010   5.682  10.811 -0.2995  0.0044  0.2405
 7318SOL    HW133679  10.996   5.775  10.795 -0.7736 -0.4427 -2.4663
 7318SOL    HW233680  11.012   5.674  10.906  0.5816  2.8768  0.5776
 7319SOL     OW33681   3.828   6.109   6.923 -0.2146  0.1006  0.0676
 7319SOL    HW133682   3.802   6.147   7.008 -2.7642 -0.2938 -0.4741
 7319SOL    HW233683   3.889   6.039   6.946 -0.2494  0.5117  1.5238
 7320SOL     OW33684  11.711   3.579   4.167 -0.6441  0.1370  0.3001
 7320SOL    HW133685  11.624   3.602   4.200 -0.6338 -0.0244  0.4411
 7320SOL    HW233686  11.763   3.563   4.246  0.2736  2.8617  0.3375
 7321SOL     OW33687   1.536   8.364   1.857  0.1914 -0.9917 -0.1998
 7321SOL    HW133688   1.565   8.274   1.877  0.8019 -0.9972 -1.0325
 7321SOL    HW233689   1.457   8.352   1.804 -0.0009 -1.0251  0.0923
 7322SOL     OW33690  13.098   9.370   1.801  0.0418  0.0277  0.2544
 7322SOL    HW133691  13.020   9.407   1.760  0.4496 -0.0530 -0.6140
 7322SOL    HW233692  13.138   9.316   1.733  0.1237 -1.0448  1.1128
 7323SOL     OW33693   3.218   1.445   1.097  0.0156  0.3495 -0.0608
 7323SOL    HW133694   3.203   1.524   1.150  0.1049 -0.1652  0.7456
 7323SOL    HW233695   3.149   1.449   1.030 -0.3033  0.8493  0.2809
 7324SOL     OW33696   6.213  12.526  10.579  0.2986  0.3381  0.5789
 7324SOL    HW133697   6.278  12.545  10.511 -2.6317  1.4265 -2.1991
 7324SOL    HW233698   6.239  12.580  10.653  0.6442  3.6440 -1.7196
 7325SOL     OW33699  11.513   6.977  12.065 -0.0266 -0.2396  0.6030
 7325SOL    HW133700  11.461   6.956  12.142  0.7874 -1.1020  0.9399
 7325SOL    HW233701  11.565   6.898  12.049 -0.5390 -0.2704 -1.1360
 7326SOL     OW33702   2.062   1.538  10.773  0.2675  0.1165 -0.7968
 7326SOL    HW133703   2.115   1.617  10.768 -0.9659  1.0416  0.2623
 7326SOL    HW233704   1.993   1.558  10.836 -0.2134 -1.7264 -0.6575
 7327SOL     OW33705  10.222   3.513  11.441 -0.4128  0.0534  0.7468
 7327SOL    HW133706  10.263   3.586  11.395 -2.2694  0.0408 -1.0584
 7327SOL    HW233707  10.294   3.470  11.487  0.9905  2.0026  0.4793
 7328SOL     OW33708   2.473   8.720   0.281 -0.6197 -0.0155 -0.6854
 7328SOL    HW133709   2.388   8.756   0.256 -0.2679  1.1679 -0.2303
 7328SOL    HW233710   2.458   8.682   0.368 -0.6035  0.5233 -0.4430
 7329SOL     OW33711   6.673   0.270  12.116 -0.0656  0.3144 -0.1302
 7329SOL    HW133712   6.664   0.319  12.034 -0.5918  0.1979 -0.1469
 7329SOL    HW233713   6.714   0.187  12.089 -1.4742 -0.2950 -0.5095
 7330SOL     OW33714   0.347  11.842  10.008 -0.0174 -0.3337  0.0994
 7330SOL    HW133715   0.275  11.836  10.070 -1.4757  3.0693 -1.0104
 7330SOL    HW233716   0.305  11.846   9.922  1.3914  1.7185 -0.5872
 7331SOL     OW33717   0.579   8.512   2.675 -0.1277 -0.5830 -0.5388
 7331SOL    HW133718   0.495   8.473   2.702 -0.4922  0.6021  0.0827
 7331SOL    HW233719   0.586   8.491   2.582 -0.3592 -2.0345 -0.2580
 7332SOL     OW33720   6.255   8.383   4.264 -0.3034 -0.4666  0.2209
 7332SOL    HW133721   6.227   8.387   4.355 -1.0642 -0.0914 -0.0244
 7332SOL    HW233722   6.239   8.292   4.238 -2.1472 -0.0863 -0.1574
 7333SOL     OW33723   6.024   5.871   0.922 -0.8381  0.5665 -0.5740
 7333SOL    HW133724   5.943   5.820   0.922 -0.9650  0.7663 -1.2994
 7333SOL    HW233725   6.000   5.956   0.886 -0.7431  1.3688  1.1312
 7334SOL     OW33726   7.065   6.872   6.587 -0.2036  0.4714 -0.4828
 7334SOL    HW133727   7.072   6.956   6.541  1.0566  1.0884  0.7558
 7334SOL    HW233728   6.987   6.831   6.551 -0.4414  1.8663 -1.6287
 7335SOL     OW33729  13.445   0.332  12.810  0.2291  0.1837  0.1465
 7335SOL    HW133730  13.461   0.390  12.885 -1.3944  0.6209  0.1902
 7335SOL    HW233731  13.500   0.367  12.740  0.0227  1.1764  0.4706
 7336SOL     OW33732  10.441   5.417   2.762 -0.0724  0.0143  0.2511
 7336SOL    HW133733  10.372   5.381   2.817 -0.6759  3.5545  2.0823
 7336SOL    HW233734  10.394   5.466   2.694  0.6744 -0.0917 -0.3567
 7337SOL     OW33735   2.396   3.139   6.254  0.2742 -0.0466  0.2188
 7337SOL    HW133736   2.374   3.204   6.322 -0.3076  0.5129 -0.4847
 7337SOL    HW233737   2.375   3.055   6.294 -1.7431  0.3622  0.1532
 7338SOL     OW33738   4.224  11.601   1.640  0.3763  0.0165  0.3375
 7338SOL    HW133739   4.193  11.652   1.564 -0.4953 -0.9857 -0.0163
 7338SOL    HW233740   4.155  11.612   1.706  0.3590 -0.3785  0.3916
 7339SOL     OW33741  11.703   4.975  12.096  0.1603  0.5101 -0.1729
 7339SOL    HW133742  11.669   4.993  12.184 -0.4993  1.7039 -0.6433
 7339SOL    HW233743  11.793   4.948  12.111 -0.2362 -0.2800  0.9372
 7340SOL     OW33744   4.061   4.790   9.824  0.6670  0.2461 -0.1501
 7340SOL    HW133745   4.081   4.702   9.792  0.6039  0.4246 -0.7010
 7340SOL    HW233746   4.147   4.830   9.839  0.7082  0.3525 -0.6502
 7341SOL     OW33747   3.836  12.104   7.277  0.3596 -0.5943  0.1220
 7341SOL    HW133748   3.813  12.170   7.212  1.8593 -0.2008 -0.0482
 7341SOL    HW233749   3.857  12.154   7.355  0.9953 -0.9034  0.1510
 7342SOL     OW33750  13.693  11.871  12.912 -0.2050  0.0020 -0.1645
 7342SOL    HW133751  13.749  11.910  12.845 -0.9465 -1.1728 -1.5134
 7342SOL    HW233752  13.736  11.788  12.935  0.6732  0.9035  1.7376
 7343SOL     OW33753   4.735  13.122  13.115  0.1725  0.2605  0.1036
 7343SOL    HW133754   4.652  13.075  13.121 -0.2133  0.8949 -0.2381
 7343SOL    HW233755   4.747  13.161  13.202  0.7070 -0.8045  0.5257
 7344SOL     OW33756  12.747  12.372   4.662 -0.2992 -0.0466  0.1821
 7344SOL    HW133757  12.838  12.364   4.691 -0.9593  0.2047  2.4915
 7344SOL    HW233758  12.714  12.450   4.706 -1.5942 -0.0161 -0.7835
 7345SOL     OW33759   3.015  12.639   4.149 -0.6211  0.1503 -0.3577
 7345SOL    HW133760   3.090  12.584   4.129  1.2741  1.8892  1.5878
 7345SOL    HW233761   3.041  12.690   4.225 -3.5875  1.2448  0.0651
 7346SOL     OW33762   3.081  12.048   2.380  0.7710 -0.3003  0.6871
 7346SOL    HW133763   3.081  12.140   2.356 -0.2849 -0.3202  0.5363
 7346SOL    HW233764   3.150  12.040   2.446  0.0266  0.8704  1.6622
 7347SOL     OW33765   4.680  11.327  12.039  0.1872  0.0905 -0.4018
 7347SOL    HW133766   4.697  11.408  12.087 -0.6599  0.6068 -0.9310
 7347SOL    HW233767   4.659  11.263  12.107  0.3891  0.4446 -0.0039
 7348SOL     OW33768   9.471   4.614   8.991  0.3111 -0.1140  0.2665
 7348SOL    HW133769   9.455   4.697   8.945  0.5474  0.3122  0.9359
 7348SOL    HW233770   9.525   4.563   8.931  0.9585  0.5971  0.2324
 7349SOL     OW33771   3.678   4.293  10.084  0.0686  0.1204 -0.3944
 7349SOL    HW133772   3.715   4.367  10.132 -0.6146  0.6826 -0.7215
 7349SOL    HW233773   3.594   4.275  10.127 -0.3765  0.3851 -1.1283
 7350SOL     OW33774   1.858   3.861   9.132 -0.2145 -0.2538  0.1166
 7350SOL    HW133775   1.763   3.850   9.128 -0.6023  2.4385  0.3294
 7350SOL    HW233776   1.893   3.794   9.073 -2.3101 -0.3226 -1.1277
 7351SOL     OW33777   2.969  12.528   8.103 -0.7154 -0.3854  0.0568
 7351SOL    HW133778   3.060  12.509   8.125 -0.8506 -0.6356  0.4083
 7351SOL    HW233779   2.966  12.523   8.008 -0.6625 -1.7790  0.1073
 7352SOL     OW33780   4.001  11.056   7.089 -0.7480  0.3797  0.6477
 7352SOL    HW133781   3.974  11.131   7.142  2.2994  1.3142  1.0781
 7352SOL    HW233782   4.008  11.091   7.000 -4.0922 -0.7441 -0.2072
 7353SOL     OW33783  10.854   8.325   2.455  0.4107 -0.1397 -0.3231
 7353SOL    HW133784  10.859   8.420   2.467 -1.2889 -0.1313  0.6407
 7353SOL    HW233785  10.925   8.305   2.394  0.9595  1.7087 -0.3604
 7354SOL     OW33786   3.252  12.833   5.446 -0.1387 -0.5334  0.2778
 7354SOL    HW133787   3.338  12.828   5.487  0.4906 -0.5987 -1.0044
 7354SOL    HW233788   3.261  12.784   5.364 -0.8736  0.9489 -0.7453
 7355SOL     OW33789  10.354   4.788   5.464 -0.3987  0.3090  0.7335
 7355SOL    HW133790  10.373   4.701   5.500 -0.1375  0.3408  0.6718
 7355SOL    HW233791  10.259   4.795   5.468 -0.4259 -0.0112  0.6665
 7356SOL     OW33792  12.499   5.744  10.597  0.2118 -0.1298  0.7208
 7356SOL    HW133793  12.423   5.797  10.571  0.0187 -0.2398  1.0520
 7356SOL    HW233794  12.564   5.759  10.528  0.2938  0.8222  0.9886
 7357SOL     OW33795   0.950   4.195   9.870 -0.0647  0.4354  0.3426
 7357SOL    HW133796   0.895   4.172   9.945 -0.0629 -0.8634 -0.0385
 7357SOL    HW233797   1.038   4.167   9.895 -0.2172 -0.8734 -0.4848
 7358SOL     OW33798   4.964   4.541   2.567  0.0530 -0.0233 -0.7766
 7358SOL    HW133799   4.974   4.494   2.484 -1.8336 -0.7408 -0.6377
 7358SOL    HW233800   4.958   4.472   2.633  1.3664  0.5410 -0.0123
 7359SOL     OW33801   1.086  11.340   0.469 -0.0932  0.3880  0.6010
 7359SOL    HW133802   1.151  11.283   0.429 -1.6852 -0.7156 -0.5445
 7359SOL    HW233803   1.131  11.381   0.543  1.9862 -0.0024 -0.4016
 7360SOL     OW33804  13.632   4.219  12.654 -0.0169 -0.5415  0.2181
 7360SOL    HW133805  13.675   4.221  12.569  2.4124 -0.4349  1.3502
 7360SOL    HW233806  13.634   4.310  12.684  0.5443 -0.7820  0.9747
 7361SOL     OW33807  13.436   4.171   0.305 -0.1396 -0.1481 -0.5935
 7361SOL    HW133808  13.432   4.079   0.332 -1.3172 -0.2009 -0.8978
 7361SOL    HW233809  13.514   4.176   0.250  1.6607 -0.2843  1.8237
 7362SOL     OW33810   5.447   8.442  12.268  0.0484  0.2592 -0.1040
 7362SOL    HW133811   5.505   8.366  12.274  0.3706  0.5616  0.7167
 7362SOL    HW233812   5.504   8.517  12.280 -0.5358  0.5557  0.9276
 7363SOL     OW33813   9.535   7.997   3.361 -0.2583 -0.1028  0.4370
 7363SOL    HW133814   9.481   7.963   3.433 -1.4198 -1.4098 -0.9646
 7363SOL    HW233815   9.520   8.091   3.361 -2.3984 -0.3976  0.2630
 7364SOL     OW33816  10.250   2.410   8.822 -0.4080  0.0192  0.4486
 7364SOL    HW133817  10.214   2.367   8.900  0.4283  0.6209  1.1916
 7364SOL    HW233818  10.338   2.437   8.849  1.3343 -2.8438 -1.7871
 7365SOL     OW33819   9.562   4.552   3.807  0.1971  0.8277 -0.3060
 7365SOL    HW133820   9.557   4.602   3.888  0.1222  0.2975  0.0228
 7365SOL    HW233821   9.527   4.610   3.739  4.2210  3.0338 -0.8053
 7366SOL     OW33822  11.640   8.411  11.768  0.4031 -0.4626  0.2274
 7366SOL    HW133823  11.565   8.427  11.826 -0.4853  0.0167 -1.0117
 7366SOL    HW233824  11.709   8.468  11.802 -0.9795  1.9470 -0.8091
 7367SOL     OW33825   4.377  12.654  11.478  0.7938 -0.3163 -0.3168
 7367SOL    HW133826   4.388  12.726  11.539  0.8459  0.0350 -0.7330
 7367SOL    HW233827   4.305  12.681  11.421 -0.9264 -1.6833  1.0803
 7368SOL     OW33828   1.001   6.136  13.065 -0.2442 -0.0031 -0.0297
 7368SOL    HW133829   0.998   6.225  13.032  1.1862 -0.6245 -2.0031
 7368SOL    HW233830   1.045   6.086  12.997 -1.8435 -2.4381  0.5702
 7369SOL     OW33831   9.209  12.597   6.877  0.4984  0.1419  0.1155
 7369SOL    HW133832   9.227  12.651   6.954  0.7700  0.1204  0.0691
 7369SOL    HW233833   9.122  12.560   6.893  0.8463 -0.4333  0.7466
 7370SOL     OW33834   4.625   0.062   6.979 -0.1693 -0.0397 -0.0519
 7370SOL    HW133835   4.540   0.066   7.022  0.1454 -0.0859  0.6011
 7370SOL    HW233836   4.616  -0.007   6.913 -0.9683  0.7337 -0.7707
 7371SOL     OW33837   0.066   2.296   5.865  0.0133  0.2142 -0.2259
 7371SOL    HW133838   0.151   2.279   5.824 -0.2859 -1.2671 -0.2948
 7371SOL    HW233839   0.071   2.250   5.949 -1.5739 -2.0921 -1.2807
 7372SOL     OW33840  10.641   0.056   0.336  0.1736  0.6480 -0.3796
 7372SOL    HW133841  10.692   0.003   0.275 -2.7966  0.2746 -2.7202
 7372SOL    HW233842  10.617  -0.005   0.406  1.1653  0.3171 -0.3092
 7373SOL     OW33843  12.175   7.204   5.232  0.0078  0.0854 -0.5019
 7373SOL    HW133844  12.156   7.250   5.314  2.1829  1.8958 -0.9198
 7373SOL    HW233845  12.108   7.235   5.171 -1.1154 -0.6393  0.3054
 7374SOL     OW33846   5.853   5.791   1.516  0.1618  0.1965  0.3291
 7374SOL    HW133847   5.818   5.850   1.449 -0.4516  0.7392  1.1081
 7374SOL    HW233848   5.872   5.847   1.591  0.9536 -0.3850  0.5812
 7375SOL     OW33849   2.124   8.985   1.397 -0.0297 -0.5354  0.0070
 7375SOL    HW133850   2.038   8.995   1.437 -0.9023 -1.5553 -1.5316
 7375SOL    HW233851   2.182   9.039   1.452 -1.0608 -2.0515  2.7885
 7376SOL     OW33852   4.328   6.443   0.817  0.1666 -0.3544  0.0794
 7376SOL    HW133853   4.258   6.381   0.836  0.1712  0.0919  1.6316
 7376SOL    HW233854   4.401   6.416   0.872  0.3012  0.7881  0.4855
 7377SOL     OW33855   4.647  13.634  10.424 -0.3849  0.2001 -0.6134
 7377SOL    HW133856   4.578  13.701  10.434 -0.5021  0.3213 -2.0017
 7377SOL    HW233857   4.728  13.682  10.441 -0.5417  0.4238 -0.4738
 7378SOL     OW33858   3.610   9.402  11.509  0.3126 -0.0937  0.5921
 7378SOL    HW133859   3.637   9.389  11.600  0.2807 -1.9669  0.3685
 7378SOL    HW233860   3.564   9.486  11.509  0.6069  0.0928  2.2327
 7379SOL     OW33861  11.463   3.238   6.507  0.4163  0.5182 -0.5517
 7379SOL    HW133862  11.378   3.281   6.516  0.5690  0.7578 -0.2500
 7379SOL    HW233863  11.482   3.240   6.413  0.0326  0.3512 -0.6360
 7380SOL     OW33864   8.805  12.725   3.921  0.4049  0.0699  0.1288
 7380SOL    HW133865   8.901  12.727   3.913  0.4227  0.4561  0.3986
 7380SOL    HW233866   8.774  12.784   3.852  0.3606 -0.0501  0.0461
 7381SOL     OW33867  10.287   6.903  13.327  0.1273  0.1535  0.1858
 7381SOL    HW133868  10.282   6.836  13.259 -0.4943 -0.7569  1.1044
 7381SOL    HW233869  10.306   6.984  13.280  0.6080 -0.6111 -0.9745
 7382SOL     OW33870   2.490   3.904  10.412  0.5805  0.0939 -0.5350
 7382SOL    HW133871   2.501   3.986  10.459 -0.5803  0.5024 -0.9492
 7382SOL    HW233872   2.570   3.854  10.433  0.6328  0.7191  0.9008
 7383SOL     OW33873   7.439   4.841  13.346 -0.1999  0.6079 -0.4359
 7383SOL    HW133874   7.408   4.858  13.257 -1.4266 -0.7177 -0.3149
 7383SOL    HW233875   7.376   4.777  13.381  0.5341  0.7284  1.2138
 7384SOL     OW33876   2.931   6.526   2.843  0.0385  0.1705 -0.0123
 7384SOL    HW133877   2.909   6.559   2.930 -0.5385  0.3315 -0.2155
 7384SOL    HW233878   2.940   6.604   2.789  0.9766  0.0994  0.0302
 7385SOL     OW33879  12.338   4.733   7.109  0.0689  0.4348 -0.5759
 7385SOL    HW133880  12.273   4.710   7.043  0.5876  0.6763 -1.1897
 7385SOL    HW233881  12.409   4.774   7.059 -0.9157  3.7141  0.4262
 7386SOL     OW33882   5.866  12.164  12.700  0.4494  0.2908 -0.6591
 7386SOL    HW133883   5.793  12.219  12.728 -0.3618 -0.3743 -1.4508
 7386SOL    HW233884   5.838  12.075  12.718  2.0077  0.0896  1.2165
 7387SOL     OW33885   7.492   4.110   7.323  0.0512  0.2621  0.0094
 7387SOL    HW133886   7.565   4.049   7.323 -0.1528  0.0146 -0.0606
 7387SOL    HW233887   7.433   4.077   7.391  0.2318  0.7341  0.3955
 7388SOL     OW33888  13.570   0.065  13.427 -0.4962 -0.3404  0.3260
 7388SOL    HW133889  13.494   0.007  13.423 -0.7865 -0.0076  0.9517
 7388SOL    HW233890  13.581   0.096  13.337 -1.2811 -0.1661  0.2863
 7389SOL     OW33891   7.138   9.972   6.897 -0.4798  0.2409 -0.5639
 7389SOL    HW133892   7.180  10.050   6.860 -2.1217  1.3328 -0.2440
 7389SOL    HW233893   7.171   9.968   6.987 -0.6390  0.7939 -0.4722
 7390SOL     OW33894   9.483   6.104   3.728  0.0844  0.1739  0.0583
 7390SOL    HW133895   9.508   6.189   3.765  2.3660 -1.1773  1.9112
 7390SOL    HW233896   9.545   6.092   3.655  1.0429 -0.6772  0.9916
 7391SOL     OW33897   9.572   6.904   2.754 -0.3376 -0.1115  0.3105
 7391SOL    HW133898   9.495   6.848   2.744 -1.3622  1.2002  0.6108
 7391SOL    HW233899   9.619   6.896   2.671 -1.9400  0.6957 -0.7312
 7392SOL     OW33900   8.496   0.104   1.263  0.1866  0.1889  0.2321
 7392SOL    HW133901   8.436   0.052   1.316  0.2841  0.9218  1.0903
 7392SOL    HW233902   8.491   0.065   1.176 -1.8529  0.4739  0.1613
 7393SOL     OW33903   1.079  13.328   5.290 -0.4104  0.4195  0.3392
 7393SOL    HW133904   1.117  13.272   5.358 -0.7517 -0.7721 -0.4194
 7393SOL    HW233905   1.138  13.319   5.216 -0.8775  0.4778 -0.0447
 7394SOL     OW33906   6.376   2.158   6.251 -0.5653 -0.6175 -0.0224
 7394SOL    HW133907   6.339   2.214   6.183  1.4350 -1.5702 -2.0165
 7394SOL    HW233908   6.451   2.209   6.285 -1.5330 -0.1560  1.5340
 7395SOL     OW33909   7.070   8.971   4.019 -0.1439 -0.0242 -0.2843
 7395SOL    HW133910   7.162   8.948   4.003 -0.0926  0.0935 -0.1595
 7395SOL    HW233911   7.069   9.066   4.020 -0.5147  0.0043 -1.7267
 7396SOL     OW33912   5.233  13.345   2.418  0.2417 -0.0367  0.4137
 7396SOL    HW133913   5.234  13.337   2.323 -1.7803  0.9198  0.2558
 7396SOL    HW233914   5.300  13.283   2.448  1.1881 -0.0887 -1.6185
 7397SOL     OW33915  11.875   5.664   5.583  0.1482 -0.5564  0.6276
 7397SOL    HW133916  11.956   5.715   5.592 -0.3546  0.1105  1.4279
 7397SOL    HW233917  11.906   5.575   5.562  1.0736 -0.2277  0.5455
 7398SOL     OW33918   4.282  11.755   9.219 -0.0569 -0.3896 -0.4902
 7398SOL    HW133919   4.273  11.762   9.124 -1.9363  3.6444 -0.2233
 7398SOL    HW233920   4.232  11.677   9.242 -3.9523  1.2169 -2.5491
 7399SOL     OW33921   0.963   6.734  11.622 -0.2541  0.0077  0.1755
 7399SOL    HW133922   0.873   6.702  11.612 -0.3440 -0.1789  1.3867
 7399SOL    HW233923   0.952   6.820  11.665  0.1426 -0.0609  0.4143
 7400SOL     OW33924   1.249   9.294   8.940 -0.2918 -0.1341 -0.2411
 7400SOL    HW133925   1.336   9.259   8.919  0.2231  0.1323  1.3497
 7400SOL    HW233926   1.219   9.332   8.858  1.5086  0.6340 -0.5921
 7401SOL     OW33927  10.806   6.543   4.278 -0.1455  0.1626 -0.5693
 7401SOL    HW133928  10.784   6.497   4.197  0.7236 -1.9768  0.3394
 7401SOL    HW233929  10.721   6.566   4.316 -0.5737  0.4394 -1.6471
 7402SOL     OW33930  12.602   5.065   9.586 -0.0074  0.0177  0.3449
 7402SOL    HW133931  12.686   5.020   9.595  0.3514  1.0009  2.7782
 7402SOL    HW233932  12.568   5.070   9.676 -3.0825 -1.0414 -0.6518
 7403SOL     OW33933   0.020   3.522  12.127 -0.0033  0.2590 -0.5331
 7403SOL    HW133934  -0.024   3.571  12.196 -0.5546  0.0003 -0.6936
 7403SOL    HW233935   0.105   3.564  12.117 -0.6958  1.5784 -1.0881
 7404SOL     OW33936  10.013   3.969   5.650  0.3261 -0.7744 -0.7172
 7404SOL    HW133937  10.041   3.985   5.740 -2.3721 -2.0770  0.4682
 7404SOL    HW233938   9.974   4.051   5.621 -0.6925 -0.9510  0.1109
 7405SOL     OW33939   0.447   6.541   3.317 -0.8121  0.2902 -0.0868
 7405SOL    HW133940   0.399   6.494   3.385 -1.2961  0.5296 -0.2622
 7405SOL    HW233941   0.521   6.484   3.296  0.0443  0.7583  1.5028
 7406SOL     OW33942  12.499  13.579  12.180  0.2845  0.3851 -0.0129
 7406SOL    HW133943  12.519  13.670  12.159  2.1665  0.5231  2.0609
 7406SOL    HW233944  12.479  13.580  12.273 -0.2630 -1.2630 -0.0870
 7407SOL     OW33945   8.579  13.374   0.607 -0.1759 -0.1068 -0.2688
 7407SOL    HW133946   8.541  13.462   0.608 -1.1622 -0.5230  0.4754
 7407SOL    HW233947   8.503  13.315   0.611  0.4879 -0.9831 -0.3815
 7408SOL     OW33948   4.863   4.820   5.794  0.4371  0.1613 -0.2593
 7408SOL    HW133949   4.882   4.807   5.701 -2.5297 -0.0725 -0.9420
 7408SOL    HW233950   4.873   4.914   5.809  2.0257  0.0514 -0.4836
 7409SOL     OW33951   5.989   2.529   0.262  0.1412 -0.0547 -0.1634
 7409SOL    HW133952   5.983   2.527   0.357 -1.2394 -0.6784 -0.2455
 7409SOL    HW233953   5.915   2.476   0.232  0.4101  0.3383 -1.5847
 7410SOL     OW33954  11.728   6.071   4.540  0.1709 -0.0823 -0.5207
 7410SOL    HW133955  11.818   6.056   4.511 -0.6227 -1.7286 -2.3915
 7410SOL    HW233956  11.697   6.145   4.488  0.3088  0.2361 -0.1549
 7411SOL     OW33957   9.374   6.036   1.424 -0.6238 -0.1174 -0.6844
 7411SOL    HW133958   9.385   5.991   1.340 -3.1517 -0.3961 -0.9516
 7411SOL    HW233959   9.372   5.966   1.489  1.8758  0.1354 -0.2725
 7412SOL     OW33960   5.919  13.540   7.458  0.2234 -0.3140  0.3464
 7412SOL    HW133961   5.983  13.507   7.521 -0.3047 -1.7774  0.1591
 7412SOL    HW233962   5.961  13.525   7.373  0.5777  0.8775  0.2846
 7413SOL     OW33963  13.018  12.629   6.919  0.6133 -0.4727  0.1036
 7413SOL    HW133964  12.943  12.623   6.860 -0.4453  2.9028  0.8481
 7413SOL    HW233965  12.983  12.605   7.005  1.2205 -1.8202  0.0015
 7414SOL     OW33966   9.332   6.316   4.697  0.5432 -0.3098  0.2587
 7414SOL    HW133967   9.354   6.328   4.790 -0.9541  2.5383  0.3721
 7414SOL    HW233968   9.237   6.302   4.697  0.1714  1.8173 -0.8772
 7415SOL     OW33969   2.797   6.897   0.651 -0.7303  0.1437 -0.0067
 7415SOL    HW133970   2.878   6.942   0.627 -2.0409  2.2988 -0.7033
 7415SOL    HW233971   2.808   6.808   0.617  0.1287  1.2425 -2.9324
 7416SOL     OW33972   1.443  10.176   6.771 -0.7285 -0.1638  0.0992
 7416SOL    HW133973   1.534  10.195   6.793 -0.9527 -0.0354  0.9089
 7416SOL    HW233974   1.391  10.220   6.838 -1.3859 -0.4068 -0.2380
 7417SOL     OW33975   4.707   6.472  11.441  0.3875  0.1094 -0.2173
 7417SOL    HW133976   4.750   6.425  11.370 -1.7033 -0.6521 -1.0743
 7417SOL    HW233977   4.689   6.405  11.507  1.1394  0.5576  0.4529
 7418SOL     OW33978  10.808   1.145   8.928  0.0295 -0.6001  0.0356
 7418SOL    HW133979  10.806   1.069   8.987  0.4173 -1.5735 -1.1784
 7418SOL    HW233980  10.729   1.138   8.876  0.2042 -0.3237 -0.2736
 7419SOL     OW33981   8.436  13.629   9.284 -0.4288  0.2875  0.3449
 7419SOL    HW133982   8.479  13.626   9.369 -0.0265  0.1854  0.1423
 7419SOL    HW233983   8.457  13.716   9.250  1.0136 -0.3236 -0.4529
 7420SOL     OW33984   8.616   1.667  11.209 -0.0361 -0.0405  0.1526
 7420SOL    HW133985   8.688   1.645  11.150 -1.6697 -2.2566 -1.1685
 7420SOL    HW233986   8.622   1.762  11.219  3.0394 -0.1320  0.1397
 7421SOL     OW33987   9.540   0.435   1.646 -0.2274 -0.0741 -0.0045
 7421SOL    HW133988   9.558   0.528   1.632 -0.9102  0.4559  2.1453
 7421SOL    HW233989   9.451   0.423   1.614 -0.0584 -0.0436 -0.4892
 7422SOL     OW33990   7.756   9.449   6.210  0.6610 -0.3698  0.6739
 7422SOL    HW133991   7.734   9.492   6.293  2.8326  1.3190  0.4898
 7422SOL    HW233992   7.835   9.399   6.230  1.2947  0.1815 -0.3762
 7423SOL     OW33993   4.078  12.895   9.501  0.3791  0.1282  0.0828
 7423SOL    HW133994   4.141  12.860   9.438  0.5134  1.9956 -0.8971
 7423SOL    HW233995   3.993  12.861   9.472 -0.0783  3.3498 -3.2288
 7424SOL     OW33996   3.640  12.628  12.929  0.1041 -0.0486  0.3266
 7424SOL    HW133997   3.547  12.635  12.951 -0.0039  0.7358 -0.3592
 7424SOL    HW233998   3.648  12.543  12.884 -0.3340  0.0305  0.1022
 7425SOL     OW33999   1.481   9.196   8.159  0.4902  0.4450 -0.7970
 7425SOL    HW134000   1.407   9.240   8.200  0.4530  0.1274 -0.5216
 7425SOL    HW234001   1.464   9.103   8.173  1.7225  0.4109  0.6284
 7426SOL     OW34002   3.872   7.709   3.327  0.0553  0.0403  0.1864
 7426SOL    HW134003   3.862   7.630   3.380  0.1940 -1.0018 -1.2748
 7426SOL    HW234004   3.939   7.761   3.373  0.1527 -0.8003  1.0256
 7427SOL     OW34005   3.316   1.166  13.316 -0.0547 -0.2132  0.3342
 7427SOL    HW134006   3.336   1.219  13.393 -0.0508 -0.4119  0.4709
 7427SOL    HW234007   3.228   1.192  13.290 -0.8861 -1.5791  1.6133
 7428SOL     OW34008   0.701   3.909   0.155 -0.0859 -0.5974 -0.1255
 7428SOL    HW134009   0.735   3.917   0.066  2.0204 -2.1031  0.4569
 7428SOL    HW234010   0.769   3.948   0.210 -0.8196 -0.7287  0.9079
 7429SOL     OW34011   3.747   1.006   8.057  0.2216 -0.4070  0.0032
 7429SOL    HW134012   3.770   1.077   7.997  0.8269  0.6663  1.4439
 7429SOL    HW234013   3.792   0.929   8.022  1.4434  0.4297 -0.3416
 7430SOL     OW34014   3.918   1.295   0.606 -0.5926  0.3934 -0.6529
 7430SOL    HW134015   3.922   1.203   0.633  1.9028  0.7906  0.6389
 7430SOL    HW234016   3.825   1.313   0.594 -1.2080 -2.0289 -0.0151
 7431SOL     OW34017   2.533   5.003   4.476 -0.6379 -0.0741  0.0688
 7431SOL    HW134018   2.538   5.002   4.571 -1.1608  1.0225  0.1347
 7431SOL    HW234019   2.617   4.969   4.446 -0.1542  0.3400  0.9281
 7432SOL     OW34020   0.397  11.128   6.282  0.2677  0.0038 -0.2441
 7432SOL    HW134021   0.361  11.060   6.225 -1.3920  1.6673 -1.2945
 7432SOL    HW234022   0.322  11.161   6.331  1.0612  0.9474  0.3772
 7433SOL     OW34023   1.986   5.654  10.375  0.2069 -0.2489  0.0246
 7433SOL    HW134024   1.939   5.718  10.321 -1.0382  0.3722  1.7553
 7433SOL    HW234025   1.968   5.680  10.465 -0.6233 -3.1973  0.8465
 7434SOL     OW34026   9.320   6.070   5.881 -0.0879  0.0780  0.7770
 7434SOL    HW134027   9.366   6.153   5.865  0.6529 -0.5475 -0.4262
 7434SOL    HW234028   9.383   6.002   5.860 -1.1433 -0.8047  0.3553
 7435SOL     OW34029   3.336   8.901   1.582  0.6071  0.1965 -0.5828
 7435SOL    HW134030   3.279   8.924   1.510  1.2430  0.3671 -1.0403
 7435SOL    HW234031   3.357   8.984   1.625 -0.3820  0.0218  0.2832
 7436SOL     OW34032   0.563   9.542   3.530 -0.0061 -0.6292 -0.2242
 7436SOL    HW134033   0.507   9.466   3.546 -0.3135 -0.2860  0.3784
 7436SOL    HW234034   0.517   9.615   3.573  0.2842 -0.1054 -0.7870
 7437SOL     OW34035   1.270   3.651   5.949  0.1597 -0.0584  0.1469
 7437SOL    HW134036   1.258   3.574   5.894  0.5854 -0.6538  0.8583
 7437SOL    HW234037   1.330   3.622   6.018 -0.8231  0.4870  1.2649
 7438SOL     OW34038  13.222  11.257   5.830 -0.4866  0.0490  0.5451
 7438SOL    HW134039  13.134  11.224   5.811 -0.7981  0.7950  0.6737
 7438SOL    HW234040  13.261  11.271   5.744 -0.8742  0.7099  0.4684
 7439SOL     OW34041   6.028   5.308   8.959  0.0590 -0.0021 -0.0249
 7439SOL    HW134042   5.957   5.260   9.001  0.1702  0.1609  0.3495
 7439SOL    HW234043   5.985   5.361   8.891 -0.3226  0.9395  0.9268
 7440SOL     OW34044   7.884   9.045   2.687 -0.2723  0.1557 -0.5081
 7440SOL    HW134045   7.871   9.139   2.694 -0.8311  0.1260 -1.0473
 7440SOL    HW234046   7.963   9.035   2.634  0.5952  0.3214  0.7075
 7441SOL     OW34047   1.842   4.639   1.827  0.2410  0.5949  0.4621
 7441SOL    HW134048   1.803   4.556   1.852  1.8492 -0.7907 -1.2838
 7441SOL    HW234049   1.792   4.705   1.874  0.0000 -1.4327  3.3127
 7442SOL     OW34050  11.852   5.152  11.193 -0.2999 -0.0992  0.1430
 7442SOL    HW134051  11.774   5.188  11.235  0.8596 -0.5304  2.8756
 7442SOL    HW234052  11.874   5.075  11.244  0.9387 -1.0086 -1.6572
 7443SOL     OW34053   7.163   7.710  10.336  0.0546 -0.7060  0.2498
 7443SOL    HW134054   7.110   7.693  10.414  0.4426  0.3124  0.7545
 7443SOL    HW234055   7.121   7.785  10.295  0.0682 -1.0120 -0.3374
 7444SOL     OW34056  12.449   2.097   7.601 -0.5376 -0.1787  0.1151
 7444SOL    HW134057  12.400   2.142   7.533 -0.4066  0.8165  0.6624
 7444SOL    HW234058  12.526   2.152   7.616 -0.0581 -0.9047  0.3685
 7445SOL     OW34059   8.501   6.216   0.951  0.2915  0.0168 -0.1188
 7445SOL    HW134060   8.589   6.253   0.946  0.1350  0.7261  1.5691
 7445SOL    HW234061   8.515   6.122   0.958  1.0780  0.2271  2.0638
 7446SOL     OW34062  12.967   5.092   7.883 -0.5304  0.0246 -0.2311
 7446SOL    HW134063  12.963   5.102   7.788 -0.9504  1.0102 -0.1178
 7446SOL    HW234064  12.880   5.120   7.914 -0.0258  0.7930  0.5310
 7447SOL     OW34065  13.293  11.721   1.085 -0.4181 -0.1199 -0.2267
 7447SOL    HW134066  13.327  11.686   1.003 -0.8793 -0.1222 -0.4171
 7447SOL    HW234067  13.238  11.651   1.120  1.4682 -0.9893  1.1737
 7448SOL     OW34068  11.964   7.561  12.080  0.3560  0.2051  0.3211
 7448SOL    HW134069  12.004   7.486  12.126  0.0819 -0.2342 -0.1539
 7448SOL    HW234070  12.022   7.577  12.006  1.8445  2.0903  1.7688
 7449SOL     OW34071  12.731   1.214   0.791 -0.3826 -0.0159 -0.3418
 7449SOL    HW134072  12.826   1.203   0.791 -0.2220  0.4800 -3.3993
 7449SOL    HW234073  12.717   1.301   0.826  0.2379 -0.3059  0.6595
 7450SOL     OW34074   9.001   1.099   2.846 -0.6645  0.3929  0.3274
 7450SOL    HW134075   8.917   1.076   2.886 -0.5735 -1.4446 -0.4378
 7450SOL    HW234076   8.986   1.092   2.752  0.9586 -2.5967  0.1829
 7451SOL     OW34077   3.238   2.118  11.454  0.0485  0.1102 -0.4462
 7451SOL    HW134078   3.301   2.048  11.468 -0.1990 -0.4419 -1.9514
 7451SOL    HW234079   3.161   2.092  11.505  0.0489 -0.5970 -0.7980
 7452SOL     OW34080   9.334   7.068   0.224 -0.5220 -0.1719 -0.1026
 7452SOL    HW134081   9.286   7.150   0.235 -0.5810 -0.5228  2.9787
 7452SOL    HW234082   9.423   7.088   0.254  0.0574 -0.7222 -1.3755
 7453SOL     OW34083   8.148   3.247  12.843  0.2853  0.6128 -0.5010
 7453SOL    HW134084   8.054   3.227  12.833  0.5397 -0.4807 -0.8082
 7453SOL    HW234085   8.169   3.297  12.764  0.0017  0.7314 -0.5074
 7454SOL     OW34086   6.270   0.242   5.002 -0.2066  0.0493 -0.2017
 7454SOL    HW134087   6.360   0.212   5.011 -0.0647 -1.0121 -3.6450
 7454SOL    HW234088   6.219   0.185   5.060  0.9652 -1.7556 -0.8814
 7455SOL     OW34089   7.729  12.014  13.675  0.1418  0.2791  0.4648
 7455SOL    HW134090   7.785  12.082  13.711  0.1704  1.6926 -2.0318
 7455SOL    HW234091   7.643  12.055  13.666 -0.4832 -0.8100  1.1265
 7456SOL     OW34092   9.425   4.395  13.167 -0.1306 -0.2085  0.1145
 7456SOL    HW134093   9.349   4.337  13.163 -0.1581 -0.1503 -0.1847
 7456SOL    HW234094   9.500   4.337  13.182 -0.1047 -0.3613 -0.5846
 7457SOL     OW34095   1.722   4.748   7.514 -0.2719  0.1135 -0.4399
 7457SOL    HW134096   1.770   4.707   7.442  2.5809  0.9423  0.8462
 7457SOL    HW234097   1.720   4.841   7.493 -0.9380  0.1550 -0.2347
 7458SOL     OW34098  11.783   6.623   8.170 -0.0465  0.2320 -0.3244
 7458SOL    HW134099  11.748   6.581   8.092 -1.3526 -0.9812  0.8525
 7458SOL    HW234100  11.875   6.640   8.149  0.3474 -2.5310 -1.1813
 7459SOL     OW34101   0.207  13.401   2.625 -0.0336 -0.0655 -0.1586
 7459SOL    HW134102   0.148  13.475   2.639  0.4973  0.4776 -0.7367
 7459SOL    HW234103   0.262  13.398   2.703  0.6898  0.8576 -0.6177
 7460SOL     OW34104   1.079   3.515   7.487  0.2569 -0.7602 -0.0671
 7460SOL    HW134105   0.987   3.491   7.498  0.1042 -0.6739 -1.0823
 7460SOL    HW234106   1.088   3.535   7.394  1.1930 -0.2935  0.1080
 7461SOL     OW34107   7.535  12.249   0.433 -0.1069 -0.4058 -0.1699
 7461SOL    HW134108   7.487  12.242   0.516 -2.9937 -2.6843 -1.8508
 7461SOL    HW234109   7.609  12.189   0.443 -2.1555 -3.0761 -0.2273
 7462SOL     OW34110   2.994  10.534  12.382 -0.6582 -0.4912  0.2116
 7462SOL    HW134111   2.926  10.550  12.316  0.1678  0.6194 -0.4106
 7462SOL    HW234112   2.988  10.608  12.441 -0.0136 -0.4016  0.1679
 7463SOL     OW34113   1.684   5.373  11.563 -0.1566  0.5633  0.5319
 7463SOL    HW134114   1.664   5.422  11.483  0.9325  0.4259  0.1633
 7463SOL    HW234115   1.779   5.365  11.564 -0.1095  0.9395  2.0768
 7464SOL     OW34116  11.753   3.804  13.272 -0.1888  0.6328  0.2215
 7464SOL    HW134117  11.772   3.766  13.358 -0.5029 -0.4351 -0.1568
 7464SOL    HW234118  11.663   3.835  13.279 -0.6454 -0.5738 -0.0814
 7465SOL     OW34119   3.231   3.864   3.498 -0.4481  0.0327 -0.3069
 7465SOL    HW134120   3.275   3.946   3.475  0.4834  0.1914  1.7616
 7465SOL    HW234121   3.230   3.864   3.594 -0.9791 -2.0996 -0.2629
 7466SOL     OW34122   1.227   7.603   1.282  0.5036  0.6785 -0.3164
 7466SOL    HW134123   1.307   7.569   1.242  0.3845 -0.9821  0.8012
 7466SOL    HW234124   1.223   7.562   1.368 -1.7187  0.4760 -0.4661
 7467SOL     OW34125   9.754  13.321   6.377  0.2500  0.1298 -0.5365
 7467SOL    HW134126   9.809  13.271   6.437 -0.9023 -0.6442 -0.1054
 7467SOL    HW234127   9.767  13.412   6.402  0.3732 -0.1342  0.3863
 7468SOL     OW34128   0.484   9.120  12.806 -0.3090 -0.0856 -0.3291
 7468SOL    HW134129   0.541   9.186  12.845  0.5081 -0.4188 -0.9011
 7468SOL    HW234130   0.511   9.038  12.848  0.4651 -0.4216 -1.4166
 7469SOL     OW34131   3.947   0.240   2.883  0.2721  0.6484 -0.4862
 7469SOL    HW134132   3.853   0.240   2.900  0.4692  0.5521  0.7364
 7469SOL    HW234133   3.956   0.196   2.799 -0.6755 -0.7603  0.1084
 7470SOL     OW34134  10.292   1.402   4.233  0.3453 -0.5670 -0.1553
 7470SOL    HW134135  10.318   1.490   4.207 -0.7578 -0.4645 -0.9710
 7470SOL    HW234136  10.221   1.415   4.295  2.3222 -0.8401  2.3473
 7471SOL     OW34137   1.216   1.984   3.165 -0.0573 -0.2415  0.3665
 7471SOL    HW134138   1.144   1.989   3.102  1.4047 -2.0549 -1.6108
 7471SOL    HW234139   1.240   2.075   3.181 -1.5907  0.3295 -0.3658
 7472SOL     OW34140   3.865   9.285   1.828  0.4752 -0.2329 -0.6222
 7472SOL    HW134141   3.879   9.211   1.887 -0.4022 -0.0894 -0.2254
 7472SOL    HW234142   3.908   9.258   1.746 -0.0338 -1.2865 -0.5605
 7473SOL     OW34143  10.563  12.924   7.905 -0.0643  0.1808  0.1579
 7473SOL    HW134144  10.654  12.942   7.880  0.1836  0.4076  1.1471
 7473SOL    HW234145  10.564  12.832   7.931 -0.1038  0.1880  0.1831
 7474SOL     OW34146   6.326   4.106   9.646  0.5411  0.2245 -0.1322
 7474SOL    HW134147   6.334   4.011   9.649 -1.1974  0.0542  2.8869
 7474SOL    HW234148   6.404   4.135   9.598  1.5750 -2.6295 -0.3627
 7475SOL     OW34149   9.729   1.349   0.215  0.4689  0.2511  0.1429
 7475SOL    HW134150   9.641   1.340   0.178 -0.0431  1.1948  1.0730
 7475SOL    HW234151   9.760   1.433   0.181  0.7018  0.2887  0.4473
 7476SOL     OW34152   8.633   8.441   7.515  0.4371 -0.6437  0.3610
 7476SOL    HW134153   8.647   8.444   7.609  2.3541 -0.1000  0.1161
 7476SOL    HW234154   8.676   8.520   7.482  0.0062 -0.9437 -0.9809
 7477SOL     OW34155   1.288  11.516   3.208  0.2363 -0.0015  0.1109
 7477SOL    HW134156   1.267  11.590   3.152  0.5755 -0.0108 -0.0317
 7477SOL    HW234157   1.227  11.523   3.281 -0.2891 -0.0615 -0.3223
 7478SOL     OW34158  10.963   0.247   0.061 -0.3785 -0.5819  0.2796
 7478SOL    HW134159  10.989   0.332   0.026 -1.1340  0.2175  1.5544
 7478SOL    HW234160  10.871   0.238   0.036  0.1184 -1.8152 -1.2617
 7479SOL     OW34161   1.304   3.838  13.181 -0.6547  0.1307  0.2999
 7479SOL    HW134162   1.287   3.911  13.121 -0.5653 -0.6963 -0.7816
 7479SOL    HW234163   1.248   3.856  13.257 -2.4759  0.1332 -0.9558
 7480SOL     OW34164   3.530   5.079   9.709  0.0727  0.2324 -0.7038
 7480SOL    HW134165   3.607   5.123   9.746  0.0012  0.9936 -1.4408
 7480SOL    HW234166   3.534   5.099   9.615 -1.3377  0.7558 -0.6644
 7481SOL     OW34167  11.313   1.579   2.794  0.5435 -0.1216 -0.0486
 7481SOL    HW134168  11.387   1.638   2.807  2.1339 -2.1132  0.4971
 7481SOL    HW234169  11.254   1.627   2.736  2.9752  0.9932 -1.8161
 7482SOL     OW34170   3.753   9.222  12.511 -0.3089  0.3160 -0.4714
 7482SOL    HW134171   3.722   9.155  12.572 -1.1923 -0.3773 -1.6565
 7482SOL    HW234172   3.678   9.242  12.456  0.3448  1.2641 -1.0492
 7483SOL     OW34173   5.706   1.841   4.734  0.1457 -0.2972 -0.2892
 7483SOL    HW134174   5.761   1.767   4.756  1.0769  0.0882 -1.2091
 7483SOL    HW234175   5.731   1.863   4.644 -0.4727  0.7996 -0.2111
 7484SOL     OW34176   4.400   0.701   8.520 -0.0474 -0.2473 -0.4205
 7484SOL    HW134177   4.327   0.738   8.570  0.5458 -0.2922  0.5150
 7484SOL    HW234178   4.375   0.610   8.506  0.3130 -0.5735  0.9002
 7485SOL     OW34179   6.461  11.137   9.330 -0.2194 -0.1983 -0.5515
 7485SOL    HW134180   6.455  11.197   9.405  3.5971  0.4154 -0.5105
 7485SOL    HW234181   6.406  11.063   9.354 -0.6731  0.8476  1.9683
 7486SOL     OW34182   9.540  12.490  10.173  0.1338 -0.3203 -0.0784
 7486SOL    HW134183   9.452  12.508  10.139 -0.2480 -0.6951  0.6953
 7486SOL    HW234184   9.525  12.448  10.258  1.0711  0.2426  0.3783
 7487SOL     OW34185   0.023  13.514   5.114  0.0095 -0.2654 -0.5790
 7487SOL    HW134186  -0.038  13.451   5.152  0.4700 -0.8688 -0.8184
 7487SOL    HW234187  -0.013  13.533   5.028 -0.5207  0.3692 -0.2274
 7488SOL     OW34188   8.062   6.248   8.041 -0.1954  0.1870  0.4972
 7488SOL    HW134189   8.124   6.224   7.972 -2.5267 -0.3123 -1.5445
 7488SOL    HW234190   8.009   6.317   8.002 -1.4578  0.0241  1.8707
 7489SOL     OW34191   8.665   4.782   7.961 -0.3395 -0.3748 -0.1784
 7489SOL    HW134192   8.661   4.688   7.976  2.0856 -0.5517 -0.3646
 7489SOL    HW234193   8.609   4.819   8.029 -1.2579 -1.9238 -0.0440
 7490SOL     OW34194   2.222   1.883   2.280  0.0126  0.2062  0.1604
 7490SOL    HW134195   2.263   1.813   2.333 -2.1876 -1.1949  0.1273
 7490SOL    HW234196   2.192   1.838   2.201 -1.1573  1.2711 -0.0123
 7491SOL     OW34197   7.144   6.716  11.634  0.0090  0.4148  0.4727
 7491SOL    HW134198   7.136   6.649  11.566 -1.3932  0.1463  0.8677
 7491SOL    HW234199   7.238   6.736  11.637  0.6832 -2.3901  1.1483
 7492SOL     OW34200   0.148  13.536   0.346  0.2363 -0.3706  0.1060
 7492SOL    HW134201   0.109  13.476   0.283  0.9722  0.5285 -1.2547
 7492SOL    HW234202   0.073  13.581   0.386 -0.2231 -0.4804 -0.6153
 7493SOL     OW34203  13.193   0.295   1.750  0.0860  0.3959  0.4574
 7493SOL    HW134204  13.149   0.279   1.833  0.6301 -0.4196  0.6084
 7493SOL    HW234205  13.242   0.376   1.764 -0.1869  0.5070  0.7760
 7494SOL     OW34206  11.823  10.622   4.113  0.2914  0.6027 -0.1328
 7494SOL    HW134207  11.793  10.696   4.061 -0.2651  0.2489 -0.3254
 7494SOL    HW234208  11.909  10.601   4.077 -0.7498 -0.6872 -2.0784
 7495SOL     OW34209  12.746   9.608   6.174 -0.1346  0.4916  0.7289
 7495SOL    HW134210  12.769   9.587   6.083  1.0896 -0.1594  1.1711
 7495SOL    HW234211  12.661   9.567   6.187  0.3987 -0.7946  0.3372
 7496SOL     OW34212   9.793   8.178  10.441  0.5658 -0.0837 -0.3915
 7496SOL    HW134213   9.788   8.131  10.524  1.6968 -0.4850 -0.5361
 7496SOL    HW234214   9.731   8.250  10.451  1.9470  0.9428  1.5309
 7497SOL     OW34215   6.962  12.824   4.561 -0.2595  0.0605 -0.5107
 7497SOL    HW134216   7.008  12.901   4.596  1.3723 -1.6129  1.2491
 7497SOL    HW234217   6.883  12.818   4.614  0.4913 -0.4464  0.5951
 7498SOL     OW34218  10.632  11.318   2.968  0.1732 -0.2356  0.5756
 7498SOL    HW134219  10.675  11.300   2.885  1.3322  0.0266  1.1020
 7498SOL    HW234220  10.540  11.296   2.953  0.3969 -0.3384 -0.7192
 7499SOL     OW34221   3.386  12.099   0.808  0.3977  0.0862 -0.2510
 7499SOL    HW134222   3.304  12.127   0.850  0.3520  0.7329 -0.7589
 7499SOL    HW234223   3.423  12.179   0.771  1.5161 -0.1143  0.3919
 7500SOL     OW34224   5.801  11.833   9.229 -0.1410  0.3095 -0.3175
 7500SOL    HW134225   5.825  11.831   9.136 -1.3549  1.9234 -0.7137
 7500SOL    HW234226   5.747  11.912   9.238 -2.4363 -1.2814  1.1615
 7501SOL     OW34227  11.491  13.160   0.040  0.0081 -0.0872 -0.3127
 7501SOL    HW134228  11.416  13.157   0.100 -0.1890 -0.4396 -0.5720
 7501SOL    HW234229  11.534  13.243   0.059 -0.4725  0.1353 -0.1841
 7502SOL     OW34230   6.874   4.422   6.117  0.4671  0.2069  0.6561
 7502SOL    HW134231   6.954   4.381   6.152  1.1905  1.0815  0.0817
 7502SOL    HW234232   6.866   4.387   6.028 -0.9198 -1.3912  1.3527
 7503SOL     OW34233  13.174   5.805   0.797 -0.2754 -0.0415  0.6259
 7503SOL    HW134234  13.266   5.785   0.815  0.2377  1.2721 -0.4054
 7503SOL    HW234235  13.131   5.719   0.790  0.9065 -0.6679  0.8828
 7504SOL     OW34236   3.998  13.149   5.675  0.0567  0.3376 -0.0502
 7504SOL    HW134237   3.986  13.237   5.709  2.5390  1.1182 -0.9706
 7504SOL    HW234238   4.048  13.104   5.743 -0.6010 -0.1770  0.1077
 7505SOL     OW34239   9.213   4.595   0.950  0.2857  0.0016 -0.0653
 7505SOL    HW134240   9.159   4.666   0.915 -2.0257 -1.7634 -0.2736
 7505SOL    HW234241   9.302   4.631   0.950 -0.9106  3.4097  1.1809
 7506SOL     OW34242  10.824   6.213  12.528 -0.1753  0.2943 -0.2995
 7506SOL    HW134243  10.874   6.219  12.610 -0.0791  0.5272 -0.3762
 7506SOL    HW234244  10.819   6.303  12.496 -0.8702  0.3147 -0.1582
 7507SOL     OW34245   8.226   0.248   9.916  0.9957 -0.0106 -0.8084
 7507SOL    HW134246   8.257   0.164   9.883  1.1287 -0.0969 -0.4724
 7507SOL    HW234247   8.158   0.225   9.980  0.8536  0.1455 -0.9031
 7508SOL     OW34248   1.740   0.963   2.679 -0.2450 -0.6560 -0.1430
 7508SOL    HW134249   1.798   1.020   2.730 -0.2552 -0.3261 -0.4914
 7508SOL    HW234250   1.669   0.940   2.739 -0.0531 -0.5915  0.1097
 7509SOL     OW34251   4.066   4.474   4.333 -0.1247  0.0763  0.0650
 7509SOL    HW134252   4.074   4.505   4.243  0.0008 -0.5137 -0.1322
 7509SOL    HW234253   3.973   4.485   4.354 -0.3882 -0.8141 -0.5304
 7510SOL     OW34254  11.916   0.265   4.503  0.4691  0.0376 -0.3012
 7510SOL    HW134255  11.957   0.241   4.420 -0.0925  0.3575 -0.6809
 7510SOL    HW234256  11.881   0.353   4.487 -1.0342 -0.5219 -0.2545
 7511SOL     OW34257   2.077   1.742   9.077  0.2508  0.0997 -0.2820
 7511SOL    HW134258   1.983   1.763   9.070  0.2463 -0.1106 -0.9063
 7511SOL    HW234259   2.088   1.663   9.025  0.8722  0.4072 -0.6269
 7512SOL     OW34260  10.531   4.588  11.240  0.1679  0.2622  0.3769
 7512SOL    HW134261  10.612   4.536  11.236  0.1626  0.2802  0.0133
 7512SOL    HW234262  10.547   4.651  11.310  0.4772  0.2790  0.2935
 7513SOL     OW34263  12.473   0.223   8.796 -0.1401 -0.3708 -0.0520
 7513SOL    HW134264  12.568   0.232   8.795 -0.1353  0.3621 -3.1493
 7513SOL    HW234265  12.450   0.221   8.889  2.8282 -0.1159  0.7877
 7514SOL     OW34266   6.737   7.099   7.759 -0.5263 -0.4225  0.4710
 7514SOL    HW134267   6.823   7.090   7.799 -1.7031  0.3938  3.4409
 7514SOL    HW234268   6.737   7.186   7.720  0.8576 -1.4683 -2.1158
 7515SOL     OW34269   6.578  13.548   4.464 -0.8820  0.2472 -0.2914
 7515SOL    HW134270   6.631  13.516   4.392 -0.7723  0.1598 -0.1731
 7515SOL    HW234271   6.559  13.639   4.442 -0.4580  0.3598 -0.2063
 7516SOL     OW34272   9.906  12.545   4.233  0.4296  0.1558  0.2447
 7516SOL    HW134273   9.869  12.457   4.219  0.6846  0.2570 -1.1645
 7516SOL    HW234274   9.854  12.581   4.305 -1.1988 -0.3033 -0.6489
 7517SOL     OW34275  12.730  12.415   7.226  0.1035 -0.2280 -0.3403
 7517SOL    HW134276  12.780  12.463   7.160  0.4899  0.0356  0.1414
 7517SOL    HW234277  12.793  12.394   7.294 -0.7466  1.5714  1.1001
 7518SOL     OW34278   4.981   2.482   6.997  0.4365  0.1138  0.0901
 7518SOL    HW134279   5.012   2.409   7.049  1.0805 -0.3399 -0.9011
 7518SOL    HW234280   4.886   2.476   7.002  0.4856 -0.6206  0.2596
 7519SOL     OW34281   0.182  12.212   6.611 -0.2016 -0.1135 -0.1972
 7519SOL    HW134282   0.229  12.130   6.598  0.5713  0.1071  1.0738
 7519SOL    HW234283   0.127  12.197   6.688 -2.9015 -0.6266 -2.0836
 7520SOL     OW34284  12.175  10.334   9.609 -0.4529  0.2331 -0.3506
 7520SOL    HW134285  12.118  10.375   9.675 -2.5326 -1.0933 -1.2151
 7520SOL    HW234286  12.214  10.260   9.654 -0.8044  0.1192 -0.2287
 7521SOL     OW34287   2.335   1.688  12.011 -1.2022  0.0798  0.1576
 7521SOL    HW134288   2.389   1.728  12.079 -3.2698  1.5885  1.0309
 7521SOL    HW234289   2.268   1.754  11.992 -0.8857 -0.3714 -3.1996
 7522SOL     OW34290  12.617  11.103  12.524  0.4176 -0.8511 -0.2634
 7522SOL    HW134291  12.682  11.091  12.593  1.4127  0.4807 -0.9263
 7522SOL    HW234292  12.669  11.117  12.445 -0.5643  2.5570 -0.4428
 7523SOL     OW34293   4.947  11.344   2.648 -0.2534  0.3368  0.1009
 7523SOL    HW134294   4.855  11.365   2.665 -0.6893 -1.1064 -0.4150
 7523SOL    HW234295   4.952  11.249   2.653  1.0519  0.3371 -0.7087
 7524SOL     OW34296   0.869   6.270   3.133 -0.2884 -0.1175 -0.0936
 7524SOL    HW134297   0.934   6.291   3.066  0.7117 -0.9557  0.5813
 7524SOL    HW234298   0.810   6.208   3.090 -0.0490 -0.1195 -0.4250
 7525SOL     OW34299   1.911   8.618   2.551 -0.0621  0.0838  0.0643
 7525SOL    HW134300   2.003   8.593   2.542 -0.4837 -0.7240 -2.8298
 7525SOL    HW234301   1.907   8.709   2.520 -0.0982  0.5536  1.3614
 7526SOL     OW34302  12.766   1.146  12.208 -0.0026  0.0407  0.4581
 7526SOL    HW134303  12.760   1.125  12.301 -1.2451 -1.7440  0.0206
 7526SOL    HW234304  12.754   1.241  12.204 -0.7367  0.0495  2.0512
 7527SOL     OW34305   4.059  10.802   9.802  0.1324  0.3459 -0.2983
 7527SOL    HW134306   4.125  10.737   9.780 -1.3666 -1.1195 -0.6105
 7527SOL    HW234307   4.033  10.840   9.718 -0.2534  0.0818 -0.2997
 7528SOL     OW34308   8.700   6.852   4.167 -0.4707  0.1919 -0.3335
 7528SOL    HW134309   8.605   6.864   4.161 -0.2698  2.2977 -0.1928
 7528SOL    HW234310   8.733   6.882   4.082  0.1838  1.3824  0.3194
 7529SOL     OW34311   2.226  10.378   3.631  0.5592  0.7099 -0.0710
 7529SOL    HW134312   2.312  10.418   3.622  1.4390 -0.8374  0.9282
 7529SOL    HW234313   2.227  10.338   3.718 -0.8322 -0.1244 -0.4028
 7530SOL     OW34314   0.160  13.558   5.367  0.4228  0.4523  0.1468
 7530SOL    HW134315   0.100  13.537   5.296 -0.1515  0.6441  0.5702
 7530SOL    HW234316   0.220  13.623   5.330 -0.2741  1.0306  0.0275
 7531SOL     OW34317   3.329   2.952  11.530 -0.1996  0.3651  0.2004
 7531SOL    HW134318   3.346   2.915  11.443 -0.0579  1.1180 -0.1022
 7531SOL    HW234319   3.233   2.953  11.538 -0.1959 -0.7224  0.5106
 7532SOL     OW34320   9.296  12.766  10.295  0.1903 -0.1834  0.9214
 7532SOL    HW134321   9.259  12.846  10.332 -1.2586 -0.3028 -0.1820
 7532SOL    HW234322   9.302  12.706  10.370 -0.7737  0.2383  1.3601
 7533SOL     OW34323   4.522   8.541  11.380  0.3468 -0.2138 -0.0552
 7533SOL    HW134324   4.578   8.614  11.406 -0.2030 -0.0676  0.7685
 7533SOL    HW234325   4.576   8.463  11.393  0.8454  0.0212 -0.6811
 7534SOL     OW34326   8.384   4.228   3.043  0.3828  1.0538 -0.9665
 7534SOL    HW134327   8.421   4.256   3.127 -2.1017  0.6701  0.3416
 7534SOL    HW234328   8.451   4.170   3.006  1.5334  1.2106  0.7478
 7535SOL     OW34329   8.474   0.151  11.166 -0.0496 -0.2096 -0.3894
 7535SOL    HW134330   8.539   0.175  11.101  0.8566  0.4465  0.7261
 7535SOL    HW234331   8.524   0.122  11.242 -1.0396  0.4801  0.5630
 7536SOL     OW34332   8.469   5.164   7.433 -0.5851  0.5955 -0.6901
 7536SOL    HW134333   8.463   5.107   7.355 -1.3142  0.5850 -0.6310
 7536SOL    HW234334   8.550   5.136   7.476 -1.2901 -0.9207 -0.2674
 7537SOL     OW34335   1.432   5.016   2.651  0.6395  0.5314 -0.1652
 7537SOL    HW134336   1.389   5.077   2.711 -0.6275  0.3816 -0.8919
 7537SOL    HW234337   1.367   4.999   2.583  2.0996  0.8692 -1.7110
 7538SOL     OW34338   5.069   0.658  10.508  0.2249  0.0568 -0.4097
 7538SOL    HW134339   5.036   0.571  10.529  1.0450 -0.0154  0.6531
 7538SOL    HW234340   5.160   0.657  10.539  0.4951  1.0303 -1.1170
 7539SOL     OW34341   6.727  12.724  11.868 -0.0012 -0.0213 -0.9051
 7539SOL    HW134342   6.737  12.691  11.957  0.3862  0.6815 -0.6801
 7539SOL    HW234343   6.816  12.741  11.839 -0.2205  1.6250 -0.6961
 7540SOL     OW34344   4.787  12.119   4.291 -0.2631 -0.2026 -0.0636
 7540SOL    HW134345   4.804  12.213   4.300  0.9471 -0.3398 -0.7124
 7540SOL    HW234346   4.864  12.085   4.244 -1.0021 -1.3962 -0.4543
 7541SOL     OW34347   0.457   5.210  10.039 -0.2307  0.0966 -0.1356
 7541SOL    HW134348   0.543   5.215  10.080  0.4483 -3.1653 -0.8926
 7541SOL    HW234349   0.395   5.235  10.108  1.1548 -0.4497  1.3469
 7542SOL     OW34350   0.082   6.527  10.363 -0.2507  0.3531 -0.2943
 7542SOL    HW134351   0.081   6.431  10.369 -2.6232  0.2863 -0.7739
 7542SOL    HW234352   0.067   6.545  10.270  0.8598  1.2142 -0.3207
 7543SOL     OW34353   8.189   2.444   5.073 -0.2123  0.4280  0.0620
 7543SOL    HW134354   8.106   2.485   5.047 -0.2497  0.4742  0.2485
 7543SOL    HW234355   8.256   2.499   5.034 -0.2703 -0.1087 -0.8397
 7544SOL     OW34356  11.952   2.313   3.384 -0.1145  0.0477  0.4714
 7544SOL    HW134357  11.897   2.301   3.462 -0.4962  2.8814  0.7550
 7544SOL    HW234358  12.023   2.369   3.414  1.3769 -1.2100 -0.5976
 7545SOL     OW34359   1.556   9.569   5.518  0.0568  0.3475 -0.0577
 7545SOL    HW134360   1.523   9.537   5.434  1.4736 -0.0426 -0.4970
 7545SOL    HW234361   1.605   9.648   5.496 -1.5718  1.6291  0.7409
 7546SOL     OW34362  12.565   9.120   0.731 -0.1428 -0.3346 -0.4817
 7546SOL    HW134363  12.474   9.124   0.701 -0.2831  0.2029 -0.0066
 7546SOL    HW234364  12.577   9.029   0.759 -0.0403 -0.8243 -2.0273
 7547SOL     OW34365   8.875  13.719   6.567 -0.0253  0.1478 -0.0290
 7547SOL    HW134366   8.965  13.688   6.556 -0.0824  0.5067 -1.7881
 7547SOL    HW234367   8.827  13.643   6.599  1.0160  0.1468  1.6409
 7548SOL     OW34368   4.058   0.947   0.788  0.1375 -0.0023  0.4247
 7548SOL    HW134369   4.021   0.986   0.868 -1.2567 -1.0321  0.3259
 7548SOL    HW234370   3.985   0.947   0.726  0.6585 -0.9686 -0.2082
 7549SOL     OW34371   6.784   0.453   2.135  0.1209 -0.0961 -0.0831
 7549SOL    HW134372   6.688   0.452   2.136  0.0852 -0.8173 -1.4679
 7549SOL    HW234373   6.809   0.364   2.110  1.1724 -0.0372  0.6977
 7550SOL     OW34374   5.747   1.416   3.819 -0.2346  0.8995 -0.0920
 7550SOL    HW134375   5.731   1.357   3.745  0.5315  0.1855  0.2786
 7550SOL    HW234376   5.665   1.417   3.868  0.4409 -1.9966  1.3319
 7551SOL     OW34377   2.190   2.482   1.652  0.1604 -0.4907 -0.0077
 7551SOL    HW134378   2.138   2.463   1.730 -0.4833 -0.2704 -0.3779
 7551SOL    HW234379   2.280   2.457   1.676 -0.4081 -2.7801 -0.0291
 7552SOL     OW34380  12.194   2.138   2.562  0.9027  0.7748 -0.3153
 7552SOL    HW134381  12.230   2.188   2.488  0.4385  0.9135 -0.4528
 7552SOL    HW234382  12.219   2.047   2.544 -0.9433  0.4911 -1.7363
 7553SOL     OW34383   0.162  11.963   8.187 -0.0153  0.3323  0.2379
 7553SOL    HW134384   0.141  12.000   8.101  1.4829  0.2123 -0.2062
 7553SOL    HW234385   0.203  11.879   8.168  1.4130  0.8238  0.9956
 7554SOL     OW34386   2.008   3.548   7.639 -0.7618 -0.2461  0.3297
 7554SOL    HW134387   2.103   3.533   7.643 -0.7403 -0.5525 -0.9368
 7554SOL    HW234388   1.970   3.460   7.640 -1.0373 -0.1231  0.8918
 7555SOL     OW34389   2.168  12.139   2.444 -0.4180  0.2401 -0.4896
 7555SOL    HW134390   2.155  12.073   2.512  0.6461  1.6222  1.1413
 7555SOL    HW234391   2.179  12.221   2.492 -0.9835  1.5031 -2.4186
 7556SOL     OW34392   9.099   2.900   6.001  0.4321  0.6180  0.1818
 7556SOL    HW134393   9.010   2.874   5.977  0.7784  0.0218 -0.4910
 7556SOL    HW234394   9.094   2.920   6.094 -0.0392 -1.0972  0.5614
 7557SOL     OW34395   5.461   1.654   7.083  0.1875  0.1043  0.1823
 7557SOL    HW134396   5.395   1.608   7.135 -1.6964  1.9595 -0.4447
 7557SOL    HW234397   5.490   1.589   7.019 -4.2002  0.2197 -2.3018
 7558SOL     OW34398   6.577   1.849   6.618 -0.0480 -0.1924 -0.0937
 7558SOL    HW134399   6.600   1.796   6.542 -1.2537 -0.1401 -0.5180
 7558SOL    HW234400   6.496   1.893   6.593 -0.3990 -0.0704  1.1833
 7559SOL     OW34401   2.351   2.564   2.513  0.4632 -0.1755  0.0462
 7559SOL    HW134402   2.436   2.526   2.490  0.8782 -0.4041  1.8202
 7559SOL    HW234403   2.300   2.490   2.546 -1.1740 -0.4387 -2.7604
 7560SOL     OW34404   0.007  11.729   8.002 -0.2886 -0.7047 -0.5376
 7560SOL    HW134405   0.052  11.661   7.952  0.5344 -0.8775  0.4108
 7560SOL    HW234406   0.038  11.717   8.092  0.5846  1.4857 -0.4935
 7561SOL     OW34407   1.865  10.292  12.426  0.0414 -0.0975 -0.3015
 7561SOL    HW134408   1.824  10.259  12.506  0.2960 -0.3150 -0.2584
 7561SOL    HW234409   1.949  10.245  12.421  1.6601  2.3863  1.1904
 7562SOL     OW34410   1.898   1.012   1.541 -0.3368  0.2052 -0.2860
 7562SOL    HW134411   1.977   1.063   1.525  0.2275 -0.7616 -0.6876
 7562SOL    HW234412   1.845   1.067   1.599  1.0405  0.4886  0.7696
 7563SOL     OW34413   4.276   3.629   7.172  0.0711  0.5932  0.0378
 7563SOL    HW134414   4.372   3.619   7.173  0.2531  1.3057 -2.6679
 7563SOL    HW234415   4.244   3.545   7.140 -0.3220  0.1266  1.5470
 7564SOL     OW34416   0.973   3.248  11.713  0.6099 -0.4583 -0.0465
 7564SOL    HW134417   0.883   3.273  11.733  0.1617 -1.3998 -0.8250
 7564SOL    HW234418   0.986   3.164  11.757  0.1267 -1.7696 -2.2274
 7565SOL     OW34419   2.176   0.057  12.057  0.2831  0.4026  0.3242
 7565SOL    HW134420   2.266   0.027  12.074  0.7172  1.3477 -0.2102
 7565SOL    HW234421   2.175   0.079  11.964 -0.9976 -1.1679 -0.0684
 7566SOL     OW34422   4.791   3.687  10.619  0.9006  0.0708 -0.1490
 7566SOL    HW134423   4.737   3.671  10.541  0.6561  2.4941 -0.5603
 7566SOL    HW234424   4.732   3.732  10.679  1.6386 -0.0395  0.6711
 7567SOL     OW34425   0.832   9.323   3.234  0.5685  0.2332  0.0559
 7567SOL    HW134426   0.787   9.406   3.251 -0.3435 -0.3534  0.5958
 7567SOL    HW234427   0.912   9.329   3.286 -0.4322 -0.0082  1.7076
 7568SOL     OW34428   1.698  10.920   1.412  0.2054  0.0499  0.7276
 7568SOL    HW134429   1.603  10.922   1.398  0.4673 -0.6112 -1.4559
 7568SOL    HW234430   1.715  10.991   1.474 -1.6596  0.4052  0.8852
 7569SOL     OW34431   5.636  13.572   5.345  0.1965  0.1092 -0.5379
 7569SOL    HW134432   5.603  13.486   5.319 -0.6343  0.0806  0.5396
 7569SOL    HW234433   5.592  13.633   5.285 -0.6811 -0.0697 -0.0963
 7570SOL     OW34434   3.903   1.524   7.960  0.0515 -0.7910 -0.1606
 7570SOL    HW134435   3.975   1.467   7.988  0.1680 -1.4174 -1.6455
 7570SOL    HW234436   3.882   1.577   8.038  1.2345 -1.5058  0.6709
 7571SOL     OW34437   8.982  12.714   4.930  0.1749  0.0312  0.4675
 7571SOL    HW134438   8.989  12.803   4.894  0.5985  0.3321  1.2629
 7571SOL    HW234439   8.970  12.728   5.024  0.4577 -0.7589  0.6252
 7572SOL     OW34440   3.377   2.556   3.342 -1.0746  0.2572 -0.0056
 7572SOL    HW134441   3.306   2.494   3.326 -0.6992 -1.4032  3.6751
 7572SOL    HW234442   3.455   2.513   3.308 -0.7747 -1.6528  2.7252
 7573SOL     OW34443   6.236   4.957  12.072 -0.2681  0.0417  0.7678
 7573SOL    HW134444   6.268   4.992  11.989  1.5013  0.3264  1.5239
 7573SOL    HW234445   6.147   4.990  12.080 -0.2543  0.4888 -0.7372
 7574SOL     OW34446   3.320   8.052   7.559 -0.4652 -0.4492 -0.1126
 7574SOL    HW134447   3.400   8.014   7.595 -0.3852 -0.5558 -0.4073
 7574SOL    HW234448   3.331   8.146   7.572 -0.8063 -0.5309  0.9178
 7575SOL     OW34449   6.343   2.000   9.081 -0.5718  0.5357 -0.4938
 7575SOL    HW134450   6.379   1.911   9.076  1.2724  1.1618  0.5624
 7575SOL    HW234451   6.253   1.988   9.112  0.0888 -0.9194  0.9892
 7576SOL     OW34452   2.209   5.737  10.753 -0.0891 -0.2612  0.4002
 7576SOL    HW134453   2.255   5.658  10.780 -0.2593 -0.0974  1.1975
 7576SOL    HW234454   2.218   5.797  10.827  1.6751  1.2037 -0.9302
 7577SOL     OW34455   6.981   6.285   5.929  0.1574  0.4670  0.3146
 7577SOL    HW134456   6.997   6.261   5.838  1.0325 -0.8791  0.7942
 7577SOL    HW234457   6.907   6.346   5.925  0.4459  0.7590 -1.3166
 7578SOL     OW34458   3.486   3.896   9.252 -0.4891  0.6727 -0.0436
 7578SOL    HW134459   3.493   3.896   9.347  0.4166  0.6912 -0.1050
 7578SOL    HW234460   3.569   3.859   9.221 -1.2365 -0.4274 -0.8010
 7579SOL     OW34461   1.530   5.436   5.368  0.1263  0.0071 -0.4241
 7579SOL    HW134462   1.508   5.421   5.460  1.2495  0.5838 -0.0434
 7579SOL    HW234463   1.545   5.531   5.362 -0.6080  0.0823 -1.3613
 7580SOL     OW34464   6.108  13.720   6.945 -0.0050 -0.4047 -0.0566
 7580SOL    HW134465   6.148  13.637   6.971 -0.5157 -1.0461 -1.2899
 7580SOL    HW234466   6.131  13.780   7.016  1.1263 -1.3626  0.4202
 7581SOL     OW34467  12.786   4.839   6.345 -0.6482 -0.4195 -0.4029
 7581SOL    HW134468  12.797   4.917   6.399 -0.7072  0.6673 -1.8987
 7581SOL    HW234469  12.870   4.793   6.353 -0.5523 -0.1331  0.3564
 7582SOL     OW34470   3.600   4.458  12.840  0.1535  0.2757 -0.0104
 7582SOL    HW134471   3.660   4.385  12.827 -0.9008 -0.5188 -0.5430
 7582SOL    HW234472   3.564   4.475  12.753  0.4804  1.5226  0.0862
 7583SOL     OW34473   4.457   7.314  10.323  1.0394 -0.1083 -0.0653
 7583SOL    HW134474   4.409   7.386  10.282 -0.2625  0.4127  2.2017
 7583SOL    HW234475   4.437   7.322  10.417  4.4406 -0.7377  0.8590
 7584SOL     OW34476   3.768   2.576   2.819  0.0795 -0.5930  0.1699
 7584SOL    HW134477   3.845   2.624   2.789 -0.2941 -0.7851 -1.1485
 7584SOL    HW234478   3.792   2.484   2.811 -0.2529 -0.6541 -0.1519
 7585SOL     OW34479   5.518  10.160  10.089  0.2673 -0.1643  0.1293
 7585SOL    HW134480   5.465  10.098  10.139  0.7202 -0.3498  0.3854
 7585SOL    HW234481   5.457  10.197  10.025  0.3316 -2.0447 -1.1121
 7586SOL     OW34482   2.382  10.623  12.898 -0.0741 -0.3951  0.1124
 7586SOL    HW134483   2.337  10.539  12.909 -0.4996  0.0614  2.3927
 7586SOL    HW234484   2.311  10.688  12.895  0.2885 -0.0196 -0.6788
 7587SOL     OW34485   0.882  12.546   2.450 -0.6971  0.1711 -0.0538
 7587SOL    HW134486   0.847  12.491   2.380  1.2100  0.8273 -1.6145
 7587SOL    HW234487   0.811  12.552   2.514 -1.8988 -1.8430 -1.1086
 7588SOL     OW34488   4.353   9.635   5.523  0.2197 -0.3808 -0.0357
 7588SOL    HW134489   4.366   9.672   5.436 -0.5002  0.2376  0.1096
 7588SOL    HW234490   4.270   9.671   5.552 -1.0739 -2.8941 -0.2965
 7589SOL     OW34491   4.641   7.145   8.500 -0.2585 -0.0064  0.4276
 7589SOL    HW134492   4.728   7.107   8.485 -0.7137 -1.4594  1.2787
 7589SOL    HW234493   4.657   7.239   8.507  1.1017 -0.1466 -0.3800
 7590SOL     OW34494   1.339   2.528   5.721  0.1021  0.2696  0.3234
 7590SOL    HW134495   1.313   2.574   5.801 -0.6383  0.5741 -0.0829
 7590SOL    HW234496   1.300   2.441   5.731 -0.5156  0.5068  0.0219
 7591SOL     OW34497   3.107   9.431  13.647 -0.2655  0.2748  0.4559
 7591SOL    HW134498   3.190   9.477  13.635 -0.0354  0.0485  1.1657
 7591SOL    HW234499   3.079   9.408  13.558 -1.0232  2.8727 -0.0826
 7592SOL     OW34500  10.319   8.139   6.992 -0.2464  0.0059 -0.1920
 7592SOL    HW134501  10.384   8.074   6.967  0.3734 -0.4347  2.2842
 7592SOL    HW234502  10.252   8.089   7.040  0.1417  1.0892  1.5887
 7593SOL     OW34503  11.897   6.794   9.540 -0.7050  0.1620  0.0843
 7593SOL    HW134504  11.859   6.787   9.628 -0.5826 -0.5667  0.0865
 7593SOL    HW234505  11.934   6.882   9.537  1.3563 -0.5788  1.6068
 7594SOL     OW34506   9.264   7.741   4.329  0.2300 -0.5135 -0.4119
 7594SOL    HW134507   9.219   7.758   4.246 -0.1676  1.2588  0.1166
 7594SOL    HW234508   9.279   7.646   4.329 -0.6391 -0.6982 -2.0508
 7595SOL     OW34509   0.777   7.776   9.002  0.0969  0.1494 -0.4850
 7595SOL    HW134510   0.813   7.864   9.012  1.6054 -0.6727  3.6937
 7595SOL    HW234511   0.712   7.769   9.072 -0.6575 -1.8053 -1.3082
 7596SOL     OW34512   5.810  12.402  12.892 -0.2794  0.3459 -0.1020
 7596SOL    HW134513   5.783  12.331  12.951 -1.6181  0.9716  0.0555
 7596SOL    HW234514   5.906  12.395  12.890 -0.3411 -1.0922  0.3742
 7597SOL     OW34515   4.183   3.697   4.510 -0.1874  0.4244 -0.0257
 7597SOL    HW134516   4.259   3.732   4.463  1.2808 -0.7514  1.3658
 7597SOL    HW234517   4.140   3.640   4.447 -0.7278  2.0894 -1.2551
 7598SOL     OW34518   7.654   0.612  10.356  0.2733  0.0576  0.7804
 7598SOL    HW134519   7.724   0.671  10.384  0.6610  0.5152 -1.0271
 7598SOL    HW234520   7.642   0.631  10.263 -1.2472 -1.0568  0.7079
 7599SOL     OW34521   3.057   7.105   4.623 -0.5236 -0.0118 -0.7127
 7599SOL    HW134522   2.963   7.085   4.630 -0.2342 -1.1386  0.1561
 7599SOL    HW234523   3.075   7.161   4.698 -0.5904  0.6061 -1.1508
 7600SOL     OW34524  10.033  10.934   1.348 -0.6525  0.3114  0.2488
 7600SOL    HW134525  10.007  10.896   1.432 -0.0911 -0.3996  0.1172
 7600SOL    HW234526  10.087  11.009   1.370  0.6965 -0.7077  0.5617
 7601SOL     OW34527  12.888  10.822   5.781 -0.4387  0.0071  0.1610
 7601SOL    HW134528  12.908  10.737   5.744 -0.0130 -0.0920  0.6063
 7601SOL    HW234529  12.801  10.811   5.820 -0.3111 -0.2738  0.3698
 7602SOL     OW34530   9.293   8.813   6.591  0.1627 -0.9662 -0.2212
 7602SOL    HW134531   9.291   8.816   6.495 -4.1025 -2.2299 -0.3457
 7602SOL    HW234532   9.281   8.903   6.618  0.6251 -0.6976 -0.8835
 7603SOL     OW34533  10.013  13.438   0.907  0.2046 -0.2487 -0.5368
 7603SOL    HW134534  10.103  13.419   0.881  0.5399 -0.6575  0.8385
 7603SOL    HW234535   9.996  13.525   0.870  0.8557 -0.5142 -1.5196
 7604SOL     OW34536   8.020   9.543   5.286  0.1190  0.3046 -0.5930
 7604SOL    HW134537   8.097   9.487   5.285  1.9844  2.6337 -2.8546
 7604SOL    HW234538   8.048   9.622   5.332 -2.2137 -0.1995  1.9195
 7605SOL     OW34539  10.271  10.866   6.592  1.0696  0.4717 -0.0891
 7605SOL    HW134540  10.323  10.896   6.667  0.6201 -1.6469  1.1350
 7605SOL    HW234541  10.208  10.805   6.629 -1.3406  1.7583 -1.7475
 7606SOL     OW34542  12.494   4.512   0.155  1.1200  0.2707  0.3264
 7606SOL    HW134543  12.524   4.487   0.242  0.4533  0.2103  0.5475
 7606SOL    HW234544  12.476   4.606   0.162 -1.3867 -0.1730  1.0303
 7607SOL     OW34545   2.302   0.415   9.446  0.4211 -0.5275 -0.3473
 7607SOL    HW134546   2.301   0.371   9.531  2.8597 -1.4443 -0.7132
 7607SOL    HW234547   2.321   0.345   9.383 -1.3546  0.1251 -1.7016
 7608SOL     OW34548   3.840   5.961  11.128  0.1284 -0.1097 -0.3250
 7608SOL    HW134549   3.773   5.937  11.063 -0.4633 -0.4511  0.4030
 7608SOL    HW234550   3.874   6.045  11.096 -1.1246  0.4108 -0.3522
 7609SOL     OW34551   6.067   1.485   7.075 -0.0367 -0.2746  0.6748
 7609SOL    HW134552   6.074   1.440   6.990  1.4990  0.5581  0.3217
 7609SOL    HW234553   5.985   1.535   7.068  0.7157  0.8225 -0.8630
 7610SOL     OW34554  12.842   7.765  12.828 -0.1804  0.0230 -0.5595
 7610SOL    HW134555  12.748   7.748  12.825  0.1048 -1.5616 -1.3048
 7610SOL    HW234556  12.861   7.810  12.746 -0.3799  1.0009 -0.0891
 7611SOL     OW34557   3.963  12.528  12.810 -0.2776  0.3175 -0.3807
 7611SOL    HW134558   3.932  12.518  12.900  1.2491 -2.9284 -0.0644
 7611SOL    HW234559   3.888  12.505  12.756 -0.5466 -0.0711  0.1475
 7612SOL     OW34560   3.980   1.304   7.528 -0.2443  0.4981  0.0578
 7612SOL    HW134561   3.891   1.269   7.522 -0.9062  2.0960  0.3272
 7612SOL    HW234562   3.970   1.393   7.560  1.5434  0.3335  1.2447
 7613SOL     OW34563   4.645  12.028  10.546 -0.1135  0.5130 -0.4342
 7613SOL    HW134564   4.564  11.982  10.521 -1.5271  2.2552  0.7052
 7613SOL    HW234565   4.704  11.958  10.573 -1.9471 -0.7145  0.6243
 7614SOL     OW34566   9.597  10.890  10.624 -0.1756 -0.5906  0.3021
 7614SOL    HW134567   9.637  10.829  10.562 -1.1836 -0.1335 -0.8461
 7614SOL    HW234568   9.539  10.944  10.570  0.4290  1.1605  1.3464
 7615SOL     OW34569   4.582   6.612   8.264 -0.2238  0.1031  0.6020
 7615SOL    HW134570   4.589   6.610   8.360  0.5292 -2.0600  0.5487
 7615SOL    HW234571   4.658   6.563   8.233 -1.1162 -0.3063 -1.0630
 7616SOL     OW34572   1.286  13.729   0.673 -0.1698 -0.3597 -0.3130
 7616SOL    HW134573   1.300  13.767   0.760 -0.3588  1.2745 -0.9671
 7616SOL    HW234574   1.374  13.717   0.639 -0.1142  0.8420 -0.6400
 7617SOL     OW34575   6.048  12.788   4.204 -0.0190 -0.2728  0.2136
 7617SOL    HW134576   6.130  12.835   4.220 -0.4217  0.1129  1.1918
 7617SOL    HW234577   6.009  12.832   4.128  0.2814  0.0610  0.2509
 7618SOL     OW34578   1.542   5.403   0.023 -0.1733 -0.2506 -0.0169
 7618SOL    HW134579   1.464   5.459   0.024  0.2321  0.3325  0.7562
 7618SOL    HW234580   1.540   5.359  -0.062 -0.2998  1.2496 -0.8269
 7619SOL     OW34581  13.595   3.066   2.229 -0.1310  0.4248 -0.0398
 7619SOL    HW134582  13.651   3.067   2.151  0.1281  0.6036  0.1479
 7619SOL    HW234583  13.515   3.021   2.200  0.1201  0.1401 -0.2957
 7620SOL     OW34584   4.099   4.187  13.244  0.5127  0.2045  0.5032
 7620SOL    HW134585   4.174   4.244  13.230 -0.0451  0.5328 -1.3726
 7620SOL    HW234586   4.133   4.099  13.228  1.0158  0.1272  1.9111
 7621SOL     OW34587  12.006   3.859   9.609  0.0865 -0.3086  0.2011
 7621SOL    HW134588  11.951   3.891   9.538 -0.9397  0.4586  1.3068
 7621SOL    HW234589  11.956   3.878   9.689  1.6607 -0.1798  1.2035
 7622SOL     OW34590  10.323  13.510   5.628 -0.5223  0.1031  0.2324
 7622SOL    HW134591  10.256  13.450   5.661  0.9587 -0.6667  2.0276
 7622SOL    HW234592  10.366  13.462   5.558  0.1726 -0.6752  1.1716
 7623SOL     OW34593   3.653   3.367   8.153 -0.0420 -0.3481  0.4555
 7623SOL    HW134594   3.596   3.305   8.199 -0.0263 -0.7210 -0.0187
 7623SOL    HW234595   3.740   3.353   8.193  0.1403 -1.2403 -0.2224
 7624SOL     OW34596   1.160   2.618   3.826  0.5474  0.4207  0.0330
 7624SOL    HW134597   1.241   2.583   3.788  1.2836 -0.0233  1.8941
 7624SOL    HW234598   1.103   2.634   3.750  1.6772 -1.0110 -1.1912
 7625SOL     OW34599   0.063   3.380   5.250 -0.1690  0.2118  0.6298
 7625SOL    HW134600   0.146   3.340   5.278  0.7127  1.9165  0.5952
 7625SOL    HW234601   0.067   3.378   5.154 -1.0196 -1.3366  0.6048
 7626SOL     OW34602  10.013  13.152   0.591 -0.0753  0.2263 -0.3244
 7626SOL    HW134603   9.991  13.201   0.512  0.2221 -1.2140 -1.3156
 7626SOL    HW234604   9.941  13.170   0.651 -1.1199  0.0625 -1.5012
 7627SOL     OW34605   5.141   9.000   7.860  0.8638  0.1005 -0.2626
 7627SOL    HW134606   5.092   9.045   7.792 -1.3614 -0.6517  0.7530
 7627SOL    HW234607   5.091   9.017   7.941  1.1080 -2.3750  0.4953
 7628SOL     OW34608   2.155   3.722  12.748  0.1928  0.7179  0.4780
 7628SOL    HW134609   2.061   3.707  12.757  0.0102  1.5520 -0.0152
 7628SOL    HW234610   2.178   3.683  12.664  0.4001  0.0497  0.8313
 7629SOL     OW34611   5.645   1.527  10.413 -0.0538  0.4442  0.2210
 7629SOL    HW134612   5.646   1.620  10.436  0.8226  0.7189 -0.8075
 7629SOL    HW234613   5.731   1.494  10.442 -0.5724 -0.1933  1.0845
 7630SOL     OW34614   7.826   2.569   5.964 -0.2534 -0.1195  0.4301
 7630SOL    HW134615   7.904   2.520   5.937  0.4211 -0.1956  2.4018
 7630SOL    HW234616   7.764   2.556   5.892  1.7427  0.4785 -1.4938
 7631SOL     OW34617   0.573   4.408   4.555 -0.9965  0.6496 -0.6470
 7631SOL    HW134618   0.608   4.436   4.471  0.6884  0.8759  0.0859
 7631SOL    HW234619   0.539   4.488   4.595  1.3967  1.2789  0.3163
 7632SOL     OW34620   9.154  12.978   0.738  0.5818  0.2195  0.0300
 7632SOL    HW134621   9.226  13.030   0.703  0.3560  0.6210  0.1576
 7632SOL    HW234622   9.075  13.023   0.707  0.3753 -0.5976 -0.6877
 7633SOL     OW34623   2.742  10.726   3.486  0.1630 -0.0385  0.1399
 7633SOL    HW134624   2.688  10.768   3.553  1.9334  0.7818  1.1285
 7633SOL    HW234625   2.680  10.683   3.428 -1.4588 -0.3823  2.0402
 7634SOL     OW34626   3.542   9.742  12.905 -0.4531 -0.0537  0.5273
 7634SOL    HW134627   3.608   9.783  12.849  1.0079 -1.1030  1.4088
 7634SOL    HW234628   3.551   9.786  12.989 -0.6831 -0.4010  0.7356
 7635SOL     OW34629   9.655  11.413   6.989  0.1645  0.2575  0.4731
 7635SOL    HW134630   9.615  11.360   6.921 -1.0619  0.0490  1.3272
 7635SOL    HW234631   9.674  11.497   6.946 -0.2022 -0.0056 -0.2205
 7636SOL     OW34632  12.111   2.842   4.597 -0.4931  0.0235 -0.0108
 7636SOL    HW134633  12.057   2.906   4.644 -1.3065 -1.2106  0.7962
 7636SOL    HW234634  12.075   2.757   4.622 -1.5286 -0.7427 -3.5509
 7637SOL     OW34635   7.102   3.735   6.259 -0.0701 -0.0414  0.1257
 7637SOL    HW134636   7.121   3.696   6.173 -0.9082 -0.4159  0.0975
 7637SOL    HW234637   7.071   3.823   6.239  0.3003  0.0800  0.0835
 7638SOL     OW34638   8.343   1.884   8.861 -0.1339 -0.3360 -0.3624
 7638SOL    HW134639   8.347   1.818   8.791  0.2995  0.6948 -1.3382
 7638SOL    HW234640   8.266   1.860   8.912 -0.9914 -0.6155 -1.7191
 7639SOL     OW34641   4.590   8.751   0.112 -0.1563 -0.4888  0.4376
 7639SOL    HW134642   4.542   8.719   0.035 -0.7953 -2.7333  1.6857
 7639SOL    HW234643   4.534   8.818   0.150 -0.6172 -0.5563 -0.1093
 7640SOL     OW34644   6.593   3.592   9.897 -0.1019  0.1898  0.0037
 7640SOL    HW134645   6.545   3.557   9.971  0.2292  0.8598  0.5466
 7640SOL    HW234646   6.528   3.642   9.848 -1.3118 -3.3320 -2.3568
 7641SOL     OW34647  11.983   6.640   6.795  0.2698 -0.1950  0.2165
 7641SOL    HW134648  12.004   6.628   6.888  0.8371 -0.2814  0.0762
 7641SOL    HW234649  11.889   6.659   6.795  0.2976 -0.0184  0.8238
 7642SOL     OW34650  11.841   4.700   4.397 -0.4590 -0.5647  0.3871
 7642SOL    HW134651  11.915   4.730   4.449 -1.1750 -2.5064  2.6635
 7642SOL    HW234652  11.769   4.759   4.422 -0.0539  0.5644 -0.9423
 7643SOL     OW34653   9.805   6.826   7.636 -0.1435 -0.4327 -0.2470
 7643SOL    HW134654   9.831   6.866   7.552 -0.4276 -0.2661 -0.2575
 7643SOL    HW234655   9.860   6.870   7.701 -2.9824  2.7967  0.2687
 7644SOL     OW34656   2.324   1.511   3.481 -0.0548 -0.3778 -0.5696
 7644SOL    HW134657   2.322   1.421   3.513 -0.8627 -0.4312 -0.7558
 7644SOL    HW234658   2.233   1.541   3.488  0.6447  1.5105  2.5558
 7645SOL     OW34659  10.767   8.497   4.419  0.2498 -0.0763  0.0829
 7645SOL    HW134660  10.685   8.458   4.449  0.8261 -0.1929  1.5457
 7645SOL    HW234661  10.762   8.489   4.323 -1.5632  0.1893  0.1117
 7646SOL     OW34662  13.621   7.880  13.277  0.1291 -0.4139 -0.3737
 7646SOL    HW134663  13.662   7.879  13.364 -0.9065 -0.8607  0.1280
 7646SOL    HW234664  13.671   7.818  13.225  0.6628 -0.2548 -0.0566
 7647SOL     OW34665   8.061  10.608   6.454 -0.0888  1.2323 -0.2251
 7647SOL    HW134666   8.065  10.539   6.519  0.6895  1.6860  0.2237
 7647SOL    HW234667   8.033  10.564   6.374 -0.8687  0.6408  0.3643
 7648SOL     OW34668   7.269  12.961   1.566  0.5109 -0.3982 -0.0340
 7648SOL    HW134669   7.356  12.921   1.568  1.2766  0.8405 -3.0803
 7648SOL    HW234670   7.283  13.050   1.599  0.6774  0.1566 -1.5344
 7649SOL     OW34671   0.258   2.563   1.951  0.2012  0.0025  0.2820
 7649SOL    HW134672   0.226   2.650   1.928  0.2975 -0.1974 -0.6261
 7649SOL    HW234673   0.180   2.513   1.973 -0.3233 -0.8075 -2.9656
 7650SOL     OW34674   0.959   1.215   7.838 -0.5634  0.2322 -0.6864
 7650SOL    HW134675   0.879   1.169   7.863 -0.7953  0.2256 -1.4086
 7650SOL    HW234676   0.930   1.283   7.777 -0.2793  1.6965  0.7577
 7651SOL     OW34677   8.138  12.308   2.261  0.2321 -0.3443 -0.1358
 7651SOL    HW134678   8.062  12.358   2.290 -0.4639 -0.6729 -1.3157
 7651SOL    HW234679   8.126  12.298   2.166  0.7367 -2.0733 -0.0618
 7652SOL     OW34680   6.140   4.533   6.972  0.6534 -0.3351 -0.2428
 7652SOL    HW134681   6.222   4.484   6.967  0.2984 -0.7904 -2.1343
 7652SOL    HW234682   6.076   4.469   7.003  0.5436 -0.6110 -1.0306
 7653SOL     OW34683   5.730   0.349   3.753 -0.1670  0.2838  0.3073
 7653SOL    HW134684   5.800   0.415   3.755  0.4184 -0.3312  1.7691
 7653SOL    HW234685   5.710   0.334   3.846 -0.6862 -1.1718 -0.0267
 7654SOL     OW34686   0.045   9.430   0.700  0.3743  0.3493  0.2920
 7654SOL    HW134687   0.016   9.477   0.778  1.2133 -0.2833  0.9954
 7654SOL    HW234688   0.046   9.338   0.726 -4.7742 -0.7264 -2.0381
 7655SOL     OW34689   4.302   2.066   0.816  0.1027 -0.3419 -0.8480
 7655SOL    HW134690   4.386   2.048   0.774  1.6999  0.3959  1.7823
 7655SOL    HW234691   4.316   2.045   0.909 -2.1508  1.1924 -0.0638
 7656SOL     OW34692   5.745  11.964   5.615  0.0221  0.1551  0.2150
 7656SOL    HW134693   5.671  12.025   5.615 -0.0041  0.1280 -0.0365
 7656SOL    HW234694   5.710  11.886   5.572 -0.3687 -0.5759  1.8047
 7657SOL     OW34695   1.263   6.840  13.028  0.7640 -0.0874 -0.3064
 7657SOL    HW134696   1.291   6.753  13.001  1.7329  0.2088 -0.2680
 7657SOL    HW234697   1.339   6.896  13.015  0.3311  0.6476  0.2055
 7658SOL     OW34698   6.626   3.165  12.298 -0.1422 -0.0007 -0.8492
 7658SOL    HW134699   6.593   3.075  12.288  0.3925 -0.1878 -0.9880
 7658SOL    HW234700   6.695   3.158  12.365 -1.3415  0.6385  0.5180
 7659SOL     OW34701   0.388   6.318   2.169  0.0605  0.2605 -0.5010
 7659SOL    HW134702   0.449   6.261   2.121  0.5800 -0.1028  0.5551
 7659SOL    HW234703   0.301   6.284   2.146  0.3744 -1.7932  1.0266
 7660SOL     OW34704   3.061   1.629  11.000 -0.3847  0.2855 -0.3012
 7660SOL    HW134705   3.129   1.584  11.050 -0.9901 -0.5571 -0.2133
 7660SOL    HW234706   2.986   1.570  11.004 -0.4200  0.1330 -2.2989
 7661SOL     OW34707  11.115   6.427  11.204  0.5773 -0.1032  0.1049
 7661SOL    HW134708  11.090   6.385  11.122  0.5817 -1.5304  0.7907
 7661SOL    HW234709  11.163   6.359  11.251  1.2502  0.9437  0.9601
 7662SOL     OW34710   1.214   0.345   6.841 -0.0550  0.2264  0.0208
 7662SOL    HW134711   1.232   0.336   6.747 -2.4212 -1.4553 -0.3591
 7662SOL    HW234712   1.278   0.287   6.883  1.1153  1.0936 -0.4905
 7663SOL     OW34713  12.502  10.822  10.989  0.0663  0.3758 -0.5555
 7663SOL    HW134714  12.487  10.913  11.013 -0.8978 -0.4483  2.4604
 7663SOL    HW234715  12.578  10.796  11.041 -0.3467 -0.7985 -0.5127
 7664SOL     OW34716  13.505   2.003   4.169 -0.2536 -0.3082  0.4958
 7664SOL    HW134717  13.534   2.011   4.078 -1.2142  0.0647  0.2178
 7664SOL    HW234718  13.440   2.072   4.180  0.4961  0.2293  1.7363
 7665SOL     OW34719  13.379   1.377  10.081 -0.3430 -0.3152  0.0842
 7665SOL    HW134720  13.388   1.472  10.072  1.1199 -0.5133 -0.7256
 7665SOL    HW234721  13.441   1.340  10.018  0.2570 -1.8129  1.4744
 7666SOL     OW34722   1.623   4.867   7.083 -0.3503 -0.1034  0.2021
 7666SOL    HW134723   1.560   4.803   7.114 -1.9639  0.7600 -1.0724
 7666SOL    HW234724   1.691   4.870   7.150 -0.5370 -2.6534  0.5756
 7667SOL     OW34725   8.140   2.052   5.916  0.2212 -0.2655 -0.5301
 7667SOL    HW134726   8.177   1.983   5.861 -0.4742  1.2686 -3.1241
 7667SOL    HW234727   8.208   2.120   5.916 -1.0110  1.0776 -2.3319
 7668SOL     OW34728   8.140   1.058   2.692 -0.3662 -0.9535  0.4619
 7668SOL    HW134729   8.105   1.063   2.781  1.1862  1.8877  1.0246
 7668SOL    HW234730   8.080   1.110   2.639 -1.4722 -2.8971 -0.3321
 7669SOL     OW34731  13.261  10.416   3.661  0.2257 -0.2051 -0.4415
 7669SOL    HW134732  13.311  10.461   3.730  0.8412 -1.0662 -0.3135
 7669SOL    HW234733  13.322  10.409   3.588  0.1380 -0.8547 -0.4511
 7670SOL     OW34734  13.187   0.971  13.117 -0.5090  0.2523 -0.7750
 7670SOL    HW134735  13.111   0.981  13.174 -1.8277 -2.3138 -1.9105
 7670SOL    HW234736  13.252   0.927  13.172 -0.9983 -0.2935 -0.6171
 7671SOL     OW34737   3.893  12.686  11.950  0.4195  0.0774 -0.6253
 7671SOL    HW134738   3.971  12.632  11.961 -0.8286 -1.4675  1.3430
 7671SOL    HW234739   3.823  12.624  11.930 -0.8281  1.0826  0.4213
 7672SOL     OW34740  10.399   3.248   5.045  0.0270 -0.3487 -0.0683
 7672SOL    HW134741  10.411   3.338   5.075  1.0541  0.0772 -1.6709
 7672SOL    HW234742  10.464   3.198   5.094 -1.6058 -0.5960  2.0607
 7673SOL     OW34743  12.554   2.348  12.307  0.5274  0.6008 -0.3435
 7673SOL    HW134744  12.629   2.323  12.253  0.0557  1.1759 -1.2968
 7673SOL    HW234745  12.542   2.276  12.368  1.8718  0.5127 -0.1573
 7674SOL     OW34746   2.598   8.566   5.713  0.2268  0.0052  0.6437
 7674SOL    HW134747   2.659   8.589   5.783 -0.2042  2.2441  0.3778
 7674SOL    HW234748   2.655   8.546   5.638  0.6637 -1.4968  1.3417
 7675SOL     OW34749   0.435  10.639   4.983  0.3803  0.1768  0.3073
 7675SOL    HW134750   0.350  10.671   4.953  0.3841  2.1366  2.1271
 7675SOL    HW234751   0.417  10.602   5.070  1.0949 -1.2147 -0.1111
 7676SOL     OW34752  11.279   3.715   8.911  0.2668  0.0201 -0.0182
 7676SOL    HW134753  11.246   3.701   9.000 -0.1617  2.0634  0.1934
 7676SOL    HW234754  11.357   3.659   8.905 -0.9043 -1.8208  0.8552
 7677SOL     OW34755  10.193  10.552   8.834  0.5300 -0.0763 -0.2093
 7677SOL    HW134756  10.222  10.508   8.914 -0.0566  0.4215  0.2852
 7677SOL    HW234757  10.125  10.496   8.799 -0.3352  0.5021  0.5109
 7678SOL     OW34758   1.136   6.383   5.749  0.0731  0.4168 -0.0711
 7678SOL    HW134759   1.226   6.414   5.763 -0.0651  0.4088  0.9352
 7678SOL    HW234760   1.094   6.454   5.700  0.5310  0.5801 -0.2350
 7679SOL     OW34761   3.082   9.419   9.439 -0.0633 -0.2980  0.0255
 7679SOL    HW134762   3.082   9.336   9.391 -0.4564 -0.5053  0.3712
 7679SOL    HW234763   3.074   9.486   9.371  0.2570 -0.5424 -0.2563
 7680SOL     OW34764   8.540   1.265   8.030 -0.1620 -0.5146 -0.1759
 7680SOL    HW134765   8.539   1.224   8.117  0.3755 -1.1804 -0.4780
 7680SOL    HW234766   8.540   1.191   7.969  0.3029 -0.0610 -0.7333
 7681SOL     OW34767  10.991   2.508   8.254 -0.1703  0.3750 -0.7541
 7681SOL    HW134768  10.972   2.576   8.189  0.0837  0.3801 -0.8217
 7681SOL    HW234769  10.999   2.555   8.337 -1.3463  0.2753 -0.5665
 7682SOL     OW34770   3.295   4.811   6.372  0.4052 -0.6118  0.0161
 7682SOL    HW134771   3.334   4.746   6.313  0.9537 -0.0547 -0.2611
 7682SOL    HW234772   3.224   4.850   6.321  1.1601  0.1811 -0.4775
 7683SOL     OW34773   5.849   7.201  13.720 -0.0828  0.2828 -0.1060
 7683SOL    HW134774   5.932   7.248  13.715  1.4294 -1.5016  3.7968
 7683SOL    HW234775   5.796   7.254  13.781 -0.8432  0.1466 -0.6373
 7684SOL     OW34776   4.633   3.830   9.278 -0.1199  0.1745  0.2263
 7684SOL    HW134777   4.727   3.846   9.269 -0.0370  0.0810  0.8559
 7684SOL    HW234778   4.627   3.736   9.293 -0.2432  0.2908  0.9602
 7685SOL     OW34779   5.185   2.324   8.342  0.1224 -0.0092 -0.5433
 7685SOL    HW134780   5.146   2.393   8.289 -0.1052  1.1797  1.0934
 7685SOL    HW234781   5.121   2.309   8.412  1.2131 -0.1881  0.4525
 7686SOL     OW34782  12.675   0.549   8.444  0.0239  0.4066  0.4452
 7686SOL    HW134783  12.733   0.507   8.380  0.9697  0.6137  1.1596
 7686SOL    HW234784  12.712   0.636   8.457 -0.7443  0.7334  0.5409
 7687SOL     OW34785   3.064   3.215   4.244 -0.4715 -0.0942 -0.3282
 7687SOL    HW134786   3.025   3.301   4.231  0.6963  0.4376 -0.4258
 7687SOL    HW234787   3.111   3.197   4.163  1.8472  0.5745  0.7782
 7688SOL     OW34788   0.398   1.705  12.586  0.0705 -0.3865 -0.1570
 7688SOL    HW134789   0.451   1.637  12.628  0.2411  0.7463  1.5900
 7688SOL    HW234790   0.460   1.777  12.571 -0.6960  0.5460  0.9313
 7689SOL     OW34791   0.104   2.428   6.882 -0.5118 -0.2066  0.1160
 7689SOL    HW134792   0.168   2.459   6.945 -0.3820 -0.8325  0.2960
 7689SOL    HW234793   0.152   2.419   6.800  0.2313 -2.9055  0.7722
 7690SOL     OW34794   1.372  11.554   4.065 -0.0372 -0.1545  0.3920
 7690SOL    HW134795   1.418  11.489   4.011 -0.6371 -0.4679  0.2543
 7690SOL    HW234796   1.441  11.615   4.092 -0.0188  1.3072 -2.5488
 7691SOL     OW34797   8.862  13.271   8.509 -0.8107 -0.3247 -0.4147
 7691SOL    HW134798   8.863  13.255   8.604 -0.1517  0.5046 -0.2650
 7691SOL    HW234799   8.773  13.300   8.491 -0.6692  0.5043  0.1434
 7692SOL     OW34800   9.196   6.059   1.064  0.3437 -0.4875 -0.1065
 7692SOL    HW134801   9.254   6.130   1.039  0.9006 -0.3673  1.4467
 7692SOL    HW234802   9.246   5.979   1.047  0.8157 -0.3976  0.8152
 7693SOL     OW34803   9.656   3.187  12.968  0.3444  0.1667  0.4901
 7693SOL    HW134804   9.567   3.187  13.004  0.2951  0.1481  0.3687
 7693SOL    HW234805   9.647   3.228  12.882  0.7773  1.9421  1.2503
 7694SOL     OW34806   9.053   9.257   4.755  0.4630  0.0643  0.8775
 7694SOL    HW134807   9.127   9.196   4.756  1.1614  0.8132 -0.8686
 7694SOL    HW234808   8.981   9.207   4.717  0.7280 -0.0181  0.4721
 7695SOL     OW34809   3.603   9.716   4.031  0.5892 -0.7150 -0.0890
 7695SOL    HW134810   3.649   9.678   3.956  0.0471 -0.4093 -0.5810
 7695SOL    HW234811   3.607   9.648   4.098  0.7789 -1.1222 -0.5082
 7696SOL     OW34812  13.300   2.132   1.141  0.3582 -0.1730 -0.4807
 7696SOL    HW134813  13.217   2.089   1.119 -0.3264  0.0977  1.3803
 7696SOL    HW234814  13.357   2.060   1.167  0.3565 -0.2637 -0.7232
 7697SOL     OW34815   0.102  12.661  13.588  0.2077 -0.4761 -0.3455
 7697SOL    HW134816   0.072  12.625  13.505  0.0504 -0.9221 -0.1035
 7697SOL    HW234817   0.038  12.728  13.610 -1.1369 -1.9680  0.5702
 7698SOL     OW34818  11.561  12.577  12.116 -0.2572  0.3477  0.7018
 7698SOL    HW134819  11.570  12.615  12.203 -1.7349  1.3591  0.4422
 7698SOL    HW234820  11.467  12.574  12.100 -0.0721 -1.1129 -0.3168
 7699SOL     OW34821   9.614   2.984   5.003  0.4151  0.0353 -0.4595
 7699SOL    HW134822   9.665   3.045   5.057  0.0428  0.7536 -0.9036
 7699SOL    HW234823   9.643   2.897   5.031 -0.9715  0.3057  2.1175
 7700SOL     OW34824   3.834  12.332  10.222  0.2197  0.6902  0.1834
 7700SOL    HW134825   3.885  12.251  10.231  1.2410  1.1391 -1.1836
 7700SOL    HW234826   3.899  12.399  10.201 -0.7752  1.5808 -0.1342
 7701SOL     OW34827   5.013   8.253  10.734 -0.0075  0.3464 -0.4617
 7701SOL    HW134828   4.986   8.343  10.716 -0.1447  0.0931 -1.6047
 7701SOL    HW234829   4.957   8.224  10.806 -1.1210  0.6326 -1.1986
 7702SOL     OW34830   8.717   5.713  13.710  0.2295  0.1590  0.7842
 7702SOL    HW134831   8.637   5.762  13.728 -0.1294  0.0911 -0.5705
 7702SOL    HW234832   8.713   5.639  13.771 -0.7593  0.1276  0.6997
 7703SOL     OW34833   6.637  12.420  10.533 -0.0817 -0.3063 -0.3221
 7703SOL    HW134834   6.688  12.341  10.517  1.5348  0.6844 -0.3486
 7703SOL    HW234835   6.653  12.476  10.457 -1.2230  0.0460 -0.3260
 7704SOL     OW34836   6.514  11.489   0.870 -0.1855  0.3166  0.7949
 7704SOL    HW134837   6.605  11.467   0.853 -0.6226 -1.4273  0.4366
 7704SOL    HW234838   6.488  11.431   0.941 -1.4508 -0.4739 -0.2586
 7705SOL     OW34839   9.895   6.083  13.566  0.1961 -0.1230  0.0335
 7705SOL    HW134840   9.922   6.169  13.599  0.6015 -0.3756  0.3572
 7705SOL    HW234841   9.974   6.029  13.570  0.0946 -0.3435 -0.7372
 7706SOL     OW34842   7.144  11.585   6.070 -0.2778 -0.5140 -0.3386
 7706SOL    HW134843   7.104  11.534   6.140 -1.4192 -0.3739 -0.8516
 7706SOL    HW234844   7.114  11.675   6.085 -1.9779 -0.7552 -1.9333
 7707SOL     OW34845  12.732  11.909   3.421 -0.0566  0.6960 -0.1884
 7707SOL    HW134846  12.715  11.954   3.338 -0.9710  0.7823  0.0367
 7707SOL    HW234847  12.674  11.833   3.420  1.1724 -0.2799 -0.3754
 7708SOL     OW34848  13.616   3.723   8.794 -0.6944  0.3178  0.1104
 7708SOL    HW134849  13.641   3.756   8.881 -1.3034  1.3748 -0.0978
 7708SOL    HW234850  13.544   3.662   8.811 -0.1264 -0.2710  0.4297
 7709SOL     OW34851  12.001   5.199  13.381  0.1701 -0.3862  1.1461
 7709SOL    HW134852  12.002   5.114  13.425  0.4414 -1.9841 -1.7081
 7709SOL    HW234853  11.914   5.205  13.342  0.1582  0.6986  1.2959
 7710SOL     OW34854   5.061   2.250   8.771  0.5044  0.7230  0.4247
 7710SOL    HW134855   5.143   2.204   8.787  0.6413  0.2835 -1.3415
 7710SOL    HW234856   4.995   2.199   8.817  1.2884  1.5869  2.6365
 7711SOL     OW34857  13.516   0.199   0.618  0.0114 -0.5697 -0.1253
 7711SOL    HW134858  13.490   0.183   0.527  1.5824 -0.7961 -0.5599
 7711SOL    HW234859  13.610   0.219   0.613  0.3864 -1.7227  1.5637
 7712SOL     OW34860   4.709   2.862  13.040  0.0870  0.1111  0.2410
 7712SOL    HW134861   4.646   2.869  12.968  0.5964 -0.2036 -0.2367
 7712SOL    HW234862   4.730   2.952  13.062 -0.0124  0.2062 -0.0507
 7713SOL     OW34863  12.682   5.305   2.382 -0.8783  0.2205  0.7952
 7713SOL    HW134864  12.744   5.322   2.312 -0.5640 -0.7923  0.8124
 7713SOL    HW234865  12.725   5.338   2.461 -0.5393 -0.0920  0.7442
 7714SOL     OW34866  13.496  13.344   2.777 -0.3401  0.3159 -0.5516
 7714SOL    HW134867  13.414  13.314   2.816 -0.1278 -1.2232 -1.2481
 7714SOL    HW234868  13.520  13.420   2.830 -0.6945 -0.9386  1.5354
 7715SOL     OW34869   3.823   4.788  12.044  0.4147 -0.4053  0.3651
 7715SOL    HW134870   3.842   4.836  12.125  1.8392  0.6297 -0.5338
 7715SOL    HW234871   3.901   4.802  11.990  0.0234 -2.1302 -0.6989
 7716SOL     OW34872  12.746   0.827   1.557  0.0429  0.2418  0.7235
 7716SOL    HW134873  12.837   0.845   1.580  1.0085 -0.4351 -2.0941
 7716SOL    HW234874  12.729   0.740   1.593  0.8813 -0.0459  0.4507
 7717SOL     OW34875   0.225   0.100  11.713  0.0360  0.4660  0.0981
 7717SOL    HW134876   0.265   0.032  11.768 -0.3378  0.2447  0.1014
 7717SOL    HW234877   0.294   0.125  11.651  0.1246 -0.0383 -0.0105
 7718SOL     OW34878   4.809  11.692  10.634 -0.1063  0.0347 -0.0421
 7718SOL    HW134879   4.824  11.746  10.712  0.3992  0.4998 -0.4564
 7718SOL    HW234880   4.818  11.753  10.561 -0.2182 -0.4774 -0.4853
 7719SOL     OW34881   5.839   6.465  11.338  0.3921 -0.6801  0.2198
 7719SOL    HW134882   5.816   6.528  11.406 -0.3014 -0.9373  0.2277
 7719SOL    HW234883   5.803   6.382  11.369 -1.7796 -0.4244 -1.4044
 7720SOL     OW34884   1.733   0.887  12.905  0.3875  0.4131  0.0363
 7720SOL    HW134885   1.792   0.843  12.844  0.6672 -0.1820  0.7163
 7720SOL    HW234886   1.655   0.831  12.908  1.0021 -0.4216  1.3930
 7721SOL     OW34887   2.680   0.170   1.844 -0.1552  0.1513  0.2247
 7721SOL    HW134888   2.672   0.075   1.858  0.0288  0.2586  1.1474
 7721SOL    HW234889   2.644   0.209   1.924 -2.6094  0.9476 -1.1707
 7722SOL     OW34890   9.025  12.127  13.006 -0.0225 -0.0386  0.2363
 7722SOL    HW134891   8.940  12.153  12.969 -0.4194 -2.4799 -0.7679
 7722SOL    HW234892   9.018  12.148  13.099 -0.0126  3.8227 -0.4411
 7723SOL     OW34893   0.553   8.729  13.212 -0.5775  0.8552  0.0346
 7723SOL    HW134894   0.549   8.675  13.134 -0.7036 -0.5406  0.9820
 7723SOL    HW234895   0.462   8.742  13.238 -0.4980 -0.9273  1.4094
 7724SOL     OW34896  13.200   0.761  11.738  0.2036  0.5049  0.2256
 7724SOL    HW134897  13.279   0.773  11.790 -0.6161 -0.0794  1.6655
 7724SOL    HW234898  13.232   0.732  11.652  1.5356 -0.1701  0.9214
 7725SOL     OW34899   1.743   6.257  10.612 -0.5799  0.4288  0.1182
 7725SOL    HW134900   1.755   6.269  10.517 -1.0107  0.9881  0.1244
 7725SOL    HW234901   1.652   6.228  10.620 -0.1964 -0.7644  0.2814
 7726SOL     OW34902   8.066  11.103   3.635  0.5069  0.0790  0.5470
 7726SOL    HW134903   8.119  11.138   3.707  1.3580 -1.7049  0.8451
 7726SOL    HW234904   8.107  11.138   3.556  0.9526  0.2655  0.8530
 7727SOL     OW34905  11.417  12.568   1.190 -0.1621 -0.6190 -0.2565
 7727SOL    HW134906  11.418  12.595   1.281 -1.5464 -1.1109 -0.0783
 7727SOL    HW234907  11.508  12.579   1.161 -0.0324  1.1399  0.6831
 7728SOL     OW34908   1.359   3.246   7.262 -0.0977 -0.1164 -0.5901
 7728SOL    HW134909   1.282   3.220   7.312 -0.3872  0.6347 -0.6241
 7728SOL    HW234910   1.324   3.296   7.188  0.4493  1.0299 -0.1070
 7729SOL     OW34911   4.690   2.378   5.083 -0.2309  0.4867 -0.4369
 7729SOL    HW134912   4.749   2.364   5.157 -0.4473  2.4756  0.1744
 7729SOL    HW234913   4.651   2.292   5.067 -0.6144  0.0924  2.1458
 7730SOL     OW34914   2.308   1.943   1.352 -0.3254  0.5323  0.3137
 7730SOL    HW134915   2.331   1.892   1.429 -1.4357 -0.5909 -0.0547
 7730SOL    HW234916   2.288   2.030   1.385  0.7673  0.5146  1.0740
 7731SOL     OW34917   1.856  11.919  13.669  0.0207 -0.4749 -0.8046
 7731SOL    HW134918   1.776  11.879  13.634 -0.3256 -0.1513 -0.3936
 7731SOL    HW234919   1.919  11.847  13.671 -0.4872 -0.9170 -0.4187
 7732SOL     OW34920   6.608   9.724   7.151 -0.2364  0.1949  0.0323
 7732SOL    HW134921   6.516   9.714   7.128 -0.4792 -0.4435  1.2150
 7732SOL    HW234922   6.651   9.649   7.112 -0.8353 -1.5434  2.5143
 7733SOL     OW34923   2.325  13.675   5.254  0.2346  0.1181  0.0757
 7733SOL    HW134924   2.342  13.746   5.317  2.5184 -0.4046  0.1213
 7733SOL    HW234925   2.411  13.638   5.235 -0.6954 -1.4474 -1.3942
 7734SOL     OW34926   2.559   3.776   6.643  0.6435  0.3885  0.3071
 7734SOL    HW134927   2.567   3.834   6.567 -1.8944  0.0733 -0.2964
 7734SOL    HW234928   2.605   3.696   6.616  0.6212  0.6351 -0.4999
 7735SOL     OW34929   5.957   6.733  11.279  0.0554  0.7366  0.4017
 7735SOL    HW134930   5.896   6.660  11.291  1.8330 -1.1926 -1.4210
 7735SOL    HW234931   5.912   6.793  11.220 -0.2272 -0.5726 -0.7852
 7736SOL     OW34932   7.619   0.528   7.728 -0.1775  0.9017  0.3292
 7736SOL    HW134933   7.541   0.577   7.754  0.5896  1.7872  1.0589
 7736SOL    HW234934   7.630   0.548   7.635 -1.7470 -0.5810 -0.2173
 7737SOL     OW34935   9.927   6.014  13.212 -0.5441 -1.0518 -0.1428
 7737SOL    HW134936   9.837   5.992  13.189 -1.3190  0.7865  0.8578
 7737SOL    HW234937   9.936   5.985  13.303  0.0942 -1.7645 -0.4231
 7738SOL     OW34938   3.800   7.558   7.828  0.3685  0.4031 -0.6314
 7738SOL    HW134939   3.844   7.598   7.903  1.4966 -1.2502 -0.3826
 7738SOL    HW234940   3.857   7.577   7.754 -0.8047  2.1426 -1.1710
 7739SOL     OW34941   2.920  13.486   7.856 -0.0703  0.1616 -0.0905
 7739SOL    HW134942   2.903  13.415   7.794  1.0244 -1.9912  1.8933
 7739SOL    HW234943   2.849  13.478   7.920  0.4778  0.3494  0.5477
 7740SOL     OW34944   1.302  11.454   8.700 -0.0314 -0.4106 -0.2649
 7740SOL    HW134945   1.257  11.519   8.754  0.2197 -0.0542 -0.4818
 7740SOL    HW234946   1.330  11.387   8.762 -1.2124 -0.8397 -0.1783
 7741SOL     OW34947   7.295   9.563   0.652  0.1000  0.3227  0.5555
 7741SOL    HW134948   7.311   9.481   0.698 -3.6128 -0.5308  0.6762
 7741SOL    HW234949   7.316   9.631   0.716  4.6030 -0.2680 -0.0028
 7742SOL     OW34950  13.630   4.811   3.566 -0.0184 -0.9725  0.4145
 7742SOL    HW134951  13.706   4.780   3.615  0.7559 -0.9400 -0.7383
 7742SOL    HW234952  13.608   4.895   3.606  0.1008 -1.3055  1.2082
 7743SOL     OW34953  11.514   9.674   8.734 -0.3835 -0.1973  0.3585
 7743SOL    HW134954  11.492   9.763   8.761  0.0810  0.3205 -0.8920
 7743SOL    HW234955  11.438   9.621   8.760 -0.5099  0.4819  1.4406
 7744SOL     OW34956   5.483   1.279   2.600  0.0666 -0.4742 -0.1828
 7744SOL    HW134957   5.472   1.193   2.640  1.0107 -1.0994 -1.2115
 7744SOL    HW234958   5.559   1.317   2.645  0.8325 -0.9831 -1.0029
 7745SOL     OW34959   6.664   7.444   9.457  0.1450  0.4625  0.2714
 7745SOL    HW134960   6.668   7.478   9.368 -0.6729 -1.0236 -0.3602
 7745SOL    HW234961   6.749   7.403   9.471 -0.3044 -0.7792 -0.4727
 7746SOL     OW34962   1.188   4.988  12.783 -0.2513 -0.5546  0.1106
 7746SOL    HW134963   1.142   4.953  12.859  0.9015  1.9728  2.1436
 7746SOL    HW234964   1.129   5.053  12.747  0.2608  0.1800  0.5605
 7747SOL     OW34965   3.559   3.438   2.759 -0.1313  0.0751  0.1130
 7747SOL    HW134966   3.538   3.409   2.848 -0.9359 -0.3471 -0.2103
 7747SOL    HW234967   3.641   3.487   2.769 -0.2458  0.0883  1.0961
 7748SOL     OW34968  11.329  11.107  12.407 -0.3312  0.9737 -0.0888
 7748SOL    HW134969  11.367  11.195  12.410 -0.4813  1.0278  2.7065
 7748SOL    HW234970  11.404  11.048  12.406 -0.0731  1.1385  2.4633
 7749SOL     OW34971   5.954   7.822   1.169  0.5034 -0.0451 -0.1292
 7749SOL    HW134972   5.915   7.858   1.248 -1.1569 -1.5707 -0.1784
 7749SOL    HW234973   6.046   7.809   1.190  0.6922  2.0772  0.5906
 7750SOL     OW34974   1.512   3.325  13.683  0.2330 -0.4391  0.1499
 7750SOL    HW134975   1.525   3.231  13.683 -1.1519 -0.7084 -1.9907
 7750SOL    HW234976   1.498   3.348  13.775 -0.7180 -2.5343  0.5766
 7751SOL     OW34977  12.659  10.121   7.744  1.0597  0.0930 -0.1533
 7751SOL    HW134978  12.626  10.103   7.655  1.9074  1.0017 -0.6745
 7751SOL    HW234979  12.592  10.085   7.802  0.7415 -0.9861 -1.1535
 7752SOL     OW34980  12.126   2.612   6.391  0.6813 -0.6079 -0.1595
 7752SOL    HW134981  12.090   2.536   6.437  0.2852 -0.0026  0.5457
 7752SOL    HW234982  12.090   2.688   6.437  2.1251  0.0133 -0.0019
 7753SOL     OW34983   3.179  10.272  10.327  0.2756  0.1344 -0.0864
 7753SOL    HW134984   3.138  10.335  10.269  3.4256  1.1795 -1.3938
 7753SOL    HW234985   3.219  10.208  10.269  0.7375 -0.6802  1.0844
 7754SOL     OW34986   7.167   5.518  11.965 -0.2599 -0.1506  0.1624
 7754SOL    HW134987   7.153   5.550  11.876 -0.3827 -1.2917 -0.2427
 7754SOL    HW234988   7.080   5.516  12.005 -0.2029  0.3786  0.3303
 7755SOL     OW34989   1.272   4.685  13.731  0.1916 -0.3524  0.4718
 7755SOL    HW134990   1.362   4.698  13.761  0.7465  0.4195 -1.3949
 7755SOL    HW234991   1.238   4.773  13.718 -0.1705 -0.6421 -0.6684
 7756SOL     OW34992   3.890   0.475   1.175  0.3981 -0.0319 -0.0293
 7756SOL    HW134993   3.914   0.548   1.232  0.4438 -0.0570 -0.0162
 7756SOL    HW234994   3.974   0.440   1.144  0.4498 -1.1498  1.3014
 7757SOL     OW34995  10.299   8.213   1.470 -0.2027 -0.0578 -0.1638
 7757SOL    HW134996  10.380   8.177   1.434  0.6141  1.4341  0.1135
 7757SOL    HW234997  10.230   8.155   1.437  0.9283 -1.1049 -0.7480
 7758SOL     OW34998  12.756   0.090  10.839 -0.5517 -0.4825 -0.1115
 7758SOL    HW134999  12.833   0.083  10.896  0.6633  0.1339 -1.6062
 7758SOL    HW235000  12.721   0.001  10.836  1.3705 -1.2803 -1.0312
 7759SOL     OW35001   7.420   9.412   7.876  0.2428  0.2019  0.0874
 7759SOL    HW135002   7.408   9.387   7.967  1.0750 -0.8013 -0.0559
 7759SOL    HW235003   7.400   9.333   7.826  0.8515  0.4145 -0.5172
 7760SOL     OW35004   0.422   1.586   8.336 -0.1153  0.5664 -0.7066
 7760SOL    HW135005   0.371   1.603   8.415 -1.1330 -1.3585 -0.9020
 7760SOL    HW235006   0.503   1.546   8.368 -0.3155  0.2440 -0.5921
 7761SOL     OW35007   2.508  12.026   8.429  0.5752 -0.0570 -0.3736
 7761SOL    HW135008   2.441  11.959   8.434  0.4733  0.1452  1.7990
 7761SOL    HW235009   2.589  11.980   8.451  0.7905  0.1756 -0.6757
 7762SOL     OW35010   6.286  12.584   5.530 -0.1321 -0.0625  0.5741
 7762SOL    HW135011   6.352  12.571   5.462 -2.2185  1.8102 -2.0505
 7762SOL    HW235012   6.292  12.505   5.584  1.0787 -2.1728 -2.3210
 7763SOL     OW35013   3.278   5.281   9.499 -0.1613 -0.1757 -0.4208
 7763SOL    HW135014   3.351   5.280   9.438 -0.2290 -1.5036 -0.4973
 7763SOL    HW235015   3.315   5.317   9.580  0.3324  0.0491 -0.7447
 7764SOL     OW35016   5.722  11.571  11.334  0.2253 -0.1798  0.1437
 7764SOL    HW135017   5.748  11.488  11.376  0.4425  0.5246  1.4601
 7764SOL    HW235018   5.707  11.547  11.242 -2.5414 -2.3017  0.9928
 7765SOL     OW35019   3.881   8.287  10.144 -0.3393 -0.6019 -0.0827
 7765SOL    HW135020   3.849   8.376  10.130  0.6081 -0.2496 -0.0437
 7765SOL    HW235021   3.802   8.232  10.138 -1.2851  0.4104  1.8734
 7766SOL     OW35022   8.982  10.740  13.113  0.1809  0.2281  0.5551
 7766SOL    HW135023   8.954  10.744  13.205 -0.8599  0.6764  0.2339
 7766SOL    HW235024   9.065  10.692  13.115 -0.4122 -0.7902  1.5954
 7767SOL     OW35025   3.531  10.242   1.974  0.0391  0.1279  0.3287
 7767SOL    HW135026   3.526  10.264   1.881  0.8827  0.8001  0.4239
 7767SOL    HW235027   3.507  10.150   1.978  0.8906 -0.1691 -0.6801
 7768SOL     OW35028   1.449  11.000  11.861  0.2401  0.1460 -0.0098
 7768SOL    HW135029   1.487  10.973  11.778  1.5437 -0.7253  0.8263
 7768SOL    HW235030   1.476  11.091  11.872  0.5509  0.0832 -0.2587
 7769SOL     OW35031   5.680   8.181   4.366  0.4184 -0.3023  0.4046
 7769SOL    HW135032   5.667   8.272   4.395 -0.3285 -0.5873  0.9868
 7769SOL    HW235033   5.634   8.128   4.431  0.5363 -1.0817 -0.1334
 7770SOL     OW35034   9.501   2.449   3.820 -0.0974  0.6043 -0.3154
 7770SOL    HW135035   9.482   2.486   3.734  0.0256  1.7651  0.1389
 7770SOL    HW235036   9.448   2.370   3.824 -1.0773  1.2077 -0.9727
 7771SOL     OW35037  12.654   3.326   3.905 -0.2810 -0.4110  0.1427
 7771SOL    HW135038  12.746   3.312   3.929  0.5309 -0.2000 -2.5120
 7771SOL    HW235039  12.605   3.303   3.984  1.8383 -3.6665  0.7184
 7772SOL     OW35040  12.930   3.045   0.669 -0.0868  0.1212 -0.0948
 7772SOL    HW135041  12.877   3.113   0.626  0.9942  0.9510 -0.1547
 7772SOL    HW235042  12.909   3.053   0.762 -1.7291 -1.0567 -0.3230
 7773SOL     OW35043   7.592   3.511   1.831 -0.0315 -0.2532  0.0774
 7773SOL    HW135044   7.685   3.528   1.823 -0.6332  3.0128 -1.5197
 7773SOL    HW235045   7.567   3.472   1.747 -0.5719  2.0243 -0.8971
 7774SOL     OW35046   4.464  12.056   1.405 -0.1902 -0.2012  0.5604
 7774SOL    HW135047   4.559  12.046   1.402 -0.1545  0.1888 -2.2246
 7774SOL    HW235048   4.439  12.080   1.315 -2.9988 -0.9952  1.0172
 7775SOL     OW35049   9.975   2.223  13.080  0.0651 -0.1314 -0.8757
 7775SOL    HW135050  10.069   2.242  13.075  0.5105 -1.6998  0.5267
 7775SOL    HW235051   9.933   2.309  13.088  1.4167  0.5703 -1.1681
 7776SOL     OW35052   8.990  11.015  11.560  0.0833  0.1032 -0.0543
 7776SOL    HW135053   8.986  10.930  11.603  1.0716 -0.3756 -0.8544
 7776SOL    HW235054   9.018  10.995  11.471  0.1830  1.2573 -0.2952
 7777SOL     OW35055   6.468  10.942   2.456  0.0774 -0.1276 -0.1776
 7777SOL    HW135056   6.527  10.945   2.381 -0.9391  0.4724 -0.9817
 7777SOL    HW235057   6.451  11.034   2.476 -0.7692 -0.2917 -0.1178
 7778SOL     OW35058   5.019  11.723  11.043  0.7198  0.5148 -0.5685
 7778SOL    HW135059   5.089  11.706  10.981  1.9996  0.5646  0.7850
 7778SOL    HW235060   4.971  11.798  11.006  0.3961 -0.4933 -2.2768
 7779SOL     OW35061   5.885   1.996   2.195  0.7487 -0.2591 -0.1493
 7779SOL    HW135062   5.840   2.063   2.143  1.4728  0.7998  0.5592
 7779SOL    HW235063   5.908   2.040   2.277 -0.0268 -1.7860  0.9356
 7780SOL     OW35064   2.816   8.592  11.883  0.3617  0.7867 -0.6211
 7780SOL    HW135065   2.782   8.642  11.809 -3.8962 -1.9165 -0.8288
 7780SOL    HW235066   2.759   8.616  11.957 -0.3992 -1.9179 -0.2147
 7781SOL     OW35067   5.700   1.901   6.674  0.1698 -0.2475  0.3548
 7781SOL    HW135068   5.663   1.812   6.678 -0.6848  0.0699 -0.2553
 7781SOL    HW235069   5.739   1.914   6.761 -0.1105 -1.0413  0.6111
 7782SOL     OW35070   2.176  12.757   1.693 -0.7573  0.0092  0.2523
 7782SOL    HW135071   2.146  12.714   1.773  0.3540 -0.8590  0.2253
 7782SOL    HW235072   2.167  12.851   1.712 -1.6145 -0.2006  0.9458
 7783SOL     OW35073  11.851   5.521   0.157  0.1500  0.7231 -0.2522
 7783SOL    HW135074  11.943   5.499   0.173 -0.4689 -2.4613 -0.4504
 7783SOL    HW235075  11.816   5.445   0.110 -2.8447  1.3672  0.7543
 7784SOL     OW35076   1.919   1.589   9.974  0.1927  0.2239  0.1081
 7784SOL    HW135077   1.859   1.616   9.906  1.0497  0.7638 -0.4574
 7784SOL    HW235078   1.873   1.520  10.022 -0.4804 -0.0586 -0.9196
 7785SOL     OW35079   9.899   5.348   5.066 -0.0461 -0.2193  0.7361
 7785SOL    HW135080   9.850   5.307   4.995  0.5574 -0.0867  0.2386
 7785SOL    HW235081   9.983   5.302   5.068  0.3649  0.5023  0.6418
 7786SOL     OW35082   8.045   7.174  10.815  0.1622 -0.0367  0.1972
 7786SOL    HW135083   8.015   7.187  10.905 -0.5609  0.2879 -0.0799
 7786SOL    HW235084   7.980   7.115  10.776  0.2183  0.1801 -0.2367
 7787SOL     OW35085   4.712   1.078   5.488  0.3484  0.0530  0.5089
 7787SOL    HW135086   4.695   1.057   5.396  0.5260 -0.8665  0.6746
 7787SOL    HW235087   4.806   1.095   5.493  0.2408  0.6863  0.4153
 7788SOL     OW35088  12.355  12.545   8.711 -0.0197  0.1791 -0.3424
 7788SOL    HW135089  12.396  12.480   8.655 -0.6023 -1.4878  1.0817
 7788SOL    HW235090  12.280  12.577   8.660 -0.3825 -1.0998 -0.6384
 7789SOL     OW35091   0.332   2.885   5.020 -0.7335 -0.4606  0.8173
 7789SOL    HW135092   0.318   2.838   5.102  0.3931 -1.1550  0.6321
 7789SOL    HW235093   0.275   2.840   4.957 -0.2043 -1.1328  0.8081
 7790SOL     OW35094   8.135   1.018  10.772 -0.5217 -0.2548  0.0557
 7790SOL    HW135095   8.094   1.019  10.858  0.5638  0.4081  0.5950
 7790SOL    HW235096   8.071   1.058  10.713 -0.3931  1.4239  1.0024
 7791SOL     OW35097   4.386  12.019   5.506 -0.2677  0.0938 -0.0561
 7791SOL    HW135098   4.369  12.113   5.503  0.7121  0.2626 -1.6686
 7791SOL    HW235099   4.471  12.012   5.551 -1.0595 -0.1707  1.4570
 7792SOL     OW35100   8.936  12.453   4.453  0.0095 -0.1823  0.0098
 7792SOL    HW135101   8.859  12.405   4.421 -0.5347 -0.9623  2.2848
 7792SOL    HW235102   8.996  12.384   4.482  0.1209  0.4525  1.3614
 7793SOL     OW35103  11.918  12.490  10.413 -0.1616  0.3184  0.2256
 7793SOL    HW135104  12.001  12.444  10.428  0.7051  1.7837  0.2112
 7793SOL    HW235105  11.880  12.447  10.337 -1.4577 -3.0102  2.5185
 7794SOL     OW35106  10.512   2.318  12.032 -0.1035  0.3950 -0.0331
 7794SOL    HW135107  10.445   2.268  11.986  0.5550  0.4520 -1.1027
 7794SOL    HW235108  10.582   2.330  11.967  0.7844  0.6466  0.9291
 7795SOL     OW35109   5.758   3.318   0.899  0.1904 -0.3549 -0.5549
 7795SOL    HW135110   5.678   3.286   0.941  0.6896 -0.2786  0.4843
 7795SOL    HW235111   5.777   3.401   0.943  0.2221  0.1902 -1.5825
 7796SOL     OW35112   0.815   5.572  11.752  0.6775  0.4840  0.3681
 7796SOL    HW135113   0.902   5.537  11.771  0.2627 -0.1892  1.0953
 7796SOL    HW235114   0.790   5.618  11.832  0.5592  1.0925 -0.0119
 7797SOL     OW35115   7.128  12.186   4.533  0.2191  0.7600 -0.1543
 7797SOL    HW135116   7.116  12.255   4.468  0.0435  0.0628 -0.8838
 7797SOL    HW235117   7.223  12.178   4.541  0.2539  0.3744 -0.8597
 7798SOL     OW35118  13.342   8.938  10.586  0.3225  0.1732 -0.2729
 7798SOL    HW135119  13.290   8.965  10.511  0.8988  0.0938 -0.7097
 7798SOL    HW235120  13.282   8.945  10.661 -0.3915 -0.2008 -0.7980
 7799SOL     OW35121   4.681  13.296  13.334 -0.0973 -0.0114 -0.1449
 7799SOL    HW135122   4.713  13.367  13.390 -1.0312 -0.0340  0.4269
 7799SOL    HW235123   4.588  13.314  13.323 -0.3551 -1.1740  0.0482
 7800SOL     OW35124   7.941   7.634   5.460  0.1511  0.4079 -0.1541
 7800SOL    HW135125   8.025   7.631   5.505  0.1603 -1.1551 -0.2113
 7800SOL    HW235126   7.932   7.548   5.419 -1.9045  0.1642  0.6630
 7801SOL     OW35127   5.904   7.185  12.176 -0.0296 -0.4323  0.1737
 7801SOL    HW135128   5.945   7.144  12.100  0.7659  0.7476 -0.0580
 7801SOL    HW235129   5.904   7.117  12.243  2.2533 -0.5524  0.1520
 7802SOL     OW35130  12.674  12.593   7.805  0.3262 -0.1892  0.2658
 7802SOL    HW135131  12.682  12.643   7.886  0.8447 -0.2587  0.2605
 7802SOL    HW235132  12.607  12.639   7.755 -0.0469 -0.1840  0.7601
 7803SOL     OW35133   4.630   2.261  11.021 -0.3788  0.3672 -0.0545
 7803SOL    HW135134   4.639   2.166  11.026  1.5332  0.5712  3.5595
 7803SOL    HW235135   4.560   2.282  11.083  1.3253  1.4199  1.6230
 7804SOL     OW35136   5.515  10.492  12.658  0.6385  0.3325  0.5399
 7804SOL    HW135137   5.589  10.553  12.653  0.3448  0.6235 -0.4956
 7804SOL    HW235138   5.519  10.443  12.576  0.5560 -0.6933  1.1354
 7805SOL     OW35139   1.736  10.447   5.258 -0.1143 -0.1213  0.1161
 7805SOL    HW135140   1.689  10.409   5.333  0.0180  0.8584  0.7205
 7805SOL    HW235141   1.727  10.542   5.271 -0.5678  0.0702 -1.4183
 7806SOL     OW35142   0.253  11.263  12.010  0.3070  0.3219 -0.1626
 7806SOL    HW135143   0.341  11.265  12.048  0.8073  0.6131 -1.2765
 7806SOL    HW235144   0.236  11.170  11.994  0.7475  0.3151 -0.6471
 7807SOL     OW35145   8.875   8.626  13.698 -0.1541 -0.4079  0.4078
 7807SOL    HW135146   8.810   8.556  13.700 -0.8730  0.1602 -1.3066
 7807SOL    HW235147   8.932   8.603  13.625 -1.2195  1.4494 -1.0859
 7808SOL     OW35148   0.254  12.117   2.187 -0.3849 -0.0553  0.2121
 7808SOL    HW135149   0.316  12.189   2.180 -0.6233  0.4354  2.3568
 7808SOL    HW235150   0.183  12.140   2.126  0.0805  0.9360  0.0296
 7809SOL     OW35151  10.466  13.451  12.595  0.2925  0.5350 -0.0532
 7809SOL    HW135152  10.423  13.468  12.679  0.0645  1.2357 -0.3021
 7809SOL    HW235153  10.429  13.516  12.535 -1.2653 -1.3654 -1.3051
 7810SOL     OW35154  11.764  12.222   9.997 -0.2747 -0.0086 -0.2061
 7810SOL    HW135155  11.805  12.144  10.033 -0.0412  1.2745  2.5727
 7810SOL    HW235156  11.835  12.271   9.956  0.3710  0.5658  1.5330
 7811SOL     OW35157   2.687   8.517   2.781  0.5480  0.4912 -0.2987
 7811SOL    HW135158   2.677   8.427   2.812  0.3870  0.6105  0.0010
 7811SOL    HW235159   2.667   8.571   2.857 -0.2212  0.7982 -0.7113
 7812SOL     OW35160   3.559  10.652   7.087  0.0448 -0.1840 -0.3101
 7812SOL    HW135161   3.614  10.701   7.026 -0.4493  0.5676 -0.1609
 7812SOL    HW235162   3.621  10.597   7.135  0.8625  1.5936  0.7759
 7813SOL     OW35163  12.147   4.848   5.415  0.5490  0.2173  0.1902
 7813SOL    HW135164  12.110   4.897   5.342  0.7516  0.7486  0.4322
 7813SOL    HW235165  12.070   4.814   5.462  0.4322 -0.4878 -0.5051
 7814SOL     OW35166   2.428   5.627   8.650 -0.1020  0.1562  0.1334
 7814SOL    HW135167   2.476   5.672   8.581 -0.7794  2.2917  0.9296
 7814SOL    HW235168   2.349   5.594   8.607 -0.9216  2.1741 -0.0748
 7815SOL     OW35169  13.120   3.260   5.390  0.5892 -0.5072 -0.2850
 7815SOL    HW135170  13.183   3.208   5.439  0.7300 -0.1371 -0.0668
 7815SOL    HW235171  13.169   3.339   5.365  0.8753 -1.1860 -2.0193
 7816SOL     OW35172   5.561  12.397  13.131  0.4344 -0.1896  0.5679
 7816SOL    HW135173   5.587  12.470  13.074 -2.0768 -0.7171 -1.4213
 7816SOL    HW235174   5.605  12.321  13.093  0.9064 -0.1489  1.0167
 7817SOL     OW35175   9.467  13.679   1.795 -0.9220  0.5876  0.1159
 7817SOL    HW135176   9.452  13.772   1.780  0.3025  0.7370 -0.2437
 7817SOL    HW235177   9.422  13.636   1.722  1.4478  1.0977 -1.7755
 7818SOL     OW35178   0.036   8.594   5.124 -0.4246 -0.1088  0.6054
 7818SOL    HW135179  -0.003   8.522   5.173 -1.0878  1.2774  2.2144
 7818SOL    HW235180   0.131   8.583   5.138 -0.4583 -1.1455  0.1007
 7819SOL     OW35181   2.410   8.095  10.694 -0.3493  0.0501 -0.4854
 7819SOL    HW135182   2.456   8.122  10.614 -0.5962 -1.4182 -1.1488
 7819SOL    HW235183   2.479   8.065  10.752 -0.2884 -0.3105 -0.7381
 7820SOL     OW35184   8.621   4.073   0.873  0.1077 -0.0539 -0.2264
 7820SOL    HW135185   8.702   4.125   0.864 -1.3274  2.2664 -0.6165
 7820SOL    HW235186   8.618   4.051   0.966  1.2055 -0.2135 -0.2143
 7821SOL     OW35187   6.527   9.887   8.017  0.1752 -0.6115  0.0159
 7821SOL    HW135188   6.506   9.810   8.070  2.3507 -0.2254  1.5982
 7821SOL    HW235189   6.462   9.887   7.948 -0.3908 -3.4156  0.4231
 7822SOL     OW35190   1.649   9.780   2.161 -0.2437  0.2611 -0.0721
 7822SOL    HW135191   1.662   9.873   2.143 -1.1936  0.5005  0.3951
 7822SOL    HW235192   1.719   9.736   2.112 -0.6758  1.1113 -1.5237
 7823SOL     OW35193   9.389   8.760   1.747  0.5300  0.1060  0.2265
 7823SOL    HW135194   9.477   8.794   1.760  0.5143  0.6757 -0.9805
 7823SOL    HW235195   9.385   8.738   1.654 -0.6724  0.3284  0.2036
 7824SOL     OW35196   5.650  12.842  12.699  0.4487 -0.2032  0.0285
 7824SOL    HW135197   5.734  12.841  12.746  0.8711  1.4531 -0.6196
 7824SOL    HW235198   5.658  12.916  12.639 -1.1636 -0.5608 -0.6571
 7825SOL     OW35199   0.638   5.245   3.202 -0.9985  0.1607  0.5709
 7825SOL    HW135200   0.650   5.171   3.143 -1.1039  1.3182 -0.9460
 7825SOL    HW235201   0.639   5.205   3.290  0.6391 -1.4216 -0.0929
 7826SOL     OW35202  10.113   0.917   2.673  0.2973  0.2292 -0.1990
 7826SOL    HW135203  10.183   0.908   2.737 -1.5161 -0.7415  1.7668
 7826SOL    HW235204  10.077   1.004   2.688  1.0639  0.7573 -1.2577
 7827SOL     OW35205   0.638   3.247   7.640 -0.4328 -0.7626  0.1546
 7827SOL    HW135206   0.645   3.292   7.724 -1.6547 -0.6870  0.2435
 7827SOL    HW235207   0.547   3.262   7.613 -0.0093 -0.6524 -1.2586
 7828SOL     OW35208   0.843   9.742   5.498 -0.3749  0.3804 -0.1734
 7828SOL    HW135209   0.895   9.664   5.477 -1.6762 -0.5919  0.0155
 7828SOL    HW235210   0.783   9.712   5.567  0.5277  2.1647  1.4725
 7829SOL     OW35211   0.179   6.595  13.594 -0.0090  0.4892  0.0681
 7829SOL    HW135212   0.248   6.583  13.529  0.5137  0.9024  0.5386
 7829SOL    HW235213   0.215   6.558  13.675  0.4308  2.3533  0.7852
 7830SOL     OW35214  13.633   3.176   7.148  0.0165 -0.5544 -0.0955
 7830SOL    HW135215  13.573   3.222   7.207 -0.0468  0.7620 -1.1154
 7830SOL    HW235216  13.578   3.109   7.105  0.1500 -1.7558  1.5439
 7831SOL     OW35217   1.098   0.861   4.997 -0.3449  0.2208  0.1437
 7831SOL    HW135218   1.124   0.949   4.969 -1.8491  0.2977 -1.1244
 7831SOL    HW235219   1.180   0.818   5.020  0.3913  2.0666  1.1812
 7832SOL     OW35220   8.289  12.547   0.291 -0.5119 -0.2860 -0.4293
 7832SOL    HW135221   8.305  12.477   0.227 -1.1203 -1.2903  0.4855
 7832SOL    HW235222   8.315  12.627   0.245 -1.0810 -0.9531 -1.9967
 7833SOL     OW35223   8.595   3.732   4.865  0.3577 -0.3430  0.0631
 7833SOL    HW135224   8.522   3.691   4.910  0.7977 -2.2560 -0.8419
 7833SOL    HW235225   8.615   3.810   4.917 -1.4485 -0.4874  1.0618
 7834SOL     OW35226  10.146   7.545   8.929 -0.1875 -0.1255  0.3821
 7834SOL    HW135227  10.104   7.533   8.844 -0.3018  0.8630  0.2777
 7834SOL    HW235228  10.239   7.554   8.908 -0.0977 -0.8568  0.4636
 7835SOL     OW35229  11.360   8.386   0.891  0.6430  0.5870  0.1379
 7835SOL    HW135230  11.445   8.344   0.877  0.1632 -0.1074 -0.7775
 7835SOL    HW235231  11.373   8.476   0.860  1.4236  0.8912  1.2829
 7836SOL     OW35232   9.881   7.193   5.676 -0.6978 -0.4711 -0.1566
 7836SOL    HW135233   9.848   7.263   5.732 -1.9561 -0.1666 -1.2279
 7836SOL    HW235234   9.923   7.239   5.603  1.2754 -0.8589  0.6726
 7837SOL     OW35235   4.538   9.154   6.999  0.0866 -0.4466  0.3100
 7837SOL    HW135236   4.513   9.239   7.036 -1.1237 -0.3169 -0.7059
 7837SOL    HW235237   4.625   9.137   7.033  0.3086  1.1649  0.6195
 7838SOL     OW35238   2.772   4.858   7.566 -0.6839  0.5249 -0.0183
 7838SOL    HW135239   2.677   4.871   7.560 -0.9170 -1.2180 -0.7220
 7838SOL    HW235240   2.801   4.854   7.475  0.3672  2.6760  0.1570
 7839SOL     OW35241   7.900   8.163   6.609 -0.2080  0.2917 -0.4321
 7839SOL    HW135242   7.885   8.175   6.703  2.0996 -2.2701  0.3838
 7839SOL    HW235243   7.864   8.076   6.590  1.9525 -0.5133 -1.1720
 7840SOL     OW35244   5.009   9.072   8.777 -0.0189  0.3507  0.2183
 7840SOL    HW135245   4.988   9.166   8.772  3.2869  1.3198  1.7405
 7840SOL    HW235246   4.959   9.041   8.852 -0.7160  0.9916  0.0410
 7841SOL     OW35247   6.898  13.412   9.767  0.2450  0.1219 -0.2019
 7841SOL    HW135248   6.983  13.449   9.746  0.9262 -1.1099  0.3018
 7841SOL    HW235249   6.917  13.337   9.823 -1.2312  0.4054  0.7446
 7842SOL     OW35250  13.211   6.119   6.406 -0.2197  0.3380  0.5429
 7842SOL    HW135251  13.239   6.084   6.491  0.3016 -0.4825  0.0380
 7842SOL    HW235252  13.185   6.042   6.356 -1.9436  0.9341  0.4518
 7843SOL     OW35253   4.058   5.209   4.103 -1.0777  0.0362 -0.0381
 7843SOL    HW135254   4.042   5.233   4.194 -3.2034 -1.9626  0.2111
 7843SOL    HW235255   4.150   5.182   4.101 -0.6169  1.4018  1.1766
 7844SOL     OW35256   4.873  12.667   5.639 -0.1775  0.0630  0.1331
 7844SOL    HW135257   4.875  12.742   5.699 -0.0638  1.0698 -1.0775
 7844SOL    HW235258   4.796  12.682   5.584  0.2182 -0.3460 -0.5543
 7845SOL     OW35259   0.996   3.263   1.191 -0.1791  0.7310 -0.0333
 7845SOL    HW135260   1.070   3.202   1.191 -1.6620 -1.1804  0.5785
 7845SOL    HW235261   0.947   3.240   1.270 -1.6342  1.6663 -0.6377
 7846SOL     OW35262   1.145   5.808   0.072  0.3529  0.4098  0.2521
 7846SOL    HW135263   1.138   5.901   0.094  0.7102  0.3368  0.6659
 7846SOL    HW235264   1.164   5.808  -0.022 -0.5658  0.7290  0.0484
 7847SOL     OW35265   4.233   2.221  12.758  0.2250 -0.1705  0.7182
 7847SOL    HW135266   4.284   2.287  12.805  0.1435  0.6470 -0.3234
 7847SOL    HW235267   4.265   2.224  12.668 -0.1065 -1.2280  0.5429
 7848SOL     OW35268  13.359   1.932   3.310  0.3811 -0.1979 -0.0875
 7848SOL    HW135269  13.422   1.956   3.378 -1.7905 -1.7835  2.7381
 7848SOL    HW235270  13.275   1.963   3.345 -1.2307 -3.5342 -0.5911
 7849SOL     OW35271  10.390  12.692   5.808 -0.0277  0.1577 -0.6389
 7849SOL    HW135272  10.313  12.710   5.863  0.1770  1.1716 -0.6715
 7849SOL    HW235273  10.458  12.750   5.841  1.0110 -1.3469 -0.0519
 7850SOL     OW35274   5.213   0.774   2.508  0.4042  0.3641 -0.4029
 7850SOL    HW135275   5.207   0.685   2.471 -2.0946 -0.2758  1.2696
 7850SOL    HW235276   5.219   0.760   2.602 -1.1217  1.9202 -0.0243
 7851SOL     OW35277   3.476   4.267   5.946 -0.2045 -0.3127 -0.2441
 7851SOL    HW135278   3.570   4.258   5.931  0.0152  2.3160 -1.0329
 7851SOL    HW235279   3.452   4.190   5.997  2.4250 -0.9276  0.2070
 7852SOL     OW35280   6.824  12.728  12.145 -0.2401  0.1685 -0.3142
 7852SOL    HW135281   6.827  12.823  12.134  2.0616  0.0347 -1.4412
 7852SOL    HW235282   6.901  12.707  12.199  0.0075 -1.1462 -1.1168
 7853SOL     OW35283  12.560  11.430   7.067  0.8317 -0.2047  0.1910
 7853SOL    HW135284  12.651  11.453   7.046 -0.1277  2.4893 -1.4373
 7853SOL    HW235285  12.538  11.484   7.143  0.0448  0.6330 -0.6090
 7854SOL     OW35286  10.952   7.596  11.949  0.0680  0.0599  0.1821
 7854SOL    HW135287  10.974   7.679  11.990 -0.8957 -0.8920  2.8594
 7854SOL    HW235288  10.951   7.615  11.855 -2.4224  3.6554  0.7272
 7855SOL     OW35289   1.770   5.350   5.222 -0.2900  1.2662  0.3247
 7855SOL    HW135290   1.799   5.354   5.313 -2.0929 -2.3649  1.2449
 7855SOL    HW235291   1.679   5.379   5.225 -0.6690  0.1681 -0.0816
 7856SOL     OW35292  13.117   6.953  11.333  0.6444 -0.0091  0.1174
 7856SOL    HW135293  13.179   6.906  11.388 -0.6222 -0.7157  0.9948
 7856SOL    HW235294  13.036   6.955  11.384 -0.7738 -1.1800 -1.9129
 7857SOL     OW35295   5.802   5.445   3.223 -0.1819 -0.1990  0.0043
 7857SOL    HW135296   5.869   5.391   3.182 -0.9664 -1.2060  0.0009
 7857SOL    HW235297   5.811   5.427   3.316  0.2187  0.4528  0.0911
 7858SOL     OW35298   7.155   9.670   8.862  0.0515  0.4752  0.1493
 7858SOL    HW135299   7.210   9.725   8.917  0.0445  1.9275 -1.2349
 7858SOL    HW235300   7.096   9.731   8.817  0.5934 -0.5370 -2.0896
 7859SOL     OW35301   9.275   9.519   9.780 -0.6396 -0.6913 -0.4668
 7859SOL    HW135302   9.247   9.428   9.790  0.2970 -1.2264 -2.2763
 7859SOL    HW235303   9.276   9.533   9.685  2.4476  0.1274 -0.4135
 7860SOL     OW35304  11.390   8.038  10.909 -0.1106 -0.0045  0.5660
 7860SOL    HW135305  11.437   7.965  10.948 -2.2117 -1.0737  1.2344
 7860SOL    HW235306  11.437   8.057  10.828  0.4646 -2.1455  0.3532
 7861SOL     OW35307   8.700   3.542   5.710 -0.0895  0.0454  0.6874
 7861SOL    HW135308   8.688   3.634   5.690 -0.0074  0.0053  0.4622
 7861SOL    HW235309   8.671   3.496   5.631  0.9283 -0.0838  0.3820
 7862SOL     OW35310   9.147  12.431   1.010 -0.4835 -0.1519  0.2523
 7862SOL    HW135311   9.151  12.336   0.996 -0.0588 -0.0490 -0.3657
 7862SOL    HW235312   9.217  12.466   0.955 -0.0101  0.4421  1.2068
 7863SOL     OW35313  10.445   6.356   2.220 -0.7066  0.3594  0.1306
 7863SOL    HW135314  10.417   6.440   2.256 -0.6699  0.3932  0.0793
 7863SOL    HW235315  10.420   6.359   2.128 -2.3636 -0.4025  0.5160
 7864SOL     OW35316   0.002   1.418   8.983  0.6490  0.8009  0.0913
 7864SOL    HW135317   0.065   1.437   9.052  1.5682  1.4123 -0.8825
 7864SOL    HW235318  -0.077   1.465   9.008 -0.5852 -2.3753  2.9164
 7865SOL     OW35319   0.169   4.348  11.355 -0.1341  0.1338 -0.5616
 7865SOL    HW135320   0.263   4.363  11.362 -0.0210  0.0613 -1.6386
 7865SOL    HW235321   0.151   4.278  11.417  0.4911  0.2706 -0.2158
 7866SOL     OW35322   3.289   1.979   7.428 -0.3796 -0.0445 -0.1031
 7866SOL    HW135323   3.313   1.992   7.519 -0.2128 -1.3668  0.0691
 7866SOL    HW235324   3.370   1.951   7.385 -0.9996 -2.1505 -0.0298
 7867SOL     OW35325  12.310  10.596   9.559 -0.2577  0.8091 -0.3868
 7867SOL    HW135326  12.318  10.618   9.466  0.9614  0.3447 -0.3998
 7867SOL    HW235327  12.313  10.501   9.563  0.8677  0.8556  0.2234
 7868SOL     OW35328   4.531   5.497  10.721  0.1959 -0.2085  0.4366
 7868SOL    HW135329   4.497   5.563  10.781 -1.4057  0.6412 -1.3040
 7868SOL    HW235330   4.454   5.445  10.697  0.9481 -1.0263 -0.2874
 7869SOL     OW35331   5.790  11.619  12.200 -0.0239 -0.0668  0.1640
 7869SOL    HW135332   5.762  11.618  12.109  0.9335  1.7338 -0.2114
 7869SOL    HW235333   5.876  11.661  12.198 -0.1336  0.3348  1.9323
 7870SOL     OW35334   4.432   4.220  10.348 -0.1478  0.3883  0.2058
 7870SOL    HW135335   4.363   4.285  10.361 -0.1494  0.3785  0.2486
 7870SOL    HW235336   4.386   4.138  10.337 -0.2597  0.7124 -2.1927
 7871SOL     OW35337   9.289   6.803   6.665  0.4270  0.1443 -0.2355
 7871SOL    HW135338   9.239   6.880   6.639  0.6370  0.5340  0.4853
 7871SOL    HW235339   9.374   6.813   6.624 -0.0362 -0.4719 -1.3863
 7872SOL     OW35340   3.350   8.205   0.771 -0.3736  0.4550  0.0771
 7872SOL    HW135341   3.279   8.267   0.759 -0.3927  0.4878  0.3569
 7872SOL    HW235342   3.407   8.245   0.836 -0.5992  0.0025  0.5637
 7873SOL     OW35343  13.472   7.618  12.964  0.0044 -0.3914  0.2658
 7873SOL    HW135344  13.507   7.529  12.968 -0.8102 -0.7571 -0.2300
 7873SOL    HW235345  13.535   7.667  12.912  0.2242 -0.8124  0.1294
 7874SOL     OW35346   4.832  13.378   4.023  0.1737 -0.5598  0.1114
 7874SOL    HW135347   4.787  13.404   3.943 -0.8408 -1.4219  0.3778
 7874SOL    HW235348   4.862  13.289   4.007  1.4145 -0.1678  0.1125
 7875SOL     OW35349  13.555  11.464   0.080 -0.6293 -0.1169  0.1038
 7875SOL    HW135350  13.546  11.375   0.046  1.3838  0.5531 -2.5238
 7875SOL    HW235351  13.484  11.513   0.039 -0.6040 -0.1278  0.0479
 7876SOL     OW35352   9.553   6.444   3.320 -0.0110 -0.8631 -0.2687
 7876SOL    HW135353   9.611   6.518   3.300 -1.2615  0.1245 -0.3769
 7876SOL    HW235354   9.533   6.453   3.413  0.2964 -1.4232 -0.1439
 7877SOL     OW35355   8.693   4.179   0.219 -0.5479  0.2262  0.0105
 7877SOL    HW135356   8.705   4.086   0.239 -0.5976  0.1784 -0.1816
 7877SOL    HW235357   8.652   4.216   0.297 -1.9463 -0.2201 -0.4918
 7878SOL     OW35358   3.278  13.042  12.196 -0.0770 -0.2137 -0.0012
 7878SOL    HW135359   3.222  13.006  12.128  1.0593  0.3237 -1.2671
 7878SOL    HW235360   3.367  13.022  12.167  0.4645  0.8413  0.8518
 7879SOL     OW35361   7.493   3.705  11.449  0.5639  0.0289 -0.0796
 7879SOL    HW135362   7.488   3.775  11.514 -0.5051  0.1637 -0.3031
 7879SOL    HW235363   7.537   3.633  11.496  0.6854  0.4624  0.4842
 7880SOL     OW35364   5.133  11.961  12.235  0.8035 -0.4551  0.6349
 7880SOL    HW135365   5.116  12.034  12.175  0.3300 -0.8497  0.2821
 7880SOL    HW235366   5.048  11.920  12.248  1.1041 -1.0985  0.6328
 7881SOL     OW35367   6.484  13.555   8.903  0.6210  0.3878 -0.0677
 7881SOL    HW135368   6.390  13.542   8.891  0.5588  0.6621  0.1305
 7881SOL    HW235369   6.514  13.592   8.820  0.1998  2.2476  0.5797
 7882SOL     OW35370  13.095  12.102   1.098 -0.1123 -0.6279 -0.2949
 7882SOL    HW135371  13.087  12.105   1.003  1.7843  0.5961 -0.4638
 7882SOL    HW235372  13.177  12.056   1.114  0.5528  0.8001  0.6583
 7883SOL     OW35373   4.394   6.344  11.688  0.1058 -0.2741  0.1176
 7883SOL    HW135374   4.311   6.298  11.676  0.0568 -0.2847  0.4841
 7883SOL    HW235375   4.416   6.379  11.601 -0.5837  0.2481  0.1494
 7884SOL     OW35376   7.653   9.424  11.211 -0.5925  0.3047 -0.0467
 7884SOL    HW135377   7.678   9.384  11.127  0.6059  0.1751  0.3639
 7884SOL    HW235378   7.675   9.516  11.201  3.7626 -0.3477  1.5923
 7885SOL     OW35379  10.983  11.826  12.677  0.2543  0.0097  0.1255
 7885SOL    HW135380  10.914  11.888  12.700 -0.8484 -0.2323 -2.2016
 7885SOL    HW235381  11.065  11.873  12.695 -0.5287  1.1886  0.7449
 7886SOL     OW35382  12.262  10.304   3.637 -0.3522  0.4179 -0.3296
 7886SOL    HW135383  12.334  10.279   3.694  0.1397  0.3388 -0.9692
 7886SOL    HW235384  12.304  10.347   3.563 -0.7577 -1.3999 -1.7038
 7887SOL     OW35385  13.612   8.695  13.491 -0.6177 -0.2198  0.6908
 7887SOL    HW135386  13.680   8.647  13.538 -0.2885 -0.1828  0.2604
 7887SOL    HW235387  13.579   8.633  13.426 -0.4666  0.0078  0.3956
 7888SOL     OW35388   6.161   5.339   1.712  0.2021 -0.0722 -0.7750
 7888SOL    HW135389   6.143   5.251   1.744 -1.8016  0.3360 -0.6144
 7888SOL    HW235390   6.075   5.373   1.687  0.8461  2.0278 -0.3163
 7889SOL     OW35391   8.595  13.419   4.764  0.3716 -0.0291 -0.0739
 7889SOL    HW135392   8.541  13.414   4.685  0.5589  0.2812 -0.2238
 7889SOL    HW235393   8.628  13.330   4.776 -0.7962 -0.4102  0.4672
 7890SOL     OW35394  10.073   6.092  10.797 -0.1797  0.3851 -0.0200
 7890SOL    HW135395  10.063   5.999  10.816  1.6492  0.0151 -0.6567
 7890SOL    HW235396  10.123   6.094  10.715 -0.6817  1.9291 -0.3134
 7891SOL     OW35397   7.682   5.147  10.620 -0.3196 -0.1937  0.6678
 7891SOL    HW135398   7.639   5.088  10.681 -0.0870  0.1334  1.1553
 7891SOL    HW235399   7.612   5.177  10.562 -0.8503  0.7083  1.7518
 7892SOL     OW35400   3.447   3.681  13.581  0.0907  0.2178 -0.3406
 7892SOL    HW135401   3.392   3.692  13.658 -0.3121  0.9587 -0.7236
 7892SOL    HW235402   3.473   3.769  13.557  2.9923 -0.1866  0.9095
 7893SOL     OW35403   3.572   8.518  12.696 -0.0787  0.0691  0.5749
 7893SOL    HW135404   3.611   8.431  12.706  1.0512  0.4601 -0.1594
 7893SOL    HW235405   3.495   8.504  12.641  1.0765 -0.2674 -1.0414
 7894SOL     OW35406   8.324   4.808   2.487 -0.4850  0.0418 -0.1117
 7894SOL    HW135407   8.363   4.780   2.404 -1.4722 -0.3538 -0.4526
 7894SOL    HW235408   8.398   4.839   2.538  0.4643 -1.8270 -0.2772
 7895SOL     OW35409   0.402   7.317   7.960 -0.2212  0.4176 -0.1133
 7895SOL    HW135410   0.345   7.246   7.990 -0.0935 -0.1408 -1.1719
 7895SOL    HW235411   0.342   7.386   7.932 -0.4316 -0.5712 -2.2156
 7896SOL     OW35412  12.783  10.160   8.932  0.1552 -0.8351  0.2303
 7896SOL    HW135413  12.754  10.154   8.842 -0.5215 -0.7029  0.4329
 7896SOL    HW235414  12.805  10.071   8.957  0.0798 -0.9129  0.0188
 7897SOL     OW35415   9.593   1.826   3.907 -0.3850  0.1278  0.0732
 7897SOL    HW135416   9.628   1.793   3.989 -0.1763 -0.6760 -0.3327
 7897SOL    HW235417   9.561   1.749   3.861 -0.4799  0.5627 -0.6167
 7898SOL     OW35418   3.749  13.003  13.591  0.1221  0.1596 -0.0825
 7898SOL    HW135419   3.818  13.067  13.605 -0.1986  0.5719 -0.3884
 7898SOL    HW235420   3.713  12.988  13.678 -2.0910  2.9821 -0.3914
 7899SOL     OW35421   9.209   9.172   7.256 -0.0827  0.2014  0.1306
 7899SOL    HW135422   9.304   9.167   7.260 -0.0436  0.5515 -0.2877
 7899SOL    HW235423   9.180   9.081   7.248  0.2299  0.1116  0.0152
 7900SOL     OW35424   8.614   6.898   6.343 -0.1883  0.7408 -0.1955
 7900SOL    HW135425   8.575   6.823   6.298  0.7886  0.6955 -1.0174
 7900SOL    HW235426   8.675   6.859   6.406 -0.7325  0.8309  0.4004
 7901SOL     OW35427   4.263  11.817  12.604 -0.4268 -0.5191  0.3942
 7901SOL    HW135428   4.201  11.856  12.543 -0.2184  0.5998  0.8883
 7901SOL    HW235429   4.268  11.878  12.677  4.5988  1.8788 -1.5164
 7902SOL     OW35430   5.905   6.577   3.196 -0.0639 -0.3884 -0.1224
 7902SOL    HW135431   5.877   6.668   3.198  0.1253 -0.3083 -0.8418
 7902SOL    HW235432   5.934   6.558   3.285 -0.2826  0.1958  0.0724
 7903SOL     OW35433   0.889  11.153   1.172  0.4913 -0.1515 -0.2268
 7903SOL    HW135434   0.930  11.212   1.109 -2.2291  1.0619 -1.0155
 7903SOL    HW235435   0.897  11.199   1.256 -0.8345  1.0318 -0.6942
 7904SOL     OW35436  11.497   4.364   4.339 -0.2387 -0.0498  0.0073
 7904SOL    HW135437  11.405   4.385   4.355 -0.3604  0.0485 -0.7821
 7904SOL    HW235438  11.512   4.284   4.389 -0.7056  0.0350  0.2897
 7905SOL     OW35439   5.466  10.340   6.425  0.4201  0.2161  0.0214
 7905SOL    HW135440   5.489  10.264   6.371  0.4986 -0.5653  1.1359
 7905SOL    HW235441   5.538  10.347   6.488  0.6207  1.4728 -0.3293
 7906SOL     OW35442   3.871  12.546   0.421 -0.3655 -0.0532  0.7904
 7906SOL    HW135443   3.909  12.633   0.429 -1.3160  0.4599 -0.0722
 7906SOL    HW235444   3.943  12.486   0.442  0.8597  0.8901 -0.5401
 7907SOL     OW35445   7.568  10.613   8.510  0.7179 -0.1658  0.0031
 7907SOL    HW135446   7.515  10.613   8.590  0.5149  0.7255 -0.1305
 7907SOL    HW235447   7.567  10.704   8.480  2.7855 -0.0116  0.3010
 7908SOL     OW35448  13.566   0.619   6.385  0.0241  0.1511 -0.1006
 7908SOL    HW135449  13.631   0.680   6.421  0.2730 -0.6304  0.8194
 7908SOL    HW235450  13.618   0.550   6.344 -0.2041 -0.5122  0.6941
 7909SOL     OW35451   2.001   0.433   4.318  0.0204 -0.0867  0.7196
 7909SOL    HW135452   2.019   0.516   4.273 -1.5741 -0.2100 -0.2194
 7909SOL    HW235453   2.026   0.366   4.255 -3.7835 -0.2743 -0.8800
 7910SOL     OW35454  11.268  10.011   1.637  0.5368 -0.3127 -0.7664
 7910SOL    HW135455  11.210  10.019   1.562 -1.0342 -1.1923  0.3099
 7910SOL    HW235456  11.356  10.007   1.599 -0.0171  1.5538 -2.4015
 7911SOL     OW35457  11.274   1.831   0.947  0.1017 -0.2677  0.4780
 7911SOL    HW135458  11.237   1.916   0.970 -0.7676 -0.7070  0.7445
 7911SOL    HW235459  11.260   1.824   0.852  0.4468  0.0119  0.4056
 7912SOL     OW35460   0.626   2.921  10.606  0.3242  0.1714  0.4100
 7912SOL    HW135461   0.696   2.902  10.543  2.4156  1.4914  2.1821
 7912SOL    HW235462   0.628   3.016  10.616 -1.0067  0.1352  1.3240
 7913SOL     OW35463   9.685   2.139   4.403  0.1601  0.1491 -0.1733
 7913SOL    HW135464   9.663   2.126   4.496 -1.4969 -0.1284 -0.5666
 7913SOL    HW235465   9.627   2.210   4.375  0.2643 -0.1301 -1.1283
 7914SOL     OW35466   9.309  13.058   8.682 -0.2431  0.1803 -0.0671
 7914SOL    HW135467   9.272  13.063   8.594 -2.3119 -0.0929  0.7298
 7914SOL    HW235468   9.234  13.040   8.739  0.6378  2.5152  2.0428
 7915SOL     OW35469   8.887  12.567   6.187 -0.2811 -0.9153  0.6126
 7915SOL    HW135470   8.935  12.503   6.134 -1.6082 -1.4057 -0.0354
 7915SOL    HW235471   8.943  12.645   6.188  0.8149 -1.6846  0.4297
 7916SOL     OW35472   6.837  13.654   9.132  0.0069 -0.5391 -0.4549
 7916SOL    HW135473   6.751  13.631   9.167  0.1488 -0.6511 -0.1820
 7916SOL    HW235474   6.888  13.681   9.208  0.8643 -2.4287 -0.2873
 7917SOL     OW35475   3.097  12.095   3.477 -0.0931 -0.2641  0.3579
 7917SOL    HW135476   3.113  12.152   3.402  1.6239  0.0945  0.9442
 7917SOL    HW235477   3.123  12.008   3.446  1.8830  0.0976  0.8928
 7918SOL     OW35478   6.825  10.094   1.783 -0.0713  0.0469 -0.0109
 7918SOL    HW135479   6.784  10.179   1.802 -1.5740 -0.3940 -1.0142
 7918SOL    HW235480   6.910  10.116   1.745  0.2056  1.0480  1.1277
 7919SOL     OW35481   5.116  11.555   8.139 -0.4311 -0.4844  0.5899
 7919SOL    HW135482   5.198  11.511   8.162  0.5710  1.4075  0.7964
 7919SOL    HW235483   5.094  11.606   8.216 -0.5160  0.8599 -0.2991
 7920SOL     OW35484   5.164   8.155   9.223 -0.2194 -0.6975 -0.0129
 7920SOL    HW135485   5.114   8.180   9.145  0.5541  0.8980 -0.0439
 7920SOL    HW235486   5.112   8.188   9.296 -0.3381 -1.1003  0.0867
 7921SOL     OW35487   5.935   3.174  12.814  0.1222  0.1156 -0.4016
 7921SOL    HW135488   6.028   3.198  12.808 -0.0503  1.2235  0.7988
 7921SOL    HW235489   5.931   3.085  12.781  1.5893  0.1193 -0.6616
 7922SOL     OW35490   3.658   3.660   7.714 -0.4883 -0.1428 -0.2051
 7922SOL    HW135491   3.642   3.568   7.691 -0.3126 -0.4429  0.8346
 7922SOL    HW235492   3.655   3.662   7.809  3.7370  0.0995  0.1020
 7923SOL     OW35493   8.630  11.795   8.602  0.3830  0.0667 -0.4078
 7923SOL    HW135494   8.662  11.858   8.666  0.3057 -1.5485  1.3257
 7923SOL    HW235495   8.535  11.803   8.604  0.2667 -1.1089  1.0121
 7924SOL     OW35496   3.934   5.863   8.030  0.0970  0.3189  0.4174
 7924SOL    HW135497   3.984   5.856   7.949  0.8937  1.0348  0.8271
 7924SOL    HW235498   3.948   5.953   8.060 -1.9139  0.7286  0.2701
 7925SOL     OW35499   3.227   6.141   9.268  0.0643  0.4269  0.0492
 7925SOL    HW135500   3.263   6.114   9.183  0.2661  0.9209 -0.0249
 7925SOL    HW235501   3.133   6.125   9.260  0.2843 -1.2455  0.3808
 7926SOL     OW35502  10.692   2.166   0.539  0.3086 -0.0861  0.6079
 7926SOL    HW135503  10.596   2.175   0.543 -0.0340 -2.6867  0.2774
 7926SOL    HW235504  10.715   2.198   0.452 -0.5001 -0.7779  0.1102
 7927SOL     OW35505   9.896   5.595   7.650 -0.2504  0.2556 -0.3052
 7927SOL    HW135506   9.916   5.644   7.730  0.2418 -0.6900  0.1546
 7927SOL    HW235507   9.838   5.654   7.601 -0.1661  1.0491  0.5145
 7928SOL     OW35508  10.783   1.910   8.647 -0.0038  0.1400 -0.7318
 7928SOL    HW135509  10.859   1.855   8.628 -0.7897 -1.4472  0.4546
 7928SOL    HW235510  10.804   1.952   8.730 -0.7611 -1.0535  0.0983
 7929SOL     OW35511   1.242   6.971  11.838  0.1774 -0.5646  0.1762
 7929SOL    HW135512   1.229   7.062  11.812  1.5338 -0.3517  0.2144
 7929SOL    HW235513   1.335   6.954  11.825  0.2063 -1.5517  1.4323
 7930SOL     OW35514   4.568   0.525   4.333 -0.0075  0.1068 -0.7603
 7930SOL    HW135515   4.535   0.572   4.257 -0.4198  0.8193 -0.1604
 7930SOL    HW235516   4.508   0.452   4.345 -0.0592  0.1114 -0.9946
 7931SOL     OW35517   2.455   8.223   0.173  0.0401  0.4588 -0.1460
 7931SOL    HW135518   2.416   8.190   0.254  0.1162 -0.2314 -0.3871
 7931SOL    HW235519   2.524   8.284   0.202 -1.6750  2.3081  0.2932
 7932SOL     OW35520   8.778  12.922   0.815  1.0470 -0.3449  0.3716
 7932SOL    HW135521   8.794  12.833   0.783  1.7185 -0.1123  0.0428
 7932SOL    HW235522   8.820  12.925   0.900 -0.7229 -0.9593  1.3142
 7933SOL     OW35523   0.920   7.311  12.384 -0.0083 -0.1513 -0.2845
 7933SOL    HW135524   0.991   7.372  12.363 -0.8435  0.5550 -1.1483
 7933SOL    HW235525   0.961   7.244  12.440  1.2086  0.5133 -0.3550
 7934SOL     OW35526   4.701   0.350   7.960  0.4295  0.5072 -0.0456
 7934SOL    HW135527   4.757   0.322   8.033  1.6290 -0.6496 -1.3469
 7934SOL    HW235528   4.623   0.386   8.002  1.6700  1.1562  1.8229
 7935SOL     OW35529   7.229   1.553   8.235 -0.3040 -0.0368  0.4924
 7935SOL    HW135530   7.228   1.644   8.265 -2.9916 -0.2907  1.4352
 7935SOL    HW235531   7.253   1.503   8.313  0.1829 -0.2014  0.2365
 7936SOL     OW35532   4.787   2.333  11.494  0.3664 -0.0266  0.3174
 7936SOL    HW135533   4.827   2.250  11.469 -1.7150 -0.1484 -3.2539
 7936SOL    HW235534   4.858   2.397  11.489  1.1364 -0.9472 -1.0794
 7937SOL     OW35535  10.127   4.893  12.489  0.3878  0.3072 -0.1059
 7937SOL    HW135536  10.182   4.921  12.563  0.6080  0.4980 -0.3428
 7937SOL    HW235537  10.124   4.797  12.498  0.3807  0.3310  0.1730
 7938SOL     OW35538   2.956   7.858   8.680 -0.1595 -0.3593 -0.5192
 7938SOL    HW135539   2.868   7.823   8.664  1.4750 -4.6943 -1.6445
 7938SOL    HW235540   3.002   7.845   8.596  2.2819 -1.1309  0.8206
 7939SOL     OW35541   1.055   4.679  13.243  1.1105  0.2040 -0.0570
 7939SOL    HW135542   1.144   4.712  13.233  0.8649  0.6757 -0.8154
 7939SOL    HW235543   1.013   4.742  13.301  1.1964  0.1214  0.0954
 7940SOL     OW35544   6.603  13.478   9.926  0.0638  0.0066  0.0919
 7940SOL    HW135545   6.671  13.533   9.964 -0.3414 -1.4167  3.1685
 7940SOL    HW235546   6.524  13.531   9.930  0.3403  0.4646 -0.3725
 7941SOL     OW35547   9.729  11.074   7.676  0.3993  0.2067 -0.0674
 7941SOL    HW135548   9.645  11.062   7.632  0.1666  0.7041  0.2386
 7941SOL    HW235549   9.708  11.121   7.757  0.9432  0.1389  0.1194
 7942SOL     OW35550   3.696  10.369  12.591 -0.0945 -0.1486 -0.2485
 7942SOL    HW135551   3.757  10.326  12.651  0.2647  0.9681  0.2267
 7942SOL    HW235552   3.614  10.373  12.640 -0.1838 -0.4564 -0.3696
 7943SOL     OW35553   0.834   5.599  11.047  0.3983  0.5061 -0.5112
 7943SOL    HW135554   0.841   5.692  11.071 -0.3777  0.1296  1.3866
 7943SOL    HW235555   0.753   5.594  10.997  0.2535  0.8160 -0.3193
 7944SOL     OW35556   1.282   6.954   6.709  0.5929  0.2340 -0.0966
 7944SOL    HW135557   1.354   7.006   6.745  1.1628 -1.1216  0.8258
 7944SOL    HW235558   1.315   6.864   6.711  0.0626 -0.0708 -2.6940
 7945SOL     OW35559   2.065   1.563   6.005  0.2658 -0.2230  0.3983
 7945SOL    HW135560   2.119   1.571   5.926  0.2658 -1.4938  0.2551
 7945SOL    HW235561   2.118   1.509   6.064  0.0328  0.2721  1.0706
 7946SOL     OW35562   7.054  13.313   2.803  0.1717 -0.5304 -0.1269
 7946SOL    HW135563   7.007  13.258   2.741 -0.6639 -1.6990  1.4908
 7946SOL    HW235564   7.115  13.254   2.847 -1.0468 -0.3638  1.9507
 7947SOL     OW35565  11.783   1.878   9.020 -0.3781  0.1108 -0.1707
 7947SOL    HW135566  11.690   1.900   9.008 -0.0335  1.3073 -0.7854
 7947SOL    HW235567  11.811   1.845   8.935 -0.4094 -0.9471  0.2202
 7948SOL     OW35568   3.551   6.508  12.487 -0.2390 -0.0862 -0.0783
 7948SOL    HW135569   3.603   6.486  12.565  0.3896  1.8783  0.1177
 7948SOL    HW235570   3.509   6.426  12.462  0.2401 -0.9649  1.8168
 7949SOL     OW35571  12.389   4.847  13.614 -0.3251 -0.6496 -0.5062
 7949SOL    HW135572  12.446   4.832  13.539 -1.4412 -2.2083 -1.0766
 7949SOL    HW235573  12.307   4.878  13.577 -0.4441 -0.1014  0.1852
 7950SOL     OW35574   0.486   5.169  11.859  0.4531 -0.1538 -0.2353
 7950SOL    HW135575   0.565   5.179  11.914  0.5236 -0.3545 -0.2991
 7950SOL    HW235576   0.419   5.138  11.920  0.5446 -0.4259 -0.2694
 7951SOL     OW35577  12.905  10.375   4.687 -0.0252  0.2416 -0.7526
 7951SOL    HW135578  12.837  10.438   4.665 -0.3420  0.7731  1.5137
 7951SOL    HW235579  12.862  10.313   4.745  1.4111  0.6947  0.8787
 7952SOL     OW35580   6.981   2.388  10.719 -0.3528 -0.1158  0.1095
 7952SOL    HW135581   7.017   2.344  10.796  0.1453 -1.2975 -0.7726
 7952SOL    HW235582   6.916   2.327  10.684  0.8073 -0.4796 -1.5146
 7953SOL     OW35583   9.807   9.850  13.282  0.6726  0.2031  0.2021
 7953SOL    HW135584   9.717   9.818  13.274  0.8755 -0.1176 -0.9916
 7953SOL    HW235585   9.856   9.801  13.215  1.5285  1.0827  0.1690
 7954SOL     OW35586  10.058   8.952   5.687  0.0125 -0.4959  0.3045
 7954SOL    HW135587  10.120   8.927   5.756  1.1764 -3.2675 -1.5624
 7954SOL    HW235588   9.972   8.926   5.721  0.1823  0.5694  1.6746
 7955SOL     OW35589  10.520  11.404  13.000  0.2038  0.1154 -0.2788
 7955SOL    HW135590  10.602  11.412  12.951  1.6113  0.6938  2.0218
 7955SOL    HW235591  10.474  11.485  12.982  0.8358  0.4558 -0.4019
 7956SOL     OW35592   5.121   8.214   0.414  0.0821  0.1400  0.5562
 7956SOL    HW135593   5.195   8.157   0.393 -0.0991 -0.1271  0.6300
 7956SOL    HW235594   5.161   8.296   0.444  0.3449  0.0703  0.3992
 7957SOL     OW35595   1.253   2.224   6.326  0.0961  0.5568 -0.3374
 7957SOL    HW135596   1.203   2.169   6.386 -0.1773 -0.3845 -1.3895
 7957SOL    HW235597   1.344   2.194   6.335  0.1716  0.9222  0.1365
 7958SOL     OW35598  10.708   7.039   6.859  0.0376 -0.7882 -0.8089
 7958SOL    HW135599  10.735   6.949   6.877 -0.9717 -0.7757  1.0216
 7958SOL    HW235600  10.612   7.037   6.866 -0.0221  0.3651 -1.0663
 7959SOL     OW35601   4.695   4.366   0.573 -0.1989 -0.6273  0.5605
 7959SOL    HW135602   4.762   4.376   0.641  0.6757  0.7345 -0.4484
 7959SOL    HW235603   4.729   4.415   0.498 -2.1857 -0.1783 -0.1050
 7960SOL     OW35604   1.692   1.913   4.650  0.2280  0.7675  0.4121
 7960SOL    HW135605   1.749   1.960   4.589 -1.1221  1.4300 -0.4010
 7960SOL    HW235606   1.752   1.865   4.707  1.5812  1.3898 -0.4273
 7961SOL     OW35607  11.736   8.459  13.636 -0.3849  0.1171 -0.1037
 7961SOL    HW135608  11.665   8.523  13.641  0.0521  0.7091 -1.1361
 7961SOL    HW235609  11.778   8.477  13.552 -0.6932 -1.9906 -0.7627
 7962SOL     OW35610   6.340   3.824  12.282 -0.1581 -0.0831  0.1935
 7962SOL    HW135611   6.401   3.897  12.275  0.0519 -0.3851 -2.3535
 7962SOL    HW235612   6.345   3.796  12.373  0.8255  2.1388  0.8891
 7963SOL     OW35613  10.264   9.816   0.952  0.3500  0.8418  0.2266
 7963SOL    HW135614  10.350   9.857   0.945  0.7390 -0.1358 -1.4840
 7963SOL    HW235615  10.220   9.862   1.023  1.6106  2.5912 -0.0730
 7964SOL     OW35616  11.183   6.070  11.666  0.0538 -0.2883 -0.2298
 7964SOL    HW135617  11.220   6.159  11.670  1.7851 -0.8609 -1.9250
 7964SOL    HW235618  11.204   6.040  11.578 -1.2833 -2.0814  0.0190
 7965SOL     OW35619   2.248   6.017  10.311 -0.1455 -0.5156 -0.3159
 7965SOL    HW135620   2.170   6.014  10.367  0.3179  1.1516  0.4813
 7965SOL    HW235621   2.260   5.927  10.282 -2.3426 -0.8366 -0.4262
 7966SOL     OW35622   2.878   9.697   6.938 -0.0591  0.4440 -0.0121
 7966SOL    HW135623   2.881   9.782   6.895 -0.7906  2.4002  3.3770
 7966SOL    HW235624   2.951   9.697   6.999 -0.8879 -0.7270  1.0637
 7967SOL     OW35625  13.713   8.376   4.841  0.1088  0.3140  0.1926
 7967SOL    HW135626  13.696   8.359   4.933 -1.5371 -2.0423 -0.4523
 7967SOL    HW235627  13.654   8.448   4.818 -0.3536  0.1106  0.7197
 7968SOL     OW35628   2.370   8.271   7.523  0.1390  0.1206  0.1074
 7968SOL    HW135629   2.436   8.325   7.480  1.0935 -1.1391 -0.0617
 7968SOL    HW235630   2.419   8.221   7.588 -0.9249  0.3464  1.1104
 7969SOL     OW35631   2.738   3.201   2.322  0.7169 -0.6696  0.3717
 7969SOL    HW135632   2.677   3.141   2.365  1.5934 -1.4475  0.5676
 7969SOL    HW235633   2.760   3.265   2.390  0.9121 -0.9934  0.6159
 7970SOL     OW35634  10.838   8.551   6.316 -0.3597 -0.0834 -0.0613
 7970SOL    HW135635  10.796   8.529   6.233 -0.4036  1.2827 -0.4237
 7970SOL    HW235636  10.913   8.491   6.321 -2.2989 -2.6159  0.6447
 7971SOL     OW35637   3.863  11.646  12.231 -0.8575 -0.4283  0.0989
 7971SOL    HW135638   3.892  11.722  12.181 -0.7685  0.4681  1.4704
 7971SOL    HW235639   3.933  11.581  12.220 -0.5509 -0.0105 -0.4303
 7972SOL     OW35640   0.652   5.246   3.815 -0.3256 -0.6776  0.4903
 7972SOL    HW135641   0.702   5.274   3.739 -0.1183 -0.2174  0.7893
 7972SOL    HW235642   0.703   5.278   3.890 -0.0723 -1.8441  0.8507
 7973SOL     OW35643   0.883   7.445   0.910  0.0683 -0.6380 -0.3937
 7973SOL    HW135644   0.881   7.530   0.955 -0.1212 -0.7978 -0.1024
 7973SOL    HW235645   0.829   7.388   0.964 -3.2454  0.0836 -2.6357
 7974SOL     OW35646   6.710  13.632   5.837 -0.1727  0.0191 -0.1904
 7974SOL    HW135647   6.689  13.540   5.823 -0.2856 -0.0864  0.6108
 7974SOL    HW235648   6.785  13.630   5.897 -1.0185  0.4514  0.9152
 7975SOL     OW35649  13.039   4.317   2.050 -0.0896 -0.9410 -0.0874
 7975SOL    HW135650  13.090   4.237   2.046 -1.6112 -2.0946  1.7600
 7975SOL    HW235651  13.063   4.357   2.133 -0.8579 -0.5875 -0.0198
 7976SOL     OW35652   9.322  11.680  11.425 -0.1140 -0.1898 -0.5641
 7976SOL    HW135653   9.365  11.604  11.465 -1.9316 -0.4328  1.1103
 7976SOL    HW235654   9.367  11.756  11.462 -1.0581 -0.4339  1.2046
 7977SOL     OW35655   1.041   2.724  11.676 -0.2475 -0.2789 -0.1250
 7977SOL    HW135656   1.120   2.672  11.689 -1.1605 -1.8460 -0.5972
 7977SOL    HW235657   0.997   2.721  11.761 -0.5959 -0.8029 -0.3210
 7978SOL     OW35658   6.478   4.756   6.745 -0.5102 -0.3342 -0.3983
 7978SOL    HW135659   6.406   4.769   6.806 -1.0499 -0.7509 -0.9274
 7978SOL    HW235660   6.544   4.709   6.796 -0.1230  1.0385  0.4152
 7979SOL     OW35661   5.617   3.626   2.824  0.2789 -0.0523  0.5367
 7979SOL    HW135662   5.553   3.601   2.758  0.3909  0.7846  0.0931
 7979SOL    HW235663   5.699   3.587   2.794  0.1799 -0.2811  0.5656
 7980SOL     OW35664   3.369   6.138   4.197  0.0628  0.4236  0.2526
 7980SOL    HW135665   3.306   6.097   4.256 -2.2147  2.8506 -0.2880
 7980SOL    HW235666   3.339   6.114   4.109  0.8146  0.3868 -0.0027
 7981SOL     OW35667   6.554   3.594  12.387  0.5448 -0.9797 -0.5610
 7981SOL    HW135668   6.568   3.623  12.297  1.9219 -2.3238 -0.8186
 7981SOL    HW235669   6.602   3.658  12.440  0.2130 -0.5145 -0.8172
 7982SOL     OW35670  13.523   0.055  12.848  0.2871 -0.3377 -0.1185
 7982SOL    HW135671  13.488   0.142  12.826  0.5042 -0.5944 -1.5615
 7982SOL    HW235672  13.468  -0.006  12.800 -0.0801 -1.0500  1.1643
 7983SOL     OW35673   7.239   9.982   0.568  0.2990  0.0086 -0.4340
 7983SOL    HW135674   7.181  10.055   0.546  0.3136  0.6668  1.4650
 7983SOL    HW235675   7.327  10.013   0.545  0.3848  0.9197  0.9551
 7984SOL     OW35676  12.496   0.621  10.087  0.6396 -0.5933 -0.2176
 7984SOL    HW135677  12.401   0.629  10.075  0.5153 -0.5548  0.7136
 7984SOL    HW235678  12.533   0.694  10.036  0.3243 -1.8433 -2.3320
 7985SOL     OW35679   7.439   4.727  10.075 -0.1661 -0.0370 -0.3550
 7985SOL    HW135680   7.345   4.744  10.073 -0.5436 -1.3775  2.1530
 7985SOL    HW235681   7.447   4.636  10.103  1.8824  0.1702 -0.1015
 7986SOL     OW35682  10.858  13.564   1.149 -0.4234 -0.2142 -0.5394
 7986SOL    HW135683  10.844  13.506   1.074  0.1212 -0.5779 -0.3676
 7986SOL    HW235684  10.770  13.585   1.180 -0.6760 -2.9422  0.9152
 7987SOL     OW35685  11.671   5.431  12.851 -0.4081 -0.4897 -0.1896
 7987SOL    HW135686  11.674   5.516  12.807 -0.7331  0.0286  0.7690
 7987SOL    HW235687  11.705   5.369  12.786  0.0474  0.4003 -0.8160
 7988SOL     OW35688  12.566   1.900   9.380 -0.3600  0.2295 -0.6440
 7988SOL    HW135689  12.535   1.922   9.292 -0.4540 -1.3515 -1.0284
 7988SOL    HW235690  12.657   1.873   9.367 -0.5042 -0.4257 -0.3306
 7989SOL     OW35691  12.577   5.841  12.076 -0.3667 -0.0211  0.3367
 7989SOL    HW135692  12.656   5.875  12.118 -0.6890  0.7187  0.3609
 7989SOL    HW235693  12.518   5.822  12.149  0.4631 -2.4421  0.4716
 7990SOL     OW35694   3.392   4.708  10.174 -0.5445  0.3277 -0.1012
 7990SOL    HW135695   3.433   4.782  10.219 -0.5570 -0.1040  0.6308
 7990SOL    HW235696   3.455   4.683  10.107  0.4166 -0.3049  0.9887
 7991SOL     OW35697  13.299   8.754   3.362 -0.0206  0.4236 -0.3368
 7991SOL    HW135698  13.264   8.838   3.332 -2.6262 -0.4303  0.0465
 7991SOL    HW235699  13.272   8.691   3.296  0.8553 -0.3157 -0.0156
 7992SOL     OW35700  10.143   1.715   6.618  0.5168 -0.2044  0.6881
 7992SOL    HW135701  10.106   1.728   6.704  0.5679  0.0905  0.6666
 7992SOL    HW235702  10.235   1.739   6.627  0.7957 -1.2701  0.8304
 7993SOL     OW35703   1.406   8.523   0.403 -0.4488  0.0742 -0.2240
 7993SOL    HW135704   1.314   8.497   0.394 -0.3522 -0.7513  0.9596
 7993SOL    HW235705   1.436   8.479   0.483  0.7728  0.9241 -0.1831
 7994SOL     OW35706   8.771  10.926   4.294  0.1982 -0.1235  0.8773
 7994SOL    HW135707   8.741  11.014   4.270 -1.4160 -0.8857 -0.0711
 7994SOL    HW235708   8.757  10.874   4.216  1.3925 -1.1937  1.3447
 7995SOL     OW35709   9.828   1.023  13.157 -0.1206  0.0704  0.0621
 7995SOL    HW135710   9.803   1.070  13.077 -0.9708  2.4929  1.6333
 7995SOL    HW235711   9.907   1.067  13.187  0.7855 -1.4921  0.0694
 7996SOL     OW35712   0.923   1.316   0.905  0.4789  0.1458  0.4513
 7996SOL    HW135713   0.953   1.240   0.854  2.6732  0.9083  0.4936
 7996SOL    HW235714   0.883   1.374   0.840 -0.9707 -0.8917  0.3790
 7997SOL     OW35715   7.488   3.697   4.736 -0.4810  0.1419  0.7368
 7997SOL    HW135716   7.397   3.673   4.718 -0.4951  0.3825  0.4702
 7997SOL    HW235717   7.489   3.792   4.729 -0.9308  0.5013  4.0749
 7998SOL     OW35718   5.016  12.080   6.382 -0.0509  0.2544 -0.4314
 7998SOL    HW135719   5.106  12.111   6.388 -0.3990  1.3312 -0.6113
 7998SOL    HW235720   4.963  12.148   6.424 -0.8362 -0.1090 -0.7974
 7999SOL     OW35721   2.108   0.175   6.593  0.0678 -0.0807 -0.5423
 7999SOL    HW135722   2.110   0.160   6.499 -1.6407  0.8313 -0.7633
 7999SOL    HW235723   2.126   0.089   6.631  0.1099 -0.6092 -1.7017
 8000SOL     OW35724   5.284   1.576   4.482 -0.2033  0.2527  0.0566
 8000SOL    HW135725   5.240   1.598   4.564  1.9602  0.1626  1.2951
 8000SOL    HW235726   5.324   1.491   4.498 -0.8712 -0.4271 -1.6002
 8001SOL     OW35727  10.206  12.944   6.279  0.1637 -0.5069  0.3723
 8001SOL    HW135728  10.159  13.019   6.241 -0.7594 -1.6905 -0.9554
 8001SOL    HW235729  10.179  12.942   6.371 -1.3241 -0.3132 -0.0341
 8002SOL     OW35730  10.459   7.951   9.560  0.1031  0.0038 -0.2401
 8002SOL    HW135731  10.506   8.005   9.623  2.3399 -0.6563 -1.2553
 8002SOL    HW235732  10.379   8.000   9.540  1.3220  2.1694  0.0057
 8003SOL     OW35733  10.326  10.047   6.348 -0.3130 -0.3595  0.0267
 8003SOL    HW135734  10.304  10.054   6.441 -1.7404  2.3377 -0.4175
 8003SOL    HW235735  10.253   9.999   6.310  0.7383 -2.3463  0.3553
 8004SOL     OW35736   5.714   0.486   1.465  0.0699 -0.4533 -0.0537
 8004SOL    HW135737   5.770   0.505   1.540 -0.0956  0.6336 -0.1975
 8004SOL    HW235738   5.693   0.571   1.427 -0.8902 -0.9008 -0.5815
 8005SOL     OW35739  12.601   7.482  13.489  0.0358  0.2730  0.2609
 8005SOL    HW135740  12.678   7.430  13.469  0.0475  0.8887 -1.4243
 8005SOL    HW235741  12.534   7.417  13.512 -0.1478 -0.6168 -2.4436
 8006SOL     OW35742  13.623   9.227  11.848  0.1265 -0.5549 -0.7017
 8006SOL    HW135743  13.571   9.188  11.918  2.3959 -0.9585  0.8777
 8006SOL    HW235744  13.638   9.155  11.786  0.0688 -0.8294 -0.3991
 8007SOL     OW35745  10.866  13.378   0.939  0.8672  0.1607 -0.1106
 8007SOL    HW135746  10.893  13.308   0.997  0.8515  0.5179  0.3324
 8007SOL    HW235747  10.805  13.337   0.877  1.2254 -0.3107 -0.1504
 8008SOL     OW35748   7.290  10.648  10.629 -0.8119  0.2259  0.1786
 8008SOL    HW135749   7.379  10.657  10.664 -0.6025 -0.5114 -0.1454
 8008SOL    HW235750   7.294  10.571  10.572 -1.4131  0.7521 -0.6078
 8009SOL     OW35751  13.569  11.974   3.054 -1.0170 -0.0350  0.2811
 8009SOL    HW135752  13.594  11.890   3.015 -0.9004 -0.9170  2.1232
 8009SOL    HW235753  13.610  12.040   2.998 -0.5088 -1.2324 -0.7975
 8010SOL     OW35754  10.730  12.339   2.407 -0.3031  0.0118  0.3860
 8010SOL    HW135755  10.818  12.344   2.444  0.5810 -1.1867 -1.3597
 8010SOL    HW235756  10.706  12.429   2.387  0.2566  0.4088  1.4453
 8011SOL     OW35757   1.162   9.052   9.622  0.4503  0.0785 -0.3043
 8011SOL    HW135758   1.204   9.115   9.564  0.0616  0.0410 -0.6265
 8011SOL    HW235759   1.092   9.014   9.570 -1.8472  2.1481  1.0583
 8012SOL     OW35760  10.770   5.714   8.632 -0.4030 -0.1968 -0.1489
 8012SOL    HW135761  10.856   5.692   8.666 -0.6696 -0.9421  0.0684
 8012SOL    HW235762  10.740   5.787   8.687  0.2799  0.3882 -0.5401
 8013SOL     OW35763  11.396  10.889   6.520 -0.9784  0.6270  0.3245
 8013SOL    HW135764  11.442  10.859   6.599 -0.7994  0.8449  0.3019
 8013SOL    HW235765  11.465  10.899   6.455 -0.9650  1.5781  0.4751
 8014SOL     OW35766   3.906   9.306   0.331 -0.3112 -0.2823 -0.3719
 8014SOL    HW135767   3.813   9.321   0.320 -0.4140 -0.9307 -0.4551
 8014SOL    HW235768   3.924   9.227   0.279 -0.2604 -1.7602  1.7320
 8015SOL     OW35769   7.586  12.177   9.349 -0.2867  0.0065  0.4007
 8015SOL    HW135770   7.556  12.161   9.438 -0.8803  1.2637  0.4424
 8015SOL    HW235771   7.507  12.175   9.296 -0.2698  1.6111  0.2604
 8016SOL     OW35772   2.951   5.679   7.005 -0.1249 -0.0323  0.3932
 8016SOL    HW135773   2.944   5.633   7.088 -1.5175  0.9127  0.8420
 8016SOL    HW235774   3.003   5.757   7.025 -0.8923  0.4636  0.5420
 8017SOL     OW35775   3.135  10.198   9.073  0.6255 -0.1126  0.1360
 8017SOL    HW135776   3.076  10.147   9.017 -0.2832 -0.1163  1.0773
 8017SOL    HW235777   3.221  10.156   9.061  0.3206 -0.5285 -0.7281
 8018SOL     OW35778   6.521   5.332  12.134 -0.2129  0.0750 -0.1828
 8018SOL    HW135779   6.426   5.330  12.125 -0.2247 -0.2155 -0.0166
 8018SOL    HW235780   6.538   5.401  12.198 -0.2622  0.6606 -0.7938
 8019SOL     OW35781   1.997   9.272   9.345  0.1866  0.2137 -0.4305
 8019SOL    HW135782   1.953   9.189   9.362 -0.4588  0.5650 -0.3416
 8019SOL    HW235783   2.089   9.254   9.359 -0.0025 -0.3487  0.1492
 8020SOL     OW35784  11.949   9.120  12.170  0.2471 -0.1260  0.2290
 8020SOL    HW135785  11.904   9.084  12.094 -2.8439  0.6516  1.5105
 8020SOL    HW235786  12.034   9.076  12.171 -0.8819 -2.6360 -1.7706
 8021SOL     OW35787   7.383   5.901   5.871  0.1866 -0.0385 -0.0603
 8021SOL    HW135788   7.367   5.922   5.963 -0.1386  0.3382 -0.1970
 8021SOL    HW235789   7.479   5.900   5.863  0.2322  1.4341 -0.0360
 8022SOL     OW35790   2.042   9.269  12.039 -0.2364  0.6477  0.2380
 8022SOL    HW135791   2.031   9.221  12.121 -0.2764 -0.8087 -0.5841
 8022SOL    HW235792   2.136   9.263  12.021 -0.2484  0.8435  0.1114
 8023SOL     OW35793   6.192   4.114   0.182 -0.0512  0.0484 -0.0572
 8023SOL    HW135794   6.106   4.076   0.167 -1.1965  2.0635  1.0378
 8023SOL    HW235795   6.199   4.121   0.277  0.7295  1.1607 -0.1749
 8024SOL     OW35796   0.958  10.722  13.453  0.1093  0.0619  0.3344
 8024SOL    HW135797   1.012  10.742  13.530 -0.7769 -2.0741  1.6089
 8024SOL    HW235798   0.868  10.735  13.484 -0.2674 -1.0644 -0.2627
 8025SOL     OW35799   3.079  10.415   5.009 -0.0624  0.1834  0.3364
 8025SOL    HW135800   3.144  10.348   4.987 -0.5123 -0.0080 -0.4768
 8025SOL    HW235801   3.130  10.493   5.031  0.4437  0.2741 -1.0704
 8026SOL     OW35802  11.121   8.776   2.943 -0.2657  0.7855  0.5863
 8026SOL    HW135803  11.179   8.850   2.925 -0.5135  0.7122 -0.6185
 8026SOL    HW235804  11.179   8.709   2.980  0.6565  0.3866 -1.4061
 8027SOL     OW35805   4.954  13.553  12.503 -0.5408  0.1298  0.0013
 8027SOL    HW135806   4.869  13.517  12.529 -1.0778  1.3618  0.0706
 8027SOL    HW235807   4.955  13.547  12.408 -0.4333 -0.4695  0.0416
 8028SOL     OW35808  10.505   2.808  12.835  0.3431 -0.7376 -0.6969
 8028SOL    HW135809  10.472   2.720  12.818 -2.4551  0.4190 -1.8728
 8028SOL    HW235810  10.551   2.833  12.755 -0.5190 -0.4726 -1.1225
 8029SOL     OW35811   9.449   1.069  11.440  0.1095 -0.8368 -0.2659
 8029SOL    HW135812   9.491   1.133  11.381  0.5808  0.7040  1.6319
 8029SOL    HW235813   9.510   0.995  11.441  2.1346  0.7177  1.2119
 8030SOL     OW35814  11.845   0.009  12.704  0.1076  0.4609 -0.3424
 8030SOL    HW135815  11.877  -0.081  12.700 -0.9207  0.0638  0.1558
 8030SOL    HW235816  11.846   0.039  12.613  1.0518  0.1720 -0.4376
 8031SOL     OW35817   0.222   1.662   0.219 -0.2905  0.1593 -0.1114
 8031SOL    HW135818   0.228   1.756   0.202  1.4331 -0.0002 -0.5820
 8031SOL    HW235819   0.310   1.628   0.200 -0.7930 -1.5058  0.3281
 8032SOL     OW35820   9.007   9.871   5.113  0.0275 -0.0339 -0.4150
 8032SOL    HW135821   8.996   9.938   5.181 -1.1414 -3.2421  2.8784
 8032SOL    HW235822   8.920   9.864   5.073 -0.6580 -1.3673  1.1924
 8033SOL     OW35823   5.518  10.909  11.988 -0.1552  0.1932  0.6458
 8033SOL    HW135824   5.519  10.965  12.066 -0.6646 -1.0996  1.6183
 8033SOL    HW235825   5.427  10.908  11.960 -0.3176 -0.8356  1.1697
 8034SOL     OW35826   1.277   0.575   2.133 -0.2024  0.4807 -0.3826
 8034SOL    HW135827   1.218   0.538   2.199  0.9492 -1.9934 -0.6058
 8034SOL    HW235828   1.223   0.583   2.055 -0.6432 -0.2487 -0.1622
 8035SOL     OW35829   9.162   8.257   8.076  0.1734 -0.2337  0.5045
 8035SOL    HW135830   9.246   8.271   8.031 -0.1536  0.4907  0.1054
 8035SOL    HW235831   9.144   8.164   8.062 -0.1314  0.0612 -1.2813
 8036SOL     OW35832  13.235   3.701  12.899  0.4267 -0.5986 -0.2319
 8036SOL    HW135833  13.308   3.716  12.959  0.7886 -2.4735 -0.1524
 8036SOL    HW235834  13.167   3.762  12.929  1.2814 -0.1510  0.8748
 8037SOL     OW35835  12.674  10.141   4.009 -0.0088 -0.5110 -0.2781
 8037SOL    HW135836  12.627  10.068   3.968 -1.9326 -0.0414  0.9425
 8037SOL    HW235837  12.621  10.164   4.086  0.2254  2.4797 -0.8648
 8038SOL     OW35838   3.454  11.417  13.115 -0.1905  0.4228 -0.7902
 8038SOL    HW135839   3.407  11.336  13.096  0.6278 -0.2404 -0.0396
 8038SOL    HW235840   3.529  11.416  13.055  0.3460  0.1394 -0.1348
 8039SOL     OW35841   3.007  12.498   7.057  0.9058  0.0693 -0.0799
 8039SOL    HW135842   2.983  12.460   6.973  1.2930  1.0885 -0.6700
 8039SOL    HW235843   2.927  12.494   7.109  0.0859  1.2391 -1.1917
 8040SOL     OW35844  13.657  10.975   8.247 -0.4381 -0.0595 -0.1921
 8040SOL    HW135845  13.721  11.015   8.188  1.6004 -1.5088  0.9106
 8040SOL    HW235846  13.654  10.883   8.221  1.3956 -1.0238  2.5423
 8041SOL     OW35847   0.942   0.945  10.999 -0.0751  0.0433  0.0233
 8041SOL    HW135848   1.018   0.970  11.052  0.0781 -1.5142  0.5922
 8041SOL    HW235849   0.944   1.005  10.924  0.6241  1.2449  0.9683
 8042SOL     OW35850   5.432   6.555   0.245 -0.2868 -0.1676 -0.1888
 8042SOL    HW135851   5.393   6.639   0.268 -3.2309 -1.7699  1.2013
 8042SOL    HW235852   5.525   6.565   0.269 -0.4887  2.7043 -0.2844
 8043SOL     OW35853   1.911   6.891  13.446  0.5516  0.2789 -0.0879
 8043SOL    HW135854   1.978   6.960  13.446  0.1096  0.7092 -0.1760
 8043SOL    HW235855   1.905   6.865  13.538 -0.2656  1.3290  0.1757
 8044SOL     OW35856  10.795   0.658   6.244  0.2211 -0.5311  0.3017
 8044SOL    HW135857  10.764   0.667   6.153 -0.1884 -1.5753  0.3303
 8044SOL    HW235858  10.818   0.748   6.270 -0.9187 -0.0133 -0.3834
 8045SOL     OW35859  11.077  12.259  13.102 -0.5354  0.0397 -0.0323
 8045SOL    HW135860  11.097  12.198  13.173  2.2107 -0.6987 -1.2890
 8045SOL    HW235861  11.090  12.346  13.141  4.3568 -0.3082 -0.1786
 8046SOL     OW35862   9.364  13.497  10.237 -0.1589 -0.0718 -0.5102
 8046SOL    HW135863   9.308  13.573  10.221  0.3552  0.9938  2.2244
 8046SOL    HW235864   9.403  13.514  10.323  1.2011 -2.7142 -0.5218
 8047SOL     OW35865   6.459  12.157   2.001  0.7283 -0.1498 -0.4308
 8047SOL    HW135866   6.375  12.110   1.997 -0.6014  2.0621  0.1816
 8047SOL    HW235867   6.458  12.215   1.925  1.1272  0.7863  0.2538
 8048SOL     OW35868   9.039   6.257  10.576  0.3028  0.6366 -0.1611
 8048SOL    HW135869   9.003   6.208  10.650 -0.1109 -1.5801 -1.7152
 8048SOL    HW235870   8.989   6.338  10.574  0.4441  0.8561  2.0364
 8049SOL     OW35871  11.892   4.141   8.471 -0.2173  0.0667 -0.3531
 8049SOL    HW135872  11.889   4.235   8.489  0.2908  0.1122 -0.4855
 8049SOL    HW235873  11.862   4.100   8.552 -1.8784  0.3676 -0.7648
 8050SOL     OW35874   7.587   5.884  12.140  0.1685  0.0519 -0.0651
 8050SOL    HW135875   7.516   5.944  12.114  0.5873  0.2657 -0.7589
 8050SOL    HW235876   7.575   5.871  12.234  0.3015  1.5529  0.1842
 8051SOL     OW35877   6.449   7.936  10.936 -0.0118  0.1424 -0.3579
 8051SOL    HW135878   6.404   8.018  10.914  0.4145  0.4818 -0.0079
 8051SOL    HW235879   6.382   7.869  10.931 -0.1574  0.3510 -1.6679
 8052SOL     OW35880  13.383  11.838   3.210  0.2497 -0.6375 -0.5339
 8052SOL    HW135881  13.444  11.894   3.161 -0.2754 -2.2963 -3.3211
 8052SOL    HW235882  13.361  11.768   3.149 -2.4748 -1.5155  1.2768
 8053SOL     OW35883  13.075  10.138   3.876  0.0347  0.4703 -0.4133
 8053SOL    HW135884  13.135  10.157   3.804 -0.2293  0.5238 -0.6238
 8053SOL    HW235885  13.117  10.175   3.953  0.6362 -0.1785 -0.4245
 8054SOL     OW35886   8.435  12.458   9.254  0.8456 -0.3076  0.1651
 8054SOL    HW135887   8.346  12.490   9.243  0.2903 -1.3942  1.3410
 8054SOL    HW235888   8.458  12.481   9.344  2.1827  0.9151 -0.4309
 8055SOL     OW35889   3.248   6.085  11.929  0.2062  0.3716 -0.1797
 8055SOL    HW135890   3.238   6.031  11.851  0.8539  0.3978 -0.2812
 8055SOL    HW235891   3.194   6.041  11.995 -0.7254  0.6176 -0.7669
 8056SOL     OW35892   7.118   7.217  13.518  0.3785 -0.7782  0.3437
 8056SOL    HW135893   7.125   7.192  13.610  0.2317 -2.0612  0.0197
 8056SOL    HW235894   7.024   7.220  13.500  0.3595  0.6780  0.5254
 8057SOL     OW35895   0.023   9.831   2.555  0.4445  0.0619 -0.1200
 8057SOL    HW135896   0.065   9.909   2.594  0.7375 -0.8921  1.5613
 8057SOL    HW235897  -0.033   9.866   2.487  0.0227  1.8388  1.0668
 8058SOL     OW35898   2.134   5.657   1.290 -0.9547  0.1246  0.0259
 8058SOL    HW135899   2.201   5.710   1.245  1.0780 -3.1863 -1.2171
 8058SOL    HW235900   2.171   5.640   1.376 -0.8396 -0.5307 -0.1478
 8059SOL     OW35901   4.870   3.774   0.168  0.4886 -0.4023  0.4046
 8059SOL    HW135902   4.875   3.861   0.129  0.5249 -0.0512  1.1623
 8059SOL    HW235903   4.797   3.780   0.230 -0.8158 -1.5082 -0.9385
 8060SOL     OW35904  13.185  13.422  10.649 -0.7989 -1.3003 -0.3678
 8060SOL    HW135905  13.109  13.431  10.591 -1.5605 -0.2379  0.7401
 8060SOL    HW235906  13.152  13.372  10.723 -0.5754 -0.3716  0.3722
 8061SOL     OW35907   1.631   8.062   1.463 -0.0756 -0.0690  0.4004
 8061SOL    HW135908   1.645   8.102   1.377 -0.9318 -0.1808  0.2042
 8061SOL    HW235909   1.668   7.974   1.455  0.2350  0.0715  0.2847
 8062SOL     OW35910   2.726   8.035  10.001  0.0695  0.3665  0.0418
 8062SOL    HW135911   2.731   7.981   9.923 -1.8820 -0.3499  0.3568
 8062SOL    HW235912   2.636   8.025  10.032  0.3333  1.9033  1.4800
 8063SOL     OW35913  10.426   0.885   7.803  0.1258 -0.4067 -0.3110
 8063SOL    HW135914  10.420   0.936   7.884  1.0697 -1.9649  0.7814
 8063SOL    HW235915  10.514   0.902   7.771  0.3909 -1.2265 -0.0206
 8064SOL     OW35916  13.707   3.011   8.590  0.5528  0.1143  0.0456
 8064SOL    HW135917  13.768   2.956   8.641  1.0296 -1.2645 -1.8946
 8064SOL    HW235918  13.763   3.057   8.527 -0.1213  1.0822  0.1327
 8065SOL     OW35919  11.732   3.879   7.367  0.1299  0.4951 -0.1696
 8065SOL    HW135920  11.727   3.889   7.462  1.8519 -1.8929  0.2798
 8065SOL    HW235921  11.804   3.936   7.340 -0.0454  0.8087  0.0199
 8066SOL     OW35922   3.532   2.738  11.388  0.2139 -0.2332 -0.1874
 8066SOL    HW135923   3.607   2.775  11.435  0.3484  0.7219 -1.1295
 8066SOL    HW235924   3.525   2.790  11.308 -0.4398 -1.3734 -0.9047
 8067SOL     OW35925   9.900  10.371  13.721 -0.1028 -0.2717  0.8655
 8067SOL    HW135926   9.934  10.296  13.672  0.7958 -1.1276  2.6721
 8067SOL    HW235927   9.968  10.437  13.714  1.0158 -1.1484  2.5656
 8068SOL     OW35928  12.417   2.476   4.135 -0.8925 -0.6299 -0.1645
 8068SOL    HW135929  12.414   2.569   4.113  1.1732 -0.8863 -1.8790
 8068SOL    HW235930  12.414   2.431   4.051 -0.3634 -2.0479  0.5261
 8069SOL     OW35931   4.349  12.246   2.755 -0.0100  0.1583  0.4073
 8069SOL    HW135932   4.394  12.326   2.727  0.3344  0.2808  1.2822
 8069SOL    HW235933   4.263  12.276   2.785 -1.2035 -0.2058 -2.3516
 8070SOL     OW35934   5.837  10.506  11.865 -0.1268  0.2449  0.2089
 8070SOL    HW135935   5.794  10.477  11.945  0.3322  1.0052  0.7326
 8070SOL    HW235936   5.846  10.425  11.813  0.8667 -0.5192  1.5229
 8071SOL     OW35937  11.857  12.039  10.319 -0.3635 -0.2629 -0.3276
 8071SOL    HW135938  11.883  12.131  10.324  3.7247 -1.2969  0.6755
 8071SOL    HW235939  11.798  12.027  10.394 -0.7862  1.4169 -0.3428
 8072SOL     OW35940  13.035  10.397  13.550  0.4454  0.5163 -0.2761
 8072SOL    HW135941  12.980  10.443  13.613  1.5754  0.2194  0.9572
 8072SOL    HW235942  12.972  10.357  13.489 -0.7349 -0.0074  1.2097
 8073SOL     OW35943   7.392  12.654  13.080 -0.6040  0.0648  0.2545
 8073SOL    HW135944   7.320  12.677  13.139 -1.3257  0.0976 -0.6107
 8073SOL    HW235945   7.420  12.568  13.110 -1.2120 -0.0832  0.4259
 8074SOL     OW35946   1.011   8.168   4.013 -0.4005  0.5410  0.1107
 8074SOL    HW135947   0.998   8.096   4.074 -0.1253 -0.3739 -0.8892
 8074SOL    HW235948   1.101   8.159   3.983 -0.0839  1.8283  0.6181
 8075SOL     OW35949   4.739   4.289  11.562  0.0297  0.6756 -0.4020
 8075SOL    HW135950   4.717   4.206  11.604 -0.3572  2.2573  2.8907
 8075SOL    HW235951   4.819   4.271  11.513  1.1975 -1.2321  1.9863
 8076SOL     OW35952   7.290   0.405   4.781 -0.0766 -0.2328 -1.0185
 8076SOL    HW135953   7.280   0.384   4.874  2.2853 -2.9353 -1.2677
 8076SOL    HW235954   7.254   0.329   4.735  1.3869 -0.2154 -2.2376
 8077SOL     OW35955   9.407   7.427  12.946 -0.0543  0.1046  0.2816
 8077SOL    HW135956   9.355   7.489  12.997 -0.1562 -0.1419  0.4798
 8077SOL    HW235957   9.495   7.464  12.948 -0.1845  0.4285  0.0980
 8078SOL     OW35958  11.737   1.182  12.555  0.3258  0.7675  0.3357
 8078SOL    HW135959  11.702   1.093  12.554  0.6638  0.5350  2.9119
 8078SOL    HW235960  11.726   1.211  12.646 -1.1934  3.9567 -0.7230
 8079SOL     OW35961  10.800   0.188   5.732  0.0771  0.1142  0.4113
 8079SOL    HW135962  10.872   0.145   5.686 -2.3779 -1.7626 -1.9885
 8079SOL    HW235963  10.833   0.202   5.821  3.3208 -0.6872 -0.5309
 8080SOL     OW35964  10.662  13.203   7.828 -0.5934 -0.2420 -0.1702
 8080SOL    HW135965  10.731  13.139   7.811  0.4079  0.3455  1.4221
 8080SOL    HW235966  10.682  13.276   7.769  1.3190  0.7015  1.4958
 8081SOL     OW35967  11.826   3.748   9.168  0.6242  0.3341  0.5338
 8081SOL    HW135968  11.871   3.689   9.107 -1.3874 -1.0630  0.3339
 8081SOL    HW235969  11.780   3.810   9.111  1.5868  1.2928  0.7393
 8082SOL     OW35970  11.685   5.658   2.616 -0.0681  0.0902  0.1509
 8082SOL    HW135971  11.756   5.720   2.633 -2.3595  2.4258  2.1626
 8082SOL    HW235972  11.708   5.580   2.667  0.8766  0.9367  1.0573
 8083SOL     OW35973  12.637   0.628   7.776 -0.4546 -0.1909  0.4196
 8083SOL    HW135974  12.617   0.588   7.860  0.2647  0.5765  0.9715
 8083SOL    HW235975  12.733   0.628   7.771 -0.4147  1.6914  0.5791
 8084SOL     OW35976   4.627  11.186  10.238  0.7204  0.0893  0.3440
 8084SOL    HW135977   4.682  11.249  10.191  1.6174 -0.8790  0.0622
 8084SOL    HW235978   4.601  11.232  10.317  0.3380  1.2547 -0.4374
 8085SOL     OW35979   0.817   7.086   4.256 -0.3104  0.0212 -0.3874
 8085SOL    HW135980   0.837   7.176   4.278 -2.3807  0.5375 -0.4115
 8085SOL    HW235981   0.833   7.037   4.337 -1.1589  0.7657  0.2505
 8086SOL     OW35982   5.468   4.815   8.627  0.0931 -0.3529  0.2397
 8086SOL    HW135983   5.556   4.778   8.638  0.0776 -0.3115  0.5162
 8086SOL    HW235984   5.452   4.863   8.709 -0.5919 -1.2040  0.6214
 8087SOL     OW35985   1.939   0.461   2.805 -0.2487  0.2098 -0.0938
 8087SOL    HW135986   1.890   0.422   2.733  0.3436  0.3704 -0.5927
 8087SOL    HW235987   1.902   0.421   2.883  1.0220 -2.1925 -0.6343
 8088SOL     OW35988  10.222   4.585   1.626 -0.0742 -0.0382  0.3281
 8088SOL    HW135989  10.150   4.628   1.673  0.3208  0.9865  0.0350
 8088SOL    HW235990  10.269   4.657   1.584 -0.6594 -0.9483 -2.0141
 8089SOL     OW35991   7.118   8.476  12.748  0.1752  0.0717 -0.0021
 8089SOL    HW135992   7.064   8.462  12.826 -0.3083 -0.4079 -0.4180
 8089SOL    HW235993   7.067   8.439  12.676  0.4462  0.8455 -0.6098
 8090SOL     OW35994   6.707   5.415  10.117 -0.7940 -0.5317 -0.2803
 8090SOL    HW135995   6.682   5.504  10.091  0.4648  0.2864  1.1236
 8090SOL    HW235996   6.653   5.396  10.193 -1.2123 -1.0788 -0.7020
 8091SOL     OW35997   9.471   1.124  12.533  0.5874 -0.0476  0.2100
 8091SOL    HW135998   9.560   1.157  12.552  2.4854 -3.9687 -0.8510
 8091SOL    HW235999   9.427   1.126  12.618  1.3731  2.5323  0.6737
 8092SOL     OW36000   5.239   8.406   5.492 -0.2328  0.0639  0.5464
 8092SOL    HW136001   5.298   8.331   5.490  0.0199  0.1991  1.9201
 8092SOL    HW236002   5.219   8.418   5.585 -1.3920  0.8269  0.2145
 8093SOL     OW36003   5.265   2.574  11.430  0.2850  0.1917 -0.0421
 8093SOL    HW136004   5.226   2.631  11.364 -3.0632  0.5935  2.0209
 8093SOL    HW236005   5.289   2.494  11.382  0.0143  1.2686 -2.0857
 8094SOL     OW36006   9.856  10.581  12.842  0.5724  0.2412 -0.2883
 8094SOL    HW136007   9.803  10.587  12.921  0.4783 -2.2766 -0.0765
 8094SOL    HW236008   9.821  10.648  12.784  0.4580  1.9526  1.6454
 8095SOL     OW36009   5.457  12.190   3.321  0.4996  0.5267 -0.0943
 8095SOL    HW136010   5.483  12.265   3.268 -1.7299 -0.8267 -3.3912
 8095SOL    HW236011   5.370  12.211   3.353 -0.1047 -0.5494 -0.9582
 8096SOL     OW36012   0.014   3.036   5.496 -0.0196 -0.1833 -0.4109
 8096SOL    HW136013  -0.023   2.948   5.491  0.4307 -0.3199 -1.8698
 8096SOL    HW236014  -0.057   3.090   5.531 -1.6479 -0.4575 -2.9739
 8097SOL     OW36015   6.233  12.356   7.092  0.3150  0.4940 -0.5070
 8097SOL    HW136016   6.179  12.311   7.027  1.0188  0.6039 -1.1836
 8097SOL    HW236017   6.257  12.288   7.154 -0.1342  0.3259 -0.5132
 8098SOL     OW36018   1.264   0.692   1.511  0.7638  0.2998  0.2486
 8098SOL    HW136019   1.214   0.616   1.481 -2.4956  2.6439 -0.8523
 8098SOL    HW236020   1.260   0.687   1.607  0.8918 -1.0613  0.2012
 8099SOL     OW36021  12.556  12.851   8.367 -0.0252 -0.1829 -0.5808
 8099SOL    HW136022  12.505  12.928   8.390 -0.7918 -0.6476 -0.6990
 8099SOL    HW236023  12.647  12.876   8.386 -0.1544  1.0529 -1.4184
 8100SOL     OW36024   1.020   6.837  11.906  0.0280 -0.1837 -0.8308
 8100SOL    HW136025   1.087   6.892  11.866  0.9589 -1.4911 -1.1314
 8100SOL    HW236026   1.068   6.773  11.958 -1.0415 -0.4746 -0.1579
 8101SOL     OW36027  13.574   0.434   7.976  0.6789 -0.1268  0.1652
 8101SOL    HW136028  13.636   0.490   8.023  1.9002 -0.8900 -0.4781
 8101SOL    HW236029  13.590   0.346   8.011  1.5088 -0.6876 -1.4975
 8102SOL     OW36030   3.675   2.649   7.614 -0.5605 -0.2917  0.2545
 8102SOL    HW136031   3.697   2.642   7.707  0.6737  0.2138  0.0217
 8102SOL    HW236032   3.631   2.567   7.594  1.1589 -1.4090  0.7968
 8103SOL     OW36033  10.400   8.805   9.037  0.6916  0.4247 -0.0551
 8103SOL    HW136034  10.441   8.745   8.974 -0.0927  0.8489 -0.9991
 8103SOL    HW236035  10.470   8.830   9.096  0.9842 -1.6729  0.5635
 8104SOL     OW36036   2.685  13.603   3.522 -0.6250  0.1529  0.4893
 8104SOL    HW136037   2.749  13.532   3.512 -0.5391  0.3091 -0.1052
 8104SOL    HW236038   2.651  13.592   3.611  0.2870  0.1148  0.8469
 8105SOL     OW36039   7.547   5.544  10.167 -0.0184 -0.4355  0.4586
 8105SOL    HW136040   7.501   5.623  10.192 -1.1473 -1.0986  0.5539
 8105SOL    HW236041   7.478   5.481  10.145  0.6298 -2.6587  4.0064
 8106SOL     OW36042  12.308   9.323   1.104  0.7314  0.1600  0.1262
 8106SOL    HW136043  12.255   9.394   1.140  0.8578  1.0528 -1.3663
 8106SOL    HW236044  12.386   9.366   1.070 -0.1987 -0.2668 -2.8848
 8107SOL     OW36045   4.970  10.693   6.997  0.3216  0.3097  0.1466
 8107SOL    HW136046   5.029  10.640   7.050 -0.1073 -2.3390 -1.7885
 8107SOL    HW236047   4.889  10.641   6.992 -0.5453  1.6676 -0.9795
 8108SOL     OW36048   7.913   4.130   3.945  0.2807 -0.9036 -0.8684
 8108SOL    HW136049   7.851   4.165   3.881  0.3377  1.0949  0.1172
 8108SOL    HW236050   7.997   4.170   3.921  0.4877 -0.8646 -0.0993
 8109SOL     OW36051   8.252   6.334   9.170 -0.3636  0.0677  0.0755
 8109SOL    HW136052   8.275   6.357   9.260 -2.8937 -0.3696  0.8921
 8109SOL    HW236053   8.197   6.406   9.140  0.3230  0.1280 -1.1001
 8110SOL     OW36054   1.461   4.225   6.253  0.9650  0.5517 -0.2775
 8110SOL    HW136055   1.511   4.285   6.309  0.7940  0.9961 -0.5952
 8110SOL    HW236056   1.424   4.282   6.185  1.3020  0.0018 -0.9361
 8111SOL     OW36057   7.558   3.850  10.274  0.3475  0.5895 -0.0802
 8111SOL    HW136058   7.610   3.827  10.351  1.7461  0.3476 -1.0637
 8111SOL    HW236059   7.513   3.932  10.299  1.7853  1.2150  0.5411
 8112SOL     OW36060   1.026  12.517  13.235  0.0080  0.2876  0.0329
 8112SOL    HW136061   0.963  12.581  13.267 -0.1679 -0.6771  1.7637
 8112SOL    HW236062   1.011  12.439  13.289  1.0575 -0.7925 -1.1473
 8113SOL     OW36063   8.685  12.906   8.625  0.7630  0.3078 -0.0952
 8113SOL    HW136064   8.748  12.935   8.560 -0.3901  0.3310 -1.2371
 8113SOL    HW236065   8.720  12.823   8.658  2.1233  1.0546  0.3895
 8114SOL     OW36066   6.741   6.066   7.129  0.2923  0.3476 -0.3112
 8114SOL    HW136067   6.665   6.119   7.105 -1.2336 -1.3738  0.5028
 8114SOL    HW236068   6.767   6.024   7.048 -1.0460 -0.7605 -0.2016
 8115SOL     OW36069   9.222   4.917   9.784  0.1683 -0.6084  0.3453
 8115SOL    HW136070   9.139   4.879   9.757 -0.4521  1.4991 -0.9597
 8115SOL    HW236071   9.285   4.845   9.776 -1.1225 -1.6718 -0.8193
 8116SOL     OW36072  12.141   9.585   7.928 -0.1623  0.1580 -0.7623
 8116SOL    HW136073  12.092   9.547   8.001 -0.4552  0.3646 -0.8473
 8116SOL    HW236074  12.223   9.615   7.967  1.2739 -2.8674 -1.1352
 8117SOL     OW36075   2.154   5.315  11.059  0.0791 -0.1370 -0.0708
 8117SOL    HW136076   2.060   5.316  11.039  0.0811 -0.6901 -0.1285
 8117SOL    HW236077   2.167   5.390  11.117 -0.3826  0.0011 -0.1405
 8118SOL     OW36078  12.834   3.892  11.551 -0.0770  0.3135  0.2659
 8118SOL    HW136079  12.765   3.838  11.589 -0.3559 -0.2208 -0.9498
 8118SOL    HW236080  12.799   3.981  11.554 -1.0500 -0.0171 -0.8152
 8119SOL     OW36081   5.214  11.288   2.562  0.0705  0.0840  0.8079
 8119SOL    HW136082   5.126  11.309   2.591  0.1156  1.7277 -0.1162
 8119SOL    HW236083   5.271  11.321   2.632  0.0200  0.7603  0.5384
 8120SOL     OW36084   9.771   8.290   6.921 -0.2523 -0.1516  0.1800
 8120SOL    HW136085   9.854   8.335   6.907 -1.0792  1.1334 -0.7499
 8120SOL    HW236086   9.750   8.305   7.013  0.6894 -0.7762  0.5110
 8121SOL     OW36087   1.769   6.495  11.902 -0.2936  0.1260 -0.5284
 8121SOL    HW136088   1.804   6.480  11.990  0.3828  1.1609 -0.6046
 8121SOL    HW236089   1.696   6.434  11.894 -0.3055 -0.0337  0.7193
 8122SOL     OW36090   4.654  13.708  13.035 -0.1118 -0.3573  0.1736
 8122SOL    HW136091   4.581  13.760  13.068  0.5169 -0.1240  1.2768
 8122SOL    HW236092   4.696  13.763  12.969 -0.4077 -0.1296  0.1780
 8123SOL     OW36093  10.331   5.145   4.779 -0.6265  0.0459 -0.0470
 8123SOL    HW136094  10.351   5.058   4.744  0.2382  0.1156  0.2416
 8123SOL    HW236095  10.340   5.203   4.704  0.9311  0.1558  0.1937
 8124SOL     OW36096   3.726   7.219   7.438 -0.6498 -0.6873  0.1407
 8124SOL    HW136097   3.804   7.195   7.488 -0.2280  0.7373  0.2158
 8124SOL    HW236098   3.749   7.198   7.347 -0.6817 -1.4613  0.3009
 8125SOL     OW36099  12.778   8.792   2.347  0.1088  1.0132 -0.1981
 8125SOL    HW136100  12.865   8.780   2.309 -0.0574  1.0288 -0.5874
 8125SOL    HW236101  12.794   8.799   2.441  0.5860  1.5489 -0.3136
 8126SOL     OW36102   1.806   6.636   1.548  0.5447  0.1736  0.0267
 8126SOL    HW136103   1.766   6.577   1.612 -0.2884  1.6065  0.8904
 8126SOL    HW236104   1.765   6.612   1.465 -0.7360  0.3744  0.5843
 8127SOL     OW36105  11.426   7.903   1.543 -0.4559  0.4478 -0.0561
 8127SOL    HW136106  11.350   7.872   1.593 -0.1728 -0.0586  0.0622
 8127SOL    HW236107  11.485   7.938   1.610  0.6277 -1.6720  0.1724
 8128SOL     OW36108  10.019   6.278  10.398  0.0336 -0.3311 -0.3655
 8128SOL    HW136109  10.078   6.216  10.442 -2.5133 -1.8355  1.1826
 8128SOL    HW236110  10.027   6.358  10.449  1.4514 -0.1545 -0.8119
 8129SOL     OW36111   3.009  10.395  11.122 -0.1532  0.0778  0.2621
 8129SOL    HW136112   2.922  10.359  11.104 -0.1559  0.5391 -0.6679
 8129SOL    HW236113   3.012  10.478  11.074  1.6352 -1.0104 -1.6842
 8130SOL     OW36114   1.287   8.617   3.451 -0.0244 -0.2868 -0.2520
 8130SOL    HW136115   1.318   8.598   3.540 -1.1396  0.6645  0.3722
 8130SOL    HW236116   1.263   8.531   3.415 -1.8810 -0.4871  1.2980
 8131SOL     OW36117   8.499   7.840  12.149 -0.2167  0.2112 -0.0583
 8131SOL    HW136118   8.577   7.802  12.109 -0.1504  0.7613 -0.4666
 8131SOL    HW236119   8.467   7.773  12.209  1.0320  0.2924  0.7243
 8132SOL     OW36120   6.229   0.985  12.482  0.0474  0.1747 -0.0385
 8132SOL    HW136121   6.223   1.078  12.458  0.5606  0.2196  0.0079
 8132SOL    HW236122   6.298   0.950  12.426  1.2821  0.2816  1.3483
 8133SOL     OW36123   7.290   5.729  11.585 -0.2705 -0.4242 -0.2928
 8133SOL    HW136124   7.255   5.816  11.568  1.8483  0.6552  0.4560
 8133SOL    HW236125   7.344   5.710  11.508  0.7504 -0.2446  0.3677
 8134SOL     OW36126  12.324   8.031  12.251 -0.3869  0.3489  0.5335
 8134SOL    HW136127  12.273   8.031  12.170  0.2053  2.1068  0.1221
 8134SOL    HW236128  12.371   7.947  12.250 -1.0576 -0.0304 -0.4936
 8135SOL     OW36129   9.854  12.386  10.895 -0.2523 -0.7305 -0.3709
 8135SOL    HW136130   9.830  12.331  10.820 -1.2121 -1.2730  0.3107
 8135SOL    HW236131   9.819  12.339  10.971 -1.9193  1.2458  0.1679
 8136SOL     OW36132   0.584   1.085   6.305 -0.8196  0.0017 -0.1395
 8136SOL    HW136133   0.500   1.041   6.318 -0.9802 -0.1387 -1.5112
 8136SOL    HW236134   0.604   1.125   6.390 -0.4128 -3.0793  1.3612
 8137SOL     OW36135   4.826   6.713   9.752 -0.0709  0.1648  0.2951
 8137SOL    HW136136   4.808   6.636   9.805 -0.7011  0.4007  0.4344
 8137SOL    HW236137   4.779   6.784   9.797 -2.2773  0.0261 -1.6466
 8138SOL     OW36138   1.361   2.403   5.332  0.3489 -0.1101 -0.0047
 8138SOL    HW136139   1.336   2.495   5.325  0.3477 -0.0948  0.1946
 8138SOL    HW236140   1.389   2.379   5.244  0.1291  0.0164 -0.1081
 8139SOL     OW36141  10.357   6.289  11.452 -0.2033  0.7945 -0.3775
 8139SOL    HW136142  10.332   6.268  11.542  2.6378  0.3752  0.4223
 8139SOL    HW236143  10.355   6.205  11.406 -0.2123  0.7499 -0.2951
 8140SOL     OW36144  11.436  11.814   0.128  0.0295  0.4657  0.2033
 8140SOL    HW136145  11.398  11.888   0.080 -0.5082 -0.6268 -1.1102
 8140SOL    HW236146  11.363  11.779   0.179 -0.4204 -0.7535 -1.2188
 8141SOL     OW36147  11.447   6.237   6.691  0.7713 -0.7359  0.1663
 8141SOL    HW136148  11.451   6.261   6.783  0.2609  1.4479 -0.3297
 8141SOL    HW236149  11.538   6.238   6.661  0.7465  1.4031  0.0243
 8142SOL     OW36150   7.088   9.204   5.941  0.6979  0.6668 -0.3569
 8142SOL    HW136151   6.994   9.209   5.957  0.7069  2.3941 -0.5883
 8142SOL    HW236152   7.098   9.229   5.849  1.3762  0.5688 -0.3139
 8143SOL     OW36153   9.870   4.114   0.023 -0.5678  0.3009  0.2165
 8143SOL    HW136154   9.925   4.183  -0.014 -0.1821 -0.5786 -0.8839
 8143SOL    HW236155   9.823   4.157   0.095 -0.6246  1.7960 -0.6809
 8144SOL     OW36156  10.911  12.311  13.431  0.3411 -0.0254  0.1622
 8144SOL    HW136157  10.947  12.400  13.431  1.1050 -0.3200 -0.3361
 8144SOL    HW236158  10.819  12.323  13.410  0.8785  0.5186 -2.1600
 8145SOL     OW36159   0.821   1.673   2.762 -0.7423  0.8576  0.2875
 8145SOL    HW136160   0.811   1.727   2.840 -1.6975  1.5693 -0.3062
 8145SOL    HW236161   0.805   1.732   2.689 -1.2910 -0.1021 -0.4014
 8146SOL     OW36162   7.668   7.401  13.044 -0.2166 -0.3501 -0.9594
 8146SOL    HW136163   7.664   7.421  13.137 -0.7802  0.4655 -1.1473
 8146SOL    HW236164   7.580   7.370  13.023 -0.0686 -0.6052 -1.2059
 8147SOL     OW36165   3.322   0.063   0.695 -0.1448 -0.2696  0.9971
 8147SOL    HW136166   3.383   0.086   0.765 -0.1242  0.6279  0.6873
 8147SOL    HW236167   3.241   0.040   0.742  0.1178 -0.4792  1.3547
 8148SOL     OW36168   2.355   1.472  12.241 -0.1894 -0.1187  0.0898
 8148SOL    HW136169   2.351   1.543  12.176 -1.4611 -0.9021 -0.7589
 8148SOL    HW236170   2.342   1.393  12.189  1.9229 -1.0648  0.9218
 8149SOL     OW36171   8.912  12.168   3.132 -0.5418 -0.5665 -0.4385
 8149SOL    HW136172   8.832  12.208   3.168  0.0529 -0.4025  0.7792
 8149SOL    HW236173   8.963  12.243   3.101 -0.6686 -0.6310 -0.8002
 8150SOL     OW36174   7.954   7.392   8.575 -0.6253  0.3041  0.0919
 8150SOL    HW136175   7.933   7.421   8.664  0.8252  1.6274  0.0432
 8150SOL    HW236176   7.895   7.443   8.519 -0.4988  0.6018  0.2242
 8151SOL     OW36177  13.384  13.670   9.700 -0.6078  0.5230 -0.1256
 8151SOL    HW136178  13.340  13.608   9.642 -3.1374 -0.0050  2.1662
 8151SOL    HW236179  13.347  13.755   9.678 -2.2020  0.2067  1.1752
 8152SOL     OW36180  11.998   3.823   3.244  0.2865 -0.5050 -0.6113
 8152SOL    HW136181  11.942   3.852   3.172 -1.8800 -0.1067  1.1304
 8152SOL    HW236182  11.999   3.727   3.236 -1.2654 -0.5711 -0.2768
 8153SOL     OW36183  11.769   5.847   4.269 -0.1653  0.2392 -0.0070
 8153SOL    HW136184  11.677   5.841   4.296 -0.7377 -2.9412 -2.1302
 8153SOL    HW236185  11.770   5.917   4.203 -1.6977 -1.2835 -1.7785
 8154SOL     OW36186   8.852   5.765  10.059 -0.4814  0.3474 -0.0996
 8154SOL    HW136187   8.904   5.844  10.073 -0.0369  0.1357 -0.5202
 8154SOL    HW236188   8.774   5.778  10.112 -0.4469  1.1059 -0.2258
 8155SOL     OW36189   9.297  13.017   3.318  0.5640 -0.2419  0.1175
 8155SOL    HW136190   9.218  13.064   3.343  0.3292 -0.2833 -0.5428
 8155SOL    HW236191   9.360  13.085   3.294  0.9598 -0.1755  1.2660
 8156SOL     OW36192  13.061   7.359   5.572  0.0231 -0.1216  0.0567
 8156SOL    HW136193  12.995   7.347   5.640  0.0083  1.6681  0.4234
 8156SOL    HW236194  13.075   7.454   5.570  2.0340 -0.3922 -0.5413
 8157SOL     OW36195   7.849  12.657   2.576  0.3324  0.2830  0.2114
 8157SOL    HW136196   7.887  12.715   2.511 -2.4782  0.2956 -1.6002
 8157SOL    HW236197   7.804  12.715   2.637  1.0680  0.1554  0.8953
 8158SOL     OW36198   2.003   6.338   8.382 -0.1429 -0.2716  0.2686
 8158SOL    HW136199   1.909   6.347   8.366 -0.4380 -0.7339  1.6317
 8158SOL    HW236200   2.022   6.247   8.361 -0.1779 -0.4050  0.8003
 8159SOL     OW36201  12.253   0.908   2.756  0.0848  0.6215 -0.0979
 8159SOL    HW136202  12.271   1.001   2.767  0.3048  0.4547  1.0219
 8159SOL    HW236203  12.158   0.901   2.769  0.1122  0.6406  0.1017
 8160SOL     OW36204  12.333   3.642   2.066  0.4280 -0.6505 -0.1396
 8160SOL    HW136205  12.349   3.722   2.015 -2.0817 -0.1921 -0.3043
 8160SOL    HW236206  12.274   3.590   2.011  0.8176 -1.9478  0.6285
 8161SOL     OW36207   3.213   3.263  12.546  0.3403  0.3094  0.0902
 8161SOL    HW136208   3.165   3.336  12.506 -1.5326 -2.4634 -3.2147
 8161SOL    HW236209   3.272   3.232  12.477  1.0857 -1.3481  1.4044
 8162SOL     OW36210  13.536  11.643  13.074  0.5913  0.1505  0.0379
 8162SOL    HW136211  13.609  11.582  13.075 -0.8718 -1.6909  0.6721
 8162SOL    HW236212  13.467  11.599  13.124 -1.0081  1.7359 -0.6465
 8163SOL     OW36213   2.585   3.801   5.529 -0.3382 -0.1116 -0.3842
 8163SOL    HW136214   2.497   3.764   5.533 -0.6514  0.6239 -0.2780
 8163SOL    HW236215   2.634   3.742   5.472 -0.3908 -1.5397  0.9721
 8164SOL     OW36216   2.113   1.560   3.966  0.0512  0.4327  0.1658
 8164SOL    HW136217   2.074   1.473   3.958  0.2397  0.3984 -0.4506
 8164SOL    HW236218   2.185   1.548   4.028 -0.1346  0.2230  0.3425
 8165SOL     OW36219   4.341   0.594   6.414 -0.5044 -0.1830  0.1799
 8165SOL    HW136220   4.279   0.523   6.398 -0.4937 -0.4690  1.2977
 8165SOL    HW236221   4.411   0.554   6.467 -0.0075  0.4295 -0.0005
 8166SOL     OW36222  13.051   2.619  11.996 -0.1791  0.2833  0.0593
 8166SOL    HW136223  13.049   2.568  11.915 -0.1392 -0.2453  0.3877
 8166SOL    HW236224  13.139   2.605  12.031  0.0952  1.2013 -0.2368
 8167SOL     OW36225   9.982   7.212   3.362  0.0826 -0.4839  0.3215
 8167SOL    HW136226  10.012   7.131   3.322  1.2541 -0.9248  2.0256
 8167SOL    HW236227  10.031   7.281   3.316  2.9245 -1.1044  2.2045
 8168SOL     OW36228  12.864   4.788   3.287  0.4058 -0.5900  0.2468
 8168SOL    HW136229  12.795   4.844   3.321  0.6345 -0.0557 -0.1477
 8168SOL    HW236230  12.915   4.846   3.230 -1.0344 -1.8565 -2.4837
 8169SOL     OW36231   0.489  13.218   7.777 -0.0360 -0.1257 -0.2784
 8169SOL    HW136232   0.579  13.222   7.811 -0.1902 -2.1545  0.5226
 8169SOL    HW236233   0.445  13.291   7.819  1.2923  1.0956 -0.9190
 8170SOL     OW36234  10.821   4.053  12.071 -1.0031  0.3263 -0.5425
 8170SOL    HW136235  10.781   4.140  12.077 -0.3507  0.5520  1.0866
 8170SOL    HW236236  10.914   4.070  12.062 -0.6429 -0.1361  1.5904
 8171SOL     OW36237   0.913   7.615   7.519 -0.1894 -0.0508 -0.2269
 8171SOL    HW136238   0.886   7.702   7.547 -0.9639 -0.5130  0.5218
 8171SOL    HW236239   0.895   7.559   7.594 -0.2001 -0.9398 -0.8749
 8172SOL     OW36240   4.193   5.528   0.581  1.0472  0.5636 -0.1466
 8172SOL    HW136241   4.127   5.464   0.554  0.0165  1.7127 -0.4512
 8172SOL    HW236242   4.276   5.483   0.570  0.2929 -1.3505  1.3818
 8173SOL     OW36243   9.836   1.019  11.502 -0.1752  0.8568 -0.5511
 8173SOL    HW136244   9.892   0.997  11.427 -1.8583 -1.3807 -1.2473
 8173SOL    HW236245   9.853   1.112  11.517  1.4059  1.0003 -2.6847
 8174SOL     OW36246   9.414   3.123   6.255 -0.2253 -0.4721  0.4691
 8174SOL    HW136247   9.406   3.046   6.311  1.0814 -1.3541 -0.5108
 8174SOL    HW236248   9.329   3.167   6.263 -0.8754 -1.8215  1.3078
 8175SOL     OW36249  10.754  13.113   7.425 -0.3006  0.0166  0.1348
 8175SOL    HW136250  10.801  13.180   7.475 -0.2845  0.4044 -0.3892
 8175SOL    HW236251  10.697  13.163   7.366 -1.4979 -0.4334  0.8684
 8176SOL     OW36252   6.474  10.885   8.038 -0.0298 -0.7052 -0.2759
 8176SOL    HW136253   6.381  10.895   8.059 -0.2821 -0.2754 -1.5448
 8176SOL    HW236254   6.476  10.827   7.962  0.7945 -1.3227  0.1975
 8177SOL     OW36255   6.442   2.175  13.699 -0.1021  0.0775  0.6192
 8177SOL    HW136256   6.352   2.176  13.733 -0.2596  1.9841  0.2266
 8177SOL    HW236257   6.460   2.082  13.683 -2.3055 -0.2862 -0.1053
 8178SOL     OW36258  12.002   2.236   4.138  0.5739  0.3697 -0.3041
 8178SOL    HW136259  12.000   2.266   4.047  0.3325  0.3635 -0.3020
 8178SOL    HW236260  12.090   2.259   4.169  1.2315 -1.0896 -1.0279
 8179SOL     OW36261   0.867   9.693   3.711 -0.2214  0.2483 -0.6619
 8179SOL    HW136262   0.908   9.727   3.791 -2.0122  1.3427 -0.1285
 8179SOL    HW236263   0.806   9.626   3.743 -0.7550  0.5070 -1.1272
 8180SOL     OW36264   7.003   7.010   2.896 -0.1693 -0.6176 -0.4159
 8180SOL    HW136265   7.027   7.102   2.899 -2.3071 -0.0149  1.8317
 8180SOL    HW236266   6.960   6.998   2.811 -2.1313  1.1681  0.2497
 8181SOL     OW36267   4.485   1.934  10.110 -0.1355 -0.6519 -0.0495
 8181SOL    HW136268   4.523   1.885  10.037  0.1621 -1.1434  0.4289
 8181SOL    HW236269   4.559   1.978  10.152 -0.5024  0.9652 -1.0046
 8182SOL     OW36270   9.531   8.430   1.258 -0.6900 -0.0947  0.1410
 8182SOL    HW136271   9.482   8.360   1.300 -0.6320  1.6189  3.3664
 8182SOL    HW236272   9.621   8.417   1.287 -0.8482  1.8194  1.7413
 8183SOL     OW36273  12.039   6.359   7.079 -0.4907 -0.5573  0.3622
 8183SOL    HW136274  11.963   6.354   7.021 -0.9850  1.0927  0.8386
 8183SOL    HW236275  12.014   6.306   7.155 -1.1824 -0.0183  0.5210
 8184SOL     OW36276   8.217   3.747   2.277  0.0721  0.4720 -0.8148
 8184SOL    HW136277   8.224   3.672   2.336  1.8444  1.0074 -0.3058
 8184SOL    HW236278   8.123   3.767   2.276 -0.0016  0.7566  2.2416
 8185SOL     OW36279  10.759   7.135   3.503  0.4235 -0.2726 -0.0551
 8185SOL    HW136280  10.834   7.142   3.562  2.6958  0.3163 -2.7635
 8185SOL    HW236281  10.792   7.083   3.429 -1.1277  1.7477 -2.3367
 8186SOL     OW36282   2.758   4.851   8.604 -0.2653 -0.3384 -0.1912
 8186SOL    HW136283   2.686   4.804   8.561  0.2353 -0.8586 -0.4833
 8186SOL    HW236284   2.820   4.782   8.628  0.1511  0.1074  0.0294
 8187SOL     OW36285   3.876   0.395   6.883 -0.3826 -0.0407  0.1373
 8187SOL    HW136286   3.850   0.461   6.818 -0.6002  0.4491  0.7071
 8187SOL    HW236287   3.827   0.419   6.962  0.8573  0.1523  0.8734
 8188SOL     OW36288   5.687  11.189   9.439 -0.3532 -0.3348 -0.0911
 8188SOL    HW136289   5.704  11.112   9.384  0.0115 -0.4539  0.1876
 8188SOL    HW236290   5.612  11.232   9.397  0.1877 -0.1936 -0.9225
 8189SOL     OW36291   5.928  10.040   0.938  0.3025 -0.1425  0.0406
 8189SOL    HW136292   5.900   9.986   1.012  0.6975  0.4819  0.6578
 8189SOL    HW236293   5.855  10.100   0.923  1.1954  1.4733  1.6369
 8190SOL     OW36294   7.778   4.214   3.703 -0.5857 -0.0398 -0.1199
 8190SOL    HW136295   7.760   4.132   3.750 -1.2437 -1.4252 -2.6200
 8190SOL    HW236296   7.700   4.267   3.716 -0.4362 -0.0543  0.9518
 8191SOL     OW36297   7.904  12.608   0.296 -0.3844 -0.2668  0.0395
 8191SOL    HW136298   7.892  12.687   0.349  2.9404  0.8052 -0.5988
 8191SOL    HW236299   7.816  12.584   0.269 -1.5507  3.3030  0.1556
 8192SOL     OW36300   5.412   5.307   2.548  0.1110 -0.1359  0.2627
 8192SOL    HW136301   5.464   5.299   2.468  0.5302  0.3074  0.4867
 8192SOL    HW236302   5.385   5.218   2.568 -0.8433 -0.1508 -0.9294
 8193SOL     OW36303   9.188   1.462   8.935 -0.1898  0.4976  0.0520
 8193SOL    HW136304   9.281   1.437   8.935  0.0058  1.1727 -0.7299
 8193SOL    HW236305   9.184   1.537   8.995 -0.4768 -0.3254  1.0933
 8194SOL     OW36306  11.983   1.981   9.219  0.2078  0.0489  0.0534
 8194SOL    HW136307  12.062   1.949   9.174  0.1160 -1.2252  0.7453
 8194SOL    HW236308  11.911   1.959   9.159  0.1649 -0.9139  0.4427
 8195SOL     OW36309  13.250   1.148   1.379  0.3692 -0.5390 -0.0782
 8195SOL    HW136310  13.176   1.088   1.378  0.5037 -0.7236  0.5589
 8195SOL    HW236311  13.270   1.164   1.287 -0.7064 -0.1828 -0.2649
 8196SOL     OW36312   8.221  13.097   6.838 -0.6767 -0.3395 -0.6202
 8196SOL    HW136313   8.269  13.123   6.759 -1.3097 -1.4581 -1.4057
 8196SOL    HW236314   8.158  13.167   6.852 -0.7931 -0.2881 -1.3312
 8197SOL     OW36315  13.418   3.988   6.742 -0.6268 -0.3135  0.6138
 8197SOL    HW136316  13.394   4.035   6.822  0.8438  0.1875  0.8085
 8197SOL    HW236317  13.425   3.897   6.768 -0.8993 -0.2577  0.8808
 8198SOL     OW36318   9.928   8.218   5.387  0.5955  0.1104  0.1271
 8198SOL    HW136319   9.838   8.191   5.406  0.6372 -0.1213 -0.0057
 8198SOL    HW236320   9.926   8.245   5.295  0.7205 -0.1438  0.0497
 8199SOL     OW36321   5.274  12.399   7.112 -0.4947  0.2175  0.1928
 8199SOL    HW136322   5.280  12.461   7.039 -1.3505 -0.7888 -0.7670
 8199SOL    HW236323   5.288  12.314   7.071 -3.8949 -0.6886  0.6384
 8200SOL     OW36324   2.487  13.512   1.055 -0.2390  0.5412  0.3662
 8200SOL    HW136325   2.411  13.570   1.047 -0.5372  0.1048 -0.0972
 8200SOL    HW236326   2.448  13.425   1.068  0.2001  0.4852  1.3480
 8201SOL     OW36327   0.845   7.313   4.938 -0.1952 -0.2322 -0.2919
 8201SOL    HW136328   0.786   7.369   4.886  0.8034  1.1672  0.0346
 8201SOL    HW236329   0.927   7.313   4.889 -0.4247 -2.2448 -0.7917
 8202SOL     OW36330   6.567  13.303  13.513  0.7766  0.3474 -0.0510
 8202SOL    HW136331   6.623  13.226  13.508 -0.7369 -0.7482 -0.8932
 8202SOL    HW236332   6.578  13.347  13.429  0.9038  0.5210  0.0550
 8203SOL     OW36333   1.721   8.075  13.652 -0.3133 -0.1123  0.5348
 8203SOL    HW136334   1.645   8.111  13.607 -1.1826 -0.7722  1.4168
 8203SOL    HW236335   1.782   8.148  13.660 -0.4993  0.2302 -0.8968
 8204SOL     OW36336  11.931   6.443  10.746 -0.2329 -0.7750  0.2965
 8204SOL    HW136337  11.959   6.527  10.711  0.7080 -0.7587  1.0677
 8204SOL    HW236338  11.853   6.421  10.695 -1.1088  1.0491  0.7834
 8205SOL     OW36339   8.810   6.780   6.136 -0.3408  0.0939 -0.0718
 8205SOL    HW136340   8.887   6.836   6.127 -0.0234 -0.1081  1.1962
 8205SOL    HW236341   8.741   6.838   6.168 -0.5370  0.1373 -0.5657
 8206SOL     OW36342   5.941  10.762   6.361  0.3738  0.1465 -0.1291
 8206SOL    HW136343   5.896  10.738   6.280  1.5836  1.8647 -1.3890
 8206SOL    HW236344   5.925  10.856   6.370  0.9353  0.1364  1.1940
 8207SOL     OW36345   2.307   5.137   9.581  0.5180 -0.3751 -0.0731
 8207SOL    HW136346   2.322   5.120   9.674  2.4988  0.8826 -0.0986
 8207SOL    HW236347   2.257   5.218   9.579  1.6846  0.3773 -0.0695
 8208SOL     OW36348   2.811  10.712   5.955  0.2316  0.4498  0.1775
 8208SOL    HW136349   2.905  10.719   5.936  1.3935  0.0341  4.6376
 8208SOL    HW236350   2.790  10.794   6.000 -0.9284 -0.4442  1.3242
 8209SOL     OW36351  10.338  11.145   9.280 -0.1052 -0.0075 -0.2147
 8209SOL    HW136352  10.379  11.193   9.352 -0.5477  1.8139 -1.1275
 8209SOL    HW236353  10.249  11.178   9.277 -0.2503 -0.4508 -1.2519
 8210SOL     OW36354   3.567   4.993   1.306 -0.2485 -0.2502  0.1873
 8210SOL    HW136355   3.652   5.020   1.273 -0.4906  0.7642  0.3601
 8210SOL    HW236356   3.573   5.003   1.401  0.2433 -2.5765  0.4583
 8211SOL     OW36357   8.471  10.520  12.796 -0.3380  0.8230  0.2568
 8211SOL    HW136358   8.542  10.523  12.861 -0.6209 -0.0300  0.6176
 8211SOL    HW236359   8.461  10.428  12.775 -1.8373  0.8445  0.7686
 8212SOL     OW36360  11.345   6.747   3.526  0.4266  0.4823 -0.0991
 8212SOL    HW136361  11.348   6.833   3.485 -3.6625  0.2869 -1.2028
 8212SOL    HW236362  11.362   6.686   3.455  2.1717  0.2758  0.4518
 8213SOL     OW36363   9.805   8.675   6.908  0.1107 -0.0157 -0.0295
 8213SOL    HW136364   9.783   8.672   7.002  2.0622 -1.6910  0.4324
 8213SOL    HW236365   9.884   8.730   6.904  0.0329  0.0528 -0.7059
 8214SOL     OW36366  12.319   5.314   7.655  0.4373  0.0964  0.6133
 8214SOL    HW136367  12.262   5.285   7.583  1.1381  0.9660 -0.3106
 8214SOL    HW236368  12.261   5.366   7.711  0.0687  0.1175  0.2209
 8215SOL     OW36369  10.930   5.136   2.011  0.2826  0.1875 -0.2037
 8215SOL    HW136370  10.865   5.174   2.070 -0.1030  1.1885 -1.2422
 8215SOL    HW236371  10.888   5.136   1.925  1.4638  0.3743 -0.7995
 8216SOL     OW36372  10.843   2.575   2.414 -0.1470  0.4729 -0.0853
 8216SOL    HW136373  10.763   2.534   2.446 -0.0146 -0.1293 -0.4874
 8216SOL    HW236374  10.877   2.512   2.349  0.3711  0.9606 -0.2933
 8217SOL     OW36375   9.173   1.178   1.487 -0.2392 -0.5650 -0.0927
 8217SOL    HW136376   9.115   1.253   1.474 -0.6542 -0.8014  0.3470
 8217SOL    HW236377   9.243   1.190   1.423 -0.6902 -0.1910 -0.5222
 8218SOL     OW36378   4.686   4.265  12.299 -0.2210 -0.5557 -0.1480
 8218SOL    HW136379   4.737   4.277  12.379  0.5193 -1.4615 -0.4656
 8218SOL    HW236380   4.751   4.252  12.230 -0.8595 -0.3068 -0.8156
 8219SOL     OW36381   5.133   3.733   5.280  0.3393  0.2071  0.0638
 8219SOL    HW136382   5.185   3.726   5.200 -1.7242 -0.0701 -1.3478
 8219SOL    HW236383   5.121   3.643   5.309 -0.1808  0.1800 -0.2150
 8220SOL     OW36384   8.334   3.784   6.856 -0.2274  0.2937 -0.1937
 8220SOL    HW136385   8.429   3.785   6.848 -0.3104  2.1420 -2.0286
 8220SOL    HW236386   8.307   3.700   6.818  0.6791 -1.1516  2.1237
 8221SOL     OW36387   2.030   8.088  12.639 -0.2307  0.4947  0.2891
 8221SOL    HW136388   2.082   8.138  12.576 -0.6146 -0.0539 -0.4793
 8221SOL    HW236389   2.065   8.114  12.724 -0.1261  1.7277 -0.1071
 8222SOL     OW36390   4.691  11.715   8.314 -0.3487  0.4500 -0.1889
 8222SOL    HW136391   4.640  11.702   8.394  0.2197  0.1450  0.1261
 8222SOL    HW236392   4.781  11.693   8.339 -0.2910 -0.4300 -1.1084
 8223SOL     OW36393  13.606   7.755   4.358  0.5872  0.0039  0.0482
 8223SOL    HW136394  13.561   7.804   4.426  2.7282  0.5054  1.1676
 8223SOL    HW236395  13.575   7.665   4.369 -0.8867  0.4804  0.0799
 8224SOL     OW36396   7.712  12.262   7.172 -0.6628  0.0642  0.1777
 8224SOL    HW136397   7.768  12.224   7.240 -0.2539  0.7444  0.2336
 8224SOL    HW236398   7.743  12.352   7.164 -0.5438 -0.0744 -1.0868
 8225SOL     OW36399  11.229  11.084   0.884 -0.3196  0.6489 -0.1682
 8225SOL    HW136400  11.140  11.056   0.865  0.0045  0.0478 -0.8348
 8225SOL    HW236401  11.284  11.009   0.860  0.4389  1.3074 -0.5387
 8226SOL     OW36402   8.592   7.806   3.936  0.3210 -0.1126 -0.0982
 8226SOL    HW136403   8.547   7.850   4.008  0.6864  0.3396 -0.1414
 8226SOL    HW236404   8.549   7.721   3.928  0.8922 -0.5488  1.2688
 8227SOL     OW36405  12.648   2.426   4.333 -0.1225  0.5821 -0.8211
 8227SOL    HW136406  12.723   2.387   4.287 -0.2876 -2.9708  1.5627
 8227SOL    HW236407  12.582   2.437   4.264  0.6090 -1.7918 -2.0288
 8228SOL     OW36408   8.378  13.618   6.000  0.6126  0.3435  0.2600
 8228SOL    HW136409   8.328  13.538   6.015  1.4433 -0.2659 -0.1430
 8228SOL    HW236410   8.465  13.588   5.973  1.0805  1.3785  0.5425
 8229SOL     OW36411   1.662   4.264  10.861  0.2665  0.0918  0.1813
 8229SOL    HW136412   1.682   4.315  10.783 -0.5294  0.4973  0.2313
 8229SOL    HW236413   1.567   4.255  10.860  0.4531 -2.7513 -0.6632
 8230SOL     OW36414  13.144   2.247   5.713 -0.0973 -0.0626 -0.4462
 8230SOL    HW136415  13.161   2.197   5.634 -0.5191 -0.9871  0.0326
 8230SOL    HW236416  13.050   2.238   5.729 -0.1273  0.6189 -0.1719
 8231SOL     OW36417  11.741   8.696   7.583 -0.3848  0.1139 -0.2591
 8231SOL    HW136418  11.708   8.619   7.628  0.0612 -0.0709 -0.2410
 8231SOL    HW236419  11.775   8.752   7.653 -0.3936  0.1735 -0.3018
 8232SOL     OW36420   0.840   5.503   9.625 -0.3595 -0.5210 -0.2912
 8232SOL    HW136421   0.834   5.521   9.718 -1.1524 -0.5072 -0.3384
 8232SOL    HW236422   0.800   5.579   9.583  0.0404 -0.5018 -0.6452
 8233SOL     OW36423   6.111   7.887   5.901  0.3117 -0.3504 -0.4239
 8233SOL    HW136424   6.206   7.902   5.901  0.1938  0.7092  1.4751
 8233SOL    HW236425   6.082   7.918   5.986 -1.7152 -1.0170 -0.8183
 8234SOL     OW36426  12.706   7.789  13.155  0.3550 -0.8166 -0.4516
 8234SOL    HW136427  12.728   7.868  13.106  0.5678 -1.3208 -1.1769
 8234SOL    HW236428  12.766   7.789  13.230 -0.0764  0.0329 -0.0914
 8235SOL     OW36429   4.206   4.944  10.842  0.2113  0.4466  0.6528
 8235SOL    HW136430   4.249   4.953  10.927 -0.5493 -1.9073  1.3663
 8235SOL    HW236431   4.200   5.033  10.809  1.1620  1.3628  2.7377
 8236SOL     OW36432   1.402   7.927   6.874 -0.4382 -0.1221 -0.2670
 8236SOL    HW136433   1.447   7.884   6.946 -0.4551  1.0829  0.4898
 8236SOL    HW236434   1.468   7.935   6.806 -0.0994 -0.2205  0.0485
 8237SOL     OW36435   5.718  10.296   9.977  0.1103  0.5505  0.4513
 8237SOL    HW136436   5.648  10.255  10.027 -1.3884 -0.0908 -1.9653
 8237SOL    HW236437   5.675  10.369   9.931  1.2495  0.7617 -0.3151
 8238SOL     OW36438   5.040  12.395   2.075  0.3160  0.0763 -0.1355
 8238SOL    HW136439   5.089  12.343   2.139 -0.8701  1.6463  2.1886
 8238SOL    HW236440   4.964  12.341   2.053  0.4748 -0.2787  0.1735
 8239SOL     OW36441  10.698  11.091   6.098 -0.0843 -0.2606  0.1596
 8239SOL    HW136442  10.647  11.086   6.179 -1.0599  1.0938 -0.3289
 8239SOL    HW236443  10.642  11.140   6.038 -0.3235 -2.9947 -2.0840
 8240SOL     OW36444  11.980   2.339   0.938 -0.0938 -0.0545 -0.2665
 8240SOL    HW136445  12.062   2.338   0.888 -0.7315  1.5037 -1.4301
 8240SOL    HW236446  11.977   2.254   0.981  2.4054  0.0584  0.2590
 8241SOL     OW36447   5.646   9.231   0.983 -0.0713  0.4248 -0.4425
 8241SOL    HW136448   5.564   9.229   0.933 -0.7094 -1.6684  0.5851
 8241SOL    HW236449   5.628   9.289   1.057 -0.4562  0.3655 -0.4874
 8242SOL     OW36450   4.701   2.069   5.642 -0.0143 -0.2686  0.7054
 8242SOL    HW136451   4.665   2.147   5.683  0.6284  2.1360 -2.7865
 8242SOL    HW236452   4.784   2.098   5.604  0.0676 -2.4909 -1.0564
 8243SOL     OW36453   7.267   0.988   3.160  0.5469  0.0729  0.3576
 8243SOL    HW136454   7.303   1.069   3.195 -0.2887  1.0240 -0.9198
 8243SOL    HW236455   7.344   0.937   3.135  1.0632  0.9875  0.0369
 8244SOL     OW36456   5.144   9.517   1.618  0.0926 -0.2132 -0.1682
 8244SOL    HW136457   5.069   9.499   1.561 -0.1038 -1.9164  0.5465
 8244SOL    HW236458   5.105   9.541   1.703  0.3828  1.6210 -0.5123
 8245SOL     OW36459   0.921  11.752  11.407 -0.1308  0.1608  0.3658
 8245SOL    HW136460   0.999  11.801  11.432 -0.0835  1.3083 -1.7883
 8245SOL    HW236461   0.945  11.709  11.325 -0.9925 -1.5165  0.9419
 8246SOL     OW36462   6.203   3.808  12.008  0.2995 -0.3562 -0.2221
 8246SOL    HW136463   6.126   3.800  11.952 -1.5894 -0.0118  2.1610
 8246SOL    HW236464   6.273   3.836  11.949 -1.5065 -0.1837 -2.4064
 8247SOL     OW36465   8.302   9.851  10.633 -0.2691 -0.6641  0.1530
 8247SOL    HW136466   8.362   9.793  10.680  0.9795  0.2645 -0.2577
 8247SOL    HW236467   8.217   9.809  10.643  0.3728 -1.8257  1.0640
 8248SOL     OW36468   0.484  10.802   4.570  0.3397 -0.0882 -0.3093
 8248SOL    HW136469   0.541  10.727   4.557 -0.2041 -0.2005 -2.3191
 8248SOL    HW236470   0.519  10.869   4.511 -1.4002 -0.0597 -1.3476
 8249SOL     OW36471   6.323   9.209   4.590 -0.1030  0.1453  0.0195
 8249SOL    HW136472   6.259   9.280   4.591 -1.3823 -0.9639 -0.3982
 8249SOL    HW236473   6.281   9.137   4.637  0.9382 -0.5311 -0.0364
 8250SOL     OW36474   3.706  11.992  11.280 -0.3401 -0.0229  0.5058
 8250SOL    HW136475   3.636  11.931  11.305 -0.7298  0.2851  0.1686
 8250SOL    HW236476   3.665  12.052  11.219  0.7495 -1.1134 -1.3803
 8251SOL     OW36477  11.394  10.013   5.642 -0.0233 -0.5338 -0.2242
 8251SOL    HW136478  11.489  10.021   5.630 -0.0631 -0.7988 -0.7566
 8251SOL    HW236479  11.375  10.063   5.721  0.7741 -1.7339  0.7704
 8252SOL     OW36480   0.339   8.493   0.900 -0.0829 -0.3273 -0.2594
 8252SOL    HW136481   0.358   8.587   0.900 -1.0019 -0.1232 -1.0144
 8252SOL    HW236482   0.251   8.487   0.937  0.7658 -1.1041  1.7765
 8253SOL     OW36483   2.440   6.782   7.105 -0.1297  0.5438 -0.7453
 8253SOL    HW136484   2.512   6.836   7.138  0.0347 -0.1762  0.1084
 8253SOL    HW236485   2.479   6.729   7.036  0.0956  0.3428 -0.4639
 8254SOL     OW36486  13.006   2.809  10.012  0.0620 -0.5181 -0.0338
 8254SOL    HW136487  13.038   2.815   9.922  1.0532 -1.0157  0.2657
 8254SOL    HW236488  12.925   2.859  10.012  0.6988  0.5567 -0.8999
 8255SOL     OW36489   8.709   7.725   4.534  0.6980  0.1687  0.8649
 8255SOL    HW136490   8.616   7.729   4.553  0.5703 -0.2576  0.3308
 8255SOL    HW236491   8.747   7.680   4.610  0.2997 -0.8052  0.4984
 8256SOL     OW36492   2.690   6.225   0.058 -0.5316 -0.1188  0.0158
 8256SOL    HW136493   2.609   6.250   0.014  1.3540  1.8237 -2.6688
 8256SOL    HW236494   2.726   6.155   0.003  0.4022  0.2038  0.2080
 8257SOL     OW36495   5.231   2.809   0.264 -0.3118 -0.3181  0.1056
 8257SOL    HW136496   5.271   2.821   0.350  0.1763  0.5918 -0.2342
 8257SOL    HW236497   5.165   2.879   0.259 -0.2505 -0.2906 -0.3127
 8258SOL     OW36498   6.154  10.989   2.493 -1.0642  0.3658 -0.0021
 8258SOL    HW136499   6.065  10.953   2.486 -0.5090 -0.8041 -1.7231
 8258SOL    HW236500   6.207  10.915   2.521 -0.2189  0.3039 -1.6567
 8259SOL     OW36501   7.880   3.902   9.914  0.2083 -0.2463 -0.1945
 8259SOL    HW136502   7.809   3.891   9.850  1.2301  1.2792 -1.6857
 8259SOL    HW236503   7.922   3.817   9.918  0.4368 -0.2704 -2.0248
 8260SOL     OW36504   2.949   1.865   4.280  0.4872 -0.8412  0.5918
 8260SOL    HW136505   3.017   1.932   4.275  1.7705 -2.1434  0.1290
 8260SOL    HW236506   2.960   1.827   4.367  0.5297 -1.2362  0.4137
 8261SOL     OW36507   0.802   5.719  13.488  0.2378  0.3348  0.4766
 8261SOL    HW136508   0.732   5.680  13.435  1.3958  0.7472 -1.4510
 8261SOL    HW236509   0.882   5.680  13.453  1.3584  3.3586 -0.6489
 8262SOL     OW36510   4.521   9.618   5.731 -0.7339 -0.1492  0.0254
 8262SOL    HW136511   4.467   9.636   5.654  0.8898 -0.6185 -1.2801
 8262SOL    HW236512   4.505   9.692   5.789 -0.1079  1.5652 -1.8575
 8263SOL     OW36513   7.485   1.748   8.558 -0.9946  0.1772  0.2723
 8263SOL    HW136514   7.549   1.759   8.629 -1.4094 -1.6214  0.9732
 8263SOL    HW236515   7.528   1.787   8.482  0.9292 -0.8610  0.7496
 8264SOL     OW36516  13.340   2.295   0.753  0.3822  0.0922 -0.1730
 8264SOL    HW136517  13.389   2.235   0.697  0.6656  0.3758 -0.2296
 8264SOL    HW236518  13.248   2.280   0.729  0.5131  0.3370 -0.8393
 8265SOL     OW36519  11.482   5.140   8.344 -0.8149 -0.0405  0.5503
 8265SOL    HW136520  11.449   5.092   8.421 -0.0032 -1.0415  0.2986
 8265SOL    HW236521  11.525   5.217   8.381  1.4104 -1.5398  1.3469
 8266SOL     OW36522  10.860  12.763   0.289 -0.2587 -0.3665  0.4272
 8266SOL    HW136523  10.767  12.762   0.313 -0.6603 -1.2632 -0.9877
 8266SOL    HW236524  10.899  12.694   0.342 -0.5965 -0.5922  0.3877
 8267SOL     OW36525  13.372   3.884   8.973  0.2324  0.2758 -0.2336
 8267SOL    HW136526  13.369   3.801   8.925 -2.8514  1.0890 -1.7300
 8267SOL    HW236527  13.291   3.886   9.024  0.3968  2.2121  0.0567
 8268SOL     OW36528   2.223  10.067  10.940 -0.4659  0.2989 -0.0547
 8268SOL    HW136529   2.158  10.136  10.927 -1.6996 -1.1217 -2.0593
 8268SOL    HW236530   2.174   9.992  10.973  0.4438 -0.2767  0.0463
 8269SOL     OW36531   8.751  11.906  10.534  0.0497 -0.0803 -0.1851
 8269SOL    HW136532   8.794  11.991  10.523 -2.2886  1.2645  0.3041
 8269SOL    HW236533   8.773  11.880  10.623 -0.7117  0.9832  0.3448
 8270SOL     OW36534   8.538   1.099   2.772  0.4974 -0.0369 -0.2622
 8270SOL    HW136535   8.467   1.161   2.756  1.8897  1.3894 -1.1999
 8270SOL    HW236536   8.526   1.031   2.707 -1.5343 -1.2843  1.2985
 8271SOL     OW36537   6.401  10.502  12.051 -0.3955  0.1283  0.3359
 8271SOL    HW136538   6.485  10.515  12.095  1.4556  2.0125 -3.3486
 8271SOL    HW236539   6.369  10.590  12.034 -1.1268 -0.4769 -1.7387
 8272SOL     OW36540   6.571  11.001   1.130  0.2733  0.0039 -0.3068
 8272SOL    HW136541   6.534  10.938   1.068 -0.0620 -0.0286 -0.0792
 8272SOL    HW236542   6.558  10.960   1.216 -3.2167  1.8756  0.2354
 8273SOL     OW36543  11.540  13.514   5.801 -0.0355 -0.0460 -0.0813
 8273SOL    HW136544  11.504  13.494   5.714 -1.0731  1.3458 -0.0155
 8273SOL    HW236545  11.477  13.576   5.838  1.0799  0.3832  1.1484
 8274SOL     OW36546  10.517   0.449  12.061 -0.0086  0.4808  0.0549
 8274SOL    HW136547  10.548   0.459  11.971  0.3050 -0.6725  0.0115
 8274SOL    HW236548  10.579   0.498  12.114  1.7213 -1.4214 -0.0725
 8275SOL     OW36549   5.457   8.884  13.668  0.1755 -0.2262  0.2990
 8275SOL    HW136550   5.539   8.862  13.625  0.3602  0.9608  0.0030
 8275SOL    HW236551   5.392   8.884  13.597 -0.0756 -1.0825  0.5184
 8276SOL     OW36552   2.457   7.581   2.899 -0.1776 -0.3915 -0.1230
 8276SOL    HW136553   2.457   7.487   2.884  0.1071 -0.2078 -1.3738
 8276SOL    HW236554   2.381   7.596   2.955  0.5934 -1.5183  1.3095
 8277SOL     OW36555   6.387   6.006   5.903  0.1567 -0.4095  0.0924
 8277SOL    HW136556   6.316   6.065   5.928  0.0981 -0.5716  0.3141
 8277SOL    HW236557   6.398   5.948   5.979  1.2560  0.3121  0.5139
 8278SOL     OW36558   4.666  10.541  11.372  0.4086 -0.2952 -0.2534
 8278SOL    HW136559   4.608  10.593  11.427  0.9779 -0.9202  0.9967
 8278SOL    HW236560   4.700  10.474  11.431  2.4317  0.0722 -0.9214
 8279SOL     OW36561  13.045   5.026   0.948  0.2429 -0.3601 -0.5599
 8279SOL    HW136562  13.049   5.121   0.937 -0.9294 -0.1918  0.3192
 8279SOL    HW236563  13.076   4.991   0.864 -0.4499  0.8033 -1.3268
 8280SOL     OW36564   8.741   3.502   9.096  0.2465 -0.0410  0.0709
 8280SOL    HW136565   8.760   3.538   9.182 -2.6171  0.9818  0.3545
 8280SOL    HW236566   8.777   3.567   9.035  0.3983  0.2814  0.4971
 8281SOL     OW36567   7.561   5.070  11.841  0.9650 -0.2614 -0.2045
 8281SOL    HW136568   7.475   5.070  11.798  0.2947  1.5999  1.0066
 8281SOL    HW236569   7.551   5.008  11.913  0.7956 -0.4311 -0.3723
 8282SOL     OW36570   4.908   7.550   9.928 -0.5184 -0.4410 -0.1965
 8282SOL    HW136571   4.883   7.471   9.977 -0.6338  0.5039  1.3392
 8282SOL    HW236572   4.859   7.620   9.970  1.2134  0.7717 -0.1058
 8283SOL     OW36573   4.533   0.833   6.150  0.7854 -0.1147  0.8673
 8283SOL    HW136574   4.450   0.838   6.102 -0.9364 -2.1361  3.3608
 8283SOL    HW236575   4.543   0.920   6.189 -0.2969  0.0998  0.7012
 8284SOL     OW36576   8.769   8.400  10.544 -0.6359 -0.4543 -0.2788
 8284SOL    HW136577   8.842   8.423  10.601 -0.0143  1.0688 -1.6079
 8284SOL    HW236578   8.693   8.394  10.602  0.0797  0.4080  0.7741
 8285SOL     OW36579   9.169  12.957   9.675  0.3164  0.1816  0.1182
 8285SOL    HW136580   9.099  13.019   9.698  0.1724 -0.4097  1.3241
 8285SOL    HW236581   9.195  12.917   9.758 -0.0372 -1.8640 -0.6951
 8286SOL     OW36582   2.967   4.580   1.098 -0.4451 -0.0500  0.3842
 8286SOL    HW136583   2.995   4.669   1.075 -0.2005 -0.0821  0.5472
 8286SOL    HW236584   2.899   4.559   1.035  0.2452 -0.1565 -0.3453
 8287SOL     OW36585   5.211  11.080   4.368 -0.5385  0.2784  0.2745
 8287SOL    HW136586   5.117  11.082   4.389 -0.2880 -0.2440  1.5458
 8287SOL    HW236587   5.253  11.118   4.446  0.2983  0.7222 -0.3812
 8288SOL     OW36588   3.010  11.991  13.547 -0.2909 -0.4132 -0.5064
 8288SOL    HW136589   2.980  12.081  13.556 -1.0591 -0.7132 -0.0420
 8288SOL    HW236590   2.994  11.951  13.632 -0.5996 -1.1794 -0.9153
 8289SOL     OW36591  10.337   1.928   8.260 -0.2209 -0.0558  0.0642
 8289SOL    HW136592  10.397   2.000   8.280 -0.5778  0.5377 -0.9512
 8289SOL    HW236593  10.258   1.948   8.310  0.0184 -0.2499  0.5253
 8290SOL     OW36594   9.089   8.870   6.967 -0.1390  0.2362 -0.0711
 8290SOL    HW136595   9.002   8.848   6.932 -0.8759 -1.4046  2.4889
 8290SOL    HW236596   9.111   8.954   6.926 -1.9841 -0.2932 -2.3642
 8291SOL     OW36597   1.285   0.072   2.715 -0.4757  0.3602  0.0677
 8291SOL    HW136598   1.354   0.077   2.781  1.1748  3.3704 -1.6656
 8291SOL    HW236599   1.287  -0.018   2.684  1.5158 -0.0511  1.2650
 8292SOL     OW36600   8.650   9.741  13.037 -0.1388  0.9201  0.1563
 8292SOL    HW136601   8.685   9.822  13.074 -1.3312  1.5161  0.0147
 8292SOL    HW236602   8.677   9.673  13.099  0.6878  1.4460  0.3936
 8293SOL     OW36603   0.500   0.569   4.546 -0.1419 -0.2147 -0.1940
 8293SOL    HW136604   0.590   0.592   4.572  0.2121 -1.2653 -0.4407
 8293SOL    HW236605   0.452   0.568   4.629 -0.0608  0.8530 -0.1143
 8294SOL     OW36606   2.434   4.024   6.133 -0.1069  0.6013  0.2635
 8294SOL    HW136607   2.491   4.091   6.169  1.6265 -0.0805 -1.0581
 8294SOL    HW236608   2.365   4.072   6.088 -0.2227  1.4486  1.3064
 8295SOL     OW36609   6.151   0.584   1.480  0.1586  0.4643  0.2908
 8295SOL    HW136610   6.229   0.600   1.535  0.4081 -0.4529  0.2074
 8295SOL    HW236611   6.138   0.667   1.434  0.2773  1.0739  1.3218
 8296SOL     OW36612   1.351   8.370   3.006 -0.7046 -0.3399 -0.1383
 8296SOL    HW136613   1.286   8.385   2.937  0.8726 -0.7872 -1.8084
 8296SOL    HW236614   1.365   8.275   3.006 -0.1099 -0.2584  0.2313
 8297SOL     OW36615   6.011   2.392  12.495  0.0585 -0.5192 -1.0980
 8297SOL    HW136616   6.046   2.482  12.492  0.9399 -0.8726 -1.9301
 8297SOL    HW236617   6.027   2.364  12.585  0.6261 -0.1577 -1.0739
 8298SOL     OW36618   3.813   7.925   3.750  0.5571  0.2702 -0.1655
 8298SOL    HW136619   3.789   7.869   3.823 -1.0683  0.1391 -0.7753
 8298SOL    HW236620   3.771   8.009   3.769  0.2033  0.2634 -0.9091
 8299SOL     OW36621   1.921   5.162   8.899 -0.7060 -0.2355  0.0426
 8299SOL    HW136622   1.956   5.116   8.976 -2.0306  1.4826  1.7768
 8299SOL    HW236623   1.959   5.250   8.904 -2.3970  0.5404 -0.0537
 8300SOL     OW36624   6.537  12.519   3.696  0.4796  0.5482  0.1775
 8300SOL    HW136625   6.463  12.579   3.692 -0.6010 -0.7989 -1.3106
 8300SOL    HW236626   6.575  12.521   3.608 -1.0992 -2.6609 -0.7263
 8301SOL     OW36627  13.405   8.276   5.142 -0.0130 -0.6272 -0.0622
 8301SOL    HW136628  13.363   8.316   5.218  1.3726  0.0450  0.3770
 8301SOL    HW236629  13.397   8.182   5.157  2.4441 -0.5797  2.2798
 8302SOL     OW36630  11.721   2.945  11.059  0.1225  0.0024  0.0336
 8302SOL    HW136631  11.796   2.904  11.015  0.0757  0.4440 -0.4714
 8302SOL    HW236632  11.750   2.958  11.149  0.0642 -1.3364  0.2746
 8303SOL     OW36633  11.288   2.550   1.943 -0.0086 -0.1196 -0.2913
 8303SOL    HW136634  11.351   2.515   2.005  1.8507 -1.6000 -2.7994
 8303SOL    HW236635  11.327   2.633   1.914  0.6637 -0.8480 -1.5575
 8304SOL     OW36636  10.087   8.799   5.474  0.0562 -0.2049  0.3985
 8304SOL    HW136637  10.146   8.858   5.426  0.3644 -0.6095  0.2737
 8304SOL    HW236638  10.062   8.849   5.552  0.9009 -0.1785  0.6655
 8305SOL     OW36639  13.740   7.430   9.450 -0.3631  0.0085 -0.0118
 8305SOL    HW136640  13.803   7.359   9.435 -0.9356 -0.0345 -2.7160
 8305SOL    HW236641  13.669   7.389   9.499  0.2099 -0.7716  0.1896
 8306SOL     OW36642   7.539  12.861  13.003  0.3545 -0.3443  0.4767
 8306SOL    HW136643   7.480  12.786  13.006 -0.9566  0.6871  1.5128
 8306SOL    HW236644   7.580  12.864  13.089  1.4128 -0.6198  0.0043
 8307SOL     OW36645  10.033  11.606   9.792 -0.1854  0.2571  0.1818
 8307SOL    HW136646  10.038  11.586   9.698 -2.2996  3.3829 -0.7799
 8307SOL    HW236647   9.943  11.584   9.816  0.6246 -1.4947  1.8409
 8308SOL     OW36648   1.541   8.048   8.427  0.3451  0.4108  0.0216
 8308SOL    HW136649   1.537   7.953   8.411  0.4883  0.5652 -1.0192
 8308SOL    HW236650   1.595   8.057   8.505 -1.0329 -0.4489  1.1380
 8309SOL     OW36651   6.254  10.478   3.645 -0.2123 -0.0641  0.0917
 8309SOL    HW136652   6.265  10.542   3.574  1.2296 -0.4758 -0.0856
 8309SOL    HW236653   6.338  10.477   3.690 -1.4214  1.0446  2.6012
 8310SOL     OW36654   8.746   4.709   8.912  0.1732  0.2417 -0.3952
 8310SOL    HW136655   8.738   4.730   8.819  0.0456  0.8955 -0.2417
 8310SOL    HW236656   8.840   4.696   8.925  0.0174 -1.7590 -1.0036
 8311SOL     OW36657  12.080   5.314   9.944 -0.2750  0.4541 -0.0214
 8311SOL    HW136658  12.167   5.337   9.978 -1.1856  1.9304  1.4460
 8311SOL    HW236659  12.038   5.267  10.016 -1.1685  0.9516 -0.2112
 8312SOL     OW36660   3.433   0.213   0.249  0.0168  0.0114 -0.1754
 8312SOL    HW136661   3.481   0.151   0.193 -0.1604  0.2341 -0.5770
 8312SOL    HW236662   3.351   0.229   0.202  0.0003  0.4389 -0.0040
 8313SOL     OW36663  12.868  12.799  12.985  0.5863 -0.1611  0.2067
 8313SOL    HW136664  12.916  12.803  13.067  0.1364  0.4532  0.4432
 8313SOL    HW236665  12.809  12.874  12.987 -1.4129 -1.6683  0.5591
 8314SOL     OW36666   1.993   7.352   0.354  0.5205 -0.3044  0.3209
 8314SOL    HW136667   1.921   7.407   0.382  0.8472 -0.3944  1.3760
 8314SOL    HW236668   2.067   7.412   0.342  0.2247 -0.1720 -1.0237
 8315SOL     OW36669   2.102   7.674  10.544  0.0914 -0.1552 -0.0965
 8315SOL    HW136670   2.104   7.700  10.636  2.1855  1.1906 -0.4638
 8315SOL    HW236671   2.135   7.750  10.496  1.3410 -1.6448 -1.7454
 8316SOL     OW36672   4.855  11.291  12.906 -0.0862  0.4469  0.9398
 8316SOL    HW136673   4.887  11.380  12.889  1.6749 -0.6306 -2.3988
 8316SOL    HW236674   4.765  11.291  12.876  0.5005  0.6974 -0.9315
 8317SOL     OW36675   5.760  12.849   5.700 -0.5348 -0.1481 -0.1646
 8317SOL    HW136676   5.726  12.931   5.735  0.3974  1.4989 -2.7418
 8317SOL    HW236677   5.840  12.833   5.749 -0.5979  0.6525  0.2099
 8318SOL     OW36678   3.647  12.320   8.513 -0.4261 -0.2576 -0.2890
 8318SOL    HW136679   3.576  12.259   8.535  0.4178 -0.5015  2.0004
 8318SOL    HW236680   3.702  12.272   8.451 -0.9686 -0.9592 -0.2353
 8319SOL     OW36681  12.265   3.576  11.688  0.1323  0.4921 -0.1322
 8319SOL    HW136682  12.343   3.527  11.715  1.1231  0.8989 -2.0457
 8319SOL    HW236683  12.298   3.643  11.629 -1.5421  1.5818  0.1015
 8320SOL     OW36684   2.757   0.768  11.952 -0.1253 -0.8014  0.5333
 8320SOL    HW136685   2.708   0.827  12.009  0.5790 -2.0106  2.4516
 8320SOL    HW236686   2.805   0.827  11.893 -0.9751  0.4720  1.0594
 8321SOL     OW36687   8.532   2.572   6.363 -0.6263  0.1865 -0.0194
 8321SOL    HW136688   8.536   2.641   6.429 -2.6073 -1.5000  2.0120
 8321SOL    HW236689   8.600   2.510   6.389 -1.1173 -0.2710  0.1698
 8322SOL     OW36690   8.428   8.906   2.656 -0.1496  0.3315  0.3987
 8322SOL    HW136691   8.459   8.818   2.677 -2.5314 -0.8442 -0.6170
 8322SOL    HW236692   8.437   8.955   2.737  0.9978 -0.9005  1.0628
 8323SOL     OW36693  10.143  12.244   6.409 -0.5979 -0.5300  0.3311
 8323SOL    HW136694  10.059  12.200   6.419 -0.6381 -1.2268 -2.2538
 8323SOL    HW236695  10.197  12.181   6.360  0.2526  1.2253 -1.1038
 8324SOL     OW36696   8.428   6.202   3.433 -0.3424  0.3695  0.2941
 8324SOL    HW136697   8.410   6.243   3.349 -2.4026  0.4559  0.7397
 8324SOL    HW236698   8.450   6.111   3.411  0.0157  0.6189 -0.3930
 8325SOL     OW36699   6.013  11.182   0.203 -0.0926  0.1098 -0.2972
 8325SOL    HW136700   6.003  11.125   0.279 -0.8578  1.2927  0.5287
 8325SOL    HW236701   6.082  11.141   0.151  1.8926  0.2751  2.0278
 8326SOL     OW36702   0.989   6.534   9.562 -0.0387  0.2564 -0.0919
 8326SOL    HW136703   0.927   6.590   9.609 -0.8865 -2.1536  1.8448
 8326SOL    HW236704   1.050   6.504   9.629  1.2642 -0.0269 -1.3607
 8327SOL     OW36705   2.349   4.386   5.168  0.2682 -0.2792 -0.3004
 8327SOL    HW136706   2.358   4.399   5.263  2.0678 -1.8799 -0.1941
 8327SOL    HW236707   2.383   4.466   5.130  0.0126  0.1757  0.4000
 8328SOL     OW36708   1.537   8.325   2.407  0.2469  0.0432 -0.2839
 8328SOL    HW136709   1.628   8.346   2.386  0.6265 -0.3169  0.9281
 8328SOL    HW236710   1.500   8.293   2.324  1.0311  0.7791 -0.9417
 8329SOL     OW36711  12.165  12.478   2.100 -0.3345  0.1239  0.2096
 8329SOL    HW136712  12.233  12.525   2.051  0.9461  0.1836  1.9525
 8329SOL    HW236713  12.163  12.391   2.060  0.3786  0.3027 -0.2401
 8330SOL     OW36714   9.679  12.885  13.417 -0.2312 -0.3616 -0.1521
 8330SOL    HW136715   9.600  12.935  13.396 -1.1657 -1.5470  0.4308
 8330SOL    HW236716   9.674  12.807  13.361 -0.0661 -0.9954  0.6891
 8331SOL     OW36717  13.225   0.655   5.723  0.2490 -0.4088 -0.3128
 8331SOL    HW136718  13.152   0.714   5.706 -0.1008 -0.6973  0.1825
 8331SOL    HW236719  13.211   0.582   5.663  0.4069 -0.2357 -0.5662
 8332SOL     OW36720  10.866   5.047   9.293  0.0978 -0.2816 -0.1892
 8332SOL    HW136721  10.803   4.983   9.261 -1.0690 -0.0029  1.4160
 8332SOL    HW236722  10.815   5.103   9.351  1.4410  1.1307 -0.3339
 8333SOL     OW36723   7.276   8.479  13.428 -0.2572  0.2378 -0.4634
 8333SOL    HW136724   7.183   8.457  13.430 -0.0514 -0.6900 -0.7057
 8333SOL    HW236725   7.315   8.415  13.368  0.8735 -0.7347  1.2337
 8334SOL     OW36726  10.865   7.889   2.149 -0.2472 -0.0943 -0.2520
 8334SOL    HW136727  10.817   7.962   2.188  1.3595  1.1696 -0.5317
 8334SOL    HW236728  10.862   7.906   2.055  0.1584 -0.3669 -0.3155
 8335SOL     OW36729  11.717  12.001  12.230  0.0401 -0.1162 -0.3231
 8335SOL    HW136730  11.649  12.021  12.295  0.7345 -0.0738  0.4007
 8335SOL    HW236731  11.672  12.009  12.145 -0.4818  1.3894  0.0694
 8336SOL     OW36732  12.872   7.047   2.207  0.0637 -0.1353  0.2771
 8336SOL    HW136733  12.960   7.020   2.178 -0.4200 -0.4358 -0.9660
 8336SOL    HW236734  12.824   6.966   2.216 -0.5141  0.1173 -0.4826
 8337SOL     OW36735   2.483  10.968   6.487 -0.0656  0.1180  0.1481
 8337SOL    HW136736   2.468  10.938   6.577 -1.1328  0.4927  0.1082
 8337SOL    HW236737   2.537  10.899   6.448 -1.9046 -1.4715  0.2566
 8338SOL     OW36738   2.031   0.401   9.670 -0.1058  0.2566 -0.2019
 8338SOL    HW136739   2.085   0.324   9.683 -0.1406  0.5068  1.6487
 8338SOL    HW236740   1.942   0.367   9.655 -0.0168 -0.0638  0.0065
 8339SOL     OW36741   5.177   7.148  10.895 -0.0249  0.1078  0.4513
 8339SOL    HW136742   5.203   7.105  10.814 -0.5671  0.9630 -0.1953
 8339SOL    HW236743   5.236   7.113  10.962  0.4034 -0.6283 -0.3007
 8340SOL     OW36744  11.985  13.564  11.854 -0.4579  0.1498 -0.1548
 8340SOL    HW136745  12.025  13.498  11.910 -0.3165  0.4908  0.1429
 8340SOL    HW236746  11.927  13.514  11.797 -1.8746 -0.0588  1.3790
 8341SOL     OW36747   9.509   9.002  12.867 -0.3782 -0.0356 -0.1160
 8341SOL    HW136748   9.528   8.951  12.789 -1.3619 -1.5597  0.5933
 8341SOL    HW236749   9.540   8.948  12.940 -1.4905  0.3355  0.6654
 8342SOL     OW36750  10.517   7.642  13.073 -0.2820  0.0528 -0.6287
 8342SOL    HW136751  10.611   7.631  13.059 -0.1626  0.7292 -0.4136
 8342SOL    HW236752  10.504   7.737  13.075 -0.8615 -0.0342  0.0496
 8343SOL     OW36753   1.590   7.878  11.264  0.1899 -0.0678 -0.0976
 8343SOL    HW136754   1.510   7.870  11.212  0.4429 -1.7229 -0.2959
 8343SOL    HW236755   1.661   7.863  11.201  0.8970  3.8515 -0.4822
 8344SOL     OW36756  11.697   3.191  13.470 -0.7098 -0.1203 -0.0070
 8344SOL    HW136757  11.624   3.215  13.528  0.3893  1.0003  0.9706
 8344SOL    HW236758  11.771   3.178  13.530 -0.3897 -2.6765 -0.8210
 8345SOL     OW36759  11.289   0.012   4.227 -0.5109  0.2668  0.2323
 8345SOL    HW136760  11.377   0.000   4.263 -0.6231  0.8098  0.7030
 8345SOL    HW236761  11.286  -0.045   4.150  0.1826  0.0920  0.3332
 8346SOL     OW36762   0.734   3.542   2.620  0.0061  0.4761 -0.2900
 8346SOL    HW136763   0.734   3.628   2.661  1.2261  0.0059  0.7726
 8346SOL    HW236764   0.805   3.546   2.556  0.1626  0.2206 -0.1360
 8347SOL     OW36765  10.934   8.407   1.774 -0.4778 -0.4334 -0.0564
 8347SOL    HW136766  10.949   8.363   1.857 -4.1576 -1.4129  0.2383
 8347SOL    HW236767  10.975   8.351   1.709  1.0853 -0.4603  0.8962
 8348SOL     OW36768   6.677   6.260   7.602  0.1122 -0.0532 -0.5737
 8348SOL    HW136769   6.747   6.321   7.622  0.6494 -0.6550 -0.6067
 8348SOL    HW236770   6.624   6.257   7.682 -0.3385  0.9983 -0.8137
 8349SOL     OW36771   6.083  13.017   6.463 -0.4152  0.0687 -0.0365
 8349SOL    HW136772   6.160  13.072   6.475 -0.9591  1.6725 -2.9756
 8349SOL    HW236773   6.118  12.932   6.438  0.4741  0.8827 -1.7313
 8350SOL     OW36774   0.380   8.752  13.487 -0.0219 -0.2650  0.2093
 8350SOL    HW136775   0.474   8.755  13.469 -0.2078  2.7021 -0.8125
 8350SOL    HW236776   0.339   8.777  13.404 -1.4498  2.5264  1.5911
 8351SOL     OW36777   8.774   3.063   2.490  0.0974  0.8936 -0.0092
 8351SOL    HW136778   8.744   3.148   2.458  2.2199  1.0028 -1.9682
 8351SOL    HW236779   8.775   3.007   2.412 -2.4911 -1.4088  1.4451
 8352SOL     OW36780   3.218   4.406   7.024  0.1074  0.0773 -0.2230
 8352SOL    HW136781   3.128   4.434   7.038  0.1458  0.4583 -0.7284
 8352SOL    HW236782   3.220   4.373   6.935  0.3412 -0.4403 -0.0288
 8353SOL     OW36783  11.534   2.527   1.657  0.1614  0.4514 -0.2994
 8353SOL    HW136784  11.546   2.454   1.597  0.6851 -2.0525  2.6277
 8353SOL    HW236785  11.620   2.542   1.696 -0.3621  1.2170  0.6245
 8354SOL     OW36786   9.341  13.163   5.131  0.1131 -0.6157  0.5987
 8354SOL    HW136787   9.333  13.073   5.163  0.1410 -1.3444 -1.2940
 8354SOL    HW236788   9.256  13.203   5.152 -1.2944 -2.1956 -1.5516
 8355SOL     OW36789   5.081   5.573   2.734 -0.1615 -0.1181  0.1758
 8355SOL    HW136790   5.097   5.654   2.783 -1.4386  0.6290 -0.6073
 8355SOL    HW236791   5.167   5.531   2.729  0.2613  0.4586  1.8429
 8356SOL     OW36792  10.582  10.431   2.669  0.5540 -0.5660  0.1408
 8356SOL    HW136793  10.557  10.341   2.650 -0.4610  0.2279 -2.7964
 8356SOL    HW236794  10.526  10.456   2.742 -1.1227 -1.5179 -0.7618
 8357SOL     OW36795  10.467  12.393   9.119  0.3208  0.3544 -0.0919
 8357SOL    HW136796  10.456  12.488   9.123  0.2308  0.5410 -2.6804
 8357SOL    HW236797  10.385  12.361   9.081  1.0211 -0.5339 -0.9088
 8358SOL     OW36798  10.592   8.283   7.869 -0.0656  0.2855  0.4537
 8358SOL    HW136799  10.515   8.287   7.812  0.1994 -1.3622 -0.0811
 8358SOL    HW236800  10.585   8.197   7.912  0.4164  0.9660  1.9530
 8359SOL     OW36801   0.088   0.714  11.266  0.2118  0.0557  0.1458
 8359SOL    HW136802   0.060   0.638  11.318  0.8670 -0.1276  0.2400
 8359SOL    HW236803   0.049   0.789  11.311 -0.7008 -0.2446 -0.1265
 8360SOL     OW36804   5.247  12.711   1.795 -0.2482  0.6719  0.5396
 8360SOL    HW136805   5.154  12.690   1.804 -0.1642  0.2528  0.4254
 8360SOL    HW236806   5.274  12.742   1.881 -0.4954  0.7970  0.5714
 8361SOL     OW36807   0.126   1.374   1.170  0.0546 -0.5918  0.2092
 8361SOL    HW136808   0.120   1.460   1.213  0.4580 -0.4464 -0.0140
 8361SOL    HW236809   0.055   1.374   1.106 -1.6414 -1.4798  2.0016
 8362SOL     OW36810   2.709   9.180   4.384 -0.2929 -0.8434  0.0005
 8362SOL    HW136811   2.805   9.173   4.387 -0.3917 -2.0197  1.0044
 8362SOL    HW236812   2.687   9.167   4.292  0.3697 -3.0208  0.1050
 8363SOL     OW36813   7.896   2.656  12.438 -0.4942  0.0516 -0.6699
 8363SOL    HW136814   7.936   2.724  12.491  0.2092 -0.1640 -0.9101
 8363SOL    HW236815   7.822   2.699  12.396  0.2245  0.8186 -1.2053
 8364SOL     OW36816   7.220   3.404  11.557 -0.0141  0.2747  0.2010
 8364SOL    HW136817   7.157   3.339  11.524  0.6709  0.2083 -1.0496
 8364SOL    HW236818   7.170   3.455  11.621 -0.9872 -0.5434  0.1292
 8365SOL     OW36819   0.099   5.709   6.434 -0.1272  0.2129 -0.3552
 8365SOL    HW136820   0.114   5.690   6.341 -0.9826  0.4756 -0.5555
 8365SOL    HW236821   0.004   5.712   6.443 -0.0521  0.3510  0.5027
 8366SOL     OW36822   6.342  11.027   1.460  0.0027 -0.3642 -0.1147
 8366SOL    HW136823   6.378  10.949   1.417 -0.3218  0.2646 -1.6074
 8366SOL    HW236824   6.415  11.090   1.461 -0.0348 -0.3257  0.1176
 8367SOL     OW36825   0.754   9.215   2.417 -0.1520  0.5069  0.1480
 8367SOL    HW136826   0.717   9.171   2.493  0.7015  0.3202  0.4733
 8367SOL    HW236827   0.786   9.299   2.451 -0.1869  0.6225 -0.1006
 8368SOL     OW36828   3.374  10.302  12.068 -0.4753 -0.4069 -0.4431
 8368SOL    HW136829   3.379  10.301  11.972  0.9868  2.0353 -0.4893
 8368SOL    HW236830   3.456  10.262  12.096 -0.0914  0.4524 -0.2895
 8369SOL     OW36831   9.681  13.725   7.167  0.0004 -0.4357 -0.1217
 8369SOL    HW136832   9.627  13.696   7.240  1.3063  1.6481  1.8404
 8369SOL    HW236833   9.633  13.799   7.130  0.6790  0.4113  0.6187
 8370SOL     OW36834  12.217   5.727  10.484 -0.2338  0.1244  0.0175
 8370SOL    HW136835  12.135   5.777  10.477 -0.2808 -0.0100 -0.4437
 8370SOL    HW236836  12.226   5.684  10.399  1.2068  1.5325 -0.6092
 8371SOL     OW36837   0.289   5.554   8.948  0.1120 -0.3496 -0.6626
 8371SOL    HW136838   0.344   5.488   8.908  0.6820 -0.2835 -0.0248
 8371SOL    HW236839   0.288   5.531   9.041  2.4244  1.8975  0.0532
 8372SOL     OW36840   5.055  10.849   4.664 -0.6868  0.1323 -0.0667
 8372SOL    HW136841   5.113  10.925   4.673 -0.7695  0.1331  0.4482
 8372SOL    HW236842   5.033  10.824   4.753  1.1064 -1.8598 -0.1032
 8373SOL     OW36843   3.783  11.141   5.922 -0.0248 -0.6861  0.5617
 8373SOL    HW136844   3.795  11.187   6.005  0.1239 -0.7968  0.6033
 8373SOL    HW236845   3.872  11.118   5.895 -0.1157 -1.1412  0.6508
 8374SOL     OW36846  11.899   0.300   9.587  0.0489  0.5391  0.5726
 8374SOL    HW136847  11.952   0.379   9.576  2.1333 -0.9895 -1.4119
 8374SOL    HW236848  11.948   0.232   9.541 -1.2232 -2.1261  2.8588
 8375SOL     OW36849   2.457  12.175   9.076  0.5138  0.2938  0.0389
 8375SOL    HW136850   2.414  12.238   9.018  0.1254  0.5313  0.5750
 8375SOL    HW236851   2.461  12.095   9.024 -1.8259 -0.1457  0.4054
 8376SOL     OW36852   5.669   8.005   9.000  0.3447 -0.3697  0.1908
 8376SOL    HW136853   5.703   8.074   8.943  1.1061  0.0017  1.0761
 8376SOL    HW236854   5.744   7.949   9.018 -0.2088 -1.2811 -0.2980
 8377SOL     OW36855   2.365  13.598   8.762  0.1121 -0.0954  0.0468
 8377SOL    HW136856   2.390  13.674   8.710 -1.1265  0.5461  0.3606
 8377SOL    HW236857   2.416  13.606   8.843 -0.6333  0.8593  0.4304
 8378SOL     OW36858   2.230   3.102   5.871 -0.9026 -0.2454 -0.3100
 8378SOL    HW136859   2.223   3.083   5.778 -0.5880 -1.4673 -0.1028
 8378SOL    HW236860   2.283   3.030   5.906  0.5340  1.1327  0.5082
 8379SOL     OW36861   4.726   7.061   5.986  0.6603 -0.0252  0.7546
 8379SOL    HW136862   4.633   7.039   5.994  0.2363 -0.0386 -2.6523
 8379SOL    HW236863   4.768   7.017   6.060 -1.7698 -1.8653  1.1494
 8380SOL     OW36864   5.477   8.000   8.630  0.0138  0.3504  0.0859
 8380SOL    HW136865   5.497   8.079   8.680 -0.6026  0.1135  0.7315
 8380SOL    HW236866   5.381   7.995   8.631  0.0640 -1.0475  1.1037
 8381SOL     OW36867   5.008   9.768   8.522 -0.0691 -0.0565  0.1812
 8381SOL    HW136868   5.093   9.729   8.541  0.3299 -0.0364 -1.3937
 8381SOL    HW236869   4.955   9.695   8.490 -0.3395  0.1032  0.2601
 8382SOL     OW36870   5.217   9.698   2.788  0.4918 -0.1684 -0.1931
 8382SOL    HW136871   5.241   9.607   2.806  0.7937  0.0316  0.4381
 8382SOL    HW236872   5.137   9.712   2.838  0.4461 -0.0846 -0.2894
 8383SOL     OW36873   0.233   3.688   4.937  0.2261  0.2993 -0.0542
 8383SOL    HW136874   0.178   3.724   4.867 -1.2421 -0.3626  0.6995
 8383SOL    HW236875   0.240   3.759   5.001 -1.9808 -0.3987  1.0510
 8384SOL     OW36876   2.232   8.035  13.505  0.2961  0.6747 -0.2612
 8384SOL    HW136877   2.249   8.112  13.559  0.6124  0.5937 -0.2420
 8384SOL    HW236878   2.138   8.019  13.514  0.2043  1.1466 -0.3841
 8385SOL     OW36879   0.778   2.086   5.751 -0.0336 -0.2919  0.2143
 8385SOL    HW136880   0.775   2.132   5.668  0.9633 -1.1571 -0.3261
 8385SOL    HW236881   0.829   2.143   5.809 -1.1628  0.5486  0.4111
 8386SOL     OW36882   5.400  11.352   6.021 -0.8834 -0.5957 -0.2555
 8386SOL    HW136883   5.483  11.372   6.064 -1.2417 -1.5892  0.9174
 8386SOL    HW236884   5.405  11.259   6.001 -0.5175 -0.0911 -2.8819
 8387SOL     OW36885   8.283   1.703   5.021  0.1163  0.3430  0.0421
 8387SOL    HW136886   8.215   1.766   5.046  0.5588 -0.3067  3.4591
 8387SOL    HW236887   8.365   1.751   5.032  0.3397  0.1880 -0.8992
 8388SOL     OW36888   1.233   1.905   1.325 -0.7532 -0.7554  0.1156
 8388SOL    HW136889   1.181   1.959   1.385 -0.0121  0.1738 -0.0587
 8388SOL    HW236890   1.270   1.968   1.263 -0.4547 -1.5565 -0.5315
 8389SOL     OW36891   7.061  11.082   5.224  0.0686  0.4180  0.3319
 8389SOL    HW136892   7.138  11.124   5.262 -0.3882  1.0973  0.5152
 8389SOL    HW236893   6.999  11.074   5.297 -0.7570  1.5952 -0.2052
 8390SOL     OW36894  10.038   1.196   8.929 -0.2609  0.0210 -0.0453
 8390SOL    HW136895   9.950   1.209   8.893 -0.5034  1.2625  0.9046
 8390SOL    HW236896  10.094   1.183   8.853 -0.9399  1.3533 -0.7967
 8391SOL     OW36897   6.384  10.359   1.339 -0.0625  0.3325  0.1888
 8391SOL    HW136898   6.362  10.405   1.420 -0.2212  1.5527 -0.5233
 8391SOL    HW236899   6.307  10.369   1.284 -0.1909 -1.0023  0.0765
 8392SOL     OW36900   2.770  11.070   1.045 -0.0340  0.4246 -0.1256
 8392SOL    HW136901   2.784  10.979   1.073  0.5090  0.4940 -0.1651
 8392SOL    HW236902   2.855  11.098   1.011 -0.1791  0.9748 -0.0436
 8393SOL     OW36903  11.834  12.149   0.843 -0.2196  0.4648 -0.1844
 8393SOL    HW136904  11.889  12.212   0.796 -0.7422 -0.4101 -2.0743
 8393SOL    HW236905  11.884  12.128   0.922  2.4187 -0.5882 -1.9844
 8394SOL     OW36906   1.256   6.957   0.043 -0.1713  0.4673 -0.2410
 8394SOL    HW136907   1.166   6.944   0.074  0.2134  0.6956  1.0341
 8394SOL    HW236908   1.270   7.051   0.050  0.1562  0.4387 -0.4806
 8395SOL     OW36909   7.952   4.976  10.621 -0.8173 -0.0807  0.1353
 8395SOL    HW136910   7.903   4.920  10.680  0.5628  0.4464  1.8796
 8395SOL    HW236911   7.889   5.041  10.591 -1.9221 -1.3004 -0.2788
 8396SOL     OW36912   9.453   5.250   3.398 -0.3519  0.0690 -0.0624
 8396SOL    HW136913   9.377   5.253   3.457 -0.1058  0.1554  0.2581
 8396SOL    HW236914   9.527   5.233   3.457 -0.1979 -0.5920 -0.4421
 8397SOL     OW36915   6.984   2.569  11.580 -0.1635 -0.0561  0.2696
 8397SOL    HW136916   7.072   2.551  11.548 -0.8771 -1.1563 -1.1512
 8397SOL    HW236917   6.937   2.605  11.505 -0.6309  1.7017  1.3258
 8398SOL     OW36918   0.545   5.561   4.264 -0.4411 -0.1510 -0.3873
 8398SOL    HW136919   0.487   5.637   4.267  1.5010  1.4017 -0.0626
 8398SOL    HW236920   0.596   5.574   4.184  0.0637 -1.0163 -0.2108
 8399SOL     OW36921   1.902   3.210   2.945  0.0177  0.0211 -0.2807
 8399SOL    HW136922   1.961   3.208   2.869  1.2557  1.8267  0.5810
 8399SOL    HW236923   1.840   3.279   2.925 -0.3656 -0.2785 -0.1383
 8400SOL     OW36924   1.016   2.946   0.691  0.1015 -0.4796 -0.5029
 8400SOL    HW136925   1.053   2.938   0.603  1.7742  0.7619  0.0428
 8400SOL    HW236926   1.060   3.023   0.728 -1.2344 -0.4526  1.1024
 8401SOL     OW36927   4.761   0.675   2.481  0.4514 -0.0335 -0.4471
 8401SOL    HW136928   4.669   0.701   2.486  0.7527  0.8175  1.1921
 8401SOL    HW236929   4.807   0.754   2.454  0.8479 -0.0694  0.1015
 8402SOL     OW36930  13.659   8.607   1.869 -0.4752  0.0541 -0.3763
 8402SOL    HW136931  13.725   8.539   1.882  0.9666  1.4769  0.1838
 8402SOL    HW236932  13.580   8.573   1.911  0.3730 -1.0138  0.4181
 8403SOL     OW36933  10.026  10.515  10.806  0.8365  0.1395 -0.0620
 8403SOL    HW136934   9.969  10.476  10.873 -1.6229 -0.6380 -2.4506
 8403SOL    HW236935  10.001  10.607  10.804  1.5027  0.3515  0.5777
 8404SOL     OW36936   1.091   7.882  13.604 -0.1300  0.0685  0.8582
 8404SOL    HW136937   1.031   7.853  13.673  0.8069  1.1719  2.1915
 8404SOL    HW236938   1.046   7.860  13.522 -1.7281 -0.3619  1.8104
 8405SOL     OW36939  12.992   5.561   3.182  0.4559  0.1016 -0.3704
 8405SOL    HW136940  12.930   5.518   3.240  0.6454 -0.3851 -0.5248
 8405SOL    HW236941  12.941   5.629   3.138  0.3353  0.5671  0.4481
 8406SOL     OW36942  12.697   8.133  13.115  0.7055 -0.0518  0.6437
 8406SOL    HW136943  12.778   8.089  13.090  0.3846 -0.3954  0.1926
 8406SOL    HW236944  12.653   8.150  13.032 -0.8131 -2.0504  0.9515
 8407SOL     OW36945   8.589   8.355  10.048  0.3672 -0.5719 -0.1855
 8407SOL    HW136946   8.631   8.386  10.128  1.2231  0.0212 -0.8511
 8407SOL    HW236947   8.650   8.291  10.012 -0.0614 -0.9120 -0.3202
 8408SOL     OW36948   5.647   4.997   2.249 -0.0411 -0.1019 -0.6367
 8408SOL    HW136949   5.664   4.927   2.313 -0.7644  0.0260 -0.2998
 8408SOL    HW236950   5.609   4.951   2.174  2.6996 -0.5770 -1.8951
 8409SOL     OW36951   9.044   7.782   5.294  0.1306  0.0984  0.3593
 8409SOL    HW136952   9.040   7.766   5.388 -1.8418  0.5809  0.4053
 8409SOL    HW236953   8.981   7.854   5.279 -0.8740 -1.0856 -1.5190
 8410SOL     OW36954   8.785   5.898   2.387 -0.2247  0.6264  0.0721
 8410SOL    HW136955   8.808   5.975   2.335 -1.0612  0.8079 -0.0398
 8410SOL    HW236956   8.865   5.845   2.387  0.5319  1.7239  0.5795
 8411SOL     OW36957  10.872   9.292   5.559 -0.1627 -0.3132 -0.4483
 8411SOL    HW136958  10.814   9.341   5.500  0.9218  1.7230  0.0754
 8411SOL    HW236959  10.933   9.247   5.500 -1.6835 -1.8143 -0.9690
 8412SOL     OW36960  10.959   5.933  11.068  0.8128  0.8115  0.4114
 8412SOL    HW136961  10.943   6.021  11.034 -0.7536  0.2920 -0.2873
 8412SOL    HW236962  11.037   5.903  11.022  0.7700  1.4533 -0.0927
 8413SOL     OW36963  11.355  12.983   9.248 -0.1508  0.2713 -0.2732
 8413SOL    HW136964  11.447  13.003   9.264 -0.1407  0.5369 -0.6554
 8413SOL    HW236965  11.337  12.907   9.303  0.0488  0.7814  0.5077
 8414SOL     OW36966   7.538  11.909   5.139 -0.2067  0.5145  0.0402
 8414SOL    HW136967   7.503  11.983   5.089  0.1062  0.3822 -0.3725
 8414SOL    HW236968   7.514  11.929   5.230  0.0434  1.2184 -0.0426
 8415SOL     OW36969   9.962   3.585   9.153  0.7166 -0.3858 -0.0085
 8415SOL    HW136970  10.057   3.589   9.166  0.8570 -1.2475 -0.6440
 8415SOL    HW236971   9.925   3.624   9.232  1.6077  0.6162 -0.0616
 8416SOL     OW36972   1.339   7.390  11.067 -0.0833  0.3184 -0.0746
 8416SOL    HW136973   1.245   7.403  11.063 -0.0757  0.3869 -0.0324
 8416SOL    HW236974   1.377   7.475  11.045 -0.0336  0.3319  0.0573
 8417SOL     OW36975   2.008  13.179   5.375  0.0258  0.0839  0.0677
 8417SOL    HW136976   2.068  13.253   5.382  2.2574 -1.4974 -1.2184
 8417SOL    HW236977   1.938  13.199   5.438  0.0665  3.6355 -0.8153
 8418SOL     OW36978   9.681   7.724   2.462 -0.2554 -0.5021  0.3468
 8418SOL    HW136979   9.710   7.790   2.525 -0.3852 -2.7196  2.9440
 8418SOL    HW236980   9.586   7.721   2.473 -0.4211 -0.1172 -0.8649
 8419SOL     OW36981   9.441   8.593   0.150  0.3646 -0.0474  0.1142
 8419SOL    HW136982   9.494   8.532   0.099  0.7330 -0.5913  1.1209
 8419SOL    HW236983   9.362   8.543   0.172  0.9005 -0.3538  1.3871
 8420SOL     OW36984   4.046   1.050   3.945 -0.3324 -0.1655  0.2885
 8420SOL    HW136985   4.008   1.115   4.004 -0.9454 -0.3107  0.0712
 8420SOL    HW236986   4.010   1.073   3.859 -0.2795 -0.5799  0.1530
 8421SOL     OW36987  13.486   8.575   6.690 -0.0757 -0.8298  0.1238
 8421SOL    HW136988  13.514   8.493   6.649 -0.5940 -1.1252  0.3595
 8421SOL    HW236989  13.504   8.642   6.623 -0.3769 -1.2352 -0.3731
 8422SOL     OW36990   3.369  11.445   6.404 -0.3612  0.3339 -0.2301
 8422SOL    HW136991   3.413  11.465   6.487 -2.6563  1.9697  0.6884
 8422SOL    HW236992   3.382  11.351   6.393  2.7475  0.5766  0.2485
 8423SOL     OW36993   8.752   3.260  10.799 -0.0135 -0.4041 -0.3090
 8423SOL    HW136994   8.809   3.336  10.814 -0.7043  0.0681 -0.0498
 8423SOL    HW236995   8.813   3.188  10.784  0.6645  0.3195 -1.2219
 8424SOL     OW36996   3.844  12.620   9.646  0.1057 -0.2888 -0.0498
 8424SOL    HW136997   3.862  12.673   9.568  1.9936 -0.4777  0.2155
 8424SOL    HW236998   3.829  12.684   9.715  1.3513 -0.0684  0.0428
 8425SOL     OW36999  13.290   1.516   3.937 -0.1653  1.1451  0.2541
 8425SOL    HW137000  13.374   1.473   3.918 -0.9100  0.3519 -1.5841
 8425SOL    HW237001  13.312   1.590   3.993  1.6560  0.5056  0.4436
 8426SOL     OW37002   4.604   3.697   7.163  1.0242 -0.2603 -0.1425
 8426SOL    HW137003   4.689   3.735   7.144  0.4611  0.1437 -2.0003
 8426SOL    HW237004   4.585   3.639   7.090 -0.8355  0.6477 -0.4665
 8427SOL     OW37005  13.357   7.098  10.355 -0.0799  0.1404  0.0562
 8427SOL    HW137006  13.376   7.012  10.317  1.6843  0.5016  0.0095
 8427SOL    HW237007  13.439   7.124  10.396 -0.8461  1.4292  0.8366
 8428SOL     OW37008  10.674   4.392   2.184 -0.3321 -0.8207 -0.0960
 8428SOL    HW137009  10.685   4.423   2.094  0.4256  3.5247  1.2532
 8428SOL    HW237010  10.744   4.327   2.196  1.4553  0.6737 -1.8420
 8429SOL     OW37011   0.769  12.402  10.302  0.2764  0.0063  0.7626
 8429SOL    HW137012   0.729  12.434  10.222  1.2142  0.1688  0.3452
 8429SOL    HW237013   0.695  12.379  10.359 -0.4219 -1.1633 -0.5558
 8430SOL     OW37014   8.020   9.976   1.398  0.5101  0.5143  0.5044
 8430SOL    HW137015   7.936   9.956   1.356  0.0781 -0.9120  1.9632
 8430SOL    HW237016   8.065  10.031   1.334 -2.1543  2.7429  0.3094
 8431SOL     OW37017   7.421  10.075   8.209 -0.1748 -0.1454 -0.2625
 8431SOL    HW137018   7.382  10.027   8.136  1.4005 -0.2645 -1.0756
 8431SOL    HW237019   7.401  10.167   8.190 -0.3184 -0.2275 -0.5089
 8432SOL     OW37020   7.990   8.146   0.371  0.3366  0.6592 -0.2792
 8432SOL    HW137021   8.057   8.122   0.436  0.1051  0.7450 -0.0073
 8432SOL    HW237022   8.036   8.141   0.287  0.4229 -0.2560 -0.1887
 8433SOL     OW37023   8.861   5.399   2.735 -0.5678  0.1885  0.1342
 8433SOL    HW137024   8.769   5.424   2.745 -0.8038 -0.3779 -0.5366
 8433SOL    HW237025   8.874   5.393   2.641  0.4425  1.2509  0.1947
 8434SOL     OW37026   3.546   7.858   7.638 -0.2700 -0.0863  0.2003
 8434SOL    HW137027   3.592   7.930   7.682  0.4844 -0.2519 -0.2941
 8434SOL    HW237028   3.505   7.809   7.709 -0.1638  0.4046  0.6069
 8435SOL     OW37029  12.495  11.969   0.719 -0.6395 -0.5869 -0.1375
 8435SOL    HW137030  12.483  11.975   0.814  1.5176 -1.0169  0.2214
 8435SOL    HW237031  12.413  11.930   0.687 -1.8184  0.5160  1.3899
 8436SOL     OW37032   3.683  12.729   8.330  0.8241  0.3449  0.1100
 8436SOL    HW137033   3.689  12.817   8.292 -1.3717  0.2277 -0.6471
 8436SOL    HW237034   3.770  12.692   8.317  1.1280  1.5476 -1.7876
 8437SOL     OW37035   7.910  13.368   8.162 -0.1866 -0.4544  0.4688
 8437SOL    HW137036   7.971  13.308   8.204 -1.0434 -0.8820  1.1258
 8437SOL    HW237037   7.887  13.431   8.231  0.3382  0.3692 -0.0810
 8438SOL     OW37038  12.038   4.607   7.382  0.0744 -0.7698  0.4412
 8438SOL    HW137039  12.041   4.701   7.362  2.1320 -0.6160  1.2047
 8438SOL    HW237040  12.043   4.604   7.478  1.7880 -1.6491  0.3665
 8439SOL     OW37041   5.753   7.556   9.042 -0.7331  0.2984 -0.2781
 8439SOL    HW137042   5.761   7.484   8.980  0.0308 -0.3344  0.5354
 8439SOL    HW237043   5.691   7.616   9.001  1.4137  1.0277 -2.7555
 8440SOL     OW37044   4.414   5.402   0.474 -0.3958 -0.4288 -0.0791
 8440SOL    HW137045   4.491   5.345   0.479 -1.1467 -1.4444  0.2496
 8440SOL    HW237046   4.408   5.427   0.382  0.3959 -0.2303 -0.0819
 8441SOL     OW37047  12.156   9.761   8.783 -0.2715  0.8337 -0.3998
 8441SOL    HW137048  12.113   9.821   8.721 -1.2388  0.3381 -0.2246
 8441SOL    HW237049  12.157   9.677   8.737  3.0369  1.3602 -1.5571
 8442SOL     OW37050   1.288   8.123   8.320  0.0725 -0.6144  0.1771
 8442SOL    HW137051   1.358   8.092   8.378 -1.0940 -0.2068  1.8644
 8442SOL    HW237052   1.331   8.133   8.235  1.8845 -1.1059  0.9802
 8443SOL     OW37053  12.660   3.783  11.238  0.4751 -1.1115  0.0758
 8443SOL    HW137054  12.743   3.826  11.260  1.1718 -1.2777 -2.0105
 8443SOL    HW237055  12.613   3.848  11.186  0.4611 -1.9480 -0.9861
 8444SOL     OW37056   4.141  10.795  13.284 -0.5606 -0.5418 -0.4604
 8444SOL    HW137057   4.049  10.813  13.298 -0.6515 -1.4846  0.2614
 8444SOL    HW237058   4.188  10.864  13.331 -0.8930 -0.2523 -0.5541
 8445SOL     OW37059   0.018   9.585   7.494 -0.2515 -0.5112 -0.0340
 8445SOL    HW137060  -0.010   9.494   7.487  0.6230 -0.7217 -1.1457
 8445SOL    HW237061  -0.033   9.621   7.567 -0.7989 -1.8082  0.2450
 8446SOL     OW37062   3.902  13.560   0.249  0.2936  0.2217  0.1765
 8446SOL    HW137063   3.901  13.466   0.233  1.2611  0.4151 -1.2384
 8446SOL    HW237064   3.973  13.574   0.312  2.2066  0.2484 -1.8565
 8447SOL     OW37065   7.977   9.795   2.911 -0.7194 -0.4953  0.3794
 8447SOL    HW137066   7.896   9.845   2.918 -0.1927  0.3130  0.7999
 8447SOL    HW237067   8.034   9.832   2.978 -0.2521 -1.5485  0.5839
 8448SOL     OW37068   6.612   9.842   9.063 -0.4498  0.0903 -0.4560
 8448SOL    HW137069   6.595   9.932   9.035 -0.8824 -0.2543 -1.3447
 8448SOL    HW237070   6.676   9.850   9.134  0.5514  1.0205 -1.4283
 8449SOL     OW37071   6.772   3.966  12.850 -0.3505 -0.3819 -0.5568
 8449SOL    HW137072   6.820   3.944  12.930 -0.1675 -0.7358 -0.7594
 8449SOL    HW237073   6.763   4.061  12.853 -0.3025 -0.3884 -0.1392
 8450SOL     OW37074   9.515  13.240   9.622  0.0672 -0.2389 -0.3945
 8450SOL    HW137075   9.460  13.162   9.616  0.5151 -0.5985  0.1174
 8450SOL    HW237076   9.453  13.311   9.640 -0.2416 -0.6172  0.0473
 8451SOL     OW37077  10.023   8.788   0.547 -0.0957 -0.4719 -0.0697
 8451SOL    HW137078  10.059   8.853   0.487  2.1143 -0.0665  1.5518
 8451SOL    HW237079  10.068   8.707   0.524 -1.2481 -0.9726 -0.6655
 8452SOL     OW37080   7.547   3.259   9.871  0.0608  0.6009 -0.0106
 8452SOL    HW137081   7.581   3.238   9.958  1.0942 -0.0656 -0.5410
 8452SOL    HW237082   7.452   3.262   9.882  0.0961 -0.6714  0.8961
 8453SOL     OW37083   8.927   1.566   3.549  0.0113 -0.0530 -0.4576
 8453SOL    HW137084   8.929   1.480   3.592  0.6993 -0.9243 -2.1483
 8453SOL    HW237085   9.017   1.580   3.519  0.2258  1.8896  0.9075
 8454SOL     OW37086  13.124   0.549   0.665 -0.4709  0.0661  0.0857
 8454SOL    HW137087  13.119   0.645   0.665  1.9356  0.3044  2.3228
 8454SOL    HW237088  13.113   0.525   0.573 -0.6829  2.5084 -0.6141
 8455SOL     OW37089   0.035   4.108  11.433 -0.2088  0.9762  0.2964
 8455SOL    HW137090  -0.032   4.051  11.469  1.1506 -1.2866 -0.5798
 8455SOL    HW237091   0.012   4.117  11.340 -0.7783  2.4629  0.5517
 8456SOL     OW37092   1.912   0.825   5.318 -0.1447 -0.8194 -0.4479
 8456SOL    HW137093   1.844   0.766   5.284 -1.4912  0.7074 -0.5420
 8456SOL    HW237094   1.908   0.815   5.413 -0.1269 -1.1185 -0.4779
 8457SOL     OW37095  12.173   9.487   4.003 -0.4125  0.1116 -0.5341
 8457SOL    HW137096  12.147   9.508   4.093 -0.6148 -0.0166 -0.5612
 8457SOL    HW237097  12.208   9.568   3.968  2.6906 -0.5827  0.7024
 8458SOL     OW37098  10.312  12.334  12.977  0.3077  0.4962 -0.2184
 8458SOL    HW137099  10.357  12.309  13.058 -1.7003  0.4401  0.9436
 8458SOL    HW237100  10.358  12.413  12.948  2.1430 -0.4477  0.0185
 8459SOL     OW37101   6.928   7.769  13.550 -0.4870  0.0415  0.1656
 8459SOL    HW137102   6.909   7.859  13.524  1.4052  0.5756  0.4397
 8459SOL    HW237103   6.935   7.773  13.646  1.2192  0.0181  0.0860
 8460SOL     OW37104   4.834   1.126   4.815 -0.5312  0.1454  0.0678
 8460SOL    HW137105   4.881   1.044   4.808 -0.1733  0.3846 -0.3768
 8460SOL    HW237106   4.781   1.130   4.735 -0.3826  0.4475 -0.0163
 8461SOL     OW37107   1.674   3.341   5.669 -0.1478  0.4803 -0.3544
 8461SOL    HW137108   1.693   3.294   5.750  0.3257  2.4992  0.7710
 8461SOL    HW237109   1.579   3.350   5.668 -0.4790 -2.1896 -1.6480
 8462SOL     OW37110   8.923  12.264   0.737  0.1523 -0.5775 -0.0727
 8462SOL    HW137111   8.999  12.313   0.706  0.4338 -1.8265 -1.4781
 8462SOL    HW237112   8.902  12.303   0.822  1.3335  0.8776 -0.4092
 8463SOL     OW37113   9.476   1.433   9.658  0.4964  0.0913 -0.3082
 8463SOL    HW137114   9.428   1.369   9.710  0.1140 -0.1366 -0.9368
 8463SOL    HW237115   9.424   1.444   9.578  1.7583 -0.5898 -1.2582
 8464SOL     OW37116   8.976   3.715   7.337 -0.5264 -0.1900  0.2871
 8464SOL    HW137117   9.014   3.801   7.315  2.0315 -1.7788 -2.1550
 8464SOL    HW237118   8.904   3.704   7.275  1.4364 -1.1626 -2.0185
 8465SOL     OW37119   9.947   0.021   7.782  0.1258  0.1199  0.0336
 8465SOL    HW137120   9.940   0.088   7.850 -1.5874 -0.7043  0.7065
 8465SOL    HW237121   9.950  -0.062   7.829 -0.7718 -0.4521 -0.8703
 8466SOL     OW37122   8.754   8.139   0.608 -0.4024 -0.2607 -0.1486
 8466SOL    HW137123   8.750   8.152   0.513  2.8539  0.3363 -0.3040
 8466SOL    HW237124   8.762   8.228   0.643  2.3361 -0.6090  0.3055
 8467SOL     OW37125   7.865  12.317  11.403  0.3178  0.0879 -0.2628
 8467SOL    HW137126   7.822  12.267  11.471  0.7392  0.4694  0.2944
 8467SOL    HW237127   7.798  12.378  11.372 -0.1416 -0.6821 -0.8217
 8468SOL     OW37128  12.740   5.522  11.385 -0.3020  1.0509  0.5841
 8468SOL    HW137129  12.710   5.481  11.466  0.6103 -1.6792 -0.3325
 8468SOL    HW237130  12.692   5.475  11.316  2.8514 -0.6445 -0.6894
 8469SOL     OW37131   0.579   9.942   8.036  0.1183  0.2393  0.4756
 8469SOL    HW137132   0.623   9.860   8.012 -0.0931  0.1830  0.2718
 8469SOL    HW237133   0.624   9.971   8.116  0.1408 -0.1184  0.5946
 8470SOL     OW37134   1.911   7.160  10.898 -0.0217  0.0483  0.1175
 8470SOL    HW137135   1.917   7.091  10.964  0.4243  1.5979  1.7892
 8470SOL    HW237136   1.875   7.235  10.946  3.0200  2.1356 -0.5882
 8471SOL     OW37137  11.039   6.500   9.124 -0.2829 -0.0151  0.3253
 8471SOL    HW137138  11.004   6.575   9.076 -0.3892 -0.2945 -0.0431
 8471SOL    HW237139  10.962   6.446   9.145 -0.0985 -0.5905 -0.4183
 8472SOL     OW37140   2.713   7.494  11.518 -0.3873  0.4961 -0.5980
 8472SOL    HW137141   2.648   7.540  11.570  0.1062  0.0250  0.4900
 8472SOL    HW237142   2.793   7.498  11.571  0.6294  1.5435 -2.1441
 8473SOL     OW37143   4.710   7.968  10.644  0.4203 -0.4608 -0.4323
 8473SOL    HW137144   4.782   7.996  10.588 -0.1475  0.2409 -0.8168
 8473SOL    HW237145   4.671   7.895  10.597 -0.6296  0.7096 -1.4233
 8474SOL     OW37146   8.653  13.076   8.155  0.4461  0.1864  0.0766
 8474SOL    HW137147   8.724  13.104   8.097  0.6352  1.9107  1.0984
 8474SOL    HW237148   8.696  13.023   8.222  0.4519 -0.5029 -0.4651
 8475SOL     OW37149   9.871   3.178   6.799 -0.6270  0.6250 -0.0815
 8475SOL    HW137150   9.908   3.193   6.712  1.2737 -1.1913  0.3354
 8475SOL    HW237151   9.916   3.100   6.832 -3.2930 -0.4243  1.4349
 8476SOL     OW37152   5.811  13.608   0.314 -0.5631 -0.0841 -0.1483
 8476SOL    HW137153   5.821  13.661   0.393  2.4933 -2.1260  1.0535
 8476SOL    HW237154   5.880  13.639   0.256  0.0905 -1.4434 -0.1500
 8477SOL     OW37155   8.126   2.556   6.187 -0.1404  0.1670 -0.0262
 8477SOL    HW137156   8.136   2.522   6.276  1.3020  0.1383 -0.1777
 8477SOL    HW237157   8.215   2.561   6.153 -0.7192 -0.7809 -1.8290
 8478SOL     OW37158   7.870   6.394  13.738  0.3769 -0.4050  0.0008
 8478SOL    HW137159   7.946   6.343  13.767  0.9719 -0.3751 -1.3860
 8478SOL    HW237160   7.843   6.350  13.657 -0.5050  0.1538 -0.0155
 8479SOL     OW37161   3.910   2.536   6.643  0.7551  0.4231  0.2496
 8479SOL    HW137162   3.819   2.518   6.668  0.0780  2.0229 -0.8828
 8479SOL    HW237163   3.916   2.632   6.641  2.9049  0.3983  1.7133
 8480SOL     OW37164   4.492   4.523   9.201 -0.4379 -0.5924 -0.2157
 8480SOL    HW137165   4.529   4.545   9.115 -0.6062  1.5673  0.2098
 8480SOL    HW237166   4.568   4.513   9.258 -0.3618  1.5109  0.1302
 8481SOL     OW37167   0.555   6.927  10.502 -0.5848 -0.2290  0.4313
 8481SOL    HW137168   0.504   7.008  10.490  0.8243  0.7895  1.0869
 8481SOL    HW237169   0.501   6.874  10.560 -0.4943  1.2491  1.9257
 8482SOL     OW37170  12.708   4.376   5.260  0.0349 -0.6294 -0.4053
 8482SOL    HW137171  12.675   4.452   5.307  0.4693 -1.3099  1.0632
 8482SOL    HW237172  12.642   4.308   5.274 -0.3178 -0.5670 -1.6492
 8483SOL     OW37173  11.154   9.307   3.431 -0.5046 -0.0000  0.5049
 8483SOL    HW137174  11.164   9.306   3.336 -1.0397 -0.8088  0.4529
 8483SOL    HW237175  11.234   9.349   3.463 -1.0950  1.8865 -0.3874
 8484SOL     OW37176   7.081   3.347  13.049  0.2563  0.0404  0.1459
 8484SOL    HW137177   7.033   3.265  13.055  1.3751 -0.7770 -1.4656
 8484SOL    HW237178   7.015   3.415  13.064 -0.9839 -1.1003 -0.0366
 8485SOL     OW37179  10.010   9.890   2.244  0.0284 -0.0426 -0.4663
 8485SOL    HW137180   9.980   9.923   2.160  0.4949 -0.7930 -0.9361
 8485SOL    HW237181  10.012   9.795   2.234 -0.6331 -0.2026  0.6384
 8486SOL     OW37182   1.417   1.071  10.814 -0.4025  0.2516 -0.0496
 8486SOL    HW137183   1.499   1.086  10.768  0.7446  0.5685  1.9743
 8486SOL    HW237184   1.351   1.115  10.761  0.8763  0.8466 -1.2052
 8487SOL     OW37185   6.543   6.453   6.332 -0.2773  0.0861  0.9897
 8487SOL    HW137186   6.586   6.479   6.414 -0.0949 -0.2558  1.0026
 8487SOL    HW237187   6.615   6.436   6.271 -0.4192  0.9118  0.5724
 8488SOL     OW37188   2.363   1.443   9.428  0.6714  0.2163  0.3272
 8488SOL    HW137189   2.377   1.376   9.361  0.6302  1.0212 -0.5073
 8488SOL    HW237190   2.346   1.524   9.379 -1.8720  0.3536  1.2602
 8489SOL     OW37191   2.748   1.783  11.147  0.1163  0.0765  0.2295
 8489SOL    HW137192   2.734   1.856  11.087  1.7773  0.4046  0.2084
 8489SOL    HW237193   2.783   1.823  11.226  0.3868 -0.6268  0.4710
 8490SOL     OW37194   5.663   0.105   7.320  0.1824 -0.7812 -0.1161
 8490SOL    HW137195   5.739   0.050   7.300 -0.3964 -1.7139  0.1997
 8490SOL    HW237196   5.656   0.164   7.245  0.5968 -1.3693 -0.6266
 8491SOL     OW37197   2.767  11.216  10.111 -0.0995  0.0897  0.0131
 8491SOL    HW137198   2.729  11.289  10.160 -2.2817 -0.8735 -0.1535
 8491SOL    HW237199   2.858  11.212  10.142  0.0953  2.7914  0.0877
 8492SOL     OW37200   4.174   1.006   4.444  0.5474  0.0440  0.1126
 8492SOL    HW137201   4.125   1.073   4.492  1.5813  1.3780 -0.6256
 8492SOL    HW237202   4.245   1.054   4.402  1.0035 -1.4452 -0.8947
 8493SOL     OW37203  12.934   6.555   2.823 -0.0653  0.2276  0.3451
 8493SOL    HW137204  12.928   6.528   2.915 -1.4116  3.7557  1.4742
 8493SOL    HW237205  13.013   6.609   2.820 -0.3834  0.6528 -0.4215
 8494SOL     OW37206   4.796   0.109  11.899  0.7402 -0.5144  0.4425
 8494SOL    HW137207   4.780   0.027  11.853  0.2685 -0.9205  1.3179
 8494SOL    HW237208   4.854   0.086  11.971  0.3182 -0.1564  0.9064
 8495SOL     OW37209   1.434   0.506  13.287 -0.1844  0.2202  0.0524
 8495SOL    HW137210   1.419   0.453  13.209 -0.4461 -0.9500  0.8696
 8495SOL    HW237211   1.504   0.566  13.262  1.1966 -1.5274 -0.4552
 8496SOL     OW37212   9.626   7.847   8.950 -0.5516 -0.0159  0.2419
 8496SOL    HW137213   9.532   7.847   8.937 -0.8141  0.3166  1.9220
 8496SOL    HW237214   9.640   7.902   9.027  1.1883  1.4987 -1.0556
 8497SOL     OW37215   5.165  12.003  11.361  0.1048 -0.7439  0.3896
 8497SOL    HW137216   5.088  11.953  11.389 -0.4822  0.5002  1.0354
 8497SOL    HW237217   5.211  12.023  11.442 -0.4895  1.0794  0.3105
 8498SOL     OW37218   4.454   1.196   6.971  0.0451  0.1523  0.0512
 8498SOL    HW137219   4.395   1.267   6.948 -0.7518 -0.3558  0.4637
 8498SOL    HW237220   4.405   1.144   7.036  0.6273 -0.7266 -0.1901
 8499SOL     OW37221   0.759  12.250   3.573 -0.4290 -0.0290  0.1071
 8499SOL    HW137222   0.746  12.157   3.558 -0.3430  0.1353 -1.0942
 8499SOL    HW237223   0.673  12.281   3.603 -0.9008 -0.2371 -0.9587
 8500SOL     OW37224   1.250   9.064  10.394 -0.2145  0.1527 -0.1441
 8500SOL    HW137225   1.204   9.081  10.312 -2.5840 -0.6155  0.9365
 8500SOL    HW237226   1.315   9.135  10.401 -1.5337  1.5686 -1.5592
 8501SOL     OW37227   9.758   1.547   5.887  0.5865  0.0518  0.0226
 8501SOL    HW137228   9.697   1.474   5.874  0.3196  0.6427 -2.7376
 8501SOL    HW237229   9.843   1.505   5.901  0.2880 -0.8073 -0.6677
 8502SOL     OW37230  12.477   9.783   2.261 -0.5252 -0.2734 -0.4040
 8502SOL    HW137231  12.548   9.839   2.289 -1.0869 -0.4664  1.5567
 8502SOL    HW237232  12.515   9.729   2.192  1.4730 -0.9093  1.1013
 8503SOL     OW37233  13.170   0.602   5.444 -0.0622  0.5087 -0.3772
 8503SOL    HW137234  13.097   0.541   5.431 -0.1134  0.8747 -2.0099
 8503SOL    HW237235  13.128   0.684   5.470  0.0454 -0.2420  2.5589
 8504SOL     OW37236   3.447   9.863   5.536  0.2786 -0.3482 -0.0575
 8504SOL    HW137237   3.358   9.845   5.567 -0.1449 -1.6243 -1.8513
 8504SOL    HW237238   3.504   9.826   5.603 -0.5896 -3.0181 -0.6564
 8505SOL     OW37239   2.975  12.827   9.823  0.2997  0.4807  0.3178
 8505SOL    HW137240   2.997  12.735   9.811  0.0216  0.6670 -2.4733
 8505SOL    HW237241   3.018  12.852   9.905  1.0908 -1.9024  0.7034
 8506SOL     OW37242   6.318   2.371  10.522 -0.2643 -0.4265  0.0896
 8506SOL    HW137243   6.226   2.345  10.516 -1.1413  1.5066  2.9910
 8506SOL    HW237244   6.316   2.467  10.526  1.8320 -0.3525  0.5469
 8507SOL     OW37245   5.345   0.328   3.111 -0.1773 -0.2414 -0.3559
 8507SOL    HW137246   5.334   0.420   3.084 -1.3874 -0.0631  0.6455
 8507SOL    HW237247   5.276   0.281   3.063 -3.4168  0.3108  3.2332
 8508SOL     OW37248  11.747   0.393   7.124  0.8086 -0.0625  0.7815
 8508SOL    HW137249  11.741   0.388   7.029 -0.7409  0.9147  0.7877
 8508SOL    HW237250  11.827   0.444   7.141  1.1247 -0.2931  0.0174
 8509SOL     OW37251   2.595  12.893   4.653  0.0538 -0.1230 -0.5912
 8509SOL    HW137252   2.583  12.914   4.745  0.9001 -0.5339 -0.3773
 8509SOL    HW237253   2.578  12.799   4.647 -1.5574  0.1756 -1.1472
 8510SOL     OW37254  12.675   6.139   3.864 -0.7057 -0.4908  0.3490
 8510SOL    HW137255  12.591   6.093   3.870  0.6566 -3.0691  1.0437
 8510SOL    HW237256  12.679   6.169   3.773 -3.0604  1.2105  0.7201
 8511SOL     OW37257   4.589   8.412   1.970 -0.1748  0.1322 -0.4064
 8511SOL    HW137258   4.585   8.440   2.062 -1.8987  1.2469 -0.7587
 8511SOL    HW237259   4.636   8.483   1.926  2.0186 -1.1284 -0.1852
 8512SOL     OW37260   9.761   8.649   7.185  0.7658 -0.2976  0.3836
 8512SOL    HW137261   9.814   8.571   7.198  1.6958  0.3274  0.4619
 8512SOL    HW237262   9.740   8.679   7.273 -1.2148 -1.4937  0.3758
 8513SOL     OW37263  11.381  13.227   6.893 -0.7139  0.0161 -0.1534
 8513SOL    HW137264  11.357  13.137   6.913 -1.6871  0.4083  0.5025
 8513SOL    HW237265  11.459  13.220   6.837 -0.3771 -1.2004  0.4530
 8514SOL     OW37266   4.775  13.510  11.324 -0.0504 -0.5857 -0.1543
 8514SOL    HW137267   4.723  13.580  11.363  0.2302 -1.2370  1.4650
 8514SOL    HW237268   4.710  13.447  11.292 -0.2876 -0.6937  0.5246
 8515SOL     OW37269   7.761   0.674   1.251  0.0403  0.6963 -0.4156
 8515SOL    HW137270   7.799   0.761   1.266  0.5758  0.4031 -0.0435
 8515SOL    HW237271   7.803   0.643   1.171 -0.9110  1.1929 -1.1312
 8516SOL     OW37272   2.959   2.826   5.990  0.1085 -0.5301 -0.3915
 8516SOL    HW137273   3.042   2.778   5.984  0.9910  1.0149 -1.1354
 8516SOL    HW237274   2.984   2.912   6.025 -0.9045  0.5932 -2.2958
 8517SOL     OW37275   2.040  12.608   8.084  0.3531 -0.0715  0.2101
 8517SOL    HW137276   2.043  12.594   7.989  0.4015 -1.1952  0.3619
 8517SOL    HW237277   2.132  12.619   8.109  0.4279 -0.7695  0.2566
 8518SOL     OW37278   7.414   0.480   3.687  0.5620  0.1854  0.6794
 8518SOL    HW137279   7.434   0.395   3.648  1.7658  1.3984 -1.5190
 8518SOL    HW237280   7.335   0.509   3.642  0.3404  0.4066  1.1964
 8519SOL     OW37281  10.514   3.200   3.075  0.5071  0.4043  0.2640
 8519SOL    HW137282  10.598   3.169   3.108  0.8249  0.9233 -0.0333
 8519SOL    HW237283  10.536   3.249   2.995 -0.2829 -1.1787 -0.9751
 8520SOL     OW37284   1.418   2.753   7.623 -0.2657  0.6333  0.5819
 8520SOL    HW137285   1.501   2.793   7.650 -0.2159  0.0004  1.4151
 8520SOL    HW237286   1.444   2.669   7.585 -0.4890  0.7035  0.2677
 8521SOL     OW37287   4.350   8.194  12.476  0.0809 -0.3715 -0.1259
 8521SOL    HW137288   4.416   8.240  12.424  0.0476  0.4950  0.5819
 8521SOL    HW237289   4.318   8.125  12.417  0.1619  0.4754 -1.1959
 8522SOL     OW37290  12.563  12.854   4.712 -0.0133  0.4759 -0.3799
 8522SOL    HW137291  12.614  12.933   4.731 -0.8764  0.9812 -0.1059
 8522SOL    HW237292  12.549  12.857   4.617  1.5907 -0.3781 -0.6807
 8523SOL     OW37293   0.944   9.123   8.353 -0.0397 -0.1022 -0.1840
 8523SOL    HW137294   0.906   9.207   8.379 -1.1995 -0.6213 -0.1011
 8523SOL    HW237295   0.894   9.058   8.403  0.6049 -0.8547 -0.5015
 8524SOL     OW37296   5.422   9.269   3.580 -0.1530  0.8531  0.0665
 8524SOL    HW137297   5.443   9.273   3.487  0.9783 -0.5945  0.2289
 8524SOL    HW237298   5.488   9.211   3.618  0.9371  3.3175  2.2508
 8525SOL     OW37299   8.788   7.556   6.090 -0.4289 -0.1145  0.1684
 8525SOL    HW137300   8.779   7.538   6.183 -4.4454  0.6088  0.1178
 8525SOL    HW237301   8.861   7.618   6.084 -0.5004  0.3321  2.9038
 8526SOL     OW37302   1.286   0.728   4.323  0.1699  0.5072 -0.3638
 8526SOL    HW137303   1.226   0.777   4.380 -0.2627  1.8720 -1.9371
 8526SOL    HW237304   1.371   0.735   4.367 -0.7736 -1.8736  2.1637
 8527SOL     OW37305   5.641   3.376   3.654  0.0416  0.1158  0.5878
 8527SOL    HW137306   5.715   3.317   3.649 -1.3798 -1.7228  0.1881
 8527SOL    HW237307   5.580   3.335   3.716 -0.4444  1.8461  1.3457
 8528SOL     OW37308   3.770   3.897   9.136  0.8609  0.4299 -0.1172
 8528SOL    HW137309   3.802   3.976   9.181 -0.8133  1.6226 -0.9288
 8528SOL    HW237310   3.848   3.861   9.093  2.1239  0.3229  2.0791
 8529SOL     OW37311   9.291  11.018  13.539  0.2454  0.4765  0.1877
 8529SOL    HW137312   9.380  11.040  13.514  0.8452 -1.7589  0.1377
 8529SOL    HW237313   9.300  10.965  13.618 -1.0901  0.7395  0.5448
 8530SOL     OW37314   6.379   7.868   7.972 -0.1297 -0.0150  0.1830
 8530SOL    HW137315   6.288   7.855   7.998 -0.5372  0.8549 -0.7793
 8530SOL    HW237316   6.421   7.785   7.994 -1.6086 -1.2196 -1.2619
 8531SOL     OW37317  11.864   7.311   6.541  0.2745 -0.2329 -0.4555
 8531SOL    HW137318  11.893   7.367   6.612  2.7652 -2.0718  0.1061
 8531SOL    HW237319  11.789   7.357   6.503  0.8447  2.3436  1.3034
 8532SOL     OW37320   6.240   1.444   2.390 -0.0632 -0.2752  0.4946
 8532SOL    HW137321   6.294   1.373   2.427  0.8830  0.3228  0.2908
 8532SOL    HW237322   6.174   1.398   2.338  1.2266 -1.0093 -0.5806
 8533SOL     OW37323   5.600   8.655  10.173 -0.5809 -0.5715 -0.1514
 8533SOL    HW137324   5.690   8.653  10.206 -0.3211  1.7589 -0.5023
 8533SOL    HW237325   5.601   8.724  10.106 -2.1388 -2.0240 -1.7907
 8534SOL     OW37326   8.000  11.806   1.948 -0.4045  0.0045  0.2174
 8534SOL    HW137327   8.041  11.822   2.033 -1.0138  3.3446  0.0478
 8534SOL    HW237328   7.906  11.816   1.965 -0.8443 -2.7136 -0.2838
 8535SOL     OW37329   1.516  11.478   6.748 -0.0335  0.0460  1.0037
 8535SOL    HW137330   1.426  11.446   6.740 -0.2673  0.6358  1.2002
 8535SOL    HW237331   1.571  11.404   6.723 -0.5924  0.6588 -2.6350
 8536SOL     OW37332  13.172   9.826   3.988 -0.0651 -0.3616  0.4892
 8536SOL    HW137333  13.080   9.820   4.014  0.4746  2.7687  3.8210
 8536SOL    HW237334  13.170   9.873   3.904 -1.5038  1.1060  1.2823
 8537SOL     OW37335  10.961   4.550  13.654 -0.3763 -0.0996 -0.5774
 8537SOL    HW137336  11.004   4.581  13.734  0.4344  0.7410 -1.3228
 8537SOL    HW237337  10.868   4.566  13.670 -0.3029 -0.6334  0.4912
 8538SOL     OW37338   0.738   2.578   4.853  0.0870 -0.2071  0.5009
 8538SOL    HW137339   0.784   2.516   4.797 -1.5861  0.7572 -2.1153
 8538SOL    HW237340   0.806   2.641   4.879  1.0357 -1.0503  0.1409
 8539SOL     OW37341   9.158   2.991  10.513  0.5748  0.0575 -0.8536
 8539SOL    HW137342   9.242   2.950  10.496  0.0079 -1.9202  0.6771
 8539SOL    HW237343   9.103   2.965  10.439 -0.3950 -4.0559  1.0092
 8540SOL     OW37344   9.065   3.742   6.457  0.1891 -0.6994  0.1460
 8540SOL    HW137345   9.052   3.784   6.542  1.7421  1.1633 -0.4594
 8540SOL    HW237346   8.981   3.700   6.438 -0.5998 -0.0651  1.9951
 8541SOL     OW37347   4.589   0.409  10.762 -0.2846  0.1980  0.1699
 8541SOL    HW137348   4.660   0.473  10.764  0.4791 -0.6509  0.5520
 8541SOL    HW237349   4.545   0.425  10.678  3.0828 -2.1743 -2.3199
 8542SOL     OW37350  13.083   4.354   6.238  0.2763 -0.2072  0.0603
 8542SOL    HW137351  13.155   4.407   6.204  1.3233 -0.6603  1.4608
 8542SOL    HW237352  13.038   4.322   6.160  2.2481 -0.7987 -0.9118
 8543SOL     OW37353   3.178   7.960   6.464  0.7769  0.2840  0.6485
 8543SOL    HW137354   3.147   8.040   6.507  0.2182  0.6864 -0.4668
 8543SOL    HW237355   3.106   7.898   6.474  1.0956 -0.0019  1.2558
 8544SOL     OW37356   7.362   3.458   4.048  0.6924  0.1973 -0.0130
 8544SOL    HW137357   7.325   3.412   3.972  2.0530  1.6395 -1.6452
 8544SOL    HW237358   7.307   3.536   4.057  1.8937  1.2010 -1.0280
 8545SOL     OW37359  10.590  11.876   1.163 -0.0981  0.1172 -0.4558
 8545SOL    HW137360  10.535  11.847   1.091  0.0533 -1.1030 -0.1104
 8545SOL    HW237361  10.532  11.927   1.219 -0.5134  0.0461 -0.8166
 8546SOL     OW37362   1.730  13.381   9.257  0.3260 -0.2440 -0.5923
 8546SOL    HW137363   1.692  13.307   9.208 -1.5624  0.8271 -0.8446
 8546SOL    HW237364   1.656  13.440   9.273  1.4177  0.7346  1.2315
 8547SOL     OW37365   0.968  10.635   8.095 -0.3713  0.5164 -0.0327
 8547SOL    HW137366   0.959  10.728   8.075 -0.7976  0.1394 -1.8522
 8547SOL    HW237367   1.052  10.628   8.140  0.0310  1.6985 -0.5578
 8548SOL     OW37368   9.213   1.464  13.710 -0.1176  0.1719 -0.2620
 8548SOL    HW137369   9.150   1.523  13.752  0.2001 -1.2220  2.3973
 8548SOL    HW237370   9.169   1.379  13.710 -0.9918  0.3382 -4.9502
 8549SOL     OW37371   0.503   3.879   2.439 -0.1418 -0.3851 -0.0424
 8549SOL    HW137372   0.460   3.943   2.383  1.4292  0.6040 -0.1953
 8549SOL    HW237373   0.509   3.923   2.524 -0.9657 -1.1923  0.4437
 8550SOL     OW37374   8.864   3.178  13.655  0.8616  0.0359 -0.1624
 8550SOL    HW137375   8.810   3.117  13.606  1.1611 -0.3855  0.0275
 8550SOL    HW237376   8.855   3.151  13.746  0.2085  0.8940  0.0414
 8551SOL     OW37377   0.560   5.829   0.861 -0.4999  0.5389 -0.3223
 8551SOL    HW137378   0.485   5.832   0.801  0.0735  1.3816 -1.0281
 8551SOL    HW237379   0.556   5.741   0.900 -0.1965 -0.5422 -2.5322
 8552SOL     OW37380   2.814   6.016   5.061 -0.4937  0.1909 -0.2517
 8552SOL    HW137381   2.730   5.986   5.097 -0.6622  1.0418  0.0814
 8552SOL    HW237382   2.876   6.008   5.134 -0.1308 -1.0255 -0.6708
 8553SOL     OW37383  13.113   0.762   2.701  0.2535 -0.0448  0.5698
 8553SOL    HW137384  13.037   0.780   2.757  0.5450 -0.5170  1.1341
 8553SOL    HW237385  13.142   0.848   2.672  0.0067  0.1990  1.0337
 8554SOL     OW37386   8.671  13.249  10.722  0.0168 -0.0901  0.0341
 8554SOL    HW137387   8.691  13.341  10.710 -1.6825  0.2269 -0.4667
 8554SOL    HW237388   8.681  13.210  10.635 -1.2747  0.0323 -0.1808
 8555SOL     OW37389   8.865   2.465   4.578  0.2849 -0.7218  0.5111
 8555SOL    HW137390   8.845   2.509   4.661 -3.5362  1.3845 -1.2384
 8555SOL    HW237391   8.823   2.379   4.586 -0.7790 -0.2220  0.5696
 8556SOL     OW37392  12.968  12.654  10.131  0.0205  0.8701  0.6615
 8556SOL    HW137393  12.937  12.572  10.168 -1.6049  1.8759  1.6339
 8556SOL    HW237394  12.988  12.633  10.040 -3.1464  0.0118  0.0593
 8557SOL     OW37395   7.558  13.495   1.168  0.4687 -0.1367 -0.2488
 8557SOL    HW137396   7.547  13.445   1.087  0.1182 -0.1988 -0.1630
 8557SOL    HW237397   7.612  13.439   1.224  0.1148 -0.3968 -0.1696
 8558SOL     OW37398   0.406  10.552  10.645 -0.5408  0.1962  0.1166
 8558SOL    HW137399   0.495  10.519  10.630  0.5635  1.9595  2.2347
 8558SOL    HW237400   0.385  10.527  10.735 -1.9740  0.3031 -0.1555
 8559SOL     OW37401   3.745  13.215  10.011  0.4004  0.0070  0.1766
 8559SOL    HW137402   3.804  13.262  10.071  0.5471  0.9770 -0.6965
 8559SOL    HW237403   3.717  13.281   9.948 -1.8034 -0.3821  0.6602
 8560SOL     OW37404   1.618   9.382   9.469 -0.4715  0.5355 -0.4236
 8560SOL    HW137405   1.581   9.362   9.555  1.9796  1.3071  0.8900
 8560SOL    HW237406   1.657   9.300   9.439  0.0235  0.6410 -0.0755
 8561SOL     OW37407   3.812  10.998   5.364  0.5230 -0.3915  0.5680
 8561SOL    HW137408   3.730  11.003   5.412 -0.8712 -1.3450 -1.5317
 8561SOL    HW237409   3.850  10.914   5.390  1.2780  0.3833  2.1110
 8562SOL     OW37410   0.447  11.982   1.689  0.5185 -0.1613 -0.0177
 8562SOL    HW137411   0.402  12.065   1.672 -1.2221 -1.1537 -0.4854
 8562SOL    HW237412   0.470  11.987   1.782  1.4026  1.2654 -0.2819
 8563SOL     OW37413  13.306  13.271   2.956 -0.6552  0.7520  0.6153
 8563SOL    HW137414  13.385  13.256   3.008 -0.2762  1.5533  0.2965
 8563SOL    HW237415  13.248  13.198   2.978  0.7806 -0.7462 -0.3505
 8564SOL     OW37416   1.669  10.467  10.244 -0.8148 -0.6501 -0.7188
 8564SOL    HW137417   1.685  10.521  10.321 -1.1501 -0.8944 -0.4750
 8564SOL    HW237418   1.599  10.513  10.197 -2.7896 -2.0103  0.6750
 8565SOL     OW37419   7.335   9.630  10.702 -0.0090  0.3363  0.5848
 8565SOL    HW137420   7.305   9.713  10.739 -0.8675  0.7477 -0.9405
 8565SOL    HW237421   7.421   9.650  10.664  0.0510  0.3686  0.7355
 8566SOL     OW37422  10.819  12.025   0.570 -0.1514 -0.2635  0.3262
 8566SOL    HW137423  10.853  12.102   0.524 -0.6783 -0.3980 -0.2969
 8566SOL    HW237424  10.741  12.057   0.615  1.0210  0.1672  2.1643
 8567SOL     OW37425   2.662   2.128   0.066  0.4789  0.0814 -0.1078
 8567SOL    HW137426   2.746   2.160   0.099  1.6640 -1.6900 -1.1972
 8567SOL    HW237427   2.685   2.054   0.009 -1.9477 -2.1355  1.5164
 8568SOL     OW37428   4.545  12.714   9.380 -0.0579  0.1994  0.2481
 8568SOL    HW137429   4.472  12.710   9.319  0.2869 -0.5807 -0.1278
 8568SOL    HW237430   4.512  12.675   9.461 -0.2514  0.4410  0.2859
 8569SOL     OW37431   5.590   0.680   6.404  0.1239  0.2182 -0.1930
 8569SOL    HW137432   5.507   0.724   6.419  0.1250 -0.2521  1.4424
 8569SOL    HW237433   5.575   0.590   6.434  0.2347 -0.8650 -3.0940
 8570SOL     OW37434  12.350  12.265  12.453 -0.6375  0.9059 -0.5530
 8570SOL    HW137435  12.433  12.226  12.481 -1.0108 -0.3736 -1.1704
 8570SOL    HW237436  12.341  12.343  12.508  2.0561  2.3876 -1.9557
 8571SOL     OW37437   5.567   8.017   7.971  0.1143 -0.7084 -0.1853
 8571SOL    HW137438   5.539   7.935   7.932  0.2709 -1.5977  1.4650
 8571SOL    HW237439   5.509   8.028   8.047 -2.0888  2.3659 -2.0837
 8572SOL     OW37440  12.284   6.081   7.702  0.1085 -0.2330 -0.0202
 8572SOL    HW137441  12.301   5.990   7.724 -0.9270 -0.6294 -0.7779
 8572SOL    HW237442  12.250   6.120   7.783  2.2588 -0.0021  0.8544
 8573SOL     OW37443   6.545   4.367   9.635 -0.6101 -0.2312  1.1140
 8573SOL    HW137444   6.482   4.395   9.701  1.2085  1.5155  2.2067
 8573SOL    HW237445   6.630   4.378   9.676  0.5545 -0.3365 -1.0916
 8574SOL     OW37446   3.502  10.347  11.384 -0.3666 -0.1431  0.0292
 8574SOL    HW137447   3.461  10.379  11.304  0.3915  2.2838  0.5471
 8574SOL    HW237448   3.531  10.426  11.430  1.1873 -1.5660  1.6502
 8575SOL     OW37449   5.224   1.552   8.467  0.2112  0.5944  0.5604
 8575SOL    HW137450   5.169   1.495   8.414 -0.5453 -1.3238  3.2055
 8575SOL    HW237451   5.213   1.639   8.428 -3.2351 -0.0180 -0.1748
 8576SOL     OW37452   5.803   3.316   7.595 -0.2401  0.3643 -0.1780
 8576SOL    HW137453   5.818   3.355   7.509 -0.7234 -0.1275 -0.4973
 8576SOL    HW237454   5.733   3.253   7.580 -0.5486  0.5012  0.6487
 8577SOL     OW37455  10.534  11.217   8.969 -0.0919  0.0084 -0.6304
 8577SOL    HW137456  10.581  11.145   8.928  0.1688  0.1400 -0.5654
 8577SOL    HW237457  10.442  11.204   8.942  0.1690  0.4646 -1.8282
 8578SOL     OW37458  12.717   2.429   8.466 -0.6623 -0.0680  0.3662
 8578SOL    HW137459  12.657   2.502   8.453  0.4557  0.6544 -1.1059
 8578SOL    HW237460  12.783   2.462   8.527 -0.7839 -0.2334  0.5862
 8579SOL     OW37461   1.642  10.201  13.023  0.2970 -0.3717 -0.8469
 8579SOL    HW137462   1.737  10.213  13.019  0.4725 -1.1005  0.5904
 8579SOL    HW237463   1.608  10.252  12.949  1.6398  1.5793 -0.1987
 8580SOL     OW37464   8.688   6.653   0.775 -0.1271  0.4071 -0.1895
 8580SOL    HW137465   8.727   6.712   0.710  0.3708  0.1570 -0.1247
 8580SOL    HW237466   8.662   6.710   0.847 -1.7615  0.8526 -1.0773
 8581SOL     OW37467  10.338   7.145   2.290 -0.4977  0.0673  0.0050
 8581SOL    HW137468  10.405   7.076   2.296 -0.5381 -0.0436 -0.7614
 8581SOL    HW237469  10.380   7.222   2.329  0.6964  0.4453 -1.9031
 8582SOL     OW37470   1.042   4.792   8.805  0.0595  0.2115  0.6935
 8582SOL    HW137471   1.136   4.805   8.793 -0.0543  0.2905 -0.2091
 8582SOL    HW237472   1.031   4.697   8.807  0.1956  0.2032  1.1657
 8583SOL     OW37473  13.688   8.277  12.859  0.2485  0.0891  0.6060
 8583SOL    HW137474  13.727   8.341  12.799 -0.9996 -0.2606 -0.6511
 8583SOL    HW237475  13.754   8.209  12.868  0.8305  0.6130  0.3939
 8584SOL     OW37476  13.061   3.658   2.006 -0.3092  0.5303 -0.0277
 8584SOL    HW137477  12.976   3.623   2.034 -0.6017  1.4766  0.2738
 8584SOL    HW237478  13.053   3.752   2.015  0.7241  0.6426 -0.1746
 8585SOL     OW37479   8.903  12.318   9.416 -0.5256 -0.0231 -0.3590
 8585SOL    HW137480   8.844  12.393   9.413 -0.6272 -0.1091 -0.5885
 8585SOL    HW237481   8.854  12.247   9.372 -1.1742 -0.7660  1.4634
 8586SOL     OW37482  10.884  12.388   6.026  0.0021  0.0157  0.2925
 8586SOL    HW137483  10.868  12.414   6.117 -1.3568  0.3743 -0.0186
 8586SOL    HW237484  10.817  12.434   5.976  1.2051  0.4182 -1.0066
 8587SOL     OW37485   4.459   0.933  10.325  0.5796  0.1107 -0.0038
 8587SOL    HW137486   4.511   0.959  10.249 -1.6679  3.2700 -0.6813
 8587SOL    HW237487   4.485   0.994  10.394 -1.3474  1.0713 -0.0489
 8588SOL     OW37488   3.924   3.388  10.920  0.5124  0.2278 -0.3317
 8588SOL    HW137489   3.974   3.307  10.909  0.5947  0.3149 -0.5920
 8588SOL    HW237490   3.990   3.457  10.914  0.1605  0.4420 -2.2865
 8589SOL     OW37491  11.096   0.458   7.751 -0.2829 -0.5238 -0.2444
 8589SOL    HW137492  11.069   0.366   7.752 -0.5708 -0.4391  0.1243
 8589SOL    HW237493  11.190   0.456   7.767 -0.4944 -0.6910  1.0535
 8590SOL     OW37494   0.100  10.374  11.846  0.0500 -0.6311  0.7865
 8590SOL    HW137495   0.129  10.462  11.868 -0.6658 -0.1478 -0.1398
 8590SOL    HW237496   0.008  10.371  11.874 -0.0580 -0.9357  0.4123
 8591SOL     OW37497   8.849   2.662  11.777 -0.0516  0.0001  0.5685
 8591SOL    HW137498   8.832   2.593  11.842  0.2437  0.2134  0.8743
 8591SOL    HW237499   8.931   2.635  11.735  0.9778  1.0024  1.8383
 8592SOL     OW37500  13.504   1.507   8.120 -0.2210  0.0872 -0.0968
 8592SOL    HW137501  13.514   1.534   8.212  2.2235 -1.6632  0.2357
 8592SOL    HW237502  13.564   1.564   8.072  1.2747 -1.3661 -0.0434
 8593SOL     OW37503   2.757   8.440  11.066  0.1389 -0.4988 -0.0019
 8593SOL    HW137504   2.774   8.470  11.156 -0.5413  0.7589 -0.2669
 8593SOL    HW237505   2.841   8.447  11.022  0.0680  0.7983  0.0282
 8594SOL     OW37506  11.558   3.275  10.490 -0.2833  0.2884 -0.1713
 8594SOL    HW137507  11.646   3.256  10.459  0.1021  0.0713  0.9748
 8594SOL    HW237508  11.557   3.370  10.502 -0.3102  0.3281 -0.4885
 8595SOL     OW37509   5.474   2.832   5.687  0.1713  0.1708  0.1181
 8595SOL    HW137510   5.476   2.795   5.775 -1.8844  0.6198  0.4034
 8595SOL    HW237511   5.476   2.756   5.629  0.7491 -0.1608  0.5555
 8596SOL     OW37512   1.406   1.953   0.162 -0.0095 -0.0241 -0.1361
 8596SOL    HW137513   1.371   1.880   0.214  0.7943  0.1516  0.6691
 8596SOL    HW237514   1.427   2.020   0.226 -0.8988  1.0052 -0.8924
 8597SOL     OW37515  13.570  13.388   8.741 -0.1580 -0.1820  0.4357
 8597SOL    HW137516  13.474  13.399   8.743 -0.0788  0.4901  1.1568
 8597SOL    HW237517  13.604  13.477   8.732  0.4107 -0.3414  0.9558
 8598SOL     OW37518  13.610   5.254  11.228  0.4830 -0.5404 -0.0601
 8598SOL    HW137519  13.660   5.279  11.306 -0.1272 -0.3126  0.2624
 8598SOL    HW237520  13.519   5.271  11.252  0.4118  1.3347 -1.4795
 8599SOL     OW37521   9.911   5.219   3.485  0.2919 -0.3987  0.7995
 8599SOL    HW137522   9.970   5.294   3.487  1.8248 -1.5292 -0.1620
 8599SOL    HW237523   9.925   5.175   3.569  0.1452 -0.1660  0.9452
 8600SOL     OW37524  12.147  10.368   4.051 -0.4462  0.5606  0.1223
 8600SOL    HW137525  12.152  10.461   4.031 -0.4395  0.3476 -0.9341
 8600SOL    HW237526  12.099  10.330   3.977  1.8170 -0.6526 -0.8389
 8601SOL     OW37527   3.888  11.965   8.501 -0.3245  0.1580  0.1356
 8601SOL    HW137528   3.974  11.936   8.473 -0.8353  0.3374 -1.7658
 8601SOL    HW237529   3.900  11.994   8.592  1.5871  0.1467 -0.0806
 8602SOL     OW37530  10.823   0.908   5.504 -0.6848  0.1627 -0.4147
 8602SOL    HW137531  10.873   0.848   5.559  0.7107  0.5678 -1.1919
 8602SOL    HW237532  10.739   0.865   5.491 -0.2794 -0.8883  0.3368
 8603SOL     OW37533   6.244   8.781   7.675 -0.3198  0.0737 -0.1418
 8603SOL    HW137534   6.322   8.829   7.701  0.7940 -1.9982  0.5337
 8603SOL    HW237535   6.171   8.838   7.699  0.9396  2.0989 -0.8796
 8604SOL     OW37536  12.020   0.492   9.882  0.4420  0.4944 -0.6430
 8604SOL    HW137537  11.956   0.423   9.863  0.7285  0.2726 -0.8163
 8604SOL    HW237538  12.019   0.547   9.804  0.5175  0.4473 -0.6775
 8605SOL     OW37539   7.075  10.977   0.562  0.8948  0.7479  0.1938
 8605SOL    HW137540   7.115  10.935   0.487  0.3868  0.4202  0.1018
 8605SOL    HW237541   6.989  11.005   0.530  0.2717 -0.2769  0.9227
 8606SOL     OW37542  13.711  10.009   1.374 -0.3191 -0.2850 -0.8365
 8606SOL    HW137543  13.657  10.032   1.450  2.1739  0.0112  0.9808
 8606SOL    HW237544  13.781   9.955   1.410  2.3496  1.8677 -2.4347
 8607SOL     OW37545   8.285   7.360  12.577  0.0022 -0.1655  0.8039
 8607SOL    HW137546   8.316   7.432  12.522  0.1052 -0.8458 -0.0687
 8607SOL    HW237547   8.252   7.296  12.514  0.0826 -0.9567  1.5545
 8608SOL     OW37548   3.775   7.818   6.142 -0.3738  0.3359  0.4591
 8608SOL    HW137549   3.698   7.823   6.199  0.0357 -2.1567  1.3532
 8608SOL    HW237550   3.836   7.882   6.180 -1.7362  1.9479  0.0604
 8609SOL     OW37551   8.189  12.636   2.778 -0.0719 -0.7360  0.2554
 8609SOL    HW137552   8.281  12.662   2.788 -0.1598 -0.3683  0.1264
 8609SOL    HW237553   8.181  12.609   2.687  0.1533 -1.7841  0.5234
 8610SOL     OW37554   2.738   7.398   3.455 -0.1734 -0.2514 -0.3874
 8610SOL    HW137555   2.817   7.397   3.401 -0.0233  1.0312 -0.2154
 8610SOL    HW237556   2.702   7.486   3.444 -1.1495 -0.5575  0.1712
 8611SOL     OW37557   6.172   4.272  13.705 -0.0709  0.0980  0.2845
 8611SOL    HW137558   6.179   4.248  13.797 -1.9036 -0.5218  0.2914
 8611SOL    HW237559   6.080   4.295  13.692  0.0820 -0.0893 -1.4515
 8612SOL     OW37560   2.336   9.673   0.354 -0.2448 -0.3875  0.0528
 8612SOL    HW137561   2.357   9.762   0.324 -0.2710 -0.8261 -1.3398
 8612SOL    HW237562   2.422   9.634   0.373 -0.1163 -0.5204 -0.7421
 8613SOL     OW37563   3.774   5.668   5.968  0.5610  0.0673  0.2735
 8613SOL    HW137564   3.813   5.692   6.052  0.3307  0.0835  0.3789
 8613SOL    HW237565   3.822   5.591   5.939  2.6616  1.7595 -1.0316
 8614SOL     OW37566  12.828   7.035   1.518  0.1344  0.8850  0.4803
 8614SOL    HW137567  12.870   6.961   1.474  0.0102 -0.7258  2.8500
 8614SOL    HW237568  12.887   7.109   1.502  0.2450  0.3401 -2.0001
 8615SOL     OW37569   2.586  13.508   8.506 -0.3477  0.2562  0.0322
 8615SOL    HW137570   2.555  13.429   8.460  0.2831  0.0857 -0.1104
 8615SOL    HW237571   2.641  13.475   8.577 -0.8084  0.5433  0.5323
 8616SOL     OW37572  10.551  12.093   6.235 -0.0177  0.6099 -0.3275
 8616SOL    HW137573  10.642  12.063   6.238 -0.0244  0.5277 -0.8150
 8616SOL    HW237574  10.552  12.176   6.283 -0.0816 -0.3349  1.3925
 8617SOL     OW37575   0.142   3.228  11.262  0.0013  0.4559  0.6341
 8617SOL    HW137576   0.209   3.163  11.241 -2.7856 -2.6854  0.7088
 8617SOL    HW237577   0.129   3.219  11.357 -2.7533 -1.5612  0.1896
 8618SOL     OW37578   8.277   1.091   5.028  0.3760 -0.1703  0.4080
 8618SOL    HW137579   8.314   1.034   4.961  0.0569  0.6096 -0.4533
 8618SOL    HW237580   8.327   1.172   5.021 -0.6561  0.4531  0.0811
 8619SOL     OW37581  11.206   2.422  12.281 -0.2937 -0.3068 -0.0804
 8619SOL    HW137582  11.145   2.494  12.297 -0.4244  0.7840 -4.2921
 8619SOL    HW237583  11.292   2.465  12.274  0.0548 -0.9650  0.1176
 8620SOL     OW37584  10.228   5.610   5.703  0.0057 -0.4153  0.2935
 8620SOL    HW137585  10.211   5.677   5.769 -0.3937  0.6137 -0.8110
 8620SOL    HW237586  10.150   5.555   5.703  0.4122 -1.0143  1.3354
 8621SOL     OW37587   7.828   9.853   2.165 -0.2402 -0.0793  0.0186
 8621SOL    HW137588   7.905   9.814   2.207  0.5472 -1.7247 -2.7016
 8621SOL    HW237589   7.755   9.798   2.195 -0.1194  0.3528  1.1627
 8622SOL     OW37590   3.005  10.579  10.215  0.1443 -0.1070  0.4628
 8622SOL    HW137591   3.016  10.663  10.172  0.7914  1.0602  2.7304
 8622SOL    HW237592   2.981  10.518  10.145  1.8585  1.4636 -1.6005
 8623SOL     OW37593   9.568   4.758   0.435 -0.3866  0.6679  0.2180
 8623SOL    HW137594   9.579   4.769   0.529 -0.2607  0.6546  0.2045
 8623SOL    HW237595   9.478   4.789   0.418 -0.8979 -0.5996  0.5392
 8624SOL     OW37596   9.391   9.538   8.967  0.2238  0.2277  0.6376
 8624SOL    HW137597   9.455   9.468   8.979 -0.4723 -0.5856 -0.2965
 8624SOL    HW237598   9.364   9.562   9.056  1.9486  0.7338  1.0605
 8625SOL     OW37599   3.622   8.849   2.786 -0.1857 -0.0262 -1.0709
 8625SOL    HW137600   3.701   8.838   2.731  0.6600 -0.0478  0.1122
 8625SOL    HW237601   3.656   8.863   2.874 -1.5174  0.3967 -0.6024
 8626SOL     OW37602   4.382   2.766   4.175 -0.1125  0.0349  0.5192
 8626SOL    HW137603   4.395   2.774   4.270 -0.1416  0.4297  0.4928
 8626SOL    HW237604   4.382   2.856   4.144 -0.9732 -0.0443  0.2585
 8627SOL     OW37605  12.293   4.197   8.367  0.2088 -0.1981 -0.4165
 8627SOL    HW137606  12.208   4.179   8.325  0.2365  1.8253 -1.4773
 8627SOL    HW237607  12.339   4.113   8.366 -0.8530 -0.8070 -2.0537
 8628SOL     OW37608   8.436   8.627   5.017 -0.3419  0.2799 -0.5447
 8628SOL    HW137609   8.458   8.535   5.031 -0.0300  0.1539 -1.7049
 8628SOL    HW237610   8.511   8.662   4.968 -0.1991  1.3007  0.3738
 8629SOL     OW37611  13.392   3.040  11.963 -0.1564  0.3598  0.3265
 8629SOL    HW137612  13.330   3.103  11.927 -0.2879  0.5043  0.7997
 8629SOL    HW237613  13.385   2.963  11.907  0.1355  0.8314 -0.3683
 8630SOL     OW37614   7.483   3.166   5.457 -0.4595 -0.0409 -0.1475
 8630SOL    HW137615   7.503   3.131   5.370 -1.5082 -2.3952  0.4732
 8630SOL    HW237616   7.536   3.245   5.464 -0.5189  0.3334 -2.9893
 8631SOL     OW37617   8.034   5.871  12.419  0.5823 -0.3305 -0.2382
 8631SOL    HW137618   8.005   5.855  12.329  1.7114  0.0316 -0.6883
 8631SOL    HW237619   8.128   5.856  12.416  0.8583  1.0777  0.5513
 8632SOL     OW37620   0.818   6.168   3.837  0.2130 -0.2212  0.4802
 8632SOL    HW137621   0.902   6.134   3.808  0.3000 -0.7099  1.2587
 8632SOL    HW237622   0.763   6.091   3.849 -0.4594  0.1160 -0.3305
 8633SOL     OW37623   2.735   6.251   8.080  0.0720  0.0236  0.5860
 8633SOL    HW137624   2.722   6.276   7.988  0.7718  0.9124  0.7108
 8633SOL    HW237625   2.680   6.174   8.092  0.3601 -0.4106 -0.7201
 8634SOL     OW37626  10.336  11.327   0.793  0.5584  0.3325  0.1671
 8634SOL    HW137627  10.404  11.337   0.726 -0.7271 -0.4501 -1.3197
 8634SOL    HW237628  10.373  11.264   0.856  0.6128 -1.4396 -1.5305
 8635SOL     OW37629  10.097   6.307   7.933  0.3164 -0.1168  0.0793
 8635SOL    HW137630  10.161   6.361   7.979 -0.9753  0.7968  0.8411
 8635SOL    HW237631  10.108   6.220   7.971  2.5203 -0.5077 -1.2659
 8636SOL     OW37632   5.840   2.796   7.342  0.3017  0.1845 -0.3138
 8636SOL    HW137633   5.933   2.820   7.337  0.1253  1.1705  0.7746
 8636SOL    HW237634   5.840   2.710   7.383  0.7059  0.5898  0.5726
 8637SOL     OW37635   1.966  11.295   1.059 -0.1466 -0.5080 -0.4399
 8637SOL    HW137636   1.875  11.269   1.076  0.1122 -1.4398 -0.4545
 8637SOL    HW237637   1.960  11.348   0.979 -0.5515 -1.5011 -1.0919
 8638SOL     OW37638  13.656   4.628  11.456  0.5614 -0.5645  0.1966
 8638SOL    HW137639  13.626   4.568  11.388 -0.4168 -0.9117  0.9127
 8638SOL    HW237640  13.599   4.704  11.448  1.3828  0.0210 -0.2892
 8639SOL     OW37641  10.446   0.024   9.746  0.0928 -0.2311 -0.2058
 8639SOL    HW137642  10.538   0.043   9.724 -0.6436  0.9005 -2.6824
 8639SOL    HW237643  10.408   0.111   9.763 -0.8615 -0.5455 -0.7200
 8640SOL     OW37644  10.302  12.595  12.686  0.0234  0.7023  0.4848
 8640SOL    HW137645  10.223  12.584  12.632  0.5869 -0.3159 -0.1778
 8640SOL    HW237646  10.333  12.682  12.665 -0.5294  0.8383  0.2028
 8641SOL     OW37647  11.126  11.461   3.719  0.2610 -0.4889 -0.0987
 8641SOL    HW137648  11.138  11.507   3.802 -1.7395  0.7039 -0.4106
 8641SOL    HW237649  11.110  11.370   3.744  0.9145 -0.3874  0.7263
 8642SOL     OW37650   1.145  13.124  11.738  0.0356  0.1244 -0.2203
 8642SOL    HW137651   1.151  13.192  11.805 -0.2575 -2.5746  2.8437
 8642SOL    HW237652   1.235  13.108  11.711  0.2359  0.8136  0.0286
 8643SOL     OW37653   0.870   6.130   5.367 -0.2080  0.1287 -0.0899
 8643SOL    HW137654   0.883   6.108   5.274  1.5173  0.1142  0.1155
 8643SOL    HW237655   0.904   6.054   5.414 -0.4416  0.4207  0.5623
 8644SOL     OW37656  10.529   6.976  11.939 -0.3580  0.0942  0.0135
 8644SOL    HW137657  10.606   6.921  11.924 -0.9011 -0.4765 -0.7043
 8644SOL    HW237658  10.478   6.930  12.005 -0.8240 -0.2853 -0.6041
 8645SOL     OW37659   4.056   9.275   0.576 -0.3143  0.5099 -0.6695
 8645SOL    HW137660   4.008   9.277   0.493  0.0332  2.1307 -0.8623
 8645SOL    HW237661   3.996   9.315   0.640 -0.1453  0.3132 -0.3844
 8646SOL     OW37662  10.947   1.975   1.843  0.8315  0.3825 -0.1648
 8646SOL    HW137663  11.037   2.004   1.830  1.0819 -0.3350 -0.1066
 8646SOL    HW237664  10.955   1.882   1.865  0.1044  0.4261  0.3198
 8647SOL     OW37665   2.850   7.995   9.042  1.0269  0.0068 -0.5493
 8647SOL    HW137666   2.821   8.079   9.078 -0.3800 -0.5541 -0.3128
 8647SOL    HW237667   2.941   7.987   9.069  0.7297  0.7618  0.7221
 8648SOL     OW37668   4.112   1.665  10.555 -0.2695 -0.0329 -0.1006
 8648SOL    HW137669   4.190   1.668  10.610 -1.3915  0.2797  1.5289
 8648SOL    HW237670   4.142   1.697  10.470  1.7287 -1.4521  0.0046
 8649SOL     OW37671   4.328   6.094   7.476 -0.4415  0.1297 -0.1504
 8649SOL    HW137672   4.409   6.072   7.430  0.1467 -0.2651  1.0416
 8649SOL    HW237673   4.324   6.031   7.548 -2.5129 -0.7472 -0.9682
 8650SOL     OW37674   9.268   1.977   9.909  0.8395  0.4580 -0.1864
 8650SOL    HW137675   9.216   1.991   9.830 -0.7077 -0.1641  0.6655
 8650SOL    HW237676   9.229   2.036   9.974  0.9147 -0.3224  0.5873
 8651SOL     OW37677   0.837   0.140   6.877 -0.6724  0.4559 -0.0399
 8651SOL    HW137678   0.885   0.175   6.951 -0.5375  0.8968 -0.3325
 8651SOL    HW237679   0.786   0.214   6.843  0.5527  0.7166 -1.4096
 8652SOL     OW37680   3.593   4.283   7.908  0.5229 -0.4170 -0.1342
 8652SOL    HW137681   3.529   4.337   7.954 -1.6320 -2.5164 -0.4761
 8652SOL    HW237682   3.618   4.216   7.972  2.4518  0.3872  0.0022
 8653SOL     OW37683   2.464  11.914   6.344 -0.5565 -0.1821  0.6473
 8653SOL    HW137684   2.457  11.918   6.249 -0.0448 -1.2343  0.5473
 8653SOL    HW237685   2.391  11.857   6.371  0.7408 -1.9496  0.6222
 8654SOL     OW37686   6.994   0.526   3.130 -0.2636  0.7502 -0.3602
 8654SOL    HW137687   6.903   0.498   3.137 -0.9623  2.8862 -0.0695
 8654SOL    HW237688   6.990   0.621   3.139  2.2180  0.7508  1.6734
 8655SOL     OW37689  10.270   2.286  13.117 -0.7698  0.7048  0.0119
 8655SOL    HW137690  10.236   2.349  13.054 -1.8395 -0.5653 -0.7238
 8655SOL    HW237691  10.341   2.242  13.072 -2.0862 -0.8101 -0.7142
 8656SOL     OW37692   2.807  12.652  11.716 -0.1632 -0.0074 -0.3924
 8656SOL    HW137693   2.875  12.635  11.781  0.3281 -0.2984 -0.9737
 8656SOL    HW237694   2.726  12.622  11.757  0.0567  0.3203  0.2949
 8657SOL     OW37695  11.967   1.774   4.525 -0.3325  0.2514 -0.1048
 8657SOL    HW137696  12.024   1.770   4.448  0.1453  1.2460  0.1867
 8657SOL    HW237697  12.008   1.838   4.583 -2.6861  2.4595 -0.6711
 8658SOL     OW37698   7.677  11.650  10.469  0.3033  0.5449  0.0513
 8658SOL    HW137699   7.734  11.683  10.538 -0.6618  0.6059  0.8473
 8658SOL    HW237700   7.696  11.556  10.464  1.5783  0.8264 -0.7872
 8659SOL     OW37701   5.281  10.737   5.000  0.0823 -0.2959 -0.0326
 8659SOL    HW137702   5.210  10.801   5.014  1.7271  1.4586  0.7627
 8659SOL    HW237703   5.300  10.744   4.907 -0.1021 -0.0065 -0.0530
 8660SOL     OW37704   8.595  10.433   6.928 -0.1157 -0.3154 -0.0541
 8660SOL    HW137705   8.593  10.515   6.978  0.6391 -0.5998  0.4501
 8660SOL    HW237706   8.592  10.364   6.994  3.9119 -0.7542 -0.1148
 8661SOL     OW37707   9.969  12.428   7.834 -0.2086 -0.3477  0.1517
 8661SOL    HW137708   9.904  12.407   7.766 -0.4293 -1.8346  0.7790
 8661SOL    HW237709  10.052  12.400   7.796  0.0781  1.3515 -0.5632
 8662SOL     OW37710   0.488   7.291   1.634 -0.7011 -0.7234 -0.3411
 8662SOL    HW137711   0.417   7.305   1.697 -0.7720 -1.3787 -0.2603
 8662SOL    HW237712   0.452   7.317   1.550 -0.7955 -0.3693 -0.1908
 8663SOL     OW37713   5.059  10.817  10.127 -0.2108  0.4043  0.1583
 8663SOL    HW137714   5.138  10.779  10.087 -0.1392  0.0015  0.6745
 8663SOL    HW237715   5.093  10.872  10.197 -0.2787  1.9421 -0.9763
 8664SOL     OW37716  12.758   7.761   0.827  0.1288 -0.0450 -0.5915
 8664SOL    HW137717  12.831   7.735   0.883  0.6821  0.2187 -1.1770
 8664SOL    HW237718  12.680   7.752   0.883  0.7825  1.5439  0.6889
 8665SOL     OW37719   6.602   1.182   8.066 -0.3851  0.1598 -0.2657
 8665SOL    HW137720   6.686   1.226   8.066  0.1462 -0.8254  0.2505
 8665SOL    HW237721   6.538   1.252   8.057  0.5287  0.8154 -2.0258
 8666SOL     OW37722  13.063  11.958   9.672  0.2345 -0.1743  0.0487
 8666SOL    HW137723  13.056  11.875   9.719  0.3889 -0.8180 -1.0276
 8666SOL    HW237724  13.054  11.934   9.580  0.8317  0.9327 -0.3156
 8667SOL     OW37725  12.592   3.423   3.303  0.1434  0.0770  0.2774
 8667SOL    HW137726  12.655   3.469   3.359 -1.7362  1.4422  1.3819
 8667SOL    HW237727  12.572   3.484   3.233 -1.0697  0.3046  0.7935
 8668SOL     OW37728   4.979   6.760  11.389  0.2459 -0.1559  0.2547
 8668SOL    HW137729   4.967   6.723  11.301 -0.4554 -1.2380  0.7816
 8668SOL    HW237730   4.890   6.780  11.418  0.3065 -1.3695  1.3579
 8669SOL     OW37731   9.229   3.532   4.619  0.2205 -0.8246 -0.4043
 8669SOL    HW137732   9.229   3.490   4.534  1.7061 -1.1860 -0.2522
 8669SOL    HW237733   9.310   3.584   4.620 -1.1559  1.4353 -0.2836
 8670SOL     OW37734  12.757   8.141  10.191 -0.2790 -0.0112  0.2432
 8670SOL    HW137735  12.810   8.219  10.205  0.6209 -0.4850 -0.4294
 8670SOL    HW237736  12.774   8.086  10.266 -2.7013  1.3434  1.9445
 8671SOL     OW37737   4.412  12.265   8.940 -0.6401  0.2378 -0.6288
 8671SOL    HW137738   4.457  12.311   9.011 -0.0446 -0.2266 -0.7020
 8671SOL    HW237739   4.419  12.173   8.963 -1.7475  0.1610 -0.5319
 8672SOL     OW37740   2.271   1.341   0.039  0.0033  0.2745 -0.1493
 8672SOL    HW137741   2.176   1.340   0.030  0.0128  0.3487 -0.2497
 8672SOL    HW237742   2.299   1.254   0.009  0.1019  0.7511 -1.5056
 8673SOL     OW37743   0.806  10.325   4.167  0.2689 -0.0624  0.1049
 8673SOL    HW137744   0.902  10.321   4.165  0.2797  0.2825 -0.1815
 8673SOL    HW237745   0.787  10.415   4.193  0.0197  0.3157 -1.3104
 8674SOL     OW37746  10.069   9.074   3.175 -0.4347  0.0488  0.7676
 8674SOL    HW137747  10.158   9.061   3.142 -0.4665  1.1634  0.1789
 8674SOL    HW237748  10.037   9.150   3.127 -1.7169 -0.3431  0.9676
 8675SOL     OW37749   0.869   4.379   6.330  0.0051 -0.1040 -0.2772
 8675SOL    HW137750   0.959   4.360   6.354  0.3070 -0.8788 -1.8630
 8675SOL    HW237751   0.871   4.470   6.300 -0.0396  0.3158  0.9368
 8676SOL     OW37752   6.239   5.428   2.952 -0.2345 -0.5050  0.0844
 8676SOL    HW137753   6.292   5.490   2.903 -0.8202 -0.7493 -0.9046
 8676SOL    HW237754   6.284   5.417   3.035 -0.6023  1.9414  0.6757
 8677SOL     OW37755   5.243   8.263   4.349 -0.2293  0.6070  0.2961
 8677SOL    HW137756   5.185   8.240   4.422  0.6121  1.1326  1.1496
 8677SOL    HW237757   5.274   8.351   4.370  1.6155 -0.0111  0.3606
 8678SOL     OW37758  11.193   2.547   2.295  0.6162  0.1078 -0.1554
 8678SOL    HW137759  11.249   2.618   2.264  0.1565 -0.1422 -1.6397
 8678SOL    HW237760  11.126   2.538   2.228  1.5609 -2.7807 -0.8399
 8679SOL     OW37761   9.809   3.478  11.128  0.5042 -0.0281 -0.4898
 8679SOL    HW137762   9.877   3.495  11.062  2.1145 -0.4195  1.0004
 8679SOL    HW237763   9.835   3.396  11.169 -0.9375 -0.2304  0.0742
 8680SOL     OW37764   2.569   4.374   5.637  0.0215  0.4470  0.0007
 8680SOL    HW137765   2.602   4.375   5.727  0.9499  0.9744 -0.3337
 8680SOL    HW237766   2.627   4.314   5.591 -0.4445  0.1887 -0.2570
 8681SOL     OW37767   4.922  12.774   6.450  0.0112  0.0870  0.0291
 8681SOL    HW137768   5.009  12.742   6.476 -0.1140  1.4574  2.3769
 8681SOL    HW237769   4.934  12.868   6.438 -1.1989  0.3355  0.6539
 8682SOL     OW37770   9.132  10.827  10.102 -0.3678  0.0860 -0.0327
 8682SOL    HW137771   9.085  10.746  10.123  1.5321 -1.6836 -2.1619
 8682SOL    HW237772   9.202  10.831  10.167 -0.9025  0.4657  0.5345
 8683SOL     OW37773  11.728   1.648  11.744 -0.6686  0.5623  0.2445
 8683SOL    HW137774  11.702   1.558  11.723  0.7901  0.4660 -1.3815
 8683SOL    HW237775  11.824   1.647  11.737 -0.6654  2.3566 -0.3039
 8684SOL     OW37776   4.254  12.619   1.158  0.0770 -0.2754  0.5662
 8684SOL    HW137777   4.325  12.558   1.141  1.0992  1.2885 -1.1149
 8684SOL    HW237778   4.284  12.670   1.234  2.4342  2.5597 -2.0132
 8685SOL     OW37779   4.950   6.069   8.972  0.6752 -0.5087  0.6706
 8685SOL    HW137780   5.026   6.017   8.997  0.2448 -2.2995 -1.4739
 8685SOL    HW237781   4.939   6.052   8.878 -1.0564  1.4494  0.4507
 8686SOL     OW37782   0.598   6.050   4.305 -0.2413  0.1576 -0.2449
 8686SOL    HW137783   0.617   6.142   4.324 -0.3483 -0.1968  1.8063
 8686SOL    HW237784   0.523   6.053   4.244 -0.6954  1.4259  0.3351
 8687SOL     OW37785   8.707   8.730   9.027 -0.5019  1.0557  0.2426
 8687SOL    HW137786   8.642   8.745   8.959  0.2125 -1.2978 -1.0743
 8687SOL    HW237787   8.788   8.768   8.992 -0.3495  0.6701  0.1612
 8688SOL     OW37788  13.172   3.048  11.526  0.1230 -0.1886 -0.1589
 8688SOL    HW137789  13.248   3.027  11.473 -0.3001 -0.7328 -0.5588
 8688SOL    HW237790  13.163   2.975  11.586  0.9379  0.6865  1.0746
 8689SOL     OW37791  10.415   9.290   6.605  0.3555 -0.1939 -0.3812
 8689SOL    HW137792  10.409   9.202   6.641  0.4199  0.1407  0.4823
 8689SOL    HW237793  10.461   9.340   6.673 -1.1228  0.8913 -0.1296
 8690SOL     OW37794   2.259   7.861  13.258 -0.3367  0.0098  0.2339
 8690SOL    HW137795   2.226   7.896  13.175 -0.5739 -1.1658 -0.1943
 8690SOL    HW237796   2.227   7.922  13.324 -0.8989  0.4831 -0.4560
 8691SOL     OW37797  10.099  13.170   6.179  0.0070  0.7205  0.5891
 8691SOL    HW137798  10.116  13.227   6.254  0.1501 -0.6038  1.6051
 8691SOL    HW237799  10.021  13.207   6.138 -0.3500  1.2054  1.6629
 8692SOL     OW37800   4.612  12.471   8.887  0.0803  0.0124 -0.0011
 8692SOL    HW137801   4.615  12.537   8.818 -1.9501 -0.6533 -0.8115
 8692SOL    HW237802   4.599  12.521   8.968 -0.6718  0.6671 -0.5053
 8693SOL     OW37803   1.728   9.809   9.757 -0.0285  0.1902  0.5092
 8693SOL    HW137804   1.807   9.784   9.805  2.4622  2.3526 -2.0589
 8693SOL    HW237805   1.757   9.819   9.666 -3.8970 -1.3293 -1.1021
 8694SOL     OW37806   6.630  12.294   9.546  0.3341 -0.0627  0.7008
 8694SOL    HW137807   6.690  12.312   9.473 -0.1715 -0.5716  0.1507
 8694SOL    HW237808   6.577  12.373   9.554  0.2920 -0.0634  0.4212
 8695SOL     OW37809  13.393   3.829  13.125 -0.3227  0.2753  0.2575
 8695SOL    HW137810  13.445   3.875  13.058 -0.9349  0.6590  0.0397
 8695SOL    HW237811  13.324   3.890  13.147 -1.7893 -0.9243 -0.8031
 8696SOL     OW37812  10.728   9.164   9.794 -0.0516 -0.2352  0.0691
 8696SOL    HW137813  10.795   9.098   9.812 -0.4895 -0.4939  0.7960
 8696SOL    HW237814  10.654   9.138   9.849  0.0504  1.3069  0.9904
 8697SOL     OW37815  12.156  12.621   3.485 -0.0322  0.0804  0.4097
 8697SOL    HW137816  12.075  12.672   3.494 -0.1647 -0.4605  3.1437
 8697SOL    HW237817  12.226  12.687   3.484 -0.3998  0.4748 -0.2779
 8698SOL     OW37818   3.684   0.965   1.791  0.6939 -0.3110 -0.0262
 8698SOL    HW137819   3.725   1.026   1.853 -0.1719  0.6865 -0.4063
 8698SOL    HW237820   3.612   0.926   1.839  0.8191 -0.5115 -0.0011
 8699SOL     OW37821  11.770   7.045   7.917 -0.4478 -0.2985 -0.3320
 8699SOL    HW137822  11.749   6.959   7.879 -0.0552 -0.3146 -0.5152
 8699SOL    HW237823  11.857   7.065   7.884  0.2974 -0.7102  1.2806
 8700SOL     OW37824  13.155  10.819   0.286  0.2966 -0.3445  0.7064
 8700SOL    HW137825  13.187  10.901   0.325  2.4484 -0.7930  0.0607
 8700SOL    HW237826  13.097  10.848   0.216  0.6666  0.6211  0.7699
 8701SOL     OW37827   2.451   1.201  12.376  0.0821  0.3619 -0.1760
 8701SOL    HW137828   2.377   1.229  12.429  0.4109 -0.1783  0.5831
 8701SOL    HW237829   2.447   1.106  12.377  0.1430  0.3411 -1.0651
 8702SOL     OW37830   9.804   0.466   6.267 -0.2611 -0.3725 -0.2063
 8702SOL    HW137831   9.803   0.556   6.299 -1.1535 -0.0511 -1.0836
 8702SOL    HW237832   9.819   0.474   6.173  0.4700 -1.1911 -0.1670
 8703SOL     OW37833   6.574   5.571   7.887  0.0609  0.1613 -0.1197
 8703SOL    HW137834   6.558   5.543   7.978 -2.0058  0.7389 -0.2484
 8703SOL    HW237835   6.504   5.529   7.837  0.8403  0.3204 -1.3642
 8704SOL     OW37836   9.863  10.674   8.645 -0.4039  0.3979 -0.6644
 8704SOL    HW137837   9.787  10.697   8.591 -0.6288  0.1991 -0.4322
 8704SOL    HW237838   9.859  10.579   8.651 -0.7874  0.4691  0.3021
 8705SOL     OW37839   1.121  10.753   2.801 -0.5435 -0.3369  0.3159
 8705SOL    HW137840   1.071  10.792   2.730  0.9694  0.0753 -0.5684
 8705SOL    HW237841   1.163  10.677   2.763  1.0675  0.4377  0.4643
 8706SOL     OW37842   6.302  11.666   3.795  0.0058 -0.6008  0.1893
 8706SOL    HW137843   6.209  11.647   3.793 -0.4748  1.4788 -1.8111
 8706SOL    HW237844   6.340  11.596   3.848 -2.4592 -2.4185 -0.2740
 8707SOL     OW37845   6.829  12.035   5.666  0.5772  0.3420 -0.6522
 8707SOL    HW137846   6.888  12.108   5.647 -0.1119  0.5408 -2.2602
 8707SOL    HW237847   6.757  12.047   5.604  0.0419 -1.2504 -0.3817
 8708SOL     OW37848   4.586  10.014   3.948 -0.1498  0.6567  0.0470
 8708SOL    HW137849   4.542   9.989   3.867  1.6421  0.9673 -1.0833
 8708SOL    HW237850   4.659   9.952   3.956  2.3422  3.2130 -1.0087
 8709SOL     OW37851   6.313  11.800   8.755  0.0613 -0.4824 -0.0049
 8709SOL    HW137852   6.384  11.856   8.725 -0.8833  0.5017 -0.4989
 8709SOL    HW237853   6.283  11.754   8.676  0.8714 -1.7757  0.4065
 8710SOL     OW37854  11.553  10.959  12.437 -0.4378 -0.1122 -0.0741
 8710SOL    HW137855  11.565  10.990  12.527  1.3364 -0.1454 -0.2661
 8710SOL    HW237856  11.615  10.887  12.428 -0.5873 -0.1083 -1.3314
 8711SOL     OW37857  11.294   3.394  12.278  0.2273 -0.2093  0.4112
 8711SOL    HW137858  11.257   3.480  12.299 -0.2515 -0.7287  1.8385
 8711SOL    HW237859  11.241   3.332  12.329  1.4781 -1.2099  0.5465
 8712SOL     OW37860  13.332   5.789  13.381 -0.4892 -0.9945  0.6553
 8712SOL    HW137861  13.274   5.865  13.393 -1.6122 -1.9304  1.3859
 8712SOL    HW237862  13.331   5.745  13.466  1.7941 -0.7361  0.8723
 8713SOL     OW37863   4.740  10.829  12.684  0.1149 -0.1107 -0.5744
 8713SOL    HW137864   4.782  10.865  12.606  0.5565 -0.1528 -0.3618
 8713SOL    HW237865   4.737  10.902  12.745  0.7980 -0.3671 -0.2273
 8714SOL     OW37866   4.063   1.477   5.679  0.1863 -0.0524 -0.3143
 8714SOL    HW137867   4.074   1.530   5.758 -0.6659 -1.3729  0.7289
 8714SOL    HW237868   4.137   1.501   5.623  0.7026  1.0401  0.8014
 8715SOL     OW37869   3.349   4.051  12.044  0.3015  0.2546  0.5796
 8715SOL    HW137870   3.291   4.071  11.971  2.2438  1.2963 -0.7466
 8715SOL    HW237871   3.357   3.956  12.042 -1.1737  0.0940  0.6954
 8716SOL     OW37872   1.635   9.210  10.752 -0.1619  0.6156  0.1207
 8716SOL    HW137873   1.705   9.222  10.817 -1.2943 -1.0903  1.7772
 8716SOL    HW237874   1.562   9.174  10.803 -0.5488 -2.4782 -2.3397
 8717SOL     OW37875   4.907  11.842   7.227  0.0386 -0.2169 -0.2909
 8717SOL    HW137876   4.950  11.901   7.165  1.3567 -0.9484 -0.1209
 8717SOL    HW237877   4.924  11.755   7.192  1.1193 -0.6641  1.2583
 8718SOL     OW37878   1.414   1.613   9.450 -0.1925 -0.2133 -0.3328
 8718SOL    HW137879   1.375   1.535   9.411 -0.9940  0.8197 -1.7184
 8718SOL    HW237880   1.500   1.621   9.409 -0.2567 -0.1743 -0.4593
 8719SOL     OW37881   0.611   0.872  10.922  1.2010  0.1114  0.8011
 8719SOL    HW137882   0.662   0.825  10.856  1.2786  0.2358  0.7711
 8719SOL    HW237883   0.549   0.808  10.956  0.1901  0.4053 -0.4109
 8720SOL     OW37884  12.803  12.966   8.436  0.0736 -0.0401 -0.0797
 8720SOL    HW137885  12.864  12.923   8.375 -0.9203 -0.2156 -0.9806
 8720SOL    HW237886  12.803  12.909   8.513 -1.9224 -2.3131 -1.5930
 8721SOL     OW37887   4.457   8.787   8.874  0.0187 -0.0874 -0.1417
 8721SOL    HW137888   4.367   8.786   8.907 -0.1768  1.4635 -0.5735
 8721SOL    HW237889   4.472   8.877   8.846  1.9811 -0.1099  0.6522
 8722SOL     OW37890   6.798  13.083  10.395  0.2919 -0.6503 -0.9299
 8722SOL    HW137891   6.830  13.090  10.485 -2.1533 -2.3682  0.1975
 8722SOL    HW237892   6.717  13.134  10.394  1.8739  2.0852 -3.1681
 8723SOL     OW37893   0.166   1.904   3.722  0.0518 -0.1008  1.0864
 8723SOL    HW137894   0.181   1.915   3.816 -0.3085  2.5839  0.9089
 8723SOL    HW237895   0.250   1.926   3.681 -0.8187  2.7477  0.6606
 8724SOL     OW37896   7.162   7.115   8.339  0.2926 -0.0181  0.3492
 8724SOL    HW137897   7.185   7.199   8.380  0.6831 -0.2587  0.6437
 8724SOL    HW237898   7.207   7.050   8.393 -0.0596 -0.4219  0.1615
 8725SOL     OW37899   7.095  12.446   4.069  0.0955 -0.5838  0.2721
 8725SOL    HW137900   7.147  12.444   3.988 -3.0459  0.8203 -1.9549
 8725SOL    HW237901   7.089  12.539   4.091  0.8483 -0.9444  2.1725
 8726SOL     OW37902   1.612   5.555  13.039  0.1049 -0.0272 -0.4428
 8726SOL    HW137903   1.534   5.610  13.049 -1.2573 -1.8189 -0.5094
 8726SOL    HW237904   1.611   5.499  13.116  0.1018 -1.4829 -1.4547
 8727SOL     OW37905   1.106   2.327   2.085 -0.4650  0.1317  0.0588
 8727SOL    HW137906   1.118   2.335   1.990  1.0651 -0.0186  0.2192
 8727SOL    HW237907   1.120   2.416   2.118  0.0911 -0.0211  0.2426
 8728SOL     OW37908   0.159   6.377   6.829  0.0926  0.0738  0.2021
 8728SOL    HW137909   0.242   6.329   6.826 -0.8414 -1.5580 -1.5375
 8728SOL    HW237910   0.146   6.408   6.739 -0.4458  1.6994  0.8065
 8729SOL     OW37911   3.339   8.561  10.566  0.2751 -0.9565  0.3924
 8729SOL    HW137912   3.336   8.629  10.498  1.7110 -0.3205  0.9340
 8729SOL    HW237913   3.413   8.506  10.542 -0.2521 -1.7504  0.5285
 8730SOL     OW37914   3.388   1.455  12.368  0.8839  0.4881 -0.0709
 8730SOL    HW137915   3.390   1.539  12.324 -0.3575  0.4673 -0.1977
 8730SOL    HW237916   3.472   1.450  12.414  2.5553  0.1876 -2.9570
 8731SOL     OW37917   4.390  10.336   0.716  0.0216  0.1786  0.3878
 8731SOL    HW137918   4.395  10.262   0.778  2.9329 -0.5960 -0.5841
 8731SOL    HW237919   4.301  10.333   0.682 -0.6392 -1.4559  2.0805
 8732SOL     OW37920  10.822   8.874   4.680  0.0582  0.3288 -0.2772
 8732SOL    HW137921  10.819   8.787   4.640  1.2205  0.9401 -1.8089
 8732SOL    HW237922  10.782   8.932   4.614  1.0638  1.2253 -0.1223
 8733SOL     OW37923  12.766   1.054   4.968 -0.2110  0.4240  0.1829
 8733SOL    HW137924  12.810   1.137   4.980  1.2857 -0.5840  2.1613
 8733SOL    HW237925  12.673   1.075   4.970  0.1397  2.0372  0.4691
 8734SOL     OW37926   9.626   1.979   9.761  0.1307  0.0725  0.4461
 8734SOL    HW137927   9.578   2.011   9.837 -0.7312 -0.7445  0.2560
 8734SOL    HW237928   9.576   2.010   9.685 -2.0916 -3.5134  0.2318
 8735SOL     OW37929   8.854   4.788  11.603  0.1065 -0.9644 -0.3747
 8735SOL    HW137930   8.765   4.799  11.638  1.0339  1.7832  1.4636
 8735SOL    HW237931   8.886   4.709  11.646 -0.9131 -1.0883  0.2098
 8736SOL     OW37932  12.991   5.966   9.670  0.3107  0.5458 -0.2752
 8736SOL    HW137933  12.923   5.931   9.611 -1.2243  0.2375  1.5970
 8736SOL    HW237934  12.969   6.058   9.680  0.6323  0.6223 -0.2644
 8737SOL     OW37935   7.241   8.790   5.117  0.1521  0.3865 -0.2874
 8737SOL    HW137936   7.258   8.757   5.206  2.5512  2.7202  0.2482
 8737SOL    HW237937   7.162   8.843   5.126  0.3259  0.5323  0.4386
 8738SOL     OW37938  11.008   9.581   6.630 -0.7139  0.5612 -0.5044
 8738SOL    HW137939  11.030   9.526   6.706 -2.2366 -1.2215 -1.2489
 8738SOL    HW237940  11.065   9.549   6.560 -0.8184  0.7003 -0.6540
 8739SOL     OW37941  13.477   2.727  11.261 -0.0806 -0.1565  0.3703
 8739SOL    HW137942  13.424   2.802  11.290 -0.0632 -0.8086  2.1701
 8739SOL    HW237943  13.437   2.702  11.177 -1.8031  0.2013  1.0290
 8740SOL     OW37944   5.327   5.422  12.871  0.5019 -0.2731 -0.0556
 8740SOL    HW137945   5.318   5.516  12.889  0.6062 -0.1971 -0.3941
 8740SOL    HW237946   5.238   5.388  12.875  0.5843 -0.3977  1.3276
 8741SOL     OW37947   2.301  13.605  13.442  0.0481  0.1470  0.0244
 8741SOL    HW137948   2.270  13.620  13.531 -1.0728 -0.1426 -0.3036
 8741SOL    HW237949   2.357  13.527  13.449 -1.1414 -0.7143  0.2666
 8742SOL     OW37950   9.662   3.443   3.465  0.3147  0.0840 -0.4529
 8742SOL    HW137951   9.591   3.505   3.483  1.2022  1.1307 -0.4365
 8742SOL    HW237952   9.736   3.477   3.514  0.9488 -0.7495 -0.8147
 8743SOL     OW37953  13.026   8.063   6.259 -0.2491  0.1068 -0.2812
 8743SOL    HW137954  13.020   8.023   6.346 -0.0098 -1.1028 -0.7998
 8743SOL    HW237955  12.978   8.145   6.268  2.2101  1.4824  1.7804
 8744SOL     OW37956   9.592   3.905   1.134 -0.3113  0.3450  0.5432
 8744SOL    HW137957   9.508   3.879   1.171 -0.7923  2.0834  0.7927
 8744SOL    HW237958   9.573   3.987   1.088  0.9460 -0.0409 -0.7441
 8745SOL     OW37959  10.537   5.421  10.069  0.4494 -0.4098 -0.1790
 8745SOL    HW137960  10.597   5.347  10.065 -1.5776 -2.1111 -3.1976
 8745SOL    HW237961  10.471   5.394  10.133  0.9035 -0.1849  0.3912
 8746SOL     OW37962   7.407  12.458   5.272 -0.4418 -0.2540  0.8740
 8746SOL    HW137963   7.366  12.407   5.202 -0.0210  0.9185 -0.2773
 8746SOL    HW237964   7.334  12.502   5.316 -0.6591 -0.5231  0.7848
 8747SOL     OW37965   7.022  12.697  11.816 -0.4964 -0.0939 -0.4912
 8747SOL    HW137966   7.003  12.607  11.841  0.7783  0.1134  1.4153
 8747SOL    HW237967   7.082  12.690  11.743 -1.6138 -0.7494 -1.3852
 8748SOL     OW37968   6.807   0.051  10.868 -0.2081  0.2409  0.3432
 8748SOL    HW137969   6.715   0.040  10.893 -0.2996  2.5117  1.1762
 8748SOL    HW237970   6.855  -0.002  10.932 -0.8943 -0.8914 -0.0410
 8749SOL     OW37971   4.784   2.962   5.467 -0.4422  0.1203 -0.2502
 8749SOL    HW137972   4.818   2.949   5.379  0.0329  0.6164 -0.1467
 8749SOL    HW237973   4.854   3.007   5.514 -1.4253  1.7010 -0.2014
 8750SOL     OW37974   0.992   3.825  10.725 -0.3866 -0.1355  0.0411
 8750SOL    HW137975   0.907   3.867  10.717  0.4399  1.3076 -1.8744
 8750SOL    HW237976   1.045   3.886  10.776 -0.0163 -0.2426 -0.2117
 8751SOL     OW37977  12.640  12.145  10.416  0.1855 -0.2854 -0.1327
 8751SOL    HW137978  12.735  12.137  10.429  0.1454  0.6675  0.8925
 8751SOL    HW237979  12.603  12.075  10.468  0.3280 -0.9668 -0.9198
 8752SOL     OW37980   6.799   5.055  11.945 -0.0150 -0.1374  0.1507
 8752SOL    HW137981   6.805   5.099  11.860  0.1164  0.8070  0.6311
 8752SOL    HW237982   6.875   5.087  11.993  0.2076 -1.0867  0.4370
 8753SOL     OW37983  12.224   0.874   8.221  0.2879 -0.3299  0.0290
 8753SOL    HW137984  12.257   0.963   8.237  0.3618 -0.2949 -0.3146
 8753SOL    HW237985  12.286   0.837   8.158  1.5774 -1.4117  1.8405
 8754SOL     OW37986  10.675  11.097   3.434  0.9117 -0.0264 -0.4480
 8754SOL    HW137987  10.702  11.107   3.343 -2.1369  0.3499 -1.3878
 8754SOL    HW237988  10.643  11.007   3.440  0.0534  0.2970 -0.0521
 8755SOL     OW37989   9.096   1.168  11.718 -0.4745 -0.7175 -0.5705
 8755SOL    HW137990   9.016   1.221  11.720 -0.0190 -0.0047 -0.9097
 8755SOL    HW237991   9.091   1.119  11.636 -0.0777  0.1067 -1.0999
 8756SOL     OW37992   5.130   7.778   3.667  0.2956  0.3257  0.2170
 8756SOL    HW137993   5.040   7.780   3.637  0.7800  0.1979 -1.3016
 8756SOL    HW237994   5.134   7.703   3.726 -0.8863  1.1242  1.3673
 8757SOL     OW37995  12.939   3.840   0.205  0.0465 -0.0219 -0.3637
 8757SOL    HW137996  12.888   3.914   0.237 -1.8410 -0.8884 -1.1517
 8757SOL    HW237997  12.939   3.849   0.110  1.2444 -0.1550 -0.3952
 8758SOL     OW37998  12.826   1.222   7.876  0.1609  0.2142  0.5617
 8758SOL    HW137999  12.790   1.217   7.965  0.6513 -0.7283  0.7195
 8758SOL    HW238000  12.904   1.277   7.885 -1.2511  2.3764  0.1949
 8759SOL     OW38001   1.251   1.700  11.063 -0.2173 -0.1965  0.1969
 8759SOL    HW138002   1.316   1.673  11.128 -0.3959 -0.0317  0.4475
 8759SOL    HW238003   1.251   1.796  11.069 -2.5529 -0.2289  2.2716
 8760SOL     OW38004   1.614   5.937   7.299  0.7426 -1.0912  0.8915
 8760SOL    HW138005   1.604   6.021   7.255 -1.1008 -2.9740 -2.7226
 8760SOL    HW238006   1.531   5.924   7.346 -0.9729 -2.6332 -2.2539
 8761SOL     OW38007  11.677   2.245  10.588 -0.0856  0.0075 -0.4225
 8761SOL    HW138008  11.727   2.326  10.577  0.2701 -0.2792 -0.9870
 8761SOL    HW238009  11.724   2.198  10.657 -0.2490  0.2485 -0.1453
 8762SOL     OW38010   4.793   7.979  12.440  0.5038 -0.2761 -0.5754
 8762SOL    HW138011   4.783   8.041  12.512  1.1305 -0.3078 -0.4552
 8762SOL    HW238012   4.868   8.012  12.390 -1.4633  1.2179 -2.7347
 8763SOL     OW38013  10.686   6.041  13.696  0.1546 -0.4927 -0.1139
 8763SOL    HW138014  10.781   6.051  13.688  0.3161 -2.3806 -1.1241
 8763SOL    HW238015  10.651   6.125  13.666  1.4756 -0.2084 -0.9488
 8764SOL     OW38016  12.551   4.017  13.374 -0.0050 -0.4835  0.1300
 8764SOL    HW138017  12.492   3.947  13.345 -1.4415  0.3395  0.9321
 8764SOL    HW238018  12.500   4.065  13.440  0.8046  1.4948 -0.6062
 8765SOL     OW38019   4.924   9.694  13.337  0.4824  0.5043 -0.3421
 8765SOL    HW138020   4.894   9.732  13.420 -1.6523 -1.4846 -0.1041
 8765SOL    HW238021   4.875   9.742  13.270 -0.6401 -0.3683 -0.1732
 8766SOL     OW38022  10.872   9.322   3.331 -0.0688 -0.2446  0.3573
 8766SOL    HW138023  10.777   9.324   3.345 -0.0865  0.3863  0.2004
 8766SOL    HW238024  10.906   9.388   3.392  0.0036  1.4462 -1.4156
 8767SOL     OW38025   2.193   5.829   7.904 -0.2715  0.4080  0.2393
 8767SOL    HW138026   2.126   5.877   7.953  1.1703  1.5546  1.2023
 8767SOL    HW238027   2.269   5.887   7.906  1.5762 -1.9247  1.4298
 8768SOL     OW38028   5.859  11.729  13.126 -0.0345 -0.0585 -0.4634
 8768SOL    HW138029   5.827  11.652  13.173  0.8930 -0.3823 -0.3412
 8768SOL    HW238030   5.926  11.695  13.066  1.5268  0.8036  0.6964
 8769SOL     OW38031   5.077   0.895  12.900 -0.1842  0.0076  0.0154
 8769SOL    HW138032   5.027   0.949  12.838  0.4185 -0.3949 -0.8394
 8769SOL    HW238033   5.048   0.925  12.986 -2.1060 -0.4140 -0.4453
 8770SOL     OW38034  12.371  12.471  12.616 -0.1921 -0.5279  0.4553
 8770SOL    HW138035  12.334  12.547  12.570  0.3291 -1.6401 -1.9530
 8770SOL    HW238036  12.462  12.496  12.632 -0.1346 -0.4531  0.0469
 8771SOL     OW38037  13.244   4.892   2.598 -0.0373  0.9665  0.4150
 8771SOL    HW138038  13.303   4.822   2.570  1.6394  1.7922  1.7125
 8771SOL    HW238039  13.281   4.971   2.560 -1.4006  1.2981 -0.2910
 8772SOL     OW38040   2.821  13.282   3.263 -0.5171 -0.7008  0.1059
 8772SOL    HW138041   2.837  13.329   3.345  0.2297 -1.8335  0.6382
 8772SOL    HW238042   2.733  13.245   3.274 -1.2937  0.8658 -0.4936
 8773SOL     OW38043  11.964  10.932   5.557 -0.1268  0.5409  0.4210
 8773SOL    HW138044  11.900  11.004   5.552 -1.5070 -0.5060  1.9207
 8773SOL    HW238045  11.931  10.868   5.493  2.4597  2.1028 -2.7850
 8774SOL     OW38046   0.574   8.245   1.402  0.4317 -0.1013  0.2029
 8774SOL    HW138047   0.555   8.180   1.470  0.8067 -1.3584 -0.8405
 8774SOL    HW238048   0.526   8.215   1.326  0.4061  1.0185 -0.2446
 8775SOL     OW38049   4.369   2.705  12.890  0.3902 -0.4613 -0.0752
 8775SOL    HW138050   4.435   2.775  12.892 -2.3659  2.3187  2.0482
 8775SOL    HW238051   4.340   2.703  12.799 -0.8165  2.7173  0.1004
 8776SOL     OW38052   8.096  11.561   4.023  0.1515 -0.5047 -0.7004
 8776SOL    HW138053   8.173  11.591   4.071  1.5120 -1.1105 -2.4226
 8776SOL    HW238054   8.091  11.467   4.040 -1.3949 -0.1892  0.9436
 8777SOL     OW38055   5.282   4.895  11.675  0.1617 -0.1256 -0.3078
 8777SOL    HW138056   5.332   4.837  11.617  0.8042  0.3258 -0.2172
 8777SOL    HW238057   5.297   4.983  11.640  1.4054  0.2796  1.1159
 8778SOL     OW38058   3.335   6.775   0.945  0.2111  0.0257 -0.0522
 8778SOL    HW138059   3.359   6.864   0.919 -0.4929 -0.1674 -1.4844
 8778SOL    HW238060   3.419   6.732   0.961  0.6158  0.6027 -0.5462
 8779SOL     OW38061  10.576  12.741  11.641 -0.0675 -0.2703 -0.0328
 8779SOL    HW138062  10.622  12.817  11.604 -0.8913 -1.7549 -4.6234
 8779SOL    HW238063  10.483  12.763  11.634 -0.4105 -2.0674 -2.8989
 8780SOL     OW38064   5.711  11.972   4.083 -0.0127  0.0595 -0.9038
 8780SOL    HW138065   5.622  11.978   4.118  0.3476  0.1115  0.0396
 8780SOL    HW238066   5.751  12.057   4.103  0.4848 -0.2333 -0.6290
 8781SOL     OW38067   1.339   0.855  13.114  1.0125 -0.2969  0.4336
 8781SOL    HW138068   1.397   0.814  13.049  1.3736  0.3242  0.3542
 8781SOL    HW238069   1.382   0.938  13.135 -0.5687  0.8652 -0.6854
 8782SOL     OW38070   0.158   1.323   8.530 -0.3009 -0.0035  0.6827
 8782SOL    HW138071   0.202   1.269   8.465 -0.4634  0.5537  0.0944
 8782SOL    HW238072   0.227   1.379   8.566 -0.4407  0.5758  0.0644
 8783SOL     OW38073  13.225   8.392   6.045  0.2109 -0.1260  0.4515
 8783SOL    HW138074  13.318   8.405   6.030  0.0473 -0.3665 -0.9704
 8783SOL    HW238075  13.219   8.310   6.093  0.7604  0.2427  1.1612
 8784SOL     OW38076   1.181   3.823  12.510 -0.3404 -0.1977  0.1876
 8784SOL    HW138077   1.152   3.854  12.424  2.4375  1.0481 -0.4042
 8784SOL    HW238078   1.139   3.882  12.572  0.4569  1.2340 -0.5923
 8785SOL     OW38079  11.945   0.545   7.167 -0.0602 -0.1831  0.1162
 8785SOL    HW138080  12.029   0.512   7.200  0.7133  2.0559  0.5537
 8785SOL    HW238081  11.967   0.588   7.085 -0.6430  1.0005  0.5610
 8786SOL     OW38082   3.008   7.728   0.904  0.7898  0.0224 -0.4034
 8786SOL    HW138083   3.078   7.689   0.852  1.2872  1.1262 -0.5948
 8786SOL    HW238084   2.936   7.740   0.842  0.6524 -0.5398 -0.3544
 8787SOL     OW38085   1.733   1.574   8.370  0.8139 -0.8723  0.1468
 8787SOL    HW138086   1.667   1.620   8.420  1.1254 -0.8174  0.5081
 8787SOL    HW238087   1.805   1.560   8.431  2.1754  1.2049 -0.8542
 8788SOL     OW38088   9.098   0.355   6.629 -0.4467 -0.5038  0.2960
 8788SOL    HW138089   9.022   0.300   6.614 -2.4526  2.0442  0.5204
 8788SOL    HW238090   9.102   0.366   6.724 -1.3619  1.3815  0.1436
 8789SOL     OW38091   3.023   4.608   6.901  0.2401 -0.0682  0.8919
 8789SOL    HW138092   3.006   4.663   6.977 -0.6578 -1.1964  1.5445
 8789SOL    HW238093   2.947   4.549   6.897  1.1182 -1.1913  0.1812
 8790SOL     OW38094   8.602   3.921   2.462 -0.5522  0.4651 -0.0594
 8790SOL    HW138095   8.607   3.924   2.366 -0.0903 -2.3764 -0.2125
 8790SOL    HW238096   8.646   3.839   2.485  1.0595  2.0085  2.7661
 8791SOL     OW38097   7.914   8.551   5.239 -0.0835  0.4111 -0.2591
 8791SOL    HW138098   7.938   8.510   5.322  1.2415  1.2603 -0.1941
 8791SOL    HW238099   7.841   8.498   5.206  0.0930 -0.5964  0.9083
 8792SOL     OW38100  10.251   5.157   8.491 -0.5593  0.0599  0.4677
 8792SOL    HW138101  10.170   5.107   8.484  0.4458 -1.5996  0.2273
 8792SOL    HW238102  10.276   5.176   8.401  0.6373 -1.6825  0.4031
 8793SOL     OW38103   5.911   3.763  11.075  0.4720 -0.2890  0.3426
 8793SOL    HW138104   5.908   3.804  10.989 -0.9107 -0.5524  0.2432
 8793SOL    HW238105   6.002   3.772  11.103  0.5286  1.5715 -0.2870
 8794SOL     OW38106   9.486   6.964   9.440  0.4896  0.5829  0.7622
 8794SOL    HW138107   9.570   6.972   9.485  0.2270  1.7908  1.0811
 8794SOL    HW238108   9.473   7.049   9.399  1.3793 -0.8757 -2.8663
 8795SOL     OW38109  12.862   8.407   9.034 -0.3289 -0.0201  0.1120
 8795SOL    HW138110  12.897   8.331   9.081 -0.8653 -1.3354 -1.5238
 8795SOL    HW238111  12.808   8.369   8.965 -0.2905  1.8584 -0.9985
 8796SOL     OW38112   9.678   5.947   2.825  0.4643 -0.3047 -0.4788
 8796SOL    HW138113   9.652   6.034   2.794 -0.2016 -0.5789 -0.7134
 8796SOL    HW238114   9.649   5.888   2.755 -0.5012 -0.8719  0.3766
 8797SOL     OW38115  13.736  12.184   2.122 -0.0601  0.0384  0.1382
 8797SOL    HW138116  13.713  12.092   2.123  0.1365 -0.0087  0.3497
 8797SOL    HW238117  13.660  12.228   2.084  0.3386 -0.3421 -1.1804
 8798SOL     OW38118  11.171   7.710   4.025 -0.6792  0.1120  0.3524
 8798SOL    HW138119  11.152   7.682   3.936  1.0575 -1.1338  0.3055
 8798SOL    HW238120  11.258   7.672   4.044  0.4028  2.9047  1.4731
 8799SOL     OW38121   6.621   8.237  11.990 -0.2725  0.1938 -0.5200
 8799SOL    HW138122   6.551   8.271  11.934 -0.6013 -1.0310 -0.8862
 8799SOL    HW238123   6.576   8.190  12.060  0.1687  0.4529 -0.0516
 8800SOL     OW38124  11.932  12.468   1.353  0.0341 -0.3674  0.0772
 8800SOL    HW138125  11.917  12.560   1.375 -2.6693 -0.7515  0.2086
 8800SOL    HW238126  11.981  12.471   1.271  0.5625  1.1605  0.4051
 8801SOL     OW38127  13.384   9.591   7.121 -0.7036 -0.1219 -0.1042
 8801SOL    HW138128  13.413   9.636   7.199  0.4103 -1.3966  0.2646
 8801SOL    HW238129  13.354   9.660   7.062 -0.0761  0.9781  0.8377
 8802SOL     OW38130   8.274   0.671   4.733  0.4584  1.0377  0.2078
 8802SOL    HW138131   8.299   0.672   4.825 -0.9813  2.0138  0.6294
 8802SOL    HW238132   8.258   0.579   4.713  0.8085  0.8201  0.9341
 8803SOL     OW38133   3.701  10.687   5.949  0.8241  0.2895 -0.0355
 8803SOL    HW138134   3.661  10.771   5.971  1.3886  0.7835 -0.8188
 8803SOL    HW238135   3.673  10.669   5.860  0.6904 -0.3729  0.1330
 8804SOL     OW38136   0.087   1.027   2.769 -0.4727  0.2492  0.1639
 8804SOL    HW138137   0.164   1.017   2.825  1.0370  1.2016 -1.6679
 8804SOL    HW238138   0.110   1.096   2.708 -1.9473 -0.9207 -1.8389
 8805SOL     OW38139   0.722   9.686   7.963  0.1243 -0.3987 -0.0765
 8805SOL    HW138140   0.746   9.599   7.996  2.3241  0.0414 -0.3903
 8805SOL    HW238141   0.707   9.672   7.869 -2.5869 -0.9572  0.3478
 8806SOL     OW38142   0.038   2.045   7.189 -0.3782  0.2305  0.5928
 8806SOL    HW138143  -0.048   2.086   7.201  0.1966  1.3735  0.9538
 8806SOL    HW238144   0.066   2.020   7.277 -1.2914 -2.2412  0.2671
 8807SOL     OW38145   2.821   0.962   6.197  0.1155  0.3395 -0.7343
 8807SOL    HW138146   2.871   1.022   6.253  0.1911 -1.0909  0.7891
 8807SOL    HW238147   2.859   0.975   6.110  1.7823  0.7591  0.0048
 8808SOL     OW38148   2.922   1.318   5.329 -0.1254 -0.3186  0.1495
 8808SOL    HW138149   2.907   1.399   5.379 -1.1409 -1.5010  1.8638
 8808SOL    HW238150   3.014   1.297   5.343  0.3740  0.9456 -1.0048
 8809SOL     OW38151   2.076  13.639   4.273 -0.1534  0.2765  0.0121
 8809SOL    HW138152   2.163  13.611   4.244 -0.0347  0.4427  0.2020
 8809SOL    HW238153   2.087  13.732   4.293  0.0425 -0.0525  1.5792
 8810SOL     OW38154   4.778   6.543   7.976 -0.5112  0.6240  0.5530
 8810SOL    HW138155   4.760   6.451   7.955 -0.2800  0.8885 -0.8401
 8810SOL    HW238156   4.696   6.588   7.958 -1.2384  0.4557  3.0418
 8811SOL     OW38157  10.639   0.840  13.308 -0.2518  0.1682  0.1131
 8811SOL    HW138158  10.614   0.866  13.396  0.9772  1.8447  0.0272
 8811SOL    HW238159  10.587   0.762  13.289 -1.5592  0.5977  1.7738
 8812SOL     OW38160   9.183   9.985   7.992  0.0311 -0.5269 -0.1434
 8812SOL    HW138161   9.276  10.001   8.007 -0.2790  1.1893  0.1850
 8812SOL    HW238162   9.175   9.889   7.992  2.0511 -0.7807 -1.9585
 8813SOL     OW38163   4.362   4.110   5.154  0.8095 -0.0748 -0.1308
 8813SOL    HW138164   4.331   4.055   5.082 -1.1908 -0.5811  1.0136
 8813SOL    HW238165   4.323   4.195   5.137  0.6010 -0.1088  0.1629
 8814SOL     OW38166   3.651   7.839   3.520  0.6258  0.0676 -0.4521
 8814SOL    HW138167   3.728   7.790   3.493  0.5675  0.3172 -1.0919
 8814SOL    HW238168   3.665   7.858   3.613 -0.8160 -3.9350  0.7901
 8815SOL     OW38169   0.371   4.136   4.877  0.2037 -0.1835 -0.3875
 8815SOL    HW138170   0.367   4.148   4.782 -0.6003  2.0686 -0.1412
 8815SOL    HW238171   0.280   4.117   4.902  0.4004 -0.6974 -0.0502
 8816SOL     OW38172   5.355   3.731  11.102 -0.2891 -0.6014  0.0571
 8816SOL    HW138173   5.354   3.642  11.139 -1.0401 -0.7555 -0.3139
 8816SOL    HW238174   5.448   3.756  11.102  0.0715 -1.8481 -0.9415
 8817SOL     OW38175   7.685  12.139   4.410 -0.4234 -0.1561  0.3882
 8817SOL    HW138176   7.693  12.077   4.483 -2.7587 -0.2254  0.6685
 8817SOL    HW238177   7.630  12.209   4.445 -1.2161  0.0313 -1.1744
 8818SOL     OW38178   5.911   6.183   7.924 -0.2586 -0.0046 -0.5038
 8818SOL    HW138179   6.005   6.170   7.936 -0.3172  1.0360  1.3329
 8818SOL    HW238180   5.905   6.253   7.858  0.2296 -0.2323 -0.7960
 8819SOL     OW38181  13.176   8.975   5.721 -0.0376  0.2367  0.1555
 8819SOL    HW138182  13.205   8.982   5.812  0.7278 -1.3231  0.0661
 8819SOL    HW238183  13.182   8.881   5.701 -0.2323  0.5448 -1.4946
 8820SOL     OW38184  10.169   5.709   6.158 -0.2183  0.6275 -0.3853
 8820SOL    HW138185  10.143   5.798   6.181 -0.5615  0.9383 -1.8644
 8820SOL    HW238186  10.195   5.669   6.241 -0.2055  2.0518  0.3231
 8821SOL     OW38187   2.195   2.335   2.076 -0.3167 -0.5547 -0.2673
 8821SOL    HW138188   2.245   2.417   2.075 -2.4054  0.8453 -2.2763
 8821SOL    HW238189   2.218   2.294   2.158  0.9052  2.0477  0.8162
 8822SOL     OW38190  10.335   0.812  12.073 -0.4089  0.0125  0.7058
 8822SOL    HW138191  10.361   0.882  12.014 -1.9762 -1.6103 -2.1934
 8822SOL    HW238192  10.256   0.845  12.115  0.0025  0.7308  0.9290
 8823SOL     OW38193   8.432   9.649  10.772  0.1543 -0.0719 -0.3469
 8823SOL    HW138194   8.489   9.720  10.803  1.2947 -0.9607 -0.3388
 8823SOL    HW238195   8.487   9.571  10.776 -0.6706 -0.7508 -1.6049
 8824SOL     OW38196  10.759   6.947   3.791 -0.0537  0.1109  0.0628
 8824SOL    HW138197  10.817   7.006   3.840  0.5807  0.5499 -1.1669
 8824SOL    HW238198  10.791   6.860   3.812  1.2968  0.3568 -0.8393
 8825SOL     OW38199  10.120   6.529   0.237 -0.3230 -0.1479 -0.7331
 8825SOL    HW138200  10.096   6.566   0.152 -1.3061  0.5547 -0.1696
 8825SOL    HW238201  10.185   6.590   0.271 -1.3875  0.6875 -0.1352
 8826SOL     OW38202  10.208  11.545   1.319  0.4548  0.5992  0.1097
 8826SOL    HW138203  10.133  11.538   1.261 -2.1170  2.4294  2.9163
 8826SOL    HW238204  10.223  11.639   1.327  0.9184  0.4022  2.0586
 8827SOL     OW38205   7.534   3.989   4.064 -0.1081 -0.0121 -0.2150
 8827SOL    HW138206   7.547   4.020   4.154 -0.7485  0.2443 -0.1990
 8827SOL    HW238207   7.542   3.894   4.069  0.3321  0.0369  0.0272
 8828SOL     OW38208  10.424   4.930   4.655 -0.3851  0.0190 -0.0955
 8828SOL    HW138209  10.504   4.884   4.682  0.8533  2.2118  0.2056
 8828SOL    HW238210  10.452   4.983   4.580 -1.1584  1.9280  0.9139
 8829SOL     OW38211   2.113   0.164  10.441  0.1543  0.2807  0.4115
 8829SOL    HW138212   2.168   0.214  10.501 -0.0646  0.8765  0.1278
 8829SOL    HW238213   2.024   0.197  10.457  0.2471  1.3276 -1.0764
 8830SOL     OW38214   1.307  12.706   6.049 -0.2442  0.0541 -0.2379
 8830SOL    HW138215   1.392  12.680   6.012  0.1441 -0.5477  1.0262
 8830SOL    HW238216   1.276  12.628   6.095 -0.8172  0.7062  0.5047
 8831SOL     OW38217   3.252   2.946   4.813 -0.4937 -0.2498  0.0015
 8831SOL    HW138218   3.225   2.890   4.740 -0.8042 -2.2323  1.5412
 8831SOL    HW238219   3.348   2.943   4.810 -0.5049 -1.4336  0.4498
 8832SOL     OW38220   1.393  13.518  12.646  0.5147 -0.5988 -0.1395
 8832SOL    HW138221   1.359  13.435  12.680 -1.4809  0.1505 -0.1663
 8832SOL    HW238222   1.393  13.576  12.723 -1.0386  0.2137 -0.7115
 8833SOL     OW38223  13.025   8.500   6.430  0.2172  0.0479  0.2459
 8833SOL    HW138224  13.065   8.556   6.363  0.9191  0.1266  0.7141
 8833SOL    HW238225  13.038   8.549   6.512 -1.9346  0.6538  0.2776
 8834SOL     OW38226   2.957   5.648   0.178  0.4796 -0.3727  0.3793
 8834SOL    HW138227   2.916   5.681   0.098 -1.2916  0.0860  1.4245
 8834SOL    HW238228   2.986   5.560   0.155  0.3264 -0.1180 -0.8713
 8835SOL     OW38229   8.050  13.567   8.710  0.0218 -0.0822  0.5143
 8835SOL    HW138230   8.053  13.585   8.804 -0.4529  0.9818  0.3371
 8835SOL    HW238231   7.961  13.592   8.684  0.0156 -0.7626 -0.1440
 8836SOL     OW38232   4.082  12.653   4.629 -0.5353  0.4486  0.3251
 8836SOL    HW138233   4.145  12.707   4.678 -0.8281  0.5104  0.6394
 8836SOL    HW238234   3.996  12.681   4.662 -0.8036  1.3130 -1.0443
 8837SOL     OW38235   2.807   8.784   3.321  0.4137  0.2653  0.0587
 8837SOL    HW138236   2.769   8.702   3.288  0.8077 -0.2589  0.8634
 8837SOL    HW238237   2.799   8.777   3.416 -0.2386  1.5098  0.1117
 8838SOL     OW38238   3.792   5.213  10.039  0.3113  0.0937 -0.2630
 8838SOL    HW138239   3.875   5.171  10.061  0.0526  0.6613  1.9646
 8838SOL    HW238240   3.727   5.166  10.090 -0.7288 -0.0935 -1.6976
 8839SOL     OW38241   0.706   5.382  11.387  0.3122 -0.9448 -0.1667
 8839SOL    HW138242   0.651   5.359  11.313 -0.5404  0.2135  0.0687
 8839SOL    HW238243   0.658   5.453  11.431  1.4005 -0.7565  0.7643
 8840SOL     OW38244   6.912   3.852  13.651 -0.0093 -0.0087  0.7808
 8840SOL    HW138245   6.961   3.779  13.615  0.6687 -0.0915  1.8135
 8840SOL    HW238246   6.826   3.816  13.671  0.3962 -0.6087  1.5062
 8841SOL     OW38247  13.660  13.745   9.321  0.0501  0.1073  0.2029
 8841SOL    HW138248  13.709  13.777   9.245 -1.3941  0.9216 -0.4203
 8841SOL    HW238249  13.633  13.824   9.367  0.3512 -0.3681  1.2224
 8842SOL     OW38250   3.884   3.861   6.107  0.1682 -0.3642 -0.0845
 8842SOL    HW138251   3.793   3.846   6.133 -0.4390  1.1596 -1.1945
 8842SOL    HW238252   3.934   3.801   6.162 -1.5743 -2.0951 -0.2647
 8843SOL     OW38253   6.637   9.519  11.037  0.0196 -0.4857 -0.3549
 8843SOL    HW138254   6.643   9.491  10.946 -0.7086 -2.8495  0.2579
 8843SOL    HW238255   6.628   9.438  11.087 -0.0619  0.7627  1.8000
 8844SOL     OW38256  13.619   2.884   4.525 -0.0054  0.2451  0.4165
 8844SOL    HW138257  13.651   2.945   4.459 -0.3659 -0.9579 -0.9190
 8844SOL    HW238258  13.692   2.825   4.541 -0.7201 -1.0654 -0.8975
 8845SOL     OW38259   7.165   0.766   2.176 -0.1248 -0.0902 -0.1298
 8845SOL    HW138260   7.140   0.844   2.225 -0.1507 -0.6607  0.7913
 8845SOL    HW238261   7.100   0.700   2.202  0.5875 -0.7505  0.0059
 8846SOL     OW38262  11.752   9.555   5.146  0.4558 -0.2884 -0.3118
 8846SOL    HW138263  11.728   9.648   5.153  0.9032 -0.2586  1.5903
 8846SOL    HW238264  11.707   9.523   5.069 -0.3988  1.3181 -0.5066
 8847SOL     OW38265   0.749  11.496   2.742  0.3791  0.5238 -0.2362
 8847SOL    HW138266   0.836  11.522   2.772  0.5483 -0.9486  0.6519
 8847SOL    HW238267   0.691  11.514   2.816  0.1320  0.4554 -0.4116
 8848SOL     OW38268   9.994   0.930  11.258 -0.1113 -0.1044 -0.2104
 8848SOL    HW138269  10.054   0.921  11.185  0.0610  0.1805 -0.1075
 8848SOL    HW238270   9.919   0.875  11.235 -0.4008  0.5835 -0.9572
 8849SOL     OW38271  10.380  12.381  10.364 -0.0871 -0.1453 -0.1108
 8849SOL    HW138272  10.383  12.413  10.454  2.0703  0.3011 -0.2831
 8849SOL    HW238273  10.355  12.457  10.312  1.0294  0.2484 -0.1023
 8850SOL     OW38274   9.113   6.200   5.546  0.0074 -0.2165  0.0063
 8850SOL    HW138275   9.184   6.147   5.583 -0.7843 -0.7232  0.8397
 8850SOL    HW238276   9.116   6.182   5.453  0.3409 -1.0189  0.1628
 8851SOL     OW38277  10.314  13.484   3.561  0.2411 -0.3246  0.4063
 8851SOL    HW138278  10.350  13.544   3.496 -0.7645  1.6368  1.5449
 8851SOL    HW238279  10.316  13.399   3.518  2.1406  0.4113 -1.1377
 8852SOL     OW38280  12.614   0.570  11.110 -0.4824 -0.0365  0.4065
 8852SOL    HW138281  12.621   0.652  11.061  0.9099  0.2535  1.0182
 8852SOL    HW238282  12.526   0.570  11.146 -0.5595  1.1224  0.2595
 8853SOL     OW38283   7.763  13.720   5.995  0.6425 -0.1683  0.4808
 8853SOL    HW138284   7.735  13.665   6.068 -1.0990  0.6783  0.4971
 8853SOL    HW238285   7.741  13.809   6.021  1.3768  0.3133 -0.4619
 8854SOL     OW38286   9.322   7.055   8.559 -0.1561  0.4978  1.0286
 8854SOL    HW138287   9.292   6.968   8.532 -0.2502  0.5481  0.9693
 8854SOL    HW238288   9.366   7.089   8.481  1.4638 -0.2062  1.5963
 8855SOL     OW38289   5.028   6.625   7.505  0.5042 -0.0439  0.0569
 8855SOL    HW138290   5.054   6.646   7.416  0.4888 -0.2337  0.0056
 8855SOL    HW238291   5.061   6.697   7.558  0.2861  0.1983 -0.1370
 8856SOL     OW38292   7.900  10.866   7.210 -0.5021  0.4538  0.0099
 8856SOL    HW138293   7.972  10.872   7.273 -1.1053 -0.3604  0.8123
 8856SOL    HW238294   7.929  10.800   7.147 -1.3421 -1.4406  1.5013
 8857SOL     OW38295   1.991  12.841   9.899 -0.2842 -0.2238 -0.1404
 8857SOL    HW138296   1.990  12.824   9.805 -1.0491 -2.8660  0.2699
 8857SOL    HW238297   1.953  12.762   9.938 -1.1360  1.2941  2.3227
 8858SOL     OW38298  10.915  11.149   2.914  0.4253 -0.2056 -0.4846
 8858SOL    HW138299  10.836  11.164   2.862  0.1599 -0.9731 -0.3228
 8858SOL    HW238300  10.929  11.230   2.962 -0.6343 -0.2838 -0.0266
 8859SOL     OW38301  10.426   3.876  11.497  0.2816  0.0856 -0.1920
 8859SOL    HW138302  10.449   3.796  11.544 -1.1721 -0.7620 -0.8761
 8859SOL    HW238303  10.470   3.868  11.412  1.2309  0.6602  0.2305
 8860SOL     OW38304   6.080  12.981   4.787 -0.4637  0.0932 -0.2857
 8860SOL    HW138305   6.134  12.916   4.832 -0.7527 -0.2838 -0.4784
 8860SOL    HW238306   6.020  13.014   4.855  0.5353  1.1033  0.1293
 8861SOL     OW38307   5.991   5.332  11.663  0.4236  0.0840  0.9182
 8861SOL    HW138308   6.076   5.352  11.704  0.1943  0.8784  1.0159
 8861SOL    HW238309   5.986   5.236  11.665  1.5147  0.0001  0.5240
 8862SOL     OW38310   8.513  12.634   8.897 -0.2015  0.0699  0.3676
 8862SOL    HW138311   8.501  12.647   8.803  2.4579 -0.7891 -0.1538
 8862SOL    HW238312   8.563  12.710   8.926 -0.7131  0.1614  1.0569
 8863SOL     OW38313  10.690   0.569   9.071 -0.1021 -0.0992  1.0489
 8863SOL    HW138314  10.618   0.577   9.135  0.2774  0.0458  1.4653
 8863SOL    HW238315  10.646   0.550   8.988 -0.5399 -1.5992  1.5826
 8864SOL     OW38316   0.157  13.513   4.709  0.0878 -0.0534  0.0959
 8864SOL    HW138317   0.200  13.589   4.748 -1.3455  0.1730  1.3670
 8864SOL    HW238318   0.186  13.439   4.763 -1.3844  0.1693  1.2903
 8865SOL     OW38319  10.600  13.204   5.256 -0.1133 -0.0033  0.2673
 8865SOL    HW138320  10.691  13.225   5.234  0.0934 -1.3721 -0.3442
 8865SOL    HW238321  10.583  13.122   5.209 -2.2075  1.0491 -0.9938
 8866SOL     OW38322  12.668  10.414   1.217  0.0222  0.3913 -0.6996
 8866SOL    HW138323  12.741  10.417   1.154  1.1523  1.1731  0.5903
 8866SOL    HW238324  12.630  10.501   1.214 -0.4923  0.1603 -0.9388
 8867SOL     OW38325   2.014   9.103   0.800  0.1466  0.1197  0.4149
 8867SOL    HW138326   1.974   9.116   0.714 -0.8189 -0.8279  0.7001
 8867SOL    HW238327   1.966   9.163   0.857 -1.1211 -1.2110  0.8112
 8868SOL     OW38328   4.067  13.652   1.887  0.3110  0.3227 -0.0431
 8868SOL    HW138329   4.069  13.663   1.792 -0.8025  2.7611  0.1242
 8868SOL    HW238330   3.973  13.646   1.908  0.5772 -2.5138  0.7720
 8869SOL     OW38331   0.317   3.843   8.298 -0.2685 -0.9399  0.1021
 8869SOL    HW138332   0.336   3.764   8.349  1.1541 -0.2188  0.7561
 8869SOL    HW238333   0.364   3.830   8.216 -0.0081 -0.7704  0.2225
 8870SOL     OW38334   7.893   0.879   7.789  0.4377  0.2001 -0.0657
 8870SOL    HW138335   7.979   0.909   7.759  0.0481  0.9080 -0.4938
 8870SOL    HW238336   7.912   0.802   7.843  1.4842  1.2727  1.1535
 8871SOL     OW38337   9.839   5.046   3.721  0.3558  0.1702  0.1328
 8871SOL    HW138338   9.920   4.998   3.706 -0.2231 -0.8020 -0.0153
 8871SOL    HW238339   9.861   5.111   3.788  0.8328 -1.2998  1.4654
 8872SOL     OW38340  12.813  11.804  13.637  0.5217  0.0316  0.2780
 8872SOL    HW138341  12.843  11.825  13.725  2.7383  0.2142 -0.4492
 8872SOL    HW238342  12.829  11.884  13.586 -0.0715 -0.2907 -0.4284
 8873SOL     OW38343   3.053   9.350   8.636  0.1760 -0.0657 -0.1822
 8873SOL    HW138344   3.130   9.300   8.608 -0.3094  0.0028 -1.7856
 8873SOL    HW238345   2.990   9.338   8.564 -0.1743  2.3497 -0.3552
 8874SOL     OW38346   4.515  12.315   1.632  0.9218  0.0985 -0.0998
 8874SOL    HW138347   4.588  12.360   1.675 -0.6123  0.5602  2.2387
 8874SOL    HW238348   4.505  12.233   1.681 -1.2499  0.8922  0.9222
 8875SOL     OW38349   2.073   4.896   1.702 -0.4209 -0.3086 -0.1545
 8875SOL    HW138350   2.041   4.807   1.686  0.6656 -0.7210 -0.1321
 8875SOL    HW238351   2.162   4.884   1.736 -1.0788  0.7068  2.0942
 8876SOL     OW38352   6.965   6.961   9.895 -0.8608 -0.3782  0.4831
 8876SOL    HW138353   6.945   6.880   9.849 -0.7521  0.0966 -0.4245
 8876SOL    HW238354   7.057   6.979   9.874 -1.0365  0.2548  0.2347
 8877SOL     OW38355   8.697   7.184   1.237  0.3354  0.1753 -1.0328
 8877SOL    HW138356   8.720   7.266   1.193  0.5369 -0.0506 -1.3476
 8877SOL    HW238357   8.763   7.122   1.208  2.0765  0.6357  1.5812
 8878SOL     OW38358   7.820   6.397  10.348 -0.3934 -0.0509 -0.1582
 8878SOL    HW138359   7.827   6.423  10.440 -2.2316  0.3455 -0.0937
 8878SOL    HW238360   7.766   6.318  10.349  0.7316 -0.8640 -0.8149
 8879SOL     OW38361   5.115  10.736   6.151  0.2050 -0.4029  0.5843
 8879SOL    HW138362   5.031  10.690   6.142 -0.7659  1.2921  0.5382
 8879SOL    HW238363   5.101  10.796   6.225  0.6111  1.3965 -0.7197
 8880SOL     OW38364  12.645   0.109   3.172  0.4947 -0.0540  0.0472
 8880SOL    HW138365  12.617   0.159   3.249  0.4355  1.0193 -0.6353
 8880SOL    HW238366  12.720   0.058   3.201 -0.2301 -0.5471  1.1001
 8881SOL     OW38367  12.120   3.413   3.505 -0.7224 -0.8929  0.7223
 8881SOL    HW138368  12.090   3.394   3.594  0.0284 -0.6351  1.0401
 8881SOL    HW238369  12.206   3.372   3.500  1.0587  2.4378  1.4846
 8882SOL     OW38370   0.315   2.331   3.662 -0.2906  0.3050 -0.0107
 8882SOL    HW138371   0.322   2.426   3.656  1.0162  0.1600 -1.9094
 8882SOL    HW238372   0.240   2.309   3.606 -0.9165  0.2300  0.8394
 8883SOL     OW38373   4.193   6.244  10.528  0.3777  0.5180  0.7331
 8883SOL    HW138374   4.272   6.229  10.580  1.8786  1.7712 -1.0331
 8883SOL    HW238375   4.132   6.287  10.588  0.7926 -0.9702  2.2868
 8884SOL     OW38376   8.133   9.851   7.828  0.1956  0.1711  0.2627
 8884SOL    HW138377   8.066   9.850   7.760  0.9440 -2.7148 -0.5868
 8884SOL    HW238378   8.096   9.904   7.898 -1.7789  0.9313 -1.2670
 8885SOL     OW38379   0.706  11.846   6.060 -0.4024  0.3282  0.2933
 8885SOL    HW138380   0.734  11.833   6.150  0.4939 -0.3099 -0.0651
 8885SOL    HW238381   0.612  11.824   6.061 -0.5535  0.9879  1.1926
 8886SOL     OW38382   3.493   0.225   7.915  0.1217 -0.1186  0.4093
 8886SOL    HW138383   3.496   0.183   7.830  0.9489 -1.5065  1.0987
 8886SOL    HW238384   3.403   0.210   7.946  0.2828 -0.9990  0.4588
 8887SOL     OW38385   1.208   5.425   6.593 -0.1095 -0.7161 -0.0890
 8887SOL    HW138386   1.271   5.477   6.644 -0.6683 -0.7206  0.6094
 8887SOL    HW238387   1.223   5.453   6.503 -0.8397  1.1619  0.3320
 8888SOL     OW38388   4.082   9.703   4.927  0.2413  0.2051  0.2040
 8888SOL    HW138389   4.058   9.630   4.984  0.8937 -0.0843  0.1134
 8888SOL    HW238390   4.174   9.688   4.906  0.2942  0.8860 -0.0691
 8889SOL     OW38391   4.294   6.544   2.502  0.2109  0.5533 -0.2372
 8889SOL    HW138392   4.342   6.625   2.523  3.1096 -0.7502 -1.2868
 8889SOL    HW238393   4.263   6.513   2.587 -0.2295  2.2939  0.2937
 8890SOL     OW38394  12.392   3.690   5.263 -0.1225  0.4292 -0.0380
 8890SOL    HW138395  12.298   3.709   5.253  0.0001  0.6350 -0.8448
 8890SOL    HW238396  12.421   3.665   5.175 -0.0312 -2.4418  0.7075
 8891SOL     OW38397   4.261   4.541   1.535 -0.5220 -0.2903 -0.0560
 8891SOL    HW138398   4.293   4.458   1.570  3.6225  2.0036  2.4142
 8891SOL    HW238399   4.189   4.565   1.594 -1.1865 -1.6967 -0.2729
 8892SOL     OW38400   4.458   1.984  10.889  0.2005 -0.6934 -0.3169
 8892SOL    HW138401   4.549   1.963  10.871  0.4115 -0.2900  0.2388
 8892SOL    HW238402   4.444   1.956  10.980 -0.5785 -1.8614 -0.7714
 8893SOL     OW38403   3.383  11.791   7.652  0.5410  0.2878  0.2887
 8893SOL    HW138404   3.366  11.710   7.699 -0.0578 -0.6358 -1.4207
 8893SOL    HW238405   3.477  11.805   7.663  0.4148  0.1321  1.7435
 8894SOL     OW38406  12.104   2.903  13.536  0.0815  0.2070  0.6740
 8894SOL    HW138407  12.184   2.932  13.579 -0.2759  1.2407  0.6643
 8894SOL    HW238408  12.035   2.957  13.574 -0.7750 -1.3081  1.3732
 8895SOL     OW38409  12.856  11.244   6.826  0.7728  0.7083  0.5660
 8895SOL    HW138410  12.826  11.265   6.915  0.2802 -1.2114  0.8979
 8895SOL    HW238411  12.777  11.254   6.772  1.0995  1.9946  0.2892
 8896SOL     OW38412   7.429   8.170   3.434 -0.0700  0.5989  0.0657
 8896SOL    HW138413   7.497   8.104   3.425  0.4535  1.0763  0.4619
 8896SOL    HW238414   7.473   8.245   3.474 -1.2958  0.1329  2.4970
 8897SOL     OW38415   0.221  13.628   1.140 -0.2024 -0.0075 -0.2886
 8897SOL    HW138416   0.257  13.712   1.113 -1.8225  0.7159 -0.3258
 8897SOL    HW238417   0.288  13.564   1.117  0.9580  1.2418 -0.4809
 8898SOL     OW38418   0.836   3.410  13.385  0.1310 -0.3908 -0.1950
 8898SOL    HW138419   0.839   3.326  13.431 -0.1178 -0.9606 -1.1950
 8898SOL    HW238420   0.897   3.399  13.312 -0.7923 -0.1298 -1.0267
 8899SOL     OW38421  11.931   4.405   4.544 -0.1844  0.0254 -0.1535
 8899SOL    HW138422  11.947   4.411   4.449 -1.9095 -0.9287 -0.5434
 8899SOL    HW238423  11.944   4.313   4.564 -2.5014 -0.3218 -0.0326
 8900SOL     OW38424   0.184   8.529   2.928  0.0796 -0.1437  0.5016
 8900SOL    HW138425   0.230   8.600   2.974 -0.0409  0.1898  0.1099
 8900SOL    HW238426   0.183   8.556   2.837 -0.4235 -0.4062  0.4268
 8901SOL     OW38427   1.035   5.673   1.229  0.5055 -0.9836  0.4818
 8901SOL    HW138428   1.099   5.744   1.217 -0.9335  0.1548 -0.6912
 8901SOL    HW238429   1.034   5.659   1.324  1.7132 -0.3085  0.6248
 8902SOL     OW38430   2.275   1.064   1.277 -0.6942 -0.2004  0.3567
 8902SOL    HW138431   2.330   0.987   1.293  0.9108  0.5483 -1.1772
 8902SOL    HW238432   2.322   1.113   1.210 -2.4605  1.3431  0.1689
 8903SOL     OW38433  11.920  13.004   3.622 -0.2341 -0.1892  0.0673
 8903SOL    HW138434  11.911  12.935   3.687 -1.6013  0.4274  0.5579
 8903SOL    HW238435  11.908  12.959   3.538 -1.9761 -0.4342  0.4241
 8904SOL     OW38436   0.374   4.134   0.983 -0.3193  0.0332 -0.4051
 8904SOL    HW138437   0.394   4.128   0.889 -3.9296 -0.7586 -1.2712
 8904SOL    HW238438   0.343   4.046   1.006  1.3835 -0.0664  1.8790
 8905SOL     OW38439   0.397  11.582  12.884 -0.2824  0.1189  0.3581
 8905SOL    HW138440   0.443  11.610  12.805  1.1445  0.9505  1.4253
 8905SOL    HW238441   0.304  11.590  12.863  0.0813  1.0638 -0.9821
 8906SOL     OW38442   0.625   2.341  11.788  0.4600 -0.0335  0.3992
 8906SOL    HW138443   0.543   2.292  11.780  0.4156 -0.2262  1.6974
 8906SOL    HW238444   0.620   2.408  11.721 -1.5418  1.0027  1.5071
 8907SOL     OW38445  11.545  10.118   3.542  0.2157 -0.0841 -1.0668
 8907SOL    HW138446  11.534  10.032   3.502 -1.2532  0.5590 -2.0978
 8907SOL    HW238447  11.458  10.140   3.576  0.5990  0.9643 -0.7316
 8908SOL     OW38448  10.628   3.129   0.581  0.2952 -0.7670 -0.9160
 8908SOL    HW138449  10.629   3.041   0.544  0.6461 -0.6031 -1.2950
 8908SOL    HW238450  10.609   3.115   0.674 -0.7198 -1.1656 -1.1696
 8909SOL     OW38451   9.542   5.284  12.679 -0.2636  0.3305 -0.1580
 8909SOL    HW138452   9.550   5.379  12.686  2.0223  0.1395  0.3956
 8909SOL    HW238453   9.482   5.260  12.750  0.5718  1.1936  0.8671
 8910SOL     OW38454   2.676   6.936   6.054  0.5698  0.3979  0.7889
 8910SOL    HW138455   2.663   6.979   5.969  0.6155  1.4920  1.3083
 8910SOL    HW238456   2.748   6.876   6.039  0.9736  1.0077  0.1914
 8911SOL     OW38457  13.501   7.893   4.540  0.7047 -0.2077  0.1680
 8911SOL    HW138458  13.486   7.980   4.503  0.6773 -0.7248 -1.1012
 8911SOL    HW238459  13.415   7.851   4.539  0.6601 -0.1428  1.0643
 8912SOL     OW38460   2.438   0.743   9.557  0.3971  0.2599  0.1413
 8912SOL    HW138461   2.377   0.684   9.600  0.2530  1.6522  1.9740
 8912SOL    HW238462   2.521   0.729   9.603  0.7343  0.4049 -0.4163
 8913SOL     OW38463   5.792   8.468   7.060 -0.0748 -0.0060 -0.1781
 8913SOL    HW138464   5.875   8.516   7.066  0.1198 -0.2386 -0.9275
 8913SOL    HW238465   5.753   8.476   7.147  0.0114  1.3959 -0.2605
 8914SOL     OW38466   2.416   6.459   3.664  0.0498 -0.7866 -0.0782
 8914SOL    HW138467   2.475   6.488   3.734 -0.0557  0.0707 -0.3351
 8914SOL    HW238468   2.337   6.430   3.709  0.4377 -1.3889  0.2311
 8915SOL     OW38469  13.479   1.813  10.550 -0.2090 -0.1982 -0.4604
 8915SOL    HW138470  13.520   1.872  10.487 -0.1140  1.3396  0.9793
 8915SOL    HW238471  13.548   1.793  10.613 -1.0350  0.6702  0.7745
 8916SOL     OW38472   9.740   1.404   6.741 -0.6276  0.4200 -0.3091
 8916SOL    HW138473   9.818   1.428   6.690 -1.2797  0.6131 -1.2308
 8916SOL    HW238474   9.754   1.446   6.826  1.6736 -1.9821  0.6288
 8917SOL     OW38475   2.415   6.427   9.301  0.3370 -0.1022 -0.0439
 8917SOL    HW138476   2.408   6.520   9.324  1.5336  0.0196 -0.1200
 8917SOL    HW238477   2.501   6.419   9.260 -0.6803 -0.8109 -2.1709
 8918SOL     OW38478   8.634   8.181   7.466 -0.0553 -0.2326  0.4089
 8918SOL    HW138479   8.636   8.163   7.560 -1.1061  0.3254  0.5434
 8918SOL    HW238480   8.618   8.275   7.460  0.8976 -0.1039 -0.3315
 8919SOL     OW38481   1.794   4.238   0.368  0.1292  1.1301 -0.0635
 8919SOL    HW138482   1.885   4.265   0.356  0.4998  0.6741  1.4913
 8919SOL    HW238483   1.774   4.184   0.291  1.1671  1.2568 -0.4282
 8920SOL     OW38484   9.070   4.755  12.651 -0.3078 -0.6995  0.0789
 8920SOL    HW138485   9.073   4.737  12.745  0.6147 -2.5422 -0.2614
 8920SOL    HW238486   8.982   4.729  12.625 -1.1364  1.3147  0.6526
 8921SOL     OW38487  10.342  10.463   8.178 -0.3612 -0.1335  0.2484
 8921SOL    HW138488  10.411  10.495   8.236 -0.6297  0.7795  0.0708
 8921SOL    HW238489  10.324  10.536   8.119 -0.9005 -0.6538 -0.2422
 8922SOL     OW38490  12.831   5.105   6.460  1.2313 -0.2316 -0.1464
 8922SOL    HW138491  12.865   5.144   6.380  1.3173 -1.1005 -0.5471
 8922SOL    HW238492  12.892   5.132   6.528 -0.1150  2.5052  0.1105
 8923SOL     OW38493   0.590   2.934   9.717  0.1318  0.3903 -0.3370
 8923SOL    HW138494   0.552   2.961   9.800 -1.0853 -0.3521 -0.6202
 8923SOL    HW238495   0.647   2.861   9.739 -1.8977 -1.2988 -0.3581
 8924SOL     OW38496   3.054   0.704   6.898 -0.4043 -0.3032  0.3286
 8924SOL    HW138497   3.018   0.617   6.914 -2.0949 -0.2806 -2.5271
 8924SOL    HW238498   3.082   0.701   6.806  2.9657  1.1027  1.1829
 8925SOL     OW38499   1.449   3.659   6.796  0.5112 -0.2426 -0.3435
 8925SOL    HW138500   1.460   3.716   6.720  1.0492 -0.8511 -0.7307
 8925SOL    HW238501   1.357   3.670   6.820  0.3719  0.0823 -0.9773
 8926SOL     OW38502   7.353   1.318  12.324 -0.1895  0.2390  0.5988
 8926SOL    HW138503   7.298   1.318  12.246  0.4398 -1.9584  0.0924
 8926SOL    HW238504   7.442   1.301  12.291  0.3006  0.6077  1.6811
 8927SOL     OW38505  12.494  13.322   7.512 -0.2854 -0.3471 -0.4019
 8927SOL    HW138506  12.416  13.330   7.458 -0.2040 -0.3053 -0.5150
 8927SOL    HW238507  12.545  13.253   7.470 -0.0127 -0.0081 -0.6393
 8928SOL     OW38508   6.332   3.185  12.049 -0.2450 -0.3543 -0.3969
 8928SOL    HW138509   6.367   3.251  11.989  1.0674 -0.4281  0.2581
 8928SOL    HW238510   6.294   3.236  12.120 -0.4659 -0.2917 -0.5582
 8929SOL     OW38511  12.591  13.646   6.511  0.0688  0.2363 -0.6719
 8929SOL    HW138512  12.606  13.557   6.541  0.0703  0.0927 -1.0925
 8929SOL    HW238513  12.644  13.654   6.432  1.7053  1.2595  0.4703
 8930SOL     OW38514   0.578   6.047   5.210  0.3688  0.1930  0.5264
 8930SOL    HW138515   0.616   5.973   5.162  1.0303 -0.4092  1.9133
 8930SOL    HW238516   0.545   6.106   5.142  0.1430 -1.2072 -0.6192
 8931SOL     OW38517   0.975  11.514   1.044  0.1429 -0.1510  0.6787
 8931SOL    HW138518   0.951  11.453   0.975  0.9911  1.1270 -0.7954
 8931SOL    HW238519   1.035  11.464   1.100  1.2396 -0.5493 -0.7855
 8932SOL     OW38520   0.476   8.636   0.674 -0.5749 -0.1846 -0.1754
 8932SOL    HW138521   0.566   8.622   0.646  0.1138  1.0973  1.2480
 8932SOL    HW238522   0.427   8.650   0.593  0.4665 -0.9839 -0.9691
 8933SOL     OW38523   3.898  11.750   8.988 -0.0673  0.4751 -0.1433
 8933SOL    HW138524   3.960  11.760   8.916  1.2815 -0.1381  0.8860
 8933SOL    HW238525   3.813  11.773   8.950  0.8752  2.1104 -1.3993
 8934SOL     OW38526   7.958   5.142   0.746 -0.2950 -0.5268  0.4712
 8934SOL    HW138527   7.887   5.146   0.810 -0.5565 -1.6382  0.2635
 8934SOL    HW238528   8.037   5.129   0.799 -0.4782 -1.1716  0.5970
 8935SOL     OW38529  13.129   2.790  13.266 -0.1113  0.0116 -0.2517
 8935SOL    HW138530  13.055   2.760  13.214  0.4463 -0.7733 -0.6170
 8935SOL    HW238531  13.206   2.768  13.214  0.4246 -0.0842  0.5509
 8936SOL     OW38532   8.181   3.269   6.865  0.3627 -0.0437  0.5250
 8936SOL    HW138533   8.121   3.239   6.797 -0.5909 -0.1629  1.3864
 8936SOL    HW238534   8.233   3.192   6.887  0.3990 -0.1087  0.2149
 8937SOL     OW38535   0.082   8.655   4.085 -0.3535  0.1284 -0.3524
 8937SOL    HW138536   0.144   8.703   4.140  0.6814 -2.2734  0.7596
 8937SOL    HW238537  -0.002   8.696   4.103  0.0832  0.0397  2.4154
 8938SOL     OW38538   8.514  11.978  11.471  0.4707  0.5348  0.3004
 8938SOL    HW138539   8.551  11.932  11.546  2.5255  0.0502 -0.9406
 8938SOL    HW238540   8.500  11.910  11.405 -0.0308  1.1476 -0.2393
 8939SOL     OW38541  10.569  12.198   3.152  0.0233 -0.3415 -0.0260
 8939SOL    HW138542  10.483  12.158   3.166  0.8616 -2.7195 -1.0023
 8939SOL    HW238543  10.614  12.189   3.236 -1.3007  2.8423  1.1436
 8940SOL     OW38544  10.815   2.167  10.791 -0.3307  0.9329  0.2771
 8940SOL    HW138545  10.910   2.163  10.802 -0.2329  1.9503 -0.0697
 8940SOL    HW238546  10.783   2.213  10.868 -0.5427  0.6341  0.3709
 8941SOL     OW38547   3.807   6.232   7.491 -0.1623 -0.4972  0.3688
 8941SOL    HW138548   3.732   6.189   7.532 -1.3443 -0.1571 -1.3375
 8941SOL    HW238549   3.869   6.161   7.476 -0.7262 -1.0322  0.5122
 8942SOL     OW38550   2.362  10.220   9.009  0.1228  0.1252  0.3764
 8942SOL    HW138551   2.338  10.151   8.947  1.0612  0.1951 -0.0878
 8942SOL    HW238552   2.447  10.192   9.043  0.0647  0.5784  0.9072
 8943SOL     OW38553   5.886  10.323   0.250  0.3545  0.0852 -0.6436
 8943SOL    HW138554   5.939  10.319   0.330 -0.0757  1.8397 -0.2422
 8943SOL    HW238555   5.884  10.415   0.226 -1.2618 -0.1317 -1.5088
 8944SOL     OW38556   1.923  12.666  11.582  0.4159  0.2643  0.2106
 8944SOL    HW138557   1.907  12.726  11.655 -0.4049  0.8572 -0.4333
 8944SOL    HW238558   1.881  12.584  11.609 -2.0838  1.1916 -0.5813
 8945SOL     OW38559   8.875   0.748   3.556  0.5804  0.0771  0.1427
 8945SOL    HW138560   8.937   0.675   3.555  1.4847  0.8310  0.4014
 8945SOL    HW238561   8.795   0.710   3.593  1.2265 -0.6383  0.8412
 8946SOL     OW38562   4.198   9.390   6.624 -0.4594  0.8333  0.6285
 8946SOL    HW138563   4.252   9.312   6.610  0.3150  1.4750 -0.1657
 8946SOL    HW238564   4.133   9.387   6.554 -0.0677  1.1727  0.2357
 8947SOL     OW38565   1.918   0.672   1.901 -0.1552  0.3367 -0.4113
 8947SOL    HW138566   1.894   0.615   1.973  0.8614  1.6585  1.0510
 8947SOL    HW238567   1.874   0.755   1.921  1.6711  1.3145 -0.2165
 8948SOL     OW38568   8.878   0.337  10.098  0.1600  0.0047  0.5189
 8948SOL    HW138569   8.854   0.387  10.019  0.2467 -0.9473 -0.1251
 8948SOL    HW238570   8.795   0.310  10.136  0.1185  0.4442  0.7475
 8949SOL     OW38571   1.858   9.851   8.856 -0.0145 -0.2720  0.0964
 8949SOL    HW138572   1.913   9.828   8.780  1.2454  1.3629  0.4653
 8949SOL    HW238573   1.889   9.794   8.926 -1.3213 -1.9387 -0.6161
 8950SOL     OW38574   9.455   0.856   3.343 -0.1107 -0.2181  0.1906
 8950SOL    HW138575   9.519   0.802   3.297 -0.1070 -0.6861  0.7442
 8950SOL    HW238576   9.392   0.794   3.378 -1.3454  0.2857 -1.0452
 8951SOL     OW38577   7.605  13.300   3.501 -0.1056 -0.8271  0.0304
 8951SOL    HW138578   7.679  13.332   3.449 -0.2022  0.3965  0.5925
 8951SOL    HW238579   7.640  13.224   3.548  0.0863 -1.7052 -1.4991
 8952SOL     OW38580  12.989   0.545   8.710  0.1737  0.3571  0.5391
 8952SOL    HW138581  12.911   0.549   8.655  0.1845 -0.3171  0.4638
 8952SOL    HW238582  12.976   0.614   8.775 -0.5004  0.2239  0.5539
 8953SOL     OW38583   4.510  13.618  13.489  0.5285  0.2319  0.7623
 8953SOL    HW138584   4.518  13.541  13.545  0.5316  0.2461  0.7807
 8953SOL    HW238585   4.585  13.672  13.513 -0.1607  0.8292  1.6583
 8954SOL     OW38586   2.452   3.340   3.348  0.1787  0.2366 -0.3112
 8954SOL    HW138587   2.500   3.337   3.265  1.2185  2.1600  0.1363
 8954SOL    HW238588   2.461   3.431   3.377  0.3139 -0.4863  2.1612
 8955SOL     OW38589  11.626   6.186   5.530 -0.0920  0.3652  0.2354
 8955SOL    HW138590  11.679   6.256   5.569  0.5427 -0.2678  0.5339
 8955SOL    HW238591  11.640   6.195   5.436 -1.6995  1.9566  0.0908
 8956SOL     OW38592  10.064   0.819   0.212  0.1291  0.3281  0.0673
 8956SOL    HW138593  10.098   0.896   0.259  1.0470 -1.1255  1.9522
 8956SOL    HW238594  10.140   0.761   0.206 -0.5017 -0.3644 -1.5134
 8957SOL     OW38595   2.557  10.592   8.002  0.2406 -0.5320  0.1252
 8957SOL    HW138596   2.605  10.586   7.919  0.7386 -1.3920  0.4642
 8957SOL    HW238597   2.481  10.535   7.989  0.4598 -0.8767  0.3511
 8958SOL     OW38598   6.789  11.033  10.521 -0.3626  0.0857  0.2869
 8958SOL    HW138599   6.786  11.129  10.527 -1.1276  0.1218 -0.4957
 8958SOL    HW238600   6.711  11.004  10.567 -0.0441 -0.1798  0.6659
 8959SOL     OW38601  11.644   4.631   0.383 -0.4414 -0.4340  0.1099
 8959SOL    HW138602  11.678   4.683   0.310 -0.2460 -0.2762  0.3140
 8959SOL    HW238603  11.680   4.544   0.369 -0.5819 -0.4602 -0.1033
 8960SOL     OW38604   1.778   7.537   1.012  0.3025 -0.1003 -0.2111
 8960SOL    HW138605   1.714   7.466   1.014  0.0008  0.1736 -0.1459
 8960SOL    HW238606   1.726   7.617   1.004  0.6017  0.1788  0.5823
 8961SOL     OW38607   0.088   4.395   3.808 -0.1638  0.2445  0.3692
 8961SOL    HW138608   0.008   4.345   3.789  1.2363 -2.3213  0.7922
 8961SOL    HW238609   0.082   4.415   3.901 -0.2396 -0.1241  0.4460
 8962SOL     OW38610   8.829   5.584   7.075 -0.3837  0.1353 -0.0440
 8962SOL    HW138611   8.844   5.526   7.150 -1.5103  0.0615  0.1299
 8962SOL    HW238612   8.917   5.617   7.053  0.4082 -2.0866 -0.5393
 8963SOL     OW38613   8.770   0.060   6.070 -0.5304  0.0945 -0.5884
 8963SOL    HW138614   8.769   0.013   6.154  1.3818  0.0684 -0.5370
 8963SOL    HW238615   8.694   0.028   6.023 -2.8143  1.5005  1.8670
 8964SOL     OW38616   3.190  13.258   1.500  0.3256 -0.2147  0.3846
 8964SOL    HW138617   3.269  13.295   1.541 -1.1041  1.6270  1.6343
 8964SOL    HW238618   3.118  13.308   1.537 -1.2942 -0.0820 -2.6415
 8965SOL     OW38619  13.332   6.377   0.952  0.0103 -0.2387 -0.0511
 8965SOL    HW138620  13.260   6.393   0.890 -0.4215  0.5702  0.6275
 8965SOL    HW238621  13.393   6.449   0.936 -1.4067  1.6341  2.2727
 8966SOL     OW38622   5.530  10.463   4.607  0.0918 -0.2566 -0.0368
 8966SOL    HW138623   5.527  10.391   4.544  0.2637 -1.2825  1.0930
 8966SOL    HW238624   5.444  10.505   4.599 -0.4188 -1.2593  0.0349
 8967SOL     OW38625   8.385   0.224   4.906  0.4835  0.0351  0.5310
 8967SOL    HW138626   8.378   0.213   5.001 -2.0278 -0.4984  0.3382
 8967SOL    HW238627   8.433   0.306   4.895 -0.5696  0.9410  2.2812
 8968SOL     OW38628  11.966   5.008   4.590  0.1262 -0.2024  0.3661
 8968SOL    HW138629  12.020   4.942   4.548  2.0698 -0.6924  3.3711
 8968SOL    HW238630  11.878   4.971   4.590  0.7550 -1.7551 -0.0110
 8969SOL     OW38631  10.020  13.445   2.909 -0.4803  0.0195  0.3306
 8969SOL    HW138632  10.065  13.517   2.953  0.0840 -0.8512  1.2235
 8969SOL    HW238633  10.012  13.474   2.818 -0.1844  1.1631  0.6524
 8970SOL     OW38634  10.258   1.745   0.308 -0.3324 -0.3437 -0.1262
 8970SOL    HW138635  10.209   1.663   0.303  1.0880 -1.1462 -2.0617
 8970SOL    HW238636  10.288   1.749   0.399 -3.6485  0.0910  1.1138
 8971SOL     OW38637   9.638   3.770   0.164 -0.4418 -0.3937 -0.2649
 8971SOL    HW138638   9.661   3.677   0.156 -0.3935 -0.3478 -0.7106
 8971SOL    HW238639   9.721   3.814   0.185 -0.3515 -0.3849 -0.6228
 8972SOL     OW38640  10.298   7.753   8.326  0.8059 -0.2011  0.2824
 8972SOL    HW138641  10.211   7.727   8.356  0.5167  1.2550  0.7813
 8972SOL    HW238642  10.309   7.709   8.242 -1.0484  0.7719 -0.5192
 8973SOL     OW38643  12.342   3.451   0.285  0.2831 -0.2838  0.0033
 8973SOL    HW138644  12.378   3.406   0.208  0.3916 -1.7464  0.8793
 8973SOL    HW238645  12.419   3.470   0.339  0.1242  0.0186  0.1227
 8974SOL     OW38646   8.209   0.878   2.110 -0.3751  0.0411  0.3269
 8974SOL    HW138647   8.133   0.820   2.108  0.2537 -0.7835 -0.8413
 8974SOL    HW238648   8.281   0.823   2.142  0.1141  0.3143 -0.2784
 8975SOL     OW38649  13.469   8.765   9.760 -0.1995  0.8220  0.6254
 8975SOL    HW138650  13.542   8.827   9.757  0.7203 -0.2524 -0.0295
 8975SOL    HW238651  13.421   8.781   9.679  0.8812 -0.2975 -0.2498
 8976SOL     OW38652   2.164   4.344  12.858 -0.0034  0.0660  0.3273
 8976SOL    HW138653   2.253   4.309  12.853  0.2182  0.6811 -0.4067
 8976SOL    HW238654   2.122   4.296  12.929  0.9838 -0.0922  0.8221
 8977SOL     OW38655   1.867   2.702   2.002 -0.0182 -0.0114 -0.1020
 8977SOL    HW138656   1.869   2.686   2.096 -0.6337  2.9738  0.5541
 8977SOL    HW238657   1.780   2.672   1.975  0.1588 -0.8811  0.2792
 8978SOL     OW38658  12.323   6.476   7.426  0.2372  0.1382 -0.6389
 8978SOL    HW138659  12.266   6.406   7.460  2.7745 -1.7594  0.0369
 8978SOL    HW238660  12.411   6.448   7.450  1.3687  4.3797  1.1092
 8979SOL     OW38661  13.717   9.798   9.859 -0.4265 -0.0146 -0.4378
 8979SOL    HW138662  13.623   9.811   9.857 -0.5775 -1.0689 -0.8043
 8979SOL    HW238663  13.735   9.740   9.786  0.6915  1.2109 -1.1798
 8980SOL     OW38664   8.589   3.745   3.094  0.1377 -0.2067  0.1252
 8980SOL    HW138665   8.538   3.721   3.171 -2.8201 -0.5452 -1.7506
 8980SOL    HW238666   8.669   3.784   3.129 -0.2718 -1.8847  3.3071
 8981SOL     OW38667  13.584   8.972   4.358  0.4567  0.0590 -0.2268
 8981SOL    HW138668  13.581   8.904   4.291 -1.5735 -0.7076  0.5811
 8981SOL    HW238669  13.513   9.032   4.335 -1.5473 -1.2238  2.1898
 8982SOL     OW38670  12.421  10.258  13.189  0.0330  0.1280 -0.0756
 8982SOL    HW138671  12.346  10.246  13.131  0.8351 -0.5215 -1.0182
 8982SOL    HW238672  12.447  10.170  13.214 -0.5143  0.4134  1.5919
 8983SOL     OW38673   5.098   8.828  13.218 -0.0164 -0.5925  1.2050
 8983SOL    HW138674   5.043   8.752  13.203 -0.4684 -0.4184  1.9345
 8983SOL    HW238675   5.186   8.798  13.197 -0.3926 -0.8386 -0.0900
 8984SOL     OW38676   4.533   5.321  11.688  0.0719 -0.1603  0.0544
 8984SOL    HW138677   4.607   5.371  11.655  0.7349 -0.6462  0.7910
 8984SOL    HW238678   4.482   5.383  11.740 -0.0572  0.1746 -0.4627
 8985SOL     OW38679   8.367   8.557   7.525  0.6402 -0.7788  0.4360
 8985SOL    HW138680   8.447   8.507   7.507  0.6786 -0.6738  0.3208
 8985SOL    HW238681   8.397   8.631   7.577  0.4304 -1.5082  1.6533
 8986SOL     OW38682  11.538   6.790  10.872  0.5872 -0.5989 -0.2088
 8986SOL    HW138683  11.519   6.717  10.932  2.8334 -0.8449  0.2651
 8986SOL    HW238684  11.569   6.748  10.792  1.6425 -0.2008 -0.0273
 8987SOL     OW38685   2.112   1.917   8.262  0.4592 -0.3231  0.3707
 8987SOL    HW138686   2.074   1.849   8.207  1.5419 -0.0802 -0.7164
 8987SOL    HW238687   2.037   1.955   8.308 -0.5483 -0.2574 -1.2412
 8988SOL     OW38688  13.478   6.786   8.436 -0.0796  0.1715 -0.1855
 8988SOL    HW138689  13.496   6.846   8.364  1.2992 -0.1550 -0.1426
 8988SOL    HW238690  13.400   6.822   8.479  0.5543  1.7681 -0.3238
 8989SOL     OW38691   1.807   6.911   0.304 -0.1055  0.5269 -0.3070
 8989SOL    HW138692   1.728   6.858   0.317 -0.0491  0.4332 -0.3485
 8989SOL    HW238693   1.817   6.918   0.209  0.0955  0.3012 -0.3031
 8990SOL     OW38694  10.745   2.165  12.363  0.5922  0.0827  0.0177
 8990SOL    HW138695  10.838   2.167  12.340  0.2254 -0.1846 -1.6423
 8990SOL    HW238696  10.730   2.248  12.408  1.3102  0.8634 -1.1348
 8991SOL     OW38697  11.416  11.464  12.747  0.7583 -0.0999 -0.2540
 8991SOL    HW138698  11.398  11.426  12.662 -1.4524  0.2737 -0.0074
 8991SOL    HW238699  11.357  11.419  12.807 -0.1576  1.9313  0.4697
 8992SOL     OW38700  10.951   9.595   9.331 -0.3148  0.3036 -0.2918
 8992SOL    HW138701  10.901   9.665   9.289  0.9096  0.1278 -2.1820
 8992SOL    HW238702  10.926   9.599   9.423 -1.9957  1.7202 -0.7546
 8993SOL     OW38703   3.007   4.312   8.161  0.3795 -0.2676 -0.5327
 8993SOL    HW138704   3.075   4.258   8.201 -0.5860 -1.5533 -0.5469
 8993SOL    HW238705   2.930   4.255   8.158 -0.6879  1.1171 -0.5853
 8994SOL     OW38706   4.416   9.422   5.982  0.1680  0.5243 -0.1809
 8994SOL    HW138707   4.417   9.496   5.921  0.6267  1.4795  0.9366
 8994SOL    HW238708   4.507   9.407   6.004  0.0640 -0.2964 -0.2890
 8995SOL     OW38709  11.635  13.318   3.447 -0.3102  1.2556 -0.0767
 8995SOL    HW138710  11.582  13.248   3.487  0.7007 -0.9718 -2.3643
 8995SOL    HW238711  11.720  13.310   3.490  0.0880  0.3832 -0.9829
 8996SOL     OW38712   1.545  13.429  12.256 -0.1872 -0.0125  0.4157
 8996SOL    HW138713   1.526  13.479  12.336 -0.9333  1.3342 -0.5702
 8996SOL    HW238714   1.612  13.480  12.211  2.5741 -2.3232  1.5883
 8997SOL     OW38715  12.803   1.610   0.853  0.9066  0.3313  0.4539
 8997SOL    HW138716  12.742   1.557   0.905  0.3143 -1.7836 -2.1940
 8997SOL    HW238717  12.885   1.561   0.856  1.1353  0.6905  0.1756
 8998SOL     OW38718   1.231  12.692  12.041  0.2522  0.2156  0.2934
 8998SOL    HW138719   1.180  12.771  12.022  1.1290  1.1057  1.4253
 8998SOL    HW238720   1.212  12.673  12.133 -0.4944 -1.3432 -0.1562
 8999SOL     OW38721   4.971   3.119   9.391 -0.6853 -0.1386 -0.3047
 8999SOL    HW138722   4.885   3.086   9.366 -0.4827 -0.5919 -0.4182
 8999SOL    HW238723   5.033   3.056   9.353 -0.2947  0.3066 -0.4230
 9000SOL     OW38724   7.523   3.425  11.867 -0.1479 -0.2195 -0.0944
 9000SOL    HW138725   7.538   3.443  11.774 -0.0956 -0.3802 -0.1181
 9000SOL    HW238726   7.526   3.330  11.873 -0.3522 -0.2164  0.0400
 9001SOL     OW38727  13.538   2.875   1.570  0.3618 -0.3579  0.1826
 9001SOL    HW138728  13.474   2.848   1.636  0.3340 -0.6280  0.0483
 9001SOL    HW238729  13.523   2.816   1.496 -0.8159  1.0678 -0.7893
 9002SOL     OW38730   0.861  11.921   2.512 -0.2555 -0.4021  0.1370
 9002SOL    HW138731   0.828  11.885   2.594  1.3898 -0.7527  0.6996
 9002SOL    HW238732   0.783  11.943   2.461 -1.3201 -0.0838  1.8371
 9003SOL     OW38733   6.157  10.067   0.816 -0.2044  0.8302  0.0451
 9003SOL    HW138734   6.076  10.053   0.865 -0.0020 -0.9047 -0.0718
 9003SOL    HW238735   6.141  10.028   0.731  0.3361  1.5815 -0.4108
 9004SOL     OW38736   4.363   4.919   9.202 -0.1798 -0.0573 -0.0741
 9004SOL    HW138737   4.345   4.834   9.242 -0.0854 -0.9472 -1.8181
 9004SOL    HW238738   4.277   4.962   9.198  0.0501  0.8133  2.5895
 9005SOL     OW38739   1.815  11.230   0.273  0.1662  0.1935 -0.5844
 9005SOL    HW138740   1.757  11.161   0.306 -0.5994  0.0392 -2.1174
 9005SOL    HW238741   1.772  11.260   0.193  1.1251  1.6029 -0.6049
 9006SOL     OW38742   8.839   3.572   7.946 -0.3353 -0.2133 -0.5617
 9006SOL    HW138743   8.861   3.664   7.965 -0.1978 -0.4515  0.4859
 9006SOL    HW238744   8.850   3.564   7.851 -1.8790  1.2548 -0.9166
 9007SOL     OW38745   3.123   1.705   3.169  0.0479  0.1476 -0.6397
 9007SOL    HW138746   3.092   1.635   3.111 -0.2560 -0.1020 -0.1809
 9007SOL    HW238747   3.047   1.727   3.223  0.5634 -0.2276  0.2668
 9008SOL     OW38748   6.509  12.454   6.066  0.3309  0.5414 -0.2697
 9008SOL    HW138749   6.486  12.380   6.010  2.2884 -0.7378  0.5073
 9008SOL    HW238750   6.572  12.504   6.015  1.7871 -0.3868  0.5564
 9009SOL     OW38751  12.722   6.143  11.833 -0.3226 -0.0598 -0.0754
 9009SOL    HW138752  12.664   6.208  11.873 -2.0439 -1.1101 -0.7657
 9009SOL    HW238753  12.739   6.079  11.902 -0.1839  0.1173  0.0554
 9010SOL     OW38754  10.801   0.792   2.297 -0.5579  0.0208  0.8103
 9010SOL    HW138755  10.744   0.742   2.355  1.4616 -1.0570  1.9971
 9010SOL    HW238756  10.794   0.882   2.330  0.2445 -0.5081  2.5494
 9011SOL     OW38757  12.242   7.473  12.135  0.0333 -0.4844  0.2996
 9011SOL    HW138758  12.244   7.417  12.213  1.0330  0.7387  1.1753
 9011SOL    HW238759  12.333   7.492  12.116  0.1441 -3.4873 -3.2724
 9012SOL     OW38760   4.633  11.351  13.189  0.2101  0.4281 -0.1191
 9012SOL    HW138761   4.574  11.289  13.231 -1.0204  1.1116 -0.7673
 9012SOL    HW238762   4.716  11.304  13.182  0.2285 -0.0007  2.2536
 9013SOL     OW38763   8.346   8.494   5.680 -0.6662 -0.5783  0.4508
 9013SOL    HW138764   8.347   8.583   5.715  0.1911 -0.5397  0.3549
 9013SOL    HW238765   8.438   8.466   5.681 -0.3525 -0.1329 -2.8385
 9014SOL     OW38766   1.048   6.804   7.686  0.7947 -0.2408 -0.0516
 9014SOL    HW138767   1.051   6.710   7.666 -1.1839  0.0988 -2.5051
 9014SOL    HW238768   1.106   6.844   7.621  1.3461  0.2832  0.7446
 9015SOL     OW38769   5.136   3.241   2.243 -0.4450  0.2137  0.2866
 9015SOL    HW138770   5.042   3.234   2.228 -0.6721 -3.3241  2.1293
 9015SOL    HW238771   5.145   3.309   2.309 -1.7510  0.4701  0.2235
 9016SOL     OW38772   3.367   8.179   3.764 -0.2379  0.3611 -0.6980
 9016SOL    HW138773   3.344   8.099   3.810  0.1485  0.5525 -0.1576
 9016SOL    HW238774   3.283   8.217   3.739 -0.4036 -0.6654 -1.7794
 9017SOL     OW38775  13.539   5.760   4.526 -0.2102  0.0670  0.0216
 9017SOL    HW138776  13.599   5.826   4.561  0.7414 -1.2467  0.9891
 9017SOL    HW238777  13.463   5.763   4.583  0.2807 -0.3655  0.7154
 9018SOL     OW38778   5.707  10.655   4.364 -0.3865  0.1206  0.3611
 9018SOL    HW138779   5.795  10.690   4.349  0.0356 -0.8649  0.4133
 9018SOL    HW238780   5.719  10.590   4.433 -1.4207  0.9923  1.4030
 9019SOL     OW38781  13.069   0.130   4.363  0.3462 -0.6947 -0.2017
 9019SOL    HW138782  13.114   0.205   4.402 -0.8115 -0.3087  0.4432
 9019SOL    HW238783  13.122   0.107   4.287  1.4785 -0.0985  0.3801
 9020SOL     OW38784   2.805  10.615   8.174 -0.0116 -0.1513 -0.4727
 9020SOL    HW138785   2.756  10.589   8.251 -0.0102  0.1828 -0.3590
 9020SOL    HW238786   2.746  10.596   8.100 -0.4295  0.5223 -0.3186
 9021SOL     OW38787   8.596  11.752   7.766  0.5980  0.3668  0.0181
 9021SOL    HW138788   8.614  11.845   7.750  0.6456  0.4305  0.4283
 9021SOL    HW238789   8.521  11.752   7.825 -0.1051  0.1220 -0.8563
 9022SOL     OW38790   1.104  10.211   7.840  0.1470 -0.2859  0.1166
 9022SOL    HW138791   1.075  10.124   7.867  2.2432 -0.3111  2.6665
 9022SOL    HW238792   1.049  10.272   7.889  1.5318 -0.2978  1.7838
 9023SOL     OW38793   8.715   0.608  12.080  0.0122  0.9067 -0.1490
 9023SOL    HW138794   8.632   0.653  12.065 -0.9360  0.0507  2.0122
 9023SOL    HW238795   8.709   0.529  12.026 -1.4501 -0.0541  1.2973
 9024SOL     OW38796   4.941   9.565   8.955  0.3891 -0.0540 -0.4668
 9024SOL    HW138797   4.946   9.578   9.050 -0.0325  1.0284 -0.5733
 9024SOL    HW238798   4.960   9.651   8.918  0.8330 -0.5347 -1.3783
 9025SOL     OW38799   0.223   2.087   9.456  0.4178  0.1969 -0.2838
 9025SOL    HW138800   0.313   2.082   9.488  1.0637  0.0214 -2.0137
 9025SOL    HW238801   0.210   2.005   9.409 -0.6631  0.2143 -0.0235
 9026SOL     OW38802  10.663   4.762   0.943 -0.3724 -0.0344  0.0180
 9026SOL    HW138803  10.726   4.752   0.871  1.0912 -1.1222  1.3835
 9026SOL    HW238804  10.628   4.674   0.957  0.0876 -0.0463  1.2402
 9027SOL     OW38805  10.317   3.256   3.866  0.2872  0.1834 -0.1369
 9027SOL    HW138806  10.288   3.171   3.901  1.3742 -0.1445  0.0173
 9027SOL    HW238807  10.413   3.252   3.871  0.4938  0.3487 -2.6486
 9028SOL     OW38808   4.906   2.545   9.069  0.1381  0.4864  0.4217
 9028SOL    HW138809   4.956   2.576   8.994 -0.2242  1.1648  0.4516
 9028SOL    HW238810   4.971   2.530   9.137  0.2643  1.8142  0.6112
 9029SOL     OW38811   5.742   4.896  11.365  0.3568 -0.5893 -0.4436
 9029SOL    HW138812   5.731   4.897  11.460  0.1901  1.3658 -0.4509
 9029SOL    HW238813   5.701   4.815  11.337  0.6390 -1.3322  1.1710
 9030SOL     OW38814   6.063   0.955  12.005  0.4858 -0.5709 -0.4806
 9030SOL    HW138815   6.148   0.991  11.979 -1.0666  2.0794 -2.4015
 9030SOL    HW238816   6.030   1.015  12.072 -0.1059 -1.2553 -0.1459
 9031SOL     OW38817   6.373   2.109   1.788 -0.5518 -0.9222  0.1905
 9031SOL    HW138818   6.289   2.084   1.828 -0.0776 -1.7450  0.7042
 9031SOL    HW238819   6.435   2.108   1.860  0.2678 -2.1743 -0.4990
 9032SOL     OW38820   8.951  10.749  11.642 -0.0206  0.0177 -0.4640
 9032SOL    HW138821   8.955  10.748  11.737 -0.2090 -0.2005 -0.4576
 9032SOL    HW238822   9.006  10.675  11.615  1.0564  0.8355 -0.5656
 9033SOL     OW38823   7.298   2.923  10.901 -0.0823 -0.1430 -0.1720
 9033SOL    HW138824   7.226   2.905  10.962  0.2913 -1.6060 -0.1298
 9033SOL    HW238825   7.367   2.960  10.955 -1.1301  2.3348 -0.3769
 9034SOL     OW38826  12.712   9.441  13.375 -0.0081 -0.0934 -0.2274
 9034SOL    HW138827  12.662   9.395  13.442  0.9187 -0.9987 -0.1364
 9034SOL    HW238828  12.714   9.380  13.301 -2.3094  1.4673 -1.7202
 9035SOL     OW38829   6.885   8.305  11.518  0.5757 -0.1838  0.4322
 9035SOL    HW138830   6.854   8.307  11.608  0.1295  0.4948  0.2680
 9035SOL    HW238831   6.825   8.362  11.470 -2.5810 -4.4003 -1.3785
 9036SOL     OW38832   4.565  10.622   6.912  0.2127  0.6013  0.4360
 9036SOL    HW138833   4.588  10.708   6.875  1.3846 -0.3030 -1.0800
 9036SOL    HW238834   4.618  10.616   6.991  2.0334  0.3346 -0.7389
 9037SOL     OW38835  12.508   6.368   2.630  0.0856  0.1850 -0.7179
 9037SOL    HW138836  12.576   6.309   2.662  1.0869  1.4007 -0.5369
 9037SOL    HW238837  12.436   6.358   2.693  0.5965 -0.1695 -0.1751
 9038SOL     OW38838   3.031   7.008   1.302  0.3856  0.5140  0.4706
 9038SOL    HW138839   3.118   7.046   1.298  1.1238 -1.0050  1.1815
 9038SOL    HW238840   2.980   7.071   1.353  0.5453  2.2500 -1.3818
 9039SOL     OW38841   9.701  10.741   1.550 -0.3059  0.0262 -0.4560
 9039SOL    HW138842   9.650  10.666   1.519 -1.2715  0.5823 -0.2566
 9039SOL    HW238843   9.636  10.801   1.586  0.3369  1.4147 -1.5181
 9040SOL     OW38844   3.108   8.191  10.262 -0.1792 -0.4375 -0.3836
 9040SOL    HW138845   3.049   8.131  10.217 -0.1880 -0.3986 -0.4254
 9040SOL    HW238846   3.076   8.278  10.238 -0.2252 -0.4169 -0.2459
 9041SOL     OW38847   6.509   6.338   9.834 -0.3822 -0.4677  0.0544
 9041SOL    HW138848   6.506   6.356   9.740 -2.9438 -0.8399 -0.0054
 9041SOL    HW238849   6.596   6.368   9.861  0.3643 -0.1850 -2.3759
 9042SOL     OW38850   8.105   5.435   7.713  0.3166 -0.2971 -0.5511
 9042SOL    HW138851   8.139   5.354   7.673  1.2051 -0.4474  0.4765
 9042SOL    HW238852   8.180   5.494   7.716 -0.0255  0.1270 -0.1501
 9043SOL     OW38853  11.004   7.459  13.605  0.0996  0.2847  0.1824
 9043SOL    HW138854  11.038   7.370  13.598 -1.6213 -0.5436  1.5140
 9043SOL    HW238855  10.958   7.461  13.689 -0.4322  2.2453 -0.0981
 9044SOL     OW38856   3.774   8.978   9.558 -0.6572 -0.3194  0.2974
 9044SOL    HW138857   3.833   8.933   9.498 -1.8832 -3.3555  1.1909
 9044SOL    HW238858   3.830   9.012   9.627  0.2418 -1.3179  0.0739
 9045SOL     OW38859   1.268   5.944   3.928  0.2335 -0.0073 -0.2563
 9045SOL    HW138860   1.238   5.956   3.838  0.6391 -1.2629 -0.5863
 9045SOL    HW238861   1.189   5.925   3.978 -0.0277  0.9676 -0.2849
 9046SOL     OW38862   1.480  11.446   5.891  0.0567 -0.6108 -0.6787
 9046SOL    HW138863   1.528  11.373   5.932 -2.5552 -1.7333  0.5914
 9046SOL    HW238864   1.475  11.513   5.959 -0.2222 -0.5305 -0.7776
 9047SOL     OW38865  12.727   5.281   1.922  0.0837 -0.4339 -0.4230
 9047SOL    HW138866  12.735   5.376   1.917  2.0357 -0.5937 -1.1199
 9047SOL    HW238867  12.809   5.252   1.962 -1.0894 -1.7490  1.1637
 9048SOL     OW38868   1.536   2.679   9.977  0.6201  0.2174  0.1623
 9048SOL    HW138869   1.549   2.749  10.041 -1.2294 -1.3055  2.3788
 9048SOL    HW238870   1.449   2.696   9.940 -0.4271 -1.4640  1.6592
 9049SOL     OW38871   6.856   6.653   9.576  0.6034 -0.0935 -0.0737
 9049SOL    HW138872   6.911   6.663   9.654 -0.2182 -0.5254  0.5803
 9049SOL    HW238873   6.869   6.561   9.550  1.3725  0.2198 -0.8431
 9050SOL     OW38874   9.449   2.313  12.345  0.0310 -0.5016 -0.0896
 9050SOL    HW138875   9.457   2.227  12.304 -0.2754 -0.6854  0.2247
 9050SOL    HW238876   9.359   2.340  12.326 -0.7360 -1.3958  1.9512
 9051SOL     OW38877   9.948   7.895   5.353  0.0601  0.5325 -0.8037
 9051SOL    HW138878   9.975   7.803   5.358 -1.0701  0.1616 -1.2162
 9051SOL    HW238879   9.942   7.924   5.444  1.1907  0.4434 -0.6906
 9052SOL     OW38880  12.758   3.011   8.616 -0.0064  0.6009 -0.3072
 9052SOL    HW138881  12.744   3.101   8.585  0.0281  0.8288  0.3248
 9052SOL    HW238882  12.827   2.977   8.559 -0.2826  0.8405 -0.7967
 9053SOL     OW38883   2.548   1.810  12.222  0.0052 -0.2651 -0.6049
 9053SOL    HW138884   2.478   1.856  12.268 -0.9667 -1.2935 -1.0065
 9053SOL    HW238885   2.618   1.874  12.213 -0.4239  0.4296  0.8534
 9054SOL     OW38886  12.057   8.707   7.746  0.1278 -0.4217  0.0058
 9054SOL    HW138887  12.054   8.792   7.704  1.6005 -0.7267 -0.7788
 9054SOL    HW238888  12.010   8.719   7.829  0.7444  1.2777  0.1383
 9055SOL     OW38889   5.610   8.306  10.629 -0.1797 -0.1612 -0.2200
 9055SOL    HW138890   5.687   8.351  10.664 -0.0121 -0.6237  0.0030
 9055SOL    HW238891   5.562   8.375  10.582  0.6479  0.0169 -0.8275
 9056SOL     OW38892   8.105   6.223   0.062  0.4993 -0.0062 -0.3215
 9056SOL    HW138893   8.188   6.189   0.096  0.5677 -1.0549 -1.4663
 9056SOL    HW238894   8.039   6.163   0.097  0.1300  1.1526  1.0501
 9057SOL     OW38895   1.822   4.863  11.296  0.2697  0.0336  0.1816
 9057SOL    HW138896   1.820   4.955  11.324 -1.1843 -0.2824  1.2027
 9057SOL    HW238897   1.738   4.851  11.250  1.0165 -0.4590 -1.1044
 9058SOL     OW38898  11.439  11.484   1.091 -0.4785 -0.5286  0.0041
 9058SOL    HW138899  11.447  11.526   1.005 -1.1037 -0.8975 -0.2351
 9058SOL    HW238900  11.463  11.554   1.153 -1.7683  0.2796 -0.3786
 9059SOL     OW38901   2.292   1.699  10.367  0.2322  0.2636  0.4131
 9059SOL    HW138902   2.208   1.683  10.323  1.0008 -1.4681 -0.5649
 9059SOL    HW238903   2.270   1.745  10.447 -1.6556 -0.1246  0.1517
 9060SOL     OW38904   0.541  12.348  10.489 -0.2307 -0.3251 -0.1991
 9060SOL    HW138905   0.495  12.413  10.542 -1.8794 -0.4736 -1.3614
 9060SOL    HW238906   0.556  12.274  10.548  1.2273  0.8724  1.0074
 9061SOL     OW38907  10.160   1.687  13.340  0.3161 -0.1542 -0.3597
 9061SOL    HW138908  10.117   1.614  13.295 -0.6974  0.7883 -0.9387
 9061SOL    HW238909  10.166   1.756  13.274  1.4659  0.2301  0.1237
 9062SOL     OW38910   4.204   3.490   8.566 -0.1435 -0.3535 -0.1028
 9062SOL    HW138911   4.277   3.547   8.587 -0.9830  0.7053  0.0355
 9062SOL    HW238912   4.128   3.533   8.605 -0.7869 -1.6387  0.1222
 9063SOL     OW38913   1.185   7.467   2.700  0.2983 -0.5298  0.3249
 9063SOL    HW138914   1.222   7.526   2.766  2.0809 -0.8857 -0.2896
 9063SOL    HW238915   1.176   7.383   2.745  1.2701 -0.7066  0.2056
 9064SOL     OW38916   9.971   5.521   8.714 -1.1657  0.1977 -0.0512
 9064SOL    HW138917  10.021   5.475   8.781 -1.8899  1.9858  1.8489
 9064SOL    HW238918  10.024   5.513   8.634  0.6945 -0.4328  1.1760
 9065SOL     OW38919   2.288  12.613   1.516  0.0873 -0.5114  0.1360
 9065SOL    HW138920   2.243  12.665   1.583 -0.3699  0.4098 -0.8577
 9065SOL    HW238921   2.336  12.547   1.566 -0.2346  0.1463  1.3716
 9066SOL     OW38922  13.063  13.596   1.054  0.2663  0.4399 -0.5245
 9066SOL    HW138923  13.018  13.520   1.017 -0.0211  0.2399  0.2110
 9066SOL    HW238924  13.145  13.602   1.006  0.4933 -0.6118 -0.2808
 9067SOL     OW38925   7.516   4.779  12.971 -0.2405 -0.0126 -0.0870
 9067SOL    HW138926   7.503   4.759  12.878 -0.7572  1.7732 -0.4267
 9067SOL    HW238927   7.579   4.713  13.001 -0.4865 -0.9588 -1.5533
 9068SOL     OW38928  11.407   9.442  12.056  0.4901 -0.3152  0.0301
 9068SOL    HW138929  11.407   9.517  12.115  0.0309  0.3601 -0.8021
 9068SOL    HW238930  11.449   9.475  11.977  1.2527 -1.2574  0.0317
 9069SOL     OW38931   0.139  13.522  10.646 -0.0977  0.0357 -0.0926
 9069SOL    HW138932   0.195  13.596  10.623  0.6606 -0.3921  0.3077
 9069SOL    HW238933   0.120  13.479  10.563  0.1223  0.2276 -0.2434
 9070SOL     OW38934   1.726   1.238  10.382  0.3575  0.2429  0.0879
 9070SOL    HW138935   1.819   1.219  10.379  0.5357  0.9687  0.7119
 9070SOL    HW238936   1.691   1.201  10.301  1.2836  0.4618 -0.4217
 9071SOL     OW38937   0.692   7.283   2.590 -0.0830 -0.0542 -0.1462
 9071SOL    HW138938   0.685   7.336   2.511  0.5109  0.0193 -0.1502
 9071SOL    HW238939   0.626   7.214   2.579  0.7088 -0.6694 -1.1903
 9072SOL     OW38940   3.591  11.930   7.401  0.3890 -0.3355 -0.0472
 9072SOL    HW138941   3.623  12.010   7.443 -0.4298 -0.2239  0.3938
 9072SOL    HW238942   3.639  11.926   7.318  0.0401  0.9422 -0.3527
 9073SOL     OW38943   9.192   5.250   3.036 -0.1413 -0.3386  0.5272
 9073SOL    HW138944   9.264   5.274   3.095 -0.8798 -0.2537  1.4226
 9073SOL    HW238945   9.199   5.155   3.028  0.0541 -0.3349  0.6378
 9074SOL     OW38946   4.303  10.430   7.507 -0.7427 -0.3912 -0.3133
 9074SOL    HW138947   4.300  10.410   7.601  3.6900 -0.0681  0.1375
 9074SOL    HW238948   4.306  10.345   7.464  1.7817 -0.6945  0.3124
 9075SOL     OW38949  12.892   4.440   4.150  0.0422 -0.4400  0.1555
 9075SOL    HW138950  12.882   4.522   4.103 -0.7038  0.0055  1.0595
 9075SOL    HW238951  12.946   4.386   4.093  1.7503  1.1560  0.1716
 9076SOL     OW38952  10.663   8.168  13.649  0.8918 -0.0094  0.1369
 9076SOL    HW138953  10.593   8.233  13.639 -0.1577 -1.0922  0.1315
 9076SOL    HW238954  10.735   8.215  13.691  0.1463  1.1281  0.1787
 9077SOL     OW38955   8.633   7.444  11.196 -0.6492 -0.9214  0.4832
 9077SOL    HW138956   8.709   7.458  11.253 -0.6593 -1.5244  0.6497
 9077SOL    HW238957   8.641   7.512  11.129  0.7695 -1.7778 -0.2680
 9078SOL     OW38958   6.030   9.259   8.930  0.5830  0.1207  0.2204
 9078SOL    HW138959   5.937   9.245   8.914  0.6132 -3.8756  2.3456
 9078SOL    HW238960   6.034   9.338   8.984 -1.5698  0.3155  0.1816
 9079SOL     OW38961   6.362   0.198   6.672  0.7325 -0.3682 -0.2636
 9079SOL    HW138962   6.353   0.222   6.764 -0.2869 -0.5230 -0.3058
 9079SOL    HW238963   6.382   0.281   6.628 -1.0062  0.1338 -0.1794
 9080SOL     OW38964  13.590   4.710   0.315  0.5600  0.8276 -0.1996
 9080SOL    HW138965  13.567   4.648   0.245  0.6826  1.3954 -0.7534
 9080SOL    HW238966  13.522   4.697   0.381 -0.9409  1.8993 -1.4385
 9081SOL     OW38967   8.742   2.383   9.621  0.4174  0.3997 -0.3350
 9081SOL    HW138968   8.675   2.402   9.687 -0.1107  0.3080 -0.8427
 9081SOL    HW238969   8.723   2.442   9.549 -1.4316 -2.1296 -2.0734
 9082SOL     OW38970   9.347   9.741   5.671  0.0306 -0.2257  0.2797
 9082SOL    HW138971   9.386   9.790   5.599 -0.4175  0.2094  0.3220
 9082SOL    HW238972   9.368   9.650   5.654  0.9290 -0.0110  0.2262
 9083SOL     OW38973   5.145   3.172   6.256 -0.5163  0.1684 -0.6152
 9083SOL    HW138974   5.092   3.238   6.211 -0.6273 -0.3754 -1.2927
 9083SOL    HW238975   5.112   3.173   6.346  1.2229  2.8611  0.0833
 9084SOL     OW38976   1.200   6.581   2.295  0.3245 -0.1555  0.0028
 9084SOL    HW138977   1.240   6.561   2.380  1.9637  0.8065 -0.5175
 9084SOL    HW238978   1.217   6.674   2.281 -0.5806 -0.1240 -1.0594
 9085SOL     OW38979   4.968   3.954  13.149  0.3861  0.2573 -0.4232
 9085SOL    HW138980   4.872   3.955  13.151  0.3880  0.3140  1.3020
 9085SOL    HW238981   4.993   3.921  13.236  1.9230  1.0895 -0.5250
 9086SOL     OW38982   7.903  11.328   5.553  0.1820 -0.2806 -0.4366
 9086SOL    HW138983   7.933  11.382   5.626  0.6320 -0.9224 -0.1433
 9086SOL    HW238984   7.979  11.275   5.529 -0.1918 -0.6313 -0.8622
 9087SOL     OW38985   3.926   6.344   1.159  0.3781 -0.1026  0.1778
 9087SOL    HW138986   3.935   6.438   1.177  1.3900  0.5456 -3.0578
 9087SOL    HW238987   4.009   6.306   1.186 -0.0035 -0.1041  1.4222
 9088SOL     OW38988   9.581   6.636  10.345  0.3054  0.5929  0.5486
 9088SOL    HW138989   9.580   6.559  10.289 -1.6564  0.5072  0.6143
 9088SOL    HW238990   9.572   6.710  10.285 -0.2049  0.6005  0.6274
 9089SOL     OW38991  11.803  10.919   4.007  0.3512 -0.1178  0.2993
 9089SOL    HW138992  11.708  10.924   4.010  0.2223 -2.0411  1.8574
 9089SOL    HW238993  11.823  10.878   3.923 -0.2646 -0.2968  0.2336
 9090SOL     OW38994  10.805  12.025   4.436  0.5013 -0.0467  0.2528
 9090SOL    HW138995  10.798  12.091   4.368 -1.4594  1.4136  1.7361
 9090SOL    HW238996  10.747  11.954   4.407  0.2244  0.2537  0.0656
 9091SOL     OW38997   9.461  11.444   9.508 -0.6916  0.5476 -0.1948
 9091SOL    HW138998   9.399  11.511   9.537 -0.6921 -0.2313  1.6936
 9091SOL    HW238999   9.486  11.472   9.420 -1.0253  2.8036  0.3643
 9092SOL     OW39000   7.135   0.882   5.364  0.5468  0.3844 -0.5081
 9092SOL    HW139001   7.090   0.913   5.286  0.2203 -1.1441 -0.9459
 9092SOL    HW239002   7.095   0.798   5.384  1.4390  0.1986  0.6109
 9093SOL     OW39003  10.368   1.661   4.213  0.0167  0.4365 -0.2317
 9093SOL    HW139004  10.457   1.690   4.192 -0.1243  0.6679 -0.5093
 9093SOL    HW239005  10.313   1.737   4.195 -0.3765 -0.0412 -1.0787
 9094SOL     OW39006   1.958   3.061   5.956  0.3555  0.6317  0.1143
 9094SOL    HW139007   2.035   3.103   5.918 -0.1967  0.4804 -1.2323
 9094SOL    HW239008   1.953   3.096   6.045  0.7673  2.2839 -0.4728
 9095SOL     OW39009   9.171   5.448   7.289  0.0373 -0.1562 -0.0809
 9095SOL    HW139010   9.141   5.401   7.211  0.9347 -2.4358  0.8471
 9095SOL    HW239011   9.099   5.441   7.351  0.2877 -0.5839  0.1644
 9096SOL     OW39012   9.100   4.471   8.330  0.4966  0.7850 -0.1116
 9096SOL    HW139013   9.179   4.516   8.359 -0.3316  1.2964  1.4807
 9096SOL    HW239014   9.047   4.540   8.290  0.6596  0.5266 -0.7881
 9097SOL     OW39015  13.517   3.748   1.794  0.2121 -0.3662 -0.3554
 9097SOL    HW139016  13.533   3.828   1.843  0.0107 -1.5655  1.8104
 9097SOL    HW239017  13.435   3.763   1.747  0.6858  1.0086 -0.7767
 9098SOL     OW39018   3.782  12.845   7.111  0.6412 -0.5212  0.5254
 9098SOL    HW139019   3.835  12.853   7.032  0.6848  0.2091  0.6270
 9098SOL    HW239020   3.827  12.898   7.176  1.0487 -1.7669  1.2826
 9099SOL     OW39021   3.771   2.276   1.933 -0.0129 -0.4127 -0.3420
 9099SOL    HW139022   3.866   2.271   1.944 -0.1271 -0.3797  0.7789
 9099SOL    HW239023   3.759   2.299   1.841  1.1445  1.9717  0.0327
 9100SOL     OW39024   4.854  13.028  12.503 -0.2959 -0.4289  0.1446
 9100SOL    HW139025   4.913  13.046  12.576 -2.2284 -0.7933  1.9152
 9100SOL    HW239026   4.853  13.109  12.452 -0.6737  0.7365  1.9018
 9101SOL     OW39027  13.064   6.581  11.320  0.3099  0.0211  0.2240
 9101SOL    HW139028  13.000   6.583  11.249 -0.6674  1.6288  1.0952
 9101SOL    HW239029  13.142   6.541  11.281 -0.6933 -0.5290 -1.3040
 9102SOL     OW39030   5.011   1.450   7.243  0.0041 -0.4558 -0.0696
 9102SOL    HW139031   5.104   1.460   7.263 -0.0199 -1.9393  0.9337
 9102SOL    HW239032   4.987   1.533   7.201  1.5477  0.3299  0.4975
 9103SOL     OW39033   1.774   1.146   7.531 -0.2628 -0.9207  0.2125
 9103SOL    HW139034   1.785   1.051   7.525 -0.8781 -1.0346  0.9139
 9103SOL    HW239035   1.694   1.159   7.581  0.0393 -0.0258  0.4907
 9104SOL     OW39036   7.331   6.213   7.174  0.3576  0.2535  0.4602
 9104SOL    HW139037   7.239   6.187   7.180  0.1148  1.0906  0.4445
 9104SOL    HW239038   7.351   6.207   7.081  0.3702 -0.0923  0.4841
 9105SOL     OW39039   6.074   8.932   7.100 -0.5488 -0.2872  0.5002
 9105SOL    HW139040   6.018   8.876   7.047 -0.5742  0.3911 -0.2034
 9105SOL    HW239041   6.137   8.969   7.039  0.4510 -0.7441  1.2170
 9106SOL     OW39042  12.145   6.298   8.608  0.7007 -0.2079  0.2611
 9106SOL    HW139043  12.108   6.311   8.696  1.7264 -0.6729  0.7783
 9106SOL    HW239044  12.142   6.385   8.568 -0.3748 -0.1163  0.5051
 9107SOL     OW39045   1.269   4.081   6.371 -0.5322  0.0127  0.7695
 9107SOL    HW139046   1.325   4.150   6.335 -0.1932  0.1920  1.6121
 9107SOL    HW239047   1.278   4.008   6.310 -0.2737  0.4429  0.2901
 9108SOL     OW39048  11.863   4.460   1.783 -0.9756  0.1355 -0.0144
 9108SOL    HW139049  11.946   4.464   1.735 -1.0968 -0.1179 -0.2470
 9108SOL    HW239050  11.874   4.523   1.854  0.5375 -1.9507  1.7288
 9109SOL     OW39051   2.145   7.763   2.295 -0.1752  0.2813 -0.6257
 9109SOL    HW139052   2.226   7.712   2.298  0.2661  0.9440 -0.9526
 9109SOL    HW239053   2.134   7.797   2.384 -1.7067 -2.2074  0.2402
 9110SOL     OW39054   3.163   2.821   5.083 -0.1942 -0.3049  0.4895
 9110SOL    HW139055   3.114   2.753   5.035 -0.0540 -1.0642  1.4067
 9110SOL    HW239056   3.195   2.879   5.014 -2.0324 -0.0024 -0.1854
 9111SOL     OW39057   2.342   5.137  10.490 -0.1988  0.1455 -0.3137
 9111SOL    HW139058   2.319   5.062  10.436 -0.7242 -0.2391  0.4238
 9111SOL    HW239059   2.259   5.182  10.505 -0.2292 -0.3035  0.9676
 9112SOL     OW39060   1.249   4.154   9.585  0.0476  0.6878  0.5863
 9112SOL    HW139061   1.334   4.172   9.626  0.7903  0.7903 -0.9198
 9112SOL    HW239062   1.260   4.067   9.545 -1.0055  0.1296  1.4798
 9113SOL     OW39063  10.571   3.682  12.466 -0.3043  0.1456 -0.6944
 9113SOL    HW139064  10.488   3.659  12.425  0.2049 -1.2853 -0.9783
 9113SOL    HW239065  10.565   3.776  12.482 -1.8073  0.1342 -1.0798
 9114SOL     OW39066   5.530   5.630  12.545  0.4883 -0.0038  0.3823
 9114SOL    HW139067   5.516   5.664  12.457  1.8728 -1.4108 -0.4320
 9114SOL    HW239068   5.471   5.681  12.600 -1.5314 -0.1173 -1.5633
 9115SOL     OW39069   9.304   4.797   7.006  0.1632  0.5335 -0.4275
 9115SOL    HW139070   9.391   4.759   7.005  0.7601  1.8353 -0.1576
 9115SOL    HW239071   9.286   4.819   6.914  1.2140  2.5607 -0.2136
 9116SOL     OW39072   0.591   5.956   3.538  0.0442 -0.0855 -0.2178
 9116SOL    HW139073   0.578   5.876   3.487  0.6440 -0.0900 -0.3664
 9116SOL    HW239074   0.605   6.024   3.472 -1.6608  0.3841 -0.1432
 9117SOL     OW39075   0.174   0.251  13.151  0.0518  0.3507  0.2252
 9117SOL    HW139076   0.188   0.186  13.082 -0.2901  0.7662 -0.2436
 9117SOL    HW239077   0.258   0.296  13.160  0.6697 -0.9697  1.4262
 9118SOL     OW39078  11.238  13.516   7.949 -0.2351  0.1486 -0.2736
 9118SOL    HW139079  11.200  13.519   8.036 -1.6295 -0.8596 -0.8048
 9118SOL    HW239080  11.195  13.587   7.901 -0.9283 -0.5019 -0.6519
 9119SOL     OW39081  13.451   9.554   2.386 -0.2023 -0.2864 -0.0707
 9119SOL    HW139082  13.483   9.475   2.431  0.1034  1.0692  2.2705
 9119SOL    HW239083  13.357   9.554   2.402 -0.3699 -0.6784 -0.9786
 9120SOL     OW39084  13.358   3.396   9.819 -0.0134 -0.7873 -0.2223
 9120SOL    HW139085  13.377   3.438   9.902  1.2758 -0.9556 -0.4175
 9120SOL    HW239086  13.391   3.306   9.829  0.0568 -0.8411 -0.8755
 9121SOL     OW39087   7.915   8.602   9.201 -0.0609  0.0256 -0.0107
 9121SOL    HW139088   7.944   8.538   9.266  0.5971  0.2084 -0.1099
 9121SOL    HW239089   7.824   8.621   9.224  0.0765 -0.1330  0.6824
 9122SOL     OW39090   0.601   6.997  13.326 -0.1872 -0.7004 -0.3084
 9122SOL    HW139091   0.553   6.977  13.406 -0.1090 -0.3864 -0.1805
 9122SOL    HW239092   0.693   7.000  13.353 -0.3317  2.0639  0.1757
 9123SOL     OW39093  13.639  13.162  10.720 -0.3779  0.0831 -0.1937
 9123SOL    HW139094  13.720  13.151  10.769 -0.0345  0.7967 -0.5830
 9123SOL    HW239095  13.602  13.244  10.751  0.1753  0.8859 -1.5480
 9124SOL     OW39096   9.017   3.477  10.844  0.0649 -0.2762  0.3381
 9124SOL    HW139097   8.942   3.532  10.821 -1.1216 -1.5298  1.0450
 9124SOL    HW239098   9.044   3.508  10.930  0.2607  0.0756  0.1509
 9125SOL     OW39099   5.276   3.592   6.278 -0.0161  0.1148  0.3715
 9125SOL    HW139100   5.205   3.623   6.334  0.2734  0.3884  0.5919
 9125SOL    HW239101   5.351   3.586   6.336  0.2254  0.1634  0.0646
 9126SOL     OW39102  13.523   6.277  10.125  0.4629 -0.2611  0.5730
 9126SOL    HW139103  13.594   6.308  10.068 -0.0155  0.0738  0.1470
 9126SOL    HW239104  13.455   6.247  10.065  0.0205 -0.0657  0.9655
 9127SOL     OW39105  11.112   7.340   7.118  0.2971 -0.6211  0.3449
 9127SOL    HW139106  11.081   7.250   7.127 -2.5106  0.4170  3.3279
 9127SOL    HW239107  11.058   7.377   7.048  1.1008 -1.0639 -0.5336
 9128SOL     OW39108  10.535   0.458   7.806  0.3626  0.1347 -0.7115
 9128SOL    HW139109  10.523   0.534   7.864 -0.7988 -0.5902  0.0138
 9128SOL    HW239110  10.446   0.429   7.786  0.7990 -1.3661 -0.5437
 9129SOL     OW39111   8.492  12.925   9.898 -0.2685  0.2265 -0.4175
 9129SOL    HW139112   8.471  12.883   9.982  0.7793 -2.3796 -1.3408
 9129SOL    HW239113   8.410  12.963   9.869 -1.2403 -0.9178  0.6993
 9130SOL     OW39114   9.568   8.110   6.512 -0.5524  0.0095 -0.2958
 9130SOL    HW139115   9.472   8.103   6.514 -0.5431 -0.0229  2.0796
 9130SOL    HW239116   9.596   8.078   6.597  1.6085  0.0115 -0.9542
 9131SOL     OW39117  13.002   4.886  12.051 -0.5251  0.3053 -0.5141
 9131SOL    HW139118  13.096   4.888  12.071 -0.5388 -1.9877  0.1126
 9131SOL    HW239119  12.997   4.896  11.956  0.6147 -2.2083 -0.9174
 9132SOL     OW39120  13.641   5.075   4.597 -0.7543 -0.2026  0.0951
 9132SOL    HW139121  13.677   5.048   4.681  0.5804 -0.7992 -0.6410
 9132SOL    HW239122  13.710   5.128   4.557 -1.2325 -0.2170 -0.7786
 9133SOL     OW39123   5.022  13.300   5.611  0.2054 -0.3173 -0.2646
 9133SOL    HW139124   5.039  13.206   5.622  0.3914 -0.4232 -1.3317
 9133SOL    HW239125   5.073  13.324   5.534  0.2712  0.6996  0.0907
 9134SOL     OW39126   0.646  12.472  11.720  0.1648 -0.4081  0.1033
 9134SOL    HW139127   0.702  12.415  11.774  2.2688  0.9618 -0.5121
 9134SOL    HW239128   0.696  12.486  11.640  0.0789  2.7863  0.4725
 9135SOL     OW39129  12.841   4.464   4.549  0.2863 -0.0866 -0.4835
 9135SOL    HW139130  12.824   4.555   4.571 -1.0549 -0.5717  0.7237
 9135SOL    HW239131  12.757   4.431   4.517  1.3083 -0.3644 -3.1199
 9136SOL     OW39132  11.093   1.327   3.275  0.0365 -0.1221 -0.3550
 9136SOL    HW139133  11.126   1.372   3.197 -0.5333 -1.3318 -1.3319
 9136SOL    HW239134  11.143   1.365   3.347 -1.2572  2.9706 -0.9036
 9137SOL     OW39135   0.967  12.671  11.288  0.0566  0.0307  0.3869
 9137SOL    HW139136   0.962  12.641  11.197  0.9949 -0.4873  0.4918
 9137SOL    HW239137   0.909  12.612  11.336 -0.2022  0.1127  0.1826
 9138SOL     OW39138   0.852   1.377   2.759  0.2359 -0.2012  0.1482
 9138SOL    HW139139   0.775   1.347   2.807  0.4323 -0.0443  0.5709
 9138SOL    HW239140   0.854   1.472   2.775 -1.0815  0.2879 -2.1636
 9139SOL     OW39141   2.761   2.319   8.363 -0.0983 -0.1259  0.7321
 9139SOL    HW139142   2.667   2.320   8.348 -0.1133 -1.8013  0.5164
 9139SOL    HW239143   2.800   2.322   8.276  0.0765  0.8874  0.8320
 9140SOL     OW39144  11.035   3.670   8.834  0.3223 -0.3606 -0.0928
 9140SOL    HW139145  11.047   3.577   8.819  1.1708  0.2097 -4.0071
 9140SOL    HW239146  11.124   3.704   8.845  0.0488  0.0724  0.8624
 9141SOL     OW39147   5.408   2.392   0.123 -0.2703  0.0439  0.7864
 9141SOL    HW139148   5.382   2.370   0.033  0.3454  3.6428 -0.4380
 9141SOL    HW239149   5.339   2.355   0.178 -1.0355 -1.6572 -1.2272
 9142SOL     OW39150   1.432   0.190  13.508 -0.1803 -0.2236  0.0723
 9142SOL    HW139151   1.508   0.243  13.530  0.5309 -0.5502 -1.5071
 9142SOL    HW239152   1.438   0.114  13.566  0.3182  0.0707  0.4154
 9143SOL     OW39153  13.512   6.964   8.182 -0.1078  0.0847 -0.4058
 9143SOL    HW139154  13.444   6.975   8.115 -3.2094  1.0912  2.6011
 9143SOL    HW239155  13.529   7.052   8.214  1.0554 -0.3939  0.3658
 9144SOL     OW39156   1.203  12.450  10.459  0.4009 -0.3110  0.0681
 9144SOL    HW139157   1.286  12.433  10.503  0.4270 -1.4182 -0.3778
 9144SOL    HW239158   1.182  12.540  10.482  0.6952 -0.6589  1.8544
 9145SOL     OW39159   9.321   9.188   6.377  0.2832  0.0941 -0.5741
 9145SOL    HW139160   9.240   9.216   6.420  0.1998  1.5673 -1.6002
 9145SOL    HW239161   9.389   9.201   6.444  0.0395  1.5313 -0.5698
 9146SOL     OW39162   9.152  13.695  11.698  0.6448 -0.2205  0.5757
 9146SOL    HW139163   9.169  13.700  11.792  1.8448  0.9857  0.3294
 9146SOL    HW239164   9.107  13.777  11.677  3.3596  1.1419 -0.4087
 9147SOL     OW39165   7.649   9.414  13.062  0.1623 -0.6323 -0.2076
 9147SOL    HW139166   7.653   9.323  13.092  0.5808 -0.2878  0.8527
 9147SOL    HW239167   7.715   9.419  12.993  0.9345 -0.8838  0.4892
 9148SOL     OW39168   5.850   7.625   6.879  0.1488 -0.4287 -0.5982
 9148SOL    HW139169   5.827   7.602   6.789 -0.7274  0.7718 -0.7079
 9148SOL    HW239170   5.813   7.554   6.932  1.2843 -1.5121 -1.2045
 9149SOL     OW39171  12.410   3.148   0.456  0.0567 -0.0457 -0.3406
 9149SOL    HW139172  12.377   3.134   0.367 -0.1534  1.3722 -0.5129
 9149SOL    HW239173  12.484   3.208   0.445  2.2777 -2.5453  0.1268
 9150SOL     OW39174   8.801   4.655   3.971  0.4203  0.0699  0.5191
 9150SOL    HW139175   8.819   4.594   4.043  3.6134 -1.1026 -1.0567
 9150SOL    HW239176   8.776   4.599   3.898 -2.1251  1.1965  0.4223
 9151SOL     OW39177   2.133   9.216   7.683  0.5197 -0.0567  0.4909
 9151SOL    HW139178   2.059   9.275   7.668  0.1900 -0.5026  0.3520
 9151SOL    HW239179   2.198   9.242   7.618  0.4061  0.2066  0.4808
 9152SOL     OW39180  12.714   1.464   0.462  0.0662  0.0627  0.1421
 9152SOL    HW139181  12.697   1.552   0.494 -1.7161  0.4516 -1.6458
 9152SOL    HW239182  12.655   1.408   0.513  0.8514 -0.0326  0.9491
 9153SOL     OW39183  11.389  10.959  11.974  0.1124 -0.1544  0.3864
 9153SOL    HW139184  11.324  10.944  12.042 -0.8519  2.5704  0.2113
 9153SOL    HW239185  11.473  10.941  12.016 -0.5304  0.2335  1.9125
 9154SOL     OW39186  10.950  10.004   5.991 -0.0925  0.4056  0.0216
 9154SOL    HW139187  10.888  10.037   6.057 -0.4485  1.1940 -0.6885
 9154SOL    HW239188  11.035  10.008   6.034 -0.2051  1.7150  0.1711
 9155SOL     OW39189   0.712  11.218   2.306 -0.3976 -0.1909  0.5127
 9155SOL    HW139190   0.720  11.291   2.367  1.0111 -1.4316  1.8853
 9155SOL    HW239191   0.722  11.140   2.360  0.0473 -1.3675 -1.1923
 9156SOL     OW39192   7.658  11.397  10.674 -0.0912  0.2584 -0.1397
 9156SOL    HW139193   7.685  11.386  10.583  0.6128  0.7335 -0.0023
 9156SOL    HW239194   7.729  11.357  10.725 -0.3173  0.2910  0.2060
 9157SOL     OW39195  13.358   2.085   9.664  0.2505  0.2965  0.2521
 9157SOL    HW139196  13.365   2.126   9.751  1.5335 -0.9761  0.7949
 9157SOL    HW239197  13.264   2.076   9.649 -0.0037 -0.0221  1.8135
 9158SOL     OW39198   7.747   7.613   5.666 -0.4440  0.2137 -0.0706
 9158SOL    HW139199   7.784   7.636   5.581 -0.7942  0.6258 -0.1145
 9158SOL    HW239200   7.773   7.522   5.680 -0.9987 -0.0952 -0.9532
 9159SOL     OW39201  10.678   4.995   2.362  0.0716 -0.0618 -0.2357
 9159SOL    HW139202  10.734   4.917   2.360 -1.0454 -0.8783 -0.8496
 9159SOL    HW239203  10.684   5.027   2.452  2.4997  0.6230 -0.5844
 9160SOL     OW39204   9.914  11.402   7.509 -0.1589 -0.0080  0.4111
 9160SOL    HW139205   9.820  11.400   7.490 -0.1172  0.5616  0.1013
 9160SOL    HW239206   9.939  11.310   7.514 -0.7647 -0.1674  0.6661
 9161SOL     OW39207   0.421   1.236  12.602 -0.1153 -0.4610 -0.2956
 9161SOL    HW139208   0.430   1.318  12.650 -0.5601 -0.0146 -0.9527
 9161SOL    HW239209   0.331   1.207  12.618 -0.0124 -0.7384 -0.1996
 9162SOL     OW39210   2.801   4.876   1.242  0.4107 -0.0326  0.3154
 9162SOL    HW139211   2.743   4.925   1.300 -1.7717 -2.4078  0.3146
 9162SOL    HW239212   2.811   4.791   1.285  2.5338 -0.3033 -0.5816
 9163SOL     OW39213   0.449   6.342   6.958 -0.1152  0.1093  0.0508
 9163SOL    HW139214   0.519   6.378   6.903  0.4439  0.0743  0.7275
 9163SOL    HW239215   0.478   6.254   6.980 -0.6415 -0.1118 -0.1224
 9164SOL     OW39216  10.096   8.938   6.349 -0.5068 -0.3774  0.7123
 9164SOL    HW139217  10.040   8.987   6.408 -1.5269 -1.8140  0.9989
 9164SOL    HW239218  10.147   9.004   6.302 -1.3732  0.8833  1.5137
 9165SOL     OW39219   8.683  12.499   8.271  0.6179  0.0059  0.3398
 9165SOL    HW139220   8.646  12.563   8.211  1.0782  1.4473  1.5480
 9165SOL    HW239221   8.768  12.535   8.296 -0.3495  0.4330  3.3162
 9166SOL     OW39222  11.967   5.416   2.704  0.8465 -0.2954  0.1057
 9166SOL    HW139223  11.996   5.506   2.689  0.8116 -0.5122 -1.3441
 9166SOL    HW239224  12.019   5.363   2.644  0.4375 -1.1863  0.5149
 9167SOL     OW39225   4.408   7.114  10.989  0.1410  0.1045 -0.1040
 9167SOL    HW139226   4.354   7.108  10.910 -1.2482 -1.5414  0.9069
 9167SOL    HW239227   4.418   7.208  11.004 -2.4681  0.5104 -0.3787
 9168SOL     OW39228   3.590  10.381   1.682  0.3394  0.4291 -0.7126
 9168SOL    HW139229   3.667  10.396   1.738  0.0617  1.4953 -0.5891
 9168SOL    HW239230   3.604  10.294   1.645  2.4665  1.2783 -2.0698
 9169SOL     OW39231  12.906   4.947   8.437 -0.0541 -0.0842  0.0423
 9169SOL    HW139232  12.982   4.896   8.411 -0.5146 -0.2409 -1.0241
 9169SOL    HW239233  12.920   5.033   8.398  0.1634  0.2845  0.8902
 9170SOL     OW39234  12.737   3.648   0.296 -0.3086 -0.6133 -0.0084
 9170SOL    HW139235  12.680   3.699   0.238 -1.5514 -1.1067  0.7296
 9170SOL    HW239236  12.802   3.711   0.327 -0.8433  0.1361 -0.3567
 9171SOL     OW39237  10.817  11.952   2.685  0.0725 -0.1013  0.0861
 9171SOL    HW139238  10.756  11.885   2.715  0.3459  0.0213  0.9560
 9171SOL    HW239239  10.790  11.971   2.595 -0.0622 -1.3176 -0.1616
 9172SOL     OW39240  13.607   9.969   8.954  0.3379 -0.6451 -0.3844
 9172SOL    HW139241  13.596   9.875   8.972 -0.3411 -0.3937  0.5877
 9172SOL    HW239242  13.673   9.998   9.017 -0.2860 -0.2504  0.1055
 9173SOL     OW39243   8.714   8.454   6.558  0.2581 -0.1803 -0.4780
 9173SOL    HW139244   8.664   8.428   6.635 -0.9656  0.8175 -0.8783
 9173SOL    HW239245   8.657   8.431   6.484 -0.6386  2.8268 -0.8728
 9174SOL     OW39246   7.436  12.768   5.202  0.0435  0.1484 -0.1141
 9174SOL    HW139247   7.530  12.759   5.192 -0.1195  0.1884 -1.8589
 9174SOL    HW239248   7.403  12.788   5.115 -1.4194  1.7579  0.7380
 9175SOL     OW39249   0.505   2.347   4.831  0.5794 -0.2537 -0.2773
 9175SOL    HW139250   0.500   2.350   4.736  0.8157  0.5360 -0.2692
 9175SOL    HW239251   0.588   2.390   4.853 -0.0829  0.7292  0.3458
 9176SOL     OW39252  10.462   2.498  10.563 -0.0799 -0.2476  0.1174
 9176SOL    HW139253  10.541   2.448  10.543  0.2865  0.5167 -0.3987
 9176SOL    HW239254  10.475   2.582  10.520 -1.8087 -0.6096 -1.2512
 9177SOL     OW39255   4.244   8.388  11.051  0.1706  0.1150 -0.2406
 9177SOL    HW139256   4.304   8.331  11.098 -0.0114 -0.2743 -0.4741
 9177SOL    HW239257   4.251   8.361  10.960 -1.5030 -1.0157 -0.0824
 9178SOL     OW39258   5.451   1.105  13.238 -0.4881 -0.4458  0.4546
 9178SOL    HW139259   5.385   1.045  13.274  1.3187 -4.0028 -1.5973
 9178SOL    HW239260   5.410   1.139  13.158 -0.8788 -0.3246  0.7014
 9179SOL     OW39261  11.098   3.184   5.810  0.0662 -0.0599  0.2096
 9179SOL    HW139262  11.026   3.244   5.831 -0.3742 -1.3598  2.9165
 9179SOL    HW239263  11.175   3.224   5.849  0.3379  0.1041 -0.4839
 9180SOL     OW39264  13.058   0.911   1.639 -0.0831 -0.1203 -0.2797
 9180SOL    HW139265  13.042   0.823   1.672  0.2568 -0.6179 -1.4179
 9180SOL    HW239266  13.021   0.968   1.707  0.3196 -1.1002  0.8096
 9181SOL     OW39267   0.073  11.756   5.887 -0.1258  0.5649 -0.2314
 9181SOL    HW139268   0.057  11.795   5.802  1.0874  0.4612 -0.5244
 9181SOL    HW239269  -0.001  11.783   5.941  0.1310  2.3624 -0.7300
 9182SOL     OW39270   7.660   9.834   6.869 -0.3277 -0.5160  0.5134
 9182SOL    HW139271   7.658   9.768   6.938 -0.6593 -2.6261 -1.3762
 9182SOL    HW239272   7.578   9.821   6.821 -0.1576  0.9405 -0.2341
 9183SOL     OW39273  11.901  10.960   0.231  0.2338  0.0461 -0.6694
 9183SOL    HW139274  11.963  10.933   0.164  0.8763  0.0112 -0.0679
 9183SOL    HW239275  11.903  10.891   0.297 -0.4952  0.0107 -0.6688
 9184SOL     OW39276   3.860  10.733   8.713 -0.0160 -0.2462  0.0211
 9184SOL    HW139277   3.801  10.697   8.646  0.0497 -1.9149  0.8129
 9184SOL    HW239278   3.852  10.828   8.703  0.1506 -0.4285 -2.4741
 9185SOL     OW39279   9.049  11.865  12.917  0.1694 -0.1115 -0.3048
 9185SOL    HW139280   8.998  11.945  12.904  1.1914  0.5587 -0.3824
 9185SOL    HW239281   9.074  11.867  13.010  2.4482  1.1208 -0.8539
 9186SOL     OW39282   9.994   8.656   1.947 -0.5086  0.9678  0.0859
 9186SOL    HW139283   9.975   8.739   1.991 -0.6355  1.7642 -1.3964
 9186SOL    HW239284   9.990   8.677   1.854  1.3343 -0.2711 -0.3348
 9187SOL     OW39285   2.672  11.112   5.538 -0.2417  0.3744  0.4672
 9187SOL    HW139286   2.767  11.112   5.532 -0.2365  1.9712  0.2709
 9187SOL    HW239287   2.651  11.030   5.584  1.1437 -0.4849 -0.3626
 9188SOL     OW39288  10.032   0.549  13.040 -0.0463  0.4346  0.2899
 9188SOL    HW139289   9.995   0.535  12.953 -0.9869 -0.5332  0.8207
 9188SOL    HW239290   9.986   0.625  13.074 -0.5207  0.1155  0.3769
 9189SOL     OW39291  11.819  12.920  10.508  0.5503  0.3261 -0.5459
 9189SOL    HW139292  11.828  12.932  10.603  0.7439  1.7401 -0.7157
 9189SOL    HW239293  11.899  12.873  10.482  0.2183 -0.6059  0.0536
 9190SOL     OW39294   1.803   1.723   7.089  0.1297  0.3595  0.0839
 9190SOL    HW139295   1.871   1.658   7.069  0.8458  1.3678 -0.8573
 9190SOL    HW239296   1.851   1.797   7.127 -0.3737  1.1817 -0.8154
 9191SOL     OW39297   3.379   2.374  11.643 -0.3819  0.3420 -0.7143
 9191SOL    HW139298   3.422   2.357  11.727  0.5052  0.5959 -1.1102
 9191SOL    HW239299   3.356   2.287  11.610  0.0978  0.1801 -0.6336
 9192SOL     OW39300  13.592   2.310   6.615 -0.1452 -0.6664 -0.3960
 9192SOL    HW139301  13.550   2.224   6.608 -1.0974 -0.2625  0.1269
 9192SOL    HW239302  13.602   2.324   6.709 -0.3609 -0.0411 -0.4623
 9193SOL     OW39303   4.284   8.487   2.313 -0.4570  0.2579 -0.0809
 9193SOL    HW139304   4.282   8.580   2.333 -1.0301  0.3133 -0.3787
 9193SOL    HW239305   4.298   8.482   2.218  0.3992  0.0227  0.0462
 9194SOL     OW39306   8.709   2.443   8.882 -0.2643  0.1996 -0.6679
 9194SOL    HW139307   8.746   2.516   8.831 -0.3161 -0.5027 -1.7462
 9194SOL    HW239308   8.771   2.372   8.871 -0.3771 -0.0295  0.1175
 9195SOL     OW39309   2.783   3.450   0.888  0.1650 -0.1690  0.0815
 9195SOL    HW139310   2.814   3.540   0.896  2.1764 -0.8665  0.8143
 9195SOL    HW239311   2.722   3.452   0.814  1.4144  1.4908 -0.9736
 9196SOL     OW39312   8.855   3.918  11.237  0.2240 -0.5088 -0.2544
 9196SOL    HW139313   8.826   3.928  11.328  0.5218  0.0668 -0.2177
 9196SOL    HW239314   8.927   3.980  11.228 -1.6157  1.5611 -1.6734
 9197SOL     OW39315   1.393   4.717   7.089 -0.3406  0.0723 -0.5003
 9197SOL    HW139316   1.388   4.629   7.126 -0.3190 -0.2323 -1.1887
 9197SOL    HW239317   1.346   4.710   7.005 -1.9143  1.1700  0.2377
 9198SOL     OW39318   1.580   8.258   4.113 -0.2406  0.0213  0.7994
 9198SOL    HW139319   1.640   8.266   4.187 -0.3206 -0.1550  0.8832
 9198SOL    HW239320   1.557   8.349   4.091 -0.4363  0.0621  1.1684
 9199SOL     OW39321  10.333   7.011  12.419 -0.2324 -0.6946  0.0643
 9199SOL    HW139322  10.348   7.105  12.414 -0.4667 -0.6331  0.4706
 9199SOL    HW239323  10.252   6.997  12.369  1.0106 -1.0011 -1.9644
 9200SOL     OW39324  10.725   6.657   7.391 -0.1673 -0.0444  0.0254
 9200SOL    HW139325  10.710   6.610   7.309  0.1516 -0.6375  0.3021
 9200SOL    HW239326  10.781   6.599   7.443  1.4992  1.2738 -0.2033
 9201SOL     OW39327  10.230   1.887  11.101 -0.5186  0.0989 -0.5225
 9201SOL    HW139328  10.138   1.864  11.115 -0.9011  0.8663 -1.6238
 9201SOL    HW239329  10.232   1.982  11.110  0.3083  0.0216  0.1874
 9202SOL     OW39330  10.677  12.149   2.818  0.0822  0.0904 -0.5707
 9202SOL    HW139331  10.662  12.186   2.731  0.7042  2.4451  0.2590
 9202SOL    HW239332  10.718  12.064   2.801  0.9881  0.8705 -2.5823
 9203SOL     OW39333   5.264   4.706   2.525  0.7718 -0.4753  0.4429
 9203SOL    HW139334   5.175   4.718   2.558  1.0532 -0.5575  1.2396
 9203SOL    HW239335   5.306   4.647   2.587  1.4752 -0.2055  0.2398
 9204SOL     OW39336   3.540   5.926  13.734 -0.7802 -0.1432  0.1710
 9204SOL    HW139337   3.538   5.841  13.690 -0.1127 -0.0834  0.0027
 9204SOL    HW239338   3.458   5.969  13.709 -0.8060 -0.4636 -0.2985
 9205SOL     OW39339   0.390   9.034  12.341  0.4259  0.3160 -0.5354
 9205SOL    HW139340   0.370   9.038  12.434 -0.8943 -0.0627 -0.7802
 9205SOL    HW239341   0.478   9.071  12.333 -0.3092  2.4437  0.5890
 9206SOL     OW39342  13.174  11.893   6.368 -0.1029 -0.4520 -0.2336
 9206SOL    HW139343  13.106  11.925   6.309  0.4239  0.6679 -0.2622
 9206SOL    HW239344  13.253  11.942   6.343  0.5082 -1.0946  0.3698
 9207SOL     OW39345   0.613   1.629  12.945 -0.5297  0.0000  0.3872
 9207SOL    HW139346   0.523   1.630  12.978 -1.0542  1.1565 -0.9863
 9207SOL    HW239347   0.632   1.720  12.925 -0.1356 -0.5675 -2.1525
 9208SOL     OW39348   0.320  13.061   9.249 -0.1953 -0.3303 -0.5546
 9208SOL    HW139349   0.280  12.974   9.255  0.7706 -0.7406  0.4124
 9208SOL    HW239350   0.309  13.087   9.157  3.3322 -3.4354 -2.1493
 9209SOL     OW39351   2.530   3.009   5.680  0.0035  0.1686 -0.7666
 9209SOL    HW139352   2.621   3.037   5.693  0.1467 -0.7978  0.4697
 9209SOL    HW239353   2.535   2.947   5.608  0.5969 -1.0982  0.3334
 9210SOL     OW39354   6.612  13.134   6.823  0.1917 -0.0490  0.2029
 9210SOL    HW139355   6.592  13.060   6.881 -0.7569 -0.1256 -0.1953
 9210SOL    HW239356   6.676  13.186   6.871 -0.2199 -0.3621  1.1136
 9211SOL     OW39357  11.334   6.047   6.059  0.4646  0.1981 -0.1317
 9211SOL    HW139358  11.331   6.052   6.154  0.2619  0.0374 -0.1306
 9211SOL    HW239359  11.268   6.109   6.029 -1.1279 -1.4265 -0.1354
 9212SOL     OW39360   2.429   9.911   4.800  0.6511  0.0358  0.0493
 9212SOL    HW139361   2.493   9.968   4.757  1.2827 -1.0091 -0.4277
 9212SOL    HW239362   2.419   9.837   4.740 -0.3764 -0.2192  0.5207
 9213SOL     OW39363  10.872  11.174   6.447 -0.0850 -0.1614 -0.0213
 9213SOL    HW139364  10.952  11.139   6.408  0.1845  0.1730  0.2205
 9213SOL    HW239365  10.884  11.269   6.443  0.1515 -0.1151  1.2799
 9214SOL     OW39366   7.758  13.402   6.607 -0.5922  0.3845 -0.1450
 9214SOL    HW139367   7.832  13.379   6.550 -0.2800  3.3978 -1.1440
 9214SOL    HW239368   7.799  13.435   6.687 -0.8919  1.0065 -0.2479
 9215SOL     OW39369   6.267   6.818  10.145 -0.0282 -0.1684  0.0822
 9215SOL    HW139370   6.295   6.838  10.056  1.3200 -0.2286  0.4572
 9215SOL    HW239371   6.292   6.727  10.158 -0.9384 -0.3962  0.2666
 9216SOL     OW39372   0.703   4.405   4.895  0.0113 -0.2596 -0.2617
 9216SOL    HW139373   0.709   4.346   4.820 -1.6502 -1.2440  0.3171
 9216SOL    HW239374   0.652   4.356   4.960  1.9642  0.2777  1.8018
 9217SOL     OW39375  11.985   8.615   3.213  0.8953  0.2210  0.4708
 9217SOL    HW139376  12.001   8.673   3.138  0.2937 -0.5380 -0.2673
 9217SOL    HW239377  11.901   8.644   3.248  1.3447  0.8115  1.1013
 9218SOL     OW39378   4.641   0.203  11.660  0.1951  0.3492 -0.0039
 9218SOL    HW139379   4.581   0.273  11.636 -0.9584 -0.9598 -1.1582
 9218SOL    HW239380   4.617   0.180  11.749 -1.5029 -0.5565 -0.6413
 9219SOL     OW39381   0.604   2.069   7.194  0.0075  0.4686 -0.1816
 9219SOL    HW139382   0.642   2.157   7.192 -0.4003  0.6492 -0.0760
 9219SOL    HW239383   0.579   2.055   7.285 -1.3681  0.8740 -0.4785
 9220SOL     OW39384   0.978   7.777   9.493  0.2348 -0.5147  0.2422
 9220SOL    HW139385   1.020   7.851   9.449 -0.0437 -1.5336 -1.9237
 9220SOL    HW239386   0.917   7.743   9.427 -0.7852 -1.7217  1.7416
 9221SOL     OW39387   5.756   2.838  13.493 -0.1899 -0.0308  0.6219
 9221SOL    HW139388   5.819   2.838  13.421 -0.4803  1.3907  0.3390
 9221SOL    HW239389   5.793   2.778  13.557 -0.2861 -1.9396 -0.9975
 9222SOL     OW39390   0.826   6.502   5.557  0.0634 -0.0489 -0.1541
 9222SOL    HW139391   0.796   6.446   5.630  0.2988 -2.3454 -1.7111
 9222SOL    HW239392   0.918   6.518   5.577 -0.0054 -0.2094  0.3265
 9223SOL     OW39393   8.773  11.231   2.343 -0.9492 -0.0220  0.0538
 9223SOL    HW139394   8.715  11.306   2.337 -0.5923  0.2800  0.3270
 9223SOL    HW239395   8.771  11.192   2.255 -0.8652  0.5112 -0.1906
 9224SOL     OW39396   9.465  11.569   6.638 -0.1832  0.0091 -0.6975
 9224SOL    HW139397   9.416  11.633   6.689  0.4931  1.0334 -1.3082
 9224SOL    HW239398   9.557  11.594   6.648  0.1980 -1.5045 -0.0868
 9225SOL     OW39399   5.506   6.366   8.534 -0.1355  0.4217 -0.0785
 9225SOL    HW139400   5.583   6.342   8.586 -0.2410  2.2235  1.0018
 9225SOL    HW239401   5.525   6.332   8.446  1.8009  0.6032  0.2175
 9226SOL     OW39402   9.865   3.694  11.454 -0.0924 -0.2040  0.0917
 9226SOL    HW139403   9.890   3.751  11.381 -0.4356 -0.3142 -0.1141
 9226SOL    HW239404   9.918   3.724  11.527  0.9523 -0.6997 -0.4397
 9227SOL     OW39405  12.084   1.131   2.580 -0.1266 -0.3602  0.4596
 9227SOL    HW139406  12.050   1.091   2.500 -0.2221  0.0601  0.2876
 9227SOL    HW239407  12.007   1.150   2.633 -0.2800  1.4915 -0.3471
 9228SOL     OW39408  13.168   2.513   5.748  0.1767  0.2643  0.3315
 9228SOL    HW139409  13.086   2.563   5.758 -1.9662 -3.1417  1.3542
 9228SOL    HW239410  13.141   2.422   5.753  3.7436 -1.1393 -2.2036
 9229SOL     OW39411   3.232   8.192   2.185 -0.0082 -0.5977  0.1379
 9229SOL    HW139412   3.290   8.262   2.156 -1.3706  0.7146  0.4597
 9229SOL    HW239413   3.145   8.231   2.185 -0.7354 -2.1277  0.8828
 9230SOL     OW39414  13.060  10.916  10.938  0.7739  0.0982  0.2179
 9230SOL    HW139415  13.008  10.978  10.887  2.1163  1.3003  0.2498
 9230SOL    HW239416  13.134  10.893  10.882  1.8038  0.7668  1.2469
 9231SOL     OW39417   6.684   5.004   0.678 -0.0767 -0.0541 -0.0413
 9231SOL    HW139418   6.762   5.059   0.687 -0.7277  0.8797 -0.0159
 9231SOL    HW239419   6.719   4.916   0.663  1.0160  0.6436 -1.9254
 9232SOL     OW39420   7.034   5.792   4.106  0.7106 -0.4101 -0.1847
 9232SOL    HW139421   7.032   5.886   4.124  0.8336 -0.4657  0.1163
 9232SOL    HW239422   7.125   5.772   4.087  0.8860 -0.6763  0.8744
 9233SOL     OW39423   1.987  13.547  11.188  0.8483  0.3510  0.1194
 9233SOL    HW139424   2.067  13.501  11.163  0.3555 -1.3229  1.4372
 9233SOL    HW239425   1.929  13.539  11.113  0.7203 -1.3683  0.3735
 9234SOL     OW39426   1.070  13.329  12.576  0.6848 -0.1850 -0.1135
 9234SOL    HW139427   1.129  13.275  12.524  1.0784  1.0610 -1.0130
 9234SOL    HW239428   1.082  13.418  12.542 -0.9769  0.2608  0.3484
 9235SOL     OW39429   8.784   9.545  10.091 -0.0113  0.3632 -0.4034
 9235SOL    HW139430   8.816   9.466  10.048  1.2782  1.0175 -0.6707
 9235SOL    HW239431   8.749   9.599  10.021  2.2183  1.4912 -0.7296
 9236SOL     OW39432  12.283   2.459  12.619 -0.2693 -0.1264  0.0136
 9236SOL    HW139433  12.316   2.512  12.546  0.5603  0.8397  1.0611
 9236SOL    HW239434  12.191   2.447  12.599 -0.2901  1.0074 -0.6950
 9237SOL     OW39435  12.338   7.089   9.911 -0.1139 -0.3805 -0.4552
 9237SOL    HW139436  12.297   7.074   9.996 -0.7942  2.4560 -0.1640
 9237SOL    HW239437  12.264   7.109   9.853  0.5471  1.0154 -0.8622
 9238SOL     OW39438   4.839  11.309   3.635  0.2233  0.1673 -0.2286
 9238SOL    HW139439   4.776  11.374   3.666  0.7921  0.5743  0.0700
 9238SOL    HW239440   4.796  11.270   3.558 -1.3185 -1.0173  1.1487
 9239SOL     OW39441   8.994   8.857  10.771 -0.2603  0.2890 -0.2393
 9239SOL    HW139442   8.981   8.899  10.856 -0.6543  1.7382 -0.9752
 9239SOL    HW239443   8.937   8.781  10.773  1.6199 -1.2025  1.7237
 9240SOL     OW39444   1.552   9.209   0.318  0.2638  0.1507  0.0089
 9240SOL    HW139445   1.507   9.155   0.383 -0.2815 -0.2493 -0.6947
 9240SOL    HW239446   1.486   9.272   0.289  0.5142  0.3412 -0.1555
 9241SOL     OW39447   0.628  11.704  12.011  0.0067  0.0865 -0.2702
 9241SOL    HW139448   0.571  11.746  11.946 -1.3824 -3.3394 -1.4630
 9241SOL    HW239449   0.569  11.680  12.083  1.0309  1.2783  1.0411
 9242SOL     OW39450  11.717   4.265   7.880 -0.2607 -0.2800  0.2661
 9242SOL    HW139451  11.764   4.264   7.964  0.3342 -0.1565 -0.0579
 9242SOL    HW239452  11.760   4.334   7.829 -1.1201  0.1803  0.1360
 9243SOL     OW39453  10.094  11.550  11.132  0.3038  0.0956 -0.2411
 9243SOL    HW139454  10.014  11.602  11.132  0.8482  0.9523 -0.6353
 9243SOL    HW239455  10.150  11.593  11.196 -0.1632 -1.5144  1.3429
 9244SOL     OW39456   2.235   6.256   6.542 -0.3389 -0.0667 -0.2451
 9244SOL    HW139457   2.274   6.234   6.458 -0.5178 -1.7548  0.0623
 9244SOL    HW239458   2.145   6.281   6.521  0.0815  1.1224 -0.6903
 9245SOL     OW39459   7.928   2.987   6.923 -0.4661  0.0686  0.0952
 9245SOL    HW139460   7.974   3.010   6.842 -3.4548  0.0859 -1.7314
 9245SOL    HW239461   7.947   2.895   6.936  0.4421  0.1816 -0.3454
 9246SOL     OW39462   5.023  10.280   4.187  0.1827 -0.8285  0.2739
 9246SOL    HW139463   4.957  10.272   4.118  1.5413 -1.5980 -1.0039
 9246SOL    HW239464   5.100  10.317   4.143  0.1178  1.7353  2.0892
 9247SOL     OW39465   9.313   9.500   0.357  0.1817  0.2906 -0.2505
 9247SOL    HW139466   9.362   9.417   0.355 -0.5207 -0.1245 -2.5305
 9247SOL    HW239467   9.266   9.503   0.274 -3.1874  0.9959  1.4875
 9248SOL     OW39468   5.951  11.619   3.604  0.0141 -0.4518 -0.7006
 9248SOL    HW139469   5.995  11.549   3.556 -1.8581 -2.2982  0.1466
 9248SOL    HW239470   5.869  11.633   3.557 -1.3289 -1.4965  1.1771
 9249SOL     OW39471  11.071  10.838   4.884  0.8128 -0.0611 -0.4219
 9249SOL    HW139472  11.079  10.776   4.812  0.5265  1.8227 -2.1507
 9249SOL    HW239473  10.981  10.829   4.913  1.2448 -1.6754  0.5729
 9250SOL     OW39474  13.388   9.991  10.674  0.3246 -0.8877 -0.4617
 9250SOL    HW139475  13.330   9.963  10.603 -0.0173 -0.5546 -0.3185
 9250SOL    HW239476  13.476   9.985  10.638  0.0503  3.3892 -2.4408
 9251SOL     OW39477   2.024  10.515  10.588  0.2542  0.7579  0.2180
 9251SOL    HW139478   2.046  10.606  10.568  1.4843  0.9484  2.1580
 9251SOL    HW239479   2.011  10.514  10.683  1.6749 -1.3304  0.4566
 9252SOL     OW39480  10.038   4.829   2.118  0.2454  0.3290 -0.0203
 9252SOL    HW139481  10.096   4.878   2.176  0.5723 -1.8055  1.5772
 9252SOL    HW239482  10.095   4.763   2.077 -0.2148  1.0681 -1.9610
 9253SOL     OW39483  12.425   6.722   7.765  0.2298 -0.1769  0.4788
 9253SOL    HW139484  12.498   6.743   7.706 -0.8211  0.3201 -0.6838
 9253SOL    HW239485  12.352   6.772   7.731 -0.2645  0.6355  2.6287
 9254SOL     OW39486  11.112  10.440   8.512  0.2282  0.0342  0.0716
 9254SOL    HW139487  11.100  10.446   8.417 -0.2292 -0.2103  0.1097
 9254SOL    HW239488  11.166  10.362   8.525 -3.1433 -2.5299  0.2204
 9255SOL     OW39489   7.758   9.864   5.624 -0.3502  0.3820  0.0246
 9255SOL    HW139490   7.709   9.904   5.696  0.6029  1.5199  0.0685
 9255SOL    HW239491   7.850   9.877   5.647 -0.0072 -1.1036 -0.4009
 9256SOL     OW39492   3.073  13.442   8.107  0.0865 -0.2529 -0.0405
 9256SOL    HW139493   3.112  13.369   8.059  0.7859  0.4783 -0.6009
 9256SOL    HW239494   2.991  13.460   8.061  0.3823 -0.0549 -0.4851
 9257SOL     OW39495  11.369  12.893   3.653  0.4684  0.1167  0.4857
 9257SOL    HW139496  11.363  12.840   3.574 -0.9275  0.0966  0.5829
 9257SOL    HW239497  11.440  12.853   3.703  0.4614 -0.6999 -0.1421
 9258SOL     OW39498   3.184  12.483   6.418 -0.4275  0.1392 -0.2375
 9258SOL    HW139499   3.246  12.528   6.361 -0.0841 -0.6602 -0.5085
 9258SOL    HW239500   3.184  12.534   6.499  0.7085  0.0606 -0.1809
 9259SOL     OW39501   4.750  11.941   7.996  0.2091  0.7106 -0.6518
 9259SOL    HW139502   4.785  11.960   8.082 -0.6494  0.2586 -0.1888
 9259SOL    HW239503   4.826  11.918   7.943  0.4841 -1.9330  0.7648
 9260SOL     OW39504   9.586   8.829  10.044  0.4426 -0.0849  0.0621
 9260SOL    HW139505   9.658   8.768  10.027  0.6543  0.1563  0.0841
 9260SOL    HW239506   9.583   8.836  10.139  0.2207 -0.2931  0.0718
 9261SOL     OW39507   3.816   8.455   0.147  0.0704 -0.4838  0.0254
 9261SOL    HW139508   3.901   8.453   0.103  0.1869 -2.4829  0.2758
 9261SOL    HW239509   3.753   8.473   0.077  0.5999  0.1899 -0.2959
 9262SOL     OW39510   6.419  11.419  10.015  0.1407 -0.1676  0.1220
 9262SOL    HW139511   6.323  11.423  10.013  0.1513  0.2522 -1.4599
 9262SOL    HW239512   6.441  11.418  10.108 -1.4286 -1.5648  0.5408
 9263SOL     OW39513   0.321  12.508   9.757 -0.8939 -0.3418  0.2197
 9263SOL    HW139514   0.232  12.493   9.727  0.1953 -2.8872 -2.1288
 9263SOL    HW239515   0.320  12.598   9.790 -4.6479 -0.7773  1.8323
 9264SOL     OW39516   2.583  13.586   5.222 -0.2827  0.3123 -0.0535
 9264SOL    HW139517   2.586  13.503   5.173 -3.4352  0.5405 -0.8296
 9264SOL    HW239518   2.673  13.618   5.219  0.5828 -1.9712 -1.6952
 9265SOL     OW39519   5.651  13.470   6.729 -0.4969  0.2268 -0.0171
 9265SOL    HW139520   5.624  13.555   6.694 -1.2415  0.4172  0.9555
 9265SOL    HW239521   5.743  13.483   6.755  0.5436 -0.3235 -3.0315
 9266SOL     OW39522  10.042   8.109   1.860 -0.5010  0.1756 -0.3366
 9266SOL    HW139523  10.097   8.051   1.808 -1.5293  0.3790 -1.7164
 9266SOL    HW239524  10.086   8.194   1.857  0.9668 -0.4574  1.6261
 9267SOL     OW39525   2.065   1.867   4.996  0.3632 -0.4092  0.0719
 9267SOL    HW139526   2.038   1.926   5.067  0.2512  0.4643 -0.6873
 9267SOL    HW239527   2.095   1.788   5.041  0.7872  0.3299  1.1161
 9268SOL     OW39528   0.922  10.418   3.531 -0.2544  0.7088 -0.7587
 9268SOL    HW139529   0.924  10.446   3.439  1.5903  1.3744 -0.5423
 9268SOL    HW239530   0.972  10.336   3.532 -0.6023  0.4977 -0.4035
 9269SOL     OW39531   9.036   4.677   0.350 -0.4893  0.0177 -0.6039
 9269SOL    HW139532   9.068   4.666   0.440 -0.1706 -1.3204 -0.8487
 9269SOL    HW239533   9.034   4.771   0.337  0.3450  0.2193  0.5022
 9270SOL     OW39534  10.690  11.130  10.741  0.0858 -0.1860 -0.4235
 9270SOL    HW139535  10.749  11.150  10.668  2.1545 -0.2342  1.1347
 9270SOL    HW239536  10.644  11.213  10.757  2.0346  0.8252  0.2762
 9271SOL     OW39537   3.785  13.180   8.378 -0.1703  0.0194  0.6337
 9271SOL    HW139538   3.695  13.175   8.344 -0.9764  0.4860  2.5649
 9271SOL    HW239539   3.827  13.100   8.345 -0.5057  0.9368 -2.3063
 9272SOL     OW39540   6.396  10.478   2.122  0.2230 -0.0201  0.2151
 9272SOL    HW139541   6.404  10.556   2.068 -2.9383 -0.7455 -1.5742
 9272SOL    HW239542   6.374  10.510   2.209 -0.2923  1.1171 -0.3179
 9273SOL     OW39543   4.792   4.577  12.584 -0.9827  0.2163  0.3309
 9273SOL    HW139544   4.712   4.584  12.533 -0.5240 -1.8607 -0.7659
 9273SOL    HW239545   4.861   4.608  12.525 -0.8359  1.0082  0.9045
 9274SOL     OW39546   0.361   9.942   1.639 -0.4560  0.0074  0.3176
 9274SOL    HW139547   0.443   9.897   1.618 -0.2958  0.3210  0.2658
 9274SOL    HW239548   0.386  10.033   1.655 -0.8110  0.1389  0.1554
 9275SOL     OW39549  13.311  11.480   6.485 -0.4908 -0.4121  0.5128
 9275SOL    HW139550  13.320  11.393   6.448 -0.5446 -0.5117  0.7298
 9275SOL    HW239551  13.396  11.522   6.472 -1.1857  0.4196 -1.8885
 9276SOL     OW39552   0.634   1.320   3.809  0.1006 -0.4816 -0.3848
 9276SOL    HW139553   0.679   1.236   3.803  2.1336  0.3550  1.7847
 9276SOL    HW239554   0.609   1.327   3.901 -1.6298  0.5512 -0.8886
 9277SOL     OW39555  12.331   5.901   9.187  0.0234 -0.0381 -0.0662
 9277SOL    HW139556  12.394   5.969   9.162  1.0440 -1.3167 -1.1370
 9277SOL    HW239557  12.334   5.838   9.115 -0.1336 -1.7310  1.3398
 9278SOL     OW39558  10.521   5.158   6.090 -0.1564  0.4089  0.5452
 9278SOL    HW139559  10.600   5.145   6.038  0.1919 -1.1117  1.3784
 9278SOL    HW239560  10.532   5.098   6.165 -1.0669  1.8087  1.8505
 9279SOL     OW39561  10.532   7.802  10.320  0.4204 -0.4194 -0.3487
 9279SOL    HW139562  10.498   7.713  10.329  1.8063 -1.0097 -0.5496
 9279SOL    HW239563  10.525   7.821  10.226 -0.6867  0.0427 -0.1821
 9280SOL     OW39564   2.772   3.055   6.726  0.0378  0.7702  0.1525
 9280SOL    HW139565   2.816   2.970   6.715 -1.1233  0.0816  0.5568
 9280SOL    HW239566   2.811   3.092   6.805  0.3412  0.4671  0.1478
 9281SOL     OW39567  10.802  12.586  12.102 -0.3363  0.0631  0.4434
 9281SOL    HW139568  10.722  12.636  12.118 -0.9329 -0.6031 -0.3690
 9281SOL    HW239569  10.773  12.508  12.055  0.8131 -0.1066 -0.0328
 9282SOL     OW39570   2.813   2.781   8.730  0.1783  0.3858  0.3356
 9282SOL    HW139571   2.883   2.758   8.791  0.0214 -3.2260 -0.6292
 9282SOL    HW239572   2.735   2.738   8.765 -0.2990 -0.2494 -1.4228
 9283SOL     OW39573   6.575  11.445   1.970 -0.2480 -0.1155  0.4752
 9283SOL    HW139574   6.552  11.525   1.923  2.2339  0.4971  0.1647
 9283SOL    HW239575   6.630  11.475   2.043 -2.4435 -1.2186  2.7654
 9284SOL     OW39576   1.934   0.776   6.085 -0.6834  0.0760  0.2687
 9284SOL    HW139577   1.999   0.805   6.148 -1.9028  0.7905  1.2500
 9284SOL    HW239578   1.984   0.758   6.005  0.7185  0.4088  1.0371
 9285SOL     OW39579  11.371   5.840   1.307 -0.2991  0.1208 -0.2523
 9285SOL    HW139580  11.464   5.836   1.331 -0.0514  0.3998 -1.1394
 9285SOL    HW239581  11.371   5.873   1.217 -1.1760 -1.2594 -0.7846
 9286SOL     OW39582   5.853   8.400  12.871 -0.1982 -0.4303  0.1137
 9286SOL    HW139583   5.771   8.422  12.915 -0.0945  0.5358 -0.1627
 9286SOL    HW239584   5.847   8.442  12.785  0.5748 -0.3538  0.0897
 9287SOL     OW39585  13.079   5.842  11.156  0.6367  0.0952 -0.4088
 9287SOL    HW139586  13.038   5.865  11.239  0.8238  0.3761 -0.3930
 9287SOL    HW239587  13.055   5.913  11.096  0.2859 -0.2372 -0.6668
 9288SOL     OW39588   2.720   0.963  11.163 -0.2409  0.0339  0.2568
 9288SOL    HW139589   2.668   0.945  11.242  0.8328 -1.8142  0.5768
 9288SOL    HW239590   2.789   1.021  11.193 -0.2511 -0.0874  0.5166
 9289SOL     OW39591   8.351   9.557   7.304 -0.3160  0.1360 -0.2419
 9289SOL    HW139592   8.303   9.500   7.245 -0.8483  0.6257 -0.3016
 9289SOL    HW239593   8.441   9.557   7.271 -0.3218 -0.6064 -0.2738
 9290SOL     OW39594   8.121  12.701   3.396  0.4396  0.1847 -0.1266
 9290SOL    HW139595   8.037  12.732   3.362 -0.4892 -0.8260  1.1485
 9290SOL    HW239596   8.113  12.711   3.491 -0.4201 -4.7705  0.5769
 9291SOL     OW39597  12.744   8.175  12.661 -0.5087  0.3350  0.7220
 9291SOL    HW139598  12.834   8.156  12.687 -0.6763 -1.5939  0.0158
 9291SOL    HW239599  12.732   8.126  12.580 -1.9573  1.2194  0.3770
 9292SOL     OW39600   3.890   6.730   5.437  1.1262  0.5222 -0.6736
 9292SOL    HW139601   3.880   6.737   5.532 -1.4254 -1.8586 -0.6230
 9292SOL    HW239602   3.946   6.654   5.423  0.0802 -0.2168 -1.0123
 9293SOL     OW39603   4.103   8.268  10.392  0.0918 -0.0272  0.0262
 9293SOL    HW139604   4.040   8.242  10.325 -0.7428  0.1646  0.7180
 9293SOL    HW239605   4.094   8.363  10.398  0.3933 -0.0071  0.1801
 9294SOL     OW39606   1.135   6.551   2.989 -0.6029 -0.1384  0.1238
 9294SOL    HW139607   1.116   6.556   3.083  1.2448  0.2629  0.5233
 9294SOL    HW239608   1.201   6.620   2.975 -1.2108  0.1207 -1.5670
 9295SOL     OW39609   0.967   2.813   9.864  0.6578  0.5484  0.1570
 9295SOL    HW139610   0.980   2.760   9.786  0.6275 -0.8568  1.0762
 9295SOL    HW239611   0.997   2.758   9.936  1.1081  1.9880  1.1030
 9296SOL     OW39612   0.814   2.163   6.746  0.0594 -0.2025 -0.1308
 9296SOL    HW139613   0.839   2.158   6.838 -0.9851  0.9461  0.2478
 9296SOL    HW239614   0.870   2.231   6.710 -1.3589  1.2722  0.3440
 9297SOL     OW39615  12.987  12.824  11.006  0.7905 -0.3682 -0.1420
 9297SOL    HW139616  12.966  12.885  11.077  0.0666 -0.9001  0.1121
 9297SOL    HW239617  12.953  12.740  11.036  1.0073 -0.7208 -0.8669
 9298SOL     OW39618   0.509  11.550   2.421  0.7557 -0.2788  0.4396
 9298SOL    HW139619   0.448  11.482   2.448  0.4612  0.1352  0.8322
 9298SOL    HW239620   0.595  11.508   2.426  0.6946 -0.3090  1.7844
 9299SOL     OW39621   8.927   0.202   4.493  0.0353 -0.7903 -0.2176
 9299SOL    HW139622   8.978   0.122   4.506  1.5011  0.4582  2.4524
 9299SOL    HW239623   8.865   0.204   4.566  0.0388  0.4987 -0.2217
 9300SOL     OW39624  10.184   8.150   5.223  0.2481  0.0987  0.3914
 9300SOL    HW139625  10.145   8.085   5.166  0.0469 -1.1029  1.8330
 9300SOL    HW239626  10.110   8.203   5.253  0.4116  1.0355 -0.7819
 9301SOL     OW39627   3.457   7.674  13.728  0.3889 -0.2219 -0.4717
 9301SOL    HW139628   3.541   7.650  13.766 -0.9111 -1.2075  2.0336
 9301SOL    HW239629   3.467   7.658  13.634  2.6338 -1.3059 -0.1081
 9302SOL     OW39630   0.929   8.428   2.685 -0.2621  0.7199 -0.1738
 9302SOL    HW139631   0.904   8.501   2.629 -0.4165  1.4333  0.8003
 9302SOL    HW239632   0.860   8.424   2.751 -1.8644 -2.1613 -1.8332
 9303SOL     OW39633  13.334   0.380   5.865 -0.2502 -0.3191 -0.5662
 9303SOL    HW139634  13.309   0.314   5.929  0.7779 -0.6329 -0.4624
 9303SOL    HW239635  13.320   0.463   5.911  0.3150 -0.5353  0.0160
 9304SOL     OW39636   9.396   6.279   6.362  0.6005 -0.1485 -0.6496
 9304SOL    HW139637   9.334   6.316   6.299  0.7114 -0.7147 -1.1015
 9304SOL    HW239638   9.341   6.234   6.426  0.5462 -1.3289 -1.4824
 9305SOL     OW39639   9.425   4.330   6.030  0.0411  0.5180  0.1189
 9305SOL    HW139640   9.387   4.308   5.945  0.7830 -0.0901 -0.0604
 9305SOL    HW239641   9.352   4.324   6.091 -0.0533 -1.1914 -0.1310
 9306SOL     OW39642   4.618   6.203   6.928  0.3183  0.1050  0.0003
 9306SOL    HW139643   4.625   6.256   6.849 -0.1847 -0.2141 -0.2654
 9306SOL    HW239644   4.708   6.179   6.950  0.4930  0.5398 -0.2391
 9307SOL     OW39645   9.136   7.950  10.646 -0.3036 -0.3991  0.2346
 9307SOL    HW139646   9.105   7.942  10.556 -0.6266 -0.9151  0.3881
 9307SOL    HW239647   9.221   7.908  10.646  1.0898  2.1989 -0.5018
 9308SOL     OW39648   8.644  13.409   7.542 -0.0097  0.6755 -0.5664
 9308SOL    HW139649   8.593  13.487   7.523 -2.3101 -1.0423 -2.0707
 9308SOL    HW239650   8.686  13.386   7.459  1.2592  0.6770  0.0388
 9309SOL     OW39651   0.606   6.482   6.581 -0.0263 -0.7420  0.0307
 9309SOL    HW139652   0.686   6.533   6.587  0.0512 -0.8428 -0.1666
 9309SOL    HW239653   0.630   6.395   6.613 -0.0098 -0.8276 -0.2162
 9310SOL     OW39654   0.803   3.275  12.567  0.1969  0.6203  0.2841
 9310SOL    HW139655   0.794   3.350  12.625  0.0048  0.2095  0.7856
 9310SOL    HW239656   0.863   3.217  12.612 -0.4580  0.0071  0.3803
 9311SOL     OW39657   0.019   8.707   5.550 -0.1946 -0.9129  0.1957
 9311SOL    HW139658   0.026   8.740   5.640  0.4592 -1.8507  0.4975
 9311SOL    HW239659   0.021   8.786   5.496 -1.1887 -0.2885  1.0221
 9312SOL     OW39660   3.268   0.988   5.199  0.0646  0.4062 -0.5905
 9312SOL    HW139661   3.341   0.944   5.155 -0.0408 -0.1092 -0.2584
 9312SOL    HW239662   3.270   0.954   5.288 -1.3604 -0.5627 -0.9122
 9313SOL     OW39663  10.674  10.196  10.630  0.4825 -0.0348 -0.2231
 9313SOL    HW139664  10.711  10.270  10.678  1.9489  0.2198 -1.6308
 9313SOL    HW239665  10.660  10.128  10.696  0.0929  1.1152  0.9270
 9314SOL     OW39666   1.483  11.184   0.668 -0.2949 -0.2028 -0.3701
 9314SOL    HW139667   1.517  11.095   0.681  1.1528  0.3234 -0.3983
 9314SOL    HW239668   1.522  11.213   0.585 -0.7245  0.4746 -0.3420
 9315SOL     OW39669   5.197  13.525   6.309 -0.4879  0.2828 -0.1487
 9315SOL    HW139670   5.109  13.495   6.332 -0.4469 -1.7051 -2.2434
 9315SOL    HW239671   5.255  13.461   6.350  0.0308  1.4405  1.0056
 9316SOL     OW39672  12.345   4.861   9.109 -0.4565 -0.5507 -0.0526
 9316SOL    HW139673  12.307   4.783   9.068  0.9964 -0.7701 -1.0767
 9316SOL    HW239674  12.440   4.849   9.099 -0.1958  1.1084  0.2061
 9317SOL     OW39675  13.302   7.476   1.348 -0.3812  0.4088  0.1043
 9317SOL    HW139676  13.375   7.428   1.309 -0.0006  0.1554  1.1086
 9317SOL    HW239677  13.266   7.416   1.413  0.0924  1.4656  1.3678
 9318SOL     OW39678  12.536   8.352   7.725  0.4289  0.3550  0.2111
 9318SOL    HW139679  12.621   8.319   7.752 -0.1081 -0.1727  1.3205
 9318SOL    HW239680  12.492   8.276   7.686  1.0369  1.0041 -1.8979
 9319SOL     OW39681  13.213   5.829   4.311 -0.2818 -0.3254  0.5752
 9319SOL    HW139682  13.304   5.801   4.296 -0.6336 -1.5790  0.6846
 9319SOL    HW239683  13.221   5.906   4.368  0.7190 -0.3956  0.5468
 9320SOL     OW39684  11.748  11.695   8.659 -0.3545  0.1307 -0.5101
 9320SOL    HW139685  11.718  11.743   8.736 -0.3780  1.4605 -1.3269
 9320SOL    HW239686  11.780  11.612   8.694 -1.0111  0.4273  0.8508
 9321SOL     OW39687  10.700   2.941   3.901  0.2282  0.0939 -0.0641
 9321SOL    HW139688  10.608   2.939   3.925  0.0803  1.0315 -0.4659
 9321SOL    HW239689  10.700   2.925   3.806  0.3389  1.3485 -0.3037
 9322SOL     OW39690   1.565   4.927  11.884 -0.7168  0.3470 -0.1969
 9322SOL    HW139691   1.493   4.864  11.893  0.5784 -1.3728 -1.2117
 9322SOL    HW239692   1.556   4.961  11.795  0.0581 -0.3633 -0.5631
 9323SOL     OW39693   1.380   0.984  12.756  0.2146 -0.1398  0.2475
 9323SOL    HW139694   1.417   0.938  12.832 -1.7904 -0.4820  1.0899
 9323SOL    HW239695   1.286   0.972  12.765 -0.2502  2.2326 -0.7739
 9324SOL     OW39696  11.268   5.232   4.119 -0.0882  0.5571  0.0410
 9324SOL    HW139697  11.321   5.310   4.101 -1.6334  1.4760 -0.7858
 9324SOL    HW239698  11.266   5.185   4.036 -0.3334  0.3787  0.1483
 9325SOL     OW39699   4.139  11.973   9.324  0.1179  0.4664 -0.6678
 9325SOL    HW139700   4.139  11.976   9.419  0.7530  1.3150 -0.6807
 9325SOL    HW239701   4.188  11.894   9.301  1.1267  0.9599 -0.2844
 9326SOL     OW39702   6.017   8.377   9.235 -0.5310  0.0889  0.0601
 9326SOL    HW139703   5.987   8.294   9.270  1.5544 -0.2838  1.1074
 9326SOL    HW239704   6.046   8.356   9.146  0.5851 -0.4823  0.5389
 9327SOL     OW39705   7.290   8.644   3.857 -0.5842 -0.0835  0.0354
 9327SOL    HW139706   7.302   8.571   3.918  0.1078 -0.5860 -0.6846
 9327SOL    HW239707   7.300   8.722   3.912 -2.5121 -0.4819  1.0491
 9328SOL     OW39708   4.675   1.358  12.216 -0.1444  0.3873 -0.2821
 9328SOL    HW139709   4.731   1.434  12.204  0.4015  0.4268  1.9853
 9328SOL    HW239710   4.688   1.333  12.308 -1.9119 -1.1587 -0.3894
 9329SOL     OW39711   2.194   3.787  10.151  0.6972  0.2583  0.5196
 9329SOL    HW139712   2.222   3.717  10.210 -1.1906 -0.1264  1.0409
 9329SOL    HW239713   2.270   3.845  10.144  2.4221 -1.9592 -0.1427
 9330SOL     OW39714   8.899   4.879   4.459 -0.7949  0.3937 -0.2982
 9330SOL    HW139715   8.882   4.917   4.373 -0.8143 -0.1819 -0.5478
 9330SOL    HW239716   8.827   4.818   4.474 -2.1436  2.2079  1.1768
 9331SOL     OW39717   1.406   6.587   0.494  0.8097 -0.4147 -0.4712
 9331SOL    HW139718   1.325   6.597   0.444  1.7021 -2.0567 -2.3504
 9331SOL    HW239719   1.387   6.628   0.578 -0.5721  3.0459 -2.2891
 9332SOL     OW39720   5.410   1.858   1.124  0.4279 -0.0245 -0.0708
 9332SOL    HW139721   5.454   1.940   1.100 -2.5801  1.6979 -0.2050
 9332SOL    HW239722   5.355   1.837   1.048 -1.1197 -0.4638  1.1177
 9333SOL     OW39723   6.531  11.869  11.222 -0.3711 -0.0445 -0.4211
 9333SOL    HW139724   6.525  11.932  11.150 -1.3725  1.6002  1.0408
 9333SOL    HW239725   6.454  11.813  11.211 -1.5184  1.3227  0.3297
 9334SOL     OW39726   1.483   8.826   0.462  0.5739  0.2368 -0.1028
 9334SOL    HW139727   1.560   8.831   0.405  0.5222 -0.2741 -0.2200
 9334SOL    HW239728   1.472   8.733   0.480  0.2655  0.3481  0.3040
 9335SOL     OW39729   5.989  10.449   9.913  0.2929  0.5490  0.1198
 9335SOL    HW139730   5.950  10.376   9.961 -3.2503  2.4564  0.5062
 9335SOL    HW239731   5.960  10.437   9.823 -3.5614  3.1114  0.7695
 9336SOL     OW39732  12.317   6.215   4.136 -0.0819  0.3607  0.0265
 9336SOL    HW139733  12.316   6.153   4.208 -0.3450  0.6145  0.2442
 9336SOL    HW239734  12.277   6.168   4.063 -0.5015  0.3530  0.2585
 9337SOL     OW39735   1.604   2.785   1.709 -0.7284  0.4372  0.1575
 9337SOL    HW139736   1.612   2.724   1.782  1.3687 -0.2635 -0.6025
 9337SOL    HW239737   1.680   2.842   1.716 -0.4761  0.3502 -1.4810
 9338SOL     OW39738   0.726   6.091   8.520  0.2764 -0.1612  0.2132
 9338SOL    HW139739   0.645   6.105   8.569  0.3086 -0.4366  0.3461
 9338SOL    HW239740   0.715   6.143   8.440  0.3153  0.4690  0.6073
 9339SOL     OW39741   2.177   7.739   1.982 -0.3468 -0.3900  0.3766
 9339SOL    HW139742   2.271   7.728   1.973 -0.2306 -0.5716  1.6666
 9339SOL    HW239743   2.145   7.653   2.011 -0.8428 -0.2058  0.3873
 9340SOL     OW39744   5.544   8.692   9.517 -0.6506  0.4488 -0.3083
 9340SOL    HW139745   5.538   8.644   9.435  1.5194 -0.7505  0.1685
 9340SOL    HW239746   5.456   8.686   9.555 -1.5428  0.5594 -2.2472
 9341SOL     OW39747   6.559   5.666  11.517 -0.6574  0.0728  0.4482
 9341SOL    HW139748   6.595   5.735  11.461 -1.0666 -0.3049 -0.2995
 9341SOL    HW239749   6.467   5.658  11.490 -0.9586  0.1183  1.4187
 9342SOL     OW39750   8.421   4.651   6.843  0.0839 -0.1435  0.1642
 9342SOL    HW139751   8.490   4.678   6.904 -1.3275  1.0684  1.3131
 9342SOL    HW239752   8.341   4.655   6.895 -0.9573 -0.8981 -1.3012
 9343SOL     OW39753  11.540  11.428  11.156  0.1969  0.0600  0.5287
 9343SOL    HW139754  11.544  11.339  11.190 -1.4034 -0.4328 -0.4529
 9343SOL    HW239755  11.456  11.462  11.188 -0.6747  0.0807 -1.6320
 9344SOL     OW39756   4.811   2.404  12.476  0.1726  0.0333  0.2356
 9344SOL    HW139757   4.882   2.457  12.514  1.0001  0.8366 -2.2136
 9344SOL    HW239758   4.739   2.466  12.464  0.7726  0.4063 -1.6641
 9345SOL     OW39759   5.240  10.581   7.845  0.1967  0.2391  0.5240
 9345SOL    HW139760   5.303  10.511   7.864  0.6975  0.9566  1.5832
 9345SOL    HW239761   5.194  10.551   7.767  0.9294 -0.9215  0.5160
 9346SOL     OW39762   9.117   6.410  12.881 -0.2300  0.4385  0.4803
 9346SOL    HW139763   9.096   6.452  12.798  0.2579 -0.0839  0.0782
 9346SOL    HW239764   9.049   6.343  12.891  0.5562 -0.5006 -0.2590
 9347SOL     OW39765   0.547   6.800   7.563 -0.2048 -0.1728 -0.1909
 9347SOL    HW139766   0.519   6.751   7.640 -0.3858 -2.0752 -1.4235
 9347SOL    HW239767   0.570   6.734   7.498  3.1004  1.2680 -0.7400
 9348SOL     OW39768   7.094   2.809   4.123  0.7332 -0.3964 -0.3810
 9348SOL    HW139769   7.097   2.869   4.049  0.5045 -0.0507 -0.1102
 9348SOL    HW239770   7.042   2.735   4.092  0.3668 -0.1065 -0.4623
 9349SOL     OW39771  10.975   1.020   1.510  0.1703 -0.2535 -0.0851
 9349SOL    HW139772  10.914   0.954   1.478  1.7034 -2.2120  0.7915
 9349SOL    HW239773  10.944   1.042   1.598 -1.0789  1.2446 -0.8495
 9350SOL     OW39774   8.648   3.762  13.092 -0.0615 -0.6049 -0.6994
 9350SOL    HW139775   8.655   3.850  13.054  0.5165 -0.4354 -0.2170
 9350SOL    HW239776   8.573   3.723  13.047 -1.4562  0.7754  0.3149
 9351SOL     OW39777   2.695   4.178   0.650  0.7534 -0.1477  0.2777
 9351SOL    HW139778   2.689   4.109   0.583  0.2660  0.5341 -0.4089
 9351SOL    HW239779   2.776   4.160   0.697  0.5387 -1.2998  0.2407
 9352SOL     OW39780   6.193   9.171  10.284 -0.0430 -0.0101  0.0929
 9352SOL    HW139781   6.147   9.088  10.298 -0.2220 -0.1202 -1.0727
 9352SOL    HW239782   6.280   9.146  10.253  1.0160  0.1857  2.6583
 9353SOL     OW39783   0.782   4.574  10.684 -0.2938  0.2271  0.8399
 9353SOL    HW139784   0.712   4.533  10.735 -3.2193  1.9532 -1.4373
 9353SOL    HW239785   0.813   4.646  10.738  1.5773 -1.9571  2.8833
 9354SOL     OW39786  10.826   4.682  12.265  0.0458 -1.0003  0.4996
 9354SOL    HW139787  10.896   4.634  12.221  1.9905  0.2714  1.9873
 9354SOL    HW239788  10.776   4.723  12.194  0.7932 -1.9385 -0.6101
 9355SOL     OW39789   8.787   0.966   0.631  0.4954  0.3324 -0.3753
 9355SOL    HW139790   8.727   0.956   0.705  1.1382  1.4064  0.3166
 9355SOL    HW239791   8.837   0.884   0.630  1.0374  0.6273  0.8980
 9356SOL     OW39792  11.135   9.582   3.776  0.5971 -0.0848 -0.6073
 9356SOL    HW139793  11.139   9.611   3.685 -2.5054  2.3631 -0.1415
 9356SOL    HW239794  11.063   9.518   3.778 -0.9098  1.5502  0.3865
 9357SOL     OW39795   3.780  10.570   0.383 -0.3428 -0.0959 -0.6924
 9357SOL    HW139796   3.790  10.624   0.305  0.0089  1.9517  0.6697
 9357SOL    HW239797   3.765  10.634   0.454  4.2780 -1.2976  1.8062
 9358SOL     OW39798   6.510  11.944   8.604  0.0899  0.0680 -0.2106
 9358SOL    HW139799   6.443  11.953   8.536  0.1992  1.7336 -0.1358
 9358SOL    HW239800   6.587  11.988   8.568  0.4736  0.0569  0.5664
 9359SOL     OW39801   7.281   0.900   7.520 -0.3747  0.1018 -0.0119
 9359SOL    HW139802   7.224   0.941   7.454 -0.3010 -0.2025 -0.2712
 9359SOL    HW239803   7.264   0.949   7.600  2.0505  2.7766 -0.9756
 9360SOL     OW39804   3.993   9.829   1.747 -0.1241  0.0842 -0.3366
 9360SOL    HW139805   4.081   9.859   1.723 -0.4935  1.4929 -0.0539
 9360SOL    HW239806   4.004   9.738   1.772  1.3044  0.3083 -0.0798
 9361SOL     OW39807  11.120  13.430  12.186  0.1585 -0.0892  0.5066
 9361SOL    HW139808  11.045  13.425  12.246 -0.7078 -0.4274 -0.5652
 9361SOL    HW239809  11.180  13.492  12.227 -0.6236  0.0355  1.4904
 9362SOL     OW39810   7.323   5.009  10.323  0.2858  0.2024  0.9672
 9362SOL    HW139811   7.378   5.044  10.393 -2.9656  0.9658  3.4163
 9362SOL    HW239812   7.315   4.916  10.342 -0.0412  0.2815  1.2325
 9363SOL     OW39813  13.549   6.009   2.465  0.1908 -0.0004 -0.1368
 9363SOL    HW139814  13.544   6.104   2.450 -1.8969  0.1644  1.1258
 9363SOL    HW239815  13.535   5.999   2.559  0.8827 -1.5549 -0.1801
 9364SOL     OW39816  12.319   3.400   9.314  0.4531  0.9029  0.1616
 9364SOL    HW139817  12.232   3.379   9.347  0.0072  2.0864 -0.2008
 9364SOL    HW239818  12.377   3.383   9.387  0.0370 -0.6758  0.1583
 9365SOL     OW39819   7.354   6.687   5.539 -0.3025 -0.5414 -0.0822
 9365SOL    HW139820   7.393   6.754   5.484  0.7067 -1.1494 -0.1315
 9365SOL    HW239821   7.295   6.639   5.480  0.8763 -1.2780 -0.6938
 9366SOL     OW39822  11.267  12.665   1.992  0.3114  0.1283 -0.8434
 9366SOL    HW139823  11.208  12.739   2.003 -0.0910 -0.2315 -0.5939
 9366SOL    HW239824  11.274  12.625   2.078 -0.6325 -0.9996 -1.2690
 9367SOL     OW39825   4.008   7.054   7.339  0.0617 -0.3128 -0.0191
 9367SOL    HW139826   4.022   7.135   7.389 -0.1226  1.0677 -2.0923
 9367SOL    HW239827   3.944   7.078   7.272  0.0478 -2.1887 -0.7258
 9368SOL     OW39828   7.200  12.448   9.959  0.3178 -0.0698 -0.0387
 9368SOL    HW139829   7.143  12.389  10.009 -0.6316 -1.0497 -2.1543
 9368SOL    HW239830   7.258  12.486  10.024 -3.6056  2.1476  2.5765
 9369SOL     OW39831  11.972   9.716  11.924 -0.2369 -0.2678  0.0796
 9369SOL    HW139832  12.015   9.797  11.895  0.3574 -0.5017  0.2905
 9369SOL    HW239833  12.036   9.647  11.906 -0.9391 -0.7688 -0.5852
 9370SOL     OW39834   1.141   8.734   5.868  0.0626 -0.0044 -0.4114
 9370SOL    HW139835   1.231   8.723   5.836  0.3251  1.5472 -0.2874
 9370SOL    HW239836   1.143   8.817   5.915 -1.3068 -0.2571  0.1185
 9371SOL     OW39837   1.169   4.788   1.612 -0.3830 -0.1964  0.1750
 9371SOL    HW139838   1.113   4.822   1.683 -0.8271  0.1485 -0.3364
 9371SOL    HW239839   1.220   4.718   1.654  0.8700  1.3518  1.3719
 9372SOL     OW39840  12.005   6.291   2.578  0.1511  0.4302  0.6517
 9372SOL    HW139841  11.966   6.360   2.632 -0.1737 -0.3139  1.3935
 9372SOL    HW239842  11.958   6.211   2.603  1.6745 -0.3765  1.0781
 9373SOL     OW39843   1.631  11.233   1.448  0.2203  0.2447 -0.4890
 9373SOL    HW139844   1.705  11.285   1.416 -0.4413 -0.4529 -3.4610
 9373SOL    HW239845   1.670  11.171   1.510  2.0111  0.3976 -1.4045
 9374SOL     OW39846   0.434   0.630   8.672 -0.1653  0.7021  0.1504
 9374SOL    HW139847   0.346   0.596   8.657  0.2368 -0.4376  0.2973
 9374SOL    HW239848   0.457   0.673   8.590 -0.1140 -0.6884 -0.5931
 9375SOL     OW39849   1.032   4.736   6.518  0.0166  0.8460 -0.4504
 9375SOL    HW139850   0.960   4.711   6.461 -1.2423  0.1343  1.3935
 9375SOL    HW239851   0.998   4.728   6.607  3.4942 -3.7043  0.8549
 9376SOL     OW39852   3.451   9.552   5.804 -0.3768  0.6058 -0.1551
 9376SOL    HW139853   3.392   9.621   5.836 -1.9465 -1.1323  0.9520
 9376SOL    HW239854   3.421   9.534   5.715  0.0615  1.3315 -0.4623
 9377SOL     OW39855  10.470   7.857   1.165 -0.3270 -0.1121  0.2241
 9377SOL    HW139856  10.444   7.801   1.092 -1.6595  0.5070  0.1919
 9377SOL    HW239857  10.413   7.830   1.237  1.5870 -1.3496  1.3638
 9378SOL     OW39858  10.287   3.362   1.605  0.0690  0.3361  0.1621
 9378SOL    HW139859  10.290   3.267   1.614  2.1785  0.4096  0.7580
 9378SOL    HW239860  10.311   3.377   1.513 -0.5381  0.2889 -0.0060
 9379SOL     OW39861  13.530  12.816  13.343  0.3362 -0.7390 -0.0732
 9379SOL    HW139862  13.596  12.813  13.274  0.6069 -1.2799  0.1963
 9379SOL    HW239863  13.511  12.724  13.361  0.2532 -0.6068  0.5498
 9380SOL     OW39864   2.699   0.364   9.114 -0.2067  0.4610 -0.2449
 9380SOL    HW139865   2.781   0.412   9.103 -0.2765  0.4297 -0.9019
 9380SOL    HW239866   2.631   0.428   9.095 -0.3489  0.5438  0.5013
 9381SOL     OW39867   0.471   4.056   9.708  0.3402  0.3045 -0.3141
 9381SOL    HW139868   0.559   4.069   9.673  0.4297 -0.9399 -0.6102
 9381SOL    HW239869   0.483   3.989   9.776 -0.1890  1.0545  0.5391
 9382SOL     OW39870   0.130   2.485   9.968 -0.1170 -0.4578  0.0498
 9382SOL    HW139871   0.090   2.557   9.919  1.0423  1.5362  1.8506
 9382SOL    HW239872   0.224   2.494   9.952  0.0753 -1.3300  0.6061
 9383SOL     OW39873  13.704   6.525   1.405  0.0616  0.0502  0.2993
 9383SOL    HW139874  13.678   6.448   1.355 -0.2685 -0.5338  1.3455
 9383SOL    HW239875  13.792   6.504   1.437 -0.1717 -0.0547  0.8841
 9384SOL     OW39876   1.250  13.143  12.485 -0.2554  0.3933  0.1419
 9384SOL    HW139877   1.343  13.165  12.494  0.6541 -0.4479 -4.5551
 9384SOL    HW239878   1.238  13.066  12.540  1.8618  0.4753  0.8025
 9385SOL     OW39879  13.510   4.442   4.155 -0.3020 -0.5045 -0.5161
 9385SOL    HW139880  13.427   4.480   4.124 -0.6740 -0.1010  0.9026
 9385SOL    HW239881  13.554   4.513   4.200  0.4820 -0.9190 -0.6155
 9386SOL     OW39882   1.215   9.476   5.960 -0.6536 -0.4379 -0.2593
 9386SOL    HW139883   1.216   9.537   6.034 -0.6376 -0.7278 -0.0168
 9386SOL    HW239884   1.285   9.506   5.902  1.2075 -1.8074  1.1582
 9387SOL     OW39885   7.821   6.276   8.568  0.6901 -0.7517 -0.0192
 9387SOL    HW139886   7.815   6.228   8.651 -1.5292 -1.0075 -0.2702
 9387SOL    HW239887   7.879   6.223   8.514  0.1278 -1.9621  0.5162
 9388SOL     OW39888  12.187   9.641  10.072 -0.2609  0.2015  0.1778
 9388SOL    HW139889  12.259   9.610  10.018 -0.7877 -1.1148  0.1861
 9388SOL    HW239890  12.155   9.562  10.116 -2.3784  0.5336 -0.6475
 9389SOL     OW39891  12.106  12.560   4.279 -0.0201  0.0210 -0.4639
 9389SOL    HW139892  12.033  12.568   4.217  0.3863 -0.8262 -1.0760
 9389SOL    HW239893  12.180  12.600   4.234 -0.0764  0.8050  0.1214
 9390SOL     OW39894   2.714   1.448   7.404  0.3073 -0.3112  0.7568
 9390SOL    HW139895   2.696   1.382   7.471 -1.1964 -0.3939  0.3066
 9390SOL    HW239896   2.773   1.405   7.342 -1.3063 -1.5625  0.0186
 9391SOL     OW39897   8.681   7.418  11.487 -0.0668 -0.0511 -0.2018
 9391SOL    HW139898   8.589   7.401  11.469 -0.4244  0.0529  1.3509
 9391SOL    HW239899   8.682   7.504  11.529  0.7074 -0.1446  0.0014
 9392SOL     OW39900   4.326   3.612   8.898  0.1780 -0.2037  0.4967
 9392SOL    HW139901   4.242   3.622   8.853  0.1436 -2.6657 -0.1291
 9392SOL    HW239902   4.392   3.637   8.834  0.0560 -2.2135 -0.4797
 9393SOL     OW39903   1.789   6.132   7.147 -0.8076 -0.2000 -0.0373
 9393SOL    HW139904   1.854   6.094   7.087  0.0322  0.1484  0.6406
 9393SOL    HW239905   1.794   6.226   7.132 -1.0047 -0.1543  0.1747
 9394SOL     OW39906   0.993   3.040  12.571  0.2805 -0.0806  0.2328
 9394SOL    HW139907   1.049   3.110  12.537  0.8587 -0.1117  1.0926
 9394SOL    HW239908   0.974   2.986  12.494 -0.9554  1.5022 -0.6382
 9395SOL     OW39909   5.484  12.002   6.507 -0.2075 -0.1738 -0.2521
 9395SOL    HW139910   5.509  12.037   6.592  2.2041  0.2957 -1.0902
 9395SOL    HW239911   5.414  12.060   6.476 -0.4021  0.2476  0.9411
 9396SOL     OW39912   8.076  13.665   7.241 -0.2181 -0.1102 -0.6713
 9396SOL    HW139913   8.018  13.728   7.199 -2.3325 -0.7421  1.1367
 9396SOL    HW239914   8.083  13.593   7.180 -0.2551  0.5328 -1.4529
 9397SOL     OW39915   5.169  11.514   3.371  0.2224  0.8264  0.7965
 9397SOL    HW139916   5.131  11.487   3.455  0.4076  0.8548  0.8910
 9397SOL    HW239917   5.253  11.555   3.395  3.5080 -4.6195  0.2968
 9398SOL     OW39918   1.835   5.315   7.596 -0.0215  0.2253  0.1898
 9398SOL    HW139919   1.853   5.299   7.504  0.8961 -1.0558  0.5784
 9398SOL    HW239920   1.784   5.239   7.624  0.0019  0.4445  0.8360
 9399SOL     OW39921   8.592   2.804   8.425 -0.3088 -0.4176 -0.1859
 9399SOL    HW139922   8.574   2.886   8.471  0.7426 -1.0608  1.4780
 9399SOL    HW239923   8.684   2.785   8.443 -0.4913 -1.8910 -0.6113
 9400SOL     OW39924   9.650  11.961   6.299 -0.4740 -0.4083 -0.0542
 9400SOL    HW139925   9.660  11.929   6.388 -1.5182  0.8781  0.5577
 9400SOL    HW239926   9.656  12.056   6.307 -1.8790 -0.2031 -1.1603
 9401SOL     OW39927  10.444   0.143  11.660  0.2712 -0.5702  0.1001
 9401SOL    HW139928  10.471   0.218  11.607 -0.6078 -0.2269  0.1219
 9401SOL    HW239929  10.501   0.147  11.737 -0.6532  0.9018  0.7663
 9402SOL     OW39930   0.519   1.164  12.348  0.0833 -0.5023  0.8994
 9402SOL    HW139931   0.604   1.202  12.325  0.0037 -0.5195  0.5732
 9402SOL    HW239932   0.503   1.193  12.438 -1.2372  2.5541 -0.1686
 9403SOL     OW39933  13.250   2.798   8.064 -0.4770  0.6456 -0.0328
 9403SOL    HW139934  13.266   2.877   8.013  1.6343  0.8686  0.8715
 9403SOL    HW239935  13.331   2.784   8.113 -1.6996 -0.6764  1.7427
 9404SOL     OW39936   1.627   2.567   7.765  0.6764 -0.6376  0.1952
 9404SOL    HW139937   1.642   2.518   7.846  0.8923 -1.4699 -0.3401
 9404SOL    HW239938   1.636   2.658   7.791 -0.6872 -0.8106  1.4226
 9405SOL     OW39939   0.149   6.237  11.831  0.7972  0.4940 -0.7367
 9405SOL    HW139940   0.074   6.295  11.834 -0.0394 -0.4940 -1.6694
 9405SOL    HW239941   0.219   6.285  11.875 -0.5891  1.1227  0.8642
 9406SOL     OW39942   9.589   0.015   3.138  0.3496 -0.6875 -0.1735
 9406SOL    HW139943   9.614  -0.067   3.094  0.2834 -0.8601  0.1086
 9406SOL    HW239944   9.496   0.026   3.118  0.5618 -0.2110 -0.9593
 9407SOL     OW39945  12.261   2.716   5.714 -1.1649  0.1540 -0.2746
 9407SOL    HW139946  12.203   2.792   5.721 -0.5625  0.6174 -0.1891
 9407SOL    HW239947  12.205   2.641   5.732 -1.5632  0.6534  0.6387
 9408SOL     OW39948   2.817   0.692   6.023  0.2528 -0.5081  0.1122
 9408SOL    HW139949   2.773   0.757   5.968  0.2961 -0.7799 -0.2494
 9408SOL    HW239950   2.757   0.618   6.027 -0.0730 -0.2046  1.0479
 9409SOL     OW39951   8.223   3.587   7.401 -0.3093  0.0035 -0.2612
 9409SOL    HW139952   8.241   3.536   7.479 -0.2604  0.8537  0.2994
 9409SOL    HW239953   8.289   3.656   7.402 -2.1934  1.9088  0.6944
 9410SOL     OW39954   9.061  12.232   7.171 -0.1104 -0.1560  0.0913
 9410SOL    HW139955   9.028  12.322   7.177 -0.1360 -0.1254 -0.4205
 9410SOL    HW239956   9.152  12.242   7.142 -0.8812 -0.3482 -2.6838
 9411SOL     OW39957  10.716  11.910   2.345  0.5406 -0.3093 -0.7111
 9411SOL    HW139958  10.704  11.987   2.400 -1.4380 -1.3507  0.3931
 9411SOL    HW239959  10.642  11.911   2.285  1.6784 -0.2121 -2.1777
 9412SOL     OW39960  11.592   7.664   1.579 -0.0685 -0.5834  0.5897
 9412SOL    HW139961  11.531   7.737   1.571  2.0995  1.2229 -0.6342
 9412SOL    HW239962  11.583   7.617   1.495  0.3497 -0.1949  0.3237
 9413SOL     OW39963   1.055   5.314   9.228 -0.5043 -0.2104 -0.2920
 9413SOL    HW139964   1.092   5.274   9.306  1.7834  1.1007 -0.5956
 9413SOL    HW239965   0.981   5.259   9.205 -0.3527 -1.4623  1.9469
 9414SOL     OW39966  11.023  12.813   0.073 -0.3458 -0.1359  0.3654
 9414SOL    HW139967  10.969  12.812   0.152 -1.1448  2.0563 -0.1038
 9414SOL    HW239968  10.974  12.760   0.010 -1.8986  1.5994  0.0315
 9415SOL     OW39969  11.767   5.064   9.011 -0.0938  0.0534  0.5729
 9415SOL    HW139970  11.679   5.049   8.977  0.2853 -1.7874  0.3030
 9415SOL    HW239971  11.780   4.994   9.075  1.0052  0.5697  0.9318
 9416SOL     OW39972  11.896  11.638  10.785  0.4804 -0.2643 -0.0281
 9416SOL    HW139973  11.909  11.544  10.775  1.2775 -0.2420  0.6907
 9416SOL    HW239974  11.931  11.659  10.872 -0.3513  0.5805  0.1345
 9417SOL     OW39975  12.174   0.088  12.222  0.5694 -0.1285  0.4948
 9417SOL    HW139976  12.114   0.161  12.211 -0.1639 -0.9348 -1.2069
 9417SOL    HW239977  12.232   0.093  12.146  0.7990 -1.0397  0.5976
 9418SOL     OW39978  12.998   8.903  11.820  0.1036 -0.5391 -0.1872
 9418SOL    HW139979  12.998   8.811  11.794  0.6775 -1.0237  1.3769
 9418SOL    HW239980  13.019   8.950  11.740  3.2194 -2.0220 -0.3964
 9419SOL     OW39981  12.755   5.100   3.306 -0.2114 -0.0461 -0.2321
 9419SOL    HW139982  12.778   5.150   3.385 -2.3210  1.3660 -0.4236
 9419SOL    HW239983  12.660   5.107   3.300 -0.3768 -2.3105 -1.5236
 9420SOL     OW39984   4.425  13.284   9.195  0.0325 -0.3806  0.1834
 9420SOL    HW139985   4.493  13.216   9.192 -0.0061 -0.4590  0.9770
 9420SOL    HW239986   4.368  13.264   9.121  0.3277 -0.8950  0.0904
 9421SOL     OW39987  11.965   1.769   7.143  0.0809 -0.6176 -0.1002
 9421SOL    HW139988  11.944   1.862   7.152  0.1603 -0.6858  0.9759
 9421SOL    HW239989  12.021   1.750   7.218  1.8101 -1.0559 -1.4470
 9422SOL     OW39990  13.295   6.061   7.968 -0.2586 -0.7435  0.1892
 9422SOL    HW139991  13.343   6.088   8.046  2.8143 -2.9168 -0.7491
 9422SOL    HW239992  13.315   6.128   7.903  0.4943 -0.9821  0.1674
 9423SOL     OW39993  13.589  12.262  10.798  0.5350 -0.4879 -0.6839
 9423SOL    HW139994  13.526  12.331  10.816 -0.4118 -1.3281 -0.6486
 9423SOL    HW239995  13.624  12.238  10.884  1.7934  0.7653 -0.8166
 9424SOL     OW39996   6.939   5.895  10.616  0.9456  0.5446 -0.1292
 9424SOL    HW139997   6.950   5.837  10.541 -2.0150 -0.0334 -0.2333
 9424SOL    HW239998   6.968   5.981  10.584  0.9336  0.0536 -1.5163
 9425SOL     OW39999   0.249   2.278  11.090  0.2523  0.2944 -0.2545
 9425SOL    HW140000   0.337   2.317  11.093  0.0795  0.6607  1.6515
 9425SOL    HW240001   0.265   2.184  11.087  0.7156  0.3782 -0.5495
 9426SOL     OW40002   6.006   2.346   7.879 -0.3798  0.3164 -0.0100
 9426SOL    HW140003   6.062   2.345   7.801 -0.7679  1.1568 -0.3106
 9426SOL    HW240004   6.050   2.289   7.941 -0.0395 -0.3239 -0.8305
 9427SOL     OW40005   1.095   3.155   1.836 -0.3391 -0.2994  0.6781
 9427SOL    HW140006   1.088   3.248   1.814 -1.3369 -0.6587 -0.6513
 9427SOL    HW240007   1.159   3.152   1.907  1.0889  1.2154 -0.4753
 9428SOL     OW40008  11.244   4.968  11.669 -0.3033 -0.3474 -0.1452
 9428SOL    HW140009  11.164   4.983  11.618  0.4427  1.3410 -0.9076
 9428SOL    HW240010  11.255   5.048  11.721 -0.4201 -1.5693  1.8466
 9429SOL     OW40011   6.356   8.780  13.667  0.1989 -0.1874 -0.6354
 9429SOL    HW140012   6.348   8.690  13.636  2.4030 -0.7685  0.2545
 9429SOL    HW240013   6.383   8.831  13.591 -0.2779 -0.4216 -0.9618
 9430SOL     OW40014   5.709   0.954   1.634 -0.8641 -0.8797 -0.5055
 9430SOL    HW140015   5.760   0.914   1.705 -0.1384 -0.1054 -0.5736
 9430SOL    HW240016   5.661   1.025   1.676 -0.8708 -0.7795 -0.6807
 9431SOL     OW40017   9.491   5.489   8.857 -0.2167  0.1210 -0.1352
 9431SOL    HW140018   9.567   5.436   8.879 -1.2451 -1.0530  0.7196
 9431SOL    HW240019   9.512   5.577   8.888  0.7766 -0.2000  0.1095
 9432SOL     OW40020   2.672  12.193  12.558 -0.0339 -0.1714  0.4069
 9432SOL    HW140021   2.655  12.173  12.650 -0.2203  0.4294  0.5072
 9432SOL    HW240022   2.756  12.151  12.539 -0.6576 -1.4928  0.4578
 9433SOL     OW40023   8.129   0.091   4.548  0.0661 -0.2720  0.3496
 9433SOL    HW140024   8.103   0.105   4.639 -2.2879 -0.5174 -0.2300
 9433SOL    HW240025   8.131  -0.004   4.538 -0.8700 -0.2540 -0.1305
 9434SOL     OW40026  13.339   1.711  11.237  0.2050  0.3744  0.0475
 9434SOL    HW140027  13.402   1.688  11.306 -0.7074 -0.2847  0.6796
 9434SOL    HW240028  13.257   1.725  11.283  0.1034  2.3601 -0.6329
 9435SOL     OW40029   2.874  11.191  13.485  0.3123 -0.5061  0.4394
 9435SOL    HW140030   2.941  11.123  13.490  0.4695 -0.2382  2.7465
 9435SOL    HW240031   2.801  11.149  13.438  2.4657 -0.3712 -3.4491
 9436SOL     OW40032   4.166   7.585   7.073 -0.4667 -0.5253  0.0758
 9436SOL    HW140033   4.132   7.557   6.988 -3.0110  0.6763  0.5906
 9436SOL    HW240034   4.130   7.521   7.135 -0.3544 -0.2123  0.4707
 9437SOL     OW40035   6.661  10.872   2.623 -0.3115 -0.8093 -0.9732
 9437SOL    HW140036   6.718  10.945   2.596 -0.9489 -0.6002 -1.7882
 9437SOL    HW240037   6.582  10.883   2.571 -0.7325 -1.6411 -0.5260
 9438SOL     OW40038  10.668   6.662   3.356  0.0734 -0.1032  0.4992
 9438SOL    HW140039  10.629   6.710   3.283  0.1287 -1.0426 -0.1660
 9438SOL    HW240040  10.762   6.672   3.344  0.1468 -1.6016 -0.5405
 9439SOL     OW40041   4.533  13.408   5.190 -0.1441  0.0288  0.4019
 9439SOL    HW140042   4.524  13.341   5.258 -0.8722  0.3432  0.6322
 9439SOL    HW240043   4.447  13.410   5.148 -0.0339  0.6007  0.1966
 9440SOL     OW40044  12.200   1.179   8.966  0.0911 -0.5137  0.1021
 9440SOL    HW140045  12.262   1.247   8.940  1.5815 -2.7314 -2.6424
 9440SOL    HW240046  12.117   1.207   8.927 -0.3884  1.6637  2.4408
 9441SOL     OW40047   4.820   2.314   0.039  0.8104 -0.2359  0.0106
 9441SOL    HW140048   4.883   2.346  -0.024  1.4517  1.7612  1.5450
 9441SOL    HW240049   4.858   2.232   0.072  1.0792 -0.6266 -1.2137
 9442SOL     OW40050  11.840  11.264   0.897  0.1194 -0.4472  0.5258
 9442SOL    HW140051  11.826  11.296   0.986 -0.4074 -0.1948  0.3536
 9442SOL    HW240052  11.916  11.206   0.904 -0.0711 -0.6236  1.1862
 9443SOL     OW40053   4.743   0.692   6.512 -0.5830 -0.1016 -0.1979
 9443SOL    HW140054   4.797   0.681   6.590 -1.1393 -0.8535  0.0894
 9443SOL    HW240055   4.746   0.786   6.494 -1.2842  0.2327  1.3410
 9444SOL     OW40056  11.148  12.396   6.000 -0.0798  0.0601  0.3467
 9444SOL    HW140057  11.055  12.400   6.025 -0.4175  0.3450 -0.8667
 9444SOL    HW240058  11.153  12.322   5.939  1.0684 -1.7568  2.5288
 9445SOL     OW40059   1.520   8.169   5.484 -0.4271  0.0706  0.4766
 9445SOL    HW140060   1.447   8.140   5.429 -0.1053 -1.0408  0.6026
 9445SOL    HW240061   1.485   8.243   5.532 -1.7447 -0.9039  1.0964
 9446SOL     OW40062  12.196  10.392   1.007 -0.1095 -0.1008 -0.4163
 9446SOL    HW140063  12.220  10.415   0.917  0.6023  0.5584 -0.0726
 9446SOL    HW240064  12.268  10.425   1.060 -0.7723 -0.0198  0.4545
 9447SOL     OW40065   1.751  13.488   8.653  0.0090 -0.2989 -0.1849
 9447SOL    HW140066   1.686  13.468   8.586  0.2355 -1.1520 -0.1623
 9447SOL    HW240067   1.785  13.574   8.629  1.0426 -1.1449 -1.9421
 9448SOL     OW40068   2.315   4.795  11.832 -0.0164 -0.0385  0.6469
 9448SOL    HW140069   2.234   4.784  11.782  0.2129  0.6036  0.1228
 9448SOL    HW240070   2.286   4.812  11.922 -0.4937  0.9370  0.3226
 9449SOL     OW40071  10.786   3.999   7.040 -0.3662 -0.2858 -0.4875
 9449SOL    HW140072  10.829   3.980   7.123  0.1330  1.6849 -0.2345
 9449SOL    HW240073  10.695   3.970   7.053 -0.1339 -0.6185  0.4927
 9450SOL     OW40074  13.229   4.711   5.226  0.3175 -0.0373 -0.1030
 9450SOL    HW140075  13.287   4.765   5.172  0.3083 -0.9821 -1.0839
 9450SOL    HW240076  13.190   4.773   5.288  0.8209  0.9578 -0.7502
 9451SOL     OW40077   3.629   8.120  10.141  0.2481 -0.1103  0.0720
 9451SOL    HW140078   3.641   8.038  10.094 -1.0438 -0.3704  0.1541
 9451SOL    HW240079   3.534   8.129  10.151  0.4039  0.9036  0.9233
 9452SOL     OW40080  13.163   8.760  11.443  0.0897  0.6577 -0.5941
 9452SOL    HW140081  13.235   8.718  11.396  0.3883  0.3734  0.1059
 9452SOL    HW240082  13.097   8.692  11.453 -1.1237  1.3746 -2.8561
 9453SOL     OW40083   1.387   8.417   5.218 -0.1312  0.6849  0.6263
 9453SOL    HW140084   1.471   8.371   5.213 -0.6260 -0.1431 -1.1554
 9453SOL    HW240085   1.321   8.347   5.217 -0.8686  1.3652 -0.4708
 9454SOL     OW40086  12.030   2.509   3.864  0.5850  0.3033 -0.3973
 9454SOL    HW140087  12.121   2.527   3.839  1.2126  0.0737  1.5319
 9454SOL    HW240088  12.022   2.414   3.858  0.3370  0.3546 -0.9437
 9455SOL     OW40089  13.695   7.421   6.040 -0.5638  0.0407 -0.1733
 9455SOL    HW140090  13.695   7.386   5.951  0.6016 -1.8052  0.5045
 9455SOL    HW240091  13.651   7.506   6.032 -0.9492 -0.3054 -2.3999
 9456SOL     OW40092   4.550   9.043   3.289  0.6294  0.0189  0.1810
 9456SOL    HW140093   4.551   8.955   3.251 -1.7446 -0.9855  2.2249
 9456SOL    HW240094   4.631   9.048   3.340 -0.1473 -1.8373  1.7028
 9457SOL     OW40095   5.505  11.690   2.784 -0.4106  0.4697 -0.5718
 9457SOL    HW140096   5.445  11.729   2.721 -0.4050  0.7653 -0.3987
 9457SOL    HW240097   5.449  11.662   2.857 -0.2183  1.9511  0.1914
 9458SOL     OW40098  11.344   5.118   6.985  0.0160 -0.0985  0.1561
 9458SOL    HW140099  11.346   5.032   7.027  0.2326 -0.5145 -0.6854
 9458SOL    HW240100  11.325   5.100   6.893  0.1275  0.7478 -0.0444
 9459SOL     OW40101   4.582   7.522   9.558 -0.3754  0.4387 -0.8899
 9459SOL    HW140102   4.677   7.519   9.551 -0.3311  1.9815 -1.3152
 9459SOL    HW240103   4.565   7.542   9.650 -0.3399 -0.9151 -0.5744
 9460SOL     OW40104   1.960   3.162   9.060 -0.8521 -0.4127  0.3575
 9460SOL    HW140105   1.917   3.208   8.988 -0.6951  0.9234  1.0931
 9460SOL    HW240106   2.035   3.119   9.019 -1.5705 -0.8697 -0.5205
 9461SOL     OW40107   1.971   6.044   6.951 -0.2012 -0.3972  0.0776
 9461SOL    HW140108   1.994   5.999   6.870  0.6606  0.0820  0.0416
 9461SOL    HW240109   2.028   6.121   6.953 -0.6700 -0.0507  0.8204
 9462SOL     OW40110   0.960   8.893   5.606 -0.2069  0.0234  0.4990
 9462SOL    HW140111   0.972   8.808   5.564  1.0995  1.1174 -1.5161
 9462SOL    HW240112   0.980   8.877   5.699 -1.1241 -2.0631  0.3874
 9463SOL     OW40113   5.501   9.048  10.992  0.5315 -0.0971  0.4198
 9463SOL    HW140114   5.588   9.029  10.956  0.9687 -0.1654  1.4819
 9463SOL    HW240115   5.480   8.972  11.046  0.3873  0.4927  1.2155
 9464SOL     OW40116   4.284   3.892   5.006 -0.7228 -0.2700 -0.2454
 9464SOL    HW140117   4.229   3.838   4.948 -1.3498  0.4197 -0.3140
 9464SOL    HW240118   4.333   3.829   5.057 -1.0086 -0.9072 -0.7328
 9465SOL     OW40119   6.384   3.360   7.522  0.0796  0.7442  0.5865
 9465SOL    HW140120   6.414   3.342   7.611 -0.1703  0.3509  0.5921
 9465SOL    HW240121   6.298   3.320   7.517  0.7233 -0.6048 -0.3064
 9466SOL     OW40122   1.934   9.813   1.316 -0.0046 -0.4845 -0.3517
 9466SOL    HW140123   1.953   9.735   1.264 -0.8784  0.7389 -2.6676
 9466SOL    HW240124   1.839   9.816   1.322  0.0500 -0.1094  0.5832
 9467SOL     OW40125   5.515   9.874   8.738  0.0921  0.4637 -0.4929
 9467SOL    HW140126   5.540   9.787   8.770 -0.5559  0.0750 -1.0125
 9467SOL    HW240127   5.522   9.867   8.642  1.2365  1.3636 -0.4878
 9468SOL     OW40128   0.325  10.136   4.620 -0.0482 -0.0076  0.3890
 9468SOL    HW140129   0.355  10.160   4.532  0.6439 -2.6527 -0.1737
 9468SOL    HW240130   0.230  10.138   4.613 -0.0199  1.2142  0.0358
 9469SOL     OW40131   6.239   7.267   7.972 -0.4713  0.3782  0.0848
 9469SOL    HW140132   6.223   7.294   8.063 -0.7661  0.1947  0.0909
 9469SOL    HW240133   6.325   7.302   7.951 -0.1360 -0.1066  0.6409
 9470SOL     OW40134   4.189  11.179   3.357 -0.6873  0.0668  0.0331
 9470SOL    HW140135   4.180  11.126   3.436  0.9569 -0.6446 -0.2242
 9470SOL    HW240136   4.165  11.121   3.286  3.5676 -1.3882 -0.5203
 9471SOL     OW40137   5.419   0.395   2.444  0.2593  0.2304  0.4729
 9471SOL    HW140138   5.456   0.326   2.499  2.0253  1.3084  0.7180
 9471SOL    HW240139   5.439   0.367   2.355 -2.9843 -1.7348  0.2071
 9472SOL     OW40140   4.266   2.358   6.145 -0.5539 -0.3732  0.2206
 9472SOL    HW140141   4.272   2.427   6.079 -0.1826 -0.1366  0.4958
 9472SOL    HW240142   4.285   2.277   6.097 -2.4871 -0.4857 -0.4205
 9473SOL     OW40143   9.814   0.896   0.529 -0.4090 -0.1579  0.3995
 9473SOL    HW140144   9.806   0.801   0.516  2.0516 -0.2533 -0.9479
 9473SOL    HW240145   9.777   0.934   0.449 -0.3446 -0.0431  0.4242
 9474SOL     OW40146  11.679  10.042   6.261  0.2158  0.2249  0.4608
 9474SOL    HW140147  11.671   9.968   6.200  1.3767 -0.4450  1.0845
 9474SOL    HW240148  11.635  10.012   6.340  0.7084  0.1819  0.7226
 9475SOL     OW40149   1.823  12.271  12.128  0.0170 -0.1619 -0.4807
 9475SOL    HW140150   1.860  12.357  12.144 -0.0131 -0.1820 -0.3041
 9475SOL    HW240151   1.886  12.210  12.167  0.2152 -0.2389 -0.9131
 9476SOL     OW40152  12.448   4.027   7.332 -0.2987 -0.3270 -0.5307
 9476SOL    HW140153  12.491   4.111   7.349  0.9936 -0.7517 -1.5119
 9476SOL    HW240154  12.383   4.047   7.264 -0.3968 -0.0074 -0.3422
 9477SOL     OW40155   8.178   9.422  12.906 -0.0452  0.0007  0.4919
 9477SOL    HW140156   8.147   9.333  12.918  1.7827 -0.4798  2.1628
 9477SOL    HW240157   8.273   9.414  12.895 -0.0157  1.6328 -0.9256
 9478SOL     OW40158   5.230   7.876  12.376 -0.7064  0.6162 -0.3715
 9478SOL    HW140159   5.217   7.806  12.312  1.5935  0.8653 -1.1937
 9478SOL    HW240160   5.169   7.944  12.349 -1.4079 -0.1905 -0.8799
 9479SOL     OW40161   5.968   8.740   6.923 -0.7311 -0.0309  0.6177
 9479SOL    HW140162   5.877   8.720   6.898 -0.2523 -0.8850 -0.5182
 9479SOL    HW240163   6.013   8.758   6.841  0.3827 -0.6951  1.0547
 9480SOL     OW40164   3.340   3.677   2.285 -0.0990 -0.1522 -0.4174
 9480SOL    HW140165   3.342   3.693   2.190 -2.0480  0.4741 -0.4018
 9480SOL    HW240166   3.325   3.764   2.323  0.5720 -0.4155  0.4698
 9481SOL     OW40167   2.338   1.823   8.178 -0.4435 -0.4701  0.3796
 9481SOL    HW140168   2.297   1.755   8.124  0.7534 -0.9873  0.0868
 9481SOL    HW240169   2.268   1.854   8.235 -1.4596 -0.6698 -0.7353
 9482SOL     OW40170   4.487  11.150   1.298  0.1169 -0.3645  0.1898
 9482SOL    HW140171   4.490  11.242   1.325  1.7742  0.2496 -1.8020
 9482SOL    HW240172   4.542  11.104   1.362  2.4800  0.7411 -0.9323
 9483SOL     OW40173   2.197   9.707   2.287 -0.7227 -0.0008 -0.4630
 9483SOL    HW140174   2.182   9.801   2.283 -1.9375 -0.0910  0.9258
 9483SOL    HW240175   2.206   9.680   2.196 -1.2396  1.3328 -0.9319
 9484SOL     OW40176   3.505  11.913   8.639 -0.2686  0.3082 -0.4054
 9484SOL    HW140177   3.452  11.992   8.627 -1.8696 -0.8027 -0.9968
 9484SOL    HW240178   3.536  11.891   8.552  2.3103  1.6348  0.0903
 9485SOL     OW40179   7.954  12.350   5.930  0.5697  0.1587 -0.3618
 9485SOL    HW140180   7.889  12.382   5.993  0.7200  0.9924 -0.6148
 9485SOL    HW240181   7.909  12.282   5.880  0.6553 -1.0428  1.1061
 9486SOL     OW40182   0.504   5.936   1.344  0.3594  0.6487  0.3318
 9486SOL    HW140183   0.543   5.888   1.417 -0.9812 -0.7770  0.1689
 9486SOL    HW240184   0.522   6.028   1.364  0.0911  0.2982  2.4406
 9487SOL     OW40185  11.343   7.734   2.593  0.3701 -0.4921 -0.5426
 9487SOL    HW140186  11.300   7.813   2.625  0.4253  0.1947 -2.0765
 9487SOL    HW240187  11.436   7.751   2.603  0.4223 -1.7632  2.2660
 9488SOL     OW40188   5.859  12.833   4.380 -0.9573  0.2471 -0.1160
 9488SOL    HW140189   5.931  12.833   4.317 -1.2339 -1.0900 -0.4611
 9488SOL    HW240190   5.894  12.879   4.457  0.2004 -0.1976 -0.3565
 9489SOL     OW40191  11.560   0.408   2.834  0.1928  0.0239  0.1129
 9489SOL    HW140192  11.567   0.327   2.783  0.9529  1.5672 -2.3977
 9489SOL    HW240193  11.639   0.409   2.888  0.9207 -0.2704 -0.9041
 9490SOL     OW40194   8.014   3.313   4.822 -0.5294  0.4702  0.6468
 9490SOL    HW140195   8.052   3.276   4.902  0.8465  1.2689  0.3996
 9490SOL    HW240196   7.956   3.244   4.790 -0.1442 -0.3700  1.6543
 9491SOL     OW40197   1.287   8.144  13.152  0.6631 -0.2730  0.4484
 9491SOL    HW140198   1.286   8.200  13.229 -1.8351  0.1177  0.2033
 9491SOL    HW240199   1.250   8.061  13.183  0.2509 -0.3274 -0.1866
 9492SOL     OW40200   8.027   7.676   7.603 -0.1637  0.0831 -0.6607
 9492SOL    HW140201   7.937   7.661   7.632 -0.3731  1.6810 -0.4049
 9492SOL    HW240202   8.019   7.700   7.511  0.0309 -0.0457 -0.7116
 9493SOL     OW40203  10.452   8.813   8.460 -0.4695 -0.2470  0.0976
 9493SOL    HW140204  10.452   8.770   8.374 -0.7217  0.9893 -0.5381
 9493SOL    HW240205  10.394   8.759   8.513 -1.4045 -0.2827 -0.9122
 9494SOL     OW40206  13.184   6.101  12.895 -0.3884 -0.0110  0.1915
 9494SOL    HW140207  13.212   6.162  12.963 -1.0923  0.5923 -0.0390
 9494SOL    HW240208  13.219   6.139  12.814 -3.3503  1.8318 -0.3698
 9495SOL     OW40209   2.087   0.371   2.346 -0.2024  0.0808  0.5455
 9495SOL    HW140210   2.060   0.456   2.382 -0.2505  0.4378 -0.3255
 9495SOL    HW240211   2.005   0.322   2.336 -0.6385  1.1892 -2.1625
 9496SOL     OW40212   3.446   0.336   6.045  0.6610 -0.4476  0.6937
 9496SOL    HW140213   3.415   0.406   5.986  1.2264 -0.8497 -0.0990
 9496SOL    HW240214   3.372   0.275   6.050  1.4331 -1.7038 -1.6626
 9497SOL     OW40215   0.367   2.708  12.721 -0.6143  0.3029  0.0837
 9497SOL    HW140216   0.272   2.713  12.721 -0.6636 -0.2717  1.4560
 9497SOL    HW240217   0.386   2.625  12.676 -0.7155  0.8001 -0.8983
 9498SOL     OW40218  11.774  10.813   7.396  0.8855 -0.0918 -0.6048
 9498SOL    HW140219  11.852  10.843   7.444  0.6510 -1.2246  0.5580
 9498SOL    HW240220  11.765  10.874   7.323  1.4357  1.5454  0.6386
 9499SOL     OW40221   3.866   6.950  11.779 -0.0917 -0.3151  0.6264
 9499SOL    HW140222   3.930   6.880  11.764 -0.5930 -0.9005  1.1470
 9499SOL    HW240223   3.781   6.908  11.767 -0.4049  0.1840  1.0387
 9500SOL     OW40224   4.729   0.466  12.780  0.0665 -0.2122 -0.6561
 9500SOL    HW140225   4.730   0.551  12.824 -2.6215  0.1175 -1.0565
 9500SOL    HW240226   4.760   0.404  12.847  3.1583  1.1171 -0.7033
 9501SOL     OW40227   5.462   3.321   4.951 -0.0255  0.2388  0.2345
 9501SOL    HW140228   5.551   3.314   4.916  0.1071  0.5071  0.5038
 9501SOL    HW240229   5.406   3.325   4.874  0.0758 -1.2162  0.0519
 9502SOL     OW40230   6.378  12.898   9.797 -0.2409 -0.3038 -0.4430
 9502SOL    HW140231   6.468  12.872   9.777 -0.2600 -0.2523 -0.5948
 9502SOL    HW240232   6.325  12.828   9.760 -0.1982 -1.1082  0.9561
 9503SOL     OW40233   1.250  11.672   1.308  0.5283  0.0773 -0.5143
 9503SOL    HW140234   1.337  11.650   1.340 -0.4092 -3.0806  0.3139
 9503SOL    HW240235   1.258  11.669   1.213  1.7061  1.8829 -0.5107
 9504SOL     OW40236   2.281   4.272   8.984  0.1814 -0.0334  0.9840
 9504SOL    HW140237   2.375   4.266   8.968 -0.0150 -0.1998 -0.2772
 9504SOL    HW240238   2.255   4.182   9.007  0.4093  0.1268  1.9040
 9505SOL     OW40239   4.506   1.769  13.452 -0.4588 -0.0810 -0.1273
 9505SOL    HW140240   4.600   1.750  13.451 -0.4718 -0.1709  0.2235
 9505SOL    HW240241   4.499   1.855  13.493 -0.6535 -0.8263  1.4642
 9506SOL     OW40242   3.654  12.035  11.823 -0.1430  0.0717  0.3290
 9506SOL    HW140243   3.601  12.114  11.834 -1.6863 -0.9489  0.5344
 9506SOL    HW240244   3.629  12.001  11.737  1.3724  0.3947 -0.2719
 9507SOL     OW40245   7.340   6.813  10.716  0.4299 -0.2180  0.2483
 9507SOL    HW140246   7.252   6.807  10.753  0.7975 -0.5060  1.0881
 9507SOL    HW240247   7.327   6.854  10.630 -0.2286  2.3418  1.4567
 9508SOL     OW40248   0.704   6.592   5.133 -0.4293  0.0351  0.1969
 9508SOL    HW140249   0.779   6.549   5.091  2.1168  2.0854  2.2506
 9508SOL    HW240250   0.658   6.520   5.177 -0.4031 -1.4431 -2.0470
 9509SOL     OW40251  13.323  11.108   4.028 -0.0070 -0.1524  0.6598
 9509SOL    HW140252  13.345  11.021   4.062 -0.6032 -0.6312 -0.1355
 9509SOL    HW240253  13.230  11.119   4.047  0.4686  1.1522  2.4866
 9510SOL     OW40254  13.626  11.685   1.292  0.2665 -0.2290  0.7279
 9510SOL    HW140255  13.569  11.631   1.238  1.0739  0.5569 -0.9843
 9510SOL    HW240256  13.714  11.652   1.276  0.4760 -0.4529  2.1665
 9511SOL     OW40257   2.772   1.755  12.835  0.2265 -0.6489  0.4122
 9511SOL    HW140258   2.784   1.817  12.763 -1.8086 -0.5085  0.1137
 9511SOL    HW240259   2.688   1.780  12.874  1.5855 -0.2544  3.3514
 9512SOL     OW40260   9.359   7.224   8.330  0.0134 -0.2637  0.0299
 9512SOL    HW140261   9.320   7.148   8.287  0.2597  0.2121 -1.0577
 9512SOL    HW240262   9.329   7.299   8.279 -0.4160  0.4149  1.2203
 9513SOL     OW40263   1.966  11.277   2.096  0.0028  0.3320  0.2375
 9513SOL    HW140264   2.003  11.322   2.173 -0.6263  0.6240  0.3725
 9513SOL    HW240265   1.973  11.184   2.118  2.4275  0.2606 -0.5457
 9514SOL     OW40266   5.109   6.611   8.521 -0.1423 -0.2297  0.4500
 9514SOL    HW140267   5.195   6.650   8.502 -0.5110  0.1257 -0.5467
 9514SOL    HW240268   5.124   6.560   8.600  1.4964 -1.7562 -0.7362
 9515SOL     OW40269   8.586   3.800   3.931 -0.3372  0.5689  0.0356
 9515SOL    HW140270   8.656   3.770   3.989 -0.3409  2.0213  0.8540
 9515SOL    HW240271   8.544   3.871   3.980 -2.2453 -0.1069 -0.5266
 9516SOL     OW40272   8.527   7.428   1.845 -0.0409 -0.5905 -0.2379
 9516SOL    HW140273   8.586   7.360   1.879 -1.1251 -1.6713 -0.4294
 9516SOL    HW240274   8.510   7.485   1.920  0.1770 -1.0663  0.1809
 9517SOL     OW40275   6.301   7.082   9.189 -0.1548 -0.1723  0.9242
 9517SOL    HW140276   6.260   7.084   9.103 -0.1031 -0.4832  0.8899
 9517SOL    HW240277   6.395   7.076   9.170 -0.2136 -1.7488  0.9869
 9518SOL     OW40278   4.683   6.902   6.683  0.5185  0.4402  0.3336
 9518SOL    HW140279   4.614   6.848   6.644  0.7077 -0.3236  1.0322
 9518SOL    HW240280   4.729   6.842   6.742 -0.2987  1.7500  2.3980
 9519SOL     OW40281   5.151   4.854   9.790  0.4366  0.3498 -0.1369
 9519SOL    HW140282   5.151   4.913   9.715  2.0117 -0.6363 -0.9533
 9519SOL    HW240283   5.060   4.854   9.820 -0.0457  1.4083 -1.5044
 9520SOL     OW40284   5.045   3.554  12.185  0.0902  0.0140  0.6877
 9520SOL    HW140285   5.037   3.461  12.204  1.8180 -0.2960  0.1109
 9520SOL    HW240286   5.042   3.597  12.271 -1.7436 -0.4446  0.8868
 9521SOL     OW40287  10.409   9.706   7.165  0.3693  0.1210  0.1600
 9521SOL    HW140288  10.502   9.694   7.146  0.6095  0.7564  0.8763
 9521SOL    HW240289  10.380   9.775   7.105  0.7275  0.9537  0.9161
 9522SOL     OW40290  11.774   1.456  11.052  0.3408  0.4239 -0.5529
 9522SOL    HW140291  11.686   1.491  11.064  0.4453  0.8810 -1.0528
 9522SOL    HW240292  11.800   1.425  11.139  0.2872  1.7109 -0.0555
 9523SOL     OW40293   0.065   1.734   7.134 -0.0733  0.8490 -0.3133
 9523SOL    HW140294   0.094   1.824   7.124 -0.8565  1.2030  0.4541
 9523SOL    HW240295   0.032   1.709   7.048  1.1836  0.9002 -0.8287
 9524SOL     OW40296  10.050  12.850   4.391  0.6605  0.4644  0.1379
 9524SOL    HW140297  10.037  12.857   4.296  0.0753 -1.1149  0.0774
 9524SOL    HW240298  10.092  12.765   4.404 -1.5531 -0.5094  1.4598
 9525SOL     OW40299   1.679  11.180  13.083  0.7209 -0.0147 -0.0238
 9525SOL    HW140300   1.679  11.214  12.994 -0.2897  0.7799  0.2534
 9525SOL    HW240301   1.648  11.253  13.137 -1.3681 -1.2887  0.6308
 9526SOL     OW40302  13.557   5.197  10.364  0.0162 -0.1608 -0.2988
 9526SOL    HW140303  13.623   5.246  10.412 -0.1826 -1.0238  0.8988
 9526SOL    HW240304  13.482   5.192  10.424 -0.3330 -1.0609 -0.7859
 9527SOL     OW40305   9.469   1.603  13.018 -0.2504  0.4075 -0.3679
 9527SOL    HW140306   9.375   1.606  13.032 -0.5727  0.8295 -2.2943
 9527SOL    HW240307   9.501   1.688  13.047 -0.7918  1.0400 -1.5558
 9528SOL     OW40308  12.015   6.503   7.619  0.0995  0.4641  0.1076
 9528SOL    HW140309  12.094   6.538   7.660 -0.0741 -0.4136  1.2595
 9528SOL    HW240310  12.026   6.408   7.623 -0.3955  0.3448 -0.9943
 9529SOL     OW40311   9.852   5.972   7.815 -0.2412 -0.2879  0.5068
 9529SOL    HW140312   9.837   5.954   7.722  0.5997 -3.4859  0.8606
 9529SOL    HW240313   9.769   5.949   7.857 -0.0091 -0.7561  0.7167
 9530SOL     OW40314   6.616   8.447   6.056  0.2101  0.3166  0.4320
 9530SOL    HW140315   6.570   8.474   6.135  2.5311 -0.3529  2.1141
 9530SOL    HW240316   6.595   8.354   6.046  0.1411  0.3353  0.4009
 9531SOL     OW40317   5.115  12.086   3.184 -0.3234  0.2258 -0.0663
 9531SOL    HW140318   5.077  11.997   3.180 -1.5761  0.6910  0.7621
 9531SOL    HW240319   5.083  12.129   3.104 -1.4683  0.5586  0.5391
 9532SOL     OW40320   8.567   0.414   3.776 -0.3605  0.5206 -0.6343
 9532SOL    HW140321   8.473   0.416   3.796 -0.0868 -1.1849  1.0316
 9532SOL    HW240322   8.591   0.321   3.784  1.4129  0.8890 -1.3490
 9533SOL     OW40323   8.569   8.421   5.135  0.1060 -0.0959 -0.1076
 9533SOL    HW140324   8.627   8.352   5.103  0.7093 -0.1511  1.0361
 9533SOL    HW240325   8.545   8.392   5.223  2.2942  2.2451  1.3873
 9534SOL     OW40326   5.711   5.876   3.362  0.2963  0.6526  0.1166
 9534SOL    HW140327   5.695   5.914   3.449  0.2232  0.3470  0.2382
 9534SOL    HW240328   5.624   5.867   3.323  0.0866 -1.3811  0.9361
 9535SOL     OW40329  11.920   0.624  11.113  0.3143  0.6735 -0.1342
 9535SOL    HW140330  11.964   0.592  11.033  0.4507  2.1805 -0.7136
 9535SOL    HW240331  11.895   0.545  11.160  1.8277 -0.2623 -0.8019
 9536SOL     OW40332   0.806   6.720   6.579 -0.8962 -0.8563 -0.5081
 9536SOL    HW140333   0.824   6.698   6.487 -0.1471  1.6338 -1.0434
 9536SOL    HW240334   0.722   6.766   6.576 -0.4915 -0.0648 -0.0946
 9537SOL     OW40335   6.776  11.693   1.946  0.1140 -0.0641 -0.2100
 9537SOL    HW140336   6.841  11.684   2.017 -0.1862  0.1532  0.0967
 9537SOL    HW240337   6.753  11.786   1.947 -1.2983 -0.3995  0.6660
 9538SOL     OW40338   1.351  13.204   6.470 -0.1749 -0.2110 -0.4558
 9538SOL    HW140339   1.275  13.248   6.434 -0.4170 -1.0452 -0.9943
 9538SOL    HW240340   1.352  13.228   6.563  0.0211  1.3510 -0.8372
 9539SOL     OW40341   1.867   5.805  10.154 -0.3266 -0.3804 -0.1937
 9539SOL    HW140342   1.881   5.799  10.060  1.4392 -0.6205  0.0492
 9539SOL    HW240343   1.788   5.857  10.163  0.9684  2.0624 -1.7921
 9540SOL     OW40344  10.787  12.653   2.521  0.2655 -0.1792 -0.4281
 9540SOL    HW140345  10.703  12.643   2.477  0.5857 -2.5592 -0.6126
 9540SOL    HW240346  10.842  12.699   2.457 -0.4673  0.1256 -0.8561
 9541SOL     OW40347   1.843   0.258   8.444  0.2428 -0.1972 -0.1459
 9541SOL    HW140348   1.811   0.211   8.366  0.8398  0.9058 -1.0974
 9541SOL    HW240349   1.938   0.250   8.440  0.3438  0.8601 -0.2008
 9542SOL     OW40350   6.979   8.327  13.446  0.2067 -0.6477  0.5127
 9542SOL    HW140351   6.965   8.247  13.497 -0.1146 -0.5339  0.6065
 9542SOL    HW240352   6.989   8.396  13.512  2.6542 -0.9115  0.5159
 9543SOL     OW40353   1.794  11.138   2.989 -0.4999 -0.1849 -0.3209
 9543SOL    HW140354   1.853  11.078   2.943  0.9649 -0.1693  1.4008
 9543SOL    HW240355   1.710  11.128   2.945  0.9286  0.3735 -3.4089
 9544SOL     OW40356   4.531   9.863   2.292  0.4659  0.1512  0.4284
 9544SOL    HW140357   4.454   9.875   2.347  0.0044 -1.7328  0.2518
 9544SOL    HW240358   4.599   9.916   2.334 -1.2964  3.3127 -0.3998
 9545SOL     OW40359   9.460  11.332   5.559  0.1420  0.3312  0.5693
 9545SOL    HW140360   9.473  11.367   5.648 -0.2317  0.2329  0.6651
 9545SOL    HW240361   9.430  11.242   5.573  0.0850  0.3161  0.3423
 9546SOL     OW40362   8.835   7.993   2.888  0.2316  0.2131  0.2384
 9546SOL    HW140363   8.873   8.038   2.812  0.8888 -0.4506  0.1612
 9546SOL    HW240364   8.768   7.936   2.852 -1.3381  1.8633  0.4377
 9547SOL     OW40365   0.389  11.109   5.791  0.0674  0.4695  0.2720
 9547SOL    HW140366   0.480  11.111   5.820 -0.1392 -0.3437  1.0287
 9547SOL    HW240367   0.362  11.018   5.803 -0.5782  0.4978 -0.8144
 9548SOL     OW40368   6.366   5.002   7.473 -0.1465 -0.2942 -0.7534
 9548SOL    HW140369   6.355   4.979   7.381  1.6996 -0.5971 -0.9224
 9548SOL    HW240370   6.358   5.097   7.475  1.3928 -0.1254 -1.5006
 9549SOL     OW40371   7.903   6.172   1.737 -0.2272  0.2537 -0.4585
 9549SOL    HW140372   7.906   6.105   1.805 -0.7629 -0.9977 -1.6278
 9549SOL    HW240373   7.862   6.248   1.780  0.9163  0.0791  1.0422
 9550SOL     OW40374  12.265  13.331   6.731  0.5670  1.0362  0.3857
 9550SOL    HW140375  12.219  13.274   6.669  0.2501  0.7324  0.8951
 9550SOL    HW240376  12.240  13.420   6.706  0.0907  0.8947  0.3533
 9551SOL     OW40377   3.922   8.002   6.261 -0.2327  0.4143 -0.4171
 9551SOL    HW140378   3.937   7.939   6.331  0.9157 -0.1960 -1.1790
 9551SOL    HW240379   3.898   8.083   6.306  1.8014  0.4288  0.7754
 9552SOL     OW40380   4.360  12.891   8.083  0.3148  0.1902 -0.2636
 9552SOL    HW140381   4.380  12.809   8.038 -0.1092  0.6732 -1.3736
 9552SOL    HW240382   4.413  12.889   8.163  1.9978 -0.1738 -1.3447
 9553SOL     OW40383  12.210   0.695  11.486  0.6675 -0.2544  0.1719
 9553SOL    HW140384  12.225   0.769  11.426 -0.2148  0.5098  0.8701
 9553SOL    HW240385  12.152   0.730  11.553 -0.5448 -1.8637  0.0023
 9554SOL     OW40386   9.327   0.185   3.420  0.0122  0.3487 -0.1431
 9554SOL    HW140387   9.391   0.248   3.452 -1.1679  0.4361  2.2140
 9554SOL    HW240388   9.283   0.231   3.348  0.1208  1.6749  0.6094
 9555SOL     OW40389   4.171   1.685  12.208  0.4035  0.1700 -0.6501
 9555SOL    HW140390   4.254   1.733  12.211 -0.6156  2.0070  0.1229
 9555SOL    HW240391   4.122   1.726  12.137 -1.2061  1.6480  1.1917
 9556SOL     OW40392  10.997   9.172  13.455 -0.0265 -0.2588  1.1034
 9556SOL    HW140393  10.904   9.156  13.438 -0.8433  1.7795  3.1372
 9556SOL    HW240394  11.004   9.267  13.466  2.4682 -0.2711  0.3402
 9557SOL     OW40395   3.079   0.347   0.443 -0.1245  0.5209  0.8456
 9557SOL    HW140396   3.015   0.310   0.383  0.1843  1.4482 -0.0755
 9557SOL    HW240397   3.154   0.287   0.438 -0.0340  0.6827  0.1601
 9558SOL     OW40398   3.908   9.017   4.473  0.5792  0.3848 -0.4173
 9558SOL    HW140399   3.978   9.022   4.408  1.1964 -1.0405  0.0783
 9558SOL    HW240400   3.908   9.104   4.514  1.7203  0.5828 -0.7786
 9559SOL     OW40401   0.194   2.482   5.499 -0.5479 -0.3621 -0.1114
 9559SOL    HW140402   0.176   2.393   5.528 -1.8350  0.7726  3.0469
 9559SOL    HW240403   0.208   2.531   5.580 -1.2308  2.5756 -1.6194
 9560SOL     OW40404   4.256   8.415   8.129  0.2736  0.1304 -0.2676
 9560SOL    HW140405   4.217   8.328   8.138  0.9016 -0.0448  1.1099
 9560SOL    HW240406   4.186   8.469   8.095  0.2181 -1.1524 -2.3610
 9561SOL     OW40407   7.529  13.194   6.877  0.3723  0.7279  0.1899
 9561SOL    HW140408   7.500  13.266   6.821 -1.1427  0.3212  0.4034
 9561SOL    HW240409   7.607  13.160   6.834  0.4718  1.7897 -0.5102
 9562SOL     OW40410  11.116   2.781   2.833  0.3612  0.0451  0.1597
 9562SOL    HW140411  11.045   2.744   2.781 -0.0964  2.8999 -1.4567
 9562SOL    HW240412  11.189   2.720   2.820 -0.4445 -0.5580 -1.9312
 9563SOL     OW40413   6.835   1.121   2.466  0.3024  0.3479  0.6189
 9563SOL    HW140414   6.779   1.064   2.414  2.9016 -1.3448 -0.5097
 9563SOL    HW240415   6.778   1.194   2.490 -2.1804 -0.9155 -0.9642
 9564SOL     OW40416   7.822  13.612   1.427  0.0326 -0.2638  0.4570
 9564SOL    HW140417   7.769  13.637   1.503  1.2517  0.7312  1.0159
 9564SOL    HW240418   7.899  13.668   1.432  0.1741 -0.2175 -1.5032
 9565SOL     OW40419  11.121   4.307  13.626 -0.4561 -0.5566  0.4723
 9565SOL    HW140420  11.044   4.262  13.591 -0.2976  0.6958 -1.6625
 9565SOL    HW240421  11.092   4.396  13.642  0.3090 -0.2988  0.4937
 9566SOL     OW40422   5.823  11.189   0.846  0.1986 -0.0837 -0.2380
 9566SOL    HW140423   5.814  11.248   0.921 -0.0296 -0.7561  0.2732
 9566SOL    HW240424   5.835  11.248   0.771  3.1921  0.6233  0.6235
 9567SOL     OW40425   8.618  13.607   3.261  0.5235 -0.2236  0.1556
 9567SOL    HW140426   8.592  13.698   3.248  0.2776  0.0366  2.1234
 9567SOL    HW240427   8.669  13.585   3.182 -1.4916  0.7867 -1.5175
 9568SOL     OW40428  12.076   2.518   7.471  0.0537 -0.4803  0.0730
 9568SOL    HW140429  12.146   2.511   7.406  0.6396  0.5783  0.5671
 9568SOL    HW240430  11.996   2.517   7.420  0.5503  2.1539 -0.8835
 9569SOL     OW40431  12.466  11.644   8.901  1.0366  0.3080  0.3707
 9569SOL    HW140432  12.445  11.609   8.988  0.8516 -0.4201  0.0409
 9569SOL    HW240433  12.543  11.594   8.873 -0.2190 -1.0612 -0.8028
 9570SOL     OW40434   7.448   3.681   5.922  0.4735 -0.1544  0.2446
 9570SOL    HW140435   7.434   3.736   5.999 -1.9620  0.4003 -0.5089
 9570SOL    HW240436   7.469   3.743   5.852  0.7473 -0.4831  0.0312
 9571SOL     OW40437   7.267  13.238   4.915  0.6062 -0.0327  0.2408
 9571SOL    HW140438   7.174  13.247   4.936 -0.4234 -1.8762 -2.8388
 9571SOL    HW240439   7.297  13.328   4.904 -1.5928  0.6056 -1.3771
 9572SOL     OW40440   4.369  10.320  12.703  0.0922  0.5910  0.1486
 9572SOL    HW140441   4.389  10.331  12.796  0.7756 -0.7889  0.1819
 9572SOL    HW240442   4.452  10.296  12.662 -0.7536 -1.9456 -0.2717
 9573SOL     OW40443   5.826   2.632  13.630  0.1354 -0.0793  0.0992
 9573SOL    HW140444   5.739   2.616  13.593  0.5227 -0.4546 -0.6848
 9573SOL    HW240445   5.830   2.578  13.708 -0.6277  0.5647  0.5943
 9574SOL     OW40446  12.720   6.680  13.297  0.4823  0.5596  0.0899
 9574SOL    HW140447  12.732   6.672  13.202 -2.2337 -2.0698 -0.1910
 9574SOL    HW240448  12.681   6.766  13.309  1.1758  1.0614 -1.1315
 9575SOL     OW40449  11.678  11.366   9.183  0.3927 -0.1823 -0.1467
 9575SOL    HW140450  11.746  11.298   9.172  0.9037  0.0864  1.1712
 9575SOL    HW240451  11.667  11.374   9.278  0.2936  1.5382 -0.2734
 9576SOL     OW40452   5.936   5.222   7.547 -0.1483  0.3411  0.2835
 9576SOL    HW140453   5.892   5.151   7.500  0.8993  0.7866 -1.4702
 9576SOL    HW240454   5.985   5.268   7.479 -0.1429  2.2554  1.5127
 9577SOL     OW40455   4.940   2.673  13.173  0.4380  0.0239  0.5166
 9577SOL    HW140456   4.859   2.722  13.160  1.2968  1.5001  0.5425
 9577SOL    HW240457   4.913   2.593  13.217 -1.5401 -1.4512 -2.9840
 9578SOL     OW40458   7.187  12.834  13.700 -0.3423 -0.1384 -0.7854
 9578SOL    HW140459   7.211  12.823  13.608 -1.1872 -3.6294 -0.7116
 9578SOL    HW240460   7.252  12.783  13.749 -1.4102 -0.4682  0.3333
 9579SOL     OW40461  12.808  12.825   8.661 -0.5572  0.2656 -0.4884
 9579SOL    HW140462  12.843  12.756   8.604 -1.0098 -0.9639  0.6614
 9579SOL    HW240463  12.863  12.821   8.739 -1.1109  0.6397 -0.0702
 9580SOL     OW40464   9.511   5.829   3.877 -0.1371 -0.2757  0.4680
 9580SOL    HW140465   9.541   5.797   3.962  1.3991 -1.3830 -0.4392
 9580SOL    HW240466   9.502   5.924   3.888 -0.7965 -0.5006  2.0803
 9581SOL     OW40467   1.789   4.036  12.176 -0.0288  0.2477  0.7773
 9581SOL    HW140468   1.696   4.042  12.196  0.2899  0.1421  2.4710
 9581SOL    HW240469   1.817   4.127  12.162 -0.0951  0.4584  1.8782
 9582SOL     OW40470   8.132  12.946  11.210 -0.2825  0.0343  0.2349
 9582SOL    HW140471   8.147  12.855  11.238  0.3799  0.4445  1.2458
 9582SOL    HW240472   8.079  12.984  11.280  0.2177  0.6884  0.2613
 9583SOL     OW40473   7.480   9.442  10.934  0.0285 -0.6531  0.3350
 9583SOL    HW140474   7.428   9.391  10.872 -1.6870 -0.5902  1.6444
 9583SOL    HW240475   7.557   9.388  10.950  1.0572 -0.2292 -2.5399
 9584SOL     OW40476   5.912   2.374   8.259  0.2602  0.0917  0.3880
 9584SOL    HW140477   5.874   2.303   8.207 -1.4771  0.9421  0.4165
 9584SOL    HW240478   5.899   2.347   8.350  0.1234  0.1775  0.3938
 9585SOL     OW40479  10.520   0.404   3.604 -0.1424 -0.0228 -0.6339
 9585SOL    HW140480  10.572   0.464   3.550  0.3908  2.0678  1.9819
 9585SOL    HW240481  10.585   0.347   3.646 -0.1300  1.0315  0.8307
 9586SOL     OW40482   2.685   7.338   8.221  0.6055  0.0125 -0.3418
 9586SOL    HW140483   2.767   7.288   8.223  0.5842 -0.0600 -1.1214
 9586SOL    HW240484   2.704   7.411   8.162  0.3078  0.3584 -0.0141
 9587SOL     OW40485   0.373  13.240   5.833  0.3625  0.5610  0.7535
 9587SOL    HW140486   0.294  13.287   5.806  0.4905  0.7399  0.6907
 9587SOL    HW240487   0.380  13.168   5.770  1.3478  1.6905 -0.4887
 9588SOL     OW40488   2.482   9.750   7.967 -0.5022 -0.4053  0.0713
 9588SOL    HW140489   2.517   9.672   7.923 -2.0188 -0.9267 -0.2822
 9588SOL    HW240490   2.509   9.740   8.058  0.1901 -0.8211 -0.1726
 9589SOL     OW40491   7.806   0.453   0.385  0.4451  0.6657 -0.2697
 9589SOL    HW140492   7.842   0.400   0.456  0.4092  1.1016  0.0770
 9589SOL    HW240493   7.769   0.530   0.429 -0.0209  0.6976 -0.7140
 9590SOL     OW40494  10.722   8.119   0.480 -0.1632 -0.0391 -0.6114
 9590SOL    HW140495  10.634   8.082   0.484 -0.5309  0.7968 -0.6032
 9590SOL    HW240496  10.757   8.106   0.568  0.2223 -1.5210 -0.9657
 9591SOL     OW40497   7.379   0.868   1.083 -0.0687 -0.1282  0.7621
 9591SOL    HW140498   7.414   0.857   1.172 -0.8753  2.3316  1.4466
 9591SOL    HW240499   7.407   0.955   1.056  0.0691 -0.7861 -1.4043
 9592SOL     OW40500   7.675   2.874   2.083 -0.4167  0.1532 -0.1355
 9592SOL    HW140501   7.660   2.848   1.992 -1.1129 -0.2681  0.0880
 9592SOL    HW240502   7.660   2.968   2.084 -3.2338 -0.2033  0.0462
 9593SOL     OW40503   6.885   7.305   3.729 -0.3932  0.1108  0.4044
 9593SOL    HW140504   6.974   7.326   3.756  0.4126  0.1118 -1.9781
 9593SOL    HW240505   6.890   7.214   3.700 -1.2974 -0.0341  0.6855
 9594SOL     OW40506   8.230   2.644   6.850 -0.7938 -0.1876  0.0864
 9594SOL    HW140507   8.290   2.601   6.910 -0.2526  0.4336  0.0034
 9594SOL    HW240508   8.241   2.597   6.767 -1.0566 -0.6234  0.2974
 9595SOL     OW40509   0.192   9.885   5.550  0.2423 -0.0491  0.0620
 9595SOL    HW140510   0.260   9.922   5.493 -0.7333 -2.2465 -2.7481
 9595SOL    HW240511   0.126   9.954   5.556  0.9734  0.7067 -0.3297
 9596SOL     OW40512   0.632   6.071  13.677  0.0176 -0.5663  0.3063
 9596SOL    HW140513   0.688   5.996  13.699  2.7811  1.2712  0.0133
 9596SOL    HW240514   0.567   6.035  13.616  1.6502 -2.6212 -0.3620
 9597SOL     OW40515   6.476  11.102   9.030 -0.5402  0.6911  0.5749
 9597SOL    HW140516   6.380  11.097   9.031 -0.4630 -2.3243 -0.2266
 9597SOL    HW240517   6.501  11.091   9.121 -0.9326 -1.3207  0.4822
 9598SOL     OW40518   6.236   5.287   9.469 -0.2143 -0.2698 -0.2598
 9598SOL    HW140519   6.285   5.292   9.387 -0.8088 -1.0585 -0.6789
 9598SOL    HW240520   6.237   5.377   9.503 -2.4061  0.7722 -2.5939
 9599SOL     OW40521   2.539   2.633   5.960 -0.0686 -0.0282  0.4305
 9599SOL    HW140522   2.532   2.679   6.043  0.1767 -0.5871  0.7638
 9599SOL    HW240523   2.633   2.624   5.945 -0.1085  0.2061  0.0126
 9600SOL     OW40524   9.491  10.088  11.053  0.1852  0.0531  0.4390
 9600SOL    HW140525   9.515  10.001  11.084  1.9578  0.4475  0.2882
 9600SOL    HW240526   9.527  10.094  10.965  0.2853  1.0120  0.5276
 9601SOL     OW40527   0.530   5.799   9.435  0.2396  0.3125 -0.1489
 9601SOL    HW140528   0.605   5.782   9.492 -0.7845 -1.4524  0.7667
 9601SOL    HW240529   0.459   5.821   9.494 -0.4327  0.1443 -0.8752
 9602SOL     OW40530   3.138   2.529   6.579  0.4794  0.8072  0.2182
 9602SOL    HW140531   3.179   2.522   6.493  1.2572  1.0843  0.5605
 9602SOL    HW240532   3.076   2.456   6.581 -0.8563  1.8300 -1.2622
 9603SOL     OW40533   4.830   3.071   7.895 -0.2081 -0.3296 -0.5077
 9603SOL    HW140534   4.799   3.162   7.898  2.6656  0.7505 -0.2322
 9603SOL    HW240535   4.849   3.055   7.803  1.4963  0.2446 -0.2951
 9604SOL     OW40536   1.973   9.634   0.662 -0.2874 -0.0257 -0.5966
 9604SOL    HW140537   1.928   9.701   0.611  0.2203 -0.4571 -1.6179
 9604SOL    HW240538   2.024   9.584   0.599 -0.4030 -1.1853  0.1834
 9605SOL     OW40539  10.198   1.178   1.040  0.2595 -0.1115 -0.2649
 9605SOL    HW140540  10.168   1.233   0.968  1.3439 -1.1961 -1.6220
 9605SOL    HW240541  10.267   1.229   1.083  1.1763 -0.3059 -1.4404
 9606SOL     OW40542   2.924   2.751   0.114  0.3771 -0.3487  0.1038
 9606SOL    HW140543   2.867   2.701   0.173  0.2486 -0.6611 -0.2839
 9606SOL    HW240544   2.934   2.695   0.037  0.4140  0.1278 -0.2414
 9607SOL     OW40545   6.607   4.825   2.218  0.1371 -0.3754  0.6303
 9607SOL    HW140546   6.638   4.743   2.180 -0.7195 -0.0805 -0.7648
 9607SOL    HW240547   6.521   4.839   2.178 -0.5897  0.2206  2.3144
 9608SOL     OW40548   1.078  13.732   4.478  0.7727  0.6815 -0.2660
 9608SOL    HW140549   1.098  13.799   4.544  1.1443  1.3127 -1.0027
 9608SOL    HW240550   1.163  13.709   4.440  0.6717 -0.3691  0.1159
 9609SOL     OW40551   3.793   5.876   6.469  0.8459 -0.4896 -0.5355
 9609SOL    HW140552   3.797   5.800   6.528 -0.5999  0.1181  0.3899
 9609SOL    HW240553   3.741   5.941   6.517 -0.4307  0.0164 -2.4957
 9610SOL     OW40554   6.254   8.433   2.286  0.2839  1.0877  0.1276
 9610SOL    HW140555   6.216   8.351   2.320  1.0399 -0.0324 -1.6428
 9610SOL    HW240556   6.317   8.459   2.353  1.4018 -0.8195 -0.1086
 9611SOL     OW40557   2.905   1.367  10.871 -0.1601 -0.0761 -0.1872
 9611SOL    HW140558   2.833   1.316  10.832 -0.2543 -0.2197  0.1651
 9611SOL    HW240559   2.865   1.409  10.947  0.2533 -0.5662  0.3069
 9612SOL     OW40560   9.117   3.917   0.483 -0.1214  0.0802  0.2693
 9612SOL    HW140561   9.188   3.963   0.438  1.0149  0.1520  2.0392
 9612SOL    HW240562   9.083   3.855   0.418  1.2985  0.3282 -0.7499
 9613SOL     OW40563   9.295   6.055   8.031 -0.2461 -0.3070 -0.8033
 9613SOL    HW140564   9.221   6.015   8.076 -1.8233  1.0087 -2.0910
 9613SOL    HW240565   9.286   6.149   8.047  0.4486 -0.0130 -1.9768
 9614SOL     OW40566   9.303   7.440   2.383  0.4766  0.4964 -0.3830
 9614SOL    HW140567   9.216   7.471   2.356  0.7712  1.6967 -0.0182
 9614SOL    HW240568   9.363   7.509   2.354  1.1323  0.4235  0.7397
 9615SOL     OW40569   6.055   8.266   7.011 -0.2937  0.3611 -0.3819
 9615SOL    HW140570   6.045   8.237   7.102 -0.6581  0.4494 -0.3938
 9615SOL    HW240571   6.042   8.360   7.014  0.0646  0.4156 -0.4715
 9616SOL     OW40572   0.108   5.572  12.625  0.6065 -0.0411 -0.2546
 9616SOL    HW140573   0.073   5.633  12.690  0.0148  1.0386 -1.5513
 9616SOL    HW240574   0.169   5.624  12.573 -1.4766  0.1077 -2.7287
 9617SOL     OW40575   2.242   8.281   3.719  0.4189 -1.5292 -0.4192
 9617SOL    HW140576   2.171   8.216   3.710 -0.1049 -1.0071 -0.1339
 9617SOL    HW240577   2.322   8.228   3.721 -0.0454 -2.2296  0.5639
 9618SOL     OW40578   6.887  12.726   3.789  0.2215 -0.2421  0.0841
 9618SOL    HW140579   6.851  12.672   3.718  2.0465 -2.1487  0.4890
 9618SOL    HW240580   6.844  12.692   3.868  0.1004  0.1124  0.1726
 9619SOL     OW40581   7.939   4.330   6.470  0.6479  0.4593  0.3695
 9619SOL    HW140582   7.898   4.380   6.399 -0.2613  0.2883  0.7559
 9619SOL    HW240583   7.981   4.397   6.525  1.8821  0.5430 -0.6405
 9620SOL     OW40584   4.324  10.205   5.815 -0.1925  0.0465 -0.7387
 9620SOL    HW140585   4.261  10.172   5.751 -1.5035 -0.2553  0.6752
 9620SOL    HW240586   4.338  10.131   5.875  1.1418  0.2764 -0.7340
 9621SOL     OW40587  11.469   3.443   1.659  0.3561  0.3573  0.0988
 9621SOL    HW140588  11.419   3.469   1.736 -0.4647 -1.1769  0.1117
 9621SOL    HW240589  11.403   3.432   1.590  0.6464 -1.5139  0.0699
 9622SOL     OW40590  13.269  10.282   4.660 -0.1050  0.3041  0.0379
 9622SOL    HW140591  13.318  10.357   4.694  2.5069 -0.7534 -1.0350
 9622SOL    HW240592  13.224  10.315   4.582 -0.0775  1.0477  0.3331
 9623SOL     OW40593   5.659  13.447   3.873  0.0537 -0.3918  0.1149
 9623SOL    HW140594   5.564  13.461   3.874  0.0185 -0.2877 -1.7305
 9623SOL    HW240595   5.687  13.477   3.786  1.9861  0.7955  1.0715
 9624SOL     OW40596   0.502  10.033   0.824  0.7138  0.6642 -0.0597
 9624SOL    HW140597   0.487   9.940   0.809  0.4048  0.5521  0.8347
 9624SOL    HW240598   0.527  10.068   0.739 -1.3080  0.1790 -0.9010
 9625SOL     OW40599  12.672  13.562   2.893  0.2667 -0.0828  0.1734
 9625SOL    HW140600  12.705  13.475   2.915 -1.8966 -1.1968 -0.6788
 9625SOL    HW240601  12.615  13.585   2.966  1.1526  0.8156  0.5892
 9626SOL     OW40602   9.886  10.242   7.581  0.2971  0.2275  0.3015
 9626SOL    HW140603   9.936  10.207   7.508  1.3925  0.1891  1.0433
 9626SOL    HW240604   9.950  10.251   7.652 -0.2917  2.1609  0.6461
 9627SOL     OW40605   1.229   8.220   9.358  0.1193  0.2504 -0.0223
 9627SOL    HW140606   1.308   8.166   9.355 -0.6939 -0.9908  0.0499
 9627SOL    HW240607   1.244   8.281   9.430  1.3650  0.6317 -0.5731
 9628SOL     OW40608  13.697   6.602  12.667 -0.3580  0.1153 -0.6039
 9628SOL    HW140609  13.777   6.553  12.685 -0.4093 -0.1366 -1.0378
 9628SOL    HW240610  13.724   6.694  12.670  0.7868  0.0424 -4.2342
 9629SOL     OW40611   8.267   4.122   6.388  0.6253  0.5006  0.7498
 9629SOL    HW140612   8.298   4.061   6.322 -3.5606  0.9399 -1.9774
 9629SOL    HW240613   8.221   4.067   6.452  2.5994  0.3217  2.1091
 9630SOL     OW40614   2.690  12.215   1.525  0.3451 -0.2126 -0.0647
 9630SOL    HW140615   2.637  12.218   1.446  1.8529 -0.5524 -1.1153
 9630SOL    HW240616   2.721  12.125   1.530  2.2175  0.3595 -0.4518
 9631SOL     OW40617   8.985  12.515   3.100 -0.8777 -0.2245 -0.3610
 9631SOL    HW140618   8.891  12.532   3.107 -0.9743 -0.5824 -0.7580
 9631SOL    HW240619   9.023  12.599   3.073 -1.2743 -0.4524 -1.7253
 9632SOL     OW40620  11.575   5.270  13.058 -0.8380  0.5306 -0.0246
 9632SOL    HW140621  11.531   5.314  13.131  0.1332  1.5588 -0.0351
 9632SOL    HW240622  11.583   5.337  12.990 -0.9783 -0.1850 -0.7753
 9633SOL     OW40623   9.011  11.177   0.780  0.3360  0.4002 -0.0893
 9633SOL    HW140624   8.962  11.110   0.828 -0.6125  0.0622 -1.4738
 9633SOL    HW240625   9.029  11.138   0.695  2.0592  0.9559 -0.0196
 9634SOL     OW40626   0.865   5.844   7.472 -0.3242  0.0336  0.3599
 9634SOL    HW140627   0.873   5.832   7.567 -0.7792  0.1048  0.4097
 9634SOL    HW240628   0.771   5.832   7.454 -0.2820  0.2897 -0.0409
 9635SOL     OW40629   8.067   9.312   8.928 -0.0287  0.0246  0.0027
 9635SOL    HW140630   8.062   9.407   8.912 -0.4604  0.0054  0.0036
 9635SOL    HW240631   8.074   9.273   8.841  2.7731  0.1794  0.0850
 9636SOL     OW40632  13.306  12.025   8.170  0.5012 -0.3198 -0.7676
 9636SOL    HW140633  13.318  12.066   8.084  1.5332  0.1464 -0.4160
 9636SOL    HW240634  13.250  12.085   8.218  0.7827 -0.0558 -0.7656
 9637SOL     OW40635   1.285  10.643  12.627 -0.5577 -0.3355  0.1107
 9637SOL    HW140636   1.305  10.732  12.656  0.3334 -0.3923 -0.3054
 9637SOL    HW240637   1.245  10.601  12.704  0.0066  0.0920  0.6453
 9638SOL     OW40638   0.212  11.707   2.674  0.1416 -0.4909  0.1579
 9638SOL    HW140639   0.164  11.782   2.708 -0.4951 -1.1399  0.7240
 9638SOL    HW240640   0.305  11.731   2.683 -0.0521  0.3935 -0.0910
 9639SOL     OW40641   2.943   5.931  10.407  0.1958 -0.7682  0.2402
 9639SOL    HW140642   2.868   5.927  10.467  0.8295 -1.0283  1.0299
 9639SOL    HW240643   2.961   5.840  10.385 -1.2875 -0.6150 -1.9919
 9640SOL     OW40644   1.472   5.071   7.028  0.0086 -0.1518 -0.2372
 9640SOL    HW140645   1.541   5.011   7.055 -0.2041  0.1450  0.9882
 9640SOL    HW240646   1.430   5.099   7.109 -0.8914  0.4682 -0.8941
 9641SOL     OW40647   7.908  11.285   2.053 -0.2751  0.0465 -0.1073
 9641SOL    HW140648   7.912  11.338   2.132 -1.4393 -0.1196  0.0912
 9641SOL    HW240649   7.958  11.334   1.988 -0.8003  1.0781  0.2408
 9642SOL     OW40650  10.280  11.526   7.604 -0.1484 -0.1864  0.6660
 9642SOL    HW140651  10.218  11.549   7.535 -0.7249  0.3210  1.3505
 9642SOL    HW240652  10.366  11.548   7.566 -0.1985 -2.2704 -0.8590
 9643SOL     OW40653   2.721   3.590  12.734  0.3549 -0.1539 -0.6270
 9643SOL    HW140654   2.670   3.595  12.653 -2.6758 -0.2126  1.1395
 9643SOL    HW240655   2.714   3.499  12.762 -0.8416  0.3695  0.9410
 9644SOL     OW40656   3.343   1.725  12.943 -0.7474 -0.0639  0.1094
 9644SOL    HW140657   3.296   1.655  12.988  1.1644 -1.5886 -0.1377
 9644SOL    HW240658   3.375   1.686  12.862 -0.3349  1.3335 -0.4361
 9645SOL     OW40659   4.867   1.427  13.687  0.2974 -0.2006 -0.2006
 9645SOL    HW140660   4.792   1.386  13.644 -2.1066  2.3083  1.3009
 9645SOL    HW240661   4.915   1.470  13.616  0.1410 -1.4790 -1.1206
 9646SOL     OW40662   3.256   6.129   7.637  0.0920  0.2105 -1.0370
 9646SOL    HW140663   3.226   6.040   7.616  0.7085 -0.1698 -0.3530
 9646SOL    HW240664   3.176   6.179   7.651 -0.2576 -0.7029  0.4443
 9647SOL     OW40665  11.039   8.654   2.725  0.2584  0.6840  0.0324
 9647SOL    HW140666  11.066   8.700   2.646 -0.0757  2.2046  0.7757
 9647SOL    HW240667  11.081   8.702   2.797 -1.0047  0.5281  0.9096
 9648SOL     OW40668   9.436  12.210   2.723 -0.4785  0.6550 -0.4843
 9648SOL    HW140669   9.360  12.260   2.752  0.3420  1.5332  0.2180
 9648SOL    HW240670   9.402  12.122   2.709 -1.8084  1.2180 -1.0368
 9649SOL     OW40671   7.815   6.663   6.211 -0.4484 -0.2379  0.1228
 9649SOL    HW140672   7.818   6.730   6.280  2.3184 -0.7131  0.5826
 9649SOL    HW240673   7.823   6.713   6.130 -1.6134  0.1719  0.2353
 9650SOL     OW40674   4.144   1.483  13.315  0.2006 -0.1820  0.1095
 9650SOL    HW140675   4.231   1.445  13.314 -0.3467 -1.4741 -0.4055
 9650SOL    HW240676   4.131   1.515  13.226  0.9280  1.9342  0.7088
 9651SOL     OW40677   4.183  10.255  11.142  0.5180  0.1726  0.1160
 9651SOL    HW140678   4.242  10.327  11.165  1.5306 -0.4683 -0.4015
 9651SOL    HW240679   4.202  10.237  11.050  0.4817 -0.9315  0.3145
 9652SOL     OW40680   2.267  13.557   5.668 -0.3536  0.4578 -0.1733
 9652SOL    HW140681   2.275  13.519   5.755 -0.3785 -0.8221 -0.7116
 9652SOL    HW240682   2.193  13.617   5.674  1.6131  2.9278  1.5374
 9653SOL     OW40683  10.921  12.845   6.357  0.2273 -0.0656  0.0635
 9653SOL    HW140684  11.005  12.806   6.333  0.2310  0.0315 -0.0814
 9653SOL    HW240685  10.943  12.912   6.422  0.2243 -0.2829  0.2877
 9654SOL     OW40686   7.244   3.934   4.905 -0.1006 -0.0882  0.6977
 9654SOL    HW140687   7.226   3.966   4.816  0.2914  0.4312  0.7981
 9654SOL    HW240688   7.339   3.942   4.914  0.0685 -1.7071  0.5833
 9655SOL     OW40689  11.175   3.026   7.781  0.3064  0.1522 -0.0004
 9655SOL    HW140690  11.222   2.970   7.844 -0.4337  0.5905  0.9580
 9655SOL    HW240691  11.243   3.052   7.719  1.0696 -0.2783  0.6129
 9656SOL     OW40692  13.029   4.298   2.504 -0.1232 -0.2060 -0.1716
 9656SOL    HW140693  13.017   4.343   2.420 -2.5139 -1.9179 -0.8370
 9656SOL    HW240694  12.941   4.295   2.542  0.7125 -0.5663  1.8352
 9657SOL     OW40695   1.114   8.288   5.228 -0.1238 -0.0186  0.1488
 9657SOL    HW140696   1.029   8.244   5.229 -0.8448  1.3132 -0.4898
 9657SOL    HW240697   1.103   8.364   5.285  0.1755  0.9865 -1.0986
 9658SOL     OW40698   7.204   4.157  12.628 -0.1177  0.0131  0.0773
 9658SOL    HW140699   7.265   4.175  12.556 -0.1589  0.3151  0.1177
 9658SOL    HW240700   7.246   4.085  12.676  0.5168  0.6254  0.4605
 9659SOL     OW40701  12.793  13.091   0.741 -0.0663  0.1347  0.1941
 9659SOL    HW140702  12.846  13.012   0.752 -0.7410 -0.6056 -1.4981
 9659SOL    HW240703  12.850  13.151   0.693 -0.4028 -0.3316 -0.8333
 9660SOL     OW40704   7.416   4.281   0.592  0.0178  0.0489  0.1452
 9660SOL    HW140705   7.435   4.278   0.498  1.6899 -0.0157  0.4516
 9660SOL    HW240706   7.395   4.373   0.609 -1.4517 -0.1401 -0.4613
 9661SOL     OW40707  12.014   2.188  12.604 -0.0987  0.8331  0.1935
 9661SOL    HW140708  12.045   2.278  12.617  1.5496  0.0954  1.9080
 9661SOL    HW240709  12.068   2.155  12.532  0.8060  0.6044  0.9506
 9662SOL     OW40710   7.555   1.535   5.575 -0.3942  0.1430  0.0384
 9662SOL    HW140711   7.570   1.629   5.588 -0.1158  0.0537  0.3678
 9662SOL    HW240712   7.461   1.524   5.587 -0.6613  0.6126 -1.4467
 9663SOL     OW40713  10.516   8.423   4.554  0.4686 -0.2389 -0.3682
 9663SOL    HW140714  10.491   8.477   4.478 -0.5331 -1.1458 -0.7045
 9663SOL    HW240715  10.433   8.400   4.595  0.9323 -0.8998  0.2089
 9664SOL     OW40716  13.298   1.050   6.850  0.4478  0.2121  0.0143
 9664SOL    HW140717  13.277   0.997   6.773  1.3714  0.7106 -0.6049
 9664SOL    HW240718  13.240   1.017   6.918  2.0963 -2.8343  0.1700
 9665SOL     OW40719  12.326   6.343  10.047 -0.5587  0.4607  0.0982
 9665SOL    HW140720  12.344   6.279  10.117 -0.1289  0.9337  0.4268
 9665SOL    HW240721  12.287   6.418  10.093  1.2078  1.4334  0.0782
 9666SOL     OW40722   0.029   4.087   3.359 -0.4090  0.2708 -0.0315
 9666SOL    HW140723   0.124   4.093   3.346 -0.3240 -1.6689 -0.6563
 9666SOL    HW240724   0.002   4.176   3.378  1.6479  0.7732  0.9042
 9667SOL     OW40725   5.493   7.684   9.799 -0.2103 -0.6367 -0.0946
 9667SOL    HW140726   5.572   7.731   9.826  0.3884  0.5023 -3.4517
 9667SOL    HW240727   5.526   7.606   9.754 -1.0434 -0.9772 -0.1290
 9668SOL     OW40728   9.646  13.582   9.871  0.3834 -0.0461  0.0448
 9668SOL    HW140729   9.606  13.523   9.807  0.8854 -1.8505  1.3252
 9668SOL    HW240730   9.713  13.630   9.821 -0.4378 -0.0794 -1.1474
 9669SOL     OW40731   0.453   5.967   9.929  0.1904  0.0764  0.2601
 9669SOL    HW140732   0.544   5.944   9.948  0.2054  1.4078  2.0697
 9669SOL    HW240733   0.445   6.059   9.957 -1.6034  0.1103 -0.2485
 9670SOL     OW40734  11.162   7.647   6.451  0.3682 -0.7613  0.2192
 9670SOL    HW140735  11.252   7.654   6.484  0.7839  0.7119 -1.0803
 9670SOL    HW240736  11.130   7.737   6.450 -0.8495 -1.1789 -0.0941
 9671SOL     OW40737   5.043  11.751  11.691  0.4619  0.2059 -0.2855
 9671SOL    HW140738   5.133  11.742  11.660  1.3134  0.1237  2.0071
 9671SOL    HW240739   5.008  11.827  11.644  2.3786  1.4269  0.1668
 9672SOL     OW40740   9.954   9.313   1.184  0.4163  0.2263 -0.3217
 9672SOL    HW140741   9.969   9.258   1.261  0.7511 -3.1814 -2.5790
 9672SOL    HW240742   9.893   9.381   1.213  0.1943 -1.1706  2.7936
 9673SOL     OW40743   6.229   2.220   8.908  0.0378  0.0268  0.1209
 9673SOL    HW140744   6.177   2.240   8.986 -1.7660 -0.3459 -0.9332
 9673SOL    HW240745   6.253   2.128   8.917 -0.2373 -0.0375  0.1945
 9674SOL     OW40746  13.122   1.792  10.201  0.2272  0.3903  0.2650
 9674SOL    HW140747  13.076   1.847  10.265 -0.2429  0.4878 -0.1566
 9674SOL    HW240748  13.120   1.843  10.120  0.7562  0.2297  0.1466
 9675SOL     OW40749   7.128   1.701  11.702  0.0112 -0.5644  0.4800
 9675SOL    HW140750   7.043   1.742  11.718 -0.8312 -0.8890 -2.5737
 9675SOL    HW240751   7.149   1.657  11.785 -1.5257  1.5909  2.1522
 9676SOL     OW40752   7.837   0.319   1.027  0.3219  0.4109  0.2901
 9676SOL    HW140753   7.750   0.279   1.034  1.2970 -2.3276 -1.4296
 9676SOL    HW240754   7.884   0.287   1.104  0.9637 -1.5729 -0.8564
 9677SOL     OW40755  11.521   2.065   6.063 -0.0956 -0.0853 -0.3034
 9677SOL    HW140756  11.452   1.999   6.068  0.0493 -0.1593  1.1652
 9677SOL    HW240757  11.591   2.024   6.013  0.1187 -1.1949  0.8500
 9678SOL     OW40758   8.095   6.287   8.304 -0.1853  0.2430 -0.8667
 9678SOL    HW140759   8.085   6.281   8.209  1.4404 -2.4097 -0.9553
 9678SOL    HW240760   8.038   6.218   8.339  1.7164 -1.0314 -0.1650
 9679SOL     OW40761   6.670   4.493   0.699 -0.4789 -0.1534  0.1097
 9679SOL    HW140762   6.591   4.443   0.681 -0.6223  0.3567 -0.7445
 9679SOL    HW240763   6.742   4.434   0.677 -0.5962 -0.7889  1.3569
 9680SOL     OW40764   0.259   8.521  13.579 -0.0197 -0.2094 -0.9052
 9680SOL    HW140765   0.315   8.445  13.560  0.8817  0.7339 -2.2079
 9680SOL    HW240766   0.314   8.597  13.559 -0.5354  0.8463  1.3505
 9681SOL     OW40767   8.143  11.816   3.226 -0.4634 -0.6443 -0.0073
 9681SOL    HW140768   8.131  11.762   3.148  0.6381 -1.3343  0.2860
 9681SOL    HW240769   8.173  11.901   3.193 -0.2140 -0.8620 -0.3377
 9682SOL     OW40770   4.966   9.185  10.643  0.2143 -0.3450 -0.5231
 9682SOL    HW140771   5.056   9.218  10.640  1.4135 -3.2885 -0.0187
 9682SOL    HW240772   4.960   9.127  10.567 -1.0488 -0.6652 -0.1979
 9683SOL     OW40773   9.583   1.668   5.526  0.0023 -0.4176 -0.2391
 9683SOL    HW140774   9.510   1.707   5.573  0.1422 -1.0682  0.5199
 9683SOL    HW240775   9.553   1.581   5.502  0.1578 -0.3137 -0.8326
 9684SOL     OW40776   1.089   8.572   9.469  0.0711  0.2777 -0.6191
 9684SOL    HW140777   1.144   8.563   9.546 -0.7584  0.4664  0.0170
 9684SOL    HW240778   1.005   8.603   9.503  0.2480  2.2312 -1.7781
 9685SOL     OW40779  13.707   4.726  10.085  0.1335  0.5710  0.1026
 9685SOL    HW140780  13.648   4.704  10.157 -2.1755  1.3209 -1.4491
 9685SOL    HW240781  13.732   4.642  10.047  1.4691  0.1609  1.7765
 9686SOL     OW40782  10.096   0.707   7.482  0.2646 -0.7829 -0.1505
 9686SOL    HW140783  10.138   0.623   7.500 -0.8385 -0.9239  2.1233
 9686SOL    HW240784  10.107   0.757   7.564 -2.1947 -0.1013 -0.1802
 9687SOL     OW40785   4.839   6.945   7.431 -0.0965 -0.4525  0.3391
 9687SOL    HW140786   4.746   6.942   7.453 -0.0538 -1.1711  0.4581
 9687SOL    HW240787   4.883   6.960   7.514 -0.0925 -0.3764  0.3230
 9688SOL     OW40788   9.925   0.082   8.757 -0.0318  0.2636 -0.5430
 9688SOL    HW140789   9.986   0.048   8.691 -1.7900 -1.3258 -1.4727
 9688SOL    HW240790   9.946   0.034   8.837  1.7314  1.7803 -0.0260
 9689SOL     OW40791   8.875   5.415   2.370  0.9024  0.1597 -0.3797
 9689SOL    HW140792   8.948   5.354   2.363  1.5523  1.0217 -1.7944
 9689SOL    HW240793   8.797   5.360   2.372  1.5095 -0.7446 -0.8236
 9690SOL     OW40794  12.836   1.142  11.006 -0.4403 -0.1791  0.1813
 9690SOL    HW140795  12.751   1.110  11.037  0.1313 -0.7656  1.1809
 9690SOL    HW240796  12.900   1.091  11.054  0.5011 -0.1685 -1.0029
 9691SOL     OW40797   1.502   3.207  13.062  0.1862 -0.0629 -0.1374
 9691SOL    HW140798   1.563   3.161  13.004  0.2864 -0.4704  0.2856
 9691SOL    HW240799   1.551   3.221  13.143  0.2947  1.1635 -0.3976
 9692SOL     OW40800   3.310   8.394   8.976  0.1692 -0.0493  0.0655
 9692SOL    HW140801   3.398   8.421   8.952  0.4404  0.1225  1.2284
 9692SOL    HW240802   3.317   8.361   9.065 -1.6944  4.2581  2.0951
 9693SOL     OW40803   1.021   7.389   0.158  0.3804 -0.6757 -0.0162
 9693SOL    HW140804   0.926   7.376   0.154  0.3756 -0.6850  0.1203
 9693SOL    HW240805   1.040   7.397   0.252  0.3534  0.5252 -0.1027
 9694SOL     OW40806   2.529  11.468   3.812 -0.5312  0.3803  0.1637
 9694SOL    HW140807   2.602  11.489   3.753  0.1780 -0.6271  0.6768
 9694SOL    HW240808   2.469  11.416   3.758 -0.7943  1.0483 -0.2023
 9695SOL     OW40809  13.446   7.247   9.951 -0.1513 -0.0492 -0.1121
 9695SOL    HW140810  13.406   7.285  10.029 -1.6629  1.2131 -1.4436
 9695SOL    HW240811  13.419   7.155   9.952 -0.2715 -0.0117  0.7528
 9696SOL     OW40812  12.689   2.119   3.400  0.2655  0.3558 -0.2045
 9696SOL    HW140813  12.702   2.139   3.307  2.0488 -1.2346 -0.3407
 9696SOL    HW240814  12.725   2.195   3.446  1.7222  0.0478 -0.7894
 9697SOL     OW40815  10.406   8.066   3.284  0.5109 -0.0217  1.0683
 9697SOL    HW140816  10.495   8.033   3.284  0.6746  0.3240 -0.3335
 9697SOL    HW240817  10.412   8.153   3.324  1.0533  0.5056 -0.0845
 9698SOL     OW40818  10.114   4.915   0.630  0.5137 -0.4344  0.2902
 9698SOL    HW140819  10.090   5.006   0.647 -1.3524 -0.9636  0.7206
 9698SOL    HW240820  10.033   4.874   0.601  1.3638 -1.9298 -0.0636
 9699SOL     OW40821   9.581   8.370   6.276 -0.4680 -0.2609  0.6351
 9699SOL    HW140822   9.651   8.357   6.339  0.9656 -0.5397 -0.9240
 9699SOL    HW240823   9.551   8.282   6.254 -1.6451 -0.1282  1.6092
 9700SOL     OW40824   8.075   9.146   2.143 -0.0238  0.4898  0.3912
 9700SOL    HW140825   8.145   9.166   2.080  0.1156 -2.4947 -0.6044
 9700SOL    HW240826   8.022   9.080   2.098 -3.1203  2.1191  1.4251
 9701SOL     OW40827   0.613   4.461   7.590  0.1481 -0.3726  0.0493
 9701SOL    HW140828   0.700   4.424   7.608  0.1397 -1.2293 -1.4567
 9701SOL    HW240829   0.623   4.554   7.606  0.9686 -0.6443  1.2249
 9702SOL     OW40830  10.550   8.797   2.623 -0.3973 -0.6505  0.8653
 9702SOL    HW140831  10.628   8.851   2.640 -0.1422 -1.2412  1.6206
 9702SOL    HW240832  10.481   8.860   2.603 -0.3322  0.0286  2.6329
 9703SOL     OW40833  12.416   5.344  12.036  0.7747 -0.7661  0.0053
 9703SOL    HW140834  12.467   5.276  11.992 -0.4192 -2.0192  0.4646
 9703SOL    HW240835  12.481   5.405  12.070  1.8462 -1.2394 -1.1014
 9704SOL     OW40836   0.927   1.745   0.744  0.9453 -0.2615 -0.0442
 9704SOL    HW140837   0.880   1.820   0.781  0.5349  1.1247 -3.0748
 9704SOL    HW240838   1.018   1.760   0.766  0.5681 -0.4090  1.7671
 9705SOL     OW40839  11.796   0.702   3.911 -0.3563  0.2547 -0.1972
 9705SOL    HW140840  11.718   0.752   3.935 -1.5848 -0.9168 -1.6006
 9705SOL    HW240841  11.866   0.767   3.910 -1.1436  1.2306  1.7030
 9706SOL     OW40842  12.709   3.403   9.926  0.0181 -0.3227 -0.4542
 9706SOL    HW140843  12.650   3.417   9.852 -0.3963  0.3401 -0.0120
 9706SOL    HW240844  12.742   3.491   9.948 -0.5314 -0.3746  0.6789
 9707SOL     OW40845   0.043  10.472   2.160 -0.4949 -0.1589  0.2881
 9707SOL    HW140846   0.081  10.466   2.073 -0.6673  2.3938 -0.0619
 9707SOL    HW240847   0.064  10.389   2.202  0.5787 -0.9997 -1.7812
 9708SOL     OW40848   1.599  12.411   4.678 -0.1594  0.3794 -0.3736
 9708SOL    HW140849   1.624  12.487   4.624  1.9673 -0.9873 -1.4298
 9708SOL    HW240850   1.677  12.390   4.729 -0.9487 -0.6807  0.4575
 9709SOL     OW40851   6.468   1.995  12.637  0.3287  0.5067  0.0010
 9709SOL    HW140852   6.481   1.904  12.663 -0.0432  0.0061 -1.4791
 9709SOL    HW240853   6.488   1.997  12.544 -2.2170  1.3569 -0.6204
 9710SOL     OW40854   9.315   3.041  11.692 -0.0262 -0.2939  0.0844
 9710SOL    HW140855   9.263   3.059  11.770  0.8229 -1.4114  0.9454
 9710SOL    HW240856   9.389   2.990  11.724  1.3583  0.8359 -1.1682
 9711SOL     OW40857  12.514   4.319   9.813 -0.3605 -0.1675 -0.5568
 9711SOL    HW140858  12.530   4.260   9.740 -1.1892  0.3249 -1.1586
 9711SOL    HW240859  12.431   4.289   9.851 -0.3589  0.0863 -0.3465
 9712SOL     OW40860   4.698   9.541   0.494  0.5205  0.3569 -0.0004
 9712SOL    HW140861   4.655   9.510   0.414  0.7598 -0.5778  0.2158
 9712SOL    HW240862   4.745   9.464   0.527 -2.5069 -0.4556  3.0569
 9713SOL     OW40863  13.644   5.276  12.346 -0.2489 -0.2205  0.3362
 9713SOL    HW140864  13.728   5.318  12.362 -0.1511 -0.6725  1.0364
 9713SOL    HW240865  13.606   5.325  12.272  0.4441  0.2354  0.2780
 9714SOL     OW40866   2.558   9.911   0.557 -0.2662  0.0590 -0.4493
 9714SOL    HW140867   2.514   9.923   0.473 -0.3728  0.6862 -0.3098
 9714SOL    HW240868   2.501   9.853   0.606 -1.1147  1.1080 -0.1540
 9715SOL     OW40869   8.161  11.263  12.886 -1.0130  0.0608 -0.6454
 9715SOL    HW140870   8.222  11.240  12.956 -1.0849 -0.6710 -0.8148
 9715SOL    HW240871   8.187  11.352  12.860  0.2616 -0.3927 -1.0089
 9716SOL     OW40872   0.682   0.184   3.348 -0.4654  0.6339  0.2766
 9716SOL    HW140873   0.599   0.139   3.366 -0.5494  0.8073  0.3165
 9716SOL    HW240874   0.746   0.113   3.340 -0.2318  0.5704  2.1786
 9717SOL     OW40875   8.337   3.787  13.056 -0.5241 -0.3472  0.2390
 9717SOL    HW140876   8.273   3.734  13.104 -0.9894 -1.0846 -1.1505
 9717SOL    HW240877   8.351   3.740  12.974  0.9820  0.3848  0.0453
 9718SOL     OW40878   8.878   7.032  12.695  0.3194  0.1244  0.2339
 9718SOL    HW140879   8.919   7.103  12.645 -0.3539  0.0206 -0.5001
 9718SOL    HW240880   8.921   7.034  12.780  0.1177  1.6030  0.3284
 9719SOL     OW40881   4.894   2.103  12.295 -0.2579  0.4627  0.4224
 9719SOL    HW140882   4.824   2.100  12.360 -1.4040 -1.6460 -0.7868
 9719SOL    HW240883   4.863   2.167  12.231 -0.3476  0.6800  0.6819
 9720SOL     OW40884   6.774   2.647  12.924 -0.2330  0.2517 -0.2724
 9720SOL    HW140885   6.818   2.725  12.892 -0.5913 -0.1859 -1.9631
 9720SOL    HW240886   6.839   2.602  12.977  1.1476  0.0140 -2.0726
 9721SOL     OW40887   0.020   0.358  10.663 -0.2741  0.4152  0.2284
 9721SOL    HW140888   0.041   0.426  10.599  2.0977  0.9824  1.4786
 9721SOL    HW240889   0.105   0.324  10.691 -1.1822  0.1504  2.9995
 9722SOL     OW40890   7.066   2.855   7.374 -0.0171  0.0074  0.0820
 9722SOL    HW140891   7.073   2.786   7.309  1.3113  0.5925 -0.4227
 9722SOL    HW240892   7.144   2.845   7.429 -0.6362  0.1110  0.9973
 9723SOL     OW40893   2.509   3.424  11.695 -0.0364 -0.1437 -0.7356
 9723SOL    HW140894   2.427   3.385  11.724 -0.4484 -1.4100 -3.3392
 9723SOL    HW240895   2.491   3.518  11.694 -1.8136 -0.4532 -2.1490
 9724SOL     OW40896   9.158   8.364  12.371 -0.0669  0.7864  0.0088
 9724SOL    HW140897   9.202   8.439  12.331 -1.0510  0.9056 -0.9096
 9724SOL    HW240898   9.068   8.369  12.339 -0.3840 -0.2744  0.6660
 9725SOL     OW40899   9.183   7.869   7.507 -0.1116  0.0392 -0.4241
 9725SOL    HW140900   9.146   7.791   7.547  1.2245  0.2692  1.3672
 9725SOL    HW240901   9.196   7.930   7.580 -0.7819  1.8374 -1.7042
 9726SOL     OW40902  10.666   6.403   5.385 -0.3399 -0.4245 -0.5386
 9726SOL    HW140903  10.642   6.323   5.338  0.1953 -0.0931 -1.4095
 9726SOL    HW240904  10.596   6.415   5.449 -1.2888 -0.7236 -1.4810
 9727SOL     OW40905  12.807  11.005  12.922 -0.2784  0.1044 -0.1693
 9727SOL    HW140906  12.878  11.059  12.955 -0.9983  0.3543  1.0448
 9727SOL    HW240907  12.729  11.061  12.928 -0.6278 -0.2150 -1.3066
 9728SOL     OW40908  10.080   5.204  10.920  0.1158 -0.2236  0.2952
 9728SOL    HW140909  10.030   5.169  10.847 -1.3841 -0.7856  1.5226
 9728SOL    HW240910  10.030   5.281  10.949  0.6308 -0.0565  0.7609
 9729SOL     OW40911   5.050   8.033  11.922  0.1880 -0.1309  0.1939
 9729SOL    HW140912   5.108   7.974  11.874 -1.6865 -0.6375 -1.5838
 9729SOL    HW240913   4.992   7.976  11.972  0.4535  0.3384  1.0754
 9730SOL     OW40914   3.329  13.679   1.422  0.0401  0.4017  0.4229
 9730SOL    HW140915   3.244  13.715   1.448  0.7902  1.8609  1.0113
 9730SOL    HW240916   3.377  13.670   1.504  0.7505  0.4183  0.0161
 9731SOL     OW40917   0.999   1.370   8.185 -0.4666  0.6022  0.5539
 9731SOL    HW140918   0.940   1.312   8.234 -2.9793  1.5199 -1.1476
 9731SOL    HW240919   0.964   1.458   8.200  0.8798  1.2715 -0.0492
 9732SOL     OW40920   4.143  12.868   4.244 -0.3527  0.1333  0.1838
 9732SOL    HW140921   4.131  12.959   4.217 -0.5536  0.3169  0.8793
 9732SOL    HW240922   4.238  12.857   4.250 -0.1634 -0.5210 -2.6065
 9733SOL     OW40923   9.699   4.015   1.682 -0.6591 -0.0108 -0.0194
 9733SOL    HW140924   9.775   4.001   1.625 -0.8601 -0.7518 -0.1175
 9733SOL    HW240925   9.736   4.024   1.770 -0.4540 -0.3532 -0.0690
 9734SOL     OW40926   8.145  13.699   5.562  0.4341 -0.3735 -0.0357
 9734SOL    HW140927   8.158  13.748   5.644  0.5331 -0.4240 -0.0211
 9734SOL    HW240928   8.111  13.763   5.501  0.9905 -0.1776 -0.1486
 9735SOL     OW40929   3.908   9.205  10.170  0.1774 -0.3883  0.0796
 9735SOL    HW140930   3.817   9.233  10.178  0.5836  0.6528  1.4196
 9735SOL    HW240931   3.942   9.254  10.095 -0.1768 -0.2522  0.0073
 9736SOL     OW40932   4.481  10.240  10.651  0.1726 -0.4611 -0.3600
 9736SOL    HW140933   4.499  10.147  10.640  0.0557 -0.5946  0.4898
 9736SOL    HW240934   4.517  10.262  10.737  0.7317  0.4203 -0.8121
 9737SOL     OW40935   9.807   5.636   5.505  0.1485 -0.3625 -0.2839
 9737SOL    HW140936   9.753   5.640   5.426 -0.7910  1.6093  0.4045
 9737SOL    HW240937   9.778   5.710   5.558  2.2042 -0.4004  1.0016
 9738SOL     OW40938   3.413   2.668   3.688  0.5497 -0.0694  0.7194
 9738SOL    HW140939   3.382   2.708   3.607  1.1915 -0.0994  0.4501
 9738SOL    HW240940   3.434   2.741   3.746  0.5085 -0.0399  0.6965
 9739SOL     OW40941   7.344  11.999   3.126  0.4251  0.3843 -1.0314
 9739SOL    HW140942   7.295  12.077   3.100  0.3779  1.1033  0.9970
 9739SOL    HW240943   7.278  11.931   3.138  0.0155  0.9756  0.3564
 9740SOL     OW40944   8.331  13.170   7.620  0.2533  0.5072 -0.2566
 9740SOL    HW140945   8.256  13.196   7.673  0.6265 -0.3525  0.7279
 9740SOL    HW240946   8.293  13.140   7.537 -0.3697  1.4541 -0.3244
 9741SOL     OW40947   4.683  12.986  10.978 -0.8637 -0.4391  0.4372
 9741SOL    HW140948   4.622  13.048  10.938 -0.9212  0.2284  1.5261
 9741SOL    HW240949   4.767  13.004  10.936 -1.0974 -0.3483 -0.0022
 9742SOL     OW40950  11.571   4.168   3.887  0.2765  0.5140  0.2882
 9742SOL    HW140951  11.524   4.189   3.806 -0.2815 -0.3860  0.3731
 9742SOL    HW240952  11.542   4.236   3.949  1.5960  1.9261 -0.5581
 9743SOL     OW40953   0.816  11.642   7.180 -0.1188  0.5203 -0.3838
 9743SOL    HW140954   0.742  11.595   7.218 -0.2504  1.6783  0.8491
 9743SOL    HW240955   0.885  11.576   7.175 -0.8398 -0.2648 -0.4101
 9744SOL     OW40956   8.902  10.406   0.409  0.2063 -0.0337  0.2687
 9744SOL    HW140957   8.950  10.405   0.326 -0.2682 -0.7990 -0.0029
 9744SOL    HW240958   8.927  10.490   0.449  1.3915 -0.1873 -0.0829
 9745SOL     OW40959  10.438   7.203  12.245 -0.6117 -0.1535  0.2167
 9745SOL    HW140960  10.531   7.185  12.259 -0.6999 -0.3593  0.5701
 9745SOL    HW240961  10.410   7.245  12.326 -0.6563  0.6097 -0.1859
 9746SOL     OW40962   5.152   9.531  10.650 -0.1476  0.0891  0.6419
 9746SOL    HW140963   5.068   9.545  10.607 -0.4715  0.3895  1.3716
 9746SOL    HW240964   5.147   9.443  10.687 -0.1871  0.1520  0.7871
 9747SOL     OW40965  10.922  12.587  13.581  0.2760  0.0698  0.0519
 9747SOL    HW140966  10.863  12.654  13.547  0.0735  1.2405  2.4447
 9747SOL    HW240967  11.008  12.629  13.581  0.8355 -0.9721 -1.6831
 9748SOL     OW40968  11.305   2.776  11.459  0.1787 -0.0049  0.0516
 9748SOL    HW140969  11.294   2.858  11.507  0.1303 -1.7905  3.3822
 9748SOL    HW240970  11.324   2.803  11.370  2.7794  3.7228  1.4656
 9749SOL     OW40971  10.397   6.595  10.818 -0.3541  0.4617 -0.0680
 9749SOL    HW140972  10.443   6.661  10.766 -0.0845 -0.4739 -1.0549
 9749SOL    HW240973  10.462   6.527  10.833 -0.3408  0.8260  1.7810
 9750SOL     OW40974   9.667  11.067   9.990  0.3545 -0.3705  0.2175
 9750SOL    HW140975   9.592  11.007   9.992 -0.6751  0.8489 -0.1255
 9750SOL    HW240976   9.640  11.141  10.045 -0.1330  1.6468 -2.4771
 9751SOL     OW40977   5.058   5.550  13.155  0.3663 -0.4863 -0.2907
 9751SOL    HW140978   4.975   5.511  13.184 -0.8402  1.9137 -0.2427
 9751SOL    HW240979   5.113   5.552  13.233 -1.1042  1.6150  0.7696
 9752SOL     OW40980   0.763   2.920   9.232  0.4185  0.2463  0.6904
 9752SOL    HW140981   0.859   2.923   9.239  0.4133  0.0963  0.8239
 9752SOL    HW240982   0.732   2.949   9.317  0.3555 -0.9713  1.1114
 9753SOL     OW40983   3.950   4.091  13.471  0.0830  0.1377  0.1505
 9753SOL    HW140984   4.018   4.146  13.431  1.2654 -0.6342  1.0358
 9753SOL    HW240985   3.899   4.151  13.525  1.1755  0.4380  0.8800
 9754SOL     OW40986   2.757   5.515   7.157 -0.5871  0.2972 -0.2806
 9754SOL    HW140987   2.695   5.584   7.133 -2.5177 -1.0146  0.7005
 9754SOL    HW240988   2.746   5.505   7.251  1.1487  0.0056 -0.0833
 9755SOL     OW40989   2.130  12.138   8.432  0.3107 -0.0078  0.1485
 9755SOL    HW140990   2.162  12.054   8.466 -0.8401 -0.8954 -0.8469
 9755SOL    HW240991   2.209  12.188   8.413  1.0364  0.3327  3.4604
 9756SOL     OW40992   1.004   9.051   8.881  0.1964  0.6065  0.7485
 9756SOL    HW140993   1.006   9.059   8.786 -0.1985 -2.1296  0.4270
 9756SOL    HW240994   1.095   9.064   8.908  0.2148  2.0044  0.1162
 9757SOL     OW40995  10.043   5.798  13.440  0.2941 -0.1978 -0.1157
 9757SOL    HW140996  10.024   5.724  13.383 -0.6815  0.7285 -1.0359
 9757SOL    HW240997  10.130   5.827  13.413  0.5512 -0.8022  0.0382
 9758SOL     OW40998   9.124  12.841   7.377  0.6698 -0.5648  0.1218
 9758SOL    HW140999   9.079  12.800   7.451  3.1767 -1.3027  1.3319
 9758SOL    HW241000   9.195  12.891   7.417  1.0133  0.4948 -1.7046
 9759SOL     OW41001  13.052   7.806   7.400 -0.1482  0.3000  0.4889
 9759SOL    HW141002  12.986   7.810   7.331 -0.7177 -0.9071  0.9338
 9759SOL    HW241003  13.126   7.760   7.359 -0.3322 -0.0582  0.5503
 9760SOL     OW41004   2.371  11.620  11.639 -0.1211 -0.1010  0.1929
 9760SOL    HW141005   2.301  11.564  11.672 -0.6244  1.9362  2.8806
 9760SOL    HW241006   2.338  11.655  11.557 -0.3383 -2.5734 -0.8639
 9761SOL     OW41007  13.379   7.331   2.089 -0.3445  0.7826  0.6374
 9761SOL    HW141008  13.434   7.370   2.156  0.8769 -1.6574  1.1846
 9761SOL    HW241009  13.299   7.305   2.136 -0.4664  1.1469  0.6321
 9762SOL     OW41010  11.721   2.623   8.487  0.1698  0.1208 -0.4337
 9762SOL    HW141011  11.673   2.666   8.417 -1.8281 -1.6636 -0.2544
 9762SOL    HW241012  11.794   2.579   8.443  0.8139  1.6333 -0.9197
 9763SOL     OW41013   9.522   7.770  12.028  0.0406  0.8643 -0.0826
 9763SOL    HW141014   9.535   7.863  12.011 -0.7248  0.7702 -1.3247
 9763SOL    HW241015   9.567   7.726  11.956  1.9991  0.1711  1.4736
 9764SOL     OW41016   1.629   0.040  12.721  0.3379  0.0313  0.2054
 9764SOL    HW141017   1.703  -0.003  12.764 -0.3809 -0.9551  0.4828
 9764SOL    HW241018   1.618  -0.008  12.639 -0.9342 -0.8339  0.8489
 9765SOL     OW41019  13.280  13.056   4.589  0.2721 -0.2125  0.9970
 9765SOL    HW141020  13.284  13.070   4.684 -1.1175 -0.6166  1.1327
 9765SOL    HW241021  13.321  13.135   4.552  1.6137 -0.4328  1.9254
 9766SOL     OW41022   0.884   0.243   9.855 -0.1311  0.2338 -0.0370
 9766SOL    HW141023   0.958   0.239   9.916  0.2592  1.2448 -0.4283
 9766SOL    HW241024   0.819   0.184   9.893  0.6004 -0.1271  0.6883
 9767SOL     OW41025   8.553  10.894   2.703 -0.1203 -0.0315  0.4675
 9767SOL    HW141026   8.637  10.871   2.744 -0.6061 -0.1347  1.4515
 9767SOL    HW241027   8.543  10.987   2.722 -1.8483 -0.6869  3.5580
 9768SOL     OW41028   7.436  11.647   2.320  0.4601  0.1041  0.0247
 9768SOL    HW141029   7.466  11.637   2.410  1.9084  0.6305 -0.3665
 9768SOL    HW241030   7.449  11.740   2.301  1.4619 -0.2372 -1.1249
 9769SOL     OW41031   2.005   3.804   7.753  0.6173  0.2029  0.4066
 9769SOL    HW141032   1.977   3.717   7.726 -0.0110 -0.0952  1.9027
 9769SOL    HW241033   1.958   3.820   7.835  2.7123  0.8566  1.5549
 9770SOL     OW41034   3.980  11.391   3.581  0.3668  0.3805  0.1978
 9770SOL    HW141035   3.913  11.400   3.513 -1.1551 -0.1239  1.5562
 9770SOL    HW241036   4.060  11.425   3.541 -0.5494  0.4392 -1.7001
 9771SOL     OW41037  11.799   1.939  12.507  0.2334  0.2150 -0.1992
 9771SOL    HW141038  11.710   1.955  12.475  0.7172  0.3042 -1.5568
 9771SOL    HW241039  11.838   2.026  12.514  0.4870  0.1220 -0.4388
 9772SOL     OW41040   4.200   8.077  13.308  0.0095 -0.6872  0.3886
 9772SOL    HW141041   4.259   8.019  13.259  0.1470  0.0644 -0.3627
 9772SOL    HW241042   4.163   8.135  13.241 -4.2385 -3.2030  0.1525
 9773SOL     OW41043  13.438   8.711   8.249  0.3935 -0.0620 -0.6522
 9773SOL    HW141044  13.428   8.714   8.344  2.0239  0.4260 -0.4598
 9773SOL    HW241045  13.360   8.666   8.218 -0.1906 -0.1935  0.9121
 9774SOL     OW41046  11.501  12.919   0.706  0.0439  0.4888 -0.2936
 9774SOL    HW141047  11.423  12.870   0.731  0.6224  0.1194  0.8545
 9774SOL    HW241048  11.488  12.940   0.614 -1.0956 -0.1536 -0.2938
 9775SOL     OW41049   4.161   9.442   9.283  0.1085  0.9825 -0.4629
 9775SOL    HW141050   4.226   9.372   9.279  1.0530  1.8505 -0.7252
 9775SOL    HW241051   4.078   9.396   9.295  0.8745 -0.1021  1.0992
 9776SOL     OW41052   7.664   7.953   9.311  0.4953  0.2933 -0.0567
 9776SOL    HW141053   7.724   7.959   9.386  1.0449  1.6997 -0.5610
 9776SOL    HW241054   7.586   8.002   9.339  1.3864  2.3561 -0.9696
 9777SOL     OW41055  13.197   4.081  11.704 -0.3833 -0.4986  0.4317
 9777SOL    HW141056  13.227   4.146  11.767  0.1888  0.3062 -0.6473
 9777SOL    HW241057  13.226   3.997  11.741  3.3944  0.1979 -0.5327
 9778SOL     OW41058   8.253   2.929  12.488 -0.2203  0.5265  0.1679
 9778SOL    HW141059   8.326   2.914  12.427 -0.1411  0.4796  0.2737
 9778SOL    HW241060   8.193   2.985  12.439 -0.4393  0.0043 -0.1712
 9779SOL     OW41061   2.997   4.642  12.951  0.1116  0.0033 -0.1077
 9779SOL    HW141062   3.065   4.710  12.951  0.6884 -0.5717  0.0835
 9779SOL    HW241063   3.044   4.561  12.931 -0.7881 -0.1367 -1.8121
 9780SOL     OW41064   8.567   1.405  12.141 -0.2068  0.0220 -0.1562
 9780SOL    HW141065   8.639   1.359  12.185  0.9264  1.9074  0.0707
 9780SOL    HW241066   8.593   1.407  12.049 -0.4936 -0.2262 -0.2424
 9781SOL     OW41067   1.824  11.972   0.856  0.2093  0.9061 -0.6545
 9781SOL    HW141068   1.746  12.027   0.860  0.1905  0.7912  0.9055
 9781SOL    HW241069   1.877  12.000   0.930  0.5953 -0.5670 -0.3397
 9782SOL     OW41070   2.024   0.490  11.849  0.1502  0.1305  0.1453
 9782SOL    HW141071   1.987   0.574  11.822  1.9028  0.7270 -0.5566
 9782SOL    HW241072   1.955   0.449  11.901 -0.1730  2.7285  2.0002
 9783SOL     OW41073   2.001   9.050   3.232  0.0200 -0.2576 -0.0556
 9783SOL    HW141074   2.096   9.035   3.226 -0.1330 -0.8489 -1.4517
 9783SOL    HW241075   1.970   8.982   3.292  0.5215  0.1273  0.6436
 9784SOL     OW41076   4.690   9.652   8.276 -0.6896  0.2152 -0.3429
 9784SOL    HW141077   4.686   9.726   8.335 -0.9095  0.9468 -1.2462
 9784SOL    HW241078   4.736   9.584   8.325 -0.3542  0.9959  0.4473
 9785SOL     OW41079   5.379   8.474  13.577  0.3512 -0.6567  0.3474
 9785SOL    HW141080   5.387   8.379  13.574 -0.2647 -0.7122 -1.8583
 9785SOL    HW241081   5.284   8.490  13.579  0.4372 -0.1025  0.1947
 9786SOL     OW41082  11.567   5.300   7.039  0.7743  0.7074 -0.3822
 9786SOL    HW141083  11.641   5.253   7.001 -0.2718 -0.1340 -1.4551
 9786SOL    HW241084  11.496   5.235   7.040 -0.7397  2.2551 -1.9252
 9787SOL     OW41085   3.244   4.345   9.315  0.1866 -0.0109  0.1966
 9787SOL    HW141086   3.196   4.262   9.317  0.3263 -0.0873  1.5424
 9787SOL    HW241087   3.327   4.325   9.359 -0.3543  1.1601  1.8295
 9788SOL     OW41088   7.526   9.436   2.424 -0.4162 -0.1456  0.1952
 9788SOL    HW141089   7.483   9.521   2.435  2.5849  1.2734  2.5105
 9788SOL    HW241090   7.599   9.453   2.364 -0.1381 -1.2368  0.1905
 9789SOL     OW41091   0.022   7.804   2.412 -0.0849  0.2083 -0.3431
 9789SOL    HW141092   0.095   7.834   2.358 -0.9364  2.2657 -0.4667
 9789SOL    HW241093  -0.047   7.869   2.396 -1.5661 -1.0742  0.5817
 9790SOL     OW41094  11.956  10.102   9.069  0.0368  0.0533  0.1022
 9790SOL    HW141095  12.029  10.046   9.091 -1.4817 -1.4387  1.6376
 9790SOL    HW241096  11.916  10.060   8.992 -0.7063 -0.6272  0.8455
 9791SOL     OW41097   1.500   3.812  10.533  0.3900  0.2014  0.3573
 9791SOL    HW141098   1.495   3.888  10.591 -0.4956  0.5331 -0.1328
 9791SOL    HW241099   1.558   3.751  10.579  0.0731  0.6396  1.3863
 9792SOL     OW41100   5.247   8.468  12.552  0.1621  0.1912 -0.3075
 9792SOL    HW141101   5.180   8.449  12.617  1.3513 -0.5407  0.7473
 9792SOL    HW241102   5.206   8.446  12.468 -0.3261 -2.0800  0.4440
 9793SOL     OW41103   4.473  11.708   1.729  0.4215 -0.2528 -0.2280
 9793SOL    HW141104   4.439  11.789   1.765  0.0805 -0.3448 -0.3443
 9793SOL    HW241105   4.398  11.667   1.686  0.5542 -0.7098 -0.0260
 9794SOL     OW41106   0.478   6.164   8.937 -0.3785  0.4719 -0.3375
 9794SOL    HW141107   0.491   6.196   8.847  1.4967 -0.2797 -0.3674
 9794SOL    HW241108   0.472   6.069   8.928  1.5974  0.2435  0.4874
 9795SOL     OW41109   1.418  10.734   6.733 -0.1797 -0.2239 -0.1935
 9795SOL    HW141110   1.412  10.761   6.641  3.6319  1.2900 -0.1686
 9795SOL    HW241111   1.446  10.643   6.729 -1.4396 -0.6279 -0.4403
 9796SOL     OW41112  10.436   4.001   8.211  0.3773  0.4715  0.5133
 9796SOL    HW141113  10.487   3.931   8.251  0.0245 -1.2413 -1.8195
 9796SOL    HW241114  10.345   3.978   8.229  0.1712 -0.7696 -1.7811
 9797SOL     OW41115   3.906  13.281   7.194  0.0620 -0.2747 -0.0502
 9797SOL    HW141116   3.924  13.221   7.267  0.6870 -2.2507 -1.7495
 9797SOL    HW241117   3.981  13.340   7.192 -0.4800  0.5345  1.5382
 9798SOL     OW41118  11.067   8.373   1.428 -0.0687  0.1694 -0.2120
 9798SOL    HW141119  11.105   8.286   1.428  2.3191  1.1162  0.7497
 9798SOL    HW241120  11.125   8.425   1.484 -2.0421  2.1278  0.2007
 9799SOL     OW41121   1.158   1.100   4.897 -0.3854 -0.2528  0.5369
 9799SOL    HW141122   1.231   1.137   4.946 -1.1426 -0.8348  2.1857
 9799SOL    HW241123   1.083   1.155   4.922 -0.3430  1.2063 -2.1836
 9800SOL     OW41124   4.744   5.310  11.954  0.0919 -0.2859 -0.0412
 9800SOL    HW141125   4.754   5.267  11.869  0.7787 -0.7738  0.2777
 9800SOL    HW241126   4.808   5.267  12.011  2.0384  2.2594 -0.1225
 9801SOL     OW41127   7.923   7.214   0.559 -0.1165 -0.1161 -0.3457
 9801SOL    HW141128   7.875   7.206   0.476 -0.0862 -1.6229 -0.2547
 9801SOL    HW241129   8.004   7.260   0.536 -0.5148  0.2860 -0.9718
 9802SOL     OW41130   3.921   0.133   0.245 -0.1170 -0.2869 -0.1705
 9802SOL    HW141131   3.987   0.174   0.188  1.9761  0.5774  2.6343
 9802SOL    HW241132   3.939   0.040   0.240 -0.6689 -0.3363 -1.6778
 9803SOL     OW41133  10.416   3.846   6.251 -0.6411 -0.2013  0.8134
 9803SOL    HW141134  10.499   3.801   6.269  0.0914  0.5261 -0.5678
 9803SOL    HW241135  10.420   3.867   6.157 -1.9143  0.7966  0.9550
 9804SOL     OW41136   8.084   7.187   7.991 -0.1662  0.2439  0.5404
 9804SOL    HW141137   8.086   7.133   7.912  1.0460  0.2252  0.5668
 9804SOL    HW241138   8.173   7.181   8.027 -0.4457  0.9936  1.4067
 9805SOL     OW41139  11.774  10.542   2.139 -0.3091  0.3632  0.4067
 9805SOL    HW141140  11.846  10.600   2.116  1.6741 -2.8088 -2.3809
 9805SOL    HW241141  11.809  10.489   2.212  0.6949 -1.6964 -1.4433
 9806SOL     OW41142   5.537   0.433   6.485 -0.2909 -0.4530 -0.2737
 9806SOL    HW141143   5.489   0.439   6.567  2.6288 -1.8371  1.6776
 9806SOL    HW241144   5.491   0.365   6.435 -0.7731 -1.2443  1.2058
 9807SOL     OW41145   7.339   2.714   5.965  0.2957  0.1555  0.5293
 9807SOL    HW141146   7.275   2.778   5.996  0.7799  0.5872  0.6781
 9807SOL    HW241147   7.366   2.667   6.044  0.0869 -0.0920  0.4513
 9808SOL     OW41148   7.330  11.238   0.219 -0.5356 -1.0051 -0.8656
 9808SOL    HW141149   7.236  11.253   0.225 -0.3404  1.3708 -2.5722
 9808SOL    HW241150   7.369  11.319   0.251  0.8959 -1.4104 -1.5185
 9809SOL     OW41151   4.899  11.765   7.666  0.0821  0.1020  0.3550
 9809SOL    HW141152   4.924  11.804   7.750  0.1807  0.7607  0.0238
 9809SOL    HW241153   4.966  11.698   7.650  0.4520  0.4413  0.4707
 9810SOL     OW41154   2.457   6.284  13.659 -0.0229  0.3361 -0.0237
 9810SOL    HW141155   2.387   6.316  13.717 -0.4883  1.5120 -1.1912
 9810SOL    HW241156   2.413   6.222  13.601 -0.2260  1.3861 -1.0320
 9811SOL     OW41157  13.343   0.373  10.821  0.4420  0.1534  0.5973
 9811SOL    HW141158  13.342   0.304  10.755 -0.9952  1.3429 -0.6970
 9811SOL    HW241159  13.264   0.357  10.874  0.5083  0.3686  0.7668
 9812SOL     OW41160  13.357  11.888   4.898  0.3181 -0.0073  0.3988
 9812SOL    HW141161  13.276  11.854   4.935  0.2416 -2.0269 -1.4244
 9812SOL    HW241162  13.368  11.840   4.816  2.3563  1.6165 -0.3758
 9813SOL     OW41163   7.043  11.885   2.917  0.2268 -0.1756 -0.4818
 9813SOL    HW141164   7.096  11.819   2.871  1.7023  0.9617 -0.5080
 9813SOL    HW241165   7.026  11.952   2.851 -0.7354 -0.2340 -0.2977
 9814SOL     OW41166  11.189  12.821  13.189  0.2387 -0.1953 -0.1192
 9814SOL    HW141167  11.244  12.896  13.163 -0.4864  0.6366  0.7006
 9814SOL    HW241168  11.239  12.778  13.258 -0.7102  1.3621  1.6007
 9815SOL     OW41169  11.949   0.530   4.927 -0.4248  0.4818  0.2355
 9815SOL    HW141170  12.004   0.495   4.856  2.3721  0.9259  2.0074
 9815SOL    HW241171  11.952   0.625   4.913 -0.0933  0.5521  0.7717
 9816SOL     OW41172   3.628   6.756   6.469 -0.2186  0.0662  0.0408
 9816SOL    HW141173   3.724   6.760   6.467 -0.2556  1.1683 -0.4747
 9816SOL    HW241174   3.605   6.795   6.554 -0.2191  0.0687  0.0394
 9817SOL     OW41175  12.170  10.559   2.049 -0.4139 -0.0746 -0.2210
 9817SOL    HW141176  12.240  10.615   2.016 -1.3378  0.8331 -0.6698
 9817SOL    HW241177  12.208  10.516   2.126  0.5195  0.6600 -0.2573
 9818SOL     OW41178  10.615  12.539   8.637  0.3069 -0.1051  1.1863
 9818SOL    HW141179  10.695  12.512   8.682  1.5412  1.0115 -0.2662
 9818SOL    HW241180  10.598  12.468   8.575 -0.0611 -0.5146  1.7419
 9819SOL     OW41181  12.332  11.923   0.935 -0.0710  0.6140  0.1377
 9819SOL    HW141182  12.354  11.884   1.020 -0.7383 -0.6183 -0.2382
 9819SOL    HW241183  12.252  11.879   0.908 -0.6692  2.0041 -0.4919
 9820SOL     OW41184  13.076   7.759  10.883  0.2503 -0.8281  0.7227
 9820SOL    HW141185  13.022   7.685  10.855  0.8339 -1.5607  1.4881
 9820SOL    HW241186  13.165   7.724  10.885  0.9108  0.5528 -1.2380
 9821SOL     OW41187  11.140  10.059   1.410  0.2304 -0.1367 -0.2429
 9821SOL    HW141188  11.215  10.112   1.383  0.0526 -0.6194 -1.7724
 9821SOL    HW241189  11.065  10.101   1.370 -0.0768 -0.7639 -0.3360
 9822SOL     OW41190   7.176  12.031  13.058  0.2372  0.1119 -0.4209
 9822SOL    HW141191   7.111  12.100  13.062  1.6496  1.4471  0.6990
 9822SOL    HW241192   7.187  12.014  12.964  0.2927  1.8732 -0.7749
 9823SOL     OW41193   1.893   0.671   0.076 -0.1935  0.2015  0.3966
 9823SOL    HW141194   1.950   0.659   0.000 -0.0847  0.9232  0.3575
 9823SOL    HW241195   1.837   0.745   0.053 -0.6739 -0.0566  0.7184
 9824SOL     OW41196   5.432   5.582   6.989 -0.4972 -0.1236 -0.4186
 9824SOL    HW141197   5.480   5.610   7.066  0.6202  0.6822 -1.3675
 9824SOL    HW241198   5.373   5.514   7.020  1.9527 -1.8712  0.6358
 9825SOL     OW41199   9.477  13.648   2.082 -0.2445 -0.6826  0.3065
 9825SOL    HW141200   9.435  13.724   2.122 -1.3821 -0.9699 -0.3171
 9825SOL    HW241201   9.470  13.663   1.988  0.7243 -0.9243  0.1835
 9826SOL     OW41202   8.241   3.641  10.561 -0.2149 -0.2736  0.3654
 9826SOL    HW141203   8.261   3.697  10.636 -0.2338 -0.6339  0.6458
 9826SOL    HW241204   8.291   3.678  10.488 -0.2301  0.1051  0.5458
 9827SOL     OW41205   9.780   2.185   6.438 -0.4833 -0.5536  0.2984
 9827SOL    HW141206   9.857   2.131   6.422 -0.0928  0.1673 -0.3316
 9827SOL    HW241207   9.785   2.254   6.372 -0.6203  0.6339  1.4906
 9828SOL     OW41208   4.987  11.450  11.898 -0.5105  0.5712  0.0440
 9828SOL    HW141209   5.038  11.501  11.961  0.8511  0.1890 -0.7079
 9828SOL    HW241210   4.904  11.498  11.889 -0.1534  1.3954  1.0375
 9829SOL     OW41211   8.259   5.324   8.573  0.0703 -0.0875 -0.2292
 9829SOL    HW141212   8.284   5.279   8.653  0.4286  1.6925  0.7106
 9829SOL    HW241213   8.304   5.276   8.503  1.7215 -0.2436  0.8935
 9830SOL     OW41214   4.030   2.854  10.272 -0.1138 -0.3232  0.0361
 9830SOL    HW141215   4.010   2.782  10.332 -0.4688  0.1589  0.4995
 9830SOL    HW241216   4.086   2.814  10.205 -1.6961 -1.4388 -0.6810
 9831SOL     OW41217   7.216   1.536  10.216  0.0894 -0.3522 -0.0434
 9831SOL    HW141218   7.256   1.528  10.129  0.1374 -0.5797 -0.0000
 9831SOL    HW241219   7.199   1.446  10.243  0.4061 -0.3003  0.3400
 9832SOL     OW41220  13.278   6.227   3.903  0.2264 -1.0255 -0.4402
 9832SOL    HW141221  13.304   6.161   3.840  0.9584  0.0740 -1.3286
 9832SOL    HW241222  13.183   6.237   3.890 -0.0133 -2.3553  0.1817
 9833SOL     OW41223   4.268   0.430   1.904  0.9189  0.2478 -0.0763
 9833SOL    HW141224   4.212   0.364   1.863  0.4055 -0.2224  1.3343
 9833SOL    HW241225   4.339   0.380   1.943  2.7676  0.8842 -2.3873
 9834SOL     OW41226   4.097   1.274   5.291 -0.1198 -0.0697  0.0822
 9834SOL    HW141227   4.097   1.368   5.274 -0.6130 -0.4258 -2.3184
 9834SOL    HW241228   4.190   1.253   5.305  0.2117  0.5835 -0.9412
 9835SOL     OW41229   5.308   1.940  13.222 -0.2351  0.4670 -0.2468
 9835SOL    HW141230   5.327   1.846  13.217 -3.1122 -0.4789  2.7255
 9835SOL    HW241231   5.251   1.957  13.147  1.1820  0.1865 -1.4374
 9836SOL     OW41232  12.595   6.402   5.059  0.8970 -0.3053 -0.5811
 9836SOL    HW141233  12.540   6.478   5.040  1.7264  0.9612  1.6693
 9836SOL    HW241234  12.679   6.440   5.086  1.6914 -2.0627 -0.4679
 9837SOL     OW41235  11.371   5.677   9.861  0.2377 -0.1978  0.4559
 9837SOL    HW141236  11.402   5.671   9.951 -0.2044  0.4738  0.6652
 9837SOL    HW241237  11.286   5.722   9.869 -0.9273 -2.2096 -0.0536
 9838SOL     OW41238   6.721  10.717   7.941 -0.0566 -0.1144 -0.4386
 9838SOL    HW141239   6.743  10.638   7.891 -0.3296 -0.8265  0.5401
 9838SOL    HW241240   6.756  10.700   8.029 -0.2245  0.8039 -0.1851
 9839SOL     OW41241   7.296  11.880   6.321 -0.1249  0.0447  0.2760
 9839SOL    HW141242   7.379  11.872   6.368 -0.3020 -0.4184  0.5109
 9839SOL    HW241243   7.309  11.830   6.241  0.3794  1.3129 -0.4627
 9840SOL     OW41244   5.039  10.383   5.786  0.4548 -0.1800  0.6889
 9840SOL    HW141245   5.023  10.341   5.871  1.3732  1.0176  1.4869
 9840SOL    HW241246   5.111  10.334   5.748  0.3159 -0.4613  0.7824
 9841SOL     OW41247  11.551   3.988   8.631 -1.2068 -0.1098  0.3260
 9841SOL    HW141248  11.485   4.017   8.567  0.0296  2.2190 -0.0219
 9841SOL    HW241249  11.543   4.052   8.703  0.8864  0.4868  0.0857
 9842SOL     OW41250   5.254   9.103   1.878 -0.0324 -0.4947  0.5564
 9842SOL    HW141251   5.167   9.125   1.843  0.6994  0.3351 -0.8502
 9842SOL    HW241252   5.270   9.168   1.945  0.6994  1.2973 -1.2499
 9843SOL     OW41253   0.981   1.057   0.207 -0.1520  0.4503 -0.0211
 9843SOL    HW141254   1.010   1.128   0.264 -0.6025 -0.2434  1.1049
 9843SOL    HW241255   0.984   1.094   0.119  1.1328  1.3665  0.3786
 9844SOL     OW41256  13.674   6.372   4.586 -0.2467  0.1977  0.0024
 9844SOL    HW141257  13.660   6.407   4.498 -1.0798 -2.2939 -0.9300
 9844SOL    HW241258  13.652   6.445   4.644 -0.2067  1.7425 -1.8139
 9845SOL     OW41259  13.417   2.783  10.275 -0.4810 -0.2020 -0.2732
 9845SOL    HW141260  13.333   2.754  10.240  0.1650 -0.5024 -1.6502
 9845SOL    HW241261  13.474   2.788  10.199  0.3267  1.5799  0.3947
 9846SOL     OW41262  13.447   4.687   2.512  0.3243  0.2964  0.0762
 9846SOL    HW141263  13.449   4.600   2.552  1.8910  0.3620  0.1860
 9846SOL    HW241264  13.503   4.741   2.567 -0.4367  1.3330 -0.1300
 9847SOL     OW41265   7.475   5.697  11.783 -0.1750 -0.1731 -0.4204
 9847SOL    HW141266   7.538   5.651  11.728 -2.1935 -2.7809 -0.7561
 9847SOL    HW241267   7.399   5.712  11.726 -0.7058  0.9662  0.5281
 9848SOL     OW41268  11.123   2.558   4.521  0.0287  0.1395  0.1362
 9848SOL    HW141269  11.215   2.559   4.549  0.3444 -0.5723 -0.7693
 9848SOL    HW241270  11.127   2.519   4.433 -1.2456 -0.8410  0.4848
 9849SOL     OW41271  12.753   0.838  12.705  0.4364  0.3428 -0.0155
 9849SOL    HW141272  12.727   0.929  12.720  0.0349 -0.1065  2.4659
 9849SOL    HW241273  12.677   0.787  12.729  0.6617 -0.6792 -1.3928
 9850SOL     OW41274   2.402   1.487   7.772  0.2690 -0.0548  0.4243
 9850SOL    HW141275   2.363   1.472   7.858  1.7761  0.9680  1.3261
 9850SOL    HW241276   2.490   1.449   7.778  0.4388  0.1185 -0.6337
 9851SOL     OW41277   0.009   1.736   6.250  0.1479  0.1278  0.3789
 9851SOL    HW141278   0.024   1.819   6.205 -1.5406 -0.8443 -2.2237
 9851SOL    HW241279   0.096   1.697   6.257  0.6126  0.7734 -1.2809
 9852SOL     OW41280   1.039   2.585   8.071 -0.8195  0.1537  0.5602
 9852SOL    HW141281   1.134   2.596   8.069 -0.9382  1.4864 -2.3733
 9852SOL    HW241282   1.005   2.674   8.078 -1.7871  0.0356 -1.8126
 9853SOL     OW41283   3.708  10.557   1.219 -0.1481  0.0480  0.8629
 9853SOL    HW141284   3.712  10.465   1.245  1.9638 -0.0323  0.4783
 9853SOL    HW241285   3.800  10.586   1.221 -0.3801  1.2801 -1.9712
 9854SOL     OW41286   4.041   6.188   7.790  0.5365 -0.0757  0.1871
 9854SOL    HW141287   4.126   6.199   7.833  1.4703  2.1280 -2.0137
 9854SOL    HW241288   4.060   6.131   7.715 -0.0043  0.1346 -0.1114
 9855SOL     OW41289   0.751   9.303   4.626 -0.1109  0.9660 -0.3676
 9855SOL    HW141290   0.846   9.303   4.619 -0.0615  1.2345  0.2223
 9855SOL    HW241291   0.732   9.235   4.691 -0.2388  1.6917  0.3749
 9856SOL     OW41292   2.494  10.748  11.575 -0.2254  0.3753  0.2799
 9856SOL    HW141293   2.419  10.700  11.610 -1.0763  1.8558  0.5439
 9856SOL    HW241294   2.521  10.697  11.498  0.2485 -1.6854  1.7130
 9857SOL     OW41295   3.196   7.977   8.752  0.1174  0.2076 -0.1359
 9857SOL    HW141296   3.102   7.973   8.732 -0.4248 -0.0124  2.2126
 9857SOL    HW241297   3.214   8.071   8.760 -0.0342  0.2303 -0.0529
 9858SOL     OW41298  10.652   5.356   4.439  0.3134 -0.1041 -0.1537
 9858SOL    HW141299  10.682   5.332   4.527  2.0296 -0.1141 -0.7113
 9858SOL    HW241300  10.646   5.452   4.442 -0.7340 -0.1685  0.2884
 9859SOL     OW41301  13.375   0.443   0.726  0.7104 -0.1422 -0.0034
 9859SOL    HW141302  13.370   0.351   0.700 -2.3374 -0.7599  2.2307
 9859SOL    HW241303  13.287   0.477   0.711  1.1178  1.7404  1.4779
 9860SOL     OW41304   5.981  13.523   6.016 -0.5594 -0.0563  0.8480
 9860SOL    HW141305   5.960  13.430   6.003  1.7688 -0.3456 -1.8083
 9860SOL    HW241306   5.980  13.560   5.928  0.3966  2.0310  1.6591
 9861SOL     OW41307   8.150   8.548   7.367 -0.2068  0.4048  0.1339
 9861SOL    HW141308   8.226   8.545   7.425 -0.5057  1.5240  0.6057
 9861SOL    HW241309   8.184   8.518   7.282 -0.0431 -2.5230  1.1159
 9862SOL     OW41310   0.549   2.199   8.334 -1.2761 -0.2574 -0.0897
 9862SOL    HW141311   0.522   2.219   8.424  0.6287  0.6419  0.3434
 9862SOL    HW241312   0.477   2.148   8.298 -1.4692 -1.9186  2.4150
 9863SOL     OW41313   7.061   9.472   9.021 -0.0419  0.1022  0.0063
 9863SOL    HW141314   7.141   9.464   9.074  0.2044  3.0632  0.2481
 9863SOL    HW241315   7.086   9.529   8.949 -1.5085 -0.4414 -0.9743
 9864SOL     OW41316   3.498   8.075  12.590 -0.0927 -0.6403  0.5697
 9864SOL    HW141317   3.504   7.981  12.602 -2.1335 -1.0086 -0.8778
 9864SOL    HW241318   3.448   8.087  12.509 -1.0143  1.6830  1.3780
 9865SOL     OW41319   3.244  12.591   0.681 -0.6487  0.3653 -0.1958
 9865SOL    HW141320   3.183  12.598   0.608  0.0475 -0.0473 -0.8303
 9865SOL    HW241321   3.259  12.681   0.709 -2.7439  0.3893  0.9908
 9866SOL     OW41322   4.656   9.049   5.098 -0.6763  0.1094 -0.3056
 9866SOL    HW141323   4.598   9.110   5.145  0.1336  0.2497  0.5285
 9866SOL    HW241324   4.628   8.962   5.126  0.4289  0.2084  1.2562
 9867SOL     OW41325  11.067  12.135   9.171 -0.0974  0.1249  0.8678
 9867SOL    HW141326  11.018  12.143   9.253  0.0496 -0.8080  1.0584
 9867SOL    HW241327  11.137  12.200   9.179 -0.5341  0.5739  1.1422
 9868SOL     OW41328   1.207  11.406  12.085  0.3402 -0.0144 -0.1166
 9868SOL    HW141329   1.156  11.460  12.025 -0.6466  1.0667  1.6295
 9868SOL    HW241330   1.254  11.346  12.028  0.4658  1.8099 -2.0578
 9869SOL     OW41331  10.205  12.566   7.560  0.2553 -0.4809  0.6036
 9869SOL    HW141332  10.162  12.622   7.624  0.4902  1.3200 -0.7585
 9869SOL    HW241333  10.217  12.483   7.606 -1.9981 -0.1257  1.9804
 9870SOL     OW41334   0.396   6.068   0.573 -0.5039 -0.1702 -0.2488
 9870SOL    HW141335   0.354   6.127   0.511 -0.6701 -0.4843 -0.4363
 9870SOL    HW241336   0.437   6.126   0.637 -0.8525  0.1456 -0.3076
 9871SOL     OW41337   9.380   9.391  13.128  0.0328 -0.0255 -0.2269
 9871SOL    HW141338   9.461   9.420  13.087 -0.3880 -0.9362 -1.8074
 9871SOL    HW241339   9.407   9.329  13.195  0.7660  1.8103  1.2664
 9872SOL     OW41340   8.715   6.781   0.281  0.0132  0.0047 -0.4061
 9872SOL    HW141341   8.736   6.773   0.374  1.0130 -1.5580 -0.7202
 9872SOL    HW241342   8.792   6.823   0.243  0.2578 -0.7046 -0.7265
 9873SOL     OW41343   0.901   4.726   7.304  0.4888 -0.4519  0.9254
 9873SOL    HW141344   0.937   4.774   7.230 -1.0290  0.9168  0.9980
 9873SOL    HW241345   0.836   4.786   7.341 -0.5274 -2.0706  1.8686
 9874SOL     OW41346  12.053  13.728   5.955 -0.6423  0.2123 -0.3012
 9874SOL    HW141347  12.069  13.790   5.884 -0.2421  0.6232  0.1379
 9874SOL    HW241348  12.105  13.762   6.028  0.9108 -1.5220 -0.5235
 9875SOL     OW41349   5.985   2.107  11.210 -0.0831 -0.0070  0.4115
 9875SOL    HW141350   6.037   2.186  11.225  1.6531 -0.7692 -1.1061
 9875SOL    HW241351   6.029   2.040  11.262 -0.7447 -0.2719  0.6387
 9876SOL     OW41352  10.246   2.327  10.539  0.2567  0.1896 -0.2771
 9876SOL    HW141353  10.288   2.259  10.591 -0.2365  1.0985  1.3563
 9876SOL    HW241354  10.307   2.402  10.543 -1.2319  1.3911  1.8111
 9877SOL     OW41355  12.959   4.451   1.802  0.8136  0.8052 -0.3513
 9877SOL    HW141356  12.950   4.380   1.738 -0.7607  0.5498  0.1114
 9877SOL    HW241357  12.976   4.406   1.885  0.5751  1.0041 -0.1937
 9878SOL     OW41358   8.667   5.195  12.421  0.0152  0.2711  0.5226
 9878SOL    HW141359   8.708   5.122  12.373 -2.2216 -0.4887 -0.3795
 9878SOL    HW241360   8.649   5.159  12.507  3.7019  1.5253  2.0328
 9879SOL     OW41361   2.459   5.147  11.203 -0.4444  0.1045  0.1932
 9879SOL    HW141362   2.451   5.103  11.119 -0.1126 -0.8022  0.6228
 9879SOL    HW241363   2.503   5.083  11.259 -0.0403  0.9465  0.8626
 9880SOL     OW41364   2.709  12.895   0.862  0.3812 -0.4612 -0.1428
 9880SOL    HW141365   2.761  12.932   0.933  0.0538 -1.4476  0.6290
 9880SOL    HW241366   2.672  12.815   0.898  0.6196 -1.2573 -1.5923
 9881SOL     OW41367  13.005  13.443  10.443 -0.3791 -0.3110  0.2820
 9881SOL    HW141368  13.032  13.360  10.401 -0.4077 -0.6735  0.9703
 9881SOL    HW241369  12.964  13.493  10.372  2.7768  0.6252 -1.0969
 9882SOL     OW41370   4.709   6.326   8.490  0.2112 -0.3682  0.4282
 9882SOL    HW141371   4.764   6.378   8.548 -1.0993 -0.4489  1.7926
 9882SOL    HW241372   4.761   6.315   8.410  1.3415  1.2463  0.9091
 9883SOL     OW41373   0.902  11.284   9.147 -0.1218  0.1287  0.4672
 9883SOL    HW141374   0.839  11.338   9.195  0.7410  1.8154 -0.2146
 9883SOL    HW241375   0.918  11.209   9.204 -2.6440 -0.3379  0.7039
 9884SOL     OW41376  13.226   0.491  13.654  0.0848 -0.9100 -0.2735
 9884SOL    HW141377  13.161   0.515  13.588 -0.0869 -2.1783 -0.5986
 9884SOL    HW241378  13.283   0.567  13.661 -1.7802  0.5153  0.4802
 9885SOL     OW41379   9.187  13.050   6.408  0.5895 -0.2488 -0.1155
 9885SOL    HW141380   9.144  13.000   6.477  0.3599 -0.6898 -0.5742
 9885SOL    HW241381   9.121  13.114   6.381  1.2566  1.0963  1.2477
 9886SOL     OW41382   9.881  13.078   5.346 -0.3372  0.1202  0.4847
 9886SOL    HW141383   9.804  13.108   5.297  0.0467 -1.8296 -1.4980
 9886SOL    HW241384   9.915  13.005   5.294  1.9798 -0.0618  2.1076
 9887SOL     OW41385  11.905   5.544   9.046 -0.2652 -0.1660 -0.2635
 9887SOL    HW141386  11.912   5.457   9.006 -1.7495 -0.7251  0.6315
 9887SOL    HW241387  11.909   5.528   9.140 -0.2045  0.7781 -0.0948
 9888SOL     OW41388   1.277   8.365  10.273 -0.1437  0.1202  0.0016
 9888SOL    HW141389   1.306   8.360  10.364 -0.9219 -0.1124  0.2442
 9888SOL    HW241390   1.192   8.409  10.277  0.2786  1.0379 -0.7220
 9889SOL     OW41391  11.127  11.658  13.526  0.1478 -0.4355 -0.3875
 9889SOL    HW141392  11.140  11.616  13.611 -0.0120  1.0416  0.3829
 9889SOL    HW241393  11.033  11.658  13.513  0.0315  1.0601  0.3428
 9890SOL     OW41394   7.085  13.720   5.113  0.0308 -0.2037  0.6359
 9890SOL    HW141395   7.095  13.744   5.205 -0.0693 -0.8342  0.8166
 9890SOL    HW241396   7.146  13.647   5.100  1.1390  0.8375 -0.1828
 9891SOL     OW41397   0.748   0.355  11.605  0.6024  0.0031 -0.2943
 9891SOL    HW141398   0.803   0.292  11.650  0.1237 -0.2115 -0.0028
 9891SOL    HW241399   0.786   0.440  11.626 -1.1391  0.1414  2.7582
 9892SOL     OW41400   8.419   7.889   0.567 -0.6020  0.3072  0.4115
 9892SOL    HW141401   8.487   7.875   0.633 -0.2990 -1.4896 -0.2098
 9892SOL    HW241402   8.467   7.891   0.484 -1.2347 -0.4445  0.0111
 9893SOL     OW41403  10.918  12.223   4.026  0.2056 -0.4144 -0.1012
 9893SOL    HW141404  10.928  12.299   3.968 -3.2174 -0.7934 -1.3986
 9893SOL    HW241405  10.951  12.149   3.975  1.4409 -0.1461  0.2823
 9894SOL     OW41406  10.138  12.993   9.019  0.1535  0.0484 -0.7078
 9894SOL    HW141407  10.083  12.938   8.963  0.0847 -1.4998  0.7977
 9894SOL    HW241408  10.179  12.931   9.080 -0.6409  1.7589  1.6837
 9895SOL     OW41409  10.469   8.383  13.654 -0.2136 -0.3140  0.4257
 9895SOL    HW141410  10.407   8.452  13.678 -0.7309 -0.6326  0.0488
 9895SOL    HW241411  10.555   8.416  13.680 -0.5311  0.1928  0.8379
 9896SOL     OW41412   8.773  10.613  12.023 -0.8687 -0.2607 -0.3213
 9896SOL    HW141413   8.841  10.617  11.956 -1.1265  1.6215 -0.5177
 9896SOL    HW241414   8.818  10.580  12.101  0.5449  1.8366 -0.1779
 9897SOL     OW41415   9.275   2.466  13.121 -0.0809  0.4185  0.3284
 9897SOL    HW141416   9.333   2.394  13.145 -0.7096  0.4283  1.9877
 9897SOL    HW241417   9.285   2.530  13.191 -0.7522  1.2136 -0.2794
 9898SOL     OW41418   5.514  12.609   2.579 -0.4163  0.4861 -0.3987
 9898SOL    HW141419   5.583  12.558   2.622 -0.8195  1.2678  1.2127
 9898SOL    HW241420   5.456  12.542   2.541  0.1256 -0.2114 -0.0268
 9899SOL     OW41421  12.218  10.527   6.356 -0.0848 -0.2656  0.1043
 9899SOL    HW141422  12.308  10.558   6.345 -0.2559  0.6246  0.9992
 9899SOL    HW241423  12.169  10.570   6.286 -0.0105  0.1768  0.3167
 9900SOL     OW41424   5.752   4.334   4.143 -0.2169 -0.1006  0.2102
 9900SOL    HW141425   5.765   4.410   4.200  2.4288 -1.2652  1.3261
 9900SOL    HW241426   5.742   4.370   4.055  1.6367  1.5372  0.6148
 9901SOL     OW41427  11.202   1.835   8.764 -0.2411  0.1880  0.1068
 9901SOL    HW141428  11.214   1.801   8.853  0.2410  2.0171  0.7851
 9901SOL    HW241429  11.267   1.787   8.712 -0.4573 -0.8294  0.7364
 9902SOL     OW41430   3.794   6.675   7.476  0.0908 -0.6634 -0.0853
 9902SOL    HW141431   3.808   6.605   7.540  2.8274  0.9042  1.1888
 9902SOL    HW241432   3.841   6.646   7.398  0.8127 -0.4764  0.2749
 9903SOL     OW41433   7.526   8.902   0.782  0.0653 -0.2011  0.4960
 9903SOL    HW141434   7.480   8.984   0.798 -0.1079 -0.1950 -0.0051
 9903SOL    HW241435   7.467   8.852   0.726  0.6080 -0.2379 -0.0552
 9904SOL     OW41436   6.734  13.067   0.116 -0.3812 -0.6555  0.8131
 9904SOL    HW141437   6.652  13.029   0.084 -0.8082  0.1442  0.9483
 9904SOL    HW241438   6.802  13.009   0.082 -0.9096 -0.5849 -0.4109
 9905SOL     OW41439   6.233  10.917   0.588 -0.6073  0.3800 -0.3127
 9905SOL    HW141440   6.312  10.891   0.541  0.3287  0.2414  1.2780
 9905SOL    HW241441   6.258  10.995   0.637 -0.7940 -0.8328  1.8332
 9906SOL     OW41442   4.002   5.968   7.608 -0.2098  0.6568 -0.1731
 9906SOL    HW141443   3.920   5.919   7.599 -0.4824  1.3959 -2.4643
 9906SOL    HW241444   4.063   5.922   7.551  0.0294  1.9168 -0.9750
 9907SOL     OW41445  13.587   8.154   6.887 -0.0720  0.1151  0.1315
 9907SOL    HW141446  13.636   8.193   6.815 -0.5627 -0.7433 -0.6867
 9907SOL    HW241447  13.629   8.188   6.966  1.1407  0.2436 -0.5512
 9908SOL     OW41448  11.550   5.617   5.940  1.0127 -0.8088  0.2629
 9908SOL    HW141449  11.596   5.603   6.022 -1.8260  0.9807  2.3767
 9908SOL    HW241450  11.533   5.712   5.939 -1.6090 -1.2108 -0.8138
 9909SOL     OW41451   9.794   3.541   1.804 -0.3873  0.0409  0.0123
 9909SOL    HW141452   9.788   3.446   1.814  0.7980 -0.1034 -0.5282
 9909SOL    HW241453   9.708   3.573   1.830 -1.0844 -1.2493 -0.6128
 9910SOL     OW41454  12.441   9.882   6.146  0.2166  0.1163  0.1907
 9910SOL    HW141455  12.458   9.972   6.174  1.2782  0.0060 -0.0691
 9910SOL    HW241456  12.510   9.863   6.082 -0.8204 -0.4093 -0.8042
 9911SOL     OW41457   4.344   0.186   2.179 -0.5121  0.1363 -0.1247
 9911SOL    HW141458   4.257   0.227   2.174 -1.1322 -1.1619 -0.5754
 9911SOL    HW241459   4.395   0.244   2.234 -1.5740  1.1106 -0.1288
 9912SOL     OW41460  13.559   4.575   5.053  0.1996  0.4733  0.1244
 9912SOL    HW141461  13.530   4.666   5.061  0.2423  0.7047 -1.7681
 9912SOL    HW241462  13.484   4.530   5.013  1.2125  0.3727 -1.7821
 9913SOL     OW41463   8.226   9.014  10.771  0.2151  0.1671  0.2919
 9913SOL    HW141464   8.281   9.080  10.814  0.3203 -0.9152  1.9031
 9913SOL    HW241465   8.232   9.036  10.678  3.8433 -0.2269  0.2743
 9914SOL     OW41466  13.130  13.061   3.044  0.2105  0.3359  0.2390
 9914SOL    HW141467  13.093  12.978   3.015 -0.3755  0.6406  0.1113
 9914SOL    HW241468  13.152  13.046   3.136 -0.9198  0.3781  0.5279
 9915SOL     OW41469  10.782  13.511  10.893 -0.3823  0.0547 -0.5220
 9915SOL    HW141470  10.760  13.600  10.868  0.0817  0.3157 -0.0184
 9915SOL    HW241471  10.745  13.501  10.981 -0.1235 -0.1272 -0.4329
 9916SOL     OW41472   3.905   8.804   0.223 -0.1465 -0.2521  0.2268
 9916SOL    HW141473   3.933   8.713   0.223  0.5393 -0.0438  0.1069
 9916SOL    HW241474   3.856   8.814   0.305  1.0770 -0.3381  1.0004
 9917SOL     OW41475   8.744   5.869   0.696  0.8347 -0.2731 -0.4690
 9917SOL    HW141476   8.779   5.947   0.653  0.7552  0.1070  0.1493
 9917SOL    HW241477   8.822   5.821   0.725  1.0645  2.1058  3.7436
 9918SOL     OW41478   5.181   5.965  10.497 -0.2390  0.0428 -0.3654
 9918SOL    HW141479   5.231   6.044  10.475 -0.9875  0.0349 -2.2601
 9918SOL    HW241480   5.089   5.994  10.499 -0.6033 -0.8980 -1.8770
 9919SOL     OW41481   8.740  12.802  10.112  0.1516 -0.1647  0.2013
 9919SOL    HW141482   8.671  12.868  10.102  1.2402  0.9509 -0.2167
 9919SOL    HW241483   8.731  12.746  10.034 -2.1704 -1.9442  1.6078
 9920SOL     OW41484   2.517   7.956  13.208 -0.1647  0.5210 -0.3303
 9920SOL    HW141485   2.527   7.913  13.293 -3.1513  1.0860  0.4137
 9920SOL    HW241486   2.547   8.046  13.222  0.5824  0.2778 -0.2894
 9921SOL     OW41487   3.646   7.472  12.244  0.2023  0.4022  0.3271
 9921SOL    HW141488   3.621   7.557  12.207 -0.9052  0.0454  0.2191
 9921SOL    HW241489   3.739   7.464  12.225  0.2892  1.5261  0.2052
 9922SOL     OW41490   0.010   2.172   4.296  0.2489  0.2045 -0.1784
 9922SOL    HW141491  -0.041   2.174   4.376 -0.4687 -2.2363 -0.4921
 9922SOL    HW241492  -0.054   2.160   4.226  0.9689  0.9022 -0.9880
 9923SOL     OW41493   8.545  11.945   4.969 -0.5138  0.0939  0.1605
 9923SOL    HW141494   8.515  12.024   5.013  1.2982  0.1672  1.3685
 9923SOL    HW241495   8.525  11.960   4.876 -4.3158 -0.0017  0.7971
 9924SOL     OW41496   9.467   1.871  11.921  0.0969  0.1686  0.0822
 9924SOL    HW141497   9.430   1.784  11.939 -0.2199  0.1568 -0.5775
 9924SOL    HW241498   9.403   1.932  11.957 -0.8626  0.1579 -1.5057
 9925SOL     OW41499   9.165   9.334  11.318  0.4094  0.6269  0.1013
 9925SOL    HW141500   9.180   9.362  11.228  1.1021  0.1075  0.0492
 9925SOL    HW241501   9.235   9.374  11.369  1.3298 -0.8366  0.0472
 9926SOL     OW41502   7.452   3.332   9.463  0.3438  0.8918  0.2180
 9926SOL    HW141503   7.478   3.278   9.389  0.6044  1.0363  0.2024
 9926SOL    HW241504   7.516   3.403   9.464 -0.2685  1.4620 -0.0484
 9927SOL     OW41505  10.737  11.053   9.436  0.2235 -0.0169 -0.1579
 9927SOL    HW141506  10.732  11.128   9.376  1.5490  0.9579  0.8793
 9927SOL    HW241507  10.718  10.977   9.381 -1.2816  1.0638 -1.2333
 9928SOL     OW41508   4.508  13.007   3.948 -0.1443  0.2557  0.2206
 9928SOL    HW141509   4.561  12.992   3.870 -0.3975  0.7514 -0.0502
 9928SOL    HW241510   4.508  12.922   3.993 -0.0776 -0.0636 -0.3669
 9929SOL     OW41511   0.128   5.058   5.367  0.1051  0.2329 -0.0379
 9929SOL    HW141512   0.037   5.086   5.379 -0.0031 -0.4499  0.7964
 9929SOL    HW241513   0.174   5.087   5.446  1.4578  3.6908 -1.8856
 9930SOL     OW41514   4.411   3.847   1.691  0.1649 -0.2396  0.0746
 9930SOL    HW141515   4.324   3.867   1.654 -0.3651 -0.8474  0.9657
 9930SOL    HW241516   4.424   3.754   1.670  0.2879 -0.3308  0.5560
 9931SOL     OW41517  13.408   5.239  11.999 -0.3010 -0.2085  0.0212
 9931SOL    HW141518  13.440   5.156  12.033  1.4153  0.7864  1.0052
 9931SOL    HW241519  13.487   5.292  11.987 -1.0931  0.4651 -2.9635
 9932SOL     OW41520   1.553  12.845   4.369  0.2065  0.0530 -0.3131
 9932SOL    HW141521   1.638  12.878   4.339  0.1377  1.0653  0.5492
 9932SOL    HW241522   1.551  12.754   4.340  0.6179  0.6373 -2.3375
 9933SOL     OW41523   2.980   5.321   0.469 -0.1815  0.0700 -0.1691
 9933SOL    HW141524   3.052   5.360   0.520 -0.9456  1.0013  0.2447
 9933SOL    HW241525   2.929   5.273   0.534  0.0895 -0.6273 -0.4700
 9934SOL     OW41526   8.505  10.413   4.919 -0.0637 -0.3368  0.3910
 9934SOL    HW141527   8.468  10.489   4.873 -2.5174 -1.1787  0.8334
 9934SOL    HW241528   8.444  10.396   4.991  0.6020 -2.5146  0.5182
 9935SOL     OW41529  10.901   4.653   7.964  0.3524 -0.4854  0.3430
 9935SOL    HW141530  10.976   4.595   7.952 -0.8644 -1.6421 -2.7831
 9935SOL    HW241531  10.919   4.727   7.906  0.0090  0.2894  1.2000
 9936SOL     OW41532  12.711   1.242   1.872  0.4118  0.9787  0.1063
 9936SOL    HW141533  12.618   1.263   1.882  0.1946  0.4264 -0.6640
 9936SOL    HW241534  12.733   1.273   1.784  1.0068  1.2574  0.3468
 9937SOL     OW41535   5.596   9.561   2.912 -0.0124 -0.1876 -0.4082
 9937SOL    HW141536   5.613   9.535   3.003 -0.0928  0.0116 -0.3361
 9937SOL    HW241537   5.682   9.563   2.871  0.4117  2.5638  0.4112
 9938SOL     OW41538  12.021   5.224   5.337 -0.2675 -0.0116  0.0372
 9938SOL    HW141539  12.014   5.221   5.241 -0.3685 -3.4362 -0.0040
 9938SOL    HW241540  11.932   5.240   5.367 -0.3568  0.4066 -0.4390
 9939SOL     OW41541   6.866   3.068   6.323  0.0811  0.1690 -0.0850
 9939SOL    HW141542   6.921   3.067   6.401  1.1799  0.8431 -0.8226
 9939SOL    HW241543   6.776   3.072   6.357  0.3392 -2.7323  1.1583
 9940SOL     OW41544   8.561   4.650   2.860  0.1254  0.7182 -0.1823
 9940SOL    HW141545   8.584   4.573   2.808 -1.4183  0.3665 -0.3673
 9940SOL    HW241546   8.477   4.629   2.899 -0.0751  2.1121  0.1804
 9941SOL     OW41547  12.495   5.128   7.410  0.1596 -0.5761  0.2446
 9941SOL    HW141548  12.508   5.036   7.435 -1.7074 -1.2556 -1.0540
 9941SOL    HW241549  12.490   5.126   7.314 -1.9030  0.5687  0.2919
 9942SOL     OW41550   0.658   8.014   4.131  0.1353 -0.1917  0.0334
 9942SOL    HW141551   0.704   8.076   4.189  1.6370 -0.8333 -0.4370
 9942SOL    HW241552   0.661   8.055   4.045 -2.5168  0.9910  0.3757
 9943SOL     OW41553   3.410  10.278   1.383 -0.6271 -0.7056 -0.1161
 9943SOL    HW141554   3.369  10.294   1.468  0.5365 -1.0248  0.5379
 9943SOL    HW241555   3.364  10.202   1.348 -2.0482  0.2708 -0.4223
 9944SOL     OW41556  12.403   0.833  10.690 -0.1470  0.2326 -0.8714
 9944SOL    HW141557  12.353   0.762  10.648  1.3145 -1.0987 -0.4648
 9944SOL    HW241558  12.479   0.846  10.633 -1.3035  2.8529 -1.9677
 9945SOL     OW41559   0.614   9.967   3.073 -0.3436 -0.1090  0.2848
 9945SOL    HW141560   0.567  10.046   3.046 -2.0315 -0.6779  1.3994
 9945SOL    HW241561   0.697   9.971   3.026  0.5385  3.3698  1.7864
 9946SOL     OW41562   0.073  13.615   3.559 -0.8288 -0.0522 -0.4852
 9946SOL    HW141563   0.057  13.600   3.653  1.1674  1.4977  0.1959
 9946SOL    HW241564   0.094  13.529   3.524 -0.6611 -0.5287  0.7355
 9947SOL     OW41565  12.279   2.648   8.465  0.5936  0.0799 -0.6266
 9947SOL    HW141566  12.327   2.585   8.518 -2.8310 -1.7449  0.6562
 9947SOL    HW241567  12.247   2.598   8.390  0.5465  1.1713 -1.3681
 9948SOL     OW41568   1.994  12.032   2.951  0.1080 -0.1628 -0.1906
 9948SOL    HW141569   1.949  11.953   2.921 -0.7310 -0.4806  1.7592
 9948SOL    HW241570   1.928  12.078   3.003  1.8651 -0.4558  2.4484
 9949SOL     OW41571   3.521   7.137   2.535  0.3916 -0.2547 -0.2245
 9949SOL    HW141572   3.524   7.196   2.611 -0.7018 -1.0412  0.4610
 9949SOL    HW241573   3.613   7.125   2.511  0.7330  0.3709  0.6917
 9950SOL     OW41574   2.947   1.903  10.231  0.1407 -0.0383  0.2486
 9950SOL    HW141575   2.854   1.894  10.212 -0.1488 -0.0912  1.6005
 9950SOL    HW241576   2.981   1.956  10.159 -1.0453  0.4752  0.0437
 9951SOL     OW41577   4.716  12.992  10.636 -0.8169  0.0124 -0.5552
 9951SOL    HW141578   4.624  13.019  10.637 -0.9863 -0.5441  0.9726
 9951SOL    HW241579   4.765  13.074  10.631 -1.3718  0.5099  1.4483
 9952SOL     OW41580   9.877   5.290  11.459  0.0174 -0.3086  0.4025
 9952SOL    HW141581   9.814   5.333  11.400  0.3030  1.3197  1.2256
 9952SOL    HW241582   9.900   5.209  11.414 -1.1427  0.0212 -0.8621
 9953SOL     OW41583  10.019   2.085  12.383 -0.2150 -0.0415 -0.4139
 9953SOL    HW141584   9.936   2.065  12.426 -1.0728  2.4019 -0.7572
 9953SOL    HW241585  10.086   2.054  12.444 -1.3803 -0.5531  0.6561
 9954SOL     OW41586  10.317   1.127   6.326  0.3904  0.2603 -0.0357
 9954SOL    HW141587  10.244   1.128   6.388  1.8113  0.8428  1.7278
 9954SOL    HW241588  10.386   1.078   6.372  0.7198 -1.4173 -2.1688
 9955SOL     OW41589   4.731  13.253  12.367 -0.7297  0.0134  0.9338
 9955SOL    HW141590   4.746  13.262  12.462 -0.9604 -0.2443  0.9968
 9955SOL    HW241591   4.777  13.328  12.329  1.7875 -1.3770  1.0051
 9956SOL     OW41592   9.494  12.750   1.766 -0.3324  0.3528 -0.4291
 9956SOL    HW141593   9.444  12.708   1.835 -0.0935  1.3273  0.3585
 9956SOL    HW241594   9.509  12.839   1.797  1.6343  0.1966 -0.7607
 9957SOL     OW41595   9.133   3.145   9.588  0.6065 -0.5918  0.1712
 9957SOL    HW141596   9.138   3.083   9.660  0.5933 -0.6818  0.0942
 9957SOL    HW241597   9.168   3.098   9.512  1.6851 -0.1225  0.3581
 9958SOL     OW41598   5.150   8.550   8.375 -0.0204  0.2590 -0.3222
 9958SOL    HW141599   5.229   8.524   8.328 -1.4288 -1.5587 -1.8310
 9958SOL    HW241600   5.109   8.615   8.319 -1.2485 -1.2693 -1.2967
 9959SOL     OW41601   0.083   9.948  10.969 -0.1571 -0.1484 -0.2583
 9959SOL    HW141602   0.143   9.928  10.897 -0.8910 -0.0411 -0.9130
 9959SOL    HW241603   0.024  10.014  10.933 -0.9730 -0.6016  0.2230
 9960SOL     OW41604  11.655   6.482   6.710 -1.0040 -0.3098  0.0697
 9960SOL    HW141605  11.721   6.418   6.736  0.3670  0.9253 -0.2640
 9960SOL    HW241606  11.665   6.491   6.616 -1.1411  0.4451  0.1218
 9961SOL     OW41607   2.430   0.198   9.323  1.0221 -0.4172 -0.1303
 9961SOL    HW141608   2.513   0.243   9.339  1.6093 -1.3273 -0.5130
 9961SOL    HW241609   2.430   0.125   9.385  1.9220 -2.1869 -2.1139
 9962SOL     OW41610   9.756  10.066   1.607 -0.0884 -0.0575  0.4231
 9962SOL    HW141611   9.842  10.032   1.581 -0.3763  0.3702 -1.1916
 9962SOL    HW241612   9.743  10.143   1.552 -0.8852  0.7585  1.7050
 9963SOL     OW41613  13.290   9.506   9.762 -0.4168  0.4426  0.6927
 9963SOL    HW141614  13.278   9.567   9.689  0.5276  1.0307  1.0152
 9963SOL    HW241615  13.385   9.494   9.768 -0.5393 -0.3686  1.2082
 9964SOL     OW41616   6.802   0.615  12.911  0.0601 -0.1567  0.1073
 9964SOL    HW141617   6.759   0.696  12.938 -2.2423 -1.3072  0.1613
 9964SOL    HW241618   6.825   0.629  12.820 -0.2759  0.5878  0.1309
 9965SOL     OW41619  11.115   5.996   7.071  0.3226 -0.4299  0.1660
 9965SOL    HW141620  11.134   6.090   7.069 -1.3285 -0.0730  0.3426
 9965SOL    HW241621  11.161   5.965   7.149  2.5513 -0.1846 -0.9749
 9966SOL     OW41622  11.089   9.379   8.893 -0.7004  0.1517  0.6504
 9966SOL    HW141623  11.073   9.332   8.812  2.0461  0.5674 -0.2388
 9966SOL    HW241624  11.004   9.417   8.917 -1.7732 -0.7766 -1.4725
 9967SOL     OW41625   1.825  11.902   3.684 -0.1677 -0.1460 -0.2207
 9967SOL    HW141626   1.746  11.865   3.723 -0.0069 -1.0391 -0.7213
 9967SOL    HW241627   1.887  11.908   3.757 -0.1114 -1.1080 -0.1810
 9968SOL     OW41628   5.440  12.540   1.692 -0.3469 -0.0516 -0.6300
 9968SOL    HW141629   5.480  12.557   1.778  0.2555 -1.3108 -0.6375
 9968SOL    HW241630   5.367  12.601   1.688  0.9067  1.5704 -0.1538
 9969SOL     OW41631   8.229   4.293   6.162  0.1150 -0.9672 -0.3748
 9969SOL    HW141632   8.277   4.375   6.163 -1.0530 -0.2529 -0.0842
 9969SOL    HW241633   8.221   4.268   6.254 -1.6034 -0.0958 -0.2348
 9970SOL     OW41634   0.646   7.736   6.165  0.2883 -0.5289  0.0949
 9970SOL    HW141635   0.663   7.649   6.131  0.6056 -0.2280 -0.5336
 9970SOL    HW241636   0.726   7.786   6.147  0.1345 -0.1223  0.4969
 9971SOL     OW41637   2.127  10.831   5.363 -0.0811 -0.3908  0.3182
 9971SOL    HW141638   2.198  10.776   5.328 -0.1627 -0.4967  0.3171
 9971SOL    HW241639   2.159  10.862   5.447  0.6483  0.9096 -0.4011
 9972SOL     OW41640   1.955   7.990  10.876  0.1465 -0.4572 -0.0628
 9972SOL    HW141641   1.903   8.070  10.882 -0.8536 -1.0019 -0.9568
 9972SOL    HW241642   2.044   8.021  10.857  0.0667  0.4771  0.9745
 9973SOL     OW41643   5.008   3.807   6.148  0.0777  0.0926  0.1417
 9973SOL    HW141644   5.002   3.750   6.224  2.1224 -1.9884 -1.1403
 9973SOL    HW241645   4.922   3.800   6.106 -0.1816 -0.8807  0.8005
 9974SOL     OW41646   3.050  12.779   5.748 -0.0804 -0.3811  0.1741
 9974SOL    HW141647   3.042  12.846   5.680 -1.6071  1.2200  1.8363
 9974SOL    HW241648   3.137  12.792   5.785  0.2912 -0.4757 -0.6375
 9975SOL     OW41649   1.596   5.194   4.114  0.4440 -0.3139  0.4351
 9975SOL    HW141650   1.668   5.256   4.104 -1.5191  2.1953  0.7147
 9975SOL    HW241651   1.603   5.164   4.205 -0.2917  1.9793  1.3223
 9976SOL     OW41652  12.983  12.256  11.624  0.2022  0.0566  0.1598
 9976SOL    HW141653  13.060  12.229  11.574 -0.6298 -2.5504  0.1339
 9976SOL    HW241654  12.910  12.211  11.581 -0.8329 -0.4314  2.3104
 9977SOL     OW41655  11.417   1.339   8.222  0.7836 -0.5738 -0.2950
 9977SOL    HW141656  11.387   1.428   8.238  0.5171 -0.4649 -1.3343
 9977SOL    HW241657  11.443   1.307   8.308 -1.6032 -0.4163  0.5736
 9978SOL     OW41658  10.482   2.633   7.795 -0.2765  0.3897 -0.4349
 9978SOL    HW141659  10.459   2.540   7.797  1.7761 -0.1981 -1.2268
 9978SOL    HW241660  10.530   2.647   7.876 -0.4315  0.7143 -0.4010
 9979SOL     OW41661  10.359  11.619  12.776 -0.7878  0.5028  0.7319
 9979SOL    HW141662  10.412  11.550  12.738 -1.2997 -0.7124  2.1331
 9979SOL    HW241663  10.304  11.651  12.705 -0.6009 -0.5912  0.0868
 9980SOL     OW41664   0.022  10.339   5.384  0.4337  0.0367 -0.6084
 9980SOL    HW141665   0.117  10.342   5.396  0.6385  1.6819 -2.1812
 9980SOL    HW241666   0.010  10.360   5.291 -1.5584  2.3712  0.0790
 9981SOL     OW41667   1.891   2.257   6.185 -0.6812 -0.0482 -0.4012
 9981SOL    HW141668   1.865   2.212   6.266  0.1194  1.0062  0.4749
 9981SOL    HW241669   1.934   2.338   6.215  1.1908 -0.4404 -1.8266
 9982SOL     OW41670   6.312  13.212   0.507 -0.8097  0.1630  0.5541
 9982SOL    HW141671   6.290  13.151   0.437  0.1216  0.1086  0.2968
 9982SOL    HW241672   6.347  13.157   0.577 -2.3965  0.1354  1.3760
 9983SOL     OW41673   4.055   4.269   0.047  0.6240 -0.6208  0.0395
 9983SOL    HW141674   3.999   4.261   0.125  0.1340  0.7048 -0.1473
 9983SOL    HW241675   4.141   4.291   0.082  0.0416  1.7296  0.2211
 9984SOL     OW41676   2.304   8.272  13.643  0.3745  0.3901 -0.2347
 9984SOL    HW141677   2.366   8.275  13.716  1.1533  0.5607 -0.8896
 9984SOL    HW241678   2.320   8.353  13.595 -0.1455  0.2882 -0.5812
 9985SOL     OW41679   6.055   9.355   3.165 -0.0587 -0.0725  0.6592
 9985SOL    HW141680   6.032   9.403   3.245 -0.2983 -1.5252  1.4953
 9985SOL    HW241681   5.971   9.337   3.123 -0.0311 -0.4781  0.7773
 9986SOL     OW41682  11.006   2.302   3.604 -0.4593  0.1289  0.0380
 9986SOL    HW141683  11.005   2.206   3.602  0.2677 -0.0174  2.9769
 9986SOL    HW241684  10.915   2.327   3.619 -0.2233 -0.3613  2.8544
 9987SOL     OW41685   6.808   2.438   2.165  0.2933 -0.1602  0.0536
 9987SOL    HW141686   6.883   2.453   2.108  0.4692  0.4969  0.4522
 9987SOL    HW241687   6.846   2.414   2.249  0.0477 -2.6900 -0.4541
 9988SOL     OW41688  10.441   3.365   0.891 -0.6148 -0.3265  0.0678
 9988SOL    HW141689  10.385   3.310   0.946 -1.6192 -2.2797 -2.6756
 9988SOL    HW241690  10.521   3.313   0.879  0.6055  1.1225  1.4974
 9989SOL     OW41691   7.110  11.062   6.499 -0.0553  0.0735 -0.2561
 9989SOL    HW141692   7.126  11.118   6.424 -0.0816  0.6006  0.1265
 9989SOL    HW241693   7.114  11.121   6.574 -1.7847 -0.1174  0.0247
 9990SOL     OW41694   3.788  13.217  12.165 -0.2835 -0.4074  0.4659
 9990SOL    HW141695   3.835  13.148  12.118 -1.1785 -1.1010  0.5679
 9990SOL    HW241696   3.857  13.272  12.202  0.4374 -0.9681 -0.0228
 9991SOL     OW41697  12.499   7.955   2.378 -0.6643  0.0998 -0.1137
 9991SOL    HW141698  12.585   7.956   2.335 -0.7953  1.6395 -0.3884
 9991SOL    HW241699  12.446   8.015   2.327 -0.9521  1.6844  1.9251
 9992SOL     OW41700   3.338  12.516   9.111  0.3167 -0.2687 -0.4204
 9992SOL    HW141701   3.324  12.428   9.078 -1.2266  0.2234 -1.1705
 9992SOL    HW241702   3.265  12.567   9.075 -1.1800  0.4701  3.1840
 9993SOL     OW41703   6.634   4.901   7.774  0.3799  0.0069 -0.2403
 9993SOL    HW141704   6.559   4.893   7.834  0.8045 -1.0523  0.1678
 9993SOL    HW241705   6.626   4.990   7.739 -2.2047 -0.6847 -1.7309
 9994SOL     OW41706   2.650   3.562  12.477  0.0305  0.4978 -0.0037
 9994SOL    HW141707   2.637   3.477  12.436  1.2958  0.9200 -1.3413
 9994SOL    HW241708   2.635   3.625  12.407  1.8532  1.2555  0.2406
 9995SOL     OW41709  10.339   5.270   2.344  0.8668  0.0943 -0.2783
 9995SOL    HW141710  10.277   5.292   2.274  0.6076  0.4471  0.0621
 9995SOL    HW241711  10.289   5.281   2.425  2.1199  3.3268  0.2349
 9996SOL     OW41712   5.549  12.350  11.179 -0.1170 -0.0139 -0.2093
 9996SOL    HW141713   5.482  12.318  11.119 -1.2430  0.0700  0.9633
 9996SOL    HW241714   5.596  12.417  11.128  0.4756 -1.5236 -1.7384
 9997SOL     OW41715   0.590   9.179   1.477 -0.4288  0.4956 -0.2788
 9997SOL    HW141716   0.674   9.207   1.514 -1.1093  1.0317  0.9096
 9997SOL    HW241717   0.539   9.151   1.553 -1.0749 -0.5279 -1.0622
 9998SOL     OW41718  12.448  12.074  12.951 -0.0310  0.1021  0.2244
 9998SOL    HW141719  12.360  12.097  12.981 -0.4279 -1.5923  0.5024
 9998SOL    HW241720  12.487  12.027  13.025 -0.0519 -1.8199 -0.8935
 9999SOL     OW41721  11.739   3.820   4.587  0.3604 -0.3547  0.2089
 9999SOL    HW141722  11.762   3.910   4.563 -1.1963  0.1069  0.3458
 9999SOL    HW241723  11.777   3.809   4.674 -2.4467  1.5156  1.8445
10000SOL     OW41724   4.980   2.823   4.186 -0.4404 -0.0939 -0.3460
10000SOL    HW141725   5.007   2.803   4.096 -0.4618  1.4255 -0.7140
10000SOL    HW241726   4.923   2.899   4.177  1.0510  1.2609  1.1127
10001SOL     OW41727   4.418   7.221   9.580 -0.6069 -0.1290  0.4880
10001SOL    HW141728   4.492   7.278   9.599 -2.4138  1.8205  2.1194
10001SOL    HW241729   4.401   7.234   9.487  2.1220 -2.0312 -0.3994
10002SOL     OW41730   6.561   7.292   9.775  0.2997  0.0512 -0.4120
10002SOL    HW141731   6.629   7.231   9.803  0.5040  0.2122 -0.5629
10002SOL    HW241732   6.552   7.276   9.681 -0.5050 -0.6085 -0.2363
10003SOL     OW41733   0.077   3.114  10.022  0.5811  0.4500 -0.0753
10003SOL    HW141734   0.125   3.060  10.085 -1.3222 -0.8454  0.3792
10003SOL    HW241735   0.093   3.073   9.938  1.5223  0.9780 -0.1590
10004SOL     OW41736   7.143   1.084   4.784 -0.1546  0.1154  0.1546
10004SOL    HW141737   7.190   1.131   4.716 -1.2679  0.8016 -0.1767
10004SOL    HW241738   7.177   0.994   4.780  0.1515  0.2670 -0.9682
10005SOL     OW41739   8.507   0.093   4.710  0.4532 -0.2909  0.0619
10005SOL    HW141740   8.448   0.019   4.693  0.3820 -0.5252  1.2428
10005SOL    HW241741   8.473   0.133   4.790  1.4479  0.0393  0.3317
10006SOL     OW41742  13.394   5.448  10.628  0.3459 -0.1231 -0.1898
10006SOL    HW141743  13.337   5.374  10.607  0.6412 -0.6171  0.6919
10006SOL    HW241744  13.373   5.470  10.719 -0.2656  1.3718 -0.6565
10007SOL     OW41745   4.378   7.910  13.144 -0.5418  0.5062 -0.3745
10007SOL    HW141746   4.458   7.948  13.108 -0.5849  0.5801 -0.3911
10007SOL    HW241747   4.321   7.896  13.069 -2.2068  4.2535 -0.0065
10008SOL     OW41748   9.271   5.361   0.231 -0.0228 -0.0073 -0.3158
10008SOL    HW141749   9.311   5.445   0.252  1.0147  0.0356 -2.2923
10008SOL    HW241750   9.237   5.330   0.315 -1.5216  2.9001  0.2736
10009SOL     OW41751   1.815   9.492   8.787 -0.3702  0.1359  0.2425
10009SOL    HW141752   1.883   9.439   8.828 -0.6663 -0.3016  0.1704
10009SOL    HW241753   1.863   9.563   8.743 -0.0025  0.1755  0.6964
10010SOL     OW41754   4.174  11.975  12.224  0.0284 -0.4396  0.4173
10010SOL    HW141755   4.257  11.935  12.197  0.7405  2.1482 -1.6509
10010SOL    HW241756   4.109  11.938  12.164  0.4425  0.4616 -0.6124
10011SOL     OW41757   6.271  11.203   2.184 -0.3225  0.0533 -0.4744
10011SOL    HW141758   6.178  11.186   2.166 -0.9065  3.6867 -1.9004
10011SOL    HW241759   6.270  11.255   2.264  0.4731  0.2700 -0.6042
10012SOL     OW41760   9.588   6.253   8.104 -0.6277 -0.0741 -0.0367
10012SOL    HW141761   9.562   6.167   8.136 -1.3477 -0.3034 -1.1741
10012SOL    HW241762   9.545   6.315   8.163  2.4282 -0.3814  2.8314
10013SOL     OW41763  13.192  13.644   7.201 -0.5223  0.2790  0.1596
10013SOL    HW141764  13.171  13.737   7.188 -0.0492  0.0143 -3.8700
10013SOL    HW241765  13.107  13.600   7.198 -0.6329  0.4583  0.5917
10014SOL     OW41766   2.116   5.200   5.789 -0.0456  0.4640 -0.4283
10014SOL    HW141767   2.114   5.108   5.813  0.3779  0.2100 -1.3255
10014SOL    HW241768   2.103   5.201   5.695  1.6754  1.1885 -0.7078
10015SOL     OW41769   4.396   1.601   1.081 -0.7448 -0.0561 -0.3808
10015SOL    HW141770   4.447   1.524   1.054  1.5455  1.4512 -0.6760
10015SOL    HW241771   4.308   1.583   1.049 -0.6121 -3.0346  0.5610
10016SOL     OW41772   2.485   3.424  13.111 -0.7623  0.2004 -0.0353
10016SOL    HW141773   2.441   3.430  13.026  1.7975  0.6002 -1.4028
10016SOL    HW241774   2.521   3.511  13.126  1.1373 -0.5574  0.0844
10017SOL     OW41775   0.750   1.230  11.252 -0.5635  0.2341  0.0923
10017SOL    HW141776   0.829   1.198  11.295  1.8124 -1.2126 -4.6453
10017SOL    HW241777   0.687   1.158  11.262  0.5020 -0.7806 -0.1895
10018SOL     OW41778   6.998   2.438  11.799  0.3807 -0.0098 -0.2789
10018SOL    HW141779   7.003   2.511  11.861  0.2281 -0.2384  0.0037
10018SOL    HW241780   6.999   2.480  11.713  0.8709  0.2969 -0.1301
10019SOL     OW41781   9.918  11.027   8.079 -0.2453  0.2081  0.3917
10019SOL    HW141782   9.908  10.932   8.086  0.7377  0.0672  0.0750
10019SOL    HW241783   9.982  11.049   8.146  1.0574  0.3501 -0.8566
10020SOL     OW41784  10.713  12.452   1.105 -0.1947  0.5129  0.2798
10020SOL    HW141785  10.775  12.525   1.103  0.2719  0.1185 -1.3722
10020SOL    HW241786  10.629  12.492   1.127  0.4215  1.2154  1.4701
10021SOL     OW41787   9.499   7.914   2.245  0.0814 -0.4319  0.2769
10021SOL    HW141788   9.483   7.832   2.293 -0.4865 -0.3726  0.1937
10021SOL    HW241789   9.411   7.947   2.224  0.2758 -1.3387 -2.3388
10022SOL     OW41790   2.185   8.709   5.485 -0.3846 -0.1001  0.2795
10022SOL    HW141791   2.153   8.798   5.469 -0.8163 -0.0515  1.3529
10022SOL    HW241792   2.213   8.709   5.577  0.0600 -0.9447  0.1579
10023SOL     OW41793   4.916  10.831  13.609 -0.2546 -0.2442  0.2567
10023SOL    HW141794   4.909  10.925  13.588 -1.7106 -0.7004 -1.5854
10023SOL    HW241795   4.914  10.828  13.704 -2.5925  1.5159  0.3500
10024SOL     OW41796   7.767   2.883   2.893 -0.2244 -0.7735  0.2897
10024SOL    HW141797   7.758   2.877   2.798 -0.3884 -0.8372  0.3082
10024SOL    HW241798   7.861   2.878   2.909 -0.2171 -1.0645  0.1545
10025SOL     OW41799   2.131  13.420   1.207  0.2402 -0.0495  0.3056
10025SOL    HW141800   2.098  13.365   1.136  1.8368 -0.8362  0.1269
10025SOL    HW241801   2.163  13.499   1.163  0.2142 -0.0544  0.2782
10026SOL     OW41802   6.055   2.909   5.005  0.1804  0.4337 -0.2329
10026SOL    HW141803   6.136   2.886   4.959 -0.7008 -0.0937 -1.5969
10026SOL    HW241804   6.008   2.965   4.943 -0.7772  0.2173  0.2760
10027SOL     OW41805   0.771   7.294   5.878 -0.3010 -0.1952 -0.1972
10027SOL    HW141806   0.810   7.239   5.947 -0.9885 -0.5464 -0.0786
10027SOL    HW241807   0.807   7.381   5.894 -0.6589 -0.2091  0.7916
10028SOL     OW41808  13.011   4.056  12.352 -0.2683 -0.3932  0.2681
10028SOL    HW141809  12.940   4.065  12.415 -2.1128 -1.0326 -1.5976
10028SOL    HW241810  12.976   4.093  12.271  1.9109  0.1598 -0.4941
10029SOL     OW41811   0.352   9.606   2.269  0.2124  0.5842 -0.1067
10029SOL    HW141812   0.266   9.648   2.265 -0.6257 -0.9250  0.9904
10029SOL    HW241813   0.347   9.535   2.205  0.3103 -0.0687  0.6038
10030SOL     OW41814  12.879   5.568  10.153 -0.4032  0.0760  0.1602
10030SOL    HW141815  12.863   5.662  10.155  0.8964  0.4547 -2.4794
10030SOL    HW241816  12.886   5.543  10.245  0.6186  2.8390  0.9374
10031SOL     OW41817   6.247   8.558   2.015 -0.1022  0.0171  0.4603
10031SOL    HW141818   6.280   8.513   2.093 -0.3176 -0.5843  0.2174
10031SOL    HW241819   6.325   8.575   1.962  0.2061  1.6165  1.3917
10032SOL     OW41820   0.224  12.439   2.523  0.1537 -0.4347 -0.2525
10032SOL    HW141821   0.172  12.375   2.473 -0.3778 -1.9114  2.0186
10032SOL    HW241822   0.245  12.508   2.460 -2.3932 -1.0450 -1.9187
10033SOL     OW41823   1.049  10.389   8.527 -0.2312 -0.5153 -0.4015
10033SOL    HW141824   0.991  10.465   8.517 -1.7175 -1.0739  2.7498
10033SOL    HW241825   0.992  10.313   8.514  0.2948 -1.0858  0.5270
10034SOL     OW41826  10.822   1.926   1.499  0.5616  0.4515  0.9462
10034SOL    HW141827  10.736   1.902   1.464  0.1726  2.5276  0.3675
10034SOL    HW241828  10.838   1.862   1.568 -1.7143  0.3793  1.4776
10035SOL     OW41829   2.727   6.997   4.979  0.2506  0.1507 -0.3880
10035SOL    HW141830   2.813   7.039   4.988  1.4627 -1.7092 -2.1459
10035SOL    HW241831   2.691   6.996   5.068  1.4785  2.1021  0.1871
10036SOL     OW41832   6.528   6.902  13.737  0.1318  0.4847  0.7753
10036SOL    HW141833   6.548   6.995  13.731  2.4808 -0.0313 -0.2150
10036SOL    HW241834   6.603   6.863  13.781 -0.3546 -1.0843  0.2907
10037SOL     OW41835  12.833   3.032  10.205 -0.5207 -0.1719  0.7710
10037SOL    HW141836  12.801   3.119  10.184 -3.1031 -1.4279 -1.0663
10037SOL    HW241837  12.919   3.046  10.246 -1.2609  3.2091  1.3920
10038SOL     OW41838   8.988   8.647   3.988 -0.1182 -0.2401  0.0067
10038SOL    HW141839   9.031   8.651   3.902 -2.5218  2.2191 -1.2220
10038SOL    HW241840   8.945   8.561   3.988  1.4888 -1.0898 -0.3693
10039SOL     OW41841  13.179   5.720  10.024  0.0061  0.6384  0.5890
10039SOL    HW141842  13.091   5.714   9.987  0.4164  0.6845 -0.4300
10039SOL    HW241843  13.217   5.798   9.983  0.6140  0.4622  0.8092
10040SOL     OW41844   2.717   9.689  12.961  0.0551 -0.3575 -0.6347
10040SOL    HW141845   2.677   9.643  12.887 -0.4723  0.6325 -0.9874
10040SOL    HW241846   2.699   9.633  13.037  0.2525 -1.1860 -1.1855
10041SOL     OW41847   3.784   1.321   1.352 -0.1477 -0.4526 -0.1157
10041SOL    HW141848   3.714   1.343   1.413  0.5112  1.9987 -0.1110
10041SOL    HW241849   3.768   1.376   1.276  0.3269 -1.7905 -1.2282
10042SOL     OW41850  11.086   9.814   2.484  0.3869 -0.1862 -0.7964
10042SOL    HW141851  11.139   9.758   2.541  0.4294 -0.5442 -1.1840
10042SOL    HW241852  11.127   9.900   2.488  0.6601 -0.3247 -0.6490
10043SOL     OW41853  11.606  11.859  13.169 -0.2126  0.1751 -0.0616
10043SOL    HW141854  11.530  11.801  13.166 -0.8628  0.9491  0.6439
10043SOL    HW241855  11.667  11.815  13.227 -0.6754  0.1479  0.4204
10044SOL     OW41856   1.368   1.336   7.756  0.1227 -0.3938  1.0108
10044SOL    HW141857   1.321   1.369   7.832  0.2714  1.9394  0.1644
10044SOL    HW241858   1.453   1.379   7.760 -0.2394  0.6062 -1.0058
10045SOL     OW41859   7.634  11.799   1.900 -0.1037  0.3013 -0.4214
10045SOL    HW141860   7.635  11.706   1.920 -1.3207  0.3760  0.0378
10045SOL    HW241861   7.676  11.806   1.814  1.8051 -0.4366  0.3891
10046SOL     OW41862  12.274  10.351  12.047  0.8493  0.0761  0.5596
10046SOL    HW141863  12.237  10.342  12.134 -1.6181  1.6711 -0.2255
10046SOL    HW241864  12.208  10.316  11.988  0.4790  2.9026 -0.8994
10047SOL     OW41865   6.310  11.938   2.605 -0.0349 -0.5073  0.2458
10047SOL    HW141866   6.274  11.995   2.536 -1.2396 -0.1050  1.1692
10047SOL    HW241867   6.354  11.998   2.665  0.0100 -0.7316  0.4344
10048SOL     OW41868   5.580   1.722   5.186  0.2136 -0.3223 -0.9472
10048SOL    HW141869   5.625   1.757   5.109 -0.3900 -0.6683 -1.4696
10048SOL    HW241870   5.516   1.661   5.150 -1.3203  0.8353 -0.2909
10049SOL     OW41871   7.944   2.619   1.043 -0.0589 -0.0093  0.1940
10049SOL    HW141872   7.962   2.619   1.137 -0.3681  0.4591  0.2554
10049SOL    HW241873   7.915   2.530   1.024 -0.7857  0.1123  0.6967
10050SOL     OW41874   8.526   7.134   8.714 -0.1811  0.6475 -0.4431
10050SOL    HW141875   8.541   7.222   8.679  1.6562  0.5723  0.0201
10050SOL    HW241876   8.439   7.138   8.754 -0.4018  2.0525 -1.0093
10051SOL     OW41877   3.109   6.560   5.659 -0.2408  0.5631  0.2460
10051SOL    HW141878   3.192   6.584   5.618 -0.6151  0.5969 -0.4975
10051SOL    HW241879   3.087   6.475   5.621  0.1946 -0.1599  1.5569
10052SOL     OW41880  13.572   5.601   3.705  0.6149  0.0066 -0.8271
10052SOL    HW141881  13.561   5.696   3.712 -0.6297 -0.0634 -1.4372
10052SOL    HW241882  13.659   5.588   3.668  2.3127  0.7621  2.5425
10053SOL     OW41883   2.433   8.123   1.193  0.1496  0.0022  0.7541
10053SOL    HW141884   2.462   8.117   1.102 -0.8108 -3.3431  0.5476
10053SOL    HW241885   2.450   8.214   1.218  1.3167  0.7719 -2.4414
10054SOL     OW41886  10.758  10.891   6.734 -0.5393 -0.0290 -0.6521
10054SOL    HW141887  10.839  10.846   6.712 -0.3613  0.4007 -0.8801
10054SOL    HW241888  10.694  10.821   6.747 -0.5128 -0.3105 -1.9722
10055SOL     OW41889  12.932  12.518   3.845 -0.3678 -0.1008  0.0417
10055SOL    HW141890  12.866  12.485   3.906 -0.1583 -1.2108 -0.2998
10055SOL    HW241891  12.882  12.556   3.774 -0.6246  0.2538  0.4107
10056SOL     OW41892   2.915   4.456   7.954 -0.1730  0.3850  0.4822
10056SOL    HW141893   2.827   4.429   7.928  0.0187  1.0519 -0.9328
10056SOL    HW241894   2.940   4.393   8.022 -2.0310  0.6710  1.5053
10057SOL     OW41895   3.513   3.860  13.187  0.0779 -0.0490  0.6615
10057SOL    HW141896   3.484   3.889  13.274 -0.8877  0.4316  0.1884
10057SOL    HW241897   3.471   3.775  13.175  0.3296 -0.1824  0.7248
10058SOL     OW41898  10.165   1.490   5.277  0.0348  0.1577 -0.0337
10058SOL    HW141899  10.075   1.522   5.264  0.0922  0.2930 -0.1042
10058SOL    HW241900  10.219   1.552   5.228  0.2266  0.4775  0.5671
10059SOL     OW41901   7.195   6.908  10.282  0.1520  0.3346 -0.0699
10059SOL    HW141902   7.175   6.987  10.232  1.4087  0.1598 -0.9158
10059SOL    HW241903   7.231   6.940  10.365  0.3836  0.6542 -0.2915
10060SOL     OW41904   3.104   6.528  13.599 -0.5986  0.5141  0.0356
10060SOL    HW141905   3.101   6.552  13.506 -0.3308  0.3457 -0.0175
10060SOL    HW241906   3.100   6.612  13.646 -1.9924  0.5485 -0.0927
10061SOL     OW41907   9.191  12.308   3.194  0.9781 -0.0893  0.2888
10061SOL    HW141908   9.219  12.322   3.284 -0.7526  0.1551  0.8339
10061SOL    HW241909   9.142  12.388   3.172 -1.7586 -1.5896  0.4577
10062SOL     OW41910   0.731   3.445   8.157  0.4853  0.3965 -0.1967
10062SOL    HW141911   0.823   3.469   8.167  0.0008  2.2618  0.0547
10062SOL    HW241912   0.683   3.520   8.190 -1.1379 -0.2762 -0.9403
10063SOL     OW41913   1.479   0.238   2.631  0.2887  0.0411  0.0325
10063SOL    HW141914   1.468   0.308   2.566 -2.3639  0.4288  0.7666
10063SOL    HW241915   1.401   0.184   2.620 -0.2497  0.1174  2.8742
10064SOL     OW41916   1.062   6.334   9.786 -0.0750  1.2199 -0.8442
10064SOL    HW141917   1.152   6.310   9.761  0.0241 -0.2125  0.6877
10064SOL    HW241918   1.066   6.427   9.805  1.3258  1.0062  0.0454
10065SOL     OW41919   5.383  13.489   6.795  0.1995  0.1333 -0.3325
10065SOL    HW141920   5.477  13.471   6.783  0.1130  0.2385 -1.3120
10065SOL    HW241921   5.359  13.444   6.876  0.7595 -1.1861 -0.8776
10066SOL     OW41922   9.334   9.523   6.748 -0.4160  0.4046  0.0586
10066SOL    HW141923   9.390   9.520   6.671 -1.0437 -1.3653 -0.3651
10066SOL    HW241924   9.383   9.477   6.816 -0.8499 -0.0961  0.0354
10067SOL     OW41925   9.067   9.747   1.979 -0.1402 -0.0556 -0.1146
10067SOL    HW141926   8.999   9.689   2.013  1.9957 -1.4299  2.1489
10067SOL    HW241927   9.084   9.809   2.051  1.2260  0.0180 -0.4742
10068SOL     OW41928   3.611   5.267   0.271 -0.0177 -0.3543 -0.9385
10068SOL    HW141929   3.554   5.340   0.245 -1.5552 -1.4227 -0.6697
10068SOL    HW241930   3.618   5.213   0.192 -1.5503 -1.5838 -0.2785
10069SOL     OW41931  13.432   2.424   0.182  0.2925 -0.0384 -0.2765
10069SOL    HW141932  13.336   2.420   0.179  0.2052  0.7022  0.8918
10069SOL    HW241933  13.461   2.339   0.149 -0.7078  0.3710 -2.4050
10070SOL     OW41934  13.322   4.640  11.626 -0.3166  0.2942  0.0693
10070SOL    HW141935  13.378   4.565  11.648 -0.6395 -1.1995 -3.5318
10070SOL    HW241936  13.384   4.708  11.598 -0.1446 -0.1138 -0.5627
10071SOL     OW41937  11.909   6.550   7.329  0.2399  0.5248  0.1407
10071SOL    HW141938  11.964   6.586   7.398 -0.5380  0.5617  0.7557
10071SOL    HW241939  11.889   6.625   7.273  0.9038  0.4866 -0.1614
10072SOL     OW41940  11.713   6.441   0.169  0.2970 -0.0142  0.0559
10072SOL    HW141941  11.697   6.529   0.135 -1.5862 -0.9535 -1.7137
10072SOL    HW241942  11.626   6.408   0.192  1.1678 -0.6835  2.7929
10073SOL     OW41943   9.423   0.656   8.705  0.0672 -0.2368  0.0094
10073SOL    HW141944   9.397   0.575   8.748 -0.6560  0.2865  0.5807
10073SOL    HW241945   9.468   0.707   8.773 -1.2032  0.6516  0.2079
10074SOL     OW41946   0.584   3.222   2.767  0.4737 -0.2804 -0.0563
10074SOL    HW141947   0.535   3.293   2.726 -0.0524 -1.0737 -0.8406
10074SOL    HW241948   0.558   3.144   2.719  0.9705 -1.0263  0.8496
10075SOL     OW41949   3.424  11.443   8.954  0.0689  0.4638 -0.2491
10075SOL    HW141950   3.406  11.417   8.864 -2.3914 -0.5944  0.4561
10075SOL    HW241951   3.471  11.369   8.992  1.1313  0.9217 -0.6181
10076SOL     OW41952   9.268   7.931   6.962  0.2685  0.0577  0.0327
10076SOL    HW141953   9.202   7.972   6.905  0.1201 -0.1015  0.0893
10076SOL    HW241954   9.218   7.873   7.019  0.3964  0.3548  0.4551
10077SOL     OW41955   3.064   9.797   4.540  0.6017  0.0291  0.2546
10077SOL    HW141956   3.060   9.702   4.532  0.2815 -0.0718  1.3639
10077SOL    HW241957   3.118   9.826   4.467  2.2567 -1.1810  0.9336
10078SOL     OW41958   4.862   8.731   4.841  0.5728  0.0558  0.2499
10078SOL    HW141959   4.790   8.684   4.882 -0.3557  1.3690  0.1719
10078SOL    HW241960   4.878   8.807   4.897  0.7036  0.7302 -0.6733
10079SOL     OW41961   3.046   9.229   5.388 -0.1505 -0.2519 -0.3161
10079SOL    HW141962   3.025   9.168   5.318  0.8287  0.1127 -0.9442
10079SOL    HW241963   2.983   9.300   5.378  1.3960  0.9525 -2.3303
10080SOL     OW41964  13.126   7.239   8.924  0.7327  0.1039 -0.2136
10080SOL    HW141965  13.151   7.328   8.951 -0.1874  0.6515 -1.1032
10080SOL    HW241966  13.129   7.241   8.829  0.2454 -0.6795 -0.2544
10081SOL     OW41967  12.713  11.878   6.185 -0.2021 -0.3473 -0.3837
10081SOL    HW141968  12.630  11.879   6.232  0.7853 -0.5238  1.4231
10081SOL    HW241969  12.751  11.793   6.205  1.3649  0.5458  0.5836
10082SOL     OW41970   9.303   8.833   5.117  0.2233  0.6083  0.4081
10082SOL    HW141971   9.390   8.820   5.156  0.3276 -1.7461 -0.4315
10082SOL    HW241972   9.246   8.846   5.193  0.5501 -3.0559  1.5060
10083SOL     OW41973  13.577  10.195   9.726  0.4637 -0.0711  0.7365
10083SOL    HW141974  13.522  10.188   9.805  0.7162 -0.5627  0.8741
10083SOL    HW241975  13.540  10.269   9.677 -1.2321 -1.2885  0.1065
10084SOL     OW41976  10.528   6.792   2.315 -0.2002  0.2634  0.1962
10084SOL    HW141977  10.578   6.803   2.234  0.8548  1.7358  1.0241
10084SOL    HW241978  10.543   6.872   2.364 -2.5346  0.3071  0.9592
10085SOL     OW41979   8.133   1.240   5.720  0.0012 -0.0862  0.2854
10085SOL    HW141980   8.044   1.209   5.739 -0.3355  0.7787  0.1782
10085SOL    HW241981   8.129   1.273   5.630  1.1279 -2.4830 -0.7343
10086SOL     OW41982   7.624  11.224   7.761  0.5969 -0.6002 -0.6533
10086SOL    HW141983   7.539  11.268   7.754  1.6839  1.5322 -1.2834
10086SOL    HW241984   7.603  11.138   7.798 -1.7845 -0.0335 -0.4964
10087SOL     OW41985  11.728  12.235   5.162  0.2967 -0.0486 -0.1909
10087SOL    HW141986  11.695  12.313   5.206 -0.7355 -0.8719  0.5516
10087SOL    HW241987  11.663  12.217   5.094  1.6683  0.9829 -1.8830
10088SOL     OW41988  13.173   3.234  11.912  0.1461  0.2520  0.6010
10088SOL    HW141989  13.138   3.193  11.991 -0.6391  0.8056  0.5524
10088SOL    HW241990  13.136   3.322  11.912  1.3783  0.7922  0.4268
10089SOL     OW41991   6.604  12.577   0.681 -0.1730 -0.2527 -0.1844
10089SOL    HW141992   6.624  12.622   0.763  0.5279 -0.1071 -0.4312
10089SOL    HW241993   6.609  12.645   0.614 -0.6335 -0.3947 -0.3693
10090SOL     OW41994   6.899   8.923   4.222 -0.2664 -0.2805  0.3704
10090SOL    HW141995   6.953   8.935   4.144 -0.3868 -1.6237  0.0640
10090SOL    HW241996   6.962   8.915   4.294 -0.1681  1.6927  0.5588
10091SOL     OW41997  10.395  10.988   2.842 -0.6783 -0.0283  0.2338
10091SOL    HW141998  10.381  11.076   2.879  1.4338  0.8829 -0.9485
10091SOL    HW241999  10.489  10.983   2.828 -0.7798 -2.4200 -0.0025
10092SOL     OW42000   3.149   8.415   3.191 -0.1554  0.1085  0.3619
10092SOL    HW142001   3.186   8.470   3.122  0.7888 -0.1883  0.6202
10092SOL    HW242002   3.201   8.435   3.268 -1.6124  0.9178  1.1768
10093SOL     OW42003   3.503   2.519  11.236 -0.0864 -0.2269  0.1272
10093SOL    HW142004   3.515   2.608  11.269 -1.7625 -0.4705  1.5118
10093SOL    HW242005   3.540   2.463  11.304  1.6040 -0.6506 -1.0410
10094SOL     OW42006   5.086   0.665  12.010 -0.1517 -0.3839 -0.2087
10094SOL    HW142007   5.145   0.739  11.999 -1.6353  0.6973 -1.2110
10094SOL    HW242008   5.041   0.682  12.093 -0.0607 -0.4921 -0.1360
10095SOL     OW42009   4.023   9.492  12.858 -0.1345 -0.5090 -0.1283
10095SOL    HW142010   4.017   9.551  12.932 -0.8815 -1.1953  0.3745
10095SOL    HW242011   3.946   9.435  12.866  0.3902 -1.3343 -0.7789
10096SOL     OW42012   6.064   3.741  12.857 -0.1571  0.0322  0.2519
10096SOL    HW142013   6.089   3.782  12.774  1.2863 -1.2647  0.0085
10096SOL    HW242014   5.988   3.791  12.886 -0.8200  0.4217 -1.9433
10097SOL     OW42015   5.381  11.229   1.892 -0.2597 -0.7812 -0.3076
10097SOL    HW142016   5.304  11.197   1.940 -2.5582  0.4437 -2.8488
10097SOL    HW242017   5.390  11.320   1.921  2.2833 -1.6795  2.1989
10098SOL     OW42018   3.966   0.505   3.474  0.1262 -0.1105 -0.2064
10098SOL    HW142019   3.957   0.593   3.512  1.1407 -0.6510  1.3547
10098SOL    HW242020   3.876   0.479   3.455 -0.5436 -0.0201  2.4114
10099SOL     OW42021  11.177   2.740   5.770 -0.2069 -0.7862 -0.2714
10099SOL    HW142022  11.111   2.767   5.834 -1.4775 -1.2263 -1.3568
10099SOL    HW242023  11.251   2.710   5.823  0.0750  1.8610  0.9956
10100SOL     OW42024   6.236   5.860  10.787 -0.0950  0.1377 -0.2901
10100SOL    HW142025   6.169   5.809  10.742  1.3156 -0.4131 -1.8480
10100SOL    HW242026   6.187   5.927  10.835 -1.8398 -1.3543  0.1034
10101SOL     OW42027   7.272   7.125  13.326 -0.2375  0.2530 -0.0012
10101SOL    HW142028   7.287   7.199  13.268 -0.2481 -0.3140 -0.7485
10101SOL    HW242029   7.213   7.158  13.393  0.7149  1.2581  0.3857
10102SOL     OW42030   6.416  10.074   8.243 -0.0466  0.3604  0.4826
10102SOL    HW142031   6.356  10.086   8.170  0.2951  1.6320  0.3921
10102SOL    HW242032   6.496  10.039   8.204 -0.1794  0.1614  0.3877
10103SOL     OW42033   1.484  12.328   8.955 -0.5168  0.3772  0.1744
10103SOL    HW142034   1.463  12.396   8.891  1.2487  0.2358 -0.6249
10103SOL    HW242035   1.462  12.246   8.911 -2.0264  0.3710  0.8880
10104SOL     OW42036  10.796   2.538   3.527 -0.3453  0.3680 -0.0262
10104SOL    HW142037  10.851   2.562   3.452  0.4487  0.7924  0.6723
10104SOL    HW242038  10.833   2.587   3.600 -1.5547  0.5131  0.5031
10105SOL     OW42039   5.591   2.984   8.482 -0.6376 -0.0953 -0.1608
10105SOL    HW142040   5.685   3.001   8.484 -0.3290 -1.6072  1.3646
10105SOL    HW242041   5.583   2.893   8.512 -2.5764 -0.0794 -0.5010
10106SOL     OW42042  12.973   1.971  11.657  0.2397 -0.1495 -0.0727
10106SOL    HW142043  12.880   1.959  11.678  0.3634 -0.0685  0.5143
10106SOL    HW242044  12.974   2.048  11.599 -0.2834 -1.3862 -1.8316
10107SOL     OW42045   0.507   6.548   3.899  0.8686 -0.0177 -0.2312
10107SOL    HW142046   0.422   6.585   3.874 -0.2210 -1.9390  0.4217
10107SOL    HW242047   0.492   6.510   3.986  2.4747 -0.1597  0.0115
10108SOL     OW42048   8.457   0.643  11.807  0.0391 -0.0245 -0.4028
10108SOL    HW142049   8.384   0.683  11.761 -0.4937 -0.9931 -0.4272
10108SOL    HW242050   8.424   0.628  11.896  0.5444  0.4237 -0.1299
10109SOL     OW42051   3.316  10.440   2.548  0.2757  0.0725  0.8386
10109SOL    HW142052   3.390  10.413   2.493  0.0965 -0.0757  0.6704
10109SOL    HW242053   3.354  10.454   2.634  0.7397  1.2040  0.4691
10110SOL     OW42054  13.339   4.824   9.527 -0.4162 -0.4510  0.2886
10110SOL    HW142055  13.345   4.905   9.476  0.6040 -1.4668 -1.2572
10110SOL    HW242056  13.374   4.849   9.613 -1.8845  1.1966  0.4834
10111SOL     OW42057   0.911   7.913   0.804  0.1867 -0.1355 -0.2977
10111SOL    HW142058   0.951   7.871   0.880  0.2720  0.9559  0.2924
10111SOL    HW242059   0.817   7.908   0.820  0.1631 -0.7731 -0.6119
10112SOL     OW42060   7.155   5.989  11.576  0.2334  0.3218  0.0085
10112SOL    HW142061   7.077   5.979  11.630  0.3847 -0.8185  0.0246
10112SOL    HW242062   7.175   6.083  11.581 -0.3739  0.4071  1.0571
10113SOL     OW42063  11.127   6.966   9.216  0.4852  0.0140  0.0791
10113SOL    HW142064  11.211   7.002   9.241  0.8184  0.0337 -1.0206
10113SOL    HW242065  11.063   7.026   9.254  0.9893  0.6670 -0.0922
10114SOL     OW42066  11.090  12.272  11.531 -0.3428 -0.3955 -0.2420
10114SOL    HW142067  11.063  12.237  11.446 -0.4654 -1.7240  0.3301
10114SOL    HW242068  11.068  12.365  11.526 -1.8414 -0.7645 -1.0660
10115SOL     OW42069  13.367   9.079   1.914  0.2216  0.4923  0.3497
10115SOL    HW142070  13.357   8.987   1.935  0.5342  0.2550 -0.5143
10115SOL    HW242071  13.398   9.080   1.823  1.3779  1.4021  0.7404
10116SOL     OW42072   6.345   8.005  11.812  0.0738  0.7373  0.0702
10116SOL    HW142073   6.404   7.989  11.886  0.8584  0.4449 -0.5950
10116SOL    HW242074   6.395   7.976  11.735 -0.8220  0.7928 -0.5487
10117SOL     OW42075   2.440   0.195   2.820 -0.2852 -0.3747  0.4580
10117SOL    HW142076   2.419   0.144   2.898  0.4716 -1.3365  0.0548
10117SOL    HW242077   2.516   0.151   2.782  0.2184  0.8915 -0.0732
10118SOL     OW42078   3.502   6.621  11.843  0.6721 -0.7323  0.0786
10118SOL    HW142079   3.442   6.666  11.902  2.4227  0.3961  1.0572
10118SOL    HW242080   3.492   6.528  11.865  0.2431 -0.4488  1.1333
10119SOL     OW42081   1.682   7.996  11.864  0.3317 -0.1864 -0.7883
10119SOL    HW142082   1.690   8.065  11.930  1.0334 -0.0834 -0.9674
10119SOL    HW242083   1.730   7.922  11.900 -1.0569 -0.8580 -0.2601
10120SOL     OW42084  11.246   0.545  10.603  0.2604 -0.0312 -0.0554
10120SOL    HW142085  11.162   0.579  10.635  0.7618  0.5098  0.7428
10120SOL    HW242086  11.293   0.519  10.683  1.9499  2.2631 -0.1871
10121SOL     OW42087   9.399   8.009  10.256 -0.2371  0.2499 -0.4433
10121SOL    HW142088   9.308   8.037  10.250  0.0842  1.2308 -0.8424
10121SOL    HW242089   9.436   8.029  10.170  0.1641 -0.8735 -0.5543
10122SOL     OW42090  11.246   9.183  12.562  0.2111  0.2421 -0.3528
10122SOL    HW142091  11.313   9.215  12.502  0.6779 -1.3227 -0.7182
10122SOL    HW242092  11.282   9.102  12.597 -1.0419 -0.0701  0.2824
10123SOL     OW42093   3.908   6.691   9.493 -0.2784  0.0520  0.5632
10123SOL    HW142094   3.952   6.606   9.496  2.7559  1.2381 -2.8845
10123SOL    HW242095   3.955   6.746   9.555 -2.2903 -0.6355  2.8514
10124SOL     OW42096  13.490   6.889   8.784  0.0549  0.3601  0.0164
10124SOL    HW142097  13.429   6.892   8.711 -0.2621  0.0075  0.2624
10124SOL    HW242098  13.435   6.891   8.862  0.3531  0.0301  0.2414
10125SOL     OW42099  12.630   2.024  11.062  0.0608  0.1825 -0.2825
10125SOL    HW142100  12.714   1.996  11.026  1.0243  1.6955  0.6827
10125SOL    HW242101  12.581   2.055  10.985  0.8049  0.2758 -0.7346
10126SOL     OW42102   0.933   4.187  13.282 -0.2671 -0.2045 -0.0184
10126SOL    HW142103   0.960   4.263  13.333  0.9829 -0.1682 -0.6889
10126SOL    HW242104   0.959   4.208  13.192 -0.3618 -1.2044 -0.2950
10127SOL     OW42105   4.948   1.998  10.130  0.5336 -0.0711  0.2775
10127SOL    HW142106   4.874   2.002  10.191  1.3035 -0.4443  1.2596
10127SOL    HW242107   4.930   2.066  10.066  0.1245  0.9281  1.4128
10128SOL     OW42108   8.774   3.598   4.679  0.6454 -0.3107 -0.0829
10128SOL    HW142109   8.734   3.683   4.695 -1.9622 -1.5557  0.5974
10128SOL    HW242110   8.865   3.608   4.705 -0.4411  1.2403  3.7928
10129SOL     OW42111   2.210   6.736   4.119  0.7129  0.2093 -0.1467
10129SOL    HW142112   2.132   6.781   4.151  1.0316  0.7047 -0.0716
10129SOL    HW242113   2.222   6.768   4.030  1.2688  0.7010  0.1046
10130SOL     OW42114   0.078   4.854   3.815  0.8786  0.3180 -0.1863
10130SOL    HW142115   0.014   4.920   3.789  0.1006  0.4368  1.8099
10130SOL    HW242116   0.035   4.807   3.887  1.9759 -1.4293 -0.6301
10131SOL     OW42117  10.862  12.025   0.882 -0.8168 -0.1685 -0.9921
10131SOL    HW142118  10.941  11.997   0.927 -2.0757 -0.0995  1.4318
10131SOL    HW242119  10.884  12.110   0.844  0.3083 -0.2546 -0.5495
10132SOL     OW42120   3.022   6.933   9.410 -0.3842  0.1910 -0.3834
10132SOL    HW142121   3.105   6.963   9.371 -0.6852  1.1635 -0.3017
10132SOL    HW242122   2.985   6.875   9.344  0.1156  0.1651 -0.6528
10133SOL     OW42123  13.590  13.740   3.464 -0.2422 -0.3084 -0.6925
10133SOL    HW142124  13.664  13.680   3.477  0.7627  0.2343 -3.2772
10133SOL    HW242125  13.630  13.820   3.429 -1.7596  1.2383  0.9396
10134SOL     OW42126  10.657  12.419  10.594  0.0765  0.3721 -0.2284
10134SOL    HW142127  10.566  12.405  10.622  0.1157  0.2257 -0.1742
10134SOL    HW242128  10.662  12.514  10.577 -0.4856  0.1829 -1.6222
10135SOL     OW42129   9.292  12.496  12.492 -0.6817  0.1288  0.2097
10135SOL    HW142130   9.295  12.549  12.572 -1.9811 -0.1917  0.4820
10135SOL    HW242131   9.379  12.457  12.487 -0.0124  1.4899  0.5395
10136SOL     OW42132  12.788   2.798   3.219 -0.3789 -0.2478  0.2087
10136SOL    HW142133  12.726   2.853   3.266  0.5713  0.9343  0.1272
10136SOL    HW242134  12.739   2.766   3.143 -1.6841 -1.5448  1.5255
10137SOL     OW42135   4.748   1.112   6.821  0.3427  0.3711  0.1553
10137SOL    HW142136   4.660   1.076   6.815  1.1286 -2.0016  1.3473
10137SOL    HW242137   4.753   1.147   6.910  0.6926  0.2482  0.1843
10138SOL     OW42138  10.515   9.526   2.559 -0.3259  0.9012  0.5518
10138SOL    HW142139  10.599   9.486   2.536  0.2340  1.3984  1.6412
10138SOL    HW242140  10.517   9.532   2.655 -1.0830  2.0054  0.5180
10139SOL     OW42141  12.418   0.564   5.332 -0.3733  0.4565 -0.3561
10139SOL    HW142142  12.490   0.586   5.273  0.6767 -1.5332  0.0648
10139SOL    HW242143  12.394   0.475   5.307 -0.4471 -0.1311  1.6568
10140SOL     OW42144  11.785   3.146   9.705  0.0788 -0.2421  0.0654
10140SOL    HW142145  11.811   3.054   9.711  0.4599 -0.1218  0.3522
10140SOL    HW242146  11.854   3.193   9.752  0.1492  0.2403 -0.5132
10141SOL     OW42147   3.699   0.927   4.507 -0.1498  0.4354 -0.1401
10141SOL    HW142148   3.735   0.957   4.423  1.2028  3.2576  1.2910
10141SOL    HW242149   3.715   0.833   4.508  2.8444  0.8128 -1.6772
10142SOL     OW42150  11.676  12.568  13.147  0.9188  0.4615 -0.9659
10142SOL    HW142151  11.749  12.519  13.186 -2.4169 -2.6881  2.1697
10142SOL    HW242152  11.664  12.530  13.061  1.2345 -1.1025 -0.3483
10143SOL     OW42153   8.738   9.217   4.957  0.0367  0.2650  0.4281
10143SOL    HW142154   8.763   9.125   4.959  2.8553  0.7350 -2.9317
10143SOL    HW242155   8.797   9.259   5.020 -0.7041 -0.0941  1.3769
10144SOL     OW42156   8.273   2.846   8.158  0.2519 -0.0871  0.6588
10144SOL    HW142157   8.256   2.798   8.239  0.3096 -0.5193  0.4207
10144SOL    HW242158   8.345   2.799   8.118  0.2120  0.1153  0.3481
10145SOL     OW42159   1.561   7.762   6.606  0.1916 -0.1387  0.0764
10145SOL    HW142160   1.583   7.700   6.536 -0.5505 -0.9446  0.5369
10145SOL    HW242161   1.639   7.764   6.661  0.6803  0.2905 -0.6191
10146SOL     OW42162   9.076   2.086   5.602 -0.2795  0.4654 -0.6501
10146SOL    HW142163   9.121   2.076   5.686 -2.4185 -0.2059  0.4893
10146SOL    HW242164   9.145   2.072   5.537  1.0495 -1.1137  0.9690
10147SOL     OW42165   2.388  13.118  10.940 -0.1185  0.1983 -0.1366
10147SOL    HW142166   2.466  13.067  10.959 -0.1586  0.2750  0.2492
10147SOL    HW242167   2.398  13.145  10.849  0.2285  0.0740 -0.1360
10148SOL     OW42168   5.570   5.220   7.475  0.1611  0.1617 -0.2956
10148SOL    HW142169   5.641   5.157   7.488  0.5881  1.1502  3.1950
10148SOL    HW242170   5.614   5.305   7.466 -0.5025  0.5421 -0.0623
10149SOL     OW42171   2.975  10.465  13.610  0.1846  0.0412 -0.1161
10149SOL    HW142172   2.918  10.539  13.592 -0.0567 -0.7164 -3.0104
10149SOL    HW242173   2.919  10.388  13.599  0.7631 -0.6237  1.4060
10150SOL     OW42174  11.647   7.500   2.396 -0.0481 -0.1734  0.3100
10150SOL    HW142175  11.738   7.472   2.386  0.0241  0.2288 -0.2093
10150SOL    HW242176  11.652   7.577   2.453  0.0978  0.7048 -0.8509
10151SOL     OW42177  12.461  13.613   5.454  0.3174  0.4480 -0.7212
10151SOL    HW142178  12.383  13.658   5.423  0.9858  0.6170 -2.2293
10151SOL    HW242179  12.527  13.628   5.386  1.4652 -0.2641  0.1864
10152SOL     OW42180  13.384   6.806  10.778 -0.2107  0.2943  0.3829
10152SOL    HW142181  13.380   6.757  10.860  0.1004  0.6897  0.6354
10152SOL    HW242182  13.294   6.805  10.744  0.0283 -1.7122 -0.3618
10153SOL     OW42183  10.206   7.527   1.992  0.0148 -0.2169 -0.0152
10153SOL    HW142184  10.284   7.541   2.046 -1.3209 -1.1163  2.2812
10153SOL    HW242185  10.204   7.432   1.977  0.8465  0.0816 -2.5527
10154SOL     OW42186   4.975   4.163  13.472  0.4099  0.1885  0.2144
10154SOL    HW142187   4.977   4.195  13.562 -2.2880 -0.1090  0.4760
10154SOL    HW242188   5.010   4.074  13.478 -2.7484 -1.1110  1.7163
10155SOL     OW42189   6.061   3.384   8.287  0.2315 -0.8562  0.2954
10155SOL    HW142190   6.029   3.294   8.281 -1.0620 -0.3463 -0.8751
10155SOL    HW242191   5.982   3.437   8.296  0.7736  0.3536 -1.5328
10156SOL     OW42192   4.186   4.312   8.612 -0.4860 -0.4605 -0.3668
10156SOL    HW142193   4.278   4.287   8.603  0.3915  2.0711  0.4741
10156SOL    HW242194   4.163   4.349   8.527  0.3089  1.6336  0.2415
10157SOL     OW42195  11.218   9.991   2.065  0.0028  0.4611  0.0186
10157SOL    HW142196  11.174  10.075   2.054  0.2973  0.4788 -1.1975
10157SOL    HW242197  11.171   9.932   2.006  1.4510  0.4313 -1.1527
10158SOL     OW42198   0.408   1.163   4.249 -0.1507 -0.0831  0.0704
10158SOL    HW142199   0.467   1.096   4.284 -0.9766 -0.6611  0.3864
10158SOL    HW242200   0.380   1.128   4.164 -0.4010 -0.0377  0.1333
10159SOL     OW42201   9.912   9.692  11.346  0.1070 -0.6364  0.1829
10159SOL    HW142202   9.978   9.628  11.373  1.9695  0.2497 -1.8855
10159SOL    HW242203   9.938   9.717  11.257 -1.7372  1.4634  0.1327
10160SOL     OW42204   6.978   4.704  11.894  0.0483  0.1200  0.1160
10160SOL    HW142205   6.911   4.740  11.836 -0.5552 -0.1655  0.6309
10160SOL    HW242206   6.933   4.688  11.977  0.2833 -1.8602 -0.0962
10161SOL     OW42207   0.351   4.171  10.568 -0.2872 -0.2690  0.1343
10161SOL    HW142208   0.259   4.189  10.590 -0.3672 -0.1790 -0.2627
10161SOL    HW242209   0.376   4.099  10.626 -1.0419 -1.2727 -0.7486
10162SOL     OW42210  11.470  11.017   7.276 -0.4530 -0.2998 -0.4915
10162SOL    HW142211  11.464  11.050   7.366  1.7854  1.4624 -0.9196
10162SOL    HW242212  11.402  11.065   7.229 -0.0196  0.5682 -0.2374
10163SOL     OW42213  12.684   6.513  12.528  0.5901  0.2098  0.0030
10163SOL    HW142214  12.677   6.484  12.619 -0.1542 -0.0528 -0.1290
10163SOL    HW242215  12.709   6.606  12.534  0.3627  0.2420  0.4776
10164SOL     OW42216   0.125   7.983   3.040  0.0826 -0.5182  0.0471
10164SOL    HW142217   0.082   7.899   3.055 -1.7147  0.3569  0.0242
10164SOL    HW242218   0.089   8.041   3.108 -1.1092  1.0269 -1.7983
10165SOL     OW42219   6.962  10.129  13.529  0.0673 -0.2471 -0.2235
10165SOL    HW142220   7.033  10.065  13.541 -1.2216 -1.7378 -0.1132
10165SOL    HW242221   6.916  10.098  13.451 -1.2732 -0.1579  0.4954
10166SOL     OW42222   5.067   3.892   8.694  0.0806  0.6110 -0.3163
10166SOL    HW142223   5.010   3.939   8.755 -1.3289 -2.0628  0.5585
10166SOL    HW242224   5.010   3.830   8.650  2.1730 -2.0018  0.3640
10167SOL     OW42225   0.950   4.945  12.239 -0.1141 -0.5986  0.5692
10167SOL    HW142226   0.855   4.955  12.229 -0.1098  1.0956  1.7765
10167SOL    HW242227   0.967   4.966  12.331  1.5534  0.2636  0.1101
10168SOL     OW42228   6.591   4.368   2.091 -0.0812  0.9736 -0.5708
10168SOL    HW142229   6.500   4.340   2.102 -0.1254  0.2778 -2.3918
10168SOL    HW242230   6.643   4.296   2.126 -0.2201  0.8751 -0.5671
10169SOL     OW42231   2.304  13.673   2.446  0.1835 -0.1020 -0.0941
10169SOL    HW142232   2.252  13.753   2.451  2.1023  1.4112 -2.3770
10169SOL    HW242233   2.240  13.603   2.438 -1.5323  1.2220  1.2234
10170SOL     OW42234  12.760   7.128   6.081  0.0835  0.2387 -0.1464
10170SOL    HW142235  12.810   7.077   6.144  0.0852 -1.8343 -1.7179
10170SOL    HW242236  12.682   7.156   6.128 -1.1554 -3.3370  0.2217
10171SOL     OW42237   1.531   9.478   8.810  0.0056 -0.2965 -0.6713
10171SOL    HW142238   1.506   9.386   8.805  2.1222 -0.9875  0.3240
10171SOL    HW242239   1.626   9.477   8.795 -0.0282  1.7983 -1.2546
10172SOL     OW42240  11.402   8.118  11.796 -0.8288  0.2977 -0.1252
10172SOL    HW142241  11.399   8.028  11.829 -1.1022  0.3598  0.0159
10172SOL    HW242242  11.313   8.136  11.767 -0.8581  0.6535  0.1888
10173SOL     OW42243   0.142   3.665   9.225  0.3439  0.0138  0.1404
10173SOL    HW142244   0.145   3.600   9.295 -3.3329 -0.3206  0.2003
10173SOL    HW242245   0.169   3.747   9.267 -0.5544 -0.4318  1.6630
10174SOL     OW42246  11.672   1.426   2.474 -0.3735  0.3983 -0.1744
10174SOL    HW142247  11.633   1.348   2.513 -0.1621  0.5643  0.3727
10174SOL    HW242248  11.682   1.487   2.546 -0.7592  1.0304 -0.6442
10175SOL     OW42249   1.292  12.549   4.502 -0.0911 -0.0054 -0.0723
10175SOL    HW142250   1.202  12.572   4.479 -0.8503 -1.0919  1.5822
10175SOL    HW242251   1.318  12.486   4.435  0.3878  2.0980 -1.9830
10176SOL     OW42252  10.179   3.023   3.957 -0.7622 -0.1225  0.2936
10176SOL    HW142253  10.238   3.022   4.031  1.8290 -1.2389 -1.6396
10176SOL    HW242254  10.130   2.941   3.964 -2.7344  1.1070  2.2627
10177SOL     OW42255   2.847   0.671   0.558  0.0123 -0.0796 -0.2017
10177SOL    HW142256   2.925   0.726   0.568  0.3638 -0.8349  1.7109
10177SOL    HW242257   2.779   0.716   0.607  0.7153 -1.9770  2.7747
10178SOL     OW42258   6.510   7.983   6.612  0.6417 -0.1233  0.3571
10178SOL    HW142259   6.529   8.017   6.699  0.2444 -0.4759  0.5845
10178SOL    HW242260   6.478   7.894   6.627 -1.0984  0.3963 -0.0166
10179SOL     OW42261   9.511   4.096   4.911 -0.4014 -0.3383  0.0291
10179SOL    HW142262   9.589   4.041   4.921  0.6345  0.8188 -1.3241
10179SOL    HW242263   9.526   4.144   4.829 -1.4288  1.6906  0.9756
10180SOL     OW42264   0.732   0.342   5.767  0.1428 -0.0840  0.4191
10180SOL    HW142265   0.788   0.412   5.800  0.6345 -1.0362  1.7001
10180SOL    HW242266   0.737   0.274   5.834 -2.6236 -0.1864  0.6453
10181SOL     OW42267   4.218   7.780   4.349 -0.3752 -0.1614  0.0830
10181SOL    HW142268   4.167   7.849   4.390  0.3461  0.2169  0.3530
10181SOL    HW242269   4.309   7.800   4.372 -0.2234 -1.7516  1.0169
10182SOL     OW42270  11.819   9.450   1.697  0.1925  0.2517 -0.3359
10182SOL    HW142271  11.878   9.376   1.688  0.9908  0.9910 -1.4100
10182SOL    HW242272  11.796   9.474   1.607 -0.9136  0.6443  0.0284
10183SOL     OW42273  12.012   8.720   9.515 -0.2379 -0.1447 -0.3477
10183SOL    HW142274  11.987   8.752   9.428 -0.6058 -0.0285 -0.2005
10183SOL    HW242275  12.003   8.796   9.572  1.7341  0.2658 -0.5167
10184SOL     OW42276  11.475   7.271  13.441 -0.2410 -0.1533  0.2598
10184SOL    HW142277  11.486   7.182  13.407 -0.8704 -1.1013  2.3636
10184SOL    HW242278  11.523   7.271  13.524 -0.2548  1.4715  0.2925
10185SOL     OW42279   2.731  10.918   0.126 -0.5457  0.4706 -0.6172
10185SOL    HW142280   2.676  10.841   0.121 -0.2822  0.2583 -0.2637
10185SOL    HW242281   2.680  10.987   0.082 -1.3843  0.4557  0.3043
10186SOL     OW42282  13.137  11.429   3.039  0.1297 -0.6306 -0.0651
10186SOL    HW142283  13.077  11.468   3.103  1.2628  2.3043 -0.6340
10186SOL    HW242284  13.209  11.394   3.092  0.4304  0.6232  0.4013
10187SOL     OW42285   4.647   6.939  11.081  0.2682  0.4336  0.7198
10187SOL    HW142286   4.582   6.984  11.028  1.8570  0.0437 -1.7543
10187SOL    HW242287   4.596   6.879  11.136 -1.5555  1.7412  0.5298
10188SOL     OW42288   5.363   0.396  12.464 -0.6731  0.9384  0.2762
10188SOL    HW142289   5.435   0.367  12.409 -2.2989 -1.0353 -0.9467
10188SOL    HW242290   5.363   0.492  12.456  2.1788  1.0656  0.9059
10189SOL     OW42291   0.867   1.752   9.460  0.1374  0.2794  0.0254
10189SOL    HW142292   0.917   1.687   9.411  0.5070  0.7290 -0.1944
10189SOL    HW242293   0.855   1.713   9.547 -1.3651 -0.9566 -0.6935
10190SOL     OW42294   6.430  13.156   9.320 -0.1896  0.1794  0.1415
10190SOL    HW142295   6.369  13.131   9.250  1.6904  0.1836 -1.5839
10190SOL    HW242296   6.433  13.251   9.315  0.4992  0.1398 -0.2847
10191SOL     OW42297  10.912   7.487   3.387 -0.2063  0.1140  0.4251
10191SOL    HW142298  10.821   7.456   3.389 -0.1262 -0.1372  0.1865
10191SOL    HW242299  10.964   7.411   3.413 -0.0661  0.2738  0.6153
10192SOL     OW42300  12.723   6.714   6.510  0.3346  0.0325  0.0438
10192SOL    HW142301  12.641   6.664   6.514  0.4974 -0.5646 -2.4650
10192SOL    HW242302  12.713   6.770   6.433  2.6323 -0.7517 -0.9059
10193SOL     OW42303  12.156   2.267   5.865 -0.0911 -0.2888 -0.3727
10193SOL    HW142304  12.087   2.322   5.901 -0.5973 -1.2873  0.2371
10193SOL    HW242305  12.233   2.288   5.918 -0.1204  0.2803 -0.5559
10194SOL     OW42306   7.835   6.305   5.647 -0.1118 -0.5522 -0.3669
10194SOL    HW142307   7.809   6.214   5.653  1.0713 -0.9010 -0.1639
10194SOL    HW242308   7.931   6.303   5.647  0.0368  0.8773  2.9221
10195SOL     OW42309   7.273  12.916   8.406 -0.3564 -0.5420  0.0183
10195SOL    HW142310   7.190  12.910   8.358 -1.1536 -0.9637  1.3877
10195SOL    HW242311   7.291  12.827   8.434 -0.1185 -0.2425  0.8352
10196SOL     OW42312   9.749   1.212   8.517 -0.1530  0.6571  0.5868
10196SOL    HW142313   9.716   1.241   8.432  1.0039 -0.3418 -0.2296
10196SOL    HW242314   9.717   1.278   8.578 -0.4831  1.7395 -0.7010
10197SOL     OW42315  11.249   0.913  13.238 -0.4701  0.2379 -0.2972
10197SOL    HW142316  11.339   0.882  13.233 -0.6611 -0.3439 -0.1919
10197SOL    HW242317  11.206   0.874  13.162 -0.6825  0.3557 -0.2392
10198SOL     OW42318   4.364  10.982   6.546 -0.1099  0.2179  0.1927
10198SOL    HW142319   4.382  10.888   6.551  2.0396  0.6077  0.8230
10198SOL    HW242320   4.278  10.988   6.504 -1.0032 -2.0689  1.4998
10199SOL     OW42321   2.869   2.111   6.018  0.0187 -0.2198 -0.0561
10199SOL    HW142322   2.910   2.066   5.945 -0.0580  0.7636 -0.7251
10199SOL    HW242323   2.921   2.191   6.029  1.2743 -1.2502  2.2672
10200SOL     OW42324   9.736   2.751   8.434 -0.0710 -0.0648 -0.1990
10200SOL    HW142325   9.729   2.843   8.408 -1.9521 -0.8716 -3.0332
10200SOL    HW242326   9.805   2.716   8.377 -1.6374 -1.0550 -1.5777
10201SOL     OW42327   8.990  11.502   3.883 -0.2275 -0.4328 -0.1342
10201SOL    HW142328   9.083  11.493   3.866  0.0448 -0.8942  1.5054
10201SOL    HW242329   8.958  11.559   3.812  1.4139  0.3051 -0.3207
10202SOL     OW42330   2.492   5.792   9.233  0.2811  0.8934 -0.3803
10202SOL    HW142331   2.443   5.714   9.258 -0.2595  0.8874 -1.3643
10202SOL    HW242332   2.559   5.802   9.300 -0.8206  0.6643  0.7961
10203SOL     OW42333   8.580   0.166   1.984  0.0252  0.6334  0.1671
10203SOL    HW142334   8.551   0.077   1.964  0.3029  0.0021  2.3326
10203SOL    HW242335   8.657   0.178   1.929 -0.2076 -0.3273 -0.4077
10204SOL     OW42336  10.256  11.993   8.639  0.6256  0.1766 -0.1286
10204SOL    HW142337  10.294  12.025   8.557  0.0827  1.5309  0.1303
10204SOL    HW242338  10.271  11.898   8.636  0.5636  0.1765 -1.8249
10205SOL     OW42339  12.415   3.810   6.605  0.2336 -0.1945  0.2153
10205SOL    HW142340  12.356   3.744   6.569  0.7978 -0.2618 -0.6122
10205SOL    HW242341  12.483   3.821   6.538  1.6444 -0.7427  1.4794
10206SOL     OW42342  13.380   5.579   2.662 -0.1243 -0.8208  0.0287
10206SOL    HW142343  13.291   5.587   2.697  0.5604 -0.7208  1.8752
10206SOL    HW242344  13.395   5.485   2.656  0.5048 -0.8984  2.1783
10207SOL     OW42345   8.692  13.151  11.435  0.0669 -0.1132 -0.1948
10207SOL    HW142346   8.613  13.109  11.402 -1.0963  3.0417 -1.8774
10207SOL    HW242347   8.659  13.214  11.500  0.9406  2.0923 -1.7722
10208SOL     OW42348   7.138   2.872   6.002 -0.2902  1.3515 -0.3145
10208SOL    HW142349   7.130   2.962   6.034 -3.1726  0.9055  0.4797
10208SOL    HW242350   7.054   2.853   5.961  0.5938 -0.6802 -1.3435
10209SOL     OW42351   1.735   7.564  10.905 -0.7372 -0.0001  0.3171
10209SOL    HW142352   1.762   7.649  10.939 -1.1165  0.6289 -0.9070
10209SOL    HW242353   1.639   7.568  10.902 -0.6989  0.6899 -2.4844
10210SOL     OW42354   5.561   3.257  13.450  0.0137  0.3195  0.0906
10210SOL    HW142355   5.562   3.345  13.487 -1.7065 -0.0403  1.0963
10210SOL    HW242356   5.496   3.262  13.379  0.0580 -0.0832  0.0190
10211SOL     OW42357   0.858   3.142   9.609  0.1881 -0.1933 -0.5743
10211SOL    HW142358   0.873   3.048   9.598 -0.0266 -0.0360 -2.6045
10211SOL    HW242359   0.767   3.155   9.582  0.1691  0.5751 -0.1586
10212SOL     OW42360   8.228   9.581   7.798  0.1279  0.0057 -0.1439
10212SOL    HW142361   8.281   9.575   7.877  0.5157  1.9291 -0.1939
10212SOL    HW242362   8.181   9.664   7.807 -1.7738 -0.9578 -0.7814
10213SOL     OW42363   6.200   1.105   4.074  0.1480 -0.1706  0.0569
10213SOL    HW142364   6.130   1.063   4.124 -0.7080  1.1514  0.0473
10213SOL    HW242365   6.201   1.059   3.990 -0.2450 -0.6592  0.3141
10214SOL     OW42366   2.660   1.411  13.270 -0.0434 -0.0992  0.0269
10214SOL    HW142367   2.721   1.486  13.271  3.5929 -2.7722  1.1821
10214SOL    HW242368   2.675   1.369  13.185  0.0912 -1.0530  0.5130
10215SOL     OW42369  10.856  12.191   8.117 -0.2411 -0.0861 -1.0559
10215SOL    HW142370  10.921  12.194   8.186 -0.3591  0.3124 -0.9588
10215SOL    HW242371  10.774  12.217   8.159 -0.9924 -2.8202 -0.6130
10216SOL     OW42372   8.851  11.177  12.935  0.2114 -0.1030 -0.2338
10216SOL    HW142373   8.817  11.231  12.864 -0.5272 -0.2792 -0.0155
10216SOL    HW242374   8.813  11.091  12.920 -1.3801  0.2713  1.3716
10217SOL     OW42375   6.214   1.645   6.228 -0.5566 -0.4525 -0.2167
10217SOL    HW142376   6.191   1.738   6.228 -1.6303 -0.7006  0.0541
10217SOL    HW242377   6.280   1.636   6.296  0.2311  0.2560 -0.8584
10218SOL     OW42378   4.216   3.040   0.327 -0.1773 -0.3421  0.7093
10218SOL    HW142379   4.150   3.072   0.266  0.5043  0.5548  0.4171
10218SOL    HW242380   4.255   2.964   0.283 -0.5446 -0.4601  0.5858
10219SOL     OW42381  12.718  10.990   8.799  0.5721 -0.1781 -0.2374
10219SOL    HW142382  12.753  10.902   8.808 -1.4818 -1.1397 -1.0573
10219SOL    HW242383  12.775  11.032   8.733  1.8425 -0.6898  0.4933
10220SOL     OW42384   3.543   8.846  13.427 -0.2248  0.0825 -0.6362
10220SOL    HW142385   3.495   8.776  13.470  1.7025 -0.1042  1.3953
10220SOL    HW242386   3.579   8.806  13.348 -0.6033 -0.7056 -0.4180
10221SOL     OW42387   8.292   9.722   5.981  0.1521  0.1372  0.5385
10221SOL    HW142388   8.339   9.682   5.908 -0.1022 -0.0564  0.4801
10221SOL    HW242389   8.341   9.802   6.000  0.2131  0.1913  0.1550
10222SOL     OW42390   9.583   9.912   2.092 -0.2419 -0.2307 -0.2556
10222SOL    HW142391   9.518   9.914   2.021 -1.4507  0.6591  0.8167
10222SOL    HW242392   9.579  10.000   2.129  0.2984 -0.7074  0.9735
10223SOL     OW42393   8.232   3.065   4.771  0.0945  0.3147  0.5737
10223SOL    HW142394   8.263   3.010   4.843 -1.2997  0.9861  1.7335
10223SOL    HW242395   8.219   3.004   4.698  3.2913 -0.1151  0.2324
10224SOL     OW42396   2.077   5.532   9.408  0.4804  0.0842  0.0759
10224SOL    HW142397   1.992   5.492   9.427  0.4581  0.4029  0.6518
10224SOL    HW242398   2.059   5.591   9.334 -0.2985  1.8256  1.5827
10225SOL     OW42399   7.590   9.392   7.224  0.3105  0.2936 -0.2035
10225SOL    HW142400   7.509   9.351   7.253  0.0976  0.5194 -0.4716
10225SOL    HW242401   7.660   9.339   7.263  0.0342  0.0925  0.0159
10226SOL     OW42402   2.233   2.495   9.725  0.5489  0.1338  0.3929
10226SOL    HW142403   2.173   2.422   9.743 -0.9590  0.8149 -1.6009
10226SOL    HW242404   2.199   2.567   9.777  0.5618  0.1134  0.4304
10227SOL     OW42405  12.993  12.349   5.141 -0.0308  0.5147  0.1668
10227SOL    HW142406  13.049  12.306   5.075  0.2852  0.1925  0.6420
10227SOL    HW242407  12.910  12.364   5.095  0.5445  1.3151 -0.6645
10228SOL     OW42408   4.207  13.172   6.277  0.0456 -0.3359 -0.2453
10228SOL    HW142409   4.189  13.088   6.318 -0.6353 -0.6584 -1.1677
10228SOL    HW242410   4.296  13.193   6.304 -0.6801 -0.0667  2.1388
10229SOL     OW42411  12.816   6.400  11.079  0.6051 -0.2785  0.0827
10229SOL    HW142412  12.889   6.406  11.017  1.5051  1.6920  1.2105
10229SOL    HW242413  12.750   6.459  11.043 -0.8047 -2.5408 -1.2726
10230SOL     OW42414  11.202   4.507   3.216  0.1331  0.1059  0.2470
10230SOL    HW142415  11.147   4.567   3.165 -1.7149 -1.1133  0.7338
10230SOL    HW242416  11.266   4.474   3.152 -2.2945 -1.6176 -1.4987
10231SOL     OW42417  13.076  12.013   5.951 -0.1266  0.1279  0.6350
10231SOL    HW142418  13.049  12.009   6.043 -1.3462 -0.3458  0.2681
10231SOL    HW242419  13.004  11.973   5.903  0.7724 -0.1909 -0.4855
10232SOL     OW42420   2.578   7.825  10.293 -0.4258  0.0698  0.4152
10232SOL    HW142421   2.633   7.760  10.250 -1.2333 -0.1327 -0.3440
10232SOL    HW242422   2.639   7.875  10.349  0.9193  1.1149 -1.8238
10233SOL     OW42423   4.589   2.563  12.396  0.8349  0.0354 -0.0637
10233SOL    HW142424   4.611   2.523  12.311  0.4135 -0.1981 -0.0632
10233SOL    HW242425   4.494   2.558  12.401  0.6964  1.8472 -0.4465
10234SOL     OW42426  11.575  13.349  10.146 -0.2494 -0.5703 -0.4969
10234SOL    HW142427  11.667  13.331  10.167  0.0960  2.2053  0.9211
10234SOL    HW242428  11.525  13.289  10.202  0.7360 -0.2242  0.7907
10235SOL     OW42429   0.592   4.585  11.724 -0.1365  0.7075  0.2538
10235SOL    HW142430   0.525   4.623  11.668 -1.1714 -0.6807  0.4788
10235SOL    HW242431   0.668   4.573  11.668 -0.7880  0.3726 -0.5725
10236SOL     OW42432  11.410   7.664  12.492  0.5609 -0.5795 -0.3483
10236SOL    HW142433  11.487   7.608  12.497  0.4777 -0.6730 -0.0395
10236SOL    HW242434  11.432   7.740  12.546 -0.2646 -1.4770  1.3340
10237SOL     OW42435   4.278   9.839  12.474 -0.0791  0.0339 -0.4047
10237SOL    HW142436   4.244   9.792  12.549  1.5329 -1.6560 -0.6733
10237SOL    HW242437   4.336   9.906  12.511 -0.0660 -0.1369 -0.1232
10238SOL     OW42438   0.472   5.870   8.899  0.2389  0.3485  0.7236
10238SOL    HW142439   0.433   5.830   8.977 -0.7278  2.3260  1.3173
10238SOL    HW242440   0.524   5.800   8.860 -0.9263 -1.3102  1.9835
10239SOL     OW42441  11.965   9.477   9.877 -0.0868  0.3911  0.5626
10239SOL    HW142442  12.058   9.501   9.870 -0.2472  0.7002 -0.7339
10239SOL    HW242443  11.918   9.551   9.838 -0.9036  0.3370  1.4130
10240SOL     OW42444  11.491   8.806  11.877  0.0841 -0.2713 -0.4536
10240SOL    HW142445  11.414   8.863  11.872  0.3392  0.0218 -1.1455
10240SOL    HW242446  11.497   8.767  11.789  0.0888 -1.1346 -0.0827
10241SOL     OW42447  12.002   2.585  11.998  0.2003 -0.9417 -0.2030
10241SOL    HW142448  12.061   2.513  12.018  1.5711  0.6046  1.7633
10241SOL    HW242449  12.004   2.592  11.903 -1.5279 -4.6411 -0.6621
10242SOL     OW42450   1.893  10.786  11.899 -0.2289  0.4311  0.1991
10242SOL    HW142451   1.945  10.804  11.977  0.4627  0.1486 -0.1848
10242SOL    HW242452   1.816  10.739  11.931  0.7296 -0.9412  0.5677
10243SOL     OW42453   4.948  11.395  11.328 -0.0659  0.3281 -0.0948
10243SOL    HW142454   4.937  11.393  11.423 -2.8821  1.0050 -0.3233
10243SOL    HW242455   4.928  11.305  11.300 -1.8400  0.7254 -0.2099
10244SOL     OW42456   8.095   0.547   1.446 -0.0081  0.1034 -0.0767
10244SOL    HW142457   8.137   0.465   1.470  0.4054  0.2924 -0.1456
10244SOL    HW242458   8.042   0.526   1.369  0.6361  0.0516 -0.5112
10245SOL     OW42459   8.912   7.356  13.716  0.2415 -0.2307 -0.5997
10245SOL    HW142460   8.982   7.323  13.658  0.1905 -0.9610 -0.2634
10245SOL    HW242461   8.851   7.282  13.723  0.4046 -0.2622  0.6331
10246SOL     OW42462   1.423   9.564   0.475  0.1606  0.3078  0.3312
10246SOL    HW142463   1.488   9.537   0.540 -0.8345 -0.9208  0.8405
10246SOL    HW242464   1.385   9.644   0.511  0.3683  0.2282  0.7300
10247SOL     OW42465  10.691   9.740   4.700  0.1898  0.2597 -0.2191
10247SOL    HW142466  10.631   9.760   4.772  0.9778  1.1605  0.2061
10247SOL    HW242467  10.692   9.819   4.646  1.0638  0.3078 -0.1594
10248SOL     OW42468   9.766   3.620   7.754 -0.0322 -0.0670  0.0555
10248SOL    HW142469   9.703   3.658   7.815  0.1579 -0.4894  0.5275
10248SOL    HW242470   9.776   3.685   7.685  1.8619  1.7059  1.8607
10249SOL     OW42471  12.591  13.159   2.059  0.0522 -0.3405 -0.1459
10249SOL    HW142472  12.565  13.247   2.088  0.8457 -0.4212  0.8530
10249SOL    HW242473  12.666  13.175   2.000 -1.5443 -0.1798 -2.2532
10250SOL     OW42474   2.765   2.037   4.881 -0.3942  0.0897  0.3074
10250SOL    HW142475   2.796   1.955   4.842  0.2462  0.8440 -0.8210
10250SOL    HW242476   2.841   2.070   4.930  0.2029  1.2402 -1.3142
10251SOL     OW42477   0.828   2.149  11.693  0.4690 -0.0307 -0.1449
10251SOL    HW142478   0.752   2.156  11.752 -1.4434 -1.6404 -2.2242
10251SOL    HW242479   0.901   2.124  11.750 -1.1610 -1.0687  1.6247
10252SOL     OW42480  12.536  13.648  12.990  0.2922  0.7077  0.1013
10252SOL    HW142481  12.609  13.705  13.013  1.4967 -0.5498 -0.4203
10252SOL    HW242482  12.506  13.612  13.073  1.2946  0.0713  0.2101
10253SOL     OW42483   6.383  13.348   4.293  0.3265 -0.4224  0.2637
10253SOL    HW142484   6.476  13.364   4.279  0.7154 -1.1920  1.7387
10253SOL    HW242485   6.361  13.399   4.371 -0.6194  0.1369 -0.3398
10254SOL     OW42486   2.449  13.395   7.156  0.0128  0.0975  0.3752
10254SOL    HW142487   2.508  13.461   7.120  0.6569  0.4781  2.0180
10254SOL    HW242488   2.374  13.445   7.189 -0.4201 -0.2078 -0.1360
10255SOL     OW42489  13.536   6.149  12.192  0.4658 -0.0797 -0.0157
10255SOL    HW142490  13.442   6.150  12.214  0.7188 -0.6321  1.2046
10255SOL    HW242491  13.538   6.145  12.097 -0.7444  1.1327 -0.1301
10256SOL     OW42492   1.959   6.982   8.476  0.4631 -0.2038 -0.0263
10256SOL    HW142493   1.978   7.033   8.555 -0.7951 -1.1556  0.9333
10256SOL    HW242494   1.912   7.043   8.419 -0.2910 -0.0376  0.7605
10257SOL     OW42495   2.985   9.133   9.135 -0.1004 -0.0940 -0.5194
10257SOL    HW142496   2.923   9.195   9.097 -0.8699 -0.6407 -0.1845
10257SOL    HW242497   3.059   9.187   9.165  0.1395  0.4304 -2.0053
10258SOL     OW42498  11.300   0.417   0.858  0.1603 -0.1431  0.0705
10258SOL    HW142499  11.261   0.462   0.933 -0.1408  1.0703 -0.7851
10258SOL    HW242500  11.348   0.344   0.896 -0.4552  0.1135  1.3958
10259SOL     OW42501   3.343   5.415   9.737  0.3142  0.1906  0.2633
10259SOL    HW142502   3.294   5.494   9.757  1.0185  0.5981  0.4255
10259SOL    HW242503   3.303   5.347   9.792  0.9751  0.8745  1.6647
10260SOL     OW42504   2.140   8.042  10.518  0.3386  0.0175  0.1827
10260SOL    HW142505   2.183   8.092  10.588  0.8080 -1.0621  0.6927
10260SOL    HW242506   2.196   8.056  10.442 -1.2283  2.8182 -0.5873
10261SOL     OW42507  11.410   1.353  13.497  0.7292 -0.2171  0.4166
10261SOL    HW142508  11.343   1.330  13.433  0.3210  1.3185  0.2653
10261SOL    HW242509  11.390   1.299  13.573  0.1065 -0.7006 -0.0755
10262SOL     OW42510   0.598   3.717   4.622  0.2226 -0.8621  0.3946
10262SOL    HW142511   0.560   3.717   4.709  0.4911  0.4006  0.5312
10262SOL    HW242512   0.537   3.768   4.569 -0.0235 -1.7528 -0.2180
10263SOL     OW42513  10.973   8.818   3.213 -0.3130  0.0725  0.4524
10263SOL    HW142514  10.992   8.792   3.123  0.1222 -1.2085  0.8812
10263SOL    HW242515  11.014   8.749   3.266 -0.1605  1.0614  1.6412
10264SOL     OW42516   7.198   1.688   4.933 -0.0804 -0.0304  0.3520
10264SOL    HW142517   7.110   1.697   4.971 -0.8384 -1.0109 -1.0548
10264SOL    HW242518   7.183   1.642   4.850  1.7473  0.0290 -0.0477
10265SOL     OW42519   2.144   8.309  12.484 -0.0442  0.4539 -0.1881
10265SOL    HW142520   2.205   8.292  12.555 -0.4890  0.2784  0.1582
10265SOL    HW242521   2.116   8.400  12.498 -0.5836  0.2339  0.2211
10266SOL     OW42522   3.962  12.570   5.224  0.1781  0.3795 -0.2151
10266SOL    HW142523   3.916  12.508   5.168  0.3452 -1.3087  1.4324
10266SOL    HW242524   4.054  12.543   5.220  0.0397 -0.5292  1.7211
10267SOL     OW42525  10.536   8.477   1.726 -0.5025  0.2055 -0.1166
10267SOL    HW142526  10.540   8.394   1.772 -1.5561 -0.8828 -1.8580
10267SOL    HW242527  10.612   8.526   1.757  0.4420 -1.6103  0.5662
10268SOL     OW42528  12.919  11.751  11.626  0.3741  0.5661  0.2168
10268SOL    HW142529  13.000  11.801  11.636  1.1711 -0.5269 -0.5434
10268SOL    HW242530  12.947  11.660  11.623 -0.9123  0.1555  0.1315
10269SOL     OW42531   8.380   1.219   5.519  0.3094 -0.3354 -0.2807
10269SOL    HW142532   8.463   1.180   5.547 -0.3701 -1.7720 -0.1601
10269SOL    HW242533   8.343   1.155   5.458 -0.3060  0.6956 -1.0147
10270SOL     OW42534   2.869   2.551   5.313  0.2625  0.0043 -0.4194
10270SOL    HW142535   2.961   2.553   5.338  0.3432 -0.5263 -0.6704
10270SOL    HW242536   2.865   2.496   5.235 -0.5621 -1.9150  0.8916
10271SOL     OW42537  10.000   7.877   4.432 -0.3664  0.2554 -0.5416
10271SOL    HW142538  10.060   7.869   4.357 -1.1844 -0.3429 -1.1545
10271SOL    HW242539   9.985   7.971   4.441  0.4659  0.3948 -0.5334
10272SOL     OW42540  12.601   0.781  10.926 -0.2543  0.3070 -0.1226
10272SOL    HW142541  12.572   0.845  10.990 -1.1441 -0.5004  0.3064
10272SOL    HW242542  12.553   0.804  10.846 -0.6443  0.1332  0.0563
10273SOL     OW42543   9.879   5.604   0.632 -0.1422  0.3969 -0.3543
10273SOL    HW142544   9.832   5.538   0.582  0.4506 -0.7995  0.5967
10273SOL    HW242545   9.812   5.650   0.681 -0.6143  0.8627 -1.4163
10274SOL     OW42546   1.065   2.633  12.568 -0.7045  0.5097  0.8300
10274SOL    HW142547   1.103   2.650  12.654  0.0022  0.2437  0.5749
10274SOL    HW242548   1.106   2.698  12.510 -0.6898  0.2626  0.5625
10275SOL     OW42549   3.230  11.390   1.148 -0.0699 -0.3278  0.1506
10275SOL    HW142550   3.268  11.477   1.159  0.1209 -0.5143  1.0485
10275SOL    HW242551   3.305  11.331   1.148 -0.1706 -0.4682 -0.8337
10276SOL     OW42552   4.114   4.435   6.267 -0.1696  0.1837 -0.2788
10276SOL    HW142553   4.041   4.390   6.310 -0.4673  1.3528  0.4683
10276SOL    HW242554   4.141   4.374   6.198 -1.6960 -0.3824 -0.4341
10277SOL     OW42555   4.607  11.173   4.538 -0.2365 -0.0328 -0.0098
10277SOL    HW142556   4.628  11.102   4.599  0.7320  0.8766  0.7591
10277SOL    HW242557   4.547  11.229   4.587  1.1221  1.0921  0.4028
10278SOL     OW42558   4.137  13.082   5.439 -0.5248  0.2002 -0.2275
10278SOL    HW142559   4.092  13.044   5.363 -0.9816 -2.4332  1.2269
10278SOL    HW242560   4.068  13.129   5.485 -0.0753  2.5130 -1.7611
10279SOL     OW42561   1.434   7.733   2.046  0.3339 -0.5132  0.4350
10279SOL    HW142562   1.498   7.720   1.976 -0.1174 -0.3426 -0.0070
10279SOL    HW242563   1.350   7.714   2.006 -0.2731  2.4912  0.0662
10280SOL     OW42564   6.098  11.486   0.046  0.1331  0.6081  0.5928
10280SOL    HW142565   6.043  11.553   0.088  1.0883  0.1273  2.6913
10280SOL    HW242566   6.061  11.403   0.075 -0.9549  0.1078 -1.8846
10281SOL     OW42567   7.669   8.640   6.231  0.4705  0.3926  0.0534
10281SOL    HW142568   7.710   8.679   6.154  2.0560 -1.0579  0.1121
10281SOL    HW242569   7.652   8.549   6.205  0.8091 -0.0459  1.3316
10282SOL     OW42570   2.414   7.671  13.110  0.3462 -0.0086 -0.2529
10282SOL    HW142571   2.477   7.733  13.073  1.7642 -0.2664  1.5782
10282SOL    HW242572   2.367   7.722  13.176  0.2753 -0.4212  0.0162
10283SOL     OW42573   4.443  12.517   6.296 -0.2894  0.1893 -0.7155
10283SOL    HW142574   4.347  12.512   6.298 -0.3875  1.8070 -0.3061
10283SOL    HW242575   4.462  12.567   6.217  0.1552  1.0178 -0.0909
10284SOL     OW42576  11.941   2.861   8.115 -0.1016  0.6122  0.1966
10284SOL    HW142577  12.022   2.863   8.064  0.4189 -0.4017  0.9405
10284SOL    HW242578  11.947   2.780   8.166 -2.4093 -0.4408 -1.0318
10285SOL     OW42579   2.883   5.265   4.368 -0.0714  0.1801  0.3657
10285SOL    HW142580   2.792   5.292   4.359 -0.5050 -0.9481  1.1069
10285SOL    HW242581   2.922   5.329   4.427 -0.9052 -0.3785  1.5763
10286SOL     OW42582  10.694  12.888   7.283 -0.0557 -0.0661 -0.0387
10286SOL    HW142583  10.726  12.960   7.338  1.3532 -0.2346 -0.5866
10286SOL    HW242584  10.651  12.828   7.344 -0.8511  1.0229  0.4858
10287SOL     OW42585  10.393   3.047   8.658 -0.0762  0.5361 -0.5682
10287SOL    HW142586  10.418   2.957   8.680 -0.2869  0.2945 -1.2919
10287SOL    HW242587  10.432   3.100   8.728 -3.4314 -0.4352  2.2961
10288SOL     OW42588   2.875   2.003   0.700  0.2375  0.3500 -0.2142
10288SOL    HW142589   2.894   1.972   0.611 -1.2195  1.6307 -1.0196
10288SOL    HW242590   2.961   2.018   0.739  0.9056 -0.7342 -1.2096
10289SOL     OW42591   7.682  11.611   3.845  0.3474  0.1530 -0.3103
10289SOL    HW142592   7.637  11.681   3.796 -0.7465  0.3471  0.9084
10289SOL    HW242593   7.771  11.644   3.858  0.6502  0.1182 -2.0836
10290SOL     OW42594   2.388   1.196  12.663  0.2871 -0.1663 -0.2447
10290SOL    HW142595   2.425   1.283  12.676 -0.7143  0.4423 -1.3892
10290SOL    HW242596   2.311   1.194  12.719  0.4406 -0.4176 -0.0359
10291SOL     OW42597   5.870   9.176  13.584 -0.4313 -0.3287  0.3461
10291SOL    HW142598   5.782   9.162  13.549 -1.4526  1.5882  1.8987
10291SOL    HW242599   5.855   9.209  13.673  1.8874 -0.2982  0.7863
10292SOL     OW42600   1.070  10.253  13.562 -0.8781 -0.0376 -0.4442
10292SOL    HW142601   0.979  10.280  13.567 -1.0784 -0.7652 -0.0357
10292SOL    HW242602   1.074  10.195  13.486 -0.8892 -0.4831 -0.1091
10293SOL     OW42603   0.568   1.395  13.413 -0.6041 -0.4495 -0.6337
10293SOL    HW142604   0.644   1.386  13.356 -0.8754  1.6393 -1.3909
10293SOL    HW242605   0.493   1.393  13.354 -0.9617  0.4564 -0.2299
10294SOL     OW42606   7.261   0.525   5.310 -0.1206 -0.0673 -0.1803
10294SOL    HW142607   7.271   0.538   5.216 -1.1632  0.4784 -0.2365
10294SOL    HW242608   7.232   0.611   5.343  0.4268 -0.1920  0.6728
10295SOL     OW42609   1.620  11.978   0.147 -0.1779 -0.0786 -0.2347
10295SOL    HW142610   1.697  12.029   0.170 -0.0143  0.0111 -0.9385
10295SOL    HW242611   1.574  11.963   0.230  0.5467 -0.0548  0.1755
10296SOL     OW42612  11.906   7.029  12.550  0.5266  0.3985  0.2834
10296SOL    HW142613  11.841   6.970  12.589  1.4037 -0.6945  0.1530
10296SOL    HW242614  11.901   7.011  12.456  0.2091  1.1575  0.1521
10297SOL     OW42615  10.510  10.262   7.852  0.5604 -0.1670 -0.2221
10297SOL    HW142616  10.441  10.317   7.889  0.7808  1.4730 -2.0993
10297SOL    HW242617  10.499  10.269   7.757  2.4587 -0.9686 -0.5561
10298SOL     OW42618  10.903   1.021   6.532 -0.0395 -0.2469  0.2192
10298SOL    HW142619  10.868   0.985   6.614  0.0156  1.0664  0.8534
10298SOL    HW242620  10.980   0.967   6.513 -0.7058 -1.2915  0.4021
10299SOL     OW42621   8.820   3.509   9.713  0.0983  0.8066  0.6105
10299SOL    HW142622   8.744   3.506   9.656 -0.1507  2.5593  0.7930
10299SOL    HW242623   8.883   3.564   9.666  1.4199 -0.8947  0.2949
10300SOL     OW42624   4.060   4.082   8.557 -0.0449 -0.0893 -0.4845
10300SOL    HW142625   3.972   4.100   8.524 -0.3555  0.4167  0.5839
10300SOL    HW242626   4.094   4.167   8.585  1.3494 -0.0413 -2.1356
10301SOL     OW42627   8.007   3.540  10.664  0.1522  0.0113 -0.0947
10301SOL    HW142628   8.075   3.594  10.623  0.2192  0.7005  0.8820
10301SOL    HW242629   8.043   3.451  10.663  1.1557  0.3910  0.5451
10302SOL     OW42630  11.276   7.955   7.716 -0.2922 -0.1561 -1.0231
10302SOL    HW142631  11.370   7.974   7.718 -0.6641  1.8721  1.0454
10302SOL    HW242632  11.271   7.860   7.705  2.0169 -0.4128 -0.3462
10303SOL     OW42633  10.187  10.010   7.872  0.0577  0.3212  0.5285
10303SOL    HW142634  10.145  10.012   7.958 -0.3573  0.0275  0.3393
10303SOL    HW242635  10.264   9.955   7.884 -0.5964 -0.6409  0.4625
10304SOL     OW42636   1.151   7.877   0.320  0.1626  0.4524 -0.0570
10304SOL    HW142637   1.142   7.808   0.255  0.1931 -0.1168  0.5268
10304SOL    HW242638   1.123   7.836   0.402  0.4195  1.0597  0.3422
10305SOL     OW42639   8.206  10.594  10.242  0.2872 -0.4357 -0.6214
10305SOL    HW142640   8.135  10.555  10.294  0.3887 -1.5042 -1.2549
10305SOL    HW242641   8.228  10.527  10.177  2.6388 -0.5866  0.2333
10306SOL     OW42642   2.684   4.570  13.596  0.2157  0.1882  0.5286
10306SOL    HW142643   2.759   4.586  13.653  1.6834  0.2368 -1.3250
10306SOL    HW242644   2.669   4.476  13.601 -0.2295  0.2980  1.6075
10307SOL     OW42645   8.898   1.097  10.873  0.6475  0.0385 -0.3065
10307SOL    HW142646   8.839   1.039  10.921  1.3074 -1.7385 -1.5134
10307SOL    HW242647   8.842   1.141  10.809  0.3544 -0.3214 -0.2958
10308SOL     OW42648   5.427  13.510   1.903  0.2134  0.0249 -0.2953
10308SOL    HW142649   5.415  13.605   1.900 -0.4256  0.0512  1.5749
10308SOL    HW242650   5.356  13.475   1.850  0.9416  0.5857 -1.6867
10309SOL     OW42651   2.754  10.605  12.584 -0.4055  0.1886 -0.0024
10309SOL    HW142652   2.788  10.556  12.659 -1.2053 -1.1828 -0.5009
10309SOL    HW242653   2.827  10.660  12.557  0.4617 -0.5573  0.7389
10310SOL     OW42654   8.146   9.906   4.833  0.4270  0.2149  0.1094
10310SOL    HW142655   8.184   9.832   4.786  1.8873 -1.0290  3.0233
10310SOL    HW242656   8.220   9.947   4.878 -0.8567  1.3536  1.2801
10311SOL     OW42657  12.897   8.871   6.778 -0.0784  0.0068 -0.0781
10311SOL    HW142658  12.976   8.843   6.825 -0.1553  0.4216  0.3043
10311SOL    HW242659  12.911   8.963   6.758 -1.4381  0.8041  2.1408
10312SOL     OW42660   6.089   5.477   9.722 -0.0572 -0.1981 -0.0298
10312SOL    HW142661   6.015   5.416   9.724 -0.3782  0.2046  1.1737
10312SOL    HW242662   6.081   5.521   9.637  0.2769 -1.9150 -0.9969
10313SOL     OW42663  12.828   6.387   5.742 -0.4210  0.1061 -0.1786
10313SOL    HW142664  12.812   6.458   5.803 -0.9199 -1.3373  1.4457
10313SOL    HW242665  12.740   6.360   5.713 -0.1791  1.0727 -1.9521
10314SOL     OW42666   8.444  11.128  10.161 -0.5319  0.0878  0.3472
10314SOL    HW142667   8.483  11.172  10.237 -0.8455 -0.5534  0.8925
10314SOL    HW242668   8.420  11.041  10.194 -2.6795  0.5483  0.1052
10315SOL     OW42669   3.437   7.447  10.586 -0.0599 -0.3156 -0.8255
10315SOL    HW142670   3.509   7.393  10.618  0.1061  0.4535  0.1895
10315SOL    HW242671   3.476   7.533  10.573 -0.8221  0.1868  0.0076
10316SOL     OW42672  13.720   1.983   6.102  0.3325  0.5815  0.1938
10316SOL    HW142673  13.643   1.962   6.049 -0.8346  0.9094  1.6994
10316SOL    HW242674  13.712   2.077   6.120  0.3136  0.3311  1.5373
10317SOL     OW42675   6.186  11.394   5.825 -0.2866  0.0982 -0.1286
10317SOL    HW142676   6.189  11.303   5.854 -0.5797 -0.4719 -1.7828
10317SOL    HW242677   6.095  11.419   5.835  0.0418  0.7335  1.7185
10318SOL     OW42678  10.008  11.382  12.658 -0.2803 -0.2354  0.3272
10318SOL    HW142679  10.023  11.476  12.663  2.6177 -0.6377  0.8114
10318SOL    HW242680   9.977  11.358  12.745 -1.8130  0.3325 -0.0295
10319SOL     OW42681   5.301  11.564   4.912  0.3820 -0.0242 -0.0329
10319SOL    HW142682   5.340  11.629   4.970  0.1602  0.0901 -0.0113
10319SOL    HW242683   5.323  11.595   4.824  1.0938 -0.4347 -0.0009
10320SOL     OW42684   0.253   6.676   3.610  0.9908 -0.0375  0.9157
10320SOL    HW142685   0.341   6.694   3.645  1.3723  1.6180 -0.7288
10320SOL    HW242686   0.234   6.751   3.554 -1.4084 -0.4785  1.0373
10321SOL     OW42687  12.496   1.058   3.096 -0.3705 -0.0279 -0.0506
10321SOL    HW142688  12.416   1.005   3.107  1.0823 -2.1808  0.8343
10321SOL    HW242689  12.562   1.011   3.147  1.1270  2.5292  0.5177
10322SOL     OW42690  11.044  10.375   6.548 -0.4184 -0.2090 -0.2053
10322SOL    HW142691  10.966  10.368   6.602  0.2616 -1.7634  0.6423
10322SOL    HW242692  11.082  10.287   6.550  1.6417  0.6307 -0.1476
10323SOL     OW42693   7.212   1.525  13.669  0.4361 -0.1332 -0.1772
10323SOL    HW142694   7.145   1.464  13.637 -0.0650  1.2283 -1.9218
10323SOL    HW242695   7.206   1.520  13.764 -1.0017 -1.2593 -0.2942
10324SOL     OW42696   4.662   1.653   8.984 -0.5010 -0.2959 -0.1028
10324SOL    HW142697   4.706   1.588   8.930  0.1072  0.3396 -0.3784
10324SOL    HW242698   4.606   1.701   8.922 -0.5763 -0.2303  0.0163
10325SOL     OW42699   6.291  13.104   9.957  0.4857 -0.1037 -0.1698
10325SOL    HW142700   6.315  13.047   9.884 -0.0640  0.0906 -0.5178
10325SOL    HW242701   6.371  13.151   9.979  0.3655  0.8204 -1.5545
10326SOL     OW42702   7.724  10.580   3.143 -0.1027 -0.4261  0.2875
10326SOL    HW142703   7.703  10.666   3.180 -0.9173  0.2150 -1.5621
10326SOL    HW242704   7.673  10.518   3.195 -0.8372  0.3932  0.5616
10327SOL     OW42705  11.378   9.343  13.378 -0.0869  0.0796 -0.7586
10327SOL    HW142706  11.465   9.343  13.338 -0.1910 -2.4735 -1.1487
10327SOL    HW242707  11.338   9.261  13.349 -0.8550 -1.1295  3.0853
10328SOL     OW42708   8.424  10.905  11.413 -0.2851  0.1919  0.2769
10328SOL    HW142709   8.508  10.938  11.381 -0.2751 -0.2133 -0.1208
10328SOL    HW242710   8.387  10.978  11.463 -0.0415  0.6360 -0.1878
10329SOL     OW42711  10.457  13.267  11.416 -0.1441 -0.3798  0.4888
10329SOL    HW142712  10.388  13.256  11.350  1.3429 -0.9171 -1.0656
10329SOL    HW242713  10.418  13.236  11.498 -1.7106 -0.7418 -0.3558
10330SOL     OW42714  12.867   6.660   9.815  0.3235  0.4335 -0.5733
10330SOL    HW142715  12.785   6.708   9.800  1.0312  1.8953  0.0442
10330SOL    HW242716  12.934   6.713   9.772  1.7038  2.1808  3.3222
10331SOL     OW42717   3.736   2.812  11.547 -0.2469  0.5834  0.4248
10331SOL    HW142718   3.726   2.862  11.628  0.6016 -1.1330  1.6606
10331SOL    HW242719   3.827   2.826  11.521  0.3416 -1.1809  1.4279
10332SOL     OW42720   0.641   8.977   5.193  0.1586  0.0247  0.1946
10332SOL    HW142721   0.646   8.965   5.288 -0.8703 -2.0804  0.0384
10332SOL    HW242722   0.650   9.072   5.181 -1.4089  0.5888  2.5419
10333SOL     OW42723  13.168   5.509  11.400  0.1344 -0.3516 -0.2144
10333SOL    HW142724  13.226   5.555  11.461 -0.4859  0.8010 -0.4566
10333SOL    HW242725  13.110   5.458  11.456 -1.4463  1.8870  0.3341
10334SOL     OW42726   6.507   9.896   3.678  0.5941  0.3137 -0.0464
10334SOL    HW142727   6.487   9.826   3.741 -0.7662  1.1490  0.4749
10334SOL    HW242728   6.454   9.875   3.601  1.1032  0.1270 -0.3525
10335SOL     OW42729   4.426   5.706  10.923 -0.7624 -0.0868 -0.0292
10335SOL    HW142730   4.361   5.741  10.984  0.1084  0.3625  0.6725
10335SOL    HW242731   4.476   5.782  10.894  0.4885 -0.5834  0.7195
10336SOL     OW42732   3.312   7.185  11.049 -0.4637 -0.0075  0.2390
10336SOL    HW142733   3.407   7.180  11.060 -0.6343  0.2686  2.1308
10336SOL    HW242734   3.277   7.167  11.136 -2.1963 -1.1093 -0.6346
10337SOL     OW42735   0.894   6.006   1.327  0.3308 -0.0703  0.6050
10337SOL    HW142736   0.872   6.099   1.331  2.1800  0.3893  1.3272
10337SOL    HW242737   0.936   5.995   1.241 -1.0072 -0.5287 -0.0032
10338SOL     OW42738   8.259   5.910  11.505  0.4115  0.2069 -0.1500
10338SOL    HW142739   8.283   5.937  11.593  0.5723 -0.9669  0.1785
10338SOL    HW242740   8.253   5.992  11.456 -1.2913  1.0239  1.3193
10339SOL     OW42741   0.724  12.661   8.328  0.4405  0.6246 -0.0891
10339SOL    HW142742   0.694  12.577   8.363 -0.9778  0.5050 -1.4448
10339SOL    HW242743   0.753  12.640   8.239  0.5038  1.4986 -0.2832
10340SOL     OW42744   8.249   1.216   9.141 -0.5015 -0.4654  0.3250
10340SOL    HW142745   8.270   1.251   9.228  0.3673 -0.7069  0.2176
10340SOL    HW242746   8.224   1.126   9.158 -2.2584  0.0178  0.5419
10341SOL     OW42747   9.715   5.000   2.028  0.2612 -0.0494  0.2768
10341SOL    HW142748   9.732   4.926   2.085 -0.8272 -0.3519  0.2295
10341SOL    HW242749   9.676   4.961   1.949  0.3884  0.5034 -0.0681
10342SOL     OW42750  11.997  11.762  13.083  0.2573  0.4777 -0.0407
10342SOL    HW142751  12.078  11.768  13.033  0.2637  0.4447 -0.0337
10342SOL    HW242752  11.930  11.799  13.026  0.4327  1.3453  0.2942
10343SOL     OW42753  10.612   7.113   9.891 -0.4162  0.2528 -0.0500
10343SOL    HW142754  10.700   7.147   9.909 -0.7473  1.2866 -0.3001
10343SOL    HW242755  10.605   7.035   9.946  1.1912 -0.6983 -1.1113
10344SOL     OW42756   8.265  12.141   4.801 -0.5188  0.9247 -0.1152
10344SOL    HW142757   8.225  12.178   4.879 -1.1920  1.1194 -0.5432
10344SOL    HW242758   8.351  12.108   4.830 -0.1240  2.3470  0.3779
10345SOL     OW42759  13.717   9.516   2.374 -0.3595 -0.9260 -0.0852
10345SOL    HW142760  13.747   9.472   2.453  1.3578 -1.2153 -0.8416
10345SOL    HW242761  13.670   9.593   2.405  0.0438 -1.1863  1.2211
10346SOL     OW42762   3.680  10.001   0.810 -0.3332  0.4784 -0.3136
10346SOL    HW142763   3.713  10.053   0.736 -0.3369 -1.8779 -2.0876
10346SOL    HW242764   3.646  10.066   0.871  0.9325  2.6235 -1.7298
10347SOL     OW42765   6.065   7.023  10.484 -0.3863  0.7314  0.4024
10347SOL    HW142766   5.997   6.970  10.443  0.4351 -0.7745  0.9104
10347SOL    HW242767   6.135   7.027  10.419 -0.0600  0.3746  0.7275
10348SOL     OW42768   3.291   2.872  10.945  0.3851 -0.2411  0.1807
10348SOL    HW142769   3.229   2.800  10.956 -1.0447  0.7166 -1.2055
10348SOL    HW242770   3.355   2.838  10.882  0.9618 -1.0155  1.1532
10349SOL     OW42771  11.330   8.272  10.012  0.3493  0.0053  0.3281
10349SOL    HW142772  11.240   8.242  10.021  0.3650  0.1754  1.1712
10349SOL    HW242773  11.323   8.368  10.008  0.1170  0.0247 -4.4266
10350SOL     OW42774   4.562   3.604   0.366  0.0470  0.2729 -0.2674
10350SOL    HW142775   4.468   3.590   0.365  0.1497 -0.4270 -0.1980
10350SOL    HW242776   4.574   3.686   0.414 -0.6673  1.5315 -2.0910
10351SOL     OW42777   3.932  12.144  11.841  0.1959 -0.0332  0.6416
10351SOL    HW142778   3.846  12.104  11.837  0.5714 -0.8662  0.7657
10351SOL    HW242779   3.993  12.075  11.813  0.7951  0.6326  0.2446
10352SOL     OW42780   0.632   1.716  10.387 -0.2893 -0.3448 -0.4031
10352SOL    HW142781   0.616   1.698  10.480  1.3279 -1.4707 -0.3029
10352SOL    HW242782   0.661   1.808  10.385  2.8008 -1.1560  0.7131
10353SOL     OW42783   5.120   9.144   9.037 -0.0208  0.0955 -0.1208
10353SOL    HW142784   5.130   9.102   8.952 -0.6455  0.4037 -0.3556
10353SOL    HW242785   5.046   9.099   9.078  0.1552  0.0769  0.1786
10354SOL     OW42786   5.250  10.882   8.079  0.2998 -0.3363  0.0944
10354SOL    HW142787   5.209  10.893   7.993  1.7149  0.6473 -0.4881
10354SOL    HW242788   5.280  10.791   8.079  0.7873 -0.1875 -0.6924
10355SOL     OW42789   2.860   6.228   8.542  0.7596 -0.6580 -0.2161
10355SOL    HW142790   2.890   6.314   8.569  0.2249 -0.2909 -0.7702
10355SOL    HW242791   2.769   6.223   8.572  0.9037 -1.1853  0.1581
10356SOL     OW42792   0.361   8.957   5.235 -0.0842  0.1830 -0.2559
10356SOL    HW142793   0.302   8.981   5.164  0.8295 -0.3993 -1.2404
10356SOL    HW242794   0.448   8.961   5.196  0.4017 -0.5851  0.7136
10357SOL     OW42795   7.634  12.916   8.877  0.2185  0.3686  0.4633
10357SOL    HW142796   7.708  12.903   8.818 -0.0020  1.7145 -0.1287
10357SOL    HW242797   7.649  13.000   8.918 -1.0294  0.7208  0.2524
10358SOL     OW42798   6.361  12.158  10.791 -0.6139 -0.1423 -0.2912
10358SOL    HW142799   6.271  12.169  10.822 -0.6931 -1.9349  0.2526
10358SOL    HW242800   6.359  12.189  10.701 -1.4054  1.2279  0.1637
10359SOL     OW42801   9.191   3.382   3.686  0.6168 -0.7382  0.3571
10359SOL    HW142802   9.135   3.439   3.634  0.9065 -0.5459  0.2507
10359SOL    HW242803   9.147   3.375   3.771  1.7143  1.5288  1.1831
10360SOL     OW42804   9.976   6.585   3.380  0.1880  0.2948  0.0365
10360SOL    HW142805  10.045   6.520   3.394 -1.4659 -1.2780  1.5175
10360SOL    HW242806   9.996   6.624   3.295  2.7327 -0.2357  0.3101
10361SOL     OW42807   8.564   2.303   4.993  0.2015  0.4075 -0.6036
10361SOL    HW142808   8.651   2.342   4.990  0.6210 -0.5206 -1.0701
10361SOL    HW242809   8.535   2.302   4.902  0.3217 -0.5864 -0.6481
10362SOL     OW42810  13.720  13.596   2.412  0.3843 -0.5057 -0.3139
10362SOL    HW142811  13.735  13.689   2.392 -1.8433 -0.0775 -0.1679
10362SOL    HW242812  13.735  13.590   2.506 -0.0200 -0.1705 -0.2257
10363SOL     OW42813   3.097  11.880   2.004 -0.3798 -0.2240 -0.1414
10363SOL    HW142814   3.083  11.786   1.990  1.3333 -0.8203  1.6732
10363SOL    HW242815   3.119  11.887   2.097  1.5244  1.7110 -0.6746
10364SOL     OW42816   2.298   3.340   9.269 -0.6714 -0.3520 -0.0725
10364SOL    HW142817   2.288   3.320   9.362 -0.4498 -1.8784 -0.3388
10364SOL    HW242818   2.355   3.270   9.236 -0.4119  0.4008 -1.2722
10365SOL     OW42819   1.147  10.750   9.429 -0.1914  0.4514 -0.2333
10365SOL    HW142820   1.188  10.779   9.348  1.7285  2.2137  1.2584
10365SOL    HW242821   1.176  10.660   9.440 -0.5274  0.1638 -1.4812
10366SOL     OW42822   0.748  13.308   0.828  0.2819  0.0047  0.2599
10366SOL    HW142823   0.759  13.332   0.920  1.1802 -3.9154  1.3500
10366SOL    HW242824   0.820  13.247   0.810 -1.8129 -2.0468 -1.9684
10367SOL     OW42825   0.846  13.027   7.727  0.8104 -0.3901 -0.5343
10367SOL    HW142826   0.899  12.948   7.729  1.3901 -0.0098  0.6130
10367SOL    HW242827   0.821  13.038   7.636  1.2309 -1.5546 -0.8012
10368SOL     OW42828   3.094   8.182   0.306  0.1768 -0.1719  0.2452
10368SOL    HW142829   3.126   8.097   0.337 -0.5876 -0.3157  0.6670
10368SOL    HW242830   3.164   8.214   0.249  0.3067 -1.2640 -0.2438
10369SOL     OW42831   0.964  11.561   0.141  0.1073  0.3269  0.3117
10369SOL    HW142832   0.952  11.653   0.117  0.8369  0.4540  0.4056
10369SOL    HW242833   0.942  11.557   0.234 -0.2911  0.3279  0.2199
10370SOL     OW42834  12.867   9.590   2.646 -0.2920 -0.4489  0.4081
10370SOL    HW142835  12.780   9.631   2.649 -0.3766 -0.3737 -1.4463
10370SOL    HW242836  12.857   9.517   2.585  1.2199  0.3404 -0.8736
10371SOL     OW42837   9.084   4.263   4.068  0.1535  0.3615 -0.4555
10371SOL    HW142838   9.171   4.289   4.098  0.2437  1.5922 -1.6888
10371SOL    HW242839   9.099   4.226   3.981 -0.4540 -0.3537 -0.2668
10372SOL     OW42840  10.597   5.313  11.750  0.7382  0.5628 -0.0432
10372SOL    HW142841  10.571   5.270  11.832  0.9225  2.7433  1.2360
10372SOL    HW242842  10.691   5.327  11.759  0.6578  1.3423 -0.3693
10373SOL     OW42843   8.282   0.995   7.303 -0.2305 -0.8904 -0.6247
10373SOL    HW142844   8.365   0.996   7.257 -0.1418 -0.6468 -0.4634
10373SOL    HW242845   8.228   0.932   7.256 -0.5812  0.2687 -1.8233
10374SOL     OW42846   8.887  12.748   1.884 -0.6683 -0.2755  0.6570
10374SOL    HW142847   8.963  12.743   1.942  0.1874 -0.6593 -0.4718
10374SOL    HW242848   8.915  12.705   1.804 -1.2249  1.8159 -0.7333
10375SOL     OW42849   9.768   1.897   4.746 -0.0466  0.3481 -0.1376
10375SOL    HW142850   9.777   1.927   4.836 -3.1498  1.6246 -0.1236
10375SOL    HW242851   9.773   1.801   4.752  0.8273  0.4481  1.1837
10376SOL     OW42852   6.355  11.660   2.377  0.3615 -0.5586  0.3632
10376SOL    HW142853   6.342  11.600   2.450  0.0319 -0.4974  0.3546
10376SOL    HW242854   6.276  11.649   2.323  2.2412 -3.6136 -2.1540
10377SOL     OW42855   9.686   2.294   1.051 -0.2297 -0.0286 -0.1235
10377SOL    HW142856   9.630   2.329   1.120  0.1230 -0.3091  0.3056
10377SOL    HW242857   9.723   2.372   1.009  2.3760  0.2212  2.2987
10378SOL     OW42858  10.990   4.221   2.585  0.1803  0.0105  0.0707
10378SOL    HW142859  10.917   4.162   2.600  0.8298 -0.4299  1.7299
10378SOL    HW242860  10.973   4.296   2.643 -0.4361  1.3153 -1.7186
10379SOL     OW42861   6.449   1.710   4.554  0.7420  0.3852 -0.3733
10379SOL    HW142862   6.419   1.625   4.521 -2.8610  1.8392 -1.3587
10379SOL    HW242863   6.423   1.710   4.646 -1.7588  1.2272 -0.9721
10380SOL     OW42864   2.915  10.635   0.309  0.3059  0.0560  0.1963
10380SOL    HW142865   2.937  10.577   0.235 -0.4791  0.6176 -0.4856
10380SOL    HW242866   2.826  10.609   0.334  0.8478 -0.6684  1.4788
10381SOL     OW42867  10.102  10.635  12.199  0.5722 -0.3151 -0.3687
10381SOL    HW142868  10.197  10.631  12.212  0.6855  0.1879 -0.9852
10381SOL    HW242869  10.068  10.667  12.282  1.0258  0.3114 -0.4162
10382SOL     OW42870  12.213  11.727  12.891 -0.1247 -0.9327 -0.1526
10382SOL    HW142871  12.299  11.766  12.881 -0.7490  0.8418  0.9247
10382SOL    HW242872  12.230  11.633  12.902  1.7957 -0.4551  1.4706
10383SOL     OW42873   6.991   5.191   6.601 -0.2545  0.2724 -0.2603
10383SOL    HW142874   7.031   5.242   6.531 -1.0909 -0.5419 -1.3724
10383SOL    HW242875   6.991   5.101   6.568 -0.6964 -0.1255  0.7798
10384SOL     OW42876   0.383   4.211   2.629  0.5889 -0.0331 -0.1133
10384SOL    HW142877   0.398   4.251   2.715  4.5841  1.9348 -1.4285
10384SOL    HW242878   0.437   4.132   2.629  0.9778  0.2178 -0.9153
10385SOL     OW42879  10.246  11.715   7.160 -0.4576  0.2008  0.3674
10385SOL    HW142880  10.192  11.650   7.206  0.0297 -0.9090 -0.5767
10385SOL    HW242881  10.196  11.796   7.165 -0.5412  0.0823  2.6198
10386SOL     OW42882   0.549   3.008   3.214  0.1749 -0.0366 -0.2808
10386SOL    HW142883   0.560   3.070   3.287  0.2549 -0.0752 -0.2602
10386SOL    HW242884   0.600   3.047   3.143 -0.3242  0.2627 -0.4747
10387SOL     OW42885  12.061   1.095   4.616  0.9785  0.0608  0.2473
10387SOL    HW142886  11.999   1.158   4.580  2.8544  2.2629  0.6063
10387SOL    HW242887  12.017   1.010   4.609 -0.8388  1.0971 -2.2193
10388SOL     OW42888   7.824   3.087   3.337 -0.4496  0.4604  0.3960
10388SOL    HW142889   7.871   3.074   3.255  0.1522  0.4579  0.7389
10388SOL    HW242890   7.890   3.079   3.405 -0.6598  1.8718  0.8117
10389SOL     OW42891   9.084   2.529   5.944 -0.0618 -0.1532  0.0099
10389SOL    HW142892   9.139   2.491   5.876  2.4942  2.6538  0.3155
10389SOL    HW242893   9.024   2.588   5.898 -0.8044 -0.9394 -0.0580
10390SOL     OW42894   0.835   1.745  10.772  0.5220 -0.3358  0.0910
10390SOL    HW142895   0.848   1.839  10.785  0.9957 -0.1840 -1.3024
10390SOL    HW242896   0.922   1.713  10.747 -0.1266 -0.6749 -1.9012
10391SOL     OW42897   7.005   3.658  13.463 -0.9257  0.1838 -0.5007
10391SOL    HW142898   7.057   3.611  13.398 -0.2529  0.7880 -0.4121
10391SOL    HW242899   6.929   3.688  13.415 -0.1034  1.2220 -1.1998
10392SOL     OW42900   5.482   6.029   2.798  0.3993  0.4817 -0.2911
10392SOL    HW142901   5.466   5.937   2.777  0.6853 -0.0750  1.6937
10392SOL    HW242902   5.394   6.069   2.797 -0.0663 -0.4044  1.2027
10393SOL     OW42903  11.033   5.136   7.564 -0.2498 -0.1838  0.0728
10393SOL    HW142904  10.984   5.136   7.481 -0.4503 -1.5165  0.1782
10393SOL    HW242905  11.124   5.128   7.537 -0.4224 -2.4955 -0.0121
10394SOL     OW42906   8.334   2.452   5.935 -0.2237  0.0214  0.1077
10394SOL    HW142907   8.357   2.509   6.008 -2.5743  0.2989  0.7125
10394SOL    HW242908   8.276   2.505   5.881 -0.1637 -0.8710 -0.8582
10395SOL     OW42909   4.483   6.387  10.379 -0.1168  0.4487  0.1896
10395SOL    HW142910   4.421   6.449  10.418  0.7422  2.0509 -0.8652
10395SOL    HW242911   4.552   6.442  10.342  1.4318 -1.2249  0.4324
10396SOL     OW42912  12.948   8.900   4.780  0.2424 -0.0677 -0.1694
10396SOL    HW142913  12.854   8.901   4.798  0.2937  0.0834  0.0936
10396SOL    HW242914  12.979   8.817   4.817 -0.0194 -0.7620 -1.4722
10397SOL     OW42915  13.363   2.208  12.242  0.4088 -0.2093  0.4280
10397SOL    HW142916  13.347   2.258  12.322  0.5423  0.0328  0.3073
10397SOL    HW242917  13.412   2.268  12.186  0.0415 -0.2671  0.0378
10398SOL     OW42918   9.205  11.173   0.266 -0.1343  0.5497 -0.6008
10398SOL    HW142919   9.194  11.079   0.250  0.4296  0.4784 -0.5941
10398SOL    HW242920   9.158  11.215   0.194 -0.0074  0.2532 -0.8587
10399SOL     OW42921   8.644   8.157   5.628 -0.1533 -0.0882  0.2169
10399SOL    HW142922   8.618   8.242   5.664  0.0990  0.2674 -0.4307
10399SOL    HW242923   8.587   8.094   5.674 -0.1827  0.3969  0.8660
10400SOL     OW42924   4.293   9.253   1.100  0.1198 -0.3872 -0.0421
10400SOL    HW142925   4.208   9.226   1.065 -0.3562 -0.9587  1.4843
10400SOL    HW242926   4.346   9.173   1.098  0.8991  0.1146 -1.6389
10401SOL     OW42927  11.396   9.017  13.621 -0.0268 -0.0354 -0.5475
10401SOL    HW142928  11.447   8.947  13.578  0.0421 -0.5386  0.3191
10401SOL    HW242929  11.307   9.004  13.590  0.2632  0.4785 -1.6176
10402SOL     OW42930  12.445   1.907  11.215  0.3551 -0.1428  0.3345
10402SOL    HW142931  12.485   1.954  11.142  0.5567 -1.2616 -0.3071
10402SOL    HW242932  12.438   1.816  11.184 -1.3082 -0.2747  0.9958
10403SOL     OW42933   3.779   1.155   1.959 -0.1642 -0.9041 -0.4516
10403SOL    HW142934   3.862   1.200   1.943 -1.5050  1.6571 -0.9228
10403SOL    HW242935   3.769   1.156   2.054 -0.2574  0.0655 -0.4603
10404SOL     OW42936   5.016  10.757  12.509  0.0084  0.4694 -0.2352
10404SOL    HW142937   4.933  10.762  12.462  0.1441  1.4416 -0.3989
10404SOL    HW242938   5.022  10.840  12.557  0.2253 -0.1775  0.9204
10405SOL     OW42939   4.090  10.917  10.269  0.0481 -0.4345 -0.2746
10405SOL    HW142940   4.118  10.864  10.344  0.6332  0.4781  0.1697
10405SOL    HW242941   4.143  10.885  10.196  1.5386  0.5475  0.3264
10406SOL     OW42942   1.250  12.247   7.331 -0.2028  0.3584  0.2190
10406SOL    HW142943   1.308  12.292   7.393  1.4907 -0.1895 -0.9141
10406SOL    HW242944   1.206  12.181   7.384  0.6722  0.3808  0.9981
10407SOL     OW42945   3.899  11.427   4.621 -1.1178  0.4365  0.3269
10407SOL    HW142946   3.938  11.486   4.685 -1.2987  0.0412  0.8151
10407SOL    HW242947   3.814  11.466   4.601 -0.6225  1.1253 -0.4902
10408SOL     OW42948  12.920  10.404  12.036 -0.4383  0.7943 -0.0676
10408SOL    HW142949  12.897  10.495  12.050 -0.6301  0.4234  2.3894
10408SOL    HW242950  13.009  10.395  12.071 -0.9568 -0.2330  1.0738
10409SOL     OW42951   6.259   6.335   6.746 -0.3182  0.0603  0.3665
10409SOL    HW142952   6.289   6.351   6.835  0.1155  1.1346  0.0424
10409SOL    HW242953   6.255   6.240   6.739  2.4466 -0.1413  0.6242
10410SOL     OW42954   8.966   1.184   8.387  0.1911  0.4746 -0.4473
10410SOL    HW142955   8.981   1.278   8.382  1.4729  0.3342  0.4680
10410SOL    HW242956   8.907   1.173   8.462  0.6742  0.4845 -0.0640
10411SOL     OW42957   9.379   7.860   3.869  0.2526 -0.0006 -0.2372
10411SOL    HW142958   9.344   7.923   3.932 -0.1753 -1.0921  0.6410
10411SOL    HW242959   9.342   7.776   3.895  2.5659 -1.0219  0.0135
10412SOL     OW42960   6.924  13.071  10.977  0.0332 -0.0986  0.3227
10412SOL    HW142961   6.902  13.069  10.884 -0.3580 -1.5249  0.4295
10412SOL    HW242962   7.003  13.017  10.984 -0.4091 -0.6893  0.9172
10413SOL     OW42963  11.886  10.456   1.175 -0.0109 -0.4327 -0.1511
10413SOL    HW142964  11.848  10.541   1.197 -3.0810 -1.7742  0.2161
10413SOL    HW242965  11.907  10.416   1.259  0.8231 -0.3050 -0.2930
10414SOL     OW42966   5.272   8.651  11.146  0.1485  0.0594  0.0243
10414SOL    HW142967   5.238   8.616  11.063 -0.2568  1.9744 -0.6512
10414SOL    HW242968   5.206   8.714  11.174  0.3750 -0.4054  1.7380
10415SOL     OW42969  13.611  10.552   3.885  0.1478 -0.3445 -0.2543
10415SOL    HW142970  13.662  10.499   3.947  1.2136  0.4737 -0.3909
10415SOL    HW242971  13.525  10.562   3.926  0.2585 -1.3350  0.2349
10416SOL     OW42972   8.797   6.228   1.656 -0.1369 -0.4342 -0.2744
10416SOL    HW142973   8.846   6.309   1.657  0.6613 -0.8839 -1.0976
10416SOL    HW242974   8.863   6.159   1.657 -0.7800 -1.0689 -0.1944
10417SOL     OW42975   2.827   4.182   9.240  0.3029  0.5419  0.2720
10417SOL    HW142976   2.896   4.243   9.265 -0.0549  1.3106 -0.5766
10417SOL    HW242977   2.769   4.179   9.316  0.3935  1.1540  0.3678
10418SOL     OW42978   1.819   2.281   5.514  0.5797 -0.3951 -0.2000
10418SOL    HW142979   1.799   2.210   5.575 -1.3558 -0.0755 -0.3826
10418SOL    HW242980   1.776   2.358   5.551 -0.5853 -0.1767 -1.8503
10419SOL     OW42981   7.582  11.358   3.502 -0.2829 -0.3894  0.0561
10419SOL    HW142982   7.622  11.289   3.448 -1.1713 -0.8655 -0.0051
10419SOL    HW242983   7.541  11.417   3.439 -1.6346 -1.1393  0.1848
10420SOL     OW42984   9.303  12.940   4.167  0.1799  0.0712  0.6572
10420SOL    HW142985   9.388  12.980   4.180  0.7712 -1.7205  3.2088
10420SOL    HW242986   9.242  12.994   4.217  0.5446 -0.7456  2.0356
10421SOL     OW42987  12.091   0.857  12.017 -0.1810 -0.6068 -0.3127
10421SOL    HW142988  12.027   0.854  11.946  2.0903 -0.0188 -2.5421
10421SOL    HW242989  12.057   0.922  12.078 -1.8657 -0.6039 -1.2149
10422SOL     OW42990   9.090   4.549   9.341 -0.5559 -0.0141 -0.5344
10422SOL    HW142991   9.138   4.536   9.259  1.6674  0.8251  0.5538
10422SOL    HW242992   9.001   4.571   9.313  0.1240  0.2296 -2.7158
10423SOL     OW42993  11.531   4.867   9.032  0.6555 -0.2856  0.0813
10423SOL    HW142994  11.454   4.847   9.086  0.4517 -3.0621 -1.0257
10423SOL    HW242995  11.502   4.938   8.975 -2.5844 -3.4067 -2.7076
10424SOL     OW42996   5.512  13.141  13.483 -0.3758 -0.4982  0.2079
10424SOL    HW142997   5.423  13.165  13.508 -0.9773 -1.8509 -0.4798
10424SOL    HW242998   5.567  13.175  13.553 -1.6552 -1.4306  1.7424
10425SOL     OW42999   2.077   1.475   7.888  0.0653  0.2500 -0.1522
10425SOL    HW143000   2.041   1.388   7.875  1.2981 -0.0618 -1.8379
10425SOL    HW243001   2.033   1.529   7.822  0.7932  0.4102 -0.5273
10426SOL     OW43002  13.655   3.669   6.207 -0.4393 -0.0551  0.2873
10426SOL    HW143003  13.686   3.698   6.292  1.3715 -1.0721  0.0347
10426SOL    HW243004  13.735   3.652   6.157 -1.4427  1.6510 -2.0514
10427SOL     OW43005   7.382   7.924   5.181  0.2839  0.2805  0.1040
10427SOL    HW143006   7.430   7.911   5.099 -1.4583 -1.5298 -0.7217
10427SOL    HW243007   7.327   8.000   5.164  0.4945  0.3832 -0.1284
10428SOL     OW43008   4.813   7.539   5.836  0.3421 -0.1730  0.0932
10428SOL    HW143009   4.773   7.486   5.905 -0.8652  2.4328  1.5287
10428SOL    HW243010   4.760   7.521   5.758 -0.4666 -0.5659  0.7179
10429SOL     OW43011   8.787  10.188   2.998 -0.3842  0.3812 -0.5438
10429SOL    HW143012   8.802  10.282   2.996  1.0547  0.1652 -1.2224
10429SOL    HW243013   8.706  10.178   3.047  0.1402  1.8964  0.7467
10430SOL     OW43014  13.719   4.471   9.949  0.2294 -0.2026  1.2569
10430SOL    HW143015  13.680   4.444   9.866  0.2990 -1.4088  1.6025
10430SOL    HW243016  13.751   4.390   9.989  1.7173  0.5532  1.7006
10431SOL     OW43017  12.573   1.258   9.127 -0.5313  0.1939 -0.1801
10431SOL    HW143018  12.645   1.300   9.082 -0.2126 -1.3064 -1.1162
10431SOL    HW243019  12.598   1.259   9.219  2.0008 -2.6340 -0.7024
10432SOL     OW43020   0.986   4.222   9.611  0.1290 -0.0034 -0.4307
10432SOL    HW143021   0.983   4.220   9.706  0.8068  0.6636 -0.3930
10432SOL    HW243022   1.079   4.211   9.589 -0.1355 -1.2050 -1.0499
10433SOL     OW43023   4.397   1.898   3.387 -0.2709  0.7273  1.0051
10433SOL    HW143024   4.459   1.943   3.443 -0.2672  1.6181  0.2949
10433SOL    HW243025   4.447   1.825   3.349  0.1721  1.0898  0.8904
10434SOL     OW43026  11.907   6.571  11.816  0.1343 -0.5741  0.2765
10434SOL    HW143027  11.914   6.525  11.899 -0.4081 -0.5943  0.3107
10434SOL    HW243028  11.855   6.649  11.836  0.4636 -0.2964  0.0710
10435SOL     OW43029   6.229   6.764  11.250 -0.0292  0.0415  0.7129
10435SOL    HW143030   6.244   6.808  11.334 -1.7476  0.5166  0.8003
10435SOL    HW243031   6.140   6.731  11.255 -0.5730  1.0058 -1.3091
10436SOL     OW43032   5.688   0.971   7.873 -0.1407  0.3879 -0.1374
10436SOL    HW143033   5.711   0.895   7.819 -0.0531  0.4674 -0.2103
10436SOL    HW243034   5.725   1.046   7.827  0.8260  0.3583  0.5399
10437SOL     OW43035   3.412  10.312   9.633 -0.3530  0.9139 -0.7151
10437SOL    HW143036   3.456  10.367   9.698  2.2084 -0.9147 -0.7735
10437SOL    HW243037   3.472  10.309   9.559 -1.0102 -0.8844 -1.2336
10438SOL     OW43038   7.187   0.497  11.502  0.3305 -0.1302  0.1393
10438SOL    HW143039   7.159   0.493  11.594  0.4701 -0.7931  0.1575
10438SOL    HW243040   7.106   0.501  11.452  0.2582  0.7738  0.3081
10439SOL     OW43041  13.570   1.621   3.187 -0.0921  0.1320  0.5680
10439SOL    HW143042  13.646   1.657   3.142  0.8460 -0.2975  1.7418
10439SOL    HW243043  13.607   1.577   3.264 -1.6469  1.1014  1.9246
10440SOL     OW43044   1.210   8.047   1.615  0.0950 -0.1048  0.1304
10440SOL    HW143045   1.212   8.014   1.705 -0.5385  1.9224  0.9351
10440SOL    HW243046   1.221   7.968   1.561  0.6092 -1.3622  1.9569
10441SOL     OW43047  13.654   1.254   4.955 -0.0506  0.6528 -0.5885
10441SOL    HW143048  13.653   1.338   5.002  0.0998 -0.6527  1.9581
10441SOL    HW243049  13.739   1.215   4.979  0.2648  0.1162 -2.4419
10442SOL     OW43050   3.866  12.863  10.920 -0.1908 -0.5287  0.0977
10442SOL    HW143051   3.915  12.837  10.998  0.1446 -0.7370 -0.1781
10442SOL    HW243052   3.814  12.939  10.947  3.2148  2.2839 -0.5960
10443SOL     OW43053   3.981  13.423   2.148  0.0325  0.1502 -0.3256
10443SOL    HW143054   4.066  13.384   2.172  0.5425  0.8245 -0.9820
10443SOL    HW243055   3.917  13.354   2.166  0.7090 -0.3292  0.2877
10444SOL     OW43056   1.386   7.852   3.997  0.2882  0.0485 -0.1278
10444SOL    HW143057   1.343   7.767   4.010  0.0795  0.4165  1.8002
10444SOL    HW243058   1.477   7.830   3.980 -0.0740 -0.6130 -1.3322
10445SOL     OW43059  11.385   2.656   3.230  0.2104 -0.0739 -0.4181
10445SOL    HW143060  11.415   2.664   3.140  1.5455  1.0735  0.0972
10445SOL    HW243061  11.445   2.592   3.270  0.2230  0.1260 -0.1105
10446SOL     OW43062   4.973   8.673   5.187 -0.1514  0.0153 -0.0026
10446SOL    HW143063   4.918   8.730   5.134  1.1580  0.0058 -1.4474
10446SOL    HW243064   4.957   8.585   5.152  0.0543 -0.1139  0.2216
10447SOL     OW43065  10.489   9.597   4.562 -0.4322 -0.2988  0.4220
10447SOL    HW143066  10.487   9.562   4.652  2.1409 -2.2586 -0.1694
10447SOL    HW243067  10.546   9.674   4.567 -0.0078 -0.6091  0.4296
10448SOL     OW43068   6.407   1.372   4.822  0.3446 -0.3421  0.3385
10448SOL    HW143069   6.373   1.333   4.741  0.2644  0.8696 -0.2266
10448SOL    HW243070   6.480   1.427   4.793 -1.4825  2.4444  0.6692
10449SOL     OW43071   2.099  11.864   0.247  0.0360 -0.8980  0.2773
10449SOL    HW143072   2.015  11.838   0.285 -0.0331  0.4078  1.0949
10449SOL    HW243073   2.164  11.830   0.309  0.0090 -0.3777  0.6018
10450SOL     OW43074   4.516   3.796   0.579 -0.0562 -0.5113 -0.2575
10450SOL    HW143075   4.429   3.814   0.543 -0.0261  2.7750  1.0010
10450SOL    HW243076   4.514   3.831   0.668  2.0630 -1.9553  0.4536
10451SOL     OW43077  10.903  12.761   1.679 -0.0434  0.8202  0.2583
10451SOL    HW143078  10.973  12.699   1.656 -1.2082  0.1465 -1.7400
10451SOL    HW243079  10.948  12.830   1.727  1.5241 -0.9315  1.4675
10452SOL     OW43080   0.297   4.042   3.899  0.1557  0.3580  0.2854
10452SOL    HW143081   0.285   3.949   3.922  2.4422 -0.3512 -1.0643
10452SOL    HW243082   0.223   4.062   3.843  0.5525 -1.2334 -0.8913
10453SOL     OW43083   8.677   9.112  13.525  0.1770 -0.6707 -0.0882
10453SOL    HW143084   8.753   9.148  13.480  0.7025  1.4734  2.2570
10453SOL    HW243085   8.704   9.022  13.548  1.3754 -0.4818 -0.6443
10454SOL     OW43086   7.943   9.215   8.656  0.0046 -0.3957 -0.5685
10454SOL    HW143087   7.889   9.293   8.644  1.3039  0.9158  1.4448
10454SOL    HW243088   7.908   9.152   8.594 -1.2768  1.6880 -2.1062
10455SOL     OW43089   4.070   1.883   7.065 -0.3169 -0.0891  0.3462
10455SOL    HW143090   4.035   1.945   7.129  0.0489  0.3354  0.1403
10455SOL    HW243091   4.018   1.898   6.986  1.2690  1.6218 -0.4547
10456SOL     OW43092   8.107   3.786  10.839  0.4371 -0.4704  0.2982
10456SOL    HW143093   8.024   3.827  10.813  0.8524  0.0070 -0.2735
10456SOL    HW243094   8.080   3.713  10.894 -0.4536 -1.3107 -1.1868
10457SOL     OW43095   6.438   1.536   0.983  0.2598  0.2244  0.2615
10457SOL    HW143096   6.407   1.500   1.066  2.0187  0.6907  1.1745
10457SOL    HW243097   6.427   1.630   0.992  1.3837  0.3559  0.4010
10458SOL     OW43098  12.200   2.913   5.126 -0.1352 -0.4437 -0.1939
10458SOL    HW143099  12.278   2.964   5.146 -1.2378  1.3265 -0.2821
10458SOL    HW243100  12.224   2.863   5.047  1.4292 -1.1953  0.7068
10459SOL     OW43101  11.922   1.444  12.736 -0.0596 -0.2671  0.3836
10459SOL    HW143102  11.852   1.479  12.681  1.8342  0.5391 -1.6478
10459SOL    HW243103  11.999   1.443  12.680  1.4727 -1.6602  2.3564
10460SOL     OW43104   2.911   4.416   0.468  0.7451  0.1243 -0.2167
10460SOL    HW143105   2.820   4.389   0.455  0.4210  1.5120 -1.0168
10460SOL    HW243106   2.906   4.510   0.482  2.0761  0.2434 -0.4432
10461SOL     OW43107   4.748   0.421   0.617  0.0431 -0.2168  0.3236
10461SOL    HW143108   4.741   0.480   0.541 -1.6980  2.4999  2.3711
10461SOL    HW243109   4.817   0.459   0.670 -0.0879 -0.9197  1.0059
10462SOL     OW43110   0.521  10.380   0.862 -0.4524  0.4427 -0.1204
10462SOL    HW143111   0.440  10.351   0.819 -0.2432  1.4218 -1.2241
10462SOL    HW243112   0.585  10.313   0.840 -0.3010  1.0213 -1.5290
10463SOL     OW43113   0.531   1.508  12.687 -0.1532 -0.1542 -0.3632
10463SOL    HW143114   0.604   1.521  12.626  0.4273 -0.1555  0.3167
10463SOL    HW243115   0.573   1.505  12.773 -1.0376  0.6217  0.1081
10464SOL     OW43116   0.253   9.309   8.993  0.5480 -0.0772  0.2569
10464SOL    HW143117   0.226   9.400   9.008 -1.5450 -0.6620  0.2439
10464SOL    HW243118   0.346   9.308   9.017  0.4135  1.8646  1.0560
10465SOL     OW43119  10.099  10.658   6.682 -0.0380 -0.3472  0.9960
10465SOL    HW143120  10.051  10.590   6.635 -0.0629 -0.0541  0.5922
10465SOL    HW243121  10.063  10.656   6.771 -0.4945 -0.4206  0.8109
10466SOL     OW43122  12.833  10.480  13.746  0.9307 -0.0992  0.4621
10466SOL    HW143123  12.898  10.496  13.813  1.1270 -1.3051  0.5849
10466SOL    HW243124  12.776  10.557  13.747  0.8235 -0.1760  2.1261
10467SOL     OW43125   2.556   8.001   7.682  0.5678 -0.2722 -0.1569
10467SOL    HW143126   2.505   8.069   7.726  0.4578  0.5587 -1.5036
10467SOL    HW243127   2.582   7.942   7.752 -0.2507  0.5682  0.9016
10468SOL     OW43128  13.486   1.334   9.118  0.5551 -0.4435  0.1585
10468SOL    HW143129  13.513   1.256   9.071  1.3839  0.1061 -0.3172
10468SOL    HW243130  13.501   1.313   9.210  2.2298 -0.3391 -0.0511
10469SOL     OW43131   6.250   0.053   2.591 -0.0663  0.4175 -0.1890
10469SOL    HW143132   6.263  -0.037   2.618  0.1787  0.4249 -0.2856
10469SOL    HW243133   6.337   0.093   2.595 -0.2913  0.8754  0.6663
10470SOL     OW43134   7.682   3.599  10.218 -0.4159 -0.1961 -0.6006
10470SOL    HW143135   7.727   3.587  10.302  1.5309  0.8696 -1.4201
10470SOL    HW243136   7.615   3.665  10.236  0.3790  0.4647  0.0123
10471SOL     OW43137  10.142  12.895   2.615 -0.1348  0.0068 -0.8065
10471SOL    HW143138  10.214  12.866   2.671 -1.3571  0.7746  1.2311
10471SOL    HW243139  10.127  12.821   2.556  0.7960 -1.0783  0.2649
10472SOL     OW43140   8.415  13.490  10.496 -0.1496  0.5171 -0.6588
10472SOL    HW143141   8.409  13.459  10.587 -0.5268  1.2759 -0.4120
10472SOL    HW243142   8.504  13.468  10.469  0.1146  0.6777  0.0496
10473SOL     OW43143  10.550   7.669  12.746 -0.6691  0.2224 -0.2698
10473SOL    HW143144  10.553   7.574  12.758  1.5966  0.1176 -1.1773
10473SOL    HW243145  10.546   7.704  12.835  0.9013 -0.7137  0.2093
10474SOL     OW43146  13.599   6.578   8.883 -0.2269  0.0653 -0.3449
10474SOL    HW143147  13.643   6.632   8.817 -1.3130  0.1690 -1.0041
10474SOL    HW243148  13.562   6.505   8.834  2.2426 -2.0386  0.6749
10475SOL     OW43149   7.635   1.015  11.367 -0.1405 -0.5098  0.2614
10475SOL    HW143150   7.613   0.924  11.346 -2.4180  0.0785 -0.1589
10475SOL    HW243151   7.695   1.042  11.298  0.4919 -1.6419  0.3432
10476SOL     OW43152  11.250   4.941   5.369  0.0545  0.6046 -0.0001
10476SOL    HW143153  11.317   4.971   5.308  1.2073 -0.1009  0.8627
10476SOL    HW243154  11.300   4.903   5.442 -1.2949 -0.2357  0.5222
10477SOL     OW43155   1.274   9.322   7.828  0.0629  0.1371 -0.3182
10477SOL    HW143156   1.291   9.328   7.733  0.1698  2.8353 -0.2197
10477SOL    HW243157   1.209   9.391   7.844  0.7931  0.3961  1.7091
10478SOL     OW43158   4.209   5.730   9.306 -0.3553  0.1461 -0.1028
10478SOL    HW143159   4.240   5.775   9.227 -1.1421 -0.1183 -0.5697
10478SOL    HW243160   4.136   5.676   9.276  0.7113 -1.6646  0.3899
10479SOL     OW43161   0.176   6.649   1.990  0.2859  0.0467 -0.0752
10479SOL    HW143162   0.113   6.721   1.986  0.3033  0.0640 -0.0467
10479SOL    HW243163   0.252   6.687   2.036  0.7433  0.3436 -1.0549
10480SOL     OW43164   9.177  10.457   4.843  0.2666  0.0029  0.0672
10480SOL    HW143165   9.106  10.409   4.886  0.5602  0.4539  1.0659
10480SOL    HW243166   9.256  10.413   4.872  0.4294 -0.3528 -0.8659
10481SOL     OW43167   0.992   6.503   0.179  0.1753  0.8639 -0.3566
10481SOL    HW143168   0.901   6.514   0.207 -0.2738  0.7202 -1.6944
10481SOL    HW243169   0.995   6.540   0.091  1.2681  0.3274 -0.5653
10482SOL     OW43170   6.819   2.653  13.282 -0.2176  0.3786  0.2915
10482SOL    HW143171   6.833   2.599  13.361 -0.5644 -0.4253 -0.1848
10482SOL    HW243172   6.907   2.670  13.249 -0.0333  1.2662  1.2070
10483SOL     OW43173   0.115  11.593   7.098 -0.6609  0.1044 -0.0453
10483SOL    HW143174   0.035  11.567   7.143 -1.6948 -1.2463 -2.4946
10483SOL    HW243175   0.094  11.588   7.005  2.0952  0.3024 -0.7853
10484SOL     OW43176   0.590   0.217   1.539 -0.0192 -0.6499  0.3454
10484SOL    HW143177   0.528   0.287   1.560 -0.5243 -1.3896  1.3804
10484SOL    HW243178   0.536   0.138   1.533  0.5566 -0.9779 -0.7347
10485SOL     OW43179  11.323   3.919   6.066  0.2057  0.0244 -0.1680
10485SOL    HW143180  11.364   3.999   6.032 -0.3162  0.2167 -0.3464
10485SOL    HW243181  11.230   3.940   6.071  0.1116 -0.4543  0.1268
10486SOL     OW43182   7.208   5.936  10.384  0.5813  0.0716 -0.2484
10486SOL    HW143183   7.222   5.942  10.289 -0.1287  1.2345 -0.2901
10486SOL    HW243184   7.233   5.846  10.405  1.4993  0.0263 -1.4090
10487SOL     OW43185   4.229   2.612   0.485  0.6281 -0.0443  0.6202
10487SOL    HW143186   4.313   2.604   0.530  1.2658 -1.1870 -0.7246
10487SOL    HW243187   4.251   2.644   0.398 -0.2529 -1.0163  0.0228
10488SOL     OW43188  13.507   8.461   6.979 -0.5707  0.2121  0.3806
10488SOL    HW143189  13.588   8.502   6.949 -1.5498  1.9127 -0.0717
10488SOL    HW243190  13.457   8.445   6.899 -1.6825  1.4452  0.7866
10489SOL     OW43191   2.797   6.008   5.791 -0.3863 -0.4696 -0.1765
10489SOL    HW143192   2.785   5.993   5.697 -0.5326  0.6711 -0.3587
10489SOL    HW243193   2.852   6.086   5.796 -0.6568 -0.3236  0.6899
10490SOL     OW43194  12.026   2.263   5.520  0.1557  0.6897 -0.2047
10490SOL    HW143195  12.057   2.290   5.434 -0.6123 -1.1843 -1.1191
10490SOL    HW243196  12.057   2.332   5.579  1.2880  1.6700 -1.8553
10491SOL     OW43197   5.722   0.153   7.623 -0.3601 -0.6449 -0.0852
10491SOL    HW143198   5.660   0.171   7.694 -0.4863  0.2061 -0.3954
10491SOL    HW243199   5.667   0.124   7.550 -0.3784 -0.1329 -0.2805
10492SOL     OW43200   9.448   8.541   5.325 -1.1117 -0.4082 -0.3445
10492SOL    HW143201   9.432   8.499   5.409 -0.8726  0.1873  0.0029
10492SOL    HW243202   9.394   8.492   5.263 -0.8831 -1.1811  0.0627
10493SOL     OW43203   3.105   9.883  12.488 -0.0459 -0.4357 -0.0282
10493SOL    HW143204   3.074   9.964  12.448  0.2678 -0.1286  0.3465
10493SOL    HW243205   3.080   9.890  12.580  2.4140  0.5115  0.6429
10494SOL     OW43206   3.257   1.930  10.297  0.0854 -0.5090  0.4316
10494SOL    HW143207   3.278   1.890  10.213  2.2070 -0.4513  0.8698
10494SOL    HW243208   3.167   1.962  10.287  0.4130 -0.1470 -1.9395
10495SOL     OW43209  10.701   0.255   3.700  0.3481 -0.1065  0.2114
10495SOL    HW143210  10.764   0.243   3.628  0.5951 -0.8477  0.5408
10495SOL    HW243211  10.671   0.167   3.720 -1.5257  0.3160 -0.5509
10496SOL     OW43212  13.457   5.856   6.408  0.0842  0.1171  0.2957
10496SOL    HW143213  13.540   5.903   6.413  0.4567 -0.4414 -0.4112
10496SOL    HW243214  13.406   5.889   6.481  1.2314 -0.1258  1.2300
10497SOL     OW43215  13.613   5.254   9.829  0.0311 -0.8974  0.1017
10497SOL    HW143216  13.688   5.284   9.778 -0.7098  0.3288 -0.3200
10497SOL    HW243217  13.644   5.251   9.919  0.1054  1.4008  0.2020
10498SOL     OW43218   1.503   5.670   0.934  0.0071  0.4667  0.4998
10498SOL    HW143219   1.419   5.637   0.966 -0.2542 -0.3868 -0.9836
10498SOL    HW243220   1.560   5.670   1.011 -0.2185 -2.6917  0.7761
10499SOL     OW43221   2.226   9.685   7.884 -0.3569 -0.4023  0.1238
10499SOL    HW143222   2.257   9.601   7.916  0.0138 -0.1013  0.5596
10499SOL    HW243223   2.293   9.748   7.910 -1.4624  0.3131  1.3761
10500SOL     OW43224   4.007   3.951   9.614  0.4234 -0.1641 -0.2781
10500SOL    HW143225   4.015   3.902   9.695  1.2534  0.0189 -0.2313
10500SOL    HW243226   4.002   4.042   9.641 -2.1045 -0.2330 -0.3171
10501SOL     OW43227  10.613   5.731   3.418  0.2489 -0.2544  0.4423
10501SOL    HW143228  10.588   5.768   3.333  1.2904 -0.7622 -0.1051
10501SOL    HW243229  10.569   5.647   3.421 -0.2196 -0.0029  0.6432
10502SOL     OW43230   9.205   3.814   4.352 -0.2664  0.1303 -0.3784
10502SOL    HW143231   9.186   3.828   4.259  1.0521  1.1059 -0.5390
10502SOL    HW243232   9.246   3.727   4.355 -2.0578 -0.7496 -0.4081
10503SOL     OW43233  10.808   6.835   3.036 -0.0828 -0.3782 -0.0197
10503SOL    HW143234  10.875   6.893   3.001 -0.8306  0.2152 -0.4933
10503SOL    HW243235  10.847   6.798   3.115  0.6176  0.3335 -0.0241
10504SOL     OW43236   0.457   2.645   7.684 -0.2851  0.7880  0.0558
10504SOL    HW143237   0.455   2.675   7.593  1.0041  0.0560 -0.2326
10504SOL    HW243238   0.549   2.654   7.710 -0.7301  1.5409  1.4865
10505SOL     OW43239   4.422   0.880  11.199  0.2222  0.5977  0.0827
10505SOL    HW143240   4.404   0.848  11.288  1.8798 -1.2918 -0.1673
10505SOL    HW243241   4.368   0.825  11.143 -0.1967  1.2281 -0.1380
10506SOL     OW43242   7.145  10.287   7.902 -0.0827 -0.2049 -0.0716
10506SOL    HW143243   7.103  10.250   7.825  0.0891  1.5461 -1.0717
10506SOL    HW243244   7.145  10.216   7.967 -1.2387 -1.3673 -1.2875
10507SOL     OW43245   1.252  10.620   1.168 -0.1654  0.1317 -0.2442
10507SOL    HW143246   1.215  10.612   1.256 -1.2531  0.5106 -0.6490
10507SOL    HW243247   1.335  10.572   1.172 -0.8721 -1.0782  0.6062
10508SOL     OW43248   5.794  13.338  10.138 -0.0051  0.3811  0.1615
10508SOL    HW143249   5.739  13.401  10.091  0.9077  1.4712  0.5059
10508SOL    HW243250   5.875  13.336  10.088  0.5786  0.7428  1.0711
10509SOL     OW43251   9.982   9.928   1.519  0.5483  0.2128 -0.1318
10509SOL    HW143252  10.023   9.907   1.604 -1.5071 -1.0537  0.6053
10509SOL    HW243253   9.992   9.849   1.467 -0.4018  0.1007 -0.1566
10510SOL     OW43254   5.960  12.538  10.455 -0.5073 -0.0394 -0.3538
10510SOL    HW143255   5.998  12.589  10.383 -0.2452  0.6144  0.2439
10510SOL    HW243256   6.035  12.513  10.509 -0.8945  1.3879  0.9236
10511SOL     OW43257   1.272   4.139   1.054 -0.3432 -0.0809  0.4115
10511SOL    HW143258   1.262   4.174   0.966 -1.5931  0.4762  0.7473
10511SOL    HW243259   1.188   4.157   1.097 -0.1759 -1.3564  1.3609
10512SOL     OW43260   1.885   3.289  12.860 -0.2753  0.3546  0.0061
10512SOL    HW143261   1.976   3.270  12.882  0.0569  0.3638 -1.2848
10512SOL    HW243262   1.864   3.229  12.789 -1.7494 -0.6605  1.2185
10513SOL     OW43263  10.010   7.189   4.319  0.4040  0.0223 -0.0241
10513SOL    HW143264  10.046   7.265   4.274  1.4518  0.7624  1.9236
10513SOL    HW243265  10.002   7.217   4.411 -1.5947 -1.3975  0.3130
10514SOL     OW43266   3.292   3.833   4.700 -0.1363 -0.0221 -0.1207
10514SOL    HW143267   3.260   3.917   4.732 -0.5354 -0.2789  0.1676
10514SOL    HW243268   3.246   3.820   4.617 -1.4626 -0.7815  0.6917
10515SOL     OW43269   1.396   3.908   7.133 -0.9153 -0.4251  0.0358
10515SOL    HW143270   1.382   3.946   7.220  1.7588  0.8083  0.0241
10515SOL    HW243271   1.438   3.824   7.150 -0.9303 -0.4562 -0.0815
10516SOL     OW43272   2.807  13.380  11.919  0.2004 -0.3584  0.2268
10516SOL    HW143273   2.778  13.289  11.928 -1.6410  0.1957  0.3147
10516SOL    HW243274   2.842  13.402  12.005  1.6192 -1.2678 -0.0876
10517SOL     OW43275   2.680   5.360   1.408  1.0011  0.0380 -0.5627
10517SOL    HW143276   2.632   5.282   1.436  0.6048  0.0279 -1.2651
10517SOL    HW243277   2.668   5.363   1.313  2.5787 -0.0877 -0.7871
10518SOL     OW43278   5.250  12.839   0.063 -0.0814  0.3079  0.0710
10518SOL    HW143279   5.297  12.911   0.107 -0.6589  0.1406  0.9917
10518SOL    HW243280   5.205  12.881  -0.010  1.1423  0.5442 -0.5699
10519SOL     OW43281   5.135   9.008  11.011  0.1844 -0.0013 -0.2288
10519SOL    HW143282   5.058   9.058  11.037 -0.0111  0.0784 -0.9367
10519SOL    HW243283   5.109   8.966  10.929  0.8178 -0.1534 -0.3548
10520SOL     OW43284  10.329  10.403   4.192  0.7261  0.4299 -0.5365
10520SOL    HW143285  10.350  10.433   4.104  2.0362 -0.0581 -0.4073
10520SOL    HW243286  10.248  10.354   4.182  0.6410  0.7260 -1.3979
10521SOL     OW43287   8.356   8.742  12.061  0.5278  0.6668 -0.4599
10521SOL    HW143288   8.393   8.813  12.114  1.6497  0.2821 -0.7052
10521SOL    HW243289   8.268   8.730  12.096  0.6945  1.4794  0.2744
10522SOL     OW43290   5.152   5.757  11.074  0.3159  0.0355 -0.1187
10522SOL    HW143291   5.199   5.743  11.156 -0.3125 -0.8445  0.1139
10522SOL    HW243292   5.219   5.753  11.006  0.3931 -3.3094  0.0086
10523SOL     OW43293   0.287   5.300  10.225 -0.4823  0.1647 -0.4210
10523SOL    HW143294   0.222   5.268  10.288  1.3564 -0.7085  1.1233
10523SOL    HW243295   0.310   5.387  10.256  2.0064 -1.0711  1.5378
10524SOL     OW43296  11.766   9.664   9.402 -0.0448 -0.4678 -0.0589
10524SOL    HW143297  11.820   9.708   9.336 -1.3610  0.2732 -0.6760
10524SOL    HW243298  11.712   9.734   9.439  0.1633 -1.0102  1.3073
10525SOL     OW43299   6.372   2.994   9.259  0.1211  0.0230  0.6024
10525SOL    HW143300   6.279   2.987   9.236  0.6455 -2.1109 -1.3837
10525SOL    HW243301   6.374   2.987   9.354 -1.7660  0.7006  0.7441
10526SOL     OW43302  12.976   9.651   9.810 -0.0844  0.3819 -0.1445
10526SOL    HW143303  12.942   9.721   9.866  2.1763  0.5010  1.1919
10526SOL    HW243304  13.063   9.681   9.784  1.0994 -2.0226  0.7454
10527SOL     OW43305   7.468  10.825  13.288  0.1475 -0.1634 -0.1551
10527SOL    HW143306   7.525  10.817  13.212  0.0794 -0.0151 -0.2214
10527SOL    HW243307   7.382  10.795  13.258 -0.4564  2.0117 -0.7973
10528SOL     OW43308   3.885   1.590   4.410 -0.3046 -0.1044 -0.3578
10528SOL    HW143309   3.811   1.571   4.353  0.0366 -0.7610 -0.5919
10528SOL    HW243310   3.933   1.660   4.365 -0.0613 -0.5885 -0.8500
10529SOL     OW43311   7.005  13.274   4.970  0.3668 -0.0214  0.4366
10529SOL    HW143312   6.920  13.230   4.967  0.3117  0.1147 -0.7914
10529SOL    HW243313   7.006  13.319   5.054 -0.3019 -0.9363  0.9528
10530SOL     OW43314  12.416   9.582  13.631 -0.3477 -0.1582  0.0184
10530SOL    HW143315  12.450   9.493  13.619 -0.0394  0.1477 -1.7455
10530SOL    HW243316  12.451   9.630  13.556 -2.6057  0.8156 -0.4717
10531SOL     OW43317   4.224   0.744   6.209  0.1681  0.3023  0.4391
10531SOL    HW143318   4.163   0.680   6.172 -0.1177  1.2630 -0.7985
10531SOL    HW243319   4.274   0.694   6.274 -1.9034 -0.5128  1.4848
10532SOL     OW43320  11.552   7.964   3.004  0.0947  0.0606  0.5221
10532SOL    HW143321  11.534   7.927   3.090 -3.4499  0.2514  0.0123
10532SOL    HW243322  11.578   7.889   2.950 -2.4925 -0.9987  0.6237
10533SOL     OW43323  12.346   8.559   9.351 -0.2335  0.6817 -0.6356
10533SOL    HW143324  12.429   8.600   9.326 -0.5322  1.5687 -0.2140
10533SOL    HW243325  12.366   8.466   9.358  0.4578  0.7353 -1.6452
10534SOL     OW43326  13.562   2.800   2.730  0.0204  0.1006 -0.0930
10534SOL    HW143327  13.559   2.763   2.642 -3.0651  0.4616 -0.2498
10534SOL    HW243328  13.551   2.894   2.716 -0.4117  0.1661  0.6656
10535SOL     OW43329   5.129   1.744   7.591 -0.2038 -0.5033 -0.3896
10535SOL    HW143330   5.163   1.766   7.504 -0.6834  0.1606 -0.4162
10535SOL    HW243331   5.186   1.791   7.652 -0.5005 -0.1419 -0.3914
10536SOL     OW43332   2.796   6.698  12.091  0.0763  1.2013  0.3228
10536SOL    HW143333   2.722   6.688  12.152  0.9042 -1.4139  1.0439
10536SOL    HW243334   2.755   6.709  12.005 -1.1187  2.6098  1.0354
10537SOL     OW43335  13.163   9.954  13.331 -0.4140  0.5105 -0.1550
10537SOL    HW143336  13.177  10.042  13.295 -1.6390  0.5925 -0.4826
10537SOL    HW243337  13.128   9.904  13.257 -1.0525  0.1379  0.3943
10538SOL     OW43338   4.040   2.224   9.857 -0.2107  0.3148 -0.1903
10538SOL    HW143339   4.024   2.277   9.779 -0.8190 -0.5470 -0.6695
10538SOL    HW243340   4.083   2.145   9.824 -1.8122 -0.7417  0.1060
10539SOL     OW43341   3.452   6.546   2.028  0.1972  0.6252  0.3198
10539SOL    HW143342   3.536   6.511   2.000 -0.2803  0.3472 -0.8088
10539SOL    HW243343   3.462   6.559   2.122  1.3681  0.2281  0.2651
10540SOL     OW43344  12.583   7.068   8.799 -0.5075  0.0598  0.3182
10540SOL    HW143345  12.580   7.021   8.883  1.2212 -1.3574 -0.3591
10540SOL    HW243346  12.557   7.002   8.734 -1.5403  1.0655 -0.3262
10541SOL     OW43347   8.495   3.234   1.983  0.2048 -0.2318  1.1959
10541SOL    HW143348   8.465   3.160   1.930  0.7769 -0.2201  0.8469
10541SOL    HW243349   8.502   3.307   1.921 -1.5793  0.4754  1.7628
10542SOL     OW43350   8.259   9.594   1.110  0.2320 -0.2195 -0.0426
10542SOL    HW143351   8.275   9.662   1.045  1.4552 -2.2646 -2.0315
10542SOL    HW243352   8.310   9.622   1.187  1.2367  0.7882 -1.0382
10543SOL     OW43353   2.329  12.134   4.824 -0.1627 -0.5260  0.1537
10543SOL    HW143354   2.263  12.141   4.893  0.2590 -0.2937  0.5389
10543SOL    HW243355   2.302  12.059   4.772  0.6670 -2.0357  1.8009
10544SOL     OW43356   7.416   7.236  10.896 -0.0721  0.2377 -0.3623
10544SOL    HW143357   7.487   7.265  10.953  0.0347  1.8160 -1.2456
10544SOL    HW243358   7.432   7.143  10.883  1.5580  0.4554 -0.1491
10545SOL     OW43359   9.590   8.864   6.862  0.4802 -0.1011 -0.0861
10545SOL    HW143360   9.648   8.848   6.937 -1.1080  1.3009  1.5465
10545SOL    HW243361   9.515   8.805   6.877  0.4819 -0.3385 -0.9869
10546SOL     OW43362   1.111   2.275   5.198  0.0384 -0.0486  0.1260
10546SOL    HW143363   1.171   2.283   5.124  0.3571 -1.1112  0.2455
10546SOL    HW243364   1.153   2.211   5.256 -0.5315  0.2585  0.8942
10547SOL     OW43365   1.940  10.375   7.708  0.1698 -0.0604  0.0957
10547SOL    HW143366   1.932  10.399   7.616 -1.5085  1.3672  0.5627
10547SOL    HW243367   2.027  10.407   7.734 -0.3437  1.8369 -0.3732
10548SOL     OW43368   4.402   3.026   5.977  0.1555  0.5449 -0.2639
10548SOL    HW143369   4.374   2.944   5.937  0.5078  1.9284 -3.6298
10548SOL    HW243370   4.389   3.012   6.071 -1.7569 -2.5760 -0.8482
10549SOL     OW43371   8.310   7.398   7.603 -0.6569  0.2070 -0.2236
10549SOL    HW143372   8.326   7.362   7.690  0.6979  0.4586 -0.3537
10549SOL    HW243373   8.292   7.491   7.619 -0.5575  0.2231 -0.2083
10550SOL     OW43374   5.374   8.886   8.604 -0.2087 -0.4357 -0.0794
10550SOL    HW143375   5.445   8.915   8.661 -1.1655 -1.0806  1.5172
10550SOL    HW243376   5.414   8.818   8.549  0.2644 -1.3977  1.3639
10551SOL     OW43377   1.883   4.656  12.877  0.0660 -0.1299 -0.2317
10551SOL    HW143378   1.976   4.635  12.875  0.4000  1.2783 -0.8321
10551SOL    HW243379   1.868   4.703  12.795 -0.9031  0.7266  0.4200
10552SOL     OW43380  10.013   8.730   9.583  0.3515  0.5808 -0.0326
10552SOL    HW143381  10.094   8.680   9.595 -0.5615 -1.5813 -1.9969
10552SOL    HW243382   9.945   8.663   9.574 -1.5824  2.3247  0.9146
10553SOL     OW43383   0.312   1.731   4.630 -0.1842 -0.3131  0.0375
10553SOL    HW143384   0.252   1.769   4.694 -0.8620 -0.7704 -0.3189
10553SOL    HW243385   0.297   1.782   4.550  0.3677 -0.0139  0.1141
10554SOL     OW43386  11.331   8.499  11.799  0.2878  0.0112  0.4010
10554SOL    HW143387  11.298   8.421  11.753  0.8459  0.6818 -1.2025
10554SOL    HW243388  11.252   8.543  11.830 -0.1025 -0.5094  0.1722
10555SOL     OW43389   9.814   6.606  12.063  0.0019 -0.1938 -0.2132
10555SOL    HW143390   9.761   6.529  12.081 -1.7229  0.6820 -1.3528
10555SOL    HW243391   9.854   6.628  12.148  0.0223 -1.9322  0.2548
10556SOL     OW43392   5.652   6.155   3.190 -0.2892  0.5569 -0.9118
10556SOL    HW143393   5.647   6.211   3.112 -2.4132 -0.4455 -1.5781
10556SOL    HW243394   5.657   6.217   3.263 -1.0463  1.6007 -1.7115
10557SOL     OW43395   9.775  13.462   8.370  0.0995 -0.2234 -0.1690
10557SOL    HW143396   9.859  13.441   8.412  0.2964  0.1006 -0.3907
10557SOL    HW243397   9.800  13.492   8.283 -0.4140 -2.6534 -1.2110
10558SOL     OW43398   0.924   7.829   6.702  0.3946  0.4609  0.2881
10558SOL    HW143399   0.847   7.880   6.676 -0.1771  0.0306  1.0595
10558SOL    HW243400   0.978   7.889   6.753  1.1372  1.0826 -1.1872
10559SOL     OW43401  12.820   3.503  12.317  0.0057 -0.3436  0.2879
10559SOL    HW143402  12.745   3.563  12.319 -0.8492 -1.3962  1.3555
10559SOL    HW243403  12.888   3.552  12.270 -2.0727 -0.2623 -2.9561
10560SOL     OW43404   1.910   5.464  11.748  0.4506  0.0071  0.1264
10560SOL    HW143405   1.885   5.375  11.726 -0.7723  0.3422  0.0256
10560SOL    HW243406   1.844   5.492  11.811  0.3763  1.0732 -0.3912
10561SOL     OW43407   4.176   7.599  10.971 -0.3280  0.5422  0.4765
10561SOL    HW143408   4.153   7.689  10.947 -0.8416  1.0206  2.5541
10561SOL    HW243409   4.092   7.558  10.990 -0.0722 -0.3358 -0.2185
10562SOL     OW43410   3.799   3.806  11.088 -0.2387  0.0372  0.0292
10562SOL    HW143411   3.786   3.737  11.153 -0.0827  0.3072  0.3523
10562SOL    HW243412   3.888   3.791  11.054 -0.7925 -0.8878 -1.0734
10563SOL     OW43413  10.633   2.313   4.507  0.1427  0.3744  0.0978
10563SOL    HW143414  10.626   2.372   4.432 -0.1779 -1.6088 -1.5050
10563SOL    HW243415  10.695   2.246   4.480 -0.0201 -0.4331  1.5934
10564SOL     OW43416   3.495   2.646   4.542 -0.1708 -0.2223  0.1156
10564SOL    HW143417   3.503   2.741   4.545 -0.2415 -0.2109 -0.0666
10564SOL    HW243418   3.476   2.626   4.450  2.5614 -0.6182 -0.4637
10565SOL     OW43419   7.073  13.456   9.422  0.1928 -0.0465 -0.0196
10565SOL    HW143420   7.055  13.362   9.424  0.1609 -0.0367  1.7843
10565SOL    HW243421   7.159  13.465   9.464 -0.3853  0.8260  1.0248
10566SOL     OW43422  11.992   4.899   3.774  0.6337  0.2138 -0.3609
10566SOL    HW143423  12.013   4.925   3.684  1.8041 -0.4966 -0.3151
10566SOL    HW243424  11.992   4.803   3.772 -1.6528  0.1423 -0.0917
10567SOL     OW43425   3.784   7.715  12.238  0.1786 -0.0220 -0.2467
10567SOL    HW143426   3.700   7.736  12.278  0.8603  0.7602  0.8388
10567SOL    HW243427   3.841   7.693  12.312  1.5703  1.7953 -0.7091
10568SOL     OW43428   2.753   7.260  13.216  0.4421 -0.6682 -0.3668
10568SOL    HW143429   2.791   7.264  13.128  0.4167 -1.3159 -0.4085
10568SOL    HW243430   2.686   7.329  13.216  0.6581 -0.4538 -0.7469
10569SOL     OW43431   1.369  11.194   4.247  0.2823  0.0230  0.5670
10569SOL    HW143432   1.312  11.124   4.215  0.2963  0.1695  0.2169
10569SOL    HW243433   1.456  11.171   4.215  0.0979  0.7966 -0.5554
10570SOL     OW43434   5.944   8.954   2.951 -0.5942 -0.3279  0.0726
10570SOL    HW143435   5.852   8.977   2.937 -0.1520  1.9502  0.5473
10570SOL    HW243436   5.992   9.005   2.886  0.5087  0.6210  1.5673
10571SOL     OW43437   8.379  12.541   0.962  0.2405  0.0971 -0.1525
10571SOL    HW143438   8.306  12.509   1.016 -0.4372 -0.0558 -1.1269
10571SOL    HW243439   8.385  12.477   0.891  0.5512  0.7595 -0.7266
10572SOL     OW43440   3.690   7.797   8.690  0.3025  0.4663 -0.1384
10572SOL    HW143441   3.643   7.714   8.686  0.8147  0.1578  0.1080
10572SOL    HW243442   3.622   7.863   8.707  0.1033 -0.1237  1.5182
10573SOL     OW43443   5.843  12.670   1.210  0.8320  0.5078 -0.1743
10573SOL    HW143444   5.757  12.628   1.212  0.5254  1.0905 -0.7836
10573SOL    HW243445   5.905  12.597   1.207  0.5466 -0.0614  3.1321
10574SOL     OW43446  11.016   8.633   2.088 -0.8465 -0.7311  0.3163
10574SOL    HW143447  10.999   8.700   2.155 -1.6793 -0.3686 -0.2488
10574SOL    HW243448  11.002   8.677   2.005  1.9124 -0.6638 -0.2254
10575SOL     OW43449   7.135   0.258   9.632  0.4021 -0.6102  0.1200
10575SOL    HW143450   7.156   0.206   9.554  1.3958 -0.6541  0.4094
10575SOL    HW243451   7.218   0.299   9.657 -0.1676  0.3982  0.4330
10576SOL     OW43452   0.418   4.558  12.450 -0.4375  0.1870 -0.3489
10576SOL    HW143453   0.361   4.506  12.507 -0.0564 -0.0245 -0.1557
10576SOL    HW243454   0.384   4.647  12.456  0.0632  0.3195  0.8218
10577SOL     OW43455   6.999   0.416   0.032 -0.5353  0.2154  0.2423
10577SOL    HW143456   6.922   0.363   0.013  0.7412 -1.7608  0.3700
10577SOL    HW243457   7.020   0.398   0.123  0.9548 -0.5009 -0.2053
10578SOL     OW43458   3.757  13.426   0.911 -0.1916 -0.3472  0.3888
10578SOL    HW143459   3.679  13.464   0.952  0.7335  2.3487 -0.1789
10578SOL    HW243460   3.725  13.344   0.873 -2.8808  0.8368 -0.1877
10579SOL     OW43461   1.204   1.254   3.107 -0.7736  0.3061  0.5108
10579SOL    HW143462   1.161   1.209   3.180 -0.6389  1.2166  1.1650
10579SOL    HW243463   1.151   1.332   3.092 -1.5081 -0.4613 -1.1968
10580SOL     OW43464   7.101   3.152   7.745 -0.2654  0.0384  0.1200
10580SOL    HW143465   7.033   3.161   7.811 -0.0956  0.2815  0.2611
10580SOL    HW243466   7.071   3.206   7.672  0.3063  1.0486  0.6094
10581SOL     OW43467   3.882   8.444   3.991  0.6104 -0.2831  0.1733
10581SOL    HW143468   3.910   8.356   4.019  1.1417 -0.4544 -0.8554
10581SOL    HW243469   3.804   8.461   4.043  0.4132 -1.4269  0.2874
10582SOL     OW43470   7.514   9.662  11.963  0.3778  0.5814 -0.6104
10582SOL    HW143471   7.547   9.581  11.925 -0.8841  0.5545 -1.6997
10582SOL    HW243472   7.426   9.671  11.927 -0.4172  1.1950  1.3640
10583SOL     OW43473   3.870  11.078   0.682  0.4354  0.0592 -0.0348
10583SOL    HW143474   3.961  11.049   0.694  0.7437  0.2879 -1.6363
10583SOL    HW243475   3.827  11.004   0.640 -0.0167  0.1398  0.2761
10584SOL     OW43476  12.700  12.854  12.002 -0.3898  0.2050 -0.1281
10584SOL    HW143477  12.604  12.846  12.000 -0.2558 -1.6644 -0.8138
10584SOL    HW243478  12.726  12.850  11.910  0.4343 -0.6183  0.1353
10585SOL     OW43479   2.303   5.788  12.079 -0.0031  0.0898  0.2554
10585SOL    HW143480   2.270   5.735  12.007  1.0023  0.1550 -0.2675
10585SOL    HW243481   2.273   5.741  12.158  0.0814 -0.7454 -0.1939
10586SOL     OW43482   5.729   6.295   6.683 -0.2350  0.1080 -0.5124
10586SOL    HW143483   5.725   6.208   6.723  0.9712  0.3779  0.2759
10586SOL    HW243484   5.795   6.286   6.614  1.1305  0.7524  0.6443
10587SOL     OW43485  13.049   8.667   0.093 -0.1080 -0.2969 -0.3070
10587SOL    HW143486  13.090   8.724   0.028 -1.2797 -0.8037 -1.5450
10587SOL    HW243487  13.122   8.618   0.132  0.8398  1.5238  0.3103
10588SOL     OW43488   6.000   9.868   0.133 -0.4394 -0.5439 -0.5254
10588SOL    HW143489   5.944   9.839   0.061 -0.4840 -1.9545  0.0467
10588SOL    HW243490   6.016   9.789   0.185  3.1014 -0.5172 -1.3101
10589SOL     OW43491  13.734  11.696   7.484  0.4140 -0.0596 -0.0571
10589SOL    HW143492  13.710  11.787   7.466 -2.2683 -0.9313 -1.3918
10589SOL    HW243493  13.713  11.683   7.577 -0.4061  0.3385 -0.1838
10590SOL     OW43494  13.449   1.048   4.077 -0.3608  0.6646  0.3587
10590SOL    HW143495  13.376   0.995   4.109 -0.3617  0.9159  0.7853
10590SOL    HW243496  13.526   0.991   4.085 -0.6259  0.0934 -0.9064
10591SOL     OW43497   5.693   6.183   8.105 -0.4259 -0.3299 -0.1941
10591SOL    HW143498   5.767   6.178   8.044 -0.3303  1.6132 -0.3059
10591SOL    HW243499   5.732   6.214   8.187 -1.0133  0.0617 -0.0559
10592SOL     OW43500   6.681  12.551   9.930 -0.3753 -0.0417  0.3607
10592SOL    HW143501   6.597  12.587   9.902 -1.2009 -0.2471  2.4475
10592SOL    HW243502   6.700  12.595  10.013  1.2838 -0.4615  0.2490
10593SOL     OW43503   9.192  10.288  11.432 -0.0585  0.2905  0.1706
10593SOL    HW143504   9.264  10.350  11.447  0.8233 -0.4587 -0.7777
10593SOL    HW243505   9.114  10.342  11.427  0.3716  1.0897  1.6557
10594SOL     OW43506   7.177   3.310   1.196 -0.0410 -0.1351  0.7050
10594SOL    HW143507   7.102   3.252   1.207  0.8701 -1.2995  0.9671
10594SOL    HW243508   7.145   3.380   1.138 -0.1077 -2.9252 -2.9472
10595SOL     OW43509  10.738   1.841   7.739 -0.3368 -0.0962 -0.8097
10595SOL    HW143510  10.646   1.822   7.757 -0.8130  1.9436 -0.7932
10595SOL    HW243511  10.761   1.910   7.802  0.7324  0.5191 -1.8147
10596SOL     OW43512   2.958  12.641   6.272 -0.3366  0.2023 -0.6535
10596SOL    HW143513   3.002  12.686   6.200  1.1675  0.0316  0.1086
10596SOL    HW243514   2.958  12.704   6.344  1.1637 -0.7110  0.2070
10597SOL     OW43515  12.139   8.758   8.958  0.4131 -0.0155  0.6354
10597SOL    HW143516  12.182   8.719   8.882 -1.7256  2.2195 -1.9157
10597SOL    HW243517  12.066   8.699   8.978 -0.9336  0.9379 -1.1951
10598SOL     OW43518   2.635   9.031   9.152 -0.8624 -0.1903 -0.3824
10598SOL    HW143519   2.629   9.050   9.246 -1.5450 -3.0607  0.2653
10598SOL    HW243520   2.675   9.109   9.114  0.8679  0.4782  2.5145
10599SOL     OW43521   4.880  11.190  11.897  0.1475 -0.5317  0.0197
10599SOL    HW143522   4.827  11.222  11.970  1.2814 -0.9868  1.0765
10599SOL    HW243523   4.948  11.257  11.886  0.3673 -0.7855 -0.1855
10600SOL     OW43524   2.746   3.203   9.247 -0.1141  0.0012 -0.1339
10600SOL    HW143525   2.656   3.209   9.215  0.3850 -1.4196 -2.0028
10600SOL    HW243526   2.760   3.109   9.261  1.8535 -0.1453 -2.4737
10601SOL     OW43527  12.354   2.431  13.149  1.0324 -0.8945 -0.3490
10601SOL    HW143528  12.443   2.424  13.115  1.3348  3.8025 -1.2706
10601SOL    HW243529  12.298   2.408  13.074  1.5487 -1.1317 -0.6665
10602SOL     OW43530  12.526   8.771   4.149  0.4222 -0.3231  0.1145
10602SOL    HW143531  12.576   8.802   4.074 -0.5830  1.0251 -0.0456
10602SOL    HW243532  12.437   8.802   4.133 -0.0479 -0.9907  1.3109
10603SOL     OW43533  13.651  12.507   1.651  0.0226  0.5408  0.3500
10603SOL    HW143534  13.629  12.594   1.684 -2.4931 -0.7284  2.2742
10603SOL    HW243535  13.677  12.458   1.729  0.6555 -0.6616 -0.5960
10604SOL     OW43536   2.174   3.886  13.574 -0.1756 -0.1131 -0.5860
10604SOL    HW143537   2.145   3.894  13.665  1.6790 -1.4296  0.1984
10604SOL    HW243538   2.239   3.955  13.563 -0.7663  0.3688 -1.0841
10605SOL     OW43539  11.249   3.226   4.640  0.1178  0.2177 -0.1141
10605SOL    HW143540  11.343   3.208   4.632  0.3404  0.7213  1.1971
10605SOL    HW243541  11.228   3.205   4.731 -0.6211  1.9748  0.1516
10606SOL     OW43542   6.659   3.692  13.588 -0.3404 -0.3154 -0.0504
10606SOL    HW143543   6.645   3.746  13.666 -0.2382  0.0161 -0.2585
10606SOL    HW243544   6.591   3.722  13.527 -0.5558 -0.7232 -0.0106
10607SOL     OW43545   8.155   2.503   5.641 -0.3795 -0.0688  0.5331
10607SOL    HW143546   8.165   2.566   5.712  1.2510  0.0099  0.2637
10607SOL    HW243547   8.218   2.433   5.661  0.8860  0.4559 -1.3290
10608SOL     OW43548   4.401  12.304   5.502  0.1578  0.5375 -0.3695
10608SOL    HW143549   4.470  12.354   5.546  1.0329 -0.7827 -0.2020
10608SOL    HW243550   4.319  12.341   5.536  0.8041  0.6666  1.1043
10609SOL     OW43551   4.038   2.765  13.516 -0.4760  0.0233 -0.0962
10609SOL    HW143552   4.051   2.693  13.578 -0.2034  1.4369  1.5461
10609SOL    HW243553   4.119   2.815  13.520 -1.4351  1.6033  0.3979
10610SOL     OW43554   7.144  11.386   4.469 -0.1522  0.5651  0.2374
10610SOL    HW143555   7.189  11.369   4.551  0.0708 -1.4764 -0.2515
10610SOL    HW243556   7.207  11.437   4.417  0.1461  0.8796  0.9051
10611SOL     OW43557  10.720   9.543   7.783 -0.4080  1.0820 -0.2982
10611SOL    HW143558  10.661   9.491   7.839  0.5400  0.5665  0.2393
10611SOL    HW243559  10.701   9.512   7.694  0.9873 -1.1097  0.1057
10612SOL     OW43560   0.914  12.617   3.766  0.3574 -0.3499 -0.3880
10612SOL    HW143561   0.889  12.553   3.832 -0.2324  1.2986  1.0851
10612SOL    HW243562   0.917  12.700   3.814  1.4640  0.6791 -2.1184
10613SOL     OW43563  12.851   9.060  11.472 -0.2475 -0.2032 -0.3655
10613SOL    HW143564  12.873   9.101  11.388 -0.4667  0.6245 -0.0319
10613SOL    HW243565  12.783   9.117  11.509 -2.2111 -2.0597 -0.8724
10614SOL     OW43566   8.485   8.257   5.392 -0.0081 -0.2323 -0.3715
10614SOL    HW143567   8.560   8.238   5.448 -1.2255  1.7389  2.1042
10614SOL    HW243568   8.438   8.173   5.384  0.6160 -0.7195  0.9088
10615SOL     OW43569  13.546  13.224   5.890  0.1882  0.1335 -0.4121
10615SOL    HW143570  13.503  13.310   5.891  0.1251  0.1612 -2.0277
10615SOL    HW243571  13.483  13.165   5.931 -0.9049  0.3974 -1.6398
10616SOL     OW43572   7.546   6.002  10.583  0.5693 -0.2776  0.0072
10616SOL    HW143573   7.509   6.019  10.497  2.3759  1.3220 -0.5293
10616SOL    HW243574   7.560   5.908  10.585 -0.6363 -0.5011 -0.9358
10617SOL     OW43575  10.872   6.817  10.476  0.0580 -0.4867 -0.5770
10617SOL    HW143576  10.845   6.908  10.488 -2.3080 -0.8658 -2.3041
10617SOL    HW243577  10.902   6.789  10.563  0.8789  1.9089 -0.0225
10618SOL     OW43578   3.545   2.303   7.192 -0.1942  0.1542  0.5513
10618SOL    HW143579   3.462   2.350   7.180 -0.0458  0.0879 -0.8782
10618SOL    HW243580   3.526   2.214   7.164  0.5628  0.3342 -0.6057
10619SOL     OW43581  13.435   4.487   3.323 -0.0366  0.2134  0.2935
10619SOL    HW143582  13.347   4.449   3.317 -0.5248  0.6697  2.9349
10619SOL    HW243583  13.423   4.566   3.376  1.8330  0.8402 -0.1483
10620SOL     OW43584  11.267  10.226   8.497 -0.1829 -0.2715  0.5699
10620SOL    HW143585  11.263  10.170   8.574  2.1948  0.1265  1.0620
10620SOL    HW243586  11.356  10.259   8.496 -0.9412  1.9489 -0.8270
10621SOL     OW43587   8.275   9.896   0.901  0.1492 -0.7455 -0.2873
10621SOL    HW143588   8.203   9.917   0.961 -0.3066  1.6130 -1.5476
10621SOL    HW243589   8.345   9.865   0.958 -1.2779 -1.5161  1.1382
10622SOL     OW43590   8.559   7.159   1.764  0.4572 -0.5396 -0.0275
10622SOL    HW143591   8.571   7.087   1.702  1.3820 -0.4157 -0.0036
10622SOL    HW243592   8.567   7.119   1.850  1.9065 -0.2852 -0.0142
10623SOL     OW43593  12.951   4.655   5.436  0.1514 -0.0886  0.4266
10623SOL    HW143594  12.983   4.604   5.510  0.4899 -1.1699 -0.4423
10623SOL    HW243595  13.001   4.737   5.440 -0.4637  0.2421  1.8813
10624SOL     OW43596   6.936   0.296   2.452 -0.3820  0.1878 -0.0456
10624SOL    HW143597   6.928   0.391   2.451  0.5196  0.2797 -1.1027
10624SOL    HW243598   7.018   0.279   2.499  0.8136  0.1122 -2.0335
10625SOL     OW43599   6.853   3.552   1.267  0.1963  0.0829  0.1364
10625SOL    HW143600   6.805   3.632   1.288 -1.2738 -0.8879  0.6250
10625SOL    HW243601   6.907   3.576   1.191 -0.9876  1.2448 -0.3901
10626SOL     OW43602   4.759  11.508  13.671 -0.0799 -0.4821  0.1278
10626SOL    HW143603   4.790  11.582  13.722 -0.6560 -0.9806  1.2255
10626SOL    HW243604   4.711  11.548  13.598 -0.4577  0.2202  0.7517
10627SOL     OW43605  12.996   5.233  13.126 -0.3622 -0.4152  0.2987
10627SOL    HW143606  13.069   5.176  13.101 -0.4190 -0.5351  0.4021
10627SOL    HW243607  12.918   5.179  13.111 -0.3930 -0.5200  0.8173
10628SOL     OW43608  12.211   9.623   9.201  0.4669 -0.0050  0.2138
10628SOL    HW143609  12.120   9.605   9.223  0.4461 -0.0877  0.0609
10628SOL    HW243610  12.209   9.708   9.158  0.1908 -0.8579 -1.5766
10629SOL     OW43611   0.476   2.345   0.491 -0.2562  0.5538  0.5157
10629SOL    HW143612   0.425   2.403   0.548 -1.0492 -0.2984  0.6837
10629SOL    HW243613   0.567   2.364   0.514 -0.4022  2.7420 -0.4059
10630SOL     OW43614   1.475  10.452  13.392 -0.7117 -0.1959 -0.4432
10630SOL    HW143615   1.496  10.545  13.398 -2.5538  0.2602 -0.5245
10630SOL    HW243616   1.548  10.415  13.342  0.8998  0.8727  1.0102
10631SOL     OW43617   5.032   2.643   8.464 -0.1004 -0.4140 -0.5547
10631SOL    HW143618   5.105   2.597   8.505  0.2965 -0.7714 -1.6042
10631SOL    HW243619   5.045   2.629   8.370 -1.6673 -0.7191 -0.7640
10632SOL     OW43620  13.697   4.149   9.507 -0.4116  0.2362  0.0187
10632SOL    HW143621  13.725   4.186   9.591 -1.1000 -2.3078  1.4553
10632SOL    HW243622  13.603   4.137   9.516 -0.3640 -0.8537 -0.7984
10633SOL     OW43623   3.054   7.280   2.584 -0.2278 -0.2867  0.0059
10633SOL    HW143624   3.114   7.205   2.579 -1.0651 -0.9344 -0.5536
10633SOL    HW243625   3.085   7.338   2.514 -0.4757 -0.7928 -0.5323
10634SOL     OW43626  10.943   3.609   5.541 -0.4451 -0.3250 -0.4158
10634SOL    HW143627  10.970   3.677   5.479 -0.9952  1.4757  1.1929
10634SOL    HW243628  10.848   3.618   5.547 -0.4085 -0.4955  0.6018
10635SOL     OW43629   7.497   6.139  13.628 -0.3403  0.6168 -0.4160
10635SOL    HW143630   7.477   6.232  13.638  1.4145  0.9198  0.5147
10635SOL    HW243631   7.429   6.107  13.568 -0.1882  2.7725 -1.8597
10636SOL     OW43632   0.751   6.114   0.783  0.3066 -0.1842 -0.1820
10636SOL    HW143633   0.666   6.157   0.788  0.2852 -0.0417 -1.4020
10636SOL    HW243634   0.774   6.095   0.874  0.3937  2.5518  0.4579
10637SOL     OW43635   0.535  11.359   2.954  0.2280  0.5781  0.4507
10637SOL    HW143636   0.603  11.336   3.018  0.7982 -1.5991 -0.8317
10637SOL    HW243637   0.530  11.454   2.958  1.6215  0.6382  2.3277
10638SOL     OW43638   2.677   6.239  13.008  0.1964  0.4051 -0.2249
10638SOL    HW143639   2.675   6.334  12.997 -1.9969  0.3218 -1.1366
10638SOL    HW243640   2.740   6.224  13.078  0.0695  2.5806  0.4332
10639SOL     OW43641   5.085   3.473   3.871  0.0743  0.0593 -0.0567
10639SOL    HW143642   5.008   3.443   3.823  0.3906  0.7380 -1.0240
10639SOL    HW243643   5.146   3.500   3.802  0.9469  0.0748  0.7145
10640SOL     OW43644   2.618  13.564   9.189 -0.7422 -0.4716 -0.2704
10640SOL    HW143645   2.690  13.626   9.176 -1.3486  0.3407  0.1856
10640SOL    HW243646   2.660  13.488   9.231 -0.0592 -0.2208 -0.4818
10641SOL     OW43647   6.356  10.681   8.755 -0.1161 -0.1143 -0.0883
10641SOL    HW143648   6.264  10.708   8.762 -0.1233 -0.0352 -0.4408
10641SOL    HW243649   6.404  10.741   8.812 -0.2710 -0.0862  0.0121
10642SOL     OW43650  13.468  12.239   1.072 -0.6021 -0.4525 -0.2191
10642SOL    HW143651  13.543  12.184   1.051 -1.1137 -0.9126 -0.8895
10642SOL    HW243652  13.396  12.178   1.088 -1.3772 -0.0008 -1.7519
10643SOL     OW43653  13.090  11.813   4.853  0.5753  0.1297 -0.8117
10643SOL    HW143654  13.053  11.794   4.767 -1.0347 -0.4930 -0.0154
10643SOL    HW243655  13.014  11.821   4.911  1.5712  1.4758  0.3842
10644SOL     OW43656   0.900  11.219   1.908  0.8455  0.1494 -0.1062
10644SOL    HW143657   0.959  11.225   1.984  0.9986 -1.6592 -0.0387
10644SOL    HW243658   0.863  11.307   1.900  2.0339  0.8055  1.0813
10645SOL     OW43659   9.935  12.162   1.749  0.5250  0.0114  0.3634
10645SOL    HW143660   9.888  12.245   1.757 -0.6029 -0.2320 -2.4347
10645SOL    HW243661   9.998  12.177   1.679  2.9190 -0.4733  2.3011
10646SOL     OW43662   7.450   4.158   2.029 -0.0968 -0.0078  0.2477
10646SOL    HW143663   7.512   4.187   1.962  2.5191 -1.7024  1.7580
10646SOL    HW243664   7.394   4.234   2.045  1.2814  1.4591 -1.5326
10647SOL     OW43665  12.543  12.482  13.317  0.2314  0.2838  0.2536
10647SOL    HW143666  12.614  12.537  13.285  0.2379  0.4261  0.5111
10647SOL    HW243667  12.466  12.539  13.317 -0.2166 -0.2754 -1.4493
10648SOL     OW43668   0.315   4.104   8.194 -0.0756  0.6011 -0.3948
10648SOL    HW143669   0.328   4.016   8.230  0.1166  1.0814  0.7320
10648SOL    HW243670   0.233   4.097   8.144  0.4900 -0.4816 -1.2353
10649SOL     OW43671   7.764   3.646  13.355 -0.6324 -0.0452  0.0185
10649SOL    HW143672   7.782   3.732  13.316 -0.6347 -0.6045 -1.2712
10649SOL    HW243673   7.837   3.631  13.414 -0.6928  0.8941  0.3474
10650SOL     OW43674   9.399   4.292  11.843 -0.0428 -0.1725 -0.3548
10650SOL    HW143675   9.448   4.212  11.824 -0.4272 -0.2886 -0.8917
10650SOL    HW243676   9.430   4.319  11.929  1.7077  0.3251 -1.0959
10651SOL     OW43677   3.542   8.774   0.621  0.4813 -0.2448  0.2279
10651SOL    HW143678   3.492   8.752   0.700  0.1036 -0.9073 -0.1910
10651SOL    HW243679   3.620   8.819   0.655 -0.3563  0.7388  0.8821
10652SOL     OW43680  12.883   4.197   7.366 -0.3860 -0.3510 -0.0594
10652SOL    HW143681  12.969   4.155   7.359 -0.5356 -0.6787  0.0447
10652SOL    HW243682  12.822   4.124   7.379 -0.9073 -0.2866 -1.8908
10653SOL     OW43683  10.129  10.025   1.944 -0.2080  0.4681 -0.0349
10653SOL    HW143684  10.047  10.024   1.994  0.3437  2.3044  1.0126
10653SOL    HW243685  10.198  10.027   2.010  0.6804 -0.3143 -0.9038
10654SOL     OW43686   4.831  10.352  11.510  0.5538 -0.4933 -0.0386
10654SOL    HW143687   4.807  10.386  11.597 -1.1060 -0.6941 -0.3897
10654SOL    HW243688   4.927  10.343  11.514  0.5483 -0.2232  1.6657
10655SOL     OW43689  13.339   8.663   2.158 -0.7326 -0.1367  0.1961
10655SOL    HW143690  13.258   8.713   2.156 -0.5443  0.1702 -1.8067
10655SOL    HW243691  13.382   8.690   2.240 -1.4989  1.5489  0.0814
10656SOL     OW43692   3.137  10.060   0.871 -0.1023  0.0952  0.2967
10656SOL    HW143693   3.056  10.068   0.820 -1.6236 -2.1817  2.1812
10656SOL    HW243694   3.138  10.138   0.927  0.0871  1.1100 -1.0404
10657SOL     OW43695   7.546  11.519   7.440 -0.1036  0.2311  0.0013
10657SOL    HW143696   7.476  11.454   7.442 -1.6597  1.8564  1.2204
10657SOL    HW243697   7.601  11.493   7.366 -1.9820 -1.0905 -0.9996
10658SOL     OW43698  12.152   3.037  10.863 -0.1255 -0.5821  0.3551
10658SOL    HW143699  12.240   3.002  10.871 -0.6056 -1.6333  1.3117
10658SOL    HW243700  12.151   3.114  10.920 -0.4770 -1.9449  2.2734
10659SOL     OW43701   8.246  10.918  12.889 -0.1922  0.1033 -0.9487
10659SOL    HW143702   8.155  10.948  12.898 -0.4413 -0.8920  0.1333
10659SOL    HW243703   8.239  10.823  12.880  0.7729 -0.0749 -0.0359
10660SOL     OW43704   2.261  10.819  12.124 -0.0970 -0.4540 -0.7026
10660SOL    HW143705   2.292  10.767  12.050 -0.3656  0.1170 -1.2230
10660SOL    HW243706   2.336  10.874  12.148 -0.3505  0.1583 -1.2748
10661SOL     OW43707   0.166   5.090   3.306  0.1700 -0.0850  0.2607
10661SOL    HW143708   0.239   5.032   3.328  1.1348  0.7416 -0.6991
10661SOL    HW243709   0.174   5.106   3.212  0.2766  2.0449  0.5763
10662SOL     OW43710   7.045  12.249   7.547 -0.1856  0.0372 -0.0368
10662SOL    HW143711   7.109  12.181   7.529 -0.6202 -0.4825  0.3485
10662SOL    HW243712   6.978  12.206   7.600 -1.7502  0.0856 -1.8399
10663SOL     OW43713   7.687   2.657  11.654  0.1231 -0.1971 -0.3876
10663SOL    HW143714   7.689   2.594  11.581 -0.8685  0.8848 -1.3970
10663SOL    HW243715   7.772   2.700  11.650 -0.3208  0.6366 -1.6687
10664SOL     OW43716   0.052   9.988   4.836 -0.5392  0.3257 -0.2535
10664SOL    HW143717   0.055   9.912   4.778 -0.9229 -0.4537  0.7093
10664SOL    HW243718   0.087   9.956   4.920  1.1178  1.7221 -0.3464
10665SOL     OW43719   6.118   4.996   2.979  0.3298 -1.1053 -0.1449
10665SOL    HW143720   6.205   4.979   2.941  1.1064 -0.8158  1.4354
10665SOL    HW243721   6.082   5.065   2.924  1.0257 -1.3376 -0.9238
10666SOL     OW43722   2.633   3.136   7.050 -0.8183  0.1574 -0.6579
10666SOL    HW143723   2.659   3.050   7.085  0.7542  0.9218  0.1331
10666SOL    HW243724   2.547   3.152   7.089 -1.3790 -1.2754 -1.2330
10667SOL     OW43725   8.864   0.363   3.819  0.1813  0.1446  0.3710
10667SOL    HW143726   8.911   0.418   3.882  0.0551  0.6981 -0.0105
10667SOL    HW243727   8.772   0.387   3.831  0.0165 -0.7039  0.8914
10668SOL     OW43728  13.214   8.067  11.667  0.1157 -0.0967 -0.3364
10668SOL    HW143729  13.208   8.162  11.656  1.4505  0.2128  1.3008
10668SOL    HW243730  13.304   8.045  11.646 -0.0493 -0.9363 -0.2196
10669SOL     OW43731   9.337   7.612   7.167 -0.2127  0.1843 -0.1436
10669SOL    HW143732   9.362   7.550   7.236  0.4276  0.7477  0.1470
10669SOL    HW243733   9.411   7.611   7.106 -0.2507  0.5654 -0.2002
10670SOL     OW43734   3.419  11.852   3.672 -0.2936 -0.0294 -0.1303
10670SOL    HW143735   3.330  11.884   3.688 -0.0207  1.9563 -2.0395
10670SOL    HW243736   3.407  11.774   3.619 -0.8985 -0.9984  1.3545
10671SOL     OW43737   9.906  10.966  10.968  0.2958 -0.0662  0.2633
10671SOL    HW143738   9.950  10.977  11.053  0.7106  1.3002 -0.0975
10671SOL    HW243739   9.977  10.967  10.904 -0.0613 -0.5282 -0.1398
10672SOL     OW43740  12.081   1.387   2.008  0.3247  0.1641  0.3822
10672SOL    HW143741  12.001   1.399   1.957  0.5260 -0.2152 -0.0294
10672SOL    HW243742  12.074   1.298   2.043  1.1313 -0.3430 -0.6793
10673SOL     OW43743  10.411   9.499   2.061 -0.2536  0.6019 -0.3201
10673SOL    HW143744  10.361   9.563   2.011  0.4717  0.7292 -0.9029
10673SOL    HW243745  10.502   9.526   2.051 -0.0516  0.3369  0.6650
10674SOL     OW43746   4.713   2.631   5.068  0.2432 -0.2329  0.4411
10674SOL    HW143747   4.699   2.537   5.066  0.9819 -0.3345  0.1564
10674SOL    HW243748   4.661   2.661   5.143 -0.4864 -0.7774  0.1599
10675SOL     OW43749   7.372   3.096   3.434  0.0844  0.2672 -0.1029
10675SOL    HW143750   7.403   3.008   3.415  1.5892  0.0524  2.9081
10675SOL    HW243751   7.450   3.151   3.429 -0.3491  0.9690  0.5909
10676SOL     OW43752   4.160   7.903   8.508  0.1765  0.7778 -0.0095
10676SOL    HW143753   4.193   7.985   8.544 -0.1748  0.3570  1.3269
10676SOL    HW243754   4.066   7.918   8.498  0.4441  1.3981 -2.2334
10677SOL     OW43755   8.666   2.603   2.252  0.2949 -0.0601 -0.5134
10677SOL    HW143756   8.711   2.642   2.327 -1.5191 -0.0799  0.6578
10677SOL    HW243757   8.589   2.658   2.239 -0.0680 -0.7901 -1.5668
10678SOL     OW43758  10.354  13.504  12.850  0.3840  0.3267  0.5636
10678SOL    HW143759  10.329  13.428  12.901  1.2919 -0.0234  0.5069
10678SOL    HW243760  10.303  13.576  12.887 -2.3281 -0.6783 -0.9125
10679SOL     OW43761   8.198   0.789   1.426  0.3484 -0.5481 -0.4361
10679SOL    HW143762   8.232   0.806   1.339 -2.8617  3.2709 -1.2480
10679SOL    HW243763   8.143   0.711   1.416 -0.3855  0.1322 -2.0381
10680SOL     OW43764  12.493   5.921   8.699 -0.2358 -0.4406 -0.0572
10680SOL    HW143765  12.445   5.996   8.664  0.1867 -0.4806 -0.7465
10680SOL    HW243766  12.576   5.920   8.651  0.3416 -0.5505  0.9061
10681SOL     OW43767   1.347   8.416   8.526  0.2917 -0.4433  0.4604
10681SOL    HW143768   1.441   8.404   8.510  0.7021  2.2614  0.3715
10681SOL    HW243769   1.342   8.450   8.616 -0.5232  0.0350  0.2480
10682SOL     OW43770   1.514   1.217   9.578  0.0253  0.3001 -0.1758
10682SOL    HW143771   1.552   1.304   9.591  1.1803  0.0278 -1.4129
10682SOL    HW243772   1.500   1.183   9.666 -0.0801  1.5790  0.3241
10683SOL     OW43773   9.303   0.637   3.398  0.5426  0.8084  0.7479
10683SOL    HW143774   9.233   0.593   3.350  1.0475  0.0828  0.6428
10683SOL    HW243775   9.322   0.578   3.471  0.4558  1.4198  1.2628
10684SOL     OW43776   1.441   8.681  13.195 -0.2774 -0.1364  0.1440
10684SOL    HW143777   1.499   8.756  13.212  2.8900 -2.4922  0.6387
10684SOL    HW243778   1.355   8.710  13.227  0.8867  3.0514  0.8062
10685SOL     OW43779   8.208  10.874   5.471 -0.0155 -0.1970 -0.1029
10685SOL    HW143780   8.279  10.902   5.528 -0.3320  0.5336 -0.0622
10685SOL    HW243781   8.250  10.823   5.402  0.7772  1.6769 -1.0677
10686SOL     OW43782   6.808   5.056   7.077 -0.2540 -0.2372  0.9209
10686SOL    HW143783   6.866   5.076   7.004 -1.5968  0.3381 -0.0233
10686SOL    HW243784   6.721   5.083   7.048 -0.7409  0.6894  2.9912
10687SOL     OW43785   1.149  10.276  10.513 -0.0516  0.5690  0.2823
10687SOL    HW143786   1.155  10.201  10.571 -0.2198  1.1295  1.0340
10687SOL    HW243787   1.239  10.289  10.481 -0.2032 -0.5880 -0.7039
10688SOL     OW43788  13.124   8.942  10.761 -0.0848 -0.0398  0.4002
10688SOL    HW143789  13.074   8.997  10.701 -0.7085  0.9201  1.7531
10688SOL    HW243790  13.098   8.852  10.739 -0.7871  0.3311 -0.3244
10689SOL     OW43791   3.817  11.412   6.507 -0.3339  0.0857  0.7508
10689SOL    HW143792   3.787  11.501   6.526 -2.5670 -0.0982 -1.2978
10689SOL    HW243793   3.878  11.423   6.433 -1.7253 -0.1236 -0.4763
10690SOL     OW43794   3.762   7.167  11.639 -0.3888  0.3921 -0.4964
10690SOL    HW143795   3.804   7.102  11.694  0.7242  1.3556 -0.1900
10690SOL    HW243796   3.723   7.229  11.700 -1.1147  0.2369 -0.7908
10691SOL     OW43797   7.761   6.152  10.653 -0.5359  0.3632  0.1929
10691SOL    HW143798   7.713   6.206  10.715 -1.0192  2.5875 -2.0088
10691SOL    HW243799   7.696   6.091  10.618 -0.5818  0.0589  0.7924
10692SOL     OW43800  10.948   8.147  10.440  0.2875 -0.4791 -0.8243
10692SOL    HW143801  10.908   8.208  10.503 -0.5586 -0.5902 -1.2468
10692SOL    HW243802  10.905   8.063  10.457  1.5437 -1.0125 -0.1564
10693SOL     OW43803   6.487  10.987   3.072 -0.2153  0.2440  0.2950
10693SOL    HW143804   6.427  11.037   3.127 -0.3453  1.0501 -0.5591
10693SOL    HW243805   6.542  11.053   3.030  0.1297 -0.3795 -0.2514
10694SOL     OW43806   7.629   4.525  13.031  0.0947 -0.9389 -0.3838
10694SOL    HW143807   7.688   4.472  13.085  0.2320 -1.0363 -0.6290
10694SOL    HW243808   7.543   4.485  13.045 -0.2285  0.2676  1.3393
10695SOL     OW43809   3.885  10.035   6.163 -0.3652  0.1668 -0.6819
10695SOL    HW143810   3.840  10.099   6.108  1.5364  2.8290  0.6431
10695SOL    HW243811   3.967  10.077   6.188  0.6562 -2.5038  0.9667
10696SOL     OW43812  13.140  10.908   8.437  0.0475  0.2008  0.1645
10696SOL    HW143813  13.158  10.889   8.345 -1.8259 -3.5514  0.3470
10696SOL    HW243814  13.197  10.847   8.485 -0.2743  0.8631  1.4224
10697SOL     OW43815  11.326   5.555  12.132  0.0034  0.1885  0.1713
10697SOL    HW143816  11.285   5.538  12.047 -0.6972 -0.3548  0.6190
10697SOL    HW243817  11.263   5.526  12.197  0.6683  0.2985  0.8895
10698SOL     OW43818   3.011  12.276  10.183 -0.0493  0.0149  0.7760
10698SOL    HW143819   3.070  12.328  10.130 -0.3001  0.1721  0.6487
10698SOL    HW243820   3.045  12.187  10.178  0.1145  0.0871  0.6178
10699SOL     OW43821   5.184   8.368   5.788  0.1013 -0.0569 -0.0268
10699SOL    HW143822   5.251   8.301   5.800 -1.4293 -1.6352  0.1047
10699SOL    HW243823   5.109   8.321   5.753 -1.1067  1.5724  0.2424
10700SOL     OW43824   5.363   3.225  10.565  0.0159 -0.5813 -0.0608
10700SOL    HW143825   5.299   3.154  10.559 -2.7056  1.7519 -0.6474
10700SOL    HW243826   5.344   3.267  10.649  2.8652 -1.5343  1.1995
10701SOL     OW43827  12.230   5.221   7.420  0.1758 -0.0854 -0.4810
10701SOL    HW143828  12.309   5.167   7.417 -0.2916 -0.8946  0.8597
10701SOL    HW243829  12.177   5.190   7.346  1.1784  0.6162 -1.5226
10702SOL     OW43830   9.640   2.852   3.064  0.5885  0.2645 -0.4313
10702SOL    HW143831   9.548   2.873   3.051  0.5904  0.0790 -0.7343
10702SOL    HW243832   9.640   2.765   3.103  0.5772  0.8438  0.9559
10703SOL     OW43833  11.946  10.719   2.467 -0.1440 -0.2448 -0.3660
10703SOL    HW143834  12.039  10.739   2.463 -0.3326  0.6745 -0.2762
10703SOL    HW243835  11.940  10.627   2.441  1.0478 -1.1331  2.2312
10704SOL     OW43836   3.682   0.170  10.912 -0.2691  0.5640  0.0332
10704SOL    HW143837   3.655   0.210  10.995 -0.7885 -0.8878  0.5992
10704SOL    HW243838   3.642   0.083  10.913  3.1722 -1.2093  0.2335
10705SOL     OW43839   6.498  12.558   5.349 -0.0643  0.9484 -0.4343
10705SOL    HW143840   6.452  12.502   5.287  0.0558  0.9540 -0.5307
10705SOL    HW243841   6.571  12.505   5.380  0.0266  1.0359 -0.4959
10706SOL     OW43842  11.181  11.703   8.857 -0.2726 -0.4939 -0.1362
10706SOL    HW143843  11.199  11.797   8.848  3.2678 -1.1509 -1.5552
10706SOL    HW243844  11.155  11.675   8.770 -3.1580 -0.6642  0.6620
10707SOL     OW43845   8.159   3.074   5.506 -0.6785  0.7691 -0.0212
10707SOL    HW143846   8.205   3.054   5.588 -1.2047  0.5354  0.2229
10707SOL    HW243847   8.072   3.102   5.534 -0.7451  1.0332 -0.4888
10708SOL     OW43848  11.047   2.265   1.249  0.1004 -0.5362  0.4009
10708SOL    HW143849  11.026   2.210   1.325  0.3927 -2.0944 -0.5996
10708SOL    HW243850  11.140   2.248   1.232 -0.2923 -1.3288 -1.1432
10709SOL     OW43851   7.335   9.968   2.366  0.0202  0.5777  0.1516
10709SOL    HW143852   7.336   9.872   2.374 -1.1952  0.6228  1.1709
10709SOL    HW243853   7.251   9.994   2.405  0.8055  2.1474  0.8623
10710SOL     OW43854   7.538   2.328   5.282 -0.8155  0.3789 -0.2309
10710SOL    HW143855   7.464   2.270   5.301 -0.1067 -0.1324  1.0941
10710SOL    HW243856   7.518   2.365   5.196 -0.8665 -2.5356 -1.6232
10711SOL     OW43857   4.413   1.784   6.345  0.8290  0.5150 -0.4337
10711SOL    HW143858   4.329   1.742   6.365  2.6007 -3.0369  0.2962
10711SOL    HW243859   4.455   1.794   6.431  1.8850  0.4874 -0.9296
10712SOL     OW43860   9.503   4.356  12.092  0.1708 -0.1903  0.2774
10712SOL    HW143861   9.435   4.318  12.148 -0.4987 -1.1097 -1.1166
10712SOL    HW243862   9.575   4.292  12.094  0.0309 -0.3594 -0.1447
10713SOL     OW43863   7.872   0.017  12.339 -0.1244 -0.4047  0.0003
10713SOL    HW143864   7.851   0.037  12.248  0.4974 -1.4004 -0.3819
10713SOL    HW243865   7.834  -0.070  12.354 -0.5487 -0.0832  0.8038
10714SOL     OW43866   1.862   4.857   7.266  0.2981 -0.5687  0.3558
10714SOL    HW143867   1.917   4.914   7.211  0.0005 -0.6776 -0.0563
10714SOL    HW243868   1.900   4.770   7.255 -1.0598 -0.9846 -1.4082
10715SOL     OW43869  11.917  11.489   4.449 -0.2112  0.3141 -0.0912
10715SOL    HW143870  11.898  11.557   4.385  0.4905 -0.1671 -0.8212
10715SOL    HW243871  11.949  11.536   4.526 -0.7739  0.8712 -0.1942
10716SOL     OW43872   8.595   3.388   4.724 -0.5281 -0.3159 -0.1757
10716SOL    HW143873   8.571   3.431   4.806  0.6934 -2.7819  1.6111
10716SOL    HW243874   8.682   3.421   4.703 -0.9550  0.5267 -0.6786
10717SOL     OW43875   5.911   8.472  12.377  0.3677 -0.3791 -0.4687
10717SOL    HW143876   5.957   8.553  12.358  1.8231 -1.0169  0.1360
10717SOL    HW243877   5.934   8.413  12.305  0.7479 -0.7826 -0.0333
10718SOL     OW43878   8.909   9.476  11.872 -0.1430 -0.0436  0.5990
10718SOL    HW143879   8.963   9.413  11.921  1.6333 -0.7580 -2.0436
10718SOL    HW243880   8.831   9.427  11.848 -0.3265 -0.1553  1.3827
10719SOL     OW43881  10.223  12.182   8.184 -0.3765 -0.0513 -0.1882
10719SOL    HW143882  10.128  12.166   8.176 -0.1213 -0.9329 -1.9018
10719SOL    HW243883  10.250  12.128   8.258 -1.1959  0.1574  0.2772
10720SOL     OW43884   6.165  11.223  10.531 -0.0882  0.4616  0.4373
10720SOL    HW143885   6.172  11.148  10.591  1.3371  0.9323  0.9051
10720SOL    HW243886   6.179  11.299  10.587 -2.3362  1.1762  0.1160
10721SOL     OW43887  13.046   7.546   7.042 -0.4240  0.1180 -0.3876
10721SOL    HW143888  13.092   7.628   7.025 -0.7969  0.2017 -1.0374
10721SOL    HW243889  13.021   7.551   7.134  2.7654 -0.8881  0.6842
10722SOL     OW43890   2.156   5.378   1.294  0.5418  0.2255  0.3214
10722SOL    HW143891   2.216   5.338   1.232 -0.4552  0.4854 -0.8412
10722SOL    HW243892   2.167   5.472   1.282 -1.8306  0.3222 -1.7164
10723SOL     OW43893   1.233   6.696  10.064 -0.2679 -0.3854  0.2216
10723SOL    HW143894   1.299   6.764  10.049 -1.4967  0.6511 -0.7983
10723SOL    HW243895   1.262   6.650  10.142  0.6674  1.2665  0.8916
10724SOL     OW43896  13.336   9.193   5.069 -0.1880  0.4542 -0.3574
10724SOL    HW143897  13.266   9.258   5.082 -1.1547 -0.5206 -0.5534
10724SOL    HW243898  13.340   9.183   4.974  0.1573  0.4310 -0.3400
10725SOL     OW43899   1.830  11.801   0.327  0.3270  0.1184 -0.2616
10725SOL    HW143900   1.820  11.737   0.397 -0.2677  1.5562  1.0145
10725SOL    HW243901   1.777  11.766   0.255 -1.4413  0.0336  1.0175
10726SOL     OW43902   0.403   4.956   3.359 -0.0306 -0.1939  0.0181
10726SOL    HW143903   0.481   5.011   3.367 -0.9154  0.8752  1.7045
10726SOL    HW243904   0.403   4.902   3.439 -0.1170 -1.4333 -0.7840
10727SOL     OW43905   3.515   3.131  11.833 -0.2472  0.2253  0.1745
10727SOL    HW143906   3.484   3.040  11.834  0.4871 -0.0357  1.1890
10727SOL    HW243907   3.476   3.169  11.754  0.6638 -1.3987 -1.1287
10728SOL     OW43908   7.689  10.265   3.369  0.0470 -0.3724  0.3346
10728SOL    HW143909   7.612  10.309   3.331  0.5898 -0.5927 -1.0937
10728SOL    HW243910   7.729  10.331   3.425 -1.5686 -0.4794  1.7154
10729SOL     OW43911   7.540   7.594   6.172  0.6238 -0.4769 -0.3991
10729SOL    HW143912   7.632   7.603   6.144  0.8471  0.6763  0.6241
10729SOL    HW243913   7.531   7.502   6.196  1.3301 -0.7497 -1.1376
10730SOL     OW43914   9.232   4.523   8.013 -0.3661 -0.3103 -0.5860
10730SOL    HW143915   9.291   4.518   7.938 -2.4543 -0.3936 -2.3111
10730SOL    HW243916   9.172   4.594   7.992 -1.0298 -0.3567  1.0062
10731SOL     OW43917   1.709   3.090   5.842 -0.0874  0.1953 -0.1614
10731SOL    HW143918   1.752   3.016   5.799  0.1743  0.4298 -0.3157
10731SOL    HW243919   1.777   3.127   5.899 -0.4108 -0.0660  0.3935
10732SOL     OW43920   1.866  11.626   5.571  0.0605  0.4463  0.2541
10732SOL    HW143921   1.905  11.552   5.617  1.4697  1.4695  0.7935
10732SOL    HW243922   1.871  11.698   5.634 -3.2531  0.5649  0.5649
10733SOL     OW43923   4.691   2.196   6.470  0.0399 -0.5180 -0.3073
10733SOL    HW143924   4.745   2.117   6.463 -0.0366 -0.6282  0.3306
10733SOL    HW243925   4.641   2.197   6.389 -0.4914 -1.5260 -0.0077
10734SOL     OW43926   8.395   3.769   6.551  0.2253  0.2891  0.6928
10734SOL    HW143927   8.411   3.684   6.592 -2.5346 -0.8316 -0.2851
10734SOL    HW243928   8.447   3.767   6.470 -0.4869 -0.8957  0.2351
10735SOL     OW43929   8.460  10.587   9.598  0.0140 -0.2039 -0.4749
10735SOL    HW143930   8.470  10.673   9.558  0.2641  0.0960  0.2041
10735SOL    HW243931   8.421  10.533   9.530 -0.5192  0.5492 -0.7837
10736SOL     OW43932  12.298   8.786   9.187 -0.0324  0.3624 -0.4363
10736SOL    HW143933  12.221   8.792   9.132  0.2739 -1.0728 -1.0778
10736SOL    HW243934  12.306   8.692   9.206 -0.2738  0.8036  2.2669
10737SOL     OW43935   2.815  11.784  12.860 -0.8273  0.2040  0.3009
10737SOL    HW143936   2.829  11.822  12.947  0.4038  0.8596 -0.1619
10737SOL    HW243937   2.893  11.808  12.810 -0.4439 -2.0743 -0.3242
10738SOL     OW43938   0.425   1.094   0.088  0.0230 -0.4464  0.1757
10738SOL    HW143939   0.352   1.060   0.036 -0.3389 -1.0793  1.0777
10738SOL    HW243940   0.487   1.128   0.023 -0.5680 -0.9159 -0.6487
10739SOL     OW43941   0.515  10.935   8.869 -0.1231  0.5061  0.0222
10739SOL    HW143942   0.571  11.012   8.879 -0.3578  0.4225  2.4639
10739SOL    HW243943   0.469  10.949   8.786  0.1109  2.8101  0.2354
10740SOL     OW43944  11.651   4.971   1.432 -0.4612 -0.3273  0.6979
10740SOL    HW143945  11.685   5.060   1.435 -2.3619  0.5287 -0.9337
10740SOL    HW243946  11.559   4.980   1.456 -1.0916 -1.5739 -1.0873
10741SOL     OW43947  11.908  10.012   7.070 -0.1512  0.0476  0.3029
10741SOL    HW143948  11.948   9.981   7.152 -0.9335  0.4262  0.8406
10741SOL    HW243949  11.903  10.107   7.080 -0.4469  0.0773 -0.0927
10742SOL     OW43950   9.595   3.053   1.821 -0.1703  0.0302 -1.1403
10742SOL    HW143951   9.627   2.963   1.833 -1.7807 -0.4851 -0.3271
10742SOL    HW243952   9.502   3.042   1.802 -0.5153  1.5716 -0.4640
10743SOL     OW43953   1.566   9.412   7.596  0.0461 -0.1165 -0.3746
10743SOL    HW143954   1.488   9.377   7.554  1.0920 -0.5212 -2.0923
10743SOL    HW243955   1.548   9.505   7.607 -0.5838 -0.1588 -0.9747
10744SOL     OW43956  13.340   5.465   6.517 -0.5343 -0.2019 -0.2346
10744SOL    HW143957  13.356   5.379   6.479  1.9013  0.0437  0.0641
10744SOL    HW243958  13.349   5.453   6.611  0.1679  0.4049 -0.2074
10745SOL     OW43959   0.228   3.455   3.442  0.3623 -0.4370  0.1885
10745SOL    HW143960   0.297   3.389   3.449  0.3221 -0.5661 -0.5423
10745SOL    HW243961   0.154   3.417   3.489  0.2058 -1.1084 -0.5690
10746SOL     OW43962   8.648   0.862  12.756 -0.1902  0.0791 -0.0874
10746SOL    HW143963   8.561   0.899  12.771 -0.2540 -1.0643  3.2317
10746SOL    HW243964   8.630   0.777  12.714 -0.6220  0.1675 -0.0917
10747SOL     OW43965   3.800  12.899   3.127  0.0719  0.2486  0.2148
10747SOL    HW143966   3.862  12.860   3.189 -0.2084 -0.0315  0.3223
10747SOL    HW243967   3.845  12.976   3.092  0.9156 -0.5839 -0.5506
10748SOL     OW43968   6.763   5.743  10.087 -0.0507 -0.2210 -0.4136
10748SOL    HW143969   6.812   5.672  10.046 -2.1401 -2.4013  0.5635
10748SOL    HW243970   6.797   5.823  10.047  0.1286 -1.9541 -4.0927
10749SOL     OW43971   5.936   0.643   2.942 -0.2771 -0.1195 -0.3944
10749SOL    HW143972   5.846   0.662   2.913 -0.1613 -0.9788 -1.3850
10749SOL    HW243973   5.950   0.552   2.918  0.9119  0.0381 -0.3571
10750SOL     OW43974   4.191   0.631  12.191 -0.6746 -0.1623  0.5973
10750SOL    HW143975   4.266   0.575  12.172 -0.4952  0.1442  0.3932
10750SOL    HW243976   4.116   0.586  12.152 -0.5926 -0.4464  0.7643
10751SOL     OW43977   2.709  11.921   9.125  0.6810 -0.5479 -0.0292
10751SOL    HW143978   2.769  11.994   9.144  1.5424 -1.2867  0.1905
10751SOL    HW243979   2.690  11.930   9.031 -1.7831  1.7913  0.5537
10752SOL     OW43980   2.047  12.611   3.715  0.0520 -0.2977 -0.3846
10752SOL    HW143981   1.978  12.625   3.650  0.5412  0.7175 -0.7096
10752SOL    HW243982   2.053  12.693   3.763 -0.7682 -1.2631  1.4470
10753SOL     OW43983   6.530   5.815   7.261 -0.1640  0.3326 -0.4447
10753SOL    HW143984   6.564   5.898   7.295  2.9511 -0.5351 -1.1566
10753SOL    HW243985   6.584   5.748   7.302 -1.1802 -1.2256 -1.5509
10754SOL     OW43986  10.595   7.839  11.862  0.3452 -0.0414  0.0863
10754SOL    HW143987  10.551   7.868  11.942  0.7139  1.9784 -0.3734
10754SOL    HW243988  10.629   7.752  11.883  2.3395  1.2643  2.9281
10755SOL     OW43989   2.530   4.509  11.556 -0.0304 -0.3740 -0.0004
10755SOL    HW143990   2.474   4.580  11.525  0.8798  0.6538  0.6430
10755SOL    HW243991   2.612   4.521  11.507  0.4174 -0.4593  0.7185
10756SOL     OW43992   2.193  11.173   5.745 -0.4408  0.4332 -0.3622
10756SOL    HW143993   2.185  11.144   5.836  0.8300 -1.4681 -0.8058
10756SOL    HW243994   2.202  11.268   5.751 -1.9214  0.5310  1.3646
10757SOL     OW43995   0.905   0.183   7.501 -0.2377 -0.0888  0.9996
10757SOL    HW143996   0.860   0.246   7.558 -0.7161  1.1760 -0.7119
10757SOL    HW243997   0.997   0.190   7.527 -0.4166  0.6006  1.5047
10758SOL     OW43998   3.180   0.795  12.368 -0.1051 -0.1877 -0.0259
10758SOL    HW143999   3.232   0.766  12.443  2.1175  0.1848 -1.3115
10758SOL    HW244000   3.180   0.720  12.309 -1.5817 -0.3750  0.1714
10759SOL     OW44001  11.772   0.324  11.572 -0.5163 -0.1614  0.0775
10759SOL    HW144002  11.686   0.304  11.607 -0.5106 -1.9721 -0.8099
10759SOL    HW244003  11.806   0.239  11.541  0.4264  0.9184 -2.1016
10760SOL     OW44004   2.057   8.312   5.143 -0.4446 -0.2324  0.5356
10760SOL    HW144005   2.072   8.264   5.225  0.9784  2.9314  2.3217
10760SOL    HW244006   2.126   8.282   5.084  0.0083 -0.8434  1.3618
10761SOL     OW44007   8.352  10.412   5.857  0.5651 -0.3068  0.2982
10761SOL    HW144008   8.409  10.353   5.905  0.7458  0.5420  1.1655
10761SOL    HW244009   8.384  10.500   5.879  1.0677  0.1202 -1.8978
10762SOL     OW44010  12.335   7.709  13.483  0.2715 -0.6384  0.3059
10762SOL    HW144011  12.347   7.756  13.401 -0.3122 -1.0706 -0.0332
10762SOL    HW244012  12.380   7.625  13.468 -1.8010 -1.6835 -0.4506
10763SOL     OW44013   5.858  11.255   9.166 -0.2898 -0.1233  0.0109
10763SOL    HW144014   5.936  11.280   9.216 -1.7460  1.9826  1.4406
10763SOL    HW244015   5.874  11.290   9.078  1.2061 -1.5616 -0.3304
10764SOL     OW44016   1.834   7.951   4.057  0.6068  0.3762 -0.1657
10764SOL    HW144017   1.766   7.930   4.121  0.5653 -0.2601 -0.4087
10764SOL    HW244018   1.787   7.976   3.978  0.6590  1.0793  0.0151
10765SOL     OW44019   8.266   3.262  10.727 -0.6810 -0.2113 -1.0422
10765SOL    HW144020   8.344   3.314  10.749  0.3046 -1.4037 -1.5530
10765SOL    HW244021   8.195   3.302  10.776 -0.0106  1.7283 -1.5686
10766SOL     OW44022   1.845   2.767   7.196  0.5161  0.4119 -0.4991
10766SOL    HW144023   1.886   2.753   7.281  0.4259  1.5594 -0.2535
10766SOL    HW244024   1.896   2.713   7.136  2.6187  2.0303 -0.2732
10767SOL     OW44025   1.019   5.183   2.331 -0.2230 -0.1910 -0.6726
10767SOL    HW144026   1.065   5.136   2.261  0.9746  3.0156 -2.2575
10767SOL    HW244027   1.087   5.198   2.397 -0.5810 -0.6040 -0.2044
10768SOL     OW44028   8.969  11.396  11.843  0.3589 -0.4048 -0.7337
10768SOL    HW144029   8.951  11.412  11.936  0.8721  1.5909 -0.9395
10768SOL    HW244030   8.923  11.465  11.797  0.1338 -1.3558 -1.9975
10769SOL     OW44031   9.079  10.674   7.093  0.7828 -0.3754  0.0404
10769SOL    HW144032   9.007  10.671   7.156  0.2687 -0.0402 -0.5248
10769SOL    HW244033   9.069  10.758   7.049  2.0560  0.0726  0.5682
10770SOL     OW44034   0.080  12.127   7.961 -0.1950  0.1442  0.6755
10770SOL    HW144035   0.018  12.199   7.947  0.6516  0.7603 -0.0063
10770SOL    HW244036   0.166  12.168   7.951  0.3013 -0.9677  0.3069
10771SOL     OW44037   5.850  12.749  13.631  0.4982 -0.0667  0.0755
10771SOL    HW144038   5.862  12.802  13.552 -1.5436 -2.4775 -2.0562
10771SOL    HW244039   5.800  12.805  13.690  0.4928  1.2147 -1.0914
10772SOL     OW44040  12.593   2.642   0.630  0.0231  0.1082 -0.3110
10772SOL    HW144041  12.602   2.682   0.716 -2.5526 -0.0491  0.1163
10772SOL    HW244042  12.583   2.716   0.569  0.4482  0.1889 -0.2862
10773SOL     OW44043   3.851   3.742   8.316  0.1569 -0.7398  0.5763
10773SOL    HW144044   3.905   3.805   8.268 -1.6132 -0.1727 -0.7987
10773SOL    HW244045   3.881   3.656   8.287  0.7341 -0.4500  0.3137
10774SOL     OW44046  11.532  10.906   8.214 -0.4759 -0.1288  0.2297
10774SOL    HW144047  11.469  10.835   8.223 -0.8774  0.1116 -0.6758
10774SOL    HW244048  11.560  10.924   8.304 -0.8283 -1.0141  0.5229
10775SOL     OW44049  10.752  10.334   4.138  0.0453  0.3355  0.7995
10775SOL    HW144050  10.734  10.343   4.044 -0.2598  0.7316  0.8934
10775SOL    HW244051  10.780  10.421   4.165 -1.9741  0.8115  1.5144
10776SOL     OW44052   5.267   7.030   7.088 -0.1365  0.2461  0.0000
10776SOL    HW144053   5.280   7.123   7.110 -0.1849  0.0043  1.1144
10776SOL    HW244054   5.345   7.006   7.038 -0.8928  1.3114 -1.7962
10777SOL     OW44055   5.508  12.874   2.248  0.4984  0.2351 -0.7403
10777SOL    HW144056   5.483  12.866   2.340  1.4245  0.5492 -0.4578
10777SOL    HW244057   5.516  12.968   2.232 -1.8140  0.3262 -1.7512
10778SOL     OW44058   1.613   8.447   8.868 -0.0313 -0.3302 -0.1116
10778SOL    HW144059   1.563   8.529   8.863 -0.7752 -0.8277 -2.1800
10778SOL    HW244060   1.545   8.379   8.875  0.5831 -0.8122  1.8095
10779SOL     OW44061  10.131  13.400  13.183  0.2724 -0.2163  0.2982
10779SOL    HW144062  10.217  13.359  13.192  1.1983  1.0536 -1.8974
10779SOL    HW244063  10.143  13.487  13.222 -0.1153 -0.1539  0.2755
10780SOL     OW44064  10.568   8.971  12.195 -0.4100  0.4380 -0.2801
10780SOL    HW144065  10.591   8.961  12.103 -1.0905 -0.2093 -0.3912
10780SOL    HW244066  10.602   8.891  12.237 -1.2720  0.0994 -0.2135
10781SOL     OW44067   1.104   7.563  11.511  0.6838  0.3795 -0.2100
10781SOL    HW144068   1.156   7.546  11.589 -1.7409  0.0767  1.4831
10781SOL    HW244069   1.105   7.480  11.463  0.7199 -0.0140  0.4606
10782SOL     OW44070   1.703   2.050  10.727 -0.4469  0.5318 -0.2530
10782SOL    HW144071   1.750   1.967  10.733 -2.1949 -0.4644  0.4207
10782SOL    HW244072   1.742   2.095  10.652 -0.5300 -1.6122 -1.6435
10783SOL     OW44073  10.314   0.586  12.336  0.3564  0.1149 -0.4899
10783SOL    HW144074  10.317   0.576  12.241 -2.8330  2.5386 -0.9825
10783SOL    HW244075  10.281   0.674  12.350  0.7197 -0.1680  2.9310
10784SOL     OW44076   3.167  12.435   3.844 -0.2461  0.5470  0.2573
10784SOL    HW144077   3.260  12.458   3.840 -0.7649  2.7366 -0.3557
10784SOL    HW244078   3.142  12.417   3.754 -0.4304 -0.1165  0.4309
10785SOL     OW44079   5.867   7.685   6.509  0.3435  0.0980 -0.1735
10785SOL    HW144080   5.854   7.601   6.553 -0.2149 -0.2574 -0.9923
10785SOL    HW244081   5.826   7.674   6.424  0.9402  0.9495 -0.5872
10786SOL     OW44082  13.538  12.145   4.289  0.0602 -0.3625  0.0251
10786SOL    HW144083  13.456  12.178   4.251  0.3808 -0.4700 -0.7875
10786SOL    HW244084  13.535  12.051   4.272 -0.0264 -0.4874  0.7325
10787SOL     OW44085   2.108  10.973   4.932  0.1904 -0.2053  0.0986
10787SOL    HW144086   2.126  11.003   4.843  3.7692 -1.7743  0.1122
10787SOL    HW244087   2.126  11.049   4.987 -0.8635  0.4256 -0.3945
10788SOL     OW44088   6.853  11.931   2.253 -0.1693  0.1359 -0.1296
10788SOL    HW144089   6.885  11.845   2.226 -2.0592 -0.7633  0.3384
10788SOL    HW244090   6.812  11.967   2.174 -2.4123 -0.9135  0.4792
10789SOL     OW44091   7.226   1.893   8.603  0.6313  0.0325  0.6730
10789SOL    HW144092   7.181   1.877   8.686 -1.3260 -1.6028 -0.6068
10789SOL    HW244093   7.306   1.841   8.608 -0.1405 -1.1585  1.0379
10790SOL     OW44094   0.052   0.806  12.079 -0.0264 -0.2321  0.3065
10790SOL    HW144095   0.086   0.834  11.994  1.6983  2.3172  1.7257
10790SOL    HW244096   0.001   0.880  12.111  0.7141 -0.4746  2.1906
10791SOL     OW44097  11.852   0.456  10.275 -0.4205  0.5410  0.0195
10791SOL    HW144098  11.940   0.485  10.252 -0.4156 -0.3247 -1.1667
10791SOL    HW244099  11.800   0.471  10.196 -0.7691 -1.1170 -0.1067
10792SOL     OW44100   1.367   4.006   2.733 -0.7874 -0.1958 -0.7128
10792SOL    HW144101   1.413   3.923   2.719 -1.8433 -0.7921 -0.7765
10792SOL    HW244102   1.426   4.057   2.789 -0.8715 -1.6825  0.8172
10793SOL     OW44103   2.746   3.982   7.255  0.2131 -0.0476 -0.1380
10793SOL    HW144104   2.787   3.927   7.188 -0.1276 -1.1914  0.5718
10793SOL    HW244105   2.663   4.010   7.215  0.1126 -0.5388 -0.2816
10794SOL     OW44106   1.538   3.926  13.661 -0.4030  0.2928 -0.2325
10794SOL    HW144107   1.447   3.940  13.636 -0.0939  0.3345 -1.3670
10794SOL    HW244108   1.573   4.015  13.674  0.1488  0.4160 -2.3118
10795SOL     OW44109   5.538   1.796  12.770 -0.3096 -0.0853  0.4864
10795SOL    HW144110   5.483   1.823  12.844 -0.6220 -0.0890  0.2578
10795SOL    HW244111   5.627   1.818  12.798 -0.4481  0.1473  0.7625
10796SOL     OW44112   5.875   0.887  13.615 -0.1654 -0.3165 -0.7684
10796SOL    HW144113   5.820   0.965  13.604 -0.2540 -0.6337 -2.8736
10796SOL    HW244114   5.963   0.922  13.626  0.4159  0.2013 -5.2532
10797SOL     OW44115  13.570  12.986  12.597  0.5727  0.4421 -0.1204
10797SOL    HW144116  13.491  13.001  12.545 -1.2653  0.7090  2.5368
10797SOL    HW244117  13.566  12.894  12.621 -0.1469  0.9306  1.7844
10798SOL     OW44118   1.593   1.539  11.776 -0.9462  0.2674  0.0723
10798SOL    HW144119   1.534   1.549  11.701 -2.9442  0.9061  1.6374
10798SOL    HW244120   1.573   1.614  11.832  0.9463  0.1508  0.9699
10799SOL     OW44121  10.085  13.046   3.568 -0.1163 -0.1388  0.0396
10799SOL    HW144122  10.134  12.967   3.544  0.2731 -0.1969  0.9724
10799SOL    HW244123  10.071  13.091   3.485  1.6541 -0.0462 -0.2529
10800SOL     OW44124   3.563  11.882   5.630 -1.0015  0.7308 -0.3256
10800SOL    HW144125   3.580  11.805   5.684  1.7961  0.6046 -1.2762
10800SOL    HW244126   3.468  11.892   5.634 -1.9298 -4.2580 -2.1932
10801SOL     OW44127  10.275   5.360  11.459  0.3618 -0.2739 -0.4591
10801SOL    HW144128  10.358   5.318  11.437 -0.0123 -1.8968  1.0166
10801SOL    HW244129  10.295   5.414  11.535 -0.1034 -1.4543  0.5312
10802SOL     OW44130   9.235   3.931   0.107 -0.4191 -0.1596 -0.3101
10802SOL    HW144131   9.293   3.961   0.037 -1.5550  0.8455 -0.8662
10802SOL    HW244132   9.285   3.863   0.152  0.6496 -0.2775 -1.5983
10803SOL     OW44133   0.269   7.196   7.516  0.5333  0.3317  0.1897
10803SOL    HW144134   0.297   7.284   7.490 -0.1138  1.2108  2.2440
10803SOL    HW244135   0.349   7.153   7.545  0.9166  0.0779 -1.1809
10804SOL     OW44136  13.017  13.380   2.797 -0.1355 -0.4704  0.4338
10804SOL    HW144137  13.010  13.296   2.753  0.1834 -0.2318 -0.0923
10804SOL    HW244138  13.026  13.359   2.890 -1.8890 -0.9561  0.5285
10805SOL     OW44139   4.938   0.938  13.119 -0.0441  0.3700  0.0444
10805SOL    HW144140   4.927   0.968  13.209  0.0167 -0.1016  0.2123
10805SOL    HW244141   4.859   0.889  13.100  0.3769 -0.3825  0.1884
10806SOL     OW44142   7.377   2.704   4.551 -0.0235  0.1424 -0.2925
10806SOL    HW144143   7.302   2.647   4.567  0.0965  0.2237  0.5549
10806SOL    HW244144   7.424   2.707   4.634 -0.4722  2.1378 -0.0704
10807SOL     OW44145   3.162   8.000  13.247  0.1671  0.2664 -0.2580
10807SOL    HW144146   3.111   7.921  13.231  0.4866 -0.4881  2.0817
10807SOL    HW244147   3.253   7.973  13.229  0.0745  0.8027 -1.6743
10808SOL     OW44148   4.553   7.713  10.020  0.1385 -0.2097 -0.7639
10808SOL    HW144149   4.637   7.711  10.066 -0.0141 -0.7631 -0.4959
10808SOL    HW244150   4.524   7.804  10.026  1.6369  0.4449 -2.5674
10809SOL     OW44151  13.179   6.126   9.032 -0.3081 -0.5390 -0.2556
10809SOL    HW144152  13.210   6.067   8.964 -2.1465 -1.0594 -0.7123
10809SOL    HW244153  13.101   6.168   8.994 -0.7847 -0.0789  1.1536
10810SOL     OW44154   4.470   7.606  11.579 -0.2536 -0.2965 -0.0603
10810SOL    HW144155   4.470   7.517  11.545  0.9954 -1.1363  1.9338
10810SOL    HW244156   4.549   7.612  11.632 -1.2930  1.3456  1.4615
10811SOL     OW44157  12.362   2.751   1.327  0.1501  0.2683  0.2220
10811SOL    HW144158  12.309   2.690   1.276 -0.2150  0.6795  0.1024
10811SOL    HW244159  12.439   2.701   1.352 -0.4794 -0.4524  0.7379
10812SOL     OW44160   7.728   5.789  12.565 -0.4024  0.2046  0.2126
10812SOL    HW144161   7.656   5.756  12.511  0.5029 -1.9664  0.2464
10812SOL    HW244162   7.779   5.712  12.587 -0.1932  1.1063  3.4526
10813SOL     OW44163  10.462   1.937   0.244  0.0228 -0.4009  0.0850
10813SOL    HW144164  10.405   2.013   0.257  0.3662 -0.3062  1.1090
10813SOL    HW244165  10.402   1.864   0.230 -0.3034  0.2830 -2.4162
10814SOL     OW44166   6.508  11.553  10.739  0.0772  0.4775 -0.0997
10814SOL    HW144167   6.565  11.627  10.759  0.6928  0.0530 -0.2648
10814SOL    HW244168   6.521  11.538  10.645  2.0273 -1.5364  0.4164
10815SOL     OW44169  11.807  12.007   8.077  1.1237  0.7308 -0.1017
10815SOL    HW144170  11.764  12.036   7.997  2.3377  0.7610 -0.7712
10815SOL    HW244171  11.738  11.967   8.129  0.8408 -2.2526 -2.5247
10816SOL     OW44172   0.691  11.481   4.019  0.1747  0.0059  0.5643
10816SOL    HW144173   0.738  11.429   3.955  0.7361  1.5787 -0.3326
10816SOL    HW244174   0.722  11.448   4.104  2.3737  0.5026  0.0117
10817SOL     OW44175   6.246   9.392   8.790 -0.3151  0.0643 -0.3481
10817SOL    HW144176   6.182   9.359   8.853 -0.9158  0.1360 -0.9112
10817SOL    HW244177   6.330   9.387   8.836 -0.5447 -1.2058 -0.0291
10818SOL     OW44178  11.073  12.518  13.198 -0.1785  0.0517  0.0070
10818SOL    HW144179  10.989  12.559  13.181 -0.8358 -0.5018  1.6806
10818SOL    HW244180  11.117  12.578  13.257  0.9121  0.6539 -1.3624
10819SOL     OW44181   4.807  12.620   8.265 -0.5761 -0.2946  0.3515
10819SOL    HW144182   4.844  12.582   8.344  0.7770 -0.3201 -0.2712
10819SOL    HW244183   4.788  12.545   8.208  1.5815 -0.1530 -0.6547
10820SOL     OW44184  10.436  12.821  10.702  0.0639  0.1783 -0.1259
10820SOL    HW144185  10.370  12.821  10.633 -1.9274  0.0299  1.7001
10820SOL    HW244186  10.395  12.867  10.775  1.5462 -0.9032  1.4746
10821SOL     OW44187   2.711  11.681   0.431  0.6120 -0.1466  0.2505
10821SOL    HW144188   2.753  11.649   0.351  1.0130 -0.5773  0.6279
10821SOL    HW244189   2.642  11.740   0.400 -0.9776 -2.2698 -0.5598
10822SOL     OW44190   9.582   5.154  11.909 -0.3791  0.0885 -0.5062
10822SOL    HW144191   9.622   5.232  11.947 -0.5856 -1.0541  2.2869
10822SOL    HW244192   9.629   5.081  11.949 -2.6516 -1.2419 -0.1087
10823SOL     OW44193   0.980   8.766   2.283  0.2217  0.8902  0.2569
10823SOL    HW144194   1.019   8.683   2.256 -1.2750  0.5640 -1.0648
10823SOL    HW244195   1.051   8.830   2.276  0.4904  0.4086 -2.4097
10824SOL     OW44196   0.508   6.034   9.669  0.1345 -0.4228 -1.1971
10824SOL    HW144197   0.474   6.028   9.758  1.7344 -0.5942 -0.5694
10824SOL    HW244198   0.603   6.039   9.679  0.2728  2.2378 -2.7382
10825SOL     OW44199   8.980   6.634  12.765  0.1295  0.7232 -0.2707
10825SOL    HW144200   8.900   6.668  12.805  0.7881  0.2083  1.5635
10825SOL    HW244201   9.046   6.701  12.781  0.9484 -0.4492  1.6060
10826SOL     OW44202   0.581  10.642   1.172  0.1363  0.2605 -0.2068
10826SOL    HW144203   0.599  10.735   1.165  1.6482  0.0061 -0.0823
10826SOL    HW244204   0.515  10.635   1.242 -1.2563  1.3263 -1.3459
10827SOL     OW44205   7.337  13.443   7.152  0.5647 -0.1607  0.3537
10827SOL    HW144206   7.322  13.514   7.090  2.4776  0.4515  0.5415
10827SOL    HW244207   7.266  13.451   7.216  0.1722  0.9288 -0.1981
10828SOL     OW44208   9.090  12.565   1.729 -0.6238 -0.3030 -0.8354
10828SOL    HW144209   9.062  12.474   1.739 -0.1706 -0.2588  1.2934
10828SOL    HW244210   9.161  12.562   1.665 -0.9269 -1.3721 -1.1332
10829SOL     OW44211  11.069   9.865   3.625 -0.3401 -0.0448 -0.0911
10829SOL    HW144212  10.981   9.868   3.662  0.0005 -0.4863  0.7922
10829SOL    HW244213  11.126   9.886   3.699  0.3171 -0.0758 -0.5794
10830SOL     OW44214   9.345   6.661  13.643  0.5257  0.2059 -0.4366
10830SOL    HW144215   9.280   6.719  13.603 -0.6486 -0.1214  0.9150
10830SOL    HW244216   9.404   6.719  13.690  0.4507  0.4164 -0.5967
10831SOL     OW44217   2.697   3.064   6.070  0.3128  0.2019 -0.6369
10831SOL    HW144218   2.705   3.078   5.975  0.3421  1.3524 -0.4777
10831SOL    HW244219   2.608   3.032   6.082 -0.8073  2.9523 -0.7890
10832SOL     OW44220   5.493   6.860   6.969 -0.0371  0.1127  0.5581
10832SOL    HW144221   5.523   6.813   7.046  0.1000  0.0354  0.4573
10832SOL    HW244222   5.540   6.820   6.896 -1.8960 -1.4225  0.1368
10833SOL     OW44223  11.752  11.977   5.260 -0.0008  0.3040 -0.3487
10833SOL    HW144224  11.762  11.951   5.168  0.4162  0.7688 -0.4393
10833SOL    HW244225  11.752  12.073   5.258  0.9824  0.3247  0.2372
10834SOL     OW44226   7.557   0.963   8.492  0.1752  0.5112 -0.1782
10834SOL    HW144227   7.606   0.948   8.411  2.6366  4.0020  0.3945
10834SOL    HW244228   7.612   0.924   8.560 -0.5594 -0.1273  0.0600
10835SOL     OW44229  13.173   0.703  10.215  0.3312 -0.2219  0.0818
10835SOL    HW144230  13.120   0.759  10.272  0.1626  2.4797 -2.5378
10835SOL    HW244231  13.109   0.650  10.168  0.0785  1.2322 -1.2549
10836SOL     OW44232   1.904   6.155   8.043  0.2847 -0.5171 -0.0314
10836SOL    HW144233   1.970   6.105   8.091  1.3261  0.5772 -0.2629
10836SOL    HW244234   1.886   6.102   7.965  1.3070 -0.6010 -0.2327
10837SOL     OW44235  10.907   0.707   2.836 -0.0265 -0.6475 -0.1085
10837SOL    HW144236  10.991   0.729   2.876  2.3033 -1.4738 -4.0435
10837SOL    HW244237  10.884   0.621   2.872  1.4359 -0.9622  0.1191
10838SOL     OW44238  12.761   0.548   6.291 -0.0942 -0.3816  0.3198
10838SOL    HW144239  12.713   0.631   6.298  0.7021  0.1041  0.1478
10838SOL    HW244240  12.784   0.526   6.381 -0.2855 -0.4038  0.3633
10839SOL     OW44241  11.321   6.660  11.805  0.0839 -0.5849 -0.1235
10839SOL    HW144242  11.303   6.669  11.899 -0.7871  0.8804 -0.4077
10839SOL    HW244243  11.242   6.692  11.762  0.7255 -0.6277 -1.3724
10840SOL     OW44244   0.856   4.059   7.592 -0.2010 -0.3584  0.0824
10840SOL    HW144245   0.850   3.966   7.571  0.7158 -0.4093  0.0091
10840SOL    HW244246   0.870   4.061   7.687 -0.5063 -0.2766  0.1285
10841SOL     OW44247   3.556  13.280  11.475 -0.0507  0.1838 -0.0548
10841SOL    HW144248   3.498  13.283  11.551  1.1896 -0.9743  0.9607
10841SOL    HW244249   3.508  13.228  11.411 -0.4139 -0.2178  0.5341
10842SOL     OW44250   7.119   1.527   2.139  0.1623  0.2749 -0.2863
10842SOL    HW144251   7.164   1.442   2.132  0.4787  0.1659  2.3256
10842SOL    HW244252   7.186   1.592   2.119 -0.0386 -0.0218 -2.1316
10843SOL     OW44253   1.538  11.884   6.605 -0.1198 -0.2788  0.0487
10843SOL    HW144254   1.599  11.957   6.597 -0.6363  0.4565  2.2295
10843SOL    HW244255   1.581  11.824   6.667 -1.5500  0.2617  1.6330
10844SOL     OW44256  13.711   0.463   7.159 -0.0930  0.3916  0.4389
10844SOL    HW144257  13.759   0.380   7.162 -0.7737 -0.0378 -0.0836
10844SOL    HW244258  13.655   0.455   7.081  1.7980  2.4282 -1.2692
10845SOL     OW44259  13.003  12.870   1.354 -0.1852 -0.4383 -0.1429
10845SOL    HW144260  12.938  12.807   1.323 -0.4130 -0.4750  0.3962
10845SOL    HW244261  13.056  12.821   1.418  0.0798 -0.2810 -0.2388
10846SOL     OW44262   3.608   7.246   8.940  0.3981 -0.1616  0.2168
10846SOL    HW144263   3.589   7.232   8.847  0.5955  0.8727  0.0148
10846SOL    HW244264   3.535   7.204   8.986 -0.4248  0.5129 -0.4403
10847SOL     OW44265   9.955  11.254   9.924 -0.3796 -0.4428  0.4335
10847SOL    HW144266   9.913  11.197   9.860 -0.6617 -0.4531  0.6261
10847SOL    HW244267   9.900  11.332   9.927  1.1920  0.8212 -1.4545
10848SOL     OW44268   0.283   4.832   0.521  0.1108  0.0533  0.5010
10848SOL    HW144269   0.300   4.794   0.435 -1.7471 -0.3665  0.2768
10848SOL    HW244270   0.316   4.767   0.582  1.0704  0.1662  0.1111
10849SOL     OW44271   8.340  10.512   2.304  0.3512  0.1992 -0.7950
10849SOL    HW144272   8.340  10.417   2.314  0.7969  0.3361  0.7876
10849SOL    HW244273   8.266  10.542   2.358  1.3394  0.8573  0.2318
10850SOL     OW44274  13.376  11.590   9.953  0.2929 -0.0188  0.0316
10850SOL    HW144275  13.371  11.536  10.031 -0.2608 -1.5031 -0.9766
10850SOL    HW244276  13.392  11.527   9.882  3.2872  1.5071 -0.7860
10851SOL     OW44277  10.499   9.471   6.802  0.4787  0.3130 -0.4881
10851SOL    HW144278  10.526   9.555   6.762 -0.8505 -0.0057 -2.1981
10851SOL    HW244279  10.573   9.445   6.855  1.4904  1.9061 -1.0388
10852SOL     OW44280  13.272  11.350   0.610 -0.2685 -0.1931 -0.0688
10852SOL    HW144281  13.314  11.362   0.695 -0.0114 -1.2177 -0.0407
10852SOL    HW244282  13.284  11.257   0.590 -0.8794 -0.0972 -0.9331
10853SOL     OW44283   0.859  11.762  12.697 -0.1114  0.1345  0.1081
10853SOL    HW144284   0.804  11.686  12.716  0.8279 -1.3127 -2.4768
10853SOL    HW244285   0.814  11.807  12.627  0.7890  0.2883 -0.3814
10854SOL     OW44286   4.184   3.194   9.546  0.2549 -0.0153  0.2400
10854SOL    HW144287   4.268   3.185   9.502  0.6581  0.2722  0.9390
10854SOL    HW244288   4.206   3.209   9.638 -0.5351  0.6680  0.3359
10855SOL     OW44289  12.829   7.221  11.406  0.4437  0.2865 -0.0366
10855SOL    HW144290  12.781   7.163  11.347  0.8348  0.6938 -0.7773
10855SOL    HW244291  12.892   7.164  11.450 -2.2299 -0.7380  2.7704
10856SOL     OW44292   5.290   3.077   4.070  0.2190  0.2740 -0.0056
10856SOL    HW144293   5.284   2.983   4.088  0.1887  0.1686 -0.5701
10856SOL    HW244294   5.336   3.112   4.146 -1.9441  0.1842  1.4436
10857SOL     OW44295  10.222   0.854   9.332 -0.1238 -0.4490  0.7198
10857SOL    HW144296  10.304   0.818   9.366  0.3914 -0.4566 -0.4770
10857SOL    HW244297  10.250   0.924   9.273 -1.0369  0.4087  1.2906
10858SOL     OW44298  12.496   6.708   8.524 -0.8100 -0.6592 -0.1791
10858SOL    HW144299  12.509   6.617   8.549  1.7883 -0.0135  1.1850
10858SOL    HW244300  12.570   6.729   8.468 -0.6956  0.8842  0.4854
10859SOL     OW44301  10.430   4.933   3.264 -0.0048 -0.7111  0.7069
10859SOL    HW144302  10.523   4.948   3.246 -0.1154 -1.5529 -0.7403
10859SOL    HW244303  10.418   4.961   3.355  1.1173  1.8028  0.1675
10860SOL     OW44304   8.183   5.099   0.948 -0.0263  0.0491 -0.7146
10860SOL    HW144305   8.198   5.088   1.041 -0.1503 -1.5355 -0.8547
10860SOL    HW244306   8.262   5.143   0.916 -0.1279  0.9064  0.1732
10861SOL     OW44307  12.587   1.088  10.191  0.2433  0.0378  0.1702
10861SOL    HW144308  12.506   1.090  10.241 -0.1156  1.4055 -0.4205
10861SOL    HW244309  12.649   1.137  10.245  0.1165  0.6985 -0.2738
10862SOL     OW44310  10.626   9.998  10.826 -0.5695 -0.4344 -0.4140
10862SOL    HW144311  10.566   9.985  10.900 -1.4906  0.6056 -0.9366
10862SOL    HW244312  10.605   9.928  10.765  0.7505 -1.7870  0.6154
10863SOL     OW44313   6.315   9.255   1.610  0.0268 -0.1686  0.0996
10863SOL    HW144314   6.333   9.245   1.517  2.0437 -1.1636  0.5309
10863SOL    HW244315   6.262   9.335   1.616 -0.0472 -0.0303 -1.8684
10864SOL     OW44316   2.696   7.447   9.108  0.4389 -0.2048  0.1768
10864SOL    HW144317   2.742   7.373   9.149 -4.6437 -3.1492  1.3886
10864SOL    HW244318   2.691   7.424   9.016 -0.1632 -0.8442  0.3619
10865SOL     OW44319  12.214   9.637  13.410 -0.0829 -0.0114  0.3727
10865SOL    HW144320  12.300   9.632  13.450  0.0742  0.9217  0.1706
10865SOL    HW244321  12.225   9.599  13.322 -0.2387 -1.2821  0.8816
10866SOL     OW44322  11.569   4.466  12.182  0.0464 -0.0943 -0.0324
10866SOL    HW144323  11.642   4.527  12.170 -0.3361  0.3799  0.0380
10866SOL    HW244324  11.548   4.472  12.275  0.2388 -0.6056  0.0482
10867SOL     OW44325  13.070   2.281   6.455  0.0753 -0.3011  0.0472
10867SOL    HW144326  13.138   2.298   6.521  0.0765  0.7850 -0.2123
10867SOL    HW244327  12.992   2.259   6.506 -0.1962  1.5157  0.4892
10868SOL     OW44328   7.949   7.731   0.515  0.2481  0.3462  0.3180
10868SOL    HW144329   7.898   7.663   0.558  0.4928 -0.2801 -0.3787
10868SOL    HW244330   8.015   7.684   0.464 -0.9451  1.0133 -1.9361
10869SOL     OW44331   2.205   0.655  10.127  0.3791  0.5933  0.0813
10869SOL    HW144332   2.280   0.601  10.102  1.1817  1.6000  0.2660
10869SOL    HW244333   2.227   0.689  10.213 -1.1805 -0.6839  1.0471
10870SOL     OW44334  10.648   4.753   4.767  0.0983 -0.3144  0.4545
10870SOL    HW144335  10.696   4.777   4.846 -2.4637 -0.8927  2.3218
10870SOL    HW244336  10.638   4.658   4.773  1.8563 -0.7525 -1.8729
10871SOL     OW44337  12.136  11.619   6.544 -0.1257  0.0494 -0.3752
10871SOL    HW144338  12.058  11.670   6.566 -0.2193 -0.0372 -0.5067
10871SOL    HW244339  12.110  11.528   6.558  0.7977  0.1021  2.3972
10872SOL     OW44340   1.684  11.862   0.660 -0.4057 -0.0689  0.4800
10872SOL    HW144341   1.771  11.880   0.694 -0.8546  1.0207  1.0854
10872SOL    HW244342   1.624  11.887   0.731 -1.2521  0.1326 -0.2848
10873SOL     OW44343   9.077   5.576   7.714 -0.0880  0.2441 -0.2900
10873SOL    HW144344   9.103   5.656   7.759 -0.0956  0.8003 -1.2420
10873SOL    HW244345   9.115   5.505   7.766 -2.3588  0.6700  2.1289
10874SOL     OW44346   5.591   4.334  10.285  0.3926 -0.6514 -0.4731
10874SOL    HW144347   5.531   4.407  10.299 -0.0183 -1.0227 -0.2793
10874SOL    HW244348   5.628   4.316  10.371 -1.3079 -2.2170 -0.0047
10875SOL     OW44349   7.898   3.411  10.009 -0.3051 -0.2878 -0.4383
10875SOL    HW144350   7.828   3.472   9.984  2.6264  2.6697 -2.4272
10875SOL    HW244351   7.933   3.447  10.090  0.3073 -0.4018 -0.6487
10876SOL     OW44352   6.587   0.193  12.628 -0.4945  0.0875 -0.3204
10876SOL    HW144353   6.635   0.271  12.657 -1.0085 -0.4323  2.1746
10876SOL    HW244354   6.499   0.226  12.608 -0.5074  0.2732  0.0286
10877SOL     OW44355  10.449  10.792   8.950 -0.4596 -0.3177  0.2601
10877SOL    HW144356  10.465  10.843   9.030 -1.7067  0.5699 -0.0368
10877SOL    HW244357  10.424  10.705   8.983 -0.4559 -0.1162  0.8150
10878SOL     OW44358  10.715  13.243  10.699 -0.4867  0.0025 -0.5815
10878SOL    HW144359  10.654  13.259  10.627 -0.0489  2.0465 -0.5310
10878SOL    HW244360  10.776  13.316  10.697 -0.0693 -0.2245  1.4767
10879SOL     OW44361   5.918  13.019   9.091 -0.0268  0.2099 -0.6635
10879SOL    HW144362   5.929  13.051   9.001 -0.2685 -0.5055 -0.9538
10879SOL    HW244363   5.909  13.099   9.143  0.2739  0.6389 -1.2506
10880SOL     OW44364   9.953   7.894   1.472 -0.1135 -0.8409 -0.3996
10880SOL    HW144365   9.909   7.969   1.431  0.4991 -0.5301 -0.5003
10880SOL    HW244366   9.921   7.818   1.424 -1.6212 -0.7834  0.4254
10881SOL     OW44367   1.591   0.305   9.209 -0.2446 -0.0028 -0.7494
10881SOL    HW144368   1.600   0.369   9.138  4.5874 -0.4410 -0.8908
10881SOL    HW244369   1.587   0.221   9.165 -2.2406 -0.1038 -0.4677
10882SOL     OW44370   7.315   1.135   6.315 -0.2371  0.2104  0.0055
10882SOL    HW144371   7.392   1.174   6.355  0.0688 -0.9997  0.6287
10882SOL    HW244372   7.258   1.112   6.389 -0.3331 -0.6603 -0.3234
10883SOL     OW44373   3.812   2.315   5.022  0.5508  0.0059  0.5568
10883SOL    HW144374   3.851   2.251   4.963  0.5865  1.1129 -0.6590
10883SOL    HW244375   3.832   2.400   4.982 -0.9322  0.7062  1.2425
10884SOL     OW44376  10.583   0.762   2.468 -0.0302  0.5925 -0.2135
10884SOL    HW144377  10.564   0.804   2.551  0.7550 -0.1861  0.3843
10884SOL    HW244378  10.531   0.809   2.404  0.1722  1.8953  0.5583
10885SOL     OW44379   6.494   7.628   9.594  0.4818 -0.1316 -0.2600
10885SOL    HW144380   6.524   7.554   9.542 -2.0121 -0.9503 -0.6502
10885SOL    HW244381   6.517   7.605   9.684 -1.9735 -2.4031 -0.1094
10886SOL     OW44382   9.699   3.694  12.302 -0.3016 -0.1838  0.3194
10886SOL    HW144383   9.756   3.680  12.226  0.0524  0.3549  0.4821
10886SOL    HW244384   9.667   3.606  12.323  0.1563 -0.4411 -0.0197
10887SOL     OW44385   4.696   0.657   5.464  0.1890 -0.2930 -0.2141
10887SOL    HW144386   4.720   0.571   5.498 -2.3914 -0.5895  1.1080
10887SOL    HW244387   4.627   0.640   5.401  0.5543  0.7561 -0.9427
10888SOL     OW44388  10.921   7.244   0.653 -0.2215 -0.2742 -0.5628
10888SOL    HW144389  10.954   7.159   0.679  1.6958  0.6255  0.1135
10888SOL    HW244390  10.985   7.278   0.590 -0.0907  1.3044  0.3627
10889SOL     OW44391   9.719   2.264   9.172 -0.2399 -0.6325 -0.1614
10889SOL    HW144392   9.794   2.323   9.177 -0.9379  0.2147  0.4389
10889SOL    HW244393   9.662   2.303   9.107  0.0650 -1.5691 -1.0249
10890SOL     OW44394   3.643  10.035  10.120  0.2939  0.0379 -0.5131
10890SOL    HW144395   3.703  10.069  10.186  0.9752 -0.0615 -1.0605
10890SOL    HW244396   3.591   9.969  10.166  1.7480 -1.0927 -0.3927
10891SOL     OW44397   0.160   9.442  10.122 -0.0011 -0.3627  0.5595
10891SOL    HW144398   0.242   9.471  10.082 -0.5557  0.0117 -0.3642
10891SOL    HW244399   0.185   9.375  10.185  1.3247  1.8572  2.5436
10892SOL     OW44400   8.863   6.922   3.883 -0.2045 -0.5425 -0.4436
10892SOL    HW144401   8.857   7.014   3.857 -2.2891  0.0388  1.7532
10892SOL    HW244402   8.949   6.913   3.922 -0.4000  0.8204  0.3566
10893SOL     OW44403   6.791   4.417  13.384  0.0614  0.1431  0.6946
10893SOL    HW144404   6.839   4.445  13.307  0.2554 -0.3724  0.6254
10893SOL    HW244405   6.771   4.324  13.369 -2.0059  0.6142  0.1730
10894SOL     OW44406   9.275   2.211   8.386  0.1221  0.1172 -0.4721
10894SOL    HW144407   9.276   2.297   8.428  0.6117  0.8697 -1.9541
10894SOL    HW244408   9.325   2.155   8.445  0.5133  1.0567  0.1135
10895SOL     OW44409  12.400   9.125  12.879 -0.6436 -0.1876 -0.8644
10895SOL    HW144410  12.353   9.128  12.962  0.6567  0.7892 -0.1246
10895SOL    HW244411  12.333   9.109  12.814 -1.6560 -1.3680  0.4029
10896SOL     OW44412   5.958   8.780  13.510  0.0814 -0.6522 -0.6386
10896SOL    HW144413   5.999   8.704  13.469  2.4283  0.5081 -0.5933
10896SOL    HW244414   6.026   8.818  13.566 -1.5490  0.5381  0.6619
10897SOL     OW44415  11.485  12.008   7.305  0.1904  0.0505 -0.0162
10897SOL    HW144416  11.488  12.100   7.278  2.8594  0.3637  1.0497
10897SOL    HW244417  11.507  12.009   7.398 -0.2018 -1.6620  0.1300
10898SOL     OW44418  10.264   1.380   0.431  0.7168 -0.5336  0.0485
10898SOL    HW144419  10.238   1.405   0.342  0.2856 -0.8298  0.0845
10898SOL    HW244420  10.193   1.323   0.460  1.4962 -1.4828  0.1086
10899SOL     OW44421  11.380   1.726   9.922  0.1778  0.1222 -0.8280
10899SOL    HW144422  11.427   1.671   9.985 -1.5052 -0.9157 -0.4054
10899SOL    HW244423  11.348   1.800   9.974  0.2193  0.1496 -0.8406
10900SOL     OW44424  13.430  12.928   6.947  0.0985 -0.7929  0.5817
10900SOL    HW144425  13.507  12.875   6.966  1.6220 -0.0279 -2.7015
10900SOL    HW244426  13.356  12.876   6.980  1.8318 -2.5628  1.8981
10901SOL     OW44427   8.133  10.188   2.023  0.1269 -0.0538 -0.2873
10901SOL    HW144428   8.065  10.204   2.088  0.4061  0.6259 -0.1517
10901SOL    HW244429   8.177  10.108   2.053  0.7217  0.6538  0.7625
10902SOL     OW44430   1.345   4.960   9.440  0.0281 -0.4969  0.0187
10902SOL    HW144431   1.316   4.917   9.520 -0.3482 -1.2448 -0.5069
10902SOL    HW244432   1.441   4.956   9.444  0.0342  0.3521  0.8893
10903SOL     OW44433   0.995  12.235   1.922 -0.1438  0.1966  0.1423
10903SOL    HW144434   0.904  12.263   1.915 -0.6139 -1.2303  0.0835
10903SOL    HW244435   0.995  12.146   1.887  1.5093  0.5838 -0.9410
10904SOL     OW44436  13.479   9.813   9.752  0.4729  0.3355 -0.2804
10904SOL    HW144437  13.490   9.775   9.664  1.4676  0.0458 -0.0462
10904SOL    HW244438  13.440   9.899   9.735 -2.0101 -0.7994 -0.8022
10905SOL     OW44439   0.006   1.011   0.207  0.5353 -0.6065 -0.2049
10905SOL    HW144440   0.031   0.949   0.139  0.8147 -1.9450  1.0596
10905SOL    HW244441   0.081   1.069   0.216  0.7628 -0.8361 -0.5792
10906SOL     OW44442  10.189   1.852   3.809  0.2008  0.3216 -0.2065
10906SOL    HW144443  10.110   1.842   3.862 -0.1553  1.2506 -0.5308
10906SOL    HW244444  10.187   1.778   3.748  1.9353 -2.2722  2.6119
10907SOL     OW44445   2.058  11.580   6.386 -0.0684 -0.7027 -0.1013
10907SOL    HW144446   2.030  11.524   6.460  0.5488 -1.3998 -0.3773
10907SOL    HW244447   1.977  11.608   6.345 -0.6420  2.2509  2.6149
10908SOL     OW44448   5.610  10.052   9.369  0.2027 -0.0402  0.2932
10908SOL    HW144449   5.691  10.002   9.358 -0.8542 -1.5966 -0.8992
10908SOL    HW244450   5.542   9.985   9.378 -1.2862  1.1499 -1.3915
10909SOL     OW44451  13.624   1.663   9.759  0.5604  0.5975 -0.1776
10909SOL    HW144452  13.590   1.745   9.794 -1.6815 -0.7094  0.9310
10909SOL    HW244453  13.710   1.653   9.799 -0.1511  1.2405  1.6005
10910SOL     OW44454   9.379   3.532  12.243  0.3840  0.3264  0.3047
10910SOL    HW144455   9.306   3.473  12.262  1.2127 -0.8691 -0.1294
10910SOL    HW244456   9.457   3.482  12.265  1.1296  2.8677  4.5350
10911SOL     OW44457  11.679   5.276  13.409 -0.0440  0.4532  0.2195
10911SOL    HW144458  11.595   5.316  13.387  0.2934  0.8670 -0.3474
10911SOL    HW244459  11.687   5.286  13.503 -0.6080  0.4510  0.2721
10912SOL     OW44460   6.846   3.375   7.363 -0.1358  0.3581  0.6065
10912SOL    HW144461   6.765   3.325   7.353  0.3184 -0.6211  1.6102
10912SOL    HW244462   6.826   3.461   7.326 -1.1455 -0.3462 -0.5345
10913SOL     OW44463   6.085   9.889   2.589  0.3690 -0.3179  0.4560
10913SOL    HW144464   6.165   9.923   2.629 -0.0159  3.1505 -1.3540
10913SOL    HW244465   6.115   9.851   2.506  0.1502  3.4529 -1.6025
10914SOL     OW44466  11.458   0.467  11.186 -0.3573  0.5628 -0.3634
10914SOL    HW144467  11.502   0.460  11.102  0.7910 -3.5708  0.3452
10914SOL    HW244468  11.528   0.459  11.251 -1.4628  0.8684  0.9295
10915SOL     OW44469   9.263   9.575   7.537  0.6019  0.3159  0.0120
10915SOL    HW144470   9.266   9.599   7.630 -0.1399  1.3411 -0.2195
10915SOL    HW244471   9.337   9.621   7.499  1.9022 -1.3700  0.3375
10916SOL     OW44472   2.463  11.188   8.438  0.3140  0.0835  0.1564
10916SOL    HW144473   2.534  11.129   8.412  0.9174  1.1511 -0.6905
10916SOL    HW244474   2.405  11.191   8.362 -1.9799 -2.5846  1.6126
10917SOL     OW44475   7.933   4.530  11.736  0.1851  0.0869 -0.6381
10917SOL    HW144476   7.866   4.597  11.741  1.1104  1.1701 -2.0285
10917SOL    HW244477   8.013   4.577  11.715  1.4317 -1.1558  0.9803
10918SOL     OW44478  10.256  10.285   3.798  0.4828  0.1001 -0.1386
10918SOL    HW144479  10.327  10.289   3.735  0.6582 -0.3256  0.0332
10918SOL    HW244480  10.227  10.194   3.797 -1.0511  0.5607 -1.2886
10919SOL     OW44481   8.843   3.558   1.479  0.3676 -0.0511  0.1901
10919SOL    HW144482   8.761   3.567   1.529 -1.1155 -3.5653 -1.2720
10919SOL    HW244483   8.816   3.564   1.388  2.1977  1.0668 -0.3246
10920SOL     OW44484   8.533   7.857  11.299  0.0149 -0.5059 -0.1768
10920SOL    HW144485   8.564   7.872  11.210  1.8865 -0.5904  0.4157
10920SOL    HW244486   8.489   7.939  11.323  1.6127  0.4646 -0.3719
10921SOL     OW44487   3.688   7.301  13.100  0.0532 -0.4185  0.3997
10921SOL    HW144488   3.670   7.392  13.077  0.4230  0.2758  2.6530
10921SOL    HW244489   3.784   7.293  13.094  0.0594 -0.5256  0.6162
10922SOL     OW44490   2.476   8.625   6.753  0.1048  0.5450 -0.4795
10922SOL    HW144491   2.521   8.705   6.726  0.0168  0.2716 -1.4922
10922SOL    HW244492   2.540   8.555   6.736  0.3472  0.4341  0.8202
10923SOL     OW44493   1.122  12.827   5.822 -0.0762 -0.7236  0.1807
10923SOL    HW144494   1.170  12.878   5.757 -0.5746 -0.8195 -0.2755
10923SOL    HW244495   1.189  12.777   5.867  0.7112  1.8029  2.0466
10924SOL     OW44496   0.768   9.670   6.726 -0.0324 -0.3047  0.7136
10924SOL    HW144497   0.702   9.734   6.701  0.9650  0.7098  0.6229
10924SOL    HW244498   0.730   9.626   6.802 -0.0421  1.5367  1.8266
10925SOL     OW44499  10.965   3.294   8.288  0.1556 -0.1395  0.2976
10925SOL    HW144500  11.033   3.351   8.252 -0.4373 -0.1984 -0.9888
10925SOL    HW244501  10.958   3.318   8.380  0.9199  0.8458  0.1079
10926SOL     OW44502   3.628   7.331   6.642 -0.4108  0.0444 -0.1252
10926SOL    HW144503   3.638   7.256   6.584 -1.5832 -0.8051  0.7179
10926SOL    HW244504   3.690   7.396   6.609  1.7181 -1.8111  0.0098
10927SOL     OW44505  13.636   0.350   4.335  0.8929  0.6946 -0.7551
10927SOL    HW144506  13.671   0.439   4.339  1.0253  0.6273 -0.3420
10927SOL    HW244507  13.698   0.298   4.387  0.6338  0.4224 -0.7177
10928SOL     OW44508   0.952   8.047  13.060  0.1938  0.4482 -0.1748
10928SOL    HW144509   1.015   8.013  13.124  0.4802  0.3663 -0.5018
10928SOL    HW244510   0.869   8.050  13.108  0.4842  0.7479  0.3181
10929SOL     OW44511   5.115   5.749   0.769 -0.4703  0.1774  0.2562
10929SOL    HW144512   5.063   5.829   0.773 -1.9503 -0.6691 -0.7046
10929SOL    HW244513   5.134   5.737   0.676 -1.7258 -1.3992  0.1508
10930SOL     OW44514   7.970   9.663   1.081  0.0543  0.1256  0.7188
10930SOL    HW144515   7.909   9.605   1.126 -0.6587  0.1493 -0.1939
10930SOL    HW244516   8.057   9.628   1.102 -0.2760 -0.0838  1.7789
10931SOL     OW44517  11.793   6.749   7.144  0.0759 -0.3153 -0.0284
10931SOL    HW144518  11.798   6.757   7.048  0.5364  1.5873  0.1072
10931SOL    HW244519  11.701   6.761   7.165 -0.0898 -1.1578 -0.2506
10932SOL     OW44520  10.419   4.343   4.909  0.0972  0.8191  0.4787
10932SOL    HW144521  10.482   4.410   4.936  0.9102  0.1512  0.2456
10932SOL    HW244522  10.358   4.391   4.852  0.8864  1.2912  0.0043
10933SOL     OW44523   7.575  10.637   5.904  0.2482  0.3914 -0.0774
10933SOL    HW144524   7.600  10.596   5.822 -1.1715  0.1839 -0.4390
10933SOL    HW244525   7.553  10.564   5.962 -1.6172  0.5570 -0.5013
10934SOL     OW44526   4.195  11.292  11.104 -0.1995 -0.0937  0.1947
10934SOL    HW144527   4.198  11.222  11.039  2.0439 -1.8012  1.9663
10934SOL    HW244528   4.114  11.339  11.084 -1.1941 -2.4156 -1.8609
10935SOL     OW44529  10.384   3.701   4.976  0.1591  0.3559  0.6927
10935SOL    HW144530  10.442   3.776   4.993  0.4792  0.3817 -0.4185
10935SOL    HW244531  10.443   3.632   4.946 -0.3095  0.1698  0.1880
10936SOL     OW44532  10.077   7.657   1.175  0.5422 -0.1247 -0.8697
10936SOL    HW144533  10.135   7.703   1.236  0.8010 -2.4454  0.7488
10936SOL    HW244534   9.990   7.666   1.214  0.5645 -0.8060 -0.6567
10937SOL     OW44535   6.432   7.403  13.408  0.4051 -0.4565  0.4568
10937SOL    HW144536   6.351   7.447  13.383  0.7287  1.1972  2.0257
10937SOL    HW244537   6.404   7.323  13.452 -0.4298  0.3583  1.4553
10938SOL     OW44538  12.117   1.162   9.216 -0.6919  0.5550  0.1475
10938SOL    HW144539  12.149   1.244   9.255 -0.8110  0.6378  0.0696
10938SOL    HW244540  12.169   1.151   9.136 -1.4271  1.1165 -0.4139
10939SOL     OW44541  11.088  11.964   8.395 -0.1166  0.0915  0.1610
10939SOL    HW144542  11.183  11.964   8.408 -0.2171 -2.0303  1.3276
10939SOL    HW244543  11.053  11.989   8.480 -0.6206  0.2097 -0.0803
10940SOL     OW44544   5.246  11.765   2.010  0.1486 -0.3399 -0.5088
10940SOL    HW144545   5.309  11.801   1.948 -0.4818 -0.1560 -1.0588
10940SOL    HW244546   5.299  11.734   2.084  0.7710  1.1638 -0.2863
10941SOL     OW44547   1.778   1.233  13.260  0.3367 -0.4281  0.2929
10941SOL    HW144548   1.743   1.181  13.188 -1.8670  2.4492 -0.8879
10941SOL    HW244549   1.854   1.278  13.223 -0.0305  0.0600  0.1140
10942SOL     OW44550  13.299   1.757   0.135  0.1914 -0.1323  0.1082
10942SOL    HW144551  13.377   1.707   0.160 -0.3323 -0.7216  0.5827
10942SOL    HW244552  13.254   1.700   0.073 -1.1456 -0.9241  1.7181
10943SOL     OW44553  13.340   5.640   9.764  0.4467 -0.3883  0.1865
10943SOL    HW144554  13.330   5.734   9.784  0.4176 -0.6636  1.5464
10943SOL    HW244555  13.418   5.613   9.812  0.6000 -1.0242 -0.3967
10944SOL     OW44556  10.493  11.546   7.244  0.1783 -0.0504  0.2017
10944SOL    HW144557  10.488  11.458   7.206  1.0618 -0.5100  1.0818
10944SOL    HW244558  10.414  11.590   7.213  0.4812 -0.6233 -1.5351
10945SOL     OW44559   3.799   6.727   8.116  0.1959  0.6038  0.3528
10945SOL    HW144560   3.711   6.727   8.077  0.0206  0.4169  0.7419
10945SOL    HW244561   3.787   6.687   8.202  1.1627 -2.2446 -0.7057
10946SOL     OW44562   0.937   9.745   9.572  0.1418  0.6160 -0.2364
10946SOL    HW144563   0.994   9.672   9.548  0.7452  0.9572  0.1421
10946SOL    HW244564   0.978   9.784   9.649 -1.3065  0.0622  0.8562
10947SOL     OW44565   5.172  10.940  12.071 -0.0460  0.9579  0.2399
10947SOL    HW144566   5.076  10.943  12.068 -0.0426  0.6904 -0.2501
10947SOL    HW244567   5.193  10.932  12.164 -0.4856  1.4276  0.3845
10948SOL     OW44568  11.401   5.143   1.535  0.3990  0.3666  0.0840
10948SOL    HW144569  11.342   5.175   1.466 -0.9946 -0.3505  0.8840
10948SOL    HW244570  11.407   5.215   1.598 -0.4297  0.1156  0.4702
10949SOL     OW44571   4.572  11.077  11.689  0.0015 -0.2751  0.0751
10949SOL    HW144572   4.526  11.059  11.607 -0.6203 -0.6904  0.5053
10949SOL    HW244573   4.515  11.139  11.735  0.3011 -0.1177  0.2359
10950SOL     OW44574   1.759   6.792   1.170  0.6237 -0.0866  0.0276
10950SOL    HW144575   1.814   6.714   1.173 -0.3249 -0.7802  0.0918
10950SOL    HW244576   1.673   6.759   1.145 -0.4407  0.5536  2.5350
10951SOL     OW44577  13.289   9.404   0.077 -0.3345  0.4489 -0.0829
10951SOL    HW144578  13.227   9.332   0.067 -1.4160  1.2557  0.5078
10951SOL    HW244579  13.291   9.420   0.171  0.9475  0.3126 -0.0710
10952SOL     OW44580   5.636  10.209   5.635  0.2745 -0.2410 -0.6864
10952SOL    HW144581   5.721  10.175   5.665 -0.8722 -1.0783  1.8837
10952SOL    HW244582   5.628  10.294   5.679  0.0370  0.1139 -1.4114
10953SOL     OW44583  10.954  11.920   5.602  0.4667 -0.3751  0.0281
10953SOL    HW144584  11.048  11.922   5.616  0.4605  0.6797 -0.0332
10953SOL    HW244585  10.918  11.894   5.686  0.6697  1.8707  0.8510
10954SOL     OW44586   7.488  11.577   9.082  0.1309 -0.1092 -0.0710
10954SOL    HW144587   7.464  11.668   9.096 -0.0607 -0.3533  1.2657
10954SOL    HW244588   7.407  11.528   9.094  0.6348 -0.6397  1.3014
10955SOL     OW44589   3.890   7.130  12.498 -0.0955 -0.4199 -0.0252
10955SOL    HW144590   3.963   7.139  12.438 -0.3772  0.4976 -0.2378
10955SOL    HW244591   3.892   7.038  12.524  0.4187 -0.6793 -0.9380
10956SOL     OW44592   2.648  11.825   2.123 -0.1454  0.2031  0.4607
10956SOL    HW144593   2.678  11.825   2.032  0.1934 -0.8347  0.5628
10956SOL    HW244594   2.727  11.842   2.174 -0.4989  1.7819  0.5365
10957SOL     OW44595   8.171   0.093  11.820  0.5440 -0.0357 -0.3986
10957SOL    HW144596   8.257   0.051  11.819  0.7514  0.2686  1.5389
10957SOL    HW244597   8.188   0.184  11.797  0.7380  0.0293  0.0086
10958SOL     OW44598   0.787   5.315   7.778 -0.3125 -0.0982 -0.1678
10958SOL    HW144599   0.711   5.270   7.741  0.2686 -0.4314 -1.0117
10958SOL    HW244600   0.852   5.245   7.791 -0.0408  0.2261  0.2319
10959SOL     OW44601   0.989  10.659   8.765  0.1582  0.7834 -0.4140
10959SOL    HW144602   1.053  10.663   8.694  0.4851  0.0961 -0.1639
10959SOL    HW244603   0.923  10.597   8.735 -0.3746  1.4436 -0.6447
10960SOL     OW44604   3.347   9.791  12.592  0.0579 -0.2309  0.2499
10960SOL    HW144605   3.269   9.816  12.542  1.1343  1.4705 -0.6469
10960SOL    HW244606   3.313   9.770  12.679 -1.9590 -3.8644 -1.1939
10961SOL     OW44607   3.531  10.136   6.092 -0.0523  0.0586 -0.5019
10961SOL    HW144608   3.616  10.136   6.047  0.3442 -2.3019  0.1120
10961SOL    HW244609   3.529  10.053   6.138 -1.7454  1.0866  1.4154
10962SOL     OW44610   0.928  11.731   7.774 -0.2936  0.1468 -0.2970
10962SOL    HW144611   0.889  11.753   7.858  0.4393 -0.3085  0.1709
10962SOL    HW244612   0.898  11.642   7.755 -3.2058  1.3602 -2.1608
10963SOL     OW44613  10.071   6.395   1.962  0.3233  0.0937 -0.5741
10963SOL    HW144614  10.152   6.437   1.991  0.1726 -0.5513  0.8508
10963SOL    HW244615  10.025   6.464   1.915  0.0535  1.6331  1.7552
10964SOL     OW44616   0.888   2.686   6.133  0.0245 -0.1700 -0.2519
10964SOL    HW144617   0.819   2.684   6.066  1.5713 -3.2654 -1.9992
10964SOL    HW244618   0.956   2.742   6.096  0.6532 -1.4616 -1.1616
10965SOL     OW44619   1.715   0.101   0.001 -0.1078 -0.0550  0.0484
10965SOL    HW144620   1.771   0.153  -0.057 -0.5153  1.4015  0.9037
10965SOL    HW244621   1.686   0.164   0.067 -2.1119 -0.9645  0.0802
10966SOL     OW44622  10.231   7.790   9.099 -0.4010  0.0157 -0.2417
10966SOL    HW144623  10.207   7.702   9.069  0.1981  0.1089 -1.0181
10966SOL    HW244624  10.326   7.794   9.087 -0.6231  1.3624 -1.8630
10967SOL     OW44625   1.839  13.405   7.239  0.4151 -0.1841  0.1418
10967SOL    HW144626   1.873  13.426   7.326 -1.8775  1.3315  0.7804
10967SOL    HW244627   1.797  13.320   7.249 -0.9473  0.5430  0.9224
10968SOL     OW44628  11.577  10.813   0.606  0.2910 -0.0178 -0.0291
10968SOL    HW144629  11.508  10.764   0.562  0.2161 -0.5528  0.6490
10968SOL    HW244630  11.554  10.905   0.594 -3.4625 -0.0282  4.4006
10969SOL     OW44631   4.319   1.083  11.027  0.1397 -0.8494 -0.5705
10969SOL    HW144632   4.350   1.037  11.105  2.1138  2.0685  0.5209
10969SOL    HW244633   4.228   1.105  11.046  0.4509 -0.6040  0.7357
10970SOL     OW44634   3.778   8.372  12.479  0.3145 -0.3327  0.3850
10970SOL    HW144635   3.686   8.367  12.504  0.0878  0.9280 -0.1083
10970SOL    HW244636   3.781   8.338  12.389  0.2182  0.2147  0.1714
10971SOL     OW44637   4.532   2.985   4.770 -0.1059 -0.2604 -0.1214
10971SOL    HW144638   4.453   2.959   4.818 -1.1336  0.9933 -1.0374
10971SOL    HW244639   4.600   2.993   4.837 -1.1782  0.2224  0.9455
10972SOL     OW44640   0.821   4.154   3.278  0.1245  0.3953 -0.1442
10972SOL    HW144641   0.868   4.238   3.285 -2.2318  1.7122  0.9787
10972SOL    HW244642   0.793   4.135   3.367 -1.4023 -0.3692 -0.7627
10973SOL     OW44643  13.248   0.894   4.161 -0.0337  0.1133 -0.3731
10973SOL    HW144644  13.307   0.827   4.194  0.2084 -0.3477 -1.7128
10973SOL    HW244645  13.167   0.881   4.211  1.3511  1.6898  2.5556
10974SOL     OW44646   7.164  12.625   7.853  0.1238  0.4579 -0.1093
10974SOL    HW144647   7.171  12.573   7.773 -0.2714  1.4699 -0.8075
10974SOL    HW244648   7.078  12.665   7.849  0.7542  1.8783 -0.0251
10975SOL     OW44649   8.024   7.291  10.431  0.0966  0.2213  0.1942
10975SOL    HW144650   8.113   7.310  10.461  1.4591 -2.8471 -1.4830
10975SOL    HW244651   8.020   7.327  10.343 -0.9504  1.7432  0.8241
10976SOL     OW44652   6.394   9.670   8.188  0.2766 -0.0638  0.1250
10976SOL    HW144653   6.459   9.654   8.256 -1.3083  0.5262  1.8839
10976SOL    HW244654   6.362   9.584   8.163 -0.6331 -0.2355  1.7435
10977SOL     OW44655  12.127   0.509   7.519  0.0711 -0.0550 -0.5248
10977SOL    HW144656  12.097   0.419   7.535 -0.6229  0.0608 -1.1656
10977SOL    HW244657  12.051   0.564   7.539  0.9115  0.5404  1.3371
10978SOL     OW44658   5.343  10.813   8.902  0.2449 -0.1519 -0.3780
10978SOL    HW144659   5.305  10.780   8.984 -1.3685 -0.1899 -1.1035
10978SOL    HW244660   5.316  10.905   8.899 -0.8630 -0.4994 -1.4985
10979SOL     OW44661   6.394  12.770   9.254  0.0280 -0.8028  0.3491
10979SOL    HW144662   6.333  12.837   9.225  0.2327 -0.9370 -0.4382
10979SOL    HW244663   6.476  12.792   9.209  0.2531 -1.2423  0.5382
10980SOL     OW44664   0.637  10.538   3.490  0.1283 -0.1222  0.5768
10980SOL    HW144665   0.697  10.610   3.510  1.0286 -0.7132  0.0530
10980SOL    HW244666   0.687  10.459   3.509 -0.2519 -0.6335 -0.5038
10981SOL     OW44667   0.115   3.962   7.690  0.7007 -0.2301 -0.2849
10981SOL    HW144668   0.122   4.022   7.616 -1.2849  2.2490  1.3492
10981SOL    HW244669   0.024   3.970   7.719  1.4287 -0.8452  2.5662
10982SOL     OW44670   9.401  11.053   9.695 -0.3202 -0.1440 -0.5291
10982SOL    HW144671   9.329  10.991   9.697 -0.4214 -0.0507  1.7042
10982SOL    HW244672   9.477  11.002   9.723 -0.0051  0.2931 -0.5832
10983SOL     OW44673  10.594   5.631   5.661 -0.2370 -0.5754 -0.2397
10983SOL    HW144674  10.634   5.669   5.583  0.2558  0.2802  0.4118
10983SOL    HW244675  10.578   5.540   5.638  1.0110 -0.6378 -0.9243
10984SOL     OW44676  11.658  10.604   0.779 -0.1429 -0.1450 -0.2699
10984SOL    HW144677  11.662  10.691   0.740 -0.3302 -0.2983 -0.6336
10984SOL    HW244678  11.584  10.608   0.839 -0.8266 -0.3641 -1.0704
10985SOL     OW44679   2.753   2.304   3.092 -0.2867 -0.4558 -0.2389
10985SOL    HW144680   2.701   2.245   3.038  0.7497 -1.2399 -0.4051
10985SOL    HW244681   2.784   2.249   3.164 -0.7014  0.3005  0.5370
10986SOL     OW44682   5.236   7.918  10.451 -0.1256  0.5502  0.2575
10986SOL    HW144683   5.197   7.861  10.385 -1.3986  2.0801 -0.3917
10986SOL    HW244684   5.300   7.970  10.403 -0.3467  0.9839  0.4207
10987SOL     OW44685  10.841   7.412  12.910 -0.2660 -0.3170 -0.1158
10987SOL    HW144686  10.831   7.381  13.000  0.6712  1.2196  0.5573
10987SOL    HW244687  10.930   7.388  12.886 -0.0283  0.5461 -0.1095
10988SOL     OW44688   5.467   4.966   8.286  0.4235 -0.1230 -0.3522
10988SOL    HW144689   5.378   4.948   8.316  0.6268  1.0138  1.0177
10988SOL    HW244690   5.523   4.913   8.344  0.6054 -3.5825 -3.3462
10989SOL     OW44691   4.820   0.368  13.006 -0.0275 -0.2026 -0.5997
10989SOL    HW144692   4.753   0.330  13.062 -0.5831  1.6815  0.0771
10989SOL    HW244693   4.847   0.448  13.051  2.1843 -0.5322 -1.2031
10990SOL     OW44694   9.477   5.779   0.772 -0.1258  0.5862 -0.4860
10990SOL    HW144695   9.462   5.870   0.746 -0.9706  0.3578 -0.8333
10990SOL    HW244696   9.441   5.727   0.701 -2.0358 -0.0392  0.8351
10991SOL     OW44697   3.049   1.632   5.210 -0.3630  0.2437  0.1035
10991SOL    HW144698   2.967   1.681   5.202 -1.6248 -1.5727  1.1082
10991SOL    HW244699   3.027   1.544   5.179  0.7102 -0.7356  1.9289
10992SOL     OW44700  10.978   3.913  13.491  0.2499  0.5093 -0.1666
10992SOL    HW144701  10.910   3.852  13.522  1.0181 -0.6776 -0.7376
10992SOL    HW244702  10.945   3.945  13.407  1.3251 -1.7897 -1.5580
10993SOL     OW44703  11.763  11.348   6.935 -0.1577  0.1799  0.3349
10993SOL    HW144704  11.693  11.366   6.997  0.8201 -0.3467  1.6366
10993SOL    HW244705  11.836  11.318   6.989  0.1926 -1.9706 -1.2053
10994SOL     OW44706   4.830   1.795   8.491  0.4931 -0.0104 -0.1772
10994SOL    HW144707   4.845   1.723   8.430  1.7402 -1.6270  1.8771
10994SOL    HW244708   4.909   1.796   8.546  0.2599  2.5867  0.2381
10995SOL     OW44709  10.499   9.470   0.092 -0.5579 -0.3505 -0.0640
10995SOL    HW144710  10.425   9.525   0.066 -1.7931 -2.4226 -1.1929
10995SOL    HW244711  10.503   9.402   0.025  1.5611 -1.0498  0.7030
10996SOL     OW44712   6.808  10.348  13.329 -0.0254 -0.2745 -0.2471
10996SOL    HW144713   6.880  10.352  13.392  1.2135 -0.2648 -1.6117
10996SOL    HW244714   6.730  10.339  13.383  0.9785 -0.2029  1.2905
10997SOL     OW44715  11.228   2.124   9.777 -0.2870  0.8877  0.2401
10997SOL    HW144716  11.248   2.104   9.685  1.7421  1.5059  0.4990
10997SOL    HW244717  11.187   2.045   9.810  0.9644 -0.1765 -0.6470
10998SOL     OW44718   1.879   5.592  11.308  0.5146  0.8786 -0.3518
10998SOL    HW144719   1.854   5.639  11.387  1.2861  1.3514 -0.3778
10998SOL    HW244720   1.800   5.545  11.282  0.3358  0.4804  0.8604
10999SOL     OW44721  13.600   2.933  13.684 -0.0741 -0.0883  0.1511
10999SOL    HW144722  13.573   2.851  13.725  0.8026 -0.1431  0.6263
10999SOL    HW244723  13.691   2.919  13.659  0.6457  1.2901  1.7752
11000SOL     OW44724   5.130  13.310   5.336 -0.3790  0.0024 -0.0660
11000SOL    HW144725   5.215  13.293   5.379 -0.2079 -0.3845 -0.5576
11000SOL    HW244726   5.137  13.401   5.306 -0.9499  0.6998  1.7518
11001SOL     OW44727  10.252   5.047   1.552 -0.1155 -0.2410 -0.0015
11001SOL    HW144728  10.197   5.093   1.616 -1.7858  0.5957 -1.9091
11001SOL    HW244729  10.340   5.082   1.566 -0.6430  0.6922  1.1423
11002SOL     OW44730   1.951  12.426   9.373  0.1765  0.2730  0.0306
11002SOL    HW144731   1.987  12.349   9.415 -1.6341 -1.0335 -0.6590
11002SOL    HW244732   2.012  12.497   9.395  2.5354 -1.5384 -0.2769
11003SOL     OW44733   3.011   6.461   6.965 -0.1706 -0.3445 -0.0965
11003SOL    HW144734   2.966   6.450   7.048 -1.9751 -0.4374 -1.0552
11003SOL    HW244735   3.057   6.545   6.973 -1.6967  0.4652  0.3881
11004SOL     OW44736   2.057   3.341   4.633  0.2609 -0.1768  0.1825
11004SOL    HW144737   1.986   3.371   4.689 -0.0046  1.4201 -0.9561
11004SOL    HW244738   2.018   3.273   4.579 -0.0770 -0.1553  0.3997
11005SOL     OW44739  11.864  13.260   6.727  0.1533 -0.3200 -0.1292
11005SOL    HW144740  11.898  13.242   6.639  0.0337  0.4917 -0.3521
11005SOL    HW244741  11.843  13.174   6.763  0.8153 -0.7108 -0.6473
11006SOL     OW44742   2.395  10.423  12.177  0.4447 -0.4885  0.1570
11006SOL    HW144743   2.307  10.450  12.204 -0.8396 -1.9398 -2.2147
11006SOL    HW244744   2.399  10.330  12.199  0.9937 -0.6617 -0.6131
11007SOL     OW44745  10.347   2.318  11.418 -0.2752 -0.1059 -0.2549
11007SOL    HW144746  10.363   2.225  11.432  1.8661  0.3317  0.6112
11007SOL    HW244747  10.279   2.321  11.350 -1.0836 -2.2709  0.3786
11008SOL     OW44748   9.532  10.635  12.624  0.2613  0.4087  0.5975
11008SOL    HW144749   9.545  10.724  12.593 -1.3105  1.3114  2.3198
11008SOL    HW244750   9.475  10.595  12.558  1.5652  0.3875 -0.5607
11009SOL     OW44751   0.332   1.418   4.908 -0.0609 -0.0646  0.0310
11009SOL    HW144752   0.399   1.428   4.840  0.1202  1.0974  0.3591
11009SOL    HW244753   0.251   1.449   4.866 -0.3170 -1.0507 -0.2234
11010SOL     OW44754  12.678   7.299   3.701  1.0075  0.6545  0.2420
11010SOL    HW144755  12.600   7.305   3.756  2.6347 -1.5213  3.0442
11010SOL    HW244756  12.719   7.385   3.710  1.1896  0.3987  2.5361
11011SOL     OW44757   7.350   3.625   9.432  0.6943 -0.2126 -0.4350
11011SOL    HW144758   7.309   3.539   9.425  0.9560 -0.4288  0.5384
11011SOL    HW244759   7.413   3.615   9.503  1.5750  0.4526 -1.1058
11012SOL     OW44760  10.243   1.339  10.362 -0.0936 -0.1220  0.3219
11012SOL    HW144761  10.212   1.354  10.272  1.8227  0.1271 -0.3472
11012SOL    HW244762  10.169   1.298  10.406 -1.5132  0.8666 -1.0220
11013SOL     OW44763  11.719   9.245  10.187 -0.1091 -0.9523 -0.5630
11013SOL    HW144764  11.742   9.219  10.098 -1.7816  0.9508 -1.6499
11013SOL    HW244765  11.758   9.178  10.243 -1.3884 -3.8259 -2.8619
11014SOL     OW44766   9.710  11.864   9.305  0.3913 -0.0524  0.1280
11014SOL    HW144767   9.640  11.852   9.240  0.2484 -0.0175  0.2741
11014SOL    HW244768   9.785  11.893   9.254  0.3710 -0.3287 -0.0632
11015SOL     OW44769   8.033  11.727   7.436 -0.3553 -0.2248 -0.6001
11015SOL    HW144770   8.125  11.720   7.411 -0.7068 -1.7199 -1.5931
11015SOL    HW244771   8.033  11.718   7.532  0.6253  1.2407 -0.4266
11016SOL     OW44772   0.538   0.374   2.052  0.2005 -0.3837  0.0227
11016SOL    HW144773   0.447   0.347   2.045 -0.2831  1.0482  0.3405
11016SOL    HW244774   0.547   0.447   1.989  0.3926  1.2159  1.8149
11017SOL     OW44775   0.642  12.641   4.403  0.8743 -0.2847  0.2349
11017SOL    HW144776   0.715  12.582   4.418  0.4084 -0.2893  2.8576
11017SOL    HW244777   0.565  12.585   4.406  0.6340 -0.1194 -1.4772
11018SOL     OW44778  11.129   1.496   2.324  0.1288  0.4048  0.6929
11018SOL    HW144779  11.183   1.470   2.399  0.4918 -0.1686  0.2423
11018SOL    HW244780  11.046   1.450   2.338 -0.1217  0.9858  1.1865
11019SOL     OW44781  11.526   4.891   4.134  0.3099 -0.6431  0.3446
11019SOL    HW144782  11.573   4.969   4.163 -0.3281 -0.0900 -0.0765
11019SOL    HW244783  11.524   4.835   4.211  1.8274 -0.7808  0.3228
11020SOL     OW44784  11.055   6.608   0.189 -0.1119 -0.2044  0.2745
11020SOL    HW144785  10.990   6.575   0.251  0.5774 -0.7350  0.7274
11020SOL    HW244786  11.015   6.595   0.103 -1.6395  1.7066  0.5984
11021SOL     OW44787   4.072   2.809  12.145 -0.2638  0.4341 -0.5737
11021SOL    HW144788   4.084   2.716  12.125  1.2538  1.1644 -3.8417
11021SOL    HW244789   4.016   2.842  12.074  1.2116  2.4075 -0.9144
11022SOL     OW44790  11.104   2.349   3.954 -0.0355  0.4230 -0.0346
11022SOL    HW144791  11.044   2.302   3.895 -1.0957  1.1133  0.4545
11022SOL    HW244792  11.088   2.311   4.040  0.1837  0.6602  0.1122
11023SOL     OW44793  13.208   3.152   2.839 -0.6311  0.1258  0.0762
11023SOL    HW144794  13.211   3.142   2.744 -1.7750  0.2975  0.0095
11023SOL    HW244795  13.248   3.237   2.856 -1.1561  0.4621 -0.3336
11024SOL     OW44796   9.467   7.234  13.134  0.2534 -1.0291  0.0009
11024SOL    HW144797   9.535   7.297  13.157 -0.8308  0.0318  0.3912
11024SOL    HW244798   9.437   7.261  13.048 -1.2557 -0.0429  0.7936
11025SOL     OW44799   3.146   0.290  13.374  0.7502 -0.0928  0.9530
11025SOL    HW144800   3.124   0.305  13.282  1.8335 -0.1550  0.6683
11025SOL    HW244801   3.063   0.298  13.420 -0.0405 -1.3921 -0.1771
11026SOL     OW44802   1.970  12.258  10.102  0.2325 -0.3826 -0.2481
11026SOL    HW144803   2.019  12.291  10.177  1.1520  0.7676 -1.3177
11026SOL    HW244804   2.035  12.212  10.049 -0.4796 -1.5053 -0.1769
11027SOL     OW44805   5.990   8.330  12.147 -0.6213  0.2105 -0.2172
11027SOL    HW144806   6.081   8.360  12.141  0.1285 -1.5293  1.4112
11027SOL    HW244807   5.994   8.238  12.124 -1.6755 -0.2955  1.4874
11028SOL     OW44808   2.601   7.724   3.807  0.2159  0.1479  0.1328
11028SOL    HW144809   2.694   7.744   3.821  0.2287 -1.2193  2.4262
11028SOL    HW244810   2.597   7.629   3.803 -1.0559  0.2061 -0.2993
11029SOL     OW44811   1.614   1.580   0.716  0.1306 -0.4791 -0.1745
11029SOL    HW144812   1.686   1.517   0.710  0.2960 -0.6475  2.2262
11029SOL    HW244813   1.632   1.644   0.647  2.8471 -0.2956  0.5567
11030SOL     OW44814   5.808  10.624   5.260 -0.2320  0.2292 -0.2022
11030SOL    HW144815   5.783  10.534   5.283 -3.0282  1.0368  0.2818
11030SOL    HW244816   5.864  10.653   5.332 -0.9832 -0.4721  0.6852
11031SOL     OW44817   1.176  11.661   3.001 -0.4163 -0.2662 -0.0622
11031SOL    HW144818   1.249  11.700   2.953 -0.8475 -0.0208 -0.5244
11031SOL    HW244819   1.162  11.576   2.959 -0.7033 -0.1103 -0.2864
11032SOL     OW44820   0.193   6.097   6.368  0.2991  0.0384  0.3905
11032SOL    HW144821   0.209   6.042   6.291  0.3450  1.0385 -0.3446
11032SOL    HW244822   0.186   6.185   6.332 -2.1688  0.2470  1.2230
11033SOL     OW44823   1.880   3.042   7.750  0.1066 -0.6992 -0.4437
11033SOL    HW144824   1.912   3.025   7.662  0.4352 -1.7993 -0.1308
11033SOL    HW244825   1.921   2.975   7.804  0.3725  0.3026  0.6578
11034SOL     OW44826   8.941  12.874   2.233 -0.6887 -0.1790  0.5159
11034SOL    HW144827   8.952  12.897   2.325 -2.1953 -1.1136  0.9670
11034SOL    HW244828   8.969  12.782   2.228  0.5828  0.2255 -0.2379
11035SOL     OW44829   7.170   9.136  13.672 -0.3571  0.6757 -0.0290
11035SOL    HW144830   7.240   9.168  13.615 -1.0381  0.4464 -1.0383
11035SOL    HW244831   7.122   9.215  13.698  1.8593  1.1978  2.9908
11036SOL     OW44832   2.083  10.045   1.325 -0.1625 -0.2341  0.6714
11036SOL    HW144833   2.087  10.056   1.230 -0.7179  0.7452  0.7384
11036SOL    HW244834   2.006   9.990   1.340  0.1785 -0.7522  0.5359
11037SOL     OW44835   7.765   0.034   5.201  0.2145  0.0959 -0.3844
11037SOL    HW144836   7.746   0.002   5.113 -0.7817  1.1851 -0.5891
11037SOL    HW244837   7.702   0.105   5.215 -0.4887 -0.8394  1.6616
11038SOL     OW44838   6.650   5.374  10.994  0.1186  0.1465  0.1084
11038SOL    HW144839   6.671   5.336  11.079  0.6444 -1.1553 -0.5630
11038SOL    HW244840   6.586   5.443  11.013  0.2921 -0.0590  1.5490
11039SOL     OW44841   1.009   9.977   1.282 -0.0444  0.5681 -0.3560
11039SOL    HW144842   0.987   9.898   1.332  3.7004 -0.6194 -0.3328
11039SOL    HW244843   1.063  10.028   1.341 -0.1949  1.8927 -1.3301
11040SOL     OW44844   7.199   7.586  11.943  0.1501 -0.2765 -0.2698
11040SOL    HW144845   7.118   7.577  11.893 -0.1544  1.2740 -0.1093
11040SOL    HW244846   7.182   7.657  12.005  1.6897  0.2360 -0.3725
11041SOL     OW44847   8.804   5.444   8.656 -0.5382 -0.4754  0.2958
11041SOL    HW144848   8.799   5.387   8.580  1.4957 -0.5105  0.1227
11041SOL    HW244849   8.898   5.446   8.678 -0.7708  1.4241  1.3310
11042SOL     OW44850   2.021   4.276   7.623 -0.0416  0.3709 -0.1367
11042SOL    HW144851   2.046   4.184   7.621  0.2859  0.4571 -2.2766
11042SOL    HW244852   1.960   4.283   7.697 -1.5437 -1.9753 -1.0307
11043SOL     OW44853  12.210   7.314   6.986 -0.6744  0.0730  0.1322
11043SOL    HW144854  12.225   7.345   7.075 -0.4693 -1.0500  0.5052
11043SOL    HW244855  12.148   7.377   6.948 -2.7021 -0.7608  1.8887
11044SOL     OW44856   1.505   6.802   6.754 -0.5025 -0.5138 -0.5130
11044SOL    HW144857   1.525   6.750   6.832 -1.1966 -0.3048 -0.1913
11044SOL    HW244858   1.591   6.821   6.716 -0.2483 -2.4725 -1.0381
11045SOL     OW44859   1.388   4.094   3.336  0.8063  0.2982  0.5744
11045SOL    HW144860   1.367   4.022   3.395 -0.7056  0.5251  0.3768
11045SOL    HW244861   1.483   4.099   3.335  1.0080 -2.3852 -0.2406
11046SOL     OW44862   8.564   9.632   4.715  0.0438 -0.2934 -0.1736
11046SOL    HW144863   8.586   9.624   4.808 -2.4931 -1.5812  0.3964
11046SOL    HW244864   8.594   9.549   4.676 -0.4786 -0.4977 -0.1417
11047SOL     OW44865   5.528  13.368   8.851 -0.6397  0.2248 -0.0479
11047SOL    HW144866   5.599  13.327   8.802 -0.2929  1.6657 -0.8249
11047SOL    HW244867   5.469  13.401   8.784 -0.4654  1.7055  0.4819
11048SOL     OW44868  10.348   3.560   5.661  0.1493 -0.0601 -0.2421
11048SOL    HW144869  10.315   3.516   5.583 -0.3591  1.6623 -1.0472
11048SOL    HW244870  10.285   3.540   5.730  0.4674 -1.3828 -0.3111
11049SOL     OW44871   6.851   9.599  13.378 -0.0604  0.4873  0.5539
11049SOL    HW144872   6.889   9.532  13.434 -0.3905 -0.2147 -0.0322
11049SOL    HW244873   6.925   9.646  13.340  0.2743 -1.0383 -0.7900
11050SOL     OW44874   2.822  11.412   6.111  0.0976 -0.4440 -0.1700
11050SOL    HW144875   2.880  11.336   6.101 -0.2051 -0.8740  1.0326
11050SOL    HW244876   2.741  11.386   6.066  0.0804 -0.7515  0.0290
11051SOL     OW44877   6.882  12.244   2.175  0.1227 -0.3447  0.3778
11051SOL    HW144878   6.944  12.205   2.114  0.1933 -0.5667  0.5917
11051SOL    HW244879   6.868  12.333   2.142 -1.4755 -1.1200 -1.2134
11052SOL     OW44880   9.712  10.569  13.696  0.0422 -0.0758  0.4604
11052SOL    HW144881   9.723  10.625  13.773  1.7464 -0.6562  0.6968
11052SOL    HW244882   9.769  10.494  13.714  1.3670  0.2997 -1.8487
11053SOL     OW44883  11.662   1.076   0.507 -0.1709  0.6746  0.3068
11053SOL    HW144884  11.639   1.026   0.586 -0.1625  1.7692  1.0127
11053SOL    HW244885  11.614   1.158   0.515  1.7961  1.8893  0.4788
11054SOL     OW44886   6.907   6.116  10.262 -0.2684  0.0680  0.7124
11054SOL    HW144887   6.832   6.131  10.204 -0.7746 -0.0444  1.3189
11054SOL    HW244888   6.952   6.040  10.225 -0.0249  0.5844 -0.0765
11055SOL     OW44889  11.948   1.977   2.863  0.4935 -0.8610 -0.2024
11055SOL    HW144890  11.958   2.053   2.806  1.6083 -1.4201 -0.7954
11055SOL    HW244891  11.962   2.011   2.952 -2.4101  0.2436 -0.0538
11056SOL     OW44892   3.191  13.099   1.189  0.1012  0.5221 -0.0767
11056SOL    HW144893   3.102  13.136   1.190 -0.4348 -0.6844 -0.8498
11056SOL    HW244894   3.185  13.021   1.244  0.3808 -0.1835 -1.0193
11057SOL     OW44895   4.534   0.068   7.475  0.8910 -0.2151 -0.1947
11057SOL    HW144896   4.601   0.054   7.408  0.3823  0.4405 -0.8576
11057SOL    HW244897   4.529   0.163   7.483  0.5628 -0.2816  0.3853
11058SOL     OW44898  12.893   6.323   8.511  0.9354 -0.6909 -1.0392
11058SOL    HW144899  12.934   6.265   8.575  1.2123  1.1613  0.5736
11058SOL    HW244900  12.800   6.297   8.512  0.6578  0.1506  1.2059
11059SOL     OW44901   8.055   6.827   4.908 -0.3767  0.3538 -0.8102
11059SOL    HW144902   7.986   6.761   4.912  0.6267 -0.6696  0.3135
11059SOL    HW244903   8.106   6.804   4.831  0.2054 -0.4605 -0.2025
11060SOL     OW44904  12.401   6.604  11.321 -0.7044 -0.1166 -0.9225
11060SOL    HW144905  12.372   6.606  11.413  0.3104 -1.4030 -0.5430
11060SOL    HW244906  12.325   6.633  11.272 -1.9751 -1.3811  0.1942
11061SOL     OW44907  13.226   9.687   7.952 -0.0922 -0.1023  0.4216
11061SOL    HW144908  13.187   9.773   7.963  1.5513  0.6807  0.3760
11061SOL    HW244909  13.287   9.697   7.879 -0.2026 -1.4243  0.1210
11062SOL     OW44910   1.321   7.415   4.734  0.3345 -0.3576 -0.0129
11062SOL    HW144911   1.415   7.432   4.746  0.3508 -0.8196  0.5783
11062SOL    HW244912   1.278   7.497   4.758  0.4157 -1.0146  2.6855
11063SOL     OW44913   0.661  13.722   7.023 -0.4463  0.2403  0.1336
11063SOL    HW144914   0.659  13.626   7.026 -0.2580  0.2571  1.8629
11063SOL    HW244915   0.746  13.743   6.984 -0.8360 -0.2872 -1.0232
11064SOL     OW44916  10.987  10.485   3.979  0.1866  0.1657 -0.1494
11064SOL    HW144917  10.906  10.526   4.010  1.0766  0.9354  1.2418
11064SOL    HW244918  11.032  10.555   3.931  0.0116 -0.2874 -1.0000
11065SOL     OW44919   5.796   3.924   7.891 -0.0820 -0.1958  0.4719
11065SOL    HW144920   5.850   3.913   7.812  0.4027 -0.3237  0.8154
11065SOL    HW244921   5.767   4.015   7.888 -0.3431 -0.2908 -0.0258
11066SOL     OW44922   5.885   9.568   8.760  0.6168 -0.4172 -0.5658
11066SOL    HW144923   5.926   9.606   8.838 -0.3250  0.2146 -0.3652
11066SOL    HW244924   5.939   9.600   8.687  0.8442 -0.1005 -0.2647
11067SOL     OW44925  11.581   8.931  12.416  0.3086 -0.0855 -0.3384
11067SOL    HW144926  11.601   8.839  12.398  1.6945  0.0233  0.4516
11067SOL    HW244927  11.605   8.977  12.336 -0.1785 -0.3854 -0.6597
11068SOL     OW44928  11.492   4.296   0.871 -0.3636 -0.2705  0.0558
11068SOL    HW144929  11.421   4.239   0.841  0.0267 -1.5772  1.5365
11068SOL    HW244930  11.551   4.301   0.796 -0.2038 -2.1690  0.0147
11069SOL     OW44931   1.849   9.348   1.428 -0.0689  0.4371  0.0981
11069SOL    HW144932   1.861   9.307   1.513 -0.7477  0.0856  0.0311
11069SOL    HW244933   1.804   9.431   1.447  1.5774  1.3450  0.2645
11070SOL     OW44934  12.226   8.361   6.724  0.1206  0.5757 -0.1876
11070SOL    HW144935  12.153   8.421   6.712 -0.8365 -0.6878 -1.1247
11070SOL    HW244936  12.272   8.362   6.639 -0.1322 -0.2584 -0.3481
11071SOL     OW44937   2.228   6.415  11.496  0.4865 -0.1564  0.5221
11071SOL    HW144938   2.276   6.498  11.497  0.0065  0.1220  0.5744
11071SOL    HW244939   2.273   6.361  11.561  0.3548  0.3220  1.0205
11072SOL     OW44940  11.074   0.754   1.645  0.3652 -0.0484  0.0791
11072SOL    HW144941  11.161   0.751   1.606 -0.2357  0.7003 -1.3734
11072SOL    HW244942  11.018   0.708   1.583 -0.2723 -0.6075  1.0453
11073SOL     OW44943   8.399   2.488  13.743  0.5173  0.5066  0.6891
11073SOL    HW144944   8.373   2.554  13.807 -1.0589 -0.1601  0.7777
11073SOL    HW244945   8.341   2.414  13.760  0.9235 -0.1632 -0.6834
11074SOL     OW44946   0.473   0.788   3.083 -0.4622  0.0416  0.9604
11074SOL    HW144947   0.524   0.732   3.026 -0.4996  1.6641 -0.7512
11074SOL    HW244948   0.526   0.797   3.162  0.7537 -0.2804  0.2026
11075SOL     OW44949   0.926   7.067   2.395 -0.0822 -0.2042  0.1941
11075SOL    HW144950   0.921   7.055   2.301  0.0297  0.2874  0.1214
11075SOL    HW244951   0.847   7.025   2.429 -0.1479 -0.3367 -0.1224
11076SOL     OW44952   3.609  12.622   5.061  0.7438 -0.4005 -0.2170
11076SOL    HW144953   3.541  12.562   5.031  0.2012  0.9694 -1.9049
11076SOL    HW244954   3.683  12.566   5.083 -0.0579 -1.7463 -0.7957
11077SOL     OW44955  11.165   3.851   2.285  0.5158  0.2658 -0.0973
11077SOL    HW144956  11.185   3.764   2.251  1.8021 -0.3621  2.1123
11077SOL    HW244957  11.071   3.849   2.301  0.3353 -0.2973 -1.1058
11078SOL     OW44958   7.362  10.376   2.579  0.4531 -0.0808 -0.3920
11078SOL    HW144959   7.439  10.329   2.611  0.7667  0.7288  0.0729
11078SOL    HW244960   7.316  10.404   2.658  0.4370  0.6554 -0.6612
11079SOL     OW44961   2.838   9.364   3.334 -0.7300  0.1572 -0.0014
11079SOL    HW144962   2.821   9.270   3.322 -0.3737  0.2657 -1.6553
11079SOL    HW244963   2.933   9.371   3.332 -0.7782  0.6756 -1.1994
11080SOL     OW44964   9.778   5.325  11.015 -0.3599  0.0719  0.1307
11080SOL    HW144965   9.725   5.375  10.954  0.1977  0.7498  0.1971
11080SOL    HW244966   9.757   5.233  10.996 -0.6853  0.2999 -0.6169
11081SOL     OW44967   2.841   1.725   4.838 -0.2071 -0.2926 -0.0028
11081SOL    HW144968   2.805   1.705   4.925 -1.4609  2.4151  0.2146
11081SOL    HW244969   2.936   1.714   4.848 -0.3215 -0.0157  1.7465
11082SOL     OW44970   2.290   8.814  10.219 -0.4872 -0.4579 -0.1388
11082SOL    HW144971   2.348   8.847  10.287  0.6614 -0.2609 -1.1912
11082SOL    HW244972   2.227   8.884  10.204  0.4668  0.3097 -0.6603
11083SOL     OW44973   4.078   5.933  12.714  0.2933 -1.1177  0.3934
11083SOL    HW144974   4.127   5.855  12.742  1.4994 -0.5352 -0.0210
11083SOL    HW244975   4.052   5.975  12.796 -2.5654 -3.1914  0.7105
11084SOL     OW44976  11.588   4.922  10.273  0.3492 -0.2888 -1.0035
11084SOL    HW144977  11.495   4.905  10.254  0.1674  0.6943 -1.0461
11084SOL    HW244978  11.634   4.894  10.194 -0.0543  0.4614 -1.5182
11085SOL     OW44979   5.903   8.530   8.141  0.4125 -0.1284  0.4744
11085SOL    HW144980   5.916   8.454   8.197  0.6901  0.5257  1.3145
11085SOL    HW244981   5.857   8.593   8.196 -0.2684  0.1369 -0.3700
11086SOL     OW44982  10.914   5.949   4.020  0.1485  0.2014  0.6573
11086SOL    HW144983  10.821   5.957   4.041  0.1520  2.2254  0.0823
11086SOL    HW244984  10.952   5.905   4.096 -1.2265 -0.4964  0.9827
11087SOL     OW44985   1.807  11.582   0.531  0.2341  0.1856 -0.3181
11087SOL    HW144986   1.790  11.490   0.551  2.0333 -0.0603  0.3020
11087SOL    HW244987   1.763  11.630   0.601 -3.5869  0.1126 -2.4060
11088SOL     OW44988   9.494   0.957   9.107  0.6900 -0.3863 -0.2421
11088SOL    HW144989   9.567   1.014   9.082  0.2908  0.1851 -0.1155
11088SOL    HW244990   9.418   1.014   9.105  0.4982 -0.5635  1.3349
11089SOL     OW44991  11.249   0.614  13.064 -0.3240 -0.2138 -0.1216
11089SOL    HW144992  11.255   0.551  12.992 -0.2845  1.0417 -1.2483
11089SOL    HW244993  11.177   0.672  13.039 -0.1808  0.3697  0.7665
11090SOL     OW44994  12.039   2.447  12.543 -0.0834 -0.3512  0.3929
11090SOL    HW144995  11.955   2.425  12.503 -0.2093 -0.8065  0.9020
11090SOL    HW244996  12.048   2.541  12.530  0.2503 -0.5927 -1.4282
11091SOL     OW44997   9.675  10.632   6.060 -0.2298  0.2761  0.4322
11091SOL    HW144998   9.623  10.625   5.980  1.4023  0.5038 -0.7028
11091SOL    HW244999   9.640  10.708   6.106 -1.3329  0.0055  0.0653
11092SOL     OW45000   9.439  13.729   0.786 -0.3359  0.2150  0.5260
11092SOL    HW145001   9.420  13.757   0.875 -0.7898  0.3023  0.4055
11092SOL    HW245002   9.475  13.641   0.795 -1.7851 -0.3748  0.6931
11093SOL     OW45003  11.134   6.472  13.670  0.1077  0.0102 -0.0070
11093SOL    HW145004  11.230   6.476  13.678  0.1761 -1.6684  0.3191
11093SOL    HW245005  11.118   6.403  13.606 -0.8869  0.5724 -0.3751
11094SOL     OW45006   1.984   6.274   9.179 -0.1187  0.2888  0.1414
11094SOL    HW145007   1.988   6.351   9.123 -0.2970  0.4181  0.3056
11094SOL    HW245008   2.054   6.287   9.243  0.5533 -0.1942 -0.4692
11095SOL     OW45009   9.605   1.409  10.000  0.2801  0.0629  0.2733
11095SOL    HW145010   9.646   1.461   9.931  0.0707 -1.8293 -1.3611
11095SOL    HW245011   9.513   1.436   9.999  0.3572  0.3254  0.1039
11096SOL     OW45012   9.478  10.733   5.880  0.2101 -0.5276 -0.3049
11096SOL    HW145013   9.412  10.722   5.948  1.3054 -0.7668  0.7474
11096SOL    HW245014   9.487  10.828   5.871  1.4526 -0.4589  1.3095
11097SOL     OW45015   7.470  10.547   2.877  0.3337 -0.0054 -0.3653
11097SOL    HW145016   7.486  10.631   2.920  0.9410 -1.2988  2.1600
11097SOL    HW245017   7.381  10.524   2.903  1.0695 -1.2862  1.1769
11098SOL     OW45018   5.808   5.780  11.581 -0.1627  0.0589  0.3688
11098SOL    HW145019   5.732   5.834  11.561 -0.6514 -0.9954 -0.7534
11098SOL    HW245020   5.881   5.824  11.536 -0.1874  0.7837  1.0176
11099SOL     OW45021   4.433   0.403  11.716 -0.8139 -0.2210  0.1116
11099SOL    HW145022   4.507   0.455  11.748 -0.1908 -0.0326 -1.5177
11099SOL    HW245023   4.356   0.444  11.754 -0.1114 -0.1241  1.4604
11100SOL     OW45024   9.191   0.839   7.075  0.4692  0.3596 -0.1326
11100SOL    HW145025   9.173   0.764   7.019  2.1037  0.1016 -0.3830
11100SOL    HW245026   9.278   0.869   7.048 -0.0784  2.2830  0.0458
11101SOL     OW45027  10.155   5.314   2.541 -0.0787 -0.2517  0.8294
11101SOL    HW145028  10.086   5.277   2.486 -1.7549 -0.7977  3.1075
11101SOL    HW245029  10.165   5.250   2.612  3.4514 -0.5944  0.1647
11102SOL     OW45030  11.295  12.796  12.694  0.6864  0.0032 -1.0101
11102SOL    HW145031  11.305  12.882  12.735  0.0609 -0.2329 -0.3497
11102SOL    HW245032  11.278  12.736  12.767  0.5356 -0.5879 -1.5244
11103SOL     OW45033   4.255   4.524   4.869 -0.3051 -0.2330 -0.3165
11103SOL    HW145034   4.350   4.527   4.859 -0.3797 -1.6468 -1.7006
11103SOL    HW245035   4.221   4.530   4.779 -1.4905 -0.7072  0.0816
11104SOL     OW45036   5.555   6.063   9.894 -0.1263  0.0533 -0.2759
11104SOL    HW145037   5.568   6.154   9.922 -0.2718  0.7969 -2.4006
11104SOL    HW245038   5.643   6.025   9.897  0.1250  0.6061 -0.3869
11105SOL     OW45039  12.903   3.448   5.301 -0.0760  0.0323 -0.2322
11105SOL    HW145040  12.971   3.385   5.327 -0.8798 -1.3010 -1.3002
11105SOL    HW245041  12.866   3.477   5.384 -0.0109 -1.2723  0.2812
11106SOL     OW45042   2.907   8.267  12.895 -0.9450 -0.4073  0.0547
11106SOL    HW145043   2.873   8.309  12.816 -0.4272  1.2324  0.6783
11106SOL    HW245044   2.907   8.336  12.961  1.6354 -0.8723  0.6480
11107SOL     OW45045   0.296   0.164   5.648  0.4500 -0.2354 -0.2075
11107SOL    HW145046   0.292   0.185   5.554 -2.1743 -1.1575 -0.3702
11107SOL    HW245047   0.350   0.234   5.685 -0.4097  1.5374 -2.0717
11108SOL     OW45048   5.063   1.598   5.268 -0.1185  0.4065  0.0074
11108SOL    HW145049   4.972   1.628   5.277  0.0792  1.3368 -0.9294
11108SOL    HW245050   5.061   1.534   5.198 -0.4003 -1.2724  1.4758
11109SOL     OW45051  12.379  11.303   3.354 -0.1996 -0.3047  0.4660
11109SOL    HW145052  12.374  11.216   3.315 -4.6856  0.2794 -0.8581
11109SOL    HW245053  12.291  11.319   3.389  1.1077  2.7914  2.9152
11110SOL     OW45054   8.820   2.496   3.263  0.2931  0.3891  0.7137
11110SOL    HW145055   8.758   2.564   3.292  1.0222  0.9341  1.0093
11110SOL    HW245056   8.902   2.518   3.307  0.3418 -1.1519  1.4375
11111SOL     OW45057   9.068   8.763   8.176 -0.1157  0.2162 -0.1292
11111SOL    HW145058   9.082   8.699   8.107 -0.5206  0.5067 -0.4860
11111SOL    HW245059   8.996   8.726   8.228  0.9949 -0.6090  0.8908
11112SOL     OW45060   8.504   1.018   7.137  0.7669  0.0012 -0.1638
11112SOL    HW145061   8.491   1.100   7.185  2.6460  0.9332 -1.1511
11112SOL    HW245062   8.504   1.044   7.045  0.4020 -1.2859 -0.5551
11113SOL     OW45063   6.773   9.561   1.892 -0.1168 -0.1536 -0.6807
11113SOL    HW145064   6.817   9.536   1.973 -0.1564 -0.2214 -0.6804
11113SOL    HW245065   6.801   9.651   1.876  0.2251 -0.2848 -0.8160
11114SOL     OW45066   3.766   8.559   2.650  0.0000  0.3206 -0.4885
11114SOL    HW145067   3.724   8.493   2.594  0.3464  0.9378 -1.5096
11114SOL    HW245068   3.769   8.519   2.737 -0.2157 -0.8171 -0.9917
11115SOL     OW45069   3.926   9.270   9.257 -0.1356 -0.0233 -0.3369
11115SOL    HW145070   3.905   9.177   9.260 -0.6097 -0.0360 -2.4989
11115SOL    HW245071   3.855   9.309   9.205  0.1619  1.5223  0.3526
11116SOL     OW45072   0.131   1.947  11.673  0.8319  0.2029 -0.1662
11116SOL    HW145073   0.080   2.002  11.732 -0.7129 -0.8230 -0.4660
11116SOL    HW245074   0.182   1.890  11.731  1.1976  0.8465  0.1477
11117SOL     OW45075  11.320   8.173   8.948  0.4056  0.1891  0.1845
11117SOL    HW145076  11.342   8.226   9.024 -0.9579 -1.7184  2.0413
11117SOL    HW245077  11.225   8.179   8.941  0.4765  0.1164 -1.2556
11118SOL     OW45078   6.886  12.812  11.240 -0.1267 -0.2798 -0.1913
11118SOL    HW145079   6.811  12.763  11.274  0.4472 -0.6348  0.5896
11118SOL    HW245080   6.850  12.896  11.214 -0.7958 -0.4446  0.1881
11119SOL     OW45081   8.061   6.989  11.802 -0.2013  0.1968  0.2850
11119SOL    HW145082   8.078   7.073  11.759 -1.0645 -0.0876 -0.6344
11119SOL    HW245083   8.095   6.923  11.741 -0.6293 -0.1731  0.4453
11120SOL     OW45084  10.872   9.728   1.568 -0.6517  0.4817 -0.0925
11120SOL    HW145085  10.809   9.655   1.573 -0.7570  0.4406 -1.6682
11120SOL    HW245086  10.846   9.786   1.640  0.5940 -1.8712  2.4789
11121SOL     OW45087   5.195  13.372  10.366 -0.1806  0.1423  0.4246
11121SOL    HW145088   5.214  13.338  10.278 -0.0649  1.6040 -0.1596
11121SOL    HW245089   5.272  13.349  10.418  0.6839  1.0102 -0.4216
11122SOL     OW45090   6.978   7.310  10.039  0.0930 -0.3864  0.7721
11122SOL    HW145091   7.065   7.320  10.079  0.2120 -1.1934  0.7290
11122SOL    HW245092   6.945   7.227  10.074 -0.2882 -0.5297  0.0927
11123SOL     OW45093   1.850   0.244   2.302 -0.5650  0.2826 -1.0979
11123SOL    HW145094   1.789   0.317   2.315 -1.0705 -0.0161 -1.7251
11123SOL    HW245095   1.802   0.168   2.335 -0.7117 -0.0217 -1.9909
11124SOL     OW45096   3.734   9.634   7.601 -0.1279  0.1315  0.3676
11124SOL    HW145097   3.708   9.569   7.535  1.0668 -0.2185  0.2240
11124SOL    HW245098   3.816   9.600   7.637 -0.1826  0.8954  1.2421
11125SOL     OW45099  12.599   0.701   5.144  0.5859 -0.3298  0.4752
11125SOL    HW145100  12.570   0.780   5.188 -0.3757 -0.3391 -0.1186
11125SOL    HW245101  12.670   0.730   5.086  1.5530 -0.2445  1.6601
11126SOL     OW45102   8.756   9.802  11.518 -0.2302 -0.3050 -0.3438
11126SOL    HW145103   8.737   9.713  11.489  1.0888 -1.4316  1.9550
11126SOL    HW245104   8.852   9.808  11.518 -0.2222  0.3359  1.5712
11127SOL     OW45105   3.136   3.106   6.596 -0.2797  0.4939  0.6024
11127SOL    HW145106   3.195   3.037   6.565 -0.1205  0.2449  1.4269
11127SOL    HW245107   3.155   3.181   6.538 -0.3159 -0.0837 -0.1710
11128SOL     OW45108   6.676   9.381  11.549  0.3631  0.0598 -0.1035
11128SOL    HW145109   6.583   9.400  11.564  0.2744  1.1157 -1.7319
11128SOL    HW245110   6.703   9.444  11.483  1.8516 -1.2330 -0.7970
11129SOL     OW45111   1.220   9.487  11.646  0.5542  0.5576 -0.0683
11129SOL    HW145112   1.146   9.427  11.640 -0.7354  1.8586  1.7744
11129SOL    HW245113   1.285   9.440  11.698  0.5884 -0.1731 -0.7569
11130SOL     OW45114   3.678  12.600   9.106 -1.2726  0.1753  0.1930
11130SOL    HW145115   3.668  12.609   9.201 -0.2593  1.4636  0.1954
11130SOL    HW245116   3.684  12.690   9.074 -0.6294 -0.2751 -0.9901
11131SOL     OW45117   2.192   3.640   9.618  0.2932 -0.5387 -0.1106
11131SOL    HW145118   2.140   3.719   9.635  0.1432 -0.6848  0.1262
11131SOL    HW245119   2.157   3.606   9.537  1.7805  0.7925 -1.3871
11132SOL     OW45120   1.116  10.671   4.658 -0.0582  0.1823 -0.3622
11132SOL    HW145121   1.206  10.704   4.667 -0.1612 -0.1068  3.3025
11132SOL    HW245122   1.063  10.750   4.650  0.4392  0.3786 -1.9969
11133SOL     OW45123   5.330  10.284   7.793  0.1667  0.1751  0.3931
11133SOL    HW145124   5.249  10.234   7.787  1.0758 -1.3654  0.3716
11133SOL    HW245125   5.391  10.238   7.735  0.6266  2.2348 -0.8851
11134SOL     OW45126   1.579   3.919   9.040  0.2380  0.3231 -0.5560
11134SOL    HW145127   1.510   3.940   8.977  0.3222  0.8616 -0.4730
11134SOL    HW245128   1.589   3.999   9.092  0.1260 -0.1289  0.1859
11135SOL     OW45129  12.596   3.337   2.130 -0.3102 -0.0126 -0.0178
11135SOL    HW145130  12.657   3.330   2.057  1.0582 -3.2283  1.2370
11135SOL    HW245131  12.521   3.283   2.103 -0.0455 -0.7473  0.6708
11136SOL     OW45132   4.548   5.723  13.582  0.9570 -0.8136 -0.3355
11136SOL    HW145133   4.629   5.772  13.594 -0.6125  1.7238  0.6860
11136SOL    HW245134   4.509   5.720  13.669 -0.1530 -1.8342 -0.8358
11137SOL     OW45135   5.305  11.270   8.356 -0.3081  0.4681 -0.0599
11137SOL    HW145136   5.394  11.245   8.381 -1.0470 -2.3307  0.0875
11137SOL    HW245137   5.254  11.189   8.363 -2.8535  1.9281 -0.3174
11138SOL     OW45138   1.293   5.046  13.093 -0.3749 -0.2192 -0.1491
11138SOL    HW145139   1.322   5.134  13.068 -1.6292  0.6019  1.0949
11138SOL    HW245140   1.209   5.035  13.047  0.4414 -1.3842 -1.4329
11139SOL     OW45141   1.069   1.857   1.090 -0.0668 -0.4618  0.1988
11139SOL    HW145142   1.116   1.875   1.171  0.0603 -1.5134  0.3780
11139SOL    HW245143   1.088   1.765   1.071  0.7311  0.0387 -1.5858
11140SOL     OW45144   8.918   1.862   6.046 -0.7583  0.3230 -0.1724
11140SOL    HW145145   9.000   1.815   6.058 -0.3754  0.9939 -0.0658
11140SOL    HW245146   8.943   1.955   6.048 -1.4869  0.5348 -0.3608
11141SOL     OW45147   9.363  12.786  10.714  0.2948  0.0587  0.3364
11141SOL    HW145148   9.339  12.862  10.767 -0.2496 -0.4590  0.8501
11141SOL    HW245149   9.458  12.778  10.726  1.0257  2.7036 -2.4984
11142SOL     OW45150  10.510  13.417   5.092  0.1413 -0.3997  0.0941
11142SOL    HW145151  10.460  13.462   5.161  0.7034 -0.7542  0.7384
11142SOL    HW245152  10.534  13.333   5.131  1.0371 -0.3323 -0.2987
11143SOL     OW45153  10.676  10.590   8.809 -0.6215  1.4057  0.0296
11143SOL    HW145154  10.736  10.554   8.744 -1.3062  2.0056 -0.9587
11143SOL    HW245155  10.717  10.672   8.836 -0.4819  1.2992  0.1464
11144SOL     OW45156   1.298   5.190   5.581 -0.0156  0.0483 -0.7240
11144SOL    HW145157   1.330   5.225   5.498 -0.4396 -0.2007 -0.9966
11144SOL    HW245158   1.229   5.251   5.608 -1.3754 -1.0214 -1.6454
11145SOL     OW45159   4.140   7.952   9.109 -0.0260  0.3415  0.0524
11145SOL    HW145160   4.067   7.895   9.087 -0.0553  0.2848  0.2997
11145SOL    HW245161   4.102   8.040   9.114 -0.2507  0.2012  1.0384
11146SOL     OW45162   6.800   1.877   2.374  0.1893 -0.3843 -0.3506
11146SOL    HW145163   6.877   1.921   2.339  0.3518 -0.2356  0.1751
11146SOL    HW245164   6.828   1.845   2.460 -0.4854  0.1607  0.0925
11147SOL     OW45165  10.084   1.610   7.162 -0.0528  0.3578 -0.3041
11147SOL    HW145166  10.046   1.658   7.089  0.4542  0.7854 -0.2988
11147SOL    HW245167  10.144   1.547   7.121 -0.5280 -0.0994 -0.2997
11148SOL     OW45168   4.406   8.087   5.523 -0.0403 -0.0494  0.5993
11148SOL    HW145169   4.379   8.178   5.516  1.9078  0.4786 -1.2042
11148SOL    HW245170   4.328   8.037   5.500 -0.9122  1.1714  0.8077
11149SOL     OW45171   2.371  11.584   7.613  0.0812  0.5316 -0.0108
11149SOL    HW145172   2.393  11.491   7.614 -0.1264  0.4897  0.6676
11149SOL    HW245173   2.346  11.601   7.522 -0.8482 -0.3103  0.0674
11150SOL     OW45174   8.915  11.556   5.140  0.1588 -0.0190 -0.6611
11150SOL    HW145175   8.927  11.510   5.057  0.9569  2.3867 -1.9661
11150SOL    HW245176   9.002  11.586   5.164 -0.0981 -0.4740  0.9766
11151SOL     OW45177   8.805  10.261  12.785 -0.1267  0.1644  0.2054
11151SOL    HW145178   8.716  10.253  12.820  0.0193 -1.2539  0.3213
11151SOL    HW245179   8.841  10.339  12.826 -1.6991  1.4256 -0.7019
11152SOL     OW45180  11.541   8.074   7.661  0.3341 -0.6347  0.0690
11152SOL    HW145181  11.518   8.031   7.579  1.0374 -3.0252  1.0439
11152SOL    HW245182  11.631   8.047   7.678  1.5905  2.9270 -0.2019
11153SOL     OW45183   4.100   2.479   3.872 -0.1019  0.3887 -0.1838
11153SOL    HW145184   4.182   2.449   3.912 -0.0571 -0.5276 -0.9356
11153SOL    HW245185   4.107   2.575   3.874  0.8274  0.3335  0.0843
11154SOL     OW45186   2.668   8.264   5.292 -0.3441 -0.0366  0.2638
11154SOL    HW145187   2.725   8.207   5.242 -1.5999 -1.4067  0.3171
11154SOL    HW245188   2.636   8.210   5.364 -0.3188  1.2296  1.2742
11155SOL     OW45189   5.702   9.800   3.545  0.0673  0.1333  0.1590
11155SOL    HW145190   5.663   9.825   3.628  0.1945  1.0571 -0.0456
11155SOL    HW245191   5.790   9.837   3.547 -0.2428  0.9884 -0.7497
11156SOL     OW45192  13.601   4.442   0.898 -0.2134  0.3035  0.1118
11156SOL    HW145193  13.507   4.430   0.887 -0.0729  1.5110 -3.4105
11156SOL    HW245194  13.640   4.368   0.852  0.5106  1.6058 -1.4481
11157SOL     OW45195   5.839   2.394   8.863 -0.0714  0.1514 -0.0112
11157SOL    HW145196   5.877   2.313   8.830 -2.1290 -0.7283 -0.4041
11157SOL    HW245197   5.853   2.391   8.957 -2.0051 -1.8181  0.2973
11158SOL     OW45198   5.674   4.208  12.198  0.3895  0.5759 -0.0876
11158SOL    HW145199   5.739   4.270  12.164 -1.3189  1.3134 -2.2692
11158SOL    HW245200   5.712   4.122  12.182  1.0768  0.9970 -0.7850
11159SOL     OW45201   8.719   0.853   4.057  0.4229 -0.1661 -0.1865
11159SOL    HW145202   8.797   0.839   4.004 -0.5671 -0.5099 -1.5914
11159SOL    HW245203   8.650   0.804   4.013 -0.5165 -0.2003  1.2461
11160SOL     OW45204   1.491  10.557  10.061 -0.4757  0.1296 -0.2587
11160SOL    HW145205   1.552  10.540   9.989  0.3393  1.1336  0.1779
11160SOL    HW245206   1.465  10.648  10.050 -2.8273 -0.5725 -1.1035
11161SOL     OW45207  10.532   3.125   4.515 -0.2500  0.0131 -0.1692
11161SOL    HW145208  10.567   3.178   4.588  0.5889  1.1110 -1.3267
11161SOL    HW245209  10.440   3.113   4.537 -0.1988  0.9878  0.7072
11162SOL     OW45210  11.448   3.802  10.674 -0.0262  0.0846  0.1180
11162SOL    HW145211  11.413   3.733  10.730  2.7042 -0.7400  0.9743
11162SOL    HW245212  11.454   3.878  10.732  1.4013 -0.3525  0.5898
11163SOL     OW45213   9.136  13.133   3.711 -0.0057 -1.0955  0.0670
11163SOL    HW145214   9.195  13.202   3.680 -0.0376 -0.8198  0.6158
11163SOL    HW245215   9.178  13.098   3.789 -1.4564  0.3830  1.5811
11164SOL     OW45216  11.090   3.412  12.680  0.1115 -0.7204 -0.1883
11164SOL    HW145217  11.049   3.377  12.600  0.4261 -1.8215  0.1172
11164SOL    HW245218  11.183   3.396  12.668  0.4496  1.3156 -0.6461
11165SOL     OW45219  12.457   3.013   5.163  0.1390  0.2170  0.3394
11165SOL    HW145220  12.511   2.940   5.193 -0.6923 -0.1809  0.9088
11165SOL    HW245221  12.479   3.086   5.221  1.5380  0.6717 -0.7173
11166SOL     OW45222   6.155   8.934   4.047  0.7671  0.1358 -0.0335
11166SOL    HW145223   6.122   8.948   4.136  0.1434  2.2907 -0.5355
11166SOL    HW245224   6.245   8.903   4.059  0.5925  0.0741  1.3328
11167SOL     OW45225   3.748   4.356   7.254  0.0735  0.0203 -0.0726
11167SOL    HW145226   3.679   4.292   7.236  0.0767 -0.1319  0.4271
11167SOL    HW245227   3.710   4.440   7.232  0.0333 -0.1421 -0.6443
11168SOL     OW45228   9.880  11.157  12.244 -0.1157 -0.3907  0.0516
11168SOL    HW145229   9.788  11.175  12.265 -0.0596 -0.0591  0.0213
11168SOL    HW245230   9.876  11.101  12.166 -0.2726  0.9256 -0.9276
11169SOL     OW45231   9.644  13.015   2.126 -0.5528 -0.0157 -0.6119
11169SOL    HW145232   9.721  13.055   2.167 -0.5494  0.3381 -0.9518
11169SOL    HW245233   9.608  12.958   2.193  0.6934 -1.1180 -0.8430
11170SOL     OW45234  13.633   7.392  13.245 -0.0841  0.1546  0.3896
11170SOL    HW145235  13.688   7.322  13.282 -0.1267  0.5751  1.2733
11170SOL    HW245236  13.545   7.370  13.274 -0.3574 -0.3786 -0.8140
11171SOL     OW45237  10.128   0.020   9.519 -0.0472 -0.1669  0.2954
11171SOL    HW145238  10.126  -0.033   9.598  0.1561  0.0280  0.4302
11171SOL    HW245239  10.207   0.073   9.526  1.1788 -1.7120 -1.0535
11172SOL     OW45240   5.070   7.438   9.715  0.2831  0.0350  0.3597
11172SOL    HW145241   5.142   7.386   9.751 -1.2356 -1.9327  0.7020
11172SOL    HW245242   5.015   7.458   9.791 -2.7116 -3.7442 -0.5137
11173SOL     OW45243   4.902   5.338  13.290 -0.0803  0.0988  0.1747
11173SOL    HW145244   4.935   5.285  13.219 -0.8169 -0.4601  0.2364
11173SOL    HW245245   4.809   5.351  13.269  0.0747  1.3279  0.1776
11174SOL     OW45246   8.134  10.004   7.519  0.8036  0.6429 -1.2362
11174SOL    HW145247   8.228  10.025   7.527  0.9059 -0.5050  3.0306
11174SOL    HW245248   8.091  10.065   7.579 -0.5740 -1.6120  0.2167
11175SOL     OW45249   8.931   3.967   2.987 -0.0946 -0.4876  0.1715
11175SOL    HW145250   8.856   3.995   3.040  0.3649  0.2440  0.4636
11175SOL    HW245251   8.973   3.898   3.039  0.3129  0.1771  0.7505
11176SOL     OW45252   1.748   5.674   1.835 -0.5849 -0.0950  0.3433
11176SOL    HW145253   1.830   5.723   1.826 -1.6526  1.5163 -1.6553
11176SOL    HW245254   1.770   5.585   1.809  0.9182 -0.1844  1.7789
11177SOL     OW45255  10.746   8.047  13.139 -0.7408  0.1441  0.4993
11177SOL    HW145256  10.799   7.971  13.117 -0.1615  0.6676  0.0820
11177SOL    HW245257  10.796   8.093  13.206 -2.3010 -1.2364  2.7802
11178SOL     OW45258   5.658   5.659  11.318 -0.3517 -0.2780  0.1338
11178SOL    HW145259   5.604   5.646  11.396  1.4108  1.2552  1.7176
11178SOL    HW245260   5.746   5.633  11.345  0.6751  2.0213 -0.6852
11179SOL     OW45261   6.216   9.344   3.896  0.0061 -0.3882 -0.0302
11179SOL    HW145262   6.125   9.366   3.873 -0.0292 -1.0136 -0.4972
11179SOL    HW245263   6.269   9.402   3.841 -0.0991 -0.5870 -0.3411
11180SOL     OW45264   0.933  10.037  10.730 -0.3122  0.0962 -0.1907
11180SOL    HW145265   0.892  10.023  10.645  0.6412  1.7627 -0.9697
11180SOL    HW245266   0.922  10.130  10.747  2.6580  0.5296 -0.2219
11181SOL     OW45267  13.035  12.187  12.436 -0.1175  0.1136  0.2690
11181SOL    HW145268  13.045  12.219  12.346  0.2571 -1.6087 -0.3428
11181SOL    HW245269  13.039  12.092  12.428 -3.7277 -0.3039  1.6523
11182SOL     OW45270   1.541   4.501   7.685 -0.0160  0.1175  0.0600
11182SOL    HW145271   1.502   4.518   7.599 -1.0271  1.5574  0.7580
11182SOL    HW245272   1.622   4.552   7.686  1.7876 -2.5242 -1.2237
11183SOL     OW45273  11.392   6.202   4.982 -0.5130 -0.2580  0.3493
11183SOL    HW145274  11.367   6.266   4.915 -0.7845 -0.6395  0.0798
11183SOL    HW245275  11.488   6.206   4.984 -0.5219  0.0863  0.2710
11184SOL     OW45276   0.585   0.979  11.283 -0.0853  0.1265 -0.3807
11184SOL    HW145277   0.646   0.910  11.258 -0.5667 -0.6180  0.4259
11184SOL    HW245278   0.499   0.948  11.253 -0.3681  0.1585  0.3681
11185SOL     OW45279   1.785   5.077   4.599 -0.1731  0.5791  0.3811
11185SOL    HW145280   1.779   4.984   4.618 -1.2663  0.5875  0.1620
11185SOL    HW245281   1.809   5.082   4.507 -0.1191  0.5070  0.3921
11186SOL     OW45282   8.441   1.976   3.071 -0.1644  0.1831 -0.0764
11186SOL    HW145283   8.489   2.056   3.094  0.4985 -0.2846  0.2047
11186SOL    HW245284   8.355   1.987   3.111  0.0065  0.6453  0.1701
11187SOL     OW45285   9.435   0.910   1.723  0.1904 -0.4420 -0.8252
11187SOL    HW145286   9.383   0.843   1.679 -1.3639 -0.1674  0.4925
11187SOL    HW245287   9.489   0.862   1.785 -1.1722 -0.5028  0.3646
11188SOL     OW45288  10.885   2.654   3.796 -0.1845  0.0009  0.3934
11188SOL    HW145289  10.795   2.651   3.830 -0.0761 -0.5183  0.6263
11188SOL    HW245290  10.934   2.704   3.861 -0.5296  1.2607 -0.2654
11189SOL     OW45291   0.800  11.587   4.432  0.3005 -0.0065  0.2478
11189SOL    HW145292   0.820  11.678   4.414  0.4199 -0.0700  0.0615
11189SOL    HW245293   0.774  11.586   4.525  0.7192  0.1480  0.3690
11190SOL     OW45294   1.003  13.147   2.786  0.0056 -0.2249  0.0531
11190SOL    HW145295   0.951  13.160   2.707 -0.3953  1.5070  0.5790
11190SOL    HW245296   0.942  13.110   2.849 -0.9277  2.6137  0.9512
11191SOL     OW45297   3.357  11.357   4.342 -0.2782 -0.3412  0.1168
11191SOL    HW145298   3.318  11.441   4.366 -0.6551  0.7601 -3.6341
11191SOL    HW245299   3.447  11.379   4.317 -0.5799 -0.8473 -1.5413
11192SOL     OW45300  12.285   2.073   2.135 -0.4982  0.3283 -0.4701
11192SOL    HW145301  12.371   2.032   2.141 -0.9077 -0.6592 -1.0266
11192SOL    HW245302  12.290   2.126   2.055 -0.7377 -0.6023 -1.1252
11193SOL     OW45303   8.770   6.845   7.195 -0.4349 -0.2607  0.6988
11193SOL    HW145304   8.706   6.789   7.238 -0.5723 -0.1610  0.6249
11193SOL    HW245305   8.741   6.849   7.104  0.1449 -0.8881  0.4810
11194SOL     OW45306  12.071   6.705   4.524  0.4825 -0.2094 -0.5789
11194SOL    HW145307  12.110   6.700   4.611  1.6965 -1.1278 -1.1367
11194SOL    HW245308  11.984   6.743   4.538  0.7382 -0.1413  0.9895
11195SOL     OW45309   4.932   9.228   9.263  0.0532 -0.9369 -0.3602
11195SOL    HW145310   4.999   9.221   9.332 -0.1361  2.2970  0.2803
11195SOL    HW245311   4.850   9.207   9.307  0.0980 -0.2768  0.0367
11196SOL     OW45312   3.107   3.451   2.423  0.4271  0.4773 -0.0531
11196SOL    HW145313   3.121   3.434   2.330 -2.0961 -1.5506 -0.1725
11196SOL    HW245314   3.127   3.544   2.434  3.9102  0.1190 -1.8841
11197SOL     OW45315   4.740   9.314   1.315 -0.6424  0.2431 -0.1374
11197SOL    HW145316   4.754   9.391   1.371 -0.9115  1.1362 -1.2698
11197SOL    HW245317   4.722   9.350   1.228 -0.5716 -1.1112 -0.7393
11198SOL     OW45318   6.016   2.258   7.165  1.0050 -0.8122  0.6104
11198SOL    HW145319   5.955   2.326   7.194  1.2351 -0.3324  0.0010
11198SOL    HW245320   6.049   2.290   7.081  2.6426 -0.7291  1.2668
11199SOL     OW45321   5.003  10.843   0.379  0.7338  0.1328  0.4038
11199SOL    HW145322   4.979  10.923   0.425  0.7203 -0.1614  0.9146
11199SOL    HW245323   5.085  10.816   0.419  0.8329 -0.0059  0.1068
11200SOL     OW45324  12.953   0.344   5.110 -0.5136  0.7525 -0.3356
11200SOL    HW145325  12.936   0.438   5.113 -1.7598  0.6546 -2.5461
11200SOL    HW245326  12.940   0.320   5.018  0.2145 -1.5116  0.0958
11201SOL     OW45327   6.051  13.733  13.652  0.0531 -0.5807  0.2054
11201SOL    HW145328   6.055  13.745  13.557  0.1966  0.3847  0.3151
11201SOL    HW245329   5.958  13.741  13.674  0.1566  0.6192  0.2894
11202SOL     OW45330   9.197   3.131   8.377  0.2409  0.2353 -0.4299
11202SOL    HW145331   9.199   3.220   8.342 -0.9079  0.4440 -0.0085
11202SOL    HW245332   9.269   3.086   8.332  0.1673  1.0833 -1.4348
11203SOL     OW45333   8.382   3.254  13.608  0.0009 -0.0627 -0.1749
11203SOL    HW145334   8.345   3.280  13.692  0.3067 -2.1228  0.6450
11203SOL    HW245335   8.450   3.319  13.591 -0.0766  0.3936  1.1666
11204SOL     OW45336   9.580  10.816   9.517  0.1103 -0.0178 -0.3438
11204SOL    HW145337   9.625  10.858   9.590  1.6792 -1.0759 -0.6442
11204SOL    HW245338   9.649  10.768   9.471 -1.0549 -0.3606 -1.8155
11205SOL     OW45339   7.804   2.958  12.824  0.6397 -1.0188 -0.8081
11205SOL    HW145340   7.840   2.911  12.900  1.7012  1.5774  0.4416
11205SOL    HW245341   7.709   2.958  12.838  0.8877  0.9700  1.6653
11206SOL     OW45342  11.477   6.349  11.004 -0.2867 -0.5345 -0.0628
11206SOL    HW145343  11.464   6.437  11.038  1.2202  0.5749 -2.1072
11206SOL    HW245344  11.504   6.297  11.080  0.1438  1.1163  0.9487
11207SOL     OW45345   8.664  13.708  10.905  0.1639  0.1634  0.3134
11207SOL    HW145346   8.647  13.803  10.904 -0.0518  0.1799  1.9874
11207SOL    HW245347   8.610  13.675  10.976  0.2567 -1.2341 -0.2355
11208SOL     OW45348   4.620   0.714  11.138  0.3921 -0.2109 -0.2329
11208SOL    HW145349   4.569   0.782  11.181 -0.7992 -0.8270 -0.6409
11208SOL    HW245350   4.711   0.738  11.155 -0.0105  1.2600 -0.0392
11209SOL     OW45351   7.859   6.619  11.820 -0.1724  0.1567  0.4405
11209SOL    HW145352   7.916   6.680  11.867  0.1617  1.0177 -1.0151
11209SOL    HW245353   7.771   6.642  11.849  0.0025  0.8394  0.4424
11210SOL     OW45354  11.497   8.529   9.705  0.0662 -0.8890 -0.3685
11210SOL    HW145355  11.547   8.607   9.728  1.1527 -2.0678  1.5087
11210SOL    HW245356  11.420   8.533   9.762  0.8926 -1.9126  0.8763
11211SOL     OW45357   8.290   8.217   5.670  0.0993  0.5973  0.3752
11211SOL    HW145358   8.331   8.303   5.682  0.1566  0.4400  1.4561
11211SOL    HW245359   8.256   8.219   5.581 -0.1587  1.8542  0.4746
11212SOL     OW45360   6.073  12.992   3.732  0.4772  0.0727  0.0281
11212SOL    HW145361   6.087  13.018   3.823  1.6427 -1.6223  0.3796
11212SOL    HW245362   5.980  13.008   3.717 -0.1128 -1.1379  2.0423
11213SOL     OW45363   3.739   2.207   3.633 -0.1629 -0.2680  0.4163
11213SOL    HW145364   3.834   2.199   3.628 -0.0880 -0.0368  1.2351
11213SOL    HW245365   3.722   2.299   3.618 -0.4892 -0.6939 -2.3176
11214SOL     OW45366   8.982   7.776   0.044 -0.8013  0.0090 -0.4067
11214SOL    HW145367   8.969   7.700   0.100 -1.2015  0.1206 -0.3484
11214SOL    HW245368   8.915   7.769  -0.024 -0.2700 -0.1642 -0.9224
11215SOL     OW45369   2.010   4.282   6.012 -0.0822  0.3514 -0.2472
11215SOL    HW145370   2.059   4.200   6.000  2.3401  1.7249 -0.4830
11215SOL    HW245371   2.077   4.345   6.038 -1.7668  2.4227 -0.7055
11216SOL     OW45372   9.785  10.743   1.918 -0.0588 -0.4456  0.3646
11216SOL    HW145373   9.787  10.839   1.911  3.1945 -0.2846  1.6041
11216SOL    HW245374   9.704  10.718   1.874 -1.8142  2.9419  1.2464
11217SOL     OW45375   5.262   8.616   3.041 -0.9121 -0.0720 -0.1776
11217SOL    HW145376   5.356   8.618   3.057 -0.3260  0.4347 -3.1185
11217SOL    HW245377   5.227   8.683   3.100  0.6571  0.2482  0.4445
11218SOL     OW45378   8.273  12.610   2.222 -0.2262 -0.2228  0.3111
11218SOL    HW145379   8.285  12.697   2.184  0.7663 -0.5691 -0.1995
11218SOL    HW245380   8.187  12.582   2.190  0.3954 -0.3283 -1.3922
11219SOL     OW45381   8.542   7.660   6.053 -0.7950 -0.4707  0.1556
11219SOL    HW145382   8.507   7.623   6.133 -1.2265 -0.7335 -0.1508
11219SOL    HW245383   8.630   7.622   6.045 -0.1093  0.7836  1.3295
11220SOL     OW45384  13.420   0.902  13.235  0.1321 -0.3021  0.7465
11220SOL    HW145385  13.455   0.842  13.169 -0.7916  0.1459 -0.1701
11220SOL    HW245386  13.408   0.848  13.313  2.4269 -0.5791  0.9970
11221SOL     OW45387   1.804   9.934   7.316  0.5602  0.3183  0.2173
11221SOL    HW145388   1.886   9.976   7.291  1.2900 -0.4189  1.2648
11221SOL    HW245389   1.791   9.959   7.408  1.3815 -2.2016  1.1026
11222SOL     OW45390   0.392   0.635   4.154 -0.4420 -0.5376  0.0570
11222SOL    HW145391   0.458   0.702   4.136 -0.7608  0.0096  0.8699
11222SOL    HW245392   0.438   0.552   4.142  1.0649 -0.2018  2.7482
11223SOL     OW45393   2.167   7.370   1.750 -0.4479 -0.3807  0.1282
11223SOL    HW145394   2.179   7.276   1.762  0.4360 -0.3162 -0.1866
11223SOL    HW245395   2.221   7.392   1.674 -0.3235  0.4544  0.4484
11224SOL     OW45396   2.034   4.935   7.754 -0.3291 -0.6208 -0.1201
11224SOL    HW145397   1.973   4.934   7.829 -0.1663  0.1202  0.0255
11224SOL    HW245398   2.018   5.019   7.711 -0.4063 -1.0345 -0.9183
11225SOL     OW45399  10.365  13.441  12.299 -0.4119  0.0333  0.0727
11225SOL    HW145400  10.417  13.492  12.237 -1.2310 -1.5075 -1.9945
11225SOL    HW245401  10.418  13.362  12.315 -0.7078 -0.0863  0.4672
11226SOL     OW45402  10.223  13.343   4.095  0.1220 -0.0810 -0.4535
11226SOL    HW145403  10.269  13.366   4.013  0.7183 -1.9525 -0.6926
11226SOL    HW245404  10.290  13.352   4.163  0.5454 -1.6718 -0.6394
11227SOL     OW45405   1.593   2.937   3.374  0.3004 -0.3312 -0.7485
11227SOL    HW145406   1.506   2.977   3.371  0.9564  1.0856 -2.1831
11227SOL    HW245407   1.620   2.945   3.466  0.0463  1.7779 -0.8113
11228SOL     OW45408   9.660  12.829   3.933  0.4262  0.2135 -0.6552
11228SOL    HW145409   9.636  12.745   3.973 -0.2082  0.9624  0.6152
11228SOL    HW245410   9.754  12.823   3.919  0.8068  0.1375  1.5977
11229SOL     OW45411   5.187   7.294   5.872 -0.7780  0.1459  0.3923
11229SOL    HW145412   5.208   7.220   5.929 -0.0955 -1.2055 -1.5213
11229SOL    HW245413   5.271   7.335   5.854 -0.4422 -1.4820 -2.2483
11230SOL     OW45414   0.020   1.109   8.367  0.3927 -0.5903  0.8670
11230SOL    HW145415  -0.044   1.066   8.425 -0.8140  1.2154  0.9578
11230SOL    HW245416   0.058   1.179   8.420 -1.9542  2.2203 -0.8296
11231SOL     OW45417   0.029   0.850   7.579  0.2816 -0.1100  0.7474
11231SOL    HW145418   0.114   0.807   7.572  0.2875  0.0979 -1.2417
11231SOL    HW245419  -0.028   0.801   7.519 -0.0943  1.7089 -0.4851
11232SOL     OW45420   2.633   5.810  10.941 -0.0602 -0.3244  0.0484
11232SOL    HW145421   2.640   5.902  10.915  0.5127 -0.0215  1.1968
11232SOL    HW245422   2.717   5.772  10.916 -0.3566 -0.5805 -0.5699
11233SOL     OW45423   5.340   6.573   9.045  0.2615 -0.4334 -0.1298
11233SOL    HW145424   5.407   6.562   9.112  0.9904  0.1049 -0.7440
11233SOL    HW245425   5.380   6.538   8.965 -0.3158 -0.4070 -0.4407
11234SOL     OW45426  11.840  11.995  10.849 -0.2300 -0.5055 -0.5001
11234SOL    HW145427  11.745  12.006  10.852 -0.1553  0.1116 -0.1506
11234SOL    HW245428  11.863  11.953  10.932 -0.0980  0.2722 -0.1276
11235SOL     OW45429  13.597  13.583   1.779  0.1137  0.0350 -0.2149
11235SOL    HW145430  13.536  13.643   1.737 -1.4055 -1.3055 -0.0217
11235SOL    HW245431  13.542  13.525   1.831  1.6436 -0.6725  0.6875
11236SOL     OW45432  11.215   2.279  11.427 -0.3280  0.5537 -0.3035
11236SOL    HW145433  11.217   2.184  11.443 -1.8098  0.7853  1.7397
11236SOL    HW245434  11.139   2.292  11.370 -0.3402  0.5186 -0.2947
11237SOL     OW45435   1.591   0.113   7.789  0.7781  0.1647 -0.7013
11237SOL    HW145436   1.541   0.140   7.712  1.1528  0.2055 -0.9355
11237SOL    HW245437   1.525   0.081   7.851  0.3370  1.4236 -0.4841
11238SOL     OW45438  12.731   9.222   1.112  0.4471  0.0731  0.1489
11238SOL    HW145439  12.672   9.199   1.184  0.4803  1.0598  0.5112
11238SOL    HW245440  12.800   9.274   1.154  0.7529  0.1978 -0.5074
11239SOL     OW45441   3.767  11.458   5.356 -0.3643  0.1609  0.0886
11239SOL    HW145442   3.686  11.507   5.367 -0.8480 -1.1728  3.4138
11239SOL    HW245443   3.810  11.461   5.442  1.3954 -2.0982 -0.5967
11240SOL     OW45444  10.114  12.144   9.251 -0.0905  0.1687 -0.0558
11240SOL    HW145445  10.074  12.116   9.333 -0.2238  2.4652  0.7481
11240SOL    HW245446  10.150  12.064   9.213 -1.1729 -1.1644  1.5855
11241SOL     OW45447   8.937   6.140  13.238  0.0703  0.0450  0.3137
11241SOL    HW145448   8.899   6.053  13.248  0.0208 -0.4503 -3.1030
11241SOL    HW245449   8.867   6.200  13.262 -1.4115 -0.8863 -1.4173
11242SOL     OW45450  12.811  12.471   8.890 -0.2435  0.0196 -0.2224
11242SOL    HW145451  12.779  12.559   8.870  0.2112  0.0603 -0.8128
11242SOL    HW245452  12.902  12.472   8.859  0.5221  0.0841  1.8547
11243SOL     OW45453   7.575   1.553   2.035  0.1895 -0.3155  0.3386
11243SOL    HW145454   7.558   1.631   2.087  3.1710  0.8264 -0.1742
11243SOL    HW245455   7.588   1.483   2.100  1.8597  0.6476  1.1241
11244SOL     OW45456   3.359   4.713   3.649 -0.1080  0.3692 -0.4145
11244SOL    HW145457   3.353   4.626   3.609 -0.4413  0.5418 -0.7486
11244SOL    HW245458   3.273   4.753   3.633  0.6453  1.4935 -2.0014
11245SOL     OW45459   6.733  11.422   1.154  0.5202 -0.1725  0.1730
11245SOL    HW145460   6.763  11.495   1.100  0.3300  0.5121  0.9832
11245SOL    HW245461   6.781  11.431   1.236  1.8470 -1.9956 -0.3179
11246SOL     OW45462   5.258   6.125  11.661 -0.2744 -0.0239 -0.6654
11246SOL    HW145463   5.279   6.112  11.569  1.5388  0.9234 -0.4326
11246SOL    HW245464   5.320   6.068  11.708 -0.7786 -0.0458 -0.0119
11247SOL     OW45465   0.813   5.018   9.402 -0.3574 -0.1812 -0.6073
11247SOL    HW145466   0.897   5.002   9.359 -0.3052 -0.8140 -0.2946
11247SOL    HW245467   0.815   5.110   9.426  1.7207 -0.8674  2.4014
11248SOL     OW45468   8.698   1.470   2.187  0.0132 -0.5108  0.0195
11248SOL    HW145469   8.776   1.426   2.220  0.2636 -0.1148 -0.0383
11248SOL    HW245470   8.674   1.421   2.108 -0.1805 -1.0318  0.3937
11249SOL     OW45471   1.002   8.117  10.577 -0.4456 -0.2535  0.0674
11249SOL    HW145472   0.988   8.022  10.572  0.4765 -0.3971 -0.0313
11249SOL    HW245473   0.939   8.147  10.643 -0.5274 -0.9822  0.3324
11250SOL     OW45474   1.845   5.443   3.556 -0.0626  0.2866 -0.0831
11250SOL    HW145475   1.821   5.515   3.616  1.3422 -0.1863  1.0911
11250SOL    HW245476   1.865   5.370   3.614 -2.4849 -1.4609 -1.2687
11251SOL     OW45477  12.870  11.751   0.447 -0.0291 -0.0614 -0.1236
11251SOL    HW145478  12.865  11.824   0.385  1.1234 -1.2123 -1.6703
11251SOL    HW245479  12.958  11.757   0.484  0.8276 -1.7174 -1.7286
11252SOL     OW45480   1.632  10.244   7.105  0.5566  0.0548  0.7743
11252SOL    HW145481   1.591  10.327   7.081  1.4458  0.5735  0.9954
11252SOL    HW245482   1.571  10.203   7.166  0.8509  1.3329  1.9872
11253SOL     OW45483   7.565   6.159  13.068 -0.0020 -0.3477  0.0694
11253SOL    HW145484   7.619   6.131  13.141  1.0793 -2.0125 -1.2720
11253SOL    HW245485   7.562   6.082  13.010 -1.4813  0.6316 -1.2514
11254SOL     OW45486   4.856  10.070   5.748 -0.3785  0.2800 -0.5249
11254SOL    HW145487   4.841  10.136   5.681  0.5402  1.3770  0.3252
11254SOL    HW245488   4.776  10.071   5.801 -1.2515 -0.8341 -1.7560
11255SOL     OW45489   6.500  12.075   0.552  0.0984 -0.0005 -0.0968
11255SOL    HW145490   6.494  12.008   0.485 -0.4564  0.2776 -0.3349
11255SOL    HW245491   6.586  12.115   0.540 -0.8188  1.5358 -2.0890
11256SOL     OW45492   4.826  12.704  11.563  0.2010  0.6549 -0.6752
11256SOL    HW145493   4.845  12.611  11.557  0.8245  0.8274 -1.6923
11256SOL    HW245494   4.786  12.715  11.649 -0.1826 -0.5941 -0.6757
11257SOL     OW45495   5.395   3.190  12.815 -0.1220  0.1723 -0.3504
11257SOL    HW145496   5.315   3.147  12.847 -0.0853  0.1864 -0.2400
11257SOL    HW245497   5.373   3.284  12.816 -0.3603  0.1270 -1.0259
11258SOL     OW45498  12.654  11.478   8.793  0.5311 -0.4066 -0.4095
11258SOL    HW145499  12.582  11.435   8.746 -0.6198 -0.2696  1.1407
11258SOL    HW245500  12.697  11.407   8.840  0.9022 -0.3638 -0.6787
11259SOL     OW45501   6.581   9.617  11.866 -0.3232  0.4010 -0.1031
11259SOL    HW145502   6.511   9.553  11.876  1.2197 -1.0781  2.3873
11259SOL    HW245503   6.597   9.650  11.954  0.8149  2.1816 -0.9006
11260SOL     OW45504  12.459   3.843  12.090 -0.7516 -0.2370  0.6034
11260SOL    HW145505  12.554   3.836  12.095 -0.8648 -2.0470  1.1860
11260SOL    HW245506  12.437   3.804  12.005 -0.9750  0.1283  0.4950
11261SOL     OW45507   0.273   4.697  13.553 -1.0287 -0.2683  0.0384
11261SOL    HW145508   0.228   4.726  13.474 -0.4685  0.2927 -0.0872
11261SOL    HW245509   0.243   4.756  13.622  1.4586  1.9185 -0.5699
11262SOL     OW45510  10.653   0.085   2.840 -0.8721 -0.4298  0.1669
11262SOL    HW145511  10.664   0.030   2.762  0.6872  0.5180 -0.3170
11262SOL    HW245512  10.739   0.085   2.881 -1.6066 -0.7019  1.7827
11263SOL     OW45513   9.772   8.928   6.628 -0.3149 -0.7281  0.4238
11263SOL    HW145514   9.726   8.912   6.711 -0.9026 -0.0434  0.2458
11263SOL    HW245515   9.753   8.850   6.575  0.7435 -1.5522  1.2048
11264SOL     OW45516   1.708   9.135   9.455 -0.0290  0.6573  0.5313
11264SOL    HW145517   1.632   9.077   9.452  0.0153  0.6126  0.2382
11264SOL    HW245518   1.763   9.099   9.524 -0.1037  0.4796  0.4981
11265SOL     OW45519  11.984   9.013  11.234 -0.0824  0.1889 -0.4349
11265SOL    HW145520  12.017   9.030  11.146  2.1997  1.4489  0.5926
11265SOL    HW245521  12.047   8.952  11.272 -0.9987 -0.2748  0.3755
11266SOL     OW45522   1.737   3.761  10.053 -0.5821 -0.5093 -0.4815
11266SOL    HW145523   1.664   3.751  10.114 -1.4883 -1.2645 -1.6553
11266SOL    HW245524   1.801   3.696  10.081 -0.5188 -0.1146  0.3108
11267SOL     OW45525   2.753   6.840   9.882 -0.6304 -0.2650 -0.0938
11267SOL    HW145526   2.726   6.924   9.845 -2.0127 -1.2704 -1.5003
11267SOL    HW245527   2.675   6.808   9.928  0.1825 -0.3616  1.2639
11268SOL     OW45528   2.074  12.635   1.945  0.2887 -0.2973  0.8800
11268SOL    HW145529   2.020  12.556   1.937  1.1477 -0.7834 -0.5045
11268SOL    HW245530   2.011  12.704   1.966 -0.6112 -1.1879  1.2078
11269SOL     OW45531   7.280   5.432   8.546 -0.0828 -0.8191 -0.5497
11269SOL    HW145532   7.232   5.392   8.619 -0.4974  0.6338  0.0159
11269SOL    HW245533   7.369   5.399   8.554 -0.5064 -1.9603 -0.3829
11270SOL     OW45534  12.753  12.631  11.635  0.2968  0.3602  0.6241
11270SOL    HW145535  12.673  12.615  11.686  0.7855  1.7997  1.9331
11270SOL    HW245536  12.731  12.602  11.547 -1.6251  0.5812  0.9690
11271SOL     OW45537   0.758  13.372  12.857  0.5208  0.0655  0.0792
11271SOL    HW145538   0.705  13.351  12.934  2.0394  0.5461  1.3194
11271SOL    HW245539   0.762  13.467  12.857  1.5485  0.0309  0.1521
11272SOL     OW45540   9.568  10.519   3.427  0.6312 -0.1888 -0.1744
11272SOL    HW145541   9.649  10.470   3.437  1.1772  0.5028 -1.1263
11272SOL    HW245542   9.593  10.598   3.380 -0.5071  0.2870 -0.0166
11273SOL     OW45543   1.380  12.010   9.938 -0.4970  0.1236  0.1755
11273SOL    HW145544   1.318  12.076   9.970 -0.5360  0.0729  0.2044
11273SOL    HW245545   1.446  12.061   9.890 -0.8974  0.1118 -0.3897
11274SOL     OW45546  13.394  12.197   5.650 -0.4241 -0.9291 -0.3136
11274SOL    HW145547  13.301  12.221   5.656 -0.5153 -1.6299  2.3742
11274SOL    HW245548  13.433  12.266   5.597 -2.1511  0.4536  0.1116
11275SOL     OW45549  10.118   9.867   1.738  0.5202  0.0765  0.1350
11275SOL    HW145550  10.107   9.925   1.813 -1.8780  0.9822 -0.8082
11275SOL    HW245551  10.068   9.789   1.760  2.0398 -0.8065  0.5484
11276SOL     OW45552   4.911  11.352   7.732 -0.1809 -0.4791 -0.2622
11276SOL    HW145553   4.919  11.415   7.660  0.1797 -0.6253 -0.3527
11276SOL    HW245554   4.964  11.278   7.704 -0.3356 -0.6857 -0.0047
11277SOL     OW45555   9.424   8.873   7.390 -0.3888  0.2205  0.2145
11277SOL    HW145556   9.335   8.875   7.355 -0.6746 -0.6738  0.8437
11277SOL    HW245557   9.477   8.922   7.327 -1.4251  1.2681  0.1287
11278SOL     OW45558  11.305   6.559   3.285 -0.2768  0.2429  0.2971
11278SOL    HW145559  11.249   6.534   3.359 -0.5804 -0.1370 -0.0552
11278SOL    HW245560  11.282   6.497   3.216 -2.3851  2.5318 -1.2698
11279SOL     OW45561   7.675   7.598   8.810  0.5664  0.1423 -0.3838
11279SOL    HW145562   7.645   7.680   8.848  0.8241  0.4053 -0.7481
11279SOL    HW245563   7.617   7.583   8.735 -0.1784 -0.5624  0.3048
11280SOL     OW45564   7.300  10.596   3.698  0.1223  0.3150  0.5558
11280SOL    HW145565   7.254  10.676   3.724 -0.8142 -0.6325  1.9599
11280SOL    HW245566   7.357  10.575   3.772 -0.0402 -0.5976  0.4316
11281SOL     OW45567  10.351   3.372   3.195 -0.2760  0.6571  0.1376
11281SOL    HW145568  10.423   3.307   3.194  0.3897  1.3835 -0.0592
11281SOL    HW245569  10.278   3.327   3.152  0.9244  0.8738 -2.2749
11282SOL     OW45570   2.333   6.807   8.974 -0.2307  0.2428  0.1122
11282SOL    HW145571   2.404   6.870   8.990 -0.3574  0.4880 -0.2608
11282SOL    HW245572   2.278   6.851   8.909 -1.2777  0.4783  1.1366
11283SOL     OW45573   8.127   2.774   1.383  0.0260  0.4284 -0.2432
11283SOL    HW145574   8.220   2.784   1.403  0.1807  0.0866 -0.7706
11283SOL    HW245575   8.099   2.697   1.432  0.4665 -0.5656 -1.4858
11284SOL     OW45576   0.564   3.457  13.374 -0.0998 -0.4756  0.6522
11284SOL    HW145577   0.653   3.425  13.386  0.2738  0.5340  0.7180
11284SOL    HW245578   0.533   3.475  13.463 -0.1497 -0.2566  0.5904
11285SOL     OW45579   2.298   6.543   6.556  0.4842  0.5157  1.2372
11285SOL    HW145580   2.294   6.448   6.555 -0.7184  0.5470  1.6457
11285SOL    HW245581   2.356   6.564   6.629  2.3866  0.0946 -0.0799
11286SOL     OW45582  11.278  10.870   2.515 -0.1188  0.3102  0.6964
11286SOL    HW145583  11.304  10.858   2.424  1.9170  0.8717  1.1481
11286SOL    HW245584  11.198  10.922   2.511 -0.2500  0.0243 -0.7660
11287SOL     OW45585   4.579   2.082   8.792  0.0190  0.4275 -0.0220
11287SOL    HW145586   4.585   2.053   8.701 -2.0841  0.8776 -0.3383
11287SOL    HW245587   4.559   2.176   8.786  0.9467  0.7148  0.9454
11288SOL     OW45588   9.749  11.069   0.626  0.0633 -0.2326 -0.0482
11288SOL    HW145589   9.834  11.028   0.642  0.1618 -0.0518 -0.0990
11288SOL    HW245590   9.760  11.114   0.542 -0.0993 -0.2522 -0.0805
11289SOL     OW45591   9.464  10.190   7.672 -0.3607 -0.2649  0.0826
11289SOL    HW145592   9.539  10.248   7.658 -0.1902 -0.7213 -1.0077
11289SOL    HW245593   9.494  10.104   7.644 -1.0792 -0.5872  0.2789
11290SOL     OW45594   4.488   1.497   5.360 -0.1029 -0.1605  0.0015
11290SOL    HW145595   4.485   1.403   5.342 -1.7522 -0.8222  3.0708
11290SOL    HW245596   4.581   1.517   5.370  0.1979 -1.9161  1.0792
11291SOL     OW45597   8.982   9.975   6.612 -0.0487 -0.1284 -0.4897
11291SOL    HW145598   9.062  10.012   6.650 -0.3673 -0.4386  0.5380
11291SOL    HW245599   8.933  10.051   6.580  0.7155  0.0492 -1.2703
11292SOL     OW45600   7.899  10.542   3.396 -0.4536  0.3106 -0.2188
11292SOL    HW145601   7.922  10.603   3.326  1.0361  0.2061  0.1548
11292SOL    HW245602   7.875  10.598   3.470  1.2770  0.4830  0.2429
11293SOL     OW45603   1.298   9.732  13.213  0.4749  0.2099  0.2170
11293SOL    HW145604   1.341   9.759  13.132  1.7456  0.6070  0.9940
11293SOL    HW245605   1.210   9.707  13.186  0.8567  0.3722 -1.2756
11294SOL     OW45606   3.149   8.937   4.352  0.1503  0.0215 -0.1851
11294SOL    HW145607   3.117   9.027   4.347  0.5534  0.1537 -0.3485
11294SOL    HW245608   3.150   8.907   4.261 -0.3591 -0.2838 -0.0975
11295SOL     OW45609   6.521  10.705   9.356  0.1877  0.1125  0.3945
11295SOL    HW145610   6.466  10.782   9.372 -0.3907 -0.5190  1.5723
11295SOL    HW245611   6.608  10.732   9.383  0.2510  0.7768 -0.4546
11296SOL     OW45612   9.218   1.558   9.401 -0.6494 -0.0124 -0.3781
11296SOL    HW145613   9.307   1.526   9.393  0.1750  1.7581  1.0258
11296SOL    HW245614   9.164   1.479   9.406  0.8282 -1.1087 -1.0323
11297SOL     OW45615   7.297   7.020   7.791  0.2666 -0.1513  0.7054
11297SOL    HW145616   7.209   7.032   7.756  0.9454 -0.1850 -1.1263
11297SOL    HW245617   7.312   7.095   7.847 -0.5958  0.3287  0.3052
11298SOL     OW45618   9.600   8.528   5.742 -0.5440  0.8346  0.1225
11298SOL    HW145619   9.633   8.503   5.656 -2.6637  1.8137 -1.0622
11298SOL    HW245620   9.599   8.447   5.793  1.1781  0.3262 -0.5843
11299SOL     OW45621   2.643  10.720   1.206  0.1887 -0.3762  0.3672
11299SOL    HW145622   2.683  10.701   1.121 -0.5827 -1.3533  0.1997
11299SOL    HW245623   2.676  10.652   1.264 -0.2934 -0.4801  0.5240
11300SOL     OW45624   8.175   2.784  11.169 -0.1669  0.1394  0.4774
11300SOL    HW145625   8.123   2.843  11.115 -0.8825  1.4081  2.4623
11300SOL    HW245626   8.265   2.799  11.140 -0.5804  0.2654 -0.8116
11301SOL     OW45627  11.415   8.546   8.230  0.1990  0.0815 -0.3897
11301SOL    HW145628  11.348   8.481   8.206 -1.0481  1.5947 -1.1907
11301SOL    HW245629  11.489   8.525   8.174 -0.5080 -0.1528 -1.2696
11302SOL     OW45630   8.980  11.284   6.707 -0.3594 -0.5764  0.0762
11302SOL    HW145631   9.048  11.217   6.698  2.6790  2.4044 -1.3628
11302SOL    HW245632   9.028  11.364   6.726 -3.7787  1.3006  1.7852
11303SOL     OW45633   6.182   8.919   0.779  0.5654  0.2479  0.1638
11303SOL    HW145634   6.220   8.893   0.863 -0.8999  0.6688  1.0000
11303SOL    HW245635   6.255   8.951   0.728  1.8600 -2.0184  0.4581
11304SOL     OW45636  12.937   4.508   8.382 -0.1913  0.0642  0.0841
11304SOL    HW145637  12.925   4.518   8.477  0.6497 -1.4720  0.3835
11304SOL    HW245638  12.852   4.529   8.345 -0.2948  1.6005  1.0906
11305SOL     OW45639   0.425   0.634   8.983 -0.1383  0.0415 -0.4879
11305SOL    HW145640   0.396   0.551   9.019 -0.1221  0.1943 -0.1223
11305SOL    HW245641   0.402   0.629   8.890 -0.9662  0.0002 -0.2850
11306SOL     OW45642   6.204   4.587  11.559  0.3619 -0.0568 -0.2833
11306SOL    HW145643   6.298   4.601  11.576  0.2519 -0.1783  0.4745
11306SOL    HW245644   6.199   4.500  11.521  0.3055 -1.3158  2.4048
11307SOL     OW45645   7.613  13.635   6.938  0.1710 -0.5698  0.1201
11307SOL    HW145646   7.567  13.633   7.021 -1.4588  1.8981 -0.6171
11307SOL    HW245647   7.544  13.643   6.872  1.4940  3.6695 -1.0399
11308SOL     OW45648   2.766  10.408  11.324  0.0381  0.1763 -0.2948
11308SOL    HW145649   2.713  10.337  11.360 -0.6918  1.8249  2.0715
11308SOL    HW245650   2.784  10.381  11.234 -0.4031 -2.8621  0.4250
11309SOL     OW45651  10.004   8.159   9.980 -0.3482  0.0388 -0.2940
11309SOL    HW145652   9.958   8.178  10.061  0.4618  0.5504  0.0623
11309SOL    HW245653  10.073   8.097  10.005 -0.2466  0.0081 -0.6357
11310SOL     OW45654   5.765   7.122  10.349 -0.8105 -0.1148  0.2361
11310SOL    HW145655   5.839   7.177  10.376 -0.8541  0.2470 -0.3748
11310SOL    HW245656   5.777   7.109  10.255 -1.7953  0.3716  0.0299
11311SOL     OW45657   2.052   6.242   2.642  0.2656  0.3292  0.1879
11311SOL    HW145658   2.140   6.214   2.618  0.2368 -0.0144  0.4731
11311SOL    HW245659   1.999   6.222   2.566  0.2111 -0.5805  0.4510
11312SOL     OW45660   4.704  10.514  12.395  0.5640  0.1220  0.2621
11312SOL    HW145661   4.787  10.471  12.375  0.4330  1.1389 -2.9086
11312SOL    HW245662   4.726  10.607  12.400 -0.3558  0.3902 -0.5009
11313SOL     OW45663   3.053   0.863   3.968 -0.0346  0.3704  0.3898
11313SOL    HW145664   3.095   0.932   3.916 -0.8655 -0.0200 -0.8495
11313SOL    HW245665   3.005   0.811   3.904  1.3276 -1.9565  1.1496
11314SOL     OW45666   3.714   4.175   0.655  0.2456  0.2890  0.3396
11314SOL    HW145667   3.773   4.102   0.634  1.4155  0.7743  1.7543
11314SOL    HW245668   3.739   4.201   0.744 -1.4946  1.1367  0.6203
11315SOL     OW45669   4.554   5.467  12.106  0.3811  0.0334  0.1211
11315SOL    HW145670   4.626   5.433  12.052  1.0000 -0.6680  1.3609
11315SOL    HW245671   4.550   5.409  12.181 -0.1862  1.2375  1.0553
11316SOL     OW45672   0.586  13.104   4.878  0.2457  0.2645 -0.3531
11316SOL    HW145673   0.621  13.132   4.794  1.4334 -0.8655 -0.2627
11316SOL    HW245674   0.534  13.025   4.857 -0.8279  0.9179 -0.2362
11317SOL     OW45675  11.695   9.817  10.800  0.0715 -0.0048  0.4992
11317SOL    HW145676  11.673   9.724  10.803  1.4084 -0.3848 -0.2327
11317SOL    HW245677  11.759   9.824  10.729  0.8487  1.2724  1.2679
11318SOL     OW45678   8.163   6.811  13.355  0.8504 -0.4746 -0.3375
11318SOL    HW145679   8.095   6.836  13.293  1.0807 -1.1628 -0.8855
11318SOL    HW245680   8.245   6.826  13.307  1.0144 -1.4717 -0.3836
11319SOL     OW45681   5.287  10.804  10.916 -0.1019  0.1498 -0.1017
11319SOL    HW145682   5.263  10.876  10.857  0.5850  0.1465 -0.3931
11319SOL    HW245683   5.256  10.832  11.002 -0.0898  0.6685 -0.2644
11320SOL     OW45684   2.951   1.381   4.704  0.4215 -0.7768 -0.4370
11320SOL    HW145685   2.962   1.331   4.623  1.1931 -0.8339 -0.2999
11320SOL    HW245686   3.033   1.429   4.714 -0.1502  0.1946 -0.3399
11321SOL     OW45687   6.992   4.382   8.107 -0.0183 -0.5456 -0.1281
11321SOL    HW145688   6.905   4.387   8.069 -0.1059 -0.4115  0.0856
11321SOL    HW245689   7.047   4.434   8.047 -0.4845  1.1591  0.8362
11322SOL     OW45690  12.122  13.482  12.805  0.2614 -0.3705 -0.2400
11322SOL    HW145691  12.090  13.520  12.723  0.7319 -1.2940 -0.8775
11322SOL    HW245692  12.185  13.546  12.839 -0.6951  0.4845 -0.0596
11323SOL     OW45693   3.656  11.765   0.877  0.5222  0.1455 -0.0384
11323SOL    HW145694   3.573  11.718   0.875  0.4100  0.3195 -2.6083
11323SOL    HW245695   3.715  11.712   0.824  0.7813  2.1012 -1.8317
11324SOL     OW45696  12.998   1.581   2.154  0.6738  0.1721 -0.3324
11324SOL    HW145697  13.000   1.676   2.141 -0.6052  0.2957  0.2500
11324SOL    HW245698  12.956   1.570   2.240  0.6767 -0.9275 -0.4655
11325SOL     OW45699   7.118   5.107   8.753  0.2352  0.0237  0.3651
11325SOL    HW145700   7.107   5.094   8.659 -2.6653  2.0329  0.2751
11325SOL    HW245701   7.159   5.026   8.784  0.4265 -1.0822 -2.4599
11326SOL     OW45702  10.445   0.397  10.822 -0.1928  0.4301  0.5128
11326SOL    HW145703  10.450   0.440  10.908 -0.2039  2.6029 -0.4922
11326SOL    HW245704  10.352   0.387  10.805 -0.1862 -0.2606  0.8613
11327SOL     OW45705   0.694   7.276   8.959  0.2746 -0.5286 -0.5179
11327SOL    HW145706   0.741   7.203   8.920 -0.1840 -0.0597 -1.9895
11327SOL    HW245707   0.754   7.350   8.953  0.1292 -0.4088 -0.5068
11328SOL     OW45708   2.974   6.471   8.543  0.2205 -0.3283  0.1053
11328SOL    HW145709   3.062   6.499   8.518 -0.4239  0.4667 -1.4033
11328SOL    HW245710   2.941   6.540   8.600 -0.1784  0.4625 -1.0397
11329SOL     OW45711   1.597   5.912  12.649  0.7800  0.1889 -0.6420
11329SOL    HW145712   1.568   6.002  12.663 -0.4536 -0.3701  0.7008
11329SOL    HW245713   1.665   5.898  12.715  2.3171  0.6609 -2.0494
11330SOL     OW45714   8.588  13.121   5.188  0.4371  0.1361  0.4124
11330SOL    HW145715   8.525  13.070   5.238  0.6019 -1.1756 -0.6493
11330SOL    HW245716   8.659  13.059   5.170  0.1433  0.3633 -1.8660
11331SOL     OW45717   8.533  10.995   8.560 -0.0693  0.1206 -0.1073
11331SOL    HW145718   8.589  11.070   8.579 -0.1129  0.1789 -0.2070
11331SOL    HW245719   8.504  11.009   8.469  2.1466 -1.4131 -1.1404
11332SOL     OW45720  10.437   8.630   8.157 -0.3343 -0.1196 -0.2438
11332SOL    HW145721  10.445   8.536   8.143  2.0100  0.2955 -2.5005
11332SOL    HW245722  10.368   8.658   8.097 -2.0157 -0.4726  1.4052
11333SOL     OW45723   2.450  12.973   8.032 -0.4219  0.0985  0.4461
11333SOL    HW145724   2.424  12.911   7.964 -1.5725  0.8222  0.2123
11333SOL    HW245725   2.485  12.917   8.102  0.0815 -0.7018 -0.4139
11334SOL     OW45726   9.096  10.191   1.183  0.0171  0.7969  0.1565
11334SOL    HW145727   9.125  10.176   1.272  1.3673 -1.2825 -0.5737
11334SOL    HW245728   9.155  10.259   1.150  1.2490 -0.2779  0.0676
11335SOL     OW45729   4.955   1.996   6.334 -0.0291 -0.2109 -0.5866
11335SOL    HW145730   4.998   2.077   6.362 -1.5732  1.1693 -2.0001
11335SOL    HW245731   4.979   1.987   6.242 -0.4809 -0.9751 -0.6397
11336SOL     OW45732   3.696   5.943   9.735 -0.0526  0.2064 -0.1700
11336SOL    HW145733   3.652   5.940   9.650 -1.5227 -2.4459  0.5847
11336SOL    HW245734   3.783   5.907   9.717 -0.1677  0.1652 -0.6679
11337SOL     OW45735   9.691  10.441   5.696 -0.2603 -0.2319  0.0906
11337SOL    HW145736   9.692  10.504   5.624  0.1498  0.0114  0.3078
11337SOL    HW245737   9.771  10.459   5.745 -1.0938  0.3652  1.2777
11338SOL     OW45738   9.343   3.260   1.685 -0.0063 -0.2052  0.6583
11338SOL    HW145739   9.297   3.307   1.616 -0.6571  0.5484  1.5890
11338SOL    HW245740   9.405   3.204   1.638 -0.3089  0.4187 -0.5261
11339SOL     OW45741   3.880   8.812   2.279 -0.7511 -0.2845 -0.1600
11339SOL    HW145742   3.901   8.719   2.287  1.4613  0.1664 -0.2220
11339SOL    HW245743   3.810   8.826   2.343  1.8712 -1.1468  3.1920
11340SOL     OW45744   7.146  10.679   9.636 -0.1112  0.6744 -0.4868
11340SOL    HW145745   7.108  10.693   9.550 -3.9785 -1.2739  0.6715
11340SOL    HW245746   7.186  10.593   9.632 -2.3869 -0.5007  0.1366
11341SOL     OW45747   0.397   4.758   4.482  0.6922  0.1070 -0.3553
11341SOL    HW145748   0.390   4.663   4.490 -1.9066  0.3567  1.7705
11341SOL    HW245749   0.484   4.773   4.445  0.8320 -3.1016 -1.6562
11342SOL     OW45750   0.798   9.817   7.077 -0.2230  0.0416  0.1511
11342SOL    HW145751   0.753   9.884   7.026  1.2062 -0.6332 -2.1562
11342SOL    HW245752   0.754   9.735   7.053 -0.7838 -0.0752  1.5342
11343SOL     OW45753   4.451   9.441  11.844 -0.0358  0.4853  0.3831
11343SOL    HW145754   4.359   9.458  11.828 -0.5702 -1.9873  0.4513
11343SOL    HW245755   4.459   9.345  11.841  2.5207  0.6232  0.3862
11344SOL     OW45756   1.416   4.186   9.809  0.2456  0.0225  0.3144
11344SOL    HW145757   1.435   4.221   9.897 -1.9853 -0.8740  1.2292
11344SOL    HW245758   1.422   4.091   9.819  3.4648 -0.1243 -1.4728
11345SOL     OW45759   7.667   8.413  12.838 -0.3149 -0.4494  0.6428
11345SOL    HW145760   7.668   8.483  12.773 -1.2925 -0.6126  0.4255
11345SOL    HW245761   7.609   8.445  12.907 -1.3211 -1.2895  0.2234
11346SOL     OW45762  10.160   9.134   6.793 -0.1699  0.0728  0.1437
11346SOL    HW145763  10.104   9.141   6.716  0.9658  0.0346 -0.7212
11346SOL    HW245764  10.135   9.209   6.848  0.0813  1.0384 -1.0108
11347SOL     OW45765   6.758  13.446   8.021  0.3385  0.2817  0.0659
11347SOL    HW145766   6.768  13.383   7.949  0.7064 -1.2591  1.4035
11347SOL    HW245767   6.669  13.431   8.053  0.2440  0.8274  0.0570
11348SOL     OW45768   6.600   7.929   8.312  0.1182 -0.1688 -0.0950
11348SOL    HW145769   6.640   8.002   8.360 -0.2221 -0.0129 -0.0453
11348SOL    HW245770   6.509   7.928   8.342 -0.3263  0.4694 -1.3590
11349SOL     OW45771   7.776  10.523   8.661  0.0223  0.0076 -0.5483
11349SOL    HW145772   7.712  10.560   8.601 -0.4841  1.9969  1.1004
11349SOL    HW245773   7.728  10.512   8.743  0.9601 -1.6440 -0.1584
11350SOL     OW45774   7.476   0.641  10.674 -0.2213  0.1350  0.3093
11350SOL    HW145775   7.523   0.724  10.668 -1.8687  1.2606  1.8742
11350SOL    HW245776   7.441   0.627  10.586 -0.5419  1.5132  0.2002
11351SOL     OW45777  10.476   5.396   5.916  0.6820  0.2192  0.3793
11351SOL    HW145778  10.465   5.322   5.976 -0.2609  0.3738  0.4106
11351SOL    HW245779  10.410   5.380   5.847  0.9942  0.6309 -0.0193
11352SOL     OW45780   8.090   5.803   9.880  0.1454 -0.1399 -0.1102
11352SOL    HW145781   8.026   5.744   9.840  0.0564 -0.7574  0.9214
11352SOL    HW245782   8.087   5.783   9.973  0.1416  1.4620  0.2776
11353SOL     OW45783  11.789   3.974   9.500 -0.2288 -0.5670 -0.2524
11353SOL    HW145784  11.722   4.000   9.563 -0.3286 -1.3731 -0.0166
11353SOL    HW245785  11.786   4.042   9.433 -0.9494 -0.3394 -0.0022
11354SOL     OW45786   8.209  11.516  10.198 -0.3501  0.0593 -0.4122
11354SOL    HW145787   8.281  11.518  10.260 -0.1138  4.2722 -0.5330
11354SOL    HW245788   8.130  11.523  10.253 -0.2434  1.7281 -0.4136
11355SOL     OW45789   9.252  13.045   5.915 -0.3396  0.0361 -0.0460
11355SOL    HW145790   9.166  13.088   5.923 -0.4965  0.0021 -1.2623
11355SOL    HW245791   9.269  13.046   5.821  1.3579  0.7258  0.2444
11356SOL     OW45792   7.265   3.477   3.247  0.1613 -0.2384 -0.3664
11356SOL    HW145793   7.176   3.441   3.240 -0.3388  0.3939  1.8980
11356SOL    HW245794   7.305   3.428   3.319  0.0966  2.3372  1.5490
11357SOL     OW45795   9.603   5.856   2.094 -0.6528 -1.4277 -0.0121
11357SOL    HW145796   9.689   5.829   2.126  0.3049 -2.2386 -2.9650
11357SOL    HW245797   9.545   5.782   2.116 -0.2935 -1.5095  0.6940
11358SOL     OW45798   9.077  13.515   7.419 -0.1691  0.7205 -0.2638
11358SOL    HW145799   9.109  13.598   7.384  0.3904  0.4545 -0.3916
11358SOL    HW245800   9.070  13.458   7.343  0.3023  0.3784 -0.0496
11359SOL     OW45801   3.857  13.211   3.237  1.2148 -0.0798  0.0108
11359SOL    HW145802   3.821  13.278   3.295 -1.2628 -1.2272 -0.0865
11359SOL    HW245803   3.898  13.261   3.166  1.9745  1.3102  1.3675
11360SOL     OW45804   0.504   4.241   6.777  0.1789 -0.3600 -0.1654
11360SOL    HW145805   0.476   4.224   6.867 -0.2836 -1.7075 -0.5315
11360SOL    HW245806   0.450   4.182   6.724  0.7276  0.1186 -1.2915
11361SOL     OW45807   2.600   6.295   8.341 -0.2444  0.3868  0.2829
11361SOL    HW145808   2.554   6.212   8.349 -0.3039  0.3010 -0.7691
11361SOL    HW245809   2.668   6.278   8.276 -1.1970  1.5296 -1.0744
11362SOL     OW45810   5.818  11.892   6.039  0.2546 -0.3293  0.0603
11362SOL    HW145811   5.761  11.846   5.977 -0.3747  0.2347  0.2119
11362SOL    HW245812   5.778  11.874   6.125  0.2049  0.1950  0.1522
11363SOL     OW45813   5.282   6.674  11.725  0.3042 -0.0996  0.1036
11363SOL    HW145814   5.309   6.638  11.640 -1.1260 -2.5401  0.5838
11363SOL    HW245815   5.223   6.746  11.702 -0.8139 -1.3227 -1.0348
11364SOL     OW45816   1.802   3.025   0.434  0.1362 -0.7984  0.2442
11364SOL    HW145817   1.718   2.987   0.459  0.5121 -1.4115  0.5854
11364SOL    HW245818   1.779   3.112   0.400 -0.4790 -0.2489  1.9510
11365SOL     OW45819   4.815   5.431   9.964  0.1794  0.7113  0.1367
11365SOL    HW145820   4.886   5.370   9.943  2.7056  2.5243  2.5922
11365SOL    HW245821   4.826   5.503   9.902 -0.6272  0.2412 -0.5655
11366SOL     OW45822   4.684   0.151  12.271  0.3673  0.1937 -0.9154
11366SOL    HW145823   4.612   0.090  12.285  0.3689  0.6000  1.2018
11366SOL    HW245824   4.645   0.237  12.278  0.7796  0.4379 -1.4945
11367SOL     OW45825  10.822  10.265   5.387 -0.1370  0.2925  0.2136
11367SOL    HW145826  10.908  10.303   5.369 -0.4705 -0.2255 -3.1350
11367SOL    HW245827  10.767  10.341   5.408  0.3048  1.2065 -1.6320
11368SOL     OW45828   6.118   3.269   7.453 -0.3012  0.1721  0.1813
11368SOL    HW145829   6.105   3.231   7.539 -0.8175 -1.0384 -0.4079
11368SOL    HW245830   6.155   3.198   7.400 -1.6801  0.3175 -1.0462
11369SOL     OW45831   0.415   8.683   8.017 -0.4288  0.3856  0.2951
11369SOL    HW145832   0.336   8.665   8.067 -0.5473 -2.2852 -0.6893
11369SOL    HW245833   0.481   8.626   8.054 -0.0012 -0.2074 -1.2730
11370SOL     OW45834   8.372   1.990  12.872  0.7017  0.2273 -0.5957
11370SOL    HW145835   8.341   2.075  12.841 -0.7837 -0.2421 -0.4747
11370SOL    HW245836   8.423   2.011  12.951 -1.4907  0.8844  0.7502
11371SOL     OW45837   8.711  10.274   3.377 -0.6288  0.1989 -0.0346
11371SOL    HW145838   8.764  10.198   3.353 -0.2795  0.5214 -0.3025
11371SOL    HW245839   8.719  10.280   3.472  0.1789  0.5044 -0.1158
11372SOL     OW45840   7.802   7.558   6.322  0.1014  0.3417 -0.4499
11372SOL    HW145841   7.770   7.647   6.312 -0.6681 -0.0897 -2.3143
11372SOL    HW245842   7.883   7.555   6.272 -0.4297 -0.2464 -1.3139
11373SOL     OW45843   8.449   8.870   1.814 -0.0275 -0.5668 -0.0871
11373SOL    HW145844   8.393   8.896   1.887 -0.5207  0.8189 -0.9196
11373SOL    HW245845   8.528   8.835   1.855 -0.5810 -0.4623  1.0955
11374SOL     OW45846  13.530  10.474   2.067  0.0947 -0.2792 -0.6511
11374SOL    HW145847  13.561  10.516   1.987 -0.9203 -0.5014 -1.1811
11374SOL    HW245848  13.605  10.474   2.126  1.4757 -1.8493 -2.2933
11375SOL     OW45849  12.738   0.797  10.277  0.0998  0.1848  0.6069
11375SOL    HW145850  12.660   0.811  10.223  0.9784  0.3830 -0.6465
11375SOL    HW245851  12.795   0.870  10.255  0.7707 -0.1316  1.2778
11376SOL     OW45852   5.449  13.137   7.399  0.0396 -0.1445  0.4252
11376SOL    HW145853   5.400  13.214   7.372  0.2285  0.7001  2.3315
11376SOL    HW245854   5.385  13.066   7.401 -0.2050  0.0160 -1.0191
11377SOL     OW45855  12.742   4.888   4.866 -0.3929  0.7075  0.6139
11377SOL    HW145856  12.719   4.981   4.855  1.4912  1.0576 -0.7571
11377SOL    HW245857  12.822   4.889   4.919 -0.0543 -0.0919  0.1422
11378SOL     OW45858   7.705  11.731   4.542  0.1600  0.0526 -0.0176
11378SOL    HW145859   7.736  11.654   4.590  0.6789 -0.2391 -0.7956
11378SOL    HW245860   7.672  11.696   4.460 -1.5184  0.4553  0.4528
11379SOL     OW45861  13.601   1.233   4.364  0.6179  0.1442  0.4899
11379SOL    HW145862  13.541   1.263   4.296 -0.1027 -1.0397  0.5856
11379SOL    HW245863  13.684   1.220   4.318  0.3233  0.0370 -0.0221
11380SOL     OW45864   9.864   6.767   9.550  0.3038 -0.3255 -0.1543
11380SOL    HW145865   9.822   6.830   9.492 -1.4280 -1.7764 -0.5888
11380SOL    HW245866   9.851   6.803   9.638  0.8900  0.7532 -0.4982
11381SOL     OW45867   5.779  10.912  11.377 -0.0069 -0.2542 -0.3142
11381SOL    HW145868   5.758  10.942  11.288  1.2769  2.4444  0.1812
11381SOL    HW245869   5.875  10.915  11.381 -0.0502 -0.3062  1.1545
11382SOL     OW45870   5.329   9.104   1.070  0.2553 -0.2554  0.4007
11382SOL    HW145871   5.357   9.016   1.094 -0.3503 -0.6129 -0.2038
11382SOL    HW245872   5.363   9.159   1.141  0.8132 -0.9382  0.6765
11383SOL     OW45873  10.882   6.177   5.838  0.2783  0.5755  0.0577
11383SOL    HW145874  10.960   6.130   5.810 -0.4064 -0.2897 -0.4603
11383SOL    HW245875  10.815   6.152   5.775 -0.5971  0.7396  0.8941
11384SOL     OW45876   5.084  12.911  12.271 -0.1106 -0.3522 -0.4984
11384SOL    HW145877   5.008  12.967  12.257 -0.9451 -1.5634 -1.0047
11384SOL    HW245878   5.159  12.966  12.251 -0.7465  1.3155  1.4297
11385SOL     OW45879  11.056  13.098   0.783  0.1248 -0.5357  0.1891
11385SOL    HW145880  11.091  13.057   0.862 -1.5748 -0.9883  0.7574
11385SOL    HW245881  10.984  13.153   0.814 -1.6709 -1.9772 -1.1095
11386SOL     OW45882   6.608  13.693   6.102  0.1042 -0.0831  0.6020
11386SOL    HW145883   6.561  13.610   6.095  0.8513 -0.5656  1.0859
11386SOL    HW245884   6.660  13.698   6.021  0.0196 -0.0637  0.5491
11387SOL     OW45885   4.119   4.365   9.601  0.0321  0.3310  0.1283
11387SOL    HW145886   4.189   4.308   9.569  0.3739 -0.0405  1.5044
11387SOL    HW245887   4.163   4.448   9.619 -0.0006  0.2809  0.4312
11388SOL     OW45888   3.598   3.753   9.655  0.0952  0.0211 -0.2286
11388SOL    HW145889   3.665   3.798   9.604  1.6391 -1.1646  0.6588
11388SOL    HW245890   3.603   3.661   9.626  1.0428 -0.6905  1.9788
11389SOL     OW45891   7.561   4.036   1.108  0.5302 -0.5252  0.6217
11389SOL    HW145892   7.656   4.047   1.113  0.5493  0.4499 -1.1295
11389SOL    HW245893   7.525   4.116   1.145  0.3384 -1.1974  1.9620
11390SOL     OW45894   0.055   7.536   4.527 -0.2179 -0.8253 -0.4367
11390SOL    HW145895   0.131   7.480   4.545  0.1623 -1.0446 -2.5474
11390SOL    HW245896   0.092   7.623   4.513 -0.5795 -0.5075  0.5149
11391SOL     OW45897   0.210   8.406  11.027 -0.0129  0.0234  0.2309
11391SOL    HW145898   0.216   8.467  11.101 -0.3829 -0.1045  0.3652
11391SOL    HW245899   0.186   8.322  11.066 -0.0586 -0.0811 -0.0206
11392SOL     OW45900   4.528  12.058   4.888 -0.1256  0.2194 -0.2809
11392SOL    HW145901   4.581  12.135   4.868  0.1543  0.3203  0.8219
11392SOL    HW245902   4.520  12.012   4.804  0.4053  1.0069 -0.7712
11393SOL     OW45903   8.799   6.369   7.052 -0.3660  0.0233  0.3058
11393SOL    HW145904   8.827   6.408   7.135  0.0720 -0.7533  0.5309
11393SOL    HW245905   8.867   6.304   7.032 -0.3125  0.4011 -0.8117
11394SOL     OW45906   0.769   8.625   0.593  1.1216  0.0761  0.1858
11394SOL    HW145907   0.755   8.542   0.549  1.6081 -0.1686  0.4845
11394SOL    HW245908   0.864   8.637   0.594  1.1155  0.1524  1.0206
11395SOL     OW45909   5.515  12.757   3.046  0.1892 -0.1095 -0.2185
11395SOL    HW145910   5.551  12.787   2.963 -1.5311  0.7717 -0.6873
11395SOL    HW245911   5.542  12.824   3.110  2.0896 -1.1290  0.1367
11396SOL     OW45912   2.405   2.745   1.837 -0.5897 -0.4495 -0.4439
11396SOL    HW145913   2.369   2.784   1.916 -0.2429 -1.1745  0.0858
11396SOL    HW245914   2.353   2.782   1.765 -0.9179  0.1950  0.1214
11397SOL     OW45915   9.697  13.178   9.434  0.0454  1.1258  0.5609
11397SOL    HW145916   9.633  13.196   9.503  0.9848 -0.4978  1.9510
11397SOL    HW245917   9.653  13.117   9.375  0.4181 -0.4839  1.8497
11398SOL     OW45918  11.411   7.710   6.553 -0.2579 -0.1103 -0.2557
11398SOL    HW145919  11.404   7.715   6.649  1.0408  1.8505 -0.2206
11398SOL    HW245920  11.502   7.688   6.537 -0.2317  0.5613 -1.0584
11399SOL     OW45921   2.569   3.691  11.569  0.8130 -0.0946 -0.5261
11399SOL    HW145922   2.661   3.715  11.585  1.1597 -1.7042  0.1090
11399SOL    HW245923   2.529   3.771  11.534  1.1833  2.3025  3.8646
11400SOL     OW45924  12.706   7.012   5.513  0.4919 -0.0891 -0.1900
11400SOL    HW145925  12.800   7.015   5.530  0.2730  1.6014  0.9223
11400SOL    HW245926  12.698   7.039   5.421  1.1681 -2.0339 -0.8785
11401SOL     OW45927   5.403   1.824   6.341  0.0628 -0.3611 -0.0538
11401SOL    HW145928   5.349   1.858   6.270 -0.1111 -0.2792  0.1181
11401SOL    HW245929   5.457   1.757   6.300  0.6030  0.3064 -0.4537
11402SOL     OW45930   8.875   2.898   5.515 -0.4545  0.4822 -0.1349
11402SOL    HW145931   8.802   2.859   5.565 -1.8579  1.6539 -1.1809
11402SOL    HW245932   8.946   2.835   5.524 -1.3294 -0.3380  1.5972
11403SOL     OW45933   7.852  10.773   1.521  0.1618 -0.7106 -0.1919
11403SOL    HW145934   7.764  10.741   1.541 -1.0508  1.3077 -1.8622
11403SOL    HW245935   7.846  10.867   1.535  2.4365 -0.6645  0.7586
11404SOL     OW45936  11.817   9.906  10.144 -0.5965 -0.2935 -0.6642
11404SOL    HW145937  11.904   9.923  10.110  0.1566  0.2946  1.4079
11404SOL    HW245938  11.778   9.845  10.081  1.3916 -0.7873 -1.4926
11405SOL     OW45939   7.934  13.416   4.329 -0.2231 -0.1070  0.3649
11405SOL    HW145940   7.919  13.321   4.334 -1.1278 -0.1159 -1.5251
11405SOL    HW245941   7.850  13.452   4.301 -0.8275  1.6972  3.9187
11406SOL     OW45942   2.841   6.732  10.543  0.0691 -0.2386  0.4204
11406SOL    HW145943   2.922   6.732  10.594  0.1299 -0.9708  0.3437
11406SOL    HW245944   2.793   6.809  10.573 -0.4795 -1.3259  2.5512
11407SOL     OW45945  11.136   9.348   2.693  0.2217  0.0828 -0.2663
11407SOL    HW145946  11.218   9.392   2.714 -1.1905  2.5093  0.6662
11407SOL    HW245947  11.113   9.381   2.606 -0.4756  0.6354  0.1151
11408SOL     OW45948  10.921   2.555  11.203  0.6466  0.0012 -0.2828
11408SOL    HW145949  10.982   2.489  11.170  0.4499 -0.1998 -0.2494
11408SOL    HW245950  10.960   2.587  11.284  0.5752 -0.3226 -0.1211
11409SOL     OW45951   7.496   7.138   7.192 -0.0351  0.2977 -0.0003
11409SOL    HW145952   7.542   7.054   7.188  1.8642  1.2044  1.6571
11409SOL    HW245953   7.533   7.183   7.267 -1.4631  2.4052 -0.4664
11410SOL     OW45954   7.282   0.183   2.264 -0.3668 -0.0730 -0.1174
11410SOL    HW145955   7.303   0.113   2.326  1.2298 -0.7582 -1.3411
11410SOL    HW245956   7.246   0.254   2.318 -0.1509 -1.0753  1.4089
11411SOL     OW45957   9.119   0.585  12.268  0.4715 -0.0446  0.0798
11411SOL    HW145958   9.178   0.579  12.343 -0.2912  0.2185  0.7255
11411SOL    HW245959   9.052   0.519  12.286  1.5280 -1.6493 -1.5668
11412SOL     OW45960   1.957   4.775   0.687 -0.4647  0.2988  0.0219
11412SOL    HW145961   1.916   4.839   0.745  1.2335 -1.1526  3.0696
11412SOL    HW245962   2.046   4.808   0.673 -0.0111 -0.6789  0.5004
11413SOL     OW45963   1.714   7.204   6.309 -0.1793  0.3527 -0.4501
11413SOL    HW145964   1.735   7.262   6.382 -1.4178  0.3810 -0.0857
11413SOL    HW245965   1.789   7.211   6.250  1.6176 -0.9400  1.5459
11414SOL     OW45966   3.035  11.314   6.277  0.2046  0.0740 -0.1057
11414SOL    HW145967   3.111  11.274   6.320  0.3653  1.4007  0.9219
11414SOL    HW245968   3.020  11.395   6.326 -0.2093  1.1897 -1.9936
11415SOL     OW45969  11.050   7.344   5.639 -0.2061  0.2966  0.0361
11415SOL    HW145970  11.093   7.295   5.570  0.1227  0.8257 -0.1368
11415SOL    HW245971  10.986   7.283   5.676 -0.3430 -0.0049 -0.6920
11416SOL     OW45972   5.855   7.902   9.194  0.0101 -0.0856 -0.0070
11416SOL    HW145973   5.766   7.882   9.223  0.4519 -1.6555  0.3540
11416SOL    HW245974   5.904   7.821   9.207  1.6667  0.9199  0.3872
11417SOL     OW45975   3.556   6.854  12.442 -0.1214  0.5329 -0.4736
11417SOL    HW145976   3.621   6.844  12.512  0.0943  0.1452 -0.7297
11417SOL    HW245977   3.512   6.937  12.463 -0.9552 -0.2079  0.8617
11418SOL     OW45978  11.071   5.442   4.171  0.3566 -0.0133  0.0475
11418SOL    HW145979  11.139   5.378   4.153 -0.2429 -0.9328  0.9335
11418SOL    HW245980  11.053   5.433   4.265 -1.1977 -0.0295 -0.2148
11419SOL     OW45981   4.103  10.390   5.638  0.1832  0.2724 -0.1652
11419SOL    HW145982   4.036  10.459   5.632  1.0125  1.0141 -1.1338
11419SOL    HW245983   4.181  10.435   5.670  0.6985 -0.2401 -0.6906
11420SOL     OW45984   8.522  12.335   5.574  0.1148  0.3461  0.0088
11420SOL    HW145985   8.436  12.292   5.579 -0.0788  0.8329  1.4323
11420SOL    HW245986   8.580  12.268   5.538 -0.7139 -0.2210 -0.3192
11421SOL     OW45987   5.683   4.466   0.222 -0.1107 -0.1736  0.0619
11421SOL    HW145988   5.620   4.394   0.227 -0.0207 -0.2811 -0.3337
11421SOL    HW245989   5.753   4.433   0.166  0.4021 -0.1353  0.6626
11422SOL     OW45990   6.377   6.113  11.183  0.3024 -0.6538  0.1902
11422SOL    HW145991   6.375   6.096  11.277  0.1724 -1.8579 -0.0190
11422SOL    HW245992   6.369   6.027  11.143 -0.6603 -0.0670 -0.9318
11423SOL     OW45993  12.666   7.324   6.300 -0.2350 -0.4157  0.2607
11423SOL    HW145994  12.652   7.327   6.395 -0.8141 -0.9652  0.1991
11423SOL    HW245995  12.579   7.315   6.263 -0.0902  0.7108 -0.3839
11424SOL     OW45996  11.213   8.593   9.893 -0.2116  0.3293  0.2515
11424SOL    HW145997  11.228   8.660   9.959 -0.8665  1.1775 -0.4510
11424SOL    HW245998  11.177   8.640   9.818 -2.9635 -1.0910  0.5640
11425SOL     OW45999   3.243   4.573   7.605  0.1474  0.0179 -0.3386
11425SOL    HW146000   3.338   4.588   7.602  0.3532 -0.7968  0.9250
11425SOL    HW246001   3.216   4.613   7.688 -0.4190 -0.6416 -0.1949
11426SOL     OW46002   6.168  12.442   0.670  0.2952  0.1988  0.2260
11426SOL    HW146003   6.124  12.427   0.754  0.7136  0.6188  0.5306
11426SOL    HW246004   6.218  12.362   0.654 -0.6103 -0.2944 -0.1437
11427SOL     OW46005  11.182   0.949   6.526 -0.5255  0.1493 -0.1685
11427SOL    HW146006  11.170   0.867   6.479 -2.3760  0.1428  0.2314
11427SOL    HW246007  11.263   0.937   6.576 -1.1833 -1.7654  0.5249
11428SOL     OW46008   7.381   1.785  11.154  0.6939  0.3885 -0.1394
11428SOL    HW146009   7.358   1.773  11.062  2.5175  0.2140 -0.6033
11428SOL    HW246010   7.359   1.876  11.172  0.3356  0.4311 -0.7575
11429SOL     OW46011   9.984  11.199   0.912  0.2149  0.7790  0.0385
11429SOL    HW146012  10.059  11.172   0.965 -0.8376 -1.3507  0.5530
11429SOL    HW246013  10.011  11.282   0.872  1.1435  2.4634  3.7435
11430SOL     OW46014   6.555   1.108  11.144  0.2860  0.2398 -0.5610
11430SOL    HW146015   6.488   1.139  11.084 -1.1159  0.9786  1.3139
11430SOL    HW246016   6.578   1.184  11.197 -0.6036 -0.9754  1.7228
11431SOL     OW46017   0.943   5.758   2.729  0.3401  0.2899  0.3446
11431SOL    HW146018   0.876   5.818   2.695 -0.6196  0.0035  1.6543
11431SOL    HW246019   0.927   5.676   2.682 -0.8766 -0.0558  1.3017
11432SOL     OW46020  11.347   6.846   5.960 -0.0784  0.3630 -0.2722
11432SOL    HW146021  11.291   6.848   5.882 -1.0613 -0.0576  0.3957
11432SOL    HW246022  11.376   6.756   5.966  1.2188  0.7156 -0.9701
11433SOL     OW46023   0.249   4.640   6.275  0.5077 -0.1199  0.6032
11433SOL    HW146024   0.314   4.700   6.239 -1.1120  1.0158 -0.6144
11433SOL    HW246025   0.209   4.689   6.347 -0.1790 -0.0992  0.2134
11434SOL     OW46026   4.163   4.712   0.938  0.1412 -0.5787 -0.2623
11434SOL    HW146027   4.107   4.776   0.895 -0.3949 -0.4592  0.5942
11434SOL    HW246028   4.102   4.657   0.988  0.7964 -0.3500  0.8059
11435SOL     OW46029   2.874   4.476   8.726  0.6087  0.5213 -0.2310
11435SOL    HW146030   2.832   4.508   8.647 -1.2771 -1.5039 -0.1345
11435SOL    HW246031   2.817   4.505   8.797  1.5433  1.1385  0.2835
11436SOL     OW46032   0.796  13.438   8.088  0.4037 -0.0125  0.6695
11436SOL    HW146033   0.721  13.378   8.084 -0.1912  0.7372 -2.0872
11436SOL    HW246034   0.867  13.390   8.046 -0.1100  1.1192 -1.6754
11437SOL     OW46035   3.386   1.391   3.364  0.3172 -0.1207  0.3027
11437SOL    HW146036   3.430   1.458   3.415 -0.7362  0.5523  0.3509
11437SOL    HW246037   3.373   1.431   3.278 -1.1969  0.1192  0.6258
11438SOL     OW46038   3.143   7.965   7.202  0.2527 -0.1464  0.3737
11438SOL    HW146039   3.211   7.906   7.234 -0.0417 -0.8184 -0.2143
11438SOL    HW246040   3.081   7.973   7.275  1.6289  1.5908  1.4403
11439SOL     OW46041   5.750  10.966  13.631  0.0496  0.7984  0.0107
11439SOL    HW146042   5.758  10.877  13.597 -2.2181  0.7020 -0.4217
11439SOL    HW246043   5.670  10.965  13.683 -0.2916  2.7037 -0.3985
11440SOL     OW46044   5.085   8.940   5.442 -0.7129  0.6586 -0.2444
11440SOL    HW146045   5.061   8.848   5.443 -0.1344  0.4534  2.4796
11440SOL    HW246046   5.023   8.982   5.502 -0.0710  1.7688 -0.3233
11441SOL     OW46047   5.613   2.172   3.466 -0.3512  0.5782 -0.5106
11441SOL    HW146048   5.637   2.209   3.551 -0.5764 -0.1319 -0.1402
11441SOL    HW246049   5.697   2.159   3.422 -0.0179 -1.4396  0.6006
11442SOL     OW46050   8.956  12.846  12.182  0.7043  0.3098 -0.5241
11442SOL    HW146051   9.033  12.790  12.168  0.6234 -0.2586  1.0587
11442SOL    HW246052   8.977  12.896  12.261 -0.5387  0.1435 -0.0682
11443SOL     OW46053  10.183   9.473  10.211 -0.3110  0.3033 -0.2631
11443SOL    HW146054  10.161   9.557  10.171  1.0837  0.7987 -0.0501
11443SOL    HW246055  10.265   9.489  10.257 -0.1845 -1.1049  0.0551
11444SOL     OW46056   7.172   0.949   5.738  0.0870  0.0009 -0.4628
11444SOL    HW146057   7.152   0.987   5.824  0.3595  0.7679 -0.7341
11444SOL    HW246058   7.254   0.901   5.751 -0.7473 -1.3364  0.1177
11445SOL     OW46059  12.249   7.484   6.079 -0.0665 -0.0028  0.2482
11445SOL    HW146060  12.293   7.483   6.164 -2.6933 -1.9989  1.7463
11445SOL    HW246061  12.170   7.537   6.094  0.1631  0.8702 -1.4216
11446SOL     OW46062   5.790   7.192   8.130 -0.3827  0.1409  0.0795
11446SOL    HW146063   5.740   7.170   8.208  0.8275  2.7750  1.7478
11446SOL    HW246064   5.724   7.210   8.063 -1.4878 -0.6193  0.9352
11447SOL     OW46065   8.163   0.306  10.682 -0.2115  0.7498 -0.0498
11447SOL    HW146066   8.180   0.213  10.700 -0.7744  0.5638 -0.4416
11447SOL    HW246067   8.178   0.350  10.766 -1.9916  0.0195  0.6873
11448SOL     OW46068   8.305   4.550   6.164 -0.1376 -0.6790  0.0093
11448SOL    HW146069   8.289   4.640   6.194 -1.5697 -1.3544  1.4439
11448SOL    HW246070   8.345   4.507   6.240 -0.4905 -1.5330 -0.2853
11449SOL     OW46071   4.014  12.564  13.204  0.2757  0.2174  0.2414
11449SOL    HW146072   3.947  12.511  13.161 -0.1195  2.2163 -1.7436
11449SOL    HW246073   4.013  12.533  13.295 -2.6504 -0.5201  0.0734
11450SOL     OW46074   0.851   4.466   2.017 -0.1310 -0.0190 -0.2716
11450SOL    HW146075   0.870   4.517   2.095 -0.7122 -0.5400  0.2173
11450SOL    HW246076   0.777   4.512   1.976 -1.7020 -1.2720  0.9936
11451SOL     OW46077   2.714  12.962   2.169 -0.0386 -0.7657 -0.0979
11451SOL    HW146078   2.629  12.954   2.213  0.0304  2.4225  0.8833
11451SOL    HW246079   2.692  12.965   2.076 -1.0496  0.1827  0.1531
11452SOL     OW46080   0.420  10.047   3.724  0.8560 -0.5159  0.0567
11452SOL    HW146081   0.410  10.023   3.816  3.1606  1.5316  0.9451
11452SOL    HW246082   0.504  10.008   3.698 -0.2403 -1.9706 -1.5822
11453SOL     OW46083   0.995   7.173   7.836 -0.1721 -0.0531 -0.4254
11453SOL    HW146084   1.013   7.238   7.768  2.4191  1.0924  1.2138
11453SOL    HW246085   1.002   7.221   7.918 -1.8328 -1.6919  0.7681
11454SOL     OW46086   9.268   1.355   8.651 -0.3295 -0.7676 -0.0733
11454SOL    HW146087   9.300   1.279   8.700  1.1982 -0.3134 -0.3248
11454SOL    HW246088   9.318   1.354   8.570 -0.5946  0.2573 -0.2638
11455SOL     OW46089   3.132  12.256   1.531  0.6521 -0.1987  0.2908
11455SOL    HW146090   3.119  12.166   1.558 -0.2067  0.4040  2.0149
11455SOL    HW246091   3.066  12.306   1.579  0.5137  1.2474 -1.2955
11456SOL     OW46092  12.416  13.207  10.645  0.2391 -0.2450  0.3680
11456SOL    HW146093  12.511  13.195  10.648  0.2878 -0.0431 -0.1902
11456SOL    HW246094  12.400  13.281  10.703  0.5461  0.3585 -0.2912
11457SOL     OW46095   4.436   8.185   4.898 -0.3580  0.2273 -0.5001
11457SOL    HW146096   4.359   8.149   4.942 -0.9251  1.8115 -0.1270
11457SOL    HW246097   4.409   8.195   4.807  0.5347 -2.2422 -1.1351
11458SOL     OW46098  10.658   7.567   1.162 -0.0925 -0.2424  0.2772
11458SOL    HW146099  10.679   7.622   1.087  1.2020  0.4584  1.1270
11458SOL    HW246100  10.562   7.569   1.167 -0.1210  0.9729 -0.4024
11459SOL     OW46101   6.824   6.931   2.667  0.2402 -0.3865 -0.1744
11459SOL    HW146102   6.746   6.902   2.714 -0.5438 -0.9986 -1.7784
11459SOL    HW246103   6.817   6.889   2.581  2.1606 -0.1591 -0.4808
11460SOL     OW46104   7.798   0.871  13.462 -0.3691  0.0964 -0.7886
11460SOL    HW146105   7.878   0.853  13.412  2.9537  2.8147  2.9579
11460SOL    HW246106   7.776   0.962  13.440 -0.1480  0.5870  0.8811
11461SOL     OW46107   6.257   5.492   4.892 -0.2595 -0.2035 -0.3544
11461SOL    HW146108   6.258   5.399   4.870 -0.6293  0.0668 -1.5849
11461SOL    HW246109   6.268   5.494   4.987 -1.4351 -1.5432 -0.1630
11462SOL     OW46110  10.730   0.516   4.968 -0.5555  0.1002 -0.3536
11462SOL    HW146111  10.639   0.534   4.944 -0.3475  1.3309 -0.2519
11462SOL    HW246112  10.735   0.420   4.968 -2.0809 -0.0198  0.5453
11463SOL     OW46113  10.349   6.409   9.253 -0.4494 -0.4984  0.0632
11463SOL    HW146114  10.363   6.359   9.172  0.8539  0.2179 -0.1819
11463SOL    HW246115  10.341   6.500   9.223 -0.4882 -0.2933  0.6959
11464SOL     OW46116   5.968   5.808   8.700 -0.6967 -0.4671  0.1103
11464SOL    HW146117   5.954   5.880   8.762  0.5999 -0.5403  0.5117
11464SOL    HW246118   5.884   5.799   8.655 -0.4518  2.4446 -1.1562
11465SOL     OW46119   5.931  11.932   2.044  0.8083  0.1080 -0.2536
11465SOL    HW146120   5.952  11.850   2.000 -1.4208 -0.3301 -0.6216
11465SOL    HW246121   5.864  11.972   1.990  0.5597  1.3077  0.8747
11466SOL     OW46122   3.144   4.533   8.762  0.1264 -0.1865 -0.1809
11466SOL    HW146123   3.161   4.475   8.837 -1.7139  0.9412  1.1916
11466SOL    HW246124   3.051   4.552   8.767  0.5819  2.5834 -0.7760
11467SOL     OW46125  10.166  11.522   8.416  0.2892  0.0679 -0.3189
11467SOL    HW146126  10.256  11.547   8.396  0.3488  2.4918  2.3063
11467SOL    HW246127  10.113  11.574   8.355  0.6343  2.0157  0.9434
11468SOL     OW46128   9.818   2.634  11.189 -0.0900 -0.1983  0.5955
11468SOL    HW146129   9.860   2.625  11.275 -0.1319  2.8607  1.0781
11468SOL    HW246130   9.795   2.545  11.164 -0.8589 -1.1636  4.1357
11469SOL     OW46131   0.005  13.584  13.493 -0.2499  0.0905 -0.1259
11469SOL    HW146132  -0.042  13.664  13.470 -0.8488 -0.4162 -0.6977
11469SOL    HW246133  -0.016  13.523  13.422 -1.2190 -1.1558  1.1767
11470SOL     OW46134   3.006   5.866   7.261  0.0086  0.3378  0.5731
11470SOL    HW146135   3.048   5.941   7.304  1.6733 -0.4447  0.3701
11470SOL    HW246136   3.074   5.800   7.255 -0.2019  0.2576 -3.0387
11471SOL     OW46137  11.385  10.670  11.185  0.2112  0.1255 -0.6574
11471SOL    HW146138  11.440  10.612  11.133  0.1562 -1.4314  0.9164
11471SOL    HW246139  11.444  10.709  11.249 -0.2811 -0.5602  0.2251
11472SOL     OW46140   5.174  11.927   2.711  0.0894  0.2240 -0.3516
11472SOL    HW146141   5.191  11.902   2.802 -1.3371 -2.5457 -0.7430
11472SOL    HW246142   5.237  11.876   2.661 -1.0110 -0.4903 -1.0446
11473SOL     OW46143  10.714   8.354   2.044  0.2475  0.4329  0.1616
11473SOL    HW146144  10.646   8.286   2.038 -0.2768  1.0104 -0.5277
11473SOL    HW246145  10.670   8.429   2.082  0.3468  1.0116 -0.8478
11474SOL     OW46146   9.000  12.078  11.570  0.5525 -0.4590  0.2098
11474SOL    HW146147   8.971  12.145  11.509  2.1170  0.7028  0.6609
11474SOL    HW246148   8.992  11.996  11.522 -2.7704 -0.2077  0.1157
11475SOL     OW46149   1.124   8.332  12.483  0.1358 -0.0301 -0.3967
11475SOL    HW146150   1.123   8.359  12.391  0.6244  0.4308 -0.2690
11475SOL    HW246151   1.102   8.411  12.532  0.7162 -0.0677 -0.0682
11476SOL     OW46152   5.260  11.360  13.676 -0.5208 -0.1394 -0.3947
11476SOL    HW146153   5.178  11.399  13.646 -0.5443 -1.2362 -1.8898
11476SOL    HW246154   5.323  11.431  13.672 -1.7819  1.4361  3.1800
11477SOL     OW46155   3.917   0.650   2.771  0.2057 -0.4242 -0.8819
11477SOL    HW146156   3.871   0.630   2.853  1.2145 -0.2217 -0.2446
11477SOL    HW246157   3.859   0.616   2.702  0.9043 -3.8662  0.0159
11478SOL     OW46158   2.160   3.517  13.218  0.1221  0.2357  0.6255
11478SOL    HW146159   2.206   3.549  13.295 -0.4494 -1.6558  1.8179
11478SOL    HW246160   2.102   3.589  13.193  0.6157  1.0372  1.7054
11479SOL     OW46161   3.651   3.628   5.208  0.1982 -0.4519  0.4103
11479SOL    HW146162   3.649   3.597   5.298 -1.8670  0.4095  0.7376
11479SOL    HW246163   3.629   3.721   5.214 -0.9574 -0.5858 -1.0169
11480SOL     OW46164  12.447   9.045  13.474  0.3992 -0.2093  0.4336
11480SOL    HW146165  12.471   9.130  13.511  0.0474  0.0192  0.1505
11480SOL    HW246166  12.522   9.019  13.421  0.5526 -0.1236  0.6126
11481SOL     OW46167  11.266   6.577   8.123  0.1430 -0.2736  0.6124
11481SOL    HW146168  11.328   6.510   8.093  0.8393  0.7951 -0.4282
11481SOL    HW246169  11.232   6.543   8.206  1.5905 -1.2246  0.8503
11482SOL     OW46170   2.222  11.647   5.604 -0.1025  0.1476  0.1515
11482SOL    HW146171   2.189  11.724   5.652  1.7351  0.8486  0.3868
11482SOL    HW246172   2.241  11.680   5.516 -0.4703 -0.3488 -0.1152
11483SOL     OW46173   0.829   6.820  11.331  0.4461 -0.1468  0.2078
11483SOL    HW146174   0.888   6.783  11.396  1.8309 -1.8874 -1.8871
11483SOL    HW246175   0.877   6.894  11.294  1.2641 -1.3341 -1.2336
11484SOL     OW46176   3.753  13.341  13.345 -0.2779  0.2181 -0.3513
11484SOL    HW146177   3.690  13.412  13.339  0.8847  1.1488 -2.4737
11484SOL    HW246178   3.826  13.368  13.290  1.5940 -1.2476  1.2576
11485SOL     OW46179   6.716  10.778   9.884 -0.0006 -0.1851  0.0860
11485SOL    HW146180   6.801  10.797   9.924 -1.0914  1.0990  1.9473
11485SOL    HW246181   6.684  10.701   9.932 -0.1731 -0.2886 -0.1928
11486SOL     OW46182   3.902   3.623   8.556  0.3483 -0.0111 -0.2117
11486SOL    HW146183   3.937   3.544   8.515 -0.0379 -0.8639  1.0094
11486SOL    HW246184   3.881   3.681   8.484 -0.1735 -1.3863 -1.2044
11487SOL     OW46185   1.212   0.669  12.831 -0.0181  0.3563 -0.2186
11487SOL    HW146186   1.302   0.637  12.826  0.2190  0.8596  0.5675
11487SOL    HW246187   1.217   0.746  12.889 -0.9764  0.3014 -0.0437
11488SOL     OW46188   3.801  10.751   0.852 -0.0520 -0.0988 -0.0576
11488SOL    HW146189   3.826  10.802   0.775 -1.7572  3.1031  1.3303
11488SOL    HW246190   3.873  10.765   0.914  0.6448 -1.5200 -0.4933
11489SOL     OW46191   6.463  13.090   2.660 -0.2830 -0.3927  0.4136
11489SOL    HW146192   6.487  13.149   2.732 -1.1977 -0.3882  0.7299
11489SOL    HW246193   6.521  13.014   2.671  1.3574  0.6860 -0.3761
11490SOL     OW46194   3.348   6.056   8.046 -0.4062 -0.5380 -0.1112
11490SOL    HW146195   3.313   5.983   8.096 -1.0450 -0.1243  0.0707
11490SOL    HW246196   3.441   6.038   8.037 -0.0788 -0.1967  1.9996
11491SOL     OW46197   3.822  12.178  11.467 -1.1092 -0.1781  0.3467
11491SOL    HW146198   3.807  12.099  11.415  0.4432  0.1548 -0.6659
11491SOL    HW246199   3.908  12.208  11.440 -1.3318  1.4245  1.3181
11492SOL     OW46200  12.831   8.127   4.280 -0.1463 -0.1463  0.1691
11492SOL    HW146201  12.856   8.177   4.357 -2.7018  0.7623  0.4904
11492SOL    HW246202  12.907   8.071   4.262  0.9557  0.4331  2.6304
11493SOL     OW46203   6.736   0.637  13.662  0.8423  0.1382  0.1967
11493SOL    HW146204   6.760   0.656  13.753  0.8537 -1.1378  0.4734
11493SOL    HW246205   6.667   0.571  13.668  0.1865  0.7125 -0.7126
11494SOL     OW46206   3.923   0.236   3.895 -0.7095  0.5511  0.1010
11494SOL    HW146207   3.852   0.258   3.955 -1.2658  1.3335 -0.8174
11494SOL    HW246208   3.893   0.159   3.848  0.3719 -1.0379  1.8514
11495SOL     OW46209   3.705   3.965  10.297  0.2286  0.3450 -0.3697
11495SOL    HW146210   3.688   4.040  10.353 -0.3067  1.2998 -1.7567
11495SOL    HW246211   3.801   3.962  10.290  0.3318 -0.0966  0.9538
11496SOL     OW46212   7.645   2.648   0.442 -0.7376  0.5704 -0.0658
11496SOL    HW146213   7.608   2.560   0.447  0.4295  0.0270 -0.4998
11496SOL    HW246214   7.583   2.697   0.388 -2.3980  0.5870  1.7702
11497SOL     OW46215   7.307   8.097   7.445 -0.1330 -0.1499  0.1202
11497SOL    HW146216   7.402   8.099   7.434 -0.2163  0.9985 -0.5641
11497SOL    HW246217   7.293   8.053   7.528  0.9675 -0.9188 -0.0876
11498SOL     OW46218  12.283   1.358   0.598 -0.3136 -0.0995 -0.7818
11498SOL    HW146219  12.373   1.344   0.628 -0.6748  1.0680  1.0220
11498SOL    HW246220  12.235   1.282   0.628 -0.9802  1.6845  3.2554
11499SOL     OW46221   2.910  12.751   7.509  0.3193 -0.6471  0.5258
11499SOL    HW146222   2.931  12.746   7.415  0.7090  0.3969  0.5464
11499SOL    HW246223   2.995  12.746   7.553  0.4043  1.4764  0.6985
11500SOL     OW46224  11.108   7.529   4.650 -0.4537 -0.3526 -0.6204
11500SOL    HW146225  11.202   7.523   4.634 -0.5299  2.1415 -2.7371
11500SOL    HW246226  11.068   7.513   4.565 -1.6670  2.2628 -0.6298
11501SOL     OW46227   2.767   3.810  10.930 -0.1194 -0.3754  0.1637
11501SOL    HW146228   2.704   3.873  10.895 -1.9043 -3.1483 -2.0894
11501SOL    HW246229   2.734   3.789  11.018 -1.0937 -0.2025 -0.1516
11502SOL     OW46230  13.559   2.139   4.559 -0.4302  0.3424 -0.2560
11502SOL    HW146231  13.489   2.127   4.623 -0.3750 -2.0361 -0.5421
11502SOL    HW246232  13.610   2.213   4.593 -2.1467  1.0998  0.7857
11503SOL     OW46233  12.345   0.752   2.550  0.0174 -0.3896 -0.5030
11503SOL    HW146234  12.424   0.730   2.599  0.1739  1.2940  0.0569
11503SOL    HW246235  12.314   0.834   2.588 -1.8793 -0.8671 -0.8761
11504SOL     OW46236   0.160  10.051  10.194 -0.8165  0.2240  0.3755
11504SOL    HW146237   0.185  10.026  10.105  0.8508  0.8955  0.6084
11504SOL    HW246238   0.097   9.984  10.221 -2.0432  0.5136 -1.6042
11505SOL     OW46239   4.993   3.348   7.213 -0.5150  0.3273  0.3470
11505SOL    HW146240   5.032   3.425   7.255 -0.8279 -0.9554  3.1856
11505SOL    HW246241   5.018   3.357   7.120  0.6159  3.0914  0.8104
11506SOL     OW46242  10.813   3.064   4.864 -0.2435  0.2964  0.2449
11506SOL    HW146243  10.725   3.031   4.877  0.1119 -0.5705  0.5116
11506SOL    HW246244  10.803   3.138   4.803 -1.0194 -0.4907 -0.6107
11507SOL     OW46245   2.130  13.172  10.625 -0.0106 -0.0727 -0.7072
11507SOL    HW146246   2.132  13.264  10.597 -0.8350 -0.1285 -0.9812
11507SOL    HW246247   2.220  13.152  10.649  0.5734  0.2350 -2.5179
11508SOL     OW46248   4.865   5.120   6.311  0.7870 -0.5784  0.5034
11508SOL    HW146249   4.902   5.129   6.223  1.5942  0.2958  0.9094
11508SOL    HW246250   4.770   5.124   6.298  0.9129  1.4402 -0.1712
11509SOL     OW46251   2.118   2.981   7.151 -0.3415 -0.3950  0.4206
11509SOL    HW146252   2.166   2.928   7.087 -0.0502  0.3991 -0.0361
11509SOL    HW246253   2.147   2.948   7.236  0.1234 -0.7133  0.1435
11510SOL     OW46254   8.639   6.442   0.095  0.7327  0.0487 -0.0699
11510SOL    HW146255   8.643   6.395   0.012  1.2992 -3.8377  1.9382
11510SOL    HW246256   8.545   6.444   0.116  0.4574  2.1005 -1.2269
11511SOL     OW46257  11.835   3.321   4.070  0.2991 -0.4717 -0.3058
11511SOL    HW146258  11.804   3.409   4.090 -1.0297 -0.6975 -1.2078
11511SOL    HW246259  11.797   3.301   3.984 -0.9733 -2.5822  0.6489
11512SOL     OW46260   0.234   9.182   1.891  0.2715  0.4780 -0.4982
11512SOL    HW146261   0.154   9.229   1.868 -0.7298 -0.6772  0.4656
11512SOL    HW246262   0.204   9.107   1.942  1.9098 -0.4752 -0.8598
11513SOL     OW46263   3.729   2.137   0.186  0.0107  0.2759  0.1802
11513SOL    HW146264   3.634   2.128   0.176 -0.1135  1.4038  0.2182
11513SOL    HW246265   3.765   2.089   0.111 -0.6334  0.9722 -0.5932
11514SOL     OW46266  13.675   9.142   2.237  0.3722 -0.2602  0.5701
11514SOL    HW146267  13.642   9.191   2.162 -0.6696 -0.6065  0.7808
11514SOL    HW246268  13.763   9.175   2.250  0.5272 -0.0866 -0.7159
11515SOL     OW46269   0.680  10.930   5.961  0.4443 -0.1643  0.2524
11515SOL    HW146270   0.617  10.876   6.008 -1.2558 -0.9472 -2.6575
11515SOL    HW246271   0.635  11.012   5.945  0.2329 -0.5760 -1.4912
11516SOL     OW46272   6.463  12.777  11.652 -0.2260  0.4237  0.1019
11516SOL    HW146273   6.395  12.727  11.608 -0.3455  1.5953 -1.1370
11516SOL    HW246274   6.529  12.792  11.585  0.4064  0.8317  0.7919
11517SOL     OW46275   1.591  10.421   7.446  0.8685 -0.6936  0.4828
11517SOL    HW146276   1.629  10.486   7.387  0.4580 -1.7590 -1.0075
11517SOL    HW246277   1.663  10.361   7.467  1.0479 -0.2384  1.2035
11518SOL     OW46278   7.227   2.271   6.963  0.2913  0.2448  0.6257
11518SOL    HW146279   7.317   2.274   6.932 -0.0554  0.2697 -0.4246
11518SOL    HW246280   7.175   2.258   6.884 -0.6618  0.6450  1.1686
11519SOL     OW46281   7.206   9.961   1.438  0.3825 -0.0816  0.0583
11519SOL    HW146282   7.158   9.985   1.517  0.4983  1.7616 -0.3864
11519SOL    HW246283   7.158   9.887   1.402 -0.4371 -0.0988  1.1459
11520SOL     OW46284   3.972   8.377   0.980 -0.3554  0.4276  0.3182
11520SOL    HW146285   4.004   8.309   0.921 -0.2680 -0.1974  1.0761
11520SOL    HW246286   4.039   8.446   0.975 -0.1535  0.2074 -0.0090
11521SOL     OW46287   7.842  10.395   0.787  0.5381 -0.3023 -0.0833
11521SOL    HW146288   7.911  10.353   0.837  0.2752 -0.8852 -0.1967
11521SOL    HW246289   7.876  10.400   0.697  1.7239  2.3131  0.4113
11522SOL     OW46290   4.259   7.169   9.876  0.0394 -0.3915  0.0952
11522SOL    HW146291   4.204   7.199   9.803  1.3569  0.9141 -0.4148
11522SOL    HW246292   4.197   7.148   9.946 -1.1300  0.8968 -0.5073
11523SOL     OW46293   9.057  11.990  13.743  0.0845  0.0613  0.3385
11523SOL    HW146294   9.124  11.932  13.706  1.1442  1.3263  0.2037
11523SOL    HW246295   8.981  11.979  13.686  1.6338  1.9181 -2.3113
11524SOL     OW46296   8.286  10.703  10.539  0.1391  0.2045  0.4299
11524SOL    HW146297   8.285  10.629  10.478  2.8629 -1.3599  2.1146
11524SOL    HW246298   8.304  10.779  10.483 -0.7556 -0.6313 -1.0874
11525SOL     OW46299  11.984   1.655   4.997 -0.0078 -0.6998  0.1566
11525SOL    HW146300  12.008   1.567   5.027  0.9956 -0.5765 -0.2347
11525SOL    HW246301  12.066   1.691   4.961 -0.2638  0.6242  0.8541
11526SOL     OW46302   5.116   0.061   9.327  0.0642  0.3719  0.5001
11526SOL    HW146303   5.105   0.026   9.415  1.0547  1.0839  0.9329
11526SOL    HW246304   5.100   0.155   9.336 -0.7698  0.3129 -0.2758
11527SOL     OW46305   6.637  12.614  11.238  0.6802  0.5006 -0.0853
11527SOL    HW146306   6.670  12.602  11.149 -0.2317 -0.6515 -0.2873
11527SOL    HW246307   6.545  12.639  11.227  0.2630 -0.6802  0.5306
11528SOL     OW46308  11.579   1.215   2.604  0.2416 -0.3615 -0.0412
11528SOL    HW146309  11.554   1.151   2.537 -0.0694  0.0335 -0.3041
11528SOL    HW246310  11.507   1.214   2.666  1.0239 -1.5449  0.9070
11529SOL     OW46311   5.091   6.930  10.103  0.4020  0.6359 -0.1412
11529SOL    HW146312   5.159   6.906  10.039 -0.6850 -1.5899 -0.5760
11529SOL    HW246313   5.035   6.992  10.056  1.8043  2.1014  0.0493
11530SOL     OW46314   3.970  11.273   6.884  0.1547 -0.0153  0.2310
11530SOL    HW146315   3.901  11.339   6.883  0.8056  0.6940  1.1189
11530SOL    HW246316   4.043  11.313   6.837  0.4258 -0.2356  0.4559
11531SOL     OW46317  12.174  11.646   9.156  0.3067 -0.2071  0.3420
11531SOL    HW146318  12.155  11.739   9.140 -0.4854 -0.1906  1.2753
11531SOL    HW246319  12.104  11.600   9.109  0.6805 -0.3421 -0.0927
11532SOL     OW46320  10.276   7.609   6.176 -0.2168  0.0118 -0.1243
11532SOL    HW146321  10.244   7.589   6.264  1.8104  1.7673  1.1198
11532SOL    HW246322  10.250   7.700   6.162  2.6171  0.9960  0.3007
11533SOL     OW46323  11.747  11.710   2.095  0.0274 -0.6111 -0.2479
11533SOL    HW146324  11.687  11.640   2.121 -2.4542  1.3361 -0.3323
11533SOL    HW246325  11.743  11.712   2.000  1.2301 -1.2445 -0.3302
11534SOL     OW46326   8.265  10.459   3.837 -0.3552  0.9729 -0.1382
11534SOL    HW146327   8.216  10.505   3.905  0.8407  0.8174  0.8757
11534SOL    HW246328   8.277  10.524   3.767  0.0194  1.7426  0.6276
11535SOL     OW46329   4.449   9.368  10.262  0.5298  0.3018  0.6415
11535SOL    HW146330   4.354   9.364  10.255  0.6594 -0.4740 -1.6530
11535SOL    HW246331   4.474   9.280  10.293  0.5434  0.1897  0.3162
11536SOL     OW46332   6.795   3.789   8.611  0.2498  0.3744 -0.1307
11536SOL    HW146333   6.774   3.882   8.606  1.0456  0.5740  0.0943
11536SOL    HW246334   6.852   3.773   8.535 -1.8673 -0.4945 -1.6299
11537SOL     OW46335   5.324   9.248  10.994 -0.2914  0.1168 -0.0147
11537SOL    HW146336   5.394   9.194  10.956 -0.2420 -0.8394  1.3959
11537SOL    HW246337   5.275   9.188  11.050 -1.8233  0.9492 -0.4229
11538SOL     OW46338   1.343   3.735   4.908 -0.5954  0.1195  0.1871
11538SOL    HW146339   1.341   3.743   5.003 -2.0657 -0.9246  0.2782
11538SOL    HW246340   1.350   3.825   4.876  1.7813  0.3904  1.2554
11539SOL     OW46341  10.257   2.604   2.267 -0.1641 -0.0158 -0.4548
11539SOL    HW146342  10.163   2.604   2.283 -0.2250  2.3927 -0.4408
11539SOL    HW246343  10.267   2.619   2.173  0.2381 -1.0468 -0.5972
11540SOL     OW46344   7.146   4.074   9.556  0.3749 -0.3772 -0.2331
11540SOL    HW146345   7.222   4.121   9.522 -0.0822  0.8118  0.3094
11540SOL    HW246346   7.131   4.114   9.642 -1.8066  0.5582 -0.9818
11541SOL     OW46347  11.969   7.367   0.400  0.0328 -0.2912  0.1586
11541SOL    HW146348  11.940   7.351   0.311 -0.1221  2.3106 -0.3219
11541SOL    HW246349  12.064   7.354   0.398  0.4467  2.3115 -1.1214
11542SOL     OW46350   7.904  12.757   8.340 -0.3264  0.4385  0.3145
11542SOL    HW146351   7.873  12.713   8.261  2.3869  0.1506 -0.6591
11542SOL    HW246352   7.876  12.848   8.329 -0.8429  0.1941 -0.4870
11543SOL     OW46353   6.377   9.223  10.631  0.2569  0.0347  0.2009
11543SOL    HW146354   6.371   9.249  10.723  1.9996 -0.1465  0.4055
11543SOL    HW246355   6.454   9.165  10.628  0.0310 -0.2189 -1.3104
11544SOL     OW46356   5.413  11.261  13.351 -0.4131 -0.7040  0.2951
11544SOL    HW146357   5.375  11.190  13.402 -1.0237  0.0231  0.8676
11544SOL    HW246358   5.415  11.228  13.261 -2.8496 -0.5928  0.1526
11545SOL     OW46359   6.103   0.353  12.033  0.1988  0.7342 -0.1959
11545SOL    HW146360   6.061   0.267  12.036 -0.6647  1.1381 -0.4636
11545SOL    HW246361   6.049   0.408  12.089  0.4970  1.2157 -0.3753
11546SOL     OW46362  10.201  10.728  11.082 -0.0685 -0.2930  0.0650
11546SOL    HW146363  10.182  10.785  11.007  1.0294  0.5227  0.3765
11546SOL    HW246364  10.296  10.733  11.092  0.4463 -3.9446 -1.2760
11547SOL     OW46365   6.490   2.699  10.281  0.5140 -0.3372 -0.2135
11547SOL    HW146366   6.548   2.671  10.210 -0.2862  0.4957 -1.2440
11547SOL    HW246367   6.549   2.730  10.350  1.3094 -0.1560 -0.9596
11548SOL     OW46368   8.237   2.760   0.597 -0.8858 -0.6015  0.4730
11548SOL    HW146369   8.212   2.685   0.651  1.4484 -1.1268  0.9449
11548SOL    HW246370   8.332   2.766   0.606 -1.0238  3.1556  1.4161
11549SOL     OW46371   9.188   8.806   9.851 -0.5237  0.3327  0.3436
11549SOL    HW146372   9.251   8.815   9.923 -0.0028  2.4257 -0.3049
11549SOL    HW246373   9.239   8.771   9.778  0.2084  2.8295 -0.4466
11550SOL     OW46374   0.069   9.134  10.109  0.2020 -0.4427  0.3365
11550SOL    HW146375   0.047   9.194  10.039 -0.7535  0.2798  1.2273
11550SOL    HW246376   0.011   9.059  10.096  1.6024 -1.3501 -0.9506
11551SOL     OW46377  10.197   1.050   5.755  0.3080 -0.1851  0.2075
11551SOL    HW146378  10.249   1.106   5.812 -0.0432  0.4984 -0.1402
11551SOL    HW246379  10.110   1.047   5.796  0.0503  0.3218 -0.3017
11552SOL     OW46380   2.681   3.972   0.419 -0.1843 -0.2293  0.2810
11552SOL    HW146381   2.745   3.900   0.416  0.4705  0.2831  1.2139
11552SOL    HW246382   2.672   4.000   0.328  1.7556  0.3752  0.2140
11553SOL     OW46383   3.075   3.465   6.436 -0.9179 -0.1332  0.0938
11553SOL    HW146384   3.024   3.453   6.355  0.8432 -2.1586 -0.8077
11553SOL    HW246385   3.032   3.408   6.500 -0.3535 -1.1411 -0.4068
11554SOL     OW46386   5.010   8.862   3.968  0.3246 -0.3083  0.6618
11554SOL    HW146387   5.064   8.787   3.945  2.2107  0.9938  0.6375
11554SOL    HW246388   4.926   8.824   3.995  0.5228 -2.2945 -1.2298
11555SOL     OW46389  12.103   2.199   7.318 -0.1510  0.1224  0.2757
11555SOL    HW146390  12.015   2.232   7.302 -0.0278 -0.3601 -1.6756
11555SOL    HW246391  12.147   2.207   7.233  0.6081 -2.8227  0.2796
11556SOL     OW46392  11.711   4.695  13.340 -0.4071 -0.0297 -0.2783
11556SOL    HW146393  11.723   4.788  13.320 -2.8364  0.5760  0.6944
11556SOL    HW246394  11.618   4.678  13.321 -0.2664 -2.0073  0.5476
11557SOL     OW46395  13.643   8.767   1.270  0.2110 -0.6998  0.0180
11557SOL    HW146396  13.559   8.791   1.229  1.1726 -0.6323 -2.0581
11557SOL    HW246397  13.670   8.846   1.317 -0.1769 -0.2102 -0.5624
11558SOL     OW46398  12.105   7.930   4.428 -0.6221  0.1543 -0.4700
11558SOL    HW146399  12.122   7.841   4.396 -0.9610  0.0392 -0.3420
11558SOL    HW246400  12.025   7.921   4.480  0.8936 -0.0400  2.0028
11559SOL     OW46401   9.185  12.738   1.106  0.1621  0.2375 -0.0593
11559SOL    HW146402   9.186  12.784   1.190  2.6055  0.9348 -0.4064
11559SOL    HW246403   9.193  12.646   1.129  1.7574  0.4897  0.4736
11560SOL     OW46404   7.391   7.624   4.678 -0.3427 -0.3011  0.7286
11560SOL    HW146405   7.341   7.572   4.615 -1.1695  1.4084 -0.0674
11560SOL    HW246406   7.384   7.714   4.647 -2.6274  1.0108  4.3637
11561SOL     OW46407   0.177   7.458   3.607 -0.8831 -0.3514  0.2005
11561SOL    HW146408   0.238   7.520   3.565 -0.1409 -1.0415  0.2201
11561SOL    HW246409   0.170   7.488   3.697 -1.9733  0.7626 -0.2358
11562SOL     OW46410   4.203   4.998   7.554 -0.0297  0.1065 -0.8410
11562SOL    HW146411   4.115   5.016   7.520 -0.3431 -1.0971 -0.6870
11562SOL    HW246412   4.258   4.991   7.476 -0.4139 -0.8840 -1.0367
11563SOL     OW46413  12.781   9.429   7.304  0.0322 -0.7370  0.1458
11563SOL    HW146414  12.843   9.358   7.289  1.9704  1.1627 -1.3845
11563SOL    HW246415  12.835   9.502   7.334 -1.9005  0.1643  1.6749
11564SOL     OW46416   3.211   5.097   4.491  0.0763  0.1836  0.4402
11564SOL    HW146417   3.295   5.088   4.446 -0.0180  0.9667  0.0942
11564SOL    HW246418   3.205   5.190   4.512 -0.3015 -0.0227  1.2683
11565SOL     OW46419  11.803   8.570   6.133 -0.5714 -0.0975  0.1993
11565SOL    HW146420  11.860   8.638   6.169 -0.9733  0.5474 -0.3531
11565SOL    HW246421  11.841   8.488   6.163  1.4742  0.2221 -1.3191
11566SOL     OW46422   3.185   3.792   7.747 -0.2141 -0.3335  0.0441
11566SOL    HW146423   3.253   3.860   7.750  1.7008 -2.1464  0.5994
11566SOL    HW246424   3.200   3.747   7.663 -2.0545  0.4548 -0.7505
11567SOL     OW46425  12.916   0.696  12.532 -0.5483 -0.4222  0.0534
11567SOL    HW146426  12.843   0.740  12.575 -0.2374  0.3416 -0.1771
11567SOL    HW246427  12.994   0.738  12.569 -0.2587 -0.3742 -0.5934
11568SOL     OW46428   1.272  11.250  10.602  0.0591 -0.7214 -0.2713
11568SOL    HW146429   1.331  11.176  10.592  1.3411  0.0224  1.3301
11568SOL    HW246430   1.188  11.218  10.569  1.3187 -1.7777 -2.6996
11569SOL     OW46431   3.292   1.814  10.037  0.1349  0.0123 -0.5267
11569SOL    HW146432   3.269   1.721  10.045  0.6610  0.0266  1.8222
11569SOL    HW246433   3.380   1.814  10.000  0.3143 -0.4739 -0.1216
11570SOL     OW46434   5.566   0.309  12.262 -0.4773  0.1322 -0.5884
11570SOL    HW146435   5.560   0.226  12.214  0.6206 -0.0933 -0.3702
11570SOL    HW246436   5.607   0.286  12.345 -0.9818  0.7612 -0.1551
11571SOL     OW46437   6.860  10.548   7.238 -0.2518 -0.2560  0.3052
11571SOL    HW146438   6.900  10.481   7.294  2.3116  1.7949  1.1646
11571SOL    HW246439   6.852  10.625   7.295 -1.0066  0.8201 -1.1839
11572SOL     OW46440  11.979   2.600   4.645  0.2832 -0.3442  0.2597
11572SOL    HW146441  12.013   2.514   4.668 -0.0408 -0.3525  0.6978
11572SOL    HW246442  11.885   2.595   4.662  0.4040  0.4044  1.2314
11573SOL     OW46443  13.657   3.871   2.549  0.0195  0.7740 -0.2470
11573SOL    HW146444  13.750   3.853   2.540  0.1867 -0.3162  2.5503
11573SOL    HW246445  13.614   3.805   2.494  0.8705  0.2470 -0.2928
11574SOL     OW46446   4.199   8.965   4.709 -0.0299 -0.1636 -0.2596
11574SOL    HW146447   4.257   8.895   4.679 -0.7364 -1.0207  0.3199
11574SOL    HW246448   4.239   9.045   4.675  1.0091 -0.8059 -0.6104
11575SOL     OW46449   0.014   1.335  10.353 -0.7385  0.6655  0.1812
11575SOL    HW146450  -0.010   1.406  10.293  1.4209  0.3552 -1.1847
11575SOL    HW246451   0.107   1.320  10.335 -0.4224 -0.5494  2.5220
11576SOL     OW46452  11.400   1.038   8.731  0.0978  0.1516 -0.4250
11576SOL    HW146453  11.311   1.031   8.698  0.4234 -2.1140 -0.9411
11576SOL    HW246454  11.400   0.987   8.812  1.0769 -0.4672 -0.7948
11577SOL     OW46455   1.536   4.610   0.043  0.5457  0.8910 -0.0868
11577SOL    HW146456   1.494   4.524   0.039 -0.2347  1.2691 -0.2213
11577SOL    HW246457   1.628   4.591   0.056  0.3300  0.0376  0.2526
11578SOL     OW46458   0.142   4.216   9.330  0.5543  0.1420 -0.1135
11578SOL    HW146459   0.063   4.187   9.375  0.9618  1.3735  1.5115
11578SOL    HW246460   0.158   4.304   9.366  1.5304  0.7313 -1.9088
11579SOL     OW46461  12.319   9.529   5.173  0.1206 -0.0033  0.0709
11579SOL    HW146462  12.408   9.558   5.155  0.3991 -0.4772  0.6507
11579SOL    HW246463  12.328   9.440   5.206 -0.7897 -1.1633 -2.5378
11580SOL     OW46464   6.599   7.861   5.094  0.1608  0.1323 -0.1197
11580SOL    HW146465   6.599   7.787   5.154 -2.7541  0.0721 -0.0885
11580SOL    HW246466   6.620   7.936   5.150  0.2517 -0.2784  0.4109
11581SOL     OW46467   8.069  12.131  10.166  0.2605 -0.1442  0.2949
11581SOL    HW146468   8.137  12.135  10.098  0.9546  0.1606  0.9994
11581SOL    HW246469   8.016  12.055  10.142  0.7210 -0.2591 -0.3841
11582SOL     OW46470   8.899   8.279  10.311 -0.2249  0.6121 -0.3051
11582SOL    HW146471   8.864   8.194  10.338  0.6304  0.2311 -0.3569
11582SOL    HW246472   8.857   8.342  10.369 -0.3071  0.0699  0.2335
11583SOL     OW46473   3.759   2.303  11.766 -0.4513  0.0643 -0.1704
11583SOL    HW146474   3.781   2.358  11.690 -0.8175  0.9084  0.3219
11583SOL    HW246475   3.681   2.344  11.803 -0.4951 -0.5665  0.4442
11584SOL     OW46476   3.038   9.966   5.213  0.1118 -0.5938 -0.2414
11584SOL    HW146477   3.120  10.011   5.196 -0.8931  0.1962 -3.7646
11584SOL    HW246478   2.972  10.035   5.218 -0.5300 -1.2689  1.6921
11585SOL     OW46479   1.121   2.213   0.163  0.1223  0.1033 -0.0918
11585SOL    HW146480   1.104   2.171   0.079  0.8942 -0.6443  0.1020
11585SOL    HW246481   1.073   2.159   0.226 -0.1683  0.4522 -0.0152
11586SOL     OW46482  13.729  13.650   5.611  0.1904 -0.3741 -0.1679
11586SOL    HW146483  13.718  13.743   5.590 -0.9992 -0.4473  0.0446
11586SOL    HW246484  13.696  13.642   5.701  0.1854 -1.0145 -0.2215
11587SOL     OW46485   7.568  12.772  10.011 -0.3477  0.4910  0.0036
11587SOL    HW146486   7.599  12.758   9.921  1.1582  1.3984  0.3388
11587SOL    HW246487   7.602  12.697  10.059  0.2800  0.8375  0.1175
11588SOL     OW46488   7.524  13.197   6.335 -0.4659  0.2175 -0.1309
11588SOL    HW146489   7.510  13.281   6.290  1.0775  0.6572  0.1319
11588SOL    HW246490   7.504  13.131   6.268  1.5828  0.8574 -1.4735
11589SOL     OW46491  10.972   3.870   0.928 -0.0242 -0.4265 -0.5835
11589SOL    HW146492  10.977   3.833   0.840  1.4921  0.1158 -0.7492
11589SOL    HW246493  11.063   3.878   0.956 -0.3524  1.7176  0.0571
11590SOL     OW46494  12.353   2.595   4.411 -0.4767  0.6475  0.1932
11590SOL    HW146495  12.332   2.515   4.460  0.0403  1.1129  1.1937
11590SOL    HW246496  12.358   2.566   4.320 -2.5835 -0.0197  0.2325
11591SOL     OW46497   2.453  12.108  10.336  0.7042 -0.3859  0.1703
11591SOL    HW146498   2.398  12.030  10.342  0.0416  0.0772  0.2439
11591SOL    HW246499   2.501  12.110  10.419  1.5477 -1.3089 -0.2778
11592SOL     OW46500  10.206   8.927   1.404 -0.0913 -0.2572  0.6707
11592SOL    HW146501  10.296   8.932   1.438 -0.1576  0.7516  0.7323
11592SOL    HW246502  10.152   8.918   1.482 -0.1852  1.2411  0.7996
11593SOL     OW46503  10.906   6.392   8.278 -0.4230 -0.5430  0.1237
11593SOL    HW146504  10.982   6.451   8.276 -1.1716  0.5830  1.8160
11593SOL    HW246505  10.910   6.344   8.196  1.9417 -0.2992  0.0325
11594SOL     OW46506   3.951   9.141  12.315 -0.5298 -0.4916  0.3390
11594SOL    HW146507   3.913   9.217  12.359 -1.2191 -0.0378 -0.9804
11594SOL    HW246508   3.889   9.069  12.333 -1.7973  0.1162 -1.3434
11595SOL     OW46509   9.999   3.848   5.215 -0.8115 -0.4519 -0.6275
11595SOL    HW146510   9.940   3.836   5.289 -0.9724  2.9112 -0.0658
11595SOL    HW246511  10.069   3.785   5.231 -0.7142  0.2681  2.5660
11596SOL     OW46512  10.322   4.076  10.853  0.0224  0.3557 -0.3321
11596SOL    HW146513  10.237   4.066  10.811 -0.1220  0.8955 -0.1728
11596SOL    HW246514  10.301   4.088  10.946  0.3686 -1.6478  0.0417
11597SOL     OW46515   1.358   0.462   0.988 -0.5180 -0.1146  0.1533
11597SOL    HW146516   1.392   0.399   1.051  0.3709 -0.6370 -0.8130
11597SOL    HW246517   1.306   0.410   0.928  0.1740  0.0617 -0.6183
11598SOL     OW46518   6.475   3.129   8.743  0.1829 -0.1053  0.4992
11598SOL    HW146519   6.537   3.164   8.807  0.9317  1.0520 -0.7975
11598SOL    HW246520   6.458   3.039   8.773 -0.2091  0.6664  2.7885
11599SOL     OW46521  13.084  11.675   6.470 -0.3934 -0.3222 -0.0009
11599SOL    HW146522  13.004  11.704   6.514 -0.0388 -1.1630  1.2406
11599SOL    HW246523  13.121  11.755   6.433 -2.1661 -0.0098 -1.2379
11600SOL     OW46524  11.781   9.694   8.714  0.1324  0.2437  0.2474
11600SOL    HW146525  11.823   9.664   8.795 -0.7103 -0.2162  0.5264
11600SOL    HW246526  11.687   9.680   8.729 -0.2123  2.0218 -0.0302
11601SOL     OW46527  11.484   8.374   4.163  0.1044 -0.2285 -0.5272
11601SOL    HW146528  11.434   8.456   4.160 -3.2112 -2.0699 -1.5029
11601SOL    HW246529  11.431   8.316   4.218  2.1731 -1.8361 -0.1193
11602SOL     OW46530   5.740   1.894   3.317  0.2152 -0.4168 -0.1047
11602SOL    HW146531   5.816   1.951   3.331  0.3591 -0.9155  1.2757
11602SOL    HW246532   5.765   1.839   3.243  0.6610  0.3237 -0.5140
11603SOL     OW46533  13.070   3.668   9.184 -0.0879 -0.3553 -0.2297
11603SOL    HW146534  13.152   3.714   9.201  0.2671 -0.6608 -1.0927
11603SOL    HW246535  13.076   3.641   9.092 -0.2843 -2.1241  0.2495
11604SOL     OW46536   2.232   6.630   4.636 -0.2100 -0.0800 -0.1182
11604SOL    HW146537   2.246   6.655   4.545 -1.0819 -0.3893 -0.3541
11604SOL    HW246538   2.143   6.660   4.655 -0.3125 -0.6933  0.3941
11605SOL     OW46539  11.944   7.188   6.319  0.0513  0.1374  0.2456
11605SOL    HW146540  11.919   7.231   6.401  2.0321 -0.8827  1.4679
11605SOL    HW246541  11.957   7.096   6.343 -0.9954 -0.5513 -1.6207
11606SOL     OW46542   6.227   3.413   6.360  0.5167 -0.5047 -0.0261
11606SOL    HW146543   6.263   3.472   6.294 -2.3119 -0.7407 -1.9764
11606SOL    HW246544   6.192   3.471   6.427  1.1962 -0.1592  0.0373
11607SOL     OW46545  11.314   8.634  10.293  0.4041 -0.2409 -0.5304
11607SOL    HW146546  11.284   8.675  10.374 -1.8892  0.1090 -1.4529
11607SOL    HW246547  11.237   8.587  10.260  2.1135 -2.9216 -1.0101
11608SOL     OW46548   7.835   7.130   8.360  0.0006  0.4778 -0.8227
11608SOL    HW146549   7.799   7.127   8.272  0.6422 -0.7654 -1.0735
11608SOL    HW246550   7.927   7.155   8.348  0.0588  0.4261 -0.5020
11609SOL     OW46551   0.127   2.820   0.252 -0.6568  0.7917 -0.2756
11609SOL    HW146552   0.107   2.912   0.272 -0.7691  0.7790 -0.3338
11609SOL    HW246553   0.216   2.808   0.286 -0.0356  1.3414 -1.6200
11610SOL     OW46554  10.615  11.277   5.624  0.2124  0.2619 -0.4768
11610SOL    HW146555  10.625  11.226   5.544 -0.3204  1.9370 -1.6632
11610SOL    HW246556  10.526  11.314   5.618  0.1331  0.3577  0.9246
11611SOL     OW46557  12.760   0.585   7.122  0.3819 -0.8636 -0.4195
11611SOL    HW146558  12.796   0.547   7.202 -1.3681 -0.6402  0.5305
11611SOL    HW246559  12.673   0.616   7.147 -1.2464 -2.9329 -2.9293
11612SOL     OW46560  10.974  12.830   3.637  0.2110 -0.5779  0.1116
11612SOL    HW146561  10.919  12.798   3.709  0.6231 -1.6900 -0.0463
11612SOL    HW246562  11.033  12.757   3.618 -0.6353 -0.7553 -2.1223
11613SOL     OW46563  10.257  11.296   1.208  0.6140  0.0888  0.8283
11613SOL    HW146564  10.220  11.243   1.278  0.7297  0.5351  1.2308
11613SOL    HW246565  10.286  11.377   1.251  2.0063 -0.2223  0.5340
11614SOL     OW46566   1.055   2.692   6.658 -0.4834  0.4118 -0.4948
11614SOL    HW146567   1.021   2.609   6.690 -1.3995  0.4369 -1.3513
11614SOL    HW246568   1.146   2.673   6.633 -0.9059 -0.5426 -1.3987
11615SOL     OW46569   0.439  11.380   8.009  0.5394 -0.1107 -0.1451
11615SOL    HW146570   0.397  11.307   7.963 -0.4650  0.6639 -0.4993
11615SOL    HW246571   0.380  11.400   8.082  0.4420  0.7668 -0.4488
11616SOL     OW46572   8.826  11.911   4.014  0.6492 -0.0208 -0.4292
11616SOL    HW146573   8.741  11.918   3.970  0.6808  3.3114 -0.2132
11616SOL    HW246574   8.810  11.945   4.102  2.0613 -0.0378 -0.1458
11617SOL     OW46575   2.145   2.483  11.662  0.0081 -0.1342  0.4637
11617SOL    HW146576   2.158   2.527  11.746 -0.3419 -1.5034  1.2728
11617SOL    HW246577   2.070   2.528  11.622  0.9282  1.3021  0.3177
11618SOL     OW46578   3.168   2.796   4.583  0.3815 -0.1069 -0.0552
11618SOL    HW146579   3.220   2.722   4.551 -1.9959 -2.1053  0.3208
11618SOL    HW246580   3.125   2.831   4.505 -1.5157 -1.7455  0.1661
11619SOL     OW46581   5.083   0.340   3.603  0.0037 -0.1649 -0.0096
11619SOL    HW146582   5.119   0.325   3.516  1.6868 -0.0215  0.6243
11619SOL    HW246583   5.082   0.253   3.644  0.3822 -0.0575  0.2377
11620SOL     OW46584   9.303  10.680   8.865 -0.0805 -0.0473  0.3084
11620SOL    HW146585   9.376  10.741   8.856 -0.6779  1.0460  2.3711
11620SOL    HW246586   9.279  10.683   8.957 -1.0803 -2.3597  0.1981
11621SOL     OW46587   2.704  12.883   0.576  0.3148  0.4429 -1.0185
11621SOL    HW146588   2.753  12.964   0.561 -0.7451  1.0320 -1.4755
11621SOL    HW246589   2.698  12.876   0.671  0.4167  0.9119 -0.9741
11622SOL     OW46590   6.871   9.951  12.631  0.5232  0.2136  0.1194
11622SOL    HW146591   6.884   9.861  12.659 -0.0164 -0.0927 -0.5685
11622SOL    HW246592   6.891  10.004  12.708  0.9394 -0.4854  0.5015
11623SOL     OW46593  13.699   3.062  11.706  0.0018  0.0822  0.7835
11623SOL    HW146594  13.671   3.075  11.796 -1.3717 -1.9233  0.7015
11623SOL    HW246595  13.660   3.135  11.658 -3.3942 -1.3482  1.0848
11624SOL     OW46596   3.275   8.941   3.777  0.4214 -0.2278  0.1295
11624SOL    HW146597   3.254   9.033   3.766 -0.6378 -0.4445  0.2257
11624SOL    HW246598   3.368   8.940   3.799  0.4250  0.8144  0.2094
11625SOL     OW46599   5.124   0.633   1.770 -0.4205  0.3595  0.4357
11625SOL    HW146600   5.141   0.726   1.781  0.3642  0.5840 -2.0363
11625SOL    HW246601   5.205   0.598   1.733 -1.1294 -1.0708  0.1625
11626SOL     OW46602   7.250   3.453   8.678 -0.0764  0.2799  0.3785
11626SOL    HW146603   7.274   3.516   8.746 -0.3451 -0.2833  1.0128
11626SOL    HW246604   7.223   3.506   8.604  0.2021  0.9094  0.7221
11627SOL     OW46605   9.115   0.758   5.590  0.1342 -0.0693 -0.3955
11627SOL    HW146606   9.060   0.760   5.669 -2.5539  3.4868 -2.0409
11627SOL    HW246607   9.188   0.700   5.613 -0.2369  0.9825  4.7825
11628SOL     OW46608   8.493  13.711   8.081  0.5247 -0.4631  0.0909
11628SOL    HW146609   8.490  13.631   8.029  0.6179 -0.5136  0.1636
11628SOL    HW246610   8.553  13.691   8.153  1.5753  0.1007 -0.6036
11629SOL     OW46611  12.121   6.101   2.274  0.3206  0.1749 -0.0475
11629SOL    HW146612  12.061   6.092   2.349 -0.1055  0.2379 -0.3757
11629SOL    HW246613  12.208   6.108   2.314  0.0137  1.1746  0.4995
11630SOL     OW46614  13.337   4.312  12.464  0.1938 -0.4205  0.3505
11630SOL    HW146615  13.326   4.239  12.404  1.6461  1.4058 -2.3848
11630SOL    HW246616  13.260   4.367  12.449 -2.3241 -2.4190  4.3591
11631SOL     OW46617  10.663  11.624  12.305 -0.3831  0.0797  0.4150
11631SOL    HW146618  10.617  11.651  12.226  1.1199  1.8118  0.0564
11631SOL    HW246619  10.731  11.690  12.317  1.2712 -1.7240  1.5546
11632SOL     OW46620   1.700   2.945   3.606 -0.2505 -0.0572 -0.5196
11632SOL    HW146621   1.789   2.915   3.587 -0.7477 -0.6948 -2.0838
11632SOL    HW246622   1.710   3.009   3.676  1.4141 -0.2577 -0.5346
11633SOL     OW46623   7.767   9.130   3.090 -0.0898  0.3085 -0.1460
11633SOL    HW146624   7.855   9.167   3.084  0.0122  0.3418  1.3430
11633SOL    HW246625   7.769   9.055   3.031  1.0425  0.1133  0.1125
11634SOL     OW46626  12.363   3.399   7.785 -0.0397 -0.7460  0.1378
11634SOL    HW146627  12.320   3.325   7.743  0.6581 -0.5012 -1.0292
11634SOL    HW246628  12.381   3.461   7.714 -1.2445  0.8862  1.1772
11635SOL     OW46629  10.985   7.950   7.102 -0.4790  0.3209  0.3557
11635SOL    HW146630  10.923   7.921   7.170  1.4576 -2.4785  1.1258
11635SOL    HW246631  10.946   7.921   7.020 -0.5852 -0.7190  0.7574
11636SOL     OW46632  12.107   5.267   1.463 -0.4748 -0.5054 -0.0928
11636SOL    HW146633  12.043   5.274   1.392 -1.2033  0.0654  0.5964
11636SOL    HW246634  12.134   5.176   1.462 -1.8637 -0.9498  0.0517
11637SOL     OW46635   8.730   8.070   6.778 -0.0783  0.1910 -0.0369
11637SOL    HW146636   8.766   7.997   6.828 -1.9484 -0.4101  0.5265
11637SOL    HW246637   8.759   8.148   6.825  2.5817 -0.0672 -1.0697
11638SOL     OW46638   4.255   3.636   6.137 -0.0608 -0.3598 -0.1961
11638SOL    HW146639   4.348   3.623   6.155 -0.0463 -1.5908 -1.0636
11638SOL    HW246640   4.242   3.600   6.050 -1.2754  0.2169 -0.2814
11639SOL     OW46641   7.117   0.981  12.576  0.4706  0.3198  0.4938
11639SOL    HW146642   7.122   0.903  12.521  2.4139  0.4739  0.3902
11639SOL    HW246643   7.033   1.021  12.552 -0.7379 -1.8573  0.7826
11640SOL     OW46644   7.550  10.207  13.670 -0.4306  0.3142 -0.0228
11640SOL    HW146645   7.581  10.241  13.587  0.0882 -0.6370 -0.2331
11640SOL    HW246646   7.629  10.192  13.721 -0.7735  1.5090  0.9072
11641SOL     OW46647   9.133   0.242   4.941  0.0649 -0.2506 -0.1034
11641SOL    HW146648   9.121   0.265   4.849 -0.1905  3.5466  0.7263
11641SOL    HW246649   9.225   0.263   4.960  0.4176 -2.0021  0.3362
11642SOL     OW46650   6.340  13.454  12.671 -0.3656 -0.2374 -0.2999
11642SOL    HW146651   6.406  13.516  12.639 -1.3290  0.8528 -0.2414
11642SOL    HW246652   6.377  13.421  12.753 -0.3099  1.1132  0.2488
11643SOL     OW46653   6.591   3.939   5.186  0.4867  0.4540  0.4769
11643SOL    HW146654   6.549   3.869   5.135 -1.6799  2.2754 -0.4347
11643SOL    HW246655   6.683   3.914   5.190 -0.0212 -1.9341 -0.6457
11644SOL     OW46656   0.312  13.307   3.686  0.4601  0.3017  0.4672
11644SOL    HW146657   0.321  13.378   3.750  0.7814  1.7485 -1.1145
11644SOL    HW246658   0.228  13.324   3.643  1.2218  0.6181 -0.9421
11645SOL     OW46659   1.018   7.541   2.018  0.6203  0.3835  0.1112
11645SOL    HW146660   1.047   7.454   2.044  1.7441  1.2553  1.9918
11645SOL    HW246661   0.977   7.578   2.097  1.3002  2.0115 -0.2440
11646SOL     OW46662   9.509   1.812  10.293 -0.2944  0.4955 -0.0074
11646SOL    HW146663   9.466   1.854  10.368 -0.7860  1.5068 -0.8328
11646SOL    HW246664   9.566   1.746  10.332 -1.0382  0.5512  1.2241
11647SOL     OW46665  13.335   8.295   5.414 -1.0603 -0.2296 -0.1494
11647SOL    HW146666  13.400   8.285   5.484  0.0207  0.4940 -1.0141
11647SOL    HW246667  13.300   8.207   5.401  0.4282 -0.8385 -0.2713
11648SOL     OW46668  12.699   7.661   8.684 -0.1995 -0.0267  0.0870
11648SOL    HW146669  12.608   7.639   8.667  0.0142 -2.3865  1.4977
11648SOL    HW246670  12.746   7.578   8.674  1.5208  0.7571  1.1525
11649SOL     OW46671  10.696   6.957   6.058  0.0594 -0.3186 -0.4534
11649SOL    HW146672  10.644   6.924   5.985 -0.4034 -1.0263  0.1887
11649SOL    HW246673  10.637   7.016   6.105 -0.3377 -1.4509  0.5225
11650SOL     OW46674   3.714  12.911   9.643 -0.0981  0.3076 -0.0799
11650SOL    HW146675   3.699  13.004   9.628  0.2323  0.1732 -1.3801
11650SOL    HW246676   3.627  12.872   9.640 -0.1797  0.4948 -0.2156
11651SOL     OW46677   1.805  10.532   4.287 -0.4195  0.0199 -0.0843
11651SOL    HW146678   1.898  10.549   4.301  0.2957 -2.9274 -0.7077
11651SOL    HW246679   1.789  10.556   4.196 -0.0798 -0.2340 -0.2093
11652SOL     OW46680   7.158   8.987  11.242  0.3638  0.5317  0.2750
11652SOL    HW146681   7.237   9.025  11.279  0.1407  1.2943 -0.0082
11652SOL    HW246682   7.116   9.060  11.195  1.1234 -0.5889 -2.3152
11653SOL     OW46683  10.172   9.339  11.614 -0.4383  0.6638  0.3429
11653SOL    HW146684  10.201   9.258  11.571 -0.2542  0.5067  0.7542
11653SOL    HW246685  10.124   9.309  11.691 -2.1057  0.9103 -0.5576
11654SOL     OW46686   8.486  10.542   9.974  0.9192 -0.4086 -0.4036
11654SOL    HW146687   8.406  10.534   9.923  0.7369 -0.7956 -0.0658
11654SOL    HW246688   8.557  10.540   9.910  0.6511  0.2679 -0.7323
11655SOL     OW46689   0.800  12.006   8.655 -0.1440 -0.0298 -0.0851
11655SOL    HW146690   0.853  12.080   8.627 -0.8745  1.1057  1.3391
11655SOL    HW246691   0.862  11.936   8.670  0.7705  0.7756  0.0015
11656SOL     OW46692   5.599  11.368  10.143  0.3470  0.0473 -0.1939
11656SOL    HW146693   5.610  11.291  10.088  1.5470  0.1581 -0.1531
11656SOL    HW246694   5.687  11.386  10.177 -0.2205  0.4112  1.1887
11657SOL     OW46695  11.156   2.153   8.342 -0.2650  0.1849  0.5389
11657SOL    HW146696  11.239   2.121   8.308 -0.7770 -1.4452  0.7208
11657SOL    HW246697  11.097   2.078   8.336 -0.8771  0.3183  3.3300
11658SOL     OW46698  13.566   8.132  12.372  0.6088 -0.5381 -0.1470
11658SOL    HW146699  13.571   8.036  12.375  0.2201 -0.6466 -1.8927
11658SOL    HW246700  13.474   8.152  12.389 -0.3548 -0.8228 -4.0121
11659SOL     OW46701  13.516  12.985  12.885 -0.5306  0.2022 -0.6424
11659SOL    HW146702  13.538  12.974  12.792  0.4486 -0.5272 -0.3483
11659SOL    HW246703  13.468  12.905  12.907 -0.0608  0.0017 -0.3336
11660SOL     OW46704   6.450  11.318   7.806 -0.1984 -0.1510 -0.2183
11660SOL    HW146705   6.395  11.379   7.757  0.4804  1.3441  0.8324
11660SOL    HW246706   6.508  11.279   7.740 -0.0791  0.9691 -0.7937
11661SOL     OW46707   1.662   1.109  10.703 -0.3809 -0.1270  0.2867
11661SOL    HW146708   1.713   1.033  10.674 -0.0923 -0.3370  1.3138
11661SOL    HW246709   1.726   1.165  10.746 -0.6401  0.5977 -0.2597
11662SOL     OW46710   9.070   5.829   5.773 -0.0147 -0.3792  0.2357
11662SOL    HW146711   9.064   5.913   5.817  1.7838 -0.2840  0.4018
11662SOL    HW246712   8.980   5.799   5.763 -0.5560 -0.1915  3.5705
11663SOL     OW46713   2.882   9.875   4.345  0.1309  0.0686  0.3061
11663SOL    HW146714   2.966   9.907   4.312  0.1838 -0.9795 -0.6159
11663SOL    HW246715   2.903   9.833   4.428  1.0499 -2.7082 -1.2093
11664SOL     OW46716   3.181   3.073   8.824  0.4192 -0.3586  0.1323
11664SOL    HW146717   3.264   3.120   8.834  1.2295 -1.4518 -1.1020
11664SOL    HW246718   3.150   3.096   8.737 -0.2758 -0.4412  0.3484
11665SOL     OW46719   3.138   4.542   8.118 -0.2863  0.0808  0.9095
11665SOL    HW146720   3.097   4.456   8.106  0.8766 -0.4356  0.3919
11665SOL    HW246721   3.070   4.605   8.092 -0.5566 -0.7597 -0.5434
11666SOL     OW46722   2.221   2.127  12.961  0.1343 -0.3085  0.0832
11666SOL    HW146723   2.214   2.213  13.002  1.6736 -1.1311  2.3133
11666SOL    HW246724   2.139   2.083  12.982 -0.3340  0.3392 -0.3795
11667SOL     OW46725   1.756   7.066  11.286 -0.2599  0.4686 -0.0148
11667SOL    HW146726   1.675   7.093  11.328  0.0982 -0.2718  1.2169
11667SOL    HW246727   1.821   7.128  11.318 -0.4174  1.3973 -1.4292
11668SOL     OW46728   8.428   4.604  11.621  0.3328  0.2526  0.0390
11668SOL    HW146729   8.508   4.654  11.605  0.0774  0.7379  0.2430
11668SOL    HW246730   8.445   4.554  11.700  0.1090  1.0736  0.6189
11669SOL     OW46731   1.497   6.918   9.865  0.1948 -0.3619 -0.4201
11669SOL    HW146732   1.403   6.936   9.860  0.2316 -0.1458 -0.3113
11669SOL    HW246733   1.513   6.898   9.957  0.4647  0.7336 -0.2219
11670SOL     OW46734   6.597   8.320  13.351 -0.2708  0.4950  0.2347
11670SOL    HW146735   6.620   8.233  13.384 -1.3020 -0.4993 -1.4937
11670SOL    HW246736   6.528   8.303  13.286  0.8133  2.4236 -1.5186
11671SOL     OW46737  12.882   5.732  11.478  0.0487 -0.2687 -0.1995
11671SOL    HW146738  12.847   5.666  11.418  0.2497  0.2189 -0.8596
11671SOL    HW246739  12.878   5.690  11.564 -1.5314 -0.4708 -0.3448
11672SOL     OW46740   6.457   5.283   8.422 -0.6802  0.4583 -0.4216
11672SOL    HW146741   6.457   5.368   8.378  0.3641  0.7945  0.1922
11672SOL    HW246742   6.543   5.277   8.463 -1.4682  0.0307  1.2877
11673SOL     OW46743   6.689   7.144  11.367  0.3444 -0.9094  0.0384
11673SOL    HW146744   6.685   7.211  11.298  0.2580 -1.8737 -0.9273
11673SOL    HW246745   6.721   7.065  11.322 -0.6198 -1.8198  0.8981
11674SOL     OW46746   6.199   1.952   1.030  0.5044  0.6123  0.6733
11674SOL    HW146747   6.201   1.968   1.125 -2.0523 -0.9041  1.0716
11674SOL    HW246748   6.257   1.877   1.017  2.3291  1.9587  0.7017
11675SOL     OW46749   1.806   2.828  12.759  0.1176 -0.2226 -0.2296
11675SOL    HW146750   1.846   2.869  12.682  0.3531  1.2342  0.6328
11675SOL    HW246751   1.753   2.897  12.798 -5.0778 -2.4684 -2.3798
11676SOL     OW46752   6.742   5.405   0.600 -0.5713 -0.1274 -0.0464
11676SOL    HW146753   6.659   5.359   0.592  0.0106 -1.1790 -0.1847
11676SOL    HW246754   6.805   5.337   0.622  0.6178  0.3102 -1.9077
11677SOL     OW46755  10.611   1.397  13.728  0.1853 -0.1732 -0.0656
11677SOL    HW146756  10.626   1.304  13.712  3.2021  0.0830  0.6279
11677SOL    HW246757  10.602   1.436  13.641  1.2210 -0.8070 -0.4651
11678SOL     OW46758   2.019   1.252  11.502 -0.3338 -0.2414 -0.0941
11678SOL    HW146759   1.926   1.229  11.498 -0.1664 -1.3275  1.2680
11678SOL    HW246760   2.063   1.183  11.453 -0.2386  0.2189 -0.6562
11679SOL     OW46761   8.236  10.038  12.364  0.1290 -0.3500  0.0009
11679SOL    HW146762   8.179   9.969  12.329 -1.2690  1.0130 -0.5138
11679SOL    HW246763   8.301   9.991  12.416 -1.7105 -1.9722  0.9660
11680SOL     OW46764   7.978  11.480   0.332 -0.6740  0.1665  0.6982
11680SOL    HW146765   7.964  11.426   0.254 -0.8611  0.1988  0.7087
11680SOL    HW246766   7.971  11.419   0.405 -0.2742  0.0950  0.6810
11681SOL     OW46767  13.302  12.891   1.244  0.6946  0.2360  0.7406
11681SOL    HW146768  13.273  12.969   1.291 -0.9210  0.2863 -0.2425
11681SOL    HW246769  13.280  12.909   1.152 -0.9352 -1.8565  0.6337
11682SOL     OW46770  10.400   5.326   8.227  0.4309  0.6277 -0.9995
11682SOL    HW146771  10.338   5.336   8.154  3.2002  1.3218 -3.4818
11682SOL    HW246772  10.409   5.232   8.238  0.0059  0.5128 -1.5813
11683SOL     OW46773   4.444   8.039   8.113 -0.5494  0.2625  0.1767
11683SOL    HW146774   4.366   8.091   8.095 -0.0885  0.0118 -3.1761
11683SOL    HW246775   4.517   8.098   8.093  0.0938 -0.2494  0.9413
11684SOL     OW46776   7.712   3.249   3.864  0.6756  0.1755 -0.2256
11684SOL    HW146777   7.648   3.199   3.812 -0.5619  1.3285  0.1468
11684SOL    HW246778   7.672   3.257   3.950  0.8543  1.7611 -0.2624
11685SOL     OW46779  11.682   4.614  12.863  0.2412  0.0895  0.2140
11685SOL    HW146780  11.774   4.630  12.885  1.1564 -1.3653 -2.1544
11685SOL    HW246781  11.644   4.579  12.943  1.0375  3.0369  2.0086
11686SOL     OW46782   1.655   8.601   4.976  0.1301 -0.2339 -0.3239
11686SOL    HW146783   1.725   8.604   4.911  0.2599 -0.9697 -0.2174
11686SOL    HW246784   1.576   8.584   4.925 -0.5528  3.5404 -0.8808
11687SOL     OW46785   7.406  10.833  12.746 -0.2419 -0.4159 -0.6717
11687SOL    HW146786   7.335  10.871  12.693 -0.0818 -1.9339 -2.0656
11687SOL    HW246787   7.388  10.739  12.745  1.3547 -0.7365 -0.3676
11688SOL     OW46788   4.600  12.371   2.601  0.1579 -0.3453 -0.3027
11688SOL    HW146789   4.520  12.384   2.550 -0.3604 -0.7767  0.3831
11688SOL    HW246790   4.606  12.277   2.614  1.1730 -0.3823 -0.9569
11689SOL     OW46791   3.923   3.606   7.318  0.4636  0.1909  0.2110
11689SOL    HW146792   3.878   3.631   7.237 -1.2413 -1.2692  0.6369
11689SOL    HW246793   3.913   3.681   7.375 -1.9821 -0.2287  0.4554
11690SOL     OW46794  10.470   5.490   9.451  0.1739  0.1315 -0.5293
11690SOL    HW146795  10.414   5.469   9.376 -0.6789  1.1517 -0.2150
11690SOL    HW246796  10.452   5.421   9.514 -2.6759  1.6544  0.5408
11691SOL     OW46797   1.895   3.596   2.163 -0.6393  0.0017 -0.1576
11691SOL    HW146798   1.931   3.655   2.229  0.0912  0.2871 -0.7966
11691SOL    HW246799   1.869   3.518   2.213  1.3938 -0.4557  0.2854
11692SOL     OW46800   6.022   5.952   7.282 -0.1685  0.7486 -0.9751
11692SOL    HW146801   6.112   5.921   7.289  0.0076  1.4228 -0.1207
11692SOL    HW246802   6.024   6.016   7.211  0.0582  0.8735 -0.8563
11693SOL     OW46803  11.421   2.838   4.173  0.6323 -0.7254 -0.9005
11693SOL    HW146804  11.515   2.823   4.166  1.0468  1.5698 -1.3165
11693SOL    HW246805  11.409   2.880   4.258  0.3460  0.9010 -1.6904
11694SOL     OW46806  10.674   1.182  12.917  0.0743  0.3544  0.2335
11694SOL    HW146807  10.688   1.128  12.839  0.0134  0.4905  0.1298
11694SOL    HW246808  10.727   1.139  12.985 -0.5784 -0.2820  0.3522
11695SOL     OW46809   9.000  13.690   2.715  0.4473 -0.1811 -0.3665
11695SOL    HW146810   8.916  13.701   2.759  1.2674  0.6341  1.0716
11695SOL    HW246811   8.983  13.623   2.648 -0.5924 -2.4982  2.0164
11696SOL     OW46812   4.951   0.591   5.990  0.2373  0.0252  0.1851
11696SOL    HW146813   5.017   0.609   6.056  0.3931  0.5155 -0.1015
11696SOL    HW246814   4.880   0.652   6.009 -0.6522 -1.2674  1.1989
11697SOL     OW46815  12.015  10.655   4.879 -0.2184 -0.0854 -0.3805
11697SOL    HW146816  12.068  10.601   4.938  0.4009  1.4040  0.4772
11697SOL    HW246817  11.966  10.712   4.938  0.3678  1.3991 -1.2952
11698SOL     OW46818   8.841   2.209   8.794 -0.0424  0.4478  0.2369
11698SOL    HW146819   8.788   2.152   8.739 -0.1298 -0.7713  1.5312
11698SOL    HW246820   8.912   2.239   8.736  0.3920 -1.5266 -0.3190
11699SOL     OW46821   1.564   3.474  10.462 -0.0442 -0.0238  0.6792
11699SOL    HW146822   1.595   3.414  10.530  0.9680  0.7588  0.9312
11699SOL    HW246823   1.543   3.417  10.388 -2.3409 -1.0352  1.9966
11700SOL     OW46824   9.780  12.242   2.289 -0.1634  0.0108 -0.6312
11700SOL    HW146825   9.773  12.297   2.367 -2.1353  1.4323 -1.7092
11700SOL    HW246826   9.874  12.231   2.275  0.2331  0.5200  1.3715
11701SOL     OW46827   4.629   7.968  11.268  0.0367  0.0659 -0.1890
11701SOL    HW146828   4.670   7.899  11.321 -2.7811 -1.0885  0.6540
11701SOL    HW246829   4.536   7.965  11.292 -0.7048  2.1324 -2.4053
11702SOL     OW46830   4.366  13.246   6.062 -0.2860  0.1032 -0.0035
11702SOL    HW146831   4.301  13.224   6.129  0.0625  0.9460  0.6196
11702SOL    HW246832   4.395  13.161   6.029  1.4560 -0.4987  2.7487
11703SOL     OW46833   6.248  11.400   3.209  0.2253  0.0259 -0.1214
11703SOL    HW146834   6.288  11.487   3.213  0.3950 -0.0769  0.4422
11703SOL    HW246835   6.234  11.385   3.115  2.3704 -0.3265 -0.4429
11704SOL     OW46836   0.046  11.187  11.221 -0.6174  0.0457 -0.8388
11704SOL    HW146837   0.116  11.142  11.174 -0.0524  0.3954 -0.3436
11704SOL    HW246838   0.067  11.280  11.212  0.1221  0.1028  1.0079
11705SOL     OW46839   2.702  11.000   4.087 -0.7246  0.0172 -0.2112
11705SOL    HW146840   2.640  11.068   4.115  0.3617  0.3980  1.4127
11705SOL    HW246841   2.649  10.921   4.080 -1.2607  0.0883  2.2155
11706SOL     OW46842   2.952   2.199  11.247  0.7370  0.6692  0.5603
11706SOL    HW146843   3.036   2.242  11.265  0.2629  1.5251  0.7990
11706SOL    HW246844   2.908   2.259  11.186  0.5388 -0.0705 -0.0323
11707SOL     OW46845  13.739   0.029  11.565  0.3249 -0.0911 -0.4580
11707SOL    HW146846  13.814   0.072  11.605  1.1476 -2.1043  0.2805
11707SOL    HW246847  13.765   0.015  11.474  1.3174 -1.6965  0.0361
11708SOL     OW46848   5.270  13.371   5.759 -0.5142  0.5372 -0.1590
11708SOL    HW146849   5.258  13.438   5.692 -2.3027  0.1960 -0.2224
11708SOL    HW246850   5.186  13.368   5.806 -0.1105 -0.9116  0.5371
11709SOL     OW46851   0.728   0.672   8.680  0.1563  0.0385  0.4524
11709SOL    HW146852   0.739   0.721   8.599  0.2755 -0.0081  0.4392
11709SOL    HW246853   0.728   0.739   8.749  3.0216 -0.0655  0.6933
11710SOL     OW46854   3.245  11.595   4.419  0.2357  0.2434  0.4599
11710SOL    HW146855   3.241  11.690   4.410 -1.1853  0.2178  0.5945
11710SOL    HW246856   3.174  11.573   4.480  1.1695 -0.8176  1.2083
11711SOL     OW46857   3.177  12.201   0.928 -0.3920 -0.2481 -0.1294
11711SOL    HW146858   3.113  12.138   0.961 -1.0714  0.5424  0.1044
11711SOL    HW246859   3.132  12.285   0.932  1.1188  0.5584  1.3251
11712SOL     OW46860   6.836   1.831   8.157 -0.6907  0.6491  0.5595
11712SOL    HW146861   6.835   1.787   8.242 -1.9787 -0.5290 -0.0157
11712SOL    HW246862   6.749   1.869   8.149 -0.5203  0.9009 -0.1609
11713SOL     OW46863   0.700   5.255  10.164 -0.0242 -0.3997 -0.2397
11713SOL    HW146864   0.789   5.274  10.133 -0.2070 -0.6949 -0.9560
11713SOL    HW246865   0.713   5.194  10.236  0.3287 -0.9447 -0.7518
11714SOL     OW46866   3.408   1.479   9.486  0.3544 -0.0679  0.0312
11714SOL    HW146867   3.388   1.558   9.537  0.7660 -0.1654  0.3484
11714SOL    HW246868   3.324   1.435   9.474  0.1688  0.2662  0.1072
11715SOL     OW46869  11.263   1.825   4.625 -0.0733 -0.0307 -0.1156
11715SOL    HW146870  11.353   1.859   4.623 -0.2957  0.5757 -0.0007
11715SOL    HW246871  11.213   1.887   4.573 -0.2238 -1.0231 -1.2040
11716SOL     OW46872  10.167   4.612   8.529  0.2786 -0.5006 -0.5317
11716SOL    HW146873  10.227   4.646   8.462 -1.2714 -0.6620 -2.0549
11716SOL    HW246874  10.208   4.639   8.612  1.2111  1.5489 -1.5588
11717SOL     OW46875   8.584   6.933   7.614  0.3106  0.2141 -0.1824
11717SOL    HW146876   8.677   6.919   7.634 -0.0694  0.9549  2.5205
11717SOL    HW246877   8.569   7.025   7.636 -1.6169 -0.5731  2.3180
11718SOL     OW46878   3.338   9.255  11.840  0.1608 -0.4257 -0.3164
11718SOL    HW146879   3.372   9.177  11.882  1.3698 -0.3069 -1.0200
11718SOL    HW246880   3.414   9.293  11.795  0.0071  2.0308  1.3218
11719SOL     OW46881   0.421   3.348   1.391  0.0614  0.6762 -0.0535
11719SOL    HW146882   0.379   3.263   1.398 -1.8191  1.6243  0.9845
11719SOL    HW246883   0.515   3.329   1.397 -0.1947 -1.4341 -1.5603
11720SOL     OW46884   5.981  12.852   5.229  0.0245  0.4100 -0.0594
11720SOL    HW146885   6.072  12.874   5.209  0.5342 -1.1631  0.4277
11720SOL    HW246886   5.970  12.875   5.321 -0.3230  1.2944 -0.3030
11721SOL     OW46887   9.203   1.627   3.555  0.4914  0.4131  0.1128
11721SOL    HW146888   9.234   1.537   3.541  0.6864  0.1998  1.7759
11721SOL    HW246889   9.237   1.651   3.641 -0.7670  1.5731  0.3151
11722SOL     OW46890   3.267  10.113  11.736 -0.6255 -0.2603  0.4909
11722SOL    HW146891   3.352  10.142  11.770 -1.6172  2.2061  1.0804
11722SOL    HW246892   3.242  10.180  11.673 -2.8063 -0.1035  1.4477
11723SOL     OW46893   9.511   5.378   5.348  0.1943  0.3084 -0.0307
11723SOL    HW146894   9.431   5.383   5.400  1.4675  0.4890  2.0165
11723SOL    HW246895   9.531   5.469   5.326  0.3584  0.3445  0.2743
11724SOL     OW46896  10.745  11.612   6.580 -0.1132 -0.0027 -0.0258
11724SOL    HW146897  10.767  11.663   6.658 -0.3581 -0.8839  0.6314
11724SOL    HW246898  10.807  11.539   6.581 -0.3390 -0.2014 -0.4735
11725SOL     OW46899   2.958   8.372  12.567 -0.0023 -0.6504  0.1762
11725SOL    HW146900   2.954   8.404  12.477 -1.5100 -1.0946  0.0532
11725SOL    HW246901   3.003   8.442  12.615  0.9953 -0.4963 -0.9443
11726SOL     OW46902   0.765  12.432   1.914 -0.1531 -0.2997  0.3276
11726SOL    HW146903   0.679  12.469   1.933 -0.4346 -0.4466 -0.6285
11726SOL    HW246904   0.822  12.508   1.901 -0.1846 -0.2027  0.7625
11727SOL     OW46905   6.755   9.267  10.553 -0.4042  0.4248  0.0471
11727SOL    HW146906   6.705   9.300  10.627 -0.9788  0.1223 -0.1941
11727SOL    HW246907   6.707   9.298  10.476  0.2747  0.8682 -0.2054
11728SOL     OW46908  12.544   2.449   7.489 -0.7963  0.4334  0.4852
11728SOL    HW146909  12.505   2.364   7.471  0.1246  0.0173  0.3717
11728SOL    HW246910  12.617   2.456   7.428  1.1667 -0.1495  2.5916
11729SOL     OW46911   5.045   9.668   2.135 -0.7259  0.2641 -0.2219
11729SOL    HW146912   5.025   9.684   2.227  0.0340  0.2122 -0.0388
11729SOL    HW246913   5.129   9.712   2.121 -0.0114 -1.1176 -0.4481
11730SOL     OW46914   3.291   7.422   8.322 -0.3437 -0.3483 -0.1057
11730SOL    HW146915   3.323   7.376   8.244 -1.4722  1.2488 -1.5660
11730SOL    HW246916   3.223   7.365   8.357 -0.0754 -0.9104 -0.4788
11731SOL     OW46917   0.855   6.499   8.683 -0.2529  0.5928  0.2266
11731SOL    HW146918   0.887   6.411   8.661 -1.4168  0.6634 -2.0693
11731SOL    HW246919   0.924   6.557   8.652  0.3849  0.5414  1.4817
11732SOL     OW46920   1.531  11.515   9.993  0.0300  0.2271 -0.0820
11732SOL    HW146921   1.513  11.604   9.963 -0.4424  0.0813 -0.2425
11732SOL    HW246922   1.598  11.526  10.060 -0.7221  0.8099  0.6042
11733SOL     OW46923  13.533   9.559   1.399  0.5773 -0.1348 -0.1338
11733SOL    HW146924  13.553   9.638   1.448  1.5002 -1.0919  1.1016
11733SOL    HW246925  13.618   9.518   1.383  0.1841 -0.4615 -1.5055
11734SOL     OW46926  11.987  10.730   9.963 -0.6027 -0.3991  0.5639
11734SOL    HW146927  11.949  10.659  10.014  1.2762 -0.2515  2.3348
11734SOL    HW246928  11.920  10.798   9.962 -1.3772 -1.1323  1.2766
11735SOL     OW46929   5.864  10.704  10.300 -0.2523 -0.3323  0.0157
11735SOL    HW146930   5.869  10.649  10.379 -0.3334 -1.3305 -0.6627
11735SOL    HW246931   5.956  10.723  10.279 -0.2382  1.9994  1.7135
11736SOL     OW46932  11.377   1.134   2.754 -0.0976  0.6291 -0.4250
11736SOL    HW146933  11.430   1.058   2.778  0.4059  0.9407 -0.5296
11736SOL    HW246934  11.292   1.098   2.729  0.1693  0.0937 -0.5683
11737SOL     OW46935   5.756  11.105  12.129 -0.3841 -0.2001  0.3163
11737SOL    HW146936   5.672  11.107  12.174 -0.3288 -0.4791  0.4366
11737SOL    HW246937   5.749  11.033  12.067 -0.8205  0.8230 -0.8546
11738SOL     OW46938   0.395   5.377   7.902  0.0100  0.1690  0.2898
11738SOL    HW146939   0.390   5.393   7.807 -2.5453  0.2311  0.3702
11738SOL    HW246940   0.438   5.455   7.937 -0.0576  0.6813 -0.7171
11739SOL     OW46941   8.924   5.701   0.505 -0.5510 -0.3546  0.1088
11739SOL    HW146942   8.948   5.613   0.477 -1.5315 -0.6402  0.1332
11739SOL    HW246943   8.940   5.702   0.599 -2.1804 -1.0931  0.4286
11740SOL     OW46944   9.081   9.152   6.925  0.2229 -0.0099 -0.4350
11740SOL    HW146945   9.002   9.131   6.974  0.0963  1.2542 -0.0791
11740SOL    HW246946   9.117   9.229   6.968  1.0067  0.1354 -1.3130
11741SOL     OW46947   3.719   1.134  12.914 -0.2013  0.4745 -0.0021
11741SOL    HW146948   3.774   1.208  12.887 -0.9354  1.4089  0.9602
11741SOL    HW246949   3.647   1.134  12.851 -1.6791  2.3767  1.5528
11742SOL     OW46950   4.131   3.492  11.799 -0.3076 -0.3234  0.0196
11742SOL    HW146951   4.183   3.426  11.845  0.8861  0.6305  0.0887
11742SOL    HW246952   4.124   3.460  11.709 -0.6794 -1.0734  0.3131
11743SOL     OW46953  10.368   0.301   5.031 -0.0482 -0.0355 -0.0313
11743SOL    HW146954  10.338   0.374   4.976 -0.6660 -0.6847 -0.5854
11743SOL    HW246955  10.452   0.329   5.066 -0.5867  1.2152  0.2984
11744SOL     OW46956  12.042  10.984   3.183  0.6318  0.0300  0.2925
11744SOL    HW146957  11.984  10.977   3.258  1.5455 -0.5438  0.9727
11744SOL    HW246958  12.033  10.900   3.138  1.1367 -0.1699  0.5590
11745SOL     OW46959  12.501   1.088   0.843  0.6439 -0.6476  0.0889
11745SOL    HW146960  12.445   1.162   0.868 -1.1481 -1.7162 -0.5439
11745SOL    HW246961  12.581   1.129   0.811 -0.3473  1.0447 -0.3777
11746SOL     OW46962   2.140   4.517   7.540  0.4399  0.2452  0.7371
11746SOL    HW146963   2.079   4.445   7.557  0.6121  0.2044  1.2023
11746SOL    HW246964   2.170   4.544   7.627 -0.8688  1.9849  0.6961
11747SOL     OW46965   3.721  12.269   5.287  0.0862  0.3926  0.8376
11747SOL    HW146966   3.665  12.204   5.246 -1.0363  1.8912 -0.1263
11747SOL    HW246967   3.787  12.218   5.335 -0.5395 -1.4121 -0.1339
11748SOL     OW46968   9.762   7.670   6.674  0.3980 -0.1783 -0.4088
11748SOL    HW146969   9.776   7.732   6.603  0.7201  1.1208  0.7451
11748SOL    HW246970   9.756   7.724   6.753  0.1608 -1.5750  0.5798
11749SOL     OW46971  11.458   1.064   1.806 -0.4090 -0.0408 -0.4745
11749SOL    HW146972  11.511   0.994   1.845 -1.2330 -0.1733  0.4334
11749SOL    HW246973  11.404   1.096   1.878 -0.2043  1.3923 -0.9360
11750SOL     OW46974  10.216   9.423   6.468 -0.0493 -0.1897 -0.0223
11750SOL    HW146975  10.272   9.379   6.531  0.9299  0.6211 -0.2974
11750SOL    HW246976  10.270   9.431   6.389 -0.2168  1.4035 -0.0040
11751SOL     OW46977   4.356   3.070   6.275  0.1201  0.4413  0.3136
11751SOL    HW146978   4.314   3.152   6.249  1.0157  0.9972  0.5727
11751SOL    HW246979   4.283   3.011   6.294 -0.5396  1.0127 -0.3598
11752SOL     OW46980   0.697  11.264   5.051 -0.6004 -0.6853 -0.1605
11752SOL    HW146981   0.681  11.188   4.996 -2.3194 -0.9986  0.6816
11752SOL    HW246982   0.619  11.319   5.039 -0.0115  0.2778  0.2896
11753SOL     OW46983   6.252   9.460   1.898  0.6654 -0.4019  0.3879
11753SOL    HW146984   6.199   9.439   1.821 -2.6530  1.5166  1.9324
11753SOL    HW246985   6.334   9.494   1.862 -1.0693  1.2087 -2.3976
11754SOL     OW46986  11.146   2.041   2.768 -0.6644  0.4549 -0.2935
11754SOL    HW146987  11.154   1.982   2.693 -1.9139 -0.5259  0.2952
11754SOL    HW246988  11.065   2.089   2.752 -0.8901  0.3046  0.3744
11755SOL     OW46989   4.414  13.358   8.132 -0.0888 -0.1974 -0.3668
11755SOL    HW146990   4.368  13.293   8.185 -0.6342 -0.0800 -0.6951
11755SOL    HW246991   4.378  13.348   8.044  0.6485 -0.2328 -0.6696
11756SOL     OW46992  12.890   4.178  11.854 -0.1983 -0.7272 -0.1385
11756SOL    HW146993  12.811   4.223  11.826 -0.4338 -0.4352  0.9451
11756SOL    HW246994  12.958   4.210  11.794 -0.4575  0.7341  0.3081
11757SOL     OW46995   1.043   3.413   6.029 -0.1387 -0.5365 -0.3281
11757SOL    HW146996   1.131   3.450   6.037 -1.1308  1.5553  1.9743
11757SOL    HW246997   1.007   3.455   5.951  0.0054  0.7099  0.2467
11758SOL     OW46998   5.014  13.259   0.431  0.0892 -0.1136 -0.4360
11758SOL    HW146999   5.069  13.227   0.503 -0.3573  0.3232  0.1012
11758SOL    HW247000   4.941  13.303   0.474 -0.7057 -0.7209 -1.1448
11759SOL     OW47001   6.057   7.100  11.731 -0.2050 -0.2028 -0.4022
11759SOL    HW147002   6.055   7.010  11.764 -1.4536 -0.2466 -0.5760
11759SOL    HW247003   5.980   7.108  11.675 -1.3138  1.6052  1.2586
11760SOL     OW47004   7.149   9.222   9.594  0.2260 -0.3312 -0.8393
11760SOL    HW147005   7.110   9.295   9.643  1.0667 -0.3110 -0.1669
11760SOL    HW247006   7.095   9.214   9.515  0.2220  1.1256 -1.0110
11761SOL     OW47007  13.301   7.651   1.842  0.2904 -0.0385  0.1848
11761SOL    HW147008  13.302   7.589   1.915  1.6106  2.8294  2.8588
11761SOL    HW247009  13.391   7.650   1.810  0.3382  0.5368  0.3012
11762SOL     OW47010   8.543   4.856   7.733  0.3043  0.2068  0.5003
11762SOL    HW147011   8.599   4.836   7.808  0.4812  1.5474  0.7589
11762SOL    HW247012   8.588   4.819   7.658  1.3870  0.9810  0.7471
11763SOL     OW47013  11.873   9.304   6.819 -0.4373  0.0941 -0.1684
11763SOL    HW147014  11.918   9.231   6.861  0.2186  0.8933  0.5551
11763SOL    HW247015  11.940   9.346   6.766 -0.1248  1.6174  1.3334
11764SOL     OW47016   0.182  12.972   7.198  0.8707 -0.2084 -0.2950
11764SOL    HW147017   0.240  12.987   7.124  0.6358  1.3893 -0.1764
11764SOL    HW247018   0.237  12.929   7.264  1.4109 -0.4276 -0.8779
11765SOL     OW47019   5.788   5.814   7.335  0.7944 -0.2277 -0.3456
11765SOL    HW147020   5.865   5.869   7.322  1.4634 -1.0623 -0.0102
11765SOL    HW247021   5.767   5.823   7.428 -0.8154  1.6358 -0.8203
11766SOL     OW47022   0.665   7.840   9.248 -0.2732  0.1536  0.3836
11766SOL    HW147023   0.698   7.923   9.283  0.2623  0.0504  0.1367
11766SOL    HW247024   0.570   7.850   9.247 -0.3021  0.2258  1.7028
11767SOL     OW47025  11.323   8.893   2.763 -0.2512  0.6575 -0.3592
11767SOL    HW147026  11.379   8.960   2.803 -0.4139  1.6470 -1.6978
11767SOL    HW247027  11.369   8.869   2.682 -1.8159  1.6873 -1.6308
11768SOL     OW47028   4.248  11.842   3.116 -0.1883 -0.5614 -0.5610
11768SOL    HW147029   4.166  11.847   3.068  0.6008 -1.5901 -2.0999
11768SOL    HW247030   4.292  11.925   3.099 -0.6731 -0.2072 -0.1323
11769SOL     OW47031   1.335   5.821  10.701 -0.0735  0.0223  0.0741
11769SOL    HW147032   1.416   5.846  10.657  0.0557  1.0306  0.8311
11769SOL    HW247033   1.317   5.894  10.761 -0.4558 -1.0902  1.3738
11770SOL     OW47034   1.860   4.732   5.306 -0.1660 -0.3504  0.2550
11770SOL    HW147035   1.916   4.743   5.383  0.2324 -2.2174  0.2808
11770SOL    HW247036   1.835   4.821   5.282  2.5093  0.5408  0.4628
11771SOL     OW47037   0.408   3.100   0.527  0.4545  0.0345 -0.0426
11771SOL    HW147038   0.440   3.089   0.437 -1.7690 -0.8797 -0.7879
11771SOL    HW247039   0.314   3.086   0.521  0.3214 -0.7119  2.5559
11772SOL     OW47040   7.559  11.941  10.474 -0.2530  0.2636 -0.5207
11772SOL    HW147041   7.549  11.867  10.414  0.5875 -0.2868 -0.0082
11772SOL    HW247042   7.616  11.908  10.543 -0.6846  1.0823  0.2504
11773SOL     OW47043  11.305   8.853  10.878  0.0831 -0.5930  0.7518
11773SOL    HW147044  11.343   8.771  10.909  1.5887 -0.6867 -1.1544
11773SOL    HW247045  11.377   8.916  10.879 -0.3248 -0.0576 -0.4426
11774SOL     OW47046   8.766   8.697   3.357 -0.1933  0.2430 -0.0390
11774SOL    HW147047   8.750   8.623   3.299 -1.4600 -1.3107  2.1731
11774SOL    HW247048   8.689   8.752   3.346  0.4960  1.0252 -1.2644
11775SOL     OW47049  11.901   7.322   2.749 -0.2709  0.4988  0.1616
11775SOL    HW147050  11.906   7.352   2.840 -2.2824  2.0408 -0.1765
11775SOL    HW247051  11.810   7.296   2.737  0.2486 -0.8965 -1.0935
11776SOL     OW47052   4.632   4.043   1.056  0.4012  0.1582 -0.2898
11776SOL    HW147053   4.635   3.954   1.020 -1.2201 -0.4185  0.8475
11776SOL    HW247054   4.591   4.032   1.142  2.5373  1.6887  1.0140
11777SOL     OW47055  10.820   6.751   4.949 -0.3890 -0.1273  0.1941
11777SOL    HW147056  10.820   6.723   4.858  2.1723  1.6468 -0.4765
11777SOL    HW247057  10.803   6.672   4.999 -1.5578 -1.1961 -1.7951
11778SOL     OW47058  10.625   2.065  11.729  0.2371  0.0272  0.2241
11778SOL    HW147059  10.643   2.134  11.793 -0.8997  0.9919 -0.4634
11778SOL    HW247060  10.584   1.995  11.781  2.5804 -0.7526  1.1643
11779SOL     OW47061   4.616  12.636   0.976 -0.7151  0.0495 -0.6124
11779SOL    HW147062   4.545  12.587   1.017  0.5399 -1.4643 -0.1491
11779SOL    HW247063   4.625  12.597   0.889 -0.3717  0.1737 -0.6330
11780SOL     OW47064  12.412   7.218  11.057 -0.9466  0.3066  0.1275
11780SOL    HW147065  12.484   7.201  11.118 -0.7997  0.8908  0.1192
11780SOL    HW247066  12.455   7.228  10.972 -1.1308 -0.2855 -0.0401
11781SOL     OW47067   4.249   9.641  12.090 -0.1166 -0.5469  0.5977
11781SOL    HW147068   4.169   9.668  12.134  0.6196  1.3727  0.8498
11781SOL    HW247069   4.219   9.597  12.011 -1.4427  1.4656 -0.0906
11782SOL     OW47070   2.087  13.070   2.099  0.0013  0.2814 -0.3647
11782SOL    HW147071   2.068  12.980   2.126  1.6038 -0.2014 -0.7185
11782SOL    HW247072   2.088  13.066   2.003 -0.7509  0.8738 -0.4049
11783SOL     OW47073   8.222   9.725   1.568 -0.5448  0.1593 -0.3917
11783SOL    HW147074   8.158   9.687   1.507 -1.0774  0.6628 -0.1471
11783SOL    HW247075   8.174   9.794   1.613 -0.0390  0.0480  0.3260
11784SOL     OW47076  13.526   3.717   6.482 -0.3898 -0.5609  0.0141
11784SOL    HW147077  13.525   3.771   6.402 -2.9077  0.7368  0.8084
11784SOL    HW247078  13.563   3.775   6.549  1.1323 -1.4409 -0.0022
11785SOL     OW47079   1.028   8.407   6.188  0.1471 -0.2412  0.3821
11785SOL    HW147080   0.996   8.497   6.177  0.0682 -0.4020 -0.7830
11785SOL    HW247081   1.120   8.411   6.162  0.7018 -0.1174  2.2002
11786SOL     OW47082   8.268   5.661   0.746 -0.6179  0.0058  0.4264
11786SOL    HW147083   8.265   5.664   0.842 -1.5763  0.4130  0.3919
11786SOL    HW247084   8.185   5.620   0.721  0.1713 -1.3010 -0.1958
11787SOL     OW47085   0.225  11.138  12.986  0.0301 -0.4564  0.0676
11787SOL    HW147086   0.237  11.145  12.891 -2.7685 -1.9980 -0.5031
11787SOL    HW247087   0.284  11.067  13.012  0.2206 -0.5873 -0.6856
11788SOL     OW47088   6.664  12.917   5.174  0.0024 -0.2404 -0.1271
11788SOL    HW147089   6.616  12.896   5.254 -1.4978  1.6307 -0.4674
11788SOL    HW247090   6.623  12.862   5.107  0.6801 -1.1740  0.2081
11789SOL     OW47091  10.471  12.577   9.546 -0.5088  0.1439  0.1440
11789SOL    HW147092  10.538  12.516   9.579 -0.6131  0.5584  1.1755
11789SOL    HW247093  10.500  12.598   9.458  0.4411 -0.1030  0.3793
11790SOL     OW47094   8.060  11.390   8.061  0.7282  0.3323 -0.0042
11790SOL    HW147095   8.122  11.428   8.123 -1.4636  1.1064  1.8943
11790SOL    HW247096   8.033  11.308   8.102  1.1613 -0.4520 -1.2511
11791SOL     OW47097   6.315   3.961   8.672  0.5175 -0.3322  0.1171
11791SOL    HW147098   6.334   4.054   8.657 -1.0400  0.0081  0.0623
11791SOL    HW247099   6.306   3.954   8.767  0.8406 -0.4701  0.1368
11792SOL     OW47100  12.532   9.186   6.906 -0.6738  0.7924 -0.1600
11792SOL    HW147101  12.495   9.239   6.836 -1.3494  2.4358  1.3550
11792SOL    HW247102  12.574   9.113   6.861 -0.1378  2.3230 -2.3312
11793SOL     OW47103   2.705   6.465   9.569  0.2860 -0.4612 -0.0275
11793SOL    HW147104   2.742   6.409   9.501 -1.8044 -1.1844 -0.6514
11793SOL    HW247105   2.667   6.404   9.632  0.3763  0.2394  0.7222
11794SOL     OW47106  10.537   4.089  12.563 -0.2399 -0.1397  0.3982
11794SOL    HW147107  10.600   4.023  12.593  0.5826  0.1712 -0.5540
11794SOL    HW247108  10.465   4.084  12.625  0.4901 -0.8865  1.2153
11795SOL     OW47109   7.583   6.555   5.596 -0.0230  0.2723  0.0892
11795SOL    HW147110   7.493   6.569   5.567 -0.2014 -0.4099  0.2780
11795SOL    HW247111   7.581   6.470   5.641  0.2547  1.2683  2.0859
11796SOL     OW47112   0.205   8.777   6.980 -0.2512  0.1842  0.0587
11796SOL    HW147113   0.197   8.870   6.999 -0.1793  0.2739 -0.3617
11796SOL    HW247114   0.221   8.772   6.886 -1.2512 -0.3045 -0.0965
11797SOL     OW47115   9.079   3.366   0.286 -0.3634 -0.3523 -0.6698
11797SOL    HW147116   9.020   3.438   0.263  1.2381  0.9269 -0.8919
11797SOL    HW247117   9.027   3.310   0.344 -2.2042  0.0519 -1.8469
11798SOL     OW47118   1.690   1.670  12.276  0.2086 -0.2043  0.3111
11798SOL    HW147119   1.690   1.639  12.366 -4.0686 -0.6069  0.3531
11798SOL    HW247120   1.662   1.761  12.281 -0.1843 -0.2631 -0.6106
11799SOL     OW47121   4.529   4.253   0.827  0.6008 -0.3091 -0.1473
11799SOL    HW147122   4.507   4.179   0.885  3.1454 -0.5843  0.5897
11799SOL    HW247123   4.538   4.213   0.741 -0.1137 -0.4627 -0.1574
11800SOL     OW47124   0.485  12.830   1.303  0.5533 -0.2475  0.1788
11800SOL    HW147125   0.534  12.887   1.243  0.6014 -0.3569  0.1131
11800SOL    HW247126   0.474  12.748   1.254 -0.1473 -0.0501 -0.0034
11801SOL     OW47127   8.314   8.275   3.378  0.4656  0.1673 -0.1334
11801SOL    HW147128   8.401   8.289   3.414  1.3071 -0.4412 -1.8415
11801SOL    HW247129   8.328   8.265   3.283 -1.3221 -1.0005 -0.3260
11802SOL     OW47130  12.188   3.721   1.772 -0.1620  0.1453 -0.0946
11802SOL    HW147131  12.227   3.806   1.791 -0.0272 -0.2330  1.4613
11802SOL    HW247132  12.139   3.735   1.691 -0.6830  1.8843  0.4656
11803SOL     OW47133   0.988   0.144  13.106 -0.2405 -0.4159 -0.3222
11803SOL    HW147134   0.935   0.064  13.105  1.6737 -1.7587 -0.5619
11803SOL    HW247135   0.992   0.170  13.198  1.0225 -2.0031  0.1232
11804SOL     OW47136   0.594   9.030   2.596  0.1977 -0.3756 -0.4596
11804SOL    HW147137   0.651   9.023   2.673 -0.6791 -2.5897  0.0458
11804SOL    HW247138   0.525   8.966   2.611 -3.1329  2.8194 -0.5392
11805SOL     OW47139   7.903  11.150   8.121 -0.0416  0.2553  0.1034
11805SOL    HW147140   7.893  11.061   8.155  0.1063  0.8900  1.9365
11805SOL    HW247141   7.825  11.165   8.067 -1.9834  0.2341  2.7059
11806SOL     OW47142  12.624  13.524   1.278 -0.2261 -0.3986 -0.5435
11806SOL    HW147143  12.547  13.561   1.321  0.4777 -0.3639  0.7501
11806SOL    HW247144  12.651  13.452   1.335  0.3480 -0.8027 -1.3050
11807SOL     OW47145   4.587   1.393  11.788 -0.0071  0.0670 -0.0934
11807SOL    HW147146   4.662   1.443  11.819 -0.4078  1.6338 -1.5137
11807SOL    HW247147   4.597   1.391  11.693 -2.9879  2.5523 -0.6193
11808SOL     OW47148  11.313  12.507   6.201  0.2495  0.3167  0.4307
11808SOL    HW147149  11.292  12.443   6.134  2.5008 -0.6943  0.6009
11808SOL    HW247150  11.228  12.541   6.230 -0.9693 -1.9748 -0.2475
11809SOL     OW47151   3.707   6.740   6.004  0.0849 -0.0333 -0.1079
11809SOL    HW147152   3.675   6.828   5.987  0.3443  0.1008  0.0798
11809SOL    HW247153   3.766   6.750   6.079 -1.2085 -0.6297  1.0456
11810SOL     OW47154   2.174   7.943   9.693  0.2303 -0.1483  0.1639
11810SOL    HW147155   2.252   7.924   9.642  0.9186  1.6076  0.4790
11810SOL    HW247156   2.192   7.905   9.779  0.2394 -0.7407 -0.0961
11811SOL     OW47157   2.843   4.877   7.290 -0.0076 -0.4991  0.2477
11811SOL    HW147158   2.898   4.814   7.243  0.5063  0.1942 -0.1112
11811SOL    HW247159   2.759   4.875   7.245  0.6851  0.6447 -1.1573
11812SOL     OW47160   8.011  10.976   6.913  0.3349 -0.5056 -0.2137
11812SOL    HW147161   8.095  10.982   6.960  0.6585 -1.6204 -0.6239
11812SOL    HW247162   7.959  11.047   6.950  0.9135 -0.7563  1.1657
11813SOL     OW47163   9.188  10.449   3.173  0.1202 -0.2408  0.3020
11813SOL    HW147164   9.171  10.488   3.258  0.4615  0.7987 -0.0920
11813SOL    HW247165   9.271  10.487   3.145 -0.2214 -0.2006 -0.6983
11814SOL     OW47166   0.996   0.424  10.127  0.6087  0.1902  0.1518
11814SOL    HW147167   0.930   0.450  10.191 -0.3647  1.2883 -1.2448
11814SOL    HW247168   1.046   0.504  10.110  1.0190 -0.1540 -0.2948
11815SOL     OW47169   2.904  11.245   9.695  0.3135  0.2831  0.3453
11815SOL    HW147170   2.813  11.234   9.665  0.6433  0.2132 -0.6920
11815SOL    HW247171   2.906  11.331   9.735  0.6281  2.0404 -3.1003
11816SOL     OW47172   5.514  10.097   0.829  0.1878 -0.3524  0.1037
11816SOL    HW147173   5.454  10.134   0.894 -1.2604  0.7890 -1.7635
11816SOL    HW247174   5.594  10.148   0.838 -0.9068  1.6334 -0.7011
11817SOL     OW47175   8.721   3.192   4.346 -0.3617  0.2867  0.1864
11817SOL    HW147176   8.750   3.101   4.340 -1.7996 -0.1780 -0.2303
11817SOL    HW247177   8.788   3.235   4.399  0.8018 -0.8019 -0.3423
11818SOL     OW47178   0.132   8.583   1.215 -0.1379 -0.2686  0.7954
11818SOL    HW147179   0.069   8.647   1.249  0.1418  0.3664  0.1408
11818SOL    HW247180   0.210   8.635   1.193  0.9296 -1.1331  2.3069
11819SOL     OW47181   9.673  10.273   6.587 -0.1493 -0.5497 -0.2635
11819SOL    HW147182   9.742  10.208   6.575  0.8666  0.5057 -0.3372
11819SOL    HW247183   9.644  10.293   6.498  1.2715  0.8632 -0.4643
11820SOL     OW47184   7.997   5.173  12.617  0.4584  0.3664  0.1998
11820SOL    HW147185   8.072   5.150  12.562  0.9735  0.0135  1.0283
11820SOL    HW247186   8.001   5.112  12.690 -2.3266 -1.5730 -1.1320
11821SOL     OW47187   8.726  10.858  12.460  0.4501 -0.3459  0.1230
11821SOL    HW147188   8.670  10.841  12.536 -0.7078  0.4876 -0.5100
11821SOL    HW247189   8.689  10.804  12.390 -0.2992  1.0487 -0.5999
11822SOL     OW47190   7.853  12.297   9.192 -0.6042  0.2703 -0.1726
11822SOL    HW147191   7.920  12.365   9.183  0.3218 -0.1294  2.6073
11822SOL    HW247192   7.874  12.233   9.124  0.9471  0.9051 -0.3311
11823SOL     OW47193   0.485   0.169  13.620  0.2537  0.4493 -0.2887
11823SOL    HW147194   0.483   0.151  13.714 -0.0031  0.0887 -0.3639
11823SOL    HW247195   0.481   0.083  13.579  3.0206  0.3796 -0.6137
11824SOL     OW47196  12.642  12.391   5.256 -0.0344 -0.6337 -0.5528
11824SOL    HW147197  12.671  12.354   5.339  1.4559  1.0901 -0.2406
11824SOL    HW247198  12.649  12.319   5.193 -0.8798 -1.8668  0.7104
11825SOL     OW47199   6.734   5.129  11.611 -0.0184  0.4662 -0.0660
11825SOL    HW147200   6.698   5.218  11.615  1.6347  1.1262  1.2213
11825SOL    HW247201   6.819   5.139  11.569 -0.4221 -0.7745 -1.2633
11826SOL     OW47202   2.564  13.169   6.644  0.0814 -0.1252 -0.4343
11826SOL    HW147203   2.499  13.221   6.690 -0.9528 -1.4159 -0.3568
11826SOL    HW247204   2.614  13.125   6.713  0.5245  0.2568 -0.5071
11827SOL     OW47205   6.452   6.198   2.350 -0.1407  0.4370  0.2997
11827SOL    HW147206   6.450   6.258   2.424 -0.3521 -1.0768  1.5645
11827SOL    HW247207   6.517   6.132   2.374  0.4251  0.3778 -1.2631
11828SOL     OW47208   9.163   1.284   1.817  0.1257 -0.0797  0.1121
11828SOL    HW147209   9.150   1.200   1.773  1.4826 -0.3220  0.1437
11828SOL    HW247210   9.100   1.282   1.890 -0.6801 -0.5482 -0.5748
11829SOL     OW47211  11.714  12.078   1.699 -0.1863  0.5228  0.2843
11829SOL    HW147212  11.697  12.043   1.786  2.3873  2.1381  1.5727
11829SOL    HW247213  11.674  12.016   1.639  0.1281 -2.0150  2.5364
11830SOL     OW47214   4.080   2.952   7.061 -0.7488  0.1050 -0.1576
11830SOL    HW147215   4.019   3.026   7.056 -0.8095  0.0411 -0.3655
11830SOL    HW247216   4.052   2.904   7.139 -2.2605 -1.0516 -1.3487
11831SOL     OW47217   2.882  11.831  11.932 -0.0844 -0.0876  0.0222
11831SOL    HW147218   2.848  11.805  12.018  1.0733  0.4504  0.6620
11831SOL    HW247219   2.921  11.751  11.897  0.5939 -0.0016  0.5698
11832SOL     OW47220  12.801  11.220   5.329  0.3123  0.6552  0.3069
11832SOL    HW147221  12.727  11.256   5.280  1.0076  2.1812  0.2974
11832SOL    HW247222  12.854  11.297   5.351  2.4802 -0.4761 -0.6659
11833SOL     OW47223  12.042  11.362  13.203  0.5735  0.1170 -0.2139
11833SOL    HW147224  12.103  11.435  13.192 -0.8224  1.2854 -0.6053
11833SOL    HW247225  12.003  11.376  13.289  0.0480  0.0252 -0.4333
11834SOL     OW47226   9.638  13.491   0.904 -0.2626  0.5549  0.5145
11834SOL    HW147227   9.612  13.408   0.943  0.1806  0.3576  0.3956
11834SOL    HW247228   9.692  13.533   0.972 -1.2498  1.1686  0.9434
11835SOL     OW47229   6.849   7.961   5.533 -0.5445 -0.2438  0.4710
11835SOL    HW147230   6.767   7.920   5.504 -0.0523 -1.0234  0.1475
11835SOL    HW247231   6.916   7.924   5.476  0.3917 -1.4500  2.2395
11836SOL     OW47232   0.104   8.061  12.981 -0.2963 -0.4545  0.5331
11836SOL    HW147233   0.103   8.091  13.072 -0.0215  1.2617  0.0037
11836SOL    HW247234   0.178   8.000  12.977 -0.3797 -0.6462  1.4722
11837SOL     OW47235  11.926  13.222   0.294  0.0407  0.4008 -0.6171
11837SOL    HW147236  11.921  13.241   0.388 -2.4562  0.3496 -0.6896
11837SOL    HW247237  11.858  13.157   0.279  0.5554  0.2369 -2.4611
11838SOL     OW47238   3.563   2.467   5.839  0.2394  0.0866  0.2462
11838SOL    HW147239   3.649   2.428   5.824  1.1507  2.2375 -0.5446
11838SOL    HW247240   3.580   2.540   5.898 -1.3370 -0.4147  1.4009
11839SOL     OW47241  11.494  12.742  12.355  0.0820 -0.0973  0.3643
11839SOL    HW147242  11.558  12.709  12.418  1.2112 -0.0904 -0.7645
11839SOL    HW247243  11.415  12.758  12.408  1.2499  0.7240  1.9353
11840SOL     OW47244  10.487   6.316  10.800  0.9714  0.4738  0.1734
11840SOL    HW147245  10.565   6.363  10.771  2.4525 -1.0957  1.3758
11840SOL    HW247246  10.444   6.287  10.720  2.5981 -0.1011 -0.5178
11841SOL     OW47247   8.121  11.381   0.897 -0.6081  0.1421 -0.0610
11841SOL    HW147248   8.054  11.320   0.865 -1.9011  0.6763  1.4954
11841SOL    HW247249   8.164  11.334   0.968 -0.6569  0.5144  0.2192
11842SOL     OW47250  10.411   8.880  11.423 -0.3169  0.2870  0.1809
11842SOL    HW147251  10.387   8.802  11.374  0.2924 -0.3230  0.8279
11842SOL    HW247252  10.440   8.943  11.357  0.5427 -0.5317 -0.2365
11843SOL     OW47253  12.335   9.759   2.898  0.3298 -0.8059  0.5332
11843SOL    HW147254  12.361   9.831   2.841  0.4513 -1.4379 -0.2198
11843SOL    HW247255  12.293   9.696   2.840 -1.1808 -0.6718  1.4163
11844SOL     OW47256   6.698   1.981  11.646  0.1890  0.1749 -0.0615
11844SOL    HW147257   6.686   1.913  11.580 -0.1316 -0.8844  1.0362
11844SOL    HW247258   6.694   2.063  11.598  0.7533 -0.5912 -1.4460
11845SOL     OW47259   2.747   7.106  11.271  0.0799  0.3698 -0.5654
11845SOL    HW147260   2.655   7.081  11.260 -0.1348  0.6436  0.5218
11845SOL    HW247261   2.754   7.191  11.228 -0.5706  1.0950  0.7094
11846SOL     OW47262   4.170   9.017   2.003  0.0826 -0.8103  0.0923
11846SOL    HW147263   4.074   9.022   1.999  0.0207 -1.5731  0.4668
11846SOL    HW247264   4.200   9.100   1.966 -0.7444 -0.1348  0.8838
11847SOL     OW47265   2.103  10.234  11.509 -0.0850  0.7759  0.2637
11847SOL    HW147266   2.009  10.251  11.515  0.0632  1.5170  0.6964
11847SOL    HW247267   2.117  10.154  11.559 -0.4860  0.6500  0.1752
11848SOL     OW47268   1.035   7.467  11.952 -0.3549 -0.3175 -0.6542
11848SOL    HW147269   1.059   7.529  12.021 -0.8952  0.0480 -0.7885
11848SOL    HW247270   1.093   7.392  11.966  0.7849  0.4915 -0.9175
11849SOL     OW47271   2.176   7.100   1.839 -0.2962  0.9251 -0.1314
11849SOL    HW147272   2.162   7.074   1.748 -1.2028  2.2941 -0.4191
11849SOL    HW247273   2.185   7.018   1.887  0.0232  0.1839 -1.4295
11850SOL     OW47274   0.511  11.227  12.735  0.4739 -0.4257 -0.1776
11850SOL    HW147275   0.420  11.255  12.720  1.2559  1.5825 -1.6158
11850SOL    HW247276   0.534  11.265  12.820  0.4993  0.5969 -0.6285
11851SOL     OW47277   8.360  10.224  12.573  0.5355 -0.7532  0.0783
11851SOL    HW147278   8.356  10.165  12.498  1.0384 -0.2002 -0.3949
11851SOL    HW247279   8.292  10.192  12.633 -1.7489  0.3532 -1.7481
11852SOL     OW47280   8.534   2.042   3.963 -0.0733  0.3310 -0.4808
11852SOL    HW147281   8.628   2.060   3.960 -0.5053  2.7999 -1.0247
11852SOL    HW247282   8.526   1.952   3.932  2.1280 -0.0919 -0.0090
11853SOL     OW47283   3.428   5.992  11.596 -0.0453 -0.0443  0.0874
11853SOL    HW147284   3.428   6.023  11.505 -0.8916  0.2609  0.1856
11853SOL    HW247285   3.515   6.013  11.628  0.1524  0.1478 -0.5545
11854SOL     OW47286   9.790   5.070  11.617 -0.1911 -0.5902  0.4064
11854SOL    HW147287   9.818   5.021  11.540  0.8028 -0.1292  0.4676
11854SOL    HW247288   9.814   5.161  11.599 -3.7367  0.3238 -0.5545
11855SOL     OW47289   5.284   0.530   1.144 -0.0070  0.1005  0.0115
11855SOL    HW147290   5.233   0.596   1.097  0.4105 -0.9081 -2.0122
11855SOL    HW247291   5.230   0.505   1.218 -0.2385  2.5727  0.7642
11856SOL     OW47292   3.429   7.021   0.871  0.7898  0.7828  0.6867
11856SOL    HW147293   3.498   6.963   0.903 -0.1929 -1.0960 -0.4196
11856SOL    HW247294   3.473   7.075   0.805  1.7121  1.2606  1.6760
11857SOL     OW47295  11.038  13.356   3.942  0.3123  0.0027  0.0568
11857SOL    HW147296  10.973  13.417   3.975 -0.7065  0.2089 -2.1317
11857SOL    HW247297  11.109  13.411   3.909  0.5907 -0.1261  0.4336
11858SOL     OW47298   9.046   8.246   1.714  0.1766  0.4577  0.4113
11858SOL    HW147299   8.990   8.265   1.789 -1.9880 -1.6993 -0.5372
11858SOL    HW247300   9.107   8.179   1.746 -1.1014 -0.8646  0.1480
11859SOL     OW47301   7.140  12.774   1.916 -0.2662  0.1885  0.1732
11859SOL    HW147302   7.186  12.853   1.945  2.7297 -1.5616  0.6191
11859SOL    HW247303   7.192  12.741   1.844 -0.7896 -1.9531  0.7001
11860SOL     OW47304   7.989  12.363   9.693 -0.1005 -0.0900  0.1033
11860SOL    HW147305   8.046  12.398   9.761  0.1910 -1.1954  0.4510
11860SOL    HW247306   7.903  12.356   9.734  0.2626 -1.5918  0.6783
11861SOL     OW47307   2.905   2.225  13.530 -0.5177  0.3069 -0.1553
11861SOL    HW147308   2.899   2.259  13.441 -1.8228  0.1220 -0.1522
11861SOL    HW247309   2.973   2.278  13.571  2.5435 -1.7168 -2.1694
11862SOL     OW47310   3.768   8.391   3.329  0.0804 -0.0303  0.6920
11862SOL    HW147311   3.756   8.347   3.245 -1.4431  0.8483  0.4075
11862SOL    HW247312   3.754   8.323   3.394 -2.6203  0.0435  0.2738
11863SOL     OW47313   5.926  12.323   2.560 -0.1378  0.2214  0.5139
11863SOL    HW147314   5.893  12.251   2.614 -0.4683  1.7811  2.5369
11863SOL    HW247315   6.020  12.323   2.577 -0.0590 -0.0687  0.0793
11864SOL     OW47316   2.905  12.831   3.690  0.5708 -0.1276 -0.9945
11864SOL    HW147317   2.852  12.910   3.699  0.5631 -0.2858  0.5408
11864SOL    HW247318   2.850  12.760   3.723  0.9015 -0.6597 -1.5440
11865SOL     OW47319  10.020   5.147   9.973 -0.4784 -0.6823 -0.1681
11865SOL    HW147320  10.009   5.222   9.915 -0.6418  0.0099  0.7429
11865SOL    HW247321  10.003   5.071   9.917  0.6378 -0.0996 -1.3332
11866SOL     OW47322   9.091   0.584   3.601  0.3190 -0.0704  0.6025
11866SOL    HW147323   9.143   0.653   3.560 -0.9260  1.3328  1.3126
11866SOL    HW247324   9.155   0.528   3.644  1.5499 -0.7057 -1.8675
11867SOL     OW47325   0.361  11.195   4.782  0.2407 -0.5221 -0.3827
11867SOL    HW147326   0.335  11.118   4.731 -1.1539  0.4607 -1.2086
11867SOL    HW247327   0.333  11.270   4.730 -0.3783  0.5385  1.3740
11868SOL     OW47328   0.408   0.580   1.051  0.0648 -0.0439 -0.4687
11868SOL    HW147329   0.406   0.579   1.147  3.7482 -0.9002 -0.2553
11868SOL    HW247330   0.354   0.506   1.025 -1.7358  0.7346  0.8594
11869SOL     OW47331   9.227   5.641   6.713  0.1763  0.0779  0.2375
11869SOL    HW147332   9.208   5.717   6.659  0.2566  1.1952  1.7305
11869SOL    HW247333   9.322   5.627   6.703 -0.0348 -0.6468 -1.0235
11870SOL     OW47334   2.695   3.352   8.810  0.1514  0.5836  0.6517
11870SOL    HW147335   2.677   3.421   8.874  0.6578  1.2250  0.1206
11870SOL    HW247336   2.790   3.355   8.798  0.1554 -0.0998  0.5043
11871SOL     OW47337  10.450  12.591   6.112  0.0059  0.0376  0.0683
11871SOL    HW147338  10.404  12.562   6.191 -0.3876  0.8093  0.1277
11871SOL    HW247339  10.522  12.645   6.145  0.5021 -0.5302 -0.0613
11872SOL     OW47340  13.034   2.847   6.491  0.1138  0.4074  0.0686
11872SOL    HW147341  13.085   2.821   6.568  1.2866 -0.2834 -0.8840
11872SOL    HW247342  13.100   2.862   6.423 -0.8667  1.3068 -0.7203
11873SOL     OW47343   6.545   4.186   9.445  0.2635 -0.2459  0.6947
11873SOL    HW147344   6.585   4.203   9.359 -0.3809 -0.7203  0.2871
11873SOL    HW247345   6.567   4.263   9.497  1.2702 -0.2763  0.3255
11874SOL     OW47346   1.095   6.024   8.115  0.5490 -0.1650 -0.5129
11874SOL    HW147347   1.049   5.974   8.183 -1.0170  0.8448 -0.7814
11874SOL    HW247348   1.038   6.018   8.038  1.1955  0.5549 -1.0589
11875SOL     OW47349  13.299   9.637  11.736  0.1245 -0.7820  0.0992
11875SOL    HW147350  13.344   9.562  11.698  0.8690 -0.9978  1.3207
11875SOL    HW247351  13.348   9.713  11.704  1.1478 -0.9934  1.0581
11876SOL     OW47352  12.256  13.199   2.170 -0.0039 -0.3910 -0.6606
11876SOL    HW147353  12.213  13.285   2.170  0.0605 -0.3210 -2.4337
11876SOL    HW247354  12.271  13.180   2.077  0.5361 -2.0532 -0.2598
11877SOL     OW47355   8.144   1.488  12.126 -0.2528  0.2068 -0.0849
11877SOL    HW147356   8.064   1.459  12.171 -0.9532 -0.6788 -1.8128
11877SOL    HW247357   8.206   1.416  12.139 -0.6094 -0.2541 -0.9147
11878SOL     OW47358   0.275   4.167   0.247 -0.2042  0.1650 -0.3927
11878SOL    HW147359   0.370   4.154   0.250 -0.3776 -2.7818 -2.8160
11878SOL    HW247360   0.264   4.262   0.247  2.7295  0.6108 -0.0962
11879SOL     OW47361  12.203   4.193   4.468  0.4867 -0.3931 -0.1469
11879SOL    HW147362  12.261   4.117   4.464  0.6449 -0.2036 -2.4741
11879SOL    HW247363  12.151   4.189   4.388 -1.2536  0.6262  0.8504
11880SOL     OW47364   9.962   4.014   2.833 -0.2406  0.4052 -0.0622
11880SOL    HW147365   9.965   4.098   2.878  1.1102  1.5759 -2.1300
11880SOL    HW247366   9.878   4.014   2.787 -0.2520  0.6409 -0.0421
11881SOL     OW47367   5.247   5.120   8.937  0.4771 -0.5771  0.3698
11881SOL    HW147368   5.173   5.138   8.880  1.1420  0.6184 -0.1349
11881SOL    HW247369   5.292   5.046   8.896  0.7177  0.0113 -0.4375
11882SOL     OW47370   8.172   0.711  12.172  0.5579  0.0184 -0.3416
11882SOL    HW147371   8.198   0.779  12.110  0.8291  0.4677  0.2523
11882SOL    HW247372   8.108   0.753  12.228  1.6177  0.1760  0.8005
11883SOL     OW47373   2.479   3.841   3.707  0.2275  0.3229 -0.0264
11883SOL    HW147374   2.394   3.837   3.661  0.5158  0.0798 -0.5443
11883SOL    HW247375   2.463   3.796   3.790  0.2326 -1.0268 -0.7334
11884SOL     OW47376  13.264  11.232   4.290  0.1854 -0.3727 -0.3477
11884SOL    HW147377  13.215  11.302   4.334  0.7531 -1.1583  1.6398
11884SOL    HW247378  13.210  11.209   4.215 -1.6250  0.0237  0.7696
11885SOL     OW47379   4.740  13.240   7.476 -0.0253 -0.3550  0.4689
11885SOL    HW147380   4.724  13.233   7.570 -3.0536 -0.4204  0.0636
11885SOL    HW247381   4.653  13.252   7.438  1.2768  1.7770 -2.1723
11886SOL     OW47382   7.859   8.383   4.550  0.4290 -0.3609  0.0723
11886SOL    HW147383   7.798   8.310   4.549 -1.4020  1.0051 -3.1016
11886SOL    HW247384   7.941   8.346   4.518 -0.0914 -1.3073 -0.1936
11887SOL     OW47385  11.605  10.867  12.128  0.3322 -0.1044  0.0772
11887SOL    HW147386  11.578  10.794  12.184  1.9063  0.3661  1.5237
11887SOL    HW247387  11.673  10.830  12.072  1.8462  0.4089  1.4870
11888SOL     OW47388   2.964  10.991   7.876  0.3893 -0.2035  0.3118
11888SOL    HW147389   3.014  10.958   7.801  0.6287 -0.0908  0.4221
11888SOL    HW247390   3.031  11.016   7.940  0.1914 -0.0301  0.4499
11889SOL     OW47391   7.329  10.450   9.344 -0.4715  0.7302 -0.4429
11889SOL    HW147392   7.326  10.386   9.415  3.7486 -0.5469 -1.1131
11889SOL    HW247393   7.313  10.398   9.264 -0.7635  1.2714 -0.7414
11890SOL     OW47394  13.497   5.158   7.079  0.1347 -0.5157 -0.6231
11890SOL    HW147395  13.569   5.106   7.112 -0.2234 -1.4170 -1.2330
11890SOL    HW247396  13.422   5.099   7.078 -0.4585  0.2128 -0.6308
11891SOL     OW47397   1.666   9.973   9.101 -0.3212 -0.0441 -0.2102
11891SOL    HW147398   1.719  10.051   9.090 -0.2237 -0.1601 -0.5687
11891SOL    HW247399   1.714   9.919   9.164 -0.3489  0.1470 -0.0262
11892SOL     OW47400   5.234  13.389   8.798  0.2788  0.4928  0.5307
11892SOL    HW147401   5.281  13.307   8.814  0.7161  0.7473  0.5577
11892SOL    HW247402   5.142  13.362   8.790  0.1852  0.1864  2.1883
11893SOL     OW47403   9.302   6.663   4.786  0.0844  0.6313 -0.6255
11893SOL    HW147404   9.277   6.688   4.697 -2.3525  1.2143  0.1701
11893SOL    HW247405   9.229   6.611   4.818  2.2325 -2.1973  0.0677
11894SOL     OW47406  11.614  12.968   9.305 -0.2140  0.1049  0.2581
11894SOL    HW147407  11.703  13.002   9.296  0.6306 -1.7044  1.1048
11894SOL    HW247408  11.621  12.902   9.374 -1.8397 -1.3165 -0.8452
11895SOL     OW47409   1.957  11.715  10.187 -0.0113  0.2609 -0.0909
11895SOL    HW147410   1.992  11.717  10.097 -1.0122  0.6909 -0.4905
11895SOL    HW247411   1.912  11.799  10.196 -0.7861 -0.2029  0.4525
11896SOL     OW47412  12.949   5.309  12.615  0.1852 -0.1422 -0.1536
11896SOL    HW147413  12.873   5.276  12.663  0.3837  1.0551  1.0115
11896SOL    HW247414  12.993   5.368  12.676  1.4431  0.0466 -1.1998
11897SOL     OW47415  13.216   4.976  12.201  0.0862 -0.2159  0.4330
11897SOL    HW147416  13.310   4.968  12.215  0.1496  0.8415  0.6458
11897SOL    HW247417  13.193   5.063  12.233 -1.1296 -0.7902  1.2436
11898SOL     OW47418   4.754   9.701   1.811  0.0413  0.1167  0.2831
11898SOL    HW147419   4.674   9.714   1.862  0.9482  2.9595  1.2032
11898SOL    HW247420   4.816   9.663   1.872  0.2756  0.8098  0.4853
11899SOL     OW47421   0.700  13.161  12.507 -0.6829 -0.0129  0.3847
11899SOL    HW147422   0.611  13.136  12.486 -0.7446 -0.4605  1.1496
11899SOL    HW247423   0.728  13.097  12.573  0.2833 -0.0288 -0.0238
11900SOL     OW47424   3.114   3.507  11.673 -1.2486 -0.4265 -0.6635
11900SOL    HW147425   3.049   3.573  11.646 -2.8782 -1.1548  1.2208
11900SOL    HW247426   3.070   3.457  11.741  1.4729 -0.7084  1.0246
11901SOL     OW47427  11.798   3.655   9.527  0.2638  0.4641  0.8613
11901SOL    HW147428  11.778   3.745   9.504 -0.3502  0.2294  0.4451
11901SOL    HW247429  11.718   3.622   9.568  0.1145 -0.1953  0.0746
11902SOL     OW47430   6.122   3.185   8.043  0.6556  0.3645  0.1724
11902SOL    HW147431   6.120   3.276   8.070  2.4409 -0.1098  2.1377
11902SOL    HW247432   6.095   3.136   8.121 -0.8275 -0.8034 -1.0039
11903SOL     OW47433   6.313  13.555   9.517 -0.1220 -0.6847 -0.1132
11903SOL    HW147434   6.308  13.638   9.565  0.4001  0.6973 -2.3156
11903SOL    HW247435   6.360  13.496   9.576  0.9516  1.0857  0.8957
11904SOL     OW47436   4.481   3.007   5.167 -0.4747 -0.4611 -0.0965
11904SOL    HW147437   4.412   3.039   5.226 -1.2320 -0.5384 -0.9082
11904SOL    HW247438   4.469   2.912   5.167 -0.5826 -0.4457 -0.5067
11905SOL     OW47439   4.605   4.642   2.896 -0.0427  0.3549  0.7275
11905SOL    HW147440   4.593   4.561   2.845  1.3498 -0.1534  1.1656
11905SOL    HW247441   4.552   4.629   2.975  0.4961 -0.3018  0.9828
11906SOL     OW47442   1.573   7.167   0.478  0.1498  0.1359  0.0558
11906SOL    HW147443   1.536   7.256   0.481 -0.6423 -0.1944  0.3450
11906SOL    HW247444   1.543   7.132   0.394 -0.1604 -0.1164  0.2693
11907SOL     OW47445   4.836   1.815   5.309  0.2655  0.1956 -0.1241
11907SOL    HW147446   4.873   1.895   5.346  2.1822 -0.3115 -0.8638
11907SOL    HW247447   4.797   1.770   5.384 -2.6039  2.6435  0.0593
11908SOL     OW47448   1.462  10.669   1.441 -0.0154  0.1834  0.0520
11908SOL    HW147449   1.468  10.581   1.404 -1.0310  0.2839 -0.3843
11908SOL    HW247450   1.464  10.655   1.535  2.7768 -0.0652  0.0248
11909SOL     OW47451   6.283   5.566   0.710  0.1393 -0.0583 -0.5125
11909SOL    HW147452   6.319   5.649   0.681 -1.0307  0.6728  0.0289
11909SOL    HW247453   6.213   5.546   0.647  0.8727 -1.0080 -1.0516
11910SOL     OW47454   5.421   0.382  12.761 -0.0746 -0.1538  0.5753
11910SOL    HW147455   5.356   0.382  12.831  1.0796  0.0330  1.6810
11910SOL    HW247456   5.369   0.387  12.680 -1.4004  0.8023  1.4373
11911SOL     OW47457   0.307   5.101   7.132  0.2381 -0.1350  0.3266
11911SOL    HW147458   0.326   5.058   7.215 -0.6190 -0.4773  0.3602
11911SOL    HW247459   0.334   5.039   7.065  1.0282  0.1843  0.3398
11912SOL     OW47460   1.751  12.242   0.777  0.0211  0.2585  0.5530
11912SOL    HW147461   1.761  12.193   0.695  1.3600 -1.2652  1.5564
11912SOL    HW247462   1.742  12.333   0.749 -0.9314 -0.3552 -1.3270
11913SOL     OW47463  11.343   9.505   3.139 -0.3982 -0.7558 -0.3155
11913SOL    HW147464  11.399   9.433   3.108 -0.5247 -1.9508  2.0067
11913SOL    HW247465  11.255   9.468   3.140 -0.8868  0.3066 -1.5571
11914SOL     OW47466   7.115   9.271   5.131  0.5025  0.1281  0.7177
11914SOL    HW147467   7.031   9.241   5.164 -0.1238  0.7010 -0.3175
11914SOL    HW247468   7.179   9.238   5.194 -0.3397 -1.6747  0.6902
11915SOL     OW47469   9.316   0.607  11.439  0.5243  0.0016  0.0246
11915SOL    HW147470   9.401   0.650  11.435  0.2184  0.5208 -1.2388
11915SOL    HW247471   9.337   0.514  11.442  1.1367  0.0618 -1.5669
11916SOL     OW47472   2.422   7.694   7.598  0.2228  0.0123 -0.0906
11916SOL    HW147473   2.334   7.692   7.559 -0.2275 -2.1508  0.8538
11916SOL    HW247474   2.468   7.762   7.550 -1.5997  0.3759 -1.4492
11917SOL     OW47475   0.687   2.669   6.529  0.4102 -0.7979  0.0552
11917SOL    HW147476   0.725   2.747   6.489 -0.2414 -0.4847  0.0176
11917SOL    HW247477   0.657   2.700   6.615 -2.2326 -0.2836 -0.9500
11918SOL     OW47478   5.916  13.627   5.212  0.5787  0.0817 -0.0282
11918SOL    HW147479   5.985  13.589   5.267 -0.4170 -1.2016  0.3968
11918SOL    HW247480   5.835  13.608   5.260 -0.0953  1.5481 -0.5133
11919SOL     OW47481  11.248   8.807   8.958 -0.0153  0.5543  0.3841
11919SOL    HW147482  11.232   8.750   8.883 -0.3600  0.2845  0.6614
11919SOL    HW247483  11.187   8.880   8.947 -1.0372 -0.1647  1.1144
11920SOL     OW47484  10.614   3.958   8.460  0.4531 -0.4890 -0.2458
11920SOL    HW147485  10.589   4.042   8.421 -2.4693 -1.2264 -0.1603
11920SOL    HW247486  10.663   3.982   8.539  0.6338  1.1037 -0.8105
11921SOL     OW47487   0.684   9.144   0.905 -0.6065 -0.5666 -0.3194
11921SOL    HW147488   0.665   9.179   0.818  0.5917  0.6988 -0.0966
11921SOL    HW247489   0.733   9.063   0.888 -0.1394 -0.1849 -0.8258
11922SOL     OW47490   1.030   7.319   9.921 -0.0537  0.3058 -0.1308
11922SOL    HW147491   1.072   7.303   9.837  1.7261  0.6912  0.6295
11922SOL    HW247492   1.075   7.396   9.957 -0.4446 -0.1154  1.3517
11923SOL     OW47493  10.600   2.652   4.711 -0.4859  0.1625 -0.0280
11923SOL    HW147494  10.547   2.572   4.708 -2.1677  1.2516 -1.3386
11923SOL    HW247495  10.637   2.658   4.623  2.3516 -0.8278  0.9809
11924SOL     OW47496   7.146  10.617   1.109  0.5609  0.0334  0.0784
11924SOL    HW147497   7.075  10.682   1.111 -0.2003 -0.6806 -1.7268
11924SOL    HW247498   7.100  10.533   1.100  1.5905 -0.6219  0.7996
11925SOL     OW47499   1.312  12.421   3.328 -0.5048 -0.0576  0.0720
11925SOL    HW147500   1.356  12.423   3.413  0.4918  1.5842 -0.4443
11925SOL    HW247501   1.296  12.513   3.307 -0.3264 -0.3967 -1.7052
11926SOL     OW47502  12.876   7.509   2.783  0.0494  0.2812 -0.1919
11926SOL    HW147503  12.942   7.462   2.834 -0.0829  1.2971  0.9630
11926SOL    HW247504  12.804   7.522   2.844 -0.7736  0.1446 -1.1185
11927SOL     OW47505   4.816  10.610   0.677  0.2262  0.1454  0.1589
11927SOL    HW147506   4.738  10.637   0.726 -1.2767 -0.8209 -1.5626
11927SOL    HW247507   4.889  10.655   0.721 -1.2704  1.0572  1.8587
11928SOL     OW47508   6.585   3.705  12.133 -0.2154  0.0872  0.1110
11928SOL    HW147509   6.636   3.776  12.172 -1.9439  0.0816  2.6349
11928SOL    HW247510   6.514   3.750  12.086 -0.4862  0.0661  0.4933
11929SOL     OW47511  11.560   9.886   9.519 -0.3655 -0.5927  0.0122
11929SOL    HW147512  11.629   9.944   9.549 -0.7510 -0.0141 -0.1875
11929SOL    HW247513  11.506   9.871   9.597 -0.2665 -0.6803  0.0638
11930SOL     OW47514   0.477   5.101  10.516  0.0417 -0.8605 -0.0103
11930SOL    HW147515   0.558   5.112  10.466  0.1070  0.2258  0.3121
11930SOL    HW247516   0.407   5.109  10.450  0.1761 -1.3414 -0.2165
11931SOL     OW47517   1.416   0.072   1.700  0.1408 -0.3639  0.0611
11931SOL    HW147518   1.359   0.090   1.776  0.9646  2.3688  0.1344
11931SOL    HW247519   1.355   0.048   1.630 -1.0842  1.3244  0.4603
11932SOL     OW47520  12.808   1.270   7.122 -0.0112  0.3002 -0.3712
11932SOL    HW147521  12.729   1.320   7.143  0.0336  0.2591 -0.1026
11932SOL    HW247522  12.874   1.302   7.184  0.4868  1.1079 -1.2847
11933SOL     OW47523   1.817   3.291   5.064  0.1347  0.3007 -0.5901
11933SOL    HW147524   1.814   3.348   5.141  1.8512  0.6403 -0.7543
11933SOL    HW247525   1.805   3.203   5.099 -1.2724  0.6084 -0.2017
11934SOL     OW47526   6.288  11.250   5.170 -0.5122 -0.1673  0.2422
11934SOL    HW147527   6.323  11.269   5.257  0.6707 -0.9456 -0.0525
11934SOL    HW247528   6.305  11.157   5.156  0.7893  0.2839 -1.4739
11935SOL     OW47529   3.736   8.498   1.061 -0.0807  0.1764  0.3872
11935SOL    HW147530   3.817   8.453   1.038  0.1050  0.0270  1.2989
11935SOL    HW247531   3.752   8.589   1.036 -0.0474 -0.0488 -0.4452
11936SOL     OW47532   8.014   2.689   8.478 -0.0369 -0.4757 -0.3248
11936SOL    HW147533   7.996   2.602   8.512  2.0542 -0.4558  1.0586
11936SOL    HW247534   8.107   2.687   8.454 -0.0825  1.1893 -0.7769
11937SOL     OW47535   1.859   2.028   0.437 -0.1691 -0.6334 -0.3767
11937SOL    HW147536   1.848   2.122   0.421 -1.3173 -0.8592 -0.9620
11937SOL    HW247537   1.848   1.987   0.351 -0.5038 -1.3722  0.0044
11938SOL     OW47538   9.861  13.541   9.312  0.4042 -0.2003 -0.2020
11938SOL    HW147539   9.945  13.551   9.268  0.6659  2.6479  0.7066
11938SOL    HW247540   9.880  13.495   9.393  0.4799 -2.4431 -1.4268
11939SOL     OW47541   6.301  11.227   2.553  0.4320 -0.0800 -0.2024
11939SOL    HW147542   6.272  11.285   2.482 -1.2303 -0.2935  0.2655
11939SOL    HW247543   6.253  11.146   2.540 -1.1209  0.3696  1.9688
11940SOL     OW47544  11.180   8.113  11.346  0.0318 -0.7302 -0.1409
11940SOL    HW147545  11.234   8.135  11.270 -0.4626 -1.4695 -0.7224
11940SOL    HW247546  11.240   8.068  11.405  0.7442  0.9989  0.5080
11941SOL     OW47547   4.613   3.081   8.856  0.1975  0.7297 -0.5217
11941SOL    HW147548   4.612   3.107   8.763  0.5422 -1.2440 -1.1139
11941SOL    HW247549   4.664   3.000   8.858 -0.2336  0.4645  1.3277
11942SOL     OW47550  11.834   0.936   2.683  0.2250 -0.1598  0.2562
11942SOL    HW147551  11.861   0.947   2.591  2.5599  0.9679  0.9900
11942SOL    HW247552  11.868   0.850   2.708 -0.6139 -0.5678  0.0246
11943SOL     OW47553   5.155  11.206   7.807 -0.6491  0.3845  0.6769
11943SOL    HW147554   5.241  11.249   7.812 -0.8272  0.9089 -0.4813
11943SOL    HW247555   5.093  11.273   7.836 -1.1831  1.8503 -3.2379
11944SOL     OW47556  12.432   6.039  10.561  0.1248  0.4119 -0.1107
11944SOL    HW147557  12.344   6.011  10.536 -0.4308  0.3033  1.8084
11944SOL    HW247558  12.419   6.124  10.604  0.9347  0.3664  0.2426
11945SOL     OW47559   9.357   3.700   5.844 -0.3167  0.0104 -0.3283
11945SOL    HW147560   9.399   3.785   5.833  1.5590 -0.9720 -1.2155
11945SOL    HW247561   9.310   3.686   5.762  1.5809 -0.9235 -1.3106
11946SOL     OW47562  12.767   9.665  11.768 -0.2573 -0.1609  0.3006
11946SOL    HW147563  12.759   9.575  11.737 -0.7599 -0.6756  1.8461
11946SOL    HW247564  12.862   9.681  11.769 -0.0726 -1.1853  1.3510
11947SOL     OW47565   2.511   2.835  13.156  0.3507  0.0851 -0.3073
11947SOL    HW147566   2.544   2.819  13.068  0.1685  0.3357 -0.4200
11947SOL    HW247567   2.499   2.747  13.193  1.1646 -0.0124 -0.2597
11948SOL     OW47568   1.937  11.942  10.681 -0.2979  0.1186 -0.0686
11948SOL    HW147569   1.899  11.990  10.608 -0.0270 -0.9169 -0.9189
11948SOL    HW247570   1.908  11.852  10.668  2.1134 -0.6571 -0.5583
11949SOL     OW47571  12.925   7.835   6.671  0.0208  0.2669  0.0097
11949SOL    HW147572  12.943   7.883   6.591 -0.8201  2.0518  0.8343
11949SOL    HW247573  13.007   7.837   6.720  0.3584 -0.2975 -0.5127
11950SOL     OW47574   5.008   8.588   2.884  0.7727  0.0678 -0.0522
11950SOL    HW147575   5.032   8.676   2.854  1.2921  0.1520  0.5972
11950SOL    HW247576   5.076   8.564   2.946  1.5359 -1.4804 -1.4309
11951SOL     OW47577  12.168   8.684   5.837 -0.1784  0.2292 -0.2057
11951SOL    HW147578  12.105   8.628   5.792  0.3303  1.0388 -2.0020
11951SOL    HW247579  12.129   8.772   5.833 -0.5096  0.2254  1.7204
11952SOL     OW47580   2.013   2.759   8.540  0.0295  0.2907 -0.1699
11952SOL    HW147581   2.009   2.845   8.581  1.3506  0.8709 -1.2071
11952SOL    HW247582   1.965   2.702   8.600  0.4980  1.4315  1.3523
11953SOL     OW47583   3.650  11.819   1.854 -0.0049  0.1851  0.3493
11953SOL    HW147584   3.578  11.882   1.865  0.0537  0.1767  0.8130
11953SOL    HW247585   3.683  11.805   1.943  0.4440  0.0365  0.1614
11954SOL     OW47586   5.940  10.085  11.213 -0.0855  0.3931  0.0658
11954SOL    HW147587   5.875  10.055  11.277 -0.0321  0.3280  0.0901
11954SOL    HW247588   5.948  10.013  11.151 -1.0285  0.9304 -0.7004
11955SOL     OW47589   0.884   5.497   4.945  0.0923  0.0193 -0.3300
11955SOL    HW147590   0.905   5.488   5.038  1.9759 -0.5639 -0.7530
11955SOL    HW247591   0.797   5.460   4.935  0.4047 -1.1500  1.0025
11956SOL     OW47592   7.812   4.278  12.367  0.0566 -0.1226  0.1515
11956SOL    HW147593   7.728   4.261  12.326 -0.0761  1.2508 -0.1955
11956SOL    HW247594   7.809   4.230  12.450  0.2711 -2.8343 -1.3025
11957SOL     OW47595   4.136  10.089   9.328 -0.2309 -0.5230 -0.2231
11957SOL    HW147596   4.066  10.145   9.296 -0.4998  0.8172  2.3875
11957SOL    HW247597   4.180  10.057   9.250 -1.7396  1.2154 -1.8701
11958SOL     OW47598  12.183  12.228   4.510 -0.1139  0.6509  0.7830
11958SOL    HW147599  12.218  12.229   4.420  0.5342 -0.2759  1.0092
11958SOL    HW247600  12.260  12.240   4.565 -0.2672 -0.3999  1.2604
11959SOL     OW47601   5.902   2.554   0.515 -0.1779  0.0296  0.4151
11959SOL    HW147602   5.908   2.521   0.604 -0.7940  0.3403  0.5783
11959SOL    HW247603   5.909   2.649   0.524 -1.0165  0.1221  0.2231
11960SOL     OW47604   0.959   8.570  12.109  0.8128 -0.4570 -0.1229
11960SOL    HW147605   0.875   8.611  12.130  1.0053 -0.1801  0.1096
11960SOL    HW247606   0.998   8.628  12.044  0.5311 -0.9419 -0.7411
11961SOL     OW47607   4.727   4.820   8.038  0.0276  0.2806 -0.2950
11961SOL    HW147608   4.813   4.859   8.024 -0.2061  0.9081 -0.0273
11961SOL    HW247609   4.668   4.872   7.984 -0.4169  0.8554  0.7084
11962SOL     OW47610  10.907  12.520  12.655  0.0937  0.2421  0.3542
11962SOL    HW147611  10.981  12.462  12.635 -0.2485 -0.5256  1.2277
11962SOL    HW247612  10.868  12.539  12.569  1.2638  0.6294 -0.1137
11963SOL     OW47613   4.617   1.001   8.637  0.5267 -0.1166  0.5966
11963SOL    HW147614   4.658   0.953   8.565  0.2884  1.0677 -0.3573
11963SOL    HW247615   4.673   1.077   8.650 -0.6235  0.8414  0.1489
11964SOL     OW47616   2.778  12.206   3.342 -0.1584 -0.4983  0.6865
11964SOL    HW147617   2.793  12.255   3.423 -1.5138  1.2553 -0.0648
11964SOL    HW247618   2.785  12.114   3.369  1.4621  0.0310  2.3433
11965SOL     OW47619   3.797  10.457   5.039  0.4427 -0.5167 -0.5568
11965SOL    HW147620   3.858  10.516   4.995 -0.8840  0.8853 -0.5773
11965SOL    HW247621   3.853  10.404   5.097  2.0483 -1.4366 -2.7998
11966SOL     OW47622  12.474   5.988   6.838 -0.0711  0.4557 -0.0382
11966SOL    HW147623  12.540   6.038   6.885  0.1276  1.6323 -1.5110
11966SOL    HW247624  12.520   5.910   6.808  0.2251  0.4889  0.3240
11967SOL     OW47625   0.199  10.910   6.539  0.6530  0.0693  0.4394
11967SOL    HW147626   0.223  10.913   6.447  0.8173  0.7068  0.4955
11967SOL    HW247627   0.130  10.976   6.548  0.6548  0.0287  0.7746
11968SOL     OW47628   1.076   5.498   6.022 -0.1531 -0.1262  0.5130
11968SOL    HW147629   1.069   5.530   6.112  0.8503  0.6262  0.3483
11968SOL    HW247630   1.170   5.497   6.005 -0.1444 -2.6301  0.2869
11969SOL     OW47631   5.357   0.050   1.875 -0.3524 -0.2423  0.2172
11969SOL    HW147632   5.296   0.125   1.877 -1.3893 -1.0806  2.4308
11969SOL    HW247633   5.439   0.085   1.907 -0.5956  0.1386  0.4324
11970SOL     OW47634   3.950   0.564   9.337 -0.0058  0.1226 -0.1288
11970SOL    HW147635   3.955   0.522   9.251  0.8875 -0.3374  0.1335
11970SOL    HW247636   4.012   0.637   9.331 -1.5884  1.4940 -0.6020
11971SOL     OW47637  13.208   9.126  13.241 -0.4806  0.0738  0.4781
11971SOL    HW147638  13.168   9.188  13.181 -0.1807 -0.3903 -0.2172
11971SOL    HW247639  13.191   9.162  13.328  1.2236  2.1102  0.0597
11972SOL     OW47640   2.340  13.599  12.672 -0.1447 -0.5432 -0.3668
11972SOL    HW147641   2.336  13.675  12.614 -0.4369  1.3487  1.9817
11972SOL    HW247642   2.431  13.598  12.704 -0.4660 -0.3395  0.6078
11973SOL     OW47643   9.797  11.678   6.427 -0.7305 -0.4074  0.3597
11973SOL    HW147644   9.863  11.641   6.486  0.1643  1.2257  0.4377
11973SOL    HW247645   9.776  11.606   6.367  1.7403 -0.7614 -0.1886
11974SOL     OW47646   3.127   7.375   2.997 -0.3629 -0.0151 -0.1510
11974SOL    HW147647   3.169   7.429   3.064  1.3105 -1.9381  0.4678
11974SOL    HW247648   3.177   7.294   2.998 -1.7950 -0.9934 -2.1188
11975SOL     OW47649   7.580  11.809  11.364  0.2507  0.8355 -0.0657
11975SOL    HW147650   7.564  11.719  11.392 -0.6741  0.7944 -0.6739
11975SOL    HW247651   7.645  11.842  11.425 -0.8871  0.4002  1.4475
11976SOL     OW47652   2.377  12.198   1.424  0.2825  0.3181  0.3791
11976SOL    HW147653   2.426  12.119   1.447 -0.2105  0.1652  0.9260
11976SOL    HW247654   2.436  12.247   1.367  1.2897  0.3898  1.4436
11977SOL     OW47655   3.683  13.099   6.121 -0.6546 -0.8694  0.1704
11977SOL    HW147656   3.614  13.123   6.183  0.0499 -0.1422  0.6791
11977SOL    HW247657   3.682  13.003   6.120 -1.1009 -0.8770  0.8039
11978SOL     OW47658  12.618   2.670   0.955 -0.0947  0.0326 -0.4630
11978SOL    HW147659  12.702   2.626   0.965 -0.5168 -0.6167  0.3863
11978SOL    HW247660  12.635   2.760   0.983 -0.1863 -0.6689  2.0883
11979SOL     OW47661   0.817   8.746   7.742  0.1409 -0.2713 -0.6791
11979SOL    HW147662   0.887   8.810   7.727  0.4023 -0.0338  1.3401
11979SOL    HW247663   0.740   8.786   7.701  0.8361  0.1569 -1.6235
11980SOL     OW47664   3.145   5.289   9.875 -0.5518  0.0020 -0.0778
11980SOL    HW147665   3.112   5.316   9.961 -1.0103 -1.3426  0.2067
11980SOL    HW247666   3.068   5.259   9.828  0.0645 -2.4909  0.3212
11981SOL     OW47667  11.653   0.006  10.718 -0.7121 -0.2106 -0.5186
11981SOL    HW147668  11.630  -0.053  10.646  0.3478 -0.0440 -0.9959
11981SOL    HW247669  11.639  -0.047  10.797 -0.9218 -0.7091 -0.8864
11982SOL     OW47670   2.378   4.898  13.056 -0.2300  0.5161  0.2646
11982SOL    HW147671   2.342   4.864  12.974  1.0113 -0.5478  0.1350
11982SOL    HW247672   2.343   4.987  13.062  1.2825  1.4084 -2.5216
11983SOL     OW47673   6.856   0.858   2.771  0.2294  0.6925 -0.3995
11983SOL    HW147674   6.942   0.864   2.812 -0.1548 -0.8317  0.7422
11983SOL    HW247675   6.869   0.797   2.698  0.0327 -0.0045  0.1287
11984SOL     OW47676   4.856   9.358   2.394  0.3095 -0.0434 -0.1937
11984SOL    HW147677   4.837   9.357   2.488  0.6068  0.1930 -0.1286
11984SOL    HW247678   4.794   9.423   2.358 -1.2116 -1.5820 -0.4861
11985SOL     OW47679  12.689   8.961  13.150 -0.0540 -0.7982  0.2910
11985SOL    HW147680  12.601   8.933  13.125  0.4426 -1.3278 -1.0052
11985SOL    HW247681  12.745   8.926  13.080  1.0840  0.2113  0.6702
11986SOL     OW47682   4.491   9.305   4.490 -0.5833 -0.2353 -0.2502
11986SOL    HW147683   4.441   9.387   4.487  0.1916  0.2584 -0.1647
11986SOL    HW247684   4.536   9.301   4.406  0.9924  0.5078  0.4951
11987SOL     OW47685   6.576   9.539   8.683 -0.0401 -0.0450  0.0160
11987SOL    HW147686   6.564   9.578   8.596 -0.1940  0.4092  0.2392
11987SOL    HW247687   6.536   9.601   8.743  1.0742  0.2066  0.5281
11988SOL     OW47688   8.993   3.876   9.960 -0.2919  0.2214 -0.5939
11988SOL    HW147689   9.025   3.945  10.017 -0.9426  0.2877 -0.2983
11988SOL    HW247690   9.019   3.903   9.872  1.7454 -0.4502 -0.2580
11989SOL     OW47691   9.816   6.778   0.038 -0.0296 -0.3079  0.2284
11989SOL    HW147692   9.861   6.856   0.004 -0.3293  0.4822  1.5651
11989SOL    HW247693   9.878   6.706   0.022  0.4993  0.2858 -0.5050
11990SOL     OW47694   6.662  13.369  12.715  0.2842 -0.0134  0.4272
11990SOL    HW147695   6.590  13.368  12.778 -0.7855  2.8873 -0.6014
11990SOL    HW247696   6.716  13.444  12.741  1.3014 -0.3688 -0.5516
11991SOL     OW47697   9.299   0.547   2.443 -0.1167  0.2750 -0.5577
11991SOL    HW147698   9.217   0.505   2.417 -0.5927  1.2671 -0.6979
11991SOL    HW247699   9.276   0.602   2.518  0.9203 -1.2725  0.9692
11992SOL     OW47700   2.844   6.661  10.272 -0.5735  0.3222  0.0942
11992SOL    HW147701   2.755   6.651  10.239 -0.8470  1.3800  0.4828
11992SOL    HW247702   2.836   6.719  10.348  0.4687  0.5851  0.0297
11993SOL     OW47703  10.421   2.404   2.672 -0.6353 -0.2734  0.1265
11993SOL    HW147704  10.403   2.463   2.599  2.5674 -0.5271 -1.0388
11993SOL    HW247705  10.455   2.324   2.631 -0.8467 -1.2952  1.8398
11994SOL     OW47706  12.649  10.834   6.543  0.2197 -0.1518 -0.3435
11994SOL    HW147707  12.610  10.905   6.594 -1.2982  2.5068 -4.5802
11994SOL    HW247708  12.576  10.775   6.524  0.4053 -0.2894 -0.6421
11995SOL     OW47709   7.493  10.374   3.245 -0.0889 -0.4027 -0.1415
11995SOL    HW147710   7.419  10.435   3.241  0.5452  0.4093  0.1938
11995SOL    HW247711   7.468  10.303   3.187 -1.3740 -0.4162  0.3869
11996SOL     OW47712  13.595   2.568  11.572  0.0442 -0.7884 -0.0674
11996SOL    HW147713  13.586   2.662  11.559  1.7662 -0.6913 -0.8610
11996SOL    HW247714  13.629   2.559  11.660 -0.7054 -0.7262  0.2377
11997SOL     OW47715   6.654  11.634   7.549 -0.2598 -0.0567  0.2814
11997SOL    HW147716   6.581  11.575   7.530  0.6879 -1.4800  0.8670
11997SOL    HW247717   6.638  11.711   7.495 -1.7520 -0.6854 -0.2105
11998SOL     OW47718   2.281   2.125   6.991  0.3566 -0.6120  0.5818
11998SOL    HW147719   2.260   2.032   6.990  3.6280 -1.5044  2.2271
11998SOL    HW247720   2.287   2.148   7.084 -0.1775  1.2011  0.2072
11999SOL     OW47721   4.398   2.813   9.473  0.1232 -0.1162 -0.8964
11999SOL    HW147722   4.463   2.773   9.415  0.3332 -0.3072 -0.5394
11999SOL    HW247723   4.315   2.806   9.426  0.5824  1.4916 -2.0096
12000SOL     OW47724   8.950  12.378  13.232  0.4932  0.4228  0.2218
12000SOL    HW147725   9.038  12.351  13.256  0.5143 -1.2245 -1.4582
12000SOL    HW247726   8.929  12.450  13.292  3.1628  1.2336  0.2894
12001SOL     OW47727   4.706   3.779  11.007 -0.4161  0.2643 -0.4946
12001SOL    HW147728   4.788   3.738  10.979  0.1437 -1.3782  2.9322
12001SOL    HW247729   4.701   3.860  10.957  2.2844 -0.5010 -2.2340
12002SOL     OW47730   4.571   4.897  12.687  0.4417 -0.3089 -0.0174
12002SOL    HW147731   4.575   4.983  12.730 -0.8573  0.5693 -1.5206
12002SOL    HW247732   4.485   4.896  12.645  0.9534 -1.8219 -1.1043
12003SOL     OW47733   5.251  13.442   1.714  0.3953  0.2879  0.1878
12003SOL    HW147734   5.204  13.359   1.704  0.0253  0.4588  0.4697
12003SOL    HW247735   5.300  13.452   1.632 -3.3062  2.1206 -2.0505
12004SOL     OW47736   5.294   9.232   6.506 -0.0451  0.1218  0.1683
12004SOL    HW147737   5.371   9.279   6.539  0.9698 -1.0951 -0.4006
12004SOL    HW247738   5.221   9.291   6.525  1.1570  1.8798 -0.3838
12005SOL     OW47739   1.398  13.710  12.865  0.5519  0.4177  0.1964
12005SOL    HW147740   1.470  13.770  12.846  0.1538  1.6172  2.2736
12005SOL    HW247741   1.319  13.763  12.858 -0.2237 -0.8867 -2.0691
12006SOL     OW47742   9.419   4.679   5.380 -0.4531 -0.1372 -0.4612
12006SOL    HW147743   9.342   4.723   5.346  0.4956  1.5242 -0.5393
12006SOL    HW247744   9.491   4.739   5.363  0.7336 -1.2486  0.4207
12007SOL     OW47745  13.425   5.758   7.219 -0.0451  1.1065 -0.1484
12007SOL    HW147746  13.501   5.793   7.173  0.6265  2.3109  1.7558
12007SOL    HW247747  13.458   5.736   7.306 -1.5427  0.1279  0.2075
12008SOL     OW47748   0.153   8.216   7.948 -0.2829 -0.4484  0.0009
12008SOL    HW147749   0.100   8.231   8.026 -0.0209  2.1650 -0.2225
12008SOL    HW247750   0.242   8.208   7.980 -0.1605  0.7459 -0.0006
12009SOL     OW47751   3.057   2.668   3.265  0.5304  0.4788 -0.1409
12009SOL    HW147752   3.078   2.581   3.297  1.6414  1.0913  0.8485
12009SOL    HW247753   2.972   2.688   3.304 -0.7316 -0.9224 -1.9811
12010SOL     OW47754   6.082  11.846   9.839  0.0719 -0.4381  0.6288
12010SOL    HW147755   6.000  11.797   9.845 -0.4088 -0.1452 -2.2334
12010SOL    HW247756   6.128  11.808   9.765  1.6585  0.6632  0.9871
12011SOL     OW47757   0.945  11.998   4.730  0.0998  0.6726 -0.0745
12011SOL    HW147758   0.967  11.914   4.689  0.4287  0.1054  1.2379
12011SOL    HW247759   1.025  12.050   4.720  0.0884  0.6353 -0.3863
12012SOL     OW47760  13.495  13.433  13.129 -0.4613 -0.1112 -0.5073
12012SOL    HW147761  13.558  13.422  13.201  0.2173  2.3250 -0.6230
12012SOL    HW247762  13.414  13.396  13.163  0.1874 -0.2329  1.0122
12013SOL     OW47763   0.462  13.171   5.389 -0.1601  0.1390 -0.5408
12013SOL    HW147764   0.522  13.102   5.362  0.0772 -0.5469  1.5309
12013SOL    HW247765   0.484  13.246   5.334 -1.2200 -1.6999 -3.7210
12014SOL     OW47766   9.130   6.065   2.368  0.3053 -0.0616  0.3085
12014SOL    HW147767   9.093   5.985   2.330  0.6582  0.2600 -0.7363
12014SOL    HW247768   9.054   6.116   2.395  0.0471 -0.2537 -0.0487
12015SOL     OW47769   6.698   1.661   1.949 -0.2609  0.5131  0.7937
12015SOL    HW147770   6.700   1.681   1.855  0.2031 -1.0171  0.4461
12015SOL    HW247771   6.791   1.652   1.973 -0.4250 -1.1584  0.9014
12016SOL     OW47772   4.806  10.231   5.191  0.0198  0.0298 -0.3061
12016SOL    HW147773   4.847  10.175   5.257 -0.0324 -0.0806 -0.3695
12016SOL    HW247774   4.775  10.307   5.241  3.4612  1.8855 -0.6771
12017SOL     OW47775   1.407   9.857  11.587 -0.2526 -0.5275 -0.0886
12017SOL    HW147776   1.422   9.872  11.680 -0.1933 -0.0013 -0.1812
12017SOL    HW247777   1.320   9.818  11.582 -0.6957  0.4183  0.1059
12018SOL     OW47778   4.419   9.300   9.016 -0.3506 -0.1578 -0.1300
12018SOL    HW147779   4.473   9.377   9.031  0.4532 -0.8257  0.5582
12018SOL    HW247780   4.378   9.282   9.101  0.5791 -1.2799  0.1196
12019SOL     OW47781  10.180  12.970   7.600  0.1409  0.3622 -0.8118
12019SOL    HW147782  10.107  12.970   7.539 -0.9033  1.6501  0.3501
12019SOL    HW247783  10.244  13.030   7.561  0.8212 -1.0934 -2.0393
12020SOL     OW47784   3.739  11.527  12.435  0.0320 -0.4086 -0.1606
12020SOL    HW147785   3.793  11.569  12.368 -1.8414  0.8897 -0.9626
12020SOL    HW247786   3.711  11.445  12.395  4.2369 -3.0644  1.6532
12021SOL     OW47787   4.399  13.668   4.995 -0.1055 -0.2265 -0.3075
12021SOL    HW147788   4.327  13.718   5.034  1.2483  1.4652  0.1156
12021SOL    HW247789   4.399  13.585   5.042 -0.1500  0.7679  1.5307
12022SOL     OW47790   7.593   1.387   2.252  0.3582  0.5057  0.3025
12022SOL    HW147791   7.529   1.430   2.309  0.1902  0.0370  0.4729
12022SOL    HW247792   7.559   1.297   2.242 -0.0462  0.7969 -1.1779
12023SOL     OW47793   5.627  11.905   8.124 -0.6988 -0.4591 -0.2662
12023SOL    HW147794   5.627  11.809   8.113  0.2787 -0.3310 -1.5881
12023SOL    HW247795   5.593  11.939   8.041 -0.3148  0.3661 -0.0946
12024SOL     OW47796  11.005   4.902   2.980 -0.3235  0.2238 -0.5269
12024SOL    HW147797  11.089   4.945   2.961  0.0839 -0.1305  0.4399
12024SOL    HW247798  10.969   4.952   3.053 -0.2101 -0.5880  0.0980
12025SOL     OW47799   0.971   6.163   2.536 -0.0769  0.1850  0.0940
12025SOL    HW147800   1.040   6.097   2.544 -0.5422 -0.3207 -0.0496
12025SOL    HW247801   0.900   6.130   2.591 -0.7500 -0.0054 -0.8767
12026SOL     OW47802   6.889   1.462   2.303  0.2806 -0.0313 -0.8124
12026SOL    HW147803   6.977   1.481   2.271  0.1203  1.2508 -0.5417
12026SOL    HW247804   6.839   1.440   2.225  0.4976  0.6462 -1.1510
12027SOL     OW47805   9.356  11.674   1.311 -0.0329  0.8541 -0.2894
12027SOL    HW147806   9.266  11.685   1.280  0.1571  3.2449 -0.2290
12027SOL    HW247807   9.396  11.614   1.248 -1.5297  0.1041 -0.5741
12028SOL     OW47808   3.450   4.415  13.518 -0.1046  0.3988  1.2467
12028SOL    HW147809   3.482   4.498  13.553  1.3998  0.2401  0.3526
12028SOL    HW247810   3.433   4.433  13.426  1.5286 -0.5719  0.7147
12029SOL     OW47811   0.639  12.773   5.572 -0.1006 -0.4747  0.6065
12029SOL    HW147812   0.562  12.776   5.515  0.3115  1.7280  0.0871
12029SOL    HW247813   0.707  12.731   5.519 -0.1538  0.1943 -0.0064
12030SOL     OW47814   1.714   4.959   2.660  0.1418 -0.3518  0.1126
12030SOL    HW147815   1.626   4.963   2.623  0.7236 -0.4157 -1.3282
12030SOL    HW247816   1.772   4.975   2.586  1.3639 -0.7794  0.9510
12031SOL     OW47817   6.572  10.922  12.401 -0.4930  0.5375 -0.5075
12031SOL    HW147818   6.653  10.943  12.447 -0.1444 -1.3107 -0.1681
12031SOL    HW247819   6.507  10.983  12.435 -0.0278 -0.1811  1.8135
12032SOL     OW47820  12.752   3.447   6.484  0.0409 -0.2677 -0.0722
12032SOL    HW147821  12.709   3.518   6.436  0.6423 -0.6798 -1.2516
12032SOL    HW247822  12.685   3.379   6.490 -0.0545 -0.1905 -0.2577
12033SOL     OW47823  10.941   7.752   7.786  0.5110  0.2019  0.4841
12033SOL    HW147824  10.866   7.697   7.762  1.9490 -1.6541 -0.0736
12033SOL    HW247825  10.949   7.815   7.714 -0.7384  0.7017  0.7648
12034SOL     OW47826   9.173   0.155   6.418 -0.1815 -0.4355  0.7614
12034SOL    HW147827   9.095   0.191   6.374  0.0782  0.6957  1.1846
12034SOL    HW247828   9.158   0.060   6.419 -1.3968 -0.2704  0.5241
12035SOL     OW47829   6.441   1.652   2.450 -0.4222 -0.2974 -0.0323
12035SOL    HW147830   6.474   1.727   2.499  0.7150  0.2878 -1.6168
12035SOL    HW247831   6.382   1.608   2.510 -0.0732  1.1126  1.3949
12036SOL     OW47832  10.716  11.569   5.180 -0.2103  0.7587 -0.2778
12036SOL    HW147833  10.671  11.631   5.122 -1.2202  0.8688  0.6017
12036SOL    HW247834  10.693  11.597   5.268 -0.7926 -0.9348  0.1370
12037SOL     OW47835   7.302   5.476  11.386  0.1691 -0.2876 -0.3504
12037SOL    HW147836   7.338   5.493  11.299 -0.3139 -1.0723 -0.7131
12037SOL    HW247837   7.209   5.496  11.379  0.3601  0.9606  0.3697
12038SOL     OW47838   1.725   9.782   6.753 -0.1853 -0.2530 -0.4284
12038SOL    HW147839   1.705   9.747   6.840 -0.2273 -1.0981 -0.7682
12038SOL    HW247840   1.778   9.713   6.712  0.4290  0.4461 -0.8167
12039SOL     OW47841  10.451   3.316  12.305  0.0032 -0.1252 -0.3981
12039SOL    HW147842  10.456   3.290  12.213 -1.3221  0.2367 -0.5954
12039SOL    HW247843  10.532   3.365  12.321 -1.6456  3.8179 -2.7001
12040SOL     OW47844   1.919   1.624   7.701  0.0449  0.3268 -0.4729
12040SOL    HW147845   1.873   1.547   7.667  1.0151  0.0800 -1.2594
12040SOL    HW247846   1.886   1.697   7.648  0.8340  0.0886 -1.3173
12041SOL     OW47847   1.049  11.654  12.232  0.0861  0.3598  0.4415
12041SOL    HW147848   1.004  11.626  12.153 -0.0741  0.5080  0.4778
12041SOL    HW247849   1.029  11.587  12.297 -1.0379  0.9938  0.7846
12042SOL     OW47850   4.697  12.582   2.727  0.6006  0.1677 -0.1999
12042SOL    HW147851   4.659  12.510   2.675  2.2801 -0.4864 -0.6100
12042SOL    HW247852   4.741  12.637   2.662  2.0326 -0.2056  0.4204
12043SOL     OW47853  11.620  12.040   1.978  0.5594  0.0754  0.7319
12043SOL    HW147854  11.538  11.992   1.988 -0.2752  1.2899 -0.0263
12043SOL    HW247855  11.676  12.008   2.049 -0.3073 -1.2891  0.8226
12044SOL     OW47856   3.675   0.769   6.769 -0.0823 -0.6809 -0.0165
12044SOL    HW147857   3.726   0.695   6.736  0.7100  0.0672 -0.5195
12044SOL    HW247858   3.627   0.733   6.843  2.2085 -1.1578  1.3555
12045SOL     OW47859   0.609   0.761   4.040  0.2721 -0.2697 -0.2300
12045SOL    HW147860   0.606   0.856   4.035  0.0652 -0.2098  0.7445
12045SOL    HW247861   0.659   0.734   3.963  2.8245  0.7932  0.9134
12046SOL     OW47862   6.685   9.582   3.001  0.0039  0.5509  0.3577
12046SOL    HW147863   6.686   9.564   3.095 -0.6502 -0.6187  0.1689
12046SOL    HW247864   6.643   9.667   2.993  0.5635  0.9100  1.1564
12047SOL     OW47865  12.499   0.009   5.191  0.5522  0.2232  0.3827
12047SOL    HW147866  12.513   0.103   5.186  0.8321  0.1674  0.0988
12047SOL    HW247867  12.407  -0.003   5.165  0.6195  0.3821  0.0728
12048SOL     OW47868  13.435   2.699   7.440 -0.2918  0.4209  0.0654
12048SOL    HW147869  13.426   2.791   7.415 -1.3472 -0.0497 -1.4014
12048SOL    HW247870  13.453   2.653   7.358  1.3557 -0.5616  0.9395
12049SOL     OW47871   1.333   8.117  10.868 -0.3801  0.0013 -0.2649
12049SOL    HW147872   1.393   8.191  10.860  0.0250 -0.2469  0.3300
12049SOL    HW247873   1.346   8.066  10.788  2.1450 -1.4279  0.9157
12050SOL     OW47874  10.641   2.170   7.033 -0.2523 -0.2114  0.2229
12050SOL    HW147875  10.717   2.196   6.981 -0.9164  0.9571 -0.2190
12050SOL    HW247876  10.650   2.219   7.115  0.1170 -1.0455  0.6883
12051SOL     OW47877   3.165   5.692   0.924  0.4156  0.8048 -0.6431
12051SOL    HW147878   3.103   5.626   0.955 -0.6429  1.1449 -1.9183
12051SOL    HW247879   3.111   5.759   0.882  1.5954  1.5084 -1.1213
12052SOL     OW47880   6.552  10.767   1.724  0.3824  0.2305 -0.3472
12052SOL    HW147881   6.521  10.740   1.638  1.5506 -0.3294 -0.6039
12052SOL    HW247882   6.563  10.862   1.717 -2.2410  0.6575  0.0835
12053SOL     OW47883  13.415   6.031  11.689  0.3717  0.3089  0.0285
12053SOL    HW147884  13.405   6.125  11.672 -0.8596  0.3399  0.8047
12053SOL    HW247885  13.339   5.991  11.646  1.1469 -0.3996 -0.7133
12054SOL     OW47886   5.587   7.857   4.755 -0.3272  0.2488 -0.1435
12054SOL    HW147887   5.585   7.892   4.666 -1.4664  1.9257  0.4877
12054SOL    HW247888   5.631   7.773   4.747  0.2000  0.6692 -2.1762
12055SOL     OW47889   2.281   2.649   9.504 -0.2024  0.6586 -0.0810
12055SOL    HW147890   2.302   2.560   9.533 -2.5338 -0.7897 -2.3807
12055SOL    HW247891   2.290   2.703   9.583  2.2381 -1.3730  1.1808
12056SOL     OW47892   6.194   2.521   9.936 -0.0336  0.1126  0.0418
12056SOL    HW147893   6.220   2.497  10.025  0.7051 -0.1606 -0.2313
12056SOL    HW247894   6.239   2.603   9.919  0.4146 -0.2009 -0.3267
12057SOL     OW47895  13.224   1.582  10.786 -0.0094 -0.4112  0.6161
12057SOL    HW147896  13.200   1.553  10.699  0.2365 -0.7195  0.6523
12057SOL    HW247897  13.180   1.521  10.845 -1.0460  0.4183  0.7448
12058SOL     OW47898  10.955   3.451   2.205  0.1977 -0.2464  0.2341
12058SOL    HW147899  10.959   3.521   2.139  0.7926  0.0498  0.5732
12058SOL    HW247900  10.861   3.433   2.215  0.1294 -0.8750 -1.2887
12059SOL     OW47901   1.252   0.924   4.092 -0.3883  0.0183 -0.4081
12059SOL    HW147902   1.277   1.010   4.125  0.6528 -0.4341  0.0159
12059SOL    HW247903   1.288   0.862   4.155  0.5880 -0.8122 -1.7167
12060SOL     OW47904  13.011   3.047   9.163 -0.6695 -0.3726  0.0580
12060SOL    HW147905  12.980   3.013   9.079  0.2124 -2.1347  0.4097
12060SOL    HW247906  13.080   3.109   9.140 -1.4406  0.2905 -0.5448
12061SOL     OW47907   8.167   2.307   0.376 -0.0893 -0.1105  0.2296
12061SOL    HW147908   8.083   2.347   0.397 -0.4018 -0.0953 -0.9573
12061SOL    HW247909   8.212   2.297   0.460 -1.1837  0.0901  0.8443
12062SOL     OW47910  11.764   1.701   4.102 -0.1076 -0.3739  0.5683
12062SOL    HW147911  11.846   1.652   4.097  0.5192  0.7478 -0.9148
12062SOL    HW247912  11.783   1.783   4.057 -2.1203 -0.1871 -0.0269
12063SOL     OW47913   2.193  11.082   6.032 -0.0775 -0.4544 -0.3120
12063SOL    HW147914   2.137  11.008   6.054 -2.0904  1.4541  1.4871
12063SOL    HW247915   2.217  11.120   6.116  2.1152  0.1374 -1.1392
12064SOL     OW47916  13.661   0.871   9.590  0.0995  0.3838  0.2176
12064SOL    HW147917  13.706   0.826   9.662  1.6817  2.4591  0.6042
12064SOL    HW247918  13.647   0.960   9.622  0.0192  1.1073 -1.7142
12065SOL     OW47919  10.838   5.872   3.083  0.9318  0.5133 -0.1199
12065SOL    HW147920  10.777   5.942   3.106  1.3502  1.1104 -0.7767
12065SOL    HW247921  10.797   5.792   3.116 -0.4896  0.8231 -1.0362
12066SOL     OW47922   4.443  13.433  13.277 -0.3897 -0.6687 -0.4533
12066SOL    HW147923   4.363  13.397  13.316  0.3490 -2.0253 -0.0824
12066SOL    HW247924   4.459  13.514  13.326 -0.9110 -0.9895  0.2799
12067SOL     OW47925   8.030  13.228   5.893 -0.2203  0.3229 -0.4262
12067SOL    HW147926   8.008  13.210   5.984 -1.1889 -0.0661 -0.7186
12067SOL    HW247927   7.961  13.288   5.864 -0.3724 -0.1802 -1.1240
12068SOL     OW47928  11.715   2.827   2.426 -0.2523  0.0546 -0.0822
12068SOL    HW147929  11.745   2.911   2.392  1.1168 -1.0435 -1.6816
12068SOL    HW247930  11.657   2.792   2.359  1.6277 -1.6457 -0.9304
12069SOL     OW47931   1.892  10.808   1.210 -0.3010 -0.0138 -0.2558
12069SOL    HW147932   1.967  10.859   1.180  0.7600 -0.2763  1.7912
12069SOL    HW247933   1.844  10.867   1.268 -0.2259 -0.6583  0.4805
12070SOL     OW47934   9.521   0.911   3.024 -0.1621 -0.4864  0.1934
12070SOL    HW147935   9.453   0.882   3.085 -0.7260  0.0490 -0.1738
12070SOL    HW247936   9.545   0.832   2.976 -1.2360 -0.5014 -0.3598
12071SOL     OW47937   9.083   2.024   3.866  0.3547 -0.4660  0.0706
12071SOL    HW147938   9.069   2.012   3.772  0.3362 -0.2339  0.0429
12071SOL    HW247939   8.998   2.054   3.899 -0.1728 -2.2715  0.4721
12072SOL     OW47940  11.544   3.122   2.499  0.3344 -0.2905 -0.4390
12072SOL    HW147941  11.532   3.066   2.576  0.0591  1.6600  1.0210
12072SOL    HW247942  11.458   3.160   2.483  0.9633  1.4569  0.0761
12073SOL     OW47943  10.819   1.534   6.942 -0.1505  0.0228  0.0851
12073SOL    HW147944  10.815   1.483   6.861 -0.2651 -1.3492  0.9116
12073SOL    HW247945  10.889   1.493   6.992 -0.3752  0.5672  0.8591
12074SOL     OW47946  12.550  11.372   9.853  0.1778 -0.3681 -0.2424
12074SOL    HW147947  12.523  11.391   9.763 -0.1258 -1.4055 -0.3800
12074SOL    HW247948  12.582  11.456   9.886  0.2737  0.0320 -1.3060
12075SOL     OW47949   3.979   8.018   0.462  0.0063 -0.4238 -0.0535
12075SOL    HW147950   4.020   8.102   0.443  0.5352 -0.4004  1.0837
12075SOL    HW247951   4.020   7.957   0.402  0.3633 -0.0526 -0.1907
12076SOL     OW47952  13.114   4.291  13.412  0.0597  0.2574 -0.1665
12076SOL    HW147953  13.026   4.254  13.421  0.9091 -1.9114 -0.2948
12076SOL    HW247954  13.115   4.327  13.323 -0.8337  0.7895  0.0186
12077SOL     OW47955   6.099  12.293   1.951  0.5457  0.2815 -0.2693
12077SOL    HW147956   6.009  12.322   1.966  0.6095  0.6543 -0.5899
12077SOL    HW247957   6.090  12.221   1.888  0.5163  0.7676 -0.8348
12078SOL     OW47958  10.835   9.296   4.786 -0.6259 -0.2511  0.5821
12078SOL    HW147959  10.833   9.387   4.814  0.0268 -0.1902  0.4361
12078SOL    HW247960  10.742   9.270   4.783 -0.8446  0.5622  0.0703
12079SOL     OW47961  10.522  10.421   1.725 -0.4832  0.0135 -0.5358
12079SOL    HW147962  10.566  10.381   1.650  0.2018 -0.2051 -0.0311
12079SOL    HW247963  10.583  10.407   1.798 -0.3230  1.8100 -0.2981
12080SOL     OW47964   4.583   8.870  12.168 -0.1443  0.2580 -0.5817
12080SOL    HW147965   4.571   8.787  12.215 -0.0506 -0.1178 -1.2083
12080SOL    HW247966   4.501   8.918  12.183 -0.4598 -0.2217 -0.7476
12081SOL     OW47967  11.023   2.546   7.578 -0.7926 -0.1620  0.2090
12081SOL    HW147968  10.945   2.568   7.527 -0.2393  0.2139 -0.4901
12081SOL    HW247969  11.076   2.625   7.576 -0.4047 -0.4036  0.7113
12082SOL     OW47970  13.148  12.947   2.200 -0.6302  0.2661 -0.3266
12082SOL    HW147971  13.087  12.878   2.174 -1.2528  0.1027  1.3948
12082SOL    HW247972  13.128  13.021   2.143 -1.1747 -0.3875 -1.0004
12083SOL     OW47973   8.089  13.703  12.517  0.1105  0.8018  0.0468
12083SOL    HW147974   8.031  13.643  12.469 -1.0836  0.8308  1.3907
12083SOL    HW247975   8.052  13.789  12.503  0.6824  1.0039 -0.2617
12084SOL     OW47976   9.624   3.756   9.421  0.7619 -0.1950  0.3447
12084SOL    HW147977   9.594   3.727   9.507  1.0961 -1.6582 -0.0060
12084SOL    HW247978   9.562   3.718   9.359  0.5956  0.7440 -0.0915
12085SOL     OW47979   5.697   9.819  12.287  0.5271  0.0177  0.5230
12085SOL    HW147980   5.776   9.841  12.336  0.3740  2.1141 -0.0897
12085SOL    HW247981   5.632   9.883  12.316 -0.4923 -0.6975 -0.1194
12086SOL     OW47982  11.839   6.393   8.862  0.4402  0.0540  0.6705
12086SOL    HW147983  11.927   6.416   8.829  1.1245  1.0708  2.9627
12086SOL    HW247984  11.798   6.478   8.880 -0.0784 -0.4283  1.8595
12087SOL     OW47985   3.600   3.615   3.019 -0.1669 -0.2486 -0.1186
12087SOL    HW147986   3.516   3.650   2.990 -0.3149 -1.0625 -0.6981
12087SOL    HW247987   3.578   3.550   3.086  0.0895  0.4980  0.7153
12088SOL     OW47988   6.875   2.722  11.354 -0.2524  0.3536  0.1168
12088SOL    HW147989   6.790   2.697  11.390 -0.2464 -0.5805 -0.5043
12088SOL    HW247990   6.855   2.790  11.290 -0.6031 -0.3647 -0.5385
12089SOL     OW47991   8.896   0.027   1.611  0.1300  0.3064 -0.3042
12089SOL    HW147992   8.877  -0.064   1.635 -0.9867  0.7702  0.6942
12089SOL    HW247993   8.838   0.045   1.537  2.0459 -0.4722 -2.0872
12090SOL     OW47994  11.213   2.605   4.231 -0.1824  0.7719 -0.1990
12090SOL    HW147995  11.131   2.632   4.189 -1.2337  1.3203  2.0461
12090SOL    HW247996  11.269   2.683   4.227 -0.1925  0.7536 -0.7323
12091SOL     OW47997   8.850  10.668   0.146  0.4962  0.1200 -0.1878
12091SOL    HW147998   8.796  10.706   0.216 -0.3956  0.9912 -1.3259
12091SOL    HW247999   8.937  10.660   0.185  0.3038  1.7266  0.6391
12092SOL     OW48000  10.946   4.606   6.127  0.2781 -0.1329  0.0851
12092SOL    HW148001  10.942   4.518   6.165  1.4617  0.4529  1.6913
12092SOL    HW248002  10.939   4.665   6.203  0.3334  1.1392 -0.8749
12093SOL     OW48003  13.140   0.847   0.604  0.7122 -0.1957 -0.0409
12093SOL    HW148004  13.218   0.902   0.596  0.3744  0.1265 -1.3467
12093SOL    HW248005  13.067   0.908   0.597  0.3169 -0.8766 -2.5291
12094SOL     OW48006  13.424  10.828   0.762 -0.2660 -0.6494 -0.6899
12094SOL    HW148007  13.469  10.889   0.704 -1.5639 -0.2848 -1.3475
12094SOL    HW248008  13.352  10.794   0.710 -2.8829  1.3748  1.2983
12095SOL     OW48009  12.983   1.332  13.090  0.2524 -0.0509  0.0558
12095SOL    HW148010  12.967   1.311  13.182  0.1354 -0.7014 -0.1113
12095SOL    HW248011  12.905   1.382  13.064  1.3657  2.2944  0.9612
12096SOL     OW48012   8.345   6.494   7.452 -0.3991  0.4219 -0.4490
12096SOL    HW148013   8.315   6.507   7.362  0.3469  1.5476 -0.5427
12096SOL    HW248014   8.371   6.581   7.482  0.0773 -0.0678  0.6029
12097SOL     OW48015   0.470  13.594   0.086 -0.0863  0.1977  0.3150
12097SOL    HW148016   0.420  13.676   0.089 -1.3756 -0.5825  1.1681
12097SOL    HW248017   0.457  13.555   0.172  1.1645 -0.5393  0.1831
12098SOL     OW48018   2.302   5.026  10.857  0.3733 -0.5891 -0.0861
12098SOL    HW148019   2.327   5.118  10.867  0.5101 -0.6322 -0.0258
12098SOL    HW248020   2.340   4.982  10.934 -1.3347 -0.3623  0.9482
12099SOL     OW48021  11.277   7.952  12.723  0.6348 -0.2703 -0.0375
12099SOL    HW148022  11.199   7.909  12.690  0.1878  0.6049 -0.1350
12099SOL    HW248023  11.344   7.883  12.725 -0.0639 -0.9557 -0.1966
12100SOL     OW48024   2.982  13.457   1.544  0.1920 -0.8541  0.0877
12100SOL    HW148025   2.982  13.533   1.602  0.8179 -1.5427  1.0172
12100SOL    HW248026   2.965  13.493   1.457 -1.0162  0.1777  0.7187
12101SOL     OW48027   2.612  13.412  11.034  0.4237 -0.5642  0.3269
12101SOL    HW148028   2.534  13.386  10.985  1.1323 -0.7885 -0.7174
12101SOL    HW248029   2.647  13.487  10.985  1.1059 -0.7469  0.5146
12102SOL     OW48030   6.718  10.039   5.000  0.3142 -0.1886 -0.4040
12102SOL    HW148031   6.761  10.097   5.063 -0.5682  0.3688 -0.3035
12102SOL    HW248032   6.719  10.087   4.917  0.9605 -0.6805 -0.6826
12103SOL     OW48033   6.753   4.995   0.112 -0.0254 -0.2009 -0.3238
12103SOL    HW148034   6.771   4.927   0.047 -1.1383  0.3962 -1.2843
12103SOL    HW248035   6.668   5.032   0.087 -0.1052  0.6085  0.9933
12104SOL     OW48036   5.678   0.781   1.421 -0.2778  0.0863 -0.2161
12104SOL    HW148037   5.734   0.830   1.360  1.9869 -0.6968  1.1005
12104SOL    HW248038   5.688   0.828   1.504  0.7952 -1.6987  0.7241
12105SOL     OW48039   5.948   0.797   4.498 -0.3688  0.5606  0.4469
12105SOL    HW148040   5.897   0.719   4.477 -0.7349  1.6428 -3.3637
12105SOL    HW248041   5.930   0.813   4.591 -4.4793 -0.8939  0.1028
12106SOL     OW48042   3.236   7.112   1.593 -0.7520  0.1632 -0.2904
12106SOL    HW148043   3.318   7.149   1.628  0.2111 -0.6566 -1.6138
12106SOL    HW248044   3.237   7.021   1.621  0.0381 -0.5104 -2.3737
12107SOL     OW48045   8.326   1.247  12.260 -0.2895  0.2491  0.3585
12107SOL    HW148046   8.366   1.174  12.212 -0.2186  0.0681  0.6927
12107SOL    HW248047   8.385   1.262  12.334 -1.4634 -0.8335  1.5582
12108SOL     OW48048   4.565  12.202   2.259 -0.5526 -0.2255 -1.3409
12108SOL    HW148049   4.584  12.146   2.183 -0.9520 -0.6792 -1.1100
12108SOL    HW248050   4.512  12.147   2.317  0.5128 -0.1935 -0.3007
12109SOL     OW48051   6.675   9.842   9.673  0.0420  0.1516 -0.1095
12109SOL    HW148052   6.671   9.797   9.589 -1.3301 -0.4852  0.2559
12109SOL    HW248053   6.604   9.803   9.724  0.1785  1.2576  0.9788
12110SOL     OW48054   1.718   8.731  12.165 -0.1670  0.4695  0.3341
12110SOL    HW148055   1.752   8.693  12.246  1.2177  1.5157  0.2717
12110SOL    HW248056   1.795   8.764  12.119 -1.0191  0.6774 -1.0073
12111SOL     OW48057   7.662   8.247   4.244  0.4093 -0.7138 -0.9429
12111SOL    HW148058   7.679   8.316   4.308 -2.0996 -1.0773  0.2602
12111SOL    HW248059   7.728   8.180   4.264  0.8934  0.0105 -0.0284
12112SOL     OW48060  10.864   2.907  10.820  0.2348 -0.2350  0.2826
12112SOL    HW148061  10.959   2.898  10.832  0.2005 -2.2545 -0.6424
12112SOL    HW248062  10.833   2.818  10.808 -2.0729  0.1917  2.3380
12113SOL     OW48063   5.084   2.281   5.347 -0.3552  0.0272  0.0326
12113SOL    HW148064   5.157   2.337   5.321 -1.0577  1.2288  0.5686
12113SOL    HW248065   5.010   2.314   5.296 -0.6615 -0.7774 -0.0510
12114SOL     OW48066   5.342  10.133  12.417  0.0055  0.4644 -0.0190
12114SOL    HW148067   5.302  10.170  12.339  0.7578 -2.1268 -1.7593
12114SOL    HW248068   5.279  10.152  12.487 -1.4156  1.5589 -1.5090
12115SOL     OW48069  12.887   4.194   1.222  0.0043 -0.4413  0.2757
12115SOL    HW148070  12.905   4.120   1.281 -0.7219 -0.8974 -0.0499
12115SOL    HW248071  12.919   4.165   1.137 -0.9704 -0.7103 -0.0163
12116SOL     OW48072   5.561   0.938   8.486  0.5896 -0.6018 -0.4768
12116SOL    HW148073   5.543   0.993   8.563 -0.7365 -2.0824  0.3280
12116SOL    HW248074   5.656   0.929   8.485  0.8782  1.7480 -0.7110
12117SOL     OW48075   5.783   0.556  11.238 -0.4232  0.1217  0.5271
12117SOL    HW148076   5.802   0.483  11.180  0.6824  0.1158  0.8712
12117SOL    HW248077   5.863   0.567  11.290 -0.7880  1.1893  0.8924
12118SOL     OW48078   3.197   9.628  10.217 -0.4778  0.0868 -0.7319
12118SOL    HW148079   3.260   9.660  10.282  0.9464 -0.0929 -1.9438
12118SOL    HW248080   3.157   9.707  10.181 -2.4127  0.1366  1.3675
12119SOL     OW48081  13.322   5.306  13.278  0.6575  0.1246  0.1486
12119SOL    HW148082  13.296   5.253  13.203 -0.2021 -3.5133  2.7917
12119SOL    HW248083  13.264   5.382  13.275 -0.9516 -1.0845 -1.6061
12120SOL     OW48084   7.419   3.403   6.166 -0.2791  0.1092 -0.1256
12120SOL    HW148085   7.327   3.379   6.168 -0.6115  1.3073 -0.3202
12120SOL    HW248086   7.466   3.322   6.188 -1.2422 -1.0930 -2.2528
12121SOL     OW48087   4.627  13.361   9.988 -0.1532  0.3112 -0.2726
12121SOL    HW148088   4.603  13.442   9.943 -1.8879  0.9817  1.7139
12121SOL    HW248089   4.681  13.389  10.062  1.3875 -0.6367 -0.9786
12122SOL     OW48090   7.976   4.200  11.986 -0.1804  0.6539 -0.5163
12122SOL    HW148091   7.900   4.247  11.951  0.0390  0.6538 -0.9965
12122SOL    HW248092   7.944   4.163  12.069 -0.0627  2.4898  0.3932
12123SOL     OW48093  12.812   8.140   8.466 -0.4761 -0.1395 -0.3566
12123SOL    HW148094  12.856   8.163   8.385  2.1155  2.4081  1.5781
12123SOL    HW248095  12.830   8.047   8.478  2.0801  0.2162 -1.0222
12124SOL     OW48096  11.036   3.734   0.700  0.4195  0.0167 -0.2266
12124SOL    HW148097  11.114   3.756   0.650  0.4887  0.0046 -0.1245
12124SOL    HW248098  11.028   3.639   0.691 -0.2692  0.1615 -1.2317
12125SOL     OW48099   0.028   8.059  10.144 -0.2496 -0.4411  0.2094
12125SOL    HW148100   0.012   8.146  10.107  0.9454 -0.7976 -1.2025
12125SOL    HW248101   0.111   8.031  10.107  0.1635 -1.5724  1.8495
12126SOL     OW48102  12.493  10.923   1.016 -0.2435 -0.0573 -0.0826
12126SOL    HW148103  12.495  11.016   0.995  2.6550  0.2626  1.1590
12126SOL    HW248104  12.486  10.919   1.111 -1.8892 -1.2181 -0.1926
12127SOL     OW48105   5.857  12.915   6.358  0.4372  0.6902 -0.4792
12127SOL    HW148106   5.945  12.944   6.382  1.1940 -1.2841 -0.6831
12127SOL    HW248107   5.801  12.991   6.377  1.9184  1.4420  1.2124
12128SOL     OW48108  10.370   4.610   1.342 -0.3358  0.0793  0.3859
12128SOL    HW148109  10.415   4.578   1.264  0.9029 -0.3897  1.2687
12128SOL    HW248110  10.363   4.705   1.328  0.2094  0.0505 -0.1353
12129SOL     OW48111   0.542   0.781   0.083 -0.3621 -0.5057  0.5000
12129SOL    HW148112   0.473   0.831   0.126  1.1013  0.4911  1.8062
12129SOL    HW248113   0.588   0.736   0.154 -0.1135 -1.7728 -0.4143
12130SOL     OW48114  10.546   9.552   0.354  0.7247 -0.1782 -0.2764
12130SOL    HW148115  10.486   9.620   0.324  0.9339  0.3847  0.5700
12130SOL    HW248116  10.540   9.484   0.287  0.1334  0.4470 -0.8708
12131SOL     OW48117   8.459   0.293   7.588 -0.3435 -0.6199 -0.1393
12131SOL    HW148118   8.546   0.296   7.549 -0.8633  0.0411 -1.2995
12131SOL    HW248119   8.400   0.279   7.514 -1.4392  1.5422  0.2370
12132SOL     OW48120   7.537  13.242   2.657  0.3373  0.4486  0.1381
12132SOL    HW148121   7.443  13.243   2.637  0.5064  0.6503 -0.7075
12132SOL    HW248122   7.548  13.312   2.721 -0.3114 -0.5441  1.3664
12133SOL     OW48123   3.574   5.431   7.972 -0.6487  0.3719  0.3535
12133SOL    HW148124   3.587   5.425   7.878 -1.8991 -0.5034  0.2112
12133SOL    HW248125   3.480   5.444   7.983 -0.4335  1.1072  1.4616
12134SOL     OW48126   8.853   5.779   1.024 -0.0657  0.7790 -0.0684
12134SOL    HW148127   8.887   5.865   1.048 -1.0597  1.0228  0.5184
12134SOL    HW248128   8.761   5.794   1.006 -0.0658 -0.0189 -0.7982
12135SOL     OW48129   2.863   4.020   4.545 -0.0969  0.7527 -0.0454
12135SOL    HW148130   2.909   4.100   4.522  1.7364 -0.2178  0.0475
12135SOL    HW248131   2.853   4.024   4.641  3.0476 -0.5677  0.4558
12136SOL     OW48132  13.200   8.568   5.244  0.3488  0.0006  0.1431
12136SOL    HW148133  13.157   8.631   5.302  0.7580 -0.2315  0.7070
12136SOL    HW248134  13.290   8.564   5.276  0.9259  0.8073 -1.2886
12137SOL     OW48135   1.365  11.594  11.230 -0.7804  0.1329 -0.0183
12137SOL    HW148136   1.311  11.533  11.280 -0.5844 -0.1274 -0.1221
12137SOL    HW248137   1.353  11.567  11.139 -0.6692  0.2322 -0.0623
12138SOL     OW48138   1.674   3.388   8.043  0.1824  0.0154  0.7112
12138SOL    HW148139   1.653   3.331   7.969 -1.2783  1.6340 -0.2145
12138SOL    HW248140   1.723   3.461   8.004  1.6842 -0.3595  1.8028
12139SOL     OW48141  12.106   4.553  13.257 -0.0914 -0.2662 -0.2928
12139SOL    HW148142  12.020   4.532  13.221 -0.2598 -0.6614  0.3361
12139SOL    HW248143  12.158   4.579  13.180 -0.5741 -0.6715 -0.7640
12140SOL     OW48144  10.989  11.376   7.842 -0.1760 -0.4469  0.4670
12140SOL    HW148145  10.948  11.290   7.842  0.4692 -0.7740 -1.1880
12140SOL    HW248146  10.925  11.433   7.798 -0.2332 -0.2628  0.7857
12141SOL     OW48147   2.515   9.957   2.906 -0.4886 -0.5465  0.1500
12141SOL    HW148148   2.553  10.033   2.862  0.2281 -1.7301 -1.3672
12141SOL    HW248149   2.582   9.930   2.969 -0.8987  0.2729  0.9569
12142SOL     OW48150   8.338   1.649   4.734  0.3299 -0.8119  0.0039
12142SOL    HW148151   8.304   1.560   4.720  2.0972 -1.6650  0.8525
12142SOL    HW248152   8.354   1.654   4.828  0.8009  0.2179 -0.1193
12143SOL     OW48153   9.914   1.106   3.612  0.2988 -0.6383 -0.0042
12143SOL    HW148154   9.884   1.039   3.551  0.7588  0.2521 -1.2337
12143SOL    HW248155   9.982   1.062   3.664 -0.1091 -1.4031 -0.1046
12144SOL     OW48156   6.129   0.205   9.449 -0.2101 -0.3156 -0.0067
12144SOL    HW148157   6.101   0.115   9.460 -0.6519 -0.0593  1.2130
12144SOL    HW248158   6.218   0.199   9.415 -0.0723 -1.2295  0.4852
12145SOL     OW48159   7.950  10.163   3.285 -0.0624 -0.0452  0.0693
12145SOL    HW148160   7.954  10.241   3.230  0.7332 -0.1484 -0.0312
12145SOL    HW248161   7.866  10.171   3.331 -1.0402 -0.2781 -1.6075
12146SOL     OW48162   4.742   4.279   6.190  0.0431  0.1297 -0.4120
12146SOL    HW148163   4.656   4.318   6.202  0.4507  0.3833  2.2119
12146SOL    HW248164   4.803   4.344   6.224  1.1408 -0.7671 -0.5921
12147SOL     OW48165  12.450   7.247   5.090 -0.3357 -0.8919 -0.0001
12147SOL    HW148166  12.398   7.183   5.139 -1.3520 -1.9002 -2.2424
12147SOL    HW248167  12.385   7.298   5.042  0.6525 -0.6994 -1.1593
12148SOL     OW48168  10.809   2.267  12.933 -0.4370  0.3180 -0.5257
12148SOL    HW148169  10.778   2.266  13.024 -0.1173  0.1418 -0.4185
12148SOL    HW248170  10.779   2.352  12.899  2.4489  2.0137  0.8054
12149SOL     OW48171  13.200   2.320   1.306  0.1130  0.0492  0.4390
12149SOL    HW148172  13.105   2.317   1.290  0.1057  2.0878 -0.2949
12149SOL    HW248173  13.237   2.257   1.244 -0.7238 -0.2885  0.2704
12150SOL     OW48174   3.882   4.115  12.292 -0.0407  0.3620 -0.4651
12150SOL    HW148175   3.852   4.026  12.274 -1.3546  1.0322 -1.8389
12150SOL    HW248176   3.813   4.153  12.346  0.3108  0.6769 -0.2298
12151SOL     OW48177   0.134   3.264  13.481  0.0366 -0.3714 -0.4451
12151SOL    HW148178   0.184   3.330  13.434 -0.5029  1.1688  1.0422
12151SOL    HW248179   0.068   3.234  13.419 -0.1289  0.9908 -0.9461
12152SOL     OW48180   8.748  11.602  10.925  0.3197  0.0166  0.4206
12152SOL    HW148181   8.684  11.580  10.992  0.8644 -1.1745  0.5769
12152SOL    HW248182   8.804  11.524  10.918  0.7119  0.3818 -0.9068
12153SOL     OW48183  11.956   5.598  10.210  1.2833 -0.0218 -0.6264
12153SOL    HW148184  11.909   5.553  10.280 -0.4414  2.5548  0.0105
12153SOL    HW248185  11.909   5.574  10.130  0.5294  0.4404 -0.3262
12154SOL     OW48186   4.076  10.307   8.819 -0.0882  0.2260  0.2009
12154SOL    HW148187   4.139  10.376   8.840  0.9385 -0.0111 -1.7975
12154SOL    HW248188   4.004  10.320   8.881  0.6291  2.3272  0.6793
12155SOL     OW48189   5.109   9.496   9.705 -0.0500 -0.3792  0.7903
12155SOL    HW148190   5.116   9.591   9.709  0.5826 -0.3080 -1.2876
12155SOL    HW248191   5.170   9.465   9.772 -0.4722  0.6521  1.6851
12156SOL     OW48192   8.107   3.451  11.396 -0.5187 -0.1697  0.0783
12156SOL    HW148193   8.098   3.493  11.310  0.1829 -0.5535 -0.1862
12156SOL    HW248194   8.101   3.358  11.378 -1.2427 -0.2235  0.5640
12157SOL     OW48195  13.073  10.924   3.542 -0.3480  0.2596  0.4140
12157SOL    HW148196  13.106  10.935   3.631  0.4668  1.2219  0.0242
12157SOL    HW248197  13.051  11.013   3.514  0.0729  0.0741 -0.5711
12158SOL     OW48198   8.515  10.705   2.228 -0.2260  0.2425 -0.2448
12158SOL    HW148199   8.566  10.726   2.306  0.2033 -1.5976  0.0180
12158SOL    HW248200   8.466  10.626   2.253 -0.3791 -0.1449 -1.7133
12159SOL     OW48201   8.069   7.322   5.527  0.7084  0.2622 -0.0632
12159SOL    HW148202   7.994   7.337   5.470  1.3155  1.8826 -0.4970
12159SOL    HW248203   8.051   7.375   5.605  0.8362 -0.3154  0.3659
12160SOL     OW48204   8.763  12.958  12.021 -0.3009  0.3568  0.3867
12160SOL    HW148205   8.756  13.045  12.059  1.4881  0.6807  0.0430
12160SOL    HW248206   8.825  12.912  12.078  0.3343 -0.0139 -0.5706
12161SOL     OW48207   8.637   5.437  13.273  0.2227 -0.4750 -0.4858
12161SOL    HW148208   8.723   5.477  13.288 -0.0044 -0.3721  0.6517
12161SOL    HW248209   8.656   5.346  13.252  0.6274 -0.3417 -0.7043
12162SOL     OW48210   5.058   6.970   0.704 -0.0739 -0.2521 -0.4189
12162SOL    HW148211   5.091   6.882   0.684 -0.5180 -0.1196 -1.8692
12162SOL    HW248212   5.136   7.024   0.713  0.3410 -1.1942  2.8820
12163SOL     OW48213  10.937  13.094   3.611 -0.0121 -0.0314 -0.5472
12163SOL    HW148214  10.916  13.102   3.518 -2.8187 -1.1763 -0.0999
12163SOL    HW248215  10.954  13.000   3.624 -0.4483 -0.0068  0.2417
12164SOL     OW48216   9.613   2.691   4.207 -0.0092  0.3536 -0.3860
12164SOL    HW148217   9.541   2.701   4.145  0.6430  1.4738 -0.9847
12164SOL    HW248218   9.595   2.608   4.251 -1.4695  0.4370 -0.7700
12165SOL     OW48219   2.944  12.855   8.163 -0.3313  0.5722  0.2238
12165SOL    HW148220   2.895  12.932   8.132 -2.3433 -0.5270  0.5231
12165SOL    HW248221   2.877  12.792   8.187  1.2718 -1.2624  0.1222
12166SOL     OW48222   3.987   7.136   5.982 -0.0598  0.2863  0.5693
12166SOL    HW148223   4.021   7.189   5.910 -1.9210  0.2814 -0.3801
12166SOL    HW248224   4.021   7.048   5.965  2.0391  0.8815  1.4720
12167SOL     OW48225   4.378   6.137   9.108  0.6879  0.4958  0.1811
12167SOL    HW148226   4.379   6.225   9.072 -1.3530  0.2270 -0.6450
12167SOL    HW248227   4.454   6.094   9.068  1.6276  1.8177  0.4987
12168SOL     OW48228   1.667   0.334   2.923  0.1426 -0.1030 -0.7909
12168SOL    HW148229   1.678   0.290   3.007  0.5861 -0.8774 -1.2497
12168SOL    HW248230   1.593   0.394   2.937 -0.4272 -0.9382 -0.1334
12169SOL     OW48231   7.467   9.145   1.693 -0.2762 -0.3240  0.3874
12169SOL    HW148232   7.509   9.134   1.607  1.2072 -1.6648  1.2174
12169SOL    HW248233   7.496   9.231   1.723  1.0426 -0.7715  0.4722
12170SOL     OW48234   7.356  10.063   7.921 -0.0802 -0.0503 -0.3862
12170SOL    HW148235   7.325  10.068   7.830  0.9469  0.1744 -0.7476
12170SOL    HW248236   7.370  10.154   7.947  0.2212 -0.1377 -0.2301
12171SOL     OW48237   9.705   5.346   9.356  0.2136  0.5426 -0.7225
12171SOL    HW148238   9.692   5.377   9.445 -0.0705  0.4789 -0.7416
12171SOL    HW248239   9.639   5.277   9.344 -0.1276  0.9449 -1.1705
12172SOL     OW48240   1.482  12.455  11.992 -0.1840  0.4209  0.4164
12172SOL    HW148241   1.540  12.508  12.047  0.7682 -0.7925  0.6214
12172SOL    HW248242   1.467  12.375  12.043  0.8517 -0.8123 -1.1351
12173SOL     OW48243  11.085   7.548   9.600 -0.6930 -0.9415  0.3144
12173SOL    HW148244  11.020   7.478   9.607 -0.4163 -1.1957  0.3695
12173SOL    HW248245  11.159   7.508   9.553 -1.4614 -0.0084 -1.8118
12174SOL     OW48246   0.227  11.399   8.228  0.0774  0.1516  0.1826
12174SOL    HW148247   0.249  11.465   8.293 -0.8358  1.4132 -0.7593
12174SOL    HW248248   0.140  11.369   8.252  0.3281 -0.4456  0.3737
12175SOL     OW48249   7.898   8.664   2.715 -0.7155 -0.3335 -0.6795
12175SOL    HW148250   7.940   8.705   2.640  0.4665 -1.4854 -0.6993
12175SOL    HW248251   7.808   8.646   2.686 -0.7008  0.5225 -1.2956
12176SOL     OW48252   0.444   0.601   9.372 -0.2470 -0.6005  0.1033
12176SOL    HW148253   0.527   0.623   9.415 -1.1087 -1.4413  2.3323
12176SOL    HW248254   0.448   0.507   9.358 -0.8524 -0.6571  0.2801
12177SOL     OW48255   5.163   7.538  11.450  0.1408  0.3031 -0.1383
12177SOL    HW148256   5.137   7.597  11.379 -0.4482 -1.1364 -1.1550
12177SOL    HW248257   5.233   7.485  11.413  2.5812  2.0791  1.6138
12178SOL     OW48258  10.265   5.801   0.789 -0.1509 -0.1290  0.1076
12178SOL    HW148259  10.229   5.750   0.716 -0.6219 -0.0128  0.2551
12178SOL    HW248260  10.296   5.882   0.749 -1.4712  0.4441  0.1870
12179SOL     OW48261   7.841   1.565   8.196 -0.2351  0.6936 -0.3190
12179SOL    HW148262   7.828   1.583   8.289  0.8728 -1.3229  0.3094
12179SOL    HW248263   7.811   1.644   8.151  0.2700  2.1952  1.8094
12180SOL     OW48264  10.387   4.698   0.568  0.1341  0.3936 -0.6729
12180SOL    HW148265  10.415   4.789   0.577  1.4987  0.0687 -1.2756
12180SOL    HW248266  10.332   4.698   0.490  0.6334  0.6023 -1.0314
12181SOL     OW48267  12.632   3.807   2.730  0.3298 -0.4001  0.2618
12181SOL    HW148268  12.623   3.712   2.733  1.3878 -0.4969  0.5242
12181SOL    HW248269  12.697   3.823   2.663 -0.7967  0.2292 -0.7185
12182SOL     OW48270  13.726   2.127  12.125  0.0711 -0.6749  0.2881
12182SOL    HW148271  13.644   2.177  12.123  1.8644  2.6342  1.7585
12182SOL    HW248272  13.734   2.096  12.216  1.2513  0.6106  0.6524
12183SOL     OW48273   7.894   1.109  10.568  0.0996  0.3771  0.0090
12183SOL    HW148274   7.853   1.061  10.496  0.9424 -1.2143  0.5288
12183SOL    HW248275   7.947   1.176  10.525  0.9709 -0.8522 -0.9152
12184SOL     OW48276   5.579  13.227  13.222 -0.6510  0.0895 -0.2280
12184SOL    HW148277   5.550  13.183  13.302  0.6193 -1.5247 -0.6037
12184SOL    HW248278   5.622  13.307  13.252  2.3091 -1.8009  1.0274
12185SOL     OW48279  10.666   4.755  10.410  0.6698  0.1125 -0.0699
12185SOL    HW148280  10.730   4.763  10.340 -2.0180  0.1127 -2.7474
12185SOL    HW248281  10.630   4.843  10.421  0.3024 -0.1032  0.5422
12186SOL     OW48282   2.849   7.009   5.778 -0.3068 -0.2354 -0.0946
12186SOL    HW148283   2.808   6.965   5.704 -1.0852 -1.7394  1.1553
12186SOL    HW248284   2.876   6.938   5.836  1.1128  0.8605  0.6650
12187SOL     OW48285  12.909   9.002   4.515  0.5134  0.2329 -0.3424
12187SOL    HW148286  12.832   8.976   4.464 -1.8829 -0.0322  3.1253
12187SOL    HW248287  12.918   8.935   4.582  2.6931  1.2481  0.4772
12188SOL     OW48288  13.201  13.026   0.401  0.7232 -0.0980  0.1590
12188SOL    HW148289  13.206  12.963   0.474  2.0576 -1.7120 -1.2362
12188SOL    HW248290  13.107  13.031   0.381  0.6122 -2.2265 -0.1106
12189SOL     OW48291  12.050  11.959   0.575  0.3379  0.1030  1.0090
12189SOL    HW148292  12.001  12.012   0.513  0.2871  1.5542  2.2372
12189SOL    HW248293  12.067  12.017   0.648  1.3041 -1.2550  1.9154
12190SOL     OW48294   2.926   6.373   6.737 -0.4521  0.7177 -0.2509
12190SOL    HW148295   2.947   6.407   6.824 -0.3606 -2.4051  1.0730
12190SOL    HW248296   3.006   6.386   6.686 -0.5516  2.7212  0.0304
12191SOL     OW48297   0.665   6.661  12.718  0.1591 -0.1180 -0.6515
12191SOL    HW148298   0.690   6.702  12.635 -0.6941  2.0941  0.1177
12191SOL    HW248299   0.572   6.679  12.727  0.7161  1.9658  1.9369
12192SOL     OW48300   9.901   9.037   9.051 -0.1507  0.1425 -0.0123
12192SOL    HW148301   9.976   8.994   9.009 -0.3317 -0.8224  0.6271
12192SOL    HW248302   9.827   8.980   9.032 -0.4781  0.3984  0.4911
12193SOL     OW48303   9.936  10.062   9.973  0.3597  0.2156 -0.5982
12193SOL    HW148304   9.898   9.985  10.015  0.4710  0.8691  0.7559
12193SOL    HW248305   9.939  10.040   9.880 -3.2086  0.0650 -0.7942
12194SOL     OW48306   8.575   5.580  10.801 -0.2376  0.6528  0.2480
12194SOL    HW148307   8.623   5.638  10.742 -0.6296  0.7401  0.0122
12194SOL    HW248308   8.640   5.553  10.866  0.4788 -0.2422 -0.8000
12195SOL     OW48309  13.701   6.664  11.682  0.1769  0.1684 -0.2431
12195SOL    HW148310  13.634   6.670  11.614 -0.0431  2.0902  0.0878
12195SOL    HW248311  13.651   6.655  11.764  0.3240  0.7906 -0.0761
12196SOL     OW48312   1.595   7.126  11.516 -0.3574 -0.2667  0.2611
12196SOL    HW148313   1.516   7.181  11.518  0.3257  0.7303  0.2256
12196SOL    HW248314   1.571   7.049  11.568 -1.1196  0.3402  0.8412
12197SOL     OW48315   5.873  10.590   0.206  0.0177 -0.5113  0.0045
12197SOL    HW148316   5.778  10.581   0.209  0.1133 -1.8304 -0.2187
12197SOL    HW248317   5.888  10.682   0.188 -1.2304 -0.3522 -0.3110
12198SOL     OW48318   2.261   0.618  11.682 -0.2260  0.0744 -0.4276
12198SOL    HW148319   2.246   0.705  11.644 -1.6084 -0.2929 -0.8040
12198SOL    HW248320   2.200   0.614  11.756  0.5492 -0.2163  0.2105
12199SOL     OW48321  12.068   8.096   1.303 -0.2183  0.0790  0.0497
12199SOL    HW148322  12.048   8.034   1.233  0.3471  1.1952 -1.1261
12199SOL    HW248323  11.995   8.158   1.302 -1.5372 -1.2848  2.1693
12200SOL     OW48324  10.045   0.808   1.780 -0.4839  0.4275  0.4432
12200SOL    HW148325   9.975   0.779   1.721 -1.1118 -0.4832  1.5880
12200SOL    HW248326  10.021   0.772   1.866  0.8815  0.9311  1.0749
12201SOL     OW48327   1.275  13.154   2.738 -0.7963  0.1425 -0.3536
12201SOL    HW148328   1.191  13.133   2.779 -1.3477 -0.2649 -1.6358
12201SOL    HW248329   1.303  13.072   2.698 -0.0382  0.4094 -0.3759
12202SOL     OW48330   0.346  12.752  10.146  0.1319  0.3546 -0.1407
12202SOL    HW148331   0.407  12.824  10.127 -0.3398  0.8062  0.0356
12202SOL    HW248332   0.312  12.772  10.234 -0.4896  0.2632 -0.3585
12203SOL     OW48333   3.024   7.740   6.112 -0.6873 -0.3999 -0.0687
12203SOL    HW148334   3.108   7.697   6.129  0.0090  0.4510 -1.2374
12203SOL    HW248335   3.045   7.811   6.051 -1.7703  1.6953  1.8685
12204SOL     OW48336   3.026   2.019  11.599 -0.0624 -0.3092  0.2915
12204SOL    HW148337   2.949   1.961  11.605 -1.0693  0.8928 -0.4787
12204SOL    HW248338   3.005   2.091  11.658  1.2105 -0.7319  1.2897
12205SOL     OW48339   7.464   4.880   7.891 -0.7770  0.1838  0.1819
12205SOL    HW148340   7.512   4.820   7.949 -0.5004 -1.0984 -1.2845
12205SOL    HW248341   7.403   4.823   7.843 -1.6107  1.3346 -0.1610
12206SOL     OW48342  13.577   1.668   8.668 -0.1346  0.2136  0.1124
12206SOL    HW148343  13.523   1.746   8.678 -0.0239  0.2662  0.2991
12206SOL    HW248344  13.516   1.600   8.638 -0.2102  0.3976 -0.1581
12207SOL     OW48345  11.104   9.617   2.237 -0.1788  0.0759  0.0562
12207SOL    HW148346  11.158   9.651   2.166  0.4175  0.0829  0.4992
12207SOL    HW248347  11.085   9.694   2.292 -0.1946 -0.0179  0.1841
12208SOL     OW48348   8.305   8.528  10.350  0.8826 -0.2841 -0.3457
12208SOL    HW148349   8.396   8.558  10.345  0.9792  0.1181  2.4161
12208SOL    HW248350   8.283   8.531  10.443 -2.1747  0.1966 -0.9616
12209SOL     OW48351  10.128   7.138   9.592  0.3475 -0.0935 -0.0945
12209SOL    HW148352  10.191   7.208   9.603  0.3704  0.0472 -1.0599
12209SOL    HW248353  10.049   7.181   9.559  0.7868 -0.6700 -1.9933
12210SOL     OW48354   3.663   8.690   5.979 -0.1357 -0.1752 -0.4373
12210SOL    HW148355   3.693   8.613   6.027  0.0728 -1.1601 -2.0671
12210SOL    HW248356   3.743   8.739   5.960 -0.0667 -0.4616 -0.8936
12211SOL     OW48357   4.995   9.501   9.243  0.0006  0.0339 -0.1275
12211SOL    HW148358   4.965   9.412   9.224 -0.1311 -0.0357  0.3976
12211SOL    HW248359   4.914   9.552   9.252  0.0001 -0.2421  1.7305
12212SOL     OW48360   8.233   7.386  10.794 -0.3076  0.1560 -0.0735
12212SOL    HW148361   8.157   7.336  10.823 -1.0350  1.4362  0.2578
12212SOL    HW248362   8.210   7.477  10.809  1.0999  0.5975 -0.4397
12213SOL     OW48363  10.242  10.019  13.619 -0.0244  0.1108 -0.1036
12213SOL    HW148364  10.188  10.000  13.696 -2.1941 -1.2522 -1.8280
12213SOL    HW248365  10.312   9.954  13.622  0.0025  0.1698  0.7677
12214SOL     OW48366  10.000   0.152  12.543 -0.2141 -0.1139 -0.1212
12214SOL    HW148367  10.048   0.234  12.555  1.6921 -1.2390  0.3871
12214SOL    HW248368  10.066   0.090  12.512 -0.6934 -2.3759  2.8981
12215SOL     OW48369   8.209   6.599   6.382  0.2654  0.6594  0.2156
12215SOL    HW148370   8.159   6.565   6.455 -0.6466 -1.2774 -1.2042
12215SOL    HW248371   8.199   6.694   6.387 -0.2017  0.5370  2.2526
12216SOL     OW48372   9.020   0.688  13.623  0.0989  0.7666  0.1899
12216SOL    HW148373   9.053   0.679  13.534 -1.0882  1.0970 -0.3052
12216SOL    HW248374   8.997   0.780  13.631  0.9974  0.9350  1.1513
12217SOL     OW48375   6.119   3.926   7.689  0.4055 -1.1874 -0.0474
12217SOL    HW148376   6.095   3.919   7.597  0.6333 -0.5701 -0.1656
12217SOL    HW248377   6.197   3.871   7.697  0.2201 -1.4668 -0.1592
12218SOL     OW48378   1.642   9.059  13.726  0.0165 -0.3928  0.2295
12218SOL    HW148379   1.709   9.115  13.766 -1.5205  1.0579  0.9289
12218SOL    HW248380   1.675   9.041  13.638  0.3247  2.2007 -0.2660
12219SOL     OW48381   5.421  10.892   3.861 -0.0321  0.2601  0.7886
12219SOL    HW148382   5.483  10.888   3.789 -0.2733  0.1633  0.5845
12219SOL    HW248383   5.374  10.975   3.848 -0.4216  0.0045  0.5433
12220SOL     OW48384   9.494   7.023   6.956 -0.2103 -0.4107 -0.2211
12220SOL    HW148385   9.445   7.070   6.888 -0.6658 -0.6732 -0.0825
12220SOL    HW248386   9.462   7.060   7.038 -0.0780 -0.4910 -0.1338
12221SOL     OW48387   3.267  12.516   4.130  0.0639  0.1412  0.1451
12221SOL    HW148388   3.306  12.576   4.193  2.5371 -2.8336  1.7503
12221SOL    HW248389   3.319  12.529   4.050  1.4479 -0.6230  0.8752
12222SOL     OW48390   5.402  10.120   2.802 -0.5059  0.1494 -0.2665
12222SOL    HW148391   5.431  10.032   2.828 -1.8553  0.1124  1.2444
12222SOL    HW248392   5.394  10.168   2.885  0.3821  1.7854 -1.0785
12223SOL     OW48393  11.234  10.646   0.657  0.4409  0.2288 -0.1388
12223SOL    HW148394  11.294  10.663   0.729 -1.8766  3.5167  1.2986
12223SOL    HW248395  11.246  10.720   0.598 -1.1696  0.2666 -0.4779
12224SOL     OW48396   8.046   4.066   3.621 -0.5254 -0.3666  0.1124
12224SOL    HW148397   7.998   4.129   3.673 -1.8734 -1.0953 -0.2017
12224SOL    HW248398   8.056   4.107   3.535  1.5422  0.7588  0.8202
12225SOL     OW48399   4.635   0.386   6.206 -0.5736  0.0544 -0.0187
12225SOL    HW148400   4.583   0.370   6.285  2.3432  0.4758  2.1622
12225SOL    HW248401   4.579   0.440   6.151 -2.9016 -0.6115  1.5273
12226SOL     OW48402   6.251   1.231   9.261 -0.0692  0.1502  0.9876
12226SOL    HW148403   6.289   1.317   9.242 -0.1227  0.0878  0.5882
12226SOL    HW248404   6.178   1.249   9.321 -0.4859  0.4543  0.3981
12227SOL     OW48405   2.394   0.073  10.227  0.1206 -0.1588  0.0132
12227SOL    HW148406   2.382   0.168  10.224 -0.1483 -0.2186 -1.0985
12227SOL    HW248407   2.412   0.054  10.319  2.0621  1.2014 -0.0258
12228SOL     OW48408   8.676  13.590   5.009 -0.3075  0.0962  0.3261
12228SOL    HW148409   8.585  13.590   5.038 -0.7005  2.7978 -0.6413
12228SOL    HW248410   8.674  13.551   4.921 -0.5978  0.4441  0.1768
12229SOL     OW48411  10.877  10.258  13.317 -0.8543 -0.0198  0.2204
12229SOL    HW148412  10.883  10.277  13.224  1.9149 -0.7833  0.1659
12229SOL    HW248413  10.863  10.163  13.321  0.3020 -0.1884  0.5598
12230SOL     OW48414   2.346   8.484  10.528 -0.0623  0.3731  0.3565
12230SOL    HW148415   2.416   8.465  10.590  1.6481  0.6334 -1.3966
12230SOL    HW248416   2.334   8.579  10.534  1.3189  0.6631 -0.8625
12231SOL     OW48417   5.529   8.752   3.551 -0.4461 -0.0544 -0.2374
12231SOL    HW148418   5.588   8.736   3.478 -0.2600  0.3151 -0.1700
12231SOL    HW248419   5.444   8.772   3.511 -1.0027 -2.3016 -0.3257
12232SOL     OW48420  13.007  10.460   9.566  0.7865 -0.0359 -0.0494
12232SOL    HW148421  12.957  10.435   9.488  2.9525  1.2736 -1.9676
12232SOL    HW248422  12.941  10.465   9.636 -1.4204 -0.2284 -2.0069
12233SOL     OW48423   0.745  13.056   7.463 -0.2894 -0.0985 -0.2701
12233SOL    HW148424   0.656  13.092   7.463  0.2377  1.2674  0.7684
12233SOL    HW248425   0.733  12.964   7.440 -1.9157  0.1746 -0.6506
12234SOL     OW48426   0.677  13.400   5.469 -0.1855 -0.2580  0.0537
12234SOL    HW148427   0.717  13.318   5.499  0.5820 -0.3113 -1.0839
12234SOL    HW248428   0.702  13.407   5.377 -0.5554  1.0702  0.0391
12235SOL     OW48429  13.708   3.514   1.085 -0.0508  0.0744 -0.0162
12235SOL    HW148430  13.683   3.515   1.178 -1.5432 -0.1077 -0.3924
12235SOL    HW248431  13.680   3.429   1.053  1.4027 -0.2886 -0.4289
12236SOL     OW48432   9.162   0.700   8.663 -0.1360  0.3935 -0.0043
12236SOL    HW148433   9.119   0.620   8.631 -0.2393  0.1035  0.8173
12236SOL    HW248434   9.255   0.683   8.653 -0.1801  0.4793 -0.5466
12237SOL     OW48435  11.453   0.539   4.438  0.5565 -0.0466  0.4454
12237SOL    HW148436  11.469   0.629   4.408  0.7573  0.4299  1.8955
12237SOL    HW248437  11.362   0.540   4.469 -0.2586 -1.0032 -1.6527
12238SOL     OW48438  10.014   7.333   7.390 -0.1472 -0.7704 -0.3205
12238SOL    HW148439  10.037   7.283   7.468 -1.4350  1.4382  1.6036
12238SOL    HW248440   9.952   7.278   7.343  0.9830 -2.3335 -0.0760
12239SOL     OW48441  10.800   0.102  10.923 -0.8056  0.2588 -0.6174
12239SOL    HW148442  10.808   0.086  11.016 -1.2453  0.6553 -0.5039
12239SOL    HW248443  10.800   0.197  10.915  0.5021  0.2373 -1.1486
12240SOL     OW48444   9.547   1.818  10.832  0.2522 -0.5507 -0.6193
12240SOL    HW148445   9.569   1.848  10.744 -1.1099  0.6749 -0.5792
12240SOL    HW248446   9.493   1.741  10.818  0.7747 -0.8821 -0.8294
12241SOL     OW48447  12.977   4.931  12.404  0.2403  0.3152 -0.2361
12241SOL    HW148448  13.008   4.941  12.494  0.6178  0.0179 -0.3323
12241SOL    HW248449  13.056   4.915  12.353 -0.0797 -0.6291 -0.4583
12242SOL     OW48450   8.677   8.148   3.105  0.1068  0.3727  0.3467
12242SOL    HW148451   8.661   8.129   3.013 -1.7633 -0.2434  0.7663
12242SOL    HW248452   8.672   8.063   3.148  0.3476  0.7312  1.1069
12243SOL     OW48453   5.249  10.897   5.751 -0.0947 -0.6577 -0.7007
12243SOL    HW148454   5.249  10.826   5.815 -2.2797  0.9220  1.2543
12243SOL    HW248455   5.160  10.898   5.715  0.5397 -0.2760 -2.3471
12244SOL     OW48456   9.193  12.571   4.810 -0.2094 -0.1664 -0.2478
12244SOL    HW148457   9.204  12.622   4.730 -0.0728  1.2027  0.6089
12244SOL    HW248458   9.118  12.611   4.854  0.8270  0.3191  1.1680
12245SOL     OW48459   9.463   6.492  12.248  0.8179 -0.0907  0.1312
12245SOL    HW148460   9.393   6.493  12.314  2.8748  4.1663  2.6797
12245SOL    HW248461   9.418   6.515  12.166 -1.2404 -1.3289  0.8384
12246SOL     OW48462   7.369   2.571   2.793  0.2105 -0.1255 -0.1651
12246SOL    HW148463   7.459   2.543   2.777  0.4214  0.6431 -0.3560
12246SOL    HW248464   7.359   2.563   2.888  0.5807  0.0691 -0.1057
12247SOL     OW48465   1.915   6.653   9.223  0.0975 -0.7134  0.0780
12247SOL    HW148466   1.988   6.696   9.269  2.2135 -4.0337  0.1398
12247SOL    HW248467   1.883   6.588   9.285 -2.3258 -0.0431 -0.3631
12248SOL     OW48468  10.605   7.636   5.129  0.3068  0.0326 -0.3058
12248SOL    HW148469  10.538   7.657   5.065  0.2428 -1.0795 -0.6099
12248SOL    HW248470  10.687   7.667   5.089  0.1975 -0.1647 -0.6840
12249SOL     OW48471  11.900  10.285   7.104  0.0002 -0.6237 -0.3983
12249SOL    HW148472  11.812  10.306   7.071  0.4554  0.3448 -1.0338
12249SOL    HW248473  11.910  10.341   7.181  0.4395  0.0208 -0.9160
12250SOL     OW48474   9.792  13.288   2.955  0.3277  0.5649 -0.3147
12250SOL    HW148475   9.800  13.237   3.036  0.6355  0.7966 -0.1966
12250SOL    HW248476   9.875  13.335   2.948  0.4462  0.2670 -0.9606
12251SOL     OW48477   3.951   2.279  12.357  0.8406 -0.7099  0.3883
12251SOL    HW148478   3.912   2.362  12.384 -0.4226 -0.8203 -0.9624
12251SOL    HW248479   3.928   2.218  12.426 -0.4421 -0.4957  0.1763
12252SOL     OW48480   2.556   7.618   1.411  0.7983  0.0471 -0.1090
12252SOL    HW148481   2.553   7.531   1.370 -0.0006  0.5634 -1.1738
12252SOL    HW248482   2.486   7.667   1.369 -0.0647  0.6157  1.8678
12253SOL     OW48483   4.847  13.347   1.130  0.2045  0.6569  0.0479
12253SOL    HW148484   4.904  13.366   1.056 -0.2033 -1.2453 -0.7986
12253SOL    HW248485   4.883  13.267   1.168 -0.7145  0.5591  0.7520
12254SOL     OW48486   4.983  13.348   6.072 -0.0638  0.2166 -0.4652
12254SOL    HW148487   4.895  13.311   6.083 -0.1496  0.5311 -0.0882
12254SOL    HW248488   5.042  13.276   6.095 -0.1993 -0.3499 -1.8041
12255SOL     OW48489   5.846   2.569   5.523 -0.5796  0.1274 -0.0005
12255SOL    HW148490   5.874   2.659   5.538 -0.1596 -0.0211  0.1174
12255SOL    HW248491   5.804   2.572   5.437  0.2440  0.2647 -0.4123
12256SOL     OW48492   5.918   8.053   9.839  0.2053  0.4373  0.6295
12256SOL    HW148493   5.922   8.098   9.924 -0.2235 -1.8098  1.9154
12256SOL    HW248494   6.010   8.033   9.819  0.3878  1.7093  0.1056
12257SOL     OW48495  11.017   1.416   6.341  0.0867  0.4842 -0.5214
12257SOL    HW148496  11.086   1.473   6.374 -0.8938  1.6049 -0.3137
12257SOL    HW248497  11.024   1.423   6.245 -0.0685  1.0220 -0.4974
12258SOL     OW48498  12.277   5.420  13.549 -0.1374  0.8649  0.4780
12258SOL    HW148499  12.188   5.387  13.556  0.4537 -1.0190 -0.3999
12258SOL    HW248500  12.266   5.515  13.540 -1.8803  1.0500  3.2460
12259SOL     OW48501  12.583   6.619   5.377 -0.5536 -0.1080  0.1957
12259SOL    HW148502  12.564   6.705   5.415 -2.5870 -0.5747  0.3853
12259SOL    HW248503  12.612   6.638   5.288 -0.1394  0.7999  0.5120
12260SOL     OW48504   8.700   9.051   1.797  0.3833  0.1393 -0.7663
12260SOL    HW148505   8.712   9.094   1.882 -0.3575 -1.6337  0.3016
12260SOL    HW248506   8.711   8.957   1.816  1.1595 -0.2478 -2.8285
12261SOL     OW48507   9.707   7.635  10.117  0.0195 -0.0523 -0.1741
12261SOL    HW148508   9.732   7.624  10.026  1.6246 -1.7634  0.4082
12261SOL    HW248509   9.693   7.545  10.149  0.7784  0.4163  1.5796
12262SOL     OW48510  12.243  13.369   9.507 -0.7392  0.3938 -1.0512
12262SOL    HW148511  12.332  13.379   9.541 -1.2123 -0.4309  0.4781
12262SOL    HW248512  12.190  13.346   9.583 -1.9930 -0.6712 -2.2033
12263SOL     OW48513   0.963   7.868   5.209  0.1914  0.2256 -0.2343
12263SOL    HW148514   1.041   7.840   5.257  0.4268 -0.3801 -0.9465
12263SOL    HW248515   0.901   7.796   5.218  0.0560  0.3141 -0.4421
12264SOL     OW48516  13.485   7.254   7.434 -0.4145 -0.2965 -0.6414
12264SOL    HW148517  13.550   7.300   7.381 -0.5074  1.1269  0.4234
12264SOL    HW248518  13.501   7.285   7.523 -2.0426 -0.5196 -0.2482
12265SOL     OW48519  10.384  10.778  10.640  0.3517  0.0392  0.1769
12265SOL    HW148520  10.430  10.730  10.571 -0.7618  1.3110 -1.5402
12265SOL    HW248521  10.378  10.868  10.607  3.3378  1.8359  3.7229
12266SOL     OW48522  10.943   8.119   8.233 -0.5414  0.0293  0.0493
12266SOL    HW148523  10.910   8.076   8.154  0.5285  2.1873 -1.6768
12266SOL    HW248524  11.021   8.069   8.257  1.4414  1.5597 -2.6846
12267SOL     OW48525   1.203  10.066   0.492 -0.1169 -0.2564  0.6328
12267SOL    HW148526   1.258  10.140   0.517 -1.6536  1.0441  0.2992
12267SOL    HW248527   1.131  10.105   0.443 -2.3139 -1.6687  2.5493
12268SOL     OW48528   5.982   4.665   8.719  0.2830 -0.1543 -0.1102
12268SOL    HW148529   5.915   4.729   8.743  0.2503  0.6088 -2.0466
12268SOL    HW248530   5.981   4.664   8.623  0.7741 -2.5537 -0.1616
12269SOL     OW48531   0.276  13.045   3.430 -0.7670 -0.7799 -0.1446
12269SOL    HW148532   0.319  13.038   3.516 -0.6036 -0.0386 -0.1517
12269SOL    HW248533   0.226  13.127   3.436 -1.3343 -1.0989 -0.5050
12270SOL     OW48534   0.245   5.438   5.652 -0.1827 -0.3953  0.4658
12270SOL    HW148535   0.250   5.377   5.578  0.1965  0.7830 -0.5156
12270SOL    HW248536   0.334   5.440   5.687  0.6372  1.9554 -1.5200
12271SOL     OW48537   0.279   1.232   2.688 -0.4278  0.6653 -0.5032
12271SOL    HW148538   0.291   1.313   2.639 -2.9700  1.0207 -0.7082
12271SOL    HW248539   0.307   1.253   2.777  1.0519  1.0456 -1.0338
12272SOL     OW48540   4.923   0.128   0.574 -0.1390 -0.0437 -0.3964
12272SOL    HW148541   4.906   0.114   0.668 -0.2825 -2.0241 -0.6826
12272SOL    HW248542   5.008   0.171   0.572 -0.0193 -0.2027  0.6376
12273SOL     OW48543   8.954  13.671  10.977 -0.2270 -0.0328  0.2900
12273SOL    HW148544   8.868  13.689  11.015  0.7768  2.5651  1.5895
12273SOL    HW248545   8.970  13.745  10.918  0.5335 -1.2675 -1.1382
12274SOL     OW48546   3.385  12.704  13.032 -0.1825 -0.0732  0.4593
12274SOL    HW148547   3.337  12.648  12.971  0.7311 -0.8725  0.4532
12274SOL    HW248548   3.327  12.712  13.108 -1.4214  1.0936 -0.5498
12275SOL     OW48549  10.690  11.248   0.362 -0.0630  0.0084 -0.4370
12275SOL    HW148550  10.782  11.269   0.380 -0.4709  1.3123  0.2246
12275SOL    HW248551  10.691  11.214   0.273  1.2543 -1.3689  0.0617
12276SOL     OW48552   4.557  13.336   0.521  0.0504  0.0605  0.3183
12276SOL    HW148553   4.570  13.249   0.482  0.3183 -0.2090  0.9914
12276SOL    HW248554   4.645  13.373   0.527 -0.2909  1.8432 -3.1629
12277SOL     OW48555  12.857   5.100  10.072 -0.9207  0.3554  0.3688
12277SOL    HW148556  12.893   5.184  10.041  1.6428 -0.9569 -0.5413
12277SOL    HW248557  12.834   5.117  10.163  3.1482  1.2099  1.4638
12278SOL     OW48558   8.967   0.444   4.325  0.4941  0.3303 -0.0916
12278SOL    HW148559   8.983   0.358   4.364 -0.5212 -0.3150 -1.0330
12278SOL    HW248560   8.960   0.427   4.231 -1.9112  1.0649 -0.1097
12279SOL     OW48561  10.083   7.803   0.959 -0.0660 -0.0386  0.1105
12279SOL    HW148562  10.062   7.891   0.990 -1.3671  1.2383 -3.7988
12279SOL    HW248563  10.095   7.752   1.039 -1.6710  3.0906  2.5938
12280SOL     OW48564   7.142   0.610   9.619  0.2654 -0.1008  0.0751
12280SOL    HW148565   7.224   0.569   9.648  0.0408  0.0216  0.9224
12280SOL    HW248566   7.124   0.676   9.686  0.1938  0.8354 -0.8408
12281SOL     OW48567  10.976  11.574  11.689  0.3354 -0.5247 -0.3199
12281SOL    HW148568  11.027  11.502  11.725 -0.2459 -0.0657  1.5318
12281SOL    HW248569  11.018  11.653  11.723  0.2086 -0.0238 -1.2894
12282SOL     OW48570   1.991  12.425   2.349 -0.1769  0.7019 -0.5848
12282SOL    HW148571   1.958  12.367   2.417  0.9448  0.8055  0.0667
12282SOL    HW248572   2.055  12.372   2.301  0.5858  1.2540 -0.2139
12283SOL     OW48573   4.231   1.830   9.052  0.1075 -0.4239  0.0298
12283SOL    HW148574   4.189   1.894   9.109 -1.2625 -2.0199  0.9005
12283SOL    HW248575   4.271   1.766   9.111  2.5918  0.2282 -0.7998
12284SOL     OW48576  13.319   5.937   5.432  0.1974 -0.3261  0.1899
12284SOL    HW148577  13.414   5.924   5.440  0.3195 -0.2637 -1.0168
12284SOL    HW248578  13.304   6.025   5.465  0.7102  0.0696 -0.6295
12285SOL     OW48579  11.184   3.430   8.229  0.1337  0.0618  0.5215
12285SOL    HW148580  11.198   3.441   8.323  1.1716 -0.5502  0.4560
12285SOL    HW248581  11.272   3.429   8.191 -0.2544 -0.0866 -0.4089
12286SOL     OW48582  12.825   6.430   5.337 -0.5728 -0.2038  0.1551
12286SOL    HW148583  12.809   6.491   5.409  0.9768  1.1526 -0.6034
12286SOL    HW248584  12.805   6.344   5.374 -0.5733  0.5339  1.9681
12287SOL     OW48585   0.932   2.828   4.196 -0.1395 -0.6733  0.7373
12287SOL    HW148586   0.929   2.921   4.219  1.5100 -0.1791 -0.8856
12287SOL    HW248587   0.925   2.827   4.101 -1.9882 -2.3632  0.8419
12288SOL     OW48588  11.502   9.594   9.023 -0.2844 -0.5331 -0.5470
12288SOL    HW148589  11.421   9.572   8.979 -1.1442 -0.0047  0.7093
12288SOL    HW248590  11.492   9.558   9.111  0.0825  1.0364  0.1800
12289SOL     OW48591   4.434   5.604  12.338 -0.3355 -0.3541  0.4972
12289SOL    HW148592   4.471   5.544  12.273 -1.6745 -0.4890 -0.1729
12289SOL    HW248593   4.478   5.582  12.420  0.8302 -0.6931 -0.2053
12290SOL     OW48594   6.939  10.807   4.545 -0.2326 -0.1830  0.0917
12290SOL    HW148595   6.906  10.800   4.455  0.8357  0.1548 -0.3423
12290SOL    HW248596   6.985  10.891   4.547 -0.1139 -0.2596  0.9137
12291SOL     OW48597  10.671  11.844  13.013 -0.2558 -0.0122  0.0529
12291SOL    HW148598  10.615  11.853  13.090 -0.6620 -0.3716 -0.1935
12291SOL    HW248599  10.689  11.934  12.985 -0.6742  0.1040  0.1603
12292SOL     OW48600   9.582   5.448   4.718 -0.0756  0.2714 -0.4694
12292SOL    HW148601   9.528   5.491   4.784  0.3834 -1.6721  1.2669
12292SOL    HW248602   9.525   5.382   4.679  0.4772 -0.5318  0.0549
12293SOL     OW48603   4.893  11.642   2.433 -0.0613 -0.4047  0.8336
12293SOL    HW148604   4.936  11.627   2.518  0.2312  0.0600  0.7696
12293SOL    HW248605   4.809  11.597   2.441  0.6047 -1.7132  0.8047
12294SOL     OW48606   7.129   4.224   0.260  0.0099  0.1825  0.2155
12294SOL    HW148607   7.100   4.174   0.184 -1.2958 -1.0795  1.4783
12294SOL    HW248608   7.049   4.262   0.296  0.5391  0.3852  1.2103
12295SOL     OW48609  12.319  11.840   2.733 -0.8233  0.2849  0.1938
12295SOL    HW148610  12.315  11.787   2.653 -0.4551  0.6205 -0.0537
12295SOL    HW248611  12.351  11.925   2.703  1.0695 -0.1182  0.9682
12296SOL     OW48612  10.123   8.541   2.803  0.3486  0.5819 -0.5668
12296SOL    HW148613  10.143   8.460   2.851  2.0669  1.3395  0.0879
12296SOL    HW248614  10.185   8.540   2.730 -0.9548  0.3744 -1.6887
12297SOL     OW48615   0.455   8.533   5.609 -0.1342 -0.0229 -1.0602
12297SOL    HW148616   0.464   8.445   5.572 -0.6515 -0.0330 -1.1628
12297SOL    HW248617   0.444   8.590   5.534 -0.2799  0.0682 -0.9717
12298SOL     OW48618   0.871   4.350   7.578 -0.2999  0.1812  0.7374
12298SOL    HW148619   0.876   4.255   7.592 -1.8057 -0.0455 -0.0050
12298SOL    HW248620   0.952   4.372   7.533  0.0446 -0.7785  0.8628
12299SOL     OW48621   9.044   0.030   6.079 -0.2138  0.4526 -0.7389
12299SOL    HW148622   9.070   0.118   6.053 -0.6333  0.1709 -2.2421
12299SOL    HW248623   8.950   0.026   6.062  0.0333 -0.7062 -2.1434
12300SOL     OW48624   5.228   4.565  12.877 -0.2859  0.8324 -0.2575
12300SOL    HW148625   5.182   4.499  12.929 -2.4956  3.5602  1.5612
12300SOL    HW248626   5.290   4.515  12.824 -0.6434 -2.5148  2.1433
12301SOL     OW48627   6.575  10.080   6.973  0.0457 -0.4334 -0.3999
12301SOL    HW148628   6.642  10.039   6.918 -0.7657 -0.9514 -1.0350
12301SOL    HW248629   6.512  10.010   6.990 -0.6084  0.1737 -0.2653
12302SOL     OW48630  13.151   2.101   7.229 -0.8305 -0.2194 -0.2874
12302SOL    HW148631  13.176   2.011   7.209 -0.9425 -1.1280  2.9906
12302SOL    HW248632  13.061   2.109   7.199 -0.4051 -0.7520 -1.7621
12303SOL     OW48633  10.406   1.680  11.139 -0.3360 -0.1918  0.1521
12303SOL    HW148634  10.402   1.636  11.054  0.4280 -0.2136  0.1167
12303SOL    HW248635  10.338   1.747  11.135 -0.1591 -0.0440 -0.5704
12304SOL     OW48636  10.474   2.154   0.878 -0.0235 -0.0325 -0.4244
12304SOL    HW148637  10.436   2.175   0.963 -0.5444 -0.1372 -0.6323
12304SOL    HW248638  10.437   2.218   0.818 -0.9883 -1.0124 -0.9035
12305SOL     OW48639   8.469   5.514   5.093  0.0940 -0.4191  0.2250
12305SOL    HW148640   8.527   5.478   5.025  2.0132  1.4108  0.7741
12305SOL    HW248641   8.395   5.550   5.044  0.8874 -0.1492 -0.8212
12306SOL     OW48642   3.217   2.188   6.060  0.6143 -0.2995  0.4444
12306SOL    HW148643   3.280   2.216   5.993 -0.4729 -0.4481 -0.6900
12306SOL    HW248644   3.211   2.093   6.048  0.7964 -0.3986  1.1187
12307SOL     OW48645   9.289   0.610  12.051 -0.6732 -0.1992  0.3470
12307SOL    HW148646   9.235   0.616  12.130 -2.0275 -0.7988 -0.5085
12307SOL    HW248647   9.379   0.615  12.084 -1.2267  0.7130  1.8084
12308SOL     OW48648   7.520  12.430   9.239  0.0796  0.0642 -0.4546
12308SOL    HW148649   7.442  12.397   9.195 -1.3321 -0.2857  2.1046
12308SOL    HW248650   7.490  12.510   9.282  2.2237  2.1907 -2.6149
12309SOL     OW48651  12.144   0.104   3.888 -0.2725 -0.1184 -0.2299
12309SOL    HW148652  12.224   0.141   3.925  0.6303 -0.6262 -1.5739
12309SOL    HW248653  12.087   0.089   3.963  0.5786  1.0004  0.6727
12310SOL     OW48654   4.380   8.144   3.888 -0.5791  1.0409 -0.3083
12310SOL    HW148655   4.291   8.172   3.911 -0.3988  1.1665  0.2375
12310SOL    HW248656   4.367   8.083   3.815 -0.9871  2.5960 -1.6062
12311SOL     OW48657   6.328  10.679   1.043  0.1464  0.3984  0.4675
12311SOL    HW148658   6.412  10.665   1.000 -0.6070 -0.8858 -0.6575
12311SOL    HW248659   6.300  10.591   1.069  0.3930  1.0706  3.3193
12312SOL     OW48660   5.387  10.965   0.280 -0.0728 -0.2766 -0.3896
12312SOL    HW148661   5.320  11.018   0.324  2.1836  0.2549  2.7515
12312SOL    HW248662   5.451  11.029   0.247  1.8763 -0.8032  2.0589
12313SOL     OW48663   3.359  12.125   2.880  0.2934  0.0884 -0.2498
12313SOL    HW148664   3.429  12.185   2.855  0.9572 -1.5547 -2.7366
12313SOL    HW248665   3.281  12.160   2.838  1.2385 -2.1700 -4.3958
12314SOL     OW48666   9.901  11.650   1.355 -0.2605 -0.2557  0.0638
12314SOL    HW148667   9.809  11.672   1.348 -0.1201  0.1901 -0.4689
12314SOL    HW248668   9.923  11.612   1.270  0.4034  1.0523 -0.3839
12315SOL     OW48669   1.003   0.697  11.405  0.2033  0.1350 -0.1922
12315SOL    HW148670   1.024   0.611  11.368 -0.7457  0.0346 -0.5447
12315SOL    HW248671   1.083   0.748  11.394  1.0256 -0.9117  0.6815
12316SOL     OW48672   8.625  11.362   1.273 -0.4487  0.1492 -0.5473
12316SOL    HW148673   8.659  11.318   1.351 -0.4060  0.7112 -0.2358
12316SOL    HW248674   8.680  11.440   1.264 -0.4551  0.0874 -1.1426
12317SOL     OW48675   2.095  12.031   9.849  0.0880 -0.3382  0.4054
12317SOL    HW148676   2.149  11.994   9.780 -0.7011  1.2388 -1.1372
12317SOL    HW248677   2.049  12.104   9.808 -2.2546 -0.7957  1.9655
12318SOL     OW48678   3.550   0.140   5.741  0.0717  0.3826 -0.0758
12318SOL    HW148679   3.460   0.114   5.763  0.2876 -1.3238 -1.0090
12318SOL    HW248680   3.599   0.122   5.822 -0.6215  2.7040  0.9283
12319SOL     OW48681   2.262   4.302   1.341  0.7764 -0.4129 -0.5299
12319SOL    HW148682   2.339   4.303   1.398 -0.1812  1.2176  0.8260
12319SOL    HW248683   2.268   4.384   1.292 -0.6985  0.3471  0.5025
12320SOL     OW48684   9.697  12.653   7.262 -0.6025  0.1406 -0.5844
12320SOL    HW148685   9.747  12.582   7.302 -0.6257 -0.4626 -1.5772
12320SOL    HW248686   9.686  12.717   7.332 -0.2749 -0.6720  0.2419
12321SOL     OW48687   8.262  12.006   5.914 -0.1681  0.3264 -0.5042
12321SOL    HW148688   8.292  12.092   5.943 -0.0872 -0.0701  0.6200
12321SOL    HW248689   8.189  11.985   5.971 -0.9826  0.1727 -1.5829
12322SOL     OW48690  11.812  13.380   4.599  0.0306  0.0195 -0.2313
12322SOL    HW148691  11.717  13.390   4.604  0.3106  2.6478  1.4661
12322SOL    HW248692  11.841  13.374   4.690  1.4810 -1.6739 -0.7333
12323SOL     OW48693  10.513   3.088   7.030  0.7987 -0.9414 -0.7476
12323SOL    HW148694  10.453   3.061   7.099 -0.6003  1.1724 -1.0513
12323SOL    HW248695  10.513   3.016   6.968 -0.4086 -1.5179 -0.1036
12324SOL     OW48696   5.894   6.206   1.269  0.3249 -0.0692 -0.3058
12324SOL    HW148697   5.925   6.181   1.182  0.7429  0.5289 -0.3308
12324SOL    HW248698   5.836   6.280   1.254  0.1862 -0.1333 -0.0962
12325SOL     OW48699   0.572  10.023   7.543  0.7769  0.3274  0.1942
12325SOL    HW148700   0.516  10.098   7.521 -1.5621 -1.1994  0.5368
12325SOL    HW248701   0.584   9.977   7.460  0.3462 -0.0730  0.3466
12326SOL     OW48702   5.265   0.638  13.274 -0.2271 -0.8471 -0.0905
12326SOL    HW148703   5.329   0.567  13.270 -0.9831 -1.5433 -0.2042
12326SOL    HW248704   5.285   0.684  13.355 -0.1150 -1.5737  0.3038
12327SOL     OW48705   9.615   3.303   4.567  0.2518 -0.1535 -0.1604
12327SOL    HW148706   9.703   3.274   4.541  0.1894 -0.7150  0.2368
12327SOL    HW248707   9.582   3.232   4.622 -0.3678  0.1559 -0.1282
12328SOL     OW48708  12.414   8.410   6.927  0.0649 -0.2468  0.8198
12328SOL    HW148709  12.389   8.380   7.015 -2.2570  0.7615  0.5848
12328SOL    HW248710  12.353   8.367   6.868  0.8217  0.0204 -0.1933
12329SOL     OW48711   2.550   5.079  10.246  0.3755 -0.6067 -0.4233
12329SOL    HW148712   2.465   5.037  10.258  0.0173  0.1155 -0.3770
12329SOL    HW248713   2.550   5.110  10.155  0.8496 -1.1709 -0.6189
12330SOL     OW48714   9.758   5.966   1.349  0.2539  0.0279  0.0896
12330SOL    HW148715   9.781   5.965   1.441  0.2293  0.3103  0.1000
12330SOL    HW248716   9.814   5.899   1.309 -0.8273 -1.2028  0.5643
12331SOL     OW48717  11.867   4.810   2.099  0.0396  0.0513  0.0542
12331SOL    HW148718  11.913   4.819   2.182  0.4833  1.1926 -0.2935
12331SOL    HW248719  11.778   4.783   2.124  0.7303 -1.7227  0.7510
12332SOL     OW48720  12.378   8.963  11.392  0.3145 -0.3791 -0.2627
12332SOL    HW148721  12.365   8.987  11.483  0.1622 -1.7695  0.1190
12332SOL    HW248722  12.417   8.876  11.396  2.1560  0.3432 -1.5195
12333SOL     OW48723  10.210  11.195   2.228 -0.2329 -0.5937 -0.2108
12333SOL    HW148724  10.234  11.229   2.142  1.4099 -0.7385  0.1624
12333SOL    HW248725  10.246  11.258   2.290 -2.4813  0.1902  0.4078
12334SOL     OW48726  12.680   8.256   6.085 -0.3780  0.3188  0.3474
12334SOL    HW148727  12.760   8.209   6.108 -0.4541  0.2722  0.5226
12334SOL    HW248728  12.680   8.259   5.989 -0.4900 -0.2370  0.3281
12335SOL     OW48729   4.096   7.662  10.516 -0.6069 -0.4907  0.2786
12335SOL    HW148730   4.129   7.638  10.602 -1.4321  1.5549  1.2351
12335SOL    HW248731   4.170   7.703  10.472 -0.7569  0.5473  0.9402
12336SOL     OW48732  11.157   2.150   0.227 -0.5716  0.0790  0.1010
12336SOL    HW148733  11.113   2.227   0.193  1.4210  1.5924  0.7627
12336SOL    HW248734  11.205   2.181   0.304 -0.5441 -2.0557  1.0296
12337SOL     OW48735   3.312   9.252   1.313 -0.3275 -0.0443 -0.3795
12337SOL    HW148736   3.251   9.253   1.387 -0.9933 -0.4496 -0.9140
12337SOL    HW248737   3.288   9.328   1.261 -0.9349 -0.6755 -1.0316
12338SOL     OW48738   7.776   7.905  12.868 -0.3074 -0.7232 -0.1446
12338SOL    HW148739   7.773   7.844  12.941 -1.4957  1.0730  1.3944
12338SOL    HW248740   7.684   7.930  12.854  0.1427  0.6983 -0.7288
12339SOL     OW48741   8.229  13.087  12.256 -0.8290  0.1208  0.5090
12339SOL    HW148742   8.254  13.128  12.339  2.6197 -1.2633  0.3154
12339SOL    HW248743   8.286  13.010  12.249 -1.0001  0.1409 -3.1232
12340SOL     OW48744   7.185   3.348   8.030  0.0764 -0.1753  0.3691
12340SOL    HW148745   7.099   3.331   8.069 -0.9641 -0.3688 -1.9029
12340SOL    HW248746   7.166   3.392   7.947  2.2458  0.9568  0.4075
12341SOL     OW48747   8.239   2.345   9.553  0.0602  1.0024 -0.0812
12341SOL    HW148748   8.291   2.333   9.632  0.9650  1.6418 -0.5639
12341SOL    HW248749   8.152   2.369   9.585  0.1931  0.4521  0.7246
12342SOL     OW48750   6.782  12.240  10.395  0.6236 -0.7424  0.0179
12342SOL    HW148751   6.811  12.270  10.309 -1.5024  0.1057 -0.4572
12342SOL    HW248752   6.826  12.156  10.407  2.2778 -0.0861 -1.1316
12343SOL     OW48753   2.554  13.548   2.419 -0.0386 -0.2661 -0.5076
12343SOL    HW148754   2.459  13.553   2.408 -0.3180 -0.6206  1.3986
12343SOL    HW248755   2.579  13.471   2.369 -0.7065  0.0303 -1.3192
12344SOL     OW48756   6.875   1.680   3.190 -0.2562  0.3039  0.4177
12344SOL    HW148757   6.939   1.712   3.126  0.9859 -0.1189  1.4301
12344SOL    HW248758   6.838   1.602   3.149  1.8752 -1.0459  0.9679
12345SOL     OW48759   6.677   4.126   1.856 -0.3011  0.0766  0.1245
12345SOL    HW148760   6.701   4.125   1.763 -0.1320 -1.5769  0.1584
12345SOL    HW248761   6.721   4.204   1.891  0.7989 -0.0544 -0.8981
12346SOL     OW48762   9.917   5.454   8.139  0.5243 -0.6031 -0.1833
12346SOL    HW148763   9.999   5.482   8.098 -0.3587 -0.0693 -1.6419
12346SOL    HW248764   9.866   5.535   8.148  0.3031 -0.8635  1.1144
12347SOL     OW48765   9.347  12.012   0.755 -0.4415 -0.1095  0.4393
12347SOL    HW148766   9.301  12.043   0.833 -1.6766 -0.0685 -0.2844
12347SOL    HW248767   9.279  12.005   0.688  0.5577 -0.3527 -0.5801
12348SOL     OW48768   5.626  10.460   3.880  0.1210  0.2362  0.4629
12348SOL    HW148769   5.709  10.503   3.899 -0.4063  1.9986 -0.8810
12348SOL    HW248770   5.560  10.523   3.910 -0.7334 -0.9268  1.0914
12349SOL     OW48771   7.212   9.279   2.984  0.1184  0.4026 -0.0684
12349SOL    HW148772   7.261   9.214   2.934  0.0184  0.1686  0.1356
12349SOL    HW248773   7.201   9.353   2.924 -1.1464 -0.3893 -0.8699
12350SOL     OW48774   9.706   5.814   3.518 -0.0301  0.1544 -0.5650
12350SOL    HW148775   9.727   5.903   3.544 -0.4042  1.0367 -2.9835
12350SOL    HW248776   9.614   5.803   3.540 -0.2021  0.6792 -1.0000
12351SOL     OW48777   1.586   4.972   9.838 -0.2897 -0.6545 -0.3822
12351SOL    HW148778   1.538   5.053   9.823  1.7770  0.8721  0.7181
12351SOL    HW248779   1.658   4.973   9.774 -0.3303 -1.7222 -0.4753
12352SOL     OW48780   7.974   7.801   9.587  0.6098  0.2457 -0.0487
12352SOL    HW148781   7.895   7.854   9.599 -0.4126 -1.0093 -0.9861
12352SOL    HW248782   7.942   7.712   9.576  2.3303 -0.8248  2.6026
12353SOL     OW48783   3.406  12.406  13.735 -0.0064 -0.0494  0.2594
12353SOL    HW148784   3.450  12.420  13.819  0.8203 -0.1960 -0.1380
12353SOL    HW248785   3.398  12.494  13.697 -0.0774 -0.0191  0.3459
12354SOL     OW48786   1.649   4.375   2.508 -0.4930  0.0086  0.4163
12354SOL    HW148787   1.659   4.418   2.593  0.7364 -0.0100  0.2990
12354SOL    HW248788   1.559   4.344   2.508 -0.7303  0.6343  1.4185
12355SOL     OW48789   9.777   8.644   0.527 -0.0197  0.1080  0.2052
12355SOL    HW148790   9.858   8.695   0.522  0.4243 -0.5484  0.5233
12355SOL    HW248791   9.745   8.639   0.437  0.2211  0.4937  0.1002
12356SOL     OW48792  11.872  10.933  12.885  0.5096  0.1042 -0.3584
12356SOL    HW148793  11.837  10.995  12.822 -0.6646  0.4147  0.5440
12356SOL    HW248794  11.884  10.852  12.835  0.0353  0.4649 -1.0708
12357SOL     OW48795   0.501   7.184   2.865  0.9044  0.4409 -0.1329
12357SOL    HW148796   0.596   7.188   2.858  0.9895 -1.8761 -1.3010
12357SOL    HW248797   0.481   7.232   2.946  3.1218  0.3502  0.5483
12358SOL     OW48798   5.241   8.267   0.129 -0.0777  0.3982  0.2308
12358SOL    HW148799   5.161   8.235   0.172 -1.3887  1.2516 -1.4190
12358SOL    HW248800   5.311   8.245   0.189 -1.4598 -1.1347  1.3838
12359SOL     OW48801  12.089   5.016   3.261 -0.3590 -0.0156 -0.1274
12359SOL    HW148802  12.110   4.949   3.196 -1.9667  0.2970 -1.0366
12359SOL    HW248803  12.003   4.989   3.295 -0.1780  0.6007  0.8537
12360SOL     OW48804   1.159   7.235   1.249  0.2471  0.2250  0.3350
12360SOL    HW148805   1.110   7.191   1.180 -0.3425  2.1124 -0.5152
12360SOL    HW248806   1.211   7.165   1.290 -1.1978 -1.3583 -0.4238
12361SOL     OW48807   6.687  12.164   3.131 -0.1663  0.3375 -0.0738
12361SOL    HW148808   6.663  12.096   3.195  1.0907  0.5637  0.6702
12361SOL    HW248809   6.608  12.175   3.078 -1.4858  0.5757  1.8115
12362SOL     OW48810   5.160   0.830  11.292  0.0761  0.2272  0.0618
12362SOL    HW148811   5.093   0.808  11.356 -0.4251  1.0445 -0.1630
12362SOL    HW248812   5.225   0.761  11.300 -1.0101 -0.8363 -0.0280
12363SOL     OW48813  12.132   0.137   3.077 -0.4741  0.0412  0.2290
12363SOL    HW148814  12.176   0.198   3.018 -0.5152  0.4211  0.5867
12363SOL    HW248815  12.134   0.053   3.031  0.2958  0.1332  0.0844
12364SOL     OW48816   0.013  12.660   6.312 -0.0749  0.0027  0.7493
12364SOL    HW148817   0.029  12.566   6.318 -0.1748 -0.1367 -0.7780
12364SOL    HW248818   0.098  12.700   6.331 -0.5154 -0.2333  3.7501
12365SOL     OW48819   7.427   0.231   9.374 -0.0856 -0.2764  0.1631
12365SOL    HW148820   7.418   0.137   9.360  0.1142 -0.2000 -0.5635
12365SOL    HW248821   7.349   0.269   9.334  0.0498 -0.1063  0.0588
12366SOL     OW48822  10.663   6.014  10.884 -0.5535 -0.3399  0.0617
12366SOL    HW148823  10.679   6.077  10.953 -2.1332  0.2751 -0.0735
12366SOL    HW248824  10.691   6.058  10.804 -1.1283 -0.0096  0.0337
12367SOL     OW48825   0.653   2.352  10.024 -0.2106  0.0564 -0.0273
12367SOL    HW148826   0.606   2.353  10.108 -0.7757  1.3419 -0.3269
12367SOL    HW248827   0.744   2.368  10.048 -0.7132  3.2714  0.2422
12368SOL     OW48828   5.437   6.404   7.686  0.1346 -0.0413  0.3720
12368SOL    HW148829   5.447   6.347   7.763 -0.6838  0.1018  0.5883
12368SOL    HW248830   5.343   6.409   7.672  0.2554  0.3806 -0.3137
12369SOL     OW48831   5.846   3.441   1.642  0.2255 -0.4792  0.5637
12369SOL    HW148832   5.821   3.356   1.677  0.2108 -0.6837  0.0697
12369SOL    HW248833   5.935   3.429   1.610  0.2016 -0.3288  0.4381
12370SOL     OW48834   7.630   5.249   9.530  0.0489 -0.0271  0.2349
12370SOL    HW148835   7.681   5.168   9.535  0.0857  0.0736  2.8411
12370SOL    HW248836   7.667   5.306   9.598  1.1120  2.9125 -2.5738
12371SOL     OW48837   9.553  11.079   0.080  0.0198  0.0823 -0.0291
12371SOL    HW148838   9.545  11.108  -0.011 -1.4128  1.6773  0.5553
12371SOL    HW248839   9.636  11.115   0.109  0.5320 -0.5120 -0.6987
12372SOL     OW48840   6.259  10.294   0.889 -0.4831 -0.2445 -0.5202
12372SOL    HW148841   6.199  10.220   0.876  1.1147 -1.5504 -0.6687
12372SOL    HW248842   6.346  10.257   0.880  0.3736  1.9764 -2.2844
12373SOL     OW48843   4.044   3.693   6.930  0.2294 -0.1577 -0.1737
12373SOL    HW148844   4.101   3.621   6.902 -1.7740 -1.4127 -1.2396
12373SOL    HW248845   4.030   3.744   6.851  0.8544  0.8743  0.3648
12374SOL     OW48846  10.976  13.140   9.465  0.3860 -0.1690  0.0749
12374SOL    HW148847  10.931  13.136   9.550 -0.7498 -1.5809 -0.5532
12374SOL    HW248848  11.016  13.226   9.464 -1.0470  0.5718  1.3231
12375SOL     OW48849   4.653   4.966   8.999 -0.3899  0.8600  0.6060
12375SOL    HW148850   4.735   5.013   9.017 -0.3032  1.2363 -0.6386
12375SOL    HW248851   4.668   4.878   9.032  0.4885  0.9518  0.4755
12376SOL     OW48852  11.097  10.230  11.919 -0.6066 -0.5523 -0.1340
12376SOL    HW148853  11.038  10.161  11.889  0.5454 -0.9703 -1.5568
12376SOL    HW248854  11.081  10.236  12.014 -2.0587 -1.4443 -0.2904
12377SOL     OW48855   7.987   3.029   3.102  0.0498 -0.1161 -0.4854
12377SOL    HW148856   7.966   3.085   3.029  1.7107 -1.2167 -1.8977
12377SOL    HW248857   8.071   3.063   3.135 -0.6463  0.3305  0.8946
12378SOL     OW48858  10.982   8.599   8.397  0.4570  0.1532 -0.2505
12378SOL    HW148859  10.900   8.617   8.442  0.5039  0.6778 -0.3768
12378SOL    HW248860  10.959   8.533   8.331  0.2629 -0.1504  0.1124
12379SOL     OW48861  10.077   3.344   4.525  0.3488 -0.3536 -0.2299
12379SOL    HW148862  10.076   3.387   4.610 -1.4685 -2.5625  0.9782
12379SOL    HW248863  10.032   3.405   4.467  2.3540  1.5675  0.0674
12380SOL     OW48864   1.100   1.729   6.531 -0.2986  0.1075 -0.3747
12380SOL    HW148865   1.189   1.726   6.495 -0.2992  2.0277 -0.6601
12380SOL    HW248866   1.051   1.665   6.478  0.9205 -1.1348 -0.0709
12381SOL     OW48867   3.739  10.729   9.002 -0.0955 -0.1948  0.3779
12381SOL    HW148868   3.831  10.706   8.986  0.7594  2.0956  1.5501
12381SOL    HW248869   3.717  10.684   9.084  0.6247  0.7756  1.1208
12382SOL     OW48870   1.346   6.314   4.363 -0.0451 -0.3890  0.2794
12382SOL    HW148871   1.334   6.394   4.312  2.1451  0.1936  0.5739
12382SOL    HW248872   1.331   6.243   4.301  1.2949  0.2987 -0.8887
12383SOL     OW48873  10.001   7.879   9.189  0.7563  0.4743  0.8261
12383SOL    HW148874   9.993   7.969   9.155  1.0090  0.1958 -0.0091
12383SOL    HW248875  10.087   7.850   9.159 -0.0384 -0.6623 -0.4808
12384SOL     OW48876  10.323  11.760   5.930 -0.2748  0.1377  0.1544
12384SOL    HW148877  10.337  11.759   6.025  0.4637 -0.1009  0.0496
12384SOL    HW248878  10.374  11.835   5.899 -0.2291  0.0019 -0.0998
12385SOL     OW48879   1.695   0.782  10.209  0.2165  0.2277 -0.4914
12385SOL    HW148880   1.643   0.775  10.289 -0.2883 -0.7812 -0.8947
12385SOL    HW248881   1.634   0.759  10.138  0.5301  1.5683 -1.2192
12386SOL     OW48882   7.923   7.245   9.027 -0.2956  0.0582 -0.3678
12386SOL    HW148883   7.909   7.240   8.933 -0.3540 -0.3209 -0.3368
12386SOL    HW248884   7.902   7.158   9.060 -1.3088  0.4770  0.1400
12387SOL     OW48885  10.807   2.621   7.411 -0.1394 -0.1906 -0.4926
12387SOL    HW148886  10.750   2.696   7.430 -0.3872 -0.5906  0.3740
12387SOL    HW248887  10.748   2.552   7.382  0.0066 -0.2953 -0.5437
12388SOL     OW48888   9.408  12.692   9.500  0.0180 -0.0169 -0.5392
12388SOL    HW148889   9.479  12.742   9.459 -0.7166  0.8615 -0.7806
12388SOL    HW248890   9.333  12.752   9.499 -0.6541 -0.8263 -0.0382
12389SOL     OW48891   6.218   3.676   5.307 -0.7770 -0.3788  0.3282
12389SOL    HW148892   6.172   3.617   5.247 -0.4583 -0.4652  0.1663
12389SOL    HW248893   6.265   3.618   5.367 -0.0152 -0.2972 -0.1786
12390SOL     OW48894   9.404   6.134   2.514  0.1714  0.0543  0.3520
12390SOL    HW148895   9.499   6.146   2.525  0.1298 -0.1863  1.0612
12390SOL    HW248896   9.365   6.196   2.575 -0.1196 -0.1115  0.3372
12391SOL     OW48897   3.250   2.731   2.329 -0.1198  0.3943  0.2620
12391SOL    HW148898   3.259   2.826   2.335 -0.6004  0.5617 -1.2130
12391SOL    HW248899   3.280   2.698   2.413  1.4042  1.7633  0.2862
12392SOL     OW48900  10.926  11.765  10.067 -0.0560  0.4856  0.6111
12392SOL    HW148901  10.880  11.729   9.991  1.3575  1.8362 -0.9602
12392SOL    HW248902  10.889  11.853  10.077 -0.0390  0.4140  1.3313
12393SOL     OW48903   7.337   0.141   8.913  0.2624 -0.4288  0.1678
12393SOL    HW148904   7.398   0.211   8.889  1.1952 -1.6075 -1.0009
12393SOL    HW248905   7.252   0.186   8.920  0.9542  0.9419  0.1824
12394SOL     OW48906  12.567   7.057   1.220  0.8330  0.7831  0.0734
12394SOL    HW148907  12.602   7.010   1.295 -1.8374  1.4862  1.8968
12394SOL    HW248908  12.487   7.009   1.197  0.3786  1.9298 -0.8369
12395SOL     OW48909   2.099   5.949   2.524  0.3211  0.1610 -0.0527
12395SOL    HW148910   2.186   5.925   2.557  0.1386 -1.8531 -0.8777
12395SOL    HW248911   2.101   5.924   2.432 -1.1789 -0.0717 -0.0422
12396SOL     OW48912   6.533   3.493   5.543 -0.0320 -0.1697 -0.0143
12396SOL    HW148913   6.628   3.493   5.555 -0.0440 -0.2687  0.0774
12396SOL    HW248914   6.506   3.403   5.563  0.0102 -0.4780 -1.2669
12397SOL     OW48915   0.390   4.953   4.899 -0.2208  0.0147  0.2355
12397SOL    HW148916   0.310   4.911   4.929 -0.1002 -0.9213 -0.6914
12397SOL    HW248917   0.380   5.045   4.926 -0.6891 -0.4844  1.8946
12398SOL     OW48918   4.913  11.599   9.026  0.2786 -0.5399 -0.6379
12398SOL    HW148919   4.830  11.567   9.062  0.5253 -1.9657 -1.2699
12398SOL    HW248920   4.947  11.659   9.092 -1.0074 -0.3276 -0.1485
12399SOL     OW48921   2.511   0.151   4.182 -0.0987 -0.1365 -0.4789
12399SOL    HW148922   2.533   0.100   4.260 -1.6680 -0.5854 -0.3013
12399SOL    HW248923   2.487   0.237   4.216  0.7832  0.1784 -0.6257
12400SOL     OW48924   6.147  12.609   9.917 -0.1917  0.2712  0.2819
12400SOL    HW148925   6.172  12.679   9.978  1.3877  0.0420 -0.0515
12400SOL    HW248926   6.146  12.652   9.831 -1.1071  0.2960  0.2991
12401SOL     OW48927  11.824   8.391   0.698 -0.3097  0.0149 -1.0387
12401SOL    HW148928  11.794   8.380   0.788 -0.4876  0.0491 -1.0929
12401SOL    HW248929  11.874   8.312   0.679 -0.1896  0.0533 -0.8764
12402SOL     OW48930   5.898   8.139  12.861  0.1513 -0.2576 -0.1360
12402SOL    HW148931   5.986   8.131  12.824  0.9361 -1.9748  1.8490
12402SOL    HW248932   5.876   8.231  12.852  2.2666  0.2630 -0.4848
12403SOL     OW48933   9.173   8.857   7.227  0.6047  0.0759 -0.1940
12403SOL    HW148934   9.109   8.819   7.286  0.8913  0.0180  0.0794
12403SOL    HW248935   9.137   8.842   7.139  0.0549  0.3916 -0.0253
12404SOL     OW48936   3.589   8.216   4.434  0.1333 -0.2025 -0.8060
12404SOL    HW148937   3.587   8.167   4.516  2.4602  0.0781 -0.4974
12404SOL    HW248938   3.608   8.306   4.460  1.5859 -0.2255 -1.6391
12405SOL     OW48939   8.168   1.487   0.087  0.1051  0.1162 -0.3165
12405SOL    HW148940   8.142   1.571   0.050  0.3624  0.3453  0.0208
12405SOL    HW248941   8.105   1.471   0.157 -1.5401 -1.1962 -1.9913
12406SOL     OW48942   7.532  10.059   6.592 -0.5274 -0.5274 -0.0453
12406SOL    HW148943   7.594  10.108   6.645  2.0946 -0.7898 -2.6354
12406SOL    HW248944   7.493  10.124   6.534 -0.5656 -0.7991 -0.3272
12407SOL     OW48945   1.612  10.747   8.971 -0.3609  0.1301  0.1009
12407SOL    HW148946   1.630  10.653   8.977  1.7109  0.5914  2.4888
12407SOL    HW248947   1.572  10.770   9.055  2.3471  1.9049  1.0574
12408SOL     OW48948   4.156   3.830  12.670 -0.2267  0.0189  0.3113
12408SOL    HW148949   4.175   3.784  12.588 -0.0979  0.7567 -0.0789
12408SOL    HW248950   4.097   3.901  12.645 -1.7368 -0.8668  1.1518
12409SOL     OW48951  11.438   1.482   0.789  0.4680 -0.3051 -0.0245
12409SOL    HW148952  11.462   1.565   0.747 -0.8624 -0.8522 -1.9726
12409SOL    HW248953  11.486   1.483   0.872  0.8743  2.1813 -0.2116
12410SOL     OW48954   0.262   0.120  12.150 -0.3200  0.2868 -0.4391
12410SOL    HW148955   0.200   0.121  12.077 -0.1444  1.9016 -0.6147
12410SOL    HW248956   0.347   0.139  12.110  0.0500 -0.4367 -0.0161
12411SOL     OW48957   8.818   8.039  10.396 -0.4990 -0.2352  0.0135
12411SOL    HW148958   8.726   8.034  10.422 -0.3803 -0.8986  0.3253
12411SOL    HW248959   8.849   7.948  10.399 -0.1312 -0.1683 -1.1587
12412SOL     OW48960   4.282   2.717   7.910  0.5213 -0.1799  0.2681
12412SOL    HW148961   4.370   2.703   7.875  1.0829  1.0507  1.1094
12412SOL    HW248962   4.293   2.718   8.005 -0.4280 -0.1842  0.3900
12413SOL     OW48963   5.076   3.772   0.578 -0.1096 -0.0978  0.2870
12413SOL    HW148964   5.127   3.804   0.652 -1.8897  0.1459  1.4627
12413SOL    HW248965   5.122   3.805   0.501  0.5640  1.5564  1.3464
12414SOL     OW48966  11.744   0.671   3.150  0.1858 -0.4204 -0.0671
12414SOL    HW148967  11.669   0.611   3.152  0.5434 -0.9364 -1.2968
12414SOL    HW248968  11.706   0.758   3.158 -0.5301 -0.6867 -0.4787
12415SOL     OW48969  10.598   6.807   5.129  0.2692  0.8203 -0.7596
12415SOL    HW148970  10.639   6.893   5.134 -0.5673  1.1637  0.5954
12415SOL    HW248971  10.658   6.749   5.177  0.3500  0.8442 -0.8324
12416SOL     OW48972   2.554   7.994   0.584  0.0476 -0.1944 -0.5820
12416SOL    HW148973   2.548   8.089   0.594  1.9356 -0.1749  1.0011
12416SOL    HW248974   2.612   7.981   0.509  0.0854 -0.0866 -0.5710
12417SOL     OW48975   1.615  11.642   4.406 -0.4669 -0.0934  0.4180
12417SOL    HW148976   1.586  11.552   4.396  0.2672 -0.5071  1.8536
12417SOL    HW248977   1.566  11.676   4.481 -0.0237  0.3916  0.4970
12418SOL     OW48978   9.078  10.498   3.455  0.1783  0.2247  0.1682
12418SOL    HW148979   9.145  10.432   3.472  1.3417  0.8177 -1.8043
12418SOL    HW248980   9.074  10.549   3.536  2.5212  0.4906  0.1961
12419SOL     OW48981   0.831   3.070   2.826 -0.1581 -0.1205 -0.3487
12419SOL    HW148982   0.791   3.157   2.822  0.1425 -0.0202 -1.8077
12419SOL    HW248983   0.762   3.013   2.858 -0.2762  0.6777  0.9162
12420SOL     OW48984   5.562   5.363  12.492 -0.3199 -0.3793  0.0050
12420SOL    HW148985   5.586   5.321  12.575 -0.0696  0.3995  0.3404
12420SOL    HW248986   5.550   5.455  12.515  2.1898  0.3515 -1.2422
12421SOL     OW48987  13.657   5.450   6.416 -0.4620  0.2401  0.2684
12421SOL    HW148988  13.731   5.419   6.468  0.6470  1.0654 -0.7498
12421SOL    HW248989  13.622   5.524   6.466 -0.7999 -0.3540  0.9110
12422SOL     OW48990   3.878  10.911   4.667 -0.1089  0.1807 -0.1369
12422SOL    HW148991   3.910  11.001   4.673  1.4795 -0.4128  1.8911
12422SOL    HW248992   3.936  10.869   4.602  1.6101 -0.1965  1.5305
12423SOL     OW48993  12.152   7.235  11.203  0.7719 -0.5037 -0.2203
12423SOL    HW148994  12.179   7.319  11.240  0.9649 -0.3440 -0.7129
12423SOL    HW248995  12.214   7.220  11.131  0.7867 -1.1029 -0.0847
12424SOL     OW48996   5.836  10.298  11.597  0.0813 -0.2905  0.3501
12424SOL    HW148997   5.783  10.222  11.618  1.6009 -2.2005 -2.0648
12424SOL    HW248998   5.824  10.310  11.502  0.8244  1.7613  0.4568
12425SOL     OW48999   0.690   2.945   0.471 -0.0487  0.0934 -0.6411
12425SOL    HW149000   0.703   3.017   0.533  2.7816  0.0828 -1.1215
12425SOL    HW249001   0.686   2.987   0.385 -0.0925 -0.2113 -0.7909
12426SOL     OW49002   5.693  10.449  10.465  0.0043 -0.2490  0.6402
12426SOL    HW149003   5.641  10.445  10.546 -0.8339  0.5965  0.1645
12426SOL    HW249004   5.634  10.413  10.398  0.3428 -0.0430  0.2302
12427SOL     OW49005  11.277   7.763   2.288 -0.2277 -0.0533 -0.0217
12427SOL    HW149006  11.191   7.803   2.299 -1.3735 -2.3148 -0.1493
12427SOL    HW249007  11.338   7.827   2.324 -1.8879  1.8555 -0.4281
12428SOL     OW49008   0.285  11.324   2.793 -0.5891  0.2231  0.1459
12428SOL    HW149009   0.368  11.326   2.841 -1.1660  1.1075  1.1419
12428SOL    HW249010   0.231  11.389   2.836 -0.9621  1.4715 -2.0461
12429SOL     OW49011   1.903   1.998  10.001 -0.4626 -0.0444 -0.7132
12429SOL    HW149012   1.937   1.913  10.030 -2.3037 -0.2365  1.1339
12429SOL    HW249013   1.954   2.062  10.050 -2.2587 -0.3183  1.7119
12430SOL     OW49014   9.819   7.523   8.321  0.0327  0.5167 -0.3498
12430SOL    HW149015   9.795   7.600   8.374  1.6897 -1.3074  3.4225
12430SOL    HW249016   9.753   7.457   8.344  0.8776 -0.3752 -0.4418
12431SOL     OW49017   0.892  10.287   1.171 -0.0095  0.4886 -0.1220
12431SOL    HW149018   0.838  10.209   1.156  2.0415 -0.5328 -2.9962
12431SOL    HW249019   0.833  10.360   1.155 -1.0862 -0.5514 -1.1419
12432SOL     OW49020  13.200   6.990  12.552 -0.1502  0.1606 -0.5825
12432SOL    HW149021  13.272   6.949  12.505 -0.7965 -0.4349 -1.0801
12432SOL    HW249022  13.231   7.078  12.572  1.3651 -0.6498  0.7681
12433SOL     OW49023   3.825   8.303   0.381 -0.3512 -0.3841 -0.6241
12433SOL    HW149024   3.814   8.212   0.352 -0.0598 -0.7329  0.3351
12433SOL    HW249025   3.832   8.353   0.299 -0.2308 -1.2548 -1.1606
12434SOL     OW49026  13.738   8.942   7.314 -0.9419  0.6441  0.0646
12434SOL    HW149027  13.686   8.870   7.348 -1.1490  1.3894  1.4243
12434SOL    HW249028  13.721   9.014   7.375  2.3916  0.6652  1.1717
12435SOL     OW49029   6.084   6.522   9.683  0.2538 -0.3583  0.2373
12435SOL    HW149030   6.168   6.535   9.727 -0.0402 -1.1875  1.0770
12435SOL    HW249031   6.021   6.570   9.738  0.3821  1.6934 -1.3002
12436SOL     OW49032  10.324   8.104   7.284  0.0192  0.2592 -0.3942
12436SOL    HW149033  10.293   8.193   7.301  0.2755  0.1364  0.8403
12436SOL    HW249034  10.257   8.066   7.228 -0.3339  1.0789 -0.5456
12437SOL     OW49035   7.709   1.102  11.856  0.2237  0.7254 -0.5994
12437SOL    HW149036   7.737   1.144  11.936  0.4518  1.1345 -0.8901
12437SOL    HW249037   7.625   1.143  11.835  0.5679  1.2388 -1.0216
12438SOL     OW49038   1.957  12.360   9.102 -0.3929  0.3304 -0.2985
12438SOL    HW149039   2.045  12.329   9.122  0.3400  1.9463 -0.8468
12438SOL    HW249040   1.917  12.377   9.187  0.2525  0.7310 -0.0772
12439SOL     OW49041  11.813  12.337  11.709  0.1735 -0.1879 -0.0253
12439SOL    HW149042  11.778  12.276  11.774 -0.7452  2.2732  2.0162
12439SOL    HW249043  11.740  12.353  11.649 -0.1639  0.1301  0.4545
12440SOL     OW49044   1.762  12.436   9.946  0.2722  0.5147 -0.0099
12440SOL    HW149045   1.761  12.363   9.883  1.8954 -0.7752  1.3643
12440SOL    HW249046   1.716  12.402  10.023 -0.1384  1.4406  0.1595
12441SOL     OW49047   8.864  10.009  12.826 -1.1495 -0.0852 -0.3942
12441SOL    HW149048   8.852  10.103  12.811 -1.1800  0.0017  0.1528
12441SOL    HW249049   8.954   9.991  12.798 -0.7065  0.3649  0.6936
12442SOL     OW49050   9.456   8.420   9.020 -0.3069 -0.2098  0.4032
12442SOL    HW149051   9.519   8.353   8.993 -2.5313 -2.2838  0.0540
12442SOL    HW249052   9.471   8.431   9.113  1.7289  0.7030  0.0225
12443SOL     OW49053   7.935   8.229   8.711 -0.1067 -0.3456  0.0172
12443SOL    HW149054   7.945   8.135   8.726  1.6740 -0.3586 -1.0281
12443SOL    HW249055   7.897   8.262   8.793  1.3107 -1.6449  1.2620
12444SOL     OW49056  13.027  11.945   3.762  0.5933 -0.0675  0.1422
12444SOL    HW149057  12.984  11.962   3.678 -1.4186  1.4271  1.3710
12444SOL    HW249058  13.120  11.957   3.744  0.1195  1.5336 -1.6261
12445SOL     OW49059   6.532   9.580   5.653 -0.2645 -0.2012  0.5194
12445SOL    HW149060   6.611   9.615   5.694 -1.0355  2.0873  0.2417
12445SOL    HW249061   6.461   9.607   5.712 -0.9964 -0.5793 -0.1686
12446SOL     OW49062   8.578  11.820   8.117 -0.2083  0.1057  0.4268
12446SOL    HW149063   8.523  11.742   8.117 -0.7646  0.4868  0.4356
12446SOL    HW249064   8.524  11.887   8.160  0.3714  0.4141  0.6812
12447SOL     OW49065   4.190  11.815   9.803  0.3031 -0.0543 -0.2630
12447SOL    HW149066   4.252  11.847   9.868  1.3310  0.9770 -1.6825
12447SOL    HW249067   4.169  11.726   9.831 -0.0776  0.7003  1.9926
12448SOL     OW49068   4.218   3.451   3.676  0.1868  0.6544 -0.2316
12448SOL    HW149069   4.168   3.370   3.684  0.4570  0.6194  1.5854
12448SOL    HW249070   4.309   3.423   3.671  0.2132  0.8159 -0.6991
12449SOL     OW49071   4.350   7.005  12.882  0.5024  0.5517 -0.2949
12449SOL    HW149072   4.395   6.943  12.824  1.9859  0.5396  0.8211
12449SOL    HW249073   4.324   7.077  12.825  1.9778  0.5696 -0.9896
12450SOL     OW49074   7.235   7.475   4.509  0.2021 -0.1443  0.4341
12450SOL    HW149075   7.207   7.422   4.583 -1.0712 -2.4632 -1.5360
12450SOL    HW249076   7.154   7.499   4.464  0.8510  2.3911  0.4758
12451SOL     OW49077   8.456   4.824  11.898 -0.1617  0.5396  0.5800
12451SOL    HW149078   8.376   4.775  11.918  1.3161 -2.5805 -0.4249
12451SOL    HW249079   8.506   4.824  11.979  0.2571 -0.5671  0.3356
12452SOL     OW49080   7.783   1.965   2.562 -0.4054  0.3096  0.0527
12452SOL    HW149081   7.725   2.000   2.494  0.4142  0.2923 -0.6659
12452SOL    HW249082   7.748   2.001   2.643 -1.3509  0.4013 -0.3779
12453SOL     OW49083   3.133  11.212   3.781 -0.5078  0.3320  0.4772
12453SOL    HW149084   3.198  11.256   3.835  0.2689 -0.3204  0.0837
12453SOL    HW249085   3.058  11.200   3.839 -0.2688  1.0327  0.9505
12454SOL     OW49086   8.287   7.710   2.335  0.2466 -0.3927 -0.2365
12454SOL    HW149087   8.236   7.630   2.329  0.0983 -0.3353  0.2376
12454SOL    HW249088   8.312   7.729   2.245  0.0263 -0.8050 -0.3865
12455SOL     OW49089   4.148  13.109  13.020 -0.2351 -0.0672  0.8775
12455SOL    HW149090   4.178  13.119  13.110  0.4070 -0.4852  0.7189
12455SOL    HW249091   4.091  13.032  13.022 -0.5479  0.1636  0.9988
12456SOL     OW49092   2.200   5.773   7.127 -0.0372  0.3330  0.1146
12456SOL    HW149093   2.212   5.808   7.215 -0.4445  1.6414 -0.3232
12456SOL    HW249094   2.288   5.745   7.101 -0.3623 -3.1038  2.0773
12457SOL     OW49095   7.473   7.091   6.022 -0.3825 -0.0840 -0.4425
12457SOL    HW149096   7.534   7.027   6.058  0.1299 -1.2947 -3.2125
12457SOL    HW249097   7.390   7.043   6.013 -0.8496  0.5678  0.2155
12458SOL     OW49098   3.060  10.089  12.312 -0.5749 -0.3628 -0.0766
12458SOL    HW149099   3.054  10.031  12.236  0.4266 -0.0110 -0.4466
12458SOL    HW249100   3.091  10.172  12.276 -2.0321  0.4375  0.4364
12459SOL     OW49101   2.502   2.585   8.142 -0.5537  0.1724 -0.1191
12459SOL    HW149102   2.595   2.598   8.159 -0.0501 -2.6143 -0.2534
12459SOL    HW249103   2.458   2.617   8.221  0.6579  0.1460  0.5875
12460SOL     OW49104   6.703  10.481   1.890  0.3353 -0.0057  0.1097
12460SOL    HW149105   6.632  10.513   1.946  0.6619  0.8720  0.0383
12460SOL    HW249106   6.757  10.428   1.948  2.2025  3.0646  1.4342
12461SOL     OW49107   3.527   9.417   6.185  0.1877  0.3456 -0.2275
12461SOL    HW149108   3.574   9.336   6.202 -0.0218  0.2453 -0.1152
12461SOL    HW249109   3.473   9.430   6.263 -1.7424 -0.8049 -1.2883
12462SOL     OW49110   4.562   3.859   9.755  0.4679  0.5767  0.2804
12462SOL    HW149111   4.608   3.775   9.761  0.5315  0.5426 -0.5938
12462SOL    HW249112   4.578   3.889   9.666 -1.8448  0.1625 -0.3489
12463SOL     OW49113   5.254  10.934  13.182 -0.0686 -0.5706  0.3049
12463SOL    HW149114   5.313  11.008  13.172 -1.1487  0.5561  1.7232
12463SOL    HW249115   5.265  10.882  13.102  1.0208  0.8900 -0.5305
12464SOL     OW49116   7.179   9.571   6.018  0.5913 -0.6404  0.5361
12464SOL    HW149117   7.196   9.478   6.033  0.8124 -0.7249 -0.2035
12464SOL    HW249118   7.102   9.590   6.073 -2.3213 -2.3727 -2.5793
12465SOL     OW49119   3.269  12.999   6.551  0.3751  0.0696  0.2929
12465SOL    HW149120   3.263  12.926   6.490 -0.1572  0.6123 -0.3208
12465SOL    HW249121   3.220  12.970   6.628 -0.5247  0.0832 -0.2626
12466SOL     OW49122   6.953   7.462   9.840 -0.3125 -0.0198 -0.5432
12466SOL    HW149123   6.863   7.492   9.846  0.0135  0.9508 -0.4363
12466SOL    HW249124   6.964   7.403   9.915 -0.1697  1.7167  0.8560
12467SOL     OW49125   4.890  12.644   5.975 -0.7232 -0.8069  0.0323
12467SOL    HW149126   4.819  12.639   5.911  0.5126 -0.3792 -1.4304
12467SOL    HW249127   4.902  12.554   6.005 -1.0960 -1.0725 -0.5980
12468SOL     OW49128   7.087   2.338   3.374  0.3395  0.3722 -0.0054
12468SOL    HW149129   7.062   2.296   3.457 -0.3078 -1.3228 -0.9979
12468SOL    HW249130   7.162   2.287   3.343 -0.5578 -0.2018 -1.3211
12469SOL     OW49131   5.948   3.248  11.653  0.2838  0.0597  0.8811
12469SOL    HW149132   6.005   3.194  11.599 -0.9974  0.3020 -0.7801
12469SOL    HW249133   5.903   3.186  11.710 -0.2978 -0.5395 -0.1967
12470SOL     OW49134  12.948   9.052   2.022 -0.6006  0.7386  0.3301
12470SOL    HW149135  12.890   9.124   1.995 -1.2583 -0.1198 -0.6187
12470SOL    HW249136  12.891   8.991   2.069  0.0042  0.9368  1.3450
12471SOL     OW49137   7.079   0.287   9.926  0.3983  0.9770  0.6732
12471SOL    HW149138   7.041   0.303  10.013 -2.4883  0.2573 -0.3180
12471SOL    HW249139   7.077   0.191   9.917  0.4616  1.0556 -0.2452
12472SOL     OW49140   4.628   1.504   7.867  0.6633 -0.5275 -0.4011
12472SOL    HW149141   4.541   1.472   7.844 -0.9906  2.5902  0.8642
12472SOL    HW249142   4.650   1.565   7.796  0.1286  1.3780  0.9919
12473SOL     OW49143  11.014   4.615   2.998 -0.2242  0.0558 -0.2364
12473SOL    HW149144  10.942   4.554   3.014 -1.2109  1.4457  0.8895
12473SOL    HW249145  10.972   4.701   2.993  1.2095  0.7520 -0.9814
12474SOL     OW49146   3.136   2.516   0.475  0.2432  0.1376  0.1357
12474SOL    HW149147   3.223   2.547   0.448 -0.8587  1.9851 -1.5670
12474SOL    HW249148   3.103   2.470   0.398  0.1979 -1.7648  1.2469
12475SOL     OW49149  11.592   3.134   7.521 -0.1342  0.1790  0.2032
12475SOL    HW149150  11.648   3.201   7.561 -1.0842  0.5811  0.8947
12475SOL    HW249151  11.653   3.066   7.492  0.9966  1.9215 -1.7356
12476SOL     OW49152   8.247   7.113   2.172 -0.6361  0.1613  0.6703
12476SOL    HW149153   8.312   7.044   2.180 -0.1281  0.5524  0.0633
12476SOL    HW249154   8.208   7.121   2.259 -0.0346 -0.2345  0.9791
12477SOL     OW49155  13.595   1.978   9.221 -0.1718 -0.0426 -0.0459
12477SOL    HW149156  13.608   2.005   9.312  0.7555  1.0989 -0.5004
12477SOL    HW249157  13.525   1.912   9.226 -1.3433  1.2138  1.3119
12478SOL     OW49158  13.506   4.445   6.686 -0.3250  0.2270 -0.3824
12478SOL    HW149159  13.488   4.518   6.745 -1.8444  0.1111 -0.6790
12478SOL    HW249160  13.423   4.427   6.643 -0.0005 -1.7295 -0.2731
12479SOL     OW49161   3.369  12.259   2.579 -0.1389  0.0191 -0.2798
12479SOL    HW149162   3.323  12.184   2.542 -0.6112  0.2772 -0.2167
12479SOL    HW249163   3.367  12.325   2.510  3.2431 -1.1255 -1.7259
12480SOL     OW49164  12.753   8.564   1.458 -0.1447  0.4858  0.0007
12480SOL    HW149165  12.691   8.520   1.401 -0.7296  1.8710 -0.4686
12480SOL    HW249166  12.699   8.615   1.518  0.5211  1.5607 -0.2856
12481SOL     OW49167   6.833   6.368   8.220  0.4941  0.5783 -0.4693
12481SOL    HW149168   6.786   6.413   8.290 -1.2428  2.4314 -2.6792
12481SOL    HW249169   6.871   6.439   8.167  0.8814 -0.7162 -1.9916
12482SOL     OW49170  11.661   4.318   6.706  0.2552  0.2220  0.2096
12482SOL    HW149171  11.572   4.282   6.698  0.0286  1.0706 -1.6364
12482SOL    HW249172  11.650   4.412   6.695  1.4291  0.2943 -0.5448
12483SOL     OW49173  12.703   8.506   0.817 -0.0007 -0.0659 -0.1759
12483SOL    HW149174  12.750   8.561   0.880 -0.6305 -0.3769  0.5732
12483SOL    HW249175  12.626   8.558   0.793 -0.5358 -0.5654  0.4449
12484SOL     OW49176  11.845   9.991  10.994 -0.8466  0.1271  0.3840
12484SOL    HW149177  11.921  10.039  10.964  0.3323 -1.8143  0.0986
12484SOL    HW249178  11.862   9.900  10.970 -4.2815 -0.1422 -1.7961
12485SOL     OW49179   0.321   4.016  12.456 -0.1041 -0.2682  0.1231
12485SOL    HW149180   0.388   4.017  12.387 -0.4696  0.1371 -0.2318
12485SOL    HW249181   0.362   4.065  12.528 -0.8775  2.0995 -0.9504
12486SOL     OW49182   3.333   1.072  11.897  0.4998  0.1611 -0.5671
12486SOL    HW149183   3.324   0.984  11.932  0.9511  0.8084  1.2761
12486SOL    HW249184   3.247   1.112  11.907  0.4275  0.0960 -0.9235
12487SOL     OW49185   2.629   3.982   8.381  0.0559 -0.2068  0.3254
12487SOL    HW149186   2.664   3.928   8.311  0.5082  0.9338 -0.3562
12487SOL    HW249187   2.705   4.005   8.434  0.2255  1.4100 -0.5570
12488SOL     OW49188  13.468   1.355   3.100  0.3666  0.5703 -0.1861
12488SOL    HW149189  13.495   1.440   3.133  0.6414 -0.9682  4.1519
12488SOL    HW249190  13.544   1.324   3.050  1.7087  1.4236  1.2267
12489SOL     OW49191   2.501   8.984   5.321  0.4574 -0.2214  0.3434
12489SOL    HW149192   2.500   8.986   5.225  2.7141  2.6729  0.2504
12489SOL    HW249193   2.413   9.013   5.346  0.4262  0.8926 -0.9130
12490SOL     OW49194   6.879   5.325  12.699 -0.5762 -0.4306 -0.1240
12490SOL    HW149195   6.934   5.283  12.765 -1.8140 -0.3229  1.0079
12490SOL    HW249196   6.790   5.295  12.718 -1.0545  0.2035 -1.2678
12491SOL     OW49197   1.336   2.941   2.474  0.2318 -0.5278 -0.1701
12491SOL    HW149198   1.302   3.030   2.468  0.5138 -0.2519  1.7307
12491SOL    HW249199   1.259   2.885   2.462 -0.1571  0.0041 -0.1641
12492SOL     OW49200   0.737   2.720  10.419 -0.1067 -0.1402 -0.4544
12492SOL    HW149201   0.685   2.762  10.350 -0.7114 -1.8997 -1.1086
12492SOL    HW249202   0.723   2.626  10.407  1.1485 -0.5619  1.0102
12493SOL     OW49203  11.338   4.569   2.207  0.0955  0.3646  0.2151
12493SOL    HW149204  11.362   4.640   2.267 -0.4389  0.1547  0.6852
12493SOL    HW249205  11.308   4.614   2.128  1.3330  0.6363 -0.1128
12494SOL     OW49206   1.716  12.141  10.072 -0.7361  0.5094 -0.4466
12494SOL    HW149207   1.646  12.197  10.105 -0.0569  0.7537  0.6246
12494SOL    HW249208   1.797  12.190  10.088 -0.0272 -1.1324  1.4487
12495SOL     OW49209  13.335   0.662   6.948  0.9126 -0.8863  0.7391
12495SOL    HW149210  13.399   0.591   6.959 -0.1501 -1.9639  0.2462
12495SOL    HW249211  13.300   0.649   6.860  1.5913  1.0515  0.1421
12496SOL     OW49212  13.319   1.160   5.529 -0.7989 -0.6235 -0.1725
12496SOL    HW149213  13.271   1.190   5.607 -2.3361 -2.4992 -0.3230
12496SOL    HW249214  13.374   1.089   5.561 -0.0535 -0.2045 -0.4959
12497SOL     OW49215  13.368   8.054   4.361  0.1722  0.1904 -0.7944
12497SOL    HW149216  13.287   8.019   4.398 -0.7635  3.0500  0.0610
12497SOL    HW249217  13.347   8.071   4.269 -0.0596  0.4873 -0.6883
12498SOL     OW49218   3.930  12.527   2.616 -0.3554  0.7674 -0.3625
12498SOL    HW149219   4.007  12.480   2.646  0.2437  1.2449 -1.1239
12498SOL    HW249220   3.873  12.531   2.693  0.5894  0.8350  0.3487
12499SOL     OW49221   1.593   9.571   6.966  0.2124 -0.0315 -0.1733
12499SOL    HW149222   1.559   9.627   7.035  2.1152 -0.6310  1.3468
12499SOL    HW249223   1.553   9.486   6.982 -0.6610  0.2419 -0.8731
12500SOL     OW49224   0.313  11.610  13.282 -0.5154  0.2145  0.1749
12500SOL    HW149225   0.307  11.633  13.375  1.5370 -1.1113  0.6991
12500SOL    HW249226   0.297  11.516  13.281  2.5320 -0.3842 -0.3396
12501SOL     OW49227   5.209   8.910   4.263 -0.5421 -0.0687 -0.8158
12501SOL    HW149228   5.172   8.841   4.208 -0.3610  0.0319 -1.0664
12501SOL    HW249229   5.277   8.951   4.208  0.3384 -0.6224 -0.1562
12502SOL     OW49230  11.654   9.475   6.488 -0.5518  0.1770  0.0516
12502SOL    HW149231  11.723   9.520   6.439 -0.9506 -0.2072 -0.8925
12502SOL    HW249232  11.697   9.396   6.523 -0.3662  0.2498 -0.0122
12503SOL     OW49233   2.750   9.508   1.513 -0.4188 -0.2079  0.9434
12503SOL    HW149234   2.690   9.459   1.569 -1.6734  0.9144  0.6225
12503SOL    HW249235   2.741   9.467   1.427 -0.9129  0.1115  0.8407
12504SOL     OW49236   9.341  11.967   5.460  0.0099  0.0829 -0.1776
12504SOL    HW149237   9.284  11.927   5.395  0.7196 -1.0111 -0.1453
12504SOL    HW249238   9.291  11.965   5.541 -0.0493 -0.5524 -0.2271
12505SOL     OW49239  11.495   6.103   1.761 -0.9159 -0.6143  0.1873
12505SOL    HW149240  11.441   6.081   1.685  0.9414 -2.3145 -0.7009
12505SOL    HW249241  11.528   6.020   1.792  0.3909  0.2934  1.3402
12506SOL     OW49242   6.745   6.115   6.354 -0.1953 -0.1509 -0.2589
12506SOL    HW149243   6.791   6.196   6.378  0.1189 -0.1968 -0.7068
12506SOL    HW249244   6.675   6.143   6.294 -0.3171 -0.1683 -0.1263
12507SOL     OW49245   4.232  11.430   8.294 -0.2872 -0.2552 -0.7473
12507SOL    HW149246   4.294  11.492   8.333  0.5268 -1.9977  0.9107
12507SOL    HW249247   4.146  11.468   8.313  0.1808  0.3516  0.2713
12508SOL     OW49248   4.444  11.377  10.060  0.2763  0.6416  0.4433
12508SOL    HW149249   4.391  11.358  10.138 -1.0075 -1.1638 -0.7995
12508SOL    HW249250   4.532  11.347  10.083 -0.6817 -2.6571  0.2613
12509SOL     OW49251   2.097   9.252  10.196  0.0149  0.2413 -0.2843
12509SOL    HW149252   2.159   9.320  10.169  0.2262 -0.5420 -1.8412
12509SOL    HW249253   2.050   9.291  10.270 -0.6206  2.5008 -1.7843
12510SOL     OW49254   2.630   3.092   8.760  0.3662 -0.5651  0.2016
12510SOL    HW149255   2.649   3.180   8.794 -0.2998 -0.2055 -0.3296
12510SOL    HW249256   2.604   3.042   8.836 -1.7844  0.4158  0.1717
12511SOL     OW49257   0.116  12.446   2.783  0.0235 -0.3585  0.3647
12511SOL    HW149258   0.155  12.503   2.849 -2.7799  0.9683  1.0420
12511SOL    HW249259   0.162  12.468   2.702  0.4193  1.3867  1.0204
12512SOL     OW49260   0.837   6.827   8.772 -0.3470  0.2103 -0.5440
12512SOL    HW149261   0.787   6.770   8.830 -0.5988 -0.3638 -1.3100
12512SOL    HW249262   0.811   6.801   8.684  1.2959 -0.1169 -0.9690
12513SOL     OW49263  10.879   5.429  11.812  0.0305 -0.4395  0.6568
12513SOL    HW149264  10.898   5.380  11.893 -0.0584 -0.0915  0.8876
12513SOL    HW249265  10.819   5.498  11.839 -0.6505 -0.8198  0.1386
12514SOL     OW49266   3.056   8.494   4.392 -0.3267  0.5463  0.0134
12514SOL    HW149267   3.057   8.562   4.459 -1.5686  0.1399  0.4508
12514SOL    HW249268   2.974   8.507   4.345 -0.6288 -0.6971  0.1603
12515SOL     OW49269   1.775   2.297   5.941 -0.2811  0.0996 -0.5230
12515SOL    HW149270   1.829   2.267   6.014 -0.5723 -1.2186 -0.8350
12515SOL    HW249271   1.686   2.272   5.965 -0.6929  1.6048 -0.3529
12516SOL     OW49272  11.853   7.232  10.285 -0.4837 -0.2213 -0.1406
12516SOL    HW149273  11.903   7.280  10.351 -2.1506  1.1164  0.2014
12516SOL    HW249274  11.897   7.252  10.203  0.0693  0.1978  0.2480
12517SOL     OW49275   6.723   0.668   4.563  0.2756  0.1537  0.0287
12517SOL    HW149276   6.651   0.709   4.613  0.3449  1.1686 -0.6654
12517SOL    HW249277   6.721   0.576   4.589  0.9207  0.8077  2.6376
12518SOL     OW49278   4.303  13.627   7.779  0.1398 -0.6060 -0.5668
12518SOL    HW149279   4.299  13.536   7.808  0.8492 -0.2897  0.6085
12518SOL    HW249280   4.382  13.662   7.821 -0.4930  0.7263 -0.4430
12519SOL     OW49281   4.382   4.580  12.168  0.1184 -0.2149 -0.2341
12519SOL    HW149282   4.295   4.564  12.206  0.6887 -1.5922  0.5813
12519SOL    HW249283   4.405   4.497  12.126  0.0827  0.8701 -2.5317
12520SOL     OW49284   6.084  11.969   1.157 -0.1210  0.4774 -0.1470
12520SOL    HW149285   6.126  11.928   1.081 -1.0790  1.2964 -1.1429
12520SOL    HW249286   6.133  12.050   1.170 -0.5470  0.7957 -0.4933
12521SOL     OW49287   1.773   3.154  13.616  0.0595  0.6715  0.4061
12521SOL    HW149288   1.783   3.239  13.659  0.3579  0.6120  0.4510
12521SOL    HW249289   1.681   3.152  13.589  0.1391  1.1518  0.0958
12522SOL     OW49290   7.575   2.799   1.804 -0.3161 -0.4691 -0.0924
12522SOL    HW149291   7.533   2.881   1.829  4.0544  1.4692  1.8864
12522SOL    HW249292   7.601   2.812   1.713 -0.5883 -0.1021 -0.1200
12523SOL     OW49293   1.736   5.449  10.683 -0.1721 -0.2876  0.5175
12523SOL    HW149294   1.761   5.515  10.748  2.1503 -0.7724  0.2065
12523SOL    HW249295   1.813   5.440  10.627 -2.0798  0.0941 -2.3656
12524SOL     OW49296   1.658  10.799  13.259  0.3725 -0.2233  0.2633
12524SOL    HW149297   1.654  10.749  13.340  1.0602  0.2311  0.5908
12524SOL    HW249298   1.734  10.763  13.213  2.4674  2.1049  1.6289
12525SOL     OW49299  12.365   5.877   6.491 -0.3175 -0.1970  0.3725
12525SOL    HW149300  12.410   5.849   6.570 -1.1188  0.9537  1.2763
12525SOL    HW249301  12.436   5.901   6.431  0.2979  0.2742  1.2636
12526SOL     OW49302   8.184   6.997   1.763  0.6310 -0.0861 -0.3851
12526SOL    HW149303   8.144   6.910   1.755  1.6432 -0.5119 -1.0586
12526SOL    HW249304   8.142   7.036   1.839  0.0408 -1.1071 -0.1689
12527SOL     OW49305  13.175   7.351  12.324 -0.7917  0.2182  0.1663
12527SOL    HW149306  13.215   7.278  12.277  1.7214  2.0783 -0.7638
12527SOL    HW249307  13.164   7.420  12.258 -2.2351  1.0462  1.2071
12528SOL     OW49308  10.110  13.404  12.175  0.4920  0.0606 -0.0273
12528SOL    HW149309  10.140  13.370  12.091  0.6180  1.1221 -0.4316
12528SOL    HW249310  10.190  13.433  12.219  0.5158 -1.2209  0.8155
12529SOL     OW49311  12.937  11.874   5.250  0.1280  0.3543  0.4090
12529SOL    HW149312  12.878  11.839   5.316  0.5171  0.2123  0.6882
12529SOL    HW249313  12.886  11.941   5.205 -0.5929 -0.5136 -0.0826
12530SOL     OW49314   4.811   7.212  13.453 -0.1485 -0.0053 -0.5532
12530SOL    HW149315   4.896   7.238  13.418  0.6425 -0.8393  0.6817
12530SOL    HW249316   4.817   7.117  13.461 -0.6581  0.0662  0.8817
12531SOL     OW49317   4.755   4.448  13.718  0.1872  0.2937 -0.5300
12531SOL    HW149318   4.661   4.462  13.705  0.0817 -0.1730 -0.2845
12531SOL    HW249319   4.777   4.501  13.794  0.1464  0.4863 -0.6515
12532SOL     OW49320   1.282  12.257   5.565  0.1736 -0.0093  0.1129
12532SOL    HW149321   1.305  12.332   5.620  3.7696  0.5512 -1.8572
12532SOL    HW249322   1.269  12.185   5.627 -0.0606  1.4660  1.8651
12533SOL     OW49323   3.444   2.902  12.304  0.5280 -0.0647 -0.1566
12533SOL    HW149324   3.467   2.973  12.244 -1.8462 -0.0603 -1.1703
12533SOL    HW249325   3.499   2.829  12.278  0.1841  0.2183 -1.7617
12534SOL     OW49326   4.515  11.805   8.102 -0.6385  0.1210  0.1755
12534SOL    HW149327   4.562  11.770   8.177 -1.7296  1.7313  1.6711
12534SOL    HW249328   4.583  11.849   8.049 -0.0508  0.0666  0.8724
12535SOL     OW49329   6.970  11.571  13.674  0.0293 -0.3678 -0.2524
12535SOL    HW149330   7.018  11.547  13.595  0.7239  1.7879 -0.5645
12535SOL    HW249331   6.941  11.488  13.712  0.1056 -1.4751 -2.4927
12536SOL     OW49332   7.598  10.171  10.490 -0.4577  0.4324  0.6038
12536SOL    HW149333   7.644  10.235  10.436 -0.7878  0.0639 -0.1349
12536SOL    HW249334   7.629  10.086  10.458 -0.2729  0.2065  1.3483
12537SOL     OW49335   1.116   7.886   4.711  0.0970 -0.1876  0.2895
12537SOL    HW149336   1.063   7.903   4.789  0.6619  0.2778  0.5770
12537SOL    HW249337   1.201   7.924   4.730 -0.1819  1.2655 -1.1365
12538SOL     OW49338  13.406  13.019   4.244 -0.3267 -0.4705 -0.3094
12538SOL    HW149339  13.486  13.022   4.296  0.9050  1.5127 -2.1589
12538SOL    HW249340  13.343  12.973   4.299  1.5826 -0.6184  1.8847
12539SOL     OW49341   6.396   1.468  10.065 -0.3284 -0.5155  0.5611
12539SOL    HW149342   6.391   1.381  10.106 -0.3552 -1.1984 -0.8350
12539SOL    HW249343   6.349   1.458   9.983  0.0120  0.7270  0.1993
12540SOL     OW49344   1.436   8.935  10.217 -0.0175  0.0982  0.1986
12540SOL    HW149345   1.368   8.874  10.189 -1.3514  1.3058  0.7276
12540SOL    HW249346   1.404   8.971  10.299  0.9185  1.2393  0.0927
12541SOL     OW49347   2.370   8.547   3.593  0.2321  0.1211 -0.1646
12541SOL    HW149348   2.367   8.460   3.632 -1.0605 -0.1636 -0.8531
12541SOL    HW249349   2.459   8.578   3.611 -0.3660  0.2438  3.4613
12542SOL     OW49350   5.691   4.032   1.269 -0.0412  0.6573  0.1224
12542SOL    HW149351   5.694   4.080   1.352  0.2607 -2.4317  2.0718
12542SOL    HW249352   5.781   4.002   1.255 -0.3228  0.1490 -0.6645
12543SOL     OW49353   3.078  12.392   4.872  0.1756  0.3976 -0.0472
12543SOL    HW149354   3.090  12.477   4.830  2.2785 -1.0725 -2.6746
12543SOL    HW249355   3.002  12.355   4.828  0.0996  0.3349  0.1346
12544SOL     OW49356   2.400   0.023   9.946  0.3459  0.2829 -0.2126
12544SOL    HW149357   2.338  -0.050   9.940 -0.7743  1.2771 -1.2180
12544SOL    HW249358   2.401   0.046  10.039 -0.0106 -0.4079 -0.0325
12545SOL     OW49359   1.167   0.465   2.973  0.2354 -0.1718 -0.1652
12545SOL    HW149360   1.257   0.450   2.944  0.2564  1.1534 -0.8790
12545SOL    HW249361   1.175   0.494   3.064  0.4982 -0.4211 -0.1093
12546SOL     OW49362   1.168  11.947   6.307 -0.2085  0.1989 -0.2836
12546SOL    HW149363   1.259  11.918   6.316  0.3607  1.9923  0.0703
12546SOL    HW249364   1.154  11.955   6.213 -0.7818 -2.2680 -0.4895
12547SOL     OW49365   5.438   2.969   2.244  0.2724  0.0934  0.6561
12547SOL    HW149366   5.468   2.916   2.317  0.1244 -1.6940 -0.5141
12547SOL    HW249367   5.504   2.954   2.175  0.0247  1.1508  0.1610
12548SOL     OW49368   0.279  12.853   5.742  0.8569 -0.2832  0.0714
12548SOL    HW149369   0.273  12.784   5.676  2.3806  0.0600 -0.4724
12548SOL    HW249370   0.327  12.924   5.699  2.2726 -0.2268  1.6501
12549SOL     OW49371  11.184  11.727  11.388 -0.3199 -0.0780 -0.7396
12549SOL    HW149372  11.223  11.767  11.466 -0.2472 -0.2570 -0.6845
12549SOL    HW249373  11.139  11.800  11.345  0.6004  0.2677 -1.1393
12550SOL     OW49374   8.001   7.905   6.862 -0.3845  0.7036  0.5624
12550SOL    HW149375   7.928   7.936   6.810 -0.6248  0.5277  0.7943
12550SOL    HW249376   8.049   7.985   6.886  0.9046  0.6479 -1.6276
12551SOL     OW49377   8.406   7.413  13.652 -0.6517  0.1396  0.3299
12551SOL    HW149378   8.327   7.443  13.698 -0.2040  0.6562  0.7705
12551SOL    HW249379   8.472   7.479  13.673  1.1897 -2.4421  3.5512
12552SOL     OW49380   1.952   2.870   1.807  0.3420 -0.3287 -0.2248
12552SOL    HW149381   1.912   2.839   1.888  2.2813  0.7977  1.2527
12552SOL    HW249382   2.035   2.822   1.801 -0.0380 -0.8249 -1.8809
12553SOL     OW49383  13.393   0.371   6.311 -0.5660  0.5320 -0.3744
12553SOL    HW149384  13.299   0.356   6.303 -0.8688  2.3899 -0.6577
12553SOL    HW249385  13.405   0.463   6.288  1.0214  0.9914  1.9396
12554SOL     OW49386   1.402   1.304   7.423 -0.1479  0.4289 -0.2802
12554SOL    HW149387   1.402   1.335   7.514  3.1495  1.1167 -0.3718
12554SOL    HW249388   1.366   1.378   7.373  0.1720  0.9684  0.2694
12555SOL     OW49389  10.489  11.440  10.879 -0.2637  0.2869 -0.1869
12555SOL    HW149390  10.474  11.471  10.789 -2.5180  1.5181  0.5291
12555SOL    HW249391  10.403  11.447  10.921  0.9603  0.9042  2.3978
12556SOL     OW49392   5.329   5.381   0.229  0.2252  0.3069  0.1173
12556SOL    HW149393   5.292   5.389   0.141 -0.1507  2.9254  0.4265
12556SOL    HW249394   5.333   5.286   0.245 -3.3937 -0.2537 -1.1713
12557SOL     OW49395   0.130   9.855   8.669 -0.1307  0.0067  0.1559
12557SOL    HW149396   0.204   9.866   8.610 -0.6253  0.2079 -0.4356
12557SOL    HW249397   0.059   9.824   8.613  0.0187 -2.0576  1.0347
12558SOL     OW49398   6.812   3.442  13.090 -0.4926  0.1214 -0.4933
12558SOL    HW149399   6.776   3.356  13.068  0.7308 -0.5781  0.1327
12558SOL    HW249400   6.784   3.457  13.181 -0.5089  0.2846 -0.5249
12559SOL     OW49401   0.790  10.891   1.151  0.0239  0.1500 -0.0787
12559SOL    HW149402   0.838  10.974   1.158  0.7240 -0.3905  3.3211
12559SOL    HW249403   0.712  10.905   1.203 -0.4304 -0.9858 -0.4415
12560SOL     OW49404  10.243  13.634  11.137  0.8954 -0.1777  0.6889
12560SOL    HW149405  10.181  13.576  11.093 -1.1388  2.1956  0.2370
12560SOL    HW249406  10.191  13.680  11.203  2.2693  1.5599  0.6383
12561SOL     OW49407   1.812   6.749   2.239  0.3788 -1.0396  0.8530
12561SOL    HW149408   1.782   6.813   2.304  1.0391 -0.0046  0.1534
12561SOL    HW249409   1.896   6.720   2.272  3.1004  2.9541 -1.6851
12562SOL     OW49410  11.450  13.286   1.413  0.9572 -0.4771 -0.2785
12562SOL    HW149411  11.401  13.227   1.469  1.4152 -1.2144 -0.6340
12562SOL    HW249412  11.426  13.374   1.442  1.2224 -0.8426  1.1013
12563SOL     OW49413   2.425   4.082  10.721 -0.4228  0.2423 -0.0672
12563SOL    HW149414   2.394   3.995  10.747  0.0200 -0.0129 -0.3709
12563SOL    HW249415   2.368   4.143  10.767 -0.6398 -0.2116  0.2691
12564SOL     OW49416   2.670  13.390   8.907  0.5308 -0.3765  0.0369
12564SOL    HW149417   2.589  13.439   8.918  0.4975 -0.4253  0.0106
12564SOL    HW249418   2.739  13.455   8.920  0.4822 -0.1689 -0.6706
12565SOL     OW49419   7.881   0.866   6.392 -0.3232 -0.2523 -0.1284
12565SOL    HW149420   7.899   0.809   6.317 -0.3583 -0.6209  0.1419
12565SOL    HW249421   7.858   0.806   6.463 -0.9597  0.1215 -0.0040
12566SOL     OW49422   0.880   2.181   6.018 -0.1374 -0.1806  0.5253
12566SOL    HW149423   0.935   2.224   6.084 -0.1751  0.2399  0.2890
12566SOL    HW249424   0.803   2.237   6.012  1.1585  1.5172 -2.0541
12567SOL     OW49425   3.725   9.557   5.826 -0.3555 -0.7907  0.4379
12567SOL    HW149426   3.771   9.488   5.779  1.2788  0.9265 -0.6454
12567SOL    HW249427   3.632   9.539   5.811 -0.0353 -3.1824  0.9353
12568SOL     OW49428   7.112   3.167  12.130  0.5360 -0.1394  0.8595
12568SOL    HW149429   7.021   3.139  12.125 -0.0288  1.7984 -1.3380
12568SOL    HW249430   7.112   3.237  12.196  0.9208 -1.5770  2.4523
12569SOL     OW49431   2.871   2.276  13.275 -0.0299  0.2433 -0.2052
12569SOL    HW149432   2.886   2.196  13.226 -0.3471  0.7903 -1.2189
12569SOL    HW249433   2.929   2.341  13.236 -0.9463  0.9236 -0.4811
12570SOL     OW49434   6.038   1.865   7.207 -0.0387  0.3289  0.4940
12570SOL    HW149435   5.951   1.905   7.203  0.3333  1.1629  0.5217
12570SOL    HW249436   6.025   1.784   7.257 -0.8942  0.1596  0.0301
12571SOL     OW49437   9.650   6.948   1.698 -0.1247 -0.0710  0.1244
12571SOL    HW149438   9.724   6.970   1.643 -1.0257 -1.0639 -1.5519
12571SOL    HW249439   9.669   6.859   1.731 -0.4381 -0.2160 -0.0827
12572SOL     OW49440   5.514   0.068  11.427 -0.1312 -0.1543  0.1670
12572SOL    HW149441   5.539   0.156  11.401  1.4570 -0.0822  1.8130
12572SOL    HW249442   5.429   0.078  11.470 -0.3862  0.4102 -0.4517
12573SOL     OW49443   1.345   2.442   7.041  0.2034  0.3423 -0.3029
12573SOL    HW149444   1.323   2.359   6.998  1.8088 -0.0363 -0.4706
12573SOL    HW249445   1.279   2.451   7.110 -1.0263 -0.2007 -1.3471
12574SOL     OW49446   4.609   1.158   2.384  0.1321 -0.5314  0.3720
12574SOL    HW149447   4.536   1.155   2.447 -0.9626  1.7172 -0.7005
12574SOL    HW249448   4.686   1.136   2.437 -1.2575 -3.3453  1.4815
12575SOL     OW49449  13.515   4.689   2.013  0.2137 -0.5571  0.2389
12575SOL    HW149450  13.421   4.698   2.026  0.1491  0.0947 -0.6410
12575SOL    HW249451  13.550   4.681   2.102 -0.7244 -1.4621  0.5480
12576SOL     OW49452   4.815   2.321   6.216 -0.4589 -0.5000  0.1513
12576SOL    HW149453   4.887   2.301   6.275 -0.3878  1.5458  0.8670
12576SOL    HW249454   4.776   2.401   6.253 -1.0230  0.3100 -2.0458
12577SOL     OW49455   0.737  10.240  11.829  0.3025  0.6311  0.0522
12577SOL    HW149456   0.824  10.269  11.802  0.3051 -0.0950 -0.7572
12577SOL    HW249457   0.753  10.166  11.888  0.2341 -0.7008 -1.5301
12578SOL     OW49458  11.967  12.742   8.396  0.1479 -0.0582 -0.0391
12578SOL    HW149459  11.932  12.784   8.475 -0.4258 -0.7502  0.0851
12578SOL    HW249460  11.894  12.742   8.334  0.1768 -0.7375 -0.0849
12579SOL     OW49461  10.937  12.997  11.249  0.2493  0.0682 -0.1835
12579SOL    HW149462  10.848  13.033  11.250 -0.1074 -0.7784  0.1035
12579SOL    HW249463  10.979  13.034  11.327 -1.0382 -2.2644  1.7623
12580SOL     OW49464   6.140   7.700   6.849 -0.1341  0.2094 -0.8660
12580SOL    HW149465   6.065   7.650   6.816 -0.2801 -1.5370  1.8202
12580SOL    HW249466   6.102   7.759   6.914  0.5221  1.2062 -1.3784
12581SOL     OW49467   4.975   7.973   8.380  0.2829 -1.0370 -0.3520
12581SOL    HW149468   4.885   7.974   8.346  0.3848 -1.4299 -0.6481
12581SOL    HW249469   5.021   8.038   8.328  0.0831 -0.5646  0.0551
12582SOL     OW49470   2.150   5.323  10.556  0.2355  0.7084  0.3375
12582SOL    HW149471   2.207   5.396  10.581 -0.0155  1.0672 -0.1228
12582SOL    HW249472   2.065   5.364  10.539 -0.0441  0.2371  0.5728
12583SOL     OW49473   8.449   3.702   6.256  0.3808 -0.3402 -0.1221
12583SOL    HW149474   8.536   3.740   6.270  0.1529  0.1599 -0.0577
12583SOL    HW249475   8.464   3.627   6.198  0.7899  0.0192 -0.4807
12584SOL     OW49476  13.297   5.517  12.340  0.0529  0.2412 -0.2523
12584SOL    HW149477  13.390   5.510  12.359 -0.0355  0.2839  0.1968
12584SOL    HW249478  13.293   5.526  12.244  0.4923  0.0257 -0.2930
12585SOL     OW49479   2.878  12.416   4.227  0.2884 -0.5004  0.4487
12585SOL    HW149480   2.898  12.348   4.161  0.8712 -0.6820  0.8045
12585SOL    HW249481   2.922  12.494   4.194  1.1809 -0.7663  0.9602
12586SOL     OW49482   7.291   1.797  13.672 -0.3625 -0.1358  0.0058
12586SOL    HW149483   7.276   1.704  13.689 -1.0383  0.2704  1.8768
12586SOL    HW249484   7.204   1.837  13.678 -0.2482  0.4963 -1.8998
12587SOL     OW49485   0.368   6.210   6.578  0.3014  0.0302 -0.3501
12587SOL    HW149486   0.350   6.145   6.510 -0.1848 -0.3219  0.1120
12587SOL    HW249487   0.314   6.286   6.554 -3.3623 -1.6052  1.9542
12588SOL     OW49488   9.965   0.011  10.776 -0.2567  0.2685  0.7716
12588SOL    HW149489  10.041  -0.041  10.748  0.9766  0.7562  2.9793
12588SOL    HW249490   9.969   0.091  10.723  0.0418 -0.2370  0.0194
12589SOL     OW49491   8.081   7.057   8.268  0.2395 -0.1485  0.6348
12589SOL    HW149492   8.047   6.967   8.271 -2.0088  0.6430  0.3877
12589SOL    HW249493   8.070   7.082   8.176  0.5815  0.4852  0.7683
12590SOL     OW49494  10.628  11.127   4.413 -0.3742  0.1247  0.3710
12590SOL    HW149495  10.585  11.042   4.412 -1.7637  0.7790  1.2563
12590SOL    HW249496  10.580  11.178   4.478  1.9575  0.8352  1.6415
12591SOL     OW49497  11.013   1.395   0.746  0.3014 -0.4640  0.1483
12591SOL    HW149498  11.087   1.370   0.691  1.6598 -0.5371  1.9249
12591SOL    HW249499  10.936   1.371   0.694  1.4974 -0.6289 -1.6436
12592SOL     OW49500   8.678  12.274   4.721  0.3227  0.3691 -0.2022
12592SOL    HW149501   8.609  12.257   4.785  2.0136 -2.2282  1.0994
12592SOL    HW249502   8.727  12.348   4.758 -0.7404  1.1516 -0.3176
12593SOL     OW49503   2.385   1.231   3.515 -0.2044  0.0509  0.2338
12593SOL    HW149504   2.293   1.208   3.522 -0.3477 -0.0186 -1.3842
12593SOL    HW249505   2.405   1.277   3.596 -1.5545 -0.2615  0.7715
12594SOL     OW49506   4.110   3.109   6.549  0.1417 -0.0659  0.1781
12594SOL    HW149507   4.164   3.101   6.628  1.4347 -0.1250 -0.6664
12594SOL    HW249508   4.061   3.027   6.545  3.1824 -2.0366 -1.2192
12595SOL     OW49509   5.610  13.429   9.464  0.6677  0.4053  0.1403
12595SOL    HW149510   5.568  13.389   9.388  0.4811  0.8167  0.0263
12595SOL    HW249511   5.661  13.502   9.429  0.7369  0.4771  0.3871
12596SOL     OW49512   9.013   4.706   9.025  0.2767  0.0376 -0.3818
12596SOL    HW149513   9.057   4.764   8.964  1.0498  0.5958  0.6615
12596SOL    HW249514   9.073   4.632   9.035  0.7907  0.5591  0.6499
12597SOL     OW49515   9.851   6.761   2.526 -0.0230  0.0347 -0.0138
12597SOL    HW149516   9.776   6.705   2.505 -0.7348  1.3563 -1.1282
12597SOL    HW249517   9.851   6.829   2.458  2.8592 -0.5345 -0.7262
12598SOL     OW49518   1.252   1.458   4.346  0.1129  0.3731 -0.0729
12598SOL    HW149519   1.262   1.534   4.288 -0.9174 -0.7345 -1.8091
12598SOL    HW249520   1.330   1.460   4.401  1.5269  1.1219 -1.9794
12599SOL     OW49521   5.517  11.321  11.687 -0.1334 -0.3288  0.0152
12599SOL    HW149522   5.532  11.243  11.634 -0.9893 -1.0718  0.8267
12599SOL    HW249523   5.451  11.370  11.639 -0.1183 -0.4568 -0.1383
12600SOL     OW49524   5.404  13.029   6.134 -0.0088  0.2482 -0.2469
12600SOL    HW149525   5.446  13.111   6.109  0.6588  0.2284  0.7517
12600SOL    HW249526   5.411  12.974   6.056 -1.1072  1.3686 -1.1683
12601SOL     OW49527  13.526  12.902   4.505 -0.2224  0.4794  0.1377
12601SOL    HW149528  13.606  12.941   4.541  0.8826 -1.0396 -0.5431
12601SOL    HW249529  13.472  12.883   4.581 -0.0196  1.6514  0.6066
12602SOL     OW49530  11.441  11.612   2.711  0.0474 -0.2193  0.2043
12602SOL    HW149531  11.394  11.675   2.655  0.6407 -0.5290 -0.6699
12602SOL    HW249532  11.373  11.574   2.767 -0.9555 -1.3444 -1.6668
12603SOL     OW49533  10.744   0.263   6.884 -0.7444 -0.6715  0.6125
12603SOL    HW149534  10.728   0.357   6.874  0.7260 -0.5009 -0.5702
12603SOL    HW249535  10.686   0.222   6.820 -1.0751 -0.5420  0.8269
12604SOL     OW49536  13.264   7.197   7.815 -0.6750  0.5067 -0.2085
12604SOL    HW149537  13.227   7.243   7.739  0.1504 -1.7465 -2.1112
12604SOL    HW249538  13.195   7.137   7.842 -0.5922  0.5807  0.1638
12605SOL     OW49539   3.814   1.839   3.029 -0.3277  0.2115  0.3188
12605SOL    HW149540   3.756   1.809   3.099  0.7517 -0.2832  1.0257
12605SOL    HW249541   3.755   1.873   2.962 -1.6454 -3.2004 -0.4591
12606SOL     OW49542   3.522   4.417   0.832  1.0727  0.2468 -0.1092
12606SOL    HW149543   3.511   4.323   0.817  0.4556  0.2468  0.2826
12606SOL    HW249544   3.483   4.458   0.755  0.8281  0.1881 -0.0182
12607SOL     OW49545   4.877   8.745   2.145 -0.1804 -0.5465  0.2131
12607SOL    HW149546   4.908   8.835   2.149 -0.8568 -0.2251 -0.9589
12607SOL    HW249547   4.952   8.695   2.113 -0.1531 -0.1745 -0.3349
12608SOL     OW49548   9.871   4.347  10.609 -0.0268 -0.2290  0.4942
12608SOL    HW149549   9.850   4.255  10.596  0.2674 -0.0608 -1.4995
12608SOL    HW249550   9.910   4.375  10.526  0.2999  1.5768  1.2050
12609SOL     OW49551  11.041   7.221   5.127  0.0451 -0.7246 -0.8296
12609SOL    HW149552  11.098   7.205   5.052 -1.0564  0.7904 -2.0542
12609SOL    HW249553  11.100   7.246   5.198  1.0476 -1.3674 -1.4240
12610SOL     OW49554  10.676  13.602   6.209  0.3552  0.0272  0.4836
12610SOL    HW149555  10.599  13.658   6.215  0.8235  0.9735 -1.4640
12610SOL    HW249556  10.650  13.531   6.151  0.1276 -1.1977  2.0230
12611SOL     OW49557   0.326   9.285  11.809 -0.3004 -0.1149 -0.2235
12611SOL    HW149558   0.267   9.221  11.770  0.0215  0.7515 -2.2822
12611SOL    HW249559   0.274   9.366  11.814 -0.3670 -0.2117  1.3356
12612SOL     OW49560   2.917   8.148   3.828 -0.0654  0.6123 -0.8949
12612SOL    HW149561   2.946   8.083   3.892  3.5891  0.7046 -2.2563
12612SOL    HW249562   2.865   8.210   3.879 -0.2995 -1.1996  1.2153
12613SOL     OW49563   8.360   8.342   9.282 -0.2950 -0.6947  0.2021
12613SOL    HW149564   8.292   8.336   9.215 -1.3768  0.9948  1.0893
12613SOL    HW249565   8.418   8.411   9.252  0.2473 -1.1687  0.1405
12614SOL     OW49566  11.258   4.200   0.095  0.2462 -0.1668  0.1131
12614SOL    HW149567  11.234   4.220   0.005 -2.7112 -0.0322  0.8297
12614SOL    HW249568  11.176   4.171   0.136  1.8808 -2.0930  2.2758
12615SOL     OW49569  10.590   0.436  12.375  0.3520  0.5566 -0.0750
12615SOL    HW149570  10.587   0.442  12.470  0.4156  0.2385 -0.0513
12615SOL    HW249571  10.505   0.469  12.346 -0.1901 -0.6053  0.1587
12616SOL     OW49572   3.909  10.162   1.521 -0.1980 -1.0307 -0.2932
12616SOL    HW149573   3.990  10.121   1.553  0.0894 -0.7707 -0.6731
12616SOL    HW249574   3.931  10.193   1.433 -0.4946 -0.3207 -0.1218
12617SOL     OW49575   4.030  11.959   4.649  0.3677 -0.3527  0.3555
12617SOL    HW149576   4.052  11.982   4.739  1.7646  0.2294 -0.0990
12617SOL    HW249577   4.110  11.919   4.614  0.2827  0.5979 -1.0019
12618SOL     OW49578  12.144   8.415   9.591 -0.5376 -0.2995 -0.0726
12618SOL    HW149579  12.182   8.443   9.675 -1.5959  0.6942  0.0938
12618SOL    HW249580  12.107   8.328   9.610  1.4817 -1.2733 -0.2162
12619SOL     OW49581   8.095  12.126   2.944 -0.8088 -0.8036  0.1778
12619SOL    HW149582   8.100  12.216   2.977 -1.7273 -0.5491 -0.3557
12619SOL    HW249583   8.013  12.122   2.894 -0.3691 -1.7046 -0.5126
12620SOL     OW49584  12.291  11.240  10.232 -0.1343 -0.1922 -0.1357
12620SOL    HW149585  12.231  11.314  10.223  1.3281  0.9438 -0.9820
12620SOL    HW249586  12.363  11.274  10.285  0.7129 -0.9108 -0.7879
12621SOL     OW49587   4.913  12.075   5.684 -0.1867  0.3550 -0.1871
12621SOL    HW149588   4.964  12.135   5.739 -2.0199  1.0511  0.8469
12621SOL    HW249589   4.944  12.091   5.595  1.4482  0.6550  0.4049
12622SOL     OW49590  13.471   9.410   1.777 -0.1936 -0.5711 -0.7440
12622SOL    HW149591  13.481   9.338   1.840  0.5301  1.9291  2.2349
12622SOL    HW249592  13.425   9.370   1.703  0.2307 -4.0808  0.6699
12623SOL     OW49593  11.446   8.596   6.473  0.0482  0.3198 -0.2154
12623SOL    HW149594  11.513   8.652   6.433 -1.7747  1.5116 -1.8203
12623SOL    HW249595  11.457   8.511   6.430 -0.2397  0.8676 -1.4145
12624SOL     OW49596   8.182   6.107  11.361 -0.0780  0.1991  0.2577
12624SOL    HW149597   8.249   6.175  11.358  0.8666 -0.6402 -3.6672
12624SOL    HW249598   8.116   6.136  11.298  1.0040 -2.9011 -2.6218
12625SOL     OW49599   3.570   0.416  11.444 -0.4631  0.5381 -0.1116
12625SOL    HW149600   3.540   0.470  11.371 -1.1148 -0.1041 -0.3313
12625SOL    HW249601   3.658   0.449  11.464  0.8614 -0.9696 -2.9192
12626SOL     OW49602   7.563   6.646   7.814  0.7369 -0.1098  0.0877
12626SOL    HW149603   7.602   6.560   7.798  0.0887 -0.2533 -0.8006
12626SOL    HW249604   7.481   6.628   7.858  1.2368  0.1452  1.1557
12627SOL     OW49605  11.848   2.550   7.308  0.4408 -0.2052 -0.1703
12627SOL    HW149606  11.845   2.584   7.219  0.7289 -1.6736 -0.7717
12627SOL    HW249607  11.758   2.557   7.339 -0.3330 -2.4587 -1.7057
12628SOL     OW49608   5.632   9.555  13.332 -0.2423 -0.3441  0.7130
12628SOL    HW149609   5.561   9.588  13.387 -0.4684 -0.2468  0.3619
12628SOL    HW249610   5.652   9.627  13.272 -0.4716 -0.7029  0.2041
12629SOL     OW49611   3.438   8.791   3.494 -0.4823  0.3583 -0.1921
12629SOL    HW149612   3.465   8.882   3.506 -0.0482  0.1731  0.2912
12629SOL    HW249613   3.504   8.754   3.436 -0.2980  0.1895  0.1215
12630SOL     OW49614   9.715   2.323   3.963  0.4477 -0.0290 -0.1984
12630SOL    HW149615   9.739   2.262   3.894 -1.0671  0.0006 -0.7898
12630SOL    HW249616   9.637   2.367   3.930  0.9626  1.5724  0.6130
12631SOL     OW49617  12.083   4.488   6.398 -0.2463  0.1845  0.1600
12631SOL    HW149618  12.133   4.491   6.479 -0.9092 -0.5780  0.6262
12631SOL    HW249619  12.106   4.404   6.359 -0.5757  0.1641  0.0020
12632SOL     OW49620   2.914  13.598   6.154 -0.3947  0.1828  0.6872
12632SOL    HW149621   2.913  13.511   6.114  1.4680 -0.0211  0.9698
12632SOL    HW249622   2.833  13.639   6.125 -0.4627 -0.9886 -0.9363
12633SOL     OW49623  11.033   3.445   0.623  0.1787  0.7395  0.3625
12633SOL    HW149624  11.032   3.350   0.634 -0.3186  0.6920 -0.0315
12633SOL    HW249625  11.122   3.472   0.646  0.2302  0.2161  0.7777
12634SOL     OW49626   2.511   9.051  10.842  0.5328  0.1566 -0.3799
12634SOL    HW149627   2.535   9.042  10.935  0.4198 -0.7309 -0.4265
12634SOL    HW249628   2.594   9.045  10.795  0.5842  0.5518 -0.3463
12635SOL     OW49629   1.871  13.182  12.538 -0.5104 -0.1355  0.3188
12635SOL    HW149630   1.789  13.176  12.489 -0.1605  0.1494 -0.3106
12635SOL    HW249631   1.878  13.274  12.562 -0.7841 -0.3082  1.1084
12636SOL     OW49632   7.443   1.588   1.157 -0.1627 -0.1287  0.0476
12636SOL    HW149633   7.437   1.551   1.069 -3.0414 -1.5859  0.7603
12636SOL    HW249634   7.518   1.543   1.196  0.1678 -0.6369 -1.1225
12637SOL     OW49635   8.957   9.888   8.505 -0.0775  0.1257  0.1340
12637SOL    HW149636   8.989   9.974   8.531 -1.6785  0.4461  1.1439
12637SOL    HW249637   8.993   9.828   8.572 -0.0001  0.1940  0.1540
12638SOL     OW49638  12.705   6.849   0.586  0.4360  0.3948 -0.0732
12638SOL    HW149639  12.786   6.835   0.635  0.6750  2.1339  0.0857
12638SOL    HW249640  12.734   6.876   0.499  0.0377  1.1148  0.0145
12639SOL     OW49641  10.291   6.132   4.880  0.0396  0.2371  0.3666
12639SOL    HW149642  10.370   6.112   4.829  1.0918 -1.8438  2.5725
12639SOL    HW249643  10.321   6.133   4.971 -2.1742  1.2814  1.1611
12640SOL     OW49644   5.245   9.385   9.020 -0.2703  0.5689  0.5530
12640SOL    HW149645   5.220   9.292   9.025 -1.4664  0.5213 -3.2353
12640SOL    HW249646   5.165   9.432   9.044 -1.8562  0.4179 -3.5929
12641SOL     OW49647   9.512   1.588   0.838  0.7650  0.0077 -0.0238
12641SOL    HW149648   9.511   1.667   0.892  0.9866  0.3897 -0.5764
12641SOL    HW249649   9.438   1.599   0.778  1.2909  0.1804 -0.6474
12642SOL     OW49650  11.594  13.122   7.167  0.1717 -0.1606  0.3354
12642SOL    HW149651  11.636  13.208   7.177  2.6467 -1.0572 -1.2573
12642SOL    HW249652  11.642  13.065   7.227  1.8485 -1.3452 -1.9664
12643SOL     OW49653   0.157   5.843   8.490  0.0980 -0.2449 -0.3162
12643SOL    HW149654   0.075   5.892   8.483  1.1866  1.4830 -1.9561
12643SOL    HW249655   0.155   5.806   8.578 -2.2514  0.0658 -0.1742
12644SOL     OW49656   6.251   1.390   5.754  1.1494  0.5329  0.6110
12644SOL    HW149657   6.205   1.314   5.721 -0.4869  2.7415 -2.7636
12644SOL    HW249658   6.302   1.358   5.829  1.4441 -4.0132 -1.2674
12645SOL     OW49659   5.098  11.179   6.908  0.1582  0.3050 -0.6804
12645SOL    HW149660   5.028  11.128   6.866  1.6612 -2.3499 -0.1925
12645SOL    HW249661   5.110  11.138   6.994  0.6351  2.3346  0.2810
12646SOL     OW49662   9.705   3.493   1.252 -0.0186 -0.4734 -0.1487
12646SOL    HW149663   9.748   3.492   1.338 -0.6604  1.6844  0.2407
12646SOL    HW249664   9.645   3.418   1.255  1.3046 -1.5536  0.5336
12647SOL     OW49665   1.350   7.528   1.733  0.1211 -0.2738  0.0008
12647SOL    HW149666   1.369   7.601   1.675  1.5158 -0.7798 -0.2078
12647SOL    HW249667   1.308   7.569   1.809  1.1884  0.8050  0.0474
12648SOL     OW49668   1.268   3.679   6.340 -0.2684 -0.1660  0.5695
12648SOL    HW149669   1.297   3.718   6.422 -1.7057  4.2626 -0.7253
12648SOL    HW249670   1.349   3.660   6.293  0.6005  1.3302  1.3767
12649SOL     OW49671   7.860   2.623   3.576 -0.0801 -0.2203 -0.3789
12649SOL    HW149672   7.930   2.670   3.531 -0.5263  1.3550  0.4975
12649SOL    HW249673   7.850   2.669   3.659 -1.8277 -0.7036 -0.2893
12650SOL     OW49674   6.159   0.011   6.685  0.1307 -0.1956  0.3692
12650SOL    HW149675   6.151   0.009   6.780 -1.0679  1.7717  0.3452
12650SOL    HW249676   6.211   0.089   6.667  0.2854 -0.5093 -0.6087
12651SOL     OW49677  12.822   9.925   4.995 -0.8313  0.3956  0.3038
12651SOL    HW149678  12.890   9.885   5.049 -0.4845  2.2807  1.3348
12651SOL    HW249679  12.746   9.933   5.053 -1.8894 -1.3613 -0.7362
12652SOL     OW49680   9.589   2.833   5.920 -0.4275 -0.0087  0.6359
12652SOL    HW149681   9.611   2.925   5.911 -1.4495  0.0717 -1.7213
12652SOL    HW249682   9.672   2.787   5.908 -0.2382  0.5475 -0.2397
12653SOL     OW49683  11.293   2.524   3.876 -0.0018  0.4944  0.0953
12653SOL    HW149684  11.271   2.612   3.907 -2.4747 -0.2755  0.7467
12653SOL    HW249685  11.231   2.467   3.920  1.7768 -1.6617 -0.0356
12654SOL     OW49686   5.389   9.042   9.733  0.0534  0.3638  0.5854
12654SOL    HW149687   5.413   8.978   9.801  1.4655 -1.4335 -1.4720
12654SOL    HW249688   5.462   9.103   9.731 -0.5127  1.0932  1.3978
12655SOL     OW49689   9.548   0.190  12.692 -0.0973  0.9179  0.2684
12655SOL    HW149690   9.630   0.145  12.711 -0.4581 -0.2567 -0.8279
12655SOL    HW249691   9.574   0.278  12.666  0.8093  0.5619 -0.0615
12656SOL     OW49692   2.326   9.461  12.968 -0.2699 -0.7405  0.5942
12656SOL    HW149693   2.369   9.392  13.019  0.0965 -0.7652  0.2587
12656SOL    HW249694   2.234   9.436  12.967 -0.2518 -0.8331  1.0964
12657SOL     OW49695   3.703   4.387   9.817 -0.1112  0.4904  0.2143
12657SOL    HW149696   3.721   4.396   9.911 -1.9164 -0.3434  0.6842
12657SOL    HW249697   3.719   4.475   9.782  1.4708  0.6015  1.1063
12658SOL     OW49698   1.268   5.863   6.273 -0.5993  0.0706 -0.2471
12658SOL    HW149699   1.207   5.792   6.292  0.1856 -0.8266 -0.9641
12658SOL    HW249700   1.221   5.921   6.214 -0.8764 -0.4451 -0.5382
12659SOL     OW49701  11.005   7.993  12.655 -0.4645 -0.0096  0.1895
12659SOL    HW149702  11.008   8.070  12.712 -0.8247 -0.8665  1.4149
12659SOL    HW249703  10.918   7.955  12.671 -0.6136 -0.2279 -1.0184
12660SOL     OW49704   6.546   2.410   1.805  0.3249  0.0811 -0.1953
12660SOL    HW149705   6.611   2.342   1.787 -0.5483 -1.2010  1.2467
12660SOL    HW249706   6.550   2.421   1.900 -0.9009  0.6549 -0.1960
12661SOL     OW49707   9.999  10.280   3.620  0.6416 -0.0972  0.1665
12661SOL    HW149708  10.019  10.198   3.665  0.7444  1.0757  2.3995
12661SOL    HW249709  10.068  10.289   3.554  0.1606 -2.1699 -0.6914
12662SOL     OW49710  10.486  12.670   9.285 -0.2183  0.4847  0.8615
12662SOL    HW149711  10.409  12.716   9.252  0.2872 -0.0186 -1.1935
12662SOL    HW249712  10.560  12.721   9.253  0.3665 -1.7464 -1.6952
12663SOL     OW49713   5.334   6.000   1.078 -0.0583 -0.3142 -0.0445
12663SOL    HW149714   5.337   6.082   1.028  0.2877 -0.5770 -0.4701
12663SOL    HW249715   5.279   6.020   1.154 -1.4052 -0.1636 -1.0150
12664SOL     OW49716   1.561   0.252   4.239 -0.4677 -0.4154  0.1549
12664SOL    HW149717   1.581   0.276   4.330 -0.6000 -0.2958  0.1525
12664SOL    HW249718   1.608   0.317   4.186 -1.1728  0.1125  0.1549
12665SOL     OW49719   4.222   7.546   6.764  0.3331  0.4168  0.1220
12665SOL    HW149720   4.252   7.634   6.789 -0.4739  0.8657 -0.4310
12665SOL    HW249721   4.245   7.538   6.672 -1.3468  0.8514 -0.3706
12666SOL     OW49722  11.135  12.992   7.517 -0.3148  0.1602 -0.3027
12666SOL    HW149723  11.125  13.000   7.423 -0.9714 -1.1046 -0.3620
12666SOL    HW249724  11.093  12.908   7.539 -0.7548  0.7327  1.1901
12667SOL     OW49725   8.391   0.693   2.156  0.2782 -0.3071  0.0456
12667SOL    HW149726   8.470   0.654   2.120  2.0753  3.9753 -1.3538
12667SOL    HW249727   8.403   0.688   2.251  1.4807 -1.1269 -0.1259
12668SOL     OW49728   1.276  12.435   0.798 -0.6864 -0.0635 -0.1413
12668SOL    HW149729   1.222  12.398   0.869 -2.2231  0.2502 -1.1082
12668SOL    HW249730   1.365  12.437   0.835 -1.6659  1.6843  2.4426
12669SOL     OW49731   1.849   1.337   9.260 -0.5621 -0.1894 -0.6378
12669SOL    HW149732   1.801   1.255   9.276 -0.0120 -0.4181 -0.1053
12669SOL    HW249733   1.913   1.341   9.331  0.8995 -0.4076 -1.9036
12670SOL     OW49734   5.180   0.378   9.845 -0.4666 -0.2586  0.4391
12670SOL    HW149735   5.275   0.387   9.837 -0.3796 -0.6811  0.9866
12670SOL    HW249736   5.155   0.447   9.906 -0.5013 -0.2200  0.3816
12671SOL     OW49737   5.877   3.040   4.843 -0.0092 -0.0745  0.3954
12671SOL    HW149738   5.845   3.049   4.933 -0.6571  0.0085  0.1608
12671SOL    HW249739   5.807   2.993   4.797  0.9063 -1.3427  0.2532
12672SOL     OW49740   8.073   3.820   0.987  0.0835 -0.1283 -0.2736
12672SOL    HW149741   8.073   3.725   0.971  1.1577 -0.1767 -0.0598
12672SOL    HW249742   8.160   3.849   0.960  0.0088  0.6863  0.3149
12673SOL     OW49743   1.198   2.867   3.636  0.1910  0.1968  0.4614
12673SOL    HW149744   1.201   2.814   3.556 -0.1136 -0.2240  0.7183
12673SOL    HW249745   1.283   2.852   3.678  0.3078  0.3299  0.2727
12674SOL     OW49746  13.727   2.270   5.489  0.3093  0.2262 -0.4331
12674SOL    HW149747  13.670   2.211   5.540  1.2619  0.0060  0.3958
12674SOL    HW249748  13.702   2.358   5.518 -0.4950  0.2092 -1.0221
12675SOL     OW49749   3.025   4.387  10.465 -0.4144  0.0497  0.0873
12675SOL    HW149750   2.981   4.464  10.429 -1.2389 -0.3710  0.1653
12675SOL    HW249751   2.998   4.385  10.557  3.0748  2.1375  1.3465
12676SOL     OW49752   4.495  10.644   0.049  0.1299  0.3895 -0.0335
12676SOL    HW149753   4.485  10.714  -0.016  0.6993  1.2839  0.8231
12676SOL    HW249754   4.453  10.568   0.008 -3.2352  1.9278  0.2011
12677SOL     OW49755   5.051  13.358   1.979  0.1599 -0.6774  0.1292
12677SOL    HW149756   5.021  13.397   1.898 -0.4285  0.1123  0.7089
12677SOL    HW249757   5.011  13.271   1.980  0.4223 -0.8095 -0.5586
12678SOL     OW49758   6.665   2.760   3.748 -0.4881  0.2719  0.7229
12678SOL    HW149759   6.747   2.737   3.792 -1.0156 -0.4366  1.3446
12678SOL    HW249760   6.681   2.848   3.713  1.1270 -0.4885 -0.6125
12679SOL     OW49761   9.603   8.337   3.050 -0.3741 -0.6693  0.2936
12679SOL    HW149762   9.622   8.431   3.054  1.1854 -0.9502 -0.1764
12679SOL    HW249763   9.682   8.297   3.014 -1.1597 -2.1310  0.1092
12680SOL     OW49764  12.539   1.815   9.656  0.2526 -0.5400 -0.4071
12680SOL    HW149765  12.555   1.721   9.663  0.5599 -0.4628 -0.0205
12680SOL    HW249766  12.548   1.833   9.562  0.0507 -0.9166 -0.5027
12681SOL     OW49767   0.056   7.786   6.730  0.4917  0.1954  0.1256
12681SOL    HW149768   0.122   7.766   6.797  0.9381 -0.1062 -0.3923
12681SOL    HW249769   0.059   7.711   6.670 -1.3281 -0.5029  0.8474
12682SOL     OW49770   9.703  10.987   8.701 -0.4172 -0.8105  0.4231
12682SOL    HW149771   9.794  11.008   8.720 -0.6782  1.4726 -0.5713
12682SOL    HW249772   9.705  10.945   8.615 -0.2885 -1.0320  0.5340
12683SOL     OW49773   1.400   2.527   3.380  0.3265  0.0959  0.1090
12683SOL    HW149774   1.471   2.590   3.365 -0.0865  0.0930 -2.1681
12683SOL    HW249775   1.425   2.451   3.328 -2.0216  0.6622 -2.0168
12684SOL     OW49776   1.840   1.278   8.470  0.5289 -0.0623  0.2213
12684SOL    HW149777   1.766   1.299   8.526  1.5749  1.2196  1.1987
12684SOL    HW249778   1.904   1.347   8.488  1.9188 -1.0655 -0.6465
12685SOL     OW49779   4.140  11.408   7.713 -0.0556 -0.4691 -0.6152
12685SOL    HW149780   4.132  11.476   7.779  1.7255 -1.0042  0.2050
12685SOL    HW249781   4.116  11.451   7.631 -1.7063  0.3649  0.2658
12686SOL     OW49782   6.116  11.255   9.706  0.4297  0.9940  0.5030
12686SOL    HW149783   6.196  11.253   9.654 -0.5973  1.0490 -1.1528
12686SOL    HW249784   6.069  11.176   9.679 -0.2161  1.1264  1.2176
12687SOL     OW49785  13.640   4.323   3.429  0.0701  0.1981 -0.1132
12687SOL    HW149786  13.710   4.385   3.410 -0.7418  0.7645 -1.3318
12687SOL    HW249787  13.559   4.371   3.411 -0.7333  0.0181  2.5733
12688SOL     OW49788   8.523   2.621  13.030  0.1081 -0.4719  0.2229
12688SOL    HW149789   8.589   2.566  12.989 -0.7981 -1.5580  0.1660
12688SOL    HW249790   8.499   2.575  13.110 -0.2188  0.1599  0.4951
12689SOL     OW49791   8.645   9.424   2.740  0.4961 -0.6810 -0.1509
12689SOL    HW149792   8.703   9.479   2.687  0.2857  1.5528  1.8134
12689SOL    HW249793   8.569   9.408   2.683  1.2127 -0.2039 -1.2836
12690SOL     OW49794   9.902   4.070   3.313  0.2118  0.0031 -0.2478
12690SOL    HW149795   9.952   3.997   3.351 -1.1806 -1.4581 -1.0890
12690SOL    HW249796   9.911   4.141   3.377 -0.2483 -1.6358  1.7430
12691SOL     OW49797  11.049  12.245  12.625  0.3371  0.2992 -0.2830
12691SOL    HW149798  11.143  12.244  12.640  0.5113  3.0586 -0.6927
12691SOL    HW249799  11.014  12.184  12.690  2.3730 -0.7288 -0.0752
12692SOL     OW49800   6.823   7.347  12.852 -0.2014  0.8715 -0.4135
12692SOL    HW149801   6.880   7.292  12.799  0.4453  1.8232 -0.7218
12692SOL    HW249802   6.872   7.364  12.932 -0.3615  1.0805 -0.3576
12693SOL     OW49803   7.333  12.873  11.163 -0.2043  0.4561 -0.0050
12693SOL    HW149804   7.389  12.950  11.168  0.1061  0.5447 -3.0106
12693SOL    HW249805   7.394  12.800  11.154 -0.5433  0.2348 -0.5144
12694SOL     OW49806   5.956   1.472  11.186  0.0109 -0.4913 -0.5328
12694SOL    HW149807   5.904   1.548  11.162  1.4768  0.6521 -0.2494
12694SOL    HW249808   5.961   1.476  11.282  0.3296 -0.7636 -0.5348
12695SOL     OW49809   0.991  10.226  11.461 -0.1809  0.1887 -0.8974
12695SOL    HW149810   1.048  10.224  11.538  0.3295  0.7936 -1.2542
12695SOL    HW249811   0.923  10.290  11.482 -1.5052 -1.4255  0.0404
12696SOL     OW49812   7.955   4.936  13.667 -0.8851  0.6007  0.1595
12696SOL    HW149813   8.006   4.876  13.721  0.7975  1.6707 -0.1668
12696SOL    HW249814   7.920   4.880  13.597  1.1002  0.0426 -0.4554
12697SOL     OW49815   1.183   5.402   6.305  0.2082 -0.3866 -0.5049
12697SOL    HW149816   1.248   5.385   6.237  0.3965  1.6746 -0.9028
12697SOL    HW249817   1.156   5.315   6.334  0.9013 -1.3177 -2.4544
12698SOL     OW49818   9.733   2.986   8.330  0.4427 -0.2473 -0.2204
12698SOL    HW149819   9.741   3.012   8.238 -0.4873  0.6985 -0.0462
12698SOL    HW249820   9.800   3.038   8.375  3.2191 -3.0675 -0.7396
12699SOL     OW49821   4.609  11.678  10.346  0.1032  0.2637 -0.4260
12699SOL    HW149822   4.638  11.650  10.259 -0.4581 -0.2823 -0.4443
12699SOL    HW249823   4.556  11.605  10.378 -1.0977  1.1508 -0.3188
12700SOL     OW49824   4.382   6.865   7.862 -0.1953  0.0094 -0.4691
12700SOL    HW149825   4.324   6.917   7.918 -0.1686  0.6750 -1.0466
12700SOL    HW249826   4.425   6.929   7.806 -0.5130 -0.6719 -1.5173
12701SOL     OW49827   5.814   8.703  13.073  0.4325 -0.4040 -0.2545
12701SOL    HW149828   5.790   8.780  13.124  0.8446  0.1281 -0.8446
12701SOL    HW249829   5.762   8.709  12.993 -0.2520 -1.2616  0.1165
12702SOL     OW49830   5.541   4.608   6.301 -0.1917  0.0028  0.3644
12702SOL    HW149831   5.602   4.666   6.346 -0.0915 -0.1313  0.4026
12702SOL    HW249832   5.519   4.540   6.365  1.4453 -1.2996 -0.3668
12703SOL     OW49833   2.764   6.981   3.380 -0.4350 -0.5388  0.2694
12703SOL    HW149834   2.851   7.020   3.377  0.1704 -1.8777 -0.3716
12703SOL    HW249835   2.724   7.017   3.459  1.1190 -0.7880  1.1969
12704SOL     OW49836   0.861  13.239   9.477  0.2556 -0.1387  0.3114
12704SOL    HW149837   0.805  13.251   9.400  0.4228  0.7796  0.3265
12704SOL    HW249838   0.879  13.328   9.508 -0.4484 -0.5137  1.8854
12705SOL     OW49839   1.821   7.113   1.827  0.3776  0.4614  0.4118
12705SOL    HW149840   1.850   7.060   1.901 -0.4353 -1.5398 -0.6149
12705SOL    HW249841   1.829   7.055   1.751 -2.9152  0.8818 -0.4363
12706SOL     OW49842  12.766   5.620  13.099 -0.1796  0.0116 -0.5070
12706SOL    HW149843  12.705   5.648  13.030  0.0482  0.4308 -0.5375
12706SOL    HW249844  12.827   5.561  13.055  0.4267  0.8721 -0.8324
12707SOL     OW49845   4.237   2.493  13.481 -0.0776  0.0235 -0.5558
12707SOL    HW149846   4.258   2.586  13.478  0.6065 -0.0453  1.1741
12707SOL    HW249847   4.253   2.468  13.572 -1.6059 -1.4691 -0.6537
12708SOL     OW49848  13.161   5.086   1.472  0.6428  0.0066  0.0942
12708SOL    HW149849  13.108   5.011   1.446  0.6460  0.2228 -0.5687
12708SOL    HW249850  13.187   5.127   1.389  2.1003 -0.2651  0.3803
12709SOL     OW49851   0.590  10.696  11.150 -0.3347  0.0361  0.3327
12709SOL    HW149852   0.592  10.658  11.238 -1.6224  1.5502  1.0538
12709SOL    HW249853   0.573  10.622  11.092 -1.3505 -0.7194  1.5523
12710SOL     OW49854   6.462   5.406   3.498 -0.2137  0.0233 -0.1640
12710SOL    HW149855   6.533   5.348   3.525  0.7133  0.9669 -0.4712
12710SOL    HW249856   6.493   5.494   3.521 -2.1323  0.3479  1.5377
12711SOL     OW49857  12.129  11.410   1.759 -0.0601  0.1513 -0.2025
12711SOL    HW149858  12.148  11.322   1.726 -0.1116  0.1341 -0.1848
12711SOL    HW249859  12.100  11.396   1.849  0.5166  0.2347  0.0030
12712SOL     OW49860   5.147   4.391   9.719  0.3168 -0.1590  0.7737
12712SOL    HW149861   5.125   4.387   9.812  0.7636 -1.4727  0.8340
12712SOL    HW249862   5.123   4.305   9.684 -1.0231  0.7027 -0.6122
12713SOL     OW49863   4.582   2.142   9.040 -0.0230  0.1320 -0.1475
12713SOL    HW149864   4.620   2.228   9.056 -1.3205  1.1620 -2.2399
12713SOL    HW249865   4.602   2.123   8.949 -2.8120 -0.1079 -0.8039
12714SOL     OW49866   7.795   9.591   0.155  0.0768 -0.2565 -0.3807
12714SOL    HW149867   7.731   9.656   0.126 -1.7685 -2.0297 -0.5394
12714SOL    HW249868   7.867   9.599   0.093  0.2363  2.0494  0.0190
12715SOL     OW49869   8.708  10.206  13.715 -0.6379  0.7468  0.0067
12715SOL    HW149870   8.649  10.208  13.639 -1.9280  0.4048  0.9650
12715SOL    HW249871   8.696  10.291  13.756 -0.3131  0.7435  0.1071
12716SOL     OW49872   2.612  13.140   7.494  0.1828 -0.5392 -0.8158
12716SOL    HW149873   2.563  13.144   7.577 -0.6511 -0.8730 -1.2846
12716SOL    HW249874   2.609  13.048   7.469  1.7956 -0.7207 -0.4271
12717SOL     OW49875  10.790  12.356   8.468 -0.5083 -0.0212 -0.4831
12717SOL    HW149876  10.822  12.382   8.555 -2.2639  1.4668 -0.2204
12717SOL    HW249877  10.869  12.349   8.415  0.6077 -0.8594  1.1820
12718SOL     OW49878   5.478   2.097  11.313 -0.2606  0.0847  0.2461
12718SOL    HW149879   5.495   2.013  11.270 -1.3166  0.1227 -0.2610
12718SOL    HW249880   5.544   2.155  11.276 -1.0019  0.0605 -1.1898
12719SOL     OW49881   8.676   0.371  11.944  0.5680 -0.3786 -0.1286
12719SOL    HW149882   8.674   0.396  11.851 -0.0399 -1.9519 -0.5689
12719SOL    HW249883   8.584   0.354  11.966  0.4945  1.4094  1.2118
12720SOL     OW49884   8.627   1.744  13.151 -0.0112 -0.3081 -0.1073
12720SOL    HW149885   8.594   1.831  13.129  0.3297 -0.3353 -0.7593
12720SOL    HW249886   8.586   1.686  13.087  0.8040 -0.4291 -0.5389
12721SOL     OW49887  12.076   7.716  13.519 -0.0883  0.4377 -0.2335
12721SOL    HW149888  12.170   7.699  13.526 -0.2083 -0.0446  0.2459
12721SOL    HW249889  12.053   7.685  13.431  0.3656  1.3934 -0.7044
12722SOL     OW49890   1.037   4.261   3.593 -0.6856  0.5577 -0.4385
12722SOL    HW149891   1.011   4.192   3.655 -1.2374  1.6948  0.6400
12722SOL    HW249892   1.131   4.247   3.580 -0.4138  0.6593  1.1738
12723SOL     OW49893   9.113  10.656   9.419  0.0832  0.4404 -0.2221
12723SOL    HW149894   9.169  10.580   9.408  0.3796  0.8156 -1.5115
12723SOL    HW249895   9.142  10.696   9.501  1.7772  0.6900 -0.9153
12724SOL     OW49896   8.938  10.434   5.984 -0.2096  0.0836  0.2521
12724SOL    HW149897   8.862  10.379   5.966 -1.0153  1.0028  0.7562
12724SOL    HW249898   8.904  10.523   5.985  0.7292  0.4533  1.2844
12725SOL     OW49899  13.578  13.160   9.893 -0.1997  0.0544 -0.1755
12725SOL    HW149900  13.557  13.068   9.875  2.5148 -0.6422 -0.1763
12725SOL    HW249901  13.585  13.165   9.988  0.5259  0.0537 -0.2295
12726SOL     OW49902   4.681  13.412  10.691  0.4524 -0.0008 -0.3903
12726SOL    HW149903   4.763  13.377  10.656  0.1325 -0.5241 -0.6165
12726SOL    HW249904   4.630  13.436  10.613 -0.1303 -0.8719 -0.2844
12727SOL     OW49905  11.468  11.281  13.710 -0.3961 -0.2788  0.2252
12727SOL    HW149906  11.407  11.286  13.637  0.6792  0.1157 -0.6785
12727SOL    HW249907  11.522  11.204  13.691  1.1562  0.9307 -0.4531
12728SOL     OW49908  13.375  10.835   2.416 -0.1606 -0.1006  0.0600
12728SOL    HW149909  13.334  10.799   2.495  0.7453 -0.9638  0.1506
12728SOL    HW249910  13.354  10.929   2.419  0.3088 -0.0134  1.6151
12729SOL     OW49911   6.288   4.643  12.795  0.5801 -0.3619  0.2563
12729SOL    HW149912   6.296   4.582  12.869  0.8114  0.0673  0.5875
12729SOL    HW249913   6.376   4.681  12.785  0.5496 -0.4122 -0.2376
12730SOL     OW49914  10.714   5.629   5.080 -0.7013  0.3694  0.0470
12730SOL    HW149915  10.713   5.576   5.001 -2.6567 -1.8342  1.4128
12730SOL    HW249916  10.803   5.620   5.114 -0.8552 -1.7339 -0.0125
12731SOL     OW49917   3.583   2.501   5.459 -0.4920 -0.5968 -0.0642
12731SOL    HW149918   3.671   2.497   5.495 -0.6297  0.6479  0.4673
12731SOL    HW249919   3.573   2.592   5.430 -1.1742 -1.0254 -1.2413
12732SOL     OW49920   6.868   3.979   5.713 -0.8329 -0.4388  0.2855
12732SOL    HW149921   6.856   3.890   5.681  0.4576 -1.1003  1.5291
12732SOL    HW249922   6.854   4.034   5.636 -1.2921 -1.7271 -0.5899
12733SOL     OW49923   3.691  10.645   8.516  0.3035  0.5355  0.1624
12733SOL    HW149924   3.738  10.611   8.440  0.2188  0.3565  0.1889
12733SOL    HW249925   3.692  10.573   8.579  2.7615  1.5478  1.4223
12734SOL     OW49926   1.017   0.651   3.571  0.3738 -0.1964 -0.2974
12734SOL    HW149927   1.064   0.733   3.585  0.0826 -0.2490  1.0590
12734SOL    HW249928   1.067   0.586   3.619  0.0191 -0.6244 -0.5037
12735SOL     OW49929  12.210   9.142  13.665 -0.2256 -0.4801 -0.5454
12735SOL    HW149930  12.269   9.209  13.630  1.0872  0.1261  2.4964
12735SOL    HW249931  12.261   9.061  13.661 -1.1713 -1.0386 -2.5991
12736SOL     OW49932   8.536   0.251   8.297  0.6372 -0.0337  0.4614
12736SOL    HW149933   8.529   0.217   8.387 -0.8014 -0.7984  0.0930
12736SOL    HW249934   8.487   0.334   8.299 -0.1945 -0.5091  0.1807
12737SOL     OW49935   4.652   7.732  10.545  0.4481 -0.2584  0.1318
12737SOL    HW149936   4.680   7.644  10.571 -1.4976 -0.2559  2.6726
12737SOL    HW249937   4.573   7.717  10.493 -0.4408 -0.0539  1.3742
12738SOL     OW49938   6.175   5.206   7.669 -0.2139  0.8688 -0.2160
12738SOL    HW149939   6.086   5.209   7.633 -0.2019  0.1895 -0.3091
12738SOL    HW249940   6.229   5.251   7.604 -0.5109  1.4257 -0.0843
12739SOL     OW49941   6.520   1.613   6.754 -0.1137 -0.2447 -0.5285
12739SOL    HW149942   6.442   1.624   6.808  0.4906 -1.1385  0.5608
12739SOL    HW249943   6.529   1.696   6.707 -1.0682  0.2811  0.1946
12740SOL     OW49944  13.607  10.387  13.656 -0.2579  0.4435 -0.6920
12740SOL    HW149945  13.688  10.434  13.636  0.3442 -0.3500 -0.1678
12740SOL    HW249946  13.632  10.322  13.722 -1.3395  0.2452 -0.4581
12741SOL     OW49947   8.306   7.271   6.719 -0.1097 -0.0691 -0.3097
12741SOL    HW149948   8.253   7.232   6.649 -0.4033 -0.4938  0.1458
12741SOL    HW249949   8.395   7.275   6.683 -0.2970 -0.1033 -0.7773
12742SOL     OW49950  12.555   0.920   4.196 -0.4807 -0.9502 -0.0527
12742SOL    HW149951  12.596   1.004   4.217 -0.7734 -1.2061  1.6539
12742SOL    HW249952  12.611   0.855   4.238 -1.9072 -1.3882  1.2481
12743SOL     OW49953  13.645   6.413   4.056  0.1035  0.1519  0.6801
12743SOL    HW149954  13.671   6.344   3.995  1.3804  0.8270  0.4335
12743SOL    HW249955  13.629   6.489   4.001  3.2721  1.3610  1.2629
12744SOL     OW49956   5.031  10.858   8.897  0.3361 -0.1289 -0.1606
12744SOL    HW149957   4.996  10.939   8.933  1.5568 -0.0067  0.8084
12744SOL    HW249958   5.028  10.870   8.802 -0.5389  0.5835 -0.0525
12745SOL     OW49959   6.291   7.857   5.553  0.1315  0.1209  0.5636
12745SOL    HW149960   6.372   7.865   5.602  0.6526 -0.2718 -0.2211
12745SOL    HW249961   6.281   7.942   5.509  0.0647  0.1978  0.7242
12746SOL     OW49962   8.447  11.813   1.107  0.2198  0.8454  0.5994
12746SOL    HW149963   8.513  11.746   1.124  0.9106  0.7792 -1.8934
12746SOL    HW249964   8.364  11.771   1.131  0.7661 -0.4288  0.3674
12747SOL     OW49965   7.205   9.529   8.621  0.5944 -0.1932  0.2760
12747SOL    HW149966   7.202   9.568   8.709 -1.9127 -1.6814  0.9542
12747SOL    HW249967   7.176   9.599   8.563 -2.4589 -0.4633  1.2998
12748SOL     OW49968   3.065  13.172   4.226 -0.4461  0.1218  0.0544
12748SOL    HW149969   3.143  13.227   4.241  0.5620 -1.0217 -0.7629
12748SOL    HW249970   2.998  13.210   4.282  0.8456  0.8460  1.1749
12749SOL     OW49971   0.168   3.993   7.973  0.3861  0.1037  0.4375
12749SOL    HW149972   0.145   3.911   7.931 -2.0051  1.3864 -0.9450
12749SOL    HW249973   0.211   4.045   7.905  0.2321  0.6656  0.7561
12750SOL     OW49974  11.278  10.464   6.185 -0.0309 -0.1727  1.2077
12750SOL    HW149975  11.244  10.546   6.222 -2.6894 -0.5937 -0.0467
12750SOL    HW249976  11.369  10.484   6.163 -0.0479  1.8328  2.6239
12751SOL     OW49977   9.575  11.086   9.321  0.2005  0.4962  0.0028
12751SOL    HW149978   9.483  11.096   9.344  0.3412 -1.5776  1.7074
12751SOL    HW249979   9.578  11.009   9.265  1.1651 -1.3407  2.4216
12752SOL     OW49980   1.830   4.651   8.061  0.2624 -0.0614 -0.1750
12752SOL    HW149981   1.753   4.624   8.111  0.0910  1.4403  0.4374
12752SOL    HW249982   1.800   4.658   7.971 -0.2559  0.2230  0.0145
12753SOL     OW49983  10.014   9.447   9.189 -0.1327 -0.3316  0.3215
12753SOL    HW149984   9.945   9.408   9.135 -1.9536 -2.8251  4.0353
12753SOL    HW249985  10.084   9.382   9.190  0.3629  0.1938  0.1177
12754SOL     OW49986   5.923   1.462  11.452  0.1831 -0.5484 -0.4397
12754SOL    HW149987   5.933   1.366  11.450 -0.1573 -0.6023  0.1021
12754SOL    HW249988   5.945   1.486  11.542 -0.0505 -0.1561 -0.4888
12755SOL     OW49989   9.187   9.482   4.033  0.0474  0.2175  0.0073
12755SOL    HW149990   9.264   9.432   4.005  0.3782  0.0164  1.2329
12755SOL    HW249991   9.131   9.484   3.955  0.6027 -0.9492 -0.4518
12756SOL     OW49992   3.906   5.832   9.625  0.2231  0.4416  0.0516
12756SOL    HW149993   3.903   5.817   9.530 -0.5770  0.5655  0.0499
12756SOL    HW249994   3.998   5.849   9.643  0.5844 -0.8065 -0.5069
12757SOL     OW49995   3.161  13.571   1.063 -0.5218  0.1094 -0.4022
12757SOL    HW149996   3.195  13.521   1.138  2.7635  0.0598 -1.7460
12757SOL    HW249997   3.100  13.511   1.020 -3.0812  0.3874  2.4529
12758SOL     OW49998   4.132   5.854  11.850 -0.1442 -0.1108 -0.2121
12758SOL    HW149999   4.124   5.823  11.759  1.6469 -0.8563 -0.1576
12758SOL    HW250000   4.141   5.774  11.902  0.9075  0.3743  0.3670
12759SOL     OW50001   3.937  11.037   9.635 -0.0199  0.3315  0.2985
12759SOL    HW150002   3.928  11.059   9.728  0.5666  2.3900 -0.0757
12759SOL    HW250003   3.871  11.090   9.591 -1.4710 -1.8992 -0.3594
12760SOL     OW50004   5.293   9.113   0.429  0.0166  0.3485  0.4195
12760SOL    HW150005   5.238   9.038   0.406  1.8770 -1.1790  0.7720
12760SOL    HW250006   5.309   9.157   0.346 -1.1059  0.3878  0.2072
12761SOL     OW50007   3.704   6.691  11.068  0.4577  0.2014  0.9443
12761SOL    HW150008   3.647   6.615  11.080  1.8538 -1.0666 -0.0432
12761SOL    HW250009   3.740   6.709  11.154 -2.4638  2.0037  1.9614
12762SOL     OW50010   1.970   3.904   4.856 -0.1075 -0.1326 -0.2490
12762SOL    HW150011   1.953   3.990   4.895  1.3884 -0.6344  1.6717
12762SOL    HW250012   1.944   3.841   4.924  0.4158 -1.1334 -0.9566
12763SOL     OW50013   7.358   3.488   0.940  0.3064  0.2711 -0.4346
12763SOL    HW150014   7.376   3.418   1.003  1.7266  0.7904 -0.2512
12763SOL    HW250015   7.276   3.528   0.971  0.1265 -0.5234  0.1329
12764SOL     OW50016   4.931  10.636   8.302 -0.8630  0.1003 -0.5361
12764SOL    HW150017   4.946  10.591   8.219 -0.6954 -1.4663  0.2956
12764SOL    HW250018   4.865  10.703   8.283 -0.3576  0.1935 -2.0453
12765SOL     OW50019   5.763  13.067  13.050 -0.4457 -0.1236  0.1828
12765SOL    HW150020   5.735  13.091  12.962 -1.4955 -3.2488 -0.4773
12765SOL    HW250021   5.703  13.114  13.108 -1.8358 -0.4531 -0.9272
12766SOL     OW50022   1.696   8.860   1.696  0.4607 -0.4482  0.0197
12766SOL    HW150023   1.649   8.791   1.742  0.8047 -0.2136  0.7405
12766SOL    HW250024   1.781   8.822   1.676  0.2468 -0.6137 -0.6043
12767SOL     OW50025   5.178   0.083  12.963  0.0065  0.5800 -0.0248
12767SOL    HW150026   5.150   0.155  13.021 -1.0555  0.3760 -0.2633
12767SOL    HW250027   5.244   0.036  13.014  0.0973  1.2243  0.4705
12768SOL     OW50028   9.873   7.215  13.592 -0.2035  0.6394 -0.2504
12768SOL    HW150029   9.863   7.309  13.574  1.2879  1.4043  2.4091
12768SOL    HW250030   9.947   7.188  13.538  1.4517  1.8375  1.2975
12769SOL     OW50031  12.725   0.553   9.119 -0.0547 -0.2795 -0.2735
12769SOL    HW150032  12.648   0.579   9.169  0.5904  1.3723 -0.0738
12769SOL    HW250033  12.691   0.516   9.038 -1.0487  0.7675 -0.3424
12770SOL     OW50034   0.146   3.325   0.428 -0.1193 -0.0963  0.4064
12770SOL    HW150035   0.171   3.341   0.519 -0.3315 -0.8628  0.6064
12770SOL    HW250036   0.211   3.373   0.376 -0.4479  0.9906  0.9593
12771SOL     OW50037   6.378   2.404  12.679 -0.1839  0.0378  0.3020
12771SOL    HW150038   6.440   2.470  12.710  1.2809 -0.7840 -0.7286
12771SOL    HW250039   6.306   2.407  12.743  0.6983  1.3301  1.3032
12772SOL     OW50040   0.884   8.429   9.139 -0.3107  0.6756 -0.0862
12772SOL    HW150041   0.834   8.371   9.081 -1.3881  1.0652  0.4122
12772SOL    HW250042   0.885   8.383   9.223 -0.0253  0.7717 -0.0386
12773SOL     OW50043  11.324   6.705   7.854 -0.0759 -0.7061 -0.3939
12773SOL    HW150044  11.285   6.661   7.930 -1.2099 -1.3020 -1.2842
12773SOL    HW250045  11.384   6.640   7.818  0.2678 -0.5184 -0.1638
12774SOL     OW50046   5.678   7.762   3.734  0.0270  0.3562 -0.2669
12774SOL    HW150047   5.641   7.780   3.648 -0.0292  3.0622  0.2447
12774SOL    HW250048   5.657   7.670   3.750 -1.1250  0.1547 -2.5676
12775SOL     OW50049  13.378   6.968   5.441  0.0050  0.0139  0.4526
12775SOL    HW150050  13.328   7.039   5.481 -1.3454 -0.9784  0.6286
12775SOL    HW250051  13.434   6.936   5.512  0.1426  0.4735  0.5556
12776SOL     OW50052   5.212   7.245   6.859 -0.7407 -0.2686 -0.1812
12776SOL    HW150053   5.251   7.267   6.775 -0.2413 -1.8167 -0.3896
12776SOL    HW250054   5.274   7.278   6.924 -0.0032 -1.0164 -0.4794
12777SOL     OW50055   1.802  13.642  13.527 -0.0666 -0.6806 -0.2600
12777SOL    HW150056   1.788  13.612  13.437 -0.3843  0.2148 -0.5162
12777SOL    HW250057   1.753  13.579  13.581 -0.3639 -0.8768 -0.7515
12778SOL     OW50058   9.985   3.240   1.702  0.0352 -0.6235 -0.1839
12778SOL    HW150059  10.011   3.279   1.785 -1.0197 -0.2456 -0.0040
12778SOL    HW250060   9.890   3.226   1.711 -0.1033 -0.5365 -1.3300
12779SOL     OW50061   9.374  11.956   8.007 -0.0085  0.1502 -0.1329
12779SOL    HW150062   9.327  11.996   7.934 -1.6288 -1.3868 -0.0032
12779SOL    HW250063   9.397  11.868   7.976 -0.1859 -0.3116  0.9840
12780SOL     OW50064   8.948   7.651  11.471 -0.2309 -0.0681  0.4526
12780SOL    HW150065   9.009   7.724  11.456  0.0802 -0.1348  1.3691
12780SOL    HW250066   8.865   7.694  11.495 -0.1124 -0.0083  0.7591
12781SOL     OW50067   1.336  13.653   4.464  0.0945 -0.5797  0.6146
12781SOL    HW150068   1.323  13.630   4.556 -1.2619 -0.9087  0.3572
12781SOL    HW250069   1.379  13.576   4.426 -0.6990 -1.0507  0.6557
12782SOL     OW50070  12.127   1.763   7.355  0.5071 -0.5997 -0.7883
12782SOL    HW150071  12.132   1.852   7.391 -1.5306 -0.2531 -1.2528
12782SOL    HW250072  12.153   1.706   7.427 -0.4545  0.2537  0.2655
12783SOL     OW50073  10.620   0.001   5.393 -0.1101  0.2713  0.1920
12783SOL    HW150074  10.537   0.006   5.440 -0.5710 -0.4106 -0.5051
12783SOL    HW250075  10.634  -0.093   5.379  0.6616  0.3937  0.1006
12784SOL     OW50076  10.898  12.570   6.934  0.3745  0.6029  0.5412
12784SOL    HW150077  10.872  12.493   6.985 -0.6408  0.5607 -0.0051
12784SOL    HW250078  10.823  12.629   6.940 -0.0253  0.3609 -1.3457
12785SOL     OW50079   4.790  11.294  11.650  0.5251  0.1910  1.1382
12785SOL    HW150080   4.803  11.254  11.737  1.0560 -0.9204  0.5780
12785SOL    HW250081   4.734  11.231  11.604  1.8745 -0.2447  0.0265
12786SOL     OW50082   8.766   1.078   1.278  0.1615 -0.0705 -0.2554
12786SOL    HW150083   8.678   1.082   1.241 -0.2366 -2.0503  0.3509
12786SOL    HW250084   8.759   1.122   1.362  0.3073  1.6521 -1.1027
12787SOL     OW50085  12.408   3.674   4.436 -0.5925  0.1923  0.1863
12787SOL    HW150086  12.492   3.658   4.393  0.8984  3.1953  1.7177
12787SOL    HW250087  12.353   3.711   4.366 -1.2236 -2.9753 -1.1554
12788SOL     OW50088  12.167   4.526   0.724  0.7306 -0.0677 -0.0347
12788SOL    HW150089  12.185   4.618   0.707  0.4480  0.0592  0.3573
12788SOL    HW250090  12.072   4.517   0.713  0.4544  0.1166  1.8945
12789SOL     OW50091  12.588   8.716   7.712 -0.1387 -0.5373  0.1625
12789SOL    HW150092  12.555   8.715   7.622 -1.8767  0.9573  0.7195
12789SOL    HW250093  12.509   8.713   7.766  0.8552 -0.8971  1.6399
12790SOL     OW50094   1.574  12.573   9.748 -0.7268 -0.1830  0.1100
12790SOL    HW150095   1.636  12.618   9.691 -0.6747 -1.6069 -0.9986
12790SOL    HW250096   1.629  12.528   9.812 -0.8053  2.2081  2.0154
12791SOL     OW50097   6.435   3.443  10.090 -0.5671  0.2513 -0.0798
12791SOL    HW150098   6.434   3.399  10.175  0.6218  0.9107  0.2990
12791SOL    HW250099   6.342   3.457  10.068 -0.9758 -2.1128 -0.0734
12792SOL     OW50100   0.732   2.891   6.331 -0.3665 -0.5588 -0.0040
12792SOL    HW150101   0.668   2.946   6.286 -0.2774  0.3272  0.9149
12792SOL    HW250102   0.786   2.855   6.261  0.4368  1.6068 -0.5672
12793SOL     OW50103   8.524   5.219   6.852  0.2140  0.2758  0.7040
12793SOL    HW150104   8.616   5.227   6.827  0.1506  0.8292  0.6247
12793SOL    HW250105   8.524   5.226   6.947  0.2944 -0.1661  0.7376
12794SOL     OW50106   3.381  12.358   2.295 -0.0138 -0.1197 -0.3154
12794SOL    HW150107   3.437  12.418   2.246  0.6347 -1.5829 -1.4380
12794SOL    HW250108   3.424  12.273   2.286 -0.3414 -0.6032  2.0992
12795SOL     OW50109  11.202   5.148   2.517  0.1962 -0.1776 -0.1962
12795SOL    HW150110  11.139   5.207   2.559  0.0513 -0.1037 -0.5147
12795SOL    HW250111  11.211   5.075   2.579 -0.6891 -0.5065 -0.4307
12796SOL     OW50112   2.098   9.163   5.805  0.4379  0.0166 -0.1082
12796SOL    HW150113   2.066   9.122   5.886  1.2131  0.5518  0.4750
12796SOL    HW250114   2.167   9.105   5.775  2.3930  1.4466  1.3782
12797SOL     OW50115  11.182   8.106   2.951  0.1257  0.1312 -0.2711
12797SOL    HW150116  11.257   8.124   2.894 -0.0309  4.5516  0.5528
12797SOL    HW250117  11.221   8.083   3.036  0.5264  0.5404 -0.3431
12798SOL     OW50118   8.032   1.073   5.439  0.2351 -0.3442  0.1049
12798SOL    HW150119   8.068   1.158   5.464  0.8096 -1.1598  2.3146
12798SOL    HW250120   8.053   1.064   5.346  1.6184  1.2401  0.2209
12799SOL     OW50121   8.745   9.413   5.341  0.2599  0.4197 -0.0750
12799SOL    HW150122   8.654   9.428   5.318  0.1630  1.2460  0.7718
12799SOL    HW250123   8.795   9.470   5.282  0.1812  0.4649 -0.0981
12800SOL     OW50124   2.463  11.676   0.830  0.1136 -0.0417 -0.4292
12800SOL    HW150125   2.522  11.645   0.761  1.0508 -0.7132  0.6371
12800SOL    HW250126   2.416  11.598   0.858  0.8910 -0.1156  0.7577
12801SOL     OW50127   5.612   3.082  11.830 -0.0840 -0.2506 -0.2366
12801SOL    HW150128   5.540   3.084  11.893  0.0974 -0.3974 -0.0215
12801SOL    HW250129   5.572   3.049  11.749 -0.2125 -0.5645 -0.0503
12802SOL     OW50130   9.734   4.961   9.450  0.1495 -0.0650  0.2042
12802SOL    HW150131   9.684   5.023   9.397 -0.2932 -0.7013 -0.1328
12802SOL    HW250132   9.678   4.944   9.526 -0.0954 -0.6973 -0.1205
12803SOL     OW50133   9.542   7.757   7.706  0.3898 -0.0775  0.2498
12803SOL    HW150134   9.629   7.732   7.738 -0.3950 -1.5405  1.3688
12803SOL    HW250135   9.524   7.840   7.749  1.6236  0.7699 -0.7891
12804SOL     OW50136  11.639   2.506   9.710  0.1729 -0.7430 -0.2520
12804SOL    HW150137  11.578   2.544   9.647 -0.9725 -1.4637  0.3915
12804SOL    HW250138  11.615   2.414   9.715 -0.9582 -0.3919  2.5372
12805SOL     OW50139   1.755   8.016   6.421 -0.0166 -0.5605  0.0798
12805SOL    HW150140   1.677   8.019   6.365  0.5361  0.7505 -0.6755
12805SOL    HW250141   1.824   7.980   6.364  0.3726  0.0884  0.1271
12806SOL     OW50142   9.350  11.790   6.507  0.5546  0.0918 -0.1700
12806SOL    HW150143   9.305  11.830   6.433 -0.6108  0.9057  0.9497
12806SOL    HW250144   9.380  11.706   6.473 -0.1733  0.3308 -1.4921
12807SOL     OW50145   2.795   2.629   4.773 -0.3634  0.7740 -0.4407
12807SOL    HW150146   2.738   2.706   4.766 -0.3421  0.7760 -0.5941
12807SOL    HW250147   2.751   2.561   4.722 -2.4909 -0.6116  2.8692
12808SOL     OW50148  12.603   0.492   8.859 -0.0487  0.1535 -0.5938
12808SOL    HW150149  12.615   0.587   8.851  3.4529 -0.1381 -0.4162
12808SOL    HW250150  12.536   0.471   8.794 -1.2177  2.7552 -0.3674
12809SOL     OW50151  11.586   3.358   2.135  0.1902  0.1009 -0.4716
12809SOL    HW150152  11.624   3.430   2.085  2.1974  0.2737  1.1613
12809SOL    HW250153  11.577   3.392   2.224  1.1155 -1.5808  0.3261
12810SOL     OW50154   9.150   7.655  10.850 -0.3821 -0.0885 -0.0197
12810SOL    HW150155   9.231   7.693  10.815 -0.3364  0.6842  0.8830
12810SOL    HW250156   9.132   7.580  10.793  0.4874  0.2532 -0.7684
12811SOL     OW50157   5.003  12.595   7.977 -0.1669  0.3189 -0.2424
12811SOL    HW150158   4.957  12.531   7.922 -2.1041  1.5546 -0.1773
12811SOL    HW250159   4.969  12.580   8.065  0.9778  0.0648  0.1744
12812SOL     OW50160  10.453  12.225   8.699  0.1267  0.2399  0.0714
12812SOL    HW150161  10.480  12.140   8.665 -1.5316 -0.9181  1.4512
12812SOL    HW250162  10.513  12.242   8.772 -0.7318 -0.7548  1.0582
12813SOL     OW50163   5.980   0.121  12.031  0.1713  0.5917  0.0465
12813SOL    HW150164   5.899   0.098  11.984 -0.7033  2.5478  0.4618
12813SOL    HW250165   5.980   0.065  12.109 -0.7308  0.4665 -0.0332
12814SOL     OW50166   4.595  10.961   7.170 -0.9889 -0.4590 -0.2829
12814SOL    HW150167   4.563  11.014   7.242  0.9981 -0.2872  0.5560
12814SOL    HW250168   4.651  10.895   7.212  0.4745 -0.1525 -1.6515
12815SOL     OW50169   2.738  12.001  11.098  0.2947  0.0919  0.0742
12815SOL    HW150170   2.733  12.046  11.014 -0.9350 -0.2605 -0.0631
12815SOL    HW250171   2.755  12.070  11.162  0.4622  0.4680 -0.3722
12816SOL     OW50172   4.927  11.361   1.606 -0.3104  0.4901  0.2427
12816SOL    HW150173   4.935  11.331   1.516  1.2301  2.7709 -0.4541
12816SOL    HW250174   4.966  11.291   1.659  0.5573 -0.0132 -1.0308
12817SOL     OW50175   5.808   8.769  11.790 -0.4868  0.5135 -0.2683
12817SOL    HW150176   5.880   8.829  11.770 -0.4737  0.2228 -1.1350
12817SOL    HW250177   5.729   8.821  11.776 -0.4950  1.5845  3.0064
12818SOL     OW50178   3.674   9.180  11.935 -0.2864  0.2681 -0.4532
12818SOL    HW150179   3.636   9.111  11.879 -1.9687  0.9680 -0.2275
12818SOL    HW250180   3.645   9.158  12.023 -0.0489  0.7529 -0.2518
12819SOL     OW50181   9.904   4.858   8.129  0.0744 -0.0598  0.3118
12819SOL    HW150182   9.947   4.776   8.105  3.6400  1.3360  1.2904
12819SOL    HW250183   9.875   4.845   8.219  2.6119  0.3460  1.2586
12820SOL     OW50184   6.923  10.255   6.110  0.6111  0.3780  0.0914
12820SOL    HW150185   6.872  10.227   6.035  0.1603  0.4363  0.3749
12820SOL    HW250186   6.874  10.327   6.148  0.4468 -0.1219  0.8742
12821SOL     OW50187   9.304  13.423  10.836  0.0226  0.8432  0.5443
12821SOL    HW150188   9.393  13.429  10.802 -0.2338  0.6853 -0.1688
12821SOL    HW250189   9.305  13.478  10.915  0.3925  1.9617 -0.2150
12822SOL     OW50190   1.233   6.823   3.042  0.3716 -0.0244  0.8368
12822SOL    HW150191   1.197   6.824   2.953  0.3091  0.7645  0.8667
12822SOL    HW250192   1.163   6.857   3.097  0.6694  0.1888  1.0899
12823SOL     OW50193   0.023   1.410   4.127  0.4832 -0.2680 -0.1913
12823SOL    HW150194   0.093   1.436   4.067  0.8530  1.9913  1.1152
12823SOL    HW250195   0.012   1.484   4.185 -2.2087 -1.0307  0.4355
12824SOL     OW50196   7.505   3.088   3.743 -0.6142 -0.0447  0.1828
12824SOL    HW150197   7.444   3.061   3.812 -0.6274  2.0107  1.0600
12824SOL    HW250198   7.535   3.006   3.704 -1.0356 -1.2761  2.2697
12825SOL     OW50199  10.291   3.947   1.027 -0.3294  0.3696 -0.0941
12825SOL    HW150200  10.341   3.866   1.038 -0.8877 -0.1509 -1.1575
12825SOL    HW250201  10.262   3.970   1.115  1.6668  0.6414  0.5363
12826SOL     OW50202   5.804  11.742   0.477  0.3578 -0.2594  0.1488
12826SOL    HW150203   5.784  11.738   0.570 -1.2877 -0.2486 -0.1842
12826SOL    HW250204   5.896  11.769   0.474  0.3167  0.1623  1.7494
12827SOL     OW50205   9.260   8.343   8.488  0.1076 -0.2543 -0.4062
12827SOL    HW150206   9.270   8.257   8.446 -0.5684  0.3923 -1.9691
12827SOL    HW250207   9.317   8.401   8.438  0.0417  0.3557  0.2123
12828SOL     OW50208   1.266   4.910   7.261  0.1992 -0.1442 -0.0032
12828SOL    HW150209   1.316   4.868   7.330 -1.3404 -3.2404 -0.5850
12828SOL    HW250210   1.290   4.864   7.181  0.3493  1.9148 -1.2270
12829SOL     OW50211  11.567   5.854   8.263 -0.3098 -1.5964 -0.4562
12829SOL    HW150212  11.588   5.941   8.299 -1.6457 -1.6380  0.4947
12829SOL    HW250213  11.588   5.862   8.169 -4.1983  1.1945 -1.3688
12830SOL     OW50214  13.368   9.384   0.661 -0.6528 -0.7779 -0.2251
12830SOL    HW150215  13.449   9.404   0.615 -0.0133  2.0722  1.9270
12830SOL    HW250216  13.305   9.450   0.630 -1.6647 -1.8337 -0.5170
12831SOL     OW50217   9.038   8.642   3.098 -0.0644  0.3545  0.2070
12831SOL    HW150218   9.054   8.605   3.011  3.0200  1.8562  0.0225
12831SOL    HW250219   9.035   8.567   3.156  2.4695 -0.4808 -0.6243
12832SOL     OW50220   7.803  12.478   6.110  0.2807  0.3126 -0.0245
12832SOL    HW150221   7.710  12.500   6.119 -0.2846 -1.4028 -1.3280
12832SOL    HW250222   7.831  12.457   6.199 -1.3070 -1.7606  0.0657
12833SOL     OW50223   3.864   3.034  10.100  0.1522 -0.1750 -0.1730
12833SOL    HW150224   3.799   3.049  10.169 -0.5247  2.0563 -1.2165
12833SOL    HW250225   3.933   2.983  10.144 -1.3637 -0.9289  1.4757
12834SOL     OW50226   5.318   5.020  13.430  0.4968  0.7444 -0.6739
12834SOL    HW150227   5.363   5.082  13.371  0.7012  0.2379 -1.0581
12834SOL    HW250228   5.234   5.004  13.387  0.4513  0.7369 -0.5820
12835SOL     OW50229   8.249   7.358   5.316 -0.0653  0.3237 -0.0557
12835SOL    HW150230   8.209   7.360   5.402 -0.3150 -1.4020 -0.0911
12835SOL    HW250231   8.337   7.323   5.331  1.1133  3.0047 -0.1258
12836SOL     OW50232   2.332   4.721  11.504 -0.1962  0.1029 -0.0974
12836SOL    HW150233   2.286   4.728  11.420  0.3235 -1.8215 -0.5899
12836SOL    HW250234   2.317   4.805  11.546  0.2341  1.4642 -2.4749
12837SOL     OW50235   4.544   1.004   3.890 -0.1747 -0.0352 -0.0589
12837SOL    HW150236   4.480   0.933   3.895 -2.2991  1.8205  0.7902
12837SOL    HW250237   4.540   1.033   3.799  0.4631 -0.7556 -0.3283
12838SOL     OW50238   8.008  10.222   2.284 -0.1569  0.1531  0.1878
12838SOL    HW150239   7.996  10.286   2.354  0.7216  1.0565 -0.4684
12838SOL    HW250240   7.987  10.138   2.325  0.3259  0.6582  1.5330
12839SOL     OW50241   0.580   8.703   5.774  0.3603 -0.3376 -0.2872
12839SOL    HW150242   0.554   8.793   5.758  0.7294 -0.1050  0.3976
12839SOL    HW250243   0.539   8.653   5.703 -0.1128  0.3206 -0.4830
12840SOL     OW50244   9.804  12.935   5.810 -0.2011 -0.4677 -0.6188
12840SOL    HW150245   9.851  12.938   5.893  0.8066 -3.9288 -0.8918
12840SOL    HW250246   9.871  12.956   5.744 -1.3372  3.8662 -0.6696
12841SOL     OW50247   9.339   1.254   5.448  0.1827  0.1575 -0.3204
12841SOL    HW150248   9.280   1.179   5.459 -0.3038  0.1929 -2.3338
12841SOL    HW250249   9.297   1.325   5.495  0.0399 -0.5060  0.5956
12842SOL     OW50250  13.008  11.340   8.539  0.1375  0.4313  0.0593
12842SOL    HW150251  12.943  11.409   8.552 -0.1319  0.2205 -0.1504
12842SOL    HW250252  13.087  11.372   8.584 -0.3430  0.3434  0.9978
12843SOL     OW50253   2.477  11.337  11.852 -0.3231  0.5543  0.1286
12843SOL    HW150254   2.544  11.289  11.805 -0.8909 -0.6599  0.5164
12843SOL    HW250255   2.465  11.288  11.934 -3.1942 -0.5873 -0.8345
12844SOL     OW50256   2.074   3.855   9.900 -0.1024  0.0826  0.3602
12844SOL    HW150257   2.005   3.798   9.864  0.2533  0.3354 -0.7739
12844SOL    HW250258   2.093   3.819   9.986 -0.9140 -0.6281  0.2563
12845SOL     OW50259   6.296   0.318  10.360  0.2037  0.2378  0.0994
12845SOL    HW150260   6.380   0.361  10.377  0.2526 -0.0597  0.6410
12845SOL    HW250261   6.243   0.338  10.437 -0.3585  0.7386 -0.4089
12846SOL     OW50262   1.330   9.195   9.448 -0.1683 -0.1952  0.2936
12846SOL    HW150263   1.396   9.126   9.446  2.5744  2.1855  1.0479
12846SOL    HW250264   1.347   9.248   9.370 -1.2010  0.4801  0.5004
12847SOL     OW50265  13.351  11.253   1.285  0.1189  0.8170 -0.0131
12847SOL    HW150266  13.291  11.321   1.255 -1.3417 -0.6567 -0.5195
12847SOL    HW250267  13.311  11.218   1.364  0.8882  0.5569  0.2774
12848SOL     OW50268  13.666  13.637   8.790  0.0952  0.4087  0.3073
12848SOL    HW150269  13.746  13.674   8.752  0.3410 -0.6420 -0.2559
12848SOL    HW250270  13.612  13.713   8.811  1.3804  1.1543  1.0262
12849SOL     OW50271   4.908   5.340   5.702  0.0796  0.2964 -0.2138
12849SOL    HW150272   4.855   5.319   5.625 -0.7144  0.5166  0.2608
12849SOL    HW250273   4.865   5.416   5.741 -0.6110 -0.9056  1.4683
12850SOL     OW50274   1.467  11.483   2.664 -0.0838 -0.4838 -0.6759
12850SOL    HW150275   1.440  11.392   2.676  0.4075 -0.6960 -1.1741
12850SOL    HW250276   1.390  11.526   2.627 -0.5890 -0.5082  0.3175
12851SOL     OW50277   6.429   1.918  11.161 -0.5408  0.3800  0.2480
12851SOL    HW150278   6.498   1.880  11.106 -0.5759  0.3860  0.1984
12851SOL    HW250279   6.467   1.923  11.248 -0.7170 -0.2685  0.3677
12852SOL     OW50280   5.789  13.237  11.975 -0.5409 -0.1993  0.3247
12852SOL    HW150281   5.825  13.159  11.934  1.0532  0.6573  0.0267
12852SOL    HW250282   5.698  13.239  11.946 -0.5561 -1.7951  0.1427
12853SOL     OW50283   4.165  13.054   1.360  0.2908  0.2479 -0.0037
12853SOL    HW150284   4.220  13.051   1.282  1.4105 -0.3735  0.7859
12853SOL    HW250285   4.111  13.132   1.349  1.4222  0.9445 -0.7358
12854SOL     OW50286   0.718   5.526   7.946  0.5412 -0.9606  0.0081
12854SOL    HW150287   0.722   5.445   7.894  0.2021  0.6822 -2.7805
12854SOL    HW250288   0.626   5.534   7.971  0.3491 -0.9261 -0.6699
12855SOL     OW50289  10.892   7.123  13.460 -0.3142  0.0578  0.6977
12855SOL    HW150290  10.934   7.050  13.415  0.1917  0.1267  1.0556
12855SOL    HW250291  10.824   7.152  13.399 -0.2636 -0.4575  0.3866
12856SOL     OW50292   5.033  11.504  13.627 -0.1459 -0.3377  0.0764
12856SOL    HW150293   5.036  11.566  13.555 -0.7044 -1.9552 -1.3951
12856SOL    HW250294   4.940  11.498  13.649 -0.0029 -0.0355  0.7905
12857SOL     OW50295   7.708  11.735   9.800  0.2935  0.1673 -0.3102
12857SOL    HW150296   7.718  11.830   9.809 -0.7698  0.2275  0.3722
12857SOL    HW250297   7.790  11.699   9.834  1.0246  0.8454 -1.2814
12858SOL     OW50298   3.454   2.465   7.613  0.4157  0.1041  0.1733
12858SOL    HW150299   3.435   2.376   7.646  1.4025  0.4588  1.7964
12858SOL    HW250300   3.391   2.477   7.542 -0.5339 -1.4624  0.6783
12859SOL     OW50301   7.908   8.795   5.386  0.0605 -0.1788 -0.1506
12859SOL    HW150302   7.883   8.719   5.335 -0.0697  0.5021 -1.1280
12859SOL    HW250303   7.992   8.822   5.349 -0.2225  0.5551 -0.2712
12860SOL     OW50304   1.426  13.007   5.915 -0.6452 -0.0892 -0.0622
12860SOL    HW150305   1.514  13.020   5.951  0.4089 -2.6499 -1.4057
12860SOL    HW250306   1.412  13.083   5.858  0.5542  0.5306  0.4362
12861SOL     OW50307   2.283   1.296   1.859 -0.0044 -0.1478  0.1137
12861SOL    HW150308   2.210   1.288   1.920 -1.8477  1.9632 -1.6234
12861SOL    HW250309   2.242   1.323   1.776  2.7609  1.5647 -0.8380
12862SOL     OW50310   3.253   3.071   7.186 -0.1517 -0.3706 -0.0939
12862SOL    HW150311   3.247   3.153   7.137 -1.4579  0.7470  1.7878
12862SOL    HW250312   3.341   3.071   7.222  0.6892 -1.0151 -1.9979
12863SOL     OW50313   4.986  10.265  12.734  0.3502 -0.2101  0.3184
12863SOL    HW150314   5.028  10.343  12.697  0.8719 -0.7803 -0.2864
12863SOL    HW250315   4.908  10.300  12.777 -0.1893  0.4981 -1.1532
12864SOL     OW50316   5.499  10.687  11.348 -0.2204  0.4448  0.0217
12864SOL    HW150317   5.512  10.781  11.343 -2.3903  0.7932 -0.2520
12864SOL    HW250318   5.432  10.668  11.282 -0.6201 -1.1037  0.7986
12865SOL     OW50319   1.466   4.296   0.162  0.8427  0.0830  0.6152
12865SOL    HW150320   1.509   4.243   0.095  1.3207  0.3829  0.6755
12865SOL    HW250321   1.473   4.244   0.242  0.3767 -0.2226  0.4600
12866SOL     OW50322  10.604  10.907   1.746 -0.3611 -0.2689  0.0497
12866SOL    HW150323  10.614  10.899   1.841  1.9786 -0.4604 -0.1419
12866SOL    HW250324  10.583  10.818   1.717  1.7862 -0.8852  0.1822
12867SOL     OW50325  12.495   0.622  13.315 -0.3113 -0.3956 -0.1071
12867SOL    HW150326  12.560   0.616  13.246 -0.3898 -0.2494 -0.1952
12867SOL    HW250327  12.435   0.549  13.298 -1.9428  1.2306 -1.8830
12868SOL     OW50328  11.851   1.169  12.221  0.4771  0.1400 -0.1163
12868SOL    HW150329  11.836   1.074  12.214  0.7706  0.0785  0.0930
12868SOL    HW250330  11.763   1.206  12.231  0.1594  0.0539 -2.0568
12869SOL     OW50331   7.054   2.851  11.130 -0.4662 -0.8531 -0.1468
12869SOL    HW150332   7.076   2.927  11.184 -0.5513 -1.4882  0.8068
12869SOL    HW250333   7.101   2.778  11.170 -0.7125 -1.3859 -0.7960
12870SOL     OW50334   4.819   4.167   8.482  0.2381  0.3539  0.4529
12870SOL    HW150335   4.841   4.179   8.389 -0.2512 -0.2906  0.2451
12870SOL    HW250336   4.728   4.197   8.488  0.3338  0.5785  0.7661
12871SOL     OW50337   8.372  13.357  10.778  0.0463  0.1173 -0.1720
12871SOL    HW150338   8.284  13.330  10.802  0.3559 -0.2184  0.6189
12871SOL    HW250339   8.414  13.278  10.745 -0.4630  0.6281 -2.1810
12872SOL     OW50340  12.457   0.179   0.917 -0.3342  0.0864  0.0966
12872SOL    HW150341  12.424   0.126   0.990  1.4192 -0.4992  0.5146
12872SOL    HW250342  12.439   0.126   0.839 -2.3910  0.8028  0.0328
12873SOL     OW50343  12.588   8.571  11.755  0.4001 -0.2919 -0.0488
12873SOL    HW150344  12.637   8.593  11.834 -1.3702  1.0233  0.7371
12873SOL    HW250345  12.500   8.549  11.785  0.2016 -1.7567 -1.5021
12874SOL     OW50346   9.806   8.420   1.387  0.2486 -0.1633 -0.6212
12874SOL    HW150347   9.871   8.426   1.456  0.0791 -0.5887 -0.4232
12874SOL    HW250348   9.844   8.469   1.313 -0.0568  1.2832  0.1335
12875SOL     OW50349   6.207  13.016   7.249  0.0401 -0.3864  0.9615
12875SOL    HW150350   6.266  13.058   7.186  1.3712 -0.9462  1.8080
12875SOL    HW250351   6.201  13.078   7.321 -1.0663  0.0181  0.5459
12876SOL     OW50352   4.427   4.452   0.538  0.1628 -0.2624  0.5213
12876SOL    HW150353   4.376   4.450   0.620  0.7962  0.1827  0.9323
12876SOL    HW250354   4.518   4.445   0.566  0.6733  3.1361  0.1357
12877SOL     OW50355   8.934  13.383  10.603  0.2312  0.3480  0.5484
12877SOL    HW150356   8.866  13.442  10.636 -0.2682  0.8934 -1.3287
12877SOL    HW250357   8.937  13.311  10.667 -2.1663  0.2769  0.6588
12878SOL     OW50358  11.184   4.627   9.216 -0.0925 -0.0783  0.2779
12878SOL    HW150359  11.266   4.675   9.208  0.5302 -1.0770  0.4308
12878SOL    HW250360  11.211   4.536   9.231 -1.0633 -1.5890 -5.1008
12879SOL     OW50361  10.034   3.027   4.806 -0.3458  0.0436 -0.0288
12879SOL    HW150362   9.977   3.053   4.878  2.0328  0.4826  1.8616
12879SOL    HW250363  10.035   2.931   4.810  0.1873  0.0711  0.9589
12880SOL     OW50364   6.407   9.864   4.621 -0.4291  0.3947 -0.1879
12880SOL    HW150365   6.446   9.851   4.708  0.7934 -1.0662 -0.9070
12880SOL    HW250366   6.364   9.780   4.601  0.2153  0.3347 -1.4130
12881SOL     OW50367   5.583   7.089   8.295 -0.1758  0.1494 -0.1427
12881SOL    HW150368   5.518   7.025   8.267 -1.7606  1.1462  1.0868
12881SOL    HW250369   5.547   7.173   8.268  0.1425  0.7977  1.3395
12882SOL     OW50370   2.540  11.595   3.142 -0.2331  0.5444 -0.0175
12882SOL    HW150371   2.614  11.654   3.151  1.1293 -0.9801 -0.6629
12882SOL    HW250372   2.576  11.518   3.097 -2.4569  0.1878 -1.3136
12883SOL     OW50373   1.426  10.263   8.016  0.4328  0.3893 -0.0569
12883SOL    HW150374   1.423  10.308   7.932 -0.4974 -0.2733 -0.4062
12883SOL    HW250375   1.378  10.181   8.001  1.4433 -0.3803  0.7487
12884SOL     OW50376  10.402   2.545   4.528  0.2657 -0.4435  0.4914
12884SOL    HW150377  10.342   2.604   4.573 -0.7626 -1.9339  1.1713
12884SOL    HW250378  10.405   2.577   4.439  1.4597  1.9111  1.3175
12885SOL     OW50379   9.390   2.413   7.962  0.1004 -0.1550 -0.0127
12885SOL    HW150380   9.345   2.476   7.905  0.6032  0.3393  0.1269
12885SOL    HW250381   9.465   2.383   7.910  0.1612 -0.2311  0.1191
12886SOL     OW50382  10.568   3.756   4.674  0.1060  0.0124  1.0811
12886SOL    HW150383  10.602   3.801   4.752  1.3579  0.0885  0.5130
12886SOL    HW250384  10.516   3.683   4.709  0.6497  0.0499  1.9873
12887SOL     OW50385   8.668   3.347   9.396 -0.2692 -0.4625  0.1847
12887SOL    HW150386   8.648   3.362   9.489 -1.2067 -0.8844  0.0704
12887SOL    HW250387   8.714   3.426   9.368  0.4267 -0.5246  1.1175
12888SOL     OW50388  13.129   5.378   1.105 -0.1525  0.5590 -0.4526
12888SOL    HW150389  13.092   5.465   1.119  1.1454  1.3233 -1.6218
12888SOL    HW250390  13.100   5.353   1.017 -1.3235 -0.6361  0.2324
12889SOL     OW50391   6.395   2.070   6.943  0.1653  0.1882 -0.6391
12889SOL    HW150392   6.302   2.092   6.943  0.1861  0.3551  0.4995
12889SOL    HW250393   6.400   1.986   6.989  0.4293 -0.6281 -2.0897
12890SOL     OW50394   6.472  10.159   5.202 -0.0158  0.1221  0.1261
12890SOL    HW150395   6.453  10.235   5.147  0.1609  1.6072  1.9832
12890SOL    HW250396   6.567  10.146   5.193 -0.0398  0.1639 -0.1763
12891SOL     OW50397   1.882   7.826  11.710 -0.2912 -0.5727  0.5005
12891SOL    HW150398   1.931   7.789  11.783  0.4142  0.3184  0.4998
12891SOL    HW250399   1.880   7.920  11.727 -1.7609 -0.5442  0.3365
12892SOL     OW50400   2.036   0.513  12.229 -0.3386 -0.0047 -0.4518
12892SOL    HW150401   2.042   0.427  12.186 -3.2612  0.1054 -1.3263
12892SOL    HW250402   2.081   0.573  12.170  2.1582 -0.9198  0.3985
12893SOL     OW50403   2.918   1.229   6.629 -0.5994  0.3279  0.1574
12893SOL    HW150404   2.939   1.186   6.712 -1.7612 -1.1678 -0.2804
12893SOL    HW250405   2.977   1.190   6.565 -0.0128  1.1587  0.1656
12894SOL     OW50406   4.942  11.011   7.312 -0.2156 -0.1624 -0.1178
12894SOL    HW150407   4.982  10.961   7.383  0.9708  1.7961  0.6881
12894SOL    HW250408   5.004  11.004   7.239  0.6268  1.1123  0.4277
12895SOL     OW50409   7.681   3.139  10.501  1.0648  0.0738  0.2267
12895SOL    HW150410   7.655   3.049  10.478 -0.8075  0.4916  0.5349
12895SOL    HW250411   7.675   3.142  10.596  1.1058  0.5374  0.2173
12896SOL     OW50412   4.154   4.275  13.533  0.6928 -0.2442  0.2466
12896SOL    HW150413   4.140   4.258  13.626 -0.3975  0.4180  0.2170
12896SOL    HW250414   4.231   4.223  13.511  0.2027 -1.4337  1.2161
12897SOL     OW50415   7.253   0.291   5.450 -0.7482  0.0384 -0.2665
12897SOL    HW150416   7.159   0.272   5.459 -1.1467  1.2916 -1.4243
12897SOL    HW250417   7.256   0.377   5.408  0.9269 -0.3692 -1.0710
12898SOL     OW50418   2.082   4.556   3.881 -0.1645  0.2699 -0.1239
12898SOL    HW150419   2.077   4.500   3.803  0.1847 -0.0019  0.0448
12898SOL    HW250420   2.047   4.502   3.952  1.3683 -0.2179  0.2932
12899SOL     OW50421   8.047   1.042  11.028  0.1491  0.3504 -0.6367
12899SOL    HW150422   8.061   1.130  11.063  1.4613  0.8288 -2.2336
12899SOL    HW250423   8.098   0.985  11.086  2.1196  1.0971 -1.5238
12900SOL     OW50424   2.032  10.384  12.115  0.3560  0.8605 -0.5580
12900SOL    HW150425   1.945  10.346  12.125  0.3231  1.0082 -0.2656
12900SOL    HW250426   2.092  10.310  12.120  0.2311  0.7142 -1.1041
12901SOL     OW50427  11.373   5.367   3.549 -0.6402 -0.2287  0.0411
12901SOL    HW150428  11.415   5.294   3.594  0.7912 -0.2008 -1.1936
12901SOL    HW250429  11.419   5.445   3.581  0.6042 -0.2309 -1.6170
12902SOL     OW50430   2.655   8.509   3.284 -0.1760 -0.2671  0.3472
12902SOL    HW150431   2.743   8.476   3.302  0.1543  0.5288  0.2807
12902SOL    HW250432   2.633   8.473   3.198  1.1850  1.5788 -0.8633
12903SOL     OW50433   9.789   4.667   4.518  0.0264 -0.5584  0.2373
12903SOL    HW150434   9.830   4.753   4.513 -0.1065 -0.5036  0.1031
12903SOL    HW250435   9.698   4.682   4.494 -0.4217 -0.4343  1.9199
12904SOL     OW50436   3.534   6.718   7.386  0.0874  0.0680  0.7469
12904SOL    HW150437   3.618   6.721   7.431 -0.2265  1.0398  1.3185
12904SOL    HW250438   3.470   6.712   7.458 -0.3891  0.9260  0.4129
12905SOL     OW50439   7.997  10.631   7.611  0.4149 -0.0554  0.1701
12905SOL    HW150440   7.953  10.591   7.686  0.2142  0.0905  0.1322
12905SOL    HW250441   7.961  10.585   7.535  1.1456 -0.7004  0.1994
12906SOL     OW50442   5.968  13.247   5.557 -0.2336 -0.3052 -0.2695
12906SOL    HW150443   6.025  13.318   5.529 -0.1356 -1.0179 -2.0095
12906SOL    HW250444   5.891  13.291   5.594  1.1353  0.6634  1.6012
12907SOL     OW50445   4.401   8.924   0.233 -0.0674  0.0991 -0.7019
12907SOL    HW150446   4.364   8.981   0.165 -1.4898 -0.4552 -0.4352
12907SOL    HW250447   4.450   8.984   0.290 -0.7678  0.9294 -0.9384
12908SOL     OW50448   7.963   3.079   0.166 -0.0526  0.0292 -0.0188
12908SOL    HW150449   7.976   2.991   0.202 -0.1648  0.5006  1.2297
12908SOL    HW250450   7.893   3.116   0.220 -1.3376  0.2383 -1.7271
12909SOL     OW50451  13.744  11.593   5.491 -0.0649 -0.0308 -0.0134
12909SOL    HW150452  13.818  11.532   5.499  0.6243  0.8052  0.1966
12909SOL    HW250453  13.769  11.668   5.544 -1.3316  0.0423  0.5079
12910SOL     OW50454   8.523   4.774  11.093 -0.0691  0.1951  0.1702
12910SOL    HW150455   8.471   4.790  11.171  0.0867  0.0149  0.3108
12910SOL    HW250456   8.474   4.816  11.022  0.6640  1.8762  0.6300
12911SOL     OW50457   3.736   8.506   4.976  0.2181 -0.5159 -0.1496
12911SOL    HW150458   3.725   8.469   5.064  0.3959 -0.9639 -0.3136
12911SOL    HW250459   3.665   8.569   4.967  1.0294  0.5954  0.8625
12912SOL     OW50460   2.603   6.622  10.154 -0.3178  0.3142  0.1832
12912SOL    HW150461   2.540   6.629  10.226 -1.8449  1.4622 -1.2068
12912SOL    HW250462   2.570   6.550  10.100  0.1776  0.2110  0.0091
12913SOL     OW50463  10.295  11.804   9.391  0.1551 -0.2676 -0.0937
12913SOL    HW150464  10.229  11.871   9.408 -0.7764 -1.4712  1.1655
12913SOL    HW250465  10.335  11.786   9.476  0.3173 -1.3881 -0.3865
12914SOL     OW50466   0.568  13.187   6.890 -0.1360  0.1154  0.0786
12914SOL    HW150467   0.567  13.216   6.982 -1.6577  0.8045 -0.1161
12914SOL    HW250468   0.657  13.205   6.860  0.3503  0.0108  1.3676
12915SOL     OW50469   4.005   8.286   3.687 -0.0148 -0.4532  0.6344
12915SOL    HW150470   4.033   8.256   3.774 -0.1109 -0.4398  0.6701
12915SOL    HW250471   3.919   8.245   3.675 -0.5017  0.4331  1.0105
12916SOL     OW50472   5.346  10.168   5.635  0.3442 -0.2098  0.2561
12916SOL    HW150473   5.302  10.199   5.556  1.4500 -0.2930 -0.4129
12916SOL    HW250474   5.439  10.173   5.614  0.6388 -0.6948  1.3837
12917SOL     OW50475  11.421  11.252  13.223 -0.0645  0.5564 -0.1415
12917SOL    HW150476  11.440  11.161  13.203 -0.5476  0.8930 -2.4617
12917SOL    HW250477  11.466  11.269  13.305 -0.4320 -1.9066  0.6556
12918SOL     OW50478  11.591  10.987   6.319  0.4167 -0.0001  0.1841
12918SOL    HW150479  11.639  11.016   6.396  0.6705  0.1502 -0.0334
12918SOL    HW250480  11.652  10.929   6.273  1.0228  1.5192 -0.9936
12919SOL     OW50481   6.836   8.931   7.231  0.2893  0.6254 -0.2931
12919SOL    HW150482   6.828   9.000   7.165 -1.8547  0.8544  0.1291
12919SOL    HW250483   6.915   8.883   7.206  0.0741  1.2794 -2.4462
12920SOL     OW50484   9.626   4.204   2.867 -0.1153  0.5350 -0.0842
12920SOL    HW150485   9.666   4.160   2.942 -2.6360 -0.5993  0.7093
12920SOL    HW250486   9.663   4.160   2.790 -1.7054 -2.4292  0.6626
12921SOL     OW50487   9.176  10.982   8.726  0.6270 -0.5269  0.3234
12921SOL    HW150488   9.107  11.023   8.674  0.7208  0.9800  1.2982
12921SOL    HW250489   9.140  10.978   8.815  1.5371 -0.3262  0.7137
12922SOL     OW50490   2.413  12.456   3.080  0.3511 -0.6559 -0.1348
12922SOL    HW150491   2.455  12.497   3.155  0.0185 -0.7803  0.1187
12922SOL    HW250492   2.432  12.363   3.089  1.8751 -0.4909 -1.1881
12923SOL     OW50493   4.463  10.924  12.420 -0.4142  0.1327  0.5053
12923SOL    HW150494   4.419  10.856  12.369 -1.2411  1.4127 -0.5554
12923SOL    HW250495   4.556  10.901  12.415 -0.6431 -0.7431 -0.0907
12924SOL     OW50496  13.287  12.464   9.400 -0.0057  0.0171 -0.0341
12924SOL    HW150497  13.233  12.472   9.321  0.3596 -0.0206 -0.2875
12924SOL    HW250498  13.261  12.539   9.454 -0.1961  0.0901 -0.2253
12925SOL     OW50499   4.031   0.715  11.818  0.5600  0.8785 -0.4465
12925SOL    HW150500   4.117   0.702  11.857  0.3696  0.5232 -0.1444
12925SOL    HW250501   3.975   0.740  11.891  0.0072 -0.6383 -0.3221
12926SOL     OW50502   3.371  10.221   2.308 -0.0434  0.0588  0.0536
12926SOL    HW150503   3.305  10.202   2.375  0.1527 -1.1998 -0.0829
12926SOL    HW250504   3.433  10.147   2.314  0.5336  0.4565 -0.8192
12927SOL     OW50505   6.463   9.986   8.617 -0.5674 -1.0118  0.1212
12927SOL    HW150506   6.379   9.943   8.635 -1.4850  0.6659 -0.0301
12927SOL    HW250507   6.449  10.033   8.535  0.1426  0.2214  0.6839
12928SOL     OW50508   0.958  11.400  13.676 -0.7858  0.1371  0.1669
12928SOL    HW150509   0.960  11.456  13.753  0.2492 -0.4156  0.5710
12928SOL    HW250510   0.893  11.333  13.697 -1.7402  0.9380 -0.1583
12929SOL     OW50511   5.704  12.245   7.981 -0.4325 -0.0597  0.0550
12929SOL    HW150512   5.795  12.273   7.981 -0.7163  0.8886  0.2578
12929SOL    HW250513   5.676  12.253   8.072 -0.4745 -1.1976  0.1562
12930SOL     OW50514  11.827  11.737   4.881 -0.1168 -0.4377  0.3143
12930SOL    HW150515  11.782  11.658   4.912  1.5126 -2.1786 -1.4422
12930SOL    HW250516  11.913  11.732   4.922 -0.4686  1.2770  1.3366
12931SOL     OW50517   9.277   7.291   0.711 -0.2402 -0.0180 -0.3385
12931SOL    HW150518   9.281   7.360   0.644  0.1312  0.0947 -0.2004
12931SOL    HW250519   9.211   7.322   0.772  0.9167  0.9088  0.4854
12932SOL     OW50520   4.410   0.683  10.420  0.0517  0.4365  0.9697
12932SOL    HW150521   4.410   0.766  10.372 -2.2392  0.9530  1.7094
12932SOL    HW250522   4.411   0.709  10.512 -0.3316 -0.3609  1.2026
12933SOL     OW50523  10.700   6.310   0.161  0.1785 -0.1412  0.2371
12933SOL    HW150524  10.711   6.384   0.220 -0.8670 -0.0222  0.3048
12933SOL    HW250525  10.785   6.265   0.162  0.5321  0.5245  0.9079
12934SOL     OW50526   1.221  10.786   1.800 -1.0742  0.0313 -0.5035
12934SOL    HW150527   1.248  10.877   1.813 -0.1331 -0.3469  0.3996
12934SOL    HW250528   1.196  10.781   1.708  1.1238  0.6576 -1.2062
12935SOL     OW50529   6.006  13.711   6.221  0.6506  0.1630 -0.7489
12935SOL    HW150530   6.083  13.765   6.204  1.0611 -0.4996 -1.0297
12935SOL    HW250531   5.999  13.653   6.145  0.7252 -0.7557 -0.0780
12936SOL     OW50532   6.186   2.680  13.379 -0.6220  0.0831 -0.0696
12936SOL    HW150533   6.268   2.668  13.330 -0.3288 -0.6838  0.5910
12936SOL    HW250534   6.200   2.761  13.428 -1.9338  2.4339 -3.2064
12937SOL     OW50535  12.609   1.742   6.479 -0.0249  0.2957 -0.1013
12937SOL    HW150536  12.549   1.800   6.432 -0.5804 -0.7384 -0.7075
12937SOL    HW250537  12.605   1.659   6.431  1.4499  0.0237  0.2003
12938SOL     OW50538   3.434   8.403  12.295 -0.0248  0.3186  0.3055
12938SOL    HW150539   3.384   8.449  12.361  1.7143  0.5973  1.4906
12938SOL    HW250540   3.410   8.311  12.307 -2.0715  0.6387 -0.8187
12939SOL     OW50541   6.646   2.806   5.732 -0.9158  0.6564 -0.1575
12939SOL    HW150542   6.635   2.718   5.695 -0.6621  0.7061 -0.3561
12939SOL    HW250543   6.684   2.857   5.660 -1.5716  1.0701 -0.2246
12940SOL     OW50544   5.027   6.612   8.064 -0.0350  0.7241 -0.7906
12940SOL    HW150545   5.083   6.536   8.050  0.5502  1.3448 -1.9545
12940SOL    HW250546   4.943   6.588   8.027  0.1438  0.6221 -1.1351
12941SOL     OW50547  12.919   2.338   2.049  0.4441 -0.1805 -0.0262
12941SOL    HW150548  12.956   2.259   2.010 -1.0397 -1.2121  0.5873
12941SOL    HW250549  12.841   2.308   2.095  1.2459  1.2284  2.4259
12942SOL     OW50550   8.974  13.590   3.069  0.8314 -0.0364  0.2725
12942SOL    HW150551   8.994  13.532   3.143 -1.8833 -0.1876  1.0037
12942SOL    HW250552   8.978  13.679   3.106 -1.2130 -0.1411  0.8920
12943SOL     OW50553  12.332   2.874   0.042  0.2227  0.0093 -1.1105
12943SOL    HW150554  12.406   2.849  -0.014  1.2352 -0.6610  0.4493
12943SOL    HW250555  12.300   2.791   0.078  1.2820  0.5389  1.2791
12944SOL     OW50556   9.168   8.871  10.454 -0.0718  0.0966 -0.5870
12944SOL    HW150557   9.213   8.805  10.507  1.5237  1.2207 -0.4508
12944SOL    HW250558   9.239   8.916  10.408 -0.9646  2.4076  0.1539
12945SOL     OW50559   1.766   3.465   9.699 -0.2686  0.1884  0.1835
12945SOL    HW150560   1.811   3.441   9.618 -0.7278 -0.4829  0.1180
12945SOL    HW250561   1.794   3.399   9.762  0.6175  1.0970  0.7741
12946SOL     OW50562   1.664  11.754  12.939 -0.6095 -0.0071  0.5770
12946SOL    HW150563   1.659  11.765  13.034 -1.3567 -0.0635  0.5464
12946SOL    HW250564   1.574  11.762  12.909 -0.3259  0.4079 -0.1772
12947SOL     OW50565   0.307   0.797   4.977 -0.2279  0.0820  0.1985
12947SOL    HW150566   0.214   0.811   4.959 -0.0383  0.7478 -0.2893
12947SOL    HW250567   0.320   0.830   5.065  0.1891  3.0813 -0.8710
12948SOL     OW50568   5.746   1.813   2.515  0.4881 -0.4320  0.0900
12948SOL    HW150569   5.816   1.861   2.471  0.2836  0.2789  0.5183
12948SOL    HW250570   5.727   1.739   2.457  0.4307  0.3101 -0.8601
12949SOL     OW50571   2.644   7.751   3.014 -0.5016  0.3360 -0.2775
12949SOL    HW150572   2.678   7.738   2.925 -0.5272  1.5286 -0.4667
12949SOL    HW250573   2.571   7.689   3.021 -1.4203  1.2179 -1.6010
12950SOL     OW50574   3.470   8.460  12.022  0.2953  0.0837  0.3718
12950SOL    HW150575   3.455   8.376  11.980  0.9459  0.3052 -0.3343
12950SOL    HW250576   3.430   8.452  12.108  0.3990 -0.9600  0.3295
12951SOL     OW50577   0.524  12.938   4.396  0.3551 -0.0213  0.1270
12951SOL    HW150578   0.465  12.957   4.469  0.7180  2.3479 -0.1278
12951SOL    HW250579   0.568  12.856   4.422 -0.5097  0.0264  1.9100
12952SOL     OW50580   1.913   3.744   9.680  0.4169  0.5064 -0.0675
12952SOL    HW150581   1.906   3.650   9.695 -0.1173  0.7875  1.6399
12952SOL    HW250582   1.884   3.757   9.590 -2.3998 -0.6418  0.5808
12953SOL     OW50583   4.701   0.731   0.022 -0.5350 -0.3040  0.2015
12953SOL    HW150584   4.706   0.826   0.027  1.2585 -0.3937  1.5145
12953SOL    HW250585   4.648   0.706   0.098 -0.8143 -0.3628 -0.0129
12954SOL     OW50586  13.229   2.116  11.993 -0.0523 -0.7137  0.6643
12954SOL    HW150587  13.272   2.033  11.973 -0.8489 -1.5068  2.1166
12954SOL    HW250588  13.239   2.127  12.087 -0.3259  0.6432  0.5604
12955SOL     OW50589  11.932  11.584  11.949 -0.2300 -0.2917  0.0425
12955SOL    HW150590  11.988  11.617  12.019 -1.0868 -2.5828  1.9660
12955SOL    HW250591  11.974  11.501  11.923 -1.1271 -0.5633 -0.5745
12956SOL     OW50592   3.742   3.167   6.531  0.2278  0.5971  0.0960
12956SOL    HW150593   3.671   3.120   6.573  0.0150 -1.0170 -1.9004
12956SOL    HW250594   3.820   3.113   6.545  0.7934  1.5999  0.9954
12957SOL     OW50595  10.274  11.059   2.459 -0.9429  0.1832 -0.3489
12957SOL    HW150596  10.217  11.102   2.396 -2.2994 -0.5240  0.3394
12957SOL    HW250597  10.299  11.128   2.521  0.0201  0.7728 -1.3570
12958SOL     OW50598   7.503  12.205   1.288 -0.6088 -0.3431  0.0835
12958SOL    HW150599   7.480  12.136   1.227 -0.2469 -1.3997  1.1022
12958SOL    HW250600   7.581  12.246   1.251 -0.5268 -0.8241 -0.2715
12959SOL     OW50601   2.660  10.924  12.997  0.2383  0.0523 -0.1231
12959SOL    HW150602   2.680  10.959  12.910 -0.0376 -0.3982 -0.3726
12959SOL    HW250603   2.731  10.863  13.016 -0.0542 -0.3628 -0.3319
12960SOL     OW50604  10.668   1.681   4.872  0.1638  0.3492  0.3960
12960SOL    HW150605  10.636   1.592   4.856  0.9576  0.3124 -1.2488
12960SOL    HW250606  10.757   1.681   4.836  0.1155  1.8498  0.2134
12961SOL     OW50607   8.976  11.993   5.342  0.4652  0.2927  0.3187
12961SOL    HW150608   8.895  11.965   5.298  0.6580 -2.6442  1.5817
12961SOL    HW250609   8.965  11.963   5.432  2.5579  0.7591  0.7681
12962SOL     OW50610   7.598   1.181  12.225 -0.1893 -0.1817 -0.0362
12962SOL    HW150611   7.552   1.100  12.244 -0.6020  0.4842  2.0942
12962SOL    HW250612   7.650   1.198  12.303  2.5958 -0.1323 -1.7563
12963SOL     OW50613   6.000   5.538   8.741  0.3298  0.8911  0.6295
12963SOL    HW150614   5.922   5.502   8.699  1.9944  0.8988 -2.7842
12963SOL    HW250615   5.991   5.633   8.731  1.2267  0.8577 -0.8749
12964SOL     OW50616   4.727   1.303  12.473  0.0137  0.9210  0.1603
12964SOL    HW150617   4.801   1.359  12.496  0.8838  0.8725 -2.2587
12964SOL    HW250618   4.759   1.214  12.487 -0.0089  0.9235  0.2307
12965SOL     OW50619  11.533   0.826   5.648  0.0536  0.1457 -0.1539
12965SOL    HW150620  11.471   0.755   5.633  0.6610 -0.1353 -1.4513
12965SOL    HW250621  11.479   0.902   5.671 -0.5717 -0.8991  2.1335
12966SOL     OW50622   4.328  11.226   0.163 -0.8591 -0.2984 -0.5277
12966SOL    HW150623   4.237  11.256   0.162  0.0031  2.6272 -0.3310
12966SOL    HW250624   4.359  11.249   0.251  0.3132 -0.4118 -0.8984
12967SOL     OW50625   1.804   3.745   9.388 -0.0421 -0.0784  0.4757
12967SOL    HW150626   1.821   3.678   9.322 -0.1794 -0.9038  1.2624
12967SOL    HW250627   1.713   3.731   9.414 -0.4734  1.2056 -0.2139
12968SOL     OW50628   6.836   4.164   5.501 -0.2639 -0.6739  0.4875
12968SOL    HW150629   6.925   4.157   5.467 -0.3287 -1.1511  0.4177
12968SOL    HW250630   6.831   4.254   5.534  0.2077 -0.6083  0.3956
12969SOL     OW50631  10.052   0.183   5.387 -0.1929  0.6039 -0.2930
12969SOL    HW150632   9.980   0.202   5.327 -0.9934 -0.5350  0.2724
12969SOL    HW250633  10.091   0.102   5.352  0.9983  1.3422 -0.7446
12970SOL     OW50634  12.862   1.594   9.793  0.3934  0.3147 -0.5608
12970SOL    HW150635  12.767   1.585   9.792  0.5476 -2.0753  0.7864
12970SOL    HW250636  12.877   1.684   9.825 -1.4118  0.2117  0.7182
12971SOL     OW50637   1.951   2.882   6.215  0.4304 -0.4738  0.4312
12971SOL    HW150638   1.958   2.974   6.191 -0.6547 -0.0093  1.8263
12971SOL    HW250639   2.012   2.872   6.288  0.8094 -0.9696  0.0599
12972SOL     OW50640   3.961   3.777   7.526  0.3455 -0.0659 -0.0948
12972SOL    HW150641   3.980   3.844   7.592 -0.3007  0.1950 -0.1600
12972SOL    HW250642   3.915   3.708   7.574  0.0509  0.0336 -0.2309
12973SOL     OW50643   9.350   2.097  11.977  0.6664  0.3000  0.2296
12973SOL    HW150644   9.304   2.075  12.058 -0.8960 -3.5696 -1.4237
12973SOL    HW250645   9.283   2.142  11.924  0.2278 -1.0723 -0.4277
12974SOL     OW50646   0.574   6.068   7.532 -0.0886  1.1131  0.0182
12974SOL    HW150647   0.596   6.100   7.619  0.1735  1.1929 -0.0770
12974SOL    HW250648   0.498   6.120   7.506 -0.8006  0.3818  0.6117
12975SOL     OW50649  10.941   3.850   9.786 -0.1258 -0.0239 -0.0336
12975SOL    HW150650  11.034   3.826   9.785 -0.4443 -1.3327 -1.7475
12975SOL    HW250651  10.912   3.830   9.875  1.2861  0.7274  0.6298
12976SOL     OW50652   4.304   5.300  10.703  0.2181  0.0198 -0.1802
12976SOL    HW150653   4.371   5.251  10.751  0.8136 -0.4670 -1.4574
12976SOL    HW250654   4.229   5.303  10.763  1.1939  0.1257  1.0691
12977SOL     OW50655   1.768   0.839  13.660  0.4857 -0.2280  0.1325
12977SOL    HW150656   1.684   0.792  13.655 -0.1070  0.6202  1.4792
12977SOL    HW250657   1.749   0.925  13.621  0.0171  0.8405  2.5373
12978SOL     OW50658  13.579   6.203   8.909  0.5113 -0.0753 -0.0897
12978SOL    HW150659  13.647   6.270   8.912 -0.1421  0.6455 -0.8865
12978SOL    HW250660  13.509   6.242   8.856 -0.3694 -0.9391  0.4021
12979SOL     OW50661   0.984   3.197   0.471  0.2994 -0.2510 -0.3302
12979SOL    HW150662   0.898   3.172   0.437 -0.0669 -0.0643  0.4439
12979SOL    HW250663   1.044   3.134   0.432 -0.0904 -0.0078 -1.3703
12980SOL     OW50664   3.113   8.368   5.518 -0.2215  0.0106  0.6033
12980SOL    HW150665   3.151   8.448   5.484  2.1529 -0.8689  1.0046
12980SOL    HW250666   3.084   8.390   5.607 -1.0728  0.7946  0.1475
12981SOL     OW50667  11.184  13.549   3.390  0.4954 -0.6091  0.2901
12981SOL    HW150668  11.239  13.501   3.452 -0.7384 -0.8435  1.2366
12981SOL    HW250669  11.110  13.491   3.373  0.3344 -0.1470 -0.6696
12982SOL     OW50670  10.519   5.108   1.595  0.4030 -0.2881  0.2145
12982SOL    HW150671  10.581   5.119   1.523  0.5094  2.5019  0.6249
12982SOL    HW250672  10.560   5.152   1.670 -2.3935  2.7164  0.2262
12983SOL     OW50673  11.615   5.358   4.879  0.2031 -0.4693  0.1550
12983SOL    HW150674  11.623   5.453   4.865 -0.2112 -0.6693 -1.7159
12983SOL    HW250675  11.616   5.321   4.791 -1.0122 -2.0972  0.7762
12984SOL     OW50676   3.011   1.867  12.571  0.1056  0.5140  0.1911
12984SOL    HW150677   3.059   1.883  12.653  2.3272  0.0939 -0.9507
12984SOL    HW250678   3.025   1.947  12.520  0.1146  0.1314 -0.4102
12985SOL     OW50679   3.437   7.610   4.324 -0.1734  0.2371  0.0256
12985SOL    HW150680   3.350   7.585   4.354  0.4057 -1.2800  0.5748
12985SOL    HW250681   3.484   7.634   4.405  1.0792 -2.8435  0.3611
12986SOL     OW50682   8.261  11.084   4.313 -0.2329 -0.1452 -0.0235
12986SOL    HW150683   8.313  11.080   4.393 -0.9511 -0.3727  0.4360
12986SOL    HW250684   8.291  11.009   4.261 -0.9572 -1.0084  0.7763
12987SOL     OW50685   6.664   9.880  11.123 -0.9155 -0.0381  0.3927
12987SOL    HW150686   6.751   9.888  11.162 -0.8520 -0.4307  0.3342
12987SOL    HW250687   6.605   9.874  11.198 -0.7949 -0.7730  0.4395
12988SOL     OW50688   0.688  10.757   6.236 -0.0715 -0.6189 -0.3666
12988SOL    HW150689   0.771  10.710   6.231 -0.7024 -2.0244  1.2474
12988SOL    HW250690   0.707  10.832   6.293  0.3363 -0.3257 -0.8820
12989SOL     OW50691   3.286   1.090   6.029  0.0562 -0.3358 -0.2802
12989SOL    HW150692   3.368   1.041   6.033 -0.0109 -0.4457 -0.2700
12989SOL    HW250693   3.313   1.182   6.038  0.2380 -0.3211 -0.9842
12990SOL     OW50694   1.433   4.090  12.334  0.0631 -0.0325  0.2349
12990SOL    HW150695   1.416   4.178  12.299  2.0944  1.4350  2.6572
12990SOL    HW250696   1.357   4.072  12.390  0.5916  1.1771  1.4118
12991SOL     OW50697   5.292   4.499   7.263 -0.0489 -0.2356  0.1924
12991SOL    HW150698   5.365   4.477   7.321 -1.4637 -2.4550  1.2355
12991SOL    HW250699   5.314   4.586   7.230  2.7268 -0.5312  0.9782
12992SOL     OW50700  11.924   5.416   9.745  0.0898  0.1570 -0.3427
12992SOL    HW150701  11.992   5.398   9.810 -0.2219  0.6547  0.1187
12992SOL    HW250702  11.973   5.445   9.667  0.3442  2.3035  0.5555
12993SOL     OW50703   5.103   7.362  11.068 -0.2221  0.2487  0.2766
12993SOL    HW150704   5.085   7.435  11.009 -1.2312 -0.5138 -0.4173
12993SOL    HW250705   5.133   7.292  11.010  2.5970  0.6543  1.1378
12994SOL     OW50706   6.098   1.656   1.563 -0.0261 -0.0286  0.6232
12994SOL    HW150707   6.183   1.612   1.574 -0.1476 -0.0275  1.7345
12994SOL    HW250708   6.071   1.678   1.652 -0.4248  1.4480  0.1732
12995SOL     OW50709  11.340   8.946   4.124 -0.3858 -0.3235  0.0093
12995SOL    HW150710  11.381   8.945   4.037 -1.1312  1.8582 -0.4402
12995SOL    HW250711  11.268   8.884   4.118  0.4177 -1.2381 -0.4575
12996SOL     OW50712   1.298  13.205  13.562 -0.0020  0.0237  0.1686
12996SOL    HW150713   1.240  13.145  13.609 -0.7449 -0.4546 -1.2886
12996SOL    HW250714   1.272  13.293  13.592 -1.9247 -0.1389 -0.8671
12997SOL     OW50715  10.453  13.116  13.104 -0.0496  0.1612  0.1327
12997SOL    HW150716  10.502  13.195  13.129  0.8895 -0.7127  1.1263
12997SOL    HW250717  10.413  13.139  13.020  0.1135  1.7320  0.4481
12998SOL     OW50718   5.370   3.113   0.711  0.4792  0.1650  0.2355
12998SOL    HW150719   5.292   3.062   0.737  1.4351 -0.1977  2.6787
12998SOL    HW250720   5.387   3.086   0.621 -1.0765 -1.2273  0.3001
12999SOL     OW50721   4.786  12.054  13.676  0.2774 -0.0152 -0.5765
12999SOL    HW150722   4.780  12.140  13.635 -0.7627  1.0099  1.5843
12999SOL    HW250723   4.877  12.047  13.705 -0.0268  1.1397  0.7530
13000SOL     OW50724   2.660  11.203  12.138  0.2732 -0.4883  0.0736
13000SOL    HW150725   2.612  11.286  12.136 -1.5529 -1.5097 -0.0147
13000SOL    HW250726   2.724  11.212  12.068 -1.1074  0.1806 -1.1638
13001SOL     OW50727   6.301  12.291  12.891 -0.2892  0.5795 -0.1080
13001SOL    HW150728   6.260  12.269  12.808 -4.7471 -1.5006  2.2648
13001SOL    HW250729   6.387  12.250  12.888 -0.2165  0.7370 -3.6446
13002SOL     OW50730   2.690   1.567   6.746  0.4369  0.2738  0.5945
13002SOL    HW150731   2.700   1.607   6.660 -1.2187  0.0116  0.2400
13002SOL    HW250732   2.779   1.558   6.780  0.9758  2.6883 -0.0145
13003SOL     OW50733   9.212   0.962  11.532 -0.0030 -0.2966 -0.4306
13003SOL    HW150734   9.297   0.997  11.503  0.4368 -2.0155 -1.3066
13003SOL    HW250735   9.229   0.928  11.620  0.0800 -0.2009 -0.4083
13004SOL     OW50736   3.882   9.551   8.924 -0.3107 -0.2957  0.2629
13004SOL    HW150737   3.963   9.601   8.921 -0.5848  0.1791  0.6775
13004SOL    HW250738   3.847   9.566   9.012 -0.3854 -1.2333  0.4123
13005SOL     OW50739   1.888   4.726   3.837  0.2651 -0.2550  0.3690
13005SOL    HW150740   1.930   4.801   3.796 -0.0224 -0.4270 -0.2726
13005SOL    HW250741   1.960   4.666   3.857  0.2969 -1.0150 -1.6946
13006SOL     OW50742  11.486   4.940   5.226  0.5799 -0.1655  0.2391
13006SOL    HW150743  11.554   4.949   5.159  0.1170 -1.8349 -0.5195
13006SOL    HW250744  11.518   4.870   5.283 -0.0386 -0.2565  0.4778
13007SOL     OW50745  12.028   9.010   9.034 -0.4728  0.5452  0.3543
13007SOL    HW150746  11.964   9.025   8.964 -0.4516  0.1983  0.2553
13007SOL    HW250747  12.057   8.920   9.020  0.4757  0.8856  0.0483
13008SOL     OW50748   5.971   0.802   5.100  0.1663  0.4429 -0.6347
13008SOL    HW150749   6.014   0.882   5.130  2.3963 -1.3160  1.3172
13008SOL    HW250750   5.878   0.816   5.116  0.6453  2.1469  0.9588
13009SOL     OW50751   4.389   0.332   4.272  0.3659  0.0560  0.1948
13009SOL    HW150752   4.304   0.373   4.257 -0.7364 -2.5249 -1.3711
13009SOL    HW250753   4.368   0.251   4.320  1.5743 -1.7242 -2.0573
13010SOL     OW50754  12.677   1.210   5.508  0.5148 -0.6974  0.3324
13010SOL    HW150755  12.596   1.163   5.529 -0.6463  1.6285  1.4038
13010SOL    HW250756  12.738   1.183   5.577 -0.3266 -0.2125  1.2902
13011SOL     OW50757  11.737   7.537  10.282  0.0599  0.1734  0.0338
13011SOL    HW150758  11.816   7.526  10.230  0.9182  1.3108  1.0454
13011SOL    HW250759  11.765   7.586  10.359 -0.9299 -2.3701  2.1629
13012SOL     OW50760   8.669   5.342   9.881 -0.0056  0.3995  0.1333
13012SOL    HW150761   8.659   5.430   9.844  1.9008  0.7990  0.4187
13012SOL    HW250762   8.750   5.348   9.933  0.3076 -1.5994 -0.0508
13013SOL     OW50763  12.827  11.405   9.395 -0.0099  0.4637 -0.6072
13013SOL    HW150764  12.846  11.330   9.453 -1.5438  0.0437 -0.6113
13013SOL    HW250765  12.760  11.373   9.335 -0.1854  1.6372 -1.0642
13014SOL     OW50766   6.721   0.991   2.222  0.1158 -0.3414 -0.4268
13014SOL    HW150767   6.642   0.982   2.169  0.6933  0.9248 -1.5698
13014SOL    HW250768   6.790   1.012   2.159  1.2558 -0.8199  0.6123
13015SOL     OW50769   1.603   5.433   0.857  0.0710 -0.4514 -0.5655
13015SOL    HW150770   1.698   5.444   0.868  0.0272 -1.4275  1.1916
13015SOL    HW250771   1.568   5.522   0.860  0.6485 -0.2044  2.6290
13016SOL     OW50772  13.044  11.287   0.400 -0.1804  0.4073  0.5112
13016SOL    HW150773  13.134  11.274   0.427 -0.2950 -1.6327  0.0460
13016SOL    HW250774  12.992  11.263   0.477 -0.3546  0.0579  0.2874
13017SOL     OW50775   5.395   8.579  10.811 -0.2074 -0.2329 -0.1196
13017SOL    HW150776   5.306   8.568  10.844 -0.5035  0.6789 -0.5734
13017SOL    HW250777   5.397   8.526  10.731 -0.3693 -0.1882 -0.1551
13018SOL     OW50778   8.015   4.206   8.119 -0.3807 -0.6351 -0.4228
13018SOL    HW150779   8.011   4.160   8.203 -1.2634 -0.4543 -0.3609
13018SOL    HW250780   7.949   4.274   8.125  1.1940  0.9637 -0.3539
13019SOL     OW50781  12.915   5.176   8.291 -0.7525 -0.0705 -0.0749
13019SOL    HW150782  12.960   5.211   8.214 -0.6758  0.0825  0.0405
13019SOL    HW250783  12.824   5.203   8.280 -0.3357  1.9566  1.0434
13020SOL     OW50784   3.501   0.845   5.090 -0.7913  0.3542 -0.4013
13020SOL    HW150785   3.531   0.782   5.155 -1.5538 -0.0115 -0.3925
13020SOL    HW250786   3.580   0.890   5.062 -0.4203  0.3298  0.5791
13021SOL     OW50787   7.387   8.270  13.739  0.1389  0.0688 -0.2215
13021SOL    HW150788   7.417   8.184  13.708 -2.3115 -0.9053 -0.0785
13021SOL    HW250789   7.467   8.323  13.740  1.7137 -2.1256 -0.4798
13022SOL     OW50790  11.601   6.112  12.178  0.3995  0.2496  0.2249
13022SOL    HW150791  11.655   6.179  12.138  1.9226 -2.9212 -3.7738
13022SOL    HW250792  11.650   6.084  12.255  2.8087 -0.1615 -1.3527
13023SOL     OW50793  11.331   0.621   2.670  0.0888  0.0332 -0.1594
13023SOL    HW150794  11.417   0.621   2.712  0.8035 -0.3094 -1.5639
13023SOL    HW250795  11.281   0.554   2.717  0.4156  0.5443  0.9601
13024SOL     OW50796   1.700  11.550   3.288 -0.0693 -0.3236  0.2961
13024SOL    HW150797   1.776  11.602   3.266 -1.5167  0.9099 -2.2179
13024SOL    HW250798   1.678  11.503   3.208 -1.1566 -1.7527  1.3622
13025SOL     OW50799   5.591   3.191   7.260 -0.1270 -0.4657  0.3903
13025SOL    HW150800   5.607   3.189   7.354  0.6965  0.2204  0.2711
13025SOL    HW250801   5.678   3.196   7.221 -0.5160  1.1620 -0.3391
13026SOL     OW50802   7.506   1.186   4.999  0.1355  0.2414 -0.6037
13026SOL    HW150803   7.468   1.110   5.043  0.4776  0.1704 -0.4259
13026SOL    HW250804   7.584   1.151   4.955  0.3951  0.5286 -0.3695
13027SOL     OW50805   8.370   8.000   5.390 -0.8178  0.3025 -0.5659
13027SOL    HW150806   8.449   7.952   5.367 -0.4014  0.6329  0.1349
13027SOL    HW250807   8.300   7.958   5.340 -0.1152  0.3549 -1.6232
13028SOL     OW50808   0.609  11.428   7.219 -0.4629  0.3759 -0.0876
13028SOL    HW150809   0.610  11.341   7.258 -1.0246  0.9463  1.2511
13028SOL    HW250810   0.536  11.425   7.157 -1.5270  0.3641  1.1252
13029SOL     OW50811  12.594   8.165   7.495 -0.4953 -0.2090 -0.1379
13029SOL    HW150812  12.682   8.184   7.526 -0.6470  1.1015 -0.4460
13029SOL    HW250813  12.606   8.110   7.418  0.0293 -0.4321  0.1044
13030SOL     OW50814   3.574   2.592   9.506  0.6484  0.3943  0.1946
13030SOL    HW150815   3.529   2.572   9.588  1.1110  1.7451  0.8201
13030SOL    HW250816   3.505   2.593   9.440  0.0482  0.5919  0.8127
13031SOL     OW50817   7.847  12.332   7.699 -0.4241  0.0095 -0.7744
13031SOL    HW150818   7.775  12.295   7.648 -0.9124  1.0257 -0.8610
13031SOL    HW250819   7.804  12.383   7.768  0.2177 -1.7514  1.0181
13032SOL     OW50820   4.000   6.675  12.339 -0.2260  0.5933 -0.2989
13032SOL    HW150821   4.010   6.768  12.357 -0.2723  0.2828  1.4537
13032SOL    HW250822   3.940   6.671  12.264 -0.6830  1.9474 -0.0161
13033SOL     OW50823   1.994   3.717   2.382  0.9125  0.1128  0.5758
13033SOL    HW150824   1.913   3.711   2.432  0.9534 -0.1649  0.6092
13033SOL    HW250825   2.056   3.758   2.442  0.6435  0.8431  0.3601
13034SOL     OW50826   8.625   2.490   2.645 -0.8150  0.4107  0.7204
13034SOL    HW150827   8.672   2.571   2.666  0.5252 -0.3550  0.8135
13034SOL    HW250828   8.669   2.423   2.698 -0.1617 -0.8361 -1.3107
13035SOL     OW50829   3.959   8.193   9.112  0.1274  0.0212  0.8738
13035SOL    HW150830   3.908   8.188   9.192  0.7991 -0.1013  1.3021
13035SOL    HW250831   3.939   8.279   9.075  1.0690  0.7548  2.0262
13036SOL     OW50832   2.606   3.994  12.936 -0.0436  0.0110 -0.3194
13036SOL    HW150833   2.683   3.952  12.900 -0.0807 -0.3235 -0.0139
13036SOL    HW250834   2.540   3.925  12.942 -0.0138  0.0399  0.4532
13037SOL     OW50835  13.166   4.305  10.032 -0.1908  0.0967  0.0205
13037SOL    HW150836  13.079   4.317  10.069 -0.3211 -1.4532  0.2653
13037SOL    HW250837  13.160   4.344   9.945 -1.6094 -1.3293 -0.5751
13038SOL     OW50838   7.148  12.354   6.325  0.1706 -0.0240  0.1375
13038SOL    HW150839   7.229  12.403   6.315  1.2368 -1.8320 -0.5799
13038SOL    HW250840   7.166  12.291   6.395 -1.2312  0.7120  1.2071
13039SOL     OW50841   3.455   6.646   6.283 -0.7859 -0.4244 -0.0536
13039SOL    HW150842   3.526   6.661   6.346 -0.4178 -2.4984  0.0974
13039SOL    HW250843   3.414   6.732   6.272  3.1032  1.4180 -1.8871
13040SOL     OW50844  13.115   2.080   0.244  0.7978  0.1738 -0.0070
13040SOL    HW150845  13.076   1.994   0.233 -0.7428  0.8487 -0.1327
13040SOL    HW250846  13.201   2.074   0.202  0.8534 -1.3810  0.2958
13041SOL     OW50847   5.047  10.750   0.807  0.1406 -0.2226 -0.2422
13041SOL    HW150848   5.053  10.759   0.902  0.1392  0.0279 -0.2644
13041SOL    HW250849   4.964  10.792   0.784  0.5405  0.4725 -0.4431
13042SOL     OW50850   7.689  13.620   6.248 -0.1099 -0.2408 -0.5707
13042SOL    HW150851   7.654  13.652   6.331 -0.7521 -0.3130 -0.8020
13042SOL    HW250852   7.784  13.622   6.259 -0.1412  1.1325 -0.3543
13043SOL     OW50853   1.673   2.968  10.751  0.0544 -0.1625  0.0337
13043SOL    HW150854   1.756   2.999  10.787 -0.0290 -0.9041  0.8746
13043SOL    HW250855   1.652   2.889  10.801  0.4020 -1.7828 -2.2051
13044SOL     OW50856   1.562   8.157  12.165 -0.2281  0.4814  0.2915
13044SOL    HW150857   1.481   8.205  12.148 -0.5415 -0.8106 -2.4855
13044SOL    HW250858   1.578   8.169  12.259 -2.3293  2.7227  0.4642
13045SOL     OW50859  12.636   3.348   5.840  0.1806  0.0994 -0.9578
13045SOL    HW150860  12.644   3.423   5.898 -0.0404  0.1125 -0.9464
13045SOL    HW250861  12.701   3.285   5.874 -1.5045 -0.8350  0.7445
13046SOL     OW50862   3.528   5.601  12.240  0.4320  0.1735 -0.4384
13046SOL    HW150863   3.510   5.607  12.146  1.6619 -0.1516 -0.7129
13046SOL    HW250864   3.622   5.587  12.245  0.3987  0.3294  0.8596
13047SOL     OW50865   7.696   8.204   8.524  0.2662 -0.2264 -0.3638
13047SOL    HW150866   7.789   8.184   8.535  0.4557  0.1802 -1.1570
13047SOL    HW250867   7.669   8.239   8.609  1.6256  2.6244 -0.9835
13048SOL     OW50868   1.725   2.546   5.890  0.0378 -0.6784 -0.1711
13048SOL    HW150869   1.782   2.577   5.959 -0.4018 -1.5321  0.5901
13048SOL    HW250870   1.732   2.451   5.892 -1.9298 -0.8702  0.4459
13049SOL     OW50871   2.381   7.243  13.506  0.1862  0.0138 -0.0082
13049SOL    HW150872   2.467   7.211  13.533  1.8606  2.4311 -1.9852
13049SOL    HW250873   2.374   7.218  13.414 -1.0625  0.2451 -0.0019
13050SOL     OW50874   0.967   5.038  10.006  0.4063 -0.0914 -0.6001
13050SOL    HW150875   0.902   5.009  10.069  0.6083  0.4369 -0.1388
13050SOL    HW250876   1.031   5.086  10.058  0.3126  0.7895 -1.2663
13051SOL     OW50877  13.589   7.756   5.363  0.1025  0.0211 -0.6357
13051SOL    HW150878  13.660   7.691   5.363  0.1136 -0.0102 -2.4456
13051SOL    HW250879  13.579   7.780   5.271  1.8961  4.5518  0.1051
13052SOL     OW50880   0.582   6.264   6.738 -0.1624 -0.0532  0.4017
13052SOL    HW150881   0.495   6.253   6.701 -0.1743  1.1939  0.0256
13052SOL    HW250882   0.630   6.186   6.710 -0.3672  0.5321 -1.6911
13053SOL     OW50883   7.901   3.455   7.673  0.1154  0.2775  0.0616
13053SOL    HW150884   7.840   3.381   7.676 -4.3309  3.4924 -0.3455
13053SOL    HW250885   7.929   3.467   7.764 -0.2304 -1.0377  0.3656
13054SOL     OW50886   7.481   5.530   8.903 -0.5416  0.1193 -0.1719
13054SOL    HW150887   7.385   5.527   8.897 -0.4745  0.0087 -1.3660
13054SOL    HW250888   7.502   5.469   8.974 -1.3364 -0.0702 -0.0828
13055SOL     OW50889  12.069   9.135   5.519  0.3474 -0.3404 -0.0752
13055SOL    HW150890  12.063   9.167   5.429 -0.2666 -2.8498 -1.0262
13055SOL    HW250891  11.992   9.078   5.529 -0.6258  1.2742  2.6944
13056SOL     OW50892   7.465   3.862  10.834 -0.8508 -0.9108 -0.1117
13056SOL    HW150893   7.492   3.952  10.818 -0.7898 -1.1136 -1.2895
13056SOL    HW250894   7.538   3.823  10.882 -1.3009 -0.0891  1.2926
13057SOL     OW50895   1.679   9.862   6.267 -0.0881 -0.3184 -0.4301
13057SOL    HW150896   1.596   9.901   6.295  0.0516 -0.2796 -0.0601
13057SOL    HW250897   1.672   9.855   6.172 -0.1838  0.4691 -0.4866
13058SOL     OW50898   5.078   0.062  12.426  0.0033 -0.3185  0.4018
13058SOL    HW150899   5.139   0.075  12.498  2.5422 -1.6414 -1.3738
13058SOL    HW250900   5.014  -0.002  12.460 -0.7095  1.3568  2.4048
13059SOL     OW50901  13.075  12.849   7.964 -0.1035 -0.8485 -0.1595
13059SOL    HW150902  13.036  12.921   7.914  0.5439 -1.1291 -1.0923
13059SOL    HW250903  13.066  12.773   7.907  1.1003 -1.0743 -0.0608
13060SOL     OW50904   8.160   9.319   9.556 -0.0484 -0.1565  0.8999
13060SOL    HW150905   8.132   9.229   9.543 -0.0619  0.0177 -0.4488
13060SOL    HW250906   8.084   9.371   9.529  0.7370  0.2798 -0.5600
13061SOL     OW50907   7.874   1.244   5.185 -0.4848  0.8759 -0.0370
13061SOL    HW150908   7.821   1.216   5.260 -1.1688 -1.3437 -1.2606
13061SOL    HW250909   7.950   1.186   5.186  0.6961  2.3649  0.2325
13062SOL     OW50910   2.004   5.342   6.149  0.0772 -0.5146  0.3837
13062SOL    HW150911   1.917   5.327   6.112 -0.3356  2.7314 -0.2111
13062SOL    HW250912   2.056   5.376   6.076  0.6328  1.4526  1.6283
13063SOL     OW50913   6.261   3.418   0.467 -0.1214 -0.4047 -0.6376
13063SOL    HW150914   6.262   3.471   0.388  1.6317 -0.1965 -0.5163
13063SOL    HW250915   6.263   3.327   0.436  1.1474 -0.3202 -0.8696
13064SOL     OW50916   4.391   6.862  10.213 -0.6016  0.1201  0.1012
13064SOL    HW150917   4.356   6.890  10.129  1.9903  0.7889 -0.8679
13064SOL    HW250918   4.328   6.799  10.246 -2.8595  1.5610 -1.2188
13065SOL     OW50919   2.345  12.588  10.769 -0.1611 -0.0453  0.5155
13065SOL    HW150920   2.339  12.618  10.860 -0.3326 -1.4984  1.0036
13065SOL    HW250921   2.435  12.558  10.759  0.4828  1.9912 -0.4499
13066SOL     OW50922  10.454   8.540   3.355 -0.5212 -0.1467 -0.3325
13066SOL    HW150923  10.435   8.580   3.270 -2.1411 -0.4763 -0.1612
13066SOL    HW250924  10.480   8.614   3.410 -4.1672  0.9670  0.1802
13067SOL     OW50925  11.775   4.457   3.092  0.1417  0.4840 -0.1679
13067SOL    HW150926  11.720   4.498   3.025  1.6437  0.6066 -1.3696
13067SOL    HW250927  11.765   4.363   3.077 -1.4412  0.4023  1.0717
13068SOL     OW50928  11.791   3.949   1.547  0.4171 -0.2637  0.0125
13068SOL    HW150929  11.782   4.026   1.491  1.0923  0.4167  0.8095
13068SOL    HW250930  11.829   3.983   1.628 -1.8666 -0.9450  1.4734
13069SOL     OW50931   0.145  11.932   9.435 -0.0728 -0.0163 -0.0905
13069SOL    HW150932   0.171  11.943   9.343 -0.7873  3.8428 -0.0151
13069SOL    HW250933   0.101  12.014   9.456  2.0204  0.2296  4.3516
13070SOL     OW50934   3.621   6.596  10.195 -0.4513 -0.1322 -0.0950
13070SOL    HW150935   3.706   6.632  10.167 -0.0976  0.2535  1.3865
13070SOL    HW250936   3.557   6.645  10.144  0.1912  0.0136 -0.7818
13071SOL     OW50937   1.329   3.916   9.490  0.3771 -0.4757  0.2098
13071SOL    HW150938   1.380   3.896   9.569  0.3916 -2.0677 -0.1522
13071SOL    HW250939   1.345   3.840   9.433  1.5718  1.3052 -1.9689
13072SOL     OW50940   0.327   7.894   0.764  0.0501 -0.3180  0.1035
13072SOL    HW150941   0.407   7.947   0.760  0.5630 -1.0876  0.1563
13072SOL    HW250942   0.271   7.941   0.826  0.1862  0.5843 -0.4391
13073SOL     OW50943   9.283  12.876  11.042 -0.8920  0.0097 -0.6502
13073SOL    HW150944   9.263  12.918  10.958 -0.2070  2.1677  0.2030
13073SOL    HW250945   9.221  12.914  11.104  0.8645  1.1422  0.5025
13074SOL     OW50946   5.095   8.064   1.468  0.5127  0.5269 -0.8298
13074SOL    HW150947   5.125   8.134   1.410  0.3811  2.2172  1.0713
13074SOL    HW250948   5.009   8.093   1.500  0.7013 -0.2183  0.4353
13075SOL     OW50949  12.711  11.098  10.945 -0.1687 -1.1516  0.1507
13075SOL    HW150950  12.714  11.184  10.988 -0.6104 -0.5851 -0.8896
13075SOL    HW250951  12.714  11.035  11.016 -2.2577 -0.2607  1.1409
13076SOL     OW50952   0.928   5.728   1.755 -0.5247 -0.3918  0.1647
13076SOL    HW150953   0.968   5.641   1.747 -2.6077 -1.2402 -3.3597
13076SOL    HW250954   0.999   5.789   1.737  0.1487 -1.6224 -1.6758
13077SOL     OW50955   6.410  10.375  10.190 -0.0861 -0.0296 -0.5139
13077SOL    HW150956   6.474  10.417  10.248  0.8782  0.4671 -1.8832
13077SOL    HW250957   6.326  10.413  10.216  0.3970  0.6028  0.1768
13078SOL     OW50958   6.846  12.352   8.573 -0.3049  0.0701  0.2361
13078SOL    HW150959   6.836  12.352   8.668 -0.8719 -1.1199  0.2003
13078SOL    HW250960   6.938  12.332   8.558 -0.2469  0.1104  0.5302
13079SOL     OW50961  12.339   1.216  11.417 -0.2752  0.5945  0.4567
13079SOL    HW150962  12.271   1.275  11.385 -0.6360 -0.5225 -0.9544
13079SOL    HW250963  12.313   1.130  11.385  1.2792 -0.0245  0.7537
13080SOL     OW50964  12.787   0.083   6.685  0.6206 -0.1373  0.0935
13080SOL    HW150965  12.752  -0.006   6.674 -2.3355  0.5134  2.7942
13080SOL    HW250966  12.742   0.134   6.617  0.2696 -0.2266  0.2581
13081SOL     OW50967  10.653   6.866   4.650 -0.2602  0.0385  0.3968
13081SOL    HW150968  10.600   6.834   4.724 -2.5734  1.7224 -0.4097
13081SOL    HW250969  10.646   6.961   4.655  2.4249  0.3474 -0.0535
13082SOL     OW50970   6.535   5.828   6.609 -1.1647  0.0455 -0.2742
13082SOL    HW150971   6.533   5.923   6.604 -0.3084  0.0315 -1.0579
13082SOL    HW250972   6.478   5.799   6.538 -0.5733 -0.0301 -0.7236
13083SOL     OW50973   4.342   3.018   4.078  0.3435 -0.3723 -0.2978
13083SOL    HW150974   4.394   3.098   4.088 -2.0215  1.0986  0.8338
13083SOL    HW250975   4.252   3.048   4.066 -0.4683 -2.8570 -1.1890
13084SOL     OW50976  13.421   3.179  13.321  0.2668 -0.4249  0.3672
13084SOL    HW150977  13.354   3.181  13.253  0.7995 -0.4216 -0.1572
13084SOL    HW250978  13.378   3.135  13.395 -0.0386 -1.1930 -0.2556
13085SOL     OW50979   9.584  10.697   7.980  0.0875 -0.2573 -0.1341
13085SOL    HW150980   9.571  10.780   7.933 -1.5670 -1.5883 -2.2515
13085SOL    HW250981   9.673  10.701   8.012 -0.3161  2.8228  0.8899
13086SOL     OW50982  12.256  11.678   5.737  0.0463 -0.0458 -0.1926
13086SOL    HW150983  12.318  11.692   5.809 -1.3971 -0.0077  1.0723
13086SOL    HW250984  12.250  11.582   5.729 -0.1822 -0.0535  0.0780
13087SOL     OW50985  11.538   9.643   3.010 -0.2653  0.0781  0.5879
13087SOL    HW150986  11.459   9.609   3.051  0.2146 -0.0031  1.4722
13087SOL    HW250987  11.602   9.572   3.020 -0.0719  0.1386 -0.1282
13088SOL     OW50988   9.764  13.377   8.086 -0.4983 -0.4063 -0.1622
13088SOL    HW150989   9.696  13.319   8.120 -0.1453 -1.2332 -0.8108
13088SOL    HW250990   9.846  13.340   8.118 -0.3848  1.4845  1.9335
13089SOL     OW50991   4.344   6.964   9.668  0.8244 -0.2176 -0.0013
13089SOL    HW150992   4.370   7.050   9.635  1.3236 -1.0598 -1.9481
13089SOL    HW250993   4.407   6.903   9.628 -0.4573 -1.6517  0.0618
13090SOL     OW50994   5.770   8.346   7.956 -0.7189  0.7111  0.1932
13090SOL    HW150995   5.713   8.372   7.884 -0.8029  0.7488  0.2730
13090SOL    HW250996   5.711   8.315   8.025 -0.5832 -0.3796 -0.1648
13091SOL     OW50997   9.152   0.448   8.528  0.6123  0.8502  0.3201
13091SOL    HW150998   9.069   0.413   8.496  1.1050 -0.5485  0.4965
13091SOL    HW250999   9.208   0.371   8.538  2.4214  1.8888 -1.1480
13092SOL     OW51000   9.786   8.265  12.323 -0.0213 -0.8631 -0.7014
13092SOL    HW151001   9.749   8.292  12.407  1.4441 -2.7044  0.6359
13092SOL    HW251002   9.870   8.224  12.346  0.1661 -1.9376 -3.0012
13093SOL     OW51003   0.391   4.275   7.173 -0.1942 -0.6849  0.4598
13093SOL    HW151004   0.308   4.316   7.197  0.2439  1.0478 -0.7715
13093SOL    HW251005   0.377   4.181   7.186 -2.4595 -0.4670 -0.0549
13094SOL     OW51006   5.315   9.894   3.468 -0.1443  0.0106 -0.0364
13094SOL    HW151007   5.362   9.846   3.537  0.7340  0.4393 -0.3263
13094SOL    HW251008   5.284   9.825   3.409 -0.3740 -0.3163  0.4556
13095SOL     OW51009  12.381   4.799   6.811 -0.6390 -0.1592  0.2736
13095SOL    HW151010  12.407   4.708   6.826 -3.0646 -1.1068 -0.6832
13095SOL    HW251011  12.357   4.802   6.718 -0.3714  1.5511  0.2233
13096SOL     OW51012   9.288   0.002  10.360  0.1981  0.5891 -0.4373
13096SOL    HW151013   9.382   0.016  10.351  0.5342 -1.6597 -1.2488
13096SOL    HW251014   9.278  -0.048  10.441 -0.5144  2.2088  0.5137
13097SOL     OW51015  11.661   5.494   0.412  0.1589  0.3555 -0.1757
13097SOL    HW151016  11.576   5.521   0.380  0.1520  0.9031  0.2868
13097SOL    HW251017  11.724   5.532   0.351  0.1442  1.3577  0.4124
13098SOL     OW51018   0.411   5.157  11.502  0.1983  0.2925 -0.2510
13098SOL    HW151019   0.488   5.139  11.448 -0.2228  0.0645 -0.7854
13098SOL    HW251020   0.355   5.080  11.490 -1.0048  1.2902 -1.4518
13099SOL     OW51021   9.876   0.702  12.740 -0.0560 -0.7814 -0.1717
13099SOL    HW151022   9.832   0.722  12.823 -1.0854 -0.1118 -0.8579
13099SOL    HW251023   9.853   0.611  12.722 -0.6707 -0.6172 -0.2253
13100SOL     OW51024   7.703   7.948   4.379  0.0094 -0.1387  0.3973
13100SOL    HW151025   7.614   7.969   4.351  0.5857  0.8801 -0.7828
13100SOL    HW251026   7.745   7.911   4.302  0.6450 -0.5008  0.9067
13101SOL     OW51027  12.465   0.934   6.555 -0.0182  0.0021 -0.0599
13101SOL    HW151028  12.501   0.846   6.562 -0.0410 -0.0766 -0.8584
13101SOL    HW251029  12.472   0.955   6.462  0.5494  1.0724  0.2063
13102SOL     OW51030   1.167   2.403  12.840 -0.2215 -0.0146  0.5624
13102SOL    HW151031   1.210   2.488  12.827 -1.7091  0.5405 -1.2009
13102SOL    HW251032   1.239   2.340  12.843  0.8322  1.0737 -0.3969
13103SOL     OW51033   9.363  12.379  13.496 -0.2425 -0.3686 -1.1542
13103SOL    HW151034   9.346  12.286  13.508  1.4278 -0.4042  2.2119
13103SOL    HW251035   9.326  12.420  13.574  1.1390  1.4568 -1.3949
13104SOL     OW51036   0.851   0.189   1.637 -0.0978  0.7192 -0.5809
13104SOL    HW151037   0.772   0.197   1.585 -0.8471  2.1817  0.7108
13104SOL    HW251038   0.827   0.132   1.710  0.5986 -0.3303 -1.1382
13105SOL     OW51039   0.264   9.547   3.395  0.1989  0.0108 -0.1599
13105SOL    HW151040   0.242   9.475   3.336  0.6060 -1.6586  1.6094
13105SOL    HW251041   0.311   9.505   3.468 -0.7801  1.8467  1.6420
13106SOL     OW51042   0.512  10.003   9.855 -0.5174  0.4389  1.1124
13106SOL    HW151043   0.501   9.977   9.946  0.7104 -1.0525  0.8864
13106SOL    HW251044   0.553   9.927   9.813 -2.8603  0.2813 -1.1723
13107SOL     OW51045   9.794   7.537   4.635 -0.1102  0.0272 -0.2742
13107SOL    HW151046   9.702   7.521   4.618 -0.2142  1.0701 -0.7434
13107SOL    HW251047   9.795   7.599   4.708  0.2179 -0.1443 -0.1318
13108SOL     OW51048  10.581  10.102   0.193 -0.2283 -0.3199  0.4816
13108SOL    HW151049  10.656  10.107   0.134  0.8753 -0.5151  1.8283
13108SOL    HW251050  10.595  10.022   0.243 -0.1861  0.7635  2.2495
13109SOL     OW51051   9.708   8.930  11.285 -0.5337 -0.2053  0.1211
13109SOL    HW151052   9.736   8.976  11.206 -0.7723  1.0206  0.7255
13109SOL    HW251053   9.743   8.842  11.275  0.4122  0.2547 -0.8214
13110SOL     OW51054   9.456   4.430   5.249  0.1351  0.0441  0.4813
13110SOL    HW151055   9.451   4.505   5.308  1.2150 -0.4781  1.2708
13110SOL    HW251056   9.543   4.437   5.209  0.1503 -0.6445  0.3834
13111SOL     OW51057   8.355   4.235  10.457 -0.1762  0.5125  0.0838
13111SOL    HW151058   8.437   4.186  10.464  0.6066  1.8226  0.4116
13111SOL    HW251059   8.288   4.168  10.441  1.0101 -0.5357 -0.6564
13112SOL     OW51060   4.233   9.318  11.633 -0.5423  0.2973 -0.2530
13112SOL    HW151061   4.204   9.235  11.669 -0.0370 -0.7860 -2.2043
13112SOL    HW251062   4.160   9.378  11.649 -1.5603 -0.9233 -0.1951
13113SOL     OW51063   4.407   0.632   4.129 -1.1160  0.0133 -0.5648
13113SOL    HW151064   4.408   0.710   4.074 -2.7866  0.3334 -0.1868
13113SOL    HW251065   4.335   0.579   4.094 -0.9028 -0.7044  0.0614
13114SOL     OW51066   8.648  12.002   8.797  0.0025 -0.7345  0.0370
13114SOL    HW151067   8.583  12.011   8.867  1.4232 -0.1091  1.3350
13114SOL    HW251068   8.726  12.046   8.832  0.5630  0.1876 -2.2059
13115SOL     OW51069   5.438   2.225   7.611 -0.1144  0.2364 -0.3004
13115SOL    HW151070   5.482   2.175   7.679 -0.8766  0.3721  0.3058
13115SOL    HW251071   5.455   2.176   7.530  0.2641 -0.2692  0.0787
13116SOL     OW51072   0.596   1.275   3.537 -0.1724 -0.3586  0.4695
13116SOL    HW151073   0.604   1.282   3.632 -0.2676 -0.6767  0.5023
13116SOL    HW251074   0.548   1.193   3.523 -1.4332  0.4097  0.1900
13117SOL     OW51075  12.528   2.902   8.670 -0.2478  0.2228 -0.6449
13117SOL    HW151076  12.608   2.953   8.654  0.0866  0.8676  2.4085
13117SOL    HW251077  12.557   2.829   8.725 -1.6816  0.1447  0.0410
13118SOL     OW51078  12.756   4.638   8.156 -0.3043 -0.0978 -0.0523
13118SOL    HW151079  12.705   4.618   8.077 -1.3448  1.1160  0.2944
13118SOL    HW251080  12.824   4.698   8.126 -0.9430  0.6780  0.0400
13119SOL     OW51081  12.706   9.440   7.047  0.1310  0.2154 -0.0322
13119SOL    HW151082  12.708   9.428   7.142  1.7809  1.4005  0.1307
13119SOL    HW251083  12.709   9.352   7.011  2.2660 -0.2077  1.0391
13120SOL     OW51084   5.939   0.399   4.244 -0.5488 -0.0344 -0.2580
13120SOL    HW151085   5.847   0.372   4.253 -0.1206 -0.9731  2.5953
13120SOL    HW251086   5.977   0.382   4.331  2.6420 -0.8544 -1.6675
13121SOL     OW51087   3.204   7.612   4.637  0.1559 -0.1879 -0.1361
13121SOL    HW151088   3.245   7.529   4.611 -0.6705 -0.1786 -1.5681
13121SOL    HW251089   3.126   7.585   4.687  0.2769 -0.2500  0.0226
13122SOL     OW51090   0.850  10.639  12.921 -0.5503  0.5825 -0.2834
13122SOL    HW151091   0.869  10.723  12.962 -1.4809  0.5275  0.2890
13122SOL    HW251092   0.835  10.579  12.995 -0.1649 -0.0282 -0.6847
13123SOL     OW51093  10.903  12.496   8.691 -0.2337 -0.0850  0.3782
13123SOL    HW151094  10.917  12.512   8.784 -2.3893 -0.6068  0.8434
13123SOL    HW251095  10.986  12.462   8.659  0.0579 -1.5263  2.4919
13124SOL     OW51096   2.624  10.578   3.244 -0.1913  0.5214 -0.3983
13124SOL    HW151097   2.563  10.574   3.170 -0.6943  1.7008 -0.0777
13124SOL    HW251098   2.671  10.495   3.241 -0.3522  0.4595 -1.9110
13125SOL     OW51099   4.016   5.272  12.597 -0.3620 -0.2317  0.1681
13125SOL    HW151100   4.021   5.357  12.639 -2.2907  0.3878 -0.7615
13125SOL    HW251101   3.932   5.272  12.552 -1.0494 -3.1391  1.2301
13126SOL     OW51102   9.207   3.502   6.595 -0.4656 -0.1921  0.1915
13126SOL    HW151103   9.274   3.519   6.529 -1.9904  1.4412 -1.0390
13126SOL    HW251104   9.235   3.550   6.672  0.5391 -0.8245  0.2368
13127SOL     OW51105   0.938   3.320   7.083  0.3323 -0.2023 -0.0296
13127SOL    HW151106   0.910   3.293   7.171  0.3425 -1.0825 -0.2861
13127SOL    HW251107   1.032   3.337   7.092  0.5971 -1.5180 -0.1347
13128SOL     OW51108   8.453  13.673   0.260 -0.5275 -0.3655  0.5869
13128SOL    HW151109   8.494  13.590   0.235 -0.1236  0.1867 -0.6642
13128SOL    HW251110   8.396  13.694   0.186 -0.0366  0.8544  0.5399
13129SOL     OW51111   1.425  10.139  11.738 -0.2228 -0.0222  0.4988
13129SOL    HW151112   1.447  10.047  11.747 -0.0308 -0.0618 -0.2963
13129SOL    HW251113   1.333  10.141  11.713 -0.3195  0.0197  0.8491
13130SOL     OW51114  10.891   8.358  11.226  0.0348  1.0060 -0.3969
13130SOL    HW151115  10.880   8.362  11.321 -0.8158  0.8297 -0.4860
13130SOL    HW251116  10.963   8.419  11.208  1.1809 -0.0080  0.5105
13131SOL     OW51117   2.389  10.667  11.932 -0.3786 -0.4278  0.0587
13131SOL    HW151118   2.440  10.591  11.960 -1.0588 -1.2465 -0.8838
13131SOL    HW251119   2.343  10.638  11.853 -1.0163  0.8153 -0.0514
13132SOL     OW51120   8.856   0.923   3.317 -0.0218  0.3506 -0.1643
13132SOL    HW151121   8.860   0.868   3.396  2.0941 -0.0536 -0.5032
13132SOL    HW251122   8.942   0.913   3.276 -0.1507  2.6579 -1.1233
13133SOL     OW51123   2.725  10.302   7.945 -0.3075  0.6152  0.0432
13133SOL    HW151124   2.722  10.378   7.888  0.4387  0.4722 -0.2035
13133SOL    HW251125   2.728  10.227   7.885 -1.4586  0.3553  0.2802
13134SOL     OW51126   2.811   9.981   0.644  0.8981  0.3838 -0.8431
13134SOL    HW151127   2.723   9.963   0.609  0.9190 -0.6005 -0.4120
13134SOL    HW251128   2.867   9.986   0.566  0.6203  0.0661 -1.0671
13135SOL     OW51129  12.921   0.525   1.958  0.6196  0.9762  0.3315
13135SOL    HW151130  12.956   0.540   2.046  2.2250 -4.1718  0.8650
13135SOL    HW251131  12.994   0.544   1.899  1.0459  0.0455  0.5489
13136SOL     OW51132   4.395   3.283   8.429  0.1278 -0.1778 -0.4115
13136SOL    HW151133   4.345   3.210   8.391  1.0129 -0.7931 -0.4353
13136SOL    HW251134   4.328   3.346   8.457 -0.5854  0.0458 -2.4629
13137SOL     OW51135   5.801   6.217   7.006 -0.1109  0.1051 -0.4258
13137SOL    HW151136   5.782   6.198   7.098 -0.2174 -0.0581 -0.4813
13137SOL    HW251137   5.894   6.198   6.996  0.2815  1.6666  0.0432
13138SOL     OW51138   2.332  11.499   2.743 -0.0944 -0.2874 -0.2516
13138SOL    HW151139   2.424  11.515   2.721  0.2954  0.0737  1.4479
13138SOL    HW251140   2.335  11.467   2.833 -1.6004 -0.8908 -0.3925
13139SOL     OW51141   4.254   6.607  12.029  0.2365  0.3018  0.6833
13139SOL    HW151142   4.329   6.597  11.971 -0.2057  0.4197  0.0792
13139SOL    HW251143   4.270   6.546  12.100  0.8665  0.2730  0.5166
13140SOL     OW51144   0.306   3.166   2.937  0.2603  0.0334 -0.4236
13140SOL    HW151145   0.360   3.125   2.870  0.5497  0.5069 -0.4842
13140SOL    HW251146   0.240   3.216   2.888 -0.8942 -1.3664 -0.3593
13141SOL     OW51147   0.202   9.174   7.517  0.4192  0.4519  0.7957
13141SOL    HW151148   0.252   9.180   7.435  0.8571 -0.3212  0.9937
13141SOL    HW251149   0.262   9.207   7.584  1.1425 -1.5663  1.2088
13142SOL     OW51150   7.541   5.977   5.404  0.6187  0.3024 -0.5005
13142SOL    HW151151   7.583   5.893   5.388  0.8583  0.0566  1.1613
13142SOL    HW251152   7.568   6.000   5.493 -1.0866  1.1447 -0.1583
13143SOL     OW51153  11.707  11.654   4.357  0.9487  1.0157 -0.6544
13143SOL    HW151154  11.643  11.695   4.299  0.6750 -0.2855 -1.3181
13143SOL    HW251155  11.786  11.707   4.346 -0.0181  2.7094  0.2637
13144SOL     OW51156   5.504   0.569   1.020 -0.0311  0.8401 -0.2119
13144SOL    HW151157   5.464   0.624   0.952 -1.1181  1.0786  0.5783
13144SOL    HW251158   5.436   0.562   1.087  0.1600 -1.2603 -0.1564
13145SOL     OW51159   5.752   0.163   4.220 -0.4839  0.0639  0.6001
13145SOL    HW151160   5.737   0.156   4.126 -1.7117 -0.8662  0.8266
13145SOL    HW251161   5.834   0.116   4.235  0.1258  0.9044 -0.1023
13146SOL     OW51162   9.175  10.282   6.975 -0.3435  0.2171 -0.3415
13146SOL    HW151163   9.135  10.368   6.967 -0.8219  0.1368  1.0196
13146SOL    HW251164   9.264  10.293   6.940 -0.7257  1.0005 -1.0893
13147SOL     OW51165   6.428   9.395   9.854  0.3059  0.0831  0.4100
13147SOL    HW151166   6.404   9.398   9.762 -0.1472  1.3256  0.5506
13147SOL    HW251167   6.363   9.451   9.897 -0.0946 -1.2466  1.6239
13148SOL     OW51168   5.035   5.030  10.121 -0.0015  0.9035 -0.2248
13148SOL    HW151169   4.946   5.032  10.156  0.3678 -1.8533  1.1559
13148SOL    HW251170   5.026   4.990  10.034 -0.1088  0.3224  0.0470
13149SOL     OW51171   3.375   6.997  12.229 -0.2651 -0.8012 -0.2293
13149SOL    HW151172   3.456   7.045  12.212 -0.8147 -0.5781 -2.4813
13149SOL    HW251173   3.339   7.038  12.308  1.1521 -0.0562  0.0621
13150SOL     OW51174   2.024   3.944   0.684 -0.2013 -0.1515  0.5383
13150SOL    HW151175   2.000   3.863   0.729 -2.2923  0.5553  0.8219
13150SOL    HW251176   2.100   3.976   0.733  0.1446 -1.5016  0.9342
13151SOL     OW51177   0.284   6.759   4.804 -0.4864 -0.5384  0.1587
13151SOL    HW151178   0.324   6.845   4.819 -1.8367  0.0990  0.2489
13151SOL    HW251179   0.352   6.696   4.828  0.4350  0.4996  0.3422
13152SOL     OW51180   3.919   2.504   1.050  0.1493 -0.4695 -0.2813
13152SOL    HW151181   3.893   2.545   1.132 -1.0094 -2.0890  0.2171
13152SOL    HW251182   4.008   2.473   1.065  1.0798  1.8268 -0.6989
13153SOL     OW51183   3.240   9.080   9.526  0.1928  0.3723  0.0099
13153SOL    HW151184   3.224   9.024   9.450  0.0404 -2.2015  1.8021
13153SOL    HW251185   3.336   9.090   9.528  0.2139  0.2655 -0.3879
13154SOL     OW51186  10.453  10.122   7.315  0.9455  0.0570  0.0157
13154SOL    HW151187  10.476  10.046   7.262 -0.9439 -0.3502 -0.2854
13154SOL    HW251188  10.473  10.197   7.258  0.5887 -0.3075 -0.6048
13155SOL     OW51189   7.569   4.186   0.802  0.3640 -0.2267 -0.5163
13155SOL    HW151190   7.536   4.230   0.880 -0.5344 -0.1313 -0.9417
13155SOL    HW251191   7.525   4.230   0.729  1.7679  0.2187 -1.1485
13156SOL     OW51192   2.653   4.620   6.702  0.4909 -0.3516 -0.0132
13156SOL    HW151193   2.745   4.603   6.682  0.2475 -0.1140 -1.4582
13156SOL    HW251194   2.655   4.687   6.771  1.3886 -0.7810  0.3935
13157SOL     OW51195  12.869   2.634   7.283 -0.4462 -0.3048  0.6818
13157SOL    HW151196  12.861   2.669   7.195 -0.6984  2.2359  1.6249
13157SOL    HW251197  12.797   2.571   7.291 -1.1829  0.3563 -0.5079
13158SOL     OW51198   1.646   3.141   4.549 -0.3615 -0.2572  0.0032
13158SOL    HW151199   1.603   3.219   4.585  0.7093 -0.1899  1.2505
13158SOL    HW251200   1.662   3.163   4.457  1.7956  1.9505  0.7600
13159SOL     OW51201  12.675   0.293   5.776  0.6747  0.8537  0.0551
13159SOL    HW151202  12.606   0.238   5.813  1.7006 -0.3211  0.2916
13159SOL    HW251203  12.686   0.262   5.687 -0.8772  2.8046 -0.8944
13160SOL     OW51204   9.231   4.284   2.339  0.3803 -0.1130  0.0569
13160SOL    HW151205   9.305   4.290   2.278 -0.1421  1.1844 -0.4914
13160SOL    HW251206   9.174   4.218   2.300  0.1184  0.6083 -0.8063
13161SOL     OW51207  12.012   8.985   6.309  0.1170  0.0806 -0.0379
13161SOL    HW151208  11.991   9.057   6.369 -1.3793  0.0069 -0.4140
13161SOL    HW251209  11.963   9.006   6.230  1.0111 -0.5052 -0.7596
13162SOL     OW51210   6.674   2.786  10.497 -0.3589 -0.2370  0.5263
13162SOL    HW151211   6.692   2.866  10.546  0.4168 -0.2909  0.3434
13162SOL    HW251212   6.754   2.770  10.447 -0.8364 -0.6284 -0.1367
13163SOL     OW51213   4.386   1.610   4.422 -0.5581 -0.1353 -0.4936
13163SOL    HW151214   4.353   1.526   4.454 -1.3151  0.0282 -0.8154
13163SOL    HW251215   4.395   1.664   4.500 -1.1080 -0.1671 -0.4090
13164SOL     OW51216  10.656  11.307   8.206  0.4892  0.3014 -0.2368
13164SOL    HW151217  10.748  11.303   8.234  0.6306  0.3215 -0.6874
13164SOL    HW251218  10.607  11.316   8.287  0.8624 -0.0723  0.0397
13165SOL     OW51219   6.977   3.376   7.130 -0.1004  0.2554  0.1495
13165SOL    HW151220   6.887   3.394   7.102 -1.0588  0.7040  3.2216
13165SOL    HW251221   6.972   3.364   7.224  2.7030 -2.4676  0.1158
13166SOL     OW51222   2.915   6.350   2.289  0.0498  0.0086  0.2715
13166SOL    HW151223   2.906   6.301   2.371  2.0652 -0.4370  0.2831
13166SOL    HW251224   2.830   6.342   2.246 -1.1168  0.4129  2.3782
13167SOL     OW51225   9.907   2.500   6.883 -0.0546  0.6808 -0.0228
13167SOL    HW151226   9.949   2.427   6.929  0.0193  1.4366  1.1633
13167SOL    HW251227   9.818   2.468   6.865 -0.5348  0.8056  1.8686
13168SOL     OW51228   6.190  10.045   9.572 -0.2541  0.5780 -0.4567
13168SOL    HW151229   6.276  10.004   9.569 -0.3564  0.3391 -0.1217
13168SOL    HW251230   6.196  10.117   9.509 -0.3502 -0.4809 -1.7174
13169SOL     OW51231   1.282   6.069   1.437  0.7175 -0.7066  0.2341
13169SOL    HW151232   1.294   6.105   1.524 -2.5317 -0.4721  0.7132
13169SOL    HW251233   1.301   6.143   1.378  3.7272 -1.0927  0.6072
13170SOL     OW51234  10.850  11.788   8.851 -0.3893  0.4728  0.0297
13170SOL    HW151235  10.898  11.865   8.881  2.2372 -0.9024 -0.2971
13170SOL    HW251236  10.881  11.774   8.761 -0.9818 -0.8041 -0.0019
13171SOL     OW51237   8.913   3.561   5.918  0.2783  0.4411 -0.0208
13171SOL    HW151238   8.838   3.553   5.860  1.1475 -1.1676 -0.9718
13171SOL    HW251239   8.955   3.643   5.891  0.4927 -0.1201 -1.4887
13172SOL     OW51240   0.147   9.097  12.791  0.0570  0.0333 -0.3040
13172SOL    HW151241   0.125   9.178  12.745  0.5165 -0.0052 -0.6005
13172SOL    HW251242   0.219   9.121  12.849 -0.5216  0.0843  0.4198
13173SOL     OW51243   0.898   1.576   4.529 -0.1867 -0.4081  0.0258
13173SOL    HW151244   0.954   1.548   4.602  0.2413 -1.7752 -0.7813
13173SOL    HW251245   0.913   1.510   4.461  0.4855  1.5289 -1.8477
13174SOL     OW51246   5.930  10.033  13.360 -0.9113 -0.4628  0.1972
13174SOL    HW151247   5.978  10.095  13.415 -0.3351  0.5067 -1.3343
13174SOL    HW251248   5.969   9.948  13.379 -0.1945 -0.0246  0.7141
13175SOL     OW51249   6.045  10.566   6.871  0.4582 -0.2822  0.2678
13175SOL    HW151250   6.121  10.507   6.868 -1.1550 -2.4393 -1.4862
13175SOL    HW251251   6.056  10.622   6.795  0.7813  0.0885  0.5833
13176SOL     OW51252   0.581   7.701   1.759 -0.7720 -0.4443 -0.1910
13176SOL    HW151253   0.652   7.637   1.769  0.5870  1.0976  0.3990
13176SOL    HW251254   0.598   7.741   1.674 -1.1341 -0.2850 -0.1876
13177SOL     OW51255   1.591   0.039   8.751  0.0263  0.3112 -0.5001
13177SOL    HW151256   1.561   0.128   8.734 -0.8633 -0.1697 -1.6461
13177SOL    HW251257   1.682   0.038   8.723  0.9283  1.5288  2.0593
13178SOL     OW51258  11.290   2.980   1.630  0.5370 -0.2638  0.0840
13178SOL    HW151259  11.280   2.893   1.591  2.6409 -0.1365 -0.8874
13178SOL    HW251260  11.378   2.979   1.668  0.4442  1.3239  0.4061
13179SOL     OW51261  13.599   6.795   3.380  0.1499  0.0842 -0.0593
13179SOL    HW151262  13.610   6.838   3.465  0.9891  0.6870 -0.4534
13179SOL    HW251263  13.660   6.841   3.322 -0.9898  0.2213 -1.1938
13180SOL     OW51264  10.774   3.346   9.803 -0.1253  0.6609  0.0437
13180SOL    HW151265  10.737   3.350   9.715  0.6761  2.9816 -0.2479
13180SOL    HW251266  10.846   3.283   9.796 -1.3914 -0.8140 -0.3602
13181SOL     OW51267  10.569   8.654   4.745  0.1049 -0.0477 -0.3129
13181SOL    HW151268  10.509   8.729   4.744  1.3604  1.0203 -2.1939
13181SOL    HW251269  10.573   8.625   4.654  1.6134 -0.7530 -0.0589
13182SOL     OW51270  12.102   4.074   6.885  0.0479  0.3927  0.0243
13182SOL    HW151271  12.171   4.036   6.940  0.2569 -1.8873 -1.6698
13182SOL    HW251272  12.035   4.102   6.947  0.8678 -0.8060  1.5191
13183SOL     OW51273   7.905   2.722   7.682  0.4322 -0.3097 -0.0956
13183SOL    HW151274   7.836   2.697   7.621  1.6539 -1.1624 -1.1767
13183SOL    HW251275   7.889   2.666   7.759 -1.8902  1.6822  1.0114
13184SOL     OW51276   0.650   1.861   4.049  0.3892  0.1708 -0.4510
13184SOL    HW151277   0.652   1.768   4.026  1.2354 -0.4627  1.8889
13184SOL    HW251278   0.733   1.876   4.095 -0.3751  1.7203  0.5041
13185SOL     OW51279   4.500  10.899  13.669 -0.1722 -0.3231 -0.2930
13185SOL    HW151280   4.457  10.984  13.659  0.0452 -0.3865 -1.9282
13185SOL    HW251281   4.568  10.914  13.735  0.7165  1.1138 -1.4965
13186SOL     OW51282   1.521   6.565  11.084  0.3996  0.0054  0.0452
13186SOL    HW151283   1.535   6.527  11.170 -1.2724  0.6044  0.6135
13186SOL    HW251284   1.552   6.656  11.092 -0.1576  0.1900  0.1563
13187SOL     OW51285   3.269   0.135   0.452  0.6943  0.3274  0.3533
13187SOL    HW151286   3.299   0.105   0.537  1.3163 -3.0833 -0.9286
13187SOL    HW251287   3.349   0.158   0.405  0.9352 -2.6046 -0.8806
13188SOL     OW51288   0.623   1.430  11.885 -0.4383  0.9657  0.3918
13188SOL    HW151289   0.647   1.498  11.821 -0.4141  2.6380  2.1023
13188SOL    HW251290   0.547   1.465  11.930 -1.5054 -0.9496  0.1888
13189SOL     OW51291   9.593  12.102   1.148  0.3281  0.1733  0.0831
13189SOL    HW151292   9.668  12.046   1.172 -0.3734 -1.3074 -1.0047
13189SOL    HW251293   9.529  12.041   1.110 -1.7355  1.2855  1.5910
13190SOL     OW51294   9.719   1.852   2.064  0.3449  0.0585  0.7818
13190SOL    HW151295   9.780   1.785   2.033 -0.6916  0.0007 -1.3514
13190SOL    HW251296   9.737   1.927   2.008  0.5691  1.1404  2.2509
13191SOL     OW51297   0.737   8.961  12.459 -0.0811 -0.1053  0.6129
13191SOL    HW151298   0.734   8.983  12.366  0.3703 -0.6958  0.4541
13191SOL    HW251299   0.764   9.042  12.502  1.1113 -0.2044  0.0837
13192SOL     OW51300   9.627   0.280   9.955  0.3658 -1.0070 -0.0109
13192SOL    HW151301   9.617   0.374   9.970 -0.0298 -0.3753 -3.4135
13192SOL    HW251302   9.701   0.274   9.895 -0.8599 -2.6546 -1.4331
13193SOL     OW51303  13.228   4.001  13.725  0.0904 -0.0750  0.8468
13193SOL    HW151304  13.231   4.053  13.805 -2.1433  0.5912  0.5713
13193SOL    HW251305  13.164   4.045  13.669  0.1699 -1.5804 -0.5325
13194SOL     OW51306   1.382  11.591   3.571  0.0108 -0.2788  0.4194
13194SOL    HW151307   1.312  11.525   3.568 -0.6754  0.4704 -0.6574
13194SOL    HW251308   1.336  11.674   3.586  0.5744  0.3145 -0.9756
13195SOL     OW51309   1.126   7.420   1.569  0.6209 -0.7263  0.0193
13195SOL    HW151310   1.212   7.445   1.602  0.9719 -0.0229 -1.3786
13195SOL    HW251311   1.132   7.325   1.555  0.9166 -0.8016  0.6275
13196SOL     OW51312   4.043   8.930   1.584  0.0799 -0.2156  0.0137
13196SOL    HW151313   4.002   8.849   1.553  0.2181 -0.4315  0.3896
13196SOL    HW251314   4.115   8.900   1.639  1.5090  0.1364 -1.5915
13197SOL     OW51315  11.913  11.717   0.609 -0.1772  0.4655  0.0021
13197SOL    HW151316  11.966  11.795   0.598  0.4792  0.2761  1.6279
13197SOL    HW251317  11.881  11.697   0.520  3.5061 -0.1971 -1.3374
13198SOL     OW51318   6.860   0.158  11.257 -0.2097  0.2002  0.5964
13198SOL    HW151319   6.903   0.132  11.175  0.4081 -1.0251  1.2674
13198SOL    HW251320   6.776   0.111  11.256 -0.6097  0.9161  0.2521
13199SOL     OW51321   1.285   2.093   5.330 -0.0353  0.3750  0.2163
13199SOL    HW151322   1.319   2.183   5.335 -0.2312  0.4685 -0.0693
13199SOL    HW251323   1.303   2.055   5.416  0.5705  0.5001  0.1479
13200SOL     OW51324   4.720   2.733   9.088  0.1801  0.1916  0.0141
13200SOL    HW151325   4.802   2.683   9.086  0.9536  1.3292  1.3966
13200SOL    HW251326   4.711   2.767   8.999 -1.3656 -3.7822 -1.5751
13201SOL     OW51327  13.254   3.670   0.948  0.3621 -0.4219 -0.6724
13201SOL    HW151328  13.172   3.684   0.899 -0.4869  0.4255  0.9200
13201SOL    HW251329  13.319   3.722   0.901 -0.5394  0.7693 -0.6493
13202SOL     OW51330   7.264   6.720   8.779  0.2339  0.0785 -0.5078
13202SOL    HW151331   7.345   6.679   8.810 -0.4494 -1.2777 -0.4391
13202SOL    HW251332   7.251   6.796   8.837 -0.1846 -1.5065  1.5825
13203SOL     OW51333   4.489  11.385   7.607  0.3595  0.2771  0.6327
13203SOL    HW151334   4.442  11.454   7.653  0.6610  0.2231  1.0292
13203SOL    HW251335   4.459  11.391   7.516  0.9090  1.3729  0.5208
13204SOL     OW51336  10.482   8.956   5.041 -0.0518  0.0369  0.9225
13204SOL    HW151337  10.427   8.928   5.114  1.0193 -0.6550  1.4849
13204SOL    HW251338  10.571   8.931   5.066  0.5654  1.3006  0.1119
13205SOL     OW51339   4.777   7.332  10.049  0.6806 -0.2164 -0.7305
13205SOL    HW151340   4.717   7.313   9.977  1.6191 -0.7852 -1.3925
13205SOL    HW251341   4.826   7.250  10.061  0.3980 -0.2014  0.7080
13206SOL     OW51342   8.211  11.300   3.169  1.1140  0.2947 -0.2182
13206SOL    HW151343   8.190  11.295   3.262  0.7164 -2.7971 -0.3471
13206SOL    HW251344   8.136  11.343   3.129  1.3523  1.7878  0.8608
13207SOL     OW51345   9.056  13.353   1.525 -0.2807  0.1764  0.4157
13207SOL    HW151346   9.030  13.315   1.441  0.4043  1.2394 -0.2991
13207SOL    HW251347   9.033  13.286   1.590  0.9338 -1.4965 -0.7892
13208SOL     OW51348   5.001   8.948   6.101  0.1806 -0.5599  0.6650
13208SOL    HW151349   4.982   8.857   6.080  1.3949 -0.8901  0.9385
13208SOL    HW251350   5.092   8.961   6.075 -0.3297  0.9356 -0.5148
13209SOL     OW51351   7.037   0.877   9.262  0.0465  0.4405  0.2894
13209SOL    HW151352   7.034   0.925   9.179  0.8556 -0.5443 -0.3288
13209SOL    HW251353   7.120   0.902   9.302  0.6334 -0.6645 -0.1956
13210SOL     OW51354  13.093  10.482   4.529 -0.4801  0.0695 -0.2222
13210SOL    HW151355  13.038  10.450   4.600 -1.3634 -0.2777 -1.0431
13210SOL    HW251356  13.103  10.575   4.547  0.5307 -0.2632  1.1400
13211SOL     OW51357   1.772   4.413   1.956  0.5393  0.2472  0.1000
13211SOL    HW151358   1.816   4.443   2.035  0.8620  1.0774 -0.3835
13211SOL    HW251359   1.697   4.362   1.988  0.1467  1.3247  0.9491
13212SOL     OW51360   8.588   3.672   0.657 -0.2754  0.2353 -0.3706
13212SOL    HW151361   8.525   3.604   0.681  0.7011 -1.0296 -1.2413
13212SOL    HW251362   8.674   3.634   0.675  0.2821  1.8472  0.5976
13213SOL     OW51363   1.207  10.310   6.094  0.5279 -0.3504 -0.0159
13213SOL    HW151364   1.249  10.373   6.153 -2.8109  0.7278  1.4791
13213SOL    HW251365   1.214  10.350   6.008 -1.3906  2.2332  0.8614
13214SOL     OW51366   0.992   5.281  11.973  0.1362  0.2840 -0.0608
13214SOL    HW151367   1.007   5.292  11.879  0.9352  0.1221  0.0427
13214SOL    HW251368   1.078   5.295  12.013 -0.2234  0.4734  0.6603
13215SOL     OW51369  11.420  11.637   5.361 -0.0265 -0.0396  0.2860
13215SOL    HW151370  11.485  11.580   5.321 -0.3717 -1.0231  1.0923
13215SOL    HW251371  11.419  11.715   5.305 -0.5569 -1.3690 -1.6509
13216SOL     OW51372   8.083   7.467   1.976 -0.1309  0.3690  0.5222
13216SOL    HW151373   8.026   7.533   2.014 -1.0322 -0.6500  0.9838
13216SOL    HW251374   8.126   7.512   1.903 -1.4240  1.1933  0.2378
13217SOL     OW51375   6.016   8.416   5.577 -0.0032 -0.0205 -0.4930
13217SOL    HW151376   6.020   8.389   5.486 -1.7378  0.2581 -0.6826
13217SOL    HW251377   6.058   8.502   5.579 -0.5779  0.2771 -1.1603
13218SOL     OW51378   7.719  10.294  12.810  0.5958 -0.8143 -0.2943
13218SOL    HW151379   7.778  10.270  12.739  1.4922  1.5468 -0.4112
13218SOL    HW251380   7.777  10.324  12.880 -0.4080  1.3765 -0.3339
13219SOL     OW51381  10.608   3.019   9.802  0.0186  0.0657  0.3210
13219SOL    HW151382  10.575   3.089   9.859 -0.3813 -0.0497  0.2276
13219SOL    HW251383  10.703   3.018   9.819 -0.0581  0.2245  0.7706
13220SOL     OW51384   8.543   4.346  12.477  0.4866 -0.3571 -0.0471
13220SOL    HW151385   8.494   4.405  12.419  1.8126 -0.1619 -1.0092
13220SOL    HW251386   8.508   4.259  12.458 -0.7772 -0.0214  0.6445
13221SOL     OW51387  13.700  10.250  11.358 -0.8347  0.1664 -0.4161
13221SOL    HW151388  13.789  10.282  11.347 -1.4031  1.2954 -2.3394
13221SOL    HW251389  13.710  10.163  11.397  1.2989 -0.8251 -2.8405
13222SOL     OW51390  11.405   1.225   4.147 -0.0572  0.3177 -0.4245
13222SOL    HW151391  11.480   1.280   4.124  0.2117 -0.7957 -2.4236
13222SOL    HW251392  11.331   1.285   4.152  1.0932  1.7579  3.2964
13223SOL     OW51393  10.150   6.862   8.542 -0.4557  0.1895  0.4505
13223SOL    HW151394  10.143   6.783   8.487 -0.2669 -0.8885  1.9162
13223SOL    HW251395  10.216   6.915   8.499 -1.2105 -0.0160 -1.0567
13224SOL     OW51396   8.339  13.213   0.510 -0.4312 -0.6687  0.5898
13224SOL    HW151397   8.251  13.210   0.548  0.3301 -1.0012  2.4339
13224SOL    HW251398   8.338  13.146   0.442 -2.1168  0.5537 -0.6707
13225SOL     OW51399   9.129  13.124   8.485  0.3482  0.1693  0.2613
13225SOL    HW151400   9.053  13.170   8.521  0.5880  0.0281  0.9541
13225SOL    HW251401   9.177  13.192   8.437 -0.7587  0.0384 -1.0884
13226SOL     OW51402  10.227  13.526   9.988 -0.2084 -0.6719 -0.6120
13226SOL    HW151403  10.138  13.515  10.021  0.1624 -0.0654  0.6329
13226SOL    HW251404  10.261  13.601  10.035  0.6778 -0.3437 -1.7243
13227SOL     OW51405   5.177   9.486   3.154  0.3405 -0.0234 -0.6401
13227SOL    HW151406   5.271   9.495   3.142  0.4163 -1.3623 -1.2459
13227SOL    HW251407   5.142   9.493   3.065 -0.2420  1.3703 -0.3311
13228SOL     OW51408   9.082   2.834   8.232  0.1703  0.4899  0.1099
13228SOL    HW151409   9.095   2.754   8.181 -0.1298 -0.1189  0.9721
13228SOL    HW251410   8.987   2.842   8.242  0.2533 -0.1153  1.6563
13229SOL     OW51411   8.566  10.819  10.754  0.4987  0.4081  0.2483
13229SOL    HW151412   8.649  10.854  10.722  1.0192 -1.4227 -0.5839
13229SOL    HW251413   8.511  10.814  10.676 -0.1071  0.8336  0.6442
13230SOL     OW51414   7.175   8.830  13.224  0.3871  0.1179  0.0585
13230SOL    HW151415   7.186   8.907  13.168  2.0118 -0.3207 -0.2596
13230SOL    HW251416   7.263   8.793  13.233 -0.5620 -2.7989 -1.3433
13231SOL     OW51417  10.333   9.859  12.321  0.2986  0.2499 -0.9518
13231SOL    HW151418  10.390   9.935  12.306  1.3071 -0.7861 -2.6577
13231SOL    HW251419  10.247   9.889  12.291  0.3885  1.1417 -0.3565
13232SOL     OW51420  11.594   4.021   2.063  0.1474  0.0724 -0.7217
13232SOL    HW151421  11.553   3.946   2.107  0.2274  1.1068  1.2159
13232SOL    HW251422  11.650   3.982   1.996 -0.6218 -1.5408 -0.4743
13233SOL     OW51423   2.710   0.733  12.293 -0.3906  0.2370 -0.3899
13233SOL    HW151424   2.786   0.790  12.279  0.6345 -0.9814  0.0369
13233SOL    HW251425   2.727   0.657  12.238 -2.9543  1.3374 -2.9320
13234SOL     OW51426  11.977   2.468   2.721  0.1610 -0.5141 -0.0447
13234SOL    HW151427  11.962   2.384   2.678  0.8629 -0.9002  0.4481
13234SOL    HW251428  11.934   2.532   2.664  0.7057 -1.0589 -1.0998
13235SOL     OW51429   6.238   4.316  10.653  0.1919 -0.1114 -0.4599
13235SOL    HW151430   6.328   4.329  10.626 -0.9227  2.9036 -3.3404
13235SOL    HW251431   6.223   4.381  10.722 -0.1396  0.3702 -0.9807
13236SOL     OW51432   9.873  13.561   6.525 -0.1572  0.0020  0.2929
13236SOL    HW151433   9.934  13.497   6.487  0.8937  0.5955  0.9403
13236SOL    HW251434   9.869  13.538   6.618 -1.4601 -0.4365  0.1546
13237SOL     OW51435   0.628   2.894   2.870  0.0432 -0.0948 -0.2531
13237SOL    HW151436   0.665   2.830   2.809 -0.2269  0.4309 -0.9693
13237SOL    HW251437   0.546   2.853   2.900  0.6836 -0.8152  0.5743
13238SOL     OW51438   4.631   2.593   8.398 -0.4713  0.3140 -0.2935
13238SOL    HW151439   4.683   2.589   8.478 -0.7467  0.8614 -0.0825
13238SOL    HW251440   4.597   2.683   8.396 -1.6888 -0.1310 -0.2384
13239SOL     OW51441   5.447   9.081   2.702  0.5711  0.0875 -0.3486
13239SOL    HW151442   5.387   9.079   2.627  0.0029  1.8365  0.0227
13239SOL    HW251443   5.516   9.142   2.676  0.8952 -0.0539  0.1779
13240SOL     OW51444   1.520   2.800   4.777 -0.0821 -0.1149 -0.3498
13240SOL    HW151445   1.509   2.787   4.872 -2.2803  2.8654 -0.0755
13240SOL    HW251446   1.432   2.819   4.745  0.8888  0.7875 -2.6918
13241SOL     OW51447   4.211   8.760  11.509 -0.0701 -0.7148  0.6843
13241SOL    HW151448   4.189   8.723  11.595  0.2897 -1.1868  0.5739
13241SOL    HW251449   4.239   8.685  11.457 -2.9952 -0.9464 -0.7690
13242SOL     OW51450  10.899   1.667  12.867 -0.3386  0.0151  0.3565
13242SOL    HW151451  10.965   1.617  12.820  1.1666  0.6028  1.7357
13242SOL    HW251452  10.830   1.604  12.887  0.0218 -0.7329 -0.6919
13243SOL     OW51453  10.655  13.507   7.426 -0.3391  0.2692  0.3410
13243SOL    HW151454  10.615  13.508   7.339 -0.7722 -0.7465  0.5164
13243SOL    HW251455  10.702  13.590   7.431 -1.6747  1.1032 -0.2178
13244SOL     OW51456   8.854  11.906   2.589  0.2728  0.0144  0.1062
13244SOL    HW151457   8.823  11.818   2.566  0.7220 -0.5038  1.3981
13244SOL    HW251458   8.845  11.911   2.684  0.8716  1.1284  0.1245
13245SOL     OW51459   8.162  11.163   0.603  0.0407  0.5339  0.2603
13245SOL    HW151460   8.082  11.208   0.574 -0.6702  0.5946  2.1780
13245SOL    HW251461   8.226  11.233   0.616  0.1972  0.5583 -0.5937
13246SOL     OW51462   2.146   6.985   5.738  0.0582  0.3332  0.6139
13246SOL    HW151463   2.052   6.978   5.725  0.0773  1.2298 -0.1387
13246SOL    HW251464   2.180   7.014   5.653  1.1167 -0.7633  0.6262
13247SOL     OW51465   5.525   8.047   5.223  0.0396  0.9403 -0.7958
13247SOL    HW151466   5.441   8.038   5.179 -0.0961  1.1838 -0.5872
13247SOL    HW251467   5.561   7.958   5.225 -0.5748  0.7077 -0.1654
13248SOL     OW51468   2.737   2.045   9.705  0.5759 -0.0860 -0.1146
13248SOL    HW151469   2.734   1.992   9.785 -1.2373  0.9800  0.5974
13248SOL    HW251470   2.823   2.085   9.706  0.4069  0.2992  1.6139
13249SOL     OW51471   3.266   9.921   7.754 -0.1302  0.2094  0.6316
13249SOL    HW151472   3.333   9.988   7.769 -0.3034 -0.0432  2.8103
13249SOL    HW251473   3.267   9.868   7.833 -2.4531 -0.1951  0.4609
13250SOL     OW51474  12.611   2.572   6.143  0.0506 -0.0768  0.0598
13250SOL    HW151475  12.683   2.621   6.104 -0.3973  0.1202 -0.5201
13250SOL    HW251476  12.560   2.540   6.069 -0.3378 -0.4034  0.4618
13251SOL     OW51477   1.490   3.450   4.093  0.5617 -0.5345 -0.1768
13251SOL    HW151478   1.421   3.389   4.120  1.8835 -2.1081 -0.1263
13251SOL    HW251479   1.493   3.515   4.163 -0.4135 -0.8293  0.1604
13252SOL     OW51480  11.274   0.013   4.809 -0.2373 -0.4174 -0.3179
13252SOL    HW151481  11.211   0.023   4.881  0.1662  1.8710 -0.2219
13252SOL    HW251482  11.220   0.002   4.731 -0.7551  0.3060 -0.0748
13253SOL     OW51483   4.716  12.574   9.189  0.2428  0.5223  0.1591
13253SOL    HW151484   4.804  12.575   9.227  0.3964  1.4070 -0.1926
13253SOL    HW251485   4.663  12.625   9.250  0.3634  1.4513 -0.4959
13254SOL     OW51486   8.383   3.110   2.614 -0.7072  0.3104 -0.3415
13254SOL    HW151487   8.468   3.090   2.654 -0.6424  0.4545 -0.4063
13254SOL    HW251488   8.335   3.028   2.619  0.6382 -0.8465 -3.3536
13255SOL     OW51489  10.303   7.892   4.734  0.0080 -0.7885 -0.3821
13255SOL    HW151490  10.321   7.835   4.659  0.0925 -0.7253 -0.4109
13255SOL    HW251491  10.216   7.867   4.764  0.8044 -2.2697  0.8101
13256SOL     OW51492   9.200   7.316  11.326 -0.2706  0.0208  0.2454
13256SOL    HW151493   9.180   7.224  11.309  0.0951 -0.3704  1.7246
13256SOL    HW251494   9.120   7.351  11.365  0.6915 -0.7172  3.1982
13257SOL     OW51495  12.205   7.160   1.382  0.2503  0.0026 -0.5825
13257SOL    HW151496  12.255   7.106   1.443 -3.0456 -0.2948  2.1628
13257SOL    HW251497  12.232   7.250   1.401  2.0650 -0.3007 -1.5474
13258SOL     OW51498  11.023   5.102   6.900  0.0572  0.2534 -0.2968
13258SOL    HW151499  11.098   5.072   6.849 -1.0749  0.3988 -2.1620
13258SOL    HW251500  10.951   5.106   6.836 -2.5731 -3.4508  2.0090
13259SOL     OW51501   8.451   4.916   1.370 -0.4356 -0.1696 -0.0465
13259SOL    HW151502   8.499   4.964   1.303  0.1921  1.6190  1.5736
13259SOL    HW251503   8.518   4.866   1.416 -0.5795 -0.0075  0.3444
13260SOL     OW51504   7.160   9.001   1.702 -0.3235  0.3538 -0.1958
13260SOL    HW151505   7.201   9.075   1.657 -0.1625  0.6793  0.4587
13260SOL    HW251506   7.193   8.924   1.657 -0.8516  0.6946 -1.1816
13261SOL     OW51507   4.717   7.705  13.206  0.1424 -0.1153 -0.3156
13261SOL    HW151508   4.795   7.651  13.212  0.5210  0.4168 -0.4486
13261SOL    HW251509   4.669   7.668  13.132  0.4425 -0.2192 -0.4599
13262SOL     OW51510   1.009   5.132   7.758 -0.0650  0.8099 -0.0836
13262SOL    HW151511   1.006   5.141   7.854  0.1104  2.9385 -0.2401
13262SOL    HW251512   1.066   5.057   7.743 -0.3797  0.2109  1.4778
13263SOL     OW51513   7.276   0.983   9.352  0.6428 -0.4593 -0.1959
13263SOL    HW151514   7.360   0.936   9.357  1.0035 -0.0096 -1.5721
13263SOL    HW251515   7.293   1.065   9.398  1.1061 -0.1849 -0.8361
13264SOL     OW51516   5.616  12.920   4.352 -0.1590  0.0041 -0.4298
13264SOL    HW151517   5.581  12.864   4.282 -0.7812 -0.2126  0.0510
13264SOL    HW251518   5.704  12.885   4.367 -0.6019 -0.9836 -0.0107
13265SOL     OW51519   4.166   6.818  11.355  0.2329  0.2222  0.4127
13265SOL    HW151520   4.218   6.813  11.435  1.5387  0.4676 -0.3958
13265SOL    HW251521   4.087   6.865  11.382  0.7871  0.5831  1.4872
13266SOL     OW51522   3.665  12.204   4.638  0.2212 -0.0002  0.0113
13266SOL    HW151523   3.730  12.141   4.607  0.8362  0.0380  1.1423
13266SOL    HW251524   3.581  12.166   4.614  0.6334 -0.4026 -0.8423
13267SOL     OW51525   3.814  13.609   4.894  0.2777 -0.1883  1.0874
13267SOL    HW151526   3.815  13.538   4.958 -0.9010 -1.1554  0.0707
13267SOL    HW251527   3.905  13.618   4.866  0.4306 -1.3327  1.1902
13268SOL     OW51528   2.921   5.186   9.706  0.0319 -0.0007  0.5773
13268SOL    HW151529   2.911   5.127   9.780  0.0325 -0.8755 -0.1096
13268SOL    HW251530   2.975   5.138   9.643 -1.3472  0.0497 -0.6937
13269SOL     OW51531   3.295   2.630   5.218 -0.2280 -0.3665 -0.4183
13269SOL    HW151532   3.336   2.589   5.142  0.0577 -1.5581  0.3637
13269SOL    HW251533   3.235   2.695   5.180  2.2887  1.4456 -1.6297
13270SOL     OW51534   7.583  13.603   6.587 -0.1900 -0.6250 -0.2835
13270SOL    HW151535   7.522  13.575   6.518  1.4314  2.1474 -3.1135
13270SOL    HW251536   7.648  13.533   6.591 -1.5802 -1.9531  0.2605
13271SOL     OW51537   8.540  12.489   6.496 -0.6096  0.2236  0.1249
13271SOL    HW151538   8.517  12.562   6.553  0.7149  0.3013  0.5992
13271SOL    HW251539   8.618  12.451   6.537 -0.4135 -0.5394 -0.9246
13272SOL     OW51540   2.216   7.513   0.314 -0.7399  0.0521 -0.0660
13272SOL    HW151541   2.198   7.600   0.350 -1.7471 -0.6950  1.3699
13272SOL    HW251542   2.284   7.527   0.248 -1.1668  1.9677 -0.1465
13273SOL     OW51543   1.008   6.623  13.691  0.2763  0.0155  0.1788
13273SOL    HW151544   0.949   6.606  13.617 -0.0918  4.6285 -0.9432
13273SOL    HW251545   1.093   6.639  13.650  0.8149 -0.4219  1.1108
13274SOL     OW51546  10.947   4.141  13.292 -0.4616  0.3846  0.0536
13274SOL    HW151547  10.899   4.115  13.214 -2.2856  0.1277  1.1993
13274SOL    HW251548  10.880   4.150  13.360  0.7606  2.8086  1.0696
13275SOL     OW51549   6.621   9.675  12.832  0.1226 -0.1548 -0.0446
13275SOL    HW151550   6.681   9.725  12.886 -0.5660 -0.1146  0.6935
13275SOL    HW251551   6.536   9.716  12.846 -0.8247 -2.5928  2.0132
13276SOL     OW51552   9.241  13.245  10.610 -0.1249 -0.4925  0.3990
13276SOL    HW151553   9.262  13.312  10.676 -0.9629 -0.1757  0.3469
13276SOL    HW251554   9.214  13.295  10.533  1.9269 -0.8174 -0.6038
13277SOL     OW51555   2.000   2.691   0.121 -0.6175  0.4950 -0.2248
13277SOL    HW151556   2.059   2.765   0.131 -0.5504  0.6503 -1.5661
13277SOL    HW251557   2.025   2.630   0.190 -1.0520  1.9355  1.2657
13278SOL     OW51558   6.943  13.013   8.546  0.1781  0.4234  0.7570
13278SOL    HW151559   6.862  13.052   8.577  0.2327  2.6170 -1.5048
13278SOL    HW251560   6.919  12.970   8.463  1.3333  1.3858 -0.1100
13279SOL     OW51561   8.978   8.399   9.012 -0.6458 -0.8486  0.2002
13279SOL    HW151562   9.041   8.439   8.952  0.6587 -0.6020  1.6699
13279SOL    HW251563   9.007   8.308   9.020  0.1614 -0.4979  1.6238
13280SOL     OW51564   4.701  12.412   4.324  0.2798  0.1722  0.2615
13280SOL    HW151565   4.757  12.489   4.331  0.5939 -0.0198 -0.1335
13280SOL    HW251566   4.612  12.447   4.333  0.4049  0.6188 -0.1950
13281SOL     OW51567   2.539   4.399   9.667 -0.2728  0.3151  0.2833
13281SOL    HW151568   2.470   4.441   9.718 -0.2106 -0.9230  1.4579
13281SOL    HW251569   2.620   4.422   9.712  0.2504  2.5142 -1.6065
13282SOL     OW51570   2.066  10.362   2.750  0.3972  0.5464  0.4399
13282SOL    HW151571   2.107  10.440   2.711 -0.3277  1.0286  0.6132
13282SOL    HW251572   2.110  10.289   2.708 -0.4205  1.0398 -1.4206
13283SOL     OW51573  13.369  13.025   5.135 -0.5469 -0.2749 -0.6731
13283SOL    HW151574  13.354  13.103   5.188  1.3177  1.3996 -2.3945
13283SOL    HW251575  13.438  12.977   5.182 -1.5114 -0.7854  0.2554
13284SOL     OW51576  13.617   8.465   7.990 -0.5136  0.1852 -0.0657
13284SOL    HW151577  13.579   8.396   7.935 -0.8581 -0.3623  0.8382
13284SOL    HW251578  13.709   8.468   7.964 -0.5111 -0.5668 -0.1738
13285SOL     OW51579   8.018  13.395   0.332 -0.3042 -0.2368  0.4453
13285SOL    HW151580   7.930  13.424   0.306  1.4987  2.4473 -3.6716
13285SOL    HW251581   8.054  13.357   0.252  2.5443 -0.6624  1.8305
13286SOL     OW51582  12.946   5.362   8.077  1.0445 -0.6399  0.1678
13286SOL    HW151583  12.887   5.436   8.065  0.4169 -1.1340  0.1662
13286SOL    HW251584  12.927   5.304   8.003  2.0014 -0.5005 -0.2101
13287SOL     OW51585   9.810   8.847   3.910  0.1685 -0.0574  0.4060
13287SOL    HW151586   9.824   8.781   3.842  0.5239  2.7810 -2.5492
13287SOL    HW251587   9.891   8.845   3.962  0.7288 -0.9949 -0.4573
13288SOL     OW51588   2.426   0.535   4.523 -0.0062  0.2531  0.4334
13288SOL    HW151589   2.395   0.613   4.475 -0.3986  0.9810  1.8045
13288SOL    HW251590   2.346   0.496   4.558  0.3401  0.3407  1.3564
13289SOL     OW51591   5.085   7.449   8.118  0.4032 -0.2411  0.3847
13289SOL    HW151592   5.061   7.465   8.209  2.1791  2.7475  0.4477
13289SOL    HW251593   5.023   7.501   8.067  1.1554  0.4025  0.0935
13290SOL     OW51594   1.899   9.846   8.343 -0.6211  0.8653  0.0983
13290SOL    HW151595   1.933   9.757   8.344 -2.7547  0.0059 -0.4973
13290SOL    HW251596   1.821   9.844   8.398 -1.4985  2.0093 -1.0461
13291SOL     OW51597   3.236   6.466   3.268  0.3424 -0.1641 -0.3647
13291SOL    HW151598   3.174   6.429   3.330 -4.1436 -0.0798 -4.2202
13291SOL    HW251599   3.231   6.560   3.283 -0.0009 -0.2068 -0.1940
13292SOL     OW51600   1.379   0.819  11.211  0.1902  0.3196  0.1721
13292SOL    HW151601   1.472   0.838  11.201  0.5267 -0.8355  0.8805
13292SOL    HW251602   1.376   0.728  11.240 -1.1394  0.4845  0.6381
13293SOL     OW51603  11.400   9.951   1.869 -0.5697  0.1315 -0.3156
13293SOL    HW151604  11.356   9.971   1.952 -3.6041 -3.7875 -0.6503
13293SOL    HW251605  11.332   9.960   1.803  1.4132  1.7583 -2.2839
13294SOL     OW51606   0.053   4.718   9.244 -0.5517  0.0581  0.2985
13294SOL    HW151607   0.144   4.732   9.269 -1.3914  1.1772  3.1126
13294SOL    HW251608   0.056   4.648   9.179  2.2363 -0.4587  0.8785
13295SOL     OW51609  11.809   7.780   6.860  0.2280 -0.0494  0.5799
13295SOL    HW151610  11.836   7.846   6.924  1.9877  0.5435 -0.6941
13295SOL    HW251611  11.758   7.829   6.795  1.0604 -0.0083 -0.0677
13296SOL     OW51612   7.248  11.821   0.204  0.0563 -0.0985  0.3309
13296SOL    HW151613   7.247  11.729   0.178  0.9032  0.0571 -0.2974
13296SOL    HW251614   7.311  11.824   0.276 -0.4774 -0.1156  0.8076
13297SOL     OW51615   3.580   4.167   9.099  0.1357 -0.0959  0.3934
13297SOL    HW151616   3.553   4.113   9.174  0.8813 -2.3120 -0.8397
13297SOL    HW251617   3.502   4.173   9.045  0.5438 -1.8253 -0.4803
13298SOL     OW51618   6.526  13.090  11.238  0.2424 -0.3705  0.2786
13298SOL    HW151619   6.596  13.155  11.225 -0.0178 -0.1975 -0.2591
13298SOL    HW251620   6.445  13.141  11.233 -0.0509 -0.9543 -1.7696
13299SOL     OW51621   9.218  10.556  10.394 -0.0156  0.5505  0.1779
13299SOL    HW151622   9.231  10.515  10.480  1.2167 -1.4920 -0.9096
13299SOL    HW251623   9.156  10.498  10.349 -0.1324  1.2260 -0.5482
13300SOL     OW51624  13.262   1.772   9.811  0.0406  0.5236 -0.2004
13300SOL    HW151625  13.197   1.790   9.743 -1.6494 -3.8072 -0.0556
13300SOL    HW251626  13.210   1.761   9.891  1.2002 -0.8466  0.4098
13301SOL     OW51627  11.296  11.598  10.528 -0.3544  0.2063 -0.9609
13301SOL    HW151628  11.202  11.615  10.522 -0.3296  0.4678 -0.6000
13301SOL    HW251629  11.307  11.552  10.611 -0.1262  0.4147 -0.8744
13302SOL     OW51630  11.199  13.339  11.353  0.1059 -0.6294  0.2887
13302SOL    HW151631  11.142  13.369  11.282  0.6653 -1.0365 -0.3529
13302SOL    HW251632  11.286  13.339  11.315  0.6472  0.6088  1.4557
13303SOL     OW51633   8.581  11.965   7.143  0.2940  0.1563  0.4775
13303SOL    HW151634   8.654  12.024   7.160  1.4334 -1.5870  2.2000
13303SOL    HW251635   8.512  11.993   7.204  0.7349 -0.0971  1.1054
13304SOL     OW51636   8.206  11.453   0.646  0.2396  0.1744 -0.0511
13304SOL    HW151637   8.187  11.427   0.736 -0.4198 -0.9013 -0.4782
13304SOL    HW251638   8.263  11.530   0.654  0.4364 -0.0898  1.2745
13305SOL     OW51639   2.074   1.029   5.632 -0.0970  0.1626  0.2792
13305SOL    HW151640   2.005   0.964   5.647 -0.1202 -0.1183 -0.9504
13305SOL    HW251641   2.152   0.978   5.614  0.4647  0.4829  1.6936
13306SOL     OW51642   7.524   0.916   2.474  0.3879  0.0021  0.1292
13306SOL    HW151643   7.492   0.826   2.474  1.5750 -0.4346 -0.5530
13306SOL    HW251644   7.551   0.932   2.564 -0.2098 -0.1657  0.3475
13307SOL     OW51645  10.137   8.969   9.416 -0.2376 -0.1832 -0.0478
13307SOL    HW151646  10.142   8.984   9.510 -1.6732  0.6953 -0.0734
13307SOL    HW251647  10.146   8.874   9.406  2.1191 -0.1016  0.7491
13308SOL     OW51648   7.645   0.246   8.842 -0.3619  0.1953 -0.1764
13308SOL    HW151649   7.630   0.328   8.888 -0.6217 -0.5649  1.1303
13308SOL    HW251650   7.740   0.239   8.835 -0.3205  0.2511  0.3609
13309SOL     OW51651   8.483   2.510   0.415  0.3215 -0.3448 -0.3601
13309SOL    HW151652   8.492   2.416   0.400  0.0772 -0.3093 -0.7370
13309SOL    HW251653   8.467   2.547   0.329  0.9016  0.1046 -0.2807
13310SOL     OW51654  10.819   5.731   6.352  0.5295  0.0759  0.1395
13310SOL    HW151655  10.867   5.677   6.414  0.3865 -0.6259 -0.3524
13310SOL    HW251656  10.860   5.818   6.359  1.7753 -0.4656 -0.1689
13311SOL     OW51657  10.301   8.197  11.387  0.5154 -0.2129 -0.0513
13311SOL    HW151658  10.393   8.222  11.392  0.6420 -0.7539  0.4722
13311SOL    HW251659  10.302   8.108  11.352  0.2395 -0.4715  0.5741
13312SOL     OW51660  11.254  13.154   0.168  0.1163  0.0636 -0.0719
13312SOL    HW151661  11.243  13.227   0.230 -1.2574 -0.0243 -0.1799
13312SOL    HW251662  11.172  13.153   0.118  0.2126 -1.4285 -0.2248
13313SOL     OW51663   0.570   2.790  13.335 -0.4150 -0.1236  0.0470
13313SOL    HW151664   0.507   2.856  13.362  0.4178 -0.5500  3.5365
13313SOL    HW251665   0.518   2.711  13.322 -0.8575  0.0822  0.5734
13314SOL     OW51666  12.238   4.718  12.087 -0.0448  0.5357 -0.0226
13314SOL    HW151667  12.321   4.683  12.053 -1.6111 -3.0900 -0.5448
13314SOL    HW251668  12.263   4.801  12.127  3.4519  0.6766 -2.0317
13315SOL     OW51669   8.588   5.831   2.944  0.3747  0.7205  0.1359
13315SOL    HW151670   8.648   5.874   2.883 -0.8722  1.1537 -0.8419
13315SOL    HW251671   8.632   5.837   3.029  0.7278  3.0893 -0.1266
13316SOL     OW51672   6.143   7.495   8.462  0.2025 -0.1615 -0.2046
13316SOL    HW151673   6.175   7.412   8.497 -0.1165 -1.1104 -2.0670
13316SOL    HW251674   6.048   7.492   8.475  0.2698  0.3169  0.4904
13317SOL     OW51675   9.047  11.750  10.285  0.2030  0.1735  0.1771
13317SOL    HW151676   9.094  11.754  10.368 -2.2826  3.6236  1.6422
13317SOL    HW251677   8.971  11.694  10.303  1.0974 -1.4153 -0.7355
13318SOL     OW51678   4.785   0.207   7.352  0.5755 -0.7114 -0.7040
13318SOL    HW151679   4.776   0.221   7.258 -0.7530 -0.3931 -0.5457
13318SOL    HW251680   4.791   0.295   7.389  1.7425 -0.8448 -0.5251
13319SOL     OW51681  10.358   7.713   7.775  0.4314 -0.5947  0.0209
13319SOL    HW151682  10.445   7.748   7.755  0.3271 -0.5349 -0.3499
13319SOL    HW251683  10.342   7.738   7.866  0.0579  0.9784 -0.4346
13320SOL     OW51684   8.953   3.716   3.140 -0.5032  0.3736 -0.0840
13320SOL    HW151685   9.043   3.750   3.142  0.1813 -1.3952  1.0885
13320SOL    HW251686   8.921   3.727   3.229 -0.9557 -0.3011 -0.1585
13321SOL     OW51687   1.978   2.518   6.342 -0.1052  0.5240 -0.1743
13321SOL    HW151688   1.940   2.589   6.393  0.2608  0.3082  0.4072
13321SOL    HW251689   1.990   2.447   6.404  1.6016  0.7104 -0.2276
13322SOL     OW51690   5.117   2.630   5.029 -0.0668 -0.4028  0.1579
13322SOL    HW151691   5.057   2.697   4.996  2.0965  1.2729 -0.6400
13322SOL    HW251692   5.204   2.658   4.999  1.3483 -1.9162  2.4611
13323SOL     OW51693  11.528   7.214   9.887 -0.7312  0.0432 -0.3105
13323SOL    HW151694  11.585   7.169   9.950 -1.9211 -1.8774 -0.5203
13323SOL    HW251695  11.477   7.275   9.941 -0.0978  0.1283  0.2150
13324SOL     OW51696  11.168   2.679  10.630 -0.9828 -0.5805  0.8626
13324SOL    HW151697  11.082   2.702  10.595 -0.1302  0.9940 -0.3806
13324SOL    HW251698  11.177   2.732  10.709 -0.1897  1.3585 -0.4248
13325SOL     OW51699  11.838  12.769   5.515 -0.4129  0.4438  0.3851
13325SOL    HW151700  11.898  12.842   5.500 -0.7417  0.4937 -0.7631
13325SOL    HW251701  11.892  12.691   5.507 -0.0892  0.5295  1.4756
13326SOL     OW51702   2.166   6.942  13.628 -0.7563  0.3495 -0.2185
13326SOL    HW151703   2.140   7.034  13.630 -0.3216  0.4889 -0.6727
13326SOL    HW251704   2.257   6.942  13.657 -0.0036  0.3607 -2.3596
13327SOL     OW51705   9.412   3.568   6.413 -0.0617 -0.1323 -0.0027
13327SOL    HW151706   9.443   3.498   6.470 -0.5841  0.3150  0.8544
13327SOL    HW251707   9.475   3.569   6.340  0.5040 -0.8463  0.4558
13328SOL     OW51708  12.926   5.698  12.160 -0.4897 -0.2641  0.2250
13328SOL    HW151709  12.913   5.687  12.254 -2.9177 -0.9395 -0.1301
13328SOL    HW251710  12.933   5.609  12.126  0.8869 -0.0155 -0.2167
13329SOL     OW51711   9.059  13.366  11.634 -0.3526 -0.5635  0.0003
13329SOL    HW151712   9.116  13.389  11.707 -0.6755 -0.2409  0.1548
13329SOL    HW251713   8.976  13.342  11.675 -1.3442  1.9925 -0.3404
13330SOL     OW51714   2.437  11.004   1.707  0.0241  0.0639  0.1060
13330SOL    HW151715   2.445  11.080   1.765  0.1563 -0.7942  1.2468
13330SOL    HW251716   2.506  10.944   1.736 -1.2294 -1.2689  0.4738
13331SOL     OW51717   0.044   4.741   5.557  0.0403  0.0471 -0.1665
13331SOL    HW151718   0.027   4.742   5.462  0.5510 -1.6243 -0.3015
13331SOL    HW251719   0.139   4.734   5.564 -0.0462 -0.6905  0.4434
13332SOL     OW51720  13.048  11.141   4.983 -0.3786 -0.1863  0.2519
13332SOL    HW151721  13.074  11.169   5.071  1.3672 -1.4938  0.2134
13332SOL    HW251722  12.975  11.081   4.997 -0.1535 -0.3324  0.8095
13333SOL     OW51723  10.434   1.823   5.148 -0.3319 -0.0306 -0.4491
13333SOL    HW151724  10.478   1.893   5.100 -0.7937 -0.3008 -1.2874
13333SOL    HW251725  10.495   1.800   5.218  0.3649  0.3604 -0.9146
13334SOL     OW51726   1.374  12.253   2.038 -0.2829 -0.0121 -0.1221
13334SOL    HW151727   1.325  12.171   2.044 -0.0639 -0.1145  0.2488
13334SOL    HW251728   1.354  12.300   2.119 -0.3143  0.2514 -0.2799
13335SOL     OW51729   1.303  12.101   5.280 -0.2836  0.2270  0.4424
13335SOL    HW151730   1.275  12.169   5.341  0.8896  1.1420  0.0026
13335SOL    HW251731   1.266  12.129   5.195 -1.4120 -0.7281  0.5872
13336SOL     OW51732  13.384  10.791   7.731 -0.6597  0.2580  0.1013
13336SOL    HW151733  13.302  10.743   7.717 -1.4879  1.9828 -1.2323
13336SOL    HW251734  13.370  10.839   7.813 -1.0142  0.5872 -0.1500
13337SOL     OW51735  11.800   3.724   2.189 -0.2570 -0.3217  0.3154
13337SOL    HW151736  11.890   3.751   2.170 -0.6845 -0.1419 -1.6765
13337SOL    HW251737  11.772   3.783   2.259  0.6525  0.7099 -0.1515
13338SOL     OW51738  11.514  10.443   8.986 -0.1507 -0.2607  1.0217
13338SOL    HW151739  11.604  10.476   8.988  0.6457 -2.2712  0.4107
13338SOL    HW251740  11.471  10.495   8.919  0.2090  1.4713  2.0633
13339SOL     OW51741   1.741   6.283   1.062 -0.0319  0.1817  0.3896
13339SOL    HW151742   1.685   6.258   1.135  0.0788  2.0267  1.1543
13339SOL    HW251743   1.686   6.268   0.984 -0.1791 -1.7049  0.7987
13340SOL     OW51744   2.215   3.392   2.223  0.1865  0.2171  0.1242
13340SOL    HW151745   2.301   3.410   2.262 -0.3038 -0.0964  1.3883
13340SOL    HW251746   2.214   3.446   2.144  0.5442  2.3041  1.4352
13341SOL     OW51747   6.220  12.781   8.829  0.4730  0.0825 -0.4599
13341SOL    HW151748   6.257  12.714   8.887  0.3528  0.4321  0.0274
13341SOL    HW251749   6.200  12.854   8.887 -1.1078 -0.1466 -0.6761
13342SOL     OW51750   7.472  10.897   2.082  0.8720  0.1452  0.0597
13342SOL    HW151751   7.502  10.820   2.130  2.7570  1.0603  0.4738
13342SOL    HW251752   7.541  10.963   2.097 -0.0742  1.5170 -1.2530
13343SOL     OW51753   8.467  10.301   0.589  0.5278  0.5521  0.7641
13343SOL    HW151754   8.450  10.384   0.634  3.2413  0.8616  1.4076
13343SOL    HW251755   8.413  10.237   0.635  1.6562  1.2259  3.2291
13344SOL     OW51756   3.506  13.451   5.781  0.1570  0.1260  0.5678
13344SOL    HW151757   3.461  13.368   5.771 -1.0854  0.9270 -1.0219
13344SOL    HW251758   3.566  13.455   5.706 -0.1824  0.8761  0.3274
13345SOL     OW51759   4.619   4.978   9.763  0.2315 -0.0565 -0.2168
13345SOL    HW151760   4.556   5.040   9.797  2.3399  1.4627  1.1797
13345SOL    HW251761   4.595   4.967   9.671 -1.0250  1.7520 -0.1486
13346SOL     OW51762   2.669   1.423   2.747  0.8054  0.3309 -0.5779
13346SOL    HW151763   2.599   1.449   2.807 -0.7477  1.1634 -2.6480
13346SOL    HW251764   2.715   1.353   2.793  1.3892  2.6352  2.6888
13347SOL     OW51765   3.228  12.814   1.757 -0.3259 -0.2475  0.5841
13347SOL    HW151766   3.210  12.726   1.725 -2.6500  0.6928 -1.0494
13347SOL    HW251767   3.240  12.804   1.851 -1.5307 -2.1955  0.5923
13348SOL     OW51768   3.411  13.412   4.979 -0.0538 -0.2717  0.3124
13348SOL    HW151769   3.332  13.416   4.925  0.4836 -2.0358 -0.6416
13348SOL    HW251770   3.465  13.485   4.947 -0.3504 -0.4147 -0.5411
13349SOL     OW51771   9.962   2.406   8.811 -0.3294 -0.0248 -0.1751
13349SOL    HW151772  10.041   2.423   8.759 -0.0986 -0.5198  0.0083
13349SOL    HW251773   9.910   2.486   8.802 -0.1321  0.0343 -0.8747
13350SOL     OW51774   0.404   3.167   7.238 -0.2582 -0.0818  0.2157
13350SOL    HW151775   0.484   3.125   7.207  0.0981  0.7301  0.0058
13350SOL    HW251776   0.374   3.113   7.311  1.3758  0.5031  1.3703
13351SOL     OW51777   7.062   1.047   5.133  0.2194 -0.5594  0.1085
13351SOL    HW151778   7.087   1.000   5.054 -0.6142  0.5463 -0.8495
13351SOL    HW251779   7.121   1.122   5.137 -0.6680  0.1941 -0.3088
13352SOL     OW51780  12.847   2.470  12.662 -0.3513  1.0503  0.5144
13352SOL    HW151781  12.896   2.513  12.732  2.1671  1.3983 -1.3414
13352SOL    HW251782  12.824   2.541  12.602  0.1367  0.3884 -0.4756
13353SOL     OW51783   5.701   6.805   3.291  0.1602  0.0235 -0.0595
13353SOL    HW151784   5.699   6.823   3.385  0.6466  2.4072 -0.4481
13353SOL    HW251785   5.663   6.717   3.283 -1.4460  0.4130  2.2029
13354SOL     OW51786   3.625   1.427  12.463 -0.1280  0.4242  0.2360
13354SOL    HW151787   3.702   1.398  12.414 -0.2312  0.7048 -0.1008
13354SOL    HW251788   3.654   1.506  12.508 -0.2511  0.6011  0.0093
13355SOL     OW51789   8.154   7.929   7.644 -0.1611  0.2366  0.2062
13355SOL    HW151790   8.105   7.875   7.582 -0.7027  1.6006 -0.6022
13355SOL    HW251791   8.238   7.945   7.601 -0.2363  0.5411  0.1738
13356SOL     OW51792  10.994   4.535   2.651  0.5860  0.6745 -0.1195
13356SOL    HW151793  10.921   4.522   2.591  0.5704 -0.7145  0.1480
13356SOL    HW251794  10.961   4.595   2.717  0.5023  1.9716 -1.2965
13357SOL     OW51795   0.235  13.687   4.439  0.1398  0.4016 -0.2602
13357SOL    HW151796   0.217  13.685   4.533 -0.7337  2.1613 -0.3456
13357SOL    HW251797   0.153  13.656   4.399  0.2379  0.3898 -0.4537
13358SOL     OW51798   6.374   3.307  12.319 -0.0561 -0.6102 -0.2249
13358SOL    HW151799   6.325   3.235  12.358 -0.0994  0.2728  1.4611
13358SOL    HW251800   6.465   3.276  12.317  0.0843 -0.3908  1.4188
13359SOL     OW51801   3.434   2.288   5.406 -0.3933  0.2557  0.0310
13359SOL    HW151802   3.479   2.372   5.417  2.3396 -1.3195  2.5917
13359SOL    HW251803   3.345   2.311   5.379  0.7440  3.8163 -1.2799
13360SOL     OW51804   9.341   9.441  11.818  0.1158  0.0338  0.6589
13360SOL    HW151805   9.356   9.414  11.727 -0.1708  0.4407  0.4874
13360SOL    HW251806   9.261   9.494  11.815  1.5172  2.3177  0.6868
13361SOL     OW51807   1.024   3.612   7.230  0.7643 -0.3806  0.1766
13361SOL    HW151808   0.962   3.685   7.238 -0.4223 -1.5436  2.3223
13361SOL    HW251809   1.063   3.624   7.143 -1.3065  1.3124 -0.6178
13362SOL     OW51810   9.696   5.423  11.287 -0.0244  0.0478 -0.1586
13362SOL    HW151811   9.711   5.517  11.299 -1.9022  0.2404  1.2298
13362SOL    HW251812   9.674   5.415  11.194  0.4409  0.9420 -0.3624
13363SOL     OW51813   7.577   3.406  12.659  0.1722  0.1000  0.0754
13363SOL    HW151814   7.518   3.331  12.671  0.2099 -0.0380 -0.5848
13363SOL    HW251815   7.519   3.480  12.645  0.1338  0.2057  0.7652
13364SOL     OW51816  10.751   4.349  11.740 -0.5063  0.1039 -0.1391
13364SOL    HW151817  10.773   4.406  11.666  2.0546 -0.2714  0.2177
13364SOL    HW251818  10.711   4.272  11.700  0.8034 -0.0729 -1.2008
13365SOL     OW51819   3.892   3.593  13.558  0.8297  0.4058  0.1927
13365SOL    HW151820   3.920   3.535  13.629 -0.4093 -0.4280  0.0447
13365SOL    HW251821   3.799   3.574  13.547  0.6333  1.6880 -0.5815
13366SOL     OW51822   8.773   7.294  12.771  0.7613  0.4070  0.3792
13366SOL    HW151823   8.790   7.220  12.713 -1.1410  0.1433  0.0992
13366SOL    HW251824   8.783   7.371  12.716 -0.2536  0.1971 -0.1129
13367SOL     OW51825  10.356   2.664   9.675 -0.2424 -0.0652 -0.2025
13367SOL    HW151826  10.286   2.619   9.629  0.5853 -0.7497 -0.8070
13367SOL    HW251827  10.326   2.669   9.766 -0.4780 -1.5998 -0.1725
13368SOL     OW51828   6.515   7.031   7.279  0.4417 -0.0429  0.3873
13368SOL    HW151829   6.572   7.091   7.231  1.2872  0.3584  1.8234
13368SOL    HW251830   6.427   7.064   7.262  0.8195  0.9809  0.2958
13369SOL     OW51831   4.877   2.185   9.958  0.0293  0.4151  0.3924
13369SOL    HW151832   4.817   2.202   9.885  0.4664 -1.1754 -0.3736
13369SOL    HW251833   4.851   2.248  10.025 -0.4086  1.9115 -1.1112
13370SOL     OW51834  13.105   6.364  13.181 -0.4121 -0.8380 -0.4147
13370SOL    HW151835  13.184   6.321  13.148  0.7082  1.0917 -0.3694
13370SOL    HW251836  13.093   6.441  13.125 -0.4028  0.6528  1.5141
13371SOL     OW51837  12.962   5.676  13.297  0.3149  0.2935 -0.3224
13371SOL    HW151838  12.874   5.657  13.264 -0.9734  2.2329  1.7741
13371SOL    HW251839  12.989   5.755  13.250  0.3405  0.4980  0.0303
13372SOL     OW51840  10.439   3.583  13.673 -0.1975  0.1376 -0.4540
13372SOL    HW151841  10.405   3.624  13.593 -0.9029 -1.4402 -1.0109
13372SOL    HW251842  10.361   3.546  13.715  0.1242  1.1516  1.1386
13373SOL     OW51843   5.214   9.553   6.149 -0.7046  0.7047 -0.2334
13373SOL    HW151844   5.187   9.535   6.060  0.9955 -0.6275 -0.5416
13373SOL    HW251845   5.168   9.488   6.202  0.4182 -0.3792 -0.5329
13374SOL     OW51846   4.268   4.438  11.293 -0.3262  0.3352  0.0270
13374SOL    HW151847   4.289   4.482  11.211  0.8145  1.5599  0.9183
13374SOL    HW251848   4.316   4.355  11.288  0.8058  0.9621 -0.0384
13375SOL     OW51849   1.571   8.489  13.340 -0.2546  0.1575  0.0755
13375SOL    HW151850   1.622   8.544  13.400 -1.0282  1.0726 -0.0878
13375SOL    HW251851   1.553   8.545  13.265 -0.5534 -0.5120 -0.3649
13376SOL     OW51852   6.048   3.524   6.558 -0.0317 -0.1083  0.0689
13376SOL    HW151853   5.976   3.585   6.574 -1.2390 -1.4948  0.0881
13376SOL    HW251854   6.059   3.478   6.641  0.4049 -0.4130 -0.1544
13377SOL     OW51855  11.553  13.472   2.224  0.1434  0.3954  0.2736
13377SOL    HW151856  11.476  13.416   2.224  2.2109 -2.8461 -2.7218
13377SOL    HW251857  11.619  13.422   2.272  1.1558  1.9290  0.5424
13378SOL     OW51858   2.631   0.974   8.969  0.4986  0.0672  0.3079
13378SOL    HW151859   2.721   0.951   8.992  0.6792  0.7288  0.2840
13378SOL    HW251860   2.604   0.907   8.907  1.2791  0.3520 -0.3489
13379SOL     OW51861   8.171   4.199   1.055 -0.3124  0.1251 -0.1667
13379SOL    HW151862   8.201   4.280   1.096 -0.2080 -0.7671  1.6162
13379SOL    HW251863   8.125   4.152   1.125  0.3836 -1.7473 -0.9096
13380SOL     OW51864  13.211  10.013   9.621 -0.6165 -0.0319 -0.0182
13380SOL    HW151865  13.205  10.107   9.637 -0.0297  0.7820 -3.6990
13380SOL    HW251866  13.120   9.984   9.616 -0.9175  1.0085 -1.5979
13381SOL     OW51867  13.468   4.561   7.600  0.2775 -0.4387 -0.2608
13381SOL    HW151868  13.425   4.531   7.680 -0.6750 -0.9839 -0.9649
13381SOL    HW251869  13.558   4.579   7.628 -0.3871  0.8250  1.2583
13382SOL     OW51870   2.660   8.476   6.077 -0.3818  0.1588 -0.4288
13382SOL    HW151871   2.755   8.469   6.067 -0.3627 -0.3226  0.0626
13382SOL    HW251872   2.639   8.563   6.043  0.4417  0.8962  0.8260
13383SOL     OW51873  10.594   8.089   8.093  0.2332  0.5199 -0.0455
13383SOL    HW151874  10.600   8.060   8.184 -2.4376  1.8858  0.6766
13383SOL    HW251875  10.597   8.008   8.042 -1.5554 -0.6196  1.5164
13384SOL     OW51876   8.640  12.412   9.089 -0.0276 -0.1520 -0.1280
13384SOL    HW151877   8.630  12.477   9.019  0.6953  1.2446  1.0099
13384SOL    HW251878   8.572  12.434   9.153  0.8041  0.0848  0.6960
13385SOL     OW51879  11.603   1.277  10.169 -0.3353 -0.0032  0.7419
13385SOL    HW151880  11.672   1.259  10.232  0.4376 -1.9454 -0.5534
13385SOL    HW251881  11.549   1.344  10.211  2.1186  1.3717  1.9282
13386SOL     OW51882  13.018   8.996   1.090 -0.0958 -0.7202  0.1070
13386SOL    HW151883  12.965   8.958   1.160 -2.2226  0.4532 -0.7637
13386SOL    HW251884  13.010   9.091   1.103 -0.2091 -0.4906 -1.4862
13387SOL     OW51885  13.039  12.539   6.255 -0.6417 -0.3658 -0.3090
13387SOL    HW151886  13.124  12.510   6.223  0.0173 -0.5088  1.4411
13387SOL    HW251887  13.059  12.601   6.325 -2.0312  2.1906 -2.0036
13388SOL     OW51888   3.641  12.667   0.800  0.2911 -0.1149 -0.3336
13388SOL    HW151889   3.713  12.647   0.859  0.5440 -0.0567 -0.6200
13388SOL    HW251890   3.646  12.762   0.787 -0.1805 -0.0292  0.0868
13389SOL     OW51891   1.795   1.627   8.844 -0.3084 -0.1215 -0.3121
13389SOL    HW151892   1.822   1.551   8.896  0.6218  0.8006  0.6148
13389SOL    HW251893   1.791   1.699   8.907  0.7068  1.0111 -1.4793
13390SOL     OW51894   1.661   3.438   6.391 -0.1360  0.5467 -0.3179
13390SOL    HW151895   1.676   3.531   6.409  1.3188  0.3801 -0.5144
13390SOL    HW251896   1.603   3.438   6.315  0.2891  1.2968 -0.6547
13391SOL     OW51897  10.298   8.785   9.828  0.3332 -0.3365  0.1722
13391SOL    HW151898  10.373   8.797   9.886  0.3177  2.9346 -0.2647
13391SOL    HW251899  10.223   8.781   9.887  0.4217  1.8613  0.5082
13392SOL     OW51900   9.155   8.768   0.711  0.7177  0.0751 -0.2143
13392SOL    HW151901   9.061   8.768   0.733  1.3813  0.5434  3.0983
13392SOL    HW251902   9.159   8.814   0.627 -1.9873  0.2763 -0.3416
13393SOL     OW51903   5.470   2.475   4.175 -0.0785 -0.1278 -0.2727
13393SOL    HW151904   5.421   2.490   4.256  0.1904 -2.0322  0.2815
13393SOL    HW251905   5.497   2.383   4.179  1.2188  0.1290 -1.8377
13394SOL     OW51906   9.376   8.067   9.082 -0.5073 -0.5888 -0.1937
13394SOL    HW151907   9.422   8.084   9.000  0.7430 -1.5564  0.2710
13394SOL    HW251908   9.412   8.131   9.143 -0.7928 -0.4456 -0.1759
13395SOL     OW51909  10.121   1.442  11.881  0.2538 -0.1864 -0.3957
13395SOL    HW151910  10.122   1.430  11.786  3.0316  0.6486 -0.5413
13395SOL    HW251911  10.207   1.414  11.911 -0.0232  0.9391  1.6770
13396SOL     OW51912   0.321   1.348   7.842 -0.5131 -0.4602 -0.1248
13396SOL    HW151913   0.274   1.364   7.761  0.3986 -2.7516 -1.1945
13396SOL    HW251914   0.413   1.365   7.821 -0.1913 -1.6626  0.2098
13397SOL     OW51915  12.845   2.718   0.377  0.0090 -0.1911  0.4410
13397SOL    HW151916  12.876   2.743   0.463  0.3880  0.5296  0.1059
13397SOL    HW251917  12.818   2.801   0.336  1.5438 -0.2357 -0.7948
13398SOL     OW51918   0.147   0.493   8.947 -0.6841  0.0048 -0.0030
13398SOL    HW151919   0.136   0.585   8.972  0.6191 -0.1437  1.2050
13398SOL    HW251920   0.073   0.476   8.888 -1.2229  1.6816  0.1262
13399SOL     OW51921  13.087   7.931   2.727  0.8802  0.4980  0.3573
13399SOL    HW151922  13.003   7.893   2.753  0.9600 -0.3462 -0.5523
13399SOL    HW251923  13.115   7.982   2.803 -0.6919  1.2280  0.4796
13400SOL     OW51924   6.090   9.672   5.734 -0.1252  0.7445 -0.0359
13400SOL    HW151925   6.007   9.666   5.687 -1.0972 -1.1833  1.7350
13400SOL    HW251926   6.065   9.691   5.824  1.4385  1.0065  0.3753
13401SOL     OW51927   8.444  12.839  10.136 -1.0156 -0.0931 -0.8615
13401SOL    HW151928   8.439  12.755  10.182  0.7320  0.7233  0.9862
13401SOL    HW251929   8.384  12.896  10.183  0.1601  0.5230 -0.0665
13402SOL     OW51930  13.388  12.172   8.471 -0.7339 -0.1250  0.3498
13402SOL    HW151931  13.307  12.221   8.460 -0.7285 -0.0287  0.7141
13402SOL    HW251932  13.438  12.223   8.536 -0.9328 -0.8526  1.0969
13403SOL     OW51933   3.472   0.900   2.130 -0.1363 -0.4961  0.1994
13403SOL    HW151934   3.522   0.867   2.056  1.7689  0.7288  0.8502
13403SOL    HW251935   3.531   0.890   2.205  0.5507  3.9370  0.4958
13404SOL     OW51936   5.549   8.156   0.556 -0.0182  0.5846  0.4786
13404SOL    HW151937   5.612   8.091   0.586 -0.1547  0.4233  0.4214
13404SOL    HW251938   5.498   8.177   0.634  0.6346  1.3263  0.7131
13405SOL     OW51939   7.524   4.633   1.755 -0.0951 -0.1244 -0.1411
13405SOL    HW151940   7.514   4.551   1.707 -3.0296 -1.0527  1.7868
13405SOL    HW251941   7.441   4.646   1.800  1.1972  2.5079  1.8457
13406SOL     OW51942   8.223   8.792  11.831  0.2204 -0.1784  0.1383
13406SOL    HW151943   8.283   8.755  11.896  2.1347  0.2541 -1.2816
13406SOL    HW251944   8.137   8.790  11.873  1.4387  0.5502  2.8570
13407SOL     OW51945   5.273   3.921   9.930 -0.2425  0.3992 -0.5358
13407SOL    HW151946   5.294   3.879   9.847 -0.4706 -1.6525  0.3952
13407SOL    HW251947   5.351   3.910   9.984 -0.4572  0.8104 -0.1255
13408SOL     OW51948  12.893   9.106   3.036 -0.0305  0.3375  0.1917
13408SOL    HW151949  12.910   9.074   3.125 -1.2982  0.5024  0.5202
13408SOL    HW251950  12.805   9.145   3.042 -1.0707 -1.5589 -1.6372
13409SOL     OW51951   0.681   1.912   6.982  0.2923  0.5993 -0.0221
13409SOL    HW151952   0.675   1.966   7.061  0.1808 -0.4848  0.7287
13409SOL    HW251953   0.757   1.855   6.998  0.8207  0.9824 -1.0938
13410SOL     OW51954   2.047  10.816  11.643 -0.2409 -0.2330  0.2832
13410SOL    HW151955   2.120  10.769  11.684 -0.7096 -0.1618  1.2372
13410SOL    HW251956   1.978  10.815  11.710 -1.0868 -0.2296 -0.5723
13411SOL     OW51957  12.268   4.962  12.216  0.0052  0.4796  0.6975
13411SOL    HW151958  12.286   5.017  12.293  0.8077  0.1775  0.7361
13411SOL    HW251959  12.229   5.022  12.152  3.3011  1.7952 -0.2894
13412SOL     OW51960   5.424   3.835  13.224 -0.0907 -0.3322  0.3927
13412SOL    HW151961   5.406   3.791  13.141 -1.0037 -0.2476  0.5253
13412SOL    HW251962   5.439   3.927  13.200  1.3008 -0.5978  0.1695
13413SOL     OW51963  11.229  10.181   6.176  0.8638 -0.5875  0.5720
13413SOL    HW151964  11.313  10.144   6.149  2.0378  0.7300  2.1895
13413SOL    HW251965  11.247  10.273   6.191 -0.9675 -0.2053  0.6712
13414SOL     OW51966  12.313   1.241  13.069  0.0709  0.3050  1.2479
13414SOL    HW151967  12.219   1.258  13.071  0.2588  1.4647  0.8751
13414SOL    HW251968  12.338   1.236  13.162 -0.3287  0.1511  1.3495
13415SOL     OW51969   7.471  10.851   8.369 -0.5751 -0.2047 -0.3133
13415SOL    HW151970   7.446  10.793   8.298 -1.1169 -0.6067  0.1938
13415SOL    HW251971   7.554  10.890   8.341 -0.7751 -0.3701 -1.1445
13416SOL     OW51972   1.893   5.380   2.303 -0.2996 -0.3485  0.7969
13416SOL    HW151973   1.830   5.331   2.356  0.8231 -2.2827  0.4228
13416SOL    HW251974   1.887   5.470   2.335 -1.1831 -1.0539  2.7123
13417SOL     OW51975   7.254   9.760   6.802  0.5968 -0.1301 -0.0240
13417SOL    HW151976   7.336   9.789   6.761 -0.2372  1.3243 -0.7403
13417SOL    HW251977   7.211   9.841   6.829 -0.7259 -0.8562  0.1139
13418SOL     OW51978   9.800   3.836  10.951 -0.3516  0.6023 -0.3027
13418SOL    HW151979   9.831   3.761  10.900 -0.7661 -0.1723  0.5441
13418SOL    HW251980   9.733   3.799  11.010  1.0582  1.1592  1.7772
13419SOL     OW51981   7.341  11.657   8.071 -0.3310 -0.2184  0.5402
13419SOL    HW151982   7.421  11.669   8.123  0.0852  0.3812 -0.2033
13419SOL    HW251983   7.277  11.715   8.112 -0.0659  0.0948  0.5179
13420SOL     OW51984   8.617   6.333   9.164 -0.4694  0.0991 -0.4054
13420SOL    HW151985   8.671   6.281   9.105  0.0580  0.4311 -0.2264
13420SOL    HW251986   8.674   6.352   9.238 -1.8882 -2.5297  1.5260
13421SOL     OW51987   9.523   1.036   2.186 -0.1531 -0.2081 -0.0681
13421SOL    HW151988   9.545   1.078   2.103 -0.7889  0.4080  0.0642
13421SOL    HW251989   9.537   1.104   2.252 -2.3189  0.2251  0.0303
13422SOL     OW51990   4.997   4.165  10.125  0.5298  0.6743  0.1809
13422SOL    HW151991   5.087   4.198  10.136  0.9587 -0.6965  0.9731
13422SOL    HW251992   4.979   4.118  10.206 -0.0255 -1.0860 -0.9164
13423SOL     OW51993  13.053   0.913   6.385  0.4785  0.7097  0.4548
13423SOL    HW151994  13.106   0.899   6.306  2.9489  2.2581  1.6947
13423SOL    HW251995  13.013   0.998   6.372 -1.1532 -0.1126 -0.1312
13424SOL     OW51996   6.793   6.830   7.231  0.5037  1.1732  1.0711
13424SOL    HW151997   6.778   6.746   7.274 -3.5670  1.2446  0.2080
13424SOL    HW251998   6.774   6.895   7.298 -1.1481  1.3162  0.4933
13425SOL     OW51999   7.446   7.407  10.245  0.2674 -0.0683  0.2316
13425SOL    HW152000   7.358   7.390  10.280 -0.7147  1.5015 -1.2914
13425SOL    HW252001   7.455   7.344  10.173 -0.1979  0.6521 -0.4756
13426SOL     OW52002   0.523   9.131   7.471 -0.1152 -0.0443  0.1784
13426SOL    HW152003   0.611   9.110   7.439 -0.2020 -0.9384  0.5179
13426SOL    HW252004   0.537   9.171   7.556 -0.0411 -0.2056  0.2416
13427SOL     OW52005   8.170   7.881   8.055 -0.5799  0.8160 -0.2271
13427SOL    HW152006   8.091   7.906   8.103 -0.6770 -1.5498  0.9464
13427SOL    HW252007   8.140   7.818   7.990  0.5117 -1.7911  1.6324
13428SOL     OW52008   0.420   5.102   3.745 -0.5396 -0.0318 -0.3237
13428SOL    HW152009   0.408   5.156   3.666  0.1998 -0.0492 -0.4575
13428SOL    HW252010   0.497   5.140   3.788  2.0258 -2.8323 -2.0384
13429SOL     OW52011  10.365   7.706  13.581  0.0858 -0.5781  0.2570
13429SOL    HW152012  10.303   7.675  13.515  0.1257  0.1551 -0.1354
13429SOL    HW252013  10.450   7.706  13.536  0.2949 -1.1455  0.6535
13430SOL     OW52014   9.424   2.178  13.556 -0.0728  0.4130 -0.5865
13430SOL    HW152015   9.421   2.264  13.597 -0.9277  0.3690 -0.5306
13430SOL    HW252016   9.411   2.196  13.463  1.0870  0.4485 -0.7510
13431SOL     OW52017   7.823  12.586   1.195  0.4797  0.0399  0.2716
13431SOL    HW152018   7.757  12.650   1.222 -1.1772 -1.0833 -0.8998
13431SOL    HW252019   7.873  12.631   1.126  0.1506  0.4928  0.3219
13432SOL     OW52020  10.772   2.034   7.944 -0.3629 -0.3173  0.6470
13432SOL    HW152021  10.746   2.074   8.027 -1.2292  2.0483 -0.6534
13432SOL    HW252022  10.825   2.101   7.901  0.2364 -1.5646 -0.6388
13433SOL     OW52023   4.797   1.502   3.145 -0.4712 -0.2778  0.4532
13433SOL    HW152024   4.787   1.425   3.089  0.1075  0.2331 -0.3707
13433SOL    HW252025   4.725   1.496   3.207  0.2470 -2.1077  1.1595
13434SOL     OW52026  12.518  12.715  11.727  0.4861 -0.1077  0.7076
13434SOL    HW152027  12.584  12.785  11.735  1.3461 -1.0195  1.7721
13434SOL    HW252028  12.468  12.740  11.649  0.3440  2.0485  1.4024
13435SOL     OW52029  11.981  10.329   9.226 -0.6217  0.3806  0.2087
13435SOL    HW152030  11.966  10.243   9.187 -1.4197  1.6216 -2.5642
13435SOL    HW252031  12.070  10.353   9.199 -1.2303  1.3113 -1.1233
13436SOL     OW52032   4.335  12.890   8.718 -0.4203 -0.2763  0.3115
13436SOL    HW152033   4.385  12.965   8.686  1.0651 -1.3070  0.1049
13436SOL    HW252034   4.363  12.817   8.663 -3.3914 -0.6318 -0.9019
13437SOL     OW52035   0.224   0.055   3.019 -0.2672  0.4108  0.6629
13437SOL    HW152036   0.169   0.109   2.962  1.5610  1.9803  0.2694
13437SOL    HW252037   0.312   0.067   2.985  0.4677 -1.1832  1.9018
13438SOL     OW52038   3.283  13.582  11.059 -0.0791  0.3117 -0.5227
13438SOL    HW152039   3.193  13.601  11.032  0.2410  1.4613 -0.8593
13438SOL    HW252040   3.290  13.620  11.146  0.1166  0.3751 -0.5649
13439SOL     OW52041   2.836  13.735  12.074 -0.3512  0.2224  0.2090
13439SOL    HW152042   2.754  13.689  12.055 -0.5367  0.9792 -0.9567
13439SOL    HW252043   2.904  13.667  12.068 -0.6971 -0.0543 -0.7503
13440SOL     OW52044  10.536   6.894   0.756 -0.1764 -0.3714  0.2394
13440SOL    HW152045  10.520   6.980   0.716  1.5349 -0.9694 -1.9358
13440SOL    HW252046  10.530   6.909   0.850 -2.1427  1.6242 -0.1164
13441SOL     OW52047   6.189   8.047   9.809 -0.3079  0.3452 -0.1961
13441SOL    HW152048   6.252   8.108   9.771 -0.3030 -0.2369 -1.1540
13441SOL    HW252049   6.217   8.038   9.900  2.7544 -2.0498 -1.2140
13442SOL     OW52050  13.062   3.078  10.773 -0.0333 -0.3214  0.0353
13442SOL    HW152051  13.151   3.046  10.785  0.0587  0.1572  0.7146
13442SOL    HW252052  13.072   3.171  10.751 -0.2353 -0.9726 -3.2381
13443SOL     OW52053   2.751  12.167   9.753  0.2541 -0.1104 -0.2230
13443SOL    HW152054   2.738  12.255   9.718  0.6199 -0.9501 -2.6375
13443SOL    HW252055   2.665  12.125   9.747  0.2608 -0.1805  0.1538
13444SOL     OW52056   6.618   9.124   8.014 -0.1452 -0.8470  0.0353
13444SOL    HW152057   6.651   9.069   8.085 -1.7377 -0.8643  0.7958
13444SOL    HW252058   6.635   9.214   8.042  1.9796 -0.8728 -0.9730
13445SOL     OW52059   5.400   3.087   0.401  0.3045 -0.4175 -0.1861
13445SOL    HW152060   5.338   3.121   0.337 -0.8430 -2.7330 -0.3830
13445SOL    HW252061   5.485   3.118   0.370 -0.3984 -0.0158 -1.8331
13446SOL     OW52062   5.481   1.846  10.319  0.1708  0.5476 -0.1154
13446SOL    HW152063   5.413   1.911  10.300  1.4602  2.0614  0.1905
13446SOL    HW252064   5.564   1.894  10.306  1.2209  0.1885  3.7783
13447SOL     OW52065  11.260   1.010   6.188  0.1980  0.2967 -0.1942
13447SOL    HW152066  11.166   1.017   6.171 -0.1069  0.6903  1.4595
13447SOL    HW252067  11.271   0.923   6.226  0.6119  0.0270 -0.9098
13448SOL     OW52068  13.297   3.387   2.299  0.5382  0.1227  0.1226
13448SOL    HW152069  13.316   3.355   2.211 -2.4590 -2.8932  0.3787
13448SOL    HW252070  13.254   3.471   2.285 -0.6748 -0.6925 -1.4293
13449SOL     OW52071   6.601   5.694  11.796 -0.5461 -0.2903  0.0440
13449SOL    HW152072   6.684   5.646  11.791  0.9063  1.8375  1.6611
13449SOL    HW252073   6.559   5.679  11.711  1.8927 -0.7417 -1.1665
13450SOL     OW52074  13.546   7.353  12.565 -0.2015  0.4299 -0.7111
13450SOL    HW152075  13.569   7.423  12.504  1.2391 -0.2373 -0.9777
13450SOL    HW252076  13.559   7.272  12.515  1.3797 -0.1522  0.5567
13451SOL     OW52077  11.664   3.074   9.159 -0.3623  0.5385  0.7772
13451SOL    HW152078  11.578   3.116   9.166 -0.4084  0.8343 -1.1797
13451SOL    HW252079  11.659   3.022   9.079  0.6488 -1.0027  1.6725
13452SOL     OW52080  10.177   3.474  13.127 -0.2850  0.1005 -0.2363
13452SOL    HW152081  10.102   3.470  13.186 -1.1702  1.7852 -1.1755
13452SOL    HW252082  10.169   3.558  13.082  2.3781  0.5179 -0.1279
13453SOL     OW52083   2.347  12.256  13.376 -0.0491 -0.0252 -0.3728
13453SOL    HW152084   2.273  12.214  13.421  1.3755 -0.7613  1.4164
13453SOL    HW252085   2.412  12.269  13.445  1.9329 -0.3891 -2.0823
13454SOL     OW52086   4.881   0.052  10.456 -0.3452 -0.5242 -0.3979
13454SOL    HW152087   4.938  -0.024  10.456  0.9067  0.3721  0.6939
13454SOL    HW252088   4.928   0.117  10.403 -0.9920 -0.2258 -0.6128
13455SOL     OW52089   7.248   8.970   8.268  0.2863  0.0712 -0.2655
13455SOL    HW152090   7.273   9.033   8.336  0.0354 -0.5238  0.3974
13455SOL    HW252091   7.182   8.915   8.310 -1.1670  0.7716 -1.5619
13456SOL     OW52092  13.046   9.677  10.226 -0.2711  0.0104 -0.7886
13456SOL    HW152093  12.997   9.697  10.305 -0.1288 -3.4820  0.3381
13456SOL    HW252094  13.138   9.677  10.253  0.0026  1.1322 -1.5992
13457SOL     OW52095  11.814   2.457   4.279  0.3175  0.1368 -0.4246
13457SOL    HW152096  11.874   2.530   4.262  0.9161 -0.3086 -0.2436
13457SOL    HW252097  11.841   2.389   4.218  0.1457 -0.1474 -0.1849
13458SOL     OW52098   1.438   7.184   6.321  0.1932  0.1075 -0.5083
13458SOL    HW152099   1.419   7.210   6.411 -0.6745 -1.3597 -0.2202
13458SOL    HW252100   1.534   7.186   6.315  0.2705  0.0766  0.4998
13459SOL     OW52101   4.237   3.911  11.688 -0.4048  0.2008 -0.1380
13459SOL    HW152102   4.199   3.886  11.603  1.1262  2.0008 -1.4323
13459SOL    HW252103   4.192   3.992  11.711  0.6376  0.8252 -0.2708
13460SOL     OW52104   9.217  13.557  12.789 -0.0546  0.0445  0.4844
13460SOL    HW152105   9.124  13.546  12.771 -0.0676 -0.3597  0.7942
13460SOL    HW252106   9.223  13.569  12.884  0.3634 -1.7958  0.7206
13461SOL     OW52107   9.559   8.659   8.949  0.5618 -0.0072  0.0950
13461SOL    HW152108   9.526   8.574   8.979 -1.0414  1.2610  2.1738
13461SOL    HW252109   9.481   8.713   8.938  1.5772  1.3616 -0.7201
13462SOL     OW52110   5.180   8.029  10.738 -0.0660  0.7556 -0.7128
13462SOL    HW152111   5.159   8.122  10.734 -1.3967  0.4313 -2.3880
13462SOL    HW252112   5.134   7.998  10.816 -1.4384  1.1170 -1.3464
13463SOL     OW52113   0.524   4.081   1.759  0.1073  0.0083 -0.3977
13463SOL    HW152114   0.531   4.102   1.666 -1.4153  1.7631 -0.1714
13463SOL    HW252115   0.431   4.069   1.775  0.2674  0.3241  0.9976
13464SOL     OW52116   7.349  10.330   8.139 -0.1565 -0.2540  0.7732
13464SOL    HW152117   7.403  10.374   8.204  0.7503 -0.7101  0.3576
13464SOL    HW252118   7.283  10.394   8.114 -0.3535  0.0165  1.9324
13465SOL     OW52119  12.186   5.866   4.562  0.4694 -0.3967  0.0487
13465SOL    HW152120  12.259   5.922   4.589 -0.9178  1.0915  0.8436
13465SOL    HW252121  12.142   5.842   4.643 -0.9544  0.1677 -0.5330
13466SOL     OW52122  11.065  11.161  12.827  0.2975  0.1821  0.0808
13466SOL    HW152123  11.010  11.221  12.877 -0.5947 -0.1199 -0.5217
13466SOL    HW252124  11.151  11.168  12.868 -0.2891  0.3276  1.3329
13467SOL     OW52125   6.021   3.518   4.728 -0.5091  0.2483 -0.5683
13467SOL    HW152126   5.949   3.571   4.695 -0.2664  2.6309  2.1946
13467SOL    HW252127   6.096   3.577   4.726  0.0340 -0.2637  1.6954
13468SOL     OW52128   2.437   1.280   6.069  0.8064 -0.2050 -0.3489
13468SOL    HW152129   2.453   1.232   6.151 -1.8704 -0.1393  0.3065
13468SOL    HW252130   2.480   1.364   6.083  2.1208 -0.9157  0.1292
13469SOL     OW52131   2.427   1.962  12.411  0.0028  0.1350  0.2921
13469SOL    HW152132   2.374   1.918  12.477  0.2174 -1.6028 -0.6339
13469SOL    HW252133   2.441   2.050  12.446 -2.4300  0.2639  1.1243
13470SOL     OW52134   9.695  12.118  11.098 -0.1888  0.3352 -0.2778
13470SOL    HW152135   9.708  12.164  11.181  0.3521 -0.4198  0.0621
13470SOL    HW252136   9.741  12.035  11.109 -1.8761 -0.6699 -0.5757
13471SOL     OW52137   9.669   5.230  12.326 -0.3030 -0.1866 -0.4302
13471SOL    HW152138   9.653   5.145  12.285  0.7917 -2.1641  2.8957
13471SOL    HW252139   9.755   5.222  12.366 -0.5295  2.2178  0.7134
13472SOL     OW52140  12.261   2.270   4.190 -0.1739  0.2549  0.2113
13472SOL    HW152141  12.312   2.351   4.193  0.1590  0.0467  0.3267
13472SOL    HW252142  12.327   2.201   4.180 -0.3883 -0.0680  0.9485
13473SOL     OW52143   1.745   5.138  11.317  0.2703 -0.1781 -0.6557
13473SOL    HW152144   1.801   5.190  11.375  0.1126  0.7895 -1.3350
13473SOL    HW252145   1.660   5.183  11.319 -0.1036 -0.8694 -0.6544
13474SOL     OW52146   4.053   6.606   2.386 -0.2199  0.6023  0.3574
13474SOL    HW152147   4.125   6.573   2.440 -0.4691 -1.7294 -0.6476
13474SOL    HW252148   3.988   6.536   2.386 -1.7516  1.9485 -0.1939
13475SOL     OW52149  13.113  12.250   3.301  0.7979 -0.1299  0.0954
13475SOL    HW152150  13.144  12.285   3.217  0.1643 -0.3313 -0.2276
13475SOL    HW252151  13.095  12.328   3.353  1.0722 -0.0011  0.0051
13476SOL     OW52152   7.202   8.584   3.151 -0.5707  0.3659 -0.1676
13476SOL    HW152153   7.177   8.492   3.155 -0.7640  0.3896 -0.7282
13476SOL    HW252154   7.203   8.613   3.242 -1.1644 -0.0166 -0.0389
13477SOL     OW52155   0.079   4.459   1.041 -0.4811  1.0015  0.2267
13477SOL    HW152156  -0.003   4.463   0.991 -0.4807  0.8731  0.2149
13477SOL    HW252157   0.103   4.550   1.054  0.9804  1.1170 -2.4318
13478SOL     OW52158  13.681   8.334   2.486 -0.1651 -0.2735  0.5064
13478SOL    HW152159  13.657   8.242   2.479  1.1377 -0.5584 -0.8440
13478SOL    HW252160  13.674   8.367   2.396  0.0776  0.7589  0.8532
13479SOL     OW52161   9.482  11.837   1.053  0.0583 -0.4842  0.3544
13479SOL    HW152162   9.387  11.829   1.058 -0.0120  0.2751  0.3384
13479SOL    HW252163   9.504  11.816   0.962  0.1593 -2.9410  0.8800
13480SOL     OW52164  10.125   2.466  12.979  0.1436 -0.1767  0.0625
13480SOL    HW152165  10.139   2.549  12.932 -0.1992  0.0910  0.4258
13480SOL    HW252166  10.040   2.477  13.021  0.5921 -0.2701  1.0287
13481SOL     OW52167  10.992   4.151  11.494  0.2502 -0.5857  0.0202
13481SOL    HW152168  10.948   4.212  11.553  0.4206 -0.2120 -0.2300
13481SOL    HW252169  11.072   4.198  11.467 -0.8751  0.2084 -2.2394
13482SOL     OW52170   7.570   9.228   9.459 -0.5095  0.2748 -0.0323
13482SOL    HW152171   7.587   9.266   9.373  0.4277  1.1522  0.5145
13482SOL    HW252172   7.652   9.183   9.482 -0.7189  0.1264  0.4412
13483SOL     OW52173   1.198   5.892  10.430  0.3313  0.3834  0.1361
13483SOL    HW152174   1.149   5.844  10.497 -1.6494  0.9457 -0.8362
13483SOL    HW252175   1.287   5.859  10.438 -0.5867 -2.2694  0.5930
13484SOL     OW52176   8.199   6.256   7.229  0.1191 -0.3220  0.2282
13484SOL    HW152177   8.255   6.181   7.247 -0.8718 -1.0797  0.2708
13484SOL    HW252178   8.248   6.308   7.165  0.2659 -1.6938 -0.8210
13485SOL     OW52179   9.309  11.200   2.977 -0.2647  0.1333 -0.3937
13485SOL    HW152180   9.232  11.243   3.015  0.2475  0.0102  0.8512
13485SOL    HW252181   9.379  11.216   3.041  0.2655 -1.4099 -0.5480
13486SOL     OW52182   4.331   0.668   6.763  0.9457  0.0308  0.5410
13486SOL    HW152183   4.286   0.725   6.701 -1.3482  1.1237  3.0412
13486SOL    HW252184   4.417   0.710   6.775  1.1600  0.1973 -1.2255
13487SOL     OW52185  10.424   0.849   3.829 -0.2004  0.2467 -0.7387
13487SOL    HW152186  10.333   0.870   3.851 -0.3429  0.5590 -1.5987
13487SOL    HW252187  10.469   0.933   3.827  1.1197 -0.0900  3.7103
13488SOL     OW52188   8.959   7.584   4.971  0.0547  0.1987 -0.0299
13488SOL    HW152189   8.994   7.673   4.971 -1.4787  0.8893 -1.9107
13488SOL    HW252190   8.906   7.579   5.051 -0.4719  1.2738 -0.2880
13489SOL     OW52191   3.295  12.540   8.586 -0.5936  0.5861 -0.5368
13489SOL    HW152192   3.361  12.553   8.517  0.8963 -0.3935  0.6192
13489SOL    HW252193   3.264  12.450   8.572  1.8640 -0.7643  1.6700
13490SOL     OW52194  12.206   7.717  12.883 -0.2891  0.0429  0.3960
13490SOL    HW152195  12.210   7.811  12.866 -0.6361  0.6004  2.9804
13490SOL    HW252196  12.280   7.700  12.941 -0.8511 -1.0739  0.8202
13491SOL     OW52197   9.795   2.461   5.132 -0.4220  0.1509 -0.4174
13491SOL    HW152198   9.749   2.541   5.107 -3.3020 -1.4294 -0.6018
13491SOL    HW252199   9.782   2.455   5.227  2.6972  1.5110  0.2083
13492SOL     OW52200   2.052   3.265   8.170  0.1890 -0.4032  0.2774
13492SOL    HW152201   2.012   3.184   8.137 -0.3956  0.0767 -0.2176
13492SOL    HW252202   2.138   3.238   8.202 -0.4795 -1.4333  1.2375
13493SOL     OW52203   6.922  13.246  10.171  1.0265  0.7955 -0.3869
13493SOL    HW152204   6.961  13.159  10.168 -2.6143 -1.0409 -0.2847
13493SOL    HW252205   6.910  13.264  10.264  0.7211  0.8540 -0.4361
13494SOL     OW52206   1.669   5.789  13.199 -0.1475 -0.1394 -0.4250
13494SOL    HW152207   1.646   5.793  13.292  2.5412 -1.0861  0.3688
13494SOL    HW252208   1.584   5.779  13.154 -1.4091 -1.7543  2.0699
13495SOL     OW52209   5.666   5.286   6.965  0.0602  0.4048  0.6371
13495SOL    HW152210   5.619   5.260   7.044 -0.6206  0.0235  0.1204
13495SOL    HW252211   5.598   5.294   6.898  0.5236  1.5255  0.2769
13496SOL     OW52212   9.629   6.300   3.036  0.0471 -0.2733  0.0427
13496SOL    HW152213   9.689   6.229   3.059  0.7397 -0.1037 -1.1628
13496SOL    HW252214   9.669   6.378   3.074  1.6303  0.1412 -2.2833
13497SOL     OW52215   8.849   0.636   4.861 -0.1356 -0.2227  0.3088
13497SOL    HW152216   8.938   0.643   4.826 -0.6697 -0.5161 -1.1804
13497SOL    HW252217   8.807   0.571   4.805 -1.6489  0.7904  0.2356
13498SOL     OW52218   1.609  12.875   9.960 -0.1949  0.6856 -0.4281
13498SOL    HW152219   1.514  12.885   9.956 -0.1463  0.7953 -2.6253
13498SOL    HW252220   1.639  12.906   9.875  1.5848 -1.5574 -0.7041
13499SOL     OW52221   5.748   0.109   6.176  0.2791 -0.0954 -0.6250
13499SOL    HW152222   5.839   0.079   6.177  0.3212 -0.0514  1.3128
13499SOL    HW252223   5.731   0.135   6.266 -1.4952  0.4360 -1.0776
13500SOL     OW52224  13.590   2.655  12.627  0.3466 -0.2872  0.1204
13500SOL    HW152225  13.596   2.750  12.641  0.8553  0.0393 -1.8803
13500SOL    HW252226  13.504   2.630  12.660 -1.0779  1.4588 -2.0125
13501SOL     OW52227   0.796   4.860   2.026 -0.0674 -0.0565 -0.1213
13501SOL    HW152228   0.739   4.789   1.996  0.1039 -1.4121  2.4845
13501SOL    HW252229   0.740   4.914   2.081  0.8513 -0.8947  1.7326
13502SOL     OW52230   2.289   7.622   2.572  0.2079 -0.2616  0.2216
13502SOL    HW152231   2.314   7.581   2.490  0.2855  0.7563 -0.2828
13502SOL    HW252232   2.371   7.628   2.622  0.8021  1.8623 -0.8869
13503SOL     OW52233  12.211   6.483   0.372 -0.3465  0.1010  0.1609
13503SOL    HW152234  12.183   6.575   0.371  1.1847  0.5812  0.0063
13503SOL    HW252235  12.130   6.434   0.353 -0.9042  1.4804 -1.3179
13504SOL     OW52236   2.683   9.320  10.969  0.0346  0.1479  0.7680
13504SOL    HW152237   2.758   9.340  11.024  0.7897  1.2034 -0.5786
13504SOL    HW252238   2.632   9.257  11.019  1.4725 -0.0882  1.9903
13505SOL     OW52239  10.613   6.997   9.472 -0.1300 -0.4018  0.1837
13505SOL    HW152240  10.583   6.937   9.540  1.8133 -0.7509  0.8106
13505SOL    HW252241  10.672   7.057   9.518 -0.0117  0.3487 -0.9149
13506SOL     OW52242  13.313   2.571  12.041 -0.1778 -0.2436  0.0552
13506SOL    HW152243  13.370   2.495  12.029  1.2241  0.9056 -0.8850
13506SOL    HW252244  13.333   2.603  12.129  0.5450  0.0627 -0.2130
13507SOL     OW52245   8.390  12.608   4.805 -0.5435 -0.3990 -0.0934
13507SOL    HW152246   8.297  12.592   4.819 -0.6621 -0.4344 -0.8817
13507SOL    HW252247   8.433  12.538   4.856 -0.8916  0.3066  1.2232
13508SOL     OW52248   3.938   6.340   8.493 -0.3247  0.6100 -0.0829
13508SOL    HW152249   4.028   6.337   8.458 -0.1077  0.5073  0.4729
13508SOL    HW252250   3.884   6.302   8.424  0.2088 -0.3830  0.0251
13509SOL     OW52251   8.760   4.061  11.910 -0.0543 -0.4784  0.9177
13509SOL    HW152252   8.706   4.135  11.885 -0.6893 -1.3683 -0.4530
13509SOL    HW252253   8.846   4.099  11.930 -0.1262  0.5367 -0.5686
13510SOL     OW52254   2.234  12.081   5.926  0.0439 -0.9916 -0.1761
13510SOL    HW152255   2.246  12.174   5.908  1.8932 -1.2689 -0.5936
13510SOL    HW252256   2.256  12.070   6.018 -2.6149 -0.6744  0.5742
13511SOL     OW52257  11.079   3.863  11.971  0.5866 -0.0264  0.4465
13511SOL    HW152258  11.098   3.942  12.021  1.0319 -0.2695  0.6667
13511SOL    HW252259  11.085   3.891  11.879  1.7275 -0.0118  0.5076
13512SOL     OW52260  11.272  13.430   8.667 -0.0575  0.4305 -0.1063
13512SOL    HW152261  11.303  13.413   8.756 -0.4813 -1.0230 -0.2101
13512SOL    HW252262  11.351  13.457   8.620  0.1952  1.0939  0.6608
13513SOL     OW52263   1.229   6.598   6.647 -0.5919  0.2433 -0.6896
13513SOL    HW152264   1.302   6.628   6.702  0.3447 -3.3381  0.3380
13513SOL    HW252265   1.151   6.622   6.696  0.1950 -1.7785  1.8437
13514SOL     OW52266   5.908  10.590   8.257 -0.3327  1.0037  0.6064
13514SOL    HW152267   5.947  10.675   8.280  0.7119  0.0666  2.4813
13514SOL    HW252268   5.902  10.543   8.340  0.4525 -1.3225 -0.5935
13515SOL     OW52269   2.482   3.035   3.860  0.4818 -0.1367  0.0002
13515SOL    HW152270   2.577   3.045   3.863  0.4276  0.2186  1.0876
13515SOL    HW252271   2.466   2.945   3.886  0.4659  0.2361  1.3458
13516SOL     OW52272  11.948   6.924   6.451  0.3379  0.0090  0.3516
13516SOL    HW152273  11.966   6.961   6.537 -2.0562  3.2006 -0.3345
13516SOL    HW252274  11.870   6.869   6.465 -0.5101  1.1298  0.1476
13517SOL     OW52275  10.214   7.678  13.332  0.0333  0.0474 -0.4715
13517SOL    HW152276  10.199   7.602  13.276 -0.4780  0.9630 -1.6272
13517SOL    HW252277  10.133   7.729  13.325 -0.8486 -0.7211  2.6462
13518SOL     OW52278   7.306   5.796  13.555  0.6093 -0.5714  0.6381
13518SOL    HW152279   7.363   5.838  13.620 -0.4522 -0.4566  1.5188
13518SOL    HW252280   7.218   5.826  13.578  0.3095  0.3445 -1.5316
13519SOL     OW52281   2.803   7.005   8.964  0.3236 -0.2215  0.3010
13519SOL    HW152282   2.867   7.076   8.969  0.6464 -0.5758  2.1489
13519SOL    HW252283   2.855   6.925   8.959 -0.0355 -0.3759 -1.6769
13520SOL     OW52284   1.116  12.209   3.269  0.1126  0.0427  0.5264
13520SOL    HW152285   1.155  12.133   3.225  0.1557  0.6109 -0.4516
13520SOL    HW252286   1.183  12.277   3.262 -0.6028  0.6962 -0.1787
13521SOL     OW52287   6.811  12.237  12.467 -0.4948  0.0613 -0.4293
13521SOL    HW152288   6.765  12.314  12.433  1.9408  0.4388 -3.2595
13521SOL    HW252289   6.858  12.270  12.544 -0.6866  1.0567 -0.7263
13522SOL     OW52290   4.726   1.504   1.943  0.0404 -0.4689  0.1755
13522SOL    HW152291   4.675   1.423   1.941  1.0728 -1.1479 -1.5885
13522SOL    HW252292   4.796   1.487   2.005  0.1129 -0.8536 -0.0079
13523SOL     OW52293   2.482   0.392  10.440  0.3071 -0.3177  0.2797
13523SOL    HW152294   2.577   0.407  10.435 -0.0347  3.0155  1.0081
13523SOL    HW252295   2.457   0.431  10.524 -1.8500 -0.0028 -0.4582
13524SOL     OW52296  12.045  12.834   6.251 -0.5450  0.8455  0.0454
13524SOL    HW152297  11.976  12.779   6.213  0.2854  0.4234 -0.8772
13524SOL    HW252298  12.016  12.924   6.233 -0.8628  0.6706 -0.3246
13525SOL     OW52299   0.691   2.264   3.812  0.5091 -0.4070 -0.1782
13525SOL    HW152300   0.640   2.323   3.868 -0.3875  0.5619 -1.9217
13525SOL    HW252301   0.782   2.289   3.828  0.2223  0.4964  0.1528
13526SOL     OW52302  13.495  11.866   8.311  0.0746  0.2141 -0.2772
13526SOL    HW152303  13.422  11.923   8.286 -1.1686 -1.3994 -0.4778
13526SOL    HW252304  13.531  11.907   8.390 -2.1657  0.1481  0.8696
13527SOL     OW52305   9.793   6.752   0.938  0.0771  0.0363 -0.7542
13527SOL    HW152306   9.836   6.709   0.864  0.4588  0.9219 -1.0625
13527SOL    HW252307   9.775   6.841   0.906 -0.9852  0.0141 -0.2432
13528SOL     OW52308   4.108   3.065   8.464  0.0604 -0.5942  0.0434
13528SOL    HW152309   4.146   3.082   8.377  1.8060  0.2496  0.9228
13528SOL    HW252310   4.086   2.972   8.462 -0.8584 -0.3815 -1.6354
13529SOL     OW52311   1.725   1.939   6.927  0.0729 -0.0322 -0.1210
13529SOL    HW152312   1.760   2.021   6.962 -0.6429 -0.6638  2.2110
13529SOL    HW252313   1.757   1.872   6.986 -1.0946 -1.1990 -0.7638
13530SOL     OW52314   8.101  13.223   7.790 -0.1838 -0.0243 -0.1313
13530SOL    HW152315   8.113  13.264   7.876  0.0625 -0.1986 -0.0810
13530SOL    HW252316   8.098  13.129   7.809  0.6575 -0.1156 -0.3916
13531SOL     OW52317   9.711   7.464   8.013 -0.2045 -0.0662  0.0686
13531SOL    HW152318   9.729   7.445   8.105 -3.6934 -0.8897  0.7259
13531SOL    HW252319   9.695   7.378   7.974 -0.2991  0.3886 -0.9163
13532SOL     OW52320   0.787   8.298   6.954 -0.1065 -0.4576  0.0929
13532SOL    HW152321   0.730   8.374   6.958  2.3828  1.6074 -0.6016
13532SOL    HW252322   0.855   8.316   7.018 -0.8605 -3.5028  1.9450
13533SOL     OW52323  10.608   0.545  13.060  0.2241 -0.1332 -0.1003
13533SOL    HW152324  10.599   0.598  12.982  3.0251  1.4754  0.5066
13533SOL    HW252325  10.703   0.533  13.070 -0.1753 -3.0529  1.2842
13534SOL     OW52326  11.684   5.786   4.658 -0.0102  0.3159 -0.1823
13534SOL    HW152327  11.669   5.696   4.630 -1.9914  0.8688 -1.0245
13534SOL    HW252328  11.651   5.840   4.586 -0.5074  1.7179  1.0450
13535SOL     OW52329  11.235   9.356   5.088  0.2422 -0.2603  0.2201
13535SOL    HW152330  11.227   9.421   5.158  0.4256 -0.6759  0.6369
13535SOL    HW252331  11.161   9.297   5.102  0.2496 -0.3140  0.0332
13536SOL     OW52332  11.218   1.372  11.084 -0.0892 -0.1905 -0.3811
13536SOL    HW152333  11.252   1.458  11.060 -0.0914  0.2235  0.9822
13536SOL    HW252334  11.190   1.383  11.175 -0.3302 -1.5688 -0.2767
13537SOL     OW52335   5.531   5.694   4.221 -0.4697 -0.0557 -0.5402
13537SOL    HW152336   5.548   5.600   4.216  3.3728  0.5383 -2.5035
13537SOL    HW252337   5.579   5.724   4.298 -1.5153  0.4077 -0.0325
13538SOL     OW52338  10.417   1.784   6.750  0.4565 -0.6002  0.0108
13538SOL    HW152339  10.460   1.852   6.801 -1.5275 -0.7662  2.0178
13538SOL    HW252340  10.464   1.704   6.773 -0.1196 -0.5970  1.2669
13539SOL     OW52341   7.185   2.803   8.974 -0.1577  0.1386  0.1286
13539SOL    HW152342   7.099   2.844   8.962  0.3013  0.8834 -0.7932
13539SOL    HW252343   7.179   2.760   9.059 -1.7646 -0.6341 -0.3260
13540SOL     OW52344   4.731   3.824   1.434 -0.3345  0.9004 -0.1109
13540SOL    HW152345   4.693   3.894   1.487 -0.6635 -0.9654  2.2906
13540SOL    HW252346   4.655   3.780   1.396 -0.4674 -0.4855  1.6038
13541SOL     OW52347   1.244  13.070   8.337 -0.3622 -0.1207  0.3231
13541SOL    HW152348   1.322  13.106   8.379 -0.3364 -1.5220  1.5789
13541SOL    HW252349   1.176  13.137   8.351  0.3212  0.5944  0.2527
13542SOL     OW52350   9.510   5.270   8.635 -0.2677 -0.0300 -0.1248
13542SOL    HW152351   9.493   5.268   8.729  0.4682 -0.5548  0.0060
13542SOL    HW252352   9.567   5.346   8.623  0.3146 -0.4425 -0.0185
13543SOL     OW52353   5.082  13.519   1.290  0.0298 -0.5158 -0.4729
13543SOL    HW152354   5.176  13.509   1.274  0.1848 -2.8357  1.1975
13543SOL    HW252355   5.053  13.431   1.315 -2.6739  0.0685 -1.2333
13544SOL     OW52356   0.292   9.909   6.445  0.2975 -0.1659 -0.4786
13544SOL    HW152357   0.291   9.994   6.400 -0.3596 -1.1212 -2.4116
13544SOL    HW252358   0.311   9.846   6.375 -0.8953 -1.7684  0.5793
13545SOL     OW52359   7.054   1.225  13.316  0.2251  0.0073 -0.4731
13545SOL    HW152360   7.086   1.176  13.391  1.1831 -0.0061 -0.8847
13545SOL    HW252361   7.050   1.160  13.245 -0.6614  0.0220 -0.4489
13546SOL     OW52362   7.446  11.973  11.926 -0.4016 -0.8347 -0.3436
13546SOL    HW152363   7.389  12.046  11.950  1.4585  1.2870 -1.9503
13546SOL    HW252364   7.426  11.904  11.989 -1.6302  1.3752  1.8113
13547SOL     OW52365   8.589   0.632  12.396  0.6226  0.1176 -0.1974
13547SOL    HW152366   8.681   0.640  12.422  0.6227 -0.6491  0.0819
13547SOL    HW252367   8.575   0.537  12.387  0.1462  0.2759 -1.3022
13548SOL     OW52368  11.827   7.196   7.590 -0.2007 -0.2638 -0.1523
13548SOL    HW152369  11.806   7.207   7.497 -2.2423  2.4859  0.5073
13548SOL    HW252370  11.764   7.132   7.622  0.3788 -1.0681 -0.5804
13549SOL     OW52371   6.699   1.808  12.254 -0.0440  0.7645  0.2408
13549SOL    HW152372   6.774   1.842  12.304  1.5576 -1.2805 -0.6022
13549SOL    HW252373   6.656   1.747  12.314 -0.1595  0.8490  0.2442
13550SOL     OW52374   7.348   4.456  13.620 -0.2761 -0.1459  0.1627
13550SOL    HW152375   7.256   4.436  13.634 -0.4223  1.4314  1.9209
13550SOL    HW252376   7.394   4.376  13.646 -1.0607 -0.1215  1.7676
13551SOL     OW52377   2.297   4.139  13.460 -0.4684  0.2981 -0.2334
13551SOL    HW152378   2.362   4.108  13.522  0.1637 -0.3760 -1.2129
13551SOL    HW252379   2.318   4.232  13.448 -0.0695  0.2290 -0.0805
13552SOL     OW52380  11.104   7.999   6.184  0.6251 -0.1269 -0.3432
13552SOL    HW152381  11.074   8.071   6.239  0.2439 -0.8553  0.4242
13552SOL    HW252382  11.036   7.988   6.118 -0.0334 -0.7272  0.4232
13553SOL     OW52383   2.950   9.942   1.377  0.0452  0.0858  0.1568
13553SOL    HW152384   3.004   9.960   1.454  1.9610 -1.6202 -0.6750
13553SOL    HW252385   2.889   9.874   1.406 -1.7931  2.0348  1.1078
13554SOL     OW52386   5.996   5.729   6.866 -0.2084 -0.3851  0.8887
13554SOL    HW152387   5.968   5.679   6.943  0.8784  0.0605  1.6119
13554SOL    HW252388   6.091   5.715   6.862 -0.4093 -1.4193 -1.1344
13555SOL     OW52389   3.563  13.480   6.779  0.1515 -0.0595 -0.1031
13555SOL    HW152390   3.481  13.517   6.748  0.7749  0.1608 -1.5517
13555SOL    HW252391   3.552  13.385   6.769  0.3168  0.0070 -0.9244
13556SOL     OW52392   0.777   2.979   2.284 -0.1025 -0.3316 -0.2829
13556SOL    HW152393   0.818   3.064   2.299  0.2487 -0.4534 -0.5491
13556SOL    HW252394   0.849   2.921   2.260 -0.4716 -0.4663 -1.1114
13557SOL     OW52395   8.796   6.177   9.069  0.3485  0.2141  0.2726
13557SOL    HW152396   8.852   6.115   9.116 -1.8263 -1.3096  1.0288
13557SOL    HW252397   8.758   6.126   8.998  0.2943  1.3598 -0.5465
13558SOL     OW52398   9.560  10.324  13.629  0.2966 -0.3659 -0.5572
13558SOL    HW152399   9.612  10.248  13.656  0.6062  0.5291  1.6061
13558SOL    HW252400   9.610  10.399  13.661 -0.4084  0.7292 -1.9201
13559SOL     OW52401  11.570   1.775   8.104 -0.3656 -0.0685 -0.5484
13559SOL    HW152402  11.545   1.840   8.038  0.5504 -2.0623 -2.9780
13559SOL    HW252403  11.506   1.706   8.095  0.4682 -0.9074 -0.1899
13560SOL     OW52404   7.974  11.395  12.344 -0.0558 -0.6345 -0.0188
13560SOL    HW152405   8.056  11.372  12.301 -1.2850 -2.2949 -1.6642
13560SOL    HW252406   7.908  11.342  12.299 -2.3944  2.2821 -0.3492
13561SOL     OW52407  11.913   0.645  10.758 -0.1176 -0.3975  0.0101
13561SOL    HW152408  11.838   0.629  10.701 -0.1432 -1.7360  0.3783
13561SOL    HW252409  11.988   0.610  10.709  0.4266  1.5667 -0.6704
13562SOL     OW52410   5.671  11.240   1.451 -0.1094 -0.0088 -0.0265
13562SOL    HW152411   5.627  11.191   1.381 -0.5910  0.3825  0.0001
13562SOL    HW252412   5.600  11.280   1.501  0.1913 -0.8739  1.1415
13563SOL     OW52413   3.707   0.251   4.035  0.0985  0.6666  0.0215
13563SOL    HW152414   3.628   0.198   4.022  0.6852 -0.0873 -0.6092
13563SOL    HW252415   3.700   0.284   4.124  0.0805 -1.1283  0.7257
13564SOL     OW52416   2.235   2.179   0.667 -0.6984 -0.3208  0.0255
13564SOL    HW152417   2.193   2.098   0.637  0.2171 -0.3851 -1.1450
13564SOL    HW252418   2.190   2.200   0.749 -1.5058 -1.5683 -0.0676
13565SOL     OW52419   1.012   6.630   7.352  0.2191  0.0516 -0.1584
13565SOL    HW152420   1.066   6.610   7.428 -0.6403  0.5353  0.6110
13565SOL    HW252421   0.958   6.552   7.340  1.4115 -0.6246 -1.2313
13566SOL     OW52422   0.861   7.066   3.048  0.5034 -0.0968 -0.1189
13566SOL    HW152423   0.896   7.142   3.001  0.5842  0.1990  0.4228
13566SOL    HW252424   0.862   6.995   2.982  0.8603  0.2477 -0.4885
13567SOL     OW52425  10.837   5.935   1.752 -0.2298 -0.0158  0.2547
13567SOL    HW152426  10.926   5.928   1.785 -0.0370  1.1058  0.0084
13567SOL    HW252427  10.811   6.025   1.771 -1.0798 -0.1435 -0.2457
13568SOL     OW52428  12.833   6.388   4.142 -0.1846 -0.3823 -0.0473
13568SOL    HW152429  12.882   6.314   4.107  1.3241  0.9486 -0.9000
13568SOL    HW252430  12.792   6.429   4.066 -0.1581  0.2278  0.2548
13569SOL     OW52431   8.343   3.977   6.188 -0.3777  0.4642 -0.2221
13569SOL    HW152432   8.397   3.900   6.205  1.3643  1.7521  0.4070
13569SOL    HW252433   8.317   3.969   6.097  0.8022 -0.2714 -0.5180
13570SOL     OW52434   9.107   7.789   3.443  0.4223 -0.8196 -0.1335
13570SOL    HW152435   9.138   7.712   3.490 -0.7455 -1.5655 -0.5399
13570SOL    HW252436   9.083   7.756   3.357 -0.5149 -0.0889 -0.1634
13571SOL     OW52437   3.500   3.934   0.956  0.2452  0.2460 -0.1605
13571SOL    HW152438   3.561   3.903   0.889  0.1792 -1.0953  0.3607
13571SOL    HW252439   3.527   3.889   1.036 -0.5388  0.7355  0.3934
13572SOL     OW52440   9.383   5.120   4.007  0.6708 -0.4812 -0.2803
13572SOL    HW152441   9.310   5.076   4.051  0.2034  0.5685  0.0085
13572SOL    HW252442   9.425   5.051   3.955  0.1498 -1.3350  0.4195
13573SOL     OW52443   1.675   6.144   7.647 -0.1024  0.0116 -0.4612
13573SOL    HW152444   1.752   6.107   7.691  0.9472  1.5943 -0.9232
13573SOL    HW252445   1.668   6.233   7.681 -1.5299  0.0140 -0.7008
13574SOL     OW52446   4.127  10.358   0.155  0.7584 -0.4489  0.1562
13574SOL    HW152447   4.181  10.343   0.233 -0.0301  0.8701  0.9991
13574SOL    HW252448   4.084  10.274   0.139 -0.6324 -0.2630  2.4059
13575SOL     OW52449   0.945  10.499   2.695 -0.4332  0.2458  0.8190
13575SOL    HW152450   0.888  10.423   2.684  2.6347 -2.0134 -1.0931
13575SOL    HW252451   0.887  10.575   2.684 -3.0919 -1.8193 -0.6396
13576SOL     OW52452  13.018   6.122   7.907 -0.5170 -0.2208  0.0617
13576SOL    HW152453  13.108   6.103   7.932 -0.4726 -1.4407 -0.9088
13576SOL    HW252454  13.012   6.092   7.817 -1.6248  0.8037 -0.2287
13577SOL     OW52455   3.190   9.274  11.259 -0.0536  0.2524  0.1242
13577SOL    HW152456   3.223   9.302  11.174  0.4306  0.1292  0.2687
13577SOL    HW252457   3.193   9.179  11.257  1.6363  0.2461  0.9027
13578SOL     OW52458  12.440   2.848   7.247  0.0939 -0.0545 -0.9096
13578SOL    HW152459  12.475   2.933   7.217 -1.0341  0.3162 -1.2359
13578SOL    HW252460  12.348   2.866   7.266 -0.2190 -1.2642 -1.2144
13579SOL     OW52461   3.515   4.418   5.678  0.6228  0.4514  0.7342
13579SOL    HW152462   3.431   4.407   5.723  0.5458 -0.0536  0.4754
13579SOL    HW252463   3.562   4.337   5.695  1.3284  0.9860  1.4182
13580SOL     OW52464   8.509   9.552   7.735  0.1966 -0.5593 -0.7855
13580SOL    HW152465   8.416   9.539   7.755  0.2204  0.2378 -0.1001
13580SOL    HW252466   8.524   9.645   7.754  1.1602 -0.7046 -0.8141
13581SOL     OW52467   0.545   8.211   7.764 -0.1631 -0.1248  0.0647
13581SOL    HW152468   0.542   8.130   7.712 -0.5478 -0.1889  0.1819
13581SOL    HW252469   0.558   8.280   7.700  2.2663 -0.4432  0.1284
13582SOL     OW52470   3.997   8.715   0.648  0.5569 -0.3636  0.2156
13582SOL    HW152471   3.951   8.794   0.619  1.1089 -1.3202 -3.8110
13582SOL    HW252472   3.927   8.656   0.677 -0.0257  0.7790  1.2357
13583SOL     OW52473   5.905   8.180   7.352 -0.0322  0.4869 -0.2147
13583SOL    HW152474   5.856   8.262   7.356 -1.1322 -0.2010  0.8816
13583SOL    HW252475   5.946   8.171   7.438 -0.3748 -0.3727 -0.1266
13584SOL     OW52476  13.058   4.948   7.498  0.1318 -0.6481  0.0250
13584SOL    HW152477  13.102   5.020   7.543 -1.3255 -0.9965  2.1235
13584SOL    HW252478  13.082   4.870   7.548  0.6840 -1.5075 -1.4850
13585SOL     OW52479   6.075   2.555   3.901  0.0941 -0.0197 -0.4846
13585SOL    HW152480   6.148   2.520   3.952  0.0868 -1.1750 -1.2349
13585SOL    HW252481   6.116   2.590   3.822  0.1118  1.8205  0.2803
13586SOL     OW52482   1.521   2.616  12.620  0.3964 -0.5577 -1.1891
13586SOL    HW152483   1.536   2.557  12.546 -0.1380 -0.6089 -1.2589
13586SOL    HW252484   1.565   2.572  12.694  2.2130  0.2129 -1.7582
13587SOL     OW52485   5.514   2.715   9.319 -0.2900 -0.3104  0.5195
13587SOL    HW152486   5.497   2.789   9.262  2.7383  0.0614 -0.0584
13587SOL    HW252487   5.448   2.722   9.388  1.0420  4.1727  1.6628
13588SOL     OW52488   1.534   8.846   2.226  0.0039 -0.5085  0.3603
13588SOL    HW152489   1.625   8.876   2.234 -0.0162 -0.0991 -0.7998
13588SOL    HW252490   1.536   8.755   2.256  1.0668 -0.9236 -0.9074
13589SOL     OW52491   9.935   5.557   6.765 -0.1653 -0.4268 -0.3368
13589SOL    HW152492   9.965   5.557   6.674 -0.2849  0.1277 -0.3776
13589SOL    HW252493   9.936   5.464   6.790  0.4569 -0.5249 -0.7057
13590SOL     OW52494   7.689  12.263   5.616 -0.0056  0.3543 -0.2652
13590SOL    HW152495   7.603  12.266   5.575  0.3307  0.5677 -0.9612
13590SOL    HW252496   7.719  12.354   5.617  0.4165  0.2213 -0.4771
13591SOL     OW52497   4.775   0.460   4.479 -0.2677 -0.2362 -0.1342
13591SOL    HW152498   4.687   0.480   4.448 -1.4119 -1.7360  1.8555
13591SOL    HW252499   4.780   0.501   4.566  1.2253  0.2883 -0.4337
13592SOL     OW52500  12.083  13.307   9.163  0.6943 -0.5272  0.1877
13592SOL    HW152501  12.025  13.335   9.234 -0.7922  0.9316 -1.5307
13592SOL    HW252502  12.164  13.357   9.178  0.1513  0.2872  0.5107
13593SOL     OW52503   8.507   2.979   9.074  0.3940  0.1251 -0.5445
13593SOL    HW152504   8.522   3.025   9.156 -1.2365  1.3963 -0.8976
13593SOL    HW252505   8.549   2.894   9.086  0.9003  0.5891  1.2768
13594SOL     OW52506  10.013   7.742   2.905 -0.0354 -0.1685 -0.5258
13594SOL    HW152507  10.062   7.786   2.835 -0.0745 -1.1044 -1.1497
13594SOL    HW252508   9.938   7.703   2.861 -0.6526  0.1438  0.2218
13595SOL     OW52509   4.069  12.819   4.947 -0.5806  0.3475  0.2329
13595SOL    HW152510   4.001  12.752   4.946  1.0448 -1.4031  0.3233
13595SOL    HW252511   4.128  12.794   4.875  0.0931  1.6710  0.2932
13596SOL     OW52512   3.886   7.964  10.683  0.2002  0.9429  0.0190
13596SOL    HW152513   3.932   7.943  10.765 -2.2973 -0.3841  1.2184
13596SOL    HW252514   3.869   7.879  10.643 -1.7702  1.2622  0.0363
13597SOL     OW52515   3.228   1.447   6.752  0.0256 -0.5199  0.0437
13597SOL    HW152516   3.267   1.375   6.802 -0.5690 -2.2245 -1.7634
13597SOL    HW252517   3.265   1.437   6.664  1.7884  2.9546  0.2492
13598SOL     OW52518  10.415  12.859   7.238  0.2849  0.3279 -0.0891
13598SOL    HW152519  10.508  12.868   7.219  0.3430 -1.5505 -0.8238
13598SOL    HW252520  10.390  12.944   7.276  1.8619  1.5343 -1.5941
13599SOL     OW52521   1.482   4.979  13.688  0.0202 -0.2821  0.1224
13599SOL    HW152522   1.412   4.956  13.628  2.0326 -0.2189 -2.4397
13599SOL    HW252523   1.535   5.042  13.639  0.9738  0.9447  2.5816
13600SOL     OW52524  12.091   3.773  13.705 -0.1953 -0.3371 -0.2509
13600SOL    HW152525  12.021   3.835  13.688  0.4842  0.7922  0.9590
13600SOL    HW252526  12.052   3.707  13.761  0.0544  1.1085  1.7139
13601SOL     OW52527   8.874   1.598   2.754 -0.4760  0.5634 -0.1352
13601SOL    HW152528   8.818   1.639   2.821 -0.2558 -0.6134  0.7946
13601SOL    HW252529   8.841   1.508   2.748 -0.8440  0.7918 -2.0254
13602SOL     OW52530   8.223   3.597   3.250  1.4218 -0.1271 -0.2234
13602SOL    HW152531   8.182   3.652   3.183  1.1786  0.0633  0.0793
13602SOL    HW252532   8.159   3.593   3.321  1.9365  0.2195  0.2745
13603SOL     OW52533   7.351   7.057   0.378  0.2296  0.1765  0.5053
13603SOL    HW152534   7.304   6.998   0.437 -0.3225 -0.0113 -0.1004
13603SOL    HW252535   7.328   7.025   0.290 -0.0953  1.3021  0.1695
13604SOL     OW52536   8.043   5.492   6.847  0.7611 -0.1304 -0.2024
13604SOL    HW152537   8.135   5.494   6.871  0.4652 -1.0775  1.1072
13604SOL    HW252538   8.031   5.408   6.802  0.6944  0.3643 -1.1460
13605SOL     OW52539   6.967   9.229  11.762  0.1261  0.3510 -0.3971
13605SOL    HW152540   6.905   9.187  11.702  1.2826  1.6678 -2.6573
13605SOL    HW252541   6.921   9.308  11.792 -0.7813 -0.7384  1.2214
13606SOL     OW52542  12.084   5.623   8.126 -0.2323 -0.3991  0.1299
13606SOL    HW152543  12.012   5.625   8.062 -0.6241 -2.8613  0.3820
13606SOL    HW252544  12.159   5.659   8.079 -1.4569  1.8392 -0.2825
13607SOL     OW52545   2.032   4.189  13.399  0.4783  0.8353 -0.3172
13607SOL    HW152546   2.036   4.166  13.306 -0.0292 -2.5574  0.3689
13607SOL    HW252547   2.122   4.177  13.431  0.1894 -0.4290  0.0709
13608SOL     OW52548  10.177  12.475   5.563 -0.2001 -0.5393 -0.7039
13608SOL    HW152549  10.204  12.455   5.653 -1.8384 -0.4483 -0.1551
13608SOL    HW252550  10.234  12.547   5.537 -1.2084  1.0303  1.1506
13609SOL     OW52551   7.869   1.526   7.427 -0.8551  0.4930 -0.0642
13609SOL    HW152552   7.885   1.474   7.505 -0.7478 -0.0735 -0.4577
13609SOL    HW252553   7.803   1.590   7.453  0.7339  1.7607  1.1179
13610SOL     OW52554   8.989  11.197   1.275 -0.7639 -0.7643 -0.4533
13610SOL    HW152555   8.900  11.195   1.239 -1.4355  0.4813  1.0525
13610SOL    HW252556   8.994  11.121   1.333 -0.4691 -1.4297 -1.3261
13611SOL     OW52557  10.734   7.612   6.471 -0.4412 -0.7131 -0.5996
13611SOL    HW152558  10.807   7.559   6.504 -0.4831  0.7200  2.1507
13611SOL    HW252559  10.777   7.687   6.429 -0.3531 -0.8096 -0.6838
13612SOL     OW52560   0.807  11.475  11.565 -0.0422  0.6812  0.5406
13612SOL    HW152561   0.881  11.424  11.532 -1.1033 -0.1686 -0.6517
13612SOL    HW252562   0.781  11.431  11.645  0.7521  1.0130  0.9929
13613SOL     OW52563   8.800   0.667   1.361 -0.3754  0.3165  0.0848
13613SOL    HW152564   8.744   0.620   1.423 -1.2557  1.2855  0.0485
13613SOL    HW252565   8.840   0.737   1.413  1.2859 -0.7092  0.2452
13614SOL     OW52566   7.225   3.131   7.413 -0.1976 -0.6785 -0.6117
13614SOL    HW152567   7.272   3.051   7.390 -1.5447 -1.2509 -1.4634
13614SOL    HW252568   7.188   3.112   7.499  3.3245  0.8046  1.4859
13615SOL     OW52569  10.700   8.104   7.011  0.5324 -0.2578  0.3998
13615SOL    HW152570  10.684   8.012   7.032  1.0564 -0.4740 -0.1184
13615SOL    HW252571  10.686   8.110   6.916 -2.6818  0.8824  0.8115
13616SOL     OW52572   4.542   5.958  11.919  0.2566  0.1559 -0.1921
13616SOL    HW152573   4.553   5.941  11.825 -0.7944  0.0195 -0.3003
13616SOL    HW252574   4.483   5.889  11.949 -0.7632  1.1737  0.2148
13617SOL     OW52575  10.659   8.743  12.298  0.3483 -0.1014 -0.7347
13617SOL    HW152576  10.647   8.766  12.390  1.1330  0.3486 -0.7312
13617SOL    HW252577  10.704   8.658  12.300  2.4716  0.9416 -0.6197
13618SOL     OW52578   2.753   0.789   3.256  0.0452 -0.0705  0.8466
13618SOL    HW152579   2.789   0.718   3.203  1.0328  0.6330  0.5565
13618SOL    HW252580   2.807   0.865   3.234 -0.6455  0.6399  1.5675
13619SOL     OW52581  11.414   7.959   7.382 -0.0911  0.1540  1.0078
13619SOL    HW152582  11.391   7.928   7.295 -1.1872  0.0019  1.3402
13619SOL    HW252583  11.420   7.880   7.435  2.5764  0.0377  0.6693
13620SOL     OW52584   1.342   6.031   7.326 -0.3442 -0.0515  0.1523
13620SOL    HW152585   1.356   6.048   7.419  1.3649  0.9507 -0.2384
13620SOL    HW252586   1.274   6.093   7.300 -0.6165 -0.1330  0.6629
13621SOL     OW52587   5.157  10.950   3.548  0.1907  0.0944 -0.1425
13621SOL    HW152588   5.155  10.909   3.634 -1.1331  0.4777  0.0205
13621SOL    HW252589   5.148  10.878   3.486 -2.8933  0.1222  0.1565
13622SOL     OW52590   2.400   2.787   1.487 -0.3189  0.4818  0.5519
13622SOL    HW152591   2.404   2.843   1.409  2.2643  0.9185  0.9069
13622SOL    HW252592   2.450   2.709   1.463  0.7709  0.7549  1.8370
13623SOL     OW52593   7.921   8.108   7.297  0.0054 -1.0322  0.7786
13623SOL    HW152594   7.940   8.148   7.382  0.5515 -0.5093  0.4132
13623SOL    HW252595   7.879   8.177   7.246  1.0134 -0.8785  0.1257
13624SOL     OW52596   3.934   2.765   5.670 -0.6221 -0.0721 -0.4292
13624SOL    HW152597   3.858   2.813   5.702 -0.1274  1.0565 -0.8860
13624SOL    HW252598   3.928   2.679   5.712 -0.4817  1.0174  1.9727
13625SOL     OW52599   5.588   6.536  10.926 -0.1733 -0.0342 -0.2508
13625SOL    HW152600   5.527   6.604  10.955  1.1359  1.2560 -0.4007
13625SOL    HW252601   5.623   6.569  10.843 -0.1710 -1.3269 -0.7845
13626SOL     OW52602   4.621  10.977   8.703 -0.2625  0.0933  0.6737
13626SOL    HW152603   4.545  10.957   8.757 -1.5412  1.2853 -0.6153
13626SOL    HW252604   4.638  11.070   8.720 -0.7410  0.5084 -0.9945
13627SOL     OW52605   2.394   3.799   0.787  0.3302 -0.5459  0.0827
13627SOL    HW152606   2.485   3.771   0.783  0.0400 -1.4985 -0.1980
13627SOL    HW252607   2.375   3.832   0.700  0.0362 -1.6184 -0.2811
13628SOL     OW52608   0.803  12.609   7.183  0.8695  0.3674 -0.5718
13628SOL    HW152609   0.864  12.544   7.215 -0.1013  0.1284  0.8894
13628SOL    HW252610   0.829  12.625   7.093  2.4068 -0.4959 -0.3032
13629SOL     OW52611   9.587  11.997   3.757  0.0240  0.0574  0.4322
13629SOL    HW152612   9.675  12.029   3.777  0.0396  0.4166 -0.1937
13629SOL    HW252613   9.560  12.047   3.680 -0.1717 -1.0111 -0.2241
13630SOL     OW52614   3.286   7.987   4.705  0.1268 -0.3284 -0.8944
13630SOL    HW152615   3.202   7.941   4.696  0.8845 -1.9680 -0.0357
13630SOL    HW252616   3.303   8.022   4.617 -0.9619 -0.8586 -1.3474
13631SOL     OW52617   8.692  13.016  13.545 -0.3923 -0.2138 -0.4278
13631SOL    HW152618   8.651  13.101  13.562 -1.3014 -0.6780 -0.1985
13631SOL    HW252619   8.649  12.957  13.607  0.0666 -0.8819 -0.7423
13632SOL     OW52620  12.577  11.515   8.382  0.0349  0.8409  0.5727
13632SOL    HW152621  12.659  11.483   8.421  0.4869 -0.2230 -1.1166
13632SOL    HW252622  12.511  11.453   8.412  0.5524 -0.5797 -1.0128
13633SOL     OW52623   8.510   9.212   0.002  0.3546  0.0900  0.3544
13633SOL    HW152624   8.543   9.179  -0.082 -1.1127  0.4311 -0.3959
13633SOL    HW252625   8.563   9.290   0.019 -0.4529  1.0140 -1.1554
13634SOL     OW52626   8.529   2.589   9.064  0.1772  0.2657 -0.1994
13634SOL    HW152627   8.600   2.645   9.097  1.6665 -1.0917 -0.9308
13634SOL    HW252628   8.555   2.569   8.974 -1.0369 -0.4756 -0.4058
13635SOL     OW52629  11.397   1.325   5.261  0.8506 -0.4653  0.5861
13635SOL    HW152630  11.471   1.340   5.202  0.9977 -1.5732  0.4632
13635SOL    HW252631  11.384   1.409   5.305  0.8220  0.3493 -0.9203
13636SOL     OW52632  11.862  10.084   9.743  0.7169 -0.4414  0.2545
13636SOL    HW152633  11.934  10.021   9.739 -0.4685 -1.8366  0.0642
13636SOL    HW252634  11.866  10.119   9.832 -0.1867 -2.8056  1.3167
13637SOL     OW52635   0.909   5.866  12.967  0.3588  0.1184 -0.4954
13637SOL    HW152636   0.904   5.783  12.920 -0.0174  0.1296 -0.4753
13637SOL    HW252637   0.892   5.932  12.900 -1.1794  0.0861 -0.1610
13638SOL     OW52638   4.692   3.266   9.614 -0.1357 -0.3432 -0.6275
13638SOL    HW152639   4.733   3.266   9.700 -1.0103  1.3127 -0.1668
13638SOL    HW252640   4.629   3.194   9.617  0.9432 -1.3176 -0.4837
13639SOL     OW52641   4.969   1.851  12.627  0.4522 -0.2498 -0.0842
13639SOL    HW152642   5.014   1.935  12.634  0.9119 -0.6195  2.0949
13639SOL    HW252643   5.035   1.792  12.591 -0.0386  0.3835 -2.1582
13640SOL     OW52644   2.695  11.610   7.223  0.2230  0.0204 -0.0694
13640SOL    HW152645   2.612  11.568   7.245  0.8140 -1.2785 -0.2357
13640SOL    HW252646   2.737  11.626   7.308  0.3958 -0.5916 -0.0316
13641SOL     OW52647  13.630   9.781  12.724 -0.2028  0.0092 -0.3998
13641SOL    HW152648  13.590   9.709  12.771  0.3448 -0.2098 -0.2561
13641SOL    HW252649  13.571   9.800  12.652 -2.7189  2.3805  2.0327
13642SOL     OW52650   7.676   6.789   8.981 -0.0489  0.1567  0.3688
13642SOL    HW152651   7.712   6.756   9.064  0.1250  0.0003  0.2296
13642SOL    HW252652   7.627   6.716   8.945 -1.0220  0.5452  0.8506
13643SOL     OW52653   6.629   1.154   9.960 -0.0938 -0.5972  0.1570
13643SOL    HW152654   6.609   1.084   9.899 -1.4427  1.7977 -2.3361
13643SOL    HW252655   6.548   1.204   9.968  1.6897  2.9151 -1.3617
13644SOL     OW52656  12.320   7.076  11.564 -0.3700 -0.2881  0.1728
13644SOL    HW152657  12.226   7.065  11.579 -0.1498 -2.4316  0.2812
13644SOL    HW252658  12.349   7.135  11.633 -1.5996  0.2900  0.2207
13645SOL     OW52659  13.299  12.488   6.228 -0.9246 -0.0992  0.0574
13645SOL    HW152660  13.350  12.506   6.308 -0.5077  0.0695 -0.2428
13645SOL    HW252661  13.341  12.541   6.161 -0.5030 -1.1993 -0.5548
13646SOL     OW52662   0.832   3.137   1.379 -0.4553 -0.4139 -0.0111
13646SOL    HW152663   0.796   3.145   1.467 -1.5156 -0.4027 -0.4363
13646SOL    HW252664   0.897   3.068   1.386  0.2244  0.3021  1.0115
13647SOL     OW52665  10.978   9.086  12.464 -0.4193  0.4121  0.2132
13647SOL    HW152666  11.058   9.123  12.501 -0.2150  0.9746 -0.7533
13647SOL    HW252667  10.998   8.994  12.450  0.3814  0.7426 -0.8686
13648SOL     OW52668   9.936   5.804   1.230  0.2383 -0.1283  0.1304
13648SOL    HW152669   9.886   5.734   1.189 -1.4206 -0.0039  1.7962
13648SOL    HW252670  10.009   5.760   1.274 -0.0367 -0.6656  0.0507
13649SOL     OW52671  11.175   4.920   4.427  0.3651 -0.2141 -0.4335
13649SOL    HW152672  11.132   4.890   4.507 -0.3535 -1.2175 -1.1669
13649SOL    HW252673  11.230   4.994   4.455  1.9780 -1.9830  1.4117
13650SOL     OW52674   8.983   2.013  13.206  0.0333  0.0020 -0.1456
13650SOL    HW152675   9.019   2.089  13.161 -0.0194 -0.3944 -0.8759
13650SOL    HW252676   8.902   2.045  13.247  0.1111  0.3841 -0.2903
13651SOL     OW52677   1.195   4.179   5.073 -0.0440 -0.0997 -0.1318
13651SOL    HW152678   1.289   4.183   5.055  0.0057  0.4943  0.2168
13651SOL    HW252679   1.157   4.246   5.016  0.0236  1.2608  1.3511
13652SOL     OW52680  11.429  12.190   5.860 -0.2073  0.0091 -0.3147
13652SOL    HW152681  11.419  12.272   5.812  0.8270  0.0639 -0.4446
13652SOL    HW252682  11.506  12.148   5.822 -0.6552 -0.9726 -0.1708
13653SOL     OW52683   7.210  11.180   5.778  0.3098  0.3152  1.1059
13653SOL    HW152684   7.239  11.220   5.696 -0.5709  0.3549  0.7984
13653SOL    HW252685   7.154  11.246   5.818 -0.0077 -0.0595  1.2845
13654SOL     OW52686   2.014   3.736   3.880 -0.6865  0.5551 -0.1942
13654SOL    HW152687   2.027   3.817   3.929 -1.0579  0.7251 -0.3725
13654SOL    HW252688   2.103   3.702   3.865 -0.6105 -0.2554  1.8186
13655SOL     OW52689  12.376  10.393   1.478 -0.3050  0.1932  0.2349
13655SOL    HW152690  12.412  10.481   1.482 -1.4481  0.6770  0.3396
13655SOL    HW252691  12.411  10.349   1.556 -1.6034  1.3301  1.5348
13656SOL     OW52692   6.428  11.881  10.314 -0.7783  0.5153 -0.3699
13656SOL    HW152693   6.361  11.932  10.360 -0.7987  0.4271 -0.3014
13656SOL    HW252694   6.508  11.933  10.322 -0.2489 -0.4834  1.6381
13657SOL     OW52695   0.972   6.798  10.828 -0.6697  0.0490  0.0780
13657SOL    HW152696   0.878   6.784  10.835 -0.4875 -0.3462  2.8206
13657SOL    HW252697   1.011   6.711  10.835 -0.0566  0.1958 -1.1205
13658SOL     OW52698   6.960   1.689  13.384 -0.6017  0.1373 -0.5272
13658SOL    HW152699   6.899   1.647  13.323 -0.5103  1.3606 -1.4893
13658SOL    HW252700   7.041   1.641  13.373 -0.7223  0.0426 -1.0255
13659SOL     OW52701  12.648   4.510  12.626 -0.0775 -0.1649  0.3818
13659SOL    HW152702  12.653   4.435  12.686 -0.8312  1.4049  2.5016
13659SOL    HW252703  12.688   4.478  12.545  2.6332 -1.8443  2.2353
13660SOL     OW52704   5.482  13.672  13.650  0.2575 -0.1751  0.1718
13660SOL    HW152705   5.401  13.722  13.662  0.7547  0.3486  1.4563
13660SOL    HW252706   5.452  13.582  13.635 -0.5647 -0.4847  3.1233
13661SOL     OW52707  12.547   4.353   8.154  0.3409  0.2808  0.3030
13661SOL    HW152708  12.605   4.381   8.084 -0.4917 -1.3718 -1.1239
13661SOL    HW252709  12.493   4.429   8.173  0.1490  0.5835 -1.3215
13662SOL     OW52710  12.649   6.781  10.594 -0.2449  0.2176  0.3663
13662SOL    HW152711  12.641   6.858  10.649 -0.9771  0.1337  0.3850
13662SOL    HW252712  12.560   6.763  10.564  0.2203  0.6766 -1.4331
13663SOL     OW52713   8.205  13.281   9.258 -0.2190 -0.2280 -0.1253
13663SOL    HW152714   8.121  13.241   9.241 -0.0962 -0.0422 -1.1999
13663SOL    HW252715   8.184  13.369   9.290 -0.4377  0.7423 -2.7473
13664SOL     OW52716  12.182   7.728   1.625 -0.4648  0.6053  0.0357
13664SOL    HW152717  12.125   7.787   1.575  0.9434  0.4739 -1.8275
13664SOL    HW252718  12.237   7.686   1.559 -2.0875 -3.7010  1.0945
13665SOL     OW52719   1.660   1.424   3.360  0.5442  0.4252 -0.2733
13665SOL    HW152720   1.627   1.370   3.432 -0.3807  1.5945  0.2090
13665SOL    HW252721   1.743   1.382   3.335  0.2447 -0.7458  0.6007
13666SOL     OW52722  12.676  11.609   2.651  0.5324 -0.3991 -0.4891
13666SOL    HW152723  12.666  11.530   2.704  0.3664 -0.4416 -0.5804
13666SOL    HW252724  12.761  11.600   2.610 -0.1842 -1.3672 -1.8453
13667SOL     OW52725   2.404   8.564   2.664 -0.4533 -0.2373 -0.2380
13667SOL    HW152726   2.431   8.509   2.591  0.9829 -1.4673  1.1588
13667SOL    HW252727   2.486   8.586   2.709 -1.4345 -1.2862  2.2117
13668SOL     OW52728   4.809  10.785   8.748 -0.2825  0.4603  0.0351
13668SOL    HW152729   4.885  10.842   8.750  0.1969 -0.1116 -0.9841
13668SOL    HW252730   4.736  10.842   8.723  0.1210  0.6949 -0.6173
13669SOL     OW52731   7.244   0.628   8.231 -0.6647  0.0335  0.0118
13669SOL    HW152732   7.153   0.652   8.248 -0.6984 -0.0216 -0.0903
13669SOL    HW252733   7.295   0.682   8.291 -0.7699  0.0090  0.1234
13670SOL     OW52734   8.842   1.070   2.626 -0.4809 -0.1713 -0.2311
13670SOL    HW152735   8.812   0.982   2.651  2.2929 -0.8817  1.0254
13670SOL    HW252736   8.924   1.054   2.580 -0.0980  1.7710 -0.2718
13671SOL     OW52737   0.368  11.659   8.980  0.1582  0.0128  0.5301
13671SOL    HW152738   0.449  11.608   8.979 -0.4588 -1.0659  1.8934
13671SOL    HW252739   0.377  11.717   9.056 -0.8048 -0.9524  1.4162
13672SOL     OW52740   0.155   3.785   2.492  0.5879  1.0928  0.4313
13672SOL    HW152741   0.187   3.778   2.582 -0.2463  0.2064  0.6706
13672SOL    HW252742   0.192   3.709   2.448 -1.6528 -0.3534  0.8828
13673SOL     OW52743   8.590  13.012   7.392  0.3857 -0.3317  0.4340
13673SOL    HW152744   8.560  12.925   7.418  1.2954 -0.7301  0.1651
13673SOL    HW252745   8.626  13.050   7.472  1.4913 -0.8502  0.2089
13674SOL     OW52746   1.785   5.877  11.119 -0.0792  0.6345  0.6088
13674SOL    HW152747   1.747   5.953  11.077 -1.1351 -0.3274 -0.2413
13674SOL    HW252748   1.729   5.860  11.195  1.1123  1.6416  1.7676
13675SOL     OW52749   6.142  11.494  10.125  0.1054  0.4233  0.2498
13675SOL    HW152750   6.114  11.532  10.042  0.4689  1.0972  0.4244
13675SOL    HW252751   6.178  11.568  10.174 -0.7977  0.1780  1.3183
13676SOL     OW52752   8.052  12.432  13.636  0.2988 -0.1481 -0.0938
13676SOL    HW152753   7.986  12.400  13.575  0.4153  0.6859 -0.6825
13676SOL    HW252754   8.045  12.375  13.712 -1.0157 -0.1394 -0.1965
13677SOL     OW52755   3.532  13.671  10.893  0.0138 -0.1756 -0.1789
13677SOL    HW152756   3.442  13.681  10.922  0.4348  0.6352  0.8910
13677SOL    HW252757   3.529  13.688  10.799 -1.1250 -1.3267 -0.3721
13678SOL     OW52758  12.877   8.196   9.789  0.0558  0.1418 -0.0070
13678SOL    HW152759  12.958   8.157   9.824  0.1855 -0.4363 -0.9319
13678SOL    HW252760  12.903   8.234   9.705 -0.4199  0.8515  0.1590
13679SOL     OW52761  13.120  11.808   0.557  0.2209  0.2969 -0.1466
13679SOL    HW152762  13.171  11.733   0.527 -0.3311 -0.5299  0.9030
13679SOL    HW252763  13.184  11.874   0.580  0.8557 -0.7522  1.2378
13680SOL     OW52764   7.063   9.150   3.728 -0.0246  0.2285  0.5154
13680SOL    HW152765   7.025   9.238   3.732 -0.9121  0.1752 -3.2206
13680SOL    HW252766   7.007   9.102   3.667  1.9355 -2.1344  0.4052
13681SOL     OW52767   1.321  12.589   5.599  0.0496  0.0251 -0.1656
13681SOL    HW152768   1.365  12.661   5.643  1.3826 -1.7440  1.6229
13681SOL    HW252769   1.392  12.535   5.565 -0.8040 -1.5373  0.4246
13682SOL     OW52770  11.338   1.204  10.172  0.9592  0.7404  0.2261
13682SOL    HW152771  11.313   1.284  10.124  1.0812  0.4051 -0.4086
13682SOL    HW252772  11.434   1.202  10.167  0.9342  0.3148 -0.1625
13683SOL     OW52773   1.196   3.083   4.945  0.2808 -0.1966  0.3059
13683SOL    HW152774   1.121   3.134   4.915  1.3953  1.0882 -0.3846
13683SOL    HW252775   1.229   3.129   5.022 -0.0879 -1.2063  1.1011
13684SOL     OW52776  12.450   2.942   4.886 -0.1583  0.4066  0.2428
13684SOL    HW152777  12.417   2.861   4.925 -0.0425  0.1644 -0.1524
13684SOL    HW252778  12.445   3.006   4.956  0.3298 -0.0969  0.7518
13685SOL     OW52779   7.759  12.355   9.529 -0.2125 -0.4055  0.8962
13685SOL    HW152780   7.746  12.378   9.621  0.2937  0.3555  0.7897
13685SOL    HW252781   7.829  12.290   9.531  0.2604  0.0955  1.0127
13686SOL     OW52782   3.750   0.895   6.143 -0.6570 -0.4396  0.2947
13686SOL    HW152783   3.725   0.866   6.230 -0.0427 -0.2106  0.5555
13686SOL    HW252784   3.837   0.856   6.129  0.6436  1.9614  1.0452
13687SOL     OW52785   3.127   8.123  11.840  0.2344  0.1033 -0.6193
13687SOL    HW152786   3.153   8.081  11.758  0.6938 -2.4155  0.7321
13687SOL    HW252787   3.155   8.214  11.829  3.0491 -0.8081 -2.1166
13688SOL     OW52788  10.785  12.930  10.511 -0.6223 -0.5700 -0.5462
13688SOL    HW152789  10.755  13.011  10.470 -0.8307 -1.4389 -2.1951
13688SOL    HW252790  10.879  12.926  10.490 -0.3672 -0.2442  0.4658
13689SOL     OW52791   2.737   8.242  12.657 -0.2851 -0.5309 -0.2015
13689SOL    HW152792   2.810   8.283  12.611 -0.4706 -0.5997 -0.5573
13689SOL    HW252793   2.696   8.185  12.592  0.0741 -1.4144  0.3234
13690SOL     OW52794   9.004   7.723   6.064  0.3886 -0.0896 -0.0250
13690SOL    HW152795   8.973   7.809   6.036  1.3481 -0.5884 -2.9797
13690SOL    HW252796   9.072   7.743   6.129 -0.2000  1.3235  0.2038
13691SOL     OW52797   2.177   5.755  10.120  0.1990 -0.3164  0.6901
13691SOL    HW152798   2.194   5.664  10.140 -0.0150 -0.9888 -1.8395
13691SOL    HW252799   2.082   5.762  10.120  0.1988 -0.2944  0.1208
13692SOL     OW52800  12.948   2.523   8.626  0.2761  0.5341 -0.1850
13692SOL    HW152801  13.000   2.463   8.573 -0.1232 -0.1612  0.1862
13692SOL    HW252802  13.013   2.576   8.673  0.6378  0.3561 -0.4785
13693SOL     OW52803   8.384  10.380   4.580  0.2401 -0.4987  0.3147
13693SOL    HW152804   8.477  10.387   4.599  1.0622 -1.5975 -2.7466
13693SOL    HW252805   8.360  10.292   4.606  0.1292 -0.3417  0.7553
13694SOL     OW52806   0.239   5.889  11.106  0.0518  0.0468 -0.1284
13694SOL    HW152807   0.230   5.811  11.162  0.4256  0.4189  0.4534
13694SOL    HW252808   0.165   5.944  11.131 -0.4257 -0.2786 -0.8047
13695SOL     OW52809  12.978  11.500   6.743 -0.3281  0.3797 -0.1084
13695SOL    HW152810  12.925  11.423   6.764 -1.7587  1.3304 -0.0717
13695SOL    HW252811  12.948  11.567   6.805  0.2472  1.2242 -0.7261
13696SOL     OW52812   8.424   1.573   7.202  0.6310  0.0601 -0.5468
13696SOL    HW152813   8.352   1.592   7.261 -0.0067  0.6699 -1.4930
13696SOL    HW252814   8.483   1.518   7.253 -0.3226 -0.1519  0.3566
13697SOL     OW52815   1.939   0.895  10.055  0.1155 -0.2559 -0.3334
13697SOL    HW152816   1.875   0.966  10.050  0.0954 -0.3047 -0.9178
13697SOL    HW252817   1.979   0.904  10.141  0.4826  0.7874 -0.5940
13698SOL     OW52818  13.421  12.989   3.422 -0.5785  0.0560  0.1402
13698SOL    HW152819  13.516  12.985   3.423 -0.5999 -1.6983 -0.6816
13698SOL    HW252820  13.395  12.961   3.510 -0.3392 -0.4736  0.0448
13699SOL     OW52821   0.662   3.318   5.126 -0.1915  0.2253  0.2333
13699SOL    HW152822   0.570   3.323   5.149 -0.6148  0.6667 -1.4162
13699SOL    HW252823   0.697   3.404   5.149 -0.6243  0.6859 -0.7623
13700SOL     OW52824   4.128   0.850   4.656 -0.3705  0.6428 -0.6256
13700SOL    HW152825   4.137   0.905   4.578 -1.9257  1.3571 -0.3468
13700SOL    HW252826   4.206   0.868   4.707  0.2901  0.7783 -1.6497
13701SOL     OW52827  13.047  13.706   5.293 -0.4719  0.0526 -0.5061
13701SOL    HW152828  13.051  13.617   5.328 -0.8784 -0.1298 -0.9092
13701SOL    HW252829  13.114  13.754   5.342 -0.4319 -0.4080 -0.0997
13702SOL     OW52830   6.139   4.529  12.604  0.4257  0.3140 -0.1921
13702SOL    HW152831   6.181   4.445  12.623 -0.8001  0.1183  2.0413
13702SOL    HW252832   6.167   4.586  12.675 -1.1863  0.8604  0.0445
13703SOL     OW52833   5.002   2.427  12.925  0.3878 -0.4108 -0.0039
13703SOL    HW152834   5.097   2.418  12.932  0.2992 -2.4450 -0.7728
13703SOL    HW252835   4.985   2.426  12.831 -0.3947 -0.0611  0.1283
13704SOL     OW52836   4.033   9.613  10.146 -0.7686 -0.2401 -0.0108
13704SOL    HW152837   4.016   9.691  10.200 -1.6157 -0.9310  0.7527
13704SOL    HW252838   4.066   9.548  10.209 -0.6368 -0.6880 -0.5382
13705SOL     OW52839   5.709   9.093   3.270  0.0853 -0.1763  0.5217
13705SOL    HW152840   5.647   9.025   3.245 -0.6194 -0.9883  3.9220
13705SOL    HW252841   5.793   9.049   3.273  0.1038 -0.1739 -0.0272
13706SOL     OW52842   9.647  12.015   2.525  0.4108 -0.3088 -0.2821
13706SOL    HW152843   9.659  12.059   2.442  1.1443  0.9167  0.4449
13706SOL    HW252844   9.587  12.072   2.574  0.8644 -0.4350  0.4349
13707SOL     OW52845  12.219   5.446   8.617 -0.1051 -0.0980 -0.3524
13707SOL    HW152846  12.228   5.514   8.685  2.0816 -0.5923 -0.0747
13707SOL    HW252847  12.149   5.479   8.560  0.2376  1.9283  0.3043
13708SOL     OW52848   9.758   9.698   9.413 -0.0153  0.4180  0.0479
13708SOL    HW152849   9.713   9.655   9.341 -2.8312  1.6634  0.9336
13708SOL    HW252850   9.761   9.790   9.389 -1.0530  0.8637  1.4651
13709SOL     OW52851  11.782   0.451   5.382  0.3280  0.0086 -0.7881
13709SOL    HW152852  11.714   0.433   5.318  0.6761 -1.3702 -0.8151
13709SOL    HW252853  11.852   0.493   5.333  0.5966 -1.0472 -1.3307
13710SOL     OW52854  10.935  13.005   5.630 -0.1031 -1.0921  0.6746
13710SOL    HW152855  10.912  13.022   5.722 -1.5108 -0.4516  0.2240
13710SOL    HW252856  10.928  13.090   5.588  1.3173 -1.2381  0.1139
13711SOL     OW52857   8.829   6.664   7.517 -0.1410 -0.3007  0.5765
13711SOL    HW152858   8.854   6.749   7.552 -1.5860  0.0290  0.8772
13711SOL    HW252859   8.782   6.622   7.589 -1.0490 -0.6037 -0.1781
13712SOL     OW52860  13.477   4.786   4.695  0.3223  0.2400 -0.3280
13712SOL    HW152861  13.385   4.772   4.715  0.6507 -1.0974  0.4010
13712SOL    HW252862  13.497   4.873   4.730 -1.1273  1.4566 -2.3371
13713SOL     OW52863   8.604  12.387   4.462 -0.1282 -0.6168  0.0607
13713SOL    HW152864   8.508  12.390   4.459 -0.1438 -0.8247  0.2595
13713SOL    HW252865   8.623  12.338   4.542  0.1246 -2.2352 -0.9579
13714SOL     OW52866  12.150   5.279   1.755  0.6197  0.0863 -0.7642
13714SOL    HW152867  12.215   5.209   1.766 -0.0053 -0.6326 -1.5477
13714SOL    HW252868  12.148   5.295   1.661  1.2742  1.6842 -0.5339
13715SOL     OW52869   8.768   7.014   9.933 -0.0839  0.6747  0.0615
13715SOL    HW152870   8.728   6.950   9.991  1.5961 -1.0729 -0.5897
13715SOL    HW252871   8.838   7.054   9.986  1.4256 -0.8950 -0.6478
13716SOL     OW52872   8.063  13.296  12.052  0.3163  0.1859  0.1328
13716SOL    HW152873   8.091  13.205  12.048 -0.6284 -0.1167  0.1986
13716SOL    HW252874   8.104  13.337  11.976  0.4739 -0.3749 -0.0877
13717SOL     OW52875  10.421   1.860   3.232 -0.3511 -0.1419  0.0088
13717SOL    HW152876  10.452   1.871   3.323 -1.6005 -2.7195  0.8312
13717SOL    HW252877  10.346   1.919   3.225  0.0868  0.4828  0.4563
13718SOL     OW52878   0.168  12.852  11.048 -0.0793 -0.1588 -0.2303
13718SOL    HW152879   0.202  12.941  11.040  1.3317 -0.5964  0.5494
13718SOL    HW252880   0.112  12.854  11.126  1.2745 -0.2958  0.7970
13719SOL     OW52881   0.273   9.206   9.763 -0.0020  1.2084 -0.0890
13719SOL    HW152882   0.297   9.113   9.762 -2.4554  0.4977 -0.8382
13719SOL    HW252883   0.281   9.234   9.672 -4.1433  0.1979 -0.9699
13720SOL     OW52884   4.837   4.977   8.310 -0.8312 -0.4482 -0.3661
13720SOL    HW152885   4.784   5.035   8.256  0.2879 -1.2105 -2.3890
13720SOL    HW252886   4.922   5.020   8.315  0.5828 -2.5360 -3.3736
13721SOL     OW52887   1.557  12.286  12.303  0.2632 -0.0189  1.1751
13721SOL    HW152888   1.635  12.265  12.253  0.2757  0.3053  1.0571
13721SOL    HW252889   1.527  12.202  12.338 -1.2704 -0.7533 -1.5697
13722SOL     OW52890   5.010  11.348   5.628  0.4177  0.2450 -0.4688
13722SOL    HW152891   4.935  11.400   5.656 -1.2232 -1.7760 -0.8378
13722SOL    HW252892   5.056  11.327   5.709 -1.5233 -1.4796  0.2813
13723SOL     OW52893   4.469   9.527   2.712 -0.0413 -0.4703 -0.2130
13723SOL    HW152894   4.390   9.479   2.687 -1.9138  2.4179 -0.3955
13723SOL    HW252895   4.465   9.532   2.807  1.2713 -2.3133 -0.0158
13724SOL     OW52896   3.106   7.280  12.774 -0.2775  0.3054  0.0021
13724SOL    HW152897   3.015   7.253  12.761 -0.4753  0.3557  1.1820
13724SOL    HW252898   3.122   7.344  12.704 -1.6600  1.4682  0.6892
13725SOL     OW52899  10.809   5.803   9.892  0.7416  0.1679 -0.2911
13725SOL    HW152900  10.762   5.755   9.960  0.6931  0.0100 -0.4355
13725SOL    HW252901  10.788   5.895   9.909  0.1030  0.0746 -0.5618
13726SOL     OW52902   6.694  10.621   2.255  0.7900  0.4134  0.6142
13726SOL    HW152903   6.718  10.551   2.315  1.1946 -1.4005 -1.5314
13726SOL    HW252904   6.600  10.634   2.269  0.8461 -0.0670  1.5065
13727SOL     OW52905  11.017   6.096   1.310  0.4676  0.0175  0.2315
13727SOL    HW152906  10.974   6.036   1.369  1.4545 -1.3103 -0.3524
13727SOL    HW252907  11.081   6.043   1.263  1.6339  1.5873 -0.0562
13728SOL     OW52908   3.907  11.568  13.077  0.0302 -0.1423  0.0531
13728SOL    HW152909   3.867  11.484  13.054 -3.3974  1.5782 -1.0117
13728SOL    HW252910   3.888  11.578  13.171  0.3193 -0.4863  0.1485
13729SOL     OW52911  11.556   0.322  13.608 -0.0632 -0.3611 -0.4001
13729SOL    HW152912  11.513   0.406  13.622 -2.0458 -1.4121  0.0823
13729SOL    HW252913  11.518   0.288  13.528 -1.2342 -1.9355  0.7618
13730SOL     OW52914   0.814   3.108  12.314  0.4409  0.0456  0.1781
13730SOL    HW152915   0.820   3.014  12.334 -0.7555 -0.4440 -1.5254
13730SOL    HW252916   0.813   3.150  12.400 -1.1874 -1.6576  1.0812
13731SOL     OW52917  10.876   1.241  10.276 -0.3493 -0.5067  0.5014
13731SOL    HW152918  10.792   1.216  10.236 -0.2436 -0.6244  0.3528
13731SOL    HW252919  10.851   1.289  10.355 -0.5696 -2.1526  1.4713
13732SOL     OW52920  11.615   7.105   8.436  0.2131 -0.3882 -0.2739
13732SOL    HW152921  11.655   7.143   8.515 -1.1790  1.4087 -0.3741
13732SOL    HW252922  11.601   7.180   8.378 -0.7168 -1.3842 -1.3709
13733SOL     OW52923   8.143   0.550   9.419 -0.3753 -0.1339  0.1102
13733SOL    HW152924   8.117   0.607   9.347 -0.2690 -0.3882 -0.1359
13733SOL    HW252925   8.217   0.500   9.383 -0.2069 -0.1333  0.4564
13734SOL     OW52926   5.566   4.430   2.484  0.9168 -0.2830 -0.2658
13734SOL    HW152927   5.542   4.452   2.394  1.3941  0.7317 -0.1520
13734SOL    HW252928   5.483   4.404   2.525  0.7072 -0.8254 -1.0099
13735SOL     OW52929   3.042   4.816  13.512 -0.3999  0.4614 -0.0906
13735SOL    HW152930   3.121   4.802  13.566 -1.5876  1.4799  2.0356
13735SOL    HW252931   3.011   4.903  13.538 -3.0086 -0.4914  0.2239
13736SOL     OW52932   2.415   6.670  13.426 -0.1726  0.1824  0.1809
13736SOL    HW152933   2.509   6.658  13.411 -0.3268 -1.5036  0.3818
13736SOL    HW252934   2.402   6.644  13.517 -0.9806 -0.6519 -0.1553
13737SOL     OW52935  11.334  11.024  11.549  0.1726 -0.5768  0.1688
13737SOL    HW152936  11.351  11.093  11.486 -0.1963 -1.4034 -0.8726
13737SOL    HW252937  11.313  11.069  11.631 -1.1352  0.5638 -0.7616
13738SOL     OW52938   6.794  13.732   7.459 -1.1796  0.5080 -0.2448
13738SOL    HW152939   6.884  13.763   7.467 -1.5492  1.8706 -1.0378
13738SOL    HW252940   6.779  13.682   7.539  0.5734 -0.5652 -0.5248
13739SOL     OW52941   5.884  10.054  13.091  0.2166 -0.3914 -0.1786
13739SOL    HW152942   5.905  10.058  13.185 -1.2091 -1.4696  0.2263
13739SOL    HW252943   5.821  10.125  13.077  0.2820 -0.3526 -0.2749
13740SOL     OW52944  12.254   2.491  11.134  0.0495 -0.7909  0.3770
13740SOL    HW152945  12.162   2.468  11.137 -0.2282  0.1684 -0.1900
13740SOL    HW252946  12.277   2.489  11.041 -0.3785  2.4071  0.0682
13741SOL     OW52947   5.385  13.577   4.353 -0.2049 -0.5973 -0.2386
13741SOL    HW152948   5.384  13.482   4.337  1.2754 -0.5952 -0.4818
13741SOL    HW252949   5.305  13.593   4.403 -0.5893 -1.9420 -0.3597
13742SOL     OW52950   1.533  11.367   1.704  0.0945 -0.3373  0.3207
13742SOL    HW152951   1.533  11.335   1.794  1.0037 -0.2661  0.3499
13742SOL    HW252952   1.440  11.371   1.681 -0.1239 -0.9892  1.0257
13743SOL     OW52953   9.670   1.625   5.049 -0.1208 -0.8633 -0.2535
13743SOL    HW152954   9.636   1.536   5.038 -2.4206 -0.2547  1.2855
13743SOL    HW252955   9.597   1.681   5.022  1.0101  0.5609 -0.4252
13744SOL     OW52956   1.201   6.038   2.490 -0.3714  0.1091 -0.3229
13744SOL    HW152957   1.251   5.964   2.523 -0.3010  0.6084  0.7118
13744SOL    HW252958   1.266   6.094   2.447 -0.2323  0.1738 -0.0274
13745SOL     OW52959  10.887   8.582   2.481 -0.2002 -0.1916 -0.0377
13745SOL    HW152960  10.879   8.652   2.417  0.7610 -1.0958 -1.2067
13745SOL    HW252961  10.945   8.617   2.549  1.7238 -0.3936 -1.4869
13746SOL     OW52962   0.131   4.056   5.751 -0.0309 -0.2024 -0.7981
13746SOL    HW152963   0.122   3.985   5.815 -1.5457 -0.3096 -1.0821
13746SOL    HW252964   0.225   4.073   5.746  0.1457 -0.4377  1.1808
13747SOL     OW52965   8.510   4.416   5.972  0.0730 -0.2602 -0.1444
13747SOL    HW152966   8.471   4.446   6.054 -0.3939  0.8165 -0.7442
13747SOL    HW252967   8.525   4.322   5.986 -0.2018 -0.1408  1.0826
13748SOL     OW52968   2.778   9.957   2.987 -0.1491 -0.0175 -0.1355
13748SOL    HW152969   2.808   9.868   2.967  1.0838  0.4787 -0.5841
13748SOL    HW252970   2.795  10.007   2.907 -2.0346  0.3633 -0.3563
13749SOL     OW52971   6.638  11.950   3.716 -0.0918 -0.0562 -0.2492
13749SOL    HW152972   6.666  11.960   3.807  1.5520 -0.3802 -0.6832
13749SOL    HW252973   6.608  11.860   3.710  0.8727 -0.3953 -0.2659
13750SOL     OW52974   0.765   9.630  11.683  0.0222  0.0646 -0.1975
13750SOL    HW152975   0.744   9.610  11.774  1.7224 -0.3668  0.1273
13750SOL    HW252976   0.744   9.723  11.674 -0.9455 -0.0787  0.3773
13751SOL     OW52977  12.794   3.405   0.834 -0.3452 -0.7291 -0.1296
13751SOL    HW152978  12.723   3.467   0.815  0.7241  0.5854 -0.0039
13751SOL    HW252979  12.838   3.395   0.750  1.7219  1.6537  0.5354
13752SOL     OW52980   7.392  13.733  11.429 -0.2761 -0.2378 -0.4622
13752SOL    HW152981   7.356  13.820  11.444  0.2701 -0.0824  0.0166
13752SOL    HW252982   7.479  13.736  11.470  0.6371 -0.3233 -2.3025
13753SOL     OW52983  11.838   3.440   9.353  0.0305  0.1345 -0.1598
13753SOL    HW152984  11.834   3.522   9.402 -0.6869 -0.5779  1.0142
13753SOL    HW252985  11.915   3.395   9.387  0.0189  0.0071 -0.2970
13754SOL     OW52986  12.966   3.636   4.695  0.8317 -0.0783  0.0347
13754SOL    HW152987  12.984   3.729   4.709  1.0687  0.1333 -1.5362
13754SOL    HW252988  12.878   3.623   4.731  0.5583  0.8786 -0.2681
13755SOL     OW52989   0.024  11.496   2.060  0.1885  0.1172 -0.2071
13755SOL    HW152990   0.093  11.560   2.045  0.3289  0.2725  0.9392
13755SOL    HW252991   0.038  11.428   1.995  1.3270  0.2318 -0.0937
13756SOL     OW52992   8.897   6.205   2.994  0.1578  0.1039  0.0048
13756SOL    HW152993   8.871   6.220   3.085  2.3545  1.3786  0.4928
13756SOL    HW252994   8.957   6.130   2.998  0.3260  0.2150 -0.3772
13757SOL     OW52995   4.151   6.647   2.900  0.1006 -0.3054 -0.2329
13757SOL    HW152996   4.084   6.702   2.861  0.4382  0.6484  0.4716
13757SOL    HW252997   4.123   6.636   2.991  0.9412  0.2187  0.1066
13758SOL     OW52998   1.703   2.218   0.901 -0.1948  0.1573  0.0467
13758SOL    HW152999   1.701   2.139   0.955 -1.2076 -0.4843 -0.8860
13758SOL    HW253000   1.645   2.279   0.945 -0.3170 -0.0407  0.1609
13759SOL     OW53001   6.781   9.916   5.635 -0.0405 -0.5861  0.0703
13759SOL    HW153002   6.857   9.972   5.654 -0.5890  0.3650 -0.4381
13759SOL    HW253003   6.733   9.963   5.567 -1.9750 -0.3238  1.5151
13760SOL     OW53004   3.612  10.039  10.781 -0.1003 -0.3064  0.0674
13760SOL    HW153005   3.637  10.087  10.860 -0.6281  0.0811  0.0038
13760SOL    HW253006   3.518  10.025  10.790  0.3526 -3.3911  1.2013
13761SOL     OW53007   9.398   6.842  11.037 -0.3534 -0.0681 -0.2271
13761SOL    HW153008   9.328   6.907  11.043  0.7044  1.0343  0.9687
13761SOL    HW253009   9.355   6.758  11.052 -1.2795  0.6850  1.6387
13762SOL     OW53010   0.648   5.212  10.818  0.2531 -0.3009 -0.4559
13762SOL    HW153011   0.588   5.168  10.759  0.2171 -1.9539  0.7498
13762SOL    HW253012   0.644   5.304  10.793  0.3080 -0.9491 -3.0528
13763SOL     OW53013   8.905  11.448   2.881  0.2876 -0.0169 -0.0638
13763SOL    HW153014   8.977  11.509   2.864 -0.1966  0.2112 -1.3910
13763SOL    HW253015   8.933  11.400   2.960  0.5760  2.0571  1.1738
13764SOL     OW53016   7.873   3.460   5.936 -0.4121  0.2684  0.3861
13764SOL    HW153017   7.920   3.382   5.907 -0.8224 -0.0609  0.5793
13764SOL    HW253018   7.781   3.437   5.925 -0.5420  1.5902 -1.7776
13765SOL     OW53019   5.450   8.441  13.179  0.5056 -0.0650 -0.2388
13765SOL    HW153020   5.363   8.420  13.214  0.1360 -0.6084 -1.4394
13765SOL    HW253021   5.509   8.381  13.225  0.3201  0.5589  0.8534
13766SOL     OW53022   1.765  12.876   0.077  0.3414  0.1833 -0.3768
13766SOL    HW153023   1.730  12.812   0.015  0.9635  0.8614 -1.4591
13766SOL    HW253024   1.711  12.865   0.155  0.5496 -1.7741 -0.4671
13767SOL     OW53025  12.508   7.779   1.291  0.0373  0.3124  0.6554
13767SOL    HW153026  12.519   7.788   1.196 -1.8122  0.7475  0.4474
13767SOL    HW253027  12.588   7.816   1.328 -0.1441  2.1629 -0.6886
13768SOL     OW53028   4.724   0.786   1.823  0.2417 -0.5615 -0.1687
13768SOL    HW153029   4.746   0.828   1.906 -0.4423  0.0894 -0.3107
13768SOL    HW253030   4.709   0.694   1.845  2.2061 -0.8646  0.0791
13769SOL     OW53031  10.298   6.266  13.650 -0.0852 -0.5563 -0.1468
13769SOL    HW153032  10.256   6.230  13.728 -0.5695 -0.3746 -0.3189
13769SOL    HW253033  10.380   6.303  13.682 -0.2280 -0.5865  0.2566
13770SOL     OW53034   4.643   7.394   5.641  0.7354  0.4813 -0.9125
13770SOL    HW153035   4.690   7.328   5.692  0.0711  0.1480 -0.7309
13770SOL    HW253036   4.628   7.352   5.556 -0.7894 -0.0759 -0.3835
13771SOL     OW53037  13.037  11.037   2.992  0.2466  0.1163  0.2480
13771SOL    HW153038  13.099  11.081   3.049  0.5289 -0.0486  0.0679
13771SOL    HW253039  12.998  10.968   3.046  0.8235 -0.3149  0.1157
13772SOL     OW53040   2.803   0.565  11.780  0.0399  0.3106  0.2223
13772SOL    HW153041   2.725   0.514  11.759  0.6918 -0.2968 -0.8357
13772SOL    HW253042   2.776   0.621  11.852 -1.7948  1.1209 -1.0013
13773SOL     OW53043   4.804  11.751   0.261 -0.5654  0.0124 -0.0338
13773SOL    HW153044   4.778  11.818   0.325  1.1475  1.9036 -1.1833
13773SOL    HW253045   4.776  11.668   0.300 -0.2098  1.1283  2.8678
13774SOL     OW53046   7.700   4.676  11.818 -0.0772 -0.1309 -0.5705
13774SOL    HW153047   7.744   4.732  11.882 -2.3192  2.2616 -0.9280
13774SOL    HW253048   7.627   4.638  11.866 -0.2544 -0.4142 -1.0642
13775SOL     OW53049  11.427   4.280   6.368  0.1330 -0.1481 -0.3239
13775SOL    HW153050  11.405   4.188   6.357 -0.5077  0.0223 -0.5194
13775SOL    HW253051  11.516   4.288   6.334 -0.7942 -0.1597 -2.9550
13776SOL     OW53052   2.032   3.441   6.399  0.0366 -0.2291  0.3826
13776SOL    HW153053   1.999   3.391   6.324 -0.7157  1.4250 -0.4263
13776SOL    HW253054   2.051   3.374   6.465 -0.7618 -1.5954 -0.7096
13777SOL     OW53055  12.615   9.427   0.918 -0.3043 -0.1428  0.1108
13777SOL    HW153056  12.585   9.499   0.974  1.2403  0.0445  0.7480
13777SOL    HW253057  12.643   9.359   0.979  0.1284 -0.4817 -0.4552
13778SOL     OW53058   3.383  11.120  12.439  0.3778 -0.6096  0.1135
13778SOL    HW153059   3.357  11.211  12.448 -0.9842 -0.8647 -0.9648
13778SOL    HW253060   3.336  11.073  12.508  1.6498 -0.4345  1.1525
13779SOL     OW53061   1.478  12.130   8.420 -0.6941 -0.7748  0.1181
13779SOL    HW153062   1.540  12.085   8.362 -0.1766  1.7735 -1.4560
13779SOL    HW253063   1.508  12.221   8.421 -2.6145 -0.0852  1.8489
13780SOL     OW53064  11.279   3.698   2.044 -0.1285 -0.0778  0.2734
13780SOL    HW153065  11.285   3.614   2.088  2.4978 -1.0973 -1.7810
13780SOL    HW253066  11.354   3.748   2.076 -1.5845  1.5321  1.3872
13781SOL     OW53067   5.422   8.494   8.218 -0.2603 -0.2527  0.0750
13781SOL    HW153068   5.456   8.497   8.129 -0.5444 -1.3921 -0.0818
13781SOL    HW253069   5.495   8.459   8.270 -0.0868  0.4301  0.3032
13782SOL     OW53070   5.729   1.927   9.955  0.0429 -0.1056 -0.3529
13782SOL    HW153071   5.669   1.958   9.887 -1.9935 -1.9327  0.5043
13782SOL    HW253072   5.697   1.840   9.977  1.6727 -0.2421  1.7809
13783SOL     OW53073   1.768  12.707   8.051 -0.3386 -0.5999  0.1515
13783SOL    HW153074   1.843  12.655   8.078 -1.2676 -1.7888  0.5388
13783SOL    HW253075   1.778  12.717   7.956 -0.0162 -1.2862  0.1123
13784SOL     OW53076   9.851  10.383   2.836  0.1977 -0.4711 -0.2298
13784SOL    HW153077   9.930  10.420   2.875  0.2622  1.4854 -2.0255
13784SOL    HW253078   9.882  10.342   2.755 -0.6025  0.3407 -0.9647
13785SOL     OW53079   8.083   5.649   0.172 -0.1186 -0.4445  0.1720
13785SOL    HW153080   8.145   5.581   0.195  1.7430  0.1326 -2.5757
13785SOL    HW253081   8.020   5.606   0.113  1.5985  0.2169 -2.3316
13786SOL     OW53082   0.385   3.986   6.919  0.1579  0.6966 -0.0314
13786SOL    HW153083   0.383   3.895   6.950 -0.2079  0.4247 -0.8381
13786SOL    HW253084   0.472   4.017   6.943  0.3105  0.1101  0.1877
13787SOL     OW53085  11.063   1.865   7.771  0.0078 -0.1459  0.1683
13787SOL    HW153086  11.134   1.897   7.827  1.6309 -1.1522 -1.2214
13787SOL    HW253087  11.066   1.770   7.780 -0.7173 -0.2337 -0.4352
13788SOL     OW53088   7.976   2.939   9.091  0.1068  0.2736  0.0047
13788SOL    HW153089   8.042   2.920   9.158  0.8128  0.9003 -0.4933
13788SOL    HW253090   8.021   2.922   9.008 -0.4548  0.4261 -0.3369
13789SOL     OW53091   2.209   7.241  11.165 -0.1211  0.1039 -0.2661
13789SOL    HW153092   2.241   7.236  11.075  0.6063  0.2000 -0.0223
13789SOL    HW253093   2.216   7.334  11.188 -1.1375  0.2250 -0.3982
13790SOL     OW53094   4.137   5.586  10.911 -0.0307 -0.2541  0.0248
13790SOL    HW153095   4.187   5.633  10.978 -0.9115  0.4554  0.2094
13790SOL    HW253096   4.141   5.643  10.834 -0.1617 -0.4108 -0.0991
13791SOL     OW53097   1.451   6.040  13.676  0.3480  0.0647 -0.0827
13791SOL    HW153098   1.457   6.134  13.656 -1.4275  0.3518  0.6411
13791SOL    HW253099   1.499   6.030  13.758 -0.7814  0.6415  0.6709
13792SOL     OW53100   6.458  12.830   0.913  0.1730 -0.0897 -0.0860
13792SOL    HW153101   6.552  12.821   0.898 -0.0528 -1.4837 -0.8367
13792SOL    HW253102   6.419  12.807   0.829 -0.8827 -0.5172  0.5129
13793SOL     OW53103  11.928   8.593   8.978  0.0487 -0.7212 -0.1158
13793SOL    HW153104  11.943   8.532   8.905  0.1353 -1.3489  0.4173
13793SOL    HW253105  11.855   8.648   8.948 -1.3939 -2.3890  0.1659
13794SOL     OW53106   1.501  11.402   5.029 -0.1616 -1.0153  0.0605
13794SOL    HW153107   1.500  11.311   5.059  1.5969 -0.7851  0.9691
13794SOL    HW253108   1.453  11.450   5.097 -1.9901 -1.3666 -0.9377
13795SOL     OW53109   6.056  12.418   8.518  0.2983  0.2902 -0.0018
13795SOL    HW153110   6.093  12.439   8.432 -2.0215 -1.0401 -1.4273
13795SOL    HW253111   6.025  12.502   8.552 -3.4955  0.3438 -2.9393
13796SOL     OW53112   9.483   0.410   5.255 -0.3371  0.3262 -0.2558
13796SOL    HW153113   9.465   0.317   5.268 -3.9596  0.6294 -1.8749
13796SOL    HW253114   9.500   0.418   5.161 -1.7560  1.4318 -0.4501
13797SOL     OW53115  10.968   8.629   1.041 -0.0195 -0.1792  0.1286
13797SOL    HW153116  10.991   8.578   0.964  0.6329  2.8749 -1.9052
13797SOL    HW253117  10.873   8.624   1.046  0.0164 -1.3630 -0.0979
13798SOL     OW53118  12.929   7.917   0.699 -0.6934  0.7157 -0.8514
13798SOL    HW153119  12.979   7.855   0.646 -0.1129  0.6630 -0.2592
13798SOL    HW253120  12.854   7.867   0.730 -0.4633  0.4315 -0.7448
13799SOL     OW53121   5.454   7.920  11.690 -0.4175 -0.6459  0.3168
13799SOL    HW153122   5.384   7.896  11.630 -0.7512  0.1466  0.3672
13799SOL    HW253123   5.524   7.954  11.634 -0.5673 -0.2916  0.3374
13800SOL     OW53124  13.651   3.046  10.584 -0.4593 -0.1304  0.0842
13800SOL    HW153125  13.605   2.964  10.564  2.7893 -1.8720 -0.9839
13800SOL    HW253126  13.708   3.023  10.657  0.9307  0.9981 -0.6177
13801SOL     OW53127   9.037   9.200  13.669 -0.0842  0.2049 -0.3793
13801SOL    HW153128   8.985   9.188  13.590  0.1280 -1.7998 -0.2733
13801SOL    HW253129   9.113   9.251  13.640  0.8395 -1.8832 -1.9152
13802SOL     OW53130   3.576   4.126  12.690  0.2772 -0.6671 -0.8887
13802SOL    HW153131   3.649   4.121  12.752 -0.4017  1.3084  0.1714
13802SOL    HW253132   3.617   4.135  12.605  1.2973 -0.2066 -0.3673
13803SOL     OW53133   6.344   4.880   2.129  1.1657  0.6060 -0.2353
13803SOL    HW153134   6.322   4.806   2.186  0.3417 -1.1597 -2.7008
13803SOL    HW253135   6.277   4.946   2.149  0.3289 -0.3439  0.1763
13804SOL     OW53136   5.178   9.629  11.815 -0.3329 -0.1983 -0.5920
13804SOL    HW153137   5.260   9.583  11.797  0.3629  0.7216  0.0873
13804SOL    HW253138   5.138   9.642  11.730  1.1217  0.9203 -1.1523
13805SOL     OW53139   4.766   6.866  10.359 -0.6343 -0.4256  0.8995
13805SOL    HW153140   4.716   6.919  10.298  1.4384 -0.7007 -1.2006
13805SOL    HW253141   4.742   6.899  10.446  0.9747  4.5054 -0.1995
13806SOL     OW53142   8.304  10.469   9.793  0.0095  0.3184 -0.2153
13806SOL    HW153143   8.226  10.413   9.791  0.3163 -0.1006 -1.6192
13806SOL    HW253144   8.329  10.479   9.701  3.2505 -1.8627  0.2750
13807SOL     OW53145  11.707   7.028   1.376 -0.2306 -0.0900  0.4203
13807SOL    HW153146  11.655   7.001   1.452 -0.5281  1.6700  0.8741
13807SOL    HW253147  11.796   6.999   1.397 -0.4307 -0.2345  1.1190
13808SOL     OW53148   5.728   2.616  12.519 -0.9501 -0.1824 -0.0185
13808SOL    HW153149   5.786   2.584  12.450 -0.1687  0.5808  0.2624
13808SOL    HW253150   5.775   2.596  12.600 -0.8985  0.7946  0.2007
13809SOL     OW53151   2.828  11.070   0.756 -0.6434  0.0221 -0.1272
13809SOL    HW153152   2.738  11.039   0.764 -0.3441 -0.7230  0.4464
13809SOL    HW253153   2.820  11.152   0.706 -1.6101 -0.1333 -0.2599
13810SOL     OW53154   9.201  13.244  12.229  0.0092 -0.1098 -0.1704
13810SOL    HW153155   9.275  13.305  12.223 -1.1000  1.1028 -3.6432
13810SOL    HW253156   9.138  13.289  12.286  1.6314 -0.9726  2.4791
13811SOL     OW53157   0.104  12.830   5.007  0.2711  0.1078  0.4071
13811SOL    HW153158   0.055  12.863   5.083  1.1496  1.0903  0.5803
13811SOL    HW253159   0.065  12.745   4.988  0.4843 -0.4980  2.4176
13812SOL     OW53160   0.085  13.569   7.116 -0.1813 -0.0930 -0.2199
13812SOL    HW153161   0.166  13.619   7.115  0.0488 -0.4383 -2.1040
13812SOL    HW253162   0.111  13.481   7.143 -0.0406 -0.0511 -0.2208
13813SOL     OW53163   1.326   7.593   2.367 -0.8247  0.4665  0.1541
13813SOL    HW153164   1.253   7.654   2.356  0.1966  1.6137 -0.6095
13813SOL    HW253165   1.404   7.648   2.362  0.0921 -0.5390  2.2829
13814SOL     OW53166  12.248   9.566   2.703 -0.1921 -0.3506  0.6001
13814SOL    HW153167  12.280   9.606   2.622  1.2827 -0.3869  1.1249
13814SOL    HW253168  12.157   9.541   2.684 -0.2333  0.6759 -0.6499
13815SOL     OW53169  11.141   3.256   3.179 -0.3257  0.2161  0.2567
13815SOL    HW153170  11.155   3.166   3.207 -0.2214  0.5039  1.1739
13815SOL    HW253171  11.127   3.250   3.085  1.4348 -0.5706  0.0053
13816SOL     OW53172   1.049   3.669   5.120 -0.6948 -0.1736 -0.1843
13816SOL    HW153173   1.109   3.595   5.132  1.0607  1.6003  3.9719
13816SOL    HW253174   1.091   3.724   5.054  0.2053 -0.8202 -0.1729
13817SOL     OW53175   5.052   7.115   9.776  0.2402 -0.0376  0.0013
13817SOL    HW153176   5.090   7.195   9.814 -0.3720 -0.9587  2.7989
13817SOL    HW253177   5.117   7.047   9.794 -0.4746 -0.6795  0.2140
13818SOL     OW53178   2.581  11.443   8.102  0.7110 -0.0308 -0.2057
13818SOL    HW153179   2.542  11.529   8.120  0.0984 -0.5247  0.9480
13818SOL    HW253180   2.608  11.411   8.188  1.2627 -0.8367 -0.6730
13819SOL     OW53181   8.132   4.995   7.906  0.0174  0.3143 -0.3729
13819SOL    HW153182   8.131   5.085   7.940 -1.2835  0.6460 -1.2424
13819SOL    HW253183   8.179   5.001   7.823  1.3504 -0.1334  0.3032
13820SOL     OW53184   0.550   5.165   7.763  0.0058  0.4560 -0.1446
13820SOL    HW153185   0.578   5.077   7.791  3.0055  0.4377 -2.7438
13820SOL    HW253186   0.500   5.198   7.838 -0.4845 -3.0710  1.3103
13821SOL     OW53187   3.251   5.265   1.726  0.4917 -0.7442  0.2429
13821SOL    HW153188   3.338   5.278   1.687  0.9800 -0.6931  1.3020
13821SOL    HW253189   3.192   5.255   1.651  1.3488 -0.3894 -0.5009
13822SOL     OW53190  10.838   5.562   9.504 -0.6293 -0.2067  0.4987
13822SOL    HW153191  10.874   5.498   9.566 -1.3637 -1.2818 -0.1493
13822SOL    HW253192  10.809   5.509   9.430 -0.1171  1.0119 -0.6164
13823SOL     OW53193  10.729   7.125   9.065  0.3032  0.0041  0.0231
13823SOL    HW153194  10.773   7.126   8.980  0.3721  3.3158 -0.0018
13823SOL    HW253195  10.798   7.146   9.128  0.5561 -3.7093  1.2229
13824SOL     OW53196  10.622   4.790   5.891  0.0023  0.1745  0.7054
13824SOL    HW153197  10.593   4.785   5.982 -0.0053 -1.4286  0.6409
13824SOL    HW253198  10.572   4.723   5.845  0.7292  0.2707 -0.2804
13825SOL     OW53199   6.907   6.830   5.714 -0.4440  0.1371  0.0833
13825SOL    HW153200   6.970   6.760   5.727  0.0724  0.5627 -0.0741
13825SOL    HW253201   6.961   6.909   5.703 -1.0005  0.5007 -0.0941
13826SOL     OW53202   4.743   8.206   2.799 -0.2940  0.0644 -1.0621
13826SOL    HW153203   4.773   8.156   2.723 -1.0486 -0.4061 -1.0607
13826SOL    HW253204   4.796   8.175   2.872 -0.3557 -0.3167 -1.1795
13827SOL     OW53205   9.670   7.424   6.653  0.4917  0.0645  0.6850
13827SOL    HW153206   9.712   7.510   6.657 -0.4198  0.5710 -0.2241
13827SOL    HW253207   9.576   7.443   6.657  0.2077 -0.7379 -1.0741
13828SOL     OW53208   4.878   9.247  11.235  0.2154 -0.6159  0.8212
13828SOL    HW153209   4.943   9.310  11.266 -0.1998 -0.4564  1.4035
13828SOL    HW253210   4.876   9.258  11.140 -0.3188  0.7224  0.9704
13829SOL     OW53211   7.524  11.413   4.773  0.4561 -0.3203  0.4498
13829SOL    HW153212   7.454  11.477   4.781 -0.2547 -1.0856  0.4683
13829SOL    HW253213   7.601  11.465   4.748 -0.4122  0.3634 -0.9552
13830SOL     OW53214   1.619   2.138   8.691 -0.1984  0.4498  0.5791
13830SOL    HW153215   1.541   2.097   8.652  0.0798  1.1899 -0.8331
13830SOL    HW253216   1.588   2.221   8.726  0.2079  1.5899 -1.5751
13831SOL     OW53217   1.191   2.275  12.241 -0.2088  0.1216  0.2833
13831SOL    HW153218   1.189   2.311  12.152 -0.4461  1.3282  0.7624
13831SOL    HW253219   1.254   2.202  12.235  0.7573  0.9829 -0.5794
13832SOL     OW53220   1.887  10.732   9.660 -0.2540 -0.0518 -0.0319
13832SOL    HW153221   1.796  10.702   9.659  0.1326 -1.3248  0.7371
13832SOL    HW253222   1.931  10.676   9.596 -0.0110  0.6001 -0.4460
13833SOL     OW53223   9.394   9.063   7.737  0.5111 -0.4630 -0.1438
13833SOL    HW153224   9.324   9.002   7.713 -0.2428 -0.5882  2.1207
13833SOL    HW253225   9.350   9.147   7.745  0.6388 -0.5035  1.1051
13834SOL     OW53226   0.952   1.169   7.107 -0.2722 -0.1012 -0.3597
13834SOL    HW153227   0.953   1.124   7.023 -0.8977  1.0226 -0.9943
13834SOL    HW253228   0.861   1.197   7.119 -0.0431  0.3863  0.3420
13835SOL     OW53229   3.885   6.149   3.880 -0.8281 -0.4105 -0.3978
13835SOL    HW153230   3.971   6.190   3.886 -0.3725 -1.1954 -1.3560
13835SOL    HW253231   3.891   6.088   3.806 -1.8061 -1.4186  0.3003
13836SOL     OW53232  13.515  13.424  12.016  0.5553 -0.1171 -0.0634
13836SOL    HW153233  13.579  13.492  11.995  0.8551  0.1030  1.4747
13836SOL    HW253234  13.430  13.468  12.008  0.7563  0.5645  1.2057
13837SOL     OW53235   7.362   6.363  13.568  0.1077  0.8358 -0.0455
13837SOL    HW153236   7.273   6.329  13.566  0.4703 -0.3403  1.3129
13837SOL    HW253237   7.376   6.404  13.483 -1.2736 -0.1448 -0.7609
13838SOL     OW53238  10.071  13.660   5.105 -0.1385 -0.6149 -0.3994
13838SOL    HW153239  10.090  13.631   5.195 -1.8765 -0.1336  0.1555
13838SOL    HW253240  10.073  13.755   5.110  1.7704 -0.5487 -1.3745
13839SOL     OW53241  10.051  11.721   5.848  0.0487 -0.0326  0.0853
13839SOL    HW153242   9.992  11.764   5.911 -0.9242 -0.9035 -0.2028
13839SOL    HW253243  10.138  11.735   5.884 -0.5673 -1.9188  2.5848
13840SOL     OW53244  13.732   1.324   3.017  0.0866  0.3005  0.1687
13840SOL    HW153245  13.765   1.234   3.020  0.8820  0.6107  2.8190
13840SOL    HW253246  13.791   1.368   2.955 -0.9800 -1.1613 -2.0140
13841SOL     OW53247   7.148   6.427   6.797 -0.0250  0.6104  0.2301
13841SOL    HW153248   7.229   6.462   6.834  0.4313 -1.1820  1.0431
13841SOL    HW253249   7.102   6.387   6.871 -1.2427  0.8232 -0.3791
13842SOL     OW53250  10.793   8.905   6.618 -0.1412 -0.1519 -0.0165
13842SOL    HW153251  10.778   8.829   6.562 -2.1229 -0.4351  0.7972
13842SOL    HW253252  10.873   8.883   6.667 -0.1480 -1.2885 -0.4768
13843SOL     OW53253   4.067  13.741   7.702 -0.0565 -0.7171 -0.6679
13843SOL    HW153254   4.019  13.769   7.781  1.1549  0.1110 -0.1880
13843SOL    HW253255   4.143  13.694   7.736 -0.0090 -1.1594 -1.3792
13844SOL     OW53256   7.873   8.315  10.118 -0.0949 -0.0914 -0.6329
13844SOL    HW153257   7.937   8.244  10.131 -0.1235 -0.2563 -1.3634
13844SOL    HW253258   7.914   8.373  10.054  0.0480  0.7182  0.1712
13845SOL     OW53259   0.127   4.679  11.330 -0.4722  0.1678  0.0555
13845SOL    HW153260   0.063   4.657  11.397 -1.4986  1.1556 -0.5583
13845SOL    HW253261   0.198   4.616  11.342 -1.2601 -0.5342  1.1737
13846SOL     OW53262  10.871  11.736   4.074  0.3944 -0.5799  0.3789
13846SOL    HW153263  10.805  11.784   4.123  0.3087  1.0464 -1.2057
13846SOL    HW253264  10.831  11.720   3.989  2.5198  2.0746 -1.3207
13847SOL     OW53265   4.369   1.749   4.187  0.2248 -0.1522  0.0638
13847SOL    HW153266   4.397   1.728   4.277  0.2680  2.6143  0.7801
13847SOL    HW253267   4.273   1.749   4.191  0.0490 -3.5383 -0.8791
13848SOL     OW53268   3.173  10.749  12.113  0.1962 -0.1716  0.6291
13848SOL    HW153269   3.218  10.813  12.168  1.9142 -0.8289  0.0600
13848SOL    HW253270   3.115  10.801  12.058  0.0785  0.6903  1.5385
13849SOL     OW53271   4.946  10.844   5.919 -0.1273 -0.0359  0.5553
13849SOL    HW153272   4.995  10.828   5.839  1.7454 -0.0278  1.6233
13849SOL    HW253273   4.942  10.759   5.963  0.1907  0.2283  1.1215
13850SOL     OW53274   4.354   6.621  10.519 -0.6405  0.1538  0.7103
13850SOL    HW153275   4.324   6.681  10.588 -2.0143 -1.1626  1.3186
13850SOL    HW253276   4.306   6.649  10.441  0.7361  1.4963  0.3165
13851SOL     OW53277   7.983   2.563   4.944 -0.1138 -0.3008 -0.6809
13851SOL    HW153278   8.010   2.580   4.854 -0.1338  0.0073 -0.6305
13851SOL    HW253279   7.972   2.650   4.983  2.5335 -0.3832  0.4296
13852SOL     OW53280   3.165   6.428   6.583 -0.3148  0.0108 -0.0903
13852SOL    HW153281   3.203   6.380   6.657  1.7371  2.9092  0.9334
13852SOL    HW253282   3.236   6.436   6.520 -1.5360 -0.8993 -1.6546
13853SOL     OW53283   3.669   8.803   7.062  0.4828 -0.0215  0.0657
13853SOL    HW153284   3.627   8.793   7.148  0.4699  0.8189  0.1708
13853SOL    HW253285   3.620   8.744   7.004 -0.2091  0.2035  0.4051
13854SOL     OW53286   5.759   1.079   5.511  0.4710 -0.1379 -0.3113
13854SOL    HW153287   5.831   1.026   5.545  0.9091  1.1839  0.9014
13854SOL    HW253288   5.749   1.150   5.575 -1.5409  0.0204 -0.7510
13855SOL     OW53289   4.719   5.883   3.552 -0.2530 -0.0439  0.2231
13855SOL    HW153290   4.793   5.944   3.558 -0.5731  0.3053  0.6797
13855SOL    HW253291   4.755   5.807   3.506  0.4134  0.0905  0.5050
13856SOL     OW53292   0.974   7.710   5.914  0.6357 -0.6674  0.1250
13856SOL    HW153293   0.944   7.801   5.909 -1.2585 -1.3074 -1.3831
13856SOL    HW253294   1.031   7.699   5.837  0.8740 -0.7544  0.3130
13857SOL     OW53295   4.127   8.837  12.598  0.1938 -0.0540 -0.1156
13857SOL    HW153296   4.043   8.803  12.627  1.0878 -0.6043  2.0594
13857SOL    HW253297   4.133   8.925  12.636  1.2969 -0.7012  1.3266
13858SOL     OW53298  10.126   3.309   5.022 -0.4304  0.6879  0.1009
13858SOL    HW153299  10.084   3.259   5.092 -0.4114  1.1251  0.4292
13858SOL    HW253300  10.219   3.312   5.047 -0.0329 -1.0237 -1.0694
13859SOL     OW53301   2.383  11.110  12.686  0.1010  0.3076 -0.2415
13859SOL    HW153302   2.472  11.125  12.656  0.0440  2.2135  0.4299
13859SOL    HW253303   2.329  11.165  12.630 -0.3748  1.1163  0.9709
13860SOL     OW53304   2.912  13.256  11.016 -0.0237 -0.2381 -0.3020
13860SOL    HW153305   2.873  13.344  11.021 -0.2673 -0.3352 -0.4833
13860SOL    HW253306   2.940  13.247  10.925  1.9090  0.4554  0.1676
13861SOL     OW53307  13.083   7.212  11.628 -0.0231  0.3790  0.4951
13861SOL    HW153308  13.172   7.234  11.657 -0.2456  0.4709  1.1254
13861SOL    HW253309  13.085   7.116  11.619 -0.4578  0.0995  2.6913
13862SOL     OW53310  12.263  12.627   8.437 -0.3478 -0.2577 -0.2668
13862SOL    HW153311  12.237  12.542   8.402 -1.4730 -0.3054  0.6573
13862SOL    HW253312  12.185  12.661   8.480  0.0669  1.2739 -0.6546
13863SOL     OW53313   3.403   0.155   2.437  0.2497  0.2543 -0.1791
13863SOL    HW153314   3.372   0.189   2.353 -0.7718  0.3450  0.2155
13863SOL    HW253315   3.325   0.156   2.493  0.4725 -1.5465  0.2204
13864SOL     OW53316  10.704   1.936  11.020 -0.1446 -1.0181 -0.2825
13864SOL    HW153317  10.731   1.888  10.942  0.4038  0.4715 -1.0600
13864SOL    HW253318  10.681   2.024  10.987 -1.0092 -0.7059  1.0776
13865SOL     OW53319  12.787  11.899   0.695 -0.5166  0.0532 -0.0984
13865SOL    HW153320  12.774  11.867   0.606 -1.5073 -0.4046  0.1931
13865SOL    HW253321  12.700  11.927   0.724 -0.3104 -0.2694  0.8970
13866SOL     OW53322   8.880   5.793   8.310 -0.0599  0.6233  0.7195
13866SOL    HW153323   8.899   5.852   8.383 -1.4059 -0.6815  2.2073
13866SOL    HW253324   8.798   5.751   8.334 -0.4009 -0.0769 -1.4456
13867SOL     OW53325  12.087   4.810   0.757 -0.0506  0.3443 -0.7546
13867SOL    HW153326  12.130   4.890   0.729 -2.1777  1.5466 -0.7421
13867SOL    HW253327  12.030   4.785   0.684  0.9729 -1.5118 -0.9959
13868SOL     OW53328  13.182  13.035   7.546  0.2147 -0.3121  0.2952
13868SOL    HW153329  13.154  13.112   7.596 -1.1563 -1.1872  0.9307
13868SOL    HW253330  13.246  13.069   7.483  0.6933  1.1086  1.4890
13869SOL     OW53331   8.614   9.648   4.997  0.2955 -0.1421  0.0948
13869SOL    HW153332   8.708   9.636   5.008  0.3526 -1.5589 -1.6429
13869SOL    HW253333   8.592   9.718   5.060  2.3510 -0.2509  1.0276
13870SOL     OW53334  10.144   6.651   8.018 -0.3438  0.0090 -0.0186
13870SOL    HW153335  10.112   6.589   8.084 -0.2188  0.5326  0.5477
13870SOL    HW253336  10.091   6.730   8.033 -0.1066  0.2313 -0.3537
13871SOL     OW53337  12.065   6.489   0.906  0.6182 -0.0535 -0.1999
13871SOL    HW153338  12.001   6.472   0.974  0.5432  1.0667  0.0248
13871SOL    HW253339  12.018   6.473   0.824  0.1304  0.4882 -0.0295
13872SOL     OW53340   5.072   9.407  11.337  0.1988 -0.0046 -0.3864
13872SOL    HW153341   5.143   9.472  11.339 -0.2002  0.4282 -0.0180
13872SOL    HW253342   5.039   9.407  11.427  1.1160 -1.7523 -0.0138
13873SOL     OW53343   3.794   2.820   9.190 -0.1997  0.5924  0.1290
13873SOL    HW153344   3.731   2.773   9.135 -0.4364  0.3095  0.6369
13873SOL    HW253345   3.741   2.880   9.242 -0.1984 -0.4369  1.3772
13874SOL     OW53346   4.994   1.168  12.312  1.0942  0.5610 -0.2254
13874SOL    HW153347   4.974   1.075  12.316  0.5659  0.6459 -0.7337
13874SOL    HW253348   5.000   1.195  12.404 -1.6582  0.6239  0.0281
13875SOL     OW53349   9.598   0.192   0.081  0.1129  0.7365  0.2100
13875SOL    HW153350   9.606   0.216   0.174  1.5771 -0.1993  0.3516
13875SOL    HW253351   9.524   0.243   0.050 -0.9315  0.4767  2.1013
13876SOL     OW53352   3.404   1.315   7.449 -0.1502  0.0564  0.1638
13876SOL    HW153353   3.436   1.354   7.530  0.5491  0.4608 -0.2847
13876SOL    HW253354   3.396   1.389   7.389  0.9973 -0.4288 -0.6399
13877SOL     OW53355   3.680  10.106   4.817 -0.0806  0.0216 -0.1485
13877SOL    HW153356   3.637  10.176   4.865 -0.7214 -1.7189  2.0188
13877SOL    HW253357   3.748  10.074   4.877 -1.3748 -2.7097  0.0287
13878SOL     OW53358   0.622   3.428   7.889 -0.1624 -0.2229 -0.5570
13878SOL    HW153359   0.674   3.417   7.969 -0.6949  1.4270  0.0489
13878SOL    HW253360   0.533   3.404   7.916 -0.0435 -1.4292 -1.1616
13879SOL     OW53361   5.062  11.811  10.081 -0.0229 -0.1822 -0.1775
13879SOL    HW153362   5.041  11.903  10.099  1.4884  0.4486 -1.3834
13879SOL    HW253363   5.023  11.795   9.994  0.6015 -0.3513 -0.4291
13880SOL     OW53364   6.642  11.939   1.992 -0.1064  0.5309  0.7000
13880SOL    HW153365   6.585  12.016   1.992 -0.5590  0.2005  0.5123
13880SOL    HW253366   6.590  11.870   2.033 -0.0813  0.0627 -0.0182
13881SOL     OW53367   8.321   2.715   4.225  0.2206 -0.5559  0.0844
13881SOL    HW153368   8.240   2.756   4.256 -0.7875 -0.5524 -2.3063
13881SOL    HW253369   8.388   2.782   4.237 -0.4646  0.0481  0.5932
13882SOL     OW53370   6.185  10.905   7.005  0.2550 -0.0008  0.3893
13882SOL    HW153371   6.143  10.876   7.086 -0.6486 -1.0271 -0.4159
13882SOL    HW253372   6.129  10.974   6.971  0.9497  0.8422  0.9149
13883SOL     OW53373   5.190   2.887   1.051 -0.0526 -0.1366 -0.0340
13883SOL    HW153374   5.129   2.957   1.073 -0.4923  0.0788 -1.7733
13883SOL    HW253375   5.251   2.884   1.124 -1.1900  0.7320  0.9859
13884SOL     OW53376   3.024  12.351   3.039 -0.7454 -0.3254 -0.4180
13884SOL    HW153377   3.046  12.340   3.132 -0.0836 -0.4333 -0.5835
13884SOL    HW253378   2.974  12.432   3.036 -1.3361 -0.6587  0.1223
13885SOL     OW53379   9.684   1.609   8.599  0.5062 -0.1878  0.0625
13885SOL    HW153380   9.599   1.612   8.643  0.3168 -0.3411 -0.2830
13885SOL    HW253381   9.743   1.657   8.657  0.1259  0.1419  0.1832
13886SOL     OW53382   5.407  10.297   0.124  0.3141 -0.6309 -0.1378
13886SOL    HW153383   5.437  10.376   0.079  0.0182  0.3465  1.3072
13886SOL    HW253384   5.436  10.225   0.068  1.7994  0.4398 -0.8143
13887SOL     OW53385  11.403   4.214   6.630  0.3915  0.1315 -0.1024
13887SOL    HW153386  11.418   4.232   6.537 -0.8593 -0.7303 -0.5117
13887SOL    HW253387  11.310   4.189   6.634  0.6883 -0.8887  1.2081
13888SOL     OW53388  10.701   9.331   8.610 -0.0492  0.2240  0.0333
13888SOL    HW153389  10.654   9.334   8.693 -1.4487 -2.5018 -0.5416
13888SOL    HW253390  10.636   9.301   8.546  1.1923  1.4596 -1.9155
13889SOL     OW53391   2.372   5.733   4.162  0.2913 -0.4839  0.0665
13889SOL    HW153392   2.443   5.786   4.125 -1.2788  1.4581 -0.3712
13889SOL    HW253393   2.387   5.738   4.257  1.2268 -0.8605 -0.0464
13890SOL     OW53394   8.117   5.239  10.599  0.2170 -0.0034  0.0342
13890SOL    HW153395   8.100   5.251  10.505  1.4450  1.0585 -0.0759
13890SOL    HW253396   8.104   5.145  10.614 -1.1299 -0.0066 -0.9411
13891SOL     OW53397   5.271  11.079  11.570 -0.1943  0.1427  0.2969
13891SOL    HW153398   5.208  11.025  11.521 -0.3303 -1.2353  1.8872
13891SOL    HW253399   5.289  11.153  11.513 -2.4918  0.0575 -0.6391
13892SOL     OW53400   3.842   2.987  11.004  0.4743 -0.2933  0.0606
13892SOL    HW153401   3.826   3.055  10.939  0.4123  0.5543  0.9346
13892SOL    HW253402   3.860   2.908  10.953 -0.7092  0.0722 -0.9838
13893SOL     OW53403   4.268  10.752  13.590  0.4092 -0.1723  0.2452
13893SOL    HW153404   4.182  10.793  13.585 -0.6871 -1.9892  2.2809
13893SOL    HW253405   4.324  10.818  13.633 -0.5265  0.2460  0.8408
13894SOL     OW53406   9.406  13.221   2.180 -0.3147  0.2017 -0.0350
13894SOL    HW153407   9.419  13.156   2.112  0.4842  1.0562 -0.7378
13894SOL    HW253408   9.312  13.220   2.198 -0.2158 -1.6591  0.5300
13895SOL     OW53409   2.176  10.850   3.310 -0.3039 -0.3615 -0.2870
13895SOL    HW153410   2.095  10.883   3.272 -0.5362  0.3215  0.7612
13895SOL    HW253411   2.162  10.756   3.319 -0.0411 -0.6502 -2.3117
13896SOL     OW53412   5.893   9.216   0.460 -0.1470 -0.6943 -0.5992
13896SOL    HW153413   5.885   9.283   0.528 -0.6875 -1.2964 -0.0559
13896SOL    HW253414   5.921   9.264   0.382 -1.7883  0.3952 -0.5611
13897SOL     OW53415   9.620   2.603   0.089 -0.3823  0.2468  0.3774
13897SOL    HW153416   9.708   2.636   0.110 -1.2574  2.5675  0.6827
13897SOL    HW253417   9.615   2.605  -0.006  0.7568 -2.5096  0.1512
13898SOL     OW53418   4.091   1.782   9.958 -0.7055  0.1295 -0.0975
13898SOL    HW153419   4.055   1.843  10.023 -0.6928  0.4995 -0.4379
13898SOL    HW253420   4.062   1.816   9.874  0.7560  0.6387 -0.4107
13899SOL     OW53421  12.250  10.849   9.055  0.4471 -0.3520  0.1369
13899SOL    HW153422  12.195  10.786   9.008 -1.5140  1.1256  0.3297
13899SOL    HW253423  12.299  10.894   8.986 -0.5523  0.0901 -0.3088
13900SOL     OW53424   1.504   2.234   1.679  0.3185  0.5033  0.1537
13900SOL    HW153425   1.479   2.142   1.682 -1.1540  0.9034  1.8226
13900SOL    HW253426   1.475   2.265   1.594 -1.3102 -0.0275  0.4901
13901SOL     OW53427   4.074   8.993  11.682  0.1655 -0.3250  0.5711
13901SOL    HW153428   4.035   8.912  11.716 -0.5210  0.4028  1.5584
13901SOL    HW253429   4.000   9.051  11.667  0.7434  0.5969  1.1696
13902SOL     OW53430   3.575   5.940   6.857  0.3796 -0.5611  0.0888
13902SOL    HW153431   3.491   5.911   6.893 -0.2506  0.9054 -0.1289
13902SOL    HW253432   3.593   6.022   6.903  1.4839 -0.6298 -0.1983
13903SOL     OW53433   7.016   4.456   9.660  0.1920  0.0472  0.0847
13903SOL    HW153434   7.095   4.503   9.687  0.7055 -1.1526  0.7209
13903SOL    HW253435   7.020   4.373   9.707 -1.4868 -0.0129  0.1750
13904SOL     OW53436   7.876  13.412   9.056 -0.3113  0.0417  0.3051
13904SOL    HW153437   7.795  13.455   9.029  0.1518  0.7163 -0.0145
13904SOL    HW253438   7.940  13.482   9.062  0.8569 -0.7773 -1.7202
13905SOL     OW53439   0.642  10.669  12.452  0.4264  0.1788  0.0840
13905SOL    HW153440   0.589  10.616  12.512 -0.5420  0.1997 -0.7156
13905SOL    HW253441   0.722  10.688  12.500  0.2763 -0.9988  0.8356
13906SOL     OW53442   2.853   5.382  10.908 -0.5380 -0.2478  0.4444
13906SOL    HW153443   2.819   5.369  10.996 -1.2199 -2.3034 -0.0730
13906SOL    HW253444   2.910   5.459  10.915 -0.8561 -0.1587  2.5763
13907SOL     OW53445   3.728   9.212  11.299  0.2049  0.5258  0.0359
13907SOL    HW153446   3.659   9.188  11.237  0.2266  1.4057 -0.3526
13907SOL    HW253447   3.682   9.260  11.368  0.4058  1.0614 -0.1935
13908SOL     OW53448   2.432  12.895  10.291  0.6407 -0.7038  0.6692
13908SOL    HW153449   2.460  12.978  10.252 -0.2645 -1.7545 -2.5753
13908SOL    HW253450   2.352  12.917  10.338  0.3593  0.2822 -0.2297
13909SOL     OW53451   9.219   1.357  12.993  0.4619  0.3386  0.1820
13909SOL    HW153452   9.186   1.267  12.997  1.0134  0.0991 -0.3328
13909SOL    HW253453   9.192   1.397  13.075  1.0105 -0.5837  0.8363
13910SOL     OW53454  11.967   9.875   4.516 -0.0629  0.2612 -0.0314
13910SOL    HW153455  11.998   9.794   4.477  0.8225  0.2475  0.6838
13910SOL    HW253456  11.929   9.924   4.443  0.4496 -0.2898 -0.6703
13911SOL     OW53457  10.886   4.237   6.907  0.1508  0.1771 -0.0841
13911SOL    HW153458  10.834   4.239   6.987 -0.1117 -0.3021 -0.2374
13911SOL    HW253459  10.914   4.146   6.898  0.4130  0.2827 -0.3878
13912SOL     OW53460   1.188   2.843   4.499  0.0050  0.1133  0.3381
13912SOL    HW153461   1.117   2.898   4.466  0.8485  0.7509 -0.5012
13912SOL    HW253462   1.257   2.906   4.522  0.2043 -0.4725  1.3861
13913SOL     OW53463   1.480   5.467   4.356  0.3858  0.3114 -0.0339
13913SOL    HW153464   1.385   5.461   4.345  0.5326 -2.9435 -0.5652
13913SOL    HW253465   1.493   5.464   4.451 -0.0248  1.5556  0.0801
13914SOL     OW53466   3.203  11.081  13.295  0.2963 -0.2126 -0.4347
13914SOL    HW153467   3.163  11.051  13.377  0.7654  0.4480  0.0541
13914SOL    HW253468   3.162  11.028  13.227 -1.8940  0.8974 -0.0564
13915SOL     OW53469   9.175  10.694   2.176 -0.0549 -0.5687 -0.3458
13915SOL    HW153470   9.265  10.727   2.179 -1.0613  2.3531  0.0690
13915SOL    HW253471   9.163  10.669   2.084  0.1812  2.2680 -1.2472
13916SOL     OW53472   1.483   1.962   0.806 -0.4503 -0.2175 -0.1866
13916SOL    HW153473   1.518   1.946   0.894  1.1151 -0.1674 -0.7694
13916SOL    HW253474   1.559   1.952   0.748 -1.4286 -0.1053 -1.5213
13917SOL     OW53475  12.374   3.886  10.574  0.3320  0.6381  0.0485
13917SOL    HW153476  12.345   3.907  10.485 -1.7895  0.2189  0.5863
13917SOL    HW253477  12.356   3.966  10.624 -2.4584 -0.4113  0.9149
13918SOL     OW53478   4.335  10.678  11.018  0.1126  0.0579 -0.2951
13918SOL    HW153479   4.247  10.642  11.024  0.2666 -0.5116 -1.2102
13918SOL    HW253480   4.373  10.635  10.941  1.3482 -0.0628  0.3530
13919SOL     OW53481   7.531  11.829   5.629  0.2249 -0.3934 -0.3249
13919SOL    HW153482   7.483  11.848   5.709  0.1122  0.8167 -0.6619
13919SOL    HW253483   7.596  11.899   5.622  0.4948 -0.7014 -1.0900
13920SOL     OW53484   3.548   2.274   5.077 -0.1803 -0.1246 -0.0471
13920SOL    HW153485   3.641   2.280   5.056 -0.3572  0.4445 -0.7067
13920SOL    HW253486   3.546   2.238   5.166  0.7561  2.6508  1.1967
13921SOL     OW53487   2.843  13.708   5.224  0.6571 -0.1926  0.2292
13921SOL    HW153488   2.874  13.760   5.151  0.8445  0.6061  0.8636
13921SOL    HW253489   2.829  13.771   5.295 -2.2075 -0.5111  0.0663
13922SOL     OW53490   1.305  11.462   0.617  0.1455 -0.6233  0.3066
13922SOL    HW153491   1.353  11.381   0.629  0.1560 -0.3316  2.6099
13922SOL    HW253492   1.269  11.483   0.703  0.2986  1.9230 -0.1555
13923SOL     OW53493   5.579   9.965   4.463 -0.4732 -0.3395  0.6318
13923SOL    HW153494   5.654   9.917   4.428 -1.3990 -2.1130  0.9581
13923SOL    HW253495   5.503   9.913   4.436 -1.7038  1.9015 -0.5358
13924SOL     OW53496  11.484   6.667   2.083  0.4418  0.0116 -0.0941
13924SOL    HW153497  11.559   6.716   2.118 -0.0518  0.4866  0.3229
13924SOL    HW253498  11.473   6.700   1.994  1.1118 -0.5099 -0.3756
13925SOL     OW53499   4.012  12.198   4.259 -0.9107 -0.2753  0.2370
13925SOL    HW153500   3.967  12.198   4.344 -1.8181 -2.7905 -0.1466
13925SOL    HW253501   3.981  12.119   4.216  2.5685 -1.2545 -0.8089
13926SOL     OW53502   2.893   4.790   0.139  0.0599  0.2114  0.5432
13926SOL    HW153503   2.948   4.716   0.165  0.1118  0.5142  1.3037
13926SOL    HW253504   2.928   4.865   0.187 -1.0249  0.4095  1.0615
13927SOL     OW53505   3.782   9.605   9.749  0.0617  0.1948 -0.4271
13927SOL    HW153506   3.722   9.679   9.744 -0.2506 -0.0037  0.2592
13927SOL    HW253507   3.792   9.589   9.843 -1.9845 -2.3130 -0.5169
13928SOL     OW53508   3.013   1.830   9.729 -0.2522  0.1556  0.0126
13928SOL    HW153509   2.962   1.851   9.651 -0.0374  1.5778  0.2296
13928SOL    HW253510   2.975   1.885   9.798  1.4796  1.2034  0.1966
13929SOL     OW53511   8.725   5.060   2.873 -0.1068 -0.0743 -0.2834
13929SOL    HW153512   8.704   5.105   2.791  0.8637 -0.0090 -0.5149
13929SOL    HW253513   8.809   5.098   2.900  1.3344 -2.4461 -1.0627
13930SOL     OW53514  11.836   5.958   0.673  0.5285  0.4024 -0.3080
13930SOL    HW153515  11.912   5.923   0.719  0.1999 -0.1254 -0.1672
13930SOL    HW253516  11.864   5.963   0.582  0.0567 -1.7957 -0.6342
13931SOL     OW53517   4.013   2.657   7.970 -0.2667 -0.3079  0.0034
13931SOL    HW153518   4.101   2.684   7.946 -0.4129  0.1965  0.0296
13931SOL    HW253519   3.998   2.695   8.057 -0.4632 -0.4906  0.0509
13932SOL     OW53520   6.151   0.840   2.049 -0.0913  0.4883 -0.0938
13932SOL    HW153521   6.199   0.757   2.044 -1.6631 -0.4576 -0.0826
13932SOL    HW253522   6.160   0.878   1.962 -2.0890 -1.3194 -1.1791
13933SOL     OW53523  12.696   5.890   8.535 -0.2304 -0.4908 -0.3246
13933SOL    HW153524  12.779   5.895   8.488 -0.7507  0.7796 -1.1698
13933SOL    HW253525  12.631   5.874   8.466 -0.7826 -0.6075  0.2175
13934SOL     OW53526   6.017  10.137  12.024  0.5169 -0.9439  0.2557
13934SOL    HW153527   6.006  10.182  11.940 -1.0927 -0.1863  0.8159
13934SOL    HW253528   6.086  10.186  12.068 -1.8484  1.7684  1.2502
13935SOL     OW53529   1.445   7.772   4.415 -0.0682  0.6286  0.1007
13935SOL    HW153530   1.399   7.800   4.493  1.6812  2.4382  0.5614
13935SOL    HW253531   1.457   7.851   4.363  0.3411 -0.2275 -1.1783
13936SOL     OW53532   0.793   1.456   4.966  0.4909  0.1940  0.1212
13936SOL    HW153533   0.708   1.437   5.005 -1.3049  0.5429 -3.2376
13936SOL    HW253534   0.790   1.550   4.946  1.9463  0.3505  0.4564
13937SOL     OW53535  10.389   3.086  11.588 -0.3387 -0.2198  0.1583
13937SOL    HW153536  10.378   3.042  11.672 -0.0382 -0.3146  0.1475
13937SOL    HW253537  10.482   3.080  11.569 -0.5889 -1.3966 -0.8421
13938SOL     OW53538   1.600   7.262   2.021  0.1805 -0.3794  0.7869
13938SOL    HW153539   1.522   7.305   2.057  0.1977 -0.8530  1.4016
13938SOL    HW253540   1.573   7.172   2.004  0.1581 -0.1487 -0.4614
13939SOL     OW53541   7.882   4.683   5.459 -0.6751  0.1445  0.2390
13939SOL    HW153542   7.830   4.722   5.388  0.7153  0.8148 -0.4527
13939SOL    HW253543   7.849   4.726   5.538 -0.4203  1.4014 -0.3110
13940SOL     OW53544  13.611   5.404  13.552  0.2095 -0.0756  0.1653
13940SOL    HW153545  13.534   5.450  13.517  0.9551  1.1221  0.0496
13940SOL    HW253546  13.614   5.429  13.645 -0.0224 -0.8161  0.3815
13941SOL     OW53547   8.282   8.285   8.729  0.3683 -0.3185  0.6947
13941SOL    HW153548   8.193   8.317   8.711  0.0112 -2.1252 -1.0837
13941SOL    HW253549   8.333   8.364   8.744 -1.6491  0.7464  2.4486
13942SOL     OW53550  10.070   6.794   7.267  0.1030  0.1520 -0.3553
13942SOL    HW153551  10.098   6.831   7.184  0.4296  1.9787  0.5042
13942SOL    HW253552  10.151   6.778   7.315 -0.0867 -0.6862 -0.3069
13943SOL     OW53553  13.586   5.415   8.647 -0.0708 -0.3220 -0.2614
13943SOL    HW153554  13.678   5.442   8.649  0.0524 -0.7664  0.4389
13943SOL    HW253555  13.585   5.334   8.596  0.0593 -0.7801  0.4550
13944SOL     OW53556   2.485   9.483   1.190  0.0426  0.5324  0.1057
13944SOL    HW153557   2.491   9.578   1.197  0.4658  0.6029 -0.9916
13944SOL    HW253558   2.573   9.452   1.209 -0.2980  0.2796  1.3501
13945SOL     OW53559   2.785   3.344   8.265  0.2252 -0.1180 -0.2997
13945SOL    HW153560   2.771   3.433   8.296 -1.4036 -0.8582  1.2541
13945SOL    HW253561   2.862   3.313   8.313 -0.7453 -0.3770  1.1587
13946SOL     OW53562   9.502   3.415   0.255 -0.0762 -0.0906 -0.1353
13946SOL    HW153563   9.442   3.340   0.263  0.6382 -0.5952  0.5765
13946SOL    HW253564   9.540   3.425   0.342  0.4608  0.5809 -0.4419
13947SOL     OW53565   8.861   6.440   7.312  0.2552 -0.2485 -0.1385
13947SOL    HW153566   8.923   6.508   7.338  0.8113 -0.2081 -1.4862
13947SOL    HW253567   8.783   6.458   7.365  1.1805  0.0335  1.1865
13948SOL     OW53568   4.426   4.185  11.200  0.1024  0.5557 -0.4419
13948SOL    HW153569   4.508   4.139  11.213 -0.1459 -0.2910 -1.7291
13948SOL    HW253570   4.358   4.123  11.227 -0.1438  1.4188  1.0897
13949SOL     OW53571   5.991   7.295  10.300  0.6927  0.4509  0.2390
13949SOL    HW153572   5.978   7.360  10.231  0.1372  0.4145  0.3043
13949SOL    HW253573   6.038   7.343  10.369 -1.3275  1.3387  1.0819
13950SOL     OW53574   4.218   7.952  12.650 -0.4174  0.0684 -0.1721
13950SOL    HW153575   4.202   8.004  12.571  1.3052 -1.2775 -1.4573
13950SOL    HW253576   4.216   7.861  12.621 -0.0839 -0.4824  1.4154
13951SOL     OW53577   5.758   9.169   5.954 -0.3033 -0.5912  0.3475
13951SOL    HW153578   5.734   9.200   6.042 -2.6694  1.4270 -0.8783
13951SOL    HW253579   5.716   9.083   5.947 -1.5599 -0.0366  0.6616
13952SOL     OW53580   5.889  10.370  10.205 -0.3872  0.7711  0.9296
13952SOL    HW153581   5.841  10.409  10.132  0.7562 -0.3418 -0.4845
13952SOL    HW253582   5.824  10.318  10.252 -0.8428  0.2907 -0.2037
13953SOL     OW53583  10.253  11.026  11.669 -0.0535  0.2277  0.2669
13953SOL    HW153584  10.220  10.957  11.725 -0.1061 -0.6170 -0.7699
13953SOL    HW253585  10.201  11.019  11.589  1.9433 -0.5391 -1.0470
13954SOL     OW53586   7.060  12.250   5.343  0.0493  0.4921  0.6299
13954SOL    HW153587   7.052  12.269   5.436 -0.0680 -1.5741  1.1076
13954SOL    HW253588   6.986  12.192   5.324  0.8313 -0.2124 -0.4187
13955SOL     OW53589   6.684   0.398   6.711 -0.5815  0.2544  0.3580
13955SOL    HW153590   6.678   0.456   6.787  1.7412  0.1084  0.7421
13955SOL    HW253591   6.663   0.311   6.745  2.7488 -0.2584  1.5785
13956SOL     OW53592  12.206   9.969   4.702  0.1852 -0.2826 -0.1974
13956SOL    HW153593  12.127   9.990   4.651  0.3904  0.9201 -0.0510
13956SOL    HW253594  12.257   9.912   4.645 -0.3574 -0.2936 -0.6797
13957SOL     OW53595  10.658  11.021   0.673 -0.2883  0.1773  0.0199
13957SOL    HW153596  10.629  11.100   0.629 -0.9808 -0.6046 -0.9757
13957SOL    HW253597  10.742  11.000   0.633  0.3171  0.8484  0.8827
13958SOL     OW53598   9.791   2.888   2.777 -0.3179  0.2825 -0.5257
13958SOL    HW153599   9.744   2.829   2.835 -1.7706 -0.0222 -1.9495
13958SOL    HW253600   9.751   2.974   2.791  0.9175  0.7131  0.5895
13959SOL     OW53601   2.680   5.265   4.006  0.6541  0.7467 -0.6388
13959SOL    HW153602   2.718   5.178   3.992  0.6489  0.8064 -1.0261
13959SOL    HW253603   2.734   5.323   3.953  0.7350  1.0005 -0.2816
13960SOL     OW53604   7.485  10.950   3.895 -0.5121  0.3527 -0.5455
13960SOL    HW153605   7.493  10.897   3.815  1.5221 -0.5444  0.2009
13960SOL    HW253606   7.393  10.939   3.921 -1.2578  0.7593 -2.7857
13961SOL     OW53607   1.915   7.999   6.150 -0.4966  0.2193  0.4840
13961SOL    HW153608   2.000   8.014   6.109 -0.7536 -0.7332 -0.4569
13961SOL    HW253609   1.864   8.077   6.130 -0.0780  0.4804  0.4283
13962SOL     OW53610   4.443  11.372  13.528  0.2636  0.5323 -0.0875
13962SOL    HW153611   4.509  11.438  13.505  1.0345 -0.6061 -1.2467
13962SOL    HW253612   4.369  11.391  13.470  0.6207  0.1701 -0.6639
13963SOL     OW53613   1.134   5.071   0.237 -0.0163 -0.6328  0.7299
13963SOL    HW153614   1.227   5.087   0.222  0.0858 -1.0683  0.8669
13963SOL    HW253615   1.126   5.063   0.332  0.2391 -2.9622  0.6172
13964SOL     OW53616   4.216   2.851   7.436 -0.0505 -0.0931 -1.2745
13964SOL    HW153617   4.167   2.828   7.515  0.1359 -1.8412 -1.6164
13964SOL    HW253618   4.148   2.869   7.371 -0.3502 -2.8698 -1.8514
13965SOL     OW53619   9.487   7.677  11.729  0.0063  0.0715 -0.5122
13965SOL    HW153620   9.495   7.585  11.702  1.0647  0.4044 -1.3747
13965SOL    HW253621   9.552   7.723  11.677  0.9062  1.0095  1.3642
13966SOL     OW53622   2.212  11.637   5.979  0.1161  0.0407 -0.1220
13966SOL    HW153623   2.123  11.607   5.996  0.3261 -0.1633  0.6478
13966SOL    HW253624   2.243  11.671   6.063  1.6736 -2.2636  0.3159
13967SOL     OW53625   8.650  13.120   0.138 -0.3050  0.4738 -0.0405
13967SOL    HW153626   8.613  13.033   0.118  0.5000 -0.0292  0.5885
13967SOL    HW253627   8.607  13.179   0.076 -1.5917 -0.2133  0.1523
13968SOL     OW53628  13.500   9.375  12.505  0.4841  0.0987  0.2073
13968SOL    HW153629  13.490   9.374  12.410  5.1930  2.7978 -0.6083
13968SOL    HW253630  13.495   9.283  12.530 -0.6815 -0.7226 -2.6168
13969SOL     OW53631   7.138   7.165  10.213 -0.1114 -0.0155 -0.2875
13969SOL    HW153632   7.147   7.234  10.279 -1.4065  3.2367 -3.2088
13969SOL    HW253633   7.228   7.147  10.186  0.3518 -0.6205  1.4836
13970SOL     OW53634   9.609   0.889   7.313  0.0158  0.2022 -0.3123
13970SOL    HW153635   9.542   0.839   7.360  0.4375 -3.1042 -2.8855
13970SOL    HW253636   9.692   0.849   7.339  0.8671  2.5123  0.8033
13971SOL     OW53637   5.907  10.447  12.607  0.4521  0.1480 -0.3130
13971SOL    HW153638   5.886  10.519  12.666  1.6035 -0.7364  1.2360
13971SOL    HW253639   6.001  10.453  12.592  0.5116 -0.8112 -0.4437
13972SOL     OW53640  13.359  12.696  11.994 -0.1530 -0.0525 -0.3913
13972SOL    HW153641  13.399  12.609  11.985 -3.1254 -1.5235 -0.9947
13972SOL    HW253642  13.265  12.678  11.992 -0.8842  3.2225 -0.3852
13973SOL     OW53643   2.605   6.266   6.099 -0.2046 -0.1686 -0.2507
13973SOL    HW153644   2.659   6.344   6.112  1.6804 -1.3339 -0.6632
13973SOL    HW253645   2.668   6.193   6.098 -1.9335 -1.7576  0.5487
13974SOL     OW53646   6.844   9.947   7.726  0.3563  0.2897 -0.6015
13974SOL    HW153647   6.850   9.858   7.690  0.1542  0.2635 -0.5744
13974SOL    HW253648   6.750   9.968   7.721  0.0557 -0.3677  1.4743
13975SOL     OW53649  11.111   6.203   9.476 -0.0159 -0.1863  0.3802
13975SOL    HW153650  11.159   6.127   9.441  1.5626  0.2278  1.5005
13975SOL    HW253651  11.179   6.259   9.513 -1.2785  1.1444  0.7815
13976SOL     OW53652   0.315   1.231   9.511  0.2560 -0.1442  0.2743
13976SOL    HW153653   0.246   1.193   9.565 -0.0432  0.3539  0.2439
13976SOL    HW253654   0.273   1.306   9.468  1.3854  1.4932  1.8941
13977SOL     OW53655   8.000   5.251   9.980  0.5471 -0.0711  0.1939
13977SOL    HW153656   8.030   5.341   9.964  1.1209 -0.1048  1.0415
13977SOL    HW253657   7.923   5.261  10.035  1.7847 -0.1497  2.0082
13978SOL     OW53658  13.543   0.528   0.012  0.6754  0.1804 -0.3628
13978SOL    HW153659  13.467   0.493   0.059  0.4426  1.0462 -0.0745
13978SOL    HW253660  13.618   0.484   0.052  0.4023  0.0865  0.0544
13979SOL     OW53661   3.392   6.283   6.112  0.2797  0.0302  0.6743
13979SOL    HW153662   3.479   6.319   6.094 -1.0081  3.0742 -0.1785
13979SOL    HW253663   3.373   6.309   6.202  0.6189 -1.5654  1.2344
13980SOL     OW53664   4.003   8.830   3.097 -0.2107  0.3627 -0.0542
13980SOL    HW153665   3.971   8.743   3.072 -0.1385  0.6007 -1.0252
13980SOL    HW253666   3.947   8.891   3.049  0.7942  0.8143 -0.6903
13981SOL     OW53667   0.452  11.211  10.502 -0.6163 -0.2759  0.2290
13981SOL    HW153668   0.357  11.198  10.494 -0.4486 -0.5093 -2.0186
13981SOL    HW253669   0.489  11.127  10.475  0.2545 -0.1001  0.8538
13982SOL     OW53670   1.586   5.480   3.301  0.3458  0.0238  0.0740
13982SOL    HW153671   1.642   5.535   3.246 -0.9749  1.2165 -0.1444
13982SOL    HW253672   1.552   5.540   3.367 -1.4407 -0.4107 -0.4054
13983SOL     OW53673   7.702   0.736   1.522  0.6471 -0.3349  0.0256
13983SOL    HW153674   7.788   0.726   1.563  1.3455  1.1905 -0.9469
13983SOL    HW253675   7.711   0.694   1.437 -0.4587 -2.5369  0.9240
13984SOL     OW53676   1.455   8.402   2.126  0.1057  0.5574  0.9110
13984SOL    HW153677   1.405   8.321   2.139  0.3185  0.5014  1.4021
13984SOL    HW253678   1.496   8.391   2.040 -1.1818  0.8553  0.2408
13985SOL     OW53679   0.022   2.092  12.811 -0.4311  0.1243  0.1569
13985SOL    HW153680   0.079   2.035  12.759  0.3869 -0.2136  1.3926
13985SOL    HW253681  -0.006   2.038  12.885  1.0895  1.5417  1.8440
13986SOL     OW53682   7.197   4.605   9.821  0.2274  0.4022  0.2303
13986SOL    HW153683   7.222   4.689   9.860  1.0552  0.0500  0.4907
13986SOL    HW253684   7.274   4.579   9.770 -0.4252  0.3214 -0.7513
13987SOL     OW53685  11.704   4.973   5.038  0.4970 -0.6697  0.1589
13987SOL    HW153686  11.785   5.023   5.032  0.8739 -1.1761  0.9117
13987SOL    HW253687  11.638   5.028   4.995  1.5449 -0.9693 -1.9567
13988SOL     OW53688   7.597   3.122   5.204  0.1895  0.0013 -0.2389
13988SOL    HW153689   7.674   3.179   5.199  0.4555 -0.3991 -0.9246
13988SOL    HW253690   7.631   3.035   5.182 -0.4138 -0.2175 -0.3080
13989SOL     OW53691  13.102   0.386  11.936  0.5330  0.0013  0.4190
13989SOL    HW153692  13.013   0.383  11.902  0.9899 -0.8724 -0.7939
13989SOL    HW253693  13.155   0.411  11.860  1.5912 -1.9507  0.4693
13990SOL     OW53694  10.757   5.761  13.284 -0.3912 -0.2625 -0.5409
13990SOL    HW153695  10.833   5.819  13.292 -0.3304 -0.4147  0.0336
13990SOL    HW253696  10.761   5.728  13.194 -0.0803  0.1478 -0.6816
13991SOL     OW53697  12.670   1.782   1.984 -0.1391  0.2841 -0.5004
13991SOL    HW153698  12.718   1.718   1.931 -0.4387  1.5203 -2.3905
13991SOL    HW253699  12.738   1.836   2.023  0.0794  0.0836 -0.6022
13992SOL     OW53700   9.572  13.394   7.006  0.2886  0.8607 -0.1705
13992SOL    HW153701   9.664  13.418   7.022 -0.0543  2.2786 -0.2010
13992SOL    HW253702   9.565  13.394   6.910 -0.4149  3.6575 -0.1920
13993SOL     OW53703  12.454   1.622  13.032  0.4559 -0.0893  0.4152
13993SOL    HW153704  12.442   1.550  12.970  1.8033 -0.8351  0.9912
13993SOL    HW253705  12.414   1.698  12.988  1.0073 -0.6826 -1.1854
13994SOL     OW53706   4.079   5.337  13.652  0.5240 -0.0006 -0.6100
13994SOL    HW153707   4.118   5.422  13.631  1.2873 -0.2284 -0.1511
13994SOL    HW253708   4.058   5.299  13.567  2.3227 -0.3310 -0.9520
13995SOL     OW53709   3.272  13.489  13.654 -0.2808  0.2893  0.0168
13995SOL    HW153710   3.197  13.458  13.703  0.2325 -2.4000 -0.7361
13995SOL    HW253711   3.239  13.502  13.565 -0.3048  1.2569  0.1503
13996SOL     OW53712   0.748   5.099  10.405  0.3894 -0.2153  0.5180
13996SOL    HW153713   0.827   5.150  10.423  0.1822 -0.2373  1.5819
13996SOL    HW253714   0.778   5.008  10.410  0.7096 -0.2327 -1.1434
13997SOL     OW53715   2.090   0.851  10.950  0.7654 -0.2850 -0.5170
13997SOL    HW153716   2.174   0.863  10.906  0.4332 -0.0453 -1.0998
13997SOL    HW253717   2.034   0.811  10.884 -0.0927  1.1689 -0.7198
13998SOL     OW53718   3.177   3.409   3.395  0.8350  0.1732 -0.6188
13998SOL    HW153719   3.145   3.498   3.412 -2.1979 -1.0059  0.4884
13998SOL    HW253720   3.106   3.367   3.346  1.8141 -1.9176 -0.3312
13999SOL     OW53721  10.111   9.944   4.447  0.2179 -0.3947 -0.0652
13999SOL    HW153722  10.112   9.863   4.497  1.4632 -1.0533 -1.1052
13999SOL    HW253723  10.047   9.999   4.492 -0.3985 -1.8119  0.8663
14000SOL     OW53724   5.943   1.579   5.809  0.6317 -0.0972 -0.0323
14000SOL    HW153725   5.873   1.644   5.803  0.0720 -0.6071  0.8271
14000SOL    HW253726   6.023   1.630   5.821  0.0105  0.4279  2.3699
14001SOL     OW53727   2.179   8.684  13.388  0.4605 -0.2519 -0.6962
14001SOL    HW153728   2.178   8.780  13.389 -0.1874 -0.1686  2.8892
14001SOL    HW253729   2.109   8.661  13.327 -1.7795  1.6775  0.9517
14002SOL     OW53730   6.320   5.376   3.209 -0.3344  0.1387 -0.0649
14002SOL    HW153731   6.338   5.283   3.197  1.4332  0.4812 -0.3170
14002SOL    HW253732   6.338   5.392   3.302 -2.7398 -0.1593  0.5227
14003SOL     OW53733   1.775   4.860   8.385 -0.0182  0.0313 -0.2909
14003SOL    HW153734   1.813   4.777   8.415 -1.7565  0.1988  2.7001
14003SOL    HW253735   1.850   4.920   8.379  0.8932 -1.0250  0.2251
14004SOL     OW53736   3.361   7.677  12.961  0.0090 -0.0625  0.5067
14004SOL    HW153737   3.346   7.586  12.937  1.4232 -1.2924  3.6931
14004SOL    HW253738   3.284   7.724  12.928 -0.9369 -2.4266 -0.9165
14005SOL     OW53739   4.252   4.164   3.339 -0.2094 -0.1826 -0.0022
14005SOL    HW153740   4.343   4.137   3.347 -0.4797 -0.7515  1.3633
14005SOL    HW253741   4.255   4.259   3.348  0.2635 -0.1694 -0.2389
14006SOL     OW53742  13.657   0.669   1.400 -0.3084  0.2094 -0.0060
14006SOL    HW153743  13.640   0.597   1.339 -1.4399  0.0988  0.4042
14006SOL    HW253744  13.634   0.748   1.351  1.3497  0.3695 -0.6070
14007SOL     OW53745   7.518  12.382   6.151 -0.8577  0.3088  0.1328
14007SOL    HW153746   7.444  12.430   6.188 -0.7278  0.0162  0.7844
14007SOL    HW253747   7.546  12.323   6.221  1.6007  2.1446  0.8217
14008SOL     OW53748   8.095  10.907   5.733 -0.3347  0.0542 -0.2209
14008SOL    HW153749   8.031  10.837   5.746 -0.2198 -0.0559 -0.2471
14008SOL    HW253750   8.112  10.908   5.639  0.3153 -0.4596 -0.1112
14009SOL     OW53751   7.451  12.244   2.877  0.2424 -0.2259  0.2383
14009SOL    HW153752   7.481  12.256   2.787  0.6314 -1.7507  0.1395
14009SOL    HW253753   7.453  12.150   2.891  1.5112  0.0488  2.3037
14010SOL     OW53754  12.361   9.911  10.824 -0.3717 -0.1063  0.6499
14010SOL    HW153755  12.275   9.897  10.784 -0.0419 -1.3246  0.3140
14010SOL    HW253756  12.343   9.945  10.911 -1.3194 -2.6038  1.5147
14011SOL     OW53757   7.223   7.328   4.726  0.1420  0.6981 -0.6190
14011SOL    HW153758   7.291   7.261   4.729 -0.4517  0.1036 -0.2958
14011SOL    HW253759   7.219   7.363   4.815 -0.0794  0.6272 -0.6007
14012SOL     OW53760   5.735  12.613   8.133 -0.1606  0.0351  0.3945
14012SOL    HW153761   5.715  12.521   8.149 -0.9004 -0.1453 -1.3352
14012SOL    HW253762   5.664  12.644   8.077  0.4403  1.4850  0.3794
14013SOL     OW53763   1.643   9.179  13.332 -0.3365  0.2016 -0.1414
14013SOL    HW153764   1.700   9.185  13.409 -0.9649 -0.3999  0.3958
14013SOL    HW253765   1.566   9.232  13.356 -0.1278  0.7801 -0.7415
14014SOL     OW53766  13.268   8.330  12.981 -0.6681  0.2142 -0.4480
14014SOL    HW153767  13.309   8.316  12.896 -1.6075 -0.9648 -0.7246
14014SOL    HW253768  13.216   8.251  12.996 -1.1479  0.7544  0.8623
14015SOL     OW53769  12.847   3.134  10.955  0.4369  0.1336  0.3341
14015SOL    HW153770  12.891   3.131  10.870  0.2701 -0.1308  0.2557
14015SOL    HW253771  12.765   3.181  10.938  0.7495  0.7504  0.5107
14016SOL     OW53772  12.464   2.862   0.499  0.6444  0.1934  0.1937
14016SOL    HW153773  12.381   2.844   0.543  2.1979 -1.9723  2.5604
14016SOL    HW253774  12.469   2.957   0.495 -1.7377  0.3802  0.3408
14017SOL     OW53775   3.954   1.119   2.474  0.4056 -0.2918  0.3608
14017SOL    HW153776   3.898   1.063   2.529 -0.2802 -0.4492 -0.4754
14017SOL    HW253777   3.961   1.072   2.391  0.6320  0.4021 -0.0193
14018SOL     OW53778  11.835   8.575  10.305  0.0697 -0.1266  0.1583
14018SOL    HW153779  11.869   8.587  10.216  0.4597 -0.0072  0.3229
14018SOL    HW253780  11.870   8.649  10.354  2.0776 -1.6024  1.0741
14019SOL     OW53781   7.682   3.986   6.434  0.7690 -1.2910  0.2545
14019SOL    HW153782   7.755   4.011   6.378  2.3118 -0.3586  2.5359
14019SOL    HW253783   7.703   3.897   6.463 -0.0144 -1.7668 -0.5884
14020SOL     OW53784   9.301   6.298  13.594  0.4426 -0.0833 -0.6278
14020SOL    HW153785   9.345   6.321  13.512  1.5727 -2.9639 -0.9440
14020SOL    HW253786   9.213   6.272  13.567 -0.1358  1.6215 -0.5151
14021SOL     OW53787   0.126   3.007   9.755 -0.2646  0.0339 -0.1621
14021SOL    HW153788   0.156   3.092   9.724 -1.6232  0.7023  0.2408
14021SOL    HW253789   0.161   2.944   9.693  1.2138  0.8174 -0.1701
14022SOL     OW53790  11.928  10.983  10.845  0.2381  0.3286 -0.2216
14022SOL    HW153791  11.912  10.897  10.884 -0.9589 -0.2647 -1.9163
14022SOL    HW253792  11.916  10.969  10.751  1.4063  2.0611 -0.6658
14023SOL     OW53793   3.176   3.502  13.723 -0.4272  0.8507  0.2540
14023SOL    HW153794   3.206   3.440  13.656 -1.2250  0.1759  0.5088
14023SOL    HW253795   3.145   3.578  13.674 -0.6386  0.5212 -0.1222
14024SOL     OW53796   5.926   0.823  10.246  0.3766 -0.6429  0.2144
14024SOL    HW153797   5.898   0.882  10.176 -0.8815 -1.5215 -0.0661
14024SOL    HW253798   5.846   0.806  10.296  0.5388 -2.6693 -0.1456
14025SOL     OW53799   2.358  12.358   0.758 -0.2283  0.5618 -0.5000
14025SOL    HW153800   2.392  12.275   0.724 -0.5007  0.2930 -0.1174
14025SOL    HW253801   2.340  12.410   0.679 -2.1090 -0.5436 -0.8773
14026SOL     OW53802   1.203   7.284   8.304 -0.4218  0.0418  0.3434
14026SOL    HW153803   1.208   7.199   8.262  1.4096 -0.0791  0.7293
14026SOL    HW253804   1.110   7.295   8.326 -0.6706 -1.8786  0.3700
14027SOL     OW53805  11.522   3.587   8.911 -0.1308 -0.4783 -0.5095
14027SOL    HW153806  11.608   3.545   8.908 -1.4581 -3.4275 -1.7035
14027SOL    HW253807  11.461   3.518   8.883 -2.9093  1.4480  0.3730
14028SOL     OW53808  12.393   8.518   5.154  0.5576 -0.0527 -0.0141
14028SOL    HW153809  12.464   8.546   5.096  0.2501 -0.0600 -0.3996
14028SOL    HW253810  12.437   8.484   5.232  1.0655 -2.1607 -1.1601
14029SOL     OW53811   0.602  11.455  13.316  0.4402 -0.0245 -0.1113
14029SOL    HW153812   0.523  11.509  13.319 -1.0599 -1.9481 -2.3332
14029SOL    HW253813   0.626  11.453  13.224  2.6978 -0.1029  0.4324
14030SOL     OW53814   5.966   8.757   6.313 -0.4831 -0.8229  0.0396
14030SOL    HW153815   5.935   8.773   6.402  1.7388  1.1876  0.5414
14030SOL    HW253816   6.012   8.673   6.318  0.0522 -0.4918  0.9305
14031SOL     OW53817  11.461   6.323   8.446 -0.2644  0.1531 -0.2019
14031SOL    HW153818  11.507   6.396   8.404 -0.8526 -0.0447 -1.2210
14031SOL    HW253819  11.390   6.366   8.496  1.1508  0.4847  1.6451
14032SOL     OW53820   2.262   6.807   3.836  0.5695  0.1759  0.3642
14032SOL    HW153821   2.232   6.898   3.842  1.7826  0.6406 -0.4365
14032SOL    HW253822   2.189   6.761   3.794  0.8461  1.2351 -1.3404
14033SOL     OW53823  13.493   5.132   1.895  0.3792  0.0468  0.8196
14033SOL    HW153824  13.482   5.205   1.834 -0.8753 -0.5640  0.2652
14033SOL    HW253825  13.551   5.165   1.963 -0.4767  1.6753  0.7865
14034SOL     OW53826   0.728   2.543   0.184  0.0636 -0.2162  0.4255
14034SOL    HW153827   0.701   2.451   0.177  0.8548 -0.4962  0.9541
14034SOL    HW253828   0.801   2.542   0.245  0.0249  0.7853  0.5011
14035SOL     OW53829   0.126  12.447   7.030  0.5067 -0.3291  0.2684
14035SOL    HW153830   0.039  12.436   7.069 -0.0074 -1.9560 -1.1966
14035SOL    HW253831   0.134  12.541   7.014 -1.3308 -0.2384 -0.3080
14036SOL     OW53832   3.608   2.170   2.608  0.3146  0.0672 -0.6102
14036SOL    HW153833   3.676   2.105   2.594  0.6738  0.0011  1.2170
14036SOL    HW253834   3.650   2.239   2.659 -1.2033 -0.4673  1.4814
14037SOL     OW53835  10.926   3.996  11.270 -0.3314 -0.0843 -0.5933
14037SOL    HW153836  10.963   4.067  11.323 -0.6191  0.8265 -1.5756
14037SOL    HW253837  10.998   3.967  11.215 -0.2831 -0.3914 -0.3704
14038SOL     OW53838   8.836  10.657   2.818 -0.3057  0.0379 -0.5683
14038SOL    HW153839   8.827  10.752   2.826 -0.1910 -0.0355  0.5637
14038SOL    HW253840   8.926  10.639   2.848 -1.1630 -0.6737  1.8410
14039SOL     OW53841   6.479  11.101  11.884 -0.6346 -0.4453  0.0708
14039SOL    HW153842   6.462  11.020  11.835  0.6344 -2.4384  2.6661
14039SOL    HW253843   6.567  11.127  11.858 -0.0558 -1.3694  1.0211
14040SOL     OW53844  13.192   3.575   3.370 -0.0099 -0.0127  0.5539
14040SOL    HW153845  13.099   3.555   3.382 -0.0506  0.2400  0.6734
14040SOL    HW253846  13.193   3.659   3.324  0.1167 -1.8364 -3.1442
14041SOL     OW53847   7.779   2.102   8.910 -0.0327  0.1971 -0.0330
14041SOL    HW153848   7.698   2.140   8.878 -0.3568  0.2499  0.8268
14041SOL    HW253849   7.829   2.177   8.943  0.1767  0.1142 -0.1615
14042SOL     OW53850   4.395  10.508   1.073  0.7682  0.0926  0.0430
14042SOL    HW153851   4.477  10.535   1.033  1.0928 -0.9692 -0.0464
14042SOL    HW253852   4.404  10.414   1.086 -1.9282 -0.8614 -3.5604
14043SOL     OW53853   2.076   4.529   7.977  0.9752  0.2263 -0.5323
14043SOL    HW153854   2.007   4.587   8.008  2.1847  0.7370  1.3957
14043SOL    HW253855   2.157   4.574   8.001  1.9853 -0.8054 -1.8421
14044SOL     OW53856   6.078   9.823   3.475  0.8921  0.2519 -0.2609
14044SOL    HW153857   6.025   9.896   3.442 -1.1743 -0.0872  2.0047
14044SOL    HW253858   6.090   9.844   3.568  0.2876 -2.2280  0.4378
14045SOL     OW53859   7.122   0.197   2.043 -0.7319 -0.8129 -0.1247
14045SOL    HW153860   7.153   0.283   2.014 -1.2232 -0.5014  0.2568
14045SOL    HW253861   7.183   0.171   2.112 -0.0549 -1.1787 -0.8492
14046SOL     OW53862   4.167   1.450   2.689  0.5818  0.0102 -0.6900
14046SOL    HW153863   4.147   1.361   2.663  1.2039  0.7227 -4.0731
14046SOL    HW253864   4.205   1.490   2.611  0.4031  3.2220  0.7008
14047SOL     OW53865   0.241   0.965  13.681  0.1349  0.4216 -0.1131
14047SOL    HW153866   0.205   0.886  13.722 -0.3251  0.1958 -0.9271
14047SOL    HW253867   0.165   1.023  13.671  0.3784  0.7687  0.0218
14048SOL     OW53868   8.550   1.128  13.737 -0.0687  0.0487 -0.6997
14048SOL    HW153869   8.529   1.044  13.779  0.5674  0.7855  1.2170
14048SOL    HW253870   8.470   1.180  13.745  0.5308  0.7781  1.2520
14049SOL     OW53871   5.394  11.092   5.571  0.6755 -0.5161 -0.2204
14049SOL    HW153872   5.374  11.018   5.629  1.9936  0.2982  1.3593
14049SOL    HW253873   5.399  11.053   5.484 -1.1163 -1.8265  0.2159
14050SOL     OW53874   4.307   0.512   7.506 -0.6793 -0.5994 -0.2210
14050SOL    HW153875   4.385   0.566   7.500 -1.4823  0.6092  0.0056
14050SOL    HW253876   4.332   0.429   7.465  0.9006 -0.4597  0.4034
14051SOL     OW53877   2.229  10.756   7.041  0.2091 -0.7282 -0.0338
14051SOL    HW153878   2.202  10.679   7.090  1.0248 -1.3850 -0.5810
14051SOL    HW253879   2.313  10.731   7.001  1.3648  0.9974  1.1267
14052SOL     OW53880   8.897   4.587   7.464  0.2654 -0.2613 -0.5130
14052SOL    HW153881   8.956   4.601   7.537 -0.0219 -0.1989 -0.2917
14052SOL    HW253882   8.955   4.571   7.389  0.6290  2.1209 -0.8082
14053SOL     OW53883   5.698   1.836   7.120  0.6050  0.2327  0.0377
14053SOL    HW153884   5.633   1.777   7.082 -0.7491  2.1894 -0.8400
14053SOL    HW253885   5.733   1.885   7.046  1.0504  1.1186  0.8050
14054SOL     OW53886   1.001   4.625   2.184  0.3446  0.3788  0.0421
14054SOL    HW153887   1.059   4.702   2.185 -0.5849  1.1072  1.8438
14054SOL    HW253888   0.923   4.653   2.232 -0.2078 -1.5620  0.3631
14055SOL     OW53889  13.727   4.077   7.407  0.1296  0.1069  0.0038
14055SOL    HW153890  13.792   4.132   7.451  1.7316 -0.9404 -0.9279
14055SOL    HW253891  13.702   4.127   7.329 -0.6264  0.7506  0.6432
14056SOL     OW53892  10.016   4.429   7.046 -0.3596 -0.4060  0.1229
14056SOL    HW153893  10.005   4.518   7.079  1.5647 -0.5238  1.2037
14056SOL    HW253894  10.036   4.376   7.124  4.3756 -0.6951 -1.0173
14057SOL     OW53895   0.053   0.338   9.260  0.5187 -0.0593 -0.2310
14057SOL    HW153896  -0.020   0.399   9.275  0.9794  0.2084  1.0794
14057SOL    HW253897   0.081   0.313   9.348  0.6224 -1.8483 -0.7367
14058SOL     OW53898  11.267  11.986   1.322  0.1441  0.2433  0.0579
14058SOL    HW153899  11.187  12.012   1.277 -0.2171 -0.2407  0.4216
14058SOL    HW253900  11.332  12.050   1.292 -0.3188  0.5105 -0.4029
14059SOL     OW53901   3.892   8.992  13.218  0.1860  0.4169  0.0375
14059SOL    HW153902   3.809   9.041  13.218 -0.4222 -0.5474  1.1132
14059SOL    HW253903   3.916   8.987  13.310  1.6575  0.9806 -0.2949
14060SOL     OW53904   9.372  13.053   6.174 -0.2424 -0.1064 -0.0961
14060SOL    HW153905   9.311  13.053   6.248 -1.0755  1.5214 -0.7308
14060SOL    HW253906   9.321  13.087   6.101  0.6994 -1.2473 -1.3327
14061SOL     OW53907   9.421  12.854   8.207 -0.2708 -0.1935  0.1897
14061SOL    HW153908   9.497  12.907   8.182  0.1140 -0.8639 -0.1030
14061SOL    HW253909   9.448  12.807   8.285 -0.8210  0.4784  0.7991
14062SOL     OW53910   8.732   9.398   9.315 -0.3491  0.1495 -0.1951
14062SOL    HW153911   8.712   9.323   9.259 -0.0315 -0.1666  0.1096
14062SOL    HW253912   8.706   9.370   9.402  1.1615 -0.2034  0.1872
14063SOL     OW53913   4.680   7.060   9.255  0.2087 -0.4413  0.1559
14063SOL    HW153914   4.699   7.151   9.235  0.5128 -0.6336 -0.4341
14063SOL    HW253915   4.651   7.022   9.172 -0.3169 -0.7819  0.4868
14064SOL     OW53916   3.354  11.759  11.776 -0.0415 -0.2374  0.5849
14064SOL    HW153917   3.360  11.849  11.744 -0.9300 -0.5843 -0.6114
14064SOL    HW253918   3.409  11.758  11.854 -0.7581  1.5841  1.1657
14065SOL     OW53919   3.611   7.527  12.871 -0.5180  0.2582 -0.1882
14065SOL    HW153920   3.558   7.469  12.817 -0.7176  0.8009 -0.5881
14065SOL    HW253921   3.548   7.574  12.926 -0.2834 -0.5781  0.8084
14066SOL     OW53922  13.318   6.311   6.267  0.1279 -0.6860  0.0033
14066SOL    HW153923  13.341   6.379   6.330 -1.3834  0.1105 -0.2424
14066SOL    HW253924  13.290   6.237   6.321 -0.2360 -0.3464  0.2911
14067SOL     OW53925   2.584  11.630   8.398 -0.0870 -0.3328  0.4374
14067SOL    HW153926   2.581  11.617   8.493  1.8242  0.2781  0.6194
14067SOL    HW253927   2.637  11.708   8.386 -2.7130  1.3729 -1.0582
14068SOL     OW53928   5.706   2.018  10.283 -0.1896 -0.2867  0.2582
14068SOL    HW153929   5.673   2.103  10.314  1.8877 -0.1160  2.2844
14068SOL    HW253930   5.738   2.034  10.195 -0.7894  0.7613  0.2190
14069SOL     OW53931  10.534   1.590   0.395 -0.0671  0.4843 -0.1690
14069SOL    HW153932  10.498   1.635   0.318  1.1925  0.5755 -0.7235
14069SOL    HW253933  10.625   1.572   0.372  0.4272  0.7967  1.4439
14070SOL     OW53934   5.140   1.993   4.349  0.6653 -0.3789  0.0509
14070SOL    HW153935   5.143   2.063   4.414  1.1349 -1.6112  1.4139
14070SOL    HW253936   5.107   1.917   4.396  2.6697 -1.7917 -0.6410
14071SOL     OW53937  12.332   7.257   7.689 -0.0265  0.0393  0.1645
14071SOL    HW153938  12.376   7.301   7.615  0.0539  0.4222  0.4355
14071SOL    HW253939  12.240   7.284   7.681  0.1026  0.6301  0.5902
14072SOL     OW53940  12.035  11.792   6.918  0.8718  0.1276  0.0704
14072SOL    HW153941  11.955  11.741   6.907 -0.2815  1.5872  1.3934
14072SOL    HW253942  12.105  11.727   6.907 -0.4870 -1.4290  0.1289
14073SOL     OW53943  12.668   9.101   3.601 -0.0561 -0.0627 -0.1797
14073SOL    HW153944  12.632   9.018   3.569  0.0787  0.5092 -1.8858
14073SOL    HW253945  12.592   9.152   3.628 -0.5003  0.6271 -2.5272
14074SOL     OW53946   1.759   1.435   2.767 -0.5191  0.1258  0.0951
14074SOL    HW153947   1.681   1.383   2.785 -0.9216  1.0816  1.2112
14074SOL    HW253948   1.800   1.449   2.852  0.9291 -0.4027 -0.4706
14075SOL     OW53949   8.155   8.796  13.037 -0.6654  0.1210  0.1368
14075SOL    HW153950   8.200   8.799  13.122 -0.8179  1.4879  0.1952
14075SOL    HW253951   8.122   8.707  13.031  0.3202 -0.3319  1.0041
14076SOL     OW53952   6.013   8.950  11.729 -0.2774 -0.7069  0.0465
14076SOL    HW153953   6.091   8.992  11.764  0.4704 -0.3123 -1.9673
14076SOL    HW253954   5.940   9.000  11.768  0.4966 -0.0448  0.6912
14077SOL     OW53955   1.095   9.257  11.152  0.3476  0.3410  0.5915
14077SOL    HW153956   1.132   9.346  11.146  0.2210  0.3567 -0.0221
14077SOL    HW253957   1.006   9.270  11.186  0.0542  0.5283 -0.2212
14078SOL     OW53958   8.013   3.694   5.960 -0.8799  0.2346  0.1600
14078SOL    HW153959   7.964   3.618   5.929  0.0285  0.4278 -1.9004
14078SOL    HW253960   7.951   3.767   5.953 -1.2055 -0.0102  0.4650
14079SOL     OW53961   9.885   0.447   3.940  0.0666 -0.3592 -0.2914
14079SOL    HW153962   9.976   0.478   3.944  0.8147 -2.5072  1.4192
14079SOL    HW253963   9.874   0.418   3.850  0.9172  0.3623 -0.6469
14080SOL     OW53964   9.812  10.593  13.309  0.6047 -0.0237 -0.2587
14080SOL    HW153965   9.782  10.593  13.218 -0.9853 -0.7422  0.2248
14080SOL    HW253966   9.832  10.502  13.327 -1.1058 -0.2553  0.6920
14081SOL     OW53967   2.523  12.198  10.069  0.6300  0.3954  0.0608
14081SOL    HW153968   2.617  12.208  10.084  0.4234  1.2037  0.9121
14081SOL    HW253969   2.485  12.191  10.157 -0.2500  1.5675 -0.2013
14082SOL     OW53970  10.723   7.203   1.148  0.1286 -0.0534  0.3231
14082SOL    HW153971  10.713   7.246   1.233 -3.2688 -0.7037  0.3938
14082SOL    HW253972  10.802   7.243   1.111  1.4508  0.6331  3.5003
14083SOL     OW53973   7.985  12.920   3.136  0.4154  0.5456 -0.2289
14083SOL    HW153974   8.068  12.965   3.124  0.3897  0.1687 -2.1558
14083SOL    HW253975   7.989  12.846   3.075 -0.1358 -1.2280  1.7692
14084SOL     OW53976   5.904  13.500   2.157 -0.0321 -0.3416  0.0937
14084SOL    HW153977   5.851  13.522   2.081  1.1355 -0.3223 -0.7461
14084SOL    HW253978   5.844  13.506   2.231 -1.0390  0.2786 -0.7473
14085SOL     OW53979   2.273  11.162   0.531  0.5636  0.4129 -0.4393
14085SOL    HW153980   2.229  11.234   0.484  2.0044  0.4040 -1.8764
14085SOL    HW253981   2.212  11.139   0.601 -2.3652 -0.4347 -3.0515
14086SOL     OW53982  11.416   2.379  10.961  0.4469  0.2920  0.3205
14086SOL    HW153983  11.391   2.341  10.878 -1.2555  0.9846  0.4793
14086SOL    HW253984  11.446   2.305  11.014 -0.7164 -0.4989 -0.1023
14087SOL     OW53985   6.980  13.006   0.515 -0.3464  0.0299  0.1762
14087SOL    HW153986   6.980  12.911   0.526  0.3378 -0.0537 -0.4593
14087SOL    HW253987   6.895  13.027   0.477 -0.0944 -0.4527 -0.6603
14088SOL     OW53988   4.892   8.339   8.579  0.3505 -0.0678  0.4522
14088SOL    HW153989   4.867   8.295   8.660 -0.4074 -0.8007 -0.1622
14088SOL    HW253990   4.986   8.355   8.588  0.2452 -0.0168  1.5275
14089SOL     OW53991   6.476   6.568  12.639  0.0965 -0.4320 -0.1367
14089SOL    HW153992   6.531   6.646  12.646 -0.0423 -0.0621 -2.3546
14089SOL    HW253993   6.389   6.597  12.665 -0.2807  0.6077 -2.3678
14090SOL     OW53994   2.521   1.586   6.470 -0.0844  0.1155  0.9087
14090SOL    HW153995   2.580   1.658   6.492 -1.2541  1.0865  0.9409
14090SOL    HW253996   2.572   1.507   6.490  1.5898  0.8873 -0.0955
14091SOL     OW53997  12.813   1.973   2.187 -0.0727 -0.5206  0.1421
14091SOL    HW153998  12.762   2.049   2.159  0.0470 -0.9924 -1.4569
14091SOL    HW253999  12.765   1.937   2.261 -2.6976 -1.5515 -1.9132
14092SOL     OW54000   7.216   8.992   9.947 -0.2384  0.6482 -0.3192
14092SOL    HW154001   7.199   8.945   9.865  1.0744 -1.2089  0.3893
14092SOL    HW254002   7.310   9.012   9.944  0.1734 -0.7722  1.3038
14093SOL     OW54003  12.856  13.716   1.902  0.6274  0.5634 -0.8543
14093SOL    HW154004  12.853  13.795   1.956  0.9482 -0.2736  0.4275
14093SOL    HW254005  12.948  13.703   1.883  0.4772  1.0859 -1.9729
14094SOL     OW54006  12.391  10.613  10.286 -0.4239 -0.1576 -0.3381
14094SOL    HW154007  12.479  10.628  10.320 -0.8844  1.8542  0.0683
14094SOL    HW254008  12.402  10.605  10.191  0.1165  0.8467 -0.3644
14095SOL     OW54009   5.340   6.014  10.733  0.4639  0.2482 -0.6420
14095SOL    HW154010   5.283   6.084  10.700  0.6856  0.4663 -0.5653
14095SOL    HW254011   5.375   5.972  10.653 -1.6844 -1.4816 -0.7638
14096SOL     OW54012   1.077   6.807   4.346 -0.1365  0.5954 -0.8461
14096SOL    HW154013   1.017   6.735   4.326  0.3269  0.1818 -0.7663
14096SOL    HW254014   1.145   6.801   4.279  0.6741  0.0640  0.0030
14097SOL     OW54015   2.092   4.733   9.007  0.0198 -0.0991  0.7168
14097SOL    HW154016   2.067   4.743   8.915  1.3719  1.5436  0.4875
14097SOL    HW254017   2.159   4.665   9.007  0.7770  0.6277  0.3149
14098SOL     OW54018   3.554   2.830  10.221  0.1179  0.1898  0.9326
14098SOL    HW154019   3.518   2.848  10.135 -0.6724  0.5027  1.3137
14098SOL    HW254020   3.554   2.735  10.228  0.0648  0.1669  0.6326
14099SOL     OW54021   2.938   7.651  12.713 -0.6540  0.4351  0.5396
14099SOL    HW154022   2.872   7.706  12.670  0.6204  2.0975  0.6017
14099SOL    HW254023   3.015   7.658  12.657  0.8437  2.1258  2.6170
14100SOL     OW54024   1.507   4.727   3.857 -0.0654  0.0498  0.1694
14100SOL    HW154025   1.415   4.750   3.870  0.2515  1.5842 -0.1228
14100SOL    HW254026   1.556   4.805   3.884  1.4324 -1.9141  3.9085
14101SOL     OW54027   0.128   6.885  13.630 -0.0429  0.1381  0.0409
14101SOL    HW154028   0.136   6.792  13.607  1.0798  0.1736  0.2046
14101SOL    HW254029   0.115   6.929  13.546 -0.4237 -0.1451 -0.0543
14102SOL     OW54030   3.218   7.674  11.308  0.8332  0.1222  0.0107
14102SOL    HW154031   3.234   7.579  11.316 -0.4729 -0.0020  1.5778
14102SOL    HW254032   3.167   7.682  11.227  0.0355 -0.6725  0.4032
14103SOL     OW54033  10.306   8.392   3.124 -0.4886  0.1547  0.2437
14103SOL    HW154034  10.215   8.402   3.149 -0.1701 -1.4043  2.2486
14103SOL    HW254035  10.331   8.306   3.158  1.6240  0.3751 -0.5981
14104SOL     OW54036  13.575   3.337   6.894 -0.4973 -0.3134  0.7058
14104SOL    HW154037  13.604   3.264   6.838  0.2436  0.0413  0.6083
14104SOL    HW254038  13.528   3.396   6.835 -0.1242 -0.1707  0.5470
14105SOL     OW54039   6.512  10.794   6.245  0.3046 -0.4572 -0.3064
14105SOL    HW154040   6.563  10.807   6.165  1.1453 -1.8982 -0.0400
14105SOL    HW254041   6.578  10.794   6.315 -0.4067  0.6326  0.3950
14106SOL     OW54042  11.175   5.430  10.073  0.1913  0.2603  0.5302
14106SOL    HW154043  11.206   5.517  10.098  0.4966 -0.0665  1.3310
14106SOL    HW254044  11.083   5.442  10.051 -0.0332  0.6088  1.6301
14107SOL     OW54045   3.744   0.939   5.820 -0.1048  0.4361 -0.0134
14107SOL    HW154046   3.818   0.995   5.799 -0.6628  1.9483  1.7748
14107SOL    HW254047   3.737   0.942   5.915 -1.7134 -0.6573 -0.0430
14108SOL     OW54048   8.702  12.526   8.575  0.3404  0.0803 -0.4877
14108SOL    HW154049   8.652  12.447   8.556  1.3816 -0.8418  0.4626
14108SOL    HW254050   8.637  12.588   8.608 -0.9145  0.5185 -3.3999
14109SOL     OW54051   6.721   6.581   8.917 -0.6994  0.4608  0.8139
14109SOL    HW154052   6.646   6.534   8.880  0.5633  0.2569 -1.6680
14109SOL    HW254053   6.745   6.529   8.994 -0.8646 -1.6232 -0.4503
14110SOL     OW54054   3.703  11.488   5.750 -0.0177 -0.2016  0.2991
14110SOL    HW154055   3.760  11.560   5.776  0.4332 -0.8713  1.2170
14110SOL    HW254056   3.616  11.515   5.779 -0.1436  0.6775 -0.8172
14111SOL     OW54057   5.396   8.148   3.880  0.0115 -0.1754  0.4959
14111SOL    HW154058   5.305   8.144   3.852 -0.3530 -0.0816  1.6182
14111SOL    HW254059   5.426   8.234   3.851  0.0709 -0.6166 -0.7998
14112SOL     OW54060  11.282  11.390  12.430 -0.2743  0.6296 -0.1210
14112SOL    HW154061  11.258  11.441  12.352 -0.0785  0.0568 -0.5665
14112SOL    HW254062  11.209  11.402  12.490 -1.5563 -0.7939 -1.3066
14113SOL     OW54063   9.956   0.416   1.710  0.1730 -0.1356 -0.1238
14113SOL    HW154064  10.019   0.348   1.683 -2.5949 -2.2680 -1.7477
14113SOL    HW254065   9.949   0.474   1.635  0.0670 -0.0287 -0.0318
14114SOL     OW54066  13.215   5.546  13.268 -0.0036 -0.8449  0.0693
14114SOL    HW154067  13.128   5.583  13.286 -0.9683 -2.8780 -0.0744
14114SOL    HW254068  13.276   5.615  13.293 -1.6590  0.7891 -0.1683
14115SOL     OW54069   2.456   1.797   6.713 -0.5951  0.4233  0.0548
14115SOL    HW154070   2.481   1.864   6.650 -1.0056 -0.0297 -0.6050
14115SOL    HW254071   2.538   1.774   6.758 -0.2374  0.5308 -0.5328
14116SOL     OW54072   6.288  11.240   3.939 -0.0369 -0.2143  0.0559
14116SOL    HW154073   6.203  11.250   3.982 -0.5646  0.1899 -1.0251
14116SOL    HW254074   6.330  11.326   3.949  1.1648 -0.9958  2.3816
14117SOL     OW54075   8.864   6.938   4.372 -0.4336 -0.5377 -0.5304
14117SOL    HW154076   8.836   6.888   4.295  0.1347  0.7745 -1.6415
14117SOL    HW254077   8.801   6.915   4.440 -0.1629 -2.7741 -0.9536
14118SOL     OW54078   6.886  12.265   6.120 -0.4298  0.2111 -0.1772
14118SOL    HW154079   6.860  12.338   6.177  2.2348 -0.0740  1.5664
14118SOL    HW254080   6.961  12.226   6.164  0.4435 -1.3898 -2.8738
14119SOL     OW54081   8.988   1.216  12.155 -0.4064  0.1886 -0.0742
14119SOL    HW154082   9.080   1.192  12.165 -0.8981 -1.4776  0.8534
14119SOL    HW254083   8.987   1.279  12.083  1.3938 -0.0822 -0.3795
14120SOL     OW54084   0.403   4.404   4.215  0.6312 -0.5552  0.8517
14120SOL    HW154085   0.337   4.473   4.216  1.3788  0.2915 -1.7783
14120SOL    HW254086   0.368   4.339   4.154  1.9409 -0.3458 -0.1599
14121SOL     OW54087  12.901   4.824  11.584 -0.4176 -0.5365  0.2865
14121SOL    HW154088  12.924   4.773  11.506 -1.1235 -2.4578  1.2611
14121SOL    HW254089  12.814   4.791  11.610 -0.4478  0.4526  1.5540
14122SOL     OW54090   8.464   4.653   1.107 -0.3646 -0.1814  0.0115
14122SOL    HW154091   8.436   4.731   1.059 -1.9118  0.6790  2.1641
14122SOL    HW254092   8.549   4.678   1.144  0.2357 -0.3897 -1.1901
14123SOL     OW54093   3.632   1.341  10.668  0.0726  0.3101  0.0042
14123SOL    HW154094   3.600   1.327  10.579 -0.4377 -0.9910  0.3634
14123SOL    HW254095   3.723   1.312  10.666  0.5154  1.6647 -0.4242
14124SOL     OW54096   9.745   3.468  10.153 -0.3368  0.3060  0.4871
14124SOL    HW154097   9.756   3.374  10.165  0.1918  0.5009  1.6524
14124SOL    HW254098   9.773   3.506  10.236  1.6881  1.6510 -0.7405
14125SOL     OW54099   8.177  11.549  10.710  0.0234 -0.2681 -0.1734
14125SOL    HW154100   8.189  11.470  10.763  2.0826 -0.2177 -0.5126
14125SOL    HW254101   8.238  11.613  10.747 -0.0886  0.4833 -1.2295
14126SOL     OW54102   8.418  12.532   1.526 -0.0180  0.5085  0.0655
14126SOL    HW154103   8.410  12.612   1.474 -1.0556  0.5243  0.2245
14126SOL    HW254104   8.430  12.462   1.462 -2.7702  0.3153 -0.3785
14127SOL     OW54105   5.461   7.732  13.662  0.8394  0.0009 -0.7274
14127SOL    HW154106   5.371   7.705  13.678  0.9173  0.5377  0.8117
14127SOL    HW254107   5.497   7.665  13.604 -0.1624 -0.9381 -0.2883
14128SOL     OW54108   5.452  11.034   8.503 -0.0307  0.3395 -0.4364
14128SOL    HW154109   5.460  10.947   8.466 -1.3295 -0.5802  1.2818
14128SOL    HW254110   5.523  11.084   8.464  2.2587 -2.1303  0.3016
14129SOL     OW54111   4.155   8.620   6.195 -0.4394  0.4413  0.0970
14129SOL    HW154112   4.125   8.711   6.188 -0.0552  0.4734 -1.9743
14129SOL    HW254113   4.249   8.624   6.176 -0.5833 -0.4495 -0.9132
14130SOL     OW54114   4.514   8.700  10.587  0.3946  0.0791 -0.0435
14130SOL    HW154115   4.550   8.660  10.508 -0.1982 -0.1690 -0.1954
14130SOL    HW254116   4.549   8.649  10.659  1.1633  0.4785 -0.1229
14131SOL     OW54117   9.283   1.740  13.212  0.2919 -0.1892  0.4877
14131SOL    HW154118   9.364   1.712  13.255  0.3029  0.4999  0.9454
14131SOL    HW254119   9.220   1.748  13.284 -0.7421 -2.5432 -0.0791
14132SOL     OW54120  13.354   7.302   9.197 -0.0008 -0.0041  0.0649
14132SOL    HW154121  13.435   7.266   9.235  0.0049 -1.1500 -0.9716
14132SOL    HW254122  13.284   7.251   9.237 -0.1559  0.2934  0.1807
14133SOL     OW54123   9.116   1.712  11.269  0.0675  0.6392  0.2324
14133SOL    HW154124   9.126   1.747  11.180  1.0541  0.0697  0.1018
14133SOL    HW254125   9.126   1.617  11.258 -0.9460  0.4512  0.8072
14134SOL     OW54126   3.981   4.935   0.874  0.1116 -0.0102  0.4190
14134SOL    HW154127   3.921   4.940   0.800 -0.0373  1.6532  0.6310
14134SOL    HW254128   4.007   5.025   0.892  1.2656 -0.5118  1.4955
14135SOL     OW54129   0.619   1.938  13.139 -0.2157 -0.2354 -0.5942
14135SOL    HW154130   0.609   1.935  13.043  0.2776  0.1661 -0.6574
14135SOL    HW254131   0.667   1.857  13.160 -0.3533 -0.3405 -0.6825
14136SOL     OW54132   8.369  11.833   8.658  0.0903 -0.3416 -0.5606
14136SOL    HW154133   8.277  11.856   8.644  0.4672  1.3644 -0.3891
14136SOL    HW254134   8.367  11.779   8.737 -0.6743  0.6317  0.1197
14137SOL     OW54135   3.805  10.476  11.114 -0.4567 -0.1368  0.2199
14137SOL    HW154136   3.760  10.402  11.074 -1.2646  0.0100  0.8446
14137SOL    HW254137   3.741  10.547  11.113  0.1960  0.4636 -0.0646
14138SOL     OW54138  13.548   1.111  11.042  0.3620  0.2336  0.2205
14138SOL    HW154139  13.577   1.201  11.059  1.2324  0.0441 -0.2197
14138SOL    HW254140  13.586   1.090  10.956 -2.0902  0.4020 -1.0042
14139SOL     OW54141   1.823   7.171   0.133 -0.7870  0.3425  0.4374
14139SOL    HW154142   1.738   7.170   0.176 -0.7062  0.2681  0.5956
14139SOL    HW254143   1.873   7.237   0.180  0.3164 -1.7865  2.4181
14140SOL     OW54144   9.198   8.753   6.064  0.0818  0.1158  0.0823
14140SOL    HW154145   9.242   8.786   6.142  2.1105 -1.2739 -0.4002
14140SOL    HW254146   9.137   8.823   6.039  1.7581  2.0150  1.0000
14141SOL     OW54147   5.764   2.994   0.377  0.1923  0.6907  0.2576
14141SOL    HW154148   5.770   2.945   0.295 -0.8823 -1.1800  1.2124
14141SOL    HW254149   5.692   3.056   0.363 -0.2282  0.1274 -0.1159
14142SOL     OW54150   4.204   4.305  11.543 -0.7185 -0.1602  0.5211
14142SOL    HW154151   4.269   4.237  11.524 -0.5958 -0.8948  3.1267
14142SOL    HW254152   4.206   4.362  11.467  1.0193 -1.6724 -0.6610
14143SOL     OW54153   3.106   8.276   8.029  0.6372  0.1192  0.2715
14143SOL    HW154154   3.050   8.270   8.106  0.3118  0.6617  0.0855
14143SOL    HW254155   3.045   8.277   7.955  0.9592 -0.6944 -0.0118
14144SOL     OW54156   4.041   1.444   0.427  0.1345 -0.4563  0.2399
14144SOL    HW154157   3.997   1.523   0.458 -1.8198 -1.4334  0.0857
14144SOL    HW254158   4.010   1.374   0.484  0.6704 -1.3763 -0.5480
14145SOL     OW54159  12.666   0.174   5.539 -0.0314 -0.5294  0.8146
14145SOL    HW154160  12.723   0.175   5.462 -0.3547  0.8494  0.5640
14145SOL    HW254161  12.608   0.099   5.524  0.2142 -0.5597 -0.0559
14146SOL     OW54162   5.614  11.229   8.402 -0.0358 -0.1336  0.0696
14146SOL    HW154163   5.658  11.255   8.484  0.2573  1.2327 -0.4870
14146SOL    HW254164   5.664  11.273   8.334 -1.0189 -0.2558 -0.7470
14147SOL     OW54165   3.183   9.311   1.604 -0.2537 -0.5048 -0.0128
14147SOL    HW154166   3.132   9.382   1.565 -0.2399  0.4337  1.6090
14147SOL    HW254167   3.196   9.337   1.695  1.6156 -1.5543  0.0749
14148SOL     OW54168   6.570   3.897  10.285 -0.2564 -0.0093 -0.2304
14148SOL    HW154169   6.644   3.838  10.300 -0.4545 -0.0958  0.4626
14148SOL    HW254170   6.493   3.841  10.294 -0.4164  0.1363 -0.6738
14149SOL     OW54171   0.434  13.689   5.250 -0.3946  0.0313 -0.0539
14149SOL    HW154172   0.510  13.726   5.295  0.3984 -0.6757 -0.7589
14149SOL    HW254173   0.383  13.765   5.222 -1.1814  0.4782  2.4170
14150SOL     OW54174   4.097   7.814   0.300  0.0645 -0.3491  0.0808
14150SOL    HW154175   4.168   7.829   0.237 -0.9648  0.8165 -0.8439
14150SOL    HW254176   4.020   7.797   0.247 -0.7134  0.0956  1.0239
14151SOL     OW54177  13.060   1.262   7.005 -0.2729 -0.1827 -0.3185
14151SOL    HW154178  12.966   1.252   6.990 -0.4185  0.9383 -0.2787
14151SOL    HW254179  13.086   1.333   6.946  0.5853 -0.5736 -0.4268
14152SOL     OW54180   7.923  13.434   9.435  0.0185 -0.0472  0.5653
14152SOL    HW154181   7.845  13.382   9.417  0.2841  0.0636 -1.0844
14152SOL    HW254182   7.937  13.484   9.355  2.8301 -1.4123  0.0782
14153SOL     OW54183  12.943  13.581   4.318 -0.1988  0.1156  0.0029
14153SOL    HW154184  12.986  13.666   4.335 -0.8471  0.5133 -0.3202
14153SOL    HW254185  12.959  13.530   4.398  0.5991  0.3700  0.0153
14154SOL     OW54186   9.725   6.074   8.337 -0.0817  0.0303 -0.0013
14154SOL    HW154187   9.694   6.095   8.426 -0.5752  1.9524 -0.5832
14154SOL    HW254188   9.661   6.010   8.305 -0.5968  0.2152  0.6084
14155SOL     OW54189   8.598   8.653   3.944 -0.2371  0.2324  0.1799
14155SOL    HW154190   8.630   8.743   3.954 -1.2753  0.5243  1.0226
14155SOL    HW254191   8.511   8.662   3.906 -0.6750 -0.3567  0.9953
14156SOL     OW54192   7.938  11.681   9.921 -0.2201 -0.3867 -0.0598
14156SOL    HW154193   7.919  11.641  10.006  0.5810  0.3785  0.5035
14156SOL    HW254194   8.017  11.637   9.891  0.8851  0.9661  0.7399
14157SOL     OW54195   6.319  10.986  12.194  0.1557  0.1489  0.0869
14157SOL    HW154196   6.337  11.045  12.267 -0.2688  1.2940 -0.7184
14157SOL    HW254197   6.232  11.010  12.164  0.4344 -0.1067 -0.9788
14158SOL     OW54198  10.340  10.840   4.030 -0.5906 -0.4780  0.1450
14158SOL    HW154199  10.299  10.867   4.112  0.0759  1.7696 -0.1929
14158SOL    HW254200  10.279  10.866   3.962 -0.4213 -0.8571 -0.1584
14159SOL     OW54201   8.122   0.474   0.517 -0.4258  0.1660 -0.6487
14159SOL    HW154202   8.212   0.493   0.491 -0.5905  1.4719 -0.3646
14159SOL    HW254203   8.111   0.380   0.501  0.5912  0.2256 -1.8571
14160SOL     OW54204   2.936   0.577   2.350 -0.2880 -0.1922 -0.1132
14160SOL    HW154205   2.931   0.486   2.320 -0.2641 -0.1645 -0.2040
14160SOL    HW254206   2.942   0.628   2.269  0.2166 -0.1436 -0.0509
14161SOL     OW54207   4.620   0.155  11.239  0.5148  0.0496 -0.3156
14161SOL    HW154208   4.547   0.209  11.269 -0.6447 -1.4165 -0.4274
14161SOL    HW254209   4.610   0.072  11.285  2.0431 -0.2351 -0.4365
14162SOL     OW54210   2.759   1.095   8.449  0.2718 -0.2671 -0.1535
14162SOL    HW154211   2.769   1.033   8.521 -1.1210 -0.1049  0.2126
14162SOL    HW254212   2.803   1.053   8.375  0.3117 -1.1859  0.3735
14163SOL     OW54213   5.054   7.882  13.382 -0.2229  0.4335  0.3272
14163SOL    HW154214   4.970   7.885  13.426 -2.1170 -0.6983 -2.8622
14163SOL    HW254215   5.034   7.904  13.291  3.1930  1.4656 -0.3291
14164SOL     OW54216   0.690   3.987  11.538 -0.4677  0.5255 -0.5783
14164SOL    HW154217   0.704   4.050  11.609 -0.9227 -0.3687  0.3275
14164SOL    HW254218   0.774   3.942  11.530 -0.2432  1.0047 -1.0048
14165SOL     OW54219  11.731   6.806  11.902 -0.0915 -0.2378 -0.1129
14165SOL    HW154220  11.671   6.782  11.832  0.2209 -0.6518 -0.2481
14165SOL    HW254221  11.760   6.894  11.881 -0.9235  0.1034  0.1480
14166SOL     OW54222  11.008   2.633   6.175 -0.1134 -0.3954 -0.2016
14166SOL    HW154223  11.006   2.588   6.260  2.0256 -0.8193 -0.3039
14166SOL    HW254224  10.971   2.570   6.114  0.3599 -0.9831  0.0968
14167SOL     OW54225   6.104   3.528  13.007  0.4016  0.1933 -0.0247
14167SOL    HW154226   6.076   3.553  12.919  0.2169 -2.4178 -0.7967
14167SOL    HW254227   6.031   3.555  13.064 -0.0119  0.8447 -0.8466
14168SOL     OW54228   1.873   6.833  12.402 -0.0536 -0.8472 -0.0193
14168SOL    HW154229   1.950   6.822  12.458  0.4214  1.1970 -0.2017
14168SOL    HW254230   1.817   6.894  12.449  0.5887  1.3492 -1.8763
14169SOL     OW54231   2.291   9.412  10.132 -0.5316 -0.6824  0.4459
14169SOL    HW154232   2.321   9.337  10.081  1.9079 -0.1241  0.9489
14169SOL    HW254233   2.350   9.414  10.208  0.1979  2.3671 -0.1091
14170SOL     OW54234   1.437   8.145   2.695 -0.2005 -0.1994  0.1030
14170SOL    HW154235   1.411   8.076   2.633 -2.5688 -2.0823  2.8812
14170SOL    HW254236   1.395   8.224   2.661 -0.5216 -0.9144 -1.2587
14171SOL     OW54237  13.698   6.458  11.316  0.2148  0.1319 -0.1633
14171SOL    HW154238  13.672   6.548  11.294 -1.5509 -0.5321 -1.0046
14171SOL    HW254239  13.762   6.468  11.386 -3.2792  1.9705  3.1581
14172SOL     OW54240   8.480   7.752   1.452 -0.2898 -0.3653 -0.6875
14172SOL    HW154241   8.575   7.756   1.461 -0.2718 -2.8382  1.7851
14172SOL    HW254242   8.461   7.793   1.368  2.9293  0.3358 -1.1749
14173SOL     OW54243  11.596  12.151   4.316  0.3851  0.0134 -0.4086
14173SOL    HW154244  11.644  12.155   4.234 -0.4088  0.1664 -0.8756
14173SOL    HW254245  11.662  12.126   4.381  1.4344  1.7546 -0.7327
14174SOL     OW54246  10.917   0.813  10.755 -0.0569 -0.0760 -0.3306
14174SOL    HW154247  10.965   0.833  10.675 -0.2576  1.5100 -0.0904
14174SOL    HW254248  10.964   0.862  10.823  0.4510 -1.8342  0.6561
14175SOL     OW54249   0.044   8.795  10.880 -0.1511 -0.3458  0.1483
14175SOL    HW154250  -0.049   8.814  10.893 -0.2110  0.7742 -1.4910
14175SOL    HW254251   0.090   8.862  10.931 -0.3085  0.6457 -0.9579
14176SOL     OW54252  12.362   5.570   5.068  0.6387 -0.1328  0.7057
14176SOL    HW154253  12.332   5.516   4.995  0.6068 -0.5779  1.0414
14176SOL    HW254254  12.282   5.594   5.114  0.6499  0.2401  0.5301
14177SOL     OW54255  10.051   1.793  10.575 -0.5921  0.2401 -0.2931
14177SOL    HW154256  10.089   1.767  10.491  1.1086 -0.4075  0.6341
14177SOL    HW254257  10.062   1.888  10.577  0.3835  0.1376 -0.3409
14178SOL     OW54258   9.902  12.832   4.645  1.0992 -0.2597  0.6953
14178SOL    HW154259   9.929  12.892   4.715  0.4899  0.1423  0.5946
14178SOL    HW254260   9.915  12.881   4.564 -1.1078  0.4507  0.7096
14179SOL     OW54261   4.298  10.800   4.266  0.3879 -0.1249  0.2505
14179SOL    HW154262   4.346  10.866   4.316  0.7804 -0.9984  1.0469
14179SOL    HW254263   4.230  10.850   4.220 -1.3698  0.5131  3.2966
14180SOL     OW54264   5.052   9.195   8.361  0.1702  0.4955 -0.2746
14180SOL    HW154265   5.146   9.211   8.357  0.7181 -0.6445  3.4349
14180SOL    HW254266   5.014   9.279   8.386  0.7456  0.2173  1.7144
14181SOL     OW54267  11.410   9.344  12.378  0.1136  0.6115  0.3466
14181SOL    HW154268  11.425   9.375  12.288 -1.6693 -1.0529 -0.6002
14181SOL    HW254269  11.489   9.294  12.399  0.0705  0.0351 -0.7684
14182SOL     OW54270   0.040   9.507  12.340  0.3157 -0.0352  0.9722
14182SOL    HW154271   0.058   9.563  12.415 -1.0306  0.2772  1.0921
14182SOL    HW254272  -0.024   9.556  12.288  0.8385 -0.4702 -0.1120
14183SOL     OW54273   0.726  12.070   5.641 -0.5429  0.6534 -0.0489
14183SOL    HW154274   0.791  12.067   5.571 -0.0669 -0.6999  0.4316
14183SOL    HW254275   0.644  12.043   5.600  0.0928 -1.9838  0.2554
14184SOL     OW54276   0.363   6.627  13.380  0.1025  0.0729 -0.8782
14184SOL    HW154277   0.439   6.655  13.432 -0.2075 -0.5912 -0.0548
14184SOL    HW254278   0.400   6.607  13.294  0.8452 -0.1115 -0.5289
14185SOL     OW54279   9.149   5.011  10.041 -0.3361  0.4445  0.2473
14185SOL    HW154280   9.216   5.076  10.061 -1.4918  1.5906  0.4847
14185SOL    HW254281   9.168   4.984   9.950  1.5645 -0.6807  0.9104
14186SOL     OW54282   3.696  11.322   2.841  0.2187  0.4683  0.0234
14186SOL    HW154283   3.683  11.336   2.934  1.4725  2.0068  0.0050
14186SOL    HW254284   3.790  11.331   2.828 -0.0122  1.0410 -1.4978
14187SOL     OW54285  10.155  11.978   9.854 -0.4797 -0.3762  0.3667
14187SOL    HW154286  10.170  11.904   9.913 -1.6068 -0.2700  0.8192
14187SOL    HW254287  10.219  12.043   9.881  0.2853 -1.0394  0.2019
14188SOL     OW54288  11.534  11.702   3.242 -0.1703 -0.2792 -0.3969
14188SOL    HW154289  11.532  11.697   3.147 -0.4099  1.8527 -0.5384
14188SOL    HW254290  11.627  11.699   3.264 -0.1335 -1.2483 -0.6432
14189SOL     OW54291   7.014   9.049  12.370  0.0573 -0.1652  0.0286
14189SOL    HW154292   7.103   9.079  12.354 -0.2648  0.6423 -0.3123
14189SOL    HW254293   6.962   9.089  12.300 -0.6290 -0.3505  0.4193
14190SOL     OW54294  13.115   9.119   9.148  0.5768  0.0668  0.2153
14190SOL    HW154295  13.192   9.125   9.091 -0.3648 -0.3071 -1.1430
14190SOL    HW254296  13.120   9.032   9.186  1.3805  0.4311  0.9978
14191SOL     OW54297   3.642   3.350   7.845 -0.1901  0.5105 -0.2085
14191SOL    HW154298   3.664   3.385   7.932  1.2964  0.1117 -0.3998
14191SOL    HW254299   3.725   3.320   7.809 -1.0675 -1.2091 -0.9474
14192SOL     OW54300   1.993   5.286  12.417 -0.4374  0.8357 -0.4183
14192SOL    HW154301   1.930   5.305  12.486  1.4810  3.5645  0.7848
14192SOL    HW254302   1.970   5.345  12.345 -1.3689 -0.7495 -1.4745
14193SOL     OW54303   5.422   2.953   9.220  0.0579  0.0536  0.0905
14193SOL    HW154304   5.357   3.004   9.172  0.6405 -0.3746 -1.1821
14193SOL    HW254305   5.427   2.996   9.306  0.6692  2.2808 -0.9785
14194SOL     OW54306   7.877  13.509   1.719  0.2742  0.5083  0.3554
14194SOL    HW154307   7.892  13.602   1.738  0.4774  0.1979  1.8350
14194SOL    HW254308   7.782  13.498   1.726 -0.0468  1.0483 -2.1610
14195SOL     OW54309   1.738   0.491  10.248 -0.0512 -0.3632 -0.3894
14195SOL    HW154310   1.731   0.586  10.244  0.3113 -0.3607 -1.0737
14195SOL    HW254311   1.831   0.474  10.264 -0.5517 -0.5321  3.4453
14196SOL     OW54312  11.080  13.680   9.429  0.0506 -0.0986 -0.4800
14196SOL    HW154313  11.055  13.674   9.337  1.3633 -0.2805 -0.8524
14196SOL    HW254314  11.161  13.730   9.428  0.8117 -1.2471  0.4265
14197SOL     OW54315   7.854   2.395  13.458  0.2290 -0.3607  0.4527
14197SOL    HW154316   7.842   2.464  13.523 -2.2751  0.9444 -1.2039
14197SOL    HW254317   7.929   2.425  13.406  0.4780  0.0300  1.0255
14198SOL     OW54318   9.022   2.006   8.394  0.1132 -0.0595 -1.0272
14198SOL    HW154319   9.077   1.944   8.442  0.5194  0.0267 -1.3730
14198SOL    HW254320   8.976   2.056   8.462  1.2307  0.5599 -0.6949
14199SOL     OW54321   5.092   8.230   6.180  0.0326  0.1905  0.0440
14199SOL    HW154322   5.032   8.298   6.213 -0.1324 -1.0770  2.6013
14199SOL    HW254323   5.160   8.224   6.247  0.1515 -2.0201 -0.2050
14200SOL     OW54324   8.768   3.207  11.284 -0.2003  0.4279  0.2846
14200SOL    HW154325   8.779   3.128  11.230  0.0117  0.8128 -0.2437
14200SOL    HW254326   8.857   3.231  11.309 -0.2350  0.6932  0.1581
14201SOL     OW54327   0.095   2.719   1.375 -0.0051  0.9020 -0.0980
14201SOL    HW154328   0.040   2.750   1.303  1.2924  0.0382 -1.5180
14201SOL    HW254329   0.046   2.647   1.414 -1.4574  2.4192  0.9828
14202SOL     OW54330   7.807   7.447   6.961  0.2785 -0.8206  0.8605
14202SOL    HW154331   7.799   7.517   7.025 -0.2333 -0.8732  0.8598
14202SOL    HW254332   7.901   7.438   6.946  0.3340  0.0381  0.6627
14203SOL     OW54333   4.158   7.983   5.460 -0.3272 -0.0930 -0.0500
14203SOL    HW154334   4.114   7.988   5.375  0.4779 -2.8164 -0.7098
14203SOL    HW254335   4.172   7.890   5.474  0.6992  0.3777  2.5191
14204SOL     OW54336   7.943  10.227  10.361 -0.1535 -0.4892 -0.6530
14204SOL    HW154337   7.964  10.222  10.454 -1.7444 -1.2131 -0.2938
14204SOL    HW254338   8.023  10.202  10.316  0.4775 -0.6545  0.5356
14205SOL     OW54339   1.819   9.673  10.470 -0.2885  0.8791  0.0780
14205SOL    HW154340   1.820   9.639  10.380 -0.1607  1.8039 -0.2859
14205SOL    HW254341   1.810   9.596  10.525  1.6202  0.0763 -0.6303
14206SOL     OW54342   4.442   1.834   7.429 -0.1768  0.2045 -0.0731
14206SOL    HW154343   4.528   1.815   7.390  0.4556  2.5974 -0.0169
14206SOL    HW254344   4.380   1.810   7.361  0.6656  0.2829 -0.8980
14207SOL     OW54345  12.109  12.416  12.727  0.5303  0.3663  0.0013
14207SOL    HW154346  12.201  12.441  12.731  0.6508 -0.2455  2.1154
14207SOL    HW254347  12.107  12.324  12.753 -0.6602  0.2613 -0.3563
14208SOL     OW54348   7.582   0.605   0.729  0.2727 -0.2260  0.4420
14208SOL    HW154349   7.620   0.618   0.816  1.0212  1.0328 -0.0351
14208SOL    HW254350   7.551   0.515   0.729  3.2150 -1.3689  0.9298
14209SOL     OW54351  10.966   5.424  12.507  0.3204 -0.1344 -0.4542
14209SOL    HW154352  10.945   5.500  12.562  2.2867  0.6482 -0.6887
14209SOL    HW254353  10.882   5.396  12.472 -0.4571  2.3063 -0.7917
14210SOL     OW54354   9.932  10.141   4.525  0.5867 -0.0025 -0.3755
14210SOL    HW154355   9.948  10.200   4.452 -0.3852  0.2036 -0.4359
14210SOL    HW254356   9.959  10.190   4.603 -0.4520  0.6307 -0.3998
14211SOL     OW54357  13.057   5.993   0.972 -0.3993 -0.6273 -0.1394
14211SOL    HW154358  13.119   5.939   0.923  1.1097  1.4667 -0.6293
14211SOL    HW254359  12.971   5.966   0.938  0.2661 -2.7201 -0.3131
14212SOL     OW54360   4.448  12.011   9.057 -0.1887  0.0319  0.0416
14212SOL    HW154361   4.428  11.928   9.014 -0.8412  0.5149 -0.6011
14212SOL    HW254362   4.535  12.034   9.026  0.2255 -0.6690  0.6437
14213SOL     OW54363   8.306  12.327  10.592 -0.2200  0.3084 -0.1476
14213SOL    HW154364   8.225  12.375  10.579 -0.5186  0.1838  1.1916
14213SOL    HW254365   8.305  12.259  10.524 -0.5361  1.1885 -1.0466
14214SOL     OW54366   4.062   7.448   6.296  0.1715  0.5462 -0.7098
14214SOL    HW154367   4.127   7.385   6.265 -0.5990 -0.9580  0.6169
14214SOL    HW254368   4.010   7.469   6.218  0.2369 -0.7203 -1.1169
14215SOL     OW54369   6.683   9.724  11.494 -0.3194 -0.1299  1.0850
14215SOL    HW154370   6.588   9.715  11.495 -0.5493  1.8211  1.4939
14215SOL    HW254371   6.716   9.635  11.480 -2.1709 -0.9499  1.6552
14216SOL     OW54372  10.302  12.564   4.519 -0.3155 -0.3353 -0.4278
14216SOL    HW154373  10.368  12.580   4.586  0.9140  0.0033 -1.6777
14216SOL    HW254374  10.233  12.515   4.564  0.9594 -1.0424  0.8188
14217SOL     OW54375   3.042   8.797  10.764  0.5302 -0.7194 -0.0961
14217SOL    HW154376   3.041   8.844  10.680  0.8846 -1.9893 -0.8495
14217SOL    HW254377   3.134   8.797  10.790  0.2932  0.4820  0.7860
14218SOL     OW54378   3.816  10.457   1.822  0.2737 -0.4406 -0.3406
14218SOL    HW154379   3.830  10.533   1.766  0.2415 -1.1939 -1.4053
14218SOL    HW254380   3.901  10.442   1.863  0.9763 -1.2566 -1.9910
14219SOL     OW54381   2.126  13.597   0.302 -0.5993  0.0474  0.1609
14219SOL    HW154382   2.117  13.511   0.261  1.9184 -0.4175  0.4638
14219SOL    HW254383   2.055  13.649   0.263 -1.3654 -1.7583 -1.0084
14220SOL     OW54384   3.691   2.337  11.394  0.1366  0.1295 -0.4354
14220SOL    HW154385   3.721   2.310  11.307  0.8599 -1.5721  0.2980
14220SOL    HW254386   3.767   2.380  11.433  0.1297  0.0124 -0.2911
14221SOL     OW54387   2.670   1.171   4.820  0.7131 -0.3714  0.1457
14221SOL    HW154388   2.586   1.158   4.865  1.0918 -1.1533  0.6483
14221SOL    HW254389   2.647   1.185   4.729  0.1274 -2.8096 -0.1441
14222SOL     OW54390   7.474   3.283   8.665  0.1664 -0.0138 -0.3026
14222SOL    HW154391   7.392   3.332   8.677 -0.8540 -1.9387  1.3937
14222SOL    HW254392   7.464   3.240   8.581  0.5115  1.5815 -1.2025
14223SOL     OW54393   2.127   3.940   0.102  0.4044  0.0260  0.0400
14223SOL    HW154394   2.134   3.951   0.197  2.5418  1.9196 -0.2377
14223SOL    HW254395   2.205   3.890   0.079 -0.2512 -0.6687 -0.7168
14224SOL     OW54396   1.853   4.359   9.664  0.5152 -0.0092 -0.4878
14224SOL    HW154397   1.825   4.300   9.734  1.0950  0.8813  0.5041
14224SOL    HW254398   1.945   4.337   9.650  0.8645  0.9768  0.2164
14225SOL     OW54399   8.654  11.176  13.428 -0.0978  0.3518 -0.6207
14225SOL    HW154400   8.749  11.178  13.419 -0.1857  1.6008 -1.3924
14225SOL    HW254401   8.627  11.099  13.377  0.5550 -0.6532  0.4808
14226SOL     OW54402   0.381   0.343   9.383  0.2442  0.0963 -0.7581
14226SOL    HW154403   0.293   0.345   9.422  0.4075 -1.2741 -0.2461
14226SOL    HW254404   0.377   0.269   9.322  1.2811 -0.4997 -0.1249
14227SOL     OW54405   1.732   4.775  10.539  0.1962 -0.4660  0.1198
14227SOL    HW154406   1.767   4.845  10.593 -0.6779  2.3841 -2.6997
14227SOL    HW254407   1.640   4.767  10.566  0.1095  0.0146 -0.0157
14228SOL     OW54408   8.384   4.639   5.408  0.1347 -0.3365 -0.2591
14228SOL    HW154409   8.421   4.628   5.321 -0.9800 -0.5560 -0.7213
14228SOL    HW254410   8.383   4.551   5.446  1.9002 -0.0503  0.5375
14229SOL     OW54411   9.420   7.949   5.006 -0.5326 -0.2287  0.2430
14229SOL    HW154412   9.502   7.902   5.021  0.3927  0.3491 -2.4370
14229SOL    HW254413   9.373   7.942   5.089  2.0038 -0.9794  1.7422
14230SOL     OW54414   8.454  10.476  11.941 -0.4659  0.1287  0.6365
14230SOL    HW154415   8.532  10.466  11.887 -1.8946 -0.5802 -1.4219
14230SOL    HW254416   8.404  10.395  11.927 -1.8619  0.8124  1.4032
14231SOL     OW54417   5.546   1.224   6.033  0.0890  0.0187  0.5053
14231SOL    HW154418   5.591   1.174   6.102  0.6637  0.6674  0.6214
14231SOL    HW254419   5.541   1.313   6.069 -0.8093  0.0688  0.2584
14232SOL     OW54420  10.921   8.614   1.356 -0.1545  0.6861 -0.0465
14232SOL    HW154421  10.902   8.689   1.301  2.4602  1.8750  0.5281
14232SOL    HW254422  10.930   8.541   1.294 -0.0023  1.4155 -0.9067
14233SOL     OW54423   1.036   0.025  12.646  0.9338 -0.3081  0.2922
14233SOL    HW154424   1.070   0.049  12.732 -0.2994  0.9863  0.4588
14233SOL    HW254425   0.946   0.059  12.645  1.1477  0.3635 -1.7742
14234SOL     OW54426  12.418   0.728   2.076 -0.1709  0.0052  0.0228
14234SOL    HW154427  12.402   0.663   2.144 -1.2229  1.1298  0.8739
14234SOL    HW254428  12.344   0.720   2.016 -1.1099  1.3954  0.9394
14235SOL     OW54429   7.786   0.574  13.428  0.0468 -0.2181 -1.0043
14235SOL    HW154430   7.748   0.553  13.513 -1.4518 -0.0933 -1.6203
14235SOL    HW254431   7.793   0.670  13.427  0.4427 -0.2410 -0.8831
14236SOL     OW54432   0.092   1.711   0.746 -0.1545 -0.2280  0.0735
14236SOL    HW154433   0.141   1.661   0.680 -0.8986 -1.3525  0.3562
14236SOL    HW254434   0.159   1.741   0.807  0.5556  0.8233 -1.1587
14237SOL     OW54435   8.766   7.260   5.365 -0.1110  0.0333 -0.6981
14237SOL    HW154436   8.739   7.170   5.344 -0.1364 -0.1314  0.0180
14237SOL    HW254437   8.736   7.274   5.454  0.4972  0.5156 -0.5594
14238SOL     OW54438  12.005   5.387  11.196  0.1006  0.1947 -0.1207
14238SOL    HW154439  11.934   5.324  11.189 -0.1914  0.5489 -0.4353
14238SOL    HW254440  12.085   5.335  11.186  0.1852 -0.9154  4.2666
14239SOL     OW54441   1.405   9.883   4.725  0.3835 -0.2096 -0.1436
14239SOL    HW154442   1.464   9.837   4.666  0.7539  0.9486 -0.7070
14239SOL    HW254443   1.424   9.976   4.711 -3.0702  0.3963 -2.0112
14240SOL     OW54444  11.248  13.687   2.967  0.1613  0.3513  0.0334
14240SOL    HW154445  11.326  13.658   2.919 -0.9528 -1.4279 -0.7623
14240SOL    HW254446  11.265  13.780   2.983  3.1143 -0.2576  1.2068
14241SOL     OW54447   2.353   5.213   4.767  0.3593  0.6440  0.1747
14241SOL    HW154448   2.308   5.151   4.709  2.3958  0.6810 -1.5670
14241SOL    HW254449   2.354   5.169   4.852 -0.3245 -0.6603 -0.4559
14242SOL     OW54450   1.049  12.322   5.064 -0.1542  0.0718  0.4118
14242SOL    HW154451   1.099  12.251   5.025  0.4367  0.9978 -0.5706
14242SOL    HW254452   1.056  12.307   5.158  0.1741 -1.0208  0.2220
14243SOL     OW54453   0.914   4.345   4.205  0.6848  0.1396 -0.1171
14243SOL    HW154454   0.824   4.364   4.230  0.3689 -1.3666  0.0043
14243SOL    HW254455   0.938   4.414   4.144 -0.2980  0.9618  0.4045
14244SOL     OW54456   6.520   4.145  10.230  0.0878  0.0816 -0.3402
14244SOL    HW154457   6.538   4.209  10.299  1.0473  1.1816 -1.5536
14244SOL    HW254458   6.541   4.060  10.269 -0.2035  0.5868  0.9742
14245SOL     OW54459  10.204   8.102  12.657 -0.4776 -0.4669  0.2396
14245SOL    HW154460  10.254   8.053  12.592 -1.3751  0.6069 -1.3278
14245SOL    HW254461  10.248   8.187  12.663 -0.4503 -0.5255  0.9896
14246SOL     OW54462   8.918  12.266  11.751 -0.6729 -0.0171 -0.2740
14246SOL    HW154463   9.003  12.293  11.785 -0.4357 -0.5444 -0.4235
14246SOL    HW254464   8.939  12.214  11.673 -1.1469  0.1336 -0.5065
14247SOL     OW54465   9.141   3.413   9.699 -0.2335 -0.3250 -0.4613
14247SOL    HW154466   9.120   3.329   9.657 -0.0157 -0.7296  0.2265
14247SOL    HW254467   9.070   3.471   9.673 -1.6731 -1.3647  0.9131
14248SOL     OW54468   8.856  10.803   1.457 -0.0658  0.0991  0.8853
14248SOL    HW154469   8.792  10.737   1.483 -0.6693 -0.1124 -0.9679
14248SOL    HW254470   8.941  10.761   1.472 -0.3688 -0.1293  2.0803
14249SOL     OW54471   9.535   2.055   8.403  0.5894 -0.1409 -0.3346
14249SOL    HW154472   9.552   2.016   8.489 -1.2571  0.6783  0.4570
14249SOL    HW254473   9.609   2.113   8.388  1.2180 -0.7255  0.4411
14250SOL     OW54474   1.529   3.139   7.550 -0.0818  0.4202 -0.1512
14250SOL    HW154475   1.494   3.098   7.629  0.8020  1.4453  0.7937
14250SOL    HW254476   1.556   3.226   7.577  0.9691  0.5243 -1.4022
14251SOL     OW54477  10.984  11.475  11.381 -0.1400  0.1210 -0.3737
14251SOL    HW154478  10.909  11.531  11.404 -1.1859 -1.0963 -0.6678
14251SOL    HW254479  11.058  11.515  11.425 -1.0063  1.2585  0.1124
14252SOL     OW54480   0.209   7.310   6.179  0.0809  0.6701  0.3232
14252SOL    HW154481   0.133   7.336   6.127  0.6408 -0.1759 -0.9640
14252SOL    HW254482   0.282   7.308   6.117  0.7518 -0.4782  1.0995
14253SOL     OW54483  11.964   7.929  10.695  0.2643  0.6153  0.5844
14253SOL    HW154484  11.994   7.923  10.786 -1.2594  1.2050  1.1551
14253SOL    HW254485  12.006   8.007  10.661  1.2574  0.1021  0.6040
14254SOL     OW54486   7.597   3.119   6.703  0.3970  0.4916 -0.3945
14254SOL    HW154487   7.677   3.170   6.689  2.2609 -2.2626 -0.6688
14254SOL    HW254488   7.595   3.103   6.797  1.0211 -0.6144 -0.5466
14255SOL     OW54489   7.566  12.850   6.720  0.0530  0.3158  0.0442
14255SOL    HW154490   7.657  12.863   6.746  0.1552  0.3974 -0.3325
14255SOL    HW254491   7.527  12.799   6.790  0.6637 -0.6293 -0.2866
14256SOL     OW54492   6.860  12.444   6.322  0.1530 -0.4544 -0.4960
14256SOL    HW154493   6.859  12.427   6.417 -0.1696 -0.2915 -0.4684
14256SOL    HW254494   6.951  12.463   6.302  0.4822 -1.9350 -0.4765
14257SOL     OW54495   7.245   5.628   9.831 -0.2360 -0.2332  0.8938
14257SOL    HW154496   7.250   5.646   9.925 -1.2382  0.3591  0.8446
14257SOL    HW254497   7.302   5.694   9.792 -0.0379 -0.3022  1.0615
14258SOL     OW54498   7.410  13.292   9.441 -0.7370 -0.5988  0.1647
14258SOL    HW154499   7.392  13.346   9.518 -1.2916 -0.7622  0.1540
14258SOL    HW254500   7.432  13.354   9.372 -1.2678 -0.3872  0.1811
14259SOL     OW54501   2.409  11.796   8.820 -0.0058 -1.2460 -0.4129
14259SOL    HW154502   2.395  11.702   8.830 -0.8135 -1.1183 -0.2928
14259SOL    HW254503   2.348  11.836   8.882 -0.5645 -0.6159 -1.3445
14260SOL     OW54504   1.584   9.160   4.418  0.1046  0.4820  0.1548
14260SOL    HW154505   1.673   9.158   4.382 -0.9576  1.6047 -2.8962
14260SOL    HW254506   1.544   9.078   4.388 -0.1042  0.3061  0.9047
14261SOL     OW54507   5.156   9.781   1.477  0.1141 -0.0386 -0.1077
14261SOL    HW154508   5.063   9.778   1.458  0.0744  0.4205 -0.0031
14261SOL    HW254509   5.174   9.702   1.527 -0.6444  0.8759  1.7208
14262SOL     OW54510  11.769   2.298   7.745 -0.0817 -0.3392  0.6079
14262SOL    HW154511  11.693   2.308   7.689  0.8509 -0.0524 -0.6642
14262SOL    HW254512  11.784   2.385   7.782  0.7056  0.0849 -0.6350
14263SOL     OW54513  13.616  11.021   4.818 -0.0585 -0.1220  0.5352
14263SOL    HW154514  13.639  11.062   4.902  1.5097 -1.6029  0.8895
14263SOL    HW254515  13.531  10.981   4.834  0.0661 -0.0962  1.3225
14264SOL     OW54516  10.994   3.156   9.701 -0.1643  0.3957 -0.2919
14264SOL    HW154517  10.956   3.077   9.741 -1.8091  0.5888 -1.3700
14264SOL    HW254518  11.064   3.181   9.760 -0.0838 -1.4473  0.4776
14265SOL     OW54519  11.358   5.920  13.606  0.5131 -0.1679 -0.0440
14265SOL    HW154520  11.373   5.968  13.525  0.2975 -0.3012 -0.1646
14265SOL    HW254521  11.435   5.865  13.616  0.7928  0.2501  0.1305
14266SOL     OW54522   0.812   0.843  12.998 -0.2836  0.0300 -0.0856
14266SOL    HW154523   0.854   0.894  13.068  0.3310  0.4127 -0.7153
14266SOL    HW254524   0.806   0.755  13.033  0.4505  0.1169  0.2867
14267SOL     OW54525   6.763   2.327  10.403  0.8355 -0.1832  0.0362
14267SOL    HW154526   6.681   2.371  10.378  0.2447 -1.1541  0.2278
14267SOL    HW254527   6.742   2.281  10.484  1.9472  0.6049  0.8096
14268SOL     OW54528  11.907   4.476   0.580 -0.3688 -0.1127 -0.4176
14268SOL    HW154529  11.878   4.385   0.587 -0.4327 -0.0501  0.1494
14268SOL    HW254530  11.967   4.476   0.505 -0.4290 -0.6048 -0.4694
14269SOL     OW54531   7.421   0.575  13.495 -0.2184  0.3546  0.0986
14269SOL    HW154532   7.352   0.552  13.557  1.2434 -0.8449  1.4003
14269SOL    HW254533   7.474   0.495  13.488  2.0924  1.7320  0.6467
14270SOL     OW54534  13.653   3.143   3.682 -0.3769  0.8602 -0.0491
14270SOL    HW154535  13.740   3.104   3.670 -0.1295  0.9279  1.3039
14270SOL    HW254536  13.598   3.070   3.712 -0.6384  0.9389 -0.3374
14271SOL     OW54537   6.580  10.011   6.182  0.0224 -0.2605 -0.8420
14271SOL    HW154538   6.644  10.024   6.113  0.1769  0.4422 -0.5693
14271SOL    HW254539   6.631   9.981   6.257  0.2620  1.6235 -0.1922
14272SOL     OW54540   5.028   3.637   6.387  0.4073  0.0265  0.5289
14272SOL    HW154541   4.961   3.684   6.437  0.4243  0.3013  0.2980
14272SOL    HW254542   5.022   3.547   6.418  0.6277  0.2523  1.2453
14273SOL     OW54543   9.010   2.199  11.503  0.4017  0.2888 -0.1519
14273SOL    HW154544   9.099   2.214  11.472 -0.0289  0.6820 -1.2363
14273SOL    HW254545   9.008   2.106  11.525  0.8042  0.0454 -1.0904
14274SOL     OW54546   6.488   1.193   9.598  0.1589  0.1780 -0.0414
14274SOL    HW154547   6.569   1.220   9.640 -1.2278  1.2499  2.1496
14274SOL    HW254548   6.428   1.266   9.613 -1.4945 -0.9899 -0.7103
14275SOL     OW54549   9.526   7.345   1.549 -0.3785  0.2331  0.2407
14275SOL    HW154550   9.482   7.414   1.498 -1.4496 -0.4605  0.1896
14275SOL    HW254551   9.589   7.307   1.488 -0.6333  0.3679 -0.1110
14276SOL     OW54552  12.017   1.331   4.853 -0.1705  0.0116 -0.0132
14276SOL    HW154553  11.984   1.322   4.943 -2.2125  0.4007 -0.6706
14276SOL    HW254554  12.112   1.340   4.863 -0.2153 -1.2174  2.0026
14277SOL     OW54555   0.024   4.337   4.097  0.2437  0.5395  0.2548
14277SOL    HW154556   0.068   4.385   4.168  0.3377 -0.1568  0.6840
14277SOL    HW254557  -0.067   4.364   4.102  0.5278  1.6886 -0.3785
14278SOL     OW54558   7.029   1.924   2.115  0.3273  0.4624 -0.2149
14278SOL    HW154559   7.019   1.830   2.099 -0.4034  0.2509  1.3835
14278SOL    HW254560   7.082   1.930   2.194 -0.2030  1.3825  0.0861
14279SOL     OW54561  13.675  10.993   1.540 -0.1216 -0.1768 -0.0486
14279SOL    HW154562  13.702  10.901   1.544 -0.8193 -0.3791  0.1190
14279SOL    HW254563  13.586  10.990   1.506  0.0219  0.4735 -0.4930
14280SOL     OW54564   5.487   2.900   6.408  0.5165  0.2898 -0.1319
14280SOL    HW154565   5.410   2.889   6.353 -0.6295 -0.9451  1.6070
14280SOL    HW254566   5.511   2.992   6.399 -1.8176  0.9798  0.0640
14281SOL     OW54567   7.286   6.025   0.508  0.0436  0.0035 -0.1396
14281SOL    HW154568   7.228   5.968   0.558 -0.9286  0.9123 -0.1786
14281SOL    HW254569   7.351   6.054   0.572  0.6565 -1.2705 -0.1693
14282SOL     OW54570   1.333  11.418   4.830  0.5814 -0.1811  0.0716
14282SOL    HW154571   1.407  11.415   4.890  1.4509 -2.6392 -1.0302
14282SOL    HW254572   1.259  11.447   4.885  1.7244 -0.4736  1.8447
14283SOL     OW54573   4.806   9.678  12.552  0.4653 -0.2024 -0.5147
14283SOL    HW154574   4.842   9.589  12.560  0.0436 -0.4654 -1.3882
14283SOL    HW254575   4.719   9.665  12.515  0.6398  0.6035 -1.2481
14284SOL     OW54576  10.930   6.189  11.656  0.1092 -0.4904  0.2794
14284SOL    HW154577  11.009   6.160  11.702  0.1532 -0.6020  0.1346
14284SOL    HW254578  10.962   6.249  11.589  0.1314 -0.9667 -0.1447
14285SOL     OW54579   5.157  12.122   6.724 -0.1087 -0.2356 -0.3441
14285SOL    HW154580   5.089  12.190   6.728 -0.6070 -0.7366 -0.0821
14285SOL    HW254581   5.177  12.114   6.630  0.3779  0.6753 -0.3223
14286SOL     OW54582   7.438   6.073   8.661 -0.0898 -0.1542 -0.0938
14286SOL    HW154583   7.383   6.146   8.634  0.3867  0.2584  0.0376
14286SOL    HW254584   7.383   5.995   8.649 -0.7808  0.2739  0.2757
14287SOL     OW54585  12.628   9.734   7.127 -0.1947 -0.7597 -0.4219
14287SOL    HW154586  12.671   9.653   7.097  0.0259 -1.3172  1.3239
14287SOL    HW254587  12.693   9.777   7.183 -1.0046 -0.3457  0.2199
14288SOL     OW54588   1.167  12.691  12.305 -0.2050  0.4222  0.1891
14288SOL    HW154589   1.074  12.707  12.286 -0.8481  0.0010  2.6422
14288SOL    HW254590   1.170  12.676  12.399  1.7979 -3.3414 -0.2602
14289SOL     OW54591  13.265  12.975  11.854  0.1898  0.3333  0.0978
14289SOL    HW154592  13.357  12.968  11.877  0.2283  0.7717  0.0803
14289SOL    HW254593  13.241  13.064  11.879 -0.6515 -0.2918  1.6977
14290SOL     OW54594  13.253   8.876   0.300 -0.2687 -0.0078  0.9454
14290SOL    HW154595  13.286   8.964   0.279  2.8717 -0.9852  1.2651
14290SOL    HW254596  13.277   8.823   0.224 -0.4478 -0.9601  1.5421
14291SOL     OW54597   5.280   7.880   0.156 -0.0695  0.5594  0.1784
14291SOL    HW154598   5.293   7.786   0.171  0.1751  0.6961  0.8468
14291SOL    HW254599   5.287   7.890   0.061 -0.3245 -0.1330  0.0786
14292SOL     OW54600   6.753   6.478   3.933  0.5509  0.7422  0.7630
14292SOL    HW154601   6.700   6.546   3.892 -2.1465 -2.2364 -1.2482
14292SOL    HW254602   6.820   6.457   3.869 -0.3872 -0.3247  0.0904
14293SOL     OW54603   0.182  10.469   3.067 -0.3949  0.3130 -0.0953
14293SOL    HW154604   0.106  10.411   3.066 -1.2373  1.3587  1.0268
14293SOL    HW254605   0.229  10.446   3.147 -0.7230  1.1424  0.3442
14294SOL     OW54606  11.981   6.556   9.437  0.4349  0.1612  0.6177
14294SOL    HW154607  11.943   6.630   9.485 -1.2665 -0.1877 -0.1437
14294SOL    HW254608  12.023   6.596   9.361  1.9766  0.5826  1.6434
14295SOL     OW54609  13.292  11.996   2.446  0.1081  0.4964  0.2838
14295SOL    HW154610  13.306  11.903   2.428  0.8109 -0.1739  3.7051
14295SOL    HW254611  13.365  12.040   2.403  0.6630 -0.7029 -0.0473
14296SOL     OW54612  11.782   4.135   1.004  0.5676 -0.2486  0.1735
14296SOL    HW154613  11.773   4.229   0.990  0.8974 -0.3903 -1.1370
14296SOL    HW254614  11.797   4.126   1.098 -0.4271  0.9234  0.4724
14297SOL     OW54615   7.128   4.798  10.972 -0.3888 -0.1940  0.1911
14297SOL    HW154616   7.176   4.813  11.053  0.5978 -0.9315 -0.2341
14297SOL    HW254617   7.060   4.866  10.971  0.9257  1.1722  0.5993
14298SOL     OW54618  10.300  11.230   5.024 -0.3228  0.3477 -0.0429
14298SOL    HW154619  10.218  11.182   5.012  1.1290 -1.8887 -2.0004
14298SOL    HW254620  10.366  11.162   5.034  1.5319  2.0148 -0.4182
14299SOL     OW54621   9.402   5.336   0.715 -0.3730 -0.0606  0.4103
14299SOL    HW154622   9.409   5.322   0.810 -0.3801  0.7063  0.5306
14299SOL    HW254623   9.488   5.313   0.681 -0.3334 -0.2286  0.6205
14300SOL     OW54624   5.353  12.196   6.941 -0.1194  0.2390 -0.6608
14300SOL    HW154625   5.292  12.187   6.868 -0.6986 -1.1808 -0.0597
14300SOL    HW254626   5.390  12.108   6.952  2.7460  1.2276 -1.5521
14301SOL     OW54627   6.020  11.086   4.677  0.6087  0.4729  0.1607
14301SOL    HW154628   5.934  11.128   4.680  0.1322 -0.4480 -0.1934
14301SOL    HW254629   6.017  11.031   4.598 -0.6028 -4.0008  2.9913
14302SOL     OW54630   7.244   0.454  13.638 -0.0203 -0.0957  0.6379
14302SOL    HW154631   7.301   0.381  13.663  0.2621 -0.2749 -0.4653
14302SOL    HW254632   7.159   0.432  13.675 -0.4056 -1.9143 -1.1443
14303SOL     OW54633   2.121  13.652   0.790  0.2895 -0.2642 -0.0796
14303SOL    HW154634   2.196  13.632   0.734  0.7940 -1.7847  1.0630
14303SOL    HW254635   2.052  13.595   0.759  0.2829 -0.4377  0.2539
14304SOL     OW54636   9.106   5.673   1.515 -0.2487  0.4444  0.1913
14304SOL    HW154637   9.135   5.738   1.450  3.2596  0.6764  1.7648
14304SOL    HW254638   9.064   5.724   1.583 -0.7945  0.5992 -0.2509
14305SOL     OW54639   2.115   5.080   8.698  0.0885  0.1074 -0.2331
14305SOL    HW154640   2.040   5.083   8.756  0.8215  1.4299  0.7172
14305SOL    HW254641   2.183   5.036   8.748 -0.2547 -1.8783 -1.4047
14306SOL     OW54642   4.099  13.586   0.400  0.0388 -0.3057 -0.6240
14306SOL    HW154643   4.111  13.674   0.438 -0.9144  0.2390 -1.5436
14306SOL    HW254644   4.188  13.557   0.380  0.3920  0.3082 -0.0052
14307SOL     OW54645   9.764  13.479  10.278 -0.8881  0.3506 -0.3989
14307SOL    HW154646   9.697  13.472  10.346 -0.8766 -0.2822 -0.4504
14307SOL    HW254647   9.817  13.400  10.287  0.7329  1.4831  0.5511
14308SOL     OW54648   0.793   7.446  11.583 -0.5900  0.0962 -0.2221
14308SOL    HW154649   0.864   7.383  11.598  0.7209  1.7282  0.8466
14308SOL    HW254650   0.771   7.436  11.491 -0.1030 -1.5651 -0.1962
14309SOL     OW54651  10.740  10.368  12.466  0.1131 -0.1990 -0.1227
14309SOL    HW154652  10.784  10.450  12.442 -0.8729 -0.2293 -2.1729
14309SOL    HW254653  10.656  10.371  12.420 -0.6528 -1.6380  1.0854
14310SOL     OW54654   0.988   9.677   4.551  0.2916  0.0629 -0.4860
14310SOL    HW154655   0.948   9.607   4.603  1.9806 -0.8954 -0.4153
14310SOL    HW254656   1.034   9.731   4.615  2.6429 -1.2980 -0.9154
14311SOL     OW54657   2.744  11.180   7.426  0.1872  0.0802  0.0572
14311SOL    HW154658   2.839  11.191   7.419 -0.0590  1.5135 -1.7679
14311SOL    HW254659   2.714  11.257   7.472 -0.2461  0.5871 -1.0352
14312SOL     OW54660  10.071   0.822   4.100  0.5569 -0.1146  0.6063
14312SOL    HW154661  10.066   0.798   4.008  1.1732  2.0889 -0.0789
14312SOL    HW254662   9.988   0.792   4.138  0.9015 -2.3549 -0.2811
14313SOL     OW54663  12.713  13.707   9.934 -0.2487  0.0667  0.2362
14313SOL    HW154664  12.697  13.613   9.924 -2.0574  0.5069 -1.8297
14313SOL    HW254665  12.628  13.742   9.962  0.2747  1.1531  0.4973
14314SOL     OW54666  11.247   8.488  11.500 -1.0122 -0.3915 -0.3294
14314SOL    HW154667  11.324   8.432  11.515  0.7282  2.0980  0.8136
14314SOL    HW254668  11.262   8.526  11.414  0.0433  1.4320  0.6006
14315SOL     OW54669   0.452   7.796   5.960 -0.0257  0.0696  0.6912
14315SOL    HW154670   0.364   7.767   5.986  0.0900  0.3520  1.4231
14315SOL    HW254671   0.504   7.786   6.040  1.0460 -1.7850 -0.1782
14316SOL     OW54672  11.569   2.862   9.688 -0.7339  0.3323  0.1719
14316SOL    HW154673  11.598   2.872   9.778 -1.4835  0.2297  0.4374
14316SOL    HW254674  11.473   2.870   9.693 -0.6773  2.2444 -0.8595
14317SOL     OW54675   6.020   9.279   2.068  0.4361  0.2273 -0.1924
14317SOL    HW154676   6.050   9.190   2.053  0.9678 -0.0307  2.0370
14317SOL    HW254677   6.094   9.334   2.040  0.5548 -0.0907 -0.5078
14318SOL     OW54678   2.831   3.333  11.145  0.1065  0.2774  0.1564
14318SOL    HW154679   2.819   3.427  11.150  0.6588  0.3513  0.2032
14318SOL    HW254680   2.754   3.301  11.098  0.8163  0.9826 -1.5908
14319SOL     OW54681  13.586  10.631   4.607  0.2815 -0.0577  0.2148
14319SOL    HW154682  13.516  10.659   4.666 -0.3745 -1.0598 -0.0715
14319SOL    HW254683  13.549  10.645   4.519  0.9791  0.7351  0.0360
14320SOL     OW54684  12.814   9.960   7.515  0.0177  0.7793 -0.4715
14320SOL    HW154685  12.761  10.040   7.519  0.1812  0.8217  1.1387
14320SOL    HW254686  12.856   9.954   7.600 -0.0508 -1.0724 -0.5350
14321SOL     OW54687  11.564   5.028   3.386 -0.1466 -0.1110 -0.0637
14321SOL    HW154688  11.527   5.075   3.461  1.1990  1.5821 -0.4229
14321SOL    HW254689  11.640   4.982   3.421  1.7716  2.3959 -0.7243
14322SOL     OW54690   0.328   6.410   3.535 -0.1107 -0.1397  0.0956
14322SOL    HW154691   0.298   6.496   3.565 -0.4498  0.7881 -2.6475
14322SOL    HW254692   0.252   6.353   3.543 -0.0220 -0.1027  1.4559
14323SOL     OW54693  12.394   3.292   7.269 -0.4524  0.3326 -0.1710
14323SOL    HW154694  12.355   3.332   7.191  0.8788  0.1299 -0.9621
14323SOL    HW254695  12.338   3.217   7.287 -1.1047  0.7003 -0.5809
14324SOL     OW54696   5.176   1.811   7.333  0.1828 -0.4617  0.5256
14324SOL    HW154697   5.136   1.898   7.337 -1.0184 -0.8955 -0.7832
14324SOL    HW254698   5.114   1.760   7.280  0.9194 -2.0776  1.1698
14325SOL     OW54699   0.865   2.466  11.925  0.5461  0.4959 -0.4319
14325SOL    HW154700   0.927   2.393  11.916  0.4324  0.4522 -0.8752
14325SOL    HW254701   0.831   2.479  11.837  1.1205  1.5866 -0.5063
14326SOL     OW54702  11.229   6.613   8.590  0.2684 -0.0442  0.5090
14326SOL    HW154703  11.237   6.538   8.648 -0.7436 -0.1260  0.5555
14326SOL    HW254704  11.287   6.679   8.628  2.3968 -1.2798 -0.3786
14327SOL     OW54705   1.008   0.212   2.295  0.0546  0.1227  0.0055
14327SOL    HW154706   0.990   0.229   2.203  3.0392  0.9643 -0.5176
14327SOL    HW254707   0.932   0.247   2.341 -0.9432  0.8198 -2.0427
14328SOL     OW54708  12.938   5.030   5.234  0.1846 -0.6094  0.2259
14328SOL    HW154709  12.854   5.034   5.280 -0.8885 -1.8476 -1.4896
14328SOL    HW254710  12.951   5.119   5.201 -1.9251 -0.9851 -1.8604
14329SOL     OW54711   3.986   1.753  11.588 -0.0694  0.1907  0.4185
14329SOL    HW154712   3.967   1.847  11.596 -0.4598  0.0458  1.3531
14329SOL    HW254713   3.974   1.719  11.677 -1.7663 -1.0761 -0.2319
14330SOL     OW54714   4.130  11.383   6.681  0.0766  0.7686  0.4759
14330SOL    HW154715   4.080  11.447   6.630 -0.2965  0.1101 -0.0088
14330SOL    HW254716   4.210  11.429   6.705  1.5274  0.3927 -2.9380
14331SOL     OW54717   6.026   0.267   4.489 -0.2137  0.4797  0.0645
14331SOL    HW154718   6.050   0.292   4.578  0.4783 -0.5807  0.1981
14331SOL    HW254719   5.959   0.200   4.501 -0.9426  1.1367 -0.2517
14332SOL     OW54720  11.882  13.592   9.176 -0.3121 -0.5053 -0.1136
14332SOL    HW154721  11.818  13.652   9.215 -0.9140 -0.8610 -0.5377
14332SOL    HW254722  11.932  13.558   9.250 -1.9334 -1.7594  0.4655
14333SOL     OW54723   6.273   2.450   5.280  0.7064  0.0171 -0.4303
14333SOL    HW154724   6.318   2.523   5.322 -1.5225  0.9361  0.5246
14333SOL    HW254725   6.301   2.373   5.329 -0.3628  0.8332  1.5729
14334SOL     OW54726   2.432  12.607   7.113 -0.1346  0.0544 -0.0315
14334SOL    HW154727   2.421  12.573   7.202  1.0812 -0.0718  0.0837
14334SOL    HW254728   2.412  12.533   7.057 -1.0810  0.1812  0.1108
14335SOL     OW54729   9.149  12.355  11.833  0.3554  0.2296 -0.1470
14335SOL    HW154730   9.233  12.310  11.831 -0.3994 -1.2564  0.4774
14335SOL    HW254731   9.171  12.446  11.812  1.6527 -0.7178 -3.5330
14336SOL     OW54732   5.999  13.445   1.137 -0.0624  0.1045 -0.7248
14336SOL    HW154733   6.056  13.519   1.118  0.8114  0.0151  1.3501
14336SOL    HW254734   6.056  13.368   1.130 -0.3589 -0.1506 -0.3785
14337SOL     OW54735   9.877  12.495   0.795 -0.4666  0.7635 -0.0761
14337SOL    HW154736   9.891  12.548   0.716 -0.0659  1.2909  0.3412
14337SOL    HW254737   9.932  12.536   0.861  0.9436 -1.0135 -0.0823
14338SOL     OW54738  11.423  11.311   0.828  0.3948  0.4831 -0.0623
14338SOL    HW154739  11.329  11.300   0.811  0.5234 -0.1516 -0.3907
14338SOL    HW254740  11.440  11.403   0.808  0.0442  0.3490 -1.0332
14339SOL     OW54741   8.438   6.788   0.187 -0.0287 -0.2044 -0.0313
14339SOL    HW154742   8.384   6.722   0.231 -0.7316  1.0393  1.0412
14339SOL    HW254743   8.521   6.786   0.235 -0.0424 -0.3220 -0.0113
14340SOL     OW54744   4.204   3.207   7.526 -0.2606  0.0971 -0.1733
14340SOL    HW154745   4.122   3.174   7.491  0.4491 -0.7252 -1.1039
14340SOL    HW254746   4.188   3.217   7.620 -0.5249 -2.9628  0.2058
14341SOL     OW54747  11.908   9.178   8.781  0.0319 -0.1294 -0.5822
14341SOL    HW154748  11.827   9.138   8.749 -0.5311  1.5153 -1.3306
14341SOL    HW254749  11.978   9.134   8.733 -0.4395 -1.2351 -0.2788
14342SOL     OW54750   9.070   8.539   9.960  0.3005  0.5663  0.2296
14342SOL    HW154751   9.108   8.606   9.903  3.2563 -0.7723  0.4421
14342SOL    HW254752   9.075   8.576  10.048 -1.8328  1.5682  0.0124
14343SOL     OW54753   2.169   2.701   2.351  0.4218  0.2115  0.1360
14343SOL    HW154754   2.149   2.782   2.397  1.5962 -0.2663  1.5769
14343SOL    HW254755   2.237   2.659   2.404 -0.4581 -1.9307 -0.3159
14344SOL     OW54756   0.522   4.004   9.407 -0.1866  0.0532 -0.2142
14344SOL    HW154757   0.520   3.957   9.490  0.1025  2.2228  1.0868
14344SOL    HW254758   0.468   4.081   9.421  1.2969  1.3886 -1.4364
14345SOL     OW54759   8.080   2.976   6.099  0.3406  0.1095  0.1730
14345SOL    HW154760   8.060   3.067   6.124  2.0010  1.3307 -2.4781
14345SOL    HW254761   7.995   2.934   6.092 -0.4089  0.8276  3.2590
14346SOL     OW54762   7.717   9.888   9.739  0.0137  0.0208 -0.0586
14346SOL    HW154763   7.687   9.979   9.741 -1.2869 -0.3814  2.1960
14346SOL    HW254764   7.753   9.872   9.826  0.1653 -1.6374 -0.3829
14347SOL     OW54765   2.475   1.785  11.299  0.3404 -0.3981 -0.0046
14347SOL    HW154766   2.568   1.776  11.282  0.5379  0.4235  0.5854
14347SOL    HW254767   2.467   1.783  11.395  0.0692  1.9959  0.0904
14348SOL     OW54768   5.944   3.638   7.573 -0.1479  0.1381 -0.0467
14348SOL    HW154769   5.920   3.599   7.657 -0.7346 -0.0317 -0.2838
14348SOL    HW254770   5.883   3.599   7.510  0.7712 -0.3130 -0.6856
14349SOL     OW54771   3.961   7.367   0.034  0.5056 -0.1887 -0.0094
14349SOL    HW154772   3.876   7.396   0.066  0.8450 -0.1541  0.8870
14349SOL    HW254773   3.986   7.434  -0.030 -0.8127 -1.0065 -1.4570
14350SOL     OW54774  11.213   0.766   5.382  0.2701 -0.1358  0.1755
14350SOL    HW154775  11.231   0.739   5.472  2.2004 -1.7465 -0.6284
14350SOL    HW254776  11.270   0.712   5.329 -2.2489 -0.6537 -2.2218
14351SOL     OW54777   6.262   1.582   9.835  0.0570 -0.3359  0.1901
14351SOL    HW154778   6.175   1.615   9.856 -0.5188  0.2301 -2.5965
14351SOL    HW254779   6.317   1.661   9.828  0.7864 -0.6717  1.7113
14352SOL     OW54780  11.126  10.523   7.872  0.2775  0.3474 -0.0066
14352SOL    HW154781  11.201  10.468   7.895 -0.7387  0.0141  3.0343
14352SOL    HW254782  11.087  10.481   7.796  0.6766 -2.1025  1.0380
14353SOL     OW54783   7.396   0.527   5.056  0.0748  0.1733 -0.0587
14353SOL    HW154784   7.357   0.441   5.045 -0.0443  0.0436  1.2057
14353SOL    HW254785   7.415   0.557   4.967  1.4874 -1.7856 -0.4943
14354SOL     OW54786  12.126  12.293   6.168  0.1099 -0.5191 -0.0971
14354SOL    HW154787  12.074  12.363   6.206  0.8259  0.6506 -1.1786
14354SOL    HW254788  12.131  12.226   6.236  1.5174  1.5664  1.9841
14355SOL     OW54789   9.056   9.957   1.032 -0.0495  0.6648 -0.2821
14355SOL    HW154790   9.062   9.976   0.939 -0.3393  0.2292 -0.3918
14355SOL    HW254791   9.069  10.042   1.075  0.5629  0.7855 -0.7015
14356SOL     OW54792   2.237   5.035   4.565  0.3149  0.5776 -0.0658
14356SOL    HW154793   2.228   4.944   4.592 -0.1048  1.0266  1.3554
14356SOL    HW254794   2.289   5.030   4.484 -1.4040 -1.0608 -1.1708
14357SOL     OW54795   2.420   2.827   7.532 -0.2797  0.0321 -0.7565
14357SOL    HW154796   2.378   2.854   7.613 -0.3546 -0.9992 -0.4352
14357SOL    HW254797   2.429   2.732   7.540  0.8933  0.0656 -1.3910
14358SOL     OW54798   0.064   2.302   3.544 -0.3548  0.0152 -0.0593
14358SOL    HW154799  -0.001   2.373   3.542  0.6156  0.9334 -1.9154
14358SOL    HW254800   0.014   2.225   3.570 -2.0371  0.8378 -0.6536
14359SOL     OW54801   6.684  10.376   1.042  0.4973  0.1061 -0.8194
14359SOL    HW154802   6.655  10.461   1.008  0.7217 -0.2664 -1.9790
14359SOL    HW254803   6.619  10.314   1.008  0.2169 -0.1802  0.1900
14360SOL     OW54804   3.782  11.192   5.593  0.5000 -0.7934  1.0107
14360SOL    HW154805   3.826  11.175   5.509 -0.6293 -0.3646  0.3039
14360SOL    HW254806   3.690  11.172   5.576 -0.3316  2.3767  1.1622
14361SOL     OW54807  12.513   1.208   6.658  0.6859 -0.2185 -0.2357
14361SOL    HW154808  12.512   1.136   6.595  1.5813  0.0167 -0.5271
14361SOL    HW254809  12.425   1.206   6.697  1.0870 -2.2681  0.7004
14362SOL     OW54810   1.090  12.257   9.000 -0.0829  0.3508  0.0815
14362SOL    HW154811   1.022  12.201   9.037  0.1451 -0.2106 -0.3297
14362SOL    HW254812   1.104  12.223   8.912  0.7166  0.4643  0.1554
14363SOL     OW54813   8.594   1.936  11.273  0.6134 -0.0988 -0.3847
14363SOL    HW154814   8.526   2.004  11.269  1.5140  0.8773  0.3670
14363SOL    HW254815   8.657   1.969  11.337  1.6702 -1.1077 -0.8723
14364SOL     OW54816   2.212  11.588  12.696  0.4776 -0.0316 -0.6413
14364SOL    HW154817   2.141  11.642  12.728 -1.3221 -2.8858  0.5817
14364SOL    HW254818   2.259  11.644  12.634 -1.0961  2.8765  0.6091
14365SOL     OW54819   6.795  11.080   3.016 -0.2320 -0.1897 -0.0637
14365SOL    HW154820   6.733  11.108   2.949 -1.5283  1.1546  1.5955
14365SOL    HW254821   6.821  10.992   2.990 -0.4308  0.3875 -2.4610
14366SOL     OW54822   1.188   2.716   3.413  0.5950 -0.0559 -0.0951
14366SOL    HW154823   1.214   2.754   3.329  0.2744 -0.4537 -0.3783
14366SOL    HW254824   1.265   2.666   3.441  1.1032  0.9500  0.3862
14367SOL     OW54825  12.663   7.700   4.806 -0.5254  0.6269 -0.4375
14367SOL    HW154826  12.679   7.748   4.887 -0.2435 -1.9911  1.1748
14367SOL    HW254827  12.739   7.719   4.751  0.2973  0.8344  0.7364
14368SOL     OW54828  11.378   5.193  12.782 -0.1214 -0.3901 -0.3676
14368SOL    HW154829  11.400   5.126  12.847 -3.4545 -1.2496  0.0281
14368SOL    HW254830  11.406   5.155  12.698  0.5875 -1.0190  0.1436
14369SOL     OW54831   8.542   7.925   0.020 -0.0472 -0.0822  0.1057
14369SOL    HW154832   8.456   7.891  -0.007 -0.4212  0.1003  1.0134
14369SOL    HW254833   8.595   7.847   0.035 -0.5845 -0.2694  1.1621
14370SOL     OW54834   4.809   5.742   9.886  0.3181 -0.2557 -0.1335
14370SOL    HW154835   4.891   5.784   9.862 -0.1090 -0.0770 -1.3575
14370SOL    HW254836   4.812   5.735   9.981  1.0282  1.2439 -0.0295
14371SOL     OW54837   8.855  12.064   1.342  0.3360 -0.2659  0.7360
14371SOL    HW154838   8.861  12.156   1.314  1.5938 -0.1925  1.2146
14371SOL    HW254839   8.767  12.037   1.314 -0.0239  1.0549  0.5148
14372SOL     OW54840  11.514  13.126  12.262  0.3491 -0.0611 -0.3204
14372SOL    HW154841  11.507  13.100  12.354  1.4428 -0.3128 -0.2987
14372SOL    HW254842  11.511  13.221  12.263 -2.4282 -0.0682 -0.2877
14373SOL     OW54843  10.744   6.679  10.221  0.0364 -0.3641  0.5282
14373SOL    HW154844  10.653   6.647  10.224 -0.2611  0.5242  2.0750
14373SOL    HW254845  10.762   6.707  10.310  2.4698 -2.1561  0.6848
14374SOL     OW54846   3.308   3.483  12.013 -0.0030 -0.3253  0.3955
14374SOL    HW154847   3.363   3.474  12.090 -0.3634  1.9174  0.9742
14374SOL    HW254848   3.368   3.470  11.939  0.7069 -0.7275  1.0298
14375SOL     OW54849  11.150   9.041   9.756 -0.9566 -0.0721 -0.4702
14375SOL    HW154850  11.129   9.119   9.808  1.2955  0.6339 -0.5270
14375SOL    HW254851  11.237   9.059   9.720 -0.5555 -2.4654 -0.8246
14376SOL     OW54852  13.462   2.746   3.131  0.2050  0.5495  0.1507
14376SOL    HW154853  13.490   2.686   3.062 -1.6418 -0.1370 -0.0448
14376SOL    HW254854  13.536   2.806   3.141  1.0552 -0.1512 -1.4800
14377SOL     OW54855   3.838   5.221   1.177  0.1694 -0.4429 -0.7800
14377SOL    HW154856   3.807   5.159   1.112  0.0722 -0.9175 -0.2839
14377SOL    HW254857   3.931   5.201   1.188  0.6622  0.8943 -2.1714
14378SOL     OW54858   2.212  10.380   7.432 -0.1872 -0.0332  0.2776
14378SOL    HW154859   2.297  10.359   7.394  0.2092  1.3271  0.3716
14378SOL    HW254860   2.190  10.302   7.484  0.8116 -0.5583 -0.0461
14379SOL     OW54861   3.895   8.631  10.731  0.5733 -0.2937 -0.8167
14379SOL    HW154862   3.899   8.670  10.644 -2.4715  1.5502 -0.2935
14379SOL    HW254863   3.802   8.615  10.746  0.8783  0.2893  2.3994
14380SOL     OW54864  10.421  13.586   0.766  0.7405  0.3860  0.2334
14380SOL    HW154865  10.386  13.618   0.848 -2.6738 -0.0371 -0.9046
14380SOL    HW254866  10.410  13.491   0.770  0.0799  0.3892 -0.8298
14381SOL     OW54867   2.279  12.581   8.558 -0.4793 -0.0791 -0.5495
14381SOL    HW154868   2.349  12.625   8.606 -0.5018  0.2087 -0.7758
14381SOL    HW254869   2.286  12.489   8.583 -2.3576  0.4347  2.3722
14382SOL     OW54870  12.809  12.414   0.448 -0.4092 -0.7868 -0.1809
14382SOL    HW154871  12.739  12.357   0.416 -0.7387 -1.3331  1.4467
14382SOL    HW254872  12.841  12.371   0.527  0.9231  0.1075 -0.2045
14383SOL     OW54873   2.148   5.880  13.180  0.0960  0.0424  0.6467
14383SOL    HW154874   2.098   5.960  13.164  0.7628  0.4986  0.7820
14383SOL    HW254875   2.085   5.809  13.170 -0.6497  0.6260  1.1905
14384SOL     OW54876  11.116   8.299   2.610 -0.5961  0.1021 -0.0728
14384SOL    HW154877  11.186   8.240   2.580 -0.7845  0.3309 -0.9882
14384SOL    HW254878  11.147   8.386   2.586 -1.1765  0.2094 -0.4486
14385SOL     OW54879   9.277   0.596   4.214  0.0628  0.2610  0.0196
14385SOL    HW154880   9.275   0.688   4.189 -1.4089 -0.3350 -2.4363
14385SOL    HW254881   9.367   0.581   4.244  0.6780  2.2247 -0.6772
14386SOL     OW54882   0.502  10.238   9.007  0.3713 -0.0846  0.0871
14386SOL    HW154883   0.486  10.331   9.021 -0.2113  0.1502 -1.8613
14386SOL    HW254884   0.598  10.231   9.004  0.4112  0.8217 -1.7553
14387SOL     OW54885   7.077   4.572   0.911  0.5075  0.5219 -0.3140
14387SOL    HW154886   7.160   4.592   0.955  0.5621  1.0183 -0.6282
14387SOL    HW254887   7.097   4.497   0.855  0.2889 -0.4859  0.9289
14388SOL     OW54888   0.139   8.805  13.686  0.0840  0.0296 -0.2036
14388SOL    HW154889   0.212   8.862  13.661  0.5416 -0.2357  0.5069
14388SOL    HW254890   0.147   8.795  13.780  0.2540 -1.5313 -0.3586
14389SOL     OW54891  11.624   8.952  11.590 -0.0985  0.4618  0.0778
14389SOL    HW154892  11.579   8.910  11.516  0.8836 -0.1187 -0.2058
14389SOL    HW254893  11.553   8.980  11.648 -0.8264 -1.8992  0.4408
14390SOL     OW54894   0.687   8.476   3.474 -0.0709 -0.5681  0.1109
14390SOL    HW154895   0.766   8.425   3.492  0.4556  0.8359  1.9668
14390SOL    HW254896   0.629   8.457   3.547 -0.1071  1.0039  0.5111
14391SOL     OW54897   1.696   8.519   2.858 -0.3973  0.3133  0.6430
14391SOL    HW154898   1.782   8.560   2.864 -0.0698 -0.4766  1.6143
14391SOL    HW254899   1.667   8.512   2.949 -1.5785  0.7446  0.3116
14392SOL     OW54900   0.156  11.338   4.226  0.2495  0.6330  0.3820
14392SOL    HW154901   0.147  11.416   4.171  0.5264  0.7288  0.4689
14392SOL    HW254902   0.089  11.348   4.293  0.3940  0.8841  0.4930
14393SOL     OW54903   2.681   4.250  11.350  0.0247  0.0575 -0.3720
14393SOL    HW154904   2.659   4.254  11.256  1.6402  1.0067 -0.7407
14393SOL    HW254905   2.767   4.209  11.352 -0.9505 -2.0879  0.9128
14394SOL     OW54906   1.466  13.738   9.971  0.0702 -0.7336 -0.3573
14394SOL    HW154907   1.404  13.693   9.914  0.6366 -0.4859 -1.1943
14394SOL    HW254908   1.545  13.747   9.917  0.0533  1.0498 -0.1612
14395SOL     OW54909   0.938   8.166   1.628 -0.2317 -0.0108  0.0428
14395SOL    HW154910   0.902   8.192   1.543  0.2676  1.1052  0.1477
14395SOL    HW254911   1.025   8.131   1.608  0.4675  1.5478  0.1864
14396SOL     OW54912  13.079  13.252   1.418  0.6813 -0.2485 -0.0015
14396SOL    HW154913  13.067  13.224   1.327  0.8612  0.2857 -0.1900
14396SOL    HW254914  13.167  13.222   1.441  0.1127 -1.6674  0.4744
14397SOL     OW54915  11.580   4.447   7.538  0.0931 -0.4214  0.2409
14397SOL    HW154916  11.676   4.455   7.537  0.1602 -0.7284 -2.3938
14397SOL    HW254917  11.563   4.368   7.488 -1.5992  0.7845 -1.1790
14398SOL     OW54918   3.535   1.788   9.950 -0.3728  0.0265  0.3431
14398SOL    HW154919   3.572   1.872   9.924 -0.2722  0.0885  0.6815
14398SOL    HW254920   3.610   1.738   9.983 -0.3256 -0.4158 -0.4028
14399SOL     OW54921   7.098  11.534   5.244  0.2840 -0.0422 -0.3492
14399SOL    HW154922   7.090  11.510   5.336 -0.1835  0.6876 -0.1919
14399SOL    HW254923   7.014  11.510   5.205  0.3821 -0.0987 -0.5285
14400SOL     OW54924   6.443   5.552   6.103  0.1665  0.2383  0.7064
14400SOL    HW154925   6.492   5.520   6.028 -1.8496 -0.2964 -0.4406
14400SOL    HW254926   6.439   5.477   6.163  1.3410  0.5177  1.1765
14401SOL     OW54927  12.111  11.276   2.442  0.7111 -0.0924 -0.3829
14401SOL    HW154928  12.020  11.249   2.430  0.2099  1.1623  0.2989
14401SOL    HW254929  12.132  11.252   2.533  0.4215  1.2350  0.0672
14402SOL     OW54930   5.963  12.720  12.670  0.3915 -0.1475  0.3003
14402SOL    HW154931   6.006  12.734  12.755  0.2083  1.4960  0.1687
14402SOL    HW254932   5.996  12.636  12.639  1.9615  0.1269  1.1307
14403SOL     OW54933  11.410   8.746   5.077 -0.5499  0.2356  0.2470
14403SOL    HW154934  11.489   8.800   5.089  0.3910 -0.7008 -1.3689
14403SOL    HW254935  11.416   8.679   5.146 -0.4647  0.7519  0.7500
14404SOL     OW54936  10.576   5.484   8.639 -0.7854 -0.3860  1.0604
14404SOL    HW154937  10.578   5.573   8.675  1.2396  0.0427  0.0163
14404SOL    HW254938  10.550   5.429   8.712 -2.2990  1.0628  1.6856
14405SOL     OW54939   8.926   1.222   5.005  0.3413 -0.2956 -0.4412
14405SOL    HW154940   8.963   1.204   5.091  1.4525  0.4463 -0.7335
14405SOL    HW254941   8.835   1.244   5.021  0.4020 -0.6851  0.4781
14406SOL     OW54942   1.668  12.366   1.489  0.4451 -0.1220  0.2858
14406SOL    HW154943   1.681  12.291   1.547  0.6693  0.6524  1.2592
14406SOL    HW254944   1.710  12.340   1.407  1.0659 -0.8128  0.8105
14407SOL     OW54945   0.283  10.025  12.250 -0.0259  0.1328 -0.2897
14407SOL    HW154946   0.202  10.010  12.299  0.4920 -1.3597  0.1737
14407SOL    HW254947   0.264  10.100  12.194 -0.8575  1.4940  1.7052
14408SOL     OW54948  11.312  13.674   5.370 -0.1628 -0.0647  0.7317
14408SOL    HW154949  11.385  13.711   5.320 -1.1036  0.0668 -0.6126
14408SOL    HW254950  11.237  13.729   5.347 -0.4652  0.5721  3.0656
14409SOL     OW54951  13.318  11.261   9.083 -0.4621  0.3838 -0.1034
14409SOL    HW154952  13.281  11.337   9.129 -0.6166 -0.6817  1.6343
14409SOL    HW254953  13.242  11.208   9.060 -0.2398 -0.1766  0.4388
14410SOL     OW54954   8.636   6.426  10.047 -0.1908  0.3365  0.3132
14410SOL    HW154955   8.625   6.425   9.952  0.5875 -2.7531  0.1379
14410SOL    HW254956   8.547   6.421  10.082 -0.4604  1.0242 -0.2614
14411SOL     OW54957   8.842   7.639   9.749  0.0988  0.1127  0.0768
14411SOL    HW154958   8.827   7.664   9.841  0.4077  3.0872 -0.5878
14411SOL    HW254959   8.931   7.605   9.748  0.6257  1.3858  0.6898
14412SOL     OW54960   3.068   0.078  12.257  0.6269  0.0257 -0.1398
14412SOL    HW154961   3.028  -0.003  12.227  0.6404 -0.2893  0.6508
14412SOL    HW254962   3.000   0.145  12.244  0.5750 -0.1352 -0.6893
14413SOL     OW54963   1.915   9.522   2.966 -0.5762  0.5016  0.1390
14413SOL    HW154964   1.856   9.469   3.020  0.7060 -0.2364  0.8633
14413SOL    HW254965   1.956   9.582   3.028 -0.8091  1.2531 -0.4226
14414SOL     OW54966   6.560  10.305   3.884  0.0814 -0.1694  0.4261
14414SOL    HW154967   6.490  10.240   3.875 -0.2587  0.1775  0.5400
14414SOL    HW254968   6.541  10.370   3.816 -1.1968  1.2716  2.0516
14415SOL     OW54969  11.752   0.622   4.199 -0.6596  0.2118 -0.2472
14415SOL    HW154970  11.790   0.672   4.127 -0.3952  0.9225  0.3715
14415SOL    HW254971  11.733   0.536   4.162 -0.3299  0.5012 -1.1018
14416SOL     OW54972  12.464   4.481   8.915  0.4384 -0.4512  0.0023
14416SOL    HW154973  12.475   4.469   8.821 -0.9138  0.2727 -0.2664
14416SOL    HW254974  12.544   4.525   8.943 -0.0329  1.2472 -1.1932
14417SOL     OW54975  10.398   7.330   7.343  0.1737 -0.5448  0.4460
14417SOL    HW154976  10.461   7.281   7.395  1.6835  0.7736 -0.0657
14417SOL    HW254977  10.387   7.412   7.390  3.0598  1.5337 -2.0893
14418SOL     OW54978   5.331   3.875   9.663 -0.3852  0.2030  0.3403
14418SOL    HW154979   5.420   3.905   9.680 -0.0015 -0.5280 -0.2965
14418SOL    HW254980   5.332   3.851   9.570 -0.5437 -2.0821  0.8530
14419SOL     OW54981   6.757  13.549   4.760  0.0959 -0.5822  0.2173
14419SOL    HW154982   6.662  13.550   4.768  0.1199 -0.2406  0.5149
14419SOL    HW254983   6.788  13.600   4.836  0.3349  3.4908 -2.3052
14420SOL     OW54984   7.077  11.388   8.444 -0.1469  0.3445 -0.5439
14420SOL    HW154985   7.066  11.462   8.385 -1.0929  0.1902 -0.5743
14420SOL    HW254986   7.006  11.398   8.508 -0.1664 -0.4257 -0.4348
14421SOL     OW54987  12.328   2.825  10.263 -0.0578 -0.1405 -0.5202
14421SOL    HW154988  12.358   2.871  10.185 -0.9807  0.8153 -0.3321
14421SOL    HW254989  12.233   2.835  10.262 -0.1698 -0.9816  0.1962
14422SOL     OW54990   5.786   0.062  13.412 -0.0934 -0.6919  0.3808
14422SOL    HW154991   5.757   0.152  13.397 -1.7226 -1.3452 -0.6011
14422SOL    HW254992   5.783   0.052  13.508 -0.8458  0.0129  0.4465
14423SOL     OW54993   6.779   8.235   6.557 -0.0812  0.0686 -0.6502
14423SOL    HW154994   6.695   8.259   6.597  0.1627  0.1675 -0.2011
14423SOL    HW254995   6.822   8.180   6.621  0.4505  0.4857 -0.6366
14424SOL     OW54996   9.140   4.804   5.483 -0.7356 -0.1256 -0.0488
14424SOL    HW154997   9.196   4.840   5.552  0.3891 -1.6267 -0.1198
14424SOL    HW254998   9.183   4.831   5.401 -1.2598  0.4303 -0.1454
14425SOL     OW54999   8.819  10.423   7.893  0.3569 -0.3485  0.1302
14425SOL    HW155000   8.788  10.363   7.826 -0.5129  0.9567 -0.6638
14425SOL    HW255001   8.760  10.409   7.968 -0.1366 -0.1664 -0.2213
14426SOL     OW55002   3.599  13.050   6.706  0.0628  0.5432  0.4551
14426SOL    HW155003   3.592  12.956   6.727  2.0216  0.0944 -0.6586
14426SOL    HW255004   3.674  13.080   6.757 -0.6271  1.5769  0.8981
14427SOL     OW55005  10.124   8.904   4.830  0.8431 -0.5136  0.3639
14427SOL    HW155006  10.072   8.945   4.899  2.2843  1.1835  0.4906
14427SOL    HW255007  10.178   8.840   4.876 -0.0214 -1.2267  0.4243
14428SOL     OW55008   8.877  12.867  13.041 -0.1667  0.6747  0.0760
14428SOL    HW155009   8.941  12.880  13.111  0.7751 -0.1935 -0.6179
14428SOL    HW255010   8.918  12.902  12.963 -1.3015  1.8336 -0.0460
14429SOL     OW55011   4.268  12.398   5.172 -0.5937 -0.2038 -0.1241
14429SOL    HW155012   4.297  12.347   5.248 -1.2921 -0.4921 -0.0517
14429SOL    HW255013   4.254  12.333   5.104  0.5428  0.1021 -0.6784
14430SOL     OW55014   0.262   4.037   7.194  0.3194  0.0649  0.2271
14430SOL    HW155015   0.264   4.016   7.100  1.0496  2.2062 -0.2800
14430SOL    HW255016   0.205   3.970   7.232  0.1467 -0.9573 -1.7111
14431SOL     OW55017   3.899  11.319   7.500  0.5019  0.7763 -0.1704
14431SOL    HW155018   3.960  11.384   7.466  0.9337  0.2850 -0.3592
14431SOL    HW255019   3.943  11.284   7.577  1.2230 -0.7111 -1.1979
14432SOL     OW55020   3.443   6.429   7.618 -0.0249  0.5911  0.4183
14432SOL    HW155021   3.439   6.479   7.536 -0.7484  1.7409  1.1248
14432SOL    HW255022   3.352   6.419   7.645  0.0162 -1.8794 -0.0993
14433SOL     OW55023   4.181   8.081   5.110  0.4376 -0.4906  0.1343
14433SOL    HW155024   4.161   7.992   5.140  0.4321 -0.2168  0.9652
14433SOL    HW255025   4.254   8.109   5.165 -0.1012  0.3184  0.4522
14434SOL     OW55026   1.635   8.789   0.233 -0.0909  0.2017  0.1912
14434SOL    HW155027   1.650   8.729   0.160 -3.4989 -1.1316  0.4366
14434SOL    HW255028   1.632   8.876   0.192  1.8401 -0.0398 -0.6039
14435SOL     OW55029   7.141   1.657   6.277 -0.4459 -0.2901  0.1360
14435SOL    HW155030   7.184   1.734   6.315  0.7547  0.6148 -2.7511
14435SOL    HW255031   7.195   1.583   6.306 -0.2409  0.1892  1.0394
14436SOL     OW55032   9.055   7.758   8.440 -0.2162 -0.1175  0.5763
14436SOL    HW155033   8.990   7.691   8.420 -0.0038 -0.1241 -0.1260
14436SOL    HW255034   9.093   7.781   8.355  1.2532 -0.6640  1.0513
14437SOL     OW55035   8.686  10.976  11.309  0.3139  0.3852 -0.1862
14437SOL    HW155036   8.693  10.927  11.391 -0.3468  0.0687 -0.3075
14437SOL    HW255037   8.776  10.990  11.281  0.5269 -0.5765 -0.0289
14438SOL     OW55038  10.951   5.623  12.213  0.5134  0.3941 -0.4714
14438SOL    HW155039  10.929   5.673  12.291  1.4922  1.0844 -0.6151
14438SOL    HW255040  11.022   5.565  12.240 -0.7666 -1.1287 -0.2472
14439SOL     OW55041   4.627  10.415   8.525  0.1666  0.0144 -0.1537
14439SOL    HW155042   4.683  10.338   8.515 -1.1861 -0.8123 -2.0651
14439SOL    HW255043   4.686  10.483   8.558  1.7965 -1.3717 -0.0396
14440SOL     OW55044   3.324  11.135   6.101 -0.0611 -0.0391 -0.2022
14440SOL    HW155045   3.350  11.147   6.192  3.2245 -0.3653 -0.9341
14440SOL    HW255046   3.265  11.060   6.102  0.7203 -0.6806  1.5626
14441SOL     OW55047   7.136   7.610  13.142 -0.3618  0.0011 -0.6936
14441SOL    HW155048   7.143   7.641  13.052 -1.0644  2.3718  0.0036
14441SOL    HW255049   7.223   7.624  13.179 -0.8887  2.0984 -0.1422
14442SOL     OW55050   7.926   8.388  11.412  0.5251  0.1819 -0.1218
14442SOL    HW155051   7.942   8.483  11.416  1.3716  0.0634 -0.4573
14442SOL    HW255052   7.998   8.351  11.464 -0.5385 -0.2147  1.1115
14443SOL     OW55053  11.885   7.229   3.604  0.2555  0.4902 -0.2946
14443SOL    HW155054  11.916   7.236   3.695  0.4639 -0.0701 -0.3196
14443SOL    HW255055  11.944   7.166   3.563 -0.0816  0.4399 -0.7115
14444SOL     OW55056  13.038   6.712   0.178 -0.1498  0.7152  0.0364
14444SOL    HW155057  13.072   6.781   0.236  0.9961  0.6051 -0.4730
14444SOL    HW255058  12.990   6.759   0.110 -0.2710  0.9382  0.2737
14445SOL     OW55059   6.743  12.772   0.204  0.6257  0.1898 -0.1117
14445SOL    HW155060   6.749  12.678   0.184 -2.1134 -0.2631  0.6546
14445SOL    HW255061   6.727  12.775   0.298  3.6125  1.6899  0.4645
14446SOL     OW55062  12.366   0.395   4.761 -0.0608 -0.6254  0.0337
14446SOL    HW155063  12.428   0.465   4.779 -0.9125  0.9406 -2.5819
14446SOL    HW255064  12.290   0.439   4.724 -0.6771 -2.8922 -1.6437
14447SOL     OW55065   3.902   1.389   2.546  0.1612  0.0742 -0.3119
14447SOL    HW155066   3.922   1.299   2.521  1.8243  0.5960 -1.0480
14447SOL    HW255067   3.966   1.409   2.615  0.5133  1.0029 -0.8854
14448SOL     OW55068   9.301  11.534   1.993  0.0056 -0.1206  0.3165
14448SOL    HW155069   9.229  11.550   2.054  0.4182  1.3425  0.4557
14448SOL    HW255070   9.259  11.502   1.914 -0.6578 -0.7047  0.8868
14449SOL     OW55071   5.462  12.681   6.648 -0.3730 -0.1557 -0.0490
14449SOL    HW155072   5.426  12.593   6.641  3.0603 -1.6160 -0.7761
14449SOL    HW255073   5.458  12.716   6.559 -0.4894 -0.0763 -0.0137
14450SOL     OW55074   3.345  13.652   4.278 -0.3631  0.0284 -0.3796
14450SOL    HW155075   3.422  13.701   4.309 -0.1665 -0.4515 -0.1007
14450SOL    HW255076   3.351  13.656   4.183 -0.1822  0.2910 -0.3586
14451SOL     OW55077   7.577   4.145  11.825  0.0954  0.0277 -0.6741
14451SOL    HW155078   7.487   4.154  11.792  0.7854  1.4047 -2.3907
14451SOL    HW255079   7.630   4.135  11.746  1.6303  1.1558  0.1556
14452SOL     OW55080  10.934  12.045  10.200 -0.7088 -0.0784 -0.6421
14452SOL    HW155081  11.003  12.077  10.141 -0.0878 -2.5874 -1.4412
14452SOL    HW255082  10.886  12.123  10.226  1.8639  1.6906 -0.7796
14453SOL     OW55083   7.387   9.207   2.515 -0.1043 -0.3425  0.5394
14453SOL    HW155084   7.443   9.276   2.478 -0.1047 -0.2030  0.7976
14453SOL    HW255085   7.308   9.253   2.543 -0.9945 -0.7544 -1.1754
14454SOL     OW55086   9.853   3.934   5.920  0.0581 -0.1930  0.1872
14454SOL    HW155087   9.770   3.907   5.960 -0.6255  0.8461 -0.4887
14454SOL    HW255088   9.883   4.007   5.974  1.2861 -1.4608  1.2817
14455SOL     OW55089   1.171   9.543  11.083  0.1912 -0.1548 -0.0442
14455SOL    HW155090   1.264   9.543  11.063 -0.1025  1.7113 -1.6463
14455SOL    HW255091   1.128   9.533  10.999 -1.0635  1.0988  0.4121
14456SOL     OW55092  11.248   9.430   4.679 -0.5440 -0.0947  0.5675
14456SOL    HW155093  11.298   9.367   4.628  0.8231 -0.2243  1.9768
14456SOL    HW255094  11.180   9.378   4.721 -1.6309  0.0037 -0.9959
14457SOL     OW55095   3.896  12.033   0.308  0.6407 -0.3138  0.0535
14457SOL    HW155096   3.940  11.954   0.276  1.7183  0.3624 -0.1870
14457SOL    HW255097   3.828  12.050   0.243  0.5212 -0.9268  0.0069
14458SOL     OW55098   2.980   6.975  12.084 -0.1235  0.0220 -0.0868
14458SOL    HW155099   2.913   7.017  12.031  0.4112  0.0062 -0.7921
14458SOL    HW255100   3.063   7.010  12.051  0.2034  0.4552  1.1340
14459SOL     OW55101   6.725   1.869  13.197 -0.7285 -0.0604  0.6343
14459SOL    HW155102   6.749   1.784  13.234  2.0792  0.7940  0.9680
14459SOL    HW255103   6.663   1.906  13.260  0.6237 -0.4765  2.2888
14460SOL     OW55104   6.202   0.723   6.473  0.0458 -0.7604 -0.2284
14460SOL    HW155105   6.288   0.762   6.493  0.5520 -1.7418 -0.4374
14460SOL    HW255106   6.210   0.632   6.502 -1.2417 -0.6290  0.5813
14461SOL     OW55107   5.404   2.994   1.290  0.2202 -0.6025  0.1686
14461SOL    HW155108   5.485   2.950   1.315 -0.0114 -0.1038  1.9623
14461SOL    HW255109   5.343   2.973   1.361 -0.4841  0.9836  0.0634
14462SOL     OW55110   1.134   7.377   6.651 -0.4877 -0.8235  0.6210
14462SOL    HW155111   1.073   7.303   6.659 -1.0224 -0.3356  1.1794
14462SOL    HW255112   1.088   7.450   6.691 -0.1372 -0.0726 -0.3057
14463SOL     OW55113  10.590   1.109   6.683 -0.3044 -0.0550 -0.2863
14463SOL    HW155114  10.500   1.123   6.710  0.2391  2.9420  0.3673
14463SOL    HW255115  10.631   1.064   6.757 -0.8599  0.2261  0.1951
14464SOL     OW55116   5.299  11.359   0.930 -0.2486 -0.5517 -0.3486
14464SOL    HW155117   5.258  11.377   1.015 -0.9463 -3.2719 -0.0297
14464SOL    HW255118   5.228  11.362   0.867  0.1267  0.5778 -0.7566
14465SOL     OW55119   9.364   0.174   4.121  0.1458  1.2041 -0.0217
14465SOL    HW155120   9.457   0.174   4.098 -0.4268  1.5975 -2.6429
14465SOL    HW255121   9.357   0.239   4.190  2.0870 -0.3214  1.7426
14466SOL     OW55122   2.024   5.108  11.740 -0.2471  0.0928  0.1784
14466SOL    HW155123   2.054   5.017  11.732  0.5887  0.4931 -2.1424
14466SOL    HW255124   2.104   5.160  11.731 -0.8683  1.0864  0.2110
14467SOL     OW55125   1.852   0.701   3.831  0.1463 -0.3017  0.0329
14467SOL    HW155126   1.818   0.637   3.768 -0.8972  0.0795  0.1925
14467SOL    HW255127   1.775   0.734   3.875  0.7160  0.7664  0.2566
14468SOL     OW55128  10.072   9.356   2.168  0.5165  0.0960  0.6928
14468SOL    HW155129  10.030   9.301   2.234  1.1165 -0.7620  0.3719
14468SOL    HW255130  10.037   9.324   2.085  0.3659  0.6533  0.5362
14469SOL     OW55131  13.590   9.451   0.522 -0.7246 -0.5380  0.3590
14469SOL    HW155132  13.661   9.456   0.586 -0.3583 -2.2922  0.1431
14469SOL    HW255133  13.567   9.543   0.505  2.2530  0.1987 -0.4164
14470SOL     OW55134  11.331   9.079  11.158  0.0799 -0.4250 -0.3676
14470SOL    HW155135  11.373   9.137  11.095 -1.7782 -0.2376 -1.5013
14470SOL    HW255136  11.371   8.993  11.142  0.5201 -0.1255 -0.9223
14471SOL     OW55137   4.823   4.590   7.853 -1.0994  0.3081  0.1609
14471SOL    HW155138   4.790   4.667   7.898  0.2833  0.5217  0.8723
14471SOL    HW255139   4.764   4.519   7.880 -2.8394  1.2047 -1.0975
14472SOL     OW55140   0.408   6.796   0.220 -0.5401 -0.3782  0.4084
14472SOL    HW155141   0.488   6.804   0.169  0.2723  1.9392  1.8995
14472SOL    HW255142   0.356   6.873   0.197 -0.7209  0.0346  2.0652
14473SOL     OW55143   2.813  12.853  12.249 -0.7814  0.3307  0.4476
14473SOL    HW155144   2.816  12.915  12.176 -1.3108  0.0086  0.1486
14473SOL    HW255145   2.821  12.907  12.327  1.0063  0.5824  0.1291
14474SOL     OW55146   8.249   8.953   6.410 -0.6462 -0.1925  0.2489
14474SOL    HW155147   8.212   8.982   6.493  0.1646  0.1963  0.4814
14474SOL    HW255148   8.343   8.960   6.422 -0.5188 -0.1788 -0.6912
14475SOL     OW55149  10.479   5.120   9.036  0.5137  0.3348 -0.8262
14475SOL    HW155150  10.483   5.195   8.976 -0.5454 -0.0597 -1.4042
14475SOL    HW255151  10.476   5.160   9.123  2.4130  0.9115 -0.9763
14476SOL     OW55152   2.134  11.609   7.099 -0.1899 -0.0406 -0.3436
14476SOL    HW155153   2.191  11.534   7.081  0.1320  0.0534  0.2726
14476SOL    HW255154   2.124  11.610   7.194  0.7994  1.4203 -0.2220
14477SOL     OW55155   7.628   3.800   8.320 -0.1868 -0.0406  0.2770
14477SOL    HW155156   7.611   3.893   8.305 -1.9014 -0.2362  0.7554
14477SOL    HW255157   7.616   3.759   8.234 -0.9866 -0.0036  0.3629
14478SOL     OW55158   6.146  12.512   2.776  0.7457 -0.1368  0.1736
14478SOL    HW155159   6.157  12.420   2.752  1.7961 -0.3437  1.3250
14478SOL    HW255160   6.166  12.561   2.697 -0.1705 -0.8963 -0.5505
14479SOL     OW55161   6.400   2.923   5.002 -0.3290  0.3047  0.5348
14479SOL    HW155162   6.363   2.856   4.945  1.4790  0.8622 -1.4339
14479SOL    HW255163   6.431   2.876   5.078  1.2098 -1.2250 -0.9563
14480SOL     OW55164  13.148   5.388   2.867  0.3820  0.4458 -0.7386
14480SOL    HW155165  13.100   5.309   2.891  1.6391 -0.5622 -1.3916
14480SOL    HW255166  13.239   5.369   2.892  0.5732  2.0062 -0.1750
14481SOL     OW55167   1.657   4.097   2.818 -0.0635  0.2285 -0.3817
14481SOL    HW155168   1.681   4.113   2.727  0.1724  1.1395 -0.1693
14481SOL    HW255169   1.724   4.038   2.851  1.1898  1.7078 -0.1648
14482SOL     OW55170  12.161   3.258   5.211  0.6769 -0.2416 -0.2432
14482SOL    HW155171  12.094   3.211   5.260 -0.5666 -0.7821 -2.3459
14482SOL    HW255172  12.163   3.345   5.251 -1.7629 -0.0016 -0.5104
14483SOL     OW55173   2.356   6.000   4.870  0.4146  0.0088  0.5444
14483SOL    HW155174   2.398   6.080   4.841  1.3178 -0.2898  0.9955
14483SOL    HW255175   2.417   5.930   4.848 -1.1938 -0.8232 -1.6539
14484SOL     OW55176   8.715   4.874  12.934 -0.0666  0.0883  0.3258
14484SOL    HW155177   8.669   4.919  13.004 -0.3197  0.7003 -0.2251
14484SOL    HW255178   8.713   4.782  12.959 -2.0269  0.0260  0.0879
14485SOL     OW55179   9.759   3.561  10.439  0.6812  0.3835  0.3792
14485SOL    HW155180   9.748   3.643  10.391  0.0903 -1.6192 -3.3148
14485SOL    HW255181   9.675   3.547  10.482 -0.4412  0.2425 -1.7027
14486SOL     OW55182  10.132  13.641  13.276  0.2754  0.3397  0.1745
14486SOL    HW155183  10.042  13.675  13.280 -0.1377 -0.7168  0.1334
14486SOL    HW255184  10.180  13.695  13.339 -0.4084  0.8509  0.2792
14487SOL     OW55185  13.611   5.298  10.708 -0.1910 -0.5243  0.3926
14487SOL    HW155186  13.550   5.358  10.665 -0.0727 -0.9047 -0.3285
14487SOL    HW255187  13.578   5.289  10.797 -1.4796 -1.1079 -0.1164
14488SOL     OW55188   3.144   0.867   5.779  0.1107 -0.0719 -0.4282
14488SOL    HW155189   3.090   0.940   5.809 -0.1800  0.2062 -1.5874
14488SOL    HW255190   3.233   0.892   5.804 -0.2858 -0.7279  1.8785
14489SOL     OW55191   6.978  13.627   2.591  0.2674  0.0287 -0.1657
14489SOL    HW155192   7.043  13.641   2.522  0.2438 -0.0261 -0.1992
14489SOL    HW255193   7.025  13.646   2.673  0.4963 -0.5715 -0.1474
14490SOL     OW55194   9.961   2.652   2.364 -0.7634  0.7543 -0.4983
14490SOL    HW155195   9.954   2.737   2.408  1.8351 -0.0813  1.8065
14490SOL    HW255196   9.907   2.593   2.416 -1.2743  0.6147 -1.1595
14491SOL     OW55197   7.684   2.410   7.338 -0.0555 -0.1786 -0.5332
14491SOL    HW155198   7.705   2.362   7.418 -2.6961 -1.0674 -0.2615
14491SOL    HW255199   7.688   2.344   7.269 -1.5646 -0.3646 -0.4880
14492SOL     OW55200   6.794  11.952   7.933  0.6925  0.3700  0.4200
14492SOL    HW155201   6.845  11.872   7.951  0.2512 -0.0162 -0.0232
14492SOL    HW255202   6.705  11.921   7.920  0.3490  1.0380  1.1097
14493SOL     OW55203   0.759   2.413   7.762  0.1208 -0.6070  0.0477
14493SOL    HW155204   0.764   2.365   7.845  0.7891 -1.5543 -0.5195
14493SOL    HW255205   0.736   2.346   7.697  1.7380 -0.3028 -0.8829
14494SOL     OW55206   7.886   5.916   4.621  0.1408  0.3742  0.3708
14494SOL    HW155207   7.975   5.946   4.601  0.0104  0.3192 -0.3425
14494SOL    HW255208   7.830   5.968   4.564 -0.3083  0.5742  0.9929
14495SOL     OW55209   5.770   8.854   5.654 -0.0386 -0.4408  0.2734
14495SOL    HW155210   5.841   8.799   5.623 -1.0422 -1.7138  0.1585
14495SOL    HW255211   5.805   8.943   5.647  2.1677 -1.0938  1.8740
14496SOL     OW55212  12.103   8.525   5.169 -0.0252 -0.0027  0.4112
14496SOL    HW155213  12.193   8.533   5.139 -0.9522  3.0733 -2.0845
14496SOL    HW255214  12.068   8.449   5.123  0.4942  0.6375 -1.1028
14497SOL     OW55215   3.284   1.960   9.440  0.0151 -0.2032  0.2523
14497SOL    HW155216   3.243   1.938   9.356 -0.3776 -0.3153  0.4702
14497SOL    HW255217   3.254   2.049   9.457 -2.4116 -1.2143  1.7371
14498SOL     OW55218   0.601   5.171   1.854  0.6521  0.3513  0.0500
14498SOL    HW155219   0.579   5.093   1.804  1.4438  0.5635 -0.6555
14498SOL    HW255220   0.525   5.186   1.910 -0.7708  0.7569 -1.8847
14499SOL     OW55221   2.114   7.811   0.051 -0.4537 -0.0852 -0.0897
14499SOL    HW155222   2.162   7.890   0.023  1.3049 -0.8242  0.6764
14499SOL    HW255223   2.120   7.812   0.146 -1.7087 -0.3937  0.0029
14500SOL     OW55224   0.636   5.790   3.191  0.0052  0.3325  0.1274
14500SOL    HW155225   0.638   5.878   3.154 -0.2310 -0.1469 -1.0858
14500SOL    HW255226   0.569   5.745   3.140  0.0743 -0.5236  0.7835
14501SOL     OW55227   9.219   9.123   5.060 -0.5182  0.2835  0.5945
14501SOL    HW155228   9.225   9.033   5.092 -2.4992 -0.6763 -1.4206
14501SOL    HW255229   9.175   9.171   5.130 -0.0240 -0.4615  1.4349
14502SOL     OW55230   5.873   6.262  10.868 -0.1662 -0.4699 -0.5894
14502SOL    HW155231   5.861   6.307  10.784  1.0089  0.4206 -0.3023
14502SOL    HW255232   5.786   6.267  10.909 -0.2706  0.8823 -0.8990
14503SOL     OW55233   9.090  10.711   4.765  0.2671  0.6676  0.3246
14503SOL    HW155234   9.131  10.626   4.780 -0.9591 -0.4748 -2.1547
14503SOL    HW255235   9.136  10.748   4.689 -0.3279  1.4059  0.3037
14504SOL     OW55236   8.727   6.242   0.405 -0.5245  0.0587 -0.6871
14504SOL    HW155237   8.728   6.335   0.380  0.5843 -0.3329 -2.2306
14504SOL    HW255238   8.692   6.197   0.328 -0.0765 -0.8984 -0.3395
14505SOL     OW55239   6.291   2.596   4.932  0.1182 -0.2831  0.4612
14505SOL    HW155240   6.262   2.505   4.925 -1.1642 -0.0930  2.3074
14505SOL    HW255241   6.250   2.640   4.858  1.4210 -1.3153 -0.9307
14506SOL     OW55242   6.230   3.476   2.394 -0.0453  0.0028  0.0276
14506SOL    HW155243   6.135   3.484   2.383 -0.0244 -0.3357 -0.4233
14506SOL    HW255244   6.243   3.471   2.488 -0.5819 -1.1714  0.0542
14507SOL     OW55245   2.141   1.750   2.076  0.2815 -0.2293  0.0944
14507SOL    HW155246   2.108   1.659   2.077 -0.5264  0.0363 -0.7838
14507SOL    HW255247   2.100   1.789   1.999 -0.0997  1.1450  0.9537
14508SOL     OW55248   4.980   9.879   4.762 -0.5209 -0.2296  0.0797
14508SOL    HW155249   4.997   9.972   4.776 -2.1473  0.2152 -0.6237
14508SOL    HW255250   5.030   9.858   4.683  0.4168 -0.1437  0.6411
14509SOL     OW55251  13.489   6.053  11.168 -0.0485  0.3774 -0.1668
14509SOL    HW155252  13.449   6.019  11.248  0.4310 -3.6840 -1.4282
14509SOL    HW255253  13.418   6.051  11.104  0.2071  1.1114 -0.4832
14510SOL     OW55254   4.058  13.198   2.562 -0.9669  0.5881  0.0243
14510SOL    HW155255   4.075  13.292   2.565 -0.0159  0.4076  1.8435
14510SOL    HW255256   4.099  13.169   2.481  0.2678  1.4844  0.2944
14511SOL     OW55257   3.111   8.166   6.825  0.1635 -0.3408  0.1659
14511SOL    HW155258   3.099   8.188   6.917 -0.0077 -0.5898  0.2027
14511SOL    HW255259   3.061   8.086   6.812  1.3951 -1.1486  0.2220
14512SOL     OW55260   5.180   7.170   9.319 -0.2521 -0.2134 -0.4296
14512SOL    HW155261   5.249   7.220   9.363  0.3858 -2.1526  0.9062
14512SOL    HW255262   5.221   7.086   9.297 -2.1118 -1.3699  0.2985
14513SOL     OW55263   1.555  13.499   2.016  0.2244  0.0578  0.1063
14513SOL    HW155264   1.510  13.425   1.977 -0.4586  0.4710  0.0858
14513SOL    HW255265   1.497  13.528   2.087  0.2723  0.8382 -0.1647
14514SOL     OW55266   6.869   2.503   0.135 -0.3151  0.0021  0.1696
14514SOL    HW155267   6.820   2.517   0.054  1.7255  0.3468 -1.0926
14514SOL    HW255268   6.923   2.426   0.117  0.1510  0.0622  1.2360
14515SOL     OW55269  10.963   1.100   0.158  0.0199  0.5450  0.0058
14515SOL    HW155270  10.915   1.132   0.234  1.4134  1.0704  0.6858
14515SOL    HW255271  10.917   1.019   0.133  0.6401 -0.7123  2.5775
14516SOL     OW55272   9.789   0.168   4.893 -0.1085  0.5597  0.1108
14516SOL    HW155273   9.822   0.079   4.879  0.3016  0.9267 -1.5084
14516SOL    HW255274   9.793   0.209   4.807 -1.5357  1.7528  0.5660
14517SOL     OW55275   9.761   7.539  11.247  0.1409  0.3103 -0.4951
14517SOL    HW155276   9.813   7.546  11.328 -0.7486  0.7198  0.0636
14517SOL    HW255277   9.778   7.450  11.215 -0.2707 -0.2257  0.7003
14518SOL     OW55278   3.831  11.783   2.383 -0.0537 -0.1247  0.5076
14518SOL    HW155279   3.893  11.764   2.453  0.2515 -2.4053 -0.2653
14518SOL    HW255280   3.747  11.755   2.417 -0.5102  1.8520  1.1161
14519SOL     OW55281   9.800   8.933   1.306  0.2960 -0.1545  0.7101
14519SOL    HW155282   9.820   9.011   1.254  1.0830  1.9872  3.8971
14519SOL    HW255283   9.705   8.923   1.300  0.3533  0.1061 -0.9471
14520SOL     OW55284   4.655   0.657   9.661  0.8924 -0.0251  0.6876
14520SOL    HW155285   4.679   0.616   9.744 -1.7351 -0.3527  1.3806
14520SOL    HW255286   4.730   0.642   9.604  2.0835 -1.2917  2.4741
14521SOL     OW55287   1.229   0.518  11.208 -0.0990  0.1711  0.6256
14521SOL    HW155288   1.227   0.604  11.167 -0.4734  0.3871  1.0776
14521SOL    HW255289   1.313   0.515  11.254 -0.0444  0.2558  0.5322
14522SOL     OW55290   4.099  10.056  10.551  0.5694 -0.3254 -0.3376
14522SOL    HW155291   4.170  10.091  10.497  0.4495 -0.5230 -0.6250
14522SOL    HW255292   4.056   9.991  10.495  1.3942 -1.6403  0.5011
14523SOL     OW55293  12.433   4.527   2.869  0.2669  0.2460 -1.1298
14523SOL    HW155294  12.462   4.442   2.902 -0.9756  0.3819  0.4117
14523SOL    HW255295  12.471   4.532   2.781  3.0456 -0.4723 -0.0678
14524SOL     OW55296  11.734   2.488  12.749  0.0545 -0.7545 -0.1274
14524SOL    HW155297  11.802   2.501  12.815 -0.3745  0.0400  0.1807
14524SOL    HW255298  11.659   2.453  12.798  0.2747 -1.7491 -0.4856
14525SOL     OW55299   5.616   9.100   6.443 -0.0180  0.1098 -0.2957
14525SOL    HW155300   5.654   9.122   6.359 -0.4006  0.7632 -0.3070
14525SOL    HW255301   5.538   9.155   6.449 -0.2284 -0.2424  0.2963
14526SOL     OW55302  12.459  10.252  12.820 -0.1089  0.0071 -0.1286
14526SOL    HW155303  12.523  10.249  12.750 -0.7445  1.7631 -0.8386
14526SOL    HW255304  12.510  10.267  12.900  0.4955 -0.6541 -0.3793
14527SOL     OW55305   6.627   7.333   0.533 -0.2546  0.0137  0.4154
14527SOL    HW155306   6.573   7.413   0.536 -0.8442 -0.3999  1.1208
14527SOL    HW255307   6.566   7.263   0.555  0.7705 -0.3605  2.2326
14528SOL     OW55308  12.743   4.305   5.595 -0.3828 -0.5370  0.3161
14528SOL    HW155309  12.685   4.239   5.557  0.9708 -1.3411 -0.4144
14528SOL    HW255310  12.684   4.377   5.620 -1.6965 -1.3652 -0.2868
14529SOL     OW55311  11.523   5.660   8.467  0.0715  0.0170 -0.4152
14529SOL    HW155312  11.488   5.731   8.521 -0.7780 -0.1563 -0.7343
14529SOL    HW255313  11.544   5.701   8.383  1.1939  0.2398 -0.0529
14530SOL     OW55314  11.690   9.515   4.291 -0.0557  0.2679 -0.5971
14530SOL    HW155315  11.691   9.609   4.270  3.1920  0.2833 -0.8750
14530SOL    HW255316  11.637   9.510   4.370 -0.4491  2.3356 -0.6550
14531SOL     OW55317   6.006   5.047  11.564  0.3352 -0.1661  0.6845
14531SOL    HW155318   5.927   5.000  11.536 -1.0760  1.7515  1.2623
14531SOL    HW255319   6.077   4.999  11.522 -1.0931 -2.0586  0.2455
14532SOL     OW55320  11.339  11.543  10.248 -0.1419 -0.1613 -0.7010
14532SOL    HW155321  11.327  11.565  10.341 -0.3058  0.5976 -0.8901
14532SOL    HW255322  11.290  11.462  10.236  0.2290 -0.4892 -0.0325
14533SOL     OW55323   9.124   7.969   7.965  0.2795  0.0163 -0.4679
14533SOL    HW155324   9.167   7.988   7.881 -0.5233 -0.3661 -0.9729
14533SOL    HW255325   9.072   7.891   7.948 -1.0629  0.7884 -0.0168
14534SOL     OW55326   2.469   3.900  10.137  0.4299  0.8201  0.1641
14534SOL    HW155327   2.562   3.904  10.116  0.1746  0.7092 -1.0634
14534SOL    HW255328   2.466   3.887  10.232  1.7014 -1.1023  0.0065
14535SOL     OW55329  11.506  12.262   7.213  0.1224  0.4215 -0.1013
14535SOL    HW155330  11.543  12.227   7.133  0.4385 -3.1633  1.4294
14535SOL    HW255331  11.478  12.351   7.190  0.2741 -0.3818 -4.0856
14536SOL     OW55332   7.245   5.096   3.201  0.0854  0.3942 -0.3947
14536SOL    HW155333   7.229   5.125   3.290  2.2577 -0.0799  0.2186
14536SOL    HW255334   7.204   5.162   3.146 -2.0754  0.2285  0.9164
14537SOL     OW55335  13.275   6.759  11.868 -0.1926  0.1185 -0.0361
14537SOL    HW155336  13.227   6.678  11.851 -0.9466  0.4765  0.3235
14537SOL    HW255337  13.209   6.819  11.904  0.4170  0.7940 -0.0164
14538SOL     OW55338   9.737  13.012   7.726  0.7456 -0.3209  0.0202
14538SOL    HW155339   9.791  13.075   7.678  0.2641 -0.1156 -0.2699
14538SOL    HW255340   9.700  12.956   7.657  0.6968 -0.5400  0.2255
14539SOL     OW55341  10.198   9.060   9.962 -0.5247 -0.3007  0.1781
14539SOL    HW155342  10.191   9.124  10.034  0.3597  0.4847 -0.4048
14539SOL    HW255343  10.154   8.982   9.995 -1.2819  0.4759  1.0724
14540SOL     OW55344   2.066   3.406   6.105  0.1349  0.3612  0.3680
14540SOL    HW155345   2.148   3.382   6.062 -0.8448 -0.8787 -0.8972
14540SOL    HW255346   2.060   3.501   6.094  1.2250  0.4176  0.1707
14541SOL     OW55347   2.140   5.273   3.868  0.3575  0.2433 -0.1508
14541SOL    HW155348   2.181   5.222   3.938  2.1144  0.8124 -0.7097
14541SOL    HW255349   2.155   5.364   3.894 -0.6816  0.4649 -0.3205
14542SOL     OW55350   7.074   4.345   0.728 -0.3142 -0.2885 -0.0308
14542SOL    HW155351   7.075   4.394   0.646  0.0879 -1.1693 -0.5687
14542SOL    HW255352   6.998   4.287   0.720  0.4080 -1.2256 -0.3152
14543SOL     OW55353   5.991   6.604  11.557  0.2032  0.0812  0.2978
14543SOL    HW155354   6.053   6.677  11.563 -0.1633  0.4737 -0.5204
14543SOL    HW255355   5.906   6.646  11.548  0.1790 -0.3482 -2.5475
14544SOL     OW55356   5.767   5.977   1.354  0.4436 -0.5148 -0.1838
14544SOL    HW155357   5.702   6.006   1.290  0.0519 -1.4258 -0.2094
14544SOL    HW255358   5.815   6.057   1.377 -0.9445  0.2608  0.1448
14545SOL     OW55359   1.649  13.348  11.089 -0.2900  0.0318  0.0538
14545SOL    HW155360   1.725  13.368  11.034 -0.4775 -1.0265 -0.6208
14545SOL    HW255361   1.616  13.433  11.116  0.3816  0.5461 -0.6883
14546SOL     OW55362  11.496   6.100   7.417 -0.3508 -0.8870  0.6070
14546SOL    HW155363  11.497   6.092   7.321  0.6205  0.3954  0.4736
14546SOL    HW255364  11.577   6.058   7.446 -0.4491 -0.9227  0.8332
14547SOL     OW55365   8.860   0.773  10.755 -0.0003 -0.2518 -0.3047
14547SOL    HW155366   8.818   0.729  10.682 -0.1370 -2.3187  0.9606
14547SOL    HW255367   8.787   0.804  10.809  0.1111 -0.0063 -0.2943
14548SOL     OW55368  11.367   2.120   3.530 -0.0922 -0.5807  0.4347
14548SOL    HW155369  11.454   2.098   3.564  0.6571  0.0961 -0.9109
14548SOL    HW255370  11.352   2.210   3.559  0.0167 -0.4227  0.0106
14549SOL     OW55371   4.662   1.719   7.291 -0.0210  0.0428  0.0364
14549SOL    HW155372   4.735   1.781   7.299 -0.9714  1.1581  0.4093
14549SOL    HW255373   4.643   1.718   7.197 -0.4612  0.9163  0.0984
14550SOL     OW55374   9.634   2.868  13.025 -0.0612  0.3791  0.3955
14550SOL    HW155375   9.667   2.781  13.004  0.0687  0.4528  0.2898
14550SOL    HW255376   9.713   2.921  13.038  0.0422  1.5038 -3.5412
14551SOL     OW55377   7.535   6.328   4.215 -0.8937 -0.0553 -0.0233
14551SOL    HW155378   7.532   6.340   4.310 -2.3852  0.8946 -0.1600
14551SOL    HW255379   7.497   6.408   4.180  1.2789  0.3854 -1.5164
14552SOL     OW55380  11.493  12.153   1.257 -0.4192 -0.4696 -0.2923
14552SOL    HW155381  11.487  12.159   1.162  0.1418  0.5252 -0.2742
14552SOL    HW255382  11.568  12.207   1.280  0.8797 -2.5208  0.5315
14553SOL     OW55383   9.613   6.806   2.176 -0.7303 -0.4538 -0.0024
14553SOL    HW155384   9.661   6.724   2.182 -0.8851 -0.8249 -2.6203
14553SOL    HW255385   9.681   6.872   2.160 -0.6048 -0.0046  2.1018
14554SOL     OW55386   6.872   2.308   1.314  0.2654 -0.0698 -0.2049
14554SOL    HW155387   6.919   2.372   1.367  0.5369 -0.8839  0.5588
14554SOL    HW255388   6.804   2.274   1.373  1.1116 -1.6052 -0.0711
14555SOL     OW55389   7.076   5.331   9.641  0.2006  0.7016  0.4252
14555SOL    HW155390   7.122   5.314   9.724  1.5474 -1.2350 -0.6398
14555SOL    HW255391   6.993   5.372   9.668  0.8651  0.7381  2.6663
14556SOL     OW55392   1.868   4.220   8.128  0.3898 -0.2100 -0.3206
14556SOL    HW155393   1.940   4.161   8.108 -0.9577 -2.1419  0.2348
14556SOL    HW255394   1.836   4.191   8.214  0.6481  2.3818  0.7406
14557SOL     OW55395   9.077  10.130   7.731  0.1980  0.0595 -0.2429
14557SOL    HW155396   9.126  10.075   7.670  0.6536  0.5746 -0.3534
14557SOL    HW255397   9.134  10.139   7.807 -1.0698 -1.9979  1.0302
14558SOL     OW55398   5.390   7.492   4.753  0.0253 -0.0819 -0.0649
14558SOL    HW155399   5.472   7.494   4.704 -0.0656 -0.3061 -0.2253
14558SOL    HW255400   5.402   7.423   4.818 -0.7906 -1.5566 -1.4168
14559SOL     OW55401   1.557   6.294   3.313  0.0187  0.0546 -0.3430
14559SOL    HW155402   1.630   6.320   3.256  0.0485  1.0984  0.1605
14559SOL    HW255403   1.561   6.355   3.386 -0.5859 -0.7040  0.3290
14560SOL     OW55404  13.369   0.444   2.077  0.2963  0.5701  0.1816
14560SOL    HW155405  13.406   0.359   2.100 -1.2980 -0.3758 -0.5324
14560SOL    HW255406  13.314   0.468   2.152 -2.1728 -0.8702 -1.0203
14561SOL     OW55407   0.426   3.016   2.626 -0.3193 -0.1329 -0.1621
14561SOL    HW155408   0.490   2.983   2.563 -1.9730 -1.3193 -1.2944
14561SOL    HW255409   0.405   2.941   2.680 -0.6099  0.3075  0.3423
14562SOL     OW55410   8.229  10.805   0.221  0.5903 -0.4193  0.1045
14562SOL    HW155411   8.180  10.792   0.140  1.2312  0.0528 -0.3693
14562SOL    HW255412   8.321  10.808   0.193  0.8431 -0.6662  0.8976
14563SOL     OW55413   9.623   5.989   6.948  0.2519 -0.3351  0.2427
14563SOL    HW155414   9.607   6.081   6.969  1.0210 -0.4980  1.6573
14563SOL    HW255415   9.719   5.982   6.945  0.1914 -1.0064 -0.2540
14564SOL     OW55416  11.411   9.670  13.466  0.1647  0.8872 -0.1092
14564SOL    HW155417  11.452   9.737  13.412 -0.9133  0.7941 -1.0707
14564SOL    HW255418  11.407   9.592  13.410 -1.7080  1.0236 -0.2202
14565SOL     OW55419   6.320  11.274   4.280 -0.3738 -0.3732 -0.0953
14565SOL    HW155420   6.393  11.213   4.269 -0.5415 -1.4063  3.2640
14565SOL    HW255421   6.362  11.357   4.301 -0.1485 -0.5017 -0.0300
14566SOL     OW55422  12.797   2.146   9.633  0.3173 -0.5498 -0.3097
14566SOL    HW155423  12.732   2.188   9.577 -0.2107  0.1129  0.7667
14566SOL    HW255424  12.787   2.189   9.718  0.1891 -2.4243  0.6680
14567SOL     OW55425   0.977   2.411   1.105  0.3005  0.1622 -0.0995
14567SOL    HW155426   0.931   2.489   1.074 -0.3858 -0.5021 -0.7969
14567SOL    HW255427   0.909   2.344   1.114  1.2015 -1.1057 -2.0388
14568SOL     OW55428   7.403   3.950   9.964  0.0017  0.7354  0.2917
14568SOL    HW155429   7.334   4.013   9.985  0.0779  0.7250  0.5744
14568SOL    HW255430   7.452   3.940  10.046  0.0822  0.4240  0.2061
14569SOL     OW55431   2.767   9.680   5.226  0.2408  0.5742 -0.5212
14569SOL    HW155432   2.733   9.770   5.221  1.8845  1.2476 -0.2869
14569SOL    HW255433   2.771   9.651   5.136 -0.1385  0.8001 -0.6145
14570SOL     OW55434  12.061   6.290   6.184 -0.1260  0.8771 -0.5171
14570SOL    HW155435  11.984   6.309   6.130 -0.6146  0.1397 -0.0976
14570SOL    HW255436  12.101   6.375   6.199 -0.0385  1.1122 -1.9501
14571SOL     OW55437   5.839   9.846  10.310 -0.0601  0.4623  0.5220
14571SOL    HW155438   5.756   9.808  10.281 -0.7838  0.8457  1.9926
14571SOL    HW255439   5.847   9.928  10.262 -1.2624  1.1261  1.4376
14572SOL     OW55440   8.647   5.617   2.397 -0.1173 -0.0663  0.0056
14572SOL    HW155441   8.734   5.657   2.399 -1.0134  2.0312 -0.0324
14572SOL    HW255442   8.626   5.602   2.489  1.2081 -2.9058 -0.0581
14573SOL     OW55443   6.868   0.908   8.627 -0.1157  0.1129  0.0651
14573SOL    HW155444   6.876   0.820   8.664  1.6788  0.7014  1.1864
14573SOL    HW255445   6.957   0.932   8.602 -0.5403  1.6963 -0.0337
14574SOL     OW55446   1.595   6.789   0.393 -0.4297 -0.3184  0.0826
14574SOL    HW155447   1.576   6.722   0.458  1.2127 -1.5198 -0.6110
14574SOL    HW255448   1.613   6.868   0.445  0.2779 -1.0992  1.0643
14575SOL     OW55449  10.364   4.757   5.149 -0.0700  0.1433 -0.0469
14575SOL    HW155450  10.322   4.675   5.176 -0.4408  0.2891 -0.1833
14575SOL    HW255451  10.343   4.819   5.218  0.7237 -0.0322  0.3656
14576SOL     OW55452   1.801   4.604  11.412  1.2035 -0.4884 -0.1577
14576SOL    HW155453   1.767   4.595  11.501  0.2357  0.7151 -0.3863
14576SOL    HW255454   1.812   4.698  11.400  0.3022 -0.5525 -1.6725
14577SOL     OW55455   3.248   2.847   7.031 -0.2160  0.4744  0.3604
14577SOL    HW155456   3.327   2.799   7.054  1.5605  2.2514 -1.5130
14577SOL    HW255457   3.246   2.921   7.092 -0.0088  0.8363 -0.0690
14578SOL     OW55458   7.631   9.218   4.546  0.3586  0.5166 -0.0277
14578SOL    HW155459   7.564   9.282   4.524  0.0740  0.4423  0.5892
14578SOL    HW255460   7.629   9.154   4.475 -1.1528 -0.2103  0.6257
14579SOL     OW55461   6.336   6.134   5.511 -0.2839 -0.6438 -0.1919
14579SOL    HW155462   6.354   6.227   5.520  0.5431 -0.7786 -0.3571
14579SOL    HW255463   6.261   6.129   5.452 -0.7082 -0.0646  0.2942
14580SOL     OW55464  11.295  11.590   5.619  0.1447  0.1365  0.0206
14580SOL    HW155465  11.204  11.593   5.590 -0.5402 -1.8710  1.6261
14580SOL    HW255466  11.347  11.606   5.541 -1.5949 -0.8711 -1.4084
14581SOL     OW55467   4.119  13.487   1.300 -0.1303  0.4270  0.2320
14581SOL    HW155468   4.121  13.577   1.331  0.3829 -0.4032  2.9255
14581SOL    HW255469   4.206  13.472   1.262 -0.5257  1.2861 -1.0567
14582SOL     OW55470  10.458   9.327   7.262  0.2810  0.1009 -0.3912
14582SOL    HW155471  10.375   9.341   7.217  0.0298  0.1934  0.0963
14582SOL    HW255472  10.475   9.233   7.251  1.1950  0.4319 -2.3305
14583SOL     OW55473   2.807   9.870  11.243  0.0091 -0.0169  0.3173
14583SOL    HW155474   2.730   9.874  11.299  0.1082 -0.2624  0.4706
14583SOL    HW255475   2.862   9.941  11.273 -0.7751  1.0648 -0.7091
14584SOL     OW55476   7.095   0.532  11.760  0.0483 -0.7773 -0.0428
14584SOL    HW155477   7.017   0.543  11.814  0.4329 -2.1254  0.8201
14584SOL    HW255478   7.164   0.578  11.807 -0.4280  1.6170 -1.4767
14585SOL     OW55479   2.205  13.715   9.510  0.0669 -0.0640  0.3659
14585SOL    HW155480   2.114  13.736   9.489  0.3015  1.2863  0.5567
14585SOL    HW255481   2.248  13.704   9.425  0.0233  0.7398  0.2340
14586SOL     OW55482   1.237  10.732   5.813  0.3024  0.3803 -0.0477
14586SOL    HW155483   1.290  10.808   5.836  0.3277  1.4803 -3.2800
14586SOL    HW255484   1.300  10.660   5.807  1.1361  1.1815 -1.5704
14587SOL     OW55485   8.711   4.937   5.038  0.2069  0.2192  0.3724
14587SOL    HW155486   8.697   5.013   4.982 -0.9571  0.1357  0.5325
14587SOL    HW255487   8.744   4.870   4.978  0.4622  0.6000  0.0792
14588SOL     OW55488   3.948   8.676   4.264  0.3675  0.7760  0.4052
14588SOL    HW155489   3.878   8.703   4.205 -1.5049  1.4265  2.7489
14588SOL    HW255490   3.952   8.581   4.256  1.0061  0.9335 -1.5907
14589SOL     OW55491   8.807  10.422   7.396  0.4214 -0.0084  0.1982
14589SOL    HW155492   8.841  10.353   7.338 -1.6617 -1.3057  0.4058
14589SOL    HW255493   8.850  10.406   7.480  2.1601  0.8173 -0.4843
14590SOL     OW55494   7.166  12.080   6.175 -0.6914 -0.2574 -0.3436
14590SOL    HW155495   7.206  12.030   6.246 -0.8378 -1.5377 -1.1378
14590SOL    HW255496   7.163  12.170   6.208  0.0763 -0.6656  0.9016
14591SOL     OW55497   2.811   7.580   5.068 -0.0136  0.8909  0.2880
14591SOL    HW155498   2.904   7.593   5.088  0.3549  0.5901 -1.0638
14591SOL    HW255499   2.802   7.485   5.058 -0.4109  0.9340  0.2188
14592SOL     OW55500   8.165   0.385   3.005  0.4467  0.3896 -0.4628
14592SOL    HW155501   8.088   0.330   2.987  1.2830 -0.5636 -1.2829
14592SOL    HW255502   8.178   0.433   2.923 -0.5006  2.1542  0.3669
14593SOL     OW55503  13.571   5.584  12.412 -0.2034 -0.5053 -0.3195
14593SOL    HW155504  13.658   5.561  12.381  0.1713  0.9481 -0.4534
14593SOL    HW255505  13.586   5.652  12.477 -1.2312 -0.2112 -0.3699
14594SOL     OW55506   6.067   9.467   9.782 -0.0361  0.1995 -0.1116
14594SOL    HW155507   6.120   9.454   9.860 -3.3288 -0.7829  2.1844
14594SOL    HW255508   6.037   9.558   9.788  0.3977  0.3897 -0.7455
14595SOL     OW55509   9.436  12.357   0.592  0.3722 -0.3978 -0.2979
14595SOL    HW155510   9.508  12.414   0.565 -0.1484 -0.4617 -1.9417
14595SOL    HW255511   9.476  12.270   0.598  0.8053 -0.1504  0.5867
14596SOL     OW55512   7.717   7.753   0.200 -0.0626 -0.1241 -0.0264
14596SOL    HW155513   7.791   7.807   0.173  0.8367 -1.6158 -0.6776
14596SOL    HW255514   7.740   7.665   0.172 -2.4112 -0.5305 -0.8778
14597SOL     OW55515  10.737   4.950  11.382 -0.2950  0.3024 -0.0168
14597SOL    HW155516  10.669   5.006  11.344 -1.3860 -0.3013  0.9788
14597SOL    HW255517  10.790   4.922  11.307 -1.8191 -0.1205 -0.9846
14598SOL     OW55518   8.334   6.395   8.794  0.0451 -0.2963 -0.5308
14598SOL    HW155519   8.369   6.395   8.705  2.3986  2.7379  0.2173
14598SOL    HW255520   8.240   6.382   8.783  0.4916 -1.9107 -3.2656
14599SOL     OW55521   9.605  13.426  10.736 -0.0554 -0.9493  0.8235
14599SOL    HW155522   9.598  13.485  10.812  1.4667  0.4428 -0.0645
14599SOL    HW255523   9.695  13.394  10.739  0.0706 -0.7583 -0.4588
14600SOL     OW55524   1.417   7.926  11.049 -0.2117  0.2504 -0.3489
14600SOL    HW155525   1.339   7.871  11.058 -1.0818  1.7241  1.8335
14600SOL    HW255526   1.392   7.994  10.987  0.0996 -0.4485 -1.2741
14601SOL     OW55527   0.426   1.918  13.380 -0.3568 -0.1179  0.9883
14601SOL    HW155528   0.349   1.938  13.327 -0.5318  0.5879  1.4886
14601SOL    HW255529   0.499   1.956  13.330 -0.4820  0.2637  1.0885
14602SOL     OW55530   7.790   8.784   8.641  0.4151  0.3607 -0.4717
14602SOL    HW155531   7.836   8.845   8.698  1.9733 -1.6472  0.5776
14602SOL    HW255532   7.722   8.746   8.697 -1.2721  1.8346 -1.4272
14603SOL     OW55533   8.133   1.614   5.536 -0.3886 -0.3564  0.0726
14603SOL    HW155534   8.116   1.626   5.630  0.9753 -1.6483  0.5373
14603SOL    HW255535   8.202   1.678   5.516 -1.6908  0.9320 -0.4317
14604SOL     OW55536   2.296  12.938  13.009  0.4580  0.3471 -0.7725
14604SOL    HW155537   2.228  12.996  13.043  0.0703 -0.6887  0.2630
14604SOL    HW255538   2.374  12.959  13.061  0.5763  0.5860 -1.0408
14605SOL     OW55539   1.336   3.353   0.819 -0.0897 -0.7196 -0.1936
14605SOL    HW155540   1.411   3.394   0.862 -0.3511 -0.3351 -0.1036
14605SOL    HW255541   1.309   3.416   0.752  0.6290 -1.5202 -1.2814
14606SOL     OW55542   5.886   6.557   7.146 -0.0004 -0.1365 -0.2284
14606SOL    HW155543   5.955   6.490   7.148 -0.2599 -0.4076 -0.2627
14606SOL    HW255544   5.841   6.541   7.063 -0.5197 -0.3819  0.0957
14607SOL     OW55545   7.513  11.225  12.723  0.2017 -0.6064  0.2224
14607SOL    HW155546   7.571  11.182  12.661 -0.0941 -0.2234 -0.3337
14607SOL    HW255547   7.482  11.303  12.677  0.6067  0.1197  1.1542
14608SOL     OW55548  10.817   5.428   8.469  0.0850  0.1256  0.0317
14608SOL    HW155549  10.757   5.464   8.534  1.0541  0.6851  0.6484
14608SOL    HW255550  10.811   5.333   8.480  0.2273  0.2165  0.9349
14609SOL     OW55551  11.557   0.261  13.039  0.5562 -0.1357 -0.4541
14609SOL    HW155552  11.575   0.204  12.964  0.0803 -1.4274  0.3897
14609SOL    HW255553  11.642   0.270  13.083  0.1238 -2.6694  1.0739
14610SOL     OW55554   8.417   4.484  12.965 -0.0953  0.0953  0.1257
14610SOL    HW155555   8.420   4.389  12.972  1.0483 -0.0661 -1.8734
14610SOL    HW255556   8.328   4.507  12.993  0.0021 -1.3900  1.8516
14611SOL     OW55557   8.308   3.054   9.407  0.2265  0.5660 -0.1092
14611SOL    HW155558   8.257   3.060   9.488 -0.4148  0.4035 -0.4900
14611SOL    HW255559   8.266   2.984   9.357 -0.3583  1.6896 -1.2481
14612SOL     OW55560   7.665   9.794   4.440  0.1369 -0.0778  0.4965
14612SOL    HW155561   7.657   9.795   4.345 -1.1164 -0.3799  0.5912
14612SOL    HW255562   7.683   9.702   4.462  2.1358  0.2515  0.4507
14613SOL     OW55563   4.408   9.735  12.878 -0.2807 -0.6629 -0.3406
14613SOL    HW155564   4.491   9.706  12.839 -0.6515 -2.2468 -0.0187
14613SOL    HW255565   4.341   9.709  12.815 -0.5481  0.8325 -0.7134
14614SOL     OW55566   7.987  12.874   2.388  0.5416 -0.3409 -0.0946
14614SOL    HW155567   8.080  12.893   2.398  1.0149 -2.2913 -0.4018
14614SOL    HW255568   7.973  12.871   2.294  0.4300 -1.0649 -0.0668
14615SOL     OW55569   6.638   1.064  12.439  0.6318 -0.7841 -0.0467
14615SOL    HW155570   6.658   1.013  12.360 -1.0475 -0.5904 -0.6358
14615SOL    HW255571   6.601   1.000  12.500 -0.1245 -0.5451 -0.2481
14616SOL     OW55572   4.143   6.003   8.878  0.0532 -0.0491  0.2844
14616SOL    HW155573   4.194   5.935   8.922 -0.6256  0.3099  1.6887
14616SOL    HW255574   4.135   6.072   8.943 -0.3924  0.8166 -0.6674
14617SOL     OW55575  10.589   5.482   9.086  0.0747  0.1573  0.1460
14617SOL    HW155576  10.549   5.567   9.105 -0.3237  0.3440 -1.3932
14617SOL    HW255577  10.562   5.462   8.996 -0.3574 -1.8948  0.6794
14618SOL     OW55578  12.763   1.046  12.471 -0.2685  0.6243 -0.4206
14618SOL    HW155579  12.679   1.001  12.467 -0.0970  0.1517  0.9497
14618SOL    HW255580  12.761   1.095  12.553  1.1430 -0.1134  0.0914
14619SOL     OW55581   3.545  10.425  13.136  0.1009 -0.3399 -0.0511
14619SOL    HW155582   3.612  10.472  13.186 -0.3261 -0.5097  0.7010
14619SOL    HW255583   3.474  10.412  13.199  1.0457 -3.9288  0.4599
14620SOL     OW55584   7.796   9.567   4.716 -0.0976  0.4289 -0.7184
14620SOL    HW155585   7.713   9.533   4.749 -0.8739  1.7221 -1.3107
14620SOL    HW255586   7.841   9.599   4.794 -0.8650  1.2253 -0.5947
14621SOL     OW55587  11.747   5.651  10.793  0.0539 -0.4037 -0.1780
14621SOL    HW155588  11.727   5.673  10.884  0.0704 -2.3523  0.3388
14621SOL    HW255589  11.677   5.692  10.742 -1.3573 -1.3095  0.9563
14622SOL     OW55590   6.853   9.734   8.156  0.1602  0.0833  0.5511
14622SOL    HW155591   6.848   9.719   8.062  0.5214 -0.1430  0.5661
14622SOL    HW255592   6.834   9.649   8.196 -0.8613  0.3770  0.7042
14623SOL     OW55593   4.596   2.227   2.025  0.4571  0.3359  0.5121
14623SOL    HW155594   4.686   2.255   2.009  0.9768 -0.8686  1.1906
14623SOL    HW255595   4.597   2.132   2.011 -0.7072  0.2957  0.5445
14624SOL     OW55596   7.713   3.056   9.211 -0.0686 -0.1694 -0.4040
14624SOL    HW155597   7.773   3.036   9.138 -1.3063  1.0908 -1.8314
14624SOL    HW255598   7.682   3.145   9.193 -2.2123 -0.6957  0.3785
14625SOL     OW55599   4.342   1.078   8.614 -0.4838 -0.0208 -0.2753
14625SOL    HW155600   4.286   1.000   8.607  0.4949 -0.6634 -1.1703
14625SOL    HW255601   4.425   1.045   8.647 -0.6374  0.9516  1.1476
14626SOL     OW55602  13.321  12.654   9.835 -0.3243 -0.0569  0.3791
14626SOL    HW155603  13.339  12.590   9.766 -0.1900  0.2193  0.1534
14626SOL    HW255604  13.354  12.737   9.800  0.7820 -0.1080  1.2194
14627SOL     OW55605   4.910   3.711  12.398  0.0218  0.7819  0.0532
14627SOL    HW155606   4.861   3.700  12.480 -1.8473  0.7234 -0.9956
14627SOL    HW255607   4.865   3.654  12.336  0.9289  1.3817 -1.2054
14628SOL     OW55608   1.784   3.046  11.750 -0.2133  0.4624 -0.5607
14628SOL    HW155609   1.701   3.013  11.715  0.2165 -1.1181 -0.1788
14628SOL    HW255610   1.835   3.069  11.672 -0.2732 -0.4582 -0.8820
14629SOL     OW55611  12.675  12.700   5.590 -0.5432 -0.0426 -0.0482
14629SOL    HW155612  12.627  12.743   5.661  1.1553 -1.2742  1.9659
14629SOL    HW255613  12.743  12.762   5.565 -1.4308  0.5863 -0.9975
14630SOL     OW55614   4.620  10.288   9.265 -0.3184 -0.0434  0.1357
14630SOL    HW155615   4.591  10.367   9.310 -0.0161 -0.0290  0.3124
14630SOL    HW255616   4.691  10.255   9.320  0.9278  0.6753 -0.9957
14631SOL     OW55617   2.817   2.926  11.447 -0.3296 -0.4508  0.1676
14631SOL    HW155618   2.779   3.009  11.420 -2.1298 -0.8840  1.2274
14631SOL    HW255619   2.744   2.876  11.484  0.5985 -2.6948 -0.8394
14632SOL     OW55620   1.089   8.759   4.914  0.4237 -0.0473  0.1476
14632SOL    HW155621   1.014   8.722   4.962 -0.6965  0.2984 -1.2519
14632SOL    HW255622   1.160   8.759   4.977 -1.1045  0.8390  1.9718
14633SOL     OW55623  12.717   8.860   5.404 -0.2202  0.0045 -0.0359
14633SOL    HW155624  12.674   8.844   5.319  2.1104  3.5626 -2.1754
14633SOL    HW255625  12.689   8.948   5.428  1.9061  0.4626  1.0119
14634SOL     OW55626  12.905  13.224  12.953 -0.0720  0.6921 -0.1469
14634SOL    HW155627  12.938  13.197  12.868 -1.9073 -0.1396 -0.6362
14634SOL    HW255628  12.934  13.156  13.013  1.4471  1.4117 -0.0113
14635SOL     OW55629  12.174   8.530  13.069  0.2191 -0.7518 -0.4255
14635SOL    HW155630  12.148   8.444  13.035  0.7546 -1.1053  0.0255
14635SOL    HW255631  12.092   8.573  13.092 -0.0644 -1.0901 -0.7989
14636SOL     OW55632   0.379   5.275   3.095 -0.3949  0.6301 -0.1399
14636SOL    HW155633   0.419   5.231   3.020 -1.4638  0.5749 -0.6886
14636SOL    HW255634   0.445   5.269   3.164  0.0972 -0.4317 -0.6893
14637SOL     OW55635   7.900   0.972   7.131 -0.1291  0.4003 -0.2162
14637SOL    HW155636   7.939   0.957   7.217 -0.8498 -0.0255  0.0504
14637SOL    HW255637   7.807   0.985   7.149 -0.6746 -1.7784 -1.0815
14638SOL     OW55638   9.070   7.077  11.252 -1.0551  0.6821  0.2757
14638SOL    HW155639   8.982   7.114  11.247 -1.0151  1.1761  2.3714
14638SOL    HW255640   9.058   6.989  11.288 -0.6293  1.2669  1.9458
14639SOL     OW55641   3.189   2.609   6.093 -0.0787  0.3108 -0.3012
14639SOL    HW155642   3.230   2.624   6.178 -1.9990 -1.5907  1.0647
14639SOL    HW255643   3.223   2.680   6.037  1.5036  1.4196  1.9065
14640SOL     OW55644   0.509  12.615   9.391 -0.4323  0.2438  0.2289
14640SOL    HW155645   0.522  12.655   9.477 -1.2627  1.0829 -0.0133
14640SOL    HW255646   0.419  12.640   9.366  0.0432  0.6515 -1.2001
14641SOL     OW55647   3.849   5.312   8.599 -0.7838 -0.0631 -0.5836
14641SOL    HW155648   3.856   5.369   8.522 -1.5859  2.0466  0.8205
14641SOL    HW255649   3.755   5.310   8.619 -0.4674  0.6652  1.1720
14642SOL     OW55650   2.046   3.095  12.648  0.2962  0.2502 -0.2985
14642SOL    HW155651   2.098   3.145  12.585 -2.5482  1.3701 -1.9547
14642SOL    HW255652   2.004   3.027  12.595 -2.1841  1.2158  0.3030
14643SOL     OW55653  12.374   4.378  11.269 -0.3654  0.0800 -0.1007
14643SOL    HW155654  12.379   4.419  11.183  1.0321 -3.3173 -1.8385
14643SOL    HW255655  12.292   4.329  11.268  0.2653 -1.0085 -0.0596
14644SOL     OW55656   3.817  13.699   1.088  0.2692 -0.1793  0.0258
14644SOL    HW155657   3.740  13.740   1.127  0.0932 -2.0355  1.7697
14644SOL    HW255658   3.853  13.644   1.157  0.9079 -2.3715 -1.8983
14645SOL     OW55659   5.617  10.896   5.150 -0.2513  0.2836 -0.6096
14645SOL    HW155660   5.683  10.913   5.218  0.1632  0.5976 -1.0803
14645SOL    HW255661   5.661  10.918   5.068 -0.2652 -1.4769 -1.1213
14646SOL     OW55662  12.344   7.195   4.226  0.1530  0.3560  0.4680
14646SOL    HW155663  12.282   7.139   4.179 -0.2436 -0.5549  2.0096
14646SOL    HW255664  12.367   7.264   4.163  0.6599 -1.4993 -1.4977
14647SOL     OW55665   1.133  11.359  12.903 -0.1386  0.3072  0.6713
14647SOL    HW155666   1.207  11.338  12.960 -0.5748  0.7818  1.4226
14647SOL    HW255667   1.161  11.439  12.857 -0.0476  0.2919  0.6994
14648SOL     OW55668  13.201   2.577  10.507 -0.6757 -0.6294  0.6062
14648SOL    HW155669  13.165   2.576  10.418 -0.5646 -1.6416  0.5570
14648SOL    HW255670  13.158   2.504  10.551  0.4768 -1.1603  0.8883
14649SOL     OW55671   2.483   6.013   4.457  0.3197 -0.2368  0.1933
14649SOL    HW155672   2.413   5.985   4.515  1.0169  0.3079  1.3319
14649SOL    HW255673   2.438   6.056   4.384 -0.5533 -0.5930  0.5067
14650SOL     OW55674   6.495  12.389   6.451 -0.8711 -0.2221 -0.2031
14650SOL    HW155675   6.519  12.323   6.386 -2.0942 -0.0828 -0.8102
14650SOL    HW255676   6.529  12.471   6.416  2.5606 -0.7075  1.5451
14651SOL     OW55677   3.076   0.521   4.801 -0.0630  0.2209  0.2125
14651SOL    HW155678   2.984   0.494   4.805 -0.0101  0.0408  0.2399
14651SOL    HW255679   3.078   0.608   4.841 -0.2230  0.2297  0.2020
14652SOL     OW55680  10.951   5.108   3.171 -0.0652 -0.4492 -0.5613
14652SOL    HW155681  10.972   5.164   3.096 -0.0105  1.0474  0.5254
14652SOL    HW255682  10.905   5.166   3.232  1.6408 -1.0539  1.4305
14653SOL     OW55683   4.467   1.856   6.622  0.1284 -0.1362 -0.1271
14653SOL    HW155684   4.559   1.872   6.642  0.7135 -1.8465 -1.2899
14653SOL    HW255685   4.435   1.941   6.592  1.7760  0.1277 -1.2737
14654SOL     OW55686   1.881   4.102   7.322  0.2030  0.4796 -0.0414
14654SOL    HW155687   1.870   4.007   7.314 -2.6496  0.3782  3.0827
14654SOL    HW255688   1.954   4.113   7.382 -0.0626  0.2183  0.3337
14655SOL     OW55689  13.470  10.237   2.212 -0.1482  0.5949  0.6379
14655SOL    HW155690  13.458  10.323   2.172 -3.0059  0.3639  0.7556
14655SOL    HW255691  13.381  10.211   2.238  0.9299 -1.3968  2.6779
14656SOL     OW55692   7.550   0.520   5.294 -0.4893  0.4865 -0.0935
14656SOL    HW155693   7.478   0.566   5.337 -2.5245 -1.5585 -1.1351
14656SOL    HW255694   7.529   0.523   5.201  0.3907 -0.7267 -0.3584
14657SOL     OW55695  11.265   0.577  11.982 -0.0961 -0.9014  0.2148
14657SOL    HW155696  11.330   0.507  11.976  1.5837  0.6173 -0.0590
14657SOL    HW255697  11.243   0.597  11.891 -0.0581 -0.6194  0.2675
14658SOL     OW55698  11.821   3.618  11.895  0.5343 -0.5137  0.4265
14658SOL    HW155699  11.832   3.659  11.810 -1.0282  0.2348  0.5429
14658SOL    HW255700  11.849   3.527  11.882  1.2497 -0.1545 -0.6137
14659SOL     OW55701   6.308   9.512   4.986 -0.0620  0.3248  0.0790
14659SOL    HW155702   6.273   9.478   5.068 -1.5586 -0.5552 -0.8877
14659SOL    HW255703   6.394   9.547   5.009  0.1227 -1.1386  1.7407
14660SOL     OW55704   2.385  11.155   7.403  0.4144  0.5871 -0.7614
14660SOL    HW155705   2.419  11.210   7.473 -1.6840  2.2056 -0.8920
14660SOL    HW255706   2.371  11.070   7.443 -2.0069  1.8118  1.3138
14661SOL     OW55707  10.863   0.531  12.943  0.0755 -0.8003  0.6117
14661SOL    HW155708  10.933   0.473  12.970  0.4516 -0.3810  0.5561
14661SOL    HW255709  10.906   0.596  12.887 -0.3142 -0.4019  0.7691
14662SOL     OW55710   4.478   2.829   7.428  0.2569  0.6504  0.7852
14662SOL    HW155711   4.524   2.869   7.354 -0.4414 -2.2538 -1.3962
14662SOL    HW255712   4.388   2.820   7.397  0.1193 -1.3474  1.6687
14663SOL     OW55713  11.871  10.240   8.673 -0.3087  0.6075  0.4220
14663SOL    HW155714  11.851  10.157   8.716 -2.6521  0.4858 -0.7590
14663SOL    HW255715  11.788  10.268   8.635  0.4737  3.3612  0.5126
14664SOL     OW55716  13.430   3.156  10.102  0.4120 -0.1429  0.0299
14664SOL    HW155717  13.402   3.133  10.013 -0.7227 -2.5956  0.9186
14664SOL    HW255718  13.525   3.144  10.102  0.6631  1.4952 -1.2304
14665SOL     OW55719  11.170   0.811  13.657  0.2337 -0.0992  0.0768
14665SOL    HW155720  11.202   0.885  13.607 -1.9081  2.4791  2.2213
14665SOL    HW255721  11.086   0.789  13.615 -1.4899  1.9687  2.1669
14666SOL     OW55722   1.076   1.699   4.733 -0.4096 -0.3080  0.1081
14666SOL    HW155723   1.134   1.752   4.788 -0.6551  2.3022 -1.9210
14666SOL    HW255724   1.086   1.610   4.766  0.5565  0.8539  3.3287
14667SOL     OW55725   8.624   9.730  10.996 -0.2737 -0.6073 -0.1745
14667SOL    HW155726   8.660   9.815  10.969 -2.4100  0.7588  0.9691
14667SOL    HW255727   8.693   9.667  10.973  2.5331  1.6679  1.2750
14668SOL     OW55728   5.506   2.195   6.260  0.1835 -0.4132 -0.1103
14668SOL    HW155729   5.418   2.185   6.224 -0.5572  0.5076  1.3153
14668SOL    HW255730   5.515   2.289   6.274  0.5759 -0.6657  1.6125
14669SOL     OW55731   8.790  12.708   7.460  0.2919  0.0663 -0.2901
14669SOL    HW155732   8.788  12.785   7.517  2.1621  1.2693 -1.7331
14669SOL    HW255733   8.856  12.650   7.500  0.1608 -0.0085 -0.1776
14670SOL     OW55734   3.553  11.298   3.933 -0.1324  0.2854  0.0807
14670SOL    HW155735   3.521  11.330   3.849  0.3512  0.9584  0.1403
14670SOL    HW255736   3.487  11.325   3.996 -1.6564 -2.1951 -0.3365
14671SOL     OW55737  12.270   2.774  11.096 -0.2735  0.4522 -0.1130
14671SOL    HW155738  12.262   2.691  11.142 -2.7770 -0.5495 -2.1041
14671SOL    HW255739  12.353   2.811  11.127  1.6226 -3.3539 -0.0724
14672SOL     OW55740   6.008   8.952   5.375  0.0585 -0.2994  0.0147
14672SOL    HW155741   5.929   8.910   5.340 -1.2750  1.5976  0.5727
14672SOL    HW255742   6.040   9.007   5.304  0.1303 -0.0862  0.2101
14673SOL     OW55743   9.108   1.572   4.017 -0.2506 -0.1905 -0.3118
14673SOL    HW155744   9.058   1.567   4.098 -0.4328 -1.2670 -0.4759
14673SOL    HW255745   9.197   1.548   4.042 -0.0668  0.5193 -0.2482
14674SOL     OW55746   8.822   2.791   0.486 -0.0440  1.0629 -0.3693
14674SOL    HW155747   8.908   2.832   0.474  0.7879 -0.2656  0.6496
14674SOL    HW255748   8.839   2.697   0.475 -1.7141  0.8802 -1.8060
14675SOL     OW55749   4.107   7.849  10.881 -0.0742  0.5929  0.0068
14675SOL    HW155750   4.165   7.884  10.813 -1.9293  1.0207 -1.4120
14675SOL    HW255751   4.107   7.916  10.949  2.0770  0.0074  0.6755
14676SOL     OW55752   5.507   2.996  11.597  0.5415 -0.3036 -0.2991
14676SOL    HW155753   5.498   2.902  11.612 -1.5625 -0.4895 -2.1159
14676SOL    HW255754   5.417   3.026  11.583  1.1380  2.0522  0.4813
14677SOL     OW55755   8.786   5.912   7.398  0.3278 -0.3504 -0.4451
14677SOL    HW155756   8.852   5.940   7.334  0.4033 -0.0421 -0.2393
14677SOL    HW255757   8.783   5.817   7.390  1.7179 -0.4945  0.4112
14678SOL     OW55758   7.647   6.490   9.562  0.2718 -0.0112  0.0826
14678SOL    HW155759   7.707   6.537   9.620 -0.6056  0.5013  0.5953
14678SOL    HW255760   7.585   6.449   9.622 -2.1867  2.5763 -0.5209
14679SOL     OW55761  12.664   0.698   6.604 -0.2524 -0.4292  0.2135
14679SOL    HW155762  12.668   0.770   6.667 -0.8178  2.0023 -2.3317
14679SOL    HW255763  12.753   0.663   6.601  0.3505  1.0007  0.6580
14680SOL     OW55764   8.355   1.394  10.345  0.8642 -0.0494  0.1602
14680SOL    HW155765   8.294   1.370  10.276  0.6077  0.3164  0.2532
14680SOL    HW255766   8.433   1.424  10.298  1.1130 -0.8663  0.0453
14681SOL     OW55767   6.553   9.438  10.411 -0.7220 -0.8494  0.0694
14681SOL    HW155768   6.539   9.364  10.351  0.2763 -1.7516  0.9072
14681SOL    HW255769   6.467   9.455  10.449 -0.5928 -3.1344  1.5855
14682SOL     OW55770   5.846   3.464   7.360 -0.2500 -0.3570 -0.5914
14682SOL    HW155771   5.902   3.484   7.285 -0.2234  2.7844  0.1167
14682SOL    HW255772   5.759   3.494   7.333 -0.0644  1.6726  0.8527
14683SOL     OW55773  10.949   9.437   1.658  0.1474  0.5631 -0.0404
14683SOL    HW155774  11.002   9.454   1.737  1.3493  0.9384 -0.8996
14683SOL    HW255775  10.905   9.520   1.641  0.7149  0.7996 -0.3648
14684SOL     OW55776   2.275   9.198   7.993  0.1758 -0.2707 -0.1638
14684SOL    HW155777   2.198   9.255   7.992 -0.2988 -0.8203  1.1964
14684SOL    HW255778   2.349   9.257   7.997 -0.2861  0.2795  0.6039
14685SOL     OW55779   4.273   1.399   6.919  0.1622  0.5266  0.2302
14685SOL    HW155780   4.296   1.477   6.869  0.2392  0.4623  0.1628
14685SOL    HW255781   4.196   1.423   6.969  0.1322  0.6172  0.1402
14686SOL     OW55782   6.048   4.542   5.807  0.0452 -0.4003  0.1312
14686SOL    HW155783   6.040   4.495   5.890 -0.2850 -1.1028 -0.2890
14686SOL    HW255784   5.957   4.550   5.776 -0.0999  1.9974  0.9910
14687SOL     OW55785  13.559   8.359   6.575 -0.2551 -0.4081  0.0457
14687SOL    HW155786  13.534   8.287   6.517 -0.8357  0.6104 -1.0129
14687SOL    HW255787  13.651   8.344   6.593 -0.0600 -0.7818 -1.1399
14688SOL     OW55788  11.523   8.390   5.694  0.1710 -0.0729 -0.4340
14688SOL    HW155789  11.516   8.337   5.774  0.4549 -1.8932 -1.5698
14688SOL    HW255790  11.446   8.446   5.697 -0.2435 -0.6454  0.7410
14689SOL     OW55791   3.813   5.602   9.259  0.3965 -0.2231  0.0396
14689SOL    HW155792   3.856   5.687   9.273 -0.1746  0.1581 -0.4917
14689SOL    HW255793   3.842   5.575   9.172 -0.1534 -0.1220 -0.1824
14690SOL     OW55794   8.433   3.116   7.673 -0.2608 -0.1997  0.2116
14690SOL    HW155795   8.516   3.122   7.626 -1.7403  2.4338 -2.4308
14690SOL    HW255796   8.404   3.026   7.660  0.9987 -0.4665 -1.0050
14691SOL     OW55797   6.221   0.506   7.619 -0.6087  0.4560  0.0113
14691SOL    HW155798   6.294   0.554   7.658  0.3641  1.3742 -2.7080
14691SOL    HW255799   6.253   0.418   7.605 -0.5600  0.4428  0.2076
14692SOL     OW55800  10.887  12.329   5.658 -0.3175  0.1340 -0.3763
14692SOL    HW155801  10.855  12.313   5.569 -2.3682  0.9252  0.1358
14692SOL    HW255802  10.979  12.303   5.657  0.1534  1.5851 -3.1414
14693SOL     OW55803   5.339   8.954  13.410 -0.3916  0.1139 -0.6397
14693SOL    HW155804   5.381   8.882  13.362  0.2297 -1.1452  1.6502
14693SOL    HW255805   5.305   9.012  13.341  1.4126 -0.9868 -2.5689
14694SOL     OW55806   9.238   4.179  13.246  0.0972 -0.7217 -0.3542
14694SOL    HW155807   9.154   4.209  13.211  0.3885 -0.6804 -1.0366
14694SOL    HW255808   9.215   4.111  13.309 -0.4725 -0.3675 -0.1695
14695SOL     OW55809   1.103   8.141   0.410 -0.1492  0.1349 -0.3315
14695SOL    HW155810   1.129   8.059   0.368  0.5868  0.7873 -1.1989
14695SOL    HW255811   1.029   8.117   0.466  0.5660 -1.2627  0.0642
14696SOL     OW55812   1.811  11.054   9.568 -0.0827 -0.2969 -0.2325
14696SOL    HW155813   1.754  10.988   9.529 -2.0334  1.1424  0.0464
14696SOL    HW255814   1.858  11.008   9.637 -0.1245 -1.7595 -1.1459
14697SOL     OW55815   8.579   0.984  13.513 -0.2385  0.5480  0.0856
14697SOL    HW155816   8.582   1.022  13.601  1.7963 -0.0858  0.3583
14697SOL    HW255817   8.651   0.921  13.513 -0.3903  0.3317 -1.9490
14698SOL     OW55818  13.190   3.587   8.155  0.1648 -0.0534  0.1926
14698SOL    HW155819  13.240   3.555   8.230 -3.2932 -0.5256  2.5504
14698SOL    HW255820  13.254   3.633   8.101  3.0605 -0.5607  2.8859
14699SOL     OW55821   4.035  13.452  11.242  0.5616  0.4006 -0.4422
14699SOL    HW155822   4.046  13.442  11.336  0.9907 -0.1825 -0.5431
14699SOL    HW255823   4.089  13.528  11.219 -2.1305  2.6538  0.2334
14700SOL     OW55824   1.593   9.248   9.110 -0.4945 -0.0020  0.1565
14700SOL    HW155825   1.550   9.324   9.151 -0.9545 -0.3516  0.3299
14700SOL    HW255826   1.525   9.210   9.054 -0.2263 -0.2189 -0.0224
14701SOL     OW55827   2.150  10.260   1.647 -0.7462  0.0730 -0.1072
14701SOL    HW155828   2.114  10.292   1.565  1.3871  0.3294 -0.9958
14701SOL    HW255829   2.224  10.317   1.666 -0.5710 -0.6052  1.4826
14702SOL     OW55830   1.445   0.814   4.765  0.7657 -0.0113  0.0247
14702SOL    HW155831   1.527   0.860   4.782  0.5385  0.3293  0.2171
14702SOL    HW255832   1.426   0.767   4.846  1.4561 -1.1728 -0.4718
14703SOL     OW55833   7.067   2.690  10.260  0.4726  0.1482 -0.3898
14703SOL    HW155834   7.055   2.599  10.285 -1.0712  0.4051 -0.0680
14703SOL    HW255835   7.048   2.739  10.340  1.1576  0.7759 -0.5936
14704SOL     OW55836   7.324   9.915  12.858 -0.2864  0.0987  0.1326
14704SOL    HW155837   7.255   9.862  12.817  1.3322 -0.9984 -1.3113
14704SOL    HW255838   7.384   9.851  12.896  1.4122  0.8723 -1.1284
14705SOL     OW55839  12.895   4.799   8.652 -0.2961  0.1321  0.4705
14705SOL    HW155840  12.898   4.853   8.573  1.9365 -1.0002 -0.2869
14705SOL    HW255841  12.918   4.860   8.723 -3.4062  1.4234  0.5286
14706SOL     OW55842  11.447   7.303   4.433  0.0000  0.0776  0.1967
14706SOL    HW155843  11.378   7.265   4.377 -2.0005  1.1074  1.8309
14706SOL    HW255844  11.526   7.297   4.380 -0.9532 -2.7684 -1.1125
14707SOL     OW55845   7.595   7.459   4.764 -0.2920  0.1552 -0.5579
14707SOL    HW155846   7.524   7.519   4.744  0.0133  0.6747 -0.0982
14707SOL    HW255847   7.669   7.516   4.786 -0.1670 -0.3928  0.4643
14708SOL     OW55848  11.682   9.119   5.674  0.2280 -0.3206 -0.2791
14708SOL    HW155849  11.736   9.191   5.705 -1.0002  0.1496  0.8936
14708SOL    HW255850  11.739   9.068   5.616  2.4330 -0.7311  2.0667
14709SOL     OW55851  13.350   1.413   7.554 -0.1221  0.0547 -0.3383
14709SOL    HW155852  13.441   1.388   7.570 -0.0648  0.6004  0.2474
14709SOL    HW255853  13.340   1.496   7.600 -0.4084  0.9312 -1.8975
14710SOL     OW55854  10.895  12.004   9.709  0.3688 -0.2589  0.0418
14710SOL    HW155855  10.962  12.022   9.644  0.0545  1.4807  0.1430
14710SOL    HW255856  10.919  12.058   9.784  0.2021 -1.5061  1.0293
14711SOL     OW55857   3.680   0.932  11.583 -0.2603  0.5289  0.3885
14711SOL    HW155858   3.759   0.880  11.570 -0.2867  0.6620 -0.3524
14711SOL    HW255859   3.632   0.887  11.653 -0.6069 -0.8385 -0.6733
14712SOL     OW55860   1.231  12.883  11.446  0.2383  0.4261 -0.1643
14712SOL    HW155861   1.194  12.843  11.525  2.3661 -2.7685 -0.5560
14712SOL    HW255862   1.235  12.976  11.466  0.7484 -0.2218  3.5734
14713SOL     OW55863   7.777  11.105   1.016 -0.6135  0.0415 -0.2885
14713SOL    HW155864   7.775  11.150   0.932 -2.8097  1.1372  0.2658
14713SOL    HW255865   7.802  11.015   0.995 -0.6420  0.4065 -2.0440
14714SOL     OW55866  10.925   2.002   3.655  0.1611  0.5071  0.6820
14714SOL    HW155867  10.903   2.018   3.747  0.7226  0.4775  0.8280
14714SOL    HW255868  10.881   1.920   3.634  1.3463 -0.3490  1.4195
14715SOL     OW55869   8.586   2.829   5.935  0.5768  0.0468  0.2101
14715SOL    HW155870   8.542   2.888   5.996 -2.8899 -0.7578 -1.2414
14715SOL    HW255871   8.659   2.792   5.984 -1.2278  0.4085  3.4139
14716SOL     OW55872   4.950   8.930   5.006 -0.1150  0.1853 -0.4896
14716SOL    HW155873   5.039   8.909   4.980  0.2878  2.3082 -0.9933
14716SOL    HW255874   4.959   8.993   5.077 -1.2571 -2.3380  2.1414
14717SOL     OW55875  12.509   7.424  11.915  0.2682  0.4887 -0.3509
14717SOL    HW155876  12.469   7.349  11.872 -0.5617  0.2974  0.7002
14717SOL    HW255877  12.600   7.424  11.885  0.2712 -0.8999 -0.4120
14718SOL     OW55878   6.388   1.888   0.126 -0.4375  0.1482 -0.1337
14718SOL    HW155879   6.334   1.883   0.047 -0.8841 -0.8644  0.2145
14718SOL    HW255880   6.430   1.802   0.132  1.9255  1.1563 -0.8469
14719SOL     OW55881   0.799   8.056   2.293 -0.0013  0.2108  0.6187
14719SOL    HW155882   0.787   8.106   2.373  0.8351 -1.3067  1.7428
14719SOL    HW255883   0.892   8.064   2.273 -0.1712  0.4434 -0.1409
14720SOL     OW55884   9.292  10.434  13.525  0.0330  0.0594 -0.1738
14720SOL    HW155885   9.377  10.389  13.523  0.5100  0.8613  0.7608
14720SOL    HW255886   9.229  10.369  13.496  1.0760 -0.2830 -1.7975
14721SOL     OW55887   3.143   2.922  11.802  0.1759  0.0237 -0.0170
14721SOL    HW155888   3.058   2.948  11.837 -0.4143 -0.6786 -0.8625
14721SOL    HW255889   3.130   2.922  11.707  0.7188 -1.3696 -0.1225
14722SOL     OW55890   1.654   0.704   5.342 -0.1560 -0.0349  0.0471
14722SOL    HW155891   1.639   0.618   5.381  0.1523 -0.4468 -0.7157
14722SOL    HW255892   1.640   0.766   5.414 -0.3784 -0.7175  0.6054
14723SOL     OW55893   8.517   2.982  11.193 -0.0043 -0.7590 -0.0094
14723SOL    HW155894   8.491   2.940  11.111 -0.0463 -1.1203  0.1905
14723SOL    HW255895   8.510   3.076  11.174  1.0222 -0.8102 -0.7630
14724SOL     OW55896  12.615  10.190   9.204  0.1289 -0.4918 -0.4941
14724SOL    HW155897  12.618  10.120   9.268 -0.7297  0.6988  0.9078
14724SOL    HW255898  12.677  10.164   9.136  0.9160 -1.8767  0.7202
14725SOL     OW55899   6.429  12.888   7.372 -0.3673 -0.4069  1.1650
14725SOL    HW155900   6.452  12.800   7.342 -1.6306 -0.5749  0.6157
14725SOL    HW255901   6.346  12.907   7.327  0.6725  1.7092 -0.0215
14726SOL     OW55902   1.763   3.660   4.872  0.7956 -0.0140  0.5156
14726SOL    HW155903   1.816   3.693   4.945  2.2627 -0.6529 -0.2060
14726SOL    HW255904   1.789   3.714   4.797  0.0421 -0.0166  0.2438
14727SOL     OW55905   0.062   4.073   2.622 -0.4535 -0.4581  0.5343
14727SOL    HW155906  -0.000   4.000   2.622 -0.0592 -0.8323  2.3435
14727SOL    HW255907   0.007   4.151   2.617 -0.8494 -0.8027 -2.6487
14728SOL     OW55908  11.997   4.462  12.928 -0.4437 -0.0517 -0.3496
14728SOL    HW155909  12.053   4.523  12.879 -0.1890  0.7976  0.9409
14728SOL    HW255910  11.955   4.517  12.995 -1.4913 -1.0024 -0.2031
14729SOL     OW55911  11.852   4.518  13.191  0.1423  0.0256  0.5861
14729SOL    HW155912  11.815   4.432  13.206 -1.2910  0.6380  0.7289
14729SOL    HW255913  11.800   4.577  13.246  0.1435  1.1739 -0.5776
14730SOL     OW55914   2.514   0.203   7.760  0.0215  0.2251  0.4234
14730SOL    HW155915   2.586   0.264   7.744 -0.4880  1.1562  1.5530
14730SOL    HW255916   2.545   0.147   7.831 -0.4337  0.7748  1.0691
14731SOL     OW55917  12.761  13.444   9.152 -0.2302 -0.1898  0.2743
14731SOL    HW155918  12.854  13.421   9.146 -0.4329 -0.6372 -2.0884
14731SOL    HW255919  12.755  13.498   9.231  1.6376 -1.8482  1.6588
14732SOL     OW55920   1.504  11.956   0.836 -0.1396  0.2832  0.4160
14732SOL    HW155921   1.521  11.954   0.930 -0.1496 -0.6553  0.4114
14732SOL    HW255922   1.430  12.016   0.827  1.3017  2.1896  0.7351
14733SOL     OW55923   6.963   8.567   7.957 -0.2115  0.4092 -0.1164
14733SOL    HW155924   6.891   8.566   7.893  1.0022 -0.8894 -1.5363
14733SOL    HW255925   6.950   8.487   8.008  0.0129  0.3528 -0.1455
14734SOL     OW55926   2.336  11.291   2.413  0.1451 -0.4759 -0.1136
14734SOL    HW155927   2.408  11.333   2.365  0.6190 -1.4859 -0.3074
14734SOL    HW255928   2.259  11.343   2.390  0.5500 -0.3016 -1.1305
14735SOL     OW55929   9.857   2.444  13.476  0.1163  0.0484  0.1492
14735SOL    HW155930   9.897   2.480  13.555  0.3026  2.4163 -0.9365
14735SOL    HW255931   9.918   2.468  13.406 -0.9106 -0.4437 -0.9303
14736SOL     OW55932   9.296   6.684   6.154  0.1888  0.8693 -0.0445
14736SOL    HW155933   9.290   6.671   6.249  0.2803  2.0113  0.1310
14736SOL    HW255934   9.272   6.599   6.117  0.5594  0.2907  1.0040
14737SOL     OW55935  11.118  12.136   5.915 -0.8483  0.5314 -0.0808
14737SOL    HW155936  11.206  12.100   5.928 -0.7578  0.3958 -1.0021
14737SOL    HW255937  11.068  12.105   5.990 -0.6811 -1.2087 -0.6613
14738SOL     OW55938   3.434  11.979   1.506 -0.2867  0.1766  0.3759
14738SOL    HW155939   3.380  11.909   1.543 -0.3036  0.7381  1.4459
14738SOL    HW255940   3.442  11.956   1.413  0.1503 -1.5215  0.7990
14739SOL     OW55941   8.399   5.143   9.602 -0.5364  0.1335  0.4949
14739SOL    HW155942   8.405   5.097   9.518 -1.5314 -2.2164  1.5988
14739SOL    HW255943   8.314   5.186   9.600 -0.3962  0.3899  0.1422
14740SOL     OW55944   9.591  10.647   5.007  0.1010  0.0198  0.0094
14740SOL    HW155945   9.674  10.672   5.048  0.5760  2.4480 -2.1684
14740SOL    HW255946   9.617  10.583   4.940 -0.1885 -1.1820  1.0098
14741SOL     OW55947  11.758   4.476   5.050 -0.4492 -0.6221 -0.2243
14741SOL    HW155948  11.768   4.505   4.960 -1.1986 -0.8695 -0.4010
14741SOL    HW255949  11.673   4.432   5.051  0.2423 -2.0036  0.2403
14742SOL     OW55950   5.604   0.156   1.966 -0.4392  0.0703 -0.1643
14742SOL    HW155951   5.655   0.076   1.981 -0.4670 -0.1081 -0.9965
14742SOL    HW255952   5.664   0.214   1.918  0.1570  1.2036  1.8205
14743SOL     OW55953  10.562   1.649  12.254  0.3703  0.1875  0.1046
14743SOL    HW155954  10.622   1.698  12.198  0.1171  1.2142  0.7141
14743SOL    HW255955  10.615   1.624  12.330  0.8772 -1.7169 -0.8144
14744SOL     OW55956  12.996   7.618   1.755  0.0102  0.1778 -0.0673
14744SOL    HW155957  13.009   7.708   1.725 -0.2577  0.5816  0.9766
14744SOL    HW255958  13.063   7.605   1.822 -1.8463  0.6895  1.9969
14745SOL     OW55959   1.269   1.306  13.708 -0.6996  0.1209  0.5796
14745SOL    HW155960   1.352   1.313  13.756 -0.5298  0.9050  0.1961
14745SOL    HW255961   1.226   1.390  13.724 -0.6610  0.3759 -0.5907
14746SOL     OW55962   2.597   5.270   6.683  0.5314 -0.0519  0.2529
14746SOL    HW155963   2.649   5.194   6.710 -0.5771 -1.1502 -0.5575
14746SOL    HW255964   2.529   5.233   6.627 -0.6853  1.4207  0.6862
14747SOL     OW55965   5.816   2.282   7.529  0.0424 -0.3894  0.0523
14747SOL    HW155966   5.737   2.286   7.474  0.2683  0.0071 -0.2464
14747SOL    HW255967   5.783   2.282   7.619 -0.2591  1.3003 -0.0314
14748SOL     OW55968   8.026  13.136  11.813 -0.0278  0.1310  0.3972
14748SOL    HW155969   8.051  13.220  11.773 -0.9360  0.9707  1.5362
14748SOL    HW255970   8.097  13.117  11.874 -0.1830  0.4441  0.6741
14749SOL     OW55971   1.377   7.769   8.044 -0.5717  0.5741  0.1741
14749SOL    HW155972   1.323   7.768   7.965  0.1525 -3.6875 -0.5267
14749SOL    HW255973   1.314   7.776   8.115 -1.4387  2.0395 -0.6751
14750SOL     OW55974   9.152  10.590  11.519 -0.0709 -0.3713 -0.1299
14750SOL    HW155975   9.193  10.573  11.434 -0.9805 -1.1687 -0.4298
14750SOL    HW255976   9.218  10.564  11.583  1.0955  1.3697 -0.5463
14751SOL     OW55977   6.102   0.811  13.378 -0.3694  0.3897  0.0763
14751SOL    HW155978   6.016   0.770  13.376 -0.4115  0.4953 -0.3719
14751SOL    HW255979   6.113   0.841  13.469 -0.9528  0.7003  0.0454
14752SOL     OW55980   7.605   5.817   1.020 -0.1144  0.1549  0.1279
14752SOL    HW155981   7.628   5.737   1.068 -1.2564 -1.2704 -1.5812
14752SOL    HW255982   7.668   5.882   1.051  3.1369 -2.2461 -0.8779
14753SOL     OW55983   9.852   2.739   8.018 -0.5392  0.4702 -0.3989
14753SOL    HW155984   9.885   2.694   8.096 -1.4976 -0.9137 -0.7478
14753SOL    HW255985   9.920   2.803   7.996  0.5294 -0.2918  0.5837
14754SOL     OW55986   2.605   3.684   0.673 -0.3290 -0.1671 -0.0645
14754SOL    HW155987   2.700   3.676   0.672 -0.2539  0.5107 -1.8126
14754SOL    HW255988   2.577   3.642   0.592 -1.3707  0.9848 -0.3330
14755SOL     OW55989   9.739   3.883   8.860  0.4422 -0.1220 -0.0785
14755SOL    HW155990   9.747   3.907   8.768 -0.6999 -0.4961 -0.2927
14755SOL    HW255991   9.663   3.931   8.892  1.8937  1.4453  1.1913
14756SOL     OW55992   5.007  12.962   8.893 -0.2215  0.0226 -0.3148
14756SOL    HW155993   5.027  12.959   8.986 -2.7289  1.1399  0.3317
14756SOL    HW255994   4.981  12.873   8.870 -0.2470 -0.1018  0.1939
14757SOL     OW55995   8.535   8.392   6.307  0.9020  0.4672 -0.3497
14757SOL    HW155996   8.565   8.465   6.252  0.5450  1.6509  0.9781
14757SOL    HW255997   8.444   8.414   6.328  1.0901  0.1280  0.8607
14758SOL     OW55998   8.495   2.217  13.617 -0.9599  0.3697  0.1692
14758SOL    HW155999   8.496   2.228  13.712 -1.4558  0.2363  0.1942
14758SOL    HW256000   8.558   2.282  13.585  1.0269 -1.2018  0.7244
14759SOL     OW56001   9.317  12.299   7.688  0.3797 -0.3735 -0.4029
14759SOL    HW156002   9.283  12.384   7.661  4.0194  0.7050 -2.1932
14759SOL    HW256003   9.340  12.255   7.607 -0.2175 -2.5856  0.5566
14760SOL     OW56004   9.953   2.652   8.266  0.5390 -0.0080 -0.1378
14760SOL    HW156005   9.942   2.558   8.280 -0.6855  0.0561 -0.5072
14760SOL    HW256006  10.008   2.682   8.338 -0.1181 -0.7964  0.7008
14761SOL     OW56007  11.706   8.956  10.829 -0.1196 -0.3592 -0.0098
14761SOL    HW156008  11.753   8.919  10.904  1.0707 -0.3567 -0.7408
14761SOL    HW256009  11.712   8.889  10.761 -1.3989 -0.4604 -0.0522
14762SOL     OW56010   4.171  12.525   6.288 -0.3915  0.2096  0.0993
14762SOL    HW156011   4.184  12.518   6.193 -0.3260  0.0550  0.1178
14762SOL    HW256012   4.077  12.538   6.299 -0.2362  1.5095 -0.0479
14763SOL     OW56013   3.677   6.956  10.423  0.4255  0.1525 -0.9556
14763SOL    HW156014   3.693   6.987  10.334 -0.4562  0.4339 -1.0201
14763SOL    HW256015   3.610   7.014  10.457  1.1514  0.4017  0.0982
14764SOL     OW56016  12.264   1.806   9.233 -0.0201  0.0386 -0.2490
14764SOL    HW156017  12.250   1.765   9.148 -2.1161  0.6304 -0.2650
14764SOL    HW256018  12.345   1.856   9.224  1.4431 -2.3373 -0.8788
14765SOL     OW56019   5.362   7.442   5.540  0.1585 -0.0005  0.3292
14765SOL    HW156020   5.289   7.476   5.592 -0.6432 -1.1924  0.0383
14765SOL    HW256021   5.340   7.464   5.450 -1.2650 -2.6371 -0.0786
14766SOL     OW56022   6.450   1.880   0.689  0.3851  0.3713 -0.1201
14766SOL    HW156023   6.479   1.912   0.604  1.9959 -0.7073 -0.0207
14766SOL    HW256024   6.472   1.787   0.688  0.8953  0.4435  1.6570
14767SOL     OW56025   8.546   8.935   5.727  0.2554  0.0111  0.3913
14767SOL    HW156026   8.592   9.019   5.721 -1.7997  1.1787  0.1777
14767SOL    HW256027   8.532   8.909   5.636 -0.1405  0.0324  0.4444
14768SOL     OW56028   9.018   9.090  12.564 -0.0423  0.1116  0.5785
14768SOL    HW156029   9.066   9.044  12.633  1.2925 -2.6754 -1.9673
14768SOL    HW256030   9.070   9.168  12.545  1.6810 -1.0764  0.2038
14769SOL     OW56031  12.403   3.354   6.019  0.5462  0.2808 -0.4988
14769SOL    HW156032  12.467   3.308   6.073 -0.3038  0.1620  0.4428
14769SOL    HW256033  12.406   3.308   5.934  0.1686 -1.1308  0.2167
14770SOL     OW56034   5.956   6.385   4.913 -0.6462 -0.3404  0.3591
14770SOL    HW156035   5.921   6.325   4.847 -1.7055  1.6863 -1.0055
14770SOL    HW256036   5.892   6.383   4.984 -1.2970  0.0550 -0.2075
14771SOL     OW56037  12.725   9.836   6.332 -0.2656 -0.2534 -0.0043
14771SOL    HW156038  12.758   9.917   6.291 -1.2535 -0.4909 -1.3552
14771SOL    HW256039  12.718   9.775   6.259 -0.0392 -1.4073  0.9222
14772SOL     OW56040   0.329   8.241  10.748 -0.4507  0.3996 -0.3110
14772SOL    HW156041   0.311   8.227  10.841  0.3254 -0.5690 -0.2831
14772SOL    HW256042   0.276   8.176  10.703 -0.6031  0.6768 -0.5370
14773SOL     OW56043   1.857   5.520  12.917 -0.3312 -1.0244 -0.0901
14773SOL    HW156044   1.912   5.598  12.927 -2.2391  0.5244 -1.0734
14773SOL    HW256045   1.782   5.537  12.974 -0.6583 -2.2724 -0.1314
14774SOL     OW56046   1.529   8.660   7.978 -0.2428 -0.0127 -0.3656
14774SOL    HW156047   1.618   8.630   7.958 -0.5685 -0.7601 -0.7504
14774SOL    HW256048   1.524   8.747   7.940  0.9454  0.8543  1.3422
14775SOL     OW56049   5.281   9.275   0.190 -0.2325  0.5844  0.0200
14775SOL    HW156050   5.354   9.218   0.167 -0.6164  1.1649 -3.1585
14775SOL    HW256051   5.220   9.266   0.116 -2.5897  1.4475  1.7256
14776SOL     OW56052   6.340  13.171  13.020 -0.5202 -0.3604 -0.3973
14776SOL    HW156053   6.327  13.090  12.971  0.1128 -0.6978 -0.0203
14776SOL    HW256054   6.293  13.156  13.102 -1.9187  0.3568 -1.0262
14777SOL     OW56055  11.599  13.671  11.750  0.2163  0.0445  0.2085
14777SOL    HW156056  11.520  13.633  11.789  1.0420 -1.1012  0.7890
14777SOL    HW256057  11.631  13.732  11.816  0.0266  0.2541  0.1121
14778SOL     OW56058   2.570  11.292   0.242 -0.0053  0.2039 -0.1353
14778SOL    HW156059   2.565  11.288   0.337  1.1491 -0.5951 -0.0840
14778SOL    HW256060   2.660  11.265   0.222 -0.2184  0.4034 -1.4498
14779SOL     OW56061  11.834  11.674   5.238  0.1735  0.3759 -1.0058
14779SOL    HW156062  11.897  11.716   5.179 -0.6910  0.6062 -1.8000
14779SOL    HW256063  11.852  11.714   5.323  3.0340 -1.6703 -0.5059
14780SOL     OW56064   3.566   9.516   2.758  0.6504  0.1513  0.2210
14780SOL    HW156065   3.536   9.605   2.744  0.7208  0.3645  1.3566
14780SOL    HW256066   3.535   9.493   2.845 -0.6794 -1.4940 -0.6247
14781SOL     OW56067   1.930   2.877   6.945 -0.1609 -0.1643  0.3065
14781SOL    HW156068   1.971   2.910   7.024 -0.8343 -1.0610  1.0525
14781SOL    HW256069   1.836   2.889   6.960 -0.2758  0.1206 -0.5743
14782SOL     OW56070   0.330   0.530   6.882 -0.3564 -0.0064 -0.2609
14782SOL    HW156071   0.412   0.508   6.926  0.8732  1.7340 -1.5639
14782SOL    HW256072   0.323   0.466   6.812  1.6334  1.6847 -2.1468
14783SOL     OW56073   0.950   7.012   8.140  0.2882 -0.1111 -0.1429
14783SOL    HW156074   0.875   7.049   8.093 -0.4665 -1.4658 -0.0584
14783SOL    HW256075   0.963   6.926   8.100  1.1640 -0.2989  0.5226
14784SOL     OW56076  11.835   1.658   5.848 -0.4236 -0.5554 -0.0900
14784SOL    HW156077  11.930   1.662   5.833 -0.7946 -0.7702 -2.9831
14784SOL    HW256078  11.813   1.565   5.844 -0.8556 -0.4515 -0.2089
14785SOL     OW56079   1.889  10.280   0.047  0.4546 -0.1216 -0.1183
14785SOL    HW156080   1.835  10.210   0.085 -2.3444  0.7632 -2.1309
14785SOL    HW256081   1.950  10.235  -0.011  0.9200 -1.0764  1.0682
14786SOL     OW56082  10.469   3.982  13.497 -0.3026  0.1742 -0.1338
14786SOL    HW156083  10.514   3.937  13.568 -2.3338 -1.0076  0.4877
14786SOL    HW256084  10.376   3.962  13.510 -0.9327  1.4716 -2.0471
14787SOL     OW56085   3.684   7.768   2.834  0.0831  0.1418 -0.1434
14787SOL    HW156086   3.746   7.740   2.902  1.1313 -0.0948 -1.1743
14787SOL    HW256087   3.616   7.816   2.882 -0.2479 -1.6864  1.3225
14788SOL     OW56088   4.092   4.600  10.619 -0.1662 -0.7316  0.3261
14788SOL    HW156089   4.008   4.556  10.614 -0.2997 -0.3824 -0.7657
14788SOL    HW256090   4.144   4.560  10.550 -0.0988  0.4112 -0.3082
14789SOL     OW56091   0.985   5.947   6.543  0.1701  0.0800  0.3277
14789SOL    HW156092   0.978   5.955   6.448 -0.4104  0.5037  0.4008
14789SOL    HW256093   1.052   5.879   6.557 -0.3947 -0.6467 -0.3879
14790SOL     OW56094   9.714  13.476   7.533 -0.6831 -0.4090 -0.0301
14790SOL    HW156095   9.701  13.434   7.618 -1.3406  0.6134  0.3843
14790SOL    HW256096   9.694  13.408   7.470  2.8186 -2.2179  0.5359
14791SOL     OW56097   0.469   1.985  12.516 -0.0647 -0.1636 -0.3864
14791SOL    HW156098   0.424   2.029  12.444 -0.0990  0.6230  0.1085
14791SOL    HW256099   0.543   2.042  12.538 -0.7576  0.2595  1.0074
14792SOL     OW56100  10.841   3.265  10.933  0.8107  0.2323 -0.2005
14792SOL    HW156101  10.821   3.219  10.851 -0.0041 -2.0455  1.1905
14792SOL    HW256102  10.766   3.246  10.990  3.5214 -2.8055  2.8615
14793SOL     OW56103   6.189  10.068  10.639 -0.0985 -0.0468  0.5501
14793SOL    HW156104   6.098  10.089  10.621  0.3894 -0.0013 -2.2519
14793SOL    HW256105   6.236  10.151  10.628  0.3518 -0.1186  1.7318
14794SOL     OW56106   1.449   5.798  10.435 -0.4420  0.1312 -0.0838
14794SOL    HW156107   1.518   5.857  10.403  0.6402  1.1101  3.5383
14794SOL    HW256108   1.483   5.710  10.419  1.4284  0.5932  1.0852
14795SOL     OW56109  11.385  13.310  13.574  0.0457 -0.3987  0.4575
14795SOL    HW156110  11.405  13.231  13.624 -0.4352 -0.6438  0.2630
14795SOL    HW256111  11.429  13.296  13.489  0.0619 -0.4008  0.4667
14796SOL     OW56112   1.141   4.171  10.068  0.0770 -0.1118  0.2666
14796SOL    HW156113   1.208   4.103  10.064 -0.0475 -0.1741 -1.3622
14796SOL    HW256114   1.184   4.244  10.111  1.1547 -0.2200 -0.5836
14797SOL     OW56115  10.941  11.543   9.669  0.3434  0.0506  0.6444
14797SOL    HW156116  10.902  11.629   9.656 -0.9981 -0.6906 -0.5129
14797SOL    HW256117  10.870  11.489   9.702  1.0342 -0.7432  0.8790
14798SOL     OW56118   1.143   2.501   7.248 -0.0980  0.4726  0.2496
14798SOL    HW156119   1.089   2.422   7.251 -1.0014  1.0079 -1.1587
14798SOL    HW256120   1.131   2.536   7.159  1.6561  1.2487  0.2678
14799SOL     OW56121   6.309  11.913   2.012  0.1866 -0.0589  0.1872
14799SOL    HW156122   6.234  11.853   2.004  0.2376 -0.1145  0.1212
14799SOL    HW256123   6.367  11.888   1.940 -0.1300  0.5537 -0.2913
14800SOL     OW56124  13.196   6.617   2.490 -0.5723 -0.4774 -0.4315
14800SOL    HW156125  13.154   6.536   2.520 -2.5336 -0.0717 -1.8540
14800SOL    HW256126  13.236   6.653   2.569  2.1915 -3.7567 -0.1020
14801SOL     OW56127   9.878  10.931  10.602  0.0728  0.0762 -0.6548
14801SOL    HW156128   9.809  10.994  10.621  0.9669  0.4263  1.8161
14801SOL    HW256129   9.959  10.976  10.626  0.8217 -1.6403  0.2600
14802SOL     OW56130   3.072   8.669   9.208  0.0165 -0.3969 -0.0550
14802SOL    HW156131   3.080   8.758   9.243  0.0544 -0.9524  1.4180
14802SOL    HW256132   3.012   8.678   9.134  1.2550  1.0981 -0.9477
14803SOL     OW56133   4.717   6.446   8.917  0.2471  0.0185 -0.1068
14803SOL    HW156134   4.673   6.529   8.936 -0.6918 -0.1555 -1.3894
14803SOL    HW256135   4.810   6.469   8.907 -0.0877  1.0339 -1.0362
14804SOL     OW56136   7.152   9.197  10.977  0.0918  0.6020  0.5691
14804SOL    HW156137   7.107   9.273  10.939  0.1948  0.9783  1.1864
14804SOL    HW256138   7.198   9.232  11.054 -1.2550 -0.3804  1.8868
14805SOL     OW56139   8.358   0.347   8.945  0.4416 -0.0939  0.1863
14805SOL    HW156140   8.273   0.389   8.942  0.7428  0.4750 -1.3576
14805SOL    HW256141   8.421   0.419   8.945  0.9619 -0.4344 -2.4520
14806SOL     OW56142   6.643   2.390   7.468  0.3512 -0.5370  0.3018
14806SOL    HW156143   6.719   2.348   7.429  0.6983 -0.3656  0.7882
14806SOL    HW256144   6.662   2.484   7.462 -0.2295 -0.4558 -0.3986
14807SOL     OW56145  11.933   5.947  13.576  0.1882 -0.3178 -0.3666
14807SOL    HW156146  11.919   5.854  13.558 -0.6476 -0.1137 -0.8246
14807SOL    HW256147  11.846   5.985  13.570  0.3400  0.2971  1.0259
14808SOL     OW56148  10.709  10.031   5.440  0.1338  0.2984 -0.1873
14808SOL    HW156149  10.759  10.110   5.417 -1.2786  0.8466 -1.5596
14808SOL    HW256150  10.671  10.051   5.525  1.2357  0.3475  0.3181
14809SOL     OW56151  13.562   9.758   2.231 -0.0142 -0.1286 -0.7381
14809SOL    HW156152  13.514   9.716   2.302 -0.2055  0.4116 -0.5448
14809SOL    HW256153  13.500   9.761   2.158 -0.0201 -0.1216 -0.7325
14810SOL     OW56154  10.705   7.626   7.790 -0.3366  0.6555  0.1061
14810SOL    HW156155  10.653   7.569   7.846  0.9299 -2.0224 -1.2758
14810SOL    HW256156  10.655   7.634   7.709  0.3938 -0.2244 -0.4530
14811SOL     OW56157   9.107   3.772   6.178  0.2144  0.6492  0.3805
14811SOL    HW156158   9.085   3.739   6.265 -0.2358  1.6224  0.6568
14811SOL    HW256159   9.152   3.700   6.135  0.6369  0.2275  1.4994
14812SOL     OW56160   2.012   4.553   6.600  0.2014 -0.0010 -0.1590
14812SOL    HW156161   1.963   4.625   6.639 -1.1341 -1.1055  0.2570
14812SOL    HW256162   2.054   4.510   6.674  0.0213 -0.3637 -0.2659
14813SOL     OW56163  11.614   0.921   1.963 -0.6243 -0.2478  0.0638
14813SOL    HW156164  11.706   0.906   1.986  0.0284 -0.2495 -2.3054
14813SOL    HW256165  11.566   0.896   2.041  1.3257 -1.2332  1.0305
14814SOL     OW56166   5.605   7.475  13.211  0.1407  0.3965 -0.3703
14814SOL    HW156167   5.664   7.550  13.216 -1.6348  1.9634 -1.7088
14814SOL    HW256168   5.562   7.483  13.126 -3.3693  0.4860  1.2176
14815SOL     OW56169   1.811   4.405  12.628 -0.4946 -0.3394 -0.0889
14815SOL    HW156170   1.842   4.436  12.713 -0.7922  0.5615 -0.3000
14815SOL    HW256171   1.772   4.320  12.646 -1.9658  0.5217  0.9721
14816SOL     OW56172  10.369  12.721   3.327  1.0016 -0.5001  0.4305
14816SOL    HW156173  10.454  12.677   3.325  1.2051 -0.0971 -0.0813
14816SOL    HW256174  10.362  12.756   3.415  1.7661  0.2135  0.2276
14817SOL     OW56175   7.909  11.840   8.525 -0.0219 -0.0895  0.0497
14817SOL    HW156176   7.876  11.821   8.437 -0.3020  0.9203 -0.0757
14817SOL    HW256177   7.884  11.764   8.577  1.8138 -1.6064 -1.1413
14818SOL     OW56178   8.375   7.663   5.203 -0.3766  0.6140 -0.5930
14818SOL    HW156179   8.322   7.584   5.196  1.5302 -0.9399  1.0573
14818SOL    HW256180   8.432   7.661   5.126 -0.6834  0.6545 -0.8206
14819SOL     OW56181  10.798  10.361  13.575 -0.2200  0.6045  0.2210
14819SOL    HW156182  10.861  10.403  13.633  0.3377  0.4988 -0.3055
14819SOL    HW256183  10.849  10.331  13.501 -0.8908  0.5289 -0.2206
14820SOL     OW56184   9.730   7.124  10.793 -0.0071  0.3979  0.5240
14820SOL    HW156185   9.733   7.201  10.848 -1.2317 -0.6271  2.1308
14820SOL    HW256186   9.768   7.054  10.846  1.8409  0.0082 -1.1940
14821SOL     OW56187  12.264  13.695  12.896 -0.1423  0.1254 -0.2627
14821SOL    HW156188  12.310  13.732  12.820 -0.7125 -1.0366 -1.2167
14821SOL    HW256189  12.334  13.664  12.954  0.2987  0.0090 -0.8476
14822SOL     OW56190   4.739   9.091   0.703 -0.1422 -0.0588 -0.0084
14822SOL    HW156191   4.797   9.020   0.731 -0.9343 -1.0547 -0.7924
14822SOL    HW256192   4.697   9.121   0.784 -1.2648 -1.8559  0.1562
14823SOL     OW56193   0.054  13.519  12.442  0.2037  0.0161  0.0391
14823SOL    HW156194   0.122  13.584  12.458 -0.1417 -0.0232  1.8280
14823SOL    HW256195  -0.018  13.546  12.498 -1.4250  0.2293 -2.0355
14824SOL     OW56196   1.829  11.359   3.709  0.3260  0.1957  0.6498
14824SOL    HW156197   1.750  11.372   3.656  0.1676 -1.0610  0.5594
14824SOL    HW256198   1.834  11.438   3.763  0.4249  1.4384 -1.1225
14825SOL     OW56199  11.145  11.784   0.121  0.2562  0.9457 -0.2368
14825SOL    HW156200  11.155  11.696   0.085  0.8305  0.9573 -0.1095
14825SOL    HW256201  11.064  11.779   0.173  0.4428  0.4105  0.0103
14826SOL     OW56202   7.773   6.628  12.990 -0.0336  0.3913  0.9635
14826SOL    HW156203   7.721   6.708  12.975  0.4950  0.1245 -3.7908
14826SOL    HW256204   7.709   6.557  12.981  0.3022  0.1957  0.0501
14827SOL     OW56205   7.179   0.329   4.271 -0.3057 -0.3496  0.2707
14827SOL    HW156206   7.114   0.331   4.200 -1.3859 -1.9304  1.1446
14827SOL    HW256207   7.189   0.420   4.298 -1.4025  0.0338 -0.5684
14828SOL     OW56208  11.814  12.255   2.327 -0.1100  0.8202  0.5577
14828SOL    HW156209  11.899  12.267   2.370 -0.3869 -0.8823  1.6808
14828SOL    HW256210  11.830  12.188   2.261 -0.4079  1.1190  0.1774
14829SOL     OW56211  12.049   3.404   8.011  0.0355 -0.4738  0.1643
14829SOL    HW156212  12.021   3.354   8.087 -0.6987  1.4809  1.2577
14829SOL    HW256213  12.131   3.363   7.984  0.2097 -1.3352  1.8780
14830SOL     OW56214  12.607   9.582  11.490 -0.7949  0.6103  0.4072
14830SOL    HW156215  12.702   9.597  11.491 -0.8099  0.6844  0.8573
14830SOL    HW256216  12.578   9.624  11.409 -0.4919  0.9187  0.4522
14831SOL     OW56217  10.964   8.250   7.795  0.0949  0.4908  0.1688
14831SOL    HW156218  10.909   8.204   7.732  1.3525 -0.4937 -0.2357
14831SOL    HW256219  10.980   8.336   7.755  1.1016 -0.2202 -1.0135
14832SOL     OW56220   0.914  10.173  10.212 -0.5793 -0.0133 -0.2901
14832SOL    HW156221   0.932  10.086  10.247  0.7975  0.7600  1.0626
14832SOL    HW256222   0.990  10.195  10.159 -2.0155 -0.5772 -2.7365
14833SOL     OW56223  12.375  10.377   6.675 -0.5253 -0.8829  0.4165
14833SOL    HW156224  12.396  10.311   6.609 -0.6569 -0.9010  0.3918
14833SOL    HW256225  12.387  10.332   6.758  1.8429 -0.2267  0.4825
14834SOL     OW56226   8.793   0.747  13.133  0.4446 -0.3551  0.0665
14834SOL    HW156227   8.857   0.747  13.205 -0.9402 -2.0396  1.3923
14834SOL    HW256228   8.844   0.768  13.055  2.0920  1.1030  1.4582
14835SOL     OW56229   3.389   8.918   9.775 -0.8030  0.3998  0.1841
14835SOL    HW156230   3.295   8.934   9.780 -0.7149  0.8516  0.4044
14835SOL    HW256231   3.429   8.994   9.817 -0.3736 -0.2786  1.0265
14836SOL     OW56232  13.155   7.552  11.676  0.0838 -0.5160 -0.1261
14836SOL    HW156233  13.153   7.557  11.581  0.4148  1.8602 -0.0782
14836SOL    HW256234  13.076   7.598  11.704  0.3914 -0.5076  0.7529
14837SOL     OW56235   6.959   9.362   7.033  0.0776 -0.5881  0.2311
14837SOL    HW156236   7.016   9.393   6.963 -0.8925 -0.5932 -0.5801
14837SOL    HW256237   7.015   9.307   7.087  0.8351 -0.6036 -0.5572
14838SOL     OW56238  12.507   2.080   7.170  0.5486 -0.1022  0.1708
14838SOL    HW156239  12.541   2.120   7.090  3.4702  0.7715  1.7255
14838SOL    HW256240  12.546   1.993   7.172 -1.7815 -1.2544 -0.6676
14839SOL     OW56241   4.389   5.201  10.210 -0.1393 -0.1331 -0.3272
14839SOL    HW156242   4.308   5.237  10.175 -0.0185  0.0848 -0.3830
14839SOL    HW256243   4.427   5.272  10.261 -0.4719 -0.5470  0.5102
14840SOL     OW56244  11.220   8.357   8.176 -0.2036 -0.1826  0.3176
14840SOL    HW156245  11.137   8.334   8.219 -0.9555  0.2845 -0.8472
14840SOL    HW256246  11.202   8.348   8.083  0.2065  2.5767 -0.1047
14841SOL     OW56247   0.785   7.249  11.078  0.0856  0.1250 -0.4819
14841SOL    HW156248   0.691   7.239  11.087  0.2519 -4.1898 -1.5747
14841SOL    HW256249   0.800   7.252  10.983  1.0914  0.9255 -0.3216
14842SOL     OW56250   6.531   2.921   6.152 -0.0448  0.2791  0.2210
14842SOL    HW156251   6.623   2.895   6.154 -0.0222  0.2680 -0.5435
14842SOL    HW256252   6.521   2.965   6.068 -0.9696 -0.6259 -0.1667
14843SOL     OW56253  12.198  13.116   3.278 -0.0970  0.4278  0.2542
14843SOL    HW156254  12.256  13.188   3.252  0.1037  0.7030  1.4148
14843SOL    HW256255  12.130  13.158   3.331 -0.5339 -0.1071  0.1279
14844SOL     OW56256   2.094   3.377   0.301 -0.1934 -0.1962 -0.1973
14844SOL    HW156257   2.132   3.374   0.388 -0.5176 -3.4695 -0.0704
14844SOL    HW256258   2.000   3.383   0.315 -0.1782  0.8001 -0.4013
14845SOL     OW56259   2.935   5.848  11.995 -0.7054  0.2475  0.4010
14845SOL    HW156260   2.923   5.932  11.951  0.2741  0.1907  0.0161
14845SOL    HW256261   2.848   5.826  12.029 -1.2447  0.7953 -0.5985
14846SOL     OW56262   0.584   2.570   5.065  0.0842  0.1088  0.2649
14846SOL    HW156263   0.614   2.480   5.080 -1.7679 -0.4297  1.1801
14846SOL    HW256264   0.626   2.597   4.983  0.5305 -1.6718 -0.1307
14847SOL     OW56265  11.350  12.670   2.263 -0.3233 -0.4111  0.7573
14847SOL    HW156266  11.308  12.595   2.305 -3.0051  0.8261  0.4803
14847SOL    HW256267  11.284  12.740   2.266  0.2967  0.5571 -3.1043
14848SOL     OW56268   9.577   6.074   5.655  0.1112 -0.5189  0.1197
14848SOL    HW156269   9.598   6.092   5.563 -1.3418 -1.0932 -0.3474
14848SOL    HW256270   9.565   6.161   5.694 -0.7779 -0.2975 -0.6136
14849SOL     OW56271  12.575   1.521   9.653 -0.1648  0.6773 -0.3726
14849SOL    HW156272  12.654   1.471   9.633 -0.1083  0.6408 -0.0707
14849SOL    HW256273  12.512   1.455   9.683  0.6685  1.0032  2.3759
14850SOL     OW56274   5.691   1.522   8.415 -0.2598  0.8650  0.3293
14850SOL    HW156275   5.746   1.453   8.452 -2.1522 -1.2201 -0.5186
14850SOL    HW256276   5.622   1.536   8.481 -0.0979  1.6859  0.3302
14851SOL     OW56277  11.819   4.432   7.683 -0.0632  0.2062 -0.5480
14851SOL    HW156278  11.885   4.499   7.702 -0.7035  0.5838  0.4097
14851SOL    HW256279  11.870   4.358   7.650  0.7543  0.8036 -0.6719
14852SOL     OW56280  12.090  11.104  10.097 -0.4214 -0.0566 -0.4044
14852SOL    HW156281  12.136  11.180  10.131 -1.4802  0.3999  0.0554
14852SOL    HW256282  12.159  11.044  10.068  0.5780 -0.4982  2.5576
14853SOL     OW56283   1.643  12.603  12.163 -0.1465  0.4157 -0.2639
14853SOL    HW156284   1.734  12.578  12.179  0.5671  2.2590 -1.0683
14853SOL    HW256285   1.608  12.621  12.250  0.1741 -0.5335  0.0766
14854SOL     OW56286   8.075   6.499  10.288  0.2421  0.2372 -0.3994
14854SOL    HW156287   8.051   6.591  10.290  3.1392  1.0874  2.9950
14854SOL    HW256288   8.001   6.454  10.329  1.1438  1.9241  3.4869
14855SOL     OW56289   2.401   5.895  12.916  0.4353  0.2172  0.5383
14855SOL    HW156290   2.386   5.839  12.840  1.2356  0.5218  0.1381
14855SOL    HW256291   2.358   5.850  12.988  0.7232 -0.7126  0.1464
14856SOL     OW56292   4.070  13.464   5.435 -0.2052  1.0657  0.0666
14856SOL    HW156293   4.059  13.453   5.530 -1.9449 -0.4238 -0.2601
14856SOL    HW256294   4.164  13.450   5.421  0.1869  1.8742  1.6202
14857SOL     OW56295   3.368   9.740   2.651 -0.0372  0.1213 -0.0450
14857SOL    HW156296   3.433   9.811   2.656 -0.0885  0.1230  0.7033
14857SOL    HW256297   3.349   9.732   2.558 -0.4133  1.4356 -0.1040
14858SOL     OW56298   8.243   1.311  11.843 -0.8534  0.1819 -0.3822
14858SOL    HW156299   8.212   1.301  11.933  1.1901 -0.4532  0.3164
14858SOL    HW256300   8.193   1.384  11.808 -0.0927  2.0162  2.0523
14859SOL     OW56301   8.812  12.121   2.173  0.4320 -0.1041  0.1456
14859SOL    HW156302   8.862  12.050   2.214  0.0354  0.2905  1.3336
14859SOL    HW256303   8.867  12.149   2.100  0.3388 -2.0264 -0.7358
14860SOL     OW56304   9.022   1.426  11.973  0.1440  0.1215  0.2490
14860SOL    HW156305   8.983   1.512  11.960  2.8642  1.2546 -1.2682
14860SOL    HW256306   8.985   1.371  11.904  0.4898  0.9039 -0.5706
14861SOL     OW56307   0.702  13.364   8.553  0.0166  0.4275 -0.3698
14861SOL    HW156308   0.729  13.415   8.476  0.4781 -1.0421 -1.2347
14861SOL    HW256309   0.628  13.413   8.589 -0.4441  0.9890 -1.9671
14862SOL     OW56310   8.430  10.957   3.059 -0.1602 -0.3304 -0.2173
14862SOL    HW156311   8.479  11.031   3.024  0.1207 -0.8773 -1.0142
14862SOL    HW256312   8.490  10.882   3.049 -0.1986 -0.5764  1.1256
14863SOL     OW56313  11.565   9.549  11.800  0.6971 -0.4294 -0.4338
14863SOL    HW156314  11.508   9.511  11.732 -0.8074  1.1242 -0.1137
14863SOL    HW256315  11.629   9.600  11.751 -0.0454  0.2353 -0.7441
14864SOL     OW56316  12.728   3.403  12.567 -0.5067 -0.6461  0.3907
14864SOL    HW156317  12.758   3.415  12.477  2.7345  1.9756  1.6152
14864SOL    HW256318  12.656   3.465  12.577  0.8969  1.0726  0.2595
14865SOL     OW56319   4.080   5.157  13.408 -0.3051  0.0061  0.2481
14865SOL    HW156320   4.147   5.216  13.373  1.9351 -2.1115  0.6695
14865SOL    HW256321   4.021   5.140  13.335 -0.0010  1.3798 -0.3471
14866SOL     OW56322   5.914  10.034   0.327  0.3883  0.2552  0.4925
14866SOL    HW156323   5.991  10.087   0.346  0.0424  1.1913 -0.5998
14866SOL    HW256324   5.944   9.970   0.262 -0.1727  1.8715 -1.4320
14867SOL     OW56325   6.503   6.742   7.772 -0.0611  0.9652 -0.9586
14867SOL    HW156326   6.410   6.726   7.753  0.2280  0.4861 -2.0498
14867SOL    HW256327   6.505   6.830   7.809 -1.1928  0.2135  1.0554
14868SOL     OW56328   7.429  11.003   8.731  0.3516  0.0741  0.4052
14868SOL    HW156329   7.417  11.098   8.729  0.8602  0.1365 -0.0362
14868SOL    HW256330   7.495  10.988   8.799  0.2863  0.0420  0.4610
14869SOL     OW56331   1.157   1.164   4.279 -0.6434 -0.7028 -0.1667
14869SOL    HW156332   1.147   1.244   4.330  0.6554  0.8201 -2.1945
14869SOL    HW256333   1.251   1.152   4.270 -0.8223 -0.9566 -2.1194
14870SOL     OW56334   2.398  12.681   1.291 -0.3532 -0.7262  0.6099
14870SOL    HW156335   2.485  12.704   1.323 -0.3565  0.0293  0.0807
14870SOL    HW256336   2.344  12.676   1.370  0.0806 -0.8163  0.9019
14871SOL     OW56337   7.807   6.697   7.973 -0.2746  0.6461  0.5363
14871SOL    HW156338   7.833   6.789   7.974 -1.0609  0.8819  0.1172
14871SOL    HW256339   7.745   6.691   7.900 -0.1542 -0.2380  0.4980
14872SOL     OW56340   1.866   9.304   6.370 -0.0052 -0.2700 -0.4254
14872SOL    HW156341   1.908   9.285   6.454 -0.1513  0.8762 -0.0680
14872SOL    HW256342   1.856   9.399   6.370  0.8979 -0.1396 -2.1928
14873SOL     OW56343   0.535  13.161   4.249 -0.2876  0.0769  0.1572
14873SOL    HW156344   0.500  13.083   4.292 -0.7340  0.1655 -0.0474
14873SOL    HW256345   0.599  13.196   4.311  0.1506 -0.6300  0.1167
14874SOL     OW56346   7.757  11.387   9.581 -0.3935 -0.3086  0.7711
14874SOL    HW156347   7.733  11.296   9.599 -2.5057 -0.2954 -1.4925
14874SOL    HW256348   7.684  11.439   9.617 -0.1989  0.3424  0.2437
14875SOL     OW56349   5.096   4.436  12.606 -0.1660  0.4210  0.0418
14875SOL    HW156350   5.124   4.435  12.515 -1.2970  0.1895 -0.3202
14875SOL    HW256351   5.037   4.511  12.612  0.4935  0.9080  0.7867
14876SOL     OW56352   8.714  10.962   4.961  0.0480  0.4839 -0.5112
14876SOL    HW156353   8.735  10.932   5.049 -0.7798 -0.8285 -0.7374
14876SOL    HW256354   8.799  10.984   4.921  0.5671 -0.4634  0.0587
14877SOL     OW56355   6.078  12.435  12.241 -0.0696 -0.4356 -0.2099
14877SOL    HW156356   6.049  12.345  12.225 -1.2713 -0.2810  0.9478
14877SOL    HW256357   6.017  12.489  12.192 -1.4289 -0.1344  1.7266
14878SOL     OW56358   2.030   2.986   0.277  0.0826 -0.0966 -0.0218
14878SOL    HW156359   2.039   3.062   0.219  0.9998  0.3313  0.6326
14878SOL    HW256360   1.945   2.998   0.320  1.0380  1.6816  1.5388
14879SOL     OW56361   3.911   0.144   6.787 -0.1153 -0.2548  0.0443
14879SOL    HW156362   3.901   0.230   6.827  0.1601 -0.3313  0.2838
14879SOL    HW256363   3.982   0.103   6.837  0.5565 -0.1771 -0.8280
14880SOL     OW56364  13.186   1.551   3.696 -0.1926 -0.2182 -0.2329
14880SOL    HW156365  13.224   1.467   3.668  0.1759  0.2219 -1.0892
14880SOL    HW256366  13.211   1.559   3.788  0.5489 -0.6212 -0.3924
14881SOL     OW56367   8.630   2.860  10.724 -0.3190  0.2627 -0.5416
14881SOL    HW156368   8.674   2.944  10.733 -0.6057  0.4929 -1.2471
14881SOL    HW256369   8.636   2.820  10.811 -0.4737  1.1492 -0.1199
14882SOL     OW56370  11.922   7.619   9.908  0.4452  0.6872  0.2839
14882SOL    HW156371  11.937   7.712   9.923 -0.4477  0.6851  1.2407
14882SOL    HW256372  11.827   7.610   9.905  0.5024 -0.3302  1.1371
14883SOL     OW56373   5.425   1.340   5.001 -0.0566  0.2376 -0.1006
14883SOL    HW156374   5.396   1.252   5.022 -0.3165  0.1615 -0.7525
14883SOL    HW256375   5.439   1.382   5.086  2.8840 -1.2936  0.2897
14884SOL     OW56376  12.969   8.631  11.770 -0.8841  0.3331 -0.0436
14884SOL    HW156377  12.955   8.541  11.798 -1.7337  0.9647  1.7697
14884SOL    HW256378  12.894   8.652  11.715 -2.6005  0.9381  2.3636
14885SOL     OW56379   1.660   6.099   9.672 -0.4652  0.5055  0.5337
14885SOL    HW156380   1.699   6.110   9.759 -0.2324  0.5611  0.4202
14885SOL    HW256381   1.655   6.004   9.660  2.3662  0.4226 -0.6791
14886SOL     OW56382   0.845   2.587  13.357 -0.2363  0.5634 -0.4301
14886SOL    HW156383   0.822   2.585  13.450 -0.7810  0.8899 -0.5539
14886SOL    HW256384   0.761   2.594  13.312 -0.0407 -0.4942 -0.9901
14887SOL     OW56385   9.992  13.159   9.453 -0.0032 -0.1449  0.0448
14887SOL    HW156386   9.896  13.154   9.455  0.0200 -1.0216 -0.5669
14887SOL    HW256387  10.019  13.135   9.541 -0.3286 -0.5425  0.0406
14888SOL     OW56388  10.208  10.983   1.822  0.0555 -0.6490 -0.1541
14888SOL    HW156389  10.246  10.940   1.745  3.6228  1.2199  0.3111
14888SOL    HW256390  10.212  10.918   1.892 -1.9670 -1.9257 -1.1422
14889SOL     OW56391   8.913   9.210   9.625 -0.4674  0.1495  0.6731
14889SOL    HW156392   8.903   9.116   9.634  0.9235  0.0979  2.1823
14889SOL    HW256393   8.996   9.221   9.577 -1.5978  0.6183 -1.2765
14890SOL     OW56394   1.335   7.262   2.472  0.0152 -0.6502 -0.0937
14890SOL    HW156395   1.313   7.355   2.475 -0.5878 -0.5654 -3.2652
14890SOL    HW256396   1.428   7.259   2.493  0.0267  0.6495  0.1369
14891SOL     OW56397   6.748   9.132  12.674  0.0025  0.0674 -0.3897
14891SOL    HW156398   6.766   9.050  12.721 -2.2087 -0.2683 -0.0330
14891SOL    HW256399   6.812   9.194  12.710  0.4490 -0.9978  0.7510
14892SOL     OW56400  12.268   7.892   4.712 -0.0421 -0.2454  0.4977
14892SOL    HW156401  12.287   7.948   4.637  0.5807 -1.7503 -0.5250
14892SOL    HW256402  12.313   7.810   4.693 -0.4672 -0.9265  2.1947
14893SOL     OW56403  12.399  11.124  13.582  0.2380  0.5619 -0.2188
14893SOL    HW156404  12.345  11.178  13.524 -0.2329  0.5315  0.1836
14893SOL    HW256405  12.355  11.130  13.667 -0.2276 -1.0093 -0.3158
14894SOL     OW56406   3.475   1.806   9.275 -0.0560 -0.8609  0.5894
14894SOL    HW156407   3.447   1.813   9.366  0.2264  3.0235  0.5690
14894SOL    HW256408   3.403   1.761   9.231 -0.7128 -1.7762  2.4974
14895SOL     OW56409   2.461   2.649   3.115  0.2536 -0.0539  0.2041
14895SOL    HW156410   2.435   2.557   3.104 -0.5928  0.0745  0.9989
14895SOL    HW256411   2.553   2.646   3.138  0.3737 -0.6711 -0.3193
14896SOL     OW56412   1.832  11.780   4.350 -0.3581  0.3568  0.2524
14896SOL    HW156413   1.837  11.832   4.431  2.6792 -0.2105  0.5461
14896SOL    HW256414   1.765  11.714   4.368  0.1824  0.2988  2.3024
14897SOL     OW56415  10.669   3.698   5.557 -0.3105  0.4527 -0.0343
14897SOL    HW156416  10.591   3.736   5.597 -0.4819  1.0756 -0.9456
14897SOL    HW256417  10.653   3.701   5.463  1.0559  1.1840 -0.2803
14898SOL     OW56418   1.086  13.598   7.249  0.0117 -0.4150 -0.4364
14898SOL    HW156419   1.006  13.648   7.228  0.0502 -0.6008 -1.0449
14898SOL    HW256420   1.060  13.538   7.319  0.1052  0.8468  0.7264
14899SOL     OW56421   0.660  13.249   7.169  0.3529  0.8136 -0.1005
14899SOL    HW156422   0.665  13.154   7.177 -0.2811  0.5917 -1.9538
14899SOL    HW256423   0.597  13.275   7.236  0.0831 -0.1279  0.0241
14900SOL     OW56424   4.628  12.750   9.981 -0.3360  0.4572 -0.1804
14900SOL    HW156425   4.605  12.778  10.070  0.4825  0.3932  0.0536
14900SOL    HW256426   4.597  12.821   9.925  0.0241  0.9530  0.2427
14901SOL     OW56427   2.023   7.245   9.331  0.5586 -0.0215  0.1328
14901SOL    HW156428   2.024   7.296   9.411  1.8913  0.6848 -0.2964
14901SOL    HW256429   1.931   7.239   9.306  0.3969  3.2812 -0.4805
14902SOL     OW56430  13.250   9.258   1.596  0.5181  0.2533  0.4434
14902SOL    HW156431  13.296   9.177   1.618 -1.1669 -1.1487 -0.8894
14902SOL    HW256432  13.274   9.275   1.505 -1.0544 -0.1430 -0.0635
14903SOL     OW56433  12.789  12.027  13.017  0.7451 -0.0997  0.1744
14903SOL    HW156434  12.847  12.081  12.964  0.0127 -0.8849 -1.5019
14903SOL    HW256435  12.742  12.089  13.073 -0.1104  1.0170 -1.7140
14904SOL     OW56436   2.480   7.369  11.030  0.2096 -0.0546  0.1879
14904SOL    HW156437   2.488   7.460  10.999 -0.5272 -1.0805 -3.5348
14904SOL    HW256438   2.558   7.355  11.084 -0.5189  3.2196  2.4138
14905SOL     OW56439   2.342   5.211   6.535 -0.5583 -0.9130  0.1639
14905SOL    HW156440   2.283   5.208   6.610 -0.7682 -0.0944  0.0423
14905SOL    HW256441   2.285   5.212   6.459 -0.3546 -1.3833  0.0051
14906SOL     OW56442   4.048   3.568   4.333  0.3544 -0.6237 -0.0984
14906SOL    HW156443   3.956   3.562   4.358  0.6259 -0.1009  1.0725
14906SOL    HW256444   4.049   3.631   4.261 -0.3643 -1.7436 -1.1409
14907SOL     OW56445   4.344   9.612   4.850  0.3941  0.0776  0.7386
14907SOL    HW156446   4.338   9.666   4.771 -1.4057  0.2279  0.9296
14907SOL    HW256447   4.412   9.548   4.830 -0.1698 -0.0195 -1.0374
14908SOL     OW56448  12.254   0.092   1.580  0.2569  0.1774 -0.7654
14908SOL    HW156449  12.160   0.108   1.578  0.3933  0.9471 -1.8706
14908SOL    HW256450  12.289   0.164   1.633  0.2305 -0.1118 -0.3499
14909SOL     OW56451   0.407  13.631  12.203 -0.2674 -0.3774 -0.0390
14909SOL    HW156452   0.334  13.689  12.180 -1.0597 -0.7201  1.5039
14909SOL    HW256453   0.478  13.690  12.227 -0.7121 -0.0293  0.4397
14910SOL     OW56454   2.706   5.679   9.651  0.5730  0.0722 -0.1488
14910SOL    HW156455   2.800   5.692   9.661  0.5809  1.8187 -1.9101
14910SOL    HW256456   2.666   5.729   9.722  0.9238  1.6308 -1.0207
14911SOL     OW56457   6.232  13.521   1.627  0.5577 -0.0656  0.5029
14911SOL    HW156458   6.313  13.572   1.621  1.2722 -1.1577  0.4801
14911SOL    HW256459   6.162  13.584   1.609  1.2940  1.2000  1.8770
14912SOL     OW56460   0.377   0.117   9.745 -0.4387  0.3008 -0.3702
14912SOL    HW156461   0.343   0.116   9.834 -0.6050  0.8512 -0.4201
14912SOL    HW256462   0.314   0.066   9.694  0.3869 -1.2190  0.0620
14913SOL     OW56463  11.482   7.929   4.855  0.4993  0.4461 -0.1967
14913SOL    HW156464  11.396   7.905   4.822  1.1891  1.0870 -2.6765
14913SOL    HW256465  11.508   7.857   4.912 -2.5551  1.2684  2.5439
14914SOL     OW56466  10.076  13.179   7.884 -0.1238 -0.6157  0.2524
14914SOL    HW156467  10.152  13.137   7.922 -0.4408 -1.9804 -0.5658
14914SOL    HW256468  10.112  13.241   7.820  0.3392  0.1979  1.2859
14915SOL     OW56469   5.130   3.123   7.906  0.4893 -0.2191  0.0580
14915SOL    HW156470   5.175   3.062   7.964  0.5418 -0.4562 -0.2315
14915SOL    HW256471   5.037   3.101   7.915  0.5110 -0.3563 -0.0685
14916SOL     OW56472   3.256   0.422   9.637  0.4725 -0.3087  0.1115
14916SOL    HW156473   3.160   0.423   9.635  0.4816 -0.4414 -0.2929
14916SOL    HW256474   3.283   0.473   9.561  0.7269  0.1299  0.4815
14917SOL     OW56475   9.161   4.746   4.426  0.4868  0.0568 -0.2359
14917SOL    HW156476   9.177   4.683   4.497 -0.4676  2.4587  2.3027
14917SOL    HW256477   9.085   4.796   4.455  1.0397  2.2040 -2.1980
14918SOL     OW56478   0.093   5.759   0.077  0.1565 -0.4496  0.1547
14918SOL    HW156479   0.185   5.737   0.065  0.7816  2.1076 -0.3211
14918SOL    HW256480   0.085   5.778   0.171 -0.3256 -2.2715  0.5191
14919SOL     OW56481   7.583   2.642   3.972 -0.0655 -0.5731  0.5370
14919SOL    HW156482   7.523   2.584   3.925 -0.7885  0.5936 -0.0357
14919SOL    HW256483   7.528   2.687   4.036  0.1490  0.5737 -0.0505
14920SOL     OW56484   0.285   3.372   3.939 -0.4404 -0.6778 -0.2427
14920SOL    HW156485   0.224   3.435   3.902 -1.7274 -0.6978  1.6513
14920SOL    HW256486   0.232   3.293   3.953  0.3711 -1.1662  0.1785
14921SOL     OW56487   5.502   9.506   5.967 -0.1566  0.4157 -0.5460
14921SOL    HW156488   5.507   9.573   6.035  0.9412  1.5137 -1.6590
14921SOL    HW256489   5.591   9.498   5.934 -0.8257  0.6859 -2.5721
14922SOL     OW56490   2.722   8.890  10.778 -0.6694 -0.5788  0.3764
14922SOL    HW156491   2.759   8.862  10.694  1.8170  0.0266  1.1724
14922SOL    HW256492   2.686   8.811  10.817  2.0254 -1.8395  0.5484
14923SOL     OW56493   3.261  12.988  11.001 -0.2724 -0.4883 -0.1145
14923SOL    HW156494   3.298  12.901  11.017  1.0012 -0.2183 -1.3022
14923SOL    HW256495   3.325  13.048  11.038 -1.8015 -0.0361  1.9168
14924SOL     OW56496   2.980  10.034  13.043 -0.0408 -0.6530 -0.1237
14924SOL    HW156497   3.055  10.090  13.023  0.4847 -1.8930 -1.9510
14924SOL    HW256498   2.993  10.008  13.134  0.0795  1.5621  0.5362
14925SOL     OW56499  10.186  12.739   8.699  0.1434  0.2758  0.2673
14925SOL    HW156500  10.252  12.797   8.662 -0.4044  0.8666  0.2117
14925SOL    HW256501  10.236  12.665   8.733  0.9652  1.2818  1.3231
14926SOL     OW56502   6.289   5.625  10.467  0.2806  0.0484 -0.5014
14926SOL    HW156503   6.218   5.688  10.456 -0.8411 -1.0490  0.2068
14926SOL    HW256504   6.303   5.587  10.380  1.5320  1.7959 -1.1252
14927SOL     OW56505   9.148   8.639   7.914 -0.1265  0.6566 -0.1136
14927SOL    HW156506   9.139   8.653   7.820  1.2980  0.6664 -0.2669
14927SOL    HW256507   9.238   8.663   7.934  0.0324 -0.7230  0.9990
14928SOL     OW56508   7.876   3.868   7.896 -0.2754 -0.0835 -0.5156
14928SOL    HW156509   7.806   3.829   7.843  0.9927  1.0602 -3.2470
14928SOL    HW256510   7.957   3.830   7.860  0.7249  1.8804 -0.4709
14929SOL     OW56511  10.518   1.954  11.283 -0.3785 -0.2250 -0.3314
14929SOL    HW156512  10.475   2.013  11.220  1.2392  1.6407  0.2162
14929SOL    HW256513  10.604   1.939  11.246  0.3752  0.3885  1.1005
14930SOL     OW56514   5.142   2.914  10.243  0.1597  0.3455  0.1644
14930SOL    HW156515   5.134   2.982  10.176  3.1251 -1.1973 -1.9765
14930SOL    HW256516   5.092   2.840  10.209 -2.0138  0.8735  1.9055
14931SOL     OW56517   7.871   9.184  12.143 -0.0816 -0.4244 -0.2278
14931SOL    HW156518   7.801   9.248  12.153  1.1439  0.8225  0.7432
14931SOL    HW256519   7.829   9.108  12.102 -1.7024  0.7613 -0.8583
14932SOL     OW56520   0.772   2.037  10.871 -0.1304  0.2962  0.2366
14932SOL    HW156521   0.801   2.081  10.950  2.4694  2.6733 -1.8178
14932SOL    HW256522   0.718   1.965  10.902  0.9115  0.9550  4.1198
14933SOL     OW56523   6.222   3.130  10.474 -0.1141 -0.0927  0.1755
14933SOL    HW156524   6.175   3.087  10.403  1.0199 -0.9731 -0.0705
14933SOL    HW256525   6.298   3.074  10.491 -0.2298  0.2083  1.9339
14934SOL     OW56526   3.797   3.582  11.240  0.2858  0.6875 -0.1263
14934SOL    HW156527   3.834   3.495  11.221  0.8088  1.0848 -0.9784
14934SOL    HW256528   3.723   3.564  11.298 -1.0237 -0.5431 -2.0560
14935SOL     OW56529  10.770  10.323   1.535  0.5767  0.1962  0.0883
14935SOL    HW156530  10.812  10.407   1.518 -0.6701  0.4501 -2.0783
14935SOL    HW256531  10.748  10.289   1.449 -1.5511 -1.0138  1.0316
14936SOL     OW56532   2.916   1.629  12.499  1.2962  0.0666  0.2740
14936SOL    HW156533   2.838   1.656  12.450  2.3282  0.2635 -1.3332
14936SOL    HW256534   2.949   1.710  12.539  0.8333  0.0279  0.7429
14937SOL     OW56535  10.650   8.174   9.452  0.4967  0.0875 -0.2367
14937SOL    HW156536  10.566   8.150   9.414  1.0991 -1.7461 -0.5199
14937SOL    HW256537  10.635   8.170   9.547 -0.0222  0.9680 -0.2673
14938SOL     OW56538   0.685   5.813   8.095 -0.4272  0.2021 -0.1047
14938SOL    HW156539   0.711   5.900   8.066  1.7583  0.2118  1.7117
14938SOL    HW256540   0.762   5.758   8.080 -1.1870 -1.0483  0.3708
14939SOL     OW56541   1.634  12.538   5.283  0.0600 -0.0286 -0.0049
14939SOL    HW156542   1.684  12.583   5.215 -0.9405 -2.1368 -2.3152
14939SOL    HW256543   1.543  12.566   5.268 -0.1755 -0.5677  0.4014
14940SOL     OW56544  12.895   0.999   0.616  0.5878  0.0617 -0.0920
14940SOL    HW156545  12.805   1.005   0.584  0.6273 -0.7224 -0.3562
14940SOL    HW256546  12.944   1.059   0.560  0.4522 -0.4606 -0.7797
14941SOL     OW56547   7.900  11.050   8.728 -0.0920 -0.8342 -0.1122
14941SOL    HW156548   7.926  11.025   8.816  1.8669  0.4480 -0.2574
14941SOL    HW256549   7.827  11.111   8.741 -1.1868 -2.2273  0.4761
14942SOL     OW56550   3.677   9.615   1.647  0.1248  0.0127  0.0617
14942SOL    HW156551   3.632   9.533   1.668 -0.0985 -0.4469 -2.0206
14942SOL    HW256552   3.770   9.592   1.649  0.0529 -0.3652 -0.7606
14943SOL     OW56553   2.228   2.822   8.802  0.1325 -0.3307  0.5449
14943SOL    HW156554   2.243   2.815   8.896  1.5546  2.5086  0.6369
14943SOL    HW256555   2.147   2.773   8.787 -0.5286 -0.2674  3.3528
14944SOL     OW56556   8.477  11.628  11.929  0.2853  0.1000 -0.0542
14944SOL    HW156557   8.398  11.598  11.974  0.8210 -0.9191  0.2481
14944SOL    HW256558   8.530  11.667  11.998  0.1408  0.5782 -0.2151
14945SOL     OW56559   9.006   7.745  12.267  0.1978  0.0994  0.2632
14945SOL    HW156560   9.006   7.784  12.355 -3.0447  2.2265 -0.5012
14945SOL    HW256561   9.089   7.772  12.229  0.5662  1.3229  1.8078
14946SOL     OW56562   7.412   7.617  13.169 -0.4043 -0.2068 -0.0005
14946SOL    HW156563   7.495   7.585  13.205  0.1292  1.2053  0.0807
14946SOL    HW256564   7.421   7.712  13.171 -1.2889 -0.0686 -1.7460
14947SOL     OW56565   5.611   4.301   2.105 -0.0830 -0.2098  0.2644
14947SOL    HW156566   5.629   4.217   2.147  3.9462  1.5634  2.7083
14947SOL    HW256567   5.545   4.342   2.161  0.4098 -0.4560  1.0414
14948SOL     OW56568  12.296   0.432   4.404 -0.2109 -0.2406  0.2019
14948SOL    HW156569  12.388   0.440   4.378 -0.6224  0.4966 -1.0916
14948SOL    HW256570  12.264   0.357   4.355 -0.0837 -1.0597  1.3450
14949SOL     OW56571   6.328   0.151   8.873 -0.6589  0.4783 -0.1411
14949SOL    HW156572   6.326   0.096   8.951  0.7766  0.7197  0.0928
14949SOL    HW256573   6.267   0.221   8.891 -1.0219  0.0362  0.3839
14950SOL     OW56574   2.574  12.262  10.889 -0.2217  0.1792 -0.4903
14950SOL    HW156575   2.665  12.238  10.872  0.3482  0.3814  1.9149
14950SOL    HW256576   2.574  12.358  10.885 -0.2518  0.1934 -0.1580
14951SOL     OW56577  10.919  12.260   0.764  0.0170 -0.3476  0.2865
14951SOL    HW156578  10.952  12.318   0.833  2.7182 -0.7329 -0.5498
14951SOL    HW256579  10.995  12.245   0.708 -0.9050 -3.6785 -0.2516
14952SOL     OW56580   8.061   0.935   9.542  0.1627 -0.6860  0.6014
14952SOL    HW156581   8.082   0.854   9.589  0.1071 -1.1740 -0.1823
14952SOL    HW256582   7.976   0.962   9.576  1.1707  0.3063  2.5026
14953SOL     OW56583  11.931   6.109   1.529  0.3005  0.3395  0.1881
14953SOL    HW156584  11.937   6.147   1.442  0.2030 -1.4768 -0.6636
14953SOL    HW256585  11.891   6.177   1.583 -0.5445  1.1454 -1.4037
14954SOL     OW56586   8.387  11.001   0.630  0.2117 -0.4374  0.1427
14954SOL    HW156587   8.308  11.049   0.610 -1.1576 -1.5310  2.4449
14954SOL    HW256588   8.433  11.055   0.695  0.7190 -0.3713 -0.2683
14955SOL     OW56589   0.453  12.289   0.416  0.4210 -0.5061 -0.7551
14955SOL    HW156590   0.542  12.290   0.451  0.1738 -0.0466 -0.1331
14955SOL    HW256591   0.401  12.248   0.484 -0.2086  1.1286 -0.2120
14956SOL     OW56592   7.091   5.333  13.660  0.7393 -0.1794  0.5875
14956SOL    HW156593   7.165   5.376  13.704 -0.0562  1.2787  0.5403
14956SOL    HW256594   7.059   5.270  13.726  0.7636  0.6082  1.3721
14957SOL     OW56595  12.667  13.346   4.536  0.0876 -0.1550 -0.3225
14957SOL    HW156596  12.756  13.372   4.561 -0.6083 -0.1913  2.5408
14957SOL    HW256597  12.669  13.344   4.440  2.9498  0.5472 -0.3820
14958SOL     OW56598   4.091   8.515   0.118 -0.0014  0.0744  0.1309
14958SOL    HW156599   4.136   8.550   0.041  2.3009 -1.3117  0.7161
14958SOL    HW256600   4.141   8.548   0.193 -0.2584 -1.0964  0.8571
14959SOL     OW56601  13.214   5.064   4.995 -0.7016 -0.0343 -0.3351
14959SOL    HW156602  13.189   5.156   4.982  0.0348  0.1108 -0.7941
14959SOL    HW256603  13.258   5.064   5.080  0.1675  0.2248 -0.7810
14960SOL     OW56604   3.615   8.892   8.883 -0.0137  0.0377  0.3050
14960SOL    HW156605   3.707   8.918   8.882  0.0918 -0.3420 -0.1946
14960SOL    HW256606   3.574   8.951   8.946  0.3600  0.9409 -0.2824
14961SOL     OW56607  10.015   0.603  10.667  0.1616 -0.1390 -0.1661
14961SOL    HW156608   9.951   0.598  10.596 -0.6346 -1.5752  0.5986
14961SOL    HW256609  10.033   0.696  10.676 -0.7620  0.1876 -1.3346
14962SOL     OW56610   5.099   3.264   0.476  0.0894  0.3383  0.6656
14962SOL    HW156611   5.179   3.301   0.440 -1.1485  3.0626  0.4646
14962SOL    HW256612   5.042   3.340   0.492 -2.1981 -1.4085  1.4366
14963SOL     OW56613   3.998   7.616   9.745  0.5495 -0.2454  0.1511
14963SOL    HW156614   3.957   7.653   9.823 -0.4112 -1.0315  0.0365
14963SOL    HW256615   4.054   7.687   9.712 -0.7643  0.9017  0.2689
14964SOL     OW56616   3.204   2.262   7.140 -0.5829  0.1468 -0.1425
14964SOL    HW156617   3.143   2.287   7.070 -0.0856 -1.1294 -1.0645
14964SOL    HW256618   3.245   2.344   7.166 -0.6785  0.6369 -1.4633
14965SOL     OW56619  12.338  13.053   8.308 -0.7685 -0.4782  0.1023
14965SOL    HW156620  12.369  13.026   8.222  1.8500  0.0856  0.7614
14965SOL    HW256621  12.266  12.993   8.328 -0.5358 -1.4992 -1.9092
14966SOL     OW56622   5.562   2.195   8.166 -0.4330 -0.0868 -0.0716
14966SOL    HW156623   5.537   2.236   8.248 -0.2447  0.8981 -0.4919
14966SOL    HW256624   5.652   2.224   8.150 -0.6050  0.0639 -0.8183
14967SOL     OW56625   9.325  12.846  12.451 -0.0533 -0.2054 -0.1890
14967SOL    HW156626   9.307  12.792  12.528  0.9584 -0.7189 -0.3083
14967SOL    HW256627   9.367  12.788  12.389  2.2972  0.9901  0.1852
14968SOL     OW56628  11.288   3.095   4.871  0.3808 -0.4418 -0.1445
14968SOL    HW156629  11.335   3.103   4.954  2.0146 -3.9697 -0.5744
14968SOL    HW256630  11.212   3.041   4.891  1.5820 -2.6114 -1.0892
14969SOL     OW56631   7.973   9.510  12.627 -1.2291  0.2724 -0.3483
14969SOL    HW156632   8.067   9.513  12.643 -1.3925  0.2279  0.6833
14969SOL    HW256633   7.961   9.437  12.567 -0.4149  1.4200 -1.9873
14970SOL     OW56634  11.381  13.114   3.348  0.2417 -0.2045 -0.5946
14970SOL    HW156635  11.415  13.027   3.370  0.7038  0.0962 -0.1395
14970SOL    HW256636  11.438  13.145   3.277  0.6000  0.0819 -0.1827
14971SOL     OW56637   2.019   9.760   3.097  0.1528  0.3440 -0.7399
14971SOL    HW156638   2.101   9.731   3.057  0.8025  0.5091  0.4393
14971SOL    HW256639   2.039   9.769   3.190 -1.3124  0.0324 -0.3698
14972SOL     OW56640   8.059   6.747   1.812 -0.3804 -0.5180  0.5500
14972SOL    HW156641   8.090   6.672   1.760 -1.8484 -0.1819 -0.9187
14972SOL    HW256642   7.997   6.709   1.873 -2.0380 -0.4241 -0.9964
14973SOL     OW56643   3.813   5.482   5.663  0.3563  0.4271 -0.0387
14973SOL    HW156644   3.777   5.530   5.589  0.1919 -2.2680 -1.8740
14973SOL    HW256645   3.745   5.419   5.686  0.9273  0.3543  1.5803
14974SOL     OW56646  10.628   5.406  12.689  0.5145  0.5792  0.2339
14974SOL    HW156647  10.698   5.354  12.650  0.9373 -0.4377  2.2220
14974SOL    HW256648  10.667   5.444  12.768 -0.8694  0.8018  0.8407
14975SOL     OW56649   9.790   6.343   9.518  0.2611  0.1239  0.3797
14975SOL    HW156650   9.866   6.284   9.517  0.0477 -0.3068  2.9670
14975SOL    HW256651   9.738   6.316   9.442  1.2729 -1.5319  0.2275
14976SOL     OW56652  12.789  10.066  13.321 -0.4215  0.4428  0.2257
14976SOL    HW156653  12.712  10.089  13.373 -1.2621  1.5710 -1.4416
14976SOL    HW256654  12.756  10.005  13.254  0.2422  0.5116 -0.1749
14977SOL     OW56655   0.234   7.255   0.001 -0.1496 -0.4526 -0.0583
14977SOL    HW156656   0.170   7.308  -0.048 -0.8722 -1.9610 -0.8070
14977SOL    HW256657   0.229   7.290   0.090 -3.8335 -1.9902  0.5263
14978SOL     OW56658   9.706   3.214   9.491  0.1452  0.3126 -0.2703
14978SOL    HW156659   9.671   3.127   9.472  0.1665  0.3851 -0.6509
14978SOL    HW256660   9.636   3.258   9.540  0.7835 -0.4885  1.4228
14979SOL     OW56661   0.488   9.278  11.496  0.9492  0.4816  0.3681
14979SOL    HW156662   0.534   9.362  11.495  0.0700  1.0533  2.5357
14979SOL    HW256663   0.458   9.268  11.586 -0.2798 -1.4593 -0.1948
14980SOL     OW56664   6.771   6.375   6.500  0.1165 -0.0570 -0.0121
14980SOL    HW156665   6.708   6.388   6.571 -1.6305 -1.8024 -1.1411
14980SOL    HW256666   6.845   6.433   6.522 -1.6553  1.7385  1.6057
14981SOL     OW56667   9.883   1.544   0.038  0.2580  0.5325 -0.3472
14981SOL    HW156668   9.815   1.599  -0.000  0.4856  0.7228 -0.4865
14981SOL    HW256669   9.900   1.477  -0.029 -1.6161 -1.1130  0.7204
14982SOL     OW56670   6.944   1.367   6.735  0.1141 -0.0517 -0.4943
14982SOL    HW156671   6.873   1.318   6.693  1.5291 -1.8154 -0.9657
14982SOL    HW256672   6.899   1.431   6.790 -1.8230 -0.3440 -1.6263
14983SOL     OW56673   1.220   8.318   4.983 -0.2523  0.3706  0.3352
14983SOL    HW156674   1.158   8.276   5.042  0.9429 -0.3635  1.0994
14983SOL    HW256675   1.168   8.383   4.937 -1.5146  0.0169  1.2056
14984SOL     OW56676   6.428  10.992   7.696 -0.1972 -0.0573  0.0024
14984SOL    HW156677   6.397  10.984   7.786  0.1665 -1.0129  0.0535
14984SOL    HW256678   6.417  10.904   7.659 -1.2956  0.5555 -1.2064
14985SOL     OW56679   3.065   5.665   8.149  0.3360 -0.3209 -0.0625
14985SOL    HW156680   3.021   5.633   8.071 -0.1046 -1.6363  0.6831
14985SOL    HW256681   2.999   5.716   8.196  0.5179  0.2311 -0.3943
14986SOL     OW56682   8.702  13.741  13.152  0.0265  0.2956 -0.2950
14986SOL    HW156683   8.753  13.820  13.167  1.0626 -0.6625  1.8022
14986SOL    HW256684   8.669  13.749  13.063  1.4856  2.2836 -0.7175
14987SOL     OW56685   3.183  11.188   8.682 -0.7114  0.6523  0.2749
14987SOL    HW156686   3.192  11.128   8.607  1.7741 -0.1464  1.1085
14987SOL    HW256687   3.088  11.194   8.696 -1.4686  2.4052 -4.0786
14988SOL     OW56688   1.164   9.838   4.293 -0.2253  0.4445 -0.2639
14988SOL    HW156689   1.121   9.764   4.336 -1.0150  1.5313  0.8751
14988SOL    HW256690   1.242   9.800   4.252 -1.5522 -1.3515 -1.2767
14989SOL     OW56691   3.727   7.287   1.114 -1.2859  0.2163  0.1155
14989SOL    HW156692   3.727   7.375   1.152  0.1747 -0.9713  3.1281
14989SOL    HW256693   3.805   7.286   1.058 -0.7863  0.5801  0.7822
14990SOL     OW56694   0.742   4.408   1.515 -0.1229 -0.6328  0.5432
14990SOL    HW156695   0.703   4.443   1.435 -0.9136 -2.8296 -0.0944
14990SOL    HW256696   0.723   4.314   1.512  2.4335 -1.2798  1.8352
14991SOL     OW56697   9.391   8.032   2.581 -0.1959  0.4086 -0.0402
14991SOL    HW156698   9.462   8.050   2.520  2.7752  0.9990  3.2244
14991SOL    HW256699   9.362   8.118   2.612  1.8424  0.2226  2.8091
14992SOL     OW56700   8.085  11.866  12.040 -0.5115  0.0800  0.4064
14992SOL    HW156701   8.034  11.821  11.972 -0.5960  0.9379 -0.1156
14992SOL    HW256702   8.027  11.937  12.070 -0.7744 -0.7287  1.9219
14993SOL     OW56703  11.595  13.303   7.437 -0.0925  0.5935 -0.0320
14993SOL    HW156704  11.527  13.369   7.451  0.9468  1.5049  0.8308
14993SOL    HW256705  11.624  13.278   7.525 -0.2704 -0.8417 -0.3451
14994SOL     OW56706  11.910   1.115   2.284 -0.7653  0.1745  0.0229
14994SOL    HW156707  11.852   1.190   2.272  1.4072  2.4847  2.5335
14994SOL    HW256708  11.854   1.047   2.320 -2.6512  0.8186 -1.5133
14995SOL     OW56709   5.406   1.055   8.024 -0.5924 -0.3755 -0.1492
14995SOL    HW156710   5.393   1.149   8.037  0.5319 -0.1892 -0.3020
14995SOL    HW256711   5.495   1.038   8.056 -1.4823 -1.7702  1.8241
14996SOL     OW56712   7.071   2.711   7.138 -0.1532 -0.2267 -0.1805
14996SOL    HW156713   7.148   2.766   7.121 -0.9632  1.0105 -0.0460
14996SOL    HW256714   7.106   2.624   7.156  1.2275  0.4020  0.2917
14997SOL     OW56715   6.197   0.716   9.270 -0.0177  0.3601  0.2298
14997SOL    HW156716   6.251   0.681   9.341 -0.8617  0.8745  1.1675
14997SOL    HW256717   6.254   0.778   9.224  0.6878 -0.3323  0.1575
14998SOL     OW56718   2.316   5.031   4.996 -0.2832  0.1455  0.8813
14998SOL    HW156719   2.357   5.028   5.082 -0.7216 -0.1964  1.0834
14998SOL    HW256720   2.270   4.947   4.989  1.4480 -0.7548 -0.5327
14999SOL     OW56721  11.409  12.394  11.012 -0.1695 -0.0490  0.2900
14999SOL    HW156722  11.323  12.389  10.970  0.3877  0.4899 -0.9654
14999SOL    HW256723  11.469  12.355  10.947  0.9416  2.2001 -0.1161
15000SOL     OW56724   9.891   4.791   7.744  0.3245 -0.4785 -0.3499
15000SOL    HW156725   9.966   4.851   7.747  1.0623 -1.4144  0.8777
15000SOL    HW256726   9.822   4.837   7.793  0.1133  0.3274 -1.3678
15001SOL     OW56727   2.891  11.546  10.081 -0.2332  0.0954  0.0980
15001SOL    HW156728   2.914  11.500  10.001  0.0971  0.8507 -0.2575
15001SOL    HW256729   2.930  11.494  10.151 -0.4553 -0.5249 -0.2337
15002SOL     OW56730  12.429   8.674   5.877 -0.0028  0.7584  0.4020
15002SOL    HW156731  12.457   8.714   5.794  1.3820 -1.7057 -0.4530
15002SOL    HW256732  12.335   8.663   5.867 -0.3732  3.2617  0.5111
15003SOL     OW56733   5.475   0.691   8.152 -0.1831  0.2650 -0.3097
15003SOL    HW156734   5.532   0.764   8.177 -0.6023  0.6278 -0.3990
15003SOL    HW256735   5.468   0.698   8.057 -0.2671  0.1414 -0.3118
15004SOL     OW56736  12.377   9.751  11.302  0.2679 -0.5182 -0.0348
15004SOL    HW156737  12.309   9.725  11.240 -0.7818 -0.5223  1.0869
15004SOL    HW256738  12.458   9.719  11.263 -0.1753  0.6788 -2.0775
15005SOL     OW56739   6.349   9.042   8.234 -0.0587  0.2503 -0.1681
15005SOL    HW156740   6.311   9.044   8.321  0.9731 -0.6651  0.3268
15005SOL    HW256741   6.275   9.057   8.175 -1.1534 -1.1730  0.7688
15006SOL     OW56742   5.331   1.627   5.030  0.4392 -0.2327 -0.5731
15006SOL    HW156743   5.387   1.611   4.954 -0.1765 -1.1620 -0.8467
15006SOL    HW256744   5.302   1.540   5.057  0.6437  0.0827  0.7319
15007SOL     OW56745   9.957  12.959  11.722  0.2573  0.5247  0.9679
15007SOL    HW156746   9.881  12.938  11.776  0.0261 -0.3436  0.3240
15007SOL    HW256747   9.921  12.975  11.635  0.4570  3.2705  1.2901
15008SOL     OW56748  13.313   4.756   7.204  0.6878  0.2851  0.2981
15008SOL    HW156749  13.310   4.675   7.153  0.0413  1.3326 -1.4084
15008SOL    HW256750  13.307   4.727   7.295  0.3851 -1.5753 -0.2678
15009SOL     OW56751   1.061   5.190   1.658 -0.2097 -0.0305  0.3027
15009SOL    HW156752   1.067   5.271   1.607 -0.7926  0.0847  0.4065
15009SOL    HW256753   0.977   5.151   1.633 -1.0288  0.5740  1.9213
15010SOL     OW56754   6.556   4.818  10.066  0.1786  0.8534  0.0112
15010SOL    HW156755   6.630   4.835  10.008  0.7530  0.7907  0.7073
15010SOL    HW256756   6.519   4.904  10.084  1.2071  1.0949  1.0983
15011SOL     OW56757   4.260  13.119  11.520 -0.2205  0.6586  0.5816
15011SOL    HW156758   4.215  13.070  11.589 -2.1587 -0.8539 -1.6401
15011SOL    HW256759   4.203  13.193  11.502 -1.2855 -0.5558 -1.3458
15012SOL     OW56760  11.371  11.543   8.953  0.1470 -0.2411  0.0916
15012SOL    HW156761  11.317  11.615   8.920 -0.2873 -1.4105 -1.9249
15012SOL    HW256762  11.449  11.586   8.987  0.1419  1.1822 -1.5379
15013SOL     OW56763   1.796   8.729   8.651  0.2314 -0.3235  0.1810
15013SOL    HW156764   1.765   8.664   8.588 -0.8162  0.2080  0.1182
15013SOL    HW256765   1.887   8.706   8.667  0.6318 -0.3249 -1.7483
15014SOL     OW56766  11.791   8.480   5.745  0.4535  0.6548  0.0551
15014SOL    HW156767  11.795   8.416   5.816 -0.2477  0.5440  0.0028
15014SOL    HW256768  11.711   8.457   5.697  1.2677  0.3156 -1.1647
15015SOL     OW56769   4.303   1.051  10.739  0.3506 -0.2182  0.0552
15015SOL    HW156770   4.224   1.101  10.715  0.2447 -0.0522  0.7373
15015SOL    HW256771   4.327   1.085  10.825  0.6847 -0.8651  0.2169
15016SOL     OW56772   2.954   8.169  12.040  0.1581  0.1390  0.5466
15016SOL    HW156773   3.012   8.143  11.968  0.7225  0.6712  0.7945
15016SOL    HW256774   2.960   8.264  12.043 -0.5289  0.1810  0.7557
15017SOL     OW56775   0.894   4.586  13.052  0.8927 -0.0181 -0.1888
15017SOL    HW156776   0.955   4.594  13.126  2.8932 -2.0331 -1.4762
15017SOL    HW256777   0.922   4.506  13.007 -4.3972 -2.6996  0.5524
15018SOL     OW56778   3.583  11.610   2.134  0.2175  0.9533  0.3328
15018SOL    HW156779   3.626  11.532   2.101 -0.8713  0.4329  0.1070
15018SOL    HW256780   3.509  11.624   2.075  1.1443  2.9515 -0.4685
15019SOL     OW56781   0.448   4.981  12.260  0.1247  0.5297  0.9036
15019SOL    HW156782   0.364   4.963  12.301  0.0667 -0.1303  0.5082
15019SOL    HW256783   0.506   5.004  12.333 -0.3188  0.6858  1.2083
15020SOL     OW56784  11.291   8.261  12.232  0.3186  0.1916 -0.4335
15020SOL    HW156785  11.256   8.172  12.241 -0.9729  0.7740  0.4749
15020SOL    HW256786  11.228   8.307  12.178 -0.5435  1.3266  1.4378
15021SOL     OW56787  11.312  10.036   1.017  0.5869 -0.4284 -0.6523
15021SOL    HW156788  11.245  10.104   1.026  0.0894 -0.6908 -2.0959
15021SOL    HW256789  11.395  10.083   1.030  0.1746  0.0244  0.4935
15022SOL     OW56790   5.458   6.760  11.327  0.4585  0.2751  0.5345
15022SOL    HW156791   5.389   6.826  11.331 -0.2241 -0.4596  1.1622
15022SOL    HW256792   5.444   6.705  11.404  0.4229 -1.1718 -0.4658
15023SOL     OW56793  12.750   6.576   4.818 -0.3589  0.3947 -0.1402
15023SOL    HW156794  12.814   6.637   4.854  1.4791  0.2092 -2.7577
15023SOL    HW256795  12.707   6.625   4.748 -1.3075 -0.2773 -0.0459
15024SOL     OW56796   6.066   1.923   5.775  0.3263  0.2153  0.0737
15024SOL    HW156797   6.010   1.981   5.828 -1.3010 -2.0644  1.0419
15024SOL    HW256798   6.155   1.942   5.805 -0.2674  1.2267  1.3294
15025SOL     OW56799   7.036  10.156   0.465 -0.5370  0.0557  0.0626
15025SOL    HW156800   7.005  10.220   0.529 -1.4205 -0.6494  0.3788
15025SOL    HW256801   6.955  10.122   0.425  0.0151  0.9107 -1.8728
15026SOL     OW56802   7.024   9.146   8.415 -0.3848 -0.1324 -0.4180
15026SOL    HW156803   7.049   9.188   8.333  2.2637 -0.1139  0.3235
15026SOL    HW256804   7.023   9.218   8.479  0.4460 -0.5904  0.1202
15027SOL     OW56805   0.567   6.665  13.560 -0.0136  0.2116  0.0245
15027SOL    HW156806   0.548   6.609  13.636 -1.1536  0.1332 -0.3004
15027SOL    HW256807   0.569   6.753  13.596  0.5201  0.0848  0.3210
15028SOL     OW56808   9.327  13.098   1.538  0.0408 -0.1794  0.1537
15028SOL    HW156809   9.304  13.135   1.453  1.0724  2.0643  0.7805
15028SOL    HW256810   9.414  13.060   1.525  0.2033  0.1734  0.2230
15029SOL     OW56811   3.951   0.625   3.198  0.5297 -0.7468 -0.1352
15029SOL    HW156812   3.982   0.677   3.272 -1.8776 -1.5974  1.5701
15029SOL    HW256813   3.999   0.542   3.205 -0.0643 -1.0263  0.8380
15030SOL     OW56814   2.149   0.029  11.115  0.4921 -0.2513  0.1292
15030SOL    HW156815   2.216   0.063  11.175 -1.6375  1.3693  1.7459
15030SOL    HW256816   2.116  -0.050  11.158  1.0784 -0.8302 -0.4723
15031SOL     OW56817   9.840  12.011  13.733 -0.1125 -0.3880 -0.4277
15031SOL    HW156818   9.868  11.983  13.820  0.3193 -0.3973 -0.5666
15031SOL    HW256819   9.780  11.942  13.704 -0.6582 -0.1277  0.0658
15032SOL     OW56820   1.779   2.114   7.403 -0.4043  0.3907  0.3304
15032SOL    HW156821   1.691   2.152   7.410 -0.4995  0.3733 -0.7337
15032SOL    HW256822   1.819   2.132   7.488 -1.8610 -0.6904  1.3137
15033SOL     OW56823   6.088   1.559  13.156  0.0297 -1.0213  0.7285
15033SOL    HW156824   6.113   1.621  13.088 -0.5144 -1.2906  0.2676
15033SOL    HW256825   6.140   1.481  13.137  0.7839 -0.6794  1.3648
15034SOL     OW56826   0.538   5.587   6.259 -0.3363 -0.7185  0.4031
15034SOL    HW156827   0.517   5.601   6.167 -1.9883 -0.0960  0.8152
15034SOL    HW256828   0.633   5.580   6.262 -0.2481 -0.6882 -1.3325
15035SOL     OW56829   4.438   8.813   4.229  0.7624 -0.2669  0.2464
15035SOL    HW156830   4.348   8.782   4.234  0.5125  0.1143 -1.2938
15035SOL    HW256831   4.431   8.902   4.194  1.7733 -0.6197 -0.9199
15036SOL     OW56832  11.525   9.690   4.933  0.0349  0.0691 -0.4154
15036SOL    HW156833  11.571   9.616   4.893 -0.5796 -0.3550 -0.3611
15036SOL    HW256834  11.434   9.659   4.942 -0.3647  1.0476 -0.9494
15037SOL     OW56835  10.528   1.278   1.595  0.0002  0.7582  0.0202
15037SOL    HW156836  10.554   1.349   1.536 -0.6413  0.2606 -0.8782
15037SOL    HW256837  10.597   1.275   1.661  1.2653  0.6737 -1.2722
15038SOL     OW56838   3.200   4.707   0.425  0.1650  0.3914  0.4522
15038SOL    HW156839   3.196   4.727   0.331  1.2481 -0.4727  0.2045
15038SOL    HW256840   3.270   4.763   0.458 -0.2389  0.7212  0.7667
15039SOL     OW56841   9.621  10.386  12.738  0.5454 -0.2389 -0.4703
15039SOL    HW156842   9.586  10.340  12.662 -1.3952  1.0960 -0.4391
15039SOL    HW256843   9.605  10.479  12.720  0.9087  0.1713  1.1560
15040SOL     OW56844   5.574  11.683   1.138  0.5313 -0.2327  0.0604
15040SOL    HW156845   5.652  11.679   1.082 -0.7844 -1.2037 -1.8258
15040SOL    HW256846   5.603  11.728   1.217  2.5404  1.0882 -1.3465
15041SOL     OW56847   0.585  11.522   5.643  0.0404 -0.0793 -0.5824
15041SOL    HW156848   0.616  11.610   5.625 -0.9025  0.0275 -1.7986
15041SOL    HW256849   0.576  11.481   5.556  0.2653 -1.3052 -0.0580
15042SOL     OW56850  10.895   5.856  12.051 -0.1724  0.2531 -0.2437
15042SOL    HW156851  10.936   5.783  12.097  0.2461  0.2425 -0.6218
15042SOL    HW256852  10.832   5.891  12.114 -1.4089 -1.3031 -0.5605
15043SOL     OW56853   4.780   6.784   9.036  0.5882 -0.0972  0.1476
15043SOL    HW156854   4.693   6.823   9.050  0.5444  0.0580 -0.5059
15043SOL    HW256855   4.809   6.757   9.123 -0.8549 -1.7289  0.1719
15044SOL     OW56856   2.093   1.432   8.162 -0.0351  0.4714 -0.7736
15044SOL    HW156857   2.098   1.439   8.067 -0.5516 -0.3746 -0.8740
15044SOL    HW256858   2.002   1.407   8.179  0.4789 -1.1051 -0.1853
15045SOL     OW56859   8.169  10.835   2.446  0.7228  0.0927 -0.1515
15045SOL    HW156860   8.239  10.824   2.382  0.8046 -0.4391  0.0258
15045SOL    HW256861   8.210  10.879   2.521  1.2008 -1.4281  0.5083
15046SOL     OW56862   3.721  10.068  11.697  0.1837  0.2718  0.2881
15046SOL    HW156863   3.764   9.983  11.683  0.6617  0.5990 -0.3114
15046SOL    HW256864   3.713  10.104  11.608 -0.2108  0.7561  0.5237
15047SOL     OW56865  10.581   5.100   4.161  0.5350  0.1615 -0.2262
15047SOL    HW156866  10.501   5.068   4.203  0.4547 -2.2652 -1.9962
15047SOL    HW256867  10.642   5.115   4.234 -1.0626  0.8010  1.0540
15048SOL     OW56868   9.779   7.876   4.706 -0.1719 -0.2271  0.1004
15048SOL    HW156869   9.729   7.897   4.628 -1.3780  1.5430  1.2781
15048SOL    HW256870   9.745   7.790   4.734 -0.8622 -0.1344 -0.4237
15049SOL     OW56871   8.369  11.750   3.983  0.1125  0.0775 -0.5666
15049SOL    HW156872   8.331  11.783   4.064  1.0849  0.3598 -0.2070
15049SOL    HW256873   8.462  11.771   3.990  0.3020 -0.3772 -1.5193
15050SOL     OW56874  10.590   3.371  11.360  0.5483 -0.3311 -0.1931
15050SOL    HW156875  10.661   3.335  11.305  0.5503 -0.7447  0.0760
15050SOL    HW256876  10.604   3.466  11.358 -0.9334 -0.0646 -2.9701
15051SOL     OW56877   0.205   0.487   8.618 -0.2279  0.5945 -0.3687
15051SOL    HW156878   0.192   0.506   8.525 -1.7666  1.8507  0.0454
15051SOL    HW256879   0.117   0.494   8.656  0.5384  1.3227  1.3824
15052SOL     OW56880   7.899   1.467   9.581 -0.5339 -0.4320  0.4274
15052SOL    HW156881   7.936   1.549   9.550 -0.5674 -0.1592  1.0794
15052SOL    HW256882   7.804   1.483   9.584 -0.4628 -0.0859  1.6390
15053SOL     OW56883   4.879  12.718   0.038  0.4204 -0.1894  0.4423
15053SOL    HW156884   4.949  12.758  -0.013  1.6646 -2.1198  0.5142
15053SOL    HW256885   4.832  12.792   0.076  2.3640  1.2039  0.3250
15054SOL     OW56886   3.420   3.324   1.103  0.3955  0.0326 -0.2584
15054SOL    HW156887   3.384   3.257   1.045  0.0890 -0.9585  1.0424
15054SOL    HW256888   3.511   3.299   1.116  0.6606  0.6575 -0.8715
15055SOL     OW56889  11.698  13.293   1.606  0.2823  0.9382 -0.3685
15055SOL    HW156890  11.786  13.302   1.569  0.3868  2.1189  0.1426
15055SOL    HW256891  11.646  13.253   1.536  1.3123 -0.1478 -0.5376
15056SOL     OW56892  11.161  12.986   7.231 -0.6888  0.4445 -0.0904
15056SOL    HW156893  11.121  12.993   7.145  1.2736 -2.1006 -1.3470
15056SOL    HW256894  11.226  13.058   7.233 -1.7941  1.4711 -0.0454
15057SOL     OW56895   0.637  11.313  11.340 -0.0138 -0.0639  0.3605
15057SOL    HW156896   0.549  11.290  11.310  0.0977  0.4803 -0.4147
15057SOL    HW256897   0.676  11.229  11.365  0.0592 -0.6438 -1.5396
15058SOL     OW56898  10.024   6.942  13.681  0.4166 -0.1543 -0.7159
15058SOL    HW156899  10.069   6.994  13.749  1.0046 -1.3188 -0.1870
15058SOL    HW256900  10.047   6.986  13.599 -1.5014  2.1527 -0.1136
15059SOL     OW56901   3.796   4.761  12.397 -0.0365 -0.4377 -0.2469
15059SOL    HW156902   3.707   4.785  12.372  0.6548  0.6365 -1.8943
15059SOL    HW256903   3.808   4.673  12.361 -0.0047 -0.0324 -1.2725
15060SOL     OW56904  11.503  12.310   9.555  0.1412  0.1945 -0.2753
15060SOL    HW156905  11.530  12.368   9.484 -3.8862  1.0673 -1.3130
15060SOL    HW256906  11.501  12.223   9.516  0.9605  0.1693 -0.2786
15061SOL     OW56907   8.000  12.545  11.433  0.1576 -0.0357  0.1454
15061SOL    HW156908   8.006  12.541  11.528  0.4689  0.1744  0.1327
15061SOL    HW256909   7.976  12.456  11.407  4.0472 -1.2373  0.1125
15062SOL     OW56910  13.304  12.104  11.762  0.2928 -0.1215  0.0523
15062SOL    HW156911  13.308  12.199  11.775  0.8350  0.0124 -1.0074
15062SOL    HW256912  13.356  12.068  11.834 -0.9076  0.2983  1.1747
15063SOL     OW56913  11.202   7.765   1.971 -0.0677 -0.1508  0.2130
15063SOL    HW156914  11.237   7.677   1.960 -1.5728 -0.7017 -0.4733
15063SOL    HW256915  11.277   7.818   1.997  1.4904 -1.0360 -2.2125
15064SOL     OW56916   8.020   5.150  11.773  0.4147  0.1603 -0.3548
15064SOL    HW156917   7.942   5.097  11.755  0.1795 -0.4073  2.0260
15064SOL    HW256918   8.020   5.160  11.868  3.3309  0.0354 -0.2740
15065SOL     OW56919   1.412   0.183   6.965 -0.1893  0.2754 -0.1482
15065SOL    HW156920   1.408   0.187   7.060 -2.0791 -0.0050 -0.1736
15065SOL    HW256921   1.464   0.105   6.946  1.1458  0.9494  0.6199
15066SOL     OW56922   2.261   1.941   4.333  0.0776 -0.1530  0.3351
15066SOL    HW156923   2.249   1.846   4.327 -1.5793  0.0912 -0.8174
15066SOL    HW256924   2.181   1.978   4.295  0.2701  1.7217  1.6259
15067SOL     OW56925   4.487   2.807   5.553 -0.0158  0.0808 -0.4292
15067SOL    HW156926   4.525   2.887   5.515 -0.6884  1.0225  0.7855
15067SOL    HW256927   4.552   2.778   5.618 -0.5978  0.7669  0.4932
15068SOL     OW56928  10.409   9.674  11.333 -0.7622 -0.0090  0.1371
15068SOL    HW156929  10.503   9.693  11.339 -0.5360 -0.8433 -0.5377
15068SOL    HW256930  10.375   9.738  11.272 -0.4013 -0.4175 -0.5094
15069SOL     OW56931  10.976  10.244   0.027  0.5201  0.3569 -0.2395
15069SOL    HW156932  10.963  10.272   0.117  1.5423  1.6075 -0.4505
15069SOL    HW256933  11.045  10.179   0.031 -0.0769 -0.2730 -0.0298
15070SOL     OW56934   9.933   9.784   4.987  0.6413 -0.1830  0.1542
15070SOL    HW156935   9.855   9.785   5.043  0.5340  0.8344  0.0101
15070SOL    HW256936   9.899   9.763   4.899  0.4437  0.7650 -0.0073
15071SOL     OW56937  10.804   8.257   6.674  0.4693 -0.2253 -0.2128
15071SOL    HW156938  10.818   8.337   6.723  0.5135 -0.1939 -0.2759
15071SOL    HW256939  10.718   8.226   6.702 -0.4207  0.8750 -1.6047
15072SOL     OW56940   0.882  11.470   5.441  0.3355 -0.2661  0.2458
15072SOL    HW156941   0.809  11.427   5.397  0.2867 -1.1784  1.1910
15072SOL    HW256942   0.844  11.550   5.478  0.1073 -0.1060 -0.3274
15073SOL     OW56943  10.383   1.858   2.331 -0.5020  0.3186 -0.0024
15073SOL    HW156944  10.471   1.842   2.295 -0.6384  0.1677 -0.2674
15073SOL    HW256945  10.331   1.886   2.257 -1.5551 -2.8305 -0.6032
15074SOL     OW56946   2.926   9.961  13.667  0.0987 -0.5314 -0.2015
15074SOL    HW156947   2.885   9.900  13.607  0.2842 -0.2387 -0.6272
15074SOL    HW256948   2.955  10.034  13.612  0.6476 -0.4565  0.1787
15075SOL     OW56949   2.802  11.449   5.705 -0.4069  0.6381 -0.7733
15075SOL    HW156950   2.858  11.527   5.711  0.8341 -0.1040 -2.1436
15075SOL    HW256951   2.859  11.377   5.730 -1.8660  0.2279  1.6223
15076SOL     OW56952   0.369  13.130   8.984 -0.0480 -0.5226 -0.0969
15076SOL    HW156953   0.332  13.162   8.902 -0.8262  1.0181  0.7973
15076SOL    HW256954   0.459  13.164   8.984  0.2470 -1.2804 -0.6939
15077SOL     OW56955   8.564   7.448   7.782 -0.8415 -0.4693 -0.4900
15077SOL    HW156956   8.645   7.426   7.827 -1.1290 -1.5997 -0.4949
15077SOL    HW256957   8.519   7.509   7.841 -1.4609 -2.3144  1.0678
15078SOL     OW56958   2.357  10.182   2.352  0.8777  0.6925  0.6494
15078SOL    HW156959   2.420  10.182   2.280  0.8122  3.4981  0.4714
15078SOL    HW256960   2.410  10.185   2.431  0.9320 -0.9972  0.7183
15079SOL     OW56961  11.054   7.676  13.475 -0.3650 -0.9152 -0.2135
15079SOL    HW156962  11.019   7.599  13.520  0.5029 -1.7382 -0.9043
15079SOL    HW256963  11.148   7.674  13.494 -0.3803  0.2048  0.0682
15080SOL     OW56964   2.644   8.182  12.929  0.2816  0.6648  0.3186
15080SOL    HW156965   2.626   8.236  12.852  0.3677  0.9445  0.4922
15080SOL    HW256966   2.739   8.177  12.933  0.3152  1.5691  1.0301
15081SOL     OW56967   5.230  12.880   3.492  0.0728  0.0436 -0.0633
15081SOL    HW156968   5.303  12.912   3.547 -1.0192  2.0812  0.3074
15081SOL    HW256969   5.232  12.937   3.415 -1.6361  0.7269  0.3604
15082SOL     OW56970  11.507   6.746   7.171 -0.3815 -0.3352 -0.1676
15082SOL    HW156971  11.502   6.698   7.254  2.1841  0.9425  0.8409
15082SOL    HW256972  11.530   6.680   7.106 -0.1835 -1.0084  0.5786
15083SOL     OW56973   7.521  12.412   4.102  0.0434  0.0714 -0.2415
15083SOL    HW156974   7.541  12.469   4.176  0.0250 -2.0926  1.5435
15083SOL    HW256975   7.592  12.349   4.100 -1.2390 -1.4295 -0.4297
15084SOL     OW56976   6.699   9.546   3.271 -0.7621  0.1858  0.4026
15084SOL    HW156977   6.776   9.514   3.318 -0.6702 -0.4557 -0.1666
15084SOL    HW256978   6.629   9.544   3.336 -0.7334 -1.1022  0.4142
15085SOL     OW56979  10.160   6.279   6.812 -0.1593 -0.3376  0.1433
15085SOL    HW156980  10.112   6.342   6.864 -0.1353 -0.6492  0.5487
15085SOL    HW256981  10.199   6.219   6.876  1.2086  0.2066 -0.1329
15086SOL     OW56982   9.065   5.998   5.005 -0.4064 -0.4720  0.2578
15086SOL    HW156983   9.147   6.036   4.973 -1.0800 -0.0302 -1.0177
15086SOL    HW256984   8.997   6.060   4.976 -1.3797 -1.8253 -0.4518
15087SOL     OW56985   6.477  13.642   6.886  0.2386 -0.0014 -0.3630
15087SOL    HW156986   6.530  13.567   6.859 -0.3123 -0.3045 -0.6357
15087SOL    HW256987   6.398  13.636   6.832  0.4757  1.1622 -0.8895
15088SOL     OW56988   4.617   9.983  10.935  0.7138 -0.1053  0.2819
15088SOL    HW156989   4.616   9.896  10.976 -1.1901  0.0892  0.7602
15088SOL    HW256990   4.524  10.005  10.924  1.1211  0.5907 -2.6130
15089SOL     OW56991   3.914   7.999   8.643 -0.0448 -0.3288  0.2245
15089SOL    HW156992   3.918   8.024   8.735 -0.0203 -0.8107  0.3549
15089SOL    HW256993   3.856   7.923   8.641 -1.5896  0.7841 -0.3899
15090SOL     OW56994   8.099   4.527  11.348  0.3170 -0.6266  0.2076
15090SOL    HW156995   8.102   4.539  11.253  0.4920  0.2609  0.3116
15090SOL    HW256996   8.006   4.531  11.370  0.3912  2.4107  0.4082
15091SOL     OW56997  13.696   9.022   4.889 -0.2223  0.0542  0.0678
15091SOL    HW156998  13.690   9.050   4.797  2.8890 -1.9029 -0.9149
15091SOL    HW256999  13.682   8.927   4.885  1.9539 -0.3756  1.2251
15092SOL     OW57000   0.751   5.707  11.973  0.5227 -0.2736  0.8358
15092SOL    HW157001   0.779   5.636  12.031  0.2169 -1.3820 -0.3247
15092SOL    HW257002   0.663   5.730  12.002  0.3752 -0.8183  0.8285
15093SOL     OW57003   3.511   9.244  13.122  0.3832  0.2596  0.1062
15093SOL    HW157004   3.555   9.197  13.194 -0.6872 -1.0505 -0.0547
15093SOL    HW257005   3.433   9.192  13.104 -0.2673  1.5241 -0.8639
15094SOL     OW57006  10.678  12.387   9.582 -0.1198  0.5607 -0.0128
15094SOL    HW157007  10.771  12.410   9.577 -0.4911  2.2671  0.5367
15094SOL    HW257008  10.677  12.291   9.572  1.4715  0.7330 -2.7327
15095SOL     OW57009   7.359   2.899   2.341  0.6392  1.2088 -0.0156
15095SOL    HW157010   7.304   2.831   2.302  1.9782 -0.0090  0.1389
15095SOL    HW257011   7.416   2.927   2.270  0.2116  2.0808 -0.0304
15096SOL     OW57012   2.821  11.135   4.435 -0.7191  0.2395  0.2498
15096SOL    HW157013   2.824  11.042   4.414 -2.8940  0.1118  0.3113
15096SOL    HW257014   2.871  11.143   4.516  1.7516 -0.3895 -1.1098
15097SOL     OW57015  12.640  12.664   9.272  0.2808 -0.4148  0.7255
15097SOL    HW157016  12.579  12.602   9.233  0.4034 -0.4548  0.5980
15097SOL    HW257017  12.718  12.612   9.292  0.9292 -0.0184 -0.6897
15098SOL     OW57018   0.857  10.574   8.461  0.0950  0.3039 -0.3113
15098SOL    HW157019   0.842  10.509   8.392 -0.8305  1.3266 -1.1198
15098SOL    HW257020   0.770  10.608   8.481  0.4683  0.6850  0.7081
15099SOL     OW57021  12.503   9.639   1.165  0.3658 -0.4714  0.2132
15099SOL    HW157022  12.584   9.676   1.201  0.0708  0.2763  0.1036
15099SOL    HW257023  12.435   9.701   1.187  0.1151 -0.1596 -1.3116
15100SOL     OW57024  11.430   7.376   0.044  0.5165 -0.1190 -0.0671
15100SOL    HW157025  11.470   7.449  -0.004  0.5649  0.8657  1.3899
15100SOL    HW257026  11.475   7.298   0.011 -0.2238  0.3532 -2.3839
15101SOL     OW57027  12.672   4.620   5.375 -0.0170 -0.1412 -0.4066
15101SOL    HW157028  12.759   4.661   5.369  1.3343 -2.6485  0.6074
15101SOL    HW257029  12.658   4.606   5.468 -1.6324  0.3564 -0.5391
15102SOL     OW57030   5.515  10.152  12.150  0.6734  0.2699 -0.4626
15102SOL    HW157031   5.560  10.079  12.108  2.2682 -0.3181  2.0782
15102SOL    HW257032   5.523  10.135  12.243  0.0726  3.1099  0.1980
15103SOL     OW57033   0.544  12.613  11.109 -0.6430  0.7241 -0.3009
15103SOL    HW157034   0.499  12.682  11.156 -0.5453  1.7139 -1.5891
15103SOL    HW257035   0.587  12.561  11.177 -0.1013  2.3596  0.6711
15104SOL     OW57036  11.841   8.827   0.327 -0.0043  0.4740 -0.0158
15104SOL    HW157037  11.807   8.845   0.415  1.9442  1.2546  0.6392
15104SOL    HW257038  11.763   8.812   0.273 -1.2348 -0.1630  1.8573
15105SOL     OW57039   9.227   4.211   0.755  0.1479  0.3829 -0.3143
15105SOL    HW157040   9.306   4.169   0.721 -0.1587  0.8279 -1.6505
15105SOL    HW257041   9.178   4.139   0.795  1.5265  0.2201  1.1906
15106SOL     OW57042   8.596   9.659   0.902  0.0011  0.0978 -0.6854
15106SOL    HW157043   8.544   9.600   0.848  0.8417 -2.7234  1.3794
15106SOL    HW257044   8.541   9.677   0.979  0.5817  0.2726 -0.2995
15107SOL     OW57045  11.585   2.919   7.158 -0.5276 -0.3614 -0.3611
15107SOL    HW157046  11.600   2.866   7.237  0.1983  0.5157  0.1171
15107SOL    HW257047  11.490   2.924   7.150 -0.6103 -1.0460  0.0525
15108SOL     OW57048   4.193   4.716   6.108 -0.0543 -0.0622  0.3724
15108SOL    HW157049   4.231   4.629   6.121 -0.0349 -0.3498 -1.3608
15108SOL    HW257050   4.110   4.713   6.156  1.7231  0.4054  3.7951
15109SOL     OW57051   0.014   0.155   4.811  0.0439  0.0337  0.1807
15109SOL    HW157052   0.092   0.121   4.768  0.3071  1.0583 -0.1763
15109SOL    HW257053   0.033   0.147   4.905 -0.1956 -1.4367  0.1298
15110SOL     OW57054  11.428  10.778   9.918  0.3079 -0.5867  0.3073
15110SOL    HW157055  11.353  10.729   9.950  0.5198  0.6645  3.0775
15110SOL    HW257056  11.489  10.712   9.886  0.0189 -2.0564  2.6059
15111SOL     OW57057   0.131   2.409  11.308  0.3661 -0.0440  0.1017
15111SOL    HW157058   0.134   2.374  11.219 -1.4093 -0.9054  0.3166
15111SOL    HW257059   0.177   2.344  11.361  1.6228  0.5812 -0.1863
15112SOL     OW57060   1.574  10.282   0.574 -0.6878  0.6390 -0.5662
15112SOL    HW157061   1.591  10.359   0.629 -3.2550 -0.1799  1.6251
15112SOL    HW257062   1.556  10.318   0.487 -0.4426  2.3913  0.0747
15113SOL     OW57063  11.681   3.786   5.482 -0.5015 -0.3903 -0.2827
15113SOL    HW157064  11.631   3.867   5.489  1.7914  1.1706 -0.6693
15113SOL    HW257065  11.646   3.743   5.404  0.2218  1.8241 -1.9580
15114SOL     OW57066   9.138  13.088   7.164  0.3987 -0.1508  0.0876
15114SOL    HW157067   9.148  13.182   7.180  0.5654 -0.5627  3.0297
15114SOL    HW257068   9.073  13.059   7.229 -2.6444 -1.5286 -3.2340
15115SOL     OW57069   3.105  11.578  10.870  0.1389 -0.2383 -0.0454
15115SOL    HW157070   3.045  11.509  10.897  0.9090 -1.5133 -1.4311
15115SOL    HW257071   3.155  11.539  10.798  1.2371  1.4623 -0.2523
15116SOL     OW57072   3.819   5.697   4.672 -0.6524  0.0911  0.0516
15116SOL    HW157073   3.877   5.622   4.662 -0.1736 -0.0878  3.0860
15116SOL    HW257074   3.875   5.774   4.657 -0.0900 -0.1313  0.9056
15117SOL     OW57075   4.462   7.336   6.443  0.6645 -0.3139 -0.8133
15117SOL    HW157076   4.468   7.246   6.475 -0.5954 -0.7073 -1.5950
15117SOL    HW257077   4.386   7.335   6.385 -0.9147  1.7989  1.0133
15118SOL     OW57078   2.271   7.726  12.672  0.1963 -0.1468 -0.0224
15118SOL    HW157079   2.282   7.682  12.756  0.3405  0.3795  0.2400
15118SOL    HW257080   2.351   7.779  12.662  0.1940 -0.2259 -0.5027
15119SOL     OW57081   6.720   9.481   7.083  0.0102 -0.0109 -0.0195
15119SOL    HW157082   6.807   9.442   7.070  0.1154  0.5145 -0.9970
15119SOL    HW257083   6.660   9.422   7.037 -0.2528 -0.6809  1.1229
15120SOL     OW57084   0.301  10.386  11.019 -0.3526  0.0752  0.0385
15120SOL    HW157085   0.228  10.422  11.069 -0.9532  0.3472 -1.0012
15120SOL    HW257086   0.328  10.309  11.068  0.1934  1.2686  1.6834
15121SOL     OW57087   0.078   8.296   2.988  0.7364 -0.2591  0.5666
15121SOL    HW157088   0.051   8.270   2.900 -1.5458  0.8280  0.8813
15121SOL    HW257089   0.104   8.388   2.978 -0.0205  0.0176  1.1065
15122SOL     OW57090   4.440  12.408   1.124  0.3039 -0.2711  0.1223
15122SOL    HW157091   4.436  12.321   1.084 -2.2304  0.4536 -1.4100
15122SOL    HW257092   4.509  12.401   1.190  0.2970 -3.3705 -0.0662
15123SOL     OW57093  10.455   4.821   7.396  0.6228  0.2753 -0.7628
15123SOL    HW157094  10.526   4.807   7.459 -1.1018 -0.7080  1.0876
15123SOL    HW257095  10.449   4.738   7.348 -0.5592 -0.4355  0.5351
15124SOL     OW57096   6.239   8.780   1.282 -0.6609 -0.0009 -0.0776
15124SOL    HW157097   6.309   8.716   1.290 -0.8433 -0.3181 -0.8439
15124SOL    HW257098   6.246   8.812   1.192  1.1972  3.1591  1.0501
15125SOL     OW57099   5.286   3.537  12.053  0.0261 -0.1226 -0.3616
15125SOL    HW157100   5.351   3.517  12.121  1.3568 -2.5922 -2.2137
15125SOL    HW257101   5.204   3.549  12.101  1.3656  0.6812  1.8543
15126SOL     OW57102   6.429   9.689  12.574 -0.7148  0.1409 -0.3727
15126SOL    HW157103   6.459   9.764  12.524  1.0964 -0.0081  0.4251
15126SOL    HW257104   6.471   9.698  12.660  0.5729 -2.4036 -0.6379
15127SOL     OW57105   7.304  10.804   8.598  0.4571  0.4570 -0.5087
15127SOL    HW157106   7.357  10.812   8.518 -0.7319  2.0292 -1.1944
15127SOL    HW257107   7.342  10.867   8.659  0.1585  0.6692 -0.5417
15128SOL     OW57108   0.140   4.572   7.504  0.3906  0.0784  0.5017
15128SOL    HW157109   0.130   4.485   7.464 -0.3734  0.5530 -0.3773
15128SOL    HW257110   0.230   4.597   7.484 -0.2081  0.6906 -1.8197
15129SOL     OW57111   1.487  10.814   2.784  0.4311 -0.3656 -0.6205
15129SOL    HW157112   1.446  10.760   2.717  0.5399 -1.0806 -0.1305
15129SOL    HW257113   1.421  10.878   2.808 -0.3489 -1.3555 -0.0073
15130SOL     OW57114   5.111   8.249  12.061  0.4407  0.4415 -0.5069
15130SOL    HW157115   5.089   8.165  12.020  2.5182 -0.9695  1.0036
15130SOL    HW257116   5.130   8.308  11.987  1.4116 -1.1921 -1.6373
15131SOL     OW57117   3.981  10.625   4.972 -0.2968 -0.7689 -0.3751
15131SOL    HW157118   4.050  10.619   4.906  0.7007 -0.0535  0.5808
15131SOL    HW257119   4.027  10.632   5.055 -1.4792  1.0523  0.1937
15132SOL     OW57120   7.609   9.272  11.620  0.5011 -0.4481 -0.3888
15132SOL    HW157121   7.618   9.235  11.532 -0.1559 -3.4083  0.6803
15132SOL    HW257122   7.652   9.209  11.677  1.1047  1.5119  1.4477
15133SOL     OW57123   1.660  11.679   6.830  0.1843 -0.6948 -0.2800
15133SOL    HW157124   1.597  11.609   6.815  0.9513 -1.7737  1.2489
15133SOL    HW257125   1.734  11.637   6.875 -0.2921  1.3806  2.8392
15134SOL     OW57126  12.372   2.210   9.013  0.1544  0.4748 -0.3089
15134SOL    HW157127  12.324   2.264   9.076 -1.6584 -1.8820  0.5073
15134SOL    HW257128  12.316   2.208   8.936  0.8357  0.7901 -0.8178
15135SOL     OW57129  11.293  13.367   2.221 -0.8170 -0.0231  0.2670
15135SOL    HW157130  11.258  13.347   2.308 -3.5663 -0.1448 -0.7913
15135SOL    HW257131  11.278  13.288   2.169  2.9133 -0.8543  0.1326
15136SOL     OW57132  11.807   8.299  12.099  0.1095 -0.2431 -0.0645
15136SOL    HW157133  11.820   8.222  12.043  0.1096 -1.1052  1.0678
15136SOL    HW257134  11.712   8.311  12.102 -0.0149 -1.2843  1.1099
15137SOL     OW57135   8.370   5.457   7.235  0.3156  0.4321  0.2991
15137SOL    HW157136   8.444   5.494   7.283  0.3457  0.9051 -0.1129
15137SOL    HW257137   8.410   5.408   7.163  0.1881  2.9823 -1.6048
15138SOL     OW57138   1.926   8.014   3.352  0.1169  0.3406 -0.9438
15138SOL    HW157139   1.930   7.937   3.407 -0.5781  2.1426  1.8241
15138SOL    HW257140   2.015   8.048   3.350  0.0774  0.4636 -0.6213
15139SOL     OW57141  11.845   0.813   9.132 -0.0317  0.0161  0.2359
15139SOL    HW157142  11.914   0.747   9.122 -0.1881 -0.0747 -0.2660
15139SOL    HW257143  11.837   0.853   9.046 -0.0704  0.5655  0.4872
15140SOL     OW57144  12.268   5.402   3.065  0.2282 -0.1471  0.2856
15140SOL    HW157145  12.280   5.356   2.982  2.1631 -0.0981  0.5083
15140SOL    HW257146  12.356   5.416   3.098 -0.5029 -2.4243  3.6130
15141SOL     OW57147   7.642   7.125  12.623  0.4891  0.5772 -0.0628
15141SOL    HW157148   7.703   7.079  12.681  1.7258  1.1279 -0.8860
15141SOL    HW257149   7.667   7.217  12.630  1.0338  0.6140 -1.8181
15142SOL     OW57150   1.622   7.437   6.728 -0.4773 -0.5535 -0.4563
15142SOL    HW157151   1.582   7.518   6.696 -2.0355 -1.8489 -2.0032
15142SOL    HW257152   1.671   7.403   6.654 -0.4794 -1.3964 -0.0860
15143SOL     OW57153  13.506   1.578   6.534 -0.3809  0.0102 -0.3036
15143SOL    HW157154  13.506   1.491   6.572 -0.8432  0.8008  1.6248
15143SOL    HW257155  13.424   1.618   6.563 -0.1027  1.1614 -0.9950
15144SOL     OW57156  12.368  13.575   2.245 -0.3969  0.3684 -0.0779
15144SOL    HW157157  12.419  13.657   2.247 -0.4865  0.4164  0.2153
15144SOL    HW257158  12.434  13.507   2.230 -0.3502  0.5170 -0.5701
15145SOL     OW57159   3.514  12.542   5.601  1.1422 -0.1246  0.3597
15145SOL    HW157160   3.511  12.485   5.525  0.4501  1.6109 -0.9948
15145SOL    HW257161   3.431  12.528   5.646  1.3161 -0.7473  0.4921
15146SOL     OW57162  10.483   4.734   3.994 -0.0466  0.5972  0.9963
15146SOL    HW157163  10.517   4.646   3.981 -3.3916 -0.6377 -0.7136
15146SOL    HW257164  10.560   4.791   3.991  1.9331 -1.9573 -1.1644
15147SOL     OW57165  12.838   8.046  10.418 -0.2706  0.6901 -0.3486
15147SOL    HW157166  12.908   8.019  10.478 -1.6617  1.6927  1.8298
15147SOL    HW257167  12.807   8.129  10.452 -0.0605  2.1970 -3.4792
15148SOL     OW57168   0.401  12.453   8.959  0.9230  0.1382 -0.3192
15148SOL    HW157169   0.426  12.412   8.877  0.9282  1.4718 -1.0180
15148SOL    HW257170   0.458  12.529   8.967  0.0056  0.8046  0.2139
15149SOL     OW57171  12.308   9.368   3.098 -0.0629  0.1420  0.0448
15149SOL    HW157172  12.243   9.361   3.028 -0.0813  1.4334 -0.0879
15149SOL    HW257173  12.279   9.443   3.150  1.1214  0.5296  0.1832
15150SOL     OW57174  12.054   2.798   3.803  0.3746  0.7256 -0.3495
15150SOL    HW157175  12.144   2.798   3.772  0.4298  1.3015 -0.1906
15150SOL    HW257176  12.012   2.728   3.753  0.7352  0.9109 -0.9187
15151SOL     OW57177   4.489   8.285  11.956 -0.0696  0.4064  0.0773
15151SOL    HW157178   4.523   8.349  12.018 -2.5698  0.7249  1.2246
15151SOL    HW257179   4.418   8.330  11.910  0.3475 -0.5070 -1.5459
15152SOL     OW57180  13.303   8.015   6.406  0.2905 -0.0591  0.0487
15152SOL    HW157181  13.361   8.034   6.333  0.9460  0.1522  0.6070
15152SOL    HW257182  13.263   8.100   6.428  3.2319  0.9019  2.5550
15153SOL     OW57183   5.004   1.788   9.916  0.4402 -0.0627  0.0720
15153SOL    HW157184   5.003   1.868   9.968 -0.4541 -0.0805  0.0873
15153SOL    HW257185   4.927   1.795   9.859  1.3112 -0.1078 -1.1563
15154SOL     OW57186   7.711  13.475  11.717 -0.2674  0.1873  0.1394
15154SOL    HW157187   7.722  13.489  11.811  2.0081 -1.2274  0.1490
15154SOL    HW257188   7.677  13.386  11.710 -2.3888  0.9702 -0.3731
15155SOL     OW57189   6.657   2.675   2.200 -0.5335 -0.2997  0.6637
15155SOL    HW157190   6.684   2.584   2.207  1.8006  0.3940  1.9702
15155SOL    HW257191   6.702   2.707   2.122  0.5242  0.2383  1.4547
15156SOL     OW57192   0.897   3.102   4.195 -0.5389  0.0957  0.1958
15156SOL    HW157193   0.950   3.140   4.124 -0.9575  1.7775  0.7524
15156SOL    HW257194   0.811   3.142   4.185 -0.5264  0.6078  1.8253
15157SOL     OW57195   6.471  11.560   3.257  0.3053 -0.4816 -0.1054
15157SOL    HW157196   6.524  11.513   3.321  0.4269  0.1047  0.2248
15157SOL    HW257197   6.510  11.647   3.253  0.0586 -0.3925 -0.6911
15158SOL     OW57198  12.811   4.271   7.644  0.7182  0.1779  0.0884
15158SOL    HW157199  12.839   4.214   7.572  3.0560  1.2293  0.0769
15158SOL    HW257200  12.872   4.252   7.715 -0.3416  0.5509  1.1298
15159SOL     OW57201   1.317   2.959   3.235  0.0507  0.4889  0.4583
15159SOL    HW157202   1.324   2.941   3.141 -1.8198  2.6887 -0.1902
15159SOL    HW257203   1.224   2.979   3.249  0.7415  2.9755  2.1772
15160SOL     OW57204  13.726   9.299   1.890  0.2959  0.4356 -0.0025
15160SOL    HW157205  13.693   9.359   1.956 -0.0088  0.7424 -0.4218
15160SOL    HW257206  13.686   9.330   1.808 -0.7382 -0.9816 -0.0746
15161SOL     OW57207  11.962   8.555  10.599 -0.1168  0.1622 -0.3005
15161SOL    HW157208  12.045   8.537  10.642  0.4660  0.0105 -1.4772
15161SOL    HW257209  11.896   8.517  10.658  0.6761 -0.1865  0.3742
15162SOL     OW57210   1.692   2.227  12.927 -0.4350  0.3481  0.1673
15162SOL    HW157211   1.682   2.230  13.022 -2.6512 -1.0511  0.0497
15162SOL    HW257212   1.743   2.148  12.911 -0.6328  0.2215  0.1623
15163SOL     OW57213   7.342   6.909  12.851  0.9442  0.3198  0.1396
15163SOL    HW157214   7.310   6.999  12.840 -0.0679  0.2909  2.2949
15163SOL    HW257215   7.273   6.854  12.814 -0.4763  0.3539  2.5048
15164SOL     OW57216   1.118   4.063   7.424  0.3431 -0.0990  0.8136
15164SOL    HW157217   1.112   4.157   7.406  2.0877  0.0229  0.6700
15164SOL    HW257218   1.040   4.043   7.476 -0.4311  1.2697  0.2203
15165SOL     OW57219   4.493   4.852   3.284  0.2003  0.3243  0.1409
15165SOL    HW157220   4.420   4.891   3.235  0.9583  0.4155 -0.9495
15165SOL    HW257221   4.572   4.882   3.238  0.9015 -0.3826  0.8482
15166SOL     OW57222   5.832   8.611   9.302  0.5498  0.1080  0.4435
15166SOL    HW157223   5.885   8.532   9.300  0.6872  0.2129 -0.4479
15166SOL    HW257224   5.778   8.602   9.381  1.9467  0.0507  1.4213
15167SOL     OW57225   2.080   7.062   0.704 -0.0645  0.0807 -0.1146
15167SOL    HW157226   1.993   7.072   0.743 -0.4491 -1.7546 -0.4218
15167SOL    HW257227   2.064   7.057   0.610  0.4380  0.3616 -0.2196
15168SOL     OW57228   2.132   5.966   0.609 -0.5778  0.4847  0.2924
15168SOL    HW157229   2.178   6.012   0.680 -0.0774  1.0351 -0.3718
15168SOL    HW257230   2.045   6.005   0.608 -1.0900 -0.5489  1.5498
15169SOL     OW57231   9.362   4.640   6.073 -0.3112  0.2492 -0.0725
15169SOL    HW157232   9.300   4.585   6.120  0.6407  0.6292  1.7127
15169SOL    HW257233   9.435   4.581   6.052 -0.6222  0.1405 -0.9033
15170SOL     OW57234   6.190  10.095  10.317 -0.4889 -0.5054 -0.4183
15170SOL    HW157235   6.164  10.062  10.402  2.5426  0.0705  0.8670
15170SOL    HW257236   6.234  10.021  10.275  2.1053  0.3703  0.5280
15171SOL     OW57237  12.126  10.001  12.661 -0.1292 -0.1177  0.2401
15171SOL    HW157238  12.192  10.020  12.593 -1.2570  1.2131 -0.5514
15171SOL    HW257239  12.135   9.907  12.678 -0.2453 -0.6635 -2.2822
15172SOL     OW57240  12.118   9.595   0.441  0.2029  0.6047 -0.0604
15172SOL    HW157241  12.132   9.668   0.501 -2.2396  1.2440 -0.1544
15172SOL    HW257242  12.150   9.518   0.489 -1.0144  1.1910  1.8250
15173SOL     OW57243   7.470  11.022   5.815 -0.1721  0.5186 -0.2808
15173SOL    HW157244   7.401  11.066   5.764 -0.2309  0.0203 -0.6443
15173SOL    HW257245   7.509  11.092   5.868 -2.9400  0.3421  2.2651
15174SOL     OW57246   7.981  13.009   0.204  0.2150  0.3634  0.3356
15174SOL    HW157247   7.902  13.056   0.178 -1.3894 -2.6967 -0.8351
15174SOL    HW257248   7.949  12.923   0.234  3.0995 -1.2670 -0.8213
15175SOL     OW57249  10.945   3.732   7.037  0.0990  0.0912  0.6034
15175SOL    HW157250  10.879   3.795   7.009 -0.8445 -0.8785  0.5822
15175SOL    HW257251  11.027   3.766   7.001 -0.5787  0.6481 -0.4629
15176SOL     OW57252   4.239  10.508   3.542 -0.2440  0.0206 -0.0299
15176SOL    HW157253   4.282  10.423   3.551  1.0358  0.7290  0.6855
15176SOL    HW257254   4.168  10.505   3.606  0.9075  0.1467  1.2984
15177SOL     OW57255   9.438   4.521   3.321  0.4686 -0.0527 -0.2853
15177SOL    HW157256   9.397   4.436   3.304 -0.3800  0.5330 -1.2184
15177SOL    HW257257   9.515   4.522   3.264  0.7469 -0.3625  0.0692
15178SOL     OW57258   0.560   1.749   9.980  0.4687  0.2404 -0.1424
15178SOL    HW157259   0.628   1.690  10.014  0.7745  0.4162 -0.4432
15178SOL    HW257260   0.479   1.719  10.022  0.8364  0.4436  0.7311
15179SOL     OW57261   9.410   4.488   8.652  0.1111 -0.4530  0.9140
15179SOL    HW157262   9.349   4.425   8.691 -0.5095  0.4775  1.4741
15179SOL    HW257263   9.362   4.571   8.651  1.1883  0.1886  0.8821
15180SOL     OW57264   0.916   1.588  12.792  0.4047 -0.2073  0.2612
15180SOL    HW157265   0.990   1.551  12.745  3.2382  1.4264  2.9736
15180SOL    HW257266   0.887   1.662  12.738 -0.3294 -1.7590 -1.5507
15181SOL     OW57267   4.697   0.887   8.883  0.1878 -0.0888  0.2085
15181SOL    HW157268   4.641   0.888   8.960 -1.8451 -0.6948 -1.1710
15181SOL    HW257269   4.657   0.949   8.822  3.3490  2.6070  0.5715
15182SOL     OW57270   6.579   2.197   2.779  0.5246  0.4694  0.0653
15182SOL    HW157271   6.484   2.188   2.788  0.5420 -2.8873 -1.2719
15182SOL    HW257272   6.611   2.208   2.868 -1.0794  1.0265  0.6053
15183SOL     OW57273  11.013   2.570  12.723  0.3011 -0.0425  0.1477
15183SOL    HW157274  11.019   2.500  12.658  0.5960 -0.3947  0.5487
15183SOL    HW257275  10.923   2.564  12.756  0.7752 -1.3279  1.3595
15184SOL     OW57276   0.626   3.639  11.166  0.4221  0.5628 -0.1165
15184SOL    HW157277   0.603   3.552  11.132  0.9382  0.3144  0.1636
15184SOL    HW257278   0.716   3.653  11.137  0.9862  0.2252  1.3698
15185SOL     OW57279   4.195   3.472  10.806  0.4662 -0.3822 -0.0978
15185SOL    HW157280   4.266   3.408  10.800  1.4990  0.6589  0.4777
15185SOL    HW257281   4.220   3.528  10.879 -1.0549 -0.0822  0.2302
15186SOL     OW57282  13.357   9.078   4.232  0.0996 -0.2876  0.0588
15186SOL    HW157283  13.276   9.102   4.279  1.0559 -1.6446  2.6260
15186SOL    HW257284  13.328   9.015   4.166 -0.8959 -1.8325  1.8380
15187SOL     OW57285   6.419   4.778  12.163 -0.4838 -0.5441  0.1956
15187SOL    HW157286   6.372   4.698  12.142 -1.2329 -0.0843  0.0831
15187SOL    HW257287   6.359   4.848  12.138  0.2995  0.0567 -0.0274
15188SOL     OW57288   3.193   1.948   4.897  0.0679 -0.6416  0.4451
15188SOL    HW157289   3.157   1.860   4.888  1.1835 -1.1490  0.7439
15188SOL    HW257290   3.277   1.935   4.943  1.1977  0.3472 -1.2179
15189SOL     OW57291   9.941   6.255   8.392 -0.5524  0.0552  0.1762
15189SOL    HW157292   9.942   6.278   8.299 -0.6746  0.5810  0.3001
15189SOL    HW257293   9.877   6.184   8.398 -2.7694  1.9522  0.2686
15190SOL     OW57294   2.285  11.317  13.482 -0.1248 -0.1942 -1.0485
15190SOL    HW157295   2.305  11.410  13.467  0.4205 -0.1419 -0.1060
15190SOL    HW257296   2.370  11.277  13.502 -0.2651 -1.0351 -2.0419
15191SOL     OW57297   1.748   0.806   1.444  0.3602 -0.1670 -0.8298
15191SOL    HW157298   1.751   0.746   1.519  1.0174 -0.2754 -0.9372
15191SOL    HW257299   1.783   0.888   1.477 -0.0210 -0.0034 -0.8301
15192SOL     OW57300   1.147  13.596   6.500  0.3238  0.2100  0.1267
15192SOL    HW157301   1.132  13.642   6.417  2.1361  0.2472 -0.2294
15192SOL    HW257302   1.064  13.603   6.547 -0.4442  1.0200 -1.2812
15193SOL     OW57303   8.523   0.617   1.505 -0.4263 -0.2627 -1.0717
15193SOL    HW157304   8.472   0.677   1.451  0.3366  0.7021 -0.7560
15193SOL    HW257305   8.493   0.530   1.480 -0.6202  0.1980 -2.5072
15194SOL     OW57306   6.206  13.508   8.837  0.2797 -0.4099 -0.2602
15194SOL    HW157307   6.183  13.583   8.782 -2.5350  0.0220  1.2739
15194SOL    HW257308   6.176  13.432   8.787  0.4563 -0.2634 -0.5913
15195SOL     OW57309   0.959   3.239   8.548 -0.5898  0.1688  0.3205
15195SOL    HW157310   1.038   3.216   8.596  0.2935  0.0529 -1.1403
15195SOL    HW257311   0.888   3.193   8.594  0.4622 -1.4176  0.3949
15196SOL     OW57312   4.095   2.566   9.629 -0.3429 -0.6992  0.1125
15196SOL    HW157313   4.083   2.647   9.580  0.7755 -0.9094 -0.5285
15196SOL    HW257314   4.181   2.576   9.672 -0.5968 -1.1710  0.7528
15197SOL     OW57315   1.900   2.454   1.132 -0.4451 -0.1349  0.0202
15197SOL    HW157316   1.980   2.404   1.144  0.6813  1.7491  0.7475
15197SOL    HW257317   1.891   2.464   1.038  0.5611  0.2096 -0.0434
15198SOL     OW57318  12.528   2.153   0.489 -0.3922  0.1880  0.0527
15198SOL    HW157319  12.601   2.100   0.519 -0.2139 -0.6799 -1.7900
15198SOL    HW257320  12.565   2.241   0.478  0.4377 -0.2924 -1.0806
15199SOL     OW57321   9.413   7.889  12.408 -0.1662 -0.6048  0.1732
15199SOL    HW157322   9.455   7.963  12.365  0.8137 -1.5009 -0.4684
15199SOL    HW257323   9.325   7.920  12.428 -0.8901 -0.2825 -3.0076
15200SOL     OW57324   6.253   3.082   7.324 -0.3478 -0.6076 -0.0883
15200SOL    HW157325   6.304   3.002   7.333  1.0032  0.2702  0.3547
15200SOL    HW257326   6.276   3.116   7.237  0.2915  0.0898  0.3432
15201SOL     OW57327  13.108  10.642   2.016 -0.4410  0.2612 -0.2831
15201SOL    HW157328  13.100  10.704   2.088  1.7434 -1.1884  1.3504
15201SOL    HW257329  13.193  10.662   1.977 -1.4284  0.7824 -2.3112
15202SOL     OW57330  11.887   4.160  11.069  0.2250  0.4842  0.0032
15202SOL    HW157331  11.897   4.117  10.985 -0.2313  1.8295 -0.7796
15202SOL    HW257332  11.975   4.163  11.106  0.4485  0.0059 -0.4898
15203SOL     OW57333   4.759  13.608  11.802  0.3294 -0.2738  0.0755
15203SOL    HW157334   4.794  13.548  11.869  0.6387 -0.2378 -0.0484
15203SOL    HW257335   4.724  13.550  11.735 -0.2394 -0.3084  0.3996
15204SOL     OW57336   9.753   3.483   4.216  0.0996  0.0169 -0.1125
15204SOL    HW157337   9.833   3.535   4.202  0.2803 -0.4685 -0.8933
15204SOL    HW257338   9.694   3.511   4.146 -0.6574  0.8055  0.8045
15205SOL     OW57339   4.610   5.696   9.305 -0.2214 -0.3825  0.1194
15205SOL    HW157340   4.670   5.768   9.286  0.2472 -0.5541  0.9463
15205SOL    HW257341   4.527   5.739   9.327  0.3083 -0.0431  1.5506
15206SOL     OW57342   7.269   8.041  13.306  0.2119  0.2328 -0.5314
15206SOL    HW157343   7.189   8.092  13.322 -2.0405 -2.8671 -1.0234
15206SOL    HW257344   7.284   8.048  13.212 -1.4527 -1.6948 -1.0023
15207SOL     OW57345   8.381  11.681   5.673  0.4247 -0.5119  0.0444
15207SOL    HW157346   8.395  11.651   5.763  0.0766 -1.4078 -0.1957
15207SOL    HW257347   8.336  11.609   5.630  0.9039 -0.2352 -0.9516
15208SOL     OW57348   9.684  10.890   4.763  0.2654  0.4600  0.2014
15208SOL    HW157349   9.742  10.937   4.705  0.2495  0.3089  0.0608
15208SOL    HW257350   9.597  10.898   4.722  0.1257  0.9920  0.6002
15209SOL     OW57351   6.132   6.447   9.263  0.6652 -0.5879  0.0924
15209SOL    HW157352   6.183   6.422   9.185 -0.4573  1.5460 -1.4151
15209SOL    HW257353   6.195   6.496   9.317  0.9827 -0.5146 -0.3342
15210SOL     OW57354  13.580   7.642  11.911  0.5249 -0.5968 -0.0738
15210SOL    HW157355  13.655   7.672  11.859  0.5690  1.4266  1.0220
15210SOL    HW257356  13.618   7.587  11.980  0.9328 -0.1999  0.0221
15211SOL     OW57357  13.409   6.654   2.935  0.4244  0.4004 -0.1273
15211SOL    HW157358  13.477   6.715   2.907  0.5066 -0.5364 -2.1507
15211SOL    HW257359  13.443   6.567   2.911 -0.1132 -0.3923  1.7692
15212SOL     OW57360  12.319  11.918  10.631 -0.2208 -0.0056  0.2727
15212SOL    HW157361  12.383  11.857  10.668  1.0650  0.1531 -1.5503
15212SOL    HW257362  12.234  11.880  10.654  0.4962 -0.5456  2.2410
15213SOL     OW57363   1.874   8.623   1.002 -0.0368 -0.0260 -0.5488
15213SOL    HW157364   1.938   8.560   0.969 -1.0515 -1.5155  0.2266
15213SOL    HW257365   1.924   8.703   1.017  2.2100 -1.7734  2.2298
15214SOL     OW57366  11.519   5.101   8.871  0.0011  0.9804 -0.6387
15214SOL    HW157367  11.442   5.094   8.815  0.2169 -0.6722 -0.7754
15214SOL    HW257368  11.575   5.165   8.826 -1.3654  2.4203 -0.3861
15215SOL     OW57369   3.816   3.292   5.948  0.6146  0.1294  0.2614
15215SOL    HW157370   3.874   3.366   5.936  0.2786  0.4219  0.4202
15215SOL    HW257371   3.845   3.253   6.031 -0.3849  1.1871  1.1426
15216SOL     OW57372   5.338   0.464   1.728 -0.5556 -0.5370  0.7542
15216SOL    HW157373   5.399   0.515   1.781 -0.9070  0.0656  0.5870
15216SOL    HW257374   5.316   0.389   1.783  0.3246 -0.7640  0.8200
15217SOL     OW57375   5.192   0.793   7.680  0.2547  0.0926 -0.3004
15217SOL    HW157376   5.213   0.703   7.705  0.7767  0.4049  0.4507
15217SOL    HW257377   5.110   0.812   7.726 -0.2297 -0.2228 -1.0215
15218SOL     OW57378   6.964   7.773   3.921 -0.5285  0.4420  0.3191
15218SOL    HW157379   7.031   7.826   3.965 -3.1484  1.4683  3.5105
15218SOL    HW257380   6.920   7.835   3.862 -2.6636  1.7466  3.0091
15219SOL     OW57381  12.988   8.517  12.107  0.0784  0.0574  0.0139
15219SOL    HW157382  13.077   8.550  12.102 -0.2002  0.7006 -1.1267
15219SOL    HW257383  12.994   8.427  12.075  0.3202  0.1097 -0.0891
15220SOL     OW57384   7.545   4.233   9.841 -0.4570  0.0714  0.2703
15220SOL    HW157385   7.595   4.217   9.921 -0.4220  0.4771  0.3332
15220SOL    HW257386   7.604   4.206   9.770 -0.0486  0.7527  0.3327
15221SOL     OW57387   5.663  10.783  12.248 -0.2419  0.1306  0.0664
15221SOL    HW157388   5.753  10.756  12.231 -1.2261 -2.8190 -1.0489
15221SOL    HW257389   5.647  10.757  12.339 -0.0803  0.3395  0.1558
15222SOL     OW57390   8.316   8.227   4.665  0.0381 -0.4172 -0.0053
15222SOL    HW157391   8.322   8.295   4.598 -2.0696 -0.3067 -0.1525
15222SOL    HW257392   8.368   8.154   4.631 -0.5800 -0.1836 -1.5519
15223SOL     OW57393   7.049   1.533   7.546 -0.4400 -0.1391  0.3319
15223SOL    HW157394   7.114   1.590   7.506 -2.3543  1.0326 -1.2924
15223SOL    HW257395   7.055   1.552   7.640  1.0670  0.4341  0.1471
15224SOL     OW57396   7.217   0.385   9.189  0.4502 -0.0522 -0.5924
15224SOL    HW157397   7.275   0.368   9.116 -0.6819  1.8462 -2.0513
15224SOL    HW257398   7.235   0.476   9.214  0.6640 -0.5802  1.4086
15225SOL     OW57399   2.536   3.670   4.641 -0.3627 -0.3891 -0.3682
15225SOL    HW157400   2.564   3.583   4.612  0.7179  0.0414 -0.6741
15225SOL    HW257401   2.514   3.658   4.734  0.4115 -0.8543 -0.2322
15226SOL     OW57402   9.558   4.252  10.830  0.0242 -0.7329  0.3846
15226SOL    HW157403   9.466   4.233  10.811 -0.2682  0.5624  0.4187
15226SOL    HW257404   9.606   4.189  10.777 -0.8242  1.0536 -2.7565
15227SOL     OW57405   5.383   5.580   0.567 -0.0123 -0.0676  0.0284
15227SOL    HW157406   5.289   5.583   0.552  0.1088  0.9928 -0.6727
15227SOL    HW257407   5.421   5.584   0.479  0.6890 -0.2087  0.3174
15228SOL     OW57408   4.691   0.582   6.884 -0.2066 -0.0205 -0.0334
15228SOL    HW157409   4.656   0.668   6.905  0.7659  0.6714 -1.0904
15228SOL    HW257410   4.619   0.536   6.841 -0.9403  0.0080  1.1503
15229SOL     OW57411   6.648  13.325   7.340 -0.2491  0.1446  0.1699
15229SOL    HW157412   6.661  13.334   7.435  1.4472 -1.2765  0.1372
15229SOL    HW257413   6.683  13.405   7.303 -0.5995  0.5597  0.7213
15230SOL     OW57414  10.399   6.530   6.185 -0.2351  0.4251 -0.9347
15230SOL    HW157415  10.324   6.482   6.149  0.2602 -0.4126 -0.8792
15230SOL    HW257416  10.476   6.485   6.149  0.2508  1.5839 -1.3986
15231SOL     OW57417   1.160   6.511  11.644 -0.5194 -0.0805  0.2492
15231SOL    HW157418   1.091   6.577  11.637  1.5473  2.1997 -0.1874
15231SOL    HW257419   1.118   6.437  11.688 -3.0252  1.4377  0.6467
15232SOL     OW57420  10.470  13.573  12.086  0.5674 -0.6513  0.0250
15232SOL    HW157421  10.514  13.658  12.090  1.5432 -1.1849  0.7089
15232SOL    HW257422  10.511  13.528  12.012  0.4310 -0.7429  0.0046
15233SOL     OW57423   4.909   5.375   3.247  0.3528 -0.2982  0.0506
15233SOL    HW157424   4.872   5.431   3.315  0.3434  0.1057 -0.2855
15233SOL    HW257425   4.882   5.286   3.272 -3.5285  0.1401 -1.7564
15234SOL     OW57426   4.600   5.353   9.693 -0.4044  0.3769  0.0180
15234SOL    HW157427   4.581   5.319   9.780  0.0345  0.7131  0.2543
15234SOL    HW257428   4.696   5.355   9.688 -0.3423 -2.1492 -1.4623
15235SOL     OW57429   8.874   1.182   5.468 -0.5419 -0.0263 -0.4160
15235SOL    HW157430   8.862   1.091   5.440 -0.1074 -0.2831  0.2198
15235SOL    HW257431   8.929   1.176   5.545 -0.7065  0.7677 -0.2339
15236SOL     OW57432   2.671  13.328   9.537 -0.3356  0.2460 -0.7455
15236SOL    HW157433   2.751  13.378   9.558 -0.4927 -0.5446  2.1943
15236SOL    HW257434   2.600  13.384   9.568 -0.5009 -1.7096  2.9964
15237SOL     OW57435   9.965   9.293   0.629 -0.7513 -0.1264  0.1212
15237SOL    HW157436   9.983   9.296   0.723  1.3240  0.6112 -0.2449
15237SOL    HW257437   9.988   9.204   0.603  2.9529  0.8286 -0.3566
15238SOL     OW57438   5.985   1.075  13.060  0.1765 -0.0014 -0.4645
15238SOL    HW157439   5.995   1.156  13.012  0.8644  1.0953  1.4181
15238SOL    HW257440   6.028   1.091  13.144 -0.6351 -1.9327  0.3935
15239SOL     OW57441   4.555   4.775   6.743  0.3914 -0.2015 -0.2441
15239SOL    HW157442   4.615   4.781   6.817 -0.2596 -0.0735  0.2898
15239SOL    HW257443   4.507   4.694   6.758  0.2293 -0.1551 -0.5091
15240SOL     OW57444   7.516   7.833  10.775 -0.0876 -0.0859 -0.2015
15240SOL    HW157445   7.549   7.819  10.686  0.4090 -0.3918  0.0255
15240SOL    HW257446   7.575   7.782  10.830  1.0199  1.9079  0.5439
15241SOL     OW57447   5.412   3.647   1.309  0.0651  0.2591  0.2036
15241SOL    HW157448   5.508   3.650   1.307  0.0751  0.0241  0.4108
15241SOL    HW257449   5.387   3.646   1.217  0.2198  1.8117  0.1062
15242SOL     OW57450   5.112   4.122   9.648 -0.0756  0.1346  0.1412
15242SOL    HW157451   5.038   4.073   9.682 -1.4872  1.3320 -1.0622
15242SOL    HW257452   5.188   4.067   9.666 -1.2273 -1.0804  1.5085
15243SOL     OW57453   8.419   0.347   6.485 -0.1952  0.5703 -0.1012
15243SOL    HW157454   8.455   0.435   6.501 -1.0885  1.5227 -2.7952
15243SOL    HW257455   8.325   0.357   6.497 -0.1035 -0.8097  2.4140
15244SOL     OW57456  11.991   4.904  10.750  0.0394 -0.2626 -0.4195
15244SOL    HW157457  12.018   4.817  10.780  1.8135  1.1718  2.6761
15244SOL    HW257458  11.912   4.923  10.801 -2.0418 -1.0168 -3.1256
15245SOL     OW57459  12.436   6.865   3.714 -0.3860 -0.3961  0.0292
15245SOL    HW157460  12.464   6.927   3.647 -1.0061  0.8833  0.8990
15245SOL    HW257461  12.513   6.810   3.730 -0.0056 -0.2369 -1.1699
15246SOL     OW57462   0.395   2.031   4.488  0.0450 -0.0685 -0.1612
15246SOL    HW157463   0.330   2.073   4.432 -1.0818 -1.1632  0.2800
15246SOL    HW257464   0.344   1.990   4.558  1.3839  1.0661  1.5900
15247SOL     OW57465  12.529  13.380   8.111  0.3487 -0.2305  0.0193
15247SOL    HW157466  12.458  13.322   8.084  0.2191  0.5237 -1.3485
15247SOL    HW257467  12.597  13.321   8.144 -0.7525 -0.9857  1.0218
15248SOL     OW57468   9.205   4.367   9.542  0.1450 -0.1920  0.1239
15248SOL    HW157469   9.291   4.400   9.514  0.5905 -0.9990  0.4946
15248SOL    HW257470   9.143   4.408   9.482  0.6883  1.0939  0.3837
15249SOL     OW57471  13.188   1.145  11.379  0.4200 -0.0412 -0.0104
15249SOL    HW157472  13.181   1.210  11.308 -0.6738 -0.8524 -0.6847
15249SOL    HW257473  13.232   1.192  11.450  1.1480  0.9333 -1.0648
15250SOL     OW57474   4.302   5.410  11.242  0.0177  0.0299  0.7905
15250SOL    HW157475   4.313   5.347  11.313 -2.9833  0.5295  1.8561
15250SOL    HW257476   4.365   5.479  11.261  1.0767 -1.0626  1.4396
15251SOL     OW57477  10.612   0.648  12.758  0.0637 -0.0196 -0.1819
15251SOL    HW157478  10.537   0.605  12.715  0.4057 -0.4714 -0.3352
15251SOL    HW257479  10.665   0.575  12.791 -0.2530  0.3116  1.1330
15252SOL     OW57480   1.365   8.630   4.551  0.3557  0.0570 -0.5174
15252SOL    HW157481   1.272   8.652   4.548 -0.1265 -1.5776  1.0366
15252SOL    HW257482   1.394   8.636   4.460 -2.1947 -2.9302 -1.7016
15253SOL     OW57483   1.412   0.154   0.414 -0.2316  0.2227  0.0139
15253SOL    HW157484   1.480   0.093   0.443 -1.1188 -0.6352  0.3348
15253SOL    HW257485   1.395   0.130   0.323  0.0958  0.6348 -0.1606
15254SOL     OW57486   7.283   9.864  13.321 -0.3662  0.1076  0.2768
15254SOL    HW157487   7.230   9.911  13.257 -0.5763  1.1586  1.1861
15254SOL    HW257488   7.364   9.915  13.326 -0.5733  0.3611  1.2347
15255SOL     OW57489   8.824   6.597   2.961 -0.1979  0.5448  0.3580
15255SOL    HW157490   8.751   6.542   2.932 -0.8720  1.0413  1.0396
15255SOL    HW257491   8.851   6.559   3.044  1.4462 -0.6272 -0.6669
15256SOL     OW57492  12.995   9.470   5.194  0.0968  0.3516 -0.6793
15256SOL    HW157493  13.037   9.475   5.280  0.2201 -1.5939 -0.5817
15256SOL    HW257494  12.902   9.458   5.214  0.2555 -1.1488 -0.7780
15257SOL     OW57495   3.139   1.834   8.532  0.1874 -0.1800  0.2330
15257SOL    HW157496   3.208   1.898   8.512 -0.8477  1.0813  0.5989
15257SOL    HW257497   3.100   1.813   8.447 -0.6237  1.0374  0.2869
15258SOL     OW57498  13.121  12.204  12.819  0.2686 -0.0181  0.3184
15258SOL    HW157499  13.040  12.168  12.783  1.6812 -0.7586 -2.4384
15258SOL    HW257500  13.111  12.299  12.812  0.3321 -0.1211 -1.9258
15259SOL     OW57501   2.338   7.853  11.066  0.6613 -0.7460  0.3086
15259SOL    HW157502   2.262   7.812  11.025  0.2417 -0.7023  1.0217
15259SOL    HW257503   2.350   7.805  11.148  0.6832 -0.0079  0.7495
15260SOL     OW57504   2.767   0.524  12.156  0.1581 -0.5592 -0.0963
15260SOL    HW157505   2.775   0.429  12.162 -1.1804 -0.6210  1.0490
15260SOL    HW257506   2.858   0.555  12.156  0.6223 -1.7067  2.1771
15261SOL     OW57507   7.468  13.655   8.254 -0.0520  0.2135  0.2180
15261SOL    HW157508   7.510  13.636   8.338 -0.6805  1.1773  0.7722
15261SOL    HW257509   7.378  13.677   8.277 -0.6419 -0.9260 -0.8622
15262SOL     OW57510   2.624   1.146   9.363  0.2515  0.5595 -0.0190
15262SOL    HW157511   2.598   1.172   9.275  0.5255  0.3361 -0.1661
15262SOL    HW257512   2.640   1.052   9.357 -1.5669  0.1551  0.6982
15263SOL     OW57513   1.204   0.202   6.497  0.0655  0.3325  0.5652
15263SOL    HW157514   1.281   0.147   6.514  0.6364  1.4466  1.7495
15263SOL    HW257515   1.232   0.260   6.426  0.2778  0.6156  0.8732
15264SOL     OW57516   0.050  12.812   1.166  0.5582  0.5624 -0.7874
15264SOL    HW157517  -0.046  12.813   1.174  0.4216 -0.4445 -1.9985
15264SOL    HW257518   0.070  12.891   1.115  0.5394  1.6172  0.7888
15265SOL     OW57519  11.443  12.389  11.270  0.6497 -0.3035  0.2593
15265SOL    HW157520  11.416  12.394  11.179  0.7123  0.3892  0.2695
15265SOL    HW257521  11.534  12.361  11.267  1.4895  2.1509 -0.0629
15266SOL     OW57522  10.778  11.914   8.145 -0.0235 -0.5631 -0.0809
15266SOL    HW157523  10.801  12.001   8.114  0.7670 -0.6961  0.1245
15266SOL    HW257524  10.700  11.891   8.093  0.5842 -0.3036 -1.1495
15267SOL     OW57525   3.235   0.319   4.685 -0.4063  0.2880 -0.0799
15267SOL    HW157526   3.271   0.349   4.602  0.5355  0.3328  0.3286
15267SOL    HW257527   3.193   0.396   4.723 -0.0794  0.4933 -0.1267
15268SOL     OW57528   6.791  10.566   8.706  0.5703  0.1816  0.0314
15268SOL    HW157529   6.785  10.504   8.633  1.3636  0.7170 -0.4983
15268SOL    HW257530   6.766  10.650   8.668  0.7376  0.4209  0.4471
15269SOL     OW57531   1.679   1.996   7.780 -0.2722  0.5085 -0.2150
15269SOL    HW157532   1.770   1.970   7.791 -0.4886 -0.5740 -0.8286
15269SOL    HW257533   1.662   2.056   7.852 -0.2817 -2.5079  2.4787
15270SOL     OW57534  12.266   5.389   3.480 -0.5675 -0.3270 -0.1684
15270SOL    HW157535  12.172   5.370   3.487 -0.5638  0.2029  2.1241
15270SOL    HW257536  12.295   5.336   3.406 -3.1731  1.7204 -2.9188
15271SOL     OW57537   7.536   9.760   3.735 -0.1606  0.7141  0.3906
15271SOL    HW157538   7.594   9.756   3.812 -0.8442 -1.2567  0.8803
15271SOL    HW257539   7.448   9.747   3.771 -0.4432 -0.8000 -0.7290
15272SOL     OW57540   4.012   5.200  12.085  0.2091 -0.0631 -0.2477
15272SOL    HW157541   3.958   5.135  12.129  0.1952 -0.2272 -0.5052
15272SOL    HW257542   4.033   5.264  12.153  1.0945 -0.8843  0.2619
15273SOL     OW57543  10.512   7.023   8.277 -0.1339 -0.4451 -0.0240
15273SOL    HW157544  10.524   6.950   8.216 -0.2842 -0.9922  0.5855
15273SOL    HW257545  10.588   7.018   8.335  0.3130  0.4281 -0.5067
15274SOL     OW57546   9.907   2.569   3.064 -0.0154 -0.7142  0.2503
15274SOL    HW157547   9.964   2.508   3.018  0.4250 -0.4811  0.4799
15274SOL    HW257548   9.955   2.652   3.064 -0.3681 -0.5062  0.4180
15275SOL     OW57549   4.081  13.105   0.480 -0.2956 -0.0629 -0.5586
15275SOL    HW157550   4.047  13.145   0.560  0.7347  2.0035 -1.0717
15275SOL    HW257551   4.055  13.165   0.411 -0.7805 -1.5902 -1.7471
15276SOL     OW57552  11.204   0.112   7.304  0.0451 -0.2741 -0.0306
15276SOL    HW157553  11.129   0.052   7.299 -0.9301  0.9395 -0.5899
15276SOL    HW257554  11.253   0.094   7.224  0.6468 -1.4099  0.5658
15277SOL     OW57555   3.324  12.510   9.382 -0.5957  0.3193 -0.2150
15277SOL    HW157556   3.359  12.421   9.383 -0.5609  0.3288  0.8684
15277SOL    HW257557   3.320  12.534   9.289  0.6392 -0.3246 -0.4591
15278SOL     OW57558   1.224   0.690   0.883  0.1943 -0.3778 -0.5314
15278SOL    HW157559   1.279   0.678   0.806 -1.7293 -1.6220 -1.8065
15278SOL    HW257560   1.258   0.626   0.947  2.5640  1.4819  0.2181
15279SOL     OW57561   2.801   9.438  12.421 -0.0795 -0.0536 -0.2661
15279SOL    HW157562   2.833   9.509  12.367 -0.7992  0.7747  0.3684
15279SOL    HW257563   2.871   9.422  12.485  0.2024 -0.1155 -0.5910
15280SOL     OW57564  12.915   0.901   9.501  0.3963  0.3367 -0.1529
15280SOL    HW157565  12.981   0.967   9.524  0.4413  0.8433 -1.6233
15280SOL    HW257566  12.915   0.840   9.575  0.9824  1.4997  0.8443
15281SOL     OW57567  10.395  12.031   4.371 -0.1758  0.0720  0.6259
15281SOL    HW157568  10.447  11.971   4.425 -0.1004 -1.0591 -0.6440
15281SOL    HW257569  10.412  12.117   4.408 -0.5680 -0.7021  2.7389
15282SOL     OW57570  11.306   8.072   0.003  0.1187 -0.7152  0.9003
15282SOL    HW157571  11.348   8.005  -0.051  2.4685 -0.0435  1.7620
15282SOL    HW257572  11.320   8.042   0.093 -0.9365 -0.2463  1.2313
15283SOL     OW57573   0.518   0.185   7.174  0.4603  0.3477  0.0402
15283SOL    HW157574   0.554   0.119   7.115 -2.7756 -0.6150 -1.0188
15283SOL    HW257575   0.519   0.144   7.261  0.6230 -0.1696 -0.2083
15284SOL     OW57576   6.212   1.355   7.510 -0.1380  0.0327 -0.3896
15284SOL    HW157577   6.156   1.308   7.571 -1.1814  0.9460 -0.6080
15284SOL    HW257578   6.193   1.448   7.526 -0.5090  0.2987 -2.1241
15285SOL     OW57579   1.933  10.620   8.006 -0.1265  0.0537  0.1495
15285SOL    HW157580   1.993  10.549   8.027  0.1282 -0.2398 -1.4495
15285SOL    HW257581   1.850  10.577   7.987 -0.1157  0.2222 -0.2967
15286SOL     OW57582   7.843   1.180  13.333 -0.1557  0.0847  0.0083
15286SOL    HW157583   7.928   1.173  13.375  0.6675 -1.4491 -1.7529
15286SOL    HW257584   7.816   1.271  13.347  0.9296  0.1349  2.0870
15287SOL     OW57585   1.481  13.358   7.129  0.2371 -0.3246 -0.3635
15287SOL    HW157586   1.474  13.264   7.113  0.3137 -0.7558  1.8858
15287SOL    HW257587   1.391  13.386   7.146  0.1438  0.1428 -1.5185
15288SOL     OW57588   7.050   6.956   5.415  0.0302  0.3608  0.0312
15288SOL    HW157589   7.057   6.902   5.336  0.1292  0.3770  0.0284
15288SOL    HW257590   7.140   6.961   5.449 -0.0927 -0.0660  0.4239
15289SOL     OW57591  13.357   9.465   2.149 -0.6439  0.0100  0.4217
15289SOL    HW157592  13.268   9.499   2.137  0.3273  1.9200 -2.1375
15289SOL    HW257593  13.379   9.488   2.239 -2.5551 -0.0715  0.9513
15290SOL     OW57594  12.879  12.316   0.689  0.2250  0.8706  0.4644
15290SOL    HW157595  12.858  12.347   0.777  0.9984  0.3323  0.8450
15290SOL    HW257596  12.912  12.227   0.702 -1.3822  0.0802 -0.5553
15291SOL     OW57597   2.254  13.486   7.576 -0.6319 -0.1928  0.0792
15291SOL    HW157598   2.337  13.532   7.566 -0.3048  0.0116  2.7975
15291SOL    HW257599   2.255  13.455   7.667 -2.9573 -1.3575 -0.2042
15292SOL     OW57600   9.866   4.373  11.219  0.1335  0.3176 -0.6426
15292SOL    HW157601   9.818   4.363  11.136 -2.1273  1.7933  0.3977
15292SOL    HW257602   9.807   4.334  11.284  2.1518 -1.3957  0.2726
15293SOL     OW57603   0.707   2.187   8.933  0.0139 -1.1696  0.2942
15293SOL    HW157604   0.758   2.151   9.005  0.2497  0.5886  1.0733
15293SOL    HW257605   0.703   2.281   8.952 -0.0551 -0.6758 -1.9082
15294SOL     OW57606   6.997   9.501   0.248  0.2946 -0.1428 -0.6592
15294SOL    HW157607   7.068   9.462   0.298  1.2824  1.2445 -0.9036
15294SOL    HW257608   6.917   9.474   0.294  1.0086 -1.1549  0.0291
15295SOL     OW57609   9.458  12.006   0.484 -0.0329 -0.2316  0.2296
15295SOL    HW157610   9.528  12.069   0.503  0.7543 -1.2661  0.8757
15295SOL    HW257611   9.404  12.006   0.563 -0.4590  0.1686 -0.0589
15296SOL     OW57612   9.832   5.337  12.608  0.4652  0.0502  0.0625
15296SOL    HW157613   9.754   5.354  12.556  0.9391  3.4637  0.2194
15296SOL    HW257614   9.896   5.303  12.545  0.0248  1.0148 -0.9412
15297SOL     OW57615  12.410  12.456   1.796 -0.2028 -0.3469 -0.3008
15297SOL    HW157616  12.367  12.370   1.799 -1.1260  0.0881 -0.7245
15297SOL    HW257617  12.350  12.515   1.842  0.5357  0.0364  0.1975
15298SOL     OW57618  12.190   1.882   6.842  0.2885  0.5885 -0.3724
15298SOL    HW157619  12.247   1.957   6.830 -0.7554  1.4385 -0.1548
15298SOL    HW257620  12.210   1.824   6.768  1.8606  0.5726  0.0508
15299SOL     OW57621   6.697   9.333   6.519  0.5631  0.9145  0.2177
15299SOL    HW157622   6.734   9.367   6.438  1.8742 -1.4215 -0.2586
15299SOL    HW257623   6.768   9.337   6.582  0.7319 -0.7395  0.1716
15300SOL     OW57624   2.445   1.612   3.236  0.1818  0.7617 -0.0003
15300SOL    HW157625   2.382   1.654   3.178 -0.0603  1.6768  0.8840
15300SOL    HW257626   2.392   1.564   3.300  0.3777  1.1829  0.4897
15301SOL     OW57627   8.138   4.684  11.651 -0.2898  0.7544  0.0714
15301SOL    HW157628   8.224   4.647  11.634 -0.6459 -0.2512  0.3845
15301SOL    HW257629   8.136   4.765  11.600  0.7846  0.7260 -0.0360
15302SOL     OW57630   3.706   5.296  11.341  0.3020  0.0845 -0.2512
15302SOL    HW157631   3.715   5.391  11.348 -1.5475  0.2489  0.5700
15302SOL    HW257632   3.699   5.280  11.247  0.0800  0.8431 -0.3720
15303SOL     OW57633   5.388   3.030  12.056  0.0709  0.5734 -0.2095
15303SOL    HW157634   5.367   2.973  11.982  0.4082  2.4264 -1.8181
15303SOL    HW257635   5.366   3.118  12.025  0.4227  1.4301  1.8414
15304SOL     OW57636  13.689   7.194   4.751 -0.2260 -0.0415 -0.2050
15304SOL    HW157637  13.727   7.257   4.813 -0.8433 -0.9715  1.1709
15304SOL    HW257638  13.624   7.147   4.803  1.8622 -3.5074 -0.4284
15305SOL     OW57639   6.514   0.174   5.104  1.0215  0.3198  0.3768
15305SOL    HW157640   6.525   0.234   5.178 -1.1393 -0.1738  1.1694
15305SOL    HW257641   6.522   0.087   5.142 -1.8194  0.0084  0.4543
15306SOL     OW57642  12.953  10.429   1.841 -0.4803 -0.2796  0.2038
15306SOL    HW157643  12.954  10.337   1.868 -2.2813 -0.5546 -0.5664
15306SOL    HW257644  13.010  10.473   1.905  2.2035 -2.2130 -0.6606
15307SOL     OW57645   6.577   4.341  10.971 -0.3617 -0.2241 -0.0536
15307SOL    HW157646   6.585   4.435  10.990  2.7079 -0.3678 -0.0901
15307SOL    HW257647   6.500   4.313  11.020 -1.2418  2.2545  0.1233
15308SOL     OW57648  12.441  10.096   6.532  0.1242 -0.5710  0.1511
15308SOL    HW157649  12.460  10.011   6.492 -1.4227 -1.0057  0.2963
15308SOL    HW257650  12.374  10.135   6.477 -1.0478 -0.5806  1.5038
15309SOL     OW57651   0.373  12.418   6.579 -0.1024 -0.7188  0.0153
15309SOL    HW157652   0.303  12.370   6.623 -2.8343  1.7343 -1.2928
15309SOL    HW257653   0.432  12.350   6.547 -1.4071 -2.8918  1.8605
15310SOL     OW57654  12.457  12.867   9.322 -0.0823 -0.1248  0.4015
15310SOL    HW157655  12.467  12.954   9.360  0.1695 -1.1489  2.8750
15310SOL    HW257656  12.547  12.833   9.313 -0.2533 -1.1279  2.0800
15311SOL     OW57657   0.059   8.932   0.994 -0.1072  0.1148 -0.2760
15311SOL    HW157658  -0.016   8.895   0.948 -0.5949  0.1456  0.4680
15311SOL    HW257659   0.125   8.863   0.993 -0.7996 -0.5998  0.6040
15312SOL     OW57660   8.862   0.256   2.431 -0.2385  0.7004 -0.7750
15312SOL    HW157661   8.808   0.231   2.356 -1.0790 -0.3151  0.1403
15312SOL    HW257662   8.807   0.316   2.481 -0.1958  0.3515 -0.3006
15313SOL     OW57663   8.926  10.899  13.335  0.0534 -0.0255  0.1011
15313SOL    HW157664   8.943  10.882  13.428 -0.1878 -1.4722 -0.1060
15313SOL    HW257665   8.994  10.961  13.310  0.2600  0.2139  1.1885
15314SOL     OW57666   2.677   2.628  13.592 -0.0872  0.5344  0.0862
15314SOL    HW157667   2.655   2.540  13.561  1.2253  0.3779 -0.4372
15314SOL    HW257668   2.622   2.639  13.670 -0.6432 -0.5407 -0.1270
15315SOL     OW57669   5.847   0.386   4.797  0.2117  0.5919 -0.3811
15315SOL    HW157670   5.856   0.444   4.872 -0.2645  0.8027 -0.4833
15315SOL    HW257671   5.869   0.441   4.721  0.8075  0.3487 -0.3916
15316SOL     OW57672  11.605   7.157   3.434  0.3789  0.1208 -0.6630
15316SOL    HW157673  11.632   7.204   3.513  0.6146 -0.3303 -0.4746
15316SOL    HW257674  11.579   7.226   3.373 -2.0669  0.4575  0.5927
15317SOL     OW57675   9.620   1.313   2.668  0.3656 -0.9241 -0.3188
15317SOL    HW157676   9.577   1.361   2.738  0.0219 -0.5246 -0.7977
15317SOL    HW257677   9.623   1.222   2.699  1.3884 -0.5566  0.7762
15318SOL     OW57678   7.636  11.847   8.966 -0.3522 -0.0924 -0.2990
15318SOL    HW157679   7.694  11.860   9.041 -0.0385  3.7994 -1.0493
15318SOL    HW257680   7.686  11.793   8.906  1.1503  0.3720  0.4876
15319SOL     OW57681   1.067   8.929   3.019  0.0377  0.0125  0.0875
15319SOL    HW157682   1.018   8.897   3.095  1.0255 -0.8371  0.3965
15319SOL    HW257683   1.112   9.007   3.052  0.3606 -0.2798  0.3460
15320SOL     OW57684   4.996   6.981   9.010 -0.0402 -0.3212  0.3926
15320SOL    HW157685   4.920   6.929   9.039 -0.1649 -0.0898  0.4805
15320SOL    HW257686   5.071   6.934   9.047 -0.0890 -0.9038 -0.2164
15321SOL     OW57687  10.025   6.219   7.102 -0.4099  0.2434  0.0259
15321SOL    HW157688  10.058   6.287   7.161 -0.6121  0.9177 -0.6367
15321SOL    HW257689  10.103   6.183   7.060 -0.2667 -0.2204  0.6653
15322SOL     OW57690   6.790   9.650   6.738 -0.0239 -0.1080 -0.5823
15322SOL    HW157691   6.728   9.577   6.738 -1.4443  1.0549 -0.5723
15322SOL    HW257692   6.741   9.723   6.776  0.5210  1.5255 -2.7948
15323SOL     OW57693   7.950  13.737   0.273 -0.1103 -0.0589 -0.3135
15323SOL    HW157694   7.903  13.723   0.355 -2.0011 -2.0445 -1.6099
15323SOL    HW257695   7.900  13.805   0.228  0.0718  0.0242 -0.3890
15324SOL     OW57696   9.073  11.451   0.617 -0.3504  0.2693 -0.0915
15324SOL    HW157697   9.007  11.389   0.587  0.0441 -0.6637  0.9310
15324SOL    HW257698   9.022  11.520   0.661 -0.6976  0.0232 -0.1026
15325SOL     OW57699  11.236   9.274   1.704  0.0645 -0.0981  0.4162
15325SOL    HW157700  11.326   9.305   1.700 -0.0612  0.2458  0.2100
15325SOL    HW257701  11.214   9.277   1.798 -0.4340  1.8987  0.2967
15326SOL     OW57702   4.490   1.008   6.787  0.0408  0.4472 -0.1408
15326SOL    HW157703   4.469   1.036   6.698 -0.3139 -0.8817 -0.5034
15326SOL    HW257704   4.463   1.080   6.843  0.4954  1.4002 -1.1276
15327SOL     OW57705  11.970   6.990   7.105  0.7959 -0.0581 -0.0667
15327SOL    HW157706  11.955   7.031   7.191 -0.8860 -0.4415 -0.1457
15327SOL    HW257707  11.910   6.915   7.104  2.3372 -1.3322 -0.7465
15328SOL     OW57708   4.291   8.922  12.992  0.3243 -0.4366 -0.1414
15328SOL    HW157709   4.227   8.851  12.996  0.4803 -0.5436  0.6274
15328SOL    HW257710   4.336   8.918  13.077  1.7417 -0.7326 -0.8861
15329SOL     OW57711   6.702   8.073  12.412  0.6368 -0.7120 -0.1658
15329SOL    HW157712   6.626   8.103  12.361  1.8488  0.8086 -1.1520
15329SOL    HW257713   6.670   7.996  12.459 -1.7943  0.4165  0.1944
15330SOL     OW57714   8.932  12.383   9.796  0.0349  0.2146 -0.1419
15330SOL    HW157715   8.949  12.381   9.890 -0.1682  1.9649 -0.0340
15330SOL    HW257716   8.905  12.294   9.774 -0.5456 -0.0585  1.5790
15331SOL     OW57717   2.613   2.361  13.652 -0.5319 -0.0028  0.2072
15331SOL    HW157718   2.540   2.373  13.713 -0.6996  0.0582 -0.0015
15331SOL    HW257719   2.654   2.279  13.679 -0.5282  0.0859  0.4770
15332SOL     OW57720   9.382  11.722   7.242  0.2489 -0.2963 -0.7408
15332SOL    HW157721   9.428  11.641   7.219 -0.1679 -0.4341 -1.0979
15332SOL    HW257722   9.290  11.702   7.228  0.2363  0.7529 -2.4644
15333SOL     OW57723   0.148  12.120  10.421 -0.0703  0.0082 -0.2866
15333SOL    HW157724   0.190  12.201  10.391  0.4309  0.2660  1.0426
15333SOL    HW257725   0.086  12.149  10.488 -0.1012 -0.6781 -0.0121
15334SOL     OW57726   1.764   2.969  12.021  0.1068  0.2923 -0.0025
15334SOL    HW157727   1.795   2.996  11.935 -1.5994  2.0862 -0.1107
15334SOL    HW257728   1.842   2.974  12.077  0.5615  2.4222 -0.7487
15335SOL     OW57729   9.038   3.386   2.335 -0.2432  0.0522  0.1751
15335SOL    HW157730   9.115   3.337   2.362 -0.0999 -0.8037 -1.6084
15335SOL    HW257731   8.972   3.367   2.402 -0.3872 -3.1807 -0.7357
15336SOL     OW57732   4.268   6.440   2.767  0.2483 -0.4791  0.2533
15336SOL    HW157733   4.233   6.516   2.812  1.3164 -1.0520  2.1719
15336SOL    HW257734   4.219   6.366   2.802 -1.5029 -0.6846 -2.3330
15337SOL     OW57735   1.833   5.092   5.746  0.1317  0.2215  1.1625
15337SOL    HW157736   1.914   5.142   5.737  0.3034 -0.2068  0.2236
15337SOL    HW257737   1.860   5.000   5.735 -0.7464  0.2004 -1.2737
15338SOL     OW57738   4.397   7.834  11.419 -0.5880  0.4158 -0.1845
15338SOL    HW157739   4.457   7.774  11.464  1.4824  1.0860 -1.8590
15338SOL    HW257740   4.314   7.787  11.415  0.6875 -1.9396 -0.5600
15339SOL     OW57741   8.660   7.865   3.192 -0.2122 -0.0870  0.3558
15339SOL    HW157742   8.634   7.786   3.238 -1.4356 -0.1036 -0.3199
15339SOL    HW257743   8.755   7.858   3.183 -0.2100 -1.0653  1.0439
15340SOL     OW57744  12.806  13.526   8.165 -0.1669 -0.5825  0.1528
15340SOL    HW157745  12.800  13.435   8.193  1.8834 -1.0544 -0.8048
15340SOL    HW257746  12.887  13.531   8.115 -0.1126  1.8317  0.3729
15341SOL     OW57747   7.299   4.687   1.876 -0.1424  0.2318 -0.5716
15341SOL    HW157748   7.304   4.767   1.927  2.2319 -0.2668  0.0745
15341SOL    HW257749   7.216   4.694   1.829 -1.5355  1.5668  1.8999
15342SOL     OW57750  11.439   4.252   7.096 -0.0410  0.0337  0.0460
15342SOL    HW157751  11.487   4.311   7.154 -1.0400 -1.7652  2.9686
15342SOL    HW257752  11.505   4.217   7.037  1.3291  1.0225  0.9340
15343SOL     OW57753   6.903  11.100  11.598  0.2309 -0.0794 -0.3997
15343SOL    HW157754   6.885  11.006  11.598 -1.9506  0.2768 -0.9323
15343SOL    HW257755   6.877  11.129  11.686  0.8912  0.0286 -0.2400
15344SOL     OW57756   5.759   5.548   1.557 -0.1984  0.2557 -0.8655
15344SOL    HW157757   5.821   5.621   1.550 -0.3886  0.5606  0.3491
15344SOL    HW257758   5.805   5.482   1.609 -0.9683  0.6068  0.3039
15345SOL     OW57759   3.826  13.742   3.768 -0.1950  0.0011 -0.1740
15345SOL    HW157760   3.853  13.692   3.691  2.4727  0.9400  0.0619
15345SOL    HW257761   3.745  13.786   3.741 -0.7273 -1.7136 -1.5148
15346SOL     OW57762   4.836  12.100   4.835  0.2874 -0.5623 -0.2726
15346SOL    HW157763   4.812  12.163   4.902  0.7843 -0.2925 -0.3386
15346SOL    HW257764   4.806  12.139   4.753  0.4271 -0.4945 -0.2927
15347SOL     OW57765   4.136   4.971   0.062 -0.8485  0.2261  0.1405
15347SOL    HW157766   4.068   4.938   0.120 -1.7952 -2.2029 -2.1405
15347SOL    HW257767   4.209   4.910   0.074 -1.0693 -0.3235 -1.1808
15348SOL     OW57768  11.552   1.811   8.391  0.6004 -0.3436  0.5104
15348SOL    HW157769  11.562   1.809   8.296 -1.1224  0.2213  0.2671
15348SOL    HW257770  11.583   1.726   8.421 -1.1744 -1.5447 -0.8672
15349SOL     OW57771   3.841   6.233  10.699 -0.3973  0.4947 -0.4316
15349SOL    HW157772   3.782   6.201  10.631  1.6280  0.0682 -2.0925
15349SOL    HW257773   3.890   6.303  10.656  2.0860 -0.8878 -0.0002
15350SOL     OW57774   0.734  13.268  10.553 -0.0332 -0.2686  0.5731
15350SOL    HW157775   0.685  13.245  10.474 -0.9897  0.5821  0.9048
15350SOL    HW257776   0.805  13.325  10.522 -0.2379 -0.1642  0.2972
15351SOL     OW57777   6.922   5.113   0.384  0.1677  0.6122  0.5580
15351SOL    HW157778   6.844   5.058   0.372  1.5747 -1.3417 -0.0086
15351SOL    HW257779   6.924   5.169   0.307 -0.8375  0.9118  0.7336
15352SOL     OW57780   5.431   7.389  10.058 -0.6521  0.1072  0.1030
15352SOL    HW157781   5.417   7.441  10.137 -0.7618  1.3813 -0.7305
15352SOL    HW257782   5.522   7.360  10.064 -0.3135  1.1622  0.1431
15353SOL     OW57783   9.336  11.902   9.823 -0.1257 -0.0736  0.0375
15353SOL    HW157784   9.386  11.930   9.900 -1.7199 -1.2372  1.5686
15353SOL    HW257785   9.379  11.821   9.796 -1.6357 -1.6524  1.9931
15354SOL     OW57786   2.823   4.604  10.966 -0.7861  0.0583  0.3581
15354SOL    HW157787   2.760   4.588  10.895  1.0361  0.4867 -1.4505
15354SOL    HW257788   2.797   4.689  11.002 -0.7531  0.6294 -0.9269
15355SOL     OW57789   1.416   6.421   2.494 -0.0249 -0.1579  0.4913
15355SOL    HW157790   1.427   6.421   2.589  0.0056 -2.5374  0.5376
15355SOL    HW257791   1.493   6.468   2.461  0.2408  0.2125  1.6096
15356SOL     OW57792   1.491   7.166  11.084  0.1312  0.5757 -0.1362
15356SOL    HW157793   1.448   7.251  11.071  1.0884  1.2423  0.8680
15356SOL    HW257794   1.583   7.184  11.063  0.1409 -0.5258 -1.0934
15357SOL     OW57795  11.105   6.289   6.389 -0.0941  0.6533  0.5526
15357SOL    HW157796  11.012   6.285   6.410 -0.0876  1.2079  0.7013
15357SOL    HW257797  11.113   6.363   6.329 -0.1954 -1.2344 -1.9257
15358SOL     OW57798   0.441   8.022   8.252 -0.1571 -0.2494 -0.1218
15358SOL    HW157799   0.387   8.046   8.176 -0.0266  0.4713  0.0087
15358SOL    HW257800   0.531   8.029   8.220 -0.0944  0.3485  0.1855
15359SOL     OW57801  13.329   4.459   9.276 -0.3504  0.0574  0.1438
15359SOL    HW157802  13.385   4.493   9.345 -0.5046 -0.7499  0.6851
15359SOL    HW257803  13.388   4.446   9.201  0.0809 -0.2840  0.5376
15360SOL     OW57804   3.762   1.619   9.384  0.8168  0.3732  0.0881
15360SOL    HW157805   3.710   1.698   9.371  1.3814  0.6016 -0.9533
15360SOL    HW257806   3.725   1.577   9.462  0.4253  1.5893  0.5745
15361SOL     OW57807  12.509   3.136   9.014  0.1316 -0.3088  0.2126
15361SOL    HW157808  12.575   3.108   8.950  0.5684 -0.1018  0.5744
15361SOL    HW257809  12.427   3.138   8.964  0.1048 -2.0859  0.1348
15362SOL     OW57810   5.230   2.678  11.817 -0.0992 -0.0814  0.2771
15362SOL    HW157811   5.186   2.708  11.897 -0.3814 -2.0204  0.8886
15362SOL    HW257812   5.162   2.632  11.768 -0.1823  1.8746 -1.5947
15363SOL     OW57813   7.035   4.301   5.101 -0.0673  0.3947  0.0443
15363SOL    HW157814   6.945   4.269   5.112  0.4219 -0.6346  1.2604
15363SOL    HW257815   7.025   4.381   5.049 -2.1028  2.2611  2.9286
15364SOL     OW57816   5.690   0.037   2.603  0.4871 -0.0068  0.1536
15364SOL    HW157817   5.610   0.071   2.644  0.9504  0.4497  0.6991
15364SOL    HW257818   5.714  -0.039   2.656  0.0051 -0.6074 -0.4674
15365SOL     OW57819  10.832   9.606   8.613 -0.2524  0.0900  0.4652
15365SOL    HW157820  10.738   9.622   8.619 -0.4157 -0.0292 -1.2763
15365SOL    HW257821  10.840   9.514   8.588  0.3933 -0.2455  1.8020
15366SOL     OW57822  11.506   8.533   0.292  1.1031 -0.0585 -0.7761
15366SOL    HW157823  11.426   8.582   0.272  1.4944  1.3016  0.8071
15366SOL    HW257824  11.503   8.459   0.232 -2.1404 -0.9434  0.2186
15367SOL     OW57825   4.728   4.238  12.963  0.1908 -0.1771  0.0392
15367SOL    HW157826   4.799   4.176  12.977  0.0352 -0.8552 -1.9759
15367SOL    HW257827   4.717   4.242  12.868 -3.2085 -0.9752  0.2816
15368SOL     OW57828   3.451  13.063   7.674 -0.5050  0.2962 -0.5313
15368SOL    HW157829   3.434  13.110   7.592  1.3784  1.6110 -0.2326
15368SOL    HW257830   3.534  13.099   7.705 -0.2692 -1.4753  1.0477
15369SOL     OW57831  10.124   6.153   5.789 -0.3141  0.1515 -0.6172
15369SOL    HW157832  10.159   6.098   5.859  0.6430  0.1345 -1.0917
15369SOL    HW257833  10.034   6.172   5.816  0.1475  0.4419  0.7836
15370SOL     OW57834   2.521   8.766   4.918  0.5197  0.0557  0.8987
15370SOL    HW157835   2.513   8.729   4.830 -0.4930 -0.3184  1.1257
15370SOL    HW257836   2.432   8.796   4.939  0.5352 -0.7263  2.1607
15371SOL     OW57837   5.703   1.614  11.220 -0.8443 -0.4688 -0.3599
15371SOL    HW157838   5.720   1.688  11.279  1.9597 -1.8823  0.7867
15371SOL    HW257839   5.668   1.545  11.276  0.6504 -1.4003 -0.5071
15372SOL     OW57840   3.085   9.117  12.044 -0.2768  0.2596  0.3951
15372SOL    HW157841   3.004   9.138  12.091 -0.0703  0.2174  0.7767
15372SOL    HW257842   3.097   9.188  11.982 -0.1536  0.7188  0.9315
15373SOL     OW57843   7.041   6.968   7.632 -0.0960 -0.0107  0.2564
15373SOL    HW157844   7.019   6.887   7.586  0.0273 -0.1549  0.4513
15373SOL    HW257845   7.013   6.953   7.722  0.3784 -0.0200  0.4029
15374SOL     OW57846   6.070   8.047   2.075  0.3321 -0.1879 -0.1971
15374SOL    HW157847   6.102   7.987   2.007  1.1162 -0.3772  0.3199
15374SOL    HW257848   6.028   7.990   2.139 -0.7539  0.0302 -0.7090
15375SOL     OW57849   0.794   2.238   9.760 -0.0626  0.2744  0.0331
15375SOL    HW157850   0.884   2.269   9.770 -0.5928  1.8219  0.3466
15375SOL    HW257851   0.758   2.239   9.849 -0.8404  1.2358 -0.2643
15376SOL     OW57852   8.954   9.999  10.410  0.4721 -0.0910 -0.3058
15376SOL    HW157853   8.871   9.962  10.439  0.8485 -0.6676  0.0771
15376SOL    HW257854   8.947  10.004  10.315  0.1750 -0.5920 -0.3142
15377SOL     OW57855   0.115   0.888   4.511 -0.4532  0.4985 -0.1728
15377SOL    HW157856   0.160   0.945   4.449 -0.9533 -0.6796 -1.6853
15377SOL    HW257857   0.154   0.802   4.497 -0.0152  0.3452  1.7644
15378SOL     OW57858   3.826   1.490   7.694 -0.1054 -0.2581  0.1611
15378SOL    HW157859   3.826   1.508   7.788  0.6249  0.5832  0.0223
15378SOL    HW257860   3.734   1.491   7.669 -0.3935 -1.6544  1.0597
15379SOL     OW57861  13.391   6.967   9.906 -0.4009 -0.0975 -0.0087
15379SOL    HW157862  13.442   6.908   9.961 -2.3095 -2.2047 -0.3363
15379SOL    HW257863  13.383   6.921   9.822 -1.0346  1.1461 -0.6626
15380SOL     OW57864  12.034   4.812   2.432 -0.3320  0.0881 -0.2702
15380SOL    HW157865  12.100   4.762   2.385 -1.4972 -0.3631 -1.5075
15380SOL    HW257866  12.017   4.762   2.511  1.0422  0.3998  0.2451
15381SOL     OW57867  13.432  10.377   1.071  0.1067  0.0743 -0.2472
15381SOL    HW157868  13.522  10.365   1.042 -0.0123  1.6581 -1.3826
15381SOL    HW257869  13.439  10.415   1.159  0.6017  1.4090 -0.8352
15382SOL     OW57870   4.265   6.698   3.969 -0.1731 -0.3928  0.5246
15382SOL    HW157871   4.344   6.683   3.917 -1.0183 -2.3085 -0.2948
15382SOL    HW257872   4.233   6.784   3.940  0.5490 -0.4648 -0.5262
15383SOL     OW57873   0.540  13.132   6.039 -0.2042  0.1884  0.1308
15383SOL    HW157874   0.568  13.216   6.075 -1.7660  0.6081  0.4342
15383SOL    HW257875   0.481  13.155   5.968  0.0345 -0.6583 -0.3490
15384SOL     OW57876   6.182   0.403  11.055  0.2591 -0.4399 -0.7190
15384SOL    HW157877   6.113   0.461  11.021 -0.0966 -1.0412 -1.0405
15384SOL    HW257878   6.152   0.315  11.033  0.2008 -0.8383  0.8267
15385SOL     OW57879   8.919  10.866   4.514 -0.0084  0.5850 -0.2863
15385SOL    HW157880   8.876  10.867   4.429  0.0461  0.4793 -0.3151
15385SOL    HW257881   9.012  10.878   4.495 -0.1532  2.1083 -0.1405
15386SOL     OW57882   5.488   9.211   7.765  0.1459  0.5203  0.1859
15386SOL    HW157883   5.505   9.208   7.671 -0.0673  0.7268  0.1408
15386SOL    HW257884   5.571   9.241   7.803  0.3859 -0.0300  0.1086
15387SOL     OW57885  10.542   3.506   4.818  0.1382  0.3982 -0.1161
15387SOL    HW157886  10.625   3.491   4.772  1.0646  0.1121  1.5372
15387SOL    HW257887  10.474   3.484   4.755  1.3544 -1.0983 -0.9538
15388SOL     OW57888   8.295   3.419  13.234  0.6929 -0.0621 -0.2246
15388SOL    HW157889   8.378   3.373  13.246  0.5739  0.2947  2.4820
15388SOL    HW257890   8.301   3.496  13.290 -1.0365  0.5609 -0.8301
15389SOL     OW57891   9.008  12.684   9.915  0.3284 -0.1824 -0.0417
15389SOL    HW157892   9.087  12.696   9.862  0.4939 -2.4266 -0.3974
15389SOL    HW257893   9.039  12.638   9.993 -0.3684  0.5647  0.6945
15390SOL     OW57894   3.205   4.727   7.831  0.1785  0.4224  0.6955
15390SOL    HW157895   3.120   4.719   7.874 -0.7014 -1.9533 -1.2776
15390SOL    HW257896   3.229   4.819   7.844 -2.9223  1.3315  0.9154
15391SOL     OW57897   2.400   0.694   6.281  0.8960 -0.4176  0.1537
15391SOL    HW157898   2.457   0.770   6.268  1.0486 -0.6085 -0.3290
15391SOL    HW257899   2.446   0.639   6.343  1.5222 -0.8439 -0.6650
15392SOL     OW57900   9.592   2.021  12.156  0.0805 -0.0143 -0.1780
15392SOL    HW157901   9.679   2.049  12.128 -0.9938  1.9541 -1.7961
15392SOL    HW257902   9.541   2.014  12.075 -1.6792  0.3953  0.8300
15393SOL     OW57903   7.819   8.161   6.864  0.1909 -0.1954  0.1559
15393SOL    HW157904   7.892   8.156   6.925  1.2367 -0.7234 -1.0971
15393SOL    HW257905   7.752   8.104   6.902 -0.1727  1.4030  2.0472
15394SOL     OW57906  11.210  11.529  12.172  0.7045  0.3173 -0.1707
15394SOL    HW157907  11.167  11.584  12.106 -1.2299 -1.1921 -0.2598
15394SOL    HW257908  11.260  11.465  12.121 -1.1676 -1.1443 -0.2674
15395SOL     OW57909   6.368   0.946   1.377  0.2024 -0.3871  0.2526
15395SOL    HW157910   6.278   0.917   1.388  0.6052 -2.0806 -0.5939
15395SOL    HW257911   6.393   0.982   1.462 -0.5621 -1.9320  1.1574
15396SOL     OW57912   0.952   5.819   7.186  0.5055  0.1042 -0.0763
15396SOL    HW157913   0.920   5.906   7.164 -1.1877 -0.6923 -0.9472
15396SOL    HW257914   0.920   5.803   7.275  1.2713  0.5395  0.2954
15397SOL     OW57915   2.206   5.360   0.941  0.0127 -0.5610 -0.8031
15397SOL    HW157916   2.124   5.405   0.961 -0.2092 -1.5561  0.6853
15397SOL    HW257917   2.238   5.403   0.862  1.0364  3.7764  1.6783
15398SOL     OW57918   4.606   1.453   0.977 -0.7013 -0.4599  0.7271
15398SOL    HW157919   4.663   1.379   1.000  0.0696  0.0195  0.4130
15398SOL    HW257920   4.557   1.422   0.901 -0.9510 -0.9218  1.0698
15399SOL     OW57921   1.546   1.583   6.746  0.0842 -0.3622 -0.0945
15399SOL    HW157922   1.488   1.595   6.821 -1.3487 -0.1454 -1.1864
15399SOL    HW257923   1.514   1.504   6.702  2.2477 -1.7394  0.6562
15400SOL     OW57924   0.890   5.200  11.440  0.3201 -0.3222 -0.0355
15400SOL    HW157925   0.823   5.254  11.400  0.3435 -0.9549 -0.9711
15400SOL    HW257926   0.852   5.170  11.522  0.3637  1.2077  0.5556
15401SOL     OW57927   5.984   5.435  12.188  0.5765  0.3556  0.3405
15401SOL    HW157928   5.905   5.470  12.229 -0.1818  1.2121 -1.7215
15401SOL    HW257929   5.972   5.451  12.094  1.8334 -2.2396 -0.3524
15402SOL     OW57930  12.253   4.483   5.199 -0.0319  0.2248  0.3212
15402SOL    HW157931  12.288   4.534   5.126 -0.3373  0.1677  0.1334
15402SOL    HW257932  12.168   4.523   5.217 -0.9090 -1.0661 -0.7313
15403SOL     OW57933   8.068   3.371   6.484 -0.4298 -0.3964  0.1951
15403SOL    HW157934   8.150   3.366   6.436 -1.8399 -0.2024 -2.4261
15403SOL    HW257935   8.066   3.291   6.537  1.3463 -0.4532  0.2415
15404SOL     OW57936   0.853  10.153   7.261 -0.0279  0.0630  0.2025
15404SOL    HW157937   0.919  10.084   7.250  0.3363  0.2663  1.0951
15404SOL    HW257938   0.886  10.208   7.331 -0.6546  0.7627 -0.0371
15405SOL     OW57939   4.714  10.214   3.479 -0.4491  0.1786 -0.1019
15405SOL    HW157940   4.759  10.131   3.467 -1.6298 -0.3613 -1.0177
15405SOL    HW257941   4.718  10.257   3.394  0.7695  1.4143  0.5394
15406SOL     OW57942  10.757  10.595  11.355  0.5959 -0.1960 -0.7300
15406SOL    HW157943  10.826  10.635  11.302 -1.4322  3.1209 -1.1198
15406SOL    HW257944  10.678  10.600  11.301 -0.5286 -1.4428  0.6933
15407SOL     OW57945   0.296   0.329   2.191 -0.0043  0.4482  0.4441
15407SOL    HW157946   0.227   0.369   2.138  0.0390 -0.5457 -0.3847
15407SOL    HW257947   0.254   0.312   2.275  0.2363  3.0990  1.2095
15408SOL     OW57948   0.590   8.965   4.621 -0.0116  0.2144  0.1544
15408SOL    HW157949   0.624   8.902   4.685 -0.1128  0.3063  0.2979
15408SOL    HW257950   0.627   8.936   4.538 -2.2558 -1.6914 -0.2585
15409SOL     OW57951   6.022   6.398   8.624 -0.6864  0.2652  0.0453
15409SOL    HW157952   5.990   6.466   8.683 -1.0442 -1.8128  2.4180
15409SOL    HW257953   5.952   6.333   8.621 -0.7933  0.3473 -2.9669
15410SOL     OW57954   4.995   3.069   5.596 -0.2380 -0.2205  0.4663
15410SOL    HW157955   4.988   3.117   5.678 -1.1795 -0.1509  0.3625
15410SOL    HW257956   5.089   3.066   5.577 -0.1462  1.7376  0.3967
15411SOL     OW57957  12.914   8.455   5.874 -0.2670 -0.0730 -0.3382
15411SOL    HW157958  12.839   8.404   5.903  0.4089 -0.9748 -0.1304
15411SOL    HW257959  12.966   8.394   5.821  1.7959 -0.4264  1.8750
15412SOL     OW57960   3.520  11.154  12.736  0.1099 -0.4531  0.2110
15412SOL    HW157961   3.473  11.083  12.691  2.1526 -0.7986 -1.5778
15412SOL    HW257962   3.498  11.143  12.828 -1.4444 -1.9817 -0.2834
15413SOL     OW57963   8.738  12.870  11.278  0.7193 -0.3890  0.0247
15413SOL    HW157964   8.747  12.900  11.369  0.4321  0.6174 -0.2678
15413SOL    HW257965   8.655  12.908  11.248  0.9297 -0.5074 -0.7345
15414SOL     OW57966  10.061   7.233   9.279 -0.1095  0.8901  0.1300
15414SOL    HW157967  10.156   7.247   9.273 -0.2677  1.4275 -2.6238
15414SOL    HW257968  10.028   7.257   9.192 -2.6288 -0.4677  0.6142
15415SOL     OW57969   2.320   1.321   3.773  0.6378  0.3917 -0.0524
15415SOL    HW157970   2.268   1.385   3.821 -0.7109 -0.6810  0.0050
15415SOL    HW257971   2.255   1.266   3.729  1.7643 -0.5025 -0.6602
15416SOL     OW57972  13.539   9.671   1.068 -0.2593  0.6058  0.0844
15416SOL    HW157973  13.473   9.662   1.137 -1.6189  1.1211 -1.1031
15416SOL    HW257974  13.532   9.762   1.039  1.2246  0.7653  0.1442
15417SOL     OW57975   9.624  12.377   2.846  0.6118 -0.6111  0.7474
15417SOL    HW157976   9.586  12.428   2.917  0.2636  0.2190 -0.0174
15417SOL    HW257977   9.550  12.329   2.809 -0.3762  2.7783 -2.2693
15418SOL     OW57978  13.079   0.773   3.686 -0.4510  0.6272 -0.4968
15418SOL    HW157979  13.042   0.860   3.669 -0.5954  0.6552 -0.0362
15418SOL    HW257980  13.174   0.788   3.692 -0.4640  0.7311 -0.5485
15419SOL     OW57981  10.740   1.817   3.536  0.4629 -0.0358  0.2052
15419SOL    HW157982  10.816   1.822   3.478  0.5105  2.8379  0.3501
15419SOL    HW257983  10.671   1.865   3.491 -0.6686 -0.8920  0.9556
15420SOL     OW57984   8.041  12.300   7.338  0.6060 -0.0009  0.3655
15420SOL    HW157985   8.087  12.287   7.421  1.1373  0.1645  0.0965
15420SOL    HW257986   7.968  12.237   7.342  0.7241 -0.1139  0.8825
15421SOL     OW57987   2.698  13.458   6.668  0.5098  0.5055 -0.1195
15421SOL    HW157988   2.646  13.491   6.595 -0.0673 -2.1990 -1.0448
15421SOL    HW257989   2.767  13.405   6.627  0.3029 -0.9013  1.2398
15422SOL     OW57990  13.335   2.209   4.094  0.0705  0.1892 -1.0104
15422SOL    HW157991  13.340   2.242   4.004  0.2896 -1.1514 -1.5198
15422SOL    HW257992  13.259   2.150   4.094 -0.1503  0.4561 -0.2077
15423SOL     OW57993   8.874   4.458   0.395 -0.2734 -0.5673  0.3876
15423SOL    HW157994   8.826   4.472   0.476  1.6367  0.3244  1.4217
15423SOL    HW257995   8.953   4.410   0.422  0.1121 -0.7805 -1.0427
15424SOL     OW57996   6.794  10.887  11.716  0.2121  0.0125 -0.0248
15424SOL    HW157997   6.742  10.892  11.796 -0.6961  1.3156 -0.6577
15424SOL    HW257998   6.758  10.812  11.668  1.7542 -1.7472  1.3933
15425SOL     OW57999   9.536   3.680  12.656  0.6898  0.2938  0.8037
15425SOL    HW158000   9.608   3.726  12.613  1.5722  0.3963  2.3105
15425SOL    HW258001   9.489   3.748  12.704 -0.2241  0.1713  0.1100
15426SOL     OW58002  12.953   8.485   0.669 -0.2065 -0.5207 -0.6951
15426SOL    HW158003  12.871   8.503   0.715 -1.4403  0.0005 -2.9588
15426SOL    HW258004  13.003   8.431   0.730 -2.1972 -0.7932  0.7913
15427SOL     OW58005  12.107  11.181  10.934 -0.2000 -0.0231  0.3845
15427SOL    HW158006  12.192  11.149  10.905 -0.4627  0.3032 -0.7807
15427SOL    HW258007  12.044  11.118  10.900 -0.4244 -0.4288  1.4965
15428SOL     OW58008  12.435  10.422  11.274 -0.0152  0.6546  0.1575
15428SOL    HW158009  12.489  10.493  11.308  0.2415  0.3408  0.4202
15428SOL    HW258010  12.433  10.358  11.345 -1.2000  0.8997  0.3687
15429SOL     OW58011   2.455  13.004  13.536  0.4006  0.0810  0.4763
15429SOL    HW158012   2.440  13.060  13.612  0.6632  1.1904 -0.2522
15429SOL    HW258013   2.417  13.053  13.463  0.3949 -0.8315 -0.1500
15430SOL     OW58014  13.566   9.519   3.925 -0.9131  0.5567  0.4471
15430SOL    HW158015  13.567   9.425   3.940 -1.9520  0.5014  0.2169
15430SOL    HW258016  13.624   9.532   3.850  0.3400  0.2774  1.3229
15431SOL     OW58017   3.402   1.420   9.150 -0.3513 -0.4316  0.6535
15431SOL    HW158018   3.342   1.485   9.187 -0.1981  0.1700 -0.1431
15431SOL    HW258019   3.485   1.466   9.140  0.0024 -1.0028  0.8983
15432SOL     OW58020  12.140  12.101   2.221 -0.2716  0.2495  1.0089
15432SOL    HW158021  12.158  12.178   2.275  1.0430  0.0931  0.8220
15432SOL    HW258022  12.149  12.027   2.280  1.8618  0.0286  0.4829
15433SOL     OW58023   6.529   9.810   2.990 -0.3847  0.0132  0.1060
15433SOL    HW158024   6.567   9.854   3.065  0.2503 -1.2494  0.5437
15433SOL    HW258025   6.555   9.864   2.915  0.3598  0.3818  0.6195
15434SOL     OW58026  10.800   8.805   5.571 -0.0891 -0.2448  0.3526
15434SOL    HW158027  10.726   8.758   5.533 -0.0533  0.7994 -1.1127
15434SOL    HW258028  10.857   8.825   5.497  1.4929 -0.6870  1.3962
15435SOL     OW58029   5.907   9.888   3.761  0.0340 -0.3488  0.2761
15435SOL    HW158030   5.998   9.915   3.744  0.1261 -0.6476  0.2955
15435SOL    HW258031   5.869   9.963   3.806 -0.3783  0.7120 -1.7083
15436SOL     OW58032   7.669  11.129   0.757  0.1935  0.0758 -0.1524
15436SOL    HW158033   7.659  11.055   0.697 -2.3347  0.1787  0.0173
15436SOL    HW258034   7.582  11.140   0.796  1.3013  1.1356  2.2262
15437SOL     OW58035   7.968  13.163   0.767  0.0685  0.4165  0.0247
15437SOL    HW158036   8.019  13.166   0.686  0.8512  0.1598  0.4927
15437SOL    HW258037   8.033  13.150   0.835 -0.6514 -0.0784  0.6324
15438SOL     OW58038  10.715   1.597   5.140 -0.3826 -0.7482 -0.0832
15438SOL    HW158039  10.811   1.602   5.143 -0.4334 -0.0503  0.7101
15438SOL    HW258040  10.691   1.641   5.058 -0.2004  2.6193  1.5160
15439SOL     OW58041  10.577  11.807   2.778 -0.4811 -0.1469 -0.2875
15439SOL    HW158042  10.534  11.773   2.856 -0.2193 -1.3284 -0.6278
15439SOL    HW258043  10.506  11.831   2.719 -0.7216  2.5267  0.9892
15440SOL     OW58044   7.373   9.403   6.173  0.7803 -0.3412  0.5573
15440SOL    HW158045   7.429   9.333   6.142  0.3937 -0.7564  0.7801
15440SOL    HW258046   7.367   9.389   6.267  0.1467 -0.4177  0.5089
15441SOL     OW58047   9.861   1.578   4.791 -0.3520  0.5488 -0.3158
15441SOL    HW158048   9.939   1.546   4.837 -0.1296  0.3046 -0.8538
15441SOL    HW258049   9.788   1.546   4.844 -0.0914  1.4317  0.6269
15442SOL     OW58050   4.566   0.349   2.318 -0.4968  0.0305 -0.0845
15442SOL    HW158051   4.534   0.369   2.406 -0.8670 -0.6594 -0.0565
15442SOL    HW258052   4.637   0.287   2.332 -1.0326 -0.6471 -0.3044
15443SOL     OW58053   7.390   6.459  12.113  0.6074  0.1429 -0.6616
15443SOL    HW158054   7.309   6.412  12.093 -0.0708  0.7410  0.5746
15443SOL    HW258055   7.394   6.528  12.046 -0.1109  0.3549 -0.4924
15444SOL     OW58056  10.542  12.950   3.178 -0.1323 -0.6470  0.3479
15444SOL    HW158057  10.595  12.921   3.103  1.2910  1.9091  0.2422
15444SOL    HW258058  10.476  12.882   3.188  0.6830 -1.9515 -2.1336
15445SOL     OW58059   5.909   9.153   3.960 -0.4945 -0.1400 -0.0206
15445SOL    HW158060   5.867   9.209   3.894  0.3879 -0.2083 -0.6711
15445SOL    HW258061   5.935   9.214   4.029 -0.4726  0.1022 -0.2363
15446SOL     OW58062  10.361  10.173   5.960 -0.2058 -0.5319  0.5824
15446SOL    HW158063  10.319  10.228   5.895 -2.4915 -1.2139  1.3899
15446SOL    HW258064  10.395  10.099   5.911  1.4993  0.7552 -0.2899
15447SOL     OW58065  11.160   8.232   3.894  0.4626 -0.2108  0.1330
15447SOL    HW158066  11.249   8.242   3.927  0.3867 -0.8925  0.5590
15447SOL    HW258067  11.107   8.286   3.952  0.5499 -0.0659  0.0805
15448SOL     OW58068  11.736   0.903  10.079  0.0593 -0.3799  0.2516
15448SOL    HW158069  11.664   0.842  10.098  0.0182  0.0431  1.5319
15448SOL    HW258070  11.703   0.957  10.008 -0.5685 -0.7413  0.2606
15449SOL     OW58071  12.834  11.698   2.336 -0.3358  0.0816 -0.0099
15449SOL    HW158072  12.895  11.626   2.327 -1.0710 -0.7406  1.2293
15449SOL    HW258073  12.754  11.667   2.293 -0.0225  1.0173 -1.3342
15450SOL     OW58074   5.442   0.317   0.259 -0.3654 -0.5687 -0.1759
15450SOL    HW158075   5.473   0.307   0.349 -0.7999  0.3890  0.0966
15450SOL    HW258076   5.368   0.257   0.251 -0.8278 -0.0837  0.3620
15451SOL     OW58077   9.917  11.610   2.949  0.1446 -0.0045  0.8275
15451SOL    HW158078  10.009  11.609   2.922  0.0583  0.3460  0.5049
15451SOL    HW258079   9.885  11.522   2.928 -0.2340  0.5805 -1.3627
15452SOL     OW58080   5.611   5.359   9.742  0.1160 -0.0223  0.3628
15452SOL    HW158081   5.579   5.450   9.744  0.9341  0.2777  0.3441
15452SOL    HW258082   5.534   5.307   9.723 -0.8065  0.4483  2.6236
15453SOL     OW58083   5.963   6.286   3.120  0.0220 -0.8415  0.2372
15453SOL    HW158084   5.930   6.376   3.111  0.7874 -0.6725 -1.0704
15453SOL    HW258085   5.910   6.248   3.191  0.2840  0.8969  1.4242
15454SOL     OW58086  13.237   0.616   6.657  1.2207 -0.1128 -0.3342
15454SOL    HW158087  13.285   0.670   6.594  0.5092  1.9310  0.7748
15454SOL    HW258088  13.147   0.646   6.650  0.8878 -0.8410  0.6470
15455SOL     OW58089  11.978   7.084   0.449 -0.2582 -0.6022 -0.5906
15455SOL    HW158090  12.070   7.086   0.420  0.2666 -0.7575  0.9471
15455SOL    HW258091  11.949   7.175   0.442 -0.3421 -0.7198 -2.0862
15456SOL     OW58092  12.167  10.076  10.141  0.5051  0.1113 -0.6847
15456SOL    HW158093  12.161  10.156  10.089  1.0228  0.1706 -0.6548
15456SOL    HW258094  12.112  10.013  10.094 -1.5808  1.0424  0.3763
15457SOL     OW58095   9.681   8.038  10.105  0.3806 -0.4160  0.2141
15457SOL    HW158096   9.754   8.037  10.167  1.3187 -2.4126 -0.8340
15457SOL    HW258097   9.716   7.998  10.026 -1.9208 -1.6981 -0.2436
15458SOL     OW58098   7.435  10.711  12.328 -0.2346  0.4719  0.5603
15458SOL    HW158099   7.371  10.778  12.303  1.5667  2.8165  1.8719
15458SOL    HW258100   7.399  10.673  12.409 -1.3634 -0.3996 -0.2991
15459SOL     OW58101  13.485   2.261   5.147  0.0617 -0.6074  0.0896
15459SOL    HW158102  13.548   2.319   5.190 -0.2824  0.7163 -1.1009
15459SOL    HW258103  13.450   2.207   5.218  2.1752 -1.0747  0.8493
15460SOL     OW58104   3.780   3.828   7.908 -0.4454 -0.5053 -0.3164
15460SOL    HW158105   3.711   3.841   7.973 -0.5775  0.2208 -0.5851
15460SOL    HW258106   3.733   3.809   7.826 -0.2656 -2.0740 -0.0818
15461SOL     OW58107   8.251  13.051   3.089  0.1692  0.3483 -0.3678
15461SOL    HW158108   8.300  12.977   3.054 -0.1711  0.2750 -0.6941
15461SOL    HW258109   8.244  13.112   3.016 -0.9441 -0.0045 -0.5774
15462SOL     OW58110   2.281  11.637   8.502  0.1430  0.0869 -0.0156
15462SOL    HW158111   2.246  11.563   8.552  1.0179  0.1061  0.6597
15462SOL    HW258112   2.369  11.609   8.476 -0.0201  0.3732 -0.9181
15463SOL     OW58113  12.654   6.874   7.093 -0.5336  0.3122 -0.6443
15463SOL    HW158114  12.710   6.857   7.017 -1.1063  2.1719 -1.5505
15463SOL    HW258115  12.677   6.962   7.121  0.0110 -0.5168  1.7203
15464SOL     OW58116  12.456  10.990   8.890  0.5191  0.2392 -0.0611
15464SOL    HW158117  12.425  11.076   8.860  0.6723 -0.0312 -1.0137
15464SOL    HW258118  12.551  10.994   8.880  0.7814  0.7687  2.0759
15465SOL     OW58119  10.699   9.260   5.045  0.1115 -0.1454  0.4712
15465SOL    HW158120  10.610   9.262   5.082 -0.2333 -2.2955 -0.1003
15465SOL    HW258121  10.686   9.242   4.952  1.1256  1.2938  0.0158
15466SOL     OW58122   2.766   0.954   1.764  0.2212 -0.2758 -0.0011
15466SOL    HW158123   2.851   0.990   1.739  0.0964 -2.2101 -3.9803
15466SOL    HW258124   2.702   1.009   1.719 -0.3743 -1.2447 -0.3575
15467SOL     OW58125   4.802   4.986   7.694  0.0624 -0.3101  0.2067
15467SOL    HW158126   4.858   4.971   7.770 -0.4472 -0.8304  0.4870
15467SOL    HW258127   4.713   4.987   7.729 -0.4494 -3.3945 -0.6950
15468SOL     OW58128   0.210  13.700  13.098 -0.2818  0.3704  0.7240
15468SOL    HW158129   0.168  13.733  13.019  0.1128 -0.1500  0.2965
15468SOL    HW258130   0.162  13.742  13.170 -0.7890  0.6640  0.2159
15469SOL     OW58131   8.354   9.620   0.261  0.0058 -0.2884  0.1770
15469SOL    HW158132   8.320   9.686   0.200 -0.8643 -1.5098 -0.7299
15469SOL    HW258133   8.428   9.663   0.304 -2.3091  2.3756  1.8943
15470SOL     OW58134   2.859   8.064   5.532  0.5814 -0.1947  0.5412
15470SOL    HW158135   2.919   8.014   5.586 -0.0533  0.2211  1.6692
15470SOL    HW258136   2.849   8.147   5.578  0.7509  0.5587 -0.7136
15471SOL     OW58137   1.108   1.508  12.374  0.3704 -0.4003  0.5768
15471SOL    HW158138   1.035   1.562  12.345 -0.4254 -2.1444 -0.8078
15471SOL    HW258139   1.113   1.523  12.469 -0.7319  0.9549  0.4509
15472SOL     OW58140   3.762   7.034  10.770 -0.3151 -0.4020  0.4837
15472SOL    HW158141   3.728   6.951  10.736 -1.7039 -0.5390  2.0876
15472SOL    HW258142   3.805   7.010  10.853  4.1620 -0.2937 -1.4843
15473SOL     OW58143   2.040   2.659  11.442  0.0052 -0.3227 -0.0153
15473SOL    HW158144   2.086   2.659  11.358 -0.3665  0.2102 -0.2231
15473SOL    HW258145   2.076   2.733  11.490  0.3786 -0.7609  0.3941
15474SOL     OW58146   7.443   3.073   2.748  0.1512  0.0490  0.1160
15474SOL    HW158147   7.520   3.017   2.739 -0.5752 -0.8664 -0.5736
15474SOL    HW258148   7.430   3.110   2.660 -0.1875  0.2116  0.2323
15475SOL     OW58149   1.360   3.352  13.448 -0.5111  0.1284 -0.0839
15475SOL    HW158150   1.438   3.377  13.399 -1.2952  0.5015 -1.2053
15475SOL    HW258151   1.391   3.332  13.536  1.4448 -3.5192 -1.3834
15476SOL     OW58152   0.788  10.912  11.669 -0.0935 -0.2326 -0.3411
15476SOL    HW158153   0.835  10.829  11.669  0.8631  0.2986 -0.9237
15476SOL    HW258154   0.841  10.970  11.614 -0.6988  0.7926  0.1314
15477SOL     OW58155   1.830   9.325   2.542  0.1231  0.0487 -0.3036
15477SOL    HW158156   1.743   9.330   2.503  0.1003  0.2351 -0.2290
15477SOL    HW258157   1.877   9.401   2.508 -0.2913  0.9160  0.9742
15478SOL     OW58158   1.919   0.298   8.916 -0.3069  0.4355 -0.3500
15478SOL    HW158159   1.859   0.231   8.949  1.3318 -0.6888  0.5387
15478SOL    HW258160   1.871   0.342   8.846 -2.1526 -0.3641  0.3613
15479SOL     OW58161   3.088  11.581  12.478  0.2618  0.6967  0.3661
15479SOL    HW158162   3.079  11.506  12.536 -1.1618 -1.0348 -1.9232
15479SOL    HW258163   2.998  11.607  12.459  0.7154  1.6946 -0.4928
15480SOL     OW58164   3.162  12.474   7.471  0.1124  0.2487 -0.0897
15480SOL    HW158165   3.249  12.491   7.433 -0.2044  0.1223 -0.8803
15480SOL    HW258166   3.121  12.412   7.412 -0.6676  0.5885  0.0761
15481SOL     OW58167   8.321  10.112   0.737  0.3039 -0.9415  0.0926
15481SOL    HW158168   8.307  10.038   0.797  0.7249 -1.6403 -0.6494
15481SOL    HW258169   8.251  10.104   0.673 -1.3878  0.9864  1.5760
15482SOL     OW58170   6.950   1.264   5.804  0.1734  0.2960 -0.0284
15482SOL    HW158171   6.975   1.352   5.833  1.3682 -0.7018  2.2287
15482SOL    HW258172   7.014   1.243   5.736 -0.7458  1.5006 -1.3322
15483SOL     OW58173   1.347   2.386  10.204  0.5330  0.0052  0.0872
15483SOL    HW158174   1.359   2.369  10.298  1.8709  0.5586  0.0428
15483SOL    HW258175   1.432   2.365  10.165  0.3495  0.8756 -0.8254
15484SOL     OW58176  13.736  12.139   8.799  0.2300  0.1664  0.5355
15484SOL    HW158177  13.692  12.143   8.714 -0.0486 -2.7153  0.4633
15484SOL    HW258178  13.670  12.168   8.862 -1.0043 -1.6847  0.1599
15485SOL     OW58179   8.453   9.189   5.191 -0.3969  0.3892  0.0265
15485SOL    HW158180   8.494   9.248   5.128 -0.9332 -0.0260 -0.7296
15485SOL    HW258181   8.378   9.153   5.145 -1.4393  0.8803  1.2730
15486SOL     OW58182   4.831   9.993   9.340 -0.3946 -0.4858 -0.4818
15486SOL    HW158183   4.844  10.083   9.370  0.6081 -0.1547 -1.7869
15486SOL    HW258184   4.735   9.981   9.340 -0.5435  0.6212 -0.4256
15487SOL     OW58185  12.020  12.218   9.703 -0.3623  0.9493  0.4351
15487SOL    HW158186  12.007  12.127   9.678 -0.2206  1.2856 -0.9762
15487SOL    HW258187  11.990  12.223   9.793 -2.3405 -0.0327 -0.1164
15488SOL     OW58188   0.021   0.246   6.769  0.1571  0.1751 -0.0507
15488SOL    HW158189   0.020   0.233   6.674  0.5544 -0.1508 -0.0103
15488SOL    HW258190  -0.042   0.181   6.802  1.5506 -1.1683  0.0802
15489SOL     OW58191   3.855  10.772  11.390 -0.0033 -0.3009  0.1481
15489SOL    HW158192   3.782  10.812  11.437 -1.0036 -0.3252 -1.2968
15489SOL    HW258193   3.866  10.687  11.431  0.0706  0.1953  1.2035
15490SOL     OW58194   6.700  12.727  13.564 -0.2186 -0.0204  0.2100
15490SOL    HW158195   6.706  12.651  13.505 -2.4792  0.8103 -1.2178
15490SOL    HW258196   6.778  12.779  13.544  0.3854 -1.0372 -0.1476
15491SOL     OW58197   4.453  10.756   1.407  0.8687  0.6895  0.1365
15491SOL    HW158198   4.510  10.708   1.467  0.6149  1.6268  1.1639
15491SOL    HW258199   4.512  10.786   1.338  1.2034 -0.2349  0.0097
15492SOL     OW58200   0.869   2.147   4.978 -0.8065  0.3089  0.0457
15492SOL    HW158201   0.919   2.184   4.906 -0.1512 -1.6280 -0.5565
15492SOL    HW258202   0.843   2.060   4.948 -2.6516  0.3855  1.2104
15493SOL     OW58203   5.801   5.016   7.451  0.0004 -0.1521 -0.5192
15493SOL    HW158204   5.844   4.938   7.416 -1.5120 -0.4601 -1.7869
15493SOL    HW258205   5.748   4.983   7.524  1.2208  0.1030  0.5188
15494SOL     OW58206  12.702   5.955   6.381  0.0713  0.8019 -0.8279
15494SOL    HW158207  12.737   5.905   6.454 -0.4312 -0.1058 -1.1919
15494SOL    HW258208  12.779   5.996   6.340  0.6333 -0.5697 -1.1876
15495SOL     OW58209   5.768   1.299   8.563  0.8014 -0.3442 -0.0680
15495SOL    HW158210   5.856   1.292   8.526  1.0075 -1.6224  0.6281
15495SOL    HW258211   5.782   1.330   8.652  0.5841 -1.0220  0.2035
15496SOL     OW58212   4.161  11.195  13.043  0.2085 -0.4453  0.3927
15496SOL    HW158213   4.120  11.111  13.027 -0.1214 -0.0265 -1.1001
15496SOL    HW258214   4.252  11.184  13.013 -0.4335  0.3649 -2.1512
15497SOL     OW58215   9.568   2.862   4.461  0.2499 -0.2867  0.1320
15497SOL    HW158216   9.589   2.830   4.373 -0.5834  0.8121 -0.4899
15497SOL    HW258217   9.647   2.909   4.488  1.0445 -1.8284  0.5779
15498SOL     OW58218  13.061   8.276   2.803 -0.1181 -0.2000  0.6503
15498SOL    HW158219  13.119   8.200   2.803  0.2472  0.0439  2.0772
15498SOL    HW258220  13.113   8.347   2.840 -0.1142  1.0760 -1.6141
15499SOL     OW58221   1.758  11.665   5.018 -0.2800  0.3527  0.1161
15499SOL    HW158222   1.678  11.696   5.061 -0.2423 -0.5665  0.8776
15499SOL    HW258223   1.779  11.583   5.063  0.4496 -0.0065 -0.8507
15500SOL     OW58224  10.070   6.005   2.334  0.7486 -0.6336  0.2054
15500SOL    HW158225  10.115   6.090   2.332  0.6731 -0.5658  1.2628
15500SOL    HW258226  10.096   5.965   2.417  0.6741 -1.5946 -0.2170
15501SOL     OW58227   1.155  10.793   7.091  0.2267 -0.3275 -0.3850
15501SOL    HW158228   1.181  10.815   7.180  0.9231 -1.1568 -0.3657
15501SOL    HW258229   1.153  10.877   7.045 -1.3530  0.2579  0.6890
15502SOL     OW58230   8.000   1.774   2.549 -0.4082 -0.1930 -0.3063
15502SOL    HW158231   7.956   1.858   2.561 -0.6879 -0.3165 -0.4798
15502SOL    HW258232   8.094   1.796   2.555 -0.4988 -0.1185  1.2558
15503SOL     OW58233  11.001   2.675  11.472  0.3351 -0.1961  0.5118
15503SOL    HW158234  11.014   2.662  11.567  0.5930  0.1290  0.5231
15503SOL    HW258235  11.089   2.696  11.439  0.4973 -1.5740 -0.0047
15504SOL     OW58236  13.326  12.322  13.417 -0.3267  0.4152 -0.2480
15504SOL    HW158237  13.294  12.236  13.389 -0.8500 -0.2009  2.0734
15504SOL    HW258238  13.288  12.336  13.503  2.3478  1.5225  0.8795
15505SOL     OW58239   6.374  10.490   9.842 -0.6715 -0.2761  0.4176
15505SOL    HW158240   6.354  10.397   9.832  3.4053 -1.2261 -0.2986
15505SOL    HW258241   6.406  10.518   9.757  1.0662  0.9546  1.4196
15506SOL     OW58242   4.786   9.165   7.083 -0.4588 -0.1041 -0.1908
15506SOL    HW158243   4.801   9.082   7.128  0.8897  0.6025  0.7130
15506SOL    HW258244   4.833   9.230   7.135 -1.5596  1.2625 -0.8278
15507SOL     OW58245  12.909  10.525   4.193  0.0650  0.5305  0.0479
15507SOL    HW158246  12.824  10.567   4.202 -0.5087 -0.9424  2.3315
15507SOL    HW258247  12.889  10.431   4.186  1.4706  0.2230 -0.2283
15508SOL     OW58248  11.602  11.297   3.544 -0.1217 -0.8603 -0.3982
15508SOL    HW158249  11.580  11.210   3.511 -1.5767 -0.0664 -1.6100
15508SOL    HW258250  11.535  11.355   3.508 -0.4784  0.4566  2.1391
15509SOL     OW58251  11.899  13.138   5.644 -0.6247  0.0706  0.7061
15509SOL    HW158252  11.959  13.208   5.672 -0.3236 -0.1494  0.6241
15509SOL    HW258253  11.943  13.057   5.673  0.8806 -0.3616 -2.3863
15510SOL     OW58254   2.245  11.971   3.839 -0.2718  0.0295  0.8748
15510SOL    HW158255   2.324  12.015   3.871 -0.6684  1.2612  0.2106
15510SOL    HW258256   2.248  11.982   3.744 -1.3312  0.2679  0.8533
15511SOL     OW58257  13.308  10.857  10.191 -0.1293  0.3572 -0.7514
15511SOL    HW158258  13.390  10.895  10.222  0.0889 -0.3272 -0.4816
15511SOL    HW258259  13.246  10.872  10.262 -0.0685  0.2837 -0.6833
15512SOL     OW58260   5.685   8.247   1.911  0.4670  0.4028 -0.0101
15512SOL    HW158261   5.731   8.324   1.944  0.3688  0.4909 -0.0770
15512SOL    HW258262   5.593   8.265   1.928  0.5427 -0.3283  1.2873
15513SOL     OW58263   9.217  11.857  13.312 -0.3626  0.2335  0.4673
15513SOL    HW158264   9.284  11.895  13.254 -0.0200 -0.8422  0.1397
15513SOL    HW258265   9.257  11.776  13.344 -0.6806  0.6323  1.9573
15514SOL     OW58266   7.169   8.738   6.254  0.4397  0.1032  0.2356
15514SOL    HW158267   7.249   8.698   6.221 -0.2380 -1.5588  0.5051
15514SOL    HW258268   7.126   8.668   6.303 -1.1946  0.9399  0.0614
15515SOL     OW58269   0.076  13.303   0.636  0.0700 -0.5015 -0.9620
15515SOL    HW158270  -0.019  13.299   0.620  0.0966 -0.3720 -1.1505
15515SOL    HW258271   0.097  13.396   0.631  0.4137 -0.6253 -2.1221
15516SOL     OW58272  13.210  12.052   0.014  0.3085  0.5556  0.0679
15516SOL    HW158273  13.161  12.055  -0.068  0.5820 -1.3270 -0.2078
15516SOL    HW258274  13.177  11.974   0.059  2.0428  0.0136  0.4980
15517SOL     OW58275   3.364  11.257   6.694 -0.1516  0.1831  0.0039
15517SOL    HW158276   3.441  11.266   6.639 -0.8283 -0.3849 -1.0628
15517SOL    HW258277   3.301  11.210   6.640 -0.5094 -1.2470  1.5778
15518SOL     OW58278   7.430   7.585  12.192  0.0640 -0.3275  0.3867
15518SOL    HW158279   7.435   7.681  12.192  1.3476 -0.3675  1.2917
15518SOL    HW258280   7.340   7.566  12.218 -0.3057  0.6294 -0.1569
15519SOL     OW58281   2.554   9.358   2.549  0.1623 -0.6514 -0.1983
15519SOL    HW158282   2.537   9.328   2.460  0.0657  0.0523 -0.4257
15519SOL    HW258283   2.621   9.299   2.582  1.5995  0.2221 -1.4131
15520SOL     OW58284   0.716   1.768  13.467  0.2064 -0.1301  0.1533
15520SOL    HW158285   0.699   1.862  13.457 -1.6188 -0.2590  1.4899
15520SOL    HW258286   0.744   1.739  13.380 -0.7065  1.3645 -0.6811
15521SOL     OW58287   5.438   0.808  11.487  0.4239 -0.1870 -0.0026
15521SOL    HW158288   5.503   0.868  11.523 -0.1946  0.8486 -0.5568
15521SOL    HW258289   5.360   0.820  11.542  0.1762 -0.1862 -0.3464
15522SOL     OW58290   8.628   3.402  12.835  0.7361 -0.0942 -0.4119
15522SOL    HW158291   8.582   3.332  12.883  2.0570 -2.7789 -2.7553
15522SOL    HW258292   8.594   3.395  12.745  1.7098  1.6050 -0.9557
15523SOL     OW58293   9.745   2.479   2.121  0.2743  0.1428 -0.1099
15523SOL    HW158294   9.706   2.447   2.203  0.7249  2.3089  1.0206
15523SOL    HW258295   9.671   2.490   2.062 -0.1893 -0.4387  0.3505
15524SOL     OW58296   0.842   8.704   6.901  0.7609  0.2445  0.2157
15524SOL    HW158297   0.856   8.797   6.916 -0.8537  0.5353  0.0807
15524SOL    HW258298   0.763   8.700   6.847  0.2873 -1.2281  0.9729
15525SOL     OW58299   4.015   1.284   1.884  0.9408 -0.0990  0.4376
15525SOL    HW158300   4.014   1.351   1.952  0.1582 -0.4000  0.7345
15525SOL    HW258301   3.995   1.331   1.803 -1.6003 -0.2184  0.9170
15526SOL     OW58302  10.891   9.691   1.944  0.1321  0.0494 -1.0132
15526SOL    HW158303  10.968   9.646   1.911  0.1931  0.0047 -0.8140
15526SOL    HW258304  10.924   9.749   2.013 -0.1697 -0.9617  0.0141
15527SOL     OW58305   3.729   4.744   2.997  0.0731 -0.0996  0.1937
15527SOL    HW158306   3.669   4.800   2.948  2.8305  2.7175 -0.2888
15527SOL    HW258307   3.719   4.772   3.087 -1.0470 -1.4328  0.5266
15528SOL     OW58308   6.146   5.163  12.779  0.0600  0.0489 -0.5970
15528SOL    HW158309   6.115   5.073  12.786  1.7349 -0.6053 -1.0900
15528SOL    HW258310   6.150   5.180  12.685 -0.3769  0.6862 -0.5047
15529SOL     OW58311  13.444   7.876   2.958  0.4445 -0.3268  0.3216
15529SOL    HW158312  13.460   7.947   3.020 -0.4374 -0.7118  1.0196
15529SOL    HW258313  13.496   7.803   2.991  1.0807 -0.1248 -0.2038
15530SOL     OW58314  11.719   7.506   0.273 -0.5537  0.2983  0.0156
15530SOL    HW158315  11.710   7.584   0.327 -0.0735  0.1894  0.2523
15530SOL    HW258316  11.737   7.540   0.185  0.2021  0.4534  0.2193
15531SOL     OW58317   6.275   9.572   9.372 -1.0382  0.1895  0.0208
15531SOL    HW158318   6.319   9.656   9.384 -0.4427 -0.1008 -0.1014
15531SOL    HW258319   6.292   9.524   9.453 -0.6363 -0.1424 -0.2546
15532SOL     OW58320   6.236  10.045   8.024 -0.2352 -0.3129 -0.0844
15532SOL    HW158321   6.227   9.950   8.015 -0.9310 -0.1990 -0.6689
15532SOL    HW258322   6.150  10.075   8.054  0.2568  0.0351  1.0446
15533SOL     OW58323   7.946   7.219  13.182 -0.4049 -0.2740  0.5140
15533SOL    HW158324   7.986   7.132  13.176  1.0337  0.2404  1.8437
15533SOL    HW258325   7.999   7.273  13.124 -1.4219 -0.2891 -0.4665
15534SOL     OW58326   3.727   1.741  12.901  0.9623 -0.1427  0.0055
15534SOL    HW158327   3.742   1.835  12.916 -2.2345  0.1238  2.4317
15534SOL    HW258328   3.765   1.698  12.977  0.6066 -0.6235 -0.0845
15535SOL     OW58329   4.197   3.228   8.973  0.3523  0.1694 -0.3600
15535SOL    HW158330   4.279   3.216   9.021  0.9813  0.6625 -1.2765
15535SOL    HW258331   4.140   3.158   9.005  0.8817  0.2457  0.8026
15536SOL     OW58332   9.016   9.860  11.594  0.0740  0.1031 -0.1684
15536SOL    HW158333   9.109   9.870  11.572 -0.2140  2.3980 -0.6024
15536SOL    HW258334   9.016   9.841  11.688  1.0082 -2.1498 -0.5444
15537SOL     OW58335   8.786   7.845   6.944  0.2929 -0.2016  0.3696
15537SOL    HW158336   8.815   7.843   7.036  1.1159 -1.1534  0.1098
15537SOL    HW258337   8.735   7.765   6.934  2.6990 -1.7148 -0.7376
15538SOL     OW58338   8.628  10.364   2.228 -0.4673 -0.0566  0.1704
15538SOL    HW158339   8.719  10.373   2.198 -0.6398 -1.0651 -0.7030
15538SOL    HW258340   8.576  10.391   2.152 -0.9096 -0.2469  0.4057
15539SOL     OW58341   3.178   1.114   9.545  0.6747  0.1435 -0.5116
15539SOL    HW158342   3.201   1.021   9.542 -0.8731 -0.2398 -2.4336
15539SOL    HW258343   3.217   1.151   9.465 -0.3227  0.7257 -0.7445
15540SOL     OW58344   1.354  12.349   4.335 -0.0079 -0.0461 -0.2638
15540SOL    HW158345   1.336  12.321   4.245 -0.6336  0.0198 -0.1598
15540SOL    HW258346   1.448  12.335   4.346  0.4905  1.8394 -1.6045
15541SOL     OW58347   8.640   8.454   1.339 -0.3716  0.4879  0.2685
15541SOL    HW158348   8.642   8.540   1.381 -1.3744  0.7211 -0.1403
15541SOL    HW258349   8.583   8.466   1.263 -0.8509 -0.6356  0.4381
15542SOL     OW58350  12.533   3.564  11.027 -0.3932 -0.4958  0.1078
15542SOL    HW158351  12.511   3.632  11.090 -2.4836 -2.1850  1.3528
15542SOL    HW258352  12.622   3.539  11.049 -0.3983  0.2989  1.0989
15543SOL     OW58353  10.458   4.212  11.328 -0.3241 -0.1114 -0.2494
15543SOL    HW158354  10.482   4.121  11.308 -0.4007 -0.6720  1.9449
15543SOL    HW258355  10.466   4.218  11.423 -1.4164  1.8769 -0.2372
15544SOL     OW58356  11.714   8.964   3.990  0.2238  0.5713  0.2831
15544SOL    HW158357  11.748   8.884   4.029 -0.3489  0.4756  0.5995
15544SOL    HW258358  11.630   8.938   3.951  0.8879  0.6134 -1.2230
15545SOL     OW58359   0.440  12.009   8.286 -0.3305  0.2030  0.6726
15545SOL    HW158360   0.432  11.999   8.381  1.2366  1.3942  0.9687
15545SOL    HW258361   0.351  11.998   8.253 -0.5408 -2.7403  1.9875
15546SOL     OW58362   7.410  12.297   6.608 -0.7034  0.0770 -0.3069
15546SOL    HW158363   7.490  12.245   6.604 -1.0468 -0.4011 -1.4419
15546SOL    HW258364   7.340  12.235   6.585 -1.6318  0.0613  2.2021
15547SOL     OW58365   9.227   3.881  12.338  0.3051  0.0001 -0.3074
15547SOL    HW158366   9.180   3.964  12.347  0.4918  0.1402 -0.6008
15547SOL    HW258367   9.263   3.864  12.425  1.8282  1.1747 -0.6526
15548SOL     OW58368   9.397   4.267   7.922  0.6367  0.1932  0.0481
15548SOL    HW158369   9.471   4.297   7.974 -0.4508  0.6401  1.4041
15548SOL    HW258370   9.411   4.304   7.835  1.1239  1.7311  0.7568
15549SOL     OW58371  13.667   0.672   2.942 -0.6409  0.1312 -0.2076
15549SOL    HW158372  13.684   0.765   2.959  0.5715  0.3981 -2.5035
15549SOL    HW258373  13.578   0.670   2.905 -0.0059  0.6577 -1.8449
15550SOL     OW58374   1.154   8.379  10.596 -0.1471  0.2191  0.2116
15550SOL    HW158375   1.089   8.310  10.587  0.0355  0.0158  0.4551
15550SOL    HW258376   1.132   8.424  10.677  1.2974 -1.2157  1.4592
15551SOL     OW58377   4.966   4.733  10.907 -0.5086 -0.4647  0.1138
15551SOL    HW158378   4.976   4.820  10.869 -3.2997 -0.9342 -2.0673
15551SOL    HW258379   4.954   4.748  11.001 -2.3245  1.7100 -0.3837
15552SOL     OW58380   4.945   1.802   7.840 -0.4616 -0.5736 -0.1081
15552SOL    HW158381   5.018   1.849   7.879 -0.0421 -0.1826 -1.3127
15552SOL    HW258382   4.896   1.766   7.914  0.5969 -0.3125  0.7295
15553SOL     OW58383   8.996   5.838   2.201  0.6547 -0.2581  0.0514
15553SOL    HW158384   9.014   5.867   2.112  0.2198  0.8443  0.3057
15553SOL    HW258385   9.024   5.746   2.203 -1.2183 -0.9478 -1.8106
15554SOL     OW58386  10.044   8.295   3.799 -0.0806  0.3102  0.4105
15554SOL    HW158387  10.087   8.357   3.741 -0.9266  1.6145  1.1175
15554SOL    HW258388  10.110   8.227   3.816  0.6392  0.6557 -0.9146
15555SOL     OW58389   5.417   3.369   0.656 -0.8563 -0.0218  0.1259
15555SOL    HW158390   5.392   3.282   0.687 -2.4939  0.9190  1.6735
15555SOL    HW258391   5.469   3.406   0.728  1.7439 -0.4517 -1.4145
15556SOL     OW58392   6.342   4.764   4.613  0.2860 -0.6607 -0.6183
15556SOL    HW158393   6.276   4.702   4.583  0.9812 -1.2228 -0.9961
15556SOL    HW258394   6.413   4.710   4.647 -0.5577 -0.0866  2.4102
15557SOL     OW58395   6.752   2.298   7.764 -0.2951  0.2878  0.0716
15557SOL    HW158396   6.686   2.355   7.726  0.6636  1.5432  0.2154
15557SOL    HW258397   6.783   2.345   7.841 -0.9369 -1.3979  1.4055
15558SOL     OW58398   8.115   3.361   3.666  0.4210 -0.3721 -0.2264
15558SOL    HW158399   8.170   3.391   3.738  0.3191 -0.5722 -0.0629
15558SOL    HW258400   8.073   3.282   3.699 -0.0224 -0.1825 -0.3207
15559SOL     OW58401  10.265  11.300  10.639  0.3498 -0.2529 -0.2434
15559SOL    HW158402  10.264  11.371  10.575  0.0442 -0.1904 -0.1728
15559SOL    HW258403  10.275  11.344  10.724  1.2047 -0.3652 -0.2788
15560SOL     OW58404   9.634   6.784   6.891 -0.4679  0.2330 -0.2218
15560SOL    HW158405   9.561   6.831   6.932 -0.2412  1.3958 -1.0791
15560SOL    HW258406   9.599   6.697   6.870 -1.2324  0.3688  0.4639
15561SOL     OW58407   7.184   2.750   5.212 -0.1528 -0.2648  0.2373
15561SOL    HW158408   7.124   2.729   5.283  0.6516  0.9207  1.3162
15561SOL    HW258409   7.127   2.763   5.136 -0.9212 -2.8955  0.2812
15562SOL     OW58410   2.244  12.201  12.165 -0.1894 -0.0462 -0.1358
15562SOL    HW158411   2.240  12.258  12.242 -0.6808  0.1030 -0.2653
15562SOL    HW258412   2.237  12.113  12.201 -0.3054  0.0173  0.0033
15563SOL     OW58413  10.928   6.013   2.494 -0.2244  0.1761 -0.1124
15563SOL    HW158414  10.967   6.038   2.578  0.0469  0.6833 -0.3816
15563SOL    HW258415  10.980   5.938   2.465  0.3832  0.6739 -0.3364
15564SOL     OW58416   0.470  13.019   3.249 -0.4436 -0.5296  0.0410
15564SOL    HW158417   0.391  13.033   3.301 -1.9267 -1.4485 -1.8420
15564SOL    HW258418   0.495  12.928   3.265  0.8160 -0.0128  1.2957
15565SOL     OW58419   9.985   2.809   5.184  0.4010 -0.2170  0.3372
15565SOL    HW158420   9.956   2.749   5.116  2.2081 -0.2115 -0.4910
15565SOL    HW258421  10.074   2.781   5.205  0.2039  0.3318  2.0922
15566SOL     OW58422   0.607  10.249   4.684  0.2066 -0.6290 -0.4793
15566SOL    HW158423   0.558  10.304   4.744  0.0773 -1.7115  0.4336
15566SOL    HW258424   0.546  10.177   4.662  1.3826 -2.0620  0.7683
15567SOL     OW58425  10.201   7.069   4.198  0.0881  0.0228 -0.4925
15567SOL    HW158426  10.213   7.127   4.122 -1.0916 -1.8142 -2.1592
15567SOL    HW258427  10.120   7.099   4.238  0.5238  0.7722 -0.1506
15568SOL     OW58428   0.163  12.831   9.257  0.1097  0.2340  0.4294
15568SOL    HW158429   0.206  12.747   9.240  1.2939  0.4375  2.1651
15568SOL    HW258430   0.070  12.813   9.245  0.2823 -1.5132  1.3513
15569SOL     OW58431   9.710  13.362   5.043  0.0762  0.4635  0.4227
15569SOL    HW158432   9.710  13.316   4.959 -1.0292 -0.3968  0.8722
15569SOL    HW258433   9.714  13.293   5.109  2.3178  1.1705  1.1084
15570SOL     OW58434   8.728   2.904  10.125  0.4603  0.0265 -0.2800
15570SOL    HW158435   8.693   2.989  10.100 -0.8067 -0.4579 -0.2050
15570SOL    HW258436   8.789   2.923  10.196 -0.0316  0.8399 -0.0673
15571SOL     OW58437   9.320   9.927   0.951  0.6804  0.0002 -0.2033
15571SOL    HW158438   9.263   9.927   0.874  0.2260 -0.8946  0.1266
15571SOL    HW258439   9.260   9.934   1.025  1.0284 -0.4154  0.1228
15572SOL     OW58440   1.061   8.568   6.767  0.2619  0.1300  0.1595
15572SOL    HW158441   1.073   8.619   6.687  1.8169  0.7660  0.7584
15572SOL    HW258442   0.976   8.594   6.800 -0.2036  0.1946 -1.0440
15573SOL     OW58443   1.794   1.048   9.428 -0.1241 -0.0391 -0.1684
15573SOL    HW158444   1.861   1.098   9.475 -2.5837  1.4527  1.9349
15573SOL    HW258445   1.732   1.021   9.495 -2.2644 -0.3631 -2.1715
15574SOL     OW58446   3.447   6.081   5.298 -0.1403  0.3435  0.3959
15574SOL    HW158447   3.419   6.000   5.342 -0.8396  0.9670  1.1346
15574SOL    HW258448   3.398   6.150   5.342 -0.2823  1.0807 -0.8715
15575SOL     OW58449   7.080   0.297   8.897 -0.3094 -0.4388 -0.1069
15575SOL    HW158450   7.093   0.235   8.825  0.0767  0.0374 -0.4558
15575SOL    HW258451   7.005   0.262   8.945 -0.8933 -0.5121 -1.0282
15576SOL     OW58452   2.440  10.416  13.289  0.3573  0.2699 -0.2390
15576SOL    HW158453   2.402  10.383  13.207  0.9040 -0.8971 -0.0468
15576SOL    HW258454   2.525  10.451  13.265  0.1892  0.6467 -0.2887
15577SOL     OW58455   5.673   2.807  12.310  0.3578 -0.2043 -0.0858
15577SOL    HW158456   5.681   2.753  12.231  0.9770 -1.4626  0.8146
15577SOL    HW258457   5.691   2.747  12.382  2.1993  1.4340  0.8931
15578SOL     OW58458   1.597   1.240   8.961  0.7072 -0.1933 -0.5273
15578SOL    HW158459   1.609   1.177   9.033 -0.7231  0.4083  0.2635
15578SOL    HW258460   1.677   1.292   8.962 -0.4815  1.9110  2.7879
15579SOL     OW58461   8.991   3.785   0.284  1.0387  1.0038  0.2690
15579SOL    HW158462   8.999   3.699   0.242  0.4799  0.8060  0.5552
15579SOL    HW258463   8.997   3.847   0.211 -2.0710  0.6047 -0.4685
15580SOL     OW58464   6.553   2.110   1.978 -0.1633 -0.3224 -0.5361
15580SOL    HW158465   6.581   2.198   2.002 -2.0041 -0.2217  1.4934
15580SOL    HW258466   6.580   2.054   2.051  0.2791 -1.3327 -1.4307
15581SOL     OW58467  13.141   2.400   7.260  0.4251  0.0087 -0.4486
15581SOL    HW158468  13.111   2.312   7.238  0.7672 -0.1717 -0.2056
15581SOL    HW258469  13.237   2.395   7.254  0.4440  0.3831 -0.5070
15582SOL     OW58470   4.094  10.589   0.050  0.0998  0.3332  0.6959
15582SOL    HW158471   4.173  10.603  -0.002 -0.1193  1.6898  0.6922
15582SOL    HW258472   4.103  10.500   0.084  0.2367 -0.6346 -1.6771
15583SOL     OW58473   6.038  13.174   3.220 -0.5288  0.3533 -0.4739
15583SOL    HW158474   6.100  13.131   3.279 -0.4755  0.3832 -0.5090
15583SOL    HW258475   6.036  13.118   3.143  0.4821  1.0749 -1.0443
15584SOL     OW58476   0.926   0.256   5.577  0.6347  0.1508  0.3006
15584SOL    HW158477   0.924   0.263   5.481 -0.2952  1.8519  0.4093
15584SOL    HW258478   0.838   0.280   5.605  0.7919 -0.6868  1.5846
15585SOL     OW58479   2.875  11.459   3.948  0.5960  0.1346 -0.3520
15585SOL    HW158480   2.899  11.495   4.034 -1.3375  1.5168 -0.3136
15585SOL    HW258481   2.849  11.369   3.966  2.0953 -0.2181  0.1640
15586SOL     OW58482  10.233   7.767   5.830 -0.0401  0.9629 -0.3751
15586SOL    HW158483  10.298   7.824   5.790 -1.1208  0.7852 -2.5285
15586SOL    HW258484  10.277   7.730   5.907  1.6124  2.5229 -0.5226
15587SOL     OW58485   9.061   3.963  12.664  0.0678  0.1673  0.3576
15587SOL    HW158486   8.999   3.926  12.601 -1.6200  1.5663  1.0937
15587SOL    HW258487   9.045   3.915  12.745 -0.9666  1.2971  0.8679
15588SOL     OW58488   3.809  13.525  12.496  0.0082 -0.2540 -0.8285
15588SOL    HW158489   3.836  13.548  12.585 -0.5883  0.3031 -0.7801
15588SOL    HW258490   3.745  13.456  12.507 -0.8651  0.5470 -0.7448
15589SOL     OW58491  13.041   3.164   7.832 -0.2394  0.3431  0.0510
15589SOL    HW158492  13.042   3.155   7.927 -0.7157  0.8331  0.1074
15589SOL    HW258493  13.008   3.080   7.800  3.0950 -1.1415  0.1208
15590SOL     OW58494   5.818  12.442   8.954  0.1914  0.3889  0.1450
15590SOL    HW158495   5.773  12.505   8.898  1.0118  0.7712 -0.1106
15590SOL    HW258496   5.893  12.413   8.902  0.3592 -0.0702  0.6323
15591SOL     OW58497  10.900   4.191   4.174  0.0144  0.0640  0.2306
15591SOL    HW158498  10.854   4.275   4.167  0.0830  0.0458 -0.4797
15591SOL    HW258499  10.942   4.180   4.089  2.0838  0.4869  1.1435
15592SOL     OW58500   3.563   6.086  11.368 -0.1994 -0.0964 -0.0797
15592SOL    HW158501   3.570   6.126  11.281  1.4875  0.1728  0.1416
15592SOL    HW258502   3.654   6.081  11.400 -0.8629  1.0161  2.2089
15593SOL     OW58503   9.768  13.738   1.728  0.0743  0.3229  0.3462
15593SOL    HW158504   9.762  13.831   1.750 -1.1237  0.2386  0.4098
15593SOL    HW258505   9.678  13.708   1.726  0.3181 -0.3934 -1.6195
15594SOL     OW58506   6.924  12.756  10.253  0.2854 -0.0318 -0.6068
15594SOL    HW158507   6.955  12.844  10.275 -3.1480  1.1031  0.2399
15594SOL    HW258508   6.872  12.767  10.173  1.0582 -1.6338 -1.3942
15595SOL     OW58509   6.736   7.647   6.113 -0.6096  0.6732 -0.7394
15595SOL    HW158510   6.675   7.683   6.176  0.4219 -0.1399  0.7827
15595SOL    HW258511   6.818   7.692   6.129 -0.1974  0.0930 -1.1545
15596SOL     OW58512   9.915   2.605   4.070  0.4965 -0.2611 -0.2708
15596SOL    HW158513   9.847   2.562   4.018  1.4854  0.8869 -2.6737
15596SOL    HW258514   9.883   2.601   4.160 -2.6468  0.0267 -1.2608
15597SOL     OW58515   5.598   2.645  11.749 -0.2915 -0.1425 -0.5186
15597SOL    HW158516   5.570   2.564  11.791  0.7839 -1.2411 -1.8178
15597SOL    HW258517   5.537   2.657  11.675 -0.7103  0.4948 -0.0891
15598SOL     OW58518   7.258   1.684   4.176  0.0580 -0.5344  0.3619
15598SOL    HW158519   7.209   1.601   4.183 -0.1414 -0.3010  2.6075
15598SOL    HW258520   7.191   1.752   4.188  0.3067 -0.0491 -0.9112
15599SOL     OW58521  11.960   0.520   2.514  0.1749 -0.2106 -0.1292
15599SOL    HW158522  11.998   0.438   2.483 -0.0283 -0.3163 -0.1040
15599SOL    HW258523  11.866   0.511   2.494  0.2762  0.3712 -0.9238
15600SOL     OW58524   6.445  13.398   6.382 -0.6430 -0.4181  0.4059
15600SOL    HW158525   6.476  13.441   6.462 -0.3858  1.7870 -0.7826
15600SOL    HW258526   6.516  13.408   6.319 -1.3835 -0.8125 -0.5297
15601SOL     OW58527  10.258   2.358  12.483  0.2197  0.5819 -0.5757
15601SOL    HW158528  10.258   2.334  12.576 -1.6747 -1.8595 -1.0923
15601SOL    HW258529  10.344   2.397  12.468  0.6783  0.8020  2.1272
15602SOL     OW58530   2.202   0.437  12.432  0.1954 -0.5711 -0.4195
15602SOL    HW158531   2.267   0.386  12.384 -0.2438 -0.1262 -1.5074
15602SOL    HW258532   2.145   0.475  12.365 -1.8603 -1.7877  0.5126
15603SOL     OW58533  13.450   5.542   3.341  0.1227  0.4512 -0.4091
15603SOL    HW158534  13.430   5.480   3.411 -2.7419  0.4919 -1.0532
15603SOL    HW258535  13.489   5.489   3.271 -0.3727 -0.2481 -0.1592
15604SOL     OW58536  10.257   8.448   3.665  0.1632 -0.2528  0.1725
15604SOL    HW158537  10.294   8.494   3.741  0.9379 -2.2761  1.0914
15604SOL    HW258538  10.319   8.377   3.648 -1.2334 -1.2624 -0.8807
15605SOL     OW58539   8.053   1.120  10.309 -0.2423 -0.0109 -0.5502
15605SOL    HW158540   8.098   1.045  10.270  1.1464  0.6088 -0.2194
15605SOL    HW258541   8.082   1.195  10.257  1.1013  0.7330  1.1585
15606SOL     OW58542   5.091   1.067   1.037  0.3154 -0.4476 -0.1144
15606SOL    HW158543   5.173   1.024   1.061  1.5835  1.3903 -0.8740
15606SOL    HW258544   5.116   1.158   1.022 -1.9463  0.2207 -0.0903
15607SOL     OW58545   0.634   8.371   0.559 -0.1484 -0.5043  0.3716
15607SOL    HW158546   0.705   8.337   0.504  1.1658  0.4997  1.4027
15607SOL    HW258547   0.573   8.411   0.497  0.5241 -0.7728 -0.4775
15608SOL     OW58548  11.588  11.983  10.787 -0.1691  0.1478  0.3371
15608SOL    HW158549  11.512  11.926  10.787 -0.6333  0.7643  0.1109
15608SOL    HW258550  11.598  12.011  10.696  0.4063 -0.0274  0.3385
15609SOL     OW58551   9.123   5.323   7.036 -0.0228 -0.0975  0.0469
15609SOL    HW158552   9.110   5.411   7.001 -1.7357 -0.6747 -0.9142
15609SOL    HW258553   9.188   5.283   6.978 -1.0662 -0.2466 -1.0648
15610SOL     OW58554   6.178   0.699   7.390 -0.7194  0.5342  0.3141
15610SOL    HW158555   6.160   0.659   7.475 -0.9810 -0.2656 -0.1050
15610SOL    HW258556   6.129   0.646   7.327  1.7596 -0.7840 -0.6921
15611SOL     OW58557   7.152  10.867   2.577  0.0588  0.4918 -0.4594
15611SOL    HW158558   7.131  10.834   2.490  0.1812 -0.5324 -0.1113
15611SOL    HW258559   7.080  10.927   2.598 -0.5705 -0.1289 -0.8006
15612SOL     OW58560   2.979   6.313   8.298  0.0742  0.5515 -0.1992
15612SOL    HW158561   2.944   6.230   8.268  2.5870 -0.1952 -1.3751
15612SOL    HW258562   2.946   6.323   8.387  0.1471 -1.9752  0.1703
15613SOL     OW58563   3.896   5.725   2.941 -0.3894  0.3488  0.1554
15613SOL    HW158564   3.954   5.710   2.866 -2.4076  1.3445 -1.7189
15613SOL    HW258565   3.854   5.809   2.922 -1.1657  0.5212  2.3303
15614SOL     OW58566   7.438   7.057  11.476  0.0591 -0.2013  0.3554
15614SOL    HW158567   7.445   7.016  11.563 -0.2161  0.9002  0.9089
15614SOL    HW258568   7.483   7.141  11.485  0.6031 -0.3539 -0.7642
15615SOL     OW58569  10.456   8.605   4.374  0.1337 -0.0281 -0.0204
15615SOL    HW158570  10.422   8.588   4.286 -1.1586 -2.3501  0.8387
15615SOL    HW258571  10.459   8.701   4.380 -1.1763  0.2125 -2.0508
15616SOL     OW58572   8.653  11.755   1.390 -0.4016 -0.2360 -0.3496
15616SOL    HW158573   8.640  11.826   1.453  0.3747  0.7492 -1.2688
15616SOL    HW258574   8.651  11.675   1.444 -1.7345  0.4183  0.6473
15617SOL     OW58575   8.921  11.407   4.889 -0.5144  0.2636  0.4028
15617SOL    HW158576   9.005  11.370   4.862 -1.2097 -0.3186 -1.0996
15617SOL    HW258577   8.857  11.366   4.830 -2.3243 -1.7238  3.4875
15618SOL     OW58578   3.504   1.265  13.153  0.2024  0.2830 -0.1505
15618SOL    HW158579   3.424   1.231  13.194  0.8641 -0.2497  0.7459
15618SOL    HW258580   3.473   1.312  13.075 -0.9803  0.1270  0.2005
15619SOL     OW58581  13.380   2.368  11.684  0.2500  0.0353  0.2643
15619SOL    HW158582  13.367   2.368  11.589 -0.5435  1.6378  0.3329
15619SOL    HW258583  13.460   2.419  11.697 -0.0837  0.4969  0.5003
15620SOL     OW58584  13.207   5.834  10.542 -0.2775  0.0070 -0.2439
15620SOL    HW158585  13.206   5.835  10.638  1.2946  3.1749 -0.1303
15620SOL    HW258586  13.266   5.762  10.519 -0.0264 -0.2644  1.1589
15621SOL     OW58587   5.550   8.121   1.628 -0.5441 -0.8745  0.2324
15621SOL    HW158588   5.645   8.119   1.622 -0.5387 -0.8880  0.3287
15621SOL    HW258589   5.524   8.195   1.572 -0.4713 -0.8065  0.2882
15622SOL     OW58590   0.237  10.973   6.878 -0.2127 -0.3379  0.0597
15622SOL    HW158591   0.277  10.908   6.820  1.5106 -0.1122  0.9502
15622SOL    HW258592   0.144  10.950   6.879 -0.0094 -1.3704 -1.4438
15623SOL     OW58593  10.036   5.404   9.822 -0.3940  0.0520  0.4052
15623SOL    HW158594  10.130   5.413   9.837 -0.1440  0.1251 -1.0907
15623SOL    HW258595  10.017   5.466   9.751 -1.3031 -0.9758 -0.2689
15624SOL     OW58596   1.780   3.600   1.683 -0.0581  0.3915  0.3711
15624SOL    HW158597   1.782   3.506   1.702  0.2404  0.2611 -0.2567
15624SOL    HW258598   1.805   3.642   1.765  0.0951 -0.0909  0.5762
15625SOL     OW58599   5.791   3.111  13.650  0.2482  0.2227  0.4769
15625SOL    HW158600   5.840   3.075  13.577  1.5751  2.6248  0.0836
15625SOL    HW258601   5.807   3.050  13.722  0.2332 -1.3203 -0.7653
15626SOL     OW58602   1.795   1.278   2.442  0.0088  0.3253  0.6700
15626SOL    HW158603   1.743   1.206   2.478  1.7096 -0.9397  0.7638
15626SOL    HW258604   1.851   1.306   2.515 -2.2671  3.5015  1.3916
15627SOL     OW58605   3.874   9.158   1.575 -0.1167  0.5639 -0.0383
15627SOL    HW158606   3.936   9.085   1.574  1.2656  1.7117 -0.1778
15627SOL    HW258607   3.869   9.186   1.483  0.1752  1.3165  0.1713
15628SOL     OW58608   3.651   5.765  13.057 -0.2094  0.6556  0.5329
15628SOL    HW158609   3.573   5.745  13.005  0.4069  0.4919 -0.3456
15628SOL    HW258610   3.684   5.679  13.084  1.8718  0.3910 -2.4060
15629SOL     OW58611   1.506   3.803   2.675  0.0488 -0.1737  0.1725
15629SOL    HW158612   1.584   3.828   2.724 -0.6095  2.3546  0.0504
15629SOL    HW258613   1.529   3.721   2.632  2.4825  0.3131  0.4558
15630SOL     OW58614   2.202   6.913  11.944 -0.2623  0.6918 -1.2442
15630SOL    HW158615   2.228   6.957  12.025  0.4957 -0.9922 -0.5245
15630SOL    HW258616   2.284   6.886  11.904 -0.6725  0.8879 -2.2369
15631SOL     OW58617   2.878   2.423   1.729 -0.1411  0.0380 -0.3221
15631SOL    HW158618   2.961   2.398   1.689 -1.8073 -0.9228 -3.5868
15631SOL    HW258619   2.827   2.459   1.656 -2.4091  1.0982  1.6541
15632SOL     OW58620   2.176  13.186  11.447  0.0808 -0.1280  0.1162
15632SOL    HW158621   2.124  13.157  11.372 -0.3327  3.3462 -1.0914
15632SOL    HW258622   2.138  13.139  11.521 -2.9990  0.1734 -1.1213
15633SOL     OW58623   5.476   0.118  12.461 -0.4762 -0.2322 -0.1243
15633SOL    HW158624   5.399   0.175  12.461  0.6833  1.4192  1.1939
15633SOL    HW258625   5.514   0.128  12.548  1.9805  0.0849 -1.1390
15634SOL     OW58626  12.849  12.461   9.270  0.3528 -0.1856  0.0417
15634SOL    HW158627  12.926  12.407   9.286  0.4680  0.3531  1.4230
15634SOL    HW258628  12.788  12.403   9.225  0.4756 -1.4929  1.4796
15635SOL     OW58629  11.553   3.732   9.287 -0.4810  0.1137 -0.1898
15635SOL    HW158630  11.531   3.825   9.294 -0.6228  0.3865 -2.9568
15635SOL    HW258631  11.635   3.731   9.237 -0.6714 -1.2316 -0.5230
15636SOL     OW58632   1.515   9.145   7.895  1.0308 -0.0516  0.4347
15636SOL    HW158633   1.502   9.147   7.990 -1.9958  0.1906  0.1191
15636SOL    HW258634   1.466   9.221   7.863  2.4930  0.2120 -1.3064
15637SOL     OW58635   9.619   9.661  13.286 -0.5321 -0.4531 -0.2926
15637SOL    HW158636   9.599   9.620  13.202  1.3807  0.4091 -1.2315
15637SOL    HW258637   9.587   9.598  13.351  1.1720 -2.9194 -1.6560
15638SOL     OW58638   1.025   3.462   8.400 -0.2562 -0.8125  0.4832
15638SOL    HW158639   1.056   3.442   8.312 -0.4714 -0.5272  0.3410
15638SOL    HW258640   0.996   3.377   8.435  0.7503 -1.0968  0.6528
15639SOL     OW58641   7.954   0.452   7.203 -0.2728 -1.1417 -0.5010
15639SOL    HW158642   7.891   0.519   7.176 -0.8838 -1.9456 -1.1226
15639SOL    HW258643   7.993   0.488   7.283 -0.1339  0.2262 -1.1480
15640SOL     OW58644   8.505   0.450  11.455  0.0419 -0.0560  0.1739
15640SOL    HW158645   8.429   0.437  11.398  0.2828  1.4928 -0.5297
15640SOL    HW258646   8.579   0.419  11.404  0.2132  1.0023 -0.2397
15641SOL     OW58647   9.512   5.987   0.993 -0.1242  0.3532 -0.0892
15641SOL    HW158648   9.480   6.068   0.954 -0.2206  0.7077  0.6927
15641SOL    HW258649   9.590   5.964   0.943 -1.4655 -0.4230 -1.9153
15642SOL     OW58650  11.409   2.149   8.976 -0.3982 -0.9490  0.4720
15642SOL    HW158651  11.385   2.145   8.884  0.2825 -1.6690  0.3064
15642SOL    HW258652  11.430   2.058   8.999 -1.2426 -0.8922  1.5290
15643SOL     OW58653  12.265   7.699   7.313  0.1319  0.7659 -0.2247
15643SOL    HW158654  12.310   7.623   7.276  0.0022  0.5726  0.0129
15643SOL    HW258655  12.305   7.710   7.400 -0.4827  0.4091  0.1140
15644SOL     OW58656   6.020   8.270  13.481  0.2383 -0.0459  0.5321
15644SOL    HW158657   6.004   8.255  13.388  1.1857 -0.9633  0.4920
15644SOL    HW258658   5.971   8.201  13.526 -0.0177  0.2446  0.7014
15645SOL     OW58659   8.939  13.097  10.776 -0.0595 -0.1230  0.0473
15645SOL    HW158660   8.863  13.057  10.817  0.1446 -0.4992  0.0618
15645SOL    HW258661   8.978  13.152  10.845  0.4974 -1.0434  0.4897
15646SOL     OW58662   9.633  10.528   6.722 -0.1981  0.1099  0.6037
15646SOL    HW158663   9.566  10.572   6.669 -0.9431  0.3745  1.7346
15646SOL    HW258664   9.647  10.444   6.677 -1.6634 -0.1682  0.6079
15647SOL     OW58665  12.371  11.566   3.550  0.2247  0.0424  0.4503
15647SOL    HW158666  12.348  11.551   3.458  0.1955 -2.8296  0.8647
15647SOL    HW258667  12.287  11.562   3.597  0.3576  0.4790  0.7304
15648SOL     OW58668   2.050  10.158   5.006 -0.6295 -0.1135  0.4597
15648SOL    HW158669   2.020  10.235   5.054  1.7239  0.5904  0.9537
15648SOL    HW258670   2.106  10.193   4.937 -2.4144 -1.2389 -1.6515
15649SOL     OW58671   7.228   6.416   8.095 -0.8680 -0.3484 -0.1089
15649SOL    HW158672   7.246   6.373   8.179  0.9013  2.6079  1.2373
15649SOL    HW258673   7.221   6.509   8.118 -2.3596  0.3832 -3.0317
15650SOL     OW58674   7.626   9.137  13.158 -0.6487  0.4404 -0.2875
15650SOL    HW158675   7.625   9.069  13.226  1.2547 -0.6435 -1.2427
15650SOL    HW258676   7.663   9.093  13.082 -0.3560  2.3020 -1.2654
15651SOL     OW58677  10.205   2.554  11.107 -0.3439  0.3288  0.2843
15651SOL    HW158678  10.294   2.572  11.140 -0.2246 -0.4781  0.4159
15651SOL    HW258679  10.197   2.459  11.111 -0.9623  0.3466 -0.4021
15652SOL     OW58680   4.756   4.375   6.754  0.2155  0.1830  0.7503
15652SOL    HW158681   4.789   4.462   6.777 -0.6678  0.4890  0.8642
15652SOL    HW258682   4.828   4.316   6.777  1.2861  0.9808 -0.4307
15653SOL     OW58683   6.767  12.587  12.683  0.8128 -0.6948  0.0361
15653SOL    HW158684   6.812  12.640  12.748  1.3322 -1.1110  0.0143
15653SOL    HW258685   6.835  12.532  12.644  0.5625 -0.2846 -1.0309
15654SOL     OW58686   8.316   8.098  12.915  0.2185  0.4135  0.9389
15654SOL    HW158687   8.253   8.089  12.844 -1.9821  0.0919  2.8229
15654SOL    HW258688   8.373   8.170  12.887 -1.7428  1.5801 -0.3146
15655SOL     OW58689  10.731   3.693   7.584 -0.0875 -0.3835 -0.1940
15655SOL    HW158690  10.730   3.598   7.572 -0.5112 -0.2142 -1.8801
15655SOL    HW258691  10.822   3.715   7.602 -0.0322 -1.1347  0.4474
15656SOL     OW58692   4.910   2.346   7.511  0.3067 -0.3670 -0.0934
15656SOL    HW158693   4.934   2.299   7.591  0.9464 -0.5738 -0.3986
15656SOL    HW258694   4.830   2.302   7.481 -0.3338  0.1546  0.7937
15657SOL     OW58695  11.549   0.920   2.760 -0.0611  0.0021 -0.2106
15657SOL    HW158696  11.627   0.961   2.797 -1.1974  1.5659  0.5497
15657SOL    HW258697  11.571   0.826   2.758  1.7180  0.3640  0.2333
15658SOL     OW58698   9.217  12.217   5.899 -0.4534 -0.6266 -0.2858
15658SOL    HW158699   9.310  12.202   5.917 -0.6189 -1.7623 -0.3138
15658SOL    HW258700   9.212  12.225   5.804 -0.6375 -2.7390 -0.5105
15659SOL     OW58701   3.576  12.567   2.600  0.2883  0.4369  0.2312
15659SOL    HW158702   3.626  12.561   2.518 -0.1529  0.7288 -0.0613
15659SOL    HW258703   3.599  12.486   2.647 -0.3069 -0.2758 -0.6642
15660SOL     OW58704   3.354   8.934   4.509 -0.4057 -0.6106  0.4194
15660SOL    HW158705   3.387   8.850   4.542 -1.9587 -1.1820  0.6094
15660SOL    HW258706   3.261   8.918   4.491 -0.8860  1.2243  1.0036
15661SOL     OW58707   2.687   5.144   0.478  0.1327  0.4122 -0.4156
15661SOL    HW158708   2.716   5.053   0.472  0.7562  0.6620 -1.4089
15661SOL    HW258709   2.670   5.170   0.387  0.3259  1.4047 -0.1817
15662SOL     OW58710   4.292  11.801   5.657 -0.0438  0.3491 -0.1356
15662SOL    HW158711   4.349  11.835   5.726  1.6083 -0.2972 -1.1274
15662SOL    HW258712   4.304  11.862   5.584  0.8102 -0.7786 -0.9689
15663SOL     OW58713   4.330   9.537   4.507 -0.6086  0.5077  0.6382
15663SOL    HW158714   4.387   9.556   4.433 -0.2346  0.5691  0.9360
15663SOL    HW258715   4.323   9.620   4.554  0.0732  0.2099  1.2906
15664SOL     OW58716  13.313   8.787   1.536  0.2319  0.0618  0.0161
15664SOL    HW158717  13.301   8.749   1.623 -0.3794  0.0546 -0.0674
15664SOL    HW258718  13.386   8.848   1.547  0.1976  0.0204  0.5187
15665SOL     OW58719   3.167   6.774   8.683  0.6501  0.2798  0.2842
15665SOL    HW158720   3.078   6.742   8.698  0.5272 -0.5813 -1.9357
15665SOL    HW258721   3.224   6.706   8.719  0.4129  0.4667  1.0169
15666SOL     OW58722   6.731   7.226   7.214 -0.7763 -0.1680 -0.8084
15666SOL    HW158723   6.777   7.194   7.292 -2.3644 -0.5010  0.0339
15666SOL    HW258724   6.736   7.322   7.222 -1.9432 -0.1670  0.3915
15667SOL     OW58725  10.955   0.378   7.143 -0.3918 -0.5729  0.1593
15667SOL    HW158726  10.946   0.379   7.239 -1.1672  0.0009  0.0900
15667SOL    HW258727  10.880   0.429   7.112  0.1957 -0.2446 -0.7327
15668SOL     OW58728   0.143  13.151   1.705  0.0394  0.1706  0.4316
15668SOL    HW158729   0.232  13.159   1.669  0.6838  2.7427  2.3608
15668SOL    HW258730   0.156  13.110   1.791 -0.7530 -0.1089  0.4232
15669SOL     OW58731   5.619   3.868  11.137  0.3753 -0.3247  0.1398
15669SOL    HW158732   5.670   3.930  11.085 -1.3140  1.6477  0.7181
15669SOL    HW258733   5.681   3.799  11.160  2.6837  1.7500  0.5086
15670SOL     OW58734   5.461  13.063   8.664 -0.2595 -0.2223 -0.2002
15670SOL    HW158735   5.487  13.115   8.588  1.3023 -0.4369  0.1391
15670SOL    HW258736   5.423  13.127   8.725 -1.2913 -0.0164 -1.0363
15671SOL     OW58737  12.428   1.085   0.443  0.9621 -0.4913 -0.2741
15671SOL    HW158738  12.422   1.008   0.386 -0.4068 -0.8533  0.3125
15671SOL    HW258739  12.353   1.077   0.502  2.0179  0.1556  1.2341
15672SOL     OW58740   2.135   8.849   6.109 -0.0488 -0.2787 -0.1106
15672SOL    HW158741   2.198   8.921   6.101 -1.4849  0.9004 -1.6413
15672SOL    HW258742   2.066   8.884   6.165 -0.3467 -0.7873 -0.1499
15673SOL     OW58743  11.023   7.424   0.827 -0.1754  0.6931 -0.4724
15673SOL    HW158744  10.956   7.368   0.787 -1.7801  1.5131  0.9298
15673SOL    HW258745  11.019   7.505   0.776  0.1919  0.5191 -0.7773
15674SOL     OW58746   9.991  12.938  12.019 -0.0147  0.0375  0.0459
15674SOL    HW158747   9.975  12.970  12.108 -0.0444  2.5244 -0.7963
15674SOL    HW258748  10.087  12.940  12.010  0.1075 -1.7089  0.4781
15675SOL     OW58749  12.805   3.174   0.056 -0.5130  0.0352 -0.9461
15675SOL    HW158750  12.859   3.194  -0.020 -3.8772  2.5940 -2.9231
15675SOL    HW258751  12.817   3.248   0.115 -1.0603  0.1529 -0.9709
15676SOL     OW58752   4.714   3.116   5.158  0.9143  0.5874 -0.1662
15676SOL    HW158753   4.713   3.171   5.236  1.2421  1.5829 -0.8338
15676SOL    HW258754   4.632   3.067   5.161  0.8908  0.6737  0.7475
15677SOL     OW58755   1.306   3.958   8.656  0.0386  0.2135  0.6674
15677SOL    HW158756   1.212   3.942   8.659  0.2715 -1.4095  0.1889
15677SOL    HW258757   1.343   3.878   8.618  1.5780  0.9628  0.5182
15678SOL     OW58758   8.084  12.215   2.000 -0.2081  0.5352  0.0811
15678SOL    HW158759   7.997  12.204   2.038  0.3269  1.3360  1.6261
15678SOL    HW258760   8.093  12.142   1.939 -1.1468 -0.8176  1.4775
15679SOL     OW58761   3.278  11.104   4.410 -0.0565  0.1286 -0.3574
15679SOL    HW158762   3.271  11.197   4.388 -0.8272  0.0277 -0.5870
15679SOL    HW258763   3.332  11.102   4.489  0.4267  0.7233 -0.6646
15680SOL     OW58764   0.160   7.027  13.145 -0.2443  0.5093  0.8227
15680SOL    HW158765   0.093   7.011  13.079 -0.0392 -0.3313  0.8002
15680SOL    HW258766   0.217   7.094  13.106  0.1630 -0.3347 -0.0746
15681SOL     OW58767   0.057  13.619   4.110 -0.5802  0.2431  0.2564
15681SOL    HW158768   0.135  13.641   4.059 -0.4017  0.4297  0.6004
15681SOL    HW258769  -0.017  13.645   4.055 -0.5422 -2.9260 -1.4954
15682SOL     OW58770   5.963   3.272   1.110  0.1796  0.3092 -0.7015
15682SOL    HW158771   5.929   3.357   1.082 -0.5303 -0.3920 -2.0910
15682SOL    HW258772   6.035   3.255   1.048 -1.1529 -1.0948 -1.9350
15683SOL     OW58773  11.255   7.102   8.136  0.1861  0.2140  0.2874
15683SOL    HW158774  11.305   7.026   8.167 -0.4123 -1.5799 -2.8026
15683SOL    HW258775  11.302   7.132   8.059 -3.1687 -1.4796 -2.7108
15684SOL     OW58776   9.474  12.604   7.519  0.3024  0.3724  0.3374
15684SOL    HW158777   9.468  12.522   7.469  0.5927  0.0375  0.8447
15684SOL    HW258778   9.558  12.642   7.492  0.5694  0.0763  0.7339
15685SOL     OW58779   0.909  10.934  12.170  0.3233 -0.0746 -0.4445
15685SOL    HW158780   0.973  10.949  12.100 -1.2367 -0.3307 -1.9854
15685SOL    HW258781   0.953  10.966  12.249  1.9304  0.7686 -1.6101
15686SOL     OW58782   7.366   3.388   0.668  0.7317  0.1831 -0.3413
15686SOL    HW158783   7.353   3.294   0.656 -1.0167  0.5351 -1.4881
15686SOL    HW258784   7.391   3.396   0.760  2.2621 -1.4896 -0.5355
15687SOL     OW58785   2.855   8.222   1.367  0.7018 -0.6602 -0.7045
15687SOL    HW158786   2.792   8.279   1.323 -0.5075 -1.2744  0.1549
15687SOL    HW258787   2.812   8.197   1.448  2.1754 -0.9212  0.0333
15688SOL     OW58788  10.963  12.844   1.265  0.3150 -0.1317  0.2598
15688SOL    HW158789  11.054  12.872   1.268  0.5623 -0.9786  1.3991
15688SOL    HW258790  10.939  12.832   1.356 -1.3078  1.1630  0.0492
15689SOL     OW58791   2.295  11.288  11.670  0.4708  0.2277  0.0257
15689SOL    HW158792   2.279  11.193  11.671  0.3446  0.1949  2.7050
15689SOL    HW258793   2.345  11.305  11.750 -0.0171  2.5149 -0.0848
15690SOL     OW58794  11.850   2.347   0.689  0.3221 -0.0857 -0.2643
15690SOL    HW158795  11.879   2.359   0.779  1.3264 -1.3271 -0.3866
15690SOL    HW258796  11.842   2.252   0.678 -1.9218  0.1124 -0.8659
15691SOL     OW58797   2.063   6.965   2.665 -0.2296 -0.9145 -0.5778
15691SOL    HW158798   2.115   7.041   2.690 -1.2421 -0.2882 -0.3181
15691SOL    HW258799   2.041   6.922   2.748  1.2678 -2.1460 -0.7828
15692SOL     OW58800   8.904   9.869   0.504  0.4651 -0.4790  0.3982
15692SOL    HW158801   8.876   9.942   0.448  1.1007 -0.9106 -0.4982
15692SOL    HW258802   8.825   9.815   0.513  0.5242 -0.7660 -0.6640
15693SOL     OW58803   6.357   0.932   4.212  0.1115 -0.0177 -0.1657
15693SOL    HW158804   6.375   0.876   4.137 -2.2257 -1.2386  0.0959
15693SOL    HW258805   6.307   1.005   4.176  1.1031  0.6855 -0.1425
15694SOL     OW58806   4.037   7.115   8.549 -0.3447  0.1172 -0.2959
15694SOL    HW158807   4.089   7.146   8.623  0.3747 -2.6043  0.4572
15694SOL    HW258808   4.048   7.182   8.482  0.7971  1.5875  1.2839
15695SOL     OW58809   4.738   9.863   1.066  0.3930  0.0934  0.4650
15695SOL    HW158810   4.806   9.795   1.064 -0.2776 -0.5707 -0.7522
15695SOL    HW258811   4.784   9.941   1.099  2.0322 -0.0630 -1.2365
15696SOL     OW58812   7.036  10.300   7.009 -0.0376 -0.1012 -0.0658
15696SOL    HW158813   6.979  10.236   7.052 -0.0885  0.2582  0.4083
15696SOL    HW258814   6.976  10.358   6.962 -0.2897  1.6052  2.1758
15697SOL     OW58815   1.841   7.756   6.632  0.6588  0.2012  0.0497
15697SOL    HW158816   1.859   7.757   6.538  1.3933 -1.1553  0.1568
15697SOL    HW258817   1.922   7.725   6.673 -0.5295 -2.0377  0.8790
15698SOL     OW58818   7.064   1.270   0.165 -0.0771 -0.2863 -0.2301
15698SOL    HW158819   7.126   1.343   0.173 -1.5441  0.8036  2.0364
15698SOL    HW258820   7.051   1.239   0.254 -1.0410 -2.0334 -0.9287
15699SOL     OW58821  10.127   6.506   2.554 -0.0416 -0.8853 -0.3176
15699SOL    HW158822  10.043   6.519   2.510 -0.2953 -1.4982 -0.0227
15699SOL    HW258823  10.116   6.426   2.605  0.6156 -0.7956 -0.0155
15700SOL     OW58824   0.431   1.488   5.663 -0.7673 -0.3333  0.0479
15700SOL    HW158825   0.476   1.503   5.746 -2.3949  0.0582  0.9171
15700SOL    HW258826   0.403   1.575   5.635  0.2346 -0.3850 -1.2373
15701SOL     OW58827   1.762   0.476   0.229  0.1182  0.1036  0.3073
15701SOL    HW158828   1.689   0.528   0.262 -0.6984 -0.3947 -0.6476
15701SOL    HW258829   1.814   0.537   0.176 -0.6753  0.0420 -0.5716
15702SOL     OW58830   7.684   9.760   3.985  0.0249 -0.1862  0.3470
15702SOL    HW158831   7.778   9.743   3.977 -0.0399 -0.1333 -0.5755
15702SOL    HW258832   7.646   9.675   4.005  0.2368 -0.2455  0.5154
15703SOL     OW58833  10.048   8.806   0.964 -0.5890 -0.7534 -0.0276
15703SOL    HW158834  10.102   8.730   0.942  0.7599  0.6989 -2.0273
15703SOL    HW258835  10.003   8.781   1.045  0.6028 -3.2574 -0.0639
15704SOL     OW58836   8.157   8.460   6.736 -0.0257 -0.0070  0.0165
15704SOL    HW158837   8.127   8.390   6.679 -0.0545  1.0048 -1.2578
15704SOL    HW258838   8.078   8.488   6.783 -0.1929 -0.2179 -0.1409
15705SOL     OW58839   4.181  12.637   9.958  0.0289  0.2470  0.3671
15705SOL    HW158840   4.121  12.580   9.909 -0.8277 -0.5535  2.2409
15705SOL    HW258841   4.177  12.721   9.913  1.6572 -1.1861 -2.7751
15706SOL     OW58842   2.080   4.545  11.397  0.3515 -0.1671 -0.2975
15706SOL    HW158843   2.105   4.476  11.459  1.1897 -0.8711 -1.3748
15706SOL    HW258844   1.984   4.540  11.393  0.3901 -1.1753 -0.2400
15707SOL     OW58845   5.358  12.673  11.793  0.1916 -0.7786  0.6395
15707SOL    HW158846   5.334  12.763  11.814 -0.5148 -1.1214  1.3566
15707SOL    HW258847   5.370  12.631  11.878 -1.5224 -1.8969  0.3751
15708SOL     OW58848  12.774   1.835  13.691  0.0777  0.4469  0.2106
15708SOL    HW158849  12.823   1.916  13.678 -0.7804  0.9187 -0.1395
15708SOL    HW258850  12.693   1.847  13.641 -1.2182  0.4236  2.1522
15709SOL     OW58851   7.044   7.337   7.015  0.2034  0.4571  0.4584
15709SOL    HW158852   7.075   7.426   7.003  1.0820  0.0283 -0.7095
15709SOL    HW258853   7.078   7.310   7.100  2.9520  0.1062 -0.6412
15710SOL     OW58854   2.169  12.861   9.263  0.0453  0.1024 -0.0580
15710SOL    HW158855   2.157  12.905   9.179 -0.5171 -0.4700 -0.2867
15710SOL    HW258856   2.185  12.932   9.326 -2.9146  0.8663 -0.0124
15711SOL     OW58857  12.766  11.143   7.709 -0.9199  0.3371 -0.3591
15711SOL    HW158858  12.852  11.104   7.721 -1.3101 -0.6179 -0.6086
15711SOL    HW258859  12.782  11.237   7.712 -0.4535  0.2821  3.8319
15712SOL     OW58860  11.227   4.536   8.832 -0.4292 -0.1885  0.4267
15712SOL    HW158861  11.303   4.516   8.886 -0.1826  0.3608  0.2806
15712SOL    HW258862  11.178   4.601   8.883  0.2362  0.9689 -0.3808
15713SOL     OW58863   3.142  10.322  12.185 -0.0084  0.0015 -0.2087
15713SOL    HW158864   3.225  10.313  12.138 -1.2177 -0.2519 -2.4285
15713SOL    HW258865   3.150  10.405  12.231  0.3001  1.6821 -3.0490
15714SOL     OW58866  12.724   8.449   9.844  0.4671 -0.4398  0.0377
15714SOL    HW158867  12.754   8.358   9.842  0.5049 -0.6452  3.2623
15714SOL    HW258868  12.803   8.500   9.865  0.4545  0.3810 -1.7605
15715SOL     OW58869   5.208   0.448  10.270 -0.2265  0.1943  0.0843
15715SOL    HW158870   5.190   0.505  10.195 -2.7180 -1.4409 -0.6953
15715SOL    HW258871   5.234   0.365  10.231  2.8444  0.5152  1.1896
15716SOL     OW58872   8.754   2.889  13.405  0.2803  0.2454 -0.3934
15716SOL    HW158873   8.718   2.936  13.329 -1.3492  0.0842  0.2346
15716SOL    HW258874   8.701   2.919  13.479  1.7192  0.2562  0.6697
15717SOL     OW58875   5.795  12.142   0.471  0.3560  0.3616  0.0790
15717SOL    HW158876   5.724  12.148   0.407 -0.0455  0.7671  0.5520
15717SOL    HW258877   5.853  12.074   0.436 -0.3691 -0.1271 -0.2112
15718SOL     OW58878  11.788   9.261   4.328  0.2500 -0.1289  0.5327
15718SOL    HW158879  11.706   9.224   4.360  0.5392 -2.6505 -1.3027
15718SOL    HW258880  11.768   9.352   4.307 -1.2980  0.0825  2.6432
15719SOL     OW58881   1.324   1.947   7.594  0.1481 -0.2620  0.7692
15719SOL    HW158882   1.357   1.996   7.669 -0.0352 -0.1490  0.7744
15719SOL    HW258883   1.315   2.011   7.524  1.7816 -0.6267  0.1786
15720SOL     OW58884  10.480  13.588  11.575  0.6562  0.0431 -0.2256
15720SOL    HW158885  10.532  13.571  11.496 -1.7667  0.5098 -2.0411
15720SOL    HW258886  10.471  13.683  11.578  0.1957 -0.0099  0.2585
15721SOL     OW58887   4.023   6.961  10.276 -0.0176  0.2348  0.8647
15721SOL    HW158888   4.096   6.998  10.326 -0.8140  0.6517  1.7592
15721SOL    HW258889   3.949   7.019  10.296 -0.4310  0.2528 -0.6041
15722SOL     OW58890  13.339   5.074   9.366 -0.1893  0.4491  0.0514
15722SOL    HW158891  13.410   5.107   9.310 -1.2866  0.5015 -1.3609
15722SOL    HW258892  13.301   5.152   9.405 -1.5495  0.7724 -1.7893
15723SOL     OW58893  10.976   8.817  12.427  0.4457 -0.1813  0.2822
15723SOL    HW158894  11.026   8.771  12.360 -1.2768 -1.4768 -0.1923
15723SOL    HW258895  11.001   8.775  12.510  0.1848 -0.7945  0.0540
15724SOL     OW58896   8.294   8.272   1.616  0.3803  0.1947 -0.2283
15724SOL    HW158897   8.326   8.354   1.651  0.3715  0.3475 -0.5741
15724SOL    HW258898   8.367   8.237   1.564 -0.6941  1.6609 -2.9533
15725SOL     OW58899   9.400   2.069   7.646  0.0553 -0.7227 -0.8081
15725SOL    HW158900   9.341   2.145   7.643  1.0574  0.0434 -3.1804
15725SOL    HW258901   9.484   2.106   7.671  0.4077 -1.1515 -1.3483
15726SOL     OW58902  12.818  11.791   8.474 -0.2046  0.6035  0.0435
15726SOL    HW158903  12.900  11.797   8.426 -0.8496  1.6818 -0.9674
15726SOL    HW258904  12.810  11.874   8.521 -0.9396  0.7044 -0.2457
15727SOL     OW58905   5.925   7.733  11.821  0.2172  0.4959 -0.1834
15727SOL    HW158906   5.971   7.805  11.778 -0.0152  1.6883  1.4551
15727SOL    HW258907   5.984   7.659  11.812 -0.0089  0.5291 -2.8755
15728SOL     OW58908   1.807   3.079   9.709 -0.4000  0.4507 -0.1979
15728SOL    HW158909   1.794   3.032   9.626 -0.1494  2.0867 -1.2147
15728SOL    HW258910   1.720   3.084   9.747 -0.4039 -0.9706  0.0286
15729SOL     OW58911   0.131   0.418  11.667  0.0310  0.1379 -0.5376
15729SOL    HW158912   0.150   0.325  11.680 -0.6411  0.2641  1.8913
15729SOL    HW258913   0.216   0.461  11.668  0.2032 -0.0947  2.4010
15730SOL     OW58914   3.204   6.039   3.994  0.2799  0.1455 -0.6690
15730SOL    HW158915   3.287   6.010   3.956  0.1272 -1.7313  0.3426
15730SOL    HW258916   3.168   5.962   4.036 -1.6117  1.1272 -0.3685
15731SOL     OW58917   1.447  10.035  13.484  0.4740 -0.0146  0.0277
15731SOL    HW158918   1.532  10.008  13.449  0.4649 -0.1496  0.1074
15731SOL    HW258919   1.468  10.096  13.555  0.6799 -2.5420  2.3346
15732SOL     OW58920  12.994   8.764   0.392  0.2912  0.7203  0.1907
15732SOL    HW158921  13.078   8.804   0.416  0.5965  0.5962 -0.6198
15732SOL    HW258922  13.005   8.740   0.300  0.4138 -2.0168  0.8586
15733SOL     OW58923   5.437   9.440  10.471 -0.9805  0.0360  0.3169
15733SOL    HW158924   5.509   9.380  10.492  0.9416  1.6944 -1.1236
15733SOL    HW258925   5.451   9.514  10.530 -2.6752 -0.4043  1.3195
15734SOL     OW58926   1.054   1.271   4.622  0.6020  0.0463 -0.2952
15734SOL    HW158927   1.008   1.200   4.667  0.4883  0.2950 -0.0134
15734SOL    HW258928   1.125   1.228   4.574 -0.1078 -0.3762 -0.9846
15735SOL     OW58929  10.850   1.610  13.489 -0.3653 -0.8848 -0.1025
15735SOL    HW158930  10.779   1.575  13.544 -1.1101 -1.8425 -1.6019
15735SOL    HW258931  10.919   1.545  13.494 -0.7999 -1.4424 -0.9797
15736SOL     OW58932   4.223  10.369   2.854  0.5819  0.2189 -0.0465
15736SOL    HW158933   4.213  10.357   2.760 -1.5469 -0.0506  0.1696
15736SOL    HW258934   4.317  10.386   2.866  1.2114 -1.5058 -1.9842
15737SOL     OW58935   8.291  10.003   5.572 -0.2078 -0.0931 -0.5092
15737SOL    HW158936   8.241  10.036   5.647  1.3154  1.2766 -0.0216
15737SOL    HW258937   8.321  10.083   5.528  1.4518 -0.8472 -0.8088
15738SOL     OW58938   6.086   2.426  11.113  0.4888  0.4845 -0.2173
15738SOL    HW158939   6.139   2.368  11.168 -1.2475 -0.5692  0.4480
15738SOL    HW258940   6.136   2.507  11.107  0.9469  0.5216  2.6620
15739SOL     OW58941   9.207   9.074  11.432 -0.0560  0.4526 -0.0736
15739SOL    HW158942   9.201   9.140  11.363 -1.8243 -0.7744 -1.1682
15739SOL    HW258943   9.253   9.001  11.391 -0.1281  0.1364  0.4009
15740SOL     OW58944  11.309   5.151   9.794 -0.2221 -0.3689 -0.4932
15740SOL    HW158945  11.262   5.228   9.761 -1.7025 -0.7706  0.5955
15740SOL    HW258946  11.297   5.084   9.726  0.3118  0.0598 -1.0261
15741SOL     OW58947   1.954   5.689  13.187 -0.2438  0.2818 -0.3965
15741SOL    HW158948   1.860   5.699  13.200 -0.3025 -1.6853  1.1737
15741SOL    HW258949   1.968   5.595  13.177  1.6907  0.3365  0.9989
15742SOL     OW58950   6.938   5.151   0.641 -0.2099  0.2395 -0.4607
15742SOL    HW158951   6.929   5.151   0.545 -0.1456  1.4368 -0.4857
15742SOL    HW258952   6.986   5.070   0.660  0.8775  0.5846 -1.5599
15743SOL     OW58953  10.726   2.457   1.932  0.9014 -0.6203 -0.0907
15743SOL    HW158954  10.802   2.481   1.879  2.1067  0.3909  1.9676
15743SOL    HW258955  10.683   2.388   1.882  1.4999  0.7773 -2.7201
15744SOL     OW58956  10.316   6.997  10.631  0.2234  0.2661 -0.7580
15744SOL    HW158957  10.279   6.934  10.694 -0.8180 -0.5084 -2.0856
15744SOL    HW258958  10.407   7.008  10.658  0.0464 -0.7682  0.3243
15745SOL     OW58959  13.264   9.539  13.562 -0.1152 -0.0575  0.2812
15745SOL    HW158960  13.244   9.504  13.649 -1.6875 -2.3334 -0.8934
15745SOL    HW258961  13.197   9.606  13.547 -0.8614 -0.7861  0.2408
15746SOL     OW58962   7.743   1.795   3.118 -0.5123  0.7413 -0.5252
15746SOL    HW158963   7.791   1.825   3.196  1.2471 -2.1278 -0.3444
15746SOL    HW258964   7.786   1.838   3.045  0.3262  0.5926 -0.1348
15747SOL     OW58965  13.124  13.483  12.776  0.0590  0.2159  0.6642
15747SOL    HW158966  13.068  13.548  12.733  0.8899 -0.2997 -1.3087
15747SOL    HW258967  13.128  13.511  12.867 -2.4405  0.9311  0.6301
15748SOL     OW58968   6.275   5.791  11.536  0.1730 -0.4463 -0.1852
15748SOL    HW158969   6.261   5.734  11.611 -0.7483 -0.7876 -0.6034
15748SOL    HW258970   6.199   5.849  11.535 -0.4324 -1.2191 -1.5230
15749SOL     OW58971   6.905  11.440   8.774 -0.6271  0.2420 -0.6556
15749SOL    HW158972   6.823  11.390   8.778 -0.7058  0.3964  2.9874
15749SOL    HW258973   6.876  11.531   8.775 -0.4378  0.3007 -0.5442
15750SOL     OW58974   2.766   9.310  12.792  0.0269 -0.5933 -0.2171
15750SOL    HW158975   2.737   9.233  12.742 -0.0610 -0.6728 -0.0478
15750SOL    HW258976   2.686   9.362  12.803 -0.0948 -0.8934  0.3930
15751SOL     OW58977  12.221   5.228   5.107  0.4961 -0.6188 -0.1511
15751SOL    HW158978  12.309   5.213   5.073  1.1553 -0.6526  1.4700
15751SOL    HW258979  12.178   5.283   5.041  2.7907  2.0749  0.3925
15752SOL     OW58980  12.714  11.594   7.824 -0.5368  0.5470  0.1426
15752SOL    HW158981  12.749  11.671   7.779 -1.1813 -0.7030 -2.7758
15752SOL    HW258982  12.768  11.521   7.792 -0.9844 -0.4500  1.5514
15753SOL     OW58983  11.236  11.795   4.292 -0.0602 -0.4381  0.2219
15753SOL    HW158984  11.263  11.709   4.323 -1.9249 -1.5713 -1.1281
15753SOL    HW258985  11.215  11.844   4.372  2.9736 -0.4191  1.1500
15754SOL     OW58986   8.282   0.677   3.501  0.5961  0.4590 -0.0335
15754SOL    HW158987   8.304   0.723   3.582  0.6991 -0.5180  0.5102
15754SOL    HW258988   8.293   0.743   3.433  1.4111  1.0600  0.6472
15755SOL     OW58989  11.924   8.394   2.118  0.3588 -0.2017 -0.4321
15755SOL    HW158990  11.967   8.451   2.182 -0.4697  0.9934 -0.8982
15755SOL    HW258991  11.915   8.311   2.164 -0.6590  0.7585  1.2535
15756SOL     OW58992   3.044   6.008  12.899  0.6369  0.6204 -0.2872
15756SOL    HW158993   2.983   6.068  12.941  1.7001 -0.5407  3.2265
15756SOL    HW258994   3.023   5.922  12.936  2.7264 -0.2365 -0.9289
15757SOL     OW58995   9.059   8.734   9.477  0.0921 -0.2514 -0.2680
15757SOL    HW158996   9.143   8.695   9.499 -0.1307  0.3065  1.8398
15757SOL    HW258997   9.000   8.660   9.466  0.5098 -0.6116 -0.1012
15758SOL     OW58998   9.829  11.991   5.301 -0.2565 -0.1076  0.4682
15758SOL    HW158999   9.757  12.021   5.357  0.6566  3.7643 -0.1076
15758SOL    HW259000   9.907  11.997   5.357  0.2631  0.9435 -0.3228
15759SOL     OW59001  12.566   8.109  13.352 -0.2861 -0.1379  0.6944
15759SOL    HW159002  12.609   8.114  13.267 -1.0520  0.4376  0.3264
15759SOL    HW259003  12.508   8.185  13.354 -0.4641 -0.2875  1.6293
15760SOL     OW59004  11.191   9.502  13.235  0.0717 -0.2349  0.3542
15760SOL    HW159005  11.246   9.564  13.188 -1.6479  2.9822  2.1784
15760SOL    HW259006  11.253   9.441  13.276  1.8622  0.1073 -1.6605
15761SOL     OW59007   8.061   4.106  10.895  0.2707 -0.4404 -0.0436
15761SOL    HW159008   8.064   4.035  10.831  0.3997 -1.4784  1.0820
15761SOL    HW259009   8.151   4.117  10.923 -0.1363 -2.1104  2.1676
15762SOL     OW59010  11.854   2.219   4.988 -0.1740  0.8832 -0.0642
15762SOL    HW159011  11.840   2.270   5.068  0.1000 -0.7411  1.0682
15762SOL    HW259012  11.776   2.235   4.935 -1.0460  0.8611  1.1781
15763SOL     OW59013  12.260   5.349   5.380  0.1765  0.0975 -0.2740
15763SOL    HW159014  12.188   5.287   5.368  0.2768 -0.2721  0.9327
15763SOL    HW259015  12.327   5.321   5.317 -0.7151  0.4512 -1.4085
15764SOL     OW59016   9.953   1.551   7.404  0.2345  0.0804 -0.3591
15764SOL    HW159017   9.870   1.507   7.384  0.0426 -0.5360  1.5549
15764SOL    HW259018   9.996   1.561   7.320 -0.7048 -1.8119 -1.1233
15765SOL     OW59019   1.788   1.628   0.337 -0.2011 -0.0755 -0.1697
15765SOL    HW159020   1.736   1.686   0.393 -1.3776 -0.6990 -0.5845
15765SOL    HW259021   1.768   1.540   0.368  0.4612 -0.3483 -0.4810
15766SOL     OW59022   8.409   1.337   5.019  0.4376  0.1031  0.6094
15766SOL    HW159023   8.344   1.358   4.953  1.2527 -1.1215 -0.6246
15766SOL    HW259024   8.370   1.367   5.101 -0.5485  1.7332 -0.4124
15767SOL     OW59025   7.416   5.327   0.732  0.3667 -0.2566 -0.2426
15767SOL    HW159026   7.375   5.408   0.701  0.4286 -0.7476 -1.6430
15767SOL    HW259027   7.354   5.293   0.797  0.1820  0.7244  0.1233
15768SOL     OW59028   9.100  13.506   9.970  0.1221 -0.1372  0.0523
15768SOL    HW159029   9.085  13.585  10.022  0.8885 -0.1835  0.3467
15768SOL    HW259030   9.095  13.434  10.033  1.2755 -0.1770  0.1245
15769SOL     OW59031   6.692   3.138   0.196 -0.7802  0.8383  0.6835
15769SOL    HW159032   6.667   3.048   0.177  0.1454  0.7844 -0.4235
15769SOL    HW259033   6.618   3.190   0.165 -2.1881  0.4102  3.0902
15770SOL     OW59034   2.632   0.613  13.126 -0.7090  0.3220  0.2211
15770SOL    HW159035   2.616   0.577  13.214  1.3255  2.7781  1.7352
15770SOL    HW259036   2.695   0.553  13.087  2.8268  2.0105  2.7899
15771SOL     OW59037   9.095  12.462   1.292 -0.0727  0.0748 -0.3289
15771SOL    HW159038   9.110  12.443   1.199 -0.4670 -3.0023  0.1200
15771SOL    HW259039   9.017  12.516   1.294  0.4648  0.9602 -1.8089
15772SOL     OW59040   7.331   5.601   0.659 -0.2159  0.6090  0.8835
15772SOL    HW159041   7.248   5.596   0.707 -1.4120 -0.3705 -1.1868
15772SOL    HW259042   7.306   5.628   0.571  1.5297 -0.8721 -0.1166
15773SOL     OW59043   9.323   0.937   2.533 -0.4460 -0.3153 -0.3180
15773SOL    HW159044   9.326   0.882   2.455 -0.5904 -0.9367  0.1084
15773SOL    HW259045   9.315   0.875   2.606 -1.4496  0.2902  0.1108
15774SOL     OW59046   1.649  11.230   5.362  0.2298  0.5400 -0.0595
15774SOL    HW159047   1.639  11.280   5.443 -1.5770 -0.2796  0.2461
15774SOL    HW259048   1.728  11.178   5.376  0.0746  0.5928  1.0667
15775SOL     OW59049   5.779  11.610   0.958  0.5511 -0.2770  0.0922
15775SOL    HW159050   5.843  11.603   1.029 -0.2979 -0.1592  0.8881
15775SOL    HW259051   5.726  11.531   0.965 -1.2697  0.9393  1.3682
15776SOL     OW59052   5.974   8.249  13.223 -0.3995  0.6189 -0.0355
15776SOL    HW159053   6.040   8.289  13.167  0.0441 -0.0137  0.0224
15776SOL    HW259054   5.907   8.316  13.233  0.4748  1.4565  0.3227
15777SOL     OW59055   5.023   6.956   6.952 -0.0561  0.8692 -0.2224
15777SOL    HW159056   4.960   6.926   7.018 -1.0649  1.8560 -0.6773
15777SOL    HW259057   5.105   6.966   6.999 -0.2354 -0.4715  0.3927
15778SOL     OW59058   1.447   5.682  12.556 -0.3381  0.3177  0.3879
15778SOL    HW159059   1.459   5.774  12.580  1.1661  0.6545 -1.3980
15778SOL    HW259060   1.470   5.633  12.635  1.3324  1.4363  0.6533
15779SOL     OW59061  12.836  13.220   1.023 -0.4052  0.1171 -0.4040
15779SOL    HW159062  12.906  13.220   1.087 -1.5634  1.2070  0.9239
15779SOL    HW259063  12.857  13.147   0.965  2.2680  0.9233 -0.6016
15780SOL     OW59064   8.889   1.807   0.243 -0.0610 -0.1049  0.1910
15780SOL    HW159065   8.931   1.783   0.325 -1.1108  0.4426  0.9070
15780SOL    HW259066   8.811   1.856   0.269  0.9571  2.3911 -1.1723
15781SOL     OW59067   9.034   5.130   7.894 -0.2201  0.1358 -0.7002
15781SOL    HW159068   9.008   5.049   7.939  1.1501  0.7133  1.2404
15781SOL    HW259069   8.995   5.200   7.945 -1.8095  0.7762 -2.6505
15782SOL     OW59070   0.992  12.498   0.062  0.2961 -0.6879  0.1262
15782SOL    HW159071   0.948  12.578   0.092  0.1222 -1.0005  0.7298
15782SOL    HW259072   1.075  12.528   0.025 -0.2520 -0.1221 -0.6824
15783SOL     OW59073   5.622   2.847  10.195 -0.1975  0.4647  0.4215
15783SOL    HW159074   5.547   2.801  10.234 -0.8478  0.0150 -1.2376
15783SOL    HW259075   5.585   2.890  10.118  0.9270  1.7070  0.5517
15784SOL     OW59076   2.602   5.369   5.583 -0.5144  0.3385 -0.0415
15784SOL    HW159077   2.538   5.301   5.603  0.9098 -1.0618 -0.0803
15784SOL    HW259078   2.685   5.322   5.573  0.2388  1.8885 -1.6112
15785SOL     OW59079   4.965  11.253   4.835  0.4202  0.2581 -0.0011
15785SOL    HW159080   4.931  11.342   4.847  2.0600  0.7901  1.2132
15785SOL    HW259081   4.946  11.209   4.918 -1.6638 -1.0511 -1.0923
15786SOL     OW59082  11.629   6.207   6.480  0.5609  0.1922  0.8313
15786SOL    HW159083  11.721   6.189   6.459  0.7410 -0.3745  2.0156
15786SOL    HW259084  11.580   6.161   6.412  1.1455  0.1227  0.4448
15787SOL     OW59085   8.325  10.378   9.484 -0.7821  0.0302  0.7774
15787SOL    HW159086   8.287  10.308   9.537 -1.4151 -0.7558 -0.6712
15787SOL    HW259087   8.345  10.337   9.400  0.0961  1.2659  0.3561
15788SOL     OW59088   6.806  12.919   2.567  0.1831  0.1075 -0.1074
15788SOL    HW159089   6.720  12.914   2.609  0.1731  1.2843  0.0406
15788SOL    HW259090   6.864  12.871   2.627 -0.3078 -0.4587 -0.0710
15789SOL     OW59091   1.382   8.718   5.707  0.6504  0.2243 -0.0402
15789SOL    HW159092   1.471   8.722   5.742  0.5553  0.4692  0.1847
15789SOL    HW259093   1.366   8.626   5.691  0.7126  0.1041  0.5475
15790SOL     OW59094   9.074   2.347   5.127  0.0399  0.2827  0.3456
15790SOL    HW159095   9.067   2.428   5.077  0.7918  1.1093  1.5197
15790SOL    HW259096   9.158   2.355   5.173 -0.8197 -0.1963  2.0941
15791SOL     OW59097   7.688  10.257   5.778  0.5604  0.4645 -0.0749
15791SOL    HW159098   7.618  10.321   5.765  0.3834  0.2204 -0.3152
15791SOL    HW259099   7.657  10.200   5.848  0.4012  0.1920 -0.3653
15792SOL     OW59100   7.687   5.847   0.534  0.0152  0.4008  0.3781
15792SOL    HW159101   7.642   5.852   0.619 -1.7597  0.8297 -0.5427
15792SOL    HW259102   7.755   5.781   0.547  0.3284  1.0443  2.3683
15793SOL     OW59103  10.495   2.353   9.431  0.4663 -0.2126 -0.5565
15793SOL    HW159104  10.431   2.410   9.388  0.7007 -0.2325 -0.9342
15793SOL    HW259105  10.446   2.274   9.453 -0.1008  0.4863  0.8055
15794SOL     OW59106   2.766   6.296   3.740  0.1957 -0.1424  0.6391
15794SOL    HW159107   2.777   6.389   3.723  0.5578 -0.3526 -0.3096
15794SOL    HW259108   2.855   6.264   3.757  0.3391 -0.6656 -0.9414
15795SOL     OW59109   7.886   5.137   1.480  0.4537  0.5133 -0.3426
15795SOL    HW159110   7.880   5.165   1.388  0.8377  1.6043 -0.0432
15795SOL    HW259111   7.798   5.152   1.515  0.6296  1.2728 -0.2112
15796SOL     OW59112   6.860  12.271   6.860 -0.0071  0.1126  0.1982
15796SOL    HW159113   6.800  12.344   6.876 -0.5457 -0.1408 -0.5933
15796SOL    HW259114   6.832  12.202   6.920 -0.4768  0.0188 -0.1212
15797SOL     OW59115   3.905   0.738   2.128  0.1730 -0.1545 -0.1273
15797SOL    HW159116   3.884   0.690   2.048 -0.1415 -3.0336  1.5838
15797SOL    HW259117   3.995   0.713   2.149  0.2453  0.5459  0.4603
15798SOL     OW59118   0.503  10.164  11.658  0.1046  0.3773  0.0942
15798SOL    HW159119   0.439  10.106  11.699  0.5080 -0.8188 -0.9183
15798SOL    HW259120   0.581  10.155  11.711  0.3865 -0.5816 -0.4550
15799SOL     OW59121  12.146   0.121   6.172  0.0272  0.6892  0.1320
15799SOL    HW159122  12.150   0.190   6.239  1.2805  1.1506 -0.3870
15799SOL    HW259123  12.110   0.045   6.218  0.8617  0.9969  1.3492
15800SOL     OW59124   1.878   1.127   4.652 -0.4720 -0.3964  0.0543
15800SOL    HW159125   1.928   1.071   4.592 -0.4669 -0.1162 -0.2029
15800SOL    HW259126   1.936   1.139   4.728  0.1033  0.4193 -0.4998
15801SOL     OW59127  12.218  12.554   7.202  0.0405 -0.3383 -0.4223
15801SOL    HW159128  12.213  12.621   7.134 -0.0800  0.0714 -0.0153
15801SOL    HW259129  12.241  12.474   7.155 -1.2535 -0.3279 -1.1102
15802SOL     OW59130   2.785   4.006  12.126 -0.0792 -0.4905  0.1723
15802SOL    HW159131   2.832   4.013  12.043  1.4773 -0.5789  1.0208
15802SOL    HW259132   2.767   3.912  12.135 -0.3408 -0.4695 -0.0965
15803SOL     OW59133   8.372   7.148   3.119  0.7088  0.0767  0.3182
15803SOL    HW159134   8.333   7.235   3.106 -1.5702 -0.9133  0.0776
15803SOL    HW259135   8.443   7.144   3.056 -2.3626 -0.0214 -3.5539
15804SOL     OW59136  13.454   9.611   7.767  0.8429 -0.3620  0.1070
15804SOL    HW159137  13.509   9.645   7.838  0.6278 -0.5689  0.3753
15804SOL    HW259138  13.431   9.688   7.715  0.0259 -0.0292  0.9356
15805SOL     OW59139  12.750   0.529   3.671 -0.2247 -0.7264 -0.4178
15805SOL    HW159140  12.780   0.493   3.588  3.2444  1.1562 -0.1503
15805SOL    HW259141  12.710   0.613   3.648  2.3063  0.6342 -0.1840
15806SOL     OW59142   4.446   7.135   8.731  0.1324 -0.0948  0.1400
15806SOL    HW159143   4.470   7.062   8.675  1.3499 -1.0933  1.8650
15806SOL    HW259144   4.358   7.114   8.762 -0.1400 -0.0338 -0.5644
15807SOL     OW59145   7.987  13.040  11.425  0.3499  0.3603  0.4237
15807SOL    HW159146   7.988  13.061  11.518 -0.7529 -0.9939  0.7657
15807SOL    HW259147   7.929  12.965  11.417  1.8326 -0.7020 -1.1247
15808SOL     OW59148  12.511   9.146   9.810  0.0247 -0.1127 -0.3463
15808SOL    HW159149  12.483   9.187   9.892  0.8907 -1.4562  0.6587
15808SOL    HW259150  12.439   9.086   9.788  0.0864 -0.2344 -0.2149
15809SOL     OW59151  13.557   3.459  11.939  0.3205 -0.8654  0.7411
15809SOL    HW159152  13.633   3.450  11.996 -0.0143  1.5387  1.7026
15809SOL    HW259153  13.560   3.550  11.909 -0.8453 -1.4063 -1.1752
15810SOL     OW59154  13.059  12.507   8.833 -0.3741  0.1537 -0.6422
15810SOL    HW159155  13.081  12.454   8.756  1.7647  0.0215 -0.0178
15810SOL    HW259156  13.132  12.492   8.894  0.1797  3.5242 -0.2913
15811SOL     OW59157  10.481  13.703  13.120 -0.6687 -0.0959 -0.3770
15811SOL    HW159158  10.531  13.679  13.198 -1.6352  2.0475  0.9948
15811SOL    HW259159  10.547  13.735  13.059 -0.0405 -0.4792  0.0769
15812SOL     OW59160  12.959   3.505   6.089  0.7157  0.3434 -0.0716
15812SOL    HW159161  13.011   3.429   6.063  0.6247  0.3279 -0.2087
15812SOL    HW259162  13.010   3.580   6.057  0.6782  0.3303 -0.1620
15813SOL     OW59163  12.971   2.209   3.146 -0.0883  0.5200 -0.4933
15813SOL    HW159164  12.901   2.273   3.156  0.3197  0.8462  0.3633
15813SOL    HW259165  13.040   2.255   3.100  0.5531  1.0044  0.8790
15814SOL     OW59166   2.249   0.012  11.433 -0.1610  0.2389  0.1227
15814SOL    HW159167   2.158  -0.010  11.452  0.3405 -1.2325  0.9613
15814SOL    HW259168   2.293  -0.072  11.421  0.8799  0.9485 -1.4204
15815SOL     OW59169  13.223   8.988   9.833  0.0471  0.6091 -0.0841
15815SOL    HW159170  13.236   9.052   9.903  2.9468 -0.3261  0.3732
15815SOL    HW259171  13.244   8.904   9.874 -2.7758 -0.6101 -0.9109
15816SOL     OW59172   8.702  12.392   7.241  0.5000 -0.0721  0.0391
15816SOL    HW159173   8.648  12.468   7.264  0.3268 -0.3462  0.5370
15816SOL    HW259174   8.790  12.428   7.229 -0.0388  0.6266 -2.2244
15817SOL     OW59175   3.087   8.654   9.530 -0.3761  0.6330 -0.1543
15817SOL    HW159176   3.175   8.689   9.512 -0.1463  0.0809 -0.1107
15817SOL    HW259177   3.030   8.703   9.470 -0.0847  1.1986  0.0150
15818SOL     OW59178  10.639  13.352   2.026 -0.4660 -0.1117  0.6172
15818SOL    HW159179  10.590  13.294   1.968  1.1978 -0.0646 -0.9283
15818SOL    HW259180  10.660  13.298   2.102 -0.3513 -1.0554 -0.0682
15819SOL     OW59181  11.142  12.647   3.439 -0.5117 -0.7607  0.0156
15819SOL    HW159182  11.179  12.628   3.525 -2.2548 -0.0819  0.9573
15819SOL    HW259183  11.136  12.561   3.396  0.6071 -1.0673  0.4451
15820SOL     OW59184   5.746   0.687   5.323 -0.1318  0.4018  0.1157
15820SOL    HW159185   5.721   0.669   5.414 -1.1976  1.3928  0.0546
15820SOL    HW259186   5.720   0.609   5.275  0.0863  0.0235  0.6048
15821SOL     OW59187   6.022  12.882   0.130 -0.1020  0.3306  0.1506
15821SOL    HW159188   6.075  12.839   0.198 -0.0099 -0.4530 -0.4006
15821SOL    HW259189   6.084  12.900   0.060 -0.2716  0.8029  0.1208
15822SOL     OW59190  12.089   8.054   7.820  0.4246  0.5135  0.2020
15822SOL    HW159191  12.158   8.108   7.781 -0.2229  0.7113 -0.7064
15822SOL    HW259192  12.079   8.088   7.909  1.1735  0.7819  0.1879
15823SOL     OW59193   5.858  12.105   9.520 -0.6219 -0.6123  0.0232
15823SOL    HW159194   5.852  12.013   9.492 -0.8430 -0.4741 -0.3944
15823SOL    HW259195   5.950  12.128   9.508 -0.1223 -1.3615  2.0164
15824SOL     OW59196   3.041   7.515   4.851  0.1351  0.1088  0.3396
15824SOL    HW159197   3.039   7.600   4.895  1.1919  1.6180 -2.3181
15824SOL    HW259198   2.957   7.509   4.805 -0.2713 -0.7072  1.1433
15825SOL     OW59199   0.087  10.654   1.347 -0.7662  0.0279 -0.3169
15825SOL    HW159200   0.097  10.726   1.284  1.4697  0.6957  0.6838
15825SOL    HW259201   0.026  10.594   1.306  0.3994  0.5455 -3.0212
15826SOL     OW59202   4.777   0.639  12.243 -0.0286  0.3541  0.1189
15826SOL    HW159203   4.813   0.555  12.213  1.2320  1.0543 -0.4375
15826SOL    HW259204   4.851   0.682  12.286 -0.8765  0.8545  1.1011
15827SOL     OW59205   3.667  11.458  10.658  0.7644  0.3200 -0.3437
15827SOL    HW159206   3.631  11.543  10.684 -0.0998 -0.3203  0.5857
15827SOL    HW259207   3.653  11.454  10.563 -0.9966  0.3878 -0.1135
15828SOL     OW59208   1.431   1.373  10.543  0.3188 -0.2592  0.0233
15828SOL    HW159209   1.520   1.407  10.549 -0.2070  1.0119  1.2218
15828SOL    HW259210   1.425   1.335  10.455  0.8804  2.9775 -1.5315
15829SOL     OW59211   3.622   7.378   7.774 -0.4619  0.3484  0.1192
15829SOL    HW159212   3.585   7.359   7.860 -0.7564 -2.4296 -0.5211
15829SOL    HW259213   3.695   7.437   7.792 -1.0277  0.5003  2.1668
15830SOL     OW59214   5.180   1.076   9.738 -0.1020 -0.2803  0.5617
15830SOL    HW159215   5.188   1.170   9.717 -0.5625 -0.9498 -3.3528
15830SOL    HW259216   5.264   1.054   9.779  0.5125  1.5827  0.4318
15831SOL     OW59217  12.856  11.593   4.023 -0.4191 -0.3284  0.3107
15831SOL    HW159218  12.790  11.655   4.055 -2.6996 -1.4497 -1.8242
15831SOL    HW259219  12.877  11.623   3.935 -0.9961 -2.0680 -0.4720
15832SOL     OW59220   9.431   5.856   2.382  0.2427  0.0733 -0.0050
15832SOL    HW159221   9.381   5.774   2.380  0.2960  0.0637 -1.5954
15832SOL    HW259222   9.506   5.837   2.439  1.5948 -1.8123 -2.2355
15833SOL     OW59223   2.963  10.180  10.507 -0.1927 -0.4637  0.6728
15833SOL    HW159224   2.995  10.159  10.595 -0.0664  1.1943  1.0564
15833SOL    HW259225   3.029  10.239  10.471 -1.5118  0.9811  0.5011
15834SOL     OW59226   8.071   1.703   2.211 -0.1430  0.4660 -0.3274
15834SOL    HW159227   7.993   1.685   2.263  0.8070 -0.3678  0.8510
15834SOL    HW259228   8.074   1.799   2.206 -0.3777  0.5633  0.9756
15835SOL     OW59229   7.194  10.421   4.700  0.1450  0.3273 -0.0555
15835SOL    HW159230   7.263  10.374   4.653  0.3240  0.6277 -0.0936
15835SOL    HW259231   7.161  10.485   4.636 -1.4708 -1.0448 -0.7085
15836SOL     OW59232   4.433   3.387  13.343 -0.4304 -0.5620  0.1176
15836SOL    HW159233   4.351   3.338  13.353  0.2685 -1.5188  1.4734
15836SOL    HW259234   4.501   3.320  13.340  0.3659  0.2463 -0.4109
15837SOL     OW59235   8.967  12.084   3.852 -0.8948 -0.0995  0.2216
15837SOL    HW159236   8.952  12.038   3.934 -1.7936  2.4518  1.5958
15837SOL    HW259237   8.882  12.122   3.830  0.1334  2.3682  0.1703
15838SOL     OW59238   1.043   5.327   3.776 -0.1859  0.4300 -0.4324
15838SOL    HW159239   1.036   5.403   3.833 -1.1851  1.3011 -1.6459
15838SOL    HW259240   1.137   5.318   3.759  0.3126 -0.6697  2.3086
15839SOL     OW59241   3.065   1.178   4.163 -0.5155  0.3656  0.2869
15839SOL    HW159242   2.998   1.141   4.106  0.7089 -1.8547  0.1459
15839SOL    HW259243   3.055   1.273   4.155 -1.8005  0.1032 -1.8951
15840SOL     OW59244  12.850   0.977  11.804 -0.6228  0.5560 -0.3854
15840SOL    HW159245  12.839   0.887  11.776  1.0023 -0.4819  1.9912
15840SOL    HW259246  12.942   0.996  11.790 -0.8140  1.6397 -0.3055
15841SOL     OW59247   6.980  12.180  12.089  0.0314  0.4928 -0.3392
15841SOL    HW159248   6.914  12.131  12.041  0.1380  0.5115 -0.5051
15841SOL    HW259249   6.949  12.270  12.087  2.2424  1.4010 -4.3482
15842SOL     OW59250   4.214   7.050   7.991 -0.0696  0.1060  0.4677
15842SOL    HW159251   4.129   7.031   8.030  0.8740 -0.2682  2.4918
15842SOL    HW259252   4.225   7.145   8.002 -0.4030  0.2288 -0.2129
15843SOL     OW59253   5.715   5.033   6.340  0.7774  0.6332  0.3025
15843SOL    HW159254   5.799   5.004   6.305 -0.1040  0.8659 -2.1965
15843SOL    HW259255   5.723   5.128   6.347  0.4362  0.7511 -0.8114
15844SOL     OW59256   3.016   1.476   3.021  0.1455  0.4950 -0.0023
15844SOL    HW159257   2.953   1.416   3.060  1.1637 -0.5492  0.0953
15844SOL    HW259258   3.040   1.434   2.938  1.4036  0.3801  0.4020
15845SOL     OW59259   1.602   9.038   1.144  0.5388  0.0264 -0.6260
15845SOL    HW159260   1.638   8.966   1.093 -0.1110 -0.2859 -0.6530
15845SOL    HW259261   1.652   9.115   1.115  1.7996 -0.5270 -0.0017
15846SOL     OW59262   1.648   3.255  13.334 -0.7782 -0.0326  0.3479
15846SOL    HW159263   1.704   3.202  13.391 -0.5259 -0.9982 -0.7735
15846SOL    HW259264   1.703   3.329  13.310  0.2172 -1.1892 -1.0911
15847SOL     OW59265   5.785   4.250   7.211 -0.1374 -0.7435 -0.0174
15847SOL    HW159266   5.717   4.228   7.275 -1.5583  0.4283 -1.0495
15847SOL    HW259267   5.792   4.346   7.215  0.7157 -0.7663 -0.6504
15848SOL     OW59268   3.666   0.729   1.030  0.3987 -0.2875  0.4340
15848SOL    HW159269   3.658   0.635   1.010 -1.7930  0.1474 -1.2057
15848SOL    HW259270   3.600   0.744   1.098 -1.2802  0.4665 -1.2592
15849SOL     OW59271   9.305   3.517  12.663 -0.0777 -0.6896 -0.4279
15849SOL    HW159272   9.388   3.564  12.655 -0.3041 -0.1168  0.3476
15849SOL    HW259273   9.300   3.493  12.756 -0.8536 -0.5586 -0.4298
15850SOL     OW59274   7.854  10.162   8.332 -0.2282  0.2753 -0.1711
15850SOL    HW159275   7.825  10.180   8.421  1.5549 -0.2174  0.5480
15850SOL    HW259276   7.807  10.082   8.307 -0.4430  0.1931  0.4775
15851SOL     OW59277   3.684  13.316  13.631 -0.2894 -0.1196 -0.0787
15851SOL    HW159278   3.700  13.291  13.540  0.2364  0.4597 -0.1543
15851SOL    HW259279   3.767  13.299  13.676 -0.0305  1.0962 -0.0567
15852SOL     OW59280   1.187   5.669   7.106  0.3089 -0.3081  0.4664
15852SOL    HW159281   1.126   5.601   7.078 -1.1624  1.4675 -0.8958
15852SOL    HW259282   1.131   5.744   7.129  1.8933  1.7084 -1.6770
15853SOL     OW59283  13.180   5.291   6.264  0.0015 -0.0138 -0.7403
15853SOL    HW159284  13.233   5.238   6.324 -0.9320  1.6505  1.7500
15853SOL    HW259285  13.233   5.299   6.185  1.5694 -1.8751  0.0455
15854SOL     OW59286   9.410  10.913   7.289  0.8268 -0.0141 -0.0362
15854SOL    HW159287   9.326  10.948   7.260  1.0982 -0.5362 -1.5532
15854SOL    HW259288   9.389  10.859   7.364  0.0587  1.2878  0.7294
15855SOL     OW59289   9.555   6.631   5.648  0.2658 -0.2644  0.1182
15855SOL    HW159290   9.650   6.638   5.640  0.1607  2.2407  0.2959
15855SOL    HW259291   9.527   6.715   5.684 -2.2393  0.0242 -2.1590
15856SOL     OW59292  12.401  10.968  13.126  0.1009 -0.2339 -0.6037
15856SOL    HW159293  12.451  10.892  13.096  0.9261  0.3316 -0.6687
15856SOL    HW259294  12.336  10.931  13.186  1.1287 -0.8786  0.1257
15857SOL     OW59295   0.038  12.802   7.591 -0.4994 -0.1569 -0.0503
15857SOL    HW159296   0.016  12.730   7.532  0.5152  1.0092 -1.9527
15857SOL    HW259297   0.128  12.785   7.617 -0.2903  0.3683 -0.4238
15858SOL     OW59298  10.478   5.038   3.550  0.1860  0.1497  0.1228
15858SOL    HW159299  10.546   5.103   3.567  0.5172 -0.2631  0.4104
15858SOL    HW259300  10.479   4.982   3.628  0.1517 -0.4156 -0.2793
15859SOL     OW59301   5.580   5.150  12.324 -0.3983 -0.2674  0.0810
15859SOL    HW159302   5.490   5.152  12.292 -0.8791  0.2695  1.4276
15859SOL    HW259303   5.587   5.225  12.382  0.1306 -1.7810  2.0724
15860SOL     OW59304  12.937   4.374  12.935  0.3356  0.3422  0.0706
15860SOL    HW159305  12.858   4.358  12.884  0.9801 -0.9182 -0.5666
15860SOL    HW259306  12.953   4.468  12.924 -0.4068  0.3844 -0.7686
15861SOL     OW59307  11.020   1.976  10.235 -0.2300  0.6090 -0.0040
15861SOL    HW159308  10.971   1.951  10.157  0.9550  0.1765 -0.6279
15861SOL    HW259309  11.098   2.019  10.201 -0.6511  2.2608  0.9940
15862SOL     OW59310  11.637   6.634  10.671  0.6763 -0.3507 -0.0560
15862SOL    HW159311  11.614   6.636  10.578 -0.7811  0.6333  0.2981
15862SOL    HW259312  11.611   6.547  10.701 -1.7259  0.3652  0.0897
15863SOL     OW59313   3.699   9.450   4.660 -0.4393  0.2181 -0.0201
15863SOL    HW159314   3.760   9.508   4.616  2.0593 -1.5957  0.8164
15863SOL    HW259315   3.711   9.467   4.753  0.5075 -1.6706  0.2594
15864SOL     OW59316   8.724   7.133  13.726 -0.1558 -0.1723  0.1586
15864SOL    HW159317   8.685   7.100  13.807 -1.2273  1.7792  0.5039
15864SOL    HW259318   8.661   7.110  13.658 -0.8488  0.9658  0.3836
15865SOL     OW59319   5.840   3.798  11.329  0.1032  0.7669 -0.7325
15865SOL    HW159320   5.864   3.808  11.237 -1.0118  1.1100 -0.9977
15865SOL    HW259321   5.842   3.703  11.344  2.1577  0.7830 -0.5638
15866SOL     OW59322  12.163   4.568   0.377  0.2460  0.5800  0.1450
15866SOL    HW159323  12.171   4.654   0.334  1.2887  0.1136 -0.6338
15866SOL    HW259324  12.239   4.563   0.435  0.1599  0.1995  0.2253
15867SOL     OW59325  10.648   2.298   4.796  0.3857  0.1757 -0.0314
15867SOL    HW159326  10.560   2.268   4.814  0.7044 -0.3871  0.6038
15867SOL    HW259327  10.647   2.320   4.703 -0.6698  1.0627  0.1725
15868SOL     OW59328   3.921   8.359   6.623 -0.2989  0.4329 -0.1686
15868SOL    HW159329   3.845   8.416   6.627 -0.3545  0.2988  1.7451
15868SOL    HW259330   3.995   8.418   6.612 -0.3240  0.9907  2.0934
15869SOL     OW59331   4.012   1.413   8.985  0.2449  0.0313  0.1433
15869SOL    HW159332   4.043   1.431   9.073  0.1975 -4.3873  1.3268
15869SOL    HW259333   3.928   1.457   8.979  0.8781  1.5621  1.7431
15870SOL     OW59334   6.977   4.916  10.669  0.2437 -0.5181 -0.0646
15870SOL    HW159335   6.883   4.919  10.685  0.2633 -2.4112  0.7079
15870SOL    HW259336   6.991   4.976  10.596 -1.9799 -2.1466 -1.9960
15871SOL     OW59337   4.213   9.942   7.356  0.1337  0.0507  0.7213
15871SOL    HW159338   4.220   9.850   7.330  0.9962 -0.3068  2.0838
15871SOL    HW259339   4.297   9.980   7.329 -0.0839  0.3529  0.4715
15872SOL     OW59340   5.482   9.291   4.765  0.1209 -0.6651  0.4835
15872SOL    HW159341   5.410   9.346   4.794 -0.1804 -1.0312  0.4354
15872SOL    HW259342   5.468   9.279   4.672  1.9173  1.7636 -0.2161
15873SOL     OW59343   2.700   9.243   9.015 -0.6050 -0.0175 -0.2805
15873SOL    HW159344   2.713   9.262   8.923  3.0462  1.4556  0.3418
15873SOL    HW259345   2.660   9.322   9.051 -0.5376  0.0535 -0.3612
15874SOL     OW59346  10.266   3.690  11.232 -0.3924  0.6227 -0.6166
15874SOL    HW159347  10.347   3.692  11.181  0.3427  1.4397  0.5332
15874SOL    HW259348  10.196   3.696  11.167  0.4871  0.5715 -1.5878
15875SOL     OW59349   0.436   1.535   3.800 -0.3993 -0.0603  0.4083
15875SOL    HW159350   0.461   1.443   3.788 -1.5317 -0.4181  0.6332
15875SOL    HW259351   0.423   1.568   3.711 -3.0271 -1.0376  0.3327
15876SOL     OW59352  11.908   1.815   8.521 -0.2974 -0.0858  0.3327
15876SOL    HW159353  11.881   1.803   8.430  0.1445  0.6680  0.0973
15876SOL    HW259354  12.003   1.826   8.517 -0.3964  1.1179  0.7438
15877SOL     OW59355  11.584   6.146   1.179 -0.5482 -0.7879  0.4917
15877SOL    HW159356  11.578   6.226   1.230 -1.9084 -1.2609  1.1180
15877SOL    HW259357  11.494   6.115   1.171  0.1205 -3.7145  2.6487
15878SOL     OW59358   7.714  11.070  13.182  0.0395 -0.3362  0.4412
15878SOL    HW159359   7.686  11.028  13.101  0.1151 -2.3533  1.3735
15878SOL    HW259360   7.648  11.137  13.199 -0.5158 -0.5450 -0.7708
15879SOL     OW59361   3.297   8.223   4.115 -0.6399  0.6400  0.1295
15879SOL    HW159362   3.268   8.180   4.195  0.9877  0.4244  0.6458
15879SOL    HW259363   3.288   8.317   4.134 -1.3312  0.5847  0.1191
15880SOL     OW59364   8.948   9.070   0.609  0.7931  0.7988  0.7631
15880SOL    HW159365   8.896   9.049   0.531 -1.0463 -0.7166  2.2994
15880SOL    HW259366   9.027   9.111   0.574 -0.5391  1.4111 -1.8099
15881SOL     OW59367   3.378   1.458   8.366  0.0814 -0.7729  0.3199
15881SOL    HW159368   3.313   1.454   8.296  0.4105 -2.6593  0.0738
15881SOL    HW259369   3.361   1.381   8.420  1.7004 -0.9847  0.5954
15882SOL     OW59370   2.208   5.049  11.118  0.3971 -0.5320 -0.3337
15882SOL    HW159371   2.166   5.124  11.077  1.1075 -0.0479 -0.1777
15882SOL    HW259372   2.265   5.086  11.185  0.3473 -1.2382  0.1131
15883SOL     OW59373  13.143   0.337   8.146  0.2475 -0.4431 -0.1449
15883SOL    HW159374  13.206   0.287   8.197  0.7148 -0.0641 -0.3441
15883SOL    HW259375  13.142   0.424   8.186  0.6962 -0.1109 -0.8320
15884SOL     OW59376   1.637   2.099  12.257  0.3038  0.1006  0.1383
15884SOL    HW159377   1.672   2.187  12.245 -1.1560  0.8296  0.9794
15884SOL    HW259378   1.549   2.102  12.220  0.1962 -0.9777  0.2577
15885SOL     OW59379  10.909   7.917   7.580 -0.3751  0.4263 -0.3939
15885SOL    HW159380  10.974   7.943   7.515  0.0580  2.0656  0.6598
15885SOL    HW259381  10.844   7.987   7.579 -0.5320  0.3103  0.7043
15886SOL     OW59382   6.366  11.507  13.042  0.1760  0.6940  0.5779
15886SOL    HW159383   6.332  11.420  13.064 -2.2951  1.3723 -0.2551
15886SOL    HW259384   6.396  11.499  12.952  1.4509  0.3203  1.0228
15887SOL     OW59385   1.061   7.228   7.449 -0.1356  0.2241 -0.0525
15887SOL    HW159386   1.080   7.285   7.524 -1.5553  0.1395  0.4029
15887SOL    HW259387   0.987   7.175   7.478  0.2756 -0.8999 -0.9752
15888SOL     OW59388   6.942  13.280   4.687  0.0653 -0.2427  0.3129
15888SOL    HW159389   6.976  13.351   4.633 -0.3323  0.8198  1.4015
15888SOL    HW259390   6.985  13.292   4.772 -1.7834  0.1803  1.2493
15889SOL     OW59391   2.319   8.858   7.623 -0.0498 -0.2247  0.6338
15889SOL    HW159392   2.289   8.908   7.547  1.2261  0.8104  0.7805
15889SOL    HW259393   2.285   8.906   7.698  0.8336  0.1922  0.7687
15890SOL     OW59394   6.378   8.874   7.215  0.3173  0.1882  0.0032
15890SOL    HW159395   6.412   8.948   7.267 -1.0971  1.1129 -0.3209
15890SOL    HW259396   6.316   8.830   7.273  1.0197 -0.6497  0.1308
15891SOL     OW59397  10.116   8.530   3.444 -0.0248  0.6273 -0.3575
15891SOL    HW159398  10.171   8.516   3.521 -0.0588 -1.3349 -0.6299
15891SOL    HW259399  10.149   8.611   3.405  2.1265 -0.0233 -0.0300
15892SOL     OW59400   4.997   4.634  12.390  0.0718  0.2667 -0.4352
15892SOL    HW159401   4.970   4.572  12.322  0.3955  0.7531 -1.0297
15892SOL    HW259402   4.983   4.720  12.350 -1.0150  0.6044  0.6239
15893SOL     OW59403  11.190  13.092   6.044  0.1733 -0.0411  0.0151
15893SOL    HW159404  11.135  13.137   6.108  2.3717  0.2082  1.8368
15893SOL    HW259405  11.175  13.139   5.962 -1.2056  0.8968  0.7611
15894SOL     OW59406  11.128  13.288   7.101 -0.8283  0.1424  0.4091
15894SOL    HW159407  11.206  13.286   7.046 -3.2385  2.2980 -3.5358
15894SOL    HW259408  11.158  13.326   7.184  2.5009 -0.5327 -0.3533
15895SOL     OW59409   9.705   1.123   9.066 -0.3026  0.1680 -0.0074
15895SOL    HW159410   9.740   1.121   8.977 -0.5538 -0.4351 -0.0945
15895SOL    HW259411   9.776   1.088   9.121 -1.2384 -2.5545 -0.3623
15896SOL     OW59412   0.122   7.419   3.139  0.8123 -0.6758 -0.3223
15896SOL    HW159413   0.051   7.355   3.128 -0.5942 -0.0569  3.6606
15896SOL    HW259414   0.137   7.452   3.051 -1.4059 -3.3530 -1.8874
15897SOL     OW59415   6.813   7.828  13.005  0.0604 -0.0947 -0.6042
15897SOL    HW159416   6.809   7.906  13.060  1.5557 -0.9521  0.8181
15897SOL    HW259417   6.817   7.862  12.916  1.8975  1.5590  0.0216
15898SOL     OW59418  12.040   4.052   2.250 -0.3149 -0.0468 -0.1805
15898SOL    HW159419  12.099   3.977   2.248  0.1457  0.2650  0.9398
15898SOL    HW259420  11.954   4.014   2.270 -0.3045 -0.3839 -0.7494
15899SOL     OW59421   7.575   1.566   3.851  0.2456  0.2459  0.1033
15899SOL    HW159422   7.608   1.644   3.896 -0.3776 -0.8650  2.6765
15899SOL    HW259423   7.481   1.582   3.841  0.3730  0.4638 -0.8043
15900SOL     OW59424   5.927   1.695   8.817 -0.1004 -0.3594 -0.2668
15900SOL    HW159425   5.857   1.758   8.795  0.3723  0.8075  1.3929
15900SOL    HW259426   5.884   1.610   8.813 -0.5807 -0.1080 -3.3659
15901SOL     OW59427   2.231   0.505   5.393 -0.1096 -0.0871 -0.2546
15901SOL    HW159428   2.216   0.437   5.327  0.1443  0.1977 -0.6102
15901SOL    HW259429   2.217   0.587   5.346 -1.6224  0.0982  0.4760
15902SOL     OW59430   2.062   6.664   6.517  0.0233 -0.3317  0.1848
15902SOL    HW159431   2.003   6.599   6.554 -1.2904  0.9439  0.4405
15902SOL    HW259432   2.149   6.628   6.530 -0.5793 -1.3236  1.7405
15903SOL     OW59433   0.638   0.017  10.552 -0.0861  0.2561 -0.1438
15903SOL    HW159434   0.686  -0.018  10.476  1.5392  2.0159 -0.0064
15903SOL    HW259435   0.606   0.103  10.523 -2.1367 -0.3379  0.2056
15904SOL     OW59436   8.220   1.186   6.255 -0.0700 -0.3688 -0.2312
15904SOL    HW159437   8.220   1.207   6.348 -1.7102 -1.5657  0.0825
15904SOL    HW259438   8.205   1.270   6.212  1.3668  0.3147  0.4996
15905SOL     OW59439   5.778  12.959   2.633 -0.2624  0.0695 -0.2874
15905SOL    HW159440   5.729  13.004   2.565 -2.9137 -2.1820 -0.0686
15905SOL    HW259441   5.846  12.911   2.586 -0.4274  0.5654 -1.0443
15906SOL     OW59442   1.671   7.842  12.830 -0.2043 -0.2108  0.0306
15906SOL    HW159443   1.669   7.873  12.739 -0.0382 -1.7713 -0.5321
15906SOL    HW259444   1.746   7.783  12.834  0.5198  0.7693  1.5224
15907SOL     OW59445  11.688   6.731   6.132 -0.0729  0.4957  0.1013
15907SOL    HW159446  11.776   6.740   6.169 -1.1771  0.6178  2.9741
15907SOL    HW259447  11.642   6.809   6.164 -1.5283 -0.1099 -0.4729
15908SOL     OW59448   9.887   6.035   4.681  0.0290  0.0188  0.4820
15908SOL    HW159449   9.812   6.008   4.735  0.4124  0.9016  1.4909
15908SOL    HW259450   9.884   6.130   4.682  1.5907  0.0969  1.1738
15909SOL     OW59451  12.916   6.602   0.719 -0.6649 -0.1171  0.2054
15909SOL    HW159452  12.896   6.531   0.780  1.6236 -0.0963  1.0611
15909SOL    HW259453  12.974   6.562   0.654 -1.8741  0.2404 -1.1692
15910SOL     OW59454   9.729   5.485   2.458 -0.1071 -0.1489 -0.5234
15910SOL    HW159455   9.799   5.441   2.507 -0.6183  0.3722  0.7144
15910SOL    HW259456   9.663   5.417   2.444 -0.2873 -0.1158  0.1654
15911SOL     OW59457  11.774   5.764   0.087  0.7339 -0.7376 -0.1302
15911SOL    HW159458  11.849   5.823   0.084  1.0512 -1.1317 -0.0633
15911SOL    HW259459  11.811   5.680   0.118  0.3116 -0.9969 -0.3262
15912SOL     OW59460  11.654   0.049   4.500 -0.2084  0.2614 -0.1603
15912SOL    HW159461  11.598   0.098   4.560 -0.4407 -0.6180  0.3698
15912SOL    HW259462  11.707   0.115   4.456 -1.8691  1.1531 -0.9034
15913SOL     OW59463   3.668  11.003  12.464  0.3412  0.0767 -0.4948
15913SOL    HW159464   3.591  11.054  12.438 -1.3433 -3.0663 -2.3559
15913SOL    HW259465   3.632  10.922  12.501  2.7602 -1.3124 -0.9563
15914SOL     OW59466  13.702   3.846   6.644  0.5704 -0.2858  0.1552
15914SOL    HW159467  13.653   3.815   6.721  0.1419  1.1041  0.4656
15914SOL    HW259468  13.731   3.934   6.667  1.7218 -0.4102 -0.7213
15915SOL     OW59469   5.527   6.114   6.952  0.0812 -0.3270  0.1783
15915SOL    HW159470   5.515   6.045   7.018  1.1267  0.1118  0.8394
15915SOL    HW259471   5.610   6.154   6.974 -0.1979  0.7168 -0.6154
15916SOL     OW59472   3.359  10.616   9.802 -0.2707 -0.0919 -0.7332
15916SOL    HW159473   3.441  10.582   9.766 -0.6268 -0.0220 -1.6361
15916SOL    HW259474   3.340  10.559   9.877  0.6282 -0.0642 -0.4774
15917SOL     OW59475   9.456   1.587   6.129  0.0474 -0.7981 -0.2272
15917SOL    HW159476   9.509   1.524   6.178 -1.4185 -2.2150 -0.3802
15917SOL    HW259477   9.518   1.656   6.105  1.6732 -2.0500  0.1465
15918SOL     OW59478  13.537   8.429  13.054 -0.1500 -0.2203  0.1163
15918SOL    HW159479  13.594   8.419  12.978  0.1386 -3.3720  0.6423
15918SOL    HW259480  13.454   8.389  13.027 -1.2920  1.8674  0.3031
15919SOL     OW59481   3.394   4.502  11.970 -0.2399  0.0023  0.2841
15919SOL    HW159482   3.400   4.430  12.033  1.7814 -1.0817 -1.0210
15919SOL    HW259483   3.345   4.466  11.896  0.1247  0.1958 -0.0592
15920SOL     OW59484   2.718   5.602   5.572 -0.4830 -0.0047  0.5317
15920SOL    HW159485   2.652   5.661   5.609 -0.6130  0.6404 -0.6568
15920SOL    HW259486   2.673   5.517   5.568 -2.1313  0.8532 -2.2792
15921SOL     OW59487   3.941   5.487   8.412 -0.5159 -0.2641  0.4404
15921SOL    HW159488   4.010   5.433   8.373 -0.5248 -0.1689  0.2936
15921SOL    HW259489   3.889   5.517   8.337  1.3084  2.5493  0.1255
15922SOL     OW59490   9.489   1.684   1.382  0.1162  0.6080  0.5492
15922SOL    HW159491   9.554   1.707   1.448  0.5784  0.9153 -0.0047
15922SOL    HW259492   9.439   1.765   1.369 -0.3244  0.3982  0.9082
15923SOL     OW59493   8.788   1.480   9.635  0.1926 -0.4477  0.8761
15923SOL    HW159494   8.807   1.570   9.607  0.6096 -0.8948 -0.3285
15923SOL    HW259495   8.753   1.490   9.724 -0.7450  1.0005  0.3967
15924SOL     OW59496   7.506   2.218   9.160 -0.9085  0.3175  0.3088
15924SOL    HW159497   7.419   2.245   9.132 -1.0801 -0.4350  0.0955
15924SOL    HW259498   7.566   2.275   9.112 -1.1927 -0.8983 -1.6194
15925SOL     OW59499   2.369   6.830   2.765 -0.4101  0.2442  0.2836
15925SOL    HW159500   2.397   6.742   2.789 -3.4609 -0.1795  3.0520
15925SOL    HW259501   2.353   6.826   2.671  1.1441 -1.6075  0.0480
15926SOL     OW59502   9.046   3.611  11.101 -0.0829 -0.3764  0.0576
15926SOL    HW159503   9.020   3.562  11.179 -0.2396 -0.7183 -0.2056
15926SOL    HW259504   9.121   3.663  11.129  1.0397 -1.8809 -0.0214
15927SOL     OW59505   4.429   8.291   9.581  0.2222 -0.0421 -0.3375
15927SOL    HW159506   4.351   8.347   9.586  0.3599  0.4266 -2.5394
15927SOL    HW259507   4.499   8.346   9.617 -0.4070 -0.4712  1.6646
15928SOL     OW59508  10.869   8.107   1.154  0.2234  0.4802  0.2339
15928SOL    HW159509  10.807   8.060   1.097 -1.6520  0.9211  1.7996
15928SOL    HW259510  10.883   8.048   1.228  1.7823  0.3707 -0.1068
15929SOL     OW59511  11.240   6.411   5.210  0.1670 -0.5312 -0.3556
15929SOL    HW159512  11.325   6.367   5.201  0.5082  0.4033 -2.1827
15929SOL    HW259513  11.210   6.423   5.119 -1.2265  0.4764  0.2077
15930SOL     OW59514   0.971   6.209   5.935  0.3115 -0.1322  0.2387
15930SOL    HW159515   0.934   6.269   5.999  1.0225  0.2612  0.2815
15930SOL    HW259516   1.023   6.264   5.877 -1.4228 -0.2339 -1.5615
15931SOL     OW59517  13.495   2.938   8.045  0.0885 -0.5118 -0.0755
15931SOL    HW159518  13.577   2.890   8.058  0.5507 -0.0683 -1.1973
15931SOL    HW259519  13.475   2.926   7.952 -0.9296 -0.3021  0.1063
15932SOL     OW59520   8.624  12.362  12.215 -0.1238 -0.2026 -0.4494
15932SOL    HW159521   8.661  12.440  12.256 -1.1415 -0.8280  1.7996
15932SOL    HW259522   8.625  12.296  12.283  0.6501 -2.1973 -2.2720
15933SOL     OW59523   5.791  11.636   9.494 -0.4179  0.0399  0.6413
15933SOL    HW159524   5.861  11.698   9.474 -0.3032  0.0521  1.0597
15933SOL    HW259525   5.835  11.551   9.500 -0.6565 -0.1784 -0.4654
15934SOL     OW59526  10.256   4.978   2.492 -0.7442 -0.1832 -0.1817
15934SOL    HW159527  10.289   4.984   2.581 -1.0500  2.4742 -0.1827
15934SOL    HW259528  10.170   4.937   2.501  0.2283 -2.2028  0.4099
15935SOL     OW59529   4.823   2.226   6.849 -0.3290  0.0715  0.4729
15935SOL    HW159530   4.782   2.275   6.920  0.8334  0.7795  0.6889
15935SOL    HW259531   4.780   2.141   6.850 -0.0514 -0.0949  2.3260
15936SOL     OW59532  11.948   8.389   8.464 -0.3038  0.3008  0.2797
15936SOL    HW159533  11.920   8.300   8.488  0.8891 -0.0116  0.5455
15936SOL    HW259534  11.926   8.396   8.371  1.3499 -0.9882 -0.2480
15937SOL     OW59535   0.954   2.918   3.779 -0.1331 -0.0873  0.2847
15937SOL    HW159536   0.978   2.952   3.866 -0.9023  0.7140  0.1937
15937SOL    HW259537   1.038   2.895   3.739  0.1753 -1.7486  1.7268
15938SOL     OW59538   6.899   1.942   0.687 -0.7603  0.1307  0.2083
15938SOL    HW159539   6.829   1.971   0.746 -1.0567 -0.3680  0.0980
15938SOL    HW259540   6.875   1.854   0.661  0.2227 -0.2801  0.6513
15939SOL     OW59541   7.456   6.800   6.381 -0.3849 -0.0860  0.1287
15939SOL    HW159542   7.550   6.803   6.367  0.0345 -2.6624  1.7432
15939SOL    HW259543   7.444   6.820   6.474 -1.0880 -2.4464  0.6132
15940SOL     OW59544   8.672   7.007   5.355 -0.2740  0.1623  0.2980
15940SOL    HW159545   8.710   6.948   5.420  0.7220  1.9832  1.4207
15940SOL    HW259546   8.596   6.959   5.322  1.0521 -2.1681  0.4082
15941SOL     OW59547  12.748   9.066   7.097 -0.4991 -0.4939  0.1725
15941SOL    HW159548  12.687   9.012   7.148 -1.5884 -0.2964 -0.8871
15941SOL    HW259549  12.737   9.035   7.007  0.7352 -0.2218 -0.0809
15942SOL     OW59550   9.791   5.209   2.211  0.6287 -0.8167  0.0763
15942SOL    HW159551   9.746   5.293   2.204 -0.0117 -1.1309  0.3419
15942SOL    HW259552   9.768   5.163   2.130  1.2628 -0.6076 -0.2295
15943SOL     OW59553  11.835   2.076   0.655  0.3673 -0.1349  0.1733
15943SOL    HW159554  11.874   2.031   0.580 -0.7005 -0.8986  0.0548
15943SOL    HW259555  11.867   2.028   0.732  0.5189 -0.0926  0.1358
15944SOL     OW59556  11.647  13.255   0.678  0.0332  0.2986  0.4901
15944SOL    HW159557  11.628  13.349   0.668  0.0365  0.2259 -0.2229
15944SOL    HW259558  11.730  13.243   0.632 -0.1532 -0.1267  0.2651
15945SOL     OW59559   5.167   7.957   7.204  0.1450  0.0861 -0.5080
15945SOL    HW159560   5.141   8.043   7.238  0.5017  0.4812 -1.2242
15945SOL    HW259561   5.098   7.934   7.142 -0.4768 -0.6121  0.4111
15946SOL     OW59562   3.749   5.186  11.566 -0.6047 -0.0109  0.4532
15946SOL    HW159563   3.784   5.104  11.534 -0.3860  0.4737 -0.5802
15946SOL    HW259564   3.736   5.240  11.488 -2.2204  0.3786  0.9299
15947SOL     OW59565  13.300  13.585  12.975  0.1709  0.1360  0.0879
15947SOL    HW159566  13.253  13.643  13.034  0.0434  0.2133 -0.0880
15947SOL    HW259567  13.381  13.563  13.021  0.8242  1.4713 -0.3686
15948SOL     OW59568   2.407   6.686   8.226 -0.3446 -0.1947 -0.9480
15948SOL    HW159569   2.371   6.647   8.146 -1.0010 -0.2874 -0.6131
15948SOL    HW259570   2.432   6.612   8.280  2.7248 -0.1793 -2.1708
15949SOL     OW59571   5.422   0.255   8.170 -0.4227 -0.1536 -0.3828
15949SOL    HW159572   5.496   0.280   8.114 -0.8044  1.1718 -0.3329
15949SOL    HW259573   5.368   0.199   8.114 -0.4032  0.5192 -1.0945
15950SOL     OW59574   1.522  10.479   6.715  0.3423  0.1313  0.0638
15950SOL    HW159575   1.488  10.504   6.630  0.1561  0.5884  0.2709
15950SOL    HW259576   1.579  10.404   6.697 -0.2885 -0.2501 -0.3584
15951SOL     OW59577   4.317  12.153   6.555  0.1443  0.1184 -0.5496
15951SOL    HW159578   4.241  12.101   6.584  1.2663 -2.8265 -2.4521
15951SOL    HW259579   4.342  12.203   6.633 -1.9559 -1.0231  0.9923
15952SOL     OW59580   5.096   1.140   3.157 -0.1614  0.3034 -0.2867
15952SOL    HW159581   5.083   1.235   3.160  0.0418  0.3118  1.2275
15952SOL    HW259582   5.022   1.107   3.105  0.1901  1.3410 -1.4806
15953SOL     OW59583   3.648   9.642   6.085 -0.0519  0.5400  1.0921
15953SOL    HW159584   3.720   9.618   6.026  0.6028  1.3732  1.5217
15953SOL    HW259585   3.612   9.558   6.114 -1.6425  0.0257 -1.8976
15954SOL     OW59586  13.237   8.108  10.460 -0.2811 -0.1400  0.5579
15954SOL    HW159587  13.239   8.088  10.367 -1.2966  0.3393  0.4233
15954SOL    HW259588  13.217   8.025  10.503  1.7077 -0.7087  0.4944
15955SOL     OW59589  11.144   0.243   1.561  0.4457 -0.6065 -0.2154
15955SOL    HW159590  11.192   0.297   1.623 -0.5595 -0.5724  0.5434
15955SOL    HW259591  11.212   0.190   1.519  1.1710 -0.4179  0.6883
15956SOL     OW59592   7.722   3.340   9.044 -0.0616 -0.6439  0.1618
15956SOL    HW159593   7.711   3.391   8.963  0.5149 -1.5015 -0.4742
15956SOL    HW259594   7.809   3.366   9.076 -0.1519 -0.5495  0.3311
15957SOL     OW59595  11.418   1.611   5.188  0.0330 -0.4833  0.0979
15957SOL    HW159596  11.328   1.616   5.158  0.4936 -1.6531 -1.6185
15957SOL    HW259597  11.418   1.658   5.271 -1.8936  0.5790 -0.4360
15958SOL     OW59598   2.748   2.691   7.403 -0.8297  0.1815  0.0097
15958SOL    HW159599   2.683   2.704   7.471  2.1091  4.1185  2.5431
15958SOL    HW259600   2.793   2.610   7.427 -0.3884  1.0635  2.4714
15959SOL     OW59601   2.754   9.824   7.861 -0.4423 -0.0829  0.3827
15959SOL    HW159602   2.714   9.741   7.836 -0.9553  0.5683 -1.0644
15959SOL    HW259603   2.848   9.808   7.856 -0.5339 -0.7309  0.6743
15960SOL     OW59604   6.755   5.956  13.514 -0.7838  0.0499  0.0618
15960SOL    HW159605   6.796   6.040  13.493 -0.7188  0.0015 -0.0059
15960SOL    HW259606   6.691   5.943  13.444 -1.4460  0.4864  0.5808
15961SOL     OW59607   9.701   6.538  11.345 -0.4222 -0.3747 -0.4979
15961SOL    HW159608   9.639   6.567  11.412 -1.3395  1.8640 -2.1813
15961SOL    HW259609   9.770   6.605  11.346  1.2516 -2.0212  0.3030
15962SOL     OW59610  12.768   4.856  12.646  0.6439  0.9094  0.4380
15962SOL    HW159611  12.766   4.809  12.729  0.9417  0.5079  0.2215
15962SOL    HW259612  12.825   4.931  12.664  1.1079  0.5582  0.4641
15963SOL     OW59613   4.983   9.203   3.130 -0.1421 -0.1347  0.7250
15963SOL    HW159614   4.980   9.253   3.048 -0.8528 -2.9713 -1.0989
15963SOL    HW259615   4.905   9.231   3.178 -0.6739  0.2996 -0.3672
15964SOL     OW59616   7.384   1.103   6.928 -0.0721  0.2471  0.2540
15964SOL    HW159617   7.343   1.018   6.942  0.2452 -0.3937 -2.2249
15964SOL    HW259618   7.314   1.159   6.896  0.0546  0.4438  0.3190
15965SOL     OW59619  11.278   1.400   2.543 -0.0317 -0.5115 -0.2005
15965SOL    HW159620  11.273   1.331   2.477 -2.3392  0.7483 -1.4906
15965SOL    HW259621  11.215   1.374   2.610 -0.4056 -0.0179 -0.3526
15966SOL     OW59622   7.844   3.132   0.641 -0.0202 -0.5305  0.4834
15966SOL    HW159623   7.835   3.190   0.717 -0.4507  1.4443 -0.9978
15966SOL    HW259624   7.760   3.141   0.595  0.6136 -0.8790 -0.7619
15967SOL     OW59625   6.301  10.608   1.433  0.0095  0.4201  0.7626
15967SOL    HW159626   6.319  10.673   1.366  0.3021  0.6089  1.0198
15967SOL    HW259627   6.380  10.608   1.488  0.3952 -0.8057  0.2306
15968SOL     OW59628   0.435   4.512  10.602  0.3841 -0.6956  0.4245
15968SOL    HW159629   0.372   4.480  10.538 -0.8280  1.0667  0.6840
15968SOL    HW259630   0.417   4.459  10.681 -0.7554 -0.2451  0.4805
15969SOL     OW59631   6.540  13.535   2.267 -0.3047  0.2598  0.1855
15969SOL    HW159632   6.610  13.529   2.331 -1.2726  0.5718  1.3075
15969SOL    HW259633   6.506  13.624   2.277 -1.0622  0.0143 -0.1107
15970SOL     OW59634  13.052  11.252  10.709  0.3461 -0.6523  0.2920
15970SOL    HW159635  13.026  11.164  10.683 -0.3453 -0.7352  1.2289
15970SOL    HW259636  13.106  11.239  10.787 -1.1451 -0.1803  1.4557
15971SOL     OW59637   2.547   6.108   0.486  0.6042  0.4670  0.1665
15971SOL    HW159638   2.488   6.136   0.416 -0.0404 -0.2530  0.4066
15971SOL    HW259639   2.635   6.126   0.453  0.3787 -1.0425 -1.3758
15972SOL     OW59640   4.003   5.873   8.692 -0.0959  0.5977  0.0163
15972SOL    HW159641   4.081   5.820   8.675 -0.0498 -0.0745  2.0482
15972SOL    HW259642   4.033   5.942   8.751 -0.4313  2.2003 -1.6251
15973SOL     OW59643   8.833   1.669   0.672  0.5760  0.3002  0.1212
15973SOL    HW159644   8.748   1.646   0.710  1.1400  1.1909  2.0299
15973SOL    HW259645   8.890   1.596   0.697  0.8387  0.6714  0.6313
15974SOL     OW59646   3.879   8.680   5.175  0.5326  0.1459 -0.0496
15974SOL    HW159647   3.862   8.665   5.268  0.6181 -0.1002 -0.0739
15974SOL    HW259648   3.798   8.718   5.141  0.4702  0.1488  0.1049
15975SOL     OW59649   6.206  11.105  11.917  0.0702 -0.6207  0.5363
15975SOL    HW159650   6.186  11.012  11.901 -1.3973 -0.8490  3.0511
15975SOL    HW259651   6.300  11.107  11.929  0.0878 -1.8807  0.8120
15976SOL     OW59652   7.443   1.791   0.669  0.3500 -0.6405  0.2247
15976SOL    HW159653   7.480   1.842   0.740  0.1154 -1.1911  0.7556
15976SOL    HW259654   7.482   1.704   0.678 -0.1232 -0.8794  0.0379
15977SOL     OW59655  12.090   0.157   5.756 -1.0940  0.1757 -0.1897
15977SOL    HW159656  12.018   0.157   5.692 -1.9709  0.1767  0.7767
15977SOL    HW259657  12.111   0.250   5.766 -1.2044  0.2032 -0.2035
15978SOL     OW59658   9.674   4.744  13.084 -0.1604 -0.3948  0.2741
15978SOL    HW159659   9.730   4.784  13.019  1.0492  0.4391  1.7622
15978SOL    HW259660   9.734   4.703  13.146 -1.2555 -0.9888  0.9875
15979SOL     OW59661  10.718   4.973   8.115  0.3655  0.0156  0.2978
15979SOL    HW159662  10.808   4.942   8.101  1.9020  1.7044  4.6247
15979SOL    HW259663  10.675   4.901   8.161  0.5398  0.2940  0.9146
15980SOL     OW59664   8.172   5.584  12.421  0.2313 -0.1151  0.1563
15980SOL    HW159665   8.205   5.670  12.448  2.2761 -0.6339 -0.4641
15980SOL    HW259666   8.190   5.526  12.495  2.8188 -0.8366 -0.8995
15981SOL     OW59667  12.822   2.809   9.342  0.0861 -0.2167  0.4669
15981SOL    HW159668  12.768   2.863   9.284  0.7818 -0.5507 -0.5234
15981SOL    HW259669  12.909   2.848   9.338  0.2152 -0.4373  1.0460
15982SOL     OW59670   2.943   2.845   0.980  0.2736  0.3400  0.1516
15982SOL    HW159671   2.986   2.911   1.035 -0.0236  0.0573  0.7360
15982SOL    HW259672   2.867   2.890   0.944 -0.0655  0.2532  0.7468
15983SOL     OW59673  13.742   9.121  10.409  0.4307  0.3119 -0.3715
15983SOL    HW159674  13.832   9.091  10.419  1.1672  2.0887 -1.1973
15983SOL    HW259675  13.728   9.124  10.314 -0.2011  0.8704 -0.2679
15984SOL     OW59676  12.216   8.826   1.843 -0.1475  0.4920  0.8958
15984SOL    HW159677  12.139   8.853   1.794 -0.2990  1.1489  1.4750
15984SOL    HW259678  12.281   8.895   1.827  0.5362 -0.3305 -0.0378
15985SOL     OW59679   0.237   9.608   6.485 -0.3506 -0.2414  0.6034
15985SOL    HW159680   0.173   9.538   6.474  0.4151 -0.8379 -0.1368
15985SOL    HW259681   0.243   9.648   6.398  0.5517 -0.4303  0.5774
15986SOL     OW59682   5.003   0.542   7.344 -0.2227 -0.1287 -0.6229
15986SOL    HW159683   4.980   0.555   7.252 -0.2678 -0.6482 -0.6912
15986SOL    HW259684   5.053   0.620   7.368 -0.2465  0.0292 -1.0778
15987SOL     OW59685  13.731   8.194   1.684  0.3721 -0.2158  0.5308
15987SOL    HW159686  13.790   8.119   1.684  0.1853 -0.4341 -1.8024
15987SOL    HW259687  13.643   8.155   1.679  0.2262  0.1542  0.1979
15988SOL     OW59688   9.064   7.359   4.301  0.0128 -0.6460  0.7044
15988SOL    HW159689   9.040   7.280   4.253 -1.0852  0.2821 -0.3473
15988SOL    HW259690   9.003   7.361   4.375 -1.5095  0.3396 -0.5130
15989SOL     OW59691   4.934   5.962   8.003 -0.1547 -0.7242  0.0495
15989SOL    HW159692   4.857   5.913   7.975 -2.7151  1.0123  3.3115
15989SOL    HW259693   4.917   6.052   7.974  0.3562 -0.2236  1.2187
15990SOL     OW59694   2.028   9.393   8.558 -0.0017 -0.1055 -0.5386
15990SOL    HW159695   2.016   9.395   8.653 -0.8950  2.6749 -0.6379
15990SOL    HW259696   1.996   9.306   8.533 -0.6445 -0.5560  1.5812
15991SOL     OW59697   1.669  10.077   3.108 -0.0363 -0.5201 -0.3877
15991SOL    HW159698   1.745  10.092   3.052  0.4751 -2.0896 -0.1616
15991SOL    HW259699   1.702  10.091   3.197 -0.7718  1.6728 -0.3884
15992SOL     OW59700   9.006  13.530   6.217 -0.3232  0.6299 -0.4150
15992SOL    HW159701   8.920  13.494   6.195 -0.1690 -0.7211  1.0351
15992SOL    HW259702   9.000  13.622   6.192 -3.3229  1.3993  2.4348
15993SOL     OW59703  11.817   4.516   4.762 -0.0782  0.4119 -0.3481
15993SOL    HW159704  11.843   4.505   4.670  0.5430  0.6350 -0.2055
15993SOL    HW259705  11.777   4.603   4.765 -1.9234 -0.3621 -0.7943
15994SOL     OW59706   3.951   5.644  11.207 -0.0738  0.0264 -0.8581
15994SOL    HW159707   3.862   5.610  11.197  0.3244 -0.4915 -3.4779
15994SOL    HW259708   3.944   5.737  11.186 -0.0620  0.0731 -0.6546
15995SOL     OW59709   0.469   6.817   4.391 -0.0947 -0.2794  0.1539
15995SOL    HW159710   0.503   6.899   4.426 -0.9901 -0.0683  0.5665
15995SOL    HW259711   0.397   6.843   4.334 -1.7747 -0.8352  1.9024
15996SOL     OW59712   7.920   4.596   1.601  0.4024 -0.3977 -0.3843
15996SOL    HW159713   7.904   4.658   1.530  1.7491 -1.5105 -1.7201
15996SOL    HW259714   7.889   4.641   1.680 -2.3794  0.3568 -1.7895
15997SOL     OW59715   1.035   6.587   4.108  0.4976 -0.5363  0.1690
15997SOL    HW159716   1.049   6.659   4.047  1.3463 -1.1828 -0.4314
15997SOL    HW259717   0.942   6.593   4.131  0.1722 -0.2254 -1.1458
15998SOL     OW59718  12.893  11.965   5.692 -0.1670  0.2789 -0.4530
15998SOL    HW159719  12.881  11.924   5.607 -1.3129  0.2566 -0.2927
15998SOL    HW259720  12.814  12.017   5.705  0.3097  0.8429  0.2947
15999SOL     OW59721   0.627   2.709   1.716  0.4231  0.6442 -0.3393
15999SOL    HW159722   0.593   2.622   1.695 -0.8124  1.0105  0.0951
15999SOL    HW259723   0.573   2.769   1.666  0.8620  1.2106 -0.1454
16000SOL     OW59724  13.390   8.266   3.877  0.1135  0.6410  0.0649
16000SOL    HW159725  13.457   8.317   3.831 -0.3436  0.4526 -0.8286
16000SOL    HW259726  13.334   8.333   3.919  0.2203  0.8346 -0.0986
16001SOL     OW59727   1.948   5.186   3.226  0.4071  0.3230 -0.8249
16001SOL    HW159728   1.889   5.203   3.153 -0.8855  1.5642  0.4528
16001SOL    HW259729   1.955   5.269   3.271  1.5959 -0.2912  0.1838
16002SOL     OW59730  10.554   5.267  10.751  0.5376 -0.2360 -0.1480
16002SOL    HW159731  10.600   5.347  10.778  3.0773 -0.8951 -2.0667
16002SOL    HW259732  10.462   5.288  10.762  1.1611  2.2426  1.2912
16003SOL     OW59733   5.538   0.285   2.903  0.3487 -0.9021 -0.5738
16003SOL    HW159734   5.443   0.284   2.887  0.3036 -1.5013 -0.3090
16003SOL    HW259735   5.546   0.323   2.991  0.4219  0.0179 -0.9727
16004SOL     OW59736   4.177   1.806   2.223 -0.6340  0.0863 -0.0409
16004SOL    HW159737   4.236   1.881   2.209 -0.4813 -0.2340 -1.1762
16004SOL    HW259738   4.232   1.729   2.210 -1.2463 -0.2163 -0.9513
16005SOL     OW59739   1.979   9.545   1.181 -0.5748 -0.0102  0.3766
16005SOL    HW159740   2.070   9.526   1.207 -0.7001  0.3871  1.1138
16005SOL    HW259741   1.988   9.589   1.097 -0.0134  0.9464  0.9182
16006SOL     OW59742   9.312   8.546   0.751  0.5885  0.3505  0.2336
16006SOL    HW159743   9.355   8.580   0.830  0.8557  2.3039 -0.6743
16006SOL    HW259744   9.257   8.619   0.721  0.4775 -0.3458 -1.3663
16007SOL     OW59745  11.627  12.682  11.205  0.0889 -0.1614  0.0535
16007SOL    HW159746  11.565  12.666  11.135  0.1913 -0.0598 -0.0599
16007SOL    HW259747  11.601  12.767  11.241  0.1201 -0.1520  0.0530
16008SOL     OW59748   3.907   9.033   8.516 -0.1836  0.3161 -0.0508
16008SOL    HW159749   3.876   9.035   8.606 -0.0381 -3.7754  0.2908
16008SOL    HW259750   4.002   9.026   8.523 -0.1376  0.4116 -0.5431
16009SOL     OW59751  13.732   2.474   1.422 -0.2579 -0.1394 -0.9156
16009SOL    HW159752  13.676   2.450   1.495 -0.2428  0.8707 -0.5533
16009SOL    HW259753  13.710   2.412   1.353 -0.8248 -0.6190 -0.3127
16010SOL     OW59754   9.331  12.708   2.380  0.2744  0.0097  0.2088
16010SOL    HW159755   9.317  12.720   2.286 -1.2628 -0.6341  0.3233
16010SOL    HW259756   9.420  12.674   2.387  1.4009  2.5081 -0.7791
16011SOL     OW59757   8.848   9.142   2.002  0.0417  0.2530 -0.3738
16011SOL    HW159758   8.905   9.203   2.049 -0.4209  1.4154 -1.2934
16011SOL    HW259759   8.907   9.096   1.942  0.3375 -0.0196  0.1123
16012SOL     OW59760   0.487   6.893  11.800  0.0486 -0.4652 -0.4006
16012SOL    HW159761   0.401   6.929  11.819  0.5399 -0.1506  1.4867
16012SOL    HW259762   0.476   6.798  11.811  0.5833 -0.2457  3.2176
16013SOL     OW59763   4.409   1.045   8.317  0.0418  0.0785  0.1675
16013SOL    HW159764   4.479   0.987   8.349 -0.5444 -1.0434 -0.5140
16013SOL    HW259765   4.344   1.044   8.388 -0.6464 -1.3340 -0.4383
16014SOL     OW59766   0.476   1.343   6.480 -0.7009 -0.1582 -0.6406
16014SOL    HW159767   0.431   1.275   6.431  2.7788 -1.4803 -2.3446
16014SOL    HW259768   0.516   1.398   6.413  3.2844 -1.3422  0.4935
16015SOL     OW59769  13.108   7.986   2.460 -0.0243 -0.3916 -0.6205
16015SOL    HW159770  13.042   7.938   2.410 -3.0655  0.6893  2.0399
16015SOL    HW259771  13.098   7.955   2.550  0.7049  2.1907  0.4612
16016SOL     OW59772   8.540   5.071   3.074 -0.3886  0.2291  0.3959
16016SOL    HW159773   8.545   5.164   3.096 -0.9622  0.4848 -0.4973
16016SOL    HW259774   8.608   5.058   3.009 -0.4778  0.0862  0.3302
16017SOL     OW59775   6.315   6.842   9.864 -0.4043  0.1230 -0.6067
16017SOL    HW159776   6.332   6.748   9.857 -1.6284 -0.2003  0.5361
16017SOL    HW259777   6.244   6.858   9.801 -0.1987  0.2869 -0.7980
16018SOL     OW59778   2.856   9.358   3.934  0.5709  0.3617  0.2333
16018SOL    HW159779   2.907   9.435   3.907  1.1134  0.3879  1.3032
16018SOL    HW259780   2.921   9.290   3.951  0.1465 -0.0803  0.1244
16019SOL     OW59781  10.819  10.259   7.012 -0.0540  0.0895  0.1389
16019SOL    HW159782  10.792  10.221   6.928 -1.5756  2.8446 -0.7479
16019SOL    HW259783  10.816  10.186   7.073 -1.0166 -1.5778 -1.7623
16020SOL     OW59784   4.847   0.062   7.911  0.2365  0.5327 -0.1961
16020SOL    HW159785   4.823   0.116   7.835 -0.3209  1.3524  0.5521
16020SOL    HW259786   4.849   0.123   7.984  2.3041  0.0676  0.2166
16021SOL     OW59787   9.973   2.985   6.040  0.3750  0.3035 -0.1127
16021SOL    HW159788  10.040   3.051   6.022  1.0291 -0.9190 -2.7024
16021SOL    HW259789   9.958   2.943   5.955 -0.3238 -2.5700  1.2927
16022SOL     OW59790   6.926  11.508   4.513  0.1075  0.2499  0.6721
16022SOL    HW159791   7.001  11.455   4.489 -1.4297 -1.4161 -0.7183
16022SOL    HW259792   6.940  11.592   4.469  1.5182  0.2746  1.1245
16023SOL     OW59793   7.674   6.429   0.991  0.8263  0.7222 -0.2703
16023SOL    HW159794   7.657   6.509   0.942 -0.0856  0.6314 -0.1098
16023SOL    HW259795   7.722   6.373   0.929  0.6833  1.0454 -0.6771
16024SOL     OW59796   1.308   7.055   2.773  0.8533 -0.5642  0.0267
16024SOL    HW159797   1.306   6.960   2.762  1.8280 -0.5884 -0.0063
16024SOL    HW259798   1.401   7.078   2.770  0.7970  0.1393  2.1956
16025SOL     OW59799  10.306   5.441   5.339 -0.0888  0.1594 -0.1355
16025SOL    HW159800  10.368   5.496   5.291  1.5331 -1.4139  0.0627
16025SOL    HW259801  10.220   5.471   5.310  0.7576  1.8357 -1.0812
16026SOL     OW59802  13.254   0.736   0.354  0.0108 -0.8491 -0.2803
16026SOL    HW159803  13.190   0.736   0.425  0.3901 -3.7161  0.1999
16026SOL    HW259804  13.326   0.682   0.386  2.2364  1.3473 -1.2321
16027SOL     OW59805   7.075   7.249   9.482  0.1296 -0.4018  0.4709
16027SOL    HW159806   7.038   7.217   9.399 -0.2238 -2.3952  1.3347
16027SOL    HW259807   7.002   7.295   9.524  0.4683  1.1207 -0.5288
16028SOL     OW59808  13.035  12.174   4.155 -0.7652  0.2495 -0.0341
16028SOL    HW159809  13.027  12.153   4.062 -0.6540  0.7097 -0.1501
16028SOL    HW259810  13.025  12.090   4.199  1.1862 -0.3223 -0.5567
16029SOL     OW59811   4.018  11.912   3.950  0.0533  0.3437  0.5727
16029SOL    HW159812   3.960  11.851   3.904  0.0207  0.5060  0.3968
16029SOL    HW259813   4.031  11.984   3.888  0.0095  0.5636  0.8164
16030SOL     OW59814   7.244   2.464   0.213 -0.1724  0.1191 -0.7941
16030SOL    HW159815   7.311   2.396   0.212  0.8276  1.0836 -1.7316
16030SOL    HW259816   7.167   2.422   0.175  0.0279 -0.8524 -0.1695
16031SOL     OW59817  12.850   6.477   2.569  0.0460 -1.0336 -0.1498
16031SOL    HW159818  12.900   6.499   2.648  0.6711 -1.1798 -0.4949
16031SOL    HW259819  12.917   6.457   2.504 -0.4228  0.3649 -1.1083
16032SOL     OW59820   1.764   9.936   9.499  0.2179 -0.2156 -0.4559
16032SOL    HW159821   1.803   9.952   9.414  0.4403 -1.4971 -0.6176
16032SOL    HW259822   1.683   9.887   9.481  0.3960 -0.7253  0.0619
16033SOL     OW59823   9.010  12.440   7.861  0.0695 -0.1075  0.1704
16033SOL    HW159824   9.059  12.364   7.893 -0.0209 -0.1226  0.2725
16033SOL    HW259825   8.933  12.402   7.817 -0.1716 -0.0650  0.5479
16034SOL     OW59826   0.482   9.073   2.258  0.2348  0.5921  0.2573
16034SOL    HW159827   0.446   9.013   2.194 -1.0538  0.2089  1.2963
16034SOL    HW259828   0.568   9.037   2.279 -0.3370 -0.6496  0.5363
16035SOL     OW59829  12.585   7.893   9.835  0.7086 -0.2080 -0.1229
16035SOL    HW159830  12.606   7.805   9.804  1.3538 -0.0949 -0.0211
16035SOL    HW259831  12.499   7.911   9.798  0.7353 -0.7351 -0.4569
16036SOL     OW59832   0.578  12.633   9.047 -0.2751  0.4399  0.3311
16036SOL    HW159833   0.558  12.715   9.003  0.1043 -0.5896 -1.9555
16036SOL    HW259834   0.671  12.618   9.027 -0.3689 -0.5868  0.6104
16037SOL     OW59835   8.622   8.193   9.237  0.0329 -0.6451 -0.2004
16037SOL    HW159836   8.528   8.210   9.228 -0.6052 -2.4535  2.0379
16037SOL    HW259837   8.628   8.127   9.307  2.8915 -1.6001 -1.1912
16038SOL     OW59838  10.824  12.979  12.110 -0.3336 -0.1843 -0.0447
16038SOL    HW159839  10.898  13.008  12.163  0.8583 -2.4676 -0.3525
16038SOL    HW259840  10.863  12.939  12.033 -1.8930 -1.1566 -0.3780
16039SOL     OW59841  10.216   0.901  11.461 -0.2085  0.0522 -0.1490
16039SOL    HW159842  10.257   0.830  11.412  1.2563  0.6889  0.1005
16039SOL    HW259843  10.122   0.881  11.458  0.1873 -2.1617  0.3477
16040SOL     OW59844   4.204   8.765  12.116  0.2715 -0.4675  0.0937
16040SOL    HW159845   4.202   8.764  12.211 -0.8839  1.8518  0.1606
16040SOL    HW259846   4.112   8.766  12.090  0.3651  3.7747 -0.7844
16041SOL     OW59847  11.572   8.732   8.556 -0.4534  0.6714  0.2014
16041SOL    HW159848  11.485   8.760   8.529 -0.0020 -0.4579 -2.7629
16041SOL    HW259849  11.559   8.645   8.593 -0.4173 -0.5755 -2.4894
16042SOL     OW59850   9.974   8.541  12.177 -0.5784  0.1962  0.0768
16042SOL    HW159851   9.903   8.490  12.139 -1.6710  0.3551  1.7901
16042SOL    HW259852   9.970   8.626  12.132 -0.2741 -0.3925 -1.1008
16043SOL     OW59853   1.143   7.264   5.244 -0.1151  0.0486 -0.0753
16043SOL    HW159854   1.078   7.321   5.288  1.1914 -0.0803  2.1866
16043SOL    HW259855   1.181   7.320   5.177 -1.6210  0.5457 -0.5712
16044SOL     OW59856   0.279  13.611   3.344 -0.0116 -0.5728 -0.3142
16044SOL    HW159857   0.310  13.572   3.262 -0.8109  0.1185 -0.9667
16044SOL    HW259858   0.257  13.537   3.400  2.2187 -1.1008 -0.0290
16045SOL     OW59859   0.764   2.519   2.196  0.4541 -0.1076 -0.2709
16045SOL    HW159860   0.670   2.533   2.186  0.1570 -2.1030 -0.6764
16045SOL    HW259861   0.785   2.450   2.133  1.3775 -2.5782  2.5136
16046SOL     OW59862  12.727   2.846   2.148 -0.3992 -0.1961 -0.1816
16046SOL    HW159863  12.670   2.904   2.198  1.0095 -0.7796  2.2694
16046SOL    HW259864  12.813   2.889   2.150 -0.4077  0.1196 -2.8239
16047SOL     OW59865   1.343   3.294   9.538  0.0252  0.5841  0.0653
16047SOL    HW159866   1.256   3.284   9.499 -0.0186  0.1400  0.2649
16047SOL    HW259867   1.403   3.256   9.474  0.1214  1.2594 -0.2562
16048SOL     OW59868   3.423  13.191   7.434  0.0430 -0.4659  0.1358
16048SOL    HW159869   3.403  13.196   7.341 -1.7915 -0.2821  0.5033
16048SOL    HW259870   3.443  13.281   7.459 -0.5062 -0.3339  0.1162
16049SOL     OW59871   9.098   4.482   2.477 -0.0023  0.7407 -0.5222
16049SOL    HW159872   9.158   4.425   2.429  0.3477 -0.1063  0.8657
16049SOL    HW259873   9.032   4.423   2.511  0.0343  1.2469  0.4435
16050SOL     OW59874  12.482  13.162  10.242 -0.6869  0.1734  0.2456
16050SOL    HW159875  12.407  13.217  10.262  0.6214  2.4191 -0.6554
16050SOL    HW259876  12.444  13.077  10.218 -2.9027  1.1719  0.0068
16051SOL     OW59877   0.219   3.189   5.066  0.3459 -0.1699  0.5398
16051SOL    HW159878   0.278   3.263   5.051 -0.8698  0.3578 -2.2029
16051SOL    HW259879   0.277   3.115   5.082  1.6921  0.7438  0.0364
16052SOL     OW59880   0.159   7.175   9.644  0.0288 -0.6400 -0.0228
16052SOL    HW159881   0.077   7.158   9.690 -0.3359  0.4883 -0.2381
16052SOL    HW259882   0.213   7.221   9.708 -0.5807  1.1850 -0.7690
16053SOL     OW59883   9.161   1.459   5.552 -0.5736 -0.0539 -0.6262
16053SOL    HW159884   9.079   1.490   5.513  0.2159  1.9263 -0.8481
16053SOL    HW259885   9.174   1.517   5.627 -0.5729 -1.9206  0.8984
16054SOL     OW59886  10.302   9.451   1.325  0.7852 -0.0118 -0.1515
16054SOL    HW159887  10.377   9.493   1.283  0.5321  0.5183 -0.0804
16054SOL    HW259888  10.307   9.360   1.297  1.7899 -0.1197  0.3262
16055SOL     OW59889   7.236  12.124  12.047 -0.4905 -0.0891 -0.0233
16055SOL    HW159890   7.163  12.158  12.099  0.1798  1.2924  0.0607
16055SOL    HW259891   7.195  12.072  11.978 -1.6170  1.4469 -0.5564
16056SOL     OW59892   4.061   9.484  10.949  0.2157 -0.1166  0.0759
16056SOL    HW159893   4.097   9.405  10.991  1.5680 -0.2461 -1.2090
16056SOL    HW259894   4.109   9.556  10.990 -1.2204  0.1146  1.4524
16057SOL     OW59895  12.020   1.152  10.510 -0.0087  0.3887 -0.4467
16057SOL    HW159896  11.982   1.240  10.500 -1.7650 -0.1693  0.7445
16057SOL    HW259897  11.962   1.095  10.460 -0.8664 -0.5111  1.4850
16058SOL     OW59898   3.807  13.372   5.370 -0.1824  0.1750 -0.1194
16058SOL    HW159899   3.732  13.423   5.339 -1.0836 -0.7787  0.4484
16058SOL    HW259900   3.877  13.437   5.382 -1.9264  1.7436  2.7645
16059SOL     OW59901   0.316   0.720   8.245  0.3100  0.6602  0.2026
16059SOL    HW159902   0.226   0.695   8.266  0.4036  0.0469 -0.1148
16059SOL    HW259903   0.329   0.691   8.155  1.0424  0.1362  0.4662
16060SOL     OW59904   8.541   0.024   8.802  0.6900  0.5560 -0.0010
16060SOL    HW159905   8.521  -0.039   8.871 -2.5514  0.9446 -0.4621
16060SOL    HW259906   8.550   0.108   8.849  1.5329  0.3500  0.2270
16061SOL     OW59907  10.944   5.516   0.802  0.0714  0.0065 -0.7132
16061SOL    HW159908  10.854   5.543   0.783 -0.5315 -1.3837  0.0439
16061SOL    HW259909  10.943   5.421   0.795  1.5110 -0.0257 -0.7810
16062SOL     OW59910  10.419   9.693   0.737 -0.1687  0.2063  0.8527
16062SOL    HW159911  10.385   9.726   0.821  1.3768  0.4398  1.4246
16062SOL    HW259912  10.450   9.771   0.692  2.6051 -0.2382  1.7923
16063SOL     OW59913  11.046   9.309  12.740  0.1498 -0.3451  0.1807
16063SOL    HW159914  11.105   9.241  12.706 -0.3098 -1.2387  1.1111
16063SOL    HW259915  11.060   9.308  12.835  2.7234  3.3391 -0.0070
16064SOL     OW59916   1.410   6.646   3.388  0.3275  0.2664  0.5330
16064SOL    HW159917   1.370   6.712   3.445 -2.7069 -1.4578  0.6156
16064SOL    HW259918   1.418   6.568   3.443  2.3787  0.0611  0.0196
16065SOL     OW59919   0.065   4.783   2.987 -0.6448 -0.5443 -0.0384
16065SOL    HW159920   0.073   4.739   3.071 -0.0676 -1.5685 -0.6036
16065SOL    HW259921   0.105   4.869   3.001  0.5467 -1.1498  0.4304
16066SOL     OW59922  12.219  10.665   2.422  0.4605  0.4480  0.1347
16066SOL    HW159923  12.239  10.576   2.394  0.8444 -0.1380  2.1072
16066SOL    HW259924  12.222  10.661   2.517 -0.0162  2.4707  0.2750
16067SOL     OW59925   9.968   7.328   6.704 -0.1549  0.5217  0.6658
16067SOL    HW159926   9.941   7.255   6.761 -1.8926  1.2259  0.7935
16067SOL    HW259927   9.886   7.370   6.679  0.6796  1.1154 -1.2078
16068SOL     OW59928   7.694   5.960   5.891 -0.0168  0.3738  0.0459
16068SOL    HW159929   7.711   6.023   5.961  2.5357  2.5558 -2.3091
16068SOL    HW259930   7.738   5.880   5.920  0.8561  1.1822  1.0430
16069SOL     OW59931   1.140  11.538   1.767  0.6537 -0.1312  0.5224
16069SOL    HW159932   1.076  11.536   1.838 -0.7201  1.0120 -0.6309
16069SOL    HW259933   1.148  11.630   1.744  4.8084  0.1572  2.3851
16070SOL     OW59934  12.323  10.454   8.207  0.0631  0.1959 -0.3167
16070SOL    HW159935  12.417  10.466   8.197  0.3145 -1.5603 -0.2492
16070SOL    HW259936  12.292  10.428   8.121 -0.0282 -1.1785  0.1165
16071SOL     OW59937   7.453   1.830   5.553 -0.0676  0.2529  0.5246
16071SOL    HW159938   7.386   1.855   5.617  0.3262 -0.9151  1.4255
16071SOL    HW259939   7.404   1.808   5.474 -0.6625  0.3706  0.8568
16072SOL     OW59940  12.100  12.802  11.863 -0.1085  0.2124 -0.2973
16072SOL    HW159941  12.021  12.856  11.866  0.3648  0.8919  0.1253
16072SOL    HW259942  12.076  12.728  11.807 -0.7081  0.9547 -1.0516
16073SOL     OW59943  11.208  11.676   9.369  0.1577  0.0776 -0.1387
16073SOL    HW159944  11.144  11.710   9.307 -0.0367 -0.3850 -0.1890
16073SOL    HW259945  11.181  11.586   9.386  2.3861 -1.1304 -2.3667
16074SOL     OW59946  10.960   2.450   0.720  0.1956 -0.3481  0.1573
16074SOL    HW159947  10.982   2.480   0.808  1.2351 -1.2357  0.2180
16074SOL    HW259948  10.983   2.357   0.720 -0.7913 -0.6109 -0.7320
16075SOL     OW59949   1.099   6.344   0.352 -0.2353 -0.7398  0.4403
16075SOL    HW159950   1.094   6.381   0.440  0.2182 -0.4510  0.3461
16075SOL    HW259951   1.055   6.408   0.296 -0.3790 -0.8471  0.4269
16076SOL     OW59952   8.214   7.206  12.359  0.3664 -0.0371  0.1155
16076SOL    HW159953   8.284   7.197  12.294  1.3072 -0.1760  1.1284
16076SOL    HW259954   8.199   7.118  12.391  0.3105  0.1167  0.5132
16077SOL     OW59955   2.211   3.532  10.506  0.5746  0.6242  1.0776
16077SOL    HW159956   2.246   3.537  10.417  2.6530  2.4188  1.8888
16077SOL    HW259957   2.194   3.623  10.530  1.9602  0.4064  3.1684
16078SOL     OW59958   0.268   1.365  12.364 -0.3247 -0.5523  0.4281
16078SOL    HW159959   0.302   1.278  12.385 -1.7792 -1.9835 -2.5491
16078SOL    HW259960   0.206   1.385  12.434  0.2070 -1.7939  1.2805
16079SOL     OW59961  11.633  10.400   9.331 -0.0435 -0.2828  0.5329
16079SOL    HW159962  11.669  10.360   9.252  0.8758 -1.8111  1.6472
16079SOL    HW259963  11.544  10.366   9.337 -0.7831  1.2985 -0.7653
16080SOL     OW59964  12.247   1.894   1.570 -0.2166  0.1067 -0.1412
16080SOL    HW159965  12.180   1.833   1.603 -1.1573  0.6123 -1.0594
16080SOL    HW259966  12.316   1.891   1.636 -1.8480  0.7758  1.7255
16081SOL     OW59967  10.306   2.165   0.255  0.3584 -0.0699 -0.0217
16081SOL    HW159968  10.309   2.259   0.269  0.3721 -0.2757  1.5429
16081SOL    HW259969  10.241   2.153   0.186 -0.5342  1.0113  0.5931
16082SOL     OW59970  12.955  13.170   7.132  0.0759  0.1092  0.3175
16082SOL    HW159971  12.886  13.110   7.104  1.9020 -2.7217  1.4992
16082SOL    HW259972  12.972  13.225   7.056 -2.3419 -0.1752 -0.4996
16083SOL     OW59973   1.158   3.415   1.575 -0.1666  0.0037  0.4850
16083SOL    HW159974   1.235   3.404   1.631 -0.2971  0.9536  0.8729
16083SOL    HW259975   1.176   3.496   1.526 -0.0743 -0.7835 -0.8298
16084SOL     OW59976   9.373   0.346   2.022  0.7552 -0.2012 -0.3663
16084SOL    HW159977   9.305   0.414   2.020  1.0770  0.1123 -1.1668
16084SOL    HW259978   9.442   0.383   2.077  0.4594 -0.3489  0.1107
16085SOL     OW59979   7.904   2.055   6.006 -0.2543 -0.4222 -0.1214
16085SOL    HW159980   7.875   1.982   5.952 -0.0385 -0.7402  0.1890
16085SOL    HW259981   7.997   2.065   5.985 -0.0764 -0.7918  0.4593
16086SOL     OW59982   9.730   1.508   7.271  0.3318  0.0079 -0.0524
16086SOL    HW159983   9.766   1.587   7.230 -0.2908  0.7337  0.7746
16086SOL    HW259984   9.693   1.458   7.198 -0.4157  1.0976 -0.4441
16087SOL     OW59985   2.508   6.856  12.014  0.3791 -0.2408  0.3212
16087SOL    HW159986   2.517   6.798  12.090  0.1570  0.2263  0.7130
16087SOL    HW259987   2.473   6.800  11.945 -0.4153 -0.4423  0.8748
16088SOL     OW59988   6.259   7.003   3.999  0.3143 -0.3646  0.0989
16088SOL    HW159989   6.252   7.077   4.061  0.2362  1.1547 -1.6372
16088SOL    HW259990   6.272   6.927   4.055  0.2833  0.9362  1.9953
16089SOL     OW59991   2.690   7.082   9.801  0.1403  0.0912 -0.2884
16089SOL    HW159992   2.685   7.111   9.710  1.8831  3.4467  0.5280
16089SOL    HW259993   2.599   7.063   9.825 -0.6868  1.5403 -2.0508
16090SOL     OW59994   6.560   6.277  13.070  0.5495  0.5450 -0.2366
16090SOL    HW159995   6.483   6.220  13.071  1.6241 -1.0029 -0.9002
16090SOL    HW259996   6.533   6.353  13.019 -2.2007  2.6765  3.8743
16091SOL     OW59997  13.719   3.949   4.099  0.3993  0.2567  0.0234
16091SOL    HW159998  13.675   3.947   4.014 -0.4497  0.2272  0.4536
16091SOL    HW259999  13.798   3.898   4.086 -1.0803 -2.1567 -0.0208
16092SOL     OW60000   9.509   6.902   4.779  0.2849 -0.0754 -0.3162
16092SOL    HW160001   9.475   6.873   4.695 -0.5344  0.0801 -0.0442
16092SOL    HW260002   9.461   6.850   4.844 -0.5378  1.1974  0.1383
16093SOL     OW60003  13.062   8.153   4.774  0.2133  0.4698  0.6161
16093SOL    HW160004  13.019   8.068   4.789 -2.5006  1.5481 -0.3395
16093SOL    HW260005  13.146   8.145   4.818 -0.2426 -2.4463  1.2108
16094SOL     OW60006  11.579   3.621  12.665  0.9846 -0.1940 -0.0998
16094SOL    HW160007  11.661   3.609  12.714  0.7272 -1.2041  0.1181
16094SOL    HW260008  11.541   3.533  12.662  0.3691  0.0950 -1.0181
16095SOL     OW60009  12.480   0.348  13.046  0.1624  0.1592  0.0894
16095SOL    HW160010  12.502   0.334  13.138 -1.7515  3.5042  1.2341
16095SOL    HW260011  12.559   0.388  13.008  0.3512  0.4179  0.7470
16096SOL     OW60012   7.172   3.052   2.721  0.7344  0.6329  0.8233
16096SOL    HW160013   7.265   3.064   2.738  0.7457  1.5776  0.1760
16096SOL    HW260014   7.163   2.959   2.701  1.7084  0.7211 -0.0881
16097SOL     OW60015  12.268  10.584   5.579  0.0154 -0.0326 -0.2635
16097SOL    HW160016  12.263  10.493   5.551  0.7233 -0.1387 -0.0707
16097SOL    HW260017  12.356  10.611   5.556 -0.0193  0.4447  0.1557
16098SOL     OW60018  13.717   3.020   5.141 -0.2592 -0.1452 -0.0726
16098SOL    HW160019  13.795   3.074   5.123 -0.3503  0.4786  1.2745
16098SOL    HW260020  13.644   3.081   5.136 -0.6627 -0.6809 -1.0705
16099SOL     OW60021   3.872   4.919  11.063  0.5768  0.5322  0.0679
16099SOL    HW160022   3.789   4.953  11.028  1.0243  0.8249 -0.7273
16099SOL    HW260023   3.925   4.901  10.986  1.9728  2.1556  0.5950
16100SOL     OW60024  10.896   2.551   4.202 -0.0133 -0.1387 -0.0535
16100SOL    HW160025  10.960   2.481   4.210  0.9694  0.8296  0.9903
16100SOL    HW260026  10.916   2.593   4.118 -0.9378 -1.3843 -0.9273
16101SOL     OW60027   5.239   6.844   9.001  0.0283 -0.3687  0.0604
16101SOL    HW160028   5.284   6.772   9.046 -0.1048 -0.1746  0.5069
16101SOL    HW260029   5.237   6.817   8.909 -0.2805 -1.0783  0.2679
16102SOL     OW60030  13.020   2.804   7.453  0.2161  0.1978 -0.1501
16102SOL    HW160031  12.966   2.762   7.386 -1.2886  2.4818 -0.5096
16102SOL    HW260032  13.088   2.849   7.404  1.0628 -0.7542  0.1320
16103SOL     OW60033   2.936   5.065   5.776 -0.2642 -0.2793 -0.0591
16103SOL    HW160034   2.912   5.099   5.690  0.6647  0.8867  0.1301
16103SOL    HW260035   2.859   5.080   5.831 -0.5236 -0.1927 -0.4475
16104SOL     OW60036   5.207   0.603  11.619  0.2582  0.3185  0.1134
16104SOL    HW160037   5.242   0.555  11.544  0.9810 -1.1864  1.3567
16104SOL    HW260038   5.125   0.641  11.587 -0.0157 -1.2236 -1.1336
16105SOL     OW60039   7.349  13.495   8.485 -0.0635 -0.3571 -0.1004
16105SOL    HW160040   7.442  13.478   8.497  0.5167  2.6648  0.5928
16105SOL    HW260041   7.316  13.508   8.574 -1.0356 -0.7860 -0.3841
16106SOL     OW60042   2.265   0.579   9.706  0.1819 -0.0022  0.2368
16106SOL    HW160043   2.204   0.628   9.761 -0.0929 -0.3150  0.2174
16106SOL    HW260044   2.211   0.512   9.664  0.1530  0.9860 -1.3833
16107SOL     OW60045   6.724   3.925   7.458 -0.8630  0.1780  0.2633
16107SOL    HW160046   6.755   3.904   7.547  1.0030 -2.6010 -0.8951
16107SOL    HW260047   6.647   3.869   7.446 -0.7304  0.0677 -0.0856
16108SOL     OW60048   4.356   8.454   5.986  0.3546 -0.4818 -0.2634
16108SOL    HW160049   4.303   8.530   5.962 -1.3802 -0.7231  2.4267
16108SOL    HW260050   4.446   8.480   5.966 -0.4568  1.0228 -2.3463
16109SOL     OW60051   7.095  12.120   3.176 -0.6156  0.3737  0.1084
16109SOL    HW160052   7.128  12.056   3.240 -0.3111 -0.3079 -0.7026
16109SOL    HW260053   7.124  12.205   3.210  2.9203 -0.2238 -1.0294
16110SOL     OW60054   9.705  12.637  13.284 -0.2033  0.5204  0.1360
16110SOL    HW160055   9.738  12.550  13.304 -0.2915  0.4848  0.1272
16110SOL    HW260056   9.678  12.632  13.192 -0.5967  0.4376  0.2553
16111SOL     OW60057   0.462   4.849   3.642 -0.7755 -0.3355  0.6786
16111SOL    HW160058   0.437   4.935   3.676 -1.6530 -0.4372  0.3116
16111SOL    HW260059   0.558   4.850   3.644 -0.7606  0.8134  0.2914
16112SOL     OW60060  11.755   7.399   5.182 -0.2985 -0.4266 -0.2510
16112SOL    HW160061  11.803   7.467   5.136 -0.3541 -0.6276 -0.6048
16112SOL    HW260062  11.699   7.447   5.244 -0.1693 -0.1641 -0.3364
16113SOL     OW60063   6.262  10.215   3.544  0.0985 -0.4959 -0.1147
16113SOL    HW160064   6.281  10.225   3.451  0.0710 -0.7321 -0.1445
16113SOL    HW260065   6.235  10.303   3.572  0.2739 -0.3845 -0.2897
16114SOL     OW60066   3.875   0.747   1.784 -0.0296 -0.6913 -0.0648
16114SOL    HW160067   3.956   0.795   1.768 -0.2809 -0.2249  0.0487
16114SOL    HW260068   3.806   0.807   1.758 -0.4502 -0.0987  2.2014
16115SOL     OW60069   0.455  13.077  10.918  0.1777 -0.3675 -0.3332
16115SOL    HW160070   0.489  13.016  10.853  1.7306 -0.9813  0.9657
16115SOL    HW260071   0.510  13.155  10.908  0.4736 -0.4901  0.2405
16116SOL     OW60072   8.541   1.174  10.815  0.3394 -0.2394  0.0489
16116SOL    HW160073   8.505   1.155  10.901 -2.2401  0.0514 -0.8671
16116SOL    HW260074   8.473   1.225  10.771  0.7501 -1.8410 -2.7517
16117SOL     OW60075  12.638  10.306  13.025  0.2361  0.3470 -0.0693
16117SOL    HW160076  12.576  10.311  13.098  0.4899  1.0416  0.1097
16117SOL    HW260077  12.692  10.384  13.035  1.3967 -0.4432  0.0047
16118SOL     OW60078   5.167   5.328   5.665  0.2655 -0.5400  0.3331
16118SOL    HW160079   5.176   5.334   5.570  1.3704 -1.1137  0.3882
16118SOL    HW260080   5.076   5.352   5.681  0.2646  0.3115 -0.7966
16119SOL     OW60081  11.466  13.544   6.880  0.1078 -0.0707 -0.1921
16119SOL    HW160082  11.529  13.486   6.836 -1.0256 -0.7695 -0.9661
16119SOL    HW260083  11.479  13.526   6.973  2.6139  1.4899 -0.1535
16120SOL     OW60084   2.129   0.514   1.350 -0.6523  0.0276 -0.6735
16120SOL    HW160085   2.135   0.608   1.333 -0.6061 -0.0328 -1.0073
16120SOL    HW260086   2.093   0.478   1.269 -1.4283 -0.1493 -0.2550
16121SOL     OW60087   4.464   0.909   9.338  0.0819  0.2221 -0.0772
16121SOL    HW160088   4.534   0.959   9.379 -1.0854  0.9878  1.0657
16121SOL    HW260089   4.488   0.817   9.354  0.8595  0.4731  0.2405
16122SOL     OW60090  13.524   4.562   1.577  0.5521  0.2611  0.7127
16122SOL    HW160091  13.478   4.556   1.494  1.9792 -1.0796 -0.0379
16122SOL    HW260092  13.566   4.648   1.576  0.1210  0.4679  0.3049
16123SOL     OW60093   1.632   3.805  13.172  0.0093 -0.3758 -0.1091
16123SOL    HW160094   1.561   3.859  13.137 -0.4010 -0.4737  0.5474
16123SOL    HW260095   1.624   3.814  13.267  1.1035 -0.1068 -0.0296
16124SOL     OW60096   2.791   2.542   4.334 -0.2308  0.1308 -0.1316
16124SOL    HW160097   2.772   2.452   4.363  0.7502  0.1672  0.6582
16124SOL    HW260098   2.817   2.532   4.242  1.1490 -0.5757  0.3094
16125SOL     OW60099   9.707   4.246  10.128  0.1398  0.0657  0.1950
16125SOL    HW160100   9.763   4.267  10.053 -0.5876  1.9177  0.0974
16125SOL    HW260101   9.657   4.170  10.100  1.5181 -0.7065 -0.2813
16126SOL     OW60102  10.686   1.059   8.633 -0.4004  0.2127 -0.0526
16126SOL    HW160103  10.618   1.100   8.685 -0.6600  0.9727 -0.9652
16126SOL    HW260104  10.677   1.098   8.546  1.8034  1.0403  0.0336
16127SOL     OW60105   3.200   1.657  10.545  0.1239 -0.5872  0.1833
16127SOL    HW160106   3.144   1.664  10.467  1.2451 -1.8271 -0.7980
16127SOL    HW260107   3.153   1.598  10.603 -0.7896  0.4550  0.5322
16128SOL     OW60108   6.322  13.086   0.081 -0.0272  0.4614 -0.9137
16128SOL    HW160109   6.366  13.007   0.050  0.8679  1.0498 -1.1815
16128SOL    HW260110   6.302  13.135   0.001  0.2212  0.9161 -0.7011
16129SOL     OW60111  11.323  13.486   3.951 -0.0865 -0.5741  0.3427
16129SOL    HW160112  11.381  13.450   3.884 -1.0700 -0.9013 -0.3538
16129SOL    HW260113  11.331  13.581   3.941  0.9617 -0.6021  0.8223
16130SOL     OW60114   7.239   5.061  10.783 -0.1955  0.3658  0.0978
16130SOL    HW160115   7.172   4.993  10.772 -0.0690  0.2033  0.3290
16130SOL    HW260116   7.189   5.142  10.798 -0.4084  0.6863 -2.0055
16131SOL     OW60117   8.876   3.674   4.408 -0.5788  0.4181 -0.1374
16131SOL    HW160118   8.921   3.746   4.452 -1.5116 -0.7414  2.9598
16131SOL    HW260119   8.797   3.659   4.460 -1.0483 -2.0200 -1.4026
16132SOL     OW60120   0.399   8.683   9.513  0.0407 -0.4237  0.1259
16132SOL    HW160121   0.493   8.685   9.530  0.0139 -0.8636  0.3497
16132SOL    HW260122   0.367   8.769   9.543  0.0863 -0.9565  1.8467
16133SOL     OW60123   4.588   0.613   0.387 -0.3209 -0.3848  0.4934
16133SOL    HW160124   4.506   0.628   0.339 -0.9984 -1.0148  1.4023
16133SOL    HW260125   4.564   0.628   0.479  0.9099  0.6671  0.6665
16134SOL     OW60126  10.698   9.116  13.490 -0.1240  0.2441  0.4948
16134SOL    HW160127  10.732   9.128  13.579 -0.5915  0.2556  0.6780
16134SOL    HW260128  10.685   9.022  13.482  0.9090  0.1239  0.0557
16135SOL     OW60129   7.398   1.176   8.343 -0.3045  0.4923 -0.0610
16135SOL    HW160130   7.478   1.132   8.373 -0.6474  0.1559  0.3666
16135SOL    HW260131   7.426   1.265   8.322  0.3197  0.1923 -0.5470
16136SOL     OW60132  11.766  10.253   6.143  0.0378 -0.2761  0.1307
16136SOL    HW160133  11.737  10.325   6.199  0.5855 -0.5707  0.8227
16136SOL    HW260134  11.733  10.175   6.187 -4.3901 -0.4141 -2.8430
16137SOL     OW60135   2.457   8.509   2.293  0.0313 -0.2304 -0.3503
16137SOL    HW160136   2.439   8.594   2.333 -1.5004 -0.5256 -0.3483
16137SOL    HW260137   2.477   8.451   2.366 -0.3325 -0.1934 -0.2189
16138SOL     OW60138   9.615   1.911   2.300 -0.0844 -0.6331 -0.1941
16138SOL    HW160139   9.645   1.827   2.334  0.8303 -0.2294  0.0418
16138SOL    HW260140   9.656   1.918   2.214  1.7159  0.5277  0.6815
16139SOL     OW60141   5.654   7.240   9.283 -0.2099 -0.2005  0.2098
16139SOL    HW160142   5.611   7.256   9.199 -0.0421 -0.5979  0.0464
16139SOL    HW260143   5.697   7.323   9.304  1.3950 -0.6364 -1.0688
16140SOL     OW60144  11.994  11.117   6.385  0.5234 -0.0221  0.2605
16140SOL    HW160145  11.965  11.208   6.395 -1.1590 -0.5970  0.9727
16140SOL    HW260146  12.023  11.091   6.472 -0.9548 -0.7615  0.5703
16141SOL     OW60147   0.123   4.807  11.855 -0.4692  0.9254  0.3799
16141SOL    HW160148   0.086   4.865  11.921 -0.4132  1.5794 -0.1541
16141SOL    HW260149   0.194   4.857  11.815  0.2667  0.1068  0.6113
16142SOL     OW60150   9.356  11.848  10.860  0.3514  0.2668 -0.3704
16142SOL    HW160151   9.424  11.874  10.922 -1.6707  1.9428  1.3034
16142SOL    HW260152   9.329  11.930  10.819 -3.1378  0.3993  1.7698
16143SOL     OW60153   1.358   7.923  11.922  0.5647 -0.3220 -0.2803
16143SOL    HW160154   1.432   7.914  11.862  1.4937  1.0844  0.6116
16143SOL    HW260155   1.324   8.011  11.905  0.3946 -0.1806  0.7493
16144SOL     OW60156   8.270   9.528  12.546  0.5228  0.0883  0.7630
16144SOL    HW160157   8.236   9.552  12.460 -0.8727  1.7939  1.7201
16144SOL    HW260158   8.364   9.548  12.541  0.8865 -1.7160 -0.9281
16145SOL     OW60159   8.667   3.089   6.037  0.4474  0.0854  0.0600
16145SOL    HW160160   8.623   3.165   5.998  2.3759  1.3663  0.2049
16145SOL    HW260161   8.722   3.054   5.966  0.7434 -0.2048  0.4251
16146SOL     OW60162   3.417   0.847   2.797 -0.5927  0.1741  0.8886
16146SOL    HW160163   3.367   0.783   2.746 -1.1459  2.5933 -1.8749
16146SOL    HW260164   3.352   0.912   2.823  0.4297  1.2380  0.8535
16147SOL     OW60165  11.271   8.291   7.599  0.0561  0.2438 -0.1005
16147SOL    HW160166  11.215   8.318   7.526  2.1013 -0.4347 -2.0730
16147SOL    HW260167  11.258   8.196   7.604 -1.0210  0.4442  1.3199
16148SOL     OW60168   1.838   3.407   0.309  0.3053 -0.2056 -0.1200
16148SOL    HW160169   1.823   3.483   0.252  1.2275 -1.2836 -1.9034
16148SOL    HW260170   1.774   3.343   0.281  0.4305 -0.5793  0.4349
16149SOL     OW60171  12.431   2.079   0.908 -0.2102  0.1790  0.4246
16149SOL    HW160172  12.371   2.094   0.981 -1.3101 -2.0468  0.0661
16149SOL    HW260173  12.374   2.058   0.834  0.9454  0.0473 -0.4562
16150SOL     OW60174   8.050   0.240   7.511 -0.1318  0.0346 -0.8262
16150SOL    HW160175   7.970   0.189   7.498 -0.5826  0.2418  0.8297
16150SOL    HW260176   8.030   0.297   7.585  1.9229 -0.7744  0.4403
16151SOL     OW60177   9.779  10.293   9.394  0.7680 -0.1407 -0.6250
16151SOL    HW160178   9.855  10.239   9.415  0.0324 -0.6066  1.0138
16151SOL    HW260179   9.799  10.379   9.431  0.3373 -0.3917  0.2310
16152SOL     OW60180  10.240   1.185   8.206  0.1783 -0.3464  0.6627
16152SOL    HW160181  10.259   1.253   8.142 -2.8472 -0.3635 -0.4013
16152SOL    HW260182  10.203   1.232   8.281  1.6941 -0.5337  1.5741
16153SOL     OW60183   8.522   3.481   2.222  0.0810  0.2489  0.0461
16153SOL    HW160184   8.459   3.430   2.272 -0.7785  2.1584  1.0283
16153SOL    HW260185   8.517   3.446   2.133 -2.7157  0.6122 -0.0266
16154SOL     OW60186  12.029   5.078   9.329  0.8091 -0.4217  0.4037
16154SOL    HW160187  12.001   5.116   9.245 -1.4004 -0.1232  1.2264
16154SOL    HW260188  12.114   5.039   9.309  1.4491  1.6562 -1.4105
16155SOL     OW60189   2.720   2.130  12.978  0.3271  0.3241 -0.8823
16155SOL    HW160190   2.749   2.197  13.040 -0.8949  0.1278 -0.0751
16155SOL    HW260191   2.702   2.053  13.032 -2.3739  0.6424 -1.2039
16156SOL     OW60192  13.192   6.893   2.099 -0.1485 -0.4201  0.2906
16156SOL    HW160193  13.172   6.876   2.191 -1.4222 -0.0804  0.0963
16156SOL    HW260194  13.118   6.855   2.051 -0.0986  0.4589 -0.5079
16157SOL     OW60195  12.942   2.529   1.871  0.6782  0.3224 -0.4057
16157SOL    HW160196  12.997   2.577   1.933 -2.1146  0.0720  2.4848
16157SOL    HW260197  12.898   2.463   1.924 -3.1645  1.1533 -2.2052
16158SOL     OW60198   8.850  10.576   4.648 -0.2896 -0.2001  0.2803
16158SOL    HW160199   8.913  10.646   4.670  1.2743 -1.0352 -1.2446
16158SOL    HW260200   8.783  10.620   4.597 -0.3016  0.5094  0.8905
16159SOL     OW60201   8.684   4.912   3.834  0.1586 -0.0206 -0.0597
16159SOL    HW160202   8.735   4.931   3.755  1.1226 -0.9588  0.3100
16159SOL    HW260203   8.723   4.832   3.869  0.7032  1.1354  2.1666
16160SOL     OW60204   4.250   4.749  12.353 -0.4154  0.0953 -0.2756
16160SOL    HW160205   4.284   4.748  12.264  0.2269 -0.8329 -0.0256
16160SOL    HW260206   4.258   4.659  12.384 -1.4561  0.2146  0.4166
16161SOL     OW60207  12.438   3.529   8.843  0.3968 -0.2929  0.1412
16161SOL    HW160208  12.459   3.622   8.842 -3.8774  0.8882 -1.1949
16161SOL    HW260209  12.436   3.506   8.936 -1.0888  1.7654  0.6919
16162SOL     OW60210  12.320   1.414   9.953  0.2379  0.2595 -0.3411
16162SOL    HW160211  12.280   1.410   9.866 -0.1667  3.1466 -0.3752
16162SOL    HW260212  12.246   1.416  10.013  0.5051 -0.7651  0.0484
16163SOL     OW60213  11.473   0.780  10.826  0.2600  0.6876 -0.0087
16163SOL    HW160214  11.560   0.805  10.859 -0.5616  0.4546  2.5862
16163SOL    HW260215  11.487   0.694  10.785  1.1532  0.2541  1.1270
16164SOL     OW60216  11.931   6.504   2.730 -0.6024 -0.1830  0.1526
16164SOL    HW160217  11.973   6.555   2.660  3.0500  1.2702  3.0297
16164SOL    HW260218  11.857   6.557   2.758 -0.5436  0.4862 -0.9179
16165SOL     OW60219   3.686  13.131   4.637  0.1089  0.8340  0.2916
16165SOL    HW160220   3.654  13.084   4.714  0.4002  0.6056  0.2735
16165SOL    HW260221   3.767  13.173   4.666  0.4175  0.4413  0.0117
16166SOL     OW60222   4.587   9.541  10.078 -0.5520 -0.2112 -0.1258
16166SOL    HW160223   4.544   9.500  10.153  1.5446 -1.8525  0.2777
16166SOL    HW260224   4.608   9.468  10.020 -0.8344  0.8709 -1.6613
16167SOL     OW60225   8.273   8.555   8.958 -0.3199 -0.3834 -0.1280
16167SOL    HW160226   8.182   8.542   8.934 -0.1253 -0.1079 -1.0556
16167SOL    HW260227   8.321   8.554   8.875  0.8078 -2.6089  0.4580
16168SOL     OW60228  12.449   7.273   5.428 -0.2016  0.2775 -0.1154
16168SOL    HW160229  12.394   7.348   5.404  1.0392  0.2809 -3.3588
16168SOL    HW260230  12.533   7.290   5.386  1.5702 -0.9510  2.6404
16169SOL     OW60231  10.507  10.020  13.240  0.4318  0.1130 -0.3328
16169SOL    HW160232  10.585  10.016  13.184 -0.2430 -1.0551 -1.2235
16169SOL    HW260233  10.542  10.025  13.329  1.5456 -1.3847 -0.6500
16170SOL     OW60234  12.221  13.082  11.121  0.1302  0.1501 -0.5345
16170SOL    HW160235  12.135  13.040  11.122  0.3916 -0.3952 -0.1043
16170SOL    HW260236  12.202  13.175  11.133 -0.4059  0.0466 -0.5339
16171SOL     OW60237  13.648   7.333   6.882  0.1249  0.4826  0.5230
16171SOL    HW160238  13.619   7.273   6.951  0.5452 -1.7017 -1.1039
16171SOL    HW260239  13.567   7.369   6.846 -0.1330  0.9020  1.4846
16172SOL     OW60240  10.982   4.898   8.152 -0.6183 -0.8509 -0.1898
16172SOL    HW160241  11.004   4.956   8.225 -0.3879 -0.1926 -0.7796
16172SOL    HW260242  11.006   4.811   8.184 -0.6838 -0.5974  0.5900
16173SOL     OW60243   9.180   0.129   8.015 -0.4910 -0.6905 -0.0676
16173SOL    HW160244   9.113   0.198   8.017 -0.5064 -0.7224  1.0001
16173SOL    HW260245   9.260   0.173   8.044 -0.2827 -0.8963 -0.3324
16174SOL     OW60246   9.576   7.727   0.744  0.2277 -0.4152  0.0554
16174SOL    HW160247   9.646   7.723   0.809 -0.1292  1.2218  0.5667
16174SOL    HW260248   9.531   7.809   0.761 -2.0073 -1.5251 -0.0913
16175SOL     OW60249   9.788  11.534  12.558  0.4618 -0.1722  0.1607
16175SOL    HW160250   9.826  11.588  12.488 -2.2401 -0.6081 -1.8263
16175SOL    HW260251   9.836  11.452  12.554  2.5481  0.9239  1.1368
16176SOL     OW60252  12.968  10.278   6.783 -0.1284  0.2683  0.4130
16176SOL    HW160253  13.053  10.234   6.776  0.0769  0.6815  0.2200
16176SOL    HW260254  12.919  10.248   6.707  0.1727  0.7053  0.0396
16177SOL     OW60255   5.136  11.320   6.125 -0.1917  0.2250  0.1930
16177SOL    HW160256   5.146  11.226   6.116 -1.0066  0.1399  0.1076
16177SOL    HW260257   5.214  11.357   6.083  0.1007 -0.4026  0.1746
16178SOL     OW60258   8.643   0.477   1.145 -0.1846 -0.0310  0.1285
16178SOL    HW160259   8.679   0.487   1.233  1.3395  1.4503 -0.6013
16178SOL    HW260260   8.666   0.387   1.120 -0.3779 -0.3690  1.1288
16179SOL     OW60261   1.984  10.404   5.093  0.4648  0.1159  1.0679
16179SOL    HW160262   1.954  10.419   5.003  3.7633 -0.8147 -0.3627
16179SOL    HW260263   1.962  10.484   5.140 -2.5477  0.1147 -0.1516
16180SOL     OW60264   3.810   2.187   6.346  0.0301 -0.3092  0.3650
16180SOL    HW160265   3.785   2.140   6.425 -1.3198 -1.7016 -0.8253
16180SOL    HW260266   3.768   2.273   6.355  0.7476 -0.0651  1.5887
16181SOL     OW60267   4.893  11.114  13.686 -0.1007  0.0115 -0.1962
16181SOL    HW160268   4.828  11.180  13.708  0.4268  0.3822  0.2850
16181SOL    HW260269   4.969  11.136  13.741  0.4376 -0.3889 -0.7662
16182SOL     OW60270   7.984   6.556   4.905  0.4506  0.6822 -0.1636
16182SOL    HW160271   8.079   6.566   4.900  0.5946  0.8188  1.8405
16182SOL    HW260272   7.970   6.462   4.908  0.6363  0.6771  0.7947
16183SOL     OW60273   3.754   0.337   6.108  0.0592 -0.2312 -0.1328
16183SOL    HW160274   3.658   0.336   6.104  0.0272  1.5062 -0.7965
16183SOL    HW260275   3.774   0.391   6.185  0.4388  1.4263 -1.3296
16184SOL     OW60276  12.952  11.497   5.403  0.3428 -0.1353 -0.5461
16184SOL    HW160277  12.975  11.588   5.421  0.9906 -0.7076  1.8185
16184SOL    HW260278  12.861  11.489   5.433  0.2349 -0.2634 -0.8946
16185SOL     OW60279   3.140   2.134   2.854  0.4784 -0.3700  0.0578
16185SOL    HW160280   3.174   2.070   2.791  0.5769 -0.3415  0.0829
16185SOL    HW260281   3.136   2.086   2.936 -0.5806 -0.7148 -0.1669
16186SOL     OW60282   1.419   8.211   8.808  0.3834 -0.9011  0.2475
16186SOL    HW160283   1.396   8.127   8.768  0.4957 -0.9064  0.1932
16186SOL    HW260284   1.358   8.221   8.881  0.9382 -1.4470  0.7977
16187SOL     OW60285  11.824   9.040   3.071 -0.1070 -0.2745 -0.0990
16187SOL    HW160286  11.737   9.007   3.051 -0.2835  0.5007 -0.6595
16187SOL    HW260287  11.884   8.971   3.043 -0.5036 -0.4869 -0.4198
16188SOL     OW60288  13.349  11.635   3.410 -0.2655  0.3914  0.1136
16188SOL    HW160289  13.343  11.704   3.345  0.2370  1.0650  0.7662
16188SOL    HW260290  13.442  11.617   3.418 -0.3174  0.3311  0.6551
16189SOL     OW60291  10.327   0.554   1.129  0.0809 -0.4964 -0.2130
16189SOL    HW160292  10.273   0.542   1.051  0.6091  0.2467 -0.7111
16189SOL    HW260293  10.395   0.616   1.102  0.9298 -1.0791  0.5158
16190SOL     OW60294  10.369   6.872  10.379  0.4096 -0.2397  0.4356
16190SOL    HW160295  10.279   6.846  10.358  0.9886 -2.4552  0.4480
16190SOL    HW260296  10.360   6.926  10.457 -0.9142 -0.5646  0.5393
16191SOL     OW60297   2.528  13.627   1.490 -0.0674 -0.3001 -0.2740
16191SOL    HW160298   2.483  13.703   1.528  0.7073  0.0189  0.0365
16191SOL    HW260299   2.576  13.663   1.416  0.1081 -0.5327 -0.2732
16192SOL     OW60300  13.711   6.759  10.148 -0.4827  0.2391 -0.2156
16192SOL    HW160301  13.755   6.842  10.129 -2.8622  1.3165 -1.5278
16192SOL    HW260302  13.716   6.711  10.065  0.6206 -0.8692  0.4521
16193SOL     OW60303  11.976  12.635   3.998 -0.0049 -0.1790 -0.1853
16193SOL    HW160304  11.901  12.584   4.027  0.6818 -0.8545  0.4736
16193SOL    HW260305  11.965  12.720   4.039 -0.9916  0.1080 -1.0209
16194SOL     OW60306  12.387   3.982   5.979  0.0344 -0.0202 -0.1793
16194SOL    HW160307  12.421   3.993   5.890 -1.1096 -1.3122 -0.8092
16194SOL    HW260308  12.424   4.056   6.027  1.4444  0.1962 -1.4825
16195SOL     OW60309   5.814   0.038   3.366 -0.1983 -0.6018  0.6018
16195SOL    HW160310   5.883   0.038   3.433 -0.4361  1.7222  0.9145
16195SOL    HW260311   5.749   0.100   3.399 -1.8560 -1.7787 -0.3075
16196SOL     OW60312   3.423   8.106   9.528  0.3082 -0.2171 -0.8588
16196SOL    HW160313   3.457   8.190   9.500 -0.5726 -0.0166 -1.3719
16196SOL    HW260314   3.474   8.041   9.479  1.8069 -0.0598  0.4182
16197SOL     OW60315   5.018   8.665   8.826 -0.5312  0.0722 -0.5566
16197SOL    HW160316   5.085   8.720   8.787  0.6097 -1.3147 -0.6546
16197SOL    HW260317   4.940   8.681   8.773  0.0721  0.7571 -1.2590
16198SOL     OW60318   7.802   7.020   1.992 -0.0135 -0.1016  0.2199
16198SOL    HW160319   7.728   7.067   1.954 -0.1845 -1.3411 -1.0801
16198SOL    HW260320   7.879   7.066   1.960 -0.1651 -0.9410 -1.4497
16199SOL     OW60321   2.123   8.685   4.128 -0.4260 -0.3768 -0.6902
16199SOL    HW160322   2.151   8.602   4.167  0.3201 -0.0378 -0.4921
16199SOL    HW260323   2.087   8.660   4.042  0.9632 -0.7873 -1.1776
16200SOL     OW60324   5.594   6.682  11.735  0.0358  0.7693  0.4961
16200SOL    HW160325   5.532   6.750  11.712 -0.1341  0.3882 -0.2003
16200SOL    HW260326   5.542   6.617  11.782 -0.4075 -0.1816 -1.2239
16201SOL     OW60327  10.595   6.256   9.816 -0.5919 -0.5311  0.2080
16201SOL    HW160328  10.586   6.328   9.879  0.1000 -1.5163  1.4723
16201SOL    HW260329  10.632   6.298   9.738 -2.2270  0.8557  0.1268
16202SOL     OW60330   8.351   4.156   9.964  0.4821  0.1173  0.1332
16202SOL    HW160331   8.406   4.230   9.986  0.9866 -0.6783  1.6997
16202SOL    HW260332   8.354   4.151   9.869 -0.5777  2.8418 -0.1321
16203SOL     OW60333   7.663   1.110   3.152 -0.3678 -0.4027  0.8030
16203SOL    HW160334   7.721   1.034   3.159  2.4943  1.5889  0.5518
16203SOL    HW260335   7.690   1.153   3.071 -2.1051  0.7787  0.7932
16204SOL     OW60336  10.466  11.426  12.019  0.5304  0.1124  0.0115
16204SOL    HW160337  10.530  11.497  12.026  1.6774 -0.9894  1.4752
16204SOL    HW260338  10.471  11.381  12.103 -2.5835  0.2520  0.3761
16205SOL     OW60339  13.344  12.664   8.737  0.0773  0.0322  0.2947
16205SOL    HW160340  13.326  12.653   8.830 -0.0117  0.6960  0.3614
16205SOL    HW260341  13.403  12.739   8.733  0.6323 -0.4180 -0.1330
16206SOL     OW60342   2.993   5.878   4.398  0.1863 -0.0065 -0.1298
16206SOL    HW160343   3.073   5.928   4.415 -0.2191  0.6006  0.0300
16206SOL    HW260344   2.934   5.940   4.356 -0.5344 -0.1821  0.5850
16207SOL     OW60345   8.731   0.391  11.312 -0.3502 -0.5691 -0.3901
16207SOL    HW160346   8.735   0.440  11.229  0.0609  0.5140  0.2442
16207SOL    HW260347   8.792   0.319  11.300 -0.2771 -0.4150 -1.0263
16208SOL     OW60348   1.275  13.438   9.453 -0.5479  0.0734  0.8849
16208SOL    HW160349   1.260  13.434   9.548 -0.2631 -0.4963  0.9150
16208SOL    HW260350   1.193  13.470   9.417 -0.9857 -0.6018  1.2522
16209SOL     OW60351   5.698   1.242   8.075  0.1931  0.6468  0.3029
16209SOL    HW160352   5.791   1.230   8.055  0.2298  1.0810  0.1964
16209SOL    HW260353   5.688   1.206   8.163  0.7170  1.6808  0.8086
16210SOL     OW60354   1.003   9.063   0.640  0.4498  0.1682  0.0227
16210SOL    HW160355   1.026   8.996   0.576  0.6375  2.3891 -2.4071
16210SOL    HW260356   1.072   9.129   0.632 -1.5962  2.4102 -0.4987
16211SOL     OW60357   2.640  10.526  12.845 -0.0513 -0.7665 -0.4045
16211SOL    HW160358   2.601  10.452  12.797 -1.7510  0.1664 -0.5350
16211SOL    HW260359   2.569  10.590  12.851 -0.2399 -1.0811  4.0196
16212SOL     OW60360   8.698   7.105  12.444  0.7546 -0.4809 -0.2467
16212SOL    HW160361   8.719   7.042  12.375 -0.3840 -0.5287 -0.5713
16212SOL    HW260362   8.617   7.146  12.415  1.5825  1.3080 -0.1464
16213SOL     OW60363  10.694   2.271   7.553  0.4637 -0.3192  0.3450
16213SOL    HW160364  10.651   2.330   7.492  1.3476  0.1593  0.1731
16213SOL    HW260365  10.630   2.201   7.568  0.2567 -0.4947 -1.1801
16214SOL     OW60366   3.157   9.817   1.622 -0.3350  0.4733  1.0247
16214SOL    HW160367   3.134   9.829   1.714 -0.4553 -0.8999  1.2006
16214SOL    HW260368   3.140   9.724   1.605  0.6087  0.4815 -0.1182
16215SOL     OW60369   5.992  13.172   5.047 -0.3160 -0.8727  0.2486
16215SOL    HW160370   6.060  13.237   5.028 -0.1424 -1.1786 -0.1895
16215SOL    HW260371   5.967  13.189   5.138 -0.6992  0.1992 -0.0424
16216SOL     OW60372  13.281   4.089   1.544  0.4062 -0.2265  0.2376
16216SOL    HW160373  13.315   4.150   1.611  2.3920  0.5736 -1.4045
16216SOL    HW260374  13.239   4.146   1.480  0.4175 -0.7868 -0.2695
16217SOL     OW60375   2.983   8.488   0.826  0.2592  0.2290  0.7868
16217SOL    HW160376   3.018   8.576   0.841 -0.1517  0.2759  1.5081
16217SOL    HW260377   2.932   8.469   0.905 -2.2305  0.6005 -0.6427
16218SOL     OW60378   1.621   9.629   2.393  0.3914  0.1301  0.0358
16218SOL    HW160379   1.701   9.664   2.432 -0.1537  0.1434  1.1952
16218SOL    HW260380   1.613   9.674   2.309  1.3195  0.5139  0.1443
16219SOL     OW60381   2.288   2.268   4.008 -0.0414  0.6213 -0.7349
16219SOL    HW160382   2.346   2.197   3.979  0.2634  0.5621  0.0035
16219SOL    HW260383   2.308   2.279   4.101 -1.0209  0.7909 -0.5333
16220SOL     OW60384   9.568   5.568   3.277  0.3942  0.5678  0.3033
16220SOL    HW160385   9.624   5.550   3.352  0.0650  0.6134  0.5613
16220SOL    HW260386   9.487   5.602   3.315 -0.3629 -0.8571  0.0087
16221SOL     OW60387  12.176  12.647   1.450  0.0066 -0.3125  0.0142
16221SOL    HW160388  12.178  12.556   1.420  0.1495 -0.5201  0.6423
16221SOL    HW260389  12.093  12.681   1.418 -0.1428 -0.7265 -0.0446
16222SOL     OW60390   9.713   1.056  12.868 -0.1399 -0.1074  0.2772
16222SOL    HW160391   9.770   1.121  12.829  0.3590 -0.8091 -0.1943
16222SOL    HW260392   9.632   1.061  12.818  0.0978 -0.2283 -0.1269
16223SOL     OW60393   1.575   9.257   7.068  0.2139 -0.3261 -0.0968
16223SOL    HW160394   1.536   9.191   7.010  0.0931 -0.7834  0.4927
16223SOL    HW260395   1.568   9.218   7.156  1.6162 -0.2257  0.0721
16224SOL     OW60396   9.462   1.374   8.975 -0.1904 -0.0377 -0.1339
16224SOL    HW160397   9.443   1.337   9.061  1.1528 -0.3132  0.0628
16224SOL    HW260398   9.501   1.460   8.994 -1.0492  0.4572 -0.5210
16225SOL     OW60399   8.293   5.349  10.816  0.4257  0.3841 -0.1220
16225SOL    HW160400   8.298   5.442  10.793 -0.3888  0.5496  0.3302
16225SOL    HW260401   8.255   5.307  10.738 -0.3734  0.6272  0.1261
16226SOL     OW60402   8.316   9.590   6.876  0.2102  0.1845  0.1897
16226SOL    HW160403   8.311   9.669   6.930 -1.0418  0.8971 -0.8872
16226SOL    HW260404   8.407   9.586   6.848  0.5323  0.6343  1.1204
16227SOL     OW60405   8.863   1.477   7.812 -0.1207  0.8575 -0.4008
16227SOL    HW160406   8.912   1.472   7.895  0.6908  1.1592 -0.8498
16227SOL    HW260407   8.773   1.497   7.839  0.0833  0.7137  0.4200
16228SOL     OW60408   1.205   5.673   0.600  0.3414 -1.0946 -0.1474
16228SOL    HW160409   1.205   5.708   0.511  0.5252 -0.3560  0.1315
16228SOL    HW260410   1.281   5.614   0.602 -0.0688 -1.6495 -0.6735
16229SOL     OW60411   8.136  11.618   9.348 -0.3889 -0.4150 -0.0527
16229SOL    HW160412   8.096  11.536   9.318 -2.2628  0.4845 -0.1458
16229SOL    HW260413   8.082  11.646   9.422  0.8792  0.2026  0.6804
16230SOL     OW60414  10.067   8.740   7.002  0.1257  0.5201 -0.5029
16230SOL    HW160415  10.086   8.722   6.910 -1.1609 -0.4943 -0.6079
16230SOL    HW260416  10.151   8.765   7.039  0.2757  3.4430 -2.4619
16231SOL     OW60417  12.157   9.736   6.277  0.3285  0.0935  0.0104
16231SOL    HW160418  12.242   9.776   6.299  0.9813 -0.8871 -0.6211
16231SOL    HW260419  12.176   9.643   6.273 -1.4421 -0.4939  2.7637
16232SOL     OW60420  11.078   9.221   5.899  0.0334 -0.0074  0.6654
16232SOL    HW160421  11.168   9.227   5.866 -0.0396 -1.3155  0.1806
16232SOL    HW260422  11.036   9.156   5.842 -0.8104 -0.4573  1.7666
16233SOL     OW60423   6.426   3.154   0.104 -0.3141  0.0120  0.0983
16233SOL    HW160424   6.371   3.094   0.154 -0.4173  1.7568  2.2384
16233SOL    HW260425   6.369   3.189   0.036 -0.8370 -0.7408  0.1397
16234SOL     OW60426  11.504   3.849   7.150  0.0004 -0.4823 -0.4115
16234SOL    HW160427  11.597   3.855   7.173  0.1471 -0.3325 -1.0207
16234SOL    HW260428  11.485   3.756   7.149 -0.1312 -0.4802  0.7651
16235SOL     OW60429   1.898   8.332   1.696 -0.2652 -0.3556 -0.0541
16235SOL    HW160430   1.855   8.323   1.611 -0.5726 -1.1322  0.1722
16235SOL    HW260431   1.929   8.244   1.716  0.0262 -0.1235  0.5217
16236SOL     OW60432   6.293  10.055  11.113 -0.5411 -0.5207  0.0121
16236SOL    HW160433   6.319  10.133  11.162 -0.1658 -0.0517 -0.9240
16236SOL    HW260434   6.321   9.982  11.168 -1.2220 -0.0096  1.0718
16237SOL     OW60435   5.170   6.035   9.360 -0.2158 -0.1212  1.1739
16237SOL    HW160436   5.082   6.069   9.344  0.2120  0.8717  0.8393
16237SOL    HW260437   5.222   6.113   9.381  0.4480 -0.7649  2.0035
16238SOL     OW60438   1.433   7.607  10.924 -0.8250 -0.0065 -0.1533
16238SOL    HW160439   1.360   7.657  10.961 -0.6092  0.3046 -0.1446
16238SOL    HW260440   1.466   7.662  10.853 -0.8456 -0.3234 -0.4098
16239SOL     OW60441   4.348   8.518   7.705 -0.2825  0.0124  0.7220
16239SOL    HW160442   4.410   8.482   7.642 -0.3809  0.4488  0.3691
16239SOL    HW260443   4.385   8.496   7.790 -0.7019 -1.5292  0.5237
16240SOL     OW60444   7.712   7.359  10.858 -0.1161 -0.0133  0.5883
16240SOL    HW160445   7.716   7.452  10.835 -2.5454 -0.0544 -0.3525
16240SOL    HW260446   7.676   7.358  10.947  0.0170 -0.0312  0.6410
16241SOL     OW60447   1.096   9.092  10.174  0.0567  0.3446 -0.4125
16241SOL    HW160448   1.055   9.096  10.088 -1.7755  3.7482  0.4298
16241SOL    HW260449   1.070   9.006  10.209 -0.4524 -0.4624 -2.6223
16242SOL     OW60450   8.437   5.030   0.789  0.1169 -0.1101 -0.0892
16242SOL    HW160451   8.490   5.099   0.751 -0.3502 -0.0654 -0.6607
16242SOL    HW260452   8.498   4.981   0.845 -0.0056  2.1019  2.1670
16243SOL     OW60453   5.595  10.190  11.798  0.6260 -0.1458 -0.3968
16243SOL    HW160454   5.642  10.154  11.874 -0.3538 -0.0137  0.2867
16243SOL    HW260455   5.531  10.250  11.836 -0.0873 -0.3182 -1.3093
16244SOL     OW60456   3.508  12.665   2.837  0.4098 -0.3063 -0.4234
16244SOL    HW160457   3.519  12.623   2.752  0.9054 -2.4485  0.6249
16244SOL    HW260458   3.591  12.710   2.852  0.6333 -0.6241 -0.6948
16245SOL     OW60459  10.320  12.507   2.696 -0.0545  0.2745 -0.7537
16245SOL    HW160460  10.348  12.458   2.619 -0.1914 -1.1837  0.1078
16245SOL    HW260461  10.237  12.548   2.669  1.2101  2.0227 -2.2529
16246SOL     OW60462  12.203   2.026   0.715 -0.3282 -0.0761  0.4033
16246SOL    HW160463  12.108   2.019   0.713 -0.5541  2.2518 -1.3721
16246SOL    HW260464  12.232   1.998   0.628  0.5176  0.0790  0.6218
16247SOL     OW60465  12.460   7.106  13.099  0.5536  0.0895  0.2585
16247SOL    HW160466  12.504   7.191  13.094 -1.3852  1.2600  1.6401
16247SOL    HW260467  12.402   7.114  13.175  0.1544 -2.4231  0.2985
16248SOL     OW60468   2.204   3.259   6.873 -0.3377 -0.4423  0.1148
16248SOL    HW160469   2.175   3.349   6.857  0.5502 -0.1115  0.3117
16248SOL    HW260470   2.159   3.233   6.953  1.1868  0.6744  1.3882
16249SOL     OW60471  13.719  11.790   1.568 -0.1006  0.7537  0.0646
16249SOL    HW160472  13.795  11.841   1.541 -0.1835  0.7987 -0.0817
16249SOL    HW260473  13.684  11.753   1.487  1.3059 -1.4354  0.3673
16250SOL     OW60474  10.688   2.520   0.711 -0.1492 -0.1756 -0.4667
16250SOL    HW160475  10.757   2.495   0.650  0.2014 -0.5102  0.0514
16250SOL    HW260476  10.625   2.568   0.658  1.5283  2.0910 -0.5740
16251SOL     OW60477   4.228  12.488   1.867 -0.0927 -0.4535 -0.0713
16251SOL    HW160478   4.257  12.397   1.879 -1.3425 -1.6578 -4.4962
16251SOL    HW260479   4.137  12.489   1.895  0.6258  0.2665  2.5133
16252SOL     OW60480  10.951   6.862   9.896  0.1340  0.3048 -0.0651
16252SOL    HW160481  11.040   6.854   9.863  0.0471 -0.6617 -0.0964
16252SOL    HW260482  10.896   6.840   9.821 -0.0969 -0.3338  0.2841
16253SOL     OW60483  12.060  11.210   5.277 -0.5480  0.6314  0.0563
16253SOL    HW160484  11.977  11.224   5.231 -0.5689  0.1943 -0.0423
16253SOL    HW260485  12.102  11.138   5.229  0.1364  1.2098 -0.2278
16254SOL     OW60486   1.887   5.941   3.227 -0.5259  0.1140 -0.2670
16254SOL    HW160487   1.842   5.870   3.274  0.4962  0.5367  1.4026
16254SOL    HW260488   1.820   6.009   3.217 -0.9657 -0.2907 -0.1303
16255SOL     OW60489  10.151  10.457  11.124  0.1497  0.1757  0.8675
16255SOL    HW160490  10.241  10.426  11.116 -0.5491 -2.3063  1.6612
16255SOL    HW260491  10.158  10.552  11.120  2.4126  0.0903 -2.8569
16256SOL     OW60492  10.993   2.061  12.921 -0.3733 -0.0271  0.3507
16256SOL    HW160493  10.933   2.018  12.862 -0.3969  1.4839 -0.7807
16256SOL    HW260494  10.954   2.147  12.937  0.6890  0.3834  0.8550
16257SOL     OW60495   1.919  10.936   0.079 -0.5702 -0.7325 -0.0110
16257SOL    HW160496   1.863  11.010   0.054 -0.2448 -0.4515  0.0729
16257SOL    HW260497   1.872  10.894   0.151 -1.4857 -1.5147 -1.0324
16258SOL     OW60498  12.653  11.040   9.439  0.3260 -0.3314  0.4596
16258SOL    HW160499  12.656  11.038   9.344  1.6450 -0.4075  0.4850
16258SOL    HW260500  12.572  11.088   9.460 -0.0173 -0.3896 -0.6831
16259SOL     OW60501   8.778   2.123   2.992 -0.1618 -0.0224  0.4723
16259SOL    HW160502   8.711   2.190   3.005 -0.9769 -0.6398 -0.4166
16259SOL    HW260503   8.840   2.163   2.932 -2.0113 -0.8891 -2.2152
16260SOL     OW60504  10.523   7.987   3.013  0.3771 -0.4623 -0.0018
16260SOL    HW160505  10.434   7.952   3.021  0.7091 -1.1284  0.9484
16260SOL    HW260506  10.578   7.925   3.061  1.3438  0.0071 -0.4668
16261SOL     OW60507   0.521  10.435  11.817  0.2841 -0.3205  0.2711
16261SOL    HW160508   0.572  10.488  11.880 -0.2752 -0.0344  0.4871
16261SOL    HW260509   0.561  10.348  11.822  2.1418  0.3853 -1.1224
16262SOL     OW60510  12.781   1.812   4.295 -0.3995  0.2279  0.0766
16262SOL    HW160511  12.752   1.902   4.279  1.0205  0.2917 -2.8791
16262SOL    HW260512  12.875   1.820   4.316 -0.3901 -0.5382  0.3770
16263SOL     OW60513   6.116   8.121  12.029 -0.3747 -0.0595 -0.4200
16263SOL    HW160514   6.115   8.149  11.938 -0.3017 -0.0740 -0.4255
16263SOL    HW260515   6.089   8.029  12.027  1.5631 -0.6560 -0.6328
16264SOL     OW60516   8.890   5.036   8.625  0.1398 -0.4448  0.2578
16264SOL    HW160517   8.817   4.977   8.610  0.4791 -1.4518  2.1664
16264SOL    HW260518   8.861   5.093   8.696  1.1321 -0.8203  1.0028
16265SOL     OW60519   5.752   1.972  11.199 -0.1334  0.2721  0.2749
16265SOL    HW160520   5.825   2.033  11.198 -0.0948  0.2800  1.3898
16265SOL    HW260521   5.767   1.918  11.277 -1.7373  0.8252  1.0094
16266SOL     OW60522  12.651   2.314   4.622  0.1158 -0.4489 -0.1759
16266SOL    HW160523  12.672   2.383   4.685 -0.5147 -0.4929  0.0926
16266SOL    HW260524  12.673   2.352   4.537 -4.5677  2.0744 -0.6441
16267SOL     OW60525   7.347  12.856   7.534 -0.0715  0.4609 -0.2158
16267SOL    HW160526   7.435  12.874   7.568  0.0033 -0.6042  0.1894
16267SOL    HW260527   7.361  12.828   7.444 -0.0094  0.4637 -0.2069
16268SOL     OW60528   6.096  11.164  12.509 -0.2208 -0.1673  0.6257
16268SOL    HW160529   6.033  11.160  12.437 -0.5445  0.4928  0.8591
16268SOL    HW260530   6.155  11.091  12.494  0.2572  0.4804 -0.8240
16269SOL     OW60531   1.591  10.733  11.753 -0.2703  0.0761  0.5317
16269SOL    HW160532   1.558  10.644  11.763 -1.0364  0.4578  1.5423
16269SOL    HW260533   1.601  10.765  11.842 -0.7474  1.2728  0.1801
16270SOL     OW60534   7.492   2.183   1.441  0.2533 -0.2766 -0.5081
16270SOL    HW160535   7.490   2.262   1.388  1.8034 -0.0186 -0.2179
16270SOL    HW260536   7.553   2.124   1.396  0.5701 -0.5646  0.2657
16271SOL     OW60537   8.856   2.620  10.893 -0.3104  0.4333 -0.1067
16271SOL    HW160538   8.772   2.635  10.851 -0.7648 -2.4248 -0.4058
16271SOL    HW260539   8.840   2.638  10.986 -0.8276  1.3118 -0.3550
16272SOL     OW60540  10.403   7.284   3.922  0.6167  0.3001  0.5164
16272SOL    HW160541  10.433   7.374   3.936  1.9026 -0.2914  1.8198
16272SOL    HW260542  10.308   7.292   3.910  0.8907  1.9614 -0.9390
16273SOL     OW60543   9.500   5.226   4.605  0.4310 -0.4248 -0.0661
16273SOL    HW160544   9.481   5.224   4.512 -1.8545  0.4646  0.3166
16273SOL    HW260545   9.583   5.179   4.614  0.5694 -0.7440 -2.4850
16274SOL     OW60546   9.576  11.310   9.732  0.1786  0.2481  0.3105
16274SOL    HW160547   9.564  11.217   9.713 -0.3867  0.2678  0.5678
16274SOL    HW260548   9.546  11.355   9.653  0.5203  0.2113  0.1574
16275SOL     OW60549   3.459  12.421   1.322 -0.0913 -0.3015  0.1169
16275SOL    HW160550   3.465  12.352   1.387 -1.0626 -2.1808 -1.6720
16275SOL    HW260551   3.516  12.392   1.251  0.0174  1.1051 -0.4084
16276SOL     OW60552   5.987   0.637   5.401 -0.2213  0.8712  0.1017
16276SOL    HW160553   6.010   0.571   5.336  0.1662  0.0855  1.0042
16276SOL    HW260554   5.912   0.683   5.363 -1.0507 -0.6413 -0.2102
16277SOL     OW60555   5.051   1.026   5.483  0.0677  0.2213  0.4003
16277SOL    HW160556   5.057   0.954   5.419  0.5916  0.0216  0.6621
16277SOL    HW260557   5.030   0.983   5.566 -0.4464  0.4623  0.3979
16278SOL     OW60558   5.508   4.871   2.024 -0.2624 -0.6683  0.0635
16278SOL    HW160559   5.441   4.802   2.029  0.0848 -0.9563  0.9263
16278SOL    HW260560   5.481   4.924   1.949 -1.4104 -0.8286  0.3326
16279SOL     OW60561   7.427  11.803  12.133  0.6855 -0.2613  0.4760
16279SOL    HW160562   7.353  11.803  12.194  0.7580 -0.7782  0.5715
16279SOL    HW260563   7.502  11.828  12.187  0.4917  0.8619  0.2520
16280SOL     OW60564   9.466   3.768  11.716 -0.4457  0.0790  0.2422
16280SOL    HW160565   9.433   3.770  11.806 -1.4089  2.8666 -0.0694
16280SOL    HW260566   9.396   3.727  11.666 -1.2949  1.3078  0.3617
16281SOL     OW60567  12.425  12.554   7.943 -0.2040  0.2041 -0.3847
16281SOL    HW160568  12.439  12.595   8.029 -1.9595 -0.4114  0.2360
16281SOL    HW260569  12.331  12.543   7.937  0.0775 -2.1344 -1.2884
16282SOL     OW60570   8.128  12.152  12.530  0.9147  0.3325  0.0648
16282SOL    HW160571   8.035  12.173  12.539  1.0626  0.6686  0.9114
16282SOL    HW260572   8.170  12.237  12.516  1.3345  0.4636  1.8889
16283SOL     OW60573  10.434   4.602   2.885  0.3526 -0.6779  0.1326
16283SOL    HW160574  10.360   4.563   2.931 -0.5364  1.1737  0.3504
16283SOL    HW260575  10.401   4.621   2.797  0.9378 -0.9029 -0.1415
16284SOL     OW60576  13.203   6.183  10.090  0.3633 -0.3830 -0.3657
16284SOL    HW160577  13.173   6.258  10.038 -1.3777 -0.9044 -0.1966
16284SOL    HW260578  13.195   6.108  10.030  0.3507 -0.6877  0.0113
16285SOL     OW60579   1.399  13.285   5.577 -0.4622  0.2394 -0.0468
16285SOL    HW160580   1.414  13.259   5.668  0.1891  0.8833  0.0389
16285SOL    HW260581   1.313  13.249   5.556 -0.3572 -0.4303  0.6284
16286SOL     OW60582   6.756  13.548   7.246  0.0904 -0.2887  0.0598
16286SOL    HW160583   6.842  13.518   7.218 -0.6417 -4.2855  1.4463
16286SOL    HW260584   6.774  13.613   7.313  2.0339 -0.9301  0.2211
16287SOL     OW60585   0.592  12.806   3.713  0.2843  0.3625  0.4303
16287SOL    HW160586   0.557  12.894   3.701  0.9647  0.7817  1.4222
16287SOL    HW260587   0.535  12.767   3.780  1.2289  0.8009  1.5282
16288SOL     OW60588   1.652  10.545   4.520  0.0746  0.5098  0.2175
16288SOL    HW160589   1.675  10.535   4.427 -0.3832 -2.2735  0.3320
16288SOL    HW260590   1.589  10.618   4.521 -0.0176  0.5040 -1.6758
16289SOL     OW60591   3.659   3.132   8.528  0.0943 -0.1973 -0.0301
16289SOL    HW160592   3.617   3.094   8.605 -2.0279  1.5099 -0.2392
16289SOL    HW260593   3.587   3.173   8.480  1.8165  1.6274 -1.2092
16290SOL     OW60594   7.964  12.124  11.878 -0.8183  0.5518  0.2003
16290SOL    HW160595   7.881  12.101  11.837 -0.3655 -0.3786 -0.2438
16290SOL    HW260596   7.949  12.113  11.972 -1.0627 -0.1079  0.0920
16291SOL     OW60597   1.699  10.443   3.389  0.3010  0.0546  0.7494
16291SOL    HW160598   1.627  10.461   3.329  0.6882  0.1482  0.3004
16291SOL    HW260599   1.690  10.508   3.459  0.7657  0.9971 -0.0387
16292SOL     OW60600  13.182  11.562   7.494  0.5793  0.1369  0.2644
16292SOL    HW160601  13.220  11.481   7.530  1.6942 -0.0827 -1.2971
16292SOL    HW260602  13.135  11.601   7.567  1.9259 -0.7714  1.6678
16293SOL     OW60603  11.929   9.924   5.875  0.1309 -0.4232  0.3764
16293SOL    HW160604  11.859   9.965   5.925 -0.7665 -1.0783 -0.3087
16293SOL    HW260605  11.946   9.986   5.803  0.5383 -0.0811  0.7619
16294SOL     OW60606   1.599  11.531  11.435  0.0222  0.4511  0.4319
16294SOL    HW160607   1.648  11.487  11.365 -0.7638  0.8449 -0.3861
16294SOL    HW260608   1.526  11.573  11.390 -0.2931  1.0240  1.4504
16295SOL     OW60609   4.666  10.582   8.876  0.3623  0.3209 -0.3367
16295SOL    HW160610   4.712  10.518   8.931 -1.4276 -0.2535  0.5714
16295SOL    HW260611   4.736  10.635   8.838  1.7435  0.9514  2.7143
16296SOL     OW60612   7.662  11.798   9.535 -0.0397 -0.2777  0.2570
16296SOL    HW160613   7.661  11.757   9.622  1.9365  1.5051  1.2274
16296SOL    HW260614   7.582  11.851   9.532 -0.6516 -1.1702  0.5479
16297SOL     OW60615   9.083   0.828  11.945  0.2611 -0.3986  0.3587
16297SOL    HW160616   9.116   0.806  11.857 -0.1843  0.2879  0.0070
16297SOL    HW260617   9.134   0.773  12.004  0.7092 -0.7302 -0.3187
16298SOL     OW60618   8.447  10.952   7.215 -0.3049 -0.6541 -0.4554
16298SOL    HW160619   8.430  11.001   7.296 -1.3676  0.4551 -1.3055
16298SOL    HW260620   8.383  10.881   7.217  0.0640 -0.9794 -0.0486
16299SOL     OW60621   9.191   3.810  13.153  0.2265  0.0997 -0.3514
16299SOL    HW160622   9.174   3.718  13.170 -0.4473  0.4870  1.2657
16299SOL    HW260623   9.281   3.824  13.183 -0.5153  0.4866  1.8463
16300SOL     OW60624   8.233   3.716  13.314  0.1211  0.0289 -0.5470
16300SOL    HW160625   8.225   3.811  13.315 -0.3753 -0.0056  0.6470
16300SOL    HW260626   8.157   3.685  13.362  0.9248 -0.9093  0.1689
16301SOL     OW60627   9.367   7.489  10.167  0.4565 -0.4112  0.3557
16301SOL    HW160628   9.285   7.502  10.216  1.4341  0.6175  1.7892
16301SOL    HW260629   9.396   7.401  10.191 -0.2352 -0.8029 -0.2011
16302SOL     OW60630  10.599   3.678   1.306 -0.3962 -0.3875  0.3692
16302SOL    HW160631  10.638   3.619   1.241 -1.3715 -0.3109 -0.3076
16302SOL    HW260632  10.669   3.692   1.370  1.5027  1.5197 -1.8975
16303SOL     OW60633   4.828   8.596   3.628  0.6666 -0.0737  0.5234
16303SOL    HW160634   4.781   8.518   3.660  1.8448 -1.5973 -1.2352
16303SOL    HW260635   4.914   8.590   3.668  0.7720  0.3024  0.3491
16304SOL     OW60636   7.316   8.014  11.808  0.0527 -0.1710  0.2066
16304SOL    HW160637   7.378   8.018  11.880  1.5295  1.2084 -1.0554
16304SOL    HW260638   7.331   7.929  11.768 -0.9404 -1.0454  1.6090
16305SOL     OW60639   8.872   7.374  10.040  0.0730  0.2732  0.0237
16305SOL    HW160640   8.792   7.374  10.092 -0.0633 -0.6150 -0.1617
16305SOL    HW260641   8.922   7.299  10.074  0.3261  0.1504 -0.6089
16306SOL     OW60642  10.809   1.498  10.046  0.4162 -0.6308  0.7079
16306SOL    HW160643  10.827   1.409  10.016 -0.9232  0.0776 -2.6171
16306SOL    HW260644  10.893   1.544  10.037  0.8685 -1.2756  1.4884
16307SOL     OW60645  11.647   4.973  13.287 -0.1803  0.2725 -0.7684
16307SOL    HW160646  11.552   4.984  13.284 -0.3509  0.1892  1.9710
16307SOL    HW260647  11.678   5.048  13.337  1.0898 -0.2595 -0.7324
16308SOL     OW60648   5.157   4.393  12.061 -0.2453 -0.1481  0.0839
16308SOL    HW160649   5.167   4.307  12.102 -0.2373  0.3728  1.2009
16308SOL    HW260650   5.098   4.440  12.119  3.1617  2.1519  2.0215
16309SOL     OW60651  12.047  11.641  13.731  0.2639 -0.3518 -0.5763
16309SOL    HW160652  12.085  11.609  13.650  0.1393 -1.5274 -0.1817
16309SOL    HW260653  12.100  11.717  13.754  0.3213 -0.0287 -1.7275
16310SOL     OW60654   5.412  12.054   6.212  0.4619  0.0149 -0.3500
16310SOL    HW160655   5.358  12.102   6.275  0.1207 -0.8323  0.0092
16310SOL    HW260656   5.452  12.123   6.158 -0.3973  0.6850 -0.1556
16311SOL     OW60657   6.528   4.869   9.178 -0.5586  0.1035  0.3600
16311SOL    HW160658   6.490   4.781   9.173 -1.6957  0.5978 -0.1313
16311SOL    HW260659   6.469   4.923   9.125  0.1504  1.1545  0.6160
16312SOL     OW60660  13.250   4.373   0.214 -0.2102  0.5860 -0.4139
16312SOL    HW160661  13.307   4.297   0.216 -0.9759  0.0036  1.3285
16312SOL    HW260662  13.191   4.357   0.140  0.4492  0.1089 -0.8382
16313SOL     OW60663  11.239   3.206   9.818  0.3108 -0.3338  0.0592
16313SOL    HW160664  11.295   3.143   9.864 -1.0609 -0.3659  1.7973
16313SOL    HW260665  11.300   3.269   9.780  1.5354 -0.2284  2.0570
16314SOL     OW60666   3.003   2.771   1.265 -0.4684 -0.4117 -0.4992
16314SOL    HW160667   2.914   2.795   1.293 -0.0483  0.7201 -0.0772
16314SOL    HW260668   3.048   2.855   1.253  0.5005 -0.9670 -0.8660
16315SOL     OW60669  11.185  12.537   8.840  0.7592  0.0474 -0.3722
16315SOL    HW160670  11.120  12.514   8.907  0.9505 -0.0165 -0.2071
16315SOL    HW260671  11.181  12.464   8.778  1.4460 -0.5012  0.2109
16316SOL     OW60672  12.002  13.020   2.836  0.3270  0.0851 -0.0855
16316SOL    HW160673  12.035  12.982   2.756  1.4525 -1.6905  1.1592
16316SOL    HW260674  12.080  13.040   2.888 -0.3108  2.3292  0.1286
16317SOL     OW60675  12.032   0.220   3.698 -0.4248  0.5654  0.0605
16317SOL    HW160676  12.067   0.170   3.772  0.0406  1.1899  0.2648
16317SOL    HW260677  12.087   0.195   3.624  0.2333  1.2713  0.3039
16318SOL     OW60678   7.593   6.082   9.427  0.5238  0.0798 -0.0431
16318SOL    HW160679   7.559   6.004   9.471  1.0269  0.8637  1.8046
16318SOL    HW260680   7.636   6.048   9.349  1.6754 -1.6427  1.2626
16319SOL     OW60681  10.614   1.793   5.341  0.7231 -0.1827 -0.0791
16319SOL    HW160682  10.687   1.843   5.378  0.9678  0.7825 -1.7631
16319SOL    HW260683  10.618   1.708   5.385  2.0060  0.3245  0.8546
16320SOL     OW60684   1.520  11.155  12.147 -0.6903  0.4163 -0.2184
16320SOL    HW160685   1.458  11.167  12.219 -0.5410 -1.8786  0.3537
16320SOL    HW260686   1.504  11.066  12.116  1.1189  0.4024 -1.2295
16321SOL     OW60687   9.583   3.349  13.316 -0.0814  0.3306 -0.0899
16321SOL    HW160688   9.677   3.327  13.316 -0.1252  0.1421 -0.0751
16321SOL    HW260689   9.561   3.358  13.409  0.1634  1.4333 -0.1299
16322SOL     OW60690  12.008   5.153   3.017 -0.1155 -0.6426 -0.4960
16322SOL    HW160691  12.080   5.197   2.972 -1.1215 -0.3484 -1.8725
16322SOL    HW260692  12.046   5.070   3.047  1.2034  0.1702  0.2252
16323SOL     OW60693   6.181   3.107  10.061 -0.0573  0.0183  0.4391
16323SOL    HW160694   6.150   3.114   9.971  0.6400  0.5353  0.2237
16323SOL    HW260695   6.137   3.030  10.096  1.0202 -1.2704 -0.9020
16324SOL     OW60696  13.212   4.564   6.508  0.2845  0.1943  0.0918
16324SOL    HW160697  13.182   4.564   6.599  0.3420 -0.7435  0.1228
16324SOL    HW260698  13.240   4.474   6.492 -1.5817 -0.1808 -1.4635
16325SOL     OW60699  11.786   5.008  11.575  0.1977  0.3018 -0.3467
16325SOL    HW160700  11.871   5.005  11.531  1.4923  3.2299  1.6337
16325SOL    HW260701  11.745   5.089  11.543  0.1544  1.2510  1.9195
16326SOL     OW60702   6.028   1.739   4.558  0.0158 -0.2952  0.4428
16326SOL    HW160703   5.997   1.677   4.624  3.0541  0.5884  2.9904
16326SOL    HW260704   5.951   1.791   4.535 -1.7689 -2.5216  1.0968
16327SOL     OW60705  12.928   8.537   2.863 -0.1145  0.0297 -0.0631
16327SOL    HW160706  12.939   8.586   2.781  0.8024 -2.1431 -1.3404
16327SOL    HW260707  13.014   8.498   2.879 -0.6329 -0.6297  1.2424
16328SOL     OW60708   3.152  11.664  10.042 -0.3803  0.2773  0.2478
16328SOL    HW160709   3.061  11.643  10.025 -0.1645 -1.1101  0.7280
16328SOL    HW260710   3.152  11.759  10.058 -1.7045  0.3118  0.1121
16329SOL     OW60711   5.662   4.392  10.893  0.6820 -0.0953  0.0732
16329SOL    HW160712   5.744   4.359  10.857  0.3982 -0.0973 -0.5922
16329SOL    HW260713   5.666   4.487  10.878 -0.0126 -0.2487 -1.1900
16330SOL     OW60714   1.544  11.784   7.871 -0.4208 -0.7526 -0.0657
16330SOL    HW160715   1.450  11.778   7.888 -0.4735 -0.0977 -0.1073
16330SOL    HW260716   1.550  11.833   7.789 -0.0721 -1.5274 -0.5104
16331SOL     OW60717  11.325  12.899   1.716  0.0039  0.3733  0.2384
16331SOL    HW160718  11.263  12.826   1.716  1.2500 -0.7226  0.2086
16331SOL    HW260719  11.372  12.891   1.799 -0.6080  1.8311  0.7411
16332SOL     OW60720   9.317   0.039  11.283 -0.3022  0.0297  0.3434
16332SOL    HW160721   9.399   0.036  11.331  0.9473 -3.2461 -1.6849
16332SOL    HW260722   9.334   0.101  11.211  0.9545 -1.5949 -0.8253
16333SOL     OW60723  11.489  10.031   4.176 -0.5955 -0.2360 -0.2175
16333SOL    HW160724  11.421  10.088   4.214 -1.5614 -1.7625  0.4250
16333SOL    HW260725  11.540  10.001   4.252 -0.5113 -0.7542 -0.4749
16334SOL     OW60726  13.188   5.523   3.541 -0.0122 -0.7098  0.9093
16334SOL    HW160727  13.212   5.615   3.538  2.0223 -1.2085  0.2059
16334SOL    HW260728  13.242   5.486   3.611  0.6220 -1.6952 -0.0498
16335SOL     OW60729   5.965  10.451   3.683  0.2559  0.2787  0.1407
16335SOL    HW160730   5.898  10.390   3.653  1.0481 -0.0497 -1.0543
16335SOL    HW260731   6.023  10.397   3.737  0.2304  0.2681  0.1563
16336SOL     OW60732  13.317   4.418  13.029 -0.0529  0.8576 -0.2934
16336SOL    HW160733  13.392   4.396  13.085 -1.2658 -0.9293  0.7237
16336SOL    HW260734  13.324   4.513  13.017  2.2276  0.7865 -0.0444
16337SOL     OW60735  10.478   9.380   8.776  0.0092  0.2247 -0.1222
16337SOL    HW160736  10.397   9.330   8.767 -0.6294  1.3303 -0.6033
16337SOL    HW260737  10.471   9.422   8.862  0.3534 -0.1459  0.0945
16338SOL     OW60738  12.280   0.102  13.584 -0.3112 -0.1609 -0.0254
16338SOL    HW160739  12.279   0.036  13.653  0.7329 -0.9679 -0.7451
16338SOL    HW260740  12.261   0.053  13.504  1.7345  0.1248 -0.7558
16339SOL     OW60741  10.971   1.991   7.545  0.2038 -0.0173 -0.4886
16339SOL    HW160742  10.959   2.083   7.568  0.2359 -0.1733  0.1583
16339SOL    HW260743  10.983   1.946   7.628 -0.1254 -0.6571 -0.7737
16340SOL     OW60744   5.346  13.547   4.698  0.0672 -0.2970 -0.3172
16340SOL    HW160745   5.267  13.583   4.657  0.0416 -2.3588 -2.2166
16340SOL    HW260746   5.320  13.460   4.728  0.7599  0.2463  2.1182
16341SOL     OW60747   6.052  11.462  12.356 -0.0859 -0.4378  0.4403
16341SOL    HW160748   5.962  11.495  12.357 -0.2329 -0.3312 -3.0534
16341SOL    HW260749   6.045  11.369  12.376 -0.6252 -0.0169  2.4399
16342SOL     OW60750  12.314   6.033   4.326 -0.3634  0.4977  0.4249
16342SOL    HW160751  12.373   5.988   4.387 -0.2792  0.8686  0.6186
16342SOL    HW260752  12.231   5.986   4.335 -0.3850  0.6219  0.9142
16343SOL     OW60753   3.193   3.995  13.325 -0.6002 -0.1468  0.5823
16343SOL    HW160754   3.165   4.087  13.329  0.5845  0.5108 -2.8369
16343SOL    HW260755   3.284   3.997  13.356 -0.3821 -0.0216 -0.0450
16344SOL     OW60756   2.889   9.507   3.612  0.3390 -0.3440 -0.0625
16344SOL    HW160757   2.863   9.452   3.538  0.1892 -1.4653  0.7990
16344SOL    HW260758   2.848   9.592   3.594  0.0432 -0.6929 -1.1018
16345SOL     OW60759   0.328   4.421   5.240  0.2781  0.1815 -0.1101
16345SOL    HW160760   0.402   4.470   5.274 -0.2560  0.6054  0.4727
16345SOL    HW260761   0.260   4.430   5.307 -0.0654 -0.7876 -0.3048
16346SOL     OW60762   2.029   1.285   5.122  0.1529  0.2240  0.2368
16346SOL    HW160763   2.026   1.343   5.045  0.2821 -2.6917 -2.1290
16346SOL    HW260764   2.122   1.282   5.144  0.4128 -0.5216 -0.8640
16347SOL     OW60765   6.398  12.165  11.300  0.0025 -0.0402 -0.6126
16347SOL    HW160766   6.448  12.136  11.223 -0.8486  1.5138 -1.8219
16347SOL    HW260767   6.308  12.170  11.270 -0.3970  0.2956  0.5867
16348SOL     OW60768  12.575  13.411   5.601  0.7631  0.1448  1.0949
16348SOL    HW160769  12.545  13.451   5.683  1.5673  0.0997  1.4207
16348SOL    HW260770  12.529  13.460   5.532 -0.1814 -0.0525  1.5820
16349SOL     OW60771   0.189  11.452   8.975  0.0261 -0.0903 -0.0386
16349SOL    HW160772   0.220  11.394   8.905 -1.2739 -0.6442 -0.1791
16349SOL    HW260773   0.230  11.536   8.955 -1.0687  0.0430 -2.0761
16350SOL     OW60774   2.660   5.554  10.794  0.7508 -0.1784 -0.1802
16350SOL    HW160775   2.736   5.500  10.819  0.0016 -1.5500 -0.7344
16350SOL    HW260776   2.649   5.615  10.867  1.2588 -1.1927  0.7797
16351SOL     OW60777  10.385  10.100   2.119  0.7169 -0.4046  0.4633
16351SOL    HW160778  10.347  10.048   2.188 -0.8781  0.5952  0.3910
16351SOL    HW260779  10.476  10.070   2.113  1.3187  0.3655  3.8547
16352SOL     OW60780   9.400   9.285   5.243  0.1688 -0.1796  0.4114
16352SOL    HW160781   9.330   9.263   5.181  0.2766  1.6535 -0.4305
16352SOL    HW260782   9.382   9.231   5.319  0.6846 -3.4491 -1.5826
16353SOL     OW60783   9.877   6.689  12.331  0.6753  0.2932 -0.2570
16353SOL    HW160784   9.805   6.656  12.384 -0.2654  0.7263 -1.2249
16353SOL    HW260785   9.882   6.782  12.351  0.9350  0.2766 -0.2355
16354SOL     OW60786   9.747   7.038   3.418 -0.2329 -0.0153  0.1494
16354SOL    HW160787   9.813   7.099   3.386 -0.8280  0.0981 -0.9077
16354SOL    HW260788   9.797   6.966   3.457  0.4984  0.3064 -0.1911
16355SOL     OW60789   3.678   3.768   9.925 -0.1054  0.0636  0.3165
16355SOL    HW160790   3.667   3.763   9.830 -3.4234  0.9850  0.5188
16355SOL    HW260791   3.684   3.862   9.944  0.8176 -0.1201  1.0416
16356SOL     OW60792   6.951   9.251   8.159  0.3442  0.2003  0.7112
16356SOL    HW160793   7.029   9.307   8.150  0.2770  0.0020 -1.7871
16356SOL    HW260794   6.888   9.289   8.098  0.3960 -2.6950 -1.3294
16357SOL     OW60795   7.859   1.357   2.657  0.3766 -0.7387  0.0506
16357SOL    HW160796   7.934   1.414   2.674 -0.8146  0.9007  0.1243
16357SOL    HW260797   7.813   1.399   2.584 -0.4900 -1.6652  0.0383
16358SOL     OW60798  13.033   8.472   3.708 -0.0355 -0.5168 -0.8226
16358SOL    HW160799  13.013   8.381   3.731 -0.0220 -1.2343 -3.2617
16358SOL    HW260800  12.951   8.519   3.720 -0.2305 -1.0094 -0.2043
16359SOL     OW60801   8.357   5.107   2.220  0.3059  0.2201  0.0650
16359SOL    HW160802   8.394   5.018   2.220 -0.3275 -0.0737 -1.0420
16359SOL    HW260803   8.278   5.099   2.166  0.1440  1.4252  0.1066
16360SOL     OW60804   9.905   8.259   5.114  0.8046  0.0748 -0.3257
16360SOL    HW160805   9.838   8.327   5.127  1.1787  0.9049 -2.2872
16360SOL    HW260806   9.862   8.193   5.060  1.0658 -0.2349 -0.1603
16361SOL     OW60807  10.267   7.419   3.422 -0.2215 -0.4545 -0.6007
16361SOL    HW160808  10.326   7.453   3.489 -0.7947 -1.5872  0.5291
16361SOL    HW260809  10.181   7.455   3.444 -0.4636 -1.0410 -0.5804
16362SOL     OW60810  13.117   2.643   4.536  0.0050 -0.3914 -0.5934
16362SOL    HW160811  13.103   2.613   4.626  0.4984  1.1172  0.0099
16362SOL    HW260812  13.212   2.644   4.525 -0.0259  0.1815 -0.8584
16363SOL     OW60813  11.254  12.959   5.744 -0.2398 -0.4097  0.2167
16363SOL    HW160814  11.205  13.026   5.696 -1.9746 -0.6351  1.5944
16363SOL    HW260815  11.190  12.891   5.763  1.3304 -2.1790 -0.5228
16364SOL     OW60816  13.200   1.924   5.046 -0.0814 -0.5821  1.3692
16364SOL    HW160817  13.245   1.946   4.965  0.5172 -2.2301  1.2083
16364SOL    HW260818  13.200   2.005   5.097 -0.4343  0.4707 -0.2389
16365SOL     OW60819   1.878   8.980  10.809 -0.0898 -0.2807 -0.7685
16365SOL    HW160820   1.826   8.917  10.859 -1.4781  1.9933  0.8183
16365SOL    HW260821   1.937   9.019  10.874  0.7278  0.0939 -1.7109
16366SOL     OW60822   0.341  11.909  11.028 -0.0220 -0.7373  0.1677
16366SOL    HW160823   0.412  11.881  10.970 -0.2353  1.2213 -1.1230
16366SOL    HW260824   0.261  11.887  10.980 -0.1997  0.9990 -0.4047
16367SOL     OW60825   5.719   6.005  10.752 -0.0721 -0.2306 -0.3228
16367SOL    HW160826   5.768   6.062  10.692 -0.4906 -0.7013 -1.1326
16367SOL    HW260827   5.627   6.016  10.725 -0.4500  0.7487  1.2659
16368SOL     OW60828   2.215   5.685   7.687 -0.2745  0.0391  0.1706
16368SOL    HW160829   2.206   5.748   7.759 -0.5687  1.3927 -1.0030
16368SOL    HW260830   2.159   5.611   7.712  0.1569  0.1803  1.6244
16369SOL     OW60831   9.227   5.643  11.252 -0.8433 -0.1814  0.0658
16369SOL    HW160832   9.260   5.582  11.318  0.8259  0.5621 -0.0253
16369SOL    HW260833   9.190   5.716  11.302 -1.0389 -0.3575  0.1784
16370SOL     OW60834   5.379   8.252   9.351 -0.4105 -0.1596  0.8080
16370SOL    HW160835   5.292   8.241   9.313  0.2811  1.0770 -1.3236
16370SOL    HW260836   5.417   8.165   9.349 -0.1854 -0.1055 -2.1170
16371SOL     OW60837   9.375  10.775   9.836 -0.1488 -0.7863  0.2932
16371SOL    HW160838   9.399  10.703   9.894 -1.1113 -0.1719  1.5130
16371SOL    HW260839   9.386  10.853   9.890  2.4439  0.1993 -1.4726
16372SOL     OW60840   7.362   9.943   4.274  0.6035  0.5900  0.6781
16372SOL    HW160841   7.449   9.981   4.264  1.1311  0.2158  3.1432
16372SOL    HW260842   7.377   9.849   4.262  0.3487  0.6068  0.2074
16373SOL     OW60843   8.955   5.704   0.776  0.0792 -0.0204 -0.0092
16373SOL    HW160844   8.912   5.723   0.860 -1.4787 -2.7659 -0.0641
16373SOL    HW260845   9.033   5.654   0.800  0.6921  0.8362 -0.1565
16374SOL     OW60846  11.292   8.096   5.606  0.5638 -0.4334  0.1925
16374SOL    HW160847  11.321   8.047   5.683  2.3464  3.4170  2.2808
16374SOL    HW260848  11.238   8.166   5.642 -2.3959 -0.9838 -2.6635
16375SOL     OW60849  10.240   3.547   0.126 -0.1668 -0.1015 -0.3092
16375SOL    HW160850  10.162   3.558   0.180  0.5365  2.7534  0.2860
16375SOL    HW260851  10.296   3.488   0.177 -1.7025 -1.9027 -0.5896
16376SOL     OW60852   1.025   5.194   4.487 -0.2035 -0.4955  0.2951
16376SOL    HW160853   1.065   5.262   4.432 -0.6287 -1.7033 -1.6076
16376SOL    HW260854   0.946   5.235   4.522 -0.6650 -0.1172 -1.1476
16377SOL     OW60855   4.176   2.414   1.109  0.3729  0.0060  0.2622
16377SOL    HW160856   4.263   2.399   1.071  0.3421  1.1744 -0.3118
16377SOL    HW260857   4.134   2.328   1.108  0.0434  0.0706 -3.2102
16378SOL     OW60858   3.767   8.018   7.738  0.2806  0.1007  0.7079
16378SOL    HW160859   3.771   8.113   7.724 -0.1153 -0.1881 -2.1544
16378SOL    HW260860   3.849   7.986   7.700 -0.5998 -0.8331 -0.4725
16379SOL     OW60861   7.369   9.306   0.740  0.0353 -0.6277 -0.5509
16379SOL    HW160862   7.461   9.285   0.722  0.1147  0.0132 -0.9478
16379SOL    HW260863   7.320   9.257   0.674  0.1173 -0.7334 -0.5339
16380SOL     OW60864   9.464   1.848   1.895  0.1334 -0.0325 -0.3512
16380SOL    HW160865   9.525   1.860   1.967  0.5109  1.3960 -0.8772
16380SOL    HW260866   9.480   1.759   1.864  0.2386 -0.5286  1.0507
16381SOL     OW60867   1.142   0.208   9.192  0.6128 -0.5589  0.5536
16381SOL    HW160868   1.215   0.163   9.148  1.3671  1.0265  0.0946
16381SOL    HW260869   1.174   0.224   9.281  1.4211  1.3148 -0.0210
16382SOL     OW60870   7.135  13.369   0.795 -0.6986 -0.3404 -0.2832
16382SOL    HW160871   7.069  13.392   0.730  0.0617  0.2952 -0.8449
16382SOL    HW260872   7.106  13.414   0.875 -0.7872  0.1869 -0.6075
16383SOL     OW60873   4.997  10.542   1.539  0.5628  0.3052 -0.0296
16383SOL    HW160874   4.954  10.548   1.624 -0.7282  1.8090 -0.7264
16383SOL    HW260875   4.934  10.498   1.483 -0.4291  3.0257 -1.2071
16384SOL     OW60876   8.462   6.788  10.697 -0.8168  0.5008 -0.0388
16384SOL    HW160877   8.429   6.868  10.657  1.0028  0.7983 -1.0660
16384SOL    HW260878   8.536   6.762  10.641  1.6476  0.7140  2.8563
16385SOL     OW60879   0.531   6.874   5.335 -0.0355  0.2042 -0.1135
16385SOL    HW160880   0.479   6.895   5.412  1.1147 -0.8013  0.9760
16385SOL    HW260881   0.555   6.783   5.347  1.8523  0.6009 -0.6511
16386SOL     OW60882   3.435  11.715   9.490 -0.4379 -0.2808  0.3380
16386SOL    HW160883   3.496  11.728   9.562  0.0383 -2.1728  0.3458
16386SOL    HW260884   3.479  11.750   9.413  0.1455 -0.5100  0.5597
16387SOL     OW60885   0.809  12.551   5.438 -0.5252  0.7545  0.2214
16387SOL    HW160886   0.864  12.607   5.384 -1.0827  1.2031  0.1058
16387SOL    HW260887   0.837  12.569   5.528  0.9608 -0.5913  0.0732
16388SOL     OW60888   6.706   5.487  12.573  0.2697  0.2368 -0.6131
16388SOL    HW160889   6.783   5.448  12.614 -0.4182 -1.0117 -0.4580
16388SOL    HW260890   6.693   5.570  12.621  0.6121 -0.2819  0.4111
16389SOL     OW60891   2.605   4.774   7.220 -0.1385 -0.2331 -0.2207
16389SOL    HW160892   2.608   4.679   7.225  0.8802 -0.1393  1.8273
16389SOL    HW260893   2.526   4.798   7.269  0.1814  0.0109  0.1807
16390SOL     OW60894  10.412   5.136  10.416  0.7144  0.5536 -0.2242
16390SOL    HW160895  10.426   5.053  10.462 -1.6930 -0.2944 -0.8504
16390SOL    HW260896  10.490   5.188  10.435  1.3310 -1.0324  1.9645
16391SOL     OW60897  11.159   4.127   9.117  0.3255 -0.3904  0.3442
16391SOL    HW160898  11.154   4.139   9.022 -1.4155 -1.4918  0.2546
16391SOL    HW260899  11.068   4.113   9.145  1.0226 -2.8280  1.7513
16392SOL     OW60900   0.126   2.898  11.492 -0.1274  0.2005 -0.2803
16392SOL    HW160901   0.115   2.805  11.474 -0.2777  0.0688  0.4416
16392SOL    HW260902   0.083   2.911  11.576 -1.1902  1.1814 -0.9533
16393SOL     OW60903   1.188   3.587   2.390 -0.2797  0.7769  0.6270
16393SOL    HW160904   1.101   3.566   2.356  0.4078 -0.5691 -0.3782
16393SOL    HW260905   1.174   3.601   2.483 -1.5077  0.1749  0.5590
16394SOL     OW60906   5.545   5.677   1.994 -0.4534  0.3754 -0.3105
16394SOL    HW160907   5.522   5.618   2.065 -2.2926 -0.4165 -1.4825
16394SOL    HW260908   5.604   5.741   2.033 -0.6116 -0.6226  1.6508
16395SOL     OW60909   3.015   8.452  10.984  0.3396  0.0883 -0.1053
16395SOL    HW160910   3.031   8.372  11.035  1.0696 -0.3039 -0.9211
16395SOL    HW260911   3.092   8.460  10.927 -0.1200  0.9187 -0.6296
16396SOL     OW60912   1.511   0.364   8.472  0.8727  0.0918  0.2014
16396SOL    HW160913   1.500   0.459   8.473  1.7490  0.2101 -0.5193
16396SOL    HW260914   1.455   0.333   8.543  0.2455  1.1050  0.1704
16397SOL     OW60915  10.387   1.433  12.380 -0.2665  0.2629 -0.0990
16397SOL    HW160916  10.465   1.437  12.436  0.0942  0.9611 -0.6398
16397SOL    HW260917  10.411   1.374  12.309 -0.4718 -0.0563  0.0950
16398SOL     OW60918   2.080   3.867   5.495  0.2622 -0.4383 -0.4381
16398SOL    HW160919   2.127   3.800   5.543  0.2320 -0.5377 -0.5485
16398SOL    HW260920   2.120   3.950   5.522  0.2779 -0.4985 -0.2802
16399SOL     OW60921   4.929   1.231  10.961  0.0758  0.2038  0.2732
16399SOL    HW160922   4.929   1.238  11.057  0.7275 -1.4583  0.4340
16399SOL    HW260923   5.022   1.225  10.938  0.0123  1.9589 -0.6237
16400SOL     OW60924   8.148   3.902   8.918 -0.6103 -0.2486  0.6270
16400SOL    HW160925   8.070   3.899   8.863 -0.6336 -0.3623  0.6663
16400SOL    HW260926   8.219   3.872   8.860 -0.8459 -1.6379  1.0257
16401SOL     OW60927   2.419  11.917   7.802 -0.1608  0.6375  0.3542
16401SOL    HW160928   2.383  11.832   7.825 -0.1027  0.5871  0.2552
16401SOL    HW260929   2.342  11.974   7.793 -0.3455  0.1103 -1.6705
16402SOL     OW60930   7.490   0.418   1.544 -0.4425  0.2223 -0.3443
16402SOL    HW160931   7.407   0.372   1.554 -0.3087  0.0918  0.1966
16402SOL    HW260932   7.526   0.423   1.632 -0.6301  1.6995 -0.3206
16403SOL     OW60933   6.879  11.914   4.915 -0.0567  0.1996 -0.0657
16403SOL    HW160934   6.831  11.868   4.984  3.1280 -0.5054  1.8762
16403SOL    HW260935   6.884  12.005   4.946  1.1440 -0.0624  0.5718
16404SOL     OW60936   0.844   5.947   0.983 -0.0722 -0.0321  0.1143
16404SOL    HW160937   0.844   5.923   0.890  1.4327 -0.5163  0.2003
16404SOL    HW260938   0.788   5.882   1.025 -0.7651  0.1928 -0.4490
16405SOL     OW60939  12.045  10.954   6.619  0.0890 -0.8638  0.0278
16405SOL    HW160940  12.121  10.897   6.621 -1.3589 -2.8770  1.3116
16405SOL    HW260941  12.035  10.984   6.709 -1.5381 -1.9884  0.2724
16406SOL     OW60942   3.009   6.274   8.874  0.4961  0.0931 -0.6621
16406SOL    HW160943   2.978   6.221   8.948  3.0535  0.4371  0.7749
16406SOL    HW260944   3.055   6.211   8.818  2.2584  0.4634  0.2956
16407SOL     OW60945   7.525   3.788  11.174  0.1196 -0.3234 -0.0395
16407SOL    HW160946   7.447   3.751  11.132 -0.6012  0.8948  0.1860
16407SOL    HW260947   7.527   3.748  11.261 -1.2659  0.9088  0.6044
16408SOL     OW60948   4.656  13.584   8.654 -0.4347  0.2341  0.1548
16408SOL    HW160949   4.655  13.564   8.560 -0.3213  1.0572 -0.0326
16408SOL    HW260950   4.637  13.678   8.658 -1.6479 -0.0282  1.0265
16409SOL     OW60951   0.941  13.451   1.453  0.0021  0.8199 -0.1741
16409SOL    HW160952   1.016  13.409   1.409  0.1039  0.2510  0.5231
16409SOL    HW260953   0.975  13.479   1.537 -0.9961 -1.1487  0.9662
16410SOL     OW60954  12.456   9.488  10.013 -0.4246 -0.0329  0.5235
16410SOL    HW160955  12.547   9.496   9.982 -0.7989 -1.6359 -1.1607
16410SOL    HW260956  12.443   9.394  10.026 -1.7876  0.1947  0.9771
16411SOL     OW60957   5.794   2.468   7.979 -0.3852  0.1882 -0.1009
16411SOL    HW160958   5.869   2.415   7.951 -0.4932 -0.7629  1.3060
16411SOL    HW260959   5.823   2.509   8.061 -0.9308  0.9130 -0.2603
16412SOL     OW60960   0.709   7.507  12.375  0.4418 -0.5861 -0.0450
16412SOL    HW160961   0.751   7.421  12.380 -0.2757 -1.0637 -1.5828
16412SOL    HW260962   0.777   7.565  12.340  1.1959 -0.2963  1.8036
16413SOL     OW60963   3.256  11.931   7.425  0.0190 -0.3755  0.2230
16413SOL    HW160964   3.320  11.961   7.361 -0.1890  1.3875  0.7970
16413SOL    HW260965   3.308  11.902   7.500  0.1949 -0.7037 -0.0229
16414SOL     OW60966   4.707   9.379   2.634  0.3532  0.3778  0.1778
16414SOL    HW160967   4.707   9.305   2.695  1.3567  0.8552  0.7770
16414SOL    HW260968   4.623   9.423   2.652  0.3192  0.1094  0.7211
16415SOL     OW60969   8.656   4.512   2.440  0.0307 -0.5371 -0.1465
16415SOL    HW160970   8.593   4.582   2.427 -1.0865 -1.5984 -0.6716
16415SOL    HW260971   8.655   4.496   2.534  1.9814  1.6097  0.3381
16416SOL     OW60972   3.766  10.285   0.999  0.1779  0.1307 -0.1145
16416SOL    HW160973   3.796  10.352   0.938 -1.0706 -1.2188 -2.3508
16416SOL    HW260974   3.673  10.304   1.011  0.6306  1.1625  2.5536
16417SOL     OW60975   3.514   6.028   8.399 -0.0225 -0.2657 -0.5325
16417SOL    HW160976   3.441   6.046   8.340  0.6903 -1.4541 -1.8460
16417SOL    HW260977   3.501   5.938   8.427  0.0622  0.0470  0.5659
16418SOL     OW60978   9.300   2.166   0.432 -0.4321 -0.0767 -0.8868
16418SOL    HW160979   9.280   2.253   0.468 -0.2382 -0.1282 -0.6435
16418SOL    HW260980   9.245   2.158   0.355 -0.0327  0.4997 -1.2464
16419SOL     OW60981   5.179  10.037  13.596  0.3677 -0.0352 -0.2759
16419SOL    HW160982   5.205   9.999  13.512  0.5940 -1.3877  0.3719
16419SOL    HW260983   5.234  10.115  13.604 -0.2870  0.6144 -1.7653
16420SOL     OW60984   3.511   5.605   9.221 -0.3060 -0.1101  0.6120
16420SOL    HW160985   3.495   5.599   9.316 -3.3501 -3.1002  0.1063
16420SOL    HW260986   3.586   5.546   9.206 -0.0537  0.0762  1.0983
16421SOL     OW60987   8.154   0.012  10.745 -0.1242 -0.1301 -0.3321
16421SOL    HW160988   8.106  -0.046  10.684 -1.0975  1.1410 -0.8196
16421SOL    HW260989   8.228  -0.041  10.774 -0.8161 -1.5279 -0.9791
16422SOL     OW60990  10.521   5.719  11.633 -0.6571 -0.3596  0.3361
16422SOL    HW160991  10.528   5.809  11.666  2.2533 -0.7860  1.1515
16422SOL    HW260992  10.578   5.717  11.557 -1.4710 -1.3064 -0.2673
16423SOL     OW60993   9.514   7.749  11.338  0.0447 -0.4521  0.1842
16423SOL    HW160994   9.563   7.668  11.356  0.6477  0.0948  1.1002
16423SOL    HW260995   9.450   7.724  11.271  1.0980 -1.3713 -0.5210
16424SOL     OW60996   4.502   4.146  11.747  0.0049  0.2936 -0.1969
16424SOL    HW160997   4.527   4.230  11.786  0.6745 -0.1713  0.3988
16424SOL    HW260998   4.454   4.101  11.816  0.3344 -0.1311 -0.2402
16425SOL     OW60999   9.912   9.373  11.532  0.5405 -0.2885  0.0352
16425SOL    HW161000   9.859   9.436  11.580  1.0953  0.6088 -0.5158
16425SOL    HW261001   9.998   9.377  11.574  1.4527  1.5154 -1.8135
16426SOL     OW61002  11.609   3.556  10.475 -0.2096  0.5547 -0.1773
16426SOL    HW161003  11.653   3.558  10.560 -1.5628 -0.4936  0.5768
16426SOL    HW261004  11.531   3.611  10.487 -0.1105  0.8782 -0.9325
16427SOL     OW61005  11.030   8.872  10.590 -0.1671  0.9607  0.0218
16427SOL    HW161006  11.013   8.962  10.619 -0.2209  0.9944 -0.1105
16427SOL    HW261007  10.977   8.817  10.647 -0.4339  1.0401 -0.1455
16428SOL     OW61008   3.373  13.059  12.771  0.2990 -0.1802  0.1510
16428SOL    HW161009   3.427  13.070  12.850 -0.7208 -1.2635  1.0247
16428SOL    HW261010   3.425  13.101  12.702  2.1238 -0.8997  1.0034
16429SOL     OW61011   0.376   8.207   3.383 -0.1190 -0.6750  0.3274
16429SOL    HW161012   0.439   8.163   3.440 -0.2607  0.6723  1.6052
16429SOL    HW261013   0.311   8.244   3.443 -0.3870  0.6276 -0.7008
16430SOL     OW61014   2.354   7.785   0.966 -0.1868 -0.1134 -0.0286
16430SOL    HW161015   2.315   7.706   0.929 -1.5494  1.2024 -1.5526
16430SOL    HW261016   2.444   7.784   0.934 -0.3978 -0.6741 -0.6299
16431SOL     OW61017   2.118   2.271   7.411  0.4006 -0.0886  0.3654
16431SOL    HW161018   2.160   2.338   7.465  1.1581  1.6078 -2.1783
16431SOL    HW261019   2.034   2.255   7.455  1.5612  0.1237  2.7981
16432SOL     OW61020   4.760   6.501   7.449 -0.0718  0.1259  0.5100
16432SOL    HW161021   4.734   6.503   7.356 -0.1759 -1.3454  0.4773
16432SOL    HW261022   4.842   6.549   7.452  0.0315  0.0281 -0.3889
16433SOL     OW61023   7.497  10.060   8.719  0.2381  0.1048 -0.1258
16433SOL    HW161024   7.434  10.132   8.723  1.4839  1.2635 -0.5194
16433SOL    HW261025   7.498  10.024   8.807  1.0937  1.9251  0.6560
16434SOL     OW61026  13.524   6.965  13.485 -0.0378  0.1278 -0.0912
16434SOL    HW161027  13.443   6.986  13.439 -0.6148 -1.1037  0.3092
16434SOL    HW261028  13.496   6.940  13.573  0.5032 -2.5018 -0.5885
16435SOL     OW61029  10.027   4.923   5.740 -0.3048 -0.3134  0.0663
16435SOL    HW161030  10.120   4.915   5.763 -0.2121  0.0463 -0.1614
16435SOL    HW261031   9.993   4.834   5.744 -0.3074 -0.2735  1.6446
16436SOL     OW61032   4.914   2.775   4.949 -0.2681  0.3716  0.4552
16436SOL    HW161033   4.873   2.862   4.947  1.3340  1.1473  0.1290
16436SOL    HW261034   4.855   2.723   5.004 -0.7438  1.9484  1.5240
16437SOL     OW61035   1.417   3.949  10.321 -0.4860  0.3166  0.3929
16437SOL    HW161036   1.481   3.888  10.357  1.0419  1.2741 -0.5740
16437SOL    HW261037   1.347   3.953  10.386  0.5497 -0.5985  1.5922
16438SOL     OW61038   0.163   9.822   1.447 -0.1099  0.1910 -0.7540
16438SOL    HW161039   0.227   9.755   1.425 -1.0191 -0.5359 -1.2711
16438SOL    HW261040   0.213   9.889   1.493  1.3264  0.4119 -2.5178
16439SOL     OW61041   1.283   5.479   2.099 -0.3023  0.2192  0.3446
16439SOL    HW161042   1.208   5.425   2.071  0.8667 -1.7354  0.8081
16439SOL    HW261043   1.330   5.498   2.017 -0.1761 -0.3293  0.2875
16440SOL     OW61044   7.615  13.634  10.746  0.3156 -0.1140  0.1163
16440SOL    HW161045   7.646  13.600  10.662 -0.5155 -0.8108  0.0710
16440SOL    HW261046   7.606  13.556  10.801 -1.4519  0.0247  0.0715
16441SOL     OW61047   9.233  12.759  13.075  0.1093  0.2307  0.4630
16441SOL    HW161048   9.324  12.733  13.090  0.0229 -0.5055 -0.1926
16441SOL    HW261049   9.208  12.806  13.155  0.5616 -0.9626  1.3356
16442SOL     OW61050   3.015   4.476  11.121 -0.3841  0.2155 -0.2269
16442SOL    HW161051   2.934   4.496  11.074 -3.4182 -0.8245  3.9458
16442SOL    HW261052   3.038   4.558  11.166 -0.8512 -0.1769  0.7732
16443SOL     OW61053   6.871   7.137  10.250  0.5637  0.4080  0.1218
16443SOL    HW161054   6.847   7.046  10.235  1.1334  0.2216  0.2793
16443SOL    HW261055   6.966   7.138  10.238  0.7716  0.6672  1.5541
16444SOL     OW61056   9.204   7.789  11.712  0.4545 -0.3718 -0.0202
16444SOL    HW161057   9.294   7.760  11.726  0.9112  1.1686  0.4105
16444SOL    HW261058   9.203   7.820  11.622  0.5805  0.4043  0.2456
16445SOL     OW61059   9.666   9.930  11.899  0.1841 -0.2675 -0.1557
16445SOL    HW161060   9.659   9.844  11.941 -0.2695 -0.4341 -0.5677
16445SOL    HW261061   9.584   9.973  11.920  0.3484  0.0107 -0.0828
16446SOL     OW61062   8.915   0.330   9.155 -0.8876  0.3934 -0.1269
16446SOL    HW161063   8.959   0.253   9.189  0.2077  1.7195  1.6391
16446SOL    HW261064   8.937   0.332   9.062 -1.5653 -1.7816 -0.3814
16447SOL     OW61065   8.302   5.463  13.719  0.3554 -0.5421 -0.3350
16447SOL    HW161066   8.326   5.554  13.733 -2.9182  0.5843 -1.0879
16447SOL    HW261067   8.269   5.433  13.804 -1.4845  0.0598 -0.7910
16448SOL     OW61068   8.087   4.639  12.649  0.5141  0.3614 -0.2421
16448SOL    HW161069   8.158   4.575  12.655 -1.4280 -1.8868 -0.0884
16448SOL    HW261070   8.075   4.670  12.739 -0.1715 -0.9735  0.1479
16449SOL     OW61071   8.407   5.830  11.984  0.2337  0.0726 -0.0380
16449SOL    HW161072   8.416   5.866  11.895  0.6135  0.8506  0.3092
16449SOL    HW261073   8.328   5.870  12.019  0.1000 -0.2115 -0.0119
16450SOL     OW61074   2.366  10.338   5.588  0.0721 -0.6894 -0.1872
16450SOL    HW161075   2.333  10.286   5.515 -1.0076  0.9825 -0.9662
16450SOL    HW261076   2.343  10.428   5.565 -1.2706 -0.1956  2.7190
16451SOL     OW61077   3.081   8.284   0.631  0.4921 -0.2981 -0.1478
16451SOL    HW161078   3.053   8.344   0.700  1.4077 -0.7616  0.6437
16451SOL    HW261079   3.142   8.336   0.578 -1.1112  0.4371 -1.3617
16452SOL     OW61080  13.155  11.904  11.361  0.3580 -0.0706 -0.1342
16452SOL    HW161081  13.153  11.824  11.415  2.3570 -0.4714 -0.5784
16452SOL    HW261082  13.180  11.973  11.423 -2.7656  0.5913  0.5732
16453SOL     OW61083   2.073   9.246   7.237  0.6956  0.2959  0.1939
16453SOL    HW161084   2.107   9.218   7.322 -0.9071 -0.5583  0.5758
16453SOL    HW261085   2.013   9.177   7.211 -1.5307  2.1917  0.0185
16454SOL     OW61086   7.879   9.676   1.652 -0.6283  0.6727 -0.1077
16454SOL    HW161087   7.931   9.694   1.730 -0.2747 -2.0638  0.3629
16454SOL    HW261088   7.806   9.739   1.657  0.0552  1.3714  1.7413
16455SOL     OW61089  11.154  11.041   7.579 -0.2590  0.3001 -0.2776
16455SOL    HW161090  11.115  11.022   7.494 -1.0670 -1.1967  0.3900
16455SOL    HW261091  11.248  11.049   7.561 -0.3497 -0.5701 -1.2343
16456SOL     OW61092   2.383  13.564   0.290 -0.3717  0.6030 -0.3082
16456SOL    HW161093   2.288  13.572   0.304 -0.7021  0.4513 -2.1209
16456SOL    HW261094   2.397  13.600   0.202  1.1120 -0.2318 -0.4487
16457SOL     OW61095   3.914   1.798  12.487  0.4337  0.0997 -0.2631
16457SOL    HW161096   3.998   1.840  12.506  0.2395  0.5156 -0.3247
16457SOL    HW261097   3.938   1.712  12.452  0.8226 -0.0443  0.3348
16458SOL     OW61098   7.678   5.928   4.373  0.3075  0.4331  0.5432
16458SOL    HW161099   7.655   5.973   4.292 -0.9059  0.5273  0.9059
16458SOL    HW261100   7.597   5.931   4.425  0.8440 -0.2731  1.4475
16459SOL     OW61101   3.290   4.087   7.417  0.3012 -0.5380 -0.1632
16459SOL    HW161102   3.232   4.016   7.389  0.1998 -0.8946  0.9114
16459SOL    HW261103   3.250   4.166   7.383 -0.3512 -0.8621 -0.1606
16460SOL     OW61104   4.952   1.342   8.297 -0.7531  0.7169  0.1798
16460SOL    HW161105   4.923   1.298   8.217 -0.9559  2.8206 -0.9537
16460SOL    HW261106   4.894   1.418   8.305 -0.1125  1.0750  1.8164
16461SOL     OW61107  10.046  12.812  11.364 -0.2606  0.1385 -0.1177
16461SOL    HW161108  10.030  12.724  11.398  1.0755 -0.3130 -0.5906
16461SOL    HW261109  10.085  12.797  11.278  0.7081  1.1816  0.1306
16462SOL     OW61110   1.575   3.345   9.917  0.7034 -0.4610  0.4330
16462SOL    HW161111   1.586   3.415   9.853  1.0662  0.5964  1.6108
16462SOL    HW261112   1.662   3.333   9.955  0.3886 -0.6733  1.1072
16463SOL     OW61113   1.509  13.436  13.262  0.4576 -0.1948  0.7071
16463SOL    HW161114   1.539  13.507  13.317 -0.4765  0.2534  0.6595
16463SOL    HW261115   1.541  13.457  13.175  0.0720  0.2480  0.6683
16464SOL     OW61116   2.175   7.318   4.411  0.2003 -0.1638 -0.1933
16464SOL    HW161117   2.219   7.375   4.474 -0.6758 -0.4482  0.6951
16464SOL    HW261118   2.086   7.355   4.403  0.1470 -0.4207 -0.8962
16465SOL     OW61119   9.792   7.987   2.572 -0.6504  0.0706  0.0285
16465SOL    HW161120   9.834   8.001   2.657  0.8509 -0.8674 -0.5141
16465SOL    HW261121   9.865   7.975   2.511 -1.6783 -1.9763 -0.9148
16466SOL     OW61122  13.234  13.432   2.342 -0.5671  0.2034  0.5340
16466SOL    HW161123  13.323  13.466   2.342 -1.1166  1.7016  0.7494
16466SOL    HW261124  13.214  13.416   2.434 -0.8378  0.7254  0.5652
16467SOL     OW61125  10.296  12.373  11.074  0.2672 -0.0979 -1.1686
16467SOL    HW161126  10.314  12.284  11.107 -2.3686 -0.1677  0.3130
16467SOL    HW261127  10.282  12.425  11.153 -1.4250  0.8781 -2.0622
16468SOL     OW61128   9.976  11.069   2.129 -0.6943 -0.5581  0.1067
16468SOL    HW161129  10.047  11.117   2.171 -2.4089  0.7966  1.6762
16468SOL    HW261130   9.969  11.108   2.042  0.4708 -0.7365 -0.0785
16469SOL     OW61131  12.238  12.209   2.457 -0.2579  0.4010  0.1012
16469SOL    HW161132  12.160  12.191   2.509 -0.7140  0.6373 -0.4795
16469SOL    HW261133  12.299  12.138   2.478 -0.3996  0.5360  0.9949
16470SOL     OW61134  13.675   5.983   8.483  0.7657 -0.0101  0.5155
16470SOL    HW161135  13.670   6.067   8.437  0.9244  0.9432  2.1370
16470SOL    HW261136  13.609   5.990   8.552  1.4881 -0.8064  1.3122
16471SOL     OW61137   2.265   5.016  10.255 -0.1197 -0.1510  0.0041
16471SOL    HW161138   2.254   4.983  10.166 -0.7826 -1.2774  0.4796
16471SOL    HW261139   2.175   5.027  10.287  0.1079 -0.5558  0.8054
16472SOL     OW61140  12.319   0.201   9.614 -0.2470 -0.1522  0.2320
16472SOL    HW161141  12.309   0.268   9.681 -0.6447 -0.2056  0.2299
16472SOL    HW261142  12.298   0.119   9.659  1.7888 -0.4768  0.6542
16473SOL     OW61143   6.994   9.793   3.686 -0.4278 -0.1078 -0.2079
16473SOL    HW161144   7.030   9.879   3.703  1.4123 -1.0518  0.9792
16473SOL    HW261145   6.948   9.802   3.603 -0.2057  1.9675 -0.1557
16474SOL     OW61146   1.957   6.201   6.161  0.2334 -0.1293  0.1338
16474SOL    HW161147   1.957   6.249   6.244 -2.7135 -1.2674  0.9419
16474SOL    HW261148   1.873   6.223   6.121  1.6959  0.6150 -2.7745
16475SOL     OW61149   6.424  10.706   5.666  0.3567  0.4731 -0.4499
16475SOL    HW161150   6.329  10.722   5.668  0.3357  0.3317 -0.3287
16475SOL    HW261151   6.432  10.612   5.680  0.5748  0.6511  0.6448
16476SOL     OW61152   8.072   3.363   9.473 -0.2662 -0.1959 -0.4504
16476SOL    HW161153   8.023   3.292   9.432 -0.3733 -0.2727 -0.1918
16476SOL    HW261154   8.064   3.347   9.567  0.9857 -0.7039 -0.4145
16477SOL     OW61155   8.422   2.911  10.446 -0.3916 -0.2046 -0.4329
16477SOL    HW161156   8.408   3.003  10.470  2.5565  0.4211 -0.7399
16477SOL    HW261157   8.401   2.908  10.352 -1.6963 -0.1727 -0.1602
16478SOL     OW61158  13.205   1.127   9.414  0.4831 -0.0127 -0.0021
16478SOL    HW161159  13.177   1.204   9.464  1.4975 -0.7693  1.8521
16478SOL    HW261160  13.204   1.155   9.323 -0.5458  1.7392  0.5046
16479SOL     OW61161  12.132  10.047   3.931  0.2952  0.2301  0.0313
16479SOL    HW161162  12.154  10.009   3.846 -0.6642 -0.2909 -0.0054
16479SOL    HW261163  12.098  10.134   3.910 -1.7387 -0.5878 -0.3467
16480SOL     OW61164  10.800   9.964   7.516  0.0746  0.6596  0.1302
16480SOL    HW161165  10.735   9.934   7.580 -1.5938 -0.1666 -1.8425
16480SOL    HW261166  10.843   9.884   7.486 -0.2156  0.8586 -0.8481
16481SOL     OW61167  11.023   4.472   0.813 -0.1842 -0.0103  0.6415
16481SOL    HW161168  11.115   4.491   0.834  0.1938 -2.1798  1.1329
16481SOL    HW261169  11.008   4.383   0.845 -2.1644 -0.1192 -0.4069
16482SOL     OW61170  11.701  10.990   8.004 -0.4471 -0.2054  0.3420
16482SOL    HW161171  11.649  10.955   8.076  0.1832 -0.7317  0.5509
16482SOL    HW261172  11.694  10.924   7.935 -1.6436  0.6289 -0.3673
16483SOL     OW61173  10.936   6.344   1.581 -0.1116 -0.1206  1.0876
16483SOL    HW161174  11.013   6.288   1.576  0.5044  0.8114 -2.0896
16483SOL    HW261175  10.863   6.285   1.561  0.0757 -0.5138  1.5507
16484SOL     OW61176   5.646  13.244  10.990 -0.0315  0.2012  0.2686
16484SOL    HW161177   5.620  13.222  11.079 -0.1383  1.1866  0.4870
16484SOL    HW261178   5.570  13.220  10.936 -0.2326  0.2674  0.5245
16485SOL     OW61179   6.785   1.791   1.384  0.2628  0.0746  0.4501
16485SOL    HW161180   6.810   1.822   1.297  0.6949  1.1861  0.9533
16485SOL    HW261181   6.869   1.774   1.428  0.0415 -0.8814  0.5210
16486SOL     OW61182   0.057   5.379  13.296 -0.7247 -0.2991  0.1291
16486SOL    HW161183   0.009   5.386  13.378 -1.4095 -0.9751 -0.2024
16486SOL    HW261184   0.015   5.442  13.237 -1.0761 -0.7366 -0.0946
16487SOL     OW61185   0.105   7.110  12.302  0.8422 -0.4056 -0.1032
16487SOL    HW161186   0.087   7.200  12.276  3.1622  0.1038 -0.1671
16487SOL    HW261187   0.164   7.077  12.235 -0.4320 -2.2331 -0.4195
16488SOL     OW61188   3.941  12.970   7.286 -0.3663  0.1081  0.9210
16488SOL    HW161189   3.947  12.965   7.381  1.0316  0.8753  0.8990
16488SOL    HW261190   4.019  13.018   7.259 -1.1249  0.5880 -0.5604
16489SOL     OW61191   2.826   2.302   8.090  0.2312 -0.8546  0.3642
16489SOL    HW161192   2.771   2.328   8.016  1.8142 -2.8853 -1.6552
16489SOL    HW261193   2.912   2.337   8.068  0.9793 -2.4716  0.6371
16490SOL     OW61194   7.113  11.802   0.565 -0.0262 -1.0986  0.2234
16490SOL    HW161195   7.130  11.888   0.603 -0.1700 -1.1460  0.3944
16490SOL    HW261196   7.028  11.811   0.521 -0.4441 -1.3849  0.9519
16491SOL     OW61197   6.868   9.161  10.293 -0.8771 -0.0707 -0.3437
16491SOL    HW161198   6.954   9.126  10.271 -0.3264  0.4775  0.8486
16491SOL    HW261199   6.838   9.205  10.214  0.1103  0.0657 -0.6496
16492SOL     OW61200   6.520  11.953   6.108  0.8557 -0.3772  0.5026
16492SOL    HW161201   6.546  11.927   6.196 -0.3792 -3.1756  0.1327
16492SOL    HW261202   6.556  11.886   6.051 -1.1560 -0.5042 -0.7222
16493SOL     OW61203   5.278   6.022   4.126 -0.0085 -0.0330  0.4785
16493SOL    HW161204   5.276   5.953   4.193 -0.9291  0.4736  0.9900
16493SOL    HW261205   5.371   6.038   4.112  0.2039 -0.4494  1.3335
16494SOL     OW61206  12.560  12.625  12.254  0.6086 -0.1442 -0.3532
16494SOL    HW161207  12.468  12.651  12.242  1.1526  1.1508 -2.1741
16494SOL    HW261208  12.569  12.613  12.349 -1.7334 -1.5682 -0.2058
16495SOL     OW61209  12.244   4.523  13.545  0.4301 -0.2548 -0.1482
16495SOL    HW161210  12.322   4.496  13.593  0.2568  1.3073  1.1059
16495SOL    HW261211  12.277   4.576  13.473  0.5324  1.0512  0.8292
16496SOL     OW61212   3.837  13.703  10.634 -0.4222  0.7153  0.0854
16496SOL    HW161213   3.865  13.628  10.686 -1.3537  0.0900 -0.3031
16496SOL    HW261214   3.919  13.743  10.604  0.1076  0.5339  1.2278
16497SOL     OW61215  11.146   8.163  11.743  0.2866 -0.4658  0.1301
16497SOL    HW161216  11.086   8.165  11.817  1.0878 -0.6230  0.7975
16497SOL    HW261217  11.092   8.185  11.667 -0.2793  1.0331  0.9388
16498SOL     OW61218   9.492   2.943  10.189  0.1179 -0.0886  0.2712
16498SOL    HW161219   9.397   2.932  10.181  0.2386  0.1092 -2.5422
16498SOL    HW261220   9.528   2.861  10.156  0.8977  0.5554 -0.5257
16499SOL     OW61221   2.331  11.604   9.183 -0.7352 -0.0003 -0.1154
16499SOL    HW161222   2.333  11.615   9.278 -0.9585 -1.3698  0.0687
16499SOL    HW261223   2.423  11.604   9.157 -0.6072 -1.1570  0.3061
16500SOL     OW61224   9.513   4.211  11.236  0.4508 -0.3489  0.0748
16500SOL    HW161225   9.464   4.190  11.315 -0.0826 -2.6154 -0.7745
16500SOL    HW261226   9.583   4.269  11.266 -0.5103 -0.0715  1.9466
16501SOL     OW61227   6.300  11.868   3.957 -0.8733  0.3170 -0.3743
16501SOL    HW161228   6.237  11.920   3.907 -0.4828 -0.6679 -1.9807
16501SOL    HW261229   6.313  11.789   3.904 -0.2890 -0.7176  1.2260
16502SOL     OW61230   2.932  13.512   7.190  0.0041  0.3426  0.2095
16502SOL    HW161231   2.841  13.483   7.187  0.0057  0.2420  0.8897
16502SOL    HW261232   2.949  13.547   7.103 -0.4234 -0.4200 -0.1930
16503SOL     OW61233   1.432  10.685   3.377 -0.2887  0.1168  0.1458
16503SOL    HW161234   1.467  10.646   3.297 -0.2352 -0.1903  0.3160
16503SOL    HW261235   1.471  10.633   3.448 -0.0289  0.6356  0.3844
16504SOL     OW61236   8.362   0.840   3.017 -0.4901 -0.5645 -0.1680
16504SOL    HW161237   8.362   0.757   3.064 -1.5112 -0.0641  0.7739
16504SOL    HW261238   8.323   0.819   2.931 -3.6293 -0.5875  1.1088
16505SOL     OW61239   7.830  10.277   7.174  0.1526  0.5708  0.0222
16505SOL    HW161240   7.883  10.357   7.172 -0.2892  0.8576 -0.8956
16505SOL    HW261241   7.847  10.235   7.090 -1.5460  0.9857 -0.5466
16506SOL     OW61242   9.483   7.277  11.097 -0.2066 -0.2132  0.6319
16506SOL    HW161243   9.454   7.194  11.060 -0.3891  0.4045 -0.6654
16506SOL    HW261244   9.406   7.333  11.094  1.1295  1.9167 -4.1855
16507SOL     OW61245   2.540   3.819   8.988  0.2469  0.4286  0.4643
16507SOL    HW161246   2.615   3.863   9.028 -0.5927  1.4617  0.9372
16507SOL    HW261247   2.472   3.822   9.056  0.1210 -1.5574  0.5061
16508SOL     OW61248   3.542  11.222   5.736 -0.0543  0.2206 -0.0398
16508SOL    HW161249   3.498  11.137   5.725 -0.9053  0.6147  0.2108
16508SOL    HW261250   3.489  11.268   5.801  0.3630  0.9686 -0.2206
16509SOL     OW61251   3.754   1.396   8.203  0.5133  0.2681 -0.0645
16509SOL    HW161252   3.844   1.409   8.232  0.3415 -0.9068  1.1140
16509SOL    HW261253   3.713   1.345   8.274 -0.4189 -1.2655 -1.6167
16510SOL     OW61254   6.112   8.580   9.398 -0.2903  0.2552  0.0212
16510SOL    HW161255   6.047   8.643   9.370 -0.7206  0.5820  1.6585
16510SOL    HW261256   6.094   8.502   9.346 -1.0294  0.8225 -0.5946
16511SOL     OW61257   6.041   0.310   3.962  0.5952 -0.0034 -0.1385
16511SOL    HW161258   6.088   0.287   3.882 -0.9060 -0.6900 -0.8557
16511SOL    HW261259   5.995   0.391   3.939  0.2102 -0.1683  0.0626
16512SOL     OW61260  13.162   1.476   1.196  0.6025 -0.2615 -0.2822
16512SOL    HW161261  13.117   1.483   1.280  0.4050  0.6924 -0.4532
16512SOL    HW261262  13.131   1.552   1.146  1.6788 -0.1149 -0.7506
16513SOL     OW61263   5.909   1.063   7.119  0.0889  0.2652  0.7245
16513SOL    HW161264   5.816   1.047   7.131  0.1999 -0.6750  0.4113
16513SOL    HW261265   5.936   1.112   7.197 -0.6883  0.6794  0.7425
16514SOL     OW61266   6.151   5.228   7.077 -0.4396 -0.5524 -0.2300
16514SOL    HW161267   6.074   5.272   7.041 -0.8378 -1.6351 -0.7250
16514SOL    HW261268   6.179   5.167   7.009  1.7318  0.7961 -0.6576
16515SOL     OW61269   1.155   8.764   5.293 -0.5138 -0.0304 -0.2728
16515SOL    HW161270   1.097   8.767   5.217 -1.5378  0.8819  0.4977
16515SOL    HW261271   1.164   8.671   5.314  1.6323 -0.5045 -2.8147
16516SOL     OW61272   7.896   0.818   8.805 -0.0180 -0.2916 -0.4622
16516SOL    HW161273   7.962   0.754   8.777  0.2640 -0.3560  0.3234
16516SOL    HW261274   7.931   0.854   8.887  0.0493  1.2138 -1.1283
16517SOL     OW61275  11.846  10.968  10.021  0.5163 -0.3916 -0.3341
16517SOL    HW161276  11.758  10.999  10.002  1.7454  3.1515 -1.2157
16517SOL    HW261277  11.903  11.026   9.969  3.3902 -1.8812  0.9141
16518SOL     OW61278   8.824   5.871  13.261 -0.1833 -0.8184 -0.0074
16518SOL    HW161279   8.774   5.868  13.343  0.0798 -1.9562  0.1310
16518SOL    HW261280   8.763   5.839  13.195 -0.5447  0.5368 -0.3585
16519SOL     OW61281   9.562   7.368   0.025  0.1783 -0.6925  0.3399
16519SOL    HW161282   9.609   7.289  -0.004  1.1243  0.1064 -0.3928
16519SOL    HW261283   9.617   7.440  -0.005 -1.7488  0.3259 -0.9838
16520SOL     OW61284   5.422  13.146   2.495 -0.3183 -0.0343 -0.1112
16520SOL    HW161285   5.380  13.061   2.488  0.3418 -0.4036  0.2434
16520SOL    HW261286   5.507  13.135   2.453  0.1145  0.1935  0.6662
16521SOL     OW61287  10.072   7.030  13.407  0.3434  0.6501 -0.1942
16521SOL    HW161288  10.004   6.963  13.400 -0.8368  1.5369  1.5997
16521SOL    HW261289  10.152   6.988  13.377 -0.4109 -1.4612  0.5636
16522SOL     OW61290   6.913   5.983   1.092 -0.1925  0.1083 -0.0520
16522SOL    HW161291   6.854   6.058   1.098  0.1833  0.3749  0.4554
16522SOL    HW261292   6.871   5.914   1.143  0.4632  0.6688  1.3023
16523SOL     OW61293  10.765  10.894  10.470  0.1667 -0.6348  0.5235
16523SOL    HW161294  10.811  10.845  10.402 -1.9023 -1.6746 -0.2402
16523SOL    HW261295  10.755  10.982  10.434  1.0054 -0.5562  0.4595
16524SOL     OW61296   8.833   8.079  11.894  0.0172  0.5872 -0.1666
16524SOL    HW161297   8.818   8.071  11.799  0.1413 -0.1934 -0.1357
16524SOL    HW261298   8.928   8.072  11.903 -0.0266  0.2135  0.0449
16525SOL     OW61299   7.026  13.054  13.655  0.6484 -0.4587  0.4400
16525SOL    HW161300   7.051  13.133  13.703 -0.4033  0.2850 -0.1823
16525SOL    HW261301   7.100  12.995  13.666  1.4179  0.5722  1.0101
16526SOL     OW61302  10.931   1.228  12.003 -0.2853  0.1590  0.1259
16526SOL    HW161303  10.973   1.220  11.918 -1.3718 -1.5588 -0.3074
16526SOL    HW261304  10.977   1.299  12.047  0.9650  0.3930 -1.4940
16527SOL     OW61305   3.333   1.239   6.942  0.4623 -0.3671 -0.1236
16527SOL    HW161306   3.348   1.149   6.916 -2.3165 -0.5711 -1.4386
16527SOL    HW261307   3.286   1.233   7.025  0.7269 -0.1043  0.0492
16528SOL     OW61308   7.548   5.301  13.171 -0.4549  0.2223 -0.8803
16528SOL    HW161309   7.552   5.294  13.267 -1.4377  0.5610 -0.7992
16528SOL    HW261310   7.629   5.345  13.146  1.1954 -2.3553 -0.4869
16529SOL     OW61311  11.731  13.594   2.899 -0.5886  0.0494 -0.3023
16529SOL    HW161312  11.759  13.533   2.967 -2.0497 -0.3107  0.0177
16529SOL    HW261313  11.802  13.594   2.835  0.1589 -0.7260  0.5081
16530SOL     OW61314  13.328   0.982   1.665  0.3919  0.2046  0.1352
16530SOL    HW161315  13.304   1.003   1.755 -1.4184  0.9629 -0.4695
16530SOL    HW261316  13.245   0.955   1.625  1.5082 -2.1716 -0.7830
16531SOL     OW61317   5.638   9.897   2.082  0.0113  0.2310 -0.4753
16531SOL    HW161318   5.731   9.879   2.073  0.6297  2.1495  1.3806
16531SOL    HW261319   5.598   9.857   2.004  2.0115 -2.6800 -0.1538
16532SOL     OW61320  12.932   1.148   9.136  0.4181 -0.4549  0.1520
16532SOL    HW161321  12.876   1.151   9.058  0.2785 -0.8224  0.2351
16532SOL    HW261322  12.901   1.071   9.184  2.2411 -1.7893 -0.7336
16533SOL     OW61323   0.703   4.591   8.359 -0.3137  0.2066  0.0946
16533SOL    HW161324   0.741   4.581   8.272  1.1096 -2.3152  0.9185
16533SOL    HW261325   0.611   4.612   8.342  0.2310  1.1935 -1.9704
16534SOL     OW61326   8.837   3.538   7.691 -0.4388  0.0803  0.1222
16534SOL    HW161327   8.806   3.584   7.613 -2.2830 -1.3749 -0.0852
16534SOL    HW261328   8.876   3.457   7.657  1.4955  0.7757  0.5625
16535SOL     OW61329   8.222   7.004   7.790 -0.1475  0.0972  0.2076
16535SOL    HW161330   8.236   6.909   7.787 -0.3257  0.0433  0.8750
16535SOL    HW261331   8.141   7.017   7.742  0.1913 -0.0109 -0.4176
16536SOL     OW61332  12.936   8.481  13.620  0.3495 -1.0890 -0.2032
16536SOL    HW161333  13.022   8.517  13.599 -0.3117  0.0458 -1.0642
16536SOL    HW261334  12.875   8.554  13.611 -0.6633 -1.7405  0.8952
16537SOL     OW61335   8.040   7.721   7.890 -0.7755 -0.0307 -0.0245
16537SOL    HW161336   8.065   7.744   7.800  1.5750  2.3461  1.1283
16537SOL    HW261337   7.945   7.719   7.888 -0.8073 -0.9959 -2.7394
16538SOL     OW61338  10.895   8.627  11.980  0.9605 -0.3452  0.2001
16538SOL    HW161339  10.866   8.718  11.974  0.6481 -0.3171  1.7316
16538SOL    HW261340  10.947   8.613  11.901  0.1251  0.8304 -0.5915
16539SOL     OW61341   6.112   3.919   2.844  0.2332  0.7706  0.3500
16539SOL    HW161342   6.073   3.907   2.931  1.3893  0.8170  0.8970
16539SOL    HW261343   6.178   3.988   2.857 -0.1802  1.3951 -0.7654
16540SOL     OW61344  12.703  12.746   3.403 -0.1696  0.0137 -0.5292
16540SOL    HW161345  12.628  12.773   3.349  0.7192  0.4926 -1.5582
16540SOL    HW261346  12.721  12.657   3.375 -0.4366 -0.1520 -0.1790
16541SOL     OW61347  11.567   3.233   0.619  0.4713  0.1679  0.2981
16541SOL    HW161348  11.552   3.322   0.650  1.8350  0.3925  0.3775
16541SOL    HW261349  11.480   3.199   0.599 -0.4635  0.3623  3.4162
16542SOL     OW61350   6.592   2.130   7.909 -0.2794  0.2182  0.2103
16542SOL    HW161351   6.592   2.197   7.976 -0.9744 -0.0034  0.4452
16542SOL    HW261352   6.648   2.165   7.839 -1.0390  1.2592  0.1072
16543SOL     OW61353   4.205   9.984   0.716  0.0543  0.0429  0.3250
16543SOL    HW161354   4.140   9.994   0.646  0.2455  0.1455  0.1596
16543SOL    HW261355   4.169  10.035   0.789 -0.0429  0.1131  0.2292
16544SOL     OW61356   5.156  10.036   6.492  0.1564  0.1415 -0.0242
16544SOL    HW161357   5.248  10.052   6.514  0.0840  0.3394  0.1316
16544SOL    HW261358   5.154   9.944   6.464  0.2727 -0.0698  0.6459
16545SOL     OW61359  12.366  11.464  13.706 -0.1880 -0.0622 -0.3816
16545SOL    HW161360  12.301  11.428  13.767 -0.4054  0.6926 -0.1626
16545SOL    HW261361  12.411  11.532  13.756 -0.3284  0.5252 -1.0466
16546SOL     OW61362   5.316   1.251   4.252 -0.2606  0.2543 -0.9081
16546SOL    HW161363   5.331   1.203   4.333  1.2482  1.6337 -0.3151
16546SOL    HW261364   5.221   1.263   4.248 -0.2342  2.6924  2.2057
16547SOL     OW61365   4.366   0.755   4.366 -0.3520 -0.0715  0.3935
16547SOL    HW161366   4.391   0.690   4.300  0.2451 -0.2812  0.8092
16547SOL    HW261367   4.330   0.828   4.316 -1.3632 -0.8527 -0.0704
16548SOL     OW61368   0.690   0.096  13.349 -0.1022 -0.1907  0.6510
16548SOL    HW161369   0.651   0.038  13.414 -0.6176 -1.0531 -0.3806
16548SOL    HW261370   0.721   0.036  13.280  0.6352  0.6710  0.2178
16549SOL     OW61371   2.316   2.107   3.129  0.2386  0.2506  0.2580
16549SOL    HW161372   2.284   2.069   3.047  1.1291 -0.3039  0.1482
16549SOL    HW261373   2.383   2.045   3.159 -1.6682 -0.8415  2.6328
16550SOL     OW61374   8.468   7.041  12.684 -0.7494 -0.1888  0.0597
16550SOL    HW161375   8.455   7.112  12.747 -0.5986 -1.0918  1.1280
16550SOL    HW261376   8.550   7.063  12.640 -0.6355  0.2285  0.4767
16551SOL     OW61377   4.175  13.160   7.467  0.0290  0.3738 -0.0630
16551SOL    HW161378   4.085  13.182   7.490 -0.5859  1.5602 -3.2233
16551SOL    HW261379   4.220  13.244   7.461  0.5225  0.0368 -1.4610
16552SOL     OW61380  12.975   9.290   1.256  0.1391 -0.3429 -0.1332
16552SOL    HW161381  13.007   9.366   1.209 -0.6241  0.1245  0.0948
16552SOL    HW261382  13.054   9.240   1.277  0.6872  0.5961  0.0890
16553SOL     OW61383  10.311   4.647   2.654 -0.2971  0.1911  0.6324
16553SOL    HW161384  10.365   4.607   2.586 -0.9200  0.5746 -0.0939
16553SOL    HW261385  10.223   4.613   2.638 -0.0312 -1.9632  2.9538
16554SOL     OW61386   9.261   1.103   2.942  0.1289  0.0554  0.2133
16554SOL    HW161387   9.181   1.086   2.893  0.9343 -0.1828 -1.0972
16554SOL    HW261388   9.232   1.130   3.029 -1.4797  3.0136 -1.0871
16555SOL     OW61389   3.177   2.196   9.516 -0.2458 -0.0859  0.3462
16555SOL    HW161390   3.091   2.157   9.535 -0.3072  0.7889  2.1633
16555SOL    HW261391   3.181   2.273   9.574  1.2698  0.5883 -0.5999
16556SOL     OW61392   2.912   0.884  12.923  0.3195 -0.1107 -1.2071
16556SOL    HW161393   2.817   0.874  12.922  0.2474 -0.5555  1.3184
16556SOL    HW261394   2.928   0.974  12.895 -1.0568  0.6395  0.2457
16557SOL     OW61395   8.176   9.864   9.546  0.4865  0.6069  0.0377
16557SOL    HW161396   8.207   9.786   9.499 -1.9229 -0.7302  0.4754
16557SOL    HW261397   8.163   9.834   9.636 -0.4271  1.5172  0.2260
16558SOL     OW61398   6.788   0.541  11.009 -0.0777  0.6468  0.2628
16558SOL    HW161399   6.813   0.465  10.956  1.6748  0.4950  1.2184
16558SOL    HW261400   6.729   0.505  11.075  0.1639  0.2560  0.2701
16559SOL     OW61401   5.637   8.287   5.274  0.5995  0.0060 -0.5668
16559SOL    HW161402   5.710   8.293   5.335 -0.6951  0.1432  1.0408
16559SOL    HW261403   5.618   8.194   5.268 -0.6962  0.1044  1.0991
16560SOL     OW61404   8.718   0.536   5.868 -0.3879  0.1846 -0.2688
16560SOL    HW161405   8.779   0.497   5.806  1.0057 -0.5106  1.4611
16560SOL    HW261406   8.738   0.630   5.865 -0.3375  0.1585 -0.8532
16561SOL     OW61407  10.407  10.399  11.112  0.0272 -0.4926  0.1640
16561SOL    HW161408  10.439  10.393  11.022 -1.7187 -0.1635 -0.5128
16561SOL    HW261409  10.444  10.481  11.145 -0.2277 -0.0407 -0.6441
16562SOL     OW61410  10.927   9.737   7.486 -0.4621  0.0109 -0.6150
16562SOL    HW161411  10.918   9.650   7.526  0.6742 -0.5626 -1.5291
16562SOL    HW261412  10.974   9.721   7.405 -0.2559  1.4996 -0.8203
16563SOL     OW61413   3.483   4.278   0.243  0.7486 -0.2860 -0.1101
16563SOL    HW161414   3.510   4.269   0.335  2.6305  1.2015 -0.4597
16563SOL    HW261415   3.513   4.197   0.202 -1.5799 -1.7404  0.8207
16564SOL     OW61416  10.600   7.470   9.305 -0.0842 -0.2672 -0.8270
16564SOL    HW161417  10.572   7.556   9.339 -0.3348 -0.1633 -1.2886
16564SOL    HW261418  10.572   7.408   9.372 -0.9054 -0.1008 -1.0032
16565SOL     OW61419   8.980   2.121  10.872  0.1197 -0.6029  0.2087
16565SOL    HW161420   8.935   2.199  10.905 -0.3656 -0.3600 -0.9586
16565SOL    HW261421   9.050   2.105  10.936 -0.4407  0.1424  1.0426
16566SOL     OW61422   6.709  10.364   8.536 -0.1191 -0.1976 -0.2150
16566SOL    HW161423   6.630  10.363   8.589  0.2444 -1.3742  0.3340
16566SOL    HW261424   6.681  10.399   8.451 -0.9064  0.7665  0.4244
16567SOL     OW61425  12.318   3.482  10.580  0.0535 -0.5410  0.2150
16567SOL    HW161426  12.260   3.550  10.614  1.2660  0.7084 -0.0927
16567SOL    HW261427  12.337   3.426  10.656  0.7382  0.7419  1.0235
16568SOL     OW61428  10.122   0.366  10.435  0.3431 -0.1217 -0.6751
16568SOL    HW161429  10.153   0.276  10.431  0.3746 -0.0779 -1.4048
16568SOL    HW261430  10.054   0.365  10.503 -0.0409 -0.8121 -1.0579
16569SOL     OW61431   4.078   5.414  11.868 -0.4537 -0.4287  0.5897
16569SOL    HW161432   3.985   5.403  11.848 -0.6486  3.2544 -1.3875
16569SOL    HW261433   4.123   5.402  11.785 -0.0590  4.3418 -0.1662
16570SOL     OW61434   9.596  12.927   7.013 -0.3377  0.4338 -0.0841
16570SOL    HW161435   9.580  12.965   7.099  0.3315 -0.1698  0.3100
16570SOL    HW261436   9.565  12.837   7.020 -1.4899  0.7415 -0.8785
16571SOL     OW61437   9.019   7.554   1.778 -0.2531  0.7561  0.2835
16571SOL    HW161438   9.046   7.646   1.784  0.1360  0.6857 -0.2602
16571SOL    HW261439   9.043   7.516   1.863  0.3101  0.9786  0.2289
16572SOL     OW61440  11.112  10.490  10.471 -0.1065  0.0028 -0.4954
16572SOL    HW161441  11.036  10.435  10.452  1.0674 -0.8514 -3.2435
16572SOL    HW261442  11.187  10.439  10.442  1.4535  1.2731  1.0917
16573SOL     OW61443   2.489   0.862   7.877 -0.4176  0.8932 -0.0847
16573SOL    HW161444   2.529   0.848   7.963 -2.0632  0.4616  0.6566
16573SOL    HW261445   2.494   0.777   7.834 -2.1792  0.3127  0.7702
16574SOL     OW61446  11.265   5.102   0.561 -0.0630 -0.3634  0.3863
16574SOL    HW161447  11.353   5.065   0.566  0.0214 -0.2055  0.0856
16574SOL    HW261448  11.279   5.197   0.551 -0.2679 -0.3340  0.3712
16575SOL     OW61449   9.300   5.173   4.761  0.1140  0.0780 -0.2327
16575SOL    HW161450   9.375   5.200   4.708 -0.1009  0.5109 -0.3165
16575SOL    HW261451   9.257   5.105   4.710 -1.5529  2.1796 -1.8361
16576SOL     OW61452   0.147   7.437   7.916 -0.1792  0.0389 -0.2195
16576SOL    HW161453   0.180   7.503   7.976  0.3754  0.6710 -1.1919
16576SOL    HW261454   0.082   7.388   7.967 -0.3337  1.0939  0.6255
16577SOL     OW61455   3.255   9.557   4.212  0.6693 -0.5286  0.5793
16577SOL    HW161456   3.239   9.568   4.118 -0.1060  0.9890  0.8413
16577SOL    HW261457   3.178   9.596   4.253  1.6411  0.1099  1.8555
16578SOL     OW61458  12.764  10.769   1.289  0.3564  0.3932  0.3012
16578SOL    HW161459  12.822  10.797   1.219 -0.5887 -1.0004 -1.1075
16578SOL    HW261460  12.823  10.734   1.356  1.2205  0.5778 -0.3441
16579SOL     OW61461   0.414   1.001   7.658  0.5599 -0.0518  0.2409
16579SOL    HW161462   0.367   0.923   7.629  0.5691 -0.2426  0.7348
16579SOL    HW261463   0.395   1.066   7.591 -0.5061 -0.0862  0.4937
16580SOL     OW61464   9.486  12.800   6.090 -0.4282  0.0868  0.2725
16580SOL    HW161465   9.440  12.881   6.111 -2.2112 -0.9490  0.6220
16580SOL    HW261466   9.425  12.731   6.117  0.9093 -1.3657 -0.2852
16581SOL     OW61467   7.771   5.604   3.678  0.0655 -0.1872 -0.3100
16581SOL    HW161468   7.773   5.672   3.746  0.0754 -1.4612  1.0187
16581SOL    HW261469   7.707   5.540   3.710  1.6825 -1.9239 -0.3781
16582SOL     OW61470   8.541  11.959   2.869  0.1143  0.0998  0.0928
16582SOL    HW161471   8.537  11.863   2.866 -0.2930  0.0500  1.4831
16582SOL    HW261472   8.626  11.980   2.832  0.0576 -0.7769 -0.5839
16583SOL     OW61473   8.439   5.805   8.646  0.2089  0.0945 -0.0482
16583SOL    HW161474   8.437   5.857   8.726 -0.0517  0.7308 -0.4552
16583SOL    HW261475   8.470   5.719   8.674 -0.0436  0.2545  0.7627
16584SOL     OW61476  10.980   8.457   5.872 -0.2842  0.4005  0.3797
16584SOL    HW161477  10.944   8.530   5.821  0.2801  1.4509  1.4343
16584SOL    HW261478  10.930   8.457   5.953  0.2627  0.1483  0.7274
16585SOL     OW61479  12.143  10.268  13.019 -0.2400 -0.0798 -0.1208
16585SOL    HW161480  12.082  10.222  12.961  1.6110 -0.7121 -1.6635
16585SOL    HW261481  12.122  10.234  13.106 -1.1787 -1.3006 -0.7839
16586SOL     OW61482   8.301   5.601  10.774 -0.6216  0.1705 -0.3759
16586SOL    HW161483   8.241   5.657  10.823 -0.1765  0.0220  0.3404
16586SOL    HW261484   8.387   5.621  10.810 -0.4496 -0.9232 -0.1648
16587SOL     OW61485   6.406   3.243   1.386 -0.0694 -0.1217  0.6771
16587SOL    HW161486   6.461   3.306   1.433 -1.2827  0.3969  1.4317
16587SOL    HW261487   6.451   3.230   1.302  0.3337  1.5651  0.6000
16588SOL     OW61488  12.716  12.927   2.292  0.0326 -0.5089  0.7002
16588SOL    HW161489  12.698  12.898   2.381  0.3550 -0.7441  0.6912
16588SOL    HW261490  12.739  13.020   2.300 -0.8786 -0.2754  0.7463
16589SOL     OW61491  10.996  13.330   4.308  0.3598 -0.4722  0.5171
16589SOL    HW161492  11.045  13.370   4.380  1.4905  0.0040 -0.4907
16589SOL    HW261493  10.965  13.403   4.255  0.0171 -0.8335  0.2043
16590SOL     OW61494   5.013  13.295  10.023  0.2306 -0.3312  0.0623
16590SOL    HW161495   4.983  13.278   9.933 -0.0236 -0.2924  0.1379
16590SOL    HW261496   5.033  13.389  10.024 -2.5245  0.3397  0.8153
16591SOL     OW61497   2.863  11.942   0.040 -0.1218  0.5303 -0.3717
16591SOL    HW161498   2.908  11.880   0.097  0.2487 -0.0403 -1.2717
16591SOL    HW261499   2.805  11.990   0.099  0.4962  0.1826  0.5370
16592SOL     OW61500   2.195  13.454   5.125  0.0006  0.3548 -0.0948
16592SOL    HW161501   2.208  13.526   5.186  0.4917  0.1980 -0.0075
16592SOL    HW261502   2.224  13.376   5.173  0.8457  0.2871 -0.6757
16593SOL     OW61503   2.187   8.024  11.655  0.3824 -0.1135 -0.0115
16593SOL    HW161504   2.208   8.117  11.645 -1.4023  0.5747  1.9270
16593SOL    HW261505   2.152   8.016  11.743  0.2412 -2.6172 -0.2013
16594SOL     OW61506   0.309   7.298  13.360 -0.1805 -0.3205  0.1470
16594SOL    HW161507   0.307   7.391  13.337 -1.9408 -0.7810 -1.9550
16594SOL    HW261508   0.391   7.266  13.323 -0.4810  0.0404 -0.8690
16595SOL     OW61509  12.867   2.344  11.172  0.2054 -0.4742 -0.5637
16595SOL    HW161510  12.816   2.416  11.137  0.6860  0.1463 -0.0294
16595SOL    HW261511  12.914   2.308  11.097  1.9852  1.4541 -0.4565
16596SOL     OW61512   6.662  10.991   0.124 -0.1559  0.2374  0.4868
16596SOL    HW161513   6.686  10.905   0.158  0.3117 -0.5822 -1.7435
16596SOL    HW261514   6.736  11.047   0.146 -0.5119  0.1453  2.0500
16597SOL     OW61515   5.407  11.353   3.657  0.2238 -0.6846  0.3099
16597SOL    HW161516   5.313  11.342   3.673  0.2806 -0.3370  0.9129
16597SOL    HW261517   5.438  11.264   3.640 -0.4240 -0.6598 -1.1613
16598SOL     OW61518   5.246   3.803  12.051  0.4010 -0.4350 -0.1487
16598SOL    HW161519   5.297   3.852  11.987  1.6804  0.2102  1.2808
16598SOL    HW261520   5.270   3.712  12.038  3.8563 -0.0034  1.9417
16599SOL     OW61521  10.199   9.596   1.910  0.4262  0.1681 -0.4017
16599SOL    HW161522  10.118   9.627   1.871  1.3607  1.4449 -1.4296
16599SOL    HW261523  10.214   9.511   1.868 -0.5840 -0.2980  0.1429
16600SOL     OW61524   2.047   7.041  11.113  0.2389  0.4522 -0.5137
16600SOL    HW161525   2.026   7.039  11.206 -2.5256  0.3610 -1.0532
16600SOL    HW261526   2.109   7.113  11.104 -0.4874  1.3532  1.2168
16601SOL     OW61527   7.786   9.176   1.657 -0.4229  0.4628 -0.1964
16601SOL    HW161528   7.788   9.104   1.721  0.5014 -0.4965 -1.2543
16601SOL    HW261529   7.830   9.248   1.701 -0.7779  0.1757  0.6519
16602SOL     OW61530   9.629   0.212  12.118 -0.6122  0.0636  0.1025
16602SOL    HW161531   9.705   0.160  12.093 -2.4244 -1.8269 -1.9150
16602SOL    HW261532   9.648   0.301  12.087  0.6333 -0.4428 -0.6143
16603SOL     OW61533   0.133   2.519   9.591  0.0345 -0.4075 -0.0805
16603SOL    HW161534   0.207   2.460   9.575  1.3435  1.8247 -3.4314
16603SOL    HW261535   0.166   2.583   9.654  0.2944 -0.5027 -0.1197
16604SOL     OW61536   2.830  13.073   7.066 -0.1465 -0.4219  0.1438
16604SOL    HW161537   2.783  13.133   7.124  0.4755 -1.3789  1.7309
16604SOL    HW261538   2.922  13.080   7.094  0.2247 -0.6654 -0.9710
16605SOL     OW61539  12.053   7.996  13.537  0.4035 -0.5178 -0.8752
16605SOL    HW161540  12.026   7.919  13.488  0.4756 -0.3214 -1.2277
16605SOL    HW261541  12.067   8.063  13.471 -2.1132  0.5651 -0.4146
16606SOL     OW61542   3.793   4.177   1.229  0.0621  0.6199 -0.4472
16606SOL    HW161543   3.864   4.167   1.292  1.6335  1.6035 -1.9617
16606SOL    HW261544   3.762   4.267   1.240  0.5092  0.8772 -1.2143
16607SOL     OW61545   3.059   9.158   3.991  0.1025  0.5436 -0.0294
16607SOL    HW161546   3.116   9.189   3.922 -1.0572  1.0912 -0.7676
16607SOL    HW261547   3.100   9.077   4.021  1.2589  0.9278 -0.5199
16608SOL     OW61548  11.348  10.759  12.625  0.0932 -0.1782  0.1115
16608SOL    HW161549  11.398  10.737  12.546  0.3344  1.0677 -0.1052
16608SOL    HW261550  11.415  10.781  12.690 -0.1448  1.3253 -0.1245
16609SOL     OW61551   3.389  10.783   4.595  0.0155 -0.2599  0.2978
16609SOL    HW161552   3.338  10.772   4.676  1.1891 -1.1398  0.9518
16609SOL    HW261553   3.333  10.747   4.527 -0.5847 -0.4329  0.8656
16610SOL     OW61554   9.083   1.334   5.886 -0.0073 -0.0779  0.3880
16610SOL    HW161555   9.019   1.403   5.876  1.0699  0.7348 -1.3736
16610SOL    HW261556   9.115   1.344   5.976 -0.1861  1.4388  0.3055
16611SOL     OW61557   0.229   3.368  13.735 -1.0011  0.6684  0.1757
16611SOL    HW161558   0.203   3.310  13.664 -2.7697  2.4508 -0.7080
16611SOL    HW261559   0.293   3.428  13.695  0.3686 -0.2143  0.9345
16612SOL     OW61560   4.746   9.200   0.096 -0.4132 -0.5387 -0.6441
16612SOL    HW161561   4.778   9.280   0.139 -0.9015 -1.0614  0.7624
16612SOL    HW261562   4.675   9.230   0.040 -1.7727 -0.1507  1.1952
16613SOL     OW61563  11.546   5.781  10.061 -0.3201  0.6772  0.1495
16613SOL    HW161564  11.553   5.686  10.046  0.1514  0.6134  0.7130
16613SOL    HW261565  11.571   5.820   9.978  1.2663  0.3163  0.4109
16614SOL     OW61566   0.161   8.140   0.547  0.3899  1.2203 -0.0510
16614SOL    HW161567   0.084   8.196   0.551 -0.6757 -0.1868 -0.1186
16614SOL    HW261568   0.230   8.190   0.591 -0.8433  2.0668  0.9813
16615SOL     OW61569  10.871  12.461  10.045  0.2332 -0.6984 -0.6475
16615SOL    HW161570  10.919  12.510   9.977 -0.4307  0.1030 -0.5549
16615SOL    HW261571  10.816  12.527  10.087  0.2295 -1.2988  0.3145
16616SOL     OW61572   1.847   8.378   8.969  0.1478  0.2211 -0.7301
16616SOL    HW161573   1.856   8.396   9.062 -1.0007 -1.7330 -0.1947
16616SOL    HW261574   1.758   8.407   8.947  0.4853  0.8797 -1.3091
16617SOL     OW61575   3.807   3.659   7.069 -0.2959 -0.2144 -0.6353
16617SOL    HW161576   3.779   3.574   7.035 -0.0991 -0.0682 -1.1697
16617SOL    HW261577   3.892   3.675   7.028  0.1799 -0.2686  0.3262
16618SOL     OW61578   2.203  10.807  13.008 -0.1715 -0.2794 -0.4209
16618SOL    HW161579   2.203  10.757  13.089  0.7756  0.1103 -0.1590
16618SOL    HW261580   2.156  10.752  12.945  0.0048 -1.0599  0.1159
16619SOL     OW61581   7.339   1.484   6.842  0.3441  0.3684  0.0171
16619SOL    HW161582   7.296   1.482   6.928  0.3413 -2.0177  0.0490
16619SOL    HW261583   7.429   1.508   6.861  0.7606 -1.6542  0.9970
16620SOL     OW61584   9.117   8.370   9.259 -0.0570 -0.0337  0.3977
16620SOL    HW161585   9.095   8.299   9.318  3.2882 -1.6781 -0.1444
16620SOL    HW261586   9.048   8.367   9.192 -0.2143 -2.5358  0.5815
16621SOL     OW61587   3.158   7.344   9.938 -0.3193  0.2054 -0.0913
16621SOL    HW161588   3.134   7.431   9.970 -0.4233 -0.5435  2.0067
16621SOL    HW261589   3.087   7.320   9.878 -1.9201  0.3328  1.6686
16622SOL     OW61590  11.886   0.386   0.590 -0.4217 -0.4111 -0.1138
16622SOL    HW161591  11.867   0.480   0.588 -1.1307 -0.5385  0.2263
16622SOL    HW261592  11.970   0.380   0.634 -0.2724  0.0759 -0.3127
16623SOL     OW61593   9.604  12.548   2.364 -0.0381  0.2800  0.0843
16623SOL    HW161594   9.574  12.467   2.406 -2.1246  1.0585  0.2319
16623SOL    HW261595   9.622  12.522   2.273  0.0575 -0.5019  0.3214
16624SOL     OW61596   4.914  13.117   3.964  0.4334  0.4407  0.0768
16624SOL    HW161597   4.870  13.056   4.023  1.0489  1.1709  1.3381
16624SOL    HW261598   5.004  13.121   3.996  0.4255  1.9382 -0.0271
16625SOL     OW61599   8.608  11.810  13.513 -0.4950  0.4604  0.6243
16625SOL    HW161600   8.578  11.855  13.434  0.9688  2.0459  0.9108
16625SOL    HW261601   8.599  11.717  13.492 -3.0954  0.8134 -0.1980
16626SOL     OW61602   4.383   9.733   9.628 -0.3020 -0.3545  0.4832
16626SOL    HW161603   4.414   9.822   9.616 -1.3345 -0.0088  0.2861
16626SOL    HW261604   4.401   9.713   9.720 -0.6072  0.2658  0.6778
16627SOL     OW61605   8.451   3.254  11.623  0.1455 -0.1148  0.2584
16627SOL    HW161606   8.487   3.281  11.538  1.0025  0.3519  0.7477
16627SOL    HW261607   8.381   3.317  11.640  0.2068  0.0089  0.0608
16628SOL     OW61608   0.929   1.517   7.016 -0.4607 -0.4328  0.6625
16628SOL    HW161609   1.001   1.479   7.066  1.4396 -0.3846 -1.8454
16628SOL    HW261610   0.927   1.466   6.934 -1.3680  1.3955 -0.5307
16629SOL     OW61611   7.456  13.142   8.707  0.2155  0.1401  0.1193
16629SOL    HW161612   7.363  13.118   8.708 -0.2485  1.8389  0.1505
16629SOL    HW261613   7.498  13.073   8.656 -0.7677 -1.6127  1.5419
16630SOL     OW61614  13.361   9.824   1.305 -0.0569  0.3398 -0.4202
16630SOL    HW161615  13.352   9.892   1.373  1.5117 -0.4197  0.6020
16630SOL    HW261616  13.357   9.873   1.223 -3.0143  1.1896  0.0926
16631SOL     OW61617   9.388  10.033   7.362 -0.1278  0.2589  0.9725
16631SOL    HW161618   9.408  10.000   7.450  0.0036 -2.0223  0.1803
16631SOL    HW261619   9.451  10.103   7.348  0.5229 -0.0147  2.3316
16632SOL     OW61620  11.227  13.414  10.316  0.4585  0.1242 -0.7496
16632SOL    HW161621  11.281  13.484  10.353  0.6300 -0.3173 -0.1557
16632SOL    HW261622  11.233  13.427  10.221  2.6636 -0.6844 -0.7842
16633SOL     OW61623   2.896   9.655   0.280  0.1605  0.0047 -0.5024
16633SOL    HW161624   2.897   9.563   0.252  2.2807 -0.2929  0.3284
16633SOL    HW261625   2.954   9.699   0.217  1.3635  0.1998  0.7012
16634SOL     OW61626   7.065   2.056   9.607 -0.1119 -0.1676 -0.2505
16634SOL    HW161627   7.149   2.101   9.597  0.4645 -0.7371  1.5782
16634SOL    HW261628   7.088   1.973   9.649 -1.6519 -0.0359  0.9379
16635SOL     OW61629   6.662   6.409   8.019  0.2448  0.4817 -0.2979
16635SOL    HW161630   6.748   6.447   8.001 -0.0327  1.5531  0.5463
16635SOL    HW261631   6.668   6.377   8.109 -0.3013  0.7438 -0.1633
16636SOL     OW61632  11.800   3.761   5.931  0.1015  0.0147  0.2359
16636SOL    HW161633  11.811   3.759   6.026 -0.1476 -1.2591  0.2543
16636SOL    HW261634  11.868   3.703   5.897 -0.8996 -0.9469 -0.2165
16637SOL     OW61635   2.904   0.057  11.493 -0.4949  0.1997 -0.5952
16637SOL    HW161636   2.904   0.001  11.416  1.8829 -0.3206 -0.3091
16637SOL    HW261637   2.932   0.143  11.460 -0.3590  0.2087 -0.4595
16638SOL     OW61638   5.165   9.740   3.288  0.1564  0.0726  0.5959
16638SOL    HW161639   5.109   9.710   3.360 -1.3209  1.2898  0.0036
16638SOL    HW261640   5.164   9.668   3.225 -1.0684  0.2124  0.4336
16639SOL     OW61641   2.976  12.547   5.914  0.1037  0.3820  0.2739
16639SOL    HW161642   2.894  12.594   5.899 -0.4188  0.1822  2.2529
16639SOL    HW261643   3.040  12.595   5.862 -1.1498  0.8183 -0.9576
16640SOL     OW61644   3.977   0.901   0.073 -0.0438  0.3965  0.3102
16640SOL    HW161645   3.885   0.898   0.097 -0.4068  1.6456 -0.7622
16640SOL    HW261646   3.996   0.815   0.036 -0.7993  0.1549  0.4820
16641SOL     OW61647   7.199  12.378   2.864  0.0612  0.2772  0.2689
16641SOL    HW161648   7.145  12.342   2.935 -0.0382 -1.8678 -0.8182
16641SOL    HW261649   7.273  12.318   2.858 -0.0822  0.2274 -1.6058
16642SOL     OW61650   5.727  13.328   4.982  0.4629 -0.1223  0.3090
16642SOL    HW161651   5.659  13.277   5.026  0.1612 -0.3571 -0.4190
16642SOL    HW261652   5.810  13.289   5.012  0.3206  0.6548  1.7946
16643SOL     OW61653   7.406   2.952   7.923  0.4001  0.3152  0.0819
16643SOL    HW161654   7.382   3.043   7.905  1.6635  0.9314  1.3847
16643SOL    HW261655   7.324   2.911   7.951  0.2791  1.7358  2.0112
16644SOL     OW61656   8.953   0.041   4.864 -0.1779 -0.0972 -0.1234
16644SOL    HW161657   9.001  -0.041   4.855 -0.7052 -0.1817 -3.6135
16644SOL    HW261658   9.018   0.103   4.898  0.6205 -1.5570  1.1647
16645SOL     OW61659   8.951   1.496   8.137  0.1965  0.1274  0.5234
16645SOL    HW161660   8.939   1.562   8.206  1.1816 -0.2267  1.0514
16645SOL    HW261661   8.862   1.466   8.118 -0.1402  0.5756  1.3018
16646SOL     OW61662   2.574   4.941  11.332 -0.0448  0.3011 -0.1355
16646SOL    HW161663   2.655   4.954  11.383  1.2688 -1.7439 -1.5490
16646SOL    HW261664   2.570   4.847  11.317 -0.8789  0.7103 -2.9618
16647SOL     OW61665   4.376  13.097   0.168  0.5825 -0.2668 -0.7500
16647SOL    HW161666   4.458  13.093   0.217  0.0893 -1.3173  0.0282
16647SOL    HW261667   4.343  13.007   0.168 -1.5209  0.4283  0.6009
16648SOL     OW61668   0.871   8.349  10.112  0.1336  0.2698  0.0371
16648SOL    HW161669   0.872   8.362  10.207 -0.7064  0.9001 -0.0371
16648SOL    HW261670   0.921   8.422  10.077  1.8417 -0.8204  0.0648
16649SOL     OW61671   9.200   2.660   3.113  0.2736 -0.1858 -0.1529
16649SOL    HW161672   9.106   2.672   3.094  0.8346  1.3846 -2.3853
16649SOL    HW261673   9.232   2.609   3.039  1.2274 -0.5643  0.5142
16650SOL     OW61674   5.906   7.740  13.412  0.3105  0.5482 -0.9335
16650SOL    HW161675   5.829   7.701  13.371 -0.1761 -0.5383  0.8824
16650SOL    HW261676   5.964   7.762  13.339 -0.6022 -1.0261 -2.1956
16651SOL     OW61677   2.946   1.352   2.006  0.3503  0.0644  0.2296
16651SOL    HW161678   2.864   1.330   1.961  1.1615  0.5722 -1.5971
16651SOL    HW261679   2.925   1.429   2.058 -0.2319  0.5008 -0.6216
16652SOL     OW61680  10.713  12.449   2.795  0.0615 -0.3919  0.3288
16652SOL    HW161681  10.666  12.512   2.740  0.3424 -0.6628 -0.2369
16652SOL    HW261682  10.786  12.499   2.831 -0.4145 -0.0814  0.8676
16653SOL     OW61683   1.244   4.158   0.059  0.2524  0.0373 -0.0218
16653SOL    HW161684   1.332   4.193   0.070  0.2655  0.2175 -0.6758
16653SOL    HW261685   1.247   4.072   0.102  0.3994  0.5435  1.0176
16654SOL     OW61686   0.250   1.935   0.188 -0.5630  0.2125 -0.3466
16654SOL    HW161687   0.285   1.983   0.113  1.6762 -1.1602 -0.2604
16654SOL    HW261688   0.245   2.001   0.258  3.0961  0.4011 -0.0249
16655SOL     OW61689  10.770   1.483   0.233 -0.3620 -0.3279 -0.1812
16655SOL    HW161690  10.722   1.432   0.168 -0.1048  0.3997 -0.9636
16655SOL    HW261691  10.835   1.532   0.182 -0.8880  1.1152  0.4830
16656SOL     OW61692  10.576  12.020   1.998 -0.8047 -0.0235 -0.1775
16656SOL    HW161693  10.599  12.112   1.987 -0.3262 -0.0581  0.4541
16656SOL    HW261694  10.628  11.974   1.933 -1.9569  0.2478 -1.3467
16657SOL     OW61695   1.998   4.443  10.135 -0.2715 -0.3813  0.1417
16657SOL    HW161696   1.950   4.361  10.123  0.9151 -0.9590 -0.8207
16657SOL    HW261697   1.959   4.504  10.072  1.8124 -1.5857 -2.5159
16658SOL     OW61698   4.907   3.060   1.748  0.2764  0.0522  0.1314
16658SOL    HW161699   4.963   3.136   1.763  1.2491 -0.8976  1.5770
16658SOL    HW261700   4.882   3.066   1.655  1.7180  1.2098 -0.2151
16659SOL     OW61701  11.555   7.784   5.157 -0.1468 -0.1857  0.1811
16659SOL    HW161702  11.528   7.872   5.181  1.1662  0.5322 -0.8533
16659SOL    HW261703  11.646   7.793   5.129  0.7927 -2.2737  2.2519
16660SOL     OW61704   7.058  10.111   1.973  0.1089 -0.3192 -0.4786
16660SOL    HW161705   6.977  10.149   1.939 -0.2917 -0.8904 -0.1808
16660SOL    HW261706   7.030  10.033   2.021  0.9371 -1.3130 -1.5435
16661SOL     OW61707   0.964  12.977   3.440 -0.2271  0.5457  0.4504
16661SOL    HW161708   0.884  13.029   3.441 -1.3978 -1.1632 -0.2649
16661SOL    HW261709   0.934  12.886   3.441  1.6252 -0.1923 -1.9029
16662SOL     OW61710   2.036   0.958  10.304  0.0132 -0.0922  0.2963
16662SOL    HW161711   1.981   0.910  10.366  0.4906 -0.0291  0.7720
16662SOL    HW261712   2.119   0.911  10.306 -0.1433 -0.4334 -0.7247
16663SOL     OW61713   6.284   0.789   6.070 -0.0806 -0.2984  0.1309
16663SOL    HW161714   6.288   0.704   6.027  0.3376 -0.4858  0.5206
16663SOL    HW261715   6.192   0.802   6.091 -0.1356 -0.6959  0.1394
16664SOL     OW61716   7.732   7.526   0.938 -0.2310 -0.1511 -0.2917
16664SOL    HW161717   7.638   7.517   0.955 -0.5968  2.1520 -0.7770
16664SOL    HW261718   7.743   7.495   0.849 -0.1927 -1.9602  0.2906
16665SOL     OW61719  11.786  12.672   2.023 -0.4665 -0.2225  0.0269
16665SOL    HW161720  11.754  12.612   2.091 -0.4031  0.5469  0.7473
16665SOL    HW261721  11.825  12.745   2.072  2.4916 -1.1106 -0.7580
16666SOL     OW61722   9.256   5.868   7.007 -0.2367 -0.1494 -0.2081
16666SOL    HW161723   9.231   5.900   7.094 -3.3851 -2.0357 -0.2533
16666SOL    HW261724   9.265   5.947   6.954 -2.8607  0.9699  0.8157
16667SOL     OW61725  10.164   6.652   2.155 -0.2497 -0.4376 -0.5096
16667SOL    HW161726  10.227   6.621   2.219 -1.7635 -0.5415  0.9827
16667SOL    HW261727  10.206   6.729   2.115  0.6959 -0.3255  0.6531
16668SOL     OW61728   2.318   0.471  11.396 -0.2951 -0.4674  0.1904
16668SOL    HW161729   2.274   0.513  11.322 -1.7009 -1.6672  0.2866
16668SOL    HW261730   2.254   0.475  11.467  0.2459 -1.1249  0.7322
16669SOL     OW61731   3.654   3.813   2.711 -0.2630 -0.1910  0.1764
16669SOL    HW161732   3.570   3.800   2.668 -0.3165 -0.1099  0.2534
16669SOL    HW261733   3.689   3.725   2.724 -0.8636 -0.3000  1.1729
16670SOL     OW61734   6.619   9.989   2.798 -0.0521 -0.4548  0.2266
16670SOL    HW161735   6.708   9.980   2.764 -0.1984 -0.9543 -0.0316
16670SOL    HW261736   6.581  10.061   2.748  1.2174  1.9526  2.4881
16671SOL     OW61737   2.542   4.060   5.509 -0.1013 -0.4653 -0.2647
16671SOL    HW161738   2.591   4.093   5.433 -2.7290 -0.3064 -2.0507
16671SOL    HW261739   2.561   3.966   5.511  2.6917  0.0507  1.1108
16672SOL     OW61740  12.014   6.781   4.969  0.5078 -0.3846  0.1850
16672SOL    HW161741  12.023   6.847   5.037 -0.8309  0.6098 -0.5676
16672SOL    HW261742  12.019   6.697   5.016 -1.2034  0.2699  1.6436
16673SOL     OW61743   9.177   5.369   2.578  0.0121  0.2925 -0.0113
16673SOL    HW161744   9.133   5.452   2.599 -1.3464 -0.7802  1.6568
16673SOL    HW261745   9.263   5.378   2.619  0.0563  1.0602 -0.2473
16674SOL     OW61746   1.374  12.190   0.562  0.0635 -0.1156  0.1989
16674SOL    HW161747   1.303  12.165   0.503  1.8590 -1.8719 -1.3984
16674SOL    HW261748   1.339  12.178   0.650 -1.2329 -2.2233 -0.5345
16675SOL     OW61749   6.087  11.577  12.077 -0.1270 -0.3795 -0.0539
16675SOL    HW161750   6.092  11.519  12.153 -1.2177  0.0959  0.3988
16675SOL    HW261751   6.097  11.518  12.002 -0.2071 -1.0209  0.4294
16676SOL     OW61752   5.734  12.146   4.386  0.4967 -0.2739 -0.0870
16676SOL    HW161753   5.744  12.053   4.365 -1.3319 -0.1528 -1.7901
16676SOL    HW261754   5.643  12.154   4.417  0.7825  0.8712  0.5049
16677SOL     OW61755  12.765   4.021   8.359  0.0613  0.4081  0.2091
16677SOL    HW161756  12.753   4.097   8.416 -2.0177 -0.6782  1.3460
16677SOL    HW261757  12.788   3.950   8.419 -0.0719 -0.3091 -0.5762
16678SOL     OW61758   2.927   1.382  13.101 -0.3253  0.0948  0.2818
16678SOL    HW161759   2.953   1.405  13.190 -2.0837  1.3203  0.5201
16678SOL    HW261760   3.010   1.371  13.054  0.6389 -0.8749  2.1157
16679SOL     OW61761  11.943   9.738  10.936  0.1272 -0.2703 -0.0460
16679SOL    HW161762  11.983   9.660  10.898 -1.9005 -1.3250 -0.1857
16679SOL    HW261763  11.851   9.714  10.947 -0.3084  1.6963  1.0596
16680SOL     OW61764   8.154   5.355  12.219  0.3368  0.0868  0.1772
16680SOL    HW161765   8.248   5.337  12.212  0.2921  0.2423 -1.0480
16680SOL    HW261766   8.147   5.419  12.291  1.1337 -0.0866  0.4207
16681SOL     OW61767   8.675   3.886   0.411  0.2695 -0.0378 -0.2493
16681SOL    HW161768   8.770   3.881   0.398  0.5213 -0.3298  1.4804
16681SOL    HW261769   8.664   3.960   0.471 -0.7990  1.2452 -1.9295
16682SOL     OW61770   6.574   1.888  10.552  0.1038 -0.3421  0.6210
16682SOL    HW161771   6.489   1.933  10.549  0.0581 -0.4668 -0.5955
16682SOL    HW261772   6.612   1.904  10.465  0.9722 -0.9630  0.8794
16683SOL     OW61773   1.418  10.143   6.002 -0.4499 -0.1049  0.4010
16683SOL    HW161774   1.494  10.188   6.039  0.6536 -1.2008 -0.4271
16683SOL    HW261775   1.343  10.185   6.043  0.6257  0.4439  1.9115
16684SOL     OW61776   1.823   9.053   2.651 -0.7846 -0.4259  0.3607
16684SOL    HW161777   1.802   9.128   2.595 -0.5611 -0.8762 -0.3366
16684SOL    HW261778   1.743   9.037   2.701 -1.4136 -0.7947 -0.7343
16685SOL     OW61779   1.379   9.451   7.109 -0.2377 -0.2901 -0.5058
16685SOL    HW161780   1.346   9.479   7.024 -0.9151  1.4991  0.3045
16685SOL    HW261781   1.420   9.366   7.092  1.0688  0.7245 -2.9260
16686SOL     OW61782  11.814   3.309   3.194 -0.9249 -0.5018 -0.1852
16686SOL    HW161783  11.831   3.236   3.135 -0.1084  0.6451 -1.4022
16686SOL    HW261784  11.819   3.270   3.282 -0.3090 -1.8536 -0.7934
16687SOL     OW61785  10.859   0.618   6.623 -0.7956 -0.1420 -0.0472
16687SOL    HW161786  10.771   0.592   6.649 -0.5257 -0.0256  1.0505
16687SOL    HW261787  10.878   0.696   6.676  0.2040 -0.5421  0.2155
16688SOL     OW61788   5.931   1.414   1.078  0.2924 -0.1834 -0.2430
16688SOL    HW161789   5.899   1.427   0.989  1.2084  2.5077 -0.2799
16688SOL    HW261790   5.863   1.453   1.133 -0.2643 -1.8246  0.3040
16689SOL     OW61791   1.242   0.957   2.027 -0.3290 -0.4017  0.0672
16689SOL    HW161792   1.196   0.904   1.961 -1.1180 -0.5923  0.7583
16689SOL    HW261793   1.178   0.969   2.097  0.3518  0.1858  0.5992
16690SOL     OW61794   6.099   2.268  13.118 -0.6485  0.3728  0.2347
16690SOL    HW161795   6.080   2.255  13.211  0.1862 -0.6582  0.2768
16690SOL    HW261796   6.018   2.245  13.074 -1.2393  1.4172  0.7145
16691SOL     OW61797   2.354   2.643   5.590 -0.2355  0.6932 -0.5406
16691SOL    HW161798   2.382   2.578   5.525  1.7614  0.2822  0.6308
16691SOL    HW261799   2.319   2.591   5.662  1.1907  0.8856  0.3189
16692SOL     OW61800   0.104  12.250   0.760 -0.2092  0.3499  0.8542
16692SOL    HW161801   0.099  12.283   0.671 -0.1356  0.4472  0.8867
16692SOL    HW261802   0.082  12.325   0.815  0.9224  0.6164  0.9726
16693SOL     OW61803   8.152   9.831   9.811  0.0407  0.9716  0.1144
16693SOL    HW161804   8.248   9.831   9.806  0.0945  1.1195  0.9643
16693SOL    HW261805   8.129   9.922   9.829 -0.3684  1.2313 -1.6333
16694SOL     OW61806   0.341   7.033  12.143  0.0432  0.0913  0.0995
16694SOL    HW161807   0.409   7.080  12.095 -0.0766 -0.1532 -0.3241
16694SOL    HW261808   0.389   6.979  12.206  0.2657 -0.3531 -0.4422
16695SOL     OW61809   3.877   4.806   9.495  0.2294  0.1811  0.1464
16695SOL    HW161810   3.806   4.792   9.433 -0.8663  0.8049  1.2238
16695SOL    HW261811   3.872   4.899   9.517  1.2677  0.1954  0.3895
16696SOL     OW61812   2.807  12.169   4.991  0.8514  0.7575  0.5994
16696SOL    HW161813   2.784  12.260   5.012 -1.8108  0.2479  0.2778
16696SOL    HW261814   2.763  12.117   5.059  0.1321 -0.3947 -0.6922
16697SOL     OW61815   5.349   8.380   7.568  0.2775  0.0056  0.0906
16697SOL    HW161816   5.355   8.290   7.600  2.6776 -0.0847 -0.4853
16697SOL    HW261817   5.370   8.374   7.475  0.6352  1.1934  0.0858
16698SOL     OW61818   5.302   9.996  10.545  0.3627  0.5642 -0.0039
16698SOL    HW161819   5.228  10.057  10.552 -0.9630 -1.0918  1.1378
16698SOL    HW261820   5.276   9.921  10.598  3.1546  0.1625  0.9137
16699SOL     OW61821   3.173   7.393  13.745  0.0231 -0.2456  0.1777
16699SOL    HW161822   3.124   7.452  13.687 -1.5654 -1.2736  0.4104
16699SOL    HW261823   3.257   7.382  13.701 -0.7822 -0.2380 -1.4587
16700SOL     OW61824   3.933   5.382   6.859 -0.2932 -1.0376 -0.0730
16700SOL    HW161825   3.866   5.449   6.864  0.5255 -0.1424 -0.6909
16700SOL    HW261826   3.947   5.355   6.950 -0.3614 -0.0946  0.2264
16701SOL     OW61827   2.808   3.441   2.479 -0.4660 -0.0443  0.0035
16701SOL    HW161828   2.903   3.437   2.477 -0.4550 -1.1475  1.2802
16701SOL    HW261829   2.787   3.475   2.566 -1.2321  0.7114 -0.4688
16702SOL     OW61830   8.680  11.810   0.498 -0.2808 -0.1977 -0.1708
16702SOL    HW161831   8.668  11.868   0.422 -0.1676 -0.6350 -0.5282
16702SOL    HW261832   8.598  11.815   0.545 -0.1831  0.4520 -0.0614
16703SOL     OW61833   3.479   4.550   6.869 -0.2548  0.0860 -0.1766
16703SOL    HW161834   3.425   4.559   6.791 -1.0300 -1.6263  0.1130
16703SOL    HW261835   3.469   4.633   6.915 -0.4451  0.8002 -1.4791
16704SOL     OW61836   6.798   2.966   7.305 -0.3848  0.1694  0.0713
16704SOL    HW161837   6.889   2.943   7.323 -0.4875  0.1132  0.5498
16704SOL    HW261838   6.771   3.017   7.381 -0.8012  0.0439  0.0114
16705SOL     OW61839   2.268   5.405   1.820  0.3165 -0.6552 -0.0443
16705SOL    HW161840   2.228   5.471   1.875 -2.5538 -1.5637 -0.8910
16705SOL    HW261841   2.265   5.441   1.732 -0.8815 -1.6942 -0.4540
16706SOL     OW61842  10.737   5.667   4.305 -0.6116  0.9268 -0.4117
16706SOL    HW161843  10.810   5.641   4.360 -0.4068 -2.3781 -2.0099
16706SOL    HW261844  10.761   5.755   4.274  1.4886  0.9177  0.9672
16707SOL     OW61845   0.052   9.662   4.207 -0.2246  0.3661 -0.0326
16707SOL    HW161846   0.077   9.641   4.117 -1.1485 -0.9711 -0.0030
16707SOL    HW261847   0.117   9.618   4.261 -0.0173  0.6736 -0.0286
16708SOL     OW61848   9.087   8.201  10.556  0.2976 -0.1117 -0.1419
16708SOL    HW161849   9.121   8.131  10.611 -1.4237 -0.8431  0.0331
16708SOL    HW261850   8.995   8.210  10.581 -0.1377  0.5753 -1.8234
16709SOL     OW61851  11.227   3.202   1.807 -0.0532  0.1191 -0.2573
16709SOL    HW161852  11.202   3.137   1.742 -0.0906 -0.4540  0.3223
16709SOL    HW261853  11.170   3.277   1.789 -2.3604 -1.1921  1.0942
16710SOL     OW61854   0.446   2.167   3.152  0.1094  0.0628 -0.2828
16710SOL    HW161855   0.487   2.213   3.079  0.5885 -1.4919 -1.0337
16710SOL    HW261856   0.450   2.075   3.128 -0.4356 -0.4301  1.3587
16711SOL     OW61857  10.192   2.261  13.417 -0.9350 -0.2948  0.2481
16711SOL    HW161858  10.142   2.180  13.426 -0.7662 -0.3910  0.3171
16711SOL    HW261859  10.233   2.255  13.330  0.6477 -1.1706  1.0117
16712SOL     OW61860   9.232   2.553  12.849 -0.4404 -0.4788 -0.3774
16712SOL    HW161861   9.227   2.467  12.808 -0.2405 -0.2787 -0.8247
16712SOL    HW261862   9.241   2.534  12.943  0.7462 -0.9674 -0.5790
16713SOL     OW61863   4.572   3.292  11.443  0.2983  0.1076 -0.3894
16713SOL    HW161864   4.523   3.373  11.430 -0.8215 -0.6505 -1.0594
16713SOL    HW261865   4.607   3.270  11.356 -1.5067 -1.4049 -0.8016
16714SOL     OW61866   1.536   1.341   6.939  0.0226 -0.3328 -0.3999
16714SOL    HW161867   1.506   1.283   7.010  1.5567 -1.2597 -0.4492
16714SOL    HW261868   1.615   1.382   6.974  0.0417  0.2310 -1.0902
16715SOL     OW61869   4.051   1.593   0.098 -0.3234 -0.3305 -0.4636
16715SOL    HW161870   3.958   1.583   0.081 -0.5400  1.3998 -0.5007
16715SOL    HW261871   4.059   1.679   0.140  1.0728 -1.1133  1.0391
16716SOL     OW61872   1.103   8.586  10.418  0.8239 -0.5318 -0.5266
16716SOL    HW161873   1.122   8.526  10.490  0.9953  1.3956  1.1436
16716SOL    HW261874   1.185   8.635  10.405  0.3940  0.0520 -1.1260
16717SOL     OW61875   0.815   9.690   9.184 -0.2469 -0.7981 -0.3268
16717SOL    HW161876   0.891   9.704   9.127 -0.0275  0.2299  0.1865
16717SOL    HW261877   0.745   9.740   9.142 -0.1301 -0.1832  0.2017
16718SOL     OW61878  12.750   2.500   4.825 -0.4439  0.1129 -0.3530
16718SOL    HW161879  12.695   2.571   4.857 -2.2239 -0.1361 -2.5702
16718SOL    HW261880  12.818   2.543   4.773  0.4492  0.3176  0.9367
16719SOL     OW61881   7.014   4.520   1.352 -0.3533 -0.4206 -0.5652
16719SOL    HW161882   6.972   4.435   1.338 -1.7075  0.3717 -1.5484
16719SOL    HW261883   6.953   4.568   1.407  0.4421 -0.0986  0.0412
16720SOL     OW61884  10.132  13.170   0.208  0.4886  0.6930  0.1475
16720SOL    HW161885  10.168  13.092   0.166 -0.7435 -0.3165  0.9322
16720SOL    HW261886  10.194  13.190   0.278  0.7364  0.3415  0.0342
16721SOL     OW61887   1.367   3.840  12.194  0.1815  0.6777 -0.4290
16721SOL    HW161888   1.386   3.928  12.225  0.8954  0.3092  0.2186
16721SOL    HW261889   1.271   3.837  12.185  0.2311  1.8832 -1.6231
16722SOL     OW61890   9.969   3.575   3.471 -0.0715 -0.0637 -0.2425
16722SOL    HW161891  10.030   3.502   3.459 -0.2641 -0.1385 -0.7913
16722SOL    HW261892   9.950   3.575   3.564 -0.1774 -0.8051 -0.2592
16723SOL     OW61893   5.913   5.464  10.827  0.0497 -0.7603 -0.0216
16723SOL    HW161894   5.827   5.425  10.842  0.2916 -1.5901 -0.6596
16723SOL    HW261895   5.960   5.397  10.776  1.2229 -0.5185  0.7146
16724SOL     OW61896  11.279   4.129   3.789  1.1215  0.2623 -0.5046
16724SOL    HW161897  11.334   4.190   3.739  0.8726  1.5771  0.7475
16724SOL    HW261898  11.193   4.135   3.748  0.5135  2.5007  0.8927
16725SOL     OW61899  13.147   4.257   5.777 -1.0427 -0.3030  0.2101
16725SOL    HW161900  13.147   4.161   5.778  0.2916 -0.3305  0.0540
16725SOL    HW261901  13.137   4.280   5.685  0.8005 -0.3677 -0.0501
16726SOL     OW61902  13.741   4.946   7.452  0.1252  0.0377  0.7008
16726SOL    HW161903  13.788   4.951   7.535  1.2779  0.3602  0.0636
16726SOL    HW261904  13.652   4.972   7.473  0.3561 -0.0589  1.8652
16727SOL     OW61905  10.426   0.874   1.955 -0.1118 -0.2328 -0.2910
16727SOL    HW161906  10.367   0.907   1.887 -0.5829  0.0472  0.2442
16727SOL    HW261907  10.417   0.936   2.027  0.4062 -0.5096  0.0175
16728SOL     OW61908  13.416   2.502   8.403 -0.0369 -0.0728 -0.3169
16728SOL    HW161909  13.378   2.423   8.443 -0.7589  0.0856 -0.6811
16728SOL    HW261910  13.362   2.518   8.326  0.2741  0.6271 -0.3922
16729SOL     OW61911  11.379   2.941  12.297 -0.4932 -0.2423 -0.4774
16729SOL    HW161912  11.295   2.952  12.342  0.2016  3.4140  0.1921
16729SOL    HW261913  11.441   2.917  12.366  0.0522  2.7889  0.2063
16730SOL     OW61914  10.718  10.623   5.419 -0.6089  0.3493 -0.2472
16730SOL    HW161915  10.809  10.594   5.419 -0.7158  0.0003  0.1542
16730SOL    HW261916  10.681  10.588   5.338 -0.4799  0.1731 -0.2301
16731SOL     OW61917  12.732   5.174   7.970 -0.6611 -0.0749  0.4639
16731SOL    HW161918  12.645   5.145   7.942 -0.8697  2.1089 -1.4288
16731SOL    HW261919  12.716   5.249   8.026 -0.0040  0.0045  0.5533
16732SOL     OW61920   6.398  10.020   0.032  0.3550 -0.3591 -0.5208
16732SOL    HW161921   6.478   9.974   0.056  0.3166 -0.4681 -0.6013
16732SOL    HW261922   6.361   9.969  -0.039 -0.0004 -0.5431 -0.2104
16733SOL     OW61923  10.482   8.509   6.264  0.0365  0.0406  0.0965
16733SOL    HW161924  10.495   8.602   6.282  1.5404  0.0414 -0.7979
16733SOL    HW261925  10.506   8.499   6.172 -1.5816 -0.9809 -0.2577
16734SOL     OW61926   4.792  13.213   7.798  0.2741  0.7956  0.1867
16734SOL    HW161927   4.841  13.295   7.792  1.3146  0.2848  1.1993
16734SOL    HW261928   4.846  13.157   7.856 -0.6475 -0.4177 -0.0858
16735SOL     OW61929   1.990  10.893  12.118 -0.3611  0.3737 -0.6490
16735SOL    HW161930   1.958  10.885  12.208 -1.4095 -0.0783 -1.0499
16735SOL    HW261931   2.085  10.880  12.125 -0.5082 -0.2746  0.3097
16736SOL     OW61932  12.819   4.057   3.951 -0.1058 -0.0431  0.4729
16736SOL    HW161933  12.875   4.135   3.955  1.2808 -1.0560  2.4942
16736SOL    HW261934  12.730   4.091   3.957  0.4827  1.3961  1.6004
16737SOL     OW61935  10.602  13.273  11.844 -0.1071 -0.3797 -0.9049
16737SOL    HW161936  10.578  13.186  11.876 -0.9238 -0.2562 -1.1612
16737SOL    HW261937  10.655  13.310  11.914  1.3420 -1.5669 -1.3273
16738SOL     OW61938   3.202  10.894   6.218 -0.1562  0.2081  0.2030
16738SOL    HW161939   3.183  10.800   6.214  0.8720  0.0287 -1.0683
16738SOL    HW261940   3.287  10.899   6.262 -0.1912  0.5398  0.2298
16739SOL     OW61941   4.494   6.767   5.863  0.7398 -0.2173  0.4549
16739SOL    HW161942   4.477   6.754   5.770 -2.1732 -0.8002  0.9582
16739SOL    HW261943   4.533   6.685   5.892 -1.9474 -1.6200  0.4023
16740SOL     OW61944  10.051   9.939   4.194  0.1428 -0.0154 -0.4468
16740SOL    HW161945   9.974   9.994   4.208 -0.1139 -0.3192 -0.6447
16740SOL    HW261946  10.096   9.939   4.279 -1.4883 -1.9785  0.5180
16741SOL     OW61947  12.546   7.841   3.365 -0.9073 -0.4874 -0.3068
16741SOL    HW161948  12.553   7.936   3.373  0.9242 -0.4448 -1.7831
16741SOL    HW261949  12.504   7.814   3.447  2.0909  1.2620  2.0546
16742SOL     OW61950   4.084   8.852   3.558  0.0154 -0.0927  0.3650
16742SOL    HW161951   4.147   8.804   3.612  0.3773 -0.2311 -0.1643
16742SOL    HW261952   4.012   8.872   3.617  0.6040  0.1622  1.0161
16743SOL     OW61953   2.543  12.431   6.132 -0.3926 -0.5695  0.5476
16743SOL    HW161954   2.604  12.357   6.128  0.8664  0.4057  0.9366
16743SOL    HW261955   2.597  12.505   6.161 -1.6964  0.4192  0.5478
16744SOL     OW61956   4.519  13.387   8.448 -0.5132  0.3718  0.2782
16744SOL    HW161957   4.483  13.469   8.413  1.1056  1.7490  1.6362
16744SOL    HW261958   4.579  13.356   8.380 -0.4040  0.8506  0.1511
16745SOL     OW61959  13.502   8.591   5.310 -1.1100 -0.1050 -0.2974
16745SOL    HW161960  13.526   8.683   5.298  0.6511 -0.5933 -0.7469
16745SOL    HW261961  13.565   8.558   5.374  0.2877 -1.7512 -2.4015
16746SOL     OW61962   5.486   4.015  13.462  0.7204  0.0413  0.9237
16746SOL    HW161963   5.489   3.980  13.551 -0.7624 -0.0896  0.9558
16746SOL    HW261964   5.451   3.943  13.409  0.7266  0.4106  0.4062
16747SOL     OW61965  13.068   3.510   9.943  0.6892 -0.4670  0.5429
16747SOL    HW161966  13.017   3.460   9.879 -1.2443 -1.9819  3.0589
16747SOL    HW261967  13.113   3.443   9.995  1.7381  0.6814  1.1663
16748SOL     OW61968  10.298   5.844   9.048 -0.0760  0.5063  0.0655
16748SOL    HW161969  10.240   5.853   8.973 -1.7810 -1.2517  1.0629
16748SOL    HW261970  10.284   5.924   9.099  0.9672  1.6296 -1.3585
16749SOL     OW61971   3.263  12.760   7.244  0.0587  0.2835  0.1555
16749SOL    HW161972   3.334  12.811   7.284  0.4262  0.4772 -0.7185
16749SOL    HW261973   3.300  12.728   7.162 -0.3284 -1.0246  0.4688
16750SOL     OW61974   2.455  12.695   4.265  0.2890 -0.0240 -0.1461
16750SOL    HW161975   2.529  12.635   4.280 -0.5832 -1.3264 -0.8821
16750SOL    HW261976   2.447  12.699   4.170 -0.4783  0.2443 -0.0752
16751SOL     OW61977  13.119  11.604   1.804  0.0708  0.4831 -0.7443
16751SOL    HW161978  13.199  11.563   1.840 -0.0341  0.6257 -0.3463
16751SOL    HW261979  13.048  11.546   1.831  0.2273 -0.8697 -2.9654
16752SOL     OW61980   5.471   1.779   8.032 -0.0181 -0.0549  0.4519
16752SOL    HW161981   5.523   1.825   7.966  0.3801  0.5180  1.1543
16752SOL    HW261982   5.536   1.739   8.090 -0.3436 -1.9375 -0.4048
16753SOL     OW61983  11.464   9.420   2.256 -0.0633 -0.2419 -1.1361
16753SOL    HW161984  11.442   9.363   2.183  1.6372 -0.8154 -1.2480
16753SOL    HW261985  11.535   9.375   2.301 -1.7100 -0.4171  1.5147
16754SOL     OW61986   3.711   6.263   5.490  0.6876  0.0602 -0.0033
16754SOL    HW161987   3.629   6.307   5.467 -1.1781 -3.3022 -0.3507
16754SOL    HW261988   3.700   6.238   5.582  1.2057 -0.6533 -0.1236
16755SOL     OW61989   1.402   8.142   1.299 -0.2140 -0.0243  0.2080
16755SOL    HW161990   1.458   8.109   1.370  0.4016 -0.3437 -0.4143
16755SOL    HW261991   1.334   8.191   1.344 -0.0214 -0.4942  1.0471
16756SOL     OW61992   4.219   4.976   6.196  0.1864  0.1142 -0.0105
16756SOL    HW161993   4.188   4.886   6.191  1.6026 -0.4509  0.7972
16756SOL    HW261994   4.301   4.975   6.147 -0.5446  1.3585 -1.3388
16757SOL     OW61995   3.778  11.151  12.726 -0.2081  0.1317  0.2609
16757SOL    HW161996   3.804  11.163  12.635 -0.2640  2.1378  0.4593
16757SOL    HW261997   3.683  11.136  12.723 -0.1793  0.0052 -0.0184
16758SOL     OW61998   9.176   5.549  10.223 -0.1364  0.2556 -0.6642
16758SOL    HW161999   9.172   5.643  10.209  1.5100  0.4365 -0.1193
16758SOL    HW262000   9.180   5.538  10.318 -0.6685 -0.4007 -0.7050
16759SOL     OW62001   7.662   2.745  11.985  0.1917 -0.0291  0.2571
16759SOL    HW162002   7.601   2.706  11.922  0.6060 -0.8851  0.3602
16759SOL    HW262003   7.707   2.814  11.936 -1.6059  1.3655  0.4855
16760SOL     OW62004   4.181   9.791  10.335 -0.1395 -0.2272 -0.5010
16760SOL    HW162005   4.251   9.823  10.279 -0.0023 -0.9259 -0.7415
16760SOL    HW262006   4.223   9.778  10.420  0.0996 -0.9213 -0.7196
16761SOL     OW62007  10.966   4.098  10.216 -0.4405  0.5170 -0.7053
16761SOL    HW162008  10.958   4.010  10.253  0.8044  0.7089  0.1140
16761SOL    HW262009  10.882   4.115  10.174 -1.5807 -0.1210  1.2088
16762SOL     OW62010   3.952   2.151   8.989  0.8150  0.1453  0.0398
16762SOL    HW162011   3.915   2.088   9.051 -1.3621  1.0285 -0.2520
16762SOL    HW262012   4.034   2.111   8.960 -0.6294 -2.8087 -0.4331
16763SOL     OW62013  11.133  12.952   9.079  0.4528 -0.1124 -0.1135
16763SOL    HW162014  11.103  12.869   9.115 -2.3227  0.8634  0.0615
16763SOL    HW262015  11.200  12.982   9.140 -0.2662 -1.0685  1.1900
16764SOL     OW62016   0.455   3.549  12.683 -0.0926 -0.5172 -0.2141
16764SOL    HW162017   0.415   3.493  12.749  0.4822 -1.7019 -0.8252
16764SOL    HW262018   0.547   3.555  12.708 -0.2503  0.5916  0.1248
16765SOL     OW62019   2.407   5.044   5.281  0.0472  0.3895  0.0783
16765SOL    HW162020   2.410   5.139   5.267  0.8635  0.4799  0.7872
16765SOL    HW262021   2.465   5.029   5.356 -0.0046 -0.6859 -0.0831
16766SOL     OW62022   9.195   8.032   3.492 -0.0141 -0.5428  0.2322
16766SOL    HW162023   9.156   7.946   3.475  1.5964 -1.2886  0.1031
16766SOL    HW262024   9.182   8.080   3.411  0.4575 -1.2257 -0.2581
16767SOL     OW62025   9.387   5.587   7.203 -0.5079  0.1167  0.3754
16767SOL    HW162026   9.438   5.539   7.138 -0.1044  1.4978 -0.3711
16767SOL    HW262027   9.330   5.521   7.242  0.6554 -1.1337  0.0444
16768SOL     OW62028  13.679   1.709   8.378  0.1013 -0.2266  0.0760
16768SOL    HW162029  13.585   1.725   8.368  0.1268 -1.0485 -1.7646
16768SOL    HW262030  13.693   1.710   8.473 -2.5789 -4.3543  0.7633
16769SOL     OW62031   1.983  12.968   4.078 -0.3786 -0.2672  0.0559
16769SOL    HW162032   2.011  13.059   4.072 -1.9886  0.3873  1.5259
16769SOL    HW262033   2.027  12.936   4.157  0.0871 -0.7419 -0.3908
16770SOL     OW62034  12.784   7.100   9.644  0.0124 -0.1976 -0.2880
16770SOL    HW162035  12.710   7.069   9.590 -1.0530  1.7419 -0.0107
16770SOL    HW262036  12.765   7.067   9.731 -0.5309  0.2533 -0.2264
16771SOL     OW62037   5.543  12.013  11.924  0.0792 -0.3117 -0.1778
16771SOL    HW162038   5.635  12.022  11.952 -0.2622  0.7715  0.6651
16771SOL    HW262039   5.529  12.087  11.865 -0.5880  0.2574  0.6690
16772SOL     OW62040   7.757   2.175   0.599  0.1772  0.7400  0.3480
16772SOL    HW162041   7.673   2.147   0.636  1.2259 -1.6569  1.0766
16772SOL    HW262042   7.749   2.156   0.505  0.1733 -0.2708  0.5426
16773SOL     OW62043   2.052   9.838   1.838 -0.2961  0.0402  0.3224
16773SOL    HW162044   2.030   9.929   1.859 -1.6630 -0.5955  1.8571
16773SOL    HW262045   2.060   9.837   1.743 -3.0899  1.2242 -0.0328
16774SOL     OW62046   3.548  10.017   3.908 -0.3394  0.1157  0.1058
16774SOL    HW162047   3.533  10.028   4.002  0.4226  0.1126  0.2335
16774SOL    HW262048   3.472   9.968   3.878 -0.5563  0.0472  0.7355
16775SOL     OW62049  12.396   0.100   1.201  0.0858 -0.0437  0.5197
16775SOL    HW162050  12.306   0.092   1.235  0.1300 -1.1804  0.3984
16775SOL    HW262051  12.443   0.146   1.271 -0.3171 -0.4967  1.1041
16776SOL     OW62052   2.566   9.373   1.687  0.0256 -0.5011 -0.0014
16776SOL    HW162053   2.485   9.333   1.718 -0.6499  1.2942  0.7382
16776SOL    HW262054   2.595   9.427   1.760  1.3846 -0.3612 -0.6081
16777SOL     OW62055   5.049  11.989   7.025  0.2362  0.0201 -0.3806
16777SOL    HW162056   4.992  11.986   6.948  1.1621  0.8329 -1.1380
16777SOL    HW262057   5.065  12.082   7.038 -0.9001 -0.0116  1.5919
16778SOL     OW62058   8.782   0.177   1.816  0.1479  0.6027  0.3421
16778SOL    HW162059   8.822   0.112   1.757  1.2910  1.0721  0.5843
16778SOL    HW262060   8.791   0.260   1.770  1.7150  1.0910  1.4608
16779SOL     OW62061  10.386   4.365   9.265 -0.1615 -0.4573  0.3026
16779SOL    HW162062  10.299   4.354   9.227 -0.6650 -0.0917  1.3219
16779SOL    HW262063  10.372   4.365   9.359  0.9116 -0.1499  0.4813
16780SOL     OW62064   9.548   8.875  13.110 -0.1778 -0.0394  0.5226
16780SOL    HW162065   9.488   8.803  13.128 -0.1184 -0.9639 -2.4066
16780SOL    HW262066   9.634   8.842  13.137 -0.2265 -0.9089 -0.3311
16781SOL     OW62067   1.220   4.841   4.942  0.1085 -1.1796 -0.5210
16781SOL    HW162068   1.130   4.855   4.913 -0.3361  0.1581  1.3127
16781SOL    HW262069   1.262   4.927   4.932  0.7409 -1.4162  0.0470
16782SOL     OW62070   1.434   0.779  10.821 -0.0812 -0.1622  0.4110
16782SOL    HW162071   1.461   0.870  10.814  0.2166 -0.3067 -0.4792
16782SOL    HW262072   1.347   0.782  10.862  0.5967  0.4058  1.8451
16783SOL     OW62073   5.877   3.559   2.786  0.2965  0.3940 -0.6038
16783SOL    HW162074   5.925   3.525   2.711 -1.4220 -1.2733 -1.0105
16783SOL    HW262075   5.935   3.544   2.861  0.2336 -2.1103 -0.9899
16784SOL     OW62076   4.611  11.868   3.612 -0.1098 -0.0648  0.5946
16784SOL    HW162077   4.587  11.949   3.567 -1.5806 -1.3820 -1.1246
16784SOL    HW262078   4.706  11.868   3.612 -0.0619  1.8680  1.0738
16785SOL     OW62079  10.784  10.403  10.797  0.0131 -0.2748 -0.0421
16785SOL    HW162080  10.851  10.342  10.828 -0.3508 -0.7974 -0.2727
16785SOL    HW262081  10.798  10.482  10.849  0.6271 -0.4758  0.1127
16786SOL     OW62082  13.191   0.120   9.044  0.1782 -0.4057 -0.5128
16786SOL    HW162083  13.252   0.178   8.999  0.8934 -2.4548 -2.3960
16786SOL    HW262084  13.106   0.165   9.039  1.2777  2.1922  1.5772
16787SOL     OW62085   3.515   8.193   7.761  0.1563 -0.0604  0.5059
16787SOL    HW162086   3.467   8.125   7.809 -0.9020  0.1021 -0.2807
16787SOL    HW262087   3.510   8.270   7.816 -0.8466  0.0617  0.2645
16788SOL     OW62088   2.959   7.954   6.788 -0.2453  0.4495  0.1716
16788SOL    HW162089   2.921   7.879   6.835  1.3272 -0.3607  0.1952
16788SOL    HW262090   2.958   7.926   6.696 -0.0108  0.5668  0.1354
16789SOL     OW62091   7.110   5.087   8.509 -0.6973 -0.1467 -0.4133
16789SOL    HW162092   7.169   5.073   8.434  1.5866 -2.0381  1.5713
16789SOL    HW262093   7.024   5.062   8.476  0.3544 -1.6994 -2.2243
16790SOL     OW62094  10.609   2.610   8.093  0.1979  0.0866  0.4118
16790SOL    HW162095  10.652   2.664   8.159  0.3283  0.1742  0.2552
16790SOL    HW262096  10.681   2.564   8.050  0.2192  0.9123 -0.4626
16791SOL     OW62097   4.462  11.690   0.780  0.0983  0.0313 -0.1428
16791SOL    HW162098   4.495  11.611   0.737 -0.2624  0.0412 -0.4432
16791SOL    HW262099   4.367  11.685   0.770 -0.1202 -0.6339  1.7937
16792SOL     OW62100   9.647  10.926  12.409  0.3143  0.1079  0.1010
16792SOL    HW162101   9.613  10.882  12.331 -0.7249 -0.2098  0.7113
16792SOL    HW262102   9.673  11.012  12.378  0.1761 -0.1090 -0.6523
16793SOL     OW62103  10.684  13.370   9.302 -0.0742 -0.2253  0.5692
16793SOL    HW162104  10.636  13.452   9.291  0.8584  0.3920  0.9659
16793SOL    HW262105  10.743  13.366   9.228 -0.6155 -0.9181  0.1571
16794SOL     OW62106   1.264   3.402  11.294  0.1681  0.3448 -0.4029
16794SOL    HW162107   1.224   3.355  11.368  0.1152  2.1927  0.8043
16794SOL    HW262108   1.193   3.411  11.230  0.2381 -1.3562 -0.7846
16795SOL     OW62109  10.023  10.576   3.648  0.0166 -0.3077 -0.1474
16795SOL    HW162110  10.039  10.612   3.561  0.3916 -1.1213 -0.4300
16795SOL    HW262111  10.024  10.481   3.635 -1.0558 -0.4333  0.5459
16796SOL     OW62112   6.214   0.097   6.107 -0.7969 -0.1481 -0.2449
16796SOL    HW162113   6.299   0.115   6.067 -0.1332 -3.0187 -0.3198
16796SOL    HW262114   6.219   0.136   6.194  0.9473 -0.9630  0.0608
16797SOL     OW62115  13.391  11.856   7.426  0.3723 -0.1811  0.4841
16797SOL    HW162116  13.425  11.826   7.342  0.4882 -0.1486  0.5198
16797SOL    HW262117  13.320  11.795   7.446 -0.3807  0.4716 -0.1582
16798SOL     OW62118  13.120   5.635   2.771  0.4946  0.2826  0.3925
16798SOL    HW162119  13.027   5.649   2.789  0.0879 -1.2982 -0.3747
16798SOL    HW262120  13.135   5.543   2.792  1.8775  0.5019  0.4283
16799SOL     OW62121   7.613   5.268  13.562  0.0679  0.6984  0.1013
16799SOL    HW162122   7.580   5.178  13.562  2.5196 -0.3097 -1.4581
16799SOL    HW262123   7.543   5.320  13.523 -0.5100 -0.9657 -1.1707
16800SOL     OW62124  11.302  12.154   4.220 -0.2133  0.8031  0.5008
16800SOL    HW162125  11.241  12.122   4.286  0.1567 -1.8152 -0.3094
16800SOL    HW262126  11.373  12.194   4.270 -0.3985 -0.2618  1.6814
16801SOL     OW62127  11.624  12.833   4.640  0.4561 -0.4585  0.2219
16801SOL    HW162128  11.640  12.884   4.719  3.5128 -0.0984 -0.4949
16801SOL    HW262129  11.637  12.895   4.568  0.3779 -1.3665 -0.6009
16802SOL     OW62130   5.597   6.333   9.884  0.6478 -0.4096 -0.2530
16802SOL    HW162131   5.507   6.322   9.854  0.1759  1.2532  0.4435
16802SOL    HW262132   5.650   6.327   9.805 -0.0488 -1.4530 -0.6664
16803SOL     OW62133   6.778   0.883   4.786  0.2554  0.4872 -0.0286
16803SOL    HW162134   6.744   0.830   4.714  2.3679 -0.4799 -0.3758
16803SOL    HW262135   6.821   0.957   4.744  2.9452 -0.9085  0.0095
16804SOL     OW62136   0.660  10.043   8.284  0.4177  0.2463  0.0493
16804SOL    HW162137   0.752  10.031   8.305  0.2056 -1.5277  0.1666
16804SOL    HW262138   0.619  10.065   8.367  0.6397  0.3194  0.1394
16805SOL     OW62139   6.951   8.921  11.721  0.7581  0.4561 -0.4634
16805SOL    HW162140   6.984   8.902  11.634 -0.4787 -1.1099 -0.6350
16805SOL    HW262141   6.869   8.967  11.707 -0.2933 -1.2613 -0.2081
16806SOL     OW62142   8.832   3.602  12.849  0.1435 -0.2084  0.1336
16806SOL    HW162143   8.762   3.539  12.832 -1.5293  1.5361  0.2272
16806SOL    HW262144   8.879   3.566  12.924 -1.2542 -0.9602  0.6849
16807SOL     OW62145   4.161   1.508   1.618  0.1299  0.0288 -0.5926
16807SOL    HW162146   4.096   1.444   1.591 -0.4282  0.7925 -1.1135
16807SOL    HW262147   4.212   1.526   1.539  0.5863 -0.1152 -0.3359
16808SOL     OW62148   8.611   5.312   0.373 -0.3366 -0.3581 -0.1651
16808SOL    HW162149   8.562   5.348   0.447 -1.6216  0.3970 -1.3315
16808SOL    HW262150   8.548   5.257   0.327  0.7498 -1.6825 -0.1190
16809SOL     OW62151   6.826   6.303   8.964 -0.0055 -1.2771 -0.1117
16809SOL    HW162152   6.813   6.217   9.005  1.1723 -1.6141 -0.4172
16809SOL    HW262153   6.825   6.285   8.870 -1.4750 -0.6792 -0.2442
16810SOL     OW62154   4.273   4.949   7.268 -0.0379  0.3563 -0.3347
16810SOL    HW162155   4.269   4.903   7.184  0.5006 -0.2605 -0.0323
16810SOL    HW262156   4.246   5.039   7.248 -0.1627  0.1498 -1.1167
16811SOL     OW62157  12.724  12.585  11.351 -0.4685 -0.4833  0.0554
16811SOL    HW162158  12.780  12.571  11.275 -0.7875  1.6242 -0.6157
16811SOL    HW262159  12.644  12.536  11.331 -1.3662  1.6522 -1.9673
16812SOL     OW62160   0.936   2.842  10.576 -0.1410 -0.1505 -0.3958
16812SOL    HW162161   0.908   2.796  10.656 -0.2083  2.0354  0.9331
16812SOL    HW262162   0.880   2.805  10.507 -1.1835 -1.0224  0.8513
16813SOL     OW62163   7.581   7.826   2.851 -0.6296 -0.0673  0.3426
16813SOL    HW162164   7.590   7.742   2.896 -0.1079  0.7464  1.8172
16813SOL    HW262165   7.671   7.854   2.834 -0.7456  0.8528  1.1626
16814SOL     OW62166   1.481   7.915  10.201  0.2622 -0.0270 -0.3007
16814SOL    HW162167   1.500   8.008  10.214  0.3925 -0.1817  0.7248
16814SOL    HW262168   1.514   7.873  10.280 -0.8042 -0.8109 -0.2555
16815SOL     OW62169   4.645  10.472   8.214 -0.5825 -0.2052 -0.4856
16815SOL    HW162170   4.657  10.383   8.182 -0.1963 -0.5493  0.5870
16815SOL    HW262171   4.680  10.471   8.303 -2.5373  0.4439  0.3554
16816SOL     OW62172  11.944   8.731   6.337 -0.2228 -0.6108  0.5869
16816SOL    HW162173  11.977   8.820   6.340  0.5964 -0.9362  1.9579
16816SOL    HW262174  12.007   8.680   6.387 -2.0005 -1.5102  2.0251
16817SOL     OW62175   5.094  11.901   0.669 -0.0057 -0.1765 -0.1445
16817SOL    HW162176   5.138  11.931   0.590 -1.0363 -0.1609 -0.7324
16817SOL    HW262177   5.078  11.982   0.719 -1.9186  0.2092 -1.2813
16818SOL     OW62178   2.113   3.244  12.969 -0.2949  0.3923  0.0317
16818SOL    HW162179   2.108   3.152  12.944  0.3457  0.3529  0.0139
16818SOL    HW262180   2.116   3.243  13.065  1.5337  0.2513  0.0243
16819SOL     OW62181  11.344   6.008   2.346 -0.0938 -0.5616 -0.3293
16819SOL    HW162182  11.432   6.007   2.383 -0.3816 -2.4585  0.4125
16819SOL    HW262183  11.288   5.979   2.417 -1.0372 -1.4704 -1.4041
16820SOL     OW62184  12.013   7.532   0.082 -0.1124 -0.0832  0.4000
16820SOL    HW162185  12.016   7.559   0.173  0.1533 -0.2343  0.4365
16820SOL    HW262186  12.092   7.570   0.043 -1.4285  2.0252 -0.3386
16821SOL     OW62187   3.060  10.795  10.516 -0.2633 -0.1606  0.2728
16821SOL    HW162188   3.110  10.876  10.503  0.8563 -0.7896  0.6175
16821SOL    HW262189   3.004  10.813  10.592 -1.7669  1.0943 -1.0408
16822SOL     OW62190   0.552   0.642   5.755 -0.0014  0.1914 -0.5609
16822SOL    HW162191   0.459   0.662   5.760  0.4036  2.0519  0.3979
16822SOL    HW262192   0.587   0.706   5.693  0.8343  0.2996  0.0134
16823SOL     OW62193  11.673   9.215   6.332  0.4418  0.6885  0.4186
16823SOL    HW162194  11.600   9.160   6.302  0.3055  1.4278 -0.6807
16823SOL    HW262195  11.689   9.187   6.422  0.0335 -0.7822  0.0701
16824SOL     OW62196   3.668  10.096   7.119  0.5130  0.1955 -0.8657
16824SOL    HW162197   3.734  10.112   7.187 -1.2187  2.5560  0.4241
16824SOL    HW262198   3.585  10.092   7.168 -0.6023  0.1754 -2.6891
16825SOL     OW62199   7.747   8.571  12.611 -0.2228 -0.2963  0.4192
16825SOL    HW162200   7.768   8.652  12.564  0.3488 -1.0026 -0.5713
16825SOL    HW262201   7.794   8.503  12.564 -1.4477 -1.3573  0.6693
16826SOL     OW62202  10.355   3.662  11.838  0.0856 -0.2168  0.0031
16826SOL    HW162203  10.429   3.696  11.788  0.7848 -1.0905  0.4118
16826SOL    HW262204  10.394   3.630  11.920 -0.6471 -1.2926 -0.0553
16827SOL     OW62205   8.545   0.203  10.631 -0.1092  0.0997  0.1325
16827SOL    HW162206   8.608   0.270  10.658 -0.9722  0.3739  1.6333
16827SOL    HW262207   8.597   0.124  10.617  0.4195 -0.4034  3.8630
16828SOL     OW62208  11.990   8.891   4.669  0.0171  0.1065  0.2144
16828SOL    HW162209  12.085   8.899   4.681  0.4514 -1.2514 -1.8202
16828SOL    HW262210  11.963   8.975   4.633  0.4350  0.4882  0.7730
16829SOL     OW62211   6.090   1.930   1.348  0.1496  0.0589  0.4822
16829SOL    HW162212   6.141   1.849   1.346 -0.6827 -0.4671  0.5046
16829SOL    HW262213   6.002   1.903   1.372  0.3236  1.2102  2.6483
16830SOL     OW62214   4.260   7.197   7.268 -0.3720  0.0611  0.1962
16830SOL    HW162215   4.312   7.173   7.191 -0.2433 -1.8799  0.8144
16830SOL    HW262216   4.174   7.219   7.233 -0.7845 -2.2787 -0.4684
16831SOL     OW62217   6.869  12.414  12.131  0.5908  0.1617 -0.3115
16831SOL    HW162218   6.792  12.469  12.130  0.6765  0.3207  0.6091
16831SOL    HW262219   6.923  12.449  12.202  2.3966  1.2426 -2.1071
16832SOL     OW62220   3.320   7.798   0.621  0.5839  0.1099 -0.5396
16832SOL    HW162221   3.394   7.843   0.579  1.4143  0.9063  1.6350
16832SOL    HW262222   3.311   7.841   0.705  0.4179 -2.7892  1.0456
16833SOL     OW62223  12.468   0.529   9.416 -0.1399  0.7554 -0.6873
16833SOL    HW162224  12.388   0.580   9.412 -1.4300 -0.8810  1.8301
16833SOL    HW262225  12.438   0.438   9.417  1.9151 -0.0098 -2.0307
16834SOL     OW62226  13.093   6.007  12.475 -0.1362 -0.3137 -0.3329
16834SOL    HW162227  13.138   6.067  12.536 -0.0302 -0.2266 -0.4953
16834SOL    HW262228  13.030   6.062  12.430  0.6214 -0.1091 -1.1728
16835SOL     OW62229   5.159   9.353   0.577 -0.1972  0.0582  0.4806
16835SOL    HW162230   5.173   9.284   0.511 -0.2552 -0.3161  0.8591
16835SOL    HW262231   5.218   9.330   0.648 -0.5877  0.1191  0.8257
16836SOL     OW62232  12.356   6.697   1.561 -0.2714 -0.6904 -0.7814
16836SOL    HW162233  12.313   6.650   1.490 -0.7840 -1.4709  0.0285
16836SOL    HW262234  12.447   6.667   1.557 -0.6482 -1.9777 -0.1101
16837SOL     OW62235   9.771  11.397   5.063  0.4941 -0.6879  0.4073
16837SOL    HW162236   9.858  11.376   5.095  0.9341 -0.1220 -0.3679
16837SOL    HW262237   9.781  11.482   5.020 -0.0335 -1.3976 -1.2171
16838SOL     OW62238   3.437   3.206   5.886  0.5977  0.1392  0.1388
16838SOL    HW162239   3.473   3.289   5.915 -1.0692  0.5455  1.1968
16838SOL    HW262240   3.408   3.162   5.966  0.6997 -1.1016 -0.4756
16839SOL     OW62241   4.451   6.559   1.419 -0.2995  0.6223  0.4296
16839SOL    HW162242   4.437   6.611   1.498  0.2336  0.6198  0.5326
16839SOL    HW262243   4.544   6.571   1.400 -0.7597  1.9970 -1.1662
16840SOL     OW62244  10.309   2.855   9.244 -0.6461 -0.5409  0.1623
16840SOL    HW162245  10.279   2.830   9.331 -3.6804 -0.1705 -0.6745
16840SOL    HW262246  10.305   2.951   9.243 -1.5429 -0.5672 -0.6234
16841SOL     OW62247  13.665   1.647  13.664  0.0701 -0.3869 -0.0919
16841SOL    HW162248  13.622   1.722  13.622  0.9418  2.0457  2.9651
16841SOL    HW262249  13.758   1.670  13.664  0.4521 -1.8523  0.2897
16842SOL     OW62250   0.117   7.148   3.444  0.2938 -0.8131  0.3210
16842SOL    HW162251   0.209   7.164   3.426  0.1836 -0.7287 -0.2019
16842SOL    HW262252   0.106   7.169   3.536  0.5018  0.5312  0.0524
16843SOL     OW62253  11.179   1.804   8.109  0.2487 -0.6069  0.4514
16843SOL    HW162254  11.248   1.863   8.078 -0.8162 -0.5498 -1.9706
16843SOL    HW262255  11.137   1.852   8.180  1.7564 -0.0487  1.0166
16844SOL     OW62256   3.867   5.787   6.727  0.0597  0.0950 -0.3933
16844SOL    HW162257   3.866   5.692   6.714  0.6516  0.0180  0.1219
16844SOL    HW262258   3.951   5.805   6.769  0.3544  0.9597 -1.3082
16845SOL     OW62259   2.635   5.634  13.702  0.0702  0.9393  0.6224
16845SOL    HW162260   2.620   5.718  13.659 -0.5245  0.0804 -0.9775
16845SOL    HW262261   2.731   5.626  13.707  0.1266  1.7268  0.8258
16846SOL     OW62262   2.866   3.333   6.594 -0.2498  0.3444 -0.2920
16846SOL    HW162263   2.843   3.298   6.680  0.8203 -1.4035 -0.6619
16846SOL    HW262264   2.807   3.289   6.533  0.5291 -0.2102 -0.6742
16847SOL     OW62265   6.789  11.372   6.424 -0.3852  0.1083 -0.1949
16847SOL    HW162266   6.716  11.429   6.448 -0.9774 -1.4638  2.1226
16847SOL    HW262267   6.756  11.320   6.351 -1.0561  0.4148 -0.1205
16848SOL     OW62268   1.942  11.854  12.506 -0.5334 -0.2629 -0.4377
16848SOL    HW162269   1.932  11.758  12.507  1.0074 -0.4511  1.5267
16848SOL    HW262270   1.878  11.885  12.569 -0.1610 -0.1060 -0.1365
16849SOL     OW62271   3.197   4.684   5.070  0.1057 -0.3179  0.3368
16849SOL    HW162272   3.104   4.704   5.059  0.3522  0.3155 -0.7673
16849SOL    HW262273   3.199   4.616   5.137 -0.9411  1.9178  2.8401
16850SOL     OW62274   8.753  13.472   6.126 -0.4979 -0.9369  0.1472
16850SOL    HW162275   8.674  13.422   6.143 -0.7476 -1.0974 -1.3111
16850SOL    HW262276   8.735  13.517   6.043 -0.2011  1.3924  1.2502
16851SOL     OW62277   2.875   2.451   0.566 -0.2460 -0.1859  0.1543
16851SOL    HW162278   2.962   2.489   0.555 -0.2106 -0.5316 -0.8285
16851SOL    HW262279   2.885   2.389   0.639  0.5753 -0.9273 -0.5730
16852SOL     OW62280   0.147   7.777  13.693 -0.0704  0.2442 -0.1263
16852SOL    HW162281   0.176   7.699  13.646  1.9888  1.4950 -1.0620
16852SOL    HW262282   0.223   7.835  13.693 -1.7904  2.6640 -0.2996
16853SOL     OW62283   0.817   4.459   1.159 -0.2577 -0.2028 -0.2502
16853SOL    HW162284   0.745   4.406   1.125  0.9753 -1.3478 -1.1844
16853SOL    HW262285   0.797   4.548   1.129 -0.3874 -0.8044 -2.0672
16854SOL     OW62286   7.204   6.195   8.280  0.0277 -0.5148 -0.8850
16854SOL    HW162287   7.216   6.100   8.283 -1.7077 -0.7532 -0.3859
16854SOL    HW262288   7.121   6.207   8.234 -1.0672  0.6033  1.2585
16855SOL     OW62289  11.274  12.120   3.534 -0.1043 -0.0860 -0.2027
16855SOL    HW162290  11.342  12.066   3.492 -0.4079 -1.4035  0.9274
16855SOL    HW262291  11.194  12.067   3.527 -1.3703  1.9213 -2.5495
16856SOL     OW62292   8.139  11.978  10.776 -0.6412 -0.0930  0.0206
16856SOL    HW162293   8.099  12.061  10.800 -2.4444 -1.0894  0.7146
16856SOL    HW262294   8.087  11.947  10.702 -0.8176 -1.1562  0.5679
16857SOL     OW62295   8.801  11.112  10.435 -0.6328  0.1535 -0.4848
16857SOL    HW162296   8.788  11.045  10.368 -0.4138 -0.4738  0.0908
16857SOL    HW262297   8.815  11.063  10.515 -2.6284  0.8676  0.3806
16858SOL     OW62298   0.925  11.881  13.525  0.2775  0.0322  0.0477
16858SOL    HW162299   0.905  11.936  13.450  1.3969 -1.1625 -1.2076
16858SOL    HW262300   0.910  11.792  13.494  0.2862 -0.4688  1.4107
16859SOL     OW62301   2.863   3.484  11.822 -0.0700  0.0003 -0.1149
16859SOL    HW162302   2.891   3.445  11.904 -2.0422 -0.6420  0.3075
16859SOL    HW262303   2.810   3.416  11.780 -0.3665  0.8667 -1.1950
16860SOL     OW62304  12.133  12.845  10.464 -0.7418 -0.3887  0.5162
16860SOL    HW162305  12.195  12.773  10.450  0.4583  0.8469 -0.8268
16860SOL    HW262306  12.175  12.900  10.531 -0.0625  0.7402 -0.7856
16861SOL     OW62307   2.001   9.891   7.944  0.5933 -0.7244 -0.5576
16861SOL    HW162308   2.054   9.820   7.909 -1.6877 -3.3039  0.8301
16861SOL    HW262309   1.919   9.849   7.969 -1.1642  2.5744 -0.2737
16862SOL     OW62310  13.442   3.673   7.500  0.0389 -0.0861 -0.0759
16862SOL    HW162311  13.504   3.645   7.568 -1.4110 -0.6489  1.0681
16862SOL    HW262312  13.453   3.768   7.497  0.1724 -0.0579  0.9084
16863SOL     OW62313  12.067   1.111   7.461  0.0399  0.2917  0.4398
16863SOL    HW162314  12.097   1.036   7.514 -0.0984 -0.4486 -0.5013
16863SOL    HW262315  12.098   1.188   7.509  0.3788 -0.3720  1.3169
16864SOL     OW62316  10.117   0.443  13.337  0.8572 -0.5633 -0.3937
16864SOL    HW162317  10.147   0.515  13.281 -0.6399 -0.2781 -0.8701
16864SOL    HW262318  10.026   0.429  13.311  0.9795 -2.3265  0.0190
16865SOL     OW62319  13.156   7.758   8.509  1.0033  0.0769  0.3213
16865SOL    HW162320  13.167   7.667   8.480 -0.7542 -0.3960  1.0318
16865SOL    HW262321  13.209   7.764   8.589  0.9450 -0.3806  0.3955
16866SOL     OW62322   4.837  10.426  10.884  0.8645 -0.4342  0.7424
16866SOL    HW162323   4.761  10.483  10.874  1.6468  0.7092  1.0741
16866SOL    HW262324   4.809  10.358  10.945  0.8976  1.5345  3.1097
16867SOL     OW62325   0.771   5.600   5.946  0.3871  0.5864  0.2774
16867SOL    HW162326   0.689   5.583   5.899 -0.5339  0.6351  1.8009
16867SOL    HW262327   0.839   5.583   5.881 -0.7551 -1.1399 -0.5555
16868SOL     OW62328  10.101   9.611   3.254  0.0302  0.0320 -0.3992
16868SOL    HW162329  10.167   9.637   3.319  0.0510 -0.6915 -0.1160
16868SOL    HW262330  10.018   9.619   3.300 -0.1405  1.4784 -0.9295
16869SOL     OW62331  12.449  13.626   9.262 -0.4944  0.5945 -0.4175
16869SOL    HW162332  12.435  13.657   9.352  0.5649 -0.7959  0.2773
16869SOL    HW262333  12.513  13.687   9.225  0.1983  0.3278  0.3065
16870SOL     OW62334   2.805   2.161   3.339  0.2514  0.2209  0.3378
16870SOL    HW162335   2.805   2.196   3.428  3.6884 -2.3071  1.5633
16870SOL    HW262336   2.768   2.074   3.348 -2.2281  0.9946 -1.4239
16871SOL     OW62337   2.335   3.592   4.233 -0.5314 -0.0846  0.1007
16871SOL    HW162338   2.418   3.637   4.247  0.1427 -0.9665 -0.9289
16871SOL    HW262339   2.351   3.534   4.159 -2.1519 -0.0825 -0.2877
16872SOL     OW62340   1.581   8.518   3.094  0.3861  0.0703 -0.2437
16872SOL    HW162341   1.552   8.545   3.181 -0.5251  0.6290 -0.7067
16872SOL    HW262342   1.543   8.431   3.082  1.5212 -0.5366  0.3826
16873SOL     OW62343   2.628   7.867   9.466 -0.0307  0.0208 -0.3442
16873SOL    HW162344   2.712   7.895   9.432  0.4899  0.2994  1.1043
16873SOL    HW262345   2.632   7.771   9.467  0.6027  0.0438  0.4642
16874SOL     OW62346   5.940   1.272   0.387  0.3368  0.3391  0.1606
16874SOL    HW162347   5.883   1.347   0.373  0.7937  0.4245 -1.4948
16874SOL    HW262348   6.027   1.302   0.360  0.7238 -0.4590  0.4933
16875SOL     OW62349   3.985   6.666  12.675 -0.1432  0.4117 -0.2576
16875SOL    HW162350   3.962   6.626  12.759  0.5165 -0.0469 -0.2937
16875SOL    HW262351   3.963   6.600  12.610  0.8406  0.1426 -0.3275
16876SOL     OW62352   4.902  10.839   6.756 -0.2560 -0.3500 -0.3758
16876SOL    HW162353   4.972  10.830   6.820  0.8003 -2.3770 -1.6918
16876SOL    HW262354   4.848  10.761   6.767 -0.1855 -0.6229 -1.7529
16877SOL     OW62355  12.003   2.261  13.714  0.0451  0.1556 -0.4981
16877SOL    HW162356  12.055   2.300  13.784 -0.7409 -0.7660  0.6184
16877SOL    HW262357  11.940   2.329  13.690  0.6759  0.6747 -0.7145
16878SOL     OW62358   6.469  10.769   5.339 -0.5375 -0.1139  0.4433
16878SOL    HW162359   6.483  10.758   5.433  2.2805 -3.7766 -0.1907
16878SOL    HW262360   6.402  10.705   5.316  0.1749 -0.6190 -0.2929
16879SOL     OW62361   3.180   0.662   1.881 -0.2512 -0.5905 -0.1502
16879SOL    HW162362   3.110   0.687   1.820 -0.7944 -2.0365 -0.1680
16879SOL    HW262363   3.141   0.675   1.967 -1.1180 -2.6933 -0.1485
16880SOL     OW62364  12.723   1.718  11.236 -0.3338 -0.0178 -0.3994
16880SOL    HW162365  12.644   1.665  11.233 -0.5677  0.3070 -0.0463
16880SOL    HW262366  12.692   1.809  11.231 -0.0200  0.1279  0.2024
16881SOL     OW62367   4.647   5.718   8.952  0.1921  0.2066  0.0203
16881SOL    HW162368   4.736   5.717   8.918 -0.1274 -0.1446 -0.8331
16881SOL    HW262369   4.653   5.675   9.038  0.8184  0.0695 -0.0897
16882SOL     OW62370  13.331   0.959  10.894  0.4742  0.2380  0.4194
16882SOL    HW162371  13.331   0.987  10.803  1.7726 -0.0080  0.3302
16882SOL    HW262372  13.297   0.869  10.892  0.0111  0.4152  0.2459
16883SOL     OW62373   6.903  10.199   1.436  0.0343 -0.3335  0.1550
16883SOL    HW162374   6.862  10.270   1.386  0.6239  0.5294  0.8848
16883SOL    HW262375   6.891  10.223   1.527  1.4819 -0.4369  0.4026
16884SOL     OW62376  11.633   2.866   3.052 -0.0068  0.1620  0.0696
16884SOL    HW162377  11.547   2.886   3.014  0.6402 -0.8040 -2.1252
16884SOL    HW262378  11.624   2.776   3.083  0.2515 -0.0346 -0.4052
16885SOL     OW62379  10.787   1.447   8.568  0.6545  0.5988  0.0921
16885SOL    HW162380  10.776   1.525   8.513  0.3773 -0.0784 -0.8440
16885SOL    HW262381  10.819   1.481   8.651  2.2706  1.5633 -0.8588
16886SOL     OW62382   6.795   9.411   8.766  0.4207 -0.0585  0.2911
16886SOL    HW162383   6.727   9.466   8.727  1.4749 -0.5991 -2.5511
16886SOL    HW262384   6.833   9.465   8.836 -2.9836  0.1430  2.1911
16887SOL     OW62385   6.472   0.173   6.018 -0.0422  0.0382  0.0130
16887SOL    HW162386   6.525   0.102   6.055  0.9327  0.5510 -0.3795
16887SOL    HW262387   6.535   0.235   5.982 -0.8878  1.0333  0.1866
16888SOL     OW62388   8.211   8.324  10.708  0.2290  0.2093  0.0498
16888SOL    HW162389   8.254   8.366  10.783  0.9208  2.6733 -1.5975
16888SOL    HW262390   8.120   8.355  10.713 -0.0125 -0.5506  0.4802
16889SOL     OW62391   9.591  11.934   7.711  0.4773 -0.0685 -0.4880
16889SOL    HW162392   9.654  11.904   7.776  0.2320 -1.8388 -0.9949
16889SOL    HW262393   9.639  11.929   7.628  1.1270  3.1571 -0.4266
16890SOL     OW62394  12.631   3.822   1.259  0.0930  0.1209 -0.3461
16890SOL    HW162395  12.653   3.772   1.181 -0.6701 -0.8883  0.0618
16890SOL    HW262396  12.659   3.767   1.332 -1.1178  0.0690  0.1187
16891SOL     OW62397   1.003   3.356   4.101 -0.7195 -0.2800  0.1255
16891SOL    HW162398   1.005   3.350   4.005 -2.5300 -1.3292  0.1280
16891SOL    HW262399   0.911   3.346   4.124 -0.2937 -0.1519  1.9992
16892SOL     OW62400   1.904  13.064  11.351 -0.2804 -0.1821  0.6762
16892SOL    HW162401   1.950  13.052  11.434  2.3780  1.5321 -0.4375
16892SOL    HW262402   1.896  12.975  11.315  1.9708 -0.5938  1.0669
16893SOL     OW62403   1.549   0.771   9.072 -0.3389 -0.3774  0.0927
16893SOL    HW162404   1.591   0.744   9.154  0.1212  2.2174  0.7819
16893SOL    HW262405   1.586   0.857   9.053 -1.9873 -0.0091 -1.7434
16894SOL     OW62406   8.135   2.779  13.479 -0.1975 -0.1393  0.2821
16894SOL    HW162407   8.195   2.853  13.489 -0.7661  0.0641  2.6758
16894SOL    HW262408   8.065   2.812  13.422  0.6424  0.4484 -0.4271
16895SOL     OW62409  13.465  11.292   6.010  0.4557 -0.2954  0.0695
16895SOL    HW162410  13.418  11.292   5.927  0.6913 -0.9493 -0.0697
16895SOL    HW262411  13.466  11.384   6.037 -1.1242 -0.2789  0.2114
16896SOL     OW62412   7.742   6.990   7.159 -0.2843 -1.1436  0.2604
16896SOL    HW162413   7.774   7.059   7.101 -2.1924 -1.8299 -1.7914
16896SOL    HW262414   7.751   6.910   7.108 -1.2611 -1.9111  1.2429
16897SOL     OW62415   3.131  10.170   7.650 -0.5375  0.5451  0.4731
16897SOL    HW162416   3.190  10.117   7.597  0.0988  0.1954  1.5102
16897SOL    HW262417   3.081  10.107   7.701  0.2363  0.9023  1.7301
16898SOL     OW62418   9.406   5.317  12.337 -0.9623 -0.1125  0.1672
16898SOL    HW162419   9.501   5.322  12.325 -0.8602 -0.6239  0.7491
16898SOL    HW262420   9.377   5.408  12.336 -0.2463  0.1597  1.7307
16899SOL     OW62421   9.276   4.242   8.177  0.1902 -1.1272 -0.5453
16899SOL    HW162422   9.266   4.337   8.167  0.7366 -1.0236 -0.1362
16899SOL    HW262423   9.316   4.214   8.095 -1.1613 -1.1993 -1.2024
16900SOL     OW62424   2.726  13.101   8.086 -0.0841 -0.3096  0.3020
16900SOL    HW162425   2.716  13.128   7.994  1.7619  1.3130  0.4877
16900SOL    HW262426   2.645  13.055   8.107  0.3646 -2.8640 -2.8214
16901SOL     OW62427   3.895   4.719   7.620  0.4207 -0.7586  0.0012
16901SOL    HW162428   3.961   4.665   7.577 -1.3102 -2.3611 -0.7982
16901SOL    HW262429   3.861   4.663   7.690 -0.7500 -0.3478 -0.2232
16902SOL     OW62430   1.125  10.977   1.347  0.4342 -0.1382  0.2017
16902SOL    HW162431   1.126  10.967   1.252 -1.9601 -0.2868  0.1378
16902SOL    HW262432   1.091  10.894   1.380  0.6668  0.1312  1.1766
16903SOL     OW62433   9.643   3.583   0.794  0.2311  0.0280  0.2358
16903SOL    HW162434   9.649   3.634   0.713  0.4182  0.9280  0.8063
16903SOL    HW262435   9.669   3.644   0.863  1.4133 -1.1168  0.8343
16904SOL     OW62436  12.182   9.518  12.229 -0.1895 -0.0788  0.5347
16904SOL    HW162437  12.270   9.505  12.195 -0.6367  0.6074 -0.9735
16904SOL    HW262438  12.169   9.613  12.228 -1.1066 -0.1903  0.2728
16905SOL     OW62439   4.149   0.203   7.902 -0.4233  0.0766 -0.1279
16905SOL    HW162440   4.191   0.284   7.929  0.0748 -0.8597  2.0647
16905SOL    HW262441   4.058   0.228   7.883  0.2743  1.5273 -1.8428
16906SOL     OW62442   7.908  11.170  11.656 -0.2419 -0.5118  0.8577
16906SOL    HW162443   7.833  11.114  11.673 -0.0355 -0.9271  0.4244
16906SOL    HW262444   7.888  11.213  11.572 -0.0389 -0.5580  0.7840
16907SOL     OW62445   2.723  10.503   4.319 -0.0242 -0.0600 -0.0985
16907SOL    HW162446   2.665  10.556   4.374 -1.4143  0.1715 -1.7010
16907SOL    HW262447   2.676  10.420   4.308  1.5030 -1.1490  1.2664
16908SOL     OW62448  10.804   6.857   2.625  0.2165 -0.1736 -0.2800
16908SOL    HW162449  10.726   6.815   2.662  0.4547 -1.9049 -1.5752
16908SOL    HW262450  10.776   6.946   2.606 -1.1974 -0.5142  0.0635
16909SOL     OW62451   2.841   1.138  10.069 -0.2419  0.0494 -0.5799
16909SOL    HW162452   2.880   1.224  10.055  0.8741 -0.5451 -1.2050
16909SOL    HW262453   2.751   1.148  10.038 -0.5446  1.3554  0.6226
16910SOL     OW62454   7.677   2.749  13.245  0.2395  0.0198  0.1487
16910SOL    HW162455   7.675   2.697  13.165  1.2429  0.9591 -0.5231
16910SOL    HW262456   7.665   2.839  13.215 -0.1446  0.3085  1.1406
16911SOL     OW62457   9.732   3.118   2.192 -0.7189 -0.3260 -0.1086
16911SOL    HW162458   9.765   3.171   2.264 -0.0335 -0.4980 -0.2812
16911SOL    HW262459   9.638   3.132   2.192 -0.7655 -0.5657  1.0094
16912SOL     OW62460   9.676   4.920   1.048  0.0682 -0.5004  0.4966
16912SOL    HW162461   9.583   4.902   1.037 -0.0478  0.2735  0.1270
16912SOL    HW262462   9.694   4.898   1.139 -0.0297 -2.4789  0.0903
16913SOL     OW62463  10.655   5.765   6.134  0.4166  0.0310 -0.2119
16913SOL    HW162464  10.724   5.768   6.201  0.3435 -1.3772 -0.0547
16913SOL    HW262465  10.627   5.674   6.132 -0.7713  0.3936 -0.9793
16914SOL     OW62466   2.001   1.877   9.733 -0.5258  0.0709 -0.5963
16914SOL    HW162467   2.012   1.940   9.804 -2.0501 -1.4067  1.0648
16914SOL    HW262468   2.074   1.894   9.674  2.3006 -0.1908  2.5341
16915SOL     OW62469  11.806   2.241  13.158  0.1248 -0.1824  0.0500
16915SOL    HW162470  11.880   2.299  13.180  0.8813 -1.3018  0.5403
16915SOL    HW262471  11.761   2.227  13.242 -0.1027 -0.2450 -0.0815
16916SOL     OW62472   5.862  13.050  10.986  0.3590 -0.4054  0.3887
16916SOL    HW162473   5.931  13.082  10.928  0.0822 -1.0575 -0.3149
16916SOL    HW262474   5.782  13.093  10.955  0.3036 -0.3202  0.6475
16917SOL     OW62475  11.010   9.456  11.085  0.4297  0.5799  0.0383
16917SOL    HW162476  10.971   9.380  11.042 -2.1781  2.1094 -0.5038
16917SOL    HW262477  11.092   9.472  11.037  0.8715 -1.6279 -0.0301
16918SOL     OW62478  10.196   4.503   0.992  0.2644  0.2208 -0.2151
16918SOL    HW162479  10.255   4.555   0.937 -0.3139  0.5022 -0.5785
16918SOL    HW262480  10.139   4.567   1.034  0.1815 -0.0509  0.0925
16919SOL     OW62481   5.811   1.436   4.475  0.3513 -0.2610 -0.0440
16919SOL    HW162482   5.861   1.377   4.418  1.9231  0.4528  0.5460
16919SOL    HW262483   5.840   1.414   4.563  2.2699  2.4197  0.1364
16920SOL     OW62484   0.494   0.030   9.466  0.0906  0.3201 -0.1593
16920SOL    HW162485   0.454   0.041   9.380 -2.6628 -0.3733  0.9365
16920SOL    HW262486   0.468   0.109   9.514 -1.2724 -0.7880  1.0094
16921SOL     OW62487  12.560  13.173   3.269  0.1034  0.0736 -0.2420
16921SOL    HW162488  12.643  13.167   3.316 -0.2886  2.2425  0.8630
16921SOL    HW262489  12.529  13.083   3.263  1.0579 -0.4906  2.0951
16922SOL     OW62490   8.907   3.928  10.489 -0.0804 -0.0516  0.2966
16922SOL    HW162491   8.906   3.839  10.523 -1.6817 -0.2081 -0.1056
16922SOL    HW262492   8.861   3.923  10.405 -0.5596  1.2101  0.4515
16923SOL     OW62493   8.133   6.107  10.199  0.1130 -0.2117  0.2689
16923SOL    HW162494   8.051   6.101  10.151  0.7239 -2.2772 -0.6060
16923SOL    HW262495   8.199   6.126  10.133  0.2707  2.5346  1.1033
16924SOL     OW62496   5.463   2.160   0.349  0.4179  0.6749 -0.1583
16924SOL    HW162497   5.370   2.178   0.336  0.0834 -1.7073 -1.7452
16924SOL    HW262498   5.505   2.193   0.269  0.5078 -0.7427 -0.7181
16925SOL     OW62499  10.589   5.286   9.638  0.5550  0.2518 -0.2216
16925SOL    HW162500  10.601   5.347   9.711 -0.3949 -0.5765  0.6574
16925SOL    HW262501  10.549   5.209   9.678 -0.6849  0.0661 -1.7521
16926SOL     OW62502   4.224   3.578   5.866  0.2123 -0.3700 -0.2566
16926SOL    HW162503   4.282   3.503   5.854  2.4316  1.1000  0.5902
16926SOL    HW262504   4.215   3.615   5.778 -0.5243 -1.3339 -0.6000
16927SOL     OW62505  10.346   2.254   9.141 -0.2029 -0.3567  0.1381
16927SOL    HW162506  10.411   2.253   9.070  0.0102  1.7575  0.2508
16927SOL    HW262507  10.397   2.235   9.220 -0.3931 -2.4319 -0.1816
16928SOL     OW62508   9.157   6.489   5.528 -0.1776 -0.2474 -0.0642
16928SOL    HW162509   9.141   6.472   5.435  2.4588  0.1624 -0.6802
16928SOL    HW262510   9.174   6.402   5.565  1.3319 -0.1935 -0.5686
16929SOL     OW62511   3.170   9.935  11.239 -0.5076 -0.3616 -0.4258
16929SOL    HW162512   3.211   9.900  11.318  0.0408 -0.3944 -0.7244
16929SOL    HW262513   3.114  10.006  11.270 -2.4028 -2.0871  0.3219
16930SOL     OW62514  13.551   7.121  12.409 -0.6202 -0.3317 -0.2342
16930SOL    HW162515  13.496   7.057  12.366 -0.1818 -0.3146 -0.8450
16930SOL    HW262516  13.629   7.127  12.353 -0.4878  0.4460  0.0136
16931SOL     OW62517   7.460  11.523   7.040 -0.4968 -0.1093 -0.1392
16931SOL    HW162518   7.429  11.433   7.047 -0.2081 -0.3233 -1.3516
16931SOL    HW262519   7.554  11.517   7.051 -0.6307  0.3000  1.5923
16932SOL     OW62520   7.811  11.304   1.210 -0.1538 -0.4094  0.4756
16932SOL    HW162521   7.815  11.251   1.131 -2.0163  1.1645 -0.7847
16932SOL    HW262522   7.760  11.252   1.272 -0.6282 -0.7378 -0.1828
16933SOL     OW62523   8.529  11.515  12.227  0.0511 -0.2432 -0.0716
16933SOL    HW162524   8.442  11.530  12.188 -0.4434  0.4704  1.2549
16933SOL    HW262525   8.571  11.600  12.224  0.0530 -0.2081  0.8271
16934SOL     OW62526   0.306   1.583   8.049 -0.0494  0.0720 -0.0730
16934SOL    HW162527   0.353   1.559   8.129 -0.9792 -1.0665  0.1501
16934SOL    HW262528   0.314   1.506   7.993  0.7031  0.9019 -1.1552
16935SOL     OW62529   0.368   0.871  10.671 -0.0814  0.3397 -0.1736
16935SOL    HW162530   0.305   0.860  10.742 -1.3879  0.0273 -1.3248
16935SOL    HW262531   0.431   0.935  10.704  0.5238 -1.2716  1.9865
16936SOL     OW62532   6.754   7.884  10.247  0.2547  0.1277  0.1110
16936SOL    HW162533   6.696   7.884  10.172  1.9999 -0.4508 -1.2947
16936SOL    HW262534   6.757   7.793  10.277  1.6292 -0.1654 -0.8311
16937SOL     OW62535  12.176   3.240   4.622 -0.2465 -0.2396 -0.6738
16937SOL    HW162536  12.128   3.258   4.541 -0.3348 -0.5513 -0.6944
16937SOL    HW262537  12.247   3.304   4.623  0.3777 -0.8911 -1.5304
16938SOL     OW62538   9.235   5.822  10.650  0.2598  0.2376  0.7519
16938SOL    HW162539   9.220   5.892  10.587 -0.8894 -1.4558 -0.9712
16938SOL    HW262540   9.173   5.839  10.721 -1.0506  0.1949 -0.3526
16939SOL     OW62541   6.752  13.486   3.776 -0.3388 -0.2387 -0.7506
16939SOL    HW162542   6.668  13.483   3.729  0.4708  0.1898 -2.3094
16939SOL    HW262543   6.797  13.562   3.738 -0.1374  0.9716  1.6837
16940SOL     OW62544   2.887  12.713  10.816  0.0562 -0.0083 -0.3139
16940SOL    HW162545   2.908  12.636  10.868 -0.4959  0.1338  0.1368
16940SOL    HW262546   2.943  12.782  10.852  0.9267 -0.3082 -1.0579
16941SOL     OW62547  10.993   8.620  13.650  0.4765 -0.3082 -0.0496
16941SOL    HW162548  10.944   8.650  13.727  1.5439 -0.3479  0.6640
16941SOL    HW262549  10.930   8.626  13.578 -0.7038 -0.7522  0.9029
16942SOL     OW62550  12.868   1.587   2.392  0.0287  0.1502 -0.3527
16942SOL    HW162551  12.933   1.592   2.462  2.2772  0.0065 -2.3022
16942SOL    HW262552  12.805   1.522   2.422  1.6318 -0.8755  0.9626
16943SOL     OW62553   2.917   4.245   6.341 -0.3874 -0.5582  0.6280
16943SOL    HW162554   2.828   4.275   6.322 -1.5692 -2.8244  2.0841
16943SOL    HW262555   2.933   4.272   6.431  0.2785 -0.4642  0.4869
16944SOL     OW62556  11.484   8.206   7.884  0.1650  0.4011 -0.6333
16944SOL    HW162557  11.521   8.165   7.805  3.1151  0.9469  0.3300
16944SOL    HW262558  11.435   8.281   7.850  0.0699 -0.2502 -2.0313
16945SOL     OW62559   5.218   9.267   7.499 -0.1918 -0.4799  0.0645
16945SOL    HW162560   5.287   9.206   7.474 -0.0397 -0.2773 -0.0115
16945SOL    HW262561   5.184   9.302   7.416 -1.0316 -1.2799  0.0549
16946SOL     OW62562  11.310   2.248   5.474 -0.3903 -0.5442  0.2660
16946SOL    HW162563  11.258   2.312   5.426  0.7758 -0.1458 -0.5246
16946SOL    HW262564  11.307   2.169   5.420 -0.4555 -0.6328  0.3969
16947SOL     OW62565   7.731   2.198   7.959  0.2851 -0.0233 -0.3342
16947SOL    HW162566   7.640   2.216   7.933  0.1591 -1.3316 -0.8741
16947SOL    HW262567   7.723   2.152   8.042  0.3774 -1.1848 -0.9518
16948SOL     OW62568  13.006   9.731   4.858  0.3048 -0.0802  0.7133
16948SOL    HW162569  13.083   9.785   4.839  1.0350 -1.1481  0.5989
16948SOL    HW262570  13.002   9.727   4.953 -1.0931  2.0230  0.8349
16949SOL     OW62571  12.932   7.302  12.484 -0.6005  0.3293  0.4693
16949SOL    HW162572  12.928   7.233  12.418 -1.6220  0.0977  0.7413
16949SOL    HW262573  13.009   7.353  12.462  1.1657 -1.8617  1.2094
16950SOL     OW62574   1.388   1.771   2.869 -0.4149  0.0076  0.4047
16950SOL    HW162575   1.338   1.761   2.788  2.2008 -0.2305 -1.3104
16950SOL    HW262576   1.427   1.685   2.883  1.5875  0.8201  0.1425
16951SOL     OW62577   4.403  10.551   3.347  0.2571 -0.3850  0.3112
16951SOL    HW162578   4.479  10.553   3.405 -0.0317 -0.2483  0.6891
16951SOL    HW262579   4.328  10.544   3.406 -0.0027 -0.8721 -0.0749
16952SOL     OW62580   7.099   5.278   1.598 -0.1331 -0.3748 -0.5301
16952SOL    HW162581   7.131   5.188   1.602  0.2744 -0.2622  3.5720
16952SOL    HW262582   7.009   5.273   1.632 -0.3034  0.6869 -0.7732
16953SOL     OW62583   4.841   0.333  11.351 -0.6529  0.3347  0.2435
16953SOL    HW162584   4.777   0.338  11.422 -0.9361  0.0164  0.0160
16953SOL    HW262585   4.926   0.328  11.395 -0.7795  0.8266  0.5480
16954SOL     OW62586   0.795  11.199   0.049  0.1074 -0.8936 -0.4719
16954SOL    HW162587   0.815  11.229   0.137 -0.2497  1.7224 -1.2212
16954SOL    HW262588   0.707  11.163   0.056  0.1355 -0.8394  0.2528
16955SOL     OW62589   1.251  11.329   6.210  0.1524  0.1132 -0.2633
16955SOL    HW162590   1.168  11.292   6.239  0.0702  0.8746  0.5227
16955SOL    HW262591   1.227  11.411   6.167  0.5237  0.6489  0.5186
16956SOL     OW62592  11.106   1.943  12.568  0.0751 -0.2460 -0.4342
16956SOL    HW162593  11.160   2.014  12.534 -0.2929  1.2551  1.9105
16956SOL    HW262594  11.018   1.981  12.572 -0.2436 -1.0370  0.2601
16957SOL     OW62595  10.955   1.659  12.533  0.6593  0.0003  0.3893
16957SOL    HW162596  10.867   1.693  12.549  0.5175 -1.2139  2.5520
16957SOL    HW262597  11.013   1.733  12.551  0.1619  0.3651  0.5026
16958SOL     OW62598   9.978   5.194   2.404  0.3274 -0.3616 -0.0321
16958SOL    HW162599   9.921   5.191   2.328  0.3026 -1.5979  0.0231
16958SOL    HW262600   9.923   5.167   2.477  0.3356  0.8612  0.4564
16959SOL     OW62601   3.385  12.286  12.574  0.4251  0.2739  0.1808
16959SOL    HW162602   3.448  12.338  12.624  2.4527  0.3309 -2.2593
16959SOL    HW262603   3.404  12.306  12.482 -1.8147 -1.3023 -0.7258
16960SOL     OW62604   1.666   4.330  11.376  0.5074 -0.1550 -0.4575
16960SOL    HW162605   1.699   4.356  11.290 -0.6165 -0.9715 -1.1726
16960SOL    HW262606   1.675   4.408  11.430  1.7157  0.2244 -1.1525
16961SOL     OW62607   4.504   8.942   6.053  0.6912  0.2377 -0.2240
16961SOL    HW162608   4.478   8.858   6.091  1.1972  0.4288  0.5685
16961SOL    HW262609   4.579   8.970   6.106 -1.1680  2.5563  1.3668
16962SOL     OW62610   3.233   5.974   0.549  0.3779  0.2736  0.4183
16962SOL    HW162611   3.259   5.966   0.641  0.8873 -0.1039  0.2480
16962SOL    HW262612   3.286   6.046   0.516 -0.0853  0.6602  0.5173
16963SOL     OW62613   4.502   6.555   9.149 -0.0159  0.4268  0.3759
16963SOL    HW162614   4.546   6.497   9.210  2.9316 -0.7884 -2.5653
16963SOL    HW262615   4.450   6.497   9.094  0.3144  0.9721 -0.5411
16964SOL     OW62616  10.322   5.866   6.517  0.2941  0.5180  0.3857
16964SOL    HW162617  10.390   5.804   6.490  0.6500  1.0733 -0.0078
16964SOL    HW262618  10.339   5.945   6.465 -1.0630  0.4341 -0.2302
16965SOL     OW62619   7.509  11.360  11.034  0.5649  0.0825  0.0520
16965SOL    HW162620   7.413  11.356  11.030  0.6385 -1.9906 -0.8722
16965SOL    HW262621   7.531  11.446  11.001 -0.9656  0.4772 -0.0206
16966SOL     OW62622   8.846   4.892  12.012  0.2907  0.1747 -0.5301
16966SOL    HW162623   8.791   4.940  11.951  1.5979  0.5950 -1.4220
16966SOL    HW262624   8.826   4.800  11.996  1.6310  0.1933 -2.6538
16967SOL     OW62625   6.048  12.557   3.177 -0.3897  0.0618 -0.4989
16967SOL    HW162626   6.143  12.547   3.173 -0.2431  0.8647  0.4261
16967SOL    HW262627   6.020  12.491   3.241 -0.3970  0.0935 -0.4694
16968SOL     OW62628   1.055  13.026   9.466 -0.3795 -0.6489  0.1492
16968SOL    HW162629   1.052  12.971   9.545  1.0757 -0.3688  0.4284
16968SOL    HW262630   0.991  13.096   9.483 -2.5898 -2.4142 -0.3889
16969SOL     OW62631  12.387  13.328  13.562 -0.4525 -0.4443 -0.6333
16969SOL    HW162632  12.322  13.376  13.511 -0.9026 -1.1618 -0.7518
16969SOL    HW262633  12.336  13.284  13.630  0.3629  2.4491  2.0743
16970SOL     OW62634   9.916  13.379   9.858  0.6057 -0.1159  0.5210
16970SOL    HW162635   9.962  13.297   9.838  1.1247  0.1006  0.8215
16970SOL    HW262636   9.855  13.356   9.928  0.3332 -0.3794  0.2003
16971SOL     OW62637  13.103   9.955   0.398 -0.1325  0.0894  0.5095
16971SOL    HW162638  13.053  10.017   0.344  0.8577 -0.5813 -1.2742
16971SOL    HW262639  13.165   9.915   0.337  2.1125  0.3490  2.4611
16972SOL     OW62640  11.060  10.424   6.016  0.5868 -0.1591 -0.4926
16972SOL    HW162641  11.112  10.442   6.094 -2.3597  2.6452  1.0844
16972SOL    HW262642  11.006  10.349   6.041 -1.2063  1.4559  0.8034
16973SOL     OW62643   6.403  11.490   3.965  0.2647 -0.3835  0.3332
16973SOL    HW162644   6.347  11.502   4.042  0.2347 -0.1197  0.2738
16973SOL    HW262645   6.489  11.468   4.001 -0.3786 -3.0986  0.3767
16974SOL     OW62646   2.720  13.020  11.562 -0.2127  0.2873 -0.3125
16974SOL    HW162647   2.733  13.115  11.554 -0.1875  0.2442 -0.8551
16974SOL    HW262648   2.802  12.982  11.528 -0.3253  0.0718 -0.3426
16975SOL     OW62649   0.679  11.645   1.006 -0.5254  0.3916  0.0085
16975SOL    HW162650   0.740  11.679   1.071 -0.1572  1.2004 -0.7390
16975SOL    HW262651   0.624  11.584   1.055  2.1534 -1.9872  0.3493
16976SOL     OW62652   6.842   0.680   2.538  0.1747  0.0764 -0.2642
16976SOL    HW162653   6.782   0.744   2.499  0.2637  0.1115 -0.3427
16976SOL    HW262654   6.818   0.597   2.497 -0.8506 -0.1939  0.8152
16977SOL     OW62655  11.042   1.081   5.667 -0.3440 -0.0309 -0.1231
16977SOL    HW162656  10.973   1.119   5.722  0.0568  2.2839 -1.0876
16977SOL    HW262657  10.995   1.030   5.602 -1.0317 -0.0386  0.3634
16978SOL     OW62658   3.023   8.769   8.654 -0.2067 -0.0020  0.3979
16978SOL    HW162659   3.056   8.767   8.565 -1.0783 -0.3694  0.0663
16978SOL    HW262660   3.075   8.704   8.701 -0.0535 -0.1331  0.0463
16979SOL     OW62661   4.269   9.714   1.489 -0.3126 -0.5861  0.1672
16979SOL    HW162662   4.300   9.727   1.399  4.1958  0.6712  1.6515
16979SOL    HW262663   4.290   9.622   1.508  0.5514 -0.3296  0.4927
16980SOL     OW62664  12.511   1.344   4.791 -0.2470 -0.4697  0.8422
16980SOL    HW162665  12.434   1.291   4.771  0.1871 -0.6453 -0.4675
16980SOL    HW262666  12.526   1.394   4.711  1.6106 -1.2214  0.6787
16981SOL     OW62667  10.466  10.111  12.218  0.8607  0.4388 -0.2688
16981SOL    HW162668  10.558  10.086  12.210  0.8837  0.4363  0.0129
16981SOL    HW262669  10.425  10.078  12.138  0.9898 -0.0733 -0.1277
16982SOL     OW62670   1.320  12.921   6.194 -0.4254  0.1687  0.2248
16982SOL    HW162671   1.311  12.977   6.117  0.7205 -0.2145 -0.2146
16982SOL    HW262672   1.323  12.832   6.158  1.0236  0.0326  0.5989
16983SOL     OW62673   5.984   1.815  11.021 -0.0916 -0.0501  0.5231
16983SOL    HW162674   6.029   1.839  11.102  1.4941 -0.7851 -0.1001
16983SOL    HW262675   6.054   1.801  10.958 -1.2615 -0.2570 -0.7801
16984SOL     OW62676  12.127  10.117   2.352 -0.2669 -0.5414 -0.4689
16984SOL    HW162677  12.129  10.141   2.445 -0.6949  1.8932 -1.0397
16984SOL    HW262678  12.139  10.022   2.353  1.8638 -0.3802  1.9526
16985SOL     OW62679   2.702   4.813   8.155 -0.1513  0.1453 -0.3341
16985SOL    HW162680   2.671   4.814   8.065 -1.5104  0.5643  0.1053
16985SOL    HW262681   2.622   4.817   8.208  0.6409  0.6226  0.8817
16986SOL     OW62682  12.838   8.673   7.580  0.5222 -0.1286 -0.2952
16986SOL    HW162683  12.760   8.698   7.630  0.0514 -0.7881 -0.6852
16986SOL    HW262684  12.906   8.733   7.610  0.8683 -1.8340  2.7807
16987SOL     OW62685  10.509   7.979   0.553 -0.5601  0.7385  0.7092
16987SOL    HW162686  10.480   8.044   0.616 -1.1289  1.0569  0.1402
16987SOL    HW262687  10.434   7.969   0.493  0.3728  1.3139 -0.5902
16988SOL     OW62688   2.066   2.459   3.056 -0.3107 -0.0590 -0.0843
16988SOL    HW162689   2.020   2.541   3.071  0.3382  0.2638  0.1776
16988SOL    HW262690   2.151   2.486   3.021 -0.5594 -0.6672 -1.1890
16989SOL     OW62691   9.023   4.562   6.137  0.1104 -0.4299  0.3009
16989SOL    HW162692   9.062   4.649   6.130  1.4601 -0.7105  2.9296
16989SOL    HW262693   8.939   4.577   6.181 -0.5244 -0.3223 -0.9025
16990SOL     OW62694  12.524  13.235   9.907 -0.3744  0.7097  0.1434
16990SOL    HW162695  12.578  13.185   9.845  0.4740  2.3804 -0.5074
16990SOL    HW262696  12.578  13.243   9.986 -0.2807  1.0756  0.0434
16991SOL     OW62697   9.302   2.123   8.058 -0.3159 -0.6985  0.3606
16991SOL    HW162698   9.369   2.055   8.060 -0.1879 -0.5995  3.1591
16991SOL    HW262699   9.351   2.205   8.057 -0.4537 -0.6169 -0.4926
16992SOL     OW62700   6.639  12.573   6.263 -0.0102  0.3781 -0.3485
16992SOL    HW162701   6.686  12.490   6.271 -0.3186  0.0982 -1.2728
16992SOL    HW262702   6.581  12.561   6.188 -0.6206  1.1670 -0.0257
16993SOL     OW62703   4.065   2.273   1.967 -0.2811  0.3119  0.0603
16993SOL    HW162704   4.062   2.198   2.026 -1.0580  0.3785  0.1103
16993SOL    HW262705   4.158   2.296   1.963 -0.0090 -0.7308 -0.0607
16994SOL     OW62706   7.686   7.791   8.307  0.0769  0.1493 -0.0595
16994SOL    HW162707   7.755   7.726   8.320 -0.0092  0.3676  1.6017
16994SOL    HW262708   7.609   7.752   8.347 -0.2174  0.8715  0.0769
16995SOL     OW62709   7.665  10.650   7.647 -0.2229 -0.0114  0.1946
16995SOL    HW162710   7.572  10.648   7.627 -0.3222 -0.0478  0.6683
16995SOL    HW262711   7.703  10.707   7.580 -0.8610  1.6353  1.1867
16996SOL     OW62712   5.981   4.629  12.858  0.4620 -0.4918 -1.0276
16996SOL    HW162713   6.073   4.603  12.853 -0.2029 -3.2291 -0.7429
16996SOL    HW262714   5.955   4.641  12.767  0.8658 -0.6412 -1.1678
16997SOL     OW62715   2.204   7.613   4.470  0.7700 -0.0905 -0.2104
16997SOL    HW162716   2.241   7.557   4.539  0.4972 -0.0957 -0.0663
16997SOL    HW262717   2.280   7.656   4.431  0.8434  0.8825  0.9365
16998SOL     OW62718   2.560  13.321   1.486 -0.0478 -0.0969  0.5093
16998SOL    HW162719   2.584  13.413   1.491  2.1900 -0.5738 -0.1160
16998SOL    HW262720   2.628  13.276   1.537 -0.0842 -1.5269 -0.6491
16999SOL     OW62721   8.784  11.985   8.001  0.8280  0.1564  0.1430
16999SOL    HW162722   8.742  11.957   8.082 -0.4159 -1.2007 -0.9341
16999SOL    HW262723   8.711  12.009   7.943  1.6554  0.3359 -0.8511
17000SOL     OW62724   5.219  10.737  13.711  0.3873 -0.5277  0.0894
17000SOL    HW162725   5.166  10.814  13.731  1.3410 -0.1738  1.3704
17000SOL    HW262726   5.182  10.704  13.629 -1.3170  0.1268  0.5442
17001SOL     OW62727   5.631  11.548   0.319  0.6568 -0.0657  0.2360
17001SOL    HW162728   5.638  11.607   0.393 -2.2187 -1.6342  1.9187
17001SOL    HW262729   5.554  11.578   0.271  1.5533 -0.0387 -1.2455
17002SOL     OW62730   5.330   6.803   0.276  0.5162 -0.1660 -0.0955
17002SOL    HW162731   5.273   6.823   0.350 -1.4116 -0.6390 -1.3484
17002SOL    HW262732   5.348   6.887   0.235 -0.8283 -0.1463 -0.7053
17003SOL     OW62733   0.288   3.574   8.151  0.4754 -0.1340  0.2630
17003SOL    HW162734   0.215   3.571   8.213  2.7348  3.6531  3.6337
17003SOL    HW262735   0.256   3.628   8.079 -0.9724 -1.2947 -0.0199
17004SOL     OW62736   8.136  11.471   6.132  0.1818 -0.4184 -0.4023
17004SOL    HW162737   8.120  11.565   6.144 -1.1805 -0.7064  0.3033
17004SOL    HW262738   8.048  11.433   6.127  0.7111 -1.4678 -2.4909
17005SOL     OW62739  12.086   8.193   1.680  0.5118  0.2870  0.3045
17005SOL    HW162740  12.092   8.261   1.747  1.7579  1.1682 -0.6644
17005SOL    HW262741  11.996   8.161   1.687  0.8409 -0.2807  2.9774
17006SOL     OW62742   7.278  13.091   7.278  0.0282  0.2907 -0.7634
17006SOL    HW162743   7.364  13.073   7.315 -1.2481  1.0331  3.0405
17006SOL    HW262744   7.265  13.185   7.293 -1.1310  0.3772 -2.0768
17007SOL     OW62745   7.338   8.316   7.863  0.3284  0.2832  0.1156
17007SOL    HW162746   7.289   8.234   7.850 -1.3012  1.0989  0.7764
17007SOL    HW262747   7.319   8.341   7.953  0.2417  1.7205 -0.2762
17008SOL     OW62748  11.972   2.852  10.951  0.5963 -0.1718  0.5317
17008SOL    HW162749  12.004   2.940  10.929 -1.5809  0.9250  1.3598
17008SOL    HW262750  12.041   2.793  10.923  0.8837  1.5647 -2.8671
17009SOL     OW62751   8.180   0.198   8.130  0.2309 -0.2987  0.4327
17009SOL    HW162752   8.179   0.109   8.167  0.3864 -1.6598 -2.5175
17009SOL    HW262753   8.263   0.204   8.084  0.2918  1.4718  0.7290
17010SOL     OW62754   2.021  10.776   8.689 -0.0116  0.2378  0.8644
17010SOL    HW162755   2.027  10.683   8.668 -0.7592  0.2473  0.5733
17010SOL    HW262756   1.929  10.790   8.712 -0.3289  1.2537 -0.8533
17011SOL     OW62757   1.181   8.345   7.977  0.1306  0.2484 -0.7962
17011SOL    HW162758   1.178   8.434   8.014 -2.3735 -0.5208  1.1785
17011SOL    HW262759   1.106   8.342   7.917 -1.7469 -1.2893  1.4265
17012SOL     OW62760   4.289   3.609   9.778  0.3597 -0.0439 -0.0038
17012SOL    HW162761   4.229   3.558   9.832  1.2162 -1.1026 -0.0072
17012SOL    HW262762   4.376   3.579   9.805  0.8471 -2.2809 -3.4522
17013SOL     OW62763   6.866   0.676  12.650  0.4407  0.5412 -0.0940
17013SOL    HW162764   6.892   0.754  12.699 -0.1584  0.2242  0.7387
17013SOL    HW262765   6.853   0.708  12.560  0.8704  1.2584  0.0867
17014SOL     OW62766   9.459   4.885   3.838 -0.2159  0.2181 -0.3708
17014SOL    HW162767   9.402   4.817   3.873 -1.2227  0.8107 -0.8002
17014SOL    HW262768   9.434   4.892   3.745 -0.0062  1.0245 -0.3791
17015SOL     OW62769   1.545  10.935   7.529 -0.1947 -0.0328  0.3217
17015SOL    HW162770   1.556  11.029   7.514 -1.5276  0.1840  0.5530
17015SOL    HW262771   1.632  10.904   7.554  0.1523  1.2400  0.7703
17016SOL     OW62772   0.353   8.003  11.495 -0.2133 -0.3980  0.2888
17016SOL    HW162773   0.334   7.924  11.445  0.1571 -0.4276  0.1900
17016SOL    HW262774   0.280   8.062  11.476  0.1596 -0.2219 -0.6832
17017SOL     OW62775  11.694   8.717   2.609  0.8611  1.0106 -0.1825
17017SOL    HW162776  11.708   8.681   2.522 -0.2336 -1.9820  0.7619
17017SOL    HW262777  11.644   8.798   2.594 -0.3196 -0.0329 -2.2973
17018SOL     OW62778   2.575   3.216   7.448 -0.0527  0.1805 -0.5114
17018SOL    HW162779   2.669   3.229   7.460  0.0442 -0.7447 -0.1648
17018SOL    HW262780   2.539   3.304   7.440  0.6517  0.6157  0.8387
17019SOL     OW62781  13.053  11.580   9.375 -0.3143 -0.0792 -0.4444
17019SOL    HW162782  12.989  11.516   9.406  0.7180 -0.7599  0.3545
17019SOL    HW262783  13.108  11.598   9.451  1.6155 -0.9515 -1.5376
17020SOL     OW62784  12.991  10.589   2.768  0.3382 -0.3626 -0.0835
17020SOL    HW162785  12.942  10.509   2.749 -0.8401  0.8588 -2.6936
17020SOL    HW262786  12.938  10.635   2.833 -0.4177 -0.4578 -0.6219
17021SOL     OW62787   4.082   5.739   1.188  0.0266  0.6223  0.2566
17021SOL    HW162788   4.164   5.709   1.149 -0.3383 -0.7540  0.5072
17021SOL    HW262789   4.015   5.716   1.123 -0.2352  1.1544  0.3353
17022SOL     OW62790  10.869  10.352   0.566  0.0415  0.4955 -0.2137
17022SOL    HW162791  10.885  10.265   0.530 -1.9750 -0.1874  0.3759
17022SOL    HW262792  10.785  10.379   0.527  0.6908  2.2557 -0.4924
17023SOL     OW62793   4.749  10.781   4.585  0.0252  0.2884  0.2395
17023SOL    HW162794   4.823  10.818   4.633  0.1574  1.3239 -0.7297
17023SOL    HW262795   4.677  10.779   4.649 -0.2261  3.0127  0.1752
17024SOL     OW62796   8.218   8.614   0.762  0.2345 -0.3443 -0.5328
17024SOL    HW162797   8.288   8.677   0.776 -0.0505 -0.0292 -0.4859
17024SOL    HW262798   8.147   8.645   0.819 -0.1072 -0.3822 -0.9323
17025SOL     OW62799   1.149   3.110   5.800 -0.2398 -0.6351 -0.4145
17025SOL    HW162800   1.162   3.017   5.784  0.6076 -0.5591 -0.2042
17025SOL    HW262801   1.238   3.146   5.806 -0.5584  0.1294 -0.1787
17026SOL     OW62802  10.691   8.672   6.509  0.1244  0.0171  0.1830
17026SOL    HW162803  10.735   8.639   6.430 -2.2743 -1.8057 -0.5051
17026SOL    HW262804  10.669   8.593   6.559  0.5789  1.0744  2.1552
17027SOL     OW62805   8.530   4.912   6.560 -0.3106  0.2499  0.2012
17027SOL    HW162806   8.447   4.936   6.517  0.3426 -1.0803 -1.9720
17027SOL    HW262807   8.536   4.817   6.549  2.2744  0.4951 -1.2667
17028SOL     OW62808   5.666   9.533   0.329  0.1662 -0.5927  0.0085
17028SOL    HW162809   5.619   9.457   0.363 -0.3161 -0.2226  0.1756
17028SOL    HW262810   5.684   9.587   0.406 -0.9452  0.2591 -0.3089
17029SOL     OW62811  10.600   6.350   1.758 -0.0203 -0.1440  0.2820
17029SOL    HW162812  10.621   6.442   1.739  0.7072 -0.2044  0.7565
17029SOL    HW262813  10.544   6.323   1.685  0.4063  0.4471 -0.2781
17030SOL     OW62814   1.065   5.727   5.084 -0.6033  0.2527  0.0831
17030SOL    HW162815   1.066   5.703   4.991 -1.1280 -1.3939  0.4652
17030SOL    HW262816   0.972   5.731   5.106 -0.4761  0.3879  0.5911
17031SOL     OW62817   6.509   7.239   9.529  0.1208 -0.2689 -0.7914
17031SOL    HW162818   6.428   7.240   9.477 -1.1708  1.7944  1.0564
17031SOL    HW262819   6.559   7.314   9.498  0.1979 -0.1213 -0.3204
17032SOL     OW62820   3.543  10.779   8.325 -0.0430  0.2150  0.1205
17032SOL    HW162821   3.576  10.867   8.307 -2.2344  1.0809  0.0068
17032SOL    HW262822   3.589  10.751   8.404  1.6117  0.9219 -0.5673
17033SOL     OW62823  10.056  11.155  10.450 -0.3801  0.5651 -0.5810
17033SOL    HW162824   9.974  11.202  10.465 -0.9841  0.0127 -1.9835
17033SOL    HW262825  10.119  11.223  10.426 -1.0544  0.7593 -1.8559
17034SOL     OW62826  13.148   1.416   4.163 -0.0817  0.2422  0.3742
17034SOL    HW162827  13.143   1.458   4.077  1.0499  0.6633  0.4986
17034SOL    HW262828  13.231   1.368   4.162 -0.4178 -0.3755  0.9619
17035SOL     OW62829  12.452  10.712   3.824  0.0060  0.3071 -0.3167
17035SOL    HW162830  12.500  10.630   3.834 -3.4066 -1.7747  0.4454
17035SOL    HW262831  12.447  10.726   3.730  1.0792 -0.0253 -0.4336
17036SOL     OW62832   1.728  10.839   0.252 -0.0286 -0.0574  0.1187
17036SOL    HW162833   1.716  10.806   0.341  0.1893  2.0006  0.9826
17036SOL    HW262834   1.675  10.781   0.197 -0.2559 -1.3106  1.5939
17037SOL     OW62835  13.532   3.115   4.673  0.2157  0.1006  0.5253
17037SOL    HW162836  13.593   3.062   4.621  0.0135 -1.8426  2.1462
17037SOL    HW262837  13.587   3.154   4.742  0.2047  1.3545 -0.1382
17038SOL     OW62838  12.947   9.886  12.217 -0.4767 -0.1597 -0.2992
17038SOL    HW162839  13.030   9.929  12.198 -1.2565  1.4474 -0.1773
17038SOL    HW262840  12.959   9.849  12.305  0.2354 -0.2919 -0.4456
17039SOL     OW62841  12.352   0.222   3.262  0.1863  0.1865 -0.1584
17039SOL    HW162842  12.275   0.257   3.218 -1.6729 -0.0714  2.6515
17039SOL    HW262843  12.408   0.298   3.276 -0.5502  0.7829 -0.3474
17040SOL     OW62844  12.862  10.436   1.037  0.2798 -0.2427 -0.3111
17040SOL    HW162845  12.953  10.464   1.033  0.4121 -0.7986 -1.4352
17040SOL    HW262846  12.860  10.351   0.993 -0.8589 -0.0209 -0.7398
17041SOL     OW62847  11.515   3.503   0.723 -0.3718 -0.0774  0.4781
17041SOL    HW162848  11.552   3.575   0.671 -1.2907  0.0554  0.0022
17041SOL    HW262849  11.573   3.498   0.799  2.8682 -2.2190 -1.8543
17042SOL     OW62850   3.881   3.316   0.384  0.4710 -0.5484 -0.1997
17042SOL    HW162851   3.914   3.372   0.455  0.9577  1.2054 -1.7258
17042SOL    HW262852   3.810   3.366   0.345  1.1564 -0.7781 -1.8362
17043SOL     OW62853   6.120   5.012  11.177 -0.4185 -0.0761  0.0474
17043SOL    HW162854   6.118   5.065  11.097 -0.2299 -0.9865 -0.5802
17043SOL    HW262855   6.190   4.949  11.162 -2.2203 -2.0921 -0.2953
17044SOL     OW62856   0.187  12.585   6.672 -0.0750 -0.4036  0.0031
17044SOL    HW162857   0.196  12.667   6.623 -1.4020 -0.0273  0.3631
17044SOL    HW262858   0.266  12.536   6.650  1.6206  1.6674  1.0824
17045SOL     OW62859   7.792   1.008   2.387 -0.3695 -0.0474 -0.1337
17045SOL    HW162860   7.704   1.024   2.420 -1.0793 -0.7224 -1.6072
17045SOL    HW262861   7.847   1.071   2.434 -1.5494  0.0882  1.1249
17046SOL     OW62862   0.756   3.890   4.179  0.3518 -0.4962 -0.0884
17046SOL    HW162863   0.710   3.973   4.183  0.6245 -0.3496  0.0441
17046SOL    HW262864   0.784   3.873   4.269  1.2590 -0.1801 -0.3030
17047SOL     OW62865   3.763   5.549   0.444 -0.4473 -0.0974  0.1045
17047SOL    HW162866   3.683   5.511   0.479  0.4659 -2.1439  0.0989
17047SOL    HW262867   3.780   5.501   0.363 -0.0008  1.3596 -0.7146
17048SOL     OW62868   1.211   9.216   6.490 -0.8475 -0.2722  0.3793
17048SOL    HW162869   1.220   9.143   6.430 -0.3083  1.5784 -1.9523
17048SOL    HW262870   1.300   9.238   6.516 -0.8489  0.5492 -0.2620
17049SOL     OW62871   4.721   3.640  10.051  0.1920  0.6823 -0.1592
17049SOL    HW162872   4.780   3.650   9.976  1.2650 -1.0346  0.4113
17049SOL    HW262873   4.748   3.709  10.112  1.6871 -0.0804  0.0990
17050SOL     OW62874   8.408   2.325   2.530 -0.0944 -0.0985  0.1058
17050SOL    HW162875   8.459   2.392   2.574  0.7466 -1.7257  1.7379
17050SOL    HW262876   8.343   2.297   2.595 -2.1009  0.7989 -1.3811
17051SOL     OW62877   0.789   3.551   6.954 -0.2311  0.0912  0.7326
17051SOL    HW162878   0.834   3.491   7.014  2.0875  0.3056 -0.6709
17051SOL    HW262879   0.846   3.628   6.950 -0.1985  0.0258 -1.7718
17052SOL     OW62880  12.921   2.107   5.713 -0.2541 -0.0533 -0.6451
17052SOL    HW162881  12.861   2.099   5.788 -0.9946 -1.8012 -1.3604
17052SOL    HW262882  12.889   2.042   5.651  2.2486 -0.8557 -1.1758
17053SOL     OW62883   2.150   9.530   2.770 -0.9341 -0.2416  0.2135
17053SOL    HW162884   2.062   9.530   2.807 -0.6598 -2.3645  1.0321
17053SOL    HW262885   2.176   9.621   2.769 -3.3762  0.5493 -0.6749
17054SOL     OW62886  11.095   1.841   9.755  0.0582 -0.3526 -0.0365
17054SOL    HW162887  11.171   1.786   9.733  0.7225  0.3818  0.3807
17054SOL    HW262888  11.080   1.893   9.676  0.6879  0.2812  0.2478
17055SOL     OW62889   4.558   0.423  12.331 -0.0941 -0.3516 -0.6184
17055SOL    HW162890   4.636   0.475  12.350  0.2251 -0.0817 -2.4958
17055SOL    HW262891   4.541   0.375  12.412  2.6262 -1.1927 -0.4479
17056SOL     OW62892   4.975  10.887   2.960  0.4932  0.5313 -0.3103
17056SOL    HW162893   5.062  10.867   2.926  0.6918 -0.6836  0.8371
17056SOL    HW262894   4.918  10.825   2.916  0.2300  1.1271 -0.8322
17057SOL     OW62895   6.380  10.204   6.242 -0.5841 -0.6199  0.6726
17057SOL    HW162896   6.437  10.128   6.230 -0.8067 -0.6722 -0.1639
17057SOL    HW262897   6.302  10.168   6.285 -0.4036 -0.7324  0.9095
17058SOL     OW62898   7.636   3.000   9.478 -0.0003  0.4840 -0.4390
17058SOL    HW162899   7.697   3.030   9.546  0.4314 -1.5905  0.1642
17058SOL    HW262900   7.671   3.037   9.397  0.8353  1.0873  0.1805
17059SOL     OW62901   9.938  11.344   4.532 -0.1075  0.6215  0.1756
17059SOL    HW162902   9.913  11.288   4.605  2.1046 -1.6792 -0.7111
17059SOL    HW262903   9.860  11.398   4.516 -2.1201 -1.6544  1.5599
17060SOL     OW62904   9.597   7.792   9.364 -0.4458 -0.4235  0.1785
17060SOL    HW162905   9.548   7.750   9.292  1.1407  0.2677 -1.3673
17060SOL    HW262906   9.680   7.745   9.366 -0.0336  0.3354  0.8124
17061SOL     OW62907   6.822  10.161   7.139 -0.5172  0.2542 -0.0770
17061SOL    HW162908   6.737  10.205   7.145 -0.2828  0.5463  1.5234
17061SOL    HW262909   6.801  10.068   7.128 -1.0210  0.4312 -0.6727
17062SOL     OW62910  11.900   6.248   2.204  0.1168  0.2210 -0.5460
17062SOL    HW162911  11.977   6.194   2.220 -0.9111 -0.6525  1.9738
17062SOL    HW262912  11.828   6.186   2.196 -0.6583  1.1089 -0.6919
17063SOL     OW62913  13.616   3.693   8.165 -0.1570  0.0747  0.3719
17063SOL    HW162914  13.648   3.783   8.169  1.6499 -0.5283  0.4013
17063SOL    HW262915  13.533   3.699   8.119 -0.1382  1.7775  0.5144
17064SOL     OW62916   8.847   8.110  13.575 -0.4138 -0.0857 -0.3920
17064SOL    HW162917   8.900   8.058  13.635 -0.9224  0.2628  0.3659
17064SOL    HW262918   8.907   8.132  13.503  0.9556  1.5695  1.1568
17065SOL     OW62919   2.354  11.088   7.150  0.0248  0.1658 -0.2031
17065SOL    HW162920   2.400  11.006   7.130 -0.2613  0.1494 -0.8353
17065SOL    HW262921   2.394  11.119   7.231 -0.1561 -0.8285  0.2868
17066SOL     OW62922  13.058   5.194  11.952  0.2286  0.0809  0.1562
17066SOL    HW162923  13.047   5.140  12.031  1.0191 -0.8555 -0.3557
17066SOL    HW262924  13.149   5.179  11.925 -0.3836 -0.6393 -1.6608
17067SOL     OW62925   7.115   7.361  11.607  0.5684  0.2255 -0.5945
17067SOL    HW162926   7.097   7.273  11.575 -0.6761  0.7254 -1.3309
17067SOL    HW262927   7.031   7.392  11.642  1.2765  0.6701  0.8067
17068SOL     OW62928   2.343  10.668   1.172 -0.2458  0.0000  0.2169
17068SOL    HW162929   2.323  10.749   1.126 -0.9534  1.8045  3.3989
17068SOL    HW262930   2.439  10.662   1.169 -0.1888  0.9243 -0.0954
17069SOL     OW62931   5.590  11.546   3.121 -0.2899 -0.1355 -0.1352
17069SOL    HW162932   5.656  11.515   3.183  0.3152  1.1376 -0.0960
17069SOL    HW262933   5.586  11.641   3.136 -2.0532 -0.1652 -0.2231
17070SOL     OW62934   4.458  10.358   6.845  0.5198 -0.0002  0.0606
17070SOL    HW162935   4.504  10.441   6.835  3.9916 -1.7977 -0.6935
17070SOL    HW262936   4.416  10.344   6.760  0.1460  0.8508  0.0982
17071SOL     OW62937  12.541   5.703  13.525  0.0140 -0.0357 -0.2283
17071SOL    HW162938  12.594   5.664  13.456 -0.6146 -0.7070 -0.3499
17071SOL    HW262939  12.604   5.737  13.589  0.7350  3.0625 -2.3480
17072SOL     OW62940   2.684   3.841   0.137 -0.1528 -0.4960  0.0833
17072SOL    HW162941   2.700   3.932   0.111 -0.8993 -0.0528  1.1275
17072SOL    HW262942   2.748   3.791   0.088  2.3641  0.8840  1.7463
17073SOL     OW62943   6.385  10.298   8.387  0.0479  0.2676  0.0675
17073SOL    HW162944   6.405  10.235   8.317 -1.4611 -0.6191  0.3846
17073SOL    HW262945   6.439  10.374   8.367  0.8955 -0.6010 -1.1158
17074SOL     OW62946   2.116   2.715   9.892 -0.4424  0.1671 -0.0523
17074SOL    HW162947   2.042   2.719   9.831 -0.2386 -0.5621 -0.3631
17074SOL    HW262948   2.094   2.779   9.960 -1.0690  0.3952 -0.4569
17075SOL     OW62949  10.867  10.025   2.526 -0.2920  0.4720  0.0890
17075SOL    HW162950  10.918   9.945   2.517 -0.8443  0.2213 -1.0059
17075SOL    HW262951  10.849  10.032   2.620 -1.8626 -1.7403  0.0503
17076SOL     OW62952  10.709   4.986   3.249  0.4753 -0.0369 -0.7663
17076SOL    HW162953  10.721   4.926   3.322  1.4864  0.8128 -0.2006
17076SOL    HW262954  10.797   5.011   3.223  0.0955  1.0501 -1.1020
17077SOL     OW62955   7.860   1.165  12.066  0.0370  0.0203  0.1684
17077SOL    HW162956   7.831   1.167  12.158 -1.1674  2.3503 -0.1784
17077SOL    HW262957   7.946   1.207  12.067  0.5504 -1.0094  0.3560
17078SOL     OW62958   2.743   6.881   0.077 -0.4433  0.1629 -0.2006
17078SOL    HW162959   2.750   6.865   0.171  0.9578 -0.0781 -0.3274
17078SOL    HW262960   2.727   6.795   0.039 -0.2583  0.1526 -0.2532
17079SOL     OW62961   1.841   3.173  11.078  0.2582  0.2562  0.6686
17079SOL    HW162962   1.935   3.189  11.067  0.5980 -1.7596  0.1266
17079SOL    HW262963   1.806   3.256  11.109  2.2483  1.0140  1.0686
17080SOL     OW62964   6.237  12.206   9.737 -0.0487  0.4543 -0.4340
17080SOL    HW162965   6.179  12.240   9.805 -0.2372 -1.5206  0.4728
17080SOL    HW262966   6.180  12.153   9.680  0.7186 -1.1492  0.2117
17081SOL     OW62967   3.552   7.863  11.827  0.1494  0.3173 -0.2671
17081SOL    HW162968   3.624   7.804  11.803 -0.4837 -0.0940 -1.2056
17081SOL    HW262969   3.566   7.880  11.920  0.1902 -1.5887  0.1318
17082SOL     OW62970   0.416   2.907   3.859  0.2418 -0.1922 -0.0704
17082SOL    HW162971   0.332   2.951   3.849  0.7847  0.6857 -0.9515
17082SOL    HW262972   0.462   2.959   3.925  1.0246  0.8336 -1.3745
17083SOL     OW62973  10.457   3.685  11.037 -0.4574 -0.0559  0.4147
17083SOL    HW162974  10.410   3.647  10.963  0.7276  1.6477 -1.2690
17083SOL    HW262975  10.541   3.639  11.038 -1.1490 -1.3900  1.9258
17084SOL     OW62976   7.568  10.626   5.436  0.5752  0.1810 -0.1269
17084SOL    HW162977   7.521  10.543   5.443  0.3397  0.3786  0.8562
17084SOL    HW262978   7.499  10.691   5.419  0.5348  0.4028  0.8311
17085SOL     OW62979  12.603  10.493  12.063 -0.0923  0.5511  0.0990
17085SOL    HW162980  12.615  10.511  11.970  1.7649 -0.8986 -0.0112
17085SOL    HW262981  12.637  10.571  12.107  0.7522  0.4953 -0.4288
17086SOL     OW62982   9.134   9.479   2.133  0.6223 -0.7431  0.4037
17086SOL    HW162983   9.163   9.400   2.087 -0.6017  0.1823 -2.1050
17086SOL    HW262984   9.198   9.546   2.110  1.2696 -0.7663  1.9719
17087SOL     OW62985  12.954   9.726  10.874  0.4284 -0.3098 -0.0609
17087SOL    HW162986  12.860   9.723  10.860  0.3129  0.6781  0.4181
17087SOL    HW262987  12.991   9.739  10.786  0.0672  0.0002 -0.1700
17088SOL     OW62988  12.664  10.118  11.312  0.5976 -0.2856 -0.2995
17088SOL    HW162989  12.642  10.041  11.364  1.3411 -0.8941 -0.8634
17088SOL    HW262990  12.700  10.181  11.376 -0.0379 -0.3819  0.1647
17089SOL     OW62991   2.302   6.336   5.236  0.2632  0.1596 -0.4833
17089SOL    HW162992   2.263   6.406   5.288  1.5501  0.3450  0.2750
17089SOL    HW262993   2.313   6.374   5.149  0.7261  0.8341 -0.1375
17090SOL     OW62994   9.250   8.402   0.134  0.4198 -0.2875 -0.3679
17090SOL    HW162995   9.309   8.412   0.059 -0.2451  1.6085 -0.6764
17090SOL    HW262996   9.162   8.409   0.096  0.0548 -0.2305  0.4788
17091SOL     OW62997  12.293   0.955   5.884  0.4458 -0.2994  0.1596
17091SOL    HW162998  12.300   0.865   5.851  0.0016 -0.2898  0.0392
17091SOL    HW262999  12.253   1.004   5.812  0.9519  0.0562  0.1172
17092SOL     OW63000   8.442  10.231   3.764 -0.5732 -0.1049  0.1902
17092SOL    HW163001   8.476  10.206   3.850 -0.2341 -0.4700 -0.0474
17092SOL    HW263002   8.399  10.315   3.779 -1.4645 -0.6786  0.9388
17093SOL     OW63003   5.411  10.270   6.755 -1.1416  0.0373  0.5364
17093SOL    HW163004   5.449  10.357   6.772 -0.1415 -0.5887  1.6359
17093SOL    HW263005   5.317  10.287   6.746 -0.7073  1.6117 -2.1263
17094SOL     OW63006  10.461   2.769   3.451  0.9409 -0.3285  0.0443
17094SOL    HW163007  10.513   2.830   3.400 -0.0829 -0.0970 -0.7617
17094SOL    HW263008  10.479   2.683   3.412  0.8496 -0.2731 -0.1183
17095SOL     OW63009   9.881   5.214   1.875  0.3447  0.1137 -0.1291
17095SOL    HW163010   9.826   5.152   1.922 -0.4223  0.1688 -0.9204
17095SOL    HW263011   9.883   5.292   1.931 -2.1522  0.8995 -1.0032
17096SOL     OW63012   7.521   7.865  13.233  0.0106 -0.4808 -0.5194
17096SOL    HW163013   7.496   7.957  13.225 -2.8945 -0.9724  1.1773
17096SOL    HW263014   7.553   7.856  13.323 -1.5057 -1.3926 -0.0245
17097SOL     OW63015   2.641   5.407  13.267 -0.2241  0.1685  0.0382
17097SOL    HW163016   2.583   5.339  13.302 -0.1548 -0.5653 -1.2205
17097SOL    HW263017   2.703   5.359  13.211 -0.5528  1.3289 -1.3637
17098SOL     OW63018   4.851  10.764  11.307  0.1325  0.9134  0.1615
17098SOL    HW163019   4.834  10.712  11.229  0.0173  0.2339  0.6348
17098SOL    HW263020   4.785  10.735  11.370 -0.8338  2.6155 -0.0170
17099SOL     OW63021   0.563   4.804   2.545  0.4342  0.3350 -0.1798
17099SOL    HW163022   0.586   4.854   2.467  0.1879 -0.4889 -0.7973
17099SOL    HW263023   0.571   4.712   2.518 -2.5378 -0.0163 -0.1797
17100SOL     OW63024   3.959   7.546   7.421 -0.4236 -0.2581  0.0113
17100SOL    HW163025   3.923   7.568   7.506  0.0643  0.0530  0.1389
17100SOL    HW263026   3.954   7.627   7.371  1.1407  0.1134  0.3993
17101SOL     OW63027   9.625   6.776   0.634 -0.2557  0.0837 -0.4754
17101SOL    HW163028   9.627   6.858   0.584  2.2634  1.6320  1.8994
17101SOL    HW263029   9.717   6.753   0.646 -0.8584 -1.7387  1.0528
17102SOL     OW63030   3.136   8.133   3.605 -0.2797 -0.4106  0.1395
17102SOL    HW163031   3.055   8.161   3.648 -1.7554 -3.3432 -0.4965
17102SOL    HW263032   3.120   8.042   3.580  3.2017 -1.0898 -0.1148
17103SOL     OW63033  10.526  11.641   8.781 -0.3035  0.5190 -0.3510
17103SOL    HW163034  10.553  11.550   8.792 -0.4858  0.6753  1.9537
17103SOL    HW263035  10.548  11.662   8.691  2.7103 -0.8516 -0.0654
17104SOL     OW63036   8.860   8.853  12.518  0.4814  0.2627  0.6528
17104SOL    HW163037   8.912   8.784  12.560 -0.2991  1.6517  4.2681
17104SOL    HW263038   8.915   8.931  12.521 -0.8930  1.2260  2.5045
17105SOL     OW63039   8.851   5.486  10.469 -0.2740 -0.0665 -0.0932
17105SOL    HW163040   8.858   5.459  10.561  1.6648  0.5247 -0.0170
17105SOL    HW263041   8.861   5.581  10.472  0.5415 -0.1160 -0.9885
17106SOL     OW63042   1.131   5.497   8.295  0.3048 -0.3789  0.3502
17106SOL    HW163043   1.035   5.502   8.294  0.3294  0.2404  0.4633
17106SOL    HW263044   1.155   5.523   8.384  0.5259 -1.9445  0.7823
17107SOL     OW63045  11.924  13.062   8.535 -0.5542  0.0553 -0.5193
17107SOL    HW163046  12.019  13.048   8.531 -0.2862  0.4589  2.3809
17107SOL    HW263047  11.888  12.976   8.557 -0.8037  0.0615 -0.8936
17108SOL     OW63048   6.818   1.052   0.199  0.3756  0.2917  0.2636
17108SOL    HW163049   6.858   0.976   0.241 -1.9791 -1.2548 -0.1032
17108SOL    HW263050   6.878   1.124   0.217  2.3839 -1.5053  1.1795
17109SOL     OW63051  10.609   2.120  12.796 -0.1860  0.0914 -0.4468
17109SOL    HW163052  10.567   2.035  12.780 -0.7635  0.1927  0.4945
17109SOL    HW263053  10.697   2.097  12.825  0.9349 -0.1093 -3.5767
17110SOL     OW63054   6.869   0.415   4.573 -0.0374 -0.8541  0.1778
17110SOL    HW163055   6.956   0.446   4.602  0.1693 -2.1919  1.0949
17110SOL    HW263056   6.886   0.372   4.489 -0.1316  0.4740 -0.5322
17111SOL     OW63057   3.916   7.707   9.444  0.1255  0.2895  0.5918
17111SOL    HW163058   3.893   7.689   9.353  1.1344  1.0335  0.1835
17111SOL    HW263059   4.009   7.685   9.451 -0.3369 -1.5353  1.9222
17112SOL     OW63060  10.812   6.461   5.614  0.3695  0.6635  0.1671
17112SOL    HW163061  10.758   6.445   5.537  0.1864  2.6339 -0.1585
17112SOL    HW263062  10.900   6.434   5.588 -0.0714 -0.7613  0.0557
17113SOL     OW63063   9.035  11.017   0.533  0.0754  0.0343 -0.9526
17113SOL    HW163064   9.086  10.939   0.508  1.1761  0.0872  0.8873
17113SOL    HW263065   9.069  11.086   0.476  0.1640 -0.5052 -1.5740
17114SOL     OW63066  11.372  10.813   5.326  0.0913 -0.4022  0.1832
17114SOL    HW163067  11.394  10.832   5.234 -1.1677 -0.1058 -0.0749
17114SOL    HW263068  11.452  10.834   5.374  1.9352 -3.6828 -1.1491
17115SOL     OW63069   4.047   4.164   0.463  0.2892 -0.3289  0.1629
17115SOL    HW163070   4.126   4.194   0.507  1.0717  0.3776 -1.6496
17115SOL    HW263071   3.998   4.117   0.531  0.7258  1.9456  2.1752
17116SOL     OW63072   9.632  13.214  12.834 -0.5150  0.0558 -0.1938
17116SOL    HW163073   9.681  13.292  12.858  1.2817 -1.6577  2.1503
17116SOL    HW263074   9.673  13.184  12.753 -1.7237  1.8561 -1.5462
17117SOL     OW63075   5.301  12.435   5.054 -0.4966 -0.0476  0.4260
17117SOL    HW163076   5.323  12.499   5.122 -0.1920  2.3651 -1.7631
17117SOL    HW263077   5.386  12.400   5.025 -0.3835  0.8167 -0.3525
17118SOL     OW63078  11.336   0.326   3.936 -0.2162  0.1617  0.2613
17118SOL    HW163079  11.344   0.342   4.030  2.2892 -0.7365  0.2625
17118SOL    HW263080  11.348   0.412   3.896  1.4232  0.1489  0.6855
17119SOL     OW63081  10.093   2.800   8.727  0.7082 -0.2247  0.6630
17119SOL    HW163082  10.000   2.786   8.744  0.5649  0.0071  0.0580
17119SOL    HW263083  10.132   2.808   8.815 -0.1660  1.8810  0.9175
17120SOL     OW63084   6.589  10.405   6.816  0.3402  0.5143 -0.6397
17120SOL    HW163085   6.581  10.406   6.912  0.2977  0.6627 -0.6440
17120SOL    HW263086   6.666  10.459   6.798 -0.7996  2.1625 -0.7864
17121SOL     OW63087   6.609   6.057   7.396  0.0952 -0.1405  0.2359
17121SOL    HW163088   6.517   6.087   7.398 -0.1330 -0.8596  0.5990
17121SOL    HW263089   6.650   6.114   7.331 -0.3743  0.8428  0.7847
17122SOL     OW63090   5.039   0.950   1.340  0.2265 -0.2850 -0.0591
17122SOL    HW163091   5.088   0.964   1.259  0.0548 -1.3007 -0.3541
17122SOL    HW263092   5.092   0.887   1.390 -0.1315 -0.3840  0.1994
17123SOL     OW63093   2.162  11.130   7.707 -0.0577  0.6367  0.1380
17123SOL    HW163094   2.102  11.058   7.686 -1.0641  1.7705 -1.0638
17123SOL    HW263095   2.249  11.095   7.688 -0.5558 -0.1534 -0.7832
17124SOL     OW63096   3.457   0.007   1.177 -0.0618 -0.5057 -0.1403
17124SOL    HW163097   3.394  -0.017   1.245  1.4012 -1.7522  0.8327
17124SOL    HW263098   3.496   0.089   1.208  1.5240 -1.7128  1.2718
17125SOL     OW63099   3.726   2.213   2.192 -0.0129 -0.0557 -0.8854
17125SOL    HW163100   3.745   2.266   2.115  2.3297 -1.6960 -1.5614
17125SOL    HW263101   3.804   2.222   2.247 -1.1555  0.1403  0.7698
17126SOL     OW63102  11.536  11.478   2.460  0.3170  0.9193 -0.5304
17126SOL    HW163103  11.515  11.385   2.460 -0.7101  1.1362 -1.3982
17126SOL    HW263104  11.505  11.510   2.544 -2.1065  1.0410 -1.3845
17127SOL     OW63105   0.224   4.384  12.651 -0.5182  0.2225 -0.2613
17127SOL    HW163106   0.134   4.415  12.655 -1.1592 -1.4924 -0.8248
17127SOL    HW263107   0.257   4.396  12.740  0.0949  4.6358 -0.8529
17128SOL     OW63108   2.294   5.392  11.987 -0.1577 -0.0555 -0.2511
17128SOL    HW163109   2.267   5.300  11.993  0.3117 -0.0704  3.7892
17128SOL    HW263110   2.372   5.390  11.932  0.3695 -2.2363  0.4727
17129SOL     OW63111   0.431   7.784   1.990 -0.0689  0.4318  0.0258
17129SOL    HW163112   0.424   7.870   1.948 -3.2852 -0.4943 -1.6695
17129SOL    HW263113   0.470   7.727   1.923  0.4684  0.1889  0.5339
17130SOL     OW63114   9.968   9.664   1.102  0.1870 -0.2014 -0.0413
17130SOL    HW163115   9.997   9.586   1.055 -0.8234  0.2921 -1.5516
17130SOL    HW263116   9.877   9.676   1.076  0.2304  1.3182  0.3967
17131SOL     OW63117   0.220   9.878  10.735 -0.4201 -0.3597  0.7473
17131SOL    HW163118   0.234   9.789  10.705 -2.9705 -0.5583 -0.0404
17131SOL    HW263119   0.230   9.932  10.657 -1.1960 -0.2227  0.7385
17132SOL     OW63120   1.384  11.913   5.517 -0.2462  0.3237 -0.1026
17132SOL    HW163121   1.324  11.861   5.465 -0.0233  0.0701 -0.1135
17132SOL    HW263122   1.388  11.998   5.473  2.2159 -0.7734 -2.2708
17133SOL     OW63123   3.139  10.545   9.194  1.1209  0.0814  0.4634
17133SOL    HW163124   3.095  10.619   9.153  1.1489  0.3865  0.9740
17133SOL    HW263125   3.203  10.516   9.129  1.4627  0.8301  0.4559
17134SOL     OW63126  12.874   5.299   7.612  0.1138  0.3754 -0.4685
17134SOL    HW163127  12.900   5.359   7.682  1.2255  0.2554 -0.7533
17134SOL    HW263128  12.792   5.260   7.642  0.8212 -0.0521  0.9958
17135SOL     OW63129   4.336   3.054   7.051 -0.1940  0.6755  0.3912
17135SOL    HW163130   4.329   3.148   7.037 -0.7314  0.2888 -2.7117
17135SOL    HW263131   4.255   3.018   7.016  0.5710 -1.0312  0.2607
17136SOL     OW63132  10.620   6.963   1.060 -0.5223  0.2407  0.0075
17136SOL    HW163133  10.644   7.048   1.096 -1.6129  1.0829 -1.1693
17136SOL    HW263134  10.588   6.913   1.135 -0.9868  1.2942  0.5309
17137SOL     OW63135   3.503   1.811   8.575 -0.2613  0.0921 -0.0319
17137SOL    HW163136   3.512   1.874   8.646  1.1318 -0.4866  0.3492
17137SOL    HW263137   3.470   1.731   8.617  2.2223 -0.8234  0.3862
17138SOL     OW63138   2.570   4.212  12.220 -0.1696  0.1348 -0.1552
17138SOL    HW163139   2.503   4.215  12.151 -1.5952 -0.1831  1.1553
17138SOL    HW263140   2.621   4.134  12.201 -1.0438 -0.3851 -0.4167
17139SOL     OW63141  13.368  13.051  12.167  0.2236 -0.1591 -0.9843
17139SOL    HW163142  13.283  13.079  12.199 -0.1137 -0.3755 -1.6677
17139SOL    HW263143  13.429  13.118  12.197 -0.0079 -0.5381  0.4025
17140SOL     OW63144  10.591   6.254  12.634 -0.7500  0.4207 -0.4571
17140SOL    HW163145  10.674   6.225  12.597 -0.7926  0.4457 -0.5745
17140SOL    HW263146  10.543   6.173  12.651 -1.3631  0.4303 -1.9330
17141SOL     OW63147   7.393  10.539   0.723  0.0196 -0.0246 -0.2162
17141SOL    HW163148   7.435  10.477   0.663 -0.1940 -1.7346  1.3320
17141SOL    HW263149   7.303  10.508   0.731  0.4406 -0.7946  2.1641
17142SOL     OW63150   5.520  10.817  13.745 -0.1677 -0.5872  0.1894
17142SOL    HW163151   5.583  10.750  13.720  0.5060  0.3805 -0.8149
17142SOL    HW263152   5.477  10.782  13.823  1.9565 -1.0676  1.2106
17143SOL     OW63153   8.512   9.292   5.809 -0.8086 -0.9775  0.1953
17143SOL    HW163154   8.442   9.236   5.777 -0.6821 -2.3974  2.2348
17143SOL    HW263155   8.572   9.233   5.854  0.5954  0.4857  0.3421
17144SOL     OW63156  10.742   3.564  11.896 -0.6024 -0.3425  0.1512
17144SOL    HW163157  10.718   3.611  11.976 -2.5930 -1.0978  0.0340
17144SOL    HW263158  10.757   3.474  11.924  2.1702  0.0400  0.1931
17145SOL     OW63159   0.742   4.128   6.517  0.2232 -0.1217 -0.1955
17145SOL    HW163160   0.811   4.103   6.455  1.1545  0.8981  0.3865
17145SOL    HW263161   0.717   4.216   6.490  1.0040  0.5391  1.1458
17146SOL     OW63162   7.248   4.424   1.119  0.3333  0.2467 -0.0578
17146SOL    HW163163   7.243   4.497   1.180  0.4826  0.7580 -0.6541
17146SOL    HW263164   7.162   4.382   1.125  0.6732 -0.3165  1.2395
17147SOL     OW63165   2.511   0.032  13.410 -0.2817 -0.6991  0.0633
17147SOL    HW163166   2.504   0.093  13.483  1.0913 -0.7886  0.2853
17147SOL    HW263167   2.432  -0.022  13.416 -0.6062 -0.1384  0.9455
17148SOL     OW63168   4.770   1.232   3.014 -0.3078  0.0973  0.2098
17148SOL    HW163169   4.778   1.154   3.070  0.3749  0.8004  1.1092
17148SOL    HW263170   4.762   1.197   2.925  0.2572 -0.9906  0.5753
17149SOL     OW63171  11.577  13.079   4.210  0.7029  0.2748 -0.2671
17149SOL    HW163172  11.591  13.157   4.263 -0.3140 -1.3763  2.6771
17149SOL    HW263173  11.482  13.065   4.212  0.7485 -0.4599 -1.6970
17150SOL     OW63174   2.560   5.291  11.550 -0.3658  0.5047 -0.3109
17150SOL    HW163175   2.605   5.306  11.633 -0.4290 -0.1497 -0.1504
17150SOL    HW263176   2.605   5.347  11.487  1.3590 -0.8802 -0.3783
17151SOL     OW63177  10.376   6.793   6.400 -0.3332  0.2313  0.3704
17151SOL    HW163178  10.457   6.788   6.349  0.7391  1.7245  1.8184
17151SOL    HW263179  10.401   6.765   6.488 -1.9149 -1.3505  0.3720
17152SOL     OW63180   8.987   3.363   7.498 -0.0167 -0.2895 -0.3948
17152SOL    HW163181   8.991   3.274   7.534 -1.2475  0.3950  1.5599
17152SOL    HW263182   9.035   3.417   7.560 -0.6771  0.6643 -0.6885
17153SOL     OW63183  12.543   4.202   6.055 -0.5574 -0.0835 -0.1877
17153SOL    HW163184  12.619   4.181   6.110  0.9917  1.0269 -1.7892
17153SOL    HW263185  12.545   4.297   6.046 -2.4858  0.0345  0.1387
17154SOL     OW63186   5.967   5.690   5.451  0.2912  0.1467  0.5683
17154SOL    HW163187   5.950   5.607   5.495 -0.8925  0.0013 -0.1182
17154SOL    HW263188   5.998   5.748   5.520 -1.4484 -0.0996  1.6051
17155SOL     OW63189  13.162   8.770   9.177  0.6193  0.3351  0.8541
17155SOL    HW163190  13.109   8.804   9.249  0.6056 -0.4368  1.2092
17155SOL    HW263191  13.179   8.679   9.200 -0.5298 -0.3282 -0.7672
17156SOL     OW63192  10.402   6.115   6.415 -0.2492 -0.3358 -0.1512
17156SOL    HW163193  10.342   6.167   6.361  0.8023  1.0283 -0.0766
17156SOL    HW263194  10.480   6.105   6.361 -0.4828 -2.0319 -0.2208
17157SOL     OW63195  10.078   2.118  10.747 -0.5757 -0.2436 -0.5976
17157SOL    HW163196  10.173   2.122  10.758 -0.9162  2.6629  2.7215
17157SOL    HW263197  10.062   2.157  10.661  1.1615  0.8018 -0.4821
17158SOL     OW63198   6.188   9.311   2.474  0.0748  0.1090  0.4489
17158SOL    HW163199   6.101   9.272   2.466  0.5887 -0.8441 -1.1324
17158SOL    HW263200   6.173   9.401   2.502 -1.3673 -0.2307  0.8140
17159SOL     OW63201   1.507   8.165   3.267 -0.5602 -0.2547 -0.1217
17159SOL    HW163202   1.502   8.070   3.258  1.5495 -0.4553  0.1828
17159SOL    HW263203   1.562   8.193   3.194 -1.4157  0.7948 -0.3926
17160SOL     OW63204  13.394   1.524   9.765  0.7097  0.4112  0.1852
17160SOL    HW163205  13.328   1.592   9.779  0.5716  0.5133 -0.8979
17160SOL    HW263206  13.475   1.572   9.751  0.2901  0.4933 -2.4598
17161SOL     OW63207   5.288   9.745  12.964 -0.4692  0.1985 -0.1081
17161SOL    HW163208   5.218   9.788  12.916  0.2505  0.7723 -0.6844
17161SOL    HW263209   5.305   9.664  12.916 -1.2519 -0.3359  0.4872
17162SOL     OW63210  12.564   5.097   1.454 -0.3348  0.0038  0.6191
17162SOL    HW163211  12.622   5.165   1.489  1.8714 -0.7890 -1.2417
17162SOL    HW263212  12.608   5.015   1.476  0.7365 -0.5552 -3.0004
17163SOL     OW63213   8.821   3.093  12.772 -0.0778 -0.2723 -0.2715
17163SOL    HW163214   8.727   3.072  12.763 -0.1191 -1.0509  1.4714
17163SOL    HW263215   8.866   3.016  12.737 -0.0072  0.8660 -2.8374
17164SOL     OW63216  11.459  11.101  10.337  0.1300  0.4589  0.1308
17164SOL    HW163217  11.510  11.171  10.298  0.5093  1.2359  1.9082
17164SOL    HW263218  11.523  11.033  10.357 -0.3710 -0.9034 -2.4769
17165SOL     OW63219  10.354   4.271  11.056 -0.5791 -0.3666  0.2286
17165SOL    HW163220  10.314   4.275  11.143 -0.8433 -0.6731  0.1224
17165SOL    HW263221  10.422   4.204  11.064  0.7794  0.9945  0.7516
17166SOL     OW63222   5.622   7.022  10.578  0.3145 -0.1879 -0.1934
17166SOL    HW163223   5.642   7.062  10.493 -0.3398  1.3747  0.3466
17166SOL    HW263224   5.588   7.094  10.631 -2.5486 -1.7724  0.3170
17167SOL     OW63225  11.612   1.178   0.164 -0.4938 -0.3620  0.9398
17167SOL    HW163226  11.549   1.114   0.131  0.9515 -1.3193 -0.0539
17167SOL    HW263227  11.656   1.212   0.086  0.5735 -0.0869  1.6333
17168SOL     OW63228  11.875   8.295   7.619 -0.8996 -0.2322 -0.1916
17168SOL    HW163229  11.824   8.350   7.679 -1.5966 -0.7975 -0.2625
17168SOL    HW263230  11.956   8.345   7.605 -1.6966  0.9779 -0.6048
17169SOL     OW63231  10.436   8.767   6.043 -0.2301  0.3306  0.1478
17169SOL    HW163232  10.444   8.836   6.108 -0.5170  0.9350 -0.4551
17169SOL    HW263233  10.524   8.757   6.008 -0.1544  0.2658  0.3517
17170SOL     OW63234   6.877   6.803   8.550 -0.2870  0.1102  0.1504
17170SOL    HW163235   6.799   6.758   8.583 -0.9629  1.9340  1.1679
17170SOL    HW263236   6.942   6.793   8.620  0.1498 -0.7333 -0.3619
17171SOL     OW63237   6.322   2.686   8.993  0.0724 -0.5286 -0.2179
17171SOL    HW163238   6.405   2.643   8.972 -0.4200 -0.8323 -1.6820
17171SOL    HW263239   6.304   2.662   9.084  1.3686 -0.7927 -0.0152
17172SOL     OW63240   9.146   8.018   4.869 -0.4745 -0.8166 -0.3423
17172SOL    HW163241   9.212   7.979   4.811 -0.2005  0.1812 -0.7192
17172SOL    HW263242   9.124   7.948   4.930 -1.5683 -2.2584 -2.2888
17173SOL     OW63243   8.111  12.144   9.876 -0.3621 -0.0918  0.9507
17173SOL    HW163244   8.050  12.207   9.838  1.1399  1.3562  0.7830
17173SOL    HW263245   8.108  12.069   9.817  0.9404  1.5718 -1.4230
17174SOL     OW63246  13.657   4.398  11.310  0.3280 -0.7164 -0.2378
17174SOL    HW163247  13.648   4.319  11.256  0.3604  0.0858 -1.4638
17174SOL    HW263248  13.746   4.391  11.346  0.2741 -1.3150 -0.1975
17175SOL     OW63249   2.450   3.074   8.556  0.3250 -0.5016  0.1838
17175SOL    HW163250   2.493   3.023   8.488  0.7795 -0.7310  0.6416
17175SOL    HW263251   2.516   3.084   8.625 -0.0188  0.0148  0.4467
17176SOL     OW63252  11.214  10.112  13.650  0.5474  0.6537  0.3425
17176SOL    HW163253  11.171  10.185  13.605 -0.8702  1.4788  2.8562
17176SOL    HW263254  11.175  10.034  13.611 -0.3237  1.3133 -0.1528
17177SOL     OW63255   4.599   8.953  10.937 -0.0594 -0.2386 -0.8624
17177SOL    HW163256   4.670   8.986  10.882  0.0842 -0.1340 -0.6129
17177SOL    HW263257   4.521   9.000  10.907 -0.2040 -1.0058 -1.7603
17178SOL     OW63258  10.153   2.732   1.912 -0.3439  0.2827 -0.0125
17178SOL    HW163259  10.070   2.688   1.934  0.0613 -1.3913 -1.5426
17178SOL    HW263260  10.153   2.811   1.965 -3.6313  1.1485 -1.0575
17179SOL     OW63261   0.082   2.558   8.534  0.4683 -0.1278  0.4047
17179SOL    HW163262   0.163   2.535   8.581  0.3419 -1.0109  0.2192
17179SOL    HW263263   0.093   2.650   8.510  0.8588  0.1287  1.5137
17180SOL     OW63264   8.546   9.110  12.433 -0.0422  0.7237 -0.2999
17180SOL    HW163265   8.531   9.168  12.359  1.4883  1.5493 -0.0025
17180SOL    HW263266   8.508   9.157  12.508  0.1120  0.7676 -0.2504
17181SOL     OW63267   9.653  11.695   2.827 -0.0800  0.1203 -0.1598
17181SOL    HW163268   9.712  11.693   2.902  0.0664  0.6519 -0.2540
17181SOL    HW263269   9.570  11.661   2.860 -0.2495  1.0881  0.4680
17182SOL     OW63270  12.756   0.365  11.993 -0.2666 -0.6064 -0.2959
17182SOL    HW163271  12.669   0.353  11.956 -0.2097  0.1026 -0.6843
17182SOL    HW263272  12.786   0.449  11.957 -0.0529 -0.0681  1.0761
17183SOL     OW63273  12.726  13.446  10.525  0.0755 -0.5748 -0.3968
17183SOL    HW163274  12.820  13.458  10.511  0.0824  0.3840  0.3513
17183SOL    HW263275  12.715  13.353  10.540  0.7087 -0.9098 -1.8448
17184SOL     OW63276   1.903  10.158   9.823 -0.3160  0.0927 -1.0437
17184SOL    HW163277   1.897  10.189   9.733  0.6230  1.7045 -0.5994
17184SOL    HW263278   1.994  10.133   9.834 -0.2765  0.5117 -0.3682
17185SOL     OW63279   4.346   0.438   8.466  0.6213 -0.0552  0.1232
17185SOL    HW163280   4.322   0.384   8.391 -1.5326  3.0124 -1.6342
17185SOL    HW263281   4.277   0.422   8.530  0.1924  0.3140 -0.2415
17186SOL     OW63282   6.757   6.191   9.294 -0.4426  0.1609  0.5247
17186SOL    HW163283   6.805   6.109   9.285 -0.3988  0.2069  0.3332
17186SOL    HW263284   6.695   6.191   9.221 -1.6834 -0.5326  1.5416
17187SOL     OW63285  13.387   8.606   5.000  0.2146  0.4866 -0.1146
17187SOL    HW163286  13.444   8.553   5.055  0.8978  0.6373 -0.6697
17187SOL    HW263287  13.313   8.627   5.056  0.2638 -0.4690  0.3311
17188SOL     OW63288  12.672   7.845   5.036  0.6328 -0.2387 -0.5940
17188SOL    HW163289  12.585   7.808   5.053  0.1027 -0.3123 -3.1588
17188SOL    HW263290  12.673   7.926   5.087 -0.1723 -1.1763  0.9909
17189SOL     OW63291   2.572   0.546   5.449  0.1585 -0.8083 -0.6330
17189SOL    HW163292   2.521   0.627   5.444 -0.1435 -0.8790  0.7800
17189SOL    HW263293   2.632   0.551   5.375 -1.2699 -0.2959 -1.7957
17190SOL     OW63294   9.142   9.782   7.165 -0.4902 -0.3456 -0.1013
17190SOL    HW163295   9.224   9.828   7.183 -0.8378  0.0371  0.5363
17190SOL    HW263296   9.143   9.768   7.071 -1.1906  2.5968 -0.6633
17191SOL     OW63297  10.511  13.615   3.133  0.6546  0.1469  0.0117
17191SOL    HW163298  10.513  13.558   3.056 -0.3221  2.7182 -2.0599
17191SOL    HW263299  10.602  13.644   3.143  1.2580 -2.0016  1.3740
17192SOL     OW63300   8.252   5.825   8.415 -0.6510 -0.7104  0.1257
17192SOL    HW163301   8.305   5.866   8.347 -1.7319 -0.6086 -0.6849
17192SOL    HW263302   8.315   5.795   8.480  0.4383 -0.9890 -1.0206
17193SOL     OW63303  12.896   7.169   2.458 -0.3304  0.3185 -0.3557
17193SOL    HW163304  12.802   7.158   2.443 -0.1710 -2.5625  0.2581
17193SOL    HW263305  12.937   7.124   2.384  0.5781  0.6467 -0.0652
17194SOL     OW63306   4.619   7.303  13.274 -0.4088  0.1271 -0.8042
17194SOL    HW163307   4.607   7.220  13.227  1.1487  0.0352 -1.1036
17194SOL    HW263308   4.701   7.291  13.321  0.6092  2.0187 -1.9942
17195SOL     OW63309   0.740  12.655  12.720  0.1784  0.5455  0.0017
17195SOL    HW163310   0.744  12.562  12.743 -1.2225  0.7448  1.2397
17195SOL    HW263311   0.648  12.679  12.732  0.2884  1.8481 -1.3821
17196SOL     OW63312  12.939  10.847   3.181  0.0909 -0.1219 -0.4791
17196SOL    HW163313  12.930  10.773   3.242  0.6984  0.5617  0.4636
17196SOL    HW263314  12.901  10.921   3.227  0.6522  0.4348 -0.8986
17197SOL     OW63315   4.515  11.357  10.423 -0.3344 -1.2573  0.3184
17197SOL    HW163316   4.609  11.372  10.434 -0.1075 -0.2599 -2.1715
17197SOL    HW263317   4.478  11.367  10.510  1.5375  1.2209  0.9359
17198SOL     OW63318   8.808   5.496  10.957  0.5430  0.5620 -0.1573
17198SOL    HW163319   8.856   5.465  11.033 -1.4084 -0.0427  0.8858
17198SOL    HW263320   8.828   5.590  10.953  1.8434  0.3153  0.1766
17199SOL     OW63321   8.435   7.155   1.086  0.1116  0.2629  0.1232
17199SOL    HW163322   8.396   7.229   1.040 -2.9684 -1.1193  0.2697
17199SOL    HW263323   8.523   7.185   1.109 -0.1613  2.9713 -1.8480
17200SOL     OW63324   8.998   5.059   0.090 -0.2757 -0.1543  0.1415
17200SOL    HW163325   8.983   5.047  -0.004  4.1835  0.8110 -0.9738
17200SOL    HW263326   8.966   5.148   0.108  2.2093  1.2313 -1.5968
17201SOL     OW63327   4.375  13.079   0.765  0.8766  0.0120 -0.1908
17201SOL    HW163328   4.394  13.011   0.830  0.8176  0.2218  0.0461
17201SOL    HW263329   4.387  13.161   0.812  0.6273  0.1614 -0.3857
17202SOL     OW63330  12.305   5.117   8.549 -0.1419 -0.1724 -0.4546
17202SOL    HW163331  12.384   5.078   8.511  0.6574  2.1167 -1.3080
17202SOL    HW263332  12.237   5.105   8.483 -0.4758 -1.8316  0.1346
17203SOL     OW63333  11.388  13.227   8.039 -0.1965  0.4335  0.2630
17203SOL    HW163334  11.365  13.140   8.069  1.7671  0.5770  2.4275
17203SOL    HW263335  11.317  13.283   8.072  0.1666  0.0819  1.7020
17204SOL     OW63336  11.552  12.791  13.527  0.4560  0.0633 -0.0039
17204SOL    HW163337  11.621  12.741  13.572  0.5070 -1.3388 -1.5212
17204SOL    HW263338  11.588  12.879  13.519  2.4346 -0.7795 -1.3615
17205SOL     OW63339   6.754   0.437   4.235  0.8653  0.6027  0.3832
17205SOL    HW163340   6.671   0.482   4.254  0.3424 -0.0170 -0.3427
17205SOL    HW263341   6.741   0.349   4.269  1.2594  0.5206  0.3233
17206SOL     OW63342  13.579   2.067   3.890 -0.4810  0.3325  0.0875
17206SOL    HW163343  13.578   2.161   3.909  0.5102  0.2349  0.7106
17206SOL    HW263344  13.600   2.061   3.797 -0.0785  0.7193  0.1505
17207SOL     OW63345   5.075   2.234   7.132  0.6911  0.1173  0.0718
17207SOL    HW163346   5.010   2.186   7.183  2.1759 -1.7986  0.3065
17207SOL    HW263347   5.128   2.278   7.198  0.4246  0.6039 -0.0383
17208SOL     OW63348   4.491  11.963   5.867  0.4155 -0.1831 -0.3547
17208SOL    HW163349   4.495  12.057   5.885  1.4482  0.1708 -2.1277
17208SOL    HW263350   4.582  11.934   5.874  0.0335 -1.1954  0.7174
17209SOL     OW63351  10.966   7.700   3.534 -0.1721  0.4857 -0.3284
17209SOL    HW163352  10.898   7.763   3.558 -0.5719  0.4078 -1.1901
17209SOL    HW263353  10.918   7.633   3.485 -0.2360 -1.8134  2.5762
17210SOL     OW63354  11.827   5.921   4.893  0.7889 -0.3546 -0.4491
17210SOL    HW163355  11.883   5.920   4.970 -1.4311 -3.9527  1.3492
17210SOL    HW263356  11.882   5.889   4.822  2.2034  0.7428  0.0970
17211SOL     OW63357   2.692   2.092   6.217  0.0667 -0.1910  0.2833
17211SOL    HW163358   2.621   2.154   6.198  0.3661  0.2571  0.5997
17211SOL    HW263359   2.746   2.091   6.137 -0.5994 -0.9716 -0.1788
17212SOL     OW63360   3.573   2.566   7.244 -0.2529 -0.8519  0.4646
17212SOL    HW163361   3.593   2.473   7.253 -2.8004 -1.7311 -1.5490
17212SOL    HW263362   3.487   2.576   7.283  0.0927  0.7468  0.8867
17213SOL     OW63363   0.627  13.743  12.936 -0.4246  0.0580  0.3332
17213SOL    HW163364   0.637  13.836  12.920 -0.8163  0.1205  0.4441
17213SOL    HW263365   0.707  13.704  12.900 -0.8891  0.2829 -1.0214
17214SOL     OW63366   6.897   0.503  11.286 -0.2442 -0.0101  0.2032
17214SOL    HW163367   6.903   0.599  11.284 -0.6264  0.0134 -0.9366
17214SOL    HW263368   6.805   0.486  11.307 -0.2410 -0.1211  0.1268
17215SOL     OW63369   7.442  10.574   3.941 -0.5209 -0.2296 -0.3317
17215SOL    HW163370   7.502  10.531   4.002  0.1236 -0.8807 -1.4000
17215SOL    HW263371   7.494  10.646   3.904 -1.0184  0.3715  0.1293
17216SOL     OW63372  12.866  13.123   3.778 -0.5680  0.3410  1.0432
17216SOL    HW163373  12.793  13.124   3.716 -0.4590  0.4841  0.9147
17216SOL    HW263374  12.942  13.101   3.724 -0.5227  0.1393  1.1860
17217SOL     OW63375   9.462   2.220   4.855  0.3848  0.3472  0.0842
17217SOL    HW163376   9.409   2.292   4.823  0.6055  0.8748  0.8710
17217SOL    HW263377   9.470   2.160   4.781 -0.1845  0.9081 -0.4340
17218SOL     OW63378   3.291   7.002   8.726  0.1803 -0.2552  0.3235
17218SOL    HW163379   3.258   7.031   8.811 -2.4181  0.6663 -0.8910
17218SOL    HW263380   3.269   6.909   8.722 -1.0013  0.0200  0.1207
17219SOL     OW63381   5.829  11.226   3.764  0.3312  0.0513  0.3981
17219SOL    HW163382   5.902  11.235   3.702  1.5518 -3.4281  1.1120
17219SOL    HW263383   5.752  11.221   3.708  0.8212  1.5684 -0.4965
17220SOL     OW63384   5.633   1.877  13.408  0.2915 -0.1995 -0.0692
17220SOL    HW163385   5.669   1.823  13.338 -1.0344  1.7827 -2.4528
17220SOL    HW263386   5.552   1.833  13.433 -0.6264  0.4426 -1.7772
17221SOL     OW63387   2.665  12.701   3.768 -0.3848 -0.3028 -0.1739
17221SOL    HW163388   2.688  12.712   3.860  0.6663 -0.5940 -0.3892
17221SOL    HW263389   2.614  12.779   3.747  2.2419  1.5618 -0.2114
17222SOL     OW63390   2.305  11.036  10.778  0.2330  0.1647  0.2623
17222SOL    HW163391   2.218  11.070  10.756 -0.1073  0.1582  1.5252
17222SOL    HW263392   2.291  10.943  10.796  0.4190  0.2367  0.8198
17223SOL     OW63393   9.127  12.786   9.451  0.0896 -0.4035 -0.4347
17223SOL    HW163394   9.051  12.734   9.475  0.1322 -0.0496  0.5256
17223SOL    HW263395   9.126  12.860   9.512 -1.0826  1.8375 -2.9761
17224SOL     OW63396  12.993   5.479   7.807  0.4810 -0.9520  0.1024
17224SOL    HW163397  13.075   5.514   7.774  0.6265 -0.5138  0.9117
17224SOL    HW263398  12.960   5.545   7.868 -0.6281 -0.9829 -0.4368
17225SOL     OW63399   8.971   2.225   0.460 -0.0086 -0.3016 -0.0726
17225SOL    HW163400   9.042   2.219   0.524  1.0183 -4.1362 -1.2869
17225SOL    HW263401   9.014   2.256   0.380 -0.2962 -0.1102 -0.1549
17226SOL     OW63402   7.929   9.210   1.264  0.2830  0.7461  0.1297
17226SOL    HW163403   7.899   9.131   1.309 -0.0619 -0.1440 -1.5863
17226SOL    HW263404   8.025   9.208   1.273  0.1987  0.8265  1.1614
17227SOL     OW63405   2.782  10.870   7.697  0.3174 -0.0347  0.2698
17227SOL    HW163406   2.800  10.780   7.671  1.3385 -1.0935  3.9399
17227SOL    HW263407   2.865  10.903   7.730 -0.5103  1.4596  1.0134
17228SOL     OW63408   4.378   1.357  10.924  0.4013 -0.1548  0.0289
17228SOL    HW163409   4.411   1.418  10.990  1.3368  0.4486 -0.9538
17228SOL    HW263410   4.362   1.276  10.972 -1.8732  1.1009  1.5891
17229SOL     OW63411   7.229   9.990  12.350 -0.2797 -0.8378 -0.0022
17229SOL    HW163412   7.148  10.037  12.369  0.2227 -0.3843  1.1463
17229SOL    HW263413   7.202   9.914  12.300 -1.2964 -0.1639 -0.5120
17230SOL     OW63414   2.307   9.865   2.685  0.1036  0.1420  0.0351
17230SOL    HW163415   2.400   9.850   2.702  0.3615  0.4747 -0.9730
17230SOL    HW263416   2.297   9.847   2.592 -0.8129  0.2791  0.0984
17231SOL     OW63417  10.725  12.148  12.971 -0.3911 -0.1899  0.1744
17231SOL    HW163418  10.728  12.128  13.065  0.3682  0.5470  0.3177
17231SOL    HW263419  10.682  12.233  12.966  1.1953  0.6408  0.0237
17232SOL     OW63420  12.781  12.776   3.891 -0.0905 -0.2976 -0.0191
17232SOL    HW163421  12.832  12.825   3.955  0.1525  0.0189 -0.4519
17232SOL    HW263422  12.720  12.724   3.943  1.4005 -1.5325  0.5830
17233SOL     OW63423   0.014  12.532   8.127 -0.3628  0.6079  0.7022
17233SOL    HW163424  -0.055  12.564   8.186 -1.6421 -0.0908 -0.3633
17233SOL    HW263425  -0.027  12.460   8.079  1.1597  0.1072  0.1002
17234SOL     OW63426   5.968  11.419   3.359  1.0814 -0.2170  0.1856
17234SOL    HW163427   5.996  11.331   3.382  1.0210  0.1970  2.0202
17234SOL    HW263428   6.050  11.466   3.340  1.2620 -0.2750  0.7763
17235SOL     OW63429   5.553   2.040  10.794  0.2846 -0.2398 -0.3661
17235SOL    HW163430   5.471   2.084  10.774  0.5457 -0.4646 -2.0212
17235SOL    HW263431   5.557   1.967  10.732  1.6963 -0.2841 -0.2463
17236SOL     OW63432  13.376   1.620   5.017 -0.7354 -0.2512 -0.3977
17236SOL    HW163433  13.325   1.597   4.939  1.8369 -0.3715 -2.1772
17236SOL    HW263434  13.408   1.709   5.000  2.1579 -1.2688 -0.9226
17237SOL     OW63435   3.506  11.668  10.661 -0.9691  0.1381 -0.0462
17237SOL    HW163436   3.427  11.706  10.700 -0.8213  0.7756 -0.3566
17237SOL    HW263437   3.486  11.661  10.568  0.1567  2.4751 -0.5187
17238SOL     OW63438  10.938   7.667   4.805 -0.2690  0.0271 -0.1528
17238SOL    HW163439  10.966   7.624   4.886  0.0750 -0.4281 -0.5117
17238SOL    HW263440  11.000   7.636   4.739 -0.4449  0.5331 -0.5561
17239SOL     OW63441  11.637  11.670   6.570  0.0271  0.4188  0.3484
17239SOL    HW163442  11.622  11.690   6.662  0.4465 -1.7753  0.9402
17239SOL    HW263443  11.638  11.575   6.565  2.6522  0.4122 -1.4536
17240SOL     OW63444   6.260  11.906   6.299 -0.0280  0.0343  0.3833
17240SOL    HW163445   6.179  11.856   6.293 -0.8149  1.0479  1.8845
17240SOL    HW263446   6.279  11.932   6.208 -1.3678 -0.2591 -0.0022
17241SOL     OW63447   9.755  10.664   5.516 -0.0134  0.1255  0.0393
17241SOL    HW163448   9.805  10.729   5.564  0.1909 -0.4741  0.6582
17241SOL    HW263449   9.765  10.688   5.424  1.7810 -0.2312  0.1172
17242SOL     OW63450   4.415   3.008  11.269 -0.2722 -0.5491  0.2948
17242SOL    HW163451   4.431   3.081  11.209 -2.5393  1.2393  1.6794
17242SOL    HW263452   4.502   2.981  11.298  0.6969  0.9523 -1.0226
17243SOL     OW63453   7.831  12.159   5.822  0.8533 -0.0089  0.0089
17243SOL    HW163454   7.848  12.073   5.783 -0.1669  0.0077 -0.4975
17243SOL    HW263455   7.774  12.203   5.760  0.4655  0.6157  0.7879
17244SOL     OW63456   7.603  11.572   2.553 -0.6280 -0.3505 -0.1618
17244SOL    HW163457   7.692  11.562   2.520 -0.9061 -0.5676 -0.8525
17244SOL    HW263458   7.615  11.603   2.643  0.1460 -0.5436 -0.1880
17245SOL     OW63459  10.816  13.359  10.273 -0.7511  0.0559 -0.3840
17245SOL    HW163460  10.870  13.414  10.216 -0.1433 -0.0777  0.0566
17245SOL    HW263461  10.863  13.357  10.356  0.2673 -2.7260 -0.9402
17246SOL     OW63462   8.201   2.336   3.650 -0.5964 -0.5245  0.2756
17246SOL    HW163463   8.213   2.291   3.734  0.6845  1.5136  1.2950
17246SOL    HW263464   8.185   2.427   3.675  1.6435  0.4957 -1.6932
17247SOL     OW63465   0.951   8.533   7.108  0.3511 -0.0090  0.0084
17247SOL    HW163466   1.047   8.528   7.102  0.4687  1.9341 -0.2627
17247SOL    HW263467   0.926   8.592   7.037 -1.1113 -0.8026 -0.1794
17248SOL     OW63468   2.166   8.556   6.102 -0.0410  0.0918  0.2245
17248SOL    HW163469   2.164   8.628   6.038  0.3504  0.2846  0.4239
17248SOL    HW263470   2.202   8.596   6.181  0.3790 -0.3811  0.2735
17249SOL     OW63471   5.251   8.287   8.131  0.2369  0.5159  0.1320
17249SOL    HW163472   5.200   8.332   8.064  1.4594  0.5193 -0.8193
17249SOL    HW263473   5.306   8.355   8.170 -0.5128  0.5326  1.2224
17250SOL     OW63474   8.553  11.219   3.044  0.4128  0.3345  0.3348
17250SOL    HW163475   8.530  11.297   2.993  1.1614  0.1303 -0.3198
17250SOL    HW263476   8.586  11.254   3.127 -1.8505  0.6531  1.1826
17251SOL     OW63477  11.409   2.474   4.560  0.0322 -0.0524  0.0058
17251SOL    HW163478  11.379   2.440   4.476 -2.2224  0.8258  0.3961
17251SOL    HW263479  11.502   2.450   4.563 -0.3826 -2.2364 -1.6401
17252SOL     OW63480   5.218   1.969   3.467 -0.5246 -0.4442  0.2801
17252SOL    HW163481   5.304   1.937   3.440 -1.0048 -1.5249 -0.0637
17252SOL    HW263482   5.235   2.032   3.537  0.6796  1.1841 -1.3774
17253SOL     OW63483   4.294   2.192   9.064  0.6415 -0.2549 -0.2631
17253SOL    HW163484   4.389   2.194   9.079  0.9322  1.3621 -1.9000
17253SOL    HW263485   4.269   2.284   9.058 -0.8001 -0.6757 -1.1650
17254SOL     OW63486   8.251  11.840   2.412 -0.0165 -0.7478 -0.0271
17254SOL    HW163487   8.231  11.747   2.405  1.4392 -1.0564 -0.4978
17254SOL    HW263488   8.246  11.859   2.506  0.4808 -1.4942  0.1531
17255SOL     OW63489  12.345   0.420   0.904 -0.2099  0.0965  0.0854
17255SOL    HW163490  12.264   0.422   0.853 -0.8646 -1.8653  0.9391
17255SOL    HW263491  12.385   0.335   0.883  0.5530  0.1392  1.2443
17256SOL     OW63492   9.776   0.493   6.674 -0.6118 -0.4005  0.3619
17256SOL    HW163493   9.730   0.452   6.600 -0.1389 -0.3330  0.0264
17256SOL    HW263494   9.841   0.429   6.700  0.9383  0.5662 -0.9300
17257SOL     OW63495   6.021  10.890   4.880 -0.0969  0.6427  0.2802
17257SOL    HW163496   6.019  10.929   4.792  1.2478  0.9158  0.3512
17257SOL    HW263497   6.109  10.855   4.889 -1.2375 -2.5871  0.1952
17258SOL     OW63498  11.745  12.030   6.029  0.3982 -0.0707  0.4811
17258SOL    HW163499  11.692  11.980   5.967  0.1680  1.1272 -0.3375
17258SOL    HW263500  11.681  12.072   6.086  0.5919 -0.7404  1.2088
17259SOL     OW63501   1.147   0.121  11.647 -0.2588 -0.2228 -0.0843
17259SOL    HW163502   1.140   0.087  11.558  0.9072  2.8289 -1.4797
17259SOL    HW263503   1.238   0.147  11.657 -0.7250  1.0702  1.3449
17260SOL     OW63504   0.851  10.992  13.128  0.2601 -0.1007 -0.0998
17260SOL    HW163505   0.808  11.059  13.075  0.3972 -0.0688 -0.1718
17260SOL    HW263506   0.807  10.997  13.213  1.2909  1.1517  0.3983
17261SOL     OW63507   4.744  11.651  10.108 -0.5798 -0.4203  0.0198
17261SOL    HW163508   4.665  11.680  10.063 -0.1962  0.7825  0.0828
17261SOL    HW263509   4.816  11.679  10.051 -0.1055  0.6790  1.1083
17262SOL     OW63510  12.017  13.634   6.275  0.0221 -0.1743  0.3699
17262SOL    HW163511  12.096  13.606   6.322  1.2617  0.7527 -1.0789
17262SOL    HW263512  11.993  13.558   6.222  0.6910 -0.0523 -0.1226
17263SOL     OW63513   8.977  10.111   8.180 -0.2305 -0.0489 -0.1880
17263SOL    HW163514   9.039  10.062   8.125  1.1432  2.3852 -0.9671
17263SOL    HW263515   8.979  10.067   8.264  3.2043  0.3243  0.0561
17264SOL     OW63516   4.107   4.827   8.801  0.0791  0.2916  0.1148
17264SOL    HW163517   4.163   4.794   8.872  1.0138  1.7766  0.1095
17264SOL    HW263518   4.135   4.918   8.788 -1.8255  0.8518 -0.4360
17265SOL     OW63519   6.216   0.383   2.279 -0.5118  0.2051 -0.0947
17265SOL    HW163520   6.227   0.390   2.374  1.8657  2.1417 -0.4118
17265SOL    HW263521   6.162   0.306   2.267 -0.1725 -0.6076  2.8019
17266SOL     OW63522  10.634  10.125   5.666  0.2119 -0.0685 -0.0388
17266SOL    HW163523  10.725  10.135   5.696  0.0665 -0.2407  0.4705
17266SOL    HW263524  10.590  10.080   5.738 -0.0602 -0.8194 -0.6662
17267SOL     OW63525   2.310   3.501   0.179 -0.3071  0.4816  0.3533
17267SOL    HW163526   2.387   3.458   0.216 -0.7625  1.1251  2.1573
17267SOL    HW263527   2.236   3.467   0.229 -0.7306  2.9046  1.5679
17268SOL     OW63528  12.322   1.929  12.471 -0.4387 -0.4341  0.8113
17268SOL    HW163529  12.336   1.848  12.422  0.4375  1.7015 -2.7620
17268SOL    HW263530  12.230   1.951  12.456  0.3921  1.5180 -2.3516
17269SOL     OW63531  12.705   5.102  10.550 -0.4669  0.0836 -0.1147
17269SOL    HW163532  12.611   5.116  10.544 -0.8144 -1.7904  0.2916
17269SOL    HW263533  12.716   5.008  10.538  1.5893  0.5260 -2.5182
17270SOL     OW63534  10.871   1.695  11.368  0.2552 -0.5210 -0.0107
17270SOL    HW163535  10.828   1.679  11.452  1.2580 -0.8777  0.4517
17270SOL    HW263536  10.801   1.689  11.304 -0.2700 -1.8133  0.6485
17271SOL     OW63537   5.787   3.967  10.318  0.2712  0.1049  0.0930
17271SOL    HW163538   5.842   3.892  10.340  0.8569  0.0466 -1.4055
17271SOL    HW263539   5.772   4.012  10.401  0.7185 -1.1282  0.8650
17272SOL     OW63540   3.458  11.024  12.179 -0.0020  0.1082  0.4840
17272SOL    HW163541   3.429  11.079  12.252  1.5760  1.2165  0.3121
17272SOL    HW263542   3.506  11.083  12.121  0.7442 -1.2123 -0.2949
17273SOL     OW63543  11.301   2.090   0.640 -0.1113 -0.6576 -1.3602
17273SOL    HW163544  11.284   1.997   0.660  0.7922 -0.3339  1.4449
17273SOL    HW263545  11.390   2.090   0.604  0.7157 -0.7853  0.5275
17274SOL     OW63546   3.913  10.182  10.833 -0.3861  0.0735 -0.0775
17274SOL    HW163547   3.908  10.200  10.740  0.7134 -0.3815 -0.2317
17274SOL    HW263548   3.826  10.205  10.867 -1.2002 -0.9278 -1.4093
17275SOL     OW63549   5.781   1.905   4.478  0.1665  0.0096 -0.1643
17275SOL    HW163550   5.765   1.880   4.387 -0.0362 -0.9378  0.1167
17275SOL    HW263551   5.848   1.973   4.474  1.6419 -1.4360 -0.9108
17276SOL     OW63552   6.414   8.787  13.137 -0.6978 -0.1120  0.4733
17276SOL    HW163553   6.437   8.830  13.054 -0.8094 -0.6331  0.1654
17276SOL    HW263554   6.388   8.699  13.111  1.3594 -1.0008  1.2962
17277SOL     OW63555  10.280   0.880  13.079  0.6232 -0.3900  0.0855
17277SOL    HW163556  10.224   0.958  13.070  2.4531  1.0114  0.3032
17277SOL    HW263557  10.242   0.832  13.153  1.8220  2.5193  2.8617
17278SOL     OW63558   3.462   8.731  11.869  0.2263  0.1915 -0.1627
17278SOL    HW163559   3.473   8.713  11.776  0.2129 -2.4210  0.2740
17278SOL    HW263560   3.467   8.645  11.911 -2.6414  0.9095  1.9802
17279SOL     OW63561  12.745   7.536   3.487 -0.3077  0.4180  0.3802
17279SOL    HW163562  12.719   7.506   3.400  1.3652  0.1594 -0.0708
17279SOL    HW263563  12.674   7.508   3.544 -0.5715 -1.0923 -0.6235
17280SOL     OW63564   1.570   3.678   1.307 -0.5289 -0.6069 -0.3041
17280SOL    HW163565   1.509   3.657   1.236  1.1441 -0.8859 -1.7177
17280SOL    HW263566   1.560   3.772   1.321 -1.7333 -0.7545 -0.0334
17281SOL     OW63567  11.539   0.703   3.486 -0.1630  0.8554  0.1058
17281SOL    HW163568  11.496   0.703   3.571 -2.0125 -2.0505 -0.6928
17281SOL    HW263569  11.506   0.782   3.442 -0.3864  1.5508  1.4747
17282SOL     OW63570   0.553   2.161   1.604  0.2404  0.2295 -0.5027
17282SOL    HW163571   0.571   2.091   1.666  2.3858  1.0519 -0.0750
17282SOL    HW263572   0.470   2.138   1.564  0.7184 -2.4000 -0.1722
17283SOL     OW63573  13.290   9.911   7.739 -0.0045  1.0049  0.3240
17283SOL    HW163574  13.242   9.918   7.656 -1.5479 -1.9971  0.8116
17283SOL    HW263575  13.242   9.968   7.799  0.5040  2.3933 -0.5269
17284SOL     OW63576   5.933  12.682   6.568 -0.6695  0.1252 -0.5446
17284SOL    HW163577   5.963  12.769   6.593 -0.7489  0.1020 -0.3687
17284SOL    HW263578   6.002  12.648   6.511  0.3666 -0.5258  1.0434
17285SOL     OW63579  12.226   5.723  11.641  0.4985 -0.2468  0.2666
17285SOL    HW163580  12.222   5.810  11.602  0.0977 -1.0458 -1.6191
17285SOL    HW263581  12.138   5.708  11.675  0.2745 -0.2856 -0.3146
17286SOL     OW63582   0.507  11.442   6.682  0.6539 -0.1101  0.0923
17286SOL    HW163583   0.507  11.361   6.733 -0.9894  0.9701  1.9030
17286SOL    HW263584   0.502  11.512   6.747  1.3613  1.4631 -1.4547
17287SOL     OW63585  12.273  10.412  12.668  0.4732 -0.1288 -0.4158
17287SOL    HW163586  12.327  10.345  12.710 -0.8073 -2.0754 -1.7198
17287SOL    HW263587  12.318  10.494  12.688  3.2170 -1.5181 -0.3833
17288SOL     OW63588   3.169   1.179   7.642 -0.6639 -0.2401 -0.0199
17288SOL    HW163589   3.082   1.164   7.680 -0.3159 -2.4000  0.0682
17288SOL    HW263590   3.215   1.231   7.708 -0.8125 -1.9851  1.5541
17289SOL     OW63591  10.444  12.410   3.308  0.8474 -0.3079  0.0141
17289SOL    HW163592  10.500  12.421   3.385  1.8749 -0.5111 -0.6792
17289SOL    HW263593  10.364  12.369   3.342  0.8624  0.5026  1.1148
17290SOL     OW63594   0.345  13.684   7.108  0.4310  0.3238  0.0916
17290SOL    HW163595   0.325  13.763   7.057 -0.2998  0.6487  0.8644
17290SOL    HW263596   0.361  13.716   7.197 -1.7363 -0.5488  0.8623
17291SOL     OW63597   2.408   2.678   9.915 -0.5341  0.7905 -0.8821
17291SOL    HW163598   2.421   2.765   9.877 -0.8105  1.5292  0.6405
17291SOL    HW263599   2.315   2.661   9.906 -0.4974  0.7011 -1.0892
17292SOL     OW63600  12.030  11.354   8.068  0.1489  0.0597  0.1988
17292SOL    HW163601  12.085  11.284   8.103  0.4692  0.1807 -0.0544
17292SOL    HW263602  12.057  11.432   8.118  0.7131  0.2647 -0.4073
17293SOL     OW63603  13.432   3.815  12.276  0.0855  0.2746  0.4565
17293SOL    HW163604  13.497   3.860  12.223 -0.3480 -0.9635 -1.2149
17293SOL    HW263605  13.482   3.756  12.332  0.4840  0.4224  0.2554
17294SOL     OW63606   2.657   0.788  12.800 -0.1701 -0.0241  0.4476
17294SOL    HW163607   2.614   0.841  12.732 -3.4755 -1.0041  1.5773
17294SOL    HW263608   2.630   0.698  12.781  1.2822 -0.7001  1.4207
17295SOL     OW63609  13.261   1.646   6.310 -0.2556  0.3040  0.1843
17295SOL    HW163610  13.276   1.678   6.398  0.5780 -1.2205  0.6433
17295SOL    HW263611  13.329   1.579   6.297 -2.9740 -2.7303  0.1116
17296SOL     OW63612   3.386   0.243   3.776  0.4798 -0.1725 -0.5983
17296SOL    HW163613   3.424   0.294   3.847  1.1485 -0.6191 -0.6272
17296SOL    HW263614   3.367   0.307   3.707 -1.1196  0.4295  0.3350
17297SOL     OW63615  10.250  10.330   2.393  0.2082  0.2714  0.2159
17297SOL    HW163616  10.225  10.251   2.346 -1.6538  0.6354  0.5359
17297SOL    HW263617  10.330  10.306   2.440  0.5605 -0.9129 -0.9413
17298SOL     OW63618   6.503  11.794   7.912  0.0505  0.0887  0.2023
17298SOL    HW163619   6.433  11.732   7.933 -0.2174  0.7941  1.4283
17298SOL    HW263620   6.457  11.872   7.880  0.3832 -0.2500 -1.1932
17299SOL     OW63621  13.682   9.823   8.476  1.2438 -0.1024  0.9493
17299SOL    HW163622  13.587   9.824   8.466  1.1591 -0.9216  1.5891
17299SOL    HW263623  13.708   9.914   8.460  0.5336 -0.1535 -0.6742
17300SOL     OW63624   0.278   5.467   4.541  0.2836 -0.3242  0.4480
17300SOL    HW163625   0.229   5.420   4.474  1.3850 -1.1718  0.2231
17300SOL    HW263626   0.242   5.435   4.624  1.6601 -2.3753  0.3379
17301SOL     OW63627   8.163   0.611   6.443 -0.0998 -0.4490  0.3763
17301SOL    HW163628   8.234   0.669   6.470  0.5129 -0.2186 -1.5775
17301SOL    HW263629   8.085   0.648   6.483  0.6160  0.3784  1.0404
17302SOL     OW63630   9.814   0.351   2.000  0.0675  0.0878  0.4005
17302SOL    HW163631   9.803   0.328   1.908 -1.3265  0.0122  0.5645
17302SOL    HW263632   9.832   0.268   2.044  0.4175  0.0823  0.2530
17303SOL     OW63633  12.228  11.587   0.376  0.3056 -0.1127  0.1727
17303SOL    HW163634  12.253  11.678   0.358 -1.6226  0.6536  1.0536
17303SOL    HW263635  12.206  11.587   0.470  0.2415 -1.4847  0.1713
17304SOL     OW63636  12.983   7.480   7.296 -0.1604 -0.3902  0.1095
17304SOL    HW163637  13.002   7.426   7.372 -0.4654  0.0450  0.5018
17304SOL    HW263638  12.893   7.510   7.310 -1.2002 -2.3935 -1.6844
17305SOL     OW63639   7.145  12.461  11.950  0.3368  0.3615 -0.1425
17305SOL    HW163640   7.064  12.412  11.934  0.0594  1.1342 -1.1764
17305SOL    HW263641   7.152  12.463  12.045 -0.9534  0.4105 -0.0222
17306SOL     OW63642   0.592  12.140   2.662  0.6095  0.7620  0.2603
17306SOL    HW163643   0.610  12.111   2.573  0.5403  3.0763 -0.5696
17306SOL    HW263644   0.516  12.089   2.689 -0.9018  1.7022 -1.9411
17307SOL     OW63645   7.313   1.192   4.594 -0.2312 -0.1583  0.1425
17307SOL    HW163646   7.407   1.176   4.585  0.6641  3.5479  1.2109
17307SOL    HW263647   7.293   1.260   4.530 -1.4704  1.2728  1.9351
17308SOL     OW63648  13.471   9.954  12.514 -0.6051 -0.3862  0.5230
17308SOL    HW163649  13.507  10.029  12.466 -1.7685  0.7213  1.2825
17308SOL    HW263650  13.425   9.903  12.448 -1.2677  0.5265  0.2520
17309SOL     OW63651   6.045   4.288   8.091 -0.2255 -0.3074 -0.1122
17309SOL    HW163652   6.091   4.207   8.113  1.3542  0.2297 -1.2686
17309SOL    HW263653   5.973   4.292   8.154 -0.1144 -2.3955  0.2441
17310SOL     OW63654   2.337   3.334   8.552  0.3613  0.8719 -0.4547
17310SOL    HW163655   2.410   3.371   8.602 -0.1206 -0.9787  1.8383
17310SOL    HW263656   2.367   3.246   8.529 -0.5081  0.7121 -0.9923
17311SOL     OW63657   7.037  11.276   3.827 -0.1052  0.0024 -0.7738
17311SOL    HW163658   7.113  11.224   3.801  0.0726 -0.0489 -0.1731
17311SOL    HW263659   7.046  11.286   3.922 -0.7722  0.1203 -0.7167
17312SOL     OW63660   6.957   0.421   8.006  0.1292  0.1655 -0.0215
17312SOL    HW163661   6.898   0.472   8.062 -0.9575 -0.4742 -0.5370
17312SOL    HW263662   6.982   0.346   8.060  1.1889  0.8713  0.5010
17313SOL     OW63663   5.957   2.850   7.055  0.5408  0.3772 -0.5806
17313SOL    HW163664   5.867   2.849   7.088  0.4587  0.9870 -0.7828
17313SOL    HW263665   5.972   2.760   7.024 -0.2989  0.4851 -1.3432
17314SOL     OW63666  12.435   8.857   6.552 -0.0485 -0.7425 -0.0134
17314SOL    HW163667  12.413   8.940   6.508  0.3985 -0.3416  0.5015
17314SOL    HW263668  12.411   8.872   6.643 -3.2187 -2.3926 -0.4717
17315SOL     OW63669   9.514   4.433   4.816  0.3188  0.1819 -0.3073
17315SOL    HW163670   9.571   4.376   4.764  0.0060 -0.7780  0.3723
17315SOL    HW263671   9.560   4.443   4.899 -0.4624 -0.5789  0.2390
17316SOL     OW63672  12.179   9.850   1.842  0.3346  0.2435  0.2326
17316SOL    HW163673  12.109   9.898   1.885  0.1639  0.4321 -0.2425
17316SOL    HW263674  12.182   9.766   1.887 -1.0383 -0.2489 -0.5197
17317SOL     OW63675   8.793   7.520   5.740  0.5760 -0.1848  0.0133
17317SOL    HW163676   8.747   7.512   5.823  0.0378  1.5294 -0.0720
17317SOL    HW263677   8.763   7.604   5.704  3.2192  0.6678 -0.3965
17318SOL     OW63678   9.094  11.468   6.494 -0.1111 -0.2594  0.1659
17318SOL    HW163679   9.116  11.517   6.574  1.5820 -0.4455 -0.1411
17318SOL    HW263680   9.057  11.386   6.526  0.3949 -0.2665  0.7756
17319SOL     OW63681   9.170  12.119   3.673 -0.2628 -0.0271  0.0219
17319SOL    HW163682   9.104  12.097   3.739  0.5725 -2.7308  0.0790
17319SOL    HW263683   9.167  12.046   3.611  2.5189 -0.1772 -0.0679
17320SOL     OW63684   2.488   2.296   6.229 -0.6810  0.1875 -0.2283
17320SOL    HW163685   2.532   2.372   6.266 -1.3777  1.2028 -1.3960
17320SOL    HW263686   2.488   2.312   6.134 -1.8022 -0.7338 -0.4086
17321SOL     OW63687   8.178   2.287   9.180  0.7184 -0.4402  0.0289
17321SOL    HW163688   8.097   2.275   9.229  0.5179  0.4090 -0.0778
17321SOL    HW263689   8.245   2.242   9.232 -0.0086 -2.2823 -0.5316
17322SOL     OW63690   2.288   7.563   3.373  0.1736 -0.0177 -0.5700
17322SOL    HW163691   2.264   7.498   3.438 -1.8471  1.0281 -0.1860
17322SOL    HW263692   2.322   7.637   3.424  1.8114 -0.4613 -0.9588
17323SOL     OW63693   8.017  13.478  13.537 -0.2476  0.0072  0.4181
17323SOL    HW163694   7.996  13.394  13.498 -0.1982 -0.1727  0.7716
17323SOL    HW263695   7.940  13.501  13.589 -0.7924  0.8012 -0.6830
17324SOL     OW63696  10.600   1.855   9.533 -0.5835 -0.1914 -0.0637
17324SOL    HW163697  10.678   1.890   9.491 -0.8995  1.2633  0.5188
17324SOL    HW263698  10.576   1.920   9.599 -1.7623 -1.0437  0.3856
17325SOL     OW63699   0.653  13.412  12.402  0.1079  0.1225 -0.2811
17325SOL    HW163700   0.559  13.403  12.389  0.0350 -0.4177  0.5344
17325SOL    HW263701   0.679  13.331  12.446  1.0691 -0.0232 -1.0740
17326SOL     OW63702   7.643   2.829   4.656 -0.0491 -0.6646 -0.4491
17326SOL    HW163703   7.683   2.759   4.605 -0.6073 -0.6852 -0.8719
17326SOL    HW263704   7.641   2.904   4.596 -0.2535 -0.5431 -0.2910
17327SOL     OW63705   0.177   7.930   0.992  0.4673  0.0718 -0.8240
17327SOL    HW163706   0.231   8.008   1.005  0.0411  0.2214  0.1337
17327SOL    HW263707   0.105   7.940   1.055  0.9421 -1.5842  0.0351
17328SOL     OW63708   6.755  11.116   3.695 -0.2012  0.2549 -0.7799
17328SOL    HW163709   6.703  11.150   3.767 -1.8475  0.0167 -1.8074
17328SOL    HW263710   6.826  11.180   3.684  1.2212 -0.6398  2.1929
17329SOL     OW63711   5.329   3.456   6.030 -0.0650 -0.1899 -0.0122
17329SOL    HW163712   5.320   3.516   6.104 -1.3541 -1.0957  0.5919
17329SOL    HW263713   5.420   3.426   6.036 -0.8937 -2.6938  3.2226
17330SOL     OW63714  11.618   7.024   7.575  0.2633 -0.3904  0.1016
17330SOL    HW163715  11.533   7.067   7.580  0.0128 -0.9072  0.4107
17330SOL    HW263716  11.598   6.934   7.550  0.5531 -0.9766  1.8462
17331SOL     OW63717  12.722  10.708  10.033 -0.6611  0.4013  0.1422
17331SOL    HW163718  12.770  10.628  10.052  0.1094  0.4426 -1.4146
17331SOL    HW263719  12.756  10.772  10.096 -1.2019 -0.4533  1.3128
17332SOL     OW63720   5.373   7.499   3.163  0.2197  0.0104 -0.5984
17332SOL    HW163721   5.330   7.524   3.081 -0.2586  1.5971  0.0993
17332SOL    HW263722   5.460   7.539   3.158 -0.2823  1.2353  0.2113
17333SOL     OW63723   0.266  10.610  11.726 -0.5488  0.5653  0.1926
17333SOL    HW163724   0.319  10.531  11.727  0.6825  1.2919 -1.5329
17333SOL    HW263725   0.310  10.670  11.786 -0.1690  0.6822 -0.1895
17334SOL     OW63726  11.329   3.165   5.261 -0.6495  0.3721 -0.1582
17334SOL    HW163727  11.262   3.097   5.261 -0.8762  0.5884  0.3460
17334SOL    HW263728  11.290   3.238   5.310  0.7097 -0.2940  2.0633
17335SOL     OW63729   6.418   0.545   0.157 -0.2242 -0.2906 -0.0100
17335SOL    HW163730   6.326   0.521   0.163 -0.6209  1.3383  0.7614
17335SOL    HW263731   6.459   0.508   0.235 -0.3097 -0.6364 -0.1298
17336SOL     OW63732   0.640   6.394   6.283  0.0818  0.2317  0.3774
17336SOL    HW163733   0.634   6.300   6.264  0.7759  0.4070 -0.8465
17336SOL    HW263734   0.684   6.398   6.368  0.9797 -0.5515 -0.0224
17337SOL     OW63735   0.098   7.371  12.210  0.3262  0.2900  0.5359
17337SOL    HW163736   0.179   7.348  12.165 -0.3087  3.0927 -2.3500
17337SOL    HW263737   0.125   7.437  12.274  0.4521  0.4967  0.2709
17338SOL     OW63738   9.724  10.211  10.134 -0.2443 -0.1990  0.5600
17338SOL    HW163739   9.792  10.256  10.184 -1.2845  1.3269  0.6802
17338SOL    HW263740   9.769  10.176  10.057  0.7073  0.6298  0.7172
17339SOL     OW63741   8.638   3.065  13.210 -0.3264 -0.1259 -0.0708
17339SOL    HW163742   8.649   3.160  13.202 -0.2174 -0.2445 -1.9775
17339SOL    HW263743   8.549   3.054  13.243 -0.4819  0.6394 -0.2104
17340SOL     OW63744   3.494   3.556   4.316  0.2352 -0.0292  0.3641
17340SOL    HW163745   3.411   3.589   4.349  0.4617  0.3122  0.6028
17340SOL    HW263746   3.472   3.511   4.235 -0.1575  0.2220  0.3290
17341SOL     OW63747  11.475   5.696   2.802 -0.1858  0.0019  0.2498
17341SOL    HW163748  11.550   5.721   2.747  0.2961  1.0284  1.3381
17341SOL    HW263749  11.509   5.629   2.861  0.3438  1.5546  1.7848
17342SOL     OW63750   7.570   5.304  10.280 -0.2262  0.6234  0.3235
17342SOL    HW163751   7.578   5.389  10.238 -0.7638  0.9638  0.8943
17342SOL    HW263752   7.526   5.322  10.363  2.2127  0.2059  1.8239
17343SOL     OW63753  13.441   1.999   2.758 -0.1376 -0.2750 -0.7990
17343SOL    HW163754  13.485   2.063   2.815  0.9062 -0.9047 -0.8635
17343SOL    HW263755  13.373   1.960   2.813  0.2782 -0.2462 -0.2505
17344SOL     OW63756  11.590   9.974  13.676  0.1430  0.3083  0.3018
17344SOL    HW163757  11.634  10.044  13.724  0.8120  1.1525 -1.4598
17344SOL    HW263758  11.601   9.896  13.731  2.1297  0.9139  0.8324
17345SOL     OW63759   6.949   4.499   0.510  0.0348  0.1627 -0.0008
17345SOL    HW163760   6.906   4.457   0.436 -0.0273 -1.6165  0.9849
17345SOL    HW263761   6.992   4.576   0.473 -1.4520  0.2958 -1.5397
17346SOL     OW63762   1.774   5.868   6.187  0.1689  0.2394  0.7545
17346SOL    HW163763   1.706   5.930   6.215  0.2429  0.0330  1.4026
17346SOL    HW263764   1.746   5.784   6.224  0.6946  0.1232  0.8859
17347SOL     OW63765  12.132   6.550   3.036  0.0243  0.4465 -0.2846
17347SOL    HW163766  12.098   6.567   3.123 -1.4794 -2.4449 -0.1678
17347SOL    HW263767  12.083   6.474   3.006  1.4108  0.5412 -3.1487
17348SOL     OW63768   6.061  10.910  12.127 -0.1419 -0.4394 -0.2368
17348SOL    HW163769   5.982  10.943  12.171  0.2711 -0.5565  0.6191
17348SOL    HW263770   6.035  10.901  12.035 -0.2961  2.1994 -0.5212
17349SOL     OW63771   8.435   5.339  11.488  0.3416 -0.0514  0.4106
17349SOL    HW163772   8.524   5.368  11.471  0.4672 -0.4893  0.2965
17349SOL    HW263773   8.435   5.315  11.581  0.1873  0.4889  0.5533
17350SOL     OW63774   3.104  11.373  13.383  0.1925 -0.3674 -0.2843
17350SOL    HW163775   3.146  11.317  13.317 -2.2635 -3.0666  0.2546
17350SOL    HW263776   3.139  11.341  13.467  1.7387  1.6701 -0.0808
17351SOL     OW63777  13.512   9.866  13.396 -0.4657 -0.5069  0.4726
17351SOL    HW163778  13.435   9.811  13.378 -0.2829 -0.2301 -1.3971
17351SOL    HW263779  13.487   9.952  13.363  0.4226 -0.2664  0.4264
17352SOL     OW63780   2.966   5.045   7.111 -0.0574  0.4711 -0.6814
17352SOL    HW163781   2.982   5.128   7.155 -0.5596  1.2485 -1.9219
17352SOL    HW263782   2.912   4.995   7.173  3.3595 -0.5616  1.7808
17353SOL     OW63783  11.440   6.070  11.945  0.3356  0.1335 -0.0530
17353SOL    HW163784  11.486   6.054  12.028 -0.9437 -0.0030  0.6604
17353SOL    HW263785  11.446   6.164  11.932  2.0948 -0.0428 -0.7665
17354SOL     OW63786  13.001   6.495   6.613 -0.0370 -0.1680  0.0109
17354SOL    HW163787  12.981   6.410   6.652 -0.0536 -0.2759 -0.2320
17354SOL    HW263788  13.056   6.539   6.678 -0.2175 -0.2736  0.2356
17355SOL     OW63789  11.870   7.690  10.710  0.4269 -0.0451  0.3023
17355SOL    HW163790  11.913   7.649  10.785 -0.0208 -0.2771  0.4354
17355SOL    HW263791  11.899   7.781  10.713 -1.2466  0.5157  2.0520
17356SOL     OW63792   9.637  11.617  11.428 -0.4163  0.5912 -0.4998
17356SOL    HW163793   9.625  11.624  11.522 -0.7284 -1.5047 -0.3433
17356SOL    HW263794   9.645  11.708  11.398  1.7626  1.2517  1.7688
17357SOL     OW63795   7.035   8.310   8.626  0.6360 -0.3958  0.2440
17357SOL    HW163796   7.005   8.237   8.680 -0.4501 -0.3874 -0.3239
17357SOL    HW263797   7.000   8.388   8.668  0.8305 -0.2884  0.2112
17358SOL     OW63798   8.252   8.577   3.968 -0.0328 -0.0439 -0.0838
17358SOL    HW163799   8.156   8.583   3.966 -0.0408 -0.2150 -1.1970
17358SOL    HW263800   8.276   8.562   3.876  0.9630 -1.5731  0.3901
17359SOL     OW63801   8.961  10.997   7.504 -0.6567  0.0812 -0.2234
17359SOL    HW163802   8.905  11.033   7.573  0.2401  0.3301  0.4043
17359SOL    HW263803   8.970  10.905   7.526 -0.3836  0.1575 -0.0127
17360SOL     OW63804  11.287   7.014   6.907  0.0468 -0.5067  0.5130
17360SOL    HW163805  11.258   7.049   6.991 -0.6346 -0.4126  0.2420
17360SOL    HW263806  11.208   7.010   6.854  0.7265  0.9940 -0.6798
17361SOL     OW63807   8.585  12.172  13.186  0.2777 -0.0036 -0.3859
17361SOL    HW163808   8.607  12.238  13.251  0.9900 -0.9024  0.3048
17361SOL    HW263809   8.577  12.222  13.104 -1.6754  1.3082  0.5125
17362SOL     OW63810   4.627   9.548  12.013 -0.4254 -0.2578  0.0824
17362SOL    HW163811   4.601   9.466  11.971  1.0482 -0.6002 -0.2105
17362SOL    HW263812   4.563   9.612  11.981 -1.6564 -1.2895  0.3936
17363SOL     OW63813  12.725   4.190   7.141  0.0257  0.2469 -0.3598
17363SOL    HW163814  12.645   4.212   7.188  0.2731  1.7037 -0.5884
17363SOL    HW263815  12.795   4.207   7.204  0.2091 -0.3309 -0.3999
17364SOL     OW63816  10.876   7.436  12.227 -0.0297 -0.3773  0.3564
17364SOL    HW163817  10.913   7.459  12.142 -1.3501 -0.3470 -0.2405
17364SOL    HW263818  10.834   7.517  12.257 -1.5412 -0.9715 -0.0535
17365SOL     OW63819   5.837   6.882   6.719  0.4750  0.1496 -0.1837
17365SOL    HW163820   5.879   6.818   6.662  0.4452 -2.0347  2.1097
17365SOL    HW263821   5.906   6.947   6.736  2.3461 -2.1632  1.6875
17366SOL     OW63822   8.587   5.612   0.481  0.2071 -0.0757 -0.4137
17366SOL    HW163823   8.673   5.646   0.506  0.9730 -2.1024 -0.1379
17366SOL    HW263824   8.559   5.670   0.410  1.4653  1.0538 -0.0404
17367SOL     OW63825   1.002   8.193  13.430 -0.3084 -0.1088  0.0446
17367SOL    HW163826   1.035   8.107  13.459 -1.4795  0.0826  2.1278
17367SOL    HW263827   1.076   8.252  13.444 -0.4610 -0.2453  1.6369
17368SOL     OW63828   6.996   3.024   2.288 -0.1772 -0.2914  0.0243
17368SOL    HW163829   6.902   3.022   2.302 -0.1383  0.4688  0.4704
17368SOL    HW263830   7.025   3.105   2.332  0.8447 -1.1156  0.9404
17369SOL     OW63831  13.109   3.089   8.896 -0.2643  0.0001 -0.5088
17369SOL    HW163832  13.190   3.058   8.937 -1.3029 -0.6725  1.1725
17369SOL    HW263833  13.136   3.122   8.810  1.5544 -1.5620 -0.5997
17370SOL     OW63834   1.333   1.256   2.593  0.3478  0.3785 -0.2819
17370SOL    HW163835   1.324   1.204   2.673 -1.1619 -1.7872 -1.7756
17370SOL    HW263836   1.407   1.216   2.547 -1.2887 -1.0302 -1.7907
17371SOL     OW63837   4.758   7.326   8.259 -0.4150  0.3654 -0.0316
17371SOL    HW163838   4.683   7.383   8.274 -0.1696  0.5677  0.4365
17371SOL    HW263839   4.833   7.385   8.260 -0.2110  0.1095 -0.0953
17372SOL     OW63840  11.439   3.419   8.176  0.2784  0.0857  0.0610
17372SOL    HW163841  11.483   3.454   8.253  2.0862  2.1255 -1.7310
17372SOL    HW263842  11.511   3.399   8.115 -1.1327  0.6440 -1.8755
17373SOL     OW63843   6.385   5.098   3.181  0.4323 -0.0246  0.3462
17373SOL    HW163844   6.390   5.111   3.086  0.0690 -1.0343  0.1719
17373SOL    HW263845   6.473   5.068   3.205  0.4756  0.0625  0.2974
17374SOL     OW63846   4.003  13.152   8.119 -0.3387 -0.0886  0.3815
17374SOL    HW163847   3.994  13.082   8.184 -0.2365  1.0292  1.6422
17374SOL    HW263848   4.097  13.168   8.114 -0.3700  0.0245  0.1696
17375SOL     OW63849   1.532  10.203  10.584 -0.7685  0.1036  0.0544
17375SOL    HW163850   1.498  10.283  10.543  0.1597 -0.1630 -1.3229
17375SOL    HW263851   1.627  10.212  10.577 -0.6090 -0.3188  1.5081
17376SOL     OW63852  10.811   0.105  12.628  0.2233  0.3661  0.2598
17376SOL    HW163853  10.842   0.028  12.675 -0.5041  0.4136  0.8227
17376SOL    HW263854  10.815   0.080  12.535  0.5978 -0.1169  0.4040
17377SOL     OW63855  10.509   5.436   2.494 -0.7000 -0.0352  0.1033
17377SOL    HW163856  10.562   5.369   2.537  1.5950  1.2252 -0.6212
17377SOL    HW263857  10.459   5.388   2.428  1.6503 -1.0093 -1.0949
17378SOL     OW63858   7.817   0.388   2.734 -0.7867 -0.0038 -0.1484
17378SOL    HW163859   7.844   0.326   2.803 -0.2669  0.7259  0.3229
17378SOL    HW263860   7.881   0.374   2.664 -0.6705 -0.0080 -0.0435
17379SOL     OW63861   4.128   7.271  13.400  0.0504 -0.8767  0.8923
17379SOL    HW163862   4.138   7.345  13.460  2.7743  0.1828 -0.6799
17379SOL    HW263863   4.156   7.195  13.451 -1.1585 -0.6090  2.0076
17380SOL     OW63864  13.698  10.120   8.460  0.1938 -0.4927  0.2665
17380SOL    HW163865  13.771  10.182   8.452 -0.0964 -0.2432 -0.5079
17380SOL    HW263866  13.639  10.161   8.523 -0.3566  0.4011 -0.7943
17381SOL     OW63867  11.453  10.048   2.776 -0.8339  0.2347  0.2570
17381SOL    HW163868  11.484  10.139   2.778  1.7624 -0.5495 -0.3285
17381SOL    HW263869  11.475  10.017   2.688  1.0514 -1.7592  1.3260
17382SOL     OW63870   8.141   9.043   2.540  0.7401  0.1665 -0.5675
17382SOL    HW163871   8.200   9.102   2.493 -1.4248  1.3958 -1.8704
17382SOL    HW263872   8.182   8.956   2.531  1.5881  0.7306 -2.6965
17383SOL     OW63873   6.097  12.594   7.242  0.3379 -0.1709 -0.4624
17383SOL    HW163874   6.131  12.524   7.186 -1.2657 -0.5998 -0.9752
17383SOL    HW263875   6.011  12.562   7.270  0.7901  0.3268  1.7211
17384SOL     OW63876   2.738   6.564   5.215  0.6250  0.3278 -0.4273
17384SOL    HW163877   2.738   6.595   5.125 -0.7635  1.2638 -0.1400
17384SOL    HW263878   2.712   6.472   5.209  1.7039  0.0526 -1.0539
17385SOL     OW63879  11.505   4.098   4.465 -0.7802  0.3312  0.1356
17385SOL    HW163880  11.584   4.051   4.439  0.0898  1.6472  0.3660
17385SOL    HW263881  11.438   4.069   4.402  0.6242  1.4898 -1.9996
17386SOL     OW63882  10.360   9.289  10.886  0.0740  0.2266 -0.8445
17386SOL    HW163883  10.429   9.225  10.868 -1.1533 -0.9336 -1.6101
17386SOL    HW263884  10.381   9.363  10.829  1.9738  0.9338  0.6424
17387SOL     OW63885   8.922   3.317   8.076  0.0210 -0.6040  0.4046
17387SOL    HW163886   8.921   3.402   8.031  2.4466 -1.1100 -0.7036
17387SOL    HW263887   8.985   3.328   8.147 -0.1269 -1.3056  0.6526
17388SOL     OW63888  10.228  13.677  12.987 -0.4080 -0.0051 -0.4366
17388SOL    HW163889  10.158  13.678  13.052  0.3085 -4.7336  0.7538
17388SOL    HW263890  10.308  13.688  13.038  0.0210 -1.1566 -0.8314
17389SOL     OW63891   8.578   6.132   5.881  0.2725  0.1258 -0.2945
17389SOL    HW163892   8.530   6.165   5.957 -1.6164 -1.2627 -0.8006
17389SOL    HW263893   8.643   6.072   5.918  1.2714  1.5527  0.3655
17390SOL     OW63894   6.544   6.170   9.122  0.2152  0.4953  0.1647
17390SOL    HW163895   6.450   6.159   9.110 -0.1458  2.1617  1.0580
17390SOL    HW263896   6.584   6.124   9.048 -1.2404 -1.0824  0.3168
17391SOL     OW63897   8.896   4.518  13.572 -0.3965  0.2650 -0.2212
17391SOL    HW163898   8.894   4.582  13.643  1.5895  1.3247 -1.0313
17391SOL    HW263899   8.945   4.562  13.502 -0.6780 -1.4325 -1.5425
17392SOL     OW63900   6.472  10.139  10.082  0.0434 -0.1472  0.2363
17392SOL    HW163901   6.441  10.220  10.123 -0.1749 -0.4146  0.6059
17392SOL    HW263902   6.424  10.070  10.127  0.1461 -0.4782 -0.1547
17393SOL     OW63903   5.019   3.496  10.772  0.1446 -0.1583  0.1687
17393SOL    HW163904   5.004   3.549  10.694  0.4872 -0.0047  0.2082
17393SOL    HW263905   5.014   3.558  10.845  0.2132 -0.2369  0.2402
17394SOL     OW63906  12.486   4.411   3.642  0.7413  0.2583 -0.6840
17394SOL    HW163907  12.431   4.377   3.713 -0.0404  1.3594 -0.7480
17394SOL    HW263908  12.567   4.439   3.686  0.7041 -0.0731 -0.3969
17395SOL     OW63909   8.756   8.179  13.234  0.4532  0.3713  0.4655
17395SOL    HW163910   8.709   8.103  13.199 -0.3182  0.0942  2.0054
17395SOL    HW263911   8.812   8.208  13.162  0.1699 -1.1619 -0.4217
17396SOL     OW63912   4.559  12.477  10.525  0.2095 -0.2017  0.6822
17396SOL    HW163913   4.587  12.410  10.462 -0.8425 -1.4332  1.4555
17396SOL    HW263914   4.572  12.436  10.611  3.2206  2.0570  1.4435
17397SOL     OW63915   8.418   6.095   2.354 -0.4153  0.3269  0.1653
17397SOL    HW163916   8.362   6.060   2.424 -0.0487  0.6836  0.6405
17397SOL    HW263917   8.459   6.017   2.316  0.9841  0.2513  1.7195
17398SOL     OW63918   3.657  11.650   6.428  0.2045  0.4052  0.2108
17398SOL    HW163919   3.713  11.727   6.417  1.4543 -0.7664 -2.6147
17398SOL    HW263920   3.605  11.646   6.348 -0.7172 -1.0334  0.8378
17399SOL     OW63921   6.468   8.275   7.851  0.1849  0.0375  0.0989
17399SOL    HW163922   6.503   8.191   7.881 -1.5788 -0.7755 -0.0058
17399SOL    HW263923   6.507   8.339   7.910  1.1195 -0.9032  0.5458
17400SOL     OW63924  13.218   1.267   2.980  0.3644 -0.1924 -0.4588
17400SOL    HW163925  13.264   1.273   3.064  1.2276 -0.1673 -0.9219
17400SOL    HW263926  13.271   1.320   2.920 -2.2515  3.1261 -0.1941
17401SOL     OW63927   8.550   3.892   1.697 -0.7704  0.5301  0.2202
17401SOL    HW163928   8.529   3.985   1.697 -2.2627  0.2210 -0.7357
17401SOL    HW263929   8.531   3.863   1.608  0.7930 -0.4639  0.1812
17402SOL     OW63930   4.139   7.479   5.406  0.5520  0.8465 -0.0584
17402SOL    HW163931   4.208   7.419   5.433 -0.7619 -0.6900  0.0697
17402SOL    HW263932   4.071   7.469   5.473 -0.3087  1.3588 -0.8223
17403SOL     OW63933  10.371   8.004  12.443  0.5948  0.0514  0.7259
17403SOL    HW163934  10.463   8.006  12.470  1.1770 -2.3637 -0.7824
17403SOL    HW263935  10.372   8.038  12.353 -0.1994  1.1305  1.1091
17404SOL     OW63936   0.808   2.611   5.741  0.3407  0.0976  0.2420
17404SOL    HW163937   0.798   2.619   5.646  0.1537 -0.7528  0.1790
17404SOL    HW263938   0.802   2.701   5.773 -1.1438  0.2782 -0.4074
17405SOL     OW63939  12.995  12.784  12.313 -0.9369 -0.2733  0.4993
17405SOL    HW163940  13.051  12.718  12.353 -2.0136 -0.5598  1.6008
17405SOL    HW263941  13.052  12.830  12.251  0.7329 -0.0066  2.1411
17406SOL     OW63942   4.199  12.831   9.730 -0.1700  0.2563  0.6042
17406SOL    HW163943   4.173  12.802   9.643  2.2177  0.8785 -0.3987
17406SOL    HW263944   4.190  12.926   9.728  2.2424  0.5444  0.0890
17407SOL     OW63945   9.314   4.531   5.033 -0.0366  0.0877  0.3473
17407SOL    HW163946   9.354   4.504   5.116 -1.6655  0.2368  1.2203
17407SOL    HW263947   9.379   4.509   4.967  1.3298  0.0049  1.6647
17408SOL     OW63948   0.720   7.444   2.931 -0.0599 -0.4777  0.1867
17408SOL    HW163949   0.775   7.377   2.889  1.1857  0.7523 -0.2271
17408SOL    HW263950   0.674   7.486   2.859 -0.4842 -0.5628  0.4020
17409SOL     OW63951   5.193   1.345  12.119 -0.3251  0.2125 -0.1817
17409SOL    HW163952   5.140   1.424  12.126 -1.2035 -0.1669 -1.8099
17409SOL    HW263953   5.141   1.278  12.163 -0.7736  0.0508 -0.9280
17410SOL     OW63954   6.477  13.668  12.520 -1.1156  0.1683  0.4545
17410SOL    HW163955   6.564  13.706  12.525 -0.0218 -1.9642 -0.8397
17410SOL    HW263956   6.428  13.727  12.462  0.1339  0.2814 -0.5359
17411SOL     OW63957   7.067   0.972   1.506 -0.1442 -0.0681  0.1506
17411SOL    HW163958   6.990   1.026   1.522 -0.9543 -1.0918 -0.1957
17411SOL    HW263959   7.060   0.946   1.414  0.7586  0.0462  0.0386
17412SOL     OW63960   5.699  10.803   6.783 -0.7999 -0.2027  0.1894
17412SOL    HW163961   5.730  10.713   6.790 -1.4675 -0.7425 -2.5277
17412SOL    HW263962   5.755  10.843   6.717 -2.2765  0.4866 -0.6942
17413SOL     OW63963   8.399  10.197  11.421  0.4704  0.5038 -0.2261
17413SOL    HW163964   8.304  10.192  11.417  0.5205 -1.5512  0.0251
17413SOL    HW263965   8.428  10.175  11.333  0.7085 -0.9452  0.1779
17414SOL     OW63966  10.992   7.662  12.475 -0.0615 -0.4154  1.1047
17414SOL    HW163967  11.053   7.710  12.419 -0.5522  0.2064  1.0890
17414SOL    HW263968  11.044   7.591  12.512 -0.1441 -1.9926 -1.5780
17415SOL     OW63969  13.703   0.490   8.757 -0.2896 -0.4461  0.6547
17415SOL    HW163970  13.628   0.540   8.726 -0.3116  0.7631  2.4615
17415SOL    HW263971  13.665   0.420   8.810 -0.1775 -0.1277  1.1665
17416SOL     OW63972  12.486   5.050  10.902 -0.0928 -0.2376  0.1397
17416SOL    HW163973  12.546   5.113  10.863  1.1348  0.5065  3.0365
17416SOL    HW263974  12.407   5.056  10.848  0.5365  2.6633 -0.6080
17417SOL     OW63975  12.023   3.431   7.078 -0.4358 -0.3023 -0.6931
17417SOL    HW163976  12.097   3.399   7.026  0.2955 -0.6723  0.5358
17417SOL    HW263977  12.053   3.515   7.113 -0.5119 -0.5510 -0.0181
17418SOL     OW63978  12.580   3.176   3.159  0.1850  0.5889  0.7731
17418SOL    HW163979  12.579   3.268   3.182  0.3021  1.1589 -1.2604
17418SOL    HW263980  12.502   3.163   3.105  0.7700 -0.1912  0.0615
17419SOL     OW63981   0.111  11.056   8.084  0.2020 -0.0920  0.4859
17419SOL    HW163982   0.190  11.109   8.079  1.3062 -1.3209  2.8711
17419SOL    HW263983   0.140  10.967   8.068 -0.9165 -0.4301  0.2294
17420SOL     OW63984   7.576  12.881  11.473 -0.6615  0.2797 -0.0124
17420SOL    HW163985   7.565  12.821  11.547 -0.9227 -0.9169 -0.9858
17420SOL    HW263986   7.624  12.830  11.408 -2.1926  0.6034 -1.4664
17421SOL     OW63987   6.330   9.975   2.637  0.0854  0.2210 -0.5235
17421SOL    HW163988   6.399   9.914   2.612  2.7497  2.7652  0.1023
17421SOL    HW263989   6.363  10.018   2.715 -3.0655  0.3822  0.9058
17422SOL     OW63990   4.885  12.624   4.296 -0.4134  0.3876  0.5243
17422SOL    HW163991   4.846  12.633   4.209  0.9817 -0.1325 -0.1735
17422SOL    HW263992   4.921  12.711   4.314 -1.4815  0.7499  0.9906
17423SOL     OW63993   2.531   9.322  12.530 -0.4787 -0.5917 -0.5884
17423SOL    HW163994   2.574   9.236  12.526  0.9817 -0.0119  1.1082
17423SOL    HW263995   2.596   9.379  12.571 -1.9829  0.9779 -0.2699
17424SOL     OW63996   4.347   9.136   5.736 -0.3595 -0.1196  0.2309
17424SOL    HW163997   4.418   9.194   5.708 -0.6028  1.0425  1.8428
17424SOL    HW263998   4.278   9.148   5.670  0.4181 -0.2385 -0.6171
17425SOL     OW63999   3.145   9.904   4.302  0.2297 -0.4132  0.6913
17425SOL    HW164000   3.164   9.882   4.210 -0.3094 -0.4945  0.5990
17425SOL    HW264001   3.198   9.981   4.319  0.2842 -0.3587  0.2899
17426SOL     OW64002   9.526   5.150   9.307  0.2105 -0.1504 -0.3398
17426SOL    HW164003   9.438   5.146   9.343  0.6418 -1.8935  0.6234
17426SOL    HW264004   9.523   5.093   9.230  0.6208 -0.6964  0.0362
17427SOL     OW64005   0.534  13.659  11.501  0.5052  0.7532 -0.5239
17427SOL    HW164006   0.456  13.630  11.453 -0.1570  0.4563  0.6980
17427SOL    HW264007   0.518  13.632  11.591  1.3301  2.0868  0.0492
17428SOL     OW64008   4.943   9.503   4.898  0.4474 -0.4898 -0.2620
17428SOL    HW164009   4.935   9.435   4.964  0.4096  0.9777  1.3025
17428SOL    HW264010   4.875   9.567   4.919  0.7598  0.2722 -1.4141
17429SOL     OW64011   7.918   9.213   6.381  0.2046  0.0033  0.7455
17429SOL    HW164012   8.010   9.231   6.400  0.0168 -0.9351  2.8554
17429SOL    HW264013   7.918   9.123   6.348  0.3479  1.1183 -2.6948
17430SOL     OW64014   4.169   6.769   5.365 -0.5348  0.1542 -0.4439
17430SOL    HW164015   4.091   6.771   5.309 -1.8978  1.2308  1.3680
17430SOL    HW264016   4.153   6.694   5.424  0.1208 -0.0087 -0.4686
17431SOL     OW64017   1.733  13.475   4.475  0.0638 -0.0842  0.0778
17431SOL    HW164018   1.772  13.554   4.440  0.0168  0.5092  1.2956
17431SOL    HW264019   1.640  13.483   4.455  0.0869  0.0911  0.0436
17432SOL     OW64020   2.788  10.268  13.118  0.9097  0.3438  0.5003
17432SOL    HW164021   2.768  10.357  13.148 -0.4429  0.0851  0.4228
17432SOL    HW264022   2.820  10.223  13.196  2.2550  1.0629  0.3977
17433SOL     OW64023   8.310  10.645   3.637  0.2033  0.1198  0.0313
17433SOL    HW164024   8.383  10.590   3.611 -0.0959  0.0473 -0.6840
17433SOL    HW264025   8.258  10.656   3.557 -1.2400 -0.8434  0.7909
17434SOL     OW64026  12.718  10.752   4.274 -0.3388 -0.2318 -0.0792
17434SOL    HW164027  12.744  10.840   4.302 -0.3352  0.1667 -1.2930
17434SOL    HW264028  12.692  10.762   4.183  0.4499 -1.6459 -0.4957
17435SOL     OW64029   6.192  13.195   8.347 -0.1206  0.4031 -0.1861
17435SOL    HW164030   6.174  13.110   8.389 -1.8904 -0.0505 -1.7077
17435SOL    HW264031   6.287  13.206   8.354 -0.0240 -0.9770  1.3576
17436SOL     OW64032  13.156   2.707  11.396 -0.2755 -0.0185  0.2005
17436SOL    HW164033  13.202   2.772  11.342  1.8873 -1.0718  0.6495
17436SOL    HW264034  13.177   2.623  11.354 -1.6827 -0.5626  0.5479
17437SOL     OW64035   9.259   3.160   9.297  0.5411  0.4092 -0.3175
17437SOL    HW164036   9.264   3.089   9.233 -1.2189 -0.3696  0.3668
17437SOL    HW264037   9.167   3.185   9.300  0.6966  0.9568  1.3357
17438SOL     OW64038  10.117  12.823   8.340 -0.0747 -0.5981 -0.9468
17438SOL    HW164039  10.038  12.828   8.286  1.1049  1.0625 -2.6102
17438SOL    HW264040  10.183  12.784   8.283  0.6371 -0.9091  0.0633
17439SOL     OW64041   1.939  13.687  11.398  0.5912  0.6077 -0.0706
17439SOL    HW164042   1.952  13.644  11.314 -1.5656  0.0488 -0.1677
17439SOL    HW264043   1.885  13.626  11.448  1.2938  1.2162  1.5128
17440SOL     OW64044   7.041  12.573   4.742  0.2647 -0.0915  0.3009
17440SOL    HW164045   6.961  12.625   4.735  1.5468  2.3567  2.2524
17440SOL    HW264046   7.011  12.491   4.782 -1.3517  0.5210  0.4462
17441SOL     OW64047   4.542   6.376   7.858 -0.3555  0.1336  0.1595
17441SOL    HW164048   4.503   6.369   7.944  0.4985 -0.1908  0.5301
17441SOL    HW264049   4.543   6.470   7.839 -2.5888  0.0758 -0.4824
17442SOL     OW64050  11.062  11.070   9.954 -0.4540  0.4976  0.1890
17442SOL    HW164051  10.980  11.106   9.921  0.3313  1.6811 -0.5341
17442SOL    HW264052  11.045  11.052  10.047 -1.2913  1.4496  0.2369
17443SOL     OW64053  12.520  11.690  12.812 -0.4560  0.4801  0.0416
17443SOL    HW164054  12.538  11.615  12.756 -0.0290 -0.6928  1.6654
17443SOL    HW264055  12.602  11.705  12.859  0.1375  3.3427 -1.7103
17444SOL     OW64056  11.101   7.605   5.350  0.3628  0.0607 -0.3566
17444SOL    HW164057  11.077   7.666   5.420 -2.0041 -0.9526 -0.1851
17444SOL    HW264058  11.147   7.659   5.286 -3.4047  2.6851 -1.2576
17445SOL     OW64059  11.800  10.208   2.363 -0.1101  0.0913  0.4879
17445SOL    HW164060  11.849  10.290   2.371 -0.6460  0.3161  1.6404
17445SOL    HW264061  11.865  10.144   2.334  0.6640  0.5872  1.0841
17446SOL     OW64062   9.672   4.083   6.832 -0.7359  0.6080  0.0553
17446SOL    HW164063   9.734   4.025   6.789 -0.4642  0.2663  0.8883
17446SOL    HW264064   9.621   4.122   6.761 -2.1539 -1.9974 -0.4551
17447SOL     OW64065   7.492   2.569   7.232  0.1569 -0.0778  0.5282
17447SOL    HW164066   7.413   2.516   7.225  1.2175 -1.5150 -3.3619
17447SOL    HW264067   7.558   2.510   7.267  0.5332 -0.3615 -0.6073
17448SOL     OW64068  12.959   6.563  11.604  0.2893  0.3718 -0.0066
17448SOL    HW164069  12.978   6.565  11.510 -1.7070  1.3537 -0.4253
17448SOL    HW264070  12.983   6.474  11.631  0.0418 -0.2255 -1.6311
17449SOL     OW64071   1.788   1.716   1.842 -0.1572 -0.8258 -0.8046
17449SOL    HW164072   1.859   1.652   1.840  0.8526  0.1878  0.7125
17449SOL    HW264073   1.828   1.797   1.811 -0.7883 -0.3562 -0.4180
17450SOL     OW64074   7.411   3.551  10.397  0.4378  0.4396  0.3826
17450SOL    HW164075   7.462   3.476  10.367 -0.7114 -0.0156 -0.4774
17450SOL    HW264076   7.354   3.516  10.466  1.0941  0.9048  1.1925
17451SOL     OW64077   8.387  10.650   6.505  0.2379  0.0193  0.0469
17451SOL    HW164078   8.295  10.667   6.485  0.1375 -0.7220 -0.1477
17451SOL    HW264079   8.395  10.670   6.598  0.1752  1.2694 -0.1871
17452SOL     OW64080   2.402   1.531  13.269 -0.1171  0.2671 -0.0148
17452SOL    HW164081   2.362   1.515  13.354 -1.5941 -3.4301 -1.1882
17452SOL    HW264082   2.478   1.472  13.267 -0.0277  0.3879 -1.1697
17453SOL     OW64083   8.961   5.949   4.458 -0.5607 -0.4469 -0.7560
17453SOL    HW164084   8.879   5.955   4.508 -0.3357  0.4479 -0.4647
17453SOL    HW264085   8.934   5.920   4.371 -1.4448  1.5476 -1.2041
17454SOL     OW64086  10.271   7.615   4.049  0.5778  0.0430  0.0721
17454SOL    HW164087  10.340   7.676   4.026  0.0780  0.4750 -0.3188
17454SOL    HW264088  10.316   7.539   4.086  1.5461 -1.0253 -2.9455
17455SOL     OW64089   1.297   5.256   3.670 -0.1933  0.2767  0.3954
17455SOL    HW164090   1.342   5.307   3.603  2.3513 -1.8304  0.3215
17455SOL    HW264091   1.360   5.254   3.743 -0.8580 -1.4185  0.9567
17456SOL     OW64092   5.134   0.251   2.235  0.0555  0.2545 -0.2902
17456SOL    HW164093   5.146   0.224   2.327  1.1939  0.6963 -0.2921
17456SOL    HW264094   5.218   0.229   2.194 -0.2651  0.5597 -1.1040
17457SOL     OW64095   4.762   5.475  11.549 -0.4844  0.4277  0.0905
17457SOL    HW164096   4.710   5.474  11.469 -0.3386  0.8844 -0.0150
17457SOL    HW264097   4.744   5.562  11.587 -0.1003  0.4364  0.2511
17458SOL     OW64098  11.408   5.830   2.001 -0.1369  0.0618 -0.2625
17458SOL    HW164099  11.450   5.816   1.917 -4.5281  0.1708 -2.7800
17458SOL    HW264100  11.352   5.754   2.013 -0.1536  0.3744  2.3026
17459SOL     OW64101   7.569   3.142  10.157  0.0521 -0.2282  0.6497
17459SOL    HW164102   7.537   3.160  10.245  0.7065  2.6280  0.4001
17459SOL    HW264103   7.515   3.069  10.126  1.0557 -2.6819  4.0334
17460SOL     OW64104   9.660   0.452  12.679  0.3800  0.0734  0.0731
17460SOL    HW164105   9.600   0.517  12.716  0.2796  0.2355 -0.3649
17460SOL    HW264106   9.712   0.421  12.754 -1.5486 -1.5154  0.8313
17461SOL     OW64107   2.655   0.183   0.755 -0.2311 -0.3192 -0.1528
17461SOL    HW164108   2.613   0.157   0.673 -1.1278  0.6770 -0.0364
17461SOL    HW264109   2.739   0.137   0.755 -1.1239 -2.0562 -0.5991
17462SOL     OW64110   5.965   1.254   3.892 -0.5786 -0.0504  0.5267
17462SOL    HW164111   6.002   1.238   3.979  0.1483  0.8729  0.3974
17462SOL    HW264112   5.895   1.318   3.907  0.1204  0.7659  0.3194
17463SOL     OW64113  11.302  11.891   5.660 -0.0033  0.7234 -0.4015
17463SOL    HW164114  11.391  11.907   5.628  0.5398  0.1168  0.7498
17463SOL    HW264115  11.287  11.798   5.644 -0.1794  0.6790  0.0178
17464SOL     OW64116   9.587  12.966   6.481  0.3940  0.2578 -0.1147
17464SOL    HW164117   9.560  12.880   6.512 -0.6051  0.0610 -1.4571
17464SOL    HW264118   9.529  13.027   6.525  1.2248  0.2793  0.9810
17465SOL     OW64119  11.792   2.895  11.727  0.0335  0.3843  0.0266
17465SOL    HW164120  11.873   2.928  11.689 -0.1145  0.5030 -0.1891
17465SOL    HW264121  11.795   2.801  11.712  0.0147  0.4205 -0.2056
17466SOL     OW64122  11.598   7.489  12.502 -0.0013  0.1132  0.4360
17466SOL    HW164123  11.673   7.548  12.508 -1.1562  1.7057 -0.1953
17466SOL    HW264124  11.629   7.416  12.447  0.6785  1.4315 -1.0126
17467SOL     OW64125   6.700   7.182  12.106  0.3572 -0.3185  0.2037
17467SOL    HW164126   6.624   7.228  12.069  1.4572  0.0823 -1.7352
17467SOL    HW264127   6.667   7.139  12.184 -1.1112  2.5474  1.3238
17468SOL     OW64128   5.582   3.612  12.880 -0.2585  0.6148 -0.3370
17468SOL    HW164129   5.632   3.620  12.961 -0.7384  0.4782 -0.0180
17468SOL    HW264130   5.522   3.686  12.881 -0.2083  0.6611 -0.6092
17469SOL     OW64131  10.012   2.577   7.616  0.0007  0.3568  0.0590
17469SOL    HW164132  10.031   2.665   7.582  1.8535  0.5097  1.3132
17469SOL    HW264133  10.090   2.555   7.668 -0.0772 -2.3592 -0.8436
17470SOL     OW64134   3.692  13.397   1.885  0.0073 -0.0961 -0.8046
17470SOL    HW164135   3.721  13.488   1.887  1.0206 -0.4101  1.5009
17470SOL    HW264136   3.739  13.359   1.810 -1.0881  1.4010 -2.3412
17471SOL     OW64137   7.370   0.589  10.427  0.6958  0.5124  0.0992
17471SOL    HW164138   7.455   0.586  10.382 -0.0052 -0.9544 -1.2009
17471SOL    HW264139   7.314   0.529  10.377 -0.4924 -0.2403  2.2296
17472SOL     OW64140   7.234   2.302   0.894 -0.3497 -0.2097 -0.2030
17472SOL    HW164141   7.288   2.254   0.955  2.0482  0.6955 -1.4545
17472SOL    HW264142   7.273   2.390   0.892 -2.1278  0.6087 -0.8922
17473SOL     OW64143   5.692   2.698   7.852  0.2446  0.0155 -0.1808
17473SOL    HW164144   5.761   2.641   7.888  1.0421  0.0697 -1.5677
17473SOL    HW264145   5.713   2.785   7.886  0.4881 -0.0853 -0.0693
17474SOL     OW64146   3.838   4.170   0.909 -0.4595 -0.4072 -0.2086
17474SOL    HW164147   3.792   4.228   0.969  0.5151 -0.1916  0.3537
17474SOL    HW264148   3.927   4.164   0.944 -0.3663 -1.7346 -0.6147
17475SOL     OW64149   6.073  13.088   4.064 -0.0797  0.1309  0.2313
17475SOL    HW164150   6.153  13.120   4.105  1.1380  0.6847 -2.3326
17475SOL    HW264151   6.027  13.168   4.036  0.0746 -0.2009 -1.0600
17476SOL     OW64152   4.659   0.177   9.839 -0.3818 -0.4742 -0.0115
17476SOL    HW164153   4.686   0.132   9.919 -1.9907  0.1573  0.9357
17476SOL    HW264154   4.601   0.247   9.868  0.3563  0.8957 -1.6205
17477SOL     OW64155   2.002   3.612   7.329  0.2517  0.4209 -0.0372
17477SOL    HW164156   2.026   3.555   7.402  1.4534  0.5167 -0.3355
17477SOL    HW264157   1.948   3.558   7.272  0.4165 -0.0590  0.2599
17478SOL     OW64158   9.130   4.485   3.525 -0.0767  0.4834 -0.3653
17478SOL    HW164159   9.064   4.548   3.554  1.1725  1.1574  1.2160
17478SOL    HW264160   9.187   4.473   3.602  1.9750  0.3992 -1.8048
17479SOL     OW64161   8.152   1.195  12.068 -0.0573 -0.3764  0.2041
17479SOL    HW164162   8.180   1.199  12.159  1.6462 -1.7900 -0.2146
17479SOL    HW264163   8.168   1.104  12.041 -0.3095  0.0521 -1.5716
17480SOL     OW64164  10.885   2.976   9.872 -0.1557  0.4905 -0.8079
17480SOL    HW164165  10.921   2.989   9.960  0.8463 -0.3782 -1.0559
17480SOL    HW264166  10.925   2.894   9.842 -1.6291 -0.0114 -1.5088
17481SOL     OW64167  10.018   1.722   8.221 -0.1695 -0.1148 -0.0238
17481SOL    HW164168   9.939   1.752   8.177 -0.6516 -3.4503 -1.7699
17481SOL    HW264169   9.989   1.690   8.306 -0.0485  1.7957  0.7828
17482SOL     OW64170   7.467   5.605  12.063 -0.2077  0.1211  0.5123
17482SOL    HW164171   7.470   5.573  11.973  3.4794 -1.4221  0.9956
17482SOL    HW264172   7.482   5.699  12.056 -1.5604  0.2927 -0.4964
17483SOL     OW64173   9.723   3.981   5.628 -0.3917 -0.6124 -0.2638
17483SOL    HW164174   9.796   3.919   5.632 -0.4083 -0.6609 -0.6659
17483SOL    HW264175   9.741   4.034   5.551 -0.4416 -0.1908  0.0118
17484SOL     OW64176   6.053   2.703  12.468  0.1796 -0.3966 -0.3268
17484SOL    HW164177   6.080   2.760  12.395  1.1409  0.1056  0.4008
17484SOL    HW264178   6.048   2.762  12.543  1.0461 -1.2289  0.4139
17485SOL     OW64179   3.193   6.878   4.604 -0.0262 -0.0478  0.2920
17485SOL    HW164180   3.118   6.821   4.586  0.9932 -0.7673 -2.1020
17485SOL    HW264181   3.156   6.967   4.604 -0.8907 -0.3766 -1.0188
17486SOL     OW64182  12.500   6.851   5.482  0.3444 -0.2359 -0.4896
17486SOL    HW164183  12.425   6.910   5.487  1.0146  0.8609 -2.3864
17486SOL    HW264184  12.576   6.909   5.482  1.3256 -1.3565  2.2530
17487SOL     OW64185  13.490   1.810   5.230 -0.2787  0.1419 -0.1515
17487SOL    HW164186  13.511   1.791   5.139  0.2247  0.9115 -0.2080
17487SOL    HW264187  13.428   1.741   5.256  1.1987 -1.3276 -0.4072
17488SOL     OW64188   6.658   2.650  10.066 -0.7545 -0.0337 -0.0083
17488SOL    HW164189   6.599   2.642   9.991 -1.4576 -1.3278  0.6610
17488SOL    HW264190   6.719   2.577  10.057  0.3667  0.9078 -0.3283
17489SOL     OW64191  12.301   5.659   3.851 -0.0491  0.1779 -0.2299
17489SOL    HW164192  12.260   5.734   3.807 -0.3068  1.1987  1.6669
17489SOL    HW264193  12.229   5.597   3.862 -0.6481  1.0680  1.1513
17490SOL     OW64194   7.966   3.217   6.179 -0.2712 -0.0796 -0.0456
17490SOL    HW164195   7.874   3.220   6.154 -0.7476 -0.8603  1.5078
17490SOL    HW264196   7.979   3.298   6.229  0.0195  0.2611 -0.6650
17491SOL     OW64197  13.475   0.696   4.202 -0.0725  0.5952 -0.3277
17491SOL    HW164198  13.540   0.765   4.210 -1.2060  1.7316 -0.5868
17491SOL    HW264199  13.462   0.685   4.108 -1.1150  1.2580 -0.2851
17492SOL     OW64200   4.145  12.457   7.890 -0.4332 -0.0547 -0.3101
17492SOL    HW164201   4.074  12.519   7.904  0.0510  0.2433  0.9402
17492SOL    HW264202   4.160  12.417   7.975  0.8585 -0.1499 -0.5614
17493SOL     OW64203  12.064   8.375   1.875  0.4996  0.5329  0.1105
17493SOL    HW164204  12.021   8.376   1.960  0.8838  0.1103  0.3201
17493SOL    HW264205  12.111   8.458   1.870 -0.8765  1.3113 -0.4197
17494SOL     OW64206  13.194   4.019   9.668 -0.0560 -0.3466 -0.2274
17494SOL    HW164207  13.194   3.930   9.703  1.7195 -0.3748 -0.1798
17494SOL    HW264208  13.126   4.018   9.600  0.3733 -1.9364 -0.6850
17495SOL     OW64209   0.196   7.330   0.764 -0.1305 -0.1115 -0.0062
17495SOL    HW164210   0.248   7.387   0.709 -1.2842  0.8785 -0.1025
17495SOL    HW264211   0.181   7.380   0.844  0.9457 -1.2643  0.9598
17496SOL     OW64212   8.594   8.298  11.742 -0.0441  0.2622 -0.2080
17496SOL    HW164213   8.592   8.300  11.838  1.4567 -0.2305 -0.1388
17496SOL    HW264214   8.656   8.228  11.721 -0.0480  0.6351 -1.5367
17497SOL     OW64215   3.242   2.746   3.062 -0.3902 -0.7090  0.1711
17497SOL    HW164216   3.249   2.684   2.989 -1.5703 -1.6544  0.8168
17497SOL    HW264217   3.191   2.699   3.128 -0.3431  0.5565  1.1435
17498SOL     OW64218   0.445   2.479  10.945 -0.1722 -0.5945 -0.1776
17498SOL    HW164219   0.487   2.410  10.996  2.1751  0.8537  0.0262
17498SOL    HW264220   0.445   2.446  10.855  2.5250 -0.2996 -0.3868
17499SOL     OW64221   0.152   5.839   6.185  0.0255 -0.4882 -0.1280
17499SOL    HW164222   0.067   5.856   6.226 -0.8546 -2.6147 -0.9269
17499SOL    HW264223   0.141   5.867   6.094  0.4027 -0.2042 -0.0902
17500SOL     OW64224  12.374   3.949   8.356  0.3578  0.2250 -0.3244
17500SOL    HW164225  12.395   3.943   8.263 -0.7995  1.1297 -0.6654
17500SOL    HW264226  12.330   3.867   8.376  2.9948 -1.2001  0.1306
17501SOL     OW64227   4.030   2.938   9.490 -0.8888  0.0300  0.0112
17501SOL    HW164228   3.943   2.976   9.494 -0.8564  0.2502 -0.9322
17501SOL    HW264229   4.089   3.014   9.483 -0.4402 -0.0165  2.4805
17502SOL     OW64230   5.524   6.404  10.621 -0.3493 -0.3537  0.1196
17502SOL    HW164231   5.512   6.484  10.571  1.0744  0.4521  0.9985
17502SOL    HW264232   5.444   6.396  10.672 -0.0475  1.2070  0.9177
17503SOL     OW64233   9.712   6.956  11.557  0.3824 -0.2737  0.3792
17503SOL    HW164234   9.763   7.028  11.521  0.3720  0.0671  1.0220
17503SOL    HW264235   9.676   6.990  11.639  1.5360 -1.4312  1.4317
17504SOL     OW64236  10.808   9.238   7.802  0.1431 -0.5632  0.0822
17504SOL    HW164237  10.845   9.192   7.727  0.1183 -0.2998 -0.0946
17504SOL    HW264238  10.839   9.328   7.793 -2.1895  0.2035 -1.2255
17505SOL     OW64239   4.847   2.793   3.836 -0.3179  0.3691  0.6038
17505SOL    HW164240   4.852   2.729   3.765 -1.3658  0.9902 -0.0693
17505SOL    HW264241   4.936   2.800   3.869  0.2870  0.3674 -0.9402
17506SOL     OW64242   7.153   0.118   9.413  0.1172 -0.2521  0.3567
17506SOL    HW164243   7.215   0.072   9.357 -1.1472 -0.2128 -1.1592
17506SOL    HW264244   7.086   0.053   9.433  1.2544 -0.7130  3.1370
17507SOL     OW64245   3.421   0.633   7.939  0.0437  0.1426 -0.1466
17507SOL    HW164246   3.395   0.561   7.881 -0.5149  0.8884 -0.8299
17507SOL    HW264247   3.510   0.655   7.912  0.8029 -1.2687  1.0593
17508SOL     OW64248  10.004   2.140   2.868  0.1986  0.0233  0.2801
17508SOL    HW164249   9.930   2.102   2.915  1.8182  0.1626  3.1449
17508SOL    HW264250  10.063   2.066   2.853 -0.4143 -0.0776 -1.9298
17509SOL     OW64251   6.089   7.179   9.875  0.1527 -0.2636 -0.2729
17509SOL    HW164252   6.174   7.223   9.871  0.3366 -0.6696 -1.1725
17509SOL    HW264253   6.097   7.106   9.813 -0.2627 -1.3660  0.9227
17510SOL     OW64254   1.737   9.054   6.020 -0.3478 -0.2546  0.2640
17510SOL    HW164255   1.813   9.094   6.062 -0.8401  0.6616  0.3049
17510SOL    HW264256   1.774   8.995   5.955  0.4179  1.0269 -0.5156
17511SOL     OW64257   7.990   2.907  10.067  0.1322 -0.1276  0.2453
17511SOL    HW164258   8.006   2.904  10.161  0.0608  0.6785  0.2933
17511SOL    HW264259   7.931   2.981  10.055  1.3248  0.7431 -0.5769
17512SOL     OW64260   0.640  11.228   7.596  0.3718  0.0227 -0.7500
17512SOL    HW164261   0.645  11.214   7.691 -0.4423 -2.8398 -1.0371
17512SOL    HW264262   0.618  11.320   7.587 -0.6196  0.1456  1.8864
17513SOL     OW64263  10.748   1.369   1.759  0.6066  0.0633 -0.1252
17513SOL    HW164264  10.812   1.369   1.688  0.7324  0.5065 -0.0127
17513SOL    HW264265  10.797   1.339   1.836  0.4926 -0.3241 -0.1970
17514SOL     OW64266   7.283   4.813  11.327 -0.0293 -0.2621 -0.5589
17514SOL    HW164267   7.256   4.831  11.417  0.8154  0.6676 -0.4823
17514SOL    HW264268   7.276   4.897  11.282  0.8324 -0.4281 -1.0235
17515SOL     OW64269   4.969   0.894   2.435  0.2437  0.1915  0.1030
17515SOL    HW164270   5.028   0.849   2.495 -1.9923 -3.0953  0.1083
17515SOL    HW264271   5.015   0.894   2.351  1.7245  1.1741  0.8739
17516SOL     OW64272  10.798  11.036  11.261  0.2108 -0.1338  0.0253
17516SOL    HW164273  10.875  11.088  11.285 -0.5322  1.7880 -1.5067
17516SOL    HW264274  10.830  10.975  11.194  1.0215 -1.5499  1.6223
17517SOL     OW64275   0.179  12.887   2.475  0.6731 -0.6258 -0.1634
17517SOL    HW164276   0.083  12.881   2.474  0.7415 -2.3113  0.5462
17517SOL    HW264277   0.197  12.981   2.471 -0.9726 -0.3187 -2.1475
17518SOL     OW64278   1.261   7.088  12.497  0.3907  0.3371 -0.3483
17518SOL    HW164279   1.314   7.037  12.558 -0.1926 -0.5409 -0.5557
17518SOL    HW264280   1.273   7.045  12.412 -0.5518  0.1874 -0.4236
17519SOL     OW64281   9.477  10.714   1.299 -0.7388 -0.3810  0.0605
17519SOL    HW164282   9.519  10.649   1.243 -1.5890 -1.6693  0.8720
17519SOL    HW264283   9.471  10.792   1.244  2.3635 -0.2079 -0.2077
17520SOL     OW64284  10.729   7.708   2.782  0.1164  0.3175 -0.1574
17520SOL    HW164285  10.726   7.801   2.807 -1.5105  0.9493 -2.3586
17520SOL    HW264286  10.758   7.663   2.861 -0.7761  2.5185  1.5545
17521SOL     OW64287   3.738  11.448   6.828  0.3398 -0.6627 -0.2388
17521SOL    HW164288   3.710  11.520   6.884  1.9129  0.0410 -0.2964
17521SOL    HW264289   3.722  11.478   6.739 -1.0654 -1.3115 -0.2383
17522SOL     OW64290  10.234   8.974  11.122 -0.2017  0.0229 -0.1509
17522SOL    HW164291  10.328   8.986  11.111 -0.5341  1.5520 -1.6729
17522SOL    HW264292  10.204   8.942  11.037 -1.3118  1.3725 -0.2915
17523SOL     OW64293   1.029   8.226   5.514 -0.1102  0.3004  0.0436
17523SOL    HW164294   1.089   8.293   5.482  0.6472  0.5291  1.7923
17523SOL    HW264295   1.086   8.153   5.538 -0.5541  0.3336  1.2771
17524SOL     OW64296  11.759   9.515  10.236  0.0631 -0.2506 -0.4613
17524SOL    HW164297  11.743   9.554  10.150 -1.3603 -1.8134 -0.9699
17524SOL    HW264298  11.723   9.427  10.229 -1.3647  0.0202  2.1490
17525SOL     OW64299   3.763  10.217  12.817  0.1772 -0.3704  0.0458
17525SOL    HW164300   3.824  10.225  12.890  0.5161  1.3953 -0.3744
17525SOL    HW264301   3.798  10.146  12.763  0.1627 -1.3977  1.3406
17526SOL     OW64302   3.297  12.808  11.758  0.6594 -0.0751 -0.0395
17526SOL    HW164303   3.338  12.731  11.720 -0.4963 -0.0793 -1.3756
17526SOL    HW264304   3.310  12.877  11.693 -1.6027 -0.1471 -0.6364
17527SOL     OW64305  12.224   0.551   6.058  0.6436 -0.7644  0.4662
17527SOL    HW164306  12.139   0.513   6.038  1.0361 -1.1298 -0.5774
17527SOL    HW264307  12.263   0.569   5.973  2.7691 -3.2149  0.7726
17528SOL     OW64308   6.566   5.600   6.772 -0.2530 -0.1272 -0.1739
17528SOL    HW164309   6.544   5.676   6.718 -1.3377  0.0783  0.5258
17528SOL    HW264310   6.618   5.543   6.714 -1.3288  0.1101 -1.4046
17529SOL     OW64311  11.441   4.776   2.406 -0.6126  0.2828  0.2795
17529SOL    HW164312  11.506   4.845   2.395 -0.7914  0.2006 -1.6986
17529SOL    HW264313  11.397   4.796   2.488  1.0769  1.0277  1.0390
17530SOL     OW64314  13.481   5.006  12.286 -0.4829  0.2035  0.2757
17530SOL    HW164315  13.556   4.995  12.227  0.8984 -1.7039  2.2087
17530SOL    HW264316  13.483   5.098  12.312 -0.4404  0.8065 -1.6652
17531SOL     OW64317  12.716   2.612  10.502 -0.2963  0.3126 -0.2147
17531SOL    HW164318  12.704   2.662  10.421  0.1397 -0.4431 -0.7595
17531SOL    HW264319  12.630   2.575  10.520 -0.3351  0.2643 -0.4888
17532SOL     OW64320   2.280   3.924   9.469 -0.7592 -0.1470  0.3073
17532SOL    HW164321   2.210   3.934   9.534 -1.3371 -0.9442 -0.1765
17532SOL    HW264322   2.361   3.925   9.521 -1.2134 -0.8407  1.0618
17533SOL     OW64323  12.210  13.739   5.392 -0.3868 -0.2534  0.3204
17533SOL    HW164324  12.211  13.834   5.399 -1.7452 -0.2668  0.9884
17533SOL    HW264325  12.165  13.721   5.310  0.2286 -0.3209 -0.0056
17534SOL     OW64326   3.135   5.120   8.362  0.6263 -0.3049 -0.0648
17534SOL    HW164327   3.106   5.171   8.438  3.3618 -0.8749  1.5092
17534SOL    HW264328   3.211   5.168   8.329  1.1801 -1.5493 -0.6627
17535SOL     OW64329   7.283   1.781   5.318  0.0446  0.1537  0.2470
17535SOL    HW164330   7.194   1.746   5.326 -0.0325  0.0207 -0.9536
17535SOL    HW264331   7.337   1.704   5.302  0.4576  0.1854  1.3932
17536SOL     OW64332   1.713  12.779  10.189  0.3374  0.1117 -0.8051
17536SOL    HW164333   1.662  12.794  10.110  2.5673  0.4466 -2.2710
17536SOL    HW264334   1.781  12.718  10.162  0.0582 -1.2770  1.3804
17537SOL     OW64335  11.122  10.760   7.673 -0.3721  0.1750  0.2042
17537SOL    HW164336  11.115  10.818   7.597  0.2214 -1.0293 -0.8252
17537SOL    HW264337  11.198  10.705   7.654 -0.4477 -0.4201  1.5029
17538SOL     OW64338   0.286   3.236   4.289  0.2186  0.0806 -0.1818
17538SOL    HW164339   0.228   3.241   4.366  1.7028  0.6305  0.9560
17538SOL    HW264340   0.272   3.320   4.244  0.3841  0.3667  0.2886
17539SOL     OW64341   2.853   4.478   8.427  0.2458 -0.4307 -0.4999
17539SOL    HW164342   2.900   4.394   8.426 -1.1445 -1.2399 -1.5022
17539SOL    HW264343   2.795   4.473   8.351 -1.0176  0.7716  0.3463
17540SOL     OW64344   2.991   0.868   0.700 -0.7943 -0.2927 -0.5646
17540SOL    HW164345   2.912   0.863   0.753  0.4852  1.6468  1.7686
17540SOL    HW264346   3.061   0.840   0.760  0.5244  0.0234 -1.8915
17541SOL     OW64347  12.240   0.502   2.629  0.2999  0.5037  0.3177
17541SOL    HW164348  12.285   0.579   2.593  1.1162 -0.4568 -0.7806
17541SOL    HW264349  12.148   0.514   2.606  0.3228  1.4300  0.6775
17542SOL     OW64350   1.479   3.936   1.084 -0.3841 -0.2491 -0.1614
17542SOL    HW164351   1.386   3.955   1.069 -0.5465 -0.9542 -0.0800
17542SOL    HW264352   1.487   3.925   1.178  0.2310  2.0297  0.1262
17543SOL     OW64353   7.059   5.772   7.611 -0.2647 -0.1944  0.1427
17543SOL    HW164354   7.151   5.758   7.632 -0.4227  0.2261  1.1995
17543SOL    HW264355   7.024   5.685   7.592  0.0990 -0.4999  0.8415
17544SOL     OW64356  11.145   7.222  10.834 -0.0715  0.8008 -0.2140
17544SOL    HW164357  11.141   7.314  10.858  2.9634  1.4327 -1.6129
17544SOL    HW264358  11.152   7.222  10.738  0.6883 -0.8040 -0.2004
17545SOL     OW64359   8.872   0.237   9.621 -0.1485  0.1855  0.1520
17545SOL    HW164360   8.849   0.283   9.540  0.5330  0.5607  0.1653
17545SOL    HW264361   8.916   0.157   9.592 -0.6803 -0.1095  0.1421
17546SOL     OW64362   5.018   8.231  12.784 -0.1643 -0.3284 -0.4266
17546SOL    HW164363   4.972   8.307  12.749  0.1193  0.3971  0.7302
17546SOL    HW264364   4.988   8.224  12.875  0.5607 -1.0004 -0.2240
17547SOL     OW64365   2.575   9.222   0.047  0.6423 -0.5114  0.0662
17547SOL    HW164366   2.580   9.211  -0.048  1.0121  1.3248 -0.1574
17547SOL    HW264367   2.574   9.316   0.061 -0.2539 -0.7373  1.8658
17548SOL     OW64368   5.725  11.311   6.960 -0.1539 -0.9600  0.0120
17548SOL    HW164369   5.788  11.383   6.963 -0.7137 -0.4406 -0.4089
17548SOL    HW264370   5.746  11.257   7.036  1.3179 -1.2386 -0.5500
17549SOL     OW64371   7.182   0.064  12.315  0.6012 -0.3822  0.4168
17549SOL    HW164372   7.134   0.052  12.233  0.1977 -2.5951  0.9137
17549SOL    HW264373   7.271   0.085  12.288 -0.2929  2.7456 -0.5192
17550SOL     OW64374  13.106   6.807   9.050  0.4268  0.4104  0.0377
17550SOL    HW164375  13.068   6.800   9.138 -0.4300  3.6645  0.0193
17550SOL    HW264376  13.059   6.741   8.999 -0.9408  0.2856  1.3926
17551SOL     OW64377   1.680  11.924   8.066 -0.0165  0.0366  0.3200
17551SOL    HW164378   1.624  11.865   8.016  0.0435  0.0961  0.1825
17551SOL    HW264379   1.756  11.871   8.089 -0.9241 -0.6130  2.0728
17552SOL     OW64380  10.093   0.849  12.797  0.0662  0.0003 -0.1247
17552SOL    HW164381  10.014   0.795  12.804  0.6543 -0.7702  1.0601
17552SOL    HW264382  10.070   0.918  12.735 -2.0574  0.6781  1.2914
17553SOL     OW64383   3.093  11.398   1.759  0.6253 -0.1048  0.1071
17553SOL    HW164384   3.021  11.336   1.774  0.8754 -0.7408 -1.1622
17553SOL    HW264385   3.049  11.482   1.745  0.2788  0.0345  1.7842
17554SOL     OW64386   4.408  10.480   4.893  0.1562  0.3578 -0.1140
17554SOL    HW164387   4.483  10.431   4.859 -0.4128 -0.5944 -0.0375
17554SOL    HW264388   4.419  10.476   4.989  0.0637  0.3134 -0.1058
17555SOL     OW64389  13.084  12.905  12.044 -0.0775 -0.3898 -0.1850
17555SOL    HW164390  13.147  12.933  11.977  0.8435  0.2612  0.9191
17555SOL    HW264391  13.073  12.811  12.028  0.9943 -0.4675 -0.5582
17556SOL     OW64392   8.443  12.978   3.352  0.7419 -0.4052  0.2469
17556SOL    HW164393   8.474  13.022   3.272 -0.5715  0.7675  0.3382
17556SOL    HW264394   8.459  12.885   3.336 -0.0061 -0.2528 -1.6517
17557SOL     OW64395   2.471  11.572   5.689 -0.0223  0.4345  0.4898
17557SOL    HW164396   2.520  11.648   5.658 -0.8688  0.8137  0.0717
17557SOL    HW264397   2.380  11.599   5.688 -0.4646 -0.9313 -0.7444
17558SOL     OW64398   4.690  12.911   1.833  0.2412 -0.0561 -0.3095
17558SOL    HW164399   4.638  12.920   1.913  1.6029  0.6370  0.5285
17558SOL    HW264400   4.631  12.867   1.771 -0.5774 -1.3827  1.3246
17559SOL     OW64401   2.292   2.419  11.466  0.2823 -0.1805 -0.3688
17559SOL    HW164402   2.372   2.465  11.491 -0.3495  0.9509 -0.3157
17559SOL    HW264403   2.228   2.445  11.533  0.3411 -2.5996  0.7184
17560SOL     OW64404  12.568   1.195  10.786 -0.0754 -0.3961 -0.4894
17560SOL    HW164405  12.566   1.260  10.857  0.1714  0.1899 -1.0054
17560SOL    HW264406  12.532   1.116  10.825 -1.2449  0.3035 -0.0911
17561SOL     OW64407   1.855  13.221   2.054 -0.3124  0.3543  0.3950
17561SOL    HW164408   1.924  13.191   2.113  0.4372  1.1653 -0.0437
17561SOL    HW264409   1.902  13.262   1.981 -1.2635  1.4846  0.3870
17562SOL     OW64410  13.727   4.704   5.286  0.1142 -0.1552 -0.4814
17562SOL    HW164411  13.693   4.614   5.295  0.6044 -0.2903  0.1303
17562SOL    HW264412  13.653   4.760   5.307 -0.5381 -0.3819 -2.0507
17563SOL     OW64413   4.546   6.826   9.153  0.5230  0.5511  0.3700
17563SOL    HW164414   4.536   6.850   9.245 -0.2377  1.5072  0.0570
17563SOL    HW264415   4.525   6.733   9.150  2.0607  0.1276  1.3827
17564SOL     OW64416   2.929   0.994   4.465  0.6339 -0.3051 -0.0147
17564SOL    HW164417   2.912   0.965   4.376  1.3004 -0.6184 -0.0455
17564SOL    HW264418   2.899   1.085   4.467 -3.8701 -1.5690  0.7937
17565SOL     OW64419   6.324  10.187   2.834  0.2391  0.5840  0.1294
17565SOL    HW164420   6.337  10.144   2.919 -0.3978  1.3794  0.6350
17565SOL    HW264421   6.246  10.241   2.846 -0.1709  0.2863 -1.1338
17566SOL     OW64422   0.359   0.184  10.431 -0.0493 -0.1503  0.0569
17566SOL    HW164423   0.428   0.223  10.485  0.9309 -0.8561 -0.6491
17566SOL    HW264424   0.357   0.238  10.352  1.2759 -1.4011 -0.9003
17567SOL     OW64425  13.513   6.631  11.883 -0.1854 -0.6211 -0.3201
17567SOL    HW164426  13.485   6.543  11.909 -1.6466 -1.0734 -3.0304
17567SOL    HW264427  13.436   6.686  11.896  0.2886 -0.0262  0.0229
17568SOL     OW64428   7.445   3.195  13.335  0.1278 -0.2674  0.1181
17568SOL    HW164429   7.538   3.217  13.325  0.1527 -0.7016 -0.7097
17568SOL    HW264430   7.427   3.207  13.429  0.6218  1.3005  0.0274
17569SOL     OW64431   2.086   6.059   9.782 -0.5093 -0.0343 -0.1592
17569SOL    HW164432   2.042   6.077   9.699  0.1536 -1.8605 -0.9551
17569SOL    HW264433   2.145   6.133   9.794  0.2191 -0.2930 -1.9165
17570SOL     OW64434  12.059  11.297  11.176  0.0512 -0.1488 -0.4883
17570SOL    HW164435  12.068  11.276  11.083 -2.2981  1.4313 -1.1680
17570SOL    HW264436  11.994  11.235  11.208  0.2391 -0.1400 -0.0828
17571SOL     OW64437   5.373  13.007   5.588  0.3228 -0.3998 -0.7508
17571SOL    HW164438   5.462  13.043   5.593  0.4581 -0.5941 -1.5761
17571SOL    HW264439   5.384  12.923   5.545  0.0444 -1.6382  1.4581
17572SOL     OW64440   3.477   8.330   1.807  0.0309  0.6646 -0.3175
17572SOL    HW164441   3.429   8.393   1.753 -0.3730  1.3224  0.7842
17572SOL    HW264442   3.427   8.249   1.800  0.1529  0.6492 -1.1616
17573SOL     OW64443   9.810   5.399   2.781  0.5503 -0.0332  0.3260
17573SOL    HW164444   9.754   5.392   2.858  1.9504  1.3969  1.5456
17573SOL    HW264445   9.829   5.309   2.758  0.8812 -0.5128  2.2739
17574SOL     OW64446   5.131  12.779   5.514  0.3947 -0.1073  0.4565
17574SOL    HW164447   5.187  12.723   5.460 -0.5597 -0.2222 -0.4270
17574SOL    HW264448   5.051  12.729   5.526  0.3104  0.2292  1.3767
17575SOL     OW64449   8.342  13.477  13.290 -0.4770 -0.2830 -0.0234
17575SOL    HW164450   8.253  13.481  13.256 -0.3067 -0.3782 -0.5035
17575SOL    HW264451   8.396  13.468  13.211  0.1851  2.5223 -0.0039
17576SOL     OW64452   8.923  13.643   4.100 -0.3991 -0.0122  0.3880
17576SOL    HW164453   8.946  13.613   4.012 -1.6521  1.2157 -0.3853
17576SOL    HW264454   9.007  13.666   4.140  0.1491 -0.1948 -0.6229
17577SOL     OW64455  13.332   8.762   7.181  0.0623 -0.5375  0.3487
17577SOL    HW164456  13.272   8.829   7.146  2.4729  0.8377 -1.4561
17577SOL    HW264457  13.370   8.721   7.103  3.6586  0.7645  1.2240
17578SOL     OW64458  12.422   6.502  10.282  0.5499  0.2165  0.1695
17578SOL    HW164459  12.512   6.533  10.283  0.6574 -0.0266  2.4690
17578SOL    HW264460  12.369   6.581  10.273  0.9490  0.5088  0.3755
17579SOL     OW64461  13.491   5.497   9.069  0.0337  0.1934  0.4881
17579SOL    HW164462  13.451   5.528   8.988 -0.9606 -0.2220  0.8079
17579SOL    HW264463  13.585   5.506   9.054 -0.0885 -0.9213 -1.1206
17580SOL     OW64464   9.815  12.267   3.542  0.1808  0.1875 -0.1384
17580SOL    HW164465   9.816  12.282   3.637  2.9086 -1.2557  0.1541
17580SOL    HW264466   9.813  12.355   3.504 -1.1131  0.7906  1.2027
17581SOL     OW64467   8.331   8.383  11.287 -0.3388  0.4752  0.3794
17581SOL    HW164468   8.315   8.393  11.381 -2.4668  1.5851 -0.0380
17581SOL    HW264469   8.267   8.441  11.245  0.9991  0.5216 -1.7539
17582SOL     OW64470  12.830   6.012   4.089  0.1859 -0.0926  0.3492
17582SOL    HW164471  12.774   6.046   4.158 -0.5931 -0.6050 -0.0096
17582SOL    HW264472  12.782   6.030   4.008  0.9101  0.1682 -0.0306
17583SOL     OW64473   2.239   0.990   0.640 -0.3253 -0.1356  0.6652
17583SOL    HW164474   2.325   0.994   0.681  0.1422 -1.3437 -0.1337
17583SOL    HW264475   2.205   1.080   0.645  1.4843  0.6284 -0.0676
17584SOL     OW64476   4.050   0.880  12.103 -0.1998 -0.1014  0.0053
17584SOL    HW164477   4.104   0.949  12.141 -2.2610  1.3238  0.5242
17584SOL    HW264478   4.112   0.810  12.081  2.0950  2.1293 -1.1466
17585SOL     OW64479  13.147   0.383   2.354  0.1936  0.3066 -0.3184
17585SOL    HW164480  13.103   0.397   2.437  1.4892  0.1335  0.4229
17585SOL    HW264481  13.118   0.297   2.325 -0.4151  0.4516 -0.1580
17586SOL     OW64482  11.688   5.172   5.978  0.5870 -0.8391 -0.1221
17586SOL    HW164483  11.766   5.221   6.006  0.0467 -0.2700  0.4363
17586SOL    HW264484  11.616   5.214   6.026 -0.2629 -0.4125 -1.7052
17587SOL     OW64485   0.196   6.345   4.579 -0.2885  0.0044  0.5073
17587SOL    HW164486   0.102   6.343   4.597 -0.1469  2.0260  1.7127
17587SOL    HW264487   0.220   6.437   4.583  1.8945 -0.5198  0.9220
17588SOL     OW64488   4.149   3.909   1.553 -0.2697 -0.0662  0.0381
17588SOL    HW164489   4.099   3.830   1.534 -0.3788  0.4954 -2.3453
17588SOL    HW264490   4.192   3.931   1.470  2.3031  0.6390  1.4381
17589SOL     OW64491   9.958   5.253   3.213  1.0733 -0.1626  0.0896
17589SOL    HW164492   9.926   5.246   3.302  0.3106 -0.6744 -0.2194
17589SOL    HW264493   9.889   5.216   3.159  0.4188  2.3159 -0.9359
17590SOL     OW64494   8.581  13.308   1.582  0.2040  0.5357  0.3031
17590SOL    HW164495   8.619  13.252   1.651  0.6426 -0.2396 -0.5506
17590SOL    HW264496   8.650  13.371   1.563  0.6203 -0.1154 -0.3914
17591SOL     OW64497  11.527   2.516   5.312  0.0271  0.1709  0.4649
17591SOL    HW164498  11.451   2.479   5.268 -0.0495  0.6643  0.1799
17591SOL    HW264499  11.595   2.448   5.304  0.3011  0.5858 -1.1974
17592SOL     OW64500   9.509  10.693   2.826  0.2903 -0.5833 -0.7797
17592SOL    HW164501   9.587  10.688   2.770 -0.2640 -1.5499 -1.5061
17592SOL    HW264502   9.476  10.781   2.812  1.4328 -0.0317 -0.1884
17593SOL     OW64503   7.075   0.573   8.987 -0.0513 -0.0771 -0.3513
17593SOL    HW164504   7.120   0.643   8.939  1.0186 -0.5206 -0.0143
17593SOL    HW264505   7.107   0.492   8.946 -1.5601 -0.3855 -0.9856
17594SOL     OW64506   7.583   8.908   5.718  0.3083  0.4615  0.6688
17594SOL    HW164507   7.628   8.928   5.635 -0.3261  0.6869  0.3745
17594SOL    HW264508   7.654   8.889   5.779  0.7861 -3.2689 -0.7882
17595SOL     OW64509   5.451   0.820  11.212  0.5375  0.4991  0.4337
17595SOL    HW164510   5.459   0.833  11.306 -1.8836  1.0357  0.6243
17595SOL    HW264511   5.380   0.879  11.185  0.8888  0.0586 -1.6636
17596SOL     OW64512   1.934   2.968   4.278 -0.1463  0.2409  0.0752
17596SOL    HW164513   1.930   2.879   4.312  1.9726 -0.7445 -1.9539
17596SOL    HW264514   1.968   2.958   4.189 -1.7647  2.9507 -0.9717
17597SOL     OW64515   2.944  12.839  13.000 -0.2743  0.2378 -0.3207
17597SOL    HW164516   3.030  12.801  13.018  0.5094  1.8459 -0.5402
17597SOL    HW264517   2.960  12.909  12.937 -1.8005  0.3560 -0.6281
17598SOL     OW64518  12.114   9.173   6.706 -0.4609 -0.1499  0.0911
17598SOL    HW164519  12.075   9.113   6.769  0.2634 -1.9305 -1.0812
17598SOL    HW264520  12.152   9.243   6.760 -2.2949 -0.1303  1.4186
17599SOL     OW64521  13.728   0.942   6.505 -0.5752  0.7266  0.0932
17599SOL    HW164522  13.798   1.000   6.472 -1.0078  1.0666 -0.2454
17599SOL    HW264523  13.667   0.935   6.431 -1.2201  0.9521  0.5963
17600SOL     OW64524  12.998   8.097   1.485 -0.5897 -0.3861  0.4748
17600SOL    HW164525  12.996   8.007   1.515  0.9346 -0.5681  0.0836
17600SOL    HW264526  13.090   8.114   1.465 -0.8808  1.1931  0.3627
17601SOL     OW64527   1.885   9.534  12.113 -0.1231  0.1003 -0.2660
17601SOL    HW164528   1.913   9.494  12.195  0.3190 -0.7377 -0.8160
17601SOL    HW264529   1.882   9.462  12.051 -2.2712  0.3629 -0.5556
17602SOL     OW64530   2.850   7.626  10.983 -0.2160  0.2952  0.1051
17602SOL    HW164531   2.760   7.655  10.971 -0.2224  0.0792 -0.3819
17602SOL    HW264532   2.848   7.532  10.962  0.4647  0.6440 -1.6511
17603SOL     OW64533   3.109   5.613   4.244  0.7529 -0.9386  0.4334
17603SOL    HW164534   3.198   5.593   4.272  0.5667 -0.3131  1.5636
17603SOL    HW264535   3.074   5.668   4.315 -0.8698 -2.0084  0.5080
17604SOL     OW64536  13.089  10.929   7.468 -0.6585 -0.2385  0.0895
17604SOL    HW164537  12.999  10.900   7.451 -0.1674 -0.7568 -1.9665
17604SOL    HW264538  13.140  10.849   7.470  0.0233  0.1503 -0.8357
17605SOL     OW64539   2.659   8.604   0.487  0.4837  0.3653 -0.2189
17605SOL    HW164540   2.707   8.570   0.562  0.1878 -1.7331 -0.8902
17605SOL    HW264541   2.726   8.621   0.421  0.5505 -0.0607 -0.2652
17606SOL     OW64542   2.636   3.461  13.709 -0.4256  0.1341  0.0369
17606SOL    HW164543   2.622   3.388  13.770 -0.0330 -0.2968 -0.3756
17606SOL    HW264544   2.663   3.419  13.627  0.1339  0.7610 -0.1085
17607SOL     OW64545  11.412   2.389  13.280 -0.6563  0.5341 -0.2897
17607SOL    HW164546  11.500   2.398  13.244 -1.1296 -0.3261 -1.7412
17607SOL    HW264547  11.355   2.421  13.210 -1.5002  1.2401  0.6978
17608SOL     OW64548  12.198   8.896   8.033 -0.1237  0.6054  0.0716
17608SOL    HW164549  12.177   8.982   8.070  0.7060  1.3555 -1.1400
17608SOL    HW264550  12.120   8.843   8.050 -0.5531  1.5128  1.0605
17609SOL     OW64551   9.286   0.816   2.850  0.5364  0.1131 -0.2457
17609SOL    HW164552   9.319   0.769   2.927  0.7223  0.0143 -0.3839
17609SOL    HW264553   9.290   0.908   2.874 -0.3662  0.0319  0.2390
17610SOL     OW64554  10.754   6.024   8.590  0.4256  0.5069 -0.2088
17610SOL    HW164555  10.753   6.111   8.550  0.1858  0.7218  0.2615
17610SOL    HW264556  10.664   6.008   8.616  1.0628  1.8015  3.2860
17611SOL     OW64557  13.297  10.342   5.850  0.1297  0.0040 -0.5757
17611SOL    HW164558  13.340  10.291   5.919  0.8764  0.9769 -0.2942
17611SOL    HW264559  13.280  10.278   5.780  1.4877 -0.5415 -0.4438
17612SOL     OW64560   9.360   0.063   7.165  0.4831  0.2091  0.0890
17612SOL    HW164561   9.378  -0.031   7.164 -1.2441 -0.1653 -0.4734
17612SOL    HW264562   9.411   0.099   7.093  0.9109 -0.3509  0.1071
17613SOL     OW64563   0.839  12.842   2.749  0.1899 -0.1473 -0.3134
17613SOL    HW164564   0.752  12.862   2.781  0.8829  0.6498  1.1714
17613SOL    HW264565   0.841  12.746   2.744 -0.3213 -0.2552  1.0469
17614SOL     OW64566   9.664   4.831   4.216  0.0281  0.0179  0.3932
17614SOL    HW164567   9.571   4.821   4.235 -0.3130 -1.0227 -1.5072
17614SOL    HW264568   9.667   4.843   4.121  1.7370  1.7634  0.6093
17615SOL     OW64569   2.951   7.057  10.633  0.1467 -0.5876 -0.2658
17615SOL    HW164570   3.010   7.089  10.564  2.5414 -0.6916  1.5760
17615SOL    HW264571   2.981   6.967  10.650 -2.2980 -1.6096 -0.9967
17616SOL     OW64572   3.102   3.062  13.336 -0.0271 -0.1755  0.1523
17616SOL    HW164573   3.077   3.050  13.244  2.9796 -0.5137 -0.7273
17616SOL    HW264574   3.100   3.157  13.349  0.3002 -0.0692 -0.5249
17617SOL     OW64575  10.794   3.907  11.813  0.0716  0.7264  0.6713
17617SOL    HW164576  10.889   3.900  11.815  0.1265  0.0705 -1.5827
17617SOL    HW264577  10.770   3.933  11.902  2.1863 -1.0081  1.8586
17618SOL     OW64578   7.385   4.435   9.418 -0.5677  0.0160  0.0127
17618SOL    HW164579   7.428   4.448   9.333  0.6156 -0.3180  0.5448
17618SOL    HW264580   7.299   4.402   9.396 -0.2171 -0.2267 -1.0602
17619SOL     OW64581  13.509   9.781  12.267  0.0790  0.1373  0.1530
17619SOL    HW164582  13.542   9.732  12.192 -0.3105  0.6913 -0.3849
17619SOL    HW264583  13.437   9.727  12.300  1.0771 -0.7682  0.9559
17620SOL     OW64584   5.435   0.992   0.183  1.0370  0.1577 -0.1243
17620SOL    HW164585   5.386   0.910   0.173  1.8579 -0.2901 -0.5581
17620SOL    HW264586   5.520   0.974   0.143  1.0752  1.3677 -0.6246
17621SOL     OW64587  11.656   8.531   7.254 -0.2517  0.6132  0.1111
17621SOL    HW164588  11.580   8.479   7.280  0.2791  0.2102  0.8717
17621SOL    HW264589  11.704   8.546   7.335  0.8988  0.1876 -0.4685
17622SOL     OW64590  12.504  10.630   1.127  0.1097 -0.1084  0.0708
17622SOL    HW164591  12.513  10.724   1.112  0.8609 -0.2398 -0.3152
17622SOL    HW264592  12.413  10.620   1.155 -0.0544  0.6995 -0.1302
17623SOL     OW64593   2.281  10.882   0.482 -0.3108 -0.2288  0.5201
17623SOL    HW164594   2.369  10.843   0.482 -0.5760 -0.9329 -1.4477
17623SOL    HW264595   2.295  10.972   0.513  1.1143 -0.2987  0.1581
17624SOL     OW64596   3.441   5.097   7.218  0.2555  0.0034 -0.1187
17624SOL    HW164597   3.368   5.043   7.251  0.6291 -0.8918 -0.6999
17624SOL    HW264598   3.428   5.097   7.123  1.6578 -1.1422 -0.3344
17625SOL     OW64599   1.358  13.469  10.388  0.2764  0.0652 -0.2889
17625SOL    HW164600   1.441  13.511  10.367  0.6667 -0.0127  1.0522
17625SOL    HW264601   1.375  13.418  10.467 -0.6796 -1.1143 -0.8043
17626SOL     OW64602   4.855   7.590   9.521 -0.0511  0.0253  0.3101
17626SOL    HW164603   4.921   7.524   9.504 -0.3542 -0.2838  0.3272
17626SOL    HW264604   4.899   7.654   9.577  0.5604  0.3919 -0.5708
17627SOL     OW64605  10.205  11.570   3.937 -0.1958 -0.7175 -0.8297
17627SOL    HW164606  10.225  11.659   3.906 -1.4996 -0.4006 -0.8106
17627SOL    HW264607  10.284  11.520   3.918  0.1528  0.1853 -1.8606
17628SOL     OW64608   7.791   1.376   8.966 -0.0193  0.2927 -0.5049
17628SOL    HW164609   7.790   1.282   8.982  1.4415  0.1123 -1.2885
17628SOL    HW264610   7.868   1.408   9.013 -0.0111  0.9508 -0.9449
17629SOL     OW64611  12.455  11.530   5.878 -0.0457 -0.2464  0.1519
17629SOL    HW164612  12.500  11.586   5.941 -0.1552  1.7286 -1.4152
17629SOL    HW264613  12.521  11.513   5.811  0.0388 -2.2155  0.6940
17630SOL     OW64614  10.316  13.150   5.984 -0.1759  0.0423 -0.8884
17630SOL    HW164615  10.248  13.152   6.050  0.1778  1.5603 -0.5291
17630SOL    HW264616  10.334  13.242   5.965  0.7270 -0.3458 -2.0596
17631SOL     OW64617   1.545  11.109   5.739 -0.8777  0.0881 -0.2831
17631SOL    HW164618   1.625  11.058   5.752 -0.4801  0.3579 -1.5639
17631SOL    HW264619   1.502  11.108   5.825 -0.6831 -2.0466 -0.1554
17632SOL     OW64620   3.153  12.722   7.616  0.1955 -0.2625 -0.5244
17632SOL    HW164621   3.191  12.640   7.583  0.1499 -0.1769 -0.7990
17632SOL    HW264622   3.221  12.759   7.672  0.2777 -0.4139 -0.5251
17633SOL     OW64623   6.253  10.430   1.764  0.3147 -0.1536 -0.2453
17633SOL    HW164624   6.221  10.429   1.854 -0.9736 -2.0072 -0.6496
17633SOL    HW264625   6.348  10.422   1.772  0.2896  0.5473  0.9503
17634SOL     OW64626  11.812   9.430  13.510  0.5294  0.1578 -1.0585
17634SOL    HW164627  11.798   9.455  13.418  0.0617 -2.2320 -1.6963
17634SOL    HW264628  11.880   9.491  13.541 -1.2037  2.8243 -2.1120
17635SOL     OW64629   4.412   9.924   4.149  0.6015  0.4422  0.0246
17635SOL    HW164630   4.461   9.966   4.078 -1.3862  1.2481 -0.9257
17635SOL    HW264631   4.452   9.837   4.157  0.7791  0.2742 -2.1956
17636SOL     OW64632   5.012  13.133   8.654 -0.5502  0.3302  0.4116
17636SOL    HW164633   4.937  13.147   8.597 -0.7867 -1.5621  0.1986
17636SOL    HW264634   4.987  13.058   8.709  0.2883  1.1048  1.9205
17637SOL     OW64635   7.187  12.650  12.534 -0.2756  0.6488 -0.1957
17637SOL    HW164636   7.169  12.731  12.582  0.2798  0.3904  0.4620
17637SOL    HW264637   7.282  12.644  12.533 -0.3292 -0.3065  0.2772
17638SOL     OW64638  10.707   2.400   6.459 -0.0098 -0.9856  0.0951
17638SOL    HW164639  10.618   2.393   6.425 -0.5032 -3.6253  1.6670
17638SOL    HW264640  10.762   2.373   6.386 -0.6358 -1.1397 -0.3337
17639SOL     OW64641   8.056  11.805   5.553  0.0051  0.9173 -0.5181
17639SOL    HW164642   8.100  11.720   5.547  0.3328  0.6793  2.9909
17639SOL    HW264643   8.127  11.869   5.550  0.0428  0.8838 -0.3573
17640SOL     OW64644   9.569  10.946  13.181 -0.2643  0.3026  0.3506
17640SOL    HW164645   9.641  10.911  13.129 -1.6861 -0.8140 -0.9844
17640SOL    HW264646   9.594  11.036  13.201  1.9167 -0.3387  0.8061
17641SOL     OW64647  10.299   8.308   3.407  0.5451  0.5290  0.3483
17641SOL    HW164648  10.378   8.362   3.412  0.6411  0.5263 -0.9425
17641SOL    HW264649  10.227   8.371   3.417  0.6875  0.6398  0.7108
17642SOL     OW64650   0.931   9.762   3.965 -0.1884 -0.2070  0.4194
17642SOL    HW164651   0.940   9.692   4.030 -0.2949 -1.4712 -0.8783
17642SOL    HW264652   1.020   9.797   3.956 -0.5021  1.4914  2.7627
17643SOL     OW64653  10.633   5.034   2.647 -0.1549 -0.3967  0.4647
17643SOL    HW164654  10.540   5.016   2.663 -0.2992  0.7527  0.9817
17643SOL    HW264655  10.679   4.977   2.709 -0.5576 -0.0307  1.1082
17644SOL     OW64656  12.010   4.385   5.578  0.2216  0.4281  0.2226
17644SOL    HW164657  12.037   4.319   5.515 -0.3182 -0.0482  0.4801
17644SOL    HW264658  11.961   4.449   5.526 -2.6833 -1.3736  0.5049
17645SOL     OW64659   8.360  12.287   7.075  0.9781  0.1064 -0.0246
17645SOL    HW164660   8.379  12.288   6.981  0.3387 -0.0268 -0.1578
17645SOL    HW264661   8.353  12.379   7.099 -3.9509  0.3161 -1.1896
17646SOL     OW64662  13.698   3.283   4.854  0.1223  0.4094 -0.3736
17646SOL    HW164663  13.786   3.295   4.890 -0.6046  0.6278  1.5037
17646SOL    HW264664  13.654   3.367   4.870 -1.0279 -0.3398  0.6553
17647SOL     OW64665   4.019   4.058   9.956  0.1731  0.3310  0.0435
17647SOL    HW164666   3.924   4.045   9.963  0.4054 -0.9468  1.2432
17647SOL    HW264667   4.053   3.974   9.926  1.2819 -0.6810  3.5635
17648SOL     OW64668   6.903   6.162  13.385 -0.1904  0.2465  0.1220
17648SOL    HW164669   6.977   6.218  13.360  2.1072 -2.5680  0.0528
17648SOL    HW264670   6.846   6.162  13.308  1.0931  0.4649 -0.8683
17649SOL     OW64671  12.030  13.228   3.476  0.3570 -0.4751  0.5618
17649SOL    HW164672  11.973  13.175   3.532 -1.0981 -0.6053 -0.9665
17649SOL    HW264673  11.980  13.308   3.459  0.5447 -0.6438 -0.9198
17650SOL     OW64674   3.734  12.052  10.430 -0.2174 -0.0959  0.1924
17650SOL    HW164675   3.811  12.102  10.458  0.1321 -0.1484 -0.6488
17650SOL    HW264676   3.764  11.961  10.427  0.6920  0.1719 -3.1946
17651SOL     OW64677   7.272   1.145   0.032 -0.1548  0.8292 -0.3395
17651SOL    HW164678   7.197   1.198   0.059 -0.0193  1.1667 -0.6194
17651SOL    HW264679   7.252   1.058   0.065 -1.1169  0.6957 -1.2290
17652SOL     OW64680   7.321  12.945   5.402  0.4757  0.7785  0.1354
17652SOL    HW164681   7.371  12.871   5.367 -0.4757  0.0180  0.3510
17652SOL    HW264682   7.283  12.987   5.325  0.2344  0.4624  0.0804
17653SOL     OW64683   1.124   6.734  11.388  0.5600 -0.0752  0.1007
17653SOL    HW164684   1.070   6.665  11.425  2.8420 -1.7271  0.5351
17653SOL    HW264685   1.124   6.803  11.455 -1.1239  0.0942 -0.0195
17654SOL     OW64686   6.352   7.698   9.111 -0.3163 -0.2215 -0.0106
17654SOL    HW164687   6.435   7.658   9.085  0.4148  1.0065  0.3636
17654SOL    HW264688   6.360   7.790   9.085 -0.7513  0.3627  1.7977
17655SOL     OW64689  13.437   9.161   4.783 -0.0968 -0.0360  0.4323
17655SOL    HW164690  13.496   9.110   4.727  1.1756 -0.7792  2.3153
17655SOL    HW264691  13.350   9.128   4.762  0.3405 -0.4024 -0.9513
17656SOL     OW64692   0.036   4.240  12.438 -0.0616 -0.1847 -0.2841
17656SOL    HW164693   0.046   4.157  12.392 -0.7897  0.7260 -2.1816
17656SOL    HW264694   0.125   4.261  12.468  0.6222 -0.4478 -2.0070
17657SOL     OW64695  10.350   1.451   2.731  0.2409 -0.5646 -0.0956
17657SOL    HW164696  10.435   1.449   2.775  0.5110 -0.7708 -0.6157
17657SOL    HW264697  10.295   1.505   2.787  0.7748 -0.2549  0.1395
17658SOL     OW64698   3.825   6.674  11.314 -0.1394 -0.5120  0.2412
17658SOL    HW164699   3.774   6.717  11.383 -3.1486 -0.8178 -1.6286
17658SOL    HW264700   3.916   6.691  11.338 -1.0809  1.2355  3.0915
17659SOL     OW64701  12.761   6.980   4.404  0.1573  0.3458 -0.6290
17659SOL    HW164702  12.741   7.039   4.477  1.0834 -0.5114  0.3528
17659SOL    HW264703  12.833   7.022   4.358  0.2347  0.4020 -0.4559
17660SOL     OW64704  11.614   5.205  11.524 -0.3409 -0.0103 -0.3316
17660SOL    HW164705  11.522   5.192  11.498 -0.1735  0.5128 -1.2232
17660SOL    HW264706  11.628   5.299  11.514  0.2660 -0.0745 -0.0826
17661SOL     OW64707   1.097   4.674   7.489 -0.1495  0.6721  0.5270
17661SOL    HW164708   1.140   4.599   7.448  0.3097  0.9415  0.5116
17661SOL    HW264709   1.034   4.704   7.424 -0.5369  0.1344  0.6405
17662SOL     OW64710  11.499  11.696   2.963 -0.2274 -0.3178 -0.1020
17662SOL    HW164711  11.495  11.658   2.876 -1.4309  1.8397 -1.0525
17662SOL    HW264712  11.423  11.754   2.969  2.2944  3.3531  0.4845
17663SOL     OW64713   5.080   7.774   8.961  0.0899 -0.9815  0.4452
17663SOL    HW164714   5.169   7.769   8.996  0.2858 -0.0864  0.0998
17663SOL    HW264715   5.092   7.771   8.866 -0.0961  0.9061  0.3250
17664SOL     OW64716  10.868  11.888   1.184  0.8839  0.1211  0.5064
17664SOL    HW164717  10.888  11.933   1.266  0.4915  1.0868  0.0858
17664SOL    HW264718  10.773  11.895   1.176  0.9617  0.3728 -0.2271
17665SOL     OW64719   6.108  11.262   9.319  0.5460  0.4422  0.0413
17665SOL    HW164720   6.141  11.311   9.244  1.5105 -0.9297 -0.4707
17665SOL    HW264721   6.172  11.279   9.389  1.1990 -0.4901 -0.3054
17666SOL     OW64722   3.888   3.461   8.325 -0.4295  0.2312  0.2579
17666SOL    HW164723   3.962   3.413   8.287 -1.3064  0.5229 -1.9560
17666SOL    HW264724   3.857   3.403   8.395  3.2876  1.1725  2.9920
17667SOL     OW64725  11.852  11.135   2.398  0.0012 -0.0920  0.1858
17667SOL    HW164726  11.783  11.201   2.392  0.0295 -0.1091 -0.3003
17667SOL    HW264727  11.838  11.094   2.484  0.1583  0.7346  0.6149
17668SOL     OW64728   1.079   7.481   9.427 -0.3311  0.3444 -0.4688
17668SOL    HW164729   1.156   7.519   9.385 -0.3270  1.0530  0.1664
17668SOL    HW264730   1.022   7.556   9.444  0.1720  0.2650  1.8523
17669SOL     OW64731   4.596   3.364  12.284 -0.6478 -0.0888  0.4883
17669SOL    HW164732   4.609   3.270  12.289 -1.3764 -0.1971  0.5740
17669SOL    HW264733   4.570   3.389  12.373 -0.2502  0.2239  0.5161
17670SOL     OW64734   7.981  11.920   8.151 -0.1753 -0.4257 -0.4897
17670SOL    HW164735   7.946  11.833   8.167 -0.1036 -0.7248 -1.8130
17670SOL    HW264736   7.904  11.977   8.150 -0.2438 -0.5043  0.1564
17671SOL     OW64737  10.743   1.718   0.759  0.5178 -0.5216 -0.2743
17671SOL    HW164738  10.710   1.807   0.750 -1.2935 -1.2698 -1.4831
17671SOL    HW264739  10.668   1.662   0.741  1.5610 -2.3186  0.6501
17672SOL     OW64740   4.493   7.813   1.833 -0.2399 -0.4614 -0.1824
17672SOL    HW164741   4.533   7.736   1.792  1.2301  0.8823 -1.4297
17672SOL    HW264742   4.413   7.828   1.783 -0.7641 -1.4037  0.3498
17673SOL     OW64743   5.189   6.919   5.804 -0.3204 -0.0652  0.3252
17673SOL    HW164744   5.111   6.973   5.808 -0.3842  0.1007 -2.0099
17673SOL    HW264745   5.186   6.877   5.718  1.0106 -1.8342  1.0654
17674SOL     OW64746   6.829  11.896   8.279 -0.2064 -0.4509  0.0380
17674SOL    HW164747   6.817  11.806   8.249 -2.0502 -0.8733  1.7665
17674SOL    HW264748   6.740  11.933   8.278  0.1155  0.4776  1.8214
17675SOL     OW64749  10.475   6.474   6.505  0.4088 -0.3879  0.1029
17675SOL    HW164750  10.416   6.508   6.438  0.0866  2.0991  1.5489
17675SOL    HW264751  10.554   6.450   6.456 -0.8588 -1.4896 -1.5219
17676SOL     OW64752   1.003   8.142   3.023 -0.3647 -0.9020  0.2172
17676SOL    HW164753   0.909   8.123   3.028 -0.1151 -1.7438  2.3015
17676SOL    HW264754   1.030   8.107   2.938 -1.4481 -3.0340  0.6899
17677SOL     OW64755   4.992  11.703   9.248 -0.0177  0.0756 -0.0200
17677SOL    HW164756   5.011  11.647   9.323  0.2466  0.4237  0.1749
17677SOL    HW264757   4.897  11.716   9.251  0.1794  1.6139  1.3604
17678SOL     OW64758  10.764   4.627   5.607 -0.2901  0.2223 -0.0241
17678SOL    HW164759  10.759   4.546   5.556  0.4670 -0.8648  1.5509
17678SOL    HW264760  10.750   4.599   5.697  2.2043  1.4888  0.8344
17679SOL     OW64761  12.935   4.131   2.951  0.4141  0.1660 -0.5338
17679SOL    HW164762  12.845   4.160   2.964  0.2135 -0.7714  0.1999
17679SOL    HW264763  12.988   4.202   2.988 -0.0333  0.3978 -0.3257
17680SOL     OW64764  12.454  12.993   9.609  0.2259  0.2702 -0.5189
17680SOL    HW164765  12.460  13.050   9.532 -1.2948 -0.6316 -1.3671
17680SOL    HW264766  12.511  12.919   9.589 -2.1027 -1.2636 -2.0666
17681SOL     OW64767   3.462   3.444   2.306 -0.0752 -0.2449  0.1653
17681SOL    HW164768   3.419   3.529   2.301 -0.8119 -0.6795 -2.6881
17681SOL    HW264769   3.438   3.410   2.392  0.8965  2.6868  1.7396
17682SOL     OW64770   2.564   6.900   7.725 -0.1938  0.2644 -0.2464
17682SOL    HW164771   2.561   6.878   7.819  0.6055  1.5874  0.1248
17682SOL    HW264772   2.516   6.983   7.719  0.2463  0.4777 -0.9052
17683SOL     OW64773   2.950   8.838   7.362  0.0197 -0.0630 -0.2635
17683SOL    HW164774   2.934   8.833   7.457  0.3417 -4.7537 -0.2417
17683SOL    HW264775   3.035   8.883   7.355 -0.1864  0.7440  1.5940
17684SOL     OW64776   8.858   8.501   5.139  0.3955 -0.6963  0.1675
17684SOL    HW164777   8.764   8.488   5.127 -0.8630  4.4391  2.0552
17684SOL    HW264778   8.876   8.468   5.227  0.0914 -0.6362  0.2521
17685SOL     OW64779   4.728  12.594   4.074  0.3776 -0.0158 -0.6297
17685SOL    HW164780   4.783  12.589   3.996 -0.2082  0.7796 -1.1086
17685SOL    HW264781   4.703  12.503   4.091  0.9657 -0.2603 -1.0330
17686SOL     OW64782   6.619   6.873   8.935  0.3934 -0.6905 -0.8190
17686SOL    HW164783   6.561   6.797   8.938  0.5741 -0.8119  1.8528
17686SOL    HW264784   6.706   6.836   8.924  0.4211 -0.8500 -0.1094
17687SOL     OW64785  12.919   4.205  11.315 -0.7140 -0.4734  0.7336
17687SOL    HW164786  12.898   4.151  11.239 -0.1477  0.7427 -0.3248
17687SOL    HW264787  13.010   4.186  11.334 -0.8440 -0.7467  1.0896
17688SOL     OW64788   2.260   1.575  12.797  0.1164  0.3083 -0.9078
17688SOL    HW164789   2.283   1.502  12.854 -1.6287  0.3091 -0.1487
17688SOL    HW264790   2.310   1.560  12.717  1.5174 -0.4699  0.0816
17689SOL     OW64791  12.237   4.607  13.041  0.0590 -0.0755  0.3315
17689SOL    HW164792  12.230   4.609  12.946 -0.3634  1.5248  0.3669
17689SOL    HW264793  12.294   4.680  13.063 -0.8592  0.3648  1.3632
17690SOL     OW64794   9.159   6.032   9.157 -0.4566 -0.0496  0.0775
17690SOL    HW164795   9.130   6.048   9.247  0.4149  0.2907  0.3108
17690SOL    HW264796   9.252   6.054   9.158 -0.7810  1.6441 -1.3007
17691SOL     OW64797  10.156   0.134   7.227  0.5887  0.6701  0.7373
17691SOL    HW164798  10.087   0.106   7.288 -0.9723 -0.5786 -1.4606
17691SOL    HW264799  10.234   0.089   7.258 -0.3461 -0.5835  1.3832
17692SOL     OW64800   3.197   5.473   6.617  0.2146  0.1171 -0.0683
17692SOL    HW164801   3.158   5.489   6.703  1.1944 -1.0763  0.6168
17692SOL    HW264802   3.157   5.539   6.560  1.4418  2.6786  1.8268
17693SOL     OW64803  13.700   2.750   5.208  0.0203  0.3558  0.9614
17693SOL    HW164804  13.775   2.756   5.149 -1.7003 -0.1224 -1.4631
17693SOL    HW264805  13.663   2.839   5.209 -0.5052  0.1547  0.4755
17694SOL     OW64806   4.474   1.744  10.325  0.2091  0.4330 -0.3860
17694SOL    HW164807   4.460   1.813  10.260 -1.4670  0.0988 -0.4280
17694SOL    HW264808   4.414   1.767  10.397  1.2689  0.2288  0.5869
17695SOL     OW64809   3.461  13.689   1.684  0.3107  0.5098 -0.1662
17695SOL    HW164810   3.423  13.696   1.772 -0.5812 -1.0504 -0.3920
17695SOL    HW264811   3.545  13.734   1.690  0.6383 -0.2789  1.7122
17696SOL     OW64812   4.473   9.903  11.695  0.1177  0.0023 -0.3176
17696SOL    HW164813   4.540   9.970  11.711  0.4746 -0.6124  0.8038
17696SOL    HW264814   4.516   9.820  11.714 -0.7619 -0.4537 -0.2500
17697SOL     OW64815   0.678   6.936   3.564 -0.2711 -0.6733  0.4159
17697SOL    HW164816   0.747   6.995   3.533 -0.2174 -0.7770  0.3371
17697SOL    HW264817   0.643   6.896   3.485  1.4258 -2.6881  0.5924
17698SOL     OW64818   0.695   1.806   5.683  0.2653 -0.5082 -0.0969
17698SOL    HW164819   0.789   1.788   5.696  0.7541  0.6384 -1.7386
17698SOL    HW264820   0.675   1.768   5.598 -0.8307 -0.8816  0.3081
17699SOL     OW64821   3.459  12.455   2.055  0.1166 -0.1792 -0.0406
17699SOL    HW164822   3.522  12.452   1.983 -1.6680 -1.2445 -1.6740
17699SOL    HW264823   3.423  12.543   2.051  0.1072 -0.1953 -0.3938
17700SOL     OW64824   2.392   9.958   0.315  0.5064  0.0197 -0.0959
17700SOL    HW164825   2.307   9.986   0.280  0.2362  0.9580  1.2219
17700SOL    HW264826   2.449   9.951   0.239 -0.5481  0.1383 -0.9177
17701SOL     OW64827   0.491   6.431   8.223 -0.7138  0.2194  0.3916
17701SOL    HW164828   0.554   6.360   8.240  1.2817  1.5938 -0.7703
17701SOL    HW264829   0.495   6.486   8.301  0.2775  0.8034 -0.0570
17702SOL     OW64830   7.528   9.751  11.285  0.3907 -0.0477  0.0766
17702SOL    HW164831   7.600   9.812  11.300  0.9004 -0.5027 -0.4608
17702SOL    HW264832   7.495   9.774  11.198 -2.2027  2.2344  1.4838
17703SOL     OW64833   9.340   9.976   3.755 -0.2910  0.2777 -0.0326
17703SOL    HW164834   9.381  10.062   3.753 -0.3037  0.2882  0.0917
17703SOL    HW264835   9.281   9.980   3.831  0.4729 -0.1815  0.6105
17704SOL     OW64836  10.084  10.577  13.669  0.5177  0.2075 -0.4684
17704SOL    HW164837  10.061  10.605  13.581  2.9973  1.6096 -0.7652
17704SOL    HW264838  10.053  10.647  13.726  1.6499  0.8272 -0.5919
17705SOL     OW64839   9.474   2.571  12.095 -0.0503  0.1966  0.3807
17705SOL    HW164840   9.475   2.491  12.043 -0.5120 -0.7019  1.7164
17705SOL    HW264841   9.529   2.632  12.045  0.6898 -1.0791 -0.4292
17706SOL     OW64842   0.249   8.501   3.193 -0.2564  0.0782 -0.3693
17706SOL    HW164843   0.340   8.495   3.223  0.0030  0.1372 -1.1075
17706SOL    HW264844   0.246   8.446   3.114 -0.8943 -0.0197 -0.2842
17707SOL     OW64845  11.262   0.022  10.160 -0.6508 -0.0442 -0.0521
17707SOL    HW164846  11.347  -0.021  10.153  0.8180  2.4886  0.7874
17707SOL    HW264847  11.256   0.078  10.083 -1.0255  0.6621  0.4772
17708SOL     OW64848   4.727   5.785  12.678 -0.1127 -0.5471  0.2685
17708SOL    HW164849   4.656   5.827  12.726 -1.9301 -1.6282 -1.3309
17708SOL    HW264850   4.701   5.693  12.672  0.0680 -0.5025 -2.5309
17709SOL     OW64851   6.771   0.567   1.021 -0.4107  0.2716  0.1649
17709SOL    HW164852   6.776   0.588   0.927 -1.4583  0.8877  0.2357
17709SOL    HW264853   6.732   0.480   1.024  2.5110 -1.1616 -0.0654
17710SOL     OW64854   4.415   9.235   7.387 -0.1198 -0.2254 -0.0833
17710SOL    HW164855   4.428   9.146   7.353 -1.7815 -0.0728 -1.2385
17710SOL    HW264856   4.326   9.234   7.422  0.2912  0.6521  1.0302
17711SOL     OW64857   3.441  11.291   8.737 -0.0696 -0.1233 -0.6344
17711SOL    HW164858   3.488  11.209   8.719  1.9559  1.1739 -1.5438
17711SOL    HW264859   3.350  11.271   8.717  0.7025 -1.5373 -3.1169
17712SOL     OW64860  12.692   0.255   6.497 -0.0430 -0.0709 -0.2861
17712SOL    HW164861  12.717   0.280   6.408  1.0263  1.1601  0.3309
17712SOL    HW264862  12.654   0.335   6.534  0.2014 -0.3572  0.6034
17713SOL     OW64863  12.651   4.791   1.521 -0.4050  0.3713 -0.6454
17713SOL    HW164864  12.710   4.718   1.542  1.6706  0.9412 -3.8005
17713SOL    HW264865  12.582   4.752   1.468 -0.9956  0.2672  0.1794
17714SOL     OW64866  12.133   3.805   5.297  0.0470  0.2947 -0.0186
17714SOL    HW164867  12.169   3.861   5.366  2.4360  0.4424 -1.2764
17714SOL    HW264868  12.056   3.852   5.265 -1.1356  0.2264  2.4649
17715SOL     OW64869   6.375   2.667   5.418  0.1127 -0.4166 -0.3187
17715SOL    HW164870   6.413   2.748   5.386 -0.9857  0.0349 -0.5382
17715SOL    HW264871   6.287   2.692   5.448 -1.3634 -1.9262 -2.9225
17716SOL     OW64872   3.818  11.927   9.456  0.3236 -0.1896 -0.3560
17716SOL    HW164873   3.761  11.871   9.402  0.7059 -0.4376 -0.5069
17716SOL    HW264874   3.857  11.988   9.394 -1.1148  1.1524 -0.0179
17717SOL     OW64875   4.493  11.519  12.486 -0.1257  0.6093  0.1261
17717SOL    HW164876   4.531  11.432  12.494  0.8564  0.9746 -0.4635
17717SOL    HW264877   4.461  11.523  12.396 -0.1672  0.8613  0.1506
17718SOL     OW64878  11.012   1.318   6.018 -0.4727  0.4547 -0.4389
17718SOL    HW164879  11.027   1.224   6.018  0.6507  0.5126 -3.3609
17718SOL    HW264880  10.924   1.328   5.981 -0.1734  0.5578 -1.1360
17719SOL     OW64881   7.107   9.813   6.264  0.4478 -0.0028 -0.4021
17719SOL    HW164882   7.040   9.848   6.205 -0.5306 -1.0257  0.0581
17719SOL    HW264883   7.069   9.731   6.297  1.7820 -0.4235  0.1522
17720SOL     OW64884   3.598   7.446  11.033  0.6229  0.4445  0.4396
17720SOL    HW164885   3.617   7.453  11.126  1.4695  1.2983  0.2219
17720SOL    HW264886   3.505   7.468  11.025  0.5694  0.4620  1.0671
17721SOL     OW64887  12.314   1.742   6.642 -0.0610 -0.4211 -0.2082
17721SOL    HW164888  12.318   1.646   6.639 -1.5986 -0.5240  0.1549
17721SOL    HW264889  12.398   1.770   6.606  1.3133 -1.9201  1.5798
17722SOL     OW64890   1.103  11.693  12.814  0.3433 -0.1224  0.4621
17722SOL    HW164891   1.076  11.655  12.897  0.6971 -1.3657  0.0371
17722SOL    HW264892   1.021  11.709  12.767 -0.0148  2.5291  1.7899
17723SOL     OW64893   6.686  11.448  11.809  0.0218  0.3250  0.2371
17723SOL    HW164894   6.594  11.465  11.832  0.1954  0.8531  0.5665
17723SOL    HW264895   6.695  11.480  11.720 -0.3238 -0.5123 -0.1119
17724SOL     OW64896   9.066  13.006   5.389 -0.3719 -0.2497  0.7146
17724SOL    HW164897   9.121  12.929   5.405 -0.0560  0.3084  2.5385
17724SOL    HW264898   8.982  12.985   5.431 -0.5971  0.0482  0.4208
17725SOL     OW64899   6.599   9.145   3.997 -0.4496 -0.1149 -0.2867
17725SOL    HW164900   6.606   9.217   4.059 -0.4690 -1.2275  1.0414
17725SOL    HW264901   6.664   9.081   4.026 -2.6853 -2.1141  0.6397
17726SOL     OW64902   5.098   5.135  11.319  0.3310 -0.2855 -0.6042
17726SOL    HW164903   5.109   5.220  11.277 -1.6345  0.2255 -0.1985
17726SOL    HW264904   5.055   5.081  11.253 -1.5253  0.1121  0.2100
17727SOL     OW64905  10.937   4.218   0.897  0.6780 -0.1636 -0.1185
17727SOL    HW164906  10.841   4.216   0.892  0.6822  1.2843 -1.7927
17727SOL    HW264907  10.963   4.127   0.888 -0.5647 -0.8891  2.6724
17728SOL     OW64908   2.627   7.892   3.234 -0.4797 -0.2211 -0.0994
17728SOL    HW164909   2.643   7.856   3.146 -1.6954 -0.6796 -0.1508
17728SOL    HW264910   2.654   7.984   3.227 -2.3812  0.2854 -1.5485
17729SOL     OW64911  12.813   7.100  10.935  0.0048  0.4425 -0.2021
17729SOL    HW164912  12.899   7.135  10.957 -0.1153  0.3391  0.4464
17729SOL    HW264913  12.793   7.038  11.005 -0.4060  0.1333 -0.5840
17730SOL     OW64914  11.385   0.746   6.533 -0.1721  0.4754  0.6574
17730SOL    HW164915  11.452   0.775   6.595  0.6438 -0.8026  0.4139
17730SOL    HW264916  11.350   0.666   6.573  0.1167 -0.1670 -0.3294
17731SOL     OW64917   2.874   0.695  13.303  0.0131  0.1655 -0.0317
17731SOL    HW164918   2.825   0.635  13.358  0.9345 -0.6188 -0.0274
17731SOL    HW264919   2.895   0.644  13.225 -0.3765  0.9289 -0.6466
17732SOL     OW64920   1.179  13.042   0.610  0.1924  0.1986  0.3934
17732SOL    HW164921   1.205  12.950   0.601 -1.1280 -0.2392  0.7126
17732SOL    HW264922   1.259  13.092   0.595  1.1360 -1.0386  1.1813
17733SOL     OW64923  13.257  13.162   2.361 -0.2610 -0.0797  0.6758
17733SOL    HW164924  13.188  13.116   2.313  0.4359  0.1320 -0.5701
17733SOL    HW264925  13.243  13.255   2.341 -1.0904  0.2166  2.4201
17734SOL     OW64926   3.052   1.048  13.099 -0.3875  0.0911  0.0834
17734SOL    HW164927   3.009   0.970  13.064  1.4279 -0.7092 -0.5072
17734SOL    HW264928   3.040   1.115  13.031 -0.9176 -0.0332  0.0527
17735SOL     OW64929   1.055   9.535   7.900 -0.2738  0.6054  0.1687
17735SOL    HW164930   0.970   9.515   7.939 -0.8099  0.9783 -0.7816
17735SOL    HW264931   1.035   9.585   7.821  0.7931  0.0582 -0.4747
17736SOL     OW64932   3.766   1.218   6.455 -0.5087 -0.2928 -0.0946
17736SOL    HW164933   3.827   1.147   6.478 -0.6113  0.0363  1.2255
17736SOL    HW264934   3.738   1.196   6.366  0.4200 -1.2348 -0.1838
17737SOL     OW64935   1.896   4.031   4.390  0.8961  0.1731 -0.3194
17737SOL    HW164936   1.915   4.120   4.419  0.2624  0.6499 -1.3125
17737SOL    HW264937   1.897   3.979   4.471  1.4164  1.0416  0.2542
17738SOL     OW64938   4.293   2.558   7.485  0.3991  0.5199 -0.2476
17738SOL    HW164939   4.295   2.653   7.489 -2.9871  0.6661  1.4701
17738SOL    HW264940   4.344   2.529   7.560 -1.4859  1.1906  1.3765
17739SOL     OW64941   8.150  11.946   8.524 -0.5363  0.8961 -0.2807
17739SOL    HW164942   8.070  11.895   8.534 -1.0704  1.3895 -1.7452
17739SOL    HW264943   8.121  12.037   8.524 -0.0445  1.0710 -1.1515
17740SOL     OW64944   6.695   0.285  13.694 -0.5735  0.5279 -0.4804
17740SOL    HW164945   6.639   0.215  13.728 -0.9357 -0.3750 -2.7257
17740SOL    HW264946   6.635   0.358  13.677 -0.3653  1.0411  0.8766
17741SOL     OW64947   9.113   1.427  13.223  0.1698  0.0860 -0.1650
17741SOL    HW164948   9.031   1.473  13.236  1.0015  1.3374  0.8891
17741SOL    HW264949   9.148   1.415  13.311  1.1352 -0.3987 -0.5983
17742SOL     OW64950   1.313   1.683   4.173 -0.2146  0.0973  0.0361
17742SOL    HW164951   1.300   1.666   4.080 -1.0208 -0.3709  0.2234
17742SOL    HW264952   1.243   1.744   4.197  1.0886  1.6996 -0.0522
17743SOL     OW64953   5.586   3.154   1.686  0.4511  0.7726 -0.1490
17743SOL    HW164954   5.670   3.153   1.733  0.1223  1.8577  0.4995
17743SOL    HW264955   5.600   3.096   1.612  1.1177 -0.6972  1.0632
17744SOL     OW64956   3.859   2.620   5.131 -0.3439  0.7673 -0.3291
17744SOL    HW164957   3.794   2.684   5.101 -3.1979 -1.7520  0.0152
17744SOL    HW264958   3.861   2.631   5.227 -0.8026  0.3911 -0.2741
17745SOL     OW64959   5.794   9.867   3.099  0.6451 -0.6145  0.0107
17745SOL    HW164960   5.806   9.776   3.074 -1.2625 -0.8414 -0.2933
17745SOL    HW264961   5.729   9.865   3.169  1.2622  0.4603  0.6491
17746SOL     OW64962  11.535   0.269   1.666  0.0776  0.4636 -0.2708
17746SOL    HW164963  11.489   0.198   1.710 -0.0500  0.6189 -0.1526
17746SOL    HW264964  11.536   0.243   1.574 -0.1443  0.4014 -0.2576
17747SOL     OW64965  13.291   1.209   7.202  0.1112  0.0729  0.5911
17747SOL    HW164966  13.251   1.202   7.115  0.1708 -0.9525  0.6268
17747SOL    HW264967  13.283   1.301   7.225 -0.2010  0.2999 -0.3640
17748SOL     OW64968  10.059  13.462   7.229 -0.2471  0.3489  0.5375
17748SOL    HW164969  10.145  13.486   7.195  0.6429 -1.0735  1.6494
17748SOL    HW264970  10.058  13.499   7.317 -0.4484 -0.3036  0.8108
17749SOL     OW64971  11.362  12.582   7.395  0.0029 -0.1595  0.3970
17749SOL    HW164972  11.394  12.560   7.307  0.5055 -0.0658  0.5583
17749SOL    HW264973  11.283  12.633   7.378 -0.4167 -0.9043  0.0070
17750SOL     OW64974   3.898  11.062   6.324  0.4273 -0.2906  0.6189
17750SOL    HW164975   3.951  10.989   6.292  0.4527  0.1248 -0.3463
17750SOL    HW264976   3.942  11.092   6.403  1.2781 -0.3684  0.1886
17751SOL     OW64977   7.029   6.046   6.114 -0.2850 -0.0474 -0.2232
17751SOL    HW164978   6.964   5.993   6.068 -0.0157 -0.2772 -0.3406
17751SOL    HW264979   7.037   6.125   6.061  1.2016 -0.9888 -1.4894
17752SOL     OW64980   8.337   0.203   5.179 -0.2481  0.5901 -0.1540
17752SOL    HW164981   8.363   0.282   5.227  0.0049 -0.0821  0.8560
17752SOL    HW264982   8.365   0.131   5.235 -1.6503 -0.2114 -0.4370
17753SOL     OW64983   2.234   6.852  11.064 -0.4468 -0.4539 -0.2303
17753SOL    HW164984   2.254   6.806  11.146  1.0496  0.2156 -0.1805
17753SOL    HW264985   2.154   6.901  11.083 -0.4096 -0.7247  0.6639
17754SOL     OW64986   6.405   2.222   5.345 -0.1776  0.4217  0.1000
17754SOL    HW164987   6.372   2.157   5.283 -2.8215  0.5632  1.2281
17754SOL    HW264988   6.445   2.170   5.415 -1.8987 -0.0611  0.7900
17755SOL     OW64989   8.095  12.631   8.716 -0.4885 -0.4185 -0.0290
17755SOL    HW164990   8.075  12.596   8.629  1.5452 -2.8488  0.3749
17755SOL    HW264991   8.112  12.724   8.701 -2.7322 -0.1880 -1.7346
17756SOL     OW64992   4.946  13.108  10.938 -0.0608  0.0395 -0.1512
17756SOL    HW164993   4.970  13.196  10.909  0.1795  0.3744  1.0143
17756SOL    HW264994   5.025  13.055  10.922  0.1173  0.2493  0.0249
17757SOL     OW64995   8.622  10.669  12.294 -0.1666  0.1760 -0.2112
17757SOL    HW164996   8.608  10.592  12.348  0.8626  0.7195  0.8538
17757SOL    HW264997   8.630  10.635  12.205  0.3383 -0.9468  0.2506
17758SOL     OW64998   2.419   1.103   4.656 -0.0356  0.1325 -0.1551
17758SOL    HW164999   2.395   1.167   4.589  0.1576 -0.6500 -0.9771
17758SOL    HW265000   2.377   1.136   4.736  0.7461  1.7300 -0.3763
17759SOL     OW65001   5.714   1.444   1.691 -0.3952  0.3928  0.1529
17759SOL    HW165002   5.686   1.500   1.618 -1.9876  0.3271  0.6754
17759SOL    HW265003   5.794   1.401   1.659 -0.8116  0.6890 -1.3836
17760SOL     OW65004   0.982   8.248  11.791  0.5509  0.6063 -0.1058
17760SOL    HW165005   0.935   8.330  11.777 -0.7525 -0.1132 -0.1383
17760SOL    HW265006   0.935   8.185  11.736  0.4680 -0.5086  1.1895
17761SOL     OW65007   5.962   4.369  11.121  0.3922 -0.1914 -0.0559
17761SOL    HW165008   6.003   4.283  11.128 -1.2860 -1.0341  0.0861
17761SOL    HW265009   5.880   4.360  11.171 -0.7442  0.8640 -1.6446
17762SOL     OW65010  13.329  10.699   3.185 -0.4015  0.0382 -0.5447
17762SOL    HW165011  13.317  10.776   3.242  0.0326 -2.1278  2.7197
17762SOL    HW265012  13.423  10.697   3.168 -0.2143 -0.4812  0.5002
17763SOL     OW65013  11.971   2.508   7.708 -0.7184 -0.0760 -0.2941
17763SOL    HW165014  11.996   2.532   7.619  0.0364  1.3789  0.2616
17763SOL    HW265015  11.943   2.417   7.703  0.0145 -0.2312 -1.8765
17764SOL     OW65016  11.588   8.881   7.474  0.5132  0.4778  0.1816
17764SOL    HW165017  11.599   8.922   7.561 -0.6239 -2.1645  1.6749
17764SOL    HW265018  11.616   8.790   7.487 -1.2953 -0.4182 -1.7835
17765SOL     OW65019  10.806   9.293   2.225 -0.2803 -1.0228 -0.6819
17765SOL    HW165020  10.843   9.336   2.148  1.1958 -1.6906 -0.3866
17765SOL    HW265021  10.715   9.321   2.227  0.2574  0.9553 -1.3110
17766SOL     OW65022  10.104   8.110   2.149 -0.0651 -1.0673 -0.4283
17766SOL    HW165023  10.178   8.055   2.125 -0.2065 -0.6442 -1.9359
17766SOL    HW265024  10.048   8.110   2.072 -1.0787 -0.4667  0.2819
17767SOL     OW65025   9.040  13.071   4.531 -0.1382  0.0323 -0.0242
17767SOL    HW165026   8.963  13.044   4.480  0.1949  0.5374 -0.8198
17767SOL    HW265027   9.045  13.166   4.518  1.1831 -0.1231 -0.7979
17768SOL     OW65028  11.001   6.108   0.928 -0.4404  0.0177 -0.3700
17768SOL    HW165029  11.040   6.042   0.985 -1.4713 -0.3569 -0.0808
17768SOL    HW265030  11.071   6.171   0.913  0.5731 -1.1625 -0.6974
17769SOL     OW65031  12.591   8.437   9.180  0.2808  0.1234  0.5378
17769SOL    HW165032  12.648   8.461   9.254  1.1440 -0.5332  0.1101
17769SOL    HW265033  12.626   8.487   9.107  0.2785 -0.2566  0.2779
17770SOL     OW65034   0.245  10.969   0.995 -0.7485 -0.2647  0.0721
17770SOL    HW165035   0.288  10.900   0.944 -0.9326 -0.0154 -0.4303
17770SOL    HW265036   0.219  11.034   0.930 -0.7272  0.1995  0.5236
17771SOL     OW65037   2.583   3.126  13.584  0.0272  0.1226 -0.1505
17771SOL    HW165038   2.606   3.113  13.676 -1.0996 -1.8097 -0.0796
17771SOL    HW265039   2.649   3.077  13.535  0.7417  1.3085 -0.4299
17772SOL     OW65040   0.459   4.386   0.013  0.3437  0.3067 -0.2778
17772SOL    HW165041   0.413   4.419   0.091 -0.0771  1.8843 -1.1509
17772SOL    HW265042   0.390   4.350  -0.043  0.4869  0.3275 -0.4679
17773SOL     OW65043   8.738   7.696   2.421  0.4417  0.5890 -1.2896
17773SOL    HW165044   8.679   7.662   2.487  2.6599 -1.6456 -0.2712
17773SOL    HW265045   8.743   7.627   2.355  1.2569  1.0637 -1.7493
17774SOL     OW65046   8.615   8.850   8.252  0.6964 -0.2499 -0.0578
17774SOL    HW165047   8.662   8.767   8.250  0.6961 -0.2427 -0.5693
17774SOL    HW265048   8.674   8.911   8.207  0.4317 -0.1134 -0.2192
17775SOL     OW65049   5.557   1.864  12.081  0.3124  0.3316  0.5103
17775SOL    HW165050   5.589   1.801  12.016 -0.6990 -0.8052  1.0711
17775SOL    HW265051   5.566   1.819  12.165 -1.9144  0.2669  0.7720
17776SOL     OW65052   3.029   5.353   1.866  0.6739 -0.4554  0.1146
17776SOL    HW165053   3.104   5.358   1.806 -1.0345  1.0174 -2.0742
17776SOL    HW265054   3.043   5.425   1.927  1.3292 -0.5693  0.1131
17777SOL     OW65055   9.589   4.327   9.115  0.0427 -0.3916  0.0617
17777SOL    HW165056   9.497   4.308   9.097  0.3285 -3.1969  1.0357
17777SOL    HW265057   9.627   4.350   9.030 -1.5562  1.0087 -0.3125
17778SOL     OW65058   8.830  12.334   0.108 -0.1515  0.2801  0.3355
17778SOL    HW165059   8.908  12.294   0.146 -0.7304  1.0302  2.4241
17778SOL    HW265060   8.837  12.427   0.131 -1.7815  0.3108  0.7877
17779SOL     OW65061   5.177   5.729   6.934  0.1388 -0.3736  0.1129
17779SOL    HW165062   5.256   5.675   6.931 -0.5266 -1.3099 -1.4444
17779SOL    HW265063   5.169   5.765   6.845 -0.1552  1.2604  0.7647
17780SOL     OW65064  12.321  10.012   2.119  0.1145 -0.3317 -0.1159
17780SOL    HW165065  12.255   9.950   2.088 -0.1571  0.3791 -1.0094
17780SOL    HW265066  12.380   9.959   2.172 -1.0751 -1.0196  0.5792
17781SOL     OW65067   9.585  10.262  12.492  0.0140 -0.1598  0.4842
17781SOL    HW165068   9.570  10.177  12.449 -0.3426 -0.0515  0.3900
17781SOL    HW265069   9.676  10.284  12.470 -0.4860  0.4282 -1.1953
17782SOL     OW65070  12.407   1.221  12.309 -0.1263 -0.2668 -0.3944
17782SOL    HW165071  12.469   1.191  12.243  0.6632  1.2347 -0.3834
17782SOL    HW265072  12.326   1.238  12.261  0.4573  0.8634 -0.9959
17783SOL     OW65073   6.954   2.923   8.882  0.2378  0.0894 -0.1231
17783SOL    HW165074   6.948   3.007   8.926 -0.1761 -0.5829  1.1600
17783SOL    HW265075   6.906   2.935   8.800  0.0071  1.0355  0.1414
17784SOL     OW65076   9.533  10.289   2.427  0.1164 -0.2999 -0.3174
17784SOL    HW165077   9.458  10.280   2.487 -0.3900  4.6800  0.2510
17784SOL    HW265078   9.604  10.320   2.483  0.2284  2.4517 -1.8041
17785SOL     OW65079  13.433  11.458  10.225  0.3550 -0.0014 -0.0401
17785SOL    HW165080  13.426  11.552  10.242 -2.3903 -0.2080  0.3105
17785SOL    HW265081  13.391  11.416  10.301  1.0809 -1.5124 -0.4296
17786SOL     OW65082  12.595   4.796   9.056 -0.0611  0.2537  0.4357
17786SOL    HW165083  12.643   4.744   9.120 -2.1656 -1.1897  0.9330
17786SOL    HW265084  12.634   4.774   8.972  1.2213  0.4205  0.9708
17787SOL     OW65085   1.852   8.452   0.209 -0.4046  0.4389 -0.1290
17787SOL    HW165086   1.936   8.411   0.228  0.4663  1.5615 -1.4036
17787SOL    HW265087   1.813   8.468   0.295  0.8976  0.3263  0.5020
17788SOL     OW65088   9.365  11.472   4.688 -0.4603 -0.0852 -0.6301
17788SOL    HW165089   9.344  11.445   4.778  0.3673  3.0112  0.6239
17788SOL    HW265090   9.401  11.394   4.647 -2.1131 -1.9691  1.2737
17789SOL     OW65091  12.761  11.988  12.151  0.5983  0.5372  0.2236
17789SOL    HW165092  12.759  12.082  12.166  0.6041  0.5890 -0.0830
17789SOL    HW265093  12.742  11.978  12.057 -0.0649  0.1924  0.3873
17790SOL     OW65094   5.248   7.989   4.636 -0.4611  0.1419  0.3093
17790SOL    HW165095   5.178   8.043   4.671  0.6369  1.6498  0.2558
17790SOL    HW265096   5.284   7.944   4.712  0.3090  1.5095  0.7834
17791SOL     OW65097   8.593   0.909   4.324  0.5199  0.2515 -0.1945
17791SOL    HW165098   8.679   0.901   4.366  0.2034  0.6436  0.5500
17791SOL    HW265099   8.613   0.918   4.231  1.3425  1.2474  0.0532
17792SOL     OW65100   6.640  13.352   6.181 -0.2589 -0.6350  0.4405
17792SOL    HW165101   6.647  13.258   6.194 -0.7016 -0.8691 -0.8540
17792SOL    HW265102   6.595  13.362   6.097 -1.1968  0.7304  1.0554
17793SOL     OW65103   6.390   8.749  11.124  0.3889  0.2662 -0.2953
17793SOL    HW165104   6.423   8.837  11.103  0.9580  0.5329  1.5583
17793SOL    HW265105   6.376   8.708  11.039  0.6032  1.9726 -1.1947
17794SOL     OW65106  13.415   1.548  11.036 -0.1368  0.4845 -0.0275
17794SOL    HW165107  13.379   1.610  11.099 -0.9808 -0.5406  0.5227
17794SOL    HW265108  13.363   1.563  10.956 -2.1043 -1.1773  0.8386
17795SOL     OW65109  10.266  13.020   8.178  0.4846 -0.0909  0.8804
17795SOL    HW165110  10.347  13.055   8.216  1.4886 -1.0425 -0.2922
17795SOL    HW265111  10.273  13.041   8.085 -0.5133 -0.4042  0.7262
17796SOL     OW65112   3.230   1.444   5.892  0.0466 -0.7140 -0.5123
17796SOL    HW165113   3.315   1.485   5.877 -0.0118 -0.4365 -0.1375
17796SOL    HW265114   3.222   1.441   5.988 -0.7636  0.1343 -0.5350
17797SOL     OW65115  10.987   9.101   3.199 -0.7150 -0.0220 -0.3058
17797SOL    HW165116  10.966   9.156   3.274 -0.2624  0.1585 -0.3103
17797SOL    HW265117  10.996   9.013   3.235  1.3748  0.3524  0.1773
17798SOL     OW65118   7.329  12.198   1.512  0.1755 -0.3990  0.2831
17798SOL    HW165119   7.374  12.152   1.583  0.5330 -1.0501 -0.3509
17798SOL    HW265120   7.392  12.199   1.440 -0.0633  0.5488  0.0783
17799SOL     OW65121   9.803   0.761   1.314 -0.3291 -0.1480  0.0089
17799SOL    HW165122   9.813   0.856   1.320  1.0697 -0.0967 -2.0054
17799SOL    HW265123   9.890   0.727   1.332 -0.8747 -1.0907  0.9537
17800SOL     OW65124   0.509   1.295   1.411 -0.3740 -0.4639 -0.9383
17800SOL    HW165125   0.510   1.357   1.339 -0.5803  1.2389  0.4555
17800SOL    HW265126   0.419   1.260   1.412 -0.3411 -0.5651 -1.5452
17801SOL     OW65127  10.578   0.022  10.776  0.4827 -0.7208  0.1965
17801SOL    HW165128  10.636   0.065  10.838  2.7932 -1.1224 -1.5846
17801SOL    HW265129  10.509   0.087  10.759  0.3573 -0.2201  2.2990
17802SOL     OW65130   4.693  11.562   7.748  0.3527  0.3628  0.2153
17802SOL    HW165131   4.743  11.637   7.714 -0.0539  0.5034 -0.0818
17802SOL    HW265132   4.606  11.597   7.764  0.1333 -0.0685 -0.0142
17803SOL     OW65133   3.717   6.729  11.637  0.3134 -0.0556 -0.0122
17803SOL    HW165134   3.786   6.663  11.630 -1.1264 -1.5830 -0.4535
17803SOL    HW265135   3.655   6.692  11.700 -1.5064 -0.0513 -1.7339
17804SOL     OW65136   3.657   3.208   5.720 -0.0946 -0.3532 -0.6025
17804SOL    HW165137   3.571   3.213   5.761 -0.4827 -0.2670 -1.4135
17804SOL    HW265138   3.718   3.238   5.787 -0.7042 -0.3380 -0.0543
17805SOL     OW65139   4.481   6.110  11.173 -0.1938 -0.1301  0.0010
17805SOL    HW165140   4.562   6.084  11.130  0.2979  0.6060  0.4482
17805SOL    HW265141   4.415   6.108  11.104  0.0531 -1.3946 -0.2261
17806SOL     OW65142   7.049   9.305   1.105 -0.3720  0.2830  0.3321
17806SOL    HW165143   7.056   9.364   1.181 -0.5613 -0.9911  1.3753
17806SOL    HW265144   7.134   9.263   1.099 -0.9522 -1.0642  1.0909
17807SOL     OW65145   6.032   5.005   9.114  0.1767  0.3636 -0.0212
17807SOL    HW165146   5.957   4.949   9.134  0.1176  0.5449  0.2698
17807SOL    HW265147   6.042   5.060   9.192  1.9904 -1.1610  0.9103
17808SOL     OW65148   0.229  12.961   1.326  0.3272 -0.3985  0.2218
17808SOL    HW165149   0.190  12.920   1.248  2.5172  1.2792 -1.9215
17808SOL    HW265150   0.298  12.900   1.353  0.7762 -0.1628 -0.3500
17809SOL     OW65151   4.554   1.002   0.500  0.1721 -0.2115  0.2456
17809SOL    HW165152   4.594   1.007   0.586 -0.2235  1.2885  0.3600
17809SOL    HW265153   4.469   1.044   0.510 -0.0649 -0.4119 -0.7753
17810SOL     OW65154  12.022  12.168   8.505 -0.0390 -0.1510  0.1989
17810SOL    HW165155  12.091  12.211   8.555 -0.2438 -2.0227  2.2291
17810SOL    HW265156  12.063  12.087   8.473 -0.5120  0.0544 -0.9936
17811SOL     OW65157   4.272   3.098   8.248  0.0321  0.8933 -0.2139
17811SOL    HW165158   4.325   3.018   8.252 -0.8918  0.2909  0.6084
17811SOL    HW265159   4.307   3.146   8.173  1.0523  0.0380 -0.3193
17812SOL     OW65160   4.335  12.473   0.880  0.0925  0.1017 -0.4019
17812SOL    HW165161   4.370  12.481   0.970 -0.7101  2.5508 -0.2286
17812SOL    HW265162   4.392  12.408   0.839  1.7487  0.3532  1.3045
17813SOL     OW65163  11.219  10.551   0.019  0.1220  0.1794  0.2660
17813SOL    HW165164  11.271  10.631   0.008  1.5520 -0.7884 -0.3581
17813SOL    HW265165  11.228  10.529   0.112  0.6964  0.1327  0.2058
17814SOL     OW65166   3.977   7.301  10.872 -0.6989 -0.4405  0.1328
17814SOL    HW165167   3.928   7.377  10.905  0.7931 -1.0011  4.0982
17814SOL    HW265168   3.952   7.229  10.929  0.3907 -2.1788 -1.4609
17815SOL     OW65169  12.685   8.638   8.383 -0.7075  0.1565 -0.1337
17815SOL    HW165170  12.680   8.544   8.364 -3.4930 -0.1340  1.4457
17815SOL    HW265171  12.760   8.646   8.443 -1.0516 -1.2575  0.5412
17816SOL     OW65172   3.219  13.564   6.770  0.2136 -0.1100  0.6595
17816SOL    HW165173   3.147  13.595   6.825  0.0417 -1.7185  1.4116
17816SOL    HW265174   3.179  13.498   6.712  0.6048  0.7834 -0.6739
17817SOL     OW65175   0.289  10.318  10.605 -0.2522 -0.2182  0.0437
17817SOL    HW165176   0.262  10.294  10.517 -2.5090 -0.1663  0.6751
17817SOL    HW265177   0.300  10.413  10.602 -1.4639 -0.0611  0.0698
17818SOL     OW65178  12.600  11.285   1.240 -0.0750  0.2114  0.0583
17818SOL    HW165179  12.668  11.258   1.178 -2.6763 -2.0349 -2.0710
17818SOL    HW265180  12.585  11.378   1.221  0.1438 -0.0918 -1.7980
17819SOL     OW65181  10.178  11.654  12.013  0.1178  0.3693 -0.5565
17819SOL    HW165182  10.234  11.724  12.046  1.4332 -0.5647 -0.7034
17819SOL    HW265183  10.165  11.596  12.088  0.8009 -0.3087 -0.9429
17820SOL     OW65184  10.309  13.177  12.857 -0.9574  0.1539 -0.0308
17820SOL    HW165185  10.330  13.194  12.765  0.1099  2.0583  0.5072
17820SOL    HW265186  10.221  13.141  12.855 -0.5002 -1.0348 -1.8725
17821SOL     OW65187   3.242   8.893   5.722  0.3715 -0.0010  0.4512
17821SOL    HW165188   3.321   8.849   5.752  0.4108 -0.4455 -0.2915
17821SOL    HW265189   3.179   8.881   5.794  0.4556 -1.0705  0.3600
17822SOL     OW65190   6.040   9.242   1.227  0.4290 -0.2766 -0.1482
17822SOL    HW165191   6.115   9.183   1.231  0.6920 -0.1566 -2.2745
17822SOL    HW265192   5.998   9.223   1.143 -2.0610 -0.4619  1.0550
17823SOL     OW65193   9.066  13.230   5.198  0.0977  0.1016  0.3507
17823SOL    HW165194   9.049  13.141   5.231  1.1502 -0.4045 -0.3935
17823SOL    HW265195   8.988  13.253   5.148  0.4480 -1.0561 -0.7677
17824SOL     OW65196   2.306   5.297  13.470 -0.3555 -0.0262  0.1763
17824SOL    HW165197   2.237   5.363  13.479 -0.5990 -0.0344 -1.2976
17824SOL    HW265198   2.386   5.342  13.499 -0.7576  0.4430  0.5662
17825SOL     OW65199   9.979  12.458   8.250  0.0933 -0.5977  0.1312
17825SOL    HW165200  10.031  12.466   8.330  1.6516 -1.7838 -0.7157
17825SOL    HW265201  10.024  12.514   8.187 -1.2024  0.4369  0.0842
17826SOL     OW65202   8.790  13.471   1.482  0.4255  0.0900 -0.1563
17826SOL    HW165203   8.788  13.518   1.398  2.5755 -1.7072 -1.2954
17826SOL    HW265204   8.881  13.445   1.493 -0.4045 -2.5844  1.0961
17827SOL     OW65205  13.728   5.586  13.063  0.0486  0.2163  0.2949
17827SOL    HW165206  13.756   5.648  12.996  1.7195  0.8553  1.4962
17827SOL    HW265207  13.702   5.508  13.015  1.3783  0.5748 -1.0946
17828SOL     OW65208  10.542   7.534   3.919 -0.8094 -0.5588  0.1415
17828SOL    HW165209  10.602   7.597   3.878 -1.6470  0.6153  0.6721
17828SOL    HW265210  10.583   7.514   4.003 -1.7481  1.2582  1.0863
17829SOL     OW65211   2.557   3.063   3.518  0.3605  0.4553  0.3549
17829SOL    HW165212   2.482   3.122   3.524  0.8914  1.5078 -1.9676
17829SOL    HW265213   2.527   2.990   3.464  1.2096  1.3931 -1.4847
17830SOL     OW65214   7.128   1.009   5.999 -0.6473 -0.2585  0.4214
17830SOL    HW165215   7.131   1.105   6.008 -1.9757  0.1050 -2.0025
17830SOL    HW265216   7.200   0.977   6.052  0.3003  2.1571  0.7128
17831SOL     OW65217   2.387   2.374   3.116 -0.7919 -0.0514 -0.2092
17831SOL    HW165218   2.412   2.366   3.024 -2.7882 -1.9879 -0.6682
17831SOL    HW265219   2.388   2.284   3.149  0.7107  0.6845  1.9609
17832SOL     OW65220  11.812  13.226   3.776 -0.1181  0.1684 -0.4013
17832SOL    HW165221  11.744  13.193   3.836 -0.0698  0.9646  0.1104
17832SOL    HW265222  11.851  13.147   3.739 -0.5502 -0.3304  0.1690
17833SOL     OW65223   2.518   8.313   4.951  0.4133 -0.3787  0.0464
17833SOL    HW165224   2.506   8.388   5.010  1.6150 -0.5572  0.5467
17833SOL    HW265225   2.504   8.349   4.863 -0.8221  0.0177  0.3873
17834SOL     OW65226   4.200   2.459   2.721  0.4817  0.0729 -0.2877
17834SOL    HW165227   4.291   2.431   2.712  0.8873  1.3168 -0.3307
17834SOL    HW265228   4.169   2.414   2.800  0.7131 -1.3599 -0.9803
17835SOL     OW65229   0.873  12.942   0.101 -0.0075 -0.3474  0.7960
17835SOL    HW165230   0.860  12.848   0.110 -3.9194  0.2099  2.9886
17835SOL    HW265231   0.890  12.973   0.190 -0.6692  1.1992  0.4269
17836SOL     OW65232  10.456   7.057  11.155 -0.0560 -0.4392 -0.0914
17836SOL    HW165233  10.458   7.153  11.152 -2.6966 -0.3181 -0.7227
17836SOL    HW265234  10.517   7.034  11.225 -1.3325  1.8821  1.9754
17837SOL     OW65235   1.295   9.740   9.482  0.4487 -0.0327  0.5978
17837SOL    HW165236   1.295   9.774   9.571  0.1004 -1.7447  1.2971
17837SOL    HW265237   1.218   9.683   9.477  1.4582 -1.4216 -0.1735
17838SOL     OW65238   2.008   6.663  12.204 -0.3686  0.6250 -0.0467
17838SOL    HW165239   1.980   6.633  12.291 -0.7173  0.2208 -0.2896
17838SOL    HW265240   1.984   6.755  12.202 -0.8633  0.5062  0.0889
17839SOL     OW65241  10.996   5.287  12.036  0.4006  0.0537 -0.3030
17839SOL    HW165242  11.019   5.198  12.063 -0.0931  0.2507  0.8472
17839SOL    HW265243  10.947   5.322  12.111 -1.6022  0.4403 -1.7084
17840SOL     OW65244   8.377  13.336   9.008 -0.0260  0.4428 -0.3860
17840SOL    HW165245   8.282  13.350   9.001  0.0096  0.4623 -0.8604
17840SOL    HW265246   8.413  13.378   8.930 -0.0342 -3.2738 -2.6598
17841SOL     OW65247   7.465   6.391   7.646 -0.3293  0.0008 -0.3405
17841SOL    HW165248   7.490   6.302   7.622 -1.6569 -0.4132 -0.2208
17841SOL    HW265249   7.483   6.397   7.740 -1.5753 -0.6224 -0.0467
17842SOL     OW65250  11.651  13.228  10.662 -0.3510  0.6695  0.6512
17842SOL    HW165251  11.710  13.247  10.590 -0.5434  0.2981  0.3927
17842SOL    HW265252  11.705  13.237  10.740 -0.2782  1.6126  0.5006
17843SOL     OW65253   8.980   5.476   0.399 -0.3346  0.0025  0.1412
17843SOL    HW165254   8.951   5.388   0.374 -1.3681  0.3276  0.1837
17843SOL    HW265255   9.065   5.486   0.354 -1.3351 -0.0764 -1.9059
17844SOL     OW65256   2.686   1.581   1.795  0.2285  0.4291  0.0734
17844SOL    HW165257   2.723   1.493   1.805 -0.3776  0.1152 -0.3896
17844SOL    HW265258   2.606   1.568   1.744  0.2226  1.2736 -0.1522
17845SOL     OW65259   2.416   6.028  11.568  0.2238 -0.0931 -0.0369
17845SOL    HW165260   2.383   5.997  11.653  0.7414  1.3934  0.7235
17845SOL    HW265261   2.336   6.045  11.517 -0.0875 -1.2426  0.0233
17846SOL     OW65262  12.668   6.430   8.270  0.3772 -0.2574  0.0846
17846SOL    HW165263  12.599   6.417   8.205  0.6201  0.4004 -0.3194
17846SOL    HW265264  12.628   6.407   8.354 -0.1701 -0.3909 -0.2118
17847SOL     OW65265   8.496   5.302   2.091  0.0315 -0.2486 -0.1967
17847SOL    HW165266   8.437   5.258   2.152  0.8702 -0.5554  0.4066
17847SOL    HW265267   8.527   5.379   2.139  1.1772 -0.8251  0.0005
17848SOL     OW65268   4.140   1.899   1.244  0.0024 -0.2672  0.2693
17848SOL    HW165269   4.188   1.944   1.314  0.9761 -2.1133  0.8466
17848SOL    HW265270   4.062   1.864   1.286 -1.2646  1.6107 -0.3895
17849SOL     OW65271   1.105  11.205   1.500 -0.6555  0.1886  0.1683
17849SOL    HW165272   1.056  11.173   1.576  0.1132  0.8519  0.9640
17849SOL    HW265273   1.113  11.129   1.442 -1.9825 -0.1074  0.3497
17850SOL     OW65274  12.855   9.661   9.493  0.7599 -0.1062 -0.0259
17850SOL    HW165275  12.785   9.596   9.483 -0.7392  1.2173  1.3379
17850SOL    HW265276  12.929   9.610   9.526 -0.4943 -1.1399  1.4052
17851SOL     OW65277   0.028  11.365   2.399  0.0223 -0.3024 -0.6491
17851SOL    HW165278   0.025  11.438   2.461 -1.5525 -0.0890 -0.9235
17851SOL    HW265279   0.018  11.407   2.313  2.5370 -0.5507 -1.1493
17852SOL     OW65280  10.090   1.373  11.619 -0.5882 -0.4814  0.4947
17852SOL    HW165281  10.011   1.427  11.620  0.8020  1.9745 -3.1008
17852SOL    HW265282  10.085   1.325  11.536  0.9993 -1.4373  0.9189
17853SOL     OW65283   0.331   3.375  10.704 -0.4928  0.3217  0.3747
17853SOL    HW165284   0.268   3.446  10.690 -2.6941 -1.1931  1.9000
17853SOL    HW265285   0.283   3.310  10.754  1.5810 -2.0689 -0.5275
17854SOL     OW65286   5.369  10.439   9.324  0.8590 -0.4549  0.1768
17854SOL    HW165287   5.348  10.345   9.330 -2.4954  0.1802  0.3055
17854SOL    HW265288   5.420  10.447   9.243 -0.8859 -2.1120 -1.1691
17855SOL     OW65289   3.318   3.075   5.433 -0.0721 -0.5086  0.4699
17855SOL    HW165290   3.285   3.106   5.517  0.4797 -0.9514  0.8486
17855SOL    HW265291   3.365   2.994   5.453  1.2749  0.1181 -0.0563
17856SOL     OW65292   6.922   0.738   6.651  0.0861  0.1763  0.4275
17856SOL    HW165293   7.015   0.750   6.671  0.0044  0.2793  0.7545
17856SOL    HW265294   6.910   0.643   6.649  0.0246  0.1585  1.2384
17857SOL     OW65295   3.623   2.034   2.356 -0.3256  0.0702  0.0429
17857SOL    HW165296   3.594   2.083   2.433  0.9256  3.5060 -1.4561
17857SOL    HW265297   3.656   2.101   2.296  2.0726 -2.7273 -2.0753
17858SOL     OW65298   3.874   8.009   8.904 -0.4116 -0.4015 -0.7419
17858SOL    HW165299   3.931   8.082   8.925 -1.3213  1.0625 -2.9769
17858SOL    HW265300   3.851   7.971   8.989  0.6127  1.4743  0.4408
17859SOL     OW65301  13.547   5.982   8.194  0.3175  0.2595 -0.1308
17859SOL    HW165302  13.519   6.069   8.165 -1.1650 -0.4142 -0.7972
17859SOL    HW265303  13.498   5.966   8.275  1.2011  0.3597  0.4401
17860SOL     OW65304   5.167  12.123   0.812  0.2791  0.2342 -0.5027
17860SOL    HW165305   5.203  12.105   0.899 -2.6779 -1.0106  0.5912
17860SOL    HW265306   5.123  12.207   0.821 -2.8943 -1.3532  0.3606
17861SOL     OW65307  10.339  13.429   3.860  0.6117 -0.2141  0.1664
17861SOL    HW165308  10.419  13.390   3.824  1.1293 -1.1126  2.1290
17861SOL    HW265309  10.268  13.379   3.820  1.0667 -0.1018 -0.8103
17862SOL     OW65310   1.264   7.106  13.172 -0.1892  0.5757  0.1455
17862SOL    HW165311   1.324   7.035  13.193 -0.3357 -0.2858 -2.0960
17862SOL    HW265312   1.306   7.153  13.100 -1.3387  1.0997 -0.2129
17863SOL     OW65313   9.178   6.844  12.798 -0.4367  0.2661 -0.3908
17863SOL    HW165314   9.195   6.898  12.721 -0.4017 -0.4048 -0.8555
17863SOL    HW265315   9.254   6.786  12.804  0.3532  1.3836  1.0931
17864SOL     OW65316  11.271  11.930   2.281 -0.1739  0.7254 -0.1197
17864SOL    HW165317  11.254  11.836   2.285  1.7795  0.3568  1.8466
17864SOL    HW265318  11.185  11.970   2.280 -1.0532 -1.0607 -0.4851
17865SOL     OW65319   2.031   6.008   1.265 -0.0650 -0.4078  0.0860
17865SOL    HW165320   2.067   5.963   1.342  0.5432  1.9267  1.2670
17865SOL    HW265321   1.955   5.955   1.240  0.4856 -1.9623  1.4723
17866SOL     OW65322  11.189   1.643   6.397  0.7291 -0.4117  0.2616
17866SOL    HW165323  11.266   1.587   6.386 -1.5417 -3.3118 -2.9302
17866SOL    HW265324  11.185   1.694   6.316 -1.2941 -1.1984 -0.1719
17867SOL     OW65325  11.330  12.892   4.655 -0.0889  0.5173 -0.1314
17867SOL    HW165326  11.424  12.883   4.642  0.0162  1.6822 -0.2377
17867SOL    HW265327  11.313  12.843   4.736  0.2014 -1.6440 -1.2870
17868SOL     OW65328  10.343  10.452   7.273  0.4038 -0.6355 -0.0274
17868SOL    HW165329  10.358  10.439   7.367  1.4541  0.1721 -0.0596
17868SOL    HW265330  10.276  10.521   7.269  3.4188  2.5642  0.2275
17869SOL     OW65331   8.235   3.439   3.905  0.7443 -0.7182 -0.0587
17869SOL    HW165332   8.268   3.441   3.995 -1.3546 -0.6073  0.7755
17869SOL    HW265333   8.193   3.524   3.893  0.1986 -1.0805 -0.8085
17870SOL     OW65334   8.221   6.553  10.829  0.8687  0.1000  0.0866
17870SOL    HW165335   8.200   6.537  10.737  0.1740  1.0978  0.0662
17870SOL    HW265336   8.138   6.575  10.870  0.9987 -1.2544  1.1781
17871SOL     OW65337   2.582  12.483   9.374  0.3287 -1.0265  0.1699
17871SOL    HW165338   2.532  12.461   9.295  0.7458  1.5419 -0.8974
17871SOL    HW265339   2.527  12.452   9.446 -1.6734 -0.4308 -1.0305
17872SOL     OW65340   0.512   3.251   2.320 -0.2051 -0.0572  0.0943
17872SOL    HW165341   0.573   3.249   2.394 -1.6631 -0.6186  1.3159
17872SOL    HW265342   0.429   3.278   2.358 -0.8796  0.1284 -1.4492
17873SOL     OW65343   5.309   1.169   8.434 -0.1688 -0.5636 -0.0161
17873SOL    HW165344   5.267   1.112   8.370  0.4346  0.9196 -1.7900
17873SOL    HW265345   5.403   1.156   8.421 -0.0297 -0.4327  0.7647
17874SOL     OW65346  12.890   1.939  12.306 -0.0730 -0.4046  0.3722
17874SOL    HW165347  12.903   1.990  12.386 -0.5170 -0.3651  0.4222
17874SOL    HW265348  12.796   1.945  12.289  0.1631  0.4750 -0.7506
17875SOL     OW65349   4.941   8.916  12.559  0.4434  0.0917 -0.3480
17875SOL    HW165350   4.947   8.854  12.487 -0.6757  0.3799 -0.7200
17875SOL    HW265351   4.917   8.863  12.635  0.8455 -0.1054 -0.3557
17876SOL     OW65352   5.733   6.737  11.489 -0.2219 -0.5881  1.0725
17876SOL    HW165353   5.676   6.742  11.412  2.3748 -0.8502 -1.0155
17876SOL    HW265354   5.678   6.765  11.561 -2.7106  0.0409 -0.9212
17877SOL     OW65355   6.532   1.903   1.379 -0.3802  0.3566  0.1712
17877SOL    HW165356   6.596   1.832   1.378  0.1185  0.7939  0.5545
17877SOL    HW265357   6.494   1.900   1.467  0.5179  1.3195  0.6202
17878SOL     OW65358   1.090   4.820  12.510  0.1250  0.1548  0.6137
17878SOL    HW165359   1.171   4.794  12.554 -0.0224 -2.2226 -0.3494
17878SOL    HW265360   1.107   4.908  12.478  2.4995 -0.4424  0.0689
17879SOL     OW65361   2.045  10.856  11.061  0.6200 -0.2152  0.0607
17879SOL    HW165362   2.091  10.933  11.096 -0.7914  1.4964 -1.6385
17879SOL    HW265363   2.092  10.834  10.981  0.6711 -0.8068  0.2449
17880SOL     OW65364   2.060   8.075   6.686  0.0695 -0.2754  0.5450
17880SOL    HW165365   2.090   8.105   6.600 -2.2418  1.3027  0.2233
17880SOL    HW265366   1.981   8.025   6.669 -0.5639  0.2581  1.7515
17881SOL     OW65367  13.087  12.157   8.774 -0.1544 -0.1483 -0.2656
17881SOL    HW165368  13.070  12.205   8.693 -2.1263  1.5668  1.0473
17881SOL    HW265369  13.054  12.069   8.758  2.2898 -0.8313 -2.2763
17882SOL     OW65370   5.339   5.780  12.674 -0.3282 -0.0046  0.3597
17882SOL    HW165371   5.310   5.866  12.704  0.3929  0.7777 -1.1123
17882SOL    HW265372   5.315   5.721  12.746 -1.9967  1.1949  0.8556
17883SOL     OW65373   8.330   6.318  11.069 -0.4616  0.3409  0.7589
17883SOL    HW165374   8.347   6.412  11.075 -0.6850  0.4711 -0.3985
17883SOL    HW265375   8.238   6.308  11.092 -0.2866  0.3187  1.4839
17884SOL     OW65376   2.101   4.920   3.385 -0.2676  0.2181  0.1538
17884SOL    HW165377   2.057   4.935   3.469  1.5568  1.6487  0.9206
17884SOL    HW265378   2.132   4.829   3.390  0.4988  0.5216  1.4005
17885SOL     OW65379   9.593   5.115  13.589  0.3777  0.4497  0.6601
17885SOL    HW165380   9.652   5.041  13.574  1.6315  1.6037 -0.2469
17885SOL    HW265381   9.617   5.148  13.675  1.8536  1.5727 -0.1358
17886SOL     OW65382   1.328  13.045   7.480  0.6080  0.0263 -0.1330
17886SOL    HW165383   1.255  13.074   7.533  1.5845  0.7804  0.8497
17886SOL    HW265384   1.322  12.949   7.479  0.3050  0.0310  0.9508
17887SOL     OW65385   6.532   1.681  13.439 -0.5912  0.1875  0.2461
17887SOL    HW165386   6.626   1.668  13.427 -0.7691  0.0239 -1.1576
17887SOL    HW265387   6.525   1.768  13.480  0.1122  1.2059 -1.6722
17888SOL     OW65388   2.404   5.638  12.772  0.6139 -0.2045 -0.2340
17888SOL    HW165389   2.497   5.644  12.748  0.5202  1.8158 -0.3042
17888SOL    HW265390   2.403   5.588  12.854  1.8017 -0.0137 -0.0865
17889SOL     OW65391  10.449   3.820   5.696  0.4973 -0.1650 -0.0434
17889SOL    HW165392  10.410   3.843   5.780 -0.3684 -0.2431 -0.4156
17889SOL    HW265393  10.419   3.730   5.680  0.8744 -0.2462 -0.3151
17890SOL     OW65394  12.765  12.190   5.427  0.0845  0.2967 -0.0484
17890SOL    HW165395  12.711  12.178   5.505  1.0124  1.6521  0.8575
17890SOL    HW265396  12.732  12.126   5.364 -0.9470 -0.5648  1.3163
17891SOL     OW65397   6.674   6.807   9.735  0.0352  0.3475  0.8492
17891SOL    HW165398   6.732   6.748   9.687 -0.7960 -1.3512  1.8568
17891SOL    HW265399   6.646   6.871   9.669  0.3902 -0.8014 -0.4735
17892SOL     OW65400  10.423  10.128   8.954 -0.1979  0.5771 -0.6221
17892SOL    HW165401  10.473  10.138   9.035 -0.2492  1.5968 -0.7105
17892SOL    HW265402  10.351  10.069   8.978  1.5031 -1.6989 -0.7241
17893SOL     OW65403   1.812   8.014   5.544 -0.3117 -0.4491 -0.2929
17893SOL    HW165404   1.833   8.079   5.477 -0.7510  0.2183  0.1973
17893SOL    HW265405   1.734   8.049   5.588 -0.0852 -0.9131  0.5075
17894SOL     OW65406  10.718   3.643   9.479 -0.5950 -0.3510 -0.1322
17894SOL    HW165407  10.663   3.568   9.500  0.0044 -0.6429  0.4091
17894SOL    HW265408  10.735   3.634   9.385 -1.3414 -0.3336 -0.2782
17895SOL     OW65409  12.024   2.387   7.946  0.1693 -0.1468  0.0247
17895SOL    HW165410  12.016   2.444   7.870  1.3884 -1.0302 -0.8104
17895SOL    HW265411  12.049   2.446   8.018 -2.7883  0.9855  0.2628
17896SOL     OW65412  13.414   8.446  11.841 -0.2612 -0.2471  0.2630
17896SOL    HW165413  13.492   8.448  11.786 -0.0876  1.5041  0.5254
17896SOL    HW265414  13.408   8.355  11.871  1.5394 -0.4653  0.0422
17897SOL     OW65415   4.645   4.402   7.952 -0.1820  0.3167 -0.5724
17897SOL    HW165416   4.582   4.395   8.024  0.9548 -1.3501  0.3215
17897SOL    HW265417   4.607   4.350   7.882  0.0361 -0.4203 -0.1499
17898SOL     OW65418   8.240   6.448  10.557 -0.6653 -0.1264 -0.1940
17898SOL    HW165419   8.202   6.497  10.485 -0.2683 -0.8508 -0.9199
17898SOL    HW265420   8.231   6.356  10.530  3.6378 -0.3683 -1.5735
17899SOL     OW65421   7.452   5.689   7.070 -0.0470 -0.3818 -0.7136
17899SOL    HW165422   7.473   5.782   7.085 -1.2835  0.1532 -1.9973
17899SOL    HW265423   7.413   5.660   7.152  2.0001 -0.3103  0.3359
17900SOL     OW65424   5.857   1.548  12.945 -0.1867  0.2300 -0.1646
17900SOL    HW165425   5.922   1.619  12.942  2.1783 -1.6696  1.4386
17900SOL    HW265426   5.781   1.587  12.988  0.9552  1.8464  0.5090
17901SOL     OW65427   9.316   0.755   1.498  0.5696  0.4959  0.4632
17901SOL    HW165428   9.369   0.756   1.419  1.0027 -0.4185  0.7205
17901SOL    HW265429   9.229   0.780   1.469  1.0214  1.5164 -0.0541
17902SOL     OW65430  12.298   3.105  12.747 -0.2853  0.4231 -0.3556
17902SOL    HW165431  12.313   3.031  12.688  1.7241  0.6934 -0.2537
17902SOL    HW265432  12.214   3.085  12.789 -0.9739 -0.5762 -2.0869
17903SOL     OW65433   7.089   3.724  10.036  0.5487 -0.5483  0.1839
17903SOL    HW165434   7.174   3.684  10.053  0.1508 -1.3356  0.3995
17903SOL    HW265435   7.082   3.724   9.940  0.5609 -0.9924  0.1796
17904SOL     OW65436   3.054   3.655   3.491  0.2997 -0.2037 -0.2956
17904SOL    HW165437   3.004   3.668   3.572  1.7453 -1.7286  0.9107
17904SOL    HW265438   3.121   3.723   3.493  1.1764 -1.0655  0.5172
17905SOL     OW65439  13.524   8.510   3.758  0.2998 -0.6621 -0.2368
17905SOL    HW165440  13.592   8.567   3.724  0.7778 -0.2375  1.3419
17905SOL    HW265441  13.442   8.554   3.733  0.5956 -0.8479 -1.5917
17906SOL     OW65442   2.466   3.672  11.208 -0.1643  0.5682  0.2409
17906SOL    HW165443   2.375   3.702  11.204  0.1032  1.6319  1.4564
17906SOL    HW265444   2.518   3.753  11.213  0.8189 -0.0300 -0.0388
17907SOL     OW65445   2.436   9.689   7.349  0.1295 -0.3603 -0.1055
17907SOL    HW165446   2.424   9.622   7.416 -1.8226  0.6337  0.6212
17907SOL    HW265447   2.410   9.646   7.268 -0.3459 -0.7168  0.2275
17908SOL     OW65448   3.238   0.057  11.970  0.0890  0.0869 -0.0687
17908SOL    HW165449   3.188   0.110  12.031  0.7416 -0.0373  0.5862
17908SOL    HW265450   3.322   0.042  12.014  0.9480  0.8175 -1.4061
17909SOL     OW65451  12.955   5.971   3.795 -0.4549 -0.4473 -0.2688
17909SOL    HW165452  12.941   5.965   3.700 -0.8814 -0.6532 -0.1959
17909SOL    HW265453  12.893   6.037   3.824  0.5967  0.5852 -0.3154
17910SOL     OW65454  13.538  11.920   9.587  0.0950  0.8837  0.3128
17910SOL    HW165455  13.552  11.971   9.508  0.5198  0.1134 -0.1150
17910SOL    HW265456  13.458  11.871   9.570 -0.8264  2.0435  1.0752
17911SOL     OW65457   2.624   2.284  10.588 -0.5483 -0.8030 -0.0566
17911SOL    HW165458   2.713   2.291  10.554 -0.6936  2.7846 -0.0101
17911SOL    HW265459   2.635   2.266  10.682 -0.0521 -3.5747 -0.5469
17912SOL     OW65460   5.795  13.180   3.720  0.3530 -0.1923  0.1714
17912SOL    HW165461   5.771  13.089   3.700  1.9158 -1.2602  2.5937
17912SOL    HW265462   5.750  13.199   3.802  0.4075  1.0790 -0.0724
17913SOL     OW65463   6.313   6.044   9.392 -0.0903  0.2638 -0.0535
17913SOL    HW165464   6.303   6.043   9.297 -1.2408 -0.3301  0.0619
17913SOL    HW265465   6.224   6.055   9.426  0.4638  2.0810  0.9532
17914SOL     OW65466   3.878   5.792   6.197 -0.1814 -0.7449 -0.0026
17914SOL    HW165467   3.842   5.807   6.285 -0.8945 -1.8679 -0.0749
17914SOL    HW265468   3.956   5.739   6.212  1.4249  1.5091  0.1362
17915SOL     OW65469   6.879   3.280   1.276 -0.5022  0.2871 -0.4541
17915SOL    HW165470   6.849   3.275   1.185 -1.2380 -1.0790 -0.1619
17915SOL    HW265471   6.889   3.374   1.293  1.7104  0.5520 -2.5770
17916SOL     OW65472   3.791   6.352   8.049 -0.3101  0.1675 -0.4832
17916SOL    HW165473   3.821   6.275   7.999  1.1278  0.2405  0.2185
17916SOL    HW265474   3.860   6.417   8.037 -1.5849  1.4477 -1.1962
17917SOL     OW65475   3.969   1.002   5.632 -0.5788  0.3429 -0.2843
17917SOL    HW165476   3.908   0.930   5.618  0.6103 -1.1467  1.7417
17917SOL    HW265477   4.021   1.006   5.551 -0.9949 -0.7467 -0.6116
17918SOL     OW65478   9.430   8.497   3.395  0.4462  0.0169  0.2651
17918SOL    HW165479   9.366   8.488   3.466  0.3633 -0.0763  0.1794
17918SOL    HW265480   9.408   8.581   3.354 -0.5096 -0.6283 -0.6283
17919SOL     OW65481   9.753   2.817   5.329  0.3178  0.2612  0.0158
17919SOL    HW165482   9.823   2.768   5.285  0.4907 -0.0408  0.6265
17919SOL    HW265483   9.724   2.880   5.263 -0.3802 -1.0995 -1.0498
17920SOL     OW65484   2.528  11.968   5.255  0.1890 -0.0621 -0.2799
17920SOL    HW165485   2.602  12.028   5.265 -0.4471  0.6711  0.1231
17920SOL    HW265486   2.488  11.993   5.172 -0.3308  0.3669  0.0932
17921SOL     OW65487  10.457   0.758   7.433 -0.1703  0.0506  0.5032
17921SOL    HW165488  10.419   0.699   7.498 -0.0722 -1.9200 -1.1336
17921SOL    HW265489  10.385   0.778   7.374  0.1463  0.4298  0.2399
17922SOL     OW65490   2.339  11.499   6.593 -0.8105 -0.6035  0.0203
17922SOL    HW165491   2.280  11.473   6.664 -1.0650 -0.7176 -0.2287
17922SOL    HW265492   2.424  11.466   6.620 -1.1242 -1.7059 -0.2769
17923SOL     OW65493  12.948   0.765   3.971  0.4659  0.4110  0.7404
17923SOL    HW165494  12.980   0.776   3.882  0.3811 -0.1671  0.6329
17923SOL    HW265495  12.903   0.847   3.992 -0.7879  0.0109 -0.2791
17924SOL     OW65496   7.249   9.541  13.548  0.0084  0.4513 -0.3196
17924SOL    HW165497   7.308   9.550  13.473 -0.8837  0.3399 -1.0486
17924SOL    HW265498   7.217   9.451  13.544 -1.2675  0.8980 -0.7583
17925SOL     OW65499   6.499  11.265   1.428 -0.3229  0.0470 -0.4008
17925SOL    HW165500   6.480  11.313   1.509  0.6283  0.2401 -0.2852
17925SOL    HW265501   6.452  11.313   1.360  0.9928  1.4614 -0.3673
17926SOL     OW65502  13.673   7.439  11.078 -0.2368  0.3499 -0.0078
17926SOL    HW165503  13.708   7.398  10.999  2.1402  0.3922  0.9265
17926SOL    HW265504  13.630   7.368  11.126 -0.7891  0.1087 -0.8528
17927SOL     OW65505  13.406  11.261   6.358  0.0102  0.2149 -0.1594
17927SOL    HW165506  13.493  11.278   6.323 -0.7193  0.3005 -2.0229
17927SOL    HW265507  13.404  11.166   6.374  1.0762  0.4695  1.8173
17928SOL     OW65508   8.725   5.229   7.694  0.1982  0.6852  0.1789
17928SOL    HW165509   8.790   5.298   7.709  1.6379 -0.9210  1.7643
17928SOL    HW265510   8.770   5.165   7.639  0.3457 -0.9105  2.0772
17929SOL     OW65511  11.850   0.333   1.014  0.8886  0.0439  0.2547
17929SOL    HW165512  11.810   0.371   0.936 -0.6043  1.9263  1.8381
17929SOL    HW265513  11.842   0.239   1.001 -0.5919  0.3261 -1.2312
17930SOL     OW65514   7.619  11.518   1.917  0.0554  0.0170 -0.3476
17930SOL    HW165515   7.636  11.453   1.849 -0.2576 -0.5375  0.0997
17930SOL    HW265516   7.619  11.469   1.999  1.1825  0.7950  0.1475
17931SOL     OW65517  11.936  11.951  10.047 -0.0673 -0.1038  0.1391
17931SOL    HW165518  11.942  11.856  10.055 -1.9317 -0.2309  0.2819
17931SOL    HW265519  11.939  11.983  10.137  0.8376  0.0127  0.0787
17932SOL     OW65520   7.588   7.339  11.087 -0.2269  0.1002 -0.2047
17932SOL    HW165521   7.535   7.369  11.162  0.2206 -3.2627  1.6399
17932SOL    HW265522   7.674   7.320  11.125  0.3494 -0.6888 -1.8320
17933SOL     OW65523   8.070   9.475  11.325 -0.2768 -0.2302  0.3855
17933SOL    HW165524   8.123   9.400  11.297  1.7088  0.2714  2.5129
17933SOL    HW265525   8.019   9.441  11.398 -0.1630  0.2211  0.6765
17934SOL     OW65526   8.938   8.819  10.186 -0.1221  0.3257 -0.0710
17934SOL    HW165527   8.955   8.730  10.217  0.0331  0.0086 -1.0062
17934SOL    HW265528   8.855   8.812  10.139 -1.9240  1.4268  2.7071
17935SOL     OW65529  13.605   9.462   5.380 -0.3007  0.0862 -0.3681
17935SOL    HW165530  13.563   9.533   5.427 -1.4854 -0.9172  0.1460
17935SOL    HW265531  13.613   9.391   5.444 -1.9632 -1.3083 -1.6233
17936SOL     OW65532  12.732  12.903   6.783 -0.5084  0.9595  0.2972
17936SOL    HW165533  12.682  12.878   6.704 -1.3051  2.2387  0.3643
17936SOL    HW265534  12.774  12.986   6.759  1.1127  0.2209  0.4688
17937SOL     OW65535  12.765  10.016   0.618  0.0913  0.1202  0.3780
17937SOL    HW165536  12.710   9.966   0.678  0.6600  1.3331  1.9771
17937SOL    HW265537  12.807   9.951   0.563 -0.9799 -0.9869  0.8225
17938SOL     OW65538   2.117   0.677   7.470  0.2675  0.1023 -0.0813
17938SOL    HW165539   2.147   0.746   7.411  1.2194  1.9490  2.3421
17938SOL    HW265540   2.196   0.652   7.519 -0.4352 -1.4166  0.3290
17939SOL     OW65541   7.666   0.555  11.319 -0.5752  0.6446 -0.0998
17939SOL    HW165542   7.729   0.524  11.384 -0.6898 -0.2193 -0.3837
17939SOL    HW265543   7.653   0.480  11.261 -0.3995  1.4278 -1.1819
17940SOL     OW65544   1.586   9.504   3.455 -0.6452 -0.1093  0.1290
17940SOL    HW165545   1.628   9.590   3.453 -1.5639  0.3490 -0.2183
17940SOL    HW265546   1.633   9.456   3.523 -0.6948  0.9748  0.9611
17941SOL     OW65547   7.036  11.879   1.929 -0.1593 -0.6212 -0.2469
17941SOL    HW165548   6.974  11.903   1.860 -0.9332 -0.4505  0.4817
17941SOL    HW265549   7.055  11.962   1.974  0.7424 -0.6439 -0.5693
17942SOL     OW65550   9.758   9.996   5.269  0.0398 -0.3787 -0.5646
17942SOL    HW165551   9.816   9.925   5.296  2.6420  1.2089 -1.6185
17942SOL    HW265552   9.791  10.073   5.316 -2.6023  0.2596  0.4291
17943SOL     OW65553   3.095   7.052  10.173 -0.2689 -0.3327 -0.6586
17943SOL    HW165554   3.184   7.086  10.162  0.1633 -1.4514 -0.7412
17943SOL    HW265555   3.064   7.036  10.084  0.2674 -1.9417 -0.5930
17944SOL     OW65556   0.659   2.974   4.756 -0.1891  0.6214 -0.0828
17944SOL    HW165557   0.670   2.882   4.779 -0.5975  0.0302 -2.0716
17944SOL    HW265558   0.614   3.012   4.831  0.4240 -0.6639  0.9842
17945SOL     OW65559   7.780  12.472   6.674  0.2625  0.0132  0.1960
17945SOL    HW165560   7.755  12.519   6.754  2.3510 -2.0655  2.2178
17945SOL    HW265561   7.874  12.460   6.681  0.0952 -2.8244 -1.0781
17946SOL     OW65562   6.745   2.264  13.669  0.2259 -0.2395 -0.3905
17946SOL    HW165563   6.703   2.206  13.733  1.4265 -1.9130 -1.0337
17946SOL    HW265564   6.676   2.323  13.640 -1.0615 -1.3634  0.2951
17947SOL     OW65565  11.546   8.512   7.626 -0.1911  0.1603 -0.2474
17947SOL    HW165566  11.499   8.471   7.553 -1.6753 -0.1578  0.8414
17947SOL    HW265567  11.482   8.516   7.697  1.1883  0.5411  1.0291
17948SOL     OW65568   1.090   7.972   2.099  0.1191  0.0625  0.2553
17948SOL    HW165569   1.143   7.987   2.021 -0.0154 -1.0415 -0.0628
17948SOL    HW265570   1.011   7.928   2.067 -0.2271  0.1590  0.9369
17949SOL     OW65571   5.583   9.911   2.931 -0.8452 -0.4035  0.0686
17949SOL    HW165572   5.663   9.917   2.984 -1.2013  1.5692  0.4435
17949SOL    HW265573   5.534   9.838   2.970 -0.1286 -0.3483  1.0994
17950SOL     OW65574  11.757   8.739   2.362  0.3415  0.5058  0.3038
17950SOL    HW165575  11.754   8.833   2.378  0.8105  0.4781  0.5632
17950SOL    HW265576  11.681   8.722   2.307  1.3183  1.3402 -1.3632
17951SOL     OW65577   7.624   5.547   7.841  0.0607 -0.6475  0.2056
17951SOL    HW165578   7.539   5.510   7.865 -0.4931 -0.0210 -0.7293
17951SOL    HW265579   7.615   5.640   7.857  1.2794 -0.7970  2.0615
17952SOL     OW65580   7.973   9.526   8.284  0.1811  0.0800  0.0231
17952SOL    HW165581   7.944   9.435   8.271 -0.7481  0.5417 -1.5121
17952SOL    HW265582   7.922   9.557   8.359 -3.7925  0.9260 -2.7187
17953SOL     OW65583   7.159   9.607   4.099  0.3667 -0.5511  0.2835
17953SOL    HW165584   7.188   9.518   4.116 -0.7456 -0.8486  0.7160
17953SOL    HW265585   7.065   9.599   4.080  0.5829  0.3310 -1.3505
17954SOL     OW65586   6.358   4.387   9.861 -0.2171  0.2437 -0.2940
17954SOL    HW165587   6.422   4.328   9.900  0.7989  1.3362 -0.2346
17954SOL    HW265588   6.342   4.453   9.929 -0.9552  0.3150 -0.5279
17955SOL     OW65589  10.207   6.563  11.327 -0.4436 -0.4599 -0.1756
17955SOL    HW165590  10.268   6.492  11.345  0.7271 -0.1329 -2.4610
17955SOL    HW265591  10.244   6.638  11.374  0.1017 -0.6098 -0.3614
17956SOL     OW65592   5.510  11.929  11.328 -0.6286 -0.0196 -0.1346
17956SOL    HW165593   5.523  12.023  11.343 -0.9131  0.0559 -0.3564
17956SOL    HW265594   5.423  11.923  11.288 -0.2271 -0.3022 -0.9705
17957SOL     OW65595   8.035   9.400   3.591  0.1674  0.0409 -0.6500
17957SOL    HW165596   7.976   9.387   3.666  0.3275 -1.0242 -0.6854
17957SOL    HW265597   8.083   9.480   3.611 -0.2858  0.1426  0.0602
17958SOL     OW65598   7.337  11.096  13.201 -0.3883 -0.0900 -0.5453
17958SOL    HW165599   7.279  11.144  13.142 -2.4649 -0.2819  1.1832
17958SOL    HW265600   7.330  11.005  13.172  1.4918  0.2293 -2.1939
17959SOL     OW65601   3.901   1.877   0.238 -0.6014  0.1130  0.8812
17959SOL    HW165602   3.994   1.899   0.243 -0.3076 -1.1176  1.1650
17959SOL    HW265603   3.860   1.955   0.201  0.3337  1.2064  2.0657
17960SOL     OW65604   4.037  10.411   8.053 -0.1153  0.3596 -0.5517
17960SOL    HW165605   4.021  10.377   8.142 -0.9286 -0.2682 -0.9230
17960SOL    HW265606   4.128  10.390   8.035 -0.0625  0.1188 -0.0252
17961SOL     OW65607   5.010  10.224  11.747  0.4198 -0.2236 -0.2822
17961SOL    HW165608   5.006  10.144  11.695 -0.4370 -0.9136  0.8157
17961SOL    HW265609   5.024  10.294  11.682 -0.4733 -1.0734 -1.4355
17962SOL     OW65610   9.401  13.476   2.291  0.0948  0.5513 -0.1106
17962SOL    HW165611   9.418  13.530   2.214 -0.4027  0.8606 -0.0097
17962SOL    HW265612   9.441  13.391   2.270 -0.4971  0.4590 -0.9372
17963SOL     OW65613   9.291  12.511   8.440 -0.1636  0.2495 -0.5066
17963SOL    HW165614   9.226  12.578   8.460  0.5954  0.7978  0.2049
17963SOL    HW265615   9.266  12.436   8.494  1.5257  1.5158  2.2943
17964SOL     OW65616   2.298   9.202  12.192 -0.1128  0.2615  0.2582
17964SOL    HW165617   2.322   9.227  12.103 -0.6851 -0.5363 -0.1351
17964SOL    HW265618   2.365   9.139  12.218 -0.4854 -0.2405  0.0182
17965SOL     OW65619   9.434  13.685   0.491 -0.9075 -0.5256  0.3193
17965SOL    HW165620   9.471  13.655   0.573 -1.7506 -1.7115  0.2845
17965SOL    HW265621   9.510  13.697   0.433 -0.2865  0.5665  1.3195
17966SOL     OW65622  11.637   6.531  11.967 -0.3189 -0.1601  0.0550
17966SOL    HW165623  11.622   6.572  11.882  1.2283  0.8138  0.2175
17966SOL    HW265624  11.652   6.604  12.027  3.6670 -0.8193  0.1345
17967SOL     OW65625  11.361   1.715   8.559 -0.0406  0.3065  0.0680
17967SOL    HW165626  11.425   1.752   8.498  1.1979  0.6732  1.5285
17967SOL    HW265627  11.340   1.629   8.523 -0.6249  1.1546 -1.7380
17968SOL     OW65628  10.205  13.620  10.743 -0.7085  0.0766 -0.5460
17968SOL    HW165629  10.241  13.697  10.699  1.2356 -0.9823 -0.9340
17968SOL    HW265630  10.268  13.601  10.813 -1.4409 -0.8525 -0.1250
17969SOL     OW65631  11.611   2.455  13.109 -0.2491  0.1298  0.3093
17969SOL    HW165632  11.564   2.446  13.027 -0.0735  2.2214 -0.0689
17969SOL    HW265633  11.672   2.381  13.110 -1.3730 -0.8407 -0.6506
17970SOL     OW65634   1.375   4.704   8.269  0.1458  0.0772  0.0583
17970SOL    HW165635   1.420   4.645   8.330 -1.5441 -0.3102  0.9952
17970SOL    HW265636   1.445   4.743   8.218  1.4825 -1.0749  0.9247
17971SOL     OW65637   2.308   9.422   8.563 -1.0038 -0.4962  0.4488
17971SOL    HW165638   2.222   9.387   8.587 -0.9188 -1.2545 -0.3188
17971SOL    HW265639   2.303   9.515   8.585 -1.8842 -0.6131  0.7700
17972SOL     OW65640   3.349   6.012   9.551 -0.1648  0.4744  0.5742
17972SOL    HW165641   3.432   5.965   9.556  0.5373  1.5550 -0.4917
17972SOL    HW265642   3.355   6.064   9.471 -2.0515  0.2488  0.2272
17973SOL     OW65643   7.611   5.467   0.904  0.0873  0.3237  0.0506
17973SOL    HW165644   7.527   5.438   0.869 -0.2444  0.3910  0.7741
17973SOL    HW265645   7.630   5.406   0.975  0.8762  0.0356 -0.3983
17974SOL     OW65646  10.607   2.471   8.360  0.3281  0.1340  0.0988
17974SOL    HW165647  10.596   2.434   8.272 -1.3607  1.8313 -0.4766
17974SOL    HW265648  10.648   2.556   8.344  0.0938  0.4134  0.9659
17975SOL     OW65649   7.015   8.913   6.106  0.1726  0.0512 -0.5041
17975SOL    HW165650   7.098   8.962   6.112 -0.4611  1.0873  0.1845
17975SOL    HW265651   7.028   8.837   6.163 -0.1620  1.4878  1.6217
17976SOL     OW65652   8.691   8.773  10.577  0.0730 -0.2303 -0.1701
17976SOL    HW165653   8.769   8.726  10.549 -0.3440 -1.5466  0.7834
17976SOL    HW265654   8.698   8.776  10.672 -0.5990  0.4463 -0.1316
17977SOL     OW65655   8.424   1.667   5.660  0.0398 -0.3787  0.0009
17977SOL    HW165656   8.434   1.587   5.609  0.2496 -0.2982 -0.0832
17977SOL    HW265657   8.453   1.737   5.602 -1.4590 -0.0707 -0.4322
17978SOL     OW65658   4.534   5.051  11.954 -0.0781 -0.3704  0.2348
17978SOL    HW165659   4.528   4.955  11.959  1.0742 -0.4052  1.2329
17978SOL    HW265660   4.625   5.071  11.974 -0.5831  1.0264  1.2682
17979SOL     OW65661   9.573   4.824   7.020 -0.7861  0.0129 -0.1326
17979SOL    HW165662   9.607   4.889   7.082  0.6455 -1.0256  0.2269
17979SOL    HW265663   9.584   4.740   7.065 -1.2842 -0.6089 -1.1430
17980SOL     OW65664   4.381   9.054  10.846 -0.8728  0.5458  0.5032
17980SOL    HW165665   4.338   9.139  10.853 -3.0179 -0.3409 -0.6997
17980SOL    HW265666   4.388   9.039  10.752  2.3699  0.6866  0.6271
17981SOL     OW65667   0.238  10.179   9.022 -0.3824  0.1776 -0.2340
17981SOL    HW165668   0.332  10.194   9.019 -0.0608 -1.2255  1.3215
17981SOL    HW265669   0.199  10.265   9.036  0.9101  0.4585  2.1623
17982SOL     OW65670   3.258   2.659   4.260  0.0828 -0.3005  0.5714
17982SOL    HW165671   3.239   2.571   4.226 -0.7020  0.8556 -2.2861
17982SOL    HW265672   3.352   2.671   4.244 -0.0197 -0.2455  0.0082
17983SOL     OW65673   0.646   3.909   7.235 -0.2975 -0.7806 -0.2504
17983SOL    HW165674   0.654   3.986   7.291  1.2776 -1.6083  0.7391
17983SOL    HW265675   0.639   3.944   7.146 -2.2805  0.5441  0.3654
17984SOL     OW65676   7.233  10.940   1.079  1.2054  0.0556 -0.1827
17984SOL    HW165677   7.150  10.934   1.127 -0.5711  1.1962 -2.8402
17984SOL    HW265678   7.226  10.872   1.011  1.6969  1.1931 -1.4177
17985SOL     OW65679   8.681   5.382  11.646 -0.2529  0.2844 -0.1126
17985SOL    HW165680   8.629   5.329  11.706 -1.0303  2.2487  1.0367
17985SOL    HW265681   8.760   5.404  11.695  0.5528 -0.6287 -0.9590
17986SOL     OW65682   3.661   2.714  13.549 -0.1229  0.8935  0.3129
17986SOL    HW165683   3.632   2.700  13.459 -1.7188 -0.5185  0.9978
17986SOL    HW265684   3.700   2.801  13.548  1.2701  0.3440 -2.0583
17987SOL     OW65685   2.886   8.426   3.360  0.6716  0.5750  0.0809
17987SOL    HW165686   2.961   8.415   3.301  0.1433  0.5545 -0.6002
17987SOL    HW265687   2.925   8.439   3.446  1.4427 -1.8837  0.1843
17988SOL     OW65688   0.268   6.268  13.356  0.1192 -0.5870 -0.1931
17988SOL    HW165689   0.265   6.279  13.452  1.2831  0.3514 -0.2435
17988SOL    HW265690   0.289   6.356  13.323 -0.9994 -0.7317 -1.3714
17989SOL     OW65691   3.617  12.839   4.845  0.1207  0.2609 -0.0388
17989SOL    HW165692   3.583  12.790   4.770  0.6803 -0.3858  0.1170
17989SOL    HW265693   3.636  12.772   4.910  0.7571  0.6985  0.2382
17990SOL     OW65694   7.769   6.644   9.185  0.4803  0.8141 -0.5610
17990SOL    HW165695   7.722   6.562   9.202 -0.4247  1.1412 -1.4201
17990SOL    HW265696   7.837   6.646   9.252  0.5054 -0.6271 -0.5046
17991SOL     OW65697   3.274   9.904   2.348 -0.6315  0.7757  0.0538
17991SOL    HW165698   3.211   9.970   2.375 -0.8559  0.6641 -0.1928
17991SOL    HW265699   3.221   9.826   2.332 -0.4851  0.8076 -0.5820
17992SOL     OW65700  12.804   7.018  12.086  0.1641 -0.2745 -0.4043
17992SOL    HW165701  12.820   7.023  12.180  0.8803 -1.6881 -0.4299
17992SOL    HW265702  12.787   7.109  12.060  0.8567  0.2624  0.9230
17993SOL     OW65703   7.380   9.908   5.262  0.1266 -0.7662  0.1904
17993SOL    HW165704   7.437   9.856   5.206 -2.1428 -1.3710 -1.7413
17993SOL    HW265705   7.302   9.923   5.208 -1.5693 -0.0676  2.6944
17994SOL     OW65706   6.731  10.668   6.023  0.1676 -1.1228  0.4520
17994SOL    HW165707   6.799  10.653   5.958 -0.5783  1.0874 -0.9762
17994SOL    HW265708   6.778  10.689   6.104  1.2322  0.4407 -0.5196
17995SOL     OW65709   4.938   5.381  10.289  0.1218  0.0911 -0.1244
17995SOL    HW165710   4.952   5.414  10.201 -0.6662 -1.4229 -0.8423
17995SOL    HW265711   4.951   5.458  10.345  1.4339  0.9043 -1.4579
17996SOL     OW65712   9.018   1.531   6.899  0.3416 -0.1340  0.0544
17996SOL    HW165713   8.962   1.485   6.961 -0.4855  1.0991  0.2660
17996SOL    HW265714   8.975   1.519   6.814 -0.6287  1.2971  0.2983
17997SOL     OW65715  13.407   6.304   8.472 -0.4794  0.3371 -0.2659
17997SOL    HW165716  13.337   6.349   8.425  0.2798 -0.0469 -1.8344
17997SOL    HW265717  13.388   6.211   8.460 -2.0656  0.1179  2.9951
17998SOL     OW65718   5.300   6.439  10.022  0.7492 -0.1699 -0.6569
17998SOL    HW165719   5.275   6.433   9.930  1.2727 -0.1485 -0.8027
17998SOL    HW265720   5.326   6.530  10.034 -0.3840  0.1162 -0.2049
17999SOL     OW65721   8.968  10.726  12.442  0.6609 -0.3792  0.1372
17999SOL    HW165722   8.907  10.656  12.464  0.9422 -1.3788 -1.9936
17999SOL    HW265723   8.919  10.807  12.455 -2.0574 -1.1435 -3.5935
18000SOL     OW65724   5.279  10.483   2.147  0.4349 -0.6692  0.3301
18000SOL    HW165725   5.225  10.414   2.185 -1.4222  0.1482 -0.6766
18000SOL    HW265726   5.363  10.441   2.131  0.1852 -1.9585  2.1209
18001SOL     OW65727   5.338   2.743   4.895 -0.6793 -0.1517 -0.2194
18001SOL    HW165728   5.333   2.763   4.802 -0.5651 -0.1645 -0.2287
18001SOL    HW265729   5.432   2.729   4.911 -0.8920 -2.5033 -0.5980
18002SOL     OW65730   5.420   2.341   6.605 -0.0264 -0.1689  0.2254
18002SOL    HW165731   5.384   2.252   6.608 -1.0470  0.2521  1.4850
18002SOL    HW265732   5.396   2.379   6.690 -0.9911  1.8511 -0.8862
18003SOL     OW65733   3.551   7.394   5.924 -0.3257  0.0834  0.1972
18003SOL    HW165734   3.525   7.483   5.948  0.7902  0.7947 -1.1176
18003SOL    HW265735   3.468   7.349   5.907 -0.8593  1.5011 -1.1882
18004SOL     OW65736  10.950   0.242   0.797  0.2774 -0.4740  0.3057
18004SOL    HW165737  10.935   0.167   0.855  0.8815 -0.9819 -0.1923
18004SOL    HW265738  10.927   0.318   0.851 -1.5487 -1.0525  0.4372
18005SOL     OW65739   0.321   6.664  11.240  0.0039  0.0030  0.1237
18005SOL    HW165740   0.411   6.692  11.253  0.3210 -1.1985  0.7070
18005SOL    HW265741   0.275   6.691  11.320  0.2163 -0.7448  0.5081
18006SOL     OW65742  13.438   8.009   5.419  0.3059  0.6298 -0.3920
18006SOL    HW165743  13.479   7.924   5.404  0.0073  0.3925  0.1003
18006SOL    HW265744  13.390   8.027   5.338 -2.5143 -1.3237  0.6788
18007SOL     OW65745   6.212   6.677   6.398  0.2566 -0.6151 -0.3981
18007SOL    HW165746   6.238   6.660   6.488  0.1121 -2.2878 -0.6350
18007SOL    HW265747   6.285   6.727   6.361  0.9407 -1.0848  0.2766
18008SOL     OW65748   9.549   3.187   7.334 -0.3536  0.2291 -0.2336
18008SOL    HW165749   9.542   3.189   7.238 -0.3708  1.4446 -0.2306
18008SOL    HW265750   9.462   3.213   7.365 -1.3388 -3.2060  0.2132
18009SOL     OW65751   3.243   4.969   7.872 -0.0499  0.0378  0.1412
18009SOL    HW165752   3.293   4.971   7.954  0.2971  1.0068 -0.0788
18009SOL    HW265753   3.157   5.002   7.896 -0.2561 -0.6018  0.3019
18010SOL     OW65754   3.925   9.088   0.166  0.0498 -0.8122  0.0132
18010SOL    HW165755   3.907   8.995   0.181 -0.6773 -0.8934 -1.2228
18010SOL    HW265756   3.893   9.105   0.078  1.8743  0.1902 -0.5073
18011SOL     OW65757   9.947   3.231   7.264  0.2787 -0.1085  0.1149
18011SOL    HW165758   9.871   3.271   7.306  1.1778 -0.1183  1.8385
18011SOL    HW265759   9.910   3.165   7.204 -1.0691 -1.0729  1.9105
18012SOL     OW65760   0.492   3.515  13.666  0.5505 -0.4173 -0.3385
18012SOL    HW165761   0.524   3.594  13.709 -1.4290 -0.5485  1.5361
18012SOL    HW265762   0.559   3.449  13.682  0.6135 -0.0145  1.1745
18013SOL     OW65763   5.557  12.406   7.579  0.0118  0.2125 -0.1695
18013SOL    HW165764   5.550  12.441   7.668 -3.2546  0.3567 -0.3645
18013SOL    HW265765   5.651  12.397   7.564  0.7294  1.9423  2.5945
18014SOL     OW65766   9.357   6.377   9.080  0.3206 -0.2729 -0.2514
18014SOL    HW165767   9.344   6.425   9.162  0.5720 -1.9366  0.8049
18014SOL    HW265768   9.423   6.428   9.034  0.7405  0.2975  0.9242
18015SOL     OW65769   1.568  11.627   8.189  0.1763  0.0010 -0.5172
18015SOL    HW165770   1.636  11.650   8.253 -0.0285  1.3990 -0.7765
18015SOL    HW265771   1.495  11.685   8.211  0.0368  0.3697 -1.9026
18016SOL     OW65772   5.823  12.933   1.359 -0.5244 -0.4335  0.2171
18016SOL    HW165773   5.849  12.863   1.299 -0.9311 -0.9884  0.6774
18016SOL    HW265774   5.900  12.991   1.363 -0.2872 -0.6972 -0.3863
18017SOL     OW65775   0.745   5.612   4.470 -0.5703  0.1866 -0.5408
18017SOL    HW165776   0.680   5.551   4.435 -0.9922  0.2135  0.1807
18017SOL    HW265777   0.712   5.698   4.444 -0.6269  0.1788 -0.4949
18018SOL     OW65778   2.282  12.946   3.202  0.0856  0.1570 -0.5304
18018SOL    HW165779   2.262  12.853   3.207  1.2193 -0.0366  1.5922
18018SOL    HW265780   2.378  12.950   3.205  0.1448  1.3385 -2.5087
18019SOL     OW65781   0.254   8.686   1.885  0.1475  0.1864 -0.4736
18019SOL    HW165782   0.209   8.602   1.889  0.7689 -0.1304  0.2295
18019SOL    HW265783   0.316   8.677   1.813 -1.0175  0.6953 -1.5743
18020SOL     OW65784   5.546   6.032   6.668 -0.3350 -0.3341  0.2217
18020SOL    HW165785   5.574   6.036   6.576  0.9627  1.2904  0.6225
18020SOL    HW265786   5.597   5.961   6.706 -1.9197 -1.9774 -0.5810
18021SOL     OW65787   4.776   7.097   8.088  0.3055 -0.0760  0.8604
18021SOL    HW165788   4.769   7.188   8.116 -1.3678  0.3944 -0.8579
18021SOL    HW265789   4.711   7.050   8.139  0.2329 -0.0449  0.7969
18022SOL     OW65790   6.006   8.086   8.062 -0.4865  0.6989  0.2370
18022SOL    HW165791   6.037   8.069   8.151  1.5444  1.8369 -0.1887
18022SOL    HW265792   5.928   8.030   8.053  0.2164 -0.7209  2.1349
18023SOL     OW65793   2.241   6.810  12.233  0.3222  0.4060  0.4774
18023SOL    HW165794   2.222   6.739  12.172  2.4171  2.1876 -2.4914
18023SOL    HW265795   2.161   6.863  12.233 -0.1671 -0.3158  0.3149
18024SOL     OW65796   1.257   6.410  13.723  0.1397 -0.2182 -0.2308
18024SOL    HW165797   1.317   6.417  13.649  1.3130 -1.5895  0.5362
18024SOL    HW265798   1.270   6.321  13.756 -2.4863 -0.6239 -0.1420
18025SOL     OW65799   3.068   0.360   3.670  0.5531 -0.8523  0.4677
18025SOL    HW165800   2.973   0.368   3.672  0.3225 -2.3697 -1.7853
18025SOL    HW265801   3.094   0.369   3.762 -1.5339  1.4805  0.9516
18026SOL     OW65802   3.419   8.613   1.050 -0.3313  0.0891  0.2404
18026SOL    HW165803   3.326   8.605   1.073 -0.6232  0.0755 -0.8667
18026SOL    HW265804   3.421   8.596   0.956  0.9984 -1.3399  0.5007
18027SOL     OW65805   6.848  11.905   8.914  0.1198  0.1673  0.3922
18027SOL    HW165806   6.903  11.826   8.916  1.6749  0.9782 -3.1449
18027SOL    HW265807   6.909  11.976   8.894 -1.8684  1.4884 -1.3696
18028SOL     OW65808   2.772   7.488   4.301 -0.6473  0.2549 -0.2902
18028SOL    HW165809   2.773   7.458   4.210  1.7066  0.8429 -0.5254
18028SOL    HW265810   2.787   7.582   4.296  2.2330 -0.0431  0.6977
18029SOL     OW65811   4.514  12.536  11.685  0.3127 -0.6784  0.2085
18029SOL    HW165812   4.570  12.606  11.719  0.1380 -0.3828 -0.1040
18029SOL    HW265813   4.478  12.572  11.604  2.0702 -1.9950 -1.2273
18030SOL     OW65814  10.101  10.149  12.783  0.7803  0.3184  0.7157
18030SOL    HW165815  10.043  10.220  12.756  0.5737  0.1671  0.7544
18030SOL    HW265816  10.186  10.190  12.794  0.3920  0.8447  2.0291
18031SOL     OW65817   1.776   7.383  12.227  0.4202 -0.0022 -0.0356
18031SOL    HW165818   1.797   7.394  12.320 -0.9420 -1.6936  0.5472
18031SOL    HW265819   1.860   7.361  12.186  1.0102  0.5598  0.8352
18032SOL     OW65820   4.605  10.712   5.650 -0.1027  0.0201 -0.1644
18032SOL    HW165821   4.576  10.756   5.730  1.7637  0.1739  0.4850
18032SOL    HW265822   4.677  10.655   5.678 -1.0665 -1.8807 -1.3410
18033SOL     OW65823   1.377   7.167   4.573  0.0576  0.7653  0.5769
18033SOL    HW165824   1.405   7.110   4.644 -0.5102 -0.1928  0.0544
18033SOL    HW265825   1.332   7.240   4.616 -0.9467 -0.1803  1.1811
18034SOL     OW65826   7.778   9.729   7.948  0.1777  0.2022  0.3512
18034SOL    HW165827   7.835   9.729   8.025  0.4028  0.5340  0.1862
18034SOL    HW265828   7.711   9.794   7.967 -0.1300 -0.1641  0.5307
18035SOL     OW65829   4.342  10.350   9.744 -0.2792 -0.0944 -0.0017
18035SOL    HW165830   4.359  10.296   9.821  0.8077  0.9167  0.4917
18035SOL    HW265831   4.426  10.353   9.698 -0.2294  1.4109  0.1491
18036SOL     OW65832  13.223   2.671   3.780  0.2941  0.4900  1.0570
18036SOL    HW165833  13.286   2.743   3.779  0.7987  0.0515  0.3511
18036SOL    HW265834  13.149   2.705   3.831  0.6134  1.4233  0.9276
18037SOL     OW65835  11.807   7.961   4.066  0.1556 -0.2961 -0.0734
18037SOL    HW165836  11.742   7.997   4.127  0.6087 -1.1370  0.9294
18037SOL    HW265837  11.841   7.883   4.110 -0.6703 -1.9025 -2.0732
18038SOL     OW65838   0.924   4.968   4.339 -0.2122 -0.0001  0.9558
18038SOL    HW165839   0.970   5.026   4.400 -0.5251 -0.2472  1.4365
18038SOL    HW265840   0.863   5.026   4.292 -0.1014  0.1615  1.0111
18039SOL     OW65841   5.383   9.403   9.771 -0.2175  0.0567  0.1984
18039SOL    HW165842   5.407   9.431   9.683 -1.3463  0.4621 -0.0016
18039SOL    HW265843   5.459   9.355   9.804  0.3958  0.3354 -0.8065
18040SOL     OW65844  12.786  11.135  12.304 -0.4110  0.4753  0.1496
18040SOL    HW165845  12.768  11.080  12.228 -0.1274  1.5021 -0.6897
18040SOL    HW265846  12.869  11.102  12.339 -0.3682  0.2196 -0.1945
18041SOL     OW65847   2.671  12.966   3.394  0.2532  0.3414 -0.3231
18041SOL    HW165848   2.627  12.927   3.319 -1.3930 -0.4956  1.0338
18041SOL    HW265849   2.725  12.896   3.430  0.8276  0.6617 -0.5435
18042SOL     OW65850  12.024   6.965  10.888  0.0265 -0.0723 -0.4274
18042SOL    HW165851  12.051   7.057  10.891 -1.1980  0.3144 -0.6645
18042SOL    HW265852  11.929   6.968  10.890 -0.0254 -1.3659  0.0529
18043SOL     OW65853   2.474  13.366  11.609 -0.1977  0.4186  0.5987
18043SOL    HW165854   2.448  13.390  11.520  1.1077  0.6732  0.2701
18043SOL    HW265855   2.546  13.303  11.598  0.3744  0.8948  1.4690
18044SOL     OW65856   1.785   2.950   2.915  0.3319 -0.4756  0.2775
18044SOL    HW165857   1.864   2.996   2.941  1.8948 -2.5991 -0.4320
18044SOL    HW265858   1.743   2.925   2.998 -0.1413  1.4291  0.6617
18045SOL     OW65859  11.292   9.846   3.472  0.9157  0.0919 -0.3207
18045SOL    HW165860  11.217   9.873   3.525  2.7094  2.0927  1.3597
18045SOL    HW265861  11.271   9.876   3.384 -0.3930  0.2798  0.0287
18046SOL     OW65862   7.465   9.448   2.845 -0.2137 -0.2370 -0.0763
18046SOL    HW165863   7.524   9.373   2.836  0.3689  0.4113 -2.2731
18046SOL    HW265864   7.388   9.425   2.793 -1.6974 -0.7863  2.2096
18047SOL     OW65865   1.027   9.945   7.190  0.3300 -0.4110  0.0163
18047SOL    HW165866   0.965   9.902   7.131 -1.2585  1.0651  0.5491
18047SOL    HW265867   1.092   9.983   7.131 -0.7982  0.3730 -0.7680
18048SOL     OW65868   9.165   0.611   0.991 -0.6703 -0.3289  0.1663
18048SOL    HW165869   9.171   0.695   0.945 -2.6467 -0.8565 -1.1923
18048SOL    HW265870   9.089   0.620   1.047 -0.1423 -0.8115  0.9817
18049SOL     OW65871   4.039   9.872   9.945  0.2401  0.0109  0.5407
18049SOL    HW165872   4.056   9.962   9.916 -0.9300  0.3055  0.6805
18049SOL    HW265873   4.113   9.821   9.913  0.1184  0.7303 -1.0034
18050SOL     OW65874   6.092  11.139   4.328  0.2449 -0.6649 -0.0095
18050SOL    HW165875   6.164  11.195   4.298  0.3773 -0.5804  0.4523
18050SOL    HW265876   6.135  11.058   4.355  0.1689 -0.6103  0.2782
18051SOL     OW65877   0.100   9.549  10.674  0.5501  0.3481  0.3562
18051SOL    HW165878   0.067   9.462  10.654  1.0450  0.7132 -2.3960
18051SOL    HW265879   0.179   9.557  10.621 -0.1778  2.9102 -0.4690
18052SOL     OW65880   0.138   0.417   9.844 -0.2436  0.1822  0.2432
18052SOL    HW165881   0.199   0.345   9.861  0.2880  0.7492  0.7512
18052SOL    HW265882   0.128   0.461   9.928  0.1111  1.2203 -0.2364
18053SOL     OW65883   3.542  13.617   4.833 -0.4278 -0.0302  0.1576
18053SOL    HW165884   3.522  13.693   4.779  0.9633  0.8849  0.8551
18053SOL    HW265885   3.637  13.621   4.846 -0.4711 -1.2922  1.0963
18054SOL     OW65886   3.581   5.339   1.269 -0.0741  0.0707  0.2064
18054SOL    HW165887   3.589   5.366   1.360  0.3600 -0.8198  0.4462
18054SOL    HW265888   3.671   5.320   1.241 -0.1663  0.6205 -0.5001
18055SOL     OW65889  10.042  10.572   5.656  0.5240  0.2543  0.3809
18055SOL    HW165890  10.006  10.499   5.605  2.2602 -1.4197  1.3956
18055SOL    HW265891  10.094  10.622   5.594 -3.0866  2.5994 -1.0665
18056SOL     OW65892   0.297   3.585   8.929  0.1688  0.5167  0.0729
18056SOL    HW165893   0.215   3.556   8.888 -0.3121 -0.1528  1.4629
18056SOL    HW265894   0.346   3.504   8.944  1.7035  0.9982 -1.9179
18057SOL     OW65895   8.285   3.572   5.512 -0.2090 -0.7149 -0.5374
18057SOL    HW165896   8.249   3.588   5.424  0.4312 -1.5801 -0.9743
18057SOL    HW265897   8.326   3.485   5.506 -0.6611 -1.0485  0.7827
18058SOL     OW65898   7.095  10.749   8.287 -0.6546  0.3049  0.0706
18058SOL    HW165899   7.107  10.790   8.373 -1.0066  0.5201  0.0179
18058SOL    HW265900   7.140  10.808   8.227  1.3719 -0.8696  0.3284
18059SOL     OW65901   8.297   4.049  13.064 -0.7399 -0.6851 -0.0140
18059SOL    HW165902   8.317   3.956  13.054 -0.7132 -0.7647  0.7233
18059SOL    HW265903   8.203   4.051  13.081 -0.2796 -0.8670  3.1287
18060SOL     OW65904  12.707  12.274  13.135  0.7772 -0.4701 -0.8590
18060SOL    HW165905  12.637  12.233  13.186 -1.8595  0.6890 -3.3318
18060SOL    HW265906  12.767  12.309  13.202 -2.2361  0.6264  1.5139
18061SOL     OW65907   4.945   0.023  11.391 -0.2351  0.2577 -0.5198
18061SOL    HW165908   4.859   0.023  11.433  0.8380 -0.5775  1.8545
18061SOL    HW265909   4.971  -0.069  11.389  0.7390  0.5299 -0.8666
18062SOL     OW65910   1.993   8.752   8.327 -0.1412 -0.0019 -0.0166
18062SOL    HW165911   1.990   8.657   8.321  0.7922  0.0286 -1.5529
18062SOL    HW265912   2.007   8.782   8.237  3.2788  1.3970  0.8319
18063SOL     OW65913  12.250  12.808   9.155 -0.1600 -0.5035 -0.2121
18063SOL    HW165914  12.315  12.838   9.219 -0.7589 -1.1130  0.7184
18063SOL    HW265915  12.302  12.771   9.084  0.5217 -0.5138  0.2724
18064SOL     OW65916  11.458   8.391  10.908  0.2009  0.2793 -0.3281
18064SOL    HW165917  11.517   8.318  10.929 -0.9262 -0.6000 -0.1176
18064SOL    HW265918  11.513   8.469  10.918  1.9124 -0.5865 -2.2275
18065SOL     OW65919  13.423   2.041   8.227 -0.5424  0.6427  0.1055
18065SOL    HW165920  13.374   2.078   8.154 -1.3579 -2.1100 -0.8609
18065SOL    HW265921  13.515   2.052   8.202 -0.7967 -1.2396 -1.9820
18066SOL     OW65922  11.071  12.096   4.877 -0.3308  0.7339 -0.4102
18066SOL    HW165923  11.083  12.019   4.933  0.4277  1.0213 -0.1702
18066SOL    HW265924  11.066  12.060   4.788 -1.1105  0.3157 -0.2043
18067SOL     OW65925  11.420  12.560  10.458 -0.2614  0.6561 -0.2205
18067SOL    HW165926  11.420  12.479  10.508 -1.2445 -0.5002 -2.0148
18067SOL    HW265927  11.444  12.627  10.522 -1.4189 -0.7439  1.7783
18068SOL     OW65928   4.474   3.972   7.193  0.1830  0.2180 -0.2519
18068SOL    HW165929   4.458   4.000   7.103  1.3638 -0.4591 -0.6889
18068SOL    HW265930   4.504   3.881   7.185  2.6636  0.8828  0.6000
18069SOL     OW65931   3.001  10.354  10.066 -0.5134  0.2510  0.1665
18069SOL    HW165932   3.001  10.320   9.977  1.2273 -2.0122  0.9247
18069SOL    HW265933   2.941  10.297  10.114 -2.0813  1.9653  0.3253
18070SOL     OW65934   3.589   0.265   7.481  0.3854 -0.5883  0.4948
18070SOL    HW165935   3.606   0.281   7.388  1.7345 -0.7530  0.6891
18070SOL    HW265936   3.539   0.341   7.510  0.8227 -0.0402 -0.1465
18071SOL     OW65937   7.356  12.621   2.830 -0.5905  0.5447  0.3363
18071SOL    HW165938   7.436  12.590   2.873  0.0215  2.5310  0.7312
18071SOL    HW265939   7.300  12.544   2.825  1.3852 -0.9279 -0.0533
18072SOL     OW65940   2.277   6.655   7.968  0.0341  0.0914 -0.1605
18072SOL    HW165941   2.192   6.615   7.983 -0.3951  0.9943 -0.1082
18072SOL    HW265942   2.257   6.743   7.936  0.9449 -0.1027 -1.3324
18073SOL     OW65943   9.892   3.867   8.096 -0.4509 -0.5684  0.0914
18073SOL    HW165944   9.968   3.918   8.069 -0.0784 -0.7796  0.7376
18073SOL    HW265945   9.913   3.777   8.070  0.8358 -1.1584  2.8879
18074SOL     OW65946   1.069   9.638  12.735 -0.2725 -0.1155  0.4932
18074SOL    HW165947   1.041   9.565  12.790 -2.2537 -1.1272 -1.6410
18074SOL    HW265948   1.003   9.706  12.751  0.3206  0.3732  0.8728
18075SOL     OW65949  11.516   6.412   1.313 -0.0782  0.2775 -0.2974
18075SOL    HW165950  11.586   6.424   1.377 -0.6481  0.3193  0.3206
18075SOL    HW265951  11.441   6.457   1.350  0.0990  2.0594 -1.9000
18076SOL     OW65952   0.927   3.698  11.362 -0.3023 -0.4036  0.1652
18076SOL    HW165953   0.912   3.667  11.273 -0.7113  1.3865 -0.4166
18076SOL    HW265954   0.923   3.618  11.415 -1.3899 -1.3431 -1.2357
18077SOL     OW65955  10.970   0.072  12.294 -0.0586  1.1472  0.0414
18077SOL    HW165956  10.996   0.147  12.347  0.9374  0.4352  0.5903
18077SOL    HW265957  11.036   0.005  12.313 -1.8429 -0.4879  0.9132
18078SOL     OW65958   1.865  10.647   9.260 -0.3319 -0.2271 -0.6624
18078SOL    HW165959   1.933  10.709   9.234  1.0617 -1.7449 -0.8038
18078SOL    HW265960   1.903  10.599   9.334 -1.8135 -0.1959  0.1672
18079SOL     OW65961  10.912   3.032  11.662 -0.6590 -0.8229  0.1272
18079SOL    HW165962  10.856   3.012  11.587  0.2987 -2.3737 -0.2106
18079SOL    HW265963  10.940   3.122  11.648 -0.1185 -1.2356 -1.6421
18080SOL     OW65964   0.960   0.274   8.990 -0.1852  0.2736 -0.4506
18080SOL    HW165965   0.914   0.304   9.069  0.3994 -0.3630  0.1508
18080SOL    HW265966   1.050   0.259   9.020 -0.2434 -1.1751 -0.9440
18081SOL     OW65967   6.707   7.325   6.059 -0.0082 -0.1446 -0.2396
18081SOL    HW165968   6.708   7.409   6.013 -2.0927  0.5299  0.8084
18081SOL    HW265969   6.738   7.345   6.147 -1.1386 -0.2929  0.2159
18082SOL     OW65970   2.174   6.898   6.967  0.2240  0.0434 -0.4845
18082SOL    HW165971   2.158   6.804   6.973  1.8299 -0.3240 -1.3516
18082SOL    HW265972   2.247   6.906   6.906 -0.9911  1.9859 -1.7770
18083SOL     OW65973  11.397   8.769   5.613  0.4354  0.1489  0.1532
18083SOL    HW165974  11.373   8.679   5.633 -1.1462  0.8536  1.7126
18083SOL    HW265975  11.318   8.820   5.630  1.0007  1.7454 -1.6023
18084SOL     OW65976   3.547   4.216   8.619  0.4866 -0.6752  0.3502
18084SOL    HW165977   3.495   4.291   8.590  1.0143 -0.5518 -0.3035
18084SOL    HW265978   3.485   4.161   8.667  0.1376  0.2789  1.0329
18085SOL     OW65979   7.048  11.408  11.744  0.2158 -0.0657  0.0365
18085SOL    HW165980   7.137  11.388  11.716 -0.1939 -0.7395 -0.8209
18085SOL    HW265981   7.046  11.387  11.837 -0.0206 -3.5580 -0.6457
18086SOL     OW65982   6.790   5.127  13.517  0.1995 -0.1602  0.2499
18086SOL    HW165983   6.720   5.062  13.522 -0.1319  0.2405  0.9147
18086SOL    HW265984   6.788   5.171  13.602  1.4187 -0.3067  0.3730
18087SOL     OW65985   8.067  12.559   7.907  0.1915 -0.3801  0.1932
18087SOL    HW165986   7.975  12.584   7.902  0.5574  1.4507  1.6587
18087SOL    HW265987   8.074  12.509   7.989  0.4760 -0.6371  0.0146
18088SOL     OW65988   8.271   0.838   2.752 -0.1162 -0.3888  0.1090
18088SOL    HW165989   8.354   0.821   2.706  0.5311 -1.0567  1.4605
18088SOL    HW265990   8.246   0.926   2.724  1.2993  0.0105 -0.0021
18089SOL     OW65991  13.278   9.313   2.747 -0.4771  0.0752 -0.5755
18089SOL    HW165992  13.205   9.371   2.727 -2.9498 -1.0008  3.9183
18089SOL    HW265993  13.335   9.365   2.804 -0.0214 -0.3643 -0.6205
18090SOL     OW65994  11.349   8.832   0.591 -0.5269  0.4831  0.0355
18090SOL    HW165995  11.436   8.824   0.554 -0.6985 -0.1130 -0.2522
18090SOL    HW265996  11.350   8.776   0.669 -0.1547  1.7581  0.9819
18091SOL     OW65997  10.974   4.419   5.870  0.8621 -0.1228 -0.1931
18091SOL    HW165998  11.056   4.411   5.918  0.0894 -0.0007  1.2044
18091SOL    HW265999  10.988   4.495   5.813  1.9813 -0.5825 -0.5670
18092SOL     OW66000   4.763   0.476   7.488 -0.0504 -0.7500  0.1109
18092SOL    HW166001   4.852   0.510   7.498  0.1642 -1.0983 -0.5441
18092SOL    HW266002   4.742   0.490   7.395 -0.5947 -0.8710  0.2107
18093SOL     OW66003  12.056  10.224   6.083  0.4720 -0.2888  0.1455
18093SOL    HW166004  12.101  10.142   6.105 -0.0909 -0.6849 -0.1510
18093SOL    HW266005  11.964  10.198   6.073  0.4524  0.1806 -1.0249
18094SOL     OW66006   4.924   8.338   7.839 -0.1905  0.1259  0.2531
18094SOL    HW166007   4.974   8.369   7.914 -0.6760  0.3042  0.5031
18094SOL    HW266008   4.843   8.389   7.840 -0.7507 -0.7401  0.3397
18095SOL     OW66009   0.612   1.145  12.848  0.2116 -0.4717 -0.2141
18095SOL    HW166010   0.695   1.191  12.843 -0.9313  2.0708  1.9865
18095SOL    HW266011   0.567   1.167  12.766  1.1174 -0.6868 -0.7745
18096SOL     OW66012   5.687   3.763   3.266  0.2598  0.1011 -0.5545
18096SOL    HW166013   5.702   3.684   3.215 -0.2660 -0.8741  0.7551
18096SOL    HW266014   5.717   3.741   3.355 -1.5223  0.7581  0.2522
18097SOL     OW66015  11.659   0.029  12.905 -0.3658  0.4240  0.0735
18097SOL    HW166016  11.575   0.019  12.860 -1.0442 -0.8625  1.5381
18097SOL    HW266017  11.725   0.011  12.838 -1.3281 -1.2311 -0.4840
18098SOL     OW66018   5.292   2.116  12.436 -0.0665  0.4085  0.3790
18098SOL    HW166019   5.309   2.069  12.518 -2.7847 -0.2915  0.6561
18098SOL    HW266020   5.231   2.059  12.389  1.4497  0.7766 -2.1995
18099SOL     OW66021   2.306   3.769   5.295 -0.0733 -0.0609 -0.4018
18099SOL    HW166022   2.253   3.846   5.275  0.7460  0.4263 -0.7293
18099SOL    HW266023   2.384   3.779   5.241  0.6930 -0.3890  0.6176
18100SOL     OW66024   4.277   7.022  11.875 -0.4173 -0.2466  0.1623
18100SOL    HW166025   4.221   6.967  11.821 -1.0342 -1.0860  1.5930
18100SOL    HW266026   4.265   7.111  11.841  0.3839 -0.9096 -2.0186
18101SOL     OW66027   9.278   7.634  10.432  0.3647 -0.4128 -0.0697
18101SOL    HW166028   9.227   7.713  10.417 -1.3771 -0.8583  2.7193
18101SOL    HW266029   9.368   7.658  10.407  0.4033  3.2647  2.7863
18102SOL     OW66030   8.985   5.081   2.282 -0.9877  0.2639 -0.4223
18102SOL    HW166031   9.037   5.008   2.248 -1.6406 -0.2049 -0.4281
18102SOL    HW266032   8.897   5.065   2.250 -1.7102 -0.3461  1.7089
18103SOL     OW66033   9.147  13.698  13.022  0.3925 -0.2966  0.1982
18103SOL    HW166034   9.117  13.774  12.973 -1.1136 -2.2599 -2.1250
18103SOL    HW266035   9.107  13.708  13.108 -0.7498  0.9311 -0.4503
18104SOL     OW66036   4.206   1.145  12.736  0.1736  0.0998 -0.0474
18104SOL    HW166037   4.300   1.135  12.750  0.2518  1.5660  0.6013
18104SOL    HW266038   4.194   1.124  12.643  1.3958  1.3919 -0.5425
18105SOL     OW66039  12.378   9.723   2.496  0.1000  0.2783  0.6058
18105SOL    HW166040  12.411   9.724   2.407 -2.1293  0.8332 -0.2828
18105SOL    HW266041  12.383   9.814   2.525 -1.5351  0.5737  0.0615
18106SOL     OW66042   6.492   0.194   3.494  0.2634  0.4073 -0.3501
18106SOL    HW166043   6.548   0.244   3.554 -2.1208  0.9355  1.6001
18106SOL    HW266044   6.482   0.109   3.536  0.0440  0.1271 -0.9626
18107SOL     OW66045   9.341   5.660  13.442  0.1411  0.3238  0.0832
18107SOL    HW166046   9.381   5.615  13.517  0.3422  0.1379 -0.1352
18107SOL    HW266047   9.337   5.752  13.470  1.0282  0.4019 -0.0154
18108SOL     OW66048  12.815   8.962   8.152 -0.3941  0.5815  0.0695
18108SOL    HW166049  12.757   9.033   8.180  0.9372  1.0446  1.8368
18108SOL    HW266050  12.806   8.959   8.057 -0.2323  3.3655 -0.0973
18109SOL     OW66051   7.998   0.223  13.507  0.1400  0.0794  0.3829
18109SOL    HW166052   8.058   0.161  13.466  1.3575  0.8226  0.9849
18109SOL    HW266053   7.968   0.279  13.436 -2.2349 -2.0977 -0.4857
18110SOL     OW66054  11.659   7.104   5.438  0.1764 -0.3698  0.3695
18110SOL    HW166055  11.571   7.112   5.402  0.1727 -0.1355  0.4282
18110SOL    HW266056  11.688   7.195   5.450  1.9443 -0.2476 -3.3234
18111SOL     OW66057   1.967   1.940   3.718  0.0622 -0.6815 -0.0726
18111SOL    HW166058   2.050   1.940   3.671  1.8743 -2.4101  2.8324
18111SOL    HW266059   1.952   1.848   3.739 -0.5236 -0.0152  2.7732
18112SOL     OW66060   5.597   2.375  11.262 -0.5281 -0.1531 -0.1790
18112SOL    HW166061   5.590   2.410  11.351 -1.1330 -0.0690 -0.2548
18112SOL    HW266062   5.668   2.426  11.222 -0.3589 -0.0840  0.2037
18113SOL     OW66063   8.002  11.680   0.880  0.2477 -0.1474  0.1703
18113SOL    HW166064   7.971  11.639   0.960  0.6340 -0.5241  0.1248
18113SOL    HW266065   7.926  11.677   0.821  0.0336 -0.0719  0.4412
18114SOL     OW66066   8.252   3.439  11.641 -0.3257  0.3082  0.2033
18114SOL    HW166067   8.193   3.442  11.566  0.1168  1.2827 -0.1344
18114SOL    HW266068   8.275   3.531  11.656  0.5062  0.0165  0.7980
18115SOL     OW66069  10.566   6.784   8.106  0.1807  0.0754 -0.0804
18115SOL    HW166070  10.638   6.739   8.151  0.7553  1.3448  0.3002
18115SOL    HW266071  10.509   6.713   8.076  1.7619 -1.0044 -0.6999
18116SOL     OW66072   1.339   2.271   2.598 -0.9064  0.3949 -0.2832
18116SOL    HW166073   1.268   2.227   2.552 -2.0568  0.9984  0.8362
18116SOL    HW266074   1.402   2.202   2.617 -1.2152 -0.1668 -1.2433
18117SOL     OW66075   9.666   9.021  13.438  0.4461  0.0767  0.4910
18117SOL    HW166076   9.741   9.080  13.443 -0.3149  1.1236 -0.0823
18117SOL    HW266077   9.703   8.938  13.408  1.3012  0.7305 -0.3266
18118SOL     OW66078   1.227  10.586   5.186  0.0828 -0.5874 -0.1684
18118SOL    HW166079   1.155  10.603   5.126  0.5406 -0.0893 -0.5922
18118SOL    HW266080   1.225  10.491   5.199 -0.0646 -0.7025 -0.9377
18119SOL     OW66081  10.453   2.215  10.281  0.1878  0.5032  0.5324
18119SOL    HW166082  10.496   2.289  10.239  2.0453 -2.0103 -2.4703
18119SOL    HW266083  10.362   2.219  10.252 -0.2633  2.6055  2.0622
18120SOL     OW66084  10.113   7.921  12.839 -0.2005  0.2629  0.6242
18120SOL    HW166085  10.157   7.974  12.773  1.3279  0.0440  1.4225
18120SOL    HW266086  10.020   7.939  12.826  0.1328  1.1403 -0.7865
18121SOL     OW66087  11.852  11.141  11.572 -0.3598  0.0509  0.1978
18121SOL    HW166088  11.791  11.108  11.639  1.8382 -0.1371  2.2197
18121SOL    HW266089  11.855  11.236  11.588 -0.1588  0.0680  0.0536
18122SOL     OW66090   0.069  11.642   0.654 -0.1109 -0.6635 -0.2265
18122SOL    HW166091   0.157  11.608   0.640  0.3614  0.3798  0.1324
18122SOL    HW266092   0.082  11.730   0.688 -1.2728 -0.9726  1.1278
18123SOL     OW66093   6.501   3.001   5.843  0.1165  0.2321  0.5384
18123SOL    HW166094   6.566   2.931   5.835 -1.0369 -0.6912 -1.6218
18123SOL    HW266095   6.505   3.047   5.760 -1.1462  0.9375  0.8437
18124SOL     OW66096   6.000   0.062  10.332 -0.1120  0.1980  0.1517
18124SOL    HW166097   5.957  -0.011  10.288 -0.6184 -0.7847  2.1750
18124SOL    HW266098   5.944   0.138  10.313 -1.2576 -0.5397  0.4857
18125SOL     OW66099   3.215   9.001   0.523  0.1438  0.2538 -0.0532
18125SOL    HW166100   3.217   9.081   0.470 -0.3409  1.4604  1.6692
18125SOL    HW266101   3.123   8.991   0.548  0.2005 -0.8664 -0.2394
18126SOL     OW66102  12.836   1.010   4.011  0.0240  0.6126 -0.3309
18126SOL    HW166103  12.882   1.048   4.086  0.5969 -0.7689  0.0531
18126SOL    HW266104  12.813   1.085   3.956  1.1200  1.5096  0.3872
18127SOL     OW66105   0.650   0.150   9.772  0.0515  0.4593 -0.2895
18127SOL    HW166106   0.564   0.127   9.737  0.2704 -0.9155 -0.0120
18127SOL    HW266107   0.636   0.159   9.867  0.4505 -1.2059 -0.0420
18128SOL     OW66108   5.630   7.777   8.827 -0.0443 -0.0249 -0.0068
18128SOL    HW166109   5.594   7.757   8.740  0.1147  1.0144 -0.3299
18128SOL    HW266110   5.695   7.845   8.810  1.1042 -0.8972  0.7347
18129SOL     OW66111  12.523   1.352   1.309  0.2696 -0.6824  0.3992
18129SOL    HW166112  12.487   1.437   1.334 -1.6766 -1.4255  0.3269
18129SOL    HW266113  12.464   1.288   1.349  0.0563 -1.9626 -1.7745
18130SOL     OW66114   8.365   1.607   4.007 -0.1861  0.2009 -0.1519
18130SOL    HW166115   8.383   1.529   3.955 -2.3637 -0.7640  0.4221
18130SOL    HW266116   8.289   1.647   3.964 -1.3667 -0.0315  1.6305
18131SOL     OW66117   2.589  10.957   7.523 -0.0050 -0.1111  0.1165
18131SOL    HW166118   2.662  10.922   7.574 -0.9136 -0.0439  1.4977
18131SOL    HW266119   2.623  11.039   7.488  1.4235 -1.2670 -1.3991
18132SOL     OW66120   0.442   4.253   9.415 -0.0362  0.0965 -0.1450
18132SOL    HW166121   0.348   4.264   9.409 -0.0835 -1.0192 -3.7305
18132SOL    HW266122   0.479   4.335   9.383  0.2534  0.3218  0.7198
18133SOL     OW66123  10.981   2.120   2.086  0.4638 -0.8200  0.4965
18133SOL    HW166124  11.001   2.058   2.015  0.1532 -1.4024  0.9132
18133SOL    HW266125  11.018   2.079   2.164 -0.0027 -0.6188  0.8227
18134SOL     OW66126   2.611  13.504  12.128 -0.3503  0.5710  0.1278
18134SOL    HW166127   2.525  13.465  12.145 -0.8085  1.4587 -0.1276
18134SOL    HW266128   2.618  13.508  12.033  0.4277 -0.4616  0.1243
18135SOL     OW66129   1.700   6.116  10.939  0.3685  0.0036 -0.3011
18135SOL    HW166130   1.674   6.162  11.019 -1.7219 -2.4229  0.5363
18135SOL    HW266131   1.648   6.157  10.870 -1.3476 -0.9137  0.3989
18136SOL     OW66132  12.685   9.128  10.793  0.3285 -0.2933  0.3269
18136SOL    HW166133  12.683   9.219  10.764  0.2656  0.4026  2.3428
18136SOL    HW266134  12.594   9.100  10.793  0.2316  0.0163  0.7517
18137SOL     OW66135  12.584   4.333   9.514 -0.0043  0.0963  0.2127
18137SOL    HW166136  12.672   4.359   9.488 -0.2000  0.7454  0.1852
18137SOL    HW266137  12.550   4.408   9.562 -0.3463 -0.3589  0.6973
18138SOL     OW66138   1.729   3.639   3.318  0.1845  0.2266 -0.1799
18138SOL    HW166139   1.718   3.566   3.379  0.9733  1.0630  1.0225
18138SOL    HW266140   1.684   3.712   3.361 -0.4351  0.5043 -1.2685
18139SOL     OW66141   0.003   8.224   7.087  0.0419 -0.4430  0.1188
18139SOL    HW166142   0.075   8.240   7.148  0.4721  3.0452 -1.0755
18139SOL    HW266143  -0.065   8.184   7.140  0.9916  0.9515  2.5364
18140SOL     OW66144   1.929   7.100   8.979 -0.0949 -0.3285 -0.3653
18140SOL    HW166145   1.883   7.170   8.933 -2.6300 -2.1386 -0.7364
18140SOL    HW266146   1.883   7.092   9.063  0.8836 -0.8467  0.1453
18141SOL     OW66147   0.433   3.398   9.246  0.1470  0.5106  0.2000
18141SOL    HW166148   0.524   3.427   9.255  0.1196  0.8131 -0.4665
18141SOL    HW266149   0.385   3.449   9.311 -0.1183  2.9738 -1.8171
18142SOL     OW66150   7.702  12.411   1.330 -0.0979 -0.0584  0.2156
18142SOL    HW166151   7.754  12.460   1.266  0.3499 -1.1891 -0.3210
18142SOL    HW266152   7.615  12.450   1.325  0.0653  0.2153 -0.7216
18143SOL     OW66153   2.670  12.393   8.533 -0.6203 -0.0756 -0.5849
18143SOL    HW166154   2.654  12.341   8.611  1.9455 -0.0097  0.0597
18143SOL    HW266155   2.730  12.340   8.480  0.9984  1.6027 -0.5183
18144SOL     OW66156   5.060   4.415   5.996  0.1600  0.3344  0.9369
18144SOL    HW166157   4.969   4.420   5.968 -0.3457  1.6757  2.6754
18144SOL    HW266158   5.063   4.338   6.054  0.1935  0.1757  0.7266
18145SOL     OW66159   6.068   5.226   8.614 -0.2643  0.0509  0.4268
18145SOL    HW166160   6.131   5.185   8.555 -0.6425  0.9459 -0.6304
18145SOL    HW266161   6.115   5.302   8.650 -0.3147 -0.0065  0.6131
18146SOL     OW66162   3.395   2.387   2.791  0.3455 -0.0340 -0.2007
18146SOL    HW166163   3.373   2.299   2.760  1.1188 -0.2125 -0.2515
18146SOL    HW266164   3.457   2.420   2.726 -0.3130  0.7392 -0.4469
18147SOL     OW66165   0.777   9.154  10.787 -0.0532  0.3116  0.1383
18147SOL    HW166166   0.725   9.088  10.833 -0.9897 -0.1120 -1.4748
18147SOL    HW266167   0.833   9.105  10.728 -1.8880  0.9016 -2.2635
18148SOL     OW66168  12.453   4.869   6.058  0.2802 -0.8804 -0.5424
18148SOL    HW166169  12.513   4.801   6.028  1.1189 -0.2144 -0.3988
18148SOL    HW266170  12.510   4.941   6.085 -0.5957 -0.1520 -0.6082
18149SOL     OW66171  10.428   1.366   5.579  0.0398  0.1959 -0.1118
18149SOL    HW166172  10.473   1.378   5.495 -0.5579 -0.1625 -0.4878
18149SOL    HW266173  10.337   1.350   5.556  0.2383 -2.1708  0.4681
18150SOL     OW66174   1.249   3.298  12.978  0.0741 -0.5664  0.5262
18150SOL    HW166175   1.239   3.371  13.039 -0.1924  0.9740 -1.2657
18150SOL    HW266176   1.331   3.256  13.003  1.3223  1.6301  0.3674
18151SOL     OW66177   8.010   6.731  12.527  0.3822  0.1124  0.5019
18151SOL    HW166178   7.986   6.733  12.620  2.2574 -0.3176  1.0410
18151SOL    HW266179   8.026   6.638  12.508 -0.0412  0.1899 -0.2694
18152SOL     OW66180  12.295   8.320  10.924 -0.4603  0.1605 -0.1641
18152SOL    HW166181  12.244   8.377  10.982  0.4519  1.8819 -0.9746
18152SOL    HW266182  12.375   8.301  10.973 -0.3702  0.3247 -0.2472
18153SOL     OW66183  10.748   3.978   0.269  0.5200 -0.5911  0.5605
18153SOL    HW166184  10.839   3.977   0.297  1.7124 -1.0571 -2.8331
18153SOL    HW266185  10.715   3.890   0.289  1.8456 -1.4759 -0.8877
18154SOL     OW66186   9.252   6.329   5.011  0.1505  0.0058  0.2669
18154SOL    HW166187   9.206   6.368   5.085 -0.5126 -1.6401  0.7654
18154SOL    HW266188   9.183   6.302   4.951  0.5564 -0.6552  0.0819
18155SOL     OW66189   8.413  13.322   7.278  0.2896 -0.3088 -0.1326
18155SOL    HW166190   8.401  13.412   7.249  0.5061 -0.3481 -0.3622
18155SOL    HW266191   8.447  13.329   7.367  1.8797 -0.1021 -0.7122
18156SOL     OW66192   0.017   6.961   1.538  0.1605  0.0624  0.3307
18156SOL    HW166193   0.002   6.924   1.625 -1.7329 -1.2667 -0.5036
18156SOL    HW266194  -0.061   7.013   1.520  0.0494 -0.5046 -0.9644
18157SOL     OW66195   9.303   0.469  13.496  0.3572 -0.1184 -0.0318
18157SOL    HW166196   9.282   0.505  13.410 -2.1592 -1.1113  0.0657
18157SOL    HW266197   9.266   0.380  13.494 -1.0198  0.3094  2.4861
18158SOL     OW66198   9.248  12.570   0.379 -0.1868  0.4111 -0.3527
18158SOL    HW166199   9.194  12.620   0.318  1.1500 -0.5042 -2.4125
18158SOL    HW266200   9.189  12.547   0.451 -1.2864  3.3945 -0.1624
18159SOL     OW66201   2.861   3.344   2.100  0.2134 -0.0483 -0.1097
18159SOL    HW166202   2.937   3.392   2.133 -0.8368  1.1338  0.6790
18159SOL    HW266203   2.830   3.294   2.176 -0.3895  0.2657 -0.1489
18160SOL     OW66204   9.110   0.153   2.533 -0.0780 -0.8185  0.0264
18160SOL    HW166205   9.124   0.069   2.578 -2.2059 -1.4765 -0.4285
18160SOL    HW266206   9.016   0.154   2.514 -0.2809  2.0921  0.7988
18161SOL     OW66207   6.933   0.473   4.970 -0.1210  0.0799  0.2748
18161SOL    HW166208   6.839   0.475   4.956 -0.3035  0.3144  1.5078
18161SOL    HW266209   6.950   0.538   5.037  1.0770  0.8831 -0.7435
18162SOL     OW66210   6.199   3.089  11.519  0.4334  0.3278 -0.1517
18162SOL    HW166211   6.188   3.097  11.425  0.6949  0.9439 -0.1292
18162SOL    HW266212   6.154   3.007  11.541 -0.2401  0.5443 -0.7057
18163SOL     OW66213   0.477   0.968   0.318  0.1013 -0.2113 -0.0584
18163SOL    HW166214   0.502   1.047   0.366  0.8939  0.4162 -1.4169
18163SOL    HW266215   0.461   0.999   0.229 -0.8783 -1.3967 -0.3226
18164SOL     OW66216   7.741   5.699   0.065 -0.2758  0.1682  0.1195
18164SOL    HW166217   7.658   5.747   0.058 -1.2590 -1.6238 -1.7773
18164SOL    HW266218   7.762   5.676  -0.025  2.4611  0.7417  0.5317
18165SOL     OW66219   5.801   2.850   0.606 -0.0750 -0.1313  0.8718
18165SOL    HW166220   5.799   2.914   0.677  0.4457  0.2546  0.5419
18165SOL    HW266221   5.813   2.901   0.527  0.6574 -0.6494  0.6307
18166SOL     OW66222  11.913   1.245   9.968 -0.1017 -0.4255  0.0386
18166SOL    HW166223  11.958   1.223   9.886 -0.3774  2.1552 -0.9205
18166SOL    HW266224  11.949   1.184  10.032  1.8947 -1.0147 -1.5144
18167SOL     OW66225   7.954   8.687   9.538  0.3036  0.1783 -0.1200
18167SOL    HW166226   8.040   8.708   9.576 -0.1456 -0.4837  1.3313
18167SOL    HW266227   7.960   8.594   9.516 -0.5973 -0.3365  1.6458
18168SOL     OW66228   8.328   1.056   0.720  0.1125  0.4147  0.4192
18168SOL    HW166229   8.353   0.966   0.740  0.1999  0.0963 -1.0124
18168SOL    HW266230   8.338   1.063   0.625  0.8916  2.1749  0.5850
18169SOL     OW66231   3.919   1.272   6.162  0.7456 -0.2098  0.2449
18169SOL    HW166232   4.006   1.237   6.184  1.3113  1.4763  0.8963
18169SOL    HW266233   3.926   1.366   6.181 -0.4361  0.4390 -2.0929
18170SOL     OW66234  11.194   5.319   7.929 -0.9920 -0.0966 -0.0936
18170SOL    HW166235  11.167   5.339   8.018  1.0653  0.1222  0.5179
18170SOL    HW266236  11.173   5.227   7.917  0.6603 -0.7190  1.4164
18171SOL     OW66237   4.895   0.931   0.873 -0.3739 -0.5316 -0.0607
18171SOL    HW166238   4.915   0.975   0.790  1.3892 -0.2090  0.4802
18171SOL    HW266239   4.962   0.964   0.933  0.1566 -2.8944  0.7465
18172SOL     OW66240   3.712   9.781  12.212  0.2904  0.6909  0.2243
18172SOL    HW166241   3.769   9.760  12.286  2.3234 -1.8871 -1.9216
18172SOL    HW266242   3.628   9.741  12.235  0.9908 -0.3877  0.9891
18173SOL     OW66243  12.994  13.022  13.127  0.2545  0.0064  0.7102
18173SOL    HW166244  13.057  13.023  13.199 -0.2401  1.7481  1.1744
18173SOL    HW266245  12.908  13.023  13.171 -0.0533  1.4858  0.1362
18174SOL     OW66246   7.812   7.100  12.170  0.4358  0.2124  0.0773
18174SOL    HW166247   7.802   7.105  12.075  0.9430  0.4256  0.0305
18174SOL    HW266248   7.752   7.166  12.204  1.1736  1.0342 -0.1628
18175SOL     OW66249   3.513   4.301   6.956 -0.2400 -0.2863 -0.0873
18175SOL    HW166250   3.460   4.301   7.035 -0.5879 -0.3887 -0.3213
18175SOL    HW266251   3.514   4.393   6.927 -0.3204 -0.2905 -0.1030
18176SOL     OW66252   6.358   2.242   9.731  0.2721 -0.7099  0.0860
18176SOL    HW166253   6.407   2.256   9.812 -0.8715 -0.5666  0.7767
18176SOL    HW266254   6.407   2.291   9.664  2.0639 -2.0304  0.3321
18177SOL     OW66255   2.756   5.022   3.930 -0.2681 -0.3489 -0.0797
18177SOL    HW166256   2.718   4.936   3.949 -1.3531 -0.2125 -1.4876
18177SOL    HW266257   2.849   5.012   3.950 -0.2920 -1.9839 -0.6386
18178SOL     OW66258  10.681  10.346  11.766  0.0775  0.4210 -0.3634
18178SOL    HW166259  10.700  10.374  11.677  2.6305 -0.4338 -0.1551
18178SOL    HW266260  10.758  10.371  11.817 -0.5274 -0.7609  1.2363
18179SOL     OW66261   1.563   1.411   4.402 -0.2214 -0.3398 -0.2126
18179SOL    HW166262   1.635   1.471   4.384 -0.3216  0.0255  0.5558
18179SOL    HW266263   1.528   1.389   4.316  0.4804 -0.1215 -0.5651
18180SOL     OW66264   5.869  12.861   7.523  0.1275 -0.5710  0.1534
18180SOL    HW166265   5.775  12.849   7.509 -0.3692  2.2691  0.4236
18180SOL    HW266266   5.906  12.860   7.435 -0.3432 -0.4517 -0.0519
18181SOL     OW66267   2.264  11.418   5.839  0.0682 -0.6641  0.6745
18181SOL    HW166268   2.248  11.507   5.868  0.4746  0.4220 -2.0903
18181SOL    HW266269   2.359  11.410   5.834  0.0404 -0.4276 -1.1320
18182SOL     OW66270   7.530   6.860   0.085  0.9749 -0.1311 -0.6352
18182SOL    HW166271   7.482   6.887   0.006  1.3125 -0.5048 -0.9740
18182SOL    HW266272   7.581   6.784   0.057  3.2987  1.3770 -0.8626
18183SOL     OW66273   5.725  13.586   3.623  0.0391  0.0624  0.3239
18183SOL    HW166274   5.721  13.659   3.684 -0.0915  1.6301 -1.4703
18183SOL    HW266275   5.653  13.602   3.561  0.5045 -1.1401 -0.5771
18184SOL     OW66276  13.678   1.894   5.396 -0.0410  0.2825 -0.3521
18184SOL    HW166277  13.625   1.862   5.322  0.2752  2.2821 -1.5284
18184SOL    HW266278  13.661   1.832   5.466 -1.2954 -1.0408 -1.7420
18185SOL     OW66279  13.478   2.644   4.255  0.5872  0.5903  0.0215
18185SOL    HW166280  13.492   2.551   4.275  0.5097  0.2981 -1.1925
18185SOL    HW266281  13.562   2.674   4.221  0.3136  0.6810 -0.5878
18186SOL     OW66282   5.039  12.524   2.442  0.7158  0.5833  0.0463
18186SOL    HW166283   5.090  12.444   2.440  0.5877  0.5131 -0.4450
18186SOL    HW266284   4.949  12.496   2.423  0.3637  0.6122  1.5443
18187SOL     OW66285  11.910   3.822   2.733  0.0792  0.2578 -0.2598
18187SOL    HW166286  11.900   3.732   2.764  1.4308  0.0179 -0.4683
18187SOL    HW266287  11.858   3.874   2.794  0.0461 -0.5706  0.4346
18188SOL     OW66288   0.313   1.581   6.004  0.0911 -0.8762  0.0839
18188SOL    HW166289   0.218   1.579   5.999 -0.0193 -0.2820  1.4378
18188SOL    HW266290   0.339   1.490   6.016 -0.2774 -1.0606 -0.4622
18189SOL     OW66291   2.962   9.836   6.461 -0.1158 -0.0203  0.0913
18189SOL    HW166292   2.935   9.838   6.369 -0.5573  0.4571  0.2238
18189SOL    HW266293   2.879   9.828   6.509 -0.1407  2.4404  0.5555
18190SOL     OW66294  10.881   3.317   7.862  0.2695 -0.3166  0.2011
18190SOL    HW166295  10.913   3.383   7.923 -0.6088  0.3124  0.0038
18190SOL    HW266296  10.875   3.362   7.778  0.7972 -0.9845 -0.2055
18191SOL     OW66297   1.455   0.083   5.009 -0.4464  0.1360  0.0976
18191SOL    HW166298   1.490   0.099   4.921  0.3825 -0.5877  0.2799
18191SOL    HW266299   1.514   0.132   5.067 -0.5516  0.0095  0.3103
18192SOL     OW66300   3.745   0.017   1.426 -0.8730  0.7128 -0.2162
18192SOL    HW166301   3.716   0.030   1.516 -0.9448 -1.0745  0.0588
18192SOL    HW266302   3.757  -0.078   1.418 -0.0320  0.9174 -1.8366
18193SOL     OW66303   0.518  10.603  10.280  0.1634 -0.4084 -0.1456
18193SOL    HW166304   0.466  10.584  10.358 -0.7377 -0.4547 -0.7447
18193SOL    HW266305   0.460  10.655  10.225  0.3022 -1.4966 -1.3608
18194SOL     OW66306   8.952   9.586   1.398 -0.3260  0.4535  0.2244
18194SOL    HW166307   8.890   9.653   1.427  0.5597  1.3264  0.1660
18194SOL    HW266308   8.978   9.614   1.310  0.7661  0.5621  0.5657
18195SOL     OW66309  11.992   2.438   6.574  0.2185 -0.2033 -0.0602
18195SOL    HW166310  11.911   2.388   6.576 -0.1761  0.4155 -0.4862
18195SOL    HW266311  12.006   2.464   6.666  1.1377 -2.1864  0.4186
18196SOL     OW66312   0.424   2.372   7.798  0.2043 -0.3118 -0.3632
18196SOL    HW166313   0.490   2.440   7.810  0.7100 -0.7843 -0.4745
18196SOL    HW266314   0.353   2.416   7.750  0.7345  0.0033 -0.8606
18197SOL     OW66315   9.004   9.308   1.310  0.0035  0.6913 -0.3355
18197SOL    HW166316   8.974   9.369   1.242 -0.7932  0.1379 -0.4974
18197SOL    HW266317   9.046   9.364   1.375 -0.0840  1.3381 -0.8258
18198SOL     OW66318   1.925   9.491   7.168 -0.1781  0.3859  0.1525
18198SOL    HW166319   1.842   9.467   7.209  0.1184  2.5880  2.2341
18198SOL    HW266320   1.987   9.424   7.197 -0.7585 -0.1195  0.2459
18199SOL     OW66321   5.942   1.679   6.910  0.2353  0.0622 -0.1648
18199SOL    HW166322   5.914   1.682   6.819  0.3022 -0.4167 -0.2041
18199SOL    HW266323   5.871   1.635   6.956  0.1982  0.3107  0.0200
18200SOL     OW66324  10.772   2.633  10.810 -0.3387  0.0724 -0.7556
18200SOL    HW166325  10.707   2.660  10.745 -0.4497  0.9203 -0.3030
18200SOL    HW266326  10.821   2.562  10.767 -0.7301  0.2876 -1.5732
18201SOL     OW66327  10.275   4.415   7.875  0.5661  0.9513 -0.2456
18201SOL    HW166328  10.319   4.386   7.795  0.1252  0.9098 -0.4778
18201SOL    HW266329  10.203   4.353   7.887  0.3723  1.2094 -0.0568
18202SOL     OW66330  13.200   6.009  13.731 -0.3396 -0.1413  0.0148
18202SOL    HW166331  13.292   6.010  13.707 -0.7742  0.0267 -1.8051
18202SOL    HW266332  13.187   6.090  13.780  0.6118 -0.5313  0.9546
18203SOL     OW66333  10.000   3.071   2.492  0.0152  0.6340  0.0245
18203SOL    HW166334   9.914   3.111   2.477 -0.5932 -1.4081 -2.9765
18203SOL    HW266335   9.979   2.980   2.515  1.3353  0.1662 -0.5406
18204SOL     OW66336  11.667  13.723  13.167  0.8392 -0.4558  0.4016
18204SOL    HW166337  11.684  13.749  13.077  0.6945 -0.6079  0.3289
18204SOL    HW266338  11.748  13.743  13.214  0.5125  0.7692  0.4977
18205SOL     OW66339   7.679   5.074   8.754  0.2413 -0.5071  0.2219
18205SOL    HW166340   7.612   5.014   8.723 -0.0039 -1.2472  2.0263
18205SOL    HW266341   7.755   5.056   8.699 -1.4545  1.6849 -3.1868
18206SOL     OW66342   8.810   0.849  13.486  0.2218 -0.3756 -0.3153
18206SOL    HW166343   8.885   0.856  13.427  0.4459 -0.8230 -0.0830
18206SOL    HW266344   8.846   0.861  13.573 -0.0162 -0.3410 -0.2195
18207SOL     OW66345   2.214  13.595   2.821 -0.0236  0.1487  0.3330
18207SOL    HW166346   2.177  13.674   2.781 -0.3334  0.4399  1.1533
18207SOL    HW266347   2.218  13.531   2.750  0.1835  0.8865 -0.3310
18208SOL     OW66348  10.610   6.365   4.660  0.7860  0.0794 -0.3343
18208SOL    HW166349  10.527   6.384   4.704  1.0485  0.8070 -0.1314
18208SOL    HW266350  10.618   6.270   4.664  1.8660  0.1377  3.2937
18209SOL     OW66351   2.763  10.220  10.150 -0.8114 -0.2838  0.4228
18209SOL    HW166352   2.668  10.214  10.160 -0.7761  0.1043  1.0004
18209SOL    HW266353   2.777  10.211  10.056 -1.5312  1.1339  0.1526
18210SOL     OW66354   6.795  11.274   9.039 -0.6793 -0.1146 -0.4194
18210SOL    HW166355   6.720  11.241   8.989 -0.1349 -0.2433 -1.1756
18210SOL    HW266356   6.866  11.213   9.019  0.7712  2.1719 -3.0190
18211SOL     OW66357  11.575   9.527   2.622 -0.3260 -0.3132 -0.1103
18211SOL    HW166358  11.516   9.581   2.569 -1.1303 -1.3493 -0.3198
18211SOL    HW266359  11.600   9.583   2.695 -0.4439  0.6242 -0.7704
18212SOL     OW66360   1.346   4.593  13.187  0.1664  0.0446  0.5156
18212SOL    HW166361   1.319   4.671  13.235  0.3343  0.7648 -0.5148
18212SOL    HW266362   1.281   4.527  13.210 -0.2930  0.6462  0.9859
18213SOL     OW66363   1.483   6.689   2.862 -0.2648  0.6264 -0.2159
18213SOL    HW166364   1.544   6.762   2.853 -0.6681  1.0039  0.0910
18213SOL    HW266365   1.468   6.682   2.956 -1.5439  1.2477 -0.3446
18214SOL     OW66366   5.690   6.784   6.332 -0.2845  0.1336 -0.4075
18214SOL    HW166367   5.643   6.852   6.380  0.5751 -0.3188  1.1448
18214SOL    HW266368   5.689   6.814   6.241 -3.1733  0.3255 -0.3989
18215SOL     OW66369   0.454  12.031   0.277  0.3910 -0.3379 -0.1794
18215SOL    HW166370   0.380  11.970   0.266  2.0180 -2.6197  0.7624
18215SOL    HW266371   0.430  12.084   0.353 -0.1793 -1.2659  0.3102
18216SOL     OW66372   3.669  13.643  13.566 -0.7471  0.1949 -0.1914
18216SOL    HW166373   3.719  13.718  13.533 -1.4803  0.2594 -1.1939
18216SOL    HW266374   3.736  13.580  13.592 -0.1309  0.7992 -0.2817
18217SOL     OW66375  12.353   8.036   2.843 -0.0172 -0.1907  0.4040
18217SOL    HW166376  12.393   8.122   2.829 -1.5746  1.5114  4.6455
18217SOL    HW266377  12.262   8.047   2.815  0.2107 -1.1155 -0.7601
18218SOL     OW66378   0.624   3.949  10.214 -0.1592  0.3315 -0.1925
18218SOL    HW166379   0.534   3.971  10.237 -0.3063 -1.2015  0.8783
18218SOL    HW266380   0.677   4.006  10.271 -0.5192 -1.2162  1.8228
18219SOL     OW66381  11.883  10.256   6.600 -0.1352  0.0532  0.0026
18219SOL    HW166382  11.891  10.303   6.517 -0.6212 -0.3127 -0.2574
18219SOL    HW266383  11.972  10.251   6.634  0.1567 -0.3193 -0.7921
18220SOL     OW66384   6.141   1.858   7.755  0.2511  0.1406  0.2637
18220SOL    HW166385   6.220   1.910   7.772 -0.0562  0.5261  0.5303
18220SOL    HW266386   6.102   1.899   7.677 -0.0745  0.4059  0.5664
18221SOL     OW66387   7.276  11.336   4.158  0.4710 -0.2402  0.4470
18221SOL    HW166388   7.326  11.403   4.206  0.6438 -0.8758  1.1680
18221SOL    HW266389   7.279  11.365   4.067  0.5468  0.7359  0.7489
18222SOL     OW66390   6.490   8.887   3.779  0.1814  0.0973  0.0820
18222SOL    HW166391   6.501   8.868   3.872 -1.7054  0.4863  0.4144
18222SOL    HW266392   6.507   8.981   3.772 -1.4437  0.4467  0.3867
18223SOL     OW66393   3.783   5.815   5.100  0.3013 -0.3996  0.2677
18223SOL    HW166394   3.807   5.862   5.020  1.5031 -0.6502  0.4560
18223SOL    HW266395   3.770   5.885   5.165 -2.4448 -0.0632 -0.5109
18224SOL     OW66396  10.056  11.724   0.956  0.2923  0.3571 -0.5132
18224SOL    HW166397  10.018  11.750   0.873 -1.2012 -2.0358 -0.6551
18224SOL    HW266398  10.055  11.628   0.955 -0.7802  0.2195  2.6783
18225SOL     OW66399  10.481   2.379   0.059 -0.4879 -0.0046  0.0215
18225SOL    HW166400  10.574   2.360   0.056 -0.8044 -1.7633  0.1256
18225SOL    HW266401  10.442   2.322  -0.007 -1.3503  1.8829 -1.2027
18226SOL     OW66402   4.934   4.045   8.992  0.3869 -0.6938 -0.3704
18226SOL    HW166403   4.883   3.976   8.949  0.1939 -0.3663 -0.6648
18226SOL    HW266404   4.892   4.055   9.078  0.4997 -1.0380 -0.2729
18227SOL     OW66405   4.245   2.038  12.306  0.2526 -0.1129 -0.0868
18227SOL    HW166406   4.243   1.981  12.228 -0.9209 -0.9182  0.5053
18227SOL    HW266407   4.338   2.056  12.319  0.5052 -0.3684 -1.3927
18228SOL     OW66408   8.604   8.152   2.723 -0.2079 -0.4671  0.4581
18228SOL    HW166409   8.509   8.162   2.717 -0.3428 -1.0145  1.4653
18228SOL    HW266410   8.618   8.059   2.741  0.5008 -0.3318  0.6451
18229SOL     OW66411   2.761   7.620   2.810  0.3735  0.0669  0.0536
18229SOL    HW166412   2.726   7.537   2.841  0.2272  0.1446  0.0950
18229SOL    HW266413   2.852   7.600   2.785  0.0640 -0.3071 -0.7916
18230SOL     OW66414   1.347  11.243   2.698  0.5127 -0.1157 -0.3695
18230SOL    HW166415   1.279  11.308   2.680 -0.2809 -1.3106 -1.9625
18230SOL    HW266416   1.306  11.183   2.760  0.7041  0.0511 -0.0790
18231SOL     OW66417   9.055  10.571  13.360 -0.0392  0.6008  0.3455
18231SOL    HW166418   8.967  10.566  13.397 -0.2090 -0.0266 -0.1378
18231SOL    HW266419   9.075  10.483  13.330  0.4854  0.8803 -0.1653
18232SOL     OW66420   3.528   9.893  11.628  0.3088 -0.6112 -0.0483
18232SOL    HW166421   3.573   9.919  11.548 -0.5076 -1.5531 -0.8393
18232SOL    HW266422   3.569   9.946  11.697  1.7106 -0.5026 -0.9226
18233SOL     OW66423   5.055   0.395   7.999 -0.0070  0.1749 -0.1739
18233SOL    HW166424   4.973   0.386   8.047 -0.0854  0.2008 -0.3038
18233SOL    HW266425   5.113   0.441   8.060  0.2629 -0.8192  0.3367
18234SOL     OW66426  10.446   0.179  13.732  0.6985 -0.2586 -0.2259
18234SOL    HW166427  10.353   0.190  13.710  0.8292 -0.2814 -0.8085
18234SOL    HW266428  10.487   0.262  13.707  0.5558  0.4528  1.6849
18235SOL     OW66429   5.633  10.811   1.713 -0.2550 -0.3038 -0.2505
18235SOL    HW166430   5.574  10.736   1.722  0.3205 -0.5473  2.1298
18235SOL    HW266431   5.582  10.886   1.742  0.2103 -0.3462  0.7318
18236SOL     OW66432   2.213   0.819   8.926 -0.4944 -0.0839  0.1558
18236SOL    HW166433   2.282   0.837   8.861  1.0920 -0.1355  1.7419
18236SOL    HW266434   2.134   0.807   8.874  0.1151  2.5798 -1.6253
18237SOL     OW66435   1.845   2.917  10.320 -0.3593 -0.2762 -0.2152
18237SOL    HW166436   1.846   3.012  10.328  0.6313 -0.4061  1.9750
18237SOL    HW266437   1.776   2.888  10.381  1.0701 -1.0303  1.1086
18238SOL     OW66438   3.487   6.310   8.005  0.0221 -0.1165 -0.3232
18238SOL    HW166439   3.553   6.241   8.016  0.2864  0.1587 -0.1608
18238SOL    HW266440   3.405   6.263   7.993 -0.1143 -0.4744  1.6554
18239SOL     OW66441  12.892   6.082  10.206  0.4916 -0.1319 -0.2517
18239SOL    HW166442  12.831   6.080  10.132  0.5747  0.5251 -0.3407
18239SOL    HW266443  12.924   6.172  10.209  0.2490 -0.0599  0.7734
18240SOL     OW66444   1.080   6.871   6.177  0.3775  0.2882  0.5220
18240SOL    HW166445   1.120   6.828   6.252  1.4349 -0.6535 -0.5318
18240SOL    HW266446   1.119   6.958   6.174  0.6420  0.1785  0.8224
18241SOL     OW66447   3.357   8.973   1.254  0.7387 -0.2568  0.7783
18241SOL    HW166448   3.297   8.937   1.319  1.6808 -2.6200  0.4508
18241SOL    HW266449   3.339   9.067   1.254 -2.8739 -0.8004  0.7505
18242SOL     OW66450   7.790  11.975   3.066  0.1279  0.1982  0.5073
18242SOL    HW166451   7.730  12.030   3.014  0.4082  0.2959  0.2853
18242SOL    HW266452   7.801  11.896   3.013  1.4151  0.8189 -0.1974
18243SOL     OW66453   9.030   0.713   2.029  0.8297 -0.6853 -0.0602
18243SOL    HW166454   9.084   0.786   2.059  1.1362 -1.0610  0.3090
18243SOL    HW266455   9.036   0.717   1.934  3.6150 -2.2435 -0.0508
18244SOL     OW66456  10.221   0.963   0.366  0.5856 -0.2196 -0.3874
18244SOL    HW166457  10.207   1.035   0.427 -0.8199 -0.0981 -0.8247
18244SOL    HW266458  10.306   0.927   0.390  1.0859  1.2706  0.1561
18245SOL     OW66459  11.228   2.654   9.118 -0.1670 -0.1188  0.3238
18245SOL    HW166460  11.237   2.702   9.201 -0.9130 -0.3379  0.5441
18245SOL    HW266461  11.240   2.562   9.142 -2.9890 -0.4889  0.7252
18246SOL     OW66462  12.359   4.292  12.739 -0.1649  0.4312  0.2855
18246SOL    HW166463  12.346   4.239  12.818 -1.7832 -0.1837 -0.3385
18246SOL    HW266464  12.372   4.228  12.669 -2.8169  0.7293 -0.6005
18247SOL     OW66465   2.525   9.354   5.547  0.4501  0.5781 -0.4738
18247SOL    HW166466   2.587   9.299   5.498  1.1243  1.4306 -0.6085
18247SOL    HW266467   2.439   9.327   5.516  0.6262 -1.7624  0.8573
18248SOL     OW66468   0.143   2.902   6.995  0.2344 -0.3303  0.0148
18248SOL    HW166469   0.126   2.978   7.050  0.1762  0.6030 -1.2480
18248SOL    HW266470   0.230   2.872   7.021  0.0594 -0.1478  0.8510
18249SOL     OW66471  11.912   0.670   7.587 -0.4012 -0.2276 -0.1758
18249SOL    HW166472  11.867   0.647   7.506 -2.1696 -0.2631  0.7533
18249SOL    HW266473  11.841   0.698   7.646  0.5987 -1.8493  1.9117
18250SOL     OW66474   7.691   8.267   2.617 -0.2039  0.5468  0.3675
18250SOL    HW166475   7.649   8.337   2.668  0.6395  0.2629  1.4879
18250SOL    HW266476   7.759   8.311   2.566 -0.6037  0.7349 -0.0086
18251SOL     OW66477  11.308  12.204  12.692 -0.3194  0.1600  0.0156
18251SOL    HW166478  11.347  12.136  12.746  0.6575  0.6431 -0.0714
18251SOL    HW266479  11.318  12.172  12.602 -0.7216 -0.0080  0.0242
18252SOL     OW66480  13.486  10.334   7.001 -0.0531 -0.3504 -0.2829
18252SOL    HW166481  13.405  10.338   7.052  0.4531 -0.6017  0.5562
18252SOL    HW266482  13.502  10.424   6.974 -0.2761 -0.1964  0.0856
18253SOL     OW66483   0.670   4.779   0.850 -0.5623 -0.2240  0.0371
18253SOL    HW166484   0.757   4.760   0.814 -0.6971 -0.5418 -0.1263
18253SOL    HW266485   0.651   4.868   0.821  0.0359  0.1335  0.7276
18254SOL     OW66486  11.922  10.337   9.479 -0.6222  0.1506 -0.1630
18254SOL    HW166487  11.925  10.334   9.383 -2.7532 -1.2538 -0.2559
18254SOL    HW266488  12.010  10.311   9.507  0.1084  0.8289 -1.7172
18255SOL     OW66489  11.587   8.983   1.200 -0.0689  0.0796  0.3283
18255SOL    HW166490  11.563   9.009   1.289 -0.5341  0.3632  0.1204
18255SOL    HW266491  11.653   9.047   1.174  1.0976 -0.8242  0.9761
18256SOL     OW66492   8.299   7.350   8.846  0.7581 -0.5689 -0.1693
18256SOL    HW166493   8.362   7.372   8.916  0.6428 -0.8632  0.0296
18256SOL    HW266494   8.231   7.416   8.854  1.5061  0.3331 -0.9983
18257SOL     OW66495  11.513   6.430   1.031  0.2629  0.3103  0.1590
18257SOL    HW166496  11.488   6.342   1.004 -1.0367  1.1430 -1.4765
18257SOL    HW266497  11.488   6.434   1.123 -0.3940 -0.7488  0.0469
18258SOL     OW66498   5.418   7.291  13.228  0.0556 -0.4436  0.0932
18258SOL    HW166499   5.478   7.364  13.240  0.1416 -0.5615  0.3887
18258SOL    HW266500   5.452   7.244  13.152 -0.3220  0.1388 -0.4462
18259SOL     OW66501  10.750   1.601   1.237 -0.3669  0.3561  0.4228
18259SOL    HW166502  10.835   1.640   1.257 -0.7877  0.9761  1.0490
18259SOL    HW266503  10.703   1.668   1.187 -0.2364 -0.2591 -0.5646
18260SOL     OW66504   2.768   9.081   3.346  0.7434 -0.6563  0.0556
18260SOL    HW166505   2.777   8.985   3.350  2.9172 -0.5077  0.0723
18260SOL    HW266506   2.676   9.096   3.325  0.8516 -2.8068 -2.4031
18261SOL     OW66507   8.385   6.913  12.105  0.4672  0.2070 -0.1059
18261SOL    HW166508   8.334   6.836  12.082  2.1336 -0.7309 -0.9042
18261SOL    HW266509   8.337   6.987  12.068 -1.9658 -0.1961  1.9751
18262SOL     OW66510   9.155   4.040   7.599  0.5145  0.6254  0.1704
18262SOL    HW166511   9.184   3.949   7.601  2.4416  1.0974 -1.8432
18262SOL    HW266512   9.090   4.043   7.529  0.9453  0.8802 -0.2309
18263SOL     OW66513   0.495   8.188   6.340 -0.2290  0.0412 -0.0879
18263SOL    HW166514   0.587   8.215   6.343 -0.5537  1.2660 -0.5034
18263SOL    HW266515   0.446   8.268   6.358 -1.2515 -0.2446 -1.4107
18264SOL     OW66516   2.440   7.371  12.202 -0.2148 -0.3818  0.0744
18264SOL    HW166517   2.360   7.387  12.152 -0.7339 -1.3125  0.5691
18264SOL    HW266518   2.415   7.302  12.264  1.3210 -1.6593 -0.6646
18265SOL     OW66519  12.376   8.386   2.097 -0.2340  0.1894 -0.0692
18265SOL    HW166520  12.421   8.325   2.040 -1.3930 -1.1384  0.3909
18265SOL    HW266521  12.322   8.440   2.039  0.0538  0.1380 -0.3829
18266SOL     OW66522  13.588   0.755   7.748 -0.1201 -0.3885 -0.0644
18266SOL    HW166523  13.677   0.781   7.724 -0.5534 -0.4628 -1.8659
18266SOL    HW266524  13.580   0.664   7.718 -0.9232 -0.2535 -0.2958
18267SOL     OW66525   5.715   4.960  13.513  0.4428 -0.2021 -0.0329
18267SOL    HW166526   5.698   4.938  13.422  3.2487  1.3343 -1.0506
18267SOL    HW266527   5.764   5.042  13.510 -1.3363  1.1438  3.0289
18268SOL     OW66528   7.010  10.105  10.703  0.3076  0.3036 -0.3039
18268SOL    HW166529   6.975  10.179  10.653 -0.0291  0.2456 -0.1586
18268SOL    HW266530   7.078  10.068  10.648 -0.8490 -0.4875 -1.2522
18269SOL     OW66531   6.938  12.308   6.576 -0.2653 -0.1325  0.7369
18269SOL    HW166532   6.976  12.392   6.602 -1.9420  0.4356  1.5149
18269SOL    HW266533   6.891  12.278   6.654 -2.8323  0.0843 -0.6076
18270SOL     OW66534   7.282  12.529  12.199  0.6824  0.6577  0.4001
18270SOL    HW166535   7.272  12.623  12.217 -2.7796  0.7490 -1.1868
18270SOL    HW266536   7.338  12.526  12.121 -1.5739  1.7667 -1.4145
18271SOL     OW66537  12.678  11.332   6.656 -0.5232  0.2583  0.2514
18271SOL    HW166538  12.597  11.364   6.617 -0.2921  1.6189  0.8001
18271SOL    HW266539  12.745  11.350   6.590 -0.7155 -1.3152 -0.4019
18272SOL     OW66540   4.442  13.270  12.576  0.7158  0.6252  0.1744
18272SOL    HW166541   4.370  13.277  12.639 -0.1119  0.5590 -0.7403
18272SOL    HW266542   4.520  13.258  12.630  0.0028  0.3694  1.1811
18273SOL     OW66543  12.986  11.771   4.568  0.3821  0.4689  0.3875
18273SOL    HW166544  12.963  11.679   4.575 -0.5080  0.5398 -1.1200
18273SOL    HW266545  13.031  11.779   4.484  1.2983  1.2711  0.9199
18274SOL     OW66546   4.446   6.040   7.082  0.5613 -0.6143 -0.0593
18274SOL    HW166547   4.490   5.997   7.155 -0.1264  0.6074  1.1076
18274SOL    HW266548   4.513   6.095   7.042  0.3275  0.6714  1.2526
18275SOL     OW66549   7.626   6.041  12.408  0.1929 -0.3672  0.0327
18275SOL    HW166550   7.561   5.978  12.440  0.6039 -0.1587  1.3040
18275SOL    HW266551   7.703   6.026  12.461  0.2821  1.2401  0.3949
18276SOL     OW66552   8.968  10.930   6.675 -0.1414  0.1880 -0.4725
18276SOL    HW166553   8.895  10.871   6.658 -0.7560  1.1740 -1.3543
18276SOL    HW266554   9.000  10.955   6.588  2.1033 -1.2064 -0.1450
18277SOL     OW66555  12.415   9.784  12.190  1.1695 -0.1702 -0.3766
18277SOL    HW166556  12.479   9.803  12.259  0.6910  1.1658 -0.2777
18277SOL    HW266557  12.463   9.726  12.129  1.7876 -0.8677  0.7381
18278SOL     OW66558   5.766  13.594   4.118  0.2975 -0.5208 -0.4682
18278SOL    HW166559   5.857  13.565   4.125  0.1180 -1.1595 -0.7552
18278SOL    HW266560   5.736  13.562   4.033  0.1168  0.5877 -0.8454
18279SOL     OW66561  13.520  11.040   9.041 -0.0804 -0.1068  0.1343
18279SOL    HW166562  13.459  11.114   9.046 -2.6358 -1.8597 -1.8988
18279SOL    HW266563  13.598  11.076   9.000 -0.0172  2.0576  1.9589
18280SOL     OW66564   9.503   6.230   9.703  0.0803  0.2378 -0.5977
18280SOL    HW166565   9.426   6.181   9.731  0.2425 -0.3318 -1.1422
18280SOL    HW266566   9.556   6.167   9.653  0.6854  0.7380 -0.6091
18281SOL     OW66567  13.214   5.797   0.197  0.2855 -0.0757  0.3407
18281SOL    HW166568  13.308   5.804   0.214  0.0916  2.6182  0.7256
18281SOL    HW266569  13.201   5.845   0.115 -0.7601 -0.6100  0.1706
18282SOL     OW66570  13.207   2.150   5.475  0.1494  0.3292  0.3150
18282SOL    HW166571  13.147   2.145   5.400  0.2963  2.2251  0.0080
18282SOL    HW266572  13.294   2.140   5.438  0.0939 -2.2574  0.7408
18283SOL     OW66573   0.288   9.318   1.193  0.1279 -0.3459 -0.6334
18283SOL    HW166574   0.355   9.382   1.215 -1.3411  1.1066 -0.2829
18283SOL    HW266575   0.282   9.322   1.097 -0.2240  0.3145 -0.5848
18284SOL     OW66576   5.910   9.769   2.267 -0.1375 -0.4119 -0.9919
18284SOL    HW166577   5.990   9.791   2.314 -0.5639  0.1366 -0.4951
18284SOL    HW266578   5.859   9.718   2.330 -0.7434  0.3877 -0.8170
18285SOL     OW66579   8.004  12.010   0.849  0.1987  0.1581  0.0276
18285SOL    HW166580   8.022  12.078   0.912  0.3488  0.9196 -0.8183
18285SOL    HW266581   7.921  12.036   0.809  0.2566 -0.1487 -0.2998
18286SOL     OW66582  10.665   1.108   1.166 -0.0428  0.2893  0.5614
18286SOL    HW166583  10.594   1.096   1.229 -2.0313  3.1805 -0.9371
18286SOL    HW266584  10.646   1.045   1.096 -0.7130  0.5150  0.5354
18287SOL     OW66585   2.989   1.137   9.188 -0.1255  0.2627 -0.0320
18287SOL    HW166586   3.082   1.119   9.172  0.1038 -0.0069  1.3977
18287SOL    HW266587   2.970   1.217   9.139  1.4060  1.4767  1.2562
18288SOL     OW66588   7.829   9.981   0.896 -0.0288  0.7282  0.1924
18288SOL    HW166589   7.761  10.011   0.835 -1.7177 -1.9588  0.5712
18288SOL    HW266590   7.891   9.933   0.842  0.2491  1.1043  0.1747
18289SOL     OW66591   1.922   6.796   3.176 -0.3453  0.0463  0.0333
18289SOL    HW166592   1.900   6.879   3.219  0.0368  0.0438  0.2334
18289SOL    HW266593   1.963   6.821   3.094  1.5400  0.1005  0.9315
18290SOL     OW66594   9.858  10.103   3.018 -0.9733 -0.6977 -0.1453
18290SOL    HW166595   9.933  10.161   3.030 -1.1518 -0.8474  1.9826
18290SOL    HW266596   9.844  10.102   2.923  0.9700  0.2466 -0.4963
18291SOL     OW66597   6.736  13.237   8.676  0.0437 -0.2142  0.2415
18291SOL    HW166598   6.784  13.215   8.756 -0.8499 -0.1509  0.8075
18291SOL    HW266599   6.778  13.317   8.645  1.8167 -1.3979 -0.5702
18292SOL     OW66600  10.375   6.365  12.509  0.2924 -0.4909  0.1978
18292SOL    HW166601  10.461   6.375  12.549  0.0856  1.5261  0.2570
18292SOL    HW266602  10.333   6.295  12.559  0.8416  0.4762  2.1371
18293SOL     OW66603   3.185  10.685   1.052 -0.1755  0.3262  0.1906
18293SOL    HW166604   3.276  10.664   1.034 -0.4556  0.6191 -1.7514
18293SOL    HW266605   3.188  10.740   1.130  1.1666 -0.8044  0.9791
18294SOL     OW66606  13.704   7.964   5.987 -0.1633 -0.0891  0.0159
18294SOL    HW166607  13.682   8.057   5.979 -2.3859 -0.6853 -1.7375
18294SOL    HW266608  13.668   7.924   5.908  0.5119 -2.5055  0.8606
18295SOL     OW66609   7.257   7.491   1.374 -0.5884  0.2800  0.2777
18295SOL    HW166610   7.204   7.456   1.303  0.9222  0.7184 -1.1372
18295SOL    HW266611   7.195   7.540   1.428 -1.9552 -0.9362 -0.1252
18296SOL     OW66612   2.609  12.055   7.352  0.4652 -0.0348 -0.4993
18296SOL    HW166613   2.529  12.103   7.371  1.0762  0.5388  0.7993
18296SOL    HW266614   2.580  11.972   7.314 -0.9473 -1.1685  2.7354
18297SOL     OW66615   1.040   2.472   8.778 -0.0261 -0.0855  0.1001
18297SOL    HW166616   0.999   2.469   8.865  1.0503  4.4875  1.0377
18297SOL    HW266617   1.125   2.429   8.790 -0.0661  0.1210  1.2244
18298SOL     OW66618   8.416   6.088  13.326  0.2610  0.0362  1.0630
18298SOL    HW166619   8.363   6.030  13.271 -1.1893  2.0802  0.1496
18298SOL    HW266620   8.503   6.086  13.286  0.1232 -1.1231  0.7857
18299SOL     OW66621   8.598   6.783  11.323 -0.0475  0.3431 -0.3497
18299SOL    HW166622   8.586   6.755  11.233  1.0817 -1.0255 -0.1095
18299SOL    HW266623   8.692   6.781  11.337 -0.2784 -1.3399  1.4026
18300SOL     OW66624   0.986   8.195   1.337 -0.2767  0.4041  0.0874
18300SOL    HW166625   0.925   8.223   1.269  0.6630  0.3101 -0.8347
18300SOL    HW266626   1.038   8.126   1.295 -0.2371 -0.2671  1.1883
18301SOL     OW66627  10.482   3.251  12.053  0.6083 -0.2238  0.2747
18301SOL    HW166628  10.569   3.264  12.013  0.4088  0.2721 -0.0114
18301SOL    HW266629  10.423   3.302  11.998  0.1802 -0.3083  0.6523
18302SOL     OW66630   8.966   2.687  10.508 -0.4581  0.0114 -0.0107
18302SOL    HW166631   8.876   2.706  10.533 -0.6025 -0.7345  0.0326
18302SOL    HW266632   9.006   2.652  10.588 -1.4971 -4.4825 -1.1889
18303SOL     OW66633   8.049   0.979   1.892 -0.0594  0.1864  0.3669
18303SOL    HW166634   8.079   0.921   1.822 -0.8419  0.1546  0.0388
18303SOL    HW266635   8.094   0.948   1.971  2.9559  1.8877 -0.5223
18304SOL     OW66636   5.875  11.838   7.302  0.2039 -0.2294  0.2253
18304SOL    HW166637   5.907  11.825   7.214 -2.4355  0.9249 -1.0296
18304SOL    HW266638   5.831  11.923   7.300 -0.4531 -0.4301  2.4828
18305SOL     OW66639  12.086  10.551   0.130 -0.5502 -0.0105 -0.0798
18305SOL    HW166640  12.110  10.459   0.129  0.9715  0.3502 -1.1735
18305SOL    HW266641  12.160  10.595   0.173  0.6050  1.0605 -2.8764
18306SOL     OW66642   8.193   8.609  10.581  0.6768  0.4365  0.2652
18306SOL    HW166643   8.240   8.642  10.657 -0.8997  2.7262  0.3634
18306SOL    HW266644   8.159   8.688  10.538 -0.0736 -0.8992 -1.7444
18307SOL     OW66645   0.073  13.536   2.169 -0.3744  0.0840 -0.1649
18307SOL    HW166646   0.062  13.551   2.263 -2.9896 -1.7553 -0.0591
18307SOL    HW266647   0.157  13.576   2.148  0.7948 -0.3086  3.1503
18308SOL     OW66648   0.106  13.331   9.141 -0.0378  0.0703 -0.4365
18308SOL    HW166649   0.140  13.399   9.083  0.9028 -1.2228 -1.4619
18308SOL    HW266650   0.044  13.377   9.198 -0.6520  1.4660 -2.1465
18309SOL     OW66651  10.590  12.900   5.827  0.0241  0.2614 -0.8146
18309SOL    HW166652  10.565  12.933   5.740  0.6176  0.3273 -0.9663
18309SOL    HW266653  10.677  12.862   5.814 -1.1130 -2.4589 -0.9048
18310SOL     OW66654   7.323   2.185   6.128 -0.0633  0.4029 -0.2192
18310SOL    HW166655   7.229   2.167   6.116 -0.2813  0.6964  0.9238
18310SOL    HW266656   7.348   2.235   6.051 -1.3534  2.1253  0.4180
18311SOL     OW66657   8.491   2.485   4.227  1.0074  0.5784  0.2243
18311SOL    HW166658   8.529   2.504   4.313  1.4057 -0.2888  0.2510
18311SOL    HW266659   8.447   2.566   4.202 -0.3013  0.4291  1.8548
18312SOL     OW66660   9.922   0.258   3.206  0.1130  0.3284 -0.0899
18312SOL    HW166661   9.973   0.232   3.129  1.1279  0.9759  0.3346
18312SOL    HW266662   9.876   0.179   3.232  1.8495 -0.6521  0.2081
18313SOL     OW66663   2.269   5.358  10.142 -0.2756 -0.0407 -0.6932
18313SOL    HW166664   2.269   5.433  10.202 -1.1705 -1.3876  1.0552
18313SOL    HW266665   2.343   5.305  10.170 -1.2486 -1.1409 -0.1475
18314SOL     OW66666   5.910   1.721   7.864  0.4485  0.2052  0.5123
18314SOL    HW166667   5.998   1.759   7.854  0.2383  0.5272 -0.2124
18314SOL    HW266668   5.851   1.790   7.834 -0.0228 -0.2037  0.4929
18315SOL     OW66669   4.917   3.698   9.871  0.2814  0.2051  0.1910
18315SOL    HW166670   4.917   3.794   9.877 -2.0226  0.2462  0.5409
18315SOL    HW266671   5.001   3.677   9.831  1.0185  2.3420  0.4506
18316SOL     OW66672   4.370  11.490   6.415 -0.1543  0.4847  0.4214
18316SOL    HW166673   4.331  11.531   6.338 -3.4099  0.8194  2.0871
18316SOL    HW266674   4.353  11.552   6.486 -0.5977 -1.4556  2.0890
18317SOL     OW66675   5.818  11.143  10.811  0.1935  0.3589  0.0362
18317SOL    HW166676   5.884  11.089  10.769  0.2484 -0.8306  1.5660
18317SOL    HW266677   5.734  11.105  10.783  0.1457  1.0928 -0.8965
18318SOL     OW66678   4.715   0.436   9.348  0.1560 -0.0899 -0.3237
18318SOL    HW166679   4.766   0.468   9.422 -1.3400  1.3862  0.1314
18318SOL    HW266680   4.758   0.354   9.323  1.2765 -0.1381  1.5563
18319SOL     OW66681   9.903  11.850  11.454 -0.1271  0.0841 -0.2820
18319SOL    HW166682   9.942  11.764  11.438  0.2425  0.2658 -0.3680
18319SOL    HW266683   9.955  11.886  11.526 -0.0459  0.3898 -0.4970
18320SOL     OW66684   1.381   6.255   7.843 -0.8009 -0.1550 -0.1728
18320SOL    HW166685   1.323   6.329   7.861 -0.6648  0.3434 -1.6605
18320SOL    HW266686   1.469   6.293   7.840 -0.4019 -0.8427  1.6786
18321SOL     OW66687   2.620   7.603   9.462 -0.0774  0.3847 -0.1790
18321SOL    HW166688   2.573   7.580   9.382 -1.6403  0.0683  0.7970
18321SOL    HW266689   2.685   7.533   9.472 -1.3314 -0.8023 -0.0250
18322SOL     OW66690   0.109   6.445  11.538 -0.1461  0.8280  0.0396
18322SOL    HW166691   0.162   6.366  11.539 -1.3379  0.0021 -0.4721
18322SOL    HW266692   0.060   6.443  11.620 -0.4798  0.8337 -0.1601
18323SOL     OW66693   0.209  12.648   0.095 -0.4771  0.4993  0.0902
18323SOL    HW166694   0.180  12.719   0.152 -0.3884 -0.1352  0.9528
18323SOL    HW266695   0.182  12.674   0.007  0.1016  1.8870  0.3083
18324SOL     OW66696   1.317   2.127   7.209 -0.1162  0.7340  0.1145
18324SOL    HW166697   1.374   2.076   7.152  0.6007  0.0874  1.3823
18324SOL    HW266698   1.240   2.072   7.222  0.6581 -0.0980  1.4859
18325SOL     OW66699   4.682   7.390   6.281  0.2065  0.3224  0.3849
18325SOL    HW166700   4.758   7.333   6.288 -0.6637 -0.8817  0.3889
18325SOL    HW266701   4.618   7.352   6.342 -1.1598  0.0108 -1.1665
18326SOL     OW66702   0.347   5.561   6.538  0.0587 -0.0949  0.3797
18326SOL    HW166703   0.408   5.550   6.465  2.2804  1.5426  1.8376
18326SOL    HW266704   0.358   5.481   6.590  1.3369  0.3416  0.8297
18327SOL     OW66705  11.333   6.158   6.357  0.4817 -0.2196 -0.0453
18327SOL    HW166706  11.335   6.095   6.429 -1.0928  1.3710  1.5223
18327SOL    HW266707  11.240   6.178   6.346  0.7107 -0.1750 -2.3677
18328SOL     OW66708   8.332  12.354  12.170  0.1496  0.0325  0.3113
18328SOL    HW166709   8.422  12.368  12.139  0.1746 -0.0656  0.3394
18328SOL    HW266710   8.290  12.308  12.098 -0.6420  2.4313 -0.8881
18329SOL     OW66711   9.486  12.779  13.166 -0.2291 -0.5832  0.6878
18329SOL    HW166712   9.504  12.816  13.079  0.0224 -0.0229  0.9710
18329SOL    HW266713   9.479  12.856  13.223 -0.9711 -0.9249  1.0579
18330SOL     OW66714  11.545  10.964   2.300 -0.4042  0.5660  0.2610
18330SOL    HW166715  11.623  10.935   2.252 -0.5206  2.2330 -1.0253
18330SOL    HW266716  11.474  10.910   2.265 -0.0866  0.1071  0.3110
18331SOL     OW66717  11.717   8.991  10.476  0.1360 -0.3759 -0.3303
18331SOL    HW166718  11.741   8.924  10.540  0.7401  0.4974  0.4057
18331SOL    HW266719  11.628   9.016  10.499  0.5770  0.3950  0.6274
18332SOL     OW66720   6.505   9.939  10.896 -0.0372  0.2249  0.4483
18332SOL    HW166721   6.420   9.962  10.933 -1.2469 -1.8601 -0.8859
18332SOL    HW266722   6.554   9.903  10.970 -1.0554 -0.4068  0.8404
18333SOL     OW66723   1.642  11.752   9.475 -0.4289 -0.2329  0.7032
18333SOL    HW166724   1.593  11.710   9.545 -0.6342 -2.9136 -0.8971
18333SOL    HW266725   1.577  11.768   9.406  0.4606 -1.5511 -0.4826
18334SOL     OW66726   7.588   3.664   5.483 -0.2839  0.0626 -0.0426
18334SOL    HW166727   7.664   3.710   5.519  0.2828 -0.1023 -0.9813
18334SOL    HW266728   7.513   3.708   5.522  0.2779  0.6897  0.3716
18335SOL     OW66729   4.770   0.423   3.518  0.2329 -0.4352  0.1747
18335SOL    HW166730   4.746   0.350   3.460 -1.5491 -0.1808  0.5198
18335SOL    HW266731   4.799   0.381   3.599 -0.1918 -0.7760  0.1552
18336SOL     OW66732  11.028   4.041   0.244 -0.4403 -0.5057  0.5273
18336SOL    HW166733  11.055   3.958   0.284  1.9337  0.0261  0.2015
18336SOL    HW266734  11.025   4.102   0.317 -1.0743 -0.6067  0.5948
18337SOL     OW66735   2.427   7.136   3.284  0.0861  0.6584 -0.0487
18337SOL    HW166736   2.490   7.103   3.220 -0.2674 -0.1899  0.0377
18337SOL    HW266737   2.474   7.132   3.368  0.4697  1.5560 -0.2060
18338SOL     OW66738   0.188   9.350   8.352  0.1610 -0.3145 -0.2354
18338SOL    HW166739   0.150   9.436   8.334 -0.0789 -0.7236 -1.9115
18338SOL    HW266740   0.141   9.317   8.428 -0.8449  0.3777 -0.5452
18339SOL     OW66741   6.148  13.065   8.831 -0.2735 -0.1269 -0.1998
18339SOL    HW166742   6.084  13.002   8.796  0.1131 -1.0750  0.7165
18339SOL    HW266743   6.130  13.147   8.785 -1.5428 -0.6195 -0.6142
18340SOL     OW66744   7.270   3.837  11.306 -0.4718 -0.1052 -0.1571
18340SOL    HW166745   7.342   3.782  11.337 -0.2143  0.2323 -0.1471
18340SOL    HW266746   7.303   3.876  11.226 -0.6786 -0.0160 -0.1983
18341SOL     OW66747   6.117  11.773   7.932 -0.0836 -0.2144  0.3048
18341SOL    HW166748   6.075  11.799   8.013  0.4530 -1.5238  1.0342
18341SOL    HW266749   6.069  11.819   7.863 -1.1968  0.1062  1.2821
18342SOL     OW66750  12.674   3.561   5.995  0.2597  0.0623 -0.1192
18342SOL    HW166751  12.770   3.557   5.998  0.2962 -0.2557 -1.2567
18342SOL    HW266752  12.650   3.617   6.069  1.3569  0.6907 -0.2168
18343SOL     OW66753   1.463   5.435   7.070  0.2081 -0.0366  0.0408
18343SOL    HW166754   1.546   5.406   7.106 -0.2928 -0.4050  0.9345
18343SOL    HW266755   1.443   5.516   7.118  0.2423  0.2739 -0.4600
18344SOL     OW66756   4.476   4.482  12.835  0.4784 -0.1327 -0.1225
18344SOL    HW166757   4.414   4.554  12.823  1.6958  1.1397  0.9204
18344SOL    HW266758   4.521   4.475  12.751  0.8568  0.8376 -0.0181
18345SOL     OW66759   1.072   2.302  10.328  0.6217  0.1709  0.0272
18345SOL    HW166760   1.134   2.229  10.329  0.8654  0.3420  1.9314
18345SOL    HW266761   1.127   2.380  10.330  0.3538  0.3721 -0.4175
18346SOL     OW66762   7.958   6.613   9.388  0.3433  0.2758  0.6780
18346SOL    HW166763   7.932   6.521   9.396 -0.0107  0.1071 -1.5547
18346SOL    HW266764   8.029   6.623   9.451 -1.6223 -0.6555  3.1843
18347SOL     OW66765   1.629  12.388  10.171  0.2288 -0.0420  0.2619
18347SOL    HW166766   1.565  12.455  10.194 -1.3152 -1.2328 -0.3500
18347SOL    HW266767   1.697  12.395  10.238 -0.4697  1.3610  0.8481
18348SOL     OW66768   8.399   4.710   9.725  0.1999 -0.1908 -0.1681
18348SOL    HW166769   8.319   4.764   9.725  0.0602 -0.3914 -0.6412
18348SOL    HW266770   8.427   4.709   9.634  0.1655 -0.9754 -0.1781
18349SOL     OW66771   8.752   6.948   2.283 -0.4717  0.4223  0.0100
18349SOL    HW166772   8.845   6.966   2.278 -0.1843 -1.2803 -1.9528
18349SOL    HW266773   8.729   6.912   2.198 -2.1282 -2.7044  1.5861
18350SOL     OW66774  11.541   9.639   5.384 -0.0537 -0.3165 -0.3945
18350SOL    HW166775  11.618   9.598   5.424  1.1466  0.8575 -1.3820
18350SOL    HW266776  11.516   9.708   5.445 -0.3462 -0.7221 -0.0548
18351SOL     OW66777   9.984   1.257   6.284  0.7972 -0.2305 -0.1609
18351SOL    HW166778   9.950   1.335   6.241 -0.8979 -0.5056  0.5978
18351SOL    HW266779  10.063   1.235   6.235  0.8587  1.4794 -0.8918
18352SOL     OW66780   5.274  13.513   9.040  0.2883  0.0396 -0.0047
18352SOL    HW166781   5.268  13.478   8.951 -1.0047  2.0245 -0.7662
18352SOL    HW266782   5.187  13.549   9.058  1.1278  1.6503  1.1747
18353SOL     OW66783   9.926   3.023   9.601 -0.0083  0.3560  0.0092
18353SOL    HW166784   9.860   3.064   9.657  0.7336  0.5544  0.7431
18353SOL    HW266785   9.988   2.984   9.661  1.2039  1.1982 -0.6482
18354SOL     OW66786   9.076   5.410   8.633 -0.7329 -0.1514 -0.2998
18354SOL    HW166787   9.161   5.444   8.661 -0.2382  0.2516 -2.1431
18354SOL    HW266788   9.067   5.326   8.678  0.5794 -0.1268  0.0438
18355SOL     OW66789   3.367   9.918  12.104  0.4574  0.3815 -0.0159
18355SOL    HW166790   3.360   9.860  12.181  0.3076  1.8431  1.1281
18355SOL    HW266791   3.459   9.916  12.081  0.4376 -0.3869 -0.0471
18356SOL     OW66792   4.033   8.023   6.031 -0.2178  0.4899  0.3150
18356SOL    HW166793   3.998   8.015   6.120 -1.1118  1.2774  0.0515
18356SOL    HW266794   4.122   8.055   6.043 -0.0243 -0.2703  0.9552
18357SOL     OW66795   0.552   7.367   4.072 -0.2918  0.8694 -0.1370
18357SOL    HW166796   0.611   7.292   4.075  0.5357  1.5386  1.3198
18357SOL    HW266797   0.467   7.332   4.099 -0.4985  0.0113 -1.7372
18358SOL     OW66798   8.815   1.148   1.019  0.2881 -0.1672  0.7577
18358SOL    HW166799   8.907   1.156   0.995  0.5269  3.5552  2.2408
18358SOL    HW266800   8.816   1.134   1.114 -0.7171 -1.5780  0.5924
18359SOL     OW66801  10.469   4.102  13.242  0.0668  0.0959  0.3639
18359SOL    HW166802  10.468   4.053  13.324  1.2741  0.6389  0.7173
18359SOL    HW266803  10.481   4.036  13.174  0.6573 -0.2107  0.7607
18360SOL     OW66804   1.529  11.644   1.074 -0.0901  0.0680 -0.4283
18360SOL    HW166805   1.462  11.713   1.073 -0.0984  0.0559 -0.9208
18360SOL    HW266806   1.610  11.690   1.096 -0.6714 -0.3191  3.1375
18361SOL     OW66807   0.192  13.084  13.258  0.9150 -0.3562 -0.3364
18361SOL    HW166808   0.216  13.156  13.200 -0.7878 -0.6425 -1.4574
18361SOL    HW266809   0.097  13.091  13.267  1.0711 -0.5026  2.2146
18362SOL     OW66810   5.194   5.179  10.807  0.2920  0.6353  0.1087
18362SOL    HW166811   5.123   5.115  10.803  0.0031  0.7719  2.2084
18362SOL    HW266812   5.155   5.256  10.848  1.7019  0.6013  1.6213
18363SOL     OW66813  13.641  10.877  10.728 -0.0003 -0.0506  0.4473
18363SOL    HW166814  13.700  10.821  10.677 -0.2345  1.0215 -1.0635
18363SOL    HW266815  13.675  10.872  10.817  1.6361 -0.4376 -0.1632
18364SOL     OW66816   8.292  10.217   9.250  0.3242 -0.5917 -0.0101
18364SOL    HW166817   8.213  10.201   9.199 -0.2791 -1.9455  1.2979
18364SOL    HW266818   8.359  10.162   9.209 -0.4165 -2.4915  1.2214
18365SOL     OW66819   0.238   1.867   5.305  0.0445 -0.4750  0.4399
18365SOL    HW166820   0.150   1.844   5.334  0.3036 -0.6013  1.1748
18365SOL    HW266821   0.239   1.847   5.212 -0.5478 -0.9658  0.5295
18366SOL     OW66822   0.715  10.595   2.418 -0.0253 -0.3584 -0.5030
18366SOL    HW166823   0.689  10.676   2.374  1.6494  0.0849 -0.7732
18366SOL    HW266824   0.762  10.545   2.351  0.4267 -0.7749  0.1074
18367SOL     OW66825  11.992   3.230   8.211  0.2303  0.0936  0.6568
18367SOL    HW166826  11.914   3.177   8.228  0.1462 -0.2158 -0.5986
18367SOL    HW266827  12.060   3.192   8.267 -0.3259 -0.1012  1.2121
18368SOL     OW66828   2.602  12.651   9.681  0.1807 -0.5373 -0.1566
18368SOL    HW166829   2.609  12.700   9.763 -0.1560 -0.9467  0.1250
18368SOL    HW266830   2.634  12.711   9.614 -1.1177  0.4365  0.0403
18369SOL     OW66831   9.143   9.229   1.717  0.3431 -0.0604 -0.2486
18369SOL    HW166832   9.170   9.289   1.648  1.3678 -0.2887 -0.0667
18369SOL    HW266833   9.048   9.219   1.705 -0.7233  4.6062  2.0397
18370SOL     OW66834   1.631   2.468  12.837 -0.2106 -0.5913 -0.1690
18370SOL    HW166835   1.664   2.383  12.867  0.5689 -0.2194  0.0500
18370SOL    HW266836   1.588   2.505  12.914  1.1942  0.0644  0.3453
18371SOL     OW66837   4.412   2.191   7.819 -0.1996  0.2056 -0.6785
18371SOL    HW166838   4.338   2.132   7.835  0.0171 -0.0665 -0.6602
18371SOL    HW266839   4.480   2.160   7.879  0.6222 -0.8185 -2.0797
18372SOL     OW66840   3.209  12.312   8.277 -0.1580 -0.0179 -0.0059
18372SOL    HW166841   3.218  12.407   8.279  0.4393 -0.0706 -0.0209
18372SOL    HW266842   3.255  12.282   8.356 -0.2290 -0.3019 -0.0701
18373SOL     OW66843   9.760   5.048  11.006 -0.2397 -0.3271  0.2273
18373SOL    HW166844   9.763   5.021  11.098  0.6378  0.1294  0.3435
18373SOL    HW266845   9.827   4.995  10.963 -0.6096 -0.4994 -0.1367
18374SOL     OW66846   4.678   0.084   2.987  0.3422 -0.7623  0.0408
18374SOL    HW166847   4.653   0.125   2.904 -1.5722 -0.5066  0.6825
18374SOL    HW266848   4.673  -0.010   2.970 -1.0824 -0.7180  0.1151
18375SOL     OW66849   1.632   6.373   3.585 -0.1241  0.2184 -0.0300
18375SOL    HW166850   1.628   6.284   3.621  0.6716  0.1424 -0.1282
18375SOL    HW266851   1.543   6.407   3.597 -0.6900 -0.9057 -0.8046
18376SOL     OW66852   8.707   1.551   9.905  0.3720  0.0235  0.5113
18376SOL    HW166853   8.630   1.595   9.870  0.3933 -0.3291  0.0101
18376SOL    HW266854   8.709   1.577   9.998  0.4637  1.1757  0.2026
18377SOL     OW66855   4.434   0.129   4.465 -0.5921  0.3404 -0.4559
18377SOL    HW166856   4.381   0.060   4.505  1.7765  0.0887  2.6202
18377SOL    HW266857   4.399   0.210   4.503 -1.7461  0.6700 -2.1257
18378SOL     OW66858   1.593  10.176   2.660 -0.1422  0.5050 -0.3232
18378SOL    HW166859   1.499  10.170   2.647  0.0105 -2.5020 -0.6768
18378SOL    HW266860   1.631  10.152   2.576  0.9215  0.0011  0.2727
18379SOL     OW66861   0.614   4.941   1.436 -0.4486  0.5296  0.7984
18379SOL    HW166862   0.529   4.896   1.442 -0.6564  0.6188 -1.0839
18379SOL    HW266863   0.677   4.870   1.423 -0.6051  0.6484 -0.7283
18380SOL     OW66864   4.483   3.457   9.531 -0.7311 -0.0706 -0.7855
18380SOL    HW166865   4.528   3.454   9.616 -0.4918  2.0155 -0.8083
18380SOL    HW266866   4.455   3.366   9.517  1.6516 -1.0697  0.2001
18381SOL     OW66867   2.249   0.034   1.474 -0.4466 -0.0987  0.4125
18381SOL    HW166868   2.225   0.097   1.407 -1.4723  0.4654  1.2817
18381SOL    HW266869   2.203  -0.046   1.451  0.6708 -0.4876 -0.5616
18382SOL     OW66870   8.278   0.248   7.359 -0.3587 -0.0895 -0.4314
18382SOL    HW166871   8.233   0.252   7.274 -0.3628  1.8058 -0.3862
18382SOL    HW266872   8.207   0.237   7.423 -0.5986  0.8299 -0.5191
18383SOL     OW66873   1.506  10.258   1.973 -0.9310 -0.3935 -0.2495
18383SOL    HW166874   1.454  10.272   1.893 -0.1802 -3.6467 -1.4926
18383SOL    HW266875   1.467  10.180   2.012  1.7454 -1.8127 -0.2049
18384SOL     OW66876   2.108   0.148   2.859  0.3175  0.0594  1.0122
18384SOL    HW166877   2.157   0.229   2.845  0.3080  0.0605  0.9847
18384SOL    HW266878   2.061   0.161   2.942  1.2238 -0.3658  1.6067
18385SOL     OW66879   6.151   3.906   1.070 -0.4991 -0.1166 -0.8894
18385SOL    HW166880   6.138   3.945   0.983  1.9005 -0.1286 -1.3178
18385SOL    HW266881   6.233   3.857   1.063  0.3874  0.7938  1.6542
18386SOL     OW66882   5.899   2.710  10.480  0.1971 -0.0905 -0.5487
18386SOL    HW166883   5.887   2.801  10.505  1.0274  0.0883 -0.7551
18386SOL    HW266884   5.813   2.670  10.491 -0.4477  0.9668 -1.4942
18387SOL     OW66885   1.695   3.251   7.810  0.0226  0.3587 -0.3105
18387SOL    HW166886   1.778   3.209   7.788 -1.1383 -1.4630 -1.3692
18387SOL    HW266887   1.694   3.330   7.756  0.3657 -0.4225 -1.4812
18388SOL     OW66888   7.193  12.950   1.109  0.4615  0.4202  0.1691
18388SOL    HW166889   7.208  12.984   1.021  1.5988  2.4736  1.0863
18388SOL    HW266890   7.246  13.005   1.166  0.1247 -1.1436  2.1219
18389SOL     OW66891   3.665  12.670  13.239 -0.7066 -0.1778 -0.2960
18389SOL    HW166892   3.732  12.739  13.244 -0.2587 -0.6743  2.4632
18389SOL    HW266893   3.691  12.616  13.165  1.1927  0.4421 -0.1397
18390SOL     OW66894   9.646   2.404   7.827  0.2982 -0.1710 -0.2895
18390SOL    HW166895   9.700   2.389   7.904  0.6309 -0.5850 -0.5979
18390SOL    HW266896   9.657   2.497   7.807  0.3954 -0.1164  0.0213
18391SOL     OW66897   8.660   8.816  10.101  0.1388  0.1184 -0.3012
18391SOL    HW166898   8.658   8.908  10.073  0.0052 -0.4852 -2.4597
18391SOL    HW266899   8.668   8.766  10.019  1.1374 -1.7726  0.8709
18392SOL     OW66900   3.152   0.074   4.752  0.0094 -0.1960 -0.2708
18392SOL    HW166901   3.237   0.035   4.770  0.1221  0.2037  0.0860
18392SOL    HW266902   3.172   0.164   4.726 -0.3026 -0.0947 -0.1677
18393SOL     OW66903   0.132   7.961   8.392 -0.6210  0.1308  0.1689
18393SOL    HW166904   0.086   7.963   8.308 -1.0583  0.1085  0.4077
18393SOL    HW266905   0.180   8.044   8.395  1.0345 -0.7238 -1.0100
18394SOL     OW66906   2.318   6.237   5.542 -0.2417  0.1569 -0.2670
18394SOL    HW166907   2.349   6.181   5.471  0.4062  1.3308 -0.9483
18394SOL    HW266908   2.233   6.201   5.567  0.4812 -1.5435 -0.1848
18395SOL     OW66909   8.319   4.971  13.051  0.0403 -0.3213 -0.2256
18395SOL    HW166910   8.369   5.012  12.980 -0.7925 -0.7760 -1.1105
18395SOL    HW266911   8.376   4.903  13.085 -0.4309 -1.7390 -2.1253
18396SOL     OW66912   3.006   6.692   7.274  0.7503 -0.0983 -0.4104
18396SOL    HW166913   3.085   6.746   7.267  0.1132  0.7968 -1.1017
18396SOL    HW266914   2.956   6.733   7.345  0.7115 -0.3914 -0.2697
18397SOL     OW66915   2.837  11.827   4.978  0.5201 -0.0489  0.5302
18397SOL    HW166916   2.754  11.872   4.961  0.4958 -0.4909 -0.6395
18397SOL    HW266917   2.901  11.874   4.925  0.6957 -0.7152  0.1355
18398SOL     OW66918   9.527   1.423   7.453 -0.1923  0.5794  0.0656
18398SOL    HW166919   9.597   1.482   7.426 -0.3915  0.7615 -0.0622
18398SOL    HW266920   9.554   1.337   7.422  1.3086  0.1160  2.3793
18399SOL     OW66921  11.740   3.955  10.135 -0.0553  0.0846 -0.7356
18399SOL    HW166922  11.755   4.047  10.160  0.3292  0.0593 -0.8799
18399SOL    HW266923  11.649   3.954  10.106 -0.6813  0.0290  1.1008
18400SOL     OW66924   0.941  10.752  13.180 -0.0899  0.2494 -0.2798
18400SOL    HW166925   0.939  10.725  13.272 -1.0421 -1.6202 -0.7795
18400SOL    HW266926   0.923  10.846  13.181  0.9695  0.4741  1.4844
18401SOL     OW66927   6.654   4.202   7.013  0.4604  0.6766  0.2944
18401SOL    HW166928   6.662   4.185   7.107  1.7973  0.1036  0.1019
18401SOL    HW266929   6.698   4.286   7.000  0.8760  0.4293  0.0854
18402SOL     OW66930   7.740   7.436  11.850 -0.3555  0.5203 -0.2354
18402SOL    HW166931   7.766   7.427  11.759 -1.3124  0.5044 -0.5127
18402SOL    HW266932   7.656   7.483  11.847 -0.5205  0.2970  0.6168
18403SOL     OW66933  11.713  11.997   4.983  0.0977 -0.3380  0.1709
18403SOL    HW166934  11.758  11.915   4.960 -1.3468 -1.9187  2.5126
18403SOL    HW266935  11.727  12.054   4.908  2.2440 -2.2795 -1.0336
18404SOL     OW66936  13.491   7.587   7.971  0.0726 -0.0959 -0.2679
18404SOL    HW166937  13.470   7.494   7.971  1.6627 -0.5048  1.0686
18404SOL    HW266938  13.556   7.598   8.041  1.3038  1.6766 -1.5642
18405SOL     OW66939  10.602  12.733   0.399 -0.1361 -0.7316 -0.1128
18405SOL    HW166940  10.664  12.726   0.472 -1.5033  0.0985  1.1698
18405SOL    HW266941  10.516  12.727   0.440 -0.9545 -2.0699 -1.8778
18406SOL     OW66942  13.420   5.208   8.776 -0.0022 -0.0909 -0.0463
18406SOL    HW166943  13.430   5.283   8.718 -0.6314  1.8126  2.1461
18406SOL    HW266944  13.327   5.184   8.768 -0.0673  0.1099  0.1160
18407SOL     OW66945  10.132   9.083   0.588 -0.1197 -0.2308 -0.3944
18407SOL    HW166946  10.207   9.139   0.566 -0.0338 -1.1722 -2.7783
18407SOL    HW266947  10.135   9.012   0.524 -1.5453 -1.7630  1.1183
18408SOL     OW66948   8.330   3.258   6.181 -0.0530 -0.4498  0.2100
18408SOL    HW166949   8.398   3.311   6.139  1.4304 -1.4230  1.3163
18408SOL    HW266950   8.285   3.319   6.239  1.0134 -0.1388  0.7454
18409SOL     OW66951   2.989  11.196   4.681  0.1839 -0.1229 -0.0680
18409SOL    HW166952   3.061  11.251   4.712  1.4438 -1.6263 -0.2275
18409SOL    HW266953   2.976  11.132   4.750 -0.4511 -0.3861 -0.4187
18410SOL     OW66954   3.372   1.788   2.419 -0.1343 -0.4874  0.0002
18410SOL    HW166955   3.356   1.698   2.393  1.1194 -1.7371  3.0567
18410SOL    HW266956   3.460   1.787   2.457 -0.4109  1.8298  0.8800
18411SOL     OW66957   6.944   1.082   3.719  0.4822 -0.4492  0.9117
18411SOL    HW166958   7.005   1.015   3.689 -0.5536 -1.7498  1.6146
18411SOL    HW266959   6.858   1.045   3.703 -0.2496  1.8853 -1.3212
18412SOL     OW66960   1.509  13.486   2.451  0.1352  0.5780 -0.2980
18412SOL    HW166961   1.548  13.399   2.454  1.9745  1.3240 -0.9553
18412SOL    HW266962   1.446  13.488   2.524  2.2897 -0.2815  1.6896
18413SOL     OW66963  13.312  10.224  13.524 -0.2300  0.0291  0.2828
18413SOL    HW166964  13.380  10.229  13.457 -1.7208 -0.7813 -1.4018
18413SOL    HW266965  13.305  10.130  13.543 -0.5750  0.1497  0.7561
18414SOL     OW66966   6.693   8.891   4.059  0.4573  0.2619  0.1418
18414SOL    HW166967   6.762   8.903   4.124  0.9659 -1.2314 -0.0685
18414SOL    HW266968   6.733   8.917   3.976  0.6118 -0.1307  0.0912
18415SOL     OW66969   5.629   5.834   1.781 -0.1033 -0.1250 -0.1938
18415SOL    HW166970   5.549   5.848   1.732 -0.5340  2.6123  1.1191
18415SOL    HW266971   5.606   5.770   1.849 -0.3254 -1.5563 -1.5777
18416SOL     OW66972   1.044   8.982  12.237  0.0130 -0.6587  0.0354
18416SOL    HW166973   1.057   8.958  12.146  1.1565 -2.2409  0.5705
18416SOL    HW266974   1.017   9.074  12.235  0.0088 -0.6784 -1.8748
18417SOL     OW66975  12.545   5.733   6.743 -0.3706  0.2846 -0.1740
18417SOL    HW166976  12.529   5.641   6.763  0.2759  0.0908 -0.5309
18417SOL    HW266977  12.627   5.733   6.694 -0.3526  1.0541 -0.1520
18418SOL     OW66978   7.764   5.946   2.158  0.2596  0.5240 -0.0240
18418SOL    HW166979   7.843   5.893   2.160  1.2360  1.8956 -0.6314
18418SOL    HW266980   7.738   5.953   2.250  0.8064  0.0132  0.1741
18419SOL     OW66981   7.453   4.647   1.417  0.2631 -0.3275 -0.1826
18419SOL    HW166982   7.449   4.588   1.492  0.0358 -0.2790 -0.1576
18419SOL    HW266983   7.519   4.608   1.360 -0.0281 -0.7150 -0.2608
18420SOL     OW66984   1.618   9.096   7.338 -0.2174 -0.0478 -0.3327
18420SOL    HW166985   1.646   9.022   7.284  0.6444 -0.3620  0.5226
18420SOL    HW266986   1.674   9.092   7.415 -1.0752  0.7011  0.3517
18421SOL     OW66987   1.442   4.928   9.158 -0.5349 -0.3031 -0.0197
18421SOL    HW166988   1.405   4.891   9.237 -0.3775 -0.6173 -0.0938
18421SOL    HW266989   1.390   4.890   9.087 -0.0528 -0.7743 -0.1262
18422SOL     OW66990   3.789   9.401   2.201  0.1006  0.9352  0.2890
18422SOL    HW166991   3.798   9.424   2.294  0.0024  0.5267  0.4005
18422SOL    HW266992   3.811   9.308   2.197 -3.5561 -0.1027  0.5563
18423SOL     OW66993  12.609  13.225   2.788 -0.6442 -0.0969 -0.5904
18423SOL    HW166994  12.559  13.244   2.867  0.1071 -0.9988  0.1232
18423SOL    HW266995  12.573  13.143   2.755  1.3501 -1.6604  0.8497
18424SOL     OW66996   1.476  13.303   1.682 -0.5320  0.2113  0.1203
18424SOL    HW166997   1.512  13.386   1.652 -0.0578 -0.2313 -0.5760
18424SOL    HW266998   1.430  13.268   1.605  0.9987 -1.1095 -0.2701
18425SOL     OW66999   6.543   9.329   0.378  0.0174 -0.4444  0.3110
18425SOL    HW167000   6.451   9.333   0.351 -0.8326  2.9191  2.9024
18425SOL    HW267001   6.559   9.236   0.394 -3.0710 -1.1286  0.1499
18426SOL     OW67002  12.335  13.394   9.254 -0.3292  0.4068  0.0963
18426SOL    HW167003  12.394  13.469   9.249 -1.9867  1.7031 -1.0152
18426SOL    HW267004  12.312  13.388   9.346 -1.1282  2.0671  0.0385
18427SOL     OW67005   2.992   3.718   3.767  0.7979  0.0882  0.5775
18427SOL    HW167006   2.908   3.752   3.734  1.3324  0.3838 -0.5108
18427SOL    HW267007   2.967   3.662   3.840 -0.8986 -4.0488 -2.7524
18428SOL     OW67008   2.231   3.223  13.503  0.0902 -0.0900  0.1525
18428SOL    HW167009   2.249   3.298  13.560  0.5718 -0.9772  1.2052
18428SOL    HW267010   2.152   3.185  13.539 -0.6095  0.3505 -0.8685
18429SOL     OW67011  10.946   0.071   4.419  0.4305  0.3065  0.1994
18429SOL    HW167012  11.022   0.067   4.477 -0.3116  1.7039  1.3286
18429SOL    HW267013  10.980   0.109   4.338  1.0235  0.5139  0.5365
18430SOL     OW67014   3.209   1.478   4.661 -0.0855  0.1743 -0.5998
18430SOL    HW167015   3.242   1.519   4.580 -1.5494 -1.1364 -1.9307
18430SOL    HW267016   3.273   1.410   4.680 -1.0391 -1.2695 -2.2341
18431SOL     OW67017   4.645  11.699   7.054  0.0784 -0.2856 -0.0222
18431SOL    HW167018   4.600  11.647   6.987  2.3316 -1.3728 -0.7871
18431SOL    HW267019   4.725  11.650   7.073  1.7564  2.2981  0.0930
18432SOL     OW67020   1.454   5.989   1.936 -0.3038 -0.4248  0.1795
18432SOL    HW167021   1.529   5.993   1.994 -0.0927 -1.5498  0.0056
18432SOL    HW267022   1.466   5.908   1.886 -1.2062 -0.2054 -0.4287
18433SOL     OW67023  11.773   2.404  13.665  0.0152  0.0804  0.4270
18433SOL    HW167024  11.694   2.357  13.688  1.0353 -0.8664  2.2600
18433SOL    HW267025  11.775   2.478  13.726  0.4488  0.1916  0.2804
18434SOL     OW67026  13.616   5.601   2.206 -0.5045  0.3404 -0.0592
18434SOL    HW167027  13.616   5.586   2.300  2.6075  0.2941  0.0435
18434SOL    HW267028  13.588   5.692   2.196  0.9262  0.9597  1.1339
18435SOL     OW67029   8.242  11.930   5.180  0.0268  0.1287  0.3913
18435SOL    HW167030   8.324  11.884   5.160  0.6089  1.6791 -1.0530
18435SOL    HW267031   8.185  11.909   5.106  0.2465  1.5262 -0.2079
18436SOL     OW67032   3.228   0.981  11.665  0.0451 -0.5576  0.7770
18436SOL    HW167033   3.275   1.050  11.712 -0.8674  0.1849  0.6331
18436SOL    HW267034   3.297   0.920  11.638  0.9723  0.5975  0.3802
18437SOL     OW67035   6.415   7.514   0.534  0.2493 -0.6833 -0.1936
18437SOL    HW167036   6.337   7.467   0.505  0.6555  0.4400 -3.6528
18437SOL    HW267037   6.381   7.596   0.571 -0.3030 -0.4578 -1.1409
18438SOL     OW67038   0.582  12.260   9.941  0.5642 -0.2566  0.8715
18438SOL    HW167039   0.576  12.328  10.008  0.6189 -0.2659  0.8852
18438SOL    HW267040   0.676  12.253   9.922  0.3902  2.4646 -1.9376
18439SOL     OW67041  11.355  12.734   9.682 -0.4624 -0.2789  0.0633
18439SOL    HW167042  11.325  12.792   9.752 -0.0615  1.3765 -1.0814
18439SOL    HW267043  11.450  12.744   9.681 -0.5585  1.0494 -1.7557
18440SOL     OW67044   1.026   4.377   5.982 -0.1099  0.5673  0.0326
18440SOL    HW167045   1.096   4.441   5.966  1.2950 -0.1203  2.7471
18440SOL    HW267046   1.072   4.296   6.004 -1.8184 -0.4640 -0.0193
18441SOL     OW67047   5.100  11.968   8.231 -0.0251  0.2558 -0.3020
18441SOL    HW167048   5.175  11.909   8.227 -0.8001 -0.7197 -1.1014
18441SOL    HW267049   5.028  11.913   8.260 -0.3596  1.2753  0.8866
18442SOL     OW67050   4.483   1.610  10.674 -0.0010  0.4227  0.3702
18442SOL    HW167051   4.550   1.638  10.612 -0.6706 -0.3111 -0.7220
18442SOL    HW267052   4.503   1.519  10.692 -1.6498 -0.3602 -1.3479
18443SOL     OW67053   9.501   3.707   1.475  0.1044 -0.0411 -0.5882
18443SOL    HW167054   9.449   3.634   1.443  1.3575 -0.0885 -2.7464
18443SOL    HW267055   9.586   3.668   1.498  0.3929  0.5439 -0.6261
18444SOL     OW67056   1.942  11.540   2.396 -0.6850 -0.2839 -0.2718
18444SOL    HW167057   2.002  11.510   2.465 -0.0120 -0.3466 -0.8712
18444SOL    HW267058   1.861  11.562   2.442 -0.4034 -0.7800  0.4779
18445SOL     OW67059   9.132   8.603   6.398  0.0772  0.4093 -0.4805
18445SOL    HW167060   9.223   8.578   6.381  0.4884  1.3259  0.3090
18445SOL    HW267061   9.124   8.691   6.363 -0.2628  0.6645  0.2286
18446SOL     OW67062   6.121  12.323  11.089  0.0081 -0.1777  0.1288
18446SOL    HW167063   6.046  12.366  11.049  0.3169 -1.2190 -1.6723
18446SOL    HW267064   6.197  12.372  11.058  0.2166 -0.6864 -0.1939
18447SOL     OW67065  13.683   5.839  12.510 -0.2006 -0.6944 -0.3938
18447SOL    HW167066  13.729   5.880  12.437  0.1764 -0.3143  0.0483
18447SOL    HW267067  13.628   5.909  12.546  0.6399 -0.4962  0.5277
18448SOL     OW67068   7.213   3.080   3.661 -0.2614  0.3958 -0.4381
18448SOL    HW167069   7.256   3.098   3.577  1.4502 -1.5877 -0.0827
18448SOL    HW267070   7.182   2.990   3.653 -1.6638  0.7842  0.4487
18449SOL     OW67071   3.496  12.175   3.397  0.1643 -0.3759  0.5100
18449SOL    HW167072   3.576  12.155   3.445  0.1374  2.4595  1.9325
18449SOL    HW267073   3.500  12.269   3.380 -1.3322 -0.7116 -2.3839
18450SOL     OW67074   4.526   2.347   8.448  0.7077 -0.3574 -0.6822
18450SOL    HW167075   4.531   2.432   8.405  0.5292  0.2862  0.5301
18450SOL    HW267076   4.516   2.367   8.541 -1.6087 -1.6610 -0.5612
18451SOL     OW67077   1.975   7.710  13.583  0.0766  0.1685 -0.0696
18451SOL    HW167078   2.028   7.733  13.660 -0.3951  0.4418  0.1823
18451SOL    HW267079   1.975   7.790  13.529 -1.1606  0.6390  0.5729
18452SOL     OW67080  10.295  12.386   6.808  0.0829 -0.4901  0.0092
18452SOL    HW167081  10.233  12.412   6.739  0.0972 -0.8934 -0.1621
18452SOL    HW267082  10.288  12.454   6.874  0.5929  0.2870 -0.7180
18453SOL     OW67083   3.362   0.715   0.653  0.3204  0.1657 -0.0377
18453SOL    HW167084   3.277   0.685   0.621 -0.0713  1.0186  0.1619
18453SOL    HW267085   3.426   0.662   0.605 -0.2926  0.3969 -1.1431
18454SOL     OW67086   9.268  12.641   2.788 -0.2857  0.1497 -0.6741
18454SOL    HW167087   9.247  12.709   2.724 -0.4201  0.8426  0.0899
18454SOL    HW267088   9.319  12.685   2.855  0.9089 -0.8354 -0.8898
18455SOL     OW67089  13.047   3.846  13.013  0.1225  0.2751 -0.0140
18455SOL    HW167090  13.037   3.941  13.009  0.0025  0.2447 -2.6139
18455SOL    HW267091  12.958   3.812  13.003  0.3504 -0.0749 -0.9866
18456SOL     OW67092   6.949   8.469   6.965 -0.3576 -0.5120 -0.7813
18456SOL    HW167093   6.978   8.380   6.946  1.5435  0.0085 -0.5048
18456SOL    HW267094   6.977   8.521   6.890  0.5763  0.2346  0.0538
18457SOL     OW67095  12.062   4.465   1.619  0.0559 -0.0632 -0.5078
18457SOL    HW167096  12.133   4.423   1.668  0.6379  2.2880  0.8029
18457SOL    HW267097  12.102   4.492   1.537  0.2787 -0.0668 -0.4001
18458SOL     OW67098   7.567   4.228   7.676 -0.3111 -0.0882 -0.3109
18458SOL    HW167099   7.607   4.224   7.590 -0.8867  1.7223 -0.7094
18458SOL    HW267100   7.633   4.193   7.735  1.0342  0.8417 -1.2068
18459SOL     OW67101   1.803  10.680   5.004 -0.0483  0.1321  0.2865
18459SOL    HW167102   1.839  10.652   4.920  0.0805 -1.1500  0.7547
18459SOL    HW267103   1.873  10.731   5.044  0.2213 -0.0162  0.0036
18460SOL     OW67104  11.652   6.311   4.440  0.1503 -0.1654  0.3306
18460SOL    HW167105  11.681   6.324   4.530  2.9463 -0.5698 -0.4207
18460SOL    HW267106  11.704   6.373   4.388  1.1957 -2.2825 -1.3253
18461SOL     OW67107  11.280  11.348  12.990 -0.0366 -0.2131 -0.0133
18461SOL    HW167108  11.273  11.259  12.957  0.7493 -0.0430 -0.6682
18461SOL    HW267109  11.350  11.345  13.055  1.3543  0.2940 -1.4308
18462SOL     OW67110  11.965  13.253   8.013 -0.0412  0.4608 -0.0457
18462SOL    HW167111  11.969  13.330   7.956 -2.0765  0.5944 -0.0922
18462SOL    HW267112  11.962  13.288   8.102 -1.8343  0.5342 -0.0971
18463SOL     OW67113   3.863   0.847  10.278  0.1327 -0.2883 -0.5483
18463SOL    HW167114   3.937   0.787  10.274  1.5529  1.3089  0.2796
18463SOL    HW267115   3.786   0.790  10.282  1.2215 -2.0105 -2.1264
18464SOL     OW67116   7.176   5.337   7.841  0.0154  0.6014 -0.6129
18464SOL    HW167117   7.198   5.265   7.782 -0.4981 -0.7243  0.7373
18464SOL    HW267118   7.132   5.294   7.915  2.2313  1.9200  1.6104
18465SOL     OW67119  10.574   0.515   0.145 -0.2324  0.3600  0.9002
18465SOL    HW167120  10.559   0.496   0.052 -0.5269  0.8209  0.8511
18465SOL    HW267121  10.622   0.439   0.178  2.8058  1.5334 -0.3883
18466SOL     OW67122   2.538   5.995   5.475 -0.3794 -0.0253 -0.1686
18466SOL    HW167123   2.618   6.040   5.445 -0.7719 -0.1304 -1.4169
18466SOL    HW267124   2.471   6.021   5.412 -1.2071 -0.3899  0.5478
18467SOL     OW67125   7.426   1.597  10.454 -0.3064  0.2522 -0.9203
18467SOL    HW167126   7.440   1.689  10.431  2.5557 -0.3950 -2.1406
18467SOL    HW267127   7.412   1.553  10.370  0.7749 -0.7418 -0.6088
18468SOL     OW67128   5.307  13.149   3.736  0.5992  0.0099  0.5965
18468SOL    HW167129   5.291  13.182   3.824 -0.0365  1.2997  0.0228
18468SOL    HW267130   5.272  13.217   3.678 -1.8207 -2.1138 -0.6518
18469SOL     OW67131  11.414   5.613   7.682  0.3746  0.0328 -0.0932
18469SOL    HW167132  11.439   5.596   7.592  1.8778  2.2249 -0.1587
18469SOL    HW267133  11.381   5.703   7.681  1.2940  0.4265  1.6942
18470SOL     OW67134   4.913   8.723   5.765  0.4111  0.4622  0.5554
18470SOL    HW167135   5.003   8.744   5.790  0.5637 -0.4990  0.8580
18470SOL    HW267136   4.913   8.727   5.670  0.7283  0.6428  0.5592
18471SOL     OW67137   6.510   6.621   7.373 -0.5982  0.0123  0.6241
18471SOL    HW167138   6.581   6.657   7.426 -0.4167  0.4739  0.0727
18471SOL    HW267139   6.467   6.698   7.335 -1.3643 -0.2597  0.9020
18472SOL     OW67140   4.217   8.775   2.148  0.0069  0.0063 -0.0848
18472SOL    HW167141   4.145   8.797   2.089  0.2173  0.5561 -0.1435
18472SOL    HW267142   4.241   8.685   2.125 -0.2213  0.0550 -0.5196
18473SOL     OW67143  13.257  11.994   0.713 -0.6725  0.3184 -0.3732
18473SOL    HW167144  13.344  12.006   0.675  0.0955  0.1839  1.2718
18473SOL    HW267145  13.274  11.967   0.803 -2.3998 -1.5923 -0.5510
18474SOL     OW67146   8.816  10.311  10.465 -0.1547 -0.0859  0.4990
18474SOL    HW167147   8.738  10.288  10.414 -1.4693  1.7761  1.5539
18474SOL    HW267148   8.812  10.406  10.475  2.1718  0.0441  0.7889
18475SOL     OW67149  13.037  12.589  12.594  0.4700 -0.2660 -0.2520
18475SOL    HW167150  13.069  12.656  12.654 -0.3797  0.5496 -0.6725
18475SOL    HW267151  12.955  12.558  12.633 -0.2115  0.4375 -1.0620
18476SOL     OW67152  10.087   6.530   8.993  0.5657 -0.1838 -0.1654
18476SOL    HW167153  10.154   6.538   9.062  2.9101 -0.3273 -2.2690
18476SOL    HW267154  10.049   6.618   8.987 -0.4960 -0.4286  1.9829
18477SOL     OW67155   3.682  12.242   2.640 -0.2767  0.2378 -0.2410
18477SOL    HW167156   3.592  12.259   2.670 -0.8554 -1.4977 -0.8693
18477SOL    HW267157   3.684  12.276   2.551 -0.0703  0.9215  0.0158
18478SOL     OW67158   4.734   6.048  11.157  0.1416  0.1237 -0.6239
18478SOL    HW167159   4.800   6.011  11.099 -0.7504  1.1500 -2.3982
18478SOL    HW267160   4.776   6.125  11.195  1.0982 -1.1491  1.0031
18479SOL     OW67161   6.399  11.122   8.719  0.1604 -0.0993 -0.0188
18479SOL    HW167162   6.329  11.114   8.784  0.3479 -0.0451  0.1884
18479SOL    HW267163   6.389  11.044   8.664 -0.4801  0.2355 -0.3970
18480SOL     OW67164  12.725  13.256   5.157  0.2197  0.7384  0.9339
18480SOL    HW167165  12.743  13.258   5.064  0.9658 -0.2456  1.0392
18480SOL    HW267166  12.645  13.307   5.168  0.3735  1.2261 -0.1786
18481SOL     OW67167   9.555  10.928   7.841  0.2123 -0.2572 -0.3936
18481SOL    HW167168   9.613  10.987   7.890  0.6100 -0.2986 -0.8155
18481SOL    HW267169   9.468  10.966   7.852  0.2768 -0.3231  0.4390
18482SOL     OW67170   6.842  10.974   4.864  0.3089 -0.5260 -0.3906
18482SOL    HW167171   6.830  10.912   4.792 -0.4495  0.4910 -1.1561
18482SOL    HW267172   6.924  11.019   4.843  0.3731 -0.6095 -0.3214
18483SOL     OW67173   9.637  10.767   4.176 -0.2730  0.3256 -0.3792
18483SOL    HW167174   9.628  10.695   4.114  1.1081  0.8707 -1.2750
18483SOL    HW267175   9.615  10.845   4.125 -2.2679  0.5322  0.7144
18484SOL     OW67176  10.999   6.763  11.105 -0.1643  0.6680  0.5725
18484SOL    HW167177  11.083   6.733  11.069  0.2966 -0.2650  2.3317
18484SOL    HW267178  11.023   6.805  11.188 -1.4816  0.1125  1.2442
18485SOL     OW67179   8.352  11.959   2.094  0.0673  0.2622 -0.1480
18485SOL    HW167180   8.342  12.017   2.169 -1.4470  1.6934 -1.3694
18485SOL    HW267181   8.374  12.017   2.021 -0.2348 -0.8488 -1.1634
18486SOL     OW67182   9.769  12.511  12.413 -0.3373 -0.4322 -0.5128
18486SOL    HW167183   9.746  12.484  12.502 -0.4608 -0.6546 -0.6089
18486SOL    HW267184   9.841  12.453  12.388  1.1285  1.0228  0.2071
18487SOL     OW67185  13.691   1.897   1.040  0.2019  0.3579  0.2355
18487SOL    HW167186  13.784   1.883   1.023 -0.0075  1.0085 -1.6685
18487SOL    HW267187  13.653   1.911   0.953 -1.4283  1.5739  1.1002
18488SOL     OW67188   1.028   8.948   7.350 -0.3709 -0.1874  0.8953
18488SOL    HW167189   1.098   9.013   7.359  0.4643 -0.8617 -0.4563
18488SOL    HW267190   1.061   8.871   7.397 -0.4252 -0.3540  0.6584
18489SOL     OW67191  12.420   7.373   9.931  0.0927  0.3651 -0.6823
18489SOL    HW167192  12.398   7.288   9.893 -1.4639  0.3816  0.0908
18489SOL    HW267193  12.499   7.356   9.982  0.3422 -0.3971 -1.2939
18490SOL     OW67194   1.929   9.608  13.160 -0.2904  0.0026 -0.2901
18490SOL    HW167195   1.847   9.604  13.112  0.4137  0.1333 -1.5610
18490SOL    HW267196   1.981   9.535  13.126 -0.4909 -1.1577  1.7502
18491SOL     OW67197   0.523   5.897  13.497 -0.1890  0.4087  0.6255
18491SOL    HW167198   0.582   5.831  13.460  0.8438  1.4698  0.3374
18491SOL    HW267199   0.470   5.926  13.422 -0.8781 -0.2991  0.8181
18492SOL     OW67200   5.113   5.459   8.751 -0.2535 -0.1831  0.0442
18492SOL    HW167201   5.194   5.423   8.715 -1.6639 -0.9590 -2.6475
18492SOL    HW267202   5.078   5.514   8.681 -2.2189 -0.1407  0.9982
18493SOL     OW67203   8.040  10.711  13.487  0.0041  0.6221  0.1899
18493SOL    HW167204   7.958  10.705  13.437  0.7877  1.5367 -1.2929
18493SOL    HW267205   8.063  10.620  13.506  0.3050  0.1022 -2.3044
18494SOL     OW67206   5.263   1.299  10.098 -0.2051  0.1174 -0.0932
18494SOL    HW167207   5.218   1.372  10.056 -2.1524  0.6815  2.6930
18494SOL    HW267208   5.325   1.340  10.158  0.4097 -0.5734 -0.2479
18495SOL     OW67209   1.489   0.952   3.568  0.1225  0.3620  0.3940
18495SOL    HW167210   1.402   0.969   3.604 -0.3281 -0.7652 -0.1087
18495SOL    HW267211   1.478   0.872   3.516  0.8612  1.5614 -1.7531
18496SOL     OW67212  12.936  13.141   6.743  0.5028 -0.0864  0.0870
18496SOL    HW167213  12.961  13.225   6.704  0.3152  0.8011  1.7829
18496SOL    HW267214  13.016  13.089   6.739  0.1968 -0.4977 -2.4939
18497SOL     OW67215   1.315   5.244  12.118  0.1435  0.1570  0.1397
18497SOL    HW167216   1.404   5.227  12.149 -0.2100 -0.6032  0.7867
18497SOL    HW267217   1.272   5.159  12.124 -0.5265  0.4402 -0.5252
18498SOL     OW67218   3.107   2.025   5.629 -0.4863  0.0297  0.0393
18498SOL    HW167219   3.012   2.034   5.637 -0.5476  0.4526 -0.9800
18498SOL    HW267220   3.142   2.107   5.664 -0.6012  0.5826 -1.0687
18499SOL     OW67221   8.883  13.546  10.245 -0.0261  0.6804  0.4186
18499SOL    HW167222   8.942  13.617  10.218 -0.5584  0.3026 -1.9225
18499SOL    HW267223   8.901  13.475  10.184 -1.0581 -0.4226  1.3463
18500SOL     OW67224   7.747   7.728  13.073  0.0347 -0.3162 -0.6189
18500SOL    HW167225   7.656   7.747  13.098  0.5870  1.5520  0.1818
18500SOL    HW267226   7.750   7.633  13.062 -1.8607 -0.4842 -0.0545
18501SOL     OW67227  10.512  10.135   9.213 -0.5524  0.1710 -0.8601
18501SOL    HW167228  10.453  10.171   9.279 -0.4436 -0.2707 -0.5137
18501SOL    HW267229  10.596  10.126   9.259 -0.3660  0.2660 -1.1831
18502SOL     OW67230   8.056  12.519   9.117  0.0270 -0.6386  1.1272
18502SOL    HW167231   8.130  12.536   9.059 -0.9379 -0.3720 -0.0663
18502SOL    HW267232   8.082  12.558   9.200  1.0938 -0.2663  0.6407
18503SOL     OW67233   9.305  13.671  12.119 -0.2379  0.5262  0.0335
18503SOL    HW167234   9.339  13.750  12.162  0.2809  0.4158 -0.1651
18503SOL    HW267235   9.361  13.660  12.043 -0.6429  0.2591 -0.2249
18504SOL     OW67236   5.965   0.620  12.566 -0.2570  0.4757  0.4237
18504SOL    HW167237   5.995   0.640  12.655 -0.1294 -1.5787  0.9103
18504SOL    HW267238   5.949   0.705  12.526 -1.4254  1.4692  2.7865
18505SOL     OW67239   3.513   2.432   8.611 -0.0381  0.8654 -0.3451
18505SOL    HW167240   3.574   2.477   8.554  1.5929 -0.8227 -0.0317
18505SOL    HW267241   3.445   2.398   8.553  0.0854  1.5354 -0.8896
18506SOL     OW67242   3.518   8.325   8.510 -0.2491  0.5191  0.4680
18506SOL    HW167243   3.425   8.339   8.527 -0.8066 -0.1283 -1.7735
18506SOL    HW267244   3.551   8.283   8.590 -2.3012 -0.9372  0.6231
18507SOL     OW67245  11.336   0.206   6.543  0.3124 -1.0636 -0.3817
18507SOL    HW167246  11.264   0.174   6.488 -1.3696  0.6461  0.6973
18507SOL    HW267247  11.295   0.223   6.628  1.9873  0.0509  0.2464
18508SOL     OW67248   6.141   2.300   9.468  0.4740 -0.2726 -1.0547
18508SOL    HW167249   6.060   2.351   9.474 -0.8542 -2.2228 -1.5145
18508SOL    HW267250   6.132   2.233   9.537  2.1522  0.0498 -0.4789
18509SOL     OW67251   6.653   6.003  10.758  0.0379  1.0314 -0.3009
18509SOL    HW167252   6.623   5.922  10.718  2.7482 -0.2551  0.0289
18509SOL    HW267253   6.650   6.068  10.688  0.5321 -0.0780 -1.3742
18510SOL     OW67254  10.620   3.150   5.198 -0.5178 -0.3562  0.2702
18510SOL    HW167255  10.673   3.191   5.129 -0.7819  1.7448  1.2418
18510SOL    HW267256  10.644   3.058   5.194  2.3721  0.2978 -0.0878
18511SOL     OW67257  11.429   4.151   5.993 -0.5983  0.1939 -0.0197
18511SOL    HW167258  11.391   4.238   5.982 -0.9686  0.1409  0.7622
18511SOL    HW267259  11.471   4.132   5.909 -1.8895  0.4638 -0.7527
18512SOL     OW67260   6.344   7.148   6.952 -0.7563  0.4946  0.0797
18512SOL    HW167261   6.298   7.136   7.035  0.3289  0.6550  0.7368
18512SOL    HW267262   6.419   7.204   6.975 -0.8014  1.0841 -1.1464
18513SOL     OW67263  12.878  12.077   3.938 -0.2683  0.0568  0.2895
18513SOL    HW167264  12.950  12.060   3.877 -0.4120 -3.4863  0.8843
18513SOL    HW267265  12.803  12.094   3.881  0.0387 -1.0795 -0.4926
18514SOL     OW67266  12.186   2.431   6.977 -0.2013  0.5554 -0.4165
18514SOL    HW167267  12.116   2.473   6.927 -0.8712  0.5226  0.4739
18514SOL    HW267268  12.261   2.431   6.917 -0.7992  1.0790 -1.1915
18515SOL     OW67269   0.423   9.277   7.218  0.3157  0.6699  0.6810
18515SOL    HW167270   0.486   9.239   7.279  1.7917  0.1943 -1.0674
18515SOL    HW267271   0.382   9.202   7.175 -0.5450  1.0029  0.8961
18516SOL     OW67272   4.591   4.824  13.272  0.0281 -0.2564  0.7011
18516SOL    HW167273   4.532   4.755  13.301  0.1834 -0.0114  1.6576
18516SOL    HW267274   4.618   4.798  13.184 -0.8536 -0.7866  0.5773
18517SOL     OW67275  10.121   5.158   0.321  0.1335 -0.0602  0.0694
18517SOL    HW167276  10.095   5.200   0.403 -1.0539 -2.0325  0.7919
18517SOL    HW267277  10.182   5.089   0.347 -0.4918 -0.9140 -0.6435
18518SOL     OW67278   2.956   5.314   6.620 -0.4956 -0.4086  0.0440
18518SOL    HW167279   2.929   5.393   6.668 -0.7281 -1.6624  2.0682
18518SOL    HW267280   2.982   5.252   6.687  1.2527 -1.5527 -1.5658
18519SOL     OW67281   2.643   6.553   3.832 -0.7067 -0.0938 -0.4943
18519SOL    HW167282   2.721   6.581   3.783  0.2508 -0.0998  0.9934
18519SOL    HW267283   2.674   6.484   3.890 -1.1401  1.8669  2.2224
18520SOL     OW67284   5.997   7.658   9.162 -0.5242 -0.4931 -0.5134
18520SOL    HW167285   5.913   7.636   9.120 -0.8581 -1.2217  0.5048
18520SOL    HW267286   6.039   7.574   9.176 -1.2516 -0.4749  2.2705
18521SOL     OW67287   1.310   5.531  10.684 -0.4142 -0.1511  0.2333
18521SOL    HW167288   1.217   5.553  10.671 -0.9972 -2.5376 -0.0542
18521SOL    HW267289   1.354   5.616  10.690 -2.5288  1.0452 -0.2222
18522SOL     OW67290  10.497   0.083   6.151  0.3804 -0.2453  0.1042
18522SOL    HW167291  10.512   0.085   6.057  0.5219  4.6123 -0.0268
18522SOL    HW267292  10.407   0.112   6.162  0.9705  1.2938  1.4007
18523SOL     OW67293   9.279   3.794   8.933  0.1027  0.9001  0.2594
18523SOL    HW167294   9.367   3.767   8.907 -0.3593  0.2436 -0.7042
18523SOL    HW267295   9.238   3.714   8.965 -0.5306  0.9273 -0.4485
18524SOL     OW67296  10.744   7.364   4.582  0.2550  0.0364  0.2391
18524SOL    HW167297  10.748   7.353   4.677  0.6401 -2.0456  0.0369
18524SOL    HW267298  10.824   7.410   4.559 -0.3540  1.5320  1.0090
18525SOL     OW67299  11.299  11.268   1.144  0.0707 -0.1900 -0.3062
18525SOL    HW167300  11.353  11.346   1.129  1.2342 -0.7775  0.6180
18525SOL    HW267301  11.293  11.227   1.058  2.2818 -0.8150 -0.2282
18526SOL     OW67302   8.936   2.174  11.858 -0.5148  0.0132 -0.4220
18526SOL    HW167303   8.860   2.176  11.916  0.5039 -1.8669  1.1127
18526SOL    HW267304   8.931   2.088  11.815  0.3626  0.1466 -0.8052
18527SOL     OW67305   1.503   6.007   6.340 -0.2692  0.2248 -0.0122
18527SOL    HW167306   1.481   6.030   6.431  0.3539  0.6202  0.0427
18527SOL    HW267307   1.421   5.972   6.304 -0.7921  0.9851  0.4062
18528SOL     OW67308   6.103   3.540  13.553 -0.0122  0.1102  0.1917
18528SOL    HW167309   6.077   3.590  13.631 -0.2207 -1.2624  1.0392
18528SOL    HW267310   6.141   3.605  13.495 -0.1832  1.2425  1.2910
18529SOL     OW67311  12.329   8.791  13.726  0.6691  0.1016 -0.0451
18529SOL    HW167312  12.253   8.792  13.668  0.0773  1.0848  0.7067
18529SOL    HW267313  12.313   8.717  13.785 -0.4256  1.1354  0.9965
18530SOL     OW67314   3.583   7.743   9.702  0.0525 -0.0861 -0.2089
18530SOL    HW167315   3.652   7.801   9.669 -0.9015  0.6125 -1.0111
18530SOL    HW267316   3.611   7.656   9.675  1.2736  0.0185  0.6115
18531SOL     OW67317  11.747   1.076  11.813 -0.2864  0.0870 -0.3798
18531SOL    HW167318  11.683   1.077  11.742 -0.2674  0.5768 -0.3926
18531SOL    HW267319  11.760   0.983  11.832 -0.9239 -0.0215 -0.4481
18532SOL     OW67320  12.840  13.578   6.018 -0.2888 -0.1666  0.7917
18532SOL    HW167321  12.768  13.641   6.020 -1.7495 -1.7983  2.5127
18532SOL    HW267322  12.811  13.510   5.958  0.4801 -0.1395  0.3766
18533SOL     OW67323  11.374   7.011   3.477 -0.1184  0.8930 -0.1483
18533SOL    HW167324  11.345   7.055   3.556  0.3370 -0.4558  0.7970
18533SOL    HW267325  11.465   7.039   3.465  0.0411  0.5388  0.2223
18534SOL     OW67326   9.887   4.294   1.589 -0.5873 -0.6147  0.5762
18534SOL    HW167327   9.852   4.348   1.518 -1.4032 -0.4021  1.1179
18534SOL    HW267328   9.927   4.219   1.545 -0.4750 -0.1500 -0.1327
18535SOL     OW67329   0.469   4.376   1.716 -0.6049 -0.2396 -0.3621
18535SOL    HW167330   0.495   4.365   1.625 -1.5743  0.0344 -0.6932
18535SOL    HW267331   0.513   4.306   1.763  1.3091  0.6356 -0.7336
18536SOL     OW67332  13.223   9.274   8.225  0.0611 -0.0497  0.1856
18536SOL    HW167333  13.260   9.320   8.300 -0.8644 -1.4628  1.5978
18536SOL    HW267334  13.186   9.343   8.170  3.0848  1.2535 -0.3956
18537SOL     OW67335   5.869   9.310  12.592  0.1899  0.1091 -0.2441
18537SOL    HW167336   5.832   9.272  12.672  0.8419 -0.6121 -0.2710
18537SOL    HW267337   5.906   9.393  12.620 -0.5058  0.3467 -0.0077
18538SOL     OW67338   0.665   2.405   5.899  0.1667  0.2951 -0.1274
18538SOL    HW167339   0.723   2.470   5.859  1.2049 -0.1074  0.6858
18538SOL    HW267340   0.581   2.451   5.909  0.6460  1.2396 -0.3472
18539SOL     OW67341  11.188   7.290   4.268 -0.2558 -0.5725  0.0169
18539SOL    HW167342  11.217   7.203   4.240 -0.5468 -0.6102 -0.1677
18539SOL    HW267343  11.165   7.336   4.187 -1.1434 -0.6983  0.1872
18540SOL     OW67344  13.351   8.287   0.158  0.0652 -0.0846 -0.1203
18540SOL    HW167345  13.430   8.243   0.129 -0.3716 -2.0750  1.5161
18540SOL    HW267346  13.281   8.224   0.141 -0.7983  0.5765  0.8708
18541SOL     OW67347   2.051  12.222   3.452  0.1817 -0.2413 -0.1807
18541SOL    HW167348   2.095  12.216   3.536 -0.2539  1.4962  0.2166
18541SOL    HW267349   2.064  12.136   3.411 -1.7707 -2.1026  2.7090
18542SOL     OW67350   0.125   3.179   8.133  0.7357 -0.1527  0.0755
18542SOL    HW167351   0.143   3.202   8.042 -0.4192 -2.4811 -0.8214
18542SOL    HW267352   0.041   3.220   8.152 -0.6476 -2.2710 -1.0648
18543SOL     OW67353   6.511   0.862  12.611 -0.3268 -0.1074  0.2041
18543SOL    HW167354   6.513   0.785  12.554 -0.0311 -1.0714  1.4645
18543SOL    HW267355   6.448   0.840  12.679 -1.4359  1.4411 -0.2700
18544SOL     OW67356   5.580  10.717   8.890 -0.3715 -0.0984 -0.0721
18544SOL    HW167357   5.507  10.779   8.889 -0.8027 -0.6044 -0.7931
18544SOL    HW267358   5.658  10.771   8.880 -0.7067  0.3748 -0.1354
18545SOL     OW67359   3.986   2.235   3.466 -0.3960  0.1431  0.1224
18545SOL    HW167360   3.975   2.140   3.459 -0.1472  0.1419 -0.2858
18545SOL    HW267361   4.064   2.246   3.519 -0.2727  0.1144 -0.0512
18546SOL     OW67362   0.259   1.686   8.574 -0.0352  0.9441  0.4379
18546SOL    HW167363   0.332   1.710   8.630  0.1228 -1.3943  1.3489
18546SOL    HW267364   0.206   1.627   8.628 -1.5478  1.0630 -0.8515
18547SOL     OW67365   8.073  12.386   3.023 -0.1623 -0.3000  0.6545
18547SOL    HW167366   8.164  12.415   3.019 -0.9919  2.6258  1.0473
18547SOL    HW267367   8.042  12.416   3.108 -1.6253 -0.9505  0.3757
18548SOL     OW67368   8.564   9.627   5.589  0.5236 -0.3914 -0.2785
18548SOL    HW167369   8.493   9.661   5.643  0.2641  2.1787 -2.0725
18548SOL    HW267370   8.520   9.585   5.515  0.8241  0.4968 -0.9822
18549SOL     OW67371  10.096   4.901  11.628  0.6365  0.3873 -0.5136
18549SOL    HW167372  10.063   4.923  11.541  0.7475  2.1846 -0.1528
18549SOL    HW267373  10.152   4.975  11.651  3.5363 -1.6853 -0.3667
18550SOL     OW67374  12.629   2.048   5.777 -0.8716 -0.0339  0.5022
18550SOL    HW167375  12.610   2.120   5.837 -0.9075 -0.2764  0.7826
18550SOL    HW267376  12.544   2.025   5.739 -0.5868  1.3779 -1.0843
18551SOL     OW67377   6.080   0.538  13.233  0.0139  0.5087  0.0626
18551SOL    HW167378   6.098   0.494  13.316  0.8987  0.1835 -0.2904
18551SOL    HW267379   6.160   0.528  13.182 -0.0172  1.8878 -0.3216
18552SOL     OW67380  12.293  10.820  13.316  0.6374  0.9755 -0.3434
18552SOL    HW167381  12.253  10.745  13.273  1.8639  0.0661  0.0453
18552SOL    HW267382  12.354  10.782  13.379  0.1955  2.2985  0.9254
18553SOL     OW67383   4.829  10.149   9.926 -0.1812 -0.1084 -0.1080
18553SOL    HW167384   4.810  10.239   9.950 -4.5694 -0.3086 -2.0098
18553SOL    HW267385   4.833  10.102  10.009  0.6351  1.5401  0.8275
18554SOL     OW67386   5.371   5.176   9.964 -0.4213  0.3886  0.1538
18554SOL    HW167387   5.355   5.129  10.046 -2.8457  0.9533  0.0899
18554SOL    HW267388   5.400   5.263   9.992  2.7133 -0.5957  0.2862
18555SOL     OW67389  10.777   6.220   3.394 -0.2710  0.3982  0.3102
18555SOL    HW167390  10.784   6.312   3.419  2.0442  0.9347 -1.8205
18555SOL    HW267391  10.814   6.172   3.469  2.2497  1.5736 -0.0562
18556SOL     OW67392   1.749   5.407   3.979  0.4175  0.0894 -0.8685
18556SOL    HW167393   1.766   5.371   3.892  0.2375  1.3701 -1.4618
18556SOL    HW267394   1.832   5.447   4.005 -0.0510  1.4583 -1.3506
18557SOL     OW67395  12.883   2.909   9.720 -0.4809 -0.4387 -0.3028
18557SOL    HW167396  12.903   2.940   9.632 -0.8553  2.3110  0.4645
18557SOL    HW267397  12.789   2.891   9.719 -0.4791 -0.4368 -0.4677
18558SOL     OW67398   1.768   8.645   4.298 -0.0866  0.1683 -0.0390
18558SOL    HW167399   1.820   8.724   4.281  0.7526  0.3515  2.7217
18558SOL    HW267400   1.725   8.663   4.382 -0.6789 -1.9157  0.1584
18559SOL     OW67401   0.372  10.605   7.917  0.1930 -0.0405  0.3111
18559SOL    HW167402   0.371  10.608   7.822 -0.8959 -0.0642  0.3133
18559SOL    HW267403   0.337  10.519   7.939  1.1684 -0.3369  0.7255
18560SOL     OW67404  12.594   9.976   1.386  0.1722  0.1555 -0.2153
18560SOL    HW167405  12.649   9.977   1.308  0.5649  0.7834  0.0669
18560SOL    HW267406  12.651   9.943   1.456 -0.6140 -1.9364 -0.4950
18561SOL     OW67407   8.199   2.249  13.243 -0.3336  0.0207  0.2540
18561SOL    HW167408   8.128   2.214  13.297 -1.1273 -0.2272 -0.9086
18561SOL    HW267409   8.277   2.203  13.273 -0.7813 -0.2071  1.0940
18562SOL     OW67410   8.321  12.849   7.974  0.1488  0.0199 -0.4270
18562SOL    HW167411   8.363  12.935   7.978  1.1578 -0.4692 -0.2652
18562SOL    HW267412   8.293  12.831   8.063  2.1902 -0.8889  0.0951
18563SOL     OW67413   6.258  10.994  12.727  0.5468  0.0686 -0.0637
18563SOL    HW167414   6.350  11.023  12.729  0.3013  0.8602  0.0578
18563SOL    HW267415   6.241  10.961  12.816  0.5398  0.4933  0.0956
18564SOL     OW67416  11.225   5.625   0.553  0.1341  0.5111 -0.1117
18564SOL    HW167417  11.239   5.701   0.497 -2.8682 -0.3192 -2.2962
18564SOL    HW267418  11.130   5.617   0.558  0.3201 -1.3056  2.6787
18565SOL     OW67419   9.284   8.577   9.520  0.3911  0.4955  0.1872
18565SOL    HW167420   9.302   8.522   9.596  2.5223 -0.4302 -0.8869
18565SOL    HW267421   9.348   8.548   9.454 -2.2802  0.1758 -2.5234
18566SOL     OW67422   8.195   1.966   3.231  0.4888  0.7249 -0.0678
18566SOL    HW167423   8.124   2.021   3.263  0.5551 -0.2672  1.8609
18566SOL    HW267424   8.162   1.877   3.236  1.5557  0.3190  0.0041
18567SOL     OW67425  12.391  11.589  12.346  0.2089 -0.2801 -0.4190
18567SOL    HW167426  12.299  11.562  12.339  0.6909 -1.9620 -0.5508
18567SOL    HW267427  12.419  11.600  12.255 -0.6400  3.2539 -0.4002
18568SOL     OW67428   4.401  11.112   7.331  0.5617 -0.0704 -1.0656
18568SOL    HW167429   4.366  11.051   7.265 -0.5360  0.6588 -1.1949
18568SOL    HW267430   4.361  11.084   7.413 -0.1027  0.5677 -1.1573
18569SOL     OW67431   8.347  13.594   3.932  0.8515  0.5086  0.1969
18569SOL    HW167432   8.324  13.687   3.928  0.8352  0.5093  0.3002
18569SOL    HW267433   8.353  13.575   4.025 -0.0255  0.1915  0.2020
18570SOL     OW67434   7.681   5.513   9.666  0.3222 -0.3300 -0.0037
18570SOL    HW167435   7.763   5.473   9.640 -0.0239 -0.0846 -1.5421
18570SOL    HW267436   7.651   5.562   9.589 -0.6099  0.6707  0.9409
18571SOL     OW67437   4.572   7.534  12.253 -0.1405  0.1818  0.1053
18571SOL    HW167438   4.585   7.619  12.295  0.1155 -0.2170  0.8440
18571SOL    HW267439   4.649   7.483  12.277 -1.1041 -0.8375  1.1099
18572SOL     OW67440  10.268   0.859   3.422 -0.1409 -0.4803 -0.4080
18572SOL    HW167441  10.252   0.827   3.511  1.2190 -0.8530 -0.2786
18572SOL    HW267442  10.189   0.834   3.374 -0.8882 -0.3043  0.6709
18573SOL     OW67443   5.331   0.975   9.053  0.4418  0.1561 -0.8849
18573SOL    HW167444   5.293   0.943   8.972  2.3826 -3.4341 -0.5930
18573SOL    HW267445   5.413   0.926   9.062  0.5345  0.6824  3.0006
18574SOL     OW67446   8.626   8.482   7.806  0.1955 -0.4329  0.2133
18574SOL    HW167447   8.571   8.554   7.776 -1.2589 -1.4674  0.2631
18574SOL    HW267448   8.577   8.444   7.880  0.9156 -1.4780  0.1797
18575SOL     OW67449  12.976   0.756   6.612  0.5221 -0.1038 -0.2555
18575SOL    HW167450  12.975   0.784   6.521 -0.3694 -1.0687 -0.5625
18575SOL    HW267451  12.968   0.838   6.662 -1.7639  0.2860 -1.1184
18576SOL     OW67452  11.580   0.338   6.568  0.2660 -0.5491  0.4077
18576SOL    HW167453  11.580   0.407   6.634  2.4189 -0.8529  0.7885
18576SOL    HW267454  11.496   0.294   6.580 -0.9220  1.6181  0.5198
18577SOL     OW67455   9.532  11.672   2.339  0.4659 -0.3732  0.0059
18577SOL    HW167456   9.453  11.721   2.319  0.3285 -1.4265 -2.3271
18577SOL    HW267457   9.597  11.706   2.277  2.0839  0.9117  2.2760
18578SOL     OW67458   8.708   9.603  12.259  0.2219 -0.4560 -0.1200
18578SOL    HW167459   8.621   9.640  12.276  0.8733  0.8270  0.6037
18578SOL    HW267460   8.698   9.510  12.277 -0.6344 -0.0916  1.4853
18579SOL     OW67461  10.449   1.178   4.739  0.6071 -0.0803  0.2425
18579SOL    HW167462  10.366   1.133   4.720  0.3737 -0.0121  1.0658
18579SOL    HW267463  10.510   1.107   4.759  0.6045 -0.1044  0.1645
18580SOL     OW67464   3.422   3.309   6.670 -0.6392 -0.1308 -0.2524
18580SOL    HW167465   3.370   3.253   6.613  0.8915  0.1255 -1.9698
18580SOL    HW267466   3.437   3.389   6.620 -1.7897  1.4404  1.7038
18581SOL     OW67467   5.327   3.167  13.178  1.1836 -0.2160  0.4772
18581SOL    HW167468   5.242   3.209  13.191  1.1490  0.5399 -1.6834
18581SOL    HW267469   5.315   3.079  13.213 -0.4724 -0.0878  0.3363
18582SOL     OW67470   7.376  13.686   5.748  0.1447 -0.1641 -0.0008
18582SOL    HW167471   7.444  13.624   5.722 -0.8818 -0.6757 -1.6887
18582SOL    HW267472   7.301  13.631   5.772 -0.7909  0.3440 -1.5501
18583SOL     OW67473   2.694  11.383   7.563 -0.4818 -0.1608  0.0742
18583SOL    HW167474   2.762  11.351   7.621  1.7231  0.8586 -1.8025
18583SOL    HW267475   2.731  11.462   7.522 -2.3842 -0.1079 -1.7499
18584SOL     OW67476   0.465  10.040   5.097  0.1354 -0.5928 -0.3547
18584SOL    HW167477   0.471  10.135   5.098 -1.5727 -0.4616 -0.4478
18584SOL    HW267478   0.421  10.019   5.015 -0.8788 -1.3642  0.3670
18585SOL     OW67479   4.538  13.179  12.828  0.2592 -0.3029 -0.2265
18585SOL    HW167480   4.493  13.221  12.900 -0.0332  0.1598 -0.6760
18585SOL    HW267481   4.488  13.099  12.810 -0.2869  0.1209 -0.6100
18586SOL     OW67482   6.538  11.104  13.251  0.1836 -0.1387  0.1721
18586SOL    HW167483   6.585  11.056  13.182  0.4267 -0.9769  0.9020
18586SOL    HW267484   6.495  11.036  13.302  1.4048  0.3107  1.8765
18587SOL     OW67485  10.868   2.589   0.294  0.0200 -0.4533 -0.2897
18587SOL    HW167486  10.928   2.646   0.247  1.0964 -1.0856  0.2966
18587SOL    HW267487  10.876   2.614   0.386 -0.6809 -0.4853 -0.2110
18588SOL     OW67488  10.031   6.399   5.324 -0.2687  0.0263  0.0476
18588SOL    HW167489   9.953   6.346   5.304 -0.0902 -0.1463 -0.1953
18588SOL    HW267490  10.001   6.462   5.389 -0.4018 -0.5836  0.5863
18589SOL     OW67491   9.636   5.785   5.679 -0.1172  0.0854 -0.2362
18589SOL    HW167492   9.560   5.777   5.735 -0.3932  0.0442 -0.6102
18589SOL    HW267493   9.683   5.861   5.712 -1.0021  0.8989 -0.7977
18590SOL     OW67494   0.629   4.150   7.363  0.6906  0.6677  0.7024
18590SOL    HW167495   0.570   4.206   7.312 -0.0153 -0.1074  0.6533
18590SOL    HW267496   0.658   4.206   7.435  0.8698  1.4441  0.0449
18591SOL     OW67497   1.052   5.205  13.327  0.0425 -0.0811  0.0532
18591SOL    HW167498   1.114   5.135  13.308 -0.8716 -0.9857  0.2986
18591SOL    HW267499   1.010   5.223  13.243  1.3648  1.3092 -0.3654
18592SOL     OW67500   5.567   1.444   9.215  0.0815 -0.2225  0.3665
18592SOL    HW167501   5.605   1.389   9.147  1.7988  1.4826 -0.1500
18592SOL    HW267502   5.633   1.447   9.284  0.9630  2.6082 -0.4396
18593SOL     OW67503  12.908  11.778  11.151 -0.4735  0.1626  0.2110
18593SOL    HW167504  12.974  11.759  11.084 -1.2297 -0.3180 -0.4233
18593SOL    HW267505  12.909  11.701  11.209 -0.1531  0.3652  0.4770
18594SOL     OW67506   8.586   4.246   2.227 -0.0188  0.1454 -0.1272
18594SOL    HW167507   8.544   4.324   2.192  1.0599  1.4302  1.2769
18594SOL    HW267508   8.661   4.231   2.170 -0.3658 -0.0012 -0.5423
18595SOL     OW67509  10.934  13.107   2.155  0.5000 -0.1112  0.5353
18595SOL    HW167510  11.019  13.112   2.111 -0.3246 -0.9170 -1.2856
18595SOL    HW267511  10.934  13.022   2.197  0.4947 -0.2373  0.2841
18596SOL     OW67512   0.161  12.086  12.410 -0.2412 -0.2342 -0.2519
18596SOL    HW167513   0.121  12.165  12.373  0.7654 -0.1342 -1.1742
18596SOL    HW267514   0.147  12.019  12.344 -0.1421 -0.5505  0.0501
18597SOL     OW67515  13.543   8.879   2.162  0.0964  0.3970  0.0841
18597SOL    HW167516  13.588   8.962   2.148  0.5666  0.1508  0.1245
18597SOL    HW267517  13.474   8.878   2.095  1.2937 -0.0375 -1.2126
18598SOL     OW67518   3.014   2.526   4.513  0.6259 -0.3018  0.2544
18598SOL    HW167519   3.008   2.607   4.563 -1.2514 -0.1117 -0.1918
18598SOL    HW267520   2.930   2.520   4.466  1.3834 -1.6591 -1.0239
18599SOL     OW67521  12.326   2.000   0.476  0.0567  0.1586  0.4923
18599SOL    HW167522  12.350   1.947   0.400 -0.5461  0.2255  0.2470
18599SOL    HW267523  12.396   2.064   0.485 -0.1481  0.5072 -0.3543
18600SOL     OW67524   2.578   7.855   9.068 -0.3065 -0.1735  0.1770
18600SOL    HW167525   2.645   7.815   9.013 -0.1468  2.0712 -1.3713
18600SOL    HW267526   2.628   7.902   9.136 -0.1614  2.1003 -1.3938
18601SOL     OW67527   9.529   3.779   5.577 -0.3846  0.0289  0.2247
18601SOL    HW167528   9.601   3.840   5.594 -0.7808 -0.0575  2.6303
18601SOL    HW267529   9.451   3.835   5.572 -0.3291  0.0075 -1.0994
18602SOL     OW67530   7.265   3.319   8.987 -0.1909  0.0121 -0.0628
18602SOL    HW167531   7.336   3.314   8.924  1.0322  0.5284  1.2190
18602SOL    HW267532   7.263   3.411   9.014 -1.5068  0.0597 -0.2307
18603SOL     OW67533   8.743   0.607   0.266 -0.2778  0.6439  0.0933
18603SOL    HW167534   8.755   0.564   0.350 -2.1745  1.7262  0.9850
18603SOL    HW267535   8.780   0.546   0.202  0.1221 -0.7395  1.5809
18604SOL     OW67536   2.885   1.148  11.254  0.2419 -0.0968 -0.5310
18604SOL    HW167537   2.909   1.204  11.180  1.5235 -0.6000 -0.5187
18604SOL    HW267538   2.969   1.115  11.288 -0.3901 -0.7623  0.4496
18605SOL     OW67539   4.440  13.405   7.645  0.1096 -0.0644 -0.1530
18605SOL    HW167540   4.502  13.477   7.630 -0.2347  0.5176  1.0932
18605SOL    HW267541   4.363  13.429   7.594  1.0229 -1.0013 -2.0531
18606SOL     OW67542  12.107   3.780   8.097 -0.1226  0.7744 -0.1455
18606SOL    HW167543  12.188   3.832   8.107  1.5059 -1.4008 -1.1879
18606SOL    HW267544  12.110   3.717   8.169 -1.1704  0.9769  0.0889
18607SOL     OW67545   9.924   8.593   8.355 -0.4093  0.0759  0.2183
18607SOL    HW167546   9.867   8.665   8.382 -0.1775  0.3336  0.0214
18607SOL    HW267547   9.981   8.578   8.431 -2.0596 -1.5563  1.2405
18608SOL     OW67548  11.117   9.922   9.969  0.1513 -0.0669  0.6055
18608SOL    HW167549  11.094   9.927  10.062 -0.3514  0.3058  0.4707
18608SOL    HW267550  11.098   9.832   9.944 -2.2503  0.4641  0.2551
18609SOL     OW67551  13.692  11.906   7.079  0.8148  0.4595  0.4616
18609SOL    HW167552  13.754  11.939   7.144  0.2925  1.8410  0.2951
18609SOL    HW267553  13.747  11.870   7.009  1.4132  0.9215  0.6883
18610SOL     OW67554   1.395   5.578  12.812  0.0366  0.0299  0.0092
18610SOL    HW167555   1.321   5.592  12.871 -0.0133  2.2596 -0.4701
18610SOL    HW267556   1.468   5.556  12.869 -0.7826 -1.4439  0.5519
18611SOL     OW67557  10.691   9.209   1.767 -0.4814 -0.3257  0.3340
18611SOL    HW167558  10.709   9.194   1.674 -0.0996 -1.4112  0.5630
18611SOL    HW267559  10.657   9.124   1.798  1.2650 -0.6069  1.6197
18612SOL     OW67560   5.916  12.585  13.276  0.2105  0.0648  0.0027
18612SOL    HW167561   5.962  12.669  13.265  0.0738  0.1743  0.2523
18612SOL    HW267562   5.956  12.547  13.354 -0.4084  0.3492  0.4634
18613SOL     OW67563  11.846  12.222  13.550  0.0195  0.2663  0.3602
18613SOL    HW167564  11.940  12.225  13.569  0.3303 -1.8552 -0.4737
18613SOL    HW267565  11.839  12.250  13.459 -0.1305  0.2411  0.3643
18614SOL     OW67566   2.816   1.513  11.081  0.1541  0.1649 -0.0751
18614SOL    HW167567   2.819   1.596  11.128 -0.2924 -0.0902  0.4133
18614SOL    HW267568   2.739   1.469  11.115  1.0123 -0.9449  0.4997
18615SOL     OW67569  13.293   2.844   8.863  1.2312  0.2750 -0.4763
18615SOL    HW167570  13.337   2.856   8.947 -0.5545  1.4872  0.3552
18615SOL    HW267571  13.239   2.766   8.875 -0.7660  1.7045  0.3698
18616SOL     OW67572   3.850   1.932  10.839  0.1599  0.6346 -0.4303
18616SOL    HW167573   3.800   1.881  10.902  0.8636  1.1726  0.5907
18616SOL    HW267574   3.808   1.914  10.755 -1.1037  0.2921  0.2526
18617SOL     OW67575   7.647   3.998  11.051 -0.4637  0.3569 -0.3707
18617SOL    HW167576   7.603   3.927  11.099 -0.8001  2.5563  2.9499
18617SOL    HW267577   7.740   3.987  11.072 -0.5548  1.0200  0.4587
18618SOL     OW67578   0.561   8.990   3.659  0.4355 -0.6848 -0.2006
18618SOL    HW167579   0.513   8.908   3.671 -1.8881  0.5896 -0.0945
18618SOL    HW267580   0.523   9.050   3.724  0.9681  0.9005 -1.2922
18619SOL     OW67581   0.270   4.329   8.801 -0.2715  0.1214  0.0676
18619SOL    HW167582   0.332   4.319   8.873  0.6781  3.1675 -0.2278
18619SOL    HW267583   0.205   4.259   8.816  1.4334 -1.1260  2.1940
18620SOL     OW67584  12.376   1.932   7.816  0.0378 -0.0957  0.0425
18620SOL    HW167585  12.404   1.989   7.744  0.3914 -0.2545  0.0511
18620SOL    HW267586  12.419   1.968   7.894 -0.1859 -0.0407  0.1421
18621SOL     OW67587   3.289  12.675  11.984  0.1204  0.0747 -0.4414
18621SOL    HW167588   3.302  12.729  11.906  0.4587 -1.0483 -1.1743
18621SOL    HW267589   3.375  12.635  12.000  0.3627  1.1224  1.1666
18622SOL     OW67590  11.783  11.220   5.152  0.2736  0.1168 -0.1141
18622SOL    HW167591  11.736  11.149   5.196  0.0824  0.6407  0.5426
18622SOL    HW267592  11.795  11.189   5.062 -0.0921 -0.6086  0.0812
18623SOL     OW67593   8.929   9.503   9.586  0.2999  0.2542 -0.5189
18623SOL    HW167594   8.843   9.461   9.588 -0.0235  0.7820  3.5086
18623SOL    HW267595   8.991   9.432   9.569 -0.6586 -0.8127  0.3177
18624SOL     OW67596   4.119  10.667   0.725 -0.3897 -0.7931 -0.0163
18624SOL    HW167597   4.131  10.583   0.770  1.5793 -0.4360  0.2266
18624SOL    HW267598   4.075  10.722   0.788 -2.9343 -1.9857 -0.6390
18625SOL     OW67599   8.415   6.441   9.382 -0.4944  0.3252 -0.4029
18625SOL    HW167600   8.465   6.444   9.300  0.4382  0.5619  0.1615
18625SOL    HW267601   8.429   6.352   9.415  1.5279  1.0820  0.9308
18626SOL     OW67602  12.220   6.102   1.551  0.0373 -0.4677 -0.6299
18626SOL    HW167603  12.136   6.063   1.577 -0.0795  0.0832 -0.1541
18626SOL    HW267604  12.264   6.120   1.634  1.3731 -2.3253 -0.8941
18627SOL     OW67605  11.265  10.975   3.264  0.7847  0.0439 -0.1530
18627SOL    HW167606  11.235  11.013   3.181 -0.8387 -1.4522 -0.2976
18627SOL    HW267607  11.213  10.895   3.274 -0.8207  1.3470  3.4830
18628SOL     OW67608  13.403   4.396   8.548 -0.0820  0.0938  0.0848
18628SOL    HW167609  13.486   4.443   8.549  0.2050 -0.4199  0.7866
18628SOL    HW267610  13.361   4.424   8.466  0.9865 -0.0097 -0.5193
18629SOL     OW67611  12.155  11.454   3.016 -0.5917  0.8352  0.9485
18629SOL    HW167612  12.229  11.495   2.970 -0.0295 -0.2970  0.8021
18629SOL    HW267613  12.156  11.363   2.986 -2.0873  0.8101  0.9200
18630SOL     OW67614   2.746  10.211   6.090  0.0609 -0.0832  0.2674
18630SOL    HW167615   2.703  10.151   6.029 -0.1756 -0.3595  0.6979
18630SOL    HW267616   2.761  10.291   6.039 -1.2775  0.1471  0.2033
18631SOL     OW67617   0.265   5.195   5.923 -0.1373  0.0374 -0.0392
18631SOL    HW167618   0.256   5.105   5.952 -1.1038 -1.0537 -3.3165
18631SOL    HW267619   0.358   5.204   5.900  0.1640  0.2298  1.1929
18632SOL     OW67620   6.391   5.872   7.768  0.6677 -0.0589 -0.1938
18632SOL    HW167621   6.407   5.863   7.862  0.7253 -0.5331 -0.2447
18632SOL    HW267622   6.474   5.848   7.727  0.6342  0.1226 -0.3643
18633SOL     OW67623  11.372   7.784   5.496 -0.2540  0.1077 -0.1131
18633SOL    HW167624  11.336   7.872   5.490 -0.2251  0.2091  0.9608
18633SOL    HW267625  11.299   7.730   5.527  0.0043 -0.0506  0.2251
18634SOL     OW67626   1.337   9.809  12.065 -0.0564 -0.7245 -0.9492
18634SOL    HW167627   1.246   9.797  12.037 -0.1648 -0.3268 -0.7713
18634SOL    HW267628   1.330   9.852  12.150  0.3091 -0.2245 -1.1706
18635SOL     OW67629  13.308   6.154   3.233 -0.1761 -0.1918  0.8426
18635SOL    HW167630  13.279   6.235   3.275 -0.1568  0.2561  0.0199
18635SOL    HW267631  13.395   6.175   3.199 -0.5643 -0.2388 -0.2167
18636SOL     OW67632   7.807   9.420   5.123  0.3445  0.0290 -0.9786
18636SOL    HW167633   7.864   9.476   5.176 -0.9848 -0.8515  1.5381
18636SOL    HW267634   7.793   9.470   5.043  1.4108  2.0462  0.0066
18637SOL     OW67635   1.305   0.294   1.501 -0.4712 -0.1482 -0.2347
18637SOL    HW167636   1.261   0.306   1.585  0.5958  1.6445  0.1314
18637SOL    HW267637   1.338   0.205   1.504 -0.7240 -0.2188  1.1284
18638SOL     OW67638   1.688  13.656   2.947 -0.3590 -0.2354  0.1859
18638SOL    HW167639   1.667  13.596   3.018  0.4107 -1.3345 -0.4771
18638SOL    HW267640   1.677  13.744   2.985 -1.9089 -0.7616  1.0626
18639SOL     OW67641  13.107  10.032   7.040  0.8875  0.5151  0.3623
18639SOL    HW167642  13.159  10.090   6.984  0.9141 -0.0175 -0.1782
18639SOL    HW267643  13.151  10.034   7.124  0.4549  1.8835  0.5947
18640SOL     OW67644   7.063   4.344   8.985  0.4701 -0.5607 -0.2077
18640SOL    HW167645   7.043   4.325   8.893 -0.3419  0.9333 -0.3696
18640SOL    HW267646   6.981   4.329   9.031  1.1354 -2.3412  0.4909
18641SOL     OW67647   4.939   4.266   8.119  0.0974 -0.0208  0.1772
18641SOL    HW167648   4.857   4.279   8.071  0.5199 -0.0458 -0.5699
18641SOL    HW267649   4.968   4.178   8.094 -0.3936 -0.6007  1.5917
18642SOL     OW67650  13.436  10.623   0.288  0.0860 -0.1432  0.2998
18642SOL    HW167651  13.354  10.672   0.280 -0.9474 -0.7193  4.6624
18642SOL    HW267652  13.411  10.532   0.272 -0.1451 -0.2875  1.3881
18643SOL     OW67653  10.208   4.319   8.384  0.5759  0.1906 -0.0415
18643SOL    HW167654  10.239   4.384   8.321  0.0727 -0.1606 -0.6557
18643SOL    HW267655  10.287   4.294   8.432  0.7372  1.4452  0.4021
18644SOL     OW67656   3.899  11.142  12.428  0.6848  0.2607 -0.4959
18644SOL    HW167657   3.962  11.072  12.407 -0.7555 -1.5956  0.9601
18644SOL    HW267658   3.813  11.101  12.416 -0.2257  2.0602 -0.3722
18645SOL     OW67659   9.848   4.661  13.270  0.5951  0.3359 -0.1338
18645SOL    HW167660   9.850   4.638  13.363  0.4546  0.6873 -0.0422
18645SOL    HW267661   9.916   4.607  13.230  1.2984  0.8616  0.3303
18646SOL     OW67662   6.833   3.577  12.032  0.3618 -0.0492 -0.1553
18646SOL    HW167663   6.758   3.628  12.000  0.7061  0.5761  0.0060
18646SOL    HW267664   6.900   3.643  12.050  1.2983 -0.6833 -1.2288
18647SOL     OW67665   0.907  11.991   1.745 -0.4154  0.0865 -0.2728
18647SOL    HW167666   0.854  12.065   1.774  0.2336  0.1121  0.8843
18647SOL    HW267667   0.847  11.938   1.692 -1.4733  0.3441  0.6404
18648SOL     OW67668  13.176   4.119   7.905 -0.6651  0.4804 -0.1731
18648SOL    HW167669  13.242   4.174   7.863  1.1959 -1.5953 -0.1486
18648SOL    HW267670  13.188   4.135   7.999  0.4635 -0.5192 -0.1202
18649SOL     OW67671  11.334  10.957  10.132  0.0576  0.2549  0.3785
18649SOL    HW167672  11.348  10.996  10.046 -0.8309  1.0162  0.5688
18649SOL    HW267673  11.371  11.021  10.193 -0.8821  0.5496  0.6554
18650SOL     OW67674   5.335   8.473   7.086  0.3229 -0.1824  0.1014
18650SOL    HW167675   5.422   8.511   7.091  0.2769 -0.0144 -0.3729
18650SOL    HW267676   5.337   8.417   7.009  0.4014 -1.1889  0.8057
18651SOL     OW67677   3.586   8.479  10.221 -0.6126  0.0386  0.1258
18651SOL    HW167678   3.548   8.392  10.215 -0.9717  0.2225 -0.3243
18651SOL    HW267679   3.584   8.513  10.131  0.4366  0.1289  0.1264
18652SOL     OW67680   0.744  10.465   6.784  0.6718  0.3386 -0.2016
18652SOL    HW167681   0.777  10.552   6.805 -0.5894  0.6434  0.6443
18652SOL    HW267682   0.725  10.425   6.869  1.6658 -0.9512 -0.5631
18653SOL     OW67683  10.335   0.308   1.212 -0.4337 -0.2171 -0.1596
18653SOL    HW167684  10.353   0.402   1.212  1.9851 -0.6127 -0.6385
18653SOL    HW267685  10.372   0.276   1.130  2.0975 -2.0726  1.5416
18654SOL     OW67686   4.133   6.697   6.866  0.1129 -0.5308 -0.1566
18654SOL    HW167687   4.046   6.737   6.868  0.3860  0.1498 -1.2044
18654SOL    HW267688   4.132   6.634   6.939 -1.9624 -2.0327 -1.3623
18655SOL     OW67689   4.430   0.243   6.318  0.5385 -0.4153  0.8597
18655SOL    HW167690   4.469   0.234   6.231  1.7259 -1.9249  1.5029
18655SOL    HW267691   4.449   0.160   6.362 -1.9847 -0.5757  1.8241
18656SOL     OW67692  11.128   0.588   4.448 -0.3078 -0.0946 -0.2004
18656SOL    HW167693  11.068   0.586   4.373 -1.4884 -0.7211  0.7378
18656SOL    HW267694  11.157   0.497   4.457  0.0116  0.0249 -0.0294
18657SOL     OW67695   8.274  13.342   3.135  0.3024 -0.1430  0.2678
18657SOL    HW167696   8.244  13.375   3.050 -0.0056  0.6918  0.6844
18657SOL    HW267697   8.254  13.249   3.133  1.0126 -0.2937 -0.8738
18658SOL     OW67698  12.303   4.269   7.076 -0.5621 -0.2793  0.4218
18658SOL    HW167699  12.282   4.306   6.990 -3.9170  2.5165  2.2408
18658SOL    HW267700  12.383   4.314   7.103 -1.5839  1.6797  0.2952
18659SOL     OW67701   3.184   7.318  12.259 -0.6158 -0.1847 -0.1597
18659SOL    HW167702   3.174   7.223  12.272  0.5589 -0.4797 -1.1298
18659SOL    HW267703   3.274   7.336  12.288 -0.3231  0.3450 -1.3305
18660SOL     OW67704   3.049   6.643  12.178 -0.0661  0.2680 -0.2082
18660SOL    HW167705   2.971   6.690  12.149  0.0560  1.4900  1.3170
18660SOL    HW267706   3.017   6.557  12.202 -1.2177  1.1505  1.5893
18661SOL     OW67707  10.385   8.248   6.663  0.2013  0.1930  0.0807
18661SOL    HW167708  10.301   8.213   6.692  1.2269 -1.2697  1.4591
18661SOL    HW267709  10.364   8.334   6.628 -1.7892  0.1490  1.0214
18662SOL     OW67710   6.828  10.753  10.676 -0.3217  0.3911  0.0443
18662SOL    HW167711   6.857  10.758  10.767 -1.3596  1.4375  0.3515
18662SOL    HW267712   6.900  10.791  10.625 -0.0375  0.4675  0.5012
18663SOL     OW67713   7.823   9.101   9.474  0.7604  0.0005  0.5278
18663SOL    HW167714   7.916   9.122   9.467  0.9271 -1.0577 -0.5496
18663SOL    HW267715   7.818   9.006   9.468 -0.2688 -0.1083  2.2002
18664SOL     OW67716   2.428   6.073   2.862  0.0097 -0.2720 -0.6172
18664SOL    HW167717   2.375   6.065   2.941  0.4668  0.9710 -0.1503
18664SOL    HW267718   2.513   6.106   2.894 -0.1830  1.4027 -1.7247
18665SOL     OW67719  10.590  13.062   6.930 -0.3273 -0.5496  0.1686
18665SOL    HW167720  10.536  13.124   6.978 -1.2840 -0.2465 -1.2532
18665SOL    HW267721  10.546  13.050   6.846  2.7310  1.2019 -1.8764
18666SOL     OW67722  11.061   3.480   3.321  0.1621  0.5777 -0.7252
18666SOL    HW167723  10.997   3.450   3.385  0.7181  1.0355  0.0554
18666SOL    HW267724  11.094   3.400   3.280  0.5464  0.2124  0.2780
18667SOL     OW67725  10.761  12.735   5.577  0.9276 -0.0391  0.1666
18667SOL    HW167726  10.731  12.784   5.500  0.3928 -0.3283  0.1820
18667SOL    HW267727  10.696  12.665   5.586  0.2439  0.7433  1.6395
18668SOL     OW67728   3.514   3.009   7.276 -0.7512 -0.3153  0.3878
18668SOL    HW167729   3.523   2.992   7.369  0.8317 -0.6309  0.2145
18668SOL    HW267730   3.537   2.926   7.234 -1.6564 -0.2378 -0.2793
18669SOL     OW67731   0.078  13.029   3.891  0.2681  0.0562  0.1121
18669SOL    HW167732  -0.005  13.005   3.849  1.0372 -0.5467 -1.1162
18669SOL    HW267733   0.062  13.116   3.927 -1.2782 -0.5636  0.9978
18670SOL     OW67734   4.482   3.210  12.905  0.5494 -0.1629 -0.5512
18670SOL    HW167735   4.557   3.153  12.914  0.5916 -0.2833 -1.5876
18670SOL    HW267736   4.416   3.172  12.963  1.7599  0.8239  1.6005
18671SOL     OW67737   9.704  11.146  10.848 -0.4333 -0.1325 -0.0535
18671SOL    HW167738   9.768  11.215  10.829  1.2973 -1.4472  0.7344
18671SOL    HW267739   9.747  11.090  10.912 -0.7540 -3.2882 -2.3379
18672SOL     OW67740   9.946   5.411   1.307 -0.5142  0.1181  0.5071
18672SOL    HW167741   9.853   5.436   1.303 -0.2074  1.1605 -0.3208
18672SOL    HW267742   9.960   5.360   1.228 -0.5747 -0.8026  1.0701
18673SOL     OW67743  12.508  11.410   4.197  0.1399 -0.5174 -0.6633
18673SOL    HW167744  12.596  11.420   4.234 -0.1396  0.4930 -0.2308
18673SOL    HW267745  12.512  11.453   4.112 -0.5900  1.9853  0.4534
18674SOL     OW67746   2.021   9.138  11.117 -0.1258  0.2978 -0.7452
18674SOL    HW167747   2.046   9.153  11.208  1.2042  0.1220 -1.0584
18674SOL    HW267748   1.993   9.224  11.085 -1.7177  0.1376  0.1279
18675SOL     OW67749   8.249   1.778  11.637 -0.0141  0.0181  0.1491
18675SOL    HW167750   8.173   1.808  11.587  0.7461  0.3258 -0.8621
18675SOL    HW267751   8.245   1.828  11.719  0.1256  1.4641 -0.6863
18676SOL     OW67752   3.309  11.406   4.003  0.0361  0.4765 -0.2384
18676SOL    HW167753   3.277  11.494   4.024 -1.3447  0.1104 -0.6929
18676SOL    HW267754   3.254  11.348   4.056  0.5622 -0.1436 -0.3633
18677SOL     OW67755   5.543  10.197   3.278  0.0966  0.5099  0.0484
18677SOL    HW167756   5.610  10.238   3.333 -1.8645  2.0899  1.4365
18677SOL    HW267757   5.552  10.104   3.295  0.8257  0.8167  1.5558
18678SOL     OW67758   4.932   9.544   2.678  0.5377  0.2538 -0.3382
18678SOL    HW167759   4.858   9.483   2.666  0.7880  0.2664 -2.4542
18678SOL    HW267760   5.006   9.498   2.639  2.7458 -1.4016  4.9158
18679SOL     OW67761  12.522  10.439   0.910  0.0904  0.1107  0.0496
18679SOL    HW167762  12.545  10.349   0.936  0.4385 -0.1231 -1.0063
18679SOL    HW267763  12.512  10.486   0.992 -1.7987 -1.3054  0.7058
18680SOL     OW67764   7.859   2.537   4.152  0.1442 -0.1798  0.5323
18680SOL    HW167765   7.874   2.629   4.174 -0.9634  0.4303 -1.1222
18680SOL    HW267766   7.941   2.493   4.175 -0.4136  0.5235  4.6679
18681SOL     OW67767   0.646   0.573   7.615  0.4400 -0.4735  0.0752
18681SOL    HW167768   0.688   0.659   7.607  0.2839 -0.4397 -0.4155
18681SOL    HW267769   0.717   0.515   7.644  0.3673 -0.0324  1.1532
18682SOL     OW67770   4.949   5.598  11.057  0.2182  0.4707 -1.3631
18682SOL    HW167771   4.896   5.651  10.997  0.1110  1.2298 -0.6286
18682SOL    HW267772   5.029   5.650  11.069 -0.7646  1.6173  1.0579
18683SOL     OW67773  13.314   1.615   9.452  0.5419  0.3922  0.0648
18683SOL    HW167774  13.311   1.577   9.364  0.2338 -0.7673  0.5574
18683SOL    HW267775  13.387   1.676   9.449  1.1903 -0.3915 -0.7091
18684SOL     OW67776   0.227   4.952  10.348 -0.5963 -0.1185  0.6809
18684SOL    HW167777   0.233   4.931  10.254 -0.2726  2.6722  0.0053
18684SOL    HW267778   0.305   4.911  10.386 -0.2842 -0.5833 -0.4098
18685SOL     OW67779   1.137   6.240  12.770  0.1238  0.4755  0.4061
18685SOL    HW167780   1.144   6.310  12.835  0.3457 -0.6455  1.6481
18685SOL    HW267781   1.223   6.197  12.771 -0.4369 -0.6792  0.7211
18686SOL     OW67782  11.534   0.119   1.117  0.2229 -0.0944 -0.1704
18686SOL    HW167783  11.524   0.025   1.108  0.6569  0.0252 -2.6404
18686SOL    HW267784  11.507   0.155   1.033  0.0074  2.0116  0.7219
18687SOL     OW67785  10.768   4.309   5.727 -0.2306  0.1769 -0.5385
18687SOL    HW167786  10.800   4.256   5.654  1.2174  0.0234  0.1679
18687SOL    HW267787  10.846   4.331   5.778 -0.9898  1.6741  0.0716
18688SOL     OW67788   0.735   7.651   8.783 -0.0556 -0.1951  0.5766
18688SOL    HW167789   0.756   7.689   8.869  1.6490 -0.3188  0.2387
18688SOL    HW267790   0.820   7.636   8.742 -0.8354  1.2832 -1.7709
18689SOL     OW67791  12.631   2.071   6.941 -0.0986  0.0881  0.0711
18689SOL    HW167792  12.630   1.998   6.879  0.1630  0.7903 -0.7862
18689SOL    HW267793  12.723   2.098   6.944 -0.3498  1.0343 -0.4227
18690SOL     OW67794   3.242  11.736   8.875  0.1073 -0.1312 -0.3622
18690SOL    HW167795   3.299  11.749   8.799  0.8129  0.1609  0.2057
18690SOL    HW267796   3.193  11.656   8.855  0.0200  0.1447 -1.2794
18691SOL     OW67797   5.638   3.424  12.705 -0.7656  0.2823 -0.1234
18691SOL    HW167798   5.548   3.414  12.673 -1.5567  2.4945  1.1481
18691SOL    HW267799   5.632   3.495  12.770  1.4988 -1.1010  1.7341
18692SOL     OW67800   2.833   2.815   9.062  0.8381  0.1685 -0.7044
18692SOL    HW167801   2.850   2.723   9.041 -0.2144  0.0413 -1.1040
18692SOL    HW267802   2.897   2.864   9.011  2.4467 -0.3764  0.6951
18693SOL     OW67803   4.952   6.518   8.991 -0.1788  0.3282  0.0338
18693SOL    HW167804   4.947   6.605   9.032  1.0250  0.2684  0.3453
18693SOL    HW267805   4.987   6.461   9.060  1.1684  0.0742 -0.8300
18694SOL     OW67806   9.526   0.921   0.953 -0.0416  0.1316  0.3179
18694SOL    HW167807   9.529   0.985   0.882 -0.3199 -0.5947 -0.3662
18694SOL    HW267808   9.545   0.837   0.910 -0.4027 -0.3406  1.0680
18695SOL     OW67809   4.770  12.559  10.132  0.1029  0.2582  0.2901
18695SOL    HW167810   4.780  12.593  10.221  0.1720 -0.1906  0.4553
18695SOL    HW267811   4.736  12.633  10.082 -0.8925  0.2388  0.9118
18696SOL     OW67812   7.962  11.665   9.575 -0.0899 -0.5224  0.3436
18696SOL    HW167813   7.916  11.731   9.627  1.5646  2.2278 -1.4034
18696SOL    HW267814   8.013  11.616   9.639  0.7672  1.7632  1.5266
18697SOL     OW67815  13.608   4.818   1.554  0.3317  0.0933 -0.3717
18697SOL    HW167816  13.562   4.846   1.633 -1.0096 -0.6142 -0.8661
18697SOL    HW267817  13.595   4.889   1.492  0.9285  0.4145 -0.1320
18698SOL     OW67818   4.368   1.388   7.489  0.0788  0.3214  0.5723
18698SOL    HW167819   4.306   1.435   7.545  0.2017  1.6290 -0.3615
18698SOL    HW267820   4.390   1.310   7.540 -0.5965  0.9508  1.9018
18699SOL     OW67821  11.264   8.009   7.983  0.1471  0.5511  0.2055
18699SOL    HW167822  11.220   8.004   7.898 -3.9942  4.6750  1.6882
18699SOL    HW267823  11.333   8.075   7.969  0.8682 -0.2975 -0.3537
18700SOL     OW67824   0.374   1.679   8.971 -0.6184  0.3704 -1.0124
18700SOL    HW167825   0.390   1.748   9.036  1.1100 -0.5909 -0.3443
18700SOL    HW267826   0.300   1.630   9.006 -0.0143  0.1586  0.0337
18701SOL     OW67827   5.540   0.360  10.260 -0.4702 -0.5775 -0.4935
18701SOL    HW167828   5.589   0.435  10.227  0.3958 -1.1764 -0.6041
18701SOL    HW267829   5.492   0.394  10.336 -1.5931  0.5327 -1.6446
18702SOL     OW67830   0.109   5.405   0.732  0.3463  0.4633 -0.2347
18702SOL    HW167831   0.113   5.424   0.826  1.4412  4.1210 -0.8478
18702SOL    HW267832   0.192   5.360   0.713  0.9014  1.2299  0.3216
18703SOL     OW67833   5.956   9.163   2.772 -0.6139 -0.1285  0.5334
18703SOL    HW167834   5.946   9.252   2.806 -0.6044  0.6625 -1.4316
18703SOL    HW267835   5.977   9.175   2.679  0.3307 -2.1649  0.4320
18704SOL     OW67836   5.770   9.521   3.587  0.2951 -0.1812 -0.2829
18704SOL    HW167837   5.697   9.506   3.647  0.3471  0.5064 -0.0379
18704SOL    HW267838   5.748   9.603   3.543 -0.0118 -0.9550 -1.6182
18705SOL     OW67839   6.434  10.335   4.980  0.4429 -0.3259 -0.1002
18705SOL    HW167840   6.386  10.268   4.931 -1.0874  0.7069 -0.0523
18705SOL    HW267841   6.491  10.377   4.915 -0.6069  0.1504 -0.7219
18706SOL     OW67842   3.462  12.052   1.808 -0.1388  0.0212 -0.0895
18706SOL    HW167843   3.458  12.039   1.714  1.2949 -2.3419  0.0975
18706SOL    HW267844   3.425  12.140   1.822  0.9113  1.0391 -2.9551
18707SOL     OW67845  13.457   8.677   7.706 -0.3891 -0.1134 -0.3016
18707SOL    HW167846  13.428   8.699   7.794 -1.4870  0.3986 -0.7762
18707SOL    HW267847  13.390   8.618   7.672  0.6459 -1.3011 -0.3696
18708SOL     OW67848  13.435  10.196   9.970  0.0809  0.0915  0.3925
18708SOL    HW167849  13.366  10.256  10.000  0.3728  0.3512  0.5543
18708SOL    HW267850  13.517  10.245   9.984  0.2683 -0.0283 -0.2464
18709SOL     OW67851   7.867   1.939   8.344  0.2589 -0.5060  0.2584
18709SOL    HW167852   7.939   1.948   8.407  0.6651 -0.1915 -0.2427
18709SOL    HW267853   7.851   2.029   8.314  0.5104 -0.7320 -0.5728
18710SOL     OW67854   1.308   2.725   9.056 -0.0961  0.2331 -0.0498
18710SOL    HW167855   1.245   2.776   9.004 -1.7461 -0.2906  1.3395
18710SOL    HW267856   1.338   2.787   9.123 -0.9383 -0.1533  0.7049
18711SOL     OW67857   5.520   1.290   0.310 -0.4620 -0.5387  0.1633
18711SOL    HW167858   5.432   1.322   0.288  0.1786  3.4456  2.3763
18711SOL    HW267859   5.510   1.248   0.395 -0.3719 -1.1669 -0.1288
18712SOL     OW67860   7.364   7.929   7.108  0.0618  0.5972 -0.2214
18712SOL    HW167861   7.287   7.979   7.134 -1.9103 -2.6080  0.5921
18712SOL    HW267862   7.383   7.872   7.183  1.1119 -1.0662 -1.6699
18713SOL     OW67863   8.215  10.199  10.272 -1.0069  1.0110 -0.4078
18713SOL    HW167864   8.194  10.156  10.189  0.6236  0.7053 -0.6807
18713SOL    HW267865   8.239  10.127  10.330 -2.9730  1.1264  0.6520
18714SOL     OW67866   0.087   5.619  12.292  0.2993 -0.0463 -0.2294
18714SOL    HW167867   0.147   5.668  12.348  2.0298 -0.7713 -1.3368
18714SOL    HW267868   0.037   5.686  12.245  0.9844  0.6121 -0.0356
18715SOL     OW67869  12.150   0.145   1.286 -0.3954 -0.0984  0.0719
18715SOL    HW167870  12.100   0.155   1.367 -2.4583  0.3482 -1.1743
18715SOL    HW267871  12.179   0.234   1.265  1.7541 -0.4661  1.2199
18716SOL     OW67872   1.692  13.384   0.784 -0.1133  0.5178  0.2111
18716SOL    HW167873   1.721  13.343   0.865 -1.1363  0.8754  0.7817
18716SOL    HW267874   1.604  13.350   0.770 -0.1049  0.7874 -0.5212
18717SOL     OW67875   6.788   9.051   8.786 -0.0067  0.0829 -0.0954
18717SOL    HW167876   6.844   9.003   8.725  0.1847 -1.3170  1.1126
18717SOL    HW267877   6.827   9.138   8.792 -0.1790  0.3498 -2.1179
18718SOL     OW67878   7.817   6.286   3.235 -0.6072 -0.5418  0.8142
18718SOL    HW167879   7.880   6.324   3.297  0.0456  0.4420 -0.4111
18718SOL    HW267880   7.748   6.250   3.291 -0.2631  0.6888  2.1040
18719SOL     OW67881   2.464  13.143   9.887  0.4674 -0.7254  0.3569
18719SOL    HW167882   2.393  13.108   9.940  0.9313 -1.1057  0.7351
18719SOL    HW267883   2.462  13.090   9.807  0.1320 -0.5344  0.2400
18720SOL     OW67884  11.687   6.601   8.950 -0.3001 -0.4100 -0.0708
18720SOL    HW167885  11.702   6.611   9.044  0.8510  2.0262 -0.4383
18720SOL    HW267886  11.596   6.626   8.938 -0.4948 -0.8668  0.3881
18721SOL     OW67887  13.365   7.236   5.759 -0.1426 -0.3328 -0.2633
18721SOL    HW167888  13.293   7.264   5.817  0.0005  1.2465 -0.8012
18721SOL    HW267889  13.342   7.147   5.734 -0.6438 -0.7622  1.5406
18722SOL     OW67890  12.823   8.531  10.851 -0.2914 -0.3001  0.0671
18722SOL    HW167891  12.807   8.466  10.783 -0.6975 -0.0001 -0.1224
18722SOL    HW267892  12.919   8.541  10.852 -0.2905 -0.2235 -0.5331
18723SOL     OW67893   8.905  10.368  11.212 -0.4936  0.7254 -0.0699
18723SOL    HW167894   8.837  10.389  11.276  0.9906  2.3661  1.0750
18723SOL    HW267895   8.968  10.315  11.260  0.6301  1.9553 -0.1294
18724SOL     OW67896   9.242   4.508  13.493  0.4218 -0.4828  0.0103
18724SOL    HW167897   9.212   4.524  13.404  1.1769  1.2640  0.0294
18724SOL    HW267898   9.287   4.423  13.488  0.2896 -0.5025 -1.2145
18725SOL     OW67899   1.338   7.576   8.961  0.0799  0.7457 -0.1761
18725SOL    HW167900   1.268   7.543   9.017  0.1953  0.6065 -0.1126
18725SOL    HW267901   1.296   7.594   8.877  0.0871  0.1102 -0.3171
18726SOL     OW67902  10.536   9.361   2.238  0.3570 -0.1972  0.2525
18726SOL    HW167903  10.465   9.332   2.296  0.8118  0.0610  0.9503
18726SOL    HW267904  10.491   9.411   2.170 -0.0607  0.9026  1.2871
18727SOL     OW67905   4.663  10.562   3.465  0.5919  0.5295 -0.4523
18727SOL    HW167906   4.673  10.613   3.546 -1.3003  1.1281 -0.5364
18727SOL    HW267907   4.704  10.478   3.485 -0.8372  0.2330  1.5809
18728SOL     OW67908   7.352   2.065   3.671 -0.5263  0.2813  0.4234
18728SOL    HW167909   7.392   2.004   3.610 -0.8703 -0.0017  0.4760
18728SOL    HW267910   7.329   2.011   3.747 -1.5878  0.3071  0.1352
18729SOL     OW67911  12.925  10.304   9.298 -0.1731 -0.0732 -0.3211
18729SOL    HW167912  13.010  10.292   9.256  0.7609  3.2851  0.3386
18729SOL    HW267913  12.868  10.240   9.255  2.7443 -2.9051 -0.3302
18730SOL     OW67914   9.741   8.256   2.244  0.2731 -0.0300  0.0144
18730SOL    HW167915   9.708   8.345   2.232  0.6809  0.1288  0.0704
18730SOL    HW267916   9.724   8.212   2.160 -1.7029 -0.4863  0.6010
18731SOL     OW67917  13.423   4.612   0.505  0.2824  0.3585  0.0372
18731SOL    HW167918  13.354   4.606   0.439 -1.1712 -2.1797  1.5925
18731SOL    HW267919  13.377   4.597   0.588  2.3653  1.1679  1.3946
18732SOL     OW67920  10.446   5.788   8.503  0.4196 -0.2822 -0.1256
18732SOL    HW167921  10.473   5.716   8.446 -2.8734 -0.7891 -1.2930
18732SOL    HW267922  10.390   5.746   8.569  1.4493  0.7707  1.4778
18733SOL     OW67923   6.586  12.809   9.014 -0.0213 -0.6600 -0.1828
18733SOL    HW167924   6.671  12.835   9.048 -0.0319  1.7215 -1.7188
18733SOL    HW267925   6.535  12.890   9.012 -2.0563 -1.8455 -0.1468
18734SOL     OW67926   5.411  10.509  10.040 -0.1025  0.1517 -0.2598
18734SOL    HW167927   5.476  10.537  10.105  2.4271 -2.3263 -1.4805
18734SOL    HW267928   5.415  10.576   9.972  0.1755  0.7350  0.3256
18735SOL     OW67929   2.069  10.034   6.052 -0.4341  0.0429  0.5338
18735SOL    HW167930   2.135   9.980   6.097  1.5881  1.2687 -0.8014
18735SOL    HW267931   2.113  10.117   6.036 -1.4463  0.1256 -2.5138
18736SOL     OW67932   0.318   5.984   3.089  0.6951  0.1222  0.5852
18736SOL    HW167933   0.409   5.954   3.092  0.6447 -0.1306 -0.1878
18736SOL    HW267934   0.303   6.002   2.996 -0.5012 -1.2296  0.4931
18737SOL     OW67935   1.528   5.128  12.297 -0.0669  0.2154 -0.0555
18737SOL    HW167936   1.548   5.036  12.280  1.6619  0.5070  0.2501
18737SOL    HW267937   1.600   5.159  12.352 -0.7754  1.6793  0.1054
18738SOL     OW67938   8.658  13.224   2.979 -0.2679  0.1157 -0.2350
18738SOL    HW167939   8.631  13.260   3.064 -0.8604 -1.4779  0.2825
18738SOL    HW267940   8.708  13.145   3.001  0.6694  0.3673 -1.3540
18739SOL     OW67941  13.098   0.414   6.896 -0.2549  0.7033  0.1214
18739SOL    HW167942  13.018   0.461   6.873 -1.1590 -0.3290  1.0107
18739SOL    HW267943  13.113   0.436   6.988 -0.4607 -0.3775  0.4313
18740SOL     OW67944   5.722   2.510  10.825 -0.4645  0.4058  0.3356
18740SOL    HW167945   5.775   2.436  10.857 -0.8640  0.9408  2.3769
18740SOL    HW267946   5.780   2.585  10.831 -0.4122  0.4601 -0.6841
18741SOL     OW67947   7.891   7.776   5.056  0.0009  0.0550 -0.0464
18741SOL    HW167948   7.843   7.824   5.122 -0.6844  0.0230 -0.5119
18741SOL    HW267949   7.962   7.835   5.030 -0.4607  0.5626 -0.1676
18742SOL     OW67950   1.685  10.863  12.989 -0.4634 -0.3258 -0.3257
18742SOL    HW167951   1.632  10.940  13.009 -1.4391 -1.3252  1.0863
18742SOL    HW267952   1.774  10.897  12.980 -0.6560  0.8342  1.5899
18743SOL     OW67953   7.971   8.551   3.956  0.3029 -0.3082  0.2712
18743SOL    HW167954   7.890   8.597   3.978 -0.0577 -1.0193  0.4849
18743SOL    HW267955   7.980   8.563   3.861 -0.5306 -0.9463  0.0989
18744SOL     OW67956   2.730   1.919  10.717  0.1043 -0.1228 -0.1436
18744SOL    HW167957   2.761   1.837  10.755  1.3233  1.2329  2.0468
18744SOL    HW267958   2.807   1.958  10.676  0.1156  0.8687  0.7462
18745SOL     OW67959   2.851   1.674   2.912 -0.3925  0.3861 -0.1858
18745SOL    HW167960   2.785   1.667   2.843 -1.9258  1.2287  1.1195
18745SOL    HW267961   2.868   1.583   2.938 -0.8499  0.1381 -0.7257
18746SOL     OW67962   8.788   4.846  10.559 -0.2332 -0.0383 -0.4950
18746SOL    HW167963   8.739   4.877  10.482 -1.2941 -1.9750 -0.6661
18746SOL    HW267964   8.741   4.883  10.634 -2.6597 -2.5978 -0.6123
18747SOL     OW67965  10.828   7.829   5.973  0.5901  0.2807 -0.8276
18747SOL    HW167966  10.904   7.772   5.986  0.6869  0.2947 -1.2985
18747SOL    HW267967  10.763   7.797   6.035  1.4114  1.0660  0.4973
18748SOL     OW67968   1.342   6.755  11.616 -0.3704  0.0324  0.1809
18748SOL    HW167969   1.316   6.668  11.585 -0.1736  0.0169  0.0554
18748SOL    HW267970   1.278   6.814  11.575  1.7176  0.3827 -2.9252
18749SOL     OW67971   4.303   8.046   1.801  0.6151  0.4784  0.4025
18749SOL    HW167972   4.249   8.072   1.726  0.1248 -1.8480 -0.1427
18749SOL    HW267973   4.392   8.041   1.767  0.6130  0.7890  0.3501
18750SOL     OW67974   6.372   9.908   7.037  0.2305  0.5453  0.3406
18750SOL    HW167975   6.339   9.841   6.977  1.1397 -0.5631  1.0338
18750SOL    HW267976   6.294   9.946   7.077 -0.3140  0.1613 -0.3362
18751SOL     OW67977   4.201  11.533   7.972 -0.0729  0.3159 -0.0526
18751SOL    HW167978   4.257  11.458   7.956 -0.1245  0.5015 -1.1960
18751SOL    HW267979   4.261  11.608   7.974 -0.2211  0.4583 -0.7969
18752SOL     OW67980  11.040  10.469   8.973  0.2306  0.4480  0.1043
18752SOL    HW167981  11.094  10.471   8.894  0.7989 -1.3877  0.4047
18752SOL    HW267982  10.960  10.424   8.947 -1.5499  3.6509 -0.4884
18753SOL     OW67983   7.549   0.931  12.014 -0.1547 -0.1951 -0.1079
18753SOL    HW167984   7.626   0.976  11.979 -0.1635  0.3965  0.6049
18753SOL    HW267985   7.584   0.878  12.086 -0.2390 -0.8661 -0.5547
18754SOL     OW67986  12.587  10.423  10.796  0.2262 -0.1770  0.2040
18754SOL    HW167987  12.562  10.399  10.885  1.4909  0.5952  0.7961
18754SOL    HW267988  12.508  10.465  10.761 -0.2032 -0.2322  1.0583
18755SOL     OW67989   5.035  13.605   9.116  0.2569  0.0766  0.2208
18755SOL    HW167990   4.940  13.607   9.105  0.2592  1.2520  0.2539
18755SOL    HW267991   5.053  13.666   9.188  0.9081 -1.4459  1.4039
18756SOL     OW67992   3.394  11.632  12.844 -0.4804 -0.2400 -0.0532
18756SOL    HW167993   3.350  11.547  12.845 -1.1848  0.0173 -2.3308
18756SOL    HW267994   3.323  11.696  12.853  0.0503  0.1433  1.7063
18757SOL     OW67995   3.339  10.926   2.564 -0.0405  0.4977 -0.1390
18757SOL    HW167996   3.287  10.847   2.545  0.1981  0.6421 -1.4922
18757SOL    HW267997   3.428  10.894   2.576  0.0386  0.5429 -0.5879
18758SOL     OW67998   4.357  10.079  10.905  0.1894  0.2288 -0.2213
18758SOL    HW167999   4.287  10.018  10.882  1.9043 -1.0147 -2.4935
18758SOL    HW268000   4.328  10.163  10.868 -0.7707  0.1133  0.2236
18759SOL     OW68001   0.048   6.100   1.080 -0.1059  0.2470 -0.2780
18759SOL    HW168002   0.104   6.104   1.003 -0.7037  0.1794 -0.7170
18759SOL    HW268003  -0.002   6.019   1.070  0.3653 -0.1649  0.5713
18760SOL     OW68004  12.506   6.209   9.726 -0.0683 -0.2030 -0.1707
18760SOL    HW168005  12.461   6.136   9.771  0.3406 -0.1149  0.3859
18760SOL    HW268006  12.599   6.189   9.734  0.0340  0.1804 -0.3692
18761SOL     OW68007  10.816   4.512  11.532  0.1447  0.0456  0.2982
18761SOL    HW168008  10.765   4.593  11.541  3.7945  2.8045 -1.1918
18761SOL    HW268009  10.781   4.470  11.454  0.0013  1.7996 -0.6470
18762SOL     OW68010  13.330   8.527   9.562  0.4837 -0.1634  0.5908
18762SOL    HW168011  13.405   8.503   9.508 -0.2386 -0.5806 -0.2514
18762SOL    HW268012  13.320   8.621   9.549  1.1291 -0.0224  1.0643
18763SOL     OW68013  12.348   6.813  11.503 -0.0502  0.0633 -0.0977
18763SOL    HW168014  12.298   6.805  11.422 -0.9854  1.1286  0.3391
18763SOL    HW268015  12.346   6.906  11.523  0.4282 -0.1412  0.9858
18764SOL     OW68016  11.233  11.773  12.967 -0.2854 -0.3845  0.3332
18764SOL    HW168017  11.142  11.792  12.988 -0.5805 -0.1003 -1.1382
18764SOL    HW268018  11.229  11.695  12.912  0.2476  0.3550 -0.7815
18765SOL     OW68019   2.448   2.209  10.870 -0.4000  0.3227 -0.2706
18765SOL    HW168020   2.464   2.302  10.887 -0.2419  0.3921 -0.7973
18765SOL    HW268021   2.486   2.164  10.946 -1.5201  0.7516  0.5673
18766SOL     OW68022   1.889   8.963   5.138 -0.0415  0.4219  0.4509
18766SOL    HW168023   1.812   8.916   5.171 -0.0121  1.0843  1.5204
18766SOL    HW268024   1.946   8.894   5.105  0.7848 -0.5688  3.5526
18767SOL     OW68025   5.425   5.209   3.301  0.6551 -0.2405 -0.4700
18767SOL    HW168026   5.336   5.204   3.265  0.0302  0.2482  0.9393
18767SOL    HW268027   5.430   5.295   3.342  1.5189 -0.5643  0.1439
18768SOL     OW68028   4.922  10.520   3.694  0.3111 -0.4713  0.1154
18768SOL    HW168029   4.961  10.516   3.781 -0.6812  0.8013  0.6528
18768SOL    HW268030   4.914  10.613   3.675 -2.5184 -0.6197  0.1261
18769SOL     OW68031   2.251  10.121  10.238 -0.1254 -0.0035 -0.1645
18769SOL    HW168032   2.237  10.047  10.179  1.3255 -0.7232  0.3764
18769SOL    HW268033   2.285  10.083  10.319  0.0396  1.1835  0.3504
18770SOL     OW68034  11.272  10.622  13.179  0.6058 -0.3817  0.6195
18770SOL    HW168035  11.297  10.629  13.271 -0.0722 -1.0207  0.8650
18770SOL    HW268036  11.316  10.542  13.148 -0.1488 -0.8510  0.7344
18771SOL     OW68037  10.672   3.421  12.565 -0.5401  0.4177  0.2473
18771SOL    HW168038  10.701   3.497  12.514  1.1972 -1.2752 -1.4503
18771SOL    HW268039  10.674   3.451  12.656  1.0829  2.1124 -0.2681
18772SOL     OW68040   3.495  12.412   0.287 -0.5339  0.1173  0.3093
18772SOL    HW168041   3.564  12.436   0.226 -0.1484  0.3654  0.8391
18772SOL    HW268042   3.512  12.465   0.365 -2.1509  1.2730 -0.0697
18773SOL     OW68043  12.423   8.591  13.088 -0.0144  0.1392  0.0540
18773SOL    HW168044  12.459   8.521  13.144  0.2440 -0.0717 -0.3697
18773SOL    HW268045  12.329   8.573  13.085 -0.4190  1.5128  2.3307
18774SOL     OW68046   1.826   1.957   1.196 -0.1723  0.3193  0.0557
18774SOL    HW168047   1.804   1.961   1.290  0.0858  3.7366  0.0851
18774SOL    HW268048   1.919   1.976   1.192 -0.2558  0.5742 -0.9213
18775SOL     OW68049   5.505   1.421  13.589  0.2369  0.1356  0.0208
18775SOL    HW168050   5.540   1.403  13.502  0.2131  2.4894 -0.5409
18775SOL    HW268051   5.558   1.367  13.648  2.5244  1.0241 -1.1253
18776SOL     OW68052   9.115   9.764  10.467  0.1864  0.1857 -0.0449
18776SOL    HW168053   9.106   9.696  10.401 -0.2243 -1.6989  1.8659
18776SOL    HW268054   9.045   9.827  10.446 -1.2431 -1.3972 -0.2610
18777SOL     OW68055   0.296   0.620   5.864 -0.0646  0.0629 -0.2230
18777SOL    HW168056   0.208   0.581   5.871  0.4638 -1.2295 -0.4156
18777SOL    HW268057   0.298   0.687   5.932 -1.6270  0.9869 -1.0261
18778SOL     OW68058   2.704   8.003   6.207  0.3567 -0.1693 -0.3010
18778SOL    HW168059   2.640   8.016   6.277 -0.9228 -1.4855 -1.1613
18778SOL    HW268060   2.692   8.079   6.149 -1.3068 -0.9739 -1.0674
18779SOL     OW68061   0.853   8.519  11.017  0.5510  0.0028 -0.2269
18779SOL    HW168062   0.929   8.547  11.067  0.6324 -1.1872  0.3486
18779SOL    HW268063   0.884   8.446  10.963  0.2072  0.5744 -1.2318
18780SOL     OW68064   0.077   1.899   8.564 -0.5224 -0.2747  0.4211
18780SOL    HW168065   0.156   1.846   8.571  0.4484  1.1403  0.4756
18780SOL    HW268066   0.056   1.924   8.654  0.1260  0.9752  0.2407
18781SOL     OW68067  10.008  12.391  12.337 -0.1318  0.1449 -0.5341
18781SOL    HW168068   9.953  12.317  12.309  1.3302 -0.4938 -1.8603
18781SOL    HW268069  10.098  12.361  12.324  0.5179  2.0464 -0.8179
18782SOL     OW68070   6.544   0.688   6.628 -0.3275 -0.1793 -0.5006
18782SOL    HW168071   6.581   0.629   6.694  0.5182  1.7475  0.8450
18782SOL    HW268072   6.474   0.735   6.674 -0.3056  0.5963 -1.2307
18783SOL     OW68073  13.289   4.194   2.007 -0.1434 -0.5270  0.0314
18783SOL    HW168074  13.309   4.242   1.926  1.0456 -1.2306 -0.1257
18783SOL    HW268075  13.328   4.247   2.076  1.0074 -1.1272 -0.1248
18784SOL     OW68076   2.776   7.447  12.584  0.1359  0.2685  0.2552
18784SOL    HW168077   2.860   7.403  12.583 -0.7807 -1.6046  1.1955
18784SOL    HW268078   2.737   7.425  12.499 -1.4603 -3.2454  1.7267
18785SOL     OW68079  12.580   5.046  11.628 -0.4359 -1.2305  0.8189
18785SOL    HW168080  12.617   4.971  11.675  0.5786 -1.5875 -0.4872
18785SOL    HW268081  12.634   5.053  11.549 -1.7919 -0.3611 -0.0574
18786SOL     OW68082   9.379   0.845  11.755  0.2331 -0.2522 -0.1306
18786SOL    HW168083   9.342   0.757  11.754 -0.5699  0.0542  0.6565
18786SOL    HW268084   9.473   0.832  11.765  0.1071 -1.0214  0.1204
18787SOL     OW68085   7.530   0.477   1.214 -0.4529 -0.4818 -0.1720
18787SOL    HW168086   7.565   0.541   1.275  0.2114 -0.3109 -0.7171
18787SOL    HW268087   7.560   0.392   1.248  0.5596 -0.3335 -0.6601
18788SOL     OW68088   8.908   7.742   0.485 -0.0901 -0.1115 -0.2048
18788SOL    HW168089   8.998   7.719   0.509 -0.6898 -0.3426  2.1014
18788SOL    HW268090   8.914   7.831   0.450  0.9230  0.3269  1.0175
18789SOL     OW68091   5.512  10.772   9.258 -0.4829 -0.7683  0.3466
18789SOL    HW168092   5.479  10.708   9.195 -0.8590  0.5946 -0.9098
18789SOL    HW268093   5.571  10.828   9.207 -0.8344  0.3997  1.1748
18790SOL     OW68094  12.204   5.585  12.775  1.0211 -0.3936  0.2014
18790SOL    HW168095  12.205   5.566  12.869 -0.8837 -1.1562  0.1110
18790SOL    HW268096  12.273   5.650  12.763  1.7190 -0.7330  2.0213
18791SOL     OW68097   7.805   3.515   6.233 -0.0523 -0.3132  0.1971
18791SOL    HW168098   7.850   3.557   6.307  1.5455 -1.2602 -0.1745
18791SOL    HW268099   7.869   3.520   6.161 -0.8602 -1.0143 -0.5918
18792SOL     OW68100   0.657   7.579   6.948  0.2510  0.2575 -0.2117
18792SOL    HW168101   0.670   7.497   6.996  0.3879  0.6941  0.5183
18792SOL    HW268102   0.745   7.612   6.933  0.2917 -0.5379 -1.9933
18793SOL     OW68103   3.854  13.575  12.756 -0.4700 -0.0744 -0.3896
18793SOL    HW168104   3.916  13.537  12.818  0.5021  3.5173  1.0530
18793SOL    HW268105   3.768  13.551  12.790  0.0584  1.1340  1.9549
18794SOL     OW68106  12.721   8.833   9.589  0.3017 -0.6810 -0.6000
18794SOL    HW168107  12.812   8.850   9.613  0.4831 -0.8436 -1.1653
18794SOL    HW268108  12.700   8.901   9.525  0.7617 -2.0226 -2.2350
18795SOL     OW68109  11.171   2.092   8.762 -0.4247  0.1158 -0.0273
18795SOL    HW168110  11.178   1.997   8.764 -0.1447  0.1291 -0.2493
18795SOL    HW268111  11.251   2.121   8.717 -0.7555  0.4283 -0.4231
18796SOL     OW68112   2.667   7.700  10.627  0.1375 -0.1366  0.0697
18796SOL    HW168113   2.693   7.778  10.677  1.8663 -2.1187  2.5575
18796SOL    HW268114   2.585   7.672  10.667 -0.6025  0.4959 -0.9748
18797SOL     OW68115   0.967  10.670   2.432 -0.1619 -0.2561 -0.3322
18797SOL    HW168116   0.872  10.674   2.440 -0.2423  1.3063 -1.6344
18797SOL    HW268117   0.999  10.741   2.487  0.1799 -0.0635 -0.7719
18798SOL     OW68118   1.292   6.532  10.284  0.6839 -0.3505 -0.2224
18798SOL    HW168119   1.325   6.519  10.373 -0.3365  1.9653  0.5797
18798SOL    HW268120   1.260   6.446  10.257  2.2877 -1.4132  1.0767
18799SOL     OW68121   2.140   6.139  13.458  0.0377  0.6948  0.0736
18799SOL    HW168122   2.234   6.124  13.473  0.7914  0.0840 -3.9845
18799SOL    HW268123   2.101   6.052  13.464 -0.1416  0.8197  0.8461
18800SOL     OW68124   1.424   1.293   8.165 -0.1333 -0.4667 -0.0664
18800SOL    HW168125   1.442   1.387   8.168  1.6822 -0.8086  0.6144
18800SOL    HW268126   1.356   1.284   8.098 -0.8763  1.3906  0.3632
18801SOL     OW68127   2.299   7.028  13.077 -0.4527  0.0251  0.2797
18801SOL    HW168128   2.279   6.949  13.127 -0.7278  0.4902  0.9240
18801SOL    HW268129   2.371   7.069  13.125 -0.0979  0.0076 -0.2302
18802SOL     OW68130   6.039  10.433  13.376  0.9407  0.1020 -0.5419
18802SOL    HW168131   5.981  10.420  13.301  0.2869  0.0129 -0.0305
18802SOL    HW268132   6.021  10.358  13.433  1.4330  0.1708 -0.2965
18803SOL     OW68133   9.760   3.351   2.961  0.0106 -0.2005  0.3052
18803SOL    HW168134   9.744   3.331   3.054 -2.1909 -0.8926 -0.1655
18803SOL    HW268135   9.687   3.409   2.937  0.1289 -0.6421 -1.1686
18804SOL     OW68136   9.089   4.500   3.815  0.5038  0.0352 -0.3054
18804SOL    HW168137   9.163   4.441   3.800 -0.1335 -0.9345  0.2624
18804SOL    HW268138   9.121   4.563   3.878  0.8390 -0.4128 -0.0224
18805SOL     OW68139  12.282   2.538  10.261 -0.5924  0.7033 -0.5007
18805SOL    HW168140  12.299   2.630  10.240  2.5307  1.1005  2.8239
18805SOL    HW268141  12.200   2.539  10.309 -0.9169  1.6167 -1.0461
18806SOL     OW68142   0.277   3.570  10.224 -0.4999  0.3621  0.2569
18806SOL    HW168143   0.183   3.569  10.241 -0.3853  0.5524  0.9389
18806SOL    HW268144   0.296   3.660  10.199 -0.6001  0.1747 -0.5278
18807SOL     OW68145  11.289   1.487   7.893 -0.2050 -1.1561 -0.3456
18807SOL    HW168146  11.280   1.544   7.816 -0.8166 -1.1151 -0.2527
18807SOL    HW268147  11.337   1.411   7.862 -0.2498 -1.0336 -0.7176
18808SOL     OW68148  12.124   6.151   9.256 -0.0865  0.3706  0.0702
18808SOL    HW168149  12.178   6.078   9.227 -0.4923  0.1038 -0.0282
18808SOL    HW268150  12.165   6.181   9.337  0.4843  0.4841 -0.2542
18809SOL     OW68151  11.278   1.622   1.871 -0.7668 -0.8338  0.1323
18809SOL    HW168152  11.315   1.557   1.930 -2.7662 -2.1480  0.0143
18809SOL    HW268153  11.221   1.572   1.812 -1.9924  0.9522 -0.2773
18810SOL     OW68154   6.122   3.124   5.725  0.0611  0.1361 -0.1048
18810SOL    HW168155   6.071   3.123   5.644 -0.4756  0.3442  0.2259
18810SOL    HW268156   6.188   3.192   5.711 -0.2850  0.4524 -0.2077
18811SOL     OW68157  13.419   1.745   8.279  0.1123  0.5970  0.3724
18811SOL    HW168158  13.404   1.839   8.272 -1.4002  0.3400 -0.2614
18811SOL    HW268159  13.364   1.707   8.210 -0.9142 -0.8637  1.9055
18812SOL     OW68160  10.084  11.918  11.194  0.4865  0.3100 -0.1953
18812SOL    HW168161  10.095  11.841  11.251  1.8090  0.0739 -0.7337
18812SOL    HW268162  10.035  11.981  11.248 -1.4331 -1.2045 -0.0454
18813SOL     OW68163   5.032  12.261  10.724  0.1357 -0.2258  0.5516
18813SOL    HW168164   4.970  12.301  10.785 -0.7200  1.2889 -1.1809
18813SOL    HW268165   4.980  12.242  10.646  1.6632  0.3266 -0.6653
18814SOL     OW68166   1.864   8.494  12.214  0.3766 -0.2426  0.4126
18814SOL    HW168167   1.775   8.480  12.182 -0.1989 -1.8046  2.4866
18814SOL    HW268168   1.919   8.435  12.162 -0.1121 -0.7189  0.4336
18815SOL     OW68169   7.099   5.494   7.590 -0.9662  0.1494  0.2646
18815SOL    HW168170   7.148   5.457   7.663  1.5845  2.5053 -0.1186
18815SOL    HW268171   7.145   5.463   7.512 -1.0857  1.0301 -0.1736
18816SOL     OW68172   3.726   3.683   0.238  0.0024  0.4301 -0.0512
18816SOL    HW168173   3.763   3.632   0.310  1.9601 -0.0854 -1.3402
18816SOL    HW268174   3.703   3.617   0.172  1.1175  1.0530 -1.1108
18817SOL     OW68175   6.225   1.529   4.187  0.1985 -0.6361 -0.5947
18817SOL    HW168176   6.234   1.534   4.091  0.1957 -0.7158 -0.5993
18817SOL    HW268177   6.179   1.446   4.202  0.1571 -0.6006 -0.5270
18818SOL     OW68178  12.685   3.273  11.739  0.1450 -0.5951 -0.3734
18818SOL    HW168179  12.703   3.283  11.646  1.0766 -0.6387 -0.2139
18818SOL    HW268180  12.685   3.178  11.754 -2.3398 -0.7148 -0.7292
18819SOL     OW68181   7.979   4.147   5.379  0.1987 -0.5463  0.0528
18819SOL    HW168182   8.052   4.121   5.435 -1.3436  0.6782  2.8079
18819SOL    HW268183   7.960   4.238   5.404 -1.8059 -0.5807 -1.1126
18820SOL     OW68184   2.347   6.422   3.015 -0.6642  0.1062  0.3475
18820SOL    HW168185   2.286   6.352   2.994 -0.2329 -0.3864  0.7014
18820SOL    HW268186   2.305   6.471   3.086 -0.9985  0.2499  0.0490
18821SOL     OW68187   6.975  10.075   6.459 -0.5332 -0.0228  0.1256
18821SOL    HW168188   6.998  10.148   6.401 -1.9415 -0.2999 -0.8498
18821SOL    HW268189   7.038  10.007   6.438  0.6646  0.8204  0.8925
18822SOL     OW68190  10.805   5.120   9.579  0.2792  0.8247  0.2034
18822SOL    HW168191  10.789   5.107   9.672  1.0971  0.7655  0.3488
18822SOL    HW268192  10.762   5.203   9.559  0.5829  1.1299  0.7718
18823SOL     OW68193   7.716   8.659  13.124  0.3755  0.3581  0.0114
18823SOL    HW168194   7.655   8.595  13.087  2.6350 -1.1378 -1.3797
18823SOL    HW268195   7.703   8.652  13.219 -1.2043 -0.2698 -0.2204
18824SOL     OW68196  13.591   5.526   0.044 -0.9402 -0.0711 -0.0735
18824SOL    HW168197  13.577   5.510   0.137 -0.1027  0.9587  0.2515
18824SOL    HW268198  13.658   5.595   0.041  0.8033 -1.7196 -1.4512
18825SOL     OW68199   1.110   5.369   5.663 -0.5961 -0.8153  0.2580
18825SOL    HW168200   1.015   5.371   5.679 -0.4968 -0.8273  0.8533
18825SOL    HW268201   1.145   5.441   5.715 -0.4175  0.0067 -0.9579
18826SOL     OW68202   9.777  12.313   1.063 -0.5275  0.1916  0.3990
18826SOL    HW168203   9.715  12.252   1.103 -1.0075  0.0446 -0.5360
18826SOL    HW268204   9.722  12.379   1.021 -0.0151  1.1551  1.1965
18827SOL     OW68205   5.001   2.708  10.171 -0.3472  0.1380  0.5837
18827SOL    HW168206   4.909   2.693  10.194 -1.0405  1.9530 -0.8002
18827SOL    HW268207   5.029   2.626  10.131 -1.6043 -0.2013  0.3489
18828SOL     OW68208   8.181  11.847   0.734 -0.1311 -0.5694 -0.4868
18828SOL    HW168209   8.145  11.761   0.756  0.3092 -0.9070 -1.0692
18828SOL    HW268210   8.129  11.908   0.786 -1.0156 -1.1183 -0.7001
18829SOL     OW68211   2.315   3.216   8.217 -0.4521  0.1040 -0.5088
18829SOL    HW168212   2.313   3.312   8.210 -0.4406  0.0329 -1.6550
18829SOL    HW268213   2.408   3.194   8.221 -0.4600  0.1477  0.0285
18830SOL     OW68214   1.852   7.245   4.519 -0.0279 -0.1176  0.3888
18830SOL    HW168215   1.774   7.299   4.516 -0.1388 -0.3264 -1.1832
18830SOL    HW268216   1.916   7.299   4.565 -0.7797  0.4785  0.7586
18831SOL     OW68217   1.782   5.322   8.464  0.2810  0.0741  0.2856
18831SOL    HW168218   1.707   5.269   8.438  0.3941 -0.1691  0.4549
18831SOL    HW268219   1.768   5.406   8.421 -0.4226  0.2509  0.8429
18832SOL     OW68220   7.743   6.480   1.780 -0.0414 -0.3564  0.2991
18832SOL    HW168221   7.729   6.541   1.853  0.5759  0.3038 -0.1260
18832SOL    HW268222   7.838   6.477   1.770 -0.1331 -0.1991 -0.6831
18833SOL     OW68223   3.273   3.025   0.415  0.2427 -0.2546  0.7157
18833SOL    HW168224   3.259   3.002   0.507 -1.4198 -0.7734  0.3818
18833SOL    HW268225   3.222   2.959   0.366 -1.0345  1.5093 -0.4531
18834SOL     OW68226   1.504  11.084   1.970  0.4865 -0.3263 -0.4619
18834SOL    HW168227   1.571  11.082   2.038  2.7213  0.4868 -2.4853
18834SOL    HW268228   1.503  11.175   1.940 -2.1714 -0.1057  0.0208
18835SOL     OW68229  10.186  12.196  10.771  0.4011 -0.4733 -0.1595
18835SOL    HW168230  10.128  12.160  10.838 -0.6466  0.1651 -0.6730
18835SOL    HW268231  10.186  12.290  10.789  1.9751 -0.5510  0.3299
18836SOL     OW68232  10.588  11.691   0.168 -0.2010 -0.1348  0.1706
18836SOL    HW168233  10.592  11.756   0.098 -1.3441  0.0437  0.2460
18836SOL    HW268234  10.611  11.739   0.247 -1.7610  0.4017  0.3414
18837SOL     OW68235  10.304   5.837   5.162 -0.4641 -0.0896 -0.3353
18837SOL    HW168236  10.321   5.929   5.142 -1.6642  0.1952 -0.1159
18837SOL    HW268237  10.268   5.801   5.080 -2.1665  0.2275  0.2431
18838SOL     OW68238   7.164   8.844   0.319 -0.9011 -0.2218  0.0147
18838SOL    HW168239   7.197   8.754   0.318  0.9761  0.4136  0.2971
18838SOL    HW268240   7.227   8.892   0.266  0.3697  1.5966  2.9266
18839SOL     OW68241   4.584   6.918   7.524  0.0388 -0.0868 -0.2579
18839SOL    HW168242   4.516   6.876   7.472  0.1847 -0.4233 -0.1771
18839SOL    HW268243   4.539   6.990   7.569 -0.2615 -0.3074 -0.2064
18840SOL     OW68244   8.604  11.873  11.687 -0.1634 -0.3334 -0.5386
18840SOL    HW168245   8.551  11.802  11.723  0.5778 -0.9055 -0.5619
18840SOL    HW268246   8.628  11.927  11.762 -2.2347  0.9580 -0.7240
18841SOL     OW68247  13.223   2.432   1.731 -0.0639 -0.0781  0.4535
18841SOL    HW168248  13.224   2.337   1.727  1.0643 -0.0696  0.1271
18841SOL    HW268249  13.131   2.455   1.744 -0.6572 -1.1275 -1.4607
18842SOL     OW68250   8.318   3.036   7.041 -0.2714  0.8162  0.0629
18842SOL    HW168251   8.238   2.996   7.076 -0.4282  0.7451 -0.3751
18842SOL    HW268252   8.387   2.974   7.062 -0.6438 -0.1249 -1.4056
18843SOL     OW68253   3.154  10.329   7.343 -0.0282 -0.2816  0.4183
18843SOL    HW168254   3.128  10.238   7.325  1.6349 -0.5055 -1.1601
18843SOL    HW268255   3.247  10.332   7.322  0.2165  1.5401  1.5500
18844SOL     OW68256   8.690   3.349   1.168  0.1026 -0.0164 -0.0172
18844SOL    HW168257   8.785   3.334   1.167  0.4033  1.7304 -0.8289
18844SOL    HW268258   8.653   3.269   1.131  1.2579 -0.6906  0.2155
18845SOL     OW68259   9.624   2.227  10.925 -0.1968  0.3427  0.5671
18845SOL    HW168260   9.558   2.208  10.860 -1.1542 -0.0811  1.6335
18845SOL    HW268261   9.580   2.216  11.009  0.8825  1.2584  1.3012
18846SOL     OW68262  11.893   3.557   0.867 -0.3641  0.2003  0.1066
18846SOL    HW168263  11.908   3.556   0.961  0.9669 -0.8510 -0.0864
18846SOL    HW268264  11.802   3.585   0.857 -0.3104  1.0195  1.6579
18847SOL     OW68265   5.514  12.419   4.461 -0.0770 -0.5761  0.0618
18847SOL    HW168266   5.458  12.497   4.467 -0.4776 -0.6678 -1.9886
18847SOL    HW268267   5.568  12.434   4.383 -0.3563 -2.4804 -0.5314
18848SOL     OW68268   6.980   2.278   3.626 -0.1889 -0.0222 -0.2380
18848SOL    HW168269   7.014   2.195   3.660  0.4454 -0.3024 -1.4865
18848SOL    HW268270   6.912   2.303   3.689 -1.1832 -2.0516 -0.3989
18849SOL     OW68271   6.527   3.477   1.348  0.3558 -0.2668 -0.1035
18849SOL    HW168272   6.452   3.535   1.357  0.3256 -0.3951  0.4718
18849SOL    HW268273   6.556   3.490   1.258 -0.8165 -0.7837 -0.5781
18850SOL     OW68274  13.462   7.182  12.094  0.3307 -0.4906  0.0491
18850SOL    HW168275  13.497   7.268  12.117  0.4472  0.3863 -2.9373
18850SOL    HW268276  13.538   7.133  12.063 -0.0817 -0.8486 -0.4042
18851SOL     OW68277   3.290  13.355   2.160  0.2142  0.1142  0.1106
18851SOL    HW168278   3.265  13.359   2.068  0.8358  1.0137 -0.0324
18851SOL    HW268279   3.209  13.335   2.207  0.0916 -1.4839 -0.7181
18852SOL     OW68280   7.245  10.797   1.992 -0.4108 -0.3415  0.5844
18852SOL    HW168281   7.340  10.810   1.990 -0.6069  1.8627  2.2559
18852SOL    HW268282   7.208  10.886   1.993 -2.6134 -1.0914 -1.7158
18853SOL     OW68283  11.386   0.966   4.668 -0.0356  0.0016 -0.2737
18853SOL    HW168284  11.308   1.004   4.626  0.5305 -0.1115 -1.4712
18853SOL    HW268285  11.408   1.028   4.738 -1.4144 -0.1586  0.3279
18854SOL     OW68286   4.733   2.050   3.234 -0.4920  0.2184 -0.1161
18854SOL    HW168287   4.710   2.083   3.320 -0.7999  0.4269 -0.2761
18854SOL    HW268288   4.661   2.078   3.177  0.9023  2.3301 -0.9809
18855SOL     OW68289   9.119   1.171   4.296 -0.3918  0.0941  0.3308
18855SOL    HW168290   9.110   1.168   4.391 -1.2809 -2.3121  0.2596
18855SOL    HW268291   9.029   1.170   4.263 -0.1131  1.6578 -0.5637
18856SOL     OW68292   1.982   3.123  12.158  0.4385 -0.2461 -0.0779
18856SOL    HW168293   2.037   3.184  12.207 -0.8561  0.4148  0.6128
18856SOL    HW268294   2.025   3.038  12.168  2.3911  0.5344 -1.2359
18857SOL     OW68295  11.298  12.690  10.025 -0.1574  0.3266 -0.4036
18857SOL    HW168296  11.209  12.703  10.057 -0.2207 -1.9261  0.5090
18857SOL    HW268297  11.304  12.596  10.006  2.1461  0.3281 -0.0408
18858SOL     OW68298   0.859   1.748  12.549 -0.2362  0.2828 -0.5715
18858SOL    HW168299   0.869   1.836  12.586  2.1515 -0.3571  0.4773
18858SOL    HW268300   0.930   1.740  12.486  0.1585 -1.1886  0.0170
18859SOL     OW68301   8.130   7.974   2.589  0.2009 -0.2433 -0.3448
18859SOL    HW168302   8.063   7.913   2.556 -0.3824 -0.6762  1.5280
18859SOL    HW268303   8.156   8.024   2.512 -3.4273  1.0544 -0.9540
18860SOL     OW68304  13.126   8.642   5.968  0.2570 -0.0983 -0.3336
18860SOL    HW168305  13.075   8.605   5.895 -0.8317 -0.3230  0.5145
18860SOL    HW268306  13.185   8.571   5.994 -0.3291 -0.5126 -0.1027
18861SOL     OW68307   1.351  12.894  10.047  0.1767 -0.2957 -0.5019
18861SOL    HW168308   1.324  12.804  10.059  0.9993 -0.5051 -0.1443
18861SOL    HW268309   1.315  12.941  10.122  0.8145 -0.5757 -0.0147
18862SOL     OW68310   1.862  12.710   0.443  0.1229  0.1040 -0.1835
18862SOL    HW168311   1.877  12.660   0.363 -0.1234 -0.5058  0.1500
18862SOL    HW268312   1.899  12.655   0.512 -0.7232  0.0904  0.2591
18863SOL     OW68313  10.755   9.106   3.043 -0.2539 -0.1393  0.0717
18863SOL    HW168314  10.768   9.017   3.010  1.4565  0.1080 -0.0039
18863SOL    HW268315  10.839   9.130   3.082 -0.8187  1.2895  0.4901
18864SOL     OW68316   2.708   7.807   4.961 -0.5883  0.5679 -0.0639
18864SOL    HW168317   2.752   7.855   5.031 -0.8345 -0.3448  0.7454
18864SOL    HW268318   2.729   7.715   4.979 -2.4211  0.1378  0.0872
18865SOL     OW68319   5.789  10.601   4.973  0.0607  0.0870 -0.4811
18865SOL    HW168320   5.750  10.640   5.051 -0.1571  0.3557 -0.7255
18865SOL    HW268321   5.717  10.553   4.932 -0.1491  1.0132 -1.2145
18866SOL     OW68322  10.258   3.838   6.979 -0.6145  0.3524  0.2392
18866SOL    HW168323  10.276   3.932   6.980  0.5815  0.1774 -1.1749
18866SOL    HW268324  10.295   3.808   6.896  0.6115 -1.6490  1.4316
18867SOL     OW68325   4.423   8.255   6.595 -0.5113 -0.0958  0.6257
18867SOL    HW168326   4.444   8.254   6.502 -0.2395 -1.0030  0.6918
18867SOL    HW268327   4.414   8.163   6.620  0.4679  0.0743  1.7246
18868SOL     OW68328   0.263   2.423   8.813  0.1848 -1.1341 -0.0772
18868SOL    HW168329   0.209   2.352   8.780 -0.8028 -1.4729  2.1117
18868SOL    HW268330   0.353   2.391   8.804 -0.0339 -1.2860 -2.1078
18869SOL     OW68331   0.803  10.803   9.178  0.1720 -0.2312  0.4015
18869SOL    HW168332   0.851  10.872   9.133  0.6065 -0.4618  0.5037
18869SOL    HW268333   0.740  10.849   9.233 -0.1408  0.0616 -0.1903
18870SOL     OW68334   2.786  11.582   4.775  0.1616 -0.0154 -0.2080
18870SOL    HW168335   2.821  11.658   4.728  2.7478 -0.7507  0.3766
18870SOL    HW268336   2.765  11.519   4.706 -1.7092  1.0399 -0.6783
18871SOL     OW68337   6.545   9.065   0.394  0.0016  0.2437  0.2417
18871SOL    HW168338   6.524   9.000   0.327 -0.2363  0.3228  0.2398
18871SOL    HW268339   6.574   9.014   0.469  2.9136  0.1977 -0.7886
18872SOL     OW68340   5.915   8.345   5.288 -0.3220 -0.6719  0.1423
18872SOL    HW168341   5.857   8.413   5.254 -0.4950 -1.0821 -0.4033
18872SOL    HW268342   5.908   8.274   5.225  1.2169 -0.5191 -0.2441
18873SOL     OW68343   5.598  12.394   3.126  0.5306 -0.2749 -0.3091
18873SOL    HW168344   5.625  12.484   3.106 -2.3743  1.1565  1.5001
18873SOL    HW268345   5.522  12.380   3.070 -0.4692 -0.6738  1.1198
18874SOL     OW68346  12.216   3.085   7.261  0.2168 -0.6280 -0.0025
18874SOL    HW168347  12.181   3.015   7.206 -1.1585 -0.9061  1.1781
18874SOL    HW268348  12.188   3.063   7.350 -0.0853  1.2927  0.4302
18875SOL     OW68349   5.557  11.871   0.306  0.4873 -0.2810 -0.1316
18875SOL    HW168350   5.641  11.889   0.347  1.2645  0.2526 -1.8828
18875SOL    HW268351   5.501  11.842   0.378  1.7798  0.6080  1.2884
18876SOL     OW68352   9.155   2.616   0.511  0.5213  0.0557 -0.7271
18876SOL    HW168353   9.185   2.682   0.449  1.1374 -1.2300 -1.8391
18876SOL    HW268354   9.077   2.579   0.470  1.8665 -1.9577 -1.5957
18877SOL     OW68355   4.020   6.089   0.112 -1.0033  0.6400  0.1858
18877SOL    HW168356   3.973   6.051   0.186  0.7994  0.3089  1.2130
18877SOL    HW268357   4.042   6.178   0.141  0.8208  0.0860  0.6008
18878SOL     OW68358   0.599   1.310   4.543 -0.4773  0.0954  0.1627
18878SOL    HW168359   0.662   1.332   4.611 -1.0381 -1.2725  1.1897
18878SOL    HW268360   0.650   1.308   4.463  0.5081  0.3174  0.7618
18879SOL     OW68361   0.981  10.225   4.899  0.2202 -0.0013 -0.2135
18879SOL    HW168362   0.914  10.257   4.960 -0.8277  1.8099 -2.1735
18879SOL    HW268363   1.013  10.144   4.939 -0.6998  0.8459  2.4820
18880SOL     OW68364   6.694   9.157   9.415  0.6277  0.2129  0.2931
18880SOL    HW168365   6.717   9.069   9.384 -0.7755 -0.5685  1.3749
18880SOL    HW268366   6.600   9.153   9.432  1.0536  0.8537  3.5530
18881SOL     OW68367   1.417   7.513   9.529 -0.1406 -0.2913 -0.2483
18881SOL    HW168368   1.505   7.493   9.495  0.0701 -0.1368  0.2005
18881SOL    HW268369   1.365   7.531   9.451  0.1617 -0.6417 -0.5370
18882SOL     OW68370  12.718  13.116   4.701 -0.4076 -0.5100  0.1070
18882SOL    HW168371  12.749  13.173   4.771 -0.2398 -0.3655 -0.0823
18882SOL    HW268372  12.683  13.177   4.635 -2.4671 -0.7020  0.9447
18883SOL     OW68373   5.941   1.327   9.837 -0.4645 -0.0792  0.5650
18883SOL    HW168374   5.921   1.356   9.926 -0.7241  0.4009  0.3530
18883SOL    HW268375   6.033   1.351   9.825 -1.0017  1.8402 -0.0461
18884SOL     OW68376  13.052   2.721  12.787  0.6251 -0.5787  0.1842
18884SOL    HW168377  13.038   2.713  12.881  1.4519 -1.4819  0.2550
18884SOL    HW268378  12.999   2.796  12.760  0.3863 -0.3081  1.3671
18885SOL     OW68379   2.290   7.355   3.177  0.1474  0.0643  0.7339
18885SOL    HW168380   2.336   7.290   3.230 -0.9283  0.5673  2.3464
18885SOL    HW268381   2.276   7.429   3.236  0.0990  1.2161 -0.6630
18886SOL     OW68382   4.703   3.641   9.694 -1.0496 -0.2164 -0.3415
18886SOL    HW168383   4.703   3.575   9.625 -0.0771 -0.9448  0.3284
18886SOL    HW268384   4.777   3.618   9.749 -0.1925  1.8924 -0.5099
18887SOL     OW68385   0.937   8.968  10.658 -0.0122  0.0091 -0.6176
18887SOL    HW168386   1.006   8.925  10.709 -1.6989 -2.3153 -0.1077
18887SOL    HW268387   0.869   8.901  10.649 -2.4672  2.3420 -0.6240
18888SOL     OW68388   9.420  13.634   0.082  0.9045 -0.1666 -0.4925
18888SOL    HW168389   9.487  13.673   0.138  0.2411  0.0868  0.1462
18888SOL    HW268390   9.380  13.566   0.137  2.0523 -1.7886 -1.5963
18889SOL     OW68391   0.280   0.012   4.765 -0.5251  0.1021  0.0404
18889SOL    HW168392   0.346   0.045   4.704 -0.1820  1.0996  0.9245
18889SOL    HW268393   0.327   0.001   4.848 -1.1197 -0.6533  0.2853
18890SOL     OW68394   2.621  11.253   1.564  0.0191 -0.8448 -0.3652
18890SOL    HW168395   2.525  11.242   1.564 -0.0934  0.0016 -1.2533
18890SOL    HW268396   2.639  11.298   1.646 -0.5250  0.2554 -0.8222
18891SOL     OW68397   1.122   8.615   8.538 -0.1452  0.4658 -1.3494
18891SOL    HW168398   1.194   8.633   8.598 -0.9860 -0.1889 -0.1047
18891SOL    HW268399   1.164   8.586   8.457  0.9667 -1.4885 -0.1306
18892SOL     OW68400   1.454   9.243   3.441  0.2420 -0.2627  0.4950
18892SOL    HW168401   1.405   9.303   3.497 -1.5533  2.0056 -3.0859
18892SOL    HW268402   1.515   9.299   3.393 -0.0910 -1.5339 -1.5642
18893SOL     OW68403   9.567   0.734   7.046 -0.3777 -0.3782 -0.0527
18893SOL    HW168404   9.551   0.819   7.088  0.3116 -0.6090  0.7114
18893SOL    HW268405   9.662   0.731   7.036 -0.2240 -1.7091  1.3849
18894SOL     OW68406   5.623   3.246   5.979  0.0929  0.0003  0.3668
18894SOL    HW168407   5.638   3.319   6.040 -0.6956  0.3096  0.2053
18894SOL    HW268408   5.531   3.254   5.955  0.5689  0.3828 -1.5036
18895SOL     OW68409  12.075   7.586   5.738 -0.1341  0.0161  0.8015
18895SOL    HW168410  12.074   7.651   5.808  0.5425  1.4692 -0.4739
18895SOL    HW268411  12.159   7.541   5.749  1.2182  2.0253 -0.5529
18896SOL     OW68412   8.211  11.656   7.211  0.0490  0.3676  0.2116
18896SOL    HW168413   8.196  11.751   7.211  2.3946  0.8220  1.6945
18896SOL    HW268414   8.293  11.645   7.163 -0.3372 -0.9837 -0.1777
18897SOL     OW68415   0.656  12.294   7.437  0.3628  1.0880 -0.7258
18897SOL    HW168416   0.622  12.218   7.391  2.5009 -1.9274  2.2260
18897SOL    HW268417   0.730  12.324   7.384  0.4674  0.1168 -1.1328
18898SOL     OW68418   0.928   8.230   7.176  0.0266 -0.5846 -0.1193
18898SOL    HW168419   0.856   8.246   7.237 -0.4782 -1.0036 -0.5965
18898SOL    HW268420   0.998   8.289   7.205 -0.2724 -0.6435  0.7464
18899SOL     OW68421   5.429   6.503   3.442  0.2057 -0.5608 -0.2454
18899SOL    HW168422   5.378   6.578   3.473 -0.0528 -0.4601 -0.9004
18899SOL    HW268423   5.364   6.444   3.404  0.2931 -1.5483  1.0643
18900SOL     OW68424   5.090   6.852  10.815  0.3632 -0.0782 -0.2166
18900SOL    HW168425   5.091   6.918  10.746 -0.6534 -0.1416 -0.3132
18900SOL    HW268426   5.018   6.878  10.872  1.9995  0.7193  1.5945
18901SOL     OW68427   7.858   8.803  10.453 -0.2610 -0.0643  0.1274
18901SOL    HW168428   7.840   8.810  10.547 -1.1259 -0.6507  0.0251
18901SOL    HW268429   7.929   8.864  10.437  1.0687 -1.1866  1.4735
18902SOL     OW68430   9.155   9.538   0.950 -0.4955 -0.1330  0.2005
18902SOL    HW168431   9.208   9.480   0.895  1.3970  0.6788  1.0683
18902SOL    HW268432   9.170   9.507   1.039 -2.2766 -0.4516  0.4170
18903SOL     OW68433   0.262   8.820  13.258  0.4862  0.5824  0.6698
18903SOL    HW168434   0.216   8.738  13.238  2.4287 -0.2073 -0.8295
18903SOL    HW268435   0.192   8.882  13.276 -1.0816 -1.1543  0.9580
18904SOL     OW68436   6.124   4.900  12.838 -0.3087  0.3035  0.1281
18904SOL    HW168437   6.079   4.839  12.896 -0.9090 -0.1476 -0.7911
18904SOL    HW268438   6.205   4.855  12.814  0.0352  0.5757  0.7689
18905SOL     OW68439   5.998   1.382   6.818 -0.1781 -0.1478 -0.2336
18905SOL    HW168440   5.909   1.404   6.792  0.3344  1.4675 -0.7496
18905SOL    HW268441   6.050   1.458   6.792  1.5162 -1.4371 -0.7869
18906SOL     OW68442  10.171  11.154   4.417  0.1588  0.0963  0.2379
18906SOL    HW168443  10.096  11.205   4.448  0.5813  1.1784 -0.4463
18906SOL    HW268444  10.161  11.069   4.459  0.1067  1.1067  2.4265
18907SOL     OW68445  12.241   2.960   6.319 -0.5302 -0.0559 -0.0444
18907SOL    HW168446  12.303   2.888   6.328  0.4258  0.6503 -0.7063
18907SOL    HW268447  12.161   2.930   6.362  0.0252 -1.2915  0.1446
18908SOL     OW68448   3.395   1.251   5.254  0.5269  0.4602 -0.8978
18908SOL    HW168449   3.350   1.177   5.212 -0.0810  1.2994 -1.7627
18908SOL    HW268450   3.479   1.214   5.283 -0.9827 -1.3652  1.5248
18909SOL     OW68451   6.073  11.473   6.299  0.2922 -0.2193  0.1620
18909SOL    HW168452   6.002  11.454   6.360  0.0632  1.3225  0.4136
18909SOL    HW268453   6.070  11.401   6.236 -0.1084 -1.2966  1.3894
18910SOL     OW68454  10.527   9.286   7.921 -0.1950 -0.4630  0.4337
18910SOL    HW168455  10.544   9.350   7.990  0.5373 -1.4449  1.2014
18910SOL    HW268456  10.604   9.229   7.922 -0.2556 -0.6078 -1.0855
18911SOL     OW68457  12.165   4.593   5.658 -0.1568 -0.1229  0.0600
18911SOL    HW168458  12.259   4.577   5.671 -0.2084 -0.8002 -0.3543
18911SOL    HW268459  12.130   4.508   5.630 -1.1088 -0.1911  1.3485
18912SOL     OW68460  10.399   9.719   5.188 -0.5457 -0.1786  0.4460
18912SOL    HW168461  10.412   9.802   5.233 -1.1603  0.5100 -0.6016
18912SOL    HW268462  10.488   9.687   5.171 -0.2978  0.5557  0.3415
18913SOL     OW68463   5.567   0.522   9.236 -0.1915 -0.2070  0.2097
18913SOL    HW168464   5.576   0.463   9.162  1.1287 -0.2516  0.3790
18913SOL    HW268465   5.513   0.474   9.299  1.5704 -1.6275  0.7108
18914SOL     OW68466   7.182   5.205  12.572  0.3422  0.5483  0.6885
18914SOL    HW168467   7.113   5.146  12.541 -1.0905  0.1600  4.1674
18914SOL    HW268468   7.165   5.287  12.527 -2.3777  0.4106  1.2796
18915SOL     OW68469   9.007   6.656  10.807 -0.4436 -0.0168  0.7114
18915SOL    HW168470   8.992   6.702  10.889  0.4976 -0.9822  1.4449
18915SOL    HW268471   8.923   6.617  10.784 -0.5498 -0.2980  1.5662
18916SOL     OW68472   8.698   8.452  11.524  0.0839 -0.1602  0.1721
18916SOL    HW168473   8.723   8.456  11.616  2.5372 -1.2107 -0.3526
18916SOL    HW268474   8.651   8.370  11.514 -0.9651  0.3737  0.6262
18917SOL     OW68475   3.570   4.928   6.177  0.0656  0.6374 -0.0562
18917SOL    HW168476   3.558   4.847   6.227  0.5740 -1.7292 -3.4301
18917SOL    HW268477   3.653   4.963   6.210  0.3562 -0.7527  0.7998
18918SOL     OW68478   1.991   3.177   3.920  0.3070  0.8649  0.1935
18918SOL    HW168479   2.026   3.190   4.008 -0.5050 -0.5105  0.7440
18918SOL    HW268480   2.054   3.120   3.877 -0.0244  0.3657  0.3689
18919SOL     OW68481   8.731   5.295   3.683  0.1056  0.0198 -0.1693
18919SOL    HW168482   8.763   5.267   3.597 -1.0219 -1.4420 -0.1502
18919SOL    HW268483   8.647   5.337   3.666 -1.2433 -2.2894  0.3525
18920SOL     OW68484  10.243   8.066  13.041  0.1462  0.6096 -0.4001
18920SOL    HW168485  10.240   8.143  12.984  3.1885  0.1828 -1.3023
18920SOL    HW268486  10.199   7.997  12.991  2.3252  0.3786 -2.1359
18921SOL     OW68487   7.211   8.432   7.252  0.0750  0.1006  0.0327
18921SOL    HW168488   7.159   8.396   7.325  0.6800 -1.4362 -0.2473
18921SOL    HW268489   7.273   8.491   7.294 -1.1984  1.1676  0.4805
18922SOL     OW68490   4.751   5.367   3.834  0.6383  0.4684  0.7583
18922SOL    HW168491   4.740   5.287   3.886  1.1448  0.2321  0.5106
18922SOL    HW268492   4.846   5.378   3.827  0.6191 -0.2543 -1.2361
18923SOL     OW68493  11.922   6.851   3.090 -0.0897 -0.4233 -0.1422
18923SOL    HW168494  11.838   6.849   3.137  0.0145  0.6441  0.1003
18923SOL    HW268495  11.987   6.869   3.158  0.0936  0.8498 -0.6426
18924SOL     OW68496   5.384  10.433   7.567 -0.1457 -0.3899 -0.2834
18924SOL    HW168497   5.469  10.402   7.536  1.0501  1.7061  0.6483
18924SOL    HW268498   5.363  10.374   7.640  0.5712 -0.8751 -0.4539
18925SOL     OW68499   4.766   7.144   6.569  0.1585 -0.5425 -0.7155
18925SOL    HW168500   4.690   7.086   6.567  0.1809 -0.5707 -0.7756
18925SOL    HW268501   4.831   7.096   6.621  0.1515 -0.5392 -0.7038
18926SOL     OW68502   7.648   6.964   4.859  0.2343  0.3817 -0.1108
18926SOL    HW168503   7.716   7.017   4.817  0.1874 -0.2411 -1.0002
18926SOL    HW268504   7.567   7.014   4.846  0.4459  0.9317  0.6015
18927SOL     OW68505   4.626  11.305   4.314 -0.0901 -0.0857  0.0955
18927SOL    HW168506   4.629  11.247   4.390 -2.4862  1.6864  1.6884
18927SOL    HW268507   4.545  11.281   4.269  0.5281 -0.0785 -1.0610
18928SOL     OW68508   1.925  12.844   2.017  0.1024 -0.2765 -0.1074
18928SOL    HW168509   1.880  12.886   1.943 -0.1973 -0.7330 -0.1902
18928SOL    HW268510   1.872  12.866   2.093  0.8691  0.9091  0.1245
18929SOL     OW68511   0.420   1.801   7.895  0.3310  0.4333  0.1917
18929SOL    HW168512   0.366   1.791   7.973  1.6304 -1.2515  0.9408
18929SOL    HW268513   0.447   1.893   7.897 -0.1119  0.5584  1.4111
18930SOL     OW68514   4.472  12.850   1.288  0.5842  0.0524 -0.3272
18930SOL    HW168515   4.546  12.791   1.275  1.0065 -0.1313  2.3802
18930SOL    HW268516   4.465  12.899   1.206  3.7590  0.1434 -0.6437
18931SOL     OW68517   2.258   5.608  13.513  0.0312  0.5309  0.0953
18931SOL    HW168518   2.164   5.603  13.495  0.3329  0.8666 -1.6827
18931SOL    HW268519   2.287   5.687  13.469  1.1343  0.5558  0.8254
18932SOL     OW68520   6.473  10.036   9.504 -0.1639  0.4670  0.4269
18932SOL    HW168521   6.498  10.091   9.578  0.2678 -1.0355  1.4680
18932SOL    HW268522   6.555  10.021   9.456  0.5016 -1.9536  2.0963
18933SOL     OW68523   1.605   9.800  11.166  0.5127  0.1193 -0.7917
18933SOL    HW168524   1.515   9.825  11.144  0.6972  4.2953  1.9972
18933SOL    HW268525   1.659   9.862  11.118  1.4994  1.3091  1.7357
18934SOL     OW68526   7.658  10.493   3.562 -0.0551 -0.9527  0.2423
18934SOL    HW168527   7.728  10.468   3.623 -0.5931 -1.6809  0.5683
18934SOL    HW268528   7.585  10.436   3.584 -1.9594  2.0039  2.1621
18935SOL     OW68529   7.618   0.493   0.174  0.2667 -0.0842 -0.3986
18935SOL    HW168530   7.535   0.505   0.220  0.2133 -0.6035 -0.3538
18935SOL    HW268531   7.682   0.480   0.244  0.4043  0.3944 -0.4303
18936SOL     OW68532   4.591  12.752  12.108  0.4932  0.1234 -0.1516
18936SOL    HW168533   4.569  12.807  12.033 -1.8839  0.4937  0.7364
18936SOL    HW268534   4.607  12.813  12.180 -0.4116 -0.2699  0.4062
18937SOL     OW68535   7.505   9.853   8.530 -0.0922  0.0426  0.2626
18937SOL    HW168536   7.487   9.906   8.607 -0.0266  2.3327 -1.1983
18937SOL    HW268537   7.422   9.853   8.481  0.2701 -0.1596 -0.3691
18938SOL     OW68538   1.627   5.795   8.723  0.2297 -0.7964  0.3881
18938SOL    HW168539   1.593   5.711   8.756  1.2773 -0.8920  1.2717
18938SOL    HW268540   1.599   5.859   8.788  1.3034 -0.8073  0.8832
18939SOL     OW68541   3.566   2.144   6.158  0.1036  0.6436  0.2106
18939SOL    HW168542   3.660   2.143   6.173 -0.0213 -1.3261  1.0769
18939SOL    HW268543   3.556   2.171   6.067  1.5363  0.2225 -0.0861
18940SOL     OW68544   0.629   9.881   3.743  0.0980  0.2575 -0.3932
18940SOL    HW168545   0.609   9.836   3.661 -0.6063  0.4815 -0.3514
18940SOL    HW268546   0.658   9.812   3.802 -1.1459 -0.1746 -0.2730
18941SOL     OW68547   6.259  10.766   2.632 -0.1295 -0.3930 -0.9069
18941SOL    HW168548   6.314  10.780   2.709  0.1780  0.8156 -1.3383
18941SOL    HW268549   6.247  10.671   2.629  0.5955 -0.5344  0.1125
18942SOL     OW68550   3.236   9.600   7.413 -0.2864  0.2395  0.1629
18942SOL    HW168551   3.259   9.512   7.385  1.4168  0.3687  1.0078
18942SOL    HW268552   3.315   9.632   7.458 -1.1617  1.8709  0.6115
18943SOL     OW68553   9.607   9.850   3.440 -0.1848  0.1095 -0.0528
18943SOL    HW168554   9.560   9.934   3.437  0.7999  0.7374  1.0564
18943SOL    HW268555   9.638   9.844   3.531 -2.1275 -2.5448  0.5413
18944SOL     OW68556   2.700   1.824   6.993  0.1377 -0.5903 -0.1366
18944SOL    HW168557   2.779   1.835   7.045 -1.4972 -0.2150  2.4190
18944SOL    HW268558   2.691   1.730   6.981  0.3365 -0.7045  0.5965
18945SOL     OW68559   4.012   2.269   8.407 -0.2953  0.7593 -0.1215
18945SOL    HW168560   4.071   2.295   8.478  0.3420  0.5138 -0.5610
18945SOL    HW268561   3.924   2.279   8.445  0.0459 -0.8006  1.2162
18946SOL     OW68562   1.973   7.560   2.190 -0.0251  0.2087 -0.4410
18946SOL    HW168563   2.017   7.514   2.119 -0.4231 -0.2345 -0.4015
18946SOL    HW268564   2.038   7.622   2.223  0.6615 -0.6277 -0.2036
18947SOL     OW68565  10.307  11.884  12.058 -0.0722  0.0709 -0.0186
18947SOL    HW168566  10.266  11.925  12.133 -1.3144  1.8035 -1.5570
18947SOL    HW268567  10.281  11.938  11.983 -1.0015 -2.9787 -2.0791
18948SOL     OW68568   3.514   5.323   1.650 -0.5062 -0.1836  0.7063
18948SOL    HW168569   3.561   5.392   1.604 -0.3422 -0.4403  0.4834
18948SOL    HW268570   3.563   5.309   1.730  0.9181 -1.7532 -0.3717
18949SOL     OW68571   4.161  13.116   4.135 -0.3452 -0.5234 -0.2023
18949SOL    HW168572   4.160  13.185   4.202 -1.9329 -2.4051  1.8315
18949SOL    HW268573   4.070  13.110   4.106 -0.3690 -2.1433  0.1235
18950SOL     OW68574   9.575  11.481   9.260 -0.0950  0.3518 -0.4122
18950SOL    HW168575   9.512  11.434   9.205  0.6028 -0.6967 -0.3274
18950SOL    HW268576   9.623  11.537   9.199  0.4023 -0.5044 -0.8150
18951SOL     OW68577   1.554  12.566   3.219  0.0055 -0.1581  0.0769
18951SOL    HW168578   1.469  12.608   3.206 -0.0037 -0.5696 -1.3495
18951SOL    HW268579   1.596  12.618   3.288 -2.2448 -1.2554  2.4201
18952SOL     OW68580   5.393  11.725   0.488 -0.4087  0.0145  0.2362
18952SOL    HW168581   5.370  11.655   0.549 -0.3988 -0.5177 -0.3637
18952SOL    HW268582   5.321  11.789   0.497 -0.9931 -0.5944 -0.0177
18953SOL     OW68583   6.129  11.617   2.234 -0.1423 -0.3683 -0.2594
18953SOL    HW168584   6.130  11.606   2.138 -0.6599 -2.5707 -0.0746
18953SOL    HW268585   6.039  11.643   2.254  0.7266  3.3367 -0.5696
18954SOL     OW68586  13.113   7.175   6.907 -0.3699 -0.2747 -0.6138
18954SOL    HW168587  13.153   7.088   6.911 -0.9126 -0.4925  1.8897
18954SOL    HW268588  13.170   7.230   6.962 -1.2107  0.4011 -0.3934
18955SOL     OW68589   4.077   9.837   1.047  0.4868  0.4269  0.3819
18955SOL    HW168590   4.051   9.878   1.130 -1.1624 -1.1563  0.7101
18955SOL    HW268591   4.012   9.868   0.984  0.5399  0.0754  0.1519
18956SOL     OW68592  13.395   4.438   4.865  0.4194  0.5062  0.1551
18956SOL    HW168593  13.438   4.437   4.779 -0.3653  1.3651 -0.2800
18956SOL    HW268594  13.307   4.404   4.848 -0.1353  1.7678  0.3622
18957SOL     OW68595   8.916   4.158   0.535  0.5097 -0.1100  0.1487
18957SOL    HW168596   8.962   4.075   0.538  0.1385 -0.2849  1.2432
18957SOL    HW268597   8.972   4.215   0.481  1.8568 -0.4010  1.1907
18958SOL     OW68598   4.744   4.261   0.248  0.2716  0.1077 -0.2323
18958SOL    HW168599   4.651   4.247   0.228  0.3372 -2.3059  0.8102
18958SOL    HW268600   4.790   4.230   0.169  0.2269  1.2442 -0.7234
18959SOL     OW68601   5.100   5.148   7.569 -0.5210  0.1419 -0.7726
18959SOL    HW168602   5.196   5.141   7.570 -0.3397  2.1841  0.2134
18959SOL    HW268603   5.072   5.104   7.649 -0.2245  1.3395  0.0072
18960SOL     OW68604   3.745   3.092   8.963 -0.1669 -0.5485 -0.2989
18960SOL    HW168605   3.774   3.154   9.030 -2.6538  0.0947  0.2803
18960SOL    HW268606   3.689   3.030   9.011  0.1734 -1.6874 -1.3383
18961SOL     OW68607   2.580   9.921  11.401 -0.2402  0.7942  0.3558
18961SOL    HW168608   2.506   9.943  11.345 -0.5125 -1.9768 -0.5099
18961SOL    HW268609   2.540   9.877  11.477  0.3511  1.8203  1.2920
18962SOL     OW68610   6.945  13.377   0.344 -0.0111 -0.1591  0.0176
18962SOL    HW168611   6.983  13.290   0.353  2.0649  0.4937 -1.5906
18962SOL    HW268612   7.020  13.435   0.333 -1.3850  1.6882 -0.0768
18963SOL     OW68613  10.517  11.974   5.072 -0.1327 -0.1938 -0.1450
18963SOL    HW168614  10.502  12.054   5.123  2.3718  0.7371 -0.7556
18963SOL    HW268615  10.610  11.955   5.082 -0.2930 -2.0388 -1.4909
18964SOL     OW68616  10.510  12.059   3.397 -0.4313  0.1066 -0.2452
18964SOL    HW168617  10.486  12.087   3.485 -0.2316  0.1832 -0.2150
18964SOL    HW268618  10.428  12.062   3.348 -0.7065 -0.7485  0.1513
18965SOL     OW68619  11.329   5.338   1.713 -0.1005 -0.1170  0.0587
18965SOL    HW168620  11.291   5.424   1.698 -0.7706 -0.0687  1.8561
18965SOL    HW268621  11.376   5.346   1.796  1.2409 -1.0463 -0.5608
18966SOL     OW68622  10.887  10.081  12.261 -0.0703 -0.3779 -0.1099
18966SOL    HW168623  10.916  10.004  12.212 -0.5600 -0.9410  0.4722
18966SOL    HW268624  10.816  10.049  12.317 -0.8596  0.6814 -0.4800
18967SOL     OW68625   0.090   9.954   3.939 -0.2633  0.5332  0.1392
18967SOL    HW168626   0.105  10.022   3.873  0.1761 -1.1105 -1.5197
18967SOL    HW268627   0.170   9.956   3.993  0.6368  0.0147 -1.1394
18968SOL     OW68628  12.610  11.293   8.583  0.7983  0.1267  0.2696
18968SOL    HW168629  12.676  11.224   8.586  1.1658  0.4679  0.1521
18968SOL    HW268630  12.550  11.272   8.654  1.7908  0.5702  1.2839
18969SOL     OW68631   9.212   3.843   3.153 -0.0645 -0.0772 -0.1368
18969SOL    HW168632   9.191   3.899   3.228  2.5923 -0.8536  1.3024
18969SOL    HW268633   9.277   3.894   3.104  0.4024 -0.8004 -0.2716
18970SOL     OW68634   3.842   9.752  13.596 -0.3902  0.5814  0.0935
18970SOL    HW168635   3.824   9.841  13.564 -0.5268  0.0656 -1.3162
18970SOL    HW268636   3.932   9.756  13.628 -0.6101  1.3854  0.6588
18971SOL     OW68637   8.824  10.603  13.601 -0.1330  0.5679 -0.0716
18971SOL    HW168638   8.820  10.585  13.695 -1.8034  1.0719 -0.0209
18971SOL    HW268639   8.860  10.692  13.595  2.2103 -0.3099 -0.0573
18972SOL     OW68640   9.252   8.036   7.729  0.6914 -0.3794 -0.1079
18972SOL    HW168641   9.345   8.016   7.740  1.1618  0.1288 -2.6396
18972SOL    HW268642   9.250   8.131   7.715 -0.3589 -0.2241  0.9325
18973SOL     OW68643  12.132   9.525  11.463 -0.4213 -0.0981  0.7421
18973SOL    HW168644  12.198   9.560  11.523  0.9735  1.4587 -1.5881
18973SOL    HW268645  12.140   9.577  11.384 -2.1684 -2.0947 -0.8825
18974SOL     OW68646  11.503  12.334  12.301 -0.1957  0.3755 -0.0101
18974SOL    HW168647  11.578  12.375  12.344  0.0625  0.2949 -0.3776
18974SOL    HW268648  11.534  12.316  12.212 -0.6125  0.2322 -0.1257
18975SOL     OW68649   8.612  12.842  13.724  0.1407 -0.2100 -0.1623
18975SOL    HW168650   8.571  12.771  13.676 -1.4122  0.0792  0.6842
18975SOL    HW268651   8.638  12.803  13.808 -2.3561  0.5526  1.0602
18976SOL     OW68652   8.162   7.911  12.564  0.4551 -0.1134  0.0184
18976SOL    HW168653   8.152   7.931  12.470  0.2493  2.6456  0.5498
18976SOL    HW268654   8.084   7.861  12.586  0.3420 -0.5241 -1.2154
18977SOL     OW68655  12.353   2.493   5.360  0.1832  0.3473 -0.2839
18977SOL    HW168656  12.290   2.563   5.378  0.6256  0.6974 -0.0672
18977SOL    HW268657  12.326   2.421   5.417  0.9282  1.0695  1.0290
18978SOL     OW68658   9.841   0.376  12.860  0.4911  0.3138 -0.0297
18978SOL    HW168659   9.907   0.307  12.865  1.3904  1.0858 -1.0477
18978SOL    HW268660   9.786   0.361  12.937  1.2850 -0.9011  0.3333
18979SOL     OW68661   5.968  11.618   5.392  0.2010 -0.1555  0.1378
18979SOL    HW168662   5.887  11.633   5.439 -0.1540 -1.7542  0.0805
18979SOL    HW268663   6.007  11.541   5.434  0.6965 -0.6004 -1.0809
18980SOL     OW68664   3.207   8.373  13.365 -0.3985  0.1502 -0.4393
18980SOL    HW168665   3.269   8.348  13.296 -0.1477 -1.4526  0.3285
18980SOL    HW268666   3.251   8.349  13.447 -2.0395 -1.1819  0.1197
18981SOL     OW68667  11.166  13.192   2.056 -0.7149 -0.7825  0.0976
18981SOL    HW168668  11.244  13.176   2.003  0.3968 -0.4350  1.5523
18981SOL    HW268669  11.111  13.247   2.000  1.0582  0.8065 -0.2110
18982SOL     OW68670  13.045   9.692  10.627 -0.6044 -1.0062  0.2055
18982SOL    HW168671  12.999   9.704  10.544 -0.6267 -2.2193  0.0138
18982SOL    HW268672  13.068   9.599  10.627  2.1990 -0.4118  0.0850
18983SOL     OW68673  11.262   1.508   5.500 -0.4013  0.3672 -0.8964
18983SOL    HW168674  11.204   1.463   5.561  2.1480 -0.3989  1.1711
18983SOL    HW268675  11.226   1.596   5.492 -0.3988  0.8049  2.5697
18984SOL     OW68676   8.441  12.515   9.811  0.2471 -0.4943  0.5669
18984SOL    HW168677   8.525  12.539   9.849  1.0219 -1.5028 -0.4386
18984SOL    HW268678   8.400  12.460   9.877 -1.5677  3.2950  2.9170
18985SOL     OW68679   3.176   1.468   8.186  0.4477  0.5425 -0.1397
18985SOL    HW168680   3.121   1.522   8.129  0.0410  2.5763  2.0338
18985SOL    HW268681   3.115   1.433   8.251  1.3355  0.6894  0.7812
18986SOL     OW68682  10.000   4.289   4.434  0.2641 -0.0252  0.1737
18986SOL    HW168683  10.066   4.331   4.489  0.5390 -1.2298  0.7857
18986SOL    HW268684  10.050   4.243   4.367 -0.0699  2.7503 -2.2090
18987SOL     OW68685   8.972   1.392  10.351  0.4294  0.1534  0.3540
18987SOL    HW168686   9.066   1.405  10.365  0.8624 -1.2771 -0.9750
18987SOL    HW268687   8.934   1.399  10.439  1.2347  4.1289  0.5971
18988SOL     OW68688   9.695   9.654  11.943  0.8256 -0.2466 -0.0586
18988SOL    HW168689   9.734   9.687  12.024  0.1199 -0.3098  0.3140
18988SOL    HW268690   9.636   9.584  11.971 -0.3484  0.5390 -0.5041
18989SOL     OW68691   6.536   0.153   5.526  0.4048 -0.0145  0.5119
18989SOL    HW168692   6.612   0.137   5.582 -0.1763 -2.2057  0.7757
18989SOL    HW268693   6.565   0.220   5.464  2.4674 -0.6044  0.7665
18990SOL     OW68694   0.270   9.163  11.352 -0.2456 -0.3792  0.4340
18990SOL    HW168695   0.344   9.216  11.381  0.3339  0.4430 -2.2311
18990SOL    HW268696   0.310   9.095  11.297 -1.3928 -0.3854 -0.4300
18991SOL     OW68697  13.379   9.625   6.329  0.8781  0.4100 -0.7093
18991SOL    HW168698  13.372   9.668   6.414 -0.3695  0.3442 -0.7673
18991SOL    HW268699  13.419   9.691   6.272  2.9025  0.0499  0.1821
18992SOL     OW68700  10.025   4.439   8.094 -0.4411 -0.0159 -0.3386
18992SOL    HW168701  10.118   4.440   8.114 -0.6234 -0.9755  0.6593
18992SOL    HW268702  10.018   4.392   8.011 -0.0027  0.4092 -0.6138
18993SOL     OW68703   5.987  10.130   8.059 -0.4225 -0.7298 -0.0830
18993SOL    HW168704   5.933  10.195   8.104 -0.9847 -0.2392 -1.4001
18993SOL    HW268705   5.942  10.047   8.073 -1.3842 -0.3693 -0.9018
18994SOL     OW68706  11.555   6.191  13.507  0.4603  0.1745  0.2788
18994SOL    HW168707  11.616   6.227  13.572  1.9873 -0.3225 -0.8226
18994SOL    HW268708  11.530   6.266  13.453  0.0713  0.3807  0.7368
18995SOL     OW68709  10.136   3.386   7.666  0.4389 -0.0534  0.9887
18995SOL    HW168710  10.170   3.454   7.724 -0.7130  1.4186 -0.0067
18995SOL    HW268711  10.043   3.406   7.656  0.1136 -1.6543  0.4818
18996SOL     OW68712   3.653   8.661  13.219 -0.0818  0.4570  0.1294
18996SOL    HW168713   3.607   8.636  13.139  0.0929  2.3580 -0.6110
18996SOL    HW268714   3.738   8.617  13.213 -0.0094  0.7023 -0.8174
18997SOL     OW68715   3.721   4.432  10.321 -0.2926 -0.0399  0.3026
18997SOL    HW168716   3.650   4.496  10.327  0.6751  1.0267  0.7089
18997SOL    HW268717   3.799   4.485  10.303  0.5669 -1.0917  0.8727
18998SOL     OW68718   3.178   8.441   0.126 -0.0661  0.2968 -0.2858
18998SOL    HW168719   3.083   8.451   0.118 -0.1374 -0.5853 -0.6770
18998SOL    HW268720   3.210   8.529   0.146 -0.9415  0.6511 -0.4044
18999SOL     OW68721  10.261   4.847   0.184  0.5769 -0.4898 -0.2623
18999SOL    HW168722  10.277   4.762   0.227  0.6968 -0.1583  0.3569
18999SOL    HW268723  10.298   4.911   0.244  1.4990 -0.0683 -1.2515
19000SOL     OW68724   2.871  13.506   9.328  0.1414 -0.5519 -0.0014
19000SOL    HW168725   2.886  13.486   9.421 -1.2455 -0.3018  0.3023
19000SOL    HW268726   2.927  13.582   9.311  0.1378 -0.3740  0.7351
19001SOL     OW68727   9.661   6.940  12.404  0.4340 -0.9755  0.4459
19001SOL    HW168728   9.664   7.035  12.396  3.5995 -1.0585 -0.7226
19001SOL    HW268729   9.615   6.910  12.326  1.2276 -0.4525 -0.2333
19002SOL     OW68730  13.457   7.434   0.508  0.1302 -0.0699  0.4065
19002SOL    HW168731  13.414   7.365   0.457  2.7641 -0.7130 -1.1660
19002SOL    HW268732  13.405   7.513   0.491 -0.9840 -0.9861 -0.5604
19003SOL     OW68733   1.201   5.884   1.265  0.0196 -0.4164 -0.2475
19003SOL    HW168734   1.236   5.925   1.345 -0.0020 -1.1267  0.1308
19003SOL    HW268735   1.157   5.955   1.220 -0.4489 -0.1198  0.6454
19004SOL     OW68736   4.454   5.619   7.838 -0.3108  0.4352  0.3127
19004SOL    HW168737   4.524   5.555   7.825 -1.1851 -0.0852 -2.2137
19004SOL    HW268738   4.460   5.677   7.762 -1.6673  1.3097  0.8418
19005SOL     OW68739   7.056   3.586   7.534 -0.1172  0.1316  0.2499
19005SOL    HW168740   7.046   3.496   7.566 -1.3727  0.7207  1.6469
19005SOL    HW268741   7.131   3.583   7.475  0.1745 -1.7247  0.6690
19006SOL     OW68742   8.814   6.989  12.021  0.4364  0.3065 -0.2877
19006SOL    HW168743   8.880   7.053  12.049  0.1416 -1.1227  4.4477
19006SOL    HW268744   8.864   6.907  12.012 -0.1964 -0.1434  0.2662
19007SOL     OW68745   9.039   1.293   0.195  0.0484  0.3360  0.4393
19007SOL    HW168746   9.018   1.386   0.186 -0.6648  0.2150  0.7566
19007SOL    HW268747   8.973   1.248   0.140  1.5050  0.0994 -1.2033
19008SOL     OW68748   2.363  12.230   7.983  0.0356  0.2546 -0.7282
19008SOL    HW168749   2.438  12.184   8.021 -0.5982  0.2223  0.5414
19008SOL    HW268750   2.387  12.322   7.989 -0.1675  0.2674  0.0350
19009SOL     OW68751   4.888   5.075   9.496 -0.1907 -0.1083 -0.6403
19009SOL    HW168752   4.809   5.097   9.447 -0.8229  0.9662  0.8019
19009SOL    HW268753   4.907   5.153   9.548  0.6036 -1.1016  0.6262
19010SOL     OW68754  12.853   5.516  10.459 -0.0630  0.2910  0.0598
19010SOL    HW168755  12.785   5.500  10.526  0.1712 -1.4727 -0.0693
19010SOL    HW268756  12.935   5.499  10.505  0.1133 -0.6337 -0.5689
19011SOL     OW68757   5.481  12.954   0.662  0.2784  0.4269 -0.6376
19011SOL    HW168758   5.483  13.041   0.703 -1.6500  0.1011  0.2729
19011SOL    HW268759   5.552  12.906   0.705 -0.3161  0.7730  0.7978
19012SOL     OW68760   5.527  13.679   0.214 -0.1778 -0.5467  0.0528
19012SOL    HW168761   5.529  13.671   0.119 -0.2874  1.1410 -0.1289
19012SOL    HW268762   5.617  13.699   0.239 -0.7187  3.0401 -0.2171
19013SOL     OW68763  10.225   9.712   4.912 -0.6695 -0.0704 -0.3294
19013SOL    HW168764  10.184   9.722   4.826 -3.9678 -0.7114  1.0043
19013SOL    HW268765  10.154   9.728   4.974  1.3174 -0.6783  2.2866
19014SOL     OW68766  10.676   9.870   8.401  0.6280 -0.1288  0.1662
19014SOL    HW168767  10.591   9.897   8.434  0.6497 -1.6826  1.6005
19014SOL    HW268768  10.657   9.826   8.318  0.2357  0.8714 -0.3025
19015SOL     OW68769   2.733   7.673   8.856 -0.3885 -0.1390 -0.0563
19015SOL    HW168770   2.745   7.594   8.803 -2.0924 -0.0910 -0.5762
19015SOL    HW268771   2.814   7.681   8.905  1.3133 -0.1819 -2.6484
19016SOL     OW68772   2.821   1.881  13.737 -0.0280 -0.6477  0.4047
19016SOL    HW168773   2.795   1.812  13.799  0.5460  0.3100  1.7761
19016SOL    HW268774   2.863   1.948  13.792  2.1643 -0.5524 -1.2496
19017SOL     OW68775   1.651   5.195  10.628  0.0701 -0.0238 -0.4531
19017SOL    HW168776   1.644   5.286  10.657 -0.1642  0.0505 -0.7333
19017SOL    HW268777   1.681   5.201  10.537  2.9483 -0.3091  0.4063
19018SOL     OW68778   6.149  12.313   0.244  0.5282 -0.0502  0.2971
19018SOL    HW168779   6.189  12.311   0.158 -0.8332  2.5315 -0.5048
19018SOL    HW268780   6.055  12.317   0.227  0.1740 -0.4512  1.9382
19019SOL     OW68781   4.759   8.455  11.203  0.1625 -0.2230  0.2903
19019SOL    HW168782   4.854   8.461  11.195  0.0689  0.6371 -0.3435
19019SOL    HW268783   4.735   8.528  11.260 -0.2025  0.1768 -0.3611
19020SOL     OW68784   7.747  10.236   4.659  0.1219  0.1866 -0.8563
19020SOL    HW168785   7.692  10.208   4.732 -0.2369  0.0214 -1.1865
19020SOL    HW268786   7.744  10.163   4.597  0.6417  0.2109 -0.9183
19021SOL     OW68787  11.876  10.458   0.893 -0.1665 -0.0909  0.3418
19021SOL    HW168788  11.867  10.458   0.988 -1.3603  0.5631  0.2460
19021SOL    HW268789  11.806  10.515   0.862 -1.4147 -2.2385 -1.0833
19022SOL     OW68790   2.416   5.288   0.358 -0.6562  0.0542  0.6414
19022SOL    HW168791   2.437   5.335   0.439 -0.7390  0.7867  0.2513
19022SOL    HW268792   2.474   5.328   0.292 -2.2166  1.1009 -0.1460
19023SOL     OW68793  13.600   4.349   8.831  0.0122  0.4351 -0.2384
19023SOL    HW168794  13.638   4.423   8.783 -0.7799 -0.0682 -1.7051
19023SOL    HW268795  13.676   4.301   8.864  0.5547  2.1486  1.2287
19024SOL     OW68796   4.937   4.877   6.905  0.4088 -0.6049 -0.1327
19024SOL    HW168797   4.877   4.835   6.967 -0.7471  0.1241 -0.7307
19024SOL    HW268798   4.988   4.937   6.958 -1.1550  0.6380  0.0255
19025SOL     OW68799   5.671   7.223   8.572 -0.4809  0.5275  0.0634
19025SOL    HW168800   5.651   7.267   8.490 -0.7635  0.3473  0.0343
19025SOL    HW268801   5.586   7.212   8.614 -0.5946 -1.2726 -0.5731
19026SOL     OW68802   5.662   5.962   9.175 -0.9693  0.3443  0.5367
19026SOL    HW168803   5.640   5.977   9.267 -0.5008  2.0894  0.3960
19026SOL    HW268804   5.590   6.001   9.126 -0.1604  1.4011  0.1534
19027SOL     OW68805   4.081  13.155   9.579 -0.2869  0.3648  0.1485
19027SOL    HW168806   4.059  13.064   9.596 -1.1738  0.4289 -0.5297
19027SOL    HW268807   4.115  13.155   9.489  1.7922  0.3981  0.8993
19028SOL     OW68808   7.012  11.499   0.838 -0.3853 -0.1534  0.2994
19028SOL    HW168809   7.057  11.416   0.850  0.6348  0.3057 -0.1683
19028SOL    HW268810   7.007  11.510   0.742  0.0783  0.6155  0.3520
19029SOL     OW68811   8.848   8.686   1.500  0.1355 -0.6194  0.1024
19029SOL    HW168812   8.859   8.755   1.434 -0.2088 -2.0641 -1.5678
19029SOL    HW268813   8.890   8.609   1.460  1.2451 -1.2008  2.2532
19030SOL     OW68814   6.832   7.331  13.674 -0.0570 -0.0982  0.1413
19030SOL    HW168815   6.784   7.387  13.612 -1.0815 -0.8913  0.1985
19030SOL    HW268816   6.872   7.393  13.735  1.9453  0.7909 -1.9214
19031SOL     OW68817   7.817   9.563   3.041 -0.2877  0.1510  0.2955
19031SOL    HW168818   7.750   9.619   3.001 -0.0539 -0.6320 -1.2695
19031SOL    HW268819   7.886   9.557   2.975  0.4163 -0.6821  1.0792
19032SOL     OW68820   9.325   9.694   3.060 -0.0443  0.3006 -0.5883
19032SOL    HW168821   9.333   9.767   3.000  0.8730 -0.6296 -1.6471
19032SOL    HW268822   9.336   9.616   3.005  1.3100 -0.5753  0.8185
19033SOL     OW68823   8.517   5.857   2.261  0.8341  0.1774  0.0370
19033SOL    HW168824   8.580   5.888   2.196  0.3631 -1.1078 -1.0860
19033SOL    HW268825   8.566   5.794   2.315  0.6222 -0.5992 -0.6500
19034SOL     OW68826   3.156   0.116   2.779  0.3424 -0.1281 -0.1090
19034SOL    HW168827   3.229   0.056   2.799 -0.4323 -0.7792  0.8932
19034SOL    HW268828   3.082   0.079   2.827 -0.9097 -0.0302 -1.8635
19035SOL     OW68829   5.250   2.595   5.612  0.8128  0.3134  0.0697
19035SOL    HW168830   5.255   2.605   5.707  0.3431 -1.1113  0.2729
19035SOL    HW268831   5.235   2.501   5.599 -1.1533  0.7632 -1.3316
19036SOL     OW68832   5.733   8.351   4.973  0.0357  0.1161 -0.0547
19036SOL    HW168833   5.691   8.293   5.037 -0.2006 -0.4148 -0.6805
19036SOL    HW268834   5.676   8.427   4.969 -0.1034  0.0254  0.1560
19037SOL     OW68835  11.652   0.349   9.056  0.0148 -0.0676  0.4453
19037SOL    HW168836  11.674   0.440   9.040 -1.1581  0.1657  0.0608
19037SOL    HW268837  11.720   0.318   9.116  1.0923  0.7198 -0.3214
19038SOL     OW68838   8.567   9.012   3.777 -0.1851  0.0712 -0.2692
19038SOL    HW168839   8.500   8.978   3.836  1.3243 -1.4729  0.6696
19038SOL    HW268840   8.536   9.099   3.752 -1.9657 -0.1414  1.0173
19039SOL     OW68841   7.991   8.975   3.525 -0.0619  0.3568 -0.6026
19039SOL    HW168842   7.916   8.973   3.465 -1.0494  3.0421  0.4050
19039SOL    HW268843   7.962   9.029   3.598  1.6933 -1.4446  1.5622
19040SOL     OW68844   1.806   5.535   4.823  0.8364 -0.3227  0.0326
19040SOL    HW168845   1.722   5.536   4.869 -0.0946 -0.0589 -1.5820
19040SOL    HW268846   1.802   5.610   4.764  2.3428 -0.1455  0.1096
19041SOL     OW68847   8.974   0.263   1.075 -0.6489 -0.1638 -0.1957
19041SOL    HW168848   8.976   0.315   1.155  0.5243 -0.3989 -0.0570
19041SOL    HW268849   9.054   0.287   1.028  0.2163 -2.2016  0.1216
19042SOL     OW68850   5.873   7.617  12.235 -0.5971  0.1300  0.0155
19042SOL    HW168851   5.785   7.605  12.270 -1.4100 -0.4461 -2.0998
19042SOL    HW268852   5.861   7.667  12.154  0.8166 -1.3649 -1.1866
19043SOL     OW68853  11.585   4.872   8.621 -0.4853 -0.1825 -0.7738
19043SOL    HW168854  11.668   4.918   8.633  0.7635 -2.4181 -0.2422
19043SOL    HW268855  11.518   4.941   8.623  0.8694  1.3092  3.7855
19044SOL     OW68856   7.795  11.880  11.541 -0.0479  0.0040 -0.3536
19044SOL    HW168857   7.877  11.929  11.530  0.5138 -0.6509  0.7637
19044SOL    HW268858   7.773  11.890  11.633 -1.6030  0.7112 -0.7796
19045SOL     OW68859   0.304  11.666  13.550 -0.1722 -0.3996  0.0673
19045SOL    HW168860   0.392  11.698  13.571  0.7466 -3.1513  0.8209
19045SOL    HW268861   0.269  11.635  13.633 -0.7258 -1.8043 -0.6476
19046SOL     OW68862   8.304   3.001  13.543 -0.6776 -0.4304  0.3983
19046SOL    HW168863   8.311   3.096  13.549  0.4912 -0.4412 -0.4659
19046SOL    HW268864   8.384   2.968  13.584 -0.7672 -1.0118  0.1203
19047SOL     OW68865   0.897  11.006   7.130 -0.0509 -1.3939  0.3632
19047SOL    HW168866   0.915  10.993   7.037 -2.4181 -2.4095 -0.0191
19047SOL    HW268867   0.980  10.983   7.173  0.5415 -2.7592 -1.3623
19048SOL     OW68868   8.524   4.365   0.774  0.2258 -0.4585 -0.3892
19048SOL    HW168869   8.583   4.440   0.784 -0.6774  0.2667 -0.3439
19048SOL    HW268870   8.531   4.319   0.858 -1.5650  1.3502  0.8572
19049SOL     OW68871   5.983   4.369   0.639  0.1265  0.3926  0.1493
19049SOL    HW168872   6.006   4.462   0.633 -1.3903  0.8846  1.3383
19049SOL    HW268873   5.953   4.358   0.729 -0.8412 -0.9798 -0.3190
19050SOL     OW68874   5.108   3.286  13.305 -0.2226 -0.2209  1.0266
19050SOL    HW168875   5.051   3.282  13.229 -1.0279  0.7353  1.5518
19050SOL    HW268876   5.052   3.261  13.379  0.2093  0.0604  1.4617
19051SOL     OW68877   3.891   1.686  10.231 -0.2322  0.1410  0.4002
19051SOL    HW168878   3.844   1.675  10.148  1.5772  0.5339 -0.7142
19051SOL    HW268879   3.840   1.751  10.279 -2.0933 -1.1188  0.2390
19052SOL     OW68880  12.951   0.614   5.147  0.2853 -0.6280 -0.1608
19052SOL    HW168881  13.030   0.665   5.164  0.9697 -1.2644 -1.3503
19052SOL    HW268882  12.898   0.669   5.089  1.5518 -1.6599 -2.4254
19053SOL     OW68883   3.596   5.685   3.006  0.0683 -0.2654 -0.2119
19053SOL    HW168884   3.580   5.613   2.944  1.6822 -1.3168  0.5519
19053SOL    HW268885   3.691   5.696   3.007  0.1741 -0.8585  2.6975
19054SOL     OW68886   1.423   7.337   9.976 -0.3082 -0.1932 -0.3581
19054SOL    HW168887   1.464   7.416   9.939 -1.0503  0.5871  0.4173
19054SOL    HW268888   1.446   7.267   9.915  1.9094  0.2510 -0.1126
19055SOL     OW68889   9.034   1.146   5.700 -0.1912 -0.1666 -0.0131
19055SOL    HW168890   9.082   1.205   5.758 -1.2571  0.4438  0.2674
19055SOL    HW268891   8.998   1.080   5.759  1.0816 -1.1974 -0.3360
19056SOL     OW68892   4.633   1.942   9.242  0.3163 -0.0863  0.5938
19056SOL    HW168893   4.664   1.985   9.322  0.2210 -0.1217  0.6507
19056SOL    HW268894   4.614   2.014   9.182 -0.6589 -0.0011  0.9801
19057SOL     OW68895   4.286  10.432   2.571  0.3936 -0.1272 -0.4716
19057SOL    HW168896   4.244  10.457   2.489  1.0640 -0.4031 -0.9072
19057SOL    HW268897   4.334  10.352   2.550 -0.3287 -0.8396  0.4690
19058SOL     OW68898   8.428   4.178   2.449 -0.7008  0.3287 -0.1970
19058SOL    HW168899   8.461   4.100   2.495 -2.1126  0.0552  0.4285
19058SOL    HW268900   8.496   4.201   2.387  1.2322  0.5762  1.8922
19059SOL     OW68901  13.084   8.256   1.754  0.3877 -0.1278  0.2090
19059SOL    HW168902  13.027   8.179   1.754 -2.2528  1.6075  2.4182
19059SOL    HW268903  13.074   8.293   1.666 -1.2004 -0.4283  0.2175
19060SOL     OW68904   9.071   6.785   3.513 -0.3415  0.2122  0.1084
19060SOL    HW168905   9.081   6.697   3.550  2.3367 -0.2271 -1.4167
19060SOL    HW268906   9.091   6.775   3.420  0.9444  2.5577  0.0551
19061SOL     OW68907   8.741  12.187   8.977  0.0983  0.1515 -0.6601
19061SOL    HW168908   8.682  12.244   9.025  0.0498 -0.3668 -0.0995
19061SOL    HW268909   8.827  12.201   9.017 -0.2738 -1.7506  0.9678
19062SOL     OW68910   7.835   1.455   7.941 -0.6574  0.3219  0.2379
19062SOL    HW168911   7.823   1.541   7.899  0.1159 -0.1550 -0.9999
19062SOL    HW268912   7.829   1.474   8.034 -1.4720  1.5738 -0.0343
19063SOL     OW68913  11.491   5.885   5.910  0.6210 -0.1453  0.3422
19063SOL    HW168914  11.471   5.928   5.827  0.0236 -0.7487  0.1674
19063SOL    HW268915  11.426   5.920   5.971  1.1392  0.3942  0.6003
19064SOL     OW68916   0.491   9.517   3.143  0.5165  0.0083 -0.0849
19064SOL    HW168917   0.475   9.606   3.111 -0.3344 -0.3411 -0.6772
19064SOL    HW268918   0.566   9.526   3.202 -0.0906  1.2768  0.5566
19065SOL     OW68919   5.378   9.521   8.825 -0.4151 -0.0467  0.0457
19065SOL    HW168920   5.328   9.461   8.881 -0.1463 -0.0405  0.2944
19065SOL    HW268921   5.427   9.576   8.886  0.3682 -0.4560 -0.2035
19066SOL     OW68922  10.829   0.548   5.710  0.0874 -0.2439  0.7696
19066SOL    HW168923  10.783   0.476   5.755 -0.2882  0.3546  1.3704
19066SOL    HW268924  10.763   0.585   5.652  0.2743 -0.3663  0.4788
19067SOL     OW68925   5.060   7.463   9.128  0.1704 -0.0908 -0.2029
19067SOL    HW168926   5.016   7.442   9.211 -0.1583 -0.5420 -0.4869
19067SOL    HW268927   5.141   7.507   9.154 -0.9666  1.8219  0.3287
19068SOL     OW68928  10.996  12.632   4.281  0.0240 -0.1689  0.1449
19068SOL    HW168929  11.035  12.655   4.197 -1.6066 -2.0792 -1.2368
19068SOL    HW268930  11.070  12.628   4.342  1.5921 -0.9542 -1.7019
19069SOL     OW68931   3.849   4.517   2.879 -0.0388  0.0171 -0.0931
19069SOL    HW168932   3.867   4.544   2.789 -1.0117  1.2747  0.0583
19069SOL    HW268933   3.799   4.590   2.916  3.6910  1.4266  2.7305
19070SOL     OW68934  11.459  10.920   9.084 -0.9959  0.1977  0.0339
19070SOL    HW168935  11.532  10.981   9.092 -2.2899  1.7777  0.2964
19070SOL    HW268936  11.494  10.848   9.031  1.0407  0.3905  1.0169
19071SOL     OW68937   6.275  13.265   6.218 -0.3248  0.0161 -0.3252
19071SOL    HW168938   6.324  13.323   6.276  2.5059 -0.7600 -1.7745
19071SOL    HW268939   6.192  13.251   6.264  1.6089 -0.4239  3.4900
19072SOL     OW68940   9.189  10.545   6.896 -0.0229 -0.2838  0.0979
19072SOL    HW168941   9.171  10.582   6.982  0.2891  0.6038 -0.2024
19072SOL    HW268942   9.142  10.602   6.835 -1.9879 -2.1077 -0.2225
19073SOL     OW68943  11.098  10.201   3.131  0.1358  0.4057 -0.0463
19073SOL    HW168944  11.136  10.178   3.216 -1.2686 -0.4186  0.3934
19073SOL    HW268945  11.088  10.118   3.086  0.8328  0.8393 -1.0220
19074SOL     OW68946   1.781   6.908   9.415  0.2516 -0.1527  0.2177
19074SOL    HW168947   1.832   6.948   9.484  0.2113  0.8529 -0.3186
19074SOL    HW268948   1.830   6.829   9.391  0.4771 -0.2839  1.0935
19075SOL     OW68949   7.278  13.348   1.070 -0.0760  0.0706  0.1808
19075SOL    HW168950   7.334  13.357   0.993  1.3544  1.3028  1.3199
19075SOL    HW268951   7.223  13.427   1.070 -0.3970 -0.1499  0.1769
19076SOL     OW68952   8.108  10.512  10.756  0.3857 -0.1133  0.4722
19076SOL    HW168953   8.163  10.438  10.781 -1.8910 -1.0391  3.2183
19076SOL    HW268954   8.080  10.493  10.666  1.6898 -1.3595  0.3046
19077SOL     OW68955   4.139  11.684  11.832 -0.0808 -0.4501  0.4211
19077SOL    HW168956   4.219  11.711  11.787 -0.2448 -0.1343  0.3106
19077SOL    HW268957   4.154  11.593  11.857 -0.6230 -1.2160 -1.7935
19078SOL     OW68958   4.360   1.952   9.344  0.0081 -0.2444 -0.0089
19078SOL    HW168959   4.451   1.924   9.347  0.6545  1.7482  0.9382
19078SOL    HW268960   4.339   1.957   9.251 -0.4401 -4.3858 -0.2999
19079SOL     OW68961   2.145   0.211   1.760 -0.3467 -0.3476 -0.3053
19079SOL    HW168962   2.086   0.227   1.834  0.6964  1.7563  0.1675
19079SOL    HW268963   2.087   0.197   1.685 -1.4185 -1.5150  0.7186
19080SOL     OW68964   2.200   8.062   7.578 -0.7763  0.0628 -0.7347
19080SOL    HW168965   2.258   8.137   7.589  0.2684 -0.8426  0.2221
19080SOL    HW268966   2.238   8.012   7.505 -1.0688  0.0910 -0.9103
19081SOL     OW68967  10.657  11.117   6.903 -0.8231 -0.4256  0.5752
19081SOL    HW168968  10.664  11.022   6.909 -0.0266 -0.2703  3.1719
19081SOL    HW268969  10.640  11.134   6.810 -0.0961 -3.0267 -0.1115
19082SOL     OW68970  10.605  10.940   8.767  0.5053  0.5271  0.0812
19082SOL    HW168971  10.690  10.897   8.778  0.8132  0.9696 -0.4818
19082SOL    HW268972  10.548  10.897   8.829  0.8911 -0.4779 -0.2414
19083SOL     OW68973   6.414   2.382   7.807 -0.0415 -0.1392  0.2896
19083SOL    HW168974   6.369   2.353   7.728  0.3589  0.5202 -0.1859
19083SOL    HW268975   6.418   2.477   7.799  0.2942 -0.0913  0.9488
19084SOL     OW68976  12.377  11.799   1.183 -0.2623 -0.1808  0.3764
19084SOL    HW168977  12.300  11.765   1.229  1.1792 -1.9076  1.6919
19084SOL    HW268978  12.434  11.722   1.171  1.7570  1.2045  0.5142
19085SOL     OW68979  10.407   7.653  10.777 -0.6859 -0.2744 -0.0851
19085SOL    HW168980  10.450   7.624  10.857 -1.8375 -2.4146 -0.1641
19085SOL    HW268981  10.399   7.574  10.724 -1.1836  0.8196 -1.7435
19086SOL     OW68982  10.478   2.560  11.062 -0.1576  0.6097  0.3740
19086SOL    HW168983  10.493   2.501  10.988 -1.0155 -2.6803  2.5888
19086SOL    HW268984  10.564   2.596  11.082  1.0068 -1.9415  0.3957
19087SOL     OW68985  13.629   7.291   5.753  0.2762  0.0528 -0.2950
19087SOL    HW168986  13.554   7.232   5.764  0.3125 -0.2632 -1.5938
19087SOL    HW268987  13.700   7.234   5.721  1.4572  0.1225  1.9763
19088SOL     OW68988   8.300   9.196  10.562  0.1802 -0.0860 -0.5591
19088SOL    HW168989   8.236   9.231  10.500 -0.6746 -0.7362 -0.0493
19088SOL    HW268990   8.385   9.211  10.519 -0.4180 -0.8772 -2.0696
19089SOL     OW68991  13.384   5.843   7.802  0.1481  0.0053 -0.3923
19089SOL    HW168992  13.380   5.891   7.884 -1.2856 -0.6415 -0.0603
19089SOL    HW268993  13.350   5.904   7.737 -0.6512 -0.1832 -0.1550
19090SOL     OW68994   3.247   6.562   2.412 -0.0287 -0.2371  0.0203
19090SOL    HW168995   3.244   6.478   2.367 -1.5510 -1.3307  1.9974
19090SOL    HW268996   3.157   6.578   2.439  0.4030  1.5537  0.5407
19091SOL     OW68997  12.042   9.972   8.617 -0.0151  0.1162 -0.6728
19091SOL    HW168998  11.977   9.953   8.549  1.7123 -1.3870 -2.0085
19091SOL    HW268999  12.097  10.041   8.579  1.0803 -0.8733 -0.9288
19092SOL     OW69000  12.515  11.223  10.767  0.4499  0.2917 -0.2684
19092SOL    HW169001  12.437  11.167  10.770  0.5236  0.1722 -0.5231
19092SOL    HW269002  12.568  11.194  10.841  0.8570 -0.5342 -0.8571
19093SOL     OW69003   8.130  12.578  10.324  0.2141  0.1858 -0.0203
19093SOL    HW169004   8.077  12.587  10.245 -1.1430  0.2834  0.8471
19093SOL    HW269005   8.109  12.490  10.356 -1.9572  1.3266  2.0092
19094SOL     OW69006   7.766   7.553   5.160 -0.0067 -0.0622  0.6040
19094SOL    HW169007   7.813   7.623   5.116 -1.0836  0.3277  0.0486
19094SOL    HW269008   7.688   7.538   5.106 -0.6855 -0.4731  1.6587
19095SOL     OW69009   4.214   8.517  10.718 -0.5176 -0.5806  0.0167
19095SOL    HW169010   4.182   8.534  10.806  0.2548  1.2106 -0.0184
19095SOL    HW269011   4.307   8.537  10.721 -0.4801 -0.4757 -1.2141
19096SOL     OW69012  13.078  11.312   7.244 -0.0950 -0.8695  0.2609
19096SOL    HW169013  13.141  11.243   7.262 -0.9614 -1.6690  0.2681
19096SOL    HW269014  13.131  11.392   7.237  1.3860 -1.9596 -3.1124
19097SOL     OW69015   0.961  12.236   8.650 -0.3299 -0.3491  0.3386
19097SOL    HW169016   1.013  12.313   8.626 -0.4408  0.4660  2.4733
19097SOL    HW269017   1.023  12.178   8.694  0.3172 -2.6835 -3.2594
19098SOL     OW69018   9.716   1.174  10.800  0.4526 -0.0881 -0.2927
19098SOL    HW169019   9.775   1.108  10.835  0.0600 -0.6267 -0.6299
19098SOL    HW269020   9.704   1.236  10.872  0.3461 -0.7070  0.2354
19099SOL     OW69021  11.674   0.851   8.681  0.2921  0.0809  0.5030
19099SOL    HW169022  11.619   0.819   8.752 -0.6357 -0.2580 -0.3429
19099SOL    HW269023  11.648   0.943   8.670 -0.9342 -0.3610 -0.6074
19100SOL     OW69024  11.577   5.775  13.644  0.7108 -0.5603 -0.1197
19100SOL    HW169025  11.625   5.788  13.562  0.0754 -3.9483 -1.1870
19100SOL    HW269026  11.643   5.785  13.712  1.4385  1.4791 -1.0585
19101SOL     OW69027   8.597  11.368   4.933 -0.1247  0.3814  0.1843
19101SOL    HW169028   8.663  11.318   4.883 -0.6344 -0.5354  0.4151
19101SOL    HW269029   8.531  11.391   4.867  1.1188  2.6245 -0.3821
19102SOL     OW69030  11.641   0.782   0.012 -0.0759  0.3646  0.0813
19102SOL    HW169031  11.599   0.713  -0.040  0.4925  0.2849 -0.2824
19102SOL    HW269032  11.570   0.842   0.034 -0.5235 -0.1738  0.1369
19103SOL     OW69033   0.118   0.174   1.892 -0.2816  0.5242  0.1210
19103SOL    HW169034   0.146   0.106   1.830 -0.9319  1.2175 -0.9581
19103SOL    HW269035   0.189   0.238   1.891  1.0784 -0.8221  2.3162
19104SOL     OW69036   3.582   7.897   0.954  0.0887 -0.2750  0.1311
19104SOL    HW169037   3.597   7.977   1.005 -1.4747  0.7334 -0.8899
19104SOL    HW269038   3.634   7.909   0.875 -0.8195  0.1727 -0.4181
19105SOL     OW69039   0.286  10.487   1.820 -0.0867  0.0045  0.2767
19105SOL    HW169040   0.310  10.455   1.906 -0.2988  1.1917  0.8049
19105SOL    HW269041   0.226  10.421   1.785 -1.2131  0.2389  1.6800
19106SOL     OW69042   5.055   4.201   6.227  0.2950  0.0716  0.0431
19106SOL    HW169043   5.137   4.153   6.221  1.8058  2.2306  1.8684
19106SOL    HW269044   5.080   4.293   6.224 -2.1486  0.8090 -0.0352
19107SOL     OW69045   8.042   1.893  13.496 -0.2696 -0.5807  0.1902
19107SOL    HW169046   8.135   1.891  13.473 -0.1963 -0.8038  0.4998
19107SOL    HW269047   8.018   1.985  13.493 -0.1623 -0.5639 -0.3765
19108SOL     OW69048  10.790   7.112   5.769 -0.0495 -0.5572 -0.5931
19108SOL    HW169049  10.838   7.128   5.850  0.6359  1.0415 -1.2819
19108SOL    HW269050  10.833   7.036   5.730 -0.0651 -1.0244  0.2864
19109SOL     OW69051   1.675  11.676  13.612 -0.1100  0.3785  0.0764
19109SOL    HW169052   1.707  11.651  13.526 -0.2312  1.5450 -0.3302
19109SOL    HW269053   1.600  11.618  13.628  1.6159 -1.7881  0.6690
19110SOL     OW69054  12.416  10.304   1.211  0.2017  0.3540  0.3429
19110SOL    HW169055  12.501  10.347   1.213  0.1230  0.6544 -1.2586
19110SOL    HW269056  12.387  10.303   1.302  1.4570  1.1549  0.7736
19111SOL     OW69057   0.894  10.813   2.975 -0.5522 -0.1123  0.3241
19111SOL    HW169058   0.989  10.807   2.977 -0.4146  1.3980 -0.8024
19111SOL    HW269059   0.866  10.727   2.944  0.4888 -0.2404 -0.3054
19112SOL     OW69060   1.023   4.034   1.821  0.0437  0.7187 -0.3782
19112SOL    HW169061   1.069   4.081   1.752  1.2430 -0.0562 -0.1275
19112SOL    HW269062   1.089   4.020   1.889 -0.2193 -1.5239 -0.5295
19113SOL     OW69063   7.319   0.711  12.269  0.6550 -0.2759 -0.2321
19113SOL    HW169064   7.336   0.629  12.223  0.4876 -1.1113  1.1346
19113SOL    HW269065   7.223   0.713  12.279  0.6249  0.2752 -0.5769
19114SOL     OW69066   2.068   9.433   6.178 -0.3400 -0.3042 -0.4030
19114SOL    HW169067   2.103   9.512   6.137  1.0361  0.7585  2.4725
19114SOL    HW269068   1.973   9.446   6.179 -0.2043  0.8052 -0.9233
19115SOL     OW69069   0.448  12.802  12.075  0.0197  0.9288  0.1736
19115SOL    HW169070   0.375  12.779  12.133 -1.0905  2.9801 -0.2742
19115SOL    HW269071   0.414  12.786  11.987  1.1423 -0.7113  0.0112
19116SOL     OW69072  13.409   2.415   6.983  0.1128 -0.8949 -0.6971
19116SOL    HW169073  13.493   2.418   6.937  0.0371  0.0928 -0.7834
19116SOL    HW269074  13.344   2.400   6.914  0.1911 -1.5398 -0.6432
19117SOL     OW69075   3.648  12.938   0.760  0.0216 -0.1207 -0.0234
19117SOL    HW169076   3.666  12.964   0.669 -0.8898 -2.0171 -0.8051
19117SOL    HW269077   3.552  12.933   0.765 -0.1744  3.0455  2.0285
19118SOL     OW69078   3.502  13.176   5.735  0.2341 -0.5704 -0.2457
19118SOL    HW169079   3.515  13.132   5.651 -0.4444 -2.1886  0.4662
19118SOL    HW269080   3.587  13.168   5.779  0.4374 -0.1689 -0.5531
19119SOL     OW69081   7.577   3.201  11.030  0.4688 -0.1044 -0.2059
19119SOL    HW169082   7.553   3.114  11.063 -0.1948  0.4053  0.6742
19119SOL    HW269083   7.589   3.254  11.108 -3.3606  1.7480 -0.6502
19120SOL     OW69084  11.802   1.057   9.598  0.2893  0.2102  0.2886
19120SOL    HW169085  11.811   1.051   9.503 -2.5540  0.1893 -0.0654
19120SOL    HW269086  11.738   0.989   9.620  1.3033 -0.1539  2.3135
19121SOL     OW69087   9.770   0.787   8.614 -0.1117 -0.2614 -0.3838
19121SOL    HW169088   9.853   0.818   8.580  0.3935 -0.8655  0.2720
19121SOL    HW269089   9.704   0.833   8.562  0.6291 -0.1753 -1.2657
19122SOL     OW69090   9.758   3.847   7.544  0.0033  0.5412  0.3259
19122SOL    HW169091   9.763   3.901   7.623 -0.1252  0.1309  0.6205
19122SOL    HW269092   9.736   3.908   7.474 -1.5849  0.6488  0.8959
19123SOL     OW69093   4.194   4.184   6.958 -0.5241 -0.0086 -0.0542
19123SOL    HW169094   4.207   4.158   7.049 -1.3805  0.0214  0.0811
19123SOL    HW269095   4.110   4.146   6.934 -0.4689  0.2869 -0.7220
19124SOL     OW69096   3.555  12.156  11.092 -0.2233  0.3255  0.0315
19124SOL    HW169097   3.621  12.113  11.037 -0.2660 -1.6224  1.3784
19124SOL    HW269098   3.545  12.243  11.054  1.3315 -0.1716 -1.6840
19125SOL     OW69099  11.665   9.924   4.767  0.2665 -0.3154  0.3496
19125SOL    HW169100  11.741   9.866   4.762  1.1293  0.6746  1.5785
19125SOL    HW269101  11.611   9.886   4.836 -0.2352 -0.8565 -0.3283
19126SOL     OW69102   2.364   0.096   8.085 -0.5769  0.4135 -0.3383
19126SOL    HW169103   2.419   0.057   8.017 -0.6620  0.0607 -0.2113
19126SOL    HW269104   2.304   0.025   8.110  0.9204 -0.2236  1.7029
19127SOL     OW69105  12.428   6.621   4.519 -0.3161 -0.1454  0.2228
19127SOL    HW169106  12.489   6.678   4.566 -1.7111 -0.1183  2.0775
19127SOL    HW269107  12.380   6.680   4.461 -0.1291  0.1729  0.3920
19128SOL     OW69108   0.635   1.927   4.388  0.3215 -0.2687 -0.4418
19128SOL    HW169109   0.651   1.871   4.464  2.1099  1.1550  0.3140
19128SOL    HW269110   0.546   1.959   4.400 -1.5111 -4.2106 -1.8425
19129SOL     OW69111  10.664   8.430   3.592 -0.1333  0.0795  0.2561
19129SOL    HW169112  10.657   8.369   3.520  0.4287 -1.2200  1.2631
19129SOL    HW269113  10.618   8.509   3.562 -0.7856 -0.7897 -1.1014
19130SOL     OW69114   5.776  10.626  10.002  0.0145 -0.0876 -0.1086
19130SOL    HW169115   5.847  10.582   9.954 -0.4504  0.2174 -1.1002
19130SOL    HW269116   5.799  10.719   9.997 -0.4021  0.0044 -0.3580
19131SOL     OW69117   0.088   5.459   6.215  0.3452 -0.3792 -0.4902
19131SOL    HW169118   0.019   5.469   6.281  0.6929  1.9526 -0.4059
19131SOL    HW269119   0.130   5.376   6.238 -2.3457 -1.8872 -0.5362
19132SOL     OW69120  12.056   8.102  10.514 -0.5769  0.0363  0.5675
19132SOL    HW169121  12.005   8.183  10.514  0.4663  0.8246 -2.4067
19132SOL    HW269122  12.136   8.123  10.562 -0.3134  0.8080 -0.1878
19133SOL     OW69123   2.525   0.644   6.938  0.1128 -0.0360  0.1235
19133SOL    HW169124   2.467   0.610   7.006 -0.6686 -0.0615 -0.5360
19133SOL    HW269125   2.465   0.677   6.871  0.8480 -1.0631 -1.0679
19134SOL     OW69126   0.854  11.285   0.294  0.1324 -0.0324  0.3647
19134SOL    HW169127   0.929  11.310   0.348  0.4515  0.5033 -0.3234
19134SOL    HW269128   0.782  11.337   0.328  0.1007 -0.4183  0.9100
19135SOL     OW69129   7.060  13.558  10.633  0.5277 -0.0988 -0.4934
19135SOL    HW169130   7.149  13.581  10.660  0.0496  0.6308  0.5189
19135SOL    HW269131   7.006  13.631  10.663 -0.0375  1.0221 -3.8028
19136SOL     OW69132   5.586   8.593   4.972  0.2615  0.4657 -0.1001
19136SOL    HW169133   5.496   8.617   4.949 -0.8065  0.3415  3.3789
19136SOL    HW269134   5.596   8.620   5.063  2.8520 -1.9057  0.4761
19137SOL     OW69135   3.752  13.068   0.516 -0.0036 -0.0350 -0.4451
19137SOL    HW169136   3.713  13.086   0.431  0.1825 -0.7874 -0.7000
19137SOL    HW269137   3.847  13.069   0.499  0.0981  1.3216  0.0724
19138SOL     OW69138  13.038   4.430   0.425  0.4782  0.3858  0.3944
19138SOL    HW169139  13.116   4.438   0.370  0.9998 -2.8012  0.5116
19138SOL    HW269140  12.972   4.390   0.368 -0.6253  1.6067  0.7497
19139SOL     OW69141   8.705   6.943   8.897 -0.3506  0.1379 -0.5805
19139SOL    HW169142   8.679   6.898   8.816 -1.5491 -0.0202 -0.1265
19139SOL    HW269143   8.629   6.996   8.921 -0.0257  0.1629  0.4569
19140SOL     OW69144   9.326   4.476   4.027  0.5176 -0.0622  0.3849
19140SOL    HW169145   9.283   4.461   4.112  0.2499 -0.5800  0.1651
19140SOL    HW269146   9.403   4.420   4.030 -0.1491 -1.0398 -0.1933
19141SOL     OW69147   5.449   4.754   2.325  0.1298  0.2730 -0.1312
19141SOL    HW169148   5.369   4.777   2.279  0.5788  0.7312 -0.6982
19141SOL    HW269149   5.420   4.723   2.411 -0.7807 -1.3977 -0.9963
19142SOL     OW69150   8.227   7.674  11.930  0.0224 -0.2004 -0.0953
19142SOL    HW169151   8.162   7.716  11.986  0.5816 -0.8199  1.0592
19142SOL    HW269152   8.277   7.746  11.892 -0.1077  0.2289  0.5386
19143SOL     OW69153   7.075  13.637   7.760  0.4640 -0.1044 -0.4869
19143SOL    HW169154   7.142  13.661   7.697  0.1919  1.1059 -0.3414
19143SOL    HW269155   7.109  13.666   7.844 -1.2771  2.9970 -0.7004
19144SOL     OW69156  10.693   7.050   8.626 -0.0514  0.1769 -0.4947
19144SOL    HW169157  10.679   7.117   8.559 -1.7743  0.2866 -0.0641
19144SOL    HW269158  10.641   7.079   8.700 -0.0674 -1.1612  0.0431
19145SOL     OW69159   9.920   2.736   7.047 -0.0183 -0.3089  0.4209
19145SOL    HW169160   9.892   2.650   7.015 -1.2358 -0.6380  2.1914
19145SOL    HW269161   9.842   2.773   7.088  0.7891  1.1399  0.7204
19146SOL     OW69162   9.442   7.243   8.710  0.1849 -0.9897  0.0540
19146SOL    HW169163   9.374   7.311   8.716  0.7113 -0.4716  0.3033
19146SOL    HW269164   9.403   7.175   8.656 -0.7999 -1.0200  0.7741
19147SOL     OW69165   4.816  12.607   1.551 -0.4624 -0.2277  0.4991
19147SOL    HW169166   4.895  12.561   1.579  0.8680  2.3027  1.1973
19147SOL    HW269167   4.745  12.566   1.601  0.9145 -0.2557  2.5389
19148SOL     OW69168   5.505   7.131   9.469  0.2370 -0.3930  0.3102
19148SOL    HW169169   5.542   7.130   9.381 -3.8854 -1.7628 -1.6893
19148SOL    HW269170   5.474   7.221   9.481 -0.5907 -0.5719 -0.3785
19149SOL     OW69171  11.757  11.455   0.498  0.0092 -0.0442  0.1531
19149SOL    HW169172  11.845  11.469   0.534  0.1279 -1.0614  0.2829
19149SOL    HW269173  11.716  11.394   0.560 -0.2124 -0.8591 -0.7813
19150SOL     OW69174   0.587   7.705   8.542 -0.0785  0.3733 -0.2940
19150SOL    HW169175   0.548   7.792   8.552  0.7879  0.7524 -0.1150
19150SOL    HW269176   0.642   7.694   8.620 -1.0305 -0.8089  0.2560
19151SOL     OW69177  13.488  10.739   6.619  0.3787  0.3916  0.6314
19151SOL    HW169178  13.393  10.750   6.623  0.1071 -1.6321  0.4248
19151SOL    HW269179  13.507  10.670   6.682  1.5456 -0.1133 -0.2391
19152SOL     OW69180   9.117   0.061   3.856  0.7913  0.3999  0.1929
19152SOL    HW169181   9.210   0.042   3.841  0.4215  0.7859 -3.7524
19152SOL    HW269182   9.071  -0.019   3.828 -0.1041  0.6779  0.8259
19153SOL     OW69183   2.329  13.261   1.961  0.3131 -0.4000 -0.2378
19153SOL    HW169184   2.276  13.335   1.991  1.5429 -0.6848  3.1281
19153SOL    HW269185   2.327  13.267   1.866  0.8485  4.3484 -0.2065
19154SOL     OW69186   8.217  13.272   5.188  0.3083 -0.8802  0.3309
19154SOL    HW169187   8.205  13.366   5.199 -0.3577 -1.0428  1.1436
19154SOL    HW269188   8.254  13.243   5.272  3.2850 -0.9407 -0.8645
19155SOL     OW69189   8.243   4.686   7.067 -0.2003  0.2069 -0.4323
19155SOL    HW169190   8.279   4.773   7.056  0.9358 -0.3419 -1.1899
19155SOL    HW269191   8.213   4.684   7.158 -0.4124  1.4326 -0.4601
19156SOL     OW69192   3.660  12.964   3.644 -0.2673  0.2621  0.2333
19156SOL    HW169193   3.608  12.884   3.644 -0.5711  0.4097  2.2633
19156SOL    HW269194   3.603  13.030   3.682  0.4464  1.1333 -0.1546
19157SOL     OW69195   3.040   1.249   4.471  0.0439 -0.1215 -0.3303
19157SOL    HW169196   3.086   1.294   4.400 -0.1954  2.1960  0.9065
19157SOL    HW269197   3.106   1.193   4.511  0.4254 -0.7313 -1.7249
19158SOL     OW69198   2.691   5.046   1.435 -1.0102  0.7468  0.2903
19158SOL    HW169199   2.690   5.011   1.524 -1.4569  1.0957  0.4249
19158SOL    HW269200   2.784   5.059   1.415 -0.3961 -3.9458 -1.1471
19159SOL     OW69201   1.942   9.671   9.037 -0.1441  0.1836 -0.4627
19159SOL    HW169202   1.854   9.699   9.064 -0.2343 -0.4081 -0.1314
19159SOL    HW269203   1.945   9.578   9.058  0.2516 -0.0028 -1.2886
19160SOL     OW69204   1.924   9.219   1.207 -0.4918  0.3718  0.0749
19160SOL    HW169205   1.914   9.276   1.283 -0.5116 -0.4980  0.7489
19160SOL    HW269206   2.015   9.232   1.179  0.1662 -0.8107  1.5368
19161SOL     OW69207  13.472   3.491   5.085  0.1310 -0.1831 -0.3604
19161SOL    HW169208  13.530   3.495   5.009  0.3223 -2.1954 -0.3611
19161SOL    HW269209  13.390   3.529   5.055  0.7413  0.6646 -1.0182
19162SOL     OW69210   6.270   2.789  11.302 -0.3943 -0.3586 -0.1896
19162SOL    HW169211   6.356   2.789  11.344 -1.2915  2.1912  1.9477
19162SOL    HW269212   6.211   2.751  11.369 -1.3893  0.8678 -0.3359
19163SOL     OW69213  13.119   5.165   3.485 -0.3394  0.2451  0.1907
19163SOL    HW169214  13.169   5.196   3.562  0.1202 -0.5084  0.2069
19163SOL    HW269215  13.142   5.227   3.416  0.3028  0.1620  0.3156
19164SOL     OW69216   8.900   4.758   5.871  0.3405  0.2283 -0.0032
19164SOL    HW169217   8.832   4.814   5.908 -0.6708 -0.5267 -0.6614
19164SOL    HW269218   8.981   4.808   5.882 -0.4352  1.5424 -0.0209
19165SOL     OW69219   2.299  12.241   0.324  0.8739  0.2296  0.1889
19165SOL    HW169220   2.311  12.179   0.395 -1.0185  1.0346  1.2978
19165SOL    HW269221   2.206  12.234   0.302  1.0291  1.3393 -0.9249
19166SOL     OW69222   4.292   9.421   0.733 -0.7449  0.3713 -0.7340
19166SOL    HW169223   4.216   9.384   0.777 -1.1885 -0.6364 -2.2408
19166SOL    HW269224   4.314   9.357   0.665  2.1149  0.1193  0.3045
19167SOL     OW69225   8.717   3.915  13.353 -0.0155  0.6365  0.7854
19167SOL    HW169226   8.657   3.840  13.346  1.1893 -0.2702 -0.4257
19167SOL    HW269227   8.719   3.953  13.266  1.9080  0.0039  0.4919
19168SOL     OW69228   6.359   8.579  12.930  0.5802  0.1567  0.1827
19168SOL    HW169229   6.359   8.484  12.915  0.9059  0.3490 -1.0818
19168SOL    HW269230   6.267   8.601  12.940  0.5361 -0.3815  1.1758
19169SOL     OW69231   1.730   4.831   6.200  0.2566 -0.2685  0.0570
19169SOL    HW169232   1.719   4.866   6.289  0.7565 -0.9484  0.3989
19169SOL    HW269233   1.810   4.873   6.168  0.5056 -0.6111  0.2259
19170SOL     OW69234  12.475   0.650   1.025 -0.0611 -0.4576  0.1010
19170SOL    HW169235  12.402   0.710   1.042  0.9163  0.5342  1.0014
19170SOL    HW269236  12.435   0.572   0.986 -1.5661  0.1209  0.4521
19171SOL     OW69237  10.422   6.495   5.211 -0.3333  0.0425  0.0616
19171SOL    HW169238  10.383   6.433   5.273  2.5847  0.0464  2.0764
19171SOL    HW269239  10.492   6.445   5.169 -0.7024  0.7818 -1.4867
19172SOL     OW69240   1.975   0.270   1.964 -0.1436  0.0547 -0.8200
19172SOL    HW169241   1.906   0.205   1.980 -0.1363  0.2039 -0.1793
19172SOL    HW269242   1.951   0.344   2.020 -0.2353  0.6723 -1.6527
19173SOL     OW69243   1.964  12.174   1.325 -0.1855  0.3285  0.3297
19173SOL    HW169244   1.896  12.116   1.357  0.2891 -1.4209 -1.6377
19173SOL    HW269245   1.917  12.244   1.279 -0.7039  0.7961  1.5272
19174SOL     OW69246   2.972   8.421  12.046  0.0676 -0.0758 -0.0256
19174SOL    HW169247   3.054   8.469  12.055  0.6752 -1.1714  0.4619
19174SOL    HW269248   2.919   8.475  11.988  0.3601  1.6393  1.2369
19175SOL     OW69249   5.131  13.471   0.095  0.1660 -0.0213  0.3104
19175SOL    HW169250   5.190  13.444   0.166  0.4013 -0.1228  0.0786
19175SOL    HW269251   5.182  13.457   0.016  0.5083  1.6233  0.2064
19176SOL     OW69252  10.159   1.562   3.660  0.9279 -0.3535 -0.0768
19176SOL    HW169253  10.126   1.552   3.750 -0.7080  0.4397 -0.5494
19176SOL    HW269254  10.126   1.486   3.614  0.5893 -0.0550 -0.3280
19177SOL     OW69255  10.146   8.877  10.886  0.1995 -0.4054  0.1319
19177SOL    HW169256  10.065   8.919  10.855  0.0305 -1.3321 -0.7401
19177SOL    HW269257  10.178   8.828  10.810  0.6836 -1.4112  0.9635
19178SOL     OW69258  11.675  13.212   2.703 -0.7749 -0.0022 -0.1491
19178SOL    HW169259  11.627  13.201   2.785 -1.1161 -1.2524 -0.4895
19178SOL    HW269260  11.613  13.257   2.646 -0.9647 -0.1646 -0.0769
19179SOL     OW69261   1.222   0.358   8.106  0.1841 -0.5058  0.1248
19179SOL    HW169262   1.138   0.371   8.063  0.6627 -1.2395 -1.0927
19179SOL    HW269263   1.228   0.429   8.170 -1.1012 -0.1123 -0.1643
19180SOL     OW69264  12.147   8.221   6.151  0.0820  0.4203 -0.2092
19180SOL    HW169265  12.218   8.284   6.159 -1.3754  2.2834 -1.2100
19180SOL    HW269266  12.172   8.149   6.209  2.2606  1.4731  0.2425
19181SOL     OW69267   1.629   0.851   8.748  0.2308  0.2093 -0.2154
19181SOL    HW169268   1.573   0.929   8.759 -0.8971 -0.4836 -0.8466
19181SOL    HW269269   1.568   0.780   8.731  1.3126 -0.6143 -0.7836
19182SOL     OW69270   9.875   7.995   1.182 -0.1854  0.2228 -0.4481
19182SOL    HW169271   9.845   7.906   1.202 -0.7253  0.5000 -0.0091
19182SOL    HW269272   9.827   8.051   1.243  1.2882  0.6751  0.3680
19183SOL     OW69273   0.096   2.272   1.999  0.5293  0.0147  0.2843
19183SOL    HW169274   0.097   2.245   1.907 -0.1379 -0.8250  0.5187
19183SOL    HW269275   0.175   2.232   2.036  0.0962 -0.7651  0.3835
19184SOL     OW69276   5.061  11.720   6.643 -0.5268  0.1182  0.0235
19184SOL    HW169277   5.134  11.768   6.681 -0.8116 -1.3772  2.7331
19184SOL    HW269278   4.997  11.788   6.619 -0.1388  1.2367  1.9422
19185SOL     OW69279  12.841   5.858   7.975  0.2108  0.1765 -0.4871
19185SOL    HW169280  12.804   5.889   7.892 -1.2550  1.3900  0.5633
19185SOL    HW269281  12.821   5.928   8.038 -2.3139 -2.3599  1.7912
19186SOL     OW69282  13.195   6.003   2.866  0.1641  0.4691 -0.4655
19186SOL    HW169283  13.230   5.947   2.798  0.5848  0.2010 -0.0397
19186SOL    HW269284  13.240   5.975   2.946 -2.2386 -1.0272  0.4524
19187SOL     OW69285   8.000   4.823  12.485 -0.0177 -0.3248 -0.1546
19187SOL    HW169286   8.061   4.895  12.502  1.9804 -1.6158 -1.4021
19187SOL    HW269287   8.034   4.750  12.537 -1.3754 -0.7019  0.2484
19188SOL     OW69288   1.408   7.708  13.250  0.2807 -0.0944 -0.9864
19188SOL    HW169289   1.434   7.789  13.294  0.6081 -0.1472 -1.0816
19188SOL    HW269290   1.448   7.714  13.163  0.6269 -0.5326 -0.8570
19189SOL     OW69291   8.218   9.087   5.074  0.1496  0.8091 -0.2426
19189SOL    HW169292   8.172   9.171   5.069 -1.8577 -0.2137 -0.0443
19189SOL    HW269293   8.209   9.049   4.987  2.3732  1.3925 -0.7933
19190SOL     OW69294   1.900  12.950   8.149 -0.2148 -0.4124  0.8848
19190SOL    HW169295   1.844  12.875   8.131 -0.1313 -0.7313  1.8680
19190SOL    HW269296   1.947  12.926   8.229  0.5058  0.3053  0.6962
19191SOL     OW69297   7.457   7.233   0.023 -0.1956 -0.0015 -0.8208
19191SOL    HW169298   7.448   7.199  -0.066  0.1355  0.4579 -1.0379
19191SOL    HW269299   7.380   7.199   0.070  0.3176 -1.3428 -0.9136
19192SOL     OW69300   9.409   2.684   1.172 -0.1037  0.1010  0.1467
19192SOL    HW169301   9.500   2.696   1.145 -0.1406 -1.9306 -1.1385
19192SOL    HW269302   9.412   2.679   1.267  1.2264 -0.5088  0.0902
19193SOL     OW69303  10.228  10.659  10.261 -0.6803 -0.1933  0.3199
19193SOL    HW169304  10.250  10.646  10.169  0.7254 -1.7336  0.8205
19193SOL    HW269305  10.260  10.748  10.281 -0.0208 -0.2556 -0.4110
19194SOL     OW69306   9.944   6.620   5.437  0.2510 -0.0628 -0.1185
19194SOL    HW169307   9.965   6.644   5.527  1.0310  0.7031 -0.4993
19194SOL    HW269308   9.876   6.682   5.410 -0.5549 -0.7858  0.1849
19195SOL     OW69309   0.830  12.805   2.348  0.7951  0.0158  0.2381
19195SOL    HW169310   0.871  12.719   2.357 -2.0250 -1.7097 -1.5036
19195SOL    HW269311   0.736  12.787   2.360  0.1758  3.0187  0.5586
19196SOL     OW69312   2.719   6.245   5.160  0.3122  0.0515 -0.2029
19196SOL    HW169313   2.647   6.282   5.108  0.8002 -0.4578 -1.2676
19196SOL    HW269314   2.760   6.181   5.102  0.3740 -1.1436  1.0956
19197SOL     OW69315   5.106   6.999  13.050  0.0045  0.0651 -0.2533
19197SOL    HW169316   5.166   6.925  13.057  0.5421  0.5548  0.5044
19197SOL    HW269317   5.120   7.033  12.962 -0.0212 -0.5343 -0.4981
19198SOL     OW69318   3.918   8.984   6.468  0.4819 -0.2660  0.5510
19198SOL    HW169319   3.893   9.004   6.558  1.0622 -0.7592  0.8230
19198SOL    HW269320   3.954   9.067   6.434 -0.6193  0.1923  0.4463
19199SOL     OW69321  10.780   5.119   0.213 -0.2239 -0.1705 -0.0508
19199SOL    HW169322  10.861   5.096   0.259  1.2714  0.1221 -2.3952
19199SOL    HW269323  10.771   5.213   0.226  0.3205 -0.0484 -0.5263
19200SOL     OW69324   9.652  13.539   6.130  0.0572  0.1833 -0.3532
19200SOL    HW169325   9.618  13.496   6.209 -0.2402  0.7975 -0.1461
19200SOL    HW269326   9.590  13.610   6.113  0.2773  0.2253 -0.9807
19201SOL     OW69327   5.651   8.889   8.715 -0.2471  0.1302  0.0581
19201SOL    HW169328   5.709   8.922   8.784  0.8916  0.4391 -1.0068
19201SOL    HW269329   5.662   8.794   8.719  0.4297  0.1905 -0.1966
19202SOL     OW69330  11.184  12.188   2.334 -0.2785  0.3326  0.5198
19202SOL    HW169331  11.097  12.227   2.322 -0.6255 -0.4826  0.3511
19202SOL    HW269332  11.186  12.164   2.427  0.1502  1.2411  0.7581
19203SOL     OW69333  10.433  13.332  10.059  0.4195  1.0458  0.3973
19203SOL    HW169334  10.365  13.399  10.048  0.5046  1.2996  1.3197
19203SOL    HW269335  10.474  13.325   9.972 -0.9033  0.7370 -0.2282
19204SOL     OW69336   0.344   7.595   9.060  0.2039 -0.2604 -0.0543
19204SOL    HW169337   0.370   7.573   8.971  1.3802 -1.3031  0.5086
19204SOL    HW269338   0.378   7.683   9.075  0.4227 -0.2719 -0.4822
19205SOL     OW69339   7.374   8.270   4.846  0.3118 -0.2294 -0.2209
19205SOL    HW169340   7.330   8.266   4.761 -0.8915 -2.0645  0.4281
19205SOL    HW269341   7.445   8.333   4.833  0.0619 -0.3220 -2.5268
19206SOL     OW69342  10.211  13.567   1.051  0.5699  0.2754 -0.5456
19206SOL    HW169343  10.217  13.596   1.142  1.4749 -1.2298 -0.0771
19206SOL    HW269344  10.133  13.511   1.049  0.2287  0.7604 -0.8371
19207SOL     OW69345  12.324   7.954  12.646 -0.5611  0.2130 -0.0479
19207SOL    HW169346  12.265   8.011  12.598 -0.3642  0.1509 -0.3706
19207SOL    HW269347  12.342   7.881  12.586 -2.0576 -1.0185  0.9361
19208SOL     OW69348   7.844   0.050   7.123  0.0497 -0.4782  0.6450
19208SOL    HW169349   7.891   0.008   7.051 -1.4427 -2.6126  0.8535
19208SOL    HW269350   7.754   0.057   7.093 -0.1953  0.5051  1.5396
19209SOL     OW69351   0.423   7.131   4.393 -0.5546 -0.2564  0.4741
19209SOL    HW169352   0.385   7.219   4.391  1.4792  0.7231  0.9607
19209SOL    HW269353   0.482   7.133   4.469  1.0769 -1.3279 -0.7040
19210SOL     OW69354   7.150  11.753   3.788  0.3666 -0.1440  0.3012
19210SOL    HW169355   7.137  11.733   3.695  0.7555  0.6422  0.0671
19210SOL    HW269356   7.214  11.824   3.788 -0.7760  0.9041  1.1046
19211SOL     OW69357  12.876   1.935   1.393  0.0115 -0.6888 -0.0813
19211SOL    HW169358  12.825   1.873   1.446  0.0098 -0.4658  0.1860
19211SOL    HW269359  12.929   1.983   1.458 -0.9799  0.5191 -0.1287
19212SOL     OW69360   9.382   1.609  11.882  0.1568  0.1021  0.3966
19212SOL    HW169361   9.410   1.605  11.790 -3.3446 -1.7816 -0.7530
19212SOL    HW269362   9.424   1.533  11.923 -0.2807 -0.5521 -0.3395
19213SOL     OW69363   9.500   0.048   1.324 -0.2988  0.0880  0.1195
19213SOL    HW169364   9.437   0.005   1.382  0.4701 -1.9238 -0.4271
19213SOL    HW269365   9.585   0.012   1.351  0.1612 -0.2382 -1.6535
19214SOL     OW69366  13.573   1.620   1.089 -0.3127 -0.4435 -0.1205
19214SOL    HW169367  13.631   1.689   1.055 -0.9460 -0.2283 -0.8029
19214SOL    HW269368  13.487   1.642   1.053 -0.5517 -1.5116 -0.2306
19215SOL     OW69369   3.834   2.016   1.224  0.3623  0.1670 -0.1594
19215SOL    HW169370   3.830   2.051   1.313  0.2016  0.6722 -0.3625
19215SOL    HW269371   3.752   2.043   1.183  0.4872  0.0403 -0.4992
19216SOL     OW69372  11.309  11.245  10.822  0.1694  0.3059  0.6547
19216SOL    HW169373  11.252  11.179  10.783 -0.5298  0.5067  1.3016
19216SOL    HW269374  11.341  11.205  10.903 -0.0441  0.6484  0.9145
19217SOL     OW69375  12.465   1.436   6.486 -0.1752  0.1343  0.5118
19217SOL    HW169376  12.453   1.365   6.549  1.0366  2.0788  3.0947
19217SOL    HW269377  12.376   1.465   6.466 -0.5856 -0.3854  1.5085
19218SOL     OW69378   7.822   5.091   3.846 -0.4298 -0.2350 -0.4798
19218SOL    HW169379   7.770   5.165   3.815  1.2223  1.0431 -0.2841
19218SOL    HW269380   7.825   5.032   3.770 -1.9238 -0.2301 -0.5735
19219SOL     OW69381   3.394  12.736  12.633  0.6044 -0.6533  0.1976
19219SOL    HW169382   3.367  12.827  12.649 -1.0427 -0.8617 -1.2123
19219SOL    HW269383   3.325  12.683  12.674  2.3430 -1.3842  2.4283
19220SOL     OW69384   1.314   3.902   6.127  0.2078 -0.4677  0.3796
19220SOL    HW169385   1.375   3.912   6.055  0.7662 -2.0035  0.6002
19220SOL    HW269386   1.297   3.808   6.131  1.2386 -0.6069  3.0968
19221SOL     OW69387   4.392   9.006  13.454 -0.3208 -0.5546  0.0727
19221SOL    HW169388   4.427   9.021  13.542 -3.0789 -0.6387  1.2764
19221SOL    HW269389   4.385   9.094  13.416  2.8894 -0.6417 -1.0271
19222SOL     OW69390   8.608   0.920  13.151  0.0568  0.2097 -0.1890
19222SOL    HW169391   8.634   0.954  13.236  2.2761  0.7257 -0.9927
19222SOL    HW269392   8.674   0.854  13.130  0.1501  0.7933 -1.9208
19223SOL     OW69393  12.159  13.712   7.147 -0.1403  0.2585  0.2830
19223SOL    HW169394  12.178  13.805   7.164  2.8178 -0.4078  1.2091
19223SOL    HW269395  12.151  13.707   7.052  1.2354  1.2762  0.0651
19224SOL     OW69396   3.166   0.429   0.909  0.4240 -0.3494  0.2831
19224SOL    HW169397   3.072   0.447   0.900  0.3650 -0.8199 -0.0683
19224SOL    HW269398   3.199   0.427   0.819  0.1098 -3.5907  0.1307
19225SOL     OW69399  11.026   0.121  13.462  0.0464  0.5465 -0.4011
19225SOL    HW169400  11.087   0.079  13.522  0.1048  0.8699 -0.2350
19225SOL    HW269401  10.947   0.067  13.466 -1.4156  2.6167  2.8944
19226SOL     OW69402  12.231   7.360   0.448  0.0890 -0.3314 -0.4491
19226SOL    HW169403  12.305   7.305   0.476  0.9761  1.6437  1.3874
19226SOL    HW269404  12.271   7.430   0.396 -0.4371  0.7596  0.5617
19227SOL     OW69405   4.563   3.961   6.790  0.0050 -0.9596 -0.7641
19227SOL    HW169406   4.513   3.923   6.862  1.4249 -0.5917  0.4685
19227SOL    HW269407   4.499   4.014   6.742 -1.0665 -1.5424 -0.0199
19228SOL     OW69408  13.413  10.872   8.625  0.3589  0.0526 -0.2835
19228SOL    HW169409  13.483  10.831   8.674  0.2492  0.8280  0.5448
19228SOL    HW269410  13.386  10.806   8.561  0.3417 -1.0612  0.8580
19229SOL     OW69411   7.453   7.428   9.377  0.3556 -0.3234  0.2859
19229SOL    HW169412   7.471   7.355   9.436  0.0808 -0.1356  0.6014
19229SOL    HW269413   7.364   7.455   9.398  0.1955 -0.3586 -0.3300
19230SOL     OW69414  12.128   6.519   5.870  0.1960 -0.6914  0.7021
19230SOL    HW169415  12.183   6.475   5.805 -1.3381  0.2327 -1.3221
19230SOL    HW269416  12.047   6.539   5.824 -0.2927  1.6333  2.3549
19231SOL     OW69417  12.302  10.056   9.132  0.2717 -0.1722  0.5347
19231SOL    HW169418  12.380  10.110   9.120 -1.0756  1.7616  0.0074
19231SOL    HW269419  12.328   9.991   9.197  2.1694  0.7327  0.7534
19232SOL     OW69420  11.238   5.535  11.025 -0.1287  0.1192 -0.2598
19232SOL    HW169421  11.152   5.575  11.036 -0.7045 -1.3439  0.8736
19232SOL    HW269422  11.238   5.501  10.936 -1.0618 -0.6242  0.0158
19233SOL     OW69423   1.391   9.508  11.373  0.1458  0.2454 -0.3686
19233SOL    HW169424   1.351   9.506  11.460 -2.9619  1.7933 -1.5955
19233SOL    HW269425   1.481   9.535  11.388  0.2056 -1.1613  2.4411
19234SOL     OW69426   8.140   2.800   3.828  0.1996 -0.2775 -0.2410
19234SOL    HW169427   8.078   2.800   3.901  0.1905 -2.6371 -0.1794
19234SOL    HW269428   8.133   2.888   3.791  0.5209  1.1785  2.8281
19235SOL     OW69429   3.170  10.141   2.481 -0.1060 -0.5789 -0.6687
19235SOL    HW169430   3.140  10.197   2.552  1.7707  0.0741 -0.3215
19235SOL    HW269431   3.118  10.169   2.405 -0.3924  0.4711 -0.1107
19236SOL     OW69432   3.705  10.020   2.141  0.1055 -0.7205  0.5080
19236SOL    HW169433   3.699  10.110   2.174  0.4810 -0.9055  1.1054
19236SOL    HW269434   3.672   9.966   2.212 -0.1794 -1.0560  0.1263
19237SOL     OW69435   4.396  12.674   3.860 -0.5163 -0.0397  0.1701
19237SOL    HW169436   4.328  12.606   3.864 -0.1527 -0.4198 -0.0620
19237SOL    HW269437   4.408  12.700   3.951  0.4327 -1.3960  0.4778
19238SOL     OW69438  11.916   9.510   3.230  0.0921  0.0077  0.1504
19238SOL    HW169439  11.833   9.490   3.275  0.1310 -1.6958 -0.4770
19238SOL    HW269440  11.976   9.442   3.260  0.7487  0.1636 -0.7865
19239SOL     OW69441  10.885   7.130   9.886  0.0865 -0.5613 -0.2788
19239SOL    HW169442  10.920   7.185   9.956 -3.3446 -0.5551  1.6711
19239SOL    HW269443  10.907   7.041   9.911 -0.6836 -0.5207  0.5921
19240SOL     OW69444  13.640   6.628   7.721  0.5966 -0.0011 -0.5485
19240SOL    HW169445  13.675   6.712   7.690 -0.0178  0.5972  0.3363
19240SOL    HW269446  13.716   6.570   7.723  0.7896  0.1046 -2.5064
19241SOL     OW69447   0.941   1.623  11.444  0.0753 -0.4848 -0.2156
19241SOL    HW169448   0.892   1.703  11.425 -1.6595 -1.1897  1.0602
19241SOL    HW269449   0.975   1.636  11.533  3.6127  0.6005 -1.5367
19242SOL     OW69450   0.093   7.551   8.461  0.1810  0.6125  0.2283
19242SOL    HW169451   0.155   7.600   8.515  0.2035  1.4944 -0.5843
19242SOL    HW269452   0.051   7.490   8.523  0.2716  1.5338  1.2241
19243SOL     OW69453   9.668   4.339  12.438  0.6916  0.5209 -0.3921
19243SOL    HW169454   9.654   4.408  12.373  1.7314 -0.4171 -1.6521
19243SOL    HW269455   9.615   4.265  12.407  0.1163  0.4943  0.5827
19244SOL     OW69456   4.425   5.472   4.765 -0.1893  0.3429  0.3743
19244SOL    HW169457   4.378   5.388   4.767  1.5884 -0.7291  0.0761
19244SOL    HW269458   4.393   5.515   4.686 -0.8022 -0.2788  0.2724
19245SOL     OW69459  11.749  12.711   6.982 -0.1433  0.3475  0.4592
19245SOL    HW169460  11.785  12.701   6.894 -1.4315  1.5141 -0.2301
19245SOL    HW269461  11.756  12.623   7.020  1.8346  0.1596 -0.2213
19246SOL     OW69462   9.352  11.967  11.553 -0.1374  0.3492  0.1443
19246SOL    HW169463   9.320  12.056  11.536 -1.3461 -0.1625 -0.4213
19246SOL    HW269464   9.273  11.918  11.578  0.6312 -0.3959  1.2101
19247SOL     OW69465  11.259   4.477  12.635  0.1621  0.2879 -0.1361
19247SOL    HW169466  11.247   4.518  12.720 -0.5878 -0.8695  0.3400
19247SOL    HW269467  11.185   4.508  12.583  0.1835  0.3648 -0.1219
19248SOL     OW69468   9.914   3.762   0.237  0.6003 -0.1968  0.1959
19248SOL    HW169469   9.915   3.802   0.324  1.0888  2.1825 -0.8480
19248SOL    HW269470   9.972   3.686   0.246 -0.6341 -0.9875  2.3291
19249SOL     OW69471  11.036  11.638   0.845  0.5104 -0.7540  0.1115
19249SOL    HW169472  11.029  11.687   0.763 -2.3833  1.2563  1.4127
19249SOL    HW269473  11.104  11.684   0.895 -0.7869  0.7899  0.5248
19250SOL     OW69474   7.856   6.894   0.414 -0.2334  0.5578 -0.1150
19250SOL    HW169475   7.873   6.901   0.508 -0.7034  0.1028  0.0115
19250SOL    HW269476   7.918   6.954   0.374  1.4028 -0.7506  0.3314
19251SOL     OW69477   1.109   9.304   5.206  0.1195 -0.3166  0.1095
19251SOL    HW169478   1.165   9.381   5.208  0.6113 -0.6387 -0.6939
19251SOL    HW269479   1.028   9.334   5.164  0.1567 -0.1367  0.1664
19252SOL     OW69480  12.665  11.835  10.299 -0.3666  0.2933  0.3722
19252SOL    HW169481  12.731  11.904  10.310 -0.2889  0.1892  0.5662
19252SOL    HW269482  12.623  11.855  10.215  0.9550 -0.5189 -0.5065
19253SOL     OW69483  10.452   0.580   0.385  0.7643  0.7001 -0.2853
19253SOL    HW169484  10.521   0.555   0.323 -0.9209 -2.4210 -1.1289
19253SOL    HW269485  10.403   0.499   0.400 -1.8344  2.4288  1.4321
19254SOL     OW69486  11.674   7.724   2.891 -0.5822  0.0299 -0.5617
19254SOL    HW169487  11.617   7.653   2.919 -0.5428  0.1965 -0.0448
19254SOL    HW269488  11.758   7.705   2.932 -0.6020  0.4299 -0.3293
19255SOL     OW69489   9.774   9.472   3.158  0.3127 -0.1531 -0.2728
19255SOL    HW169490   9.733   9.558   3.168  1.0681  0.0075  2.1792
19255SOL    HW269491   9.783   9.460   3.064 -1.0406  1.8551 -0.7150
19256SOL     OW69492   8.116   4.383  12.379  0.6861 -0.4990 -0.0626
19256SOL    HW169493   8.093   4.474  12.401  1.3936 -0.0653 -1.0140
19256SOL    HW269494   8.045   4.354  12.323 -0.2594 -1.0343  1.3573
19257SOL     OW69495   6.300   1.884   0.395 -0.4017  1.0529 -0.7329
19257SOL    HW169496   6.339   1.888   0.308 -0.6139 -0.4745 -0.9219
19257SOL    HW269497   6.205   1.880   0.379 -0.4190  0.1855 -0.4697
19258SOL     OW69498   4.724  10.985   1.616 -0.2497  0.4267  0.1186
19258SOL    HW169499   4.632  10.991   1.593  0.3871  0.9459 -2.6262
19258SOL    HW269500   4.760  11.072   1.598  0.8256  0.1969  1.0076
19259SOL     OW69501   6.025  13.306   0.307 -0.2382  0.1169  0.4930
19259SOL    HW169502   6.089  13.375   0.292  1.4879 -1.4520  0.2850
19259SOL    HW269503   6.013  13.304   0.401 -0.0125  0.4703  0.5295
19260SOL     OW69504   3.263  12.250   5.565 -0.1570 -1.0138 -0.5966
19260SOL    HW169505   3.257  12.346   5.563 -0.8334 -1.0602 -1.5792
19260SOL    HW269506   3.356  12.232   5.551  0.1002 -0.4951  0.3427
19261SOL     OW69507   8.535   2.787   6.529 -0.0441 -0.5254 -0.1998
19261SOL    HW169508   8.578   2.842   6.463  2.3706 -2.2938 -0.2429
19261SOL    HW269509   8.568   2.819   6.612 -0.5748 -0.3659 -0.0441
19262SOL     OW69510  11.465  11.656   8.622 -0.4146 -0.0147  0.3802
19262SOL    HW169511  11.558  11.671   8.636 -0.4229  0.7889 -0.3717
19262SOL    HW269512  11.448  11.570   8.662  0.9198 -0.8038 -0.6721
19263SOL     OW69513  12.160   3.547   0.652 -0.3028  0.3715 -0.4045
19263SOL    HW169514  12.122   3.593   0.727 -0.6759  0.8378 -0.8770
19263SOL    HW269515  12.237   3.503   0.688  0.3133  1.6939 -0.0112
19264SOL     OW69516   7.414   3.150   4.602  0.2109  0.4270 -0.4914
19264SOL    HW169517   7.409   3.242   4.576 -0.4133 -0.3358 -3.3913
19264SOL    HW269518   7.328   3.130   4.637  0.5942  1.0764  0.9442
19265SOL     OW69519  10.507  10.411   8.955 -0.3516  0.3092  0.2119
19265SOL    HW169520  10.595  10.443   8.937 -0.8611  2.0393  0.5976
19265SOL    HW269521  10.510  10.319   8.930  0.9103  0.8614 -2.0645
19266SOL     OW69522   6.230  11.789   9.498  0.0137  0.0394  0.3376
19266SOL    HW169523   6.248  11.757   9.587  0.0348 -0.7690  0.0560
19266SOL    HW269524   6.264  11.720   9.441 -0.9330  0.0595 -0.2758
19267SOL     OW69525   9.933   1.881   1.632 -0.2221  0.1818  0.4054
19267SOL    HW169526   9.900   1.918   1.713  1.7181 -0.0683  1.3787
19267SOL    HW269527   9.959   1.956   1.579 -4.1866  0.5379 -1.3754
19268SOL     OW69528   2.176   0.744   5.273 -0.4181 -0.2133 -0.1514
19268SOL    HW169529   2.206   0.829   5.243 -1.0336 -0.1408 -0.5845
19268SOL    HW269530   2.082   0.743   5.253 -0.8365 -0.2244  1.6054
19269SOL     OW69531   0.392   5.122   6.850  0.1933  0.0148 -0.6684
19269SOL    HW169532   0.481   5.139   6.882  0.4926 -0.8953 -0.9933
19269SOL    HW269533   0.398   5.038   6.805 -0.8432 -0.0682 -0.6799
19270SOL     OW69534  10.095   3.983   6.150 -0.2379  0.0270 -0.1729
19270SOL    HW169535  10.112   3.962   6.242 -1.4811  0.6485  0.2300
19270SOL    HW269536  10.027   3.921   6.123 -0.4189  0.3344 -0.4350
19271SOL     OW69537  12.811   3.919  13.445 -0.0626 -0.4790  0.1039
19271SOL    HW169538  12.818   3.841  13.391  0.0298  0.4165 -1.2189
19271SOL    HW269539  12.717   3.935  13.451 -0.0335  0.0828 -0.7973
19272SOL     OW69540  13.352   1.534   5.561 -0.1421 -0.2890  0.3908
19272SOL    HW169541  13.297   1.583   5.499 -0.4657  0.0111  0.9136
19272SOL    HW269542  13.361   1.448   5.521 -1.0433 -0.3589  0.3200
19273SOL     OW69543   4.082   9.758  13.733  0.3580 -0.1894  0.0101
19273SOL    HW169544   4.119   9.846  13.721  1.0671 -0.3745  0.7522
19273SOL    HW269545   4.070   9.749  13.828 -0.9215 -0.4176 -0.1599
19274SOL     OW69546   4.613  11.410   2.042 -0.8485  0.3958 -0.5723
19274SOL    HW169547   4.529  11.414   2.088 -2.1688  3.7650 -2.8724
19274SOL    HW269548   4.603  11.337   1.981 -1.0394 -0.8382  0.8620
19275SOL     OW69549   2.205   8.295  11.933  0.2154 -0.6720  0.0533
19275SOL    HW169550   2.297   8.285  11.959  0.1489  0.1635  0.6343
19275SOL    HW269551   2.163   8.216  11.966  0.8982 -1.5227 -1.0531
19276SOL     OW69552   3.022  13.105   8.695  0.0376  0.4438  0.2308
19276SOL    HW169553   2.987  13.016   8.707  0.7834  0.3766  2.3302
19276SOL    HW269554   3.111  13.091   8.663  0.3150  0.3967  1.0003
19277SOL     OW69555  13.114   2.672   8.993  0.6092 -0.4542 -0.5097
19277SOL    HW169556  13.056   2.596   9.002  0.5027 -0.3969 -0.6945
19277SOL    HW269557  13.159   2.678   9.077 -1.0470  0.6432  0.3719
19278SOL     OW69558  12.180   6.958   8.788  0.8143  0.2960  0.2435
19278SOL    HW169559  12.174   6.905   8.709  1.1259 -2.5503  1.9749
19278SOL    HW269560  12.273   6.976   8.798  1.0985 -1.4798  1.1778
19279SOL     OW69561   1.582   4.708  10.896  0.4836  0.1718 -0.1148
19279SOL    HW169562   1.528   4.692  10.819 -0.2558 -0.0407  0.4410
19279SOL    HW269563   1.672   4.699  10.864  0.2415  1.5342 -1.2699
19280SOL     OW69564  11.183   0.315   0.616  0.3017  0.3326 -0.1543
19280SOL    HW169565  11.233   0.372   0.559  0.9390 -0.0799 -0.0120
19280SOL    HW269566  11.208   0.341   0.705 -0.6872  0.9747 -0.0484
19281SOL     OW69567  10.494   8.353   8.672  0.6648 -0.3018  0.4388
19281SOL    HW169568  10.451   8.355   8.586 -0.5310  2.7696  0.9628
19281SOL    HW269569  10.587   8.352   8.652  0.4034  0.2814 -0.9258
19282SOL     OW69570  12.193  12.004   4.071  0.3103  0.4094 -0.4275
19282SOL    HW169571  12.205  11.915   4.038  0.8249 -0.1187  1.0882
19282SOL    HW269572  12.162  12.054   3.995  0.2925 -0.9858 -1.3787
19283SOL     OW69573   2.195   6.815   0.886  0.5577 -0.1123  0.1408
19283SOL    HW169574   2.216   6.747   0.950 -0.5084 -1.1148 -0.5413
19283SOL    HW269575   2.262   6.806   0.818  1.6429  0.9003  1.0262
19284SOL     OW69576   9.090   1.929   9.102 -0.7249  0.1963 -0.2829
19284SOL    HW169577   9.033   1.867   9.056 -0.8869  0.7638 -0.8599
19284SOL    HW269578   9.041   2.011   9.101 -0.3700  0.4175  0.1940
19285SOL     OW69579  10.761   9.618   3.402  0.0278  0.0090 -0.0337
19285SOL    HW169580  10.838   9.671   3.379 -0.7468  0.5142 -1.6340
19285SOL    HW269581  10.703   9.626   3.326 -0.3867 -2.6836 -0.0829
19286SOL     OW69582   3.644   8.642   3.362  0.1036 -0.1362 -0.1824
19286SOL    HW169583   3.704   8.714   3.343  1.5044 -1.2919 -0.2327
19286SOL    HW269584   3.660   8.621   3.453 -0.8703  0.1123  0.0572
19287SOL     OW69585   7.981   4.644  10.130  0.3707 -0.3481 -0.0813
19287SOL    HW169586   8.012   4.654  10.040 -1.1505  0.2653 -0.5750
19287SOL    HW269587   7.892   4.680  10.128 -0.1219 -1.4185  1.3999
19288SOL     OW69588   0.543  12.882   0.463 -0.5608 -0.6195 -0.6396
19288SOL    HW169589   0.574  12.794   0.483 -0.4635 -0.6606 -0.9638
19288SOL    HW269590   0.572  12.935   0.537 -0.4691 -0.8278 -0.5260
19289SOL     OW69591   6.331   1.103   6.752 -0.0404 -0.3619  0.4997
19289SOL    HW169592   6.271   1.105   6.678  0.6016  2.2669 -0.0623
19289SOL    HW269593   6.315   1.019   6.794 -2.2137 -0.8562 -1.1434
19290SOL     OW69594  13.084   2.060   3.369 -0.2139 -0.2604  0.1720
19290SOL    HW169595  13.034   2.064   3.450  0.9782  1.1261  0.8881
19290SOL    HW269596  13.027   2.101   3.304 -0.4670  0.2804  0.7235
19291SOL     OW69597   6.157   6.276  10.440  0.4601 -0.2697 -0.5938
19291SOL    HW169598   6.222   6.241  10.501 -0.1896 -1.1954 -0.4024
19291SOL    HW269599   6.147   6.207  10.374 -0.0275  0.0334 -0.8404
19292SOL     OW69600   1.123   7.506   3.840  0.4586  0.2278 -0.8233
19292SOL    HW169601   1.095   7.557   3.764  1.2429  0.6410 -0.8474
19292SOL    HW269602   1.198   7.456   3.808  1.5443  1.2990 -0.0262
19293SOL     OW69603  10.489   2.143   8.317 -0.0255 -0.0738  0.7113
19293SOL    HW169604  10.484   2.225   8.268  1.0264 -0.4997 -0.1301
19293SOL    HW269605  10.543   2.164   8.394  0.1658  0.0398  0.5456
19294SOL     OW69606  11.623   0.803   9.264 -0.8327  0.1305  0.1502
19294SOL    HW169607  11.583   0.838   9.185  1.1160 -0.0609 -0.9702
19294SOL    HW269608  11.717   0.798   9.244 -0.2971 -0.0433  2.4234
19295SOL     OW69609   1.098   8.421  11.558 -0.2266  0.1840  0.1726
19295SOL    HW169610   1.125   8.336  11.592 -0.1269  0.6383  1.2514
19295SOL    HW269611   1.045   8.400  11.480  0.8296 -0.8075 -0.3009
19296SOL     OW69612   8.321   7.142  11.968  0.2775 -0.0179  0.0099
19296SOL    HW169613   8.282   7.223  11.935 -0.5804  0.4205  2.0111
19296SOL    HW269614   8.397   7.128  11.911 -0.1389  1.6234 -1.0219
19297SOL     OW69615   2.121   7.639   5.104 -0.1850 -0.1738 -0.1166
19297SOL    HW169616   2.178   7.638   5.181  1.1834 -0.1225 -1.0966
19297SOL    HW269617   2.071   7.721   5.112 -0.4166 -0.4048  0.9487
19298SOL     OW69618  13.669   8.598   0.874  0.6759  0.2737 -0.4122
19298SOL    HW169619  13.704   8.636   0.793 -2.6434  0.9169 -1.7082
19298SOL    HW269620  13.628   8.672   0.919 -0.6266 -0.6902  0.0502
19299SOL     OW69621   1.578   1.465   5.357  0.2543  0.2153  0.4760
19299SOL    HW169622   1.537   1.378   5.353 -1.6413  1.0865 -0.1258
19299SOL    HW269623   1.636   1.468   5.281 -2.7285  0.8594 -1.9620
19300SOL     OW69624  12.873   2.137   7.231  0.0402  0.1085  1.0828
19300SOL    HW169625  12.839   2.059   7.275  1.6314 -1.5186 -0.3979
19300SOL    HW269626  12.849   2.210   7.288 -4.6173 -0.9619  0.9064
19301SOL     OW69627  13.307  13.172   5.685 -0.4566  0.3316  0.9479
19301SOL    HW169628  13.262  13.244   5.730 -2.3977 -0.3084  0.1203
19301SOL    HW269629  13.237  13.113   5.657  0.9420 -0.9416 -0.0473
19302SOL     OW69630   9.545  10.740  12.912  0.4638 -0.1096 -0.2229
19302SOL    HW169631   9.514  10.703  12.830 -0.3215 -0.2557  0.1316
19302SOL    HW269632   9.470  10.789  12.946  0.6427 -0.3859  0.6019
19303SOL     OW69633  11.010  13.122   6.649  0.3465 -0.2816 -0.5139
19303SOL    HW169634  11.073  13.086   6.586  0.8191 -0.6150  0.1357
19303SOL    HW269635  11.057  13.194   6.691  0.3483 -0.6079  0.0598
19304SOL     OW69636   1.586   5.995  10.334  0.0659 -0.2689 -0.4855
19304SOL    HW169637   1.547   6.078  10.362 -0.5020 -0.0809 -1.7504
19304SOL    HW269638   1.566   5.990  10.240  1.3859 -1.1278 -0.7422
19305SOL     OW69639  11.908   9.426  12.653  0.1254 -0.2721 -0.2650
19305SOL    HW169640  11.976   9.420  12.586 -0.0672  1.9191 -0.7320
19305SOL    HW269641  11.830   9.389  12.611  0.4551 -0.6089 -0.5877
19306SOL     OW69642  12.510  10.232   6.919  0.3577 -0.5578  1.2103
19306SOL    HW169643  12.569  10.238   6.994  0.3164  2.5056  1.1246
19306SOL    HW269644  12.565  10.201   6.847  0.6990 -2.2369  2.1575
19307SOL     OW69645  13.666  10.279  11.093  0.1924  0.3854  0.4080
19307SOL    HW169646  13.733  10.237  11.040  0.2353 -0.0368  0.7889
19307SOL    HW269647  13.688  10.254  11.183  0.1416  1.1121  0.6293
19308SOL     OW69648   0.847   2.980   8.472 -0.2768  0.1664  0.4083
19308SOL    HW169649   0.884   3.065   8.446 -0.0609  0.2213  0.8910
19308SOL    HW269650   0.767   2.973   8.420 -0.9371  1.2167  1.2365
19309SOL     OW69651   9.254  11.760  12.763  0.2260 -0.4643 -0.7102
19309SOL    HW169652   9.234  11.669  12.782  0.1729 -0.4785 -0.8323
19309SOL    HW269653   9.179  11.809  12.795 -0.1829 -0.5523 -1.5081
19310SOL     OW69654   2.211   8.649   5.830  0.4985  0.1930 -0.2103
19310SOL    HW169655   2.206   8.564   5.787  0.0028  0.7752 -1.3265
19310SOL    HW269656   2.121   8.680   5.833  0.8156  1.2309 -0.9538
19311SOL     OW69657   9.978   1.711  11.528 -0.1852 -0.7106  0.1962
19311SOL    HW169658  10.052   1.686  11.473  0.4962  2.3502 -0.4279
19311SOL    HW269659  10.006   1.691  11.618  0.9219 -0.6162 -0.1248
19312SOL     OW69660   1.433   8.627   2.846 -0.2457 -0.0210 -0.1753
19312SOL    HW169661   1.407   8.557   2.906 -0.7226 -1.3019 -1.8026
19312SOL    HW269662   1.527   8.615   2.833 -0.0933  0.4065  0.4543
19313SOL     OW69663   1.426   3.713  11.490  0.4162 -0.7726  0.2093
19313SOL    HW169664   1.437   3.621  11.513  0.3312 -0.5531  1.2057
19313SOL    HW269665   1.468   3.760  11.562 -0.6268 -0.0176  0.3397
19314SOL     OW69666  10.189   2.365   6.590  0.0786  0.5593  0.2373
19314SOL    HW169667  10.125   2.344   6.522  1.3782  0.4732 -0.9962
19314SOL    HW269668  10.154   2.444   6.632 -1.4202 -0.1487  0.4119
19315SOL     OW69669   8.702   0.706   2.676 -0.1943 -0.2030  0.0791
19315SOL    HW169670   8.635   0.641   2.696 -0.2333 -0.1873  0.0012
19315SOL    HW269671   8.738   0.731   2.761 -2.8072  2.4850  0.5971
19316SOL     OW69672   8.579  12.440   4.181  0.4491 -0.3915  0.3703
19316SOL    HW169673   8.605  12.423   4.272  2.8984  0.9211  0.0008
19316SOL    HW269674   8.656  12.414   4.130 -0.2623  0.4588 -1.1764
19317SOL     OW69675   8.423   9.204   3.448 -0.2237 -0.6227 -0.4154
19317SOL    HW169676   8.385   9.286   3.415 -1.0960 -1.2348 -0.9661
19317SOL    HW269677   8.517   9.219   3.447 -0.2709 -0.2657 -2.2372
19318SOL     OW69678   2.419   9.141  11.357 -0.2094  0.1447  0.1349
19318SOL    HW169679   2.459   9.136  11.444  1.7736  2.0967 -0.5622
19318SOL    HW269680   2.463   9.215  11.315 -1.2095 -0.6458 -2.4946
19319SOL     OW69681   0.048  10.999   5.754 -0.1651  0.1337  0.5916
19319SOL    HW169682  -0.019  10.954   5.702  1.4966 -0.3610 -1.2044
19319SOL    HW269683   0.033  11.092   5.737 -0.1582  0.0101 -0.1087
19320SOL     OW69684   1.354   0.260  11.364  0.0640 -0.0792  0.5856
19320SOL    HW169685   1.393   0.263  11.451  0.5974  2.1304  0.3080
19320SOL    HW269686   1.262   0.284  11.378 -0.3796 -1.6912  0.7440
19321SOL     OW69687   5.040   0.725  12.286 -0.2012 -0.2158 -0.0024
19321SOL    HW169688   5.097   0.801  12.273  1.1149 -1.1831 -0.0683
19321SOL    HW269689   5.067   0.689  12.370 -1.5103 -0.0471  0.5085
19322SOL     OW69690   3.024  12.751   3.357  0.1586  0.3086 -0.0297
19322SOL    HW169691   3.036  12.829   3.411  0.9038 -0.6337  1.2063
19322SOL    HW269692   3.096  12.754   3.294  1.0728 -0.1157  0.9596
19323SOL     OW69693   0.256   5.516   1.545 -0.3399  0.0156  0.1411
19323SOL    HW169694   0.332   5.556   1.503 -0.1087 -1.4126 -0.8734
19323SOL    HW269695   0.293   5.447   1.600 -0.8714 -0.5361 -0.1793
19324SOL     OW69696  10.562  10.696   8.488 -0.4663  0.3719 -0.3351
19324SOL    HW169697  10.646  10.663   8.519 -0.8000 -1.1201 -0.9280
19324SOL    HW269698  10.499  10.668   8.555 -0.7784 -0.4299 -0.9344
19325SOL     OW69699   4.415   6.608  12.529  0.1241  0.0175  0.5428
19325SOL    HW169700   4.383   6.678  12.587  2.2715  1.9367 -0.4151
19325SOL    HW269701   4.472   6.555  12.586 -0.5348 -0.2247  0.9873
19326SOL     OW69702   8.735   3.781  11.037  0.0444  0.6020  0.1587
19326SOL    HW169703   8.761   3.833  11.113 -0.9282  1.0324  0.2144
19326SOL    HW269704   8.780   3.698  11.048  1.0070  1.1436  0.4781
19327SOL     OW69705   1.887   4.316  10.470 -0.0505  0.2241 -0.7979
19327SOL    HW169706   1.823   4.262  10.518  1.8474 -0.4005  1.1913
19327SOL    HW269707   1.841   4.399  10.456 -0.5925  0.7043  2.7724
19328SOL     OW69708  11.982   9.562   1.024 -0.4960 -0.1080  0.1222
19328SOL    HW169709  12.033   9.632   0.983  1.3108 -1.7335 -0.5729
19328SOL    HW269710  11.914   9.540   0.961  0.4685 -0.6275 -0.7585
19329SOL     OW69711   6.498   1.437  11.222 -0.2248 -0.0083 -0.2181
19329SOL    HW169712   6.465   1.504  11.282  1.4417 -1.1971  2.1826
19329SOL    HW269713   6.572   1.398  11.268 -0.7561 -3.1026 -1.7536
19330SOL     OW69714  12.718   1.965   4.918  0.1303  0.0849  0.0182
19330SOL    HW169715  12.645   1.962   4.856 -0.0467  0.2742  0.2172
19330SOL    HW269716  12.717   2.055   4.952  0.3702  0.0486  0.1241
19331SOL     OW69717   8.434   6.175  10.481 -0.2138  0.0871  0.2048
19331SOL    HW169718   8.441   6.127  10.564 -0.5447 -1.3066 -0.5482
19331SOL    HW269719   8.342   6.201  10.477 -0.0231  0.8465  0.6382
19332SOL     OW69720   1.853   2.588   3.344 -0.2521 -0.5311  0.1715
19332SOL    HW169721   1.912   2.640   3.289 -2.1549  0.1978 -1.2657
19332SOL    HW269722   1.855   2.500   3.305 -1.0684 -0.1840 -0.7018
19333SOL     OW69723  13.350   5.227  12.870  0.3622 -0.2716  0.4237
19333SOL    HW169724  13.357   5.317  12.900  1.7269 -0.1910 -0.0794
19333SOL    HW269725  13.369   5.231  12.776 -1.1193 -0.8887  0.0619
19334SOL     OW69726   5.827  10.882   3.539 -0.1410  0.1599  0.0974
19334SOL    HW169727   5.803  10.848   3.452 -0.6499  1.9905 -0.5148
19334SOL    HW269728   5.887  10.816   3.574  0.9905 -0.0933 -2.1234
19335SOL     OW69729   3.578   7.138  12.624 -0.0100  0.3036 -0.5122
19335SOL    HW169730   3.661   7.159  12.581  0.1146  0.8861 -0.0071
19335SOL    HW269731   3.545   7.223  12.654  1.4972 -0.2707  3.4251
19336SOL     OW69732   3.299   4.071   1.713 -0.5844 -0.0546 -0.2629
19336SOL    HW169733   3.372   4.073   1.651 -1.5366  1.9294 -1.4136
19336SOL    HW269734   3.341   4.052   1.798  1.0825 -0.2298 -1.0847
19337SOL     OW69735   6.685   5.265   4.648 -0.4423 -0.0673 -0.0456
19337SOL    HW169736   6.778   5.260   4.626 -0.3022 -2.2241  0.7263
19337SOL    HW269737   6.640   5.244   4.566 -0.4075  2.9378 -0.9490
19338SOL     OW69738   0.963   4.006   0.246  0.1719  0.2030  0.2893
19338SOL    HW169739   1.043   3.994   0.196 -0.8726 -2.8282 -0.9005
19338SOL    HW269740   0.980   3.963   0.330 -0.8832 -2.8043 -0.8999
19339SOL     OW69741  12.479  10.819   0.374 -0.1200  0.1320  0.2341
19339SOL    HW169742  12.559  10.832   0.426 -1.8203  0.8438  2.9048
19339SOL    HW269743  12.448  10.907   0.356  0.4275 -0.1116 -2.1323
19340SOL     OW69744   8.789   3.633  10.790 -0.2730  0.6003  0.3357
19340SOL    HW169745   8.764   3.580  10.714  0.0891 -1.0912  1.3344
19340SOL    HW269746   8.725   3.704  10.791 -2.6166 -1.3494  0.4849
19341SOL     OW69747  13.108   0.497   7.156  0.0088 -0.0309 -0.0868
19341SOL    HW169748  13.122   0.488   7.250  1.1206  0.7202 -0.1605
19341SOL    HW269749  13.154   0.578   7.133 -1.7264  0.7577 -0.9778
19342SOL     OW69750   4.868  12.124   3.826 -0.5258  0.2678  0.0153
19342SOL    HW169751   4.849  12.072   3.748  1.9944 -1.0803  0.1878
19342SOL    HW269752   4.821  12.080   3.897 -0.8973  0.0628 -0.3578
19343SOL     OW69753   1.960   5.965   1.874 -0.3443  0.2906 -0.2490
19343SOL    HW169754   1.958   6.052   1.837  0.2408  0.1862 -0.5378
19343SOL    HW269755   1.892   5.966   1.942 -1.6992  0.3565 -1.5609
19344SOL     OW69756   4.084   6.499   7.698  0.6014 -0.7384  0.5834
19344SOL    HW169757   3.994   6.476   7.719 -0.4077  0.6656 -1.7811
19344SOL    HW269758   4.127   6.415   7.683 -0.2821 -1.4338  1.7435
19345SOL     OW69759   9.736  11.964  10.016 -0.0386 -0.2182  0.3437
19345SOL    HW169760   9.765  12.054  10.004 -0.9151 -0.0504 -0.7075
19345SOL    HW269761   9.766  11.918   9.937 -0.0135 -0.7264  0.6456
19346SOL     OW69762   4.199  13.554  10.473  0.6683 -0.2838  0.2215
19346SOL    HW169763   4.178  13.463  10.493  1.9461 -0.5590  0.4074
19346SOL    HW269764   4.116  13.592  10.443 -0.1393 -1.1973  1.2122
19347SOL     OW69765   7.972   0.359   9.474  0.5625  0.1444 -0.0580
19347SOL    HW169766   8.041   0.425   9.483 -1.8126  2.9905 -1.3217
19347SOL    HW269767   7.957   0.353   9.380 -0.2162 -1.2412  0.1295
19348SOL     OW69768   1.993   7.422   4.662  0.0896 -0.1371 -0.7235
19348SOL    HW169769   2.058   7.457   4.723  0.9704 -0.9530 -1.1728
19348SOL    HW269770   1.948   7.500   4.628  1.1674  0.4762 -0.7855
19349SOL     OW69771  12.227   5.660   9.233  0.7069 -0.0820  0.0327
19349SOL    HW169772  12.309   5.704   9.255  0.4106  0.7504 -0.5191
19349SOL    HW269773  12.161   5.729   9.234  0.0035 -0.7368  0.4472
19350SOL     OW69774  11.679   6.583   9.212 -0.1396  0.3815  0.2708
19350SOL    HW169775  11.747   6.545   9.268 -1.5486 -1.3089  0.9326
19350SOL    HW269776  11.632   6.644   9.270  0.0601  0.6430  0.1577
19351SOL     OW69777   0.990   7.430   3.086 -0.2682  0.1780 -0.5395
19351SOL    HW169778   0.916   7.478   3.050  0.7520  0.4104 -2.4695
19351SOL    HW269779   1.043   7.407   3.010  3.2963  2.7269  0.9117
19352SOL     OW69780   3.006   0.658   1.658  0.0155 -0.6370  0.8284
19352SOL    HW169781   2.914   0.631   1.652 -0.4291  0.6511  1.4880
19352SOL    HW269782   3.021   0.709   1.578  0.6993 -2.3100 -0.1548
19353SOL     OW69783   6.985  10.385  10.102 -0.0267  0.1736 -0.1391
19353SOL    HW169784   6.944  10.464  10.138 -2.5700 -0.8898 -0.4914
19353SOL    HW269785   6.912  10.326  10.086  1.6728 -1.7379 -1.2178
19354SOL     OW69786  11.639   4.444  10.478  0.1219 -0.0529 -0.1852
19354SOL    HW169787  11.677   4.436  10.391 -0.9437  1.3966 -0.8276
19354SOL    HW269788  11.593   4.527  10.477  0.8214  0.4511  2.0763
19355SOL     OW69789   7.828   3.694   5.588 -0.0703  0.1957  0.3452
19355SOL    HW169790   7.799   3.744   5.664 -1.0278 -0.1795  0.2337
19355SOL    HW269791   7.895   3.635   5.623 -0.1361  0.3779  0.7871
19356SOL     OW69792   6.141   6.863   9.672 -0.2502  0.2206 -0.3034
19356SOL    HW169793   6.059   6.893   9.632 -0.0504  0.9982 -0.1478
19356SOL    HW269794   6.207   6.878   9.604  0.0772  1.4710  0.2527
19357SOL     OW69795  11.886  10.918   3.412 -0.2467  0.6579 -0.2795
19357SOL    HW169796  11.964  10.913   3.468  0.1555  2.1053 -0.6863
19357SOL    HW269797  11.868  10.826   3.390 -0.0043  0.1085  1.6287
19358SOL     OW69798   9.072   6.521   9.377 -0.0323 -0.2472 -0.0128
19358SOL    HW169799   9.017   6.476   9.314 -0.0301  0.2290 -0.3601
19358SOL    HW269800   9.060   6.614   9.357  0.5758 -0.1252  0.1736
19359SOL     OW69801   8.118   8.165   9.868 -0.0382  0.4036 -0.1287
19359SOL    HW169802   8.125   8.095   9.934  0.5478  0.1915 -0.4054
19359SOL    HW269803   8.208   8.189   9.849 -0.1985  0.4654 -0.8514
19360SOL     OW69804   8.198   0.290   9.282 -0.0737  0.1689 -0.6742
19360SOL    HW169805   8.133   0.309   9.214  1.2425  0.1841 -1.9739
19360SOL    HW269806   8.282   0.289   9.236  0.7582 -0.8976  0.7672
19361SOL     OW69807   6.749   8.843   0.307 -0.5692  0.4604  0.4893
19361SOL    HW169808   6.823   8.877   0.356 -0.4790 -0.7657  1.2696
19361SOL    HW269809   6.788   8.783   0.243 -0.8928 -1.4282  1.9394
19362SOL     OW69810  13.703  13.015   2.910  0.1013  0.3264  0.4300
19362SOL    HW169811  13.740  13.102   2.898  0.3212  0.2068  0.2131
19362SOL    HW269812  13.626  13.028   2.965 -0.4857  0.8086 -0.4869
19363SOL     OW69813   6.613  11.259  13.474  0.4389  0.1700 -0.3917
19363SOL    HW169814   6.703  11.229  13.490 -0.3676 -1.4866  1.2943
19363SOL    HW269815   6.583  11.206  13.400  0.3346 -0.3724  0.0393
19364SOL     OW69816   0.764  10.174   7.843  0.0818  0.5570  0.1233
19364SOL    HW169817   0.780  10.138   7.931 -2.0574 -1.3169 -0.1602
19364SOL    HW269818   0.803  10.109   7.784 -1.2506  0.1492 -0.3437
19365SOL     OW69819   1.842   8.129  11.670  0.0645 -0.3133 -0.0370
19365SOL    HW169820   1.867   8.219  11.690 -3.1386  1.2434 -2.1693
19365SOL    HW269821   1.777   8.106  11.736 -1.1560  0.0627 -1.0601
19366SOL     OW69822   2.026   2.783   9.428 -0.7225 -0.3919 -0.2865
19366SOL    HW169823   2.110   2.739   9.439 -0.2793  0.4955  0.0219
19366SOL    HW269824   1.961   2.721   9.462 -0.4412 -1.9477 -2.4117
19367SOL     OW69825   3.196  10.571  10.407 -0.9637  0.3475  0.3241
19367SOL    HW169826   3.148  10.563  10.325 -1.8518 -0.0228  0.8710
19367SOL    HW269827   3.156  10.646  10.451 -0.1782  0.8372  0.2199
19368SOL     OW69828  10.466  10.197  12.562  0.0027  0.5420  0.6125
19368SOL    HW169829  10.496  10.144  12.636 -1.1073  0.3488  0.9404
19368SOL    HW269830  10.493  10.147  12.485  0.5040  0.3764  0.8861
19369SOL     OW69831   9.056   2.925   0.475  0.0979 -0.5836 -0.1156
19369SOL    HW169832   9.061   3.012   0.514  0.2934 -1.2218  1.3606
19369SOL    HW269833   9.147   2.902   0.456  0.1188 -0.7557  0.1846
19370SOL     OW69834  10.045  12.822   0.544  0.0888  0.3455 -0.5767
19370SOL    HW169835  10.074  12.894   0.601  3.6609 -0.7564 -0.7694
19370SOL    HW269836   9.967  12.856   0.500 -0.5514  2.6607  2.0513
19371SOL     OW69837  11.572   6.392  10.754  0.2317  0.1189  0.1700
19371SOL    HW169838  11.539   6.377  10.842  0.5985 -0.8028  0.1521
19371SOL    HW269839  11.565   6.307  10.710 -0.1477  0.6084 -0.7581
19372SOL     OW69840   2.027   5.694   0.403  0.4879  0.2477  0.1489
19372SOL    HW169841   2.039   5.658   0.315 -2.4389 -1.2833  0.2711
19372SOL    HW269842   2.100   5.659   0.454  0.9657 -0.7096 -1.1386
19373SOL     OW69843   8.014   9.712   5.653  0.4976 -0.7012 -0.1790
19373SOL    HW169844   7.959   9.634   5.654 -1.7840  0.8219  0.5437
19373SOL    HW269845   8.003   9.751   5.740  0.6926  0.9928 -0.8619
19374SOL     OW69846  13.403  13.018   0.013 -0.1314  0.1244  0.3601
19374SOL    HW169847  13.416  12.963  -0.064  1.5941  0.1287  0.6119
19374SOL    HW269848  13.341  12.969   0.067 -2.6396  0.8523 -1.6771
19375SOL     OW69849   2.476   3.958   7.169 -0.2314  0.2905  0.1274
19375SOL    HW169850   2.496   3.894   7.100 -0.4567  1.2505 -0.8638
19375SOL    HW269851   2.486   4.043   7.126 -3.3137  0.9045  0.4052
19376SOL     OW69852   4.649  11.542   6.493 -0.8256 -0.1238  0.1732
19376SOL    HW169853   4.593  11.588   6.555 -0.0229 -0.4126  1.1369
19376SOL    HW269854   4.711  11.493   6.548 -0.2867 -0.6207 -0.8494
19377SOL     OW69855  10.001  13.698   0.835 -0.5287  0.3845  0.4716
19377SOL    HW169856  10.075  13.751   0.865 -0.8845  2.5560 -2.0106
19377SOL    HW269857   9.924  13.743   0.870 -0.7826  0.7208 -0.4800
19378SOL     OW69858  11.724   0.198   0.720 -0.9278  0.3574  0.1357
19378SOL    HW169859  11.776   0.262   0.670 -1.5489  3.1103  2.7338
19378SOL    HW269860  11.786   0.130   0.744  0.2324  0.9196 -1.1316
19379SOL     OW69861   2.000   0.713  10.439 -0.6907  0.4693  0.4004
19379SOL    HW169862   2.093   0.710  10.463 -0.1305  0.2818 -1.5995
19379SOL    HW269863   1.987   0.634  10.386 -2.1487  0.2100  1.1012
19380SOL     OW69864   5.930   0.258   7.027  0.3482 -1.1590 -0.1902
19380SOL    HW169865   6.024   0.241   7.030  0.5932  0.1973  1.4828
19380SOL    HW269866   5.905   0.270   7.119 -1.5583 -1.9503 -0.5746
19381SOL     OW69867   0.243   4.143  10.962  0.6900 -0.2113 -0.4414
19381SOL    HW169868   0.254   4.071  11.025  1.9550  0.0043 -0.4083
19381SOL    HW269869   0.164   4.119  10.914 -2.2222  1.0814  3.1557
19382SOL     OW69870   1.507   4.071   6.775 -0.4206  0.7512 -0.0643
19382SOL    HW169871   1.549   4.063   6.861 -0.0693  1.3684 -0.1706
19382SOL    HW269872   1.573   4.041   6.713  0.0850  2.2134 -0.2743
19383SOL     OW69873   9.113   3.319   9.965  0.1517  0.5447 -0.7024
19383SOL    HW169874   9.196   3.320  10.014  0.7751  0.1890 -1.7226
19383SOL    HW269875   9.135   3.354   9.879 -0.5895 -0.2839 -1.2510
19384SOL     OW69876   7.091   5.763   6.927  0.4004  0.6621 -0.1211
19384SOL    HW169877   7.082   5.850   6.887  0.5929  0.7697  0.0634
19384SOL    HW269878   7.134   5.710   6.860  1.4338  1.0511  0.2213
19385SOL     OW69879  12.061   7.728  11.499  0.3140  0.0170  0.3282
19385SOL    HW169880  11.993   7.778  11.542  0.8681 -0.0386  1.3047
19385SOL    HW269881  12.135   7.788  11.492  0.7771 -0.4621  0.9597
19386SOL     OW69882   6.140   1.528   0.909  0.0569 -0.6364  0.7419
19386SOL    HW169883   6.110   1.563   0.993 -0.4115  0.6266  0.0757
19386SOL    HW269884   6.233   1.551   0.906 -0.1903  0.3638  0.4222
19387SOL     OW69885   6.033  11.479   7.555  0.4993 -0.5010  0.0324
19387SOL    HW169886   6.048  11.549   7.492  0.8114 -0.9729 -0.4257
19387SOL    HW269887   5.958  11.431   7.521  0.1658 -0.2809  0.4473
19388SOL     OW69888   0.278  12.472   1.026  0.1635 -0.7448  0.2500
19388SOL    HW169889   0.330  12.552   1.014  2.7237 -2.1922  0.7482
19388SOL    HW269890   0.228  12.487   1.106  2.4286 -0.4097  1.7271
19389SOL     OW69891  10.218   8.660  12.597 -0.3597  0.2286 -0.2264
19389SOL    HW169892  10.245   8.745  12.562  0.6632  0.2219  0.5063
19389SOL    HW269893  10.281   8.598  12.560  1.0970  0.2837  1.9194
19390SOL     OW69894   3.531   7.393   4.856  0.2285  0.0406  0.6537
19390SOL    HW169895   3.496   7.425   4.939 -0.1511 -1.7616  1.2407
19390SOL    HW269896   3.585   7.318   4.880  0.2161 -0.4341 -0.7093
19391SOL     OW69897  13.670  10.661   9.393  0.3732 -0.4116  0.3207
19391SOL    HW169898  13.682  10.729   9.327  0.8015  0.2456  1.0534
19391SOL    HW269899  13.714  10.584   9.357 -1.4869 -0.8125 -1.2434
19392SOL     OW69900   2.592  10.316   0.246 -0.2632 -0.2114 -0.0773
19392SOL    HW169901   2.605  10.376   0.173 -0.5270 -0.7217 -0.5567
19392SOL    HW269902   2.645  10.239   0.224 -1.7263 -1.1046 -0.6352
19393SOL     OW69903   3.358   3.542  10.064  0.2852  0.3143  0.2341
19393SOL    HW169904   3.263   3.545  10.068  0.2707 -0.3235  0.5000
19393SOL    HW269905   3.387   3.610  10.125  0.0115  1.5864 -1.0055
19394SOL     OW69906   0.638  10.122   4.023 -0.5482  0.2978  0.1294
19394SOL    HW169907   0.685  10.194   4.064  1.2378 -0.0154 -1.2642
19394SOL    HW269908   0.626  10.149   3.932 -0.8429 -0.6873 -0.1421
19395SOL     OW69909   4.438   1.503  13.424  0.1057 -0.6146 -0.0556
19395SOL    HW169910   4.384   1.504  13.503  0.1379 -2.1973  0.0171
19395SOL    HW269911   4.489   1.584  13.429  1.1648 -1.3314  2.2999
19396SOL     OW69912  10.285  11.862   4.749  0.1429 -0.0081  0.5004
19396SOL    HW169913  10.330  11.891   4.670 -0.3944 -0.2405  0.0995
19396SOL    HW269914  10.267  11.942   4.798 -0.3553  0.2394 -0.0687
19397SOL     OW69915   2.317   8.159   9.119  0.3113 -0.4947  0.0827
19397SOL    HW169916   2.329   8.075   9.162 -1.2381 -0.9111 -0.2204
19397SOL    HW269917   2.229   8.154   9.082  0.8105  0.6485 -1.3369
19398SOL     OW69918  11.432   1.703   7.703  0.0012  0.0967 -0.1411
19398SOL    HW169919  11.511   1.672   7.748 -0.2255  1.8002  1.5470
19398SOL    HW269920  11.447   1.797   7.690 -1.2533  0.2081 -0.9108
19399SOL     OW69921   0.392   1.363   7.251  0.2353 -0.0928  0.3287
19399SOL    HW169922   0.352   1.420   7.317  0.5763  1.4202 -0.7390
19399SOL    HW269923   0.326   1.355   7.183  1.4084  1.8692 -1.1307
19400SOL     OW69924   9.513   4.796  11.063  0.0257  0.3539  0.0548
19400SOL    HW169925   9.602   4.785  11.095  0.8996  2.9236 -1.2241
19400SOL    HW269926   9.520   4.785  10.968 -0.9699  0.8382 -0.0887
19401SOL     OW69927  11.681  10.996  13.609  0.0417 -0.4066  0.3178
19401SOL    HW169928  11.640  11.008  13.695  1.8796 -0.5791  1.2468
19401SOL    HW269929  11.723  11.080  13.591 -0.1611 -0.4383 -0.3255
19402SOL     OW69930   2.928   0.022   7.804 -0.2450 -0.5917  0.2693
19402SOL    HW169931   3.001   0.039   7.745 -0.2893  1.0045  0.6397
19402SOL    HW269932   2.958  -0.052   7.857  0.7333 -0.5457 -0.1909
19403SOL     OW69933  10.179  11.466  12.194  0.0102  0.1969  0.1364
19403SOL    HW169934  10.122  11.419  12.254  0.5247  2.3730  2.5261
19403SOL    HW269935  10.267  11.434  12.213  0.1741  0.8696  0.5317
19404SOL     OW69936  10.249  11.077   7.512 -0.1318  0.7123  0.8070
19404SOL    HW169937  10.167  11.125   7.504 -0.5598 -0.2024 -0.7189
19404SOL    HW269938  10.267  11.075   7.606 -0.4824  3.1412  0.9966
19405SOL     OW69939   9.304  13.263  13.673 -0.4293 -0.3235 -0.1724
19405SOL    HW169940   9.268  13.279  13.760  0.0394  1.1522 -0.2083
19405SOL    HW269941   9.274  13.176  13.649  2.3296 -2.3590  2.9066
19406SOL     OW69942   2.473   8.397  12.827 -0.1039 -0.0367 -0.2417
19406SOL    HW169943   2.451   8.397  12.920  0.5070 -0.2129 -0.0946
19406SOL    HW269944   2.561   8.435  12.823 -0.8396  1.7218 -0.9235
19407SOL     OW69945  12.432   7.383   2.918 -0.0801 -0.3301 -0.4223
19407SOL    HW169946  12.347   7.366   2.876  0.7125 -1.8557 -1.5299
19407SOL    HW269947  12.488   7.311   2.888  1.3506  0.1140  1.0393
19408SOL     OW69948   4.878   7.831   6.801  0.5443  0.4112 -0.3376
19408SOL    HW169949   4.900   7.800   6.714 -0.9847  0.7813 -0.8948
19408SOL    HW269950   4.792   7.793   6.819  0.8999  0.2043  1.0884
19409SOL     OW69951   5.825   3.696   6.592  0.6459 -0.2991  0.0993
19409SOL    HW169952   5.860   3.764   6.649 -0.4156 -0.6575  1.2108
19409SOL    HW269953   5.746   3.734   6.554 -0.1741 -0.9990  1.0301
19410SOL     OW69954   2.150   8.473   1.664 -0.3531  0.6268  0.0030
19410SOL    HW169955   2.114   8.390   1.696 -1.1368  1.2382  0.7794
19410SOL    HW269956   2.118   8.480   1.574 -0.9460  0.4515  0.1911
19411SOL     OW69957  13.614  11.860  12.483 -0.1440 -0.0156  0.6651
19411SOL    HW169958  13.657  11.878  12.399  1.7237 -0.2389  1.5269
19411SOL    HW269959  13.539  11.919  12.484 -0.9260 -0.8367 -1.6544
19412SOL     OW69960  12.861   5.537   5.227  0.0692  0.0460  0.0798
19412SOL    HW169961  12.914   5.584   5.163  1.3244  0.2132  1.2010
19412SOL    HW269962  12.921   5.474   5.266 -0.7559 -0.2626  0.8798
19413SOL     OW69963   4.413  13.338   3.065  0.2644 -0.2046 -0.5414
19413SOL    HW169964   4.453  13.251   3.058 -0.6162 -0.6233 -0.6170
19413SOL    HW269965   4.396  13.350   3.158  1.6208  0.4828 -0.3636
19414SOL     OW69966   2.515  13.313   2.625 -0.0612 -0.5602  0.6964
19414SOL    HW169967   2.530  13.393   2.575 -1.3797  0.5827  2.0353
19414SOL    HW269968   2.443  13.270   2.579  0.5112 -0.8893  0.0941
19415SOL     OW69969   6.152  12.740   2.161  0.0012  0.3143 -0.3691
19415SOL    HW169970   6.239  12.723   2.124  0.3001  0.3009  0.3392
19415SOL    HW269971   6.121  12.654   2.189 -0.2369  0.3217 -0.6107
19416SOL     OW69972   5.236  11.888   8.524  0.0158 -0.0501  0.4806
19416SOL    HW169973   5.144  11.867   8.537 -0.3661 -0.9903 -2.7757
19416SOL    HW269974   5.261  11.839   8.445  2.9708  1.1192  0.5543
19417SOL     OW69975   2.459   8.300   1.660 -0.1899 -0.1126  0.1922
19417SOL    HW169976   2.518   8.252   1.602 -0.8640  0.8026 -1.2968
19417SOL    HW269977   2.371   8.273   1.634 -0.4972 -0.6975  1.7148
19418SOL     OW69978   8.639   1.474   1.337  0.0310 -0.7012 -0.0290
19418SOL    HW169979   8.721   1.427   1.351 -0.0483 -0.6614  0.6253
19418SOL    HW269980   8.598   1.430   1.264  1.0337 -0.1846 -0.9405
19419SOL     OW69981   3.588   6.974   5.755  0.1826 -0.2157  0.4277
19419SOL    HW169982   3.640   7.009   5.827 -0.5772 -0.0362  0.9022
19419SOL    HW269983   3.505   6.949   5.796 -1.4270  2.5769 -0.8515
19420SOL     OW69984   3.838  10.400   8.963 -0.0742 -0.6637  0.4711
19420SOL    HW169985   3.802  10.433   9.045  1.7597 -1.3808  1.6371
19420SOL    HW269986   3.888  10.473   8.928  0.4551 -0.8386  0.8413
19421SOL     OW69987  13.182   6.396   6.022  0.1108  0.2183 -0.0427
19421SOL    HW169988  13.237   6.355   5.955  0.2648  0.9212 -0.3585
19421SOL    HW269989  13.222   6.369   6.105  0.5299  0.1646 -0.2580
19422SOL     OW69990   7.895   0.283   1.309 -0.1323 -0.5643  0.6580
19422SOL    HW169991   7.800   0.275   1.317 -0.0979 -1.3075  0.4285
19422SOL    HW269992   7.930   0.230   1.382  0.1154 -2.7147 -0.9121
19423SOL     OW69993   7.148   7.375   0.677 -0.3849 -0.6490 -0.2582
19423SOL    HW169994   7.066   7.404   0.636  0.5394  0.2724 -1.5125
19423SOL    HW269995   7.205   7.352   0.604  0.3736 -1.6138  0.6167
19424SOL     OW69996  12.152   8.601   6.449 -0.0330  0.2850  0.1770
19424SOL    HW169997  12.189   8.587   6.362 -0.4463 -0.4122  0.1061
19424SOL    HW269998  12.223   8.580   6.510  0.0689  0.1705  0.0174
19425SOL     OW69999  10.803  13.313   3.270 -0.4612 -0.4426  0.0374
19425SOL    HW170000  10.898  13.319   3.281 -0.3331 -0.1759 -1.1182
19425SOL    HW270001  10.769  13.387   3.321 -0.2660 -2.0160  2.6018
19426SOL     OW70002   0.359   3.814  12.695  0.2221  0.5858  0.0597
19426SOL    HW170003   0.386   3.844  12.608  1.8493 -1.2163 -0.1224
19426SOL    HW270004   0.381   3.721  12.696 -4.3846 -0.7845  0.6254
19427SOL     OW70005   0.097   0.272   8.222 -0.1614  0.1548  0.4282
19427SOL    HW170006   0.009   0.246   8.194  0.9254 -0.4310 -2.9370
19427SOL    HW270007   0.145   0.189   8.227  0.7982  0.6562 -0.2339
19428SOL     OW70008   6.755   7.523   7.149  0.3710 -0.5109 -0.3847
19428SOL    HW170009   6.663   7.552   7.153  1.0877  1.8440  2.2637
19428SOL    HW270010   6.783   7.546   7.060 -0.7208  2.0139 -0.1785
19429SOL     OW70011  10.354   5.347   3.843  0.4551  0.0865  0.1794
19429SOL    HW170012  10.439   5.310   3.869  0.6469  0.4927  0.1422
19429SOL    HW270013  10.376   5.411   3.774 -0.1667 -2.2294 -2.3578
19430SOL     OW70014   2.495   3.167  10.102 -0.0382 -0.2312  0.1950
19430SOL    HW170015   2.508   3.197  10.012 -0.5768 -0.3955  0.0538
19430SOL    HW270016   2.573   3.195  10.149 -0.9379  2.3343  0.3289
19431SOL     OW70017   7.623   9.267   1.446  0.3991  0.1357  0.3284
19431SOL    HW170018   7.681   9.236   1.516  1.1431 -0.4568 -0.5307
19431SOL    HW270019   7.627   9.363   1.452  1.7922  0.1146  0.0331
19432SOL     OW70020   8.309   0.772   1.170 -0.2681 -0.6357 -0.0270
19432SOL    HW170021   8.364   0.706   1.128  0.4988 -0.6119  0.9200
19432SOL    HW270022   8.304   0.843   1.106 -0.4166 -1.2559 -0.7147
19433SOL     OW70023  10.216   7.251   5.722 -0.0307  0.6835 -0.0053
19433SOL    HW170024  10.180   7.191   5.656 -0.9032  0.4533  0.6568
19433SOL    HW270025  10.289   7.294   5.678 -0.7168  0.6854 -1.2002
19434SOL     OW70026   1.532   4.989   5.495  0.0791 -0.0483  1.0446
19434SOL    HW170027   1.528   4.909   5.547 -1.9350 -2.3406 -2.2625
19434SOL    HW270028   1.626   5.006   5.486  0.7695 -3.5378 -0.0773
19435SOL     OW70029   9.312   8.321   6.481  0.0398 -0.5371  0.1825
19435SOL    HW170030   9.370   8.331   6.556 -1.2575  0.4314  1.1153
19435SOL    HW270031   9.235   8.276   6.516  0.3352 -2.1444 -1.1088
19436SOL     OW70032  10.460  11.264   1.499  0.0690  0.3526  0.1430
19436SOL    HW170033  10.435  11.221   1.580  0.0410  0.4647  0.1947
19436SOL    HW270034  10.421  11.211   1.430 -2.5289  1.9096  0.2812
19437SOL     OW70035   4.826   3.056   4.152  0.0962 -0.0556 -0.5769
19437SOL    HW170036   4.869   3.124   4.100 -0.0833  0.2384 -0.3487
19437SOL    HW270037   4.778   3.105   4.219  0.1786 -0.4224 -0.2509
19438SOL     OW70038   7.067   8.244  12.229 -0.0110  0.7701  0.0303
19438SOL    HW170039   7.034   8.163  12.190  2.7244 -0.2527 -0.4100
19438SOL    HW270040   7.002   8.310  12.206 -3.1109 -1.4678  1.5978
19439SOL     OW70041   7.112   8.581   7.584 -0.3771  0.0268 -0.5184
19439SOL    HW170042   7.187   8.612   7.636 -0.9076  1.3056 -0.4725
19439SOL    HW270043   7.136   8.492   7.558  0.8600  0.1627  0.0686
19440SOL     OW70044  11.435  12.389  13.631  0.0685 -0.7120 -0.2730
19440SOL    HW170045  11.376  12.385  13.706  0.2886  2.5614  0.1793
19440SOL    HW270046  11.522  12.369  13.666  0.0683  0.1355  0.2140
19441SOL     OW70047   0.767   6.338   0.282  0.1094  0.1366 -0.6449
19441SOL    HW170048   0.788   6.297   0.198  0.5746 -0.1766 -0.3817
19441SOL    HW270049   0.780   6.268   0.346  2.3607  1.0639 -0.0228
19442SOL     OW70050  11.557   3.462   9.307 -0.3517 -0.1081 -0.4352
19442SOL    HW170051  11.629   3.440   9.366 -0.4193 -1.0242 -0.6728
19442SOL    HW270052  11.559   3.557   9.300  0.8944 -0.1312 -0.5182
19443SOL     OW70053   2.824  11.214   0.138  0.5196  0.2742  0.7142
19443SOL    HW170054   2.821  11.214   0.043  0.4367  0.7511  0.7124
19443SOL    HW270055   2.874  11.135   0.161 -2.3163 -1.7718  0.3868
19444SOL     OW70056   0.953   2.381   5.702  0.3631  0.3144 -0.0595
19444SOL    HW170057   0.862   2.410   5.709  0.2528 -0.1896  0.8111
19444SOL    HW270058   1.000   2.432   5.768  0.1721 -1.3437  1.4664
19445SOL     OW70059   4.342  13.428   5.522  0.1082 -0.1314  0.3204
19445SOL    HW170060   4.423  13.387   5.492  0.1760  0.5662 -0.5065
19445SOL    HW270061   4.312  13.373   5.594  0.5454 -1.2281 -0.3114
19446SOL     OW70062   4.151   9.896  12.993 -0.6121 -0.0728  0.4641
19446SOL    HW170063   4.068   9.901  13.041 -0.5010 -0.8938  0.7566
19446SOL    HW270064   4.208   9.843  13.048 -0.2436 -0.4222 -0.2383
19447SOL     OW70065   0.906   6.468  12.467 -0.2405 -0.1666  0.3268
19447SOL    HW170066   0.836   6.461  12.401  0.0183 -2.5251  0.2337
19447SOL    HW270067   0.987   6.460  12.416  0.0244 -0.0230  0.7249
19448SOL     OW70068   3.357   9.272   6.021 -0.0756  0.6914  0.3092
19448SOL    HW170069   3.396   9.248   5.937 -1.2310 -0.8135  0.1696
19448SOL    HW270070   3.420   9.333   6.060  1.7584 -0.6206 -0.4714
19449SOL     OW70071   8.068   8.144   2.856 -0.7238 -0.3539  0.1528
19449SOL    HW170072   8.146   8.100   2.890 -0.4184 -0.2528 -0.4100
19449SOL    HW270073   8.079   8.144   2.761 -0.1109  1.9600  0.1482
19450SOL     OW70074   5.083   6.863   6.054  0.1253 -0.3633  0.1015
19450SOL    HW170075   5.110   6.878   5.964 -1.0437  0.9025 -0.0856
19450SOL    HW270076   5.061   6.770   6.058  0.4826 -0.4995 -0.8365
19451SOL     OW70077   0.822   3.435   7.528  0.2178 -0.2151  0.1237
19451SOL    HW170078   0.780   3.505   7.477 -0.0205  0.5065  1.2603
19451SOL    HW270079   0.753   3.403   7.586  0.7842 -0.2008  0.8176
19452SOL     OW70080  12.701   9.411   8.056 -0.1652 -0.1502  0.5455
19452SOL    HW170081  12.771   9.357   8.092 -0.4670 -0.7706  0.2093
19452SOL    HW270082  12.729   9.430   7.966 -0.5052 -0.5470  0.3523
19453SOL     OW70083  11.582   9.833   1.669  0.3461 -0.3394 -0.1529
19453SOL    HW170084  11.557   9.825   1.577 -0.1436 -1.4015  0.0585
19453SOL    HW270085  11.508   9.796   1.718 -0.0216  1.5111  0.7525
19454SOL     OW70086  10.379   8.769   4.124 -0.3261 -0.2468 -0.0887
19454SOL    HW170087  10.442   8.813   4.182 -0.0895  0.8383 -1.1344
19454SOL    HW270088  10.294   8.782   4.167 -0.1984  0.8583 -0.1364
19455SOL     OW70089   3.199   0.690  10.887  0.0387 -0.6407 -0.0849
19455SOL    HW170090   3.107   0.682  10.912  0.2143 -2.4089  0.0916
19455SOL    HW270091   3.231   0.764  10.939 -1.4553  0.5294 -0.7518
19456SOL     OW70092   5.795   9.264   7.490  0.0673  0.1571  0.5073
19456SOL    HW170093   5.702   9.255   7.508  0.2714 -0.6012  1.2194
19456SOL    HW270094   5.802   9.253   7.395 -0.8166  2.5490  0.1085
19457SOL     OW70095  10.094   1.434   4.901  0.7380 -0.3530 -0.3046
19457SOL    HW170096  10.073   1.359   4.958 -0.4643  0.3984  0.2993
19457SOL    HW270097  10.165   1.479   4.946  1.5494 -1.1628 -0.7283
19458SOL     OW70098  11.260   6.549   1.597 -0.1805 -0.1784  0.0650
19458SOL    HW170099  11.256   6.489   1.523 -0.5643 -1.3397  1.0011
19458SOL    HW270100  11.333   6.608   1.576 -0.0626 -0.7007 -1.0573
19459SOL     OW70101   9.770   7.630  10.986 -0.1847 -0.1402  0.6345
19459SOL    HW170102   9.758   7.621  11.081 -1.3893  1.7343  0.7255
19459SOL    HW270103   9.835   7.700  10.977 -0.7297  0.3159  0.1097
19460SOL     OW70104   4.146  10.069   6.933 -0.1103  0.1309 -0.7736
19460SOL    HW170105   4.071  10.066   6.873  0.2459  0.3561 -1.2354
19460SOL    HW270106   4.122  10.135   6.998 -0.5344 -0.1734 -0.6152
19461SOL     OW70107   8.973   8.602  12.011  0.0138  0.8564  0.0294
19461SOL    HW170108   9.034   8.623  12.082 -1.0356  0.0026  1.2355
19461SOL    HW270109   8.981   8.675  11.950 -0.0168  2.3088  1.6859
19462SOL     OW70110   4.550  10.266   2.349  0.4571 -0.5347  0.1095
19462SOL    HW170111   4.535  10.348   2.395 -0.4064 -1.2108  1.0890
19462SOL    HW270112   4.608  10.289   2.276  0.3119  0.9049  0.4240
19463SOL     OW70113   1.607  12.650  13.676 -0.0283 -0.2368 -1.4093
19463SOL    HW170114   1.562  12.631  13.759  1.2526 -0.9266 -0.8489
19463SOL    HW270115   1.628  12.563  13.641  2.4280  0.0307 -0.7666
19464SOL     OW70116   7.144   8.454   4.761 -0.3154  0.3142 -0.0526
19464SOL    HW170117   7.099   8.475   4.842  1.3674  1.3384  0.6557
19464SOL    HW270118   7.205   8.527   4.747  0.5929 -0.6415 -1.3483
19465SOL     OW70119   9.537   6.259   4.092 -0.0476 -0.3550 -0.5575
19465SOL    HW170120   9.512   6.197   4.160 -0.9690 -0.9634 -1.4256
19465SOL    HW270121   9.493   6.341   4.115  0.6065 -0.2101  0.2089
19466SOL     OW70122   8.384   0.226   0.298  0.2807  0.3663 -0.0140
19466SOL    HW170123   8.352   0.137   0.312 -0.8045  0.6946 -0.2838
19466SOL    HW270124   8.336   0.256   0.220  0.3800  1.3001  0.2743
19467SOL     OW70125  12.222   8.748  10.224  0.1517  0.5544  0.3675
19467SOL    HW170126  12.149   8.796  10.184  0.6864  1.6707  0.6690
19467SOL    HW270127  12.184   8.664  10.250 -0.6835  0.5697 -0.6974
19468SOL     OW70128   6.593  13.714   9.380 -0.3602 -0.4215 -0.3703
19468SOL    HW170129   6.628  13.693   9.466  3.5727  0.8486 -1.4892
19468SOL    HW270130   6.582  13.629   9.337  1.0301 -0.9164  0.2122
19469SOL     OW70131   9.478   9.820   6.352 -0.2461  0.0444 -0.1988
19469SOL    HW170132   9.430   9.820   6.435  2.2361  1.7117  1.3721
19469SOL    HW270133   9.546   9.754   6.363  1.3976  1.7003 -0.0016
19470SOL     OW70134   9.486   3.851  13.233  0.2367 -0.0809  0.2409
19470SOL    HW170135   9.569   3.809  13.258 -0.5778 -1.0493  1.4760
19470SOL    HW270136   9.489   3.937  13.276  0.3692 -0.3458  0.7795
19471SOL     OW70137   8.559  10.332   7.996 -0.0006  0.2972 -0.0140
19471SOL    HW170138   8.568  10.262   8.061 -0.5537 -0.1568 -0.4219
19471SOL    HW270139   8.482  10.382   8.025 -0.6487 -0.3009 -0.6792
19472SOL     OW70140   3.209   6.245   7.023 -0.5913 -0.2433 -0.1930
19472SOL    HW170141   3.251   6.231   6.938  0.6826  1.3387  0.1156
19472SOL    HW270142   3.152   6.321   7.009 -1.7598 -1.0708 -0.0584
19473SOL     OW70143  11.829  10.488  13.031  0.2494 -0.2075 -0.8243
19473SOL    HW170144  11.845  10.409  13.083 -1.0689 -1.1905 -1.8587
19473SOL    HW270145  11.901  10.490  12.969  0.7136 -0.1600 -0.2919
19474SOL     OW70146  12.535  13.525   9.833  0.4962  0.4385 -0.2936
19474SOL    HW170147  12.530  13.524   9.928  0.1068 -0.8637 -0.2961
19474SOL    HW270148  12.558  13.435   9.810  1.7041  1.0029 -1.3872
19475SOL     OW70149   6.917  10.376   2.429  0.0895 -0.2267  0.0271
19475SOL    HW170150   6.864  10.298   2.446  0.0233 -0.0056  0.8764
19475SOL    HW270151   6.978  10.349   2.360  0.0028 -1.0024  0.2444
19476SOL     OW70152  11.039   7.651   6.963  0.0893 -0.2997  0.2489
19476SOL    HW170153  11.027   7.652   7.058  0.9554 -1.1624  0.3767
19476SOL    HW270154  11.006   7.736   6.934  1.8535  0.9203  1.5862
19477SOL     OW70155  13.647   3.600   7.631  0.0675  0.3051 -0.8488
19477SOL    HW170156  13.737   3.630   7.619 -0.1407  0.6631 -1.6109
19477SOL    HW270157  13.628   3.618   7.723  1.2677 -1.1926 -0.2639
19478SOL     OW70158   3.818   2.934  13.409  0.3611  0.0925 -0.2665
19478SOL    HW170159   3.887   2.883  13.451 -0.4370 -0.8437 -0.0724
19478SOL    HW270160   3.809   3.012  13.464  1.9232  0.7015 -0.8364
19479SOL     OW70161   2.290  10.918   1.490 -0.1332  0.2405  0.1388
19479SOL    HW170162   2.352  10.935   1.419 -0.9704 -1.8907 -1.2073
19479SOL    HW270163   2.339  10.938   1.570  1.5097  0.7987 -0.9508
19480SOL     OW70164   6.512   8.066  12.854 -0.0162 -0.5097  0.5110
19480SOL    HW170165   6.580   8.025  12.907 -0.6410 -1.2107  0.8077
19480SOL    HW270166   6.460   7.992  12.821  0.7639 -0.1519 -1.6864
19481SOL     OW70167  10.756   9.599  10.122 -0.4305 -0.0979  0.3787
19481SOL    HW170168  10.662   9.591  10.134 -0.5122 -0.2396 -0.3606
19481SOL    HW270169  10.792   9.521  10.163 -0.5123  0.6596  1.9763
19482SOL     OW70170   8.959   4.674   8.237 -0.4141 -0.1870  0.4532
19482SOL    HW170171   8.867   4.671   8.211 -0.5791 -0.2113  1.0351
19482SOL    HW270172   8.972   4.763   8.271 -0.0002  0.0995 -0.4168
19483SOL     OW70173   4.126   5.756   0.093 -0.0262 -0.2145 -0.0803
19483SOL    HW170174   4.041   5.722   0.121 -0.0779  1.4329  1.9349
19483SOL    HW270175   4.117   5.851   0.098  1.5090  0.0380 -1.2596
19484SOL     OW70176   7.471  10.932   6.334  0.1781 -0.1097 -0.1710
19484SOL    HW170177   7.559  10.904   6.311  0.2991  0.2147 -0.1079
19484SOL    HW270178   7.481  10.982   6.414  0.5000  3.0282 -1.9888
19485SOL     OW70179   7.710   7.904   7.248  0.6319  0.7513 -0.1980
19485SOL    HW170180   7.769   7.977   7.269  0.6310  1.4006 -2.2608
19485SOL    HW270181   7.661   7.934   7.171  0.1802 -1.1851 -0.7097
19486SOL     OW70182   5.107   9.916  12.294  0.2170 -0.4784  0.5382
19486SOL    HW170183   5.117   9.997  12.345 -0.7168 -0.7500  1.1891
19486SOL    HW270184   5.013   9.897  12.298 -0.2198  0.4193 -2.7609
19487SOL     OW70185   0.446  11.643   0.877 -0.0035 -0.4637 -0.7361
19487SOL    HW170186   0.416  11.562   0.918  1.1869 -0.1114  0.9574
19487SOL    HW270187   0.541  11.643   0.891  0.1040  0.9144 -1.2839
19488SOL     OW70188   8.684   3.650   2.373 -0.6804 -0.0116  0.1209
19488SOL    HW170189   8.704   3.609   2.457 -1.7750 -0.2376  0.2829
19488SOL    HW270190   8.614   3.597   2.336  0.2482 -0.3198 -1.2578
19489SOL     OW70191   8.221  12.230   4.022 -0.3624  0.1592 -0.5395
19489SOL    HW170192   8.162  12.302   4.002 -0.2606  0.1393 -0.9263
19489SOL    HW270193   8.203  12.164   3.955  0.8179  0.5835 -1.3067
19490SOL     OW70194   0.587   4.931   7.903  0.0147  0.2166 -0.2304
19490SOL    HW170195   0.667   4.879   7.902  1.0689  1.7659  0.8720
19490SOL    HW270196   0.561   4.935   7.995 -1.0988  0.1183 -0.5171
19491SOL     OW70197  12.992   8.406   4.901 -0.2279  0.0985  0.3351
19491SOL    HW170198  12.999   8.341   4.972 -0.3627 -0.6089 -0.2893
19491SOL    HW270199  13.008   8.356   4.821 -3.5923  0.1085 -0.4900
19492SOL     OW70200   6.578   4.351   8.535 -0.3394  0.4310 -0.5587
19492SOL    HW170201   6.592   4.430   8.586  1.3534  0.4578 -1.0083
19492SOL    HW270202   6.604   4.375   8.446  0.2153 -0.6053 -0.6942
19493SOL     OW70203  13.042   6.159   5.304  0.1235  0.2180  0.3065
19493SOL    HW170204  12.950   6.157   5.277  0.0334  0.3182  0.6047
19493SOL    HW270205  13.091   6.150   5.222 -0.1424  1.3066  0.0026
19494SOL     OW70206   5.415   7.869   7.217  0.8083 -0.4513 -0.3478
19494SOL    HW170207   5.406   7.888   7.310  0.9734  2.3405 -0.8148
19494SOL    HW270208   5.335   7.903   7.177  1.8105  0.6821 -1.4749
19495SOL     OW70209   8.707   6.185  12.708 -0.1529 -0.0834  0.0214
19495SOL    HW170210   8.694   6.277  12.682 -0.1182  0.7431  2.5991
19495SOL    HW270211   8.622   6.144  12.691 -0.2157  0.4434 -1.0395
19496SOL     OW70212  13.671   5.373  11.480  0.3936 -0.6382 -0.3064
19496SOL    HW170213  13.635   5.363  11.568  0.1241  1.1887 -0.1629
19496SOL    HW270214  13.758   5.412  11.494 -0.2307  1.0616 -0.8453
19497SOL     OW70215   3.194  12.743   8.720  0.5564 -0.7330  0.5480
19497SOL    HW170216   3.253  12.815   8.700  0.7240 -1.2800 -1.0722
19497SOL    HW270217   3.233  12.666   8.678 -1.2606 -1.1169 -0.5914
19498SOL     OW70218   1.860   5.065   0.397 -0.0053 -0.0097 -0.3626
19498SOL    HW170219   1.802   5.133   0.364 -0.9253 -1.0719 -1.0216
19498SOL    HW270220   1.805   5.012   0.454  0.2209 -1.1611 -1.1716
19499SOL     OW70221   5.698  10.873   0.434  0.1687  0.3676  0.0944
19499SOL    HW170222   5.617  10.850   0.480 -0.0407  1.0898  0.0917
19499SOL    HW270223   5.743  10.933   0.493  1.6818 -1.5359  1.0112
19500SOL     OW70224   9.167  11.310   4.373  0.4208  0.6385  0.0090
19500SOL    HW170225   9.109  11.315   4.297  0.4203 -1.4415 -0.1757
19500SOL    HW270226   9.108  11.305   4.448  0.3729  0.2597 -0.0508
19501SOL     OW70227   6.872   6.513   7.359 -0.1307  0.0162  0.7146
19501SOL    HW170228   6.789   6.472   7.384 -0.1043  0.4903  1.6012
19501SOL    HW270229   6.932   6.492   7.430  0.4603 -0.1320  0.1862
19502SOL     OW70230   9.895   4.579   8.519  0.1675  0.1532 -0.4191
19502SOL    HW170231   9.852   4.645   8.572 -0.0970 -1.5223  1.6175
19502SOL    HW270232   9.987   4.583   8.545  0.2804  0.1974 -0.8176
19503SOL     OW70233   1.353  13.540   0.091 -0.1049 -0.2141 -0.1376
19503SOL    HW170234   1.389  13.472   0.148  0.7590 -0.7948 -1.3202
19503SOL    HW270235   1.285  13.583   0.143 -0.6172 -1.9365  0.6623
19504SOL     OW70236  13.138   7.391   4.299  0.0522 -0.6434 -0.6785
19504SOL    HW170237  13.182   7.325   4.352 -1.2694 -0.3622  0.8550
19504SOL    HW270238  13.208   7.450   4.271  0.8068 -0.7346  0.8844
19505SOL     OW70239   7.203   1.116   5.544 -0.5477 -0.4481  0.6247
19505SOL    HW170240   7.182   1.058   5.617 -0.2809 -0.0406  1.0272
19505SOL    HW270241   7.163   1.074   5.468 -0.0290 -1.3562  0.8435
19506SOL     OW70242   7.849  10.167   1.117 -0.4609  0.1484  0.0364
19506SOL    HW170243   7.857  10.185   1.024 -1.0375  0.5472  0.0555
19506SOL    HW270244   7.852  10.253   1.159  0.3541 -0.0609  0.4409
19507SOL     OW70245   6.634  10.994   0.796 -0.0385  0.3686  0.5285
19507SOL    HW170246   6.726  11.011   0.817  0.0824  2.1921 -1.1083
19507SOL    HW270247   6.624  10.900   0.806  1.5690  0.3252  2.3005
19508SOL     OW70248  13.277  10.414   4.334  0.3759  0.3632 -0.5683
19508SOL    HW170249  13.315  10.326   4.341 -0.3060  0.1772  1.1550
19508SOL    HW270250  13.201  10.412   4.391 -1.1519  1.3323 -2.4510
19509SOL     OW70251   7.538   5.020   9.184 -0.0274  0.2060 -0.0820
19509SOL    HW170252   7.597   5.077   9.234  0.9254 -2.7000  2.3912
19509SOL    HW270253   7.596   4.959   9.139 -1.0533 -0.1166 -0.9956
19510SOL     OW70254   3.757   7.564   3.527 -0.5896 -0.6930 -0.2124
19510SOL    HW170255   3.766   7.606   3.612 -0.0754 -2.1235  0.4653
19510SOL    HW270256   3.680   7.507   3.536 -0.2160 -1.2594 -0.5144
19511SOL     OW70257   2.748   6.408   4.053 -0.6114 -0.3547 -0.0110
19511SOL    HW170258   2.754   6.346   4.126  0.8513  1.7249  1.7332
19511SOL    HW270259   2.691   6.478   4.085  1.1383  1.2593 -0.2755
19512SOL     OW70260   5.851   5.297  13.020 -0.0057  0.1129  0.5893
19512SOL    HW170261   5.759   5.315  13.038 -0.1954  0.3225 -0.5103
19512SOL    HW270262   5.857   5.201  13.022  0.2109  0.1130  2.6725
19513SOL     OW70263   1.347   2.954   8.624 -0.4048 -0.3268 -0.6910
19513SOL    HW170264   1.313   3.044   8.624  0.4529  0.0491  1.4091
19513SOL    HW270265   1.287   2.905   8.679  0.1277 -0.5952 -0.3347
19514SOL     OW70266   2.245   6.784  13.187  0.0689  0.2061 -0.2831
19514SOL    HW170267   2.293   6.719  13.240  2.0396  0.9177 -1.1119
19514SOL    HW270268   2.155   6.752  13.188  0.5198 -1.2363  1.3121
19515SOL     OW70269   1.977  11.301   7.121  0.4427 -0.0930  0.0046
19515SOL    HW170270   2.054  11.320   7.066  0.4222 -0.6248 -0.2172
19515SOL    HW270271   1.937  11.386   7.137 -2.0963 -0.1054 -4.4781
19516SOL     OW70272   1.541   8.518  12.119 -0.6184  0.5443  0.0208
19516SOL    HW170273   1.478   8.556  12.059 -0.3910  2.5804  0.9950
19516SOL    HW270274   1.600   8.590  12.141  2.3487 -1.3408 -1.1462
19517SOL     OW70275   9.885  13.467   6.796 -0.2610 -0.3073  0.0945
19517SOL    HW170276   9.974  13.483   6.827 -0.5246  1.1270  0.1438
19517SOL    HW270277   9.831  13.473   6.875 -0.3113 -2.2413  0.2534
19518SOL     OW70278   7.293   7.481   7.341  0.3488 -0.1221  0.6802
19518SOL    HW170279   7.289   7.535   7.262  0.7828 -0.6336  0.3009
19518SOL    HW270280   7.387   7.468   7.356  0.2497 -1.5481  0.2134
19519SOL     OW70281   5.781   3.654   4.637  0.0920  0.0394 -0.7961
19519SOL    HW170282   5.809   3.597   4.565 -1.5591  0.1990 -1.6107
19519SOL    HW270283   5.693   3.625   4.658  0.1021  0.7787  0.3814
19520SOL     OW70284  10.694   8.758   2.128  0.1972  0.4710 -0.0403
19520SOL    HW170285  10.634   8.731   2.197  0.4097 -1.2793 -0.4938
19520SOL    HW270286  10.780   8.761   2.171  0.4483 -1.3143 -0.3227
19521SOL     OW70287  10.133   4.304   0.801 -0.2321  0.1518 -0.7017
19521SOL    HW170288  10.101   4.233   0.857 -1.3771 -0.3520 -1.9340
19521SOL    HW270289  10.150   4.377   0.862  0.1406 -0.8821  0.4792
19522SOL     OW70290   2.093  11.974   4.482  0.6705  0.2451 -0.2564
19522SOL    HW170291   2.154  11.980   4.556  0.9682 -2.3940 -0.1825
19522SOL    HW270292   2.120  11.895   4.436 -2.1068 -0.4723 -0.7920
19523SOL     OW70293   9.490  12.812   4.433 -0.2608  0.6537 -0.2962
19523SOL    HW170294   9.416  12.806   4.494 -0.4823  0.4000 -0.5848
19523SOL    HW270295   9.492  12.904   4.407 -0.9383  0.5188 -0.8512
19524SOL     OW70296   1.936   1.282  12.867  0.1604 -0.0375 -0.3229
19524SOL    HW170297   1.916   1.325  12.784  0.6305  0.4298 -0.2004
19524SOL    HW270298   2.030   1.263  12.863  1.0910  3.3752  1.5695
19525SOL     OW70299   0.044   6.239   8.357  0.0662 -0.4331  0.1763
19525SOL    HW170300   0.028   6.333   8.364  1.4844 -0.1306 -0.3850
19525SOL    HW270301   0.060   6.223   8.264 -0.4455 -1.2904  0.2188
19526SOL     OW70302  12.284   4.407  12.021  0.3956  0.2294  0.0915
19526SOL    HW170303  12.209   4.362  11.984  0.5807 -1.2037  1.3476
19526SOL    HW270304  12.300   4.363  12.105  0.1751  3.0881  1.7913
19527SOL     OW70305   0.086   3.363   7.797 -0.2074 -0.2144 -0.1150
19527SOL    HW170306   0.020   3.342   7.731 -1.1756  0.2749  0.6760
19527SOL    HW270307   0.038   3.364   7.880  0.2979  2.3661  0.2311
19528SOL     OW70308   5.466   2.395  10.848 -0.2321 -0.2949  0.4661
19528SOL    HW170309   5.552   2.435  10.856 -0.4913  0.0726  1.6116
19528SOL    HW270310   5.429   2.434  10.769  0.5461 -0.2699  0.1020
19529SOL     OW70311   0.578   2.403   5.604 -0.1918 -0.1912  0.4112
19529SOL    HW170312   0.616   2.481   5.562  0.5948 -0.8294 -0.1000
19529SOL    HW270313   0.508   2.437   5.659 -0.4438  0.7964 -0.4884
19530SOL     OW70314   7.292   7.832  12.849  0.4042  0.1932 -0.5638
19530SOL    HW170315   7.351   7.759  12.830  0.1684 -0.5086  1.2039
19530SOL    HW270316   7.205   7.791  12.855 -0.3691  1.2277 -3.2432
19531SOL     OW70317   7.709  10.370  10.292  0.0305 -0.4157 -0.0874
19531SOL    HW170318   7.785  10.316  10.315 -1.9735 -3.4108  0.0545
19531SOL    HW270319   7.732  10.458  10.322  3.3160 -1.2156  0.1349
19532SOL     OW70320   3.103  13.125   7.737 -0.1780 -0.3004 -0.1862
19532SOL    HW170321   3.045  13.052   7.760  0.2800 -0.1686  1.4671
19532SOL    HW270322   3.043  13.193   7.704 -1.1149  0.0704  2.0650
19533SOL     OW70323   9.236  13.618  10.589 -0.4151 -0.3256 -0.1096
19533SOL    HW170324   9.201  13.539  10.547 -1.0728 -0.0672 -0.0568
19533SOL    HW270325   9.190  13.623  10.672 -2.4177  1.5691 -1.2139
19534SOL     OW70326   1.048   1.330   2.264  0.0529 -0.5944 -0.3730
19534SOL    HW170327   0.978   1.349   2.327  0.6499  1.5279 -0.3069
19534SOL    HW270328   1.129   1.354   2.309  0.5023  0.8776 -1.8583
19535SOL     OW70329   3.962   9.290   6.503 -0.3737 -0.2563 -0.2166
19535SOL    HW170330   3.941   9.264   6.593 -2.9049 -0.8475 -0.8849
19535SOL    HW270331   3.876   9.303   6.461  0.6289 -1.6894 -3.0144
19536SOL     OW70332   7.846   2.649  10.125  0.1876  0.2290 -0.3839
19536SOL    HW170333   7.797   2.663  10.205  0.0945  0.7223 -0.5229
19536SOL    HW270334   7.875   2.737  10.098  0.1523  0.0824 -0.9263
19537SOL     OW70335   0.618   9.984  11.432 -0.0481 -0.4565  0.3462
19537SOL    HW170336   0.602  10.077  11.449  1.6311 -0.2316  0.8396
19537SOL    HW270337   0.634   9.946  11.519  2.4931 -0.5168 -0.0696
19538SOL     OW70338   1.675   9.424  12.812  0.2868  0.6039 -0.0453
19538SOL    HW170339   1.582   9.410  12.793  0.3850  1.1829 -0.9763
19538SOL    HW270340   1.679   9.512  12.850  0.3181  0.1279  1.1037
19539SOL     OW70341   7.998   5.931  11.608 -0.4848  0.3375  0.3674
19539SOL    HW170342   7.993   5.928  11.703 -0.0641 -0.0974  0.3787
19539SOL    HW270343   8.089   5.910  11.588  0.1449  3.0211 -0.0299
19540SOL     OW70344  11.211  12.738   8.636  0.2324 -0.2419 -0.4315
19540SOL    HW170345  11.119  12.762   8.625  0.0315 -1.0354 -0.4830
19540SOL    HW270346  11.217  12.706   8.726  0.6760  0.7620 -0.0879
19541SOL     OW70347   6.665   3.462   2.230 -0.0237  0.2316  0.0853
19541SOL    HW170348   6.725   3.436   2.300  0.6799 -0.7231 -0.8355
19541SOL    HW270349   6.715   3.523   2.177  0.7263 -1.6498 -1.5025
19542SOL     OW70350   1.235  12.202   7.699  0.0888 -0.2026  0.0833
19542SOL    HW170351   1.143  12.192   7.723 -0.0461 -0.0755 -0.3661
19542SOL    HW270352   1.248  12.138   7.628  0.0825  0.4787 -0.5390
19543SOL     OW70353  13.328  12.182  13.001 -0.7422  0.0656  0.4409
19543SOL    HW170354  13.264  12.192  12.931 -0.2908  0.3760  0.0632
19543SOL    HW270355  13.406  12.149  12.957 -0.3987  0.4318  0.7633
19544SOL     OW70356   2.108   7.751   6.718 -0.6547 -0.0812 -0.0346
19544SOL    HW170357   2.133   7.834   6.677 -0.8354  0.1776  0.3736
19544SOL    HW270358   2.177   7.689   6.691 -0.1221  0.3774  0.2541
19545SOL     OW70359   8.176   3.622  10.138  0.4987  0.3776  0.3487
19545SOL    HW170360   8.230   3.652  10.212  0.0144  1.2349  0.3557
19545SOL    HW270361   8.112   3.564  10.179  0.4102  0.6248  0.5664
19546SOL     OW70362   7.834   5.849   7.442  0.3046 -0.0607  0.2106
19546SOL    HW170363   7.859   5.889   7.525  0.5713 -1.0508  0.6175
19546SOL    HW270364   7.877   5.902   7.375  2.4268 -0.8960  0.8233
19547SOL     OW70365  10.472   6.462   3.329  0.2145  0.5981  0.0056
19547SOL    HW170366  10.450   6.409   3.406  3.5990 -2.3835 -0.7944
19547SOL    HW270367  10.545   6.517   3.358  1.2420 -0.2470 -0.9397
19548SOL     OW70368   0.394   8.736   1.260  0.4471  0.0681  0.2836
19548SOL    HW170369   0.397   8.655   1.312  0.6653 -1.0998 -1.4570
19548SOL    HW270370   0.427   8.804   1.319 -1.7297 -0.6583  2.5126
19549SOL     OW70371   3.511   7.901  12.141  0.0951 -0.7186 -0.1082
19549SOL    HW170372   3.443   7.963  12.116  0.1300 -0.3739  0.6266
19549SOL    HW270373   3.589   7.954  12.154 -0.4150 -0.5154  2.8361
19550SOL     OW70374   0.852   1.997   1.189 -0.2205  0.4282 -0.9809
19550SOL    HW170375   0.821   2.070   1.136 -1.0820  0.2980 -0.6720
19550SOL    HW270376   0.907   1.946   1.129 -0.7345  0.5806 -1.5911
19551SOL     OW70377  12.473   0.115   7.372  0.0201 -0.3222  0.2241
19551SOL    HW170378  12.478   0.149   7.282 -0.7433 -0.0557  0.2771
19551SOL    HW270379  12.531   0.039   7.372  0.1045 -0.2641 -0.4680
19552SOL     OW70380   2.800   9.696  10.775  0.0453  0.5617  0.4407
19552SOL    HW170381   2.851   9.663  10.701 -0.6450  0.3405  0.0538
19552SOL    HW270382   2.866   9.722  10.840  0.6662  0.7484 -0.2411
19553SOL     OW70383   5.484   9.896   6.916  0.1352  0.0674 -0.4806
19553SOL    HW170384   5.434   9.848   6.982 -0.5257  0.2588 -0.8383
19553SOL    HW270385   5.545   9.950   6.967 -0.5802  0.4487 -0.0121
19554SOL     OW70386   7.662  13.556   4.616 -0.3055 -0.3475  0.1651
19554SOL    HW170387   7.702  13.635   4.578 -0.0746 -1.2374 -1.5556
19554SOL    HW270388   7.734  13.513   4.663  0.2588 -0.8536 -1.1204
19555SOL     OW70389   0.774   5.143   0.071  0.1501 -0.4875 -0.5678
19555SOL    HW170390   0.776   5.238   0.083 -0.0344 -0.2617 -2.1923
19555SOL    HW270391   0.681   5.121   0.073  0.2185 -0.7690  0.5647
19556SOL     OW70392   5.729   8.364  11.375  0.0553  1.1793  0.0112
19556SOL    HW170393   5.761   8.416  11.301  0.0787  0.2332 -0.6609
19556SOL    HW270394   5.806   8.351  11.430  0.1546  1.4673 -0.0606
19557SOL     OW70395   4.117  10.756   3.459 -0.0511 -0.3432  0.3835
19557SOL    HW170396   4.141  10.673   3.500  2.4637  0.8625  1.5812
19557SOL    HW270397   4.127  10.740   3.365  2.8630 -0.8114  0.6746
19558SOL     OW70398   9.378   0.945   1.175 -0.5023  0.4112 -0.0245
19558SOL    HW170399   9.356   1.038   1.178 -2.4677 -0.0377  1.9678
19558SOL    HW270400   9.441   0.937   1.103 -2.7082  2.7556 -2.4050
19559SOL     OW70401  12.031   5.654   1.646 -0.7311  0.2242  0.0949
19559SOL    HW170402  12.035   5.608   1.730  0.0457 -1.2468 -0.7144
19559SOL    HW270403  12.003   5.743   1.669  0.5098  0.1842  2.0324
19560SOL     OW70404   7.801  12.240  10.106 -0.2470  0.3023 -0.2929
19560SOL    HW170405   7.873  12.178  10.107  0.3972  0.8270  3.5877
19560SOL    HW270406   7.727  12.192  10.143 -1.0398  0.6296 -1.4081
19561SOL     OW70407   5.095   1.191  11.450 -0.3701 -0.4511  0.6183
19561SOL    HW170408   5.085   1.104  11.489 -0.6626  0.7155  3.4116
19561SOL    HW270409   5.177   1.225  11.488  0.1419  0.2413 -1.0126
19562SOL     OW70410   7.515   8.623  10.107  0.4276  0.6462 -0.6921
19562SOL    HW170411   7.466   8.601  10.028 -0.7365  1.8439 -0.3498
19562SOL    HW270412   7.536   8.716  10.097  0.9281  0.6267  0.0611
19563SOL     OW70413  11.670   4.903  10.572  0.1820  0.4582 -0.1493
19563SOL    HW170414  11.677   4.994  10.602 -0.5006  1.3991 -2.5854
19563SOL    HW270415  11.639   4.910  10.481  0.8964 -2.1879 -0.6836
19564SOL     OW70416   6.767   6.161   2.423 -0.1427  0.3365 -0.1554
19564SOL    HW170417   6.714   6.097   2.471 -0.0888 -0.5839 -1.2759
19564SOL    HW270418   6.737   6.246   2.455 -2.6188 -0.1104 -1.0155
19565SOL     OW70419  11.402   4.717  11.109  0.2257  0.2835 -0.1098
19565SOL    HW170420  11.394   4.689  11.018  0.0982 -0.4281  0.1163
19565SOL    HW270421  11.476   4.778  11.109 -0.9755  1.8277 -1.0412
19566SOL     OW70422   8.279   0.471   4.346  0.5321  0.6894  0.5222
19566SOL    HW170423   8.267   0.380   4.375  2.5562  0.4201  0.6007
19566SOL    HW270424   8.198   0.515   4.372 -1.3715 -1.4901 -1.2354
19567SOL     OW70425  11.353   7.121   0.768  0.2908  0.4497 -0.2099
19567SOL    HW170426  11.401   7.082   0.842  1.3492  1.3217 -0.4144
19567SOL    HW270427  11.342   7.213   0.792 -1.7900  0.1726  0.0604
19568SOL     OW70428   1.813  11.219   9.820  0.1615  0.7616  0.4189
19568SOL    HW170429   1.798  11.313   9.833 -0.4577  0.5774  1.1144
19568SOL    HW270430   1.766  11.177   9.892 -1.1058 -0.1804 -0.8847
19569SOL     OW70431   1.943  13.225  10.806  0.3543 -0.0743 -0.0705
19569SOL    HW170432   2.023  13.206  10.758  0.2295 -1.3643  0.1996
19569SOL    HW270433   1.875  13.175  10.760 -0.4406  1.4829 -0.6763
19570SOL     OW70434   6.349   1.002   4.463 -0.1619 -0.1760  0.2614
19570SOL    HW170435   6.353   0.976   4.371 -0.6509 -0.6099  0.3644
19570SOL    HW270436   6.413   0.945   4.506 -1.0934 -1.0858  0.4546
19571SOL     OW70437  12.205   7.945   6.701  0.0847 -0.0059 -0.1386
19571SOL    HW170438  12.189   8.003   6.627  2.7960 -0.1722 -0.9441
19571SOL    HW270439  12.203   8.002   6.777 -1.4453  0.3741 -0.4181
19572SOL     OW70440   8.461   2.514   3.770  0.1397 -0.2676 -0.0481
19572SOL    HW170441   8.397   2.450   3.801  0.5287 -0.9077 -0.5384
19572SOL    HW270442   8.462   2.583   3.837 -2.0285  0.4397 -0.6707
19573SOL     OW70443   5.715  12.633   5.363 -0.2694 -0.4656 -0.1031
19573SOL    HW170444   5.668  12.565   5.315 -1.5387  1.8681 -2.3877
19573SOL    HW270445   5.804  12.631   5.326 -0.5901 -0.2128 -0.8953
19574SOL     OW70446  12.172   1.586   5.387 -0.5031  0.2527  0.2686
19574SOL    HW170447  12.199   1.675   5.364 -2.5920  0.3919 -2.0522
19574SOL    HW270448  12.195   1.577   5.479  3.5525  1.6589 -0.4176
19575SOL     OW70449   7.393  10.602   5.104  0.4091  0.6605 -0.2583
19575SOL    HW170450   7.458  10.549   5.056  0.6759  0.3100  0.4680
19575SOL    HW270451   7.355  10.541   5.167  0.1407  1.1440  0.0492
19576SOL     OW70452  10.012   5.349   7.839 -0.2875 -0.5738 -0.2193
19576SOL    HW170453  10.014   5.315   7.750  1.5937 -0.5199 -0.2408
19576SOL    HW270454   9.966   5.433   7.832 -1.2313 -1.1174 -0.8944
19577SOL     OW70455  13.636  13.500   7.810  0.0135 -0.6816  0.0605
19577SOL    HW170456  13.710  13.549   7.775 -0.1232 -1.2806 -1.1171
19577SOL    HW270457  13.665  13.409   7.810 -0.8997 -1.0016 -0.9957
19578SOL     OW70458  13.238   7.797   3.401 -0.4469  0.2210  0.5551
19578SOL    HW170459  13.237   7.892   3.388  0.0363  0.2198  0.4634
19578SOL    HW270460  13.309   7.767   3.344 -2.6893 -0.5838 -2.0228
19579SOL     OW70461   5.034   6.882  10.383 -0.3330 -0.6443 -0.0730
19579SOL    HW170462   5.041   6.914  10.293 -0.1286 -0.9418 -0.1631
19579SOL    HW270463   4.940   6.864  10.394 -0.1638 -2.0912 -0.7497
19580SOL     OW70464   6.663   4.605  10.924  0.1786  0.8642 -0.4729
19580SOL    HW170465   6.746   4.557  10.922 -0.1191  0.3460 -0.8667
19580SOL    HW270466   6.683   4.687  10.969  0.3841 -0.2501  1.6133
19581SOL     OW70467   4.328   1.172  11.680 -0.0237 -0.1645  0.8905
19581SOL    HW170468   4.246   1.196  11.723  0.0714  3.2148 -0.5100
19581SOL    HW270469   4.384   1.141  11.751 -1.5965  0.0954  2.3120
19582SOL     OW70470   8.612   1.837   2.718 -0.2801 -0.2190  0.0617
19582SOL    HW170471   8.701   1.863   2.693 -0.1625 -0.6712 -0.0009
19582SOL    HW270472   8.624   1.784   2.797 -0.3812 -1.2397 -0.5821
19583SOL     OW70473   8.159   9.230   4.676  0.8257 -0.0185 -0.2958
19583SOL    HW170474   8.103   9.174   4.729 -0.1225  1.3702  0.2280
19583SOL    HW270475   8.208   9.170   4.620  1.4767 -1.5009  1.7636
19584SOL     OW70476  11.464   3.740   8.462 -0.6510  0.0514  0.1173
19584SOL    HW170477  11.534   3.804   8.477 -0.2233 -0.3816 -0.0086
19584SOL    HW270478  11.419   3.773   8.384 -1.1385  0.8005  0.7040
19585SOL     OW70479   3.180  13.407   0.598  0.0614 -0.1034  0.0530
19585SOL    HW170480   3.255  13.446   0.643 -1.0175 -0.2773  2.1380
19585SOL    HW270481   3.184  13.314   0.622 -1.2399  0.0266  0.9033
19586SOL     OW70482  11.967   1.873   8.032  0.4489 -0.2757  0.2010
19586SOL    HW170483  11.968   1.969   8.038  0.4272 -0.3377  1.2624
19586SOL    HW270484  12.028   1.854   7.960  1.8436  0.4617  1.1213
19587SOL     OW70485  13.013  12.884   4.038  0.0951  0.7243  0.3774
19587SOL    HW170486  13.061  12.935   3.973  0.3608 -0.9181 -0.7573
19587SOL    HW270487  13.076  12.819   4.069 -0.6063  0.2415  0.8308
19588SOL     OW70488   8.759   9.241  12.669  0.3085  1.0850 -0.0652
19588SOL    HW170489   8.771   9.255  12.763  0.1602 -0.3488  0.1863
19588SOL    HW270490   8.835   9.189  12.642 -1.0153 -0.9293 -0.1406
19589SOL     OW70491   5.514   9.176   7.476  0.0098  0.1170  0.0396
19589SOL    HW170492   5.510   9.169   7.380 -2.3735 -0.9648  0.1423
19589SOL    HW270493   5.557   9.095   7.504 -0.0175  0.0598 -0.0825
19590SOL     OW70494  10.685   4.932   3.961  0.1702  0.1668 -0.1856
19590SOL    HW170495  10.757   4.994   3.949  2.0268 -1.7293  0.6223
19590SOL    HW270496  10.628   4.974   4.026  1.2950  1.1029  0.2365
19591SOL     OW70497   3.236   2.888   6.117 -0.5959  0.6563 -0.0983
19591SOL    HW170498   3.330   2.871   6.113 -1.1818 -3.3266 -1.3065
19591SOL    HW270499   3.213   2.877   6.210 -0.2162 -1.6420 -0.2070
19592SOL     OW70500   0.451   0.059   4.581 -0.0120  0.1891 -0.3410
19592SOL    HW170501   0.412   0.052   4.494  0.9598 -0.6024 -0.7308
19592SOL    HW270502   0.545   0.070   4.564 -0.0799  2.7740  0.5476
19593SOL     OW70503  10.827   7.230  10.233 -0.4475 -0.4043  0.0779
19593SOL    HW170504  10.899   7.180  10.196  1.3917  1.1838  1.3331
19593SOL    HW270505  10.841   7.320  10.203 -0.7881  0.2931  1.8535
19594SOL     OW70506   1.552   1.793   1.965  0.6717 -0.1158 -0.3639
19594SOL    HW170507   1.544   1.722   2.029  0.6404  0.7465  0.6327
19594SOL    HW270508   1.628   1.769   1.912  0.0330 -1.3906 -0.7132
19595SOL     OW70509  12.621  10.458   5.394 -0.3425  0.4746  0.3181
19595SOL    HW170510  12.673  10.538   5.384  0.2452  0.1913  1.0402
19595SOL    HW270511  12.589  10.461   5.484 -0.4683 -0.0234  0.2921
19596SOL     OW70512   4.050   8.277  10.660  0.7485  0.4137 -0.1184
19596SOL    HW170513   4.067   8.259  10.568 -0.5804  2.8326 -0.9214
19596SOL    HW270514   4.109   8.349  10.682  0.4003  0.4782  0.6502
19597SOL     OW70515   0.068  11.885   8.457  0.2025  0.3376 -0.4401
19597SOL    HW170516   0.091  11.934   8.378  0.5739  0.0105 -0.5350
19597SOL    HW270517   0.100  11.940   8.529  0.3496  0.3745 -0.5343
19598SOL     OW70518   1.342   7.794  13.672  0.4755 -0.6092  0.5159
19598SOL    HW170519   1.257   7.824  13.640  0.7780  0.9483  1.0617
19598SOL    HW270520   1.351   7.705  13.639 -0.6032 -0.1868 -0.9946
19599SOL     OW70521  11.918  11.111   3.718  0.9356  0.1974  0.0450
19599SOL    HW170522  11.970  11.117   3.799 -0.5019 -0.7612  1.0914
19599SOL    HW270523  11.923  11.019   3.693  0.7917  0.3563 -0.5773
19600SOL     OW70524  11.068  11.183   3.782  0.3137 -0.3401  0.0273
19600SOL    HW170525  10.996  11.121   3.791  0.1044 -0.1391 -0.2727
19600SOL    HW270526  11.144  11.136   3.817  0.8548 -1.9698 -2.9935
19601SOL     OW70527   5.859   2.497   0.769  0.0272  0.0728 -0.1592
19601SOL    HW170528   5.826   2.564   0.829 -1.3087 -0.2627 -0.4949
19601SOL    HW270529   5.949   2.480   0.799 -0.7509 -0.4532  2.0660
19602SOL     OW70530   9.121   6.171   6.035 -0.6014  0.2268 -0.2751
19602SOL    HW170531   9.163   6.138   6.115  1.2548  0.3028 -1.1668
19602SOL    HW270532   9.171   6.132   5.964 -2.9637 -0.8340 -1.4830
19603SOL     OW70533   0.863   1.959   2.030  0.3780 -0.6316 -0.0199
19603SOL    HW170534   0.842   1.973   1.938 -0.8179 -1.5884  0.0812
19603SOL    HW270535   0.778   1.957   2.074  0.9607  0.4114  1.2085
19604SOL     OW70536   3.741   4.823   7.085 -0.0718  0.5862 -0.2082
19604SOL    HW170537   3.717   4.805   6.994  1.3107  1.1216 -0.7052
19604SOL    HW270538   3.666   4.793   7.136 -0.4525 -0.6843 -1.4530
19605SOL     OW70539   0.354   7.376  10.689  0.6066 -0.1028 -0.3868
19605SOL    HW170540   0.387   7.464  10.672 -0.0627  0.5045  1.2651
19605SOL    HW270541   0.259   7.385  10.691  0.5784 -0.3735  1.9995
19606SOL     OW70542  11.073   2.256  10.808 -0.6788 -0.2105 -0.1094
19606SOL    HW170543  11.149   2.302  10.772 -1.0962  1.1992  0.7155
19606SOL    HW270544  11.108   2.205  10.881 -0.5047  0.4009  0.2408
19607SOL     OW70545   1.976   1.290   1.816  0.4395 -0.6787  0.3795
19607SOL    HW170546   1.977   1.196   1.835 -0.8669 -0.8509 -0.2889
19607SOL    HW270547   1.911   1.326   1.876 -0.0954 -0.4383 -0.3351
19608SOL     OW70548  10.016   6.533   1.224  0.4457 -0.0997 -0.3641
19608SOL    HW170549  10.051   6.537   1.135 -1.3566 -0.4777 -1.1336
19608SOL    HW270550   9.958   6.609   1.230 -1.2903 -1.3504 -0.3935
19609SOL     OW70551   7.497   5.678   9.468  0.0406  0.6150  0.0667
19609SOL    HW170552   7.421   5.621   9.477 -0.3132  1.0515 -0.1421
19609SOL    HW270553   7.550   5.636   9.401  0.5410 -0.2909  0.9940
19610SOL     OW70554  11.532   1.313  10.463 -0.2139 -0.2816 -0.2520
19610SOL    HW170555  11.484   1.396  10.467 -0.5894 -0.5396  0.7553
19610SOL    HW270556  11.623   1.337  10.481  0.2318  0.3224 -2.9206
19611SOL     OW70557   3.172   7.681   3.011 -0.4398  0.0896 -0.5662
19611SOL    HW170558   3.098   7.628   2.979 -0.4769  0.4438 -1.0885
19611SOL    HW270559   3.131   7.748   3.066 -0.3706 -0.5638  0.2877
19612SOL     OW70560   0.658  10.114  12.901 -0.7482  0.4244  0.6524
19612SOL    HW170561   0.641  10.021  12.918 -0.0234  0.3061  0.7546
19612SOL    HW270562   0.748  10.127  12.929 -0.8786  1.1862  0.7268
19613SOL     OW70563   9.579   8.089  12.292  0.2236  0.5152  0.2828
19613SOL    HW170564   9.508   8.152  12.282 -0.5295 -0.5791 -2.0904
19613SOL    HW270565   9.659   8.141  12.286 -0.3449  1.6427  1.9488
19614SOL     OW70566   7.467  11.220  13.404 -0.0968  0.2540 -0.0316
19614SOL    HW170567   7.421  11.182  13.329  1.0728  0.4413 -0.8753
19614SOL    HW270568   7.450  11.314  13.397  0.1867  0.2952 -0.1962
19615SOL     OW70569  11.395   2.187   2.700  0.0216 -0.1649 -0.3742
19615SOL    HW170570  11.347   2.258   2.657  1.8379  2.5463  1.7629
19615SOL    HW270571  11.329   2.142   2.753 -0.3713  3.6814  2.7929
19616SOL     OW70572   3.244   5.518   5.195  0.2877 -0.4730 -0.4331
19616SOL    HW170573   3.316   5.516   5.257 -0.8144  0.7533  0.9811
19616SOL    HW270574   3.215   5.427   5.188  0.6691 -0.6792  0.5795
19617SOL     OW70575   5.609  12.959   3.209 -0.2357 -0.0866 -0.3797
19617SOL    HW170576   5.656  13.037   3.179 -0.7128  1.2953  2.1392
19617SOL    HW270577   5.522  12.992   3.234 -0.3054 -1.3021  1.1381
19618SOL     OW70578   2.237   6.177   8.216  0.1807 -0.1551  0.4596
19618SOL    HW170579   2.226   6.169   8.311  3.1949  0.9934  1.0292
19618SOL    HW270580   2.247   6.271   8.200  1.3578 -0.4486 -0.7292
19619SOL     OW70581   3.805   7.289   5.216  0.3479  1.0879  0.3394
19619SOL    HW170582   3.871   7.249   5.272 -0.1167  1.3334  1.0851
19619SOL    HW270583   3.762   7.353   5.273 -1.9212 -0.4872  0.5258
19620SOL     OW70584  11.350  10.423   9.865 -0.6183 -0.1982 -0.1076
19620SOL    HW170585  11.328  10.372   9.787  0.2496 -1.4356  0.4170
19620SOL    HW270586  11.442  10.401   9.883  0.3988  2.8495 -0.8179
19621SOL     OW70587   5.399   6.427   6.934 -0.7924  0.3487 -0.5380
19621SOL    HW170588   5.433   6.431   7.023 -2.6418  0.4863  0.2080
19621SOL    HW270589   5.477   6.418   6.879  0.3678 -0.1546  1.1035
19622SOL     OW70590   3.709   7.223  11.978  0.0565 -0.1178 -0.0756
19622SOL    HW170591   3.756   7.291  11.931  0.1453 -0.3428 -0.3158
19622SOL    HW270592   3.778   7.163  12.008 -0.0336 -0.1793  0.0099
19623SOL     OW70593  12.821   8.733   0.634  0.8253 -0.5175  0.3012
19623SOL    HW170594  12.749   8.796   0.625 -0.5709 -1.9467  0.9397
19623SOL    HW270595  12.852   8.720   0.544  1.5453  1.4586  0.1995
19624SOL     OW70596  11.420   1.441  11.830  0.1962 -0.2671  0.0072
19624SOL    HW170597  11.413   1.535  11.817 -0.4424 -0.3553 -0.3476
19624SOL    HW270598  11.461   1.408  11.750 -3.4984 -0.7785 -1.9096
19625SOL     OW70599   8.919   0.660   2.984 -0.0856 -0.2132  0.2008
19625SOL    HW170600   8.959   0.603   2.918  1.0403  0.5824  0.1651
19625SOL    HW270601   8.828   0.631   2.988  0.0675 -0.9494 -0.9641
19626SOL     OW70602   9.633   2.330   2.761  0.2334  0.2317  0.4003
19626SOL    HW170603   9.542   2.350   2.739  0.5885  0.6945 -0.7210
19626SOL    HW270604   9.640   2.235   2.753 -0.0315  0.2465 -0.0064
19627SOL     OW70605   2.746   0.712   2.466  0.1629 -0.5521 -0.0115
19627SOL    HW170606   2.692   0.683   2.392  0.9892 -1.7801 -0.1728
19627SOL    HW270607   2.828   0.663   2.456  1.9997  2.4340 -0.7154
19628SOL     OW70608   0.265  10.367  10.098 -0.4964  0.0742  0.7181
19628SOL    HW170609   0.236  10.301  10.034 -0.0085  0.2701  0.2858
19628SOL    HW270610   0.348  10.399  10.063  0.8145 -1.2090  2.4143
19629SOL     OW70611   5.148   1.337   0.611 -0.9310  0.0179  0.4495
19629SOL    HW170612   5.237   1.369   0.622 -0.6805 -1.1980  2.3188
19629SOL    HW270613   5.101   1.409   0.568  0.8899  0.7160 -0.4513
19630SOL     OW70614  12.229   9.989   4.170  0.4402  0.3274  0.3583
19630SOL    HW170615  12.188  10.045   4.237  0.8868 -0.2747  1.1589
19630SOL    HW270616  12.202  10.028   4.087  0.9198  1.8775  0.8823
19631SOL     OW70617  10.080   8.278   9.719  0.3766  0.1968 -0.1528
19631SOL    HW170618  10.162   8.326   9.729  0.9416 -0.6783 -0.4548
19631SOL    HW270619  10.022   8.315   9.786  0.6661  1.5276 -0.6078
19632SOL     OW70620   9.815   4.604   0.354 -0.0482  0.3110 -0.1845
19632SOL    HW170621   9.784   4.660   0.283 -3.3920 -2.9795 -1.6848
19632SOL    HW270622   9.738   4.593   0.411  1.5968  0.1767  2.1484
19633SOL     OW70623   6.391   6.789   7.156  0.0946  0.4176 -0.0075
19633SOL    HW170624   6.447   6.866   7.162  1.5491 -0.5392 -0.4865
19633SOL    HW270625   6.317   6.807   7.214  0.9131  1.7406  0.6571
19634SOL     OW70626   8.604  13.163   1.341 -0.1449  0.3219 -0.0961
19634SOL    HW170627   8.605  13.207   1.426  3.1157  1.2964 -0.5211
19634SOL    HW270628   8.514  13.174   1.310 -1.2534  0.5409  2.8726
19635SOL     OW70629   5.698  13.584   4.905 -0.4034  0.5321  0.0658
19635SOL    HW170630   5.699  13.552   4.815  0.6247 -0.5351  0.4279
19635SOL    HW270631   5.699  13.505   4.959 -0.1512  1.1556  1.0090
19636SOL     OW70632   0.464  12.283   2.166  0.1081 -0.3076 -0.1116
19636SOL    HW170633   0.469  12.377   2.149  1.2355 -0.6138 -1.6669
19636SOL    HW270634   0.554  12.252   2.156 -0.4745 -1.7643 -1.0584
19637SOL     OW70635   8.425   0.739   6.463 -0.1741  0.3105  0.6273
19637SOL    HW170636   8.503   0.794   6.461 -0.1044  0.3316  2.3131
19637SOL    HW270637   8.446   0.665   6.406 -0.0815  1.7347 -1.2722
19638SOL     OW70638  13.399   2.420   7.282  0.8334  0.2734  0.0572
19638SOL    HW170639  13.483   2.389   7.318  0.9619  0.9817  0.3795
19638SOL    HW270640  13.419   2.442   7.191  0.5553 -1.3304 -0.4261
19639SOL     OW70641   9.227   6.244   1.411  0.1871  0.1815 -0.6629
19639SOL    HW170642   9.139   6.205   1.413 -0.4134  1.4257  2.2505
19639SOL    HW270643   9.286   6.169   1.409 -0.9421 -0.7431 -0.6946
19640SOL     OW70644   6.045   0.331  13.683  0.2923  0.3463  0.1711
19640SOL    HW170645   6.020   0.374  13.765  0.5044 -1.0472  1.0174
19640SOL    HW270646   5.962   0.301  13.646  0.2919 -0.0975  0.5209
19641SOL     OW70647  13.067   4.497   2.244 -0.1251  0.4147 -0.1792
19641SOL    HW170648  13.148   4.524   2.288  0.5044 -1.7169  0.1063
19641SOL    HW270649  13.031   4.578   2.208  1.4795  1.6133  0.7569
19642SOL     OW70650   5.182  13.740   0.959 -0.0285  0.0395  0.3884
19642SOL    HW170651   5.128  13.755   1.036 -0.4242 -0.2580  0.1752
19642SOL    HW270652   5.234  13.662   0.981  1.3723  1.1436  1.1471
19643SOL     OW70653   8.049   1.676   7.287  0.5174 -0.2971 -0.0955
19643SOL    HW170654   8.051   1.738   7.360  1.0649 -0.2457 -0.1516
19643SOL    HW270655   8.008   1.598   7.324  0.7111 -0.2391  0.2461
19644SOL     OW70656   4.138   8.712   8.443 -0.7592  0.1252 -0.0697
19644SOL    HW170657   4.220   8.685   8.401 -0.5298  0.8952 -0.1412
19644SOL    HW270658   4.154   8.802   8.471 -1.2343 -0.0604  0.8395
19645SOL     OW70659   2.044   5.765   9.685 -0.0186 -0.3117 -0.7305
19645SOL    HW170660   2.109   5.801   9.626 -0.6045 -0.0111 -1.1936
19645SOL    HW270661   1.960   5.784   9.644 -0.6429  2.5677  1.5828
19646SOL     OW70662  11.809  10.705  11.979  0.5153  0.3608 -0.5619
19646SOL    HW170663  11.805  10.624  11.929  0.3339  0.7502 -1.1890
19646SOL    HW270664  11.874  10.688  12.047 -0.3980 -0.7223  0.0735
19647SOL     OW70665  11.189   7.805   8.463  0.2695 -0.6740  0.4002
19647SOL    HW170666  11.242   7.796   8.542  0.2304 -0.9198  0.3976
19647SOL    HW270667  11.239   7.760   8.395  0.1363 -0.7636  0.3608
19648SOL     OW70668  13.365  12.876  12.417  0.2148  0.2069 -0.2857
19648SOL    HW170669  13.359  12.781  12.412  1.2410  0.0712  0.6876
19648SOL    HW270670  13.372  12.905  12.326  1.4251 -0.7611 -0.5141
19649SOL     OW70671   0.188   4.940   6.694 -0.0798 -0.3556  0.1335
19649SOL    HW170672   0.130   4.975   6.762 -0.3495 -0.3166 -0.1172
19649SOL    HW270673   0.216   4.855   6.728  1.0206  0.3210  1.0048
19650SOL     OW70674   4.135   0.486   0.293 -0.4471 -0.0192  0.1115
19650SOL    HW170675   4.045   0.516   0.306 -0.7627 -0.7536 -0.3355
19650SOL    HW270676   4.127   0.407   0.240  0.4010 -0.6320  0.8551
19651SOL     OW70677  10.678  13.037  12.419  0.5089  0.4149 -0.1867
19651SOL    HW170678  10.750  13.094  12.396  1.3955  0.2190  1.8864
19651SOL    HW270679  10.718  12.952  12.436 -0.7499 -0.8714 -2.9851
19652SOL     OW70680  10.297   1.949   2.571 -0.4015 -0.0320 -0.5321
19652SOL    HW170681  10.247   2.024   2.539 -0.4593  0.9367  1.6185
19652SOL    HW270682  10.344   1.917   2.495 -1.1165  1.6084 -1.7221
19653SOL     OW70683   9.192  11.813  11.159 -0.4937 -0.5158 -0.1210
19653SOL    HW170684   9.102  11.808  11.126 -0.9683 -2.7156  1.2924
19653SOL    HW270685   9.234  11.735  11.123  0.7347  0.2269 -0.3386
19654SOL     OW70686   0.086   8.116   4.401  0.2901  0.3777 -0.4019
19654SOL    HW170687   0.090   8.128   4.495  0.9160  1.0260 -0.5064
19654SOL    HW270688   0.011   8.170   4.373  0.0697  0.1399 -0.2731
19655SOL     OW70689   3.397   5.052   5.364  0.8593  0.2681 -0.3997
19655SOL    HW170690   3.403   5.050   5.268  1.1640  0.0121 -0.3773
19655SOL    HW270691   3.303   5.054   5.382  0.6914 -2.1761 -0.6768
19656SOL     OW70692   7.841   5.752   1.404 -0.4266  0.2380 -0.1559
19656SOL    HW170693   7.830   5.838   1.444 -1.4789  0.0589 -0.0143
19656SOL    HW270694   7.893   5.768   1.325 -1.2953  1.1460 -0.5713
19657SOL     OW70695  12.982   0.957  11.168  0.4604  0.2458  0.6451
19657SOL    HW170696  12.925   0.961  11.245  0.4472  0.9897  0.5999
19657SOL    HW270697  13.019   0.868  11.170 -1.1350 -0.4537  0.3524
19658SOL     OW70698  12.897   8.805  13.025  0.2785  0.0731  0.0785
19658SOL    HW170699  12.886   8.767  12.938 -0.5334 -0.1256  0.2595
19658SOL    HW270700  12.965   8.871  13.014 -0.5630  0.7964 -0.9475
19659SOL     OW70701  13.043   3.289  11.094  0.5161 -0.2022 -0.1609
19659SOL    HW170702  13.046   3.338  11.011  0.3851 -0.9420 -0.6179
19659SOL    HW270703  13.008   3.204  11.069  0.3155 -0.3775  0.6967
19660SOL     OW70704  12.333   1.156   4.612 -0.1393  0.0469 -0.3384
19660SOL    HW170705  12.240   1.136   4.621  0.1876 -1.1254  0.7202
19660SOL    HW270706  12.378   1.074   4.635  1.1752  0.8957  0.2538
19661SOL     OW70707   7.007   3.133   9.866 -0.1121 -0.1411  0.6293
19661SOL    HW170708   6.942   3.203   9.857 -1.1004 -0.6842  2.7508
19661SOL    HW270709   7.043   3.122   9.778 -0.3656  2.5757  0.0916
19662SOL     OW70710   3.518   8.596  11.064 -0.7733  0.2146 -0.0674
19662SOL    HW170711   3.548   8.555  10.982  0.5971 -1.1759  1.0709
19662SOL    HW270712   3.587   8.576  11.127 -1.2127  2.3063  1.1606
19663SOL     OW70713  10.128   9.227   5.581 -0.5704 -0.1073 -0.3685
19663SOL    HW170714  10.079   9.151   5.612 -3.4848  0.9891 -1.9088
19663SOL    HW270715  10.070   9.301   5.597  1.1432  1.4863 -1.1431
19664SOL     OW70716  13.484   3.593   8.452 -0.0230 -0.3156 -0.1677
19664SOL    HW170717  13.548   3.664   8.453 -1.9588  1.5177  0.8652
19664SOL    HW270718  13.536   3.514   8.436  2.2675  1.2465 -0.9688
19665SOL     OW70719   0.678   2.443   6.772 -0.7672  0.0444  0.1663
19665SOL    HW170720   0.605   2.441   6.710 -0.0739  0.9608 -0.6933
19665SOL    HW270721   0.645   2.495   6.845 -0.5180  1.6847 -0.8464
19666SOL     OW70722   5.541  11.049   8.761  0.2532  0.3240 -0.1605
19666SOL    HW170723   5.622  10.998   8.762  1.0239  1.4526 -1.3973
19666SOL    HW270724   5.507  11.040   8.672 -0.6567  0.3749  0.1671
19667SOL     OW70725  11.416   0.925  10.593 -0.1569  0.2262 -0.4691
19667SOL    HW170726  11.429   0.855  10.655 -2.2396 -0.6086 -0.8704
19667SOL    HW270727  11.356   0.986  10.637  0.3693  0.9512 -0.7215
19668SOL     OW70728   3.474   3.100  13.215  0.5051  0.8414 -0.3827
19668SOL    HW170729   3.414   3.150  13.160 -0.4112 -1.3840 -1.4762
19668SOL    HW270730   3.522   3.044  13.155  0.9407 -0.1966  0.8837
19669SOL     OW70731   6.602   3.954  13.190  0.4758  0.1722  0.4561
19669SOL    HW170732   6.576   3.974  13.100 -3.6372  0.6932  1.5771
19669SOL    HW270733   6.550   3.877  13.213  0.4193  0.8563  2.7897
19670SOL     OW70734   2.526  12.093  11.668  0.1169  0.3544 -0.3076
19670SOL    HW170735   2.574  12.169  11.636  1.5708  1.0170  2.9643
19670SOL    HW270736   2.583  12.019  11.647  0.6786  0.6841 -0.0016
19671SOL     OW70737   0.830  13.730   5.218  0.3056 -0.5854  0.6844
19671SOL    HW170738   0.830  13.640   5.249  1.4254 -0.8465 -0.0366
19671SOL    HW270739   0.922  13.756   5.218  0.0970  0.2185 -0.0839
19672SOL     OW70740  13.723   7.324  12.811  0.4025  0.1064  0.2032
19672SOL    HW170741  13.658   7.327  12.881 -0.9737  1.4846 -1.0432
19672SOL    HW270742  13.673   7.343  12.731  2.3490  1.3903 -0.7963
19673SOL     OW70743   5.633  10.274  13.212  0.2412  0.2205  0.5839
19673SOL    HW170744   5.558  10.228  13.175 -0.2111  0.5785  1.0329
19673SOL    HW270745   5.654  10.224  13.292 -0.2870  0.8111  1.1026
19674SOL     OW70746   9.069   7.251   8.765 -0.0102  0.3336 -0.1307
19674SOL    HW170747   9.132   7.319   8.741 -0.9697  1.5739  0.7525
19674SOL    HW270748   9.015   7.290   8.834 -2.3123 -0.3485 -1.4261
19675SOL     OW70749   9.502   0.144   2.620  0.0219  0.3471 -0.2223
19675SOL    HW170750   9.466   0.130   2.532  0.8368  0.4054 -0.5732
19675SOL    HW270751   9.588   0.181   2.604 -0.0181  0.8103  0.6189
19676SOL     OW70752   1.964  13.297   8.417 -0.4016  0.0652  0.3710
19676SOL    HW170753   1.885  13.343   8.446 -0.8760 -1.5337  1.7578
19676SOL    HW270754   1.966  13.310   8.322 -1.7675  0.9798  0.4415
19677SOL     OW70755   2.903   2.471   5.078 -0.2316  0.3397  0.4605
19677SOL    HW170756   2.875   2.404   5.016 -0.0763  0.1461  0.5988
19677SOL    HW270757   2.895   2.554   5.029  1.1363  0.0760 -0.2682
19678SOL     OW70758  11.290  13.106   1.519 -0.3267  0.2382 -0.0341
19678SOL    HW170759  11.313  13.048   1.591  0.7329  1.2659  0.4921
19678SOL    HW270760  11.203  13.138   1.542 -0.3099 -0.0183  0.4139
19679SOL     OW70761  10.784   3.543   0.674  0.7637 -0.1087  0.0616
19679SOL    HW170762  10.769   3.539   0.768 -0.3230 -0.2293 -0.1047
19679SOL    HW270763  10.870   3.502   0.661  0.0405 -1.9439  0.7991
19680SOL     OW70764  11.813   1.118   1.365 -0.0690  0.2555 -0.0513
19680SOL    HW170765  11.802   1.141   1.458 -0.6716  2.1710 -0.5372
19680SOL    HW270766  11.885   1.174   1.336 -0.0719 -0.1230 -0.8033
19681SOL     OW70767   5.011   0.380   0.375  0.1259 -0.2947 -0.0377
19681SOL    HW170768   4.963   0.298   0.362 -0.5410  0.2317 -1.0823
19681SOL    HW270769   4.950   0.436   0.423 -0.7349  0.6931 -2.1577
19682SOL     OW70770   1.467   8.692  12.444  0.1020  0.0456 -0.4955
19682SOL    HW170771   1.516   8.610  12.442 -0.3618 -0.2205 -1.4835
19682SOL    HW270772   1.391   8.677  12.387 -0.3402  0.9404 -0.1701
19683SOL     OW70773   0.600  10.348   8.279  0.1483  0.1927 -0.1216
19683SOL    HW170774   0.514  10.316   8.254  0.7283 -1.7920  0.2262
19683SOL    HW270775   0.640  10.378   8.197  0.7150 -2.9841 -1.1520
19684SOL     OW70776   2.093   2.500   0.284 -0.5119 -0.4795  0.0209
19684SOL    HW170777   2.184   2.520   0.304  0.1758 -0.9613 -2.2800
19684SOL    HW270778   2.091   2.405   0.271 -1.1795 -0.3892 -0.6305
19685SOL     OW70779   7.720   2.698  10.576 -0.0605 -0.0934 -0.2193
19685SOL    HW170780   7.771   2.692  10.657 -1.2692 -0.4774  0.5279
19685SOL    HW270781   7.729   2.611  10.535  2.8418  0.8859 -1.9755
19686SOL     OW70782  13.340   6.283   4.539  0.5040  0.3090 -0.0029
19686SOL    HW170783  13.314   6.366   4.580 -0.9783  0.3269 -0.9148
19686SOL    HW270784  13.406   6.247   4.598 -1.5793  0.2763  2.5395
19687SOL     OW70785   4.105   6.801  13.002  0.0705  0.0065 -0.2614
19687SOL    HW170786   4.037   6.853  13.046 -0.5867  0.3005 -1.5629
19687SOL    HW270787   4.161   6.770  13.073 -0.3744  1.2709  0.6886
19688SOL     OW70788   1.759   7.168   9.912  0.4387  0.0772 -0.0793
19688SOL    HW170789   1.820   7.097   9.931  1.8026  0.5367 -2.3533
19688SOL    HW270790   1.775   7.232   9.981  0.6535 -0.9092  0.8128
19689SOL     OW70791  13.629   6.511   6.074 -0.2659 -0.3023  0.1322
19689SOL    HW170792  13.642   6.418   6.089 -1.0339 -0.3334  0.6841
19689SOL    HW270793  13.585   6.542   6.153 -0.6631  0.3866 -0.3469
19690SOL     OW70794   5.405  11.211  12.818  0.1403 -0.3828  0.2914
19690SOL    HW170795   5.336  11.247  12.762  0.2411 -0.1935  0.2872
19690SOL    HW270796   5.381  11.119  12.830  1.5134 -1.1568 -2.2481
19691SOL     OW70797  10.303  12.501   8.742  0.1238  0.0515 -0.1015
19691SOL    HW170798  10.378  12.446   8.722  0.6907  0.7459  0.0832
19691SOL    HW270799  10.261  12.460   8.817  1.4024  0.6789  0.9805
19692SOL     OW70800   7.892  13.313   9.729 -0.1185 -0.0058  0.6896
19692SOL    HW170801   7.925  13.224   9.722 -0.0278 -0.0503  1.5206
19692SOL    HW270802   7.968  13.369   9.715 -0.0405 -0.0737  0.8429
19693SOL     OW70803  10.789   8.714   4.058 -0.3725 -0.5194 -0.1365
19693SOL    HW170804  10.825   8.720   3.970 -0.8359 -0.6563 -0.3401
19693SOL    HW270805  10.756   8.803   4.076  0.8685 -0.1572  0.4074
19694SOL     OW70806   9.212   4.540   1.216  0.3175  0.3371 -0.0247
19694SOL    HW170807   9.129   4.517   1.258  0.8624  0.8754  1.3993
19694SOL    HW270808   9.190   4.552   1.124 -1.5068  1.9293  0.5495
19695SOL     OW70809   7.112  12.127   2.088  0.1886  0.1713 -0.2424
19695SOL    HW170810   7.203  12.110   2.111  0.0104  0.0129  0.3544
19695SOL    HW270811   7.113  12.132   1.992  0.5932 -1.2391 -0.3332
19696SOL     OW70812   8.965   4.942   8.304 -0.2946 -0.0115  0.2900
19696SOL    HW170813   9.033   5.007   8.321 -0.1342  0.0793 -0.6462
19696SOL    HW270814   8.888   4.975   8.349  0.0756  0.2781  0.7187
19697SOL     OW70815   6.983   0.704   4.457  0.0006 -0.4829  0.1480
19697SOL    HW170816   6.953   0.738   4.373 -0.5811 -1.4188 -0.0361
19697SOL    HW270817   6.902   0.689   4.507  0.3843  1.5862  1.5070
19698SOL     OW70818   9.057   4.749  10.578  0.0151  0.2586 -0.1757
19698SOL    HW170819   9.109   4.819  10.537  0.6643  0.4978  0.9932
19698SOL    HW270820   8.968   4.765  10.548  0.4071  0.6370 -1.1841
19699SOL     OW70821   8.769   6.578   1.138  0.4030  0.2496 -0.4880
19699SOL    HW170822   8.748   6.669   1.157 -0.4939 -0.3152  1.4907
19699SOL    HW270823   8.714   6.556   1.062 -0.7731  0.8683  0.1476
19700SOL     OW70824  11.527   2.283   0.028  0.4163 -0.5212 -0.2404
19700SOL    HW170825  11.443   2.259  -0.011 -0.3907 -0.6643  1.5233
19700SOL    HW270826  11.514   2.372   0.060  1.3315 -0.1023 -0.9702
19701SOL     OW70827   6.856   8.344   8.115  0.0275  0.1718 -0.1953
19701SOL    HW170828   6.900   8.338   8.200  0.5318  0.7258 -0.4159
19701SOL    HW270829   6.862   8.255   8.079  0.9648  0.2336 -0.2138
19702SOL     OW70830   8.111   1.789  10.674  0.2308 -0.2396  0.0543
19702SOL    HW170831   8.075   1.826  10.593 -1.1533 -1.8702 -0.1341
19702SOL    HW270832   8.197   1.756  10.649  0.2414  0.1912 -0.5081
19703SOL     OW70833  13.665   9.689   6.467 -0.1077 -0.1222 -0.0597
19703SOL    HW170834  13.657   9.760   6.531  0.6943  0.4076 -0.5290
19703SOL    HW270835  13.623   9.722   6.388 -2.6462 -1.4219  0.6257
19704SOL     OW70836  12.774   7.717  10.143  0.4084  0.0277 -0.0032
19704SOL    HW170837  12.777   7.795  10.088 -1.6042  0.0500 -0.1497
19704SOL    HW270838  12.866   7.700  10.166  1.0236  1.5368 -1.1986
19705SOL     OW70839  13.390  13.409  12.397  0.4554  0.1342 -0.2945
19705SOL    HW170840  13.419  13.335  12.343 -3.1232 -1.0855 -0.8181
19705SOL    HW270841  13.353  13.471  12.334  2.1201  1.8192  0.2914
19706SOL     OW70842   3.145   1.973   9.200  0.1296  0.0085  0.3650
19706SOL    HW170843   3.154   2.058   9.156 -0.3963  1.1470  2.3426
19706SOL    HW270844   3.051   1.964   9.216  0.1226 -1.1909 -0.2080
19707SOL     OW70845   1.392   8.703   8.629 -0.3632  0.2657  0.1194
19707SOL    HW170846   1.448   8.775   8.599 -0.6028  0.2537 -0.3790
19707SOL    HW270847   1.427   8.679   8.714 -0.7173  1.4601  0.6340
19708SOL     OW70848   1.966  11.039   5.253 -0.3056  0.1402  0.6631
19708SOL    HW170849   1.968  11.120   5.305 -0.6940 -0.0818  1.0283
19708SOL    HW270850   2.029  10.982   5.296  0.8627  0.6648 -0.3022
19709SOL     OW70851  13.295   5.956   6.602  0.0277  0.3237 -0.1721
19709SOL    HW170852  13.295   5.966   6.698  1.5049  0.5495 -0.1745
19709SOL    HW270853  13.225   5.894   6.585  0.5399 -0.6790  1.1749
19710SOL     OW70854   7.943  13.678   6.889  0.2239  0.1166  1.0623
19710SOL    HW170855   7.914  13.735   6.819  0.5393  1.5136  2.0301
19710SOL    HW270856   7.891  13.598   6.878  0.4604  0.1972 -0.8907
19711SOL     OW70857  12.082   8.906  12.264 -0.3329  0.2230  0.1742
19711SOL    HW170858  12.030   8.836  12.303  0.9702 -0.6841  0.3701
19711SOL    HW270859  12.143   8.931  12.333  0.4138  0.2834 -0.4902
19712SOL     OW70860  13.613   8.432   2.237 -0.6820  0.3290  0.1815
19712SOL    HW170861  13.537   8.488   2.220 -0.0669  1.3890  0.8306
19712SOL    HW270862  13.617   8.374   2.161 -0.6132  1.9838 -1.1442
19713SOL     OW70863  11.465   8.111   1.127  0.2116 -0.4445  0.0126
19713SOL    HW170864  11.509   8.120   1.042  0.1357  0.4122  0.0576
19713SOL    HW270865  11.524   8.058   1.179  0.7019 -0.1807 -0.2709
19714SOL     OW70866  13.423  10.756  10.988  0.3345  0.7426  0.2267
19714SOL    HW170867  13.510  10.729  11.018  0.8475  0.3586 -1.4403
19714SOL    HW270868  13.423  10.851  10.998  1.1769  0.8094 -0.2450
19715SOL     OW70869   3.097   7.808   5.741 -0.0266 -0.4597 -0.2142
19715SOL    HW170870   3.110   7.868   5.668  0.5285 -0.7088 -0.3215
19715SOL    HW270871   3.105   7.862   5.820 -0.5416 -0.2077 -0.3285
19716SOL     OW70872   6.724   2.405   9.463  0.5052 -0.2756 -0.0199
19716SOL    HW170873   6.736   2.310   9.453  0.9557 -0.2258  0.0532
19716SOL    HW270874   6.793   2.432   9.523 -0.8584 -0.2280  1.6004
19717SOL     OW70875   0.932   7.992   4.931 -0.1574 -0.1408 -0.4955
19717SOL    HW170876   0.935   7.946   5.015  0.9161  0.3933 -0.2146
19717SOL    HW270877   0.928   8.085   4.955  3.1707  0.2505 -0.9116
19718SOL     OW70878   5.212   5.205   3.160  0.0506  0.1168  0.0916
19718SOL    HW170879   5.126   5.171   3.132  0.2092  0.2954 -0.6211
19718SOL    HW270880   5.191   5.282   3.212 -0.2159  0.3987 -0.4215
19719SOL     OW70881   3.782   3.358  11.652  0.1046 -0.0023 -0.0289
19719SOL    HW170882   3.822   3.440  11.626 -0.2143  0.1087 -0.1784
19719SOL    HW270883   3.822   3.292  11.595  0.4193  0.0327  0.1471
19720SOL     OW70884  12.682  11.944   2.180  0.8966 -0.2766 -0.0895
19720SOL    HW170885  12.756  11.883   2.180  1.1244 -0.0401 -1.3130
19720SOL    HW270886  12.629  11.916   2.105  1.2277  1.2603 -0.9439
19721SOL     OW70887  10.315   7.312  13.371  0.0083 -0.3250  0.0571
19721SOL    HW170888  10.382   7.380  13.361  1.8388 -1.8444  1.3372
19721SOL    HW270889  10.323   7.259  13.291 -1.4910  0.9328 -0.9922
19722SOL     OW70890  13.572  12.303   8.638 -0.0412 -0.0637  0.3962
19722SOL    HW170891  13.546  12.393   8.660 -0.5956  0.2074 -1.2381
19722SOL    HW270892  13.657  12.312   8.595 -0.5376 -0.2177 -0.6293
19723SOL     OW70893   8.386   7.813   4.635 -0.6302  0.0879 -0.0888
19723SOL    HW170894   8.399   7.736   4.579 -0.4355  1.9405 -2.8168
19723SOL    HW270895   8.376   7.777   4.723 -1.2376 -3.0766 -1.2931
19724SOL     OW70896   3.290   4.607   8.532  0.2946 -0.1363  0.6775
19724SOL    HW170897   3.235   4.605   8.610 -2.3503 -0.5285 -1.0723
19724SOL    HW270898   3.258   4.682   8.482 -0.6733 -2.0083 -1.7017
19725SOL     OW70899   4.497  10.742   9.051 -0.2716  0.4170  0.3815
19725SOL    HW170900   4.542  10.671   9.004 -1.6085  0.3621 -0.8644
19725SOL    HW270901   4.443  10.696   9.116 -1.0949  0.2804 -0.3875
19726SOL     OW70902   5.685   9.699   4.314  0.2806 -0.0496 -0.1519
19726SOL    HW170903   5.611   9.641   4.297 -1.4554  1.1067  2.7094
19726SOL    HW270904   5.714   9.677   4.402  2.6683  0.3254 -0.7639
19727SOL     OW70905   9.646  13.329   7.295 -0.2063 -0.0917 -0.2942
19727SOL    HW170906   9.634  13.348   7.201  0.6859  1.7181 -0.0987
19727SOL    HW270907   9.671  13.237   7.298  1.3320  0.2066 -2.0124
19728SOL     OW70908  13.517   8.531   2.603  0.5555 -0.0169  0.1740
19728SOL    HW170909  13.583   8.464   2.581  1.6515  0.7676  1.0021
19728SOL    HW270910  13.539   8.605   2.547  0.6358  0.4010  0.7549
19729SOL     OW70911  13.532  10.681   2.751  0.4558 -0.3711  0.1428
19729SOL    HW170912  13.583  10.646   2.678 -1.0929 -1.1875 -0.5841
19729SOL    HW270913  13.448  10.706   2.713 -0.2065 -0.3327  1.5496
19730SOL     OW70914   2.116   3.590   4.940 -0.2056  0.2582 -0.1079
19730SOL    HW170915   2.107   3.495   4.935 -2.0608  0.4501 -1.6797
19730SOL    HW270916   2.108   3.621   4.850  0.0790  1.9267  0.3870
19731SOL     OW70917   2.005   8.485   8.285 -0.7283 -0.3803  0.6870
19731SOL    HW170918   2.092   8.480   8.244 -0.3998  0.4399  1.2761
19731SOL    HW270919   1.957   8.411   8.247  0.6021 -1.5685  1.2527
19732SOL     OW70920  12.831   5.601   9.607 -0.3685 -0.9626 -0.2302
19732SOL    HW170921  12.737   5.586   9.595 -0.4225  0.4114 -1.8658
19732SOL    HW270922  12.873   5.534   9.553 -0.4670 -0.3456 -1.0938
19733SOL     OW70923   0.053   5.029   9.196 -0.2375  0.4363  0.4415
19733SOL    HW170924  -0.001   5.052   9.121  0.4262  2.1546  0.4419
19733SOL    HW270925   0.026   4.940   9.219 -1.8214  0.6085 -0.6044
19734SOL     OW70926   3.918   9.817   7.364 -0.0572 -0.5983  0.4335
19734SOL    HW170927   3.958   9.813   7.277 -0.1484 -0.1685  0.3696
19734SOL    HW270928   3.922   9.727   7.397 -0.6983 -0.9039 -0.3130
19735SOL     OW70929   0.322   1.739   3.469 -0.7171 -0.0642  1.0057
19735SOL    HW170930   0.383   1.665   3.467 -1.3477 -0.5896  1.1238
19735SOL    HW270931   0.376   1.813   3.496  0.6140  0.1782 -1.8842
19736SOL     OW70932   6.987   9.650   7.153 -0.2910  0.1904  0.0106
19736SOL    HW170933   6.974   9.556   7.162 -2.6207  0.5466  0.8955
19736SOL    HW270934   6.995   9.664   7.058 -0.3917 -0.8479 -0.1589
19737SOL     OW70935   3.384  12.548   7.652  0.4265 -0.4611 -0.1377
19737SOL    HW170936   3.466  12.508   7.680  0.5608 -1.0222 -1.2876
19737SOL    HW270937   3.317  12.484   7.675  0.3050 -0.0400  0.7226
19738SOL     OW70938  11.203  11.994   7.042 -0.1542 -0.0641  0.4135
19738SOL    HW170939  11.279  11.935   7.039  0.6354  0.8114  1.8204
19738SOL    HW270940  11.237  12.074   7.082 -1.2989  1.2090 -1.0644
19739SOL     OW70941   4.367   8.322   1.599  0.2781 -0.1654 -0.6358
19739SOL    HW170942   4.287   8.273   1.615 -0.7509  1.1405 -1.5226
19739SOL    HW270943   4.382   8.312   1.505  1.7985 -1.3005 -0.3005
19740SOL     OW70944   4.196   0.077   2.746  0.7341 -0.1425  0.0060
19740SOL    HW170945   4.167  -0.014   2.741 -0.3078  0.1148  0.9530
19740SOL    HW270946   4.131   0.125   2.693  0.9601  0.1231 -0.0341
19741SOL     OW70947   1.070  11.400  13.255  0.1485  0.2122  0.2084
19741SOL    HW170948   1.093  11.403  13.348 -0.4497  2.7301  0.3376
19741SOL    HW270949   1.154  11.411  13.210  0.1441  1.8958  0.5456
19742SOL     OW70950  10.092   9.380   6.875 -0.5968  0.1328 -0.0775
19742SOL    HW170951  10.099   9.446   6.806  1.1160 -1.8564 -1.9469
19742SOL    HW270952  10.157   9.406   6.940  1.0811 -0.3815 -1.4756
19743SOL     OW70953   8.670   4.438   2.713 -0.1814  0.2901 -0.3299
19743SOL    HW170954   8.686   4.344   2.726 -0.0127  0.6718  3.6582
19743SOL    HW270955   8.753   4.479   2.736 -0.5799  1.4888 -0.9532
19744SOL     OW70956   1.906   1.007   8.507 -0.0607  0.1330  0.0878
19744SOL    HW170957   1.950   0.983   8.426 -0.2967  1.0157 -0.3141
19744SOL    HW270958   1.906   1.102   8.507  0.4579  0.1540  1.4150
19745SOL     OW70959   2.234   4.873  12.839  0.1193 -0.4882 -0.7984
19745SOL    HW170960   2.207   4.790  12.800 -0.3212 -1.3373  1.1599
19745SOL    HW270961   2.178   4.938  12.797 -0.8495 -1.4451 -1.0596
19746SOL     OW70962  12.890  10.533   8.339  0.5014  0.2595  0.0705
19746SOL    HW170963  12.918  10.599   8.276 -0.4686  0.9688  0.3735
19746SOL    HW270964  12.917  10.567   8.424 -0.6008  0.6132  0.2960
19747SOL     OW70965   1.689  10.334  13.285 -0.1938  0.3891 -0.1926
19747SOL    HW170966   1.774  10.372  13.262 -0.5739  0.5330 -1.4574
19747SOL    HW270967   1.672  10.270  13.216 -0.5145 -0.5975  0.7798
19748SOL     OW70968   5.709  11.550   2.679 -0.5247  0.6347 -0.0353
19748SOL    HW170969   5.630  11.574   2.728  0.6551  1.0066  1.7781
19748SOL    HW270970   5.730  11.462   2.711 -0.3848  0.4020 -0.7597
19749SOL     OW70971   3.182  10.563   4.004  0.2318  0.5877 -0.3470
19749SOL    HW170972   3.206  10.601   3.919 -0.8195 -0.1282 -0.9974
19749SOL    HW270973   3.207  10.630   4.068 -0.1804  1.7421 -1.3354
19750SOL     OW70974  11.802  13.457  12.951 -0.5471 -0.0638 -0.0084
19750SOL    HW170975  11.837  13.373  12.920 -0.0256 -0.2341  1.0200
19750SOL    HW270976  11.714  13.461  12.913 -0.6165 -1.1176 -0.0102
19751SOL     OW70977  11.377   0.125  11.428 -0.0088  0.1114  0.4931
19751SOL    HW170978  11.435   0.145  11.502  1.6931  1.5712 -1.1489
19751SOL    HW270979  11.327   0.206  11.414  0.0610  0.0282 -0.2792
19752SOL     OW70980   9.543   4.158   1.508  0.2087  0.7428 -0.0559
19752SOL    HW170981   9.578   4.194   1.426  0.1548  1.2660  0.1469
19752SOL    HW270982   9.620   4.126   1.555  0.1845 -0.1132 -0.5626
19753SOL     OW70983   9.148   0.290   5.761  0.4211 -0.2117 -0.4024
19753SOL    HW170984   9.093   0.212   5.753 -0.2294  0.3292 -1.3683
19753SOL    HW270985   9.212   0.281   5.690  0.2505  0.2138 -0.6070
19754SOL     OW70986  12.011  10.535   8.684 -0.1996 -0.4748  0.5094
19754SOL    HW170987  12.015  10.605   8.619 -2.7570 -0.3116  0.4189
19754SOL    HW270988  11.958  10.467   8.642 -0.7467 -0.9380  1.9154
19755SOL     OW70989   3.981   8.460  10.921 -0.3925 -0.9452 -0.3699
19755SOL    HW170990   3.915   8.390  10.919 -0.2461 -1.0818 -0.5269
19755SOL    HW270991   3.942   8.531  10.870 -2.1837  0.6181  2.8545
19756SOL     OW70992   3.415  11.831  13.355 -0.3799 -0.8742  0.0386
19756SOL    HW170993   3.491  11.869  13.312  1.7827 -0.9576  3.4057
19756SOL    HW270994   3.384  11.764  13.294  0.9685  0.4870 -2.3081
19757SOL     OW70995  12.805   9.394   3.654 -0.0626  0.1782  0.3174
19757SOL    HW170996  12.729   9.348   3.687  0.4498  1.1287  3.1688
19757SOL    HW270997  12.774   9.483   3.636  0.0940  0.2263  0.2775
19758SOL     OW70998  12.381   1.306   8.797 -0.1779  0.1763  0.1671
19758SOL    HW170999  12.428   1.378   8.754  0.6122  0.4714  1.4739
19758SOL    HW271000  12.395   1.231   8.740  0.9796  0.5167 -0.0173
19759SOL     OW71001   9.566  11.525  13.255 -0.0648 -0.2010  0.9685
19759SOL    HW171002   9.510  11.453  13.284  0.8897 -1.6370 -0.5948
19759SOL    HW271003   9.513  11.573  13.192  0.7229 -2.2978 -1.4833
19760SOL     OW71004   3.109   7.906   9.063  0.2092 -0.3055  0.1011
19760SOL    HW171005   3.182   7.929   9.006  1.0384 -1.4281  0.6793
19760SOL    HW271006   3.148   7.852   9.132 -1.5123 -2.9263 -0.8362
19761SOL     OW71007   8.499  10.738   8.558 -0.0502  0.2660  0.0271
19761SOL    HW171008   8.533  10.828   8.547  3.5425 -0.9096  0.0274
19761SOL    HW271009   8.511  10.720   8.651 -0.0878 -0.4539 -0.1078
19762SOL     OW71010   4.940   0.466   2.408  0.0831 -0.0107 -0.9987
19762SOL    HW171011   4.876   0.536   2.419  0.5938  0.7788 -2.7683
19762SOL    HW271012   4.889   0.393   2.371 -0.1218  0.0029 -0.7486
19763SOL     OW71013   5.932   5.182   6.421  0.5626 -0.1803 -0.4165
19763SOL    HW171014   5.980   5.110   6.461  0.7948 -1.3605 -2.6329
19763SOL    HW271015   5.996   5.223   6.363 -0.0642  0.6997 -0.5030
19764SOL     OW71016  11.298   5.070   7.501 -0.0254 -0.3661  0.2765
19764SOL    HW171017  11.386   5.073   7.538 -0.9366 -2.8654  2.9861
19764SOL    HW271018  11.311   5.045   7.410  2.0542 -0.4825  0.5665
19765SOL     OW71019   8.627   3.920   9.089 -0.5344  0.3342 -0.1988
19765SOL    HW171020   8.623   3.839   9.037  2.2347  0.7298 -1.1520
19765SOL    HW271021   8.622   3.890   9.179  1.5065 -1.0906 -0.4893
19766SOL     OW71022   3.328   2.309   8.464  0.3245  0.1268  0.0398
19766SOL    HW171023   3.241   2.269   8.450  0.5097 -0.9579  1.6609
19766SOL    HW271024   3.377   2.287   8.385 -0.5752 -0.1110 -0.4688
19767SOL     OW71025   5.271   9.748   3.912  0.1906 -0.1244  0.4696
19767SOL    HW171026   5.175   9.753   3.922  0.2395 -0.6601  1.2306
19767SOL    HW271027   5.297   9.674   3.967  1.0127 -0.1778  0.0129
19768SOL     OW71028   5.473  11.563  13.636 -0.1326 -0.7608  0.3646
19768SOL    HW171029   5.499  11.647  13.674  0.0498  0.1557 -1.6519
19768SOL    HW271030   5.554  11.511  13.634  0.5271  0.2684 -1.3891
19769SOL     OW71031  10.103   0.070   8.178 -0.2434  0.0655 -0.0578
19769SOL    HW171032  10.107   0.099   8.269 -0.7147 -2.0444  0.6948
19769SOL    HW271033  10.191   0.038   8.159 -0.0754  0.7362 -0.4548
19770SOL     OW71034   2.136  12.543   2.771  0.1603 -0.5053  0.3262
19770SOL    HW171035   2.106  12.601   2.700  0.9436 -0.6663 -0.1510
19770SOL    HW271036   2.057  12.525   2.822 -0.3681 -0.1693 -0.3509
19771SOL     OW71037   4.984   1.055   6.495 -0.5003  0.0789  0.0466
19771SOL    HW171038   4.995   1.139   6.539  0.4563  0.7971 -1.4780
19771SOL    HW271039   4.893   1.030   6.513 -0.8388  1.4968  0.4253
19772SOL     OW71040   7.475   1.107   3.934  0.4876  0.5051 -0.1370
19772SOL    HW171041   7.558   1.155   3.932  0.2280  0.9614 -0.2299
19772SOL    HW271042   7.450   1.100   3.842  0.0518  1.0346 -0.0638
19773SOL     OW71043  11.569   1.058   1.552  0.2562  0.4221 -0.3999
19773SOL    HW171044  11.518   0.990   1.508  0.3890 -0.0104  0.1011
19773SOL    HW271045  11.517   1.082   1.628  1.6644 -1.4594  1.2560
19774SOL     OW71046   6.416   7.881   0.369  0.0253  0.5960  0.1876
19774SOL    HW171047   6.375   7.845   0.447 -0.3064 -0.5253 -0.4752
19774SOL    HW271048   6.465   7.807   0.331 -1.8422  0.3474 -1.9928
19775SOL     OW71049  11.686  12.832   6.015  0.0853 -0.0459 -0.1461
19775SOL    HW171050  11.724  12.914   5.982  0.9328  0.1071  1.1484
19775SOL    HW271051  11.598  12.857   6.043  0.8057  0.7953  1.5393
19776SOL     OW71052   3.730  11.828   6.124  0.5169 -0.2916  0.2404
19776SOL    HW171053   3.735  11.901   6.063 -1.3978  0.2302  0.6481
19776SOL    HW271054   3.758  11.864   6.208 -1.2291  0.2856  0.6350
19777SOL     OW71055  10.115  10.773   0.417 -0.0852 -0.1462 -0.4173
19777SOL    HW171056  10.182  10.838   0.396  0.2853 -0.1363  0.7367
19777SOL    HW271057  10.159  10.689   0.405 -0.9918 -0.2873 -3.3780
19778SOL     OW71058   8.021   1.906   4.081 -0.5882  0.1441  0.6959
19778SOL    HW171059   8.063   1.824   4.107  0.8921  0.7892  0.4671
19778SOL    HW271060   7.994   1.946   4.163 -1.1973 -0.5074  0.8167
19779SOL     OW71061   3.335  11.782  12.192 -0.1809  0.3480  0.3772
19779SOL    HW171062   3.297  11.859  12.149 -1.4368 -0.1445  0.5612
19779SOL    HW271063   3.428  11.802  12.198 -0.5444  2.0833  0.8813
19780SOL     OW71064  13.377  10.889   0.054 -0.1309 -0.0048 -0.1110
19780SOL    HW171065  13.345  10.915   0.140  0.3612  0.7513 -0.1508
19780SOL    HW271066  13.332  10.948  -0.007  0.6295  0.4309 -0.2492
19781SOL     OW71067   7.239  11.686   5.566 -0.1740 -0.0176 -0.2668
19781SOL    HW171068   7.180  11.741   5.616  0.5466  0.0526  0.5222
19781SOL    HW271069   7.199  11.599   5.567  1.0677 -0.6585  2.6771
19782SOL     OW71070   0.776   8.534  13.724  0.1536  0.3196  0.2652
19782SOL    HW171071   0.837   8.504  13.793 -0.0145  2.3836  1.3770
19782SOL    HW271072   0.697   8.558  13.771 -0.5902  0.1632 -0.8772
19783SOL     OW71073   3.961   1.479   4.156  0.6505 -0.2457 -0.3958
19783SOL    HW171074   4.040   1.469   4.103  1.1087  0.7993  0.0838
19783SOL    HW271075   3.918   1.556   4.120  0.4595 -0.1046  0.1332
19784SOL     OW71076   8.004  10.049   5.438  0.2411 -0.2073  0.1125
19784SOL    HW171077   7.993  10.040   5.343 -1.2567 -0.3436  0.2844
19784SOL    HW271078   7.916  10.065   5.471  0.9088  1.1641  1.3507
19785SOL     OW71079   1.048   7.700   9.137 -0.5958  0.6125  0.5201
19785SOL    HW171080   0.993   7.745   9.072 -0.4490 -0.6590 -0.5335
19785SOL    HW271081   0.986   7.669   9.203 -1.4304 -1.9344 -1.3070
19786SOL     OW71082   4.580   1.747   3.251 -0.1112  0.0038  0.4665
19786SOL    HW171083   4.667   1.775   3.277  0.4862 -0.8553 -0.5473
19786SOL    HW271084   4.572   1.775   3.160 -1.1644  0.6538  0.7350
19787SOL     OW71085  13.737   4.764  12.346  0.8231  0.1395 -0.0407
19787SOL    HW171086  13.748   4.842  12.291 -0.9688 -0.6827 -1.6999
19787SOL    HW271087  13.728   4.692  12.284 -2.2688 -0.7086  1.2084
19788SOL     OW71088   9.966   9.225  11.965 -0.4860  0.0079 -0.3260
19788SOL    HW171089   9.919   9.228  12.049  2.7647 -0.1846  1.6748
19788SOL    HW271090   9.972   9.316  11.937 -1.9606  0.0365 -0.6315
19789SOL     OW71091  12.098   1.356  11.123 -0.1870  0.2539 -0.5207
19789SOL    HW171092  12.027   1.367  11.186  0.3793  1.8152 -0.1087
19789SOL    HW271093  12.177   1.382  11.171  0.8252 -2.1312 -0.7271
19790SOL     OW71094   6.444  12.524   2.853 -0.0790 -0.3818 -0.2437
19790SOL    HW171095   6.471  12.578   2.779  0.1989 -0.7987 -0.4495
19790SOL    HW271096   6.353  12.500   2.834 -0.4115  0.5116  0.1475
19791SOL     OW71097   7.076  11.617   6.745  0.1854 -0.7471  0.6406
19791SOL    HW171098   7.115  11.581   6.824  1.0022  0.1444  0.6605
19791SOL    HW271099   7.078  11.712   6.758  1.2069 -0.5259 -0.8213
19792SOL     OW71100   1.975   1.078  12.406  0.1419 -0.2633  0.7017
19792SOL    HW171101   2.041   1.018  12.372  0.8283  0.5644  0.5448
19792SOL    HW271102   1.986   1.076  12.501  1.4608  1.0407  0.6041
19793SOL     OW71103   9.614   1.954  13.346  0.4987  0.0110 -0.2867
19793SOL    HW171104   9.555   1.898  13.397  1.1915  0.1643  0.7094
19793SOL    HW271105   9.651   1.895  13.280  1.3324 -0.7802  0.8411
19794SOL     OW71106  11.403   1.552  10.542 -0.0123 -0.1196  0.1134
19794SOL    HW171107  11.424   1.601  10.462  0.6912 -1.2104 -0.3826
19794SOL    HW271108  11.310   1.571  10.557 -0.2904 -0.3001 -1.2568
19795SOL     OW71109   9.460   7.529   5.525 -0.2000  0.0206 -0.3497
19795SOL    HW171110   9.487   7.479   5.449 -1.7398  1.1148 -1.6971
19795SOL    HW271111   9.484   7.475   5.600  1.2794 -1.1300 -1.5932
19796SOL     OW71112   1.605  10.298  13.626 -0.0592 -0.0614  0.2901
19796SOL    HW171113   1.696  10.327  13.632 -0.8815  2.8732  0.5516
19796SOL    HW271114   1.565  10.359  13.563 -2.0240 -0.6921  0.8596
19797SOL     OW71115   5.555   5.592   7.247 -0.5102  0.4880 -0.0115
19797SOL    HW171116   5.521   5.626   7.330 -1.1697  0.4032 -0.2440
19797SOL    HW271117   5.637   5.550   7.271 -0.9281  0.0477  0.6801
19798SOL     OW71118  11.927   6.888   2.025 -0.4878 -0.1557 -0.4653
19798SOL    HW171119  11.946   6.977   2.056 -1.2210 -0.0621 -0.2755
19798SOL    HW271120  11.850   6.861   2.075  0.8892 -1.6780  1.0036
19799SOL     OW71121   9.136   9.328  10.395 -0.0482 -0.0439 -0.2032
19799SOL    HW171122   9.231   9.316  10.386 -0.3189 -2.6092 -0.3894
19799SOL    HW271123   9.119   9.413  10.355  2.2491  0.7873  0.4426
19800SOL     OW71124   7.377   4.684   7.709 -0.7471 -0.0391 -0.6598
19800SOL    HW171125   7.393   4.607   7.763 -2.0470 -0.6770 -1.1245
19800SOL    HW271126   7.431   4.671   7.631 -0.3524 -0.0896 -0.3750
19801SOL     OW71127  13.185   3.986   4.499  0.2320 -0.2266 -0.6603
19801SOL    HW171128  13.203   3.968   4.591 -0.7459 -1.8253 -0.7346
19801SOL    HW271129  13.267   4.021   4.465  0.4505  0.8615  0.9181
19802SOL     OW71130   6.872   2.491   5.220 -0.0450 -0.0624  0.1630
19802SOL    HW171131   6.821   2.534   5.152  0.5356  1.3678  0.6061
19802SOL    HW271132   6.872   2.398   5.195 -0.6566  0.2981 -1.2376
19803SOL     OW71133  10.999  11.586   2.334 -0.1452 -0.1674 -0.6584
19803SOL    HW171134  11.027  11.629   2.415 -1.6004  0.9589 -0.6973
19803SOL    HW271135  11.027  11.646   2.265  0.5279 -0.8102 -0.9488
19804SOL     OW71136  13.557   8.609   5.938  0.2776  0.2944  0.0993
19804SOL    HW171137  13.516   8.696   5.942  0.0721  0.2138 -0.1710
19804SOL    HW271138  13.644   8.626   5.902 -0.7243  0.1052 -2.7070
19805SOL     OW71139   1.231   5.078   1.172 -0.0270  0.3679 -0.3303
19805SOL    HW171140   1.309   5.133   1.182  0.1226  0.0904  0.0404
19805SOL    HW271141   1.196   5.070   1.261 -2.2582  3.0417 -0.8231
19806SOL     OW71142   6.366   4.197   8.573  0.0153 -0.2784  0.2239
19806SOL    HW171143   6.285   4.237   8.542  0.8811  0.4309 -1.2774
19806SOL    HW271144   6.428   4.270   8.577  0.5062 -0.7385  1.6924
19807SOL     OW71145  10.567   7.446   7.933  0.1434  0.5647 -0.3820
19807SOL    HW171146  10.509   7.370   7.924 -2.9896  2.1544  3.5092
19807SOL    HW271147  10.651   7.408   7.958  0.0145 -1.7102 -2.9166
19808SOL     OW71148   4.535   2.641   2.212 -0.2567 -0.1552 -0.1450
19808SOL    HW171149   4.622   2.633   2.253 -1.6502 -0.8770  3.0134
19808SOL    HW271150   4.536   2.727   2.170  1.9300 -0.1007 -0.1103
19809SOL     OW71151  10.040  10.349   4.730 -0.2565  0.1952  0.5645
19809SOL    HW171152   9.987  10.296   4.789  0.8582  0.1488  1.5569
19809SOL    HW271153   9.996  10.435   4.729 -2.1508 -0.7000 -1.1713
19810SOL     OW71154  11.558  11.638  12.950  0.1065 -0.5438  0.6031
19810SOL    HW171155  11.519  11.657  13.036 -2.1844 -0.2750 -0.4351
19810SOL    HW271156  11.532  11.547  12.932  0.6713 -0.6329  0.2330
19811SOL     OW71157  11.342   9.866   0.496  0.2024 -0.2243  0.5061
19811SOL    HW171158  11.322   9.917   0.574  2.6742 -0.4416  1.3774
19811SOL    HW271159  11.407   9.918   0.449  0.5001 -1.1596 -0.1677
19812SOL     OW71160   0.247  12.535  12.347  1.0753 -0.2849  0.3119
19812SOL    HW171161   0.192  12.494  12.280  1.7140 -0.4430 -0.1233
19812SOL    HW271162   0.221  12.627  12.347 -1.4173 -0.8533  2.3006
19813SOL     OW71163   3.078   9.850   8.055  0.0552  0.1607  0.4274
19813SOL    HW171164   3.052   9.852   8.147 -0.3904 -3.9075  0.5737
19813SOL    HW271165   3.172   9.829   8.058  0.1196  0.3785 -0.0625
19814SOL     OW71166   3.303   6.749  12.592  0.2249  0.2122 -0.8517
19814SOL    HW171167   3.226   6.704  12.627  0.3947 -0.4083 -1.2510
19814SOL    HW271168   3.284   6.842  12.603 -0.2328  0.0530 -0.2131
19815SOL     OW71169   6.172  10.770   8.931  0.3527  0.1695 -0.0020
19815SOL    HW171170   6.081  10.767   8.961 -0.4171  3.4399 -1.5828
19815SOL    HW271171   6.223  10.751   9.009 -1.6468  0.6361  1.5121
19816SOL     OW71172   1.173  13.590   5.011  0.0449 -0.7757  0.2262
19816SOL    HW171173   1.142  13.502   4.992  0.2502 -0.7303 -0.3387
19816SOL    HW271174   1.267  13.579   5.027  0.0807 -0.6567  0.1036
19817SOL     OW71175  12.109   5.600  11.930 -0.0386  0.0782 -0.6424
19817SOL    HW171176  12.044   5.574  11.995  0.9026  0.2953  0.4240
19817SOL    HW271177  12.062   5.601  11.847 -1.3614  0.1372  0.0903
19818SOL     OW71178   3.183  13.067   5.148 -0.2210 -0.1207  0.0503
19818SOL    HW171179   3.190  13.162   5.136 -0.2157  0.2436  2.5045
19818SOL    HW271180   3.133  13.057   5.229 -1.6443 -2.2674 -1.0131
19819SOL     OW71181   1.375   7.882   4.889 -0.3211  0.5966 -0.1592
19819SOL    HW171182   1.375   7.967   4.932  0.1436  1.0754 -1.0718
19819SOL    HW271183   1.466   7.868   4.863 -0.6999  0.6279 -1.5541
19820SOL     OW71184   1.715   1.987   2.074  0.3491 -0.6656 -0.1717
19820SOL    HW171185   1.703   2.061   2.015 -0.0964 -1.1326 -0.6709
19820SOL    HW271186   1.644   1.927   2.051  1.4272 -1.7931 -0.5963
19821SOL     OW71187  11.090   1.501   9.813 -0.5433  0.3487 -0.7771
19821SOL    HW171188  11.093   1.591   9.847 -2.3079 -0.0239  0.5159
19821SOL    HW271189  11.048   1.509   9.728 -1.5550  0.6956 -0.2706
19822SOL     OW71190   1.965   5.707  12.138 -0.3428  0.4845  0.5304
19822SOL    HW171191   1.987   5.664  12.055 -1.1804 -0.1896  0.6469
19822SOL    HW271192   2.049   5.715  12.183  0.1336  0.9213 -0.4103
19823SOL     OW71193   2.279   0.353   7.567 -0.1261 -0.0868 -0.2928
19823SOL    HW171194   2.314   0.278   7.519  2.1778 -0.0118  1.1298
19823SOL    HW271195   2.318   0.345   7.654 -1.6619  1.5258  0.5987
19824SOL     OW71196   8.592  10.555   2.763  0.0842 -0.1237 -0.5252
19824SOL    HW171197   8.614  10.509   2.682 -0.1885 -2.5901  0.6954
19824SOL    HW271198   8.671  10.602   2.787  0.8345 -1.0049 -1.2187
19825SOL     OW71199   1.558   0.784  11.732  0.5574 -0.1801 -0.0822
19825SOL    HW171200   1.542   0.696  11.766  0.0596  0.4347  1.3596
19825SOL    HW271201   1.577   0.771  11.639 -0.5924 -1.6988 -0.1414
19826SOL     OW71202  12.022   0.143  11.557 -0.6088  0.2795  0.0640
19826SOL    HW171203  12.101   0.095  11.529 -0.7060  0.0991  0.0949
19826SOL    HW271204  12.007   0.114  11.647 -1.2456 -0.4054 -0.2531
19827SOL     OW71205   9.749   3.067  13.560  0.2767  0.0757 -0.0020
19827SOL    HW171206   9.799   2.987  13.577  2.5549  1.2566 -0.6834
19827SOL    HW271207   9.729   3.064  13.467 -2.3776 -1.1029  0.5354
19828SOL     OW71208  13.148   0.888   5.458 -0.4807 -0.1879 -0.3742
19828SOL    HW171209  13.227   0.876   5.405 -0.3153  1.0071 -0.4239
19828SOL    HW271210  13.124   0.980   5.444 -1.5411 -0.3828  0.1087
19829SOL     OW71211   4.248   2.198  13.355  0.1501 -0.1052 -0.3350
19829SOL    HW171212   4.334   2.168  13.326 -0.3663  0.1535 -2.3183
19829SOL    HW271213   4.260   2.220  13.447  1.7525 -1.7014 -0.1069
19830SOL     OW71214   1.842   8.529   5.891  0.4998  0.0823  0.0880
19830SOL    HW171215   1.907   8.469   5.928  1.1283  1.4583  1.3377
19830SOL    HW271216   1.894   8.593   5.842 -0.0719  0.2609 -0.3007
19831SOL     OW71217   9.023   4.690  13.377  0.3403 -0.1065  0.7179
19831SOL    HW171218   9.018   4.733  13.291  1.1555 -0.2904  0.5665
19831SOL    HW271219   9.005   4.760  13.440 -0.5692 -0.0351  0.3905
19832SOL     OW71220   7.542   0.557   8.609 -0.1256  0.3915  0.1030
19832SOL    HW171221   7.481   0.606   8.553 -0.0587  1.1912  0.7062
19832SOL    HW271222   7.607   0.623   8.636  0.7452 -0.3448 -0.1577
19833SOL     OW71223   2.094   7.212   2.075 -0.3416 -0.0545  0.7312
19833SOL    HW171224   2.069   7.177   1.990 -1.1739  0.4312  0.7734
19833SOL    HW271225   2.063   7.146   2.138  0.1675 -0.3547  0.6780
19834SOL     OW71226   9.224   5.829  12.343 -0.3993  0.5040 -0.1402
19834SOL    HW171227   9.234   5.755  12.283  1.9245  0.6597 -0.0348
19834SOL    HW271228   9.133   5.823  12.374 -0.9738 -0.8971 -1.9243
19835SOL     OW71229   0.772   6.192   8.918  0.7395 -0.0649  0.2404
19835SOL    HW171230   0.686   6.210   8.880  1.1488 -0.8012 -1.0833
19835SOL    HW271231   0.786   6.099   8.903  1.4424 -0.1192  1.1550
19836SOL     OW71232  12.129   3.416  12.891  0.2863  0.0272  0.3909
19836SOL    HW171233  12.142   3.354  12.962 -0.4694 -0.2688  0.2799
19836SOL    HW271234  12.062   3.376  12.835  1.2577  0.0035 -0.7918
19837SOL     OW71235   3.869   6.507  11.555  0.1449 -0.6696 -0.0005
19837SOL    HW171236   3.902   6.424  11.590  2.4384  1.0540  2.2937
19837SOL    HW271237   3.923   6.523  11.478 -0.0252 -1.0811 -0.2119
19838SOL     OW71238   0.014   1.444   4.487  0.0474 -0.1344  0.2497
19838SOL    HW171239   0.061   1.446   4.570 -0.1480 -0.4462  0.3701
19838SOL    HW271240  -0.032   1.360   4.488  0.9961 -0.6807 -0.6991
19839SOL     OW71241   0.644  11.198   5.873 -0.4351 -0.4829 -0.1777
19839SOL    HW171242   0.729  11.202   5.830  0.1963 -0.2833  1.0468
19839SOL    HW271243   0.620  11.290   5.887 -1.7330 -0.4648 -2.1350
19840SOL     OW71244   9.240   0.877   0.846  0.4948  0.4790  0.0523
19840SOL    HW171245   9.172   0.938   0.816  1.2909  0.9418 -0.8472
19840SOL    HW271246   9.300   0.931   0.898 -0.0893 -0.0354  1.3107
19841SOL     OW71247   0.510  11.169  10.854  0.4121 -0.4079  0.6275
19841SOL    HW171248   0.605  11.175  10.848  0.3283  0.0023 -0.3914
19841SOL    HW271249   0.493  11.075  10.865  0.8860 -0.5825 -0.1112
19842SOL     OW71250  13.114  12.782   7.668 -0.0666  0.6039 -0.3435
19842SOL    HW171251  13.111  12.865   7.620  0.1103  0.9155  0.1837
19842SOL    HW271252  13.169  12.725   7.614 -0.2335  0.8094 -0.7328
19843SOL     OW71253  10.794   8.636  10.363  0.1069  0.3800 -0.3502
19843SOL    HW171254  10.739   8.558  10.367  1.1433 -0.5228 -2.1799
19843SOL    HW271255  10.826   8.638  10.272  1.3342  2.0735  0.0708
19844SOL     OW71256   1.459   4.962   6.174 -0.3129 -0.3049 -0.1347
19844SOL    HW171257   1.461   5.053   6.145 -0.0436 -0.4432 -0.5712
19844SOL    HW271258   1.533   4.955   6.235 -1.7195  0.3434  1.7453
19845SOL     OW71259   6.656   6.822   5.246 -0.0121  0.2263 -0.0046
19845SOL    HW171260   6.630   6.826   5.154 -1.1704 -0.2398  0.2789
19845SOL    HW271261   6.689   6.910   5.265 -2.4001  1.2504 -0.1600
19846SOL     OW71262   6.389  12.156   7.233 -0.3730  0.3273  0.1528
19846SOL    HW171263   6.441  12.222   7.279 -0.8254  0.6867  0.1605
19846SOL    HW271264   6.370  12.089   7.299  1.2622 -0.5304 -0.1953
19847SOL     OW71265   8.854   4.277   1.686 -0.7022  0.2858  0.1620
19847SOL    HW171266   8.851   4.323   1.602  1.3837 -0.7049 -0.5027
19847SOL    HW271267   8.892   4.340   1.747  0.8387 -0.0547 -0.4217
19848SOL     OW71268   1.560   4.359   6.793  0.1922  0.5258 -0.4167
19848SOL    HW171269   1.524   4.271   6.788 -0.2272  0.6841 -0.2399
19848SOL    HW271270   1.543   4.397   6.706  3.3372 -0.6708 -1.7051
19849SOL     OW71271   2.333   7.434   4.617  0.0256  0.6819 -0.0453
19849SOL    HW171272   2.424   7.409   4.603  0.5941  2.4773  0.1784
19849SOL    HW271273   2.313   7.402   4.705  0.3332 -0.0071 -0.2238
19850SOL     OW71274  11.154   2.985  13.406  0.0854  0.1948  0.3416
19850SOL    HW171275  11.140   3.016  13.317  0.8075  0.4049  0.3005
19850SOL    HW271276  11.204   2.904  13.396 -0.2116 -0.0194  0.5406
19851SOL     OW71277   0.496  13.175   6.613 -0.3889 -0.1845  0.5099
19851SOL    HW171278   0.537  13.166   6.699  3.1776 -0.0294 -1.0053
19851SOL    HW271279   0.486  13.085   6.582  1.0691 -0.1974 -0.0090
19852SOL     OW71280   3.766   7.546   9.629 -0.1748  0.4684  0.1326
19852SOL    HW171281   3.844   7.568   9.680  0.6752  0.4773 -1.1262
19852SOL    HW271282   3.765   7.609   9.557 -1.8846  1.0749  0.6257
19853SOL     OW71283   9.354  11.638  13.135  0.1757 -0.0919 -0.1400
19853SOL    HW171284   9.338  11.724  13.095 -0.4380 -1.4128 -3.0633
19853SOL    HW271285   9.289  11.581  13.093  3.2213 -2.8058 -1.5646
19854SOL     OW71286  12.380   5.800   5.914 -0.1079 -0.8207  0.3658
19854SOL    HW171287  12.419   5.714   5.928  0.4410 -0.3694  1.7854
19854SOL    HW271288  12.454   5.861   5.917 -0.4601 -0.2982 -0.8587
19855SOL     OW71289  10.339   3.025   7.638  0.2029  0.1679 -0.0545
19855SOL    HW171290  10.383   3.001   7.719 -1.6916 -1.4991  0.5675
19855SOL    HW271291  10.320   2.941   7.595 -1.3075  0.8575 -0.8273
19856SOL     OW71292  10.185   6.635   8.391  0.3470 -0.2116  0.0533
19856SOL    HW171293  10.260   6.584   8.358 -0.2669 -2.6102  2.1326
19856SOL    HW271294  10.125   6.638   8.317  1.2937 -0.6811 -0.7709
19857SOL     OW71295  10.232  13.189   9.878  0.3403  0.4083  0.7823
19857SOL    HW171296  10.224  13.236   9.961  2.2913  0.2005  1.1503
19857SOL    HW271297  10.294  13.241   9.827 -1.9416  1.3568 -1.2273
19858SOL     OW71298   0.219   9.982   3.339 -0.2129  0.0086  0.0611
19858SOL    HW171299   0.251  10.061   3.383 -0.4867 -0.1139  0.4905
19858SOL    HW271300   0.210   9.918   3.410  0.6868 -0.6322 -0.3857
19859SOL     OW71301   6.071  11.216   4.927 -0.5631  0.3784  0.0250
19859SOL    HW171302   6.161  11.189   4.942  0.0961  2.3898 -0.0190
19859SOL    HW271303   6.053  11.189   4.837 -0.1199 -0.2922  0.1279
19860SOL     OW71304  10.110   6.140   9.326 -0.0920  0.7368  0.4631
19860SOL    HW171305  10.184   6.082   9.341 -0.9862 -0.2471  1.1995
19860SOL    HW271306  10.135   6.192   9.250  0.8309 -0.4411 -0.0653
19861SOL     OW71307   8.387   9.335   8.249 -0.0686  0.1386 -0.0319
19861SOL    HW171308   8.352   9.405   8.303  2.2217  0.9992  0.4276
19861SOL    HW271309   8.312   9.307   8.196 -1.3784  1.9872  0.7172
19862SOL     OW71310  13.575   6.375   1.825  0.3519  0.8565  0.3302
19862SOL    HW171311  13.664   6.390   1.855  0.6841  1.8033 -0.9966
19862SOL    HW271312  13.585   6.328   1.742 -0.3923  0.6113  0.3732
19863SOL     OW71313  11.666   0.781   4.726 -0.7608  0.1647 -0.1330
19863SOL    HW171314  11.686   0.753   4.636 -0.9856 -0.0198 -0.1282
19863SOL    HW271315  11.573   0.760   4.736 -0.3199 -1.5325  0.7679
19864SOL     OW71316  12.060  12.547  12.075 -0.4549  0.5690 -0.3191
19864SOL    HW171317  12.114  12.625  12.067 -0.8938  0.9451  0.2481
19864SOL    HW271318  11.985  12.564  12.017 -0.0320  0.1038 -1.0105
19865SOL     OW71319   7.844  13.439  11.112 -0.3010  0.5909 -0.8514
19865SOL    HW171320   7.783  13.497  11.159  0.1376  0.1163  0.3202
19865SOL    HW271321   7.925  13.489  11.107  0.1121  0.0623  0.2589
19866SOL     OW71322   4.780   6.730   8.766 -0.2265  0.2978 -0.4525
19866SOL    HW171323   4.805   6.814   8.726 -0.0635  0.8415  0.7516
19866SOL    HW271324   4.781   6.747   8.860 -0.7910 -0.8993 -0.2107
19867SOL     OW71325   5.822   2.632  12.806 -0.1025  0.1749 -0.2570
19867SOL    HW171326   5.733   2.667  12.816 -0.8985 -1.1769 -1.9847
19867SOL    HW271327   5.877   2.709  12.794 -0.9501  1.0602  1.1818
19868SOL     OW71328   9.485  12.989   0.486 -0.5411  0.4559  0.3952
19868SOL    HW171329   9.528  12.969   0.403 -1.7740  0.4675 -0.2664
19868SOL    HW271330   9.392  12.974   0.469 -1.0694  2.5612  1.1185
19869SOL     OW71331   8.354   0.222   4.422 -0.4793  0.7986 -0.0622
19869SOL    HW171332   8.385   0.176   4.343  1.7088  0.2649  1.0345
19869SOL    HW271333   8.284   0.166   4.455  0.0219 -0.1073 -0.4757
19870SOL     OW71334   8.225   5.346  11.789 -0.2841  0.4214  0.9928
19870SOL    HW171335   8.181   5.367  11.872 -0.4656  0.7819  0.8098
19870SOL    HW271336   8.165   5.287  11.744  0.7249 -1.4480  1.9915
19871SOL     OW71337   0.723   7.070   4.013  0.5589 -0.4853  0.1778
19871SOL    HW171338   0.783   7.138   3.983 -0.8179  0.3051 -0.8773
19871SOL    HW271339   0.735   7.068   4.108  1.8067  0.0740  0.0460
19872SOL     OW71340   9.811   9.819   2.563  0.2993 -0.4259 -0.1287
19872SOL    HW171341   9.718   9.799   2.556 -0.1790  0.7254  1.8497
19872SOL    HW271342   9.814   9.902   2.612  2.3616 -0.4948 -0.0287
19873SOL     OW71343   4.887   7.749   3.502  0.1201 -0.2595  0.3802
19873SOL    HW171344   4.842   7.800   3.569  0.3199  0.0547  0.2834
19873SOL    HW271345   4.841   7.666   3.498 -0.6734  0.1847  0.0402
19874SOL     OW71346   7.039   4.317  10.344 -0.3773  1.1121 -0.0148
19874SOL    HW171347   7.072   4.295  10.432 -2.3392 -0.7480  0.3633
19874SOL    HW271348   6.944   4.322  10.356 -0.7472  0.1072 -2.1423
19875SOL     OW71349  10.103   8.005   7.154 -0.5092  0.1646  0.0388
19875SOL    HW171350  10.112   7.910   7.150 -0.2960  0.1497  0.6742
19875SOL    HW271351  10.011   8.023   7.135 -1.3298 -0.4088  2.9375
19876SOL     OW71352  10.502   4.113   5.001 -0.2561  0.0341  0.3935
19876SOL    HW171353  10.472   4.181   4.941 -2.4321 -1.6887 -0.6466
19876SOL    HW271354  10.511   4.157   5.085 -0.3894  1.8449 -0.4873
19877SOL     OW71355  12.476   4.575   9.673  0.1322 -0.3003 -0.4248
19877SOL    HW171356  12.447   4.649   9.725 -1.6691 -0.6751 -0.8442
19877SOL    HW271357  12.505   4.510   9.737 -0.2746 -0.0407  0.0232
19878SOL     OW71358   7.659  12.865   0.704  0.1700 -0.6907  0.3266
19878SOL    HW171359   7.755  12.868   0.704  0.1643 -0.3628  0.0007
19878SOL    HW271360   7.636  12.815   0.782  0.5607  1.4980  1.9680
19879SOL     OW71361   6.398   8.793   9.819 -0.6222 -0.0846  0.1214
19879SOL    HW171362   6.336   8.750   9.760 -0.7849 -0.0875  0.2936
19879SOL    HW271363   6.473   8.733   9.824 -0.0117  0.5250 -1.1446
19880SOL     OW71364   6.253  12.933  12.897 -0.0399 -0.1654 -0.0362
19880SOL    HW171365   6.165  12.896  12.901 -0.4617  0.9013  1.3005
19880SOL    HW271366   6.302  12.872  12.843 -0.8185 -2.3892  1.6156
19881SOL     OW71367   2.000  13.074   0.626  0.6881  0.1596  0.3186
19881SOL    HW171368   1.979  13.035   0.541  0.0560 -0.2442  0.6470
19881SOL    HW271369   2.092  13.097   0.620  0.1024  2.3761 -1.3478
19882SOL     OW71370  12.770  12.297   4.976 -0.1436 -0.9557 -0.2050
19882SOL    HW171371  12.689  12.328   4.936 -0.8224 -0.1811  1.6715
19882SOL    HW271372  12.748  12.211   5.011  0.3920 -1.5414 -1.2395
19883SOL     OW71373   8.914   6.350   4.260 -0.4465 -0.9215  0.2713
19883SOL    HW171374   8.880   6.440   4.260 -0.8423 -1.0680  0.0747
19883SOL    HW271375   8.889   6.316   4.174 -0.8668 -1.4309  0.5883
19884SOL     OW71376   4.474   8.497   9.288  0.6411  0.3765  1.2698
19884SOL    HW171377   4.440   8.520   9.374 -3.2118  0.0430  0.0349
19884SOL    HW271378   4.458   8.574   9.234 -0.5265 -0.6676  0.0548
19885SOL     OW71379   2.208   2.086  13.652 -0.1802  0.0837 -0.4095
19885SOL    HW171380   2.144   2.155  13.634  1.9032  2.0140 -0.9588
19885SOL    HW271381   2.184   2.052  13.738 -0.9871  1.8915  0.1311
19886SOL     OW71382   0.405   8.367   9.403 -0.1703 -0.3409  0.2761
19886SOL    HW171383   0.452   8.402   9.479  1.7782 -0.4278 -0.8298
19886SOL    HW271384   0.474   8.343   9.341 -1.6631 -1.3657 -1.0628
19887SOL     OW71385   9.575  11.421  13.663  1.0953  0.0704  0.4118
19887SOL    HW171386   9.646  11.457  13.716 -0.1810  1.5022  1.2167
19887SOL    HW271387   9.501  11.414  13.723 -0.5488  2.2199 -1.2056
19888SOL     OW71388   0.286   7.500  11.147 -0.0739  0.3380  0.4208
19888SOL    HW171389   0.299   7.432  11.082 -0.8968  0.1866  0.3945
19888SOL    HW271390   0.362   7.557  11.139  1.0529 -1.0165  1.0002
19889SOL     OW71391   0.651   7.886   5.127  0.1325  0.3901  0.4516
19889SOL    HW171392   0.659   7.923   5.215  0.4171 -1.1661  1.1068
19889SOL    HW271393   0.628   7.795   5.141  0.8493 -0.0563 -1.0770
19890SOL     OW71394   6.082   6.858   4.454  0.5355  0.2120  0.0476
19890SOL    HW171395   6.052   6.775   4.417  0.0879  0.7782 -0.8993
19890SOL    HW271396   6.016   6.880   4.520  1.0243 -0.5145  0.7938
19891SOL     OW71397   1.196   6.706   6.385  0.1778 -0.6224 -0.2624
19891SOL    HW171398   1.221   6.668   6.469  0.5335 -0.5331 -0.3280
19891SOL    HW271399   1.275   6.748   6.353 -0.0990 -0.1897 -0.3911
19892SOL     OW71400  13.554   7.750   8.887 -0.1110 -0.0903 -0.5512
19892SOL    HW171401  13.581   7.658   8.882  1.4910  0.3889 -1.4015
19892SOL    HW271402  13.574   7.776   8.977  1.5402  0.0140 -0.9289
19893SOL     OW71403   6.400   0.542  11.611  0.4907 -0.2807  0.0027
19893SOL    HW171404   6.354   0.528  11.529 -1.2661  0.6614  0.7651
19893SOL    HW271405   6.468   0.606  11.590 -1.5933  1.9862 -0.2626
19894SOL     OW71406  11.907   4.276   4.840 -0.1904 -0.1961 -0.8860
19894SOL    HW171407  11.877   4.359   4.803 -0.5623 -0.4640 -1.1991
19894SOL    HW271408  11.911   4.217   4.764  0.4984 -0.3443 -0.7406
19895SOL     OW71409   8.397  10.661   8.295  0.2019 -0.0114  0.0295
19895SOL    HW171410   8.480  10.624   8.265  0.5240  0.3495  0.4740
19895SOL    HW271411   8.409  10.677   8.388 -1.1588 -2.1475  0.6626
19896SOL     OW71412   1.178  12.857   1.328  0.2035 -0.1076  0.3944
19896SOL    HW171413   1.218  12.778   1.364  3.5819  1.2523 -0.0365
19896SOL    HW271414   1.163  12.914   1.404 -0.1697 -0.3000  0.4672
19897SOL     OW71415  11.882   4.125   7.357 -0.2426  0.0854  0.0416
19897SOL    HW171416  11.905   4.161   7.442 -3.4841  0.4555  0.9056
19897SOL    HW271417  11.843   4.199   7.310 -1.9597 -0.9517 -0.2492
19898SOL     OW71418  10.356   1.105   3.101 -0.1543  0.7764  0.2191
19898SOL    HW171419  10.392   1.184   3.142  1.1667  1.9702 -2.9129
19898SOL    HW271420  10.323   1.135   3.016 -1.1815 -1.7905 -0.3752
19899SOL     OW71421   1.272   2.245   3.261 -0.0731 -0.4640  0.5671
19899SOL    HW171422   1.230   2.331   3.259 -1.1250 -0.9129  1.7981
19899SOL    HW271423   1.359   2.260   3.223 -0.3815  1.0485  0.3836
19900SOL     OW71424  12.936   9.392   9.644 -0.0529 -0.2436 -0.2356
19900SOL    HW171425  12.941   9.461   9.710  2.0810  0.1805 -0.7595
19900SOL    HW271426  12.843   9.378   9.630 -0.5749  2.6483 -0.2383
19901SOL     OW71427   4.497   1.116   6.022 -0.3869  0.4346  0.4720
19901SOL    HW171428   4.429   1.052   6.002  0.9327 -1.0400  0.4856
19901SOL    HW271429   4.488   1.182   5.953 -2.0303  0.4849  0.6840
19902SOL     OW71430   5.027  13.005   8.220 -0.2353  0.6355 -0.2573
19902SOL    HW171431   4.990  13.054   8.294 -0.8291 -0.7847  0.4343
19902SOL    HW271432   5.101  12.957   8.258 -2.0843 -2.1507  0.1426
19903SOL     OW71433  13.644  12.805   7.051  0.0514 -0.3801  0.3706
19903SOL    HW171434  13.733  12.772   7.038  0.2853  0.2953  0.2269
19903SOL    HW271435  13.652  12.867   7.123 -0.3037 -0.3057  0.3492
19904SOL     OW71436   9.321   6.755   6.955 -0.2958  0.1027 -1.0228
19904SOL    HW171437   9.294   6.663   6.952  2.5119 -0.8225 -0.8914
19904SOL    HW271438   9.327   6.781   6.863 -1.9309  0.4929 -1.0553
19905SOL     OW71439   7.025   1.614   5.381 -0.0310  0.2254  0.4984
19905SOL    HW171440   7.029   1.555   5.456  1.7287  1.7128  1.6837
19905SOL    HW271441   7.036   1.557   5.305 -0.5666 -1.1788  1.4389
19906SOL     OW71442   2.504   9.107   3.254 -0.5163 -0.2578 -0.3089
19906SOL    HW171443   2.497   9.198   3.223  2.5108  1.5349  3.4505
19906SOL    HW271444   2.443   9.102   3.327 -0.1148 -1.0189 -0.0172
19907SOL     OW71445   8.391   8.956   0.595  0.1470  0.4854  0.0771
19907SOL    HW171446   8.310   9.002   0.620 -0.2578  0.9194 -1.8620
19907SOL    HW271447   8.368   8.911   0.514  2.1486  1.6087 -1.1957
19908SOL     OW71448  12.474   8.216   1.204  0.4588  0.2099 -0.0899
19908SOL    HW171449  12.468   8.166   1.285  0.8215 -1.3427 -0.9899
19908SOL    HW271450  12.563   8.203   1.173  0.0583  0.0051 -1.2179
19909SOL     OW71451  12.629   4.387   4.272 -0.2222 -0.3668 -0.0414
19909SOL    HW171452  12.606   4.302   4.308 -1.9737 -0.6720 -1.7677
19909SOL    HW271453  12.717   4.375   4.236 -0.0848 -1.1599  0.5334
19910SOL     OW71454   5.683   8.269  13.459  0.0183  0.5393 -0.2978
19910SOL    HW171455   5.705   8.231  13.374 -0.4436  1.8200 -1.0179
19910SOL    HW271456   5.737   8.220  13.522  0.1729 -0.6006 -1.2803
19911SOL     OW71457  11.561   6.798   1.199  0.6695 -0.2452 -0.3312
19911SOL    HW171458  11.503   6.742   1.251 -0.6524  1.3114 -0.0642
19911SOL    HW271459  11.618   6.839   1.264 -0.0763  0.6488 -0.2125
19912SOL     OW71460   4.887  12.215  11.668  0.1807  0.6193  0.3158
19912SOL    HW171461   4.806  12.217  11.720  0.6614  0.6770  1.0828
19912SOL    HW271462   4.899  12.305  11.638  0.6381  0.9152  1.3074
19913SOL     OW71463  13.110   9.515   0.543 -0.5681  0.0539  0.3199
19913SOL    HW171464  13.135   9.546   0.456  0.4860 -0.6262  0.3656
19913SOL    HW271465  13.020   9.485   0.533 -0.6989  0.6543 -0.3591
19914SOL     OW71466   6.319   4.515  12.224  0.0787  0.5696 -0.3042
19914SOL    HW171467   6.280   4.434  12.257  1.3916  0.1388  0.2699
19914SOL    HW271468   6.273   4.584  12.273  0.2587  0.0655  0.6106
19915SOL     OW71469   0.407   7.602  12.101  0.0552  0.3904 -0.1628
19915SOL    HW171470   0.386   7.694  12.087  0.7407  0.7620  1.1296
19915SOL    HW271471   0.330   7.555  12.070 -0.1914  1.3760 -1.0903
19916SOL     OW71472   3.033  11.172  12.576  0.4122  0.1356  0.0487
19916SOL    HW171473   3.041  11.089  12.623  0.6390  0.0196 -0.1918
19916SOL    HW271474   2.979  11.152  12.500 -2.0423  0.8485  1.4993
19917SOL     OW71475   1.132   9.099   1.463  0.4100 -0.6014  0.4018
19917SOL    HW171476   1.198   9.114   1.531  0.4693  0.4378  0.1348
19917SOL    HW271477   1.050   9.127   1.502  0.8442  3.0868 -0.8908
19918SOL     OW71478   3.440   2.128  12.530 -0.1502  0.5115 -0.7004
19918SOL    HW171479   3.523   2.083  12.520  0.2281  1.1028 -0.2868
19918SOL    HW271480   3.413   2.110  12.620 -0.1331  0.8682 -0.6201
19919SOL     OW71481  11.231   0.153   6.156 -0.6656  0.0506  0.0827
19919SOL    HW171482  11.218   0.059   6.152  3.4665 -0.7876  1.3343
19919SOL    HW271483  11.224   0.183   6.066  1.2930 -2.1044 -0.8710
19920SOL     OW71484  12.887   5.052   9.709 -0.5071  0.3356 -1.2898
19920SOL    HW171485  12.904   5.140   9.676  2.2222  0.2601 -0.3923
19920SOL    HW271486  12.953   4.997   9.666 -1.1464 -0.9775 -0.6593
19921SOL     OW71487  11.894  10.921  11.828  0.4439  0.3944 -0.8598
19921SOL    HW171488  11.862  10.987  11.890  1.6679  0.7999 -0.6274
19921SOL    HW271489  11.881  10.838  11.873  4.0407  0.8066  1.3838
19922SOL     OW71490   1.946  12.510   1.686 -0.4036 -0.2062 -0.0716
19922SOL    HW171491   2.030  12.482   1.650 -0.1010  0.8225 -0.1821
19922SOL    HW271492   1.907  12.429   1.720 -1.0800 -1.4602 -3.4063
19923SOL     OW71493  13.694   3.734   5.158 -0.2606 -0.3314 -0.2178
19923SOL    HW171494  13.729   3.815   5.195  1.8121 -1.7069  0.9952
19923SOL    HW271495  13.660   3.760   5.072  0.3565  1.7965  0.1241
19924SOL     OW71496   6.602   2.569   7.054  0.7442 -0.3404  0.2798
19924SOL    HW171497   6.593   2.550   6.960  1.7417 -0.3613  0.1745
19924SOL    HW271498   6.643   2.656   7.056  1.6565 -0.7642  0.6678
19925SOL     OW71499  11.363  11.474   5.847  0.2632 -0.1933  0.0241
19925SOL    HW171500  11.384  11.564   5.873  2.5044 -0.1545 -1.5271
19925SOL    HW271501  11.339  11.482   5.754 -0.7991 -1.0602  0.2147
19926SOL     OW71502   1.657   0.715  12.392 -0.1864 -0.0010  0.0810
19926SOL    HW171503   1.648   0.635  12.445 -0.9084  0.2373  0.3317
19926SOL    HW271504   1.602   0.779  12.436  0.5469  0.7044 -0.0067
19927SOL     OW71505   9.630   7.576  13.277  0.0577 -0.0647  0.2437
19927SOL    HW171506   9.692   7.647  13.261  1.7653 -1.9328 -2.0760
19927SOL    HW271507   9.591   7.559  13.192 -0.5120 -1.7532  0.8039
19928SOL     OW71508  10.079   6.584   5.066  0.1070 -0.0362 -0.1262
19928SOL    HW171509  10.082   6.516   5.133  0.4397  0.7526  0.6887
19928SOL    HW271510   9.994   6.572   5.024  0.5682 -1.5598 -0.6784
19929SOL     OW71511   3.933   7.017   6.705  0.1659  0.2214  0.1640
19929SOL    HW171512   3.943   7.081   6.776 -0.7498 -0.6447  1.1061
19929SOL    HW271513   3.923   6.933   6.750 -2.7194 -0.0745 -0.8273
19930SOL     OW71514   3.729  10.245   8.113  0.0874 -0.3324  0.4446
19930SOL    HW171515   3.730  10.219   8.020  0.1454 -3.8809  1.2739
19930SOL    HW271516   3.724  10.340   8.111  0.1092 -0.2445 -3.1969
19931SOL     OW71517   0.019  10.249   3.094 -0.3802 -0.0114 -0.7001
19931SOL    HW171518  -0.040  10.183   3.057 -0.5745 -0.5271  0.4854
19931SOL    HW271519   0.101  10.203   3.108 -0.3833  0.1174 -0.2635
19932SOL     OW71520   6.765   7.894  10.582 -0.1085 -0.5457  0.2626
19932SOL    HW171521   6.691   7.941  10.543 -1.8136 -2.2823  1.2370
19932SOL    HW271522   6.812   7.857  10.507 -0.3241  0.4097 -0.3633
19933SOL     OW71523   9.846   1.024   1.089  0.2340  0.0843  0.3364
19933SOL    HW171524   9.778   0.995   1.150  0.1459 -1.6459 -0.5116
19933SOL    HW271525   9.813   1.107   1.054 -1.0320 -0.2850  0.5993
19934SOL     OW71526   2.084   1.188   9.955 -1.0796  0.4047  0.0163
19934SOL    HW171527   2.128   1.164  10.036  0.7140  3.1742 -0.0083
19934SOL    HW271528   2.142   1.155   9.886 -0.0039  2.2502 -0.0282
19935SOL     OW71529   4.586   0.722   8.044  0.0515 -0.2533 -0.1266
19935SOL    HW171530   4.599   0.711   7.950 -1.1204 -0.7491 -0.2421
19935SOL    HW271531   4.671   0.702   8.082  0.3984 -0.5749 -1.0423
19936SOL     OW71532   7.118  10.185   9.623  0.0527  0.7480 -0.0694
19936SOL    HW171533   7.100  10.260   9.680  0.9991  1.0140 -0.1071
19936SOL    HW271534   7.119  10.110   9.683  0.0016  0.8894  0.1100
19937SOL     OW71535  11.852   8.343   2.657 -0.2109 -0.2765 -0.3071
19937SOL    HW171536  11.870   8.290   2.734 -0.4173 -1.9057 -1.3329
19937SOL    HW271537  11.932   8.394   2.644 -0.7685  1.3382  1.9163
19938SOL     OW71538   3.139   1.467   0.828 -0.2050 -0.3856  0.3964
19938SOL    HW171539   3.219   1.415   0.837 -1.6962 -2.4439  3.3460
19938SOL    HW271540   3.107   1.446   0.740  0.4653 -2.6751  0.6415
19939SOL     OW71541   3.344   9.435  12.526  0.5688  0.3986 -0.0090
19939SOL    HW171542   3.386   9.452  12.610  0.9140 -0.4124 -0.0084
19939SOL    HW271543   3.250   9.445  12.543  0.5962 -0.3321  0.6165
19940SOL     OW71544  11.085   8.927   7.904 -0.0578  0.7862  0.0909
19940SOL    HW171545  11.131   8.995   7.953 -0.7103  0.3188  1.3940
19940SOL    HW271546  11.126   8.929   7.818  0.1079  2.6515  0.1606
19941SOL     OW71547   7.114  13.382  12.777  0.0055 -0.1199 -0.3209
19941SOL    HW171548   7.053  13.435  12.726 -0.1701  1.5525  1.4880
19941SOL    HW271549   7.084  13.292  12.765 -1.5976  0.4819 -1.0459
19942SOL     OW71550   1.271   2.109   4.928  0.5085  0.0927  0.2384
19942SOL    HW171551   1.218   2.031   4.940  0.2628  0.1686 -0.3038
19942SOL    HW271552   1.351   2.078   4.885  1.7221 -0.2956  2.6195
19943SOL     OW71553   0.665  11.143   3.624 -0.1464  0.0773 -0.0855
19943SOL    HW171554   0.612  11.065   3.607  0.1047  0.0664 -0.8615
19943SOL    HW271555   0.724  11.149   3.549 -0.8701  1.6115 -0.5706
19944SOL     OW71556   0.237   5.354  11.466 -0.1872  0.0471  0.1058
19944SOL    HW171557   0.305   5.288  11.476 -1.7129 -1.8856 -1.4945
19944SOL    HW271558   0.232   5.397  11.552  0.0611 -2.7690  1.6457
19945SOL     OW71559   3.434   3.575   5.069  0.5600 -0.0071 -0.4669
19945SOL    HW171560   3.398   3.532   5.147  1.6748 -1.7689 -0.8741
19945SOL    HW271561   3.510   3.623   5.101  0.9086 -0.5793 -0.4226
19946SOL     OW71562   0.644  12.010  11.837  0.0068  0.0248  0.0518
19946SOL    HW171563   0.700  11.941  11.802 -0.8673 -1.1209  0.8090
19946SOL    HW271564   0.661  12.008  11.931 -1.0189 -0.0916  0.2408
19947SOL     OW71565   0.258   3.812   5.734 -0.1989 -0.1850 -0.2757
19947SOL    HW171566   0.323   3.810   5.804 -0.7692 -0.6685  0.2487
19947SOL    HW271567   0.298   3.867   5.666  1.6734 -2.1393 -0.8686
19948SOL     OW71568   5.464  10.912   6.893  0.1444  0.4925 -0.0183
19948SOL    HW171569   5.428  10.985   6.842  0.3737  0.1730 -0.6460
19948SOL    HW271570   5.544  10.888   6.846 -0.3700 -0.7121 -0.2975
19949SOL     OW71571  10.873   2.871   5.370  0.0178 -0.3384 -0.2700
19949SOL    HW171572  10.832   2.809   5.430  0.0479  0.7476  0.9426
19949SOL    HW271573  10.962   2.837   5.357 -0.6370 -1.7017 -1.4175
19950SOL     OW71574   4.300   4.398   5.121 -0.5272 -0.5249 -0.0586
19950SOL    HW171575   4.341   4.474   5.164  0.8035 -1.8210  1.0966
19950SOL    HW271576   4.289   4.425   5.030  0.2888  0.9114  0.2348
19951SOL     OW71577   5.394  12.088   5.346 -0.0690  0.4128 -0.4377
19951SOL    HW171578   5.450  12.026   5.299 -0.8947 -0.3473 -0.4606
19951SOL    HW271579   5.428  12.088   5.436  0.7308  0.9145 -0.7301
19952SOL     OW71580   6.371  11.498   6.088  0.0563  0.0084  0.1843
19952SOL    HW171581   6.281  11.507   6.058  0.0475 -0.2617  0.1243
19952SOL    HW271582   6.402  11.587   6.100 -0.2647  0.0984  0.3381
19953SOL     OW71583   4.301  11.323  11.355  0.0999  0.0238  0.1017
19953SOL    HW171584   4.226  11.264  11.367 -1.2231  1.1734 -1.9264
19953SOL    HW271585   4.332  11.305  11.266 -0.2089  2.1760 -0.4979
19954SOL     OW71586   7.590   2.832   6.695  0.3130  0.2992 -0.2708
19954SOL    HW171587   7.511   2.818   6.747  0.7075  0.2180  0.3135
19954SOL    HW271588   7.612   2.924   6.709  0.7869  0.1115  0.2287
19955SOL     OW71589   8.491   9.745  11.719  0.0345  0.5192  0.3070
19955SOL    HW171590   8.523   9.823  11.675  0.8003 -1.1970 -2.4786
19955SOL    HW271591   8.548   9.675  11.689 -0.5991 -1.1627  2.6968
19956SOL     OW71592   0.475  12.462   4.652  0.3739  0.5782 -0.4822
19956SOL    HW171593   0.490  12.525   4.722  1.3161 -0.2756  0.1186
19956SOL    HW271594   0.490  12.377   4.694 -1.2513 -0.0804 -1.1618
19957SOL     OW71595   2.354  11.936   4.637  0.1683  0.1768  0.2720
19957SOL    HW171596   2.423  11.971   4.693  0.1748  0.2866  0.1945
19957SOL    HW271597   2.395  11.862   4.591  0.2829  0.3490  0.0974
19958SOL     OW71598   6.830   2.640   6.326 -0.0999 -0.0677  0.0469
19958SOL    HW171599   6.767   2.630   6.397 -0.0106  0.0975  0.1513
19958SOL    HW271600   6.905   2.684   6.366 -0.4583  0.9591 -0.3697
19959SOL     OW71601   9.123   4.328  13.680  0.0019  0.1586 -0.2517
19959SOL    HW171602   9.110   4.416  13.642 -3.1471  0.3102  0.8967
19959SOL    HW271603   9.045   4.279  13.653 -1.0689 -0.5529  3.5718
19960SOL     OW71604  11.749   6.496   0.483 -0.3566 -0.1155  0.4606
19960SOL    HW171605  11.690   6.421   0.492 -1.5708  0.9107  1.3433
19960SOL    HW271606  11.797   6.479   0.402 -2.3619 -0.6655 -0.6758
19961SOL     OW71607   7.086   4.252   6.218  0.2045  0.2264 -0.1403
19961SOL    HW171608   7.131   4.219   6.140 -1.3221  1.2376 -1.5096
19961SOL    HW271609   7.098   4.184   6.284  1.4843 -0.6790 -1.2580
19962SOL     OW71610   8.012   0.707   0.343  0.3064  0.2027 -0.0870
19962SOL    HW171611   8.064   0.695   0.423 -0.3284  1.5503  0.5784
19962SOL    HW271612   7.934   0.654   0.357 -0.1691  1.0401  0.5781
19963SOL     OW71613  11.438  12.245   3.951  0.2046  0.0327 -0.3402
19963SOL    HW171614  11.511  12.209   4.000 -0.3615 -0.1606  0.3785
19963SOL    HW271615  11.376  12.274   4.018 -1.2033 -1.5129 -0.9319
19964SOL     OW71616   0.603  11.945   4.896 -0.5268 -0.4887  0.5813
19964SOL    HW171617   0.670  12.007   4.928  1.1619 -1.4271 -0.9471
19964SOL    HW271618   0.593  11.883   4.967  0.2353 -0.3211  0.8515
19965SOL     OW71619  10.475   4.843   9.077  0.2001  0.0598 -0.3805
19965SOL    HW171620  10.567   4.840   9.103  0.1501 -1.5484 -0.2708
19965SOL    HW271621  10.463   4.930   9.040  1.6520  0.4505  0.0146
19966SOL     OW71622   5.680   6.315   3.411  0.4118  0.6105  0.0139
19966SOL    HW171623   5.751   6.351   3.465  0.4821 -0.4285  0.6388
19966SOL    HW271624   5.611   6.382   3.415  0.0642  0.2225  2.1269
19967SOL     OW71625   7.840   1.711  13.495 -0.0582 -0.0109 -0.2893
19967SOL    HW171626   7.919   1.755  13.528 -1.5092  0.7816  2.3937
19967SOL    HW271627   7.818   1.758  13.415  2.9965 -1.2799 -2.0607
19968SOL     OW71628   0.098   9.354  12.645 -0.3241 -0.1761  0.0001
19968SOL    HW171629   0.048   9.432  12.667  0.3992  0.6170 -1.0619
19968SOL    HW271630   0.101   9.353  12.549  2.1024  0.1081 -0.0050
19969SOL     OW71631   5.337  11.716   6.415  0.2145 -0.1917  0.5261
19969SOL    HW171632   5.261  11.685   6.464  0.4597 -0.8262  0.5192
19969SOL    HW271633   5.376  11.783   6.471 -1.4646  1.5826 -0.3475
19970SOL     OW71634   6.397   2.643   4.549 -0.6814  0.2925 -0.6551
19970SOL    HW171635   6.406   2.623   4.456  1.5948  0.9133 -0.6283
19970SOL    HW271636   6.304   2.628   4.568 -0.8794 -1.4339 -2.6222
19971SOL     OW71637  10.433   6.138  12.932  0.0175  0.3686  0.0916
19971SOL    HW171638  10.492   6.206  12.963 -0.2901 -0.6081  3.1059
19971SOL    HW271639  10.432   6.072  13.001 -1.5540 -1.5830 -1.6175
19972SOL     OW71640   0.233   9.621   8.779 -0.7886  0.4707 -0.2536
19972SOL    HW171641   0.276   9.607   8.694 -2.6922  0.5017 -1.2743
19972SOL    HW271642   0.228   9.717   8.787 -0.4725  0.4693 -0.0248
19973SOL     OW71643   7.962   9.813   7.077  0.1088 -0.3803  0.2486
19973SOL    HW171644   7.870   9.834   7.090  0.7850  3.2581  0.0704
19973SOL    HW271645   8.007   9.857   7.149  1.7905 -1.8157  0.1519
19974SOL     OW71646   5.248   0.000   6.138  0.0317  0.3963 -0.1825
19974SOL    HW171647   5.308  -0.043   6.078  1.2727  0.1409  1.1843
19974SOL    HW271648   5.211  -0.071   6.190 -0.3706  0.6817 -0.0715
19975SOL     OW71649  12.642   7.237  10.041 -0.3979 -0.2143 -0.1253
19975SOL    HW171650  12.658   7.194  10.125  1.1144 -1.1046 -0.8217
19975SOL    HW271651  12.705   7.309  10.037 -2.9698  2.2764  1.0648
19976SOL     OW71652  13.220   1.115  11.076 -0.2118  0.2551  0.0726
19976SOL    HW171653  13.267   1.060  11.014  1.3350  0.4673  1.0008
19976SOL    HW271654  13.144   1.063  11.101  0.1796 -0.6417 -0.5515
19977SOL     OW71655   2.168   5.904   9.449 -0.1731 -0.0196  0.2414
19977SOL    HW171656   2.176   5.969   9.380 -0.4640 -0.2736 -0.0324
19977SOL    HW271657   2.101   5.843   9.418  1.0349 -1.2032 -0.1055
19978SOL     OW71658   9.824   9.807   0.745 -0.2333 -0.4603 -0.2858
19978SOL    HW171659   9.919   9.804   0.741 -0.2221  0.5944 -1.6158
19978SOL    HW271660   9.803   9.796   0.837  1.1891 -0.3899  0.0634
19979SOL     OW71661  13.522   5.984   8.737 -0.1866 -0.1184 -0.0584
19979SOL    HW171662  13.539   5.905   8.788  0.1527 -0.2631 -0.3870
19979SOL    HW271663  13.494   6.049   8.801  0.2808 -0.2820  0.3177
19980SOL     OW71664   5.587   5.854   8.133  0.9140  0.7187 -0.5963
19980SOL    HW171665   5.502   5.885   8.165  1.6693  1.7380  0.5481
19980SOL    HW271666   5.636   5.934   8.113  2.2622  0.2706  0.6393
19981SOL     OW71667   8.438   2.812   3.649  0.2967 -0.2911  0.1235
19981SOL    HW171668   8.527   2.823   3.615  0.2343 -1.2368 -0.3957
19981SOL    HW271669   8.421   2.718   3.639 -1.8575  0.2575 -2.6371
19982SOL     OW71670  11.228   0.913   9.853  0.1052 -0.0550  0.5294
19982SOL    HW171671  11.237   0.917   9.948  0.1154 -2.3146  0.6766
19982SOL    HW271672  11.199   0.824   9.835  1.3544 -0.0974 -1.6768
19983SOL     OW71673  11.153   3.490   5.848 -0.1580  0.0181 -0.0590
19983SOL    HW171674  11.218   3.422   5.865 -1.5720 -0.9560  1.7796
19983SOL    HW271675  11.201   3.557   5.799  1.6735 -1.5712 -0.5765
19984SOL     OW71676   7.071   4.145   8.260 -0.5843 -0.4512  0.2038
19984SOL    HW171677   7.062   4.082   8.188  2.3848 -0.8962  0.1100
19984SOL    HW271678   7.053   4.230   8.219  2.1100 -0.5683 -1.4673
19985SOL     OW71679   9.388   7.353   1.927 -0.0407  0.6186 -0.2885
19985SOL    HW171680   9.432   7.428   1.967  2.3226 -0.8288  0.0650
19985SOL    HW271681   9.459   7.305   1.884 -1.6332 -0.8884 -1.3573
19986SOL     OW71682   6.781   3.299   9.827  1.2776  0.3603 -0.1159
19986SOL    HW171683   6.700   3.336   9.792  0.7274 -1.6481 -1.1273
19986SOL    HW271684   6.752   3.240   9.896  1.8587 -0.4193 -0.5266
19987SOL     OW71685   8.047  12.761   5.724  0.1758 -0.5164  0.3308
19987SOL    HW171686   8.067  12.687   5.782  1.5574  0.7262  1.5036
19987SOL    HW271687   7.986  12.815   5.774  0.7985  0.1854  0.3491
19988SOL     OW71688   9.538   6.556   2.795  0.4144 -0.4136 -0.6554
19988SOL    HW171689   9.476   6.604   2.849 -2.4297 -2.5046 -1.7921
19988SOL    HW271690   9.622   6.567   2.839 -0.8788  1.8248  1.5074
19989SOL     OW71691   6.486   1.168  13.202 -0.3483 -0.1732  0.3844
19989SOL    HW171692   6.483   1.173  13.298  0.2249  1.7510  0.3448
19989SOL    HW271693   6.566   1.214  13.178  0.1448 -1.6664 -0.9956
19990SOL     OW71694  12.514   4.523   0.949  0.0095 -0.0186 -0.3898
19990SOL    HW171695  12.608   4.537   0.944  0.1638 -1.2877 -3.8781
19990SOL    HW271696  12.482   4.591   1.007  2.7631  2.2473 -1.3318
19991SOL     OW71697  13.320   7.951   9.366  0.0740 -0.3331 -0.6700
19991SOL    HW171698  13.369   7.983   9.442 -0.4364  0.6545 -0.7483
19991SOL    HW271699  13.229   7.970   9.387 -0.2966 -2.0124 -0.5983
19992SOL     OW71700   1.197  11.147  11.710 -0.1331 -0.5253  0.2647
19992SOL    HW171701   1.233  11.206  11.776 -0.5931  1.0722 -0.8497
19992SOL    HW271702   1.268  11.134  11.648  0.4864 -2.4879  1.2975
19993SOL     OW71703   9.005   3.771   7.605  0.1617 -0.0220  0.5619
19993SOL    HW171704   9.013   3.739   7.516 -1.1021  1.8564 -0.3008
19993SOL    HW271705   9.006   3.693   7.660 -0.6894 -1.3455 -1.2322
19994SOL     OW71706   8.832   3.710   8.938  0.2186  0.2903  0.1958
19994SOL    HW171707   8.767   3.710   8.869 -0.1615 -0.8957  0.5263
19994SOL    HW271708   8.897   3.774   8.910 -0.4693  0.6042 -0.7269
19995SOL     OW71709  12.795  10.395   3.577 -0.5396 -0.1131  0.1973
19995SOL    HW171710  12.873  10.444   3.553 -1.0040  0.2937 -0.5426
19995SOL    HW271711  12.804  10.378   3.670 -0.2166  1.1160  0.4007
19996SOL     OW71712   9.997   0.536   1.071 -0.2548  0.0877  0.1537
19996SOL    HW171713   9.976   0.485   0.992 -1.1917  1.0670 -0.2551
19996SOL    HW271714   9.967   0.625   1.051  0.8802  0.7018  1.0424
19997SOL     OW71715  12.721   8.991  11.112 -0.0108  0.2663  0.1400
19997SOL    HW171716  12.663   9.060  11.145 -0.0531  0.8671 -1.1341
19997SOL    HW271717  12.804   9.036  11.096  0.0184 -0.0200 -0.5274
19998SOL     OW71718   0.555   3.778  12.414  0.1836  0.6288 -0.2223
19998SOL    HW171719   0.460   3.772  12.403  0.2228  0.1650 -0.3195
19998SOL    HW271720   0.591   3.721  12.347  0.5569  1.2628 -0.5753
19999SOL     OW71721   7.577  11.648   6.836  0.0479  0.4100 -0.3064
19999SOL    HW171722   7.507  11.604   6.885  0.3426  0.3133  0.0330
19999SOL    HW271723   7.574  11.738   6.867 -0.3473  0.5586 -0.7679
20000SOL     OW71724   2.019   4.728  11.101 -0.3809  0.4919 -0.2460
20000SOL    HW171725   2.094   4.725  11.160 -0.4414  0.2445 -0.1772
20000SOL    HW271726   1.958   4.789  11.143 -0.8134 -0.3678  0.4320
20001SOL     OW71727   9.216  12.530   7.589  0.3479  0.3637 -0.1921
20001SOL    HW171728   9.161  12.605   7.611 -0.5312 -0.6157  1.1035
20001SOL    HW271729   9.300  12.568   7.564 -0.6454  1.8513 -1.4073
20002SOL     OW71730   0.153   4.899   7.962 -0.2000 -0.5679 -0.2411
20002SOL    HW171731   0.173   4.806   7.960  0.5517 -0.4099 -1.3559
20002SOL    HW271732   0.210   4.935   8.029  1.1224 -0.5999 -1.2974
20003SOL     OW71733   3.684   2.079   8.262  0.1861  0.1813  0.2271
20003SOL    HW171734   3.645   1.994   8.284 -1.5419  0.8391 -0.0911
20003SOL    HW271735   3.756   2.090   8.324 -0.9565 -0.5497  1.7567
20004SOL     OW71736  11.375   3.324   7.207  0.1674  0.4713  0.3408
20004SOL    HW171737  11.457   3.275   7.205  0.1852  0.2926  2.4834
20004SOL    HW271738  11.376   3.368   7.292 -1.0260  2.1613 -0.4518
20005SOL     OW71739   6.003  12.840   7.259  0.1498  0.3296 -0.5363
20005SOL    HW171740   6.048  12.760   7.231 -0.1382  0.1129 -0.3886
20005SOL    HW271741   6.072  12.906   7.260  1.0039 -0.4839  1.9051
20006SOL     OW71742   3.962   2.386   7.892 -1.0150 -0.1064  0.1507
20006SOL    HW171743   3.992   2.376   7.983 -2.4994  0.4757  0.7279
20006SOL    HW271744   3.980   2.477   7.870 -0.7058 -0.2330 -0.1300
20007SOL     OW71745   4.317  12.189  11.555 -0.0558 -0.2643  0.3051
20007SOL    HW171746   4.222  12.204  11.556 -0.0370 -0.1358  0.9605
20007SOL    HW271747   4.351  12.251  11.490 -0.2155  1.0713  1.4557
20008SOL     OW71748   1.848   5.520   5.791  0.1539  0.1658 -0.4287
20008SOL    HW171749   1.817   5.460   5.859 -1.9395 -1.3998 -2.6211
20008SOL    HW271750   1.937   5.489   5.771 -0.1938 -0.9969 -0.2142
20009SOL     OW71751   4.252  12.283  12.028 -0.3289 -0.1031  0.6641
20009SOL    HW171752   4.247  12.319  11.940 -0.0755 -0.1437  0.6312
20009SOL    HW271753   4.319  12.336  12.071  0.1380 -0.6106  0.5766
20010SOL     OW71754   7.980   0.855   2.988 -0.2174 -0.2610 -0.5623
20010SOL    HW171755   7.946   0.942   2.966 -1.5173 -0.6313 -0.1547
20010SOL    HW271756   7.970   0.805   2.907 -3.6484 -1.2156  0.2482
20011SOL     OW71757   3.679  11.227   9.900 -0.7145 -0.3382  0.5360
20011SOL    HW171758   3.760  11.258   9.941  0.0086  0.8363 -1.6018
20011SOL    HW271759   3.699  11.137   9.872 -1.0206 -0.9354  2.1527
20012SOL     OW71760  12.818   5.020  11.016  0.1525 -0.3811 -0.1733
20012SOL    HW171761  12.899   5.023  10.965 -1.0768  0.8680 -2.1927
20012SOL    HW271762  12.755   4.974  10.960 -1.5162  1.8317 -0.2438
20013SOL     OW71763   3.032  12.200   8.612 -0.1744 -0.2698  0.0854
20013SOL    HW171764   3.113  12.154   8.591 -0.2980 -0.0234 -1.0020
20013SOL    HW271765   3.054  12.293   8.601 -0.8431 -0.2389 -1.1852
20014SOL     OW71766   2.788   8.883   9.645  0.4691 -0.3525 -0.3772
20014SOL    HW171767   2.705   8.906   9.687 -0.0900 -0.4976 -1.3901
20014SOL    HW271768   2.767   8.872   9.553  1.9845  1.6574 -1.0378
20015SOL     OW71769   7.175   8.195  10.320  0.3269 -0.1343  0.3222
20015SOL    HW171770   7.231   8.255  10.270  0.5784  0.0185  0.7797
20015SOL    HW271771   7.094   8.244  10.333  0.8805  0.4871  1.5175
20016SOL     OW71772  11.092   3.046   7.033  0.5651 -0.0157 -0.6085
20016SOL    HW171773  11.123   3.133   7.059  0.4732 -0.1625  0.0169
20016SOL    HW271774  11.007   3.036   7.077  1.2555 -1.0103  0.5966
20017SOL     OW71775   6.987   1.411   4.579  0.6313 -0.4988  0.3676
20017SOL    HW171776   6.981   1.316   4.588  1.2379 -0.6068 -0.2492
20017SOL    HW271777   6.942   1.431   4.497 -0.5539 -0.1057  1.0975
20018SOL     OW71778   0.340  12.799   7.331 -0.5568 -0.1449  0.1299
20018SOL    HW171779   0.346  12.768   7.421 -0.2248 -1.3378 -0.2797
20018SOL    HW271780   0.406  12.748   7.284 -0.4938  0.6952 -0.7277
20019SOL     OW71781   9.848   1.422   7.623 -0.6550  0.0318  0.3389
20019SOL    HW171782   9.900   1.473   7.561 -1.2625 -0.4090 -0.5593
20019SOL    HW271783   9.878   1.451   7.709  1.6777 -0.8035 -0.1125
20020SOL     OW71784   5.266   0.978  13.616 -0.4466  0.0472 -0.2630
20020SOL    HW171785   5.253   1.072  13.602  0.1710  0.2752  0.5681
20020SOL    HW271786   5.238   0.963  13.706  1.2452 -0.1695  0.2662
20021SOL     OW71787  12.242   8.566   8.555  0.0467  0.2285 -0.9411
20021SOL    HW171788  12.241   8.471   8.551 -0.6196  0.1787 -0.0284
20021SOL    HW271789  12.290   8.594   8.477  0.5255 -0.8591 -1.0441
20022SOL     OW71790   4.207   0.180   4.009 -0.3119 -0.0974 -0.0986
20022SOL    HW171791   4.112   0.176   3.996 -0.0562  0.8479 -2.8760
20022SOL    HW271792   4.217   0.236   4.086 -1.9927 -0.3142  0.3370
20023SOL     OW71793   6.787   3.428   0.086  0.0070  0.5479  0.1193
20023SOL    HW171794   6.854   3.453   0.023  0.3243 -1.1614 -0.2691
20023SOL    HW271795   6.827   3.357   0.137 -1.1629  0.1544  0.5226
20024SOL     OW71796   7.069   3.610  10.443 -0.0399 -0.5561  0.2293
20024SOL    HW171797   7.098   3.671  10.510  1.2282 -1.3770  0.4618
20024SOL    HW271798   6.995   3.653  10.401  0.5387  0.9272  0.6880
20025SOL     OW71799   5.561  10.505   8.166 -0.0031 -0.1072  0.8885
20025SOL    HW171800   5.560  10.489   8.260  1.2857  0.3500  0.9855
20025SOL    HW271801   5.493  10.446   8.132  1.2646 -2.2300  1.8023
20026SOL     OW71802   3.631  10.102   1.583 -0.4401 -0.0009  0.2664
20026SOL    HW171803   3.613  10.037   1.652 -0.1767  0.7750  1.0879
20026SOL    HW271804   3.726  10.099   1.573 -0.2819  1.1049  1.1923
20027SOL     OW71805  13.546   6.114   7.597  0.3706  0.1229 -0.2481
20027SOL    HW171806  13.456   6.120   7.629  0.4486  0.2300 -0.0436
20027SOL    HW271807  13.564   6.020   7.592  0.5440  0.1003  0.5671
20028SOL     OW71808   8.131   0.372   6.546  0.2581  0.3728  0.2498
20028SOL    HW171809   8.061   0.386   6.610  0.7704 -0.3313  0.9759
20028SOL    HW271810   8.153   0.460   6.515  0.5326  0.8103  1.6288
20029SOL     OW71811   4.442   1.206  12.151 -0.6471 -0.2046 -0.3980
20029SOL    HW171812   4.500   1.245  12.217 -2.6200 -0.0134  1.3416
20029SOL    HW271813   4.434   1.273  12.084  1.2214 -0.3061 -0.7908
20030SOL     OW71814  10.224   7.983  10.083 -0.1407 -0.7196 -0.4262
20030SOL    HW171815  10.244   7.898  10.121 -0.2176  0.2643  2.0256
20030SOL    HW271816  10.298   8.002  10.024  0.2206 -2.1413 -0.4533
20031SOL     OW71817  11.008   3.282  11.680  0.1825  0.2473  0.0384
20031SOL    HW171818  11.058   3.321  11.752  0.7126 -0.5302  0.1086
20031SOL    HW271819  10.929   3.336  11.673  0.7066  1.0799  0.3835
20032SOL     OW71820  13.510   8.139   9.255 -0.5132  0.2814 -0.1853
20032SOL    HW171821  13.573   8.087   9.305  0.4059  0.0448 -1.5207
20032SOL    HW271822  13.428   8.092   9.261  0.2073 -1.1511 -1.0247
20033SOL     OW71823  11.447  10.377   2.483 -0.2112 -0.0488  0.3775
20033SOL    HW171824  11.476  10.321   2.411  0.1933  0.3384  0.2341
20033SOL    HW271825  11.488  10.462   2.466 -3.3216  1.2941 -1.1545
20034SOL     OW71826   7.155  13.172   9.127 -1.3681  0.7495  0.7680
20034SOL    HW171827   7.232  13.226   9.109 -0.7766 -0.6491 -1.3064
20034SOL    HW271828   7.083  13.222   9.088 -1.1812  1.1050  0.8715
20035SOL     OW71829   7.971  10.288  11.580  0.5777  0.0592 -0.1458
20035SOL    HW171830   8.021  10.309  11.659 -0.4900  0.6993  0.3904
20035SOL    HW271831   8.037  10.272  11.513  1.5725 -2.6179  1.3440
20036SOL     OW71832   2.931   4.814   2.414 -0.6261  0.3443  0.5385
20036SOL    HW171833   2.887   4.731   2.427 -0.7346  0.3144  0.0031
20036SOL    HW271834   3.017   4.803   2.455 -0.6659 -0.0046  0.5252
20037SOL     OW71835   4.730   5.735   3.924 -0.3721  0.9059 -0.0134
20037SOL    HW171836   4.754   5.649   3.957  1.4852  1.4408  0.1281
20037SOL    HW271837   4.695   5.718   3.836  2.3017  0.1927 -1.0205
20038SOL     OW71838   9.247  12.712   3.214  0.3941  0.3329 -0.3099
20038SOL    HW171839   9.261  12.761   3.134 -0.0671  1.2633  0.1688
20038SOL    HW271840   9.260  12.775   3.285 -1.2633  0.0583  0.2875
20039SOL     OW71841  10.892  10.776   4.481  0.4106  0.2119  0.0572
20039SOL    HW171842  10.869  10.839   4.550  0.7519 -0.0606  0.4297
20039SOL    HW271843  10.988  10.770   4.486  0.3802 -0.3267  0.0187
20040SOL     OW71844   9.464  11.622   8.006  0.6568 -0.0558  0.4331
20040SOL    HW171845   9.430  11.544   7.962  1.6184 -0.9417  1.1967
20040SOL    HW271846   9.441  11.610   8.098 -1.9930  2.1382  0.1615
20041SOL     OW71847   4.791   3.854  10.230 -0.1548 -0.3711 -0.1789
20041SOL    HW171848   4.794   3.896  10.144  3.7866 -1.6692 -0.9051
20041SOL    HW271849   4.850   3.908  10.284 -0.0353 -1.3791  0.7278
20042SOL     OW71850   4.028   4.415  13.050  0.3143 -0.5878 -0.1342
20042SOL    HW171851   4.009   4.340  13.107 -0.7609 -0.1766  0.0698
20042SOL    HW271852   4.051   4.375  12.966  1.0515 -1.1767  0.3363
20043SOL     OW71853   6.833  11.254   2.681  0.3884  0.4975 -0.2747
20043SOL    HW171854   6.803  11.330   2.632  0.9313  0.1814 -1.1030
20043SOL    HW271855   6.908  11.286   2.731  0.6881  0.4785 -0.7111
20044SOL     OW71856   7.674  12.873  13.260  0.4691 -0.6911 -0.2286
20044SOL    HW171857   7.703  12.819  13.333  1.4692  0.0744 -0.0329
20044SOL    HW271858   7.733  12.852  13.189 -0.5867 -1.5290 -0.8746
20045SOL     OW71859   3.000  10.952  12.752 -0.4295  0.3413 -0.9030
20045SOL    HW171860   3.037  10.952  12.840  0.7478 -0.6965 -1.3580
20045SOL    HW271861   2.907  10.970  12.764 -0.2956  0.1432  0.5408
20046SOL     OW71862  13.412  12.996  11.117  0.5320  0.5124 -0.5623
20046SOL    HW171863  13.316  12.995  11.110  0.3892 -0.1276  1.0411
20046SOL    HW271864  13.433  13.086  11.140  0.0109  0.0777  1.9179
20047SOL     OW71865   6.170   0.036   7.903  0.2064 -0.3870 -0.7408
20047SOL    HW171866   6.091   0.059   7.854 -0.1937 -0.8280 -0.3185
20047SOL    HW271867   6.232   0.004   7.837  0.3522  0.7780 -1.1846
20048SOL     OW71868  12.040   3.770   2.018  0.0580 -0.0687 -0.2200
20048SOL    HW171869  12.009   3.848   1.971 -0.4362 -0.0072  0.2046
20048SOL    HW271870  12.132   3.790   2.037 -0.1834  0.6243  0.2945
20049SOL     OW71871  13.093   5.339   0.562 -0.1659 -0.1802 -0.0810
20049SOL    HW171872  13.085   5.368   0.471 -0.6748  0.1689  0.0723
20049SOL    HW271873  13.032   5.394   0.611 -0.6069 -1.0112  0.3253
20050SOL     OW71874   2.493   2.421   1.642 -1.2199  0.3291 -0.0438
20050SOL    HW171875   2.459   2.364   1.711  1.0629  1.0131  1.8029
20050SOL    HW271876   2.557   2.476   1.687 -1.2954  2.4059 -2.3189
20051SOL     OW71877   7.635   9.192   0.689 -0.1038 -0.0038  0.5862
20051SOL    HW171878   7.689   9.115   0.705  0.9422  0.2066 -1.5530
20051SOL    HW271879   7.616   9.189   0.595 -0.0720  2.2971  0.4491
20052SOL     OW71880   8.390   1.849   1.703  0.4290 -0.0139 -0.1998
20052SOL    HW171881   8.397   1.794   1.781 -0.7651 -2.0796 -1.4891
20052SOL    HW271882   8.481   1.864   1.676  0.9337  1.6280  2.0975
20053SOL     OW71883   2.888  10.559  10.478 -0.4007  0.0343 -0.1498
20053SOL    HW171884   2.921  10.535  10.391 -0.3062  0.1239 -0.1396
20053SOL    HW271885   2.941  10.635  10.503  1.0189 -1.2113  0.8600
20054SOL     OW71886   6.804   3.728  10.100 -0.5253  0.5983  0.2419
20054SOL    HW171887   6.892   3.702  10.073  0.3119 -0.3529  3.4125
20054SOL    HW271888   6.752   3.725  10.020  1.4233 -2.8276 -1.1210
20055SOL     OW71889   1.278   3.215   8.620 -0.1452 -0.2131 -0.1422
20055SOL    HW171890   1.346   3.247   8.561 -2.0753  2.0127 -1.3245
20055SOL    HW271891   1.268   3.284   8.685 -0.6646 -0.9240  0.5515
20056SOL     OW71892   5.510   1.017  10.666 -0.7160 -0.0411 -0.9620
20056SOL    HW171893   5.498   1.028  10.761 -0.7760 -1.1433 -0.8286
20056SOL    HW271894   5.505   1.106  10.631 -2.2304  0.2457 -0.1049
20057SOL     OW71895   6.905   2.122   0.190 -0.3654  0.0550  1.0134
20057SOL    HW171896   6.816   2.128   0.155  0.4236 -0.3116 -1.2283
20057SOL    HW271897   6.906   2.040   0.240 -0.4790 -1.7372 -1.7137
20058SOL     OW71898   1.807  11.102   7.108  0.6967 -0.0428 -0.2569
20058SOL    HW171899   1.871  11.173   7.117 -0.2062  0.6970  0.6240
20058SOL    HW271900   1.800  11.064   7.196  1.6513 -1.6917 -0.8475
20059SOL     OW71901  10.423   6.981   6.894 -0.2205  0.6044 -0.6087
20059SOL    HW171902  10.404   7.053   6.834  0.3732 -0.3263 -1.9534
20059SOL    HW271903  10.346   6.925   6.890 -0.7150  1.1810  0.4979
20060SOL     OW71904  11.466   2.813   0.741  0.1926 -0.1120  0.2919
20060SOL    HW171905  11.502   2.725   0.741 -0.8612 -0.5710 -0.7619
20060SOL    HW271906  11.535   2.868   0.778  1.4705 -1.1468 -0.4991
20061SOL     OW71907  12.856   7.553   6.596 -0.1574  0.3474  0.1444
20061SOL    HW171908  12.919   7.624   6.584  0.6007 -0.3814 -0.3172
20061SOL    HW271909  12.910   7.475   6.613 -0.8380 -0.5505 -1.5121
20062SOL     OW71910   0.811   7.940   9.960  0.6629 -0.3978 -0.4892
20062SOL    HW171911   0.835   7.888  10.036  0.1085 -1.1635 -0.8348
20062SOL    HW271912   0.859   7.900   9.887  2.3071  1.1758 -0.3448
20063SOL     OW71913   1.527   1.123   7.689 -0.6707 -0.6816  0.3675
20063SOL    HW171914   1.489   1.091   7.607 -0.7105  0.6246 -0.1448
20063SOL    HW271915   1.454   1.166   7.734  0.0130  1.3716 -0.3783
20064SOL     OW71916   6.231   0.361   9.673 -0.1415  0.6897 -0.1211
20064SOL    HW171917   6.201   0.307   9.600  1.4589  1.0153 -1.0612
20064SOL    HW271918   6.172   0.338   9.745  0.6950 -2.5814 -0.3458
20065SOL     OW71919  10.153   2.018   8.064  0.0051  0.8533  0.0097
20065SOL    HW171920  10.218   1.972   8.116 -1.8599  0.4137  2.1202
20065SOL    HW271921  10.092   1.950   8.036 -0.3506  1.4308 -0.6425
20066SOL     OW71922   4.310   2.220   9.446  0.1020  0.0103  0.4076
20066SOL    HW171923   4.214   2.215   9.449  0.0857 -0.7880 -0.7077
20066SOL    HW271924   4.338   2.130   9.430  0.9561  0.4443 -0.6980
20067SOL     OW71925   5.873   0.836   0.209  0.4759  0.6770 -0.0393
20067SOL    HW171926   5.851   0.917   0.254 -0.1123  1.6571 -1.9720
20067SOL    HW271927   5.791   0.808   0.168  1.3251  0.8360 -1.9699
20068SOL     OW71928   6.147   1.985  11.587 -0.3208 -1.0157 -0.0794
20068SOL    HW171929   6.218   1.959  11.646  1.1419 -0.7613 -1.6203
20068SOL    HW271930   6.142   1.913  11.523  0.0230 -0.0689 -1.2073
20069SOL     OW71931   7.534   8.836   6.649  0.5970 -0.1615  0.1000
20069SOL    HW171932   7.489   8.865   6.569  1.3290 -0.7736 -0.5395
20069SOL    HW271933   7.588   8.762   6.621  0.1376 -0.9990  1.3560
20070SOL     OW71934   6.530   8.053   6.875  0.0979  0.2160  0.7948
20070SOL    HW171935   6.585   8.091   6.945 -0.7722 -0.3510  1.8123
20070SOL    HW271936   6.480   7.985   6.919 -0.7901  0.1372 -0.3116
20071SOL     OW71937   6.812   5.897   6.539  0.0689  0.1909 -0.0516
20071SOL    HW171938   6.783   5.952   6.465 -1.1796 -0.9979 -0.4866
20071SOL    HW271939   6.732   5.876   6.586  0.4610 -1.4897 -0.0695
20072SOL     OW71940  10.614   4.772  13.170  0.5286  0.2282 -0.1092
20072SOL    HW171941  10.586   4.790  13.260  0.5025  0.1873 -0.1087
20072SOL    HW271942  10.672   4.844  13.148  0.2564  0.4281 -0.1818
20073SOL     OW71943  11.768   6.177   3.748  0.0495 -0.0313 -0.6243
20073SOL    HW171944  11.708   6.141   3.813  0.4769  0.2040 -0.0829
20073SOL    HW271945  11.719   6.247   3.705  0.0144  0.3432  0.0032
20074SOL     OW71946   0.750   9.400  13.698 -0.4857  0.1477 -0.5529
20074SOL    HW171947   0.728   9.490  13.723 -0.5697 -0.4307  1.6592
20074SOL    HW271948   0.736   9.397  13.603 -2.4448  1.9193 -0.3926
20075SOL     OW71949   2.598   9.234  11.561  0.2659 -0.4731  0.2010
20075SOL    HW171950   2.623   9.321  11.529 -1.2577  0.4677  1.3893
20075SOL    HW271951   2.677   9.201  11.603 -0.0855  2.1176  3.3106
20076SOL     OW71952   2.972   2.187   2.081 -0.4752  0.5285  0.4120
20076SOL    HW171953   2.984   2.099   2.044 -0.2228  0.5331  0.4854
20076SOL    HW271954   2.913   2.173   2.155 -3.2787  0.8865 -1.5896
20077SOL     OW71955  12.111   4.964  12.846 -0.4617  0.8020 -0.5700
20077SOL    HW171956  12.134   5.057  12.835  0.4366  0.6506 -0.0673
20077SOL    HW271957  12.150   4.922  12.769 -0.9707  0.8521 -0.8598
20078SOL     OW71958  12.619   8.224   3.025 -0.4188  0.2902  0.1613
20078SOL    HW171959  12.609   8.129   3.031  1.7043 -0.0720 -0.9962
20078SOL    HW271960  12.713   8.239   3.040 -0.3907  2.0050 -1.4137
20079SOL     OW71961  12.407   3.194   2.008 -0.4617  0.0121 -0.3980
20079SOL    HW171962  12.344   3.123   2.020 -0.0914 -0.4374 -1.0425
20079SOL    HW271963  12.354   3.269   1.983 -0.8422 -0.0725  0.1265
20080SOL     OW71964  13.019   6.410   8.303 -0.2700 -0.4868  0.0606
20080SOL    HW171965  12.974   6.359   8.235  0.4150 -1.0969  0.0524
20080SOL    HW271966  12.976   6.383   8.385 -1.2837  0.4553 -0.1350
20081SOL     OW71967   3.271  12.658   5.181 -0.2782 -0.0548  0.4649
20081SOL    HW171968   3.329  12.583   5.171  0.2786 -0.0438  3.0573
20081SOL    HW271969   3.183  12.622   5.166 -0.0239 -1.2607  1.7159
20082SOL     OW71970  11.967   6.709  13.267  0.1496  0.3319  0.2213
20082SOL    HW171971  12.003   6.786  13.224  1.5390  0.2975  1.2623
20082SOL    HW271972  11.985   6.637  13.207  1.6037  0.3626  0.5801
20083SOL     OW71973   3.805   8.933  11.047 -0.2843  0.3082 -0.4922
20083SOL    HW171974   3.831   9.025  11.050  1.8133 -0.1238 -2.4221
20083SOL    HW271975   3.711   8.935  11.030 -0.3812  2.0722  0.0670
20084SOL     OW71976   7.731   0.816   9.961  0.2557  0.9745 -0.0276
20084SOL    HW171977   7.720   0.903  10.000 -0.3699  0.9614 -0.1697
20084SOL    HW271978   7.818   0.788   9.990  0.3707  1.5521  0.2024
20085SOL     OW71979   1.866   0.842   5.598 -0.0817 -0.4066 -0.1204
20085SOL    HW171980   1.924   0.797   5.659 -0.6743  0.6410  1.2687
20085SOL    HW271981   1.782   0.845   5.643 -0.5315  0.4125 -0.9881
20086SOL     OW71982   3.856  12.585   7.566 -0.2483  0.5895 -0.2064
20086SOL    HW171983   3.865  12.624   7.479 -1.0631 -0.1554 -0.6470
20086SOL    HW271984   3.934  12.613   7.614 -1.0121  3.1467 -0.3267
20087SOL     OW71985  11.472   4.415   1.909  0.3059 -0.7290  0.2245
20087SOL    HW171986  11.463   4.368   1.827 -3.0011 -0.8557  0.5101
20087SOL    HW271987  11.428   4.499   1.894  2.2970  0.5297  1.0188
20088SOL     OW71988   4.767  11.944   5.890 -0.1952  0.5098  0.1312
20088SOL    HW171989   4.781  12.004   5.817 -0.2508 -2.3495 -2.4334
20088SOL    HW271990   4.855  11.911   5.911 -0.3560  0.1505  0.2556
20089SOL     OW71991   2.771   2.979   8.527 -0.0822 -0.1925 -0.1862
20089SOL    HW171992   2.798   2.905   8.580  0.5330  0.5525  0.5615
20089SOL    HW271993   2.746   3.047   8.590 -0.7101  0.2223 -0.8552
20090SOL     OW71994   7.716  12.723   4.837  0.0613  0.2835  0.2940
20090SOL    HW171995   7.656  12.782   4.791 -1.4571 -1.0141  0.5422
20090SOL    HW271996   7.744  12.773   4.914 -1.6745  0.4921  0.8335
20091SOL     OW71997   8.691  10.853  11.560  0.0224 -0.2043  0.1976
20091SOL    HW171998   8.664  10.929  11.612  1.0868 -0.0216  0.4979
20091SOL    HW271999   8.761  10.812  11.610  1.1185  0.0083 -1.0936
20092SOL     OW72000   7.708   4.601  12.093  0.0619 -0.7450  1.0328
20092SOL    HW172001   7.739   4.526  12.043  0.8245  0.0775  0.2271
20092SOL    HW272002   7.729   4.580  12.184  1.2257 -1.0671  0.7075
20093SOL     OW72003  13.745   9.147  11.424 -0.0467 -0.3376  0.4750
20093SOL    HW172004  13.726   9.095  11.345 -1.1731  0.8439 -0.0684
20093SOL    HW272005  13.827   9.193  11.404 -0.4420  0.1238 -0.1060
20094SOL     OW72006   7.818   2.203   8.299 -0.3970  0.3010 -0.3394
20094SOL    HW172007   7.787   2.281   8.346  0.4176  0.3167  0.1912
20094SOL    HW272008   7.907   2.224   8.273  0.9203 -1.4407  2.2781
20095SOL     OW72009   5.008   3.191  11.088  0.1237  1.0027 -0.0827
20095SOL    HW172010   5.085   3.223  11.041  2.5971 -0.5751  2.5798
20095SOL    HW272011   4.950   3.267  11.094  2.2977  2.8063 -0.6047
20096SOL     OW72012  11.174  11.008   8.321 -0.0249  0.0994 -0.1548
20096SOL    HW172013  11.095  10.959   8.342 -0.6085  0.6294 -1.0756
20096SOL    HW272014  11.155  11.050   8.237  1.0590  0.6065 -0.1592
20097SOL     OW72015  11.881  10.117  11.833  0.1173  0.6913 -0.4735
20097SOL    HW172016  11.845  10.159  11.755 -0.9388  0.7535  0.0304
20097SOL    HW272017  11.805  10.095  11.886  0.6163 -1.8887 -0.7117
20098SOL     OW72018   6.926   7.828   8.595 -0.3292  0.9783  0.3905
20098SOL    HW172019   7.008   7.817   8.643 -0.3404  2.2611  0.7462
20098SOL    HW272020   6.859   7.833   8.663 -0.3120  3.1243  0.3229
20099SOL     OW72021   4.616   8.501   3.273  0.4589 -0.5063 -0.4566
20099SOL    HW172022   4.547   8.451   3.316  1.1972 -0.2191  1.1329
20099SOL    HW272023   4.598   8.492   3.179 -2.2390  0.2655 -0.1045
20100SOL     OW72024   4.488  13.582   8.880 -0.1183  0.0314  0.2678
20100SOL    HW172025   4.505  13.496   8.919  1.7214  0.3985  0.3481
20100SOL    HW272026   4.539  13.583   8.800 -0.3567  0.9478  0.1179
20101SOL     OW72027  13.389  12.191   0.205 -0.0246 -1.0738  1.0401
20101SOL    HW172028  13.340  12.173   0.125  1.1217 -0.0755  0.0845
20101SOL    HW272029  13.437  12.110   0.222  0.8447 -0.8278 -0.1202
20102SOL     OW72030   2.901  12.876  10.576  0.2249 -0.7673  0.2497
20102SOL    HW172031   2.995  12.866  10.560  0.0630 -0.4455 -1.0298
20102SOL    HW272032   2.879  12.802  10.633  1.4379 -0.2392  1.4497
20103SOL     OW72033  10.610  12.060  11.337 -0.1968  0.6113 -0.1487
20103SOL    HW172034  10.530  12.060  11.284 -0.5778 -3.7841  0.0483
20103SOL    HW272035  10.681  12.054  11.273 -0.4360 -0.7229 -0.3355
20104SOL     OW72036   9.164  11.256  11.151 -0.5268 -0.9594  0.1817
20104SOL    HW172037   9.176  11.210  11.067 -0.8918  0.8705 -0.9315
20104SOL    HW272038   9.070  11.269  11.158 -0.6559 -2.3321  1.6340
20105SOL     OW72039  13.214   5.135   4.211 -0.3014  0.6269 -0.0773
20105SOL    HW172040  13.157   5.059   4.216 -1.4565  1.5215  1.2808
20105SOL    HW272041  13.154   5.210   4.218  0.9736  1.6064  0.9559
20106SOL     OW72042   4.415  11.014  11.458 -0.3202 -0.4650  0.2055
20106SOL    HW172043   4.325  11.044  11.452 -0.7540 -1.8776 -0.8823
20106SOL    HW272044   4.456  11.045  11.377  0.7327  1.7698  1.5056
20107SOL     OW72045   2.263   4.178   4.490  0.4723 -0.8245 -0.5080
20107SOL    HW172046   2.278   4.252   4.550 -2.0617 -0.8160  0.1942
20107SOL    HW272047   2.239   4.219   4.407 -0.0360 -0.8373 -0.3713
20108SOL     OW72048   9.248  11.069   5.177 -0.6146  0.2298 -0.2298
20108SOL    HW172049   9.230  11.142   5.237 -2.7153 -0.6985  0.3707
20108SOL    HW272050   9.327  11.028   5.212 -0.1852  1.3994  0.2151
20109SOL     OW72051   8.564   0.342  12.286 -0.5944  0.9425  0.1570
20109SOL    HW172052   8.475   0.308  12.297  0.2751 -1.6281 -0.0646
20109SOL    HW272053   8.563   0.384  12.200 -1.3104 -0.1488 -0.3944
20110SOL     OW72054  12.052   2.094  12.359  0.1507  0.4410 -0.1474
20110SOL    HW172055  12.008   2.022  12.314  0.2236  0.8641 -0.9075
20110SOL    HW272056  12.022   2.173  12.314 -1.6213  1.1027  2.0233
20111SOL     OW72057   1.378   1.452   3.922 -0.4798  0.1592  0.0395
20111SOL    HW172058   1.314   1.524   3.919 -1.2616 -0.3497  2.1816
20111SOL    HW272059   1.374   1.412   3.836 -0.6074  2.1863 -0.9533
20112SOL     OW72060   9.672  10.420   9.792  0.1432 -0.2671 -0.0500
20112SOL    HW172061   9.596  10.477   9.803  0.6955  0.4354  0.2025
20112SOL    HW272062   9.721  10.428   9.874 -0.5480 -2.3133  0.6187
20113SOL     OW72063  13.469   0.710   9.160 -0.0780  0.0451  0.3295
20113SOL    HW172064  13.397   0.765   9.129 -0.5664  0.0971  1.5168
20113SOL    HW272065  13.504   0.756   9.236 -1.2599 -1.8042  2.1048
20114SOL     OW72066   8.819   9.559  10.519  0.3233 -0.1968 -0.4372
20114SOL    HW172067   8.741   9.584  10.568  0.5049  0.0146 -0.2550
20114SOL    HW272068   8.789   9.492  10.458  0.3734 -1.5068  0.9266
20115SOL     OW72069  12.291  11.986  11.416 -0.1793  0.0442 -0.3331
20115SOL    HW172070  12.265  11.899  11.444 -0.5353  0.1711 -0.2621
20115SOL    HW272071  12.217  12.042  11.440  1.7105  1.1951  3.8402
20116SOL     OW72072  11.310   9.586   5.262  0.4805 -0.0964 -0.0115
20116SOL    HW172073  11.255   9.618   5.334  0.2198 -1.7566  0.5552
20116SOL    HW272074  11.399   9.607   5.289  0.4363 -1.3270  1.1407
20117SOL     OW72075   1.497   0.757  13.685  0.3882 -0.1583 -0.3244
20117SOL    HW172076   1.462   0.843  13.710  2.8031  0.7843  0.2078
20117SOL    HW272077   1.433   0.694  13.717 -1.7350  1.4339 -1.2277
20118SOL     OW72078   4.546   6.620   6.724 -0.2122  0.2880  0.7118
20118SOL    HW172079   4.457   6.593   6.746 -0.6276  1.8936  1.1515
20118SOL    HW272080   4.594   6.538   6.715 -1.5508 -0.5973  1.2091
20119SOL     OW72081  12.549  11.777  12.469 -0.0038  0.4856 -0.6053
20119SOL    HW172082  12.486  11.831  12.516  1.7837  1.0335  1.3408
20119SOL    HW272083  12.498  11.703  12.436 -1.6572  0.8780  0.9143
20120SOL     OW72084   7.107   4.321  13.614 -0.5214  0.1613 -0.4052
20120SOL    HW172085   7.024   4.287  13.648  0.4493 -0.7283  1.1907
20120SOL    HW272086   7.104   4.301  13.520 -1.8264 -0.4561 -0.2582
20121SOL     OW72087   4.843   4.519  10.245  0.0443 -0.0157  0.3397
20121SOL    HW172088   4.862   4.604  10.285 -1.6842  0.4408  0.2826
20121SOL    HW272089   4.755   4.529  10.208 -0.5863 -2.1228  1.1466
20122SOL     OW72090   5.222   7.448  13.128  0.3028  0.4945  0.6514
20122SOL    HW172091   5.290   7.388  13.158  0.0185  0.0516  0.4352
20122SOL    HW272092   5.245   7.533  13.165 -0.0177 -0.0235  2.1078
20123SOL     OW72093   2.482  11.327  11.325 -0.2635 -0.3013 -0.3109
20123SOL    HW172094   2.415  11.391  11.299  1.1707  1.1091 -0.6824
20123SOL    HW272095   2.530  11.371  11.396  0.3204 -1.2557 -0.1031
20124SOL     OW72096   1.022  11.299   3.173  0.2540 -0.3564  0.2687
20124SOL    HW172097   1.041  11.348   3.253 -0.2981  0.7551 -0.2444
20124SOL    HW272098   1.014  11.208   3.201  0.9984 -0.1150  1.3179
20125SOL     OW72099   5.667  12.632   1.568 -0.3142 -0.6956  0.7920
20125SOL    HW172100   5.685  12.711   1.619  1.3975 -0.8986  0.5676
20125SOL    HW272101   5.586  12.597   1.605 -1.6544  1.6463  0.2719
20126SOL     OW72102   6.203  10.058  11.446 -0.4768  0.5848  0.0275
20126SOL    HW172103   6.199  10.122  11.375  1.8866 -0.0700 -0.7723
20126SOL    HW272104   6.157   9.981  11.412 -3.1940  1.6527  0.9348
20127SOL     OW72105   4.378   9.294  13.480 -0.4538 -0.3172  0.4731
20127SOL    HW172106   4.440   9.308  13.408 -1.1332 -0.2864 -0.1223
20127SOL    HW272107   4.377   9.376  13.528 -0.5830 -0.0631  0.0430
20128SOL     OW72108  13.102   8.839   8.150  0.6809 -0.1707  0.0028
20128SOL    HW172109  13.023   8.891   8.165  1.2027  0.3650  1.0083
20128SOL    HW272110  13.098   8.770   8.216  0.5004 -0.8188 -0.6748
20129SOL     OW72111   5.848   7.918   7.213 -0.7658 -0.2085  0.0455
20129SOL    HW172112   5.838   8.008   7.242 -0.7390 -0.2913  0.3112
20129SOL    HW272113   5.812   7.865   7.284 -0.4241 -0.4217  0.0620
20130SOL     OW72114   7.405   4.016   7.612 -0.4288  0.2789  0.0168
20130SOL    HW172115   7.424   4.109   7.614 -1.4293  0.5036 -0.2019
20130SOL    HW272116   7.456   3.979   7.684 -0.3550  1.0587  0.3720
20131SOL     OW72117   0.791   5.501   6.197  0.1399  0.0290 -0.2223
20131SOL    HW172118   0.785   5.534   6.107  0.9912 -0.4096 -0.4533
20131SOL    HW272119   0.832   5.571   6.246  1.4192 -0.4378 -0.5908
20132SOL     OW72120  10.523   3.005   9.408 -0.5881  0.3588 -0.0505
20132SOL    HW172121  10.473   2.983   9.486 -2.1063 -1.7610 -1.4956
20132SOL    HW272122  10.476   3.078   9.369 -0.8358  0.3035  0.1418
20133SOL     OW72123   2.521   1.960   3.216  0.1618 -0.0102  0.7710
20133SOL    HW172124   2.539   1.959   3.310  2.3943  0.6445  0.4116
20133SOL    HW272125   2.605   1.939   3.176 -1.3995 -3.8211 -1.0743
20134SOL     OW72126   8.007   6.509  12.917 -0.0242  0.2682  0.3023
20134SOL    HW172127   8.034   6.579  12.858  0.1320  1.1995  1.4403
20134SOL    HW272128   7.928   6.542  12.959  0.9974  0.5265  2.1063
20135SOL     OW72129   9.063   5.121   2.556  0.7287 -0.2563 -0.3205
20135SOL    HW172130   9.097   5.207   2.583  0.1211 -0.0816 -0.1057
20135SOL    HW272131   9.031   5.135   2.467 -0.7150  0.1229  0.2340
20136SOL     OW72132   2.584   7.102  10.404 -0.7828 -0.2414  0.3011
20136SOL    HW172133   2.665   7.097  10.353 -0.3071  2.4028  0.6787
20136SOL    HW272134   2.590   7.029  10.465  0.0414 -1.6816 -1.4024
20137SOL     OW72135   8.533  12.630   7.365 -0.2826  0.0236  0.0196
20137SOL    HW172136   8.623  12.645   7.395  0.4168 -0.4089 -1.7095
20137SOL    HW272137   8.484  12.705   7.396  0.0764 -0.9128  3.1402
20138SOL     OW72138   6.909   0.454   1.396  0.2547  0.3345  0.3135
20138SOL    HW172139   6.857   0.534   1.394 -0.1188  0.1187  0.8847
20138SOL    HW272140   6.996   0.480   1.365 -0.3327  0.5803 -1.2095
20139SOL     OW72141  10.841  11.781   4.609 -0.0775 -0.1125 -0.3766
20139SOL    HW172142  10.833  11.867   4.567 -0.5464  0.1285  0.1983
20139SOL    HW272143  10.917  11.741   4.566  0.3862  0.7406 -0.3766
20140SOL     OW72144  10.852   0.038  10.491  0.0159 -0.4534 -0.1010
20140SOL    HW172145  10.929   0.061  10.439  0.7425  2.5382  2.0342
20140SOL    HW272146  10.884   0.030  10.580 -1.9378 -0.5458  0.6472
20141SOL     OW72147   3.029  10.297   0.476  0.2013 -0.0581 -0.2722
20141SOL    HW172148   2.984  10.216   0.497 -0.3229  0.1329 -0.6340
20141SOL    HW272149   3.066  10.283   0.389  1.5182 -0.4901  0.3257
20142SOL     OW72150   7.858  12.421   2.191  0.0375 -0.7388  0.4618
20142SOL    HW172151   7.927  12.468   2.144 -0.4215 -1.1508 -0.6532
20142SOL    HW272152   7.842  12.343   2.139 -0.6838 -1.0843  1.1664
20143SOL     OW72153  13.162   3.031   5.242 -0.4469 -0.2689 -0.1523
20143SOL    HW172154  13.183   3.067   5.155 -0.7144  1.1147  0.3300
20143SOL    HW272155  13.136   3.107   5.294  3.5070 -0.3400  2.3499
20144SOL     OW72156   9.012  11.707   4.102 -0.4138  0.0155 -0.1751
20144SOL    HW172157   9.032  11.641   4.035 -0.6056 -0.2597  0.0388
20144SOL    HW272158   8.976  11.781   4.052  0.2833  0.1709 -0.4726
20145SOL     OW72159  11.882   9.299   0.498 -0.3581  0.1141  0.5210
20145SOL    HW172160  11.953   9.253   0.453  0.4538  2.2050 -0.4644
20145SOL    HW272161  11.839   9.231   0.549  0.8797 -1.6853 -0.6893
20146SOL     OW72162   7.050  10.925  12.151 -0.5663 -0.1584  0.3977
20146SOL    HW172163   7.064  10.889  12.063 -0.9243 -1.9798  1.0548
20146SOL    HW272164   7.000  11.005  12.135 -0.8515 -0.5844 -1.0471
20147SOL     OW72165   9.874   0.019  13.306  0.0103  0.4284  0.0574
20147SOL    HW172166   9.839   0.098  13.347  1.6411  0.8948  0.5999
20147SOL    HW272167   9.852   0.029  13.213  0.7853  1.8695 -0.0040
20148SOL     OW72168  12.595  13.340   7.110  0.0377  0.0761 -0.1374
20148SOL    HW172169  12.577  13.288   7.032  0.2031  0.8026 -0.6694
20148SOL    HW272170  12.524  13.404   7.112  0.5593  0.6622 -0.2239
20149SOL     OW72171  11.800  10.925   2.577  0.2750  0.0654 -0.1389
20149SOL    HW172172  11.847  10.852   2.537  1.2743  0.7587 -0.2711
20149SOL    HW272173  11.707  10.901   2.570  0.5392 -0.7251 -1.0845
20150SOL     OW72174  12.613  13.464   8.936  0.3397  0.1332  0.0122
20150SOL    HW172175  12.660  13.459   9.019 -0.2364  1.7771  0.4713
20150SOL    HW272176  12.660  13.530   8.885 -0.5671  0.7064 -0.1088
20151SOL     OW72177   9.429   3.189   2.922 -0.1561 -0.0295 -0.4912
20151SOL    HW172178   9.422   3.210   3.015 -1.0535  1.2084 -0.8029
20151SOL    HW272179   9.405   3.096   2.916 -0.9201  0.0969  0.4138
20152SOL     OW72180   7.384   2.197  12.236  0.1282 -0.0502  0.8558
20152SOL    HW172181   7.401   2.111  12.275 -2.8436 -0.9131  0.5257
20152SOL    HW272182   7.309   2.231  12.286 -1.2104  0.5895 -1.4609
20153SOL     OW72183   5.301  11.558   4.636  0.3186 -0.8616  0.2423
20153SOL    HW172184   5.261  11.537   4.552  2.1370  0.5862 -1.0946
20153SOL    HW272185   5.395  11.558   4.618  0.6865  2.1564  1.5323
20154SOL     OW72186  13.540   9.913   4.822 -0.1106  0.7137  0.4051
20154SOL    HW172187  13.538   9.864   4.904  0.7087 -2.6615 -1.4341
20154SOL    HW272188  13.616   9.970   4.829 -1.5013  2.4816  2.8912
20155SOL     OW72189   2.570   2.964   1.107 -0.3639  0.1920  0.9254
20155SOL    HW172190   2.590   2.929   1.020 -0.5650 -0.2955  1.0737
20155SOL    HW272191   2.517   2.897   1.149 -1.2251  0.9181  1.0201
20156SOL     OW72192  12.744   2.849  12.838  0.4745  0.0397 -0.3827
20156SOL    HW172193  12.768   2.816  12.752 -2.3339  0.2733 -1.3617
20156SOL    HW272194  12.668   2.905  12.821 -0.9644 -0.9234  2.3879
20157SOL     OW72195  13.219  13.350   0.869  0.1904 -0.6348 -0.4406
20157SOL    HW172196  13.284  13.386   0.929  0.2528  0.0927 -0.9384
20157SOL    HW272197  13.239  13.390   0.784  0.3315 -1.9242 -1.0389
20158SOL     OW72198   2.593   3.731   7.639 -0.1411 -0.3601  0.0525
20158SOL    HW172199   2.522   3.789   7.613  0.8991  0.8207 -0.2387
20158SOL    HW272200   2.655   3.787   7.686  0.2607 -1.5122  0.9651
20159SOL     OW72201   1.915   2.248   7.605 -0.1135 -0.2124  0.0679
20159SOL    HW172202   1.914   2.344   7.605 -2.3387 -0.1764 -0.6561
20159SOL    HW272203   1.974   2.225   7.677  1.5606  1.6626 -0.6080
20160SOL     OW72204  10.848   9.444  13.112 -0.4584  0.4589 -0.0396
20160SOL    HW172205  10.833   9.452  13.207  0.1053  1.7777 -0.0449
20160SOL    HW272206  10.905   9.517  13.091  0.0752 -0.2884 -1.2754
20161SOL     OW72207   9.891   0.852  10.477  0.3440 -0.1221  0.2435
20161SOL    HW172208   9.841   0.904  10.540 -0.9013  1.8316 -2.1902
20161SOL    HW272209   9.846   0.767  10.476  0.3641 -0.1816  1.8983
20162SOL     OW72210   9.395  11.990   4.491  0.8639  0.4234 -0.0584
20162SOL    HW172211   9.435  12.024   4.572  0.6816 -0.1536  0.2791
20162SOL    HW272212   9.334  11.923   4.521 -2.0287  2.7217 -0.3361
20163SOL     OW72213   1.023  11.291  11.495  0.1505 -0.2251 -0.4829
20163SOL    HW172214   0.977  11.212  11.467  0.8681 -0.9726  0.4031
20163SOL    HW272215   1.058  11.269  11.582 -0.2960  1.3194  0.1272
20164SOL     OW72216   3.430   0.945   0.346  0.2097  0.2439 -0.4006
20164SOL    HW172217   3.515   0.974   0.312 -0.0669  0.8659 -0.5818
20164SOL    HW272218   3.366   0.989   0.291 -0.2742  1.7903  1.2632
20165SOL     OW72219  12.952   3.289   9.024  0.4048  0.0195  0.2842
20165SOL    HW172220  13.009   3.329   9.090 -0.0810 -0.8296  1.2283
20165SOL    HW272221  13.002   3.214   8.992 -0.3746 -1.0504  1.5048
20166SOL     OW72222  12.808   3.661  10.385 -0.5106  0.3572 -0.2099
20166SOL    HW172223  12.840   3.719  10.316 -0.5767 -1.2297 -1.6455
20166SOL    HW272224  12.754   3.596  10.339  0.6552 -1.6649  1.1008
20167SOL     OW72225   0.285   0.239   5.993  0.1442 -0.1940  0.1326
20167SOL    HW172226   0.346   0.166   6.001  1.1834  0.7241  0.9247
20167SOL    HW272227   0.325   0.297   5.928 -0.1596  0.1669  0.2624
20168SOL     OW72228  12.461   6.160  12.287 -0.0063  0.0132  0.0157
20168SOL    HW172229  12.428   6.110  12.361 -1.6110  0.3691 -0.4241
20168SOL    HW272230  12.423   6.117  12.210  1.2870 -0.0982 -0.5859
20169SOL     OW72231   4.317   1.041   7.126 -0.3812 -0.2772  0.3576
20169SOL    HW172232   4.363   0.961   7.154 -0.5651 -1.0147 -1.3082
20169SOL    HW272233   4.263   1.064   7.201  1.4327 -0.3307  1.7692
20170SOL     OW72234   6.439   7.508   3.647  0.0884 -0.9395  0.5469
20170SOL    HW172235   6.443   7.596   3.685  0.5749 -0.0433 -1.4083
20170SOL    HW272236   6.496   7.455   3.702  0.6013  0.2240  1.1637
20171SOL     OW72237   0.521   0.097   8.935  0.3264 -0.1523  0.1337
20171SOL    HW172238   0.498   0.164   8.870  1.9179 -0.0715 -0.3917
20171SOL    HW272239   0.616   0.086   8.925  0.3278 -1.3768  1.2815
20172SOL     OW72240   8.872  11.668  12.877  0.7067  0.0978 -0.0794
20172SOL    HW172241   8.944  11.731  12.876  0.7007  0.2016  1.7723
20172SOL    HW272242   8.897  11.605  12.945 -0.0404 -0.9964 -0.7829
20173SOL     OW72243  12.942  11.240   2.397 -0.2655 -0.4532 -0.0211
20173SOL    HW172244  13.006  11.278   2.457 -0.0548 -1.1266  0.1961
20173SOL    HW272245  12.860  11.282   2.420 -0.0071  0.0078  0.0782
20174SOL     OW72246  11.440  10.509   1.439 -0.4790 -0.1525  0.3154
20174SOL    HW172247  11.486  10.593   1.447 -0.0077 -0.1615 -1.8495
20174SOL    HW272248  11.492  10.448   1.491  1.6228 -0.0056 -1.4910
20175SOL     OW72249  13.276   3.280  11.640 -0.1013 -0.2788  0.1217
20175SOL    HW172250  13.236   3.267  11.725 -0.0807 -1.2459 -0.0073
20175SOL    HW272251  13.277   3.193  11.599  0.8655 -0.0366 -0.4261
20176SOL     OW72252   7.253  10.011  10.628  0.0878 -0.3061  0.0613
20176SOL    HW172253   7.296  10.096  10.635 -0.8619  0.1770  0.1151
20176SOL    HW272254   7.271   9.968  10.712 -3.2041  1.6673  1.9827
20177SOL     OW72255   3.260   1.326  12.156 -0.1484  0.1048  0.2009
20177SOL    HW172256   3.286   1.379  12.231 -0.5696 -0.5234  0.8097
20177SOL    HW272257   3.264   1.236  12.188  1.4542 -0.3293 -1.0755
20178SOL     OW72258   0.940   0.775   1.600 -0.0588 -0.3773 -0.0117
20178SOL    HW172259   0.868   0.802   1.543 -0.2215  1.1840  0.8799
20178SOL    HW272260   0.926   0.681   1.614 -2.3382  0.0079  0.6822
20179SOL     OW72261   3.633   1.055   7.323 -0.3520  0.4470  0.3443
20179SOL    HW172262   3.541   1.042   7.303 -0.4669 -0.6770  1.4348
20179SOL    HW272263   3.673   0.969   7.308  0.2612  0.5939  1.0676
20180SOL     OW72264   3.131  13.597   9.742  0.1819  0.2078 -0.3582
20180SOL    HW172265   3.076  13.662   9.786 -0.9400 -0.7725 -0.2682
20180SOL    HW272266   3.215  13.642   9.728 -0.0070  1.1172  1.1931
20181SOL     OW72267   8.699  12.021  12.622 -0.1335  0.0483 -0.3232
20181SOL    HW172268   8.694  12.116  12.638 -1.2512  0.0244 -0.4946
20181SOL    HW272269   8.673  12.011  12.531 -1.4065 -0.5391  0.0833
20182SOL     OW72270  10.707   6.183   4.308 -0.3367  0.3068  0.0263
20182SOL    HW172271  10.725   6.096   4.343 -0.8288  0.4887  0.7503
20182SOL    HW272272  10.703   6.170   4.213  3.3181  0.2052 -0.2282
20183SOL     OW72273   5.930   7.661   4.296 -0.1443  0.1423 -0.6049
20183SOL    HW172274   5.989   7.724   4.339  1.2523 -1.7080  0.3641
20183SOL    HW272275   5.956   7.577   4.332 -0.1035 -1.3507 -3.8125
20184SOL     OW72276   7.231  10.199   6.750 -0.0592  0.5456 -0.7573
20184SOL    HW172277   7.150  10.250   6.753 -0.9743 -0.8909  0.2682
20184SOL    HW272278   7.242  10.178   6.657 -0.4766  1.3252 -0.9962
20185SOL     OW72279   0.291   0.074   8.471  0.0490  0.3951 -0.0199
20185SOL    HW172280   0.199   0.074   8.497  0.0506  0.4143 -0.0145
20185SOL    HW272281   0.312  -0.019   8.459  0.6751  0.1898  2.2635
20186SOL     OW72282   4.752   1.815   5.065  0.4619  0.5714 -0.3093
20186SOL    HW172283   4.795   1.896   5.036  2.2295 -0.2803 -0.2020
20186SOL    HW272284   4.784   1.803   5.155 -0.9932  0.5238  0.2352
20187SOL     OW72285   4.477  13.370  13.667 -0.2699 -0.6186 -0.8414
20187SOL    HW172286   4.385  13.348  13.657 -0.1405 -1.9355  0.5296
20187SOL    HW272287   4.522  13.286  13.677  0.6531  0.0667  1.4703
20188SOL     OW72288   6.502  10.756  13.038 -0.0501  0.0939  0.0384
20188SOL    HW172289   6.425  10.811  13.025  1.0212  1.2698 -1.8364
20188SOL    HW272290   6.575  10.809  13.004  1.1969 -2.0155 -0.7682
20189SOL     OW72291   9.130   0.910   1.307 -0.4146  0.9447 -0.0535
20189SOL    HW172292   9.077   0.921   1.228  0.6509  0.6210 -0.8403
20189SOL    HW272293   9.220   0.929   1.278  0.0909  0.0737  0.9063
20190SOL     OW72294  10.475  10.739  11.510 -0.1434  0.1620 -0.6053
20190SOL    HW172295  10.538  10.767  11.576  0.7860 -1.6647 -0.6462
20190SOL    HW272296  10.505  10.778  11.429  0.2564  0.2625 -0.4076
20191SOL     OW72297   8.331  11.928   1.683 -0.4522 -0.2512  0.6773
20191SOL    HW172298   8.291  11.998   1.630 -0.2792  0.7635  1.8460
20191SOL    HW272299   8.402  11.972   1.730 -0.7307 -1.0873  1.9049
20192SOL     OW72300   0.880   1.677   8.155  0.4532  0.4497  0.2450
20192SOL    HW172301   0.955   1.675   8.095  0.8214  1.1215  0.6761
20192SOL    HW272302   0.908   1.733   8.227  0.1176 -0.5485  1.1845
20193SOL     OW72303   1.562   1.738   7.771 -0.7650  0.1272  0.7407
20193SOL    HW172304   1.593   1.829   7.776  0.5109 -0.1309 -1.4115
20193SOL    HW272305   1.503   1.737   7.696 -1.2165 -0.7210  1.0931
20194SOL     OW72306   8.803  10.759   9.019  0.5827  0.1591 -0.4759
20194SOL    HW172307   8.768  10.847   9.002 -1.1898 -0.0588  1.6070
20194SOL    HW272308   8.884  10.775   9.069  0.6490  0.6058 -0.7180
20195SOL     OW72309  10.516   1.609   5.709  0.1327  0.0369  0.1079
20195SOL    HW172310  10.478   1.523   5.692 -0.5341  0.2904  0.3093
20195SOL    HW272311  10.446   1.671   5.689  0.5751  0.5331  0.0658
20196SOL     OW72312  13.205  12.194   9.767  0.2131  0.4372 -0.4224
20196SOL    HW172313  13.153  12.126   9.724  1.3059  0.1122 -1.2771
20196SOL    HW272314  13.284  12.149   9.796 -0.0234  0.8939  0.9780
20197SOL     OW72315  11.910   9.402   2.760 -0.5499 -0.4263  0.2380
20197SOL    HW172316  11.939   9.482   2.714 -0.8159 -0.5016 -0.0671
20197SOL    HW272317  11.896   9.338   2.690 -1.8861 -0.2567  0.3249
20198SOL     OW72318   6.389   9.868  10.661 -0.2130  0.4032 -0.0360
20198SOL    HW172319   6.441   9.880  10.741  0.0748 -0.6317 -0.0440
20198SOL    HW272320   6.311   9.922  10.674  0.4734  1.3334  0.3369
20199SOL     OW72321  10.052   1.112   1.487  0.3264  0.8301  0.1186
20199SOL    HW172322  10.045   1.101   1.392  0.5335  0.6821  0.1185
20199SOL    HW272323  10.109   1.040   1.515 -1.1239 -0.1789  0.5804
20200SOL     OW72324  11.617  13.386   1.186 -0.0811  0.3171  0.5977
20200SOL    HW172325  11.545  13.338   1.227  0.2875 -1.2114 -0.4681
20200SOL    HW272326  11.696  13.346   1.222  0.2341  0.1627 -0.2416
20201SOL     OW72327   8.269   6.801   2.632 -0.3619 -0.2700  0.2479
20201SOL    HW172328   8.236   6.855   2.705 -1.5622  0.3557 -0.7214
20201SOL    HW272329   8.209   6.727   2.628 -0.1712 -0.4132  0.0349
20202SOL     OW72330   4.083  11.111   2.858 -0.1900 -0.2112 -0.2527
20202SOL    HW172331   4.065  11.072   2.773  0.7033  1.8066 -1.4382
20202SOL    HW272332   4.063  11.204   2.847 -0.9815 -0.0268  2.0512
20203SOL     OW72333   9.065  13.627   5.145 -0.1534  0.3433 -0.6063
20203SOL    HW172334   9.029  13.592   5.064  1.0164  0.5621 -1.2587
20203SOL    HW272335   9.046  13.560   5.211 -1.5964  0.4067 -0.9299
20204SOL     OW72336  12.694  12.889   1.630  0.5586  0.2878  0.3631
20204SOL    HW172337  12.756  12.818   1.613  0.6936  0.7040 -0.9654
20204SOL    HW272338  12.724  12.962   1.576 -0.5530  0.7912  0.3829
20205SOL     OW72339   7.673   9.115   1.001 -0.1897 -0.4433 -0.2500
20205SOL    HW172340   7.699   9.207   1.002  0.0914 -0.5009  1.4408
20205SOL    HW272341   7.582   9.116   0.970  0.0869  0.3000 -1.0720
20206SOL     OW72342   8.179  12.926   5.556  0.1245 -0.0611 -0.2186
20206SOL    HW172343   8.110  12.910   5.492 -1.9164  0.4396  1.7446
20206SOL    HW272344   8.149  12.882   5.635  1.9116  0.4772  0.8080
20207SOL     OW72345  10.574   0.190   8.722 -0.3139  0.3113  0.5894
20207SOL    HW172346  10.488   0.188   8.763  0.3168  0.7089  2.0033
20207SOL    HW272347  10.636   0.184   8.795  0.8626  0.3030 -0.3707
20208SOL     OW72348   3.801  11.249  11.295 -0.0241  0.1950  0.4042
20208SOL    HW172349   3.762  11.218  11.377 -1.4778 -0.7207 -0.5833
20208SOL    HW272350   3.820  11.170  11.245  2.4888  0.6539  0.5124
20209SOL     OW72351   2.374   7.205   7.451  0.6112 -0.1106  0.6257
20209SOL    HW172352   2.358   7.113   7.431  2.6313 -0.2633 -0.5743
20209SOL    HW272353   2.328   7.254   7.382 -0.2033 -0.2091  1.0865
20210SOL     OW72354   4.445   3.865   7.521  0.5802  0.3323  0.4445
20210SOL    HW172355   4.393   3.912   7.587 -0.3502 -0.4102  0.2678
20210SOL    HW272356   4.380   3.816   7.471  1.2803  0.7455 -0.9248
20211SOL     OW72357  10.573   2.029   9.762  0.5795 -0.6018  0.2206
20211SOL    HW172358  10.519   2.099   9.799  1.5773 -0.4180  1.4118
20211SOL    HW272359  10.572   1.961   9.829  0.3011 -1.3759 -0.5658
20212SOL     OW72360   5.830   5.723   3.154 -0.2150  0.1962  0.3218
20212SOL    HW172361   5.839   5.634   3.188  1.9832  0.6002  0.9728
20212SOL    HW272362   5.802   5.775   3.230 -2.6932 -0.0473 -0.3216
20213SOL     OW72363   4.300   1.825   0.025 -0.1913 -0.2647 -0.3184
20213SOL    HW172364   4.351   1.749   0.053  0.2938 -0.0775 -0.6809
20213SOL    HW272365   4.358   1.872  -0.035 -0.9657 -0.3122 -1.1252
20214SOL     OW72366   8.701   6.851   2.044 -0.4035  0.2261  0.1293
20214SOL    HW172367   8.615   6.845   2.001 -0.9355  1.3157  0.9932
20214SOL    HW272368   8.761   6.872   1.973 -1.0303  0.5717 -0.3108
20215SOL     OW72369   1.900   4.908   9.446 -0.0014 -0.0391 -0.4951
20215SOL    HW172370   1.946   4.843   9.392 -0.0420  0.4954 -1.1860
20215SOL    HW272371   1.819   4.925   9.398  0.0992  0.6718 -0.4242
20216SOL     OW72372  11.459  11.473   0.143  0.3779 -0.0982  0.2076
20216SOL    HW172373  11.493  11.546   0.091 -1.6547  1.1685  0.5663
20216SOL    HW272374  11.438  11.406   0.079 -2.7260  1.6874 -0.8528
20217SOL     OW72375   6.800   2.127   3.436  0.2510  0.1470  0.3645
20217SOL    HW172376   6.751   2.079   3.502 -0.6353 -1.3357 -1.2930
20217SOL    HW272377   6.849   2.193   3.486  0.4769 -1.5899  2.5892
20218SOL     OW72378   7.016  11.490  13.129 -0.2151 -0.7318 -0.4350
20218SOL    HW172379   6.950  11.510  13.063 -0.1311 -0.9651 -0.5891
20218SOL    HW272380   7.062  11.573  13.143  1.0353 -1.1070 -2.0605
20219SOL     OW72381   6.053   9.934   2.992  0.1815  1.0774 -0.4243
20219SOL    HW172382   5.984   9.910   3.053 -1.4058 -0.5512 -2.6752
20219SOL    HW272383   6.121   9.867   3.004  0.1946  1.1632 -0.0047
20220SOL     OW72384   4.176   8.352  13.125  0.0094 -0.1882 -0.2203
20220SOL    HW172385   4.250   8.412  13.118 -0.0889  0.2069  1.6423
20220SOL    HW272386   4.100   8.408  13.139 -0.6607 -0.5973 -2.0204
20221SOL     OW72387   1.364  10.901   0.153 -0.7873 -0.1376 -0.2000
20221SOL    HW172388   1.456  10.898   0.127 -0.2676  1.3244  1.3249
20221SOL    HW272389   1.336  10.991   0.134 -1.1779  0.1575  1.5746
20222SOL     OW72390   0.217   2.400  12.821 -0.2163 -0.3384  0.6221
20222SOL    HW172391   0.134   2.383  12.776  0.1208 -0.6072  0.0860
20222SOL    HW272392   0.283   2.390  12.752  0.1995  0.6916  0.8558
20223SOL     OW72393   0.073   6.425   7.250 -0.4399 -0.5116  0.4996
20223SOL    HW172394   0.153   6.375   7.233  0.1868  0.9093 -0.9343
20223SOL    HW272395   0.007   6.358   7.270  0.7245 -1.7995  0.1866
20224SOL     OW72396   8.222   6.080   0.375  0.2982 -0.6367  0.2432
20224SOL    HW172397   8.279   6.026   0.430  0.1045 -0.3823  0.6986
20224SOL    HW272398   8.154   6.111   0.435  0.3594  0.0421 -0.0344
20225SOL     OW72399   0.818  10.779  10.554 -0.3190 -0.5752 -0.1560
20225SOL    HW172400   0.901  10.824  10.549 -0.0312 -1.0122  0.5167
20225SOL    HW272401   0.812  10.729  10.472  0.1106 -0.5893 -0.1795
20226SOL     OW72402  10.068   1.710   1.785  0.6076  0.6138 -0.1533
20226SOL    HW172403  10.073   1.620   1.754  2.8640  0.6730 -0.0972
20226SOL    HW272404  10.037   1.760   1.709 -1.6626 -0.2828  0.1080
20227SOL     OW72405   9.902  10.098   8.779 -0.0043 -0.0727  0.4078
20227SOL    HW172406   9.814  10.070   8.805  1.1866 -2.1137  2.6744
20227SOL    HW272407   9.922  10.044   8.702 -0.7420  0.4863 -0.1899
20228SOL     OW72408  12.625   4.068   9.600  0.4455  0.1008  0.4615
20228SOL    HW172409  12.624   4.154   9.558  1.3226 -0.0160  0.1958
20228SOL    HW272410  12.653   4.008   9.532 -2.9096 -0.9124 -0.2521
20229SOL     OW72411   3.246  12.601   1.288 -0.4700 -0.2872 -0.5813
20229SOL    HW172412   3.322  12.545   1.301 -0.4668 -0.3608 -0.9050
20229SOL    HW272413   3.173  12.540   1.278 -1.0170 -0.2227  2.1894
20230SOL     OW72414   3.757   7.348  10.232  0.0665  0.0463  0.6020
20230SOL    HW172415   3.832   7.399  10.264 -0.6710  1.2875  0.4295
20230SOL    HW272416   3.707   7.410  10.178 -2.3076 -0.0502  2.5427
20231SOL     OW72417   2.414   6.920  11.518 -0.2992  0.3571  0.9448
20231SOL    HW172418   2.426   6.992  11.455 -1.0253 -0.9254 -0.7306
20231SOL    HW272419   2.459   6.950  11.597 -2.2516  3.5329  1.0412
20232SOL     OW72420   9.348   1.746   9.776  0.3998 -0.0279  0.3528
20232SOL    HW172421   9.331   1.675   9.838  1.6187 -0.1080  0.6291
20232SOL    HW272422   9.344   1.826   9.829  1.9650 -0.1338  0.6889
20233SOL     OW72423   4.330  12.372   4.021  0.1089  0.2781  0.1222
20233SOL    HW172424   4.293  12.302   3.966  0.3626  1.6705 -1.9332
20233SOL    HW272425   4.283  12.364   4.104 -0.6588 -1.6194 -0.4330
20234SOL     OW72426  12.655   5.720   7.779 -0.2048  0.0871  0.3982
20234SOL    HW172427  12.600   5.714   7.701  0.4068  0.9802 -0.1202
20234SOL    HW272428  12.641   5.809   7.811 -0.3388 -0.2240  1.2374
20235SOL     OW72429  10.770   4.445  11.250 -0.1421 -0.1630 -0.1511
20235SOL    HW172430  10.748   4.356  11.220  0.6437 -0.8779  1.3099
20235SOL    HW272431  10.860   4.458  11.221 -0.6295  0.6417 -1.3809
20236SOL     OW72432  10.336   6.565   2.348  0.1749  0.2493 -0.2821
20236SOL    HW172433  10.377   6.650   2.366  1.2364 -0.0280 -1.3306
20236SOL    HW272434  10.289   6.545   2.429 -0.3832  1.9877 -0.1292
20237SOL     OW72435  12.071  12.686   2.245  0.3345 -0.2394 -0.2284
20237SOL    HW172436  12.066  12.617   2.179  0.4059  0.0607 -0.5506
20237SOL    HW272437  12.165  12.694   2.264  0.2715 -0.6725  0.2826
20238SOL     OW72438   4.774  11.348   9.235 -0.9174 -0.0370  0.1060
20238SOL    HW172439   4.700  11.320   9.290 -1.1857  1.2976  0.4660
20238SOL    HW272440   4.846  11.291   9.261 -1.2359  0.0907  1.3627
20239SOL     OW72441   5.216   4.434   3.210 -0.7715  0.1424 -0.1731
20239SOL    HW172442   5.167   4.374   3.154  2.7799 -1.3600 -1.9424
20239SOL    HW272443   5.211   4.395   3.297 -0.4362 -1.4835 -0.8614
20240SOL     OW72444   0.412   4.447   7.788  0.0978 -0.3975 -0.1131
20240SOL    HW172445   0.449   4.428   7.874  1.3726  1.2675 -0.2160
20240SOL    HW272446   0.489   4.466   7.733 -0.6866 -1.4478 -1.6304
20241SOL     OW72447   0.860   1.944   1.732 -0.1636 -0.2267  0.3784
20241SOL    HW172448   0.841   1.926   1.640 -0.6480 -2.2180  0.8070
20241SOL    HW272449   0.841   2.037   1.743  0.8337  0.2712 -1.7272
20242SOL     OW72450   6.491   7.445   0.812  0.5098 -0.3657  0.2239
20242SOL    HW172451   6.551   7.387   0.765 -0.1356 -0.0943 -0.9711
20242SOL    HW272452   6.466   7.510   0.747 -0.1326  0.2382  1.0627
20243SOL     OW72453   9.043   0.189   0.764 -0.4654 -0.4853  0.4104
20243SOL    HW172454   9.039   0.102   0.725  1.0739 -0.0936 -0.7749
20243SOL    HW272455   8.962   0.198   0.813 -1.2284 -2.1048 -0.4714
20244SOL     OW72456   7.585   0.012   1.578 -0.0741  0.0306  0.5185
20244SOL    HW172457   7.582  -0.080   1.605 -0.1583 -0.4218 -0.9416
20244SOL    HW272458   7.494   0.042   1.587  0.1438  0.2939  2.0029
20245SOL     OW72459   7.757   0.752   2.594  0.5304  0.7302  0.4015
20245SOL    HW172460   7.664   0.758   2.618 -0.6248  0.8732 -3.4062
20245SOL    HW272461   7.782   0.841   2.571  0.7030  0.2673 -1.3225
20246SOL     OW72462   9.416   8.305   6.727 -0.5783 -0.6556 -0.2997
20246SOL    HW172463   9.485   8.370   6.742 -1.1842 -0.2985  1.1323
20246SOL    HW272464   9.385   8.281   6.815  0.6323 -4.0513 -0.6526
20247SOL     OW72465   2.015   5.598   1.067 -0.2603 -0.7262 -0.1517
20247SOL    HW172466   2.044   5.628   1.153 -1.3312  0.1933 -0.0847
20247SOL    HW272467   2.052   5.661   1.006 -1.0525 -0.2680 -0.1743
20248SOL     OW72468   9.118  12.067   0.612  0.1049  0.1143  0.1312
20248SOL    HW172469   9.067  12.099   0.687  0.2372  1.4581 -0.3312
20248SOL    HW272470   9.061  12.003   0.570 -1.1451  1.4134 -0.2392
20249SOL     OW72471   1.739   8.971  11.927 -0.2015  0.2403  0.0072
20249SOL    HW172472   1.684   8.936  11.997  0.1466  1.9678  1.2163
20249SOL    HW272473   1.742   9.066  11.944  1.6787  0.4247 -1.0669
20250SOL     OW72474  13.423  11.029   1.910 -0.4720 -0.0246  0.1485
20250SOL    HW172475  13.410  10.962   1.978 -2.1251 -0.1246 -0.2086
20250SOL    HW272476  13.357  11.008   1.844  0.8878  0.2676 -1.3640
20251SOL     OW72477   3.755   1.804  11.919  0.0641  0.2143 -0.3320
20251SOL    HW172478   3.662   1.785  11.904 -0.0645  0.7828 -0.2794
20251SOL    HW272479   3.765   1.895  11.891  0.8408 -0.1789 -1.3659
20252SOL     OW72480   5.900  10.402   7.754 -0.0826 -0.4099 -0.7403
20252SOL    HW172481   5.863  10.458   7.685  1.8546  0.7849 -0.8688
20252SOL    HW272482   5.883  10.449   7.835  2.6344  1.1533 -0.9409
20253SOL     OW72483   9.482  10.937   3.561 -0.0126 -0.6772  0.0730
20253SOL    HW172484   9.554  10.911   3.505  1.3581 -0.3829  1.6325
20253SOL    HW272485   9.433  10.856   3.577  0.3738 -1.0143 -0.4192
20254SOL     OW72486   4.565   0.483   6.516  0.6959  0.2884 -0.7611
20254SOL    HW172487   4.627   0.556   6.518  2.6011 -1.2342 -0.3569
20254SOL    HW272488   4.618   0.407   6.541 -1.7907 -0.8405  1.4568
20255SOL     OW72489   6.044  10.980  13.471 -0.4002  0.4505 -1.0468
20255SOL    HW172490   5.966  10.989  13.525 -0.3536  0.1140 -0.9251
20255SOL    HW272491   6.101  11.052  13.499  0.5808 -1.0032  0.9616
20256SOL     OW72492  12.695  12.852   9.831  0.3886  0.1943 -0.3084
20256SOL    HW172493  12.655  12.879   9.748 -1.4260 -1.2763  0.0231
20256SOL    HW272494  12.756  12.782   9.806 -0.0630 -0.1615 -0.4398
20257SOL     OW72495   2.160   6.324  11.254 -0.3757  0.6768 -0.2929
20257SOL    HW172496   2.177   6.362  11.340 -1.9991  1.0042 -0.0871
20257SOL    HW272497   2.237   6.271  11.236 -0.2743  0.0733  1.6604
20258SOL     OW72498   6.013   1.389   6.457  0.2675 -0.2312 -0.1470
20258SOL    HW172499   6.013   1.328   6.531  1.8125  0.8314  0.7947
20258SOL    HW272500   6.082   1.452   6.478 -1.2098  1.8086 -1.1282
20259SOL     OW72501   7.909   0.045   0.885  0.1593 -0.1678 -0.3185
20259SOL    HW172502   7.938   0.136   0.888 -0.9971  0.2257 -0.5126
20259SOL    HW272503   7.855   0.034   0.963  0.5445 -0.7734 -0.1384
20260SOL     OW72504   9.505   0.593  12.857  0.1446 -0.0742  0.6717
20260SOL    HW172505   9.505   0.564  12.948 -0.0206  2.1830  1.4640
20260SOL    HW272506   9.466   0.680  12.859 -0.0353 -0.0232 -1.6032
20261SOL     OW72507   4.585  10.924  13.362  0.7292 -0.2087  0.0963
20261SOL    HW172508   4.523  10.928  13.435  0.6630 -1.1128  0.0993
20261SOL    HW272509   4.653  10.988  13.385 -0.1367  0.7207  0.1355
20262SOL     OW72510   0.908   0.980  13.205 -0.3367 -0.4840  0.7861
20262SOL    HW172511   0.993   0.999  13.246  0.8009 -1.1006 -1.1532
20262SOL    HW272512   0.863   1.064  13.205  0.5795  0.0298  1.1695
20263SOL     OW72513   7.003   6.505   9.036  0.5200  0.4457 -0.1545
20263SOL    HW172514   6.980   6.541   9.122 -2.1123 -0.4004 -0.4088
20263SOL    HW272515   6.959   6.420   9.033  2.5433 -0.6395 -1.4547
20264SOL     OW72516   8.817   1.191   3.243  0.5369  0.4538 -0.2446
20264SOL    HW172517   8.841   1.107   3.282  0.0538  0.7167  0.6433
20264SOL    HW272518   8.724   1.181   3.221  1.3611 -0.7003 -4.0182
20265SOL     OW72519   8.167   6.324  12.041  0.2372  0.4676 -0.3819
20265SOL    HW172520   8.147   6.271  11.963  0.8194  1.0451 -0.9382
20265SOL    HW272521   8.130   6.275  12.113  0.2887 -0.4382 -0.9501
20266SOL     OW72522   4.087   9.260   1.317 -0.2262 -0.2934  0.0353
20266SOL    HW172523   4.162   9.258   1.258 -0.7526 -0.2968 -0.6375
20266SOL    HW272524   4.035   9.335   1.288 -1.5458 -1.4918 -0.8256
20267SOL     OW72525   3.417   7.192   1.798 -0.1349 -0.0661 -0.4910
20267SOL    HW172526   3.468   7.145   1.864  0.2308 -0.4944 -1.0711
20267SOL    HW272527   3.361   7.251   1.849 -0.1354 -0.6613  0.2169
20268SOL     OW72528  10.792  10.740   6.261  0.5604  0.4013 -0.1450
20268SOL    HW172529  10.793  10.652   6.299  1.5783 -0.5967 -2.3297
20268SOL    HW272530  10.759  10.796   6.332 -0.1721 -1.7154  1.2880
20269SOL     OW72531   7.105   2.087   4.072 -0.0905  0.0523 -0.2243
20269SOL    HW172532   7.032   2.109   4.015  0.5416  0.6744 -0.8247
20269SOL    HW272533   7.072   2.100   4.161 -1.5036 -2.1798 -0.3284
20270SOL     OW72534  11.295   1.314  12.680  0.1830 -0.6749  0.0544
20270SOL    HW172535  11.330   1.388  12.630 -2.8565 -0.7112 -2.4198
20270SOL    HW272536  11.291   1.346  12.770 -0.7451  2.1104 -0.8807
20271SOL     OW72537   3.939  11.977   0.609  0.1324  0.2787 -0.0244
20271SOL    HW172538   3.915  12.018   0.526 -0.6768  0.4472  0.2786
20271SOL    HW272539   3.877  11.904   0.617  0.3517  0.1323  0.3250
20272SOL     OW72540   4.504   8.742   8.534 -0.1045  0.0732  0.0672
20272SOL    HW172541   4.424   8.692   8.547 -0.4563  0.5075 -0.4029
20272SOL    HW272542   4.551   8.695   8.464  0.5124 -0.7195  0.9819
20273SOL     OW72543  11.677   6.828  13.656  0.4759  0.5518 -0.3276
20273SOL    HW172544  11.632   6.796  13.735  1.2098 -0.4055 -0.2696
20273SOL    HW272545  11.741   6.890  13.689  1.3888 -0.4990 -0.0371
20274SOL     OW72546   0.993  12.620  12.961 -0.1745  0.0267 -0.1029
20274SOL    HW172547   0.898  12.626  12.973 -0.3942 -2.1871 -0.3290
20274SOL    HW272548   1.027  12.600  13.048 -0.0684 -0.5326 -0.2708
20275SOL     OW72549   7.253   6.229  10.212 -0.2874  0.5926  0.2991
20275SOL    HW172550   7.305   6.307  10.192 -0.5192  0.5792 -0.3670
20275SOL    HW272551   7.165   6.263  10.229  0.0687  0.6994  2.1676
20276SOL     OW72552   0.563   6.605  11.968 -0.1931 -0.5577  0.3302
20276SOL    HW172553   0.635   6.667  11.953 -1.1478  0.6102  0.4821
20276SOL    HW272554   0.543   6.571  11.880  0.2103 -0.5304  0.2204
20277SOL     OW72555   2.601   7.446   3.790  0.2022 -0.3252  0.4380
20277SOL    HW172556   2.676   7.415   3.739  0.1434  0.5855 -0.2338
20277SOL    HW272557   2.536   7.377   3.782  0.4747 -0.5188 -0.1148
20278SOL     OW72558  13.258   2.200  12.991 -0.2292  0.0671  0.3930
20278SOL    HW172559  13.266   2.106  13.010  1.6809  0.0318 -0.3481
20278SOL    HW272560  13.287   2.243  13.071  0.4665 -0.0072  0.1884
20279SOL     OW72561   3.188  13.527   4.889  0.3458  0.2252 -0.2922
20279SOL    HW172562   3.159  13.507   4.800  2.4537 -0.3191 -0.9159
20279SOL    HW272563   3.135  13.602   4.916 -0.9223 -0.1442 -1.6616
20280SOL     OW72564   7.976   2.987   5.202 -0.1238 -0.3350 -0.2801
20280SOL    HW172565   7.970   2.891   5.210 -0.5175 -0.2668  0.3778
20280SOL    HW272566   7.911   3.019   5.265 -1.1340  0.3474 -1.6263
20281SOL     OW72567   7.495   1.626  11.992 -0.2473 -0.1450  0.0643
20281SOL    HW172568   7.534   1.539  12.002  0.7663  0.0049 -2.0106
20281SOL    HW272569   7.561   1.686  12.026 -0.3091 -0.1171  0.1336
20282SOL     OW72570   1.725   2.459  11.990  0.3373 -0.1281  0.6101
20282SOL    HW172571   1.765   2.546  11.991  1.1614 -0.4155 -1.9077
20282SOL    HW272572   1.687   2.450  12.078  2.0490  1.8947  1.6578
20283SOL     OW72573   6.226   4.698   9.752 -0.3339 -0.3539  0.6534
20283SOL    HW172574   6.284   4.772   9.773 -0.4848 -0.3617  1.0958
20283SOL    HW272575   6.173   4.730   9.679  0.7050 -0.5925 -0.2214
20284SOL     OW72576   1.797   6.540   7.618 -0.1961  0.3999 -0.1349
20284SOL    HW172577   1.796   6.635   7.635  0.5611  0.3964 -0.0337
20284SOL    HW272578   1.888   6.515   7.632 -0.0610 -0.0754 -1.7110
20285SOL     OW72579   1.454   9.673   8.971 -0.0589  0.1591 -0.3075
20285SOL    HW172580   1.481   9.633   9.054 -1.4770 -1.8262 -0.7577
20285SOL    HW272581   1.477   9.609   8.905 -1.9397  0.2654 -1.1164
20286SOL     OW72582   3.418   7.712   3.391 -0.1545 -0.6060 -0.3801
20286SOL    HW172583   3.433   7.702   3.297  1.7680 -2.6558  0.0516
20286SOL    HW272584   3.488   7.770   3.421  1.1323 -2.3790  0.1898
20287SOL     OW72585   0.857   8.686   8.881  0.0526  0.1214 -0.0540
20287SOL    HW172586   0.851   8.617   8.947  1.2896 -0.1356 -0.1892
20287SOL    HW272587   0.808   8.759   8.918  0.8140  0.0145  1.2049
20288SOL     OW72588   3.543   2.793   7.069  0.2987 -0.0970 -0.3730
20288SOL    HW172589   3.595   2.720   7.101  1.1069  1.0093  0.9926
20288SOL    HW272590   3.567   2.803   6.977 -0.2201 -1.8390 -0.7242
20289SOL     OW72591   9.480  11.728   1.980 -0.1135 -0.0790  0.2289
20289SOL    HW172592   9.467  11.790   1.909  0.2255 -0.8876 -0.5479
20289SOL    HW272593   9.408  11.665   1.971  0.2102 -0.4630  0.3016
20290SOL     OW72594   9.912  10.449   8.142 -0.1711 -0.7090 -0.0078
20290SOL    HW172595   9.950  10.482   8.223 -0.3872 -1.6044  0.4665
20290SOL    HW272596   9.855  10.377   8.169  0.3653 -1.5437 -1.0185
20291SOL     OW72597   3.238  11.181   8.264  0.6624  0.3682  0.1232
20291SOL    HW172598   3.167  11.208   8.323  0.5101  0.2434 -0.0026
20291SOL    HW272599   3.307  11.149   8.323  0.6091  0.4758  0.2448
20292SOL     OW72600   9.110   4.914   1.144 -0.0366 -0.3453  0.4444
20292SOL    HW172601   9.188   4.892   1.092 -0.5265 -0.0441 -0.4302
20292SOL    HW272602   9.131   4.883   1.232  0.6844 -1.1603  0.0027
20293SOL     OW72603   3.533   8.361   6.220  0.4298  0.1678  0.5115
20293SOL    HW172604   3.511   8.280   6.173  0.4967 -1.3765  2.9401
20293SOL    HW272605   3.627   8.354   6.237  0.5988  1.1759  0.0478
20294SOL     OW72606   8.102   1.536  11.780 -0.4348 -0.0032 -0.0809
20294SOL    HW172607   8.125   1.547  11.688 -2.1232 -2.8245 -0.9721
20294SOL    HW272608   8.161   1.596  11.827  0.1001  1.9418 -2.9785
20295SOL     OW72609   1.370   9.028  13.688 -0.4716  0.4002 -0.4177
20295SOL    HW172610   1.464   9.027  13.702 -0.0613 -0.3933 -2.8005
20295SOL    HW272611   1.337   9.096  13.748  1.4985  0.2885  0.8699
20296SOL     OW72612  10.685  11.653   1.559 -0.3506 -0.4668 -0.1571
20296SOL    HW172613  10.600  11.664   1.515 -0.6576  0.2451  0.5792
20296SOL    HW272614  10.666  11.595   1.633 -0.0421 -0.8835 -0.4043
20297SOL     OW72615   6.444   2.076   4.157 -0.5705  0.0315  0.1929
20297SOL    HW172616   6.457   1.981   4.163 -0.8859  0.0692  1.5659
20297SOL    HW272617   6.410   2.102   4.242 -2.4455  1.0961 -0.8072
20298SOL     OW72618   9.995   3.203  10.678  0.6388  0.4080 -0.0412
20298SOL    HW172619   9.918   3.256  10.698  0.9274  1.4145 -1.4501
20298SOL    HW272620  10.069   3.255  10.710  0.9002  0.7327 -1.1246
20299SOL     OW72621  10.072   1.765   9.737 -0.1150  0.3514  0.2223
20299SOL    HW172622  10.117   1.781   9.820  0.4481  2.4585 -0.4451
20299SOL    HW272623   9.981   1.753   9.762  0.3969 -1.7468  1.3716
20300SOL     OW72624  13.482   0.598   9.744  0.0335  0.0562 -0.3918
20300SOL    HW172625  13.403   0.544   9.745  0.8091 -1.1371  0.3982
20300SOL    HW272626  13.456   0.679   9.701 -0.6479 -1.7781 -3.7556
20301SOL     OW72627   5.449  13.266  12.999  0.2842 -0.5936  0.6849
20301SOL    HW172628   5.505  13.260  12.922 -0.7388 -1.9915  0.0083
20301SOL    HW272629   5.502  13.230  13.070  1.0725  0.3006  0.5769
20302SOL     OW72630   6.194   2.538   1.185  0.5225 -0.3182 -0.3530
20302SOL    HW172631   6.228   2.491   1.262 -1.4964 -0.3234  0.5974
20302SOL    HW272632   6.102   2.556   1.206 -0.3684 -1.0635 -3.1109
20303SOL     OW72633   7.924  10.359   3.096  0.5719  0.3455 -0.8935
20303SOL    HW172634   8.009  10.401   3.081 -0.6185  2.6436 -1.6571
20303SOL    HW272635   7.873  10.425   3.143 -0.4901 -1.3914  0.5038
20304SOL     OW72636   6.564   2.065   8.565  0.1404  0.0228 -0.0721
20304SOL    HW172637   6.561   2.153   8.526 -3.3290  0.7679  1.5597
20304SOL    HW272638   6.611   2.077   8.647 -1.1404  0.6343  0.6029
20305SOL     OW72639   9.764   1.259  12.698  0.5395  0.8153 -0.6858
20305SOL    HW172640   9.785   1.282  12.607  1.5165  1.8130 -0.2143
20305SOL    HW272641   9.697   1.322  12.724  1.0851  1.2673 -0.3532
20306SOL     OW72642  13.456  12.283   9.541  0.7204  0.6742  0.0206
20306SOL    HW172643  13.402  12.355   9.509  0.8899  0.7460 -0.1053
20306SOL    HW272644  13.399  12.206   9.535  0.8188  0.6445 -0.6708
20307SOL     OW72645  10.075   7.045   9.950  0.0387 -0.0302  0.2992
20307SOL    HW172646  10.147   7.096   9.912 -2.4641  1.6932 -2.6036
20307SOL    HW272647  10.054   7.090  10.032 -0.0643  1.7555 -0.6557
20308SOL     OW72648   2.440   4.330  11.747 -0.1258  0.3218 -0.4231
20308SOL    HW172649   2.526   4.332  11.787 -0.2551  0.3581 -0.1453
20308SOL    HW272650   2.444   4.395  11.677 -0.2922  1.1498  0.3254
20309SOL     OW72651   5.137   4.283  10.664 -0.0302  0.0206  0.3098
20309SOL    HW172652   5.131   4.358  10.723  1.0041  0.7255 -0.4670
20309SOL    HW272653   5.216   4.237  10.691  0.7952  0.6915 -0.9034
20310SOL     OW72654  11.929   6.549  11.551 -0.0285 -0.0019  0.7078
20310SOL    HW172655  11.967   6.584  11.632  1.5181  0.4422 -0.1562
20310SOL    HW272656  11.869   6.481  11.580 -0.6899  1.1985  2.2907
20311SOL     OW72657   8.368  11.775   9.315 -0.0307 -0.5349  0.2349
20311SOL    HW172658   8.445  11.764   9.370  0.4917  1.1477 -0.1182
20311SOL    HW272659   8.298  11.732   9.364  0.0184  2.3536  3.1812
20312SOL     OW72660  10.355   3.667   7.206 -0.5047 -0.1164 -0.0762
20312SOL    HW172661  10.324   3.673   7.296 -0.7423 -0.5725 -0.1205
20312SOL    HW272662  10.289   3.715   7.155  0.3581  1.3403  0.1384
20313SOL     OW72663   0.080   2.200   8.790  0.0632 -0.2521  0.4320
20313SOL    HW172664   0.081   2.108   8.815 -1.7099 -0.2157  0.7779
20313SOL    HW272665   0.014   2.205   8.720  0.6933  0.6294 -0.1204
20314SOL     OW72666   5.145   7.691  12.217 -0.1914 -0.5538 -0.1017
20314SOL    HW172667   5.069   7.651  12.260  0.3267 -0.3123  1.0712
20314SOL    HW272668   5.200   7.618  12.191 -0.7186 -0.7218 -0.7500
20315SOL     OW72669   1.339   8.131   2.160 -0.6778 -0.2399  0.5928
20315SOL    HW172670   1.252   8.098   2.136 -0.2624 -0.7950 -0.2204
20315SOL    HW272671   1.386   8.053   2.189 -0.3852  0.0262  0.8329
20316SOL     OW72672  10.992   3.592   9.655 -0.3802  0.4097  0.5276
20316SOL    HW172673  11.027   3.528   9.717  1.8505  0.4887 -0.5208
20316SOL    HW272674  11.004   3.551   9.569 -0.2188  1.6387 -0.0669
20317SOL     OW72675   1.195  13.624  11.816  0.3633  0.1119 -0.6161
20317SOL    HW172676   1.213  13.702  11.869 -1.0413  0.4563 -0.6137
20317SOL    HW272677   1.117  13.647  11.765 -1.6585 -2.1597  1.2470
20318SOL     OW72678  10.089   3.557   2.932  0.2734 -0.2517  0.0451
20318SOL    HW172679  10.045   3.531   3.013 -0.9765  0.4724 -0.3800
20318SOL    HW272680  10.043   3.635   2.903  0.6789 -0.5103 -1.3882
20319SOL     OW72681   2.210   6.992   7.851 -0.0528  0.5107  0.0647
20319SOL    HW172682   2.280   7.057   7.845 -1.6772  2.4121  0.8887
20319SOL    HW272683   2.176   6.985   7.762 -0.6167  1.6945  0.1698
20320SOL     OW72684  12.167  12.903   0.334 -0.3768  0.6279 -0.1536
20320SOL    HW172685  12.235  12.865   0.389 -0.1370  0.7623 -0.3534
20320SOL    HW272686  12.085  12.868   0.369 -0.1018 -1.0741 -1.0891
20321SOL     OW72687  11.736   9.005  11.164  0.3370  0.2369  0.2266
20321SOL    HW172688  11.829   8.984  11.172  0.2434  0.0200  0.7311
20321SOL    HW272689  11.714   9.050  11.245 -0.3537 -1.0472  0.7763
20322SOL     OW72690   1.649   3.452   9.395 -0.0297  0.6395 -0.3923
20322SOL    HW172691   1.618   3.362   9.405  1.4838 -0.0772 -1.6133
20322SOL    HW272692   1.673   3.479   9.483  1.6554 -1.0373 -0.2667
20323SOL     OW72693  12.786  13.052  10.799  0.7296 -0.0412  0.2952
20323SOL    HW172694  12.856  12.987  10.810  0.3173 -1.1936 -2.9555
20323SOL    HW272695  12.706  13.000  10.792  0.0781  0.9799 -0.0347
20324SOL     OW72696  12.338  12.425   6.058 -0.1772 -0.1691 -0.1515
20324SOL    HW172697  12.278  12.360   6.096 -1.4605  0.2147 -1.4062
20324SOL    HW272698  12.304  12.509   6.088 -0.5317  0.0738 -1.2074
20325SOL     OW72699   9.151   7.169   5.822 -0.6663 -0.0894 -0.2828
20325SOL    HW172700   9.067   7.159   5.778 -1.7527 -0.0161  1.6643
20325SOL    HW272701   9.215   7.140   5.757 -2.3567 -2.7346 -0.9489
20326SOL     OW72702   1.749   8.693  10.432  0.3126  0.2326 -0.3262
20326SOL    HW172703   1.656   8.712  10.417  0.1894  1.2318  1.4960
20326SOL    HW272704   1.752   8.598  10.448 -0.4357  0.2416 -0.1096
20327SOL     OW72705   1.209   9.362   2.671  1.0114  0.2359 -0.2656
20327SOL    HW172706   1.257   9.313   2.604 -0.5958 -1.8717  0.0237
20327SOL    HW272707   1.135   9.305   2.694 -1.6500  3.2617 -0.6706
20328SOL     OW72708   7.948   9.613   9.447  0.2199  0.4738  0.3053
20328SOL    HW172709   7.936   9.602   9.541  0.4892 -2.2631  0.0989
20328SOL    HW272710   7.940   9.525   9.411 -2.0066  1.6733 -2.5369
20329SOL     OW72711   9.457  13.020  13.341  0.0061 -0.5501 -0.0949
20329SOL    HW172712   9.432  13.111  13.324 -0.7357 -0.7909 -0.3541
20329SOL    HW272713   9.395  12.991  13.408  1.2838 -0.3833  1.1852
20330SOL     OW72714   2.386  13.634  11.692 -0.5831 -1.0996 -0.1508
20330SOL    HW172715   2.295  13.664  11.686 -0.7455 -1.6770 -0.6502
20330SOL    HW272716   2.382  13.541  11.672  0.1416 -1.1043 -0.2974
20331SOL     OW72717   4.966   2.592   9.784  0.8503 -0.1117  0.0766
20331SOL    HW172718   4.974   2.553   9.697  0.7607  0.3760 -0.1487
20331SOL    HW272719   4.985   2.685   9.772  1.6188 -0.1714  0.7092
20332SOL     OW72720   7.441  11.818   9.277  0.0823 -0.1306 -0.6738
20332SOL    HW172721   7.403  11.732   9.292 -0.9426  0.2239 -1.1262
20332SOL    HW272722   7.499  11.832   9.352 -0.0434 -1.0443 -0.3968
20333SOL     OW72723   9.969   1.925   5.377  0.3105 -0.3476  0.2838
20333SOL    HW172724  10.015   1.855   5.423  0.7820  0.5729  1.2679
20333SOL    HW272725   9.886   1.886   5.350  0.5740 -1.2854  0.7906
20334SOL     OW72726  12.303   7.834   0.583 -0.2970  0.4323 -0.1247
20334SOL    HW172727  12.285   7.832   0.677 -0.8903  1.1524 -0.2179
20334SOL    HW272728  12.221   7.862   0.543  0.9281  3.8793 -0.5505
20335SOL     OW72729   7.867  12.832   6.755  0.1336  0.1102  0.3598
20335SOL    HW172730   7.945  12.811   6.703  1.1991  0.7931  1.6268
20335SOL    HW272731   7.897  12.829   6.845 -1.4675 -0.1606  0.9205
20336SOL     OW72732   5.716   3.211   8.319 -0.4100 -0.0580  0.0069
20336SOL    HW172733   5.625   3.203   8.288 -0.5178 -1.1848  0.5618
20336SOL    HW272734   5.725   3.304   8.342 -1.2272  0.1935 -0.6413
20337SOL     OW72735  11.489   1.235   8.465  0.3805  0.0026 -0.2070
20337SOL    HW172736  11.453   1.281   8.541  0.3743 -0.2708 -0.0405
20337SOL    HW272737  11.568   1.192   8.499  0.2127 -0.3651 -0.2831
20338SOL     OW72738  13.453   3.939   4.372 -0.0032  0.2349  0.5397
20338SOL    HW172739  13.416   3.866   4.323 -1.3507  1.3992 -0.2776
20338SOL    HW272740  13.485   4.000   4.305  2.0496 -0.0197  1.2144
20339SOL     OW72741   3.677   0.486   3.886  0.6435 -0.1598  0.3586
20339SOL    HW172742   3.699   0.394   3.903 -0.3760 -0.3147  0.9300
20339SOL    HW272743   3.675   0.493   3.791  2.6141 -0.2452  0.2712
20340SOL     OW72744   3.807   7.345   5.882  0.0430  0.3618 -0.1276
20340SOL    HW172745   3.854   7.388   5.953  0.8703 -0.2104 -0.3216
20340SOL    HW272746   3.715   7.367   5.898  0.2798  0.7604  0.7537
20341SOL     OW72747   6.389   3.016   7.821 -1.0794  0.0187  0.1452
20341SOL    HW172748   6.358   3.107   7.811  0.2586  0.4315 -0.5073
20341SOL    HW272749   6.309   2.965   7.834 -1.8646  1.2821  0.4734
20342SOL     OW72750   0.104   6.533   7.997  0.1334 -0.2016  0.0025
20342SOL    HW172751   0.101   6.498   7.908  0.1781 -0.9686  0.2930
20342SOL    HW272752   0.016   6.515   8.033 -0.3919  1.4706 -0.3822
20343SOL     OW72753  12.335   9.344  12.628 -0.4132 -0.0382  0.2208
20343SOL    HW172754  12.286   9.384  12.556  0.0138 -0.6669 -0.4417
20343SOL    HW272755  12.424   9.335  12.595 -0.3533 -0.9311  0.5735
20344SOL     OW72756  13.707   6.089  12.927  0.0074 -0.2007  0.4824
20344SOL    HW172757  13.658   6.108  13.007 -1.7021 -0.5359 -0.4343
20344SOL    HW272758  13.649   6.032  12.876  1.2204 -0.3287 -0.8257
20345SOL     OW72759  12.030   8.804   5.431  0.5820 -0.2833 -0.1927
20345SOL    HW172760  12.112   8.786   5.478 -0.0910  1.1223  1.6679
20345SOL    HW272761  12.057   8.832   5.344  2.2032  1.3814  0.7677
20346SOL     OW72762   8.649   7.917   0.759  0.6653 -0.1479  0.1200
20346SOL    HW172763   8.698   7.989   0.720  1.6241  0.1171  1.7198
20346SOL    HW272764   8.623   7.949   0.846 -0.7379 -0.9795  0.0419
20347SOL     OW72765   3.569   9.612   3.028  0.3817 -0.5395  0.0007
20347SOL    HW172766   3.640   9.671   3.053 -0.6973 -0.5080  3.5857
20347SOL    HW272767   3.496   9.669   3.005  0.0220 -0.4142  1.3304
20348SOL     OW72768   8.616   0.874   5.545 -0.3558 -0.1431  0.1360
20348SOL    HW172769   8.631   0.968   5.551 -2.2868  0.1383  1.4949
20348SOL    HW272770   8.524   0.865   5.520  0.0318 -1.6915 -0.9294
20349SOL     OW72771   4.281   3.085  13.599  0.5036 -0.3751  0.3845
20349SOL    HW172772   4.332   3.031  13.540 -1.7988 -1.6230 -0.5702
20349SOL    HW272773   4.240   3.023  13.660 -0.1905  0.5259  0.8636
20350SOL     OW72774   1.920   7.291   6.157  0.1191 -0.4977  0.5313
20350SOL    HW172775   1.970   7.350   6.214  1.5371 -0.0818 -1.0628
20350SOL    HW272776   1.985   7.229   6.125  0.0217  0.8760 -2.6955
20351SOL     OW72777   3.261   0.505   5.498  0.0406 -0.3445  0.1936
20351SOL    HW172778   3.187   0.553   5.536  1.1914  0.8067  1.0765
20351SOL    HW272779   3.252   0.518   5.404 -1.5658 -1.2894  0.1828
20352SOL     OW72780   4.446   9.791   5.894  0.3254  0.0455 -0.1664
20352SOL    HW172781   4.523   9.795   5.951  0.4420  0.0619 -0.3258
20352SOL    HW272782   4.403   9.875   5.905  0.1272 -0.1021  0.2084
20353SOL     OW72783   1.898   1.817   0.188 -0.4340  0.2071  0.0655
20353SOL    HW172784   1.877   1.743   0.245 -0.8895  0.2793 -0.0031
20353SOL    HW272785   1.967   1.784   0.131 -0.3398 -0.0315  0.3118
20354SOL     OW72786   5.595   4.214   7.011 -0.0438  0.2789 -0.1190
20354SOL    HW172787   5.651   4.208   7.088  1.8444  1.5584 -1.3247
20354SOL    HW272788   5.649   4.255   6.944 -2.3045  1.2729 -1.4857
20355SOL     OW72789   1.955  10.612   4.779 -0.2351 -0.1281  0.5361
20355SOL    HW172790   1.990  10.669   4.710 -1.6317 -0.9648 -0.9559
20355SOL    HW272791   1.952  10.525   4.739 -0.8026 -0.6942  1.7599
20356SOL     OW72792  12.029   7.084   2.382 -0.5145  0.2099  0.3649
20356SOL    HW172793  12.111   7.106   2.336 -0.1895  1.3013  1.4310
20356SOL    HW272794  11.963   7.083   2.313  0.4847 -1.4499 -0.6588
20357SOL     OW72795   3.480   4.608   7.496  0.7759  0.6074  0.5762
20357SOL    HW172796   3.449   4.568   7.415  1.0576  0.7841  0.3778
20357SOL    HW272797   3.526   4.538   7.542 -1.2577 -0.1117  1.6302
20358SOL     OW72798  10.141   0.761  13.282  0.4008  0.2473  0.4386
20358SOL    HW172799  10.080   0.793  13.348 -0.7905 -0.8853 -0.0697
20358SOL    HW272800  10.212   0.720  13.333 -1.0066 -1.5369  1.0556
20359SOL     OW72801   7.674  11.958   3.494  0.3701  0.2173  0.0923
20359SOL    HW172802   7.677  12.034   3.552  0.6738 -0.0710  0.4609
20359SOL    HW272803   7.747  11.972   3.433 -0.3895  0.8735 -0.6754
20360SOL     OW72804   9.282   8.817   0.155  0.1091 -0.0005 -0.3655
20360SOL    HW172805   9.313   8.726   0.151  0.2389 -0.1477  2.0474
20360SOL    HW272806   9.362   8.870   0.151  0.3269 -0.1688  1.0254
20361SOL     OW72807  12.917  13.069   9.614  0.0015  0.1014 -0.2547
20361SOL    HW172808  12.993  13.047   9.668  0.8653  0.0419 -1.4642
20361SOL    HW272809  12.883  12.985   9.586  1.0022  0.1568 -1.7360
20362SOL     OW72810   3.872  13.671   5.195  0.5393 -0.0161 -0.2326
20362SOL    HW172811   3.792  13.641   5.239  0.2183 -1.2884 -1.6213
20362SOL    HW272812   3.840  13.717   5.117  1.1370  0.9775  0.0941
20363SOL     OW72813   7.350  11.648  10.582 -0.5914 -0.0424 -0.0545
20363SOL    HW172814   7.443  11.634  10.565 -0.3844  0.6560  0.4252
20363SOL    HW272815   7.330  11.587  10.654 -0.8089 -1.0466 -0.9407
20364SOL     OW72816   2.417   1.623   6.008 -0.5266  0.4954  0.0119
20364SOL    HW172817   2.354   1.670   6.063  0.5849  2.1980 -0.0827
20364SOL    HW272818   2.461   1.691   5.957  0.8802 -0.6896 -0.4675
20365SOL     OW72819  11.791  10.404   7.784  0.2535  0.4284 -0.4253
20365SOL    HW172820  11.793  10.448   7.699 -0.0409 -1.5044 -1.4914
20365SOL    HW272821  11.702  10.371   7.791  0.5528 -0.2747  0.1646
20366SOL     OW72822   5.276   6.390  10.733  0.2584 -0.1914 -0.5769
20366SOL    HW172823   5.269   6.388  10.829  0.4178  1.2180 -0.5180
20366SOL    HW272824   5.257   6.481  10.710  3.2960  0.2844 -1.6237
20367SOL     OW72825   5.397  13.059   9.982 -0.2525 -0.1756  0.5023
20367SOL    HW172826   5.477  13.072   9.931  0.4703 -0.6980  1.4719
20367SOL    HW272827   5.339  13.008   9.925  0.2036 -0.0128 -0.1089
20368SOL     OW72828   6.929  10.995   2.070 -0.3969 -0.4733 -0.0646
20368SOL    HW172829   6.946  10.917   2.017  0.8501  0.1587 -0.6126
20368SOL    HW272830   6.929  10.962   2.160 -0.1643 -1.1620 -0.3082
20369SOL     OW72831  12.748   6.786  12.005  0.5852  0.0931 -0.3029
20369SOL    HW172832  12.652   6.782  12.006  0.6034 -1.8413  2.2643
20369SOL    HW272833  12.768   6.876  12.029 -0.5100  0.9331 -2.2547
20370SOL     OW72834   2.831   5.287   5.209 -0.4386 -0.3167  0.1383
20370SOL    HW172835   2.736   5.302   5.207 -0.3515  0.4496  1.0279
20370SOL    HW272836   2.852   5.282   5.302  0.5382  0.4902 -0.0250
20371SOL     OW72837   5.632   4.905   7.644  0.0730 -0.3186 -0.1068
20371SOL    HW172838   5.543   4.877   7.663  0.9310 -2.1233  1.6430
20371SOL    HW272839   5.649   4.975   7.707  0.5304 -1.4039  1.0266
20372SOL     OW72840   5.412   0.142   8.862  0.5897 -0.1221  0.2027
20372SOL    HW172841   5.431   0.158   8.770 -0.1851  1.0496  0.2224
20372SOL    HW272842   5.365   0.058   8.863 -2.5800  1.4546 -0.9366
20373SOL     OW72843   6.252  12.947   1.506  0.7830  0.0207  0.1562
20373SOL    HW172844   6.277  12.856   1.525  0.8306 -0.1010 -0.4847
20373SOL    HW272845   6.290  12.965   1.420  1.8637  1.0578  0.8215
20374SOL     OW72846   9.698   6.737   8.527 -0.4197  0.0205  0.0125
20374SOL    HW172847   9.706   6.644   8.546  1.3692  0.4756  1.7397
20374SOL    HW272848   9.630   6.768   8.587 -0.7394 -0.0795 -0.2926
20375SOL     OW72849   2.471   1.200   2.704  0.1250  0.0542 -0.0607
20375SOL    HW172850   2.561   1.191   2.736  1.2573  1.3678 -2.5626
20375SOL    HW272851   2.468   1.148   2.624 -1.6427 -0.6791  0.4342
20376SOL     OW72852   0.566   8.511   8.951  1.3337 -0.1371  0.1583
20376SOL    HW172853   0.489   8.529   9.005  0.5616 -0.9067 -0.6614
20376SOL    HW272854   0.561   8.575   8.880  1.8517  0.2773  0.4879
20377SOL     OW72855   3.245   0.701   1.150 -0.1579  0.7167 -0.1793
20377SOL    HW172856   3.300   0.665   1.220  0.6286  0.3063 -0.9800
20377SOL    HW272857   3.156   0.694   1.183 -0.3749 -4.2658 -1.1442
20378SOL     OW72858   1.392   2.941   8.064  0.4099  0.4192 -0.6789
20378SOL    HW172859   1.400   2.963   7.971 -0.8260  1.7478 -0.5032
20378SOL    HW272860   1.482   2.945   8.097  0.6482  2.0710 -1.3900
20379SOL     OW72861   4.576   2.935  12.727 -0.0810 -0.0222 -0.1313
20379SOL    HW172862   4.493   2.890  12.711  0.3796 -0.5668 -1.0615
20379SOL    HW272863   4.569   3.016  12.677 -0.0698 -0.0378 -0.1578
20380SOL     OW72864   1.406  11.901  13.637  0.4506  0.2873 -0.4442
20380SOL    HW172865   1.321  11.936  13.609 -0.6087 -4.1030 -3.9128
20380SOL    HW272866   1.388  11.861  13.722  0.2845  2.7869  0.8106
20381SOL     OW72867  12.443  11.263   2.056  0.4451 -0.2935  0.2477
20381SOL    HW172868  12.495  11.220   2.124  0.5449 -0.5976 -0.0205
20381SOL    HW272869  12.362  11.212   2.051  0.1447  0.1466  0.6253
20382SOL     OW72870  12.594   5.458   5.197  0.1468 -0.1967 -0.0809
20382SOL    HW172871  12.532   5.509   5.145 -1.2610  1.1501  2.6837
20382SOL    HW272872  12.679   5.499   5.182 -0.5789  1.5108  0.2525
20383SOL     OW72873   5.561  10.342   1.793  0.1638  0.4115 -0.5432
20383SOL    HW172874   5.631  10.401   1.820 -0.2428 -0.0104  1.6113
20383SOL    HW272875   5.605  10.278   1.737  2.2155 -1.3904  2.7746
20384SOL     OW72876   6.507   8.791   9.079 -0.5318  0.4699 -0.6704
20384SOL    HW172877   6.593   8.830   9.062 -1.1191  2.9536  1.3587
20384SOL    HW272878   6.476   8.835   9.158 -2.4045 -2.5388  0.4401
20385SOL     OW72879   9.923   4.841  10.925  0.1811 -0.1246  0.0964
20385SOL    HW172880   9.892   4.794  10.848 -0.5968  0.3981  0.0820
20385SOL    HW272881  10.013   4.812  10.936  0.9346  1.1047 -2.0753
20386SOL     OW72882   0.843  11.835   5.812  0.1586 -0.1579  0.1357
20386SOL    HW172883   0.799  11.912   5.778 -0.9207 -1.2752 -1.0955
20386SOL    HW272884   0.801  11.819   5.897 -1.8428 -1.1365 -0.9620
20387SOL     OW72885   0.860   5.405   7.308 -0.0260  0.2532 -0.5842
20387SOL    HW172886   0.858   5.466   7.381  0.1454  0.2312 -0.5607
20387SOL    HW272887   0.846   5.319   7.349 -2.1765  0.4305 -0.8106
20388SOL     OW72888  10.579   2.899  12.610 -0.1556  0.0981  0.0249
20388SOL    HW172889  10.548   2.844  12.538  2.0693  2.4562 -3.0182
20388SOL    HW272890  10.548   2.987  12.589  1.1368  0.9946  1.5724
20389SOL     OW72891   2.279  13.302  12.397 -0.5297  0.5107 -0.1128
20389SOL    HW172892   2.222  13.240  12.351  0.9880 -1.2951  0.3136
20389SOL    HW272893   2.244  13.305  12.486 -0.2827 -0.2034  0.0166
20390SOL     OW72894   7.742  12.515   5.559 -0.5734  0.5072 -0.0339
20390SOL    HW172895   7.833  12.542   5.546 -1.1671  1.8937 -1.6226
20390SOL    HW272896   7.713  12.484   5.473 -1.5855 -0.0389  0.4791
20391SOL     OW72897   0.380   7.342   9.210 -0.2755 -0.2705 -0.0815
20391SOL    HW172898   0.314   7.314   9.273 -0.3419 -1.0005 -0.4735
20391SOL    HW272899   0.332   7.397   9.148 -0.3886 -0.2766 -0.0008
20392SOL     OW72900   5.885  11.721   2.293 -0.3008  0.2569  0.1656
20392SOL    HW172901   5.884  11.802   2.243 -0.9543  0.2355  0.1382
20392SOL    HW272902   5.846  11.745   2.377 -1.1047 -0.1744 -0.0774
20393SOL     OW72903   1.439  10.117   9.146 -0.2283 -0.0156  0.0667
20393SOL    HW172904   1.369  10.062   9.182 -0.4437  1.6197  2.3653
20393SOL    HW272905   1.519  10.068   9.162 -0.6223 -0.9200 -0.5949
20394SOL     OW72906   3.997   1.307   1.515 -0.2330  0.1217  0.6366
20394SOL    HW172907   3.920   1.321   1.570 -0.8938 -1.0666  0.0631
20394SOL    HW272908   3.962   1.301   1.426  0.7442  1.3893  0.1441
20395SOL     OW72909  11.899   6.838   8.724 -0.0718  0.2338 -0.1597
20395SOL    HW172910  11.932   6.868   8.639  0.2448  1.6907  0.4372
20395SOL    HW272911  11.872   6.919   8.769  0.1213 -0.4577  1.2654
20396SOL     OW72912   3.487   4.900  11.068  0.4333  0.2264  0.2153
20396SOL    HW172913   3.454   4.970  11.013  0.0344 -0.5532 -0.5591
20396SOL    HW272914   3.415   4.880  11.128  1.0648  1.4658  1.4616
20397SOL     OW72915   4.957   9.798   2.975  0.5233 -0.1419 -0.0847
20397SOL    HW172916   4.862   9.784   2.968  0.7777 -1.8749 -0.4686
20397SOL    HW272917   4.968   9.844   3.058 -0.6835  0.3148 -0.1661
20398SOL     OW72918   1.275   0.029   5.675 -0.4941  0.4360  0.0474
20398SOL    HW172919   1.279   0.124   5.666 -2.1051  0.5255 -0.1620
20398SOL    HW272920   1.209   0.015   5.744  0.6855 -0.5190  1.0175
20399SOL     OW72921   5.005  12.865  12.914  0.4329 -0.0817 -0.5954
20399SOL    HW172922   4.967  12.937  12.863  0.0568 -0.0181 -0.2308
20399SOL    HW272923   5.042  12.806  12.848 -0.7543 -0.4089 -1.0032
20400SOL     OW72924   5.971  11.818   9.442 -0.4047  0.5070  0.1334
20400SOL    HW172925   5.948  11.856   9.357  0.0103  0.0230 -0.1981
20400SOL    HW272926   6.064  11.839   9.453 -0.4410  0.5061  0.4363
20401SOL     OW72927   8.821   3.236  13.020 -0.1610  0.0036 -0.3785
20401SOL    HW172928   8.867   3.318  13.000  0.2019 -0.1326 -0.0911
20401SOL    HW272929   8.839   3.180  12.944  0.6657 -0.2731  0.0154
20402SOL     OW72930   2.553  10.658  12.277 -0.1453 -0.4477  0.0519
20402SOL    HW172931   2.634  10.661  12.226  0.0726  0.7357  0.4355
20402SOL    HW272932   2.497  10.597  12.229 -0.0519  0.8165 -1.8084
20403SOL     OW72933  10.974   3.192  12.951 -0.0021 -0.2602 -0.5828
20403SOL    HW172934  10.943   3.143  12.875 -1.1479  1.2831 -1.1567
20403SOL    HW272935  10.959   3.284  12.929  0.4569  0.2753  1.1604
20404SOL     OW72936   3.778   9.124   4.026 -0.0051  0.4698  0.0956
20404SOL    HW172937   3.713   9.058   4.050 -1.1249  1.7830  0.7890
20404SOL    HW272938   3.856   9.073   4.003 -0.3951 -1.0663  1.8807
20405SOL     OW72939  11.000   7.064  12.134 -0.2689 -0.0307  0.0309
20405SOL    HW172940  11.026   7.036  12.222 -1.2796  1.1035  0.7301
20405SOL    HW272941  10.945   6.993  12.102  0.5155 -0.6800  0.1042
20406SOL     OW72942   1.286   4.246   0.500  0.0190  0.7684 -0.0709
20406SOL    HW172943   1.286   4.303   0.577 -0.0795  0.2544  0.3099
20406SOL    HW272944   1.210   4.274   0.450 -1.1002 -0.2328  1.0183
20407SOL     OW72945   0.837   9.777   3.458 -0.2610  0.5274  0.3179
20407SOL    HW172946   0.916   9.830   3.449  0.1478 -0.2035 -0.6111
20407SOL    HW272947   0.830   9.760   3.552 -0.9569  2.9888  0.7852
20408SOL     OW72948   9.130   7.732   0.656  0.1173  0.1562 -0.0762
20408SOL    HW172949   9.127   7.786   0.736  0.7907 -0.1991  0.2035
20408SOL    HW272950   9.207   7.677   0.668  0.1110 -0.0432 -0.8911
20409SOL     OW72951   5.640   1.426  11.410  0.1761 -0.4960 -0.1433
20409SOL    HW172952   5.704   1.450  11.477  0.9875 -1.0829 -0.6854
20409SOL    HW272953   5.579   1.367  11.454 -0.6563  0.9284  0.6654
20410SOL     OW72954   9.331   3.061   6.699  1.0235 -0.0406  0.0200
20410SOL    HW172955   9.277   2.983   6.707  1.3209 -0.0255  3.5009
20410SOL    HW272956   9.419   3.029   6.683  1.5706 -0.7072  3.6487
20411SOL     OW72957   1.761   5.999   5.850 -0.2416 -0.4573 -0.6178
20411SOL    HW172958   1.789   5.937   5.783  1.3078 -0.3948 -0.0894
20411SOL    HW272959   1.750   5.946   5.929  1.3056 -0.0782 -0.1095
20412SOL     OW72960  10.784   5.786   6.773 -0.0537 -0.0572  0.5938
20412SOL    HW172961  10.691   5.807   6.780  0.5360  2.7004  1.2345
20412SOL    HW272962  10.787   5.690   6.775 -2.8752 -0.2450  0.1923
20413SOL     OW72963   3.888   4.236  11.101  0.1239 -0.4125  0.2025
20413SOL    HW172964   3.906   4.294  11.174  0.1101 -1.1032  0.7630
20413SOL    HW272965   3.811   4.273  11.058  0.7921  0.6301 -0.1531
20414SOL     OW72966   6.815   4.384  12.537  0.1061  0.3771 -0.2864
20414SOL    HW172967   6.729   4.356  12.506  1.1255  0.4423 -3.5788
20414SOL    HW272968   6.828   4.470  12.498  1.6671  0.3681  0.1342
20415SOL     OW72969   0.380   6.906   9.406  0.2444  0.0937  0.0117
20415SOL    HW172970   0.303   6.954   9.375 -0.1440 -0.2798  0.3989
20415SOL    HW272971   0.420   6.965   9.471 -0.3882 -0.2163  0.6922
20416SOL     OW72972   2.573   5.834   3.479 -0.1947  0.3453  0.2561
20416SOL    HW172973   2.572   5.923   3.514 -0.8350  0.0786  0.9314
20416SOL    HW272974   2.563   5.778   3.555 -0.4435 -0.2859 -0.2364
20417SOL     OW72975   2.456   4.219  11.487  0.2277  0.2809  0.3234
20417SOL    HW172976   2.470   4.262  11.572  0.7958  0.1647  0.2937
20417SOL    HW272977   2.539   4.229  11.441 -1.1131  3.5502 -1.7095
20418SOL     OW72978   3.766   1.843  12.268 -0.0636 -0.3392 -0.3485
20418SOL    HW172979   3.809   1.816  12.349  1.1024 -0.3395 -0.9493
20418SOL    HW272980   3.829   1.820  12.199 -0.6420  0.5142 -1.1753
20419SOL     OW72981   9.542   1.614   1.750  0.1425 -0.2093  0.4871
20419SOL    HW172982   9.475   1.563   1.704 -0.6243  0.4426  0.8490
20419SOL    HW272983   9.586   1.664   1.682  1.2000 -1.6447  0.0619
20420SOL     OW72984   6.731   7.285   0.873  0.1104 -0.5037 -0.0543
20420SOL    HW172985   6.774   7.345   0.811 -0.6831  0.0404 -0.0913
20420SOL    HW272986   6.801   7.260   0.934  0.3601  0.8261  0.2360
20421SOL     OW72987   0.541   3.503   5.574  0.5016  0.5542  0.8028
20421SOL    HW172988   0.586   3.579   5.610  1.1462  0.7156 -0.2855
20421SOL    HW272989   0.612   3.442   5.552  0.1191  0.3699  0.0501
20422SOL     OW72990  12.562   3.290   9.612  0.0125 -0.1906  0.3262
20422SOL    HW172991  12.478   3.314   9.652 -0.4156  0.8480 -1.1132
20422SOL    HW272992  12.590   3.369   9.565 -1.1170 -2.1211 -4.0988
20423SOL     OW72993  10.758  11.264   9.185  0.7866  0.4668 -0.0987
20423SOL    HW172994  10.806  11.320   9.124 -0.4089  0.2083 -1.3189
20423SOL    HW272995  10.685  11.230   9.134 -1.3119  1.6422  1.9109
20424SOL     OW72996   6.320  10.479   6.797 -0.1982  0.0745  0.2223
20424SOL    HW172997   6.410  10.446   6.797 -0.7557 -1.6241  1.5163
20424SOL    HW272998   6.317  10.542   6.725  1.1513 -2.3398 -2.1234
20425SOL     OW72999   7.512  13.248  12.455  0.1032  0.0585  0.6655
20425SOL    HW173000   7.447  13.178  12.459  1.2250 -1.0098  0.8414
20425SOL    HW273001   7.587  13.214  12.503  0.4126  1.6948  1.4085
20426SOL     OW73002   7.641   4.673  11.549  0.0386  0.4461  0.1869
20426SOL    HW173003   7.662   4.669  11.642  0.7954  1.3986  0.0758
20426SOL    HW273004   7.565   4.732  11.545  0.9382  1.6510  0.0948
20427SOL     OW73005   4.433   8.763   7.574  0.2680  0.5190 -0.0603
20427SOL    HW173006   4.397   8.684   7.613  0.0550  0.4930 -0.3080
20427SOL    HW273007   4.370   8.832   7.597  2.5561  1.5743  3.9799
20428SOL     OW73008   9.853   8.806   8.751 -0.9388  0.2824 -0.0126
20428SOL    HW173009   9.823   8.825   8.841  0.1479 -0.4298  0.5177
20428SOL    HW273010   9.933   8.858   8.741 -0.1429 -0.8969  0.0410
20429SOL     OW73011  11.363   4.095   8.471 -0.2374 -0.7345  0.0473
20429SOL    HW173012  11.287   4.072   8.417 -0.8298 -1.3599  1.1146
20429SOL    HW273013  11.367   4.190   8.467  1.3508 -0.7834 -3.2357
20430SOL     OW73014   7.508  13.523   8.011  0.0581 -0.2758 -0.5134
20430SOL    HW173015   7.523  13.561   8.098  1.8436  1.1339 -1.3731
20430SOL    HW273016   7.585  13.469   7.996 -0.7825 -1.4217 -0.7830
20431SOL     OW73017   2.203   5.778   5.221 -0.2574  0.1114  0.1002
20431SOL    HW173018   2.177   5.868   5.200  0.7863  0.4421  0.1785
20431SOL    HW273019   2.154   5.724   5.159 -2.3818  0.5560  1.2851
20432SOL     OW73020   0.075   7.992   3.624 -0.2090 -0.2089  0.8224
20432SOL    HW173021   0.022   8.051   3.570  0.6816  0.3010  0.4830
20432SOL    HW273022   0.050   7.904   3.594 -1.4239 -0.0296  1.2180
20433SOL     OW73023  12.559   4.956   8.799  0.0881  0.0495  0.6299
20433SOL    HW173024  12.621   4.916   8.861  0.3973 -0.4046  0.0408
20433SOL    HW273025  12.609   5.026   8.758 -0.0868  0.2902  0.8301
20434SOL     OW73026  11.501  12.862   1.928  0.2936  0.0015  0.5326
20434SOL    HW173027  11.590  12.831   1.912  0.7734  1.0626  1.0885
20434SOL    HW273028  11.457  12.787   1.970  0.8923 -0.5432  0.2081
20435SOL     OW73029  12.819  11.513   1.952  0.1730  0.6697  0.4174
20435SOL    HW173030  12.789  11.422   1.946  1.5610  0.2530 -1.0163
20435SOL    HW273031  12.780  11.556   1.876 -3.5968  2.3600  3.0543
20436SOL     OW73032   2.368  10.583   2.454  0.1572 -0.1489  0.0560
20436SOL    HW173033   2.433  10.523   2.491  0.9775  0.1423 -0.8763
20436SOL    HW273034   2.298  10.585   2.519  1.3058 -0.0706  1.3283
20437SOL     OW73035   0.997   1.183  11.343  0.4100 -0.6865  0.2983
20437SOL    HW173036   1.053   1.257  11.320 -0.0613  0.1362  1.6781
20437SOL    HW273037   1.038   1.108  11.300  1.4678  0.2054 -0.3102
20438SOL     OW73038  13.445   7.823  10.428  0.1563  0.4127 -1.1185
20438SOL    HW173039  13.479   7.749  10.477 -1.2600  1.0160  0.8985
20438SOL    HW273040  13.517   7.886  10.428 -0.2938  1.0959  1.8293
20439SOL     OW73041   0.515   2.609   4.311 -0.0364 -0.2471  0.4079
20439SOL    HW173042   0.505   2.515   4.297  1.6004 -0.1915 -1.7392
20439SOL    HW273043   0.610   2.621   4.323 -0.1412  1.2024 -0.0408
20440SOL     OW73044   9.528   9.413  13.676 -0.0789  0.3661  0.1192
20440SOL    HW173045   9.580   9.486  13.711 -0.7588  0.5236  0.8302
20440SOL    HW273046   9.531   9.347  13.745 -0.9691  0.4520  0.2410
20441SOL     OW73047   3.291   2.214  10.014 -0.5026 -0.0892 -0.2410
20441SOL    HW173048   3.305   2.263   9.932 -1.5698 -1.5243 -1.3314
20441SOL    HW273049   3.251   2.278  10.073  0.6006  1.0756 -0.6991
20442SOL     OW73050  12.064   5.443   2.134 -0.2604  0.1763 -0.4778
20442SOL    HW173051  12.053   5.351   2.155 -0.1222  0.2965  0.1187
20442SOL    HW273052  12.045   5.489   2.215  1.0882  0.6004 -0.3855
20443SOL     OW73053   2.868   4.089  10.228  0.3711  0.0599 -0.5786
20443SOL    HW173054   2.929   4.163  10.227  0.5797 -0.1120 -1.4742
20443SOL    HW273055   2.880   4.049  10.314 -0.9451  2.0312  0.6018
20444SOL     OW73056   9.626   7.932   6.722 -0.4098 -0.4401 -0.0213
20444SOL    HW173057   9.545   7.906   6.678 -1.0952 -0.8960  1.4154
20444SOL    HW273058   9.600   7.943   6.814  0.8916  0.7065  0.2387
20445SOL     OW73059  12.978   9.567   8.579 -0.0026 -0.0849 -0.3515
20445SOL    HW173060  13.030   9.586   8.657 -0.9239 -0.3935  0.3477
20445SOL    HW273061  12.931   9.649   8.562  0.1201 -0.0498 -0.5261
20446SOL     OW73062   9.045   7.266   5.020  0.2419  0.4858 -0.4074
20446SOL    HW173063   9.094   7.336   5.064  0.1649  0.7672 -0.7680
20446SOL    HW273064   9.079   7.265   4.931 -0.0896  0.3759 -0.5326
20447SOL     OW73065  10.722   2.686  11.075  0.1775  0.0801  0.2439
20447SOL    HW173066  10.744   2.678  10.982 -1.3439 -2.4893  0.0044
20447SOL    HW273067  10.798   2.649  11.121  0.2220 -0.2128 -0.0677
20448SOL     OW73068   7.485   7.757   7.805 -0.0581  0.2196 -0.5334
20448SOL    HW173069   7.411   7.709   7.844  0.2820 -0.3983 -0.6313
20448SOL    HW273070   7.485   7.841   7.850  0.0620 -0.3185  0.4981
20449SOL     OW73071  10.910   3.622  12.458 -0.2518 -0.6636 -0.3996
20449SOL    HW173072  10.890   3.699  12.405  0.8220 -0.7283 -0.9281
20449SOL    HW273073  10.984   3.581  12.413  0.3079 -1.0473  0.8437
20450SOL     OW73074   0.558  13.507  11.272 -0.3753  0.0470 -0.1676
20450SOL    HW173075   0.533  13.418  11.297 -1.8293  0.6854  0.7925
20450SOL    HW273076   0.567  13.553  11.355 -1.2932  1.2052 -0.6825
20451SOL     OW73077   2.602   0.923  10.618  0.7484 -0.7831 -0.0116
20451SOL    HW173078   2.543   0.936  10.543 -0.8335  0.0286  1.3000
20451SOL    HW273079   2.565   0.978  10.687  3.2365 -0.0226  0.8244
20452SOL     OW73080  13.322   9.232   3.791 -0.1171 -0.3495  0.2695
20452SOL    HW173081  13.321   9.271   3.878 -2.1732  0.7343 -0.1963
20452SOL    HW273082  13.367   9.148   3.803 -0.1383 -0.1098  2.3041
20453SOL     OW73083   5.603   3.154   7.547 -0.0265  0.5629  0.1249
20453SOL    HW173084   5.608   3.064   7.581 -0.4694  0.3730 -0.3022
20453SOL    HW273085   5.513   3.162   7.515 -0.1074  1.2903  0.5145
20454SOL     OW73086   7.241   6.964   8.921  0.2184  0.4417  0.0052
20454SOL    HW173087   7.309   7.025   8.949 -0.7664  1.4807  0.2228
20454SOL    HW273088   7.163   6.991   8.970 -0.2299 -1.0694  0.1860
20455SOL     OW73089   0.043   6.079  10.732 -0.2993  0.5918 -0.6574
20455SOL    HW173090  -0.016   6.088  10.807 -1.5959  0.3455 -1.5998
20455SOL    HW273091   0.072   5.988  10.736 -0.3096  0.5975 -0.4212
20456SOL     OW73092   6.136   2.764   7.430 -0.5968  0.3293  0.1760
20456SOL    HW173093   6.147   2.669   7.424 -0.0074  0.4349 -0.5564
20456SOL    HW273094   6.204   2.800   7.373  0.8364  1.2676  2.3578
20457SOL     OW73095   2.281  13.446   1.472  0.6285  0.0752  0.0940
20457SOL    HW173096   2.360  13.496   1.492  0.2291  0.5668  0.4696
20457SOL    HW273097   2.258  13.472   1.383  2.3312 -2.0107 -1.0652
20458SOL     OW73098   0.781   0.554  10.938 -0.7951 -0.1044 -0.1102
20458SOL    HW173099   0.692   0.519  10.934 -1.8749  1.6429  3.8339
20458SOL    HW273100   0.774   0.642  10.901 -0.7301  0.0922  0.3471
20459SOL     OW73101  12.505  12.959  10.502 -0.0785  0.0849 -0.7778
20459SOL    HW173102  12.429  12.958  10.561 -0.6983 -1.8224 -1.5415
20459SOL    HW273103  12.491  12.885  10.443  2.2511 -0.1441 -1.1436
20460SOL     OW73104   7.037  13.239   4.084  0.3065 -0.1269 -0.0611
20460SOL    HW173105   7.007  13.277   4.166  0.0328  0.0426 -0.2399
20460SOL    HW273106   7.130  13.219   4.100 -0.4540 -3.1130  1.4076
20461SOL     OW73107   6.911   6.010   5.691  0.5401 -0.3993  0.1794
20461SOL    HW173108   6.885   5.935   5.637  1.6573 -0.7660  0.1174
20461SOL    HW273109   6.853   6.080   5.664 -0.1053 -1.0705 -0.2219
20462SOL     OW73110  11.534  12.534   1.858  0.1238  0.4748  0.2513
20462SOL    HW173111  11.514  12.442   1.837 -0.7958  0.9064 -0.9047
20462SOL    HW273112  11.485  12.551   1.938 -0.2011  0.1279  0.1321
20463SOL     OW73113   3.354   7.787   8.627 -0.3777 -0.9125  0.0069
20463SOL    HW173114   3.262   7.767   8.608 -0.1376 -1.4686 -0.6022
20463SOL    HW273115   3.400   7.704   8.617  0.4397 -0.3456 -1.3317
20464SOL     OW73116   8.255   7.825   1.634  0.0709 -0.1775 -0.0135
20464SOL    HW173117   8.229   7.845   1.544 -2.0050 -0.3513  0.5034
20464SOL    HW273118   8.348   7.848   1.637 -0.2081  1.4394 -1.7206
20465SOL     OW73119   9.274   0.396   6.262 -0.0370  0.2688  0.0424
20465SOL    HW173120   9.268   0.472   6.205  1.4950  0.8880  0.6594
20465SOL    HW273121   9.251   0.322   6.206  1.6373  0.8321 -1.4704
20466SOL     OW73122  10.969   2.279   7.617 -0.0256  0.4464 -0.5286
20466SOL    HW173123  11.007   2.365   7.633 -1.7526  0.8994  1.5392
20466SOL    HW273124  10.876   2.295   7.603 -0.3733 -1.0531 -0.1753
20467SOL     OW73125   0.950  11.179  10.716 -0.0940 -0.0511  0.2052
20467SOL    HW173126   0.889  11.137  10.654 -1.2249  0.8460  0.6719
20467SOL    HW273127   0.893  11.212  10.786  1.0425  0.0093  1.1266
20468SOL     OW73128   8.932   8.055   3.156  0.0865  0.2942  0.0010
20468SOL    HW173129   8.979   7.972   3.165 -1.4658 -0.5774  0.3861
20468SOL    HW273130   8.873   8.041   3.081  0.1662  1.2365 -0.2511
20469SOL     OW73131  10.180   0.391  12.513  0.2983 -0.2178  0.0538
20469SOL    HW173132  10.239   0.393  12.437  2.7887  1.2999  1.8588
20469SOL    HW273133  10.129   0.472  12.505  0.2999 -0.2381 -0.1893
20470SOL     OW73134   1.631   4.034   3.126  0.2091 -0.4832 -0.1982
20470SOL    HW173135   1.648   4.095   3.198  1.5984  0.7119 -1.4519
20470SOL    HW273136   1.697   4.057   3.061 -1.2824 -1.2109 -2.0387
20471SOL     OW73137  13.481   4.059   9.661  0.1378  0.4649  0.1647
20471SOL    HW173138  13.397   4.049   9.616  0.6464 -0.2599 -0.6620
20471SOL    HW273139  13.526   3.975   9.646  0.5795  0.4479  1.4997
20472SOL     OW73140   6.776   1.339   6.325  0.2715 -0.0217  0.5804
20472SOL    HW173141   6.703   1.327   6.387 -0.1090  1.5160  0.4752
20472SOL    HW273142   6.744   1.300   6.243  0.5923 -1.6452  1.1937
20473SOL     OW73143   8.397   0.725   4.489  0.2530 -0.3743 -0.6040
20473SOL    HW173144   8.375   0.725   4.582 -0.4479 -0.7345 -0.7606
20473SOL    HW273145   8.492   0.723   4.487  0.2752 -0.3642  0.1061
20474SOL     OW73146  12.964   5.937  12.009  0.3092  0.3768  0.4167
20474SOL    HW173147  12.971   5.872  12.078  0.6290  0.4266  0.4329
20474SOL    HW273148  12.919   6.011  12.050 -0.8192 -0.1553  0.1637
20475SOL     OW73149  12.651   2.260  13.358  0.1275 -0.4171 -0.0408
20475SOL    HW173150  12.579   2.273  13.420  0.3904  1.1575 -0.0372
20475SOL    HW273151  12.609   2.251  13.273 -0.0748  0.7204 -0.0689
20476SOL     OW73152   9.458  13.715  10.731 -0.7739 -0.0108 -0.2338
20476SOL    HW173153   9.546  13.696  10.762 -2.0662 -2.0492  2.6421
20476SOL    HW273154   9.449  13.664  10.650  0.2113 -1.0852  0.3043
20477SOL     OW73155   6.986   2.377  12.123 -0.2172 -0.2312 -0.3147
20477SOL    HW173156   6.933   2.397  12.200 -0.6394  0.2244 -0.7103
20477SOL    HW273157   6.944   2.300  12.085  1.0269 -1.5477  0.8522
20478SOL     OW73158   5.328  11.580   2.210 -0.0863  0.1723 -0.5077
20478SOL    HW173159   5.239  11.558   2.237  0.5854 -0.8119  1.0485
20478SOL    HW273160   5.363  11.633   2.282  0.9616 -0.4513 -0.5282
20479SOL     OW73161   1.568  10.020  11.420  0.0845 -0.1098  0.6768
20479SOL    HW173162   1.519   9.958  11.474  0.2422 -1.2405 -0.4474
20479SOL    HW273163   1.501  10.062  11.365  0.2161 -0.7933 -0.0186
20480SOL     OW73164   3.023   1.613   7.066  0.0445 -0.1518 -0.5685
20480SOL    HW173165   2.981   1.563   7.136 -0.0725  0.4380 -0.2195
20480SOL    HW273166   3.102   1.649   7.105  0.6801 -0.9048 -1.1099
20481SOL     OW73167   7.324  10.074   4.799  0.4116  0.1571 -0.4260
20481SOL    HW173168   7.262  10.002   4.814  0.1491  0.2045 -1.2828
20481SOL    HW273169   7.387  10.039   4.735  1.8825 -0.2484  1.1565
20482SOL     OW73170  13.594   0.519  11.180  0.5173  0.6390 -0.2889
20482SOL    HW173171  13.626   0.526  11.270 -1.3267  2.9721  0.2842
20482SOL    HW273172  13.597   0.609  11.147 -2.2407  0.4675 -1.2716
20483SOL     OW73173   8.058   6.569   7.293 -0.5855 -0.1140  0.6654
20483SOL    HW173174   7.998   6.575   7.367  2.0378 -0.2418  2.9575
20483SOL    HW273175   8.045   6.481   7.259 -0.0706 -1.0216  2.6679
20484SOL     OW73176  12.084   5.878   5.054  0.2414  0.1129  0.5818
20484SOL    HW173177  12.020   5.824   5.101 -0.8710  1.3229  0.5019
20484SOL    HW273178  12.152   5.896   5.120 -0.0716 -0.2357  1.0090
20485SOL     OW73179  10.285  13.715  10.209 -0.3053  0.4970  0.0488
20485SOL    HW173180  10.221  13.785  10.197 -0.0458  0.7190 -0.0387
20485SOL    HW273181  10.365  13.747  10.168 -0.6801 -0.5795 -1.6335
20486SOL     OW73182  11.483   5.220  10.681 -0.3241  0.0114 -0.4868
20486SOL    HW173183  11.553   5.267  10.726 -1.8283  1.5039  0.4364
20486SOL    HW273184  11.495   5.128  10.706  3.0533 -0.3449 -2.8129
20487SOL     OW73185  10.295   0.894   2.882  0.7392  0.0815 -0.7995
20487SOL    HW173186  10.276   0.967   2.942 -0.5167 -0.1325 -0.9091
20487SOL    HW273187  10.306   0.819   2.939  1.5020  0.2474 -0.7206
20488SOL     OW73188  11.705   3.951   2.835 -0.1706  0.0736 -0.4847
20488SOL    HW173189  11.715   4.031   2.784 -0.2593 -0.2324 -0.9956
20488SOL    HW273190  11.612   3.931   2.829 -0.2717  0.3099  0.2311
20489SOL     OW73191   3.960   3.460  10.325  0.7175 -0.1735 -0.0568
20489SOL    HW173192   4.000   3.478  10.410  1.4753  1.0997 -0.6620
20489SOL    HW273193   3.926   3.544  10.295 -0.7622 -0.8663 -0.4236
20490SOL     OW73194   8.809   6.528  11.445 -0.3949 -0.1178 -0.9244
20490SOL    HW173195   8.813   6.515  11.539 -0.6958  0.9306 -0.7593
20490SOL    HW273196   8.801   6.439  11.409  1.1357 -0.6467 -0.0526
20491SOL     OW73197   1.428   3.193   5.788  0.3878 -0.0572  0.0348
20491SOL    HW173198   1.456   3.101   5.792 -0.5308 -0.3345  3.3136
20491SOL    HW273199   1.447   3.227   5.875 -0.3183  2.5851 -0.7601
20492SOL     OW73200   0.407  12.930   7.951 -0.0154  0.2793 -0.6249
20492SOL    HW173201   0.411  12.884   8.035 -0.7133  1.0878 -0.1448
20492SOL    HW273202   0.459  13.009   7.964 -0.1854  0.4427 -0.9288
20493SOL     OW73203   1.435   2.155   8.145  1.0264 -0.0070 -0.0720
20493SOL    HW173204   1.473   2.197   8.222  0.2244 -0.4175  0.5491
20493SOL    HW273205   1.341   2.160   8.158  0.8990 -0.9249 -0.5658
20494SOL     OW73206   0.151   2.127   1.741  0.0038 -0.0405  0.1064
20494SOL    HW173207   0.069   2.096   1.703 -1.5117  3.3910  0.2234
20494SOL    HW273208   0.209   2.140   1.667 -0.7675  0.6841 -0.3905
20495SOL     OW73209  12.526  13.177  13.363 -0.5294 -0.0624 -0.3277
20495SOL    HW173210  12.460  13.245  13.344 -0.1878  0.0635 -1.0582
20495SOL    HW273211  12.505  13.150  13.453 -0.1888  1.5647  0.2863
20496SOL     OW73212   9.304   3.663  13.456 -0.5925  0.2378 -0.5853
20496SOL    HW173213   9.246   3.739  13.470 -0.1129  0.7570 -1.3523
20496SOL    HW273214   9.273   3.625  13.373  0.3878  0.7451 -1.2010
20497SOL     OW73215  10.129  11.720   0.614 -0.1040 -0.4763 -0.2970
20497SOL    HW173216  10.071  11.767   0.674  0.3934 -0.2190 -0.0075
20497SOL    HW273217  10.072  11.690   0.543 -0.5782 -0.1869 -0.0402
20498SOL     OW73218  11.767   5.574   2.004 -0.3449  0.2778 -0.5894
20498SOL    HW173219  11.778   5.668   2.010 -1.2716  0.4552 -1.3427
20498SOL    HW273220  11.808   5.550   1.921 -0.4387  0.0799 -0.5804
20499SOL     OW73221   3.963   1.213   4.591  0.2904  0.0137  0.2321
20499SOL    HW173222   3.868   1.211   4.598  0.4020 -1.5376  2.0764
20499SOL    HW273223   3.980   1.272   4.517 -2.0235  1.3751  0.6747
20500SOL     OW73224  11.636   1.359   6.968 -0.7086 -0.0974  0.0913
20500SOL    HW173225  11.712   1.378   7.023 -0.5066  1.0752 -0.5617
20500SOL    HW273226  11.659   1.277   6.923  0.7243  0.8776 -1.0403
20501SOL     OW73227   1.944   2.833   9.164 -0.0416  0.3941 -0.3941
20501SOL    HW173228   1.852   2.857   9.176 -0.4061 -0.8853 -0.5617
20501SOL    HW273229   1.983   2.844   9.251 -0.4811  0.4077 -0.1993
20502SOL     OW73230   8.916   1.625   9.252 -0.6762  0.1898 -0.1889
20502SOL    HW173231   8.843   1.567   9.271 -0.8358  0.2662 -0.5486
20502SOL    HW273232   8.954   1.646   9.337 -1.0640  0.1388 -0.0041
20503SOL     OW73233  13.317   8.679   1.292  0.4601 -0.0344  0.1084
20503SOL    HW173234  13.319   8.587   1.318  0.5523  0.0814  0.5222
20503SOL    HW273235  13.308   8.727   1.375  0.1861  0.3191 -0.1216
20504SOL     OW73236   2.193  13.452  12.870 -0.4744 -0.5481  0.9282
20504SOL    HW173237   2.220  13.492  12.953  0.4889 -0.8467  0.7731
20504SOL    HW273238   2.235  13.506  12.803  0.7199 -1.6837  0.7107
20505SOL     OW73239  12.322   6.752   2.575 -0.1545  0.6910  0.3293
20505SOL    HW173240  12.327   6.832   2.627 -1.6933  0.6543  0.5973
20505SOL    HW273241  12.375   6.769   2.498  0.5249  1.5035  0.9647
20506SOL     OW73242  11.474   1.256   4.750  0.2581 -0.1691  0.1809
20506SOL    HW173243  11.403   1.278   4.811  1.8351  1.0834  1.6741
20506SOL    HW273244  11.494   1.339   4.706  0.6215 -0.5699 -0.4244
20507SOL     OW73245   7.972   6.047   7.261 -0.2587  0.1635 -0.1907
20507SOL    HW173246   8.011   6.113   7.318 -0.3378  1.3268 -1.4316
20507SOL    HW273247   8.026   6.048   7.182  0.7876 -2.5071  0.3645
20508SOL     OW73248   7.985   4.745   0.499 -0.3294 -0.0563 -0.6336
20508SOL    HW173249   7.982   4.652   0.479 -0.4281 -0.1744 -0.0749
20508SOL    HW273250   7.904   4.762   0.547  0.5159 -0.0679  0.8802
20509SOL     OW73251   0.355   1.801   4.037  0.4025 -0.0659  0.0532
20509SOL    HW173252   0.325   1.804   4.128 -0.6506  0.9513 -0.2957
20509SOL    HW273253   0.450   1.813   4.042  0.2099  1.2383  0.9538
20510SOL     OW73254   4.551   4.933   7.844 -0.6483  0.2111  0.4434
20510SOL    HW173255   4.485   4.868   7.824  0.4336 -0.8736  0.2722
20510SOL    HW273256   4.503   5.015   7.854 -1.9674 -0.5081  0.1018
20511SOL     OW73257   7.925  11.247   0.486 -0.3240  0.3457 -0.1901
20511SOL    HW173258   7.873  11.286   0.556  0.7195 -0.3042  0.9980
20511SOL    HW273259   7.861  11.205   0.429 -1.1693  0.2039  0.8187
20512SOL     OW73260   1.851   2.518  11.168 -0.5167 -0.1521  0.2454
20512SOL    HW173261   1.930   2.470  11.146  0.0288  1.0064 -0.4055
20512SOL    HW273262   1.843   2.509  11.263  0.0858 -0.7220  0.2468
20513SOL     OW73263  10.677  13.147   4.835 -0.8920 -0.4245 -0.3147
20513SOL    HW173264  10.768  13.172   4.814 -1.1267  0.3579 -0.4368
20513SOL    HW273265  10.624  13.199   4.775 -1.4796  0.1104  0.6464
20514SOL     OW73266   1.576   9.691   9.491 -0.3047 -0.2219  0.2087
20514SOL    HW173267   1.487   9.725   9.481 -0.4580 -0.4108  0.9090
20514SOL    HW273268   1.580   9.617   9.430 -0.1527  0.6525 -0.8960
20515SOL     OW73269   6.473   6.080   4.109  0.4628 -0.6379 -0.1141
20515SOL    HW173270   6.441   6.076   4.199  1.5147 -1.0281  0.2531
20515SOL    HW273271   6.507   6.169   4.099  1.3385 -0.9187  0.2389
20516SOL     OW73272   3.724   3.645  10.686  0.0704 -0.4269  0.5213
20516SOL    HW173273   3.680   3.565  10.715 -2.4271 -0.0525 -1.8331
20516SOL    HW273274   3.683   3.666  10.602 -1.7116  5.0127  2.3794
20517SOL     OW73275  12.295   5.062   8.863  0.1503 -0.3082 -0.4503
20517SOL    HW173276  12.270   5.031   8.950  2.4331 -0.6268  0.1644
20517SOL    HW273277  12.379   5.019   8.846 -0.4730 -0.6712 -3.0700
20518SOL     OW73278  13.184  10.338   2.872  0.3163 -0.2024  0.1613
20518SOL    HW173279  13.179  10.398   2.946  2.0468 -1.4653  1.3936
20518SOL    HW273280  13.261  10.367   2.823 -1.0777  0.9021 -1.4530
20519SOL     OW73281   7.884  10.673  11.225 -0.2619  0.1850  0.4489
20519SOL    HW173282   7.932  10.662  11.143 -1.4083  0.8250 -0.3345
20519SOL    HW273283   7.945  10.643  11.293  1.3692  1.3471 -0.4504
20520SOL     OW73284   4.105   9.284   0.871 -0.5272 -0.1893  0.3679
20520SOL    HW173285   4.073   9.216   0.930 -2.9493  1.5344  1.2367
20520SOL    HW273286   4.072   9.366   0.910 -0.9728  1.1630 -2.5771
20521SOL     OW73287   9.993   4.391   3.302 -0.4600  0.2759 -0.1275
20521SOL    HW173288  10.028   4.472   3.337 -1.2026  0.3562  0.4571
20521SOL    HW273289   9.904   4.413   3.273 -0.2492 -0.0509 -1.0612
20522SOL     OW73290   7.357  11.289   1.224 -0.2709 -0.2183  0.3353
20522SOL    HW173291   7.388  11.327   1.306 -0.6831 -0.8640  0.7950
20522SOL    HW273292   7.285  11.232   1.249 -0.5930 -0.2040 -0.5111
20523SOL     OW73293   5.201   0.456   0.730 -0.4123  0.3150  0.6302
20523SOL    HW173294   5.185   0.362   0.719 -0.2531  0.3771 -0.2524
20523SOL    HW273295   5.116   0.492   0.756 -0.4296 -0.1007  1.1521
20524SOL     OW73296  10.613   6.698   9.878  0.1303 -0.1259 -0.4325
20524SOL    HW173297  10.706   6.682   9.861  0.1090 -1.4328  0.5635
20524SOL    HW273298  10.575   6.611   9.889 -1.5704  0.2806 -2.4735
20525SOL     OW73299   0.921   8.554   7.944  0.7703 -0.3589  0.0674
20525SOL    HW173300   0.868   8.631   7.922  1.8808  0.2993 -0.4212
20525SOL    HW273301   0.875   8.513   8.017  0.2884  0.9389  0.5234
20526SOL     OW73302  10.963   2.745   3.294 -0.1968 -0.0098  0.2489
20526SOL    HW173303  10.988   2.655   3.316 -3.1062 -0.7134  1.1676
20526SOL    HW273304  10.916   2.737   3.211 -1.1195  0.5358  0.7090
20527SOL     OW73305  13.265   5.334   5.991  0.1837  0.2921  0.2535
20527SOL    HW173306  13.178   5.349   5.954 -0.1870 -0.1711  0.9056
20527SOL    HW273307  13.326   5.364   5.924 -0.4849  1.4803  0.1625
20528SOL     OW73308  10.779  11.355  11.804 -0.3092 -0.5358  0.3629
20528SOL    HW173309  10.808  11.338  11.894 -1.2168  0.3502  0.8516
20528SOL    HW273310  10.854  11.398  11.762 -0.5887  1.0242  1.3698
20529SOL     OW73311  13.257  12.854   9.387  0.4734 -0.2169  0.4612
20529SOL    HW173312  13.349  12.831   9.377  0.4880 -0.1559  0.4543
20529SOL    HW273313  13.210  12.790   9.334  0.4885 -0.4656  0.7450
20530SOL     OW73314   4.186  13.735  11.307  0.6134 -0.1136  0.0037
20530SOL    HW173315   4.104  13.736  11.356 -0.7075 -0.7461 -2.0594
20530SOL    HW273316   4.189  13.819  11.263 -0.1635 -0.9604 -1.7582
20531SOL     OW73317  10.454   2.743  12.397  0.1518 -0.2979  0.3273
20531SOL    HW173318  10.365   2.724  12.427 -0.0381 -1.5363 -0.8904
20531SOL    HW273319  10.443   2.792  12.316  0.5310 -1.4228 -0.4315
20532SOL     OW73320  10.304   9.381   4.161 -0.1598  0.2937  0.4453
20532SOL    HW173321  10.225   9.334   4.188 -0.2956  0.5026  0.4105
20532SOL    HW273322  10.286   9.409   4.071  0.4105 -0.6636  0.0196
20533SOL     OW73323   9.009  10.455   1.821  0.0231  0.1392 -0.2843
20533SOL    HW173324   9.097  10.419   1.808  0.5514  0.3487  2.3103
20533SOL    HW273325   8.954  10.380   1.840  0.1221  0.2280  0.3595
20534SOL     OW73326   8.856   9.724  12.035  0.0001  0.3237  0.6704
20534SOL    HW173327   8.799   9.699  12.108  1.0649  2.1322  2.2085
20534SOL    HW273328   8.876   9.641  11.991 -1.8691 -0.6368  1.4974
20535SOL     OW73329  13.056  12.288  11.941 -0.5530 -0.3879 -0.0873
20535SOL    HW173330  13.125  12.223  11.948 -0.3523 -0.0237  2.1846
20535SOL    HW273331  13.085  12.347  11.872  0.8209 -0.9314 -0.0077
20536SOL     OW73332  12.211   0.473   4.072 -0.0594 -0.5672  0.4596
20536SOL    HW173333  12.291   0.496   4.025 -0.4414 -0.6201 -0.2233
20536SOL    HW273334  12.185   0.555   4.115 -0.6632 -0.0483 -0.8495
20537SOL     OW73335   8.197   2.583  11.605  0.5485 -0.2709 -0.1535
20537SOL    HW173336   8.200   2.630  11.689 -2.0920  0.3605 -0.3464
20537SOL    HW273337   8.215   2.650  11.539 -2.6465  0.4946 -0.3865
20538SOL     OW73338  10.503   9.293   5.481 -0.1796 -0.0220  0.4989
20538SOL    HW173339  10.482   9.244   5.560 -0.0563 -3.0709 -1.1806
20538SOL    HW273340  10.435   9.266   5.418  0.9520  0.5749 -1.0463
20539SOL     OW73341   0.364   1.846   2.336 -0.0686 -0.7281  0.0381
20539SOL    HW173342   0.401   1.933   2.350  1.5931 -1.4944  0.5692
20539SOL    HW273343   0.283   1.846   2.387 -1.6345  1.4364 -2.2238
20540SOL     OW73344   5.277   3.063   8.729  0.2655  0.0560  0.5541
20540SOL    HW173345   5.195   3.067   8.777 -0.0794  0.5938 -0.0688
20540SOL    HW273346   5.273   3.136   8.667  0.5054 -0.8717 -0.6053
20541SOL     OW73347   9.612  10.508   8.910 -0.2749  0.4126  0.4168
20541SOL    HW173348   9.662  10.474   8.984 -1.8681 -1.8128  0.5808
20541SOL    HW273349   9.547  10.566   8.950  0.0613  0.7125  0.5390
20542SOL     OW73350   7.455   5.280  12.768  0.0578  0.2285  0.5677
20542SOL    HW173351   7.393   5.228  12.716 -0.2835  0.5480  0.6476
20542SOL    HW273352   7.448   5.243  12.856 -0.3744  0.5738  0.6802
20543SOL     OW73353   5.721  10.205   8.429 -0.2109  0.0569 -0.5822
20543SOL    HW173354   5.630  10.206   8.459  0.4899 -0.2437  1.7466
20543SOL    HW273355   5.735  10.115   8.398 -1.0374  0.4583 -2.2829
20544SOL     OW73356   6.414  10.542   3.118  0.1605 -0.3581 -0.0547
20544SOL    HW173357   6.384  10.627   3.148  0.4492  0.3218 -1.6233
20544SOL    HW273358   6.411  10.546   3.023  0.0876 -2.1414 -0.1747
20545SOL     OW73359   9.720  10.363   8.379 -0.1109 -0.4132 -0.1832
20545SOL    HW173360   9.745  10.282   8.335 -0.8220 -0.7057 -0.0661
20545SOL    HW273361   9.639  10.341   8.425  0.1160  0.1466  0.5008
20546SOL     OW73362   7.361   3.256  12.035 -0.1965  0.1712 -0.3521
20546SOL    HW173363   7.332   3.342  12.003  0.0378  0.1332 -0.6750
20546SOL    HW273364   7.280   3.213  12.062 -0.2374  0.7573  0.4835
20547SOL     OW73365   7.071   2.763   2.266 -0.0326  1.2429 -0.0370
20547SOL    HW173366   7.041   2.853   2.284 -2.2394  0.2799  1.5395
20547SOL    HW273367   7.026   2.740   2.184 -1.7159  0.7047  0.9789
20548SOL     OW73368   0.090   7.617   6.498 -0.5039 -0.3191 -0.4515
20548SOL    HW173369   0.005   7.632   6.457 -0.6943 -1.4820 -0.5221
20548SOL    HW273370   0.154   7.633   6.428 -0.7096 -0.1800 -0.6073
20549SOL     OW73371   7.481   0.779   9.764 -0.0038 -0.1655  0.1978
20549SOL    HW173372   7.550   0.800   9.827 -0.1873 -2.3073  1.2119
20549SOL    HW273373   7.399   0.788   9.814 -0.1817 -1.4591  0.1608
20550SOL     OW73374   0.197   8.959   1.530  0.2565  0.2912 -0.5570
20550SOL    HW173375   0.187   8.864   1.529 -0.8769  0.3907 -1.1496
20550SOL    HW273376   0.211   8.983   1.438  0.1054  0.7310 -0.4698
20551SOL     OW73377   5.027   5.251   9.927 -0.2552  0.4845  0.1730
20551SOL    HW173378   4.993   5.209  10.006 -0.1743  0.9382  0.4515
20551SOL    HW273379   5.093   5.312   9.959 -1.9734  2.5409  0.0190
20552SOL     OW73380   5.213   4.637   8.737  0.3647  0.0450 -0.1717
20552SOL    HW173381   5.271   4.665   8.807  0.0140 -1.0625  0.5816
20552SOL    HW273382   5.221   4.541   8.736  0.7158  0.0409 -1.9524
20553SOL     OW73383   2.101   7.041  12.558 -0.1727 -0.3804  0.5710
20553SOL    HW173384   2.179   7.075  12.600 -0.8694  0.5539  1.1631
20553SOL    HW273385   2.118   6.948  12.546  0.8347 -0.2767  1.1195
20554SOL     OW73386  11.484  13.051   6.668  0.0029  0.2662  0.1175
20554SOL    HW173387  11.405  13.011   6.632  0.5484 -0.2737 -0.4957
20554SOL    HW273388  11.531  12.979   6.709 -0.0191  0.6620  0.8517
20555SOL     OW73389   9.066  10.324  10.348 -0.0875 -0.4716 -0.7226
20555SOL    HW173390   8.974  10.310  10.370 -0.0920  1.3515  0.6975
20555SOL    HW273391   9.114  10.292  10.425  0.1095  2.7103  0.6616
20556SOL     OW73392   7.299   9.175   8.812  0.7302  0.0075 -0.3773
20556SOL    HW173393   7.309   9.174   8.716  1.0727 -0.7307 -0.3357
20556SOL    HW273394   7.384   9.205   8.844  0.2292  1.4813 -0.3395
20557SOL     OW73395   3.156   6.968  11.088 -0.3881  1.1905 -0.3761
20557SOL    HW173396   3.244   6.958  11.125  0.4853  1.7937 -2.2089
20557SOL    HW273397   3.102   6.992  11.164  0.8609  0.1610  0.9148
20558SOL     OW73398   3.766   5.179   7.968  0.5070 -0.1407  0.1680
20558SOL    HW173399   3.821   5.225   7.905  0.2741  0.9381  0.7335
20558SOL    HW273400   3.686   5.231   7.973  0.2586 -0.5766  0.8732
20559SOL     OW73401   0.370  10.558   3.540 -0.0690  0.6528 -0.4194
20559SOL    HW173402   0.341  10.492   3.477 -1.7237  0.7692  0.1641
20559SOL    HW273403   0.465  10.548   3.544 -0.2801 -1.7219 -0.2944
20560SOL     OW73404   7.183   2.676  12.519  0.2503 -0.6068  0.6848
20560SOL    HW173405   7.180   2.753  12.576 -1.7990  1.5904 -2.1548
20560SOL    HW273406   7.117   2.617  12.555 -1.2694  0.8901  0.4586
20561SOL     OW73407  11.883   7.336   3.035 -0.0896  0.0421  0.1375
20561SOL    HW173408  11.837   7.257   3.008  0.5242 -0.4806  0.5929
20561SOL    HW273409  11.820   7.384   3.088 -0.6282  0.1086 -0.5439
20562SOL     OW73410  10.573   6.693   5.434 -0.7097 -0.4504  0.2141
20562SOL    HW173411  10.532   6.608   5.444 -1.6512  0.0734  0.9797
20562SOL    HW273412  10.508   6.746   5.388 -0.5479  0.1471  0.6568
20563SOL     OW73413   7.962  13.550   0.812 -0.2661 -0.0578 -0.6405
20563SOL    HW173414   7.953  13.643   0.834  0.7912  0.1070 -0.8496
20563SOL    HW273415   7.969  13.507   0.897 -0.5955  0.0757 -0.5450
20564SOL     OW73416  12.069  10.647   6.141 -0.9698  0.1726 -0.2454
20564SOL    HW173417  12.083  10.741   6.142  0.6999  0.0713 -3.0990
20564SOL    HW273418  12.008  10.632   6.069  0.7082 -1.0385 -1.5012
20565SOL     OW73419   2.665   4.087   5.275 -0.3340 -0.0978 -0.3160
20565SOL    HW173420   2.748   4.045   5.295 -1.2181 -1.5488  0.5041
20565SOL    HW273421   2.657   4.082   5.180  0.4718  0.0018 -0.3935
20566SOL     OW73422   3.911   1.097  11.247  0.2344  0.0444  0.2671
20566SOL    HW173423   3.987   1.147  11.216  0.3581  0.8065  1.7006
20566SOL    HW273424   3.839   1.124  11.191  0.9166 -0.3927 -0.8586
20567SOL     OW73425   5.017   5.848  11.376  0.4882  0.2024 -0.3249
20567SOL    HW173426   4.967   5.904  11.435  1.1804  0.1115  0.3647
20567SOL    HW273427   4.957   5.777  11.353  0.4012 -0.0929  0.7630
20568SOL     OW73428   5.433   3.760   7.173  0.2070 -0.2558  0.4521
20568SOL    HW173429   5.381   3.767   7.093  1.8786  0.0191 -0.6615
20568SOL    HW273430   5.421   3.844   7.217  0.2626  0.0708 -0.1512
20569SOL     OW73431   4.716  11.113   5.279  0.0743 -0.9378 -0.0991
20569SOL    HW173432   4.767  11.127   5.359  1.7432  0.0230 -1.2559
20569SOL    HW273433   4.650  11.048   5.304  1.9397 -2.3799  1.4861
20570SOL     OW73434  12.607   0.303   4.122 -0.1959 -0.4813  0.2414
20570SOL    HW173435  12.530   0.247   4.119 -0.2293 -0.4130 -0.6475
20570SOL    HW273436  12.626   0.322   4.030  0.1285  0.5302  0.5003
20571SOL     OW73437   6.116  10.804  10.212  0.2488  0.3632 -0.8533
20571SOL    HW173438   6.204  10.836  10.232  0.0461  0.5758 -0.2546
20571SOL    HW273439   6.119  10.782  10.119  1.3104 -0.8830 -0.5574
20572SOL     OW73440   3.178   2.318   4.595  0.2522 -0.7694  0.3972
20572SOL    HW173441   3.128   2.379   4.542  0.8072  0.1848  0.9585
20572SOL    HW273442   3.258   2.301   4.544  1.6914  1.6307  1.7027
20573SOL     OW73443  12.820   3.609   8.375 -0.0319  0.1820  0.4811
20573SOL    HW173444  12.782   3.692   8.405  0.1215  0.0927  0.9199
20573SOL    HW273445  12.745   3.559   8.342 -0.2235  0.2157  0.8620
20574SOL     OW73446   0.146   5.517   2.018 -0.5447  0.0906  0.2802
20574SOL    HW173447   0.133   5.612   2.017 -1.4352 -0.0252 -0.1270
20574SOL    HW273448   0.136   5.492   2.109  0.9759  0.5384  0.6009
20575SOL     OW73449   8.473  10.371   2.945  0.1488 -0.2111  0.1053
20575SOL    HW173450   8.414  10.329   2.883 -1.5736  2.5993 -0.2992
20575SOL    HW273451   8.535  10.419   2.890 -0.1818  0.7030  0.5122
20576SOL     OW73452   4.355  10.411   8.392  0.3121  0.4045  0.5847
20576SOL    HW173453   4.434  10.406   8.446  0.1574  1.3311  0.9235
20576SOL    HW273454   4.288  10.444   8.451 -0.0329  0.7694 -0.0010
20577SOL     OW73455   4.079   0.357   8.538 -0.4153  0.2148 -0.2236
20577SOL    HW173456   4.023   0.421   8.495  0.0745  0.1228 -1.0229
20577SOL    HW273457   4.049   0.356   8.629 -1.0221  0.9121 -0.4054
20578SOL     OW73458  11.241   8.027   3.194  0.0871 -0.0265  0.0502
20578SOL    HW173459  11.175   8.069   3.250  0.0848  0.1388 -0.0764
20578SOL    HW273460  11.292   7.972   3.253 -0.2146 -0.2145  0.1386
20579SOL     OW73461   9.738   5.030   0.415 -0.6667 -0.1883  0.0989
20579SOL    HW173462   9.762   4.942   0.444  1.5068  0.7354  1.3546
20579SOL    HW273463   9.748   5.026   0.319  0.5314 -1.0285  0.2239
20580SOL     OW73464   9.566   0.480  10.534  0.1434  0.0003 -0.1413
20580SOL    HW173465   9.577   0.402  10.587  0.2011 -0.2434 -0.5071
20580SOL    HW273466   9.472   0.497  10.535 -0.1374 -1.2052 -1.6328
20581SOL     OW73467   4.399   2.734   3.886  0.0452  0.5145  0.3403
20581SOL    HW173468   4.477   2.690   3.852 -0.9010 -0.1875 -1.0322
20581SOL    HW273469   4.421   2.756   3.977  0.4961 -3.0852  1.2653
20582SOL     OW73470  10.373   4.463  10.028 -0.7779  0.1526  0.1878
20582SOL    HW173471  10.375   4.514  10.109  1.7085  0.6383 -0.0882
20582SOL    HW273472  10.373   4.372  10.057 -1.7645  0.2984  0.6956
20583SOL     OW73473  12.002  10.602   9.264  0.1410 -0.0815 -0.2788
20583SOL    HW173474  12.068  10.604   9.194 -0.5690  0.0899 -0.9461
20583SOL    HW273475  11.975  10.510   9.269  1.3817 -0.4249  0.9217
20584SOL     OW73476   1.102  12.846   2.856 -0.2312 -0.7208 -0.4591
20584SOL    HW173477   1.013  12.871   2.831  0.4371  0.6691 -1.5731
20584SOL    HW273478   1.152  12.851   2.775  1.1507 -0.1501  0.3814
20585SOL     OW73479   3.060   0.170   4.119 -0.2730  0.1698  0.3262
20585SOL    HW173480   3.047   0.246   4.062 -0.1797 -0.0093  0.0649
20585SOL    HW273481   3.127   0.199   4.182  1.5439 -0.4461 -1.2168
20586SOL     OW73482   5.167   1.335   1.200  0.2319 -0.2174  0.1647
20586SOL    HW173483   5.163   1.417   1.152 -1.5301 -1.3781 -1.8522
20586SOL    HW273484   5.127   1.354   1.284  1.0924  1.2744  0.2746
20587SOL     OW73485   9.168   5.541   0.800 -0.2169  0.6544  0.0195
20587SOL    HW173486   9.181   5.471   0.864 -0.8478  0.5215  0.0104
20587SOL    HW273487   9.235   5.526   0.733 -1.3246 -0.8910 -0.7926
20588SOL     OW73488  11.671   9.079   8.699  0.0765 -0.0291 -0.0616
20588SOL    HW173489  11.679   8.985   8.711 -3.5767 -1.2690 -4.3046
20588SOL    HW273490  11.579   9.098   8.720 -0.4765  1.5607 -3.2723
20589SOL     OW73491   3.887  13.296   1.714 -0.2814  0.1301 -0.1285
20589SOL    HW173492   3.970  13.312   1.670 -0.8692  0.9618 -0.9835
20589SOL    HW273493   3.903  13.220   1.770  1.5809  1.4078  1.1785
20590SOL     OW73494   9.388   4.448   4.476 -0.8955 -0.6278  0.5093
20590SOL    HW173495   9.368   4.364   4.436  0.4153 -1.0877  0.7631
20590SOL    HW273496   9.452   4.489   4.416 -0.3107 -0.5247  1.1877
20591SOL     OW73497  13.186   3.890   3.009 -0.9349 -0.0538  0.1779
20591SOL    HW173498  13.211   3.976   2.975  0.4531 -1.3372 -2.3032
20591SOL    HW273499  13.232   3.828   2.954 -1.8875 -2.4429  1.8979
20592SOL     OW73500  11.978   6.113   5.253 -0.0549  0.1640  0.4776
20592SOL    HW173501  11.971   6.180   5.321 -0.9199 -0.6401  1.2078
20592SOL    HW273502  11.931   6.038   5.288 -2.6309  0.4677 -1.9320
20593SOL     OW73503  11.858   0.831  11.870 -0.4748 -0.5207 -0.1738
20593SOL    HW173504  11.792   0.774  11.911 -1.9019  0.4732 -1.0267
20593SOL    HW273505  11.883   0.785  11.790 -2.0832  0.2730 -1.1816
20594SOL     OW73506  10.442  12.979   7.513 -0.4383  0.3883  0.4448
20594SOL    HW173507  10.468  12.888   7.525  1.6003  0.9988  1.1728
20594SOL    HW273508  10.509  13.029   7.561 -0.4875  2.3394 -1.3795
20595SOL     OW73509   6.471   1.005   6.190 -0.0617  0.1154  0.0740
20595SOL    HW173510   6.426   1.063   6.252 -1.9529  1.7800 -2.6451
20595SOL    HW273511   6.407   0.938   6.168 -0.5058  1.1509 -2.0778
20596SOL     OW73512   3.065   6.965   6.160  0.4976 -0.1124  0.1457
20596SOL    HW173513   3.055   7.058   6.140  0.7648  0.3321  1.8783
20596SOL    HW273514   2.980   6.940   6.197  0.2309 -0.7248 -0.8473
20597SOL     OW73515   2.904   7.673   9.655 -0.0380  0.0947  0.2750
20597SOL    HW173516   2.847   7.610   9.609  1.6778 -0.9256 -0.5390
20597SOL    HW273517   2.912   7.637   9.743  0.9882 -0.9260 -0.2057
20598SOL     OW73518   7.587   7.540  10.483  0.3178  0.7029  0.3095
20598SOL    HW173519   7.556   7.472  10.422  2.0330  0.6000 -0.5085
20598SOL    HW273520   7.521   7.609  10.476  0.4810  0.7174 -1.7368
20599SOL     OW73521   0.742  13.338   1.614 -0.1857 -0.2411  0.7909
20599SOL    HW173522   0.790  13.328   1.696  1.6944  2.9278  0.2662
20599SOL    HW273523   0.808  13.366   1.551 -2.2082  1.4209 -0.7480
20600SOL     OW73524   9.714  12.103   3.987  0.4674  0.3086 -0.6014
20600SOL    HW173525   9.641  12.163   4.003  1.3454  0.9615  1.1529
20600SOL    HW273526   9.676  12.016   4.000 -0.4362  0.5199 -1.6143
20601SOL     OW73527   7.512  13.262  13.385  0.3270 -0.3295  0.5599
20601SOL    HW173528   7.424  13.262  13.422  0.3008  0.2782  0.5023
20601SOL    HW273529   7.505  13.208  13.306 -0.7629  2.2323 -1.2401
20602SOL     OW73530   4.861  10.432   2.524 -0.2110  0.0615 -0.6772
20602SOL    HW173531   4.790  10.497   2.533 -0.1241  0.1618 -0.7106
20602SOL    HW273532   4.918  10.469   2.457  1.1421  1.1542  0.9898
20603SOL     OW73533  11.739   6.236   0.954  0.1977  0.0598  0.1831
20603SOL    HW173534  11.831   6.239   0.981  0.5396  1.9250 -1.0303
20603SOL    HW273535  11.694   6.195   1.028  1.9932 -0.9492  0.7788
20604SOL     OW73536   5.182  12.150   9.093  0.2763  0.0786 -0.6765
20604SOL    HW173537   5.115  12.218   9.081  1.4115  1.2159 -0.8439
20604SOL    HW273538   5.163  12.085   9.026  0.9153  1.7104 -2.5430
20605SOL     OW73539   3.366   8.781   2.015 -0.5348  0.3411 -0.2017
20605SOL    HW173540   3.334   8.851   1.959  1.0018  1.4117  0.2051
20605SOL    HW273541   3.298   8.770   2.082 -1.8825 -0.2250 -1.6140
20606SOL     OW73542  10.922  11.540   9.306 -0.3033 -0.0328 -0.0712
20606SOL    HW173543  10.999  11.529   9.249 -0.2524 -0.2738  0.0440
20606SOL    HW273544  10.859  11.587   9.251 -0.8822 -1.7121 -0.9082
20607SOL     OW73545   7.482   9.687   4.238  0.4005 -0.7365 -0.0404
20607SOL    HW173546   7.474   9.704   4.144  2.6560 -0.3008 -0.2236
20607SOL    HW273547   7.533   9.606   4.243  3.1038  0.8713  0.6927
20608SOL     OW73548  12.669   1.183   8.089 -0.0957  0.0016 -0.1703
20608SOL    HW173549  12.582   1.216   8.111  0.6562  2.6144 -0.8377
20608SOL    HW273550  12.718   1.188   8.171 -0.4012 -0.9798  0.0851
20609SOL     OW73551   4.728   9.127   4.552 -0.0618 -0.2395  0.2988
20609SOL    HW173552   4.647   9.176   4.542 -0.6886 -1.3058  0.0407
20609SOL    HW273553   4.716   9.048   4.500  0.1839 -1.5539  2.1085
20610SOL     OW73554   3.508   4.636  13.032 -0.8022  0.3247  0.0953
20610SOL    HW173555   3.552   4.555  13.007  2.9640  1.7500  1.5219
20610SOL    HW273556   3.453   4.657  12.956 -1.9147 -3.4392 -0.3313
20611SOL     OW73557   6.915   6.572   8.059 -0.2575  0.3429 -0.0774
20611SOL    HW173558   6.861   6.649   8.078  2.3483  2.2092  0.2688
20611SOL    HW273559   6.982   6.604   8.000  1.0801 -1.6158  0.2930
20612SOL     OW73560   3.527   4.466   8.489  0.3992  0.3060  0.1932
20612SOL    HW173561   3.608   4.517   8.495  0.3522  0.3447  0.5231
20612SOL    HW273562   3.459   4.531   8.469  0.5815  0.1558 -0.9994
20613SOL     OW73563  12.001   0.156   1.512 -0.2928 -1.0207 -0.5431
20613SOL    HW173564  11.969   0.212   1.582 -0.7037  0.9850 -2.2334
20613SOL    HW273565  11.929   0.096   1.495 -0.9157 -0.3054 -0.4754
20614SOL     OW73566   8.976  12.708   5.186  0.1711  0.2321  0.1415
20614SOL    HW173567   8.937  12.630   5.225  1.1750 -0.4792 -0.2148
20614SOL    HW273568   9.065  12.710   5.222  0.4845  0.6406 -0.6405
20615SOL     OW73569   4.551   1.867   2.625 -0.1116  0.4224 -0.0255
20615SOL    HW173570   4.622   1.893   2.566  1.7459  2.3732  2.7559
20615SOL    HW273571   4.594   1.810   2.689 -1.6630 -0.3199  0.4005
20616SOL     OW73572   7.292   5.139   0.490 -0.0846 -0.0535 -0.2519
20616SOL    HW173573   7.326   5.200   0.556  0.6738  0.1489 -0.8192
20616SOL    HW273574   7.210   5.179   0.460 -0.4448 -0.1485  0.5550
20617SOL     OW73575   5.298   3.523   1.558 -0.0741 -0.3796  0.4030
20617SOL    HW173576   5.349   3.551   1.483  1.1604 -3.1041  0.0877
20617SOL    HW273577   5.209   3.554   1.540  0.9584  2.6430 -0.0591
20618SOL     OW73578   9.278   4.203  11.471 -0.0701  0.4035  0.1236
20618SOL    HW173579   9.346   4.155  11.520  0.2850 -0.7867 -1.4370
20618SOL    HW273580   9.305   4.295  11.476  0.6727  0.1531  1.0145
20619SOL     OW73581  12.753   5.174   3.627  0.0062  0.4532 -0.0156
20619SOL    HW173582  12.810   5.248   3.649 -0.3595  1.1071 -1.1724
20619SOL    HW273583  12.665   5.205   3.650 -0.2401  0.6979 -1.2492
20620SOL     OW73584   5.033  12.445  13.511  0.0036  0.0287 -0.0175
20620SOL    HW173585   4.942  12.469  13.528 -0.4456 -1.3644 -0.3204
20620SOL    HW273586   5.078  12.528  13.499 -1.3670  0.7166 -0.5460
20621SOL     OW73587  13.049   7.421   2.561 -0.8543  0.2289  0.1565
20621SOL    HW173588  12.995   7.500   2.561 -0.3566  0.5815  0.6947
20621SOL    HW273589  12.986   7.349   2.563 -1.3368  0.6315  1.9483
20622SOL     OW73590   8.253  11.920   7.762  0.7904  0.0583 -0.0069
20622SOL    HW173591   8.238  11.940   7.669 -1.1137 -1.9813 -0.2231
20622SOL    HW273592   8.182  11.860   7.785  0.8008  1.0365  2.9885
20623SOL     OW73593   6.373   5.911   8.424  0.3570  0.1993  0.0398
20623SOL    HW173594   6.354   5.962   8.503  2.4626 -2.1457  2.2400
20623SOL    HW273595   6.467   5.925   8.408 -0.0594  0.8161 -2.2985
20624SOL     OW73596   4.392   7.776  11.777  0.1807 -0.3292  0.0442
20624SOL    HW173597   4.414   7.741  11.864  1.1258  0.7252  0.2439
20624SOL    HW273598   4.417   7.707  11.716  0.0861 -0.8297  0.5628
20625SOL     OW73599  11.700   6.162   7.894  0.4417  0.0273 -0.2972
20625SOL    HW173600  11.606   6.170   7.910  0.3392 -0.5805 -0.5607
20625SOL    HW273601  11.722   6.240   7.844 -0.1721 -0.4192 -1.3005
20626SOL     OW73602  11.308  10.197  13.355  0.5877 -0.6674 -0.2591
20626SOL    HW173603  11.300  10.113  13.400  0.7312 -0.2664  0.5381
20626SOL    HW273604  11.245  10.254  13.399  0.4829 -0.3564 -0.8047
20627SOL     OW73605   8.171   0.994  11.263  0.9892  0.5021 -0.1102
20627SOL    HW173606   8.189   1.088  11.262  0.5573  0.5862 -0.6760
20627SOL    HW273607   8.229   0.959  11.331  1.2155  1.1621  0.0454
20628SOL     OW73608   8.719   2.954   5.281  0.7250 -0.2532  0.3779
20628SOL    HW173609   8.746   2.934   5.371 -2.3551 -0.5502  1.3425
20628SOL    HW273610   8.731   2.871   5.234  2.4027 -0.0824  0.4371
20629SOL     OW73611  10.304   8.027  13.735 -0.3224  0.0478  0.1481
20629SOL    HW173612  10.232   7.964  13.742 -0.1829 -0.1418 -0.1006
20629SOL    HW273613  10.382   7.976  13.758 -0.0991 -0.0967 -0.8554
20630SOL     OW73614   0.812  11.625   1.560  0.8345 -0.1390 -0.1797
20630SOL    HW173615   0.811  11.720   1.562  0.1623 -0.1445 -0.0322
20630SOL    HW273616   0.903  11.602   1.540  0.5636  0.5731 -2.5179
20631SOL     OW73617   7.329   0.699   0.631  0.2252 -0.6098  0.1935
20631SOL    HW173618   7.272   0.622   0.621 -0.3832 -0.0913 -0.5065
20631SOL    HW273619   7.407   0.666   0.676  0.4352 -1.8719 -1.0222
20632SOL     OW73620   7.112   9.861  11.925 -0.4577 -0.1996 -0.2145
20632SOL    HW173621   7.107   9.953  11.900 -0.3529  0.0737  0.7291
20632SOL    HW273622   7.022   9.829  11.917 -0.3882 -0.1972 -1.1567
20633SOL     OW73623  11.954   6.071  11.313 -0.2874 -0.7662 -0.4460
20633SOL    HW173624  11.918   6.028  11.392 -2.8152 -0.1395 -1.1566
20633SOL    HW273625  11.965   6.162  11.339 -1.1651 -0.5502 -0.7889
20634SOL     OW73626   6.122   0.186  12.743  0.6734  0.3933 -0.0039
20634SOL    HW173627   6.037   0.160  12.707 -0.3905  0.9363  1.9677
20634SOL    HW273628   6.163   0.103  12.768 -0.3965  0.2178  1.3244
20635SOL     OW73629   4.832   0.787   5.120 -0.2851  0.1439 -0.2869
20635SOL    HW173630   4.908   0.815   5.070  1.0874 -0.7447  1.2103
20635SOL    HW273631   4.815   0.697   5.090 -1.7814  0.8383 -1.7290
20636SOL     OW73632  11.162  12.717   7.287  0.2944  0.3286 -0.5400
20636SOL    HW173633  11.161  12.804   7.247  0.8926  0.9457  0.7426
20636SOL    HW273634  11.101  12.722   7.360  0.9696 -0.0613  0.0677
20637SOL     OW73635  10.896  13.656   1.642 -0.0594 -0.0138  0.5557
20637SOL    HW173636  10.848  13.573   1.646  1.8909 -1.2211  0.1123
20637SOL    HW273637  10.827  13.723   1.639 -1.9001 -1.7374 -3.1224
20638SOL     OW73638   5.545   9.803   1.791 -0.1912  0.0125  0.3475
20638SOL    HW173639   5.597   9.881   1.772 -0.3044 -0.3575 -1.6429
20638SOL    HW273640   5.584   9.734   1.737 -0.3565 -1.2411  1.7476
20639SOL     OW73641   7.140   2.201  13.069 -0.0892  0.1718 -0.6094
20639SOL    HW173642   7.167   2.207  13.161  0.9180 -1.1103 -0.7837
20639SOL    HW273643   7.193   2.129  13.034 -0.9448  0.2042 -2.0238
20640SOL     OW73644  10.667   0.364  13.449  0.5314  0.4968  0.1841
20640SOL    HW173645  10.656   0.332  13.360  1.2647 -0.4749  0.4209
20640SOL    HW273646  10.761   0.365  13.463  0.4346  0.8251  0.8787
20641SOL     OW73647   2.985   9.017   0.300  0.6508 -0.5320  0.8143
20641SOL    HW173648   2.937   9.038   0.220  3.4413 -0.6404 -1.0041
20641SOL    HW273649   2.993   9.100   0.347 -2.5911 -0.7748  2.0514
20642SOL     OW73650   7.035   3.779   6.655  0.2997  0.0578 -0.2012
20642SOL    HW173651   7.001   3.705   6.604 -1.2603 -0.8037  1.8938
20642SOL    HW273652   7.129   3.764   6.659  0.2056 -0.9559 -1.1110
20643SOL     OW73653   5.634   1.247   1.082  0.1361 -0.7306  0.2723
20643SOL    HW173654   5.605   1.180   1.020  1.9106 -0.4067 -0.9516
20643SOL    HW273655   5.660   1.321   1.028 -0.7219  0.5644  1.5505
20644SOL     OW73656   7.709  11.745   4.853  0.3481 -0.5626  0.3924
20644SOL    HW173657   7.789  11.695   4.868  0.0192 -0.6619  1.9604
20644SOL    HW273658   7.738  11.835   4.845  0.5604 -0.4635  1.9761
20645SOL     OW73659  12.683   1.889  11.720 -0.3398  0.0578 -0.2511
20645SOL    HW173660  12.710   1.801  11.746  2.2050  1.2690  1.6407
20645SOL    HW273661  12.651   1.878  11.630  1.5402 -2.5375 -0.7385
20646SOL     OW73662   4.452   6.292   8.351  0.5812 -0.6314  0.3509
20646SOL    HW173663   4.534   6.336   8.374  0.6520 -1.2094  1.2314
20646SOL    HW273664   4.477   6.202   8.331  0.1861 -0.7636  0.4387
20647SOL     OW73665   6.555   2.506  10.838  0.0274  0.3143  0.0818
20647SOL    HW173666   6.468   2.484  10.871 -0.4487  1.1427 -0.5568
20647SOL    HW273667   6.565   2.453  10.759  1.1121 -1.5704  1.4234
20648SOL     OW73668  12.228   9.259  11.055  0.2408 -0.3233 -0.0585
20648SOL    HW173669  12.187   9.182  11.016 -0.7500  0.4865 -0.6988
20648SOL    HW273670  12.237   9.238  11.148  1.9495 -2.0132 -0.5418
20649SOL     OW73671  12.051  10.614   3.934 -0.1931  0.2288  0.0819
20649SOL    HW173672  12.049  10.574   3.847  1.9724 -1.4691  0.7128
20649SOL    HW273673  12.097  10.697   3.921 -2.5933  1.5173 -0.8308
20650SOL     OW73674   3.437   1.486   7.202  0.5002  0.4001 -0.1739
20650SOL    HW173675   3.389   1.423   7.149  1.3834  0.6247 -1.2857
20650SOL    HW273676   3.525   1.448   7.210  1.0028  1.4176 -0.7394
20651SOL     OW73677   9.549   2.894   0.347  0.1998  0.6038  0.1074
20651SOL    HW173678   9.498   2.894   0.266 -1.1986 -0.7088  0.9123
20651SOL    HW273679   9.614   2.963   0.335  1.4206 -0.8940 -2.9353
20652SOL     OW73680   1.023   2.315   6.192 -0.0508  0.0854 -0.2320
20652SOL    HW173681   0.984   2.334   6.277  0.9521 -2.5492  0.9008
20652SOL    HW273682   1.117   2.305   6.209  0.0380 -1.5572 -1.3969
20653SOL     OW73683   8.702   3.106   0.923  0.0730 -0.6516  0.2154
20653SOL    HW173684   8.651   3.027   0.905  0.6434 -1.1473  0.7192
20653SOL    HW273685   8.762   3.113   0.848 -0.9839  0.1618 -0.5830
20654SOL     OW73686   0.095   5.585  10.226  0.1982  0.0667  0.4405
20654SOL    HW173687   0.041   5.638  10.285  0.6954  2.2709 -0.9266
20654SOL    HW273688   0.181   5.583  10.268 -0.1182 -0.6603  1.0597
20655SOL     OW73689  10.803   8.843   7.883 -0.1108  0.3020 -0.7212
20655SOL    HW173690  10.772   8.790   7.810 -0.3297  0.7305 -0.9408
20655SOL    HW273691  10.889   8.874   7.856  1.1735 -2.0315  0.4556
20656SOL     OW73692   1.226  12.870   6.881 -0.4911  0.1114 -0.3028
20656SOL    HW173693   1.284  12.845   6.810 -0.4323  0.5801 -0.4255
20656SOL    HW273694   1.284  12.880   6.957 -0.6857 -1.3657  0.0685
20657SOL     OW73695   3.120   8.526   7.000 -0.3025  0.1283 -0.1365
20657SOL    HW173696   3.184   8.594   7.014  0.3778 -0.2582 -1.2332
20657SOL    HW273697   3.048   8.547   7.060 -0.1960  1.9019 -0.5733
20658SOL     OW73698   4.416   3.002   0.965  0.4048  0.2536 -0.0953
20658SOL    HW173699   4.458   3.080   0.929  1.7664  1.2506  3.2594
20658SOL    HW273700   4.389   2.952   0.889  1.8958  2.7042 -2.4072
20659SOL     OW73701   0.325  10.173   3.483  0.6232 -0.3556  0.0783
20659SOL    HW173702   0.419  10.184   3.466  0.7966  0.0297  1.1724
20659SOL    HW273703   0.322  10.135   3.571 -0.2196 -1.4922 -0.4310
20660SOL     OW73704   8.513   1.142   6.903  0.3066  0.4929 -0.3684
20660SOL    HW173705   8.540   1.232   6.881  1.4284  0.1994 -0.2427
20660SOL    HW273706   8.476   1.108   6.822  0.5627  0.8194 -0.6293
20661SOL     OW73707   7.505   6.556   9.336  0.1946 -0.4422  0.0418
20661SOL    HW173708   7.501   6.475   9.285 -2.6199 -1.5950  1.8247
20661SOL    HW273709   7.539   6.529   9.421  2.7750  1.0412 -0.4295
20662SOL     OW73710   0.880   6.020  10.054  0.0300  0.4039  0.0710
20662SOL    HW173711   0.855   6.093   9.998 -1.8086  0.4025  0.8064
20662SOL    HW273712   0.975   6.029  10.065  0.3109  0.9141 -2.2540
20663SOL     OW73713  10.153   3.881  11.393  0.3739 -0.2020 -0.6227
20663SOL    HW173714  10.229   3.913  11.442  1.8050 -1.0892 -2.1618
20663SOL    HW273715  10.183   3.800  11.353 -1.6026 -0.8905 -0.8002
20664SOL     OW73716   7.040   8.564  13.267  0.6174  0.0820 -0.4083
20664SOL    HW173717   7.068   8.656  13.269  0.4519  0.2332 -2.6705
20664SOL    HW273718   6.944   8.569  13.269  0.5683  0.0582 -2.0047
20665SOL     OW73719  11.782  13.658   7.875 -0.3408 -0.3285  0.0141
20665SOL    HW173720  11.808  13.750   7.876 -0.2094 -0.3256 -1.4416
20665SOL    HW273721  11.695  13.658   7.916 -0.8148  0.6208 -0.9237
20666SOL     OW73722  11.087   4.603  12.445  0.4838 -0.4903  0.1349
20666SOL    HW173723  11.072   4.552  12.366  0.0215  1.2841 -0.9825
20666SOL    HW273724  11.091   4.694  12.415 -2.2521  0.5476  2.3791
20667SOL     OW73725  10.864   6.586  12.103 -0.0346 -0.4090  0.0740
20667SOL    HW173726  10.841   6.515  12.044  0.7097  0.0173 -0.7454
20667SOL    HW273727  10.806   6.575  12.178  0.0806 -1.8931 -0.0293
20668SOL     OW73728   0.358  12.945   3.998 -0.5011  0.2226  0.3726
20668SOL    HW173729   0.378  12.864   3.952 -0.7394  0.8135 -0.7955
20668SOL    HW273730   0.270  12.969   3.969 -1.0347  0.1425  1.8386
20669SOL     OW73731   1.135   6.892   7.425  0.4325  0.2633  0.3616
20669SOL    HW173732   1.190   6.840   7.367  0.5398 -0.9587  1.5188
20669SOL    HW273733   1.098   6.960   7.369 -0.7944 -1.8201 -1.5149
20670SOL     OW73734   0.338   3.174   7.573  0.6602 -0.7598  0.0239
20670SOL    HW173735   0.358   3.155   7.665 -0.2983  0.8902  0.6194
20670SOL    HW273736   0.258   3.124   7.555 -0.7765  1.0937  0.9960
20671SOL     OW73737   4.646  12.012   2.963  0.1443 -0.6968 -0.3640
20671SOL    HW173738   4.639  11.942   3.028  0.6494 -0.4724 -0.0674
20671SOL    HW273739   4.736  12.007   2.931  0.3445  0.1433  0.0391
20672SOL     OW73740   2.968   3.862  11.928  0.1132 -0.1427  0.2478
20672SOL    HW173741   3.015   3.819  11.999 -1.4259  0.2951  1.6082
20672SOL    HW273742   3.029   3.928  11.895  1.4420 -1.4235  0.0620
20673SOL     OW73743   5.693  11.249   6.695 -0.2534  0.0744  0.4356
20673SOL    HW173744   5.621  11.302   6.662  0.7627  1.2354 -0.0389
20673SOL    HW273745   5.708  11.280   6.784  0.2085  0.4698  0.2292
20674SOL     OW73746   0.136  11.881   0.740  0.6299 -0.6363 -0.7371
20674SOL    HW173747   0.087  11.942   0.684  0.4361 -0.5194 -0.4440
20674SOL    HW273748   0.226  11.913   0.738 -0.0413  1.8266  2.2268
20675SOL     OW73749  13.623   3.370   8.482 -0.1703 -0.3422 -0.2425
20675SOL    HW173750  13.621   3.292   8.426  1.3318 -0.2757 -0.4135
20675SOL    HW273751  13.663   3.340   8.563  1.0655  0.3822 -0.5583
20676SOL     OW73752   7.203  12.673  12.890 -0.3985 -0.5260 -0.1795
20676SOL    HW173753   7.159  12.591  12.869 -1.4888  0.0909 -0.3862
20676SOL    HW273754   7.274  12.648  12.949 -0.3471 -1.6826 -0.7132
20677SOL     OW73755   7.844   5.380   8.870  0.1817 -0.2585  0.6237
20677SOL    HW173756   7.921   5.328   8.893 -2.0434 -3.3813  1.5985
20677SOL    HW273757   7.825   5.355   8.779  0.4844  0.8120  0.2479
20678SOL     OW73758  13.597   1.361   1.972 -0.3398  0.3227 -0.6865
20678SOL    HW173759  13.596   1.384   1.879  1.0953 -0.1898 -0.8509
20678SOL    HW273760  13.656   1.286   1.977  1.2943  1.6193  0.9012
20679SOL     OW73761   5.543   8.854  12.482 -0.0402  0.2308  0.0125
20679SOL    HW173762   5.552   8.949  12.477  0.3700  0.1459 -2.3272
20679SOL    HW273763   5.488   8.832  12.407  0.0418 -1.3964  0.3982
20680SOL     OW73764   3.080   6.998   9.834 -0.4419 -0.2716 -0.9898
20680SOL    HW173765   3.071   6.909   9.870 -2.4882  0.4779  0.5163
20680SOL    HW273766   3.140   7.042   9.895 -1.9298  0.2565  0.1586
20681SOL     OW73767  11.533  13.423   4.637 -0.0574  0.3581 -0.5692
20681SOL    HW173768  11.468  13.359   4.608 -0.3329  1.3080 -2.1529
20681SOL    HW273769  11.507  13.445   4.726 -0.8142 -0.6540 -0.5240
20682SOL     OW73770   6.495   5.515  12.845  0.5120  0.0262 -0.3301
20682SOL    HW173771   6.451   5.432  12.863  1.9194 -0.8081 -0.5805
20682SOL    HW273772   6.579   5.508  12.891  0.6473  1.3280 -0.3403
20683SOL     OW73773   1.038   9.142   2.769  0.0215 -0.2612  0.1305
20683SOL    HW173774   0.966   9.205   2.770 -0.0425 -0.3225 -0.3118
20683SOL    HW273775   1.072   9.143   2.859 -0.4070 -0.0938  0.2951
20684SOL     OW73776   5.487  10.397   6.102 -0.1235  0.5616  0.3497
20684SOL    HW173777   5.437  10.477   6.085  0.3945  0.7369 -0.4037
20684SOL    HW273778   5.545  10.389   6.026  0.8529  0.2565  1.1102
20685SOL     OW73779   5.392   0.538   8.500 -0.5738  0.0997 -0.4069
20685SOL    HW173780   5.362   0.628   8.485 -0.2207  0.0869 -1.2131
20685SOL    HW273781   5.389   0.528   8.595 -1.9540  0.5029 -0.3781
20686SOL     OW73782  12.328  13.707   8.353 -0.3581 -0.1504  0.6343
20686SOL    HW173783  12.315  13.751   8.437  2.0012  0.8539  0.5476
20686SOL    HW273784  12.351  13.778   8.293  2.7055 -1.3118  0.2861
20687SOL     OW73785  11.972   5.345   4.453  0.1249 -0.4141  0.4244
20687SOL    HW173786  12.016   5.300   4.525 -0.7925  0.0103  1.2753
20687SOL    HW273787  12.043   5.377   4.397  1.1079  2.3747  3.0039
20688SOL     OW73788   0.384   9.711   0.062  0.0215 -0.7977  0.3273
20688SOL    HW173789   0.387   9.745   0.151  0.2701 -0.4173  0.1772
20688SOL    HW273790   0.426   9.625   0.067 -1.2881 -1.4221  0.8534
20689SOL     OW73791   5.739   3.639  12.286 -0.1243 -0.0031 -0.7014
20689SOL    HW173792   5.737   3.623  12.380 -1.8014  0.6211 -0.5896
20689SOL    HW273793   5.653   3.677  12.266  0.5561  0.7847 -2.3279
20690SOL     OW73794   4.070   4.714   8.359 -0.1373 -0.2339  0.2500
20690SOL    HW173795   4.037   4.650   8.423 -0.8809  0.6891  0.8073
20690SOL    HW273796   4.162   4.690   8.348  0.0401 -0.3664  1.7476
20691SOL     OW73797  13.579   5.807  13.212 -0.1449 -0.0870 -0.0113
20691SOL    HW173798  13.518   5.788  13.284  0.6397 -0.8837  0.4719
20691SOL    HW273799  13.594   5.722  13.170  1.4287 -0.1252  0.5439
20692SOL     OW73800   4.815   4.409   5.890  0.2167  0.1494 -0.2905
20692SOL    HW173801   4.732   4.367   5.914 -1.4931  2.8680 -1.0163
20692SOL    HW273802   4.823   4.394   5.796  0.3737  0.1935 -0.2843
20693SOL     OW73803   2.978   1.395   1.564 -0.1287  0.0699  0.0702
20693SOL    HW173804   3.059   1.439   1.540 -0.1981  1.5720  2.2918
20693SOL    HW273805   2.913   1.428   1.501  0.3001  1.4452  0.3260
20694SOL     OW73806  10.108   6.734   3.136 -0.0919  0.0127  0.2499
20694SOL    HW173807  10.093   6.751   3.043  2.2883  1.6726  0.0944
20694SOL    HW273808  10.178   6.669   3.137 -0.8082 -0.7748  0.9190
20695SOL     OW73809   9.700   9.994   5.881 -0.3062  0.0316 -0.9610
20695SOL    HW173810   9.717   9.954   5.796  2.0815 -1.0336 -0.0702
20695SOL    HW273811   9.762  10.066   5.886  0.0902 -0.3608  0.1276
20696SOL     OW73812  10.444   6.464   5.528 -0.0631 -0.5780  0.4281
20696SOL    HW173813  10.390   6.539   5.549 -0.6678 -0.9675  0.2809
20696SOL    HW273814  10.382   6.395   5.502  0.4771 -1.1025  0.4876
20697SOL     OW73815   0.880   9.820  12.812  0.1825  0.2226  0.1243
20697SOL    HW173816   0.830   9.837  12.892 -1.5845 -0.4867 -0.7843
20697SOL    HW273817   0.835   9.870  12.744  1.4427  0.5196 -0.5271
20698SOL     OW73818   5.196  13.580  11.247  0.4903  0.2583 -0.0751
20698SOL    HW173819   5.115  13.562  11.200  0.2156 -1.2149  0.8951
20698SOL    HW273820   5.172  13.578  11.339  1.8617 -1.7905  0.3081
20699SOL     OW73821   0.991  13.579   8.484 -0.0837 -0.1019  0.0856
20699SOL    HW173822   1.063  13.575   8.420  0.7175 -0.2152  0.9735
20699SOL    HW273823   0.912  13.570   8.431  0.4933  1.1252 -1.0469
20700SOL     OW73824   0.663   2.467  13.142 -0.1523 -0.3598  0.2453
20700SOL    HW173825   0.635   2.546  13.095  0.3831 -0.1086  0.3350
20700SOL    HW273826   0.582   2.420  13.161 -0.4746  0.1482  0.1503
20701SOL     OW73827   2.562   3.194   4.232  0.0603 -0.2995  0.2304
20701SOL    HW173828   2.609   3.121   4.191 -0.5044 -0.7578  0.3859
20701SOL    HW273829   2.490   3.153   4.279 -0.0253  0.3307  0.6630
20702SOL     OW73830   8.901   1.693   2.514 -0.1894  0.6008 -0.0819
20702SOL    HW173831   8.890   1.666   2.605 -0.6423 -0.1271 -0.3428
20702SOL    HW273832   8.927   1.613   2.468 -0.2821  0.8898 -0.6469
20703SOL     OW73833   9.394  10.623   9.603 -0.1631  0.3356 -0.3132
20703SOL    HW173834   9.473  10.675   9.585 -0.0947  0.2717 -0.1954
20703SOL    HW273835   9.353  10.666   9.678  0.0768  0.0144  0.0009
20704SOL     OW73836   6.879   7.199   7.460  0.2330 -0.5872 -0.5249
20704SOL    HW173837   6.940   7.161   7.522 -1.9668 -1.2742  1.3684
20704SOL    HW273838   6.901   7.292   7.458  2.4697 -1.0810 -1.3554
20705SOL     OW73839   2.329  10.463   4.452  0.1373  0.5355 -0.0593
20705SOL    HW173840   2.274  10.441   4.526 -0.0171  0.6202 -0.1473
20705SOL    HW273841   2.286  10.424   4.376 -0.5189  1.7011 -0.3183
20706SOL     OW73842   6.933  11.998  10.969  0.1758 -0.5255  0.0475
20706SOL    HW173843   7.018  12.028  11.002 -0.6638  0.8991  0.9588
20706SOL    HW273844   6.945  11.903  10.958  2.0962 -0.2712 -0.5313
20707SOL     OW73845   4.370   0.329   3.816  0.0742  0.3064 -0.0179
20707SOL    HW173846   4.433   0.264   3.786 -0.8396 -0.6102 -0.0104
20707SOL    HW273847   4.332   0.291   3.896 -0.9258  0.5449 -0.3644
20708SOL     OW73848  12.293   8.362   8.199  0.9624  0.0357 -0.1337
20708SOL    HW173849  12.280   8.449   8.237 -1.4890 -0.4591  0.2984
20708SOL    HW273850  12.360   8.376   8.131  0.2330  2.3737 -0.4805
20709SOL     OW73851   1.158  12.365   0.264  0.0101 -0.4250 -0.2401
20709SOL    HW173852   1.232  12.335   0.211  0.1754 -0.5707  0.0707
20709SOL    HW273853   1.081  12.349   0.210  0.2886  0.7312 -1.0147
20710SOL     OW73854   5.035   4.559   1.799 -0.1425 -0.0296 -0.2471
20710SOL    HW173855   5.043   4.509   1.880 -1.3380  0.1053 -0.0289
20710SOL    HW273856   4.957   4.525   1.757  0.8353 -0.5631 -1.7025
20711SOL     OW73857   1.491   6.039   4.749 -0.7656 -0.3416 -0.7890
20711SOL    HW173858   1.452   5.952   4.744 -2.0381  0.2386 -1.5161
20711SOL    HW273859   1.425   6.097   4.710  0.8187  0.6985 -2.0357
20712SOL     OW73860  10.980   9.951  12.799 -0.1498 -0.2308 -0.0056
20712SOL    HW173861  11.012  10.039  12.778  3.0524 -0.8749  1.4881
20712SOL    HW273862  10.933   9.961  12.882  0.5085  0.0419  0.3386
20713SOL     OW73863  11.537   1.367  13.120 -0.4131 -0.2050  0.4517
20713SOL    HW173864  11.543   1.452  13.077  1.2374 -1.4994 -2.0631
20713SOL    HW273865  11.627   1.338  13.131 -0.9569 -2.3028 -0.1704
20714SOL     OW73866   0.227  11.872  13.174  0.0207 -0.5568  0.5255
20714SOL    HW173867   0.203  11.881  13.081  0.1902  1.4031  0.6350
20714SOL    HW273868   0.249  11.779  13.184 -1.1149 -1.0499 -1.1151
20715SOL     OW73869  11.329   6.987  12.536  0.5716  0.1760  0.3315
20715SOL    HW173870  11.365   7.069  12.571 -0.2600  0.1842  1.1889
20715SOL    HW273871  11.264   6.960  12.601  1.0057 -1.2913  0.1747
20716SOL     OW73872   9.490   4.030   7.836  0.3855  0.0442 -0.0764
20716SOL    HW173873   9.415   3.976   7.812  0.4449  0.6058 -1.7023
20716SOL    HW273874   9.454   4.100   7.891  0.0598 -0.7616  0.7546
20717SOL     OW73875   9.936   2.584  10.636  0.1574  0.4451 -0.9869
20717SOL    HW173876  10.013   2.589  10.579  0.3667 -0.8559 -0.8543
20717SOL    HW273877   9.863   2.568  10.576  0.3476 -0.7104 -0.9371
20718SOL     OW73878   3.098   0.553   4.536  0.5992  0.1643 -0.4658
20718SOL    HW173879   3.032   0.489   4.511 -1.0803  1.4620  0.4574
20718SOL    HW273880   3.095   0.556   4.631 -1.0094  3.1165 -0.4659
20719SOL     OW73881   3.826   0.716   3.589  0.2349 -0.7863  0.9406
20719SOL    HW173882   3.829   0.793   3.532 -2.0360 -1.9937 -1.0299
20719SOL    HW273883   3.797   0.749   3.673 -1.5653  0.5056 -0.1059
20720SOL     OW73884   8.381   0.950   5.322 -0.4156  0.7045 -0.2281
20720SOL    HW173885   8.400   0.859   5.299  0.9312  0.8609  0.1903
20720SOL    HW273886   8.313   0.977   5.259  0.1839 -0.1542 -1.2782
20721SOL     OW73887  13.341  13.098  10.718 -0.4740  0.0578 -0.3096
20721SOL    HW173888  13.305  13.118  10.804 -0.7494 -0.8002 -0.2188
20721SOL    HW273889  13.430  13.134  10.721 -1.1601  1.8532 -0.4106
20722SOL     OW73890  13.000   7.113   7.356 -0.0233  0.6402  0.6582
20722SOL    HW173891  13.065   7.182   7.373 -1.0814  1.6402  0.7513
20722SOL    HW273892  13.033   7.068   7.279  0.5927  1.3826  0.4748
20723SOL     OW73893  11.432   2.233   1.435 -0.4296  0.1630  0.3175
20723SOL    HW173894  11.380   2.155   1.411 -0.2679  0.7268 -2.1387
20723SOL    HW273895  11.366   2.300   1.455 -0.6370  0.1781 -0.3740
20724SOL     OW73896   1.319   0.908   7.889 -0.3273 -0.4342 -0.4331
20724SOL    HW173897   1.278   0.951   7.814  0.0249  0.2541 -0.2414
20724SOL    HW273898   1.363   0.832   7.852  1.1125  0.7086 -1.1770
20725SOL     OW73899   8.130   8.943  12.812 -0.3495  0.5711  0.8780
20725SOL    HW173900   8.153   8.900  12.894 -0.8800 -0.7789  0.3485
20725SOL    HW273901   8.198   8.914  12.751 -0.9429  0.1418  0.4154
20726SOL     OW73902  11.999  11.984   4.722 -0.3535 -0.6335 -0.2912
20726SOL    HW173903  12.024  12.026   4.804 -0.5872 -2.3166  0.6683
20726SOL    HW273904  12.076  11.933   4.696 -0.3965 -0.3773 -0.9608
20727SOL     OW73905   7.350  13.699  10.229  0.0384 -0.3540 -0.4638
20727SOL    HW173906   7.438  13.710  10.193  0.0968  2.0706  0.2375
20727SOL    HW273907   7.292  13.700  10.153  0.3862  1.7310 -0.7617
20728SOL     OW73908   2.867   7.026   2.539  0.3549 -0.1281  0.0108
20728SOL    HW173909   2.883   7.120   2.528 -0.5604  0.1370  0.7961
20728SOL    HW273910   2.791   7.008   2.484  0.6573 -0.4570 -0.3029
20729SOL     OW73911   2.176  10.808  13.552  0.3748  0.5819 -0.1146
20729SOL    HW173912   2.121  10.739  13.590  1.0293  0.2630  0.2747
20729SOL    HW273913   2.136  10.826  13.466 -0.2946  0.3193  0.1341
20730SOL     OW73914  11.076  13.406   9.393  0.6965 -0.2595  0.3865
20730SOL    HW173915  11.034  13.481   9.435  0.8754 -0.0666  0.2291
20730SOL    HW273916  11.154  13.444   9.351  0.2340 -0.3427 -0.5678
20731SOL     OW73917   8.564   6.368   1.213 -0.5147  0.5507 -0.6212
20731SOL    HW173918   8.605   6.417   1.141 -0.6311  0.8408 -0.4934
20731SOL    HW273919   8.471   6.366   1.191 -0.5208  0.4468 -0.5882
20732SOL     OW73920   4.984   9.521   1.896  0.0833  0.5386  0.0200
20732SOL    HW173921   4.936   9.450   1.939 -1.4474  1.3767 -0.2588
20732SOL    HW273922   5.006   9.582   1.966 -2.5520  1.9859 -0.2866
20733SOL     OW73923  11.037   8.634  12.226  0.1862  0.2692 -0.0252
20733SOL    HW173924  10.988   8.617  12.145  0.3292  0.0772 -0.0714
20733SOL    HW273925  11.129   8.623  12.202  0.1617 -2.1837  0.6861
20734SOL     OW73926  10.622   1.026  12.345  0.2853 -0.1782 -0.3748
20734SOL    HW173927  10.601   1.079  12.421  1.1444 -0.7564  0.2783
20734SOL    HW273928  10.699   0.975  12.371  0.8343 -0.0926 -1.7657
20735SOL     OW73929   7.431   4.830   6.023 -0.0427  0.3389  0.2332
20735SOL    HW173930   7.350   4.796   5.984  0.9299 -1.2890 -0.4739
20735SOL    HW273931   7.434   4.790   6.110  0.5456 -0.5281 -0.1736
20736SOL     OW73932   2.165   6.386   3.780 -0.4641 -0.0601  0.7821
20736SOL    HW173933   2.101   6.338   3.728 -2.2060  1.9293  0.9355
20736SOL    HW273934   2.121   6.469   3.801  2.8521  2.3018 -0.7105
20737SOL     OW73935   6.945   9.412  12.768 -0.4370 -0.0873  0.3736
20737SOL    HW173936   6.958   9.392  12.861 -0.8791  1.1445  0.7266
20737SOL    HW273937   6.851   9.424  12.759 -0.2703  1.1890  0.0885
20738SOL     OW73938  10.093   1.247  12.441  0.3361  0.1528 -0.4733
20738SOL    HW173939  10.121   1.261  12.350  1.6278 -2.3389 -0.5409
20738SOL    HW273940  10.137   1.167  12.467  0.6092  1.2067  2.6571
20739SOL     OW73941   4.635   7.901   8.954 -0.3740  0.1900 -0.2429
20739SOL    HW173942   4.676   7.891   8.868  0.1156 -2.6200  0.2125
20739SOL    HW273943   4.709   7.906   9.016 -0.6789 -0.6237  0.2116
20740SOL     OW73944   5.373   9.810  12.255  0.0561 -0.3014  0.0965
20740SOL    HW173945   5.283   9.840  12.267  0.1467  0.0630 -0.1115
20740SOL    HW273946   5.405   9.791  12.343  0.6919  2.2612  0.4817
20741SOL     OW73947  13.322  13.115   1.473 -0.2698  0.1391 -0.8889
20741SOL    HW173948  13.406  13.139   1.513 -0.0192 -0.7077 -0.8858
20741SOL    HW273949  13.275  13.068   1.542  0.2476 -1.5106 -1.6097
20742SOL     OW73950   0.364  10.847   9.333  0.1471 -0.2539 -0.7366
20742SOL    HW173951   0.343  10.881   9.420  0.7508 -1.6375 -0.0219
20742SOL    HW273952   0.436  10.903   9.303  0.8368 -0.5962  0.2297
20743SOL     OW73953   0.953   0.776  12.137 -0.3396  0.0061 -0.1182
20743SOL    HW173954   0.894   0.834  12.090 -0.2706  0.2496  0.1004
20743SOL    HW273955   1.028   0.831  12.160 -0.4960 -0.0498  0.5178
20744SOL     OW73956  10.566  10.370   5.550 -0.0971  0.6995  0.5677
20744SOL    HW173957  10.486  10.352   5.500 -0.7604  0.1577  1.7824
20744SOL    HW273958  10.595  10.285   5.582  3.2541  0.1951 -3.0079
20745SOL     OW73959   6.899   6.929   9.507  0.2750 -0.1760  0.2602
20745SOL    HW173960   6.890   6.835   9.516  0.6646 -0.0778  2.0624
20745SOL    HW273961   6.993   6.945   9.509  0.2101  0.2516  0.0802
20746SOL     OW73962   1.271   8.357   4.332 -0.1578 -0.0067 -0.5809
20746SOL    HW173963   1.315   8.435   4.299 -0.3840  0.4774  0.2281
20746SOL    HW273964   1.193   8.349   4.277 -1.1694  1.4923  0.5426
20747SOL     OW73965  10.362   3.181   0.605 -0.8332 -0.4944  0.3534
20747SOL    HW173966  10.445   3.154   0.566 -0.9285 -2.1014  1.1907
20747SOL    HW273967  10.382   3.262   0.651 -0.2677  0.3551 -1.2866
20748SOL     OW73968   0.707   3.445   9.811 -0.5999  0.0219  0.4228
20748SOL    HW173969   0.684   3.409   9.896 -0.6484 -1.4899 -0.1906
20748SOL    HW273970   0.802   3.441   9.808 -0.5449  0.9016  0.7328
20749SOL     OW73971   3.852   4.706   5.437 -0.3213 -0.0733 -0.4682
20749SOL    HW173972   3.813   4.680   5.521 -0.9781  2.5231  0.1301
20749SOL    HW273973   3.941   4.734   5.459 -0.3123  0.1093 -0.7328
20750SOL     OW73974   0.542  13.420   9.065 -0.5590 -0.5280 -0.6057
20750SOL    HW173975   0.626  13.453   9.033 -0.9371 -0.5110 -1.5940
20750SOL    HW273976   0.480  13.438   8.994 -1.6381  0.4771  0.5417
20751SOL     OW73977   5.318   8.422   4.063  0.6921 -0.1587  0.2565
20751SOL    HW173978   5.340   8.371   4.141  0.0233  0.7347  1.0515
20751SOL    HW273979   5.401   8.460   4.035  0.8037  0.2167  1.0577
20752SOL     OW73980  12.944  11.597   1.230 -0.4283  0.3577  0.1587
20752SOL    HW173981  12.902  11.659   1.172  0.5195  0.1913 -0.7454
20752SOL    HW273982  12.919  11.625   1.318 -1.2596  1.0792 -0.2943
20753SOL     OW73983   4.371  11.609   3.553 -0.0443 -0.0464 -0.0011
20753SOL    HW173984   4.380  11.681   3.490 -2.3767 -0.4360 -0.8674
20753SOL    HW273985   4.370  11.530   3.499 -1.1894 -0.4468  0.5757
20754SOL     OW73986   9.598   8.282  10.056 -0.0942  0.3314 -0.2941
20754SOL    HW173987   9.637   8.342  10.120  0.2883 -0.3042  0.0819
20754SOL    HW273988   9.637   8.197  10.076  0.3444  0.1869 -1.6341
20755SOL     OW73989  10.002   4.709   7.124  0.2001 -0.1707 -0.5594
20755SOL    HW173990   9.975   4.756   7.045  0.4851  0.5298 -0.2551
20755SOL    HW273991   9.974   4.766   7.196 -1.0683 -1.3301 -0.1018
20756SOL     OW73992   0.035   4.621   6.910 -0.0079 -0.1430  1.1852
20756SOL    HW173993   0.068   4.665   6.832 -0.4760 -1.8624 -0.0336
20756SOL    HW273994   0.101   4.639   6.977  2.5228 -1.8790 -0.6448
20757SOL     OW73995   1.088   8.374   1.745 -1.0945 -0.5988 -0.4407
20757SOL    HW173996   1.043   8.290   1.739 -0.0896 -1.1737 -0.2018
20757SOL    HW273997   1.181   8.351   1.746 -0.7558  0.5867 -1.5966
20758SOL     OW73998   1.965   3.168   6.199  0.5450  0.4982 -0.7988
20758SOL    HW173999   2.006   3.250   6.171 -2.1407  2.5230  0.7287
20758SOL    HW274000   1.973   3.168   6.294 -1.8612  0.4117 -0.5418
20759SOL     OW74001  12.511   2.335  11.932 -0.3670  0.4091 -0.1744
20759SOL    HW174002  12.434   2.382  11.898  0.1842  0.1773 -1.8702
20759SOL    HW274003  12.542   2.284  11.857  1.8140  0.9749  0.2755
20760SOL     OW74004   6.406   7.931   5.905 -0.0569 -0.1986 -0.0316
20760SOL    HW174005   6.454   7.972   5.833 -0.4072 -0.9240 -0.6845
20760SOL    HW274006   6.456   7.852   5.926  0.4935  0.4171  1.0761
20761SOL     OW74007  11.827   7.918   3.223 -1.1614 -0.0934  0.0870
20761SOL    HW174008  11.895   7.888   3.284 -1.6094  0.5231  0.8959
20761SOL    HW274009  11.873   7.925   3.139 -0.0418  0.9926  0.7611
20762SOL     OW74010   6.578   0.838   7.816 -0.3052  0.3351  0.1728
20762SOL    HW174011   6.525   0.904   7.772 -0.1080  0.8751  0.7354
20762SOL    HW274012   6.635   0.887   7.874  0.9597 -0.2140 -0.5506
20763SOL     OW74013  13.088   7.672   3.589  0.3395 -0.5802 -0.5267
20763SOL    HW174014  13.139   7.713   3.519  0.6219  1.1505  0.6305
20763SOL    HW274015  13.001   7.710   3.580  0.9059  1.3092  1.2922
20764SOL     OW74016   5.464   6.021   9.478 -0.5422 -0.1394 -0.4563
20764SOL    HW174017   5.439   5.950   9.419 -1.9998  1.8169 -2.3635
20764SOL    HW274018   5.401   6.016   9.550 -0.7123 -0.6809 -0.6350
20765SOL     OW74019   6.182   0.420  13.472  0.1079 -0.2914  0.0916
20765SOL    HW174020   6.188   0.516  13.466  0.1282 -0.3296 -0.5836
20765SOL    HW274021   6.144   0.404  13.558 -0.2280  0.3450  0.0688
20766SOL     OW74022   3.162   0.251   4.369 -0.2727  0.2132 -0.1188
20766SOL    HW174023   3.254   0.270   4.385 -0.7472  2.2156  0.5740
20766SOL    HW274024   3.128   0.226   4.455 -1.0151  2.6258  0.3502
20767SOL     OW74025   5.435   6.931   9.638  0.3250 -0.1041  0.0783
20767SOL    HW174026   5.462   7.000   9.577 -1.2963  1.2383  0.7960
20767SOL    HW274027   5.380   6.873   9.585 -2.2420  1.8151  0.4401
20768SOL     OW74028   7.063   1.467   9.160  0.5644  0.7807  0.5554
20768SOL    HW174029   7.056   1.375   9.184 -2.3592  0.7486 -0.0533
20768SOL    HW274030   7.155   1.478   9.136  1.6456 -1.2514  3.2309
20769SOL     OW74031   7.911  13.251   6.161 -0.4075  0.8472  0.4414
20769SOL    HW174032   7.852  13.327   6.155 -0.6106  0.6091 -0.9254
20769SOL    HW274033   7.853  13.178   6.185 -0.5714  0.7377 -0.2683
20770SOL     OW74034  12.683   2.212   9.881  0.0326 -0.1749 -0.2802
20770SOL    HW174035  12.625   2.285   9.899  1.1610  0.3514  1.4547
20770SOL    HW274036  12.642   2.137   9.924  0.5117  0.1661  0.8125
20771SOL     OW74037  12.474  11.464   9.619  0.0075 -0.3978  0.0492
20771SOL    HW174038  12.386  11.497   9.603  0.7329  1.7221  0.0706
20771SOL    HW274039  12.531  11.540   9.607  1.8567 -1.7124 -0.0289
20772SOL     OW74040   9.337   7.032   7.902  0.6456  0.3995 -0.3615
20772SOL    HW174041   9.392   6.983   7.841  1.5083 -0.6787  1.1985
20772SOL    HW274042   9.247   7.007   7.878  1.0475 -3.1048  1.1305
20773SOL     OW74043   7.055   2.450   3.119 -0.8190  0.4181 -0.3419
20773SOL    HW174044   7.019   2.374   3.074  1.1336 -0.8013  0.0290
20773SOL    HW274045   7.043   2.430   3.212 -0.6425  0.7518 -0.2457
20774SOL     OW74046  12.517   8.042   0.867  0.1505  0.2942  0.0796
20774SOL    HW174047  12.436   8.071   0.909  0.1504 -0.6590  0.7714
20774SOL    HW274048  12.508   8.071   0.776 -1.4990 -0.7854 -0.1446
20775SOL     OW74049  10.749   9.379   2.507  0.0920 -0.3157  0.1819
20775SOL    HW174050  10.824   9.439   2.514 -1.8384  2.3582 -0.2201
20775SOL    HW274051  10.750   9.351   2.415 -0.0279  0.6587 -0.1344
20776SOL     OW74052   7.549   7.516   7.301 -0.2276  0.4391  0.2737
20776SOL    HW174053   7.623   7.563   7.262 -0.5812 -0.2293 -1.2581
20776SOL    HW274054   7.584   7.430   7.324 -0.4102  0.2760 -0.0490
20777SOL     OW74055   4.870   7.300  11.901 -0.4035  0.5060  0.1618
20777SOL    HW174056   4.954   7.265  11.873 -0.2008  1.5108 -0.5368
20777SOL    HW274057   4.890   7.348  11.982 -0.3260  0.6573  0.0524
20778SOL     OW74058   5.058  12.591  10.526 -0.0738  0.2339  0.4831
20778SOL    HW174059   5.128  12.654  10.543  0.3986 -0.0974 -0.1596
20778SOL    HW274060   5.092  12.536  10.455 -1.5434  0.9587 -0.8331
20779SOL     OW74061   2.962   8.408  13.197 -0.3811  0.0818 -0.2780
20779SOL    HW174062   2.997   8.488  13.157 -0.0190  0.1996  0.2578
20779SOL    HW274063   3.019   8.393  13.273 -0.7169 -0.4401 -0.1289
20780SOL     OW74064   5.053   1.574  12.161 -0.1173 -0.1053 -0.2701
20780SOL    HW174065   4.962   1.604  12.159 -0.7485 -1.8919 -0.8910
20780SOL    HW274066   5.089   1.610  12.242 -1.1417  1.2656 -0.3967
20781SOL     OW74067   2.540   2.135   2.186  0.9079 -1.1841  0.6748
20781SOL    HW174068   2.606   2.187   2.232  0.6260  0.2855 -0.5223
20781SOL    HW274069   2.580   2.116   2.101 -0.7040  1.0629 -0.7102
20782SOL     OW74070   7.689   6.699   0.353  0.8613  0.5040 -0.2597
20782SOL    HW174071   7.761   6.648   0.316  1.2300  0.2013  0.8461
20782SOL    HW274072   7.728   6.783   0.377  1.6276 -0.6452  3.0345
20783SOL     OW74073   1.536   7.626   9.117  0.2713 -0.0504  0.0453
20783SOL    HW174074   1.477   7.623   9.042  1.4892 -1.1741 -0.9144
20783SOL    HW274075   1.557   7.719   9.127 -1.8229  0.4177  0.5967
20784SOL     OW74076  11.915   4.783  12.896  0.0425  0.2675 -0.1656
20784SOL    HW174077  11.891   4.867  12.934  1.0015  0.0107  1.0450
20784SOL    HW274078  12.005   4.795  12.864 -0.1087 -0.0608 -0.7423
20785SOL     OW74079   6.299   7.305  12.591  0.2932  0.0604  0.3701
20785SOL    HW174080   6.256   7.321  12.506  1.8552  0.0947 -0.4453
20785SOL    HW274081   6.255   7.366  12.651  0.7281  1.7631 -0.9499
20786SOL     OW74082  10.214   5.035   5.954  0.1735  0.3779  0.1653
20786SOL    HW174083  10.153   5.107   5.938  0.5907  0.6972  0.0080
20786SOL    HW274084  10.299   5.077   5.964  0.4782 -0.1194 -0.2754
20787SOL     OW74085   6.272  10.193  11.646 -0.2331  0.1210 -0.0664
20787SOL    HW174086   6.246  10.131  11.577 -1.4093 -0.0602  0.5019
20787SOL    HW274087   6.360  10.165  11.672 -0.9195 -1.7022  0.5402
20788SOL     OW74088   1.660   3.820   3.512 -0.0366  0.2578  0.1668
20788SOL    HW174089   1.608   3.889   3.551 -0.5924 -0.0379 -0.0429
20788SOL    HW274090   1.748   3.833   3.547  0.0553  1.5726 -0.5015
20789SOL     OW74091   3.149   5.910  13.233 -0.6060 -0.2641 -0.5056
20789SOL    HW174092   3.152   5.974  13.162 -1.3964 -0.5973 -0.8496
20789SOL    HW274093   3.131   5.827  13.190 -1.1287 -0.4670  0.0861
20790SOL     OW74094  12.873   8.906   1.293  0.5378  0.1171 -0.5271
20790SOL    HW174095  12.792   8.913   1.345  0.4876 -1.7883 -0.2674
20790SOL    HW274096  12.938   8.953   1.344  0.3455 -1.2068  1.0360
20791SOL     OW74097   0.515   6.688   8.939 -0.7287 -0.3374  0.0610
20791SOL    HW174098   0.496   6.716   8.849 -0.4240 -0.4363 -0.0353
20791SOL    HW274099   0.610   6.673   8.940 -0.7947 -0.7564  0.2797
20792SOL     OW74100   7.189   6.546   9.365  0.0826  0.2084 -0.9688
20792SOL    HW174101   7.268   6.578   9.408 -1.7444  1.2604  1.8254
20792SOL    HW274102   7.190   6.451   9.381  0.4584  0.3018 -0.4270
20793SOL     OW74103   1.712   9.455   4.227 -0.3352  0.0723 -0.4471
20793SOL    HW174104   1.643   9.450   4.294 -1.1596  2.7105 -0.9770
20793SOL    HW274105   1.786   9.496   4.272 -0.0506 -0.3285 -0.5506
20794SOL     OW74106   7.716   0.151   4.169 -0.3047  0.1295  0.4249
20794SOL    HW174107   7.801   0.106   4.176 -0.4256  0.0666  1.7807
20794SOL    HW274108   7.653   0.081   4.154 -0.2629  0.0357  0.6761
20795SOL     OW74109   7.284   5.568   5.701 -0.4894  0.0694  0.4969
20795SOL    HW174110   7.366   5.547   5.746 -0.6963 -1.8217  0.0670
20795SOL    HW274111   7.275   5.663   5.710  1.1203  0.1484  1.6022
20796SOL     OW74112   8.420   5.884  10.975 -0.3122 -0.1265  0.3947
20796SOL    HW174113   8.412   5.884  10.880 -1.1197  1.5626  0.4390
20796SOL    HW274114   8.345   5.833  11.006 -2.0952  2.2510  0.2094
20797SOL     OW74115  13.058   3.692   1.173  0.3507  0.5927 -0.5644
20797SOL    HW174116  12.999   3.624   1.141 -0.8459  0.1996  2.1764
20797SOL    HW274117  13.146   3.658   1.155 -0.2379 -0.6466 -1.2254
20798SOL     OW74118  11.098  12.015  11.707 -0.2869 -0.0100 -0.3791
20798SOL    HW174119  11.054  12.037  11.790 -0.3299  0.3215 -0.4866
20798SOL    HW274120  11.106  12.099  11.662 -2.4792 -0.4800 -1.8109
20799SOL     OW74121   9.638   5.878  10.865 -0.2470  0.6765  0.5968
20799SOL    HW174122   9.599   5.857  10.780  0.9835  0.5755  0.0373
20799SOL    HW274123   9.573   5.935  10.907 -1.4980 -0.3906  0.1824
20800SOL     OW74124  12.483   8.002   6.970 -0.3658 -0.0182 -0.0295
20800SOL    HW174125  12.423   8.063   6.928  0.6776 -0.0467 -1.6443
20800SOL    HW274126  12.479   7.924   6.915  2.2023  0.4957 -1.0720
20801SOL     OW74127  13.137  12.465   3.461 -0.4249 -0.3699  0.8953
20801SOL    HW174128  13.158  12.558   3.455 -1.4808 -0.1880 -0.6249
20801SOL    HW274129  13.198  12.430   3.526  2.0310  0.7905 -0.6599
20802SOL     OW74130   2.408   6.876  12.418  0.3721 -0.3329  0.0560
20802SOL    HW174131   2.427   6.795  12.465  0.0625 -0.0974  0.5953
20802SOL    HW274132   2.332   6.855  12.364 -1.4474  0.3067  2.1970
20803SOL     OW74133   6.338   2.652   6.410  0.6475 -0.1050  0.1751
20803SOL    HW174134   6.389   2.675   6.487  0.5990  1.1009 -0.1358
20803SOL    HW274135   6.324   2.558   6.418  1.3072 -0.1296  1.2297
20804SOL     OW74136   5.789   0.198   5.862 -0.2839 -0.6514  0.4014
20804SOL    HW174137   5.847   0.185   5.787 -0.4074  1.2902 -0.0798
20804SOL    HW274138   5.846   0.187   5.938 -0.2522 -3.1147  0.1221
20805SOL     OW74139   1.201  12.033   4.145 -0.1077  0.2847 -0.2773
20805SOL    HW174140   1.264  12.103   4.125  0.0292  0.3662  0.4165
20805SOL    HW274141   1.251  11.970   4.197 -0.3582 -0.1065 -0.5107
20806SOL     OW74142  12.700  13.239   2.522 -0.2593  0.1802  0.4941
20806SOL    HW174143  12.668  13.248   2.611 -1.7612  3.3086 -0.2259
20806SOL    HW274144  12.622  13.220   2.469 -0.0185  1.9425 -0.5633
20807SOL     OW74145  12.468  11.938   6.880  0.5825 -0.4482 -0.6524
20807SOL    HW174146  12.395  11.944   6.942  0.1532  0.3727 -1.2098
20807SOL    HW274147  12.453  12.010   6.819  0.7370 -1.5044 -1.9839
20808SOL     OW74148   9.918   2.896   8.978 -0.9711  0.7767 -0.0334
20808SOL    HW174149   9.838   2.946   8.960 -0.8544  0.6514 -0.9655
20808SOL    HW274150   9.985   2.963   8.991 -1.0449  0.8746 -0.1519
20809SOL     OW74151   2.634   2.060   2.540 -0.0701 -0.2658 -0.1112
20809SOL    HW174152   2.654   2.010   2.461  1.0559 -1.3362  0.7999
20809SOL    HW274153   2.719   2.084   2.576 -0.5782  1.1141  0.2408
20810SOL     OW74154   3.290  12.770   6.351 -0.1407  0.1151 -0.0170
20810SOL    HW174155   3.292  12.792   6.258  0.5626 -1.2163 -0.3482
20810SOL    HW274156   3.346  12.692   6.358  0.6279  0.7790  1.6783
20811SOL     OW74157  13.082  12.915   5.268  0.0244 -0.4622 -0.0655
20811SOL    HW174158  13.004  12.941   5.220  1.1909  2.1098 -0.7824
20811SOL    HW274159  13.130  12.859   5.207 -0.4083 -0.5544 -0.3253
20812SOL     OW74160   5.800   9.332   8.180  0.2031  0.3724  0.3774
20812SOL    HW174161   5.827   9.288   8.261  0.5938  1.3285  0.7780
20812SOL    HW274162   5.846   9.416   8.182 -0.0447  0.5391 -0.6822
20813SOL     OW74163   4.203   4.238   0.683 -0.5871 -0.1544 -0.2627
20813SOL    HW174164   4.263   4.180   0.729 -1.3154  0.6938  1.8820
20813SOL    HW274165   4.209   4.321   0.730 -1.5963  0.6798 -1.5487
20814SOL     OW74166   6.879  11.846   0.419  0.0031  0.2965 -0.0314
20814SOL    HW174167   6.801  11.817   0.466  0.6341 -1.2594  0.0969
20814SOL    HW274168   6.878  11.795   0.338  1.5892 -0.7743  0.5762
20815SOL     OW74169   8.213  11.893   6.444  0.1542  0.4371  0.0140
20815SOL    HW174170   8.274  11.966   6.430  3.0822 -2.1547 -2.1119
20815SOL    HW274171   8.226  11.869   6.535  0.7816  1.2249  0.1533
20816SOL     OW74172   0.751   3.526   1.019 -0.3604 -0.2324 -0.7713
20816SOL    HW174173   0.816   3.595   1.029  1.2867 -1.4965 -2.0786
20816SOL    HW274174   0.669   3.573   1.002  0.8206  1.4197 -2.2891
20817SOL     OW74175   4.073   6.010   1.027 -0.1507  0.3480 -0.2362
20817SOL    HW174176   4.138   5.979   0.964 -0.1631 -0.1982  0.0179
20817SOL    HW274177   4.090   5.960   1.107 -1.4978 -0.5469 -0.4596
20818SOL     OW74178   7.757   0.259   4.463  0.0751  0.8833  0.6192
20818SOL    HW174179   7.727   0.265   4.372  1.6170  1.9529  0.1331
20818SOL    HW274180   7.696   0.315   4.512  0.1211  1.5072 -0.0132
20819SOL     OW74181  12.711   1.739   6.955 -0.0686  0.6151  0.1529
20819SOL    HW174182  12.706   1.667   6.893  2.9409 -0.7086  1.2456
20819SOL    HW274183  12.770   1.802   6.915  1.6630 -0.1141  1.4068
20820SOL     OW74184   1.606  11.531   0.306  0.3458  0.2793 -0.2478
20820SOL    HW174185   1.694  11.503   0.332  0.7201 -1.4101 -2.8449
20820SOL    HW274186   1.621  11.585   0.228 -0.8716  0.1282 -0.6056
20821SOL     OW74187   6.353   2.252  13.075 -0.4690  0.2973  0.3743
20821SOL    HW174188   6.258   2.266  13.076 -0.4928  0.1602  0.1331
20821SOL    HW274189   6.385   2.306  13.003 -0.4911 -0.4216 -0.1829
20822SOL     OW74190   1.640   8.663   4.536 -0.2853  0.0093  0.2729
20822SOL    HW174191   1.550   8.660   4.569 -0.1184  1.5944  0.9555
20822SOL    HW274192   1.695   8.669   4.615  0.2654  1.3684 -0.1807
20823SOL     OW74193   5.857  11.686   2.925 -0.1710 -0.1210 -0.1980
20823SOL    HW174194   5.814  11.610   2.886 -1.5020  1.3845 -1.8302
20823SOL    HW274195   5.854  11.669   3.020 -1.4545 -1.5719 -0.4543
20824SOL     OW74196   9.675  13.393   5.782 -0.4023  0.2998  0.2879
20824SOL    HW174197   9.702  13.483   5.798  0.0982  0.0378  0.9250
20824SOL    HW274198   9.594  13.383   5.831 -2.1312  1.2900 -2.1500
20825SOL     OW74199   0.286   8.688   9.815  0.5911 -0.0310 -0.0444
20825SOL    HW174200   0.247   8.723   9.895  2.1576  0.2897  0.6115
20825SOL    HW274201   0.325   8.605   9.842  0.1682 -0.4721 -0.7478
20826SOL     OW74202   1.902   9.520   4.414 -0.5730  0.4541 -0.3076
20826SOL    HW174203   1.835   9.568   4.463 -1.6982 -0.5639 -0.7763
20826SOL    HW274204   1.984   9.562   4.437 -1.1460  0.5235  1.8330
20827SOL     OW74205  10.585   0.448   2.127 -0.1024 -0.3120 -0.2159
20827SOL    HW174206  10.530   0.375   2.099 -1.6179  0.7851 -0.2397
20827SOL    HW274207  10.601   0.498   2.047  1.9003 -1.1932 -0.4178
20828SOL     OW74208   1.220   4.537   3.967 -0.2290 -0.2537  0.0450
20828SOL    HW174209   1.131   4.537   4.002  0.0462  0.2939  0.7638
20828SOL    HW274210   1.211   4.574   3.879 -0.8341 -1.0385 -0.2269
20829SOL     OW74211   9.379   0.202  12.235 -0.2910  0.0380  0.3262
20829SOL    HW174212   9.367   0.287  12.277 -0.0007  2.6505 -4.1908
20829SOL    HW274213   9.469   0.203  12.203 -0.7644 -1.2088 -1.1962
20830SOL     OW74214  13.512   7.085   1.408 -0.1170 -0.4923 -0.1144
20830SOL    HW174215  13.534   7.103   1.317  0.5222 -1.7746 -0.2366
20830SOL    HW274216  13.424   7.047   1.404 -0.3608  0.0507 -0.1121
20831SOL     OW74217  13.057   1.686  11.159 -0.2544  0.0928  0.1061
20831SOL    HW174218  12.993   1.630  11.203 -1.2183 -0.6630 -2.1342
20831SOL    HW274219  13.091   1.633  11.088 -0.1500  1.8523 -1.2354
20832SOL     OW74220   5.381  10.569   9.561  0.6594  0.4802  0.1279
20832SOL    HW174221   5.363  10.656   9.528 -0.3627 -0.0065 -0.6574
20832SOL    HW274222   5.379  10.513   9.483 -0.1767 -0.4556  0.7946
20833SOL     OW74223  11.386   7.306   1.261 -0.1661  0.1255 -0.2347
20833SOL    HW174224  11.357   7.392   1.231  1.9173  0.6419 -0.8885
20833SOL    HW274225  11.306   7.252   1.259 -1.1783  1.5926 -1.4267
20834SOL     OW74226   5.493   1.806   1.754 -0.6167  0.5961  0.0637
20834SOL    HW174227   5.526   1.744   1.820 -0.1821  1.4213  0.6479
20834SOL    HW274228   5.435   1.754   1.699  0.8685 -0.6773 -0.3694
20835SOL     OW74229  13.314  10.267   8.102 -0.1861 -0.6112  0.2201
20835SOL    HW174230  13.354  10.260   8.189  0.6154 -0.3269 -0.1163
20835SOL    HW274231  13.224  10.238   8.115 -1.1271  2.5258  1.8703
20836SOL     OW74232  12.626  10.218   7.164  0.2801 -0.6208 -0.3950
20836SOL    HW174233  12.703  10.196   7.110 -1.9145 -0.8946 -3.6843
20836SOL    HW274234  12.611  10.139   7.216  0.6057 -1.6975 -1.8442
20837SOL     OW74235   7.757  11.016   1.589 -0.5123 -0.0442  0.2490
20837SOL    HW174236   7.699  11.061   1.527 -1.2690 -2.0050 -0.5715
20837SOL    HW274237   7.698  10.975   1.652 -0.4756 -4.3641 -2.1316
20838SOL     OW74238   7.868  11.484   8.451  0.0422  0.2792  0.3099
20838SOL    HW174239   7.801  11.416   8.452 -0.1673  0.4668 -0.4357
20838SOL    HW274240   7.900  11.488   8.541  0.3742 -1.1122  0.2646
20839SOL     OW74241  10.169   5.477   4.898  0.2394 -0.6445  0.0078
20839SOL    HW174242  10.191   5.396   4.943  1.3999 -0.2392  0.2116
20839SOL    HW274243  10.131   5.449   4.815  2.3355 -1.4250 -0.7433
20840SOL     OW74244   3.427  13.101   4.300 -0.6377  0.0584  0.5917
20840SOL    HW174245   3.495  13.041   4.330 -0.2133 -0.2470 -0.8678
20840SOL    HW274246   3.429  13.094   4.204 -1.7601  1.1140  0.4522
20841SOL     OW74247   2.425   3.306   4.684  1.0169  0.0608  0.0218
20841SOL    HW174248   2.347   3.359   4.671  1.3325  0.9333  1.4316
20841SOL    HW274249   2.466   3.300   4.598  0.0360  0.5984 -0.4921
20842SOL     OW74250   8.804   2.276   6.818  0.2792 -0.2777 -0.1808
20842SOL    HW174251   8.717   2.308   6.843  0.1604 -0.1827 -0.7076
20842SOL    HW274252   8.790   2.183   6.798  0.4429 -0.4406  0.4272
20843SOL     OW74253  12.491   9.323   8.717 -0.3644 -0.2666  0.2671
20843SOL    HW174254  12.549   9.392   8.749  1.1801 -1.0572 -0.7288
20843SOL    HW274255  12.520   9.244   8.763  1.1465 -1.1981 -2.1019
20844SOL     OW74256   9.475   4.002  11.082 -0.0553  0.5023 -0.1305
20844SOL    HW174257   9.493   4.085  11.126 -0.4759 -0.3702  1.8173
20844SOL    HW274258   9.382   4.007  11.061 -1.0036 -0.7251  3.1181
20845SOL     OW74259   1.280   0.513   3.652  0.4119  0.8884  0.6056
20845SOL    HW174260   1.292   0.440   3.591  0.6086  0.6784  0.8918
20845SOL    HW274261   1.320   0.483   3.733 -1.8311  0.2230  1.5539
20846SOL     OW74262   5.605   8.203  11.114  0.2564  0.2694 -0.2216
20846SOL    HW174263   5.553   8.123  11.105  0.0445  0.5257 -1.3584
20846SOL    HW274264   5.664   8.184  11.187 -1.7933  0.1787  1.5308
20847SOL     OW74265   8.025  11.387   3.480  0.0698  0.3667 -0.2983
20847SOL    HW174266   7.966  11.436   3.423 -1.6933  0.0701  1.1840
20847SOL    HW274267   7.982  11.386   3.565  1.7169 -0.7954  0.5926
20848SOL     OW74268  10.072   7.849  13.733  0.5624 -0.0833  0.1603
20848SOL    HW174269  10.018   7.861  13.811  0.1993  0.5444 -0.1832
20848SOL    HW274270  10.109   7.761  13.743 -0.9086 -0.7350  0.1533
20849SOL     OW74271  11.492   2.217   7.368 -0.5736 -0.1840 -0.2656
20849SOL    HW174272  11.479   2.122   7.371  1.8421 -0.6021 -0.9101
20849SOL    HW274273  11.487   2.239   7.274 -0.4756  0.2089 -0.1827
20850SOL     OW74274   8.391   0.821   3.744 -0.0175 -0.1521 -0.0142
20850SOL    HW174275   8.303   0.794   3.769 -0.2566  1.3839  0.8760
20850SOL    HW274276   8.444   0.806   3.822 -0.1033  1.5876  0.4213
20851SOL     OW74277   0.428   3.115   9.315  0.6424 -0.1932  0.5410
20851SOL    HW174278   0.418   3.077   9.227 -1.2434  0.0951  0.5820
20851SOL    HW274279   0.423   3.210   9.301  0.7473 -0.1314  0.9128
20852SOL     OW74280  10.491   2.758  10.058 -1.0818  0.4456 -0.1041
20852SOL    HW174281  10.559   2.735   9.995 -1.6534 -0.1641 -0.5139
20852SOL    HW274282  10.528   2.831  10.108  0.5840 -0.9866  0.8639
20853SOL     OW74283  11.045   1.190  12.568 -0.0186  0.6138  0.2165
20853SOL    HW174284  11.040   1.107  12.615 -0.1322  1.6300  2.0866
20853SOL    HW274285  11.091   1.248  12.627  0.6980  1.7218 -1.3570
20854SOL     OW74286  11.334   7.286   3.604  0.0380  0.1347  0.0686
20854SOL    HW174287  11.400   7.256   3.667  2.1358  2.8941 -0.6007
20854SOL    HW274288  11.382   7.346   3.547 -2.6207  0.5689 -1.8645
20855SOL     OW74289   9.441   6.867   3.161 -0.1442  0.1619  0.1203
20855SOL    HW174290   9.523   6.902   3.127 -0.8913  0.7741 -1.1031
20855SOL    HW274291   9.385   6.944   3.171 -0.7781 -0.3261  0.3861
20856SOL     OW74292   1.015   0.237  10.454  0.4664 -0.2559 -1.2971
20856SOL    HW174293   1.021   0.164  10.515 -0.7555  2.0937  1.8675
20856SOL    HW274294   0.949   0.210  10.390 -1.6705 -1.1175  1.1199
20857SOL     OW74295   4.300   6.049  11.753 -0.3796  0.2896  0.4490
20857SOL    HW174296   4.260   5.977  11.802 -0.0186  1.5051  2.6887
20857SOL    HW274297   4.361   6.006  11.693 -1.1064 -1.3094  0.7989
20858SOL     OW74298   7.555   0.592   6.340  0.2970 -0.0822 -0.5245
20858SOL    HW174299   7.462   0.598   6.360  0.4932 -1.4758  1.0320
20858SOL    HW274300   7.592   0.541   6.412  2.4072  1.0419 -0.7247
20859SOL     OW74301   0.595   5.409   1.718  0.3022  0.2998 -0.3982
20859SOL    HW174302   0.532   5.412   1.790  0.3254  0.5619 -0.3880
20859SOL    HW274303   0.645   5.329   1.733  0.9652  0.8566  0.4439
20860SOL     OW74304  13.281   2.176   1.779 -0.4114 -0.2083  0.0467
20860SOL    HW174305  13.370   2.152   1.805 -0.7172 -0.4354  0.9364
20860SOL    HW274306  13.259   2.114   1.709  0.4747  0.4832 -0.8636
20861SOL     OW74307   5.619  12.467  10.023 -0.1910 -0.4304 -0.1992
20861SOL    HW174308   5.564  12.537   9.988  0.4832  0.3470  0.2617
20861SOL    HW274309   5.688  12.456   9.958  0.5365  0.3724  0.4097
20862SOL     OW74310   6.698  11.321   1.674 -0.4728 -0.1176 -0.2095
20862SOL    HW174311   6.790  11.340   1.655 -0.7877 -0.7697 -2.7089
20862SOL    HW274312   6.656  11.407   1.681 -0.0180  0.1677 -0.9427
20863SOL     OW74313   8.974   8.524  10.701 -0.2444  0.2192 -0.0631
20863SOL    HW174314   8.923   8.587  10.649  1.4574  1.6005 -0.1670
20863SOL    HW274315   9.056   8.516  10.654  0.2538 -0.6966  0.9436
20864SOL     OW74316   5.162   0.958   0.137  0.0922 -0.0802 -0.5606
20864SOL    HW174317   5.114   0.912   0.206  0.8514 -1.6475 -1.0329
20864SOL    HW274318   5.206   1.030   0.183 -1.0201  0.1259  0.2210
20865SOL     OW74319  10.450  12.692  11.045 -0.6549  0.2663 -0.4498
20865SOL    HW174320  10.368  12.657  11.010 -0.9135  1.6277 -1.2613
20865SOL    HW274321  10.425  12.773  11.089  0.0779  0.0006  0.4928
20866SOL     OW74322   7.164   7.360   3.860  0.2013 -0.2055  0.5422
20866SOL    HW174323   7.223   7.373   3.786 -0.3331 -1.7625 -0.1962
20866SOL    HW274324   7.178   7.436   3.916  0.5564  1.0495 -1.1866
20867SOL     OW74325   5.322   2.980   6.674 -0.3592 -0.0573  0.1846
20867SOL    HW174326   5.308   2.901   6.623 -1.8165  1.0126 -1.1938
20867SOL    HW274327   5.406   3.014   6.645 -1.4933  0.9257 -2.1444
20868SOL     OW74328  10.988   2.765   4.036  0.6617 -0.1063  0.1508
20868SOL    HW174329  11.064   2.789   3.983 -1.1627  0.2835 -2.4967
20868SOL    HW274330  10.956   2.847   4.073 -0.3451  0.2720 -1.4802
20869SOL     OW74331   0.220   7.463  12.869  0.0807  0.3962 -0.8728
20869SOL    HW174332   0.284   7.391  12.879  0.2419  0.3746 -1.9953
20869SOL    HW274333   0.136   7.419  12.856 -0.2263  0.4235  0.7409
20870SOL     OW74334  11.859  10.331   1.841 -0.5288  0.0556  0.3085
20870SOL    HW174335  11.919  10.332   1.916  0.0767  2.4441 -0.1218
20870SOL    HW274336  11.774  10.351   1.879 -0.2351  1.1993  0.4047
20871SOL     OW74337  13.399   4.006   3.892 -0.3786  0.1111 -0.1504
20871SOL    HW174338  13.412   4.099   3.911 -0.2954 -0.4180  2.8767
20871SOL    HW274339  13.311   4.001   3.855 -0.8495  1.3152  0.7443
20872SOL     OW74340   6.947   4.430   2.160 -0.0469 -0.2916 -0.3222
20872SOL    HW174341   6.956   4.349   2.209 -3.2996  0.0634  1.1241
20872SOL    HW274342   7.006   4.492   2.203 -1.0922 -0.6416  1.7143
20873SOL     OW74343   5.709   7.728   2.795  0.0037 -0.0426  0.1103
20873SOL    HW174344   5.752   7.813   2.807 -0.8425  0.4049  0.0313
20873SOL    HW274345   5.694   7.721   2.701  0.1999 -0.3488  0.0998
20874SOL     OW74346   5.584   2.264   9.825 -0.5977  0.0567  0.3311
20874SOL    HW174347   5.566   2.262   9.919  1.1627 -0.9314  0.6919
20874SOL    HW274348   5.664   2.317   9.817 -0.1629 -0.6818 -0.4755
20875SOL     OW74349  11.300   4.382   9.277  0.2533 -0.0659  0.2119
20875SOL    HW174350  11.382   4.381   9.326 -0.0054  0.7004  0.6603
20875SOL    HW274351  11.301   4.299   9.228  0.8305 -0.5212  0.9705
20876SOL     OW74352  12.219   5.745   7.472 -0.0793  0.2017 -0.0151
20876SOL    HW174353  12.315   5.748   7.470 -0.0516  1.4407 -3.3782
20876SOL    HW274354  12.198   5.659   7.434 -0.3037  0.1645  0.1954
20877SOL     OW74355   7.936   3.184   9.314  0.2559 -0.3293  0.5565
20877SOL    HW174356   7.990   3.225   9.246  0.6412 -0.8197  0.5600
20877SOL    HW274357   7.886   3.117   9.268  0.5001 -0.6461  0.7455
20878SOL     OW74358   6.004  12.636   9.040 -0.0918  0.1948  0.0534
20878SOL    HW174359   5.955  12.563   9.078  0.1859 -0.7613 -1.3589
20878SOL    HW274360   5.966  12.647   8.953  1.8024 -0.1951 -0.8602
20879SOL     OW74361   1.830  11.043   6.301 -0.7388  0.3291 -0.3807
20879SOL    HW174362   1.918  11.025   6.269 -1.2698 -1.8620 -0.7581
20879SOL    HW274363   1.838  11.043   6.396 -0.4947 -1.0446 -0.3787
20880SOL     OW74364  13.613   5.610  11.724 -0.2806 -0.6043  0.3282
20880SOL    HW174365  13.636   5.656  11.643  0.4559 -1.3784  0.0837
20880SOL    HW274366  13.697   5.588  11.763 -0.6210 -1.5432  0.5523
20881SOL     OW74367   1.626   1.276  11.678 -0.1304 -0.3864 -0.3278
20881SOL    HW174368   1.537   1.255  11.649 -0.3408  2.0677 -1.7639
20881SOL    HW274369   1.614   1.336  11.752  0.3028  0.3220 -0.8201
20882SOL     OW74370   8.936  12.981   6.592  0.4727 -0.1952  0.1332
20882SOL    HW174371   8.866  12.986   6.658  0.3785  1.0894 -0.0327
20882SOL    HW274372   8.968  12.891   6.597 -0.7052 -0.5993  0.7236
20883SOL     OW74373   9.889   6.694   1.476  0.1496  0.0501  0.1642
20883SOL    HW174374   9.877   6.787   1.498  1.6921  0.1774  0.6045
20883SOL    HW274375   9.875   6.690   1.381  0.0618  0.7349  0.1383
20884SOL     OW74376   2.915   0.609   3.151 -0.6690  0.3715  0.6743
20884SOL    HW174377   2.902   0.540   3.085  0.3804  1.2181 -0.4633
20884SOL    HW274378   3.009   0.613   3.163 -0.5882  2.4048 -0.2065
20885SOL     OW74379   9.813   8.851   5.768 -0.5995 -0.2412  0.5481
20885SOL    HW174380   9.831   8.781   5.830  1.8346  0.5102  0.8053
20885SOL    HW274381   9.753   8.812   5.704  2.0760 -3.2391 -0.3986
20886SOL     OW74382   2.832   9.243   1.788  0.1944 -1.1479 -0.1165
20886SOL    HW174383   2.760   9.277   1.735  0.1357 -0.5908  0.3044
20886SOL    HW274384   2.811   9.272   1.877  1.1867 -0.5518 -0.0623
20887SOL     OW74385   7.025   4.684  10.497  0.3474  0.3309  0.0603
20887SOL    HW174386   7.028   4.749  10.567  1.4296 -1.1177  1.4524
20887SOL    HW274387   7.027   4.600  10.543 -1.9504 -0.7481 -1.6231
20888SOL     OW74388   0.310  10.660   9.131 -0.5148 -0.0211  0.1546
20888SOL    HW174389   0.344  10.579   9.168  0.3751  0.0968 -0.3810
20888SOL    HW274390   0.323  10.725   9.200  2.1090  0.4296 -0.6449
20889SOL     OW74391   7.609   9.977   4.134  0.1256 -0.9372 -0.3827
20889SOL    HW174392   7.620  10.056   4.081 -1.2354  0.6023  1.4805
20889SOL    HW274393   7.607   9.906   4.071 -2.5689  0.8750 -2.6004
20890SOL     OW74394   1.907   1.524   6.371  0.3574 -0.1115 -0.4213
20890SOL    HW174395   1.837   1.555   6.315 -0.6992  2.9279  2.2741
20890SOL    HW274396   1.984   1.574   6.345  0.6721 -0.9244 -1.0975
20891SOL     OW74397  10.706  13.349   5.706  0.2230 -0.9412 -0.4789
20891SOL    HW174398  10.623  13.340   5.752 -0.4035 -0.6950 -1.5313
20891SOL    HW274399  10.754  13.269   5.725  0.3057 -0.5279  1.2072
20892SOL     OW74400   9.213   1.726  11.567  0.3975 -0.3564  0.1472
20892SOL    HW174401   9.191   1.640  11.603 -0.3459  0.2257  1.1179
20892SOL    HW274402   9.143   1.744  11.504  0.4827 -0.4001  0.0387
20893SOL     OW74403   3.096   8.786  12.476 -0.1543  0.2155  0.0862
20893SOL    HW174404   3.084   8.787  12.381 -1.0248 -0.4502  0.1679
20893SOL    HW274405   3.177   8.834  12.491 -1.0755  2.1366 -0.8260
20894SOL     OW74406   2.409  12.340  13.627 -0.1232 -0.4979  0.3417
20894SOL    HW174407   2.482  12.401  13.616  2.0278 -2.7777  1.0253
20894SOL    HW274408   2.392  12.340  13.722  0.6858 -1.7556  0.5076
20895SOL     OW74409   6.361   7.480  10.940  0.2115 -0.4251 -0.3813
20895SOL    HW174410   6.434   7.434  10.898 -0.1791 -0.3341 -1.1677
20895SOL    HW274411   6.324   7.415  11.000  0.6135 -0.6359 -0.3534
20896SOL     OW74412   5.447   2.960   1.878  0.1348  0.0331 -0.1914
20896SOL    HW174413   5.354   2.959   1.900 -0.1543  0.5446 -1.3143
20896SOL    HW274414   5.467   3.053   1.863  0.9753 -0.0033  0.6035
20897SOL     OW74415   1.459   2.848   1.491 -0.3765 -0.3222  0.4430
20897SOL    HW174416   1.381   2.888   1.529 -0.3584 -1.6306  1.9513
20897SOL    HW274417   1.519   2.836   1.565  1.0821  0.1956 -0.5924
20898SOL     OW74418  12.731   4.266  12.750  0.2719 -0.2322  0.4678
20898SOL    HW174419  12.776   4.207  12.689  1.5408 -0.0999  1.2357
20898SOL    HW274420  12.649   4.222  12.771  1.7131 -2.3842  1.9947
20899SOL     OW74421   7.734  12.244   4.155 -0.4728  0.8208  0.2072
20899SOL    HW174422   7.732  12.230   4.249 -1.8645  0.3514  0.1322
20899SOL    HW274423   7.802  12.185   4.123  1.0822  2.0704  1.0420
20900SOL     OW74424   1.009   9.101   4.057  0.0383  0.4186 -0.2872
20900SOL    HW174425   1.033   9.123   4.147 -0.8499  1.6505 -0.3354
20900SOL    HW274426   0.930   9.152   4.040  0.8809  1.1931 -2.1756
20901SOL     OW74427   0.535   2.605  11.470  0.1443 -0.0020 -0.0403
20901SOL    HW174428   0.462   2.656  11.435  0.9751  1.8621  0.7968
20901SOL    HW274429   0.543   2.634  11.561  2.3791  0.4279 -0.3174
20902SOL     OW74430  11.492  12.769   4.047 -0.1609  0.5667  0.0917
20902SOL    HW174431  11.557  12.701   4.068  0.9780  1.3481 -0.7700
20902SOL    HW274432  11.490  12.825   4.124  0.3745  0.6592  0.0470
20903SOL     OW74433  12.415   8.598  11.047 -0.3634  0.5354 -0.8589
20903SOL    HW174434  12.484   8.663  11.064  0.5233 -0.2549 -1.3661
20903SOL    HW274435  12.419   8.584  10.952 -0.2430 -0.5891 -0.6939
20904SOL     OW74436  11.895  12.620  11.682 -0.0389 -0.2477  0.0563
20904SOL    HW174437  11.873  12.622  11.588  0.5757 -0.6250 -0.0996
20904SOL    HW274438  11.886  12.528  11.707  1.7746 -0.5213 -0.1293
20905SOL     OW74439   7.799   0.532   3.846  0.4022 -0.1102  0.2097
20905SOL    HW174440   7.786   0.489   3.931 -0.4700 -1.3495 -0.5131
20905SOL    HW274441   7.717   0.579   3.832 -0.1583 -1.3026 -0.6902
20906SOL     OW74442  13.153   9.840  13.581 -0.5879  0.1874  0.1208
20906SOL    HW174443  13.153   9.900  13.507  2.0660 -0.6861 -0.7101
20906SOL    HW274444  13.062   9.811  13.589 -0.8563 -0.3129 -3.3564
20907SOL     OW74445   3.574   3.545  10.997  0.0012 -0.4601  0.2704
20907SOL    HW174446   3.563   3.640  10.986  1.2880 -0.2498  0.6166
20907SOL    HW274447   3.613   3.516  10.915  2.4567 -0.1553  1.2583
20908SOL     OW74448   9.296   8.385   1.916  0.5500 -0.2706 -0.0319
20908SOL    HW174449   9.282   8.409   1.825 -1.1368 -2.0621 -0.3039
20908SOL    HW274450   9.367   8.321   1.914  1.5854  0.8352  0.1300
20909SOL     OW74451  12.130   7.571   8.253 -0.1071  0.2580 -0.5399
20909SOL    HW174452  12.118   7.642   8.190  1.9575 -0.5007 -1.8682
20909SOL    HW274453  12.210   7.527   8.226  0.5379 -0.5152  2.2585
20910SOL     OW74454   5.276   0.642   4.627  0.5462  0.5399 -0.1782
20910SOL    HW174455   5.244   0.712   4.569 -0.6455  0.9449  0.9252
20910SOL    HW274456   5.255   0.672   4.715  1.5882 -0.4396  0.4311
20911SOL     OW74457   0.093  12.522  13.235  0.0935  0.7959 -0.8343
20911SOL    HW174458   0.098  12.450  13.298  0.0949  0.7563 -0.8792
20911SOL    HW274459   0.143  12.492  13.160  0.1679  0.8784 -0.8192
20912SOL     OW74460   0.250   7.764   1.218 -0.1605 -0.7382 -0.6803
20912SOL    HW174461   0.159   7.736   1.230 -1.1568  2.4335  0.2763
20912SOL    HW274462   0.255   7.788   1.125 -0.4589 -0.4847 -0.6335
20913SOL     OW74463   0.591   9.919   1.886  0.7837  0.7240 -0.5056
20913SOL    HW174464   0.524   9.916   1.819  1.0465  0.1759 -0.7479
20913SOL    HW274465   0.581   9.836   1.934  1.2135  0.6825 -0.4816
20914SOL     OW74466   5.635   0.847   0.043  0.6018 -0.3001  0.2309
20914SOL    HW174467   5.577   0.790  -0.008  1.5404 -0.9562 -0.1430
20914SOL    HW274468   5.719   0.843  -0.004  0.8964  0.7852  0.6454
20915SOL     OW74469  12.048   9.854   9.750  0.3981 -0.1595  0.2524
20915SOL    HW174470  12.143   9.855   9.736  0.3844  0.1086  0.1791
20915SOL    HW274471  12.016   9.785   9.691  0.5442 -0.2407  0.2679
20916SOL     OW74472  10.772  10.245   5.065  0.7485 -0.2234 -0.2806
20916SOL    HW174473  10.794  10.243   4.972  0.3856 -1.0518 -0.3605
20916SOL    HW274474  10.857  10.239   5.109  0.8475 -1.3351 -0.5780
20917SOL     OW74475  12.910   3.902  11.181 -0.6290  0.9004 -0.6612
20917SOL    HW174476  12.968   3.828  11.202 -1.7587 -0.1831 -1.2088
20917SOL    HW274477  12.922   3.915  11.087 -0.4069  1.4534 -0.5599
20918SOL     OW74478  10.235  11.578  10.229  0.2743  0.0215  0.3720
20918SOL    HW174479  10.274  11.532  10.304  0.3177  2.2040  1.7650
20918SOL    HW274480  10.300  11.569  10.160  1.2634 -0.1442  1.2929
20919SOL     OW74481   8.688  11.210   3.607 -0.9047 -0.1613 -0.3730
20919SOL    HW174482   8.615  11.251   3.560 -0.0306  0.9126 -0.8106
20919SOL    HW274483   8.648  11.134   3.650 -2.3133  0.4918 -0.4769
20920SOL     OW74484   0.520   8.396  10.464 -0.0712 -0.2808 -0.0142
20920SOL    HW174485   0.487   8.445  10.540  1.2709  1.1861 -0.3397
20920SOL    HW274486   0.515   8.458  10.391 -0.3204 -1.3305 -0.9251
20921SOL     OW74487   2.503   9.326   4.991 -0.8300 -0.1036 -0.1440
20921SOL    HW174488   2.488   9.419   5.007 -1.0833 -0.3125  0.8729
20921SOL    HW274489   2.586   9.307   5.034 -2.1340 -0.9480  2.1765
20922SOL     OW74490   4.743   3.266  10.629  0.0586 -0.7857  0.1699
20922SOL    HW174491   4.708   3.177  10.639 -0.5150 -0.4475  1.5583
20922SOL    HW274492   4.826   3.255  10.584  1.1797 -2.3212  2.4134
20923SOL     OW74493   0.002   2.943   1.725 -0.1993 -0.0930  0.2342
20923SOL    HW174494   0.055   2.939   1.646 -0.3242  1.6529  0.0169
20923SOL    HW274495  -0.088   2.925   1.695 -0.1473 -0.1513  0.1149
20924SOL     OW74496   5.186   3.495   9.512  0.1450 -0.0507 -0.4261
20924SOL    HW174497   5.270   3.455   9.492 -0.2914 -1.6894  0.8345
20924SOL    HW274498   5.125   3.457   9.449  0.2024  0.5978 -0.8819
20925SOL     OW74499   8.733   9.684   1.633  0.2646  0.0858  0.5103
20925SOL    HW174500   8.726   9.761   1.576 -0.4897  1.4997  2.4133
20925SOL    HW274501   8.816   9.696   1.679  0.0437 -0.1013  0.9703
20926SOL     OW74502  11.346   6.701   9.541  0.1954 -0.2661 -0.2794
20926SOL    HW174503  11.333   6.795   9.558  0.8885 -0.0471 -0.8874
20926SOL    HW274504  11.301   6.686   9.458  0.8617 -0.2660 -0.6441
20927SOL     OW74505  13.079   2.986   5.876  0.2419  0.2215 -0.2486
20927SOL    HW174506  13.018   2.926   5.832  1.0303 -0.3389 -0.6132
20927SOL    HW274507  13.120   3.035   5.805  0.8212 -0.0027 -0.0776
20928SOL     OW74508   4.357   1.507   7.824  0.3403  0.5621 -0.3730
20928SOL    HW174509   4.281   1.468   7.780  0.5085 -0.8676  0.5626
20928SOL    HW274510   4.375   1.587   7.773 -1.2475  0.4845 -1.1237
20929SOL     OW74511  13.088   9.087  12.525  0.1959  0.3384  0.0490
20929SOL    HW174512  13.102   9.074  12.432 -0.4122 -1.0719  0.1321
20929SOL    HW274513  13.063   9.000  12.558 -3.0878  1.4391  0.8907
20930SOL     OW74514  11.692   8.779  12.046 -0.9690 -0.5094 -0.0075
20930SOL    HW174515  11.626   8.778  11.977 -0.7243 -0.0250 -0.2511
20930SOL    HW274516  11.716   8.871  12.055  1.2443 -0.8613 -1.4651
20931SOL     OW74517   1.164   0.953   9.231 -0.5104  0.1049  0.4794
20931SOL    HW174518   1.215   0.919   9.305 -0.2834 -0.2521  0.1679
20931SOL    HW274519   1.225   1.012   9.186  0.1090 -1.3287 -0.6510
20932SOL     OW74520   7.326   4.487   7.113 -0.0409  0.0009 -0.5179
20932SOL    HW174521   7.280   4.550   7.170  1.1049  2.5069 -2.1723
20932SOL    HW274522   7.259   4.458   7.051  0.0560  2.3090 -1.8470
20933SOL     OW74523   3.877   2.336   5.805  0.2169 -0.3826  0.3959
20933SOL    HW174524   3.957   2.304   5.847 -0.3937 -2.5956 -0.0238
20933SOL    HW274525   3.853   2.267   5.743 -0.5157  1.4619 -1.5206
20934SOL     OW74526   9.738   7.489  12.332 -0.1186  0.0596 -0.3266
20934SOL    HW174527   9.809   7.530  12.283  0.3658 -0.7961 -0.3636
20934SOL    HW274528   9.660   7.539  12.309  0.6709  1.8154  0.6902
20935SOL     OW74529   9.715   5.371   6.435  0.4156 -0.0219 -1.2487
20935SOL    HW174530   9.636   5.426   6.426 -0.9219 -1.6734 -0.2068
20935SOL    HW274531   9.747   5.361   6.346 -0.2439  1.0977 -1.6379
20936SOL     OW74532   0.067  10.653   3.751  0.0138  0.6771 -0.0716
20936SOL    HW174533  -0.021  10.641   3.786 -0.0827  1.2556 -0.1119
20936SOL    HW274534   0.073  10.746   3.732  0.0345  0.3836 -1.6788
20937SOL     OW74535   0.234   9.339   6.256 -0.2745 -0.7384  0.2504
20937SOL    HW174536   0.174   9.413   6.266  0.5831 -0.0581  0.6056
20937SOL    HW274537   0.319   9.380   6.239  0.0771 -1.6752 -0.2973
20938SOL     OW74538   8.219  13.584   0.405 -0.5415  0.2587  0.4087
20938SOL    HW174539   8.153  13.518   0.385  0.7195 -1.7702  2.4044
20938SOL    HW274540   8.244  13.620   0.320 -2.2099 -0.9170 -0.6285
20939SOL     OW74541  11.659   8.747   6.394  0.1356 -0.4302 -0.1639
20939SOL    HW174542  11.751   8.735   6.370 -0.1446 -1.6987 -0.6673
20939SOL    HW274543  11.618   8.782   6.315  0.5438  2.1511  0.6754
20940SOL     OW74544   3.086   3.735   5.222 -0.0847 -0.6319 -0.2258
20940SOL    HW174545   3.008   3.779   5.189 -0.9311 -0.9090  1.2893
20940SOL    HW274546   3.072   3.732   5.317  2.3163  0.3752  0.2267
20941SOL     OW74547   3.888   2.588   5.887  0.1538 -0.0196  0.2238
20941SOL    HW174548   3.881   2.499   5.853  0.3235  0.5230 -1.3648
20941SOL    HW274549   3.937   2.580   5.969  2.0760 -1.1875 -0.9592
20942SOL     OW74550   8.314  10.487   0.439 -0.0353 -0.6720  0.1213
20942SOL    HW174551   8.392  10.435   0.421  0.5923  0.1945  0.2857
20942SOL    HW274552   8.243  10.438   0.398  0.3894 -2.1298  1.0603
20943SOL     OW74553   9.259  11.651   3.558 -0.1541  0.3383 -0.1101
20943SOL    HW174554   9.272  11.587   3.488  0.2167  1.3191 -0.9640
20943SOL    HW274555   9.345  11.661   3.598 -0.7812 -1.8811  2.0280
20944SOL     OW74556   3.436   0.712   6.447  0.2859 -0.0115 -0.0827
20944SOL    HW174557   3.405   0.666   6.369 -0.8644  0.7101 -0.0654
20944SOL    HW274558   3.394   0.798   6.442 -1.5933 -0.6840  2.4413
20945SOL     OW74559   1.242   9.558   2.893  0.0721 -0.4915 -0.3350
20945SOL    HW174560   1.238   9.493   2.822  0.1334  0.0669 -0.8538
20945SOL    HW274561   1.328   9.546   2.932 -0.0218 -0.9083 -0.2460
20946SOL     OW74562  12.380   3.451   4.836 -0.0878 -0.3507  0.1298
20946SOL    HW174563  12.344   3.371   4.875  0.1648 -0.8081 -0.5550
20946SOL    HW274564  12.314   3.477   4.772 -0.3415  0.2082  0.6016
20947SOL     OW74565  11.074   0.441  10.104  0.5672 -0.1244 -0.4339
20947SOL    HW174566  11.092   0.457  10.197 -2.4847 -1.6245  0.5514
20947SOL    HW274567  11.037   0.523  10.073  0.6321  0.0532 -0.0567
20948SOL     OW74568   9.052  10.181   5.806  0.0430  0.1273  0.0608
20948SOL    HW174569   9.056  10.096   5.761 -1.9628 -0.7575  1.4392
20948SOL    HW274570   9.144  10.209   5.810  0.5063 -0.5822 -2.8968
20949SOL     OW74571   5.712  12.361   4.243 -0.6609 -0.7936 -0.5045
20949SOL    HW174572   5.803  12.390   4.247 -0.6664 -0.8391  0.1005
20949SOL    HW274573   5.709  12.284   4.299 -1.1154 -0.6663 -0.3497
20950SOL     OW74574  10.177   4.117   9.772  0.4496  0.7017  0.0970
20950SOL    HW174575  10.263   4.079   9.788  0.5122  0.1864 -1.2571
20950SOL    HW274576  10.144   4.069   9.695 -0.3302  2.0203 -0.4293
20951SOL     OW74577   9.591   0.539   0.082  0.1322  0.7593 -0.0332
20951SOL    HW174578   9.537   0.522   0.159 -0.5554 -0.6485 -0.7849
20951SOL    HW274579   9.656   0.602   0.112 -1.7095  2.2975  1.0011
20952SOL     OW74580   0.268   8.762   2.503 -0.0542 -0.3300  0.3632
20952SOL    HW174581   0.181   8.782   2.467  0.5199  0.0789 -0.8656
20952SOL    HW274582   0.277   8.821   2.578 -0.4116  0.4403 -0.1761
20953SOL     OW74583   0.588   0.064   8.596  0.2147 -0.4955 -0.1448
20953SOL    HW174584   0.518   0.130   8.595 -1.3572 -2.0593  0.3496
20953SOL    HW274585   0.661   0.107   8.639  0.8061  2.3126 -3.5263
20954SOL     OW74586  12.260   9.129  11.609 -0.1448  0.1441  0.4013
20954SOL    HW174587  12.296   9.052  11.653  1.3636 -0.6760 -2.0857
20954SOL    HW274588  12.307   9.203  11.647 -0.7092 -0.2482  1.9207
20955SOL     OW74589   7.985   2.616  13.649 -0.4314 -0.0254  0.0717
20955SOL    HW174590   7.928   2.690  13.670 -0.8210 -0.1737 -0.4365
20955SOL    HW274591   8.056   2.654  13.598 -0.8195 -0.0490 -0.4956
20956SOL     OW74592   9.802   6.964   4.775 -0.5405  0.0772 -0.5223
20956SOL    HW174593   9.707   6.971   4.762 -0.6894  0.2661  0.5254
20956SOL    HW274594   9.830   6.895   4.715 -1.3550 -0.0238 -0.7964
20957SOL     OW74595  12.066   5.009   4.278 -0.1643  0.2221 -0.2834
20957SOL    HW174596  12.141   4.952   4.261 -0.5904 -0.0144 -1.4953
20957SOL    HW274597  12.104   5.097   4.282  0.3899 -0.0519  0.8108
20958SOL     OW74598  11.443  12.541   1.596 -0.3793 -0.4095 -0.3542
20958SOL    HW174599  11.428  12.448   1.581 -1.1307 -0.1341 -1.4086
20958SOL    HW274600  11.506  12.544   1.668 -0.6810 -1.7203 -0.0118
20959SOL     OW74601  13.453   2.078   2.497  0.4817 -0.1976  0.1474
20959SOL    HW174602  13.437   2.067   2.591  2.0689  0.5448  0.5365
20959SOL    HW274603  13.466   1.989   2.464 -2.2007 -0.6863  0.1566
20960SOL     OW74604   8.366   2.914  12.742  0.0571 -0.7342 -0.1701
20960SOL    HW174605   8.448   2.866  12.732  1.3594  1.3405 -0.0313
20960SOL    HW274606   8.324   2.909  12.656  1.6703  0.4303 -1.0725
20961SOL     OW74607   5.981  11.753   8.700 -0.2031  0.1426 -0.4231
20961SOL    HW174608   5.941  11.837   8.677 -0.0674  0.1769 -0.5331
20961SOL    HW274609   6.061  11.750   8.649 -0.4469 -0.2664 -0.7826
20962SOL     OW74610  11.756  10.046   0.899 -0.1212  0.0632  0.3968
20962SOL    HW174611  11.828  10.107   0.913  0.4243 -0.3112 -0.7348
20962SOL    HW274612  11.707  10.048   0.982 -0.4692  2.4795  0.2206
20963SOL     OW74613  12.130   4.462   2.081 -0.3200 -0.9894  0.0138
20963SOL    HW174614  12.201   4.405   2.050 -0.5661 -0.5535 -1.4174
20963SOL    HW274615  12.064   4.401   2.114  0.6033 -1.4076  1.1597
20964SOL     OW74616   9.820  12.783  11.902 -0.1936  0.4427  0.1365
20964SOL    HW174617   9.886  12.841  11.939 -0.3807  0.8170 -0.1151
20964SOL    HW274618   9.762  12.763  11.977 -0.7038  1.3834  0.0161
20965SOL     OW74619  10.524  12.007   5.963  0.2301  0.4130 -0.1080
20965SOL    HW174620  10.518  11.993   6.058  1.7068  0.3891 -0.0048
20965SOL    HW274621  10.612  12.043   5.950  0.3716 -0.4302 -1.5763
20966SOL     OW74622   1.769   6.165   3.965 -0.1336 -0.2227 -0.2672
20966SOL    HW174623   1.767   6.159   3.869 -1.5888  0.4686 -0.3109
20966SOL    HW274624   1.699   6.226   3.986  1.4980  1.2649  1.1453
20967SOL     OW74625   0.857   6.179  10.327  0.0737  0.0071  0.1356
20967SOL    HW174626   0.893   6.267  10.334  0.9647 -0.3277 -0.0890
20967SOL    HW274627   0.921   6.124  10.373 -1.2127 -0.3384  1.5682
20968SOL     OW74628   8.395  10.025   3.389  0.8316  0.1054 -0.8477
20968SOL    HW174629   8.400  10.019   3.294 -0.7156 -1.7666 -0.8848
20968SOL    HW274630   8.320  10.082   3.406  0.6254 -0.1815 -0.7784
20969SOL     OW74631   0.160   1.413  13.551  0.0805 -0.5089 -0.0905
20969SOL    HW174632   0.137   1.321  13.567 -0.8557  0.0186  1.7774
20969SOL    HW274633   0.234   1.430  13.609 -1.7814  0.7444  2.0928
20970SOL     OW74634   5.314   0.955   5.527  0.2085 -0.8943 -0.6967
20970SOL    HW174635   5.251   0.883   5.531 -0.4732 -0.3479 -1.3939
20970SOL    HW274636   5.261   1.032   5.509  1.0327 -0.3440 -0.8091
20971SOL     OW74637   1.247   8.318   4.615 -0.7188 -0.5781 -0.0543
20971SOL    HW174638   1.333   8.282   4.635  0.6240  3.6097  3.5950
20971SOL    HW274639   1.240   8.315   4.520  2.9957 -2.0520 -0.4232
20972SOL     OW74640   6.090   1.016   5.235  0.3725 -0.2188 -0.3033
20972SOL    HW174641   6.112   1.011   5.328  1.9718 -0.1315 -0.6452
20972SOL    HW274642   6.093   1.110   5.215 -1.7197 -0.0527 -0.0961
20973SOL     OW74643   5.957   8.878   9.290  0.3430  0.3635  0.3912
20973SOL    HW174644   5.945   8.823   9.213 -1.3019  1.7390 -0.4068
20973SOL    HW274645   5.871   8.914   9.307  1.1788  2.0238  1.3756
20974SOL     OW74646   3.228  12.013  12.909 -0.3368 -0.2715 -0.0355
20974SOL    HW174647   3.140  12.045  12.931 -0.0700  0.6528 -0.2752
20974SOL    HW274648   3.220  11.918  12.911 -0.6879 -0.2510  2.5915
20975SOL     OW74649   9.246  10.775  12.412 -0.2186  0.0843  0.1088
20975SOL    HW174650   9.164  10.747  12.451 -1.1871  0.9999 -1.1888
20975SOL    HW274651   9.268  10.856  12.459 -1.1157  0.9060 -0.8288
20976SOL     OW74652   3.462  12.043   5.952 -0.0446 -0.0543  0.9234
20976SOL    HW174653   3.410  11.973   5.992  1.6187 -2.1079 -0.2994
20976SOL    HW274654   3.552  12.025   5.980  0.5179  1.1784 -0.0147
20977SOL     OW74655   5.692   8.610   6.838  0.2963 -0.2631  0.0909
20977SOL    HW174656   5.729   8.539   6.890  1.7878  0.8105  0.5499
20977SOL    HW274657   5.602   8.619   6.870  0.6068 -0.8693  1.1704
20978SOL     OW74658  13.627   4.184   7.149 -0.0636 -0.3506  0.2510
20978SOL    HW174659  13.585   4.190   7.063 -0.5716  0.3640  0.5467
20978SOL    HW274660  13.697   4.250   7.145  0.7254 -1.1799 -0.0537
20979SOL     OW74661  10.680   7.896   7.843  0.3000  0.3403 -0.7253
20979SOL    HW174662  10.670   7.920   7.751  0.3186  0.1137 -0.7870
20979SOL    HW274663  10.704   7.803   7.841 -1.1766 -0.0660 -0.4329
20980SOL     OW74664   3.456   5.973   3.908  0.5877 -0.4908  0.1563
20980SOL    HW174665   3.507   6.046   3.873  0.5163 -0.2290  0.5936
20980SOL    HW274666   3.522   5.911   3.940  0.7539 -1.8265 -2.5224
20981SOL     OW74667  10.778   9.222   1.500  0.1030 -0.0828  0.0496
20981SOL    HW174668  10.689   9.258   1.505  0.6435  1.6208 -1.4074
20981SOL    HW274669  10.830   9.279   1.557  0.8105  0.9643 -1.5866
20982SOL     OW74670   4.404  11.119   2.300  0.4882 -0.4914 -0.6544
20982SOL    HW174671   4.420  11.026   2.315 -0.5122 -0.9494 -2.1860
20982SOL    HW274672   4.486  11.161   2.326  0.3291 -1.5401  1.8811
20983SOL     OW74673   0.551  10.069  13.462 -0.0715  0.0219  0.2658
20983SOL    HW174674   0.484  10.135  13.445 -0.2121 -0.7394 -2.7351
20983SOL    HW274675   0.502   9.989  13.480  0.0501  0.0632  0.7705
20984SOL     OW74676   2.540  11.142   4.403 -0.1872 -0.1421  0.5977
20984SOL    HW174677   2.635  11.134   4.395 -0.2481 -0.0025 -0.4377
20984SOL    HW274678   2.522  11.235   4.389 -0.3460  0.1670  2.5698
20985SOL     OW74679  10.688   2.610   5.813  0.0724 -0.2972  0.5485
20985SOL    HW174680  10.694   2.535   5.754 -0.7004  0.8127 -1.0205
20985SOL    HW274681  10.743   2.677   5.771 -1.8595  1.0965  0.1202
20986SOL     OW74682  12.648   0.061   9.204 -0.4641  0.3781  0.1037
20986SOL    HW174683  12.710   0.014   9.148  0.4406  0.7924  0.7395
20986SOL    HW274684  12.702   0.097   9.274 -1.6409 -0.6197  1.5873
20987SOL     OW74685   4.129   9.971   8.408 -0.3811 -0.2763  0.2736
20987SOL    HW174686   4.118  10.066   8.419 -0.0244 -0.0398 -1.2462
20987SOL    HW274687   4.209   9.951   8.458  0.3735  0.4918 -0.5764
20988SOL     OW74688  10.088  10.600   0.995  0.7347  0.6100  0.2529
20988SOL    HW174689  10.104  10.656   0.920 -0.9565  1.3918  0.4173
20988SOL    HW274690  10.117  10.652   1.070 -0.1868  1.0058  0.3480
20989SOL     OW74691  11.515   6.824   3.726  0.1412 -0.3190 -0.3680
20989SOL    HW174692  11.568   6.749   3.750 -0.6282 -0.8755 -0.3608
20989SOL    HW274693  11.475   6.799   3.643 -0.7176 -0.2385  0.0136
20990SOL     OW74694  10.222   0.009   7.692  0.4473 -0.0798  0.1154
20990SOL    HW174695  10.130  -0.012   7.673  0.8266 -0.3561 -1.5176
20990SOL    HW274696  10.265  -0.076   7.698  0.5607  0.0416  1.1727
20991SOL     OW74697   4.220   3.372   4.157 -0.4512 -0.2697 -0.3907
20991SOL    HW174698   4.231   3.455   4.111 -1.5118  0.2584  0.2645
20991SOL    HW274699   4.291   3.370   4.220 -1.2230  0.8516  0.5723
20992SOL     OW74700  13.458   2.955   0.283 -0.3352 -0.3638 -0.1178
20992SOL    HW174701  13.415   2.994   0.206  0.5289  0.4333 -0.2146
20992SOL    HW274702  13.450   2.861   0.269  2.0685 -0.3454 -2.5704
20993SOL     OW74703   9.572   9.889   1.256  0.4580  0.1966  0.0845
20993SOL    HW174704   9.495   9.845   1.221  0.8611 -0.1191 -0.4177
20993SOL    HW274705   9.549   9.982   1.256  1.0563  0.4166 -2.6806
20994SOL     OW74706  12.046   6.945   9.218  0.4603  0.0822  0.2091
20994SOL    HW174707  11.967   6.986   9.254  1.2690  0.4158  1.6642
20994SOL    HW274708  12.019   6.856   9.197 -0.6628  0.5853 -0.6375
20995SOL     OW74709  13.309   4.321   8.879 -0.2061 -0.0612  0.1408
20995SOL    HW174710  13.401   4.337   8.858  0.4114 -0.9933  1.8966
20995SOL    HW274711  13.262   4.392   8.837  1.4122  0.9262 -0.0902
20996SOL     OW74712   1.819   1.562   4.540  0.3927 -0.4608  0.2312
20996SOL    HW174713   1.754   1.630   4.522  0.9435  0.0338  0.0700
20996SOL    HW274714   1.902   1.601   4.512  0.7008 -1.2397  0.0560
20997SOL     OW74715   5.306   0.947   2.118 -0.0212 -0.1070 -0.4924
20997SOL    HW174716   5.355   0.893   2.180  0.1189 -0.8627 -1.2391
20997SOL    HW274717   5.355   1.029   2.114  0.4414 -0.3642 -0.2311
20998SOL     OW74718  10.560   5.225   6.763 -0.0967  0.0723 -0.0924
20998SOL    HW174719  10.564   5.292   6.832 -2.1686  1.1037 -0.8954
20998SOL    HW274720  10.557   5.142   6.811 -0.8932  0.7287  1.0421
20999SOL     OW74721   0.114   4.387   1.769  0.0026  0.4531  0.3043
20999SOL    HW174722   0.139   4.387   1.677  1.5077  0.8474  0.6924
20999SOL    HW274723   0.128   4.477   1.798 -0.8523  0.4310  0.8316
21000SOL     OW74724   6.583  12.613   2.635  0.6549  0.5008 -0.1049
21000SOL    HW174725   6.544  12.579   2.555  0.2301 -1.0972  0.7345
21000SOL    HW274726   6.668  12.569   2.640  0.2743 -0.1791  0.7801
21001SOL     OW74727   3.814  12.893   2.626 -0.3574  0.2140  0.0376
21001SOL    HW174728   3.824  12.981   2.661  1.1342 -0.0374  0.3224
21001SOL    HW274729   3.819  12.836   2.703 -2.6303 -0.0858  0.0163
21002SOL     OW74730  11.068  10.793   7.999  0.2289  0.0920  0.3836
21002SOL    HW174731  11.010  10.748   8.061  0.1820 -0.5749 -0.1247
21002SOL    HW274732  11.060  10.742   7.918  0.3999  0.8631 -0.1300
21003SOL     OW74733   3.337   2.015   5.263  0.2171 -0.4430 -0.2426
21003SOL    HW174734   3.266   2.066   5.304 -0.8655 -1.2646 -1.0219
21003SOL    HW274735   3.315   1.924   5.283  0.5650 -0.7544 -1.2494
21004SOL     OW74736   0.849   6.375  10.894 -0.2706  0.8135  0.1926
21004SOL    HW174737   0.870   6.285  10.920  0.0142  0.8149 -0.0327
21004SOL    HW274738   0.925   6.426  10.922 -1.5778  1.4764  2.8998
21005SOL     OW74739   2.009  11.345   7.609  0.0305 -0.0236  0.5315
21005SOL    HW174740   2.014  11.308   7.521  1.0468 -0.0825  0.6018
21005SOL    HW274741   2.045  11.277   7.666  0.2966  0.3892  0.8674
21006SOL     OW74742   2.897   5.734  12.947 -0.3886  0.4208  0.1278
21006SOL    HW174743   2.888   5.706  12.856  0.2891 -1.9180  0.7011
21006SOL    HW274744   2.813   5.774  12.969 -1.7037 -1.7035 -0.6927
21007SOL     OW74745   1.170   4.221   3.235  0.5152 -0.5374 -0.0304
21007SOL    HW174746   1.244   4.176   3.276  0.2476 -2.8513 -1.8500
21007SOL    HW274747   1.142   4.161   3.166 -1.1076  1.6745 -1.4009
21008SOL     OW74748  13.383  11.709   2.958 -0.3945  0.6144  0.7304
21008SOL    HW174749  13.411  11.737   2.871  2.0624 -0.7979  0.9952
21008SOL    HW274750  13.298  11.667   2.944  0.4233 -0.4845 -1.1615
21009SOL     OW74751  10.561  13.726   9.258 -0.1881 -0.1655 -0.4568
21009SOL    HW174752  10.520  13.774   9.330 -1.2234  0.2468 -1.3063
21009SOL    HW274753  10.509  13.747   9.181  0.6995 -0.8679 -1.2840
21010SOL     OW74754   8.599  10.635   7.117  0.2972 -0.5385  0.0830
21010SOL    HW174755   8.570  10.640   7.208 -0.0821 -0.4513 -0.0410
21010SOL    HW274756   8.571  10.718   7.079  0.1716 -0.7094 -0.1977
21011SOL     OW74757   5.326   3.544  13.116  0.2606  0.3277  0.0527
21011SOL    HW174758   5.274   3.510  13.189  0.5595  0.2939  0.2529
21011SOL    HW274759   5.407   3.494  13.119  0.5187  0.7404  0.0683
21012SOL     OW74760   5.596  10.986  10.855 -0.0759  0.1364  0.2090
21012SOL    HW174761   5.502  11.002  10.855 -0.1293  0.0169 -2.0391
21012SOL    HW274762   5.605  10.891  10.865 -0.3419 -0.2194 -2.4262
21013SOL     OW74763   8.861  10.301  13.300 -0.8249  0.4402 -0.6207
21013SOL    HW174764   8.838  10.276  13.210 -1.6268  2.9094 -1.1670
21013SOL    HW274765   8.806  10.377  13.319 -1.0556 -0.3146  2.1794
21014SOL     OW74766   8.125  10.710   8.310 -0.0605  0.1098  0.2213
21014SOL    HW174767   8.216  10.718   8.281  0.1856 -0.5390  0.7865
21014SOL    HW274768   8.130  10.712   8.405 -0.7310  0.9151  0.2443
21015SOL     OW74769   5.354   6.336   9.757 -0.0796  0.2288  0.4247
21015SOL    HW174770   5.268   6.378   9.762 -0.5305 -0.6822  0.5545
21015SOL    HW274771   5.334   6.243   9.746  0.8949  0.0517  0.0863
21016SOL     OW74772   9.716   4.805  10.187  0.6157  0.2115  0.2746
21016SOL    HW174773   9.744   4.715  10.169  3.1929  1.0921 -0.6590
21016SOL    HW274774   9.647   4.822  10.122 -0.8592 -1.4460  1.3186
21017SOL     OW74775  13.519   4.273  13.206 -0.0309  0.1754  0.1561
21017SOL    HW174776  13.569   4.342  13.164  0.0966 -0.5032 -0.8517
21017SOL    HW274777  13.568   4.193  13.188 -0.9699 -0.3742 -0.0195
21018SOL     OW74778   5.735   1.688   3.150  0.1512 -0.4091 -0.4774
21018SOL    HW174779   5.676   1.647   3.214  0.9368 -0.4016  0.2735
21018SOL    HW274780   5.692   1.675   3.066 -0.4933 -1.1845 -0.0443
21019SOL     OW74781   5.575   8.125   7.445  0.2536  0.3820 -0.4744
21019SOL    HW174782   5.658   8.089   7.473  0.5833  1.3227 -0.2062
21019SOL    HW274783   5.578   8.122   7.349  0.7837  0.8071 -0.4746
21020SOL     OW74784  10.452   4.891  10.570 -0.2187 -0.1902 -0.6312
21020SOL    HW174785  10.440   4.797  10.553  2.0763 -0.7737  0.5545
21020SOL    HW274786  10.480   4.895  10.661 -0.1263  1.6534 -0.7132
21021SOL     OW74787   7.305   5.698   2.031  0.2706 -0.5190  0.5336
21021SOL    HW174788   7.266   5.784   2.016  1.4334  0.2563  1.7352
21021SOL    HW274789   7.396   5.717   2.054  0.8966 -2.1683 -0.4450
21022SOL     OW74790   3.052   7.028   0.575 -0.0254  0.3623 -0.1461
21022SOL    HW174791   3.139   7.048   0.610 -0.5029  0.1211  1.2257
21022SOL    HW274792   3.004   7.111   0.582  0.3535  0.7763 -1.8380
21023SOL     OW74793   1.409   8.526   4.144  0.1408 -0.4104  0.3971
21023SOL    HW174794   1.343   8.595   4.147  0.4888 -0.1069  1.9036
21023SOL    HW274795   1.477   8.561   4.087  0.6673  0.8729  1.7267
21024SOL     OW74796   2.616  12.000   7.953  0.1795  0.1412 -0.1653
21024SOL    HW174797   2.540  11.959   7.911  0.9906  1.2992 -3.0742
21024SOL    HW274798   2.652  12.056   7.884  1.3182  2.7558  2.3853
21025SOL     OW74799   6.197   1.543   7.836 -0.0331  0.2620  0.0386
21025SOL    HW174800   6.270   1.591   7.873  0.4783 -1.7865  1.9003
21025SOL    HW274801   6.144   1.517   7.911 -1.3614 -0.3638 -1.0507
21026SOL     OW74802  12.116   4.731  10.045 -0.2085  0.1747  0.6804
21026SOL    HW174803  12.123   4.638  10.022 -1.3218 -0.0095  1.0198
21026SOL    HW274804  12.063   4.769   9.976  0.3479  0.5953  0.4781
21027SOL     OW74805   5.536   1.041   4.852  0.2013  0.2997  0.8537
21027SOL    HW174806   5.544   0.946   4.868  0.0231  0.1403  0.0175
21027SOL    HW274807   5.478   1.071   4.922 -0.0885 -0.2890  0.8775
21028SOL     OW74808   7.588  12.021   3.996 -0.0282  0.3250  0.0266
21028SOL    HW174809   7.585  12.034   3.902  0.3442 -0.6712 -0.1348
21028SOL    HW274810   7.680  12.003   4.016 -0.2633 -0.5444  0.4089
21029SOL     OW74811  12.632   8.921   6.842  0.6132 -0.3948 -0.0438
21029SOL    HW174812  12.568   8.851   6.832  1.7497 -1.5181  0.2910
21029SOL    HW274813  12.716   8.879   6.825  1.1859  1.3529 -2.0122
21030SOL     OW74814   1.324   5.127  12.473  0.1762 -0.0070 -0.0106
21030SOL    HW174815   1.331   5.204  12.529  1.4902 -0.4064  0.4039
21030SOL    HW274816   1.402   5.130  12.417 -0.4931 -0.2720 -0.9943
21031SOL     OW74817   9.297   1.242   6.478 -0.3630 -0.1431  0.0669
21031SOL    HW174818   9.387   1.250   6.445 -0.8359  1.3578 -0.9971
21031SOL    HW274819   9.248   1.206   6.405 -1.0297  1.1925 -0.1729
21032SOL     OW74820   7.180   1.326   9.416 -0.2990 -0.2424  0.8874
21032SOL    HW174821   7.122   1.389   9.458  1.4436  1.2102  1.2118
21032SOL    HW274822   7.121   1.266   9.370 -2.0568  0.8026  1.7051
21033SOL     OW74823  13.466  11.754   7.175  0.6359  0.4977 -0.2482
21033SOL    HW174824  13.502  11.666   7.181  1.9139  0.9970 -0.2969
21033SOL    HW274825  13.537  11.807   7.139  0.2286  1.7424  0.7034
21034SOL     OW74826   1.581  10.922   0.646  0.2622  0.1816 -0.2042
21034SOL    HW174827   1.670  10.927   0.681  0.6309 -0.4657 -1.0471
21034SOL    HW274828   1.549  10.836   0.672 -1.2026  1.4119  2.5769
21035SOL     OW74829  11.654   4.445   6.025  0.4593 -0.0370  0.2348
21035SOL    HW174830  11.696   4.529   6.042  1.5706 -0.9397  2.4191
21035SOL    HW274831  11.683   4.421   5.937 -0.0736  1.9322 -0.5230
21036SOL     OW74832   9.569   3.178  10.089  0.1111  0.1153 -0.0434
21036SOL    HW174833   9.662   3.189  10.108  0.3201  0.8016 -1.4097
21036SOL    HW274834   9.546   3.095  10.133  1.7790 -1.0008 -1.1549
21037SOL     OW74835   8.178   8.199   5.400  0.5130  0.8591  0.0061
21037SOL    HW174836   8.204   8.107   5.404 -0.5129  0.5220 -0.6648
21037SOL    HW274837   8.173   8.219   5.307 -1.2492  0.9793  0.0846
21038SOL     OW74838   0.237  10.866   6.265 -0.2461  0.2172 -0.9267
21038SOL    HW174839   0.286  10.784   6.258  0.1398  0.0561  2.2649
21038SOL    HW274840   0.163  10.855   6.205  1.1059 -1.3938 -2.4189
21039SOL     OW74841   0.870   1.734   7.752  0.0463  0.6359  0.4390
21039SOL    HW174842   0.891   1.809   7.696  0.2198  0.9018  0.8565
21039SOL    HW274843   0.955   1.692   7.767 -0.3060 -0.9558 -1.6179
21040SOL     OW74844   9.025   6.752  12.328  0.6882 -0.0201  0.2856
21040SOL    HW174845   8.937   6.728  12.356  0.9467  1.1775  2.3099
21040SOL    HW274846   9.068   6.669  12.309 -0.7057 -0.6421 -0.2850
21041SOL     OW74847   1.601   3.286   5.366  0.0996 -0.2437 -0.1694
21041SOL    HW174848   1.631   3.288   5.457 -0.0424 -1.6009 -0.0666
21041SOL    HW274849   1.650   3.357   5.323  1.3314 -0.5730  0.6199
21042SOL     OW74850   0.663  11.392  10.575  0.0543 -0.0270  0.0747
21042SOL    HW174851   0.589  11.335  10.555  1.1191 -0.9561 -1.4559
21042SOL    HW274852   0.697  11.357  10.658  0.8308 -1.8690 -0.9424
21043SOL     OW74853  11.034  10.536   2.072  0.0081  0.4521  0.2663
21043SOL    HW174854  11.038  10.598   2.000  1.9324  0.6532  0.4876
21043SOL    HW274855  10.947  10.496   2.065 -0.7933  2.2438 -0.6310
21044SOL     OW74856   9.604   5.602   7.519  0.0331  0.9995  0.1727
21044SOL    HW174857   9.538   5.643   7.576  0.9901  0.3101  1.8376
21044SOL    HW274858   9.579   5.510   7.516  0.7193  0.7960  0.5444
21045SOL     OW74859   7.207   0.950   4.439  0.6220  0.5362 -0.5704
21045SOL    HW174860   7.126   0.912   4.406  0.5732  0.5387 -0.4525
21045SOL    HW274861   7.273   0.925   4.375  0.6780 -0.1446 -0.2587
21046SOL     OW74862   9.889  11.311  10.713  0.0161  0.0204 -0.5524
21046SOL    HW174863   9.936  11.395  10.716 -0.7365  0.4346  1.8862
21046SOL    HW274864   9.837  11.315  10.633 -1.5189  2.7990  0.4561
21047SOL     OW74865   7.527   5.956   0.334  0.2472 -0.0268  0.3516
21047SOL    HW174866   7.435   5.936   0.351 -0.1230 -0.8807 -2.1698
21047SOL    HW274867   7.571   5.936   0.416 -1.4840 -2.1731  0.8741
21048SOL     OW74868   7.600   2.247  10.124  0.1462  0.3944  0.1002
21048SOL    HW174869   7.619   2.245  10.218  2.3112 -2.1854 -0.2713
21048SOL    HW274870   7.607   2.339  10.100 -1.7148  1.3234  2.6301
21049SOL     OW74871   9.890   3.329   5.840 -0.6543  0.5384 -0.4880
21049SOL    HW174872   9.942   3.260   5.799 -2.2062 -1.3237  0.4943
21049SOL    HW274873   9.953   3.378   5.894  0.0745 -1.8446  0.9543
21050SOL     OW74874   6.777   6.452   9.899  0.0506  0.6206 -0.7835
21050SOL    HW174875   6.796   6.390   9.970 -1.5444 -0.7786 -1.5005
21050SOL    HW274876   6.855   6.507   9.894 -0.0941  1.3739  2.6041
21051SOL     OW74877   4.135  12.470   3.286  0.1124 -0.1584  0.3523
21051SOL    HW174878   4.088  12.406   3.339 -1.3715 -0.5330 -1.3191
21051SOL    HW274879   4.175  12.529   3.350 -1.1550 -0.8699  1.8768
21052SOL     OW74880   7.194   5.852  11.342 -0.4422 -0.0444  0.0377
21052SOL    HW174881   7.191   5.921  11.409 -0.2951  2.1361 -2.0803
21052SOL    HW274882   7.279   5.864  11.300 -0.3100 -1.7238 -0.2375
21053SOL     OW74883  12.011   5.403  13.548  0.1058  0.3867 -0.0022
21053SOL    HW174884  11.992   5.357  13.467 -0.3398  1.7033 -0.6651
21053SOL    HW274885  11.949   5.366  13.612  1.2513 -1.4959  0.0877
21054SOL     OW74886   8.403   6.989   9.004  0.5431  0.2702 -0.1802
21054SOL    HW174887   8.352   7.031   8.935  0.2208 -0.1434 -0.1970
21054SOL    HW274888   8.341   6.932   9.049  0.9632 -0.1548 -0.1298
21055SOL     OW74889   1.796   1.618   6.054 -0.4259  0.1057  0.1576
21055SOL    HW174890   1.820   1.707   6.027  1.6139 -0.6118 -0.5786
21055SOL    HW274891   1.876   1.567   6.042 -1.2575 -1.6248  1.5928
21056SOL     OW74892   1.216  11.921  12.865  0.3802  0.3311  0.7460
21056SOL    HW174893   1.191  11.925  12.957 -0.3071  1.3563  0.5272
21056SOL    HW274894   1.157  11.855  12.827 -0.4562  1.0860  0.7093
21057SOL     OW74895  11.313  10.436  10.751 -0.1432 -0.8146  0.0624
21057SOL    HW174896  11.373  10.382  10.700 -0.4501  0.3901 -1.6706
21057SOL    HW274897  11.226  10.409  10.722 -0.3005  0.7498 -1.0937
21058SOL     OW74898   1.413   1.924  10.629  0.0631  0.5688 -0.6737
21058SOL    HW174899   1.318   1.927  10.619  0.1437  0.9165 -1.3769
21058SOL    HW274900   1.438   1.835  10.604  0.2880  1.4512 -4.1055
21059SOL     OW74901   0.313   0.830   5.306 -0.4596 -0.5981  0.1381
21059SOL    HW174902   0.397   0.815   5.350 -0.5245 -1.6362 -0.0640
21059SOL    HW274903   0.250   0.840   5.377 -0.0111  1.2932  0.3126
21060SOL     OW74904  12.406   9.661  11.880  0.1535 -0.1708  0.3791
21060SOL    HW174905  12.436   9.725  11.944  0.4259  0.0276  0.0558
21060SOL    HW274906  12.442   9.578  11.910  1.2685  0.1026 -0.1483
21061SOL     OW74907   9.171  10.336   4.245 -0.4377 -0.2596  0.1932
21061SOL    HW174908   9.120  10.371   4.318 -0.2153  1.0938 -0.2652
21061SOL    HW274909   9.106  10.291   4.190 -0.7108 -0.6993  0.8643
21062SOL     OW74910  13.744   8.732   2.733  0.4245 -0.2974 -0.6158
21062SOL    HW174911  13.667   8.678   2.749 -1.0194  0.2554 -4.6480
21062SOL    HW274912  13.803   8.675   2.683  1.2759  0.2718 -0.2944
21063SOL     OW74913   6.573   4.248  12.497  0.4209 -0.3046  0.2493
21063SOL    HW174914   6.532   4.248  12.584  0.4992 -0.3083  0.2858
21063SOL    HW274915   6.501   4.229  12.437  0.0555  1.1624  0.1742
21064SOL     OW74916   3.444  13.281   3.166  0.2351 -0.1990 -0.0645
21064SOL    HW174917   3.519  13.317   3.213  0.9046  0.6274 -1.6845
21064SOL    HW274918   3.481  13.244   3.086 -0.9171 -1.0867 -0.2091
21065SOL     OW74919  12.184   7.605  12.636  0.3288 -0.8456  0.2588
21065SOL    HW174920  12.188   7.645  12.723 -1.4803  0.6634 -0.2840
21065SOL    HW274921  12.154   7.515  12.652 -2.5677  0.1591  1.1155
21066SOL     OW74922   1.140   3.234   2.661  0.3255 -0.0010  0.3316
21066SOL    HW174923   1.171   3.226   2.752  1.9201 -1.9255 -0.3122
21066SOL    HW274924   1.211   3.280   2.616  0.8150 -1.5186 -0.4855
21067SOL     OW74925   6.019   5.072  12.431 -0.3458 -0.2707 -0.3194
21067SOL    HW174926   6.086   5.126  12.472 -0.5360  0.7678 -1.3060
21067SOL    HW274927   5.945   5.075  12.491 -1.6558  3.4878 -1.7648
21068SOL     OW74928   4.794   8.829   6.435  0.1599  0.3086 -0.1556
21068SOL    HW174929   4.760   8.776   6.507  0.9717  2.8952  2.2964
21068SOL    HW274930   4.885   8.847   6.459  0.3189  1.6641 -1.5843
21069SOL     OW74931  11.825   4.587   6.304 -0.1062  0.6108 -0.1990
21069SOL    HW174932  11.787   4.501   6.289  1.3782 -0.0167 -0.5227
21069SOL    HW274933  11.907   4.570   6.351  0.5039  1.7839 -0.7736
21070SOL     OW74934  10.712   5.382   9.344 -0.5547 -0.1832 -0.5444
21070SOL    HW174935  10.646   5.416   9.404 -0.4017 -0.8237  0.0011
21070SOL    HW274936  10.668   5.382   9.259 -1.4810 -1.1400 -0.0986
21071SOL     OW74937  13.449  12.775   0.389 -0.1378 -0.6217 -0.1448
21071SOL    HW174938  13.371  12.750   0.340 -1.3756  0.6028  1.1182
21071SOL    HW274939  13.431  12.748   0.479  0.0210  1.3966  0.5334
21072SOL     OW74940  13.216  12.917   2.622 -0.1191 -0.2825 -0.9708
21072SOL    HW174941  13.254  12.829   2.618 -0.5449 -0.4302 -2.2657
21072SOL    HW274942  13.282  12.973   2.579 -0.5550 -0.2456 -1.6051
21073SOL     OW74943   4.763   0.398   5.567  0.3851 -0.6998 -0.0787
21073SOL    HW174944   4.833   0.333   5.564  0.3486 -0.7393 -0.0939
21073SOL    HW274945   4.728   0.392   5.656  0.1163 -0.9888 -0.1997
21074SOL     OW74946  12.222   4.734  10.578 -0.0082 -0.1622  0.1577
21074SOL    HW174947  12.262   4.728  10.491 -0.6792 -4.3329 -0.0800
21074SOL    HW274948  12.128   4.721  10.562 -0.2403 -0.1778  1.4377
21075SOL     OW74949   2.491   1.815  11.602  0.4226 -0.1657  0.7764
21075SOL    HW174950   2.445   1.893  11.633 -1.0628 -0.8012  0.2620
21075SOL    HW274951   2.456   1.744  11.656  0.3685 -0.7485 -0.0119
21076SOL     OW74952   5.808  11.541   4.279 -0.3173  0.1339  0.6483
21076SOL    HW174953   5.722  11.500   4.264 -0.8932  1.5012  0.0596
21076SOL    HW274954   5.814  11.610   4.213  0.5477  1.1050  1.6921
21077SOL     OW74955   1.866   5.595   2.827  0.2069 -0.3646  0.0824
21077SOL    HW174956   1.953   5.609   2.790  0.5529  0.7047  1.2219
21077SOL    HW274957   1.819   5.676   2.809 -1.2019 -1.5645 -2.0853
21078SOL     OW74958  12.540   9.981   7.288  0.3433 -0.3137 -0.1454
21078SOL    HW174959  12.523   9.913   7.352  1.7215 -1.4490 -0.9418
21078SOL    HW274960  12.491   9.953   7.210  0.5880 -0.1788 -0.3477
21079SOL     OW74961   1.177  11.696   0.386  0.6084 -0.8836 -0.1026
21079SOL    HW174962   1.217  11.700   0.473 -1.2380 -0.5463  0.7722
21079SOL    HW274963   1.103  11.636   0.397 -0.2919  0.0030 -1.1702
21080SOL     OW74964  11.733   0.837   6.462  0.0296  0.2007  0.2543
21080SOL    HW174965  11.760   0.906   6.401 -0.0882 -0.1175 -0.1592
21080SOL    HW274966  11.738   0.757   6.411 -2.0114  0.1444  0.0630
21081SOL     OW74967   0.635   5.128   8.368  0.4723  0.1051  0.4180
21081SOL    HW174968   0.582   5.206   8.383  1.9718  1.0930  0.8080
21081SOL    HW274969   0.726   5.159   8.374  1.1087 -1.5097 -0.2469
21082SOL     OW74970  12.796   7.213   8.891 -0.3805  0.6176  0.0827
21082SOL    HW174971  12.724   7.157   8.864  0.7977 -1.9076  1.7658
21082SOL    HW274972  12.814   7.268   8.815 -0.6857 -2.3303 -2.3029
21083SOL     OW74973   0.395   7.275   3.121 -0.2810  0.1560  0.3517
21083SOL    HW174974   0.420   7.223   3.197 -1.2622 -2.0871 -0.7582
21083SOL    HW274975   0.320   7.327   3.150  1.4395  1.9974  1.8180
21084SOL     OW74976   1.684   5.908   4.096  0.0214  0.6113  0.2426
21084SOL    HW174977   1.775   5.881   4.101 -0.6243 -3.0423 -3.0670
21084SOL    HW274978   1.681   5.974   4.027  0.1078  0.2415 -0.1178
21085SOL     OW74979   4.241   1.776   5.641  0.1165 -0.1414 -0.2213
21085SOL    HW174980   4.148   1.777   5.664  0.2148 -0.4304  0.2151
21085SOL    HW274981   4.251   1.701   5.583 -0.2844  1.0759 -1.9276
21086SOL     OW74982  12.196   9.119  12.663 -0.0696  0.0654  0.1996
21086SOL    HW174983  12.110   9.133  12.702 -0.0486 -0.8861  0.6047
21086SOL    HW274984  12.233   9.207  12.652 -1.2294  0.5057 -0.2976
21087SOL     OW74985   0.684   8.754   3.016  0.0110  0.4388  0.6883
21087SOL    HW174986   0.726   8.679   3.057 -1.5586 -0.7775  0.1718
21087SOL    HW274987   0.755   8.800   2.971  0.7428 -1.8166 -0.5951
21088SOL     OW74988   6.678   5.225  11.237 -0.4638  0.1536  0.0710
21088SOL    HW174989   6.696   5.291  11.304  0.9695 -0.0521 -0.0653
21088SOL    HW274990   6.603   5.176  11.271 -0.7129  1.0069  0.7957
21089SOL     OW74991   7.749   0.912  11.606 -0.9826  0.1538 -0.1869
21089SOL    HW174992   7.707   0.950  11.683 -1.3188  2.5333 -1.4548
21089SOL    HW274993   7.754   0.984  11.544  0.8318 -1.2553 -1.7863
21090SOL     OW74994   2.086  11.793   7.517 -0.5740  0.6345 -0.2327
21090SOL    HW174995   1.992  11.781   7.499 -0.4122  0.4459 -0.9940
21090SOL    HW274996   2.088  11.842   7.598 -1.3348  0.2434  0.0401
21091SOL     OW74997   6.431   3.726  13.741  0.6934 -0.3378  0.4522
21091SOL    HW174998   6.436   3.710  13.647 -0.0801 -1.5385  0.5939
21091SOL    HW274999   6.342   3.758  13.755  0.5911 -0.7784  0.8499
21092SOL     OW75000   1.413   9.154  10.062 -0.3874 -0.3356  0.4257
21092SOL    HW175001   1.490   9.182  10.113  0.5086 -0.1321 -0.9860
21092SOL    HW275002   1.396   9.065  10.092  2.5049 -1.6915 -1.4940
21093SOL     OW75003   0.714   2.094  12.360 -0.3369  0.1307  0.0122
21093SOL    HW175004   0.702   2.041  12.439 -0.0409  0.4098  0.2510
21093SOL    HW275005   0.698   2.184  12.390  2.1859  0.5323  0.3470
21094SOL     OW75006   6.084  10.138  10.945 -0.4746 -0.1230 -0.1328
21094SOL    HW175007   6.146  10.132  11.018 -0.1033 -0.1979 -0.4461
21094SOL    HW275008   6.140  10.149  10.868 -0.8966  0.7364 -0.3224
21095SOL     OW75009  12.204   9.217   9.704 -0.4138  0.0765 -0.3071
21095SOL    HW175010  12.124   9.164   9.710 -0.3850  0.1999  2.4190
21095SOL    HW275011  12.265   9.162   9.655 -2.1856  0.0878 -2.6945
21096SOL     OW75012   0.765   1.675   3.419 -0.5793 -0.5664  0.2323
21096SOL    HW175013   0.841   1.673   3.361 -0.4227 -0.8822  0.4495
21096SOL    HW275014   0.795   1.721   3.497 -0.4001 -1.3098  0.6103
21097SOL     OW75015   5.583  12.871   5.452 -0.2801  0.1748 -0.3571
21097SOL    HW175016   5.635  12.856   5.531  1.4728  1.4631 -1.2105
21097SOL    HW275017   5.609  12.800   5.392  0.0463  0.4679 -0.5646
21098SOL     OW75018   3.369   5.895  10.376  0.1238 -0.1733 -0.1274
21098SOL    HW175019   3.399   5.878  10.286 -0.4633 -1.2487 -0.1329
21098SOL    HW275020   3.372   5.991  10.384 -0.6322  0.0056 -1.5776
21099SOL     OW75021   8.300   8.499   4.567 -0.4761  0.1296 -0.3688
21099SOL    HW175022   8.255   8.526   4.647 -0.3171  1.1440 -0.6103
21099SOL    HW275023   8.362   8.570   4.549 -0.1596 -0.3254 -1.1209
21100SOL     OW75024   0.987   9.650   1.727 -0.1931  0.4379 -0.1223
21100SOL    HW175025   0.905   9.692   1.751 -0.4484 -0.4450  0.6204
21100SOL    HW275026   1.043   9.721   1.697 -1.2838  1.0287 -0.8276
21101SOL     OW75027  11.916   1.503   8.650  0.1354 -0.0965 -0.0030
21101SOL    HW175028  12.003   1.544   8.648 -0.2279  0.8173  1.3097
21101SOL    HW275029  11.883   1.523   8.738 -1.3195 -0.6131 -0.4150
21102SOL     OW75030   5.482   9.476   1.827  0.2603  0.5158 -0.0097
21102SOL    HW175031   5.449   9.482   1.737 -1.5368  0.4355  0.5962
21102SOL    HW275032   5.575   9.460   1.817  0.5662  2.8099 -1.8489
21103SOL     OW75033   4.672  10.760   1.237 -0.0483 -0.0868 -0.1914
21103SOL    HW175034   4.759  10.798   1.251 -0.2069 -0.6326  3.1635
21103SOL    HW275035   4.689  10.671   1.208  0.5113 -0.1834  0.4321
21104SOL     OW75036  12.355   7.521  11.609  0.0243 -0.6098  0.4868
21104SOL    HW175037  12.263   7.538  11.633  0.5633 -0.1634  2.4636
21104SOL    HW275038  12.405   7.567  11.676  1.6939 -1.4831 -0.1156
21105SOL     OW75039   9.334   4.855   6.748  0.3515  0.1532  0.1273
21105SOL    HW175040   9.428   4.836   6.748  0.7413  1.4087 -3.1584
21105SOL    HW275041   9.316   4.886   6.659 -3.0206  0.8281  0.9165
21106SOL     OW75042  10.922   0.846   3.494 -0.2030  0.2128 -0.7309
21106SOL    HW175043  10.877   0.920   3.452 -1.6025 -0.5164 -0.5861
21106SOL    HW275044  11.009   0.880   3.517 -1.0553  2.0400 -0.0147
21107SOL     OW75045   7.342   7.198  12.219 -0.8194 -0.8629  0.4421
21107SOL    HW175046   7.293   7.152  12.288 -2.8874 -0.1184 -0.4649
21107SOL    HW275047   7.278   7.213  12.150  0.1109  2.1231  0.1003
21108SOL     OW75048   3.047   3.829   8.132 -0.2123  0.2203  0.7162
21108SOL    HW175049   3.026   3.887   8.059  2.5374  0.7900  0.2831
21108SOL    HW275050   3.051   3.742   8.093 -1.6400  0.0840  0.8228
21109SOL     OW75051   9.968   2.305   7.798  0.1137  0.3282  0.6503
21109SOL    HW175052   9.931   2.352   7.723  0.7509  0.0465  0.1501
21109SOL    HW275053  10.015   2.372   7.848 -2.1110  0.9874  2.0441
21110SOL     OW75054   1.680  12.720   5.627 -0.2129  0.1811 -0.1824
21110SOL    HW175055   1.670  12.625   5.616 -1.9611  0.3167 -0.1436
21110SOL    HW275056   1.687  12.753   5.537  1.4915 -0.0546 -0.1601
21111SOL     OW75057   5.785   9.565  12.196 -0.2268  0.0867  0.1604
21111SOL    HW175058   5.750   9.618  12.267 -2.6211 -1.6043  0.3594
21111SOL    HW275059   5.714   9.561  12.132  0.8176 -0.8230 -1.0028
21112SOL     OW75060   0.096   4.619   0.358 -0.1793 -0.0931 -0.3188
21112SOL    HW175061   0.153   4.695   0.348 -0.8431  0.6711  1.2211
21112SOL    HW275062   0.008   4.653   0.338 -0.3502 -0.7374 -0.6871
21113SOL     OW75063  10.306   0.533   1.643 -0.1829 -0.0977  0.1199
21113SOL    HW175064  10.307   0.568   1.732  0.1223  0.4565 -0.0992
21113SOL    HW275065  10.216   0.503   1.629 -1.1256  2.7376 -0.5123
21114SOL     OW75066   7.332   2.219   4.881  0.2579 -0.0314 -0.0045
21114SOL    HW175067   7.325   2.135   4.836  1.1491  0.0977 -0.3860
21114SOL    HW275068   7.252   2.224   4.935  0.4156 -1.3180  0.3683
21115SOL     OW75069  10.169   1.750   5.473  0.0661  0.0704  0.4762
21115SOL    HW175070  10.189   1.663   5.508 -0.4666 -0.0542  0.4827
21115SOL    HW275071  10.202   1.810   5.539  1.5314 -0.0807 -0.0810
21116SOL     OW75072   6.119   9.260  13.579  0.0809  0.0596 -0.6188
21116SOL    HW175073   6.116   9.311  13.659 -0.5540 -0.0406 -0.5717
21116SOL    HW275074   6.030   9.226  13.569  0.4136 -0.7711 -0.8187
21117SOL     OW75075  11.766   6.271   6.157  0.3647 -0.1237 -0.0816
21117SOL    HW175076  11.764   6.242   6.066  1.8903 -0.3070 -0.0800
21117SOL    HW275077  11.733   6.195   6.206 -3.6592  1.0535 -0.6318
21118SOL     OW75078   6.465  10.687   1.947  0.4603 -0.2940  0.1154
21118SOL    HW175079   6.504  10.697   1.860  1.0286  0.5644  0.4611
21118SOL    HW275080   6.462  10.775   1.983  0.9748 -0.7320  1.2907
21119SOL     OW75081   6.383  11.934   9.248 -0.6468 -0.4021  0.2038
21119SOL    HW175082   6.427  12.008   9.206 -0.5538 -0.2595  0.5436
21119SOL    HW275083   6.440  11.911   9.321 -0.4775 -1.0728 -0.1384
21120SOL     OW75084   5.533   8.257   8.784 -0.1018 -0.3376  0.4495
21120SOL    HW175085   5.501   8.284   8.870  1.4895 -0.7919  1.2255
21120SOL    HW275086   5.628   8.246   8.796  0.4271  1.1716 -1.7765
21121SOL     OW75087   4.000   5.573   3.418 -0.2135 -0.1042  0.0564
21121SOL    HW175088   3.937   5.644   3.421  1.1791  1.1466  1.4695
21121SOL    HW275089   4.004   5.548   3.326 -0.8665  1.5285 -0.4451
21122SOL     OW75090   4.846  13.724   5.581 -0.3617  0.2414  0.0096
21122SOL    HW175091   4.773  13.697   5.526 -1.9576  1.0560  1.6200
21122SOL    HW275092   4.806  13.775   5.652  1.7282  0.4240  1.1598
21123SOL     OW75093   6.481  11.529   5.579  0.2565  0.5172  0.4318
21123SOL    HW175094   6.426  11.576   5.642 -2.2036 -2.4035  0.6763
21123SOL    HW275095   6.459  11.568   5.494 -1.1168  0.3906  0.7153
21124SOL     OW75096   9.266   8.939   6.345 -0.4483 -0.4736  0.1283
21124SOL    HW175097   9.312   9.022   6.350 -0.9816 -0.1024 -0.8856
21124SOL    HW275098   9.177   8.962   6.319 -0.8803 -1.2861  0.8235
21125SOL     OW75099   8.993   0.629  12.938 -0.2092 -0.2597 -0.5182
21125SOL    HW175100   9.074   0.578  12.942  0.9821  1.5772  2.1655
21125SOL    HW275101   8.937   0.590  13.005 -0.8200 -0.3557 -1.0767
21126SOL     OW75102   8.402   4.476   8.438  0.4373 -0.2207 -0.3424
21126SOL    HW175103   8.466   4.407   8.421 -1.2636 -1.7407 -0.9074
21126SOL    HW275104   8.387   4.516   8.352  0.1161 -0.3580 -0.3528
21127SOL     OW75105   2.226   4.123   0.349  0.5024 -0.4223  0.5006
21127SOL    HW175106   2.245   4.183   0.277 -0.1562 -1.2189 -0.3710
21127SOL    HW275107   2.217   4.180   0.426  1.2180  0.4448 -0.0324
21128SOL     OW75108   0.039  10.839   4.677  0.8050 -0.3381 -0.0172
21128SOL    HW175109  -0.039  10.874   4.721 -0.2526 -1.8862 -0.5634
21128SOL    HW275110   0.004  10.783   4.607  2.4255 -0.4051 -0.8276
21129SOL     OW75111   1.253   8.948   2.204 -0.0090  0.4215  0.0413
21129SOL    HW175112   1.336   8.932   2.249  1.0309  0.2046 -1.8550
21129SOL    HW275113   1.271   8.930   2.112 -1.7858  1.7471 -0.6421
21130SOL     OW75114  12.062   9.968   7.293  0.5290 -0.3423  0.8113
21130SOL    HW175115  12.144  10.012   7.269  0.0550 -0.0406 -0.3663
21130SOL    HW275116  12.061   9.969   7.388  0.9515  1.4640  0.8383
21131SOL     OW75117  10.180  13.191   0.805  0.2381  0.2430 -0.5889
21131SOL    HW175118  10.115  13.168   0.739 -0.0280  0.8071 -0.5299
21131SOL    HW275119  10.263  13.189   0.759  0.2372 -0.8743 -0.5751
21132SOL     OW75120   4.928   0.187   8.943 -0.2528 -0.2684  0.0323
21132SOL    HW175121   4.926   0.092   8.932  0.2418 -0.1978 -0.7464
21132SOL    HW275122   4.844   0.218   8.908 -1.2828 -0.5631  2.0739
21133SOL     OW75123   1.276   4.476   9.822  0.5192  0.5245 -0.4274
21133SOL    HW175124   1.301   4.490   9.913  1.4879 -0.2726 -0.5536
21133SOL    HW275125   1.301   4.385   9.803 -1.3342  0.0848 -0.9621
21134SOL     OW75126  13.567   5.266   8.231  0.1968  0.4754 -0.9445
21134SOL    HW175127  13.563   5.207   8.156  2.6442 -0.1668 -0.6670
21134SOL    HW275128  13.594   5.350   8.194  0.3410  0.4428 -0.9141
21135SOL     OW75129   0.310   3.067   0.018  0.3782  0.0175 -0.1099
21135SOL    HW175130   0.230   3.031  -0.019  0.9891 -1.8016  0.2395
21135SOL    HW275131   0.284   3.153   0.053 -0.8622  0.5062 -2.0693
21136SOL     OW75132  11.170   5.061   3.338  0.0621 -0.1069  0.7593
21136SOL    HW175133  11.170   4.980   3.388  1.9231 -0.9202 -0.4460
21136SOL    HW275134  11.105   5.047   3.270  0.5406 -0.6978  0.4158
21137SOL     OW75135   1.306   8.677   2.614  0.2669 -0.5609 -0.0352
21137SOL    HW175136   1.366   8.671   2.689  0.6580  0.4651 -0.2613
21137SOL    HW275137   1.222   8.700   2.653  0.8308  1.6626 -0.0323
21138SOL     OW75138   8.149   3.579  13.689  0.4482 -0.2666  0.5760
21138SOL    HW175139   8.228   3.607  13.643 -0.2548  0.4818 -0.1972
21138SOL    HW275140   8.168   3.489  13.715  0.7134 -0.9054 -1.5943
21139SOL     OW75141   1.047   0.703  12.392  0.2189 -0.6075 -0.7793
21139SOL    HW175142   1.053   0.726  12.299  0.2449  3.5800  0.0985
21139SOL    HW275143   1.138   0.694  12.420  0.2562 -0.4732 -0.8562
21140SOL     OW75144   7.461   2.123   7.558  0.3170 -0.3930 -0.0021
21140SOL    HW175145   7.533   2.179   7.585  0.1786 -0.8875  1.5341
21140SOL    HW275146   7.502   2.041   7.530  0.4573  0.0793 -1.2110
21141SOL     OW75147   0.516   6.555   0.066  0.1247 -0.3312  0.1960
21141SOL    HW175148   0.422   6.566   0.080  0.3887  1.9697  0.5606
21141SOL    HW275149   0.528   6.460   0.056 -2.3273 -0.6031 -0.7856
21142SOL     OW75150   7.409   4.339  12.946  0.0719 -0.3629 -0.6873
21142SOL    HW175151   7.384   4.254  12.982 -0.2173  0.2031  0.5071
21142SOL    HW275152   7.448   4.319  12.861  1.3770 -1.8208  0.2055
21143SOL     OW75153   4.757   4.067   7.714 -0.2824  0.2157 -0.8377
21143SOL    HW175154   4.747   4.021   7.797 -0.3848 -1.8545 -1.9480
21143SOL    HW275155   4.681   4.126   7.710 -0.4922  0.0444  0.3276
21144SOL     OW75156   4.130   8.190   1.603 -0.5007 -0.3228  0.1321
21144SOL    HW175157   4.089   8.146   1.528 -0.4848 -0.3581  0.1444
21144SOL    HW275158   4.058   8.238   1.644 -0.3190  0.5567 -0.5250
21145SOL     OW75159   1.583   8.703   0.979 -0.5464 -0.0222  0.7612
21145SOL    HW175160   1.641   8.779   0.983 -0.3626  0.0319 -1.3721
21145SOL    HW275161   1.621   8.641   1.041  1.5446  0.2252 -0.1537
21146SOL     OW75162  13.145   0.616   1.371 -0.2175 -0.4922  0.5720
21146SOL    HW175163  13.070   0.562   1.345  0.0870 -1.0249  0.7928
21146SOL    HW275164  13.110   0.674   1.439 -0.2860 -1.1474  1.1002
21147SOL     OW75165   2.161   9.660   6.016 -0.6334  0.5246  0.8159
21147SOL    HW175166   2.092   9.657   5.950  1.2939 -2.4646 -1.2988
21147SOL    HW275167   2.207   9.742   5.999 -1.7824  1.0744  0.2606
21148SOL     OW75168  10.910   2.205  10.387  0.7315  0.0006 -0.1869
21148SOL    HW175169  10.983   2.153  10.422  1.1740  0.4924 -0.3687
21148SOL    HW275170  10.858   2.142  10.337  0.8875 -0.4077  0.1556
21149SOL     OW75171   2.147   9.883   6.517 -0.5938  0.2055  0.0831
21149SOL    HW175172   2.108   9.968   6.536 -1.6774 -0.0363 -0.9919
21149SOL    HW275173   2.139   9.834   6.599 -2.4175  0.2226 -0.0532
21150SOL     OW75174  12.132  11.270   3.517  0.2650 -0.4291 -0.5228
21150SOL    HW175175  12.046  11.253   3.479 -0.6217 -1.7362  1.8086
21150SOL    HW275176  12.122  11.352   3.565  0.2158 -0.7204 -0.0256
21151SOL     OW75177   8.062   3.047   2.348  0.6982  0.0826  0.3676
21151SOL    HW175178   8.022   2.971   2.390 -1.1255  0.6369 -0.2553
21151SOL    HW275179   8.117   3.010   2.279 -0.9367 -0.7237 -0.5859
21152SOL     OW75180   6.484   5.043  11.396  0.0349 -0.0435 -0.2234
21152SOL    HW175181   6.428   4.988  11.342 -0.1017 -0.6251  0.4980
21152SOL    HW275182   6.557   4.986  11.420 -0.6982 -0.3292  1.5164
21153SOL     OW75183   4.906   0.846   1.633  0.3049 -0.0922  0.5286
21153SOL    HW175184   4.851   0.823   1.707 -0.1393 -0.3240  0.1286
21153SOL    HW275185   4.870   0.929   1.600  1.4016  0.7924  1.4640
21154SOL     OW75186  10.031   9.759  11.999 -0.3311  0.4611 -0.3748
21154SOL    HW175187  10.014   9.757  11.904  0.5751 -1.5787 -0.5267
21154SOL    HW275188  10.016   9.851  12.023  0.9942  1.4042 -2.7806
21155SOL     OW75189  10.760   9.437   9.676 -0.5221  0.5962  0.5339
21155SOL    HW175190  10.681   9.487   9.660  0.1799  2.3666  2.1622
21155SOL    HW275191  10.731   9.358   9.723 -1.4762  0.2785 -0.5719
21156SOL     OW75192   5.806   8.649   9.025  0.4309  0.4083  0.0725
21156SOL    HW175193   5.812   8.658   9.120  0.9706 -1.1302  0.2195
21156SOL    HW275194   5.876   8.705   8.991  1.9042 -0.9423  0.7415
21157SOL     OW75195  13.713  12.674   1.895 -0.4124  0.2856  0.3767
21157SOL    HW175196  13.780  12.743   1.891 -0.5285  0.3967  0.3611
21157SOL    HW275197  13.674  12.684   1.982  0.1294 -0.2825  0.6968
21158SOL     OW75198   8.503   4.681   0.075  0.4935  0.9651  0.0011
21158SOL    HW175199   8.514   4.586   0.072  1.3699  1.0555 -0.0643
21158SOL    HW275200   8.467   4.703  -0.011 -3.5004  0.3143  1.3117
21159SOL     OW75201   9.308   3.558   9.520  0.0093 -0.0243  0.1757
21159SOL    HW175202   9.346   3.471   9.516  0.5564  0.2023  0.3912
21159SOL    HW275203   9.219   3.544   9.551  0.2301 -0.4687  0.6165
21160SOL     OW75204   3.979  12.081  11.275  0.2748 -0.5029 -0.4911
21160SOL    HW175205   3.963  12.146  11.207  1.8289 -0.0201 -0.4270
21160SOL    HW275206   3.900  12.027  11.276 -1.0145  1.3065 -0.6256
21161SOL     OW75207   6.421   4.331   6.871 -0.3082  0.0690  0.0503
21161SOL    HW175208   6.510   4.311   6.901  0.3920  1.5147 -0.9891
21161SOL    HW275209   6.400   4.259   6.811  0.1416 -0.3014  0.3207
21162SOL     OW75210   4.833   1.411   9.765  0.0922 -0.5712  0.0096
21162SOL    HW175211   4.866   1.370   9.685  1.7248  1.4709 -0.4299
21162SOL    HW275212   4.798   1.495   9.737 -0.9138 -0.5453  1.2249
21163SOL     OW75213  12.993   2.590   1.328  0.1775  0.6116 -0.1997
21163SOL    HW175214  12.977   2.507   1.282  0.2229  0.4733  0.0302
21163SOL    HW275215  13.085   2.609   1.310  0.5679 -0.1223  0.9006
21164SOL     OW75216   3.678  13.119  12.773  0.2234  0.0398 -0.2593
21164SOL    HW175217   3.656  13.196  12.825 -0.5338  0.4287 -1.1291
21164SOL    HW275218   3.768  13.098  12.799  0.5372  1.3689 -0.1939
21165SOL     OW75219   7.060  12.767   7.614 -0.2961 -0.0213  0.0425
21165SOL    HW175220   7.011  12.695   7.574  0.9246 -1.6867  1.4051
21165SOL    HW275221   7.144  12.767   7.568  0.3171 -0.5613  1.1210
21166SOL     OW75222   8.247   7.730   8.532 -0.1086  0.2234  0.0936
21166SOL    HW175223   8.315   7.763   8.473  0.2850  0.1644  0.5074
21166SOL    HW275224   8.267   7.769   8.617 -1.5780  1.5588 -0.1203
21167SOL     OW75225  13.642   2.480   9.415  0.5943  0.9050  0.2882
21167SOL    HW175226  13.571   2.530   9.456 -0.1460 -0.7379  1.1123
21167SOL    HW275227  13.715   2.489   9.476 -0.1485 -0.5796  1.4594
21168SOL     OW75228   9.764  10.319   1.456  0.1920  0.7716  0.0406
21168SOL    HW175229   9.700  10.385   1.430  0.8401  0.6474 -2.0440
21168SOL    HW275230   9.839  10.369   1.487  0.3557  0.9922 -0.7117
21169SOL     OW75231   5.073  11.360   8.958  0.0229 -0.3897  0.5720
21169SOL    HW175232   5.074  11.373   8.863  0.5983 -3.1081  0.1379
21169SOL    HW275233   5.028  11.438   8.992  1.8638  1.8252 -1.6643
21170SOL     OW75234   8.215   0.830   1.703 -0.7048 -0.6931 -0.3077
21170SOL    HW175235   8.285   0.803   1.762 -0.4353  1.7437  0.6147
21170SOL    HW275236   8.237   0.791   1.619  1.3301 -0.6302  0.1571
21171SOL     OW75237  11.207   5.176  10.193 -0.1676 -0.3905 -0.0750
21171SOL    HW175238  11.221   5.264  10.156 -0.5815 -0.0542  0.5406
21171SOL    HW275239  11.217   5.188  10.287 -1.3208 -0.7730  0.1199
21172SOL     OW75240   9.910   6.133   8.120 -0.0668 -0.0392  0.0312
21172SOL    HW175241   9.843   6.102   8.181  0.5351 -3.6343 -0.8936
21172SOL    HW275242   9.861   6.160   8.042 -0.5344 -1.1919 -0.0838
21173SOL     OW75243  13.105  10.266   0.849 -0.3712  0.1574  0.3774
21173SOL    HW175244  13.060  10.182   0.859 -0.7057  0.3867  0.8710
21173SOL    HW275245  13.079  10.298   0.762 -1.5403  0.4937  0.8289
21174SOL     OW75246  10.471  12.147   7.752 -0.0098  0.2738 -0.3773
21174SOL    HW175247  10.554  12.163   7.796 -1.0832  1.7546  1.2879
21174SOL    HW275248  10.416  12.106   7.819 -1.9456  3.3174  0.1165
21175SOL     OW75249  12.200   1.512   6.477  0.3941 -0.4008 -0.1564
21175SOL    HW175250  12.211   1.417   6.477  0.3906 -0.4148  1.1211
21175SOL    HW275251  12.116   1.525   6.433  0.1966 -1.0179  0.0175
21176SOL     OW75252  11.912   0.890   0.660 -0.4963 -0.3804  0.2118
21176SOL    HW175253  11.930   0.967   0.606 -1.4988 -0.7356 -0.6471
21176SOL    HW275254  11.833   0.912   0.708  1.4995  0.8159  3.3047
21177SOL     OW75255   7.104   3.111   7.138 -0.0750  0.8151  0.1233
21177SOL    HW175256   7.101   3.124   7.233 -1.3990  1.4035  0.0201
21177SOL    HW275257   7.030   3.161   7.105 -0.7367 -0.8589 -1.0492
21178SOL     OW75258  11.336  11.569   7.138  0.5108 -0.1650  0.3345
21178SOL    HW175259  11.314  11.628   7.210  0.6912  0.0591  0.2076
21178SOL    HW275260  11.262  11.578   7.078  0.0364 -0.8605  0.8027
21179SOL     OW75261   0.444   4.970   6.596  0.7174 -0.1652  0.2065
21179SOL    HW175262   0.484   4.884   6.610  0.0685 -0.9302 -2.1643
21179SOL    HW275263   0.350   4.954   6.601  0.4685 -0.2136 -2.7284
21180SOL     OW75264   1.399   5.594   9.372  0.8745  0.1458 -0.3126
21180SOL    HW175265   1.441   5.509   9.356  0.0804 -0.9015  2.5249
21180SOL    HW275266   1.337   5.604   9.300 -0.6234 -2.8397  0.3829
21181SOL     OW75267  11.730   6.207  10.063 -0.1073 -0.3972 -0.7508
21181SOL    HW175268  11.725   6.136  10.127 -0.6684 -0.5519 -0.9550
21181SOL    HW275269  11.770   6.167   9.986 -0.2995 -0.4640 -0.8183
21182SOL     OW75270   0.108   2.996   9.466  0.2332  0.2675 -0.3421
21182SOL    HW175271   0.028   2.987   9.415 -0.3802 -0.3481  0.6981
21182SOL    HW275272   0.111   3.088   9.491 -0.8289  0.0458  0.6668
21183SOL     OW75273   5.295   1.167  11.907  0.1960  0.0290 -0.2463
21183SOL    HW175274   5.296   1.256  11.943  2.0070 -0.3772  0.8386
21183SOL    HW275275   5.343   1.114  11.971 -1.0932 -1.8178 -0.7207
21184SOL     OW75276  10.291   8.754   2.868  0.3107  0.4584  0.2425
21184SOL    HW175277  10.210   8.705   2.853  0.5412  0.6109 -1.6595
21184SOL    HW275278  10.322   8.722   2.953 -0.9311 -0.7323  0.2879
21185SOL     OW75279   0.751   6.804   9.937  0.2688 -0.0932  0.0821
21185SOL    HW175280   0.686   6.829  10.003 -0.5876  1.6472 -1.3126
21185SOL    HW275281   0.743   6.871   9.869  2.7340 -0.5015 -0.7191
21186SOL     OW75282   4.896  10.572   6.064  0.2188  0.0856 -0.6131
21186SOL    HW175283   4.926  10.481   6.067 -0.3091 -0.0800 -0.1835
21186SOL    HW275284   4.819  10.569   6.006  0.8489  0.4546 -1.4771
21187SOL     OW75285   1.160  11.580   6.099  0.3845 -0.5891  0.7839
21187SOL    HW175286   1.080  11.607   6.144  0.5639 -0.4029  0.9993
21187SOL    HW275287   1.206  11.662   6.081  0.3120 -0.6651  0.2492
21188SOL     OW75288   1.709  11.446  12.247 -0.1023  0.0738 -0.4557
21188SOL    HW175289   1.712  11.480  12.336  0.5171 -0.2219 -0.3567
21188SOL    HW275290   1.617  11.453  12.221 -0.1277  1.0377 -0.1395
21189SOL     OW75291   0.868   1.773  13.710  0.1665  0.3985  0.6404
21189SOL    HW175292   0.814   1.779  13.631  0.4874 -1.3504  0.2469
21189SOL    HW275293   0.856   1.683  13.740  1.4896  0.5032  1.5405
21190SOL     OW75294   7.124   9.058  12.632  0.2226  0.0136  0.2259
21190SOL    HW175295   7.110   9.022  12.545  0.9113  0.7688 -0.2036
21190SOL    HW275296   7.142   9.151  12.618  0.0103  0.2164  1.1986
21191SOL     OW75297  13.038   2.712   2.294  0.1509 -0.3195  0.1254
21191SOL    HW175298  13.023   2.803   2.322  2.7554 -0.2723  1.6223
21191SOL    HW275299  13.007   2.659   2.367  0.5385 -0.5492  0.1212
21192SOL     OW75300   8.883   9.386   8.297  0.3217 -0.5829  0.3646
21192SOL    HW175301   8.795   9.353   8.283  0.5156 -1.4076  0.9711
21192SOL    HW275302   8.915   9.409   8.210 -0.8824  0.7895  0.2614
21193SOL     OW75303   3.760   2.600   8.273  0.4086  0.4558  0.3506
21193SOL    HW175304   3.757   2.529   8.338 -1.5320  1.0727  1.0286
21193SOL    HW275305   3.736   2.678   8.323  0.3407  1.1996 -0.8185
21194SOL     OW75306  10.562  13.343  13.684  0.2973  0.4466  0.5785
21194SOL    HW175307  10.645  13.318  13.724 -0.3111 -0.0105  1.5949
21194SOL    HW275308  10.586  13.401  13.612  1.6023 -0.9760 -0.2063
21195SOL     OW75309   4.590   9.657  11.704  0.3851 -0.1593 -0.1254
21195SOL    HW175310   4.575   9.643  11.610  0.7193  0.9766 -0.3617
21195SOL    HW275311   4.576   9.571  11.743  0.1383 -0.6308 -1.2039
21196SOL     OW75312   8.696   9.023  10.362 -0.0470 -0.4204 -0.1277
21196SOL    HW175313   8.732   8.934  10.364  0.6399 -0.2693 -2.4958
21196SOL    HW275314   8.769   9.078  10.333 -1.1234  0.4997 -1.1958
21197SOL     OW75315   2.165   7.698   4.179 -0.2764  0.7912  0.3331
21197SOL    HW175316   2.208   7.626   4.226  0.5017  2.1940  1.8656
21197SOL    HW275317   2.123   7.656   4.104  3.2103 -0.8339 -0.9606
21198SOL     OW75318   8.624  10.369  12.152 -0.2027 -0.0594 -0.0053
21198SOL    HW175319   8.564  10.299  12.179  0.5892 -0.6031  0.3834
21198SOL    HW275320   8.569  10.430  12.102 -1.0713 -0.5484  0.3368
21199SOL     OW75321   8.623   1.033  10.446  0.1571 -0.2977  0.3567
21199SOL    HW175322   8.697   0.996  10.397  0.5135  0.3404  0.4017
21199SOL    HW275323   8.663   1.101  10.501 -0.6603  1.0125 -0.6418
21200SOL     OW75324   2.987   9.545  11.530  0.2987 -0.1239 -0.3779
21200SOL    HW175325   3.073   9.512  11.504  0.2081 -0.7041  0.0287
21200SOL    HW275326   2.998   9.640  11.534  0.6687 -0.1297 -1.2069
21201SOL     OW75327   4.568  12.673  12.698 -0.4286 -0.0898  0.8656
21201SOL    HW175328   4.551  12.766  12.685 -0.7397  0.0784  2.3738
21201SOL    HW275329   4.514  12.648  12.772  1.1666 -1.0042  1.7828
21202SOL     OW75330   8.642   5.179   2.640 -0.6987  0.8191  0.5184
21202SOL    HW175331   8.575   5.246   2.647  1.1426  2.7732  0.4810
21202SOL    HW275332   8.663   5.175   2.546 -1.5617 -0.6735  0.3541
21203SOL     OW75333   7.238   3.533   1.590  0.2397 -0.2468 -0.2254
21203SOL    HW175334   7.203   3.543   1.501  1.2545 -1.4826 -0.8039
21203SOL    HW275335   7.167   3.562   1.647 -0.0631  1.6260 -1.4389
21204SOL     OW75336   0.938   0.254  13.686 -0.1743  0.2644  0.2498
21204SOL    HW175337   1.020   0.302  13.697 -0.0537  0.2431 -0.4946
21204SOL    HW275338   0.874   0.321  13.662 -1.0073  0.7024  3.2730
21205SOL     OW75339   8.777   9.721   8.770  0.3357 -0.1689  0.0895
21205SOL    HW175340   8.755   9.795   8.826  1.8043  0.8449 -0.6101
21205SOL    HW275341   8.810   9.760   8.689  1.8569 -1.5469 -0.0200
21206SOL     OW75342  12.379  12.924   0.697 -0.0477  0.2101 -0.1749
21206SOL    HW175343  12.432  12.991   0.739 -1.0343  0.3235  0.9368
21206SOL    HW275344  12.345  12.871   0.769 -1.8608  0.4732 -0.7842
21207SOL     OW75345  10.534  11.872   4.542  0.4604  0.4972 -0.2986
21207SOL    HW175346  10.521  11.787   4.585 -0.2574  1.0246  0.5712
21207SOL    HW275347  10.559  11.931   4.614 -2.9005  1.9221 -0.1311
21208SOL     OW75348   2.174  11.053   4.622  0.8906 -0.4528  0.3246
21208SOL    HW175349   2.152  11.074   4.531  0.6092  0.0648  0.5027
21208SOL    HW275350   2.261  11.015   4.618  0.1366 -2.2141 -0.3652
21209SOL     OW75351  11.799   4.739   1.607  0.4017 -0.3068 -0.6256
21209SOL    HW175352  11.749   4.753   1.687 -0.3374 -1.2627 -0.8923
21209SOL    HW275353  11.868   4.677   1.633 -0.3873 -1.3275 -0.9105
21210SOL     OW75354   6.499   0.240  10.051  0.6815 -0.0440  0.0927
21210SOL    HW175355   6.500   0.321  10.102  2.5586 -1.3350  2.2913
21210SOL    HW275356   6.418   0.196  10.078 -0.7397  1.3205 -1.6712
21211SOL     OW75357   7.509   1.235   9.174 -0.5605 -0.0669  0.2283
21211SOL    HW175358   7.468   1.298   9.115 -0.2672  1.3700  1.5057
21211SOL    HW275359   7.601   1.234   9.148 -0.4882  0.3528  0.4483
21212SOL     OW75360  11.034   6.654   4.413 -0.1047 -0.4041  0.1343
21212SOL    HW175361  10.960   6.620   4.464 -0.8846 -1.6250 -1.6872
21212SOL    HW275362  10.997   6.671   4.326  1.9433 -2.1855 -1.2051
21213SOL     OW75363  11.052   7.998   3.831  0.2157 -0.2678  0.3457
21213SOL    HW175364  11.076   7.970   3.742  2.9529 -0.1777  0.9541
21213SOL    HW275365  11.099   8.080   3.844 -2.4243  1.2475  0.9417
21214SOL     OW75366   5.637   5.975   7.144  0.2804  0.1313  0.3613
21214SOL    HW175367   5.657   6.056   7.190 -1.1093 -0.0845  1.4242
21214SOL    HW275368   5.669   5.905   7.202  1.6457 -0.0993 -0.6347
21215SOL     OW75369  12.747  11.135  11.354  0.1649 -0.2210 -0.3786
21215SOL    HW175370  12.677  11.120  11.291  0.5509 -0.8388 -0.6674
21215SOL    HW275371  12.702  11.160  11.435 -0.3327  0.4613 -0.8659
21216SOL     OW75372   0.382   4.824   7.691  0.2870 -0.3217  0.5563
21216SOL    HW175373   0.389   4.741   7.644  0.0656 -0.1136  0.1501
21216SOL    HW275374   0.472   4.857   7.695  0.0838  0.7906 -1.8206
21217SOL     OW75375   1.647   1.574  13.102  0.6202  0.1724 -0.1298
21217SOL    HW175376   1.651   1.566  13.006  0.3997 -0.3316 -0.1025
21217SOL    HW275377   1.710   1.642  13.123  0.3084  0.6481 -0.6794
21218SOL     OW75378   2.909  12.420   1.556  0.2782  0.0521  0.1651
21218SOL    HW175379   2.839  12.357   1.540  1.2356 -1.4467  1.5529
21218SOL    HW275380   2.899  12.444   1.649  1.1927  0.3095  0.2086
21219SOL     OW75381   4.036  11.810   7.957  0.3631  0.0220  0.7591
21219SOL    HW175382   4.130  11.804   7.943  0.3269 -3.1765  1.1449
21219SOL    HW275383   4.011  11.724   7.992 -2.6525  0.8777  1.0240
21220SOL     OW75384   0.580  11.612   2.935 -0.2341  0.0720  0.1509
21220SOL    HW175385   0.504  11.667   2.954  0.1665  0.7478 -0.1635
21220SOL    HW275386   0.643  11.635   3.004 -1.2629 -2.4535  2.0944
21221SOL     OW75387   1.315   2.120  10.826  0.0031  0.8716  0.1680
21221SOL    HW175388   1.373   2.051  10.793 -1.1784  0.1947 -0.6031
21221SOL    HW275389   1.359   2.202  10.804 -0.1407  0.4138 -2.0501
21222SOL     OW75390   8.721   1.716   2.951  0.0413 -0.2181  0.0041
21222SOL    HW175391   8.751   1.753   3.034 -0.1301  0.2751 -0.1466
21222SOL    HW275392   8.657   1.649   2.976  2.3612 -2.3948  0.3982
21223SOL     OW75393   8.771  12.146   7.172 -0.1769  0.8484 -1.0128
21223SOL    HW175394   8.865  12.131   7.174 -0.4125 -0.7413  0.5189
21223SOL    HW275395   8.762  12.241   7.180  1.2853  0.9749 -0.5977
21224SOL     OW75396   4.170   1.384   7.993 -0.6619  0.1322 -0.5274
21224SOL    HW175397   4.234   1.436   7.945 -0.9765  0.9945 -0.0234
21224SOL    HW275398   4.223   1.322   8.044 -0.2964 -0.1571 -1.2374
21225SOL     OW75399   2.470   4.620  10.617 -0.4016 -0.2610  0.0111
21225SOL    HW175400   2.523   4.687  10.575  0.8439 -0.8215  0.6361
21225SOL    HW275401   2.383   4.660  10.625 -0.1290  0.6259 -1.1551
21226SOL     OW75402  12.230  12.284   2.803 -0.1784  0.1322  0.2006
21226SOL    HW175403  12.229  12.375   2.774  0.6538 -0.1287 -0.6854
21226SOL    HW275404  12.171  12.283   2.878  0.1908  1.5072  0.5467
21227SOL     OW75405   5.422  11.303   7.004 -0.2670 -0.5043 -0.1632
21227SOL    HW175406   5.390  11.260   6.924  1.1396 -0.6085 -0.6910
21227SOL    HW275407   5.513  11.323   6.986  0.2804 -1.1188  1.6516
21228SOL     OW75408   5.544   2.476   6.375  0.3473 -0.0673 -0.1552
21228SOL    HW175409   5.566   2.565   6.402 -0.1652 -0.0075  0.0833
21228SOL    HW275410   5.491   2.442   6.446  1.3475 -0.9180  0.2047
21229SOL     OW75411   2.683  10.789   2.637  0.1801 -0.5139  0.4638
21229SOL    HW175412   2.654  10.880   2.633  0.0268 -0.3597  3.4184
21229SOL    HW275413   2.773  10.792   2.604 -0.1996  0.4758 -0.5701
21230SOL     OW75414   4.248   1.125   9.147 -0.1061 -0.0977  0.1234
21230SOL    HW175415   4.279   1.121   9.238 -3.3875 -0.1599  1.3937
21230SOL    HW275416   4.265   1.215   9.120  1.6233 -0.2862  0.4581
21231SOL     OW75417   4.353   2.972  13.090 -0.6969  0.1148  0.3527
21231SOL    HW175418   4.299   2.981  13.012 -0.5576 -0.6681  0.1549
21231SOL    HW275419   4.295   2.997  13.162 -1.5157 -1.2035  0.1938
21232SOL     OW75420  10.020   6.345   7.430  0.2230 -0.3223  0.2747
21232SOL    HW175421   9.946   6.313   7.379  0.5874 -0.4749 -0.1732
21232SOL    HW275422   9.986   6.357   7.519 -0.3526 -0.3029  0.0510
21233SOL     OW75423  11.117   3.452   9.834 -0.3625 -0.0249  0.1611
21233SOL    HW175424  11.184   3.489   9.891 -0.7697 -0.4615  0.9370
21233SOL    HW275425  11.116   3.359   9.855 -1.3157 -0.0002  0.2846
21234SOL     OW75426   5.919   9.805   1.980 -0.0727  0.7916 -0.6470
21234SOL    HW175427   5.995   9.767   1.936 -1.2552 -1.5987 -0.8185
21234SOL    HW275428   5.932   9.784   2.073 -1.9359 -2.6395 -0.9956
21235SOL     OW75429   0.065  10.759  10.501 -0.5444  0.1365 -0.3604
21235SOL    HW175430   0.058  10.664  10.488 -0.6313  0.0291  0.4149
21235SOL    HW275431   0.153  10.772  10.534 -1.0459  0.1359  1.0282
21236SOL     OW75432   3.361   1.251   8.517  0.8523 -0.2669  0.4147
21236SOL    HW175433   3.327   1.163   8.501 -0.6953  0.1026  1.4929
21236SOL    HW275434   3.384   1.251   8.610  0.9775  0.4374  0.3852
21237SOL     OW75435  12.969   4.370  12.417 -0.5549 -0.0935 -0.4780
21237SOL    HW175436  13.026   4.312  12.365 -0.0031  1.4397 -1.6922
21237SOL    HW275437  13.030   4.434  12.455 -1.2231  0.1242  0.2367
21238SOL     OW75438   2.713  12.225   5.313 -0.3795 -0.0176 -0.4927
21238SOL    HW175439   2.622  12.243   5.339  0.3351  0.2922  2.1196
21238SOL    HW275440   2.756  12.201   5.395  2.2428  1.2904 -1.3968
21239SOL     OW75441  12.568   2.175  11.317 -0.3537 -0.2870 -0.1143
21239SOL    HW175442  12.558   2.270  11.310  2.1404  0.1652  1.2158
21239SOL    HW275443  12.588   2.146  11.229  2.2381  0.9900 -0.0204
21240SOL     OW75444   6.606   7.793   6.298  0.4873  0.3227 -0.4601
21240SOL    HW175445   6.626   7.789   6.391  3.0869  0.0886 -0.9521
21240SOL    HW275446   6.576   7.883   6.284 -0.7410  0.1265  0.7006
21241SOL     OW75447   9.596   4.704   8.271 -0.1704  0.3201  0.2635
21241SOL    HW175448   9.682   4.663   8.266 -0.2895 -0.3806  2.7170
21241SOL    HW275449   9.615   4.793   8.302 -0.2526  0.6034 -0.4857
21242SOL     OW75450   6.724   8.978   0.741 -0.4014 -0.2592  0.2652
21242SOL    HW175451   6.710   8.919   0.667 -0.5598  1.2873 -0.9976
21242SOL    HW275452   6.817   9.002   0.737  0.1672 -1.8802  1.9676
21243SOL     OW75453  11.084   0.979   4.076  0.3584  0.1468  0.3568
21243SOL    HW175454  11.066   0.917   4.146  2.3027 -0.5035  0.3377
21243SOL    HW275455  11.037   0.944   4.000 -1.1443  0.4588  1.0908
21244SOL     OW75456   0.442   1.656   0.972  0.3095  0.0058 -0.3538
21244SOL    HW175457   0.416   1.566   0.994 -0.3173 -0.0428 -1.2369
21244SOL    HW275458   0.485   1.647   0.887  0.6784  0.4771 -0.2130
21245SOL     OW75459   0.865   5.512   2.634  0.6954 -0.3561  0.0751
21245SOL    HW175460   0.799   5.449   2.663 -0.8408  1.1732  0.1205
21245SOL    HW275461   0.868   5.500   2.539 -1.9565  1.4994 -0.3768
21246SOL     OW75462   6.863   4.294   1.027 -0.0706 -0.0656 -0.4438
21246SOL    HW175463   6.915   4.337   0.959 -0.7459  2.0529  0.2959
21246SOL    HW275464   6.780   4.342   1.027 -0.6792 -1.0684  0.7894
21247SOL     OW75465   2.680  12.797   6.664  0.1546 -0.5410  0.6132
21247SOL    HW175466   2.624  12.748   6.723 -1.5641  0.4797 -0.0928
21247SOL    HW275467   2.703  12.877   6.713  0.6375 -0.7412  0.7244
21248SOL     OW75468  10.367  12.222   5.551 -0.3385 -0.0418  0.6765
21248SOL    HW175469  10.353  12.193   5.641  1.0557  0.5261  1.1031
21248SOL    HW275470  10.418  12.303   5.559 -0.0153 -0.0869 -0.6198
21249SOL     OW75471   6.151  11.961   8.967  0.0988 -0.3451 -0.3193
21249SOL    HW175472   6.124  12.053   8.975 -2.1086 -0.9687 -0.0947
21249SOL    HW275473   6.096  11.926   8.897  1.6022 -1.2922 -1.0783
21250SOL     OW75474  12.032   3.582   9.668  0.9511 -0.1049 -0.5661
21250SOL    HW175475  11.957   3.624   9.626  0.1657 -1.4838 -0.6101
21250SOL    HW275476  12.072   3.651   9.722 -0.8441  0.4414  0.1138
21251SOL     OW75477  11.878   4.187   0.635 -0.0184  0.3683 -0.0814
21251SOL    HW175478  11.944   4.180   0.566 -0.0108 -0.1217 -0.0313
21251SOL    HW275479  11.922   4.156   0.714  0.5664  2.6953  0.5767
21252SOL     OW75480   7.837   4.472  13.575  0.1454  0.0274 -0.5450
21252SOL    HW175481   7.753   4.454  13.533  0.3492 -1.9603 -0.1848
21252SOL    HW275482   7.817   4.478  13.668  0.4467 -0.8728 -0.4152
21253SOL     OW75483   9.680  13.072  10.221 -0.1721  0.8672  0.7205
21253SOL    HW175484   9.657  13.094  10.131 -0.4659  1.9667  1.0493
21253SOL    HW275485   9.707  12.980  10.217 -0.3155  0.8598 -0.4573
21254SOL     OW75486  10.554   5.311   0.932  0.5534  0.5620  0.6514
21254SOL    HW175487  10.580   5.357   1.012  1.8157 -0.3982  0.8335
21254SOL    HW275488  10.637   5.290   0.888 -0.1344  1.5317 -1.1984
21255SOL     OW75489   8.823   0.054   3.608  0.2266 -0.0224  0.0413
21255SOL    HW175490   8.908   0.019   3.581 -0.6485 -0.8195 -1.8598
21255SOL    HW275491   8.826   0.053   3.704  2.0304 -0.8469  0.0195
21256SOL     OW75492   3.041  10.588   7.401 -0.4257 -0.1715  0.0794
21256SOL    HW175493   3.096  10.628   7.468 -0.5255 -0.2267  0.1960
21256SOL    HW275494   3.085  10.505   7.380  0.7669  0.8085 -1.4812
21257SOL     OW75495   3.391   6.836   5.907 -0.1357  0.0154  0.0700
21257SOL    HW175496   3.377   6.878   5.992 -0.9256 -0.1413  0.0231
21257SOL    HW275497   3.424   6.749   5.928 -0.3868 -0.0446  0.2257
21258SOL     OW75498  10.143   3.646   6.186  0.2371  1.0511  0.0295
21258SOL    HW175499  10.118   3.696   6.264 -0.0056  0.2190  0.4867
21258SOL    HW275500  10.061   3.636   6.137  0.2360  0.8730  0.0677
21259SOL     OW75501   7.673  10.805   0.412  0.0007 -0.5343  0.3050
21259SOL    HW175502   7.760  10.837   0.390  0.0216 -0.8683 -0.1142
21259SOL    HW275503   7.631  10.790   0.327 -0.5034 -0.2721  0.5070
21260SOL     OW75504   5.319   7.579  12.762 -0.0424 -0.9569 -0.0606
21260SOL    HW175505   5.402   7.565  12.717 -0.3949 -0.7992 -0.7668
21260SOL    HW275506   5.261   7.616  12.695 -0.4509 -0.3330  0.6257
21261SOL     OW75507  13.623   8.577  11.268 -0.1890  0.1745 -0.7199
21261SOL    HW175508  13.608   8.619  11.353  0.6297 -0.5421 -0.2022
21261SOL    HW275509  13.696   8.624  11.230  1.4418 -1.3886  0.3356
21262SOL     OW75510  11.260   5.061   6.739  0.2447  0.2181  0.5699
21262SOL    HW175511  11.287   4.979   6.698 -1.7510 -0.7374  1.0414
21262SOL    HW275512  11.272   5.127   6.671  1.8921 -0.4287  0.1824
21263SOL     OW75513   8.909  13.204   0.075  0.1353 -0.0149  0.2544
21263SOL    HW175514   8.819  13.186   0.047 -0.0881 -2.3520  2.1204
21263SOL    HW275515   8.899  13.270   0.144  0.3844  3.1635 -2.5202
21264SOL     OW75516  12.851   8.739   8.660  0.3026 -0.0689  0.2274
21264SOL    HW175517  12.907   8.814   8.683 -1.6972  0.7622  2.9245
21264SOL    HW275518  12.860   8.679   8.734 -1.6213 -0.2986  0.3236
21265SOL     OW75519   6.759  13.012   1.125  0.6606 -0.3806  0.9475
21265SOL    HW175520   6.807  12.976   1.199  2.2484  1.2784  0.7900
21265SOL    HW275521   6.824  13.061   1.075 -0.6445 -0.3504 -0.8311
21266SOL     OW75522   2.829   8.626   2.309 -0.7498 -0.0571 -0.3732
21266SOL    HW175523   2.898   8.668   2.362 -0.6179 -0.4232 -0.2539
21266SOL    HW275524   2.748   8.645   2.356 -0.5132 -1.5015  0.7092
21267SOL     OW75525  11.961   2.771  11.393  0.2042 -0.5819  0.2822
21267SOL    HW175526  11.961   2.854  11.345  0.1259 -1.0443 -0.5456
21267SOL    HW275527  12.053   2.756  11.417  0.5020 -1.0727 -1.0582
21268SOL     OW75528   9.609   6.331   6.559 -0.1959 -0.4505 -0.5629
21268SOL    HW175529   9.697   6.350   6.528 -0.1435  0.5355  0.1759
21268SOL    HW275530   9.564   6.296   6.482  0.1209  1.3474 -1.6186
21269SOL     OW75531   7.524   3.918   0.488  0.2655 -0.0968  0.0007
21269SOL    HW175532   7.467   3.994   0.477  0.9402  0.4214  0.0139
21269SOL    HW275533   7.472   3.857   0.541 -0.2744  0.3609  0.0129
21270SOL     OW75534  10.883   7.724   1.112 -0.4906 -0.4858 -0.5084
21270SOL    HW175535  10.975   7.707   1.094 -0.8199 -1.3475 -1.5099
21270SOL    HW275536  10.855   7.652   1.169 -0.3242  0.3097  0.6137
21271SOL     OW75537  12.346   7.703   3.151  0.0887 -0.2181 -0.6041
21271SOL    HW175538  12.339   7.618   3.106  1.3734  0.4369 -2.1474
21271SOL    HW275539  12.381   7.681   3.238  0.8791 -1.2508 -1.1583
21272SOL     OW75540   4.384  11.792   9.609  0.1879  0.0166 -0.3357
21272SOL    HW175541   4.298  11.801   9.649  0.3132 -0.4335  0.0484
21272SOL    HW275542   4.391  11.866   9.548 -0.2952  0.2936 -0.0555
21273SOL     OW75543   2.312   7.453   7.963  0.0348  0.6133 -0.2170
21273SOL    HW175544   2.305   7.388   8.032  1.8787  0.1435 -0.4233
21273SOL    HW275545   2.370   7.413   7.898 -1.5057  1.0925 -2.0044
21274SOL     OW75546   7.958   4.333   8.902 -0.0258  0.4558 -0.0768
21274SOL    HW175547   8.011   4.280   8.961  1.0301  0.9769 -0.5337
21274SOL    HW275548   7.937   4.412   8.952 -0.8362  0.0237  0.2858
21275SOL     OW75549  12.376   3.828  13.308  0.4024  0.0928  0.4135
21275SOL    HW175550  12.384   3.767  13.381 -1.3824 -0.9466 -0.1958
21275SOL    HW275551  12.296   3.877  13.327 -0.7011 -0.9433 -1.3230
21276SOL     OW75552   5.415   2.684  12.631  0.8606  0.0757 -0.2034
21276SOL    HW175553   5.449   2.745  12.697  0.4292  2.0101 -1.6803
21276SOL    HW275554   5.490   2.665  12.575  0.6705  0.3662 -0.5578
21277SOL     OW75555  12.078   0.538  10.168  0.1747 -0.4634 -0.2828
21277SOL    HW175556  12.133   0.616  10.159  0.1374 -0.6059 -2.0934
21277SOL    HW275557  12.052   0.516  10.078 -2.5645 -0.6027  0.4436
21278SOL     OW75558   7.575   4.250   8.085 -0.0885 -0.1577 -0.6417
21278SOL    HW175559   7.669   4.269   8.090 -0.0877 -0.1013 -0.8379
21278SOL    HW275560   7.534   4.314   8.143 -0.0918  0.5105 -1.3548
21279SOL     OW75561   2.441  11.668   3.492 -0.4327  0.3458 -0.1164
21279SOL    HW175562   2.354  11.635   3.517 -0.3210 -0.4804 -0.7622
21279SOL    HW275563   2.425  11.722   3.415 -0.5811  1.6637  0.7909
21280SOL     OW75564   3.282  13.194   5.892  0.0918  0.1030 -0.3910
21280SOL    HW175565   3.216  13.224   5.830 -0.8630 -0.5434  0.2808
21280SOL    HW275566   3.356  13.168   5.837 -0.5288  0.0433 -1.2261
21281SOL     OW75567   1.039  12.833   7.622  0.0086  0.1286 -0.2833
21281SOL    HW175568   1.039  12.789   7.537 -0.9076 -1.5759  0.5597
21281SOL    HW275569   1.110  12.793   7.671  0.0125  0.5210  0.0437
21282SOL     OW75570   0.880   6.977   5.469  0.5909 -0.4894 -0.2065
21282SOL    HW175571   0.882   7.067   5.501 -0.3942 -0.3049 -0.6392
21282SOL    HW275572   0.787   6.955   5.462  0.6868 -0.3043 -3.4685
21283SOL     OW75573   3.777   5.505  12.329  0.0586 -0.2469 -0.2580
21283SOL    HW175574   3.827   5.481  12.251  2.1101 -0.4170  1.0285
21283SOL    HW275575   3.762   5.422  12.374  1.5496  0.1077  0.9882
21284SOL     OW75576   7.490   5.239   1.738 -0.2169 -0.0737 -0.3098
21284SOL    HW175577   7.503   5.187   1.818  0.7789  0.4602 -0.1037
21284SOL    HW275578   7.550   5.201   1.675  0.0816  0.4409 -0.3428
21285SOL     OW75579  10.813  12.963   7.016  0.6289 -0.1686 -0.1574
21285SOL    HW175580  10.746  13.014   6.970  1.0076  0.3250 -0.1704
21285SOL    HW275581  10.783  12.960   7.107  1.5779  1.8138  0.2884
21286SOL     OW75582   9.050   3.832   8.285 -0.4868 -0.4018 -0.5597
21286SOL    HW175583   9.139   3.824   8.320 -0.3716  1.5691 -0.2916
21286SOL    HW275584   8.993   3.811   8.359 -0.2880 -1.9750 -0.8110
21287SOL     OW75585   3.454   2.664   6.667 -0.3302 -0.3217 -0.1754
21287SOL    HW175586   3.494   2.740   6.710 -0.4129  0.4772 -1.4789
21287SOL    HW275587   3.360   2.675   6.682 -0.2863 -0.7053  0.4601
21288SOL     OW75588   0.364   8.122  13.641  0.5788  0.0815  0.0731
21288SOL    HW175589   0.375   8.047  13.583 -0.5639  0.0328 -0.0982
21288SOL    HW275590   0.276   8.155  13.622  0.4941  0.5581  1.2004
21289SOL     OW75591   9.290   8.998   4.427  0.1579 -0.6148  0.0563
21289SOL    HW175592   9.268   8.925   4.485 -0.3443 -0.2105  0.3884
21289SOL    HW275593   9.287   8.960   4.339  1.1229 -1.2820  0.2963
21290SOL     OW75594  13.351  11.680   4.705  0.6441  0.0105  0.1704
21290SOL    HW175595  13.255  11.681   4.701  0.6138  2.1071  0.2015
21290SOL    HW275596  13.376  11.599   4.661 -1.1210 -0.0697 -0.7865
21291SOL     OW75597   2.294  10.885   1.004  0.0608  0.1509  0.1932
21291SOL    HW175598   2.369  10.855   0.953  1.8518  0.2800  2.5811
21291SOL    HW275599   2.287  10.978   0.984 -0.4857 -0.1602 -1.1950
21292SOL     OW75600  12.823   6.557   0.404  0.7792 -0.1823 -0.6383
21292SOL    HW175601  12.864   6.509   0.475  1.4177 -3.9682 -3.2305
21292SOL    HW275602  12.896   6.594   0.355  0.4036  1.5361  0.0442
21293SOL     OW75603  10.924   3.270  13.727 -0.1458 -0.1858 -0.2327
21293SOL    HW175604  10.881   3.184  13.727 -3.1643  1.1708 -0.3143
21293SOL    HW275605  10.878   3.320  13.659  0.8729  1.7776  0.4329
21294SOL     OW75606  12.425  13.261  12.863 -0.0023  0.1592  0.2958
21294SOL    HW175607  12.433  13.166  12.873  0.6595  0.1235 -0.4842
21294SOL    HW275608  12.345  13.283  12.912 -1.8143 -1.2161 -1.8298
21295SOL     OW75609   9.105   4.659  10.193  0.1158  0.1819  0.2256
21295SOL    HW175610   9.082   4.751  10.205  0.0845  0.2195 -0.0981
21295SOL    HW275611   9.196   4.661  10.163  0.4054  0.0571  1.0831
21296SOL     OW75612   3.908  13.180   1.359 -0.5790  0.4525  0.0656
21296SOL    HW175613   3.833  13.122   1.343 -0.4741  0.5394 -0.7944
21296SOL    HW275614   3.943  13.152   1.443 -1.2300  0.0289  0.2007
21297SOL     OW75615   3.953   3.349   5.495  0.2906  0.5490  0.3445
21297SOL    HW175616   3.937   3.255   5.492 -2.2069  0.9424 -1.4769
21297SOL    HW275617   3.900   3.379   5.569  2.5818  0.3838  2.1724
21298SOL     OW75618   5.213  13.365   3.580 -0.6378 -0.4864  0.0784
21298SOL    HW175619   5.212  13.374   3.485 -1.1383  0.6783  0.1803
21298SOL    HW275620   5.124  13.387   3.607 -0.2459  0.1306  0.8998
21299SOL     OW75621  12.279  13.399   7.341  0.5480 -0.4348  0.1083
21299SOL    HW175622  12.324  13.443   7.269 -0.5057 -1.5506 -1.2850
21299SOL    HW275623  12.187  13.421   7.329  0.2125 -1.6595  0.3775
21300SOL     OW75624   2.477   2.902  10.400 -0.9318 -0.5568  0.2440
21300SOL    HW175625   2.469   2.899  10.305 -0.0872 -3.2234  0.1807
21300SOL    HW275626   2.390   2.878  10.432 -1.5302  1.3923  0.2439
21301SOL     OW75627   7.216  10.055  11.474 -0.0354 -0.3771  0.2126
21301SOL    HW175628   7.262  10.089  11.551 -0.3317 -1.1673  0.7519
21301SOL    HW275629   7.262  10.094  11.399 -0.1107  0.8610  0.7923
21302SOL     OW75630   9.354  13.642   1.500 -0.1478 -0.0574 -0.2470
21302SOL    HW175631   9.377  13.560   1.542 -0.1385  1.0360  2.0213
21302SOL    HW275632   9.274  13.622   1.451  0.1472 -1.5302 -0.1710
21303SOL     OW75633   2.447  12.245   3.405 -0.2041  0.2253  0.2229
21303SOL    HW175634   2.502  12.262   3.328  0.8730 -1.0756  0.6692
21303SOL    HW275635   2.368  12.205   3.369  0.3377 -0.4740 -0.2185
21304SOL     OW75636   1.977   1.930   7.749  0.5775 -0.0536 -0.2509
21304SOL    HW175637   2.020   2.010   7.777 -1.6126  0.8536  0.7151
21304SOL    HW275638   2.044   1.882   7.701  1.4720  3.1941 -2.5691
21305SOL     OW75639  10.408   3.323  13.098 -0.3377  0.5083  0.6299
21305SOL    HW175640  10.347   3.396  13.088  0.3045  0.7959 -1.8151
21305SOL    HW275641  10.357   3.254  13.142 -1.3812  1.8701  1.6335
21306SOL     OW75642   6.023  13.717   0.578  0.4422 -0.0846 -0.5602
21306SOL    HW175643   6.081  13.730   0.504 -0.2299 -0.9453 -1.2569
21306SOL    HW275644   5.935  13.717   0.540  0.1927 -3.9864 -0.3566
21307SOL     OW75645   4.282   6.160   0.666  0.4229  0.1269  0.7070
21307SOL    HW175646   4.204   6.122   0.627  1.7086 -0.3540 -1.5973
21307SOL    HW275647   4.289   6.247   0.626  2.1656 -0.6510 -0.8169
21308SOL     OW75648  10.732   1.497   6.227 -0.5749  0.2729  0.1829
21308SOL    HW175649  10.637   1.483   6.227 -1.0413  2.8790  0.9161
21308SOL    HW275650  10.768   1.421   6.272 -2.0614 -1.8148 -1.9390
21309SOL     OW75651   9.249   5.782   0.986  0.5138  0.1285 -0.1308
21309SOL    HW175652   9.336   5.786   0.945  0.5761  0.4121  0.0266
21309SOL    HW275653   9.253   5.706   1.044  0.5171 -0.1124 -0.4405
21310SOL     OW75654  10.606  11.842  13.350  0.2688 -0.5564  0.0269
21310SOL    HW175655  10.646  11.923  13.318  0.3220 -0.1192  1.1543
21310SOL    HW275656  10.516  11.846  13.319  0.2021  0.0683  0.2835
21311SOL     OW75657   0.928   2.726  11.940  0.1197  0.4740  0.4276
21311SOL    HW175658   0.911   2.632  11.939 -0.8656  0.5885 -2.1022
21311SOL    HW275659   0.852   2.764  11.983 -0.6753  0.2302 -0.7148
21312SOL     OW75660   9.478   7.335   6.112  0.1450  0.3657 -0.1612
21312SOL    HW175661   9.427   7.393   6.056 -2.1891 -0.4854  0.9681
21312SOL    HW275662   9.458   7.247   6.080  2.0884  0.0187 -0.5845
21313SOL     OW75663   6.935  11.895   9.419 -0.4342  0.2648  0.0107
21313SOL    HW175664   6.938  11.956   9.345  1.1966 -0.6645 -0.7532
21313SOL    HW275665   6.934  11.950   9.497 -2.1115  1.2668 -0.6662
21314SOL     OW75666   4.389   5.139   7.678  0.1449  0.1093  0.2596
21314SOL    HW175667   4.316   5.081   7.659  0.0422 -0.2841  1.7190
21314SOL    HW275668   4.368   5.221   7.634 -0.7294 -0.3026 -0.0933
21315SOL     OW75669   6.830   0.620   7.740 -0.0605 -0.1339  0.5873
21315SOL    HW175670   6.926   0.624   7.737  0.0414 -1.9003 -0.0506
21315SOL    HW275671   6.809   0.628   7.833  0.5757  1.6618  0.6218
21316SOL     OW75672   1.945   7.261   7.601 -0.6797  0.7209  0.7859
21316SOL    HW175673   1.850   7.258   7.598 -0.6650 -0.1420  1.0306
21316SOL    HW275674   1.967   7.254   7.694 -0.3585  0.2820  0.6801
21317SOL     OW75675   3.688   9.323   6.465  0.2313  0.1348  0.0744
21317SOL    HW175676   3.618   9.353   6.522  0.1219 -1.5830  0.9300
21317SOL    HW275677   3.647   9.310   6.380 -0.3870 -0.3929  0.4475
21318SOL     OW75678   7.421  11.917   5.857  0.3076 -0.2665 -0.1167
21318SOL    HW175679   7.450  11.989   5.912 -0.6112  0.1830 -0.1962
21318SOL    HW275680   7.333  11.943   5.828  0.8921 -0.3469 -2.0493
21319SOL     OW75681   4.902   2.761   2.087  0.0509 -0.3189  0.4265
21319SOL    HW175682   4.835   2.773   2.019 -0.2853 -0.3784  0.7482
21319SOL    HW275683   4.862   2.796   2.167  0.6894  0.3608  0.4650
21320SOL     OW75684   4.355   4.056   0.063  0.0766  0.3413  0.3194
21320SOL    HW175685   4.281   4.041   0.122 -1.2013 -0.7059 -1.4432
21320SOL    HW275686   4.337   4.000  -0.013  1.1861  2.2420 -1.4615
21321SOL     OW75687  12.186  10.606   2.699 -0.1596 -0.1065  0.2452
21321SOL    HW175688  12.202  10.700   2.691  1.4427 -0.2085  1.7568
21321SOL    HW275689  12.177  10.590   2.793  0.2198 -1.5402  0.0742
21322SOL     OW75690   8.527   3.046   8.572 -0.1561  0.1640  0.0678
21322SOL    HW175691   8.455   3.085   8.523  1.7739  1.3435 -2.0586
21322SOL    HW275692   8.579   3.121   8.602  1.2192 -0.6455 -0.1982
21323SOL     OW75693   3.644   0.372   4.315  0.3548  0.7256 -0.5102
21323SOL    HW175694   3.598   0.454   4.299 -0.5335  0.6568  1.3762
21323SOL    HW275695   3.696   0.388   4.394  2.5954  0.3725 -1.8347
21324SOL     OW75696  12.088   3.463   1.139 -0.1333  0.5322 -0.9394
21324SOL    HW175697  12.069   3.377   1.104  1.1598 -0.5176  0.7811
21324SOL    HW275698  12.171   3.488   1.098  1.0331 -0.4036  0.7329
21325SOL     OW75699  10.888   0.189   6.611 -0.2245 -0.2590 -0.5001
21325SOL    HW175700  10.812   0.160   6.662  0.9213  0.4944  1.8084
21325SOL    HW275701  10.856   0.264   6.561 -1.4887 -1.2352 -1.1947
21326SOL     OW75702   5.534   1.166   8.629  0.1998  0.0844  0.2968
21326SOL    HW175703   5.456   1.218   8.608 -0.4720 -1.5696 -1.6967
21326SOL    HW275704   5.607   1.224   8.609 -0.5018  1.1342  0.6753
21327SOL     OW75705  13.139   9.902  11.029  0.5596 -0.0400  0.3525
21327SOL    HW175706  13.110   9.823  10.984 -1.5727 -0.0699  1.6339
21327SOL    HW275707  13.230   9.885  11.052  0.2941 -1.8909  0.1462
21328SOL     OW75708  12.627  10.593  11.325 -0.5080 -0.2547 -0.2252
21328SOL    HW175709  12.699  10.585  11.263  0.6243  2.2836  0.6312
21328SOL    HW275710  12.656  10.546  11.403 -0.9646 -1.4902 -0.7699
21329SOL     OW75711   3.732   9.193   1.306 -0.1038 -0.3637 -0.0874
21329SOL    HW175712   3.686   9.267   1.347  0.2485  0.6714 -1.5006
21329SOL    HW275713   3.751   9.222   1.217  2.3384 -1.1642  0.1005
21330SOL     OW75714  12.174   9.460   1.814 -0.4508  0.2317  0.3827
21330SOL    HW175715  12.114   9.448   1.887 -3.0228  1.3519 -1.3926
21330SOL    HW275716  12.137   9.532   1.763  2.1428  0.6319 -1.1605
21331SOL     OW75717   3.634   0.172   3.687  0.4031  0.9745  0.3789
21331SOL    HW175718   3.562   0.223   3.724 -1.7315  0.1476 -2.3153
21331SOL    HW275719   3.673   0.229   3.621 -0.0681  0.2256 -0.5748
21332SOL     OW75720  10.727  13.373  12.553  0.0580 -0.1511 -0.2596
21332SOL    HW175721  10.645  13.410  12.585 -2.0680 -3.5252 -1.3325
21332SOL    HW275722  10.733  13.287  12.595  2.1924 -0.7090 -1.5298
21333SOL     OW75723  11.008   1.067   2.500  0.1895 -0.1443 -0.2454
21333SOL    HW175724  10.990   0.991   2.555 -1.8773  0.4006 -0.0742
21333SOL    HW275725  11.038   1.134   2.561  0.7400 -0.4180 -0.2109
21334SOL     OW75726   1.297  12.335   8.253  0.0733 -0.6563  0.6138
21334SOL    HW175727   1.315  12.426   8.227 -0.4267 -0.8964 -0.6877
21334SOL    HW275728   1.376  12.287   8.229 -0.8050 -1.0878 -1.7673
21335SOL     OW75729   9.687   4.494   6.853 -0.1117 -0.1177 -0.2026
21335SOL    HW175730   9.773   4.466   6.821  0.2137 -1.4073  1.6717
21335SOL    HW275731   9.625   4.430   6.818 -0.1409  0.0833 -0.5198
21336SOL     OW75732  10.181   7.480   7.117  0.4160  0.2902  0.3260
21336SOL    HW175733  10.152   7.409   7.174  1.2204 -1.2021 -1.0404
21336SOL    HW275734  10.275   7.464   7.104  0.5453  1.4085 -0.2730
21337SOL     OW75735   0.525  13.227   7.435 -0.5874 -0.2078  0.7028
21337SOL    HW175736   0.562  13.304   7.479 -0.4685  0.7984 -1.0491
21337SOL    HW275737   0.434  13.225   7.463 -0.9204  1.3437 -0.1550
21338SOL     OW75738   4.718  12.854  12.354 -0.3538 -0.0319  0.0988
21338SOL    HW175739   4.773  12.908  12.412  1.4391  1.1130 -2.5026
21338SOL    HW275740   4.727  12.766  12.389 -1.0381  0.8566  2.7702
21339SOL     OW75741   8.578   9.917   5.549  0.0451 -0.3345 -0.2111
21339SOL    HW175742   8.558   9.827   5.572  0.1894 -0.1025  0.8774
21339SOL    HW275743   8.493   9.961   5.550  0.1897 -0.0206  1.3604
21340SOL     OW75744   1.758   8.674   2.246  0.1350 -0.1383  0.3693
21340SOL    HW175745   1.786   8.715   2.328  0.7484  0.5639 -0.1799
21340SOL    HW275746   1.732   8.585   2.271  1.2342 -0.2482  1.1735
21341SOL     OW75747   1.344   0.659   4.995 -0.1509  0.1186 -0.0494
21341SOL    HW175748   1.339   0.669   5.090  1.8877  0.5781  0.0399
21341SOL    HW275749   1.342   0.564   4.981  1.8455 -0.0667  0.6523
21342SOL     OW75750   6.779  11.465  10.201 -0.3131  0.0515 -0.4869
21342SOL    HW175751   6.753  11.503  10.117  1.5547  0.1945 -1.0466
21342SOL    HW275752   6.836  11.531  10.240  0.0114 -0.6417  0.2320
21343SOL     OW75753   3.224   6.066  10.994 -0.4421  0.2238  0.0966
21343SOL    HW175754   3.270   6.068  11.078  0.9939 -2.0640 -0.5524
21343SOL    HW275755   3.249   6.148  10.951 -0.5825  1.0652  1.5508
21344SOL     OW75756  11.697  10.215   3.755  0.1589 -0.1362  0.4736
21344SOL    HW175757  11.651  10.290   3.792 -0.7598 -1.2318  1.6301
21344SOL    HW275758  11.636  10.178   3.691  0.0780 -0.6541  0.8479
21345SOL     OW75759   1.863   6.233  11.385 -0.6507  0.2546 -0.6438
21345SOL    HW175760   1.840   6.307  11.441  0.3792 -1.1013  1.7159
21345SOL    HW275761   1.948   6.204  11.417 -0.3614 -1.0706 -2.4690
21346SOL     OW75762   0.369  12.551   8.487 -0.2117  0.7388 -0.9933
21346SOL    HW175763   0.395  12.462   8.464 -1.3259 -0.2145  1.1068
21346SOL    HW275764   0.282  12.561   8.448 -0.3753  0.6162 -0.6741
21347SOL     OW75765   0.203   3.453   9.955 -0.6835  0.5993  0.0990
21347SOL    HW175766   0.284   3.499   9.933  0.3295 -0.8008  0.7310
21347SOL    HW275767   0.204   3.375   9.900 -1.1716  0.1390  0.7219
21348SOL     OW75768  11.058   0.220  11.562  0.3727 -0.7135 -0.3251
21348SOL    HW175769  11.114   0.143  11.564  3.1928  1.1907  1.9873
21348SOL    HW275770  11.096   0.276  11.494  0.5264  0.0359  0.3509
21349SOL     OW75771   3.973  12.484   8.789 -0.8435  0.5824 -0.5247
21349SOL    HW175772   3.946  12.415   8.850 -0.3803 -0.7193 -1.7556
21349SOL    HW275773   3.897  12.499   8.733  0.2318 -1.8360 -2.8450
21350SOL     OW75774   3.638   1.517  13.228 -0.1595 -0.4302  0.1089
21350SOL    HW175775   3.587   1.439  13.206  0.2123 -0.4693 -0.6395
21350SOL    HW275776   3.724   1.484  13.252 -0.1132 -0.2785  0.1532
21351SOL     OW75777   6.908   2.123  12.046 -0.2609  0.0371 -0.3636
21351SOL    HW175778   6.818   2.126  12.013 -0.1116 -1.0782 -0.9197
21351SOL    HW275779   6.929   2.030  12.051  0.0193  0.1806  2.1837
21352SOL     OW75780   6.806   8.882  13.188  0.1145 -0.2861  0.3842
21352SOL    HW175781   6.857   8.899  13.109  1.2365  0.1165  1.1595
21352SOL    HW275782   6.793   8.787  13.189  2.4026 -0.6709  1.0278
21353SOL     OW75783  10.098   8.809   2.449 -0.2672 -0.0553 -0.4185
21353SOL    HW175784  10.180   8.843   2.485  0.5946 -0.7467 -1.6252
21353SOL    HW275785  10.085   8.859   2.368  0.3700 -1.6811 -1.5774
21354SOL     OW75786   3.730   5.126   6.408 -0.3148 -0.3178 -0.0225
21354SOL    HW175787   3.639   5.105   6.428 -0.6564  0.2681 -0.8461
21354SOL    HW275788   3.773   5.136   6.493 -1.1061 -0.2692  0.3763
21355SOL     OW75789  11.556   4.851  11.511 -0.0068 -0.3763 -0.5776
21355SOL    HW175790  11.635   4.900  11.534 -0.3924  0.0028 -0.0438
21355SOL    HW275791  11.571   4.763  11.547  0.0411 -0.2146 -0.1992
21356SOL     OW75792  10.515   2.861   6.318  0.0215 -0.3990 -0.2401
21356SOL    HW175793  10.533   2.924   6.388  1.4934  0.7818 -1.5860
21356SOL    HW275794  10.601   2.842   6.281 -0.4596 -2.8421 -0.2291
21357SOL     OW75795   6.284   9.953   5.247 -0.4084  0.1671 -0.5167
21357SOL    HW175796   6.341  10.027   5.229  0.2595 -0.2313 -0.1042
21357SOL    HW275797   6.198   9.981   5.219  0.0064  0.7559 -1.2285
21358SOL     OW75798   2.642   7.033   4.733 -0.0727  0.0758 -0.5694
21358SOL    HW175799   2.558   6.988   4.721  0.2735 -0.4754 -0.9637
21358SOL    HW275800   2.659   7.027   4.827 -0.1165 -0.4566 -0.5941
21359SOL     OW75801  12.674   3.448   1.473  0.9584 -0.5105  0.6858
21359SOL    HW175802  12.696   3.398   1.552  3.8909  0.2284  0.4441
21359SOL    HW275803  12.718   3.402   1.402  0.1146  0.0334 -0.2153
21360SOL     OW75804  12.191   2.162   8.512  0.0526 -0.1100 -0.3955
21360SOL    HW175805  12.117   2.195   8.562  0.5544 -0.3568  0.5413
21360SOL    HW275806  12.265   2.217   8.541  1.0757 -2.4081  1.7574
21361SOL     OW75807  10.912   1.982   0.535 -0.2266 -0.6113 -0.0334
21361SOL    HW175808  10.852   2.056   0.541 -0.5230 -0.8415 -0.1292
21361SOL    HW275809  10.939   1.980   0.443 -1.8210 -1.8605 -0.5068
21362SOL     OW75810  12.838   8.553   4.619  0.0188 -0.6182  0.5769
21362SOL    HW175811  12.927   8.527   4.597  0.3147  0.6657  0.1999
21362SOL    HW275812  12.836   8.552   4.715 -0.0151 -2.0884  0.5754
21363SOL     OW75813   9.504  10.150   1.322  0.1766 -0.0094  0.1381
21363SOL    HW175814   9.544  10.191   1.398 -0.8210  0.9252  0.1841
21363SOL    HW275815   9.502  10.219   1.256 -0.7408 -0.2333 -0.0788
21364SOL     OW75816  10.515   7.968   6.404 -0.2162 -0.1395  0.1689
21364SOL    HW175817  10.535   7.945   6.495 -0.0654  0.5744  0.3161
21364SOL    HW275818  10.536   8.061   6.397  1.3983 -0.5457 -1.0503
21365SOL     OW75819   9.602   3.690   6.024  0.5160  0.1574 -0.1422
21365SOL    HW175820   9.547   3.673   5.948  1.6576  2.6504 -1.6562
21365SOL    HW275821   9.570   3.774   6.058  2.9567  1.4015 -0.7480
21366SOL     OW75822   2.195   1.401   5.786  0.0911 -0.1937  0.0068
21366SOL    HW175823   2.266   1.460   5.759 -1.2039  1.9395  1.0428
21366SOL    HW275824   2.150   1.379   5.705  0.6298  0.1734 -0.3993
21367SOL     OW75825   1.604  13.066  11.982 -0.0991  0.2057  0.2724
21367SOL    HW175826   1.586  12.973  11.976 -1.3026  0.4375  0.0723
21367SOL    HW275827   1.523  13.105  12.014 -0.2033  1.3799 -1.2805
21368SOL     OW75828   5.331   5.927   8.179 -0.1140 -0.0981  0.1551
21368SOL    HW175829   5.281   6.002   8.210 -2.2957 -0.5930 -1.9149
21368SOL    HW275830   5.291   5.852   8.223 -0.8726 -0.4468 -1.1026
21369SOL     OW75831   3.639   0.766   0.758 -0.1736 -0.5417 -0.1783
21369SOL    HW175832   3.629   0.760   0.853 -1.0729  1.0640 -0.1361
21369SOL    HW275833   3.594   0.689   0.724 -0.7281 -0.5951  0.6497
21370SOL     OW75834   4.833  10.831   4.354  0.2709  0.0854  0.4327
21370SOL    HW175835   4.776  10.810   4.427  0.6072  0.3183  0.7645
21370SOL    HW275836   4.802  10.775   4.283 -0.1798 -0.0016  0.6941
21371SOL     OW75837   7.888  12.442  10.890  0.7410 -0.1128 -0.6198
21371SOL    HW175838   7.879  12.536  10.901 -0.9725 -0.4643  1.9316
21371SOL    HW275839   7.798  12.410  10.888  1.2173 -1.9181  1.7922
21372SOL     OW75840   3.149  10.202   5.476  0.1090  0.1887  0.2193
21372SOL    HW175841   3.223  10.165   5.525  1.0558 -2.4864 -2.9121
21372SOL    HW275842   3.171  10.188   5.384 -2.9247  2.1904 -0.9867
21373SOL     OW75843  11.344   4.981  11.327  0.2918  0.2721 -0.5663
21373SOL    HW175844  11.406   4.968  11.398 -0.6345  1.1809  0.4339
21373SOL    HW275845  11.385   4.938  11.252  1.8443  0.3294  0.2063
21374SOL     OW75846  12.284   8.090   9.628 -0.8976 -0.3488 -0.1325
21374SOL    HW175847  12.250   8.007   9.661 -0.8386 -0.9743 -1.6022
21374SOL    HW275848  12.340   8.123   9.699  0.6335 -2.4869 -0.2646
21375SOL     OW75849   0.405   9.601  12.601  0.3210 -0.6682 -0.1468
21375SOL    HW175850   0.367   9.683  12.570  1.1567 -0.4070 -0.5109
21375SOL    HW275851   0.498   9.622  12.615  0.6704 -1.7034 -0.8274
21376SOL     OW75852  11.671   4.539   2.190 -0.2539  0.0502  0.1200
21376SOL    HW175853  11.629   4.468   2.141 -1.4829 -0.6616  2.0847
21376SOL    HW275854  11.617   4.616   2.173  0.1150  0.1480 -0.6779
21377SOL     OW75855   1.990   0.428   1.587  0.2590 -0.3645 -0.4213
21377SOL    HW175856   1.952   0.344   1.562  0.6736 -0.1220 -1.9780
21377SOL    HW275857   2.053   0.447   1.517  0.0753  1.3045 -0.1720
21378SOL     OW75858   8.846   2.513   0.344 -0.4326  0.0384  0.7051
21378SOL    HW175859   8.768   2.468   0.377 -1.2017  0.7871 -0.0475
21378SOL    HW275860   8.820   2.547   0.259  1.9236 -3.1418 -1.5404
21379SOL     OW75861   9.994   9.156   3.438 -0.0863 -0.1275  0.2715
21379SOL    HW175862   9.904   9.152   3.406 -0.4856 -1.2581  1.4604
21379SOL    HW275863  10.046   9.119   3.366 -0.2720  2.2851 -1.2272
21380SOL     OW75864   4.895   8.380   9.832  0.3032 -0.0708  0.8034
21380SOL    HW175865   4.842   8.428   9.769 -0.7853 -0.8065  1.1302
21380SOL    HW275866   4.985   8.398   9.806 -0.0848  1.5813  0.5149
21381SOL     OW75867  11.455   8.168  12.734  0.0652  0.6950  0.9483
21381SOL    HW175868  11.400   8.104  12.688  1.0934 -1.2761  2.3319
21381SOL    HW275869  11.528   8.117  12.769  2.3090  3.0310  0.0478
21382SOL     OW75870   0.186   4.237   1.129  0.4360  0.0413 -0.4036
21382SOL    HW175871   0.143   4.321   1.110 -1.0180 -0.4231  0.6370
21382SOL    HW275872   0.251   4.228   1.060 -0.5600  1.2118 -1.5657
21383SOL     OW75873  12.810   5.797   0.193 -0.1422  0.4451  0.0737
21383SOL    HW175874  12.855   5.842   0.121 -0.0389  1.5628  0.8211
21383SOL    HW275875  12.795   5.709   0.159  0.1072  0.8744 -1.2389
21384SOL     OW75876   3.494   9.502  12.749  0.2784 -0.3267 -0.5464
21384SOL    HW175877   3.579   9.506  12.705  0.5257  0.1453 -0.0400
21384SOL    HW275878   3.496   9.574  12.812 -0.5732 -0.2019 -0.6558
21385SOL     OW75879   0.765   0.891  10.479 -0.2080 -0.1731 -0.1717
21385SOL    HW175880   0.818   0.892  10.399  0.1512 -0.5031  0.0574
21385SOL    HW275881   0.694   0.953  10.462  0.5334  0.6506 -0.2884
21386SOL     OW75882  13.137   8.669   6.602  0.0093 -0.2047 -0.0501
21386SOL    HW175883  13.136   8.709   6.689  0.9340  0.3616 -0.2903
21386SOL    HW275884  13.160   8.740   6.543  1.9855 -1.0996 -0.4496
21387SOL     OW75885   1.880   4.406   5.085 -0.5208  0.1635  0.2825
21387SOL    HW175886   1.807   4.357   5.047 -0.2080  1.6457 -2.5607
21387SOL    HW275887   1.840   4.459   5.154 -1.9010  0.0042 -0.3575
21388SOL     OW75888   5.528   4.172  11.050  0.5582  0.0931  0.1233
21388SOL    HW175889   5.550   4.252  11.002  0.3385  0.6704  0.9747
21388SOL    HW275890   5.602   4.113  11.032  0.9448  0.6423 -0.1395
21389SOL     OW75891   5.700  12.157  13.048 -0.2408 -0.8135 -0.3145
21389SOL    HW175892   5.742  12.105  13.117 -0.6227 -1.1042 -0.3008
21389SOL    HW275893   5.684  12.095  12.977 -2.3810 -1.1713  0.4032
21390SOL     OW75894   1.981   0.254  13.129  0.7541  0.6642  0.2902
21390SOL    HW175895   2.020   0.327  13.176  0.9456 -0.1574  1.4371
21390SOL    HW275896   1.904   0.291  13.086  0.0143  1.2245  2.0495
21391SOL     OW75897  10.813   6.607   8.540 -0.1627  0.7068  0.1475
21391SOL    HW175898  10.868   6.547   8.591  0.0014  0.4132 -0.3687
21391SOL    HW275899  10.727   6.600   8.581 -0.0606  0.3887  0.3193
21392SOL     OW75900   6.801  12.374   1.869 -0.3430 -0.8409  0.0927
21392SOL    HW175901   6.881  12.417   1.838 -0.5945  0.2716  0.9207
21392SOL    HW275902   6.781  12.308   1.802  0.9852 -0.7967 -0.3721
21393SOL     OW75903  13.624  13.471   6.227  0.0287  1.1234  0.1450
21393SOL    HW175904  13.609  13.377   6.241  0.8940  0.9413 -0.0693
21393SOL    HW275905  13.565  13.514   6.288 -1.3893  0.4689 -0.7200
21394SOL     OW75906   0.766   9.265   9.471 -0.1549  0.0539  0.1265
21394SOL    HW175907   0.768   9.360   9.479  0.4243  0.1517 -1.0813
21394SOL    HW275908   0.820   9.246   9.395 -1.2391 -1.1690 -0.3658
21395SOL     OW75909   0.641   7.943  11.419  0.5229 -0.1279 -0.5253
21395SOL    HW175910   0.631   7.957  11.324  1.8997 -1.8687 -0.9682
21395SOL    HW275911   0.570   7.994  11.458 -1.0623 -0.6440 -2.5853
21396SOL     OW75912  12.845  12.841  11.374 -0.4441 -0.3147 -0.0766
21396SOL    HW175913  12.800  12.758  11.390 -0.4289 -0.3753 -0.3497
21396SOL    HW275914  12.938  12.820  11.381 -0.4525 -0.1898  0.4851
21397SOL     OW75915  10.178   9.887   6.189  0.4625  0.1584 -0.3327
21397SOL    HW175916  10.129   9.813   6.226  0.2716  1.1715  1.5248
21397SOL    HW275917  10.119   9.923   6.122 -0.4334  0.0658  0.3923
21398SOL     OW75918   6.501  11.190   8.251 -0.0625 -0.2087  0.2035
21398SOL    HW175919   6.581  11.215   8.206 -1.6687 -0.6230 -3.2101
21398SOL    HW275920   6.513  11.098   8.271  0.5524 -0.1095  0.3205
21399SOL     OW75921   8.593   8.153   7.752 -0.2375  0.4028 -0.0541
21399SOL    HW175922   8.505   8.152   7.790 -0.3262  0.7610 -0.2475
21399SOL    HW275923   8.652   8.142   7.827 -0.4402  0.3796  0.1008
21400SOL     OW75924   3.569   2.421   4.060 -0.3091 -0.2723 -0.4371
21400SOL    HW175925   3.486   2.388   4.025  0.0854 -1.5459 -0.1912
21400SOL    HW275926   3.630   2.416   3.987 -0.8494  2.4501 -1.1964
21401SOL     OW75927   7.384  10.200   0.233 -0.1120 -0.2362 -0.3233
21401SOL    HW175928   7.414  10.199   0.324  1.4091 -0.4936 -0.7997
21401SOL    HW275929   7.299  10.243   0.236 -1.5212 -2.8960  1.6319
21402SOL     OW75930   4.041   6.452   9.539 -0.2998  0.4827 -0.0196
21402SOL    HW175931   4.031   6.357   9.531  0.9689  0.2985  0.3014
21402SOL    HW275932   4.135   6.465   9.547 -0.4015  1.8461 -0.8287
21403SOL     OW75933   9.816  13.441   1.146 -0.3468  0.0953  0.4171
21403SOL    HW175934   9.910  13.434   1.163 -0.3095 -0.6211 -0.0489
21403SOL    HW275935   9.788  13.350   1.132 -1.1179  0.3004  0.5959
21404SOL     OW75936   9.170   8.075   9.320  0.0524  0.2397  0.5745
21404SOL    HW175937   9.156   8.128   9.398 -0.8074 -0.1688  0.7123
21404SOL    HW275938   9.264   8.060   9.317  0.0573 -0.0324  1.7299
21405SOL     OW75939   1.045   7.368   6.128 -0.6800 -0.6681  0.4698
21405SOL    HW175940   1.077   7.364   6.218 -0.9004 -0.1669  0.5789
21405SOL    HW275941   1.119   7.401   6.077 -0.2727 -1.7992  0.3117
21406SOL     OW75942  10.526  12.826   2.597  0.4056  0.5901  0.2632
21406SOL    HW175943  10.588  12.892   2.566 -0.1283  0.6662 -0.6969
21406SOL    HW275944  10.574  12.743   2.587  0.1789  0.5877 -1.0403
21407SOL     OW75945   7.120  11.161   1.303  0.1778  0.1655 -0.7237
21407SOL    HW175946   7.051  11.103   1.337 -0.7186  0.2963 -2.1970
21407SOL    HW275947   7.074  11.219   1.242  1.7077 -0.3405 -2.4756
21408SOL     OW75948   7.402   2.530  12.461 -1.1401 -0.1526 -0.2601
21408SOL    HW175949   7.319   2.577  12.463 -1.2103 -0.2283 -1.0339
21408SOL    HW275950   7.411   2.502  12.370 -0.6298 -0.7961 -0.0186
21409SOL     OW75951   9.035  11.164  10.781 -0.8084  0.5913  0.2179
21409SOL    HW175952   9.045  11.150  10.875  1.6139  3.0268  0.4711
21409SOL    HW275953   9.123  11.152  10.746 -0.6054  4.1595 -0.9142
21410SOL     OW75954   6.594   2.837   6.809  0.1938  0.1978  0.2023
21410SOL    HW175955   6.647   2.832   6.889  0.3770 -1.6615  0.0007
21410SOL    HW275956   6.569   2.929   6.803  2.3175  0.8866  1.0136
21411SOL     OW75957   6.436   8.435  12.289  0.3847 -0.0647  0.2639
21411SOL    HW175958   6.437   8.522  12.330  0.5317 -0.4085  0.9932
21411SOL    HW275959   6.462   8.452  12.198  0.2263  0.6781  0.3459
21412SOL     OW75960   6.776   2.362   7.101  0.0819 -0.4526 -0.1375
21412SOL    HW175961   6.717   2.288   7.086 -1.2552  0.5570 -0.0233
21412SOL    HW275962   6.719   2.435   7.122  1.3366  0.7445 -0.6904
21413SOL     OW75963   0.552   5.711   2.784 -0.9833  0.1344  0.4210
21413SOL    HW175964   0.636   5.736   2.744 -1.1745  0.1288  0.0142
21413SOL    HW275965   0.507   5.794   2.799 -1.8580  0.0510 -1.4491
21414SOL     OW75966  11.695   9.800   6.113 -0.1539 -0.1207 -0.3187
21414SOL    HW175967  11.657   9.813   6.026 -0.1069  0.5950 -0.2437
21414SOL    HW275968  11.744   9.719   6.107  0.2579  0.1782 -1.1026
21415SOL     OW75969   7.762   8.603   3.358 -0.4281  0.0166  0.4240
21415SOL    HW175970   7.806   8.541   3.415  0.0919  1.2573  1.4198
21415SOL    HW275971   7.692   8.553   3.317  0.0091 -1.2241  1.1639
21416SOL     OW75972   5.620  10.122   0.470  0.4057 -0.0844  0.4176
21416SOL    HW175973   5.696  10.104   0.413  0.1242 -1.3291  0.4133
21416SOL    HW275974   5.608  10.217   0.464  0.8965 -0.0819 -0.9537
21417SOL     OW75975   1.628   5.645  11.649 -0.6577  0.3056  0.9680
21417SOL    HW175976   1.650   5.553  11.641 -0.9669  0.1454  1.8235
21417SOL    HW275977   1.699   5.691  11.605 -0.8243 -0.3613 -0.0234
21418SOL     OW75978  11.789   3.455   3.642  0.2869  0.0911 -0.9729
21418SOL    HW175979  11.846   3.391   3.685  0.6783  0.6144 -0.7050
21418SOL    HW275980  11.757   3.510   3.713 -0.1383  0.1212 -1.1885
21419SOL     OW75981  13.344   8.342   8.586  0.0195  0.6140 -0.4186
21419SOL    HW175982  13.359   8.248   8.582 -0.5900  0.4466  0.7814
21419SOL    HW275983  13.428   8.381   8.561  1.1759 -0.2707  1.8145
21420SOL     OW75984   3.596   1.825   6.632  0.1141 -0.3211  0.8584
21420SOL    HW175985   3.655   1.750   6.643  0.5873  0.0042  0.6081
21420SOL    HW275986   3.531   1.815   6.701 -0.9410 -1.9938 -0.3213
21421SOL     OW75987   5.546   3.332  13.121 -0.1037 -0.1101  0.0177
21421SOL    HW175988   5.609   3.274  13.077  0.0135  0.7125 -0.9590
21421SOL    HW275989   5.473   3.275  13.145  0.8876 -1.0448  0.9571
21422SOL     OW75990  13.095   2.967   3.448  0.5160  0.5194 -0.4316
21422SOL    HW175991  13.165   2.919   3.402  1.1009  0.9815 -0.0426
21422SOL    HW275992  13.034   2.992   3.379  0.4824 -0.3131 -0.7147
21423SOL     OW75993   7.482   5.360  11.773 -0.5612  0.2992  0.2600
21423SOL    HW175994   7.539   5.283  11.776 -2.0727 -1.0777 -2.3285
21423SOL    HW275995   7.540   5.432  11.752  0.4244 -0.8553 -1.1612
21424SOL     OW75996  13.258   6.093  12.169  0.2193 -0.6023  0.0836
21424SOL    HW175997  13.246   6.139  12.086 -0.2426  0.2347  0.6011
21424SOL    HW275998  13.189   6.127  12.226 -0.2588 -2.0855  0.4358
21425SOL     OW75999  13.455  12.827   4.784  0.2323 -0.1719  0.3718
21425SOL    HW176000  13.454  12.795   4.874  0.7941  0.3250  0.5581
21425SOL    HW276001  13.402  12.906   4.785  2.2664  1.2731  0.8338
21426SOL     OW76002   2.611   4.758   5.897  0.6348  0.1326 -0.0739
21426SOL    HW176003   2.539   4.820   5.894 -0.7221 -1.3910 -0.4803
21426SOL    HW276004   2.585   4.695   5.964  1.7832 -0.2387  0.0469
21427SOL     OW76005  11.302   2.385   9.104 -0.1467  0.4089  0.2826
21427SOL    HW176006  11.385   2.413   9.144  0.4281  1.4174 -1.4997
21427SOL    HW276007  11.322   2.300   9.066  0.0424  0.5847 -0.0182
21428SOL     OW76008   9.088   0.511   3.274 -0.0674 -0.4693  0.0226
21428SOL    HW176009   9.075   0.443   3.208  1.1564 -1.5977  0.8988
21428SOL    HW276010   9.026   0.490   3.343  0.0946 -0.5073  0.1559
21429SOL     OW76011   6.295   1.992  13.416 -0.8731  0.3430  0.6583
21429SOL    HW176012   6.244   2.071  13.434 -0.2647  0.3935  2.3020
21429SOL    HW276013   6.263   1.927  13.479  0.5448  0.1523  1.2218
21430SOL     OW76014   3.879   8.564   7.422 -0.1727 -0.4057  0.2792
21430SOL    HW176015   3.937   8.490   7.441 -0.2570 -0.2842  1.0439
21430SOL    HW276016   3.921   8.610   7.349 -0.3727 -1.4842 -0.5332
21431SOL     OW76017  12.430   9.439   1.406 -0.1623  0.3209  0.0144
21431SOL    HW176018  12.426   9.494   1.327  0.3470 -0.3117 -0.4605
21431SOL    HW276019  12.342   9.445   1.443 -0.6179  0.0867 -0.9798
21432SOL     OW76020  11.649   6.827  13.370  0.3891 -0.2092  0.3179
21432SOL    HW176021  11.638   6.802  13.461 -0.1461 -2.1919 -0.2449
21432SOL    HW276022  11.744   6.827  13.357  0.4412 -0.8603  0.6444
21433SOL     OW76023   0.403  11.614   4.165  0.5192  0.0130 -0.3636
21433SOL    HW176024   0.441  11.691   4.122  0.6168 -0.5871 -1.4000
21433SOL    HW276025   0.430  11.540   4.109  0.6724 -0.8051  0.7617
21434SOL     OW76026   5.558   4.333   9.865 -0.7839 -0.1247 -0.2989
21434SOL    HW176027   5.578   4.420   9.898  0.4979 -0.3758 -0.3369
21434SOL    HW276028   5.641   4.285   9.873 -0.6638 -0.4990 -2.9119
21435SOL     OW76029  13.727   3.764   9.040 -0.2133 -0.4182  0.4216
21435SOL    HW176030  13.673   3.810   9.104  1.1678  1.7249  0.1643
21435SOL    HW276031  13.792   3.718   9.092 -0.3029 -0.3166  0.6247
21436SOL     OW76032   3.343   5.374   2.523 -0.4511  0.0776 -0.5104
21436SOL    HW176033   3.273   5.310   2.535  1.0020 -1.2846  1.4222
21436SOL    HW276034   3.382   5.351   2.438  0.5291 -2.2117  0.4710
21437SOL     OW76035   7.890   1.386   2.289 -0.3555  0.4835  0.0517
21437SOL    HW176036   7.798   1.361   2.286 -0.0764 -1.0269  1.9302
21437SOL    HW276037   7.890   1.481   2.280 -2.1307  0.5490  0.4072
21438SOL     OW76038   6.832   6.851  13.002 -0.3164  0.0105  0.0446
21438SOL    HW176039   6.838   6.878  13.094  1.7394  1.2604 -0.3834
21438SOL    HW276040   6.907   6.793  12.990 -0.4292  0.0579 -0.9095
21439SOL     OW76041  10.289   8.635  13.592  0.0607  0.2566  0.2077
21439SOL    HW176042  10.371   8.682  13.604  1.4463 -1.6953 -1.0817
21439SOL    HW276043  10.302   8.582  13.514 -2.4849 -0.0726 -0.1020
21440SOL     OW76044  10.985   7.038   2.395 -0.1397 -0.2367 -0.3498
21440SOL    HW176045  10.921   6.987   2.345 -1.0298  0.6199 -0.1164
21440SOL    HW276046  10.946   7.125   2.402  0.6605  0.0655  0.5548
21441SOL     OW76047   7.655   5.009  12.820  0.1318 -0.2233  0.4892
21441SOL    HW176048   7.627   5.054  12.740 -0.6859  0.7422  1.2899
21441SOL    HW276049   7.650   4.916  12.798  3.1503 -0.0110 -1.6473
21442SOL     OW76050   2.073   3.840   6.551 -0.0011  0.0614 -0.0194
21442SOL    HW176051   2.074   3.891   6.632  1.6294  0.4529 -0.2550
21442SOL    HW276052   1.986   3.800   6.549 -0.4526  0.9024  1.3763
21443SOL     OW76053   0.890   1.783   7.096 -0.0363 -1.0064  0.3995
21443SOL    HW176054   0.919   1.693   7.079 -2.2562 -1.9876  1.3446
21443SOL    HW276055   0.876   1.786   7.191 -0.8604  0.0374  0.2669
21444SOL     OW76056   9.129   0.242  11.760  0.2103 -0.0806 -0.5115
21444SOL    HW176057   9.221   0.215  11.754  0.8525  0.2778  4.0640
21444SOL    HW276058   9.131   0.323  11.810 -2.5871  0.6599 -1.4443
21445SOL     OW76059   7.712   5.524  11.725  0.7937 -0.2562 -0.1036
21445SOL    HW176060   7.701   5.590  11.793  0.2320  0.0740 -0.5113
21445SOL    HW276061   7.804   5.497  11.732  0.5506 -0.7951  1.2970
21446SOL     OW76062   4.905   0.160   1.951  0.2332  0.0474 -0.0725
21446SOL    HW176063   4.890   0.097   2.022 -0.8341  1.2245  0.8020
21446SOL    HW276064   4.939   0.107   1.879 -1.5806 -1.7199  0.2653
21447SOL     OW76065   2.236   5.798   8.841  0.1445 -0.0021 -0.4362
21447SOL    HW176066   2.286   5.834   8.914  0.1397 -0.5992 -0.1284
21447SOL    HW276067   2.289   5.725   8.809  0.3476  0.5157 -1.3088
21448SOL     OW76068   2.264   0.508   3.818 -0.3203  0.7777 -0.3860
21448SOL    HW176069   2.220   0.545   3.895 -0.4684  0.3284 -0.2504
21448SOL    HW276070   2.356   0.503   3.844 -0.6933 -1.6448  0.7094
21449SOL     OW76071   2.063   3.088   2.722 -0.0181  0.1306  0.4629
21449SOL    HW176072   2.127   3.149   2.686 -0.7815  1.9578  2.0335
21449SOL    HW276073   2.102   3.057   2.804 -0.5036  0.0753  0.6773
21450SOL     OW76074   5.877   4.947  11.962  0.4485 -0.3575  0.0918
21450SOL    HW176075   5.923   5.027  11.989  1.0690 -0.5062 -0.5084
21450SOL    HW276076   5.791   4.953  12.005 -0.0230  1.2716 -0.9800
21451SOL     OW76077   2.623  11.254   3.306 -0.6060  0.6113  0.5752
21451SOL    HW176078   2.686  11.220   3.242 -1.0097  2.1037 -0.6843
21451SOL    HW276079   2.543  11.203   3.291 -0.2764 -0.0309  0.9247
21452SOL     OW76080   3.649  12.447  10.625 -0.0200  0.1057  0.1369
21452SOL    HW176081   3.732  12.418  10.663  0.7690  0.3171 -1.3485
21452SOL    HW276082   3.663  12.539  10.604 -0.5794  0.1077 -0.2440
21453SOL     OW76083   0.633   8.570  10.291  0.0092 -0.2032 -0.6321
21453SOL    HW176084   0.714   8.521  10.310 -1.5189 -2.2006  1.2654
21453SOL    HW276085   0.660   8.662  10.293  2.7133 -0.8233 -2.7866
21454SOL     OW76086   8.600   4.086   4.062 -0.2851 -0.3777  0.3971
21454SOL    HW176087   8.561   4.100   3.976  0.6206  0.6281  0.1337
21454SOL    HW276088   8.641   4.169   4.084 -0.0976 -0.7671  1.5997
21455SOL     OW76089   1.913  11.735  11.909 -0.5909 -0.0173 -0.3316
21455SOL    HW176090   1.921  11.667  11.975 -0.3419 -0.2945 -0.6495
21455SOL    HW276091   1.830  11.716  11.865 -0.2570 -0.4312 -0.7805
21456SOL     OW76092  12.927   8.959  10.538 -0.4006 -0.7376  0.0952
21456SOL    HW176093  12.888   8.872  10.525 -1.9659  0.0435 -0.6958
21456SOL    HW276094  12.860   9.020  10.508  0.8862  0.7445  0.1148
21457SOL     OW76095   0.716  11.904   7.191 -0.7814 -0.4695 -0.0186
21457SOL    HW176096   0.713  11.949   7.106  1.4739  0.3168  0.2561
21457SOL    HW276097   0.744  11.815   7.170 -1.6074 -0.6965 -0.2050
21458SOL     OW76098   4.609   5.516   5.854 -0.0739 -0.8427  0.3189
21458SOL    HW176099   4.596   5.421   5.845  0.8230 -1.5971  4.9277
21458SOL    HW276100   4.537   5.545   5.910 -0.2880  1.2814 -0.9505
21459SOL     OW76101  11.749   4.677  12.577  0.2094 -0.0485 -0.4012
21459SOL    HW176102  11.828   4.622  12.582  0.8477  0.9633  2.2139
21459SOL    HW276103  11.716   4.680  12.667 -1.7522  1.0942 -1.1002
21460SOL     OW76104   0.727   7.158  12.296 -0.4493  0.4687 -0.7120
21460SOL    HW176105   0.772   7.101  12.234 -0.5651  0.1523 -0.5058
21460SOL    HW276106   0.797   7.209  12.336 -0.0189 -1.4030  1.0438
21461SOL     OW76107   1.818   0.966   8.215  0.3444 -1.1199 -0.1378
21461SOL    HW176108   1.727   0.942   8.231  0.0276  0.3778  0.4041
21461SOL    HW276109   1.856   0.888   8.172 -0.9525 -2.0636  0.3711
21462SOL     OW76110  13.643   4.437   3.141 -0.3467  0.2223  0.2942
21462SOL    HW176111  13.590   4.418   3.218  0.4807  2.1411  1.4214
21462SOL    HW276112  13.732   4.411   3.166 -0.0564  0.9323  0.0265
21463SOL     OW76113   8.199   0.073   5.802 -0.3136  0.2602 -0.5553
21463SOL    HW176114   8.134   0.064   5.872  0.1524 -0.3321 -0.1881
21463SOL    HW276115   8.246   0.154   5.823 -0.8779  0.6487 -0.7808
21464SOL     OW76116  12.201   7.951   6.280  0.3658  0.4486 -0.4220
21464SOL    HW176117  12.161   7.864   6.271  0.5166  0.1816  1.1176
21464SOL    HW276118  12.291   7.940   6.249  0.5160 -0.0830  0.1671
21465SOL     OW76119   8.884   7.996   1.671  0.2178  0.4228  0.3694
21465SOL    HW176120   8.848   7.938   1.737  1.7415  0.6554  1.4651
21465SOL    HW276121   8.870   8.084   1.707  3.9323  0.5025  2.1348
21466SOL     OW76122   9.393   9.120   0.797  0.2262  0.4423 -0.1553
21466SOL    HW176123   9.472   9.174   0.806  0.0787  0.3818  1.8363
21466SOL    HW276124   9.325   9.181   0.770  0.7217  0.6538 -0.9955
21467SOL     OW76125   5.329   0.207   3.779  0.6435  0.4161 -0.4588
21467SOL    HW176126   5.333   0.112   3.773 -1.3716  0.1801  0.7572
21467SOL    HW276127   5.345   0.226   3.872 -0.0638  1.1522 -0.4723
21468SOL     OW76128   0.139  11.986   4.007  0.3486  0.1941  0.0526
21468SOL    HW176129   0.077  11.920   4.038 -1.0182  1.0332 -0.8192
21468SOL    HW276130   0.154  12.042   4.083 -1.7671  1.3139 -0.2858
21469SOL     OW76131   6.571   7.706   6.573 -0.5784 -0.0822 -0.5118
21469SOL    HW176132   6.634   7.743   6.635 -1.1246  2.1898 -1.1904
21469SOL    HW276133   6.496   7.681   6.628 -0.0609 -0.4888  0.0202
21470SOL     OW76134   5.470  11.138   0.551  0.6314  0.4011  0.0926
21470SOL    HW176135   5.403  11.206   0.548  0.6223  0.4928  1.4605
21470SOL    HW276136   5.553  11.186   0.551  0.6329  0.4116  0.6042
21471SOL     OW76137   6.506   1.388   3.185  0.4505 -0.4295  0.1728
21471SOL    HW176138   6.468   1.309   3.225 -1.3098 -0.3821 -1.2912
21471SOL    HW276139   6.434   1.426   3.134  1.4501  1.7847  0.3147
21472SOL     OW76140  10.895  13.023   9.180  0.3146  0.3044  0.2165
21472SOL    HW176141  10.927  13.059   9.263  1.4387 -0.4139  0.1166
21472SOL    HW276142  10.974  13.006   9.129 -0.1728 -1.8380  0.0737
21473SOL     OW76143  13.066  12.129   0.374 -0.0871  0.6925  0.2230
21473SOL    HW176144  13.030  12.041   0.386 -1.1772  0.6885 -2.3770
21473SOL    HW276145  13.155  12.115   0.341 -0.0535  0.5906  0.3550
21474SOL     OW76146   1.276  10.393  10.931 -0.7916  0.1224  0.1533
21474SOL    HW176147   1.321  10.466  10.974  2.3359 -1.5043 -0.0715
21474SOL    HW276148   1.240  10.431  10.851  0.0853  1.5706  0.4041
21475SOL     OW76149   1.867   5.940   2.685  0.0487  0.1888 -0.0219
21475SOL    HW176150   1.953   5.948   2.643  0.9594  1.2963  1.8860
21475SOL    HW276151   1.813   6.005   2.642  0.9332  1.2412  0.4006
21476SOL     OW76152  13.173   8.057   3.421 -0.0707  0.4408  0.3591
21476SOL    HW176153  13.214   8.102   3.347 -1.0179  0.6052 -0.0808
21476SOL    HW276154  13.213   8.097   3.498  1.4224 -0.2021 -0.0518
21477SOL     OW76155   9.623  13.410  12.107 -0.2676  0.3355 -0.0931
21477SOL    HW176156   9.579  13.333  12.071 -0.3611  0.3639 -0.0414
21477SOL    HW276157   9.630  13.392  12.201 -0.7926  0.6334  0.0059
21478SOL     OW76158   3.127   0.839   3.328 -0.2334  0.1890 -0.7203
21478SOL    HW176159   3.121   0.745   3.342 -0.2695  0.2953  0.0015
21478SOL    HW276160   3.043   0.864   3.291 -1.3775  0.3861  1.8005
21479SOL     OW76161  13.251   0.113   7.609  0.0572 -0.1629  0.3958
21479SOL    HW176162  13.230   0.023   7.585 -2.8714 -0.0869  2.0801
21479SOL    HW276163  13.192   0.167   7.556  1.6767  0.7987 -0.4981
21480SOL     OW76164  11.189  11.336   7.613 -0.7387  0.1616  0.5689
21480SOL    HW176165  11.135  11.343   7.534 -1.9338  0.1459  1.3505
21480SOL    HW276166  11.201  11.242   7.626 -0.8388  0.1509  0.5900
21481SOL     OW76167  12.158   8.522  12.673 -0.2424  0.2466 -0.2192
21481SOL    HW176168  12.195   8.468  12.743 -0.1273 -0.0016 -0.4704
21481SOL    HW276169  12.106   8.462  12.621  0.7804  0.1431 -1.1493
21482SOL     OW76170   6.079   4.302   9.968  0.3302 -0.4229  0.1615
21482SOL    HW176171   6.099   4.353  10.046  0.0773  0.1527 -0.1414
21482SOL    HW276172   6.163   4.262   9.943  0.0168 -2.2700  1.8680
21483SOL     OW76173   0.175  13.312  12.596 -0.2342  0.1176 -0.4085
21483SOL    HW176174   0.115  13.238  12.591 -1.1868  0.5491  2.6161
21483SOL    HW276175   0.134  13.379  12.541 -0.3367 -0.9293 -1.6582
21484SOL     OW76176  12.849  12.550  12.802  0.0147 -0.1812 -0.5899
21484SOL    HW176177  12.754  12.553  12.792 -0.1106  1.0712  0.6806
21484SOL    HW276178  12.871  12.630  12.850  1.7115 -0.4612 -0.8275
21485SOL     OW76179  13.381  11.765   4.325 -0.0026 -0.4296 -0.2809
21485SOL    HW176180  13.404  11.684   4.281  1.9422 -2.6638  4.1669
21485SOL    HW276181  13.457  11.822   4.311  0.6240 -1.1391  0.1337
21486SOL     OW76182   4.661   5.005   3.107 -0.0003  0.5317  0.0450
21486SOL    HW176183   4.712   5.043   3.179  1.1381  1.2516 -1.1073
21486SOL    HW276184   4.726   4.957   3.056 -0.5994  0.9150 -1.0891
21487SOL     OW76185   5.316  13.176   1.124  0.3591  0.1396  0.4876
21487SOL    HW176186   5.352  13.227   1.050 -2.1018 -1.9794 -2.4334
21487SOL    HW276187   5.352  13.089   1.112 -0.6096 -0.4035  1.4073
21488SOL     OW76188   7.384   1.439   2.418 -0.7767 -0.6013 -0.5910
21488SOL    HW176189   7.310   1.494   2.391 -1.2492 -0.4953  0.8245
21488SOL    HW276190   7.366   1.419   2.510  0.9376 -0.6170 -0.2275
21489SOL     OW76191   6.557   8.076   8.034  0.0941  0.0639  0.6421
21489SOL    HW176192   6.495   8.009   8.006  0.0823 -0.8581  2.6873
21489SOL    HW276193   6.530   8.098   8.123  0.3137  2.5893  0.1505
21490SOL     OW76194  12.620   6.498   6.824 -0.1505 -0.6180  0.0178
21490SOL    HW176195  12.561   6.448   6.768  1.0456 -1.5427 -0.4746
21490SOL    HW276196  12.577   6.500   6.909 -0.4511 -2.0912 -0.0776
21491SOL     OW76197   4.289   4.935  13.271 -0.2603 -0.3737  0.0187
21491SOL    HW176198   4.283   4.949  13.366  0.4124  0.6839 -0.0660
21491SOL    HW276199   4.329   4.849  13.262  0.0436 -0.3172  0.7107
21492SOL     OW76200   5.423   3.371   9.458 -0.5028 -0.1571 -0.5257
21492SOL    HW176201   5.371   3.291   9.468  1.0104 -1.6038 -3.1568
21492SOL    HW276202   5.500   3.343   9.409  1.4736  2.4176  0.8817
21493SOL     OW76203  13.278   5.469  12.077  0.2661 -0.2097 -0.1698
21493SOL    HW176204  13.329   5.538  12.034 -0.0061 -0.4504 -0.8987
21493SOL    HW276205  13.308   5.388  12.035 -1.5518 -0.2616 -1.5157
21494SOL     OW76206  13.658   1.181   6.142  0.6619 -0.2557 -0.7013
21494SOL    HW176207  13.742   1.221   6.164  0.5113 -0.7790  0.8951
21494SOL    HW276208  13.650   1.192   6.047  2.2559  0.3165 -0.7827
21495SOL     OW76209  12.502   3.955   6.842 -0.3218  0.2541 -0.6004
21495SOL    HW176210  12.590   3.919   6.828 -0.2092  0.4356 -0.3549
21495SOL    HW276211  12.444   3.882   6.824 -0.0457 -0.5017  1.3539
21496SOL     OW76212   9.015   5.153   9.211 -0.1922 -0.3119 -0.0937
21496SOL    HW176213   8.935   5.116   9.248 -0.7321 -0.1747 -1.0872
21496SOL    HW276214   9.016   5.244   9.241 -0.3634 -0.3391 -0.0071
21497SOL     OW76215  11.505   5.456   5.504  0.3264  0.1105  0.0507
21497SOL    HW176216  11.458   5.429   5.582 -0.1022  1.1876  0.1799
21497SOL    HW276217  11.574   5.391   5.494  0.3753 -0.0556  1.3116
21498SOL     OW76218  13.504   0.565   1.605 -0.5877 -0.0924  0.3588
21498SOL    HW176219  13.528   0.629   1.539 -0.3283 -1.0412 -0.4972
21498SOL    HW276220  13.478   0.487   1.555  1.5033 -1.5248  1.3476
21499SOL     OW76221  13.015   2.813   2.892 -0.3248 -0.1359 -0.1764
21499SOL    HW176222  12.949   2.745   2.878 -1.5127  1.0174 -0.4047
21499SOL    HW276223  12.984   2.887   2.840  0.5529  0.8132  0.6174
21500SOL     OW76224  10.686   2.799   4.176 -0.3468  0.1866 -0.0051
21500SOL    HW176225  10.777   2.769   4.179 -0.9562 -1.7058  2.0316
21500SOL    HW276226  10.675   2.831   4.086  1.9545 -0.6874 -0.6883
21501SOL     OW76227   0.592   0.995   1.830 -0.2408  0.3071 -0.0148
21501SOL    HW176228   0.616   0.936   1.759 -3.0981 -0.7909 -0.2034
21501SOL    HW276229   0.577   1.079   1.788 -2.8569 -0.5528 -1.0322
21502SOL     OW76230  12.602   6.600   2.544  0.2333 -0.3359 -0.8123
21502SOL    HW176231  12.680   6.545   2.537  0.7301  0.3334 -0.5781
21502SOL    HW276232  12.532   6.538   2.567  1.4642 -0.5035  3.4705
21503SOL     OW76233   7.957   5.744  12.727 -0.0172  0.1396 -0.5172
21503SOL    HW176234   8.030   5.784  12.680  0.9766  1.3062  1.8565
21503SOL    HW276235   7.995   5.668  12.771 -0.5857 -0.0699 -0.3691
21504SOL     OW76236   1.116   8.493   5.407 -0.1898 -0.1837  0.2700
21504SOL    HW176237   1.050   8.556   5.436 -0.9541 -0.2005 -1.3380
21504SOL    HW276238   1.183   8.496   5.475 -0.8281  1.4068  0.8824
21505SOL     OW76239   9.290   6.006   5.619 -0.0821  0.3538 -1.1305
21505SOL    HW176240   9.384   6.020   5.610 -0.1248 -0.3947 -3.7554
21505SOL    HW276241   9.275   5.997   5.713  2.2477  1.7649 -0.5633
21506SOL     OW76242   8.410  11.929  10.752  0.1039  0.1965  0.2053
21506SOL    HW176243   8.326  11.961  10.784  1.0536  0.1859  2.9001
21506SOL    HW276244   8.417  11.840  10.787  1.5110  0.4252  0.5425
21507SOL     OW76245   9.705   1.282   3.561 -0.0858  0.1702  0.0831
21507SOL    HW176246   9.776   1.221   3.582 -0.9360 -0.0532  2.6254
21507SOL    HW276247   9.713   1.296   3.467  1.9569 -1.5560 -0.0800
21508SOL     OW76248   5.202   0.184   4.820  0.7505  0.5315 -0.5116
21508SOL    HW176249   5.197   0.175   4.915  1.3881  2.4896 -0.2541
21508SOL    HW276250   5.290   0.154   4.798  1.0254  1.1894 -0.3248
21509SOL     OW76251  11.596   7.383   1.672  0.4588  0.3747 -0.0603
21509SOL    HW176252  11.616   7.476   1.661 -0.4321  0.2987 -3.7159
21509SOL    HW276253  11.680   7.342   1.692  1.4060  1.6796 -1.2076
21510SOL     OW76254   1.600   9.082  10.515 -0.6619 -0.3259  0.6399
21510SOL    HW176255   1.648   9.123  10.587 -0.4201 -0.0369  0.3207
21510SOL    HW276256   1.546   9.153  10.479  1.5622  0.4193 -1.4748
21511SOL     OW76257  10.655   3.310   7.466  0.1091 -0.3151 -0.0311
21511SOL    HW176258  10.568   3.288   7.498 -0.5418  2.2106  0.1916
21511SOL    HW276259  10.650   3.296   7.372  0.0021 -1.6933  0.1579
21512SOL     OW76260   8.091   5.517   0.586 -0.0384 -0.0429  0.0599
21512SOL    HW176261   7.999   5.510   0.610  0.0157  0.3220  0.3778
21512SOL    HW276262   8.122   5.426   0.585 -0.3956 -0.1662 -0.0400
21513SOL     OW76263   9.963   7.184   7.866 -0.4671 -0.0502  0.1457
21513SOL    HW176264  10.015   7.254   7.827 -0.2513  0.1683  0.8077
21513SOL    HW276265   9.976   7.194   7.960 -2.2918  0.4458  0.3759
21514SOL     OW76266   1.881  11.487   0.882 -0.6119  0.1993  0.2614
21514SOL    HW176267   1.934  11.434   0.823  0.3623  0.4088  0.9205
21514SOL    HW276268   1.914  11.576   0.870 -0.0588  0.1825  1.4449
21515SOL     OW76269   9.428   5.501   5.691 -0.6012  0.1310 -0.1966
21515SOL    HW176270   9.519   5.513   5.664 -0.8590  4.0590  0.1435
21515SOL    HW276271   9.380   5.494   5.609 -0.1741 -0.8853 -0.3862
21516SOL     OW76272   9.687   4.453  12.957  0.3020  0.2834 -0.2407
21516SOL    HW176273   9.658   4.541  12.978  0.1881  0.8732 -2.5648
21516SOL    HW276274   9.725   4.460  12.869  0.5628 -1.9243 -0.3818
21517SOL     OW76275   1.104   9.562   9.459 -0.1859  0.0372 -0.1194
21517SOL    HW176276   1.078   9.485   9.510  1.9749 -0.0751  0.9147
21517SOL    HW276277   1.115   9.529   9.369  1.3134 -1.0462  0.4289
21518SOL     OW76278   8.174   8.909  12.290 -0.4230 -0.6660 -0.0544
21518SOL    HW176279   8.167   8.815  12.272 -0.5630 -0.7681  0.5264
21518SOL    HW276280   8.108   8.926  12.357  1.8901 -0.8360  2.4202
21519SOL     OW76281  13.111   8.509   4.582 -0.1463  0.2500  0.2308
21519SOL    HW176282  13.131   8.426   4.539 -0.9051  0.6444 -0.9303
21519SOL    HW276283  13.162   8.507   4.663 -0.7888 -1.7202  0.6468
21520SOL     OW76284  11.286   8.418   2.849  0.3466  0.0464 -0.7721
21520SOL    HW176285  11.322   8.330   2.858 -0.8183 -0.4205 -0.4533
21520SOL    HW276286  11.210   8.407   2.791 -0.4207  0.6458  0.0848
21521SOL     OW76287   5.876  11.775   8.949 -0.2223  0.3013 -0.5861
21521SOL    HW176288   5.811  11.833   8.911  0.0556  1.0930  0.1141
21521SOL    HW276289   5.922  11.738   8.874  0.2678  1.7658 -1.0303
21522SOL     OW76290  10.249  13.018   0.034 -0.2524  0.1811 -0.1772
21522SOL    HW176291  10.200  12.935   0.032 -1.3919  0.8384 -1.8363
21522SOL    HW276292  10.218  13.066  -0.043  1.2432  1.6780  0.0950
21523SOL     OW76293  11.070  12.171   7.347  0.4992  0.3835 -0.0649
21523SOL    HW176294  11.017  12.139   7.421  1.8434 -0.4387  0.5797
21523SOL    HW276295  11.150  12.203   7.387  0.7947  0.9618 -1.0866
21524SOL     OW76296   1.961   8.544  11.331  0.0548 -0.6049 -0.1742
21524SOL    HW176297   2.016   8.575  11.259 -1.0708 -0.3307 -0.9518
21524SOL    HW276298   2.011   8.564  11.410  0.8345  0.1161 -0.8276
21525SOL     OW76299  11.320  10.492   3.890 -0.0592 -0.4949  0.1702
21525SOL    HW176300  11.363  10.544   3.957  0.6388 -0.9749  0.1060
21525SOL    HW276301  11.293  10.556   3.824 -1.0234  0.0173  1.0310
21526SOL     OW76302  12.677   7.557   2.962  0.0164  0.2586  0.0122
21526SOL    HW176303  12.603   7.500   2.941 -0.0764  0.2301  0.4078
21526SOL    HW276304  12.673   7.568   3.057  0.4415  0.3666  0.0218
21527SOL     OW76305   1.158  11.065   0.489  0.6080 -0.2521 -0.3829
21527SOL    HW176306   1.237  11.104   0.452  0.8324  0.2488  0.6012
21527SOL    HW276307   1.186  11.029   0.574 -0.6344  1.8303  0.9964
21528SOL     OW76308   5.349  11.639  12.832  0.9068 -0.1855 -0.8156
21528SOL    HW176309   5.401  11.628  12.912 -1.8374 -2.1458  0.8611
21528SOL    HW276310   5.344  11.734  12.820 -0.4452  0.3290  2.7298
21529SOL     OW76311   1.561   7.690   0.980  0.3266 -0.3506  0.2431
21529SOL    HW176312   1.539   7.693   0.887  1.9258 -1.7918 -0.2411
21529SOL    HW276313   1.516   7.766   1.018  0.5511  0.9413 -1.9036
21530SOL     OW76314   4.148   8.977  11.366 -0.3258  0.1402 -0.0920
21530SOL    HW176315   4.167   8.905  11.426  4.0452  0.9615 -0.1829
21530SOL    HW276316   4.067   9.015  11.400 -3.1748 -4.8738 -0.3179
21531SOL     OW76317   0.625  11.973   4.198  0.0552  0.5675  0.0272
21531SOL    HW176318   0.560  11.948   4.133 -2.5833  1.0964  2.2498
21531SOL    HW276319   0.683  11.898   4.205 -1.0434 -0.4310 -1.1956
21532SOL     OW76320  12.762   1.242  10.338 -0.5667 -0.0567  0.2439
21532SOL    HW176321  12.739   1.227  10.430 -2.5124 -2.6400 -0.5266
21532SOL    HW276322  12.856   1.230  10.334 -0.2371  1.4381  2.0682
21533SOL     OW76323   7.248  10.540   7.341  0.0451  0.1733  0.3832
21533SOL    HW176324   7.196  10.612   7.305 -0.0185 -0.2212 -0.3477
21533SOL    HW276325   7.265  10.484   7.265 -0.1105 -0.7014  0.9903
21534SOL     OW76326   0.556   5.611  13.371 -0.8802  0.7133  0.3779
21534SOL    HW176327   0.553   5.532  13.317  2.0105  0.2353  0.7822
21534SOL    HW276328   0.474   5.610  13.420  0.1446 -3.6081  2.4646
21535SOL     OW76329   5.758   7.476   6.670 -0.1550 -0.5359  0.4118
21535SOL    HW176330   5.732   7.385   6.684 -1.0105 -0.2209  0.9701
21535SOL    HW276331   5.678   7.520   6.641  0.1604  0.1206  0.5094
21536SOL     OW76332   6.560   0.917  12.904  0.4716 -0.0467 -0.1660
21536SOL    HW176333   6.639   0.972  12.909  1.5177 -1.3207 -1.4268
21536SOL    HW276334   6.537   0.918  12.811 -2.1129  1.6991  0.4014
21537SOL     OW76335   9.573   3.052  13.317  0.1326 -0.4489 -0.1312
21537SOL    HW176336   9.493   3.020  13.275  0.3704 -1.6759  0.3101
21537SOL    HW276337   9.581   3.142  13.287 -3.1415  0.8496  2.2295
21538SOL     OW76338   3.714  12.379   3.155  0.0117  0.2098  0.4068
21538SOL    HW176339   3.715  12.474   3.154 -0.4253  0.2168 -0.9358
21538SOL    HW276340   3.626  12.355   3.127  0.1164 -0.5987  0.7250
21539SOL     OW76341  10.072   4.617  12.520  0.2770 -0.7176  0.1559
21539SOL    HW176342  10.065   4.555  12.592 -2.1758 -0.7428 -0.0429
21539SOL    HW276343  10.020   4.579  12.449  2.0187 -0.3351 -1.4347
21540SOL     OW76344   2.635  10.207   8.172  0.3379 -0.0723 -0.0925
21540SOL    HW176345   2.689  10.132   8.145 -0.5791 -0.4396 -0.9604
21540SOL    HW276346   2.644  10.269   8.100 -0.5697 -0.2344 -0.3592
21541SOL     OW76347   1.801   7.047   2.339 -0.0555  0.3424 -0.2084
21541SOL    HW176348   1.800   7.107   2.265  0.3403 -0.8592 -1.2258
21541SOL    HW276349   1.893   7.044   2.366  0.1615 -0.7901 -1.0182
21542SOL     OW76350   6.632   5.012  12.510  0.2925  0.1579  0.2096
21542SOL    HW176351   6.540   5.013  12.483 -0.1738 -0.4847  1.6496
21542SOL    HW276352   6.661   4.922  12.495  0.2064 -0.0484  1.1807
21543SOL     OW76353   7.897  10.886   9.607  0.1085 -0.3646  0.2695
21543SOL    HW176354   7.819  10.939   9.619 -0.1429 -0.7563  0.3938
21543SOL    HW276355   7.970  10.945   9.628 -0.1438  0.0493 -0.0243
21544SOL     OW76356  10.425   3.706   1.034 -0.2378 -0.1386  0.1691
21544SOL    HW176357  10.501   3.670   1.079  1.0228  0.2145 -1.5951
21544SOL    HW276358  10.351   3.657   1.071  0.6680  0.1987  2.6423
21545SOL     OW76359  10.697  10.630  13.159  0.1098  0.2836  0.2128
21545SOL    HW176360  10.665  10.559  13.214  0.2081  1.0286  1.2768
21545SOL    HW276361  10.708  10.704  13.220  0.0496  1.1892 -0.8420
21546SOL     OW76362  12.053   4.536   3.522  0.3308  0.0828 -1.1101
21546SOL    HW176363  12.135   4.567   3.559  0.3133  0.1479 -1.1268
21546SOL    HW276364  12.049   4.574   3.435 -0.2443  0.9881 -0.7016
21547SOL     OW76365   7.161   2.284   1.184  0.0467 -0.2597 -0.6009
21547SOL    HW176366   7.127   2.250   1.267  0.6033  1.1903  0.2528
21547SOL    HW276367   7.094   2.263   1.120 -0.0103 -2.2065  0.0236
21548SOL     OW76368   8.072   8.519   8.709  0.1375  0.3811 -0.5338
21548SOL    HW176369   8.061   8.609   8.677  0.2449  0.7138  0.3442
21548SOL    HW276370   8.000   8.507   8.771  0.6512  0.1747  0.0291
21549SOL     OW76371   3.075   6.825   5.455  0.5464  0.7310  0.6380
21549SOL    HW176372   3.074   6.783   5.542  0.8256 -0.6928 -0.0122
21549SOL    HW276373   3.016   6.772   5.402  0.8106  1.2517 -0.1927
21550SOL     OW76374  13.307   2.718   1.625  0.8003  0.3694 -0.0356
21550SOL    HW176375  13.285   2.681   1.710 -0.9665  2.0688  0.3017
21550SOL    HW276376  13.325   2.642   1.570 -1.7629 -0.9829  0.8632
21551SOL     OW76377   3.734   4.192  10.512 -0.4379 -0.1245  0.3137
21551SOL    HW176378   3.753   4.250  10.438 -0.0436 -1.1605 -0.4253
21551SOL    HW276379   3.642   4.210  10.533 -1.1106 -1.0265 -1.5807
21552SOL     OW76380   1.370   6.880  11.050  0.4469 -0.3341  0.2575
21552SOL    HW176381   1.422   6.927  11.115 -0.8396  1.8548 -0.1842
21552SOL    HW276382   1.429   6.871  10.975  0.2128  2.3853 -0.3556
21553SOL     OW76383   0.223  11.783   1.027  0.4342  0.0619  0.5370
21553SOL    HW176384   0.176  11.814   0.950 -1.2504 -1.0444  1.0609
21553SOL    HW276385   0.307  11.753   0.993 -0.9696 -2.2137 -1.2734
21554SOL     OW76386   3.287  10.808   6.609  0.2712 -0.0990 -0.0754
21554SOL    HW176387   3.293  10.716   6.584 -1.5107 -0.0314 -0.9512
21554SOL    HW276388   3.331  10.855   6.538  0.4765 -0.2364 -0.0386
21555SOL     OW76389   5.374   9.799   1.259  0.1344 -0.0377 -0.2939
21555SOL    HW176390   5.415   9.884   1.241  0.1925 -0.0221 -0.0858
21555SOL    HW276391   5.312   9.817   1.329  1.0933 -0.4294  0.6841
21556SOL     OW76392   9.236   8.603  12.256 -0.7716 -0.4061 -0.2829
21556SOL    HW176393   9.170   8.672  12.249 -0.9799 -0.0599  3.2467
21556SOL    HW276394   9.290   8.629  12.331  2.6481 -1.3414 -2.1936
21557SOL     OW76395   6.586   8.795   1.435 -0.7856  0.2063  0.3025
21557SOL    HW176396   6.521   8.866   1.442  0.7584  1.6848  0.3302
21557SOL    HW276397   6.648   8.812   1.506  0.0864 -0.6900 -0.2203
21558SOL     OW76398   0.211   4.120   8.554  0.1772 -0.2088 -0.4717
21558SOL    HW176399   0.225   4.214   8.566  2.0637 -0.5181  0.0774
21558SOL    HW276400   0.204   4.086   8.643  2.1039 -0.9053 -0.5415
21559SOL     OW76401   8.896   8.764  13.151 -0.5104  0.0828 -0.0703
21559SOL    HW176402   8.810   8.764  13.192 -0.4248  0.2984  0.1102
21559SOL    HW276403   8.879   8.785  13.059 -1.0623 -3.4302 -0.9321
21560SOL     OW76404  11.226   3.751  13.653  0.0376  0.0523  0.1291
21560SOL    HW176405  11.147   3.718  13.610 -0.7926  0.7562  1.0620
21560SOL    HW276406  11.277   3.673  13.674  0.4664 -0.3253 -2.0568
21561SOL     OW76407   4.621   0.819   8.392 -0.6797 -0.2339  0.3244
21561SOL    HW176408   4.544   0.778   8.432  0.9491 -2.6711  1.1191
21561SOL    HW276409   4.689   0.752   8.394  2.1317  2.3853  1.4443
21562SOL     OW76410  11.147   6.869  11.917 -0.1623 -0.0901  0.1139
21562SOL    HW176411  11.070   6.898  11.868 -0.8797 -1.2320  0.5270
21562SOL    HW276412  11.216   6.930  11.892 -0.4477 -0.7039 -2.4358
21563SOL     OW76413   2.498   5.075   2.068 -0.5084  0.3715  0.3496
21563SOL    HW176414   2.405   5.101   2.067 -0.0699  2.0340 -0.0893
21563SOL    HW276415   2.497   4.985   2.100 -2.3571  0.0159 -0.5651
21564SOL     OW76416  13.227   7.681   7.941 -0.0223 -0.2660  0.6652
21564SOL    HW176417  13.307   7.689   7.993 -0.0216  2.2821  0.3942
21564SOL    HW276418  13.157   7.705   8.001 -0.3143 -0.0676  0.2503
21565SOL     OW76419  13.342  12.419   3.629 -0.1679 -0.1057  0.3357
21565SOL    HW176420  13.429  12.387   3.656  0.5174  1.3631 -0.0226
21565SOL    HW276421  13.302  12.450   3.711 -0.0883 -0.1756  0.4014
21566SOL     OW76422   1.719   1.455   8.122 -0.0510  0.5143  0.5288
21566SOL    HW176423   1.727   1.476   8.216 -0.2012  0.0089  0.6559
21566SOL    HW276424   1.730   1.360   8.117  0.3312  0.5817 -0.0152
21567SOL     OW76425   4.470  10.979   9.299 -0.3076 -0.3995 -0.0658
21567SOL    HW176426   4.462  10.925   9.378 -2.1957 -1.7283 -1.0797
21567SOL    HW276427   4.505  10.919   9.233  1.4735  0.7580 -0.2389
21568SOL     OW76428   4.707   9.204  10.697  0.0524  0.1934 -0.0847
21568SOL    HW176429   4.796   9.238  10.702  0.5669 -1.1110  0.0822
21568SOL    HW276430   4.715   9.122  10.650 -0.9673 -0.2601  0.4892
21569SOL     OW76431   4.617   4.169   5.873  0.1086 -0.2935  0.7976
21569SOL    HW176432   4.652   4.175   5.785 -1.0370 -0.8066  0.2886
21569SOL    HW276433   4.617   4.076   5.893 -0.6752 -0.2852  0.8886
21570SOL     OW76434   7.447   9.413   6.442  0.4632 -0.0059  0.2290
21570SOL    HW176435   7.496   9.331   6.452 -0.4642 -0.6820 -0.5176
21570SOL    HW276436   7.419   9.436   6.530  3.1875  1.1262  0.8978
21571SOL     OW76437   1.644   2.837   6.453  0.2578 -0.0352 -0.2657
21571SOL    HW176438   1.604   2.867   6.372  0.1546 -1.1652 -0.6449
21571SOL    HW276439   1.637   2.912   6.512 -2.6869 -0.2542 -0.1860
21572SOL     OW76440   1.754   8.632   0.023  0.3449 -0.1299 -0.0576
21572SOL    HW176441   1.795   8.581   0.092 -1.7796  0.5939  1.8926
21572SOL    HW276442   1.827   8.670  -0.027  1.9367 -2.4087  0.4112
21573SOL     OW76443   4.069  12.135   2.122 -0.0211  0.0611  0.1164
21573SOL    HW176444   4.070  12.053   2.072  1.0072 -0.0229  0.2501
21573SOL    HW276445   3.998  12.186   2.082  0.7063 -0.0384 -1.3949
21574SOL     OW76446   5.106   4.169   8.589 -0.0123 -0.0000  0.2231
21574SOL    HW176447   5.110   4.106   8.517  0.7637 -2.8180  2.5341
21574SOL    HW276448   5.012   4.176   8.609 -0.0041 -3.0679  1.9181
21575SOL     OW76449  10.686   4.620   0.118  0.0702 -0.2592  0.0852
21575SOL    HW176450  10.658   4.546   0.063 -0.2700  1.3441 -2.0540
21575SOL    HW276451  10.743   4.672   0.060 -1.0641  2.0305  0.9147
21576SOL     OW76452   0.612   4.876  11.458  0.0077 -0.8008 -0.1496
21576SOL    HW176453   0.680   4.883  11.525  0.0312  3.0615 -0.3551
21576SOL    HW276454   0.660   4.874  11.376 -0.0780 -0.6854 -0.2032
21577SOL     OW76455   1.656  12.954   1.436  0.7268 -0.3041 -0.2080
21577SOL    HW176456   1.634  12.861   1.429  3.2717 -1.1947  1.9922
21577SOL    HW276457   1.636  12.976   1.527  2.1794  0.6791 -0.0957
21578SOL     OW76458  13.330   0.521   1.806  0.2905  0.1728 -0.1575
21578SOL    HW176459  13.393   0.537   1.736  0.2384  0.5697 -0.1179
21578SOL    HW276460  13.379   0.472   1.872  0.1965 -0.6595 -0.6920
21579SOL     OW76461  10.617   6.004   1.078  0.1488 -0.0962 -0.2938
21579SOL    HW176462  10.674   6.067   1.121 -0.5101 -0.9554  1.9665
21579SOL    HW276463  10.670   5.925   1.070 -0.9064 -1.2280  2.7503
21580SOL     OW76464   1.044   5.527  10.257 -0.6467  0.1435 -0.3201
21580SOL    HW176465   1.113   5.481  10.304 -1.3574 -0.7060 -0.0782
21580SOL    HW276466   0.986   5.561  10.326 -0.5857  0.6688 -0.5231
21581SOL     OW76467   8.634   9.817   9.307 -0.0973 -0.0992 -0.7969
21581SOL    HW176468   8.703   9.855   9.361 -0.3882  0.4812 -0.8286
21581SOL    HW276469   8.681   9.777   9.233  0.1677  0.9388 -1.2107
21582SOL     OW76470  10.273  12.070   6.232 -0.1243  0.6949  0.3323
21582SOL    HW176471  10.367  12.081   6.220 -0.0122 -0.0293  0.4727
21582SOL    HW276472  10.263  11.978   6.257 -1.2245 -0.4505 -3.6025
21583SOL     OW76473  12.655   0.860   0.925  0.0190  0.2726 -0.0851
21583SOL    HW176474  12.582   0.801   0.945  1.8576 -1.3134  2.4496
21583SOL    HW276475  12.614   0.946   0.919 -2.0191 -0.4333  2.1083
21584SOL     OW76476  11.739   6.962   0.785 -0.7385 -0.3615 -0.1090
21584SOL    HW176477  11.763   6.879   0.825 -0.2130  0.1192  0.6096
21584SOL    HW276478  11.653   6.983   0.824 -1.1538 -0.8454 -0.7441
21585SOL     OW76479  11.669  11.361   4.659  0.1090  0.3855  0.4588
21585SOL    HW176480  11.636  11.437   4.611 -0.0272 -0.8745 -1.5886
21585SOL    HW276481  11.731  11.397   4.723  1.0847  2.1278 -1.3598
21586SOL     OW76482  12.302   5.678   7.991 -0.2628  0.2779 -0.0948
21586SOL    HW176483  12.285   5.718   7.906 -2.1690  1.8881  0.9521
21586SOL    HW276484  12.364   5.737   8.034  1.8697 -1.2952 -0.8212
21587SOL     OW76485   2.331   3.550   9.073 -0.3377  0.1244  0.4544
21587SOL    HW176486   2.349   3.478   9.133  0.4131 -0.1813 -0.1286
21587SOL    HW276487   2.352   3.629   9.124  3.2532 -0.1824 -0.2760
21588SOL     OW76488  10.440   1.871   0.776 -0.3918 -0.1286  0.5680
21588SOL    HW176489  10.439   1.961   0.745 -0.0631 -0.3615 -0.1430
21588SOL    HW276490  10.445   1.878   0.872  0.2147  0.5969  0.4870
21589SOL     OW76491  12.404   2.365   3.276  0.3830 -0.2608 -0.0157
21589SOL    HW176492  12.390   2.377   3.370 -0.1419 -0.2592 -0.0872
21589SOL    HW276493  12.392   2.271   3.261 -0.6611 -0.1050 -0.2474
21590SOL     OW76494   1.260  13.660   6.741  0.0094 -0.4735  0.5996
21590SOL    HW176495   1.189  13.685   6.799 -0.4205  0.8006 -0.4275
21590SOL    HW276496   1.219  13.653   6.655  0.9171 -0.7820  0.1848
21591SOL     OW76497   8.534   3.295   0.131  0.0426 -0.0080 -0.3324
21591SOL    HW176498   8.583   3.325   0.208 -1.8677  2.1944  0.1165
21591SOL    HW276499   8.528   3.372   0.075 -1.9189 -0.5141 -0.8771
21592SOL     OW76500   9.495   8.146  10.936  0.4154 -0.2818 -0.0966
21592SOL    HW176501   9.570   8.195  10.969  0.4463  0.1002 -0.7229
21592SOL    HW276502   9.427   8.159  11.002  0.4172  0.6219 -0.2602
21593SOL     OW76503   3.718   1.125   2.910 -0.1419 -0.3147  0.1349
21593SOL    HW176504   3.707   1.210   2.953  0.2637 -0.2555  0.1325
21593SOL    HW276505   3.637   1.078   2.927 -0.1531 -0.1312  0.6016
21594SOL     OW76506   8.138  13.502  11.069  0.2263  0.1787  0.1060
21594SOL    HW176507   8.199  13.540  11.006  0.5300  0.4731  0.5642
21594SOL    HW276508   8.191  13.492  11.149 -0.0327 -0.5854  0.1861
21595SOL     OW76509   6.576   2.322   4.650  0.3113  0.5760  1.1346
21595SOL    HW176510   6.667   2.293   4.654  1.5751  3.6249 -1.4071
21595SOL    HW276511   6.553   2.314   4.557 -1.3419  1.7340  1.4094
21596SOL     OW76512   6.197  12.870   2.682 -0.1595 -0.1621 -0.1129
21596SOL    HW176513   6.267  12.844   2.623 -1.3853  1.1856 -2.2897
21596SOL    HW276514   6.214  12.962   2.701 -0.1020 -0.4224  1.2535
21597SOL     OW76515   4.687   8.015   2.167 -0.1816 -0.0017 -0.1550
21597SOL    HW176516   4.782   8.007   2.178  0.0372  1.4703 -0.8427
21597SOL    HW276517   4.673   8.006   2.073 -0.5222  1.6018 -0.2704
21598SOL     OW76518  10.322   0.718   3.092 -0.0035 -0.1505  0.2730
21598SOL    HW176519  10.327   0.624   3.075 -2.3624 -0.3834  0.5231
21598SOL    HW276520  10.336   0.726   3.186 -1.1169 -0.4273  0.4764
21599SOL     OW76521   3.361   4.173   5.492 -0.6410 -0.3374 -0.2083
21599SOL    HW176522   3.339   4.256   5.536 -1.5492 -0.1667 -0.9556
21599SOL    HW276523   3.456   4.175   5.485 -0.6136  0.4308  0.2136
21600SOL     OW76524  11.914  11.270   7.457 -0.1540 -0.0340 -0.3209
21600SOL    HW176525  11.906  11.230   7.544  0.4411  0.8469  0.1486
21600SOL    HW276526  11.884  11.202   7.397  2.5061 -1.9308  0.2811
21601SOL     OW76527   3.547   9.320   8.560  0.1250 -0.2045 -0.0047
21601SOL    HW176528   3.512   9.407   8.540 -0.0273  0.6029  3.1873
21601SOL    HW276529   3.639   9.336   8.580 -0.1161 -0.5943  1.4955
21602SOL     OW76530   3.018   8.274   2.896  0.2178 -0.0745 -0.7762
21602SOL    HW176531   3.072   8.201   2.864  1.1633  0.0294  0.5170
21602SOL    HW276532   3.062   8.352   2.862  1.5613  0.0669  1.1563
21603SOL     OW76533   4.550  11.323   7.267  0.2376  0.5558 -0.4673
21603SOL    HW176534   4.607  11.325   7.344  0.9304  1.2684 -0.9773
21603SOL    HW276535   4.486  11.255   7.286  0.9338  0.1098  0.3619
21604SOL     OW76536   6.135   6.281   4.452 -0.2475  0.4456  0.2655
21604SOL    HW176537   6.147   6.373   4.475  0.7895  0.6145 -0.8703
21604SOL    HW276538   6.221   6.252   4.422  0.5942 -2.0257  4.2325
21605SOL     OW76539  10.755   6.766  11.808 -0.3778 -0.0944 -0.2764
21605SOL    HW176540  10.818   6.829  11.843  0.5163 -0.8105 -0.5485
21605SOL    HW276541  10.790   6.680  11.833 -2.7748 -0.4906  2.1165
21606SOL     OW76542  13.246   8.505   7.257 -0.4291  0.1256 -0.2139
21606SOL    HW176543  13.282   8.593   7.260 -2.5817  1.1739 -1.9996
21606SOL    HW276544  13.322   8.448   7.245  0.9358  1.8097  0.0793
21607SOL     OW76545   0.397  12.391   7.089  0.3489  0.0091  0.1831
21607SOL    HW176546   0.413  12.351   7.175 -0.7977  1.5837  1.1929
21607SOL    HW276547   0.302  12.403   7.086  0.2666 -0.8256 -1.7226
21608SOL     OW76548   0.365   8.685   8.732 -0.6378  0.0339 -0.3691
21608SOL    HW176549   0.354   8.632   8.653  0.1876  0.3794 -0.7232
21608SOL    HW276550   0.298   8.753   8.724  0.2127  0.7891 -1.3946
21609SOL     OW76551   5.240   5.636   6.631  0.5401 -0.3991 -0.2162
21609SOL    HW176552   5.191   5.557   6.651  0.2396 -0.3821 -0.8616
21609SOL    HW276553   5.289   5.615   6.551  0.4436  0.0684 -0.4028
21610SOL     OW76554  12.252   3.285   6.719 -0.6098  0.2006 -0.7913
21610SOL    HW176555  12.168   3.326   6.739 -0.6936  0.4835 -1.7090
21610SOL    HW276556  12.311   3.358   6.703  0.0601  0.0398  0.7082
21611SOL     OW76557  12.778  10.698  13.137 -0.1635 -0.1402 -0.7151
21611SOL    HW176558  12.851  10.661  13.188 -0.2650 -0.9672 -1.1437
21611SOL    HW276559  12.736  10.760  13.197 -0.4560 -1.3056  0.3429
21612SOL     OW76560  11.358  12.139  12.445  0.2848 -0.7200 -0.0614
21612SOL    HW176561  11.430  12.199  12.427 -0.0281 -0.6945 -1.2691
21612SOL    HW276562  11.305  12.139  12.365  0.6030 -3.0304 -0.3485
21613SOL     OW76563   8.357   3.370   4.409  0.3581 -0.2033  0.1112
21613SOL    HW176564   8.418   3.436   4.441  0.7083  0.5816 -2.0331
21613SOL    HW276565   8.270   3.406   4.427  0.5527  0.5558 -0.4302
21614SOL     OW76566   8.771  11.353   3.902 -0.6987 -0.7202 -0.0987
21614SOL    HW176567   8.734  11.388   3.820 -1.2769 -1.6727 -0.2754
21614SOL    HW276568   8.861  11.384   3.903 -0.8989 -0.0780 -0.7291
21615SOL     OW76569  11.828  12.686   6.705 -0.3868  0.3389 -0.2338
21615SOL    HW176570  11.919  12.691   6.676  0.0230  1.3118  1.1521
21615SOL    HW276571  11.780  12.660   6.626  1.0507 -0.0167 -1.0337
21616SOL     OW76572   1.011   7.396  10.275 -0.0764 -0.5830  0.1714
21616SOL    HW176573   1.029   7.452  10.350 -1.5022  1.2529 -0.7767
21616SOL    HW276574   1.096   7.385  10.232  0.6459 -1.1708  1.6685
21617SOL     OW76575   2.538   8.667   3.883  0.3480  0.1381 -0.0612
21617SOL    HW176576   2.552   8.743   3.939  0.7279  0.2935 -0.3640
21617SOL    HW276577   2.448   8.639   3.903 -0.2187  1.3614 -0.7907
21618SOL     OW76578  13.386   5.458   5.687  0.4108 -0.3564 -0.3884
21618SOL    HW176579  13.305   5.410   5.671  0.1389  0.5029 -1.7629
21618SOL    HW276580  13.453   5.391   5.698 -0.1208 -1.0645 -1.3450
21619SOL     OW76581   4.164   2.364   2.471  0.1428 -0.4546  0.3276
21619SOL    HW176582   4.158   2.407   2.556 -2.0493  2.5044 -1.1364
21619SOL    HW276583   4.186   2.434   2.410 -0.5327 -2.0077 -1.8355
21620SOL     OW76584  11.837   7.841   1.701 -0.2177 -0.2286  0.2288
21620SOL    HW176585  11.748   7.806   1.705 -0.2570 -0.1472  0.0484
21620SOL    HW276586  11.872   7.811   1.617 -0.5020  0.7688 -0.2603
21621SOL     OW76587   0.835   8.303  12.313  0.1592 -0.1471 -0.5430
21621SOL    HW176588   0.903   8.315  12.247  0.6297 -0.5460 -0.1462
21621SOL    HW276589   0.879   8.254  12.383 -0.4412 -0.0930 -0.1224
21622SOL     OW76590  11.681   1.870  10.580  1.1401  0.4005  0.2040
21622SOL    HW176591  11.634   1.917  10.649 -0.4744 -0.4602 -0.2721
21622SOL    HW276592  11.676   1.927  10.504 -1.6665 -0.8585 -0.6542
21623SOL     OW76593  11.721  13.057   0.220 -0.0466 -0.7208 -0.1819
21623SOL    HW176594  11.668  12.978   0.228  1.5889 -2.1263 -2.2016
21623SOL    HW276595  11.665  13.118   0.172 -1.1609 -0.7558  1.0088
21624SOL     OW76596  11.047  10.509   2.673  0.3273 -0.1569 -0.4205
21624SOL    HW176597  11.056  10.484   2.581  1.6124 -1.5569  0.0383
21624SOL    HW276598  11.137  10.515   2.705 -0.0970 -0.6034  0.9603
21625SOL     OW76599   6.349   7.201  11.755  0.1012  0.1731  0.3187
21625SOL    HW176600   6.264   7.194  11.712 -0.3501 -0.4384  1.2797
21625SOL    HW276601   6.385   7.112  11.753  0.9452  0.5217 -0.5202
21626SOL     OW76602  12.734   2.801   4.695 -0.3297  0.4223 -0.1754
21626SOL    HW176603  12.812   2.853   4.715 -0.2681  0.4597 -0.5064
21626SOL    HW276604  12.748   2.770   4.605 -0.4502 -0.0154 -0.0458
21627SOL     OW76605  12.163  12.407   4.007  0.7425  0.6273  0.0182
21627SOL    HW176606  12.178  12.499   4.030  0.9585  0.6469 -0.1915
21627SOL    HW276607  12.088  12.409   3.948  1.0341  0.7201 -0.3537
21628SOL     OW76608   3.049   3.665   4.857  0.0380 -0.2957 -0.6140
21628SOL    HW176609   3.129   3.617   4.879  0.2500  0.7223  1.0357
21628SOL    HW276610   2.978   3.614   4.897  0.4097  1.4789  2.6691
21629SOL     OW76611  10.979   8.229   7.200 -0.1882 -0.1782 -0.0899
21629SOL    HW176612  10.962   8.156   7.140 -0.8462 -0.6527  0.6538
21629SOL    HW276613  10.908   8.225   7.264  1.1238 -0.4141  1.4211
21630SOL     OW76614   7.689   7.370  12.734  0.0064 -0.2553  0.1860
21630SOL    HW176615   7.737   7.453  12.733 -0.8032  0.2459 -1.6861
21630SOL    HW276616   7.660   7.360  12.825  1.6909  0.5412  0.8686
21631SOL     OW76617   5.261   6.332   8.566  0.2413  0.1372  0.1076
21631SOL    HW176618   5.347   6.371   8.557  0.2958 -0.2413 -1.4172
21631SOL    HW276619   5.224   6.335   8.477 -1.1453 -0.0786  0.6440
21632SOL     OW76620   6.460  10.554  13.217  0.2546  0.0382 -0.4052
21632SOL    HW176621   6.491  10.610  13.146 -0.4882  0.8055 -0.1439
21632SOL    HW276622   6.474  10.465  13.186  0.6329  0.3665 -1.1996
21633SOL     OW76623  13.437   5.380   1.120  0.4729 -0.1631 -0.1800
21633SOL    HW176624  13.347   5.389   1.151 -0.0153 -0.7096 -1.3760
21633SOL    HW276625  13.430   5.326   1.042  1.6937  0.8410 -1.0260
21634SOL     OW76626   1.640  10.513   0.702 -0.0664  0.5947 -0.1149
21634SOL    HW176627   1.721  10.501   0.751  0.6303  1.3639 -1.0542
21634SOL    HW276628   1.577  10.543   0.767  0.2685 -0.4104  0.7067
21635SOL     OW76629  12.085  12.780  10.953 -0.0164  0.6315  0.8559
21635SOL    HW176630  12.025  12.837  10.999 -0.6366  0.6696  0.0141
21635SOL    HW276631  12.169  12.825  10.957 -0.5291  1.6811  0.0724
21636SOL     OW76632   5.399   8.838   9.947 -0.3021  0.1435 -0.3565
21636SOL    HW176633   5.320   8.812   9.994 -0.2110 -1.6668 -1.1210
21636SOL    HW276634   5.458   8.868  10.016 -0.0352 -2.7641  0.8551
21637SOL     OW76635   6.964  10.573   2.154  0.2391  0.2550 -0.6256
21637SOL    HW176636   6.894  10.634   2.176 -0.3988  0.0244 -1.9159
21637SOL    HW276637   7.037  10.600   2.209 -0.1742  1.8829 -0.8086
21638SOL     OW76638  12.867   6.761  11.750  0.0460  0.1074 -0.5597
21638SOL    HW176639  12.890   6.672  11.724  0.9826 -0.3777  1.6512
21638SOL    HW276640  12.819   6.750  11.833  0.3391  1.6591 -0.1539
21639SOL     OW76641   4.803   5.405  12.945 -0.2646 -0.6592 -0.6020
21639SOL    HW176642   4.776   5.334  13.002  0.1663 -1.3520 -1.2473
21639SOL    HW276643   4.767   5.383  12.859 -1.5048  0.7286 -0.4660
21640SOL     OW76644  11.007   9.616   5.031 -0.4620 -0.2134  0.4220
21640SOL    HW176645  11.102   9.613   5.031 -0.3794  1.5439  0.5698
21640SOL    HW276646  10.982   9.609   4.939 -0.1321  0.2447  0.2940
21641SOL     OW76647   6.737   9.924   8.556 -0.6161  0.0665 -0.0461
21641SOL    HW176648   6.646   9.951   8.568 -0.2156  0.9017  1.3202
21641SOL    HW276649   6.762   9.888   8.642  0.8203  1.3479  0.1023
21642SOL     OW76650   1.014  10.312  11.731  0.0583  0.3120  0.8278
21642SOL    HW176651   1.074  10.376  11.768  1.0708 -0.0482 -0.1365
21642SOL    HW276652   1.054  10.227  11.750  0.3403  0.1053 -0.5878
21643SOL     OW76653   9.017   3.646   9.605  0.7251  0.9322  0.0221
21643SOL    HW176654   9.032   3.700   9.682  0.0677  1.8972 -0.4987
21643SOL    HW276655   9.003   3.709   9.534 -1.2875  0.1199 -0.3839
21644SOL     OW76656  13.023  11.471   1.568 -0.7393 -0.0791 -0.1555
21644SOL    HW176657  13.063  11.548   1.608 -0.7765  0.5644 -1.3042
21644SOL    HW276658  13.075  11.397   1.598  0.6048  0.6247 -0.6977
21645SOL     OW76659   3.565  11.971   2.649 -0.3123 -0.1370 -0.0674
21645SOL    HW176660   3.625  11.941   2.718  0.5203 -0.6449 -0.9761
21645SOL    HW276661   3.606  12.050   2.614  0.3455 -0.9560 -1.2750
21646SOL     OW76662   1.902   8.818   7.817  0.2610  0.2557 -0.0199
21646SOL    HW176663   1.818   8.864   7.818  0.3304  0.4040 -0.7553
21646SOL    HW276664   1.917   8.797   7.725  0.8762 -0.0547  0.1481
21647SOL     OW76665   1.569  11.655  12.681 -0.3521  0.1095  0.0027
21647SOL    HW176666   1.574  11.742  12.642  0.6030  0.2892  0.4771
21647SOL    HW276667   1.659  11.622  12.675 -0.9616 -1.4358 -1.4720
21648SOL     OW76668  12.064   2.790   8.904  0.5338  0.0746 -0.3015
21648SOL    HW176669  12.029   2.864   8.954  0.2197 -0.9030  0.9747
21648SOL    HW276670  12.159   2.795   8.919  0.2906 -1.5810  2.4898
21649SOL     OW76671  12.373  11.159   8.482  0.2168  0.4683 -0.4028
21649SOL    HW176672  12.449  11.104   8.465 -0.1889 -0.8691  1.7664
21649SOL    HW276673  12.396  11.209   8.560 -0.8608  0.5854 -0.1462
21650SOL     OW76674   0.478   8.721   8.420  0.1613 -0.0997  0.8770
21650SOL    HW176675   0.531   8.742   8.497  0.6032  2.5336 -0.0610
21650SOL    HW276676   0.398   8.682   8.457  1.1497 -0.6806  2.5297
21651SOL     OW76677   4.115   3.182  10.863 -0.5020  0.3498  0.3259
21651SOL    HW176678   4.150   3.171  10.774  0.9071  2.0856  0.5925
21651SOL    HW276679   4.166   3.121  10.917  1.4295  1.9827  0.5002
21652SOL     OW76680   7.828   5.979   8.874  0.0262  0.2989  0.4747
21652SOL    HW176681   7.922   5.979   8.856 -0.3506 -0.9420 -2.0408
21652SOL    HW276682   7.803   5.887   8.873 -1.5272  0.6599 -1.2428
21653SOL     OW76683  11.639   7.393   0.609  0.2272 -0.6241 -0.2437
21653SOL    HW176684  11.671   7.305   0.589 -0.5937 -0.5388 -2.1811
21653SOL    HW276685  11.718   7.446   0.620  0.7657 -1.1047 -1.5695
21654SOL     OW76686   0.629  10.960   4.301 -0.8681  0.3319  0.4410
21654SOL    HW176687   0.631  11.053   4.279  1.2560  0.5094  1.2172
21654SOL    HW276688   0.590  10.918   4.224  1.0603  1.5372 -1.2712
21655SOL     OW76689  11.442   7.190   3.959 -0.1087 -0.1240  0.0397
21655SOL    HW176690  11.448   7.155   4.048 -0.2782 -1.1169 -0.3317
21655SOL    HW276691  11.522   7.162   3.916  1.8532  3.5360  0.9198
21656SOL     OW76692  11.039  13.587   0.876 -0.3630  0.5632  0.0516
21656SOL    HW176693  10.979  13.514   0.892  0.7405 -0.0333  1.7606
21656SOL    HW276694  11.122  13.545   0.852  0.2584  1.2390  0.9554
21657SOL     OW76695  13.083   9.429   7.270  0.3519  0.1240 -0.5222
21657SOL    HW176696  13.061   9.366   7.201 -1.6674 -0.1486  0.2912
21657SOL    HW276697  13.126   9.376   7.338 -2.2179 -0.6836  0.5963
21658SOL     OW76698   3.045   8.868  10.492  0.2980 -0.1985 -0.0412
21658SOL    HW176699   3.025   8.936  10.427  1.7411  0.0043 -0.3216
21658SOL    HW276700   2.992   8.793  10.465 -2.1468  1.1016  0.9030
21659SOL     OW76701   1.606  11.154   3.501  0.3961  0.0767 -0.0090
21659SOL    HW176702   1.673  11.219   3.523  0.8566 -0.4121  0.0595
21659SOL    HW276703   1.536  11.204   3.459  0.0834  0.8366  1.3626
21660SOL     OW76704  11.013   7.634   0.647 -0.0362  0.2787 -0.2201
21660SOL    HW176705  11.033   7.632   0.554 -0.1908 -0.5931 -0.2443
21660SOL    HW276706  10.960   7.713   0.658  0.8544  0.9617 -0.6750
21661SOL     OW76707   7.422  10.692   7.843  0.7613 -0.0634 -0.0312
21661SOL    HW176708   7.335  10.692   7.802 -0.2744  0.1064  2.0158
21661SOL    HW276709   7.440  10.599   7.860  1.2213 -0.1392 -0.8877
21662SOL     OW76710   3.852   2.055   2.533 -0.2372 -0.0892  0.1957
21662SOL    HW176711   3.938   2.040   2.572  0.9450 -1.0066 -2.5312
21662SOL    HW276712   3.866   2.129   2.473 -1.3629 -0.2207 -0.2501
21663SOL     OW76713   5.280   1.538   7.301  0.0383 -0.0333  0.5831
21663SOL    HW176714   5.306   1.617   7.349 -0.8203 -0.0547  1.1114
21663SOL    HW276715   5.281   1.469   7.367  3.7901 -1.2155 -0.4338
21664SOL     OW76716   9.126   1.213  13.651 -0.0225 -0.4101 -0.0149
21664SOL    HW176717   9.168   1.178  13.572 -2.0723  0.6114 -1.6647
21664SOL    HW276718   9.098   1.135  13.700 -1.1962 -1.1534 -1.7431
21665SOL     OW76719  10.007  10.810   3.183 -0.1327  0.8078  0.1593
21665SOL    HW176720   9.919  10.795   3.148 -0.3778  1.2889  0.5483
21665SOL    HW276721  10.065  10.799   3.108 -0.2850 -1.8017  0.3599
21666SOL     OW76722   9.717   5.525   7.255  0.2195 -0.3588 -0.2145
21666SOL    HW176723   9.651   5.529   7.324 -0.2441 -1.6902 -0.5608
21666SOL    HW276724   9.687   5.457   7.196  0.6324  0.7396 -1.7397
21667SOL     OW76725  10.116   9.202  11.344 -0.0244  0.1382 -0.2377
21667SOL    HW176726  10.112   9.116  11.301  1.0203  0.0010 -0.0843
21667SOL    HW276727  10.062   9.192  11.422 -0.4804 -0.1609 -0.5831
21668SOL     OW76728   2.724   4.703  12.469 -0.0986  0.1820  0.2342
21668SOL    HW176729   2.676   4.784  12.487 -0.9858 -0.1718 -0.4692
21668SOL    HW276730   2.786   4.696  12.541  0.6642  1.9860 -0.1863
21669SOL     OW76731   8.621  10.831  11.979 -0.2702 -0.2344  0.4746
21669SOL    HW176732   8.552  10.788  11.928  1.5349  0.1309 -2.4963
21669SOL    HW276733   8.672  10.758  12.016 -0.1943 -0.5573 -0.2578
21670SOL     OW76734  11.077  12.520  10.648  0.1256 -0.1109  0.2516
21670SOL    HW176735  11.027  12.515  10.729 -1.8023  2.3669 -0.6379
21670SOL    HW276736  11.121  12.606  10.651 -0.5806  0.3738 -1.5587
21671SOL     OW76737   7.999   4.486   3.343  0.2179 -0.0772  0.2742
21671SOL    HW176738   8.069   4.422   3.351 -1.9801 -2.7541 -0.4236
21671SOL    HW276739   7.954   4.483   3.427  0.7288  1.4344  0.6297
21672SOL     OW76740   6.235   1.513   6.586  0.2274 -0.2411  0.1284
21672SOL    HW176741   6.308   1.565   6.551 -1.7591  3.1950  0.6230
21672SOL    HW276742   6.277   1.451   6.646  2.7723  1.9887  0.8854
21673SOL     OW76743   5.623   1.287   4.752 -0.2651 -0.2416  0.2994
21673SOL    HW176744   5.612   1.194   4.773  1.9046 -0.4410  0.7578
21673SOL    HW276745   5.542   1.311   4.708 -0.4396 -2.6490 -0.8601
21674SOL     OW76746   3.746   1.264   5.948 -0.1368 -0.5481 -0.2983
21674SOL    HW176747   3.789   1.270   6.033  1.3583  1.2018 -1.0975
21674SOL    HW276748   3.815   1.287   5.885 -1.4523 -0.8109 -1.8928
21675SOL     OW76749   3.002  10.725  13.359 -0.0777  0.5217 -0.6536
21675SOL    HW176750   2.944  10.679  13.420 -1.1421  0.0404 -2.0007
21675SOL    HW276751   3.019  10.809  13.401 -1.7404  0.6666 -0.2169
21676SOL     OW76752  11.953  10.531   0.472  0.1611 -0.1704  0.2241
21676SOL    HW176753  11.988  10.585   0.543  1.1573 -0.5735  0.0632
21676SOL    HW276754  11.895  10.589   0.423 -2.7661 -0.5456  2.8979
21677SOL     OW76755   4.292   2.693   6.510 -0.2154 -0.7982 -0.1793
21677SOL    HW176756   4.272   2.723   6.598 -0.7897 -1.2437 -0.1564
21677SOL    HW276757   4.355   2.622   6.522  1.2397  0.4214 -0.2383
21678SOL     OW76758  11.134   1.975   9.217  0.4003 -0.1590  0.1203
21678SOL    HW176759  11.142   1.893   9.267 -0.9950 -0.1814  0.3582
21678SOL    HW276760  11.220   2.017   9.224  1.2804 -1.7882 -0.3489
21679SOL     OW76761   9.074   1.542  12.492  0.3970 -0.9942  0.3404
21679SOL    HW176762   9.041   1.454  12.504 -0.1732 -0.7090  0.8942
21679SOL    HW276763   9.169   1.533  12.491  0.3828 -1.4404  1.7856
21680SOL     OW76764   6.762  12.502  11.465 -0.4537  0.2921  0.0885
21680SOL    HW176765   6.695  12.499  11.532 -1.3493  0.2152 -0.7877
21680SOL    HW276766   6.718  12.538  11.388  0.0556 -1.3058 -1.0067
21681SOL     OW76767   4.000   4.305   7.167 -0.4317  0.4559  0.1970
21681SOL    HW176768   3.933   4.353   7.215 -1.2272 -0.9608  0.5434
21681SOL    HW276769   4.007   4.221   7.212 -0.2785 -0.4194 -1.3912
21682SOL     OW76770  12.781   2.402   0.002  0.0208  0.0341 -0.2205
21682SOL    HW176771  12.698   2.446   0.023  0.7663  1.5996 -0.3760
21682SOL    HW276772  12.755   2.316  -0.030 -1.6532  0.9600 -1.5642
21683SOL     OW76773  11.779   3.180   8.476  0.3127  0.2451 -0.3129
21683SOL    HW176774  11.725   3.151   8.402 -0.4707  1.1111 -0.0903
21683SOL    HW276775  11.862   3.133   8.464  0.1399  0.2345 -1.6373
21684SOL     OW76776   8.637   3.863   6.085 -0.0431 -0.1811  0.2062
21684SOL    HW176777   8.663   3.821   6.167  0.6126  2.1290  1.2904
21684SOL    HW276778   8.719   3.895   6.048 -0.2834 -1.5161 -1.6071
21685SOL     OW76779   4.130   9.783   5.570 -0.1266 -0.0346  0.3597
21685SOL    HW176780   4.071   9.773   5.645 -0.1896  1.9065  0.6248
21685SOL    HW276781   4.084   9.742   5.497 -0.9964 -0.1155  0.9410
21686SOL     OW76782   0.805  13.323   1.888  0.1738 -0.1418 -0.3035
21686SOL    HW176783   0.867  13.350   1.956 -0.2792  0.6755 -0.1884
21686SOL    HW276784   0.719  13.351   1.922 -0.0762  0.1320 -1.1341
21687SOL     OW76785   2.427   1.584  10.069 -0.0657 -0.4233 -0.1962
21687SOL    HW176786   2.348   1.540  10.038 -0.8242 -0.0736  1.1678
21687SOL    HW276787   2.417   1.675  10.043  0.8337 -0.7378 -1.7511
21688SOL     OW76788   1.855   2.642   1.317  0.2856 -1.1283  0.2296
21688SOL    HW176789   1.762   2.665   1.314  0.2258 -1.4123 -0.2559
21688SOL    HW276790   1.867   2.581   1.244  1.2349  0.3011 -0.8605
21689SOL     OW76791   5.039   2.270   9.671 -0.7251 -0.1012  0.5331
21689SOL    HW176792   5.045   2.337   9.602 -0.7212 -1.2081 -0.5761
21689SOL    HW276793   4.952   2.283   9.709 -0.0033  1.7706  1.6781
21690SOL     OW76794   2.369   9.078   3.485 -0.4731  0.6962  0.3300
21690SOL    HW176795   2.301   9.091   3.551 -0.4979 -1.9354  0.9529
21690SOL    HW276796   2.332   9.012   3.426  0.3488  1.5235 -1.1550
21691SOL     OW76797   0.397   5.192   2.827  0.5064 -0.2256  0.4600
21691SOL    HW176798   0.367   5.274   2.789 -1.2173 -0.0858  1.9903
21691SOL    HW276799   0.402   5.132   2.753  0.8759  1.0012 -0.5355
21692SOL     OW76800   2.093  12.535   7.510 -0.1220  0.1250  0.2097
21692SOL    HW176801   2.015  12.490   7.479  1.0401 -1.8404 -0.0310
21692SOL    HW276802   2.116  12.596   7.440  0.2430 -1.4464 -1.0725
21693SOL     OW76803   4.652   2.179   3.486 -0.0187 -0.9916 -0.3335
21693SOL    HW176804   4.562   2.203   3.465  0.2167 -0.9050 -1.2580
21693SOL    HW276805   4.644   2.098   3.537 -0.6770 -0.3332  0.6453
21694SOL     OW76806   0.109   5.194  10.433  0.2179 -0.0536  0.2094
21694SOL    HW176807   0.143   5.221  10.518 -0.8953  1.0070  0.3394
21694SOL    HW276808   0.145   5.107  10.420  2.7595  0.8892  0.4430
21695SOL     OW76809   6.539  12.195   6.658 -0.3841 -0.0797 -0.0863
21695SOL    HW176810   6.484  12.117   6.647  0.3671 -0.5580 -0.5446
21695SOL    HW276811   6.509  12.255   6.590 -1.6247  0.4404  0.8852
21696SOL     OW76812   2.427   9.129   7.151  0.2133 -0.3340  0.0613
21696SOL    HW176813   2.449   9.144   7.244  0.6181  1.3906 -0.2758
21696SOL    HW276814   2.441   9.214   7.110 -2.3910 -0.4217 -1.1426
21697SOL     OW76815   1.110   9.015   0.236 -0.7268  0.5011 -0.3617
21697SOL    HW176816   1.070   8.955   0.172 -2.0900  1.2328 -0.2258
21697SOL    HW276817   1.080   8.983   0.321 -0.1517  0.4336 -0.1815
21698SOL     OW76818   4.644   1.770   3.979  0.6582  0.5812  0.1017
21698SOL    HW176819   4.583   1.742   3.911  1.7834 -0.0014 -0.7074
21698SOL    HW276820   4.589   1.789   4.055 -0.4301 -1.0101 -0.2420
21699SOL     OW76821  11.925   9.083   1.364 -0.4244 -0.3306  0.3374
21699SOL    HW176822  11.983   9.115   1.295  0.5417 -1.4398  0.6074
21699SOL    HW276823  11.851   9.144   1.363  0.5667  0.9094 -0.2534
21700SOL     OW76824  13.234   2.923   8.445 -0.4870 -0.0337  0.5028
21700SOL    HW176825  13.294   2.942   8.517  0.1354  2.1085 -0.5071
21700SOL    HW276826  13.285   2.937   8.366 -1.5183 -1.0850 -0.4069
21701SOL     OW76827   2.159  11.296   6.504 -1.0956 -0.2175 -0.4173
21701SOL    HW176828   2.190  11.237   6.436 -1.7716 -1.5470  0.3727
21701SOL    HW276829   2.223  11.367   6.506 -0.3164 -0.8608 -1.4782
21702SOL     OW76830   6.264   5.663   6.906  0.2167 -0.1233  0.1812
21702SOL    HW176831   6.331   5.731   6.897  0.9805 -0.7332  1.0449
21702SOL    HW276832   6.296   5.607   6.977 -0.8224 -0.8907  0.0700
21703SOL     OW76833  10.416   7.385  13.091 -0.1095  0.2239  0.0854
21703SOL    HW176834  10.365   7.400  13.011 -0.2354  0.7932  0.2677
21703SOL    HW276835  10.472   7.463  13.098  1.5244 -0.8346 -0.6532
21704SOL     OW76836  12.990  11.093   5.774  0.2280 -0.0269 -0.7036
21704SOL    HW176837  12.938  11.140   5.840 -1.1969 -0.8227 -1.2005
21704SOL    HW276838  12.985  11.001   5.800  1.3376 -0.1322 -0.8198
21705SOL     OW76839  13.206  13.311   7.622  0.1408 -0.1995  0.0898
21705SOL    HW176840  13.149  13.386   7.634  1.3807  0.7728  0.1129
21705SOL    HW276841  13.283  13.330   7.676  1.0598 -0.8511 -0.9350
21706SOL     OW76842   4.681  10.095  10.294  0.2487  0.3161  0.2562
21706SOL    HW176843   4.622  10.020  10.292  0.8837 -0.2600  1.7667
21706SOL    HW276844   4.624  10.171  10.284 -0.3267 -0.3551 -2.0123
21707SOL     OW76845   9.851  11.142   9.618 -0.2205  0.0590 -0.2364
21707SOL    HW176846   9.944  11.148   9.595 -0.0759 -0.1916  0.2653
21707SOL    HW276847   9.805  11.188   9.548  0.2454 -0.2970 -0.7811
21708SOL     OW76848   9.847   2.484  13.076 -0.2869  0.8873  0.4516
21708SOL    HW176849   9.826   2.564  13.028 -0.5822  0.8908  0.5834
21708SOL    HW276850   9.794   2.490  13.156 -0.8590  0.2215  0.1368
21709SOL     OW76851   8.492   8.495   1.126 -0.0005 -0.5279  0.3663
21709SOL    HW176852   8.488   8.449   1.042  1.1244  0.2446 -0.1393
21709SOL    HW276853   8.417   8.555   1.125  0.4353  0.0271 -0.4445
21710SOL     OW76854  10.369  10.610   2.415  0.4182  0.1641 -0.1161
21710SOL    HW176855  10.319  10.530   2.399 -2.2721  1.7992 -0.5727
21710SOL    HW276856  10.331  10.646   2.495  2.8934  0.0957  1.1796
21711SOL     OW76857  10.130   8.792  11.603 -0.0660 -0.0358  0.3278
21711SOL    HW176858  10.154   8.709  11.562  0.7009  0.2738  0.1437
21711SOL    HW276859  10.073   8.834  11.539  0.9866  0.3679 -0.3627
21712SOL     OW76860  11.028   2.609   0.949 -0.4269  0.0556 -0.5564
21712SOL    HW176861  11.111   2.649   0.976 -0.4243  1.1083 -2.0019
21712SOL    HW276862  10.981   2.680   0.905 -1.7582 -0.7463 -0.4760
21713SOL     OW76863   1.029   7.110  13.001 -0.4352  0.4441 -0.5578
21713SOL    HW176864   1.095   7.114  13.069  0.0143 -0.0531 -0.9566
21713SOL    HW276865   1.077   7.088  12.921 -0.9685  0.8935 -1.0123
21714SOL     OW76866   8.471   7.456   5.011 -0.0341  0.5952 -0.6241
21714SOL    HW176867   8.510   7.448   5.098  1.7079  2.9520 -1.0708
21714SOL    HW276868   8.495   7.375   4.966  1.6054  0.5695  0.1999
21715SOL     OW76869   6.242   2.275   2.532 -0.2906 -0.2677 -0.4526
21715SOL    HW176870   6.260   2.292   2.625 -0.1762  1.3550 -0.7416
21715SOL    HW276871   6.151   2.245   2.530 -0.4930  0.2828  0.1309
21716SOL     OW76872   5.821   2.567   8.582 -0.2552 -0.7996 -0.5279
21716SOL    HW176873   5.845   2.476   8.567  2.0073 -0.5473  0.9452
21716SOL    HW276874   5.859   2.588   8.668  0.1632  1.7796 -1.2336
21717SOL     OW76875   1.474   6.104   9.318 -0.4437 -0.2636 -0.4855
21717SOL    HW176876   1.561   6.066   9.329 -0.0356  1.2475  2.3779
21717SOL    HW276877   1.414   6.037   9.349 -0.1670 -0.6487 -0.7779
21718SOL     OW76878   7.918   4.614   1.242 -0.5015  0.3698  0.0155
21718SOL    HW176879   7.914   4.690   1.299 -1.6975 -0.0465  0.5113
21718SOL    HW276880   7.949   4.649   1.158  1.9567  0.8717  1.0429
21719SOL     OW76881   9.985  12.618   3.640  0.0869 -0.5910 -0.4366
21719SOL    HW176882  10.049  12.581   3.579  0.3573  1.3517 -1.4121
21719SOL    HW276883   9.900  12.603   3.597  0.2685  0.6760 -1.3033
21720SOL     OW76884   7.406   1.074  10.179 -0.4911 -0.5041 -0.5442
21720SOL    HW176885   7.423   1.070  10.084  0.8301 -0.1922 -0.3412
21720SOL    HW276886   7.433   1.162  10.204  2.4853 -1.6176  0.6619
21721SOL     OW76887  12.810   8.777   7.260 -0.2969  0.3949  0.9399
21721SOL    HW176888  12.810   8.724   7.340  3.3739 -0.0633  0.8209
21721SOL    HW276889  12.875   8.845   7.276 -1.6143  2.1380 -0.6252
21722SOL     OW76890   0.246   6.254   3.019  0.4961 -0.2507 -0.4387
21722SOL    HW176891   0.309   6.291   3.080 -0.0699  0.9245 -0.5352
21722SOL    HW276892   0.277   6.284   2.933 -1.3350  2.2578 -0.3479
21723SOL     OW76893   4.667  13.283  11.209 -0.2794  0.2755 -0.1457
21723SOL    HW176894   4.594  13.224  11.227  0.3500  0.2118  2.5844
21723SOL    HW276895   4.656  13.308  11.117 -2.6986 -1.1017 -0.2992
21724SOL     OW76896   9.473   2.347   1.281 -0.0062 -0.1862  0.4792
21724SOL    HW176897   9.454   2.440   1.272 -0.0187 -0.2383 -0.1032
21724SOL    HW276898   9.390   2.308   1.309  0.0530  0.0057  0.9187
21725SOL     OW76899   1.706  13.409  12.705 -0.3513 -0.0735 -0.2448
21725SOL    HW176900   1.623  13.382  12.667 -0.6541  0.2313  0.1803
21725SOL    HW276901   1.753  13.453  12.634 -1.1442  0.9984 -0.1198
21726SOL     OW76902   4.609   9.342   9.854 -0.1397  0.2015  0.5389
21726SOL    HW176903   4.628   9.385   9.771 -0.0013 -0.5694  0.1638
21726SOL    HW276904   4.690   9.297   9.877 -0.4105 -0.2026  0.7078
21727SOL     OW76905   8.405   3.397   8.091 -0.2580 -0.4973  0.6471
21727SOL    HW176906   8.380   3.309   8.062  0.2025 -0.0425 -1.2308
21727SOL    HW276907   8.344   3.455   8.048  0.4112  0.2187  0.6454
21728SOL     OW76908   8.114  10.533   2.818  0.8113  0.1182  0.4390
21728SOL    HW176909   8.190  10.589   2.804  0.2026  1.5193  2.3124
21728SOL    HW276910   8.073  10.567   2.897 -0.8914 -1.5898  0.3762
21729SOL     OW76911  13.518   7.792   3.344  0.5905 -0.0651 -0.3189
21729SOL    HW176912  13.533   7.721   3.407  0.0257 -0.1298 -0.2593
21729SOL    HW276913  13.527   7.872   3.396 -0.6640 -0.1303  0.0269
21730SOL     OW76914   1.220   4.892  11.852  0.0513  0.5923 -0.7798
21730SOL    HW176915   1.128   4.912  11.842 -0.0228 -0.1767 -1.9012
21730SOL    HW276916   1.249   4.943  11.928 -0.7245  2.6589 -1.8203
21731SOL     OW76917   3.416  13.505  10.078 -1.0484  0.4215 -0.0753
21731SOL    HW176918   3.398  13.423  10.032 -1.7294  0.4831  0.0692
21731SOL    HW276919   3.332  13.550  10.080 -0.2228  2.1763 -2.1418
21732SOL     OW76920   7.495   2.033   9.597 -0.1497  0.1021 -0.3093
21732SOL    HW176921   7.485   2.018   9.691 -0.8414  0.1038 -0.3762
21732SOL    HW276922   7.578   1.990   9.575 -0.0050  0.0588  0.2887
21733SOL     OW76923   1.195   8.784  11.571  0.0106 -0.2610  0.3493
21733SOL    HW176924   1.230   8.859  11.524  0.8315 -0.6383  0.3491
21733SOL    HW276925   1.199   8.809  11.663  0.2388 -0.2852  0.3460
21734SOL     OW76926   5.003   0.726  10.253 -0.2835 -0.4716 -0.3703
21734SOL    HW176927   5.049   0.700  10.333  0.0930  0.4793 -0.2559
21734SOL    HW276928   4.911   0.732  10.280 -0.4354 -1.9573 -0.4916
21735SOL     OW76929   5.371   2.777   4.611 -0.0730 -0.2049  0.0016
21735SOL    HW176930   5.331   2.699   4.574  0.0277  0.7941 -2.3707
21735SOL    HW276931   5.430   2.809   4.543  0.1371  1.7443  1.0326
21736SOL     OW76932   7.407   4.411   8.254 -0.6632 -0.5420  0.0254
21736SOL    HW176933   7.376   4.501   8.265 -0.3871 -0.6820  2.4437
21736SOL    HW276934   7.354   4.360   8.316  0.4128 -1.7472 -0.0086
21737SOL     OW76935   2.754   5.552  12.258  0.1117  0.3387 -0.1636
21737SOL    HW176936   2.675   5.559  12.312  0.5051  0.2804  0.4303
21737SOL    HW276937   2.749   5.465  12.219 -0.0580  0.2844 -0.0232
21738SOL     OW76938  12.270  11.572   7.876  0.5497 -0.4290 -0.6135
21738SOL    HW176939  12.298  11.660   7.848  3.5226 -1.1232 -0.2336
21738SOL    HW276940  12.277  11.573   7.971  1.7198 -1.3288 -0.6554
21739SOL     OW76941  10.171  12.377   2.234 -0.0863 -0.3015 -0.0801
21739SOL    HW176942  10.136  12.289   2.247  1.3540 -0.6677  1.7348
21739SOL    HW276943  10.197  12.379   2.142 -1.5134 -1.2180 -0.5483
21740SOL     OW76944  12.018   4.182   3.797 -0.1535  0.1740  0.4785
21740SOL    HW176945  11.998   4.234   3.875  0.4964  0.9778  0.1215
21740SOL    HW276946  12.079   4.115   3.829  0.8165  1.0463  0.5017
21741SOL     OW76947   6.832   3.839   5.244  0.8914  0.6542  0.0986
21741SOL    HW176948   6.880   3.910   5.203  0.0989  0.7153 -0.7569
21741SOL    HW276949   6.877   3.759   5.216  0.3975  0.6977 -0.8836
21742SOL     OW76950  11.408  11.844   7.584  0.6075 -0.1645 -0.0136
21742SOL    HW176951  11.503  11.842   7.586  0.6235  0.5218  1.7781
21742SOL    HW276952  11.381  11.756   7.609  0.7610 -0.2665 -0.2034
21743SOL     OW76953  10.224   5.764   0.197 -0.8307 -0.5231 -0.0814
21743SOL    HW176954  10.191   5.820   0.127 -3.4007 -0.8330  0.7880
21743SOL    HW276955  10.236   5.822   0.271  1.6503 -0.2440 -0.5901
21744SOL     OW76956   5.333   1.256   4.763  0.2103 -0.5108  0.6423
21744SOL    HW176957   5.386   1.294   4.833 -0.5675  0.3792  0.7769
21744SOL    HW276958   5.246   1.293   4.777 -0.1802 -1.0761 -0.2266
21745SOL     OW76959   9.202   4.601   1.742  0.6952 -0.1892 -0.0340
21745SOL    HW176960   9.126   4.657   1.759  1.7154  1.0602  0.6150
21745SOL    HW276961   9.168   4.529   1.690 -0.6123  1.2460 -1.2619
21746SOL     OW76962   8.283   8.174   0.322 -0.2582  0.2110 -0.0469
21746SOL    HW176963   8.317   8.194   0.409 -0.6063  2.1201 -0.3086
21746SOL    HW276964   8.312   8.084   0.305 -1.6040 -0.8552  2.7071
21747SOL     OW76965   7.920   0.193   8.825  0.1715 -0.2877  0.2027
21747SOL    HW176966   7.955   0.224   8.741 -0.5246  0.1497  0.0728
21747SOL    HW276967   7.997   0.157   8.870  0.2573 -2.2653 -1.3799
21748SOL     OW76968   5.654   7.837  10.899 -0.1510 -0.4895  0.4301
21748SOL    HW176969   5.619   7.749  10.913  0.0353 -0.8677 -1.2432
21748SOL    HW276970   5.587   7.895  10.934 -1.4899 -1.2506 -0.7626
21749SOL     OW76971  13.694   1.151   6.664 -0.6714 -0.0256  0.0618
21749SOL    HW176972  13.731   1.084   6.607  1.3226  0.8012  0.3160
21749SOL    HW276973  13.626   1.104   6.714 -0.5335 -1.4094 -0.9800
21750SOL     OW76974  10.220   1.280   3.919  0.7245 -0.0300 -0.6613
21750SOL    HW176975  10.236   1.251   4.008 -0.5283 -0.6977 -0.6373
21750SOL    HW276976  10.306   1.307   3.887  1.2719 -0.2533  0.5702
21751SOL     OW76977  13.227   3.861  10.694 -0.5475  0.7178 -0.2823
21751SOL    HW176978  13.193   3.803  10.626 -0.8720 -1.8363  1.9335
21751SOL    HW276979  13.299   3.813  10.734  0.4612  2.6930  0.4021
21752SOL     OW76980  12.640   7.309   6.560  0.2116 -0.5633  0.2153
21752SOL    HW176981  12.712   7.362   6.594  0.4779  0.0654 -1.2567
21752SOL    HW276982  12.569   7.322   6.623  0.4892  1.0326  0.2409
21753SOL     OW76983   0.283   6.749   2.878  0.2066  0.1526 -0.0577
21753SOL    HW176984   0.366   6.771   2.834 -0.1949 -0.0577 -0.9389
21753SOL    HW276985   0.309   6.691   2.949  0.7892 -0.1363 -0.4926
21754SOL     OW76986   2.061   1.132   4.276 -0.1597 -0.0991  0.2048
21754SOL    HW176987   2.082   1.084   4.356  1.4884 -0.3656 -0.3403
21754SOL    HW276988   2.117   1.210   4.280  0.8129 -0.6804 -1.1825
21755SOL     OW76989  12.548  10.950   8.538 -0.2229  0.2799  0.2595
21755SOL    HW176990  12.470  10.896   8.553 -0.5548  0.6325 -0.1614
21755SOL    HW276991  12.613  10.917   8.600 -0.8046  0.1776  0.8301
21756SOL     OW76992  12.575   4.843   4.190  0.2625  0.3369  0.2447
21756SOL    HW176993  12.568   4.938   4.203  1.0183  0.2674  1.3170
21756SOL    HW276994  12.644   4.816   4.251 -0.9524 -1.1128  1.0170
21757SOL     OW76995   3.335   9.850   4.818  0.4907  0.0412 -0.6311
21757SOL    HW176996   3.255   9.895   4.790  0.5506  0.3218 -0.3485
21757SOL    HW276997   3.363   9.896   4.896  1.3649  0.4369 -1.1660
21758SOL     OW76998  10.349   5.327  13.408 -0.1560  0.4308  0.2034
21758SOL    HW176999  10.415   5.323  13.339 -0.5248  1.7335 -0.2527
21758SOL    HW277000  10.397   5.303  13.487  0.4291 -0.4401 -0.3877
21759SOL     OW77001   4.768   4.702   9.657  0.5078 -0.2512 -0.4527
21759SOL    HW177002   4.794   4.621   9.612  0.0528  0.0798 -1.3124
21759SOL    HW277003   4.679   4.719   9.627  0.1020 -0.1363  0.7462
21760SOL     OW77004   2.661   7.006  12.904  0.5501  0.2810 -0.9683
21760SOL    HW177005   2.659   6.947  12.979  0.6167  2.3430  0.7687
21760SOL    HW277006   2.677   6.949  12.829  0.4195 -1.8950  0.5443
21761SOL     OW77007  13.382  11.234   5.618  0.2763 -0.3653 -0.1310
21761SOL    HW177008  13.327  11.262   5.545  1.2850  0.2135 -0.6882
21761SOL    HW277009  13.433  11.311   5.641  0.4903 -0.7457  0.7133
21762SOL     OW77010  12.246   0.695   9.430  0.0441 -0.0856  0.2980
21762SOL    HW177011  12.201   0.727   9.508  2.0110  1.2946  0.9480
21762SOL    HW277012  12.238   0.766   9.367 -2.5593 -1.6498 -1.3074
21763SOL     OW77013   9.686   9.624   9.182  0.3367  0.1380 -0.7525
21763SOL    HW177014   9.767   9.646   9.137  0.7430  1.4605  0.5596
21763SOL    HW277015   9.644   9.558   9.126  3.0780 -1.8616 -0.6481
21764SOL     OW77016  12.089   6.833   5.897 -0.2714 -0.7070 -0.0735
21764SOL    HW177017  12.175   6.793   5.911  0.4565  0.3518 -1.2812
21764SOL    HW277018  12.045   6.825   5.981  1.0167 -1.2676  0.5783
21765SOL     OW77019   1.879   1.344   5.373  0.6556 -0.7644  0.4229
21765SOL    HW177020   1.868   1.438   5.359 -1.2725 -0.9004  0.7503
21765SOL    HW277021   1.895   1.309   5.285  0.3713 -0.2564  0.1634
21766SOL     OW77022   6.303   8.468   8.674  0.3085 -0.1057  0.5415
21766SOL    HW177023   6.390   8.438   8.648  0.0874 -0.8262  0.6007
21766SOL    HW277024   6.244   8.398   8.645 -0.1985  0.1756  0.8812
21767SOL     OW77025   1.390  12.474  13.512  0.1288  1.1138 -0.4290
21767SOL    HW177026   1.347  12.393  13.485 -0.7407  1.6615 -0.7517
21767SOL    HW277027   1.469  12.446  13.557 -0.8279  0.0385  0.6606
21768SOL     OW77028   5.048   7.087   7.645 -0.0371 -0.0702 -0.3388
21768SOL    HW177029   5.095   7.164   7.615 -0.8283  0.7839  0.5634
21768SOL    HW277030   5.012   7.112   7.729  2.1689 -2.4001  1.4713
21769SOL     OW77031   5.697   0.680   4.370  0.1425  0.2087  1.1513
21769SOL    HW177032   5.626   0.630   4.329  0.6571 -0.8727  1.5350
21769SOL    HW277033   5.666   0.770   4.369 -0.7755 -0.0900  0.3380
21770SOL     OW77034   1.859   9.940   5.096  0.0130 -0.0383 -0.5036
21770SOL    HW177035   1.769   9.967   5.116 -0.5790 -1.7469 -0.6245
21770SOL    HW277036   1.889  10.002   5.030 -0.5945  1.3338  0.4651
21771SOL     OW77037  12.372   8.576   6.597  0.2966  0.2070  0.0360
21771SOL    HW177038  12.392   8.669   6.587  1.7471 -0.0972 -0.0213
21771SOL    HW277039  12.452   8.537   6.631  0.2285 -1.2732 -1.3594
21772SOL     OW77040   2.621  10.849   6.710  0.7671  0.2641  0.3846
21772SOL    HW177041   2.717  10.849   6.715  0.7414 -0.2971  0.9490
21772SOL    HW277042   2.598  10.758   6.692  0.3619  0.5011 -0.3831
21773SOL     OW77043   0.163   9.698   1.071 -0.1194  0.3570  0.0841
21773SOL    HW177044   0.157   9.793   1.061 -2.7413  0.3518  1.0001
21773SOL    HW277045   0.191   9.685   1.162 -1.1385  0.2598  0.3909
21774SOL     OW77046   1.690   9.448   7.333 -0.2043  0.3758  0.9990
21774SOL    HW177047   1.680   9.398   7.414 -0.2866  1.8054  1.8972
21774SOL    HW277048   1.601   9.475   7.311 -0.1877 -0.0405  0.3963
21775SOL     OW77049  11.972   6.250   7.755  0.6210  0.6595  0.2311
21775SOL    HW177050  11.989   6.297   7.836  0.4602 -1.3907  1.5278
21775SOL    HW277051  12.003   6.161   7.772 -1.4807 -0.4293 -1.1208
21776SOL     OW77052  12.711  10.656   6.119  0.4353  0.2627  0.6553
21776SOL    HW177053  12.780  10.591   6.108 -0.2691 -0.4131  0.0934
21776SOL    HW277054  12.678  10.672   6.030  1.9243  2.9330  0.4733
21777SOL     OW77055   1.399   6.648   1.339 -0.6580 -0.4130  0.4078
21777SOL    HW177056   1.479   6.596   1.346 -1.2931 -1.6179 -0.8556
21777SOL    HW277057   1.392   6.669   1.246 -1.8848 -0.4640  0.4768
21778SOL     OW77058  12.985   0.987   9.798 -0.1737  0.4803 -0.5036
21778SOL    HW177059  13.050   0.957   9.861 -0.5763  1.3387  0.3607
21778SOL    HW277060  12.992   1.083   9.800 -0.7986  0.5456 -1.0993
21779SOL     OW77061   0.107   1.622  13.328  0.8408  0.4141 -0.1362
21779SOL    HW177062   0.107   1.572  13.409 -0.8570  1.5724  0.6419
21779SOL    HW277063   0.149   1.564  13.264 -0.2373 -1.6305  0.9028
21780SOL     OW77064   2.212  11.202  10.486 -0.1697 -0.1183 -0.4315
21780SOL    HW177065   2.181  11.227  10.573 -0.2746 -1.0047 -0.1990
21780SOL    HW277066   2.286  11.259  10.469 -0.7248  0.6967 -0.1563
21781SOL     OW77067   4.106   0.893  10.533 -0.1666 -0.2201 -0.1919
21781SOL    HW177068   4.100   0.982  10.568  0.9086 -0.2482  0.0985
21781SOL    HW277069   4.097   0.904  10.438  2.1269  0.4910 -0.3909
21782SOL     OW77070   6.363   1.136   1.097 -0.3347 -0.0152 -0.3758
21782SOL    HW177071   6.351   1.092   1.181  0.4785  0.7525  0.1567
21782SOL    HW277072   6.276   1.168   1.074 -1.2303 -2.8104 -1.3419
21783SOL     OW77073   9.207   4.639   7.380 -0.3659  0.1115  0.1379
21783SOL    HW177074   9.157   4.574   7.331 -0.0058  1.3017 -1.9538
21783SOL    HW277075   9.186   4.723   7.337  2.1558  0.8453  0.1646
21784SOL     OW77076   1.068   8.370   2.449 -0.3181 -0.4336  0.3777
21784SOL    HW177077   1.006   8.385   2.521  0.2944 -1.4643  1.1512
21784SOL    HW277078   1.080   8.275   2.447  1.5017 -0.2415  0.5006
21785SOL     OW77079   5.557  11.625   8.662  0.1453 -0.3687 -0.1939
21785SOL    HW177080   5.580  11.691   8.597  1.1042  0.2593  0.7289
21785SOL    HW277081   5.506  11.673   8.728  1.1430 -0.4322  0.6585
21786SOL     OW77082  12.802   3.763   9.636  1.0244 -0.2663  1.4303
21786SOL    HW177083  12.896   3.774   9.646  1.6701 -0.8057 -2.4398
21786SOL    HW277084  12.774   3.837   9.582 -0.6522 -0.4605  1.9721
21787SOL     OW77085   8.231   8.278   9.019 -0.5197 -0.0887  0.2552
21787SOL    HW177086   8.263   8.259   8.931 -1.0276  0.9029 -0.1623
21787SOL    HW277087   8.224   8.192   9.061  1.0000 -0.4621 -0.2123
21788SOL     OW77088  10.080   0.166  10.149  0.4811  0.5188  0.5945
21788SOL    HW177089  10.010   0.232  10.152 -0.6756 -0.6346 -0.1339
21788SOL    HW277090  10.034   0.082  10.151  1.7586 -0.2783 -1.0916
21789SOL     OW77091  10.219   7.637   3.195 -0.2916  0.8351 -0.3841
21789SOL    HW177092  10.147   7.599   3.246  0.2622  0.3679  0.0567
21789SOL    HW277093  10.276   7.678   3.260  0.3954  0.2784 -0.6251
21790SOL     OW77094   1.456   7.043   5.931 -0.5145 -0.2326 -0.6321
21790SOL    HW177095   1.537   7.018   5.976  1.0184  1.9276 -1.9910
21790SOL    HW277096   1.465   7.006   5.843 -2.2900 -2.2126 -0.0567
21791SOL     OW77097  13.278   8.548  12.045  0.2435  0.0489  0.0521
21791SOL    HW177098  13.327   8.503  11.976  1.3984 -0.6019  1.2564
21791SOL    HW277099  13.281   8.641  12.019  0.2179 -0.2394 -1.0248
21792SOL     OW77100  12.717   6.520  11.820 -0.3313  0.3424  0.0492
21792SOL    HW177101  12.646   6.485  11.874  0.0365 -0.2345  0.1719
21792SOL    HW277102  12.674   6.542  11.737 -0.6664  0.0278  0.1328
21793SOL     OW77103   1.044  10.291   0.720 -0.4014  0.3101 -0.6489
21793SOL    HW177104   1.019  10.278   0.812 -0.6196  0.7271 -0.6461
21793SOL    HW277105   1.135  10.263   0.716 -0.4489  0.1017 -0.3465
21794SOL     OW77106  11.564  10.553   6.220 -0.0177  0.2008  0.1353
21794SOL    HW177107  11.608  10.636   6.235 -0.7426  0.9235 -1.5527
21794SOL    HW277108  11.548  10.550   6.126 -1.2472 -1.2191  0.3462
21795SOL     OW77109   5.558   8.132   7.150 -0.4100  0.0761  0.3428
21795SOL    HW177110   5.503   8.057   7.124  0.0818 -0.1672 -0.0059
21795SOL    HW277111   5.620   8.142   7.078 -1.1500  1.5163 -0.1497
21796SOL     OW77112   9.069  12.935   6.941  0.2398 -0.5762  0.0207
21796SOL    HW177113   9.010  13.010   6.941 -0.0079 -0.7121  2.0651
21796SOL    HW277114   9.096  12.926   7.033  1.5115 -2.0134 -0.4594
21797SOL     OW77115  11.090   3.426   8.789  0.2784  0.1874 -0.2387
21797SOL    HW177116  11.182   3.401   8.779  0.3650  0.8104 -1.0351
21797SOL    HW277117  11.067   3.395   8.877  0.4765 -2.3752 -1.0063
21798SOL     OW77118   2.746  12.207  11.562  0.3135  0.3751 -0.3840
21798SOL    HW177119   2.768  12.191  11.470  0.2920  0.4186 -0.3964
21798SOL    HW277120   2.789  12.289  11.583 -0.0809  0.6172 -0.4965
21799SOL     OW77121   2.674   9.930   5.151  0.1659 -0.1324 -0.7404
21799SOL    HW177122   2.692  10.004   5.210  1.6304 -1.0247 -0.0143
21799SOL    HW277123   2.578   9.926   5.147  0.0439  1.4473 -0.3612
21800SOL     OW77124  13.548   6.728  11.442 -0.2491 -0.3590 -0.2520
21800SOL    HW177125  13.590   6.766  11.365  1.3351  1.6756  1.4697
21800SOL    HW277126  13.503   6.803  11.483 -0.4124 -1.2168  1.1836
21801SOL     OW77127   1.547   0.305   6.742  0.2566 -0.9123  0.4549
21801SOL    HW177128   1.562   0.215   6.713  2.6524 -0.3453 -0.2609
21801SOL    HW277129   1.499   0.295   6.824  1.7541 -2.9440  1.1755
21802SOL     OW77130   6.911   5.577  12.071  0.0996  0.9121 -0.0054
21802SOL    HW177131   6.870   5.614  11.993 -1.0865  2.2419  1.1900
21802SOL    HW277132   6.842   5.528  12.114  1.1051 -1.0060 -0.4433
21803SOL     OW77133  12.715   4.137  11.561  0.7365 -0.0653 -0.0409
21803SOL    HW177134  12.804   4.172  11.565  0.5054  0.8621 -1.9937
21803SOL    HW277135  12.687   4.153  11.471 -1.6443  0.2581  0.6858
21804SOL     OW77136   7.577   0.436   6.585 -0.0689 -0.8135  0.0640
21804SOL    HW177137   7.602   0.438   6.678 -0.1766  0.7169  0.0892
21804SOL    HW277138   7.482   0.431   6.586 -0.1379  0.2434  0.0718
21805SOL     OW77139   2.439  13.248   6.276 -0.2277 -0.3045  0.6221
21805SOL    HW177140   2.347  13.276   6.271  0.1078  1.0482  1.3277
21805SOL    HW277141   2.436  13.163   6.319 -1.2978 -1.3828 -1.4598
21806SOL     OW77142   9.438   2.185   5.144 -0.0530 -0.6618  0.4785
21806SOL    HW177143   9.437   2.200   5.049  1.5776 -0.5952  0.4405
21806SOL    HW277144   9.406   2.267   5.181 -0.5711 -0.6402 -0.0116
21807SOL     OW77145   8.606  12.898   0.520 -0.1527  0.3061 -0.2969
21807SOL    HW177146   8.588  12.973   0.577  1.9486  0.5189  0.1677
21807SOL    HW277147   8.526  12.846   0.524 -0.3312  0.6274  2.3913
21808SOL     OW77148   4.661  12.629   5.839 -0.1577 -0.0610  0.5244
21808SOL    HW177149   4.658  12.696   5.771  1.9025 -0.5885 -0.1583
21808SOL    HW277150   4.627  12.550   5.796  1.3567 -0.4522 -0.0419
21809SOL     OW77151   7.246   4.011   7.185 -0.0900  0.2144  0.5961
21809SOL    HW177152   7.212   3.953   7.117 -1.5468  0.7587  0.8180
21809SOL    HW277153   7.315   3.960   7.227 -0.1836 -0.7018 -0.3156
21810SOL     OW77154   6.875   7.372   9.604  0.6168 -0.2321 -0.5698
21810SOL    HW177155   6.911   7.413   9.684  1.0603  1.9115 -1.7792
21810SOL    HW277156   6.835   7.291   9.635  0.5058  0.6564  1.8907
21811SOL     OW77157   8.927   3.120   7.582 -0.1997 -0.1484 -0.2581
21811SOL    HW177158   8.931   3.112   7.677 -0.7938  0.6343 -0.1576
21811SOL    HW277159   8.927   3.030   7.551 -1.7325 -0.4794  0.5764
21812SOL     OW77160   7.603   1.719  11.686 -0.2439 -0.2086  0.1814
21812SOL    HW177161   7.528   1.721  11.746 -0.2058 -0.6636  0.2421
21812SOL    HW277162   7.565   1.744  11.601  0.1544  3.1428  0.8290
21813SOL     OW77163   7.588   7.989  10.520  0.5142  0.2889  0.2414
21813SOL    HW177164   7.588   8.084  10.504  0.1905 -0.0272 -2.0277
21813SOL    HW277165   7.675   7.970  10.553  1.5843  1.0273 -2.0132
21814SOL     OW77166   8.741   4.027  10.691 -0.5262  0.3762  0.6475
21814SOL    HW177167   8.660   4.003  10.645 -0.7269 -1.4402  1.8648
21814SOL    HW277168   8.811   4.005  10.630 -0.8708 -0.0993  0.4195
21815SOL     OW77169  12.391   3.108  11.887  0.9637  0.2049  0.4905
21815SOL    HW177170  12.428   3.051  11.953 -0.4000 -0.3062  0.8341
21815SOL    HW277171  12.339   3.171  11.936 -0.5905 -0.5766 -0.1056
21816SOL     OW77172  11.507  13.332   2.930 -0.3017 -0.2341  0.1603
21816SOL    HW177173  11.422  13.375   2.940  0.3631  1.1647  0.1307
21816SOL    HW277174  11.554  13.352   3.011  0.5437  0.3711 -0.4511
21817SOL     OW77175  13.692  11.446   3.863 -0.3727  0.0748 -0.3376
21817SOL    HW177176  13.597  11.434   3.866 -0.3057 -0.5000 -0.4102
21817SOL    HW277177  13.724  11.402   3.941  0.0658 -2.2344 -1.7102
21818SOL     OW77178  12.110   9.168   1.874 -0.0981 -0.0271 -0.6240
21818SOL    HW177179  12.092   9.249   1.921 -0.2221 -0.5992  0.3447
21818SOL    HW277180  12.109   9.100   1.942 -2.0108 -1.1369 -1.6669
21819SOL     OW77181   4.147   6.078  10.151  0.6006  0.7091 -0.0772
21819SOL    HW177182   4.220   6.139  10.137  0.9482  0.6653  1.4207
21819SOL    HW277183   4.144   6.066  10.246  0.9226 -2.0690 -0.3436
21820SOL     OW77184   3.177   7.973   3.336  0.5772  0.9155  0.6796
21820SOL    HW177185   3.114   8.028   3.291  0.8760  0.7445  0.0374
21820SOL    HW277186   3.126   7.924   3.399 -0.3546 -0.9631 -1.4115
21821SOL     OW77187   6.786   6.972  11.893  0.4114 -0.2765  0.4855
21821SOL    HW177188   6.819   6.911  11.827 -0.5266 -1.6563  1.2550
21821SOL    HW277189   6.856   6.977  11.958  0.1811 -1.1394  0.8032
21822SOL     OW77190   9.946   3.166   8.433  0.2809  0.6506  0.4651
21822SOL    HW177191   9.991   3.139   8.353  0.3438  3.0292 -0.3614
21822SOL    HW277192   9.930   3.259   8.422 -0.2364  0.9388  3.0022
21823SOL     OW77193   9.191  10.840   5.378 -0.0759  0.1710 -0.6405
21823SOL    HW177194   9.127  10.902   5.341  0.8539  1.2080 -0.5318
21823SOL    HW277195   9.213  10.783   5.304 -1.5398 -0.5885 -0.5413
21824SOL     OW77196   5.091   7.978   2.214 -0.0580 -0.0106  0.5496
21824SOL    HW177197   5.063   8.066   2.239  3.1697  1.3456 -0.0912
21824SOL    HW277198   5.115   7.986   2.122 -0.3238 -1.7594  0.2933
21825SOL     OW77199   1.663   6.885   8.048  0.3742 -0.5141 -0.0467
21825SOL    HW177200   1.757   6.872   8.055  0.4361 -1.6509 -2.1246
21825SOL    HW277201   1.653   6.969   8.004  0.4130 -0.3375  0.2812
21826SOL     OW77202  13.419   1.455   0.734  0.7457  0.2601  0.0603
21826SOL    HW177203  13.459   1.501   0.808  0.2162  2.1465 -0.7717
21826SOL    HW277204  13.478   1.472   0.660  0.1164  0.2983 -0.4483
21827SOL     OW77205  13.243   5.499   7.069  0.2761  0.2092  0.5517
21827SOL    HW177206  13.276   5.457   6.989 -1.0009  0.8815 -0.3585
21827SOL    HW277207  13.235   5.591   7.046  1.4052  0.7152  1.9850
21828SOL     OW77208   5.404   1.189   1.755 -0.0571  0.0921 -0.6044
21828SOL    HW177209   5.397   1.155   1.665  1.4724  2.5510 -1.7621
21828SOL    HW277210   5.313   1.200   1.783 -0.8210  3.0255 -3.4892
21829SOL     OW77211   0.921  11.409   7.634 -0.0512 -0.4186 -0.0920
21829SOL    HW177212   0.931  11.334   7.576  0.5118  0.3190 -0.9726
21829SOL    HW277213   0.829  11.433   7.628  0.2745  0.5644 -1.8732
21830SOL     OW77214  12.931   7.697   8.892  0.1293 -0.2313  0.1541
21830SOL    HW177215  12.858   7.715   8.832 -0.2912  0.9392  0.9646
21830SOL    HW277216  12.888   7.671   8.974  0.5698  1.0081  0.8104
21831SOL     OW77217   2.412  10.006   5.219 -0.2030  0.1571  0.1312
21831SOL    HW177218   2.334   9.973   5.175 -0.0548 -0.8930  0.6225
21831SOL    HW277219   2.381  10.034   5.305  0.1878 -1.7321  0.9338
21832SOL     OW77220  11.617  10.166  12.503 -0.2338  0.1342 -0.1000
21832SOL    HW177221  11.672  10.095  12.535 -0.2738  0.8282  1.6063
21832SOL    HW277222  11.535  10.156  12.553 -0.6873  0.6494 -0.7358
21833SOL     OW77223   2.043   3.294   9.288 -0.3292 -0.4834  0.5507
21833SOL    HW177224   2.136   3.313   9.272 -0.3423  0.1337  1.1803
21833SOL    HW277225   2.014   3.250   9.208 -0.2368  1.8898 -0.8918
21834SOL     OW77226   3.835   9.108  13.641 -0.2596 -0.7859 -0.0794
21834SOL    HW177227   3.794   9.026  13.669 -2.2650 -1.0760 -3.2982
21834SOL    HW277228   3.902   9.080  13.578  1.4128 -0.0198  1.2765
21835SOL     OW77229   0.031   3.074  13.102 -0.4194 -0.3427  0.1070
21835SOL    HW177230   0.016   3.169  13.110 -0.8912 -0.4887  1.0540
21835SOL    HW277231   0.124   3.063  13.120 -0.6599 -0.2055  1.5766
21836SOL     OW77232  11.541   1.420   3.112  0.4479 -0.0572 -0.0232
21836SOL    HW177233  11.507   1.383   3.030  0.2381 -0.0135  0.0429
21836SOL    HW277234  11.512   1.512   3.110 -0.4194 -0.3095  0.5681
21837SOL     OW77235   8.163  13.696   2.220 -0.4052  0.7405 -0.1999
21837SOL    HW177236   8.201  13.783   2.208  0.9853  0.1939  0.0390
21837SOL    HW277237   8.160  13.684   2.315 -1.8408  1.0185 -0.1746
21838SOL     OW77238  11.904   3.390   6.353 -0.3349 -0.3636 -0.4602
21838SOL    HW177239  11.894   3.295   6.353  1.5027 -0.6163  1.1437
21838SOL    HW277240  11.950   3.409   6.271 -0.4127 -0.8851 -0.6289
21839SOL     OW77241   0.012   0.714   2.625 -0.1756  0.9228  0.3482
21839SOL    HW177242  -0.047   0.785   2.652  1.0690  1.5601  1.4764
21839SOL    HW277243   0.011   0.654   2.699 -0.1914  0.4199 -0.0605
21840SOL     OW77244  11.602   9.005   0.304  0.8224 -0.1458  0.5140
21840SOL    HW177245  11.531   9.068   0.296  0.1436 -1.0470 -0.9954
21840SOL    HW277246  11.586   8.942   0.234  2.7874 -0.7027  0.5145
21841SOL     OW77247   5.114  13.728   7.864  0.0875 -0.2790 -0.9100
21841SOL    HW177248   5.025  13.741   7.897  0.5934 -1.4042  1.0742
21841SOL    HW277249   5.103  13.718   7.769 -1.8738 -0.2455 -0.7285
21842SOL     OW77250   1.522   6.860   1.495 -0.0182 -0.2664  0.1287
21842SOL    HW177251   1.497   6.771   1.469  0.6675 -0.0855 -1.1990
21842SOL    HW277252   1.459   6.883   1.563 -0.4139 -1.6438  0.2563
21843SOL     OW77253   5.453  12.945   9.296  0.2068  0.2849  0.1575
21843SOL    HW177254   5.497  12.954   9.212  0.4356  1.8320  0.4112
21843SOL    HW277255   5.401  13.025   9.305 -0.1655 -0.0651  1.2861
21844SOL     OW77256  13.172   7.217   4.784 -0.0979 -0.4106 -0.0980
21844SOL    HW177257  13.223   7.263   4.850  0.7509 -0.4665 -0.7007
21844SOL    HW277258  13.231   7.209   4.709 -0.5237 -1.6872 -0.3245
21845SOL     OW77259  11.178   4.932   2.081 -0.0252 -0.1422 -0.0576
21845SOL    HW177260  11.131   5.009   2.049 -0.6946 -0.5605 -0.1177
21845SOL    HW277261  11.270   4.952   2.067 -0.2353  0.2630 -0.9519
21846SOL     OW77262  13.606  11.260  12.590 -0.3603  0.6950  0.1686
21846SOL    HW177263  13.625  11.300  12.675  0.7207 -1.4329  1.0265
21846SOL    HW277264  13.613  11.166  12.607  0.0292  0.2181 -2.3152
21847SOL     OW77265  13.250   6.982   1.474  0.0092 -0.7378  0.5944
21847SOL    HW177266  13.290   6.971   1.561  1.1531 -0.4854  0.1143
21847SOL    HW277267  13.161   6.950   1.485  0.5466 -2.0143  1.5181
21848SOL     OW77268   3.828   7.462   8.916  0.1956  0.0164  0.1794
21848SOL    HW177269   3.773   7.395   8.956  0.4909 -0.0714  0.4444
21848SOL    HW277270   3.790   7.476   8.829  0.3202 -0.7176  0.0042
21849SOL     OW77271   4.876  13.088  12.177 -0.1359  0.4000 -0.4553
21849SOL    HW177272   4.815  13.044  12.117 -0.8653  0.2244  0.3958
21849SOL    HW277273   4.820  13.129  12.243  0.6507  0.5712  0.1240
21850SOL     OW77274   6.573   8.214   9.605 -0.3601 -0.2928  0.3398
21850SOL    HW177275   6.543   8.165   9.528 -2.3633 -1.5684  1.8223
21850SOL    HW277276   6.498   8.215   9.663  1.1163  0.5089  2.3546
21851SOL     OW77277   4.182   5.960  10.436  0.4659  0.6865 -0.6399
21851SOL    HW177278   4.197   6.036  10.492  1.5632 -0.6789  1.0117
21851SOL    HW277279   4.267   5.919  10.427 -0.3879 -1.3943  0.1240
21852SOL     OW77280   7.171   7.550   7.565  0.1844  0.0961 -0.0716
21852SOL    HW177281   7.114   7.473   7.572 -0.4909  0.6870  1.3719
21852SOL    HW277282   7.222   7.535   7.486 -2.8793  0.1099 -2.2546
21853SOL     OW77283   1.879   6.341   8.814 -0.1495 -0.2957 -0.2454
21853SOL    HW177284   1.853   6.372   8.900 -1.0891  0.1857 -0.6988
21853SOL    HW277285   1.829   6.260   8.801  1.0620 -1.1637  0.2410
21854SOL     OW77286   8.454  10.666   9.212  0.1633 -0.4867  0.2425
21854SOL    HW177287   8.375  10.694   9.257 -1.5581 -2.4807 -1.3038
21854SOL    HW277288   8.426  10.649   9.122  2.2064 -1.8091 -0.2296
21855SOL     OW77289   9.751   6.936   8.875  0.7311 -0.0080 -0.0777
21855SOL    HW177290   9.780   6.996   8.944 -0.1080  1.4671 -0.9727
21855SOL    HW277291   9.821   6.938   8.811  0.2314  0.8661 -0.6093
21856SOL     OW77292  13.619   1.370  12.137 -0.5243 -0.2069 -0.5285
21856SOL    HW177293  13.601   1.410  12.052 -0.2390 -2.2881 -1.6311
21856SOL    HW277294  13.560   1.295  12.141 -0.6355 -0.0541  1.1933
21857SOL     OW77295   4.359   1.292   8.872 -0.0410  0.3067 -0.3197
21857SOL    HW177296   4.452   1.270   8.876 -0.3828 -1.2508 -0.4414
21857SOL    HW277297   4.344   1.312   8.780 -0.3330 -2.0388 -0.8567
21858SOL     OW77298   4.456  12.092  10.227 -0.0563 -0.0736  0.2627
21858SOL    HW177299   4.373  12.140  10.226  0.2289  0.5526  2.2701
21858SOL    HW277300   4.522  12.158  10.208  0.0354 -0.5320 -1.1236
21859SOL     OW77301   1.257   4.277   8.070 -1.0885 -0.0436  0.1195
21859SOL    HW177302   1.221   4.242   7.989 -1.8563 -0.3378  0.5761
21859SOL    HW277303   1.240   4.371   8.065  1.6676  0.4899 -1.4613
21860SOL     OW77304   1.870   3.798   8.650  0.1824  0.1819  0.5699
21860SOL    HW177305   1.874   3.806   8.554  1.7701  0.1208  0.6131
21860SOL    HW277306   1.809   3.867   8.676 -1.2774 -0.6113 -0.5622
21861SOL     OW77307  13.041   3.647  13.221  0.6899 -0.1240 -0.1737
21861SOL    HW177308  13.063   3.706  13.149 -0.2940 -3.1246 -3.1837
21861SOL    HW277309  13.106   3.577  13.215 -1.8461 -2.5810 -1.0160
21862SOL     OW77310   1.239   2.319   1.072  0.9183  0.1916 -0.1137
21862SOL    HW177311   1.236   2.257   0.999  0.2379  0.4206 -0.2908
21862SOL    HW277312   1.152   2.358   1.074  0.4294 -0.8538  1.7271
21863SOL     OW77313   2.197  13.629  12.342 -0.1112  0.1302  0.0221
21863SOL    HW177314   2.262  13.689  12.305  0.2089 -0.5385 -0.5259
21863SOL    HW277315   2.238  13.595  12.421 -1.0963  2.1450  1.5078
21864SOL     OW77316   9.177   3.431   1.503 -0.3153 -0.8235  0.4580
21864SOL    HW177317   9.092   3.391   1.521 -0.8363 -0.3377 -0.8116
21864SOL    HW277318   9.168   3.521   1.533 -0.1811 -0.8219  0.4942
21865SOL     OW77319   0.508   9.302   2.955  0.4255  0.0217  0.0530
21865SOL    HW177320   0.562   9.325   2.879  2.8130 -1.4849  1.1826
21865SOL    HW277321   0.507   9.381   3.008  0.9672  0.2857 -0.3151
21866SOL     OW77322  10.776   0.736   4.216 -0.0451 -0.4856  0.2775
21866SOL    HW177323  10.700   0.774   4.172  1.5027 -0.3853 -2.5138
21866SOL    HW277324  10.835   0.810   4.231 -0.4910 -0.5343  2.5819
21867SOL     OW77325   2.756   9.143   1.403  0.3967 -0.5163  0.4547
21867SOL    HW177326   2.847   9.170   1.393  0.2566  1.2121  2.7656
21867SOL    HW277327   2.758   9.080   1.476  0.0249 -2.8741 -1.4345
21868SOL     OW77328   0.514   5.557  10.050 -0.4853 -0.2044 -0.0269
21868SOL    HW177329   0.606   5.542  10.029 -0.0709  2.0478 -0.0351
21868SOL    HW277330   0.475   5.469  10.050  1.8390 -1.3148  0.9851
21869SOL     OW77331  13.460  12.726   5.047 -0.3365  0.1736  0.2248
21869SOL    HW177332  13.525  12.705   5.114  0.3678 -0.2767 -0.5798
21869SOL    HW277333  13.392  12.774   5.094  0.3879  0.3177  1.1623
21870SOL     OW77334   8.077   8.139   3.588  0.2440  0.4027  0.6812
21870SOL    HW177335   8.113   8.163   3.503 -0.4399  0.3316  0.3585
21870SOL    HW277336   8.128   8.190   3.652 -0.9612  2.5331  0.0392
21871SOL     OW77337  10.391   4.734  12.288 -0.1119 -0.2907  0.5249
21871SOL    HW177338  10.382   4.824  12.321 -1.2268 -0.0358 -0.3798
21871SOL    HW277339  10.354   4.679  12.356 -0.0742  0.0056  0.7863
21872SOL     OW77340   3.921   7.472  12.166  0.0730 -0.3285 -0.4751
21872SOL    HW177341   3.980   7.397  12.163  0.3431 -0.1991  0.9537
21872SOL    HW277342   3.976   7.547  12.142 -0.0886 -0.5057 -1.4466
21873SOL     OW77343   1.793  11.462   5.207 -0.3490  0.2172 -0.1871
21873SOL    HW177344   1.732  11.410   5.259 -0.8921 -1.0080 -1.9493
21873SOL    HW277345   1.852  11.397   5.169  1.8000  1.3218  1.0433
21874SOL     OW77346   7.406   1.887   1.911  0.4485  0.1944  0.0735
21874SOL    HW177347   7.456   1.814   1.874 -1.3898 -0.8865 -0.4021
21874SOL    HW277348   7.343   1.910   1.843 -1.8897 -0.7203  1.7836
21875SOL     OW77349  13.440  10.449  13.438  0.0660  0.1576 -0.6654
21875SOL    HW177350  13.500  10.427  13.509 -0.0805 -0.3330 -0.6904
21875SOL    HW277351  13.494  10.494  13.373  0.3543 -0.0707 -0.5839
21876SOL     OW77352   7.866   4.597   8.343 -0.1468  0.3723 -0.1189
21876SOL    HW177353   7.908   4.652   8.278  1.5854 -0.4272  0.2604
21876SOL    HW277354   7.788   4.645   8.369  1.3087  2.7015  0.2638
21877SOL     OW77355   2.606   5.395   8.435  0.1361  0.0414  0.3669
21877SOL    HW177356   2.512   5.381   8.421  0.0368 -0.3667  1.3773
21877SOL    HW277357   2.630   5.331   8.502  2.0889 -3.0269 -2.9202
21878SOL     OW77358  11.707   6.802   2.176 -0.3191  0.5206 -0.6017
21878SOL    HW177359  11.754   6.749   2.241 -1.3486 -0.0407 -0.2887
21878SOL    HW277360  11.673   6.876   2.225 -0.6528  0.3677 -0.5937
21879SOL     OW77361  12.030  10.356  10.469 -0.4832  0.3117  1.0102
21879SOL    HW177362  11.980  10.278  10.442 -3.0665  1.9712  0.6663
21879SOL    HW277363  11.997  10.375  10.557  0.5006  0.7523  1.2925
21880SOL     OW77364   2.613   1.312   8.452 -0.2676  0.0313 -0.4575
21880SOL    HW177365   2.661   1.230   8.455 -1.4318 -0.9135 -3.5709
21880SOL    HW277366   2.669   1.371   8.400 -0.6388  0.2909 -0.5721
21881SOL     OW77367  10.501   5.984  12.728 -0.6884 -0.5264 -0.3213
21881SOL    HW177368  10.478   6.055  12.787 -0.9580 -1.4312  0.6979
21881SOL    HW277369  10.417   5.958  12.688 -0.6165 -0.3900 -0.5639
21882SOL     OW77370  11.971   8.184   9.623  0.3975 -0.0327 -0.3315
21882SOL    HW177371  11.883   8.191   9.659  0.7698  0.8259  0.4578
21882SOL    HW277372  12.019   8.129   9.685  0.6752  0.3163 -0.2305
21883SOL     OW77373   8.417   4.895   5.533 -0.0616  0.9781  0.2147
21883SOL    HW177374   8.417   4.800   5.522 -0.3779  1.0131 -0.1341
21883SOL    HW277375   8.432   4.929   5.445 -0.7721  1.2558  0.1962
21884SOL     OW77376  13.033   9.626  11.716  0.3415 -0.8441  0.0315
21884SOL    HW177377  13.037   9.549  11.774  0.0675 -0.0072  1.1954
21884SOL    HW277378  13.122   9.662  11.719 -0.0020 -0.0344  1.0306
21885SOL     OW77379  10.480  12.941  10.429 -0.5422  0.4297 -0.5341
21885SOL    HW177380  10.557  12.975  10.474  0.2296 -0.8363 -0.8742
21885SOL    HW277381  10.459  13.008  10.363  0.2159  0.8080 -0.3982
21886SOL     OW77382   5.611  10.442   5.741 -0.1947 -0.1565  0.0798
21886SOL    HW177383   5.675  10.507   5.772 -0.2105 -0.2861  0.3918
21886SOL    HW277384   5.534  10.495   5.718  0.1861  0.0467 -0.7617
21887SOL     OW77385  10.127   3.729   9.837 -0.4997 -0.8533 -0.0436
21887SOL    HW177386  10.108   3.640   9.868 -0.2926 -1.5325 -1.7336
21887SOL    HW277387  10.077   3.737   9.755 -0.7026  0.6851  0.1986
21888SOL     OW77388  10.732   9.258   4.442  0.1946 -0.3058 -0.7046
21888SOL    HW177389  10.752   9.303   4.360  1.7699 -2.4077 -1.5666
21888SOL    HW277390  10.805   9.279   4.500 -1.0870  1.4648  0.3703
21889SOL     OW77391  13.520   0.640  13.511  0.3537  0.0636 -0.4567
21889SOL    HW177392  13.518   0.591  13.594 -1.9697 -0.6842 -0.8854
21889SOL    HW277393  13.524   0.572  13.444  0.7012  0.6177 -1.0014
21890SOL     OW77394   7.047   2.289   6.749 -0.3283  0.8592  0.2710
21890SOL    HW177395   7.072   2.239   6.671  2.6065  2.3804  0.0989
21890SOL    HW277396   6.977   2.237   6.790  0.9678 -2.1653 -1.0616
21891SOL     OW77397   2.270   0.924  10.743  0.1068  0.4999  0.3668
21891SOL    HW177398   2.360   0.949  10.766 -0.0007  0.0315  1.3110
21891SOL    HW277399   2.281   0.843  10.693  0.0603 -1.8743  3.8473
21892SOL     OW77400   1.010   2.723   0.317  0.0305 -0.1290  0.0255
21892SOL    HW177401   1.071   2.662   0.274 -0.2797 -0.1578 -0.3829
21892SOL    HW277402   1.067   2.784   0.364  0.3365 -0.9468  0.7446
21893SOL     OW77403  11.909   4.138  11.500 -0.1767  0.3850  0.1854
21893SOL    HW177404  11.931   4.046  11.508 -0.0087  0.5315  1.7696
21893SOL    HW277405  11.842   4.141  11.432  1.1189 -0.6582 -1.1703
21894SOL     OW77406   7.074   6.273   1.304  0.0919  0.0230  0.3785
21894SOL    HW177407   7.115   6.225   1.232  1.9836 -1.5234  2.3598
21894SOL    HW277408   7.123   6.355   1.311 -0.6320  0.5617 -0.5413
21895SOL     OW77409   4.751   5.615  13.145 -0.6612 -0.2618  0.6337
21895SOL    HW177410   4.816   5.680  13.119 -0.8966  0.0651  0.8587
21895SOL    HW277411   4.759   5.546  13.079 -0.9543  0.3564 -0.0690
21896SOL     OW77412   3.990  13.568   4.515 -0.5020  0.2769  0.0590
21896SOL    HW177413   3.922  13.528   4.571 -0.4960  0.3331  0.1069
21896SOL    HW277414   3.949  13.648   4.483 -0.5317  0.2077 -0.0767
21897SOL     OW77415   9.070   2.567  10.747 -0.5170  0.2924  0.0563
21897SOL    HW177416   9.006   2.598  10.810 -0.6668  0.0826  0.0066
21897SOL    HW277417   9.146   2.542  10.799 -0.9259 -0.6217  0.2282
21898SOL     OW77418  10.038  10.184   9.442 -0.0712 -0.0334  0.2426
21898SOL    HW177419  10.123  10.223   9.466 -0.1173 -0.2663  0.8187
21898SOL    HW277420  10.010  10.233   9.366  1.6631 -1.4665 -1.4275
21899SOL     OW77421  13.732   6.567   9.636  0.3802 -0.3034 -0.0031
21899SOL    HW177422  13.683   6.612   9.567  2.1064  0.3479 -0.8483
21899SOL    HW277423  13.727   6.474   9.612  0.0383 -0.1929 -0.3816
21900SOL     OW77424   2.229   1.688  11.625  0.0094  0.1891 -0.6425
21900SOL    HW177425   2.162   1.620  11.630  0.8812 -0.8693 -2.3493
21900SOL    HW277426   2.193   1.755  11.567  0.2000 -0.1299 -1.1374
21901SOL     OW77427   7.859  11.972   4.106  0.0735  0.4132  0.1662
21901SOL    HW177428   7.847  11.889   4.152 -0.7901  1.1402  1.3211
21901SOL    HW277429   7.946  12.001   4.133  0.9930 -0.7355 -1.3531
21902SOL     OW77430   6.681   2.637  12.380 -0.1842 -0.4659  0.1488
21902SOL    HW177431   6.669   2.712  12.438 -0.8524  0.8565 -1.6108
21902SOL    HW277432   6.607   2.579  12.400 -0.9529  0.4361 -0.0578
21903SOL     OW77433  10.889  11.768   8.566  0.1521  0.1764  0.7557
21903SOL    HW177434  10.795  11.774   8.584  0.2930  1.4813  1.1795
21903SOL    HW277435  10.897  11.785   8.472 -0.1317 -1.3717  0.4200
21904SOL     OW77436   5.379   7.467   3.575  0.0274 -0.6104  0.2028
21904SOL    HW177437   5.334   7.408   3.515  2.0100 -0.8729 -1.1081
21904SOL    HW277438   5.459   7.420   3.600 -0.9744 -0.7706  3.5890
21905SOL     OW77439   9.052   8.165  11.538 -0.0882 -0.6129  0.1872
21905SOL    HW177440   9.067   8.199  11.627 -2.3851 -0.1107  0.4532
21905SOL    HW277441   9.068   8.240  11.481 -1.8601  0.0616  0.5043
21906SOL     OW77442   2.726   3.825   5.780  0.8688 -0.1158 -0.0947
21906SOL    HW177443   2.679   3.772   5.844  1.0295  1.7594  1.6611
21906SOL    HW277444   2.671   3.824   5.702 -0.6189 -0.3642  0.9327
21907SOL     OW77445   7.114   1.688  13.104  0.2427  0.2634 -0.1836
21907SOL    HW177446   7.092   1.760  13.163 -1.4662  0.1505 -0.6200
21907SOL    HW277447   7.209   1.694  13.092  0.2215  2.0529  0.2855
21908SOL     OW77448   3.863  10.493   9.762  0.1685  0.2245  0.5246
21908SOL    HW177449   3.930  10.427   9.740 -0.2860 -0.3976  0.9551
21908SOL    HW277450   3.896  10.534   9.842 -0.0646 -0.2414  0.8670
21909SOL     OW77451  10.953  12.499  10.885  0.3953  1.0142 -0.5324
21909SOL    HW177452  10.970  12.556  10.960 -1.0354  1.2140 -0.3333
21909SOL    HW277453  10.858  12.496  10.878  0.4097 -1.0989 -0.7245
21910SOL     OW77454  13.146   4.857   9.285  0.4836 -0.2911 -0.3767
21910SOL    HW177455  13.235   4.886   9.306  0.4750 -0.2067 -0.4546
21910SOL    HW277456  13.135   4.882   9.193  0.4611 -0.5079 -0.4315
21911SOL     OW77457  12.308   5.324   5.639 -0.4018  0.5343  0.5373
21911SOL    HW177458  12.290   5.321   5.545 -0.9219 -0.4271  0.6449
21911SOL    HW277459  12.327   5.233   5.662  0.2032  0.8376  1.2757
21912SOL     OW77460  10.689  13.126  10.360 -0.4916  0.4081 -0.3088
21912SOL    HW177461  10.741  13.203  10.337 -2.8976  2.6598  1.1674
21912SOL    HW277462  10.620  13.123  10.293 -0.9906  0.1366  0.2071
21913SOL     OW77463   8.460  12.892   5.841 -0.1422 -0.3071  0.1008
21913SOL    HW177464   8.430  12.849   5.922 -2.1138 -1.1984 -1.0391
21913SOL    HW277465   8.392  12.957   5.822 -0.2797 -0.8476 -1.3868
21914SOL     OW77466  11.868   5.789   7.266  1.4542  0.2033 -0.0676
21914SOL    HW177467  11.852   5.715   7.324 -1.2119  0.7937  0.0964
21914SOL    HW277468  11.888   5.749   7.181 -0.1790 -0.7666 -0.0477
21915SOL     OW77469  10.364  12.865   2.803  0.5222 -0.5239 -0.4596
21915SOL    HW177470  10.384  12.800   2.870 -0.8359 -1.0085 -0.5034
21915SOL    HW277471  10.415  12.837   2.726  0.5655 -1.0717 -0.2353
21916SOL     OW77472   1.601   0.019   8.399  0.3351 -0.0735  0.1818
21916SOL    HW177473   1.580   0.072   8.322 -0.9937 -2.3260 -1.1163
21916SOL    HW277474   1.587   0.078   8.473 -1.5363  1.2836 -1.1418
21917SOL     OW77475   3.113  12.483   0.416  0.3099  0.3986 -0.0950
21917SOL    HW177476   3.052  12.546   0.453 -0.5077  0.7494 -1.9051
21917SOL    HW277477   3.154  12.529   0.343  1.5171 -0.3813  0.0668
21918SOL     OW77478  11.218   1.313   4.858  0.3910 -0.0561 -0.0362
21918SOL    HW177479  11.173   1.293   4.940  1.2786  0.3473  0.5613
21918SOL    HW277480  11.161   1.376   4.815  0.6847  0.9893  1.0401
21919SOL     OW77481   3.140  10.334   9.529 -0.0204 -0.2561  0.5224
21919SOL    HW177482   3.129  10.302   9.439 -0.0703 -1.6407  1.0034
21919SOL    HW277483   3.235  10.335   9.542 -0.0075  0.0604  0.4317
21920SOL     OW77484   1.127   7.583  13.352 -0.9659 -0.0723 -0.5017
21920SOL    HW177485   1.101   7.569  13.443 -2.2192  0.8151 -0.6967
21920SOL    HW277486   1.186   7.658  13.354  1.0222 -1.5756 -0.1573
21921SOL     OW77487   7.227  12.860   4.449 -0.1351  0.1945  0.3002
21921SOL    HW177488   7.261  12.775   4.420 -1.1299  0.3496 -1.4903
21921SOL    HW277489   7.137  12.841   4.477  0.5960  0.1741  2.8519
21922SOL     OW77490  10.025   1.892   2.710 -0.0009  0.2812  0.0643
21922SOL    HW177491  10.060   1.949   2.642 -0.8618  0.1434 -0.5117
21922SOL    HW277492   9.934   1.877   2.684 -0.4258  0.4289  1.3645
21923SOL     OW77493  10.396   0.155   3.518  0.1140  0.0925  0.0200
21923SOL    HW177494  10.408   0.231   3.575 -0.9227  0.9377 -0.8475
21923SOL    HW277495  10.316   0.175   3.468 -0.3639 -1.7050 -0.0029
21924SOL     OW77496   1.324  10.216   0.732 -0.2671 -0.5493  0.5809
21924SOL    HW177497   1.307  10.310   0.721 -0.7160 -0.8665 -2.2214
21924SOL    HW277498   1.418  10.207   0.716 -0.4208 -0.6929 -0.2680
21925SOL     OW77499   9.657   7.023   0.555  0.4148 -0.5503  0.2011
21925SOL    HW177500   9.588   7.084   0.582  1.1187  0.1508  0.4714
21925SOL    HW277501   9.642   7.009   0.462  0.5673  0.4818  0.0115
21926SOL     OW77502   4.123   0.357   1.147  0.0507 -0.3864  0.6904
21926SOL    HW177503   4.195   0.413   1.117  0.0283  0.4191  2.0580
21926SOL    HW277504   4.138   0.273   1.105  0.1412  0.5964 -1.3652
21927SOL     OW77505  12.926  13.209   4.383  0.0557  0.4912  0.1669
21927SOL    HW177506  12.871  13.145   4.338 -1.2763  0.3047  1.9364
21927SOL    HW277507  13.010  13.207   4.336 -1.2966  0.5419 -2.4155
21928SOL     OW77508   0.316  11.400   2.515 -0.1918  0.4318  0.1709
21928SOL    HW177509   0.230  11.439   2.499 -0.1704  0.6293  0.5203
21928SOL    HW277510   0.307  11.354   2.598 -0.2847 -0.5393 -0.3632
21929SOL     OW77511   1.470   9.151   2.009  0.2424 -0.3761  0.0659
21929SOL    HW177512   1.500   9.219   2.068 -1.1630 -0.4466  0.9021
21929SOL    HW277513   1.550   9.119   1.967  1.3746 -0.7016  2.3193
21930SOL     OW77514   3.499   2.037  13.224  0.2330 -0.4590 -0.3458
21930SOL    HW177515   3.594   2.045  13.237 -0.1027 -0.0268  2.2201
21930SOL    HW277516   3.486   1.944  13.205  1.0067 -0.9347  1.2724
21931SOL     OW77517   0.007   4.977   0.319  0.4965  0.0912  0.0901
21931SOL    HW177518  -0.024   5.007   0.233 -0.8860  0.7113  0.7804
21931SOL    HW277519  -0.063   4.921   0.352  2.2274 -2.5079 -0.3473
21932SOL     OW77520  11.256  13.671   2.300  0.7463  0.4821  0.3470
21932SOL    HW177521  11.250  13.584   2.260  0.0901  0.2411  0.9455
21932SOL    HW277522  11.262  13.654   2.394  0.7765  1.0811  0.4581
21933SOL     OW77523  13.481   8.812   6.529 -0.3509 -0.2408  0.4356
21933SOL    HW177524  13.562   8.804   6.479  0.6078 -0.3185  1.9389
21933SOL    HW277525  13.435   8.885   6.487  1.0811  0.6353  0.2882
21934SOL     OW77526  12.220   8.135   3.221 -0.6360 -0.2885  0.2707
21934SOL    HW177527  12.174   8.138   3.137  0.8491 -3.2924 -0.7808
21934SOL    HW277528  12.285   8.205   3.216 -0.6196 -0.3870 -1.0659
21935SOL     OW77529   5.715   1.572   7.311 -0.7941 -0.0653 -0.7860
21935SOL    HW177530   5.717   1.477   7.320 -0.5166  0.0326  0.2519
21935SOL    HW277531   5.803   1.601   7.336 -0.7071  0.4268 -1.6174
21936SOL     OW77532  11.110   8.409   7.344 -0.1922  0.2215 -0.3642
21936SOL    HW177533  11.084   8.479   7.284  0.0748 -0.7724 -1.6856
21936SOL    HW277534  11.071   8.330   7.307  0.6195 -0.5347  0.3521
21937SOL     OW77535   7.298   2.456  11.995  0.4108  0.1482  0.0025
21937SOL    HW177536   7.254   2.371  11.995  1.2631 -0.3109 -1.1268
21937SOL    HW277537   7.226   2.520  11.997 -0.2361 -0.5574  1.6678
21938SOL     OW77538   1.632   5.401  12.192 -0.1747  0.1275  0.3875
21938SOL    HW177539   1.586   5.364  12.268  1.2364 -0.0797  1.1796
21938SOL    HW277540   1.634   5.329  12.129  1.2948 -0.7493  1.3643
21939SOL     OW77541   2.845   0.559  12.493 -0.1493 -0.3025 -0.9368
21939SOL    HW177542   2.896   0.520  12.422 -0.1758 -0.4659 -0.8657
21939SOL    HW277543   2.798   0.632  12.452 -0.8667 -0.9471 -1.2851
21940SOL     OW77544   4.893  10.235   4.422  0.1495 -0.1934 -0.4304
21940SOL    HW177545   4.952  10.230   4.347 -0.3944 -1.8987 -0.7701
21940SOL    HW277546   4.948  10.268   4.493  0.9526  0.3430 -1.2701
21941SOL     OW77547   8.260   5.673  11.082 -0.3971  0.0183 -0.6972
21941SOL    HW177548   8.285   5.688  11.173  2.6178 -0.9413 -1.2543
21941SOL    HW277549   8.250   5.578  11.075 -1.6790  0.1636 -1.1657
21942SOL     OW77550  12.804  13.440  10.030  0.9179  0.1691  0.1210
21942SOL    HW177551  12.751  13.425  10.108  1.6211 -1.5510  0.3060
21942SOL    HW277552  12.866  13.508  10.055  0.2777  0.5733  0.6269
21943SOL     OW77553   4.118   8.614   0.880 -0.2531 -0.1883  0.6595
21943SOL    HW177554   4.181   8.553   0.843  1.0388  1.1747  0.5242
21943SOL    HW277555   4.069   8.646   0.804  0.2794  0.2674  0.5033
21944SOL     OW77556   6.294   1.126   0.587  0.0358 -0.4173 -0.2148
21944SOL    HW177557   6.243   1.177   0.649 -0.7564 -1.1546 -0.2429
21944SOL    HW277558   6.289   1.175   0.505 -0.4001 -0.3474 -0.1465
21945SOL     OW77559   1.314  11.834   2.179  0.0744 -0.1497 -0.8162
21945SOL    HW177560   1.364  11.908   2.214  0.6558 -0.5239 -0.8481
21945SOL    HW277561   1.234  11.832   2.232  2.2058 -2.5865  2.7623
21946SOL     OW77562   5.778   9.278  12.851  0.1301  0.2064  0.2758
21946SOL    HW177563   5.748   9.319  12.932 -0.8845 -0.8816  0.4867
21946SOL    HW277564   5.873   9.272  12.861  0.0991  0.8071  1.0372
21947SOL     OW77565   2.365   3.466  12.883  0.3089 -0.2631  0.8053
21947SOL    HW177566   2.281   3.463  12.838  0.3871 -1.2742  0.6913
21947SOL    HW277567   2.400   3.553  12.863 -0.5302  0.0186  0.5315
21948SOL     OW77568   5.263   8.728   0.156 -0.1760  0.4718  0.3884
21948SOL    HW177569   5.332   8.687   0.104 -1.5310 -0.1324 -1.0153
21948SOL    HW277570   5.182   8.710   0.108 -1.4880  0.1185  2.5712
21949SOL     OW77571   9.131   7.501  11.618  0.5758 -0.6165  0.0891
21949SOL    HW177572   9.136   7.564  11.691  0.3249 -0.4023 -0.0797
21949SOL    HW277573   9.067   7.538  11.558  0.5551 -0.9483 -0.0976
21950SOL     OW77574   7.300   7.511   3.634  0.0910  0.0044  0.3044
21950SOL    HW177575   7.235   7.451   3.599 -0.2633  0.4614  0.1569
21950SOL    HW277576   7.320   7.570   3.561 -0.3762  0.7365  0.7582
21951SOL     OW77577  12.510  13.380   9.531  0.2807 -0.2470  0.4575
21951SOL    HW177578  12.540  13.338   9.450  0.2631  1.4257 -0.4806
21951SOL    HW277579  12.558  13.336   9.601 -0.3890 -2.3803 -0.3464
21952SOL     OW77580   9.243   1.148   0.353 -0.1899  0.9558 -0.4753
21952SOL    HW177581   9.200   1.216   0.300 -1.0370  1.0058  0.2503
21952SOL    HW277582   9.236   1.181   0.443 -1.5208 -0.5372  0.0132
21953SOL     OW77583  10.593   1.782   3.015 -0.1508 -0.1260 -0.0036
21953SOL    HW177584  10.524   1.797   2.950 -0.9864  0.8874  1.0735
21953SOL    HW277585  10.550   1.798   3.099  0.3898 -3.1371  0.9711
21954SOL     OW77586   5.168   3.216   7.643 -0.1383  0.3908  0.5998
21954SOL    HW177587   5.139   3.125   7.631  1.4542 -0.1541  0.6498
21954SOL    HW277588   5.182   3.224   7.738  0.2649  0.4996  0.5336
21955SOL     OW77589   3.726  11.670   5.108 -0.1350 -0.1614  0.1704
21955SOL    HW177590   3.800  11.642   5.162 -0.6998  0.2792  1.1888
21955SOL    HW277591   3.731  11.766   5.108  0.9137 -0.1489 -2.0780
21956SOL     OW77592   4.775   0.191   0.834 -0.0831  0.7372 -0.1508
21956SOL    HW177593   4.809   0.257   0.894  0.1953  0.1456  0.3495
21956SOL    HW277594   4.693   0.229   0.802 -1.4191  0.1453  2.3307
21957SOL     OW77595   0.341  12.693   2.370 -0.2741 -0.3345 -0.4647
21957SOL    HW177596   0.301  12.763   2.421  1.4543  2.8666 -3.0908
21957SOL    HW277597   0.430  12.685   2.405 -0.5259 -1.4688 -0.0297
21958SOL     OW77598   2.583   6.089   3.570 -1.0220 -0.2595  0.7231
21958SOL    HW177599   2.626   6.149   3.631  0.4896 -0.2604 -0.2800
21958SOL    HW277600   2.545   6.146   3.503 -0.7937 -0.3433  0.5186
21959SOL     OW77601   2.660  10.128   2.254  0.1435  0.7004  0.8666
21959SOL    HW177602   2.654  10.120   2.349  1.5741  0.1927  0.9381
21959SOL    HW277603   2.746  10.092   2.232 -0.6585 -0.3336 -0.7595
21960SOL     OW77604   9.255   3.950  11.893 -0.4229 -0.2958  0.1289
21960SOL    HW177605   9.329   4.007  11.871 -0.1199 -0.3040  1.1035
21960SOL    HW277606   9.286   3.897  11.966 -0.4277 -2.2910 -1.2440
21961SOL     OW77607   5.575   2.415   0.840 -0.4027  0.1848 -0.8450
21961SOL    HW177608   5.640   2.439   0.774 -0.1418 -0.3572 -0.7880
21961SOL    HW277609   5.623   2.360   0.902 -0.9284 -0.2910 -0.8517
21962SOL     OW77610   4.505  10.973   4.740 -0.4762  0.1074 -0.0195
21962SOL    HW177611   4.540  10.885   4.755  1.6640  0.5342 -2.0047
21962SOL    HW277612   4.411  10.960   4.733 -0.4514 -1.6530  1.9712
21963SOL     OW77613   9.281   5.567  13.189 -0.4784 -0.2843 -0.3823
21963SOL    HW177614   9.307   5.613  13.268 -0.7679 -1.4687  0.4292
21963SOL    HW277615   9.243   5.635  13.133  1.4180  0.9048 -0.3038
21964SOL     OW77616  11.332   7.395  10.035 -0.2679  0.1124 -0.0255
21964SOL    HW177617  11.376   7.461  10.089 -3.1509  1.5879  0.7357
21964SOL    HW277618  11.275   7.445   9.977  0.3477 -1.6057 -2.2609
21965SOL     OW77619   9.797   8.504  11.927 -0.3890  0.0466 -0.2100
21965SOL    HW177620   9.782   8.599  11.928  0.6239  0.2622  1.9316
21965SOL    HW277621   9.883   8.494  11.886 -0.4391  0.0731 -0.3207
21966SOL     OW77622   3.089  11.713   5.033 -0.2476 -0.4588 -0.3079
21966SOL    HW177623   2.998  11.741   5.032 -1.1171 -3.0069 -0.4863
21966SOL    HW277624   3.104  11.684   5.123  0.4564  0.0961 -0.2385
21967SOL     OW77625  11.494   5.925   3.563  0.5722  0.1604 -0.2813
21967SOL    HW177626  11.589   5.933   3.572  0.5354  3.2414 -1.2734
21967SOL    HW277627  11.477   5.946   3.471 -1.1041  0.6340  0.0960
21968SOL     OW77628  10.439   1.058   3.377 -0.4870  0.3522 -0.0273
21968SOL    HW177629  10.406   0.973   3.406  0.6217 -0.2686 -0.5063
21968SOL    HW277630  10.394   1.074   3.294  0.8491 -0.8161 -1.0276
21969SOL     OW77631  12.365  11.190   5.083 -0.3221 -0.2159 -0.3233
21969SOL    HW177632  12.448  11.145   5.068  0.2083  0.5766  0.1449
21969SOL    HW277633  12.298  11.123   5.068  0.4505 -1.2739  0.7124
21970SOL     OW77634   8.416  11.876   0.625  0.0628 -0.4515  0.5434
21970SOL    HW177635   8.469  11.900   0.701 -0.4724 -0.0346  0.7864
21970SOL    HW277636   8.329  11.857   0.660  0.1853 -1.7081  0.2186
21971SOL     OW77637  13.676   5.057  10.623 -0.0312 -0.0768 -0.0803
21971SOL    HW177638  13.692   5.074  10.531 -0.3108  0.2874 -0.0643
21971SOL    HW277639  13.681   5.143  10.665 -0.7866 -0.1107  0.1012
21972SOL     OW77640   3.390   8.033   7.969 -0.0496 -0.3792  0.4459
21972SOL    HW177641   3.334   7.955   7.981 -0.6247 -0.2179 -0.9483
21972SOL    HW277642   3.354   8.097   8.029 -2.3968  0.2075 -1.4034
21973SOL     OW77643   8.970   3.480   6.459  0.2260 -0.7327 -0.1654
21973SOL    HW177644   8.969   3.479   6.363  1.9385  1.4356 -0.2855
21973SOL    HW277645   9.063   3.487   6.481 -0.2502  0.8382  1.5787
21974SOL     OW77646  10.394  11.034   0.003 -0.2505 -0.1238 -0.0976
21974SOL    HW177647  10.327  10.968   0.019  1.1516 -1.2986  1.1793
21974SOL    HW277648  10.417  11.023  -0.089 -0.2115 -1.2654  0.0345
21975SOL     OW77649   3.566   5.986   4.832  0.9098  0.1438  0.4643
21975SOL    HW177650   3.542   6.030   4.751  0.5889 -0.7652  0.0550
21975SOL    HW277651   3.495   6.007   4.893  0.3114 -0.5308  0.0025
21976SOL     OW77652  11.342   3.263   6.828 -0.4168 -0.3259 -0.5667
21976SOL    HW177653  11.292   3.301   6.900 -0.9078  0.6575 -1.3905
21976SOL    HW277654  11.290   3.283   6.750  1.1012  0.4931 -1.4225
21977SOL     OW77655  13.465   1.920   1.182  0.2481 -0.2334  0.0019
21977SOL    HW177656  13.417   1.851   1.136 -0.8960 -0.2796  1.1940
21977SOL    HW277657  13.544   1.934   1.130 -0.5950 -0.8419 -1.5034
21978SOL     OW77658   4.874  10.212   5.488  0.8115 -0.3419  0.2144
21978SOL    HW177659   4.846  10.287   5.436  1.3047 -0.7997 -0.7316
21978SOL    HW277660   4.969  10.218   5.490  0.8897 -1.2373 -0.3369
21979SOL     OW77661   1.381  12.814   6.652  0.1328  0.0746 -0.4953
21979SOL    HW177662   1.427  12.731   6.640 -2.0100 -1.1363 -0.8610
21979SOL    HW277663   1.332  12.826   6.570  0.4113  1.7287 -0.4544
21980SOL     OW77664   1.213  10.314   5.086  0.1728  0.6011  0.0061
21980SOL    HW177665   1.268  10.264   5.025  1.2134  1.6157  0.0759
21980SOL    HW277666   1.155  10.364   5.029 -0.2181  0.0569 -0.0860
21981SOL     OW77667   5.894   4.930   8.370 -0.2952  0.1285  0.1632
21981SOL    HW177668   5.982   4.921   8.408 -0.1392 -0.3271 -0.3039
21981SOL    HW277669   5.906   4.913   8.277 -0.4851  2.2343 -0.3027
21982SOL     OW77670  10.768   6.816  10.992 -0.2925  0.3772  0.0395
21982SOL    HW177671  10.778   6.876  10.918  0.7022  0.8812  0.5727
21982SOL    HW277672  10.856   6.807  11.029 -0.7889  0.2563  1.2526
21983SOL     OW77673  13.597   3.539   1.321 -0.2787 -0.5458  0.5437
21983SOL    HW177674  13.502   3.532   1.323 -0.2818 -1.7865 -1.3447
21983SOL    HW277675  13.623   3.538   1.413 -2.0673 -0.3360  1.0938
21984SOL     OW77676   1.772   2.537   5.618  0.3954  0.1452 -0.0102
21984SOL    HW177677   1.866   2.554   5.626  0.2867  1.1827 -0.7077
21984SOL    HW277678   1.736   2.559   5.705  0.3609  3.1305 -0.6689
21985SOL     OW77679   8.424  11.112   6.473  0.5088 -0.6987  0.1844
21985SOL    HW177680   8.339  11.144   6.443  0.0205 -3.2432 -1.4823
21985SOL    HW277681   8.487  11.177   6.440 -0.6717  0.5683  0.3727
21986SOL     OW77682   8.141  13.350   6.768 -0.7049 -0.1802 -0.3203
21986SOL    HW177683   8.117  13.320   6.681  2.9816 -0.4881 -1.4083
21986SOL    HW277684   8.098  13.435   6.777 -0.6115  0.1859 -2.7414
21987SOL     OW77685   1.874   4.504   9.180 -0.1100 -0.1691 -0.1206
21987SOL    HW177686   1.807   4.441   9.205  0.2504 -0.5057  0.0204
21987SOL    HW277687   1.947   4.450   9.148 -0.2396  0.2247 -1.1050
21988SOL     OW77688   8.072   1.512  13.190 -0.6572  0.2706  0.6087
21988SOL    HW177689   8.069   1.549  13.278  1.0743  1.6312  0.1597
21988SOL    HW277690   8.129   1.435  13.198  0.4180  1.0362  0.5002
21989SOL     OW77691   5.647   6.654   9.392 -0.4166 -0.0797  0.7502
21989SOL    HW177692   5.722   6.713   9.401 -1.7260  1.4748  1.9452
21989SOL    HW277693   5.636   6.616   9.479 -2.1676  1.1898  1.1168
21990SOL     OW77694  10.176   4.533   4.392  0.3062 -0.1603 -0.1515
21990SOL    HW177695  10.157   4.625   4.373  0.7440 -0.3945 -1.8820
21990SOL    HW277696  10.216   4.535   4.479  1.5202  1.4567 -0.6843
21991SOL     OW77697   4.893  13.436   6.391  0.0577  0.4144  0.3612
21991SOL    HW177698   4.822  13.463   6.333 -0.2753  1.2586  1.1300
21991SOL    HW277699   4.870  13.473   6.476  1.4587  0.7682  0.6158
21992SOL     OW77700   0.036   4.049   1.654 -0.7258  0.0185 -0.0804
21992SOL    HW177701  -0.034   4.112   1.671 -0.0941  0.3771  1.3750
21992SOL    HW277702   0.064   4.068   1.564 -1.4384  0.9203 -0.1273
21993SOL     OW77703   0.709   5.799   2.541 -0.6355  0.1395  0.1721
21993SOL    HW177704   0.793   5.773   2.503 -0.9805  0.3629 -0.7725
21993SOL    HW277705   0.692   5.886   2.505 -0.5166  0.7982  1.6210
21994SOL     OW77706   6.658   2.158  11.407  0.2220  0.1211  0.4952
21994SOL    HW177707   6.698   2.204  11.333 -1.0826  1.5685  0.6284
21994SOL    HW277708   6.605   2.089  11.367 -0.4677  0.8897  0.0572
21995SOL     OW77709   4.696  11.754  12.076  0.2336  0.3068  0.1078
21995SOL    HW177710   4.783  11.776  12.044 -0.3629  0.1931 -1.6876
21995SOL    HW277711   4.664  11.836  12.115  1.0690  0.3847  0.6636
21996SOL     OW77712   6.765   5.298   6.681 -0.2439 -0.0302  0.4410
21996SOL    HW177713   6.702   5.228   6.697 -1.0095  0.2599 -1.0671
21996SOL    HW277714   6.842   5.254   6.646  0.1656 -0.3171  1.6460
21997SOL     OW77715  12.541   0.719   7.213  0.0747  0.1160  0.1995
21997SOL    HW177716  12.542   0.811   7.189  1.1998  0.1975  0.5315
21997SOL    HW277717  12.485   0.715   7.291  1.2095  0.7516  1.0638
21998SOL     OW77718  11.097   3.676  11.537 -0.1911 -0.6278  0.1914
21998SOL    HW177719  11.126   3.696  11.626 -0.9645  1.6919 -0.0175
21998SOL    HW277720  11.017   3.625  11.549  1.3652 -3.1528  0.7458
21999SOL     OW77721   6.195  12.254   2.661 -0.8105 -0.0508 -0.7270
21999SOL    HW177722   6.234  12.198   2.727  0.2678 -0.0109 -1.2979
21999SOL    HW277723   6.250  12.241   2.583  0.0370  2.4125 -0.6393
22000SOL     OW77724   9.452   2.581   6.462  0.4041  0.5818 -0.5701
22000SOL    HW177725   9.505   2.536   6.527  0.0123 -1.1543 -1.4040
22000SOL    HW277726   9.403   2.512   6.418 -0.9016  1.9130 -1.3187
22001SOL     OW77727   9.914  12.054   8.389 -0.0584 -0.4132 -0.4986
22001SOL    HW177728   9.922  12.027   8.297 -0.3367  1.4350 -1.1092
22001SOL    HW277729   9.837  12.111   8.390  1.1151  1.2548  0.4426
22002SOL     OW77730   5.591  11.472  12.935  0.3595  0.1446 -0.2412
22002SOL    HW177731   5.538  11.414  12.880  1.8260 -0.8248 -0.6725
22002SOL    HW277732   5.659  11.506  12.876  1.0991  0.2102  0.6331
22003SOL     OW77733   4.921   9.894   6.784  0.0241 -0.0290  0.1733
22003SOL    HW177734   4.877   9.967   6.740 -2.2312 -0.5992  1.3335
22003SOL    HW277735   4.908   9.820   6.726 -2.5586 -0.6795  1.4453
22004SOL     OW77736  12.496   0.277  11.407 -0.7164 -0.4410  0.0635
22004SOL    HW177737  12.482   0.309  11.318  0.1334 -2.3281 -0.7922
22004SOL    HW277738  12.415   0.300  11.454 -1.9208 -0.9844 -1.6657
22005SOL     OW77739  11.582  10.340   1.277  0.3593  0.3312  0.5561
22005SOL    HW177740  11.664  10.373   1.240  0.4408  0.6132  0.9775
22005SOL    HW277741  11.527  10.418   1.286  0.7385  0.4446  2.0381
22006SOL     OW77742   1.613   6.625   4.925 -0.4701  0.1511 -0.4746
22006SOL    HW177743   1.567   6.568   4.986 -1.8805  0.8462 -0.8358
22006SOL    HW277744   1.543   6.668   4.876  0.5959  0.8890 -1.3958
22007SOL     OW77745   7.764   7.161   5.491 -0.4046  0.1746 -0.7701
22007SOL    HW177746   7.774   7.125   5.403  0.7773 -0.5101 -0.3815
22007SOL    HW277747   7.725   7.090   5.542  3.3669 -1.3095  0.3822
22008SOL     OW77748   2.461   1.582   4.643  0.2170 -0.9389  0.1340
22008SOL    HW177749   2.372   1.551   4.631  0.6450 -2.3914  0.5751
22008SOL    HW277750   2.453   1.655   4.704 -0.7672 -0.3921 -0.6209
22009SOL     OW77751   1.958   9.053   7.416 -0.3888 -0.1866 -0.0762
22009SOL    HW177752   1.904   9.092   7.485 -0.6657  0.8986 -0.8802
22009SOL    HW277753   1.941   8.959   7.423  0.8720 -0.3076  2.3926
22010SOL     OW77754   7.914   0.946   5.880 -0.3692  0.0798  0.5865
22010SOL    HW177755   7.937   0.853   5.883 -1.3277 -0.1632  0.6364
22010SOL    HW277756   7.966   0.985   5.951  1.3076 -0.1014 -0.4785
22011SOL     OW77757   8.443   0.442  10.000  0.4220  0.1796 -0.1117
22011SOL    HW177758   8.491   0.472   9.923  1.2047 -0.9849 -0.1099
22011SOL    HW277759   8.380   0.378   9.967  0.5382 -0.0846  0.1643
22012SOL     OW77760   1.324   9.106  11.910  0.3934  0.0991 -0.0961
22012SOL    HW177761   1.316   9.039  11.979 -0.9798  1.1635  0.8360
22012SOL    HW277762   1.302   9.060  11.829  0.9659 -0.9265  0.3065
22013SOL     OW77763  11.393  10.257   0.307 -0.0903 -0.6293 -0.0459
22013SOL    HW177764  11.385  10.166   0.279  0.1208 -1.1034  1.3355
22013SOL    HW277765  11.486  10.269   0.326 -0.1841 -0.2607  0.1943
22014SOL     OW77766   7.503   2.703   0.686 -0.3291 -0.3727  0.3576
22014SOL    HW177767   7.547   2.704   0.601  0.5163 -1.1877  0.7658
22014SOL    HW277768   7.562   2.750   0.744  0.4864 -2.2228  1.1075
22015SOL     OW77769   0.178   4.864   8.848 -0.7201 -0.1513  0.3118
22015SOL    HW177770   0.266   4.842   8.820  0.0647 -0.1147  2.5340
22015SOL    HW277771   0.173   4.959   8.840 -0.6090 -0.1727  0.0113
22016SOL     OW77772   1.484   8.673   8.908 -0.0876 -0.0723  0.4554
22016SOL    HW177773   1.537   8.753   8.905  0.5707 -0.5028  0.3310
22016SOL    HW277774   1.452   8.669   8.998  2.5039 -1.3129  1.4280
22017SOL     OW77775   4.169   7.930  11.758 -0.5228  0.1074 -0.2771
22017SOL    HW177776   4.258   7.897  11.762 -0.9340 -1.0270 -0.1812
22017SOL    HW277777   4.173   8.016  11.801  0.6647  0.4367 -0.9984
22018SOL     OW77778  11.684   7.144   3.062  0.1308  0.3080  0.3209
22018SOL    HW177779  11.649   7.054   3.067 -0.1222  0.4568  2.2746
22018SOL    HW277780  11.744   7.150   3.137  0.2536  1.7194  0.1302
22019SOL     OW77781  11.956   4.632   3.767  0.0626  0.1742 -0.0183
22019SOL    HW177782  11.957   4.583   3.684  1.1243  0.0368  0.0595
22019SOL    HW277783  11.870   4.613   3.805 -0.9388  1.2281 -1.6472
22020SOL     OW77784   4.891   7.543  12.918  0.1329  0.1207  0.0001
22020SOL    HW177785   4.878   7.522  13.010 -0.7141  0.3078 -0.0654
22020SOL    HW277786   4.882   7.459  12.873 -3.5820  0.5195 -0.2937
22021SOL     OW77787  11.708   3.070  10.374  0.0917 -0.0562 -0.7026
22021SOL    HW177788  11.781   3.009  10.373  0.6155  0.4608  1.4959
22021SOL    HW277789  11.631   3.015  10.390  0.3616 -0.3137 -0.2800
22022SOL     OW77790   0.505   6.003  10.804  0.2962  0.3131  0.2037
22022SOL    HW177791   0.463   5.920  10.781  0.8650  0.5590 -1.9655
22022SOL    HW277792   0.438   6.052  10.851  0.0915 -1.5143  1.9557
22023SOL     OW77793   2.237   0.904   7.340 -0.3918  0.1213  0.4723
22023SOL    HW177794   2.255   0.967   7.411 -2.6233  1.3325  0.0848
22023SOL    HW277795   2.271   0.946   7.261 -1.2798  0.5745  0.3136
22024SOL     OW77796   9.382   3.751   4.853  0.3521  0.1843  0.1261
22024SOL    HW177797   9.399   3.740   4.759  0.1208  1.2713 -0.0507
22024SOL    HW277798   9.464   3.786   4.888  0.0715  0.8593  0.1213
22025SOL     OW77799  10.995   6.959   0.014  0.1946  0.1414 -0.3940
22025SOL    HW177800  11.012   6.884  -0.043 -1.0071  0.9892 -1.9645
22025SOL    HW277801  10.907   6.943   0.049  1.5559 -1.2183  2.7210
22026SOL     OW77802   3.100   2.008  10.018 -0.0633  0.2654 -0.4247
22026SOL    HW177803   3.133   1.918  10.016 -1.3349 -0.2656  0.7255
22026SOL    HW277804   3.178   2.062  10.033  0.5838 -0.7357 -0.1091
22027SOL     OW77805  13.362   6.362   3.447 -0.0397 -0.0288  0.1477
22027SOL    HW177806  13.377   6.390   3.537  0.2080 -1.6992  0.6633
22027SOL    HW277807  13.388   6.437   3.394 -1.3751  1.4537  1.4802
22028SOL     OW77808  12.790   8.505   5.466 -0.0180  0.0226 -0.1073
22028SOL    HW177809  12.777   8.420   5.508  1.8464 -0.3088 -0.1321
22028SOL    HW277810  12.868   8.541   5.509  0.2153  0.9506 -1.2762
22029SOL     OW77811   9.740   2.039   4.148  0.2400 -0.2404 -0.2100
22029SOL    HW177812   9.775   2.110   4.095 -0.6029 -0.2867 -0.8549
22029SOL    HW277813   9.696   2.082   4.221 -0.8778 -0.0349 -0.9684
22030SOL     OW77814   0.497  11.751   7.492 -0.6691  0.1789  0.0408
22030SOL    HW177815   0.557  11.811   7.537 -1.4940  1.2077 -0.1739
22030SOL    HW277816   0.421  11.746   7.550 -1.9362  1.8630 -1.3636
22031SOL     OW77817   3.740   3.114   6.884  0.2331 -0.4405  0.6509
22031SOL    HW177818   3.700   3.197   6.909 -1.5749 -0.8080 -0.8545
22031SOL    HW277819   3.742   3.116   6.788 -0.7805 -2.5325  0.5417
22032SOL     OW77820   7.032   3.718   3.192 -0.2113 -0.8470  0.0379
22032SOL    HW177821   6.991   3.639   3.157 -1.1433 -1.2249  1.8469
22032SOL    HW277822   7.078   3.689   3.271  3.7289 -0.4548 -1.8303
22033SOL     OW77823  12.424  10.199   3.007  0.7121  0.5683 -0.2738
22033SOL    HW177824  12.393  10.269   2.949  1.3342  0.8325 -0.2961
22033SOL    HW277825  12.349  10.141   3.016  0.4981  0.7049 -1.0732
22034SOL     OW77826   4.465   6.563  12.871 -0.6179 -0.1458  0.3152
22034SOL    HW177827   4.389   6.530  12.920 -0.4392 -0.5951  0.2920
22034SOL    HW277828   4.532   6.495  12.882 -0.6691 -0.3911 -0.7807
22035SOL     OW77829  11.699   3.721   0.666  0.4654  0.5902  0.5299
22035SOL    HW177830  11.671   3.748   0.578  0.2362  1.1793  0.7847
22035SOL    HW277831  11.708   3.802   0.715 -1.1854  0.1846  1.5892
22036SOL     OW77832   9.103  13.007   8.848 -0.5012 -0.9146 -0.9784
22036SOL    HW177833   9.074  12.929   8.896 -0.4556 -0.3443  0.0057
22036SOL    HW277834   9.026  13.064   8.846 -0.1879 -0.4705 -0.5960
22037SOL     OW77835   0.738  13.686   7.981 -0.1276 -0.1341  0.1474
22037SOL    HW177836   0.737  13.597   8.016 -0.9863 -0.1528  0.0852
22037SOL    HW277837   0.830  13.701   7.957 -0.2484 -1.6543 -1.4906
22038SOL     OW77838  11.272   9.150   9.042 -0.0556 -0.1339  0.1702
22038SOL    HW177839  11.244   9.238   9.064 -0.6796  0.0210 -1.1560
22038SOL    HW277840  11.213   9.122   8.971 -0.5175 -1.9840  1.2015
22039SOL     OW77841   4.773   9.035   8.628 -0.3777 -0.2503  0.0669
22039SOL    HW177842   4.777   9.011   8.536 -1.1809  0.7549 -0.2352
22039SOL    HW277843   4.864   9.053   8.652 -0.4191  1.9020 -1.1914
22040SOL     OW77844   1.972   5.507   4.422 -0.6062 -0.1703  0.3556
22040SOL    HW177845   2.040   5.450   4.387  1.3151  0.6254  2.5011
22040SOL    HW277846   1.985   5.505   4.517 -3.3713  0.3403  0.8498
22041SOL     OW77847  11.670   1.575   8.469  0.0472  0.4627  0.1238
22041SOL    HW177848  11.761   1.591   8.494  0.2556  0.7834 -0.8252
22041SOL    HW277849  11.671   1.490   8.426 -0.3853 -0.2921  1.5302
22042SOL     OW77850   9.656  13.396   5.359 -0.0965  0.2554  0.0135
22042SOL    HW177851   9.730  13.455   5.367 -0.3002  0.3764  1.1041
22042SOL    HW277852   9.592  13.429   5.422 -0.4496 -0.7698  0.2044
22043SOL     OW77853  10.316   3.105  11.017 -0.3320 -0.3549  0.5179
22043SOL    HW177854  10.293   3.116  11.109 -1.2237 -2.8210  0.6761
22043SOL    HW277855  10.234   3.122  10.969 -0.7180 -2.0528  0.4922
22044SOL     OW77856  11.758  13.476  11.661 -0.1267  0.0310 -0.3825
22044SOL    HW177857  11.694  13.545  11.678  1.0937  1.0110  0.3741
22044SOL    HW277858  11.778  13.484  11.568  0.0915  0.7874 -0.2742
22045SOL     OW77859   9.210   1.739   3.820  0.0329  0.2058  0.0140
22045SOL    HW177860   9.159   1.676   3.871 -0.5916  0.5890 -0.1212
22045SOL    HW277861   9.146   1.805   3.793  0.8398  1.4238  0.9656
22046SOL     OW77862   0.764   2.653   4.390 -0.2320  0.2111 -0.2030
22046SOL    HW177863   0.814   2.611   4.460 -1.2132 -0.7459 -0.0455
22046SOL    HW277864   0.769   2.747   4.410  1.2323  0.1219 -0.0344
22047SOL     OW77865   8.170  13.331   8.034  0.0694 -0.1138 -0.2145
22047SOL    HW177866   8.134  13.396   8.094  0.3958  0.8458 -1.0311
22047SOL    HW277867   8.219  13.271   8.090  1.5584  1.5567  0.3902
22048SOL     OW77868   4.139   2.786  11.058 -0.5689  0.3338  0.4237
22048SOL    HW177869   4.102   2.806  10.972  1.0916  1.2700 -0.1388
22048SOL    HW277870   4.224   2.746  11.038 -0.3921  0.0735  1.6298
22049SOL     OW77871   8.352  10.334   0.879 -0.0099  0.0138 -0.5367
22049SOL    HW177872   8.416  10.287   0.932  1.3906  2.8066  0.4685
22049SOL    HW277873   8.320  10.270   0.816  0.9933 -2.4764  1.3419
22050SOL     OW77874  10.637  13.588   8.474 -0.1279  0.1458 -0.3239
22050SOL    HW177875  10.656  13.621   8.561  1.0383  0.6707 -0.7636
22050SOL    HW277876  10.664  13.658   8.415  0.3496 -0.7358 -1.1674
22051SOL     OW77877   6.384  12.383  10.970 -0.2274 -0.3400 -0.0739
22051SOL    HW177878   6.353  12.300  10.935  0.3006 -0.1897 -0.9276
22051SOL    HW277879   6.464  12.402  10.921 -0.1103  0.4626  0.4060
22052SOL     OW77880   2.459   3.547   7.213  0.3476  0.3557  0.2611
22052SOL    HW177881   2.400   3.618   7.189  0.5968  0.5391  0.1833
22052SOL    HW277882   2.510   3.530   7.133 -0.6099 -0.8114 -0.1416
22053SOL     OW77883   9.122   7.535   7.517 -0.1399  0.0544 -0.1255
22053SOL    HW177884   9.112   7.543   7.423  0.6419 -0.6027 -0.2751
22053SOL    HW277885   9.098   7.444   7.536  1.6092 -0.4135  0.0210
22054SOL     OW77886   0.856  10.317   5.152 -0.3616 -0.2556  0.4521
22054SOL    HW177887   0.840  10.388   5.215  1.7797  0.6093  0.1316
22054SOL    HW277888   0.875  10.241   5.207  0.0758  0.1324  0.8476
22055SOL     OW77889   5.352  12.141   1.937 -0.5091  0.5988  0.2553
22055SOL    HW177890   5.339  12.091   1.857  1.0398 -1.1560  1.0132
22055SOL    HW277891   5.305  12.092   2.004  1.9339 -0.6005  1.2223
22056SOL     OW77892   0.583   9.928   2.197  0.5056  0.7754  0.0236
22056SOL    HW177893   0.520  10.000   2.196 -0.1849  0.2860  2.3145
22056SOL    HW277894   0.543   9.861   2.141 -0.7581  0.7127  0.9411
22057SOL     OW77895   6.702   8.719   5.390  0.3384 -0.1157 -0.4009
22057SOL    HW177896   6.658   8.754   5.468 -0.3832 -3.3077  0.8166
22057SOL    HW277897   6.725   8.795   5.338 -2.3230  1.9958  1.2611
22058SOL     OW77898  13.239   3.345   7.820 -0.0157  0.1738 -0.3539
22058SOL    HW177899  13.232   3.408   7.749 -2.9265  1.0584  0.5804
22058SOL    HW277900  13.164   3.287   7.809  0.7022 -1.0263  0.7657
22059SOL     OW77901   8.869  13.641   1.213 -0.6194  0.2557 -0.1680
22059SOL    HW177902   8.849  13.610   1.124 -1.6322  0.0705  0.1138
22059SOL    HW277903   8.955  13.603   1.232 -0.4453  0.1969 -1.0204
22060SOL     OW77904   8.267   8.138   4.922 -0.3983 -0.4388  0.0318
22060SOL    HW177905   8.352   8.120   4.961 -0.9047 -1.2358  0.7911
22060SOL    HW277906   8.288   8.178   4.837  0.7284 -0.6857  0.1778
22061SOL     OW77907  13.639  10.739   5.977 -0.5918  0.0778 -0.0723
22061SOL    HW177908  13.617  10.819   6.024  2.8768  1.1312  0.0655
22061SOL    HW277909  13.616  10.757   5.886  1.1184  1.7751 -0.2377
22062SOL     OW77910   0.802   1.400   8.862 -0.3842 -0.2738 -0.3464
22062SOL    HW177911   0.809   1.491   8.892 -0.3292 -0.6604  0.8653
22062SOL    HW277912   0.722   1.368   8.903 -0.4407 -0.7487 -0.8340
22063SOL     OW77913   0.775   3.901   9.347  0.0446 -0.0314  0.3014
22063SOL    HW177914   0.681   3.886   9.339 -0.3422  2.1119  0.2848
22063SOL    HW277915   0.797   3.873   9.436 -0.8076  0.3955  0.6502
22064SOL     OW77916   7.313   5.462  12.269 -0.1825  0.1438  0.5882
22064SOL    HW177917   7.333   5.537  12.212  2.2591 -0.4099  0.6041
22064SOL    HW277918   7.361   5.389  12.230 -1.4989 -1.1463  1.2897
22065SOL     OW77919   0.558  12.590   5.180 -0.2936 -0.1837  0.1643
22065SOL    HW177920   0.558  12.511   5.234  0.2154  0.1591  0.6730
22065SOL    HW277921   0.612  12.653   5.228 -1.3022  0.7408  0.1387
22066SOL     OW77922   3.125  11.910   6.923  0.4042  0.2179 -0.2901
22066SOL    HW177923   3.078  11.865   6.853 -0.4927  0.6958 -0.0115
22066SOL    HW277924   3.212  11.926   6.887  0.1726 -0.1477 -1.0387
22067SOL     OW77925  11.392  11.420   8.709 -0.3119  1.1635 -0.7126
22067SOL    HW177926  11.386  11.434   8.804 -1.4857  0.6690 -0.6883
22067SOL    HW277927  11.305  11.443   8.677 -0.1283  0.6817 -1.5765
22068SOL     OW77928   1.155   2.884  10.900  0.0614 -0.5682  0.0310
22068SOL    HW177929   1.141   2.911  10.810 -0.6423 -0.0735  0.2763
22068SOL    HW277930   1.102   2.945  10.952 -0.7141 -1.7398  0.6750
22069SOL     OW77931   6.262   4.492  13.005 -0.3948  1.0251 -0.4604
22069SOL    HW177932   6.185   4.458  13.050 -0.2814  1.4897  0.0919
22069SOL    HW277933   6.331   4.490  13.071  0.3342 -0.3161 -1.2195
22070SOL     OW77934  11.565   3.080   6.002 -0.0648 -0.4497  0.0439
22070SOL    HW177935  11.525   3.014   5.945  2.9296 -1.6538 -0.8736
22070SOL    HW277936  11.655   3.048   6.015  0.6382  2.0286  1.9449
22071SOL     OW77937   1.340   3.678   3.599 -0.0753 -0.2347  0.1142
22071SOL    HW177938   1.396   3.658   3.673 -0.2441 -1.8459 -0.1457
22071SOL    HW277939   1.260   3.626   3.615 -0.4411  0.0368 -0.7708
22072SOL     OW77940   5.606  11.808  12.254 -0.4392  0.0643 -0.0852
22072SOL    HW177941   5.541  11.787  12.187 -1.4866  1.7391  0.3461
22072SOL    HW277942   5.659  11.729  12.261 -1.8910 -1.0531 -1.0699
22073SOL     OW77943   1.463   4.276   1.183 -0.0882 -0.3251 -0.1007
22073SOL    HW177944   1.407   4.215   1.135  0.3091 -0.4965 -0.3493
22073SOL    HW277945   1.446   4.361   1.141 -0.3429 -0.3289 -0.0126
22074SOL     OW77946   0.159  13.634   9.378  0.5239  0.4286 -0.0635
22074SOL    HW177947   0.082  13.609   9.327  0.4572  0.3272  0.0869
22074SOL    HW277948   0.233  13.610   9.323  0.4722 -0.3720  0.1968
22075SOL     OW77949   7.579  11.699  12.711  0.2154  0.2253  0.1987
22075SOL    HW177950   7.632  11.755  12.654  0.1044  2.0636  1.7730
22075SOL    HW277951   7.602  11.727  12.799 -0.4916 -1.6953  1.0401
22076SOL     OW77952   2.754   2.314   3.557  0.1842  0.5676  0.2953
22076SOL    HW177953   2.721   2.322   3.647 -1.5015 -0.6095 -0.1559
22076SOL    HW277954   2.697   2.371   3.506  0.3292  0.2744 -0.1980
22077SOL     OW77955   5.429   3.277   4.378  0.3750  0.0399  0.4072
22077SOL    HW177956   5.432   3.373   4.386  0.5185  0.0362  0.4113
22077SOL    HW277957   5.351   3.251   4.427 -1.6770  0.4352 -2.4497
22078SOL     OW77958   9.559   6.103  12.675 -0.5196  0.0935 -0.0749
22078SOL    HW177959   9.490   6.110  12.741 -0.0669 -0.4756  0.4715
22078SOL    HW277960   9.577   6.193  12.648  0.0813  0.4429  1.4058
22079SOL     OW77961  11.509  12.323   2.217  0.0282  0.6872  1.1536
22079SOL    HW177962  11.535  12.414   2.230 -0.9488  0.8968  1.7084
22079SOL    HW277963  11.548  12.277   2.292 -1.0778  0.9853  1.9325
22080SOL     OW77964   6.521   0.489   9.375 -0.0109 -0.4527 -0.1380
22080SOL    HW177965   6.506   0.494   9.280 -0.1842 -2.4195 -0.2646
22080SOL    HW277966   6.614   0.471   9.384  0.1528  0.4779  0.1183
22081SOL     OW77967  12.503   4.065   0.440 -0.0175  0.3230 -0.2169
22081SOL    HW177968  12.465   4.148   0.468 -1.2767 -0.1008 -0.5589
22081SOL    HW277969  12.437   4.000   0.465  1.9144 -0.8827  2.1479
22082SOL     OW77970  12.374   0.987   5.466  0.0396 -0.2340 -0.2556
22082SOL    HW177971  12.306   1.009   5.402  0.6210  1.0355 -0.4737
22082SOL    HW277972  12.344   1.027   5.547 -0.7799 -1.9874  0.3492
22083SOL     OW77973  10.581  12.436   7.075  0.0489  0.5917  0.3759
22083SOL    HW177974  10.549  12.402   7.159 -1.8521  2.5076  0.5264
22083SOL    HW277975  10.509  12.490   7.042  1.5573  1.6144 -1.4708
22084SOL     OW77976   7.007   3.126   6.539 -0.0654  0.1022 -0.4327
22084SOL    HW177977   6.994   3.218   6.564  0.1891  0.7665 -2.5060
22084SOL    HW277978   7.102   3.113   6.544 -0.2149 -0.5572  1.3497
22085SOL     OW77979   5.405   5.279   9.103  0.2007  0.3832 -0.1427
22085SOL    HW177980   5.345   5.230   9.047  2.2613 -0.2141 -1.9218
22085SOL    HW277981   5.415   5.224   9.181  0.9451 -1.0827 -1.2529
22086SOL     OW77982   9.604  12.133   1.802 -0.0861  0.9271  0.7975
22086SOL    HW177983   9.584  12.041   1.818  1.0267  0.5915  0.3459
22086SOL    HW277984   9.681  12.132   1.746 -0.4824  2.1281  0.1769
22087SOL     OW77985  12.288  12.232   3.340  0.5054  0.3101  0.4196
22087SOL    HW177986  12.313  12.266   3.426  1.0294  0.2301  0.2999
22087SOL    HW277987  12.259  12.308   3.291  2.2292  0.7141 -0.0503
22088SOL     OW77988  10.337   5.891   7.078 -0.4253 -0.2946  0.3917
22088SOL    HW177989  10.291   5.814   7.044  0.9643 -0.5673 -0.9570
22088SOL    HW277990  10.416   5.857   7.119 -0.1599  0.3444  0.4283
22089SOL     OW77991   2.630   3.985   7.839  0.0466  0.1046 -0.5016
22089SOL    HW177992   2.711   3.934   7.834 -1.6548 -2.6880 -2.2168
22089SOL    HW277993   2.573   3.934   7.897 -1.1386  1.0384 -0.7980
22090SOL     OW77994   0.645   9.440   1.174 -0.0839 -0.1134  0.4982
22090SOL    HW177995   0.608   9.518   1.132  1.8549  0.3905 -0.4099
22090SOL    HW277996   0.604   9.437   1.260 -2.4886  0.1380 -0.5408
22091SOL     OW77997   1.296  12.551   9.244 -0.5770 -0.0984  0.3982
22091SOL    HW177998   1.320  12.484   9.307  0.2695  0.0006  0.1914
22091SOL    HW277999   1.307  12.634   9.291  1.1459  0.0442 -0.1775
22092SOL     OW78000   6.218   7.825  13.411 -0.8586 -0.0964 -0.3733
22092SOL    HW178001   6.205   7.847  13.319  2.5070  1.6221 -0.5916
22092SOL    HW278002   6.224   7.729  13.412 -3.0863 -0.3211 -1.5017
22093SOL     OW78003   5.240   5.226   7.845 -0.1355  0.1271 -0.1873
22093SOL    HW178004   5.270   5.296   7.788 -1.3458  1.3372  0.6281
22093SOL    HW278005   5.146   5.239   7.854  0.1066  0.5575  2.7887
22094SOL     OW78006   0.114   7.318   2.562  0.7947  0.4772 -0.1791
22094SOL    HW178007   0.152   7.406   2.556 -0.9041  1.1862 -1.1387
22094SOL    HW278008   0.039   7.328   2.620  0.4886 -0.3094 -0.4275
22095SOL     OW78009   3.144   4.964   1.386  0.3575  0.3643 -0.4322
22095SOL    HW178010   3.063   4.931   1.424  1.1237 -1.2966 -0.1294
22095SOL    HW278011   3.209   4.957   1.457  1.6321 -2.0834 -1.7008
22096SOL     OW78012  10.594  10.789   3.854 -0.0761 -0.2842  0.5136
22096SOL    HW178013  10.501  10.780   3.877  0.1942 -1.0485  1.3495
22096SOL    HW278014  10.613  10.882   3.868 -0.6921 -0.1311  0.3962
22097SOL     OW78015  13.616  10.127   5.195  0.7135  0.0052  0.4734
22097SOL    HW178016  13.656  10.210   5.169  3.0331 -0.7186  1.4407
22097SOL    HW278017  13.550  10.151   5.260  0.3973  1.1702 -0.2477
22098SOL     OW78018   0.229  10.877   7.441 -0.1290  0.5230 -0.2269
22098SOL    HW178019   0.235  10.784   7.419 -0.4017  0.4112  0.1574
22098SOL    HW278020   0.176  10.915   7.371  0.9249  0.6073 -0.9980
22099SOL     OW78021   3.402   0.510   1.949  0.2741 -0.5812 -0.3732
22099SOL    HW178022   3.322   0.561   1.956  0.4996 -0.2859  0.1409
22099SOL    HW278023   3.382   0.442   1.885 -1.0528 -1.7667  1.2193
22100SOL     OW78024   8.424   1.757   7.555 -0.2063  0.6734 -0.1282
22100SOL    HW178025   8.498   1.697   7.556  0.2731  1.2598 -0.0398
22100SOL    HW278026   8.391   1.756   7.645  0.0976  0.8990 -0.0115
22101SOL     OW78027   4.801   2.077   4.924  0.0503 -0.3845  0.3956
22101SOL    HW178028   4.736   2.052   4.857  1.0594 -3.4367  0.4299
22101SOL    HW278029   4.748   2.109   4.997 -1.1604  1.3317 -1.1317
22102SOL     OW78030  10.904   4.734   4.199  0.2385 -1.0724  0.0799
22102SOL    HW178031  10.890   4.652   4.247  2.8773 -1.7954 -0.2178
22102SOL    HW278032  10.832   4.790   4.227 -1.1974 -3.1899  0.9377
22103SOL     OW78033   9.662  11.706   1.191  0.1036  0.6955 -0.0746
22103SOL    HW178034   9.680  11.619   1.154 -0.2615  0.4500  0.3129
22103SOL    HW278035   9.605  11.748   1.127 -1.7522 -0.2820  0.8618
22104SOL     OW78036  10.098  11.700   2.637 -0.1231 -0.6055 -0.0388
22104SOL    HW178037  10.082  11.618   2.592  0.0723  1.1795 -3.7157
22104SOL    HW278038  10.011  11.738   2.650 -0.1696 -1.0486  1.1243
22105SOL     OW78039   1.232   3.636   5.539  0.0352  0.3687 -0.2207
22105SOL    HW178040   1.244   3.666   5.448 -0.6608  0.4623 -0.2859
22105SOL    HW278041   1.280   3.700   5.591  1.7016 -0.5132 -0.6088
22106SOL     OW78042   6.437   1.541   6.382  0.5180  0.0926  0.6447
22106SOL    HW178043   6.479   1.468   6.429  1.8878  0.9135  0.7554
22106SOL    HW278044   6.506   1.606   6.372 -0.6455  1.3452  0.4387
22107SOL     OW78045   2.562   8.661  10.857  0.1526 -0.2296 -0.1432
22107SOL    HW178046   2.483   8.713  10.849 -0.1735 -0.5914  0.6997
22107SOL    HW278047   2.557   8.621  10.943  2.5191  1.7943  1.0511
22108SOL     OW78048  11.817   1.579   4.413 -0.0385 -0.0349 -0.0329
22108SOL    HW178049  11.869   1.641   4.465  0.7293  0.4882 -1.3581
22108SOL    HW278050  11.735   1.570   4.461 -0.0298  1.7377  0.4072
22109SOL     OW78051  11.491   8.549   1.402 -0.1335  0.4159 -0.2011
22109SOL    HW178052  11.441   8.480   1.357 -1.4604  0.3542  1.2811
22109SOL    HW278053  11.561   8.572   1.340 -1.2048 -0.4343 -1.8017
22110SOL     OW78054  10.983  11.934   2.319 -0.3687 -0.2548 -0.1136
22110SOL    HW178055  10.889  11.922   2.310  0.0848 -4.8678 -1.1914
22110SOL    HW278056  11.005  11.892   2.403  0.8037  0.4573 -0.0342
22111SOL     OW78057   9.839   7.940  12.951 -0.4390 -0.1227  0.2558
22111SOL    HW178058   9.846   8.004  13.022 -2.3484  1.6127 -0.9888
22111SOL    HW278059   9.747   7.941  12.927 -1.3459 -5.5861  2.0153
22112SOL     OW78060  11.438   3.708   1.379 -0.3092 -0.0974 -0.3756
22112SOL    HW178061  11.498   3.680   1.447 -1.6645 -1.6607  0.2421
22112SOL    HW278062  11.436   3.803   1.386  1.8909 -0.0159 -0.2865
22113SOL     OW78063   8.302   0.375  10.925 -0.4981 -0.5983 -0.7715
22113SOL    HW178064   8.389   0.345  10.898 -0.4966 -1.5142  0.1664
22113SOL    HW278065   8.283   0.324  11.004 -1.2621  0.6484 -0.1124
22114SOL     OW78066  12.891   6.140   7.204 -0.2576  0.4726 -0.4133
22114SOL    HW178067  12.973   6.126   7.156 -0.0072  2.0476 -0.4801
22114SOL    HW278068  12.919   6.150   7.295 -0.4320  0.5298 -0.3665
22115SOL     OW78069   3.582  10.855  11.416  0.3995  0.0014 -0.4954
22115SOL    HW178070   3.591  10.759  11.421 -0.0700 -0.0344 -0.3119
22115SOL    HW278071   3.488  10.870  11.419  0.4935  0.5038  0.0017
22116SOL     OW78072   5.885   2.946   8.019 -0.8626 -0.1162  0.2251
22116SOL    HW178073   5.912   2.961   8.110 -2.0481 -1.4580  0.8486
22116SOL    HW278074   5.957   2.979   7.967 -0.2482  0.9029  1.6503
22117SOL     OW78075   5.503  13.688   0.974 -0.0670 -0.3622  0.2346
22117SOL    HW178076   5.466  13.749   0.910  0.7898  0.3990  0.4363
22117SOL    HW278077   5.490  13.731   1.058  1.1515 -0.1247  0.3147
22118SOL     OW78078   6.796   9.592  10.447  0.5038 -0.6232 -0.4321
22118SOL    HW178079   6.720   9.548  10.408  0.0821 -0.0883 -0.2162
22118SOL    HW278080   6.759   9.666  10.496  1.2397  0.2626 -1.1834
22119SOL     OW78081   6.967   7.176  12.706 -0.0785 -0.3178  0.0173
22119SOL    HW178082   6.949   7.189  12.613  0.2722 -1.5239 -0.2309
22119SOL    HW278083   6.922   7.095  12.728 -0.0222 -0.1247  0.8687
22120SOL     OW78084   7.252   4.243  10.648  0.0037 -0.6954  0.5651
22120SOL    HW178085   7.165   4.222  10.614  0.1575 -1.0263  0.3707
22120SOL    HW278086   7.247   4.336  10.671 -0.3052 -0.6337  0.2577
22121SOL     OW78087   9.449   7.706  10.017 -0.3755  0.4400 -0.7083
22121SOL    HW178088   9.419   7.624  10.057 -0.5214  0.8127 -0.0404
22121SOL    HW278089   9.528   7.730  10.066 -1.0941  1.4029  0.0290
22122SOL     OW78090   8.649   3.424   7.451  0.1074  0.2898 -0.5176
22122SOL    HW178091   8.622   3.511   7.423  0.1633  0.2891 -0.5760
22122SOL    HW278092   8.590   3.402   7.523 -2.4700 -1.2049 -2.8909
22123SOL     OW78093   9.269  13.346   3.709 -0.3042 -0.2254  0.1854
22123SOL    HW178094   9.355  13.343   3.751  0.8438  0.4705 -1.9862
22123SOL    HW278095   9.221  13.412   3.759  1.0503  0.6782  0.3652
22124SOL     OW78096   2.090   2.621   0.874  0.3715 -0.2363 -0.3846
22124SOL    HW178097   2.162   2.576   0.918 -0.1370 -1.3133 -0.6083
22124SOL    HW278098   2.035   2.550   0.840 -0.1217  0.5697 -1.3116
22125SOL     OW78099  12.484   8.875  11.972  0.4082  0.8964  0.2558
22125SOL    HW178100  12.556   8.819  12.001  0.6305  1.2950  0.4875
22125SOL    HW278101  12.408   8.847  12.023 -0.0109 -0.5909 -1.1002
22126SOL     OW78102   8.813  12.053   4.995  0.3153  0.1774 -0.3905
22126SOL    HW178103   8.867  12.006   4.932 -0.2249  2.0382 -2.3624
22126SOL    HW278104   8.848  12.142   4.996 -2.7852  1.5967 -2.0803
22127SOL     OW78105   9.296  13.571   8.793 -0.1586  0.0921  0.1192
22127SOL    HW178106   9.346  13.636   8.742 -0.6403  0.0283 -0.4447
22127SOL    HW278107   9.262  13.510   8.727 -1.7056  0.6258  0.3973
22128SOL     OW78108   2.820  10.801  12.205 -0.4341 -0.5327 -0.0609
22128SOL    HW178109   2.832  10.895  12.207 -0.5372 -0.5250  1.3046
22128SOL    HW278110   2.867  10.769  12.282 -0.6554 -1.5625 -0.3341
22129SOL     OW78111  12.990  13.090   2.038 -0.5170 -0.2640 -0.5906
22129SOL    HW178112  12.940  13.169   2.057 -0.4651 -0.3160 -0.2400
22129SOL    HW278113  12.951  13.057   1.957 -1.1342 -0.3779 -0.2531
22130SOL     OW78114   9.629  11.970  12.818  0.1863  0.4221 -0.1090
22130SOL    HW178115   9.630  11.886  12.773  0.8792 -0.9136  2.1938
22130SOL    HW278116   9.631  11.947  12.911 -2.0848  2.9559  0.7064
22131SOL     OW78117  12.091   7.752   2.416  0.3402 -0.2515 -0.1096
22131SOL    HW178118  12.059   7.719   2.332  1.4012 -0.4464 -0.4508
22131SOL    HW278119  12.172   7.704   2.432 -1.0013 -1.9686  2.2014
22132SOL     OW78120   3.736   5.382   1.789 -0.2187  0.3329  0.3262
22132SOL    HW178121   3.793   5.439   1.737  0.6246  0.4781  1.3853
22132SOL    HW278122   3.751   5.409   1.879  0.8279 -2.1034  0.9434
22133SOL     OW78123   6.230   7.281   6.705  0.0129  0.4993 -0.2824
22133SOL    HW178124   6.308   7.231   6.679  0.0995  1.0869 -1.1970
22133SOL    HW278125   6.256   7.324   6.786  0.4308  0.2065 -0.2528
22134SOL     OW78126  11.447   1.453   7.533 -0.6144 -0.8171 -0.3031
22134SOL    HW178127  11.480   1.522   7.590 -0.9643 -1.6468  0.9397
22134SOL    HW278128  11.391   1.399   7.589 -2.3247 -0.7353 -1.8079
22135SOL     OW78129   3.738   4.078   2.721  0.4508  0.2487  0.7477
22135SOL    HW178130   3.700   4.127   2.649 -1.2207  0.1841  1.5440
22135SOL    HW278131   3.696   3.992   2.716 -0.6983  0.6585  2.5510
22136SOL     OW78132   4.056   1.382   4.821 -0.0870 -0.0214  0.4541
22136SOL    HW178133   4.018   1.307   4.776  0.8877 -0.0921 -0.2962
22136SOL    HW278134   4.077   1.443   4.750 -1.8464  1.4480  1.1308
22137SOL     OW78135  11.873   9.159  13.461  0.1539  0.1673  0.3452
22137SOL    HW178136  11.853   9.244  13.501  0.7555  0.0652  0.8863
22137SOL    HW278137  11.884   9.100  13.536 -3.4225 -1.1921  0.0317
22138SOL     OW78138   8.158  12.427   3.300  0.0012 -0.1559 -0.0115
22138SOL    HW178139   8.160  12.515   3.338 -2.0980  0.2849 -0.7473
22138SOL    HW278140   8.087  12.383   3.346  0.9378 -1.4469  0.2478
22139SOL     OW78141  12.295   0.315  11.636 -0.4929  0.0740  0.1025
22139SOL    HW178142  12.365   0.256  11.663 -1.5043 -0.6840  1.2424
22139SOL    HW278143  12.228   0.303  11.704 -0.0448  3.8865  1.4280
22140SOL     OW78144  10.189  11.397   6.547 -0.2096  0.3314  0.4509
22140SOL    HW178145  10.285  11.405   6.547 -0.0904 -0.7404  1.5807
22140SOL    HW278146  10.170  11.340   6.472  0.0965  0.0978  0.5468
22141SOL     OW78147   1.702   6.055   2.349 -0.4330  0.5279 -0.0865
22141SOL    HW178148   1.607   6.053   2.352 -0.4223  0.6218  0.3808
22141SOL    HW278149   1.730   5.979   2.400 -0.2581  0.4919 -0.2337
22142SOL     OW78150   7.756  11.018  10.752 -0.3080 -0.1447  0.1147
22142SOL    HW178151   7.811  11.095  10.737 -0.6768  0.4871  1.7819
22142SOL    HW278152   7.700  11.043  10.826 -2.3321 -1.0346 -1.0253
22143SOL     OW78153   0.523   9.759  11.326  0.4206 -0.7163 -0.4501
22143SOL    HW178154   0.585   9.821  11.365  0.4714 -1.2880  0.4121
22143SOL    HW278155   0.445   9.812  11.308  0.5970 -0.3158 -0.0826
22144SOL     OW78156   3.242   9.454   8.326  0.1699  0.1826  0.1928
22144SOL    HW178157   3.215   9.368   8.359 -0.9257  0.8408  1.0978
22144SOL    HW278158   3.315   9.479   8.381  1.4051 -0.7312 -0.9581
22145SOL     OW78159   6.610   8.672   8.021  0.1694  0.1546 -0.1982
22145SOL    HW178160   6.529   8.721   8.038 -0.3468  0.1187 -2.2168
22145SOL    HW278161   6.588   8.581   8.042 -1.0330 -0.1827 -2.5375
22146SOL     OW78162   5.630   6.168  10.513 -0.3840  0.5519  0.0867
22146SOL    HW178163   5.622   6.217  10.431 -1.0554  0.9925  0.4024
22146SOL    HW278164   5.597   6.228  10.580 -0.1304  0.0835  0.6356
22147SOL     OW78165   9.781   0.662   3.698 -0.3305  0.2314 -0.4368
22147SOL    HW178166   9.786   0.578   3.653  1.4965  0.0519  0.0027
22147SOL    HW278167   9.703   0.657   3.752 -0.3089 -1.1475 -0.5152
22148SOL     OW78168   0.612   7.500   6.367  0.0939 -0.2602  0.5510
22148SOL    HW178169   0.633   7.576   6.421 -0.7962 -0.2966  0.9632
22148SOL    HW278170   0.574   7.437   6.429  1.0775 -1.1578  0.2748
22149SOL     OW78171   2.605  11.252   1.297  0.5762  0.1606  0.1672
22149SOL    HW178172   2.603  11.334   1.248  1.9742  0.6556  0.9013
22149SOL    HW278173   2.595  11.278   1.388 -2.9311 -0.8236  0.2207
22150SOL     OW78174   3.344   9.963   1.208  0.3880  0.6368  0.1207
22150SOL    HW178175   3.419   9.914   1.173 -1.2698 -3.1008  1.2466
22150SOL    HW278176   3.366   9.977   1.300  0.0313  0.1126  0.2934
22151SOL     OW78177   1.000  10.727   3.391  0.0168  0.2866 -0.0707
22151SOL    HW178178   0.921  10.738   3.445 -0.2503  0.9125 -0.5873
22151SOL    HW278179   0.980  10.652   3.335 -0.0518  0.1971  0.0713
22152SOL     OW78180   3.590   5.119   5.590  0.1089  0.1680 -0.3901
22152SOL    HW178181   3.600   5.131   5.495 -1.6357 -0.3319 -0.6645
22152SOL    HW278182   3.515   5.060   5.599 -1.1992  1.9562  1.3433
22153SOL     OW78183  13.339   8.748   4.087 -0.3306  0.1488 -0.1884
22153SOL    HW178184  13.323   8.729   4.180  0.7690  0.4366  0.0799
22153SOL    HW278185  13.253   8.740   4.045 -0.4920 -2.0425  0.4776
22154SOL     OW78186   8.340   3.041  11.796 -0.1099 -0.8884 -0.3867
22154SOL    HW178187   8.319   3.113  11.855 -0.9958 -1.0526 -0.4852
22154SOL    HW278188   8.373   3.084  11.717  1.5180 -0.6797  0.3590
22155SOL     OW78189  11.842   0.014   3.822  0.6352  0.2634 -0.4032
22155SOL    HW178190  11.859  -0.079   3.812 -0.0796  0.1446 -0.5802
22155SOL    HW278191  11.899   0.056   3.758 -0.6245 -0.2050 -1.9134
22156SOL     OW78192   0.251  11.095   7.602 -0.1504 -0.3587  0.0654
22156SOL    HW178193   0.261  11.020   7.543  1.6212 -0.7642  0.8003
22156SOL    HW278194   0.263  11.171   7.546 -0.6736 -0.6473 -0.4590
22157SOL     OW78195   3.763   7.718   7.154 -0.0876  0.2013  0.0858
22157SOL    HW178196   3.722   7.802   7.135 -1.5004 -0.2608  0.9855
22157SOL    HW278197   3.747   7.703   7.247  1.3744 -0.4156  0.2717
22158SOL     OW78198   9.036   6.880   2.791 -0.1950 -0.1877 -0.3713
22158SOL    HW178199   9.077   6.914   2.870 -1.4202  2.3400 -0.7180
22158SOL    HW278200   9.060   6.942   2.722 -1.1535 -0.9703 -1.4583
22159SOL     OW78201   9.593   1.663   0.102 -0.2041  0.3790  0.2491
22159SOL    HW178202   9.587   1.701   0.189 -1.0287  1.9831 -0.4618
22159SOL    HW278203   9.640   1.729   0.050  0.0355 -0.4239 -0.5984
22160SOL     OW78204   1.259   4.591  13.473 -0.1530  0.0569  0.1796
22160SOL    HW178205   1.323   4.650  13.433 -0.6353 -0.7608 -1.9632
22160SOL    HW278206   1.246   4.625  13.561  2.0364  1.1744  0.1339
22161SOL     OW78207   2.440   4.644   1.533 -0.2739  0.1293 -0.0666
22161SOL    HW178208   2.527   4.642   1.572  0.5384  0.6884 -1.7621
22161SOL    HW278209   2.387   4.589   1.591  1.0067  0.3550  1.4021
22162SOL     OW78210   4.657   8.821   2.927  0.5112 -0.0629 -0.1448
22162SOL    HW178211   4.729   8.868   2.886  1.6560 -0.9609  0.7729
22162SOL    HW278212   4.669   8.730   2.901 -1.7868  0.0842 -2.0464
22163SOL     OW78213  10.889   6.662   1.919 -0.2586 -0.2473  0.2086
22163SOL    HW178214  10.980   6.633   1.919 -0.0682  0.2765 -1.2589
22163SOL    HW278215  10.846   6.606   1.984  1.3288  0.3020  1.8095
22164SOL     OW78216   0.550  10.378   3.242 -0.4461  0.1562 -0.0553
22164SOL    HW178217   0.596  10.462   3.239  0.1769 -0.1578  0.6201
22164SOL    HW278218   0.603  10.323   3.299 -1.2802 -0.4461  0.1550
22165SOL     OW78219   0.804   4.938   5.654  0.2838  0.3656  0.5530
22165SOL    HW178220   0.869   4.992   5.610  0.2581 -0.0546 -0.0154
22165SOL    HW278221   0.791   4.864   5.595 -0.3260  0.1842  0.9079
22166SOL     OW78222   7.792   2.291   5.837  0.2700  0.0855 -0.2419
22166SOL    HW178223   7.846   2.248   5.903  0.2577  0.8551  0.2911
22166SOL    HW278224   7.854   2.336   5.780  0.2395  3.0828  1.8254
22167SOL     OW78225   9.950   5.346   0.210 -0.3654  0.1353  0.2236
22167SOL    HW178226  10.005   5.421   0.234  1.6231 -1.5671  1.3647
22167SOL    HW278227  10.002   5.270   0.235 -2.6032 -1.6437 -0.2302
22168SOL     OW78228   1.336   1.209   4.499 -0.0738 -0.0803  0.2435
22168SOL    HW178229   1.306   1.139   4.557 -0.2379 -0.0070  0.2448
22168SOL    HW278230   1.426   1.226   4.528  1.1846 -2.5165 -1.7731
22169SOL     OW78231   3.355   7.404   4.594  0.3595  0.1614 -0.3427
22169SOL    HW178232   3.414   7.386   4.666 -2.0493 -0.3451  1.6438
22169SOL    HW278233   3.339   7.319   4.553  0.6953  0.2376 -0.6362
22170SOL     OW78234   1.404   8.963   8.207 -0.3524  0.1399 -0.2217
22170SOL    HW178235   1.425   8.880   8.251  1.1660 -0.0113 -1.1544
22170SOL    HW278236   1.308   8.964   8.202 -0.3826 -2.1280 -1.2185
22171SOL     OW78237  10.490   3.860  10.067 -0.5336  0.2458  0.1075
22171SOL    HW178238  10.445   3.792  10.017 -3.0831  1.5628  0.4410
22171SOL    HW278239  10.431   3.935  10.065  1.0718  1.6668  1.7813
22172SOL     OW78240   2.939   5.529   4.549  0.0642  0.2407 -0.0128
22172SOL    HW178241   2.908   5.588   4.618 -0.7928 -1.9095  1.5688
22172SOL    HW278242   2.895   5.558   4.470 -2.1727  0.3466  1.1874
22173SOL     OW78243   2.677   3.171   0.788  0.5398  0.2931 -0.2058
22173SOL    HW178244   2.752   3.173   0.848 -0.2147  0.7324  0.7531
22173SOL    HW278245   2.601   3.190   0.844 -0.1933  0.6682 -1.2958
22174SOL     OW78246  12.876  11.995  10.255  0.3743  0.0531 -0.7617
22174SOL    HW178247  12.954  12.025  10.302  0.3016 -0.3733 -0.3610
22174SOL    HW278248  12.898  12.003  10.162 -0.6975  4.3440 -0.8747
22175SOL     OW78249  10.263   5.711  11.497 -0.2177 -0.1614 -0.6080
22175SOL    HW178250  10.287   5.662  11.419  0.5112 -1.0157  0.1425
22175SOL    HW278251  10.345   5.723  11.545 -0.7808 -0.3485  0.4276
22176SOL     OW78252   5.961   1.994   6.040  0.0395 -0.1858  0.3144
22176SOL    HW178253   6.022   1.924   6.017  0.5443  0.2737  0.2567
22176SOL    HW278254   5.957   1.991   6.136 -1.0430 -1.2235  0.2615
22177SOL     OW78255   0.530   3.877   3.546 -0.0490 -0.3329  0.2902
22177SOL    HW178256   0.550   3.824   3.469  0.0329 -3.3182  2.2028
22177SOL    HW278257   0.437   3.894   3.540  0.2162  0.7377 -1.1615
22178SOL     OW78258   3.023   9.535   4.480  0.2277 -0.6763  0.7468
22178SOL    HW178259   3.082   9.466   4.450 -0.2570 -0.4752 -0.7824
22178SOL    HW278260   2.936   9.506   4.452 -0.1851 -0.1923  1.5004
22179SOL     OW78261   6.550   3.549   0.165  0.5973  0.6627 -0.1132
22179SOL    HW178262   6.541   3.601   0.086  0.9918  0.7231 -0.1201
22179SOL    HW278263   6.632   3.501   0.153  0.1493 -0.1015 -0.1896
22180SOL     OW78264   7.755  10.206   2.959  0.2592 -0.3846  0.5156
22180SOL    HW178265   7.682  10.212   3.020 -0.4784 -0.1355 -0.3804
22180SOL    HW278266   7.825  10.258   3.000 -0.0261 -0.6998  1.4139
22181SOL     OW78267   8.021   4.184  10.217 -0.2108  0.2374  0.1611
22181SOL    HW178268   7.962   4.122  10.174 -0.5180  0.2159  0.5966
22181SOL    HW278269   8.088   4.129  10.257 -0.3611  0.1985  0.3631
22182SOL     OW78270  13.263   6.745   8.180 -0.2068 -0.5256 -0.1506
22182SOL    HW178271  13.343   6.796   8.187 -1.2555  1.4386 -1.4632
22182SOL    HW278272  13.262   6.714   8.089 -1.4579  0.4926 -0.5215
22183SOL     OW78273   5.375   3.619  12.539  0.2738  0.1209  0.1255
22183SOL    HW178274   5.323   3.689  12.499 -1.1140 -0.5244  0.7274
22183SOL    HW278275   5.460   3.660  12.556 -0.9829  2.2277  2.0013
22184SOL     OW78276   7.039   5.340   1.336 -0.3049 -0.0877 -0.0122
22184SOL    HW178277   7.131   5.358   1.351 -0.5292  1.1441  0.0537
22184SOL    HW278278   6.998   5.352   1.422 -0.6077 -0.0160 -0.1630
22185SOL     OW78279   2.233   2.540   3.301  0.4988 -0.0093  0.1955
22185SOL    HW178280   2.157   2.489   3.327 -0.4776  0.6414 -1.2852
22185SOL    HW278281   2.279   2.484   3.238  1.7261 -0.7307  1.6678
22186SOL     OW78282   5.647  12.514   6.198 -0.4231  0.3027 -0.4217
22186SOL    HW178283   5.736  12.537   6.171 -0.6000  1.4561 -0.0732
22186SOL    HW278284   5.641  12.544   6.289 -0.3253 -2.1907  0.4683
22187SOL     OW78285   0.454   4.593   4.713  0.1344  0.0498  0.1811
22187SOL    HW178286   0.525   4.605   4.777 -0.1196  1.0502  0.2846
22187SOL    HW278287   0.411   4.678   4.708 -0.8106 -0.4323 -0.1939
22188SOL     OW78288   8.669   9.420   6.028 -0.4475 -0.3042  0.7363
22188SOL    HW178289   8.734   9.349   6.024 -1.7940 -1.7231  2.3966
22188SOL    HW278290   8.613   9.404   5.953  0.0756 -0.1320  0.3003
22189SOL     OW78291   9.113  10.751   5.050  0.3473  0.1213  0.3432
22189SOL    HW178292   9.026  10.720   5.076 -1.0518  3.3200 -0.0656
22189SOL    HW278293   9.113  10.743   4.955 -0.8604  2.9789  0.0057
22190SOL     OW78294  12.903   5.986   1.410  0.2047  0.1430  0.0911
22190SOL    HW178295  12.873   5.951   1.494  0.7610 -0.0526  0.2151
22190SOL    HW278296  12.824   6.020   1.369  0.1181  1.4526  1.2688
22191SOL     OW78297  11.654   2.413   4.909 -0.2359 -0.1970  0.9343
22191SOL    HW178298  11.706   2.465   4.848 -0.7152 -0.4837  0.2664
22191SOL    HW278299  11.564   2.442   4.894 -0.7112 -2.2249 -0.5319
22192SOL     OW78300   9.271   5.226   9.389  0.1834 -0.1541 -0.1127
22192SOL    HW178301   9.200   5.164   9.407 -2.1488  2.4282  0.0938
22192SOL    HW278302   9.233   5.289   9.329  2.3723  1.3001 -0.0747
22193SOL     OW78303   2.052   1.060  13.192  0.1970 -0.6576  0.1678
22193SOL    HW178304   2.082   1.120  13.260 -0.6356 -1.5394  1.3506
22193SOL    HW278305   2.118   1.066  13.123  0.2845  1.3864  0.3683
22194SOL     OW78306   0.019   9.560   5.853  0.2173  0.4029 -0.5649
22194SOL    HW178307  -0.024   9.474   5.847  1.3651 -0.3629  1.3226
22194SOL    HW278308  -0.054   9.622   5.860 -0.6319 -0.6021 -0.1600
22195SOL     OW78309   5.766   8.923   7.355 -0.2141  1.0218  0.5576
22195SOL    HW178310   5.742   8.872   7.432 -1.1950  0.7057  0.0592
22195SOL    HW278311   5.850   8.963   7.378 -0.3101  0.6350  1.6387
22196SOL     OW78312   2.018   1.200   7.967 -0.2117  0.0780 -0.7288
22196SOL    HW178313   1.993   1.191   8.059 -0.3161 -1.3786 -0.8706
22196SOL    HW278314   1.942   1.168   7.919 -0.3207  1.2276 -1.3485
22197SOL     OW78315   5.554   9.126  12.798 -0.7402  0.4708 -0.5127
22197SOL    HW178316   5.646   9.153  12.803 -0.3470 -0.9502  0.6605
22197SOL    HW278317   5.506   9.201  12.832  0.0796  0.8100 -0.0680
22198SOL     OW78318  11.796   5.907   6.530 -0.1553  0.1593  0.1246
22198SOL    HW178319  11.818   5.841   6.464  1.6541  1.3324 -0.5394
22198SOL    HW278320  11.838   5.987   6.499 -1.0122  1.2738  1.6657
22199SOL     OW78321   5.168   5.741   9.023  0.4117  0.3127  0.3559
22199SOL    HW178322   5.210   5.756   9.108 -0.3787  1.2993  0.5953
22199SOL    HW278323   5.224   5.676   8.980  3.1801  2.7347 -0.0288
22200SOL     OW78324   1.760   7.849   5.336  0.6006 -0.1530 -0.5321
22200SOL    HW178325   1.709   7.910   5.390  0.4135  1.0644 -2.0199
22200SOL    HW278326   1.697   7.783   5.308  0.7525 -0.9401  0.9021
22201SOL     OW78327   6.854   3.359   1.952 -0.0001  0.1581 -0.2105
22201SOL    HW178328   6.893   3.272   1.964 -0.8908 -0.2015  0.1608
22201SOL    HW278329   6.806   3.352   1.870  0.0063  0.3348 -0.2288
22202SOL     OW78330   6.644  13.379   0.941 -0.1745  0.1975  0.0392
22202SOL    HW178331   6.598  13.367   0.858 -0.7789  0.1077  0.3754
22202SOL    HW278332   6.604  13.458   0.978 -2.0364 -1.3407  1.5901
22203SOL     OW78333  10.930   2.170   4.783 -0.0290  0.0435 -0.2749
22203SOL    HW178334  10.958   2.170   4.691  1.2047 -1.5346  0.0557
22203SOL    HW278335  10.842   2.208   4.781 -0.7937 -1.6059 -2.3693
22204SOL     OW78336   2.681   3.452   4.111 -0.4439 -0.1387  0.7002
22204SOL    HW178337   2.671   3.541   4.147 -1.6069 -0.3491  0.9369
22204SOL    HW278338   2.619   3.399   4.161  0.7843 -1.2652  1.0929
22205SOL     OW78339  11.333   7.385   6.915 -0.0149 -0.2637 -0.2497
22205SOL    HW178340  11.362   7.342   6.835 -0.3749 -0.5538 -0.2265
22205SOL    HW278341  11.245   7.418   6.894  0.6525  1.3797 -0.6080
22206SOL     OW78342  11.597   5.505  12.115 -0.3674 -0.0137  0.2020
22206SOL    HW178343  11.503   5.502  12.098  0.1682 -3.0573 -3.6258
22206SOL    HW278344  11.610   5.443  12.187 -1.1965 -1.1011 -0.5435
22207SOL     OW78345   5.577   9.220  13.109  0.1839  0.8796 -0.3207
22207SOL    HW178346   5.510   9.251  13.170  0.0867  0.7993 -0.3869
22207SOL    HW278347   5.541   9.140  13.072  0.7245  0.3028  0.3550
22208SOL     OW78348   5.478   4.468   6.533  0.8724  0.1477  1.2902
22208SOL    HW178349   5.442   4.442   6.618  1.3358  0.6073  1.6333
22208SOL    HW278350   5.503   4.386   6.491 -1.5170 -0.2995  0.5918
22209SOL     OW78351   4.016   3.564  10.624 -0.3356 -0.3198  0.2361
22209SOL    HW178352   3.935   3.537  10.669 -0.7476  0.2769 -0.1268
22209SOL    HW278353   4.086   3.525  10.676 -0.8445 -0.5538  0.7660
22210SOL     OW78354  12.528   2.125  12.127 -0.1744  0.3758 -0.1519
22210SOL    HW178355  12.484   2.177  12.195 -0.9160 -0.7306  0.2446
22210SOL    HW278356  12.547   2.188  12.058  0.5889  1.5429  1.0562
22211SOL     OW78357  11.013  11.057   8.648 -0.4550  0.1583 -0.0455
22211SOL    HW178358  11.011  11.093   8.736  0.8771  1.7648 -0.6287
22211SOL    HW278359  11.038  11.130   8.592  0.2642 -1.1777 -1.5718
22212SOL     OW78360   3.748   8.739  10.104  0.0294 -0.5899  0.2012
22212SOL    HW178361   3.777   8.774  10.188  2.5704 -1.2140 -0.3114
22212SOL    HW278362   3.830   8.720  10.057 -1.2988 -1.1112 -2.0544
22213SOL     OW78363   1.681   8.191   0.233  0.1425 -0.7480 -0.4187
22213SOL    HW178364   1.594   8.162   0.207 -0.4005  1.6713 -1.5117
22213SOL    HW278365   1.666   8.253   0.304  0.9557 -0.1941 -0.7138
22214SOL     OW78366   2.727  10.201   1.460 -0.4110  0.1588  0.4307
22214SOL    HW178367   2.710  10.146   1.384 -1.5217  0.7173  0.2587
22214SOL    HW278368   2.726  10.141   1.535  1.0946 -0.4617 -0.0017
22215SOL     OW78369  10.846   0.844   2.638 -0.7732 -0.0359  0.0855
22215SOL    HW178370  10.862   0.786   2.712 -0.5160  1.0731  0.9138
22215SOL    HW278371  10.751   0.846   2.630 -0.7683 -1.7415 -0.9229
22216SOL     OW78372  10.764   1.161  11.581  0.0708 -0.5181  0.2514
22216SOL    HW178373  10.680   1.206  11.577  0.2789 -0.1907 -2.0318
22216SOL    HW278374  10.752   1.093  11.647 -2.5709 -1.5635 -1.1700
22217SOL     OW78375   1.571   9.367   2.474  0.6595  0.3314  0.1399
22217SOL    HW178376   1.504   9.353   2.541  1.7109 -1.6075  0.8768
22217SOL    HW278377   1.570   9.462   2.458 -1.9388  0.4218  0.3997
22218SOL     OW78378  12.682   8.635   7.950 -0.0782  0.8988 -0.2605
22218SOL    HW178379  12.706   8.720   7.987 -1.4696  0.7878  1.0049
22218SOL    HW278380  12.675   8.651   7.856  1.6979  1.6506 -0.3061
22219SOL     OW78381  10.184  11.407   6.185 -0.0799  0.0274  1.4113
22219SOL    HW178382  10.150  11.352   6.256 -0.1796  1.3304  2.4223
22219SOL    HW278383  10.274  11.427   6.211  0.5150 -1.0130  0.2085
22220SOL     OW78384   9.517   5.937  13.424  0.0802 -0.4183  0.3198
22220SOL    HW178385   9.594   5.992  13.438 -0.8541  1.1488 -0.4511
22220SOL    HW278386   9.474   5.933  13.509  0.1488  0.0858  0.3826
22221SOL     OW78387   5.454   6.254   7.921  0.4540  0.2718 -0.1973
22221SOL    HW178388   5.421   6.165   7.909 -0.1726 -0.1409  3.3562
22221SOL    HW278389   5.535   6.243   7.970  0.4924  1.6511  0.0871
22222SOL     OW78390   0.577   8.264   9.232  0.3840 -0.4943 -0.4173
22222SOL    HW178391   0.612   8.307   9.153 -1.7174  0.4094 -0.9246
22222SOL    HW278392   0.649   8.209   9.263  1.3129 -0.7944 -2.8988
22223SOL     OW78393   4.434   2.754  11.082 -0.1469  0.5903 -0.0283
22223SOL    HW178394   4.507   2.732  11.140 -1.9547 -0.4265  1.9727
22223SOL    HW278395   4.426   2.850  11.089  1.2276  0.7867 -0.6604
22224SOL     OW78396   8.633   1.601   8.929 -0.3357  0.0055  0.2084
22224SOL    HW178397   8.554   1.572   8.882  0.3116  2.6470 -2.9249
22224SOL    HW278398   8.608   1.686   8.965  0.6458  0.1960  0.4450
22225SOL     OW78399   7.035   1.112   2.681  0.0556  0.3073  0.2167
22225SOL    HW178400   6.956   1.097   2.629 -0.8410  0.7348  1.4227
22225SOL    HW278401   7.103   1.130   2.616 -0.2787 -2.3344 -0.9803
22226SOL     OW78402   5.482   3.577   2.583 -0.1262 -0.2727 -0.1280
22226SOL    HW178403   5.456   3.488   2.607  0.7951 -0.6088 -0.3275
22226SOL    HW278404   5.460   3.583   2.490 -0.8285 -0.0464  0.0489
22227SOL     OW78405   0.401   4.335  10.812 -0.8899  0.0146 -0.0022
22227SOL    HW178406   0.361   4.253  10.843  1.6123 -1.1643  0.4210
22227SOL    HW278407   0.395   4.394  10.887  0.4569 -1.0475  0.9913
22228SOL     OW78408   1.985   6.277   0.800  0.1067  0.1365 -0.4264
22228SOL    HW178409   2.070   6.286   0.844 -1.1705  2.2936  1.8593
22228SOL    HW278410   1.973   6.359   0.753 -1.3847  0.5842  0.6656
22229SOL     OW78411   2.652   1.384   4.057 -0.3538 -0.3631  0.0571
22229SOL    HW178412   2.601   1.464   4.070 -0.3491 -0.0749 -1.5052
22229SOL    HW278413   2.605   1.336   3.989  0.9662 -0.5128 -0.7901
22230SOL     OW78414   9.995  12.195   1.476  0.7506 -0.6103  0.8582
22230SOL    HW178415  10.024  12.104   1.475  1.1826 -0.6165 -2.8044
22230SOL    HW278416   9.899  12.190   1.481  0.4038 -1.6887 -3.2301
22231SOL     OW78417   4.149   6.952  10.592  0.2963  0.3031 -0.3036
22231SOL    HW178418   4.057   6.954  10.565  0.2251 -2.1794 -0.5434
22231SOL    HW278419   4.195   6.998  10.522 -0.4866 -1.0303 -1.7767
22232SOL     OW78420  13.475  12.543  13.372 -0.3259  0.5892 -1.0424
22232SOL    HW178421  13.526  12.499  13.303  0.3853  1.3490 -1.0189
22232SOL    HW278422  13.408  12.479  13.397  1.0173 -0.7135 -0.6110
22233SOL     OW78423   5.767   7.470   9.333  0.0941 -0.0090  0.6972
22233SOL    HW178424   5.785   7.521   9.254  3.2142 -1.7415  0.0951
22233SOL    HW278425   5.772   7.533   9.404  0.4357  1.0816 -0.2613
22234SOL     OW78426   0.861   1.434   7.366 -0.1743  0.1580 -0.2592
22234SOL    HW178427   0.947   1.423   7.326  0.1565 -0.0858  0.5232
22234SOL    HW278428   0.808   1.475   7.297  0.0350 -1.4087 -1.4105
22235SOL     OW78429   8.255   7.650   0.561 -0.7905  0.9105  0.9493
22235SOL    HW178430   8.334   7.684   0.519 -1.5241  2.0082  0.3984
22235SOL    HW278431   8.268   7.666   0.654 -0.6192  1.6614  0.7988
22236SOL     OW78432  10.409   3.341   8.282  0.6488  0.5936 -0.1747
22236SOL    HW178433  10.503   3.339   8.262  0.7496 -1.0787  0.3761
22236SOL    HW278434  10.404   3.323   8.376 -0.2274  0.7095 -0.1935
22237SOL     OW78435   8.554  11.851  12.778 -0.2092 -0.2431 -0.3988
22237SOL    HW178436   8.598  11.915  12.722  1.3531  0.2172  1.2739
22237SOL    HW278437   8.613  11.776  12.780  0.1307  0.0310  1.1620
22238SOL     OW78438   0.247  12.553   9.309  0.0370 -0.1253  0.2039
22238SOL    HW178439   0.175  12.550   9.372 -0.4806  0.6316 -0.3371
22238SOL    HW278440   0.225  12.486   9.244  1.4297 -2.1342  1.6787
22239SOL     OW78441  10.322   0.122  10.710  0.0744 -0.2111 -0.5567
22239SOL    HW178442  10.303   0.111  10.617  1.3910  0.5932 -0.9603
22239SOL    HW278443  10.261   0.190  10.739 -0.3389 -0.4621 -0.8258
22240SOL     OW78444   6.163   3.993  10.572  0.4214  0.0760  0.4341
22240SOL    HW178445   6.155   4.073  10.521 -0.5234 -0.2633  0.0224
22240SOL    HW278446   6.214   4.018  10.649  1.0078  0.8275 -0.1853
22241SOL     OW78447   1.728  11.320   2.628  0.4152  0.2289 -0.0517
22241SOL    HW178448   1.663  11.256   2.602  0.4966 -0.6466  1.7702
22241SOL    HW278449   1.678  11.398   2.652 -0.0471 -0.5616  1.6981
22242SOL     OW78450   7.864   5.636   7.009 -0.4187 -0.6500  0.1485
22242SOL    HW178451   7.928   5.586   6.959 -2.0612 -1.3182 -1.3723
22242SOL    HW278452   7.864   5.723   6.969 -1.5892 -1.1268 -0.9502
22243SOL     OW78453   7.172  12.564   5.283  0.3034  0.4096 -0.3507
22243SOL    HW178454   7.083  12.536   5.260 -0.1236  0.2231  1.3499
22243SOL    HW278455   7.172  12.658   5.266  0.8511 -0.0684 -3.4280
22244SOL     OW78456   6.087  10.481   9.466 -0.1778  0.3524  0.1918
22244SOL    HW178457   6.154  10.428   9.423 -0.2101  0.4465  0.0252
22244SOL    HW278458   6.045  10.421   9.528  0.3360  0.4006  0.5936
22245SOL     OW78459   0.370   4.587  11.515 -0.1014 -0.1620 -0.3765
22245SOL    HW178460   0.308   4.548  11.578  0.6556  2.4592  2.2515
22245SOL    HW278461   0.403   4.513  11.464 -0.0680 -2.7276  3.0021
22246SOL     OW78462  12.372  12.422   6.389  0.1911 -0.3445 -0.2003
22246SOL    HW178463  12.321  12.393   6.465  0.5632 -0.7154 -0.0931
22246SOL    HW278464  12.324  12.499   6.357  0.2287  0.0312  0.6220
22247SOL     OW78465  12.869  10.204   6.530 -0.3306 -0.1097 -0.1476
22247SOL    HW178466  12.939  10.258   6.494 -0.8947 -0.3861 -1.7465
22247SOL    HW278467  12.869  10.125   6.477 -0.4487 -1.0716  1.2460
22248SOL     OW78468   1.000   3.708   3.673  0.4168 -0.4481 -0.4211
22248SOL    HW178469   1.019   3.779   3.611  0.8662 -0.2601 -0.0676
22248SOL    HW278470   0.909   3.723   3.699  1.3870  1.8491  2.0238
22249SOL     OW78471  11.050   1.097   6.792  0.1229 -0.0891 -0.0599
22249SOL    HW178472  10.988   1.127   6.859  1.6188 -0.3819  1.5241
22249SOL    HW278473  11.074   1.177   6.744 -1.6741 -0.0208 -0.9256
22250SOL     OW78474   5.011  10.283   1.811 -0.2927 -0.1200  0.6206
22250SOL    HW178475   5.059  10.202   1.800 -2.2656 -1.1570 -0.9858
22250SOL    HW278476   5.078  10.350   1.823  1.5006 -1.5871 -0.7626
22251SOL     OW78477   4.309   6.273   9.356  0.0451 -0.0560 -0.4557
22251SOL    HW178478   4.220   6.304   9.336  0.7830  2.7429  0.2050
22251SOL    HW278479   4.347   6.252   9.271 -1.4081 -2.0148 -0.7071
22252SOL     OW78480   0.848   6.884  13.014  0.4933 -0.3513 -0.8121
22252SOL    HW178481   0.925   6.935  13.037  0.1319 -0.4896  0.7851
22252SOL    HW278482   0.841   6.817  13.082 -0.2707 -1.2038 -1.6825
22253SOL     OW78483   3.779   6.214  12.131  0.4403 -0.6738 -0.1371
22253SOL    HW178484   3.776   6.293  12.185 -0.6280  0.0554 -1.2018
22253SOL    HW278485   3.767   6.142  12.193 -0.2986  0.1118  0.6700
22254SOL     OW78486   7.232   3.647   4.641  0.1802  0.2807 -0.2947
22254SOL    HW178487   7.176   3.612   4.572  0.3166 -0.0738 -0.2251
22254SOL    HW278488   7.232   3.580   4.709  1.2369 -0.0234 -0.5789
22255SOL     OW78489   4.435   4.285  12.161  0.0027  0.0284 -0.6956
22255SOL    HW178490   4.514   4.241  12.193  1.8881  2.6055 -1.4797
22255SOL    HW278491   4.371   4.275  12.231  1.1475 -1.7348  0.1651
22256SOL     OW78492  11.759   0.872   5.805  0.3322  0.0532 -0.1693
22256SOL    HW178493  11.730   0.954   5.847 -1.4470 -1.4648  1.7698
22256SOL    HW278494  11.687   0.848   5.747  0.4604 -0.5609 -0.0784
22257SOL     OW78495   6.239   3.073   6.551  0.0808  0.1261 -0.4850
22257SOL    HW178496   6.161   3.124   6.530 -0.6954 -1.5103 -1.8573
22257SOL    HW278497   6.280   3.054   6.466  1.3236 -0.0304  0.1220
22258SOL     OW78498  11.966   6.068   9.959  0.0812  0.3858  0.0329
22258SOL    HW178499  11.942   6.125   9.885  1.4025  0.0300 -0.7057
22258SOL    HW278500  12.025   6.122  10.012 -1.8263  1.0807  1.5585
22259SOL     OW78501   6.402  11.965   4.172 -0.0226 -0.5506 -0.6007
22259SOL    HW178502   6.372  11.943   4.084  2.3404 -0.3355 -1.5392
22259SOL    HW278503   6.496  11.947   4.171  0.8016  2.8432  0.7398
22260SOL     OW78504  11.243   4.379   5.885  0.1022  0.2641 -0.0476
22260SOL    HW178505  11.227   4.289   5.859 -0.6059  0.2349  0.4728
22260SOL    HW278506  11.322   4.405   5.836  0.8018 -0.8975  0.4290
22261SOL     OW78507   5.060   2.876  13.739 -0.4247 -0.4885  0.2064
22261SOL    HW178508   5.030   2.797  13.784 -1.6334  1.0992  2.3443
22261SOL    HW278509   5.150   2.888  13.769 -1.3410  0.7828  2.7313
22262SOL     OW78510   5.660   0.020   1.260  0.3676 -0.1166 -0.3459
22262SOL    HW178511   5.662   0.087   1.191 -1.6813 -0.5213 -0.8762
22262SOL    HW278512   5.718  -0.049   1.229  2.7660  1.4613  0.3480
22263SOL     OW78513   2.248  12.173   2.945  0.0026  0.0686 -0.0784
22263SOL    HW178514   2.224  12.262   2.971 -0.7318  0.2917 -1.4854
22263SOL    HW278515   2.165  12.127   2.937  0.2237 -0.0857 -1.6490
22264SOL     OW78516   4.554   9.153   3.029 -0.0365 -0.5964  0.3818
22264SOL    HW178517   4.547   9.143   3.124 -0.9163  1.0353  0.5325
22264SOL    HW278518   4.478   9.207   3.005  0.1417 -1.0085 -1.2626
22265SOL     OW78519   8.796   9.755   9.575 -0.9051  0.2837 -0.2686
22265SOL    HW178520   8.713   9.708   9.572  0.0455 -1.4051 -1.7429
22265SOL    HW278521   8.863   9.686   9.582  0.4299  1.5359 -0.2227
22266SOL     OW78522   6.550   1.851   2.600 -0.2906 -0.2995 -0.4701
22266SOL    HW178523   6.586   1.821   2.683 -0.3099 -1.1374 -0.7516
22266SOL    HW278524   6.593   1.935   2.583  0.2876 -0.4986 -0.0014
22267SOL     OW78525   7.201  11.655  10.104 -0.6420 -0.1864  0.3823
22267SOL    HW178526   7.160  11.597  10.168 -0.4100 -0.6723  0.0928
22267SOL    HW278527   7.221  11.599  10.029 -0.0583  0.1756  0.2549
22268SOL     OW78528   9.966   5.635   2.757  0.1072 -0.0072  0.2123
22268SOL    HW178529   9.963   5.673   2.845  1.2418  1.1535 -0.2169
22268SOL    HW278530   9.919   5.552   2.765  0.1302  0.1045  1.8976
22269SOL     OW78531   6.666  10.180   9.135 -0.0233  0.1227  0.6134
22269SOL    HW178532   6.583  10.227   9.134  0.2084  0.6048  2.0550
22269SOL    HW278533   6.681  10.155   9.043 -1.6709  0.1467  0.3130
22270SOL     OW78534   3.215   1.127  10.262  0.1498 -0.4667 -0.0037
22270SOL    HW178535   3.174   1.196  10.313 -0.3689 -0.1679 -0.7969
22270SOL    HW278536   3.143   1.067  10.241  0.4217 -0.7677 -0.0921
22271SOL     OW78537   8.482   0.698   7.555  0.3758  0.4860 -0.0987
22271SOL    HW178538   8.503   0.657   7.471  2.9916 -2.8726  1.9917
22271SOL    HW278539   8.387   0.686   7.564  0.6494 -3.1379 -0.7236
22272SOL     OW78540   0.804   7.305  11.929 -0.1460  0.1769 -0.1922
22272SOL    HW178541   0.737   7.373  11.934 -1.4013 -1.1175  1.8474
22272SOL    HW278542   0.886   7.352  11.941 -0.8160  1.5260 -0.6139
22273SOL     OW78543  12.605   4.151   2.015 -0.6063  0.1953 -0.8758
22273SOL    HW178544  12.674   4.180   2.074  0.7576 -0.0336 -2.2799
22273SOL    HW278545  12.524   4.183   2.055 -0.0199 -1.6979  2.1812
22274SOL     OW78546   9.945   2.914   3.691 -0.4124 -0.0300  0.2369
22274SOL    HW178547   9.952   3.002   3.728  2.2733 -0.2374  0.4769
22274SOL    HW278548   9.987   2.921   3.606 -1.6507 -0.7560 -0.4482
22275SOL     OW78549   6.511   0.857   4.663  0.0956  0.4717  0.7091
22275SOL    HW178550   6.531   0.929   4.722  1.6025  0.8630 -0.2035
22275SOL    HW278551   6.466   0.793   4.717  0.7933  1.1229  2.1123
22276SOL     OW78552  12.857  11.043   9.984 -0.0896  0.2572 -0.7769
22276SOL    HW178553  12.772  11.002   9.999 -0.2706  0.7642 -0.3450
22276SOL    HW278554  12.888  11.005   9.902 -0.2290 -0.7528 -0.3766
22277SOL     OW78555   9.671   6.709   1.811 -0.1757 -0.0246 -0.3462
22277SOL    HW178556   9.730   6.633   1.810  1.6223  1.2947 -2.4807
22277SOL    HW278557   9.605   6.686   1.877 -0.2540 -3.8221 -1.4698
22278SOL     OW78558   9.363   0.234   8.184 -0.4398 -0.4231  0.3517
22278SOL    HW178559   9.450   0.271   8.195 -0.1007 -1.1246  0.0826
22278SOL    HW278560   9.315   0.264   8.261  0.1425 -0.3373  0.6891
22279SOL     OW78561   2.772   4.408   4.216 -0.0060 -0.1382 -0.4456
22279SOL    HW178562   2.855   4.365   4.235 -0.6929 -1.2498  0.1464
22279SOL    HW278563   2.770   4.484   4.275 -0.8291 -1.9301  1.9787
22280SOL     OW78564   3.960   1.527   1.116 -0.9216 -0.0395  1.1936
22280SOL    HW178565   3.893   1.497   1.054 -0.8094  2.1510 -0.0908
22280SOL    HW278566   3.990   1.610   1.080  1.9036 -0.5254  2.2056
22281SOL     OW78567  10.580   8.883   0.196  0.2111  0.0538 -0.8773
22281SOL    HW178568  10.610   8.974   0.206 -2.6960  1.3652 -2.7459
22281SOL    HW278569  10.542   8.861   0.281 -1.8783  1.8215 -1.2732
22282SOL     OW78570   1.380   2.369  10.470 -0.0898  0.4022  0.5842
22282SOL    HW178571   1.379   2.356  10.565 -2.0207 -1.5912  0.3620
22282SOL    HW278572   1.472   2.357  10.446  0.0605 -1.8528  1.9238
22283SOL     OW78573   4.014   3.492  13.320 -0.0055  0.2188 -0.5571
22283SOL    HW178574   3.948   3.512  13.254 -0.2878  2.3447  0.2993
22283SOL    HW278575   3.975   3.521  13.403  1.0822 -0.6659  0.2949
22284SOL     OW78576   7.313   8.952   2.572 -0.2781 -0.3414  0.4130
22284SOL    HW178577   7.334   8.990   2.657  1.8478 -1.6536  0.5531
22284SOL    HW278578   7.327   9.024   2.510  1.9866 -0.3456  0.8308
22285SOL     OW78579   7.277   1.241  11.450 -0.5054  0.1052 -0.4111
22285SOL    HW178580   7.205   1.229  11.388 -1.2740 -1.7316  0.7621
22285SOL    HW278581   7.234   1.255  11.534  0.4999 -0.8897  0.2880
22286SOL     OW78582   9.155   1.328   8.021  0.6204 -0.2901  0.0544
22286SOL    HW178583   9.079   1.369   8.062  0.9136  0.6798 -0.3361
22286SOL    HW278584   9.191   1.396   7.963  1.5987 -0.8324 -0.0041
22287SOL     OW78585  12.512   5.166   6.296 -0.3788  0.6685 -0.3274
22287SOL    HW178586  12.462   5.186   6.376 -1.7953  2.4824 -1.5774
22287SOL    HW278587  12.584   5.228   6.296 -0.8742  1.2526 -0.8648
22288SOL     OW78588   2.205   4.724   3.036  0.3390  0.5754  0.4082
22288SOL    HW178589   2.139   4.657   3.052  2.5439 -2.2183 -1.1837
22288SOL    HW278590   2.281   4.694   3.086  1.2425  2.2210  0.0667
22289SOL     OW78591   6.381  11.163   3.242 -0.0199  0.0797  0.2549
22289SOL    HW178592   6.345  11.251   3.233  2.7763  1.2621 -0.4061
22289SOL    HW278593   6.445  11.171   3.313  0.3915 -1.3818  0.0762
22290SOL     OW78594   2.171   8.524   2.539 -0.3884 -0.5067  0.4233
22290SOL    HW178595   2.147   8.435   2.566  2.0677 -1.2968  0.2880
22290SOL    HW278596   2.231   8.554   2.607 -1.3269  1.1600  0.5526
22291SOL     OW78597   6.902   7.401   0.562  0.6699  0.4670  0.3476
22291SOL    HW178598   6.809   7.377   0.561  0.6799  0.3804  1.2950
22291SOL    HW278599   6.912   7.460   0.487 -0.3953  1.3848  0.9147
22292SOL     OW78600   2.702   2.747  10.026 -0.1264  0.5129 -0.5031
22292SOL    HW178601   2.712   2.769  10.119 -0.9916 -2.0341  0.2897
22292SOL    HW278602   2.608   2.739  10.013  0.0539 -1.4167 -0.9476
22293SOL     OW78603  10.007  10.977  13.034  0.3161  0.2208  0.2777
22293SOL    HW178604   9.921  10.944  13.009  0.4364  0.6759 -0.7997
22293SOL    HW278605   9.990  11.056  13.085  0.0847  0.0267  0.5004
22294SOL     OW78606  12.695  11.396  12.911  0.2364 -0.1419 -0.0640
22294SOL    HW178607  12.779  11.397  12.864 -0.4030 -0.1910 -1.2511
22294SOL    HW278608  12.707  11.460  12.981  1.4861 -0.6283  0.1893
22295SOL     OW78609   5.137   0.489  13.546 -0.5865 -0.7501  0.2981
22295SOL    HW178610   5.188   0.569  13.531  1.0770 -1.9668 -0.9010
22295SOL    HW278611   5.064   0.517  13.600  0.6015  1.3588  0.9220
22296SOL     OW78612  11.893   1.418  13.474 -0.4517  0.0304 -0.3177
22296SOL    HW178613  11.983   1.388  13.461 -0.9108 -1.7578  0.2605
22296SOL    HW278614  11.877   1.477  13.401  1.5663  1.3526  0.2251
22297SOL     OW78615  11.080   5.999   1.896  0.3983  0.3698 -0.7714
22297SOL    HW178616  11.140   6.007   1.971 -2.1426 -0.8697  1.5824
22297SOL    HW278617  11.113   5.925   1.846  1.5568  0.5415 -0.2978
22298SOL     OW78618   6.097   7.126  12.002  0.1469  0.0534 -0.1607
22298SOL    HW178619   6.092   7.146  11.908  0.2854  0.9595  0.0168
22298SOL    HW278620   6.162   7.056  12.008 -0.7355 -0.8710 -0.8551
22299SOL     OW78621  12.951   7.026  12.402 -0.0653 -0.3971 -0.3641
22299SOL    HW178622  13.036   7.031  12.446 -0.3313  1.3168  0.0359
22299SOL    HW278623  12.887   7.026  12.474 -0.4343 -0.0729 -0.6897
22300SOL     OW78624   5.283  13.610   3.744  0.2249  0.2336  0.6618
22300SOL    HW178625   5.321  13.571   3.823  1.2879  0.6976  0.3886
22300SOL    HW278626   5.239  13.536   3.700 -0.6927  0.0389  1.8394
22301SOL     OW78627   8.404   6.605  10.379 -0.4608  0.1556 -0.1254
22301SOL    HW178628   8.485   6.560  10.355  0.1718  1.0005  0.3750
22301SOL    HW278629   8.403   6.603  10.475 -0.9007  0.3654 -0.1248
22302SOL     OW78630  10.219   9.980   5.402  0.5026  0.0186 -0.0148
22302SOL    HW178631  10.210   9.893   5.363 -0.4637 -0.3447  0.9903
22302SOL    HW278632  10.226   9.965   5.496  1.1923  0.9855  0.1101
22303SOL     OW78633   0.325   9.785   0.304  0.1513 -0.3661 -0.1101
22303SOL    HW178634   0.334   9.716   0.370 -1.2903 -2.0165 -1.5368
22303SOL    HW278635   0.231   9.804   0.301  0.4025  0.9450 -0.4891
22304SOL     OW78636  10.383  13.079  11.600 -0.2919  0.4109 -0.3100
22304SOL    HW178637  10.338  13.046  11.522  0.6531 -1.2673 -0.1985
22304SOL    HW278638  10.313  13.103  11.660 -1.0357 -0.3732 -0.8418
22305SOL     OW78639   7.532   5.291   6.958 -0.2363  0.0040  0.5466
22305SOL    HW178640   7.592   5.224   6.927 -1.5647 -2.1325  2.2614
22305SOL    HW278641   7.587   5.354   7.005  1.0750  0.3686 -1.3886
22306SOL     OW78642   3.103   0.615   6.639 -0.0847 -0.4096  0.1255
22306SOL    HW178643   3.198   0.610   6.629 -0.2873 -1.8316 -1.8090
22306SOL    HW278644   3.073   0.524   6.629 -1.6885  0.0980  0.0277
22307SOL     OW78645  12.046  10.275   3.810 -0.1775 -0.4417  0.0603
22307SOL    HW178646  12.123  10.287   3.754 -0.3572  1.7812  0.1950
22307SOL    HW278647  11.977  10.247   3.750  0.1292 -0.0109 -0.5080
22308SOL     OW78648   3.098  10.848   5.587 -0.2471 -0.5676 -0.0070
22308SOL    HW178649   3.162  10.832   5.656 -0.5115 -1.0587  0.1318
22308SOL    HW278650   3.107  10.941   5.567 -0.0238 -0.4618  0.5487
22309SOL     OW78651  11.002   1.181   8.470  0.0668  0.5140  0.3439
22309SOL    HW178652  10.936   1.111   8.469  1.1557 -0.5456 -1.3383
22309SOL    HW278653  10.981   1.236   8.396  0.2532  0.9797  0.6309
22310SOL     OW78654   1.803  11.979  11.776 -0.0799 -0.4274  0.3777
22310SOL    HW178655   1.886  11.938  11.802  1.3831  1.3719 -1.1710
22310SOL    HW278656   1.784  11.941  11.690  0.2290  0.5997 -0.1641
22311SOL     OW78657   1.962   1.349   4.515  0.3147 -0.6400  0.1863
22311SOL    HW178658   1.918   1.268   4.543  0.2165 -0.5677  0.2417
22311SOL    HW278659   1.902   1.419   4.541  0.7474 -0.4997  0.8417
22312SOL     OW78660   5.243  10.648   5.856 -0.6603  0.0973  0.8771
22312SOL    HW178661   5.203  10.561   5.851 -0.3611  0.0188 -0.3048
22312SOL    HW278662   5.295  10.646   5.937 -1.2440 -0.5627  1.2463
22313SOL     OW78663  13.252  11.176   0.915  0.3872 -0.3363 -0.2459
22313SOL    HW178664  13.259  11.130   0.999 -1.3950  2.3257  1.5441
22313SOL    HW278665  13.200  11.118   0.860 -1.2709 -0.8269  1.6885
22314SOL     OW78666   8.572   6.789  11.894 -0.1904 -0.4159  0.3901
22314SOL    HW178667   8.485   6.784  11.933  0.1115  2.1648  1.5594
22314SOL    HW278668   8.556   6.798  11.800 -1.0579 -1.9645  0.3496
22315SOL     OW78669  13.445  13.420   1.030 -0.3185 -0.1552  0.0221
22315SOL    HW178670  13.451  13.429   1.125 -0.9969  0.9739 -0.0186
22315SOL    HW278671  13.511  13.354   1.008  0.1253 -0.1480  1.2299
22316SOL     OW78672   0.416   1.156   8.808  0.0363 -0.0119  1.0975
22316SOL    HW178673   0.440   1.080   8.861  1.4875 -0.0907  0.3823
22316SOL    HW278674   0.380   1.119   8.727 -1.4521  0.1018  1.6829
22317SOL     OW78675   1.536   5.602   3.542 -0.3978 -0.0021 -0.2101
22317SOL    HW178676   1.576   5.579   3.626 -0.6641  0.2171 -0.0205
22317SOL    HW278677   1.442   5.597   3.559 -0.4517  0.0228 -0.5035
22318SOL     OW78678  13.685   3.466   4.165  0.2665 -0.4151  1.1175
22318SOL    HW178679  13.643   3.546   4.198 -0.3819  0.0624 -0.7241
22318SOL    HW278680  13.779   3.482   4.176  0.1868  0.9539  0.0982
22319SOL     OW78681   0.143   4.321   7.400  0.8378  0.5700  1.3101
22319SOL    HW178682   0.236   4.303   7.406  0.7247 -0.2442  0.8036
22319SOL    HW278683   0.110   4.302   7.488  1.2070  1.2337  1.5932
22320SOL     OW78684   8.689   5.754   8.878 -0.0810  0.2200  0.0188
22320SOL    HW178685   8.732   5.814   8.817 -0.7076  2.0167  1.2682
22320SOL    HW278686   8.760   5.697   8.909  0.3261 -0.4546 -1.9783
22321SOL     OW78687   5.245   0.283   7.824 -0.6116 -0.5039 -0.5941
22321SOL    HW178688   5.188   0.349   7.865  0.4337 -0.5064  0.9232
22321SOL    HW278689   5.189   0.206   7.814 -0.7435 -0.7538  1.5638
22322SOL     OW78690   3.414  13.030  10.071  0.3426  0.0326  0.0137
22322SOL    HW178691   3.366  13.102  10.112  0.5710 -0.5162  1.2690
22322SOL    HW278692   3.506  13.052  10.085  0.4126 -0.5296  0.4461
22323SOL     OW78693   8.511   2.563   1.870 -0.1456 -0.4476  0.5730
22323SOL    HW178694   8.546   2.556   1.781 -0.0925 -2.1060  0.6985
22323SOL    HW278695   8.589   2.575   1.925 -0.2723  2.0908  0.3076
22324SOL     OW78696  10.344  11.511   8.036  0.1712  0.8194 -0.4269
22324SOL    HW178697  10.424  11.499   7.984  1.1129 -1.1507  1.3091
22324SOL    HW278698  10.281  11.451   7.997  0.2416  0.7525 -0.4371
22325SOL     OW78699   3.460   7.482   5.404  0.3758 -0.0723 -0.2366
22325SOL    HW178700   3.550   7.456   5.383  0.1179 -0.8080 -0.4710
22325SOL    HW278701   3.470   7.551   5.470  1.0762 -1.3743  1.0770
22326SOL     OW78702   9.377   9.320   3.896 -0.4161 -0.5953 -0.2857
22326SOL    HW178703   9.431   9.361   3.829 -1.3108  1.8501  0.3675
22326SOL    HW278704   9.439   9.275   3.953  0.4555 -1.6948 -2.0042
22327SOL     OW78705  13.329  13.612  10.779 -0.3586 -0.1048 -0.0624
22327SOL    HW178706  13.332  13.601  10.874 -0.3258 -2.0419 -0.2594
22327SOL    HW278707  13.279  13.537  10.747 -0.1106  0.3453 -1.6079
22328SOL     OW78708   0.924   4.160   0.721  0.1639  0.3161  0.3257
22328SOL    HW178709   0.873   4.198   0.793  0.0803  1.6305 -0.4041
22328SOL    HW278710   0.923   4.227   0.653  0.8625 -0.6144 -0.6255
22329SOL     OW78711   3.450   3.940  12.359  0.2008  0.6466 -0.2895
22329SOL    HW178712   3.372   3.903  12.401  0.5364 -1.1652 -1.1628
22329SOL    HW278713   3.437   3.924  12.265  1.7454 -0.0252 -0.4289
22330SOL     OW78714  13.001  11.273  13.654  0.7467  0.2116 -0.1965
22330SOL    HW178715  13.001  11.250  13.747 -0.8463  1.2525  0.1031
22330SOL    HW278716  12.957  11.358  13.650  0.5695  0.0746 -1.9323
22331SOL     OW78717   0.342   3.179   8.844  0.4049 -0.2417  0.2133
22331SOL    HW178718   0.366   3.268   8.869 -1.3545  0.2093  0.4942
22331SOL    HW278719   0.291   3.191   8.764  0.3875 -1.0204  0.1091
22332SOL     OW78720   8.972  11.338   4.186  0.2691  0.0437 -0.3651
22332SOL    HW178721   8.914  11.404   4.149 -0.8476  0.0579  1.3138
22332SOL    HW278722   8.955  11.259   4.133 -1.5911 -0.0638  0.3108
22333SOL     OW78723   0.535  12.209   4.778 -0.6656  0.1336  0.2466
22333SOL    HW178724   0.514  12.224   4.870  1.1098  1.0548  0.5494
22333SOL    HW278725   0.577  12.123   4.777  1.3962  1.0604  0.7348
22334SOL     OW78726   9.606  11.237   4.151 -0.5118  0.6254  0.1765
22334SOL    HW178727   9.659  11.265   4.077 -1.2597  0.2173 -0.5326
22334SOL    HW278728   9.543  11.308   4.164 -0.8723  0.3553 -0.0775
22335SOL     OW78729   5.951  12.438   5.556  0.1299  0.5415  0.2706
22335SOL    HW178730   5.978  12.496   5.484 -0.4744 -0.1253 -0.5173
22335SOL    HW278731   6.033  12.409   5.596  0.4534  1.7366  0.5331
22336SOL     OW78732   8.031   6.141   9.236 -0.0909  0.1103 -0.2850
22336SOL    HW178733   8.124   6.156   9.225  0.1683 -0.5669  0.7730
22336SOL    HW278734   8.003   6.208   9.300  0.2152 -1.2002  1.2921
22337SOL     OW78735   6.504  10.163   0.853  0.0359 -0.2562  0.2642
22337SOL    HW178736   6.597  10.140   0.848 -0.0010 -0.9103  2.0173
22337SOL    HW278737   6.479  10.177   0.762  1.9304  0.3072 -0.2321
22338SOL     OW78738   6.504   8.893   0.145  0.0048 -0.3802 -0.3671
22338SOL    HW178739   6.480   8.836   0.072  0.2663 -0.4406 -0.4052
22338SOL    HW278740   6.599   8.902   0.139  0.1640 -1.2328  0.5813
22339SOL     OW78741   4.849  10.969   1.360  0.0706  0.1774  0.2865
22339SOL    HW178742   4.869  11.062   1.365 -0.4978  0.2917  0.5612
22339SOL    HW278743   4.812  10.948   1.446 -0.5302 -0.1231 -0.0388
22340SOL     OW78744   0.223   6.913   8.556  0.4140 -0.0452  0.0108
22340SOL    HW178745   0.257   6.983   8.612 -1.2594  0.9119 -0.1064
22340SOL    HW278746   0.173   6.958   8.489 -0.6937 -1.3549 -0.0782
22341SOL     OW78747   7.433   7.269  12.953 -0.0118 -0.1276 -0.6008
22341SOL    HW178748   7.364   7.251  12.890  0.3295 -0.2762 -0.9361
22341SOL    HW278749   7.496   7.197  12.942  0.6224  0.4567 -0.9125
22342SOL     OW78750  12.228   3.405   6.232  0.7645  0.2980  0.5260
22342SOL    HW178751  12.147   3.454   6.217 -0.0084 -0.7406  1.1602
22342SOL    HW278752  12.255   3.378   6.145  0.0432  0.0750  0.3602
22343SOL     OW78753  11.289  12.511   4.313 -0.0749 -0.5230  0.2542
22343SOL    HW178754  11.230  12.472   4.378 -1.7002 -0.6354 -1.2304
22343SOL    HW278755  11.270  12.464   4.232  2.2670 -0.7167 -0.2375
22344SOL     OW78756   6.546   8.300   2.878  0.3602  0.9018 -0.2211
22344SOL    HW178757   6.566   8.211   2.850 -1.0793  0.1402  1.0657
22344SOL    HW278758   6.627   8.331   2.920  0.0776 -0.7969  1.7132
22345SOL     OW78759   2.892   3.463  13.501 -0.0457  0.5875 -0.2856
22345SOL    HW178760   2.831   3.438  13.431 -0.7407 -0.0280  0.5121
22345SOL    HW278761   2.911   3.381  13.546 -0.1782  1.0723  0.6838
22346SOL     OW78762   1.809  13.556   1.681 -0.4430 -0.3076  0.4256
22346SOL    HW178763   1.772  13.634   1.722  1.1620  1.2807 -0.9828
22346SOL    HW278764   1.753  13.539   1.605 -1.1441 -0.9072  1.0690
22347SOL     OW78765   0.810   9.910   2.579  1.2931 -0.2426 -0.1591
22347SOL    HW178766   0.744   9.869   2.524  0.9141  0.9489 -0.6286
22347SOL    HW278767   0.774   9.996   2.601  2.0245 -0.1671  0.8471
22348SOL     OW78768   5.801   4.006  12.072  0.1635  0.2376 -0.0879
22348SOL    HW178769   5.745   3.939  12.034  0.1812 -0.1200  0.5065
22348SOL    HW278770   5.847   3.962  12.143  1.1909  0.5322 -0.5573
22349SOL     OW78771   3.950   8.932   7.072  0.2249  0.5081  0.2656
22349SOL    HW178772   3.857   8.917   7.058  0.1608 -0.0265  1.1641
22349SOL    HW278773   3.967   9.018   7.034 -0.5416  0.4341 -0.2654
22350SOL     OW78774  13.220   9.246  11.609  0.1990  0.5979  0.0478
22350SOL    HW178775  13.203   9.153  11.595  0.5797  0.4316  0.6371
22350SOL    HW278776  13.187   9.289  11.531  0.2230 -0.0611 -0.3294
22351SOL     OW78777  11.532   4.525  12.452  0.8071 -0.4852 -0.7564
22351SOL    HW178778  11.461   4.503  12.512  0.0951  0.8951 -1.0662
22351SOL    HW278779  11.612   4.511  12.503  0.2286  0.5040  0.4731
22352SOL     OW78780  10.556   9.407   3.749  0.1892 -0.1040  0.0863
22352SOL    HW178781  10.503   9.350   3.804  0.2796  0.0674  0.3520
22352SOL    HW278782  10.526   9.495   3.770  0.1751 -0.0403 -0.1927
22353SOL     OW78783   8.706   5.156  13.214  0.2300 -0.2822  0.8255
22353SOL    HW178784   8.695   5.091  13.283  1.1824  1.5673  2.8387
22353SOL    HW278785   8.795   5.142  13.182  0.0539 -0.6533  0.4943
22354SOL     OW78786  13.258   6.462  13.379 -0.1574 -0.1145 -0.0944
22354SOL    HW178787  13.333   6.495  13.329  0.3314 -2.1255 -0.7882
22354SOL    HW278788  13.198   6.428  13.313  0.4672 -2.7693  0.5730
22355SOL     OW78789   4.199   5.184  11.110 -0.3653 -0.1831  0.3432
22355SOL    HW178790   4.237   5.267  11.139  0.8962 -0.6295  0.0473
22355SOL    HW278791   4.133   5.164  11.175 -0.7798  1.1141  0.3534
22356SOL     OW78792  13.017   1.692   9.337  0.0440  0.8423  0.2071
22356SOL    HW178793  13.060   1.607   9.341  0.2763  0.8898 -0.9388
22356SOL    HW278794  13.011   1.720   9.429 -1.9003 -1.3138  0.8261
22357SOL     OW78795   4.873  13.196   4.901 -0.3530 -0.2356  0.6982
22357SOL    HW178796   4.935  13.129   4.872  0.5177  1.1134 -0.7662
22357SOL    HW278797   4.885  13.200   4.996  2.5435  0.5871  0.4161
22358SOL     OW78798   1.316  11.768   8.146 -0.6404 -0.0391  0.5073
22358SOL    HW178799   1.296  11.759   8.053  1.5912  2.5470 -0.3551
22358SOL    HW278800   1.289  11.856   8.169  0.6797  0.0960  1.7280
22359SOL     OW78801   3.016   8.143  11.325 -0.6480  0.1634  0.1793
22359SOL    HW178802   3.032   8.229  11.363  0.0042 -0.0632  0.4333
22359SOL    HW278803   3.042   8.153  11.233  1.3004 -0.2747  0.6482
22360SOL     OW78804   1.136   1.139   1.722 -0.4799 -0.0147 -0.0427
22360SOL    HW178805   1.043   1.143   1.701 -0.5926  0.1005  0.4668
22360SOL    HW278806   1.142   1.166   1.814 -0.1264 -1.4943  0.4170
22361SOL     OW78807   1.635  10.252   6.416 -0.3687  0.4271  0.0207
22361SOL    HW178808   1.588  10.169   6.424 -1.8082  1.1331 -0.8416
22361SOL    HW278809   1.627  10.275   6.324  0.4824  1.2658  0.1470
22362SOL     OW78810  11.552   2.063   1.743 -0.5767 -0.2341  0.2098
22362SOL    HW178811  11.492   1.996   1.774 -1.4200 -1.0794 -2.8788
22362SOL    HW278812  11.497   2.140   1.729 -0.4047 -0.1655 -0.0960
22363SOL     OW78813   6.726  13.636  13.071  0.6381 -0.3062  0.1261
22363SOL    HW178814   6.712  13.613  12.979  1.1262  1.6572 -0.4982
22363SOL    HW278815   6.638  13.635  13.109  0.3822 -0.7519 -0.4594
22364SOL     OW78816   9.172   2.250   0.191 -0.4921  0.1357 -0.5427
22364SOL    HW178817   9.267   2.251   0.187 -0.2862 -2.1561  1.3449
22364SOL    HW278818   9.144   2.213   0.107  0.5633 -2.4717  0.1485
22365SOL     OW78819  12.516   7.737   8.017  0.7278  0.1102  0.2441
22365SOL    HW178820  12.459   7.688   8.076  0.0405 -0.6118 -0.9550
22365SOL    HW278821  12.503   7.829   8.041 -1.8329  0.0669 -0.6838
22366SOL     OW78822   1.246  12.108   4.989 -0.1382 -0.3094 -0.4766
22366SOL    HW178823   1.314  12.043   4.972  0.6524 -0.4200  2.5352
22366SOL    HW278824   1.221  12.140   4.902  1.6290 -2.3884 -1.8635
22367SOL     OW78825   9.032  10.915   6.945  0.3185 -0.1492 -0.0194
22367SOL    HW178826   8.960  10.956   6.992  1.3135  0.9234  0.6104
22367SOL    HW278827   9.009  10.925   6.852 -0.3411  0.1741  0.1757
22368SOL     OW78828  12.900   6.343   4.775  0.3430  0.5090 -0.1606
22368SOL    HW178829  12.838   6.304   4.714  0.1908 -0.6111  0.6803
22368SOL    HW278830  12.853   6.419   4.810 -0.3153  0.0509 -0.0230
22369SOL     OW78831  11.311  10.287   7.942 -0.2284  0.0481  0.6536
22369SOL    HW178832  11.358  10.241   8.011  3.0081 -0.1733 -1.4705
22369SOL    HW278833  11.259  10.219   7.898  2.1273 -1.0735 -0.5468
22370SOL     OW78834   3.647   0.299  11.943  0.0441 -0.1200  0.1429
22370SOL    HW178835   3.669   0.205  11.948 -2.0252 -0.7265 -1.0042
22370SOL    HW278836   3.715   0.336  11.888  0.2986 -1.1687 -0.2864
22371SOL     OW78837  10.008   1.578   4.158 -0.5684 -0.3941 -0.7830
22371SOL    HW178838   9.975   1.661   4.193 -1.2250 -1.1424  0.4576
22371SOL    HW278839  10.041   1.531   4.235 -1.5741 -1.8951 -1.2217
22372SOL     OW78840   3.370   1.199   0.834  0.0001  0.3273 -0.0100
22372SOL    HW178841   3.350   1.137   0.905  1.6050  0.5888  0.7225
22372SOL    HW278842   3.388   1.143   0.758 -0.2223 -0.0308  0.1942
22373SOL     OW78843   0.523   7.334  12.277  0.2472 -0.6532  0.0687
22373SOL    HW178844   0.577   7.256  12.263  1.1065 -0.5998  2.4985
22373SOL    HW278845   0.586   7.406  12.277 -0.4766  0.0077 -1.6514
22374SOL     OW78846   6.201   9.015  12.837  0.0193 -0.0717 -0.3384
22374SOL    HW178847   6.269   9.004  12.770  1.2131  0.8820  0.6694
22374SOL    HW278848   6.243   8.987  12.918 -0.9544  0.1130  0.2360
22375SOL     OW78849   0.036   3.169  12.514 -0.2109 -0.4585  0.6057
22375SOL    HW178850   0.057   3.211  12.430 -1.0160 -0.0003  0.6271
22375SOL    HW278851   0.119   3.128  12.541 -0.1584 -1.4298 -0.8665
22376SOL     OW78852   0.168  12.375   1.499  0.1101  0.3458  0.1598
22376SOL    HW178853   0.116  12.315   1.445 -0.2805 -0.3136  1.2330
22376SOL    HW278854   0.102  12.431   1.541  0.3570  0.3904  0.4861
22377SOL     OW78855   9.787   8.031   7.808 -0.0555  0.1891 -0.3997
22377SOL    HW178856   9.798   8.101   7.873 -0.7408  0.0648 -0.1354
22377SOL    HW278857   9.876   8.006   7.785  0.2105  0.2519  0.4916
22378SOL     OW78858   7.795   4.226   1.740  0.2376 -0.2620  0.2421
22378SOL    HW178859   7.781   4.295   1.804  0.0799  1.8384 -1.9152
22378SOL    HW278860   7.790   4.270   1.655  0.5360 -2.8686 -1.2515
22379SOL     OW78861   2.777   0.944  13.358  0.4536 -0.5251  0.9682
22379SOL    HW178862   2.817   0.861  13.336  0.2762 -0.1362 -0.9457
22379SOL    HW278863   2.688   0.939  13.322  0.8509  0.9351 -0.3159
22380SOL     OW78864  12.881  13.601   0.264  0.0470 -0.1260 -0.1614
22380SOL    HW178865  12.930  13.532   0.221  0.3316  0.4753 -0.8095
22380SOL    HW278866  12.898  13.680   0.212  0.2705  0.5842  0.9381
22381SOL     OW78867  13.361   5.835   1.331  0.1364  0.1296 -0.1043
22381SOL    HW178868  13.417   5.877   1.397  1.6833 -0.9230 -0.6986
22381SOL    HW278869  13.320   5.908   1.285  0.0301  0.9014  1.1634
22382SOL     OW78870  13.735   7.519   0.881 -0.5490  0.1672  0.3631
22382SOL    HW178871  13.657   7.555   0.922  0.6893  0.3713  2.7080
22382SOL    HW278872  13.795   7.593   0.873 -0.5931  0.0432 -1.5336
22383SOL     OW78873   3.661  12.643   3.192 -0.0052  0.1612  0.0879
22383SOL    HW178874   3.655  12.714   3.128 -3.3912  0.9811  1.0975
22383SOL    HW278875   3.683  12.686   3.275  0.7570 -0.3817  0.1766
22384SOL     OW78876  10.724   5.800  11.163 -0.4318 -0.1713  0.5213
22384SOL    HW178877  10.633   5.819  11.142  0.3099  2.9947 -0.4129
22384SOL    HW278878  10.775   5.853  11.101  2.1469 -3.1716 -0.2281
22385SOL     OW78879  12.067  10.228   4.267 -0.2512  0.5555  0.2049
22385SOL    HW178880  12.125  10.259   4.336  0.2605  2.3403 -0.9681
22385SOL    HW278881  12.084  10.286   4.193 -1.8016 -0.4068 -0.9746
22386SOL     OW78882  12.191  11.001   8.713  0.3130 -0.3555 -0.2205
22386SOL    HW178883  12.228  11.001   8.625  0.5663 -0.7168 -0.1160
22386SOL    HW278884  12.252  11.053   8.765  1.9956 -2.8690  0.4827
22387SOL     OW78885   8.237   2.892   9.189  0.1915  0.4495  0.0779
22387SOL    HW178886   8.324   2.917   9.158  0.6664  0.1549  1.1511
22387SOL    HW278887   8.229   2.799   9.166  1.2375 -0.2497  2.2756
22388SOL     OW78888   1.497   5.576   8.559 -0.1169 -0.0884 -0.3507
22388SOL    HW178889   1.457   5.655   8.523  0.6621  0.1904 -0.6061
22388SOL    HW278890   1.486   5.585   8.654 -0.0326  0.3215 -0.3795
22389SOL     OW78891   9.268   7.183   9.137 -0.2579  0.4884  0.0921
22389SOL    HW178892   9.338   7.183   9.203 -0.6854 -0.2268  0.5541
22389SOL    HW278893   9.294   7.251   9.075  1.6836 -0.8310 -0.6321
22390SOL     OW78894  11.595   9.720  13.081  0.2953  0.3592  0.2172
22390SOL    HW178895  11.632   9.646  13.129 -0.0407  0.2670  0.3401
22390SOL    HW278896  11.640   9.718  12.996  0.5688  0.2523  0.3633
22391SOL     OW78897   1.231   5.028   4.519  0.1371  0.2738 -0.5837
22391SOL    HW178898   1.291   5.057   4.450  1.2383  1.7874  0.9448
22391SOL    HW278899   1.151   5.080   4.504 -0.8391 -1.6168 -2.5117
22392SOL     OW78900   3.878   0.483   8.416 -0.4311 -0.5082  0.3404
22392SOL    HW178901   3.835   0.568   8.414 -1.0773 -0.8339  0.1630
22392SOL    HW278902   3.882   0.454   8.325 -2.0464 -1.5586  0.5682
22393SOL     OW78903   0.277   7.124  12.546  0.2989  0.0324 -0.2032
22393SOL    HW178904   0.246   7.138  12.457 -0.1627 -0.2154 -0.0869
22393SOL    HW278905   0.350   7.186  12.557  0.2325  0.1959 -0.6850
22394SOL     OW78906   8.682   9.920   3.258  0.5200  0.3769 -0.2308
22394SOL    HW178907   8.727   9.848   3.303  1.1306  1.0507  0.2447
22394SOL    HW278908   8.731   9.998   3.282 -0.3825  1.0163 -0.4229
22395SOL     OW78909  10.819   1.609   7.346 -0.0027 -0.0241 -0.3176
22395SOL    HW178910  10.813   1.703   7.363  1.0301  0.3456 -1.8829
22395SOL    HW278911  10.910   1.594   7.322 -0.1918 -1.4095 -0.2625
22396SOL     OW78912  11.733   2.674   7.741  0.6594 -0.2651  0.3969
22396SOL    HW178913  11.817   2.637   7.715 -0.0082 -0.4758 -1.6822
22396SOL    HW278914  11.754   2.759   7.777  1.8230 -0.6342  0.6239
22397SOL     OW78915  10.485  12.933   6.181  0.5932  0.1144  0.1910
22397SOL    HW178916  10.478  12.988   6.103  1.4618  0.7841  0.5602
22397SOL    HW278917  10.399  12.893   6.190  0.0973  1.0156 -0.3855
22398SOL     OW78918   3.425   9.167   4.369 -0.7903  0.0413  0.1397
22398SOL    HW178919   3.405   9.093   4.426 -1.6019 -0.9289 -1.3207
22398SOL    HW278920   3.475   9.227   4.424 -1.9594 -0.5939  1.9925
22399SOL     OW78921   7.734   8.146   4.574 -0.2832 -0.2797 -0.1274
22399SOL    HW178922   7.742   8.092   4.653  0.3506 -2.1314 -1.3835
22399SOL    HW278923   7.710   8.084   4.505 -1.3960  1.3780 -1.3084
22400SOL     OW78924   8.783  11.423   4.507 -0.1551 -0.5447 -0.4651
22400SOL    HW178925   8.736  11.414   4.423 -0.7357 -0.8962 -0.1163
22400SOL    HW278926   8.738  11.494   4.551 -1.2315 -1.7133  0.4092
22401SOL     OW78927   4.989  13.048   7.915 -0.2535  0.5150  0.0076
22401SOL    HW178928   4.970  12.970   7.864  1.5953 -0.1759  0.3180
22401SOL    HW278929   5.056  13.021   7.977  1.1863  2.5601 -0.5429
22402SOL     OW78930  11.758   8.492   4.167  0.8617  0.1857  0.1212
22402SOL    HW178931  11.666   8.465   4.162  1.0529 -0.2254 -2.4295
22402SOL    HW278932  11.755   8.587   4.172  0.2975  0.1573  0.4134
22403SOL     OW78933  10.149   9.911   0.106  0.6565  0.0126  0.1494
22403SOL    HW178934  10.084   9.890   0.173  2.8845 -0.9221  2.1570
22403SOL    HW278935  10.204   9.978   0.146  0.8438  0.9477 -1.5899
22404SOL     OW78936  12.982  11.498   4.619  0.3225  0.1841 -0.0350
22404SOL    HW178937  12.995  11.479   4.712 -2.1410 -2.7267 -0.1465
22404SOL    HW278938  13.053  11.450   4.575  0.3425 -0.0347  0.2337
22405SOL     OW78939   8.654   1.264   3.682  0.5016 -0.1806 -0.9107
22405SOL    HW178940   8.732   1.290   3.633  0.2726 -0.6346 -1.5302
22405SOL    HW278941   8.615   1.194   3.629 -0.3903  0.1161 -0.6661
22406SOL     OW78942   6.761  12.060   7.029  0.4603 -0.1495 -0.3021
22406SOL    HW178943   6.806  11.990   6.982 -0.3663 -1.9458  1.4312
22406SOL    HW278944   6.814  12.074   7.107 -0.1589  0.1601  0.0671
22407SOL     OW78945   0.389   5.091   9.355  0.3666  0.4620 -0.7104
22407SOL    HW178946   0.361   5.059   9.270  0.6900  0.5630 -0.8551
22407SOL    HW278947   0.386   5.014   9.412  0.5529  0.3041 -0.9118
22408SOL     OW78948   2.947   5.734  12.403 -0.1861  0.0608  0.2803
22408SOL    HW178949   2.902   5.665  12.354  0.7529 -0.9337  0.7695
22408SOL    HW278950   3.040   5.716  12.391  0.2568  3.0527 -2.1152
22409SOL     OW78951   7.726   6.114   7.217 -0.2658  0.3018  0.5453
22409SOL    HW178952   7.809   6.083   7.251 -0.6602 -1.1621  0.2453
22409SOL    HW278953   7.749   6.164   7.139  0.4042  0.9818  1.1606
22410SOL     OW78954   2.996   6.047  11.127 -0.2120  0.3264  0.2275
22410SOL    HW178955   3.070   6.038  11.067 -0.5678 -0.6143 -0.0951
22410SOL    HW278956   3.000   6.137  11.158 -0.3424  1.0083 -1.6428
22411SOL     OW78957   1.668  13.464  13.729  0.0645 -0.0501 -0.3620
22411SOL    HW178958   1.658  13.424  13.815 -1.5234  0.4494 -0.2890
22411SOL    HW278959   1.621  13.406  13.670 -0.2337  0.4513 -0.6246
22412SOL     OW78960   6.857   0.725   5.274  0.0710 -0.0070 -0.1651
22412SOL    HW178961   6.854   0.771   5.358 -0.0667 -0.1196 -0.1088
22412SOL    HW278962   6.785   0.761   5.224  1.1859  1.3241 -0.8967
22413SOL     OW78963   9.741   8.529   9.305  0.0367  0.0695  0.1821
22413SOL    HW178964   9.663   8.473   9.299 -1.7293  2.0112  2.6586
22413SOL    HW278965   9.794   8.505   9.229 -2.8680 -1.5196 -1.5204
22414SOL     OW78966  13.016   5.902  13.149 -0.7730  0.1016 -0.1625
22414SOL    HW178967  12.934   5.916  13.102 -0.0563  0.5841 -1.3004
22414SOL    HW278968  13.029   5.982  13.199  0.0193  0.8941 -1.5830
22415SOL     OW78969   0.388   9.584   8.526  0.1255 -0.3321  0.0236
22415SOL    HW178970   0.471   9.616   8.491 -0.4268 -0.5204 -1.5697
22415SOL    HW278971   0.391   9.489   8.513 -0.2958 -0.3507  0.0403
22416SOL     OW78972   0.125   1.623  12.645  0.5362 -0.1161 -0.0318
22416SOL    HW178973   0.074   1.682  12.590  1.9605 -1.1772 -2.7139
22416SOL    HW278974   0.216   1.650  12.632  0.9434 -0.3017  2.0333
22417SOL     OW78975   3.576   6.713   0.365 -0.3981  0.7501 -0.0961
22417SOL    HW178976   3.513   6.779   0.334 -0.9978  0.2281 -0.0223
22417SOL    HW278977   3.656   6.730   0.315 -0.5463  1.5300 -0.0777
22418SOL     OW78978   5.617   9.693  10.221 -0.2139 -0.7552 -0.0414
22418SOL    HW178979   5.586   9.637  10.292  1.9120 -0.6252  1.0689
22418SOL    HW278980   5.660   9.632  10.160 -0.4975 -0.6640 -0.3339
22419SOL     OW78981  13.681   8.618  12.289 -0.0108  0.1762 -0.4963
22419SOL    HW178982  13.590   8.592  12.271 -0.6963  1.8786  0.1979
22419SOL    HW278983  13.720   8.542  12.330 -1.0932 -0.6409 -0.9153
22420SOL     OW78984   8.136  11.157   8.595  0.5442 -0.1618 -0.5880
22420SOL    HW178985   8.060  11.109   8.625  1.1574 -0.0668  1.2522
22420SOL    HW278986   8.201  11.145   8.664  1.7408  0.8440 -1.4810
22421SOL     OW78987   6.462   3.296   8.515  0.3678 -1.1655 -0.1531
22421SOL    HW178988   6.394   3.361   8.533 -0.5875 -1.9040 -0.9761
22421SOL    HW278989   6.507   3.285   8.599  0.7177  0.7165 -0.0592
22422SOL     OW78990   2.814   7.944   3.465 -0.1810  0.2292 -0.1945
22422SOL    HW178991   2.726   7.961   3.497 -0.2022  0.9122 -0.5966
22422SOL    HW278992   2.816   7.983   3.378 -0.1335 -1.6332 -1.0787
22423SOL     OW78993   7.356   0.547  13.050 -0.1889  0.5213  0.0662
22423SOL    HW178994   7.336   0.528  13.141 -2.2098  1.1984 -0.1922
22423SOL    HW278995   7.349   0.642  13.043  3.3793  0.9089 -0.0853
22424SOL     OW78996   4.084   9.294   9.932 -0.0421 -0.1736 -0.6115
22424SOL    HW178997   4.081   9.378   9.887  1.6389  0.4310  0.3330
22424SOL    HW278998   4.052   9.231   9.868 -1.8120  1.2197 -1.1796
22425SOL     OW78999   2.069   3.556   6.939  0.0017 -0.8190  0.1740
22425SOL    HW179000   2.000   3.558   7.005 -0.1858  1.1039 -0.0337
22425SOL    HW279001   2.125   3.631   6.960  1.4912 -1.7723 -0.2414
22426SOL     OW79002   7.813  11.431   7.736 -0.3090 -0.0841  0.0904
22426SOL    HW179003   7.785  11.339   7.735  0.5918 -0.3796  0.8403
22426SOL    HW279004   7.741  11.477   7.780 -0.0614 -0.6894  1.1732
22427SOL     OW79005   8.271   6.971  11.316  0.0040  0.1550  0.0032
22427SOL    HW179006   8.358   6.992  11.348  0.4740 -0.6325 -0.7206
22427SOL    HW279007   8.269   7.005  11.227 -0.4430  0.2076  0.0298
22428SOL     OW79008   2.703  10.499   0.422  0.0580 -0.2029  0.2196
22428SOL    HW179009   2.745  10.432   0.476  1.5675 -0.2862 -0.9674
22428SOL    HW279010   2.646  10.449   0.363  2.5579 -0.7383 -1.9078
22429SOL     OW79011   4.980   1.601   4.469  0.3069 -0.2492  0.0780
22429SOL    HW179012   4.952   1.595   4.378  1.0515 -0.3990 -0.1463
22429SOL    HW279013   5.075   1.614   4.464  0.2093  0.9344  0.7949
22430SOL     OW79014   2.403   3.974  12.375 -0.3591  0.2154 -0.0811
22430SOL    HW179015   2.392   3.968  12.470  0.4791  2.0616  0.1653
22430SOL    HW279016   2.471   3.910  12.355 -0.5297 -0.1748  0.5525
22431SOL     OW79017   5.209  11.953   8.886  0.2632 -0.1405  0.0296
22431SOL    HW179018   5.288  11.912   8.849 -0.7657 -2.2351  0.0232
22431SOL    HW279019   5.189  11.901   8.963 -2.4868 -1.2769 -1.3232
22432SOL     OW79020  12.463   3.795  10.858  0.1716 -0.3949  0.7009
22432SOL    HW179021  12.474   3.804  10.764 -1.0136 -0.4079  0.5519
22432SOL    HW279022  12.537   3.740  10.886  0.2923 -0.7405 -0.2745
22433SOL     OW79023   8.319   5.095   8.174 -0.5076  0.3389  0.1640
22433SOL    HW179024   8.259   5.078   8.246  0.3289  1.1422  1.0939
22433SOL    HW279025   8.268   5.147   8.111 -2.0726 -2.5728 -1.1781
22434SOL     OW79026   4.371   5.638   7.179  0.1987 -0.0947 -0.1659
22434SOL    HW179027   4.327   5.714   7.140  0.9580 -1.1790 -3.4365
22434SOL    HW279028   4.439   5.676   7.235 -0.3584  1.6084 -0.5838
22435SOL     OW79029   7.051   2.753   4.609  0.1039  0.0184  0.2729
22435SOL    HW179030   7.129   2.735   4.662  0.7420 -0.2836 -0.7445
22435SOL    HW279031   7.031   2.669   4.568  0.6768  0.6385 -1.3460
22436SOL     OW79032  11.836   5.444   1.601  0.0887  0.2826 -0.3662
22436SOL    HW179033  11.821   5.482   1.514  0.7038 -0.2951 -0.7346
22436SOL    HW279034  11.901   5.501   1.641 -2.0153  2.0758  0.7609
22437SOL     OW79035  10.216  12.915   9.498 -0.1780  0.0043 -0.3460
22437SOL    HW179036  10.131  12.935   9.459 -0.0106 -0.1761 -0.8055
22437SOL    HW279037  10.194  12.879   9.584 -0.4716  2.8322  0.8858
22438SOL     OW79038  10.799   1.282  12.640 -0.4477  0.1255 -0.3102
22438SOL    HW179039  10.882   1.270  12.595 -0.1342 -1.2561  0.5546
22438SOL    HW279040  10.809   1.363  12.690  0.1385  0.2952 -0.6997
22439SOL     OW79041   2.112  12.792   0.660 -0.0007  0.1581 -0.0299
22439SOL    HW179042   2.079  12.854   0.595  0.2750 -0.3911 -0.7012
22439SOL    HW279043   2.175  12.842   0.712  0.0665  0.4895 -0.4293
22440SOL     OW79044   1.577   1.109   2.512  0.0495  0.3413  0.4039
22440SOL    HW179045   1.580   1.057   2.431 -0.0748  0.5043  0.2924
22440SOL    HW279046   1.631   1.060   2.574  0.1708  0.2291  0.2127
22441SOL     OW79047   7.128   1.574   3.724 -0.3282  0.2882  0.0860
22441SOL    HW179048   7.119   1.481   3.745 -3.5330  0.8387  1.7434
22441SOL    HW279049   7.195   1.606   3.784  0.2534 -0.7746  0.0227
22442SOL     OW79050  11.244  10.871  13.619  0.2099 -0.0219 -0.7253
22442SOL    HW179051  11.223  10.937  13.684  1.1600  1.0220 -1.4297
22442SOL    HW279052  11.319  10.823  13.656  0.3789  0.1897 -0.7884
22443SOL     OW79053   6.838   8.966   3.858  0.3192  0.2552  0.4827
22443SOL    HW179054   6.924   8.986   3.897  0.0743 -0.3711  1.3884
22443SOL    HW279055   6.855   8.960   3.764  1.3647 -0.3082  0.6907
22444SOL     OW79056  12.310  11.627   8.412  0.4926  0.6083 -0.5415
22444SOL    HW179057  12.389  11.677   8.391  0.6476  0.8415  0.5065
22444SOL    HW279058  12.295  11.645   8.505 -0.8960  0.7038 -0.7608
22445SOL     OW79059   0.624   0.704   2.488  0.4513 -0.1191  0.2408
22445SOL    HW179060   0.551   0.764   2.504  1.9628  1.0989  3.2969
22445SOL    HW279061   0.668   0.740   2.411 -1.2482 -0.0434 -0.7587
22446SOL     OW79062   2.294  11.137  11.356  0.1524  0.3973  0.0582
22446SOL    HW179063   2.289  11.120  11.450 -0.4379 -0.3793 -0.1044
22446SOL    HW279064   2.343  11.219  11.349 -0.5086  0.8933  1.0722
22447SOL     OW79065   2.330   7.405   9.838  0.9335  0.0031 -0.2903
22447SOL    HW179066   2.330   7.458   9.918 -0.0482  0.3497 -0.5105
22447SOL    HW279067   2.357   7.466   9.769  1.1402 -0.1333 -0.3315
22448SOL     OW79068   1.766   5.381   5.993  0.2000 -0.1775  0.0879
22448SOL    HW179069   1.712   5.426   6.058  1.5444  1.0982  0.3885
22448SOL    HW279070   1.717   5.302   5.970 -1.4740  0.6225  0.7807
22449SOL     OW79071   2.412   0.691  10.581 -0.0151 -0.4513 -0.3730
22449SOL    HW179072   2.411   0.633  10.658  0.3273  0.2936  0.2046
22449SOL    HW279073   2.504   0.699  10.558 -0.0371  0.0632 -0.2929
22450SOL     OW79074   2.275   3.325   0.512  0.2765  0.0670 -0.5776
22450SOL    HW179075   2.361   3.292   0.536  0.5262  1.9567  1.4039
22450SOL    HW279076   2.221   3.246   0.504  1.6249 -1.0119  0.4733
22451SOL     OW79077  13.104   6.368   0.793  0.0593  0.0503 -0.2437
22451SOL    HW179078  13.084   6.368   0.699 -0.9980  1.3116 -0.0511
22451SOL    HW279079  13.019   6.368   0.836  0.4728  1.4073  0.6685
22452SOL     OW79080  12.936  13.414   6.926  0.7279  0.2946 -0.2546
22452SOL    HW179081  12.871  13.484   6.918  1.1188  0.6559 -0.3662
22452SOL    HW279082  13.016  13.452   6.888  0.0174 -1.5385 -3.9911
22453SOL     OW79083  12.357   0.190   4.112 -0.6991 -0.0902  0.3735
22453SOL    HW179084  12.344   0.163   4.203  0.2906  1.3129  0.9562
22453SOL    HW279085  12.310   0.274   4.105 -1.0655 -0.3585 -0.5180
22454SOL     OW79086  11.032   6.299   4.649 -0.1231 -0.0433  0.1261
22454SOL    HW179087  11.025   6.307   4.554  0.6604  2.5891  0.2046
22454SOL    HW279088  11.125   6.316   4.667 -0.6656  1.7325  1.4819
22455SOL     OW79089  12.061   0.841  11.656  0.0672 -0.3337 -0.2230
22455SOL    HW179090  12.082   0.933  11.669  0.3097 -0.3174 -0.6895
22455SOL    HW279091  11.966   0.839  11.643  0.3049  0.1358 -2.3902
22456SOL     OW79092   3.820   8.284   6.353  0.7077  0.0205 -0.0368
22456SOL    HW179093   3.789   8.374   6.361  0.9613  0.1678 -0.6907
22456SOL    HW279094   3.905   8.291   6.310  1.7212 -0.3728  1.7758
22457SOL     OW79095   1.955   0.750   2.805  0.4279 -0.1076 -0.4079
22457SOL    HW179096   2.014   0.810   2.759  1.4779 -0.0814  0.9064
22457SOL    HW279097   1.995   0.664   2.793  0.9493 -0.0460  0.7802
22458SOL     OW79098   8.247   8.141   3.981  0.6765 -0.0411 -0.2599
22458SOL    HW179099   8.180   8.197   4.022  0.6798 -0.9107  0.9900
22458SOL    HW279100   8.203   8.103   3.906 -0.0740 -0.1783  0.2344
22459SOL     OW79101   9.216   8.159   5.300 -0.4085 -0.0971 -0.2739
22459SOL    HW179102   9.250   8.071   5.285 -0.1358  0.1969 -1.4707
22459SOL    HW279103   9.213   8.167   5.396 -0.3026 -1.3421 -0.1441
22460SOL     OW79104   7.995   3.020   8.421 -0.4152  0.3485  0.0418
22460SOL    HW179105   7.999   2.935   8.464  0.4043  0.4021  0.0920
22460SOL    HW279106   7.981   3.000   8.329 -0.3021  0.1581  0.0644
22461SOL     OW79107   9.450   1.290   0.177 -0.2249 -0.1103  0.1291
22461SOL    HW179108   9.428   1.207   0.136  0.1239 -0.2345  0.1874
22461SOL    HW279109   9.452   1.271   0.271  2.2199 -0.6431  0.0400
22462SOL     OW79110   8.591   4.836  11.669 -1.1193  0.3148  0.0320
22462SOL    HW179111   8.579   4.920  11.627 -1.3162  1.5135  2.3068
22462SOL    HW279112   8.536   4.840  11.748  0.8026 -0.9075  1.5393
22463SOL     OW79113   3.473   9.400   9.374 -0.0904 -0.3132 -0.3341
22463SOL    HW179114   3.403   9.465   9.375 -0.5686 -0.7350 -2.1667
22463SOL    HW279115   3.498   9.390   9.466 -1.5635  0.7730  0.2270
22464SOL     OW79116   6.749   1.666   1.026 -0.0266  0.1385  0.8234
22464SOL    HW179117   6.655   1.658   1.041 -0.1699 -1.4335 -0.6664
22464SOL    HW279118   6.786   1.582   1.053  0.7051  0.1006 -0.2314
22465SOL     OW79119  10.734   6.291  10.256  0.0714 -0.1454 -0.0520
22465SOL    HW179120  10.718   6.230  10.328  0.8635 -1.5269 -1.0070
22465SOL    HW279121  10.651   6.294  10.208  0.3332 -1.3446 -0.6150
22466SOL     OW79122   3.723  12.972   7.809 -0.4753  0.2091  0.6896
22466SOL    HW179123   3.712  13.060   7.773  0.3429 -0.5135 -1.4978
22466SOL    HW279124   3.817  12.966   7.829 -0.4355 -0.3340  0.3530
22467SOL     OW79125  10.157   4.709  10.867 -0.0723 -0.4009  0.1825
22467SOL    HW179126  10.126   4.621  10.847  1.6122 -1.5095  2.1153
22467SOL    HW279127  10.243   4.714  10.825  0.2423 -0.0385  0.8510
22468SOL     OW79128   2.706  10.480   1.353  0.6249 -0.0727  0.3594
22468SOL    HW179129   2.702  10.408   1.416 -0.5223 -0.4210 -0.0767
22468SOL    HW279130   2.799  10.503   1.348  1.1291 -2.0534 -0.0997
22469SOL     OW79131   8.594   3.551   6.908 -0.5785  0.1211  0.3525
22469SOL    HW179132   8.517   3.509   6.871  0.5357  0.0715 -2.0881
22469SOL    HW279133   8.648   3.573   6.833  0.6447  2.4864  1.8061
22470SOL     OW79134   7.417  10.196   2.214  0.1606  0.3973  0.5765
22470SOL    HW179135   7.489  10.240   2.259  0.2120  0.1222  0.7630
22470SOL    HW279136   7.395  10.122   2.270  0.3055 -0.0236  0.0850
22471SOL     OW79137   6.667   6.552  11.514  0.4422 -0.1175 -0.4839
22471SOL    HW179138   6.650   6.468  11.556  2.7516  0.5720  2.1505
22471SOL    HW279139   6.762   6.554  11.501  0.4028  1.8976 -0.8494
22472SOL     OW79140   2.428   9.611   6.332 -0.5735  0.0769  0.1366
22472SOL    HW179141   2.332   9.614   6.339 -0.7295 -0.2492 -1.4223
22472SOL    HW279142   2.454   9.702   6.318 -0.5136  0.3406  1.8201
22473SOL     OW79143   5.633   2.752   1.344  0.4112  0.1514  0.1157
22473SOL    HW179144   5.614   2.662   1.319 -2.0367  0.6910 -0.1821
22473SOL    HW279145   5.607   2.757   1.436  2.6321  0.0452  0.8190
22474SOL     OW79146  13.309  11.553  13.704 -0.3931  0.1348  0.1444
22474SOL    HW179147  13.346  11.618  13.644 -0.2928  0.3762  0.4650
22474SOL    HW279148  13.248  11.502  13.650  0.5680 -0.4191 -0.4457
22475SOL     OW79149   0.863   0.428   8.281 -0.1218 -0.1394  0.0983
22475SOL    HW179150   0.816   0.397   8.358 -0.1071  0.1000  0.2063
22475SOL    HW279151   0.935   0.366   8.269 -0.0901 -0.1439  0.3106
22476SOL     OW79152  10.779   3.067   8.791  0.1172  0.0750  0.3872
22476SOL    HW179153  10.718   3.124   8.837 -0.0074  0.3532 -0.1198
22476SOL    HW279154  10.748   3.064   8.701  0.1056 -0.8230  0.4035
22477SOL     OW79155   0.871   4.457   3.383  0.1415 -0.0141 -0.2790
22477SOL    HW179156   0.831   4.467   3.297  0.2931 -1.1275 -0.4893
22477SOL    HW279157   0.957   4.497   3.375  0.4853 -0.8479 -0.9044
22478SOL     OW79158   8.652   2.016   6.842  0.3036 -0.4669  0.1609
22478SOL    HW179159   8.651   1.921   6.831  0.4828 -0.5828  1.0764
22478SOL    HW279160   8.643   2.029   6.936 -0.3414  0.4410 -0.0117
22479SOL     OW79161   7.480   3.138   8.403 -0.4291 -0.5050 -0.2871
22479SOL    HW179162   7.439   3.160   8.319 -2.5519  0.5647  0.9316
22479SOL    HW279163   7.442   3.053   8.427 -0.0104 -0.6952 -0.2917
22480SOL     OW79164   7.413  12.930   2.632  0.0586  0.2752 -0.4206
22480SOL    HW179165   7.490  12.983   2.612  0.2588 -0.7742 -2.7348
22480SOL    HW279166   7.351  12.950   2.562 -1.9204  1.2509  1.4941
22481SOL     OW79167   6.194  10.150   2.067  0.3887 -0.4212  0.1978
22481SOL    HW179168   6.140  10.226   2.089 -0.7153 -0.9220 -0.6460
22481SOL    HW279169   6.226  10.118   2.151 -0.8067 -0.2103  0.7627
22482SOL     OW79170  11.560   7.366   2.733 -0.3797  0.2326  0.2228
22482SOL    HW179171  11.559   7.278   2.770  1.8421  0.5032  1.0578
22482SOL    HW279172  11.511   7.420   2.796 -4.0692 -0.7371 -1.5483
22483SOL     OW79173   8.947   9.976   9.507 -0.6053  0.3101  0.5289
22483SOL    HW179174   8.882   9.906   9.518 -2.0340  0.9134 -2.7700
22483SOL    HW279175   9.029   9.931   9.487 -1.5293 -0.5568 -1.6585
22484SOL     OW79176  11.818   0.270   9.841 -0.4702  0.9279 -0.9702
22484SOL    HW179177  11.799   0.178   9.863 -0.1922  0.9396 -0.6694
22484SOL    HW279178  11.850   0.266   9.751  0.2474  0.6328 -0.7112
22485SOL     OW79179   7.332   7.398  13.493  0.4623 -0.1107  0.4024
22485SOL    HW179180   7.299   7.308  13.498  0.4808 -0.0744  1.4366
22485SOL    HW279181   7.254   7.452  13.508  0.3257  0.0816 -0.8716
22486SOL     OW79182  10.674   7.918   8.674 -0.3215  0.3528 -0.1319
22486SOL    HW179183  10.686   7.846   8.735  1.4215  0.6431 -0.0947
22486SOL    HW279184  10.749   7.913   8.615 -0.3920  1.8805 -0.3921
22487SOL     OW79185  12.883   0.592  10.524  0.3602  0.5526 -0.7216
22487SOL    HW179186  12.896   0.670  10.469  0.1053  1.7445  0.8461
22487SOL    HW279187  12.970   0.568  10.553  0.4376  0.2348 -1.1969
22488SOL     OW79188   1.303   3.566   9.486 -0.1315  0.0479 -0.1645
22488SOL    HW179189   1.346   3.621   9.551  1.6301 -1.2165 -0.1927
22488SOL    HW279190   1.305   3.478   9.523 -1.1808 -0.3317 -0.9372
22489SOL     OW79191   9.645   7.671   5.958  0.6824 -0.0625  0.0717
22489SOL    HW179192   9.634   7.761   5.929  2.4783  0.3777  0.6282
22489SOL    HW279193   9.600   7.667   6.042  3.2781  1.3265  1.6902
22490SOL     OW79194   3.652   0.092   2.843 -0.2003 -0.3358  0.0546
22490SOL    HW179195   3.630   0.185   2.834  0.0850 -0.4308 -1.9704
22490SOL    HW279196   3.610   0.050   2.768 -0.8229 -1.9679  1.2651
22491SOL     OW79197   4.733   3.853  12.010  0.7567  0.1567 -0.3248
22491SOL    HW179198   4.735   3.784  11.944  2.8742  0.2625 -0.4507
22491SOL    HW279199   4.641   3.860  12.034  0.1420 -0.9918 -2.0889
22492SOL     OW79200   2.870   6.743   6.022  0.2652  0.1813  0.3913
22492SOL    HW179201   2.940   6.732   6.087  0.1011 -1.6178  0.2901
22492SOL    HW279202   2.873   6.664   5.969 -0.7701  0.8368 -0.6990
22493SOL     OW79203   2.343   2.420   0.044 -0.0569  0.0091 -0.0137
22493SOL    HW179204   2.322   2.344   0.099 -0.4484  0.2838  0.2184
22493SOL    HW279205   2.350   2.493   0.105  2.0252 -0.1297 -0.0182
22494SOL     OW79206   2.894   9.434   0.121 -0.5581  0.5236  0.7229
22494SOL    HW179207   2.945   9.412   0.044 -1.6923  0.7614 -0.1224
22494SOL    HW279208   2.804   9.445   0.089 -1.8884 -3.1966  2.6156
22495SOL     OW79209   8.275   1.424   0.949 -0.0081  0.1881  0.0673
22495SOL    HW179210   8.214   1.487   0.987 -0.1562  0.1752 -0.1472
22495SOL    HW279211   8.237   1.403   0.864 -1.5092 -2.3746  1.2488
22496SOL     OW79212   7.757   5.714  11.944 -0.1111 -0.3470  0.2295
22496SOL    HW179213   7.715   5.755  12.020  1.0567 -1.0154  1.2612
22496SOL    HW279214   7.807   5.641  11.980  2.3164  0.6811 -0.8546
22497SOL     OW79215   1.005   2.020   2.666 -0.4557  0.1880 -0.7983
22497SOL    HW179216   1.044   1.932   2.664  0.0165  0.2905  1.1377
22497SOL    HW279217   1.061   2.072   2.608  2.5321  0.3264  1.8715
22498SOL     OW79218   9.666  12.784  11.350 -0.0972 -0.1782  0.2179
22498SOL    HW179219   9.592  12.785  11.289  0.9065  0.3161 -1.0371
22498SOL    HW279220   9.627  12.802  11.435 -1.1865  2.7209 -0.7513
22499SOL     OW79221   7.833   5.554   0.787 -0.1241 -0.5564  0.1157
22499SOL    HW179222   7.755   5.525   0.834 -0.3815 -1.4605 -0.8342
22499SOL    HW279223   7.821   5.522   0.698  1.2523 -0.5679 -0.0923
22500SOL     OW79224   1.610   5.078   4.361 -0.1365  0.1979  0.2641
22500SOL    HW179225   1.603   4.987   4.333  0.5205  0.7683 -1.9825
22500SOL    HW279226   1.520   5.108   4.368 -0.3416 -0.3827  0.1914
22501SOL     OW79227  10.471  11.444  13.275  0.0779  0.1536 -0.3682
22501SOL    HW179228  10.555  11.486  13.293  1.2567 -1.7284 -1.1534
22501SOL    HW279229  10.459  11.453  13.181 -1.0584  1.1550 -0.1464
22502SOL     OW79230  11.609   1.959   0.291 -0.4479 -0.6996  0.2388
22502SOL    HW179231  11.691   1.916   0.267 -1.0773 -2.7347  1.4181
22502SOL    HW279232  11.584   2.008   0.213  2.0090  0.2519 -0.0467
22503SOL     OW79233  11.817  13.391   8.794 -0.3054  0.2049  0.2329
22503SOL    HW179234  11.901  13.344   8.792 -0.4048 -0.0756  1.5239
22503SOL    HW279235  11.756  13.332   8.749  0.1692  0.3842 -0.6599
22504SOL     OW79236   0.413  11.326   5.004 -0.0573 -0.6408 -0.2147
22504SOL    HW179237   0.383  11.257   4.944 -2.3495 -0.7621  0.9388
22504SOL    HW279238   0.347  11.394   4.996  0.5795  0.1217  0.8359
22505SOL     OW79239   4.412   0.445   0.720 -0.1903  0.1429 -0.7377
22505SOL    HW179240   4.340   0.429   0.659 -0.3075 -0.7735 -0.3725
22505SOL    HW279241   4.418   0.365   0.772 -0.6878  1.2250  1.0828
22506SOL     OW79242   0.600   7.575   3.435 -0.0520 -0.1467  0.2009
22506SOL    HW179243   0.634   7.528   3.512  1.2271  0.1820 -0.1316
22506SOL    HW279244   0.610   7.513   3.363  0.0838  0.0472  0.0522
22507SOL     OW79245   8.831  11.431   3.445  0.4275 -0.1094  0.4137
22507SOL    HW179246   8.777  11.411   3.522 -0.5634 -0.2576 -0.3073
22507SOL    HW279247   8.807  11.521   3.423  0.2118 -0.2978 -0.1232
22508SOL     OW79248   0.733  10.039   0.262 -0.0061 -0.1991 -0.0049
22508SOL    HW179249   0.756  10.117   0.212  0.4061 -0.9882 -1.0829
22508SOL    HW279250   0.799   9.974   0.237 -2.7480 -2.3080 -2.5718
22509SOL     OW79251  11.253  10.776   9.267  0.4042 -0.0364  0.5812
22509SOL    HW179252  11.305  10.695   9.269  0.9861  0.0899 -3.1416
22509SOL    HW279253  11.312  10.842   9.231 -0.9448  1.3323  0.7725
22510SOL     OW79254   9.465  10.877   1.658 -0.2979 -0.1946 -0.3450
22510SOL    HW179255   9.433  10.848   1.573 -2.9399 -1.1827  0.8687
22510SOL    HW279256   9.427  10.964   1.670 -0.7157 -0.4439  0.1919
22511SOL     OW79257   3.807  11.881   4.873  0.6660 -0.1047  0.3271
22511SOL    HW179258   3.714  11.886   4.854  0.5030 -0.6852  0.9571
22511SOL    HW279259   3.830  11.789   4.858  1.4060  0.2720 -1.0123
22512SOL     OW79260   0.142  10.332  11.552 -0.0452 -1.0580 -0.1824
22512SOL    HW179261   0.132  10.348  11.646 -0.8071  0.4035 -0.4825
22512SOL    HW279262   0.056  10.301  11.525 -0.5726  0.8110 -0.7913
22513SOL     OW79263   0.745  13.203   8.285  0.1371  0.3611  0.2119
22513SOL    HW179264   0.673  13.236   8.232  1.0295 -0.3030 -1.5314
22513SOL    HW279265   0.744  13.108   8.270  0.3676  0.1522  1.4716
22514SOL     OW79266   0.813   9.515   6.070  0.4612  0.3356  0.0556
22514SOL    HW179267   0.811   9.463   6.150 -0.5937  1.9400  1.1392
22514SOL    HW279268   0.878   9.471   6.014  1.5920 -0.5584  1.9641
22515SOL     OW79269  10.829   7.095   8.282 -0.2951  0.4042 -0.9782
22515SOL    HW179270  10.797   7.023   8.228  1.2599  0.0703 -1.5040
22515SOL    HW279271  10.908   7.125   8.238  0.4768  0.7766  0.5704
22516SOL     OW79272   7.368  10.454   4.199  0.1854 -0.6978  0.6495
22516SOL    HW179273   7.454  10.420   4.174  0.1354  0.6411 -1.5149
22516SOL    HW279274   7.387  10.523   4.262  1.1132  2.1088 -2.4345
22517SOL     OW79275  13.480  10.574  10.454 -0.0329 -0.1636 -0.0631
22517SOL    HW179276  13.517  10.524  10.381  0.5450 -1.0431  0.7981
22517SOL    HW279277  13.485  10.514  10.529 -2.9143 -0.1973  0.2083
22518SOL     OW79278  10.823  13.593  13.737 -0.1915 -0.1060  0.2688
22518SOL    HW179279  10.740  13.624  13.773 -0.2461  0.0554  0.0096
22518SOL    HW279280  10.819  13.617  13.644 -0.3131 -1.0418  0.0226
22519SOL     OW79281  11.746   4.294   1.969 -0.5903  0.3803  0.0850
22519SOL    HW179282  11.819   4.281   2.031 -0.2860  1.7510  0.0529
22519SOL    HW279283  11.783   4.350   1.901 -1.4679  0.4458 -0.3477
22520SOL     OW79284   4.682  11.581   2.956  0.2412  0.2869  0.7071
22520SOL    HW179285   4.590  11.565   2.939  0.0946  1.3763  0.4125
22520SOL    HW279286   4.697  11.542   3.043 -0.6260  0.5833  1.0016
22521SOL     OW79287  11.408   7.013   2.073  0.5250 -0.5610 -0.8538
22521SOL    HW179288  11.400   7.071   2.149  0.6228  0.4354 -1.5889
22521SOL    HW279289  11.336   6.950   2.083 -0.4343  0.5202 -0.7478
22522SOL     OW79290  10.643   6.434  10.586  0.2272 -0.2841 -0.2441
22522SOL    HW179291  10.650   6.402  10.496 -2.3726 -0.0585 -0.6117
22522SOL    HW279292  10.621   6.526  10.577 -0.9223 -0.4534  0.5669
22523SOL     OW79293   2.788   0.853   9.954  0.1243  0.1175  0.0111
22523SOL    HW179294   2.879   0.847   9.925  0.4401  1.7069  0.5461
22523SOL    HW279295   2.792   0.843  10.049 -0.5605 -2.1420 -0.1553
22524SOL     OW79296   2.438  12.512   7.883 -0.1560  0.4916 -0.2902
22524SOL    HW179297   2.457  12.587   7.827  1.4466 -0.1783 -0.6973
22524SOL    HW279298   2.420  12.441   7.823  1.6881 -0.2616 -0.0217
22525SOL     OW79299   0.018   6.841   0.782  0.5797  0.2194  0.1602
22525SOL    HW179300  -0.038   6.849   0.704 -0.8245 -2.8966  0.7113
22525SOL    HW279301   0.094   6.792   0.751  0.3465 -0.4066  0.5565
22526SOL     OW79302   7.772  10.159   7.691  0.4259 -0.4512  0.1028
22526SOL    HW179303   7.804  10.193   7.607 -1.2438 -1.1114 -0.8594
22526SOL    HW279304   7.847  10.114   7.730  1.3489  0.2511 -0.8232
22527SOL     OW79305   6.572   3.019   7.104  0.7141  0.1474  0.3755
22527SOL    HW179306   6.658   3.042   7.138  0.1680  1.9176  0.6409
22527SOL    HW279307   6.563   3.070   7.024 -0.2543  0.2990  0.5681
22528SOL     OW79308   7.138   0.249  10.772  0.5728  0.2767  0.3270
22528SOL    HW179309   7.081   0.321  10.747 -0.9437 -0.6645  0.9336
22528SOL    HW279310   7.162   0.207  10.689  2.9707  2.4667 -0.2176
22529SOL     OW79311   7.839   0.237   2.273  0.4071  0.1722 -0.4021
22529SOL    HW179312   7.905   0.262   2.338 -0.6401  1.1461  0.3238
22529SOL    HW279313   7.770   0.303   2.282 -0.4309 -0.5172 -1.5055
22530SOL     OW79314   3.065   5.067   8.093 -0.5107  0.2039 -0.0481
22530SOL    HW179315   2.985   5.113   8.066 -1.8917 -2.1295 -0.2385
22530SOL    HW279316   3.055   5.054   8.188  0.8157  1.9353  0.3746
22531SOL     OW79317   4.265   6.507   6.723 -0.8387 -0.6153 -0.1658
22531SOL    HW179318   4.229   6.586   6.762 -1.4029 -0.7165 -0.4832
22531SOL    HW279319   4.214   6.435   6.760 -0.3766 -0.8342  0.0675
22532SOL     OW79320   8.528  10.904   9.701 -0.0414 -0.4742 -0.2467
22532SOL    HW179321   8.596  10.951   9.654  0.0487  0.4081  0.7216
22532SOL    HW279322   8.448  10.920   9.651 -0.0490  0.9201  0.1702
22533SOL     OW79323   2.326   4.583   7.729  0.2157 -0.1760  0.6658
22533SOL    HW179324   2.338   4.634   7.809  0.2884  2.1740 -0.7298
22533SOL    HW279325   2.415   4.563   7.700  0.2142 -0.1607  0.6507
22534SOL     OW79326   1.647  10.800   7.834  0.3072 -0.4714  0.0018
22534SOL    HW179327   1.587  10.823   7.905  0.8745  1.9334 -0.2212
22534SOL    HW279328   1.672  10.709   7.853  0.4005  0.0542  2.8852
22535SOL     OW79329   5.882   0.200  10.821 -0.1444  0.5797  0.1871
22535SOL    HW179330   5.853   0.109  10.817  2.4609 -0.3646  0.4267
22535SOL    HW279331   5.876   0.231  10.731  0.6023 -0.4378 -0.2350
22536SOL     OW79332  10.665   2.241   5.309 -0.1427  0.1426  0.0028
22536SOL    HW179333  10.707   2.311   5.259 -1.5111  1.1206  0.1633
22536SOL    HW279334  10.705   2.247   5.396  0.1852  0.3238 -0.1572
22537SOL     OW79335  11.505   5.562   3.328  0.7319 -0.2531 -0.1744
22537SOL    HW179336  11.560   5.485   3.317  3.9298  1.6845  0.8474
22537SOL    HW279337  11.535   5.602   3.410 -2.0703  1.1471  0.3061
22538SOL     OW79338   8.512  12.831  13.173  0.0084  0.3027  0.3353
22538SOL    HW179339   8.607  12.835  13.184  0.2208  0.8798 -1.4127
22538SOL    HW279340   8.493  12.738  13.159  0.5532  0.3775 -1.0014
22539SOL     OW79341   4.198   2.342  12.268 -0.1720  0.7401  0.3438
22539SOL    HW179342   4.207   2.254  12.232  0.3838  0.8794  0.1133
22539SOL    HW279343   4.118   2.340  12.320 -0.7010  0.3745 -0.4624
22540SOL     OW79344  11.027   6.843   8.992 -0.0947  0.0926 -0.0391
22540SOL    HW179345  11.060   6.874   9.076  1.9743 -2.3271  0.1427
22540SOL    HW279346  10.948   6.794   9.014  0.2944 -0.3089  0.4901
22541SOL     OW79347   7.174  10.713   2.262  0.7873  0.2383 -0.3820
22541SOL    HW179348   7.215  10.793   2.230 -0.2349  0.8697 -0.1741
22541SOL    HW279349   7.224  10.643   2.222  0.0251  0.9833 -2.8219
22542SOL     OW79350   1.446  10.617   4.864  0.0764 -0.6030 -0.1836
22542SOL    HW179351   1.405  10.673   4.930  0.0323 -0.0809 -0.6392
22542SOL    HW279352   1.525  10.665   4.838  0.7708 -1.4113  0.3984
22543SOL     OW79353   1.422  12.677   2.792  0.2961 -0.3856 -0.1462
22543SOL    HW179354   1.426  12.582   2.798 -1.1236 -0.4637 -0.0759
22543SOL    HW279355   1.333  12.696   2.760 -0.0275  0.9572  1.3856
22544SOL     OW79356   6.286   1.618   7.155 -0.4064 -0.0196  0.1444
22544SOL    HW179357   6.251   1.664   7.231 -0.6141 -0.4396  0.3108
22544SOL    HW279358   6.212   1.568   7.121 -0.6884  1.2213 -1.1784
22545SOL     OW79359   0.946   0.568  11.639  0.3696 -0.3841  0.2701
22545SOL    HW179360   0.958   0.625  11.562 -2.5084 -0.3722 -0.2982
22545SOL    HW279361   1.005   0.495  11.624  1.2197  0.5271 -1.0369
22546SOL     OW79362   0.728   5.861  10.255 -0.0980  0.2923 -0.5458
22546SOL    HW179363   0.642   5.855  10.214 -0.5075  0.2883  0.3016
22546SOL    HW279364   0.778   5.918  10.196 -0.2161 -0.8354 -1.7919
22547SOL     OW79365   8.243  10.651  12.820  0.4590 -0.1148  0.2982
22547SOL    HW179366   8.207  10.583  12.877  2.6374  0.4920  2.5753
22547SOL    HW279367   8.338  10.640  12.827  0.8932  3.1016  0.7626
22548SOL     OW79368   1.535  11.609   9.673  0.0940  0.4409 -0.4278
22548SOL    HW179369   1.442  11.587   9.671 -0.2154  1.7203 -2.3221
22548SOL    HW279370   1.579  11.527   9.694 -1.5352  0.2691  3.1294
22549SOL     OW79371   4.286  12.111   8.516  0.1212  0.6184 -0.7257
22549SOL    HW179372   4.249  12.183   8.567 -0.2978  1.6617 -2.4351
22549SOL    HW279373   4.211  12.059   8.489  0.2764  0.4138 -0.7671
22550SOL     OW79374  10.348   7.660  11.900 -0.3712 -0.3118 -0.3502
22550SOL    HW179375  10.430   7.706  11.883 -1.0066  1.3516  0.8490
22550SOL    HW279376  10.375   7.571  11.923  1.0458  0.0373 -0.5428
22551SOL     OW79377  13.422   7.808  11.550  0.0763 -0.5589  0.7553
22551SOL    HW179378  13.515   7.803  11.525 -0.5227  0.9951 -2.2524
22551SOL    HW279379  13.379   7.744  11.493 -1.0361  0.9986 -0.2384
22552SOL     OW79380  13.562  12.461  11.380 -0.6379 -0.4218 -0.5418
22552SOL    HW179381  13.472  12.440  11.403 -0.0947 -1.4041  0.8410
22552SOL    HW279382  13.561  12.471  11.285 -2.4461  0.9405 -0.4309
22553SOL     OW79383   0.504   8.082  12.091  0.6786 -0.0429 -0.5161
22553SOL    HW179384   0.561   8.124  12.027 -1.4282  1.8691 -1.3003
22553SOL    HW279385   0.510   8.137  12.169  2.3476 -1.7111  0.6172
22554SOL     OW79386   2.511  10.978  11.858  0.5075  0.8979 -0.1150
22554SOL    HW179387   2.448  10.995  11.788  0.5831  1.0652 -0.1430
22554SOL    HW279388   2.522  10.883  11.859 -3.8499  0.0995  3.4018
22555SOL     OW79389  13.677   9.470  12.941  0.5851 -0.0346  0.3599
22555SOL    HW179390  13.611   9.528  12.980  1.1547  0.1666  1.0448
22555SOL    HW279391  13.626   9.401  12.899 -0.0695 -0.2723  1.4857
22556SOL     OW79392   4.976   9.193   4.033  0.0427  0.4731 -1.1048
22556SOL    HW179393   5.043   9.255   4.061  0.6071 -0.9642  0.9613
22556SOL    HW279394   4.990   9.116   4.087 -3.5767  0.2307 -0.2438
22557SOL     OW79395   1.184   5.561   9.685 -0.5597  0.1434 -0.0221
22557SOL    HW179396   1.143   5.623   9.745 -1.7304 -0.9295  0.3241
22557SOL    HW279397   1.161   5.593   9.597  0.9345  1.5637  0.0517
22558SOL     OW79398   6.945  12.846  13.480  0.1159 -0.3392 -0.8710
22558SOL    HW179399   6.993  12.928  13.494 -1.4381  0.4270  0.3301
22558SOL    HW279400   6.964  12.794  13.558 -0.9032 -0.0422 -0.3967
22559SOL     OW79401   1.332   6.297   3.154 -0.2450  0.2164  0.1536
22559SOL    HW179402   1.405   6.293   3.215  0.1673 -0.1515 -0.3556
22559SOL    HW279403   1.372   6.292   3.068 -0.8604  0.1722 -0.1386
22560SOL     OW79404   8.406  12.038   8.982 -0.0285  0.3552  0.3901
22560SOL    HW179405   8.441  12.101   9.046 -1.7620  1.0975  0.6529
22560SOL    HW279406   8.337  12.086   8.937  0.4449 -0.5098 -1.3250
22561SOL     OW79407  10.125   8.874   6.712  0.1824 -0.0541  0.1962
22561SOL    HW179408  10.151   8.961   6.744 -0.9954  0.5582 -0.4320
22561SOL    HW279409  10.047   8.891   6.658  0.0501 -1.4844 -0.0966
22562SOL     OW79410   7.322   7.621   8.398  0.3328 -0.1716  0.2134
22562SOL    HW179411   7.252   7.640   8.336  0.8770 -1.9340 -1.0295
22562SOL    HW279412   7.326   7.698   8.455 -1.2390  0.8243 -0.9483
22563SOL     OW79413   8.111   8.503   4.316 -0.3424  0.0020  0.3018
22563SOL    HW179414   8.096   8.589   4.276 -0.3376 -0.4309 -0.6629
22563SOL    HW279415   8.198   8.510   4.355  0.5688 -0.1746 -1.5532
22564SOL     OW79416   6.817   4.083  12.043  0.0329 -0.1068  0.1161
22564SOL    HW179417   6.838   4.012  11.982 -0.9263  1.3019 -1.9900
22564SOL    HW279418   6.795   4.039  12.125  2.2410 -2.0542 -0.2182
22565SOL     OW79419   3.677  12.910   9.352  0.0203 -0.0512 -0.3326
22565SOL    HW179420   3.686  12.951   9.439 -0.2025 -1.2908  0.2960
22565SOL    HW279421   3.614  12.966   9.306 -0.3576  0.2606  0.5365
22566SOL     OW79422   1.467  10.696   9.204  0.0789  0.1662 -0.0484
22566SOL    HW179423   1.495  10.622   9.259  0.6330 -0.3277 -0.9731
22566SOL    HW279424   1.396  10.662   9.151 -0.3129  0.5814  0.2064
22567SOL     OW79425   7.570   8.251  10.517  0.2908 -0.4344  0.0512
22567SOL    HW179426   7.508   8.240  10.589  1.6563  0.8497  1.4975
22567SOL    HW279427   7.538   8.327  10.469  0.4441 -0.0981  0.4792
22568SOL     OW79428   6.453   8.008  10.275  0.2496 -0.3086  0.0057
22568SOL    HW179429   6.439   7.953  10.352  0.1197  1.1321  1.0604
22568SOL    HW279430   6.510   7.956  10.219  1.5444 -0.8428  1.7199
22569SOL     OW79431   3.676   1.509   1.106  0.2448  0.0613  0.4801
22569SOL    HW179432   3.610   1.440   1.106 -1.0950  1.2577  1.9321
22569SOL    HW279433   3.713   1.507   1.018 -0.4775 -1.8042  0.1743
22570SOL     OW79434  10.378  10.195   8.229 -0.1609  0.0135  0.1466
22570SOL    HW179435  10.389  10.274   8.176  2.4530  0.1140  0.6843
22570SOL    HW279436  10.296  10.208   8.275 -0.5115  1.7526 -0.8584
22571SOL     OW79437   1.979   1.019  13.729  0.0902  0.0717  0.0948
22571SOL    HW179438   1.927   1.065  13.663 -0.0329  0.7876  0.6789
22571SOL    HW279439   1.922   0.948  13.759 -0.3415  0.5168  0.3357
22572SOL     OW79440   9.130   2.724   3.789 -0.4483  0.2031  0.3239
22572SOL    HW179441   9.077   2.644   3.796 -0.3430 -0.1282 -1.9642
22572SOL    HW279442   9.211   2.702   3.835 -0.6029 -0.8586  0.1277
22573SOL     OW79443   6.988   6.558  13.435  0.1885 -0.0771  0.1180
22573SOL    HW179444   6.935   6.559  13.355  0.2087 -1.7183  0.0582
22573SOL    HW279445   7.032   6.643  13.434 -2.0554  1.1930 -0.0618
22574SOL     OW79446  10.152   5.741   4.973  0.3200 -0.0019 -0.2204
22574SOL    HW179447  10.134   5.648   4.966 -0.9859  0.2548 -0.6510
22574SOL    HW279448  10.156   5.772   4.882 -3.2045  0.9959 -0.1998
22575SOL     OW79449   5.846   4.682   8.101  0.2439  0.2162 -0.2627
22575SOL    HW179450   5.765   4.731   8.114  0.8104  1.1159 -0.0115
22575SOL    HW279451   5.818   4.593   8.081 -0.8245  0.7404 -1.1610
22576SOL     OW79452   5.667  11.560   1.967 -0.4764  0.0863  0.1881
22576SOL    HW179453   5.717  11.609   1.901  1.1094 -1.1444  0.4206
22576SOL    HW279454   5.728  11.494   1.999 -1.8309 -0.5632  1.5395
22577SOL     OW79455   0.071   1.779   6.673  0.4995 -0.0187  0.4050
22577SOL    HW179456   0.093   1.819   6.757  2.4841 -1.2897  0.5573
22577SOL    HW279457   0.144   1.803   6.615 -0.8807  0.9311 -1.0493
22578SOL     OW79458   9.960  11.323   0.612 -0.2478 -0.4991  0.3854
22578SOL    HW179459   9.983  11.246   0.561  1.2705  0.1913 -0.0382
22578SOL    HW279460   9.868  11.341   0.589 -0.3044 -1.5715 -0.2787
22579SOL     OW79461   7.774   3.334   5.220 -0.6400 -0.2120  0.0798
22579SOL    HW179462   7.757   3.340   5.126 -2.3402 -2.3311  0.1790
22579SOL    HW279463   7.867   3.312   5.226 -0.7181 -0.9986 -1.1534
22580SOL     OW79464  12.811   3.397   4.155  0.2523 -0.0317  0.3029
22580SOL    HW179465  12.838   3.485   4.128 -0.8994  0.4453  0.6286
22580SOL    HW279466  12.808   3.402   4.251  2.4139 -1.1354  0.4914
22581SOL     OW79467   3.154   5.841   5.376 -0.3642 -0.1757  0.4255
22581SOL    HW179468   3.231   5.853   5.431 -0.8390  0.6073  0.9338
22581SOL    HW279469   3.182   5.777   5.310  0.4351 -0.5819  1.1356
22582SOL     OW79470  12.425   3.040   0.772  0.4253 -0.2502 -0.2643
22582SOL    HW179471  12.366   3.010   0.703  1.3194  1.6198 -1.9247
22582SOL    HW279472  12.374   3.106   0.820  0.5043 -0.0188 -0.4940
22583SOL     OW79473   6.932   3.884   8.846 -0.6429  0.9247  0.1416
22583SOL    HW179474   6.869   3.902   8.915  0.7235 -1.0110  2.0399
22583SOL    HW279475   6.883   3.834   8.781 -1.1782 -0.4240  1.5062
22584SOL     OW79476   9.558  10.611   9.212 -0.0976  0.1682  0.3735
22584SOL    HW179477   9.538  10.543   9.276 -0.3101  0.6873  0.8692
22584SOL    HW279478   9.646  10.640   9.234  0.7147 -1.1748 -0.9610
22585SOL     OW79479   1.191  11.079   9.735  0.6209  0.8355 -0.1962
22585SOL    HW179480   1.190  11.052   9.826 -1.4843 -0.6617 -0.6104
22585SOL    HW279481   1.112  11.131   9.724 -0.9494 -1.7051 -1.8525
22586SOL     OW79482  13.682   7.682   9.371  0.4270 -0.0578  0.2175
22586SOL    HW179483  13.747   7.612   9.372  0.1826 -0.4259 -2.2415
22586SOL    HW279484  13.601   7.640   9.399  1.0420  0.2242  2.5584
22587SOL     OW79485   7.622   9.229   3.679 -0.0564 -0.2451 -0.0318
22587SOL    HW179486   7.638   9.245   3.586  1.0880  3.1106  0.5688
22587SOL    HW279487   7.532   9.196   3.683 -1.2557  2.3031 -2.2451
22588SOL     OW79488  10.224   4.860  13.138 -0.0478  0.2454 -0.2072
22588SOL    HW179489  10.170   4.896  13.068  0.8741 -0.2014 -1.1698
22588SOL    HW279490  10.161   4.833  13.205 -1.1018 -0.9223 -1.5992
22589SOL     OW79491   9.176   1.182   6.704 -0.2851 -0.1418  0.7263
22589SOL    HW179492   9.212   1.094   6.694 -0.2692 -0.0283 -0.4062
22589SOL    HW279493   9.203   1.227   6.624 -1.9491  0.2949  0.3768
22590SOL     OW79494   8.421   5.666  12.201 -0.3397  0.1979  0.2704
22590SOL    HW179495   8.383   5.713  12.275  1.5533  2.6703 -0.1999
22590SOL    HW279496   8.413   5.727  12.128 -0.4571 -1.4464 -1.1579
22591SOL     OW79497   0.820   2.236  10.418  0.6509 -0.1775 -0.0487
22591SOL    HW179498   0.904   2.280  10.429  0.5689 -0.1692  0.5889
22591SOL    HW279499   0.835   2.173  10.348  0.8713  0.5994 -0.7153
22592SOL     OW79500   2.371  10.182   2.985  0.6126 -0.0550  0.5070
22592SOL    HW179501   2.280  10.168   2.959  0.2300  2.3057  0.3300
22592SOL    HW279502   2.413  10.097   2.972 -0.5479 -0.1952 -3.5275
22593SOL     OW79503   3.213   8.855   0.794  0.6686  0.8225 -0.7320
22593SOL    HW179504   3.223   8.872   0.700  1.7744  0.4099 -0.7086
22593SOL    HW279505   3.260   8.773   0.808  0.6045  0.9389  0.2030
22594SOL     OW79506  10.662   9.773  11.362  0.0447  0.3930 -0.7626
22594SOL    HW179507  10.731   9.770  11.428  0.5065  0.5236 -1.2357
22594SOL    HW279508  10.708   9.770  11.278 -0.5550 -0.0725 -1.0805
22595SOL     OW79509   4.355  11.734   5.976 -0.2683  0.5107 -0.1651
22595SOL    HW179510   4.447  11.709   5.982 -0.2650  0.3765 -0.7234
22595SOL    HW279511   4.357  11.828   5.957 -0.2619  0.6619  0.5520
22596SOL     OW79512   6.985   0.345  10.191  0.1852 -0.6520 -0.4786
22596SOL    HW179513   6.929   0.395  10.250  2.6708  1.2595  0.4440
22596SOL    HW279514   6.992   0.259  10.232  0.5098  0.1094  1.1646
22597SOL     OW79515   2.476   8.195  11.995  0.5875  0.8418  0.1627
22597SOL    HW179516   2.510   8.253  12.063 -0.4089  0.3312  1.1318
22597SOL    HW279517   2.481   8.107  12.034  2.1122  0.2442 -1.2876
22598SOL     OW79518   5.519  13.576   5.700 -0.3773 -0.4183 -0.1742
22598SOL    HW179519   5.434  13.595   5.661 -0.5006 -0.4721  0.0649
22598SOL    HW279520   5.549  13.660   5.734  0.1641 -0.1734 -1.2128
22599SOL     OW79521  13.399   4.819   5.035  0.3476  0.0596 -0.1535
22599SOL    HW179522  13.355   4.903   5.022 -1.2872 -0.6416  0.6714
22599SOL    HW279523  13.391   4.774   4.951 -0.0523  0.1385 -0.1558
22600SOL     OW79524  10.319   3.303   9.880  0.3504 -0.0880  0.2926
22600SOL    HW179525  10.305   3.210   9.894  0.6606 -0.6887 -2.6753
22600SOL    HW279526  10.367   3.308   9.797  1.3190  2.6769  0.9059
22601SOL     OW79527   0.649   7.419   8.545 -0.4360  0.1419  0.0615
22601SOL    HW179528   0.637   7.512   8.523 -0.0261  0.3372  0.6389
22601SOL    HW279529   0.562   7.381   8.534 -1.0498  0.9899  1.6393
22602SOL     OW79530   6.219   1.094   9.586  0.1177  0.2297  0.1550
22602SOL    HW179531   6.264   1.178   9.575 -0.9466  0.7291 -0.5355
22602SOL    HW279532   6.268   1.033   9.530  2.8758 -0.4745  3.0095
22603SOL     OW79533  13.085   2.723   2.019 -0.2602 -0.2865  0.2732
22603SOL    HW179534  13.067   2.813   1.992  0.1510 -0.4118 -0.4504
22603SOL    HW279535  13.077   2.724   2.114  0.2165  0.6163  0.3107
22604SOL     OW79536   6.624  10.623   9.648  0.0870  0.4160 -0.3481
22604SOL    HW179537   6.654  10.672   9.724  0.6721  0.5372 -0.6425
22604SOL    HW279538   6.686  10.648   9.578 -0.9903  1.0311 -1.1140
22605SOL     OW79539   2.612   8.693  11.161 -0.0316 -0.0545 -0.0970
22605SOL    HW179540   2.647   8.772  11.120  1.9224 -0.7552  0.1273
22605SOL    HW279541   2.677   8.670  11.228 -1.4866 -0.8131  1.1262
22606SOL     OW79542   6.717   1.655  12.761 -0.0198 -0.1761 -0.3620
22606SOL    HW179543   6.659   1.719  12.804  0.9735  1.2124 -1.0117
22606SOL    HW279544   6.803   1.697  12.762  0.6080 -1.4009 -1.0869
22607SOL     OW79545   9.109   3.273  12.908  0.3779  0.0223 -0.2255
22607SOL    HW179546   9.158   3.309  12.834 -0.1691  1.1712 -0.0471
22607SOL    HW279547   9.097   3.181  12.887  2.2030 -0.1907 -0.4978
22608SOL     OW79548   6.019   8.839  10.781 -0.7400 -0.4948 -0.9674
22608SOL    HW179549   6.103   8.801  10.753 -0.5349  0.0795 -1.1399
22608SOL    HW279550   6.023   8.930  10.753 -0.7398 -0.0320  0.4674
22609SOL     OW79551   9.343   7.554   3.394 -0.0109 -0.1247  0.1406
22609SOL    HW179552   9.319   7.576   3.304 -0.7329  2.5742  0.8749
22609SOL    HW279553   9.276   7.492   3.423 -1.3115  0.9640 -0.4273
22610SOL     OW79554  12.945   5.912  13.724 -0.1110 -0.0223 -0.0610
22610SOL    HW179555  12.894   5.993  13.727 -1.5386 -0.9184  1.0171
22610SOL    HW279556  13.036   5.941  13.718 -0.6672  1.6273 -1.1228
22611SOL     OW79557  12.287   5.245  11.214 -0.7164 -0.2725  0.2426
22611SOL    HW179558  12.353   5.179  11.194 -1.0242 -0.6274  0.3756
22611SOL    HW279559  12.277   5.241  11.309 -0.4992  0.1994  0.2857
22612SOL     OW79560  12.566   5.205   5.109 -0.2584 -0.0636 -0.7399
22612SOL    HW179561  12.543   5.228   5.019 -0.5132 -1.3356 -1.0287
22612SOL    HW279562  12.586   5.288   5.151  1.4459  0.4379 -2.3994
22613SOL     OW79563   4.106   1.794   4.206 -0.1419  0.0497 -0.0246
22613SOL    HW179564   4.020   1.798   4.164  0.7666 -1.4772 -2.1598
22613SOL    HW279565   4.096   1.848   4.285 -3.2806 -0.7605  0.2509
22614SOL     OW79566   6.025   3.427   9.406 -0.1991  0.3095 -0.3943
22614SOL    HW179567   6.041   3.521   9.414 -1.3038  0.6144 -1.5022
22614SOL    HW279568   6.094   3.387   9.459 -0.5049  1.7710  1.2134
22615SOL     OW79569   2.704   0.014   2.332  0.2594 -0.5606  0.1011
22615SOL    HW179570   2.657   0.055   2.260 -0.8038 -0.1093  1.0168
22615SOL    HW279571   2.638  -0.038   2.378  0.5474  0.3033  1.5889
22616SOL     OW79572  12.854   0.225   5.981  0.2336  0.3514  0.2885
22616SOL    HW179573  12.941   0.265   5.980 -0.6273  2.4648  1.5270
22616SOL    HW279574  12.810   0.262   5.904 -0.1380  0.7993  0.7019
22617SOL     OW79575   6.038   5.652   4.764  0.2956  0.5699  0.3027
22617SOL    HW179576   6.131   5.631   4.771  0.4049  1.6068  3.2130
22617SOL    HW279577   5.995   5.567   4.752  1.6197  0.2168 -3.0747
22618SOL     OW79578   3.518   7.065   6.721  0.2830 -0.8037 -0.3688
22618SOL    HW179579   3.528   7.143   6.666  0.5923 -1.6127 -1.4984
22618SOL    HW279580   3.440   7.021   6.686  0.6844 -1.5044 -0.4073
22619SOL     OW79581   2.977   1.345   8.662 -0.0567 -0.1832  0.2841
22619SOL    HW179582   2.908   1.310   8.718  1.7703  1.4023  3.8901
22619SOL    HW279583   3.053   1.289   8.680  0.3716 -0.1880 -1.4076
22620SOL     OW79584   1.125   7.869  12.768  0.4911 -0.0524  0.0903
22620SOL    HW179585   1.139   7.824  12.852  0.8219  0.9371  0.5790
22620SOL    HW279586   1.088   7.954  12.792 -0.3933 -0.1533 -0.8385
22621SOL     OW79587   4.117   0.331  10.365 -0.7110  0.3406 -0.3915
22621SOL    HW179588   4.039   0.313  10.416 -0.4473  0.9063  0.2244
22621SOL    HW279589   4.129   0.426  10.370  1.0250  0.1012  1.0642
22622SOL     OW79590   0.557   9.599  13.460  0.1582  0.1645  0.3922
22622SOL    HW179591   0.628   9.636  13.513 -1.1743  1.5509  1.2803
22622SOL    HW279592   0.486   9.663  13.465 -0.3780 -0.0656 -2.3709
22623SOL     OW79593   0.340   3.459   0.222 -0.2036  0.2584  0.2745
22623SOL    HW179594   0.282   3.416   0.160  0.0105 -0.6085  0.6545
22623SOL    HW279595   0.422   3.470   0.174 -1.0576  2.7668 -0.7355
22624SOL     OW79596  11.539   8.653  13.669  0.4696  0.0249  0.3235
22624SOL    HW179597  11.454   8.611  13.657  0.1330  0.8421 -0.2443
22624SOL    HW279598  11.552   8.705  13.590  1.4889 -0.0657  0.4120
22625SOL     OW79599   3.766   5.756  11.672  0.2722 -0.1132 -0.1962
22625SOL    HW179600   3.713   5.774  11.750  0.5484 -0.7932  0.1615
22625SOL    HW279601   3.715   5.693  11.622  0.2618  0.0420 -0.3800
22626SOL     OW79602  11.497   4.299  13.357 -0.0511 -0.3003 -0.0982
22626SOL    HW179603  11.434   4.336  13.295 -0.0169 -0.5378 -0.2729
22626SOL    HW279604  11.578   4.288  13.306  0.0243 -0.3422  0.0296
22627SOL     OW79605  10.800  10.817   4.240 -0.1642  1.1136 -0.3562
22627SOL    HW179606  10.705  10.805   4.235 -0.1962  0.4951  1.2303
22627SOL    HW279607  10.826  10.775   4.322  1.7088 -0.0385 -1.4514
22628SOL     OW79608  11.006   0.563   4.189  0.3039  0.2839  0.3466
22628SOL    HW179609  10.917   0.594   4.175  0.4956  0.4733 -0.4847
22628SOL    HW279610  11.006   0.473   4.155  0.2657  0.0574  0.9330
22629SOL     OW79611  12.530   1.000   7.105 -0.1481  0.3417 -0.2711
22629SOL    HW179612  12.528   1.052   7.025  0.4219  1.9329  0.7030
22629SOL    HW279613  12.464   1.040   7.161  0.9385  0.5994  0.8441
22630SOL     OW79614   4.846  12.136   2.370  0.3627 -0.1885 -0.0766
22630SOL    HW179615   4.789  12.095   2.435  1.3649  1.3079  1.8405
22630SOL    HW279616   4.800  12.216   2.345  0.2193 -0.5070 -0.8570
22631SOL     OW79617   3.963  10.644   1.276  0.6525  0.0338 -0.4831
22631SOL    HW179618   3.983  10.558   1.239 -0.1850  0.3608 -1.7910
22631SOL    HW279619   4.044  10.672   1.318  1.0573 -1.2145 -0.4110
22632SOL     OW79620   1.113   5.350   1.921 -0.3159 -0.3628  0.5689
22632SOL    HW179621   1.098   5.313   1.834 -0.4682 -0.3545  0.5907
22632SOL    HW279622   1.027   5.347   1.963 -0.9644  2.4835 -0.3439
22633SOL     OW79623   7.490   5.472   1.619 -0.0595 -0.7121 -0.5445
22633SOL    HW179624   7.551   5.530   1.664 -0.1038 -0.3422 -0.9576
22633SOL    HW279625   7.491   5.391   1.671  0.7794 -0.7087 -0.5505
22634SOL     OW79626  11.011   3.970   7.598 -0.4717  0.5709 -0.2409
22634SOL    HW179627  10.985   4.049   7.645  0.5009  0.0934  1.1577
22634SOL    HW279628  11.104   3.982   7.579  0.3053 -1.1289  2.0088
22635SOL     OW79629   7.227  13.608   2.761  0.5343 -0.5601 -0.0034
22635SOL    HW179630   7.267  13.523   2.782  1.3618 -0.4145 -0.9284
22635SOL    HW279631   7.243  13.662   2.839 -3.2419 -2.2588  2.2631
22636SOL     OW79632   3.837  12.162   4.867  0.4460 -0.1297  0.2008
22636SOL    HW179633   3.915  12.189   4.817  0.8702 -0.9791  0.3754
22636SOL    HW279634   3.833  12.067   4.854  0.8377 -0.4544  2.1461
22637SOL     OW79635  11.355   1.224   2.048  0.1104  0.1811  0.4758
22637SOL    HW179636  11.325   1.314   2.040 -1.3984 -0.2779  0.6254
22637SOL    HW279637  11.275   1.172   2.047  0.8620 -1.0637  1.7427
22638SOL     OW79638  11.517  12.782   5.699 -0.0391  0.3450 -0.2024
22638SOL    HW179639  11.506  12.869   5.736 -0.5484  0.3972 -0.4665
22638SOL    HW279640  11.558  12.731   5.769 -1.2124  0.3735  0.5354
22639SOL     OW79641   4.061   2.774   8.458 -0.0780  0.4102  0.1272
22639SOL    HW179642   4.002   2.769   8.533  2.5918 -0.4627  2.3414
22639SOL    HW279643   4.126   2.705   8.474  0.0555 -0.5421 -3.5958
22640SOL     OW79644  13.576   9.927   4.325  0.7096  0.2650  0.2286
22640SOL    HW179645  13.561   9.838   4.294  1.4543  0.7490 -1.6810
22640SOL    HW279646  13.507   9.942   4.390 -1.8696 -0.4165 -2.1427
22641SOL     OW79647   9.252   9.561  10.710  0.7532  0.1901 -0.5541
22641SOL    HW179648   9.216   9.496  10.650 -0.6829  1.3228 -0.9914
22641SOL    HW279649   9.264   9.639  10.657  0.2189  0.9749  0.4386
22642SOL     OW79650  10.228   9.072   3.571 -0.2569 -0.5618  0.5498
22642SOL    HW179651  10.140   9.108   3.559 -0.2934 -0.6673  0.4945
22642SOL    HW279652  10.275   9.096   3.491 -0.7773 -2.0805 -0.2509
22643SOL     OW79653  12.101   5.104   3.576  0.3270 -0.0431 -0.0350
22643SOL    HW179654  12.137   5.155   3.649  1.5137  1.4406 -1.5673
22643SOL    HW279655  12.052   5.168   3.525 -0.3935 -1.0374 -0.6050
22644SOL     OW79656   9.900   9.345   7.071 -0.5572 -0.0794 -0.5888
22644SOL    HW179657   9.972   9.349   7.007  0.1365  1.1761  0.2256
22644SOL    HW279658   9.928   9.279   7.134  0.6780  1.4873  0.5871
22645SOL     OW79659   5.110   8.285   4.595 -0.2087  0.3063  0.2496
22645SOL    HW179660   5.025   8.327   4.585 -1.1537 -1.5433  0.1064
22645SOL    HW279661   5.117   8.264   4.688 -0.7764 -1.2286 -0.0343
22646SOL     OW79662   7.842  11.663   6.910 -0.3684  0.1040  0.5426
22646SOL    HW179663   7.824  11.754   6.932 -0.1491  1.1376 -2.9966
22646SOL    HW279664   7.756  11.622   6.904 -0.4605 -0.0695  2.3472
22647SOL     OW79665  12.430   2.752  12.445 -0.2036  0.2559 -0.2881
22647SOL    HW179666  12.380   2.757  12.526 -0.1286 -2.1288 -0.0145
22647SOL    HW279667  12.380   2.693  12.389  1.9599 -1.8642 -0.1692
22648SOL     OW79668   4.577   3.657  13.541  0.3414  0.3408  0.0316
22648SOL    HW179669   4.530   3.663  13.625 -0.7095 -0.2241 -0.4890
22648SOL    HW279670   4.657   3.610  13.561  0.2100  0.4149  0.7649
22649SOL     OW79671   3.464  11.610   6.209  0.1218  0.2928 -0.4740
22649SOL    HW179672   3.444  11.538   6.267 -0.2864  1.1850  0.5244
22649SOL    HW279673   3.442  11.689   6.259 -0.7933  1.0842 -2.0153
22650SOL     OW79674  11.353  11.780  11.638 -0.2747 -0.0664  0.4236
22650SOL    HW179675  11.324  11.742  11.721  0.2323 -0.6315  0.3433
22650SOL    HW279676  11.384  11.868  11.662 -0.0633 -0.2523  0.8477
22651SOL     OW79677   7.115   2.323   8.381  0.3836  0.1159 -0.5469
22651SOL    HW179678   7.185   2.364   8.330  1.5151 -0.1520  0.7307
22651SOL    HW279679   7.159   2.256   8.433 -1.1755 -1.5980 -1.3331
22652SOL     OW79680  12.858   7.594   5.572  0.4194  0.5007  0.4414
22652SOL    HW179681  12.841   7.545   5.652 -0.2836  0.2935  0.1669
22652SOL    HW279682  12.820   7.681   5.588  1.7085  1.0026  0.9476
22653SOL     OW79683   1.416  11.199   9.298 -0.1469  0.1626  0.0749
22653SOL    HW179684   1.374  11.236   9.376 -0.7710  1.5998 -0.9121
22653SOL    HW279685   1.510  11.208   9.314 -0.2637  0.2417  0.7391
22654SOL     OW79686   5.113   8.548  10.920 -0.2747  0.2488  0.1173
22654SOL    HW179687   5.057   8.560  10.843 -0.7005 -0.2888  0.3314
22654SOL    HW279688   5.062   8.491  10.977 -0.5100  1.6527  1.3579
22655SOL     OW79689  11.108   7.992   7.424  0.5289 -0.2046 -0.0531
22655SOL    HW179690  11.113   7.984   7.329  1.1641  0.5608 -0.0906
22655SOL    HW279691  11.197   7.977   7.454  0.3604 -0.2928  0.4181
22656SOL     OW79692   9.614  11.201  13.190  0.3501 -0.2935  0.0402
22656SOL    HW179693   9.565  11.240  13.263  1.3519  0.6552  0.2208
22656SOL    HW279694   9.592  11.256  13.115 -0.2882 -0.9735 -0.2867
22657SOL     OW79695   4.285   5.908   2.771  0.4296 -0.3074 -0.6817
22657SOL    HW179696   4.366   5.874   2.809  0.7703  0.0154 -1.1048
22657SOL    HW279697   4.305   6.000   2.750 -0.6950  0.4067  1.1287
22658SOL     OW79698   4.331   8.725   9.811 -0.4244 -0.0733  0.4779
22658SOL    HW179699   4.298   8.799   9.864  1.0707 -0.2849  1.7965
22658SOL    HW279700   4.426   8.739   9.808 -0.4074 -0.3681 -1.7798
22659SOL     OW79701   3.183   2.654  10.577  0.0915  0.1063 -0.2582
22659SOL    HW179702   3.228   2.721  10.526  1.2261  1.3921  2.2513
22659SOL    HW279703   3.177   2.579  10.518  2.3829  1.0953 -1.8860
22660SOL     OW79704   0.512  13.574   4.348  0.2392 -0.6116 -0.2201
22660SOL    HW179705   0.462  13.506   4.303 -0.8739  0.9426 -1.4284
22660SOL    HW279706   0.452  13.608   4.415  1.4695 -2.0770  1.7575
22661SOL     OW79707  12.295   5.567  13.040 -0.5258 -0.4266  0.0893
22661SOL    HW179708  12.366   5.631  13.052  0.1658 -0.9666 -1.0134
22661SOL    HW279709  12.315   5.498  13.103 -1.0681  0.2343  1.0179
22662SOL     OW79710   4.161   5.288   6.108 -0.0058 -0.4068 -0.1917
22662SOL    HW179711   4.109   5.227   6.158 -2.6446  2.0204  0.3018
22662SOL    HW279712   4.251   5.272   6.135 -0.8781 -2.2239  1.8717
22663SOL     OW79713   7.031   9.562  11.303  0.0936  0.1281  0.0608
22663SOL    HW179714   7.007   9.565  11.211 -1.8807  0.9295  0.5528
22663SOL    HW279715   7.092   9.635  11.315 -0.6996  0.8640 -0.3355
22664SOL     OW79716   8.333  12.760  12.975 -0.0640 -0.6123 -0.5114
22664SOL    HW179717   8.397  12.698  13.011  0.0046 -0.9115 -1.1411
22664SOL    HW279718   8.383  12.815  12.916 -0.2697 -0.4294 -0.5179
22665SOL     OW79719  12.516   8.834   2.294  0.1266 -0.9158 -0.0049
22665SOL    HW179720  12.480   8.794   2.373 -0.5562  1.0746  0.7321
22665SOL    HW279721  12.609   8.812   2.297  0.1469 -0.7083  1.4631
22666SOL     OW79722  12.987  13.301   9.359  0.3076  0.9265 -0.1346
22666SOL    HW179723  12.989  13.358   9.436  0.9173  0.9556 -0.1624
22666SOL    HW279724  13.038  13.224   9.385 -0.4223  0.4346 -0.1314
22667SOL     OW79725  12.307   6.696   0.153 -0.3018 -0.2945  0.0764
22667SOL    HW179726  12.241   6.709   0.221 -1.8884  2.4252 -1.7727
22667SOL    HW279727  12.267   6.731   0.073  1.5565 -3.0447 -2.2804
22668SOL     OW79728   2.667   4.626   0.203 -0.3145  0.5294  0.6864
22668SOL    HW179729   2.745   4.670   0.169 -0.2708 -0.3780 -0.4326
22668SOL    HW279730   2.602   4.696   0.211  0.0979  1.0043  0.0272
22669SOL     OW79731   0.960  12.296   7.629 -0.7123  0.1435  0.1861
22669SOL    HW179732   0.982  12.390   7.634 -0.8345  0.2290 -0.7811
22669SOL    HW279733   0.874  12.290   7.671 -1.2474  0.6626 -0.8032
22670SOL     OW79734  13.734  12.095   3.497 -0.2408  0.0019  0.1898
22670SOL    HW179735  13.800  12.163   3.509 -1.8866  1.8289 -0.4782
22670SOL    HW279736  13.673  12.107   3.570  0.0951 -1.6538  0.7987
22671SOL     OW79737   9.644   4.975  10.395  0.0286  0.0683  0.6155
22671SOL    HW179738   9.717   4.970  10.457  0.8036 -0.0695 -0.2869
22671SOL    HW279739   9.668   4.915  10.324 -1.1296 -0.2457  0.4606
22672SOL     OW79740   6.610   2.375   3.384  0.1352 -0.1010  0.9013
22672SOL    HW179741   6.525   2.379   3.341  0.1362 -1.7318  0.6906
22672SOL    HW279742   6.592   2.330   3.467  0.4917  1.2101  1.7265
22673SOL     OW79743   2.790   9.910   8.477  0.3697 -0.0836  0.4783
22673SOL    HW179744   2.697   9.895   8.463  0.8284 -2.2476 -0.6695
22673SOL    HW279745   2.806   9.882   8.567  0.1393 -1.0905  0.2189
22674SOL     OW79746   7.233  10.652   6.188  0.1613  0.0050 -0.3302
22674SOL    HW179747   7.261  10.740   6.165 -2.0026  1.1410  1.0612
22674SOL    HW279748   7.242  10.647   6.283 -0.1734 -1.1226 -0.3322
22675SOL     OW79749   4.487   0.010   2.733 -0.1873 -0.0339  0.2199
22675SOL    HW179750   4.408   0.048   2.772 -0.3202 -0.3801  0.2960
22675SOL    HW279751   4.544   0.085   2.716 -1.5720  0.5469 -2.2917
22676SOL     OW79752   7.060   5.883   0.606 -0.1530 -0.1477 -0.1976
22676SOL    HW179753   7.022   5.799   0.579 -1.6900 -0.3214  2.2160
22676SOL    HW279754   6.998   5.949   0.577  0.2958  0.0492 -0.7373
22677SOL     OW79755   0.003  11.841   5.623 -0.0112 -0.4368  0.7516
22677SOL    HW179756  -0.079  11.855   5.576 -0.7054 -1.4436  1.6152
22677SOL    HW279757   0.034  11.929   5.645 -1.4349 -0.0771  1.3917
22678SOL     OW79758   3.395   5.381   5.407 -0.3139 -0.2107 -0.0308
22678SOL    HW179759   3.311   5.389   5.452 -1.1854 -3.0014 -0.9252
22678SOL    HW279760   3.461   5.394   5.475 -1.5141 -0.4117  1.2170
22679SOL     OW79761   4.221   8.701   0.345 -0.4867 -0.3552  0.0505
22679SOL    HW179762   4.200   8.723   0.435 -2.1348 -1.1999 -0.0765
22679SOL    HW279763   4.268   8.777   0.311 -0.8882  0.4593  1.2743
22680SOL     OW79764  10.976   9.888   8.218  0.0039  0.2895  0.2916
22680SOL    HW179765  10.932   9.962   8.178  0.2310 -0.0316 -0.5857
22680SOL    HW279766  10.972   9.905   8.312 -2.0364  0.2228  0.2500
22681SOL     OW79767   8.951  13.523   9.139 -0.2916  0.0133  0.2806
22681SOL    HW179768   8.947  13.430   9.160 -0.8970 -0.2163 -0.7865
22681SOL    HW279769   8.998  13.562   9.213  1.0072 -1.2927  0.1880
22682SOL     OW79770   0.567   9.121   0.607  0.0166 -0.5873  0.9551
22682SOL    HW179771   0.572   9.028   0.583  2.6682 -0.2153 -0.4093
22682SOL    HW279772   0.649   9.158   0.572 -1.2541  2.3932  0.8824
22683SOL     OW79773   2.876  13.699   9.798  0.3151  0.0765 -0.1432
22683SOL    HW179774   2.816  13.714   9.725 -0.0664  0.9381  0.3245
22683SOL    HW279775   2.821  13.660   9.866  0.2667  0.8900  0.2953
22684SOL     OW79776   9.089   2.518   5.455  0.0760 -0.0204 -0.1147
22684SOL    HW179777   9.087   2.608   5.487  1.9855 -0.6346  1.9711
22684SOL    HW279778   9.024   2.472   5.508 -0.9578  0.0751 -1.2330
22685SOL     OW79779   0.787  12.430   6.926  0.7068  0.1216  0.8533
22685SOL    HW179780   0.867  12.406   6.880 -0.1757 -1.2931 -0.0393
22685SOL    HW279781   0.770  12.520   6.900  0.7922 -0.3071 -0.7995
22686SOL     OW79782   5.122   5.691   0.494 -0.0570 -0.3512 -0.7404
22686SOL    HW179783   5.101   5.740   0.414 -1.2399 -0.6614 -0.6360
22686SOL    HW279784   5.106   5.599   0.470 -0.0047 -0.4815 -0.2773
22687SOL     OW79785   8.914   0.758   2.499  0.4880 -0.2767 -0.0713
22687SOL    HW179786   9.003   0.749   2.534  0.3271 -0.0164  0.4251
22687SOL    HW279787   8.860   0.703   2.555  0.2822 -0.1476 -0.1389
22688SOL     OW79788   1.971  11.960   2.139 -0.4470  0.1581 -0.0690
22688SOL    HW179789   1.911  11.898   2.097  0.5592  0.1510 -1.5817
22688SOL    HW279790   2.036  11.905   2.182 -0.7198  0.1791  0.3845
22689SOL     OW79791   5.471   0.801   4.975 -0.1407 -0.5747  0.1949
22689SOL    HW179792   5.470   0.706   4.987 -0.2092 -0.5937  0.0464
22689SOL    HW279793   5.451   0.837   5.061  2.8968 -0.6307  1.0431
22690SOL     OW79794   0.885   2.708  12.956 -0.3204 -0.4535  0.0868
22690SOL    HW179795   0.959   2.648  12.959  0.4912  0.4599 -0.9153
22690SOL    HW279796   0.924   2.796  12.959 -1.4486  0.0486  1.0051
22691SOL     OW79797  11.081   9.300  13.045  0.3752  0.6520  0.2266
22691SOL    HW179798  11.135   9.359  13.098  0.3121  0.6868  0.2521
22691SOL    HW279799  10.991   9.326  13.065  0.2810 -0.4435  1.4027
22692SOL     OW79800   8.279   9.363  13.616 -0.3321 -0.2736 -0.0279
22692SOL    HW179801   8.333   9.298  13.662 -1.5704  0.1956  2.2660
22692SOL    HW279802   8.335   9.439  13.608 -0.2809 -0.1122  1.4786
22693SOL     OW79803   3.273  10.716   7.101 -0.1761 -0.5236  1.3997
22693SOL    HW179804   3.357  10.670   7.113 -0.3761 -0.5882  2.6407
22693SOL    HW279805   3.294  10.808   7.112 -0.1816 -0.4903  1.1513
22694SOL     OW79806   3.001   0.122   1.637 -0.2887 -0.5265 -0.4002
22694SOL    HW179807   2.932   0.110   1.573 -0.5884 -0.8764 -0.0166
22694SOL    HW279808   2.988   0.051   1.700 -0.6697  0.4393  0.6418
22695SOL     OW79809   8.613   1.541   6.256 -0.2193  0.4237  0.1212
22695SOL    HW179810   8.529   1.548   6.211  0.3590 -0.3741 -1.1209
22695SOL    HW279811   8.660   1.620   6.231  0.5859 -0.6089 -1.7556
22696SOL     OW79812   1.163  12.419   9.820  0.4520 -0.0934  0.2011
22696SOL    HW179813   1.252  12.449   9.803  0.8299 -1.4516 -0.2964
22696SOL    HW279814   1.122  12.415   9.734  0.1308 -0.1884  0.3558
22697SOL     OW79815   8.354   2.361   7.444  0.0933 -0.2625  0.3197
22697SOL    HW179816   8.322   2.290   7.388 -0.8394 -0.9390  1.6558
22697SOL    HW279817   8.430   2.324   7.489  0.8918  0.3089 -0.5201
22698SOL     OW79818  11.805  11.252  10.575 -0.5402  0.4085  0.7804
22698SOL    HW179819  11.834  11.163  10.555  0.5591  0.9229  0.0000
22698SOL    HW279820  11.709  11.245  10.580 -0.4287 -1.0122  1.8245
22699SOL     OW79821   7.559  10.652   2.130  0.3986  0.1469  0.0968
22699SOL    HW179822   7.517  10.633   2.215 -1.7824 -0.5436 -1.0529
22699SOL    HW279823   7.631  10.589   2.124 -1.0169 -1.5996  0.3737
22700SOL     OW79824   9.547   3.529  13.547  0.2667 -0.0326 -0.5166
22700SOL    HW179825   9.576   3.571  13.466  3.1588  2.5079  1.5858
22700SOL    HW279826   9.455   3.553  13.555  0.7627  2.5333 -1.4694
22701SOL     OW79827   6.056   4.609   7.491  0.0068 -0.2067 -0.3239
22701SOL    HW179828   6.048   4.533   7.548 -0.6777  0.7315  0.8836
22701SOL    HW279829   6.150   4.620   7.478  0.1116 -1.2175 -0.4705
22702SOL     OW79830   6.973  11.603   2.955  0.3719 -0.0811 -0.1462
22702SOL    HW179831   6.926  11.667   2.902 -0.2677 -0.1379  0.3406
22702SOL    HW279832   6.906  11.560   3.007  0.9185 -0.4229  0.2966
22703SOL     OW79833   3.601   7.149  12.213  0.9110  0.0704 -0.2730
22703SOL    HW179834   3.637   7.188  12.134 -0.9395  2.1263 -0.2061
22703SOL    HW279835   3.668   7.088  12.243  2.2279  0.2363 -2.6545
22704SOL     OW79836  11.114   6.991   7.157 -0.3601  0.2323  0.6496
22704SOL    HW179837  11.093   6.897   7.164 -0.5270 -0.1731 -3.2020
22704SOL    HW279838  11.029   7.033   7.141 -0.0484  0.7371  0.2958
22705SOL     OW79839   2.189   7.033   3.057 -0.3290 -0.7173 -0.2852
22705SOL    HW179840   2.177   7.073   2.970 -1.5328  0.5460  0.4188
22705SOL    HW279841   2.281   7.047   3.078 -0.5669  1.1090 -0.3607
22706SOL     OW79842  10.447   6.092   7.271 -0.7592  0.0590  0.2989
22706SOL    HW179843  10.362   6.050   7.282 -0.0509 -1.4622  0.3856
22706SOL    HW279844  10.502   6.049   7.337 -0.5928  3.0650  2.2739
22707SOL     OW79845   5.327  10.730   7.246  0.1497  0.1807  0.2538
22707SOL    HW179846   5.400  10.788   7.227  1.9514 -2.3616 -1.2625
22707SOL    HW279847   5.340  10.703   7.337 -0.3030  1.5447  0.7373
22708SOL     OW79848  12.008   0.393   2.062  0.2475  0.6235 -0.0473
22708SOL    HW179849  11.936   0.346   2.104 -1.1392  1.3567 -1.5386
22708SOL    HW279850  12.077   0.327   2.054  0.6426  0.4301  3.3061
22709SOL     OW79851  13.460   9.131   0.252  0.1209  0.3264  0.2431
22709SOL    HW179852  13.520   9.133   0.327 -1.4714 -0.2930  1.6120
22709SOL    HW279853  13.483   9.051   0.205  0.3007  0.0231  0.8362
22710SOL     OW79854  12.274   8.548   1.896 -0.2283  0.3822 -0.5916
22710SOL    HW179855  12.259   8.642   1.885  0.8171  0.4384 -1.7421
22710SOL    HW279856  12.345   8.528   1.835  0.8742 -0.8022  1.0155
22711SOL     OW79857   5.409   1.698  10.766  0.0955  0.5864 -0.0103
22711SOL    HW179858   5.488   1.705  10.819  1.2041 -0.3308 -1.4668
22711SOL    HW279859   5.347   1.651  10.821  1.1663 -0.2295  0.5252
22712SOL     OW79860   0.709   2.603  12.773 -0.2672 -0.1670 -0.0038
22712SOL    HW179861   0.748   2.519  12.751 -1.7606 -0.3251 -2.4290
22712SOL    HW279862   0.776   2.648  12.824  0.8754 -2.4803  0.6676
22713SOL     OW79863   0.021  11.526   6.456 -0.0806  0.6874 -0.3991
22713SOL    HW179864  -0.005  11.478   6.535 -0.9393  1.0883 -0.4315
22713SOL    HW279865  -0.035  11.603   6.455  0.5608  1.1621 -0.9171
22714SOL     OW79866   0.056   2.583   6.378 -0.6950 -0.8002  0.7233
22714SOL    HW179867   0.036   2.668   6.338 -1.0733 -0.4612  1.5870
22714SOL    HW279868  -0.013   2.525   6.346 -1.0179 -0.5235  0.9054
22715SOL     OW79869   2.423   3.711   9.755 -0.0911 -0.0413  0.1127
22715SOL    HW179870   2.423   3.794   9.706  0.6057  0.8766  1.5935
22715SOL    HW279871   2.336   3.675   9.739 -0.2824  0.7884 -0.8679
22716SOL     OW79872  11.394   8.443   7.329  0.5189  0.0844  0.2468
22716SOL    HW179873  11.436   8.357   7.322  0.2699  0.0351 -0.8283
22716SOL    HW279874  11.304   8.428   7.302  0.5267  0.7237 -0.1477
22717SOL     OW79875  13.177   4.384   3.380  0.0437  0.4051  0.7665
22717SOL    HW179876  13.084   4.380   3.405  0.4803 -1.9711  2.4144
22717SOL    HW279877  13.206   4.293   3.384  1.6258  0.5161 -3.4192
22718SOL     OW79878   3.451  11.365  11.191 -0.1522 -0.1445 -0.7082
22718SOL    HW179879   3.478  11.368  11.283 -1.0849 -2.9037 -0.2749
22718SOL    HW279880   3.355  11.363  11.194 -0.1776 -2.2048 -1.5946
22719SOL     OW79881  10.208  10.519   6.945 -0.7449 -0.2921  0.2481
22719SOL    HW179882  10.137  10.583   6.956  0.0267  0.6332  0.0063
22719SOL    HW279883  10.173  10.438   6.982 -1.4553  0.4819  1.3396
22720SOL     OW79884  10.634   9.981   4.583 -0.3044  0.5175  0.6052
22720SOL    HW179885  10.600  10.040   4.515 -0.5900  0.9801  1.1410
22720SOL    HW279886  10.583  10.002   4.661  0.2519  0.2252  1.0581
22721SOL     OW79887   1.974  12.161  12.625 -0.5364 -0.8638  0.1208
22721SOL    HW179888   1.996  12.069  12.639 -3.8692 -2.2115 -2.2311
22721SOL    HW279889   1.879  12.161  12.610 -0.5315  2.8613 -0.8806
22722SOL     OW79890   8.326  11.702   4.625 -0.9463 -0.0286  0.1777
22722SOL    HW179891   8.337  11.708   4.720 -0.3809 -2.0257  0.3000
22722SOL    HW279892   8.233  11.721   4.610 -1.1951 -0.3669  1.2167
22723SOL     OW79893   9.951   4.802   6.873  0.0248  0.4489 -0.2420
22723SOL    HW179894   9.890   4.854   6.821 -1.2666 -0.6340  0.1619
22723SOL    HW279895  10.014   4.768   6.809 -0.6070  0.4402 -0.8667
22724SOL     OW79896  12.124  11.996   5.392 -0.5197  0.3193 -0.3922
22724SOL    HW179897  12.198  12.004   5.332  0.5174  1.3845  0.9660
22724SOL    HW279898  12.090  12.085   5.400 -2.2304 -0.2056 -1.2799
22725SOL     OW79899   7.093  10.676   4.897  0.2830  0.2353  0.2781
22725SOL    HW179900   7.176  10.632   4.917  0.6602  1.3484  1.3074
22725SOL    HW279901   7.099  10.759   4.944 -1.1280  0.6381 -0.2213
22726SOL     OW79902   7.508   5.251   8.162 -0.0702 -0.4223  0.1881
22726SOL    HW179903   7.460   5.333   8.174  0.4370  0.0204 -0.6883
22726SOL    HW279904   7.536   5.227   8.250 -0.1437  0.3971  0.4458
22727SOL     OW79905  11.538   6.333   2.096 -0.3026 -0.0517 -0.0790
22727SOL    HW179906  11.505   6.385   2.169 -2.0281 -2.4496  0.9992
22727SOL    HW279907  11.462   6.321   2.039 -0.0570 -1.5367 -0.1537
22728SOL     OW79908   2.777   2.951   3.621  0.1201  0.0883  0.2189
22728SOL    HW179909   2.694   2.990   3.592 -0.0038  0.7540  1.4270
22728SOL    HW279910   2.816   3.016   3.679  0.7166 -0.8935  0.9536
22729SOL     OW79911  12.467  12.149   7.131 -0.3774 -0.0460  0.4435
22729SOL    HW179912  12.385  12.144   7.082  0.2130 -0.1265 -0.5562
22729SOL    HW279913  12.454  12.220   7.193 -1.8727 -1.2393  1.5737
22730SOL     OW79914   0.912  13.007  12.335 -0.0000  0.2094 -0.0998
22730SOL    HW179915   0.939  12.938  12.395 -1.0411  0.2516  0.4468
22730SOL    HW279916   0.850  13.060  12.386 -2.2551 -0.7485 -1.6939
22731SOL     OW79917   6.509  10.517   0.148 -0.0127  1.1093 -0.5344
22731SOL    HW179918   6.474  10.435   0.113  0.0868  0.2518  1.2520
22731SOL    HW279919   6.503  10.579   0.076 -0.9198 -0.2370 -1.6579
22732SOL     OW79920   9.060   9.038   3.889 -0.6314  0.2355  0.1716
22732SOL    HW179921   9.088   8.982   3.818  1.2546  0.5195  0.6434
22732SOL    HW279922   9.024   9.116   3.846 -1.0123 -0.2885 -0.4623
22733SOL     OW79923   8.651   5.044   5.564 -0.0683 -0.3261 -0.0364
22733SOL    HW179924   8.594   5.023   5.490 -0.0440  0.4583 -0.2886
22733SOL    HW279925   8.713   5.107   5.529  0.0428 -0.0701  0.6140
22734SOL     OW79926   2.253   2.680   4.040  0.3415  0.3478  0.6964
22734SOL    HW179927   2.280   2.599   4.082 -1.2376 -0.2095  0.6869
22734SOL    HW279928   2.263   2.663   3.946  2.1263  0.9643  0.7395
22735SOL     OW79929  10.903  12.404  10.464 -0.5182  0.6164 -0.3715
22735SOL    HW179930  10.833  12.409  10.530  0.0994 -0.2198  0.3742
22735SOL    HW279931  10.978  12.447  10.505 -0.6854  1.8682 -1.3239
22736SOL     OW79932  13.021  13.733   6.136 -0.3961 -0.3973 -0.3819
22736SOL    HW179933  12.963  13.666   6.098 -0.4053 -0.7873  0.3143
22736SOL    HW279934  13.102  13.726   6.086 -0.2035 -1.3076  0.0550
22737SOL     OW79935   5.014   3.986  11.290 -0.1140  0.0982 -0.2791
22737SOL    HW179936   5.108   3.999  11.299  0.1027 -0.4895 -1.6302
22737SOL    HW279937   4.985   4.058  11.233 -0.3590 -0.1605 -0.4833
22738SOL     OW79938   1.491  10.576   6.467 -0.0086 -0.2164 -0.2949
22738SOL    HW179939   1.466  10.653   6.416  0.0041  0.9202  1.3494
22738SOL    HW279940   1.586  10.568   6.454  0.0472  0.2601 -0.1687
22739SOL     OW79941  11.688   8.937   5.971  0.0892  0.4540 -0.1387
22739SOL    HW179942  11.670   9.024   5.936 -1.4807  0.3637  0.3740
22739SOL    HW279943  11.699   8.882   5.894  1.4543  1.1573 -0.4679
22740SOL     OW79944   1.222   5.275   7.132  0.0735  0.6915 -0.0813
22740SOL    HW179945   1.153   5.338   7.111 -0.3549  0.4732  0.6569
22740SOL    HW279946   1.302   5.318   7.102 -0.3967  0.8338 -1.1983
22741SOL     OW79947   0.024   0.170   5.754 -0.5784 -0.2428  0.0938
22741SOL    HW179948   0.005   0.121   5.834 -0.8077 -1.3246 -0.6126
22741SOL    HW279949   0.117   0.153   5.737 -0.8566 -1.0925 -0.5932
22742SOL     OW79950  10.121   3.086   1.316 -0.0820 -0.0989  0.5324
22742SOL    HW179951  10.027   3.091   1.305 -0.1065  0.1078  0.8367
22742SOL    HW279952  10.135   3.080   1.410  0.0940 -2.5342  0.4193
22743SOL     OW79953  13.162  13.619   7.565  0.0824 -0.7797  0.9796
22743SOL    HW179954  13.251  13.601   7.597 -0.3888 -1.5703  1.8998
22743SOL    HW279955  13.105  13.569   7.624 -0.9802 -0.2283  0.4419
22744SOL     OW79956   0.341   6.515   4.241 -0.0603 -0.2212  0.0070
22744SOL    HW179957   0.310   6.603   4.262 -0.2058 -0.6552  1.8480
22744SOL    HW279958   0.437   6.521   4.248 -0.0778 -0.2237  0.2878
22745SOL     OW79959   2.431   5.267   4.366  0.3988 -0.2516 -0.3983
22745SOL    HW179960   2.524   5.292   4.360  0.1245  0.9953  0.1351
22745SOL    HW279961   2.422   5.231   4.454  0.3978 -0.4640 -0.4855
22746SOL     OW79962   3.140   1.740   0.318  0.1318 -0.2608 -1.2004
22746SOL    HW179963   3.152   1.830   0.289 -0.5540  0.0766 -0.4431
22746SOL    HW279964   3.228   1.702   0.315  0.5138  0.5917 -0.9799
22747SOL     OW79965   5.732  10.379  12.098  0.1827 -0.4660  0.5453
22747SOL    HW179966   5.707  10.441  12.167 -1.6636 -0.8556  0.2771
22747SOL    HW279967   5.672  10.305  12.109 -1.0174 -0.0174 -2.2040
22748SOL     OW79968   2.853   0.261  12.142 -0.3784 -0.4622 -0.1933
22748SOL    HW179969   2.842   0.233  12.052 -2.4440 -0.7513  0.1145
22748SOL    HW279970   2.792   0.208  12.192 -0.5765  0.9284  1.1314
22749SOL     OW79971   2.097   7.428   0.046  0.2326 -0.1650 -0.1671
22749SOL    HW179972   2.130   7.410   0.134  1.6180  0.6729 -0.4743
22749SOL    HW279973   2.175   7.453  -0.003 -0.8147  1.5198 -1.0628
22750SOL     OW79974   1.594   7.079   2.691 -0.4585 -0.7115 -0.5965
22750SOL    HW179975   1.623   7.167   2.715 -3.0509  0.2195 -0.5880
22750SOL    HW279976   1.637   7.021   2.755 -2.7060  1.1086  2.8198
22751SOL     OW79977  13.073   4.023   2.026  0.0943  0.5008 -0.2929
22751SOL    HW179978  13.156   4.068   2.011  0.1249  0.3631 -0.5404
22751SOL    HW279979  13.022   4.039   1.947  0.8228 -1.4873 -1.2301
22752SOL     OW79980   8.752  11.775   4.810  0.2335 -0.6353 -0.1541
22752SOL    HW179981   8.707  11.767   4.894  1.3184  0.4974  0.5510
22752SOL    HW279982   8.838  11.810   4.831  0.2976  0.2994 -1.8072
22753SOL     OW79983   2.883   3.285  12.619 -0.5577  0.3548 -0.3590
22753SOL    HW179984   2.796   3.289  12.578  0.0890 -2.3825 -2.3325
22753SOL    HW279985   2.936   3.345  12.566 -0.4412 -0.8298 -1.6505
22754SOL     OW79986   2.845  11.714   4.408  0.6201  0.4179 -0.2090
22754SOL    HW179987   2.823  11.626   4.441 -1.0336  0.3756 -1.2896
22754SOL    HW279988   2.856  11.767   4.487  2.4412 -0.9150  0.4756
22755SOL     OW79989  10.269   5.625   3.457 -0.7705 -0.2150  0.3246
22755SOL    HW179990  10.200   5.560   3.471 -2.1796  0.9124 -0.9687
22755SOL    HW279991  10.243   5.670   3.377  2.1825 -0.5859 -1.0039
22756SOL     OW79992  13.215   6.733  11.474  0.8018  0.2944 -0.1919
22756SOL    HW179993  13.132   6.693  11.449  1.3807 -0.7281 -0.5154
22756SOL    HW279994  13.278   6.661  11.476  1.6775  1.0371  0.1158
22757SOL     OW79995   8.111   7.719   7.043  0.4324  0.4119 -0.5311
22757SOL    HW179996   8.048   7.761   6.984  1.0689  0.8582 -0.9069
22757SOL    HW279997   8.103   7.626   7.024  0.0378  0.4840 -0.7294
22758SOL     OW79998  11.544   5.199  10.259 -0.7473 -0.3588 -0.0134
22758SOL    HW179999  11.518   5.228  10.171 -1.4587 -1.5714 -0.2181
22758SOL    HW280000  11.552   5.104  10.252  1.5045 -0.2784  0.6593
22759SOL     OW80001   8.400   7.009   0.756  0.3002  0.9716  0.2391
22759SOL    HW180002   8.368   6.936   0.703  1.2740  1.6290 -1.3142
22759SOL    HW280003   8.390   6.979   0.846 -0.8006 -0.4397 -0.3105
22760SOL     OW80004   7.766   8.848   9.437 -0.2687  0.0761 -0.1445
22760SOL    HW180005   7.689   8.796   9.457 -0.4994  1.4123  2.9116
22760SOL    HW280006   7.840   8.796   9.469  0.1649 -0.9197 -2.5061
22761SOL     OW80007   5.523   6.337  10.306 -0.3436  0.5100  0.0264
22761SOL    HW180008   5.438   6.381  10.299 -0.3624  0.2919 -1.4077
22761SOL    HW280009   5.585   6.396  10.265 -0.2384 -0.4288 -1.2119
22762SOL     OW80010   7.915   9.765   9.224 -0.0053 -0.1316  0.2937
22762SOL    HW180011   7.980   9.835   9.228  1.0512 -1.0918  0.5088
22762SOL    HW280012   7.926   9.717   9.306 -0.4216 -0.7995 -0.0293
22763SOL     OW80013   9.308   6.591  12.001  0.0550  0.1371  0.6783
22763SOL    HW180014   9.311   6.559  11.911 -0.1536 -1.3745  1.1763
22763SOL    HW280015   9.248   6.665  11.999 -1.6090 -1.1746 -0.0677
22764SOL     OW80016   7.087   0.627   7.847  0.0986  0.2058  0.0778
22764SOL    HW180017   7.054   0.545   7.883  0.0365 -0.0319 -0.5022
22764SOL    HW280018   7.105   0.682   7.923  0.4987 -0.4859  0.4847
22765SOL     OW80019  10.306  13.425   9.558  0.8434 -0.3060  0.3958
22765SOL    HW180020  10.260  13.504   9.585  3.9816  1.7786  0.0642
22765SOL    HW280021  10.266  13.402   9.473  0.6728  1.6265 -0.0872
22766SOL     OW80022   9.535   0.487   7.231 -0.1303  0.3361  0.2778
22766SOL    HW180023   9.547   0.548   7.159  0.9745 -0.5545 -0.3312
22766SOL    HW280024   9.572   0.531   7.307  1.0621  0.2588 -0.2475
22767SOL     OW80025  10.810   4.401   0.518 -0.2290  0.1867 -0.0440
22767SOL    HW180026  10.810   4.472   0.582 -1.4106  0.5893 -0.4786
22767SOL    HW280027  10.718   4.386   0.498  0.0560 -0.8395 -0.6654
22768SOL     OW80028   3.068   4.721  12.507 -0.2918  0.1432  0.1528
22768SOL    HW180029   3.047   4.785  12.438  1.4473  0.0869 -0.4853
22768SOL    HW280030   3.049   4.636  12.466  1.1516  0.0869 -0.4584
22769SOL     OW80031   9.843  11.975   7.883  0.6474  0.0075  0.0426
22769SOL    HW180032   9.884  11.894   7.853 -0.9920 -0.5327 -0.8884
22769SOL    HW280033   9.791  11.949   7.959  2.6368  0.8553  1.7786
22770SOL     OW80034   6.343   1.914   1.587  0.4552  0.4986  0.0737
22770SOL    HW180035   6.328   1.989   1.644 -0.6893 -0.1736  0.6847
22770SOL    HW280036   6.256   1.877   1.572  0.9539 -0.4710 -0.5387
22771SOL     OW80037   5.266   5.457  12.577  0.1132 -0.4054  0.2729
22771SOL    HW180038   5.318   5.530  12.543  1.8621 -1.7253 -0.0353
22771SOL    HW280039   5.323   5.417  12.643  0.2155 -2.9036 -1.2329
22772SOL     OW80040   6.136   9.620  13.087  0.9867  0.1925  0.1424
22772SOL    HW180041   6.153   9.703  13.131 -1.0292  0.1137  1.1947
22772SOL    HW280042   6.142   9.555  13.156  0.9722 -0.3512 -0.3633
22773SOL     OW80043   6.061  13.113   1.355  0.5118  0.4337 -0.4227
22773SOL    HW180044   6.109  13.123   1.273  1.8966  0.8239  0.4019
22773SOL    HW280045   6.116  13.055   1.408 -1.0550 -0.9951 -0.2731
22774SOL     OW80046   7.657   6.296   9.851  0.9831 -0.5145 -0.2339
22774SOL    HW180047   7.728   6.311   9.914 -1.5518  0.9333  2.5412
22774SOL    HW280048   7.624   6.208   9.873  0.9456 -0.5540 -0.4482
22775SOL     OW80049  11.271  10.559   2.166 -0.4801  0.9535 -0.6933
22775SOL    HW180050  11.179  10.548   2.142 -0.7861  2.5506 -0.3084
22775SOL    HW280051  11.315  10.484   2.125 -2.1425 -0.7283  0.4033
22776SOL     OW80052  11.871   9.905   5.301 -0.1130 -0.1558 -0.3273
22776SOL    HW180053  11.927   9.837   5.264 -0.7043 -0.5311 -0.5527
22776SOL    HW280054  11.797   9.911   5.240 -0.9852 -0.6246  0.6498
22777SOL     OW80055   1.653  13.429   8.380  0.1389  0.2309 -0.1515
22777SOL    HW180056   1.562  13.415   8.354  0.3543 -0.7461 -0.4169
22777SOL    HW280057   1.677  13.512   8.339 -0.1963 -0.2108 -1.2730
22778SOL     OW80058   7.237   9.049   6.368  0.0981  0.2240 -0.8525
22778SOL    HW180059   7.279   8.965   6.347  1.0048  0.3212  0.4254
22778SOL    HW280060   7.225   9.092   6.284  1.5785 -0.2804 -1.3464
22779SOL     OW80061   4.262   5.233   4.742 -0.6349 -0.2552 -0.3302
22779SOL    HW180062   4.308   5.157   4.776  1.4182  0.0170 -2.2790
22779SOL    HW280063   4.175   5.200   4.719  0.3184 -2.1405 -1.4849
22780SOL     OW80064   9.698   8.569   2.176  0.6634  0.2322  0.4703
22780SOL    HW180065   9.776   8.623   2.189  1.2980 -0.1970 -1.3378
22780SOL    HW280066   9.665   8.594   2.090 -0.2719 -0.7536  0.5181
22781SOL     OW80067   4.584   6.535  10.676  0.2566 -0.0421 -0.3343
22781SOL    HW180068   4.519   6.590  10.632 -1.7416 -0.5910  1.7552
22781SOL    HW280069   4.626   6.592  10.739 -0.6578 -0.4693  0.6904
22782SOL     OW80070   3.584  11.738  12.605  0.8838 -0.4172 -0.1263
22782SOL    HW180071   3.541  11.686  12.537 -1.9489 -0.0452  1.2121
22782SOL    HW280072   3.616  11.816  12.560 -0.9254 -0.1713 -1.0946
22783SOL     OW80073   5.182  12.048   5.160 -0.2692 -0.6137  0.1705
22783SOL    HW180074   5.202  11.957   5.178 -0.2157 -0.8067 -0.8388
22783SOL    HW280075   5.253  12.097   5.201  0.5647 -1.1173 -0.6262
22784SOL     OW80076   9.832   3.199  10.179  0.0935  0.5838 -0.0674
22784SOL    HW180077   9.883   3.190  10.260 -0.7394  0.1323  0.4128
22784SOL    HW280078   9.863   3.128  10.123  1.0005  1.1738 -0.3349
22785SOL     OW80079  12.609   9.658   2.644  0.0065  0.0238  0.4940
22785SOL    HW180080  12.530   9.670   2.591  0.4739 -1.0333 -0.5043
22785SOL    HW280081  12.582   9.596   2.712 -0.1365 -0.0357  0.3855
22786SOL     OW80082  13.596   4.038   8.825  0.0383  0.2730  0.4412
22786SOL    HW180083  13.620   3.972   8.760  2.5639  0.8384  0.7241
22786SOL    HW280084  13.533   3.993   8.881  0.4808 -1.3822 -0.3228
22787SOL     OW80085  12.977  11.714   2.068  0.4330  1.1349 -0.1117
22787SOL    HW180086  12.925  11.665   2.004  0.2131  2.6807 -1.2000
22787SOL    HW280087  12.985  11.656   2.143  0.7724 -0.8124 -1.5725
22788SOL     OW80088  13.735   7.434   3.376  1.0104  0.3485  0.0829
22788SOL    HW180089  13.787   7.410   3.452  2.0419  1.2287 -0.3095
22788SOL    HW280090  13.794   7.422   3.301 -0.2484 -1.3365 -0.7045
22789SOL     OW80091   7.813  11.060   3.661 -0.0243  0.3751  0.1646
22789SOL    HW180092   7.782  11.021   3.579 -1.2077 -1.2384  1.3308
22789SOL    HW280093   7.906  11.080   3.644 -0.0606 -0.5775 -1.3360
22790SOL     OW80094   4.143   3.570   0.880  0.2491  0.1246  0.0521
22790SOL    HW180095   4.209   3.558   0.948  0.0439 -0.7791  0.1056
22790SOL    HW280096   4.193   3.571   0.798  0.4829  1.0885  0.1920
22791SOL     OW80097   1.801   2.538   2.777 -0.7553 -0.2204 -0.2222
22791SOL    HW180098   1.852   2.505   2.704  0.3330 -0.2888  0.5497
22791SOL    HW280099   1.751   2.611   2.740  1.5930  1.3262 -0.5356
22792SOL     OW80100  11.116   4.068   6.224  0.0108 -0.2594  0.2327
22792SOL    HW180101  11.151   4.154   6.201  0.1097 -0.7492 -1.6194
22792SOL    HW280102  11.021   4.076   6.212 -0.1628  0.0561  1.7293
22793SOL     OW80103  10.950   7.765   9.650 -0.1302  0.2292  0.3475
22793SOL    HW180104  10.987   7.810   9.726 -0.0825  2.5350 -0.9416
22793SOL    HW280105  10.996   7.682   9.647  1.4887  1.0198  1.5460
22794SOL     OW80106   3.120   8.581  12.667 -0.6281  0.1919 -0.6428
22794SOL    HW180107   3.179   8.643  12.709 -0.3419  0.2280 -1.0959
22794SOL    HW280108   3.121   8.605  12.574  0.9533 -1.6144 -1.1777
22795SOL     OW80109   4.693   4.056   8.702  0.5371  0.8323 -0.3370
22795SOL    HW180110   4.611   4.103   8.686  0.0066  0.2898  0.6980
22795SOL    HW280111   4.737   4.055   8.617  0.1291  2.3566 -0.6048
22796SOL     OW80112   8.367  13.652   6.954 -0.4403 -0.1459  0.5769
22796SOL    HW180113   8.301  13.711   6.919  0.7690 -0.3964 -2.4119
22796SOL    HW280114   8.333  13.564   6.937  0.0237 -0.2728  0.2715
22797SOL     OW80115  10.432   4.072   0.599 -0.5254 -0.1907 -0.4272
22797SOL    HW180116  10.351   4.102   0.557 -1.1469 -0.5954  0.4571
22797SOL    HW280117  10.424   4.101   0.690  0.2840 -0.3273 -0.3032
22798SOL     OW80118   4.350   2.706   7.121  0.3078  0.4534  0.2752
22798SOL    HW180119   4.341   2.611   7.128 -0.3179  0.5868  1.4290
22798SOL    HW280120   4.282   2.742   7.178  1.3209  1.5830  0.8330
22799SOL     OW80121  12.102   5.774   5.675  0.8227 -0.0809 -0.5615
22799SOL    HW180122  12.184   5.822   5.691  0.2350  0.7663 -0.0270
22799SOL    HW280123  12.119   5.686   5.707  0.1338  1.1470  3.8453
22800SOL     OW80124   6.830   2.885   5.323 -0.1471  0.0160  0.5990
22800SOL    HW180125   6.900   2.942   5.293 -0.2532 -0.5387 -0.8089
22800SOL    HW280126   6.826   2.898   5.417  0.5955  1.4504  0.4580
22801SOL     OW80127   8.777   1.987   2.577  0.1583 -0.2021 -0.2444
22801SOL    HW180128   8.849   1.934   2.542  0.4841  0.6235 -0.8447
22801SOL    HW280129   8.820   2.047   2.638 -0.4550 -1.9592  2.0584
22802SOL     OW80130   2.937  11.355   6.654  0.2528 -0.5284 -0.1210
22802SOL    HW180131   2.894  11.318   6.731 -0.0121 -0.5361 -0.2729
22802SOL    HW280132   2.960  11.444   6.679  2.3106 -1.2563  0.8146
22803SOL     OW80133   6.020   3.076   5.477 -0.2116 -0.4659 -0.2752
22803SOL    HW180134   6.057   3.035   5.399 -1.6100  0.3307 -1.3869
22803SOL    HW280135   5.974   3.005   5.521 -0.3208 -0.6931 -0.7472
22804SOL     OW80136   1.866   0.854  13.171  0.3903 -0.0535 -0.2260
22804SOL    HW180137   1.835   0.868  13.081 -3.1259  1.0028  0.9960
22804SOL    HW280138   1.906   0.938  13.195 -0.2328  0.2712 -0.2831
22805SOL     OW80139   3.679  10.199  10.995 -0.4166  0.5068  0.8204
22805SOL    HW180140   3.741  10.176  11.065 -1.3872 -2.3371  0.8864
22805SOL    HW280141   3.596  10.213  11.040 -0.5003  1.2052  0.4566
22806SOL     OW80142  13.188  11.237  10.927 -0.1857 -0.2093 -0.3628
22806SOL    HW180143  13.252  11.172  10.897 -1.3358 -1.1691 -0.8474
22806SOL    HW280144  13.240  11.311  10.957  1.1890 -1.3929  0.2877
22807SOL     OW80145   1.858   2.151   6.974  0.6511 -0.3280  0.0769
22807SOL    HW180146   1.860   2.242   7.004 -2.6166 -0.2073  0.2049
22807SOL    HW280147   1.930   2.146   6.911  0.2956  2.6606 -0.7375
22808SOL     OW80148   2.737   5.574   7.416  0.0061  0.0789 -0.5987
22808SOL    HW180149   2.815   5.537   7.455 -1.4245 -1.3928  1.0311
22808SOL    HW280150   2.754   5.669   7.413  2.8047 -0.3729 -2.7060
22809SOL     OW80151   2.610   8.848  13.434  0.0701  0.1376  0.0261
22809SOL    HW180152   2.626   8.764  13.392 -0.6188 -0.2008  0.4113
22809SOL    HW280153   2.655   8.842  13.518  1.1747  0.6889 -0.5145
22810SOL     OW80154  11.009   2.326   5.656 -0.9014  0.2006 -0.0071
22810SOL    HW180155  11.078   2.334   5.722 -1.2354  1.6880  0.1971
22810SOL    HW280156  11.055   2.326   5.572 -0.4661 -1.8107  0.1789
22811SOL     OW80157  13.077   3.109  10.322  0.6254 -0.2647 -0.2472
22811SOL    HW180158  13.166   3.078  10.336  0.6113 -0.1687  0.0479
22811SOL    HW280159  13.031   3.090  10.403  0.1807 -0.9827 -0.6523
22812SOL     OW80160   4.235  11.503   4.468 -0.0120  0.7450  0.4059
22812SOL    HW180161   4.296  11.517   4.396 -2.5904  1.7486 -1.7540
22812SOL    HW280162   4.260  11.567   4.535  0.9258  1.5168 -0.6608
22813SOL     OW80163   5.895  13.387  13.185 -0.6086  0.3699  0.0591
22813SOL    HW180164   5.836  13.456  13.155 -1.2048  0.9233  2.3027
22813SOL    HW280165   5.902  13.327  13.111 -0.0191  2.8043 -2.0181
22814SOL     OW80166   8.655   2.545   7.160  0.4034 -0.4195  0.1520
22814SOL    HW180167   8.615   2.591   7.233  0.1463  0.8741 -0.7630
22814SOL    HW280168   8.743   2.583   7.152  0.3579 -0.4052 -0.3281
22815SOL     OW80169   9.639  11.313  12.944  0.1295 -0.1753 -0.3601
22815SOL    HW180170   9.719  11.334  12.993  0.2110 -0.2766 -0.4508
22815SOL    HW280171   9.633  11.380  12.876  0.4562 -0.5146 -0.7267
22816SOL     OW80172   4.097   3.327  13.092 -0.0944  0.0044 -0.1396
22816SOL    HW180173   4.003   3.313  13.106 -0.3042  1.9245  0.8400
22816SOL    HW280174   4.127   3.367  13.174  1.8888 -1.7343  0.0730
22817SOL     OW80175  13.334   1.797   4.004 -0.3976 -0.1501  0.2009
22817SOL    HW180176  13.388   1.825   4.077 -0.8671 -2.6606  1.6052
22817SOL    HW280177  13.256   1.853   4.009  0.6261  1.3455  0.0754
22818SOL     OW80178   3.777  11.646   8.155  0.1758 -0.1008 -0.2038
22818SOL    HW180179   3.689  11.627   8.122  0.5064 -2.7753  0.2340
22818SOL    HW280180   3.832  11.577   8.118  1.9805  1.1331  0.0735
22819SOL     OW80181   3.363   5.726   0.750 -0.2339  0.0583  0.5531
22819SOL    HW180182   3.412   5.807   0.735 -0.4514  0.1891  0.5442
22819SOL    HW280183   3.296   5.750   0.814 -0.2620 -0.1288  0.5951
22820SOL     OW80184   5.802   0.677  11.509  0.0113  0.2809 -0.9164
22820SOL    HW180185   5.872   0.616  11.532  2.3388  1.3454 -4.4073
22820SOL    HW280186   5.728   0.621  11.487  0.2342 -0.9461  1.1666
22821SOL     OW80187   2.001   2.315   5.768 -0.4018  0.4266 -0.0775
22821SOL    HW180188   2.018   2.371   5.692 -0.1538  0.9201  0.3446
22821SOL    HW280189   1.906   2.304   5.768 -0.7511  2.7732  1.1732
22822SOL     OW80190   0.225   4.549  11.980  0.6819 -0.4406 -0.0181
22822SOL    HW180191   0.305   4.591  12.012 -0.3018 -0.0115  1.9705
22822SOL    HW280192   0.205   4.597  11.899  2.4932 -0.6686 -0.6656
22823SOL     OW80193   6.494   9.043   1.661 -0.1010 -0.2657 -0.1207
22823SOL    HW180194   6.435   9.117   1.681 -0.5290 -0.9477  1.2758
22823SOL    HW280195   6.458   9.005   1.581 -1.0507 -0.1226  0.2193
22824SOL     OW80196   7.763  11.311  12.213 -0.5806  0.0800  0.2980
22824SOL    HW180197   7.756  11.243  12.280  1.1786 -0.1642  0.2701
22824SOL    HW280198   7.719  11.273  12.136 -1.4803 -0.1479  0.9047
22825SOL     OW80199  13.605   9.431   2.984  0.6354  0.1882 -0.6473
22825SOL    HW180200  13.695   9.400   2.993  0.8872  0.5803 -1.5830
22825SOL    HW280201  13.603   9.472   2.897  0.0108  1.6838  0.0301
22826SOL     OW80202   3.942   6.239  11.636 -0.2019  0.3383  0.4855
22826SOL    HW180203   4.036   6.222  11.629  0.4668  3.6068 -0.3012
22826SOL    HW280204   3.922   6.228  11.729  0.7834 -1.0208  0.5545
22827SOL     OW80205  12.749   3.996   7.442 -0.2750  0.0183 -0.4351
22827SOL    HW180206  12.671   3.951   7.477  0.8595 -0.5481  1.5193
22827SOL    HW280207  12.823   3.950   7.483  1.0396  1.5714 -0.9928
22828SOL     OW80208   8.237   9.261   2.755  0.1673 -0.4696  0.4313
22828SOL    HW180209   8.213   9.168   2.752 -1.5747 -0.0253 -0.8890
22828SOL    HW280210   8.181   9.302   2.690  1.8102  1.3352  0.0646
22829SOL     OW80211   3.219  10.585   9.550  0.5453  0.0058  1.0133
22829SOL    HW180212   3.251  10.589   9.640  1.3210 -0.9751  0.7950
22829SOL    HW280213   3.170  10.503   9.545  0.5059  0.0549  0.5391
22830SOL     OW80214   8.804   1.897  10.219 -0.2476  0.1255  0.2384
22830SOL    HW180215   8.880   1.877  10.274  0.3974 -0.6525 -0.8969
22830SOL    HW280216   8.835   1.965  10.159 -0.9327  0.9367  0.7887
22831SOL     OW80217   2.872   5.719   0.898 -0.3290  0.9849 -0.0194
22831SOL    HW180218   2.913   5.800   0.869  0.6749  0.2592 -0.7403
22831SOL    HW280219   2.867   5.665   0.819 -1.4848  0.5538  0.3336
22832SOL     OW80220   9.262  11.600  10.990 -1.0008 -0.0895  0.0431
22832SOL    HW180221   9.247  11.527  10.931 -0.7206 -0.7094  0.7304
22832SOL    HW280222   9.307  11.665  10.936 -0.4636 -0.7752 -0.3471
22833SOL     OW80223   1.586   8.957  11.098  0.6720 -0.2190 -0.2810
22833SOL    HW180224   1.636   8.887  11.056  0.5677 -0.1405 -0.5366
22833SOL    HW280225   1.497   8.922  11.106  0.3592  0.2811 -1.3899
22834SOL     OW80226  12.196   9.561   1.203  0.5768 -0.0970 -0.3278
22834SOL    HW180227  12.131   9.548   1.134  0.8886 -2.5761 -0.2315
22834SOL    HW280228  12.222   9.653   1.194 -1.0739  0.2679 -1.9830
22835SOL     OW80229   0.004   8.591   7.040  0.0997 -0.2604 -0.3778
22835SOL    HW180230   0.074   8.656   7.053  1.3405 -1.8091  1.4403
22835SOL    HW280231  -0.045   8.593   7.123 -1.1934 -0.1482 -1.1299
22836SOL     OW80232  11.871   6.588   4.039 -0.1359  0.0919  0.4401
22836SOL    HW180233  11.854   6.625   4.125 -0.9542  0.5583  0.0934
22836SOL    HW280234  11.966   6.581   4.034 -0.0839  0.0312  1.3888
22837SOL     OW80235   5.478  11.039  12.541 -0.5001 -0.0772  0.2494
22837SOL    HW180236   5.417  11.107  12.512  0.3245  0.9629  0.8945
22837SOL    HW280237   5.428  10.988  12.605 -1.5711 -0.9540 -1.2289
22838SOL     OW80238   2.597   4.878   0.784 -0.4416  0.0763 -0.8953
22838SOL    HW180239   2.688   4.905   0.794 -1.0326  1.5510  1.0377
22838SOL    HW280240   2.582   4.816   0.855 -1.6979  2.1389  0.7612
22839SOL     OW80241  13.468   9.296  12.864  0.0439 -0.0891 -0.3244
22839SOL    HW180242  13.457   9.277  12.958  0.7055  0.0270 -0.2176
22839SOL    HW280243  13.454   9.212  12.821  1.0237 -0.4235 -0.0110
22840SOL     OW80244   1.526   4.009  10.734 -0.2451 -0.0887  0.0324
22840SOL    HW180245   1.545   4.011  10.828 -0.8022 -0.8638  0.1722
22840SOL    HW280246   1.444   4.059  10.726  0.5666  1.2531 -0.2578
22841SOL     OW80247   1.244  13.744   4.127  0.4101 -0.1457  0.0089
22841SOL    HW180248   1.216  13.658   4.096 -0.4452  0.8672 -2.2427
22841SOL    HW280249   1.162  13.791   4.144  0.8671 -0.0588  2.2316
22842SOL     OW80250   9.541  11.864  11.052  0.0398  0.1179 -0.0052
22842SOL    HW180251   9.548  11.841  11.145  0.6475  0.4882  0.0463
22842SOL    HW280252   9.576  11.788  11.006  0.3831  0.2099  0.0988
22843SOL     OW80253  12.295   4.365   1.740  0.0399 -0.3182 -0.0271
22843SOL    HW180254  12.333   4.329   1.660  0.7637  2.0288 -0.8126
22843SOL    HW280255  12.365   4.418   1.778 -1.6214  2.2193 -0.2644
22844SOL     OW80256  11.245   6.473   3.722 -0.4436  0.2783 -0.1242
22844SOL    HW180257  11.190   6.552   3.721 -0.8957 -0.0338 -1.0880
22844SOL    HW280258  11.280   6.467   3.633 -0.7292 -0.8303 -0.1714
22845SOL     OW80259   0.821  10.343  12.534  0.5831 -0.0467 -0.1062
22845SOL    HW180260   0.831  10.309  12.623 -3.1869 -1.0223  0.0995
22845SOL    HW280261   0.834  10.438  12.544 -3.6898  0.5158  2.4842
22846SOL     OW80262   7.710  11.914   1.166  0.3406  0.2393  0.5184
22846SOL    HW180263   7.782  11.873   1.117  1.3097  1.4379  0.8915
22846SOL    HW280264   7.701  11.861   1.245  1.1778  0.3810  0.7178
22847SOL     OW80265   9.416   3.692  11.987  0.6912 -0.3138  0.1883
22847SOL    HW180266   9.486   3.631  12.009  0.7245  0.0638  1.1633
22847SOL    HW280267   9.343   3.668  12.044  0.9279  0.9560  1.0805
22848SOL     OW80268  10.279   1.300   2.492 -0.1684  0.4150  0.2227
22848SOL    HW180269  10.326   1.337   2.417 -0.9681 -0.9655 -1.0333
22848SOL    HW280270  10.289   1.365   2.562  1.8610  1.0760 -0.6033
22849SOL     OW80271  13.315   0.441   1.024  0.1057 -0.5953  0.4418
22849SOL    HW180272  13.364   0.510   1.069 -0.1399 -0.0203 -0.1503
22849SOL    HW280273  13.328   0.460   0.931 -2.5140  0.5452  0.2076
22850SOL     OW80274   0.870   7.073  12.061 -0.0386  0.3259  0.0462
22850SOL    HW180275   0.836   7.154  12.025  0.5795  0.5710 -0.0017
22850SOL    HW280276   0.917   7.031  11.989  0.1297  0.2053  0.2219
22851SOL     OW80277   9.334   8.124   0.168  0.2109 -0.2476 -0.0737
22851SOL    HW180278   9.356   8.129   0.075 -1.1319 -2.7817 -0.6117
22851SOL    HW280279   9.303   8.213   0.190 -0.1428  0.2195 -2.2306
22852SOL     OW80280   5.957   3.048   9.414  0.1223 -0.2840  0.0727
22852SOL    HW180281   5.901   3.115   9.452 -1.1644 -1.4849  0.3880
22852SOL    HW280282   5.999   3.006   9.489  0.5058 -0.1980 -0.0898
22853SOL     OW80283   7.752   6.054  10.307  0.0518  0.3730  0.0158
22853SOL    HW180284   7.802   6.045  10.226  0.4458  0.4973  0.2411
22853SOL    HW280285   7.797   5.998  10.369 -0.4432  0.0265  0.0633
22854SOL     OW80286  12.538  10.371   8.646 -0.0679 -0.4028  0.1849
22854SOL    HW180287  12.576  10.445   8.598 -0.7707 -1.0080 -1.3818
22854SOL    HW280288  12.469  10.410   8.700  0.7173  0.2928  0.7108
22855SOL     OW80289   0.700  12.777   4.135  0.3374  0.1715 -0.1125
22855SOL    HW180290   0.734  12.779   4.225 -1.5507  0.4522  0.6469
22855SOL    HW280291   0.652  12.859   4.127  1.9106  0.9845 -2.0271
22856SOL     OW80292  11.163   7.141   6.124 -0.2281 -0.5138 -0.0714
22856SOL    HW180293  11.222   7.161   6.051 -0.9499  0.1907 -0.4756
22856SOL    HW280294  11.086   7.102   6.083  0.0231 -1.6490  0.4790
22857SOL     OW80295   3.445   0.389  13.206 -0.3130  0.3110  0.2323
22857SOL    HW180296   3.413   0.442  13.279 -1.3786  1.3166 -0.9114
22857SOL    HW280297   3.479   0.453  13.144  0.2684 -0.5006 -0.2997
22858SOL     OW80298  12.236   7.027  12.492  0.6303  0.0034 -0.2458
22858SOL    HW180299  12.218   6.944  12.534  0.4912  0.0786 -0.1547
22858SOL    HW280300  12.150   7.069  12.484  0.3469 -0.8456 -2.3804
22859SOL     OW80301  12.833   1.318   2.134  0.1162 -0.0786 -0.4233
22859SOL    HW180302  12.860   1.410   2.125 -1.3113  0.5136  0.9906
22859SOL    HW280303  12.815   1.290   2.044  1.7564  0.6207 -1.0129
22860SOL     OW80304  10.701  11.033   3.878 -0.6964  0.1608  0.1625
22860SOL    HW180305  10.662  11.096   3.817 -0.6685 -0.2271 -0.2615
22860SOL    HW280306  10.668  11.059   3.964 -0.8956  0.5933 -0.0417
22861SOL     OW80307   5.318   0.655   0.227  0.1979 -0.1661 -0.3423
22861SOL    HW180308   5.331   0.565   0.257 -0.0515  0.6298  2.3956
22861SOL    HW280309   5.223   0.665   0.222  0.2003  0.1540  0.1486
22862SOL     OW80310  10.787   7.022   1.429 -0.4065 -0.4726 -0.3352
22862SOL    HW180311  10.699   6.986   1.428 -0.9419  0.8013 -0.8955
22862SOL    HW280312  10.828   6.984   1.506 -1.4911 -0.9622  0.0084
22863SOL     OW80313  10.230  11.762   7.771  0.3399 -0.1149  0.1202
22863SOL    HW180314  10.325  11.753   7.780  0.5536  1.3854 -0.3656
22863SOL    HW280315  10.204  11.689   7.715  1.4949  0.5040 -1.2662
22864SOL     OW80316   8.211   9.560   2.349  0.5119 -0.4733  0.0712
22864SOL    HW180317   8.261   9.598   2.421 -2.4142  3.8929  0.2452
22864SOL    HW280318   8.163   9.488   2.389  0.8471  0.2420  1.8794
22865SOL     OW80319   3.204   6.598   9.085 -0.3514 -0.3724 -0.2037
22865SOL    HW180320   3.295   6.584   9.110 -0.6539  0.6388  1.6118
22865SOL    HW280321   3.153   6.551   9.151 -1.1897  2.3630  1.2327
22866SOL     OW80322  12.407   2.058   5.248 -0.1175  0.0212  0.4630
22866SOL    HW180323  12.493   2.060   5.206 -0.1728 -1.6145  0.2165
22866SOL    HW280324  12.346   2.038   5.177 -0.6887  0.9436  0.6767
22867SOL     OW80325   3.052   8.545  13.522 -0.4934  0.0376  0.0345
22867SOL    HW180326   3.005   8.479  13.573 -0.3288 -0.2877 -0.2336
22867SOL    HW280327   3.090   8.497  13.449  1.0562  0.1300  0.7507
22868SOL     OW80328   7.658   6.880   8.276  0.2614 -0.0574 -0.2292
22868SOL    HW180329   7.702   6.959   8.309  0.8843 -0.4334 -0.1476
22868SOL    HW280330   7.726   6.812   8.277  0.3598 -0.0687 -2.4196
22869SOL     OW80331  10.007   8.965   4.544  0.4238  0.2917  0.0088
22869SOL    HW180332   9.934   8.997   4.598 -0.1887  0.2283 -0.7678
22869SOL    HW280333  10.084   9.012   4.578 -0.2277  1.5158 -0.1647
22870SOL     OW80334  12.908  10.805  11.335  0.7152 -0.3682  0.1896
22870SOL    HW180335  12.914  10.729  11.277 -0.7158  1.1526 -2.0947
22870SOL    HW280336  12.994  10.847  11.328  1.6671 -1.8896  1.7956
22871SOL     OW80337   7.518   3.597   9.658 -0.7668  0.0340  0.3639
22871SOL    HW180338   7.515   3.509   9.695 -3.7138  0.2635  0.9003
22871SOL    HW280339   7.481   3.654   9.725  0.1843  1.5775 -0.3420
22872SOL     OW80340  12.481   9.430  10.822 -0.0436  0.3503  0.3659
22872SOL    HW180341  12.446   9.429  10.732  0.1358 -0.6402  0.2971
22872SOL    HW280342  12.571   9.463  10.812 -0.2360  0.8648  0.2744
22873SOL     OW80343  11.869   8.554   1.511 -0.0367 -0.1668 -0.3388
22873SOL    HW180344  11.827   8.512   1.587  0.3348 -0.4710 -0.3008
22873SOL    HW280345  11.901   8.637   1.545 -0.4628 -0.0084 -0.3258
22874SOL     OW80346   8.979   6.162   6.986  0.2083  0.0798 -0.1763
22874SOL    HW180347   8.953   6.078   6.949 -0.2306 -0.9722  2.3159
22874SOL    HW280348   9.073   6.153   7.003  0.2348  0.2258 -0.2407
22875SOL     OW80349  12.734   7.576   1.387  0.9618  0.2757 -0.4409
22875SOL    HW180350  12.685   7.585   1.306  0.1840  0.9545  0.0895
22875SOL    HW280351  12.714   7.487   1.418  0.6353  0.3002 -0.5839
22876SOL     OW80352   4.957   7.958  13.140  0.3555 -0.3774 -0.1758
22876SOL    HW180353   4.966   7.919  13.053  0.0174  1.4886 -1.0936
22876SOL    HW280354   4.864   7.950  13.160  0.3822 -0.5337 -0.1104
22877SOL     OW80355   9.425   6.559   1.657 -0.3620  0.8277 -0.4183
22877SOL    HW180356   9.515   6.565   1.623 -1.0227  1.5450 -2.1898
22877SOL    HW280357   9.404   6.466   1.654  0.5551  0.5590  0.7374
22878SOL     OW80358  11.297   7.105   0.002  0.3521 -0.3795  0.0491
22878SOL    HW180359  11.340   7.117   0.087  1.7566 -2.9835 -0.1835
22878SOL    HW280360  11.253   7.020   0.009  0.9079 -0.8791 -1.9598
22879SOL     OW80361   1.045  12.919  13.076  0.5769  0.0443 -0.0281
22879SOL    HW180362   0.969  12.941  13.129 -0.0166 -0.3691 -0.6930
22879SOL    HW280363   1.119  12.926  13.136  0.2701  2.3766  0.1733
22880SOL     OW80364  10.296   9.018  12.215  0.6241 -0.3055  0.0304
22880SOL    HW180365  10.373   8.980  12.173  1.5277  0.0147  1.3289
22880SOL    HW280366  10.305   9.112  12.201 -0.2310 -0.3473 -0.9182
22881SOL     OW80367   9.585   7.605  10.550 -0.1307 -0.4098 -0.4849
22881SOL    HW180368   9.613   7.659  10.476  2.4708  0.5152  1.0400
22881SOL    HW280369   9.603   7.515  10.522  2.2024  0.0166 -0.5250
22882SOL     OW80370   7.670   5.293   9.068  0.2330 -0.1019  0.3518
22882SOL    HW180371   7.720   5.323   8.991 -1.1035  1.2785 -0.0194
22882SOL    HW280372   7.591   5.254   9.030 -0.2386  0.2149  0.9975
22883SOL     OW80373   5.729   5.155   0.605  0.3139  0.4995  0.1469
22883SOL    HW180374   5.666   5.219   0.637 -1.4102 -1.7312  1.5242
22883SOL    HW280375   5.809   5.174   0.656 -0.3473  1.1508  0.9753
22884SOL     OW80376   8.892   0.906   5.434 -0.0466  0.6055 -0.0438
22884SOL    HW180377   8.953   0.850   5.385 -0.7204  0.1778 -0.4069
22884SOL    HW280378   8.897   0.874   5.524  0.4602  0.7530 -0.0124
22885SOL     OW80379  13.158   6.753  10.223  0.3327 -0.7136 -0.0933
22885SOL    HW180380  13.216   6.695  10.173  2.4413  0.3250  1.0158
22885SOL    HW280381  13.118   6.810  10.156  0.8480 -1.2358 -0.8615
22886SOL     OW80382   9.129   8.104  10.306  0.6868 -0.2170  0.1733
22886SOL    HW180383   9.151   8.147  10.389  0.9270 -0.8134  0.4263
22886SOL    HW280384   9.051   8.149  10.275  0.6674  0.0925  0.6673
22887SOL     OW80385   9.307   6.159  12.807  0.0335  0.3442 -0.1174
22887SOL    HW180386   9.312   6.215  12.885 -1.2616 -0.5342  0.6490
22887SOL    HW280387   9.251   6.086  12.835  0.5760 -0.6272 -1.5032
22888SOL     OW80388  12.105   1.858   1.970 -0.5689 -0.0670 -0.0043
22888SOL    HW180389  12.105   1.775   2.018 -1.1302 -0.0854 -0.0307
22888SOL    HW280390  12.140   1.922   2.032 -0.2644 -0.2928  0.0628
22889SOL     OW80391   2.168   3.677   6.332  0.2972 -0.3374 -0.8783
22889SOL    HW180392   2.127   3.594   6.355  0.6674 -0.3176 -0.1061
22889SOL    HW280393   2.155   3.732   6.409 -0.2431  0.4404 -1.5156
22890SOL     OW80394   8.325  12.385   4.472  0.2504  0.7437  0.1528
22890SOL    HW180395   8.260  12.359   4.537  1.3850 -1.1830  0.5913
22890SOL    HW280396   8.273  12.418   4.398 -1.1173  1.1415  1.2499
22891SOL     OW80397  10.301  11.617  13.499 -0.5410  0.5146  1.0127
22891SOL    HW180398  10.353  11.577  13.428 -1.8069 -0.7863  0.7824
22891SOL    HW280399  10.222  11.564  13.503 -1.1112  1.4401  2.4927
22892SOL     OW80400  13.108  13.185  11.654 -0.5508  0.7537 -0.3369
22892SOL    HW180401  13.045  13.256  11.670  0.1319  1.3508 -0.2422
22892SOL    HW280402  13.164  13.186  11.731  1.6743  2.4829 -1.8520
22893SOL     OW80403  11.964   0.525   1.608  0.1763  0.1119 -0.1994
22893SOL    HW180404  11.967   0.621   1.603 -1.0665  0.2170  0.6144
22893SOL    HW280405  11.941   0.507   1.699 -1.2783 -0.8966 -0.7239
22894SOL     OW80406   7.248   0.785   3.594 -0.2104  0.2601  0.2469
22894SOL    HW180407   7.287   0.726   3.529  0.0938  1.0943 -0.3446
22894SOL    HW280408   7.160   0.801   3.560  0.6004  2.2684 -1.0592
22895SOL     OW80409   3.142   1.171   1.996  0.1177  0.2775 -0.1325
22895SOL    HW180410   3.071   1.235   2.004 -1.3200 -1.3981  1.4942
22895SOL    HW280411   3.158   1.165   1.902 -1.5479  1.0899 -0.5187
22896SOL     OW80412   5.030   9.689  10.044  0.1369  0.2613  0.6166
22896SOL    HW180413   4.948   9.685  10.093  0.0161 -1.6324  0.3446
22896SOL    HW280414   5.004   9.698   9.953  0.3302  2.2943  0.7197
22897SOL     OW80415  13.729   4.045  11.885  0.2685  0.1508 -0.3625
22897SOL    HW180416  13.739   4.014  11.975 -1.3649  2.3120  0.6899
22897SOL    HW280417  13.768   4.133  11.886 -0.0052  0.3099 -1.7074
22898SOL     OW80418   6.269   1.112   2.243 -0.1038  0.2931  0.3771
22898SOL    HW180419   6.269   1.145   2.332 -1.4981 -0.2458  0.5996
22898SOL    HW280420   6.182   1.133   2.209  0.3599  0.3789 -0.8165
22899SOL     OW80421   5.430  10.539   3.077 -0.8015 -0.1779 -0.4644
22899SOL    HW180422   5.411  10.613   3.135 -0.1260 -1.6018  1.6751
22899SOL    HW280423   5.482  10.577   3.006 -0.4186  1.3921  0.6028
22900SOL     OW80424   3.850   6.756   4.340  0.0804  0.0703 -0.0930
22900SOL    HW180425   3.759   6.782   4.331 -0.0475  0.2002  1.3674
22900SOL    HW280426   3.864   6.693   4.269 -1.0230  0.3463 -0.5730
22901SOL     OW80427  10.451   1.884   9.038 -0.1344  0.2509  0.3944
22901SOL    HW180428  10.360   1.912   9.034 -0.8894 -1.9677  0.8380
22901SOL    HW280429  10.479   1.879   8.946 -1.2609 -1.3529  0.0904
22902SOL     OW80430  10.129  10.837   0.827 -0.2932 -0.6706  0.0602
22902SOL    HW180431  10.089  10.906   0.880 -1.1370  0.5677 -2.0244
22902SOL    HW280432  10.223  10.849   0.839 -0.3774  1.4538 -0.8525
22903SOL     OW80433   6.729   0.503   3.149  0.2359  0.6271 -0.3021
22903SOL    HW180434   6.672   0.571   3.112  1.6470  1.3696 -1.1790
22903SOL    HW280435   6.680   0.471   3.225 -1.1186  1.5900 -0.7180
22904SOL     OW80436  13.634   2.200  10.679 -0.2531  0.8567 -0.0612
22904SOL    HW180437  13.706   2.200  10.615 -0.1028  1.5753  0.1049
22904SOL    HW280438  13.671   2.156  10.756 -0.9422 -1.5537 -0.9920
22905SOL     OW80439   9.573   4.063  11.829 -0.2168 -0.0319 -0.3936
22905SOL    HW180440   9.665   4.087  11.835  0.3383 -2.1922  0.4813
22905SOL    HW280441   9.570   3.995  11.762 -0.7306 -1.7604  1.3048
22906SOL     OW80442   5.068  11.439   0.363 -0.2469  0.2130  0.1518
22906SOL    HW180443   4.974  11.431   0.382 -0.6404  0.8620 -1.4081
22906SOL    HW280444   5.078  11.528   0.328  0.2385 -1.1290 -3.4470
22907SOL     OW80445   2.444   6.761   3.548  0.1962  0.2298 -0.0517
22907SOL    HW180446   2.394   6.757   3.630  1.8279 -0.8223  0.9389
22907SOL    HW280447   2.379   6.785   3.482 -0.8931  2.6109  1.7412
22908SOL     OW80448   8.526   5.141   3.885 -0.1152  0.1527 -0.1541
22908SOL    HW180449   8.581   5.069   3.855 -0.8229 -0.8405  0.8487
22908SOL    HW280450   8.454   5.145   3.822  0.0411  0.1252 -0.3341
22909SOL     OW80451   4.899   4.498   8.526  0.2697  0.1509  0.0600
22909SOL    HW180452   4.893   4.431   8.594 -1.0965  0.9843  0.8014
22909SOL    HW280453   4.843   4.465   8.456  0.4386  0.0299 -0.0200
22910SOL     OW80454   9.486   0.566  10.136 -0.1577  0.1370  0.1886
22910SOL    HW180455   9.419   0.627  10.167 -0.5662 -0.2573  0.1018
22910SOL    HW280456   9.447   0.480  10.149  0.1511 -0.0781 -0.2855
22911SOL     OW80457  13.195   7.640   2.970  0.9687  0.1958 -0.1539
22911SOL    HW180458  13.237   7.691   2.900  0.5316 -0.6200 -1.0320
22911SOL    HW280459  13.267   7.604   3.020  1.2935  1.6774  0.5051
22912SOL     OW80460   4.597  10.298   4.836 -0.3316  0.1350 -0.5485
22912SOL    HW180461   4.588  10.226   4.773 -0.1455  0.6607 -1.1895
22912SOL    HW280462   4.678  10.342   4.810 -0.8002  0.9907 -0.6019
22913SOL     OW80463   6.679  11.133   7.697  0.6669 -0.0503 -0.7248
22913SOL    HW180464   6.723  11.055   7.732 -0.5723 -0.7179 -0.5701
22913SOL    HW280465   6.586  11.111   7.701  0.3204  1.2452 -1.1859
22914SOL     OW80466   4.288   5.052  12.094 -0.0052 -0.4987 -0.3357
22914SOL    HW180467   4.236   5.132  12.100 -1.6584 -1.4220 -1.4126
22914SOL    HW280468   4.361   5.074  12.037 -0.7059  0.1398 -1.0132
22915SOL     OW80469  10.341   6.838   1.982 -0.6744  0.1193  0.5732
22915SOL    HW180470  10.424   6.809   2.020  0.0695  1.1951 -0.1632
22915SOL    HW280471  10.339   6.797   1.896  0.1186  1.7191 -0.2476
22916SOL     OW80472   8.128   9.274  11.775 -0.4450 -0.1662 -0.1797
22916SOL    HW180473   8.078   9.194  11.794 -0.2179 -0.5532 -1.1427
22916SOL    HW280474   8.063   9.335  11.739 -0.1945 -0.8222 -1.8517
22917SOL     OW80475   6.643   4.852   7.476  0.2848  0.7049 -0.1152
22917SOL    HW180476   6.554   4.887   7.480  1.0427  2.6498  1.7673
22917SOL    HW280477   6.690   4.914   7.420  0.6751  0.2262 -0.3214
22918SOL     OW80478   8.632   2.120   9.511 -0.1757  0.2727  0.2624
22918SOL    HW180479   8.659   2.211   9.523 -1.0483  1.0655 -2.7161
22918SOL    HW280480   8.622   2.111   9.416 -0.9011 -2.7195  0.5249
22919SOL     OW80481  10.756  10.667   1.646 -0.5233  0.3189  0.7073
22919SOL    HW180482  10.715  10.669   1.559 -0.0769 -0.8869  0.4617
22919SOL    HW280483  10.837  10.619   1.633  1.8608  3.9244  0.8565
22920SOL     OW80484   5.146   8.151   4.842  0.2234 -0.1704  0.2050
22920SOL    HW180485   5.151   8.183   4.932  0.6906  1.6656 -0.4449
22920SOL    HW280486   5.057   8.114   4.836 -0.3680  1.0497  0.9892
22921SOL     OW80487   0.910   5.126   0.648 -0.3025 -0.0575 -0.1572
22921SOL    HW180488   0.826   5.133   0.603 -0.0761 -0.0231 -0.5804
22921SOL    HW280489   0.910   5.199   0.710 -1.9828 -1.9216  2.2407
22922SOL     OW80490  11.034  11.348   4.718  0.1271  0.0383 -0.0894
22922SOL    HW180491  10.949  11.333   4.759  0.9687  0.3356  1.9076
22922SOL    HW280492  11.025  11.312   4.630 -2.3765  1.0111 -0.3171
22923SOL     OW80493  11.548  12.095  11.126 -0.1408 -0.0888 -0.0694
22923SOL    HW180494  11.627  12.149  11.130  0.5440 -0.9533 -1.1745
22923SOL    HW280495  11.576  12.009  11.154 -0.8392 -0.2724  0.0916
22924SOL     OW80496   8.463   9.139  12.915  0.1618  0.4109 -0.0036
22924SOL    HW180497   8.528   9.077  12.882  1.4406  2.4404 -1.5246
22924SOL    HW280498   8.413   9.164  12.837 -0.8572  0.7048  0.7323
22925SOL     OW80499   2.058   8.295   8.824  0.1065  0.2309 -0.0389
22925SOL    HW180500   2.138   8.260   8.863  0.6920  0.2019 -1.2326
22925SOL    HW280501   2.003   8.318   8.899  1.6237  1.1901  0.8106
22926SOL     OW80502  10.391   6.098   9.904 -0.0219  0.2427 -0.2898
22926SOL    HW180503  10.315   6.155   9.893 -1.3276 -1.6867 -1.9192
22926SOL    HW280504  10.461   6.141   9.854  0.0347  2.0184  1.2003
22927SOL     OW80505   2.437   4.762   0.589  0.1758  0.2555  0.3436
22927SOL    HW180506   2.352   4.806   0.600 -0.4368 -0.3916 -1.4546
22927SOL    HW280507   2.488   4.791   0.665 -1.9672 -0.1125  2.0504
22928SOL     OW80508   3.110   6.310   1.836 -0.2535  0.0850 -0.0213
22928SOL    HW180509   3.173   6.382   1.844  0.5512 -0.5243 -0.6885
22928SOL    HW280510   3.084   6.310   1.744 -1.0750  0.1897  0.2015
22929SOL     OW80511  11.449   6.678   9.906  0.2096  0.8221  0.0728
22929SOL    HW180512  11.489   6.696   9.991  0.1734  2.0924 -0.1669
22929SOL    HW280513  11.456   6.760   9.858  0.6361  0.0048 -1.3358
22930SOL     OW80514   7.085  10.391   8.466  0.5821  0.3467 -0.0859
22930SOL    HW180515   7.063  10.454   8.535  0.1919  1.0686 -0.8486
22930SOL    HW280516   7.034  10.313   8.487  1.4279  0.0935  1.1376
22931SOL     OW80517   6.951   7.097  11.590 -0.3042  0.0129 -0.4201
22931SOL    HW180518   6.869   7.136  11.560  0.2383  0.6442 -1.1217
22931SOL    HW280519   6.949   7.008  11.553 -0.4366  0.2004 -0.8801
22932SOL     OW80520   6.993   7.513   8.574  0.0003 -0.4323  0.1975
22932SOL    HW180521   6.950   7.541   8.655 -1.0450 -1.7351  0.1387
22932SOL    HW280522   7.067   7.461   8.602 -0.4970 -1.0776  0.3384
22933SOL     OW80523   7.167  10.747   1.627  0.1295 -0.0895 -0.5832
22933SOL    HW180524   7.197  10.724   1.540  3.6441  0.2942  0.3963
22933SOL    HW280525   7.152  10.841   1.623  0.9293  0.0418 -0.6288
22934SOL     OW80526   4.635  13.623   7.659  0.0555 -0.2612  0.4086
22934SOL    HW180527   4.605  13.655   7.744 -2.8348 -0.8514 -0.2648
22934SOL    HW280528   4.609  13.692   7.597  2.2710  0.2413 -0.0299
22935SOL     OW80529   4.560  10.725  12.130 -0.1671 -0.1392  0.0236
22935SOL    HW180530   4.610  10.779  12.070  1.0694 -1.5660 -0.2972
22935SOL    HW280531   4.613  10.722  12.210 -0.5042 -0.4039  0.2434
22936SOL     OW80532  10.072   4.365   5.395  0.0248 -0.0629  0.5349
22936SOL    HW180533  10.055   4.273   5.413 -0.8040  0.4059  2.3899
22936SOL    HW280534  10.095   4.402   5.481 -1.5232  1.8314  0.1903
22937SOL     OW80535  12.401   9.675   5.941 -0.2108  0.0359 -0.1900
22937SOL    HW180536  12.472   9.668   6.005 -0.6465 -2.9124  0.0997
22937SOL    HW280537  12.444   9.709   5.862  1.0913  0.2130  0.5557
22938SOL     OW80538   6.296  11.410  12.536 -0.2580  0.2145  0.2129
22938SOL    HW180539   6.259  11.488  12.578  1.4027  0.5804  1.1080
22938SOL    HW280540   6.221  11.365  12.498 -1.5547  1.0514  1.6682
22939SOL     OW80541   0.385   3.304   0.872 -0.0421 -0.4571 -0.0357
22939SOL    HW180542   0.346   3.254   0.943 -1.5035  0.1405 -0.3791
22939SOL    HW280543   0.465   3.256   0.849  0.3846 -0.7352  1.8824
22940SOL     OW80544   7.329  10.206  11.279  0.1547 -0.0142 -0.2160
22940SOL    HW180545   7.396  10.272  11.295 -0.6194  1.3012 -2.1098
22940SOL    HW280546   7.368  10.147  11.213  0.2341 -0.5363  0.2849
22941SOL     OW80547   8.680  11.285   3.279  0.0638  0.3390  0.4845
22941SOL    HW180548   8.743  11.320   3.342  0.5597 -1.5849  1.1516
22941SOL    HW280549   8.606  11.256   3.333  0.6876 -1.7438  0.3115
22942SOL     OW80550   8.488   4.336  11.008  0.1142 -0.1004 -0.0462
22942SOL    HW180551   8.496   4.337  11.103 -0.3240 -0.0289 -0.0091
22942SOL    HW280552   8.570   4.297  10.978 -0.0723 -0.8510  0.3974
22943SOL     OW80553  12.403   6.721   5.870  0.2388  0.4641  0.4475
22943SOL    HW180554  12.472   6.705   5.805 -2.5907 -1.3457 -2.4708
22943SOL    HW280555  12.435   6.680   5.950  2.6654  0.0432 -0.6488
22944SOL     OW80556  11.487  11.025   4.150 -0.3000  0.5700 -0.1089
22944SOL    HW180557  11.569  11.075   4.152  0.8189 -1.1858  0.0854
22944SOL    HW280558  11.449  11.037   4.238 -0.4432  1.6560 -0.3071
22945SOL     OW80559   7.004   4.192  10.615 -0.3942  0.2372  0.2257
22945SOL    HW180560   6.993   4.105  10.575 -0.8297  0.8093 -0.9269
22945SOL    HW280561   6.915   4.220  10.636 -0.3625  0.9373 -0.5604
22946SOL     OW80562   1.644  11.298   6.112 -0.0754  0.6399 -0.1555
22946SOL    HW180563   1.588  11.253   6.176  1.4438 -0.7786  0.2341
22946SOL    HW280564   1.695  11.360   6.164 -0.5878  1.2720 -0.3835
22947SOL     OW80565  11.826   3.280   9.095  0.5875  0.3375  0.4816
22947SOL    HW180566  11.827   3.339   9.171 -0.6536  1.1827 -0.1281
22947SOL    HW280567  11.760   3.214   9.116  0.3887  0.4541  0.2308
22948SOL     OW80568  10.568   9.820   2.028 -0.2548 -0.4573  0.5354
22948SOL    HW180569  10.484   9.835   2.072  0.4489 -0.3598  1.8777
22948SOL    HW280570  10.617   9.901   2.041  0.1885 -0.6444  0.0626
22949SOL     OW80571  10.569  12.434  12.346 -0.6107  0.1109  0.0033
22949SOL    HW180572  10.492  12.466  12.298 -0.6971  0.0772  0.1188
22949SOL    HW280573  10.536  12.416  12.434 -0.4051  0.3804  0.1369
22950SOL     OW80574  12.659   2.216   2.127  0.2371  0.1908  0.3582
22950SOL    HW180575  12.591   2.152   2.105  1.9852 -1.3443 -0.8136
22950SOL    HW280576  12.662   2.214   2.223  2.1867 -3.7791  0.4235
22951SOL     OW80577   6.003   9.861   5.254 -0.4219 -0.0619  0.5081
22951SOL    HW180578   6.001   9.915   5.174 -2.5943 -0.6347  0.1221
22951SOL    HW280579   6.004   9.925   5.325 -1.3841  0.4888  0.0414
22952SOL     OW80580   3.948  11.857   6.912 -0.1596 -0.1627  0.1275
22952SOL    HW180581   3.977  11.767   6.923  0.5766 -0.0880 -0.9757
22952SOL    HW280582   3.935  11.890   7.001  0.6481 -1.0180  0.5764
22953SOL     OW80583   2.091  12.812   5.979 -0.3993 -0.2227  0.2888
22953SOL    HW180584   2.130  12.887   6.025  0.3709 -1.0025  0.9530
22953SOL    HW280585   2.024  12.850   5.923  1.8642  1.3250 -1.5449
22954SOL     OW80586  11.458   2.586   1.292 -0.6678 -0.1137  0.0689
22954SOL    HW180587  11.547   2.587   1.327 -0.1572  0.4246 -1.1991
22954SOL    HW280588  11.444   2.495   1.264  0.2551  0.2290 -1.5912
22955SOL     OW80589   9.969   5.071   9.559 -0.4742 -0.1523 -0.6843
22955SOL    HW180590   9.983   5.018   9.638 -0.3131  2.7966  1.4451
22955SOL    HW280591   9.900   5.026   9.511 -1.6505 -1.3321  1.9264
22956SOL     OW80592   2.988   5.131  11.290  1.0332 -0.3848 -0.4379
22956SOL    HW180593   3.075   5.157  11.258  2.5450 -4.1027  0.2169
22956SOL    HW280594   2.966   5.054  11.238 -1.8432  0.2934 -0.3798
22957SOL     OW80595   9.466   3.470   5.685  0.1023  0.0547 -0.1685
22957SOL    HW180596   9.490   3.396   5.740  1.0514  0.5810  0.1400
22957SOL    HW280597   9.504   3.546   5.728 -1.1385  0.7793 -0.2988
22958SOL     OW80598  13.159   5.993   0.599  0.6312 -0.2640 -0.5934
22958SOL    HW180599  13.103   5.949   0.534 -0.8032 -1.5639  1.4217
22958SOL    HW280600  13.170   5.929   0.669 -0.3249  2.0416  1.8201
22959SOL     OW80601   0.902   2.703   0.750  0.3777 -0.6976 -0.0277
22959SOL    HW180602   0.940   2.791   0.752 -0.1821 -0.4584  0.6713
22959SOL    HW280603   0.854   2.699   0.667 -1.1987  0.3778  0.7763
22960SOL     OW80604  13.271   6.070   7.281 -0.8437  0.2605  0.0232
22960SOL    HW180605  13.260   5.975   7.276  0.5779  0.0506  0.3503
22960SOL    HW280606  13.323   6.092   7.204 -1.2392  0.7872 -0.0939
22961SOL     OW80607  11.827   5.584   7.449 -0.5207 -0.7450 -0.1761
22961SOL    HW180608  11.758   5.528   7.415 -1.4919  0.1615  0.2465
22961SOL    HW280609  11.884   5.526   7.499 -0.7848 -1.5569 -0.8120
22962SOL     OW80610   2.386  11.607   1.990 -0.2143  0.0433 -0.3899
22962SOL    HW180611   2.413  11.626   2.080 -0.1716  0.9015 -0.5832
22962SOL    HW280612   2.332  11.681   1.964  0.1251  0.0168 -1.2233
22963SOL     OW80613   4.921   3.609   8.602  0.0113 -0.3877 -0.8636
22963SOL    HW180614   4.842   3.576   8.644  0.3926  1.6035  1.6447
22963SOL    HW280615   4.890   3.669   8.535 -0.6554  0.7423  0.4155
22964SOL     OW80616   1.254   8.088   3.947 -0.2303 -0.0939  0.2599
22964SOL    HW180617   1.296   8.007   3.977  0.5480  0.0653 -0.3772
22964SOL    HW280618   1.216   8.066   3.862 -0.3804  0.1049  0.2733
22965SOL     OW80619   2.500   2.173   0.784 -0.0381 -0.1364  0.7066
22965SOL    HW180620   2.431   2.199   0.723  0.7263 -1.2800 -0.7046
22965SOL    HW280621   2.545   2.254   0.806 -0.1080  0.2592 -0.5416
22966SOL     OW80622   7.684   3.483  13.707  0.5394 -0.6284  0.1262
22966SOL    HW180623   7.652   3.483  13.616 -0.1172  1.0073  0.3159
22966SOL    HW280624   7.757   3.421  13.707  0.8297 -0.3347 -1.6311
22967SOL     OW80625   8.861   8.564  10.253 -0.0786  0.0670 -0.4371
22967SOL    HW180626   8.768   8.589  10.247 -0.6897 -1.7443  0.8272
22967SOL    HW280627   8.865   8.479  10.210  0.8209 -0.2754  0.3142
22968SOL     OW80628   0.221   5.855   7.758  0.2725 -0.0928 -0.2152
22968SOL    HW180629   0.235   5.762   7.743  0.7783  0.1185 -1.1113
22968SOL    HW280630   0.205   5.862   7.852  2.4429 -0.8310  0.2759
22969SOL     OW80631   0.133   5.462   0.126  0.2144  0.4985  0.4628
22969SOL    HW180632   0.085   5.520   0.184  1.3745  1.2633  0.6911
22969SOL    HW280633   0.184   5.520   0.069 -1.4142 -0.1881 -1.8627
22970SOL     OW80634   5.696   9.345   7.915 -0.1677  0.0408 -0.3622
22970SOL    HW180635   5.739   9.422   7.877  0.8049 -1.5090 -2.6411
22970SOL    HW280636   5.753   9.319   7.988  0.3006  0.6095 -0.5204
22971SOL     OW80637   4.058  10.112   7.860 -0.2268 -0.1471  0.7259
22971SOL    HW180638   3.970  10.147   7.846  0.4894  1.6374  0.4533
22971SOL    HW280639   4.052  10.062   7.941 -1.3055  0.6357  1.1413
22972SOL     OW80640   8.652   0.512  11.071 -0.1085 -0.2494 -0.0867
22972SOL    HW180641   8.568   0.544  11.038  0.4348 -1.2705 -2.7311
22972SOL    HW280642   8.718   0.559  11.020  0.9127 -0.4893  0.9493
22973SOL     OW80643   9.637   6.717  11.005  0.2683 -0.1623 -0.0374
22973SOL    HW180644   9.564   6.779  11.002  0.1835 -0.2738 -0.4985
22973SOL    HW280645   9.682   6.735  11.087  0.6214  0.9352 -0.4580
22974SOL     OW80646   6.614   6.741  12.100 -0.7107 -0.4135 -0.2949
22974SOL    HW180647   6.565   6.760  12.020 -2.4285  0.4342  0.9045
22974SOL    HW280648   6.699   6.782  12.087 -1.2503  0.3915 -1.3609
22975SOL     OW80649   5.427   2.623   9.909  0.1636 -0.3061  0.4400
22975SOL    HW180650   5.356   2.687   9.901  0.3245 -0.3027 -1.1244
22975SOL    HW280651   5.397   2.547   9.860  2.1465  0.5515 -2.3938
22976SOL     OW80652   0.166  11.679   6.664  0.1700  0.0777  0.8402
22976SOL    HW180653   0.201  11.760   6.700 -1.6327  0.9816  0.6858
22976SOL    HW280654   0.145  11.626   6.740  0.1587  0.2985  0.9932
22977SOL     OW80655  11.325   2.751   8.194  1.1796  0.3098 -0.0865
22977SOL    HW180656  11.351   2.774   8.105 -1.2522 -1.4762 -1.3637
22977SOL    HW280657  11.404   2.713   8.233  1.8142 -0.6744 -2.1823
22978SOL     OW80658   2.386   9.310  10.402 -0.0694  0.8712 -0.5209
22978SOL    HW180659   2.303   9.328  10.447 -0.1706 -1.4302  0.3900
22978SOL    HW280660   2.449   9.297  10.473  0.9790  2.1156 -1.1992
22979SOL     OW80661   1.567   6.969   2.452  0.6774 -0.1717  0.5731
22979SOL    HW180662   1.543   7.000   2.539  2.0796 -0.1407  0.9781
22979SOL    HW280663   1.649   7.015   2.432  0.8482 -0.8510 -0.3780
22980SOL     OW80664   3.765   5.353   5.357  0.3640 -0.4181 -0.1856
22980SOL    HW180665   3.719   5.420   5.408  0.5336 -0.3814 -0.0818
22980SOL    HW280666   3.858   5.368   5.375  0.4438 -0.2339 -0.7064
22981SOL     OW80667  12.602   9.710  13.450 -0.0640  0.1235 -0.3171
22981SOL    HW180668  12.639   9.638  13.399  0.2755  0.6339 -0.8005
22981SOL    HW280669  12.673   9.738  13.508 -0.6178 -0.8264  0.8733
22982SOL     OW80670  11.621  11.038   3.766  0.0640  0.3943  0.0495
22982SOL    HW180671  11.684  10.970   3.742  1.2557  1.6613 -0.5640
22982SOL    HW280672  11.670  11.120   3.759 -1.5492  1.4052 -0.0574
22983SOL     OW80673   2.985  13.058  10.054 -0.1143  0.5047  0.6458
22983SOL    HW180674   2.995  13.068  10.149  0.9859  1.1493  0.4839
22983SOL    HW280675   2.978  13.148  10.021  2.7898  0.5428 -0.1667
22984SOL     OW80676   2.811  11.635   7.479  0.9299 -0.1284  1.0293
22984SOL    HW180677   2.740  11.670   7.533  1.7538 -1.2929  2.9601
22984SOL    HW280678   2.862  11.712   7.454 -1.9549  1.0054 -2.0357
22985SOL     OW80679   3.543  13.575  12.798 -0.2279 -0.1169  0.1925
22985SOL    HW180680   3.477  13.552  12.733 -0.9611  1.6326  0.2864
22985SOL    HW280681   3.542  13.670  12.801  1.0569 -0.1173  1.4911
22986SOL     OW80682   9.139  10.066   5.499  0.3782  0.0969  0.0339
22986SOL    HW180683   9.146  10.156   5.468 -1.5308 -0.2413 -1.5721
22986SOL    HW280684   9.086  10.021   5.433  1.7854 -2.3905  0.4623
22987SOL     OW80685   8.283   2.842   7.740 -0.0072  0.0989  0.3420
22987SOL    HW180686   8.266   2.769   7.680  1.1680  0.2839 -0.2666
22987SOL    HW280687   8.372   2.825   7.772  0.3483  1.3461  0.0487
22988SOL     OW80688   2.576   4.939  12.456  0.4491 -0.1154  0.4438
22988SOL    HW180689   2.564   5.033  12.469  0.9320 -0.0545  0.4867
22988SOL    HW280690   2.630   4.932  12.377 -1.4153 -0.4408 -0.8571
22989SOL     OW80691   4.671   7.129   7.844  0.7968 -0.5432  0.3146
22989SOL    HW180692   4.730   7.200   7.819 -0.6084  0.5805  0.0821
22989SOL    HW280693   4.702   7.100   7.930 -0.8519  2.9901  2.2857
22990SOL     OW80694   7.070  10.067   3.207  0.7624 -0.1154 -0.1853
22990SOL    HW180695   7.030  10.055   3.120  1.4538 -0.2355 -0.5007
22990SOL    HW280696   6.997  10.083   3.266 -0.1988 -3.9352 -0.0516
22991SOL     OW80697   9.744  10.711   0.505  0.2656  0.0965  0.1792
22991SOL    HW180698   9.810  10.762   0.551  0.3865 -0.0115  0.1259
22991SOL    HW280699   9.718  10.765   0.430  2.0854 -0.8688 -1.2319
22992SOL     OW80700  12.344   8.299   2.467  0.6728 -0.4940  0.1276
22992SOL    HW180701  12.367   8.348   2.547 -2.1163  0.3003  0.5599
22992SOL    HW280702  12.347   8.365   2.398 -0.5235 -0.2666  0.2643
22993SOL     OW80703   0.937   6.732   5.135 -0.1169  0.9004  0.4876
22993SOL    HW180704   0.917   6.785   5.058 -0.0114  2.4622  1.4972
22993SOL    HW280705   0.852   6.702   5.166 -0.1163 -0.3920 -0.6298
22994SOL     OW80706   5.843   8.755  11.503 -0.3558  0.3733  0.4948
22994SOL    HW180707   5.865   8.742  11.595  0.8051 -0.9955  0.0530
22994SOL    HW280708   5.772   8.820  11.504  1.6474  2.7162  2.1793
22995SOL     OW80709  12.714   8.033   4.773 -0.3077 -0.4706  0.2521
22995SOL    HW180710  12.696   8.022   4.680 -0.5859  0.4450  0.1815
22995SOL    HW280711  12.633   8.068   4.810  0.5693  1.6149  0.3423
22996SOL     OW80712   8.200   0.046   8.624  0.1955  0.3734  0.2239
22996SOL    HW180713   8.255   0.001   8.560 -0.6160 -0.3851  0.0340
22996SOL    HW280714   8.144  -0.023   8.659  0.1927  0.9008  1.2935
22997SOL     OW80715   8.010   8.509   3.226 -0.2333 -0.2609 -0.1019
22997SOL    HW180716   7.916   8.517   3.239 -0.2145  1.4677 -0.7956
22997SOL    HW280717   8.048   8.586   3.269  0.5674  0.7170 -2.4039
22998SOL     OW80718   3.392   0.180   9.955 -0.3902 -0.0221 -0.2143
22998SOL    HW180719   3.424   0.222  10.035 -1.6131  0.4814  0.0298
22998SOL    HW280720   3.438   0.096   9.953 -1.1402 -0.5253  1.6119
22999SOL     OW80721  10.124   6.260   1.050 -0.1037 -0.1771 -0.4409
22999SOL    HW180722  10.080   6.312   0.982 -0.7177  1.3471  1.0362
22999SOL    HW280723  10.102   6.170   1.030 -2.8626  0.4296 -0.5361
23000SOL     OW80724   5.171  11.481   4.374  0.2441  0.1049  0.1535
23000SOL    HW180725   5.175  11.450   4.284  1.7092 -0.9587  0.5388
23000SOL    HW280726   5.116  11.417   4.419 -0.1143  0.3861  0.1252
23001SOL     OW80727  13.646  12.006  11.777 -0.5530  0.2028  0.2309
23001SOL    HW180728  13.570  12.040  11.825 -1.5371  0.5024 -1.4450
23001SOL    HW280729  13.639  12.045  11.690  1.0805 -0.4209 -0.2256
23002SOL     OW80730   3.024   9.807  11.498 -0.2939 -0.0301 -0.5480
23002SOL    HW180731   2.963   9.881  11.497 -0.1666  0.0909  0.0106
23002SOL    HW280732   3.110   9.848  11.484 -0.1399  0.0213  0.4923
23003SOL     OW80733   3.596   1.633   5.093  0.8874 -0.1549 -0.5371
23003SOL    HW180734   3.675   1.580   5.106  0.2964 -1.1390 -0.9378
23003SOL    HW280735   3.532   1.598   5.154  0.5525  0.2386 -0.6527
23004SOL     OW80736   1.308   0.006   1.459  0.2424 -0.4061  0.4637
23004SOL    HW180737   1.214   0.024   1.463  0.5055  0.9983  0.7924
23004SOL    HW280738   1.333   0.031   1.370  0.4593  0.0531  0.6523
23005SOL     OW80739   4.373   0.914   8.067 -0.3761  0.2050 -0.8574
23005SOL    HW180740   4.367   0.957   8.153 -1.9461  0.1313 -0.9080
23005SOL    HW280741   4.438   0.845   8.079 -2.4908 -1.6047  1.0977
23006SOL     OW80742   8.867  12.958   7.579 -0.1254  0.5533 -0.1725
23006SOL    HW180743   8.917  12.977   7.659  0.4963 -1.0196 -0.1467
23006SOL    HW280744   8.777  12.947   7.609 -0.8940  4.5568 -0.3589
23007SOL     OW80745   2.774   5.097  12.736  0.9739  0.1997 -0.6195
23007SOL    HW180746   2.746   5.032  12.800 -0.9313  0.0214 -1.5607
23007SOL    HW280747   2.826   5.159  12.787  0.5671 -0.6030  0.8468
23008SOL     OW80748   5.681   3.649  10.576  0.2195  0.1568  0.0318
23008SOL    HW180749   5.729   3.660  10.658  1.1137 -1.9826 -0.1558
23008SOL    HW280750   5.590   3.637  10.603  0.2316  1.1493  0.5741
23009SOL     OW80751   6.067   0.296  11.734 -0.1091 -0.2467 -0.0415
23009SOL    HW180752   6.075   0.321  11.826 -0.6839 -0.9385  0.1978
23009SOL    HW280753   6.001   0.227  11.732 -0.5720  0.1916 -1.0555
23010SOL     OW80754   2.508  12.144  12.334  0.8585 -0.2066 -0.1596
23010SOL    HW180755   2.587  12.160  12.385  0.3613  1.2947  0.1924
23010SOL    HW280756   2.441  12.124  12.400 -0.0790  2.9208 -0.0206
23011SOL     OW80757  12.719   3.595   3.576 -0.1143  0.2501 -0.1766
23011SOL    HW180758  12.676   3.679   3.594 -0.2865  0.2092 -0.3938
23011SOL    HW280759  12.790   3.590   3.640 -0.1480  0.5303 -0.1165
23012SOL     OW80760   0.171   1.498   2.882  0.7048  0.4320  0.1779
23012SOL    HW180761   0.116   1.524   2.808  1.3689  0.0982 -0.4501
23012SOL    HW280762   0.231   1.571   2.894  1.0868  0.1748 -0.1133
23013SOL     OW80763   0.572   8.458   5.166  0.5419  0.2221 -0.1397
23013SOL    HW180764   0.497   8.443   5.224  1.2700 -0.9908  0.5283
23013SOL    HW280765   0.603   8.370   5.144  0.9675  0.6844 -1.4913
23014SOL     OW80766   7.113  10.516   0.707 -0.0494 -0.5444 -0.2709
23014SOL    HW180767   7.035  10.476   0.745  0.5413 -1.3436  0.1505
23014SOL    HW280768   7.099  10.511   0.613 -0.7140 -0.2396 -0.1942
23015SOL     OW80769   7.697  10.560   7.194 -0.0112 -0.3484 -0.0414
23015SOL    HW180770   7.791  10.550   7.213 -0.0051  0.7022  0.5737
23015SOL    HW280771   7.687  10.529   7.104  0.9492 -0.3473 -0.1577
23016SOL     OW80772  11.849  13.394   3.033 -0.1644 -0.0777  0.0414
23016SOL    HW180773  11.926  13.425   3.081 -2.0657  3.0669  1.3909
23016SOL    HW280774  11.882  13.326   2.975  2.9007 -1.7341  3.3571
23017SOL     OW80775  10.250   9.706   7.717  0.2223  0.0065  0.6010
23017SOL    HW180776  10.210   9.779   7.670  0.7969 -0.4010 -0.5606
23017SOL    HW280777  10.312   9.748   7.778  0.5795  0.5018 -0.0860
23018SOL     OW80778   4.382  13.534   7.198  0.4726 -0.4593 -0.0391
23018SOL    HW180779   4.445  13.541   7.271 -0.7340  2.6363  0.8476
23018SOL    HW280780   4.437  13.534   7.120  1.6736 -0.8477  0.7610
23019SOL     OW80781   2.260   9.350   2.628 -0.2453 -0.0647  0.1856
23019SOL    HW180782   2.227   9.417   2.689 -0.3906  0.4717 -0.4758
23019SOL    HW280783   2.353   9.343   2.648  0.1178  1.5153 -0.8167
23020SOL     OW80784  11.587  11.856  11.218  0.3411  0.0451  0.1141
23020SOL    HW180785  11.599  11.823  11.307  0.5135 -0.5549 -0.1254
23020SOL    HW280786  11.517  11.802  11.181 -0.5128  1.0203  0.2376
23021SOL     OW80787   7.967   6.466   5.949  0.0345 -0.5637 -0.0296
23021SOL    HW180788   7.970   6.515   5.867 -0.2145  0.7279  0.7006
23021SOL    HW280789   8.034   6.507   6.003 -0.2862 -0.9396  0.6629
23022SOL     OW80790  11.634   3.696   0.109 -0.1771  0.3240  0.1663
23022SOL    HW180791  11.661   3.605   0.099  0.7521  0.6948 -0.8207
23022SOL    HW280792  11.708   3.739   0.152  0.7514  1.2557 -2.1887
23023SOL     OW80793  10.651   1.265  13.279  0.4379  0.0709  0.6872
23023SOL    HW180794  10.587   1.194  13.284  1.2410 -0.6020  1.9192
23023SOL    HW280795  10.687   1.260  13.191 -0.4842 -0.1801  0.3248
23024SOL     OW80796   2.085   0.892   3.032 -0.0220 -0.0726  0.3924
23024SOL    HW180797   2.042   0.869   2.949 -0.4351 -0.6353  0.7503
23024SOL    HW280798   2.020   0.944   3.079 -0.0758 -0.3937  0.6743
23025SOL     OW80799   6.774  12.295   3.479  0.0776 -0.2294 -0.3280
23025SOL    HW180800   6.797  12.206   3.507 -0.1541 -0.0822  0.3716
23025SOL    HW280801   6.821  12.309   3.397 -0.0042 -1.0537 -0.5213
23026SOL     OW80802   7.244   3.895   1.260 -0.0244  0.4745 -0.2201
23026SOL    HW180803   7.278   3.882   1.172 -0.0879 -0.1148 -0.1645
23026SOL    HW280804   7.321   3.903   1.315  0.0745  3.5383 -0.6563
23027SOL     OW80805   5.062   2.617   0.117 -0.3383 -0.0849 -0.1571
23027SOL    HW180806   5.132   2.568   0.160 -0.3432  0.2363  0.2178
23027SOL    HW280807   5.005   2.645   0.189 -0.8373 -0.3221 -0.4562
23028SOL     OW80808   4.929   7.896   9.370  0.1717  0.1862  0.1079
23028SOL    HW180809   4.901   7.810   9.340  1.8251 -0.8160  1.2823
23028SOL    HW280810   4.891   7.957   9.307  0.3623 -1.5211 -1.7620
23029SOL     OW80811   2.431   1.467   2.010  0.1266 -0.0704 -0.1657
23029SOL    HW180812   2.399   1.414   1.937 -0.9635 -1.5970  1.3337
23029SOL    HW280813   2.507   1.418   2.043 -0.1695 -0.0891  0.5050
23030SOL     OW80814  11.001  10.550  11.813 -0.1962  0.4588  0.3734
23030SOL    HW180815  11.048  10.482  11.765 -0.8724 -0.6011  1.1739
23030SOL    HW280816  10.971  10.610  11.745  1.4999  0.6800 -0.2316
23031SOL     OW80817   3.237   3.765  10.821 -0.3552 -0.3801 -0.1587
23031SOL    HW180818   3.330   3.764  10.843 -0.2137 -0.8223 -0.7515
23031SOL    HW280819   3.221   3.680  10.780 -1.0201 -0.3021 -0.0757
23032SOL     OW80820   1.576  12.992   4.073  0.6227 -0.7397 -0.6923
23032SOL    HW180821   1.517  12.927   4.112  0.8446 -1.0132 -0.8046
23032SOL    HW280822   1.649  12.940   4.039  1.9394 -0.2753  1.2013
23033SOL     OW80823  12.837   6.515   0.013 -0.5406  1.0390 -0.1722
23033SOL    HW180824  12.801   6.449  -0.046 -0.8249 -1.4133  2.5179
23033SOL    HW280825  12.931   6.498   0.014 -0.3552  1.9193 -0.8078
23034SOL     OW80826   1.682   5.792   0.101 -0.8819  0.3259 -0.6086
23034SOL    HW180827   1.720   5.833   0.178  1.0814  0.3868 -1.5602
23034SOL    HW280828   1.587   5.795   0.117 -0.5171 -1.6120  2.7609
23035SOL     OW80829  13.184   1.236  12.775 -0.5525 -0.6579  0.0176
23035SOL    HW180830  13.251   1.167  12.770 -1.0157 -1.1836  0.8614
23035SOL    HW280831  13.203   1.283  12.856 -0.3652  0.0963 -0.4480
23036SOL     OW80832   3.940   6.388   5.835 -0.0269  0.0044  0.2184
23036SOL    HW180833   3.931   6.294   5.818  0.6446 -0.8704  3.8418
23036SOL    HW280834   3.851   6.419   5.846 -0.1999 -0.4410  0.0973
23037SOL     OW80835   1.993  13.154  10.177 -0.1288 -0.4173  0.6561
23037SOL    HW180836   1.982  13.211  10.253  1.5859  0.1951  0.4877
23037SOL    HW280837   1.904  13.126  10.155 -0.9475  1.5799  1.1990
23038SOL     OW80838   1.929   8.116   7.677 -0.4944 -0.0135  0.2078
23038SOL    HW180839   2.010   8.103   7.629 -0.8036 -0.2703 -0.2563
23038SOL    HW280840   1.900   8.028   7.701 -0.1452  0.1338  1.2086
23039SOL     OW80841  12.104   2.855   4.065 -0.2515 -0.2450  0.0431
23039SOL    HW180842  12.093   2.823   3.975 -1.8853 -0.8916  0.4283
23039SOL    HW280843  12.078   2.947   4.061  1.9841  0.4113 -0.5728
23040SOL     OW80844  11.527   5.293   0.536 -0.6686  0.4214  0.0536
23040SOL    HW180845  11.587   5.252   0.598 -1.0165 -3.2257 -1.7469
23040SOL    HW280846  11.576   5.367   0.500  1.4100 -0.3600  1.1355
23041SOL     OW80847   7.842   8.413   3.530 -0.1638  0.6285  0.4211
23041SOL    HW180848   7.877   8.325   3.524 -1.1539  0.1418  1.4043
23041SOL    HW280849   7.900   8.458   3.591 -0.0167  0.4812  0.3914
23042SOL     OW80850  13.231   6.938   2.825  0.0527  0.9419  0.0540
23042SOL    HW180851  13.241   7.027   2.858  1.7207  1.4479 -1.5894
23042SOL    HW280852  13.320   6.908   2.810 -0.4785  0.5814 -3.2626
23043SOL     OW80853   9.479  10.558   9.966  0.0759 -0.3256  0.2168
23043SOL    HW180854   9.565  10.588   9.998 -0.7551  1.2259  1.1226
23043SOL    HW280855   9.471  10.469   9.998  0.6340  0.1069  1.6253
23044SOL     OW80856   0.435   4.077   4.285  0.0126 -0.0110  0.0451
23044SOL    HW180857   0.518   4.108   4.249  1.1079 -0.3551  2.0916
23044SOL    HW280858   0.369   4.127   4.239  1.1953 -0.9129 -2.8650
23045SOL     OW80859   1.223   0.840   3.606 -0.4948  0.4992 -0.0688
23045SOL    HW180860   1.275   0.763   3.583 -0.1473  0.6460  0.2141
23045SOL    HW280861   1.172   0.859   3.528 -1.6558 -0.8643  0.3084
23046SOL     OW80862  11.554  12.117  13.027  0.4056  0.0385  0.3053
23046SOL    HW180863  11.560  12.022  13.041  0.1583  0.0391  0.4252
23046SOL    HW280864  11.510  12.126  12.942  0.4011  0.0445  0.3085
23047SOL     OW80865   7.587   2.745  12.264  0.3420  0.0626 -0.8193
23047SOL    HW180866   7.562   2.656  12.289  0.6502  0.4860  1.1358
23047SOL    HW280867   7.617   2.736  12.173 -1.0317 -1.5383 -1.1766
23048SOL     OW80868   1.677  13.148   2.471 -0.0594 -0.5086  0.2268
23048SOL    HW180869   1.748  13.210   2.455  0.7067 -1.8452 -2.0084
23048SOL    HW280870   1.690  13.120   2.562  1.1481  0.6422  0.4461
23049SOL     OW80871   9.286   2.346   6.895  0.0896  0.2237 -0.0435
23049SOL    HW180872   9.209   2.400   6.915 -0.5157  0.7937 -3.3669
23049SOL    HW280873   9.261   2.258   6.921 -0.5976  0.8047  1.4030
23050SOL     OW80874  12.216   7.219   6.553  0.9277  0.2035  0.2781
23050SOL    HW180875  12.274   7.227   6.628 -1.1959 -1.0891  2.1872
23050SOL    HW280876  12.141   7.170   6.586  0.6125 -1.9417 -3.1124
23051SOL     OW80877   3.375  13.670   6.996 -0.4282 -0.1270  0.2315
23051SOL    HW180878   3.352  13.652   6.904  2.9115  0.8076 -0.9405
23051SOL    HW280879   3.354  13.589   7.042  0.0296 -1.5186 -1.8709
23052SOL     OW80880   1.031   6.185  11.360 -0.0029  0.1317  0.6109
23052SOL    HW180881   0.940   6.204  11.337 -0.1697  0.3140  1.3991
23052SOL    HW280882   1.050   6.102  11.316 -0.5845  0.0324  0.5439
23053SOL     OW80883  10.766   9.211   3.665  0.3489 -0.1044 -0.3162
23053SOL    HW180884  10.734   9.121   3.666  0.6343 -0.2725  2.3687
23053SOL    HW280885  10.687   9.264   3.672  0.2045 -0.1454 -1.5215
23054SOL     OW80886   2.383   8.266   2.689  0.0282  0.5520 -0.1143
23054SOL    HW180887   2.293   8.273   2.658  0.1931  0.8294 -0.5258
23054SOL    HW280888   2.390   8.333   2.757 -0.4847 -0.3919  0.9173
23055SOL     OW80889   4.000   3.003   7.869  0.0360  0.1144 -0.3911
23055SOL    HW180890   3.926   2.962   7.914 -0.2583  1.0631  0.0111
23055SOL    HW280891   4.043   2.931   7.823  0.3908 -0.9288  1.4719
23056SOL     OW80892   5.940  11.303  10.148 -0.4079  0.3671 -0.5140
23056SOL    HW180893   6.014  11.364  10.145 -1.2838  1.4420 -0.9871
23056SOL    HW280894   5.965  11.233  10.087  0.1231  0.8285 -0.8378
23057SOL     OW80895   6.262   1.616  12.600 -0.6582 -0.3182 -0.4850
23057SOL    HW180896   6.208   1.692  12.580 -0.4110 -0.2700 -0.9751
23057SOL    HW280897   6.350   1.651  12.612 -0.6243 -0.4716 -0.2730
23058SOL     OW80898   2.664   4.572   9.521  0.2446  0.5135 -0.5251
23058SOL    HW180899   2.589   4.599   9.468 -1.6315 -2.2009  0.5051
23058SOL    HW280900   2.635   4.491   9.563  3.0374  0.4875  1.6134
23059SOL     OW80901   6.573   4.904   0.404 -0.0351 -0.6295 -1.0773
23059SOL    HW180902   6.607   4.917   0.492  0.6251  1.7081 -1.5915
23059SOL    HW280903   6.633   4.841   0.364  1.7065  0.7682 -0.8377
23060SOL     OW80904  10.010   1.330   2.452  0.1813 -0.1618 -0.9225
23060SOL    HW180905  10.098   1.329   2.488 -1.4222  0.7000  3.8068
23060SOL    HW280906   9.988   1.238   2.437  0.5763 -0.8011  1.9226
23061SOL     OW80907  12.611   6.064   4.245 -0.2492 -0.4466  0.8306
23061SOL    HW180908  12.518   6.064   4.221 -0.8236  0.4906  2.8286
23061SOL    HW280909  12.620   5.991   4.306  0.4994 -0.9107  0.1904
23062SOL     OW80910   7.682  10.011  12.925 -0.9117  0.3291 -0.0209
23062SOL    HW180911   7.735  10.090  12.918 -0.2501 -0.2268 -1.5986
23062SOL    HW280912   7.629  10.010  12.846  0.7408 -1.9254 -1.2366
23063SOL     OW80913   7.403   2.652  10.110 -0.2628 -0.5972 -0.1553
23063SOL    HW180914   7.455   2.624  10.186 -0.2770 -1.9854 -0.6401
23063SOL    HW280915   7.332   2.588  10.104  0.0132 -0.7930 -1.6306
23064SOL     OW80916   4.139   5.549   5.328 -0.0065 -0.3503  0.1191
23064SOL    HW180917   4.200   5.539   5.255  1.4158 -1.1041  1.3677
23064SOL    HW280918   4.076   5.477   5.317 -0.0448 -0.2126 -0.5757
23065SOL     OW80919  10.663   3.664  11.342  0.3927 -0.0073  0.4151
23065SOL    HW180920  10.683   3.754  11.317  1.0870 -0.8637 -2.5343
23065SOL    HW280921  10.734   3.639  11.401  1.6602  0.6091 -0.7888
23066SOL     OW80922   6.403   9.420  12.661 -0.6395 -0.3825 -0.2542
23066SOL    HW180923   6.392   9.509  12.625  1.4694  0.1674  0.3182
23066SOL    HW280924   6.373   9.427  12.752 -1.4424 -0.5479 -0.4953
23067SOL     OW80925   2.433   0.529   6.056 -0.2240  0.5946 -0.3115
23067SOL    HW180926   2.428   0.609   6.107 -0.1060  0.8820 -0.7394
23067SOL    HW280927   2.505   0.479   6.095 -0.7562  0.3734  0.3981
23068SOL     OW80928  11.292  10.579   2.763 -0.1280  0.3294 -0.1539
23068SOL    HW180929  11.305  10.674   2.755  1.2610  0.0654 -1.5894
23068SOL    HW280930  11.289  10.563   2.857  0.6602  1.6894  0.1288
23069SOL     OW80931   2.912   3.838   9.643 -0.7315 -0.2488 -0.3729
23069SOL    HW180932   2.825   3.796   9.641 -0.3101 -1.1621 -0.0264
23069SOL    HW280933   2.973   3.765   9.651 -0.0119  0.4834  1.1910
23070SOL     OW80934   8.251   8.794  10.114 -0.4758 -0.6186  0.5168
23070SOL    HW180935   8.228   8.797  10.021 -0.2940  0.9662  0.4969
23070SOL    HW280936   8.175   8.755  10.157 -1.5163  0.7141 -0.0464
23071SOL     OW80937   7.314  10.979   0.704  0.4274  0.0588  0.2525
23071SOL    HW180938   7.229  11.000   0.666  0.9912  0.5111 -0.8021
23071SOL    HW280939   7.300  10.896   0.750 -0.3502 -0.4076 -0.7734
23072SOL     OW80940  10.440   1.301   6.164  0.4115  0.2043 -0.2777
23072SOL    HW180941  10.397   1.228   6.209  0.6722  0.9184  1.1959
23072SOL    HW280942  10.418   1.378   6.217 -0.2700  1.3141 -2.0593
23073SOL     OW80943   7.538  11.503   6.611  0.2865 -0.1373  0.2351
23073SOL    HW180944   7.447  11.522   6.585 -0.1945 -0.6905  1.4482
23073SOL    HW280945   7.558  11.569   6.677  0.5677 -0.3734  0.3842
23074SOL     OW80946   3.045   8.366  11.464  0.0995  0.5217  0.0498
23074SOL    HW180947   3.003   8.379  11.549  0.2387  0.2446  0.1631
23074SOL    HW280948   3.132   8.405  11.474  0.9379 -1.4234  0.7548
23075SOL     OW80949   1.005   0.446   1.873 -0.2987  0.2567  0.4399
23075SOL    HW180950   0.974   0.373   1.927 -0.9718  1.9370  2.4746
23075SOL    HW280951   0.938   0.455   1.805 -0.2583 -0.9468  0.2292
23076SOL     OW80952  10.304  12.877   9.249  0.7530 -0.5044 -0.3468
23076SOL    HW180953  10.363  12.947   9.221  0.2682  0.1773  0.2754
23076SOL    HW280954  10.266  12.910   9.331  0.3253 -1.3915 -0.1824
23077SOL     OW80955  12.502   8.201   8.509  0.3006  0.1165 -0.1617
23077SOL    HW180956  12.430   8.186   8.447  0.4030 -0.0082 -0.2528
23077SOL    HW280957  12.461   8.202   8.595 -0.1134  2.0910 -0.3432
23078SOL     OW80958  11.566   0.873   3.067  0.0371 -0.4556 -0.0451
23078SOL    HW180959  11.511   0.843   2.995  1.5676 -2.1798 -0.6018
23078SOL    HW280960  11.614   0.948   3.032 -1.0832  0.3372  0.0735
23079SOL     OW80961   5.031   1.216   4.212  0.5146 -0.4378  0.2485
23079SOL    HW180962   5.024   1.171   4.128  0.2503  0.0086  0.0270
23079SOL    HW280963   4.944   1.254   4.226  0.6859 -0.1369  0.5126
23080SOL     OW80964   3.978   9.432  13.604  0.3989 -0.3602 -0.4539
23080SOL    HW180965   3.956   9.394  13.689 -1.1226  1.1028 -0.1677
23080SOL    HW280966   3.986   9.526  13.621  0.3955 -0.0909 -1.8716
23081SOL     OW80967   1.106   7.547  13.646 -0.0335  0.3654 -0.1879
23081SOL    HW180968   1.103   7.454  13.623  1.9097  0.2637 -0.1952
23081SOL    HW280969   1.066   7.551  13.733 -0.2358 -0.4568 -0.2333
23082SOL     OW80970  12.099  12.604   0.479  0.0509  0.1127 -0.3491
23082SOL    HW180971  12.186  12.642   0.485  0.2773 -0.2666 -1.0084
23082SOL    HW280972  12.040  12.679   0.470  0.3444  0.3586 -0.2202
23083SOL     OW80973   6.818  10.278  12.899  0.9794  0.0925 -0.2002
23083SOL    HW180974   6.757  10.274  12.825  0.3299  0.1451  0.3231
23083SOL    HW280975   6.874  10.201  12.887  1.3085  0.4485 -1.0948
23084SOL     OW80976   3.833   0.931  12.773 -0.2569 -0.6460  0.2528
23084SOL    HW180977   3.912   0.895  12.812  1.2523  0.3376 -1.6754
23084SOL    HW280978   3.810   1.005  12.829  1.3157  0.1814 -0.1264
23085SOL     OW80979   3.053   8.140   9.875 -0.0060  0.1370  0.7208
23085SOL    HW180980   3.116   8.197   9.830 -0.4627  0.7077  0.8007
23085SOL    HW280981   2.992   8.112   9.807  0.4083 -0.5390  0.6139
23086SOL     OW80982   7.808   3.107   4.764  0.0339 -0.5205  0.4156
23086SOL    HW180983   7.786   3.083   4.674 -0.6023 -1.9089  0.9120
23086SOL    HW280984   7.724   3.126   4.804  0.3773  0.8257  0.5446
23087SOL     OW80985  10.019   5.395   4.689  0.9548  0.5437  0.5215
23087SOL    HW180986   9.931   5.375   4.719  0.3094  1.4444 -0.6723
23087SOL    HW280987  10.007   5.435   4.603  2.6312 -0.6224 -0.3094
23088SOL     OW80988   3.168   3.999   7.150 -0.1515  0.1323 -0.2481
23088SOL    HW180989   3.262   3.980   7.144 -0.0106 -0.8560  2.9320
23088SOL    HW280990   3.138   3.949   7.226 -3.3392  0.2629 -1.2643
23089SOL     OW80991   0.389  12.518  11.763 -0.3728 -0.3012 -0.4878
23089SOL    HW180992   0.351  12.442  11.807 -0.1420 -0.9203 -1.3484
23089SOL    HW280993   0.476  12.490  11.736 -1.1528 -0.5747 -2.9498
23090SOL     OW80994  12.384  12.801  11.474  0.3656  0.0800 -0.0737
23090SOL    HW180995  12.375  12.896  11.476 -3.3879 -0.1530  1.0947
23090SOL    HW280996  12.387  12.778  11.381  0.9246  1.2845 -0.3667
23091SOL     OW80997   0.257   1.978   1.240  0.2363  0.1026 -0.3203
23091SOL    HW180998   0.195   1.962   1.311  1.0162 -0.2019  0.3003
23091SOL    HW280999   0.291   1.892   1.217  3.0886  0.4903  1.8091
23092SOL     OW81000  10.154   7.960   1.666  0.3640 -0.1113  0.7344
23092SOL    HW181001  10.093   7.947   1.593 -1.4526 -0.7175  2.2673
23092SOL    HW281002  10.161   7.874   1.706  2.1588 -0.0116  0.7117
23093SOL     OW81003   0.342  11.478   6.454 -0.4372 -0.3858 -0.1913
23093SOL    HW181004   0.401  11.494   6.381 -1.4002 -0.0960 -0.9381
23093SOL    HW281005   0.395  11.490   6.532 -0.1024  2.5972 -0.7545
23094SOL     OW81006   7.381   0.997   9.038 -0.6297 -0.6724 -0.4088
23094SOL    HW181007   7.463   1.002   8.990 -0.6062 -0.5269 -0.3571
23094SOL    HW281008   7.384   1.072   9.098 -1.9174  0.8982 -2.1651
23095SOL     OW81009   5.186   0.911   4.537  0.2505  0.0405 -0.1860
23095SOL    HW181010   5.238   0.987   4.564  0.9119 -0.3698 -0.2942
23095SOL    HW281011   5.099   0.947   4.518  0.4136  0.6889  0.2665
23096SOL     OW81012   4.668   8.292   6.135 -0.5316 -0.4493 -0.4501
23096SOL    HW181013   4.749   8.293   6.084 -0.4018  0.5037 -0.2409
23096SOL    HW281014   4.679   8.362   6.199 -1.3627 -0.5727 -0.1640
23097SOL     OW81015   7.617   3.440  13.444  1.2914 -0.5101 -0.3832
23097SOL    HW181016   7.673   3.477  13.374  0.2500  0.8463 -0.5388
23097SOL    HW281017   7.539   3.496  13.444  0.4872 -1.5971  0.6852
23098SOL     OW81018   6.337  12.738   0.691 -0.1716  0.0608  0.5726
23098SOL    HW181019   6.307  12.770   0.606 -2.1750  1.3140  1.6630
23098SOL    HW281020   6.316  12.644   0.690 -0.6646  0.1684 -0.1218
23099SOL     OW81021   1.776   7.902   1.092  0.2139  0.1324  0.3497
23099SOL    HW181022   1.792   7.818   1.134  0.2037  0.2303  0.5533
23099SOL    HW281023   1.682   7.917   1.102  0.1525 -0.0102 -0.0243
23100SOL     OW81024   2.682   4.131   7.553  0.2354  0.3719 -0.0538
23100SOL    HW181025   2.776   4.118   7.561  0.2014 -0.0288 -0.2977
23100SOL    HW281026   2.646   4.100   7.637  0.0885 -1.8106 -0.8721
23101SOL     OW81027  11.493   9.691  12.017  0.6839 -0.5569 -0.0647
23101SOL    HW181028  11.523   9.667  11.929 -0.5363  0.2806 -0.7419
23101SOL    HW281029  11.441   9.770  12.004  1.3601  0.2123  1.5748
23102SOL     OW81030  13.593   2.761   0.680 -0.3377  0.4333 -0.0421
23102SOL    HW181031  13.634   2.753   0.594 -0.7798  0.3513 -0.2488
23102SOL    HW281032  13.604   2.853   0.703  1.1489  0.1463  0.5135
23103SOL     OW81033   4.665  13.256   3.688  0.1576  0.3761  0.0050
23103SOL    HW181034   4.636  13.301   3.767  3.3681 -0.2229  1.6940
23103SOL    HW281035   4.688  13.327   3.627 -0.6407  0.8626  0.2514
23104SOL     OW81036   8.672   5.805  11.092 -0.3390 -0.5755  0.3339
23104SOL    HW181037   8.703   5.876  11.148  0.9410  1.0865 -2.2684
23104SOL    HW281038   8.596   5.843  11.046 -0.2841 -1.2436 -0.3245
23105SOL     OW81039  12.825   1.502  12.112 -0.2051  0.0319 -0.3030
23105SOL    HW181040  12.768   1.579  12.121  0.1432  0.3471 -0.7081
23105SOL    HW281041  12.905   1.527  12.159  0.0711  0.0869 -0.7973
23106SOL     OW81042   5.536   8.603   7.200 -0.2514  0.5158 -0.0521
23106SOL    HW181043   5.456   8.655   7.212  0.1177  1.7369 -2.3728
23106SOL    HW281044   5.604   8.668   7.182  0.6393 -0.6551 -1.0528
23107SOL     OW81045   2.115   6.845   3.528  0.6540 -0.3654  0.4088
23107SOL    HW181046   2.044   6.781   3.528 -0.3759  0.7256  1.4085
23107SOL    HW281047   2.172   6.818   3.455  0.4144 -2.5345  0.9566
23108SOL     OW81048   2.986   3.441   0.165  0.4301  0.2167 -0.0279
23108SOL    HW181049   3.069   3.444   0.117 -0.2544  0.9102 -1.1964
23108SOL    HW281050   2.939   3.519   0.136 -0.0456  0.6209  1.7288
23109SOL     OW81051  11.975  12.072   3.603  0.3058 -0.3220 -0.2617
23109SOL    HW181052  11.928  12.005   3.554 -1.1156 -1.1905  2.1472
23109SOL    HW281053  11.955  12.154   3.558  0.3266 -1.2330 -1.9987
23110SOL     OW81054   7.795   5.751  11.516  0.1379 -0.2200  0.5059
23110SOL    HW181055   7.837   5.828  11.556  1.1448  0.2891 -1.4243
23110SOL    HW281056   7.865   5.709  11.465 -1.0430 -0.9171 -0.6061
23111SOL     OW81057   8.643   8.736   7.461  0.0327  0.0281  0.2642
23111SOL    HW181058   8.656   8.819   7.507 -1.1983  0.0894  0.5250
23111SOL    HW281059   8.551   8.736   7.436 -0.1728 -1.5775  0.8808
23112SOL     OW81060  12.236  11.479  10.572 -0.5230 -0.1948  0.1711
23112SOL    HW181061  12.191  11.549  10.621 -0.1275  1.7965 -2.1121
23112SOL    HW281062  12.165  11.423  10.540 -1.0253  0.3824  0.2473
23113SOL     OW81063   3.060   0.636   5.629 -0.0825  0.0495 -0.4282
23113SOL    HW181064   2.964   0.641   5.636  0.0188 -0.1554  2.1996
23113SOL    HW281065   3.091   0.713   5.677  1.0880 -0.0551 -0.9936
23114SOL     OW81066   3.889   9.051   2.004 -0.0590 -0.0793  0.0307
23114SOL    HW181067   3.823   9.033   2.071  0.0848 -1.7054 -0.2208
23114SOL    HW281068   3.881   8.978   1.943  0.2081  1.0724 -1.4262
23115SOL     OW81069   1.185   1.288   8.741  0.3243  0.3133 -0.3964
23115SOL    HW181070   1.112   1.340   8.706 -2.3566  0.4719  4.6199
23115SOL    HW281071   1.156   1.197   8.730  0.9830  0.1943 -1.3006
23116SOL     OW81072   4.087  11.549   7.473 -0.7462 -0.2546 -0.1640
23116SOL    HW181073   4.041  11.627   7.505 -0.2720 -0.1566  0.2816
23116SOL    HW281074   4.141  11.581   7.401  1.0057  0.2445  1.2994
23117SOL     OW81075   5.732  11.401   9.751 -0.4860 -0.2314  0.0780
23117SOL    HW181076   5.809  11.419   9.697 -0.0256  0.6298  0.9819
23117SOL    HW281077   5.737  11.308   9.769 -0.0481 -0.3196 -0.4674
23118SOL     OW81078  12.145   8.265   4.629  0.3783  0.4113 -0.0123
23118SOL    HW181079  12.182   8.291   4.544 -0.6981  0.5192 -0.4668
23118SOL    HW281080  12.074   8.327   4.644  0.5888  0.4120  0.9961
23119SOL     OW81081   9.645  13.495   9.557  0.1935 -0.1190  0.5110
23119SOL    HW181082   9.730  13.451   9.558  0.1338 -0.2539  2.1231
23119SOL    HW281083   9.582  13.426   9.579 -0.3686 -0.0389 -0.7391
23120SOL     OW81084   0.558  13.415   1.983  0.0341 -0.0311  0.3511
23120SOL    HW181085   0.509  13.484   2.029  1.2833  2.3165 -1.6028
23120SOL    HW281086   0.501  13.390   1.911 -0.5379 -1.3348  1.2184
23121SOL     OW81087  12.530  10.303   5.656  0.1958  0.6418 -0.3614
23121SOL    HW181088  12.468  10.231   5.666  1.3787 -0.4404 -0.6359
23121SOL    HW281089  12.492  10.374   5.708 -0.6887 -0.3681  0.4242
23122SOL     OW81090   1.477   8.725   8.273  0.6621  0.0948 -0.1406
23122SOL    HW181091   1.469   8.650   8.213  1.2680 -1.9471  2.1850
23122SOL    HW281092   1.510   8.687   8.354 -0.5016  2.6715  1.6513
23123SOL     OW81093   5.474   7.308   9.079  0.1523 -0.4283 -0.4054
23123SOL    HW181094   5.438   7.381   9.128 -0.7215 -0.6404 -0.7132
23123SOL    HW281095   5.397   7.260   9.047  0.6935 -1.6848  0.0987
23124SOL     OW81096   7.539  10.682   4.313  0.2761  0.6629 -0.0999
23124SOL    HW181097   7.587  10.713   4.236  0.7799  1.2186  0.4202
23124SOL    HW281098   7.607  10.650   4.372 -0.1254  0.0286  0.0230
23125SOL     OW81099   1.894   3.819   7.997 -0.2401 -0.6283 -0.4035
23125SOL    HW181100   1.969   3.864   8.034 -0.1377 -1.8250  0.9251
23125SOL    HW281101   1.820   3.877   8.013 -0.0475 -0.7201  0.9168
23126SOL     OW81102   1.756   0.906   0.892 -0.0766  0.1174 -0.1782
23126SOL    HW181103   1.750   0.868   0.979  1.0410  1.6507  0.6111
23126SOL    HW281104   1.842   0.948   0.889 -1.0429  2.2000 -1.1117
23127SOL     OW81105  13.337   3.844   5.613 -0.0499  0.3200  0.1600
23127SOL    HW181106  13.363   3.780   5.679 -1.7316 -0.3073  0.2659
23127SOL    HW281107  13.293   3.792   5.546 -0.5324  1.2497 -0.2579
23128SOL     OW81108   1.081  12.092  13.577  0.1228  0.4767 -0.2916
23128SOL    HW181109   1.013  12.025  13.573 -1.6256  2.1607  0.0676
23128SOL    HW281110   1.113  12.089  13.667  0.3369 -0.1109 -0.3799
23129SOL     OW81111   7.653  10.105   6.902 -0.4471 -0.3856  0.1433
23129SOL    HW181112   7.638  10.013   6.879 -0.3553 -0.6840  1.1836
23129SOL    HW281113   7.744  10.107   6.931 -1.3440 -0.7973  3.5453
23130SOL     OW81114   7.416  11.680  13.226  0.3012  0.0881  0.3971
23130SOL    HW181115   7.335  11.686  13.176 -0.1210  0.5668  1.1058
23130SOL    HW281116   7.471  11.618  13.178  0.0766  0.8319 -0.8628
23131SOL     OW81117   4.008   9.989   3.518 -0.5980 -0.1705  0.4949
23131SOL    HW181118   4.028  10.035   3.437 -1.0983 -0.5091  0.1788
23131SOL    HW281119   4.074  10.020   3.580 -1.1711  1.2782  0.4047
23132SOL     OW81120   6.450  12.297  12.549 -0.1597  0.4428 -0.0302
23132SOL    HW181121   6.373  12.245  12.527  0.7425 -0.6624 -0.7331
23132SOL    HW281122   6.496  12.246  12.615 -0.4831  1.5461  1.0874
23133SOL     OW81123  12.403   2.323   6.621  0.3294 -0.4390  0.0403
23133SOL    HW181124  12.482   2.353   6.575  1.6371  0.4285  2.6354
23133SOL    HW281125  12.364   2.404   6.656 -0.9425 -0.9995 -0.0287
23134SOL     OW81126   8.807  11.350  10.136  0.3162  0.1481 -0.4832
23134SOL    HW181127   8.724  11.396  10.150  0.0562 -0.8193  1.4872
23134SOL    HW281128   8.789  11.291  10.063 -1.3487 -1.2577  0.9431
23135SOL     OW81129   5.156   8.978   6.690 -0.1788 -0.1389 -0.4835
23135SOL    HW181130   5.231   9.038   6.687 -0.6889  0.5494 -4.3371
23135SOL    HW281131   5.116   8.994   6.775  2.7728  1.0173  0.8302
23136SOL     OW81132   0.138   9.098   0.072 -0.0633 -0.1912 -0.4198
23136SOL    HW181133   0.217   9.075   0.024 -0.9611 -0.3668 -1.8774
23136SOL    HW281134   0.082   9.140   0.008  0.0738  2.9142  1.3105
23137SOL     OW81135   3.346  13.182  11.931  0.3462 -0.0978 -0.1991
23137SOL    HW181136   3.425  13.134  11.906  1.3607  1.7310 -0.6295
23137SOL    HW281137   3.278  13.115  11.932  1.6261 -1.4939 -1.1094
23138SOL     OW81138   9.364   4.078   0.440  0.2870  0.5144  0.2777
23138SOL    HW181139   9.381   3.986   0.418 -0.2555  0.2857  0.7843
23138SOL    HW281140   9.365   4.080   0.536 -1.0797  0.7532  0.3114
23139SOL     OW81141  13.304   7.693   4.417  0.2461  0.2151 -0.1102
23139SOL    HW181142  13.338   7.676   4.329 -0.7771  1.3052 -0.7476
23139SOL    HW281143  13.213   7.720   4.402  0.1753  0.7900  1.2634
23140SOL     OW81144   9.493   8.939   8.418  0.0827 -0.0522 -0.1294
23140SOL    HW181145   9.422   8.951   8.355  0.6015 -1.1939 -0.9565
23140SOL    HW281146   9.497   9.023   8.465 -0.9603  0.4744 -0.9313
23141SOL     OW81147   0.438   8.401   3.609  0.3601  0.0818 -0.7150
23141SOL    HW181148   0.355   8.385   3.565 -1.3621  2.0825  1.5558
23141SOL    HW281149   0.438   8.343   3.685  0.8356  0.4059 -0.4598
23142SOL     OW81150   0.628  11.211   2.688 -0.8237  0.6603 -0.4454
23142SOL    HW181151   0.614  11.282   2.626  0.1326  0.5860 -0.7630
23142SOL    HW281152   0.640  11.254   2.773 -0.5421  0.8600 -0.5869
23143SOL     OW81153  12.046   1.279   0.844  0.1630 -0.2989 -0.3333
23143SOL    HW181154  12.035   1.367   0.808  2.6153 -0.9399 -3.0466
23143SOL    HW281155  11.961   1.258   0.882 -1.3181  2.2303 -1.9694
23144SOL     OW81156   4.372  11.874   0.428  0.5610 -0.2134 -0.6948
23144SOL    HW181157   4.409  11.788   0.409 -0.7235 -1.1555  0.8070
23144SOL    HW281158   4.376  11.921   0.344  0.7409 -1.9341 -1.7020
23145SOL     OW81159  11.558   2.105   0.533 -0.0189 -0.1378 -0.1236
23145SOL    HW181160  11.575   2.045   0.461 -1.1510  2.1621 -2.4565
23145SOL    HW281161  11.639   2.106   0.584  0.4930 -2.5110 -0.8039
23146SOL     OW81162   4.938   1.714   3.290  0.1054  0.2547 -0.5402
23146SOL    HW181163   4.861   1.663   3.265  0.2728 -1.8280  2.6969
23146SOL    HW281164   5.010   1.651   3.288  0.6381  0.6944  1.8910
23147SOL     OW81165   3.932  12.257   3.192  0.1247  0.0367 -0.0950
23147SOL    HW181166   3.923  12.245   3.286 -1.9483  2.5575  0.1274
23147SOL    HW281167   3.850  12.300   3.165  1.2485  0.6848 -2.7949
23148SOL     OW81168   3.121   0.061   0.881 -0.0707  1.0583  0.2370
23148SOL    HW181169   3.180   0.111   0.937 -1.3894  1.8744  0.9702
23148SOL    HW281170   3.078  -0.000   0.940  0.5179  0.0010 -0.4073
23149SOL     OW81171   0.454   2.476  10.247  0.3757  0.5170 -0.1097
23149SOL    HW181172   0.513   2.542  10.282 -0.5302  0.9785  0.5959
23149SOL    HW281173   0.394   2.457  10.319  0.0197 -0.3642 -0.6189
23150SOL     OW81174   9.408   5.334   2.702 -0.0905 -0.0783 -0.5549
23150SOL    HW181175   9.428   5.425   2.724  0.6643 -0.6492  1.3496
23150SOL    HW281176   9.435   5.284   2.780  2.1952 -2.2940 -2.5836
23151SOL     OW81177   0.594   1.689   7.717 -1.0822  0.1195  0.9270
23151SOL    HW181178   0.528   1.740   7.764 -0.7235 -0.4502  2.0768
23151SOL    HW281179   0.675   1.739   7.727 -1.1734  0.4553  0.1173
23152SOL     OW81180   1.472   4.661   1.567  0.5181 -0.5095 -0.4218
23152SOL    HW181181   1.509   4.604   1.500 -1.1027  0.3050 -2.1077
23152SOL    HW281182   1.494   4.750   1.539  0.1963 -0.1618  0.3746
23153SOL     OW81183  10.550   0.339  10.570 -0.3857  0.6196 -0.2053
23153SOL    HW181184  10.594   0.419  10.543 -0.8161  0.8776 -0.1590
23153SOL    HW281185  10.527   0.354  10.662 -0.7425  0.5736 -0.2834
23154SOL     OW81186   4.347  11.950   0.150 -0.5015  0.1256 -0.3064
23154SOL    HW181187   4.398  11.981   0.075 -0.5059  0.7369 -0.0657
23154SOL    HW281188   4.265  11.918   0.111 -0.3121  0.0006 -0.6053
23155SOL     OW81189  12.870   1.418   6.831  0.4906 -0.0235 -0.0829
23155SOL    HW181190  12.844   1.332   6.798 -0.9427 -0.0815  1.1101
23155SOL    HW281191  12.810   1.479   6.789 -0.1257  0.1008  0.9451
23156SOL     OW81192   0.708   1.075   2.159  0.2202 -0.1785 -0.1636
23156SOL    HW181193   0.718   1.052   2.252  0.3628  1.8809  0.3923
23156SOL    HW281194   0.648   1.010   2.124 -0.9579 -0.1882  1.7331
23157SOL     OW81195   5.989   1.605   7.333  0.0301  0.2658 -0.1307
23157SOL    HW181196   6.028   1.534   7.283 -0.2481 -0.5633  0.7933
23157SOL    HW281197   6.017   1.588   7.424 -0.4310  1.0662  0.1707
23158SOL     OW81198   8.502  10.970  13.302 -0.1841 -0.0010  0.0276
23158SOL    HW181199   8.431  10.923  13.345 -0.1452 -0.7260 -0.6752
23158SOL    HW281200   8.461  11.014  13.228  0.1212 -0.6405 -0.5395
23159SOL     OW81201   9.361  10.330   5.029  0.2302  0.3447 -0.0188
23159SOL    HW181202   9.424  10.328   5.102 -0.7231 -0.1628  0.8093
23159SOL    HW281203   9.375  10.247   4.984  0.6990  0.5835 -0.3259
23160SOL     OW81204  10.125   2.229   0.846  0.3527 -0.0675  0.3244
23160SOL    HW181205  10.192   2.290   0.816 -0.7207  0.5937 -0.7917
23160SOL    HW281206  10.082   2.274   0.919 -0.2885  0.4407 -0.3527
23161SOL     OW81207   4.769  12.994   5.205  0.4940 -0.1639 -0.7931
23161SOL    HW181208   4.833  12.932   5.170  1.0002  0.3315 -0.7624
23161SOL    HW281209   4.806  13.080   5.186  1.1371  0.1401  1.5771
23162SOL     OW81210   1.722   5.419   1.239 -0.4752  0.3796 -0.1085
23162SOL    HW181211   1.719   5.355   1.310 -1.9542  1.0105  0.4162
23162SOL    HW281212   1.707   5.367   1.160  0.5092 -0.2244  0.0767
23163SOL     OW81213   5.447   7.578   3.850  0.2283  0.0444 -0.0047
23163SOL    HW181214   5.443   7.673   3.859 -1.8444 -0.0693  0.6998
23163SOL    HW281215   5.428   7.561   3.758 -0.6852  0.2782  0.1312
23164SOL     OW81216   1.656   5.678   3.094  0.1169  0.2642 -0.1599
23164SOL    HW181217   1.710   5.744   3.051 -0.6225 -0.1598 -1.8083
23164SOL    HW281218   1.588   5.729   3.140  0.6460  0.7074  0.1439
23165SOL     OW81219   3.893   1.355   6.672  0.2700  0.1981 -0.0838
23165SOL    HW181220   3.828   1.346   6.603 -0.3256  2.7263  0.0636
23165SOL    HW281221   3.976   1.329   6.631 -0.3461 -0.0897 -1.1775
23166SOL     OW81222  12.470   9.173   5.820  0.1126 -0.3536 -0.0769
23166SOL    HW181223  12.483   9.117   5.896  1.4790  1.0313  0.7450
23166SOL    HW281224  12.421   9.248   5.853  0.6480  0.2212 -0.5745
23167SOL     OW81225  12.925   8.586   4.322 -0.6529  0.4435 -0.0143
23167SOL    HW181226  12.842   8.538   4.322 -0.0329 -0.6674 -0.4161
23167SOL    HW281227  12.966   8.563   4.405 -0.1969 -0.0099 -0.3612
23168SOL     OW81228  10.234   3.889  13.579 -0.2720 -0.8665 -0.1119
23168SOL    HW181229  10.296   3.844  13.636  0.2921  0.6720  0.5314
23168SOL    HW281230  10.153   3.893  13.629  0.3456  0.8699  0.8153
23169SOL     OW81231   5.066   2.766  12.038  0.6650  0.4916  0.2047
23169SOL    HW181232   5.008   2.821  12.091 -1.7604 -1.7080 -0.0109
23169SOL    HW281233   5.093   2.696  12.097  1.4568  0.3588 -0.3014
23170SOL     OW81234   4.357   5.537  12.914  0.0237  0.2375 -0.1541
23170SOL    HW181235   4.401   5.592  12.978  1.7872  0.2652 -1.3140
23170SOL    HW281236   4.343   5.454  12.959 -1.9691  1.3082  1.3544
23171SOL     OW81237   4.165   5.629  12.015  0.8773  0.1106  0.0119
23171SOL    HW181238   4.098   5.642  12.082 -0.0541  1.1473 -1.0878
23171SOL    HW281239   4.131   5.560  11.959  1.0884  0.0906 -0.0937
23172SOL     OW81240   0.861   3.272   2.314  0.4246 -0.3152  0.1248
23172SOL    HW181241   0.904   3.229   2.388  0.5226  1.6846  1.2961
23172SOL    HW281242   0.898   3.360   2.312 -2.5726  1.1050  0.3724
23173SOL     OW81243   5.814   4.407  12.872  0.1901 -0.8336 -0.2690
23173SOL    HW181244   5.734   4.449  12.903  0.1811 -2.0524  1.5231
23173SOL    HW281245   5.873   4.479  12.850 -1.3818  0.0806 -1.7205
23174SOL     OW81246   2.794   0.239   3.714  0.1433  0.4834  0.2016
23174SOL    HW181247   2.704   0.223   3.743 -0.4549  0.3995 -1.5840
23174SOL    HW281248   2.844   0.163   3.746 -1.3551 -1.8975 -2.5935
23175SOL     OW81249  10.956  12.661   4.584 -0.3758  0.1455 -0.3285
23175SOL    HW181250  10.864  12.633   4.591 -0.2861 -0.3991 -1.1534
23175SOL    HW281251  11.001  12.612   4.653 -1.4976  4.4746  4.0333
23176SOL     OW81252   9.240  10.148  11.895 -0.3113 -0.3417  0.2907
23176SOL    HW181253   9.256  10.170  11.804 -1.2098 -1.7750 -0.2451
23176SOL    HW281254   9.163  10.199  11.920 -0.7831 -0.8331 -0.1330
23177SOL     OW81255  12.219  11.150   1.587 -0.4754  0.2045 -0.0643
23177SOL    HW181256  12.213  11.080   1.652 -0.5907 -0.0479 -0.3435
23177SOL    HW281257  12.312  11.157   1.566 -0.2249  1.3550  1.2769
23178SOL     OW81258   1.799   5.973  13.040 -0.1732  0.2066 -0.4018
23178SOL    HW181259   1.823   5.928  12.959  0.3175 -0.5144  0.1229
23178SOL    HW281260   1.774   5.902  13.100 -2.0251  0.8353 -0.3901
23179SOL     OW81261   6.188  13.333   4.965  0.1252  0.3477  0.7857
23179SOL    HW181262   6.120  13.399   4.952  1.4648  1.4762 -0.8393
23179SOL    HW281263   6.206  13.300   4.877  1.4392 -0.1733  1.2288
23180SOL     OW81264   8.620  12.409   7.568 -0.5781  0.5436 -0.1789
23180SOL    HW181265   8.700  12.460   7.559  0.2102  0.1122  2.9575
23180SOL    HW281266   8.644  12.321   7.541 -0.3662  0.6891 -0.4717
23181SOL     OW81267   5.887  13.192   7.275  0.2951  0.5344  0.1861
23181SOL    HW181268   5.926  13.277   7.250  0.0293  0.5887 -0.0495
23181SOL    HW281269   5.870  13.149   7.191  0.3943  0.2605  0.3051
23182SOL     OW81270  12.068   8.556   7.185 -0.5623  0.1260  0.5301
23182SOL    HW181271  12.141   8.517   7.233 -1.9578 -1.4881  1.4307
23182SOL    HW281272  12.029   8.619   7.246 -1.3482 -0.7447  0.9415
23183SOL     OW81273   2.436  10.767   0.812 -0.5084 -0.0192  0.1831
23183SOL    HW181274   2.518  10.739   0.852  1.1982  2.1735 -1.5300
23183SOL    HW281275   2.409  10.693   0.758  0.5439 -0.6287  0.4658
23184SOL     OW81276  12.307   0.146   0.446  0.2852 -0.0636  0.1905
23184SOL    HW181277  12.221   0.134   0.407  0.0684  1.0286  0.3215
23184SOL    HW281278  12.368   0.136   0.373  0.3308 -3.7367  0.5159
23185SOL     OW81279  13.029   6.918   5.250  0.2964  0.3042  0.2657
23185SOL    HW181280  13.124   6.918   5.256  0.3662 -1.8943 -0.1516
23185SOL    HW281281  13.011   6.956   5.164  0.9251 -1.0716 -0.5106
23186SOL     OW81282   9.498   2.689  10.453 -0.2482  0.1465 -0.6332
23186SOL    HW181283   9.437   2.658  10.386 -1.2903  1.9533 -0.5778
23186SOL    HW281284   9.442   2.713  10.527  0.7986 -0.8561  0.5318
23187SOL     OW81285   2.266   2.655   6.276  0.0847  0.1678 -0.1379
23187SOL    HW181286   2.194   2.610   6.319  1.2711 -2.2035 -0.5088
23187SOL    HW281287   2.306   2.590   6.219  0.4751  2.3467 -2.5450
23188SOL     OW81288   8.981   7.382  11.136 -0.4325  0.2251  0.3634
23188SOL    HW181289   8.967   7.474  11.112  1.8220  0.8205  1.1129
23188SOL    HW281290   8.952   7.377  11.227 -2.2056 -0.2855 -0.1871
23189SOL     OW81291   6.932   5.020  13.330 -0.0209  0.5974  0.1402
23189SOL    HW181292   6.894   5.054  13.411 -3.1311  0.8214 -1.3031
23189SOL    HW281293   6.987   5.092  13.299  1.5023  0.3946  2.1122
23190SOL     OW81294  11.538   5.506  10.003 -0.4698 -0.5334  0.0711
23190SOL    HW181295  11.511   5.417   9.980  0.7101 -1.1874  1.1370
23190SOL    HW281296  11.621   5.519   9.958 -0.4263 -0.1257  0.2618
23191SOL     OW81297  12.217   7.722   2.816 -0.8409  0.2220 -0.1983
23191SOL    HW181298  12.195   7.810   2.784 -1.1746  0.7945  1.4959
23191SOL    HW281299  12.298   7.734   2.865 -1.0497 -0.3681  0.2951
23192SOL     OW81300   7.094  12.062   7.929 -0.3731 -0.6212 -0.0920
23192SOL    HW181301   7.010  12.096   7.899  0.2880  0.4908 -0.8076
23192SOL    HW281302   7.128  12.014   7.854  0.1553 -0.0217 -0.2482
23193SOL     OW81303   2.841   9.911   6.773 -0.6672  0.0357  0.1790
23193SOL    HW181304   2.860  10.004   6.780  1.3505 -0.3177  0.2592
23193SOL    HW281305   2.750   9.906   6.747 -1.6505  1.9682  2.8041
23194SOL     OW81306  13.699   8.534   0.371  0.0071  0.5239 -0.6350
23194SOL    HW181307  13.675   8.442   0.358 -1.9315  0.3972  2.6755
23194SOL    HW281308  13.759   8.533   0.445 -0.0744  1.9206 -0.5200
23195SOL     OW81309   6.994   6.702   9.814 -0.1979 -0.7501  0.3940
23195SOL    HW181310   7.065   6.694   9.750  0.6063  0.4533  1.1008
23195SOL    HW281311   7.019   6.644   9.886 -0.7576 -1.5705 -0.0580
23196SOL     OW81312  13.483   3.055   2.646 -0.1414  0.1774 -0.3178
23196SOL    HW181313  13.495   3.107   2.566  1.4348  0.3398  0.0041
23196SOL    HW281314  13.388   3.055   2.659 -0.4028  0.5498 -1.9158
23197SOL     OW81315   1.969   8.755   5.861  0.1157 -0.1284 -0.0424
23197SOL    HW181316   1.998   8.802   5.939  0.1032 -0.0294 -0.0970
23197SOL    HW281317   1.938   8.823   5.801  0.7902 -0.1358 -0.4162
23198SOL     OW81318   5.827   3.328   0.611 -0.2991  0.0149 -0.4711
23198SOL    HW181319   5.905   3.310   0.664 -0.2837  1.3886  0.0288
23198SOL    HW281320   5.754   3.321   0.673 -0.2788  1.6738 -0.2141
23199SOL     OW81321  12.925   4.923   9.437  0.3772 -0.2987  0.1481
23199SOL    HW181322  12.878   4.964   9.364 -0.7617 -0.2071  0.9099
23199SOL    HW281323  13.003   4.884   9.396  0.0680  0.2596 -1.0177
23200SOL     OW81324  12.787   0.644   9.773  0.6019  0.0094 -0.3015
23200SOL    HW181325  12.765   0.691   9.854  0.1276 -2.8588  1.3769
23200SOL    HW281326  12.702   0.622   9.734  0.7207 -1.4619  0.2230
23201SOL     OW81327  12.876   9.223  11.003  0.0466  0.1414 -0.7685
23201SOL    HW181328  12.838   9.198  10.919  1.9213 -1.0919 -1.3200
23201SOL    HW281329  12.909   9.312  10.989 -1.5206  0.7617 -0.6438
23202SOL     OW81330   0.149  10.190  13.465  0.3126  0.2702 -0.4475
23202SOL    HW181331   0.081  10.220  13.405  0.1621 -0.3154 -0.5818
23202SOL    HW281332   0.207  10.137  13.410 -1.0758 -2.2072  0.2959
23203SOL     OW81333   5.007  13.177   3.427  0.2120  0.4884  0.3376
23203SOL    HW181334   4.946  13.107   3.406  1.5693 -0.1740 -1.7495
23203SOL    HW281335   5.003  13.184   3.522 -0.4627 -2.0039  0.5796
23204SOL     OW81336  12.990   2.744   7.956 -0.2097  0.0823 -0.1790
23204SOL    HW181337  13.080   2.770   7.974  0.3341 -1.9732  0.3384
23204SOL    HW281338  12.997   2.676   7.889 -0.9176 -2.8362  2.4497
23205SOL     OW81339  10.368   2.558   9.271 -0.1830  0.6205  0.0101
23205SOL    HW181340  10.352   2.641   9.226 -2.0769  0.6281  0.5812
23205SOL    HW281341  10.395   2.498   9.202  1.1824  1.6629 -0.4209
23206SOL     OW81342   6.361  10.992   6.415 -0.0220  0.1238 -0.3879
23206SOL    HW181343   6.296  10.976   6.483 -1.6834  1.1728 -1.6275
23206SOL    HW281344   6.376  10.906   6.375 -0.3838 -0.1995  0.1581
23207SOL     OW81345   7.688  10.738   1.234  0.1673 -0.4337 -0.1765
23207SOL    HW181346   7.666  10.652   1.271  0.8370 -0.3381  0.4718
23207SOL    HW281347   7.766  10.766   1.283 -0.0478  0.5450 -0.3753
23208SOL     OW81348   4.458   9.179  11.830 -0.2535 -0.4522  0.5076
23208SOL    HW181349   4.364   9.186  11.848 -0.6523  0.5765 -1.6951
23208SOL    HW281350   4.463   9.118  11.757  0.6568  0.5705 -0.3045
23209SOL     OW81351  10.290   5.663   1.863  0.8845  0.3569 -0.0964
23209SOL    HW181352  10.264   5.584   1.816 -1.1762  1.3773 -0.7682
23209SOL    HW281353  10.315   5.632   1.950 -0.1736 -1.0004 -0.2481
23210SOL     OW81354   7.332   2.409   4.690 -0.2486  0.2659 -0.0689
23210SOL    HW181355   7.326   2.330   4.745  1.5139 -0.0980 -0.3356
23210SOL    HW281356   7.309   2.379   4.603  0.5338 -0.0146 -0.1931
23211SOL     OW81357   6.532   7.852  13.530 -0.9627  0.2918 -0.2360
23211SOL    HW181358   6.479   7.797  13.587  1.0211 -0.8514  0.6151
23211SOL    HW281359   6.557   7.795  13.457  4.1424 -1.4606  2.4098
23212SOL     OW81360   2.635  12.507  13.514 -0.6658 -0.4444 -0.5917
23212SOL    HW181361   2.711  12.509  13.572 -0.5148  0.3188 -0.8063
23212SOL    HW281362   2.587  12.587  13.535 -1.1021 -0.6316 -0.8670
23213SOL     OW81363   3.760   6.311   2.683 -0.2131  0.2473  0.1547
23213SOL    HW181364   3.723   6.376   2.742 -0.7821  0.1934 -0.1386
23213SOL    HW281365   3.776   6.358   2.602  1.8007  0.6478  0.7332
23214SOL     OW81366   4.499   8.904   2.529  0.1404 -0.2288  0.2951
23214SOL    HW181367   4.587   8.931   2.504  0.4395 -0.8113  0.7285
23214SOL    HW281368   4.480   8.953   2.609  0.7205 -1.3471  1.1359
23215SOL     OW81369   3.984  13.254   0.237  0.4008  0.2589 -0.7530
23215SOL    HW181370   3.980  13.168   0.193 -0.8385  1.1940 -2.5862
23215SOL    HW281371   4.076  13.279   0.230  1.2488 -1.8059  1.7168
23216SOL     OW81372   1.829  11.936  12.753 -0.3177  0.0106 -0.9721
23216SOL    HW181373   1.753  11.896  12.795 -1.0504  1.5489 -0.7544
23216SOL    HW281374   1.902  11.916  12.811 -0.7655 -0.5186 -0.5889
23217SOL     OW81375  13.136   2.815   1.114  0.3302  0.3692 -0.4729
23217SOL    HW181376  13.069   2.753   1.086  0.7480  0.3286 -1.4216
23217SOL    HW281377  13.088   2.888   1.152 -0.3114  0.8463 -2.1490
23218SOL     OW81378   7.835   8.246   6.139 -0.3774 -0.5515 -0.1862
23218SOL    HW181379   7.890   8.321   6.115 -1.6745  0.0244 -1.5006
23218SOL    HW281380   7.746   8.280   6.138 -0.7925 -1.3169  2.4989
23219SOL     OW81381  11.903   7.664   3.696 -0.2169 -0.1997  0.3695
23219SOL    HW181382  11.949   7.716   3.631 -1.7166  1.1880  0.3690
23219SOL    HW281383  11.962   7.661   3.771 -0.1070  1.5332  0.3764
23220SOL     OW81384   0.330   6.763   6.430 -0.3844 -0.0985  0.0006
23220SOL    HW181385   0.353   6.853   6.451  0.3052 -0.3894  0.5524
23220SOL    HW281386   0.241   6.768   6.395 -0.7809  0.6685  1.0637
23221SOL     OW81387  12.609  10.641   2.284  0.0402 -0.1698  0.2015
23221SOL    HW181388  12.563  10.564   2.252 -0.9710  0.5948 -0.2386
23221SOL    HW281389  12.660  10.671   2.210 -0.2160  0.0605  0.1165
23222SOL     OW81390  13.576   0.193   4.062 -0.0632  0.1761  0.4968
23222SOL    HW181391  13.615   0.220   4.145  0.7177 -0.7747  0.4428
23222SOL    HW281392  13.504   0.255   4.049  1.1897  1.7512  0.7699
23223SOL     OW81393   7.226  11.478   9.909  0.0097 -0.3803 -0.0806
23223SOL    HW181394   7.265  11.391   9.913  0.2582 -0.3920 -2.0976
23223SOL    HW281395   7.244  11.509   9.820 -0.0244  1.7649  0.6052
23224SOL     OW81396   0.579   1.686   2.268  0.7852  0.2025  0.0860
23224SOL    HW181397   0.549   1.611   2.320 -0.7221  0.2651 -0.6339
23224SOL    HW281398   0.506   1.748   2.273  1.3934  0.9869 -0.5862
23225SOL     OW81399  10.210  10.318  12.105  0.1077 -0.2637  0.3019
23225SOL    HW181400  10.156  10.390  12.073  0.1122 -0.4263 -0.0739
23225SOL    HW281401  10.299  10.340  12.075  0.4118  0.4345  1.6297
23226SOL     OW81402  13.350   0.006   2.283 -0.6150 -0.3802  0.0254
23226SOL    HW181403  13.265  -0.020   2.319 -0.4801  1.3058  1.7460
23226SOL    HW281404  13.395   0.048   2.357  1.1298  0.1031 -1.2466
23227SOL     OW81405   5.744   2.211   6.108 -0.1877 -0.2079 -0.4033
23227SOL    HW181406   5.677   2.180   6.170  0.1373 -0.4938 -0.1875
23227SOL    HW281407   5.808   2.140   6.107 -0.0137 -0.0399 -0.7975
23228SOL     OW81408   2.180   6.418   5.924  0.2316  0.6903  0.8990
23228SOL    HW181409   2.234   6.354   5.971  2.2740  1.2019 -0.6226
23228SOL    HW281410   2.108   6.366   5.887  1.2264 -0.5372  0.6418
23229SOL     OW81411   2.899  11.249   7.743  0.2871 -0.0834 -0.1744
23229SOL    HW181412   2.975  11.268   7.797 -0.4867  1.2230  0.4873
23229SOL    HW281413   2.883  11.156   7.755  1.5493 -0.2948 -0.0379
23230SOL     OW81414   5.422   2.055   7.399 -0.1434  0.3185  0.0705
23230SOL    HW181415   5.478   2.062   7.322  0.1956 -0.6248  0.2061
23230SOL    HW281416   5.395   1.963   7.400 -2.2526  0.8736 -0.3555
23231SOL     OW81417   6.829  10.284  11.091  0.2619  0.9070 -0.0765
23231SOL    HW181418   6.795  10.195  11.085  0.5910  0.7275  0.6454
23231SOL    HW281419   6.918  10.273  11.125  1.0290  1.3684 -1.8134
23232SOL     OW81420   3.356   8.125   5.460  0.0647  0.3904  0.1652
23232SOL    HW181421   3.356   8.216   5.433  2.0763 -0.2865 -2.5670
23232SOL    HW281422   3.319   8.077   5.386  0.5943 -1.1513  0.8364
23233SOL     OW81423   5.575  12.523  12.363  0.4475  0.6001  0.1701
23233SOL    HW181424   5.645  12.525  12.428  0.8748 -0.4077 -0.2321
23233SOL    HW281425   5.503  12.571  12.403  1.1453  1.0997  0.8524
23234SOL     OW81426   2.245   9.202   1.182 -0.5500  0.6260 -0.1373
23234SOL    HW181427   2.323   9.177   1.232 -1.0601 -0.2359  0.2467
23234SOL    HW281428   2.243   9.139   1.109 -0.1182  1.5278 -0.9540
23235SOL     OW81429   6.967   5.593  11.042 -0.2723  0.2230 -0.0707
23235SOL    HW181430   6.934   5.639  10.965  1.2338  0.5202 -0.5848
23235SOL    HW281431   6.925   5.637  11.116 -0.7228  0.8174 -0.6684
23236SOL     OW81432   6.759  11.348   0.805 -0.0675 -0.3707  0.1784
23236SOL    HW181433   6.720  11.279   0.751 -0.9884  0.3687 -0.1348
23236SOL    HW281434   6.853  11.336   0.795 -0.2113 -1.5190  0.0560
23237SOL     OW81435   5.512   2.172  12.034  0.0598 -0.5090  0.5503
23237SOL    HW181436   5.474   2.219  12.109  0.2693  1.6813 -0.6508
23237SOL    HW281437   5.451   2.188  11.962  1.0129 -0.6709 -0.3165
23238SOL     OW81438  13.078  12.111   8.400  0.0210 -0.0153 -0.2827
23238SOL    HW181439  12.984  12.103   8.381 -0.8730  1.5270  2.7221
23238SOL    HW281440  13.100  12.029   8.445  0.4005 -0.7878 -1.8361
23239SOL     OW81441   7.200  10.224   0.759 -0.3791  0.1746  0.7589
23239SOL    HW181442   7.225  10.151   0.703  0.6435 -0.8054  2.4082
23239SOL    HW281443   7.104  10.224   0.757 -0.3864 -0.7800  0.2105
23240SOL     OW81444   6.380  11.714   2.721 -0.1021 -0.0963 -0.6829
23240SOL    HW181445   6.366  11.790   2.665 -1.1050 -0.4315 -0.9117
23240SOL    HW281446   6.292  11.689   2.750  0.4063  0.2463  1.3085
23241SOL     OW81447   6.247  12.121   5.458  0.1649 -0.2129 -0.6191
23241SOL    HW181448   6.216  12.031   5.452  1.1093 -0.5709 -0.2866
23241SOL    HW281449   6.339  12.113   5.482 -0.4635  0.8696  2.6088
23242SOL     OW81450   2.618   5.342   1.143  0.4824 -0.1380  0.3982
23242SOL    HW181451   2.523   5.341   1.132  0.4946 -1.3519  0.2647
23242SOL    HW281452   2.651   5.381   1.062  0.1054  0.3275  0.4628
23243SOL     OW81453   2.458   2.646   7.137  0.2502 -0.0803 -0.0693
23243SOL    HW181454   2.459   2.585   7.210  1.8987  0.0087  0.0180
23243SOL    HW281455   2.547   2.643   7.101  0.2444  1.8853 -0.3753
23244SOL     OW81456   8.438   7.391   8.580 -0.3559  0.5662 -0.0488
23244SOL    HW181457   8.447   7.436   8.663  0.3188  0.9947 -0.3484
23244SOL    HW281458   8.351   7.417   8.548  0.8668  3.5295 -1.2937
23245SOL     OW81459   8.616  10.254  11.581  0.4142  0.1988 -0.1756
23245SOL    HW181460   8.535  10.229  11.538  1.2014  1.6641 -2.7096
23245SOL    HW281461   8.647  10.174  11.623 -1.4918 -0.7819 -0.5341
23246SOL     OW81462   0.327   8.545  11.279  0.4550 -0.3865  0.0699
23246SOL    HW181463   0.287   8.523  11.364 -0.3256 -1.7996 -0.6179
23246SOL    HW281464   0.403   8.598  11.301 -1.2473  1.6261  1.5067
23247SOL     OW81465   9.482   2.359   0.149  0.1702 -0.4859 -0.3866
23247SOL    HW181466   9.548   2.427   0.156  0.4131 -0.8494  1.5462
23247SOL    HW281467   9.531   2.277   0.157 -0.1624 -0.9039 -2.2795
23248SOL     OW81468   7.854   9.473   7.108  0.1175 -0.2358 -0.4080
23248SOL    HW181469   7.896   9.390   7.088  2.8786  0.8752  0.3876
23248SOL    HW281470   7.863   9.483   7.202  0.1921  1.1324 -0.5410
23249SOL     OW81471   6.007  13.068   7.969  0.0061  0.3616  0.3204
23249SOL    HW181472   5.932  13.025   7.928  1.2546 -0.7177 -0.9429
23249SOL    HW281473   5.972  13.108   8.048 -1.9036 -0.0626 -0.2710
23250SOL     OW81474   3.923   2.150   6.073  0.2581  0.2840  0.6443
23250SOL    HW181475   3.900   2.177   6.162 -0.8623 -0.5771  0.6504
23250SOL    HW281476   4.006   2.194   6.054  0.3903  0.6635  2.0226
23251SOL     OW81477   3.878   7.534   6.087  0.5945 -0.2505  0.4264
23251SOL    HW181478   3.818   7.562   6.157  0.7306 -0.3256  0.5755
23251SOL    HW281479   3.925   7.613   6.063 -0.4474  0.0820 -0.5725
23252SOL     OW81480  11.947   2.056   6.911  0.3665  0.2471 -0.0146
23252SOL    HW181481  11.920   2.031   6.999  1.4118 -2.6023 -0.4037
23252SOL    HW281482  12.030   2.009   6.897  2.5267  3.9455 -1.0110
23253SOL     OW81483  10.217   3.914   2.810 -0.3667  0.1591  0.0795
23253SOL    HW181484  10.228   3.947   2.721  0.2646  1.0988  0.4859
23253SOL    HW281485  10.133   3.950   2.839  0.0488  0.9683  0.3164
23254SOL     OW81486   1.623  13.527   4.727  0.1884 -0.1640  0.2450
23254SOL    HW181487   1.661  13.492   4.646 -1.0137  0.5298 -0.6383
23254SOL    HW281488   1.684  13.595   4.755  0.6891 -0.5116  0.0085
23255SOL     OW81489  10.641   6.024  13.213  0.0299  0.3411  0.0957
23255SOL    HW181490  10.640   6.004  13.307 -0.1938 -1.6035 -0.2740
23255SOL    HW281491  10.551   6.050  13.193 -0.1305 -0.0723  0.2683
23256SOL     OW81492  11.843   7.071  13.623  0.6847 -0.1925  0.5062
23256SOL    HW181493  11.917   7.018  13.592  2.3448 -0.2014  4.0034
23256SOL    HW281494  11.880   7.158  13.637 -1.0385  0.9252 -1.3544
23257SOL     OW81495  11.383   4.522  11.981  0.2242  0.9324 -0.1402
23257SOL    HW181496  11.434   4.579  11.923  2.4059 -1.6128 -0.9466
23257SOL    HW281497  11.441   4.505  12.055  0.2606 -1.2807 -0.5972
23258SOL     OW81498   7.128  13.665   3.081 -0.2982 -0.5458 -0.5308
23258SOL    HW181499   7.202  13.605   3.072 -1.3978 -1.9170 -0.9265
23258SOL    HW281500   7.061  13.613   3.126 -1.3624  0.3293 -1.0488
23259SOL     OW81501  11.691  13.222   8.664 -0.4773  0.4224 -0.0095
23259SOL    HW181502  11.638  13.144   8.677 -2.7943  1.8670 -0.3270
23259SOL    HW281503  11.760  13.194   8.604 -0.8724 -1.5091  0.3598
23260SOL     OW81504   9.772  12.759  12.310 -0.0823  0.2580 -0.3252
23260SOL    HW181505   9.778  12.669  12.343 -1.3643  0.4411  0.4618
23260SOL    HW281506   9.815  12.812  12.377  1.1935  0.1957 -1.0650
23261SOL     OW81507  13.606  13.583   8.193 -0.3350 -0.0315  0.2883
23261SOL    HW181508  13.653  13.628   8.263 -1.0942  2.5785 -0.7775
23261SOL    HW281509  13.662  13.593   8.116 -0.6973 -0.6012 -0.0565
23262SOL     OW81510  10.668   7.691   4.739  0.1276 -0.6067  0.3964
23262SOL    HW181511  10.756   7.680   4.775  0.2724 -1.6494 -0.2334
23262SOL    HW281512  10.674   7.771   4.687  0.9941 -1.1929 -0.4399
23263SOL     OW81513  12.942   4.242  10.947  0.4266 -0.4912  0.6101
23263SOL    HW181514  13.015   4.185  10.924  0.5611  0.1658 -0.7117
23263SOL    HW281515  12.933   4.300  10.871 -0.4467  0.4733  1.4295
23264SOL     OW81516   1.022   4.014   8.123 -0.0399  0.2298  0.1900
23264SOL    HW181517   1.059   3.950   8.062  0.0479  0.6904 -0.2460
23264SOL    HW281518   0.963   3.963   8.179 -0.4040 -0.1367 -0.5149
23265SOL     OW81519   9.366   2.845   7.988 -0.2213 -0.2962 -0.3696
23265SOL    HW181520   9.436   2.804   8.038 -0.1398  0.8050  0.4737
23265SOL    HW281521   9.409   2.888   7.914 -0.2635 -1.3658 -1.0321
23266SOL     OW81522  11.231   4.401   4.392 -0.3288 -0.3650 -0.7813
23266SOL    HW181523  11.154   4.354   4.423  0.0999 -0.2278  0.5548
23266SOL    HW281524  11.207   4.494   4.397  0.4643 -0.2359  1.2574
23267SOL     OW81525   7.676   6.052   3.874 -0.5729 -0.1077 -0.3626
23267SOL    HW181526   7.721   5.972   3.900 -1.7754 -0.8695 -0.5822
23267SOL    HW281527   7.679   6.051   3.778 -0.5311  0.1528 -0.3659
23268SOL     OW81528   4.712   8.576   8.999  0.3434  0.2545 -0.3745
23268SOL    HW181529   4.669   8.507   9.050  0.6462  0.9101  0.8192
23268SOL    HW281530   4.768   8.621   9.063  1.2414  0.6985 -1.4434
23269SOL     OW81531  10.834   8.482  12.347 -0.0999  0.0632  0.2553
23269SOL    HW181532  10.844   8.513  12.437  1.1563 -0.7075  0.4050
23269SOL    HW281533  10.910   8.518  12.301 -0.6720  0.3549 -0.4780
23270SOL     OW81534  12.320   7.536   8.883 -0.3836 -0.2214 -0.4320
23270SOL    HW181535  12.321   7.611   8.823 -1.2589  1.0450  1.0603
23270SOL    HW281536  12.351   7.463   8.830 -2.3023  0.5473 -2.8083
23271SOL     OW81537  13.708   0.626  10.217 -0.0839  0.3412 -0.1637
23271SOL    HW181538  13.716   0.703  10.272 -1.1254  0.8577 -0.6887
23271SOL    HW281539  13.614   0.621  10.198 -0.1903 -1.6493  0.6888
23272SOL     OW81540   9.785   6.449   1.978 -0.0082 -0.4924 -0.3571
23272SOL    HW181541   9.715   6.412   2.032 -1.3997  0.0236 -1.7243
23272SOL    HW281542   9.859   6.460   2.038 -1.3492 -0.2893  1.3241
23273SOL     OW81543   2.377  11.081   2.099  0.1918  0.2081  0.6823
23273SOL    HW181544   2.327  11.162   2.108  0.0851  0.2999 -0.5609
23273SOL    HW281545   2.333  11.033   2.028  0.5383 -0.7189  1.0819
23274SOL     OW81546   7.641   6.426   8.737  0.2359  0.2377 -0.4583
23274SOL    HW181547   7.662   6.337   8.764 -1.8348 -0.1516 -0.0164
23274SOL    HW281548   7.682   6.435   8.650  2.4215 -0.3048  0.4331
23275SOL     OW81549   4.545  11.912  11.395 -0.0622 -0.6424  0.3542
23275SOL    HW181550   4.513  11.920  11.485  1.7100 -2.6396  1.2678
23275SOL    HW281551   4.615  11.846  11.401  1.0834  0.2219 -2.2496
23276SOL     OW81552  11.997  11.098  12.659  0.4641 -0.6641  0.4169
23276SOL    HW181553  12.004  11.009  12.625  1.1000 -0.4504 -0.0150
23276SOL    HW281554  12.081  11.114  12.701 -0.8153 -1.5292  3.6520
23277SOL     OW81555  11.447   5.680   6.545 -0.2010  0.1940 -0.2559
23277SOL    HW181556  11.421   5.657   6.634  0.4375 -1.2489 -0.4139
23277SOL    HW281557  11.447   5.597   6.497  2.6415  0.3674 -0.7788
23278SOL     OW81558   2.916   1.285   6.969 -0.3972 -0.1116  0.2450
23278SOL    HW181559   2.955   1.205   6.936  1.5710  0.8533  0.0908
23278SOL    HW281560   2.946   1.353   6.908 -0.6799  0.9835  1.2863
23279SOL     OW81561   7.930  11.495   1.759 -0.1923 -0.0519  0.3854
23279SOL    HW181562   8.002  11.476   1.819  0.6063  0.7854 -0.2811
23279SOL    HW281563   7.947  11.438   1.684 -0.1327  0.2686  0.1575
23280SOL     OW81564   9.640   9.768   7.696  1.0357  0.6484 -0.1833
23280SOL    HW181565   9.664   9.679   7.669  1.0197  1.0436 -1.5357
23280SOL    HW281566   9.717   9.821   7.675  0.2375  1.3380 -1.5079
23281SOL     OW81567   0.726   5.251   0.491 -0.1055 -0.1961  0.3323
23281SOL    HW181568   0.636   5.235   0.522  0.7097 -1.4821  2.2578
23281SOL    HW281569   0.727   5.216   0.402 -2.1753  2.2886 -0.8225
23282SOL     OW81570   6.501   9.546   1.859 -0.4759 -0.0445 -0.1092
23282SOL    HW181571   6.483   9.640   1.855 -0.7710 -0.1368 -1.0628
23282SOL    HW281572   6.591   9.540   1.890 -0.0331  0.5911 -1.2405
23283SOL     OW81573   5.458   8.324   9.025 -0.6636 -0.0501  0.1343
23283SOL    HW181574   5.392   8.389   9.049  0.6200  1.3270  0.1409
23283SOL    HW281575   5.537   8.351   9.073  0.7727  0.2181 -2.1928
23284SOL     OW81576   3.472  10.181   9.026 -0.2528 -0.3562  0.4040
23284SOL    HW181577   3.446  10.153   8.939  0.7300 -0.5114  0.1430
23284SOL    HW281578   3.469  10.277   9.022 -0.5831 -0.3715  0.3181
23285SOL     OW81579   5.418   0.396   6.128 -0.1354  0.2267  0.4922
23285SOL    HW181580   5.365   0.404   6.208 -0.3425 -0.1602  0.3967
23285SOL    HW281581   5.452   0.484   6.113  0.4267  0.1705  1.3678
23286SOL     OW81582   6.820  11.492   6.748  0.0261  0.2534  0.5895
23286SOL    HW181583   6.902  11.535   6.726  0.7278 -0.5675  1.5485
23286SOL    HW281584   6.835  11.399   6.729 -1.0772  0.2349 -0.3278
23287SOL     OW81585   6.719  11.892   4.364  0.1406 -0.1183 -0.0873
23287SOL    HW181586   6.701  11.943   4.285 -1.4586 -0.7655 -0.1781
23287SOL    HW281587   6.802  11.847   4.345 -0.4551 -0.6553 -1.6133
23288SOL     OW81588   6.748  11.676   3.226  0.4506 -0.1330  0.3739
23288SOL    HW181589   6.810  11.604   3.213 -0.4490 -0.6389 -1.4739
23288SOL    HW281590   6.796  11.754   3.197  0.0473 -0.6350 -1.8925
23289SOL     OW81591   2.239   6.612   7.216  0.2900  0.1533 -0.7421
23289SOL    HW181592   2.326   6.647   7.199  0.7934 -1.1970 -1.0395
23289SOL    HW281593   2.201   6.596   7.129  0.4011 -0.8051 -0.6271
23290SOL     OW81594   7.514  11.797   7.490  0.0469 -0.1593 -0.6991
23290SOL    HW181595   7.426  11.788   7.455 -0.4451  0.1674  0.4023
23290SOL    HW281596   7.547  11.707   7.495 -1.5044 -0.6975  1.9691
23291SOL     OW81597   5.350   7.371   9.438  0.5640  0.0667  0.2526
23291SOL    HW181598   5.391   7.432   9.377  1.6013  0.5122  1.3705
23291SOL    HW281599   5.279   7.421   9.478  0.1193 -0.1109 -0.2952
23292SOL     OW81600   4.831   9.402   9.659 -0.6861 -0.1790 -0.5354
23292SOL    HW181601   4.787   9.487   9.660  0.5184  0.4678  0.0848
23292SOL    HW281602   4.921   9.422   9.688 -0.3193 -1.6223 -0.6358
23293SOL     OW81603   2.612  11.717   7.689 -0.3585 -0.0080 -0.4082
23293SOL    HW181604   2.526  11.683   7.666 -1.0152  1.1141  0.2888
23293SOL    HW281605   2.602  11.812   7.686  0.4536  0.1617  1.0665
23294SOL     OW81606  11.614   3.131   5.194  0.2621 -0.0940 -0.2086
23294SOL    HW181607  11.522   3.134   5.223  0.5284 -4.8587  2.0948
23294SOL    HW281608  11.609   3.103   5.103 -0.6272 -0.8985  0.0662
23295SOL     OW81609   7.661   7.885   5.517 -0.1431 -0.0198  0.4258
23295SOL    HW181610   7.662   7.848   5.606 -0.4348 -1.1171 -0.0102
23295SOL    HW281611   7.573   7.920   5.506  0.4673  1.8947  1.2482
23296SOL     OW81612   9.449  11.810   4.124 -0.0955 -0.4248  0.4845
23296SOL    HW181613   9.489  11.884   4.168 -1.7387  1.3062 -0.7842
23296SOL    HW281614   9.370  11.791   4.175 -0.5890 -0.1504 -0.1641
23297SOL     OW81615  10.267  10.064   6.669 -0.3172 -0.5499  0.1986
23297SOL    HW181616  10.226   9.986   6.705 -0.3938 -0.9938 -0.8113
23297SOL    HW281617  10.219  10.137   6.708 -0.6214 -1.0157  0.7020
23298SOL     OW81618  11.409   6.787   3.189  1.2061  0.7558  0.3065
23298SOL    HW181619  11.318   6.816   3.178  1.3333  0.8582 -0.5207
23298SOL    HW281620  11.402   6.704   3.236  0.7414  1.2034  1.0472
23299SOL     OW81621   5.739  10.274   3.416 -0.1862  0.3248 -0.2323
23299SOL    HW181622   5.756  10.358   3.375  1.7459 -0.1669 -0.5354
23299SOL    HW281623   5.737  10.294   3.510  3.4300  0.3679 -0.0167
23300SOL     OW81624   1.147   5.141   2.654 -0.9217 -0.0061 -0.0853
23300SOL    HW181625   1.119   5.226   2.689 -0.1843  0.5281 -0.7464
23300SOL    HW281626   1.076   5.081   2.676 -1.0055  0.5651  1.2849
23301SOL     OW81627   9.223   2.112   6.988 -0.2386 -0.2263 -0.3433
23301SOL    HW181628   9.257   2.072   7.068 -0.6550 -0.1078 -0.1010
23301SOL    HW281629   9.137   2.071   6.975 -1.1708  1.3379  0.5187
23302SOL     OW81630  10.729   4.838   5.002  0.4257  0.4780  0.3052
23302SOL    HW181631  10.801   4.781   5.030  1.9002  2.6435  1.2290
23302SOL    HW281632  10.713   4.895   5.078  0.5349  2.6954 -1.2207
23303SOL     OW81633  10.721   5.062  12.291  0.1037  0.0722 -0.3477
23303SOL    HW181634  10.733   5.016  12.209  0.1339 -0.5239 -0.0152
23303SOL    HW281635  10.634   5.034  12.322 -0.0103  0.4761 -0.2918
23304SOL     OW81636   0.438  11.402   3.963  0.3858  0.1319  0.5186
23304SOL    HW181637   0.523  11.428   4.000  0.1876  0.7464  0.5379
23304SOL    HW281638   0.432  11.308   3.983  0.0227  0.5535  2.6093
23305SOL     OW81639   1.774   7.777   7.455 -0.0820 -0.2651 -0.3590
23305SOL    HW181640   1.761   7.864   7.417  0.9561 -0.2094 -0.6047
23305SOL    HW281641   1.688   7.734   7.446 -0.6107  0.7391 -0.1967
23306SOL     OW81642   5.422  11.321   0.231 -0.1771 -0.0739  0.4082
23306SOL    HW181643   5.417  11.414   0.208 -1.5754 -0.4113 -0.8455
23306SOL    HW281644   5.382  11.316   0.318 -1.1585  0.3669  0.0041
23307SOL     OW81645   2.887   0.078   0.706  0.4849 -0.2239 -0.3356
23307SOL    HW181646   2.935   0.068   0.789 -3.3062 -1.3731  1.9435
23307SOL    HW281647   2.931   0.018   0.646  2.1593 -0.8680  1.4119
23308SOL     OW81648   3.477   7.043   4.904  0.4836  0.2733  0.2313
23308SOL    HW181649   3.429   7.096   4.967 -0.3288 -1.3952  1.0580
23308SOL    HW281650   3.565   7.036   4.940  0.4995  0.7244  0.2920
23309SOL     OW81651   2.183   6.489   8.233 -0.8974 -0.3373  0.3861
23309SOL    HW181652   2.257   6.494   8.293  0.5097  0.8477 -1.3519
23309SOL    HW281653   2.106   6.483   8.290  0.4182 -0.1012  2.2708
23310SOL     OW81654   4.845   1.892   2.476 -0.0695  0.4286  0.2711
23310SOL    HW181655   4.812   1.912   2.389  0.6411 -0.2628 -0.1715
23310SOL    HW281656   4.858   1.797   2.476  0.3802  0.4779  0.9714
23311SOL     OW81657   0.990  10.661   4.938  0.2543  0.7532 -0.2191
23311SOL    HW181658   0.895  10.652   4.951  0.5529 -0.3922  1.4248
23311SOL    HW281659   1.004  10.636   4.846 -0.8045 -1.2453  0.1034
23312SOL     OW81660   7.525  11.859   2.709  0.5653 -0.2538  0.3618
23312SOL    HW181661   7.508  11.856   2.803  3.2798  2.1494  1.0612
23312SOL    HW281662   7.448  11.902   2.673  0.2274  0.3488  1.7339
23313SOL     OW81663  11.139  12.728   0.526 -0.5210 -0.3392 -0.3215
23313SOL    HW181664  11.087  12.652   0.502 -2.2459  1.2163 -1.8632
23313SOL    HW281665  11.188  12.750   0.447 -0.8993  0.7550 -0.2802
23314SOL     OW81666   7.876   4.491   9.489  0.4524  0.6142  0.4366
23314SOL    HW181667   7.952   4.496   9.547  2.1945 -1.4179 -1.4670
23314SOL    HW281668   7.842   4.402   9.503 -0.1114  0.6935 -0.4053
23315SOL     OW81669  12.048   8.433  13.543  0.1993  0.9373  0.0224
23315SOL    HW181670  12.077   8.345  13.520  1.6627  1.5993 -0.8098
23315SOL    HW281671  11.983   8.455  13.477 -1.1642  0.0085  1.0137
23316SOL     OW81672   0.005   7.306   6.612  0.0937 -0.0675 -0.3864
23316SOL    HW181673  -0.054   7.341   6.679  0.7616  1.7894 -0.7104
23316SOL    HW281674   0.080   7.366   6.612  1.0359 -1.1896 -1.4094
23317SOL     OW81675   3.268  11.907   3.020  0.5805  0.1423  0.1830
23317SOL    HW181676   3.222  11.852   2.957  0.6492  0.0824  0.1851
23317SOL    HW281677   3.316  11.970   2.966  0.0243  0.5883  0.1925
23318SOL     OW81678   1.908   0.026   5.982  0.5454  0.1357 -0.3533
23318SOL    HW181679   1.914  -0.047   6.043  0.3335  0.0747 -0.4049
23318SOL    HW281680   1.967   0.093   6.018  0.5133  0.0540 -0.1492
23319SOL     OW81681  12.094  12.695  12.679  0.4927 -0.1219  0.0291
23319SOL    HW181682  12.127  12.688  12.590 -0.6038 -1.3338 -0.2962
23319SOL    HW281683  12.069  12.606  12.703  0.8404  0.1629  1.5880
23320SOL     OW81684   9.602   2.308  12.999  0.2216  0.0016 -0.0972
23320SOL    HW181685   9.578   2.368  12.928  0.9360  0.2494 -0.1354
23320SOL    HW281686   9.637   2.364  13.068  2.6939 -0.4736 -0.8683
23321SOL     OW81687   8.546  10.235   4.005 -0.0323 -0.1995  0.2433
23321SOL    HW181688   8.547  10.329   4.019 -0.0267  0.0239 -1.1118
23321SOL    HW281689   8.620  10.202   4.056 -0.4150  0.4341  1.2355
23322SOL     OW81690   3.587  13.378   7.953  0.4504 -0.1377  0.0175
23322SOL    HW181691   3.622  13.463   7.981 -0.2094 -0.4296  1.8756
23322SOL    HW281692   3.546  13.395   7.868  2.0580  0.9413 -0.5814
23323SOL     OW81693   3.034   6.253   7.766 -0.0789  0.2179 -0.2775
23323SOL    HW181694   2.941   6.233   7.757 -0.0423  0.3737 -1.0425
23323SOL    HW281695   3.057   6.220   7.853 -1.0459  0.9423  0.2826
23324SOL     OW81696   1.995   7.153   7.340  0.1956 -0.0474  0.3208
23324SOL    HW181697   2.077   7.199   7.320  0.6402 -0.2372  1.5750
23324SOL    HW281698   1.972   7.183   7.428 -0.1697 -1.2551  0.6582
23325SOL     OW81699  13.469   1.329   6.971  0.1758 -0.3759  0.2165
23325SOL    HW181700  13.414   1.252   6.953  0.5630 -1.1133  2.0481
23325SOL    HW281701  13.559   1.296   6.964  0.4710  0.7085 -2.2460
23326SOL     OW81702  11.861  12.078   0.163 -1.0707  0.2885  0.2777
23326SOL    HW181703  11.854  12.104   0.255  0.8250  0.2940  0.4731
23326SOL    HW281704  11.827  11.989   0.160 -1.9315  0.5913  0.8110
23327SOL     OW81705   9.757  12.073  13.410  0.0676  0.3555 -0.3129
23327SOL    HW181706   9.851  12.073  13.429 -0.2085 -1.3782  1.4000
23327SOL    HW281707   9.734  12.165  13.403  1.5941  0.8807  0.9991
23328SOL     OW81708   9.517   5.901  11.688  0.5195 -0.1369  0.5713
23328SOL    HW181709   9.444   5.840  11.676 -0.0393  0.6033  0.1200
23328SOL    HW281710   9.496   5.948  11.769 -0.4708  1.3463 -0.4879
23329SOL     OW81711  13.529   9.580   0.147  0.1136  0.2785 -0.2810
23329SOL    HW181712  13.435   9.594   0.153 -0.5118 -2.0930 -2.5976
23329SOL    HW281713  13.561   9.654   0.096 -0.7061  0.4452 -0.5672
23330SOL     OW81714  10.791   9.110   3.965  0.0818  0.5692  0.5812
23330SOL    HW181715  10.765   9.165   3.891  0.1512 -0.1349  0.0237
23330SOL    HW281716  10.877   9.143   3.989  0.8111 -0.2521 -0.7461
23331SOL     OW81717   4.879   8.475  12.332 -0.3747 -0.0593  0.2484
23331SOL    HW181718   4.905   8.565  12.353  1.4853 -0.5229  0.1791
23331SOL    HW281719   4.933   8.420  12.389 -2.5398 -1.1595  1.3658
23332SOL     OW81720   1.895   2.627   6.080  0.1271 -0.0086  0.2331
23332SOL    HW181721   1.911   2.571   6.155  2.4112  0.1704 -0.0312
23332SOL    HW281722   1.933   2.711   6.104 -0.3733  0.4682 -0.5816
23333SOL     OW81723   9.115   2.429   6.203 -0.4369 -0.3922 -0.5755
23333SOL    HW181724   9.205   2.399   6.215 -0.2875  0.0158 -0.6521
23333SOL    HW281725   9.115   2.467   6.115 -0.3291  0.8331 -0.0677
23334SOL     OW81726  10.259   7.907   6.737  0.0274  0.2369 -0.2485
23334SOL    HW181727  10.192   7.973   6.722  0.6630  0.8722 -0.3488
23334SOL    HW281728  10.229   7.829   6.689 -0.8979  0.3368  0.1626
23335SOL     OW81729  13.568  11.755  10.879 -0.3736  0.1801  0.1256
23335SOL    HW181730  13.499  11.797  10.828 -0.2671  0.0232 -0.1487
23335SOL    HW281731  13.539  11.764  10.970 -0.5730  0.4427  0.0379
23336SOL     OW81732   3.876   5.268   7.089  0.5229 -0.0738  0.3625
23336SOL    HW181733   3.911   5.182   7.113  0.2639  0.2270  1.9372
23336SOL    HW281734   3.892   5.323   7.167 -0.5532  0.9235 -0.0915
23337SOL     OW81735   6.651  10.612   4.121 -0.2135  0.2083  0.3594
23337SOL    HW181736   6.696  10.528   4.122 -0.7401 -0.0734  0.5281
23337SOL    HW281737   6.567  10.595   4.163 -0.1807  0.8977  0.7171
23338SOL     OW81738   0.936  11.557  13.023 -0.4374  0.5863 -0.3008
23338SOL    HW181739   0.896  11.630  13.071 -2.1387 -1.4847  1.6465
23338SOL    HW281740   0.974  11.501  13.091  0.2972 -0.6730 -1.6799
23339SOL     OW81741  12.681   4.886   2.500 -0.1173  0.3072 -0.0372
23339SOL    HW181742  12.758   4.830   2.509  0.9023  1.8841  2.1090
23339SOL    HW281743  12.683   4.915   2.409 -0.7654 -3.0755 -1.2784
23340SOL     OW81744  10.148   1.844   3.351  0.0426  0.2404  0.7447
23340SOL    HW181745  10.139   1.934   3.382 -0.0879  0.8253 -0.9051
23340SOL    HW281746  10.070   1.800   3.384 -1.2056  1.3901 -0.4933
23341SOL     OW81747   4.774   4.101  11.869  0.0003 -0.3345  0.5477
23341SOL    HW181748   4.773   4.077  11.776 -1.1479  1.8964 -0.0935
23341SOL    HW281749   4.765   4.018  11.915 -1.0504 -1.3712 -1.3877
23342SOL     OW81750   0.551  12.807   5.828  0.4217 -0.1637 -0.6253
23342SOL    HW181751   0.569  12.799   5.735  0.4383 -0.0007 -0.6370
23342SOL    HW281752   0.458  12.790   5.837  0.7691 -2.2718 -0.4112
23343SOL     OW81753   8.720   2.578   8.024  0.7382  0.1234  0.7047
23343SOL    HW181754   8.767   2.553   7.945 -0.9993 -0.0140 -0.3531
23343SOL    HW281755   8.654   2.509   8.035  1.4526 -0.2913  2.7669
23344SOL     OW81756   2.133  12.811   2.235 -0.3681 -0.0995 -0.0104
23344SOL    HW181757   2.081  12.783   2.160  0.3540 -1.2851 -0.0883
23344SOL    HW281758   2.075  12.797   2.311 -0.7027  0.0466 -0.2355
23345SOL     OW81759  12.797   9.395   8.825 -0.1274  0.4679  0.0825
23345SOL    HW181760  12.794   9.491   8.830 -0.4350  0.4051  1.3220
23345SOL    HW281761  12.744   9.366   8.899 -0.4320 -0.6678 -0.5667
23346SOL     OW81762   9.036   6.101  10.350  0.7545 -0.2120  0.0689
23346SOL    HW181763   9.130   6.111  10.338  0.9721 -1.6159  0.4055
23346SOL    HW281764   9.018   6.143  10.434  1.1786 -0.3791  0.2465
23347SOL     OW81765   3.410   8.392   2.117  0.2669 -0.0913 -0.2227
23347SOL    HW181766   3.450   8.478   2.129 -2.4291  1.3205 -0.4644
23347SOL    HW281767   3.459   8.352   2.046  2.6398  0.4947  0.9888
23348SOL     OW81768   2.311   8.320   6.222 -0.1912 -0.0363  0.3413
23348SOL    HW181769   2.345   8.343   6.309 -2.8133  1.0494  1.2028
23348SOL    HW281770   2.317   8.401   6.172  0.3874 -0.3935 -0.1786
23349SOL     OW81771   1.131   0.345   0.676  0.3048  0.1300 -0.2790
23349SOL    HW181772   1.119   0.308   0.764  1.7312  0.2966  0.0004
23349SOL    HW281773   1.042   0.370   0.649 -0.1927 -0.1534  1.0015
23350SOL     OW81774   6.542   0.352   8.817  0.0342  0.4838 -0.0832
23350SOL    HW181775   6.494   0.272   8.793 -0.1397  0.1775  1.1949
23350SOL    HW281776   6.473   0.417   8.831  0.1976  1.0015 -1.5410
23351SOL     OW81777   9.013   3.757   5.766  0.2215 -0.1873  0.0307
23351SOL    HW181778   9.094   3.746   5.716 -0.0603  0.9194 -0.7079
23351SOL    HW281779   9.023   3.842   5.808  0.4973 -1.1526  2.0062
23352SOL     OW81780  12.613  13.169   7.324  0.0518  0.5155  0.0258
23352SOL    HW181781  12.597  13.083   7.285 -0.1761  0.2025  0.7911
23352SOL    HW281782  12.609  13.229   7.250  0.5630 -0.1641 -0.5759
23353SOL     OW81783  10.638  12.398   3.922 -0.6019 -0.4532 -0.2292
23353SOL    HW181784  10.622  12.463   3.853 -0.9575  0.6594  0.8488
23353SOL    HW281785  10.733  12.392   3.928 -0.5682 -0.2227 -0.5093
23354SOL     OW81786   8.971   0.579   7.105 -0.2417  0.5650  0.0138
23354SOL    HW181787   8.914   0.613   7.036 -1.4546 -0.8835  0.2417
23354SOL    HW281788   8.959   0.638   7.179 -0.0127  1.3247 -0.5519
23355SOL     OW81789   1.889   4.115  10.948  0.2591 -0.1096 -0.6465
23355SOL    HW181790   1.937   4.145  10.871  1.3123  0.3888  0.1774
23355SOL    HW281791   1.801   4.150  10.936  0.1960 -0.7003 -1.9901
23356SOL     OW81792   4.735   1.372   6.081 -0.4735 -0.0632 -0.2451
23356SOL    HW181793   4.785   1.336   6.008 -0.4552 -1.6744  0.5317
23356SOL    HW281794   4.674   1.434   6.040  1.0725  0.7879 -1.3624
23357SOL     OW81795   4.784   0.106   8.639 -0.1878 -0.3083 -0.1124
23357SOL    HW181796   4.856   0.045   8.653  0.0696 -0.1868 -0.8395
23357SOL    HW281797   4.766   0.142   8.725 -0.0666 -1.0981  0.2583
23358SOL     OW81798   2.218   2.521  12.750  0.7055  0.1153 -0.2585
23358SOL    HW181799   2.260   2.518  12.835 -0.7134 -2.1724  0.4408
23358SOL    HW281800   2.130   2.485  12.764  0.8169 -1.4644 -2.8656
23359SOL     OW81801   1.772  10.157   2.340 -0.0258 -0.5357  0.8634
23359SOL    HW181802   1.677  10.146   2.351  0.0725 -1.2346  1.0423
23359SOL    HW281803   1.782  10.196   2.253 -0.3947 -1.9449  0.1713
23360SOL     OW81804  11.413  12.647   8.903 -0.3633 -0.0557  0.3336
23360SOL    HW181805  11.334  12.608   8.865  0.1077 -0.8402  0.1297
23360SOL    HW281806  11.417  12.612   8.992  1.2485 -2.3461 -0.5404
23361SOL     OW81807   0.197  11.469  11.206  0.1082 -0.3158  0.1652
23361SOL    HW181808   0.270  11.460  11.268  0.2987  1.4503  0.2517
23361SOL    HW281809   0.160  11.556  11.225 -1.7056 -0.9574 -0.2298
23362SOL     OW81810   1.059  11.906  11.730 -0.3954  0.1978 -0.5478
23362SOL    HW181811   1.025  11.994  11.739  0.0481  0.7694 -3.4182
23362SOL    HW281812   0.982  11.850  11.729 -0.7940  0.7424 -0.3782
23363SOL     OW81813   7.173  11.210   3.109 -0.1469  0.0456 -0.1970
23363SOL    HW181814   7.233  11.153   3.060  0.2777  1.2448 -1.0938
23363SOL    HW281815   7.221  11.292   3.119 -0.7405  0.2540  1.1298
23364SOL     OW81816  11.395   4.587  10.854 -0.3294  0.1262  0.0599
23364SOL    HW181817  11.379   4.499  10.887  0.9055  0.1343  0.7541
23364SOL    HW281818  11.485   4.585  10.823  0.0036  1.3559  0.8635
23365SOL     OW81819   3.753   3.320  10.018  0.1176  0.0436 -0.0553
23365SOL    HW181820   3.795   3.242  10.054  0.8948  0.0217 -0.9741
23365SOL    HW281821   3.659   3.304  10.027  0.2849 -0.7261  0.3276
23366SOL     OW81822   0.456   2.634   3.135  0.1602  0.3738  0.3485
23366SOL    HW181823   0.384   2.599   3.082  0.1635 -1.0350  1.2257
23366SOL    HW281824   0.533   2.624   3.078 -0.2933  1.8422 -0.5726
23367SOL     OW81825   4.269  12.450  10.531 -0.6177  0.1746 -0.4044
23367SOL    HW181826   4.264  12.444  10.626 -1.2705 -3.7566 -0.5319
23367SOL    HW281827   4.346  12.504  10.514 -1.5630  2.5873  2.2507
23368SOL     OW81828   4.154  10.539   4.784 -0.3261  0.0796  0.1725
23368SOL    HW181829   4.232  10.545   4.839 -0.8388 -0.9078  1.0338
23368SOL    HW281830   4.136  10.445   4.777 -0.4050  0.1978 -1.5107
23369SOL     OW81831  12.637   4.725  11.654 -0.7808 -0.7681  0.1082
23369SOL    HW181832  12.647   4.637  11.691  1.7398 -0.8941 -0.6832
23369SOL    HW281833  12.582   4.712  11.576  0.1888 -1.8145 -0.4342
23370SOL     OW81834   0.223  10.574   9.822 -0.6620  0.3035  0.4803
23370SOL    HW181835   0.162  10.501   9.828 -2.4373  1.8116  2.1624
23370SOL    HW281836   0.192  10.625   9.747 -1.8484  1.3314  1.6299
23371SOL     OW81837   8.688   4.657   6.084 -0.0185  0.4552  0.3101
23371SOL    HW181838   8.686   4.592   6.153  0.0606  0.9376  0.7744
23371SOL    HW281839   8.738   4.616   6.013  1.6355  0.6566  1.2868
23372SOL     OW81840   8.916   4.788   9.942 -0.0776 -0.1288 -0.1684
23372SOL    HW181841   8.969   4.819  10.016  0.4846  0.5175 -0.8221
23372SOL    HW281842   8.833   4.763   9.981  0.7142 -1.2255  0.9009
23373SOL     OW81843   5.458  13.103   6.422  0.4551  0.2036 -0.6373
23373SOL    HW181844   5.553  13.108   6.429  0.4910  0.4172 -1.2415
23373SOL    HW281845   5.443  13.052   6.342  0.0616 -1.0874  0.2274
23374SOL     OW81846   3.124   5.771   5.757  0.4834 -0.1445  0.0879
23374SOL    HW181847   3.153   5.859   5.731 -0.2768  0.0698 -0.0624
23374SOL    HW281848   3.049   5.753   5.700 -0.1590 -0.3639  0.9885
23375SOL     OW81849   0.572   9.268  10.616  0.4334  0.3460 -0.3802
23375SOL    HW181850   0.510   9.300  10.681 -0.5582  0.0116 -1.1273
23375SOL    HW281851   0.630   9.208  10.664 -0.9124 -0.6852  0.0156
23376SOL     OW81852   6.285   6.337   8.227 -0.2837 -0.5656 -0.3419
23376SOL    HW181853   6.256   6.393   8.300  0.6348  0.4369 -0.7202
23376SOL    HW281854   6.210   6.280   8.209 -2.0648  1.8977 -1.2576
23377SOL     OW81855  12.576   4.466   6.042  0.4009  0.2367  0.3640
23377SOL    HW181856  12.587   4.543   5.986  4.1039  1.2471  2.1656
23377SOL    HW281857  12.598   4.497   6.129 -1.4409 -2.1586  1.8137
23378SOL     OW81858   9.722  12.935   0.804  0.5139 -0.4743  0.0216
23378SOL    HW181859   9.763  13.005   0.753  2.9548 -2.8646 -1.6006
23378SOL    HW281860   9.779  12.926   0.881 -0.1976 -0.2572  0.5856
23379SOL     OW81861  12.874   1.887   9.832 -0.1526  0.2044  0.7862
23379SOL    HW181862  12.903   1.913   9.919  3.0833 -1.7288  0.4619
23379SOL    HW281863  12.853   1.969   9.788 -1.4889  1.2486  3.1932
23380SOL     OW81864   2.080   9.922  12.682 -0.1137  0.1422 -0.1497
23380SOL    HW181865   2.000   9.905  12.631 -0.0360  0.5111 -0.3972
23380SOL    HW281866   2.064   9.879  12.766 -0.2589 -0.4527 -0.4685
23381SOL     OW81867  12.366   2.873   8.386  0.1231  0.1561 -0.2512
23381SOL    HW181868  12.329   2.792   8.420  1.2632 -0.4730 -0.4511
23381SOL    HW281869  12.440   2.892   8.444  1.9139 -0.7758 -2.0952
23382SOL     OW81870   5.199   8.833  11.778 -0.4381  0.3750  0.0864
23382SOL    HW181871   5.167   8.816  11.690 -0.0385  0.3758 -0.0589
23382SOL    HW281872   5.258   8.760  11.797 -2.9518 -1.4294  1.5947
23383SOL     OW81873  11.966  12.399   4.470  0.4331  0.0014 -0.0795
23383SOL    HW181874  12.022  12.323   4.485  1.5860  0.7768 -0.3383
23383SOL    HW281875  12.020  12.458   4.417 -0.9941  0.3469 -1.1900
23384SOL     OW81876   7.808  13.689   8.638  0.5336  0.1466  0.1201
23384SOL    HW181877   7.733  13.638   8.609 -0.2727  1.7255 -0.7351
23384SOL    HW281878   7.774  13.747   8.706  1.1268  0.4115  0.2062
23385SOL     OW81879   4.131   5.929   3.727 -0.0616  0.3005 -0.5196
23385SOL    HW181880   4.177   6.003   3.689  0.0484  0.2354 -0.5130
23385SOL    HW281881   4.040   5.941   3.701  0.0140  0.2492 -0.8114
23386SOL     OW81882   1.106   1.976   7.241 -0.4332  0.3502 -0.2882
23386SOL    HW181883   1.075   1.916   7.309 -1.9183  0.8097 -0.5052
23386SOL    HW281884   1.100   1.926   7.160  0.6802  0.0237 -0.1825
23387SOL     OW81885   1.082   0.833   0.396 -0.2332  0.2543  0.0232
23387SOL    HW181886   1.019   0.853   0.327  0.6661 -1.0093 -1.2195
23387SOL    HW281887   1.109   0.743   0.379  0.8259  0.2649  1.4021
23388SOL     OW81888   8.543  11.498  10.688 -0.1917 -0.3470  0.1960
23388SOL    HW181889   8.637  11.513  10.699 -0.2464 -0.6415  1.2886
23388SOL    HW281890   8.534  11.402  10.690 -0.5810 -0.3079  0.9436
23389SOL     OW81891   7.583   9.222   2.784  0.5778 -0.3525 -0.2986
23389SOL    HW181892   7.586   9.150   2.846 -1.5896  0.7178  1.1697
23389SOL    HW281893   7.521   9.193   2.717 -0.1930  0.0698  0.2223
23390SOL     OW81894   7.041  13.626   8.658 -0.1144  0.5160  0.3023
23390SOL    HW181895   7.014  13.633   8.749  2.0011  0.9498  0.9539
23390SOL    HW281896   7.060  13.717   8.632  0.7216  0.2426 -0.0803
23391SOL     OW81897   1.003   4.643  12.200  0.2809  0.3111  0.2291
23391SOL    HW181898   0.916   4.605  12.209 -0.0562  1.0095 -0.0381
23391SOL    HW281899   0.988   4.737  12.193  1.0828  0.4731  0.5461
23392SOL     OW81900   4.707   8.664   9.510 -0.4175 -0.4451  0.4771
23392SOL    HW181901   4.765   8.714   9.567 -0.2500 -1.0560  0.8596
23392SOL    HW281902   4.642   8.727   9.479  0.9223  0.4377 -0.6205
23393SOL     OW81903  11.355  10.955   9.619 -0.0752 -0.0485 -0.5814
23393SOL    HW181904  11.335  10.976   9.710  0.7878 -0.7453 -0.2223
23393SOL    HW281905  11.273  10.918   9.585 -0.2550 -0.2487  0.0521
23394SOL     OW81906   8.186  12.625   9.877 -0.9077 -0.4223 -0.1533
23394SOL    HW181907   8.178  12.543   9.926  0.1939 -0.8365 -0.6417
23394SOL    HW281908   8.277  12.626   9.847 -1.2148  0.4428 -1.0932
23395SOL     OW81909   0.742   8.123   4.703 -0.2004  0.2001 -0.2103
23395SOL    HW181910   0.789   8.039   4.705  0.1321  0.3461 -1.2861
23395SOL    HW281911   0.790   8.176   4.639  0.0263  1.4784  0.9797
23396SOL     OW81912  11.695   5.148   1.021 -0.0423  0.6613  0.4525
23396SOL    HW181913  11.721   5.062   1.052 -0.2615 -0.1384 -1.4777
23396SOL    HW281914  11.633   5.180   1.086  0.3050 -0.4789  1.3617
23397SOL     OW81915   4.239   2.164   5.047  0.1231 -0.4435  0.1419
23397SOL    HW181916   4.239   2.171   5.142  1.2902  1.6044  0.0423
23397SOL    HW281917   4.182   2.235   5.018  2.6176  1.3137 -0.7396
23398SOL     OW81918   1.849   2.613   9.583  0.5497 -0.0477 -0.0554
23398SOL    HW181919   1.805   2.631   9.666 -0.2799 -0.7760 -0.3275
23398SOL    HW281920   1.778   2.597   9.521  1.1873 -0.9625 -0.5672
23399SOL     OW81921  12.782   6.159   5.470 -0.4900 -0.7007 -0.1388
23399SOL    HW181922  12.709   6.177   5.529  0.4147  1.0340  0.5205
23399SOL    HW281923  12.827   6.085   5.509 -0.3973 -0.1088  0.8972
23400SOL     OW81924   0.132   6.819   8.972  0.2692 -0.2236 -0.1584
23400SOL    HW181925   0.212   6.791   9.016  0.5172  0.8528  0.1145
23400SOL    HW281926   0.127   6.764   8.893  1.1275 -0.4870 -0.0386
23401SOL     OW81927  10.433   7.617   8.112  0.2712 -0.1134 -0.0040
23401SOL    HW181928  10.511   7.625   8.167 -1.1578 -1.5707  2.4066
23401SOL    HW281929  10.461   7.562   8.039  2.2704  2.0233 -1.0047
23402SOL     OW81930   9.913   4.906   4.477 -0.3944  0.0473  0.1690
23402SOL    HW181931  10.002   4.942   4.476 -0.1596 -0.5330  0.0335
23402SOL    HW281932   9.890   4.894   4.385  1.2007 -4.1780  0.1375
23403SOL     OW81933  12.922   6.998   1.766  0.3429  0.3371  0.1806
23403SOL    HW181934  12.871   6.995   1.686  0.4192  1.4511  0.0803
23403SOL    HW281935  12.967   6.913   1.769 -0.3390 -0.0547 -0.4939
23404SOL     OW81936  11.947   7.342   6.102 -0.2962  0.1187 -0.0324
23404SOL    HW181937  12.004   7.277   6.061  1.0620  0.6326  0.9998
23404SOL    HW281938  11.927   7.305   6.188 -1.3141  0.0889 -0.2601
23405SOL     OW81939  10.463   7.650  12.474  0.0875  0.4107  0.2320
23405SOL    HW181940  10.369   7.634  12.485  0.3273 -0.5008  1.2235
23405SOL    HW281941  10.494   7.668  12.563  0.9418  0.1409 -0.0024
23406SOL     OW81942   1.998   2.277   4.338  0.3141  0.5260  0.1915
23406SOL    HW181943   1.977   2.250   4.427 -0.2611 -0.1535 -0.1373
23406SOL    HW281944   2.030   2.196   4.296  0.5309  0.8273 -0.2293
23407SOL     OW81945   0.138  11.880   9.756 -0.9893  0.1024  0.1130
23407SOL    HW181946   0.097  11.801   9.790  0.3775 -1.1872 -1.1334
23407SOL    HW281947   0.112  11.883   9.663  0.5623  0.0106 -0.3505
23408SOL     OW81948   5.101  11.410   0.758  0.0188 -0.2948  0.1422
23408SOL    HW181949   5.008  11.390   0.772  0.0151 -0.4310 -0.0666
23408SOL    HW281950   5.107  11.505   0.765 -0.2520 -0.2242 -0.4881
23409SOL     OW81951   3.590   5.642   0.144 -0.2511  0.6506 -0.2066
23409SOL    HW181952   3.520   5.630   0.208 -1.2118  0.7552 -1.1933
23409SOL    HW281953   3.560   5.594   0.066  0.5849  1.0335 -0.7803
23410SOL     OW81954   8.040   1.048   5.155 -0.1568 -0.6009 -0.1043
23410SOL    HW181955   8.000   0.965   5.127 -1.0942 -0.3794  0.5408
23410SOL    HW281956   8.113   1.060   5.094 -0.5561 -1.4437 -0.7858
23411SOL     OW81957   0.223   7.654  13.053  0.2422  0.0030  0.5349
23411SOL    HW181958   0.269   7.734  13.028  1.5899 -0.4412  1.4791
23411SOL    HW281959   0.215   7.604  12.971 -0.6631  1.1051 -0.0720
23412SOL     OW81960   1.741  13.559   1.234  0.1216 -0.6940  0.4370
23412SOL    HW181961   1.719  13.545   1.326  1.4573 -0.8182  0.7506
23412SOL    HW281962   1.784  13.644   1.232 -2.4029  0.6889 -0.5385
23413SOL     OW81963   5.302   2.758   9.520 -0.1303 -0.7829  0.1549
23413SOL    HW181964   5.315   2.815   9.596 -1.0032  0.0486 -0.2948
23413SOL    HW281965   5.311   2.669   9.554 -0.2998 -0.4108  1.1888
23414SOL     OW81966   6.244   5.505   9.234  0.1486  0.4028 -0.0861
23414SOL    HW181967   6.325   5.455   9.243  1.1451  2.0047  0.1306
23414SOL    HW281968   6.240   5.527   9.141  0.6028  1.3456  0.1113
23415SOL     OW81969   2.422  11.360  10.466  0.1214 -0.0630 -0.1224
23415SOL    HW181970   2.396  11.452  10.461  0.7781  0.2346  1.3346
23415SOL    HW281971   2.484  11.349  10.394 -0.9006  0.2893 -1.0777
23416SOL     OW81972   2.037  10.048   7.275 -0.6356 -0.0314 -0.2167
23416SOL    HW181973   2.046  10.111   7.203  0.7918  0.7004  0.5655
23416SOL    HW281974   2.114   9.991   7.268 -1.0809 -0.6842  0.0568
23417SOL     OW81975  10.084  10.018  10.323 -0.3750  0.1906  0.8785
23417SOL    HW181976  10.096   9.929  10.290 -0.2169  0.4551  0.2051
23417SOL    HW281977  10.036  10.007  10.404 -1.6183 -0.4200  0.0818
23418SOL     OW81978  13.205   9.718   8.258 -0.0582 -0.1794 -0.2697
23418SOL    HW181979  13.247   9.690   8.177 -0.0233  0.1145 -0.3529
23418SOL    HW281980  13.173   9.637   8.297  2.5418 -0.7198  0.9151
23419SOL     OW81981  10.636   4.459   6.088  0.2104  0.3742 -0.0997
23419SOL    HW181982  10.731   4.467   6.080  0.1665  1.0217  0.0196
23419SOL    HW281983  10.613   4.517   6.161 -0.4622  1.3653 -1.0828
23420SOL     OW81984  13.482   5.328   5.054 -0.3675 -0.0148 -0.3349
23420SOL    HW181985  13.480   5.391   5.126  1.7550  1.2414 -1.2851
23420SOL    HW281986  13.396   5.338   5.012 -1.6880 -0.8357  1.9801
23421SOL     OW81987   6.916  12.079   9.624  0.2238 -0.1881 -0.2050
23421SOL    HW181988   6.838  12.083   9.679  0.6339 -0.5295  0.4126
23421SOL    HW281989   6.899  12.141   9.552  0.3352  1.5009  1.1532
23422SOL     OW81990  12.831   7.794   0.311 -0.0655  0.1757  0.1986
23422SOL    HW181991  12.837   7.884   0.344 -0.3487  0.6369 -0.9585
23422SOL    HW281992  12.841   7.739   0.389  3.0795  1.1183  0.6077
23423SOL     OW81993  12.224   1.843   5.358 -0.3980  0.4572  0.2293
23423SOL    HW181994  12.275   1.896   5.297  0.4665  0.2022  0.7164
23423SOL    HW281995  12.195   1.905   5.425  0.7141  0.3159  0.8647
23424SOL     OW81996   7.872   5.652  12.282  0.2933 -0.4614  0.3177
23424SOL    HW181997   7.945   5.615  12.331  1.5634  0.2849 -0.9329
23424SOL    HW281998   7.797   5.595  12.303  1.5233 -2.0316  0.6104
23425SOL     OW81999  10.799   6.327  11.965  0.2460 -0.2394  0.2403
23425SOL    HW182000  10.852   6.249  11.984 -0.5811 -0.1715  3.4390
23425SOL    HW282001  10.829   6.356  11.879  4.0615 -1.2856  1.0124
23426SOL     OW82002   2.405   0.557   8.124  0.0941  0.2338  0.2538
23426SOL    HW182003   2.318   0.598   8.125 -0.9035 -1.7597  1.6015
23426SOL    HW282004   2.455   0.608   8.188 -0.3520  0.8250  0.1488
23427SOL     OW82005  12.880   9.319   2.798  0.5429  0.2437  0.1681
23427SOL    HW182006  12.885   9.257   2.871  1.1061 -0.1063 -0.1642
23427SOL    HW282007  12.869   9.404   2.840  2.6227  0.2747  0.7525
23428SOL     OW82008  11.923   4.192  12.993 -0.2300 -0.3791 -0.4503
23428SOL    HW182009  11.996   4.159  12.941  0.3953 -0.4305  0.4472
23428SOL    HW282010  11.941   4.285  13.004 -0.1713 -0.4408 -0.0185
23429SOL     OW82011   5.497  10.850   0.604  0.3607  0.0779 -0.0470
23429SOL    HW182012   5.446  10.930   0.591  0.3512  0.1148  0.2005
23429SOL    HW282013   5.514  10.848   0.699  1.5491  0.5115 -0.2269
23430SOL     OW82014  11.354  12.457  12.549  0.1832  0.3346  0.3393
23430SOL    HW182015  11.331  12.413  12.468  2.8293  0.6631 -0.6817
23430SOL    HW282016  11.344  12.391  12.617  0.4223 -0.7127 -0.6272
23431SOL     OW82017  10.759   9.686   4.176  0.4416  0.2531 -0.4735
23431SOL    HW182018  10.780   9.729   4.258 -1.4829 -0.9502  0.7286
23431SOL    HW282019  10.672   9.719   4.153 -0.3571 -1.6291 -0.3844
23432SOL     OW82020   7.006   5.631   5.559 -0.2325  0.4326  0.0045
23432SOL    HW182021   7.031   5.693   5.628 -1.0779  1.1387 -0.3034
23432SOL    HW282022   7.061   5.655   5.485  0.0268  0.2696  0.1420
23433SOL     OW82023   9.909   5.528  12.055 -0.1222  0.3804  0.3692
23433SOL    HW182024   9.883   5.436  12.060  0.1388  0.3166  0.5595
23433SOL    HW282025   9.983   5.529  11.995 -0.6976  0.5951 -0.3520
23434SOL     OW82026  10.412  10.823  12.048  0.1485 -0.6922 -0.4054
23434SOL    HW182027  10.403  10.758  12.118 -1.5507 -0.0481  0.0194
23434SOL    HW282028  10.480  10.787  11.991  2.6740 -0.5275  2.2973
23435SOL     OW82029   9.417  12.018   5.791 -0.3234  0.2706  0.4519
23435SOL    HW182030   9.376  12.007   5.706  0.4708  0.3984  0.0364
23435SOL    HW282031   9.509  12.036   5.771 -0.6902  3.5996  1.1726
23436SOL     OW82032   4.922  13.076   1.202 -0.6295 -0.3767 -0.0997
23436SOL    HW182033   4.947  13.055   1.292 -0.8872 -1.6819 -0.3160
23436SOL    HW282034   4.974  13.017   1.148  0.3718  1.1781 -0.9027
23437SOL     OW82035   1.591   7.925   5.934 -0.0183 -0.5708 -0.3814
23437SOL    HW182036   1.619   7.838   5.963  1.9412 -0.4650 -1.7351
23437SOL    HW282037   1.587   7.977   6.014  0.9649 -1.3624  0.2115
23438SOL     OW82038   1.476   4.970  11.614 -0.2737  0.4832 -0.4491
23438SOL    HW182039   1.475   4.880  11.581  0.1658  0.2601  0.1430
23438SOL    HW282040   1.436   5.022  11.543  1.3299  0.1230 -1.6608
23439SOL     OW82041  10.436   5.691   0.384  0.2786 -0.5341 -0.4184
23439SOL    HW182042  10.390   5.682   0.300 -0.0559 -0.2441 -0.2702
23439SOL    HW282043  10.385   5.756   0.432  0.7766 -0.3027 -0.1985
23440SOL     OW82044  10.172  10.154  11.028 -0.0893 -0.0538  0.5200
23440SOL    HW182045  10.183  10.141  11.122  2.1498 -2.3804  0.0291
23440SOL    HW282046  10.127  10.239  11.021 -0.0040  0.3636  3.6277
23441SOL     OW82047   7.706   9.961   8.215 -0.2111 -0.4446  0.1725
23441SOL    HW182048   7.615   9.950   8.245 -0.1415  1.3616  1.1673
23441SOL    HW282049   7.700  10.028   8.147  0.6260  1.6351  2.0343
23442SOL     OW82050   9.537   9.289  13.426  0.3108  0.0300 -0.1768
23442SOL    HW182051   9.507   9.202  13.453  0.9782 -0.1085  0.1597
23442SOL    HW282052   9.515   9.346  13.499 -0.4979  0.2315 -0.5691
23443SOL     OW82053  12.855   0.815   2.217 -0.4250 -0.4349 -0.0100
23443SOL    HW182054  12.779   0.867   2.193 -0.9448 -0.9322  0.5481
23443SOL    HW282055  12.819   0.734   2.252  0.3555 -0.6048  0.4202
23444SOL     OW82056   6.882  10.424   9.483 -0.2447 -0.7315  0.0728
23444SOL    HW182057   6.964  10.377   9.493  0.9022  0.8638 -1.3472
23444SOL    HW282058   6.904  10.502   9.434 -2.3879  0.4391  0.8089
23445SOL     OW82059   3.883   4.447  10.653 -0.1997 -0.0721 -0.1020
23445SOL    HW182060   3.915   4.361  10.623  0.5059  0.6426 -1.4883
23445SOL    HW282061   3.807   4.426  10.707 -0.2248 -1.5542 -0.6479
23446SOL     OW82062   1.065   4.029  12.641  0.5265 -0.1053  0.3976
23446SOL    HW182063   1.024   4.064  12.562  1.0166  0.2417  0.2906
23446SOL    HW282064   1.158   4.045  12.629  0.7316 -1.1389  0.5053
23447SOL     OW82065  10.845   8.584  11.528  0.0522  0.2604  0.1098
23447SOL    HW182066  10.767   8.617  11.574  1.4822  2.4177  1.1946
23447SOL    HW282067  10.845   8.631  11.445  0.3099  0.4595  0.2206
23448SOL     OW82068   1.168   9.614   5.317 -0.1260  0.3142 -0.3923
23448SOL    HW182069   1.229   9.619   5.242  3.8422 -1.5431  2.3413
23448SOL    HW282070   1.177   9.699   5.360 -0.8664  0.6655 -0.9185
23449SOL     OW82071   4.843  11.898   9.055 -0.8139 -0.1813  0.4257
23449SOL    HW182072   4.762  11.872   9.100 -0.9337  0.6477  0.7107
23449SOL    HW282073   4.906  11.911   9.126 -0.2497 -1.4080  0.1644
23450SOL     OW82074   3.634  11.501   4.596 -0.1327  0.0567 -0.2818
23450SOL    HW182075   3.587  11.565   4.543  0.3628  0.1811 -0.5833
23450SOL    HW282076   3.566  11.451   4.640 -0.7279 -2.0360 -3.3005
23451SOL     OW82077   3.767   7.684  11.935 -0.4990 -0.3293 -0.0284
23451SOL    HW182078   3.850   7.721  11.904 -0.1569 -1.9457 -1.1772
23451SOL    HW282079   3.770   7.694  12.030  0.9364 -0.2015 -0.0708
23452SOL     OW82080   2.897   2.429  12.553  0.1234  0.2493 -0.3434
23452SOL    HW182081   2.805   2.417  12.579  0.5383  1.2551  1.7793
23452SOL    HW282082   2.942   2.351  12.586  0.1722  0.0480 -0.8577
23453SOL     OW82083   0.675   0.716  10.136  0.0133 -0.3881  0.2013
23453SOL    HW182084   0.594   0.676  10.103 -0.4738  0.6084  0.1404
23453SOL    HW282085   0.723   0.644  10.177 -1.1652 -0.9043  0.7264
23454SOL     OW82086   3.769   9.843   3.039 -0.2661 -0.8276 -0.3252
23454SOL    HW182087   3.860   9.867   3.024 -0.2018  0.2019  1.4545
23454SOL    HW282088   3.726   9.855   2.954  0.9329  0.2307 -0.8011
23455SOL     OW82089   4.439   0.478  10.203  0.5239  0.0757  0.3035
23455SOL    HW182090   4.440   0.508  10.293 -1.5860  1.7016 -0.1356
23455SOL    HW282091   4.431   0.383  10.209  1.7469  0.0261  1.7691
23456SOL     OW82092  11.362  12.260  13.391  0.0407  0.3155 -0.0159
23456SOL    HW182093  11.384  12.297  13.306  1.0298  0.3680  0.2466
23456SOL    HW282094  11.398  12.322  13.454  0.8435 -0.5707  0.4317
23457SOL     OW82095  11.891   3.380  13.287 -0.6225  0.2369  0.2099
23457SOL    HW182096  11.966   3.359  13.342 -1.5078 -0.4131  1.2285
23457SOL    HW282097  11.922   3.449  13.229  0.0196  1.9034  2.3896
23458SOL     OW82098  11.595   3.016   4.930  0.0403  0.0566  0.3767
23458SOL    HW182099  11.526   2.959   4.896  1.2862 -1.1220 -0.2929
23458SOL    HW282100  11.654   2.956   4.976  1.5308  0.7521 -0.5725
23459SOL     OW82101   3.749   8.704   9.650  0.9513  0.0648 -0.2439
23459SOL    HW182102   3.707   8.715   9.735  0.0585 -1.5109 -0.4354
23459SOL    HW282103   3.758   8.793   9.616 -1.1623  0.5698  0.3426
23460SOL     OW82104   7.920   9.878   8.573  0.1787 -0.0300 -0.2130
23460SOL    HW182105   7.982   9.815   8.611 -0.7669 -0.2197  1.0818
23460SOL    HW282106   7.872   9.828   8.507 -0.5316 -0.6956  0.7755
23461SOL     OW82107   1.217  12.779   8.287 -0.5835 -0.5340 -0.2795
23461SOL    HW182108   1.253  12.860   8.322  0.9814 -1.7292  0.9866
23461SOL    HW282109   1.150  12.753   8.351 -1.4443 -0.0257 -0.9428
23462SOL     OW82110  10.730   5.817   8.371  0.1892 -0.9832 -0.0994
23462SOL    HW182111  10.755   5.889   8.429 -1.2095 -0.3559 -0.2270
23462SOL    HW282112  10.683   5.755   8.429 -0.4759 -0.7559 -0.3870
23463SOL     OW82113   9.760   6.469   1.549 -0.2922  0.4205  0.1233
23463SOL    HW182114   9.691   6.486   1.484  0.1045  1.3839 -0.0646
23463SOL    HW282115   9.829   6.531   1.527  0.2612  0.0837  0.8753
23464SOL     OW82116   1.919   5.493   1.986 -0.1976 -0.1716 -0.1162
23464SOL    HW182117   1.937   5.409   1.943  0.0040 -0.7471  1.0471
23464SOL    HW282118   1.896   5.469   2.076 -1.9894  0.8957 -0.2435
23465SOL     OW82119   1.855   5.128  12.786 -0.1825  0.3850  0.9030
23465SOL    HW182120   1.786   5.151  12.724 -0.1211  1.4324  1.2145
23465SOL    HW282121   1.818   5.057  12.838 -0.4759 -0.0624  0.1000
23466SOL     OW82122   5.400   9.497   1.563  0.0780  0.0569  0.6668
23466SOL    HW182123   5.413   9.559   1.491 -0.7470 -0.8082 -0.2581
23466SOL    HW282124   5.306   9.480   1.563  0.5334 -3.3183 -0.9911
23467SOL     OW82125   3.710   7.661  10.280 -0.1130 -0.4726  0.0470
23467SOL    HW182126   3.750   7.659  10.193  1.4387  1.4123  0.6524
23467SOL    HW282127   3.620   7.631  10.266 -0.0156  0.1547 -2.2699
23468SOL     OW82128   7.870   0.621   1.890 -0.1052 -0.1317 -0.1109
23468SOL    HW182129   7.887   0.527   1.898 -0.5400 -0.4660 -2.4372
23468SOL    HW282130   7.903   0.644   1.803 -0.6151  1.7347  0.1522
23469SOL     OW82131   8.498   4.294   7.548 -0.1471 -0.4332 -0.1340
23469SOL    HW182132   8.408   4.298   7.580 -0.2097 -0.7493 -0.2643
23469SOL    HW282133   8.550   4.273   7.626 -0.3243 -1.4249 -0.2718
23470SOL     OW82134   1.974   6.001  10.796  0.1989 -0.2782 -0.3171
23470SOL    HW182135   1.900   6.027  10.852 -0.1088 -3.2428  0.8771
23470SOL    HW282136   2.050   6.001  10.855  0.1596 -1.9342 -0.2003
23471SOL     OW82137   8.324   9.868   0.152 -0.4929  0.1304 -0.3669
23471SOL    HW182138   8.404   9.871   0.100  1.6672 -2.0952  2.4859
23471SOL    HW282139   8.313   9.958   0.182  0.1498  0.7441 -1.8471
23472SOL     OW82140  13.368   7.826   1.418  0.3901 -0.0491 -0.5114
23472SOL    HW182141  13.357   7.736   1.386  0.0014  0.2192 -1.1759
23472SOL    HW282142  13.428   7.819   1.492 -3.4580 -1.5760  2.8296
23473SOL     OW82143   1.319  10.117  12.114  0.0043  0.6513 -0.0710
23473SOL    HW182144   1.408  10.091  12.090 -0.3284  0.3161 -1.0151
23473SOL    HW282145   1.308  10.087  12.204  0.8425  0.6866  0.0476
23474SOL     OW82146  10.612   8.969   0.974  0.0668  0.2077 -0.3798
23474SOL    HW182147  10.595   8.876   0.982 -1.1573  0.5519  1.6341
23474SOL    HW282148  10.531   9.006   0.938  0.8894  0.4154 -2.1318
23475SOL     OW82149   7.858   9.835   7.715 -0.2313  0.3733  0.5035
23475SOL    HW182150   7.789   9.898   7.695  0.5815  1.3914  0.7532
23475SOL    HW282151   7.839   9.804   7.803 -2.0354 -1.6786 -0.5408
23476SOL     OW82152  10.642  11.535  11.292 -0.0058  0.2216  0.4086
23476SOL    HW182153  10.671  11.574  11.375 -1.2493  2.0142  0.0572
23476SOL    HW282154  10.552  11.566  11.281  0.0384 -0.2022 -1.4870
23477SOL     OW82155   1.711  10.667  10.677 -0.2591  0.0058  0.0665
23477SOL    HW182156   1.767  10.733  10.716 -0.4790 -0.9422  2.1230
23477SOL    HW282157   1.689  10.608  10.749 -2.3713 -0.7141 -1.0595
23478SOL     OW82158   2.241  10.397   3.137  0.0326  0.4737 -0.3082
23478SOL    HW182159   2.330  10.380   3.106  1.0031  2.1302  1.3635
23478SOL    HW282160   2.240  10.367   3.227 -0.4743  2.1814  0.3060
23479SOL     OW82161   2.098   6.357   7.978 -0.5469 -0.2949 -0.0124
23479SOL    HW182162   2.091   6.409   8.059 -0.3262  1.0608 -0.8312
23479SOL    HW282163   2.053   6.275   7.999 -0.3361 -0.0575  1.5407
23480SOL     OW82164   1.219   1.272   7.984 -0.2746  1.1471 -0.0405
23480SOL    HW182165   1.144   1.253   8.039  0.3333  1.2208  0.8354
23480SOL    HW282166   1.196   1.235   7.898 -0.0130 -1.7384  1.0040
23481SOL     OW82167   4.725   6.107   7.468 -0.0830  0.3545  0.5973
23481SOL    HW182168   4.804   6.054   7.458  0.5562  1.4239 -0.1843
23481SOL    HW282169   4.699   6.094   7.559  1.7291  0.9876  1.2471
23482SOL     OW82170   8.852  12.584   1.197  0.4400  0.2754  0.2198
23482SOL    HW182171   8.913  12.653   1.172 -0.7420  0.7091 -1.6321
23482SOL    HW282172   8.780  12.631   1.240 -0.0951  0.1588 -0.5289
23483SOL     OW82173   7.371  11.043   7.574  0.4226  0.7351  0.8947
23483SOL    HW182174   7.434  11.001   7.632  1.4039  0.2227 -0.4855
23483SOL    HW282175   7.378  10.994   7.491 -0.0715  2.1618 -0.0280
23484SOL     OW82176   1.487   1.305  12.912 -0.2136 -0.2005 -0.5254
23484SOL    HW182177   1.514   1.337  12.826  2.9077  2.7172  1.3084
23484SOL    HW282178   1.561   1.253  12.943 -0.4431  0.4023  1.1266
23485SOL     OW82179   2.550   2.582   0.498  0.0377  0.2059  0.3765
23485SOL    HW182180   2.505   2.615   0.576 -0.8331 -0.0941  0.0151
23485SOL    HW282181   2.586   2.497   0.525  1.0401  0.7745  0.8827
23486SOL     OW82182   1.659   6.508   0.518 -0.3360  0.5024 -0.1266
23486SOL    HW182183   1.565   6.527   0.513 -0.4108  0.1914  0.0904
23486SOL    HW282184   1.692   6.569   0.585 -0.3556  0.7124 -0.3071
23487SOL     OW82185  10.290   3.355   5.517 -0.2493  0.1347 -0.1386
23487SOL    HW182186  10.380   3.342   5.487 -0.6755  0.7852 -1.8092
23487SOL    HW282187  10.236   3.319   5.447 -1.3153  2.3219 -0.5180
23488SOL     OW82188  11.479   6.194   8.739  0.0750  0.5601  0.4364
23488SOL    HW182189  11.445   6.270   8.786  0.7584  0.9365  0.3313
23488SOL    HW282190  11.404   6.160   8.692  0.0178  1.9372 -0.5394
23489SOL     OW82191   8.436  11.432   6.702  0.1254 -0.0500  0.0316
23489SOL    HW182192   8.355  11.423   6.652 -0.4125 -1.2212  1.0330
23489SOL    HW282193   8.492  11.487   6.648 -0.9281 -0.1285 -1.1979
23490SOL     OW82194   6.191   9.794   9.697  0.2632  0.2710  0.1493
23490SOL    HW182195   6.142   9.829   9.622  1.3629  0.0157 -0.7102
23490SOL    HW282196   6.123   9.768   9.760 -0.7603 -0.8688 -1.3649
23491SOL     OW82197   3.926   2.271   0.666  0.3964  1.1986 -0.6470
23491SOL    HW182198   3.984   2.263   0.591 -0.8609  1.9740 -1.7395
23491SOL    HW282199   3.892   2.361   0.661 -0.9290  0.7577 -0.0707
23492SOL     OW82200   5.826   8.797   3.670  0.4782  0.0578  0.0864
23492SOL    HW182201   5.834   8.831   3.582  0.2048  0.3683  0.1796
23492SOL    HW282202   5.908   8.751   3.687  0.3777 -0.3348 -0.4711
23493SOL     OW82203   8.663   2.771   1.066 -0.1035  0.5584 -0.5569
23493SOL    HW182204   8.589   2.722   1.032  0.9448 -1.6744  0.1616
23493SOL    HW282205   8.690   2.828   0.993 -0.5745 -0.9222 -1.9509
23494SOL     OW82206   1.537   0.468   8.098 -0.3984  0.0962  0.1311
23494SOL    HW182207   1.457   0.504   8.138 -0.2133  0.3227  0.3000
23494SOL    HW282208   1.604   0.477   8.166  0.0352  0.9312 -0.3975
23495SOL     OW82209  11.177   7.504  12.138  0.0042 -0.2631  0.5444
23495SOL    HW182210  11.111   7.542  12.080  1.9326  1.0681 -0.9106
23495SOL    HW282211  11.175   7.410  12.119 -1.0497 -0.1609  0.0966
23496SOL     OW82212   8.298  11.411   4.417  0.0600 -0.2657  0.3366
23496SOL    HW182213   8.333  11.485   4.466 -0.3117 -0.2804  0.6298
23496SOL    HW282214   8.290  11.443   4.327 -1.3215  0.4818  0.7049
23497SOL     OW82215   7.717   3.231   7.198  0.8736 -0.2591 -0.5595
23497SOL    HW182216   7.638   3.203   7.151 -0.1721  2.0030 -0.3065
23497SOL    HW282217   7.778   3.257   7.129  0.1216  1.0598 -0.7879
23498SOL     OW82218  10.260   4.580   0.305  0.0785  0.5766  0.4463
23498SOL    HW182219  10.348   4.548   0.289 -0.3362  0.8616 -3.1958
23498SOL    HW282220  10.202   4.512   0.271 -1.0214  1.5669  0.2451
23499SOL     OW82221   3.266  12.045   6.576 -0.3479 -0.5135 -0.4490
23499SOL    HW182222   3.266  11.978   6.645 -1.5964  1.2472  1.3731
23499SOL    HW282223   3.349  12.090   6.587 -0.7438  0.0683  0.2705
23500SOL     OW82224   9.872   5.161   2.653  0.2039 -0.2831 -0.1288
23500SOL    HW182225   9.833   5.084   2.695  0.1650  0.3248  0.9839
23500SOL    HW282226   9.966   5.154   2.671  0.1582  0.1044  0.2828
23501SOL     OW82227   4.014   1.558   8.659  0.2378  0.5376 -0.5291
23501SOL    HW182228   4.088   1.571   8.600  0.9921 -0.9470  0.0379
23501SOL    HW282229   4.050   1.573   8.747  0.2329 -1.4205 -0.1417
23502SOL     OW82230   5.149  10.723   3.379  0.0227 -0.3269 -0.6082
23502SOL    HW182231   5.067  10.708   3.332 -0.1651  1.0392 -0.7561
23502SOL    HW282232   5.170  10.639   3.419 -1.1818 -0.8220 -0.9909
23503SOL     OW82233   3.897   8.933   2.673  0.2813 -0.0008 -0.3356
23503SOL    HW182234   3.898   9.017   2.626  0.0768  0.1466 -0.0796
23503SOL    HW282235   3.858   8.872   2.611 -1.9502  0.6341  0.3651
23504SOL     OW82236   0.060  13.153   6.690  0.3738 -0.0815  0.5760
23504SOL    HW182237   0.015  13.191   6.614  0.6559 -0.7427  0.0761
23504SOL    HW282238  -0.009  13.147   6.757  0.3940  1.6270  0.8036
23505SOL     OW82239   1.206   6.442   7.951 -0.9610 -0.6474  0.0823
23505SOL    HW182240   1.172   6.400   8.030 -0.3076  0.5334  1.0221
23505SOL    HW282241   1.233   6.529   7.980 -0.5635 -0.2494 -1.4183
23506SOL     OW82242  13.143   7.257   5.927 -0.1974  0.0153  1.0360
23506SOL    HW182243  13.079   7.323   5.953 -1.5422 -0.4964 -0.8022
23506SOL    HW282244  13.090   7.183   5.896  1.2579 -0.4707 -0.4451
23507SOL     OW82245   2.191   7.747   7.412 -0.0899 -0.2269 -0.0546
23507SOL    HW182246   2.161   7.657   7.425  1.5667 -0.7335  0.5134
23507SOL    HW282247   2.186   7.761   7.318 -0.4446 -0.8856 -0.1406
23508SOL     OW82248  12.166   1.380   1.550 -0.1303  0.1288  0.1105
23508SOL    HW182249  12.103   1.361   1.481  1.0737 -0.9132 -0.7554
23508SOL    HW282250  12.237   1.318   1.536  1.4476  1.7270  0.5800
23509SOL     OW82251   0.990   8.391  13.137  0.3577  0.5591  0.5678
23509SOL    HW182252   0.971   8.298  13.152 -2.0273  0.5333 -1.8267
23509SOL    HW282253   1.081   8.392  13.108  0.0891 -1.2331 -0.5174
23510SOL     OW82254   3.606  11.790  12.249 -0.2204 -0.1970  0.4126
23510SOL    HW182255   3.687  11.739  12.246 -0.2604 -0.3694  1.7343
23510SOL    HW282256   3.617  11.849  12.323 -1.2070 -0.0687  0.4786
23511SOL     OW82257   9.516  10.903   0.668  0.1371  0.4771 -0.3175
23511SOL    HW182258   9.606  10.934   0.660 -0.3597  2.2342  0.5173
23511SOL    HW282259   9.462  10.981   0.656 -1.3090 -0.6054 -1.1609
23512SOL     OW82260   5.924  11.224  11.665 -0.3554 -0.7447 -0.0434
23512SOL    HW182261   5.896  11.216  11.756 -2.2432  0.8522 -0.4025
23512SOL    HW282262   5.965  11.141  11.645  1.5692 -0.5949  2.7083
23513SOL     OW82263  13.018  13.719   4.574 -0.3274 -0.1431 -0.5691
23513SOL    HW182264  13.099  13.695   4.619 -1.1961 -0.5926  0.8326
23513SOL    HW282265  13.047  13.757   4.491  1.2854 -0.9599 -0.4273
23514SOL     OW82266   5.044  12.172  11.185  0.1874 -0.2653 -0.4609
23514SOL    HW182267   5.088  12.257  11.193  0.4583 -0.5038  0.8412
23514SOL    HW282268   5.093  12.114  11.244 -1.1499 -0.8393  0.1256
23515SOL     OW82269  12.119   0.253   9.415  0.0515 -0.2925  0.3531
23515SOL    HW182270  12.205   0.238   9.454  1.2560  0.7626 -1.7352
23515SOL    HW282271  12.127   0.337   9.370 -0.9522 -1.6755 -2.6732
23516SOL     OW82272   8.084   8.931   2.849  0.5069 -0.4597  0.6683
23516SOL    HW182273   8.097   8.845   2.807 -0.2888 -0.0499 -0.4521
23516SOL    HW282274   8.021   8.976   2.793  1.2845  1.0617  0.9554
23517SOL     OW82275   6.432  12.537   8.935 -0.0690  0.5075 -0.0670
23517SOL    HW182276   6.472  12.509   8.853 -1.2272  1.4702 -1.0022
23517SOL    HW282277   6.495  12.597   8.974  0.0655  0.8021 -0.7342
23518SOL     OW82278   3.107   6.556   0.617 -0.0104  0.1940  0.4907
23518SOL    HW182279   3.124   6.540   0.710  1.5409  1.4011  0.4656
23518SOL    HW282280   3.193   6.552   0.576 -0.6718 -0.3366 -0.9197
23519SOL     OW82281  10.268  10.663  13.475  0.0131 -0.3145 -0.1293
23519SOL    HW182282  10.213  10.603  13.425  0.5894 -0.0768 -1.0693
23519SOL    HW282283  10.309  10.608  13.542 -1.2030 -0.5286  0.4858
23520SOL     OW82284   6.712   1.641   9.420  0.0713 -0.0195 -0.1209
23520SOL    HW182285   6.755   1.596   9.346  1.0604  0.2394  0.2830
23520SOL    HW282286   6.622   1.655   9.390  0.4800  0.1827 -1.3316
23521SOL     OW82287  11.142   0.673   3.982 -0.2796 -0.2316  0.1969
23521SOL    HW182288  11.114   0.650   4.071 -0.1026  1.0063  0.5883
23521SOL    HW282289  11.060   0.684   3.933 -0.3752 -1.0481  0.1647
23522SOL     OW82290   6.370  12.117   6.956  0.5896 -0.1276  0.4112
23522SOL    HW182291   6.372  12.202   6.913  2.7224 -1.2783 -1.9782
23522SOL    HW282292   6.393  12.136   7.047  0.7582  1.8467 -0.0005
23523SOL     OW82293   9.249   7.112   1.940  0.1128 -0.6888 -0.2997
23523SOL    HW182294   9.289   7.199   1.939  1.9942 -1.4796  0.0487
23523SOL    HW282295   9.323   7.052   1.929 -1.0581 -2.2699  0.0458
23524SOL     OW82296  12.481   8.049   0.271  0.8677  0.2383 -0.0663
23524SOL    HW182297  12.559   8.090   0.235  1.0117  1.2863  1.3669
23524SOL    HW282298  12.436   8.119   0.318 -0.1616 -0.6909  0.3906
23525SOL     OW82299   3.965   5.104   5.613  0.4441 -0.9027  0.7260
23525SOL    HW182300   3.998   5.120   5.701 -0.0390 -0.9856  0.9218
23525SOL    HW282301   3.880   5.061   5.625  0.1096 -0.4071  0.2349
23526SOL     OW82302  12.863   2.138   8.653  0.0437 -0.2635  0.1267
23526SOL    HW182303  12.868   2.175   8.565  1.3044 -0.9478 -0.1081
23526SOL    HW282304  12.864   2.214   8.711 -1.7472  0.2462 -0.4434
23527SOL     OW82305  10.323   6.730   3.962 -0.2020 -0.2283 -0.2024
23527SOL    HW182306  10.398   6.678   3.932 -0.1645 -0.3898  0.1704
23527SOL    HW282307  10.356   6.820   3.964  0.2608 -0.4070  0.8248
23528SOL     OW82308  11.028   0.041   9.090  0.2726 -0.8081 -0.4867
23528SOL    HW182309  10.936   0.017   9.082  0.3117 -0.7768 -1.0552
23528SOL    HW282310  11.026   0.128   9.128  0.0756 -0.8970 -0.2861
23529SOL     OW82311   8.126  10.616  11.346  0.1888 -0.1779 -0.6317
23529SOL    HW182312   8.171  10.611  11.430 -0.3059  2.1477 -0.1738
23529SOL    HW282313   8.159  10.696  11.305 -0.8443 -0.3624 -1.9102
23530SOL     OW82314   8.746  10.051   4.015  0.6370  0.0389 -0.1432
23530SOL    HW182315   8.792  10.023   3.936 -0.6081  2.8278 -2.0177
23530SOL    HW282316   8.678   9.985   4.028  1.1213 -0.6796 -1.1518
23531SOL     OW82317   1.929   8.206  10.318 -0.2597 -0.6902 -0.2060
23531SOL    HW182318   1.980   8.152  10.377  1.1171  0.9742  0.2130
23531SOL    HW282319   1.930   8.293  10.358 -1.2468 -0.0354 -1.5247
23532SOL     OW82320  12.143  11.123  13.111  0.3388  0.5854 -0.0202
23532SOL    HW182321  12.092  11.202  13.124  1.0510  0.9422  0.7455
23532SOL    HW282322  12.078  11.053  13.101 -0.2917  1.2462 -0.6648
23533SOL     OW82323   6.827  10.622   8.190 -0.5556 -0.6840  0.4903
23533SOL    HW182324   6.861  10.532   8.193 -0.4415 -0.6337  0.7361
23533SOL    HW282325   6.898  10.675   8.225 -0.5735 -0.4823  0.2220
23534SOL     OW82326   4.477   4.136   0.560 -0.2504  0.1532 -0.2273
23534SOL    HW182327   4.421   4.058   0.562  1.4689 -1.1841 -1.3670
23534SOL    HW282328   4.419   4.206   0.531 -1.6225 -0.8921 -0.1202
23535SOL     OW82329   3.866  12.341  12.285  0.5147 -0.0624 -0.0725
23535SOL    HW182330   3.954  12.304  12.275  2.0077  2.6378  1.8670
23535SOL    HW282331   3.850  12.390  12.205  1.5788  0.8496  0.2474
23536SOL     OW82332   9.030  13.441   5.942 -0.1870 -0.1976  0.0478
23536SOL    HW182333   9.117  13.468   5.914 -0.5346  0.0343 -0.8705
23536SOL    HW282334   9.040  13.413   6.033  1.5129 -3.1924 -0.9042
23537SOL     OW82335   5.155   2.089  11.246 -0.1453 -0.3534  0.2503
23537SOL    HW182336   5.183   2.127  11.162  0.4860 -0.5047  0.3863
23537SOL    HW282337   5.237   2.067  11.291 -0.3450  2.2135  2.0976
23538SOL     OW82338  12.348   2.362   4.566  0.2047  0.0340 -0.2241
23538SOL    HW182339  12.438   2.332   4.561  1.3216  3.0377 -0.1061
23538SOL    HW282340  12.337   2.394   4.655 -0.7115  0.4467 -0.4611
23539SOL     OW82341   8.835   8.462   0.279  0.2138 -0.0972 -0.4407
23539SOL    HW182342   8.889   8.400   0.229  0.0486 -1.3228  0.8248
23539SOL    HW282343   8.899   8.517   0.325  0.4369 -1.2654  0.7165
23540SOL     OW82344   7.175  12.175   8.287  0.5928  0.5197  0.4361
23540SOL    HW182345   7.131  12.142   8.366 -0.2097  0.8172  0.1273
23540SOL    HW282346   7.146  12.266   8.280  1.3802  0.7635  0.2977
23541SOL     OW82347  11.698   9.287   9.566 -0.3385 -0.5397  0.4894
23541SOL    HW182348  11.758   9.315   9.496  1.5898  0.1413  2.3094
23541SOL    HW282349  11.712   9.193   9.574 -0.2080 -0.5388  0.2803
23542SOL     OW82350  10.746   3.676  10.334 -0.4935  0.0511  0.4584
23542SOL    HW182351  10.799   3.637  10.404 -0.5333 -1.6381 -0.4005
23542SOL    HW282352  10.670   3.618  10.327 -1.3070  1.1324  0.0981
23543SOL     OW82353   1.512   3.277   1.193 -0.1961 -0.2079  0.0789
23543SOL    HW182354   1.446   3.310   1.254  0.8302 -1.9640  2.2484
23543SOL    HW282355   1.518   3.183   1.212  2.3002 -0.2666 -0.6616
23544SOL     OW82356  12.831   4.329   0.270  0.0687 -0.7415 -0.5120
23544SOL    HW182357  12.844   4.345   0.176  1.2775 -1.9260 -0.5902
23544SOL    HW282358  12.750   4.375   0.292 -1.7567 -2.6360 -2.7331
23545SOL     OW82359  12.977   3.597  10.795  0.5723  0.5162 -0.0611
23545SOL    HW182360  12.988   3.632  10.707  0.2392  2.4828  0.6413
23545SOL    HW282361  13.013   3.665  10.853  0.8646 -0.7596  1.3323
23546SOL     OW82362   6.632   2.873  11.051  0.4877 -0.4170 -0.3586
23546SOL    HW182363   6.666   2.789  11.081 -1.3045 -0.7502  0.9825
23546SOL    HW282364   6.695   2.904  10.987  1.9447 -2.0961  0.1847
23547SOL     OW82365   2.775   6.264  11.588 -0.0451  0.0931 -0.1696
23547SOL    HW182366   2.800   6.324  11.658 -1.2026 -0.1353  0.4515
23547SOL    HW282367   2.680   6.271  11.583 -0.0201 -0.2928 -1.3663
23548SOL     OW82368   2.048   6.442  13.395  0.2103  0.4107 -0.2381
23548SOL    HW182369   2.091   6.399  13.469  2.9467 -1.4452 -2.6726
23548SOL    HW282370   2.080   6.396  13.318 -2.4099  2.2628 -2.6776
23549SOL     OW82371  11.674   6.721  12.441 -0.3110  0.1245 -0.2924
23549SOL    HW182372  11.605   6.719  12.507  0.7132 -1.3091  0.8168
23549SOL    HW282373  11.755   6.720  12.492  0.5127 -1.0241 -1.5570
23550SOL     OW82374   5.035  13.097  13.424  0.3060 -0.0050 -0.0586
23550SOL    HW182375   4.968  13.151  13.382 -0.0501 -0.7744 -0.5022
23550SOL    HW282376   5.068  13.041  13.354  0.8792 -0.1550  0.3251
23551SOL     OW82377   9.126  13.582   0.042  0.1364  0.7986 -0.8331
23551SOL    HW182378   9.040  13.618   0.020 -0.1078  1.3614  0.8876
23551SOL    HW282379   9.182  13.607  -0.032 -1.2426  0.0333 -2.2023
23552SOL     OW82380   8.987   7.372   0.521  0.1537  0.1584  0.1125
23552SOL    HW182381   9.031   7.287   0.518 -2.5286 -1.3450 -0.8136
23552SOL    HW282382   9.057   7.436   0.518  2.4007 -1.9683  2.2703
23553SOL     OW82383   3.518   4.516   5.313 -0.4086 -0.4815  0.0053
23553SOL    HW182384   3.477   4.600   5.298 -1.6228 -0.9265  0.7124
23553SOL    HW282385   3.594   4.515   5.254  0.3703  1.6071  0.8876
23554SOL     OW82386   0.558   5.835  12.921  0.0165  0.2633  0.0478
23554SOL    HW182387   0.587   5.910  12.973  0.4688  0.3575 -0.3426
23554SOL    HW282388   0.466   5.823  12.946  0.3425  0.0241  1.2087
23555SOL     OW82389   8.668   2.384  13.478  0.1307  0.0715  0.3123
23555SOL    HW182390   8.646   2.458  13.421  0.7698 -0.8135 -1.1376
23555SOL    HW282391   8.762   2.392  13.493 -0.0456  0.3614  1.3923
23556SOL     OW82392   5.640   5.523  10.243  0.5674 -0.2532 -0.1081
23556SOL    HW182393   5.678   5.436  10.241 -1.0405 -1.0293  1.1348
23556SOL    HW282394   5.701   5.575  10.295  0.5962 -1.1444  0.7757
23557SOL     OW82395   1.961   4.112   3.285 -0.7143  0.1382  0.4143
23557SOL    HW182396   1.887   4.165   3.315  0.1135  1.4087  0.3195
23557SOL    HW282397   2.019   4.175   3.242 -0.1283 -1.0216 -0.5763
23558SOL     OW82398   9.401   9.059   5.960  0.0325  0.0339  0.8352
23558SOL    HW182399   9.414   9.014   5.876 -0.6836  2.6028 -0.8032
23558SOL    HW282400   9.442   9.003   6.025  1.4426 -1.6516 -1.3766
23559SOL     OW82401   9.256   5.119  12.213  0.0080 -0.3677  0.5476
23559SOL    HW182402   9.299   5.186  12.267 -1.9256  0.1945  1.4812
23559SOL    HW282403   9.298   5.037  12.239  1.8975  0.3304 -0.0698
23560SOL     OW82404  11.941   4.013  11.960 -0.1199  0.3030  0.1544
23560SOL    HW182405  11.948   3.925  11.997 -3.0086 -0.0181  0.1549
23560SOL    HW282406  11.943   4.071  12.037  0.5679  0.1629  0.2490
23561SOL     OW82407   5.437  10.599   1.727  0.3614  0.1984  0.9536
23561SOL    HW182408   5.407  10.607   1.637  0.4768  0.5340  0.9432
23561SOL    HW282409   5.454  10.506   1.739  0.1322  0.1242  0.6975
23562SOL     OW82410   7.937   1.289   9.320 -0.3452  0.0086 -0.2504
23562SOL    HW182411   7.977   1.323   9.240  0.4202  0.6219  0.3775
23562SOL    HW282412   7.916   1.367   9.372 -1.2670 -0.3614 -0.0484
23563SOL     OW82413   4.405   5.765   8.870  0.1772  0.1461  0.3083
23563SOL    HW182414   4.496   5.737   8.861 -0.2957 -1.3550  0.0627
23563SOL    HW282415   4.368   5.754   8.782 -0.0054  1.7294  0.1450
23564SOL     OW82416   7.377   2.112   5.308 -0.1213 -0.1554 -0.2760
23564SOL    HW182417   7.340   2.072   5.387 -0.4763  0.7001  0.0086
23564SOL    HW282418   7.301   2.132   5.254 -0.0842  1.3282  0.1722
23565SOL     OW82419   3.862   5.951   3.675  0.3105 -0.4828  0.1018
23565SOL    HW182420   3.858   5.881   3.740 -1.4265 -2.2331 -1.7766
23565SOL    HW282421   3.775   5.954   3.636  0.5225  2.2944 -0.3990
23566SOL     OW82422  12.496  13.034  13.626 -0.2729 -0.4737  0.4546
23566SOL    HW182423  12.567  13.045  13.689 -0.4920 -0.4625  0.7050
23566SOL    HW282424  12.424  13.087  13.661 -0.7630 -1.3182  0.7699
23567SOL     OW82425   3.081   5.183   4.197  0.5054 -0.7545 -0.3738
23567SOL    HW182426   3.048   5.266   4.163  1.3948 -0.1954  0.0780
23567SOL    HW282427   3.019   5.159   4.266  0.2744 -0.4303 -0.4663
23568SOL     OW82428  11.433   8.878   2.266 -0.1094 -0.3455  0.4186
23568SOL    HW182429  11.495   8.827   2.213  1.0788  1.2733  0.1890
23568SOL    HW282430  11.363   8.902   2.205  0.6236  0.4488 -0.1237
23569SOL     OW82431   0.792  13.360   1.090  0.5372 -0.3463  0.0071
23569SOL    HW182432   0.749  13.340   1.173  0.4129  0.2148  0.0818
23569SOL    HW282433   0.848  13.436   1.108  1.0455 -0.6511 -0.2542
23570SOL     OW82434  11.878  11.002   5.967  0.1099  0.1723  0.2116
23570SOL    HW182435  11.920  10.930   5.919  1.7594 -0.1361  1.9613
23570SOL    HW282436  11.894  11.080   5.913 -1.2779 -0.6537 -1.4707
23571SOL     OW82437  13.008  13.162  12.696  0.0926 -0.0727  0.1085
23571SOL    HW182438  13.096  13.198  12.687  0.2885 -0.7375 -0.7928
23571SOL    HW282439  13.016  13.072  12.664 -0.8083 -0.2952  0.4863
23572SOL     OW82440  11.888  11.236   3.377  0.2434  0.3081 -0.0779
23572SOL    HW182441  11.814  11.177   3.390 -0.8220  1.4393 -0.7742
23572SOL    HW282442  11.906  11.232   3.283 -0.8767  2.2247 -0.4187
23573SOL     OW82443  10.082   4.297   8.639  0.0907  0.3089  0.0558
23573SOL    HW182444   9.999   4.344   8.630  0.1114  0.7259  1.7057
23573SOL    HW282445  10.126   4.310   8.555 -0.4863  2.1096 -0.0198
23574SOL     OW82446   3.387   1.582   8.648 -0.7647 -0.1302 -0.3479
23574SOL    HW182447   3.358   1.517   8.713  3.1864 -1.3020  0.4924
23574SOL    HW282448   3.356   1.547   8.565 -2.5514 -0.6890  0.4977
23575SOL     OW82449   7.133   4.359  13.333  0.3399  0.2655 -0.0344
23575SOL    HW182450   7.089   4.282  13.298  1.5809  0.3404 -1.8962
23575SOL    HW282451   7.087   4.433  13.294  0.3208  0.4202  0.2789
23576SOL     OW82452   0.573   3.611   7.670 -0.0557  0.1209  0.2527
23576SOL    HW182453   0.487   3.568   7.675 -0.0869  0.1937  0.3534
23576SOL    HW282454   0.621   3.577   7.745  0.2868 -0.5282 -0.2544
23577SOL     OW82455   7.163   4.626   6.872 -0.3226 -0.0232  0.6443
23577SOL    HW182456   7.208   4.709   6.859 -0.5659  0.2693  1.6223
23577SOL    HW282457   7.210   4.564   6.816 -0.3266  0.8243 -0.3206
23578SOL     OW82458   0.443   9.762   0.761  0.3408  0.1591 -0.1601
23578SOL    HW182459   0.463   9.719   0.679  2.1503 -1.4785  1.0497
23578SOL    HW282460   0.399   9.695   0.814  0.9401  0.5541  0.8793
23579SOL     OW82461   6.171  10.630  10.010  0.1846  0.5129 -0.3707
23579SOL    HW182462   6.251  10.611   9.961 -0.0786  1.2421 -1.0903
23579SOL    HW282463   6.108  10.564   9.979  0.2982  0.3719 -0.3048
23580SOL     OW82464  10.715  13.355  12.093 -0.0746  0.0086  0.7404
23580SOL    HW182465  10.789  13.348  12.153  0.1300 -0.2738  0.4640
23580SOL    HW282466  10.642  13.313  12.140  0.3628 -1.2393  0.3639
23581SOL     OW82467   4.603  11.807   2.584  0.3502  0.8220 -0.0338
23581SOL    HW182468   4.546  11.735   2.557  2.0635 -0.2465 -0.8974
23581SOL    HW282469   4.631  11.785   2.672 -0.6794  1.4505  0.4726
23582SOL     OW82470   2.919   2.249  10.859  1.0341 -0.1105  0.8341
23582SOL    HW182471   2.965   2.192  10.798  2.3347  0.6915  1.0142
23582SOL    HW282472   2.989   2.296  10.904  0.0349  0.6646  1.6200
23583SOL     OW82473   1.804  10.888   4.063 -0.1439  0.1261  0.2198
23583SOL    HW182474   1.772  10.798   4.057 -0.0282  0.1558 -3.7526
23583SOL    HW282475   1.804  10.908   4.157  0.3390 -4.1540  1.3478
23584SOL     OW82476   1.094   1.845   4.148  0.1986 -0.2254  0.2154
23584SOL    HW182477   1.047   1.877   4.225 -0.4755 -0.1198 -0.2311
23584SOL    HW282478   1.048   1.883   4.073  2.1590  1.4637 -0.2304
23585SOL     OW82479   8.300  12.103   0.530 -0.3562 -0.1003  0.6775
23585SOL    HW182480   8.361  12.168   0.495 -0.0505  0.6931  2.5681
23585SOL    HW282481   8.355  12.026   0.548 -0.2701 -0.0566  0.5991
23586SOL     OW82482   0.361   4.341   8.295 -0.4734  0.6000 -0.2695
23586SOL    HW182483   0.435   4.311   8.349 -0.4454 -0.8920 -1.1051
23586SOL    HW282484   0.321   4.261   8.261 -2.1317  1.4112 -0.3230
23587SOL     OW82485   1.463   8.860   2.986  0.1775  0.0482 -0.3103
23587SOL    HW182486   1.533   8.841   3.049  0.3926 -0.6201 -0.7376
23587SOL    HW282487   1.439   8.774   2.950  0.0558  0.4183 -1.1308
23588SOL     OW82488   8.994   4.385   6.416  0.8014  0.4823 -0.1545
23588SOL    HW182489   8.975   4.291   6.411 -0.1121  0.4681  2.2924
23588SOL    HW282490   8.909   4.427   6.403  0.8687  0.8785  0.6618
23589SOL     OW82491   4.552   8.229   1.782  1.0014 -0.0544  0.3158
23589SOL    HW182492   4.578   8.296   1.846 -0.4469  0.3863  0.4670
23589SOL    HW282493   4.480   8.268   1.734  0.7264 -1.1697 -0.2065
23590SOL     OW82494  10.537   9.320   1.124 -0.4718  0.2127 -0.1237
23590SOL    HW182495  10.456   9.269   1.117  1.0553 -2.3689 -0.0631
23590SOL    HW282496  10.548   9.358   1.036 -1.5926  0.4169 -0.1969
23591SOL     OW82497  10.287  10.320  13.295 -0.0079  0.2297  0.1753
23591SOL    HW182498  10.352  10.367  13.243 -0.5960  0.0855 -0.7040
23591SOL    HW282499  10.212  10.380  13.301  0.1667  0.3767  1.1456
23592SOL     OW82500  13.156   7.884  13.568  0.5796 -0.2330  0.5584
23592SOL    HW182501  13.108   7.953  13.524  1.0160 -0.2770 -0.0058
23592SOL    HW282502  13.090   7.818  13.590  0.6335 -1.4163 -2.3330
23593SOL     OW82503   2.655  13.738   0.360  0.0852 -0.2450 -0.3486
23593SOL    HW182504   2.645  13.669   0.294 -0.4265 -0.2812 -0.2410
23593SOL    HW282505   2.680  13.692   0.440  0.7363 -0.1983 -0.5200
23594SOL     OW82506  10.437   0.742   1.532 -0.1973  0.2094  0.3679
23594SOL    HW182507  10.399   0.673   1.587  0.9485 -0.4763  0.3372
23594SOL    HW282508  10.508   0.699   1.486  1.7890  1.8297  1.7579
23595SOL     OW82509   4.089   0.077   9.439  0.1498  0.5137  0.2964
23595SOL    HW182510   4.147   0.153   9.440  0.5289  0.2203  0.8978
23595SOL    HW282511   4.114   0.029   9.360  3.0491 -1.3575  2.1752
23596SOL     OW82512  10.250   8.800   0.753  0.3317 -0.0246  0.2149
23596SOL    HW182513  10.156   8.807   0.732 -0.0105 -1.3938  1.1429
23596SOL    HW282514  10.254   8.731   0.819  1.9493  0.4220  0.6092
23597SOL     OW82515   5.104   2.347   0.535  0.5885  0.2679 -0.0417
23597SOL    HW182516   5.167   2.393   0.591  1.5879  0.4823 -1.2960
23597SOL    HW282517   5.094   2.404   0.459  1.0901 -1.1197 -1.1770
23598SOL     OW82518   4.704   9.453   5.982  0.5732  0.6437 -0.1662
23598SOL    HW182519   4.714   9.492   5.895 -0.2091  1.7274  0.2050
23598SOL    HW282520   4.789   9.414   6.001  0.9825  1.0520 -1.1086
23599SOL     OW82521   3.369   8.611   0.765 -0.3662  0.1043  0.3091
23599SOL    HW182522   3.357   8.597   0.671 -0.7780 -0.4310  0.4363
23599SOL    HW282523   3.364   8.523   0.803  0.3806  0.2574  0.7683
23600SOL     OW82524  12.521  12.674   7.175  0.3298  0.0365  0.4760
23600SOL    HW182525  12.605  12.712   7.201 -0.1631  1.2616  0.3527
23600SOL    HW282526  12.463  12.750   7.164 -1.0989 -0.8273  1.6291
23601SOL     OW82527  13.040   5.119   6.652  0.1502  0.3487  0.4589
23601SOL    HW182528  13.063   5.040   6.605  0.8246  1.0011 -0.3381
23601SOL    HW282529  13.111   5.131   6.715  0.2400  0.5138  0.3271
23602SOL     OW82530  10.396   8.069  13.422 -0.8085 -0.5457  0.5853
23602SOL    HW182531  10.338   8.117  13.364  0.4571  1.8435  1.1558
23602SOL    HW282532  10.360   8.084  13.510  0.0605  0.1434  0.8460
23603SOL     OW82533  11.743   6.407   2.451 -0.5197 -0.2999  0.5506
23603SOL    HW182534  11.711   6.340   2.512  1.1159 -2.4187 -0.7642
23603SOL    HW282535  11.724   6.371   2.364  0.3114  0.9899 -0.1915
23604SOL     OW82536  11.714   1.306   2.213 -0.4017  0.9940 -1.2513
23604SOL    HW182537  11.724   1.360   2.291  1.3257  1.0060 -1.4310
23604SOL    HW282538  11.626   1.269   2.220  0.0152  0.2790  1.1801
23605SOL     OW82539   1.648   6.832  11.153 -0.5779 -0.2635  0.4012
23605SOL    HW182540   1.649   6.927  11.162 -1.1742 -0.0283 -1.5363
23605SOL    HW282541   1.624   6.800  11.240 -0.3822  1.3490  1.0855
23606SOL     OW82542   2.893   7.459   8.428 -0.0734 -0.5031 -0.1872
23606SOL    HW182543   2.831   7.411   8.373 -0.4924 -1.0528  0.7344
23606SOL    HW282544   2.971   7.404   8.430 -0.5935 -1.2279  0.9596
23607SOL     OW82545  10.898   0.133   2.967  0.0425 -0.7392  0.1145
23607SOL    HW182546  10.960   0.181   3.022 -0.6548  0.5987 -0.2271
23607SOL    HW282547  10.953   0.083   2.907  0.8028  0.4000 -0.1706
23608SOL     OW82548  12.267   0.021  10.518 -0.3467 -0.0037  0.1455
23608SOL    HW182549  12.341  -0.035  10.542  1.0306  1.1198 -1.2458
23608SOL    HW282550  12.200  -0.040  10.488  0.6647 -0.9910 -0.2053
23609SOL     OW82551   2.764   2.931   1.286  0.6010  0.1601 -0.2019
23609SOL    HW182552   2.712   2.901   1.211  1.2049 -0.7335 -0.2862
23609SOL    HW282553   2.752   3.026   1.287  0.7293  0.2155 -1.5558
23610SOL     OW82554  13.677   8.010   4.869  0.7392 -0.5659 -0.2637
23610SOL    HW182555  13.618   8.021   4.795 -1.0202 -1.5621  0.8937
23610SOL    HW282556  13.762   8.038   4.837 -0.5906  2.3222 -1.5954
23611SOL     OW82557  12.766   3.995   8.815  0.0889  0.0380  0.5042
23611SOL    HW182558  12.730   4.058   8.878  0.9773  1.9476 -0.7945
23611SOL    HW282559  12.774   3.914   8.864 -2.3644  0.5324  1.9092
23612SOL     OW82560  11.169   8.661   6.502  0.6224  0.7739  0.1863
23612SOL    HW182561  11.264   8.663   6.487  0.6115 -0.8418 -0.2582
23612SOL    HW282562  11.132   8.642   6.415 -0.0264  0.1346  0.5982
23613SOL     OW82563   3.521   9.014   4.137 -0.7619 -0.3684 -0.3715
23613SOL    HW182564   3.483   9.079   4.197  0.7707  1.3090 -1.0908
23613SOL    HW282565   3.516   8.931   4.185  0.0365  0.8217  1.9535
23614SOL     OW82566   8.241   4.976  11.765  0.2044 -0.3701 -0.4488
23614SOL    HW182567   8.276   4.926  11.839  0.8003 -0.2964 -0.6781
23614SOL    HW282568   8.149   4.993  11.789 -0.0735 -1.7499 -0.4677
23615SOL     OW82569   6.131   0.433   6.307 -0.0979 -0.3448  0.0700
23615SOL    HW182570   6.173   0.353   6.338 -0.0190 -0.9744 -1.5614
23615SOL    HW282571   6.041   0.406   6.288 -0.0165 -0.1119 -0.6790
23616SOL     OW82572  12.110   8.206   3.584 -0.0617  0.3407  0.1205
23616SOL    HW182573  12.111   8.257   3.503 -0.3453  0.3188  0.1033
23616SOL    HW282574  12.181   8.244   3.636  0.3199  0.1504 -0.2594
23617SOL     OW82575   1.530  11.378   1.996  0.1651  0.2757  0.1910
23617SOL    HW182576   1.575  11.377   2.081  0.9324  0.0275 -0.2146
23617SOL    HW282577   1.448  11.425   2.014  0.0263 -0.3269  1.2085
23618SOL     OW82578   7.296   4.269   8.039 -0.6382 -0.5076  0.0480
23618SOL    HW182579   7.375   4.221   8.015  1.2933  1.9771  1.0485
23618SOL    HW282580   7.327   4.344   8.089 -3.8202 -0.7970  2.8530
23619SOL     OW82581  11.672  12.071   2.871 -0.1053 -0.5647 -0.1860
23619SOL    HW182582  11.695  11.999   2.931 -0.8782 -0.9557 -0.3450
23619SOL    HW282583  11.751  12.125   2.868  0.1506 -0.8629  0.7192
23620SOL     OW82584   1.301   8.535   7.215  0.0954  0.4019  0.1667
23620SOL    HW182585   1.331   8.601   7.152 -0.3851  0.0948 -0.3813
23620SOL    HW282586   1.382   8.505   7.257  0.4615  0.3227 -0.5758
23621SOL     OW82587   0.992   0.127   4.204 -0.2931 -0.3302  0.2477
23621SOL    HW182588   0.988   0.057   4.270  3.5349 -1.0626 -0.0703
23621SOL    HW282589   1.033   0.200   4.249 -0.5958  0.3049 -0.4907
23622SOL     OW82590  12.734   5.648  12.687  0.6814  0.3205 -0.3437
23622SOL    HW182591  12.823   5.614  12.689  0.4628 -0.2749 -0.6789
23622SOL    HW282592  12.730   5.709  12.761  1.0224 -0.5023  0.3659
23623SOL     OW82593   9.809   1.751  10.645  0.4434  0.3582 -0.0404
23623SOL    HW182594   9.798   1.729  10.737  0.9683  2.6602  0.6391
23623SOL    HW282595   9.903   1.764  10.634  0.3372  0.5635 -0.7703
23624SOL     OW82596  11.122   1.640   7.235 -0.0188 -0.2982 -0.1817
23624SOL    HW182597  11.134   1.731   7.262  0.8207 -1.4544  4.1315
23624SOL    HW282598  11.210   1.604   7.232 -0.2739 -0.8908 -2.6469
23625SOL     OW82599  12.173   2.935   5.420  0.0533 -0.0179 -0.5725
23625SOL    HW182600  12.098   2.877   5.432  0.5516 -0.6365 -0.4327
23625SOL    HW282601  12.188   2.936   5.325 -0.0767  0.0324 -0.5920
23626SOL     OW82602   5.462  13.469  11.299 -0.2924 -0.1317 -0.5372
23626SOL    HW182603   5.374  13.497  11.272 -0.1491  0.7176 -0.1491
23626SOL    HW282604   5.474  13.508  11.385 -0.2403 -1.7578  0.2279
23627SOL     OW82605   1.072   7.369   0.443  0.1324 -0.4629 -0.3296
23627SOL    HW182606   1.070   7.274   0.460 -0.7013 -0.6535 -1.4004
23627SOL    HW282607   1.078   7.408   0.530 -0.6061 -1.4759  0.2028
23628SOL     OW82608   2.557   9.314   7.369  0.7980 -0.1538  0.4740
23628SOL    HW182609   2.589   9.364   7.294  0.6984 -0.9161 -0.0907
23628SOL    HW282610   2.627   9.321   7.434  0.8882  0.5085  0.3082
23629SOL     OW82611  11.688   2.672  12.032  0.0079  0.2622  0.1501
23629SOL    HW182612  11.779   2.701  12.029  0.2992 -0.6912 -0.5697
23629SOL    HW282613  11.671   2.637  11.945 -1.2226  0.9229  0.1031
23630SOL     OW82614   0.133   8.710   9.031 -0.2967 -0.3068 -0.3100
23630SOL    HW182615   0.114   8.617   9.022 -0.0387 -0.2594 -1.5606
23630SOL    HW282616   0.071   8.741   9.097  0.7341 -1.6766  1.4126
23631SOL     OW82617   1.875   5.730  11.556  0.2413  0.3423 -0.2935
23631SOL    HW182618   1.921   5.802  11.598 -0.1030  0.0998  0.5211
23631SOL    HW282619   1.932   5.654  11.570  0.8869  0.5553 -1.6629
23632SOL     OW82620  12.711  12.037   1.080 -0.1635 -0.1890 -0.4612
23632SOL    HW182621  12.719  11.948   1.047 -3.4754 -0.4444 -0.8947
23632SOL    HW282622  12.689  12.089   1.003 -0.3253  0.6390  0.1318
23633SOL     OW82623   8.075  10.311   0.327 -0.0863 -0.1599  0.3410
23633SOL    HW182624   8.028  10.329   0.408 -0.5827 -1.0694  0.2676
23633SOL    HW282625   8.012  10.329   0.258 -0.3218 -1.2671  0.2380
23634SOL     OW82626  11.082   9.836  11.529  0.0611 -0.2837 -0.0300
23634SOL    HW182627  11.120   9.904  11.584  0.1840  0.0719 -0.5497
23634SOL    HW282628  11.154   9.776  11.511  0.2192  0.0355 -0.4703
23635SOL     OW82629  11.285  11.636   2.036 -0.0093 -0.5383  0.0989
23635SOL    HW182630  11.200  11.671   2.061  0.0803 -0.0684 -0.2433
23635SOL    HW282631  11.324  11.608   2.118  0.4319  1.3267  0.5755
23636SOL     OW82632  11.842   9.231   9.938 -0.3719  0.1318  0.5748
23636SOL    HW182633  11.866   9.161   9.877  1.7883  0.9662  0.3811
23636SOL    HW282634  11.904   9.301   9.919  0.5425  0.3752  3.8627
23637SOL     OW82635   8.369  11.993   0.111  0.0109  0.0962 -0.5075
23637SOL    HW182636   8.406  12.007   0.198  1.4129 -1.2177 -0.8301
23637SOL    HW282637   8.280  11.961   0.127 -0.4948  1.8499  0.3528
23638SOL     OW82638   9.613   9.610   1.607  0.3124 -0.1430  0.1274
23638SOL    HW182639   9.707   9.599   1.592 -0.0348 -0.3592 -2.1649
23638SOL    HW282640   9.594   9.699   1.579 -0.0735  0.1369  1.2286
23639SOL     OW82641   2.085   6.484  11.889  0.1431 -0.3602 -0.4839
23639SOL    HW182642   2.083   6.560  11.831 -0.5026  1.5240  1.8649
23639SOL    HW282643   1.997   6.446  11.882 -1.1211  1.8920  1.6516
23640SOL     OW82644   8.521   4.253   9.373 -0.1377  0.0829  0.0872
23640SOL    HW182645   8.555   4.320   9.313 -0.2071 -1.3873 -1.6637
23640SOL    HW282646   8.437   4.289   9.403  0.4539  1.3748  0.2713
23641SOL     OW82647   2.086   4.029   8.081 -0.1789 -0.3152  0.2452
23641SOL    HW182648   2.113   4.119   8.062 -2.3426  0.2983 -0.2276
23641SOL    HW282649   2.159   3.991   8.130  1.4630  1.1666 -0.9596
23642SOL     OW82650   2.548   0.126   1.015  0.1987  0.4111 -0.2637
23642SOL    HW182651   2.453   0.128   1.002  0.1847  0.9148 -0.0991
23642SOL    HW282652   2.584   0.144   0.928  0.1603 -0.5773 -0.4984
23643SOL     OW82653  11.723   3.616  13.477 -0.1041  0.5461 -0.3158
23643SOL    HW182654  11.652   3.665  13.519  0.9541 -0.1770  2.5320
23643SOL    HW282655  11.762   3.565  13.547  3.2668  0.8708 -1.7467
23644SOL     OW82656   8.818  10.164   4.716  0.5426  0.0098 -0.1902
23644SOL    HW182657   8.837  10.235   4.777  1.1479  0.4656 -0.8811
23644SOL    HW282658   8.749  10.198   4.660 -0.5139 -0.6705  0.6670
23645SOL     OW82659   2.453   6.769   0.320 -0.2733 -0.1113 -0.0312
23645SOL    HW182660   2.493   6.835   0.378 -1.4453  1.2115 -0.6775
23645SOL    HW282661   2.436   6.695   0.378 -0.0204  0.6043  0.9990
23646SOL     OW82662   6.805   8.442   1.505  0.2790 -0.2857 -0.3547
23646SOL    HW182663   6.841   8.530   1.499 -3.4419  1.3304 -2.7688
23646SOL    HW282664   6.855   8.391   1.441  1.6496  0.3518  0.1745
23647SOL     OW82665   2.206  13.468  11.942  0.2553 -0.1608 -0.2042
23647SOL    HW182666   2.239  13.546  11.897  1.3042  0.0499  0.8969
23647SOL    HW282667   2.271  13.450  12.010 -0.5611 -1.3253  0.2938
23648SOL     OW82668   8.451   9.970   8.435  0.8963  0.3144 -0.1915
23648SOL    HW182669   8.541   9.980   8.466  0.2257  0.4491  1.9074
23648SOL    HW282670   8.402  10.037   8.483 -0.4172 -0.1515 -0.8419
23649SOL     OW82671  12.355  11.331   6.613  0.1553  0.4541 -0.0592
23649SOL    HW182672  12.313  11.374   6.688 -3.2663  1.4978 -2.3303
23649SOL    HW282673  12.364  11.400   6.548  0.6446 -0.9295 -1.5201
23650SOL     OW82674   1.872  10.546   0.150  0.1504 -0.6434 -0.1082
23650SOL    HW182675   1.862  10.460   0.110 -1.6579 -0.8319  0.6572
23650SOL    HW282676   1.862  10.531   0.244 -1.1857  0.5074 -0.0258
23651SOL     OW82677  12.335  12.887   4.858 -0.2529  0.1350 -0.7370
23651SOL    HW182678  12.424  12.903   4.825 -0.4483 -0.4879 -1.6121
23651SOL    HW282679  12.291  12.843   4.785 -1.0527 -0.2461 -0.0294
23652SOL     OW82680   6.817   8.085   8.026 -0.6866 -0.1854 -0.2387
23652SOL    HW182681   6.722   8.079   8.014 -1.1533  2.9474  0.9356
23652SOL    HW282682   6.852   8.091   7.938 -1.5865 -1.1340 -0.6847
23653SOL     OW82683  12.785   5.064   3.936  0.0350  0.1315  0.0492
23653SOL    HW182684  12.754   5.024   3.854 -0.5859 -0.9905  0.8090
23653SOL    HW282685  12.707   5.104   3.974  0.6504  2.2135 -0.7263
23654SOL     OW82686   3.369   8.216  10.755  0.2815 -0.2413  0.2916
23654SOL    HW182687   3.425   8.167  10.694 -0.8333 -1.9089  0.5414
23654SOL    HW282688   3.430   8.249  10.821  1.2158 -0.3796 -0.4757
23655SOL     OW82689   8.614   4.950   2.326  0.4239 -0.0152  0.5020
23655SOL    HW182690   8.606   4.936   2.420  2.0164  0.2348  0.7075
23655SOL    HW282691   8.663   4.873   2.294 -1.5610 -0.9730 -0.4431
23656SOL     OW82692   8.090  11.522   7.702  0.5627 -0.4541  0.4443
23656SOL    HW182693   8.076  11.617   7.705  2.8296 -0.0414 -0.0649
23656SOL    HW282694   8.005  11.485   7.723 -0.4438  1.6884  0.4553
23657SOL     OW82695   0.473   7.085   9.821  0.2476 -0.2474  0.4840
23657SOL    HW182696   0.396   7.039   9.854 -0.6357  0.8279  0.0007
23657SOL    HW282697   0.535   7.085   9.894 -0.4523 -0.5776  1.0902
23658SOL     OW82698   0.059   8.181   9.218 -0.2344  0.4021 -0.8924
23658SOL    HW182699   0.050   8.256   9.160 -0.8116  1.0286 -0.0246
23658SOL    HW282700  -0.024   8.178   9.266  0.7109  0.7551  0.8612
23659SOL     OW82701  12.450  13.138   6.907 -0.0873  0.0353  0.0153
23659SOL    HW182702  12.541  13.141   6.878 -0.1011 -1.6675 -0.3345
23659SOL    HW282703  12.407  13.208   6.859  1.0274  0.8506  0.1754
23660SOL     OW82704  11.680  11.554  12.235 -0.5914 -0.2353  0.3112
23660SOL    HW182705  11.686  11.500  12.314 -0.9192 -1.6250 -0.5805
23660SOL    HW282706  11.769  11.556  12.200 -0.3396  0.8245  0.9835
23661SOL     OW82707   7.904   4.820   7.668  0.5244  0.2331 -0.2301
23661SOL    HW182708   7.912   4.911   7.642 -1.6845  0.1484 -1.4518
23661SOL    HW282709   7.910   4.771   7.585  1.3708 -0.7154  0.3705
23662SOL     OW82710   4.894   1.265   1.628 -0.3855 -0.2251 -0.0154
23662SOL    HW182711   4.829   1.225   1.687 -0.1314 -0.9422 -0.2092
23662SOL    HW282712   4.957   1.307   1.687 -1.0740  0.5601  0.1703
23663SOL     OW82713   5.755   7.047  11.057  0.9868 -0.2452  0.0358
23663SOL    HW182714   5.750   6.969  11.112  1.1448  0.6174  1.3288
23663SOL    HW282715   5.682   7.039  10.996 -0.6050 -0.1524  1.8687
23664SOL     OW82716  12.533   8.953   1.781  0.2563 -0.7407  0.2354
23664SOL    HW182717  12.611   9.008   1.779  2.0603 -3.1350 -0.0466
23664SOL    HW282718  12.463   9.010   1.750  1.4188  2.1086  2.3843
23665SOL     OW82719   8.833   2.741   9.639 -0.5337 -0.3022 -0.1497
23665SOL    HW182720   8.914   2.705   9.603  0.4672 -1.6724  3.0765
23665SOL    HW282721   8.764   2.705   9.583  0.9326 -0.4804 -1.9572
23666SOL     OW82722  10.513   8.327   5.316 -0.0890 -0.3786 -0.3988
23666SOL    HW182723  10.430   8.354   5.355  0.3309  1.1655 -0.5055
23666SOL    HW282724  10.493   8.312   5.224 -0.3604 -0.5910 -0.3071
23667SOL     OW82725  11.396   7.905   3.371  0.2378  0.2766 -0.0193
23667SOL    HW182726  11.441   7.967   3.429  0.4848  0.5752 -0.5220
23667SOL    HW282727  11.467   7.857   3.328  0.0443 -0.4942  0.5085
23668SOL     OW82728   2.744  11.808   1.867 -0.0263 -0.4518  0.5781
23668SOL    HW182729   2.708  11.796   1.779  0.6316 -0.7948  0.3513
23668SOL    HW282730   2.734  11.902   1.883  0.2163 -0.3125 -0.0310
23669SOL     OW82731   7.752   1.632   0.850 -0.4933  0.0373 -0.3408
23669SOL    HW182732   7.787   1.566   0.911  0.4804  0.5355 -0.3502
23669SOL    HW282733   7.692   1.582   0.794  1.2334 -1.1524 -1.2272
23670SOL     OW82734   6.518  11.697  10.494 -0.3208  0.2119  0.4803
23670SOL    HW182735   6.456  11.714  10.565 -1.8441 -0.9137 -0.4940
23670SOL    HW282736   6.491  11.755  10.423 -1.1463 -1.1646 -0.3990
23671SOL     OW82737   6.325   4.260   7.169 -0.4969  0.2957 -0.2535
23671SOL    HW182738   6.393   4.288   7.107 -1.6945 -1.2206 -2.4131
23671SOL    HW282739   6.279   4.340   7.194  1.3112  1.1965  0.3418
23672SOL     OW82740   5.642   3.048  12.752 -0.3892 -0.1566  0.0592
23672SOL    HW182741   5.583   3.122  12.770 -0.1706 -0.5840  3.0533
23672SOL    HW282742   5.723   3.088  12.720 -1.1726  0.6505 -1.0017
23673SOL     OW82743   2.786   1.964   5.337 -0.7718  0.0068  0.2266
23673SOL    HW182744   2.826   2.045   5.307  1.4078 -0.2317  2.1488
23673SOL    HW282745   2.748   1.925   5.259  0.6962  1.4623 -1.2981
23674SOL     OW82746   9.466   9.899   4.415 -0.6365  0.2870 -0.2953
23674SOL    HW182747   9.431   9.838   4.480 -0.2746 -3.9594 -3.6636
23674SOL    HW282748   9.392   9.954   4.392 -1.4980  0.0341  1.6774
23675SOL     OW82749   0.763   0.969  10.211 -0.0477 -0.5462  0.0456
23675SOL    HW182750   0.736   1.007  10.128  0.3556  0.9342  0.5632
23675SOL    HW282751   0.733   0.878  10.207 -0.4592 -0.3676 -1.5039
23676SOL     OW82752  12.358   9.319   0.369 -0.0418  0.3199 -0.7360
23676SOL    HW182753  12.405   9.402   0.375  2.7746 -1.2416  0.8577
23676SOL    HW282754  12.385   9.283   0.284 -0.2388  0.4649 -0.8602
23677SOL     OW82755   9.712   9.697   1.029  0.0117  0.1458  0.1331
23677SOL    HW182756   9.659   9.774   1.048 -1.4417 -0.8972  0.4117
23677SOL    HW282757   9.669   9.655   0.955  1.6782  0.3987 -1.0514
23678SOL     OW82758   0.975  13.205   0.765 -0.0651  0.0162 -0.7690
23678SOL    HW182759   1.036  13.147   0.718  0.1345  0.4955 -1.1044
23678SOL    HW282760   1.001  13.293   0.739 -0.4860  0.2511 -0.3956
23679SOL     OW82761   9.007   6.608   3.914  0.2259 -0.3866  0.2268
23679SOL    HW182762   9.089   6.632   3.958  0.5657  0.8519 -1.0254
23679SOL    HW282763   8.954   6.688   3.917 -0.3920 -0.7699 -0.1820
23680SOL     OW82764   9.776   1.388   4.567 -0.3403 -0.0947 -0.4922
23680SOL    HW182765   9.816   1.429   4.491  1.7922 -0.4735  0.3540
23680SOL    HW282766   9.742   1.461   4.619  1.2505  0.4565 -0.1727
23681SOL     OW82767   3.345   1.037   7.371 -0.0125 -0.1222  0.4445
23681SOL    HW182768   3.336   1.128   7.401  0.5588  0.0842  0.0098
23681SOL    HW282769   3.258   1.015   7.337  0.0224  0.5054 -0.0880
23682SOL     OW82770  13.499  13.396  10.780 -0.0295  0.3124 -0.4137
23682SOL    HW182771  13.469  13.391  10.870 -0.1298  0.6552 -0.4286
23682SOL    HW282772  13.467  13.480  10.748  1.9983  1.2863 -0.0338
23683SOL     OW82773   9.951   7.432   5.517  0.4001  0.0797  0.5622
23683SOL    HW182774   9.868   7.461   5.556  1.2437  2.2891  0.8331
23683SOL    HW282775  10.018   7.465   5.576  1.5278 -2.3275  0.7602
23684SOL     OW82776   1.553   8.611   3.356 -0.2470  0.7788 -0.3909
23684SOL    HW182777   1.470   8.639   3.395 -0.5003  0.2308 -0.5330
23684SOL    HW282778   1.588   8.547   3.418  0.3812  1.4749 -0.0149
23685SOL     OW82779   0.858   3.207   6.848 -0.2332 -0.6912 -0.3252
23685SOL    HW182780   0.942   3.171   6.818 -0.4778 -2.1749  0.6325
23685SOL    HW282781   0.875   3.237   6.937 -1.1594 -2.9648  0.6904
23686SOL     OW82782   9.878   4.733  10.654 -0.3747 -0.5884  0.1526
23686SOL    HW182783   9.914   4.660  10.603 -2.7154 -0.5131 -1.7588
23686SOL    HW282784   9.886   4.809  10.596 -0.2221  0.1871  1.1636
23687SOL     OW82785   7.660  10.406   6.910 -0.1399 -0.2282  0.2335
23687SOL    HW182786   7.656  10.312   6.893  0.7511 -0.2541  0.0957
23687SOL    HW282787   7.710  10.442   6.836 -0.5676  0.3710  0.2253
23688SOL     OW82788  12.495   8.835   0.678  0.6051 -0.4666 -0.9126
23688SOL    HW182789  12.552   8.865   0.608 -0.1890  1.8583 -0.6543
23688SOL    HW282790  12.407   8.856   0.648  0.2611  0.7878  0.8257
23689SOL     OW82791  11.267   6.051   2.081  0.2249 -0.0767 -0.2744
23689SOL    HW182792  11.320   5.973   2.065 -1.7581 -1.0615 -2.8178
23689SOL    HW282793  11.266   6.061   2.176  0.3010 -3.3562  0.1859
23690SOL     OW82794  11.420   4.324   9.758  0.4028  0.2454 -0.2323
23690SOL    HW182795  11.446   4.308   9.849 -1.5245 -1.6155  0.0540
23690SOL    HW282796  11.457   4.411   9.738  1.0170  0.6409  2.2411
23691SOL     OW82797   9.302   4.910  13.178  0.4546 -0.5528 -0.0801
23691SOL    HW182798   9.253   4.965  13.117 -1.6616 -1.7900  0.4146
23691SOL    HW282799   9.317   4.828  13.131  0.1244 -0.9734  0.5397
23692SOL     OW82800   4.495  12.602  10.988 -0.2281  0.1880 -0.3630
23692SOL    HW182801   4.539  12.640  10.912  2.4059  1.6074  1.6958
23692SOL    HW282802   4.491  12.674  11.052 -1.2455 -1.2461  1.2886
23693SOL     OW82803   1.003  10.662  11.325  0.7050 -0.1779  0.4344
23693SOL    HW182804   1.053  10.743  11.334  1.0768 -0.4247  0.6240
23693SOL    HW282805   1.005  10.643  11.231  1.9318 -0.7804  0.5673
23694SOL     OW82806   6.877   4.245   0.039 -0.6140 -0.2674 -0.3795
23694SOL    HW182807   6.862   4.311   0.107  2.8689  1.0908 -0.7593
23694SOL    HW282808   6.876   4.162   0.086 -3.5130  0.0705  0.3643
23695SOL     OW82809   7.506   0.068   9.625 -0.4223  0.7526 -0.2047
23695SOL    HW182810   7.485   0.158   9.601  0.7106  1.2276  0.4779
23695SOL    HW282811   7.538   0.028   9.544 -0.1354  1.2210 -0.3277
23696SOL     OW82812  13.321   9.722  10.774  0.1932  0.2746  0.6673
23696SOL    HW182813  13.335   9.711  10.680  1.1862  1.3561  0.6594
23696SOL    HW282814  13.330   9.816  10.789  2.6470 -0.0985  2.1925
23697SOL     OW82815   3.266   5.339  13.522  0.0050 -0.2520 -0.1155
23697SOL    HW182816   3.359   5.360  13.512 -0.0963  1.4256  1.8108
23697SOL    HW282817   3.225   5.424  13.540 -1.5831 -1.2200  1.0349
23698SOL     OW82818   6.028   0.827   9.491  0.0544 -0.2355 -0.1479
23698SOL    HW182819   6.120   0.815   9.467  0.7135 -0.6723  2.3655
23698SOL    HW282820   5.988   0.741   9.480 -0.4229  0.2130 -2.4242
23699SOL     OW82821   7.355   3.031  10.639  0.2688 -0.0523  0.3671
23699SOL    HW182822   7.435   2.982  10.619 -1.0651 -1.6505 -1.4658
23699SOL    HW282823   7.331   3.003  10.727  0.6622 -1.1621  0.1442
23700SOL     OW82824   8.833   8.527   0.640  0.2550 -0.2633 -0.2061
23700SOL    HW182825   8.915   8.492   0.675  1.0981  1.7731  0.0237
23700SOL    HW282826   8.860   8.581   0.566 -0.7415  1.1799  0.4363
23701SOL     OW82827  12.283   3.196   8.051 -0.2884  0.2535  0.1503
23701SOL    HW182828  12.378   3.200   8.038 -0.2973 -0.2864 -0.1365
23701SOL    HW282829  12.272   3.151   8.135 -0.3068 -1.9205 -0.9537
23702SOL     OW82830   6.865   0.202   2.033 -0.0634  0.1762 -0.0366
23702SOL    HW182831   6.961   0.200   2.033 -0.0678 -1.0798 -0.7098
23702SOL    HW282832   6.841   0.189   1.941 -0.8852  2.5550 -0.2262
23703SOL     OW82833   5.763   4.307   6.820  0.0521 -0.2677 -0.4403
23703SOL    HW182834   5.728   4.372   6.759  1.2995 -0.5144 -1.4688
23703SOL    HW282835   5.734   4.223   6.785 -0.2157 -0.3518 -0.0213
23704SOL     OW82836   5.447   7.981   1.856  0.2657  0.1500 -0.3014
23704SOL    HW182837   5.466   8.042   1.784 -0.4064 -1.8528 -2.3160
23704SOL    HW282838   5.454   7.895   1.815  1.4402 -1.1787  2.4872
23705SOL     OW82839  13.348   2.503   8.758 -0.3266  0.1351  0.5145
23705SOL    HW182840  13.411   2.563   8.719 -0.8634  0.9710  0.8964
23705SOL    HW282841  13.263   2.544   8.742 -0.6706 -0.3255  1.1246
23706SOL     OW82842   5.708   9.693  11.831  0.3816 -0.0041  0.6864
23706SOL    HW182843   5.756   9.769  11.864 -0.8430  1.8297 -1.4812
23706SOL    HW282844   5.766   9.618  11.849  2.4618  1.6536  1.2351
23707SOL     OW82845   8.939   0.682   8.341  0.5035  0.2703 -0.4281
23707SOL    HW182846   8.965   0.598   8.302 -1.2712 -0.6609  0.2732
23707SOL    HW282847   8.970   0.748   8.279 -1.3327 -1.0943 -2.9790
23708SOL     OW82848   1.026   2.282   6.571 -0.8905  0.5946  0.4780
23708SOL    HW182849   1.036   2.203   6.517  2.0365  0.9122  0.3661
23708SOL    HW282850   0.994   2.349   6.511 -1.3333  0.0077  0.0533
23709SOL     OW82851  11.191   5.442  11.924  0.2792 -0.0287 -0.2949
23709SOL    HW182852  11.142   5.509  11.875  0.6055  0.4454  0.0232
23709SOL    HW282853  11.123   5.391  11.969  0.0074 -0.1474 -0.8280
23710SOL     OW82854   2.752  11.870   8.397 -0.0985  0.4054 -0.2651
23710SOL    HW182855   2.808  11.937   8.358  0.7418  0.4711  1.0120
23710SOL    HW282856   2.805  11.832   8.466 -1.1118 -0.5599  0.0043
23711SOL     OW82857  12.903   0.161   2.554 -0.3989 -0.0145  0.2580
23711SOL    HW182858  12.860   0.090   2.603 -0.2578 -0.2245  0.0800
23711SOL    HW282859  12.831   0.216   2.523 -0.4990  0.0148  0.5458
23712SOL     OW82860   7.378   9.109  10.843 -1.0218 -0.5067 -0.5536
23712SOL    HW182861   7.304   9.151  10.886 -1.7665 -0.3043 -1.9797
23712SOL    HW282862   7.435   9.081  10.915 -1.2822  1.4855  0.4988
23713SOL     OW82863   5.265   9.730   5.011  0.0977  0.2865  0.0657
23713SOL    HW182864   5.248   9.648   5.058  0.1226  0.2089 -0.0604
23713SOL    HW282865   5.193   9.788   5.037 -0.7677 -0.2673 -1.0035
23714SOL     OW82866  13.045   7.219   7.636 -0.8652  0.1431  0.5155
23714SOL    HW182867  12.973   7.282   7.628 -1.2878 -0.5134 -1.2435
23714SOL    HW282868  13.034   7.160   7.561  1.6189  0.1045  0.1026
23715SOL     OW82869   3.728   2.922   5.719 -0.5423 -0.5545 -0.4699
23715SOL    HW182870   3.713   3.014   5.696  0.0933  0.0044  1.1578
23715SOL    HW282871   3.640   2.885   5.726 -0.8695  0.2634  0.0078
23716SOL     OW82872   8.516   4.477  13.263  0.3032 -0.7827 -0.5879
23716SOL    HW182873   8.482   4.387  13.264  0.9091 -1.0356  1.5359
23716SOL    HW282874   8.517   4.503  13.355  1.4132  0.9127 -1.0439
23717SOL     OW82875   6.809   2.887   7.640 -0.3961 -0.3980  0.1596
23717SOL    HW182876   6.772   2.967   7.602  0.4306 -0.0464  0.0846
23717SOL    HW282877   6.903   2.892   7.622 -0.1999 -0.9412  0.9594
23718SOL     OW82878  12.469   5.369   2.067  0.0610 -0.2902  0.0387
23718SOL    HW182879  12.549   5.368   2.015  0.2656 -2.3232  0.3045
23718SOL    HW282880  12.428   5.285   2.049 -1.5687  0.3462  0.6031
23719SOL     OW82881   3.863   2.266  10.057  0.0787  0.7075  0.0242
23719SOL    HW182882   3.939   2.217  10.024  1.2608  0.8939  2.2740
23719SOL    HW282883   3.874   2.354  10.022  0.4309  0.5076 -0.3726
23720SOL     OW82884  11.823  12.765  10.214 -0.0261 -0.4250 -0.2128
23720SOL    HW182885  11.791  12.704  10.281  0.1989 -0.2891  0.0243
23720SOL    HW282886  11.899  12.720  10.176  1.3864  0.5041  1.3306
23721SOL     OW82887   8.818   2.093   3.916 -0.2805  0.1887  0.1347
23721SOL    HW182888   8.805   2.161   3.982  1.6532  1.2818 -0.5308
23721SOL    HW282889   8.783   2.130   3.835  1.0289  0.5520 -0.2894
23722SOL     OW82890   1.024   2.782   7.359 -0.1788  0.2049 -0.2136
23722SOL    HW182891   1.092   2.798   7.294 -0.2590  1.4515 -0.0094
23722SOL    HW282892   1.054   2.704   7.407  2.7670  2.4632  1.9681
23723SOL     OW82893   2.284   3.677  12.257 -0.2455  0.4845  0.3077
23723SOL    HW182894   2.233   3.729  12.195  0.5731  0.4986 -0.3725
23723SOL    HW282895   2.250   3.703  12.343 -2.7765 -0.9615 -0.1471
23724SOL     OW82896   0.624   1.569  12.255  0.7930  0.0707 -0.6000
23724SOL    HW182897   0.643   1.646  12.202  2.3022  0.1684  0.0345
23724SOL    HW282898   0.530   1.573  12.270  0.8128  1.6978 -0.7274
23725SOL     OW82899   0.445  11.828   6.140  0.3030  0.3835 -0.4844
23725SOL    HW182900   0.420  11.914   6.174 -0.1688  0.3782 -0.7998
23725SOL    HW282901   0.380  11.768   6.177  0.5601  0.1805 -0.3602
23726SOL     OW82902   9.927  13.007  12.279 -0.4037 -0.4587 -0.0355
23726SOL    HW182903   9.832  13.013  12.269 -0.4859 -0.3427  0.7697
23726SOL    HW282904   9.939  12.962  12.363  0.2517 -1.5451 -0.6851
23727SOL     OW82905   0.787   5.382   8.909 -0.1192 -0.7645  0.2774
23727SOL    HW182906   0.800   5.323   8.834 -0.5833 -0.8650  0.2757
23727SOL    HW282907   0.873   5.386   8.951  0.4179  0.1142 -0.8578
23728SOL     OW82908   9.753   4.538   3.459 -0.4772 -0.2379  0.4079
23728SOL    HW182909   9.771   4.500   3.544  2.4555  0.2890  0.1017
23728SOL    HW282910   9.767   4.632   3.471  1.3308 -0.2955 -0.9221
23729SOL     OW82911   7.418  13.213  13.703 -0.7616 -0.5005 -0.0958
23729SOL    HW182912   7.331  13.212  13.742 -1.6700  0.0487 -1.9823
23729SOL    HW282913   7.408  13.265  13.623  1.5506  0.4927  0.1681
23730SOL     OW82914  11.932  13.719   0.744  0.7296  0.2905  0.0266
23730SOL    HW182915  11.979  13.637   0.726  0.1714 -0.1985  0.7522
23730SOL    HW282916  11.996  13.774   0.789  0.9217  0.0294  0.0697
23731SOL     OW82917   6.261  11.165   5.959  0.2579 -0.4925 -0.8267
23731SOL    HW182918   6.279  11.072   5.947 -0.6123 -0.7664 -0.0626
23731SOL    HW282919   6.196  11.168   6.029  1.4977  0.7697  0.3311
23732SOL     OW82920   0.050  12.573   9.475 -0.5562 -0.0639  0.3242
23732SOL    HW182921   0.064  12.668   9.484  1.4382 -0.3530  0.6145
23732SOL    HW282922   0.030  12.543   9.564  4.2789 -0.6445  1.5000
23733SOL     OW82923   9.560   1.420   3.743 -0.0410 -0.1438 -0.6671
23733SOL    HW182924   9.621   1.443   3.813 -0.3183  0.1637 -0.5212
23733SOL    HW282925   9.615   1.392   3.671  0.3129  0.9927 -0.8480
23734SOL     OW82926   7.849   0.627   7.920 -0.1598  0.2067  0.3801
23734SOL    HW182927   7.814   0.560   7.978  0.8128  1.8754  3.0711
23734SOL    HW282928   7.824   0.598   7.832 -0.7109 -3.0471  1.4772
23735SOL     OW82929   7.046   2.298   0.048  0.1742 -0.5765  0.2217
23735SOL    HW182930   7.016   2.300  -0.043  1.2371  0.6097 -0.1339
23735SOL    HW282931   7.010   2.217   0.084 -0.4390 -0.9534 -1.1898
23736SOL     OW82932   9.085   4.968  11.114  0.2183  0.0826 -0.4791
23736SOL    HW182933   9.173   4.938  11.141 -0.0975 -0.3617  0.0972
23736SOL    HW282934   9.086   5.062  11.129 -0.1594 -0.2188  1.8346
23737SOL     OW82935   8.754   5.404   5.650 -0.5244  0.4499 -0.6522
23737SOL    HW182936   8.849   5.416   5.654 -0.4886  0.2643 -0.8871
23737SOL    HW282937   8.741   5.337   5.583 -0.6064 -2.1749  1.8022
23738SOL     OW82938   2.527   1.259   9.601 -0.6285  0.3680 -0.4761
23738SOL    HW182939   2.585   1.228   9.532 -0.1560 -0.3339  0.2154
23738SOL    HW282940   2.463   1.313   9.556 -1.3794 -1.4625 -1.7372
23739SOL     OW82941   6.140  12.371  10.186  0.1422 -0.4259 -0.4761
23739SOL    HW182942   6.128  12.429  10.261  0.0145 -1.5046  0.3530
23739SOL    HW282943   6.106  12.287  10.214  1.5179 -1.2635 -1.1782
23740SOL     OW82944   5.807   1.967   6.919  0.2229  0.3285 -0.2815
23740SOL    HW182945   5.902   1.955   6.926  0.1328  0.6662  2.8996
23740SOL    HW282946   5.796   2.060   6.900  0.5374  0.4378  0.0619
23741SOL     OW82947   9.967   9.973   6.780  0.2347 -0.1229 -0.4885
23741SOL    HW182948   9.973   9.982   6.684  0.5339  1.0238 -0.3720
23741SOL    HW282949   9.926  10.054   6.809 -1.4679 -1.1940  0.2190
23742SOL     OW82950   1.755  12.062   6.945 -0.0862  0.1192 -0.3655
23742SOL    HW182951   1.707  12.087   6.866 -0.3300  1.7616  0.2614
23742SOL    HW282952   1.694  12.007   6.994  0.0967 -0.9777 -1.3280
23743SOL     OW82953   9.803   0.450  13.507  0.2936  0.4060 -0.7401
23743SOL    HW182954   9.894   0.464  13.536 -0.0662  0.2639  0.5340
23743SOL    HW282955   9.752   0.515  13.556 -0.3189  0.3643 -1.3083
23744SOL     OW82956   8.085   3.286   8.440 -0.0737 -0.0117 -0.5386
23744SOL    HW182957   8.079   3.314   8.531 -0.4934  3.8246 -1.5625
23744SOL    HW282958   8.039   3.203   8.437  1.8689 -1.4316  3.0773
23745SOL     OW82959  12.687   0.887   6.231  0.3086 -0.7560 -0.2371
23745SOL    HW182960  12.596   0.903   6.204  0.4636  0.9570  0.1314
23745SOL    HW282961  12.693   0.929   6.317  1.1188 -1.9925  0.3436
23746SOL     OW82962  11.758   6.179   2.964  0.0718  0.0190 -0.0113
23746SOL    HW182963  11.807   6.107   3.004  0.3341 -0.2108 -0.7340
23746SOL    HW282964  11.684   6.137   2.921 -1.6842  0.4871  2.3375
23747SOL     OW82965   7.382   6.474   8.576  0.2002 -0.3770  0.3769
23747SOL    HW182966   7.367   6.568   8.582  2.1469 -0.0551  0.8877
23747SOL    HW282967   7.474   6.462   8.600  0.3153 -2.2920 -0.7324
23748SOL     OW82968   5.388   4.814   6.236 -0.2105  0.2250 -0.9333
23748SOL    HW182969   5.434   4.730   6.239 -0.4545  0.0983 -0.6029
23748SOL    HW282970   5.416   4.859   6.316 -1.8311 -0.4876  0.0835
23749SOL     OW82971   0.563   7.876   3.072 -0.2590  0.3381  0.1285
23749SOL    HW182972   0.499   7.940   3.102 -0.3506 -0.3392  1.4284
23749SOL    HW282973   0.512   7.798   3.050 -0.1057  0.5525 -1.0664
23750SOL     OW82974  12.116   4.106   2.679  0.0614  1.0909  0.5267
23750SOL    HW182975  12.108   4.194   2.716  0.6866  0.5277  2.0464
23750SOL    HW282976  12.207   4.082   2.694  0.6963  1.2448 -2.4206
23751SOL     OW82977   1.214   7.912   4.251  0.3665 -0.1230 -0.7082
23751SOL    HW182978   1.256   7.844   4.198  0.3983  2.1716 -3.8655
23751SOL    HW282979   1.285   7.971   4.276 -0.2365  1.1180 -1.8368
23752SOL     OW82980  11.494  13.045  10.928 -0.3631  0.4843  0.0021
23752SOL    HW182981  11.437  13.121  10.938  0.5457  1.5344 -2.0466
23752SOL    HW282982  11.474  12.989  11.003 -1.8822  2.2054  0.9572
23753SOL     OW82983   6.116   0.275  12.360  0.4229  0.3474  0.0125
23753SOL    HW182984   6.081   0.362  12.343  2.7079  1.7594  1.8482
23753SOL    HW282985   6.168   0.254  12.283  1.0854  1.3320  0.1686
23754SOL     OW82986   5.917  11.486   1.169 -0.0108 -0.0499  0.1427
23754SOL    HW182987   5.889  11.403   1.130  0.3496 -0.3993  0.6116
23754SOL    HW282988   5.877  11.485   1.256  2.4141 -1.1614  1.3462
23755SOL     OW82989  10.619   9.536   7.155  0.5051 -0.0797  0.1851
23755SOL    HW182990  10.574   9.490   7.226 -0.9384  0.6422 -0.2102
23755SOL    HW282991  10.638   9.468   7.090  2.9257 -0.9680  1.7189
23756SOL     OW82992  12.653   0.402   0.348  0.3282 -0.0634  0.5816
23756SOL    HW182993  12.634   0.473   0.287 -1.8910  0.0423  1.3093
23756SOL    HW282994  12.722   0.436   0.404  1.3576  0.3866 -0.9059
23757SOL     OW82995  11.731  11.358   9.458  0.1105 -0.8831 -0.0842
23757SOL    HW182996  11.731  11.417   9.534  2.0141 -0.1496 -0.5994
23757SOL    HW282997  11.677  11.284   9.486 -0.3973  0.0111  1.4524
23758SOL     OW82998   4.067  10.646  10.980  0.0331 -0.0414  0.2162
23758SOL    HW182999   4.065  10.621  10.887 -1.0354 -0.9492  0.4520
23758SOL    HW283000   4.010  10.581  11.023 -0.8341  1.3463  1.2470
23759SOL     OW83001  10.904   7.697   9.362  0.1969 -0.3423  0.0553
23759SOL    HW183002  10.911   7.717   9.455  1.4129  0.0344 -0.0993
23759SOL    HW283003  10.823   7.740   9.334 -0.2344 -0.5520  0.9562
23760SOL     OW83004  13.381  13.149   1.941 -0.2003  0.3525  0.1201
23760SOL    HW183005  13.385  13.237   1.902  4.1273 -0.5722 -2.2356
23760SOL    HW283006  13.342  13.095   1.872 -1.3206  0.1108  0.9228
23761SOL     OW83007   2.599  10.173   1.907  0.6271  0.3390 -0.3337
23761SOL    HW183008   2.543  10.187   1.831  1.1960  0.6962 -0.6952
23761SOL    HW283009   2.540  10.139   1.974  0.5016 -2.2335 -1.6320
23762SOL     OW83010  13.635  10.438   3.241 -0.0529 -0.0042 -0.3659
23762SOL    HW183011  13.682  10.422   3.323  0.6252 -0.4054 -0.8164
23762SOL    HW283012  13.651  10.359   3.189 -0.7951  0.0850 -0.7419
23763SOL     OW83013  10.697   1.555   5.514 -0.5160  0.5340 -0.2168
23763SOL    HW183014  10.633   1.515   5.455  0.5092  0.1772 -1.1212
23763SOL    HW283015  10.647   1.578   5.592 -2.2687  2.3882 -1.7496
23764SOL     OW83016   7.630   2.899   2.666 -0.3909 -0.0736  0.8763
23764SOL    HW183017   7.594   2.811   2.657  1.0214 -0.6792  0.9926
23764SOL    HW283018   7.670   2.917   2.581  0.5437 -0.1193  1.2930
23765SOL     OW83019  12.151   5.687   6.558 -0.2505  0.0609 -0.1437
23765SOL    HW183020  12.100   5.734   6.623  0.2447  0.8348 -0.2911
23765SOL    HW283021  12.215   5.751   6.527 -0.6980 -0.1674 -1.6493
23766SOL     OW83022   8.466   9.449   5.099  0.0818 -0.3718  0.3903
23766SOL    HW183023   8.388   9.457   5.044 -0.5089 -0.5213  1.1783
23766SOL    HW283024   8.537   9.486   5.047 -0.5821  0.0779 -0.2056
23767SOL     OW83025   1.783  12.805   3.975  0.0583 -0.4868 -0.1077
23767SOL    HW183026   1.795  12.737   4.042 -1.5786 -0.6535  0.0571
23767SOL    HW283027   1.839  12.877   4.004 -0.7333 -0.4929  1.5469
23768SOL     OW83028   5.654   2.704  11.319  0.5469  0.0877  0.1377
23768SOL    HW183029   5.719   2.638  11.295  1.2687  1.4582 -1.9438
23768SOL    HW283030   5.648   2.760  11.242 -0.6375  1.9837  1.5422
23769SOL     OW83031   5.947   2.596   6.931  0.7018 -0.0407  0.0222
23769SOL    HW183032   6.024   2.546   6.958 -1.1788 -3.3531 -0.1991
23769SOL    HW283033   5.921   2.555   6.848 -1.9903  0.1071  0.7310
23770SOL     OW83034   1.428   6.443   2.758  0.2611 -0.1812  0.0098
23770SOL    HW183035   1.436   6.530   2.797  1.8894  0.0136 -0.6594
23770SOL    HW283036   1.441   6.382   2.831 -0.3618  0.1414  0.3905
23771SOL     OW83037   9.557   6.433  10.172 -0.6444 -0.4589 -0.3813
23771SOL    HW183038   9.613   6.375  10.224  0.0080  0.9908  0.6026
23771SOL    HW283039   9.582   6.415  10.081 -0.4222 -1.6631 -0.1003
23772SOL     OW83040  12.644  10.867  12.194  0.0476  0.1000 -0.0701
23772SOL    HW183041  12.548  10.862  12.197  0.1016 -1.4345  0.3800
23772SOL    HW283042  12.664  10.901  12.108 -0.9136  0.5770 -0.1201
23773SOL     OW83043   1.476   7.026  12.831 -0.6545 -0.4713  0.3126
23773SOL    HW183044   1.566   7.000  12.848 -0.0487  0.3100 -1.4442
23773SOL    HW283045   1.464   7.011  12.737 -2.4705 -0.8628  0.5604
23774SOL     OW83046  11.716  10.487   8.286 -0.3885  0.1910 -0.1462
23774SOL    HW183047  11.658  10.507   8.213 -0.6005 -2.7257 -0.9077
23774SOL    HW283048  11.777  10.422   8.251  1.0875  0.5407  1.6236
23775SOL     OW83049   6.801   9.112   7.010  0.3706  0.5311 -0.4717
23775SOL    HW183050   6.841   9.198   7.020  2.3233 -0.1725 -1.7642
23775SOL    HW283051   6.822   9.085   6.920 -1.4254 -0.7060 -0.5823
23776SOL     OW83052   7.177   5.901   9.002 -0.5602  0.5224  0.4351
23776SOL    HW183053   7.209   5.977   8.954  0.8266 -0.2239  0.1307
23776SOL    HW283054   7.097   5.875   8.955  1.1632 -0.6717 -2.0924
23777SOL     OW83055   5.772  12.623   1.951  0.2914 -0.1579  0.1976
23777SOL    HW183056   5.862  12.645   1.928 -0.1482  1.4984 -0.0605
23777SOL    HW283057   5.762  12.655   2.040 -0.0162 -0.4386  0.2654
23778SOL     OW83058   5.784  13.112   9.626  0.1225 -0.3815 -0.6329
23778SOL    HW183059   5.779  13.040   9.688 -0.1567  0.0353 -0.1660
23778SOL    HW283060   5.745  13.077   9.546 -0.5270 -0.5783 -0.2389
23779SOL     OW83061   5.706   9.053   9.018 -0.7628  0.0051 -0.2364
23779SOL    HW183062   5.666   9.081   9.101 -0.6777  2.3830 -0.9190
23779SOL    HW283063   5.642   9.077   8.951 -0.3540 -0.8660 -0.9549
23780SOL     OW83064   7.797   1.858   6.830  0.5751 -0.5598 -0.9533
23780SOL    HW183065   7.893   1.849   6.827  0.6548  0.3653 -3.1479
23780SOL    HW283066   7.765   1.797   6.764 -0.2265  0.3399 -1.4146
23781SOL     OW83067   5.156   9.146  12.923  0.6959  0.6742  0.0091
23781SOL    HW183068   5.172   9.079  12.856 -0.1702 -1.2737  1.6485
23781SOL    HW283069   5.061   9.146  12.934  0.8885  0.1439  1.9625
23782SOL     OW83070   0.646   9.583   7.000 -0.3387  0.1226 -0.1036
23782SOL    HW183071   0.666   9.491   6.987  0.7636  0.2319  0.6720
23782SOL    HW283072   0.556   9.585   7.032 -0.1027 -0.7437  0.6370
23783SOL     OW83073  10.116   8.190   5.561 -0.1142 -0.5161  0.4799
23783SOL    HW183074  10.173   8.114   5.546  0.7234  0.3680 -1.1298
23783SOL    HW283075  10.061   8.194   5.482 -0.0878  0.5815  0.5044
23784SOL     OW83076   9.204   2.207   7.509  0.3840 -0.0431  0.3586
23784SOL    HW183077   9.157   2.227   7.590 -0.2045 -0.3133  0.0877
23784SOL    HW283078   9.216   2.112   7.511 -0.6114 -0.1912 -0.3943
23785SOL     OW83079   0.959  12.616  11.017 -0.2565 -0.6823 -0.5891
23785SOL    HW183080   0.894  12.657  10.960 -0.8618 -0.1135  0.4912
23785SOL    HW283081   0.963  12.525  10.987 -2.0151 -0.8982 -0.2936
23786SOL     OW83082   2.046  11.330  12.586  0.1509  0.3123 -0.4816
23786SOL    HW183083   1.974  11.392  12.574 -0.4737 -0.3988 -0.5026
23786SOL    HW283084   2.086  11.355  12.669 -2.4555 -1.5107  1.5017
23787SOL     OW83085   0.781  10.921   5.129  0.1199 -0.4521  0.3819
23787SOL    HW183086   0.873  10.941   5.112  0.1257  0.9962  1.8829
23787SOL    HW283087   0.783  10.867   5.207 -0.3028 -0.5433  0.3300
23788SOL     OW83088   2.894  10.116   1.843  0.1692  0.2409 -0.1121
23788SOL    HW183089   2.868  10.029   1.874  1.1071  0.1060  0.3428
23788SOL    HW283090   2.823  10.174   1.870 -1.2647 -0.6121 -1.8206
23789SOL     OW83091  11.585   6.264   8.195 -0.1995  0.8867  0.0335
23789SOL    HW183092  11.558   6.244   8.284 -1.3353 -2.0025 -0.8354
23789SOL    HW283093  11.680   6.249   8.195 -0.4326 -0.8819  0.4263
23790SOL     OW83094   4.889   8.701   8.530  0.1038  0.1412 -0.1793
23790SOL    HW183095   4.876   8.738   8.442  1.8723 -1.5712 -1.2568
23790SOL    HW283096   4.972   8.738   8.560  0.3511 -0.5498  0.0278
23791SOL     OW83097   9.443  13.492   6.702 -0.3697 -0.5015 -0.4879
23791SOL    HW183098   9.359  13.511   6.745  0.3840  1.2314  0.2906
23791SOL    HW283099   9.453  13.561   6.637  0.7470 -0.3007 -0.1190
23792SOL     OW83100  10.332   7.811   3.370 -0.0320  0.1019  0.2283
23792SOL    HW183101  10.417   7.773   3.393  0.0065 -0.8494 -1.3246
23792SOL    HW283102  10.353   7.899   3.338  0.1261  0.6134  1.6371
23793SOL     OW83103   0.009   1.130   5.263  0.2533  0.1620 -0.1243
23793SOL    HW183104   0.105   1.128   5.265  0.3449 -0.2223 -2.0617
23793SOL    HW283105  -0.014   1.219   5.287  1.1769  0.5965 -0.7844
23794SOL     OW83106   2.505   0.539  11.799 -0.0449  0.5852  0.1239
23794SOL    HW183107   2.527   0.449  11.776 -0.2007  0.7160 -0.5633
23794SOL    HW283108   2.412   0.547  11.778  0.3612  1.4041 -1.5040
23795SOL     OW83109   9.045  11.784  11.880  0.4300 -0.5118  0.2387
23795SOL    HW183110   9.024  11.800  11.972 -0.4670  0.3891 -0.1022
23795SOL    HW283111   9.085  11.865  11.850  1.1299 -0.9568 -0.0577
23796SOL     OW83112  12.644   3.861   2.304  0.6142  0.1549  0.6264
23796SOL    HW183113  12.550   3.866   2.320  0.2881 -0.2083 -0.9956
23796SOL    HW283114  12.669   3.775   2.337  0.0585 -0.4012 -0.3673
23797SOL     OW83115  11.335   7.889   6.286 -0.2696 -0.1600 -0.6297
23797SOL    HW183116  11.319   7.839   6.366 -0.9148 -1.7907 -1.7192
23797SOL    HW283117  11.252   7.934   6.269 -1.0399 -1.8664 -1.7072
23798SOL     OW83118   1.058  10.193   3.606  0.1821  0.0169 -0.5267
23798SOL    HW183119   1.065  10.125   3.538 -0.9966  0.7161 -1.3949
23798SOL    HW283120   0.969  10.182   3.640  0.2883  0.5677 -0.0725
23799SOL     OW83121   8.257  11.099   3.378 -0.4323  0.2099  0.0137
23799SOL    HW183122   8.175  11.062   3.344  0.0409 -0.3247 -0.5770
23799SOL    HW283123   8.325  11.044   3.339  0.1505 -0.3984  1.8158
23800SOL     OW83124   7.755   6.382   6.352 -0.1098  0.8115 -0.4524
23800SOL    HW183125   7.759   6.467   6.396 -3.0551  1.3781 -1.0729
23800SOL    HW283126   7.734   6.403   6.261 -0.8424 -0.5724 -0.6262
23801SOL     OW83127   2.808   4.906   0.444  0.1998 -0.5282 -0.2764
23801SOL    HW183128   2.849   4.825   0.475 -0.0268 -0.6131 -0.1935
23801SOL    HW283129   2.729   4.876   0.399 -0.9140 -0.2670  1.3760
23802SOL     OW83130  10.655  13.730   3.756 -0.2487 -0.3597 -0.2393
23802SOL    HW183131  10.592  13.717   3.827 -0.1982  0.1525 -0.0947
23802SOL    HW283132  10.637  13.660   3.694 -2.7132  1.2402 -1.4808
23803SOL     OW83133   1.794   0.858   7.491  0.1260 -0.1259 -0.8704
23803SOL    HW183134   1.835   0.816   7.567 -0.2620 -0.9357 -1.0923
23803SOL    HW283135   1.858   0.848   7.421  0.1613 -0.0634 -0.8478
23804SOL     OW83136   0.504   6.690   1.685 -0.4963  0.0696 -0.0228
23804SOL    HW183137   0.457   6.620   1.730 -1.1915  1.6115  1.7489
23804SOL    HW283138   0.464   6.693   1.598 -0.8549 -1.3239  0.0683
23805SOL     OW83139   3.890   4.593   7.078 -0.9901 -0.0177 -0.4686
23805SOL    HW183140   3.856   4.673   7.118  2.7511  2.2608 -1.3088
23805SOL    HW283141   3.911   4.619   6.988  3.1312 -0.8594  0.0600
23806SOL     OW83142   2.563   6.223   4.207  0.2411  0.0087  0.2906
23806SOL    HW183143   2.533   6.311   4.184  0.3653  0.1375  0.6046
23806SOL    HW283144   2.484   6.174   4.229  0.2100  0.1804  0.5676
23807SOL     OW83145  12.915   8.320   1.277  0.3708 -0.2361 -0.2354
23807SOL    HW183146  12.909   8.276   1.362 -0.9496 -2.0061 -1.1981
23807SOL    HW283147  12.980   8.269   1.228 -1.5834 -1.5788 -1.5621
23808SOL     OW83148   9.548  10.490   3.697 -0.2602  0.1735 -0.2942
23808SOL    HW183149   9.581  10.488   3.607  0.0367  0.9880 -0.2056
23808SOL    HW283150   9.538  10.583   3.717  1.8480  0.1247  1.2923
23809SOL     OW83151   0.474   8.145   0.162  0.4072 -0.1114 -0.3032
23809SOL    HW183152   0.420   8.184   0.093  2.1169  1.9400 -0.5880
23809SOL    HW283153   0.560   8.133   0.122  0.3594 -2.9661  0.2373
23810SOL     OW83154   5.513   9.839   6.064 -0.4062 -0.1105 -0.4033
23810SOL    HW183155   5.502   9.846   5.970 -0.2532  0.1750 -0.4000
23810SOL    HW283156   5.584   9.775   6.075 -0.5905 -0.3298 -0.4732
23811SOL     OW83157   2.198  12.728   2.520 -0.2377  0.3583  0.0853
23811SOL    HW183158   2.137  12.706   2.450 -1.4202  2.4414  0.3784
23811SOL    HW283159   2.281  12.744   2.475 -0.6464  0.3678 -0.6871
23812SOL     OW83160   6.468   0.852   3.648 -0.0672 -0.1742  0.6123
23812SOL    HW183161   6.511   0.826   3.567 -0.3970  1.3593 -0.0787
23812SOL    HW283162   6.385   0.803   3.648 -0.6785  0.8093 -0.6584
23813SOL     OW83163   0.044   3.518   5.010  0.4212  0.5501  0.2994
23813SOL    HW183164   0.130   3.559   4.995 -0.0030  1.3087 -0.1101
23813SOL    HW283165   0.001   3.576   5.074  0.4928 -0.2368  1.0855
23814SOL     OW83166   7.576  12.504   4.948  0.2407  0.4824  0.2103
23814SOL    HW183167   7.610  12.580   4.900  0.5604 -0.1338 -0.5700
23814SOL    HW283168   7.481  12.511   4.940  0.2958  0.1667 -0.8928
23815SOL     OW83169  12.299   3.008   8.803 -0.1658  0.2566 -0.4969
23815SOL    HW183170  12.295   2.964   8.888 -0.6232  0.8129 -0.2257
23815SOL    HW283171  12.363   2.957   8.753  0.4217  0.1647  0.3177
23816SOL     OW83172   1.455   1.208   9.315 -0.1989 -0.3084 -0.0939
23816SOL    HW183173   1.518   1.185   9.246  0.7227  1.0952  0.2284
23816SOL    HW283174   1.501   1.187   9.396 -0.4251  0.0752  0.1310
23817SOL     OW83175   2.951   7.358   0.710  0.5702  0.1542 -0.1478
23817SOL    HW183176   3.020   7.424   0.722 -1.1732  2.1066 -0.3198
23817SOL    HW283177   2.948   7.312   0.794  2.1121 -0.0534 -0.1692
23818SOL     OW83178  10.605  12.977   6.467  0.3596  0.0638 -0.1820
23818SOL    HW183179  10.657  13.056   6.481 -0.9650  1.0349 -0.5255
23818SOL    HW283180  10.579  12.981   6.375  0.1674 -0.6987 -0.1688
23819SOL     OW83181   9.057   6.659   4.567 -0.0582  0.3453  0.5233
23819SOL    HW183182   9.022   6.740   4.606 -0.4422 -0.2020  1.3534
23819SOL    HW283183   8.995   6.591   4.595 -0.0269 -0.1654 -0.5938
23820SOL     OW83184   4.701   1.214   7.053  0.0587 -0.8069  0.1388
23820SOL    HW183185   4.698   1.245   7.143  0.5919 -0.0252 -0.1068
23820SOL    HW283186   4.615   1.235   7.017  0.3761  0.3018  0.0093
23821SOL     OW83187   2.711   7.408  12.309  0.1148 -0.0447 -0.4116
23821SOL    HW183188   2.616   7.392  12.302 -0.1672 -0.0987  2.2825
23821SOL    HW283189   2.751   7.336  12.260 -1.2324 -0.2678 -1.2377
23822SOL     OW83190   6.497   8.982  11.095  0.1223 -0.0512  0.3597
23822SOL    HW183191   6.474   9.022  11.179 -0.1433  1.9787 -0.6223
23822SOL    HW283192   6.593   8.982  11.095  0.1784 -2.1595  1.5600
23823SOL     OW83193   6.757   4.376  10.311  0.1523  0.2070 -0.0293
23823SOL    HW183194   6.685   4.438  10.295  0.1542 -0.1435 -1.5792
23823SOL    HW283195   6.765   4.327  10.229  2.2512  0.3244  0.0380
23824SOL     OW83196  12.446   8.975   7.417  0.6606 -0.0765 -0.6374
23824SOL    HW183197  12.446   9.063   7.453 -1.3173  0.1431 -1.0801
23824SOL    HW283198  12.476   8.986   7.327 -0.4102  0.3092 -0.9679
23825SOL     OW83199  10.442   6.317   3.556  0.3492 -0.4038  0.2456
23825SOL    HW183200  10.532   6.304   3.583  1.1848  1.7897 -1.1789
23825SOL    HW283201  10.407   6.381   3.619  0.6426  0.6789 -0.6468
23826SOL     OW83202   5.661   8.239  12.276 -0.0657  0.6409 -0.0345
23826SOL    HW183203   5.730   8.248  12.342 -0.4928  0.4830  0.4414
23826SOL    HW283204   5.602   8.173  12.312  0.3417 -0.3758 -1.1374
23827SOL     OW83205   6.753   8.318   2.426  0.0351 -0.0352  0.0410
23827SOL    HW183206   6.687   8.250   2.442  0.4055 -0.1514  1.1529
23827SOL    HW283207   6.827   8.292   2.481 -0.0027  1.5353  0.8859
23828SOL     OW83208   2.699   7.948   4.550 -0.0133  0.1144  0.4459
23828SOL    HW183209   2.748   7.966   4.630  0.1582 -4.4049  1.6406
23828SOL    HW283210   2.611   7.928   4.580 -0.7666  1.3131 -0.8880
23829SOL     OW83211  11.026   1.177  11.073  0.1105  0.1712 -0.1083
23829SOL    HW183212  11.073   1.260  11.070 -0.8789  0.9641  2.7479
23829SOL    HW283213  11.020   1.156  11.166 -1.7135 -1.9213 -0.5996
23830SOL     OW83214   5.873   1.852   5.442  0.3674 -0.0213  0.1220
23830SOL    HW183215   5.779   1.852   5.460  0.2494 -2.1371 -0.3492
23830SOL    HW283216   5.879   1.856   5.347  0.7506 -0.3518  0.1326
23831SOL     OW83217   4.602   2.366  10.350  0.5403 -0.0451 -0.0006
23831SOL    HW183218   4.508   2.348  10.358  0.5316  0.5239  1.3802
23831SOL    HW283219   4.615   2.449  10.396  2.0019 -1.0387  1.5085
23832SOL     OW83220   1.502   6.748  12.077  0.2835 -0.2936 -0.1028
23832SOL    HW183221   1.462   6.709  11.999 -2.1814  1.6040  0.1163
23832SOL    HW283222   1.487   6.683  12.146  0.7301 -1.1254 -0.7662
23833SOL     OW83223   1.456   2.293   1.397  0.3566  0.2736  0.1863
23833SOL    HW183224   1.436   2.214   1.348 -1.3214  0.6469  0.2115
23833SOL    HW283225   1.524   2.337   1.345 -0.9733  0.3868 -1.5573
23834SOL     OW83226   0.040  10.088  11.773  0.0016 -0.8911  0.1901
23834SOL    HW183227  -0.008  10.154  11.824  1.6350  0.6207 -0.1347
23834SOL    HW283228   0.026  10.006  11.821 -3.3804 -0.7082 -0.2261
23835SOL     OW83229   7.046  12.837  10.618 -0.1219  0.1861 -0.0896
23835SOL    HW183230   7.103  12.767  10.588 -1.8388 -1.2568 -0.1368
23835SOL    HW283231   7.049  12.902  10.548  1.0533 -0.0807 -0.3067
23836SOL     OW83232  12.979   0.687  12.241 -0.9070 -0.3830 -0.3824
23836SOL    HW183233  12.929   0.757  12.283  0.6199 -0.7708  2.3451
23836SOL    HW283234  13.052   0.670  12.301  1.1631 -1.4857 -2.9578
23837SOL     OW83235   5.896   7.055   8.610 -0.0153 -0.6736 -0.0019
23837SOL    HW183236   5.894   7.096   8.697 -0.2740 -1.1525  0.2258
23837SOL    HW283237   5.834   7.105   8.558  0.3932 -0.1672 -0.0164
23838SOL     OW83238   0.845   4.748   4.434  0.0263 -0.0601 -0.6808
23838SOL    HW183239   0.880   4.831   4.402  0.3751 -0.2650 -0.8363
23838SOL    HW283240   0.832   4.762   4.528  0.9946 -0.1371 -0.5259
23839SOL     OW83241  10.867  11.559  10.270 -0.6319  0.4118  0.0526
23839SOL    HW183242  10.939  11.509  10.306 -1.0237 -0.8214 -0.8091
23839SOL    HW283243  10.888  11.650  10.290  1.3390  0.1126 -0.4802
23840SOL     OW83244  12.057   5.018  11.500  0.1198 -0.2131 -0.0081
23840SOL    HW183245  12.145   4.982  11.498 -0.1859 -0.9554 -1.3864
23840SOL    HW283246  12.069   5.112  11.505  0.9774 -0.3335  0.3322
23841SOL     OW83247   5.721  10.671   6.115 -0.3022  0.2368  0.0777
23841SOL    HW183248   5.805  10.643   6.079 -0.0410  0.7307  0.2903
23841SOL    HW283249   5.664  10.681   6.039 -0.5132 -1.2157  0.0302
23842SOL     OW83250  10.282   4.657   7.029 -0.2707  0.1742 -0.3457
23842SOL    HW183251  10.331   4.624   7.104  0.4586  2.1946  0.1236
23842SOL    HW283252  10.190   4.649   7.054 -0.1157 -0.9638 -0.0666
23843SOL     OW83253   4.342   3.409   7.412 -0.3185 -0.2940  0.3238
23843SOL    HW183254   4.307   3.330   7.452 -0.9678  0.1177  0.5842
23843SOL    HW283255   4.434   3.412   7.439  0.2358 -1.9203 -1.2006
23844SOL     OW83256  12.412   3.549   1.682 -0.1273  0.4518 -0.0085
23844SOL    HW183257  12.386   3.544   1.590 -0.7584 -1.3791  0.2184
23844SOL    HW283258  12.336   3.585   1.727 -1.2124 -1.9403  0.2227
23845SOL     OW83259   8.124  13.457   6.375  0.2448  0.2869 -0.1199
23845SOL    HW183260   8.172  13.522   6.425  0.0703 -0.0793  0.5398
23845SOL    HW283261   8.167  13.455   6.290  1.5046 -0.1343  0.4927
23846SOL     OW83262   4.208   2.036   6.819 -0.4229  0.4705  0.3640
23846SOL    HW183263   4.248   2.052   6.734 -1.0517  0.3990  0.0515
23846SOL    HW283264   4.114   2.050   6.805 -0.5617  0.2019  0.9793
23847SOL     OW83265   4.799  13.518   0.805 -0.2986  0.6446  0.5261
23847SOL    HW183266   4.887  13.546   0.780  0.5585 -1.8239  0.5244
23847SOL    HW283267   4.776  13.576   0.878  0.8026  2.1163 -0.2331
23848SOL     OW83268   9.655   1.386   7.048 -0.3350 -0.4883  0.4178
23848SOL    HW183269   9.653   1.293   7.025  0.2092 -0.3234 -0.3268
23848SOL    HW283270   9.563   1.414   7.040 -0.0775 -0.1260 -3.0400
23849SOL     OW83271   8.788   6.318  13.027 -0.4741 -0.5783  0.9981
23849SOL    HW183272   8.841   6.273  12.961  1.0536 -1.3133  2.6425
23849SOL    HW283273   8.772   6.405  12.990  1.8263 -0.3599  0.3400
23850SOL     OW83274  11.788   3.179  10.926  0.3237 -0.0026 -0.0267
23850SOL    HW183275  11.752   3.129  10.999  1.8133 -1.6685 -0.3403
23850SOL    HW283276  11.774   3.124  10.849  1.0792  0.5301 -0.5705
23851SOL     OW83277   4.155   1.042   6.466  0.1191  0.5907 -0.2771
23851SOL    HW183278   4.148   1.096   6.387 -0.3049 -1.0999 -1.4475
23851SOL    HW283279   4.073   0.993   6.470  1.7091 -2.4392 -1.2091
23852SOL     OW83280   5.381   5.045   7.596 -0.5218  0.2669  0.1950
23852SOL    HW183281   5.418   5.054   7.684  0.2199  0.1249 -0.0874
23852SOL    HW283282   5.427   5.112   7.545 -0.2451 -0.2840 -0.2937
23853SOL     OW83283  12.382   7.143   8.109 -0.9886 -0.6533  0.2629
23853SOL    HW183284  12.393   7.048   8.106 -0.7081 -0.6283  0.4550
23853SOL    HW283285  12.437   7.176   8.038 -0.2624 -0.5696  0.8477
23854SOL     OW83286   3.893  13.724   7.508 -0.4461 -0.2487  0.3265
23854SOL    HW183287   3.952  13.730   7.583 -1.3784 -0.2694  1.0829
23854SOL    HW283288   3.812  13.764   7.539 -1.7251 -2.6282  0.2412
23855SOL     OW83289   2.496   7.707   4.450  0.1804  0.3878  1.0348
23855SOL    HW183290   2.570   7.762   4.424 -1.1455  1.4072 -0.8689
23855SOL    HW283291   2.497   7.708   4.545  2.5403  0.4207  1.0704
23856SOL     OW83292   0.398   8.127   9.555  0.0335 -0.1789  0.2520
23856SOL    HW183293   0.399   8.169   9.641 -0.3277  1.0778 -0.3392
23856SOL    HW283294   0.431   8.194   9.495 -1.2053 -0.4892 -0.8235
23857SOL     OW83295   1.590   3.617   5.083  0.0621 -0.0057 -0.1240
23857SOL    HW183296   1.616   3.630   4.992  0.2304 -2.7834 -0.5540
23857SOL    HW283297   1.581   3.706   5.118 -2.7536  1.3095 -3.5575
23858SOL     OW83298   8.432  12.688  13.607 -0.0908  0.7331  0.2935
23858SOL    HW183299   8.436  12.769  13.557  2.6568 -0.6299 -1.9303
23858SOL    HW283300   8.388  12.626  13.549  2.8197 -0.7750 -0.4884
23859SOL     OW83301   7.100   0.556   1.761  0.1540 -0.4498  0.0181
23859SOL    HW183302   7.006   0.567   1.777  0.0283 -0.1935 -0.8184
23859SOL    HW283303   7.133   0.645   1.751  0.5561 -0.5257  0.6729
23860SOL     OW83304   7.114  11.079   7.726 -0.0141 -0.0789 -0.2034
23860SOL    HW183305   7.126  11.036   7.811  1.6710  2.8808  1.1799
23860SOL    HW283306   7.195  11.063   7.679  0.0633  0.4321 -0.2411
23861SOL     OW83307   9.216   0.345   7.668  0.0130  0.3022  0.1520
23861SOL    HW183308   9.171   0.261   7.659 -0.0482  0.2595  0.7897
23861SOL    HW283309   9.309   0.323   7.670  0.0430  0.3369 -0.5787
23862SOL     OW83310   5.981   8.740   5.939 -0.1926 -0.0225  0.1324
23862SOL    HW183311   6.035   8.726   6.016  0.8873 -1.1610 -0.8001
23862SOL    HW283312   6.000   8.830   5.913  2.7569 -0.9219 -1.2314
23863SOL     OW83313   0.625  11.119   1.874  0.1436 -0.2181 -0.5491
23863SOL    HW183314   0.713  11.157   1.873  0.1150 -0.0988  0.3161
23863SOL    HW283315   0.605  11.109   1.967 -0.4172 -1.0390 -0.7446
23864SOL     OW83316   4.126  12.856  10.510  0.3057 -0.0616 -0.6551
23864SOL    HW183317   4.108  12.838  10.603  1.3199  0.0384 -0.4203
23864SOL    HW283318   4.214  12.820  10.496  0.2048  0.0248 -1.5546
23865SOL     OW83319   5.493   1.715   3.580  0.4764 -0.3288  0.1498
23865SOL    HW183320   5.546   1.743   3.655  0.0878  0.4198  0.1481
23865SOL    HW283321   5.473   1.796   3.532 -0.0376 -0.6916 -0.2639
23866SOL     OW83322   5.019   8.859   3.519  0.0597  0.1777  0.6183
23866SOL    HW183323   4.976   8.806   3.453  1.2052  1.4999 -1.2800
23866SOL    HW283324   4.951   8.918   3.552 -0.1372  0.7365 -0.7291
23867SOL     OW83325   6.649  13.325   4.605 -0.1128 -0.3007 -0.0175
23867SOL    HW183326   6.727  13.346   4.657 -0.6077  1.1856  0.1674
23867SOL    HW283327   6.623  13.409   4.567 -0.0212 -1.2589 -2.3522
23868SOL     OW83328   5.827  11.370   7.417 -0.0373 -0.6902  0.5452
23868SOL    HW183329   5.819  11.309   7.490  0.3879 -2.0390 -0.4794
23868SOL    HW283330   5.737  11.399   7.400 -0.3108 -1.3663  0.8008
23869SOL     OW83331   7.738  12.822  11.159  0.5000 -0.1503  0.1333
23869SOL    HW183332   7.779  12.879  11.093 -1.6797  1.1888 -0.2149
23869SOL    HW283333   7.785  12.841  11.240  1.0596  0.7433 -0.3780
23870SOL     OW83334   0.199   5.932   4.971  0.4243  0.3575 -0.3318
23870SOL    HW183335   0.243   6.013   4.998  0.8223  0.6768 -1.8091
23870SOL    HW283336   0.107   5.957   4.960  0.6065  0.7190 -1.1226
23871SOL     OW83337   1.248   9.915  12.287  0.0314 -0.2736 -0.3831
23871SOL    HW183338   1.228   9.876  12.372  2.3576  1.0460  0.8611
23871SOL    HW283339   1.168   9.963  12.264 -0.5113 -0.3118  1.2625
23872SOL     OW83340  11.705   8.132   1.939  0.0426 -0.3679 -0.2004
23872SOL    HW183341  11.753   8.104   2.017 -1.0504 -3.5165 -0.5242
23872SOL    HW283342  11.771   8.134   1.869  0.8050  1.4190  0.4963
23873SOL     OW83343   1.199   1.712   3.177 -0.8635 -0.0032  0.0127
23873SOL    HW183344   1.195   1.807   3.190 -1.4722  0.2004 -1.4584
23873SOL    HW283345   1.283   1.698   3.132 -0.4581 -0.2529  0.8340
23874SOL     OW83346   4.138   4.845   7.026 -0.0386 -0.2282 -0.4067
23874SOL    HW183347   4.165   4.887   6.945  3.0759 -0.2403  0.5139
23874SOL    HW283348   4.139   4.752   7.006 -0.9162 -0.1738 -0.7638
23875SOL     OW83349   4.997  11.547   9.485  0.1986 -0.5191  0.1007
23875SOL    HW183350   5.064  11.480   9.500 -0.0027 -0.8457 -0.4408
23875SOL    HW283351   4.940  11.541   9.562  0.2752 -0.8565  0.1331
23876SOL     OW83352   3.671  11.859  13.240 -0.0518  0.0973  0.4309
23876SOL    HW183353   3.756  11.826  13.269  0.2626  0.3195 -0.2183
23876SOL    HW283354   3.668  11.949  13.273 -0.2253 -0.0563  0.8350
23877SOL     OW83355   1.476   1.341   3.108 -0.4417 -0.4850  0.1018
23877SOL    HW183356   1.470   1.399   3.184  0.3064  1.8773 -1.5229
23877SOL    HW283357   1.385   1.331   3.080 -0.5594  0.3012  0.1573
23878SOL     OW83358   9.511   8.942   1.226  0.2463 -0.3026  0.0407
23878SOL    HW183359   9.562   9.005   1.175 -1.2798  1.3574  0.4488
23878SOL    HW283360   9.421   8.956   1.198 -0.5405  0.0738  2.4981
23879SOL     OW83361   9.339  10.687   8.069 -0.0012  0.5820  0.2111
23879SOL    HW183362   9.366  10.631   8.142 -1.1425 -0.0623  0.1530
23879SOL    HW283363   9.418  10.696   8.015  0.1490 -1.1934  0.0806
23880SOL     OW83364  11.564   5.805   1.772  0.3582  0.2278  0.0322
23880SOL    HW183365  11.649   5.832   1.738  0.4009  0.3177  0.2074
23880SOL    HW283366  11.566   5.710   1.769 -0.8117  0.1709 -3.1797
23881SOL     OW83367  10.783   8.043  12.087 -0.2041 -0.6603 -0.8199
23881SOL    HW183368  10.705   7.991  12.101 -0.7325  0.0130 -1.2143
23881SOL    HW283369  10.794   8.092  12.169  1.0810 -2.3576  0.0957
23882SOL     OW83370   0.338   1.397   0.980  0.0733  0.1115  0.2817
23882SOL    HW183371   0.254   1.379   1.022  0.3322  1.4210  1.4058
23882SOL    HW283372   0.404   1.371   1.044  0.5329 -0.1122 -0.2655
23883SOL     OW83373   6.271   2.611  11.062 -0.2765 -0.5877  0.0587
23883SOL    HW183374   6.328   2.654  11.126 -0.8307 -2.7221  2.1518
23883SOL    HW283375   6.317   2.530  11.039 -0.4575 -0.2355 -1.7197
23884SOL     OW83376   8.923   6.528   0.268  0.2643 -0.5174  0.1036
23884SOL    HW183377   8.887   6.593   0.207  0.6457 -1.1442 -0.8201
23884SOL    HW283378   8.913   6.445   0.221  0.8536 -0.9727  0.7816
23885SOL     OW83379  10.598   2.710   2.586 -0.1644  0.6207  0.1228
23885SOL    HW183380  10.550   2.777   2.536 -0.7509  0.0063 -0.1528
23885SOL    HW283381  10.583   2.629   2.537  1.6739  0.5062 -0.3226
23886SOL     OW83382  12.514   1.781   4.067 -0.2919 -0.1082 -0.1948
23886SOL    HW183383  12.484   1.696   4.099  0.4319 -0.1947  0.2963
23886SOL    HW283384  12.608   1.769   4.053 -0.2491  0.5082 -0.4733
23887SOL     OW83385   6.762   9.405   7.972  0.3071  0.3487 -0.0964
23887SOL    HW183386   6.791   9.496   7.971 -0.6596  0.6920  1.0825
23887SOL    HW283387   6.696   9.400   7.902  1.3379  0.1925 -1.0804
23888SOL     OW83388  12.284   2.335  10.058  0.1494 -0.1119 -0.0923
23888SOL    HW183389  12.298   2.404  10.123  0.7289 -1.3440  1.1519
23888SOL    HW283390  12.246   2.262  10.107  0.5224 -1.0613 -1.1406
23889SOL     OW83391   0.518   4.297   1.136 -0.6683  0.4625 -0.1795
23889SOL    HW183392   0.468   4.248   1.071  1.3843 -0.6711 -1.0209
23889SOL    HW283393   0.573   4.231   1.178  0.7251  1.7322  0.0695
23890SOL     OW83394   8.359  12.765   6.559  0.0631  0.1652 -0.4732
23890SOL    HW183395   8.362  12.859   6.537 -1.1285 -0.0431 -1.6877
23890SOL    HW283396   8.267  12.749   6.581  0.6018 -0.3583  1.6048
23891SOL     OW83397  11.193  11.363   3.337  0.3151  0.0912 -0.4752
23891SOL    HW183398  11.142  11.290   3.304  0.1969 -0.1896  0.3133
23891SOL    HW283399  11.133  11.410   3.395  0.9802 -0.3378  0.5929
23892SOL     OW83400   1.806  10.226   0.843  0.4393  0.2031 -0.2993
23892SOL    HW183401   1.852  10.309   0.855  2.9664 -1.2109  0.5920
23892SOL    HW283402   1.739  10.226   0.911  1.4352  0.9003  0.7328
23893SOL     OW83403  13.415   1.422  11.424 -0.0074 -0.4016  0.0850
23893SOL    HW183404  13.452   1.509  11.410 -0.2336 -0.2602  0.3619
23893SOL    HW283405  13.371   1.402  11.342  1.0091 -0.7392 -0.3956
23894SOL     OW83406   8.550   5.958   3.359 -0.1226  0.0033 -0.3667
23894SOL    HW183407   8.527   5.892   3.292 -0.3907  0.1456 -0.4186
23894SOL    HW283408   8.645   5.961   3.359 -0.0020 -1.8783  1.0727
23895SOL     OW83409   0.389   6.905   2.053 -0.2866  0.3352  0.6684
23895SOL    HW183410   0.409   6.876   2.142 -0.6050 -0.9644  0.3405
23895SOL    HW283411   0.301   6.942   2.060 -0.3999  0.0336  0.8407
23896SOL     OW83412   1.707   0.876   9.730 -0.3246  0.3629  0.0921
23896SOL    HW183413   1.800   0.870   9.710  0.2497  2.2497  1.8814
23896SOL    HW283414   1.702   0.936   9.805 -3.0872  1.6330 -0.9653
23897SOL     OW83415  10.698   3.655   8.044 -0.1711  0.1002  0.6601
23897SOL    HW183416  10.776   3.620   8.000  0.0683  0.0701  1.0994
23897SOL    HW283417  10.637   3.582   8.048 -0.6860  0.4331 -0.7274
23898SOL     OW83418   8.886   2.793   9.336 -0.2621  0.1838  0.0549
23898SOL    HW183419   8.863   2.880   9.366 -1.5563 -0.6837  1.7461
23898SOL    HW283420   8.958   2.766   9.393 -1.7038 -0.8701  1.4803
23899SOL     OW83421   5.022   5.098   3.003  0.1109  0.1958  0.5984
23899SOL    HW183422   4.964   5.022   3.012  0.8452 -0.8619 -2.3066
23899SOL    HW283423   5.031   5.110   2.909  2.4739  1.9989  0.9529
23900SOL     OW83424   9.013   5.142   7.621 -0.3200 -0.4009 -0.4730
23900SOL    HW183425   9.014   5.164   7.714  2.2430  1.7457 -0.8825
23900SOL    HW283426   9.033   5.048   7.618 -2.7356 -1.0467  1.1344
23901SOL     OW83427   7.553   1.971   9.859 -0.0083  0.8483 -0.0513
23901SOL    HW183428   7.517   1.952   9.945 -0.5508  1.1955 -0.1973
23901SOL    HW283429   7.646   1.983   9.873 -0.3737  3.0239  0.8336
23902SOL     OW83430   5.378   0.470   6.690  0.1195  0.5818 -0.1122
23902SOL    HW183431   5.333   0.388   6.709  0.5313  0.2365 -0.6177
23902SOL    HW283432   5.380   0.516   6.774 -2.3576  1.2100 -0.3254
23903SOL     OW83433   9.354  10.633   6.667 -0.6526 -0.2145  0.2224
23903SOL    HW183434   9.268  10.660   6.635 -0.2168  3.3423  1.5568
23903SOL    HW283435   9.336  10.586   6.748 -1.3461 -1.4416 -0.6028
23904SOL     OW83436  11.424   0.707  10.012  0.3329  0.0326 -0.8986
23904SOL    HW183437  11.480   0.690  10.088 -0.2869 -0.2629 -0.5069
23904SOL    HW283438  11.365   0.776  10.040 -2.8657 -2.9981  0.4653
23905SOL     OW83439  10.758   1.349  10.496  0.4478  0.4432  0.2269
23905SOL    HW183440  10.719   1.278  10.547  0.3334  1.5738  1.7903
23905SOL    HW283441  10.690   1.374  10.433  0.3397 -0.5388 -0.0608
23906SOL     OW83442   9.205  11.930   6.030 -0.2746  0.0461 -0.8170
23906SOL    HW183443   9.249  11.893   6.106  0.4626  2.1708 -0.1454
23906SOL    HW283444   9.275  11.946   5.966 -0.5837  0.2460 -1.1104
23907SOL     OW83445   9.380  13.477   5.038  0.1610  0.2398 -0.4242
23907SOL    HW183446   9.408  13.386   5.030  1.5426  0.5755  0.4009
23907SOL    HW283447   9.439  13.515   5.103 -1.4766  1.2909  0.5207
23908SOL     OW83448  11.111   2.806   4.405 -0.1865 -0.4477 -0.3853
23908SOL    HW183449  11.103   2.714   4.429 -0.8320 -0.6446 -1.2919
23908SOL    HW283450  11.142   2.849   4.485 -0.0871 -1.4107  0.1105
23909SOL     OW83451   4.057   0.140   4.671 -0.3565  0.3451  0.5898
23909SOL    HW183452   4.076   0.155   4.763  0.4105 -0.5665  0.5966
23909SOL    HW283453   4.098   0.214   4.626  1.3032 -0.4069  0.8026
23910SOL     OW83454  11.733   7.681   7.362 -0.4683  0.0379 -1.1111
23910SOL    HW183455  11.823   7.649   7.361 -0.3192  0.4388 -0.7510
23910SOL    HW283456  11.707   7.681   7.270  0.0840  0.4302 -1.2719
23911SOL     OW83457   8.518   3.536  11.005  0.5440  0.6157  0.4651
23911SOL    HW183458   8.445   3.495  11.052  0.5249 -0.2990 -0.3368
23911SOL    HW283459   8.596   3.508  11.053  0.3982  1.6457  1.3619
23912SOL     OW83460   7.144  10.077   5.377 -0.1803  0.0643 -0.1935
23912SOL    HW183461   7.098  10.123   5.307  0.1313  1.8897  0.7517
23912SOL    HW283462   7.185  10.002   5.334  0.3421  1.3550 -2.0310
23913SOL     OW83463   6.147   6.720   1.890  0.0730 -0.5016 -0.5373
23913SOL    HW183464   6.178   6.685   1.973 -0.7265 -0.2893 -0.1396
23913SOL    HW283465   6.171   6.813   1.893 -0.5453 -0.3489 -0.2523
23914SOL     OW83466   1.009   5.904   6.031  0.2501  0.1106 -0.2341
23914SOL    HW183467   0.994   5.976   5.970 -0.5599 -0.7266 -1.0543
23914SOL    HW283468   0.926   5.858   6.034  0.5893 -0.4591  0.7249
23915SOL     OW83469   1.521  10.261  10.844  0.0234  0.5972 -0.2594
23915SOL    HW183470   1.530  10.256  10.749 -0.4231  0.4675 -0.2943
23915SOL    HW283471   1.457  10.330  10.858 -1.8224 -1.0682 -0.1482
23916SOL     OW83472   3.946   7.509   4.927  0.0101 -0.5383  0.2270
23916SOL    HW183473   3.858   7.487   4.956 -0.5153  1.4809  0.3152
23916SOL    HW283474   3.998   7.511   5.007  0.3117 -2.3024  0.1124
23917SOL     OW83475   8.448  11.591   8.173  0.0650  0.4051 -0.1733
23917SOL    HW183476   8.395  11.604   8.251  1.0417  0.8589  0.4327
23917SOL    HW283477   8.531  11.555   8.205  0.3793  0.3305 -1.0239
23918SOL     OW83478   0.733   0.228   7.995 -0.0519 -0.0611 -0.2794
23918SOL    HW183479   0.723   0.133   7.989  0.6776 -0.1702  0.1477
23918SOL    HW283480   0.664   0.255   8.056  0.6643 -0.5015  0.7511
23919SOL     OW83481   4.776   1.655   6.455 -0.4638 -0.0995  0.5869
23919SOL    HW183482   4.742   1.580   6.408 -1.9755  1.4072 -0.8770
23919SOL    HW283483   4.868   1.660   6.430 -0.9916  0.0956 -1.5174
23920SOL     OW83484   6.973   0.573   0.376  0.0773  0.4274  0.2222
23920SOL    HW183485   7.016   0.495   0.342 -3.1121 -1.2155 -0.4233
23920SOL    HW283486   7.001   0.579   0.467  1.4231 -0.6222 -0.0911
23921SOL     OW83487   4.483  10.974   3.447  0.2076  0.3182  0.1608
23921SOL    HW183488   4.420  11.035   3.485 -1.6993 -2.2568  1.4554
23921SOL    HW283489   4.448  10.954   3.360 -0.3441 -0.4360  0.5390
23922SOL     OW83490   6.432   5.830   6.102  0.1056  0.0847  0.2172
23922SOL    HW183491   6.513   5.864   6.141  0.3583 -0.4321  0.1429
23922SOL    HW283492   6.446   5.736   6.095 -1.4688 -0.4102  2.5338
23923SOL     OW83493   5.366   5.817   0.197 -0.3761 -0.0693  0.1704
23923SOL    HW183494   5.364   5.913   0.195  0.3384 -0.0600 -0.3745
23923SOL    HW283495   5.285   5.791   0.154  0.2476  0.3010 -1.3086
23924SOL     OW83496  12.399   4.593   1.466 -0.5207  0.5087  0.7017
23924SOL    HW183497  12.324   4.647   1.441 -1.8327 -1.7227 -0.6143
23924SOL    HW283498  12.415   4.538   1.390  4.4174  2.7404 -0.2095
23925SOL     OW83499  11.454  12.746   7.591 -0.6046 -0.0438 -0.1426
23925SOL    HW183500  11.394  12.751   7.666  0.2355 -0.7303  0.5899
23925SOL    HW283501  11.427  12.667   7.544  0.2627 -0.8429  0.6748
23926SOL     OW83502  13.728   6.352   9.963  0.0418  0.6040  0.2679
23926SOL    HW183503  13.753   6.429   9.912  0.5048  0.0691 -0.3283
23926SOL    HW283504  13.677   6.298   9.902  2.0840 -0.8731 -0.2375
23927SOL     OW83505  13.312   0.517   7.953  0.1680 -0.5559  0.5111
23927SOL    HW183506  13.405   0.497   7.953 -0.2283 -2.6192 -0.0086
23927SOL    HW283507  13.273   0.451   8.011 -0.9462  0.4131  0.9015
23928SOL     OW83508   9.876   7.265  11.955 -0.2290 -0.5550  0.2306
23928SOL    HW183509   9.796   7.303  11.992 -0.2782 -0.5276  0.0957
23928SOL    HW283510   9.945   7.287  12.018 -0.0968  0.4929 -0.2607
23929SOL     OW83511   9.549  11.580   9.997 -0.2205  0.0233  0.5667
23929SOL    HW183512   9.537  11.675  10.009 -1.0636 -0.0016  0.0378
23929SOL    HW283513   9.485  11.557   9.930  0.9886 -0.6752 -0.3730
23930SOL     OW83514   0.874   9.231   6.666 -0.1204  0.3747 -0.3334
23930SOL    HW183515   0.929   9.235   6.745 -0.8690  0.7077  0.1829
23930SOL    HW283516   0.935   9.248   6.594  0.3749  1.2331  0.2644
23931SOL     OW83517   4.076  12.335   0.937  0.9404 -0.3874  0.9784
23931SOL    HW183518   4.036  12.296   1.015  0.0471  0.1184  0.7918
23931SOL    HW283519   4.148  12.388   0.971 -0.0984  0.6752  1.5769
23932SOL     OW83520  10.210   8.517   4.759  0.1156 -0.3844  0.5348
23932SOL    HW183521  10.179   8.462   4.831 -2.2104  0.8974  0.5883
23932SOL    HW283522  10.243   8.596   4.801  0.0136 -0.2032  0.2780
23933SOL     OW83523   7.966   9.208   0.441  0.1853 -0.1456 -0.6106
23933SOL    HW183524   7.897   9.203   0.375 -1.0102 -2.1071  0.6359
23933SOL    HW283525   7.937   9.276   0.502  0.2141  0.2035 -0.9900
23934SOL     OW83526  12.097   2.683   2.841 -0.3692 -0.0013 -0.2976
23934SOL    HW183527  12.015   2.728   2.861 -0.0707  0.1488  0.6337
23934SOL    HW283528  12.070   2.604   2.793 -0.8401  1.6539 -2.9709
23935SOL     OW83529   9.265   7.990  13.064 -0.3533  0.4976  0.5219
23935SOL    HW183530   9.178   7.953  13.054  0.0257 -0.0836 -0.7349
23935SOL    HW283531   9.309   7.932  13.126 -0.6838  0.5164  0.7794
23936SOL     OW83532   8.049  10.158  10.596  0.2865 -0.1583  0.5757
23936SOL    HW183533   8.138  10.156  10.633  0.8783 -0.0496 -0.7880
23936SOL    HW283534   8.029  10.067  10.578  1.1029 -0.0016 -1.3136
23937SOL     OW83535   5.504   1.400   6.559  0.2964 -0.3422 -0.0106
23937SOL    HW183536   5.420   1.436   6.532  0.2836 -0.4017 -0.0518
23937SOL    HW283537   5.487   1.306   6.569  0.4351 -0.4003 -0.3212
23938SOL     OW83538   9.483   8.926   0.366 -0.3187  0.4279 -0.4443
23938SOL    HW183539   9.558   8.867   0.356 -0.9812 -0.5101 -0.0802
23938SOL    HW283540   9.458   8.917   0.458 -0.8654  0.7431 -0.5622
23939SOL     OW83541   0.528   1.456   1.173 -0.3769  0.0258 -0.4071
23939SOL    HW183542   0.602   1.405   1.141  0.5382  0.3267  1.1643
23939SOL    HW283543   0.566   1.535   1.211 -1.3401 -0.4262  1.6531
23940SOL     OW83544  12.823   1.500   8.594 -0.2832 -0.2982 -0.2928
23940SOL    HW183545  12.880   1.429   8.626  0.7833  0.4225 -0.5322
23940SOL    HW283546  12.799   1.473   8.506 -1.3417 -1.1860  0.2352
23941SOL     OW83547   9.320   1.553   9.946  0.8363  0.2606 -0.3215
23941SOL    HW183548   9.308   1.475   9.891  1.1636  0.3001 -0.4487
23941SOL    HW283549   9.234   1.568   9.984  1.2476 -1.5616  1.5540
23942SOL     OW83550   9.288   0.267   3.113 -0.1475  0.0677 -0.0951
23942SOL    HW183551   9.365   0.322   3.125  0.3787 -0.9291  1.3436
23942SOL    HW283552   9.317   0.200   3.050  0.7018 -1.1598  1.5051
23943SOL     OW83553  12.294   4.782   4.932 -0.3403 -0.0052  0.0744
23943SOL    HW183554  12.341   4.712   4.888 -1.6867 -1.0855  0.2844
23943SOL    HW283555  12.347   4.802   5.009  0.7466  0.1757 -0.7002
23944SOL     OW83556  12.711   6.125   1.997  0.6078 -0.2795  0.7596
23944SOL    HW183557  12.705   6.112   1.903  0.9620  1.1721  0.5036
23944SOL    HW283558  12.787   6.074   2.024  2.6459  1.9393 -0.3616
23945SOL     OW83559   9.514   7.089   5.762 -0.0853  0.1104 -0.1795
23945SOL    HW183560   9.440   7.034   5.734 -0.1379  0.6294 -1.0791
23945SOL    HW283561   9.512   7.084   5.858 -1.7279  0.6757 -0.1497
23946SOL     OW83562   3.212  13.114   0.666  0.0063 -0.5411 -0.4166
23946SOL    HW183563   3.273  13.103   0.739 -0.5353  0.4750  0.2193
23946SOL    HW283564   3.256  13.072   0.592 -0.2489 -3.2980  0.8595
23947SOL     OW83565  12.416   3.500   6.665 -0.1449  0.5187 -0.3578
23947SOL    HW183566  12.411   3.494   6.570  0.5622 -2.4076 -0.3166
23947SOL    HW283567  12.492   3.555   6.681  0.0316  0.6400 -1.5069
23948SOL     OW83568  10.235   2.711  11.874 -0.6045  0.0825 -0.2380
23948SOL    HW183569  10.255   2.627  11.916  0.8101  0.3982 -0.2455
23948SOL    HW283570  10.152   2.695  11.828 -0.5522 -1.1906  0.0632
23949SOL     OW83571   9.762  12.522   5.752  0.7973 -0.1096  0.1717
23949SOL    HW183572   9.840  12.488   5.794  0.8105 -0.1732  0.0947
23949SOL    HW283573   9.702  12.540   5.824  0.9619  0.1421  0.2482
23950SOL     OW83574   0.409  11.364   0.911  0.3719  0.0141 -0.4399
23950SOL    HW183575   0.349  11.343   0.982  1.2006  0.9148  0.5810
23950SOL    HW283576   0.489  11.314   0.931  1.5192  2.1577  0.7324
23951SOL     OW83577   2.154   9.552   9.219  0.4730 -0.6605  0.1746
23951SOL    HW183578   2.195   9.533   9.134  4.2982  0.0547  1.6422
23951SOL    HW283579   2.100   9.475   9.237 -0.4394 -0.8719 -2.7916
23952SOL     OW83580  11.497   5.240   6.157  0.6923 -0.2933 -0.4008
23952SOL    HW183581  11.408   5.275   6.164  0.8268 -0.2794  3.3900
23952SOL    HW283582  11.485   5.146   6.144  0.2217 -0.0656 -1.8229
23953SOL     OW83583   8.028   0.335   4.490  0.8235 -0.1628  0.4428
23953SOL    HW183584   8.059   0.247   4.467  0.0038 -1.3006  3.2313
23953SOL    HW283585   7.935   0.322   4.512  1.2677  0.7943  3.3660
23954SOL     OW83586   7.011   1.736   7.119 -0.0265 -0.0839  0.4615
23954SOL    HW183587   6.944   1.674   7.146 -1.4367  1.1931  0.0642
23954SOL    HW283588   7.059   1.757   7.199 -2.5442  1.7850  1.5997
23955SOL     OW83589   8.045   3.745  13.069 -0.1953  0.0243 -0.5517
23955SOL    HW183590   7.972   3.802  13.044 -1.7202 -1.3403  0.5661
23955SOL    HW283591   8.006   3.658  13.077  1.2882 -0.5481  1.2515
23956SOL     OW83592   3.027   3.854  11.001 -0.3356  0.4979 -0.2538
23956SOL    HW183593   2.942   3.821  10.975  0.3946 -0.8725 -1.0082
23956SOL    HW283594   3.087   3.821  10.934  1.0301  0.0365  1.1319
23957SOL     OW83595  10.081   9.867   5.645 -0.1137  0.3643  0.2852
23957SOL    HW183596  10.001   9.843   5.598 -0.1742  0.8115  0.1498
23957SOL    HW283597  10.050   9.903   5.728 -0.0473  0.4281  0.2822
23958SOL     OW83598   9.571   1.846   5.774 -0.2897  0.5693  0.1964
23958SOL    HW183599   9.628   1.908   5.729 -0.5047  1.1944  0.7669
23958SOL    HW283600   9.623   1.766   5.781 -0.2574  0.4451 -1.1569
23959SOL     OW83601   9.574  10.269   4.305 -0.1012 -0.0058 -0.1885
23959SOL    HW183602   9.518  10.268   4.228  0.4004 -0.0249 -0.5524
23959SOL    HW283603   9.621  10.186   4.302 -1.4582 -0.8813  1.1636
23960SOL     OW83604  11.619   6.046  11.552  0.7244 -0.1806  0.1793
23960SOL    HW183605  11.564   5.999  11.615 -0.3299  0.6955 -0.0449
23960SOL    HW283606  11.682   5.982  11.521  1.5516 -0.5483  2.4462
23961SOL     OW83607   1.261   5.035   1.508  0.2401 -0.0257  0.0717
23961SOL    HW183608   1.200   5.079   1.567  0.2011  0.0323 -0.0116
23961SOL    HW283609   1.248   4.941   1.526 -2.0644 -0.2022 -2.0489
23962SOL     OW83610   2.533   4.509  10.319  0.3118 -0.5696  0.5954
23962SOL    HW183611   2.499   4.561  10.246  0.5262  0.0120  0.9068
23962SOL    HW283612   2.455   4.484  10.369 -0.0143 -2.2950 -0.6603
23963SOL     OW83613   1.941  11.102   6.852 -0.2984 -0.3853 -0.6694
23963SOL    HW183614   2.024  11.076   6.892 -0.1217  1.0901 -0.0083
23963SOL    HW283615   1.875  11.082   6.918 -0.2194  0.3756 -0.3572
23964SOL     OW83616   7.417  11.709   0.379 -0.8940 -0.6862 -0.1679
23964SOL    HW183617   7.379  11.623   0.397  2.0655 -1.9648  0.6883
23964SOL    HW283618   7.417  11.754   0.463 -1.3447 -0.3268 -0.3590
23965SOL     OW83619   5.925   8.767   7.640 -0.3442 -0.4130  0.0716
23965SOL    HW183620   5.893   8.846   7.683 -0.6695 -0.7175  0.3981
23965SOL    HW283621   5.924   8.700   7.709  0.2989 -0.6088 -0.0990
23966SOL     OW83622   5.356  10.229  11.094 -0.5498  0.3329 -0.0462
23966SOL    HW183623   5.273  10.183  11.081 -1.4206  2.3903 -3.0511
23966SOL    HW283624   5.333  10.322  11.087  1.8931  1.0037 -0.3163
23967SOL     OW83625   4.402   0.466  12.087 -0.8535  0.1655 -0.5455
23967SOL    HW183626   4.467   0.477  12.157 -0.8341  0.7794 -0.6503
23967SOL    HW283627   4.383   0.373  12.086 -0.4611  0.0756 -0.0695
23968SOL     OW83628   4.595   9.374  11.205  0.0904  0.3202 -0.7975
23968SOL    HW183629   4.638   9.293  11.175  0.8677  0.8415 -1.1200
23968SOL    HW283630   4.600   9.433  11.130  0.2375  0.9436 -0.3051
23969SOL     OW83631   8.356   4.111  12.098  0.6014 -0.0700  0.0210
23969SOL    HW183632   8.303   4.143  12.024  0.9098 -1.8888 -1.0560
23969SOL    HW283633   8.291   4.087  12.164  0.2479  0.5115 -0.1062
23970SOL     OW83634   3.176  12.996   7.449 -0.0396  0.0251 -0.0740
23970SOL    HW183635   3.260  13.042   7.445 -0.4458  0.7680 -0.0862
23970SOL    HW283636   3.186  12.936   7.523  0.2066  0.7192  0.4711
23971SOL     OW83637  10.894  13.102   5.881  0.4063 -0.1842  0.1045
23971SOL    HW183638  10.892  13.028   5.942 -0.0105 -0.1746  0.1111
23971SOL    HW283639  10.904  13.179   5.937  0.1801 -0.1870  0.1502
23972SOL     OW83640   2.866  10.260  12.408 -0.1702  0.3440  0.4142
23972SOL    HW183641   2.931  10.206  12.362 -0.4385 -0.7594  1.2964
23972SOL    HW283642   2.889  10.350  12.385  0.9447 -0.0886 -0.2331
23973SOL     OW83643  12.549  12.455  11.803 -0.2554 -0.1404  0.2191
23973SOL    HW183644  12.537  12.549  11.796 -0.3516 -0.0733  1.0865
23973SOL    HW283645  12.502  12.418  11.728  0.6610  0.5448 -0.7121
23974SOL     OW83646  13.704   6.473   4.338  0.0377  0.0399 -0.5090
23974SOL    HW183647  13.789   6.516   4.347 -0.6406  1.1388  1.2372
23974SOL    HW283648  13.701   6.444   4.247  1.3447  1.9934 -1.2384
23975SOL     OW83649   2.766   8.170   4.379 -0.4580  0.4264  0.3046
23975SOL    HW183650   2.714   8.222   4.440 -0.2165 -0.6859  1.5004
23975SOL    HW283651   2.753   8.079   4.407  1.6621  0.0639  0.3397
23976SOL     OW83652  11.392  10.709   7.940 -0.1968 -0.4068  0.0670
23976SOL    HW183653  11.358  10.725   8.029 -0.8458 -1.8175  0.1046
23976SOL    HW283654  11.313  10.694   7.887  0.2476 -1.1717 -0.3973
23977SOL     OW83655   3.482   3.246   4.567  0.3306 -0.0337  0.1675
23977SOL    HW183656   3.526   3.263   4.650  0.1531  1.0003  0.0614
23977SOL    HW283657   3.545   3.273   4.500  1.2639 -2.6840 -0.1287
23978SOL     OW83658   7.810   0.022   8.042 -0.4083 -0.8291  0.3923
23978SOL    HW183659   7.843   0.060   8.123  0.3089  0.1647 -0.3448
23978SOL    HW283660   7.719   0.051   8.036  0.1073  0.7605 -0.1218
23979SOL     OW83661   1.430   2.202  11.282  0.2120 -0.1580  0.5821
23979SOL    HW183662   1.434   2.121  11.232  0.3337  0.2435 -0.0684
23979SOL    HW283663   1.405   2.269  11.218  1.8035  0.6337  0.7280
23980SOL     OW83664  11.234   8.694   4.871  0.3002 -0.9344  0.3042
23980SOL    HW183665  11.251   8.771   4.817 -0.4060  0.4314  1.9635
23980SOL    HW283666  11.292   8.704   4.947  1.3998 -2.9108 -0.1798
23981SOL     OW83667  11.012  11.485  13.021  0.0363  0.9328 -0.2285
23981SOL    HW183668  11.022  11.516  12.931 -0.0507 -0.1443 -0.6303
23981SOL    HW283669  11.088  11.429  13.036 -1.2729 -1.0492 -0.5917
23982SOL     OW83670  12.595   0.903   3.881 -0.1539  0.0905  0.2076
23982SOL    HW183671  12.670   0.935   3.932 -0.5050  1.5739 -0.1665
23982SOL    HW283672  12.529   0.972   3.890 -1.3307 -0.9989  0.1709
23983SOL     OW83673   5.020  12.880   4.217 -0.0250  0.1982  0.2242
23983SOL    HW183674   4.954  12.901   4.152 -0.1579 -1.9598 -0.4260
23983SOL    HW283675   5.098  12.859   4.166  0.8579  1.6039  0.9363
23984SOL     OW83676   8.445   0.441   9.610  0.2228  0.4731  0.3790
23984SOL    HW183677   8.433   0.532   9.638  0.5642  0.3057  1.0895
23984SOL    HW283678   8.525   0.413   9.653  0.4270  0.0027 -0.2872
23985SOL     OW83679  11.004  11.184   3.228 -0.1175 -0.3692  0.0008
23985SOL    HW183680  10.928  11.135   3.196  0.5929 -0.9331 -0.8716
23985SOL    HW283681  11.077  11.152   3.175  0.5465  0.9232  0.0978
23986SOL     OW83682   6.356   3.713  10.289 -0.7258 -0.0956  0.1613
23986SOL    HW183683   6.368   3.636  10.344  1.6372  0.3661  0.4022
23986SOL    HW283684   6.275   3.753  10.322 -1.0090 -1.4604  1.2440
23987SOL     OW83685  10.588   9.184   4.759  0.1630 -0.1475 -0.3690
23987SOL    HW183686  10.569   9.090   4.754 -2.5744  0.2799  0.1382
23987SOL    HW283687  10.543   9.221   4.684 -0.2247  0.9185  0.3695
23988SOL     OW83688   1.308   4.777   8.616 -0.1377  0.3766  0.6663
23988SOL    HW183689   1.391   4.734   8.637 -0.4442 -0.2262  0.6504
23988SOL    HW283690   1.334   4.865   8.588  0.6421 -0.3102 -0.9303
23989SOL     OW83691   3.503   7.491   3.513  0.4687  0.0171  0.2731
23989SOL    HW183692   3.472   7.577   3.484  0.3731 -0.2142 -0.3287
23989SOL    HW283693   3.444   7.429   3.469  1.2311 -0.3980 -0.1863
23990SOL     OW83694   5.439   8.153   6.623  0.1567  0.2562  0.5397
23990SOL    HW183695   5.427   8.108   6.707  0.8632  0.1114  0.5645
23990SOL    HW283696   5.531   8.179   6.623  0.4759 -0.7970 -0.7197
23991SOL     OW83697   0.280   1.128   5.267 -0.2239  0.1528  0.2341
23991SOL    HW183698   0.304   1.036   5.256  0.7478  0.1250  2.1221
23991SOL    HW283699   0.353   1.166   5.315 -1.3783  1.5077  0.9862
23992SOL     OW83700  11.446   5.626   4.714 -0.4604 -0.1523 -0.1749
23992SOL    HW183701  11.485   5.598   4.631 -2.4439  1.1577 -1.6562
23992SOL    HW283702  11.520   5.653   4.768  0.8041  1.4168 -2.5131
23993SOL     OW83703  10.749   5.864   7.961  0.1536  0.4418  0.0768
23993SOL    HW183704  10.727   5.941   7.908  0.5652  0.2058 -0.4370
23993SOL    HW283705  10.783   5.800   7.899  0.0276 -0.0775  0.5353
23994SOL     OW83706   1.478   2.458   6.183  0.2266 -0.4294 -0.1947
23994SOL    HW183707   1.519   2.388   6.132  3.2809  0.8298  0.3154
23994SOL    HW283708   1.497   2.538   6.134 -0.6853  0.3470  0.6768
23995SOL     OW83709   2.775   1.866   7.743 -0.4827 -0.4158  0.4361
23995SOL    HW183710   2.726   1.830   7.669  0.3570  0.6691 -0.6886
23995SOL    HW283711   2.766   1.800   7.812 -0.5471 -1.8894 -0.9201
23996SOL     OW83712   3.174  13.632  11.335  0.4407  0.4308 -0.3109
23996SOL    HW183713   3.246  13.694  11.337  0.6109  0.2192  0.5117
23996SOL    HW283714   3.169  13.598  11.424  1.0492 -1.5136 -0.9569
23997SOL     OW83715  12.973  13.365  12.297  0.1027 -0.5150 -0.6152
23997SOL    HW183716  13.068  13.353  12.303  0.0650 -1.0585 -0.9964
23997SOL    HW283717  12.938  13.276  12.301 -0.5005 -0.2280  1.2542
23998SOL     OW83718   6.008   0.846   4.783 -0.6409  0.1589  0.2730
23998SOL    HW183719   6.091   0.866   4.825  0.0482  2.0644 -1.8087
23998SOL    HW283720   5.945   0.905   4.825 -0.2910  0.8921 -0.2150
23999SOL     OW83721   8.844   0.098  11.865 -0.0611  0.2257 -0.3681
23999SOL    HW183722   8.908   0.075  11.932 -0.3965 -0.8684 -0.4063
23999SOL    HW283723   8.891   0.157  11.806  0.6645  0.0765  0.0455
24000SOL     OW83724   1.888   3.399  11.480 -0.1002  0.1194  0.0851
24000SOL    HW183725   1.827   3.393  11.407  0.3396  2.6009 -0.5912
24000SOL    HW283726   1.846   3.458  11.542  0.2527 -0.6581  1.0873
24001SOL     OW83727   9.836   3.146   1.368  0.0021  0.7006  0.1670
24001SOL    HW183728   9.871   3.230   1.398 -1.8843  1.3560  0.7243
24001SOL    HW283729   9.751   3.139   1.411  0.2706 -1.7201  0.4575
24002SOL     OW83730   9.898   9.463   6.258  0.3146  0.3925 -0.0100
24002SOL    HW183731   9.940   9.414   6.328 -0.6186  0.2875  0.4879
24002SOL    HW283732   9.945   9.436   6.179 -0.3810 -1.5723  0.1947
24003SOL     OW83733  11.216   8.359   2.301  0.5964  0.2989 -0.1961
24003SOL    HW183734  11.121   8.362   2.291  0.4446  0.9235  1.2162
24003SOL    HW283735  11.239   8.267   2.287 -0.5294 -0.3481  1.7317
24004SOL     OW83736   8.977   1.344   3.863  1.0478 -0.2619  0.4330
24004SOL    HW183737   9.017   1.430   3.877  0.7378 -0.2453  1.2433
24004SOL    HW283738   9.039   1.282   3.899  1.3992 -0.4139 -0.3989
24005SOL     OW83739   1.595   3.697  12.170 -0.2510 -0.1652  0.2219
24005SOL    HW183740   1.515   3.750  12.163  0.8226  1.5052  0.3076
24005SOL    HW283741   1.578   3.640  12.245 -1.1616  0.5128  0.5567
24006SOL     OW83742   9.836   9.616   8.474  0.1605  0.5954  0.6309
24006SOL    HW183743   9.818   9.532   8.432  0.3439 -0.7376  3.0414
24006SOL    HW283744   9.767   9.674   8.443 -0.1562 -0.5107 -0.8428
24007SOL     OW83745   5.898  11.984  10.905  0.3394  0.2310  0.0018
24007SOL    HW183746   5.824  11.958  10.850  0.7261  2.8331 -1.9359
24007SOL    HW283747   5.865  11.978  10.994 -1.4259 -0.9279 -0.6753
24008SOL     OW83748   9.593   8.683   1.317  0.5785 -0.3272 -0.2902
24008SOL    HW183749   9.592   8.743   1.243  1.0013 -0.0167 -0.0468
24008SOL    HW283750   9.557   8.601   1.282  2.8554 -0.9112 -1.4718
24009SOL     OW83751   1.017   1.116   0.742 -0.0390 -0.6668  0.7371
24009SOL    HW183752   0.982   1.042   0.692  1.6192  0.4571 -2.3293
24009SOL    HW283753   1.102   1.086   0.774 -0.6049 -0.9833  2.0493
24010SOL     OW83754   3.625   3.794   6.187 -0.3090  0.3531 -0.2795
24010SOL    HW183755   3.559   3.853   6.223 -1.0008 -0.6610  0.1452
24010SOL    HW283756   3.599   3.707   6.217  0.2653 -0.2701 -1.5333
24011SOL     OW83757   2.088   3.696   4.298 -0.2328  0.5221 -0.3413
24011SOL    HW183758   2.176   3.661   4.307 -0.3235  0.7728  2.0427
24011SOL    HW283759   2.100   3.784   4.262  0.6067  0.9765  0.9881
24012SOL     OW83760   8.911   8.664   3.597  0.1829 -0.2142 -0.2495
24012SOL    HW183761   8.861   8.655   3.516  0.9173  1.0076 -0.8806
24012SOL    HW283762   8.868   8.736   3.644  0.6051  0.0406 -0.2405
24013SOL     OW83763   7.485   6.164  10.973 -0.1887 -0.4289  0.2150
24013SOL    HW183764   7.448   6.139  11.058 -0.8187 -0.1621  0.0298
24013SOL    HW283765   7.564   6.213  10.995  0.6800 -1.9407  0.5940
24014SOL     OW83766  11.694  11.701   1.097 -0.2216 -0.0789  0.4808
24014SOL    HW183767  11.661  11.791   1.102 -2.4042 -0.7595 -0.6912
24014SOL    HW283768  11.652  11.656   1.171 -0.9668 -0.6518 -0.2709
24015SOL     OW83769   9.425  12.685  12.258 -0.7473 -0.1498  0.1713
24015SOL    HW183770   9.476  12.716  12.183 -2.3980  1.4342 -0.4091
24015SOL    HW283771   9.454  12.595  12.272  1.8012  0.5052 -0.3840
24016SOL     OW83772   5.689   1.080  13.588 -0.4931 -0.0659 -0.4380
24016SOL    HW183773   5.632   1.118  13.655  1.4265  2.1165  0.0708
24016SOL    HW283774   5.670   1.130  13.509 -0.0523 -0.0776 -0.5533
24017SOL     OW83775  10.248   1.718  12.689  1.0006  0.3962 -0.3392
24017SOL    HW183776  10.302   1.669  12.751 -1.6175 -1.4289  0.7102
24017SOL    HW283777  10.190   1.652  12.650 -0.3357  2.1592 -1.5419
24018SOL     OW83778   9.203   6.817   2.031 -0.2730 -0.4057  0.2113
24018SOL    HW183779   9.264   6.886   2.004 -3.0037  1.5119 -1.5144
24018SOL    HW283780   9.182   6.771   1.950 -1.4941 -0.7119  0.6827
24019SOL     OW83781   1.111   1.050  13.393  0.6874  0.3427  0.3313
24019SOL    HW183782   1.146   0.965  13.418  1.9493  1.1166  1.2816
24019SOL    HW283783   1.180   1.113  13.416  0.0301  1.5703 -0.8934
24020SOL     OW83784   4.773   8.669  11.354  0.2622  0.4161  0.0663
24020SOL    HW183785   4.810   8.704  11.435 -2.4834  1.9973  0.7481
24020SOL    HW283786   4.749   8.746  11.303  1.8704 -0.5311 -2.3318
24021SOL     OW83787   3.210   6.582  10.605  0.3353  0.0652 -0.0247
24021SOL    HW183788   3.189   6.493  10.635  1.2644  0.0544  0.6429
24021SOL    HW283789   3.245   6.568  10.516  0.5354 -0.2473  0.0990
24022SOL     OW83790   4.059   1.553  11.954 -0.5492 -0.4367  0.0058
24022SOL    HW183791   4.113   1.570  12.031 -0.8864  0.0481  0.1384
24022SOL    HW283792   4.122   1.530  11.885 -0.2650 -1.1520  0.4914
24023SOL     OW83793   9.332   4.241   2.949  0.3693 -0.1354  0.1645
24023SOL    HW183794   9.372   4.251   2.862 -0.3299 -1.9129 -0.4036
24023SOL    HW283795   9.243   4.210   2.931  0.1099 -0.2153  1.5125
24024SOL     OW83796   9.356   7.575   6.533  0.3085 -0.0080  0.1594
24024SOL    HW183797   9.437   7.596   6.486  0.4698 -0.2178  0.3405
24024SOL    HW283798   9.374   7.597   6.624  0.3964 -0.6901  0.3111
24025SOL     OW83799  10.341   2.712  11.509 -0.1009 -0.5629 -0.2116
24025SOL    HW183800  10.381   2.701  11.423 -1.3852  0.8908 -1.0564
24025SOL    HW283801  10.251   2.739  11.489 -0.5702 -0.6985  1.6026
24026SOL     OW83802  12.581   6.114   2.250 -0.1611 -0.2371  0.3053
24026SOL    HW183803  12.614   6.131   2.162 -0.2829  0.0933  0.3218
24026SOL    HW283804  12.591   6.019   2.262  0.2160 -0.2267  0.0852
24027SOL     OW83805  11.887   1.758   6.557  0.1169 -0.3082 -0.0105
24027SOL    HW183806  11.884   1.725   6.647 -0.1784 -1.7799 -0.5320
24027SOL    HW283807  11.888   1.853   6.567 -0.2922 -0.4299  1.5382
24028SOL     OW83808  11.376   7.107   2.322 -0.0965  0.8069  0.5041
24028SOL    HW183809  11.396   7.080   2.412  0.5502  0.8074  0.3641
24028SOL    HW283810  11.333   7.193   2.332 -0.0569  0.7937  0.8107
24029SOL     OW83811   8.782   7.954   6.293 -0.0649  0.1359 -0.3126
24029SOL    HW183812   8.728   8.032   6.277 -0.3650 -0.1418 -0.6608
24029SOL    HW283813   8.852   7.986   6.350 -1.1463  0.2909  1.0010
24030SOL     OW83814  13.132  12.938   8.360  0.5196 -0.2008  0.3542
24030SOL    HW183815  13.226  12.926   8.376  0.6103 -0.1754 -0.1404
24030SOL    HW283816  13.101  12.850   8.340  0.2537 -0.3590  1.4308
24031SOL     OW83817  11.538   1.287   1.398 -0.3186 -0.0201  0.1721
24031SOL    HW183818  11.550   1.218   1.464 -0.0496 -0.6298 -0.4984
24031SOL    HW283819  11.569   1.247   1.317  0.4708  1.1264 -0.1092
24032SOL     OW83820   8.128   4.075   2.040  0.4398 -0.0815  0.5843
24032SOL    HW183821   8.135   4.121   1.957 -0.2499 -0.4303  0.3317
24032SOL    HW283822   8.218   4.072   2.073  0.4142  2.1186  0.9923
24033SOL     OW83823  12.815   9.156  10.079  0.2702 -0.0458  0.2339
24033SOL    HW183824  12.731   9.188  10.047 -0.0313  1.9042  2.6468
24033SOL    HW283825  12.874   9.163  10.004 -1.3266  0.0655 -1.0650
24034SOL     OW83826   3.995  12.396   1.257 -0.2639 -0.7964 -0.6204
24034SOL    HW183827   4.012  12.302   1.252 -0.3591 -0.8518 -0.0117
24034SOL    HW283828   4.017  12.419   1.348 -1.5793 -0.5016 -0.3544
24035SOL     OW83829  11.257   9.594   9.595  0.3505 -0.0005 -0.9254
24035SOL    HW183830  11.283   9.650   9.521  0.4116 -0.4500 -1.2507
24035SOL    HW283831  11.163   9.610   9.604  0.2404 -0.3362 -1.4439
24036SOL     OW83832  10.956   5.404  10.818 -0.2398 -0.1663  0.2760
24036SOL    HW183833  10.963   5.500  10.813  0.9656 -0.2484 -0.0757
24036SOL    HW283834  11.046   5.374  10.807 -0.5019 -1.3195  1.1889
24037SOL     OW83835   7.308   8.179   0.289  0.4406 -0.6805 -0.0399
24037SOL    HW183836   7.253   8.225   0.226  4.9929  3.2364 -1.7179
24037SOL    HW283837   7.293   8.225   0.372  1.6510  0.9937 -0.6940
24038SOL     OW83838  10.085   6.081   3.439 -0.3013 -0.4813 -0.0986
24038SOL    HW183839   9.998   6.044   3.452 -0.6696  0.5481  0.5294
24038SOL    HW283840  10.130   6.066   3.523  0.1901 -1.1628 -0.4781
24039SOL     OW83841   3.207   1.240   9.786  0.0936 -0.8889 -0.2706
24039SOL    HW183842   3.200   1.202   9.699 -0.5793 -0.4673 -0.4103
24039SOL    HW283843   3.155   1.321   9.781  1.5617  0.1186 -0.0241
24040SOL     OW83844   4.724   2.360  10.101  0.0860  0.0868 -0.7065
24040SOL    HW183845   4.677   2.343  10.183  2.5124 -0.9549  0.5806
24040SOL    HW283846   4.719   2.455  10.090 -0.8326  0.1705  0.2982
24041SOL     OW83847   9.808  10.433   4.595 -0.1544  0.4656  0.0424
24041SOL    HW183848   9.838  10.417   4.505  0.7575  0.9462  0.2463
24041SOL    HW283849   9.733  10.375   4.606  1.0649 -1.2459 -0.3158
24042SOL     OW83850  13.645   1.505   3.681  0.1335 -0.6532  0.0964
24042SOL    HW183851  13.738   1.521   3.666 -0.2196  0.4256 -1.1665
24042SOL    HW283852  13.613   1.587   3.717 -0.7892 -0.0545 -1.9109
24043SOL     OW83853   4.274   2.366  11.409 -0.0403  0.6754 -0.3263
24043SOL    HW183854   4.266   2.420  11.488 -0.1887 -2.1728  1.7620
24043SOL    HW283855   4.189   2.324  11.400  1.5365 -3.5016  1.6515
24044SOL     OW83856   5.144   7.096  12.791 -0.1946 -0.0884 -0.3562
24044SOL    HW183857   5.158   7.178  12.837  1.1197 -0.8751  0.6843
24044SOL    HW283858   5.116   7.123  12.703  0.3810  1.4680 -0.0932
24045SOL     OW83859  13.491   4.887   1.789  0.0326 -0.2725 -0.4562
24045SOL    HW183860  13.492   4.979   1.816  0.1397  0.1060 -1.7068
24045SOL    HW283861  13.515   4.839   1.868 -1.5124  0.6497  0.6371
24046SOL     OW83862  11.490   3.949   6.672  0.3433 -0.2019 -0.4307
24046SOL    HW183863  11.473   4.038   6.641  0.7602 -0.6196 -1.9220
24046SOL    HW283864  11.449   3.946   6.759  0.0880  1.3471 -0.4660
24047SOL     OW83865   4.620   1.069   4.143  0.5530  0.4021  0.0117
24047SOL    HW183866   4.587   1.062   4.053 -5.6829 -2.0940  1.9889
24047SOL    HW283867   4.650   0.981   4.165  0.4440  0.5684  0.8583
24048SOL     OW83868   2.788   4.134   8.170 -0.0943 -0.0891  0.7672
24048SOL    HW183869   2.706   4.168   8.207 -0.1788 -0.0672  0.5634
24048SOL    HW283870   2.770   4.042   8.153  0.3751 -0.4317  2.0121
24049SOL     OW83871   5.887  10.828   5.709  0.6887  0.4002 -0.4397
24049SOL    HW183872   5.957  10.804   5.648  0.1637  1.3566 -1.4586
24049SOL    HW283873   5.809  10.832   5.654  0.2778  1.7095  0.2124
24050SOL     OW83874   8.133   1.267   3.033 -0.5339 -0.5103  0.3860
24050SOL    HW183875   8.087   1.350   3.049  0.0183 -0.3484  1.1956
24050SOL    HW283876   8.195   1.287   2.963 -0.6747 -0.3414  0.3091
24051SOL     OW83877  10.329   2.699   3.145  0.2012 -0.4471  0.1985
24051SOL    HW183878  10.405   2.641   3.151  1.0606  0.7272  0.9484
24051SOL    HW283879  10.364   2.782   3.113 -0.5379  0.5095  1.7617
24052SOL     OW83880  13.297  11.492   7.247 -0.6134 -0.2004  0.2850
24052SOL    HW183881  13.375  11.454   7.286 -0.7095  0.2306  0.9228
24052SOL    HW283882  13.266  11.554   7.313 -1.5809 -0.4857  0.1149
24053SOL     OW83883   2.341   7.082  12.645 -0.1983  0.3305 -0.1159
24053SOL    HW183884   2.381   7.166  12.665  1.0376 -0.4271  0.7319
24053SOL    HW283885   2.393   7.047  12.572  0.1169 -0.2359  0.3658
24054SOL     OW83886   1.389   1.446   1.313 -0.8035  0.8636  0.0191
24054SOL    HW183887   1.409   1.539   1.329  0.1902  0.6677 -0.0517
24054SOL    HW283888   1.311   1.430   1.366 -1.4924  1.9551 -0.6238
24055SOL     OW83889   8.085  13.704   3.792 -0.3092  0.2850  0.2059
24055SOL    HW183890   8.124  13.682   3.707 -1.0670  1.1309 -0.3839
24055SOL    HW283891   8.150  13.677   3.856  1.2951  1.7167 -0.7408
24056SOL     OW83892   1.702   3.073   8.549  0.2302 -0.5412 -0.1985
24056SOL    HW183893   1.744   2.988   8.566  1.4273  0.0710  0.0519
24056SOL    HW283894   1.776   3.134   8.540 -0.6173  0.6765  0.7271
24057SOL     OW83895   2.023   8.582  10.155  0.7335 -0.5161 -0.3423
24057SOL    HW183896   2.092   8.645  10.175 -0.3652  1.0539 -1.3236
24057SOL    HW283897   2.067   8.497  10.161  2.6838  0.4065 -0.6629
24058SOL     OW83898   2.118   1.335   8.563  0.0650 -0.2409  0.1367
24058SOL    HW183899   2.080   1.341   8.651 -0.5131 -1.7648  0.0225
24058SOL    HW283900   2.160   1.420   8.549 -0.7187  0.4005  1.4726
24059SOL     OW83901   5.739  10.243   0.850  0.4963 -0.3335  0.1252
24059SOL    HW183902   5.777  10.297   0.919  0.5551 -1.8649  1.3409
24059SOL    HW283903   5.699  10.306   0.790 -0.1434  1.0455  1.9029
24060SOL     OW83904  11.028  13.079   0.052  0.4757  0.0125  0.2499
24060SOL    HW183905  11.018  12.985   0.064 -0.8168 -0.4822 -3.4152
24060SOL    HW283906  10.940  13.114   0.061  0.3066  0.2655 -1.8263
24061SOL     OW83907   7.748   4.194   6.211  0.7033  0.3772 -0.1852
24061SOL    HW183908   7.821   4.136   6.188  0.2892 -0.8231  1.3429
24061SOL    HW283909   7.672   4.155   6.168  0.0714 -1.4276  2.3309
24062SOL     OW83910  11.459  12.106   9.371  0.4399  0.2003 -0.3942
24062SOL    HW183911  11.441  12.016   9.398  1.2311  0.7951  2.4391
24062SOL    HW283912  11.536  12.099   9.315 -0.7135 -1.0258 -1.9207
24063SOL     OW83913   4.289   8.188   0.937 -0.1334  0.0643 -0.3103
24063SOL    HW183914   4.248   8.234   0.864  0.4103 -1.4744 -1.6453
24063SOL    HW283915   4.373   8.233   0.950  0.0813 -0.0931 -1.1213
24064SOL     OW83916   0.635   1.535   7.261  0.0541  0.7432 -0.2953
24064SOL    HW183917   0.561   1.484   7.295  0.1547  0.2799 -0.7618
24064SOL    HW283918   0.604   1.569   7.178  0.2409  0.8446 -0.3235
24065SOL     OW83919   5.179   3.606   9.776 -0.3040  0.1042  0.1599
24065SOL    HW183920   5.225   3.599   9.693 -0.6663  0.5031 -0.0746
24065SOL    HW283921   5.248   3.622   9.841 -0.2428  2.7403 -0.4396
24066SOL     OW83922   2.859   5.736   4.707  0.4049  0.3409  0.1398
24066SOL    HW183923   2.854   5.832   4.712 -2.8157  0.3714 -1.1306
24066SOL    HW283924   2.820   5.706   4.789 -2.1684  0.2459 -1.0372
24067SOL     OW83925   1.964   6.242   5.857 -0.0482 -0.1335 -0.2908
24067SOL    HW183926   1.997   6.249   5.767 -0.8117  0.4002 -0.5396
24067SOL    HW283927   1.926   6.154   5.862  0.2551 -0.2725 -0.3975
24068SOL     OW83928   5.139   8.462   8.632 -0.2752  0.0665  0.0399
24068SOL    HW183929   5.139   8.480   8.538 -1.0627 -1.6854 -0.3302
24068SOL    HW283930   5.078   8.526   8.669  0.8308  1.4796 -0.4302
24069SOL     OW83931   9.514  12.935   2.712  0.6434  0.2794 -0.2435
24069SOL    HW183932   9.576  13.003   2.686 -0.1672  1.3382  0.4905
24069SOL    HW283933   9.448  12.934   2.644 -0.2396  1.4303  0.5613
24070SOL     OW83934  10.928   7.279   9.662  0.3135  0.9179 -0.0919
24070SOL    HW183935  11.020   7.259   9.647  0.7310  3.1462 -0.7672
24070SOL    HW283936  10.907   7.231   9.743  1.5817 -0.8977 -0.7766
24071SOL     OW83937  12.752   4.280   0.587  0.1701  0.0056  0.1117
24071SOL    HW183938  12.833   4.250   0.545  0.6294  0.1587  0.8634
24071SOL    HW283939  12.770   4.273   0.681 -0.9182 -0.5696  0.2920
24072SOL     OW83940   7.267   9.282  11.249  0.1365 -0.3607  0.5408
24072SOL    HW183941   7.335   9.215  11.258  0.0979 -0.5537 -0.4856
24072SOL    HW283942   7.311   9.364  11.269  0.3412 -0.6198  1.1800
24073SOL     OW83943   7.934   8.757  11.897 -0.1753 -0.4433 -1.0039
24073SOL    HW183944   7.904   8.677  11.939  1.9925  0.4809  2.7230
24073SOL    HW283945   7.870   8.824  11.924  0.9348  0.0488  0.5352
24074SOL     OW83946  13.379   2.129   7.871  0.0527  0.1666 -1.0007
24074SOL    HW183947  13.464   2.096   7.842  0.5093 -0.8857  1.3213
24074SOL    HW283948  13.317   2.095   7.807  1.2572  0.2742 -2.2748
24075SOL     OW83949   4.789   9.473   5.191 -0.2653  0.7811 -0.2292
24075SOL    HW183950   4.735   9.533   5.139  3.0036  2.3108 -2.1406
24075SOL    HW283951   4.830   9.528   5.258 -0.6277 -0.2539  0.8933
24076SOL     OW83952   3.195   4.332   8.401 -0.0425 -0.3947 -0.6465
24076SOL    HW183953   3.215   4.423   8.419 -1.5223  0.5389 -3.2896
24076SOL    HW283954   3.151   4.301   8.481  0.8334  1.0324  0.4287
24077SOL     OW83955   3.153  10.960  11.040  0.0818  0.0537 -0.6584
24077SOL    HW183956   3.198  11.042  11.065 -0.7178  0.1999  0.3631
24077SOL    HW283957   3.060  10.983  11.040 -0.1791 -0.9305 -0.0142
24078SOL     OW83958  11.907   7.373   1.398  0.2712 -0.4101 -0.3414
24078SOL    HW183959  11.965   7.355   1.324  0.3007  1.5364 -0.8451
24078SOL    HW283960  11.832   7.315   1.385  1.1047 -1.3957 -0.8673
24079SOL     OW83961   8.599   9.801   4.010 -0.3467 -0.0502 -0.2208
24079SOL    HW183962   8.623   9.741   4.081  0.4664  0.3897 -0.1115
24079SOL    HW283963   8.644   9.765   3.933 -1.4934 -0.7151 -0.5989
24080SOL     OW83964   3.757   1.636   9.988 -0.0219 -0.3550  0.3638
24080SOL    HW183965   3.699   1.563  10.011 -1.1292  0.0650 -0.9306
24080SOL    HW283966   3.826   1.596   9.935  0.0685 -0.6418  0.6962
24081SOL     OW83967   1.652   7.246  13.619  0.0675 -1.1033 -0.0308
24081SOL    HW183968   1.666   7.156  13.648  1.7422 -0.7979  0.1749
24081SOL    HW283969   1.735   7.290  13.634 -1.0792  0.8486  1.1172
24082SOL     OW83970   1.878   9.874   9.266  0.2693 -0.2534 -0.2105
24082SOL    HW183971   1.876   9.793   9.318 -0.9922  0.6876  1.2752
24082SOL    HW283972   1.971   9.895   9.259  0.8484 -2.9535 -2.5358
24083SOL     OW83973  11.817   9.328   5.807 -0.6810  0.2656 -0.0490
24083SOL    HW183974  11.907   9.345   5.781 -0.0563 -3.2808 -0.6051
24083SOL    HW283975  11.823   9.298   5.898 -1.5396  1.4516  0.4348
24084SOL     OW83976   8.194  11.964  13.357  0.6022  0.7213 -0.2706
24084SOL    HW183977   8.249  11.974  13.435 -0.5427  0.2658  0.6180
24084SOL    HW283978   8.230  11.887  13.313  0.2955  0.0331  0.6469
24085SOL     OW83979   0.429   8.537  10.720  0.4630 -0.9039 -0.1689
24085SOL    HW183980   0.361   8.601  10.700 -0.5973 -1.9211  0.0896
24085SOL    HW283981   0.382   8.455  10.735  1.6980 -1.5160  0.5701
24086SOL     OW83982   8.568   0.227   8.573  0.0527 -0.2566  0.7274
24086SOL    HW183983   8.619   0.305   8.597  0.2727 -0.3676  0.6256
24086SOL    HW283984   8.550   0.184   8.657 -0.3371  0.0665  0.8108
24087SOL     OW83985   4.008   1.134   3.686  0.1786  0.3756  0.4591
24087SOL    HW183986   3.956   1.213   3.700 -0.0447  0.0063  1.8503
24087SOL    HW283987   4.064   1.155   3.611 -0.4024  1.5735  0.3414
24088SOL     OW83988  11.519   1.313   0.591 -0.1778  0.4528 -0.1083
24088SOL    HW183989  11.605   1.355   0.586 -0.0276  0.3418  1.3529
24088SOL    HW283990  11.471   1.363   0.657 -0.0315 -1.5231  1.5945
24089SOL     OW83991   9.084  10.176   0.642  0.0399  0.5572 -0.4476
24089SOL    HW183992   9.112  10.259   0.679 -1.1681  0.6641  0.2723
24089SOL    HW283993   9.005  10.197   0.593 -0.1662 -0.1274 -0.4187
24090SOL     OW83994  10.904   0.673  10.055  0.6239 -0.5128  0.9182
24090SOL    HW183995  10.845   0.635  10.120  0.1010 -0.2760  0.5823
24090SOL    HW283996  10.864   0.757  10.031  0.1415 -1.1608 -0.6416
24091SOL     OW83997   8.787   8.588   8.232 -0.2710 -0.0546  0.2083
24091SOL    HW183998   8.858   8.566   8.172 -0.3939  1.0439 -0.3694
24091SOL    HW283999   8.734   8.508   8.236 -0.4314 -0.0698 -1.3993
24092SOL     OW84000   8.417   1.941   9.648 -0.1242 -0.0496  0.6838
24092SOL    HW184001   8.344   1.993   9.614 -0.1037 -0.3216  0.2266
24092SOL    HW284002   8.494   1.980   9.608 -0.1093 -0.4404  0.3362
24093SOL     OW84003   3.549   6.480  11.437 -0.6061  0.0511  0.1181
24093SOL    HW184004   3.483   6.445  11.496 -0.0075  0.6988  1.2069
24093SOL    HW284005   3.632   6.447  11.471 -0.0820  2.0014  0.8287
24094SOL     OW84006  12.630  10.372   3.369 -0.4008 -0.1919  0.0910
24094SOL    HW184007  12.683  10.354   3.447 -1.6432  0.4690  1.1186
24094SOL    HW284008  12.578  10.293   3.357 -0.2843 -0.2539 -0.0190
24095SOL     OW84009   7.576   9.887   7.884  0.7183  0.2571  0.4603
24095SOL    HW184010   7.510   9.955   7.899  2.1366  1.4366  1.6929
24095SOL    HW284011   7.528   9.816   7.840 -0.9756  1.7353 -0.2181
24096SOL     OW84012  12.844   0.396  12.872 -0.6161  0.2962 -0.2686
24096SOL    HW184013  12.870   0.484  12.846 -1.2815  0.1960 -1.3483
24096SOL    HW284014  12.847   0.397  12.968 -0.9329  1.5780 -0.2569
24097SOL     OW84015  10.733   9.742   9.574  0.2695  0.5062 -0.4065
24097SOL    HW184016  10.698   9.718   9.660  1.5994  1.5111  0.4648
24097SOL    HW284017  10.707   9.670   9.517  2.7424 -2.3438  1.6941
24098SOL     OW84018   7.849  12.127   8.566  0.1974  0.7307  0.0069
24098SOL    HW184019   7.857  12.032   8.554  0.5699  0.5920  1.2173
24098SOL    HW284020   7.755  12.142   8.575  0.0662  0.6004 -1.0720
24099SOL     OW84021   5.875  12.035   8.572  0.1184  0.6293 -0.2215
24099SOL    HW184022   5.970  12.041   8.556  0.1314 -0.6633 -0.7270
24099SOL    HW284023   5.836  12.036   8.485 -0.4379  2.2918  0.0169
24100SOL     OW84024   6.037   0.464   5.189  0.0001  0.3812 -0.0845
24100SOL    HW184025   5.996   0.482   5.104  0.8481 -1.1630 -0.8607
24100SOL    HW284026   6.019   0.371   5.205 -0.8971  0.8279  1.8806
24101SOL     OW84027   7.412   3.610   1.309 -0.0750 -0.7204 -0.0077
24101SOL    HW184028   7.480   3.604   1.242  1.7982 -0.0546  1.7678
24101SOL    HW284029   7.332   3.581   1.263  1.2641 -1.1123 -2.2703
24102SOL     OW84030  13.696   3.217   6.088  0.2198  0.5230  0.0492
24102SOL    HW184031  13.713   3.239   5.996  0.1551  2.0492  0.3751
24102SOL    HW284032  13.717   3.124   6.094  1.5326  0.6931 -1.2077
24103SOL     OW84033   0.889   6.522   9.260 -0.2314  0.6264 -0.7583
24103SOL    HW184034   0.922   6.459   9.196  0.5957  0.9887 -0.6980
24103SOL    HW284035   0.968   6.557   9.302 -0.7599 -0.0036  0.8543
24104SOL     OW84036   9.112  10.444   5.127  0.3534  0.1357 -0.4973
24104SOL    HW184037   9.202  10.457   5.096  1.0470 -0.1456  1.3057
24104SOL    HW284038   9.116  10.463   5.220 -1.2557 -0.8724 -0.1892
24105SOL     OW84039  11.904   5.842   8.132  0.1266  0.1390  0.4441
24105SOL    HW184040  11.958   5.772   8.168 -0.2919 -1.2485 -1.4366
24105SOL    HW284041  11.939   5.922   8.171 -0.3625 -1.1634  3.8746
24106SOL     OW84042   5.533   7.017   1.985 -0.2110  0.4475 -0.1158
24106SOL    HW184043   5.511   6.999   2.077 -0.3116 -1.7435 -0.5238
24106SOL    HW284044   5.450   7.044   1.946 -0.5846 -0.4139  0.0499
24107SOL     OW84045   3.038   3.796   4.425  0.2015  0.0284 -0.2094
24107SOL    HW184046   3.022   3.888   4.444 -0.3035 -0.0194 -0.3947
24107SOL    HW284047   3.043   3.791   4.330 -0.0472 -0.1788 -0.2129
24108SOL     OW84048  13.166   4.759   7.692 -0.1717  0.3552 -0.6915
24108SOL    HW184049  13.149   4.703   7.768 -0.5254  0.1075 -0.9508
24108SOL    HW284050  13.216   4.832   7.728  1.7632 -0.9222 -0.6337
24109SOL     OW84051   5.174  10.160   2.054 -0.3275  0.0973  0.3822
24109SOL    HW184052   5.264  10.151   2.086 -0.1364 -0.2609 -0.2304
24109SOL    HW284053   5.180  10.137   1.961 -1.1859 -0.6572  0.5095
24110SOL     OW84054  12.376   4.670   0.536  0.4081  0.7036  0.1458
24110SOL    HW184055  12.467   4.681   0.565  0.8288 -0.0921 -0.8030
24110SOL    HW284056  12.356   4.752   0.490 -0.0971  1.7588  2.1669
24111SOL     OW84057   2.383   9.682   5.737  0.4727 -0.0432 -0.5179
24111SOL    HW184058   2.345   9.597   5.756  0.9834 -0.2432 -0.3740
24111SOL    HW284059   2.400   9.681   5.643  2.3515 -0.8899 -0.2052
24112SOL     OW84060   2.336   0.758  12.228 -0.6134  0.0241  0.3448
24112SOL    HW184061   2.405   0.721  12.173  1.0346  1.0970  1.5822
24112SOL    HW284062   2.376   0.766  12.314 -2.8920 -0.9383  1.5755
24113SOL     OW84063  10.921   4.726  11.793  0.0212  0.3673 -0.5105
24113SOL    HW184064  10.960   4.812  11.783  0.1712  0.7853  2.5632
24113SOL    HW284065  10.833   4.743  11.828 -0.1140 -0.6942 -0.2944
24114SOL     OW84066   6.821  11.013   5.522  0.1926  0.2234  0.6145
24114SOL    HW184067   6.824  10.923   5.555 -1.4676 -0.0980 -0.0036
24114SOL    HW284068   6.730  11.041   5.536  0.7504  1.9279  1.0683
24115SOL     OW84069  10.154  13.589  13.569  0.8901 -0.1838  0.9044
24115SOL    HW184070  10.061  13.583  13.548  0.9804  0.5671  0.2128
24115SOL    HW284071  10.165  13.537  13.648  0.0198 -0.9003  0.5703
24116SOL     OW84072  11.132  10.523   7.255 -0.4742 -0.0257 -0.0539
24116SOL    HW184073  11.057  10.581   7.266 -0.0217  0.7028 -0.7401
24116SOL    HW284074  11.102  10.439   7.289 -0.8397  0.8142  1.7824
24117SOL     OW84075   3.825   3.480  12.904 -0.0793  0.0451  0.1515
24117SOL    HW184076   3.856   3.423  12.974  0.6672 -1.4303 -1.3366
24117SOL    HW284077   3.871   3.563  12.919 -0.8496  0.1846  2.0754
24118SOL     OW84078  11.260   5.398   8.435 -0.1476  0.1782 -0.2800
24118SOL    HW184079  11.233   5.351   8.515  1.7772  0.2558  0.4626
24118SOL    HW284080  11.209   5.479   8.438 -1.0378 -0.3692  0.1875
24119SOL     OW84081   8.693   8.634  11.288 -0.3800  0.0085 -0.7317
24119SOL    HW184082   8.677   8.575  11.363  0.1805  0.6707 -0.0755
24119SOL    HW284083   8.666   8.720  11.320  2.0733  0.7289 -0.4357
24120SOL     OW84084   2.790  12.811   5.676  0.1621 -0.4335  0.1137
24120SOL    HW184085   2.884  12.797   5.672  0.0542 -0.9166 -1.2747
24120SOL    HW284086   2.761  12.757   5.750  0.9382 -0.4571  0.4100
24121SOL     OW84087  13.250   6.096  13.471 -0.0549 -0.3167 -0.3665
24121SOL    HW184088  13.171   6.119  13.422 -0.4178 -1.1951 -0.2136
24121SOL    HW284089  13.224   6.101  13.563  0.3571  0.3745 -0.2782
24122SOL     OW84090  11.049   3.962  12.855  0.7020 -0.3835  0.2284
24122SOL    HW184091  11.096   4.028  12.804 -0.7544 -0.1146 -0.8435
24122SOL    HW284092  11.046   3.885  12.797 -0.4960 -0.2586  0.1137
24123SOL     OW84093   3.833  10.014   5.031 -0.2025  0.0309  0.2934
24123SOL    HW184094   3.832  10.020   5.127  0.5535 -1.4031  0.4229
24123SOL    HW284095   3.926  10.016   5.008 -0.3992  0.8750 -0.4625
24124SOL     OW84096   6.483   2.880  12.885  0.7091 -0.2148  0.1366
24124SOL    HW184097   6.534   2.946  12.837 -1.3336  0.4116 -1.2836
24124SOL    HW284098   6.523   2.879  12.972  2.7056  0.7060 -0.6874
24125SOL     OW84099   9.797   0.696   0.151 -0.1977 -0.2694 -0.2364
24125SOL    HW184100   9.875   0.747   0.175 -1.5115  1.8456 -0.1943
24125SOL    HW284101   9.773   0.651   0.232  1.2418 -1.3782 -0.3866
24126SOL     OW84102   4.409   9.281   8.579 -0.4995  0.8435  0.1720
24126SOL    HW184103   4.477   9.258   8.516 -0.3024  0.8566  0.3821
24126SOL    HW284104   4.330   9.292   8.526 -0.7530 -0.9273  0.1227
24127SOL     OW84105   0.444   5.641   2.470 -0.3851 -0.5065  0.1040
24127SOL    HW184106   0.449   5.591   2.552 -0.8871 -1.8131 -0.6349
24127SOL    HW284107   0.519   5.700   2.474 -1.0277  0.2617  2.0171
24128SOL     OW84108   0.390   0.223   1.840  0.3061  0.3251 -0.2537
24128SOL    HW184109   0.395   0.295   1.778  0.3202  0.1353 -0.4764
24128SOL    HW284110   0.465   0.168   1.818 -0.4270 -0.4307 -0.9380
24129SOL     OW84111  11.738  10.581   9.514 -0.0746 -0.1524 -0.2808
24129SOL    HW184112  11.660  10.551   9.467  0.5990  0.3982 -1.7956
24129SOL    HW284113  11.809  10.526   9.481  0.3927  0.1255  0.2430
24130SOL     OW84114   7.860   3.270  11.649 -0.2125 -0.2167  0.1417
24130SOL    HW184115   7.923   3.288  11.718  0.8986 -0.0636 -0.8952
24130SOL    HW284116   7.799   3.208  11.689  1.4281 -1.5366  0.7121
24131SOL     OW84117   0.723  11.017   0.325  0.5624  0.3673  0.5453
24131SOL    HW184118   0.653  11.022   0.259  1.8208 -0.8292 -0.9336
24131SOL    HW284119   0.726  11.105   0.362 -1.9025  0.3875  0.8623
24132SOL     OW84120   0.046   3.675   5.822 -0.4234 -0.5404 -0.0457
24132SOL    HW184121   0.134   3.695   5.791 -0.2801  0.1114  0.7473
24132SOL    HW284122   0.051   3.682   5.918 -1.1125 -1.4220  0.0796
24133SOL     OW84123  10.926   3.530  10.806 -0.0469  0.0294 -0.1555
24133SOL    HW184124  10.978   3.463  10.762  0.0391 -0.5300  0.7656
24133SOL    HW284125  10.981   3.559  10.879 -0.7353 -0.0684  0.4130
24134SOL     OW84126   0.928  11.612   0.434 -0.1130  0.1184  0.1149
24134SOL    HW184127   0.898  11.702   0.450  1.1361  0.3822  1.1333
24134SOL    HW284128   0.858  11.557   0.470 -1.4103  0.6328 -1.5022
24135SOL     OW84129   8.947   7.527   0.165  0.1395 -0.4394 -0.0299
24135SOL    HW184130   8.881   7.497   0.227  0.8616 -2.1051 -0.0333
24135SOL    HW284131   8.930   7.478   0.085 -0.5309  1.4012 -1.0917
24136SOL     OW84132   3.231  11.729  10.392  0.4919 -0.1607  0.1665
24136SOL    HW184133   3.271  11.675  10.324 -0.1587  0.4353 -0.7153
24136SOL    HW284134   3.215  11.668  10.464  0.0861 -1.0793 -0.6693
24137SOL     OW84135   7.910   9.477   4.241  0.0500  0.0345  0.0565
24137SOL    HW184136   7.870   9.534   4.306  0.3048 -0.6264  0.8034
24137SOL    HW284137   8.004   9.485   4.256  0.2029  1.0944 -1.2805
24138SOL     OW84138  12.811   0.512   3.953 -0.2789 -0.0464 -0.2929
24138SOL    HW184139  12.807   0.499   3.859  1.1878 -1.0007 -0.2578
24138SOL    HW284140  12.864   0.591   3.964 -0.8698  0.3522 -0.2690
24139SOL     OW84141   4.767   9.356   5.469 -0.6939  0.0798  0.2838
24139SOL    HW184142   4.785   9.411   5.546  1.7807  0.5582 -0.5521
24139SOL    HW284143   4.768   9.417   5.396 -1.5459 -0.5905 -0.2987
24140SOL     OW84144   5.341   0.880   8.801  0.2294 -0.7498 -0.5119
24140SOL    HW184145   5.337   0.785   8.799  0.6118 -0.7567 -1.8403
24140SOL    HW284146   5.377   0.905   8.715  1.6499  0.5030  0.3870
24141SOL     OW84147   4.090  10.254  13.589 -0.0610  0.0044  0.0346
24141SOL    HW184148   4.006  10.293  13.610  0.5418  1.5470 -0.2713
24141SOL    HW284149   4.154  10.312  13.631  0.8730 -0.6969 -0.3946
24142SOL     OW84150  10.314   3.941   1.663 -0.7159  1.0842  0.4240
24142SOL    HW184151  10.338   3.923   1.572 -0.9171  3.3516 -0.1293
24142SOL    HW284152  10.377   3.890   1.715 -2.0545 -2.1904 -0.8690
24143SOL     OW84153   4.341  13.379  11.130 -0.4620 -0.0512 -0.6796
24143SOL    HW184154   4.400  13.397  11.056  0.6196  1.5297  0.4866
24143SOL    HW284155   4.369  13.294  11.163  1.4211  0.7654 -0.0086
24144SOL     OW84156   9.825   5.776  11.505  0.2836  0.1180 -0.1166
24144SOL    HW184157   9.839   5.698  11.558  0.9212  0.7809  0.7063
24144SOL    HW284158   9.910   5.794  11.464  0.4382  0.9977  0.5624
24145SOL     OW84159   1.155   7.742   7.411 -0.1413 -0.1153  0.4287
24145SOL    HW184160   1.100   7.818   7.392 -0.0882 -0.5712 -1.7692
24145SOL    HW284161   1.094   7.678   7.448  0.1091  1.4819  3.9607
24146SOL     OW84162   9.357   3.685   1.039  0.2086  0.0040 -0.0818
24146SOL    HW184163   9.265   3.704   1.023  0.6246  1.1411 -1.3496
24146SOL    HW284164   9.358   3.630   1.117 -1.5305  0.0223 -0.0265
24147SOL     OW84165   7.288  12.775   9.321  0.3547 -0.5816  0.1632
24147SOL    HW184166   7.355  12.717   9.357 -0.8818 -0.3860  3.0989
24147SOL    HW284167   7.205  12.732   9.342 -0.5005  0.7247 -0.4062
24148SOL     OW84168   9.332  12.466   0.069  0.2282  0.4175  0.0558
24148SOL    HW184169   9.279  12.503   0.141  1.5475  0.6416  0.9432
24148SOL    HW284170   9.422  12.486   0.093  0.7336  0.0838 -1.4602
24149SOL     OW84171   2.060   5.799  12.617  0.0259 -0.1856 -0.5110
24149SOL    HW184172   1.993   5.763  12.559  0.6701 -2.2816 -0.0396
24149SOL    HW284173   2.137   5.811  12.561 -0.0101 -0.0939 -0.5412
24150SOL     OW84174   9.616  12.402  11.113  0.0616  0.0305  0.6171
24150SOL    HW184175   9.667  12.420  11.192  2.3173 -0.8704 -0.5454
24150SOL    HW284176   9.568  12.321  11.134  0.6610 -0.2229  1.0561
24151SOL     OW84177  10.571   1.579   7.266 -0.1431  0.2393  0.3597
24151SOL    HW184178  10.575   1.675   7.255 -0.3185  0.1198 -0.9184
24151SOL    HW284179  10.663   1.553   7.272 -0.0834  0.4604  0.4463
24152SOL     OW84180   1.994   0.153   7.659  0.4029 -0.7760 -0.2320
24152SOL    HW184181   1.946   0.217   7.712 -0.5350 -0.4529 -1.4374
24152SOL    HW284182   2.012   0.199   7.577  0.8008 -1.6617 -0.6480
24153SOL     OW84183   0.982   1.000   6.761  0.0881  0.6273  0.4429
24153SOL    HW184184   0.978   0.923   6.818 -2.0063  0.5282  0.2476
24153SOL    HW284185   0.923   0.979   6.688  0.0306  2.1217  0.0255
24154SOL     OW84186  11.236   2.817   3.953 -0.7522  0.4409 -0.1814
24154SOL    HW184187  11.294   2.837   4.026 -1.8206  0.8708  0.5742
24154SOL    HW284188  11.287   2.839   3.875  0.3539  0.1151  0.4235
24155SOL     OW84189  12.440   6.321   6.438  0.3462  0.4060 -0.5878
24155SOL    HW184190  12.411   6.250   6.381  2.5859 -0.4410 -0.7877
24155SOL    HW284191  12.463   6.278   6.521  1.8688  0.8299 -0.7533
24156SOL     OW84192   8.621   4.676   1.818 -0.0702  0.6351 -0.3488
24156SOL    HW184193   8.715   4.694   1.820  0.0151  0.1567  0.3110
24156SOL    HW284194   8.586   4.719   1.896 -0.2999  0.3037 -0.2644
24157SOL     OW84195   5.883   7.628   7.233 -0.4933 -0.3322 -0.1688
24157SOL    HW184196   5.789   7.645   7.241 -0.8046 -1.8912 -0.2204
24157SOL    HW284197   5.895   7.598   7.143  0.4810  2.1536 -0.9548
24158SOL     OW84198   7.225  11.314  13.593  0.1177  0.1470 -0.1732
24158SOL    HW184199   7.286  11.387  13.591 -0.2273  0.4402 -0.0808
24158SOL    HW284200   7.193  11.306  13.503  0.0162  0.2292 -0.1451
24159SOL     OW84201  12.214   8.392   2.792 -0.6348  0.0709  0.0212
24159SOL    HW184202  12.166   8.310   2.776  0.5767 -0.2068 -2.8666
24159SOL    HW284203  12.305   8.365   2.802 -0.5722  0.8786  2.0682
24160SOL     OW84204  13.225   4.118   2.358  0.0456  0.6960  0.5323
24160SOL    HW184205  13.161   4.170   2.407 -0.2037  1.6239 -0.7458
24160SOL    HW284206  13.284   4.183   2.319 -0.6322  0.0936 -1.5980
24161SOL     OW84207   7.309  12.547  10.228  0.2699 -0.1261  0.0081
24161SOL    HW184208   7.303  12.454  10.252  2.1705 -0.0943  0.7716
24161SOL    HW284209   7.403  12.563  10.216 -0.0072  1.7413  0.0198
24162SOL     OW84210   6.750   5.885   6.879 -0.4161 -0.1348  0.1036
24162SOL    HW184211   6.762   5.792   6.896 -0.1017  0.0158  0.7218
24162SOL    HW284212   6.825   5.910   6.826  0.9514  0.3281  2.1449
24163SOL     OW84213   5.956   0.987   9.761 -0.1181 -0.3983  0.0392
24163SOL    HW184214   6.020   1.046   9.721 -1.1972  0.2339 -0.7968
24163SOL    HW284215   5.969   0.904   9.715 -0.5033 -0.0164 -0.7881
24164SOL     OW84216  12.086   1.352   3.134 -0.2550  0.5382 -0.5702
24164SOL    HW184217  12.138   1.431   3.148 -0.2891  0.6509 -1.0757
24164SOL    HW284218  12.016   1.358   3.199  0.1160  0.5973 -0.1705
24165SOL     OW84219  12.688   3.908   3.781  0.7563  0.0258 -0.5484
24165SOL    HW184220  12.775   3.908   3.821 -0.4209  1.3698  2.2829
24165SOL    HW284221  12.630   3.941   3.849 -2.2044 -1.8753 -1.9312
24166SOL     OW84222   1.027   6.515   0.575 -0.0772  0.1898  0.2188
24166SOL    HW184223   1.065   6.530   0.662 -0.5523  2.2213  0.1257
24166SOL    HW284224   0.951   6.459   0.592 -0.1795  0.5819  1.1357
24167SOL     OW84225   4.868   9.796  13.602  0.0294 -0.3068  0.2861
24167SOL    HW184226   4.799   9.861  13.607  2.2020  2.3793 -1.4064
24167SOL    HW284227   4.910   9.798  13.689 -0.2724  0.1282  0.4219
24168SOL     OW84228   8.970   0.935   7.953 -0.8653 -0.2113 -0.3177
24168SOL    HW184229   8.991   0.854   7.906  0.4746  0.2704 -0.5930
24168SOL    HW284230   9.007   1.005   7.899 -0.8761  0.4840  0.5538
24169SOL     OW84231   2.114   2.182   7.818 -0.3928  0.0597  0.3343
24169SOL    HW184232   2.172   2.252   7.850  0.3196  0.1934 -1.1982
24169SOL    HW284233   2.099   2.127   7.895  2.4224 -0.4397  0.6370
24170SOL     OW84234   7.545   2.810  10.810  0.4162  0.1309  0.2875
24170SOL    HW184235   7.551   2.729  10.760  1.2771 -0.1496  0.8287
24170SOL    HW284236   7.451   2.822  10.826  0.2973 -0.8895  0.4099
24171SOL     OW84237   9.827   8.023   6.235  0.2311 -0.0696 -0.0851
24171SOL    HW184238   9.876   8.013   6.154  2.0416 -0.7125  1.0096
24171SOL    HW284239   9.845   8.112   6.264 -3.0415  1.3341 -1.9185
24172SOL     OW84240   2.161   1.287  10.889  0.2513 -0.6330 -0.3664
24172SOL    HW184241   2.245   1.260  10.853 -0.6503 -1.3590 -1.9946
24172SOL    HW284242   2.145   1.373  10.850 -0.0374 -0.7583 -0.5249
24173SOL     OW84243   8.845   8.240  12.978 -0.3980  0.1636  0.3569
24173SOL    HW184244   8.863   8.313  12.919  2.4372 -0.5739  0.1828
24173SOL    HW284245   8.845   8.163  12.920 -1.5343 -0.1965  0.8054
24174SOL     OW84246   2.536  12.781   2.661  0.5410  0.1248 -0.1469
24174SOL    HW184247   2.485  12.832   2.599  1.5961  0.6440 -0.6149
24174SOL    HW284248   2.475  12.716   2.695 -1.1411  2.2320  1.1461
24175SOL     OW84249  13.536   7.418   1.202  0.3251 -0.5340 -0.1447
24175SOL    HW184250  13.535   7.506   1.163  1.2453 -0.0471  0.8887
24175SOL    HW284251  13.549   7.360   1.127  0.2652  0.2475 -0.7835
24176SOL     OW84252   6.387   6.107  11.889 -0.0590 -0.6247  0.3976
24176SOL    HW184253   6.455   6.107  11.821 -1.3499  0.4631 -0.9819
24176SOL    HW284254   6.334   6.029  11.870 -0.6653 -0.0961 -0.1437
24177SOL     OW84255   2.410   5.179   8.596  0.2608 -0.0596  0.2083
24177SOL    HW184256   2.416   5.232   8.675 -0.6191  0.6124 -0.1545
24177SOL    HW284257   2.367   5.099   8.624 -1.3804  0.7660  0.1673
24178SOL     OW84258   5.318   8.023   6.882  0.0132 -0.6024  0.1408
24178SOL    HW184259   5.266   7.947   6.908  2.5456 -1.9501  1.6987
24178SOL    HW284260   5.388   7.987   6.827  0.5353  0.8007 -0.1578
24179SOL     OW84261  12.479  10.635   4.925 -1.0310 -0.8894 -0.0191
24179SOL    HW184262  12.439  10.663   4.843 -1.8288 -0.2393  0.5722
24179SOL    HW284263  12.539  10.565   4.900 -0.5807 -0.0981 -1.2759
24180SOL     OW84264   3.003   1.465   9.677 -0.8010  0.1616 -0.0025
24180SOL    HW184265   2.919   1.503   9.701 -0.3772  1.8293 -0.9455
24180SOL    HW284266   2.982   1.397   9.613 -1.4009  1.3783 -1.1589
24181SOL     OW84267   5.557   5.124  13.083 -1.5252 -0.2527 -0.3319
24181SOL    HW184268   5.475   5.078  13.065 -1.5136 -0.3462 -0.1431
24181SOL    HW284269   5.539   5.215  13.058 -1.5333 -0.3656 -0.7490
24182SOL     OW84270   7.344   7.892  11.243  0.5799 -0.3167  0.2184
24182SOL    HW184271   7.275   7.941  11.286  1.6976  0.6938  0.9195
24182SOL    HW284272   7.397   7.856  11.314  0.7744 -1.0905 -0.2999
24183SOL     OW84273   7.802   7.367  11.608 -0.2005 -0.4209 -0.1445
24183SOL    HW184274   7.776   7.438  11.550 -0.0996  0.0600  0.3908
24183SOL    HW284275   7.898   7.366  11.604 -0.2254 -2.2690 -2.2082
24184SOL     OW84276  13.125   5.912   3.999  0.2084 -0.7727 -0.1783
24184SOL    HW184277  13.216   5.882   3.989  0.8181  0.8719  0.1341
24184SOL    HW284278  13.091   5.915   3.909  0.7416 -0.6026 -0.3806
24185SOL     OW84279  13.634   2.265   6.917  0.2921 -0.2541  0.0566
24185SOL    HW184280  13.709   2.318   6.891  0.4430 -0.6057 -0.2312
24185SOL    HW284281  13.640   2.260   7.013 -0.8803  1.9767  0.3310
24186SOL     OW84282   2.474  11.908  10.674 -0.5382 -0.0856  0.1327
24186SOL    HW184283   2.455  11.856  10.752  0.0499 -1.3415 -0.5267
24186SOL    HW284284   2.392  11.954  10.655 -0.9955 -0.5715  0.8823
24187SOL     OW84285   3.445   5.274   5.929  0.4403  0.2928 -0.0119
24187SOL    HW184286   3.448   5.181   5.949 -0.3395  0.1173 -0.6704
24187SOL    HW284287   3.389   5.312   5.996  0.6698  0.2777  0.1913
24188SOL     OW84288   0.051  10.664   6.656 -0.0824  0.7368 -0.1639
24188SOL    HW184289   0.129  10.629   6.614  0.0238  1.9427 -1.0148
24188SOL    HW284290   0.065  10.758   6.659 -1.1010  0.8885  0.5244
24189SOL     OW84291   7.640   3.021   6.958  0.0366 -0.1380  0.7940
24189SOL    HW184292   7.626   2.930   6.982 -0.0271 -0.9191 -1.8487
24189SOL    HW284293   7.734   3.027   6.943  0.2302  0.6011  2.1579
24190SOL     OW84294   7.026   0.121   7.533 -0.1336  0.3752  0.3824
24190SOL    HW184295   7.039   0.214   7.511 -0.7277  0.4771  0.4622
24190SOL    HW284296   7.113   0.092   7.561  0.8641  0.0698 -2.6380
24191SOL     OW84297   6.681   9.557   2.669  0.0987 -0.5783  0.1554
24191SOL    HW184298   6.710   9.565   2.760  1.2689 -0.0303 -0.2468
24191SOL    HW284299   6.597   9.510   2.675 -1.8557  2.7616  1.8337
24192SOL     OW84300   0.840   3.888   5.026  0.3436 -0.5346 -0.6332
24192SOL    HW184301   0.814   3.854   4.940 -0.4839 -0.5859 -0.3688
24192SOL    HW284302   0.761   3.881   5.079  0.6401  0.2316 -0.0865
24193SOL     OW84303  10.350   2.975  11.836 -0.1730 -0.1242  0.5433
24193SOL    HW184304  10.444   2.973  11.854  0.6923  1.1832 -3.0423
24193SOL    HW284305  10.319   2.888  11.861  1.4953  0.0593  3.6757
24194SOL     OW84306  12.653   8.322  10.773 -0.6010 -0.0802  0.6197
24194SOL    HW184307  12.606   8.262  10.831 -0.2273 -0.2232  0.7785
24194SOL    HW284308  12.613   8.407  10.789 -0.6308 -0.1560  0.9453
24195SOL     OW84309   1.478   0.380   1.756  0.2498  0.1161  0.6105
24195SOL    HW184310   1.513   0.362   1.844  2.1220 -0.0448 -0.1119
24195SOL    HW284311   1.470   0.294   1.715  0.6817  0.2828  0.1674
24196SOL     OW84312   3.669   5.720   8.784 -0.5399  0.3157  0.4532
24196SOL    HW184313   3.697   5.728   8.693  0.0730 -0.4450  0.5694
24196SOL    HW284314   3.689   5.629   8.808  0.7868  0.9177  1.8302
24197SOL     OW84315  12.936  12.801   5.497  0.1512  0.8565  0.1706
24197SOL    HW184316  12.972  12.889   5.483  0.9140  0.4553 -0.4389
24197SOL    HW284317  12.979  12.746   5.432 -2.2189  0.5130 -1.2260
24198SOL     OW84318   5.337   1.287   9.397  0.0701  0.1486 -0.2493
24198SOL    HW184319   5.420   1.332   9.383 -0.2543  0.7105 -0.3963
24198SOL    HW284320   5.339   1.214   9.335 -0.2691  1.1471 -1.4707
24199SOL     OW84321   3.600  11.730  10.367 -0.1461  0.6944 -0.0466
24199SOL    HW184322   3.571  11.641  10.348 -2.4893  1.1222  1.1474
24199SOL    HW284323   3.591  11.777  10.284 -1.9913  0.5470  0.0378
24200SOL     OW84324   8.938   3.804   8.018 -0.0359 -0.0394  0.1716
24200SOL    HW184325   8.967   3.876   7.962 -0.8766  1.0205  1.0444
24200SOL    HW284326   8.986   3.817   8.101 -0.2013 -0.4818  0.3413
24201SOL     OW84327   7.192   1.407   1.371  0.0708  0.3292  0.1364
24201SOL    HW184328   7.173   1.492   1.332  0.1192  1.9787  3.3411
24201SOL    HW284329   7.230   1.428   1.457  0.5042 -2.9424  0.8847
24202SOL     OW84330   0.088   7.833   2.775  0.2575  0.0604  0.9077
24202SOL    HW184331   0.108   7.924   2.798 -2.4332  1.0764 -0.2988
24202SOL    HW284332   0.089   7.832   2.679 -0.0387 -1.1041  0.9060
24203SOL     OW84333  12.334   3.378   0.792 -0.3065 -0.0623  0.1342
24203SOL    HW184334  12.357   3.374   0.885 -0.0922  0.7100  0.1193
24203SOL    HW284335  12.292   3.294   0.774  1.5435 -1.1023  0.4120
24204SOL     OW84336   0.341   6.122   3.325  0.3132  0.0906 -0.2305
24204SOL    HW184337   0.303   6.106   3.238 -1.0910  2.8403 -0.2432
24204SOL    HW284338   0.296   6.060   3.382 -0.2786 -0.3443 -1.1327
24205SOL     OW84339   2.898   3.728   4.657  0.0917 -0.5898  0.2793
24205SOL    HW184340   2.950   3.754   4.581 -1.4277  2.3754  0.1234
24205SOL    HW284341   2.962   3.692   4.719  2.0849  1.2901 -0.5852
24206SOL     OW84342   8.326  11.129   2.254  0.4418 -0.4024  0.0274
24206SOL    HW184343   8.381  11.100   2.327  0.8728  1.1450  0.3546
24206SOL    HW284344   8.299  11.217   2.278 -2.3005 -1.1283 -0.0991
24207SOL     OW84345   0.661   2.575   8.615 -0.4201 -0.6338 -0.3337
24207SOL    HW184346   0.719   2.641   8.652 -0.2034 -1.4062  0.7494
24207SOL    HW284347   0.694   2.562   8.526  0.1995 -0.0577 -0.2003
24208SOL     OW84348  13.581   6.531  10.781  0.4287  0.5773  0.0560
24208SOL    HW184349  13.551   6.458  10.835  0.6474  0.3681 -0.1045
24208SOL    HW284350  13.503   6.584  10.767  0.4312  0.7862  0.8132
24209SOL     OW84351   2.031   1.527  12.386  0.1010 -0.3707  0.3903
24209SOL    HW184352   1.988   1.548  12.303  1.6014 -1.2084 -0.6669
24209SOL    HW284353   2.122   1.508  12.361  0.9294  0.6407  2.4100
24210SOL     OW84354   2.835   9.732   9.857 -0.0089 -0.1983  0.9677
24210SOL    HW184355   2.899   9.661   9.846 -0.4980 -0.5878  0.5903
24210SOL    HW284356   2.834   9.748   9.951  2.0528  1.1405  0.8446
24211SOL     OW84357  10.733   9.656  12.283 -0.2651  0.6058 -0.4871
24211SOL    HW184358  10.731   9.617  12.371  0.3502  0.2332 -0.6265
24211SOL    HW284359  10.676   9.600  12.231  1.0740 -0.5109 -0.8268
24212SOL     OW84360   0.171   0.578   3.093  0.2119  0.4490  0.1004
24212SOL    HW184361   0.208   0.664   3.111  1.4370 -0.3736  1.7526
24212SOL    HW284362   0.102   0.594   3.028  1.2729  2.4671 -0.5886
24213SOL     OW84363  12.916   0.916   7.984  0.0824  0.4180  0.0617
24213SOL    HW184364  12.953   0.986   8.037  0.5681  1.0319 -1.0602
24213SOL    HW284365  12.957   0.925   7.898 -1.9136  0.5316 -0.9625
24214SOL     OW84366   2.271   3.306   2.780 -0.3895 -0.2035  0.8563
24214SOL    HW184367   2.345   3.244   2.785 -0.6817 -0.5990  0.3835
24214SOL    HW284368   2.245   3.304   2.688 -0.1143  0.9714  0.7394
24215SOL     OW84369  12.087   8.315  12.097 -0.0433  0.4014  0.2842
24215SOL    HW184370  11.994   8.316  12.118 -0.3980  0.9150 -1.2025
24215SOL    HW284371  12.109   8.222  12.092 -0.1024  0.2606  2.0815
24216SOL     OW84372  11.015   3.280   4.004 -0.7783 -0.5037 -0.2499
24216SOL    HW184373  11.042   3.357   3.954 -0.3501 -0.3310  0.2393
24216SOL    HW284374  11.077   3.212   3.977 -1.1331 -0.6676 -0.6542
24217SOL     OW84375   9.264   4.909   2.555 -0.2595 -0.0949 -0.2612
24217SOL    HW184376   9.190   4.960   2.523  0.0164  0.7143  0.3512
24217SOL    HW284377   9.340   4.966   2.540 -0.0446  0.0395  1.1979
24218SOL     OW84378   2.539   2.212  11.630 -0.4121  0.4525 -0.1392
24218SOL    HW184379   2.457   2.215  11.679  0.0727  0.2943  0.6989
24218SOL    HW284380   2.596   2.155  11.682 -0.0303 -0.0903 -1.1185
24219SOL     OW84381  12.583   9.284  12.776 -0.0367 -0.6736  0.3468
24219SOL    HW184382  12.522   9.234  12.831 -1.0401  2.2344  2.1108
24219SOL    HW284383  12.528   9.348  12.730  1.3036 -0.2431 -0.7369
24220SOL     OW84384  12.224  10.886   1.317  0.4522 -0.5413  0.5375
24220SOL    HW184385  12.139  10.863   1.280  1.0024  0.1833 -1.2917
24220SOL    HW284386  12.229  10.981   1.309  0.1539 -0.1582  3.6097
24221SOL     OW84387  13.204   3.634   5.880  0.1905 -0.1586  0.1235
24221SOL    HW184388  13.274   3.572   5.902  1.6870  0.8853 -1.4342
24221SOL    HW284389  13.157   3.593   5.808  1.0757  0.3814 -0.7940
24222SOL     OW84390  10.130   9.331   3.783  0.6770  0.5111 -0.2456
24222SOL    HW184391  10.144   9.249   3.831 -1.8733  0.5087  0.6844
24222SOL    HW284392  10.155   9.400   3.845  0.6283  0.4584 -0.1675
24223SOL     OW84393   9.085   7.308   6.343 -0.5710 -0.0308 -0.0182
24223SOL    HW184394   9.008   7.334   6.393 -0.1603 -0.2017  0.7092
24223SOL    HW284395   9.069   7.217   6.319 -0.7996  0.0725 -0.2667
24224SOL     OW84396  11.182   0.148   9.923  0.6286 -0.5030 -0.0262
24224SOL    HW184397  11.206   0.215   9.859 -2.3782  0.2853 -0.5210
24224SOL    HW284398  11.176   0.067   9.872 -1.7224  0.1158 -0.8728
24225SOL     OW84399   7.357  13.024  10.615  0.3124 -0.3013  0.1295
24225SOL    HW184400   7.448  13.013  10.588  0.5016  0.6622  0.3550
24225SOL    HW284401   7.361  13.078  10.694 -0.3889 -1.2307  0.8214
24226SOL     OW84402   1.794   0.888   2.019 -0.1780  0.2675  0.6414
24226SOL    HW184403   1.816   0.965   2.071  1.1842  0.5142 -0.2417
24226SOL    HW284404   1.698   0.887   2.018 -0.2293  0.8979  2.1697
24227SOL     OW84405   9.053   1.451   8.487 -0.1930 -0.1247  0.1648
24227SOL    HW184406   9.084   1.531   8.445  2.1843 -1.2506 -0.3924
24227SOL    HW284407   9.108   1.440   8.564  0.7264 -2.0628 -0.6915
24228SOL     OW84408   4.270   8.997   9.873 -0.7631  0.3915 -0.1971
24228SOL    HW184409   4.342   9.043   9.828  0.1203  0.4796  1.2540
24228SOL    HW284410   4.192   9.046   9.847 -0.1586  1.0517 -0.8450
24229SOL     OW84411  11.784  12.738  13.659 -0.2131 -0.4069 -0.1991
24229SOL    HW184412  11.837  12.818  13.658 -2.0295  0.8452 -0.5162
24229SOL    HW284413  11.806  12.696  13.742  0.8633  0.3615 -0.0778
24230SOL     OW84414   8.028   2.572  10.453 -0.2327  0.3022 -0.2653
24230SOL    HW184415   8.060   2.661  10.465  0.9798 -0.0249 -0.9450
24230SOL    HW284416   8.047   2.528  10.537  0.1427  0.3930 -0.3036
24231SOL     OW84417  12.526   8.136  12.447 -0.2733 -0.8661  0.1128
24231SOL    HW184418  12.457   8.138  12.382  1.0711 -1.6716 -1.3907
24231SOL    HW284419  12.495   8.195  12.516 -1.3710  0.6841 -1.6170
24232SOL     OW84420   9.194   4.947   7.336 -0.5141  0.2967 -0.3536
24232SOL    HW184421   9.112   4.953   7.287 -0.4135  2.0637 -0.3757
24232SOL    HW284422   9.262   4.966   7.271 -0.2667  1.0460  0.1044
24233SOL     OW84423   1.984   3.626   4.634  0.1355  0.3097 -0.7670
24233SOL    HW184424   1.948   3.660   4.552 -1.3007  1.8075  0.4061
24233SOL    HW284425   1.949   3.537   4.641 -0.8721  0.6570 -1.1390
24234SOL     OW84426   0.682  10.910  11.905 -0.1008  0.4366 -0.2605
24234SOL    HW184427   0.671  10.995  11.947 -0.1540  0.6586 -0.7184
24234SOL    HW284428   0.729  10.929  11.824  1.1009 -0.1376  0.2771
24235SOL     OW84429  13.509   6.969   9.145  0.1859  0.4573 -0.4450
24235SOL    HW184430  13.530   6.885   9.185 -0.4171  0.1225 -0.8130
24235SOL    HW284431  13.451   6.947   9.072  0.6081  1.1308 -0.9926
24236SOL     OW84432   7.410   1.279   4.172 -0.4140 -0.2508  0.3607
24236SOL    HW184433   7.354   1.347   4.135  1.1033  1.1258  0.4957
24236SOL    HW284434   7.438   1.227   4.097  1.0186  1.2864 -0.2290
24237SOL     OW84435  11.626  11.253  10.176 -0.1368  0.0244 -0.1816
24237SOL    HW184436  11.648  11.332  10.127 -0.1665  1.0764  1.4023
24237SOL    HW284437  11.710  11.219  10.206 -0.1636 -0.1976 -0.3622
24238SOL     OW84438   7.733   3.446  12.312 -0.1014  0.5876 -0.1444
24238SOL    HW184439   7.784   3.402  12.380 -1.8198  0.2799  1.0146
24238SOL    HW284440   7.659   3.388  12.297 -1.2206  1.9961 -0.2381
24239SOL     OW84441  12.751   4.433  11.070 -0.4094  0.2981  0.2018
24239SOL    HW184442  12.776   4.344  11.047 -0.5146  0.2266  0.3575
24239SOL    HW284443  12.685   4.458  11.006  0.0106  0.4630 -0.1707
24240SOL     OW84444   0.793   5.875   4.282 -0.0224  0.0433 -0.8408
24240SOL    HW184445   0.871   5.927   4.260 -0.0970  0.5689  0.0485
24240SOL    HW284446   0.721   5.938   4.277  0.1003  0.5678  1.9753
24241SOL     OW84447  12.808   8.867   5.123  0.5372  0.1962 -0.1000
24241SOL    HW184448  12.886   8.864   5.178 -0.1749 -1.6169  0.8967
24241SOL    HW284449  12.774   8.956   5.134  2.5731  1.1024 -0.7741
24242SOL     OW84450   1.158   0.931  12.912  0.4895 -0.2858 -0.2790
24242SOL    HW184451   1.170   1.010  12.965 -0.3032  0.3773 -1.0654
24242SOL    HW284452   1.077   0.947  12.863 -0.5603 -2.2281  0.6855
24243SOL     OW84453  12.898   3.301   7.604  0.6447 -0.3762 -0.3797
24243SOL    HW184454  12.905   3.207   7.587  2.3760 -0.5361  0.9396
24243SOL    HW284455  12.916   3.309   7.698 -0.7584  1.1647 -0.2050
24244SOL     OW84456  10.594   9.453   0.890  0.2017 -0.3449  0.3026
24244SOL    HW184457  10.615   9.417   0.804  0.0905  1.1569 -0.3744
24244SOL    HW284458  10.608   9.547   0.881  3.7342 -0.4107  2.9085
24245SOL     OW84459   0.434   4.798  12.032  0.5903 -0.5960  0.5090
24245SOL    HW184460   0.368   4.825  12.097 -0.6760 -0.5439 -0.7603
24245SOL    HW284461   0.405   4.839  11.950  3.6720  1.6809  0.3821
24246SOL     OW84462   4.135  11.258  12.481 -0.1978 -0.2105  0.6013
24246SOL    HW184463   4.176  11.229  12.400  1.6617 -0.8829  1.7059
24246SOL    HW284464   4.052  11.211  12.484 -0.9641  0.9068 -1.5407
24247SOL     OW84465  11.578   1.742   4.315 -0.0321 -0.2594 -0.2768
24247SOL    HW184466  11.649   1.725   4.253  0.0598 -1.5677  0.1649
24247SOL    HW284467  11.577   1.666   4.372 -0.3320  0.7794  1.1534
24248SOL     OW84468   7.807   8.991   6.666 -0.2619  0.1937 -0.4620
24248SOL    HW184469   7.806   9.002   6.761 -0.7433 -0.6050 -0.3626
24248SOL    HW284470   7.748   8.917   6.650  0.4169 -0.1841 -1.3157
24249SOL     OW84471  13.606   0.877   0.411  0.1572 -0.0127 -0.3352
24249SOL    HW184472  13.655   0.908   0.335  1.7867  0.1931  0.7538
24249SOL    HW284473  13.673   0.847   0.472 -1.1832 -2.3302  0.1360
24250SOL     OW84474   8.014   6.931   9.844  0.4369 -0.3552 -0.2391
24250SOL    HW184475   8.002   6.846   9.803 -1.5963  0.4149 -1.3934
24250SOL    HW284476   8.031   6.991   9.771 -2.4549  0.9120 -0.0075
24251SOL     OW84477   3.768  13.578   7.085  0.4365 -0.0054  0.3503
24251SOL    HW184478   3.863  13.586   7.077  0.3247 -0.0860 -1.4618
24251SOL    HW284479   3.734  13.660   7.050 -0.1631 -0.0413  0.8421
24252SOL     OW84480   5.225  12.690  13.042  0.2665  0.0298 -0.1324
24252SOL    HW184481   5.149  12.733  13.081 -0.8281 -0.7504 -1.2797
24252SOL    HW284482   5.280  12.761  13.009 -0.7403  0.6054 -0.6253
24253SOL     OW84483   9.745   9.313   4.263  0.3523 -0.7483 -0.2705
24253SOL    HW184484   9.657   9.345   4.284  1.2676  1.1017  0.9904
24253SOL    HW284485   9.768   9.355   4.181  1.5477  2.0759  1.3745
24254SOL     OW84486   9.096   3.490   0.574  0.3248 -0.3298  0.1810
24254SOL    HW184487   9.052   3.414   0.537 -1.6620  0.6779  0.3489
24254SOL    HW284488   9.040   3.564   0.551  0.2627  0.6409  3.0767
24255SOL     OW84489   1.958   6.244   1.785 -0.7509  0.1354  0.1931
24255SOL    HW184490   1.939   6.313   1.848 -3.2236  0.7225 -1.0609
24255SOL    HW284491   2.048   6.260   1.758 -0.4322  1.2974  1.8090
24256SOL     OW84492   4.278   4.384   1.112  0.1177 -0.7105  0.4787
24256SOL    HW184493   4.277   4.479   1.123 -0.9672 -0.6703  0.1594
24256SOL    HW284494   4.370   4.361   1.110  0.3839  0.2065  1.6239
24257SOL     OW84495   0.102   8.488   0.592  0.0659  0.4176  0.5687
24257SOL    HW184496   0.069   8.572   0.623 -1.8738 -0.6338  1.5507
24257SOL    HW284497   0.067   8.424   0.654  1.7267 -1.1190  0.0226
24258SOL     OW84498   8.848  12.833  13.426 -1.0724  0.2374 -0.0432
24258SOL    HW184499   8.931  12.836  13.473 -1.3774 -0.9543  0.6066
24258SOL    HW284500   8.790  12.891  13.475 -1.3401 -0.8688  0.9855
24259SOL     OW84501   4.440  10.332   3.188 -0.0124  0.0575  0.3712
24259SOL    HW184502   4.443  10.420   3.225 -1.6547  0.9896 -1.5107
24259SOL    HW284503   4.505  10.333   3.119  1.2000 -0.8184  1.4658
24260SOL     OW84504   9.555  12.888  11.590  0.6005 -0.4275  0.4971
24260SOL    HW184505   9.532  12.885  11.683 -0.2682 -1.4304  0.2689
24260SOL    HW284506   9.471  12.900  11.546  0.8137 -1.6164 -0.2456
24261SOL     OW84507   4.670  13.554   5.395 -0.0201 -0.1862  0.0753
24261SOL    HW184508   4.645  13.496   5.323 -0.8815 -2.2414  1.8826
24261SOL    HW284509   4.686  13.494   5.469 -0.2822  1.8471  1.8835
24262SOL     OW84510   8.634   5.515   6.871  0.3735  0.0163  0.0625
24262SOL    HW184511   8.656   5.529   6.963 -2.5074 -1.1291  1.0200
24262SOL    HW284512   8.661   5.424   6.854  0.3705  0.0365 -0.0534
24263SOL     OW84513   5.182   3.152   1.960  0.1925  0.2878  0.0195
24263SOL    HW184514   5.147   3.209   1.892 -1.3050 -0.1959  0.3533
24263SOL    HW284515   5.184   3.207   2.039  0.8080  0.5031 -0.1431
24264SOL     OW84516  12.868   5.477   4.786  0.0120  0.5782  0.5586
24264SOL    HW184517  12.809   5.544   4.754 -0.3069  0.4664  0.9063
24264SOL    HW284518  12.856   5.403   4.727  2.1101  1.6193 -1.3147
24265SOL     OW84519  12.733   8.395   1.788 -0.1630  0.4941  0.0238
24265SOL    HW184520  12.766   8.333   1.723 -0.6650 -1.6333  1.6636
24265SOL    HW284521  12.689   8.463   1.737  1.2435  0.0403 -1.9116
24266SOL     OW84522   0.028   9.354   2.597 -1.0733  0.2340  0.2071
24266SOL    HW184523   0.110   9.333   2.641 -0.3238  0.6693 -0.9413
24266SOL    HW284524  -0.006   9.431   2.643 -0.3636  0.6194  0.0941
24267SOL     OW84525  13.625  10.297   8.851 -0.3558  0.1531  0.9773
24267SOL    HW184526  13.670  10.223   8.809  0.3049  0.1520  1.6635
24267SOL    HW284527  13.567  10.257   8.915  0.1359  0.2241  1.4767
24268SOL     OW84528   1.174   1.188   9.687 -0.5038  0.1412 -0.0734
24268SOL    HW184529   1.206   1.250   9.621 -1.9371 -0.2758 -1.2155
24268SOL    HW284530   1.122   1.243   9.746  1.0945  0.5824  0.9966
24269SOL     OW84531   3.166   5.943  11.716  0.2351 -0.6820 -0.3317
24269SOL    HW184532   3.253   5.947  11.676 -0.3952 -0.7966 -1.7559
24269SOL    HW284533   3.112   5.999  11.661 -0.6064 -0.6427  0.5238
24270SOL     OW84534  10.873  10.226   4.818 -0.1072 -0.5735 -0.1177
24270SOL    HW184535  10.932  10.225   4.742 -0.1866 -1.1305 -0.1742
24270SOL    HW284536  10.863  10.134   4.842 -1.4033 -0.5298 -0.4470
24271SOL     OW84537   2.343   0.128   7.368 -0.1507  0.0739 -0.1354
24271SOL    HW184538   2.425   0.165   7.336  1.8846 -1.9521  2.3180
24271SOL    HW284539   2.310   0.076   7.295  1.3970 -0.0554 -0.7800
24272SOL     OW84540   9.145   8.540  10.231 -0.2896  0.0665  0.1846
24272SOL    HW184541   9.070   8.509  10.283 -0.3728  0.1509  0.1157
24272SOL    HW284542   9.213   8.555  10.296 -0.1732 -0.4767  0.1957
24273SOL     OW84543   8.111   8.680   1.843  0.1702  0.3551 -0.8045
24273SOL    HW184544   8.043   8.647   1.785  1.3395 -1.7941 -1.0314
24273SOL    HW284545   8.191   8.635   1.816  1.4269  1.7252  0.3866
24274SOL     OW84546   7.116   5.543  11.690 -0.4676 -0.2541 -0.4867
24274SOL    HW184547   7.178   5.612  11.666 -0.5754 -0.0760 -0.2624
24274SOL    HW284548   7.161   5.461  11.668  0.6744 -0.2158  1.4772
24275SOL     OW84549  11.681   0.850   1.247 -0.4814  0.1346 -0.1377
24275SOL    HW184550  11.608   0.878   1.302 -0.0627 -1.2018  1.1547
24275SOL    HW284551  11.665   0.757   1.230  0.0869  0.2089 -1.1902
24276SOL     OW84552   5.059   4.825  12.071 -0.2853 -0.3532 -0.6265
24276SOL    HW184553   5.066   4.738  12.033  1.6512  0.2495 -1.8008
24276SOL    HW284554   5.038   4.882  11.998 -1.2107  0.2303  0.0725
24277SOL     OW84555   1.180  13.079  10.523  0.6840  0.5569  0.1026
24277SOL    HW184556   1.253  13.141  10.521  0.9057  0.2899 -0.0429
24277SOL    HW284557   1.133  13.101  10.604  0.9227  0.7330  0.1958
24278SOL     OW84558  12.055   2.837  13.066  0.0519  0.5597 -0.0644
24278SOL    HW184559  11.965   2.806  13.078 -0.0021  0.2016 -1.2543
24278SOL    HW284560  12.067   2.905  13.132 -1.7143  1.9284 -1.0911
24279SOL     OW84561   5.664   2.630   5.285  0.3926 -0.5837  0.1436
24279SOL    HW184562   5.623   2.558   5.237 -0.8321  0.1603  0.0396
24279SOL    HW284563   5.622   2.709   5.250  1.1101  0.1258  0.8463
24280SOL     OW84564   8.920  13.535   0.953 -0.3474 -0.3910  0.1415
24280SOL    HW184565   8.991  13.479   0.983 -0.1450  0.6496  1.7406
24280SOL    HW284566   8.949  13.567   0.867  1.6289  0.7757  1.1528
24281SOL     OW84567   7.892   6.022  12.617 -0.3766 -0.8448  0.5394
24281SOL    HW184568   7.957   5.982  12.559 -0.4496 -2.5311  1.5348
24281SOL    HW284569   7.913   6.115  12.618  0.0597 -0.8714 -1.5990
24282SOL     OW84570   2.967   7.703   8.120  0.2892 -0.7394  0.7891
24282SOL    HW184571   2.995   7.776   8.065  0.3863  0.6473  2.6020
24282SOL    HW284572   3.046   7.677   8.167  0.1376 -1.7124  0.5295
24283SOL     OW84573   9.520   9.042   2.962  0.6331 -0.9410 -0.1395
24283SOL    HW184574   9.467   8.963   2.969 -0.1027 -0.3361  1.8360
24283SOL    HW284575   9.610   9.013   2.979  0.3721 -1.3744  0.5194
24284SOL     OW84576   2.539   6.120   1.632  0.0241  0.5506  0.3239
24284SOL    HW184577   2.561   6.028   1.617 -0.9629  0.0142  1.8927
24284SOL    HW284578   2.471   6.140   1.568 -0.0850  0.0426  0.2798
24285SOL     OW84579  11.576   7.970   1.774  0.2506 -0.2157  0.5240
24285SOL    HW184580  11.609   8.038   1.833  0.4746 -0.7564  1.0391
24285SOL    HW284581  11.546   7.901   1.833 -3.6572  1.0034  0.2333
24286SOL     OW84582  10.733   0.885   1.478 -1.0768 -0.1136  0.5452
24286SOL    HW184583  10.709   0.905   1.569 -1.1316 -2.2271  1.0478
24286SOL    HW284584  10.657   0.909   1.427 -2.1583 -1.4825  1.4353
24287SOL     OW84585  10.055   4.820   1.395  0.2885 -0.2851  0.0485
24287SOL    HW184586  10.147   4.826   1.369  0.3375  1.1324  0.4634
24287SOL    HW284587  10.054   4.847   1.487 -0.4638 -0.9360  0.2471
24288SOL     OW84588   0.581   3.304   4.796  0.1686  0.2417 -0.5337
24288SOL    HW184589   0.565   3.220   4.839  0.9239  0.3128 -0.1004
24288SOL    HW284590   0.526   3.302   4.717 -0.6229 -0.2151  0.0202
24289SOL     OW84591   4.717   9.177   9.463  0.3380 -0.0490 -0.0687
24289SOL    HW184592   4.662   9.235   9.411 -1.1293 -1.2748  0.0220
24289SOL    HW284593   4.766   9.235   9.521  1.7228  1.3340 -2.4586
24290SOL     OW84594  10.100   0.529  11.662 -0.2800  0.3032  0.3993
24290SOL    HW184595  10.085   0.591  11.592 -0.0636 -0.6614 -0.5355
24290SOL    HW284596  10.063   0.447  11.630 -1.0519  0.0624  1.8237
24291SOL     OW84597   8.325  10.701   2.762 -0.0022  0.5915  0.4853
24291SOL    HW184598   8.414  10.684   2.732 -0.2491  1.4726 -0.8627
24291SOL    HW284599   8.317  10.797   2.759 -0.6803  0.5851  1.5611
24292SOL     OW84600   2.112   6.592   6.960  0.3820 -0.1073  0.3563
24292SOL    HW184601   2.195   6.568   6.921 -0.0291  2.3629 -2.4639
24292SOL    HW284602   2.046   6.551   6.904 -0.2240  2.1364 -0.7255
24293SOL     OW84603   0.249  11.261   5.637 -0.3095 -0.7096 -0.3680
24293SOL    HW184604   0.282  11.198   5.701  0.9088  0.4616  0.2285
24293SOL    HW284605   0.160  11.280   5.664 -0.3781 -1.5126 -0.0369
24294SOL     OW84606   7.603   6.059   4.127 -0.3765 -0.3154 -0.0435
24294SOL    HW184607   7.580   6.148   4.153 -1.0004 -1.0114  1.9632
24294SOL    HW284608   7.632   6.068   4.036 -0.1121  1.9730  0.1918
24295SOL     OW84609  10.391   8.393   1.019  0.3741 -0.3386  0.4674
24295SOL    HW184610  10.440   8.346   0.951  0.3321  1.6572 -1.0158
24295SOL    HW284611  10.457   8.413   1.085  0.5882 -1.5704  0.6639
24296SOL     OW84612   1.754   2.936   9.467  0.2014 -0.5122  0.0899
24296SOL    HW184613   1.744   2.969   9.377 -2.1456 -0.9699  0.1137
24296SOL    HW284614   1.828   2.876   9.462  0.5480 -0.0146 -1.3792
24297SOL     OW84615   6.757   7.188  10.695  0.2915 -0.4912  0.0004
24297SOL    HW184616   6.718   7.172  10.781  1.0562 -1.2208  0.2304
24297SOL    HW284617   6.709   7.130  10.636  1.8173 -2.3625  0.5074
24298SOL     OW84618   8.006  12.007  11.509 -0.0660  0.3953  0.3396
24298SOL    HW184619   8.053  11.986  11.428 -0.8779 -0.4723  0.0735
24298SOL    HW284620   8.045  12.089  11.539 -1.3332  2.0904 -2.2374
24299SOL     OW84621   9.855   4.817   6.267  0.2326 -0.7911  0.1396
24299SOL    HW184622   9.938   4.837   6.224  0.6174  1.3757  1.6883
24299SOL    HW284623   9.858   4.868   6.348 -2.1322 -1.5795  0.7916
24300SOL     OW84624  10.468   8.056   8.538  0.1121 -0.3795  0.6975
24300SOL    HW184625  10.411   8.101   8.600  2.1459  1.3632  1.4710
24300SOL    HW284626  10.541   8.024   8.591  1.1033 -0.2726 -0.5279
24301SOL     OW84627  11.320   3.577   6.318  0.6874  0.0250 -0.5942
24301SOL    HW184628  11.395   3.583   6.258  0.4860  0.9457 -0.7739
24301SOL    HW284629  11.327   3.656   6.372 -0.4877  0.4399 -1.0221
24302SOL     OW84630   4.195   0.399   6.305  0.3378 -0.0391  0.0034
24302SOL    HW184631   4.152   0.378   6.222  0.8902 -0.1237 -0.2702
24302SOL    HW284632   4.278   0.350   6.302  0.2025 -0.3344  0.7676
24303SOL     OW84633   9.603   3.528  11.547 -0.6409  0.1957 -0.5578
24303SOL    HW184634   9.616   3.602  11.487 -2.3451  1.3069  0.3629
24303SOL    HW284635   9.508   3.517  11.550 -0.4326 -3.2985 -2.0840
24304SOL     OW84636   7.393   3.019   0.182  0.1070  0.3422  0.5619
24304SOL    HW184637   7.411   3.092   0.123 -0.9141  1.5190  1.6462
24304SOL    HW284638   7.357   2.950   0.125  0.9197  0.7208 -0.4466
24305SOL     OW84639   6.167   5.001  10.451 -0.9846  0.4562  0.8507
24305SOL    HW184640   6.133   4.947  10.379 -1.7066  1.5912  0.3145
24305SOL    HW284641   6.098   4.997  10.518 -1.9800  2.2824  0.0021
24306SOL     OW84642  12.732   5.523   8.345 -0.0409  0.2302  0.2231
24306SOL    HW184643  12.661   5.588   8.343  0.5614  1.0120  1.9015
24306SOL    HW284644  12.812   5.574   8.332  0.2727 -0.5697 -1.0958
24307SOL     OW84645   3.892   3.251   8.511 -0.0761  0.4105  0.1535
24307SOL    HW184646   3.944   3.194   8.453 -2.1264 -0.0077 -1.4077
24307SOL    HW284647   3.810   3.204   8.523 -0.7629  1.7968  1.1364
24308SOL     OW84648   0.567   3.630   4.288 -0.8670  0.5310  0.3737
24308SOL    HW184649   0.577   3.539   4.314 -1.2973 -0.0496 -1.3144
24308SOL    HW284650   0.657   3.663   4.282 -0.7388  1.1648  3.8071
24309SOL     OW84651   7.747  13.142   1.082  0.8225 -0.2042 -0.5837
24309SOL    HW184652   7.679  13.085   1.119  1.7026 -0.3891  0.8116
24309SOL    HW284653   7.828  13.111   1.122  1.6118  0.6458 -1.4814
24310SOL     OW84654  12.577   5.536  12.104  0.0320  0.1361  0.5342
24310SOL    HW184655  12.570   5.628  12.078  0.4926  0.1125  0.3127
24310SOL    HW284656  12.625   5.538  12.187  0.2897  0.0781  0.3876
24311SOL     OW84657   1.458  12.340   3.109 -0.4996 -0.2874 -0.2770
24311SOL    HW184658   1.509  12.410   3.147  0.1384 -1.3804  0.9657
24311SOL    HW284659   1.379  12.335   3.163 -0.7547 -0.2428 -0.6392
24312SOL     OW84660   2.435  10.518   4.055  0.0707 -0.1387  0.4297
24312SOL    HW184661   2.388  10.498   3.975 -1.2521  0.1276  1.1111
24312SOL    HW284662   2.491  10.442   4.071  0.6223 -0.0394 -0.9104
24313SOL     OW84663  10.668  11.216  10.030 -0.2503  0.4943 -0.7504
24313SOL    HW184664  10.684  11.134   9.983 -0.9939 -0.1794  0.1174
24313SOL    HW284665  10.732  11.277   9.994  0.9951 -0.7354 -0.7427
24314SOL     OW84666   8.833   2.572   4.852  0.1096 -0.3492 -0.3203
24314SOL    HW184667   8.912   2.557   4.903  0.8177  1.3225 -0.8570
24314SOL    HW284668   8.833   2.666   4.835 -1.2529 -0.5372 -1.5464
24315SOL     OW84669   5.044   1.716  10.224  0.2975 -0.2300  0.6099
24315SOL    HW184670   5.024   1.743  10.313 -0.4123 -1.8835  0.9868
24315SOL    HW284671   5.000   1.780  10.168  1.1107  1.0772  1.4140
24316SOL     OW84672  10.653   6.193  11.470 -0.0284 -0.2543  1.1065
24316SOL    HW184673  10.664   6.225  11.380  1.1596 -2.1684  0.5076
24316SOL    HW284674  10.734   6.219  11.514  0.9164 -2.2351  0.6320
24317SOL     OW84675   6.264   8.917   4.979  0.2696 -0.1291  0.0331
24317SOL    HW184676   6.176   8.901   4.944  0.0764  0.0310  0.4398
24317SOL    HW284677   6.311   8.835   4.966  0.1918 -0.0813 -0.5715
24318SOL     OW84678  12.646   9.161   5.609  0.6014  0.4613 -0.1799
24318SOL    HW184679  12.601   9.201   5.683  0.9817  1.9673 -0.7310
24318SOL    HW284680  12.693   9.086   5.647 -0.5229  0.2152  0.7863
24319SOL     OW84681   6.615   5.508   9.594 -0.6719  0.2457  0.2768
24319SOL    HW184682   6.568   5.573   9.646 -3.4309 -0.6498 -0.8861
24319SOL    HW284683   6.561   5.429   9.599 -0.0645 -0.4526 -2.3416
24320SOL     OW84684   1.427   2.149   3.538 -0.9187  0.7074  0.0020
24320SOL    HW184685   1.482   2.096   3.480  0.8824  1.4318  1.0021
24320SOL    HW284686   1.354   2.175   3.482  0.3989  0.8149 -1.7713
24321SOL     OW84687   3.496   4.200   0.507  0.2305  0.4184  0.4961
24321SOL    HW184688   3.460   4.288   0.522  1.4584  1.1094 -0.4177
24321SOL    HW284689   3.588   4.207   0.531  0.4150 -0.5376  0.1131
24322SOL     OW84690   9.786   5.279   4.788 -0.5882  0.1688  0.2734
24322SOL    HW184691   9.794   5.225   4.709 -0.0267 -2.4876  2.0041
24322SOL    HW284692   9.703   5.325   4.778 -1.7938 -2.0788 -0.7944
24323SOL     OW84693  13.583   4.821   2.726 -0.2249  0.2452 -0.4411
24323SOL    HW184694  13.652   4.830   2.791 -0.3870 -0.2794 -0.1961
24323SOL    HW284695  13.502   4.829   2.776 -0.3528 -0.4869 -0.5292
24324SOL     OW84696   4.537   9.194   5.351  0.0317  0.6208  0.6249
24324SOL    HW184697   4.622   9.236   5.338  0.2031  0.1903  0.2933
24324SOL    HW284698   4.517   9.208   5.443  1.5772 -1.2604  1.3202
24325SOL     OW84699   1.471  12.442   0.485 -0.0521  0.4597 -0.0702
24325SOL    HW184700   1.397  12.503   0.494  1.1590  1.6415  2.9991
24325SOL    HW284701   1.436  12.358   0.515 -0.6090  0.5683 -0.3888
24326SOL     OW84702  11.273   9.979  11.246 -0.5008 -0.5242  0.0839
24326SOL    HW184703  11.312   9.968  11.333 -0.7159 -0.2608  0.2145
24326SOL    HW284704  11.329   9.927  11.188 -1.0442 -1.6571  0.5551
24327SOL     OW84705  11.700   8.504  11.504  0.1545  0.0364 -0.2889
24327SOL    HW184706  11.661   8.590  11.518 -3.3288 -0.9606 -2.7359
24327SOL    HW284707  11.676   8.454  11.581  0.6755  0.7207  0.3346
24328SOL     OW84708   8.715   4.546   6.768 -0.1419 -0.3938 -0.0576
24328SOL    HW184709   8.806   4.570   6.786 -0.3987  1.5229 -1.0571
24328SOL    HW284710   8.666   4.578   6.843 -0.0822 -0.9351  0.2209
24329SOL     OW84711   0.865   9.480   2.503 -0.4888 -0.1491  0.3344
24329SOL    HW184712   0.879   9.515   2.591  0.0232  0.5022  0.0038
24329SOL    HW284713   0.887   9.553   2.445  0.5060 -1.0023 -0.3709
24330SOL     OW84714   8.855   3.012  10.821  0.2083 -0.5269 -0.2622
24330SOL    HW184715   8.938   2.974  10.793 -0.2012 -1.9371  0.3205
24330SOL    HW284716   8.870   3.037  10.912  0.0258 -0.7168 -0.1784
24331SOL     OW84717  13.105   5.294   7.278 -0.0750 -0.1036 -0.6648
24331SOL    HW184718  13.100   5.269   7.186  1.7954 -0.0087 -0.8306
24331SOL    HW284719  13.114   5.389   7.276  2.7023 -0.3094 -0.5713
24332SOL     OW84720   8.427   9.969   6.098  0.1919 -0.3600  0.2499
24332SOL    HW184721   8.492   9.943   6.164  0.4080 -0.6911 -0.0926
24332SOL    HW284722   8.465  10.046   6.056  0.3009 -0.4723  0.1419
24333SOL     OW84723   3.243   6.897   7.165 -0.7004 -0.0822 -0.4049
24333SOL    HW184724   3.325   6.916   7.120 -0.3218 -3.6699 -1.5647
24333SOL    HW284725   3.177   6.949   7.119  0.5805  1.2016 -0.8703
24334SOL     OW84726  11.878   9.555   7.369  0.3728 -0.6180 -0.0153
24334SOL    HW184727  11.954   9.566   7.311 -0.6224 -0.1118 -1.2580
24334SOL    HW284728  11.829   9.636   7.360 -0.2594 -0.8910  0.8874
24335SOL     OW84729   7.215   9.788  12.175 -0.4107 -0.0952  0.3361
24335SOL    HW184730   7.306   9.765  12.158 -0.6768 -0.8246 -0.1854
24335SOL    HW284731   7.184   9.826  12.093 -1.5164 -3.0233 -0.7566
24336SOL     OW84732   5.231   1.562   7.813  0.0381  0.3717  0.3453
24336SOL    HW184733   5.186   1.522   7.887 -1.7792 -0.3373 -1.0554
24336SOL    HW284734   5.164   1.571   7.746  1.7170  0.5251 -1.4153
24337SOL     OW84735   4.426  12.417  12.526 -0.0076 -0.0965  0.1072
24337SOL    HW184736   4.333  12.424  12.549  0.3217  1.7193  1.0717
24337SOL    HW284737   4.472  12.462  12.596  1.8023 -2.5341  0.6268
24338SOL     OW84738   9.671  13.342   2.180  0.6331 -0.0272 -0.4803
24338SOL    HW184739   9.583  13.304   2.177  0.6344 -0.0673 -0.0009
24338SOL    HW284740   9.729  13.267   2.193  0.5432  0.2348  1.7059
24339SOL     OW84741   2.419   6.866   6.829  0.3472  0.6518  0.2691
24339SOL    HW184742   2.485   6.861   6.760  0.1711  0.0365  0.1415
24339SOL    HW284743   2.468   6.851   6.910  0.3175 -0.1164  0.1484
24340SOL     OW84744   8.983  12.717   4.524  0.6810  0.3516  0.0207
24340SOL    HW184745   8.893  12.749   4.526  0.3922 -0.4429  0.1440
24340SOL    HW284746   8.974  12.622   4.520  1.5013  0.0433  3.1304
24341SOL     OW84747  10.060  13.286   9.060 -0.6706 -0.1555 -0.3948
24341SOL    HW184748  10.105  13.206   9.032  1.0984  1.0487 -1.1860
24341SOL    HW284749  10.029  13.326   8.978 -3.3129 -0.9532  0.1262
24342SOL     OW84750  12.643   1.229  13.201 -0.2184 -0.3768  0.5197
24342SOL    HW184751  12.709   1.196  13.262 -0.0021 -0.0125  0.4846
24342SOL    HW284752  12.680   1.209  13.114 -0.4736 -0.7920  0.5036
24343SOL     OW84753   5.825  12.843   6.091  0.2449  0.2986  0.2280
24343SOL    HW184754   5.776  12.922   6.067 -0.4703 -0.4058 -0.6350
24343SOL    HW284755   5.815  12.838   6.186 -0.3250  0.8386  0.2056
24344SOL     OW84756   5.059   5.155   7.291 -0.1808 -0.1273  0.3326
24344SOL    HW184757   5.019   5.076   7.253 -1.5972  0.8062 -0.2418
24344SOL    HW284758   5.063   5.138   7.385  0.3687 -1.2207  0.1260
24345SOL     OW84759  10.277   4.564   4.818  0.1333  0.2473  0.7336
24345SOL    HW184760  10.251   4.619   4.744  0.2169 -0.0930  0.4530
24345SOL    HW284761  10.280   4.625   4.893  1.4868  0.9037  0.1891
24346SOL     OW84762   3.321   3.631   5.358  0.4094  0.0347  0.0619
24346SOL    HW184763   3.296   3.667   5.443 -0.7930  1.8799 -1.0176
24346SOL    HW284764   3.242   3.637   5.305  1.0686 -1.2991 -1.1420
24347SOL     OW84765   6.977   8.791  11.370 -0.5148 -0.2510 -0.1733
24347SOL    HW184766   7.023   8.715  11.406 -0.1374  0.6791  1.3903
24347SOL    HW284767   7.047   8.850  11.342 -0.7033  0.7556  1.3346
24348SOL     OW84768  11.324  13.162   9.761 -0.2735  0.8474  0.1923
24348SOL    HW184769  11.357  13.223   9.827 -0.5265  0.3434  0.8012
24348SOL    HW284770  11.293  13.087   9.812 -0.0123  0.2333 -0.5320
24349SOL     OW84771   4.261   9.634   9.092 -0.1647 -0.4411 -0.4056
24349SOL    HW184772   4.212   9.580   9.154 -1.1703  0.5303 -0.3086
24349SOL    HW284773   4.203   9.642   9.016  0.2311 -0.0223 -0.6704
24350SOL     OW84774   3.972   9.149  12.055  0.5083 -0.4515 -0.1177
24350SOL    HW184775   3.887   9.115  12.027  0.2548 -1.2317  1.5079
24350SOL    HW284776   3.973   9.137  12.150  0.8331  3.1831  0.4631
24351SOL     OW84777  10.987   3.219   4.507  0.3005 -0.3043  0.3030
24351SOL    HW184778  10.967   3.130   4.479 -0.4991  0.1119 -0.5029
24351SOL    HW284779  11.080   3.217   4.529  0.8924 -0.7920 -1.9752
24352SOL     OW84780  10.779   2.796   7.095 -0.2764 -0.6135 -0.5512
24352SOL    HW184781  10.692   2.773   7.126  0.3455 -0.7406  1.1782
24352SOL    HW284782  10.815   2.715   7.060  0.1514 -1.2330  1.2439
24353SOL     OW84783   4.024  12.412   1.614 -0.0461 -0.2362  0.0394
24353SOL    HW184784   4.087  12.341   1.629  0.2782  0.0371 -0.0018
24353SOL    HW284785   4.077  12.491   1.616 -0.2261 -0.0696 -0.9914
24354SOL     OW84786   8.924   3.178   0.758  0.5465  0.3354 -0.3091
24354SOL    HW184787   9.006   3.129   0.760  0.2227 -0.1971 -0.0042
24354SOL    HW284788   8.910   3.198   0.666  0.6700 -0.1581 -0.4349
24355SOL     OW84789   9.249   6.745   8.175 -0.1782 -0.0478  0.1976
24355SOL    HW184790   9.333   6.721   8.214  0.4954 -0.9548 -1.7332
24355SOL    HW284791   9.251   6.840   8.171  0.3737 -0.0172  0.9428
24356SOL     OW84792   9.373  13.250   7.384  0.7663  0.1396  0.0864
24356SOL    HW184793   9.304  13.314   7.402 -1.3624 -1.5449 -1.4568
24356SOL    HW284794   9.441  13.300   7.338  0.2554  1.7227  0.9843
24357SOL     OW84795   6.580   9.533   9.565  0.1436  0.1574 -0.0074
24357SOL    HW184796   6.596   9.564   9.475  0.4702  0.5335  0.1775
24357SOL    HW284797   6.621   9.447   9.568 -1.1554 -0.5185 -0.6620
24358SOL     OW84798   6.163   8.915  13.280 -0.4676  0.1217  0.9858
24358SOL    HW184799   6.119   8.973  13.218 -0.6438 -2.4356 -1.4895
24358SOL    HW284800   6.231   8.872  13.228 -1.0935 -2.7198  2.3393
24359SOL     OW84801  12.713   3.242   2.713 -0.4140  0.2754  0.0865
24359SOL    HW184802  12.658   3.163   2.718  0.5562 -0.4132  0.0535
24359SOL    HW284803  12.738   3.258   2.804  0.9257 -0.5680 -0.1174
24360SOL     OW84804   4.570  13.352   1.030 -0.4979 -0.2536 -0.8656
24360SOL    HW184805   4.660  13.365   1.060 -0.4865 -0.9410 -0.5789
24360SOL    HW284806   4.574  13.370   0.936 -0.4015  1.2655 -0.5931
24361SOL     OW84807  12.993   6.877  13.488 -0.4587 -0.8966 -0.7951
24361SOL    HW184808  12.981   6.786  13.459 -0.3230 -1.1682 -0.0364
24361SOL    HW284809  12.931   6.928  13.436 -1.6009 -1.6319 -0.1844
24362SOL     OW84810  13.447   2.117   7.167  0.0162  0.4996  0.2456
24362SOL    HW184811  13.406   2.191   7.213 -0.0258  0.7645 -0.2171
24362SOL    HW284812  13.415   2.124   7.077  0.4833  0.2614  0.0592
24363SOL     OW84813   9.702   1.060  11.206 -0.0759  0.5182 -0.0632
24363SOL    HW184814   9.720   1.088  11.295  0.7254 -1.3753  0.4391
24363SOL    HW284815   9.789   1.044  11.168 -0.4021 -1.9834  0.0205
24364SOL     OW84816   6.242   8.561  10.636 -0.4138 -0.0545 -0.6542
24364SOL    HW184817   6.199   8.609  10.566 -1.7047 -2.5556 -1.7092
24364SOL    HW284818   6.335   8.578  10.623 -0.7832  1.7997 -1.1792
24365SOL     OW84819   4.810   5.549   5.161 -0.1716 -0.3815 -0.0689
24365SOL    HW184820   4.845   5.527   5.247  1.8167  2.5257  0.0211
24365SOL    HW284821   4.771   5.636   5.173 -1.0736 -0.5105 -1.8129
24366SOL     OW84822   6.172   1.298   1.882 -0.0262 -0.0167  0.2494
24366SOL    HW184823   6.206   1.258   1.802  0.7942 -0.1517  0.6580
24366SOL    HW284824   6.079   1.274   1.883  0.1522 -0.7639 -0.2095
24367SOL     OW84825   2.774   3.110   4.688 -0.2562 -0.8116 -0.0683
24367SOL    HW184826   2.745   3.029   4.731  1.0166 -1.5471 -0.5364
24367SOL    HW284827   2.701   3.133   4.630 -1.4250 -0.5574  1.4238
24368SOL     OW84828   5.218   1.830   5.189 -0.5625  0.1790 -0.3327
24368SOL    HW184829   5.152   1.772   5.227  0.8834 -0.3984  1.4903
24368SOL    HW284830   5.263   1.775   5.124 -0.4514 -0.1484  0.0133
24369SOL     OW84831   6.781   7.008   6.774  0.4012  0.1236 -0.1123
24369SOL    HW184832   6.862   7.056   6.762  0.5762 -0.2848 -0.6312
24369SOL    HW284833   6.796   6.953   6.852  1.2971 -1.2770 -1.2242
24370SOL     OW84834   6.207   8.812   1.887  0.2146 -0.0650  0.3261
24370SOL    HW184835   6.216   8.728   1.930  1.0378  0.3145  0.9261
24370SOL    HW284836   6.288   8.823   1.838  0.2800  0.5386  0.5555
24371SOL     OW84837   8.148  11.574   9.790 -0.0640  0.5427  0.4790
24371SOL    HW184838   8.101  11.498   9.823 -1.0458  0.5310 -0.8965
24371SOL    HW284839   8.236  11.566   9.829 -0.2399 -1.1160  0.5957
24372SOL     OW84840   6.768   7.407   6.301  0.0254  0.1533 -0.6164
24372SOL    HW184841   6.812   7.413   6.386  0.1318 -0.4883 -0.6276
24372SOL    HW284842   6.716   7.487   6.296 -1.1869 -0.5165  0.7244
24373SOL     OW84843   8.619   2.104   6.518 -0.2292 -0.0234 -0.0499
24373SOL    HW184844   8.667   2.072   6.594 -1.6515 -0.0304  0.8965
24373SOL    HW284845   8.620   2.032   6.455  1.4244  0.1826 -0.2847
24374SOL     OW84846  11.980   9.363   9.448  0.3157  0.4535  0.6004
24374SOL    HW184847  11.983   9.268   9.433 -1.4749  0.1606  1.7940
24374SOL    HW284848  11.970   9.400   9.360 -0.3269 -0.5604  0.2241
24375SOL     OW84849   5.050   7.053  10.601  0.4679  0.0394  0.3266
24375SOL    HW184850   5.019   7.002  10.526 -1.8531  2.1073 -0.2181
24375SOL    HW284851   5.107   7.120  10.562  0.7707 -0.0289  0.6454
24376SOL     OW84852   1.156  10.434  12.195 -0.1311 -0.0152  0.1955
24376SOL    HW184853   1.158  10.358  12.136 -0.7678 -1.4095  1.8766
24376SOL    HW284854   1.180  10.398  12.281  2.3514  2.2286  0.5661
24377SOL     OW84855   4.949   1.207   7.142 -0.4508  0.3663 -0.0276
24377SOL    HW184856   4.961   1.300   7.162 -2.3668  0.5491  0.4392
24377SOL    HW284857   4.865   1.202   7.096 -0.5383 -1.1667  0.2282
24378SOL     OW84858   2.451   4.849   8.290 -0.3457 -0.2750 -0.2262
24378SOL    HW184859   2.360   4.844   8.263  0.1190  0.2896 -2.0539
24378SOL    HW284860   2.476   4.941   8.278  0.6215 -0.5384 -0.3911
24379SOL     OW84861   1.778   8.976   8.121 -0.2931  0.6175 -0.4520
24379SOL    HW184862   1.795   9.059   8.164 -0.0005  0.1040  0.4537
24379SOL    HW284863   1.690   8.950   8.149  0.3292 -0.2616  0.7939
24380SOL     OW84864   1.045   8.639   0.562 -0.1126  0.0757 -0.0056
24380SOL    HW184865   1.103   8.680   0.626 -0.2679  0.1752  0.0709
24380SOL    HW284866   1.080   8.551   0.551  0.4671  0.3627 -0.4761
24381SOL     OW84867  12.119  12.956   1.998 -0.3414 -0.2091 -0.5423
24381SOL    HW184868  12.034  12.976   2.038 -0.8865  1.0805 -2.2236
24381SOL    HW284869  12.096  12.903   1.921  0.1518  1.6923 -2.0697
24382SOL     OW84870   0.741  12.733  10.932  0.1043 -0.4843  0.8308
24382SOL    HW184871   0.705  12.814  10.895  0.8611 -1.2849 -1.8641
24382SOL    HW284872   0.668  12.695  10.982 -1.5230 -0.0396 -1.0853
24383SOL     OW84873   1.623   7.849   4.649  0.3963  0.1471  0.2554
24383SOL    HW184874   1.682   7.824   4.578 -0.3586 -0.1063 -0.2946
24383SOL    HW284875   1.639   7.943   4.661 -1.2088  0.7920 -1.9771
24384SOL     OW84876  10.078   7.090  10.884 -0.0775 -0.3849 -0.3789
24384SOL    HW184877  10.148   7.026  10.874 -0.2425 -1.4576  3.5833
24384SOL    HW284878   9.997   7.038  10.881 -0.3379 -0.0651  0.6329
24385SOL     OW84879   9.232   4.510   9.092  0.1051 -0.0326 -0.1805
24385SOL    HW184880   9.254   4.419   9.075 -1.9553 -0.1395 -3.0484
24385SOL    HW284881   9.309   4.560   9.066  0.7894 -0.8664  0.2178
24386SOL     OW84882   9.435   9.423   6.216 -0.6398  0.2233 -0.0111
24386SOL    HW184883   9.376   9.468   6.155 -1.7045 -0.2840  0.6257
24386SOL    HW284884   9.381   9.356   6.257  0.8806 -1.6138 -0.8600
24387SOL     OW84885  12.286   5.666   0.264  0.5193 -0.6124 -0.2231
24387SOL    HW184886  12.295   5.602   0.334  1.0862 -0.2691  0.0244
24387SOL    HW284887  12.351   5.639   0.198  0.3671 -0.6181 -0.3712
24388SOL     OW84888   9.136   5.075   3.720 -0.2126 -0.1801  0.5008
24388SOL    HW184889   9.206   5.010   3.719 -1.6585 -1.8964 -1.8435
24388SOL    HW284890   9.177   5.156   3.690  1.2333 -0.4399  1.6531
24389SOL     OW84891  10.789   4.190   5.161 -0.5666  0.1291  0.2138
24389SOL    HW184892  10.701   4.225   5.173 -1.6684 -1.7804 -1.7531
24389SOL    HW284893  10.799   4.181   5.066  0.5961 -2.4097  0.5006
24390SOL     OW84894   0.200   3.016   8.321  0.2504 -0.4839  0.1595
24390SOL    HW184895   0.169   3.056   8.239  1.3755 -2.2015 -1.1869
24390SOL    HW284896   0.282   3.062   8.340  0.3755 -0.5847 -0.1226
24391SOL     OW84897  11.638   9.610  12.231 -0.1797 -0.0618  0.1995
24391SOL    HW184898  11.588   9.647  12.158  0.0956 -0.9295 -0.4564
24391SOL    HW284899  11.719   9.579  12.191 -0.3022 -1.1414  0.7419
24392SOL     OW84900   7.075   6.128   7.169  0.1275  0.4195 -0.3813
24392SOL    HW184901   7.035   6.181   7.099  0.1633 -0.4253 -1.0641
24392SOL    HW284902   7.023   6.048   7.170  0.7830 -0.0101 -0.1501
24393SOL     OW84903   2.253   2.432  13.526 -0.5201 -0.5749  0.1309
24393SOL    HW184904   2.285   2.414  13.615  0.0909 -1.0337 -0.1747
24393SOL    HW284905   2.226   2.346  13.493  0.1889 -0.5614 -0.4890
24394SOL     OW84906  12.472   5.509   3.240 -0.1570  0.0245 -0.0162
24394SOL    HW184907  12.537   5.566   3.200  1.4831 -1.1532  0.8712
24394SOL    HW284908  12.476   5.529   3.333  0.8163 -1.7926  0.3963
24395SOL     OW84909   5.907  12.193   4.883 -0.3086 -0.2374 -0.0155
24395SOL    HW184910   5.954  12.180   4.801  0.2812  2.1309 -0.1418
24395SOL    HW284911   5.856  12.113   4.895  1.7221 -1.8090 -1.2247
24396SOL     OW84912  13.336   2.207   8.819 -0.5160 -0.1420  0.1499
24396SOL    HW184913  13.346   2.301   8.802 -1.4770  0.2427  1.5107
24396SOL    HW284914  13.396   2.189   8.891 -0.6506 -0.4666  0.1815
24397SOL     OW84915  12.632  11.239   8.327  0.4741  0.6014  0.2131
24397SOL    HW184916  12.725  11.224   8.344  0.9342 -1.1057 -2.9931
24397SOL    HW284917  12.594  11.259   8.413  3.4940 -0.2179  1.8580
24398SOL     OW84918   5.867   7.914   8.739 -0.1528 -0.7426  0.3253
24398SOL    HW184919   5.946   7.885   8.784  0.4789  0.8793  0.3315
24398SOL    HW284920   5.871   8.010   8.742 -1.3783 -0.6136 -0.9586
24399SOL     OW84921   7.793   1.739  11.040 -0.3488 -0.2857 -0.3383
24399SOL    HW184922   7.747   1.723  10.958  0.7796 -1.0140 -0.8680
24399SOL    HW284923   7.885   1.746  11.014  0.0893 -1.0256  0.9168
24400SOL     OW84924  11.964   9.701   7.755 -0.4469  0.3877  0.2890
24400SOL    HW184925  11.881   9.653   7.766  0.4478 -1.0022  1.2865
24400SOL    HW284926  12.008   9.694   7.839  1.2618 -0.0374 -0.5886
24401SOL     OW84927   9.240   6.225  12.556  0.4684 -0.2118  0.4523
24401SOL    HW184928   9.280   6.191  12.636  1.5247  1.0081  0.4747
24401SOL    HW284929   9.158   6.177  12.548  0.5823 -0.7133  1.9867
24402SOL     OW84930   2.397   0.220  11.520  0.2780  0.7697 -0.1614
24402SOL    HW184931   2.363   0.137  11.486  0.6276  0.7264 -0.4109
24402SOL    HW284932   2.354   0.286  11.466  0.3848  0.7261 -0.3016
24403SOL     OW84933   6.834   6.894  12.354  0.0766 -0.3255 -0.3739
24403SOL    HW184934   6.832   6.817  12.411  1.4381 -1.5584 -1.9015
24403SOL    HW284935   6.872   6.863  12.272  0.4284  1.9184 -1.1439
24404SOL     OW84936   6.683   5.035   2.999  0.4676 -0.3334 -0.8912
24404SOL    HW184937   6.652   4.945   3.001  0.2053 -0.2731  1.6418
24404SOL    HW284938   6.777   5.028   2.983  0.7027 -1.1951  0.6820
24405SOL     OW84939   8.312   7.670  10.842 -0.3268  0.1366 -0.0525
24405SOL    HW184940   8.226   7.712  10.844 -1.9312 -2.7847 -1.0065
24405SOL    HW284941   8.327   7.651  10.749  1.9515  1.5880 -0.0510
24406SOL     OW84942  11.224   2.481  12.849  0.2381  0.6428  0.4868
24406SOL    HW184943  11.185   2.491  12.936  1.1590  0.2284  0.9586
24406SOL    HW284944  11.151   2.494  12.789 -0.9966 -1.6469  1.3678
24407SOL     OW84945   3.109   0.830   4.614 -0.1648  0.3111  0.2897
24407SOL    HW184946   3.106   0.739   4.585  0.2007  0.0339  1.1019
24407SOL    HW284947   3.050   0.876   4.554 -0.9573 -0.5932  0.3510
24408SOL     OW84948  11.256  12.735   6.507 -0.2168 -0.0029 -0.1637
24408SOL    HW184949  11.318  12.662   6.516 -0.2248  0.1409  1.4766
24408SOL    HW284950  11.178  12.706   6.556 -0.5457  0.7531 -0.2234
24409SOL     OW84951   7.874   5.927   6.865 -0.8961 -0.3532 -0.1100
24409SOL    HW184952   7.933   5.875   6.810 -1.9355  0.5831 -2.2228
24409SOL    HW284953   7.908   6.016   6.859 -1.1862 -0.1909  0.5740
24410SOL     OW84954  10.818  11.344  12.863 -0.2574 -0.3206 -0.8863
24410SOL    HW184955  10.760  11.269  12.879 -0.5688  0.1115  0.0906
24410SOL    HW284956  10.785  11.383  12.782 -1.0143 -0.3932 -0.6268
24411SOL     OW84957   8.996   5.007  13.515 -0.5565 -0.2964  0.4140
24411SOL    HW184958   9.080   5.053  13.513 -1.0078  0.5816  0.7192
24411SOL    HW284959   8.935   5.069  13.475 -1.2410 -0.5197  1.0885
24412SOL     OW84960   5.019  13.029  13.136  0.0098  0.6814 -0.0928
24412SOL    HW184961   4.952  13.088  13.102  0.5695  1.0869 -0.5222
24412SOL    HW284962   5.026  12.960  13.070  0.6220  1.1090 -0.4882
24413SOL     OW84963  11.992   9.184   6.471 -0.6486  0.2488 -0.1517
24413SOL    HW184964  12.056   9.170   6.541  1.5378 -0.1937 -2.1376
24413SOL    HW284965  11.968   9.276   6.479  1.7561  0.9657 -0.5255
24414SOL     OW84966  11.569   9.736   0.100  0.0869 -0.1761 -0.2281
24414SOL    HW184967  11.554   9.737   0.195  0.6456  0.4115 -0.1385
24414SOL    HW284968  11.494   9.689   0.064  1.3732 -3.1856  0.7472
24415SOL     OW84969   3.118  13.691   3.975 -0.4696  0.2320 -0.1431
24415SOL    HW184970   3.106  13.633   4.051  1.3253 -0.5497 -0.3950
24415SOL    HW284971   3.122  13.779   4.012  0.5822 -0.1549  0.7282
24416SOL     OW84972   1.272  12.692   3.245 -0.2092 -0.4732  0.0719
24416SOL    HW184973   1.204  12.679   3.179  0.1755  2.6966 -1.1280
24416SOL    HW284974   1.258  12.781   3.277  1.8525 -0.6361  1.6436
24417SOL     OW84975   3.540   7.733  12.355 -0.3853 -0.1640  0.1570
24417SOL    HW184976   3.497   7.780  12.283 -0.9075  0.6765  0.9852
24417SOL    HW284977   3.472   7.726  12.422  0.7652  1.3366  1.5638
24418SOL     OW84978   5.300   1.011  11.665 -0.2108  0.7772  0.1332
24418SOL    HW184979   5.326   1.078  11.602 -0.6291  1.9895  1.2167
24418SOL    HW284980   5.298   1.056  11.749 -0.9523 -0.4830  0.8236
24419SOL     OW84981   7.445   9.950   8.957  0.0623 -0.6202 -0.2497
24419SOL    HW184982   7.389   9.891   9.007 -1.2010 -2.0427 -3.0902
24419SOL    HW284983   7.453  10.028   9.011 -3.6839 -0.8199  0.8225
24420SOL     OW84984   4.141   8.128   9.418  0.1789  0.0189 -0.2196
24420SOL    HW184985   4.056   8.128   9.374  0.4563  0.6576 -0.7757
24420SOL    HW284986   4.119   8.140   9.511 -0.4233 -1.6282 -0.1097
24421SOL     OW84987   8.525  12.034  11.076  0.0018  0.1132  0.1858
24421SOL    HW184988   8.594  11.988  11.123  0.1804 -0.2110 -0.3826
24421SOL    HW284989   8.458  11.968  11.061 -0.9044  0.6576  1.6144
24422SOL     OW84990   8.644   5.114   9.724 -0.6780 -0.2432  0.0610
24422SOL    HW184991   8.674   5.185   9.781  1.7685 -1.4924  0.4738
24422SOL    HW284992   8.578   5.155   9.668  1.3239  2.6724 -0.4327
24423SOL     OW84993  12.324   4.964  11.748 -0.1500 -0.0287 -0.1368
24423SOL    HW184994  12.386   4.939  11.817 -0.3337  1.0809  0.4474
24423SOL    HW284995  12.379   5.001  11.679 -0.1149  0.5724  0.2068
24424SOL     OW84996   7.865   8.088   5.178  0.0086 -0.0163 -0.0611
24424SOL    HW184997   7.953   8.125   5.175  0.1212 -0.3190 -0.5164
24424SOL    HW284998   7.873   8.013   5.238  0.0538 -0.0244 -0.0769
24425SOL     OW84999  10.176   7.853   7.593 -0.4435 -0.0532 -0.0442
24425SOL    HW185000  10.092   7.828   7.632 -0.4482  1.2697  0.8795
24425SOL    HW285001  10.241   7.828   7.659 -0.1924 -0.2884 -0.3809
24426SOL     OW85002  10.833   0.712  12.018  0.4618  0.0931 -0.4259
24426SOL    HW185003  10.743   0.737  12.037  0.0901 -1.1533 -0.4785
24426SOL    HW285004  10.885   0.789  12.042 -0.5139  0.4697  0.5225
24427SOL     OW85005   3.418  12.852   3.854 -0.1597 -0.2939 -0.0241
24427SOL    HW185006   3.328  12.820   3.865 -0.5312  0.8963  0.6392
24427SOL    HW285007   3.448  12.813   3.773 -1.7269  0.2483 -0.9069
24428SOL     OW85008  11.093   8.143   8.501  0.0805 -0.0578 -0.2149
24428SOL    HW185009  11.103   8.238   8.502 -1.3581  0.1551 -1.3192
24428SOL    HW285010  11.153   8.113   8.432 -1.7081  0.4569 -2.1248
24429SOL     OW85011   4.072   4.319   9.917  0.2173 -0.3010 -0.2098
24429SOL    HW185012   4.052   4.227   9.930 -0.2483 -0.6056 -2.5155
24429SOL    HW285013   4.094   4.325   9.823  1.4628  1.7134  0.1486
24430SOL     OW85014  11.799   6.848  10.525 -0.0202 -0.6514  0.3393
24430SOL    HW185015  11.829   6.882  10.441  0.7537 -2.3948 -0.1346
24430SOL    HW285016  11.704   6.858  10.523  0.1597  1.4014  0.2429
24431SOL     OW85017   2.543   9.774   8.661  0.6300  0.1675  0.0892
24431SOL    HW185018   2.509   9.863   8.649 -1.2105 -0.5258 -0.1514
24431SOL    HW285019   2.510   9.725   8.586  1.8155 -0.6879  0.0958
24432SOL     OW85020   7.530   2.303   1.008 -0.2021  0.7926  0.0961
24432SOL    HW185021   7.592   2.351   0.953  0.3240 -0.2846 -0.2873
24432SOL    HW285022   7.495   2.235   0.950 -1.4640  1.1536  0.4215
24433SOL     OW85023   2.777  11.752  11.537 -0.1099  0.1913 -0.5155
24433SOL    HW185024   2.759  11.713  11.622 -0.4531  0.7112 -0.3437
24433SOL    HW285025   2.698  11.733  11.485  0.0381 -0.0003 -0.6704
24434SOL     OW85026   0.189   8.477   6.844  0.0695  0.0759  0.6193
24434SOL    HW185027   0.148   8.508   6.924 -0.6534  0.5398  0.0853
24434SOL    HW285028   0.221   8.557   6.801 -0.0460 -0.1119  0.1801
24435SOL     OW85029  13.076   0.350   5.974  0.0452  0.3232 -0.7276
24435SOL    HW185030  13.072   0.372   5.881 -1.1916  1.0179 -0.5234
24435SOL    HW285031  13.038   0.425   6.019 -1.6225 -0.9869  0.1697
24436SOL     OW85032   7.743   3.368   6.793 -0.1101 -0.1771 -0.1635
24436SOL    HW185033   7.679   3.424   6.837  1.0708  1.9777 -1.0648
24436SOL    HW285034   7.812   3.354   6.858 -0.9715 -1.6711  0.4721
24437SOL     OW85035   3.953  12.631   4.040 -0.5664  0.4077 -0.3849
24437SOL    HW185036   3.874  12.646   4.093  0.8809 -0.7059  2.3161
24437SOL    HW285037   3.977  12.718   4.008 -0.6046  1.5253  2.3045
24438SOL     OW85038  12.997   1.408   0.888 -0.1989  0.1659  0.6808
24438SOL    HW185039  13.031   1.361   0.965  1.1243  1.9186  1.2321
24438SOL    HW285040  13.045   1.371   0.814 -0.3658 -0.4672  0.8827
24439SOL     OW85041   0.371   6.579   8.046  0.1979 -0.0850  0.0305
24439SOL    HW185042   0.278   6.571   8.027  0.4110 -0.3734 -0.9240
24439SOL    HW285043   0.390   6.506   8.104 -0.0474 -0.3648 -0.2388
24440SOL     OW85044  12.909   7.274   4.756  0.7268 -0.4441  0.2748
24440SOL    HW185045  12.900   7.275   4.851  2.3210  0.1873  0.4457
24440SOL    HW285046  12.994   7.232   4.740  1.7398  1.7912 -0.7014
24441SOL     OW85047  10.861   0.364   0.562 -0.1478 -0.5227  0.1436
24441SOL    HW185048  10.788   0.386   0.620 -0.4576  0.0125 -0.4302
24441SOL    HW285049  10.912   0.445   0.556 -1.2331  0.1061 -1.9051
24442SOL     OW85050   4.610  11.730   8.652  0.0402  0.0446  0.5188
24442SOL    HW185051   4.690  11.751   8.700  0.6214 -1.0148  0.0309
24442SOL    HW285052   4.539  11.758   8.710  0.7313 -0.9115  1.8680
24443SOL     OW85053   2.975   5.493   7.538  0.2137  0.2213 -0.4353
24443SOL    HW185054   2.989   5.399   7.551 -0.7395  0.1061 -0.1293
24443SOL    HW285055   3.005   5.534   7.619 -0.0135  0.1072 -0.2918
24444SOL     OW85056   2.330  12.076  13.156 -0.6072 -0.0189 -0.2101
24444SOL    HW185057   2.252  12.025  13.179 -0.3084 -0.0799  0.6839
24444SOL    HW285058   2.354  12.122  13.237  0.9077 -0.8295 -0.1714
24445SOL     OW85059   9.322  12.346  10.623  0.4934  0.3199 -0.1926
24445SOL    HW185060   9.243  12.293  10.610  1.6129 -1.0850 -1.7331
24445SOL    HW285061   9.340  12.337  10.717  0.1844 -1.4149 -0.2523
24446SOL     OW85062   6.499   1.889  12.060 -0.0490  0.0294 -0.2692
24446SOL    HW185063   6.457   1.962  12.106  1.1067  0.1605  0.6256
24446SOL    HW285064   6.538   1.836  12.130  1.7109  0.2056 -1.0495
24447SOL     OW85065   2.317  11.918  12.053  0.6225  0.2216  0.1787
24447SOL    HW185066   2.250  11.864  12.095  0.6639 -0.5147 -0.6699
24447SOL    HW285067   2.398  11.868  12.065  0.7772  0.4265 -0.0076
24448SOL     OW85068   3.929  12.675   5.882  0.2849 -0.4203  0.2347
24448SOL    HW185069   3.893  12.662   5.793 -0.5537  0.1700  0.4734
24448SOL    HW285070   3.968  12.762   5.880  0.2362 -0.3935  0.4578
24449SOL     OW85071  13.474   6.914   5.906  0.0211  0.2789  0.1854
24449SOL    HW185072  13.391   6.875   5.878 -0.5177  1.3433  0.2647
24449SOL    HW285073  13.490   6.878   5.993 -0.0282 -0.4206 -0.0907
24450SOL     OW85074  10.014  10.737   7.877 -0.2923  0.0385  0.0794
24450SOL    HW185075  10.038  10.655   7.833 -1.0576  0.5730 -1.4050
24450SOL    HW285076   9.973  10.789   7.808 -1.4000  0.9883  1.4202
24451SOL     OW85077   3.576   5.919   4.259 -0.6381  0.4503  0.2533
24451SOL    HW185078   3.578   6.011   4.233 -0.8535  0.3296 -0.2006
24451SOL    HW285079   3.590   5.871   4.178 -1.8809  0.0571  0.2582
24452SOL     OW85080   7.355   9.884   9.575 -0.5746 -0.4145  0.3333
24452SOL    HW185081   7.348   9.979   9.566 -0.3631 -0.3924  0.4078
24452SOL    HW285082   7.431   9.871   9.632  0.5404 -0.7035 -1.1664
24453SOL     OW85083  12.433   0.930  12.058 -0.1283 -0.1596 -0.1456
24453SOL    HW185084  12.413   0.884  11.977 -0.9867 -0.9875  0.5178
24453SOL    HW285085  12.360   0.991  12.070  0.6076  0.8556 -0.6053
24454SOL     OW85086   4.165   0.243   4.898  0.1223  0.2135 -0.3222
24454SOL    HW185087   4.255   0.216   4.916  0.1128 -1.0803 -1.9497
24454SOL    HW285088   4.173   0.332   4.864  0.6620  0.5139  0.5526
24455SOL     OW85089   6.349   9.597   5.840  0.1483  0.3138  0.3302
24455SOL    HW185090   6.259   9.614   5.812 -0.6874  2.3090  3.7267
24455SOL    HW285091   6.344   9.517   5.891  0.8648 -0.9179 -1.4097
24456SOL     OW85092   4.623  13.692   3.457 -0.1770  0.0740 -0.0961
24456SOL    HW185093   4.661  13.762   3.511  0.6413  0.0194 -0.5935
24456SOL    HW285094   4.669  13.698   3.374 -0.3603 -0.8250 -0.2712
24457SOL     OW85095   2.871   9.971  10.959  0.3482 -0.4468  0.3308
24457SOL    HW185096   2.850   9.932  11.044  1.0316  1.8069  1.5849
24457SOL    HW285097   2.786   9.998  10.924  0.0317 -1.6440  0.1056
24458SOL     OW85098   7.924   1.949   5.370 -0.5335 -0.3039 -0.3552
24458SOL    HW185099   7.857   2.017   5.370 -1.5979 -1.2569 -2.2719
24458SOL    HW285100   7.975   1.965   5.449 -1.3851  2.0561 -0.2066
24459SOL     OW85101  10.115   5.088   1.224  0.2443 -0.6201  0.1537
24459SOL    HW185102  10.194   5.035   1.234  0.8852  0.5833  2.1836
24459SOL    HW285103  10.116   5.147   1.300 -1.1283  1.3604 -1.2536
24460SOL     OW85104  10.621   9.957   3.986 -0.2822  0.7340  0.0657
24460SOL    HW185105  10.586   9.926   4.070  0.4382 -1.8548 -0.4847
24460SOL    HW285106  10.545   9.959   3.928 -0.4428  0.4517  0.2628
24461SOL     OW85107  12.848  13.240   8.152 -0.1470 -0.5480  0.3270
24461SOL    HW185108  12.820  13.187   8.077 -0.6348 -0.7464  0.6499
24461SOL    HW285109  12.941  13.256   8.135 -0.1593 -0.9131 -0.1291
24462SOL     OW85110  11.450   7.449   8.634 -0.4137  0.2851  0.2231
24462SOL    HW185111  11.539   7.475   8.659 -1.0453  1.1780  1.6626
24462SOL    HW285112  11.439   7.362   8.673 -0.5291  0.6264  0.9654
24463SOL     OW85113   2.706   3.568  10.189 -0.4584  0.4813  0.1445
24463SOL    HW185114   2.791   3.599  10.221  0.1356 -1.0180  0.1328
24463SOL    HW285115   2.684   3.629  10.118 -0.9344  2.7660  2.1433
24464SOL     OW85116  10.147   3.641   4.556 -0.0331  0.2357  0.3861
24464SOL    HW185117  10.059   3.677   4.560 -0.4717 -0.6636 -0.6188
24464SOL    HW285118  10.163   3.625   4.463  1.3052  0.6433  0.5174
24465SOL     OW85119   3.943   2.404   8.858 -0.0270  0.3194  0.0093
24465SOL    HW185120   3.922   2.322   8.903  2.6242 -0.8228 -0.6645
24465SOL    HW285121   3.964   2.466   8.928 -0.4134 -0.0568  0.4618
24466SOL     OW85122  13.171   3.794   6.419  0.0930  0.2913  0.4248
24466SOL    HW185123  13.240   3.758   6.364  0.0230  0.2856  0.3397
24466SOL    HW285124  13.189   3.888   6.422 -1.0758  0.6123 -1.3205
24467SOL     OW85125   4.932   6.601  13.106 -0.4130 -0.5216  0.3328
24467SOL    HW185126   4.875   6.574  13.034  1.2065 -0.4164 -1.0610
24467SOL    HW285127   4.926   6.530  13.169 -0.2880 -1.6400 -0.8739
24468SOL     OW85128  11.604   9.927   6.503 -0.1774 -0.3091 -0.6026
24468SOL    HW185129  11.594   9.998   6.567 -2.0736  1.1877 -2.4143
24468SOL    HW285130  11.561   9.852   6.543 -2.1880  0.8583 -0.4544
24469SOL     OW85131  10.294   9.567   7.392 -0.1479 -0.6986 -0.0847
24469SOL    HW185132  10.200   9.581   7.397 -0.1449 -0.7987  0.2254
24469SOL    HW285133  10.321   9.618   7.316 -0.0010  1.6692  1.4776
24470SOL     OW85134   8.193   0.089   7.750 -0.0360  0.1168 -0.0720
24470SOL    HW185135   8.284   0.062   7.737 -0.2737 -0.8263  0.1466
24470SOL    HW285136   8.148   0.064   7.669 -0.6622 -2.0083  0.8580
24471SOL     OW85137   4.252   9.575   6.798  0.7087 -0.4370  0.0726
24471SOL    HW185138   4.171   9.625   6.795  0.0256 -1.4153  1.2333
24471SOL    HW285139   4.242   9.510   6.728 -1.4607 -3.2618  2.7047
24472SOL     OW85140  13.696   8.377   3.930 -0.2893 -0.0403  0.6541
24472SOL    HW185141  13.636   8.445   3.897 -0.4265 -0.6707 -0.4544
24472SOL    HW285142  13.775   8.426   3.956 -0.0803  0.4968 -0.8691
24473SOL     OW85143  10.466  12.548  12.882  0.1670 -0.0272  0.5663
24473SOL    HW185144  10.400  12.560  12.814 -0.6834 -0.6739  1.2436
24473SOL    HW285145  10.500  12.636  12.899  0.8463  0.0570 -1.1124
24474SOL     OW85146   3.485   1.355   6.061 -0.1602 -0.3113  0.2347
24474SOL    HW185147   3.568   1.341   6.017 -0.3542 -0.6469 -0.0291
24474SOL    HW285148   3.482   1.449   6.077  1.1130 -0.5159  1.9513
24475SOL     OW85149   7.260   6.276  11.933  0.0116  0.5339  0.1876
24475SOL    HW185150   7.294   6.276  11.843  0.6958 -1.7457  0.3790
24475SOL    HW285151   7.202   6.352  11.936  0.2143  0.8749 -2.0817
24476SOL     OW85152   0.194   5.922  10.125 -0.5303 -0.0292 -0.0022
24476SOL    HW185153   0.129   5.888  10.063  0.2881  1.7401 -1.9397
24476SOL    HW285154   0.144   5.938  10.205 -1.8346 -1.4798 -0.4794
24477SOL     OW85155  12.429   2.729   4.066 -0.8711 -0.5215 -0.8160
24477SOL    HW185156  12.347   2.767   4.033 -1.1271 -1.3133 -1.1006
24477SOL    HW285157  12.479   2.805   4.097 -1.4039  0.0495 -1.3131
24478SOL     OW85158   3.288   0.056   7.471 -0.5018 -0.5113  0.2442
24478SOL    HW185159   3.281  -0.027   7.425 -3.8517 -2.1190  3.2287
24478SOL    HW285160   3.256   0.121   7.408  2.7814 -1.1232 -2.3702
24479SOL     OW85161   6.761   6.086  13.165 -0.4941  0.1051  0.3538
24479SOL    HW185162   6.706   6.020  13.208 -0.1629  0.5226  1.4392
24479SOL    HW285163   6.702   6.132  13.106 -1.2043  0.2039  1.1235
24480SOL     OW85164   7.833   1.522  11.473 -0.3623  0.6777  0.4120
24480SOL    HW185165   7.762   1.508  11.535 -1.3543  0.5566 -0.7284
24480SOL    HW285166   7.800   1.588  11.412  0.7247  1.0535  0.1983
24481SOL     OW85167  12.172  10.035  10.539 -0.0781  0.1574 -0.2205
24481SOL    HW185168  12.259  10.028  10.500 -0.3331 -0.5289 -0.6827
24481SOL    HW285169  12.158   9.950  10.581 -1.4163 -0.5671 -2.0424
24482SOL     OW85170   2.951   9.153   6.542  0.3615 -0.3295 -0.0812
24482SOL    HW185171   2.900   9.130   6.620 -0.3717 -1.6054 -0.9011
24482SOL    HW285172   2.885   9.177   6.477  1.0131  1.8199 -0.0129
24483SOL     OW85173  11.086  11.556   6.960 -0.0157  0.1263 -0.6429
24483SOL    HW185174  11.005  11.607   6.966  0.1566  0.2997  0.4598
24483SOL    HW285175  11.126  11.584   6.878  0.2436  2.0679  0.0978
24484SOL     OW85176  12.888   8.060   6.017  0.1701  0.3564  0.2149
24484SOL    HW185177  12.860   7.971   5.996  0.8937  0.0671  0.4533
24484SOL    HW285178  12.934   8.052   6.100  1.6377  0.6844 -0.5361
24485SOL     OW85179   0.203   1.357   7.617  0.0651 -0.0918  0.0934
24485SOL    HW185180   0.189   1.268   7.584 -0.7180 -0.3892  1.1820
24485SOL    HW285181   0.244   1.403   7.544  0.6596 -1.3915 -0.4295
24486SOL     OW85182   0.878   9.369  10.139  0.0122  0.0514 -0.3577
24486SOL    HW185183   0.935   9.333  10.207 -0.8228 -0.7530 -0.0648
24486SOL    HW285184   0.865   9.460  10.163 -0.1960 -0.2020  0.5161
24487SOL     OW85185  11.263   8.964  12.903 -0.0812 -0.1007  0.2055
24487SOL    HW185186  11.304   8.877  12.904 -0.1816 -0.1704 -0.7448
24487SOL    HW285187  11.221   8.969  12.818  0.2367  1.0381  0.1063
24488SOL     OW85188   2.055  12.644  11.894 -0.5338 -0.3587  0.2042
24488SOL    HW185189   2.110  12.567  11.908 -1.8874 -0.9558  3.1513
24488SOL    HW285190   2.111  12.705  11.847  1.3215 -2.3151 -0.3140
24489SOL     OW85191   6.500   5.076   0.049  0.3502 -0.2047  0.6283
24489SOL    HW185192   6.484   5.091   0.142 -0.7124 -1.0706  0.5970
24489SOL    HW285193   6.433   5.128   0.004  1.3617  0.8684  0.2945
24490SOL     OW85194   8.644   0.659   1.756  0.6007  0.5713 -0.4193
24490SOL    HW185195   8.657   0.754   1.767  0.2276  0.6164 -0.3582
24490SOL    HW285196   8.589   0.651   1.678  0.1713  0.4361 -0.1081
24491SOL     OW85197   2.906  11.290  11.291 -0.0179  0.2521 -0.0972
24491SOL    HW185198   2.849  11.237  11.346  1.4771 -0.1976  1.0589
24491SOL    HW285199   2.857  11.372  11.278 -0.3245  0.4624  2.0954
24492SOL     OW85200   0.834  13.023   1.232 -0.0804 -0.0177  0.5477
24492SOL    HW185201   0.822  13.001   1.325 -1.1615  2.6091  1.1203
24492SOL    HW285202   0.748  13.052   1.203  0.6081  0.7437 -0.8199
24493SOL     OW85203  11.334  11.290   1.707  0.3794 -0.4871 -0.3465
24493SOL    HW185204  11.342  11.367   1.764  0.5863 -0.0838 -0.9081
24493SOL    HW285205  11.270  11.316   1.641  1.3712 -0.3133 -1.2759
24494SOL     OW85206   7.209   9.408  10.745  0.1520 -0.5702 -1.0625
24494SOL    HW185207   7.129   9.438  10.702 -0.0337  2.7043  1.2164
24494SOL    HW285208   7.270   9.481  10.735  2.8008 -2.7785 -2.2856
24495SOL     OW85209   1.667   3.848   0.141 -0.5054  0.2623 -0.1690
24495SOL    HW185210   1.707   3.935   0.141  0.1500 -0.0304 -0.5707
24495SOL    HW285211   1.601   3.852   0.072 -0.4391  0.4304 -0.2243
24496SOL     OW85212  11.136   0.254   6.758 -0.5424  0.4666  0.0411
24496SOL    HW185213  11.156   0.345   6.738  0.3248  0.2952  0.1010
24496SOL    HW285214  11.062   0.232   6.700 -0.1578  0.9315 -0.6395
24497SOL     OW85215  12.962  10.603   5.632  0.0407 -0.5965  0.1282
24497SOL    HW185216  13.038  10.592   5.575 -1.6924  1.2906 -2.7993
24497SOL    HW285217  12.920  10.516   5.632  1.2831 -1.2220  0.4796
24498SOL     OW85218   8.273   7.287   1.650 -0.6881 -0.2855 -0.4372
24498SOL    HW185219   8.259   7.236   1.730  0.6171 -0.0986 -0.0688
24498SOL    HW285220   8.199   7.263   1.594 -1.3309 -0.8416  0.6019
24499SOL     OW85221   2.540  10.069   4.442  0.0377  0.1077 -0.3490
24499SOL    HW185222   2.521  10.085   4.535 -0.6534 -2.0944 -0.0404
24499SOL    HW285223   2.515   9.978   4.428  0.8600  0.1522 -2.5357
24500SOL     OW85224   1.119   5.148   8.240  0.1641  0.1160 -0.3231
24500SOL    HW185225   1.197   5.093   8.234  0.1045 -0.3361  2.1547
24500SOL    HW285226   1.153   5.238   8.245  0.6986 -0.1450  2.0612
24501SOL     OW85227  11.223   4.596  10.396  0.3931  0.5877  0.3655
24501SOL    HW185228  11.199   4.649  10.320  0.0400 -0.1052 -0.0118
24501SOL    HW285229  11.220   4.506  10.365  1.4836  0.3560  0.8587
24502SOL     OW85230   0.750   5.156   4.225  0.4948  0.5025  0.1691
24502SOL    HW185231   0.694   5.208   4.284 -2.0606  0.1107 -1.7219
24502SOL    HW285232   0.779   5.219   4.159 -0.0034  0.1884 -0.3621
24503SOL     OW85233   0.547   6.843   4.086 -0.0822 -0.2477  0.1481
24503SOL    HW185234   0.621   6.903   4.074  0.7644 -1.2003  0.4132
24503SOL    HW285235   0.475   6.899   4.113  0.5992  0.6904  0.0899
24504SOL     OW85236   6.141   8.327   9.609  0.1648  0.4514 -0.6675
24504SOL    HW185237   6.143   8.260   9.541  0.8527  0.8518 -1.0541
24504SOL    HW285238   6.049   8.352   9.617  0.1212  0.6488 -1.6962
24505SOL     OW85239  13.451  10.471   2.955  0.4739  0.1048  0.0965
24505SOL    HW185240  13.480  10.516   2.876  1.4355 -1.8996 -0.7730
24505SOL    HW285241  13.460  10.536   3.024  1.1223  1.4331 -1.1781
24506SOL     OW85242   7.854  10.143   6.534 -0.6149 -0.1532 -0.5419
24506SOL    HW185243   7.881  10.121   6.445  0.2920 -0.5102 -0.1872
24506SOL    HW285244   7.877  10.066   6.586  0.4099  0.6791  0.2959
24507SOL     OW85245   8.703   6.032   5.642  0.0194  0.0114  0.1451
24507SOL    HW185246   8.651   6.057   5.719  2.2663  2.6076  0.9905
24507SOL    HW285247   8.641   5.987   5.584 -2.6956  1.3270  1.8508
24508SOL     OW85248   9.113   1.749   5.685  0.2383 -0.0697  0.0847
24508SOL    HW185249   9.161   1.819   5.729 -0.5262  0.5095  0.0229
24508SOL    HW285250   9.101   1.780   5.596  0.5138 -0.6028 -0.1444
24509SOL     OW85251   2.227   2.634   2.095  0.5497  0.0416  0.3611
24509SOL    HW185252   2.233   2.727   2.075  0.3265 -0.0416 -0.0974
24509SOL    HW285253   2.187   2.630   2.182  0.7524  0.3754  0.4723
24510SOL     OW85254   3.131   7.982   5.546  0.3300  0.3887  0.1719
24510SOL    HW185255   3.190   8.051   5.575 -0.1453  0.5854  0.6960
24510SOL    HW285256   3.140   7.981   5.451  2.7422 -1.0196  0.3546
24511SOL     OW85257  13.528  11.922  13.108 -0.1694 -0.7775 -0.1242
24511SOL    HW185258  13.561  11.855  13.048 -0.0706 -0.0461 -0.9004
24511SOL    HW285259  13.518  12.000  13.054 -1.2863 -0.4381  0.5347
24512SOL     OW85260   6.934  10.534  12.034  0.4666  0.1499  0.0769
24512SOL    HW185261   6.882  10.501  11.961  0.6403 -1.5257  0.6497
24512SOL    HW285262   6.895  10.619  12.056 -0.8721 -0.2520 -0.6488
24513SOL     OW85263  13.440  11.801   6.260  0.1594 -0.1486  0.3520
24513SOL    HW185264  13.395  11.832   6.183  0.0789 -1.2168 -0.0504
24513SOL    HW285265  13.525  11.845   6.258  0.4213 -0.6719 -0.7247
24514SOL     OW85266   2.153  12.332   1.894  0.0870  0.6291 -0.2828
24514SOL    HW185267   2.217  12.262   1.878  0.3132  0.5453  0.9031
24514SOL    HW285268   2.180  12.403   1.836  2.1278  1.1215  1.1669
24515SOL     OW85269   3.633  12.940  11.199  0.4176  0.1159  0.0110
24515SOL    HW185270   3.643  13.003  11.128 -0.5769  0.0935 -0.1612
24515SOL    HW285271   3.634  12.855  11.155  0.2752  0.0782  0.0828
24516SOL     OW85272   2.797   7.889  13.154 -0.6505  0.2426 -0.1171
24516SOL    HW185273   2.704   7.905  13.139 -1.2312 -1.2710  1.5376
24516SOL    HW285274   2.817   7.937  13.235  0.0160  0.5089 -0.4293
24517SOL     OW85275   9.217   4.985  10.491 -0.7046 -0.0464  0.3080
24517SOL    HW185276   9.304   4.996  10.452 -0.7553 -0.4175  0.0874
24517SOL    HW285277   9.193   5.073  10.520  0.0095 -0.0496  0.9345
24518SOL     OW85278   9.039   7.722   7.895 -0.3436  0.1020  0.0618
24518SOL    HW185279   8.990   7.646   7.928 -0.2428 -1.3388 -2.8335
24518SOL    HW285280   9.123   7.686   7.867 -0.4137  1.1793 -1.6815
24519SOL     OW85281  10.922   8.837   6.156 -0.3149 -0.0286  0.3132
24519SOL    HW185282  10.981   8.878   6.219  0.0938 -0.0181 -0.0707
24519SOL    HW285283  10.836   8.843   6.196 -0.2828  1.3052  0.2416
24520SOL     OW85284   1.060   5.095  12.447 -0.0184 -0.0429  0.0810
24520SOL    HW185285   1.041   5.162  12.381 -0.7168 -0.4620 -0.1572
24520SOL    HW285286   1.152   5.110  12.470  0.1862  0.2338 -0.8458
24521SOL     OW85287   2.279   1.055   7.564 -0.1111 -0.2715 -0.3945
24521SOL    HW185288   2.274   1.033   7.657  0.0282 -1.6568 -0.7044
24521SOL    HW285289   2.270   1.151   7.562  2.3102  0.0825  1.2351
24522SOL     OW85290   3.001   8.301   2.181  0.2800  0.0183 -0.3410
24522SOL    HW185291   2.975   8.392   2.197  1.4515  0.1586  0.9567
24522SOL    HW285292   2.923   8.260   2.145 -0.5209  1.3430 -0.1832
24523SOL     OW85293  11.001   0.278  11.180 -0.1287  0.1474  0.3433
24523SOL    HW185294  10.999   0.342  11.251  1.0174  0.0279  0.5027
24523SOL    HW285295  11.054   0.320  11.112 -0.0958 -0.2798  0.1013
24524SOL     OW85296   7.084   9.708   8.440  0.4332 -0.0572  0.3851
24524SOL    HW185297   7.057   9.659   8.362 -0.7282 -0.6194  1.1172
24524SOL    HW285298   7.137   9.780   8.405 -1.4113  0.6851 -1.0781
24525SOL     OW85299   8.995   3.750   0.711 -0.5550 -0.4267  0.6120
24525SOL    HW185300   8.916   3.804   0.723 -0.5648  0.0899 -1.3576
24525SOL    HW285301   9.051   3.803   0.654 -0.1441 -2.0916 -0.6068
24526SOL     OW85302   8.255  12.818   2.077  0.1097 -0.2867 -0.0297
24526SOL    HW185303   8.179  12.870   2.102  1.3040  1.5024  0.1154
24526SOL    HW285304   8.256  12.820   1.981 -0.1794 -0.5708 -0.0401
24527SOL     OW85305   6.994   0.648  10.060 -0.1884  0.5603  0.4132
24527SOL    HW185306   6.960   0.559  10.071  0.2363  0.4138  0.5934
24527SOL    HW285307   7.029   0.671  10.147 -1.5163  1.4275  0.7397
24528SOL     OW85308   5.373   1.139   4.511 -0.3123  0.7675 -0.1716
24528SOL    HW185309   5.335   1.161   4.595 -2.4692 -0.4467 -0.7608
24528SOL    HW285310   5.445   1.201   4.500  0.5996  0.4151  2.9033
24529SOL     OW85311   3.652  13.409  10.961  0.2485 -0.6362  0.2151
24529SOL    HW185312   3.620  13.499  10.953  1.7024 -0.0345  0.7891
24529SOL    HW285313   3.694  13.406  11.047  0.6803 -1.7213 -0.0129
24530SOL     OW85314  13.116   8.698   6.248  0.0671 -0.4867 -0.4325
24530SOL    HW185315  13.090   8.663   6.162  0.8774  0.1528 -0.9532
24530SOL    HW285316  13.210   8.711   6.241 -0.0159  0.5887  0.1704
24531SOL     OW85317   1.151   9.966  11.326  0.3219  0.2436 -0.0754
24531SOL    HW185318   1.128   9.873  11.330 -0.4836  0.4479  0.3125
24531SOL    HW285319   1.069  10.010  11.302  0.6253  0.8798  0.0300
24532SOL     OW85320  10.012   7.807   5.642 -0.6259 -0.3665 -0.3285
24532SOL    HW185321  10.058   7.752   5.579 -0.2405  0.3387 -0.6785
24532SOL    HW285322  10.055   7.789   5.726  0.3601  0.3594 -0.6706
24533SOL     OW85323   6.815   5.614   8.326  1.1516 -0.2232  0.2353
24533SOL    HW185324   6.904   5.631   8.297  1.5903 -2.7703 -0.1459
24533SOL    HW285325   6.793   5.529   8.289 -2.2910  1.2267 -1.5157
24534SOL     OW85326  12.085  10.654   8.934  0.1632  0.5397 -0.0242
24534SOL    HW185327  12.079  10.622   8.844  0.4766 -0.8354  0.4170
24534SOL    HW285328  12.127  10.582   8.982  1.9338  2.0498  0.8102
24535SOL     OW85329   7.092   3.226   5.910  0.2940 -0.5594  0.4227
24535SOL    HW185330   7.166   3.167   5.908 -0.1602 -1.1797  1.1652
24535SOL    HW285331   7.047   3.205   5.992 -1.0796 -0.6800 -0.3291
24536SOL     OW85332   4.616   2.228   2.554 -0.2000 -0.6261  0.4921
24536SOL    HW185333   4.687   2.190   2.606  0.8002 -1.9988 -1.7397
24536SOL    HW285334   4.657   2.255   2.472 -1.9087  0.4287 -0.0832
24537SOL     OW85335   1.919   9.015   4.623  0.2093 -0.3549 -0.5161
24537SOL    HW185336   1.915   9.020   4.528 -0.5428  1.6632 -0.4164
24537SOL    HW285337   2.003   8.972   4.641  0.6049 -0.2884 -2.0775
24538SOL     OW85338   1.785   1.148  11.503 -0.7340 -0.4146 -0.0253
24538SOL    HW185339   1.758   1.195  11.582 -1.2522 -0.8927  0.0885
24538SOL    HW285340   1.713   1.163  11.441 -0.5530 -0.4365 -0.2403
24539SOL     OW85341   5.215   1.445  11.826  0.3640 -0.3326 -0.4073
24539SOL    HW185342   5.297   1.452  11.778 -1.3589  3.8413 -3.3797
24539SOL    HW285343   5.223   1.508  11.897 -0.3997  0.6293 -1.1388
24540SOL     OW85344   4.261   1.384  12.441  0.4364 -0.1472  0.1542
24540SOL    HW185345   4.342   1.338  12.460  0.7507 -0.2135 -1.2324
24540SOL    HW285346   4.193   1.317  12.446  0.6039 -0.3044  0.3154
24541SOL     OW85347  10.199  12.792   1.962  0.3158 -0.2442 -0.0841
24541SOL    HW185348  10.293  12.774   1.959  0.5334  0.7100  0.7127
24541SOL    HW285349  10.165  12.732   2.028  0.5162  0.0403  0.2787
24542SOL     OW85350   0.893  11.657  10.193 -0.4090  0.1752  0.2155
24542SOL    HW185351   0.951  11.714  10.244  0.7411 -0.6782 -0.1038
24542SOL    HW285352   0.884  11.578  10.246  0.9095 -0.7783 -0.9329
24543SOL     OW85353   2.639  10.243   6.798 -0.3242  0.1279 -0.2283
24543SOL    HW185354   2.568  10.187   6.766 -0.8009  1.0047 -0.7526
24543SOL    HW285355   2.712  10.226   6.740 -0.1786 -0.5893  0.1539
24544SOL     OW85356  12.882  13.345   2.106  0.2972 -0.1767 -0.9586
24544SOL    HW185357  12.846  13.374   2.021 -0.3683  1.3974 -0.1831
24544SOL    HW285358  12.902  13.426   2.152 -2.4846 -0.8491  1.7092
24545SOL     OW85359   1.825   4.631   2.486 -0.4841 -0.0983 -0.0335
24545SOL    HW185360   1.774   4.709   2.463 -1.5668 -0.4271  1.1346
24545SOL    HW285361   1.827   4.631   2.582  2.6634  0.4719  0.0158
24546SOL     OW85362   8.086  12.157  12.916 -0.0126  0.1987 -0.3721
24546SOL    HW185363   8.165  12.137  12.967 -0.5179  1.6836  1.0688
24546SOL    HW285364   8.078  12.252  12.922  0.5043  0.6268 -4.1843
24547SOL     OW85365   4.326   0.114  11.586  0.6465 -0.3797 -0.2084
24547SOL    HW185366   4.338   0.156  11.500  0.8063  0.1748  0.0830
24547SOL    HW285367   4.351   0.181  11.649  0.4065 -0.7469  0.2792
24548SOL     OW85368   0.125  12.971   8.888 -0.8305  0.2949  0.1883
24548SOL    HW185369   0.177  13.001   8.963  1.4884 -0.6171 -0.9801
24548SOL    HW285370   0.075  13.049   8.862 -1.0226  0.8705  2.1023
24549SOL     OW85371   7.501   5.820  13.363  0.0547  0.7368 -0.0781
24549SOL    HW185372   7.577   5.815  13.422 -0.2398  2.7476  0.5702
24549SOL    HW285373   7.429   5.781  13.413 -0.1537  2.2726  0.9218
24550SOL     OW85374   4.470  12.778   6.540  0.3452 -0.6789 -0.4839
24550SOL    HW185375   4.410  12.752   6.609  1.0086  0.6642  0.6617
24550SOL    HW285376   4.551  12.731   6.559  0.9590  0.6929  0.5105
24551SOL     OW85377   9.034   1.356   9.485 -0.2993 -0.3881  0.3892
24551SOL    HW185378   9.112   1.311   9.518  0.3732 -0.2417 -0.9327
24551SOL    HW285379   8.990   1.389   9.564 -0.0081 -2.0327  1.2887
24552SOL     OW85380  10.643   5.671  10.065  0.0317  0.1757 -0.4337
24552SOL    HW185381  10.569   5.732  10.069  1.9357  2.5323  1.0856
24552SOL    HW285382  10.603   5.585  10.080 -2.5082  1.2364 -0.6006
24553SOL     OW85383   3.431  10.052   2.752  0.8152 -0.3349 -0.9958
24553SOL    HW185384   3.410  10.063   2.660  1.9004 -0.2351 -1.2529
24553SOL    HW285385   3.373  10.113   2.798  2.5139  2.1320 -1.8938
24554SOL     OW85386   0.494   7.671   1.260  0.1612  0.1588  0.2843
24554SOL    HW185387   0.398   7.671   1.261  0.1527 -0.4302  1.7984
24554SOL    HW285388   0.518   7.592   1.213 -0.0692  0.7835 -0.9245
24555SOL     OW85389   8.708  13.441  13.327  0.4182  0.1445  0.5175
24555SOL    HW185390   8.756  13.429  13.244  0.7714 -1.3576  0.9122
24555SOL    HW285391   8.771  13.414  13.394 -0.8157 -1.4571  1.0779
24556SOL     OW85392   2.567   7.605  12.626 -0.0923 -0.6278  0.3045
24556SOL    HW185393   2.655   7.565  12.631 -0.0301 -0.5265  0.0374
24556SOL    HW285394   2.551   7.638  12.714  0.5133  0.1433  0.1361
24557SOL     OW85395   2.513   7.974   6.394 -0.0939 -0.0087 -0.6524
24557SOL    HW185396   2.426   8.008   6.416  1.2116  2.4647  1.3373
24557SOL    HW285397   2.523   7.896   6.449 -0.7623  0.1695 -0.2644
24558SOL     OW85398  13.075   0.887   1.106  0.6453 -0.0601  0.7209
24558SOL    HW185399  13.035   0.911   1.022 -2.5418  0.3633  2.2096
24558SOL    HW285400  13.065   0.792   1.111 -0.9059  0.1081  1.3573
24559SOL     OW85401   9.733   7.879  12.405  0.3900  0.6063 -0.1175
24559SOL    HW185402   9.652   7.926  12.383  0.8363  2.5438  2.0080
24559SOL    HW285403   9.797   7.912  12.342  0.3773  1.9348  0.5301
24560SOL     OW85404  11.118   8.474   9.075  0.4651 -0.5123  0.2163
24560SOL    HW185405  11.136   8.448   9.166 -1.9727 -0.2877  0.8393
24560SOL    HW285406  11.083   8.562   9.082  2.7375  0.5973 -1.2814
24561SOL     OW85407   7.302  13.337  10.048  0.5247  0.4071 -0.1275
24561SOL    HW185408   7.387  13.376  10.068 -0.1797  1.7652  0.3661
24561SOL    HW285409   7.263  13.317  10.133  0.5476 -0.7047 -0.3600
24562SOL     OW85410   0.398  11.947   2.863 -0.0544 -0.0575  0.8319
24562SOL    HW185411   0.434  11.871   2.816 -1.1628 -0.8368  1.1972
24562SOL    HW285412   0.402  11.921   2.955  1.6405  1.2553  1.1691
24563SOL     OW85413   0.105   9.149   8.815  0.2003 -0.2169 -0.0124
24563SOL    HW185414   0.028   9.121   8.865 -0.5446  2.0523  0.2273
24563SOL    HW285415   0.137   9.225   8.863  3.2347 -1.6459  0.4493
24564SOL     OW85416   7.083  11.205   7.425 -0.3178  0.1124 -0.2595
24564SOL    HW185417   7.055  11.169   7.510 -3.2142  2.1671 -0.1698
24564SOL    HW285418   7.018  11.172   7.363  1.6785 -1.2324 -1.7581
24565SOL     OW85419   0.020   5.375   1.770  0.2187 -0.6493 -0.2987
24565SOL    HW185420   0.028   5.460   1.728 -0.3870 -0.8577 -0.8617
24565SOL    HW285421   0.025   5.394   1.863 -1.5156  0.2194 -0.3431
24566SOL     OW85422   4.692  10.196  11.336 -0.7943 -0.4270 -0.4053
24566SOL    HW185423   4.727  10.243  11.412 -0.5343  0.4423 -1.0426
24566SOL    HW285424   4.622  10.141  11.371 -1.8118  1.2083  0.2404
24567SOL     OW85425   6.104   3.106   9.719 -0.1025  0.0468 -0.4433
24567SOL    HW185426   6.188   3.076   9.755 -0.8840 -0.7561  0.7690
24567SOL    HW285427   6.056   3.026   9.701 -0.8491  0.5140 -0.5416
24568SOL     OW85428   2.714   1.067   8.038  0.0786 -0.1652 -0.3653
24568SOL    HW185429   2.788   1.057   8.097 -0.2687  0.0832  0.1208
24568SOL    HW285430   2.674   0.980   8.034  0.2759 -0.2517 -0.4733
24569SOL     OW85431   6.682   6.108   8.523 -0.3505 -0.0416  0.2744
24569SOL    HW185432   6.663   6.014   8.524 -1.4370  0.1763  1.4994
24569SOL    HW285433   6.650   6.138   8.438 -2.9582 -0.2227  1.1311
24570SOL     OW85434   9.946   4.582   6.487 -0.2591 -0.3999 -0.1100
24570SOL    HW185435   9.922   4.673   6.501  0.8534 -0.1659  0.4513
24570SOL    HW285436  10.012   4.584   6.418  0.8808 -0.5983  0.9440
24571SOL     OW85437   7.549   1.872  10.402  0.0068 -0.2175 -0.1535
24571SOL    HW185438   7.622   1.815  10.376 -0.4435 -1.0795  0.4294
24571SOL    HW285439   7.579   1.912  10.484  0.8478  1.4036 -1.2215
24572SOL     OW85440   6.782   9.189   6.295  0.0255  0.1315 -0.5076
24572SOL    HW185441   6.801   9.283   6.301  0.9413 -0.0003 -1.1507
24572SOL    HW285442   6.716   9.174   6.363  0.2346  1.1466 -0.0538
24573SOL     OW85443   8.827  11.220  11.597 -0.2285  0.1256  0.2501
24573SOL    HW185444   8.796  11.242  11.685 -1.0705 -1.2623  0.3270
24573SOL    HW285445   8.862  11.131  11.605  2.0571  0.9276 -0.2787
24574SOL     OW85446   8.079   5.050  12.054  0.1344 -0.0965 -0.0456
24574SOL    HW185447   8.029   5.097  12.122  0.5155  0.7345 -0.3270
24574SOL    HW285448   8.170   5.076  12.069  0.1373  0.7418 -1.3542
24575SOL     OW85449   4.425   4.997  10.394 -0.0559 -0.3652  0.2313
24575SOL    HW185450   4.389   5.072  10.346  0.8154 -0.2772 -0.3011
24575SOL    HW285451   4.486   4.957  10.333 -0.0276 -1.1325  0.7537
24576SOL     OW85452   4.522   4.042   9.085  0.0867 -0.5154  0.5759
24576SOL    HW185453   4.552   3.988   9.158  1.0692 -1.0389 -0.1805
24576SOL    HW285454   4.602   4.064   9.038 -0.6405 -1.4072 -1.1595
24577SOL     OW85455  10.620   4.659   8.018  0.3047  0.1245  0.5294
24577SOL    HW185456  10.707   4.653   7.980  0.3269 -1.3453  0.7324
24577SOL    HW285457  10.560   4.661   7.943  0.4166 -1.4067  0.3551
24578SOL     OW85458   3.047  12.114  11.367  0.2024  0.1946 -0.6923
24578SOL    HW185459   3.119  12.101  11.305  0.6101 -1.5442  0.0808
24578SOL    HW285460   2.969  12.123  11.312  0.6245 -0.7957 -1.4943
24579SOL     OW85461   0.790  10.462   0.943  0.0551 -0.0483  0.7077
24579SOL    HW185462   0.805  10.545   0.987  0.8547  1.2389 -1.8231
24579SOL    HW285463   0.696  10.460   0.925  0.3429  1.4321 -1.1996
24580SOL     OW85464   4.591   7.513   8.289 -0.3527  0.0108 -0.5896
24580SOL    HW185465   4.648   7.587   8.311 -0.0152 -0.4117 -0.0094
24580SOL    HW285466   4.502   7.545   8.307 -0.1027 -0.3116  1.4793
24581SOL     OW85467   2.769   9.320   4.666  0.3015  0.3815  0.7242
24581SOL    HW185468   2.831   9.261   4.624  0.3954  0.8999  0.1207
24581SOL    HW285469   2.726   9.266   4.733 -0.1274 -0.5539 -0.2800
24582SOL     OW85470   4.281   8.681   1.433 -0.1309  0.3775 -0.0146
24582SOL    HW185471   4.275   8.751   1.367 -0.8513  2.5026  2.1434
24582SOL    HW285472   4.212   8.702   1.496  1.1724 -0.9349  1.9596
24583SOL     OW85473   3.959   2.340   9.615  0.3490 -0.0216  0.4289
24583SOL    HW185474   4.013   2.419   9.614  0.3919 -0.0577 -0.2894
24583SOL    HW285475   3.874   2.369   9.583  0.4711 -0.3422 -0.1947
24584SOL     OW85476   8.835   4.166   9.599 -0.0532  0.5854 -0.6672
24584SOL    HW185477   8.774   4.233   9.631 -1.1258 -1.1568  1.1499
24584SOL    HW285478   8.919   4.191   9.637 -0.1702  1.5622 -1.0257
24585SOL     OW85479   7.692   3.988   1.796  0.1359 -0.3150 -0.1096
24585SOL    HW185480   7.767   3.965   1.850  1.8446  0.3701 -2.0555
24585SOL    HW285481   7.712   4.075   1.762 -3.0515  1.3548  1.7569
24586SOL     OW85482  13.132   3.288   6.650 -0.0032  0.1664  0.2837
24586SOL    HW185483  13.071   3.324   6.715 -0.8787 -0.1035 -0.3754
24586SOL    HW285484  13.161   3.365   6.600  0.4612  0.3388  0.8092
24587SOL     OW85485   6.425   1.499   1.692 -0.5650 -0.4636 -0.5082
24587SOL    HW185486   6.478   1.429   1.729 -1.6585 -0.1040  1.9549
24587SOL    HW285487   6.422   1.566   1.760 -0.1546  1.7120 -2.4900
24588SOL     OW85488   5.219   5.416   7.096 -0.1250  0.1578 -0.3551
24588SOL    HW185489   5.253   5.431   7.184 -1.2832  1.5380 -0.1120
24588SOL    HW285490   5.191   5.324   7.097  1.2476 -0.2827  0.2045
24589SOL     OW85491   7.313   2.511   3.032 -0.1686  0.1188 -0.0123
24589SOL    HW185492   7.339   2.543   3.118 -1.2968  0.2410  0.2952
24589SOL    HW285493   7.232   2.463   3.047  0.6203 -1.5170 -0.7286
24590SOL     OW85494   8.743   3.889   0.693  0.0012 -0.0489  0.8351
24590SOL    HW185495   8.694   3.958   0.737  0.1207 -0.3673  1.4862
24590SOL    HW285496   8.681   3.816   0.686 -0.0877  0.0755  0.2627
24591SOL     OW85497   1.172   8.078   7.261  0.1246  0.3205 -0.5914
24591SOL    HW185498   1.086   8.084   7.221 -1.0741  0.1705  1.7932
24591SOL    HW285499   1.232   8.114   7.195 -1.6467 -0.0536 -2.5088
24592SOL     OW85500   6.423  10.826   0.425  0.5569  0.3804  0.0868
24592SOL    HW185501   6.378  10.773   0.359 -0.1011  0.4264  0.4908
24592SOL    HW285502   6.470  10.761   0.479 -0.5859  0.1375  0.8410
24593SOL     OW85503   9.292   2.445   4.428  0.1980  0.1797 -0.6182
24593SOL    HW185504   9.255   2.383   4.491 -0.1458 -0.5657 -1.5323
24593SOL    HW285505   9.216   2.493   4.396  0.3467  0.4139 -0.6150
24594SOL     OW85506   1.747   7.772   5.623  0.1353 -0.7573  0.3250
24594SOL    HW185507   1.782   7.845   5.573  0.2125 -1.6303 -0.9552
24594SOL    HW285508   1.654   7.793   5.635  0.4128  0.1086  1.0394
24595SOL     OW85509   7.781  10.210   9.451 -0.0457 -0.5028  0.3906
24595SOL    HW185510   7.853  10.254   9.405  0.3275 -1.2188  0.2745
24595SOL    HW285511   7.816  10.123   9.472 -0.8065 -0.7811  0.5222
24596SOL     OW85512  13.222   0.280  10.166 -0.0614 -0.1404 -0.1691
24596SOL    HW185513  13.231   0.334  10.088 -0.2685 -1.9112 -1.4901
24596SOL    HW285514  13.261   0.196  10.141 -0.9640 -1.0473  1.3253
24597SOL     OW85515   7.092   3.796   0.254 -0.2432  0.4805  0.0537
24597SOL    HW185516   7.136   3.712   0.238  0.4644  0.8441  0.0327
24597SOL    HW285517   7.133   3.829   0.334 -1.2730  0.3187  0.6605
24598SOL     OW85518   8.096  12.265  10.832 -0.5951  0.3663 -0.4834
24598SOL    HW185519   8.183  12.302  10.816 -0.9442  1.8014  0.6857
24598SOL    HW285520   8.037  12.341  10.829 -1.9595 -0.6948 -2.1465
24599SOL     OW85521  12.321   6.737   6.918  0.3773 -0.2098  0.3047
24599SOL    HW185522  12.368   6.656   6.896  0.6917 -0.0732  0.4653
24599SOL    HW285523  12.241   6.707   6.961  0.8254 -0.4237  1.0098
24600SOL     OW85524  10.466   1.151   2.628  0.1675  0.2476 -1.0614
24600SOL    HW185525  10.467   1.183   2.718  2.3840 -0.8034 -0.6595
24600SOL    HW285526  10.387   1.190   2.590 -0.8422  0.7130  1.3103
24601SOL     OW85527   7.266   9.478   3.196 -0.0463  0.1168  0.1526
24601SOL    HW185528   7.252   9.421   3.120 -0.5267 -3.5007  2.7111
24601SOL    HW285529   7.180   9.515   3.215  0.0394  0.9012 -0.8835
24602SOL     OW85530   1.118   1.933  10.839  0.2807 -0.6601  0.2178
24602SOL    HW185531   1.119   1.896  10.751 -1.7934  1.5803 -0.8229
24602SOL    HW285532   1.179   2.007  10.835  0.0463 -0.4408  0.6387
24603SOL     OW85533  13.080   2.301   0.679 -0.2280 -0.4770 -0.3568
24603SOL    HW185534  13.044   2.388   0.693  0.1231 -0.1708 -1.2675
24603SOL    HW285535  13.020   2.260   0.616  0.3983 -0.3596 -1.0421
24604SOL     OW85536  12.039   7.924   1.061 -0.2782  0.2098  0.5031
24604SOL    HW185537  11.980   7.943   0.988 -0.4819 -0.4301  0.4964
24604SOL    HW285538  12.127   7.944   1.027 -0.1525 -1.9464 -0.6122
24605SOL     OW85539   8.251   2.783  11.431 -0.0140 -0.1327  0.5514
24605SOL    HW185540   8.288   2.871  11.428 -1.8685  0.8714  3.2862
24605SOL    HW285541   8.231   2.763  11.340  2.0839  1.4716 -0.3723
24606SOL     OW85542  10.607  13.014  11.938  0.0974  0.1939  0.5735
24606SOL    HW185543  10.671  13.014  11.867 -0.2697  0.3155  0.2433
24606SOL    HW285544  10.660  13.004  12.018  0.7267  2.1566  0.4774
24607SOL     OW85545   0.808   0.395   7.305 -0.7108  0.7333  0.2311
24607SOL    HW185546   0.825   0.336   7.378  0.3413  0.3451 -0.3226
24607SOL    HW285547   0.712   0.395   7.297 -0.7335 -1.9493 -0.5946
24608SOL     OW85548   0.400  12.400  12.578 -0.1109  0.1210  0.0832
24608SOL    HW185549   0.354  12.446  12.507 -0.8760 -0.2488  0.3236
24608SOL    HW285550   0.492  12.417  12.562 -0.1938 -0.6969 -1.5447
24609SOL     OW85551   5.990   8.019   5.370 -0.2598  0.2085 -0.0977
24609SOL    HW185552   5.936   8.052   5.298 -2.9174 -0.1336  1.5672
24609SOL    HW285553   6.000   7.926   5.351 -2.4223 -0.2602  0.6961
24610SOL     OW85554  11.784   1.407   0.658  0.1036 -0.0113  0.3019
24610SOL    HW185555  11.770   1.499   0.680 -0.6603 -0.1883  0.5710
24610SOL    HW285556  11.875   1.403   0.629 -0.4036  1.1947 -1.6294
24611SOL     OW85557   8.539   1.424  10.120 -0.1294 -0.3775  0.1015
24611SOL    HW185558   8.612   1.375  10.157  1.0733  1.3547  0.1107
24611SOL    HW285559   8.535   1.504  10.171 -3.7598 -1.4577  1.8661
24612SOL     OW85560   3.097  11.394  12.024  0.0449  0.2428  0.0400
24612SOL    HW185561   3.113  11.310  11.981 -1.0004  0.5498 -1.0204
24612SOL    HW285562   3.004  11.390  12.049 -0.3518  1.5334 -1.1202
24613SOL     OW85563  11.505   6.205   4.059  0.1715 -0.1199  0.2799
24613SOL    HW185564  11.568   6.269   4.093  0.7419  0.0398 -1.0205
24613SOL    HW285565  11.454   6.253   3.995 -0.9502 -0.3970  0.9469
24614SOL     OW85566   1.729  12.707   8.373  0.3267  0.3076 -0.0505
24614SOL    HW185567   1.725  12.743   8.284 -1.4816  0.4639  0.0638
24614SOL    HW285568   1.767  12.620   8.362 -1.6419 -0.4600 -1.2911
24615SOL     OW85569   3.346   7.147  10.167  0.1743  0.4135  0.3092
24615SOL    HW185570   3.408   7.192  10.223  0.9282 -0.3261  0.0989
24615SOL    HW285571   3.401   7.097  10.106 -0.5999 -1.4470  1.0672
24616SOL     OW85572  12.477   7.324   4.756 -0.5877 -0.3322 -0.4907
24616SOL    HW185573  12.421   7.401   4.768 -1.4215 -0.9408 -0.3471
24616SOL    HW285574  12.437   7.276   4.684 -0.3787 -0.8903 -0.2412
24617SOL     OW85575  12.459   1.335   5.207 -0.3650 -0.1761 -0.5259
24617SOL    HW185576  12.484   1.426   5.221 -0.3156 -0.4807  1.7189
24617SOL    HW285577  12.363   1.337   5.205 -0.3529  0.0708 -1.9216
24618SOL     OW85578  12.032   6.349  11.344  0.2669 -0.0242 -0.2572
24618SOL    HW185579  12.063   6.401  11.270  0.5840  0.0390 -0.0825
24618SOL    HW285580  12.010   6.414  11.411 -2.6912  0.1335 -1.2331
24619SOL     OW85581   7.107   4.833  13.579  0.1936 -0.0714 -0.0638
24619SOL    HW185582   7.158   4.912  13.563  0.5053 -0.3987 -0.6966
24619SOL    HW285583   7.157   4.763  13.538  0.9117 -0.9271  2.1119
24620SOL     OW85584  13.253   9.574   0.302 -0.1480  0.1085 -0.1597
24620SOL    HW185585  13.318   9.605   0.365 -1.2749 -0.7955  1.5400
24620SOL    HW285586  13.247   9.643   0.237  0.9814  1.1553  0.8087
24621SOL     OW85587  11.361   5.681   0.822  0.3111  0.9129  0.2433
24621SOL    HW185588  11.384   5.770   0.794 -0.7979  1.3694  0.7162
24621SOL    HW285589  11.344   5.634   0.741  0.9629  1.1115 -0.0150
24622SOL     OW85590   9.857   2.821   0.560  0.4092  0.7792  0.2171
24622SOL    HW185591   9.897   2.849   0.477  1.6135 -0.5044  0.3093
24622SOL    HW285592   9.787   2.761   0.534  0.1676  1.1091  0.1071
24623SOL     OW85593   0.322   5.648  11.949  0.1374  0.1966  0.1242
24623SOL    HW185594   0.383   5.708  11.906  0.6425  0.0342  0.6076
24623SOL    HW285595   0.289   5.697  12.024 -0.7049  0.4591 -0.3979
24624SOL     OW85596   7.210   1.075  13.505 -0.0938 -0.3715  0.1763
24624SOL    HW185597   7.227   1.111  13.592 -0.2618 -0.3247  0.1910
24624SOL    HW285598   7.207   0.981  13.518  0.1690 -0.3820  0.1698
24625SOL     OW85599   9.922   0.987   5.836 -0.0005  0.2365  0.1051
24625SOL    HW185600   9.826   0.988   5.840  0.0109  0.9631  0.3675
24625SOL    HW285601   9.943   0.906   5.790 -0.8088  0.8029 -1.3504
24626SOL     OW85602  11.622  10.687   1.523  0.0945 -0.4497 -0.2433
24626SOL    HW185603  11.565  10.748   1.570  0.1657  0.3637 -1.1824
24626SOL    HW285604  11.662  10.633   1.592  0.8013  1.2203  0.7189
24627SOL     OW85605   5.963  12.210  12.144  0.5470 -0.2466 -0.2893
24627SOL    HW185606   5.891  12.147  12.137  0.1608  0.1540  0.0258
24627SOL    HW285607   6.032  12.163  12.190 -0.2311 -0.0252  1.1430
24628SOL     OW85608   1.946   1.699  12.691  0.2202  0.4231 -0.3530
24628SOL    HW185609   2.009   1.627  12.683 -0.3102 -0.0137 -0.6451
24628SOL    HW285610   2.000   1.776  12.711  0.8966  0.1580 -1.1259
24629SOL     OW85611   4.335  10.810   9.566 -0.2538 -0.0909  0.1871
24629SOL    HW185612   4.431  10.806   9.568 -0.2991 -1.7113  0.9050
24629SOL    HW285613   4.307  10.735   9.618 -1.9323  1.2919  1.3861
24630SOL     OW85614  10.041   1.201  10.497 -0.0456  0.1289  0.0867
24630SOL    HW185615  10.085   1.127  10.456  0.3802  0.8597 -0.8030
24630SOL    HW285616   9.947   1.184  10.484 -0.0670 -1.2713  1.7057
24631SOL     OW85617  12.342  12.404   2.305 -0.3226  0.2826 -0.6451
24631SOL    HW185618  12.288  12.438   2.234  1.3264 -0.5748 -2.3892
24631SOL    HW285619  12.279  12.370   2.369 -1.9246  3.1807 -0.4961
24632SOL     OW85620  10.346   9.124   0.197  0.7557  0.0981  0.0999
24632SOL    HW185621  10.252   9.133   0.184  0.4669 -1.6589  0.8048
24632SOL    HW285622  10.384   9.191   0.140 -0.8400 -0.2227 -1.4172
24633SOL     OW85623   4.583   5.073   6.401 -0.5397  0.6514 -0.0604
24633SOL    HW185624   4.527   4.998   6.419 -0.8694  1.5050  3.0617
24633SOL    HW285625   4.626   5.092   6.484  0.4272  3.1920 -1.0286
24634SOL     OW85626  11.002  13.585   7.606 -0.4434  0.4563 -0.5254
24634SOL    HW185627  10.989  13.493   7.584 -0.5957  0.7971 -1.9492
24634SOL    HW285628  10.915  13.615   7.633 -0.6499  0.4537 -1.1655
24635SOL     OW85629   2.674   9.986   3.265  0.3357 -0.1200 -0.3452
24635SOL    HW185630   2.704  10.072   3.292 -1.5525  0.3348  0.4835
24635SOL    HW285631   2.714   9.972   3.179  0.6978  1.5687 -0.4852
24636SOL     OW85632   5.995  12.024   2.310  0.1046  0.0533  0.0302
24636SOL    HW185633   5.972  12.015   2.217 -0.9472  0.0490  0.2694
24636SOL    HW285634   6.048  12.103   2.314 -1.7119  1.3664 -0.3099
24637SOL     OW85635   7.814   0.791   4.052  0.3932 -0.0891 -0.1246
24637SOL    HW185636   7.845   0.701   4.063  1.0148  0.1706  0.2621
24637SOL    HW285637   7.802   0.824   4.141  3.0849  1.1891 -0.1067
24638SOL     OW85638   9.065   2.345   9.967  0.2377 -0.1081 -0.0265
24638SOL    HW185639   9.045   2.325   9.876  0.7274 -0.7647  0.0058
24638SOL    HW285640   9.157   2.371   9.967 -0.3106  2.0049 -0.0341
24639SOL     OW85641   4.616   8.191  10.157 -0.7228 -0.1450  0.6564
24639SOL    HW185642   4.563   8.120  10.194 -1.5328 -0.0049 -0.2147
24639SOL    HW285643   4.706   8.158  10.161 -1.0969 -1.2410  0.2034
24640SOL     OW85644  11.326   3.619   9.977  0.1340  0.0071 -0.1624
24640SOL    HW185645  11.254   3.649  10.033  0.3627 -0.4240  0.3712
24640SOL    HW285646  11.358   3.699   9.935 -0.6265  0.2095 -0.3765
24641SOL     OW85647   4.974   1.933   7.028  0.0494 -0.4049 -0.4886
24641SOL    HW185648   4.931   2.004   7.074 -1.6195 -1.7627  0.1518
24641SOL    HW285649   4.983   1.964   6.938  1.2038  1.3571  0.1918
24642SOL     OW85650   9.805   5.106   0.697 -0.0909  0.1672 -0.0586
24642SOL    HW185651   9.759   5.187   0.719 -1.3357 -1.1493  2.6488
24642SOL    HW285652   9.750   5.066   0.629 -0.6482  0.5920  0.1275
24643SOL     OW85653   1.275   0.625   6.876 -0.0307 -0.1155  0.2413
24643SOL    HW185654   1.322   0.542   6.882 -2.6708 -2.0364 -2.5273
24643SOL    HW285655   1.254   0.634   6.783 -2.4767  2.1099  0.8750
24644SOL     OW85656   2.395   3.084   0.154  0.0062 -0.1833  0.7371
24644SOL    HW185657   2.487   3.085   0.127  0.8664  0.2990  3.4531
24644SOL    HW285658   2.369   3.176   0.152 -0.1844 -0.2359  0.7657
24645SOL     OW85659   4.106   0.697   3.897  0.6004 -0.2055 -0.1105
24645SOL    HW185660   4.013   0.710   3.915  0.6457  0.7683 -0.5007
24645SOL    HW285661   4.111   0.611   3.855 -0.0284 -0.5914  0.5990
24646SOL     OW85662   2.504   9.221   9.777 -0.0597  0.0237 -0.8172
24646SOL    HW185663   2.581   9.277   9.786 -1.0723  1.4877 -0.9711
24646SOL    HW285664   2.515   9.177   9.693  1.0554 -0.5295 -0.4060
24647SOL     OW85665   7.707   1.057   6.888 -0.0980  0.2690  0.2641
24647SOL    HW185666   7.678   0.979   6.840  0.0816  0.7796 -0.6760
24647SOL    HW285667   7.625   1.098   6.917 -0.2461  0.5144 -0.4904
24648SOL     OW85668   3.666   7.284   9.548  0.2249 -0.0682 -0.2467
24648SOL    HW185669   3.706   7.369   9.565 -0.6582  0.2205  0.4945
24648SOL    HW285670   3.592   7.280   9.608 -0.3933 -0.9094 -1.0323
24649SOL     OW85671   9.257   6.841  12.231 -0.7595 -0.1517 -0.2281
24649SOL    HW185672   9.219   6.843  12.144 -0.1704 -3.4210 -0.6815
24649SOL    HW285673   9.184   6.819  12.289 -1.5247  3.6245  0.5219
24650SOL     OW85674   2.063   9.130  11.662 -0.7046  0.1484 -0.4595
24650SOL    HW185675   2.022   9.044  11.672 -1.5175  0.2951 -2.1703
24650SOL    HW285676   2.009   9.189  11.715  1.3205 -0.6751  2.8933
24651SOL     OW85677   5.297   1.139  12.780 -0.6753 -0.1475  0.5947
24651SOL    HW185678   5.209   1.175  12.769  0.3538  2.1575 -0.9064
24651SOL    HW285679   5.308   1.079  12.706 -0.3689  1.0132 -0.3340
24652SOL     OW85680  11.453   1.603  13.581  0.0754  0.3322  0.0506
24652SOL    HW185681  11.434   1.518  13.541 -0.0391  0.2399  0.2975
24652SOL    HW285682  11.444   1.588  13.676  0.1575  0.5926  0.1028
24653SOL     OW85683   7.644   3.162  11.780  0.2254  0.1999 -0.4360
24653SOL    HW185684   7.690   3.116  11.850  0.3482  0.0331 -0.6278
24653SOL    HW285685   7.595   3.094  11.734  0.2328  0.2925 -0.5812
24654SOL     OW85686   1.856   6.298   9.861 -0.3163 -0.0715  0.2854
24654SOL    HW185687   1.951   6.311   9.855 -0.2808 -0.8223 -1.3230
24654SOL    HW285688   1.820   6.384   9.837 -0.0213 -0.5325 -2.0822
24655SOL     OW85689  13.679  12.608   8.662  0.2448 -0.6227 -0.0347
24655SOL    HW185690  13.749  12.544   8.674 -0.3016 -1.1128  0.6216
24655SOL    HW285691  13.680  12.660   8.742  1.0059  0.5404 -0.7663
24656SOL     OW85692   2.877   9.861   3.560 -0.0392 -0.0964  0.9306
24656SOL    HW185693   2.951   9.832   3.613  1.2629 -0.3093 -0.8931
24656SOL    HW285694   2.902   9.948   3.528 -0.0975 -0.5659 -0.4916
24657SOL     OW85695  11.074  11.074   1.607 -0.0714 -0.0460 -0.2794
24657SOL    HW185696  10.980  11.077   1.592 -0.1249 -0.0658  0.0382
24657SOL    HW285697  11.084  11.092   1.701  0.1929 -0.6710 -0.1814
24658SOL     OW85698  11.826   1.145  11.170 -0.2133  0.2616  0.1062
24658SOL    HW185699  11.872   1.227  11.181  1.0153 -0.6079  1.8380
24658SOL    HW285700  11.893   1.078  11.184 -1.3525 -1.0456 -0.4619
24659SOL     OW85701  12.507   9.317   3.684  0.2774 -0.1375  0.1625
24659SOL    HW185702  12.464   9.378   3.625  0.7406  0.0651  0.0301
24659SOL    HW285703  12.451   9.315   3.762 -0.1373 -0.1276 -0.1353
24660SOL     OW85704   9.116   5.635   2.677 -0.1022 -0.0933  0.5840
24660SOL    HW185705   9.097   5.609   2.768 -2.1002  2.6642  1.1050
24660SOL    HW285706   9.186   5.699   2.685 -0.1641  0.0257  0.1807
24661SOL     OW85707   2.539   8.903   9.770 -0.3400  0.6444  0.1567
24661SOL    HW185708   2.532   8.990   9.730  0.0465  0.2366 -0.8293
24661SOL    HW285709   2.460   8.895   9.823  0.5205  2.3509  1.8147
24662SOL     OW85710   2.755  10.411   1.887  0.8760  0.5501 -0.0012
24662SOL    HW185711   2.709  10.334   1.854 -0.4827  2.1828 -2.2123
24662SOL    HW285712   2.742  10.409   1.982 -0.1482 -1.2645 -0.1468
24663SOL     OW85713   7.314  10.366  13.089  0.2939 -0.5551  0.6998
24663SOL    HW185714   7.333  10.273  13.088  1.1232 -0.4404  2.0031
24663SOL    HW285715   7.249  10.376  13.159 -0.1697 -0.2105  0.2275
24664SOL     OW85716   8.968  12.532   8.635 -0.4148  0.0493 -0.5014
24664SOL    HW185717   8.873  12.533   8.632 -0.4540 -1.2467 -0.2114
24664SOL    HW285718   8.989  12.524   8.728 -0.0201  0.2997 -0.5657
24665SOL     OW85719   5.237   9.783   7.342 -0.0305 -0.0024 -0.2525
24665SOL    HW185720   5.217   9.874   7.323 -1.4614  0.1712  1.8162
24665SOL    HW285721   5.152   9.743   7.363  0.8346 -1.2123  1.1761
24666SOL     OW85722   6.975  13.158   1.887 -0.0041 -0.0901 -0.1130
24666SOL    HW185723   6.932  13.078   1.860 -0.2518  0.1887 -0.5583
24666SOL    HW285724   6.932  13.183   1.969 -1.8123  1.0366 -1.3377
24667SOL     OW85725   3.251   3.408   8.550  0.0820  0.1159 -0.6484
24667SOL    HW185726   3.231   3.487   8.599 -0.3284  0.5305 -1.4722
24667SOL    HW285727   3.265   3.341   8.617 -0.1040  0.7552  0.0366
24668SOL     OW85728  12.233   9.618  12.533  0.2897  0.2105  0.0879
24668SOL    HW185729  12.172   9.644  12.603  0.8110 -0.5362  0.8557
24668SOL    HW285730  12.226   9.686  12.467  0.3984  1.3857  1.2607
24669SOL     OW85731   7.421   8.217   8.377 -0.1272 -0.0883  0.4798
24669SOL    HW185732   7.366   8.143   8.402  1.1409 -1.4446 -0.5657
24669SOL    HW285733   7.467   8.187   8.298 -1.3632  2.6896 -1.4765
24670SOL     OW85734  12.119   9.984   0.359 -0.0479 -0.5990 -0.4109
24670SOL    HW185735  12.123   9.945   0.272 -2.2631 -2.6286  0.3014
24670SOL    HW285736  12.162   9.920   0.416  0.6815  0.3546  0.1475
24671SOL     OW85737   7.977  10.616  12.306 -0.8015 -0.6483 -0.2760
24671SOL    HW185738   7.896  10.667  12.307 -0.5368 -0.2225  0.1947
24671SOL    HW285739   7.970  10.559  12.382  0.6137  1.4857  1.5896
24672SOL     OW85740   1.953   7.127  12.849  0.4643  0.4895  0.4650
24672SOL    HW185741   2.011   7.135  12.924 -0.7801  0.2530  1.4768
24672SOL    HW285742   1.988   7.053  12.799  2.0793  1.4582  0.0537
24673SOL     OW85743   8.047  11.033   5.147 -0.1386 -0.3864  0.8362
24673SOL    HW185744   7.999  10.981   5.082 -0.0631 -0.5028  0.8725
24673SOL    HW285745   8.130  10.986   5.158  0.3703  0.3203  0.0840
24674SOL     OW85746   0.008   3.769   1.267 -0.8245 -0.5570 -0.2587
24674SOL    HW185747  -0.041   3.688   1.250 -2.4151  0.8478 -3.3148
24674SOL    HW285748  -0.029   3.804   1.348  0.0193 -2.8733  1.2239
24675SOL     OW85749   0.691   7.582   2.651  0.2625 -0.3487  0.8086
24675SOL    HW185750   0.780   7.607   2.627 -0.4561  1.4019 -0.2226
24675SOL    HW285751   0.643   7.577   2.568 -0.6353 -1.2161  1.3430
24676SOL     OW85752   4.529   9.852   1.245  0.7523  0.4280 -0.4804
24676SOL    HW185753   4.596   9.851   1.177  2.0804  0.2155  0.7796
24676SOL    HW285754   4.535   9.940   1.284  1.5352 -0.1386  0.7643
24677SOL     OW85755   4.955  13.524   3.639  0.1745  0.0967  0.0402
24677SOL    HW185756   4.916  13.611   3.625  0.7038  0.5275  1.1128
24677SOL    HW285757   4.880  13.465   3.644 -0.2392  0.6209  0.1588
24678SOL     OW85758   7.662  11.816   7.894 -0.4408  0.5782 -0.0503
24678SOL    HW185759   7.616  11.747   7.846 -2.3389  0.2725  2.0102
24678SOL    HW285760   7.617  11.897   7.868 -1.2231  0.4554  0.8545
24679SOL     OW85761  11.090   8.612   3.762  0.2986 -0.6413 -0.3949
24679SOL    HW185762  11.158   8.589   3.699  0.3768 -0.6999 -0.2884
24679SOL    HW285763  11.137   8.636   3.842  0.3965  2.4627 -1.2604
24680SOL     OW85764   9.895  11.859  12.716  0.6794 -0.2315 -0.3137
24680SOL    HW185765   9.966  11.922  12.729  1.7623 -1.3557 -0.5083
24680SOL    HW285766   9.820  11.897  12.760  1.2138  1.3305 -0.6870
24681SOL     OW85767  13.705  13.397  11.462 -0.1608 -0.4003  0.3874
24681SOL    HW185768  13.751  13.397  11.378  0.1105 -2.7473  0.4653
24681SOL    HW285769  13.625  13.446  11.446  0.0963 -0.4437 -1.1175
24682SOL     OW85770   5.356  12.460  12.588  0.1964  0.8424 -0.3015
24682SOL    HW185771   5.355  12.553  12.565  2.4855  1.5583  2.0352
24682SOL    HW285772   5.329  12.458  12.680 -0.0839 -0.8390 -0.4005
24683SOL     OW85773   2.935  12.135   0.677 -0.2246 -0.4883 -0.4000
24683SOL    HW185774   3.022  12.166   0.651  0.8698 -2.5166  0.6510
24683SOL    HW285775   2.917  12.064   0.616 -1.9109  0.8845 -1.6202
24684SOL     OW85776   0.741  13.531   7.286  0.2476 -0.0121 -0.2061
24684SOL    HW185777   0.793  13.608   7.265  1.0390 -0.4674  0.0254
24684SOL    HW285778   0.775  13.463   7.227 -0.1732 -0.2839 -0.1390
24685SOL     OW85779   7.399   6.800  11.700 -0.0704 -0.3884 -1.5356
24685SOL    HW185780   7.373   6.865  11.764 -0.6364 -0.8242 -1.3061
24685SOL    HW285781   7.494   6.804  11.697  0.0845 -1.4385  0.5005
24686SOL     OW85782  12.742   2.915   7.993  0.1202 -0.0550 -0.4289
24686SOL    HW185783  12.835   2.916   7.972  0.2742  0.3770  0.2292
24686SOL    HW285784  12.698   2.922   7.908  0.6996  0.3816 -0.7029
24687SOL     OW85785   4.586   2.553   4.185 -0.4584  0.3041 -0.7436
24687SOL    HW185786   4.602   2.503   4.104  1.4926  1.4146 -1.1059
24687SOL    HW285787   4.518   2.616   4.161 -0.9875 -0.3851 -1.0705
24688SOL     OW85788  12.013   9.290   5.274 -0.3435  0.2104  0.1628
24688SOL    HW185789  11.928   9.247   5.285 -0.5376 -0.0881 -2.1459
24688SOL    HW285790  11.992   9.383   5.269 -0.2374  0.3742  2.0262
24689SOL     OW85791  11.661   1.509  12.680 -0.2149 -0.0079  0.2037
24689SOL    HW185792  11.583   1.520  12.626  0.6880  1.9095 -0.8382
24689SOL    HW285793  11.637   1.444  12.746 -2.2449 -0.4037 -0.8661
24690SOL     OW85794  13.096   6.488   0.011  0.0196  0.4117 -0.1388
24690SOL    HW185795  13.079   6.545   0.086 -2.4690  0.0400 -0.3504
24690SOL    HW285796  13.180   6.518  -0.023  2.0617 -0.3657  3.6467
24691SOL     OW85797  13.057  10.324  12.911 -0.2898  0.0147  0.1499
24691SOL    HW185798  12.985  10.386  12.920 -0.3463 -0.2127  1.3308
24691SOL    HW285799  13.027  10.244  12.953  0.9046  0.1400  1.3003
24692SOL     OW85800   9.112  12.728   0.175 -0.1327 -0.4951 -1.2678
24692SOL    HW185801   9.127  12.709   0.082  0.4156  0.9482 -1.4848
24692SOL    HW285802   9.109  12.823   0.180 -2.2154 -0.5647 -0.1149
24693SOL     OW85803   0.670  10.375   9.350  0.1608 -0.3883  0.0925
24693SOL    HW185804   0.754  10.339   9.322  1.1175  0.7852  1.2970
24693SOL    HW285805   0.663  10.352   9.442 -1.0580 -0.8227 -0.0874
24694SOL     OW85806   6.154   2.990  12.945 -0.5231  0.0546 -0.0643
24694SOL    HW185807   6.196   2.906  12.967  1.6838  0.9225 -0.6612
24694SOL    HW285808   6.101   2.971  12.868 -1.3715 -1.1274  0.7768
24695SOL     OW85809   1.068   9.397   9.742 -0.1954 -0.0653  0.1408
24695SOL    HW185810   1.014   9.340   9.797 -0.4550 -0.5719 -0.6229
24695SOL    HW285811   1.158   9.370   9.760 -0.2239  0.2859  0.8697
24696SOL     OW85812   7.130   9.343   6.826 -0.0021 -0.4592 -0.2043
24696SOL    HW185813   7.162   9.261   6.788 -0.5099 -0.2579 -1.1027
24696SOL    HW285814   7.200   9.407   6.809 -0.5289 -0.1985 -1.4828
24697SOL     OW85815  12.734   2.243   6.555 -0.5472  0.0371 -0.5884
24697SOL    HW185816  12.692   2.272   6.474  0.2516  1.4981 -0.5160
24697SOL    HW285817  12.718   2.314   6.617 -0.2885 -0.6124  0.2423
24698SOL     OW85818   7.274   6.894  12.138 -0.2401 -0.1196 -0.0727
24698SOL    HW185819   7.363   6.860  12.144 -1.1383 -2.4648  1.7513
24698SOL    HW285820   7.249   6.913  12.228 -1.8501 -0.3237 -0.4410
24699SOL     OW85821  12.239  10.556   7.508 -0.0216 -0.3261  0.0096
24699SOL    HW185822  12.317  10.608   7.531 -0.5167  1.3443 -1.7958
24699SOL    HW285823  12.168  10.621   7.502 -1.3476 -1.6733  0.5991
24700SOL     OW85824   9.170  10.671   8.616 -0.1138 -0.1055 -0.1286
24700SOL    HW185825   9.215  10.687   8.699 -0.8727  1.0120  0.0991
24700SOL    HW285826   9.192  10.747   8.562  1.5085 -1.4819 -1.4904
24701SOL     OW85827   2.707   7.381   2.940 -0.5402 -0.2870 -0.5361
24701SOL    HW185828   2.772   7.323   2.900 -0.6120  0.0843 -1.2064
24701SOL    HW285829   2.626   7.330   2.940 -0.8717  0.1669 -2.1319
24702SOL     OW85830   2.844   2.044   4.535  0.1768 -0.1015  0.4500
24702SOL    HW185831   2.800   1.967   4.570 -0.5837  1.0841  2.2879
24702SOL    HW285832   2.936   2.032   4.558 -0.1872  0.2846  2.3679
24703SOL     OW85833   8.737   0.690   7.668  0.3265 -0.1772 -0.2325
24703SOL    HW185834   8.731   0.640   7.749  2.3431 -1.7483 -0.9595
24703SOL    HW285835   8.650   0.685   7.629  0.3277 -2.8156 -0.0659
24704SOL     OW85836   4.094   7.941   4.515  0.3841  0.0658 -0.6984
24704SOL    HW185837   4.110   7.931   4.609 -0.8875 -1.3550 -0.5956
24704SOL    HW285838   4.003   7.971   4.509 -0.3548 -2.0935 -1.4754
24705SOL     OW85839   5.677   9.890   1.040  0.3199  0.6990 -0.1137
24705SOL    HW185840   5.700   9.844   1.121  1.6547 -0.4785 -1.1278
24705SOL    HW285841   5.605   9.948   1.066 -1.0708 -1.5342  1.3593
24706SOL     OW85842   9.137  11.412   8.219  0.1126 -0.5627  0.0587
24706SOL    HW185843   9.219  11.368   8.196  0.1356 -0.1775 -0.6316
24706SOL    HW285844   9.069  11.347   8.200  0.2826 -1.1190  1.2530
24707SOL     OW85845   3.220   9.508  11.397  0.3809  0.3461 -0.6360
24707SOL    HW185846   3.291   9.556  11.354  0.7819  0.7929  0.4614
24707SOL    HW285847   3.221   9.422  11.356  2.2113  0.0195 -0.0106
24708SOL     OW85848   7.031   4.519  11.572 -0.1518  0.0024  0.4229
24708SOL    HW185849   7.060   4.532  11.482  0.6902  0.1923  0.7052
24708SOL    HW285850   7.111   4.530  11.624 -0.1351 -2.3228  1.0285
24709SOL     OW85851   5.770   1.621  13.509 -0.2959  0.2122 -0.0371
24709SOL    HW185852   5.712   1.631  13.433 -0.4613 -1.9911 -0.2568
24709SOL    HW285853   5.829   1.549  13.485  1.0379  0.8811  1.1027
24710SOL     OW85854   9.289   7.204  10.100  0.2202  0.0372 -0.4531
24710SOL    HW185855   9.371   7.230  10.059 -0.0837 -0.1724 -1.2197
24710SOL    HW285856   9.314   7.147  10.172  0.7038 -1.2205 -1.5707
24711SOL     OW85857   8.310   7.856  10.371 -0.0988  0.3385  0.3877
24711SOL    HW185858   8.233   7.866  10.428 -0.8330 -1.7621 -0.1234
24711SOL    HW285859   8.274   7.849  10.283  0.6728 -0.4450  0.1176
24712SOL     OW85860   4.758  10.038   7.533  0.9579 -0.1354  0.0155
24712SOL    HW185861   4.730  10.006   7.448 -0.1576  1.2466 -0.1811
24712SOL    HW285862   4.683  10.022   7.591  0.3813  1.9378 -0.0792
24713SOL     OW85863   4.808   0.872  12.102 -0.8320 -0.1563 -0.2224
24713SOL    HW185864   4.830   0.780  12.113 -0.3901  0.1361  1.8668
24713SOL    HW285865   4.721   0.881  12.140 -0.2231  0.5424  1.0787
24714SOL     OW85866   5.809  13.622  10.246  0.2581  0.1387  0.6518
24714SOL    HW185867   5.723  13.664  10.241 -0.7622 -1.6676  1.8307
24714SOL    HW285868   5.794  13.542  10.297  2.2984 -1.1034 -0.5356
24715SOL     OW85869   6.442   3.504   7.105  0.3216  0.6677 -0.1623
24715SOL    HW185870   6.454   3.599   7.110  1.5251  0.5027  0.7052
24715SOL    HW285871   6.358   3.488   7.148  1.0660  1.1886  1.5741
24716SOL     OW85872  12.624  12.266   0.917 -0.1126 -0.1161 -0.0960
24716SOL    HW185873  12.545  12.308   0.951  0.3952  0.0289  0.9444
24716SOL    HW285874  12.695  12.320   0.950  0.5838 -1.8540  1.4219
24717SOL     OW85875  12.818  12.863   6.109  0.6906  0.0990  0.2806
24717SOL    HW185876  12.857  12.818   6.034  1.0496  0.0741  0.4790
24717SOL    HW285877  12.727  12.835   6.110  0.9758 -0.8503  0.5647
24718SOL     OW85878   1.017   1.084   4.040 -0.2162  0.0810  0.0822
24718SOL    HW185879   1.067   1.003   4.023 -1.3410 -0.4659 -0.7466
24718SOL    HW285880   1.064   1.126   4.112  1.8437 -0.0531 -1.0964
24719SOL     OW85881   9.411   9.869   6.909 -0.2386  0.4273 -0.3619
24719SOL    HW185882   9.373   9.911   6.986  0.3539 -0.3376  0.3517
24719SOL    HW285883   9.504   9.890   6.913 -0.2774  0.8147 -1.1568
24720SOL     OW85884  11.272   2.066  12.850 -0.3632 -0.1492  0.8549
24720SOL    HW185885  11.288   2.087  12.942 -0.1609  1.8690  0.4070
24720SOL    HW285886  11.177   2.073  12.840 -0.2860  0.8474  0.6756
24721SOL     OW85887   2.001   3.328   8.684  0.2829  0.0029 -0.4499
24721SOL    HW185888   1.947   3.401   8.657 -1.5997 -1.2732 -0.3358
24721SOL    HW285889   1.954   3.289   8.758  1.3886 -1.1319 -0.3093
24722SOL     OW85890   3.950  12.944   7.561 -0.4014  0.3050 -0.6699
24722SOL    HW185891   3.962  12.985   7.647 -1.1962  1.4187 -1.0677
24722SOL    HW285892   3.951  12.850   7.580  2.2749  0.4080  0.1460
24723SOL     OW85893   6.160   1.044   5.882  0.3874 -0.3628 -0.0267
24723SOL    HW185894   6.176   1.020   5.974 -2.0989 -0.8988  0.3558
24723SOL    HW285895   6.171   0.963   5.834 -2.2841 -1.1239  0.4539
24724SOL     OW85896   4.312   3.597   0.340 -0.5938 -0.3359 -0.0013
24724SOL    HW185897   4.308   3.504   0.317 -0.5263 -0.7276  1.5095
24724SOL    HW285898   4.270   3.641   0.265  0.9747 -1.3974 -1.5823
24725SOL     OW85899   6.770   5.126  10.180 -0.0933  0.3935  0.1084
24725SOL    HW185900   6.819   5.052  10.145 -0.1256  1.4859 -2.3888
24725SOL    HW285901   6.837   5.190  10.204 -0.1804  0.9626 -1.1230
24726SOL     OW85902   9.301   6.675   3.887  0.1858  0.1187  0.3576
24726SOL    HW185903   9.283   6.768   3.900  1.2304  0.2777  0.7510
24726SOL    HW285904   9.281   6.659   3.795 -2.0949  0.2177  0.7594
24727SOL     OW85905  11.226  13.331   4.758 -0.1011  0.2278 -0.3192
24727SOL    HW185906  11.256  13.411   4.801  0.7131  0.5669 -1.4764
24727SOL    HW285907  11.283  13.263   4.792  0.2535  0.4215 -0.5160
24728SOL     OW85908   4.865   6.506   8.636 -0.1730  0.1148  0.5096
24728SOL    HW185909   4.919   6.557   8.575  1.0970 -1.7916 -0.0354
24728SOL    HW285910   4.850   6.566   8.710  2.5253  0.8289  0.5778
24729SOL     OW85911   3.786   6.998   9.920  0.4424 -0.4868  0.1513
24729SOL    HW185912   3.743   7.076   9.887  1.4430  0.1270  0.2467
24729SOL    HW285913   3.775   6.933   9.851 -0.4352 -0.2792  0.0921
24730SOL     OW85914  10.059  11.944   6.927  0.5202 -0.2395  0.2082
24730SOL    HW185915  10.013  11.968   6.847  1.4342  0.9530  0.0103
24730SOL    HW285916  10.134  12.003   6.930 -0.4975  1.0726  2.9182
24731SOL     OW85917   1.347   3.602  12.533  0.8325  0.5381  0.6291
24731SOL    HW185918   1.339   3.587  12.627  2.3571  2.5269  1.1692
24731SOL    HW285919   1.303   3.686  12.518 -1.6846 -0.9395 -0.9778
24732SOL     OW85920  10.446   3.545   9.543  0.1465 -0.0692  0.6565
24732SOL    HW185921  10.377   3.496   9.498  1.7867 -2.1373  0.2230
24732SOL    HW285922  10.428   3.637   9.523 -0.4752 -0.7537 -2.4269
24733SOL     OW85923   0.477   1.390   3.226 -0.8200  0.0564  0.3203
24733SOL    HW185924   0.432   1.475   3.225 -1.5321 -0.3148 -0.3033
24733SOL    HW285925   0.568   1.411   3.206 -1.2312  0.5653 -1.1761
24734SOL     OW85926   0.535   5.280   0.968 -0.1052 -0.0006 -0.2089
24734SOL    HW185927   0.602   5.223   1.006  0.0924 -0.1432 -0.7558
24734SOL    HW285928   0.575   5.367   0.967  0.1262 -0.1100 -0.6584
24735SOL     OW85929   8.644   6.358   3.212 -0.1662 -0.1269 -0.1200
24735SOL    HW185930   8.643   6.286   3.150  0.5826  0.3380 -0.6848
24735SOL    HW285931   8.552   6.380   3.225 -0.4994 -1.9431  0.9850
24736SOL     OW85932   1.071   4.618   4.767  0.0594  0.3114 -0.5374
24736SOL    HW185933   1.107   4.701   4.735 -1.1391  0.8262 -0.5922
24736SOL    HW285934   1.010   4.644   4.836 -1.1910 -0.4109 -1.3221
24737SOL     OW85935   0.270  13.511   3.091  0.4163 -0.2286  0.3749
24737SOL    HW185936   0.195  13.456   3.114 -0.2036  0.0841 -0.7743
24737SOL    HW285937   0.235  13.600   3.093  1.5043  0.2040  2.5853
24738SOL     OW85938   6.182   0.373   8.970  0.1348  0.0893 -0.0784
24738SOL    HW185939   6.242   0.438   8.933  0.2249  0.3548  0.5101
24738SOL    HW285940   6.120   0.425   9.022 -0.4786 -0.2013 -0.5026
24739SOL     OW85941   1.654   7.873   4.955 -0.2111 -0.1487 -0.0584
24739SOL    HW185942   1.641   7.790   5.001 -0.5548 -0.0546  0.0202
24739SOL    HW285943   1.720   7.854   4.889 -1.4534 -0.9272 -1.1335
24740SOL     OW85944  11.678  12.616   9.996  0.1059  0.2954 -0.1938
24740SOL    HW185945  11.646  12.529   9.972 -0.1716  0.1225  0.7548
24740SOL    HW285946  11.636  12.634  10.080  1.1946  0.7895  0.2587
24741SOL     OW85947   7.775  11.465   4.580 -0.3971  0.0963 -0.7552
24741SOL    HW185948   7.867  11.465   4.555  0.6336  1.3921  2.5550
24741SOL    HW285949   7.739  11.386   4.539  2.3410 -0.8482 -1.5499
24742SOL     OW85950   7.071   0.549  12.799  0.1660  0.2293  0.4472
24742SOL    HW185951   7.013   0.577  12.728  0.2190 -2.0645 -0.5716
24742SOL    HW285952   7.012   0.519  12.868  0.1344  0.2076  0.4106
24743SOL     OW85953   8.185   5.597   9.269 -0.2185 -0.2993 -0.7957
24743SOL    HW185954   8.170   5.638   9.354  2.2045 -2.0700  0.6357
24743SOL    HW285955   8.098   5.573   9.237 -1.1900  0.4548  1.1646
24744SOL     OW85956   6.791  10.047   0.908  0.4744  0.1639 -0.1327
24744SOL    HW185957   6.767   9.960   0.875  2.5798  0.4032 -2.7012
24744SOL    HW285958   6.769  10.044   1.001 -0.2083 -2.8404 -0.2585
24745SOL     OW85959   3.232  12.854   4.939 -0.1147  0.4289 -0.2906
24745SOL    HW185960   3.227  12.927   5.001  0.0082  0.0862  0.1345
24745SOL    HW285961   3.255  12.779   4.994  1.1632  0.3381 -0.9344
24746SOL     OW85962  10.069  12.607   1.573 -0.2258 -0.4685 -0.0167
24746SOL    HW185963  10.101  12.692   1.601  0.8996 -1.6472  2.5538
24746SOL    HW285964   9.979  12.603   1.607 -0.3026 -0.2936 -0.1956
24747SOL     OW85965   0.478   8.318   8.173 -0.0286 -0.5364 -0.1492
24747SOL    HW185966   0.460   8.237   8.126 -0.7662 -0.8636  0.6925
24747SOL    HW285967   0.548   8.296   8.235 -1.2227 -0.9271  1.1015
24748SOL     OW85968   3.094   9.804   3.695  0.0582 -0.0332  0.2385
24748SOL    HW185969   3.188   9.784   3.696  0.2824  0.9350 -0.1228
24748SOL    HW285970   3.085   9.878   3.754 -0.2090  0.9289 -0.9623
24749SOL     OW85971   0.241   7.737   7.086  0.4714 -0.2015  0.5365
24749SOL    HW185972   0.332   7.751   7.058  0.0959 -0.8908 -1.0924
24749SOL    HW285973   0.199   7.822   7.070  0.2242 -0.6276 -1.2143
24750SOL     OW85974   3.970   1.585  12.358  0.0158 -0.1044  0.2392
24750SOL    HW185975   3.927   1.504  12.330 -1.5080  0.6515  0.2796
24750SOL    HW285976   4.044   1.594  12.298  0.2870 -1.5757  0.3031
24751SOL     OW85977   4.121   1.747   1.926 -0.4737  0.2042  0.1915
24751SOL    HW185978   4.166   1.831   1.927 -0.2501  0.0876 -0.1384
24751SOL    HW285979   4.185   1.685   1.962 -0.3953  0.0516 -0.2115
24752SOL     OW85980   6.548  12.416   9.265 -0.0764  0.5737  0.2446
24752SOL    HW185981   6.454  12.398   9.260 -0.1975  1.1551  0.3728
24752SOL    HW285982   6.587  12.330   9.284 -0.8170  0.7063  2.8753
24753SOL     OW85983   6.704   7.983   7.416 -0.4678  0.0114  0.3150
24753SOL    HW185984   6.618   7.978   7.373 -0.2587  0.5292 -0.1867
24753SOL    HW285985   6.684   7.988   7.509 -1.0102  0.5504  0.1800
24754SOL     OW85986  10.532  12.346  12.087  0.3938 -0.2547 -0.0343
24754SOL    HW185987  10.566  12.357  12.176  0.6197 -1.6554  0.0782
24754SOL    HW285988  10.607  12.367  12.031  0.8323 -1.2262  0.1658
24755SOL     OW85989   1.882   2.571   7.563 -0.0383  0.6033  0.0398
24755SOL    HW185990   1.888   2.596   7.655  0.7132  1.7780 -0.3093
24755SOL    HW285991   1.808   2.622   7.529 -1.0091 -0.6368  0.2203
24756SOL     OW85992   6.983   6.736   3.045 -0.0789 -0.1730 -0.5801
24756SOL    HW185993   6.987   6.826   3.012  1.2102 -0.2083 -0.5729
24756SOL    HW285994   7.074   6.705   3.039 -0.0639 -0.6702  1.6623
24757SOL     OW85995   4.912   5.470   2.540 -0.0000 -0.2015 -0.3637
24757SOL    HW185996   4.889   5.394   2.593 -1.1971 -0.1962 -0.8577
24757SOL    HW285997   4.985   5.511   2.587 -0.7007 -0.4757  0.9927
24758SOL     OW85998   1.776   8.331   8.639 -0.1531  0.2756 -0.2935
24758SOL    HW185999   1.723   8.361   8.566 -2.9488 -0.3886  1.3179
24758SOL    HW286000   1.725   8.353   8.717  1.6664 -0.9702  1.3533
24759SOL     OW86001   0.379  13.403   6.105 -0.4649  0.1428  0.7470
24759SOL    HW186002   0.371  13.474   6.042  0.8478  1.1351  1.6630
24759SOL    HW286003   0.453  13.426   6.159 -0.6362 -1.4330  1.7324
24760SOL     OW86004   1.180   2.684   1.485  0.1724  0.0620 -0.3917
24760SOL    HW186005   1.231   2.708   1.408  0.8321  0.8085  0.2731
24760SOL    HW286006   1.207   2.594   1.505 -0.5426 -0.4104 -1.4478
24761SOL     OW86007  11.629  10.202  12.229  0.2014 -0.2215  0.3986
24761SOL    HW186008  11.547  10.173  12.189  1.2733 -0.0629 -2.0656
24761SOL    HW286009  11.621  10.176  12.321 -1.7661 -2.0381 -0.2018
24762SOL     OW86010   0.439   2.398   9.713  1.0136 -0.3901 -0.0934
24762SOL    HW186011   0.445   2.454   9.790 -2.2582  0.1205 -0.0767
24762SOL    HW286012   0.400   2.454   9.646  0.1258 -1.9029 -0.8913
24763SOL     OW86013   1.926   4.904   8.039  0.3157 -0.2665 -0.9957
24763SOL    HW186014   1.853   4.963   8.057  0.6875 -0.4534  1.5902
24763SOL    HW286015   1.896   4.818   8.069  2.0044 -0.0717  1.6315
24764SOL     OW86016   4.243  12.291   8.713  0.1228  0.2596  0.4147
24764SOL    HW186017   4.317  12.302   8.773  1.0473  1.3399 -0.8545
24764SOL    HW286018   4.166  12.311   8.765  0.8595  0.6948  1.3643
24765SOL     OW86019   0.302   5.471   9.782 -0.3526  0.0207 -0.1992
24765SOL    HW186020   0.271   5.409   9.715 -0.5726 -0.2905  0.1895
24765SOL    HW286021   0.249   5.451   9.859  0.6405 -0.3294  0.3966
24766SOL     OW86022   6.245  13.463  11.426  0.0716  0.2307 -0.3594
24766SOL    HW186023   6.189  13.491  11.353  0.5798  1.0952 -0.4291
24766SOL    HW286024   6.185  13.420  11.487 -1.0555  2.8370  0.4872
24767SOL     OW86025   4.879  11.514   4.875 -0.4109 -0.0517  0.3519
24767SOL    HW186026   4.934  11.521   4.953  0.5518  1.3622 -0.4074
24767SOL    HW286027   4.794  11.484   4.908  0.3636 -0.8273  1.7438
24768SOL     OW86028   4.292   0.291   5.578 -0.1255 -0.6151  0.1276
24768SOL    HW186029   4.225   0.226   5.599 -1.5537  0.1059 -1.8144
24768SOL    HW286030   4.271   0.366   5.634 -1.6972  0.0101 -1.2167
24769SOL     OW86031   5.676   0.527  10.891 -0.1621  0.1621 -0.5268
24769SOL    HW186032   5.771   0.528  10.902 -0.1787 -1.2972 -0.0131
24769SOL    HW286033   5.650   0.618  10.900  1.1380  0.5199 -0.1587
24770SOL     OW86034   2.005  11.720   4.162 -0.3338 -0.2100  0.5073
24770SOL    HW186035   1.925  11.736   4.212 -0.7080  0.0259 -0.1673
24770SOL    HW286036   2.075  11.754   4.218 -0.3448 -3.1177  2.5180
24771SOL     OW86037   7.835   3.087   5.416  0.5052  0.5194 -0.0147
24771SOL    HW186038   7.784   3.164   5.444  0.4189  0.6094 -0.4210
24771SOL    HW286039   7.811   3.019   5.480 -0.1609  0.5466 -0.2236
24772SOL     OW86040   8.239   7.231   6.993 -0.3399  0.2420  0.1644
24772SOL    HW186041   8.283   7.247   6.910 -1.0184 -0.3888 -0.3278
24772SOL    HW286042   8.298   7.174   7.042 -0.4275 -0.2688 -0.3225
24773SOL     OW86043   7.996   1.616  10.251 -0.0683  0.0921  0.2959
24773SOL    HW186044   7.921   1.624  10.193  0.3986  1.6552 -0.1477
24773SOL    HW286045   8.072   1.630  10.195  0.7083 -2.7190  0.4767
24774SOL     OW86046  13.120  13.398   5.474  0.1072  0.1118  0.8690
24774SOL    HW186047  13.054  13.399   5.405  2.2594  3.0588 -1.4587
24774SOL    HW286048  13.166  13.315   5.462 -0.7380 -0.2433 -0.0362
24775SOL     OW86049  13.632   5.130   7.975  0.6300 -0.1083 -0.1897
24775SOL    HW186050  13.590   5.043   7.981 -1.0183  0.6219 -0.5085
24775SOL    HW286051  13.718   5.118   8.015  0.3709 -1.8573 -0.0744
24776SOL     OW86052  12.302   2.679   9.752  0.2291 -0.0346  0.5309
24776SOL    HW186053  12.247   2.747   9.790 -1.8206 -2.1756  1.6714
24776SOL    HW286054  12.348   2.640   9.827 -0.6232 -1.5517  0.3060
24777SOL     OW86055   2.805   7.584   1.514  0.3770  0.1264 -0.3895
24777SOL    HW186056   2.743   7.573   1.441  0.2364 -0.3764 -0.2009
24777SOL    HW286057   2.750   7.605   1.589  0.3866 -0.7866 -0.1202
24778SOL     OW86058  12.402   2.226   8.251  0.5091  0.1298  0.6125
24778SOL    HW186059  12.383   2.320   8.249  2.1246  0.4720 -0.9602
24778SOL    HW286060  12.362   2.191   8.171  0.9908 -0.2890  0.5469
24779SOL     OW86061   5.295   9.167  10.411  0.1148 -0.1510 -0.6784
24779SOL    HW186062   5.332   9.174  10.498 -2.6052 -1.2158  0.6884
24779SOL    HW286063   5.319   9.249  10.368  3.1682 -0.4220  0.2976
24780SOL     OW86064  11.121  10.314  13.479  0.3405  0.4941  0.5936
24780SOL    HW186065  11.118  10.408  13.497 -1.0895  0.5584  0.1350
24780SOL    HW286066  11.048  10.298  13.420  1.9727 -0.5261 -1.2894
24781SOL     OW86067  13.315   2.765   0.697  0.0671  0.8867 -0.9432
24781SOL    HW186068  13.409   2.747   0.694  0.1439  1.3726 -2.5459
24781SOL    HW286069  13.298   2.817   0.618 -1.8241 -0.5208 -1.5377
24782SOL     OW86070  10.325   2.018  10.454 -0.6103  0.1553 -0.0138
24782SOL    HW186071  10.248   1.990  10.405 -2.0112  2.6872  0.5575
24782SOL    HW286072  10.366   2.085  10.398  0.4391 -0.2255  0.2728
24783SOL     OW86073   8.389   2.558   7.058 -0.0038 -0.3889  0.6640
24783SOL    HW186074   8.349   2.582   7.142  1.6194  0.4969  1.2458
24783SOL    HW286075   8.464   2.504   7.083 -0.8200 -2.1076 -0.3922
24784SOL     OW86076   1.683   9.328   5.687 -0.3263  0.0727  0.3198
24784SOL    HW186077   1.702   9.259   5.624  1.2358  1.3388 -0.6743
24784SOL    HW286078   1.633   9.393   5.637  0.4634  0.8424  0.5166
24785SOL     OW86079  10.359   8.363   9.745 -0.1276 -0.2385  0.4507
24785SOL    HW186080  10.414   8.287   9.762 -2.0087 -1.3957  1.8166
24785SOL    HW286081  10.359   8.411   9.828 -1.1847 -0.3064  0.5064
24786SOL     OW86082   3.558  12.075   5.426  0.5194 -0.0155 -0.1660
24786SOL    HW186083   3.581  12.004   5.485  0.5369 -0.4406 -0.6773
24786SOL    HW286084   3.491  12.038   5.368 -2.7183  1.6052  2.2352
24787SOL     OW86085   1.511  13.306   8.082 -0.6258 -0.1476 -0.1371
24787SOL    HW186086   1.562  13.378   8.044 -2.1166 -0.1274 -2.3372
24787SOL    HW286087   1.471  13.344   8.160  1.6449  0.2019  0.9230
24788SOL     OW86088   3.606   6.149   5.708 -0.3509  0.3149 -0.2865
24788SOL    HW186089   3.531   6.157   5.766 -0.9211  0.5702 -1.0505
24788SOL    HW286090   3.678   6.121   5.766 -0.3632  2.6252  0.9466
24789SOL     OW86091   4.933   9.651   5.347  0.4427 -0.1878  0.2733
24789SOL    HW186092   5.025   9.627   5.358  1.1441  2.0244 -0.2302
24789SOL    HW286093   4.922   9.729   5.401 -1.5171 -1.1087  1.3183
24790SOL     OW86094   3.801  10.075   0.013  0.2654  0.7698  0.1033
24790SOL    HW186095   3.817  10.069  -0.081  0.3873  0.6535  0.1297
24790SOL    HW286096   3.761  10.160   0.027  0.0176  0.6851 -0.0870
24791SOL     OW86097  10.647   2.887   0.829  0.4355 -0.1508  0.3034
24791SOL    HW186098  10.630   2.822   0.761 -0.5766  0.4831 -0.0667
24791SOL    HW286099  10.740   2.876   0.850  0.1694 -2.0585  0.6259
24792SOL     OW86100   1.175  13.571   8.722 -0.1945 -0.7147  0.4021
24792SOL    HW186101   1.267  13.576   8.750 -0.2143  0.9119  0.2851
24792SOL    HW286102   1.175  13.606   8.633 -0.7495 -1.9984 -0.1250
24793SOL     OW86103   6.841  12.853   1.998 -0.3447 -0.7037 -0.4279
24793SOL    HW186104   6.929  12.818   1.987  0.3162 -0.1241  2.2507
24793SOL    HW286105   6.811  12.871   1.909  2.2658 -0.8276 -1.4193
24794SOL     OW86106   7.277   9.159   0.542  0.3301  0.5888  0.5513
24794SOL    HW186107   7.336   9.087   0.520 -0.4016 -0.2298  1.1606
24794SOL    HW286108   7.208   9.154   0.475  0.3490  0.8170  0.5134
24795SOL     OW86109   5.720   6.877   8.438 -0.0945 -0.4720 -0.5857
24795SOL    HW186110   5.664   6.952   8.420  1.0577  0.2083 -1.4728
24795SOL    HW286111   5.681   6.836   8.516 -2.2086 -0.4486 -1.5552
24796SOL     OW86112   2.422   8.894   3.064 -0.0742  0.0301  0.4325
24796SOL    HW186113   2.367   8.963   3.028 -1.2172 -0.5274  1.0515
24796SOL    HW286114   2.468   8.935   3.137  1.3634  0.8453 -0.8594
24797SOL     OW86115   6.269   4.124  10.843  0.4433  0.3409 -0.1749
24797SOL    HW186116   6.263   4.197  10.782 -0.3661  0.2217 -0.2415
24797SOL    HW286117   6.309   4.162  10.922  0.3020  0.7831 -0.3165
24798SOL     OW86118   0.154  12.935   1.907 -0.2750  0.3392  0.6146
24798SOL    HW186119   0.235  12.891   1.881 -0.2318  0.5496  0.3971
24798SOL    HW286120   0.167  12.954   2.000  0.3228  1.2308  0.3622
24799SOL     OW86121   9.085   7.830  10.399 -0.0160  0.0204  0.1290
24799SOL    HW186122   9.104   7.896  10.332  0.7360 -1.1713 -0.8970
24799SOL    HW286123   9.034   7.763  10.352 -2.0780  0.5455  1.5051
24800SOL     OW86124  12.137   2.342   2.929 -0.1606 -0.3016  0.9444
24800SOL    HW186125  12.174   2.260   2.896 -0.0648 -0.5392  1.6289
24800SOL    HW286126  12.099   2.384   2.852 -2.2508 -2.0433  0.9310
24801SOL     OW86127   1.739  12.442   5.826  0.3615 -0.1869 -0.2058
24801SOL    HW186128   1.728  12.447   5.731  0.3011  0.8672 -0.1570
24801SOL    HW286129   1.811  12.380   5.839 -0.5069 -1.3477 -0.8701
24802SOL     OW86130   7.120   0.310   3.678  0.4798 -0.0326  0.0856
24802SOL    HW186131   7.134   0.223   3.640  0.8381  0.2057 -0.3447
24802SOL    HW286132   7.087   0.363   3.606 -1.1981 -0.1718  0.7070
24803SOL     OW86133   7.363   8.042   8.863 -0.0380 -0.0419 -0.1393
24803SOL    HW186134   7.334   8.012   8.777 -0.2233 -0.6994  0.1469
24803SOL    HW286135   7.457   8.025   8.864  0.2427  1.3359 -0.7592
24804SOL     OW86136   3.698   8.236   6.992  0.2883 -0.1413 -0.3270
24804SOL    HW186137   3.703   8.166   6.927 -0.6585  0.7841 -1.4216
24804SOL    HW286138   3.623   8.212   7.047 -0.4130  0.3024 -1.0718
24805SOL     OW86139   1.974  11.757   0.808  0.1819  0.7761  0.4577
24805SOL    HW186140   1.936  11.843   0.821  0.0308  1.2233 -2.3390
24805SOL    HW286141   2.063  11.774   0.775  1.3671 -0.2213  2.8805
24806SOL     OW86142  11.716   7.792   8.330  0.3385  0.4683 -0.7583
24806SOL    HW186143  11.674   7.721   8.380  1.0361  0.5017 -0.1106
24806SOL    HW286144  11.645   7.853   8.311 -0.0113  0.2868 -0.0891
24807SOL     OW86145   4.897   3.782   5.617  0.2908  0.0769 -0.3263
24807SOL    HW186146   4.959   3.760   5.687 -0.8856 -1.3101  0.3445
24807SOL    HW286147   4.839   3.706   5.612 -1.7443  1.5568 -0.5063
24808SOL     OW86148   9.588  13.563  12.530  0.0763 -0.3623 -0.2175
24808SOL    HW186149   9.615  13.655  12.535  1.9744 -0.9028 -0.1072
24808SOL    HW286150   9.502  13.562  12.572  0.1064  1.3285 -0.0378
24809SOL     OW86151   3.049   7.206   6.553  0.4486 -0.5424 -0.3693
24809SOL    HW186152   3.101   7.126   6.552  0.3186 -0.6804  1.1524
24809SOL    HW286153   3.113   7.277   6.561  0.4484 -0.6876  1.1052
24810SOL     OW86154  13.477   8.441   3.108  0.1474  0.0599  0.5010
24810SOL    HW186155  13.527   8.523   3.105  0.1996  0.0607  1.2732
24810SOL    HW286156  13.494   8.400   3.023  1.0337  0.3187  0.5438
24811SOL     OW86157   1.648   6.677   6.221 -0.6398  0.0241  0.2211
24811SOL    HW186158   1.705   6.735   6.273 -0.7696 -1.0778  1.6625
24811SOL    HW286159   1.684   6.682   6.133  2.3194 -1.3009  1.2325
24812SOL     OW86160  11.351   7.998   3.683 -0.6832  0.0539 -0.5022
24812SOL    HW186161  11.442   8.016   3.707 -0.2720  0.6553 -2.3605
24812SOL    HW286162  11.337   7.907   3.710  1.0693 -0.6643 -1.7966
24813SOL     OW86163   7.269  11.795   7.337 -0.3881 -0.0348 -0.6890
24813SOL    HW186164   7.222  11.844   7.269 -0.6029  1.1058  0.2539
24813SOL    HW286165   7.251  11.703   7.317 -2.4982  0.3505 -0.7330
24814SOL     OW86166   8.210  12.166  10.401 -0.4832 -0.6993  0.2077
24814SOL    HW186167   8.166  12.151  10.318  2.5739  0.1164 -1.7069
24814SOL    HW286168   8.219  12.079  10.440  0.4282 -1.4999 -1.6849
24815SOL     OW86169   7.016   9.639   9.974  0.5844 -0.5188 -0.0719
24815SOL    HW186170   6.935   9.685   9.953  0.8600 -0.1048 -0.2611
24815SOL    HW286171   7.085   9.697   9.942  1.0322  0.0646  1.8224
24816SOL     OW86172   5.362   8.697  11.607  0.7314 -0.4465  0.1450
24816SOL    HW186173   5.418   8.633  11.564  0.2227 -0.7904 -0.0183
24816SOL    HW286174   5.285   8.702  11.551  0.2058 -0.6500  0.8325
24817SOL     OW86175   8.618   9.725   2.325  0.2535 -0.0519 -0.2011
24817SOL    HW186176   8.577   9.659   2.269  0.2991  1.3025 -1.9206
24817SOL    HW286177   8.628   9.802   2.268  1.1914  1.0844  1.4153
24818SOL     OW86178  11.351   9.296   1.341  0.0057 -0.3190 -0.3486
24818SOL    HW186179  11.262   9.326   1.323 -0.3827 -1.8346 -1.1110
24818SOL    HW286180  11.407   9.348   1.284 -0.4368  0.3078 -0.2177
24819SOL     OW86181   9.762   1.564  12.376 -0.0345 -0.3383 -0.2164
24819SOL    HW186182   9.779   1.472  12.397 -2.3520 -0.6030  0.8971
24819SOL    HW286183   9.816   1.613  12.439 -0.0482 -0.9771  0.3030
24820SOL     OW86184   3.044   9.358  12.773  0.5053  0.1100 -0.0122
24820SOL    HW186185   2.955   9.329  12.795  0.4911  0.6018  0.6003
24820SOL    HW286186   3.037   9.453  12.766  0.6393  0.0327 -1.5842
24821SOL     OW86187   8.562   2.252   0.201 -0.7736 -0.4717  0.0379
24821SOL    HW186188   8.619   2.316   0.157 -0.0768 -0.8917  0.3171
24821SOL    HW286189   8.580   2.264   0.294 -0.6116 -1.1063  0.0898
24822SOL     OW86190   1.801   5.202   2.842 -0.2384 -0.4189 -0.2031
24822SOL    HW186191   1.813   5.263   2.915 -2.9416  0.6194 -0.5167
24822SOL    HW286192   1.775   5.256   2.768 -0.9169 -1.7713 -1.0023
24823SOL     OW86193   5.853   0.338  12.865 -0.4817  0.3040  0.2263
24823SOL    HW186194   5.947   0.356  12.868 -0.1812 -1.0034 -0.5744
24823SOL    HW286195   5.825   0.340  12.957  0.4924 -0.0445  0.5412
24824SOL     OW86196   4.828   0.523   4.746  0.2572  0.4699 -0.2204
24824SOL    HW186197   4.916   0.485   4.755 -0.1457 -0.5793 -0.5309
24824SOL    HW286198   4.772   0.465   4.797 -0.3050  0.9729 -0.2571
24825SOL     OW86199   5.468   3.356  11.404 -0.2234 -0.3442  0.5519
24825SOL    HW186200   5.545   3.340  11.459 -1.8699 -1.0566  2.8161
24825SOL    HW286201   5.493   3.429  11.348  1.9593 -0.2932  1.4845
24826SOL     OW86202   4.150   6.606   7.288 -0.4065  0.2236  0.0688
24826SOL    HW186203   4.059   6.606   7.259 -0.9104  0.1901  1.5590
24826SOL    HW286204   4.151   6.661   7.366  0.9834  0.7378 -0.2851
24827SOL     OW86205   8.242  11.976   2.732 -0.2229 -0.5435 -0.5074
24827SOL    HW186206   8.173  12.027   2.688  1.0737  2.0711  0.2961
24827SOL    HW286207   8.219  11.978   2.824 -1.5791 -3.8819 -0.6282
24828SOL     OW86208   3.032  11.635   7.805  0.1054  0.4306 -0.2969
24828SOL    HW186209   2.943  11.602   7.819  0.7829 -1.3594  0.1460
24828SOL    HW286210   3.046  11.696   7.877  0.2630 -1.6472  1.5656
24829SOL     OW86211   6.654   8.119   1.172 -0.0533 -0.2190  0.7043
24829SOL    HW186212   6.744   8.099   1.197  0.1131 -2.0701 -1.0768
24829SOL    HW286213   6.605   8.040   1.192 -1.3466  0.7719  1.6683
24830SOL     OW86214   4.444   3.923  10.165 -0.4814 -0.0004 -0.4264
24830SOL    HW186215   4.531   3.915  10.126 -0.9659  0.5816 -1.7041
24830SOL    HW286216   4.401   3.990  10.112 -2.2510 -1.4003 -0.8484
24831SOL     OW86217  12.542  11.995   1.307  0.7136 -0.0849 -0.1947
24831SOL    HW186218  12.592  12.012   1.227  1.4738 -3.7131 -0.6477
24831SOL    HW286219  12.474  11.934   1.280 -1.6038  1.7317  1.2212
24832SOL     OW86220   7.370  12.500   0.699 -0.3312 -0.0515 -0.4152
24832SOL    HW186221   7.449  12.527   0.651 -0.7040  0.2240 -0.8822
24832SOL    HW286222   7.399  12.425   0.751  0.4199  0.5011 -0.0200
24833SOL     OW86223  10.481   1.817   6.212 -0.3212 -0.5079  0.5764
24833SOL    HW186224  10.499   1.853   6.125  1.4313  1.3082  1.5652
24833SOL    HW286225  10.530   1.875   6.271 -2.2766 -1.0458  2.8650
24834SOL     OW86226   0.466  10.212   3.036 -0.1905 -0.0591 -0.5451
24834SOL    HW186227   0.525  10.263   3.091 -3.0737  0.9374  1.8648
24834SOL    HW286228   0.454  10.266   2.958  2.1506 -0.4203 -1.2464
24835SOL     OW86229   5.635   0.233   8.009 -0.1174  0.2606 -0.3378
24835SOL    HW186230   5.577   0.233   7.933  1.0753 -0.6504 -1.2977
24835SOL    HW286231   5.668   0.143   8.014  0.1696  0.4209  0.9920
24836SOL     OW86232   1.946   2.134   4.584  0.5131  0.3928  0.7245
24836SOL    HW186233   2.018   2.094   4.633  0.6309 -1.2496 -0.7287
24836SOL    HW286234   1.899   2.061   4.544 -1.0558  1.5339  0.3787
24837SOL     OW86235  12.715  13.596   6.883  0.0854 -0.6169  0.3167
24837SOL    HW186236  12.621  13.607   6.868  0.3702  0.8150 -0.6019
24837SOL    HW286237  12.744  13.680   6.919  1.0947 -0.8706  0.1334
24838SOL     OW86238   0.836  12.138   4.937 -0.2010  0.0102  0.1168
24838SOL    HW186239   0.870  12.099   4.857 -1.8901  0.5568 -0.9050
24838SOL    HW286240   0.891  12.215   4.952  1.0898 -0.9300  0.3563
24839SOL     OW86241  10.432   0.016   5.599 -0.5397  0.3016 -0.2156
24839SOL    HW186242  10.364   0.083   5.590 -0.1200  0.5408 -1.6841
24839SOL    HW286243  10.382  -0.066   5.612 -1.0600  0.7139  0.5053
24840SOL     OW86244   2.239   5.292   9.867 -0.1987 -0.4127  0.5935
24840SOL    HW186245   2.251   5.332   9.953  1.5328  3.8828 -1.3547
24840SOL    HW286246   2.320   5.244   9.851  0.8317  1.3471  0.2748
24841SOL     OW86247   0.851  11.370   1.419  1.0691  0.1397  0.0741
24841SOL    HW186248   0.812  11.440   1.472 -1.4087 -1.1089  0.0203
24841SOL    HW286249   0.945  11.378   1.435  0.6746  1.9696  1.9335
24842SOL     OW86250   2.486   4.162   8.226  0.2646  0.1254  0.1283
24842SOL    HW186251   2.512   4.093   8.288 -0.4200 -0.4838 -0.2433
24842SOL    HW286252   2.393   4.177   8.245  0.6852  1.8028  0.9938
24843SOL     OW86253  13.501  12.552  10.565 -0.0041 -0.3471 -0.0471
24843SOL    HW186254  13.459  12.528  10.647  1.2883 -1.0432  0.4393
24843SOL    HW286255  13.530  12.469  10.527 -0.2272 -0.0016 -1.0138
24844SOL     OW86256   6.812   2.128   9.535 -0.2609  0.0515 -0.1249
24844SOL    HW186257   6.901   2.153   9.561 -0.3926 -2.3328  3.2358
24844SOL    HW286258   6.824   2.058   9.470  0.2673  0.3769 -0.3844
24845SOL     OW86259   8.676   0.550  11.686  0.5440  0.0329  0.5991
24845SOL    HW186260   8.591   0.586  11.709  0.5872  0.0436  0.7404
24845SOL    HW286261   8.659   0.498  11.607  0.4204  0.0909  0.5874
24846SOL     OW86262   7.706   2.476   6.863  0.0138  0.2001 -0.0664
24846SOL    HW186263   7.771   2.493   6.930  0.6700 -0.1210 -0.6027
24846SOL    HW286264   7.741   2.519   6.784  0.6815 -1.7639 -0.9096
24847SOL     OW86265   6.603  10.760  13.343  0.5331 -0.0959  0.0080
24847SOL    HW186266   6.530  10.803  13.386  1.0204 -0.7099  1.5046
24847SOL    HW286267   6.562  10.702  13.278 -0.1606  1.6972 -1.2184
24848SOL     OW86268   3.122   1.886  10.929  0.2793 -0.3720  0.2430
24848SOL    HW186269   3.141   1.923  11.015  0.4494 -0.4128  0.2226
24848SOL    HW286270   3.116   1.791  10.945 -0.9764 -0.2708  0.4481
24849SOL     OW86271  13.599  10.694   7.583 -0.0669 -0.6658 -0.5976
24849SOL    HW186272  13.509  10.724   7.596  0.1884 -0.6969  1.6139
24849SOL    HW286273  13.608  10.618   7.641  1.6606 -0.0317  0.0370
24850SOL     OW86274   5.338   3.730  11.427  0.1009 -0.1764 -0.1525
24850SOL    HW186275   5.307   3.820  11.412 -0.9313 -0.6235 -0.7844
24850SOL    HW286276   5.310   3.710  11.516 -0.9678 -0.3691 -0.5129
24851SOL     OW86277  10.795   3.898   8.087 -0.0261 -0.0766 -0.2311
24851SOL    HW186278  10.857   3.869   8.154  1.1282  0.6293 -0.9651
24851SOL    HW286279  10.759   3.817   8.052 -0.2637 -0.4698  0.8750
24852SOL     OW86280  10.059   4.046  10.766 -0.1911  0.0984 -0.5870
24852SOL    HW186281   9.970   4.039  10.799 -0.6031  1.7393 -1.2481
24852SOL    HW286282  10.049   4.056  10.672  0.4458  3.2119 -0.4298
24853SOL     OW86283   7.591  12.275   8.902  0.4951  0.1177 -0.0810
24853SOL    HW186284   7.625  12.315   8.822  1.3886  1.5036  0.9314
24853SOL    HW286285   7.527  12.338   8.934  0.5659 -0.1417  0.5897
24854SOL     OW86286   7.960   4.691  12.249 -0.0246  0.0619 -0.3891
24854SOL    HW186287   7.902   4.640  12.305 -0.2534 -0.3755 -1.0023
24854SOL    HW286288   7.960   4.778  12.287  0.6874 -0.4826  0.9110
24855SOL     OW86289   6.511  13.642   0.979 -0.0128  0.2935  0.7601
24855SOL    HW186290   6.532  13.726   1.021  0.4219  1.4252 -1.5603
24855SOL    HW286291   6.428  13.616   1.018 -0.1155  1.7612  1.5890
24856SOL     OW86292   5.842  10.605   3.967  0.1474 -0.0402 -0.1902
24856SOL    HW186293   5.823  10.668   4.036 -1.1813 -0.5926 -0.0064
24856SOL    HW286294   5.905  10.649   3.910 -0.0297  1.0716  0.4548
24857SOL     OW86295  10.385   5.435   7.142 -0.1958 -0.4016  0.3074
24857SOL    HW186296  10.366   5.516   7.188 -2.1638  0.2582 -1.4821
24857SOL    HW286297  10.325   5.371   7.180  1.8761 -1.3407  2.2538
24858SOL     OW86298  13.397   7.551   3.103  0.1478 -0.0937  0.8965
24858SOL    HW186299  13.487   7.582   3.109  0.3493 -0.5182  0.1647
24858SOL    HW286300  13.390   7.487   3.174  1.1487 -1.7877 -0.4612
24859SOL     OW86301   8.652  13.170   8.927 -0.1273  0.2593 -0.0616
24859SOL    HW186302   8.655  13.079   8.956  0.7224  0.1257 -0.5188
24859SOL    HW286303   8.632  13.220   9.006 -1.6717 -0.4013 -0.0062
24860SOL     OW86304   9.285   4.433   2.742 -0.1575  0.1568  0.4461
24860SOL    HW186305   9.272   4.510   2.687 -1.3966 -1.8940 -2.3348
24860SOL    HW286306   9.217   4.441   2.809 -0.9433  0.9856 -0.4173
24861SOL     OW86307  13.349   2.390   4.650 -0.0639  0.1671 -0.3739
24861SOL    HW186308  13.320   2.477   4.620  1.4228 -0.3317 -3.7295
24861SOL    HW286309  13.443   2.400   4.663  0.1941 -1.0061 -1.2130
24862SOL     OW86310   9.498   9.407   3.253 -0.5268 -0.0812 -0.0893
24862SOL    HW186311   9.565   9.475   3.247 -1.1197  0.5435  0.3198
24862SOL    HW286312   9.473   9.390   3.162  0.1053 -0.2373 -0.2350
24863SOL     OW86313   2.612   8.289  10.904  0.3225  0.1510 -0.2128
24863SOL    HW186314   2.651   8.363  10.950  2.4874 -0.0882 -1.5139
24863SOL    HW286315   2.646   8.212  10.950  0.9024 -0.0525 -0.9536
24864SOL     OW86316  11.050  12.551  11.605 -0.2555  0.2298 -0.1786
24864SOL    HW186317  11.047  12.624  11.543 -0.9761 -1.1653 -1.8794
24864SOL    HW286318  10.960  12.544  11.637  0.1476  1.0513  1.2317
24865SOL     OW86319   3.884   0.701   5.835  0.8597 -0.3237  0.0682
24865SOL    HW186320   3.820   0.771   5.852 -0.5689  0.1408 -5.5116
24865SOL    HW286321   3.832   0.621   5.833  0.7337 -0.2380 -2.3140
24866SOL     OW86322   2.779  12.504  13.729  0.1836 -0.1181 -0.2081
24866SOL    HW186323   2.864  12.528  13.767  1.0268 -2.3075 -0.5370
24866SOL    HW286324   2.716  12.517  13.800  1.2882 -1.3293  1.0544
24867SOL     OW86325   4.241  13.665   3.932  0.1789 -0.3748 -0.5199
24867SOL    HW186326   4.262  13.750   3.969 -2.4489  0.3138 -0.3701
24867SOL    HW286327   4.273  13.602   3.996  0.5046  0.5726  0.2819
24868SOL     OW86328   7.547   4.114   1.572 -0.4198 -0.2693  0.0011
24868SOL    HW186329   7.523   4.035   1.523  0.5861 -0.2153 -0.6138
24868SOL    HW286330   7.587   4.081   1.652  3.1968 -0.5584 -1.7356
24869SOL     OW86331   8.216  13.390   5.526 -0.2092 -0.6108 -0.0536
24869SOL    HW186332   8.183  13.476   5.552  1.3449 -0.1689  0.5834
24869SOL    HW286333   8.139  13.334   5.525 -0.9204  0.2441  1.8610
24870SOL     OW86334   0.082  10.432   8.985  0.3450  0.3125  0.7402
24870SOL    HW186335   0.099  10.524   8.966  2.0170  0.0275  0.6975
24870SOL    HW286336   0.007  10.409   8.931 -1.1093  2.0301  1.9024
24871SOL     OW86337   6.872  10.352   8.165  0.1561 -0.3479  0.6824
24871SOL    HW186338   6.848  10.259   8.158  3.0074 -1.0798 -1.2588
24871SOL    HW286339   6.966  10.351   8.183  0.5229  2.1337 -0.6554
24872SOL     OW86340   9.963  10.934   3.520 -0.1278  0.7476 -0.2081
24872SOL    HW186341   9.933  10.935   3.611  0.2465 -2.2170  0.0561
24872SOL    HW286342   9.883  10.941   3.468 -0.3242  2.7832  0.2588
24873SOL     OW86343  10.651  12.331   4.898  0.4242 -0.2009 -0.3176
24873SOL    HW186344  10.711  12.257   4.891  0.2804 -0.2374 -1.4460
24873SOL    HW286345  10.707  12.408   4.885  0.4419 -0.1561  0.0225
24874SOL     OW86346   9.382   0.558   6.958  0.4261  0.1612 -0.5091
24874SOL    HW186347   9.427   0.617   7.019 -0.1813 -1.2718  1.4351
24874SOL    HW286348   9.417   0.581   6.872  2.3905  1.3423  0.5341
24875SOL     OW86349  10.014   6.803   6.151  0.4103 -0.2333 -0.2450
24875SOL    HW186350   9.987   6.894   6.163 -1.0546 -0.9020  2.0667
24875SOL    HW286351  10.109   6.808   6.140  0.4510  1.5046  0.5086
24876SOL     OW86352   2.225   3.838  12.993 -0.3634 -0.7187 -0.3025
24876SOL    HW186353   2.189   3.827  12.904 -0.5456  0.9541 -0.4775
24876SOL    HW286354   2.181   3.771  13.045 -2.1343 -0.1687 -0.9896
24877SOL     OW86355  12.438   6.963   8.573 -0.2047  0.0803 -0.2697
24877SOL    HW186356  12.361   6.987   8.522 -1.0933  0.2793  1.1022
24877SOL    HW286357  12.444   6.867   8.563 -0.6745  0.0534 -0.3220
24878SOL     OW86358   6.710  10.991  13.071  0.0164  0.1342 -0.0472
24878SOL    HW186359   6.759  11.053  13.016  0.5536 -1.9806 -2.0942
24878SOL    HW286360   6.771  10.919  13.087 -0.7063 -0.1063  1.9689
24879SOL     OW86361   4.011   8.836   1.055  0.2049  0.0006 -0.0003
24879SOL    HW186362   3.920   8.837   1.024  0.2457  0.7309 -0.1195
24879SOL    HW286363   4.058   8.783   0.991 -0.2975 -1.1381  0.5501
24880SOL     OW86364   5.590  13.252   1.040 -0.1896  0.4678 -0.4002
24880SOL    HW186365   5.644  13.176   1.020 -0.2288  0.4400 -0.4001
24880SOL    HW286366   5.540  13.227   1.117  1.0158  1.0960  0.6123
24881SOL     OW86367   1.642   7.495   4.158 -0.2388  0.4906 -0.2731
24881SOL    HW186368   1.716   7.480   4.217 -0.2067  0.2476 -0.3734
24881SOL    HW286369   1.574   7.534   4.213  0.5284  2.2478 -0.5129
24882SOL     OW86370   8.887  13.349  13.516 -0.1008  0.5076  0.4129
24882SOL    HW186371   8.910  13.403  13.591 -1.1884  1.0965  0.3422
24882SOL    HW286372   8.966  13.346  13.463  0.0850  1.7417  0.5941
24883SOL     OW86373   5.266  11.678   9.372  0.0402 -0.0543 -0.1001
24883SOL    HW186374   5.353  11.667   9.410  0.5059  1.7408 -0.5529
24883SOL    HW286375   5.219  11.598   9.395  2.0493 -1.4062 -0.4928
24884SOL     OW86376   3.149   0.710   9.292 -0.1876 -0.1198 -0.1413
24884SOL    HW186377   3.171   0.730   9.201 -2.4417 -1.2929 -1.0158
24884SOL    HW286378   3.086   0.777   9.317 -0.6482 -0.6323  0.0861
24885SOL     OW86379   0.127   8.991  12.114 -0.1395  0.1041 -0.1388
24885SOL    HW186380   0.201   8.968  12.171 -0.6154  0.2359  0.5441
24885SOL    HW286381   0.114   9.085  12.128  0.0876  0.2552 -0.8922
24886SOL     OW86382   8.353  10.357   6.837  0.6589  0.8215 -0.2825
24886SOL    HW186383   8.336  10.268   6.805  0.6626 -0.0724  1.9996
24886SOL    HW286384   8.448  10.360   6.850  0.4791  0.4929  1.3239
24887SOL     OW86385  10.169  13.228   3.781 -0.2453  0.1939  0.0025
24887SOL    HW186386  10.143  13.225   3.689  0.2530 -0.7197 -0.1264
24887SOL    HW286387  10.114  13.163   3.824  1.9831 -2.0900 -0.3560
24888SOL     OW86388   3.356   6.193   0.440  0.3346 -0.4770 -0.4370
24888SOL    HW186389   3.372   6.287   0.436  0.3266 -0.4957 -1.1346
24888SOL    HW286390   3.368   6.163   0.350 -0.1849 -1.0563 -0.3219
24889SOL     OW86391  13.086   6.095   4.274 -0.4017 -0.3802 -0.4888
24889SOL    HW186392  13.053   6.174   4.318  1.9948  0.4228  0.0020
24889SOL    HW286393  13.179   6.113   4.260 -0.2819 -2.2291 -2.4192
24890SOL     OW86394  11.780  10.258  11.618 -0.6593  0.2050  0.4599
24890SOL    HW186395  11.799  10.191  11.552  0.2846  0.4563  0.4544
24890SOL    HW286396  11.696  10.295  11.592  0.1167  0.9306 -1.1421
24891SOL     OW86397  11.439  12.938   6.129 -0.1933 -0.1591  0.1872
24891SOL    HW186398  11.393  12.873   6.074  0.6514  0.2962 -1.1055
24891SOL    HW286399  11.382  13.014   6.129  0.1337  0.0982 -0.6962
24892SOL     OW86400   7.740   2.305  11.246  0.0614 -0.6592 -0.5558
24892SOL    HW186401   7.694   2.221  11.236  0.4440 -1.0029  0.3994
24892SOL    HW286402   7.814   2.299  11.187  0.4499 -1.2753 -0.0240
24893SOL     OW86403   4.651   7.819   7.481  0.5108  0.4625  0.1566
24893SOL    HW186404   4.582   7.792   7.421 -1.2096  0.8636  1.8615
24893SOL    HW286405   4.667   7.742   7.536  1.7321  0.2451 -0.4671
24894SOL     OW86406   1.309  10.576  12.003 -0.5021  0.3954 -0.8236
24894SOL    HW186407   1.238  10.548  12.061  0.8853  0.4910  0.9908
24894SOL    HW286408   1.292  10.669  11.987 -0.6329  0.4836 -0.1843
24895SOL     OW86409   3.939   6.887   8.431  0.2032 -0.2886 -0.3220
24895SOL    HW186410   3.871   6.927   8.376 -0.8332  0.4011  1.3710
24895SOL    HW286411   3.963   6.956   8.492  0.2512 -1.4666  1.0276
24896SOL     OW86412   4.895   6.600   8.312  0.2763 -0.2913  0.0595
24896SOL    HW186413   4.971   6.569   8.361  2.1035  1.9540 -1.1528
24896SOL    HW286414   4.915   6.579   8.221  0.3602  1.8741 -0.4738
24897SOL     OW86415  12.217   4.296  13.184  0.4357 -0.3487  1.0986
24897SOL    HW186416  12.177   4.302  13.271 -0.6349  0.0661  0.5903
24897SOL    HW286417  12.163   4.352  13.129  1.3706 -0.2580  0.2502
24898SOL     OW86418   2.133   2.736   1.568  0.3945 -0.5321  0.0653
24898SOL    HW186419   2.228   2.749   1.559  0.6151 -1.0314  1.4199
24898SOL    HW286420   2.123   2.642   1.578 -0.2723 -0.4968 -0.2464
24899SOL     OW86421   4.833  11.379   0.865  0.3111  0.5143 -0.1612
24899SOL    HW186422   4.817  11.472   0.849  0.5505  0.7712  1.0107
24899SOL    HW286423   4.826  11.370   0.960  0.9283 -0.5496 -0.2086
24900SOL     OW86424  12.385   9.420  12.047  0.4208 -0.0579 -0.1265
24900SOL    HW186425  12.404   9.383  11.961  1.2736 -0.4746  0.2316
24900SOL    HW286426  12.340   9.349  12.093 -3.0269  1.1859 -1.2597
24901SOL     OW86427  13.543   6.986  13.075  0.5161 -0.0098  0.6281
24901SOL    HW186428  13.472   6.936  13.037  0.6990 -0.8312  1.3450
24901SOL    HW286429  13.584   6.927  13.138  0.1721  1.3225  2.1776
24902SOL     OW86430   3.840   6.474   9.761  0.0403  0.8958  0.3263
24902SOL    HW186431   3.905   6.429   9.707 -0.2791  0.8014  0.0170
24902SOL    HW286432   3.808   6.407   9.821 -1.6217  0.2254 -1.1947
24903SOL     OW86433   5.640  10.345  12.924  0.0682 -0.0342  0.6881
24903SOL    HW186434   5.615  10.343  13.017 -1.1118 -0.4108  0.3778
24903SOL    HW286435   5.603  10.428  12.892  0.6395  0.1850  0.5933
24904SOL     OW86436   9.434   0.326   0.962  0.3833  0.0348  0.1928
24904SOL    HW186437   9.423   0.232   0.977 -2.2912  0.3100  0.3257
24904SOL    HW286438   9.477   0.357   1.042  1.7440 -1.1032 -0.0505
24905SOL     OW86439   8.648   3.011   2.726  0.7272  0.0888  0.0851
24905SOL    HW186440   8.677   3.030   2.637  1.7953  1.3183  0.6643
24905SOL    HW286441   8.671   3.089   2.776 -0.2229 -0.4156  1.3683
24906SOL     OW86442   9.635   2.116   4.658  0.1373  0.1116  0.3764
24906SOL    HW186443   9.697   2.046   4.678  0.2215 -0.1755 -0.8092
24906SOL    HW286444   9.651   2.183   4.725 -0.2908 -1.2045  1.8235
24907SOL     OW86445   1.769   5.380   2.664 -0.2857 -0.1299 -0.3680
24907SOL    HW186446   1.819   5.458   2.687  0.1893 -0.9747  1.6942
24907SOL    HW286447   1.684   5.413   2.636  0.0313  1.1441  0.1288
24908SOL     OW86448   1.066   1.826   5.720 -0.5909  0.0101  0.1038
24908SOL    HW186449   1.155   1.807   5.750 -0.9684 -0.2169  1.1466
24908SOL    HW286450   1.040   1.903   5.770 -1.3840 -0.6175  0.6945
24909SOL     OW86451   5.976   0.140   5.623 -0.3307  0.0154 -0.0854
24909SOL    HW186452   5.994   0.208   5.557  1.5270 -0.9193 -0.6169
24909SOL    HW286453   5.903   0.091   5.587 -0.7467  0.8341 -0.3960
24910SOL     OW86454  10.840   1.093   2.298  0.1251  0.8192 -0.3241
24910SOL    HW186455  10.901   1.078   2.371  0.5734  1.5139 -0.5512
24910SOL    HW286456  10.893   1.080   2.219  0.0879  1.8132 -0.5248
24911SOL     OW86457   9.245  10.916   1.918 -0.3606  0.3252 -0.2662
24911SOL    HW186458   9.181  10.983   1.941 -1.7103 -1.5559  1.9413
24911SOL    HW286459   9.207  10.870   1.844 -0.4170  0.6843 -0.4615
24912SOL     OW86460  11.150  10.674   4.687  0.2708  0.3027  0.0920
24912SOL    HW186461  11.164  10.680   4.593  0.4564  0.7662  0.1423
24912SOL    HW286462  11.176  10.585   4.711  0.4254  0.2542 -0.2608
24913SOL     OW86463   9.193   2.987   1.412  0.6691  0.0834  0.3293
24913SOL    HW186464   9.207   2.986   1.318 -1.3034 -0.1433 -0.0020
24913SOL    HW286465   9.267   2.939   1.449  1.9241  0.9238 -1.0111
24914SOL     OW86466   8.011   6.882   8.920  0.1902  0.2216  0.5703
24914SOL    HW186467   8.035   6.974   8.907  1.0932 -0.0910 -0.0173
24914SOL    HW286468   8.093   6.834   8.912 -0.4187 -0.7442 -0.1064
24915SOL     OW86469   4.015  10.059   0.176  0.3114  0.1482  0.3154
24915SOL    HW186470   3.983  10.003   0.247  0.3868  0.3062  0.4747
24915SOL    HW286471   3.948  10.051   0.108 -1.1368  2.0727  1.4288
24916SOL     OW86472   4.297   6.071   7.958 -0.3298 -0.7394  0.8066
24916SOL    HW186473   4.286   6.005   8.026 -0.9228 -0.5771  0.8732
24916SOL    HW286474   4.277   6.154   8.000  0.8494 -0.4437  0.8403
24917SOL     OW86475   8.831   0.953   9.504  0.3697  0.5956 -0.3764
24917SOL    HW186476   8.888   0.966   9.428 -0.0098  1.7200 -0.4962
24917SOL    HW286477   8.815   1.042   9.536 -0.9216  0.2658 -0.0647
24918SOL     OW86478  12.449  10.317   4.008  0.4673 -0.3437 -0.1183
24918SOL    HW186479  12.455  10.252   3.938  1.5308 -1.2284  0.7609
24918SOL    HW286480  12.368  10.296   4.054  1.8107 -2.4257  1.4363
24919SOL     OW86481  12.551  10.313  11.035 -0.6386  0.7121  0.4046
24919SOL    HW186482  12.501  10.360  11.101 -0.3729  0.2166  0.9666
24919SOL    HW286483  12.569  10.227  11.074 -0.6373  0.3387 -0.3787
24920SOL     OW86484   1.825   2.179  11.267 -0.0441 -0.2046  0.2387
24920SOL    HW186485   1.906   2.227  11.286 -0.9090  0.7018  1.8309
24920SOL    HW286486   1.759   2.218  11.325 -1.4641 -1.4253 -0.4686
24921SOL     OW86487   6.991   1.175   9.295 -0.1341 -0.1969  0.0339
24921SOL    HW186488   6.901   1.145   9.300 -1.0371  1.6789 -2.7658
24921SOL    HW286489   7.026   1.137   9.214  1.0484  0.4147  0.2223
24922SOL     OW86490   0.652   4.772  12.635  0.3571  0.0625  0.2563
24922SOL    HW186491   0.677   4.723  12.557  3.1136 -0.8145  1.5703
24922SOL    HW286492   0.630   4.705  12.700  0.5211  0.6933  0.9753
24923SOL     OW86493   0.575  12.403  13.448 -0.3028 -0.3385  0.5818
24923SOL    HW186494   0.579  12.467  13.376 -3.6813 -0.4081  0.1874
24923SOL    HW286495   0.540  12.324  13.408 -0.9391 -0.8306  2.0508
24924SOL     OW86496  11.709   6.644   8.667  0.0356 -0.2063  0.2697
24924SOL    HW186497  11.738   6.559   8.699  1.5442 -0.1069 -0.7425
24924SOL    HW286498  11.777   6.705   8.697  0.0459  0.3016 -0.7503
24925SOL     OW86499   9.119  11.048   4.197  0.4402  0.2578 -0.3021
24925SOL    HW186500   9.104  11.123   4.255 -1.2473 -0.8278  0.7499
24925SOL    HW286501   9.081  11.075   4.113 -0.9124  0.3082  0.3020
24926SOL     OW86502  10.436   7.962  10.544  0.4631  0.0097 -0.1416
24926SOL    HW186503  10.410   7.922  10.461  0.4393 -0.5341  0.1201
24926SOL    HW286504  10.527   7.934  10.556  0.8341  1.0157 -0.5312
24927SOL     OW86505  11.338   1.949   7.171  0.7502  1.1242 -0.1227
24927SOL    HW186506  11.250   1.935   7.203  1.5886 -0.3352  1.7391
24927SOL    HW286507  11.328   2.009   7.097 -1.8422  0.4363 -0.4097
24928SOL     OW86508   5.014   6.203  13.253 -0.0434 -0.2950 -0.0982
24928SOL    HW186509   5.005   6.156  13.170 -0.3185  0.2462 -0.3801
24928SOL    HW286510   5.081   6.155  13.300  1.4851  0.4845 -1.3960
24929SOL     OW86511   2.190   1.151   9.324 -0.2810  0.4409  0.6050
24929SOL    HW186512   2.246   1.212   9.277 -0.6589  1.0960  0.9953
24929SOL    HW286513   2.249   1.082   9.355 -0.0595 -0.1895 -1.0864
24930SOL     OW86514  13.641  12.821   0.189 -0.2646 -0.0252 -0.2366
24930SOL    HW186515  13.669  12.815   0.098  0.0459 -0.4311 -0.1191
24930SOL    HW286516  13.552  12.786   0.189 -1.0040  1.7215 -0.6948
24931SOL     OW86517   1.315   2.301   5.572  0.4518  0.5231 -0.1218
24931SOL    HW186518   1.347   2.364   5.508  1.3411  1.7658  1.4682
24931SOL    HW286519   1.393   2.249   5.595  0.3585  0.6741  0.5708
24932SOL     OW86520   8.430  13.423   3.704 -0.1549  0.3080 -0.1529
24932SOL    HW186521   8.455  13.473   3.781 -0.2188 -1.4399  1.0670
24932SOL    HW286522   8.475  13.339   3.713 -1.2926 -0.4795 -1.2736
24933SOL     OW86523   8.109   7.772   6.593 -0.1941 -0.0765 -0.1981
24933SOL    HW186524   8.039   7.798   6.652  0.0808  2.8348 -0.9868
24933SOL    HW286525   8.189   7.808   6.633  0.8131 -2.6320  0.2815
24934SOL     OW86526  13.055  10.910   8.802 -0.1815  0.3695  0.0117
24934SOL    HW186527  13.025  10.976   8.740 -0.7327  0.4633  0.3683
24934SOL    HW286528  13.082  10.960   8.879 -2.2843  0.1319  0.9916
24935SOL     OW86529  13.367   0.371   6.767 -0.0373  0.4820  0.5987
24935SOL    HW186530  13.425   0.327   6.705 -0.4470  0.3893  0.2765
24935SOL    HW286531  13.311   0.426   6.713  0.4984  1.4519  1.0009
24936SOL     OW86532   6.225   1.277  12.478  0.0275  0.5178  0.3621
24936SOL    HW186533   6.320   1.291  12.487  0.8229 -3.2087 -0.6812
24936SOL    HW286534   6.205   1.308  12.390  0.2037  1.4915  0.6508
24937SOL     OW86535  11.344   0.021   8.264  0.2398 -0.4054  0.6754
24937SOL    HW186536  11.313   0.109   8.243  2.4765  0.2107 -0.3065
24937SOL    HW286537  11.431   0.035   8.300  0.6307 -2.2372  0.5001
24938SOL     OW86538   3.122   2.419   8.796 -0.4796 -0.7388  0.3615
24938SOL    HW186539   3.072   2.393   8.719 -0.8033  0.7939  0.0278
24938SOL    HW286540   3.059   2.415   8.868 -0.5377 -0.8191  0.3058
24939SOL     OW86541   1.983  10.686   1.598 -0.5875  0.1288 -0.0195
24939SOL    HW186542   1.966  10.768   1.552  2.1196  0.7617 -0.0539
24939SOL    HW286543   2.037  10.635   1.538  2.0186  0.4811  1.8477
24940SOL     OW86544   4.275   1.500  13.664  0.0448  0.1431 -0.4234
24940SOL    HW186545   4.191   1.521  13.706 -0.1573  0.8892 -1.1733
24940SOL    HW286546   4.340   1.516  13.732 -0.4264 -0.6317  0.2308
24941SOL     OW86547  11.825   8.590   7.036 -0.5604  0.4664  0.0252
24941SOL    HW186548  11.905   8.561   7.080 -0.5994 -0.1177 -0.2764
24941SOL    HW286549  11.757   8.580   7.103 -0.8197 -1.4989 -0.4599
24942SOL     OW86550   9.844   1.998   7.423  0.7528 -0.0358 -0.3602
24942SOL    HW186551   9.833   1.931   7.490 -1.6023  0.1088 -0.5199
24942SOL    HW286552   9.938   2.013   7.419  1.0440 -0.7849  2.1721
24943SOL     OW86553   8.077   9.599   0.624  0.1128 -0.3488  0.3037
24943SOL    HW186554   8.013   9.579   0.556 -0.2329 -1.5288  0.9481
24943SOL    HW286555   8.102   9.513   0.660  0.1716  0.2413  1.7540
24944SOL     OW86556   4.266   3.567  13.449  0.2413  0.3893 -0.0598
24944SOL    HW186557   4.205   3.587  13.378 -1.1266  0.2745  1.0474
24944SOL    HW286558   4.336   3.516  13.407 -0.7711 -0.0804 -1.2284
24945SOL     OW86559   3.197   3.863  10.360  0.1049  0.1114 -0.3246
24945SOL    HW186560   3.252   3.884  10.284  1.1249  0.1593  0.4127
24945SOL    HW286561   3.168   3.948  10.393  0.3650  0.1376 -0.1582
24946SOL     OW86562   2.114  11.991  11.841 -0.5358 -0.2191 -0.2888
24946SOL    HW186563   2.121  11.980  11.747  0.9440  1.4563 -0.4224
24946SOL    HW286564   2.174  11.926  11.878 -0.5511 -0.3686 -0.5265
24947SOL     OW86565   9.980   6.330  10.827  0.0061  0.3012 -0.0240
24947SOL    HW186566   9.889   6.317  10.799 -0.0732  0.5709  0.1073
24947SOL    HW286567  10.020   6.243  10.818 -0.4859 -0.0134  0.7204
24948SOL     OW86568   1.591   6.546  10.762  0.5926  0.3187 -0.4023
24948SOL    HW186569   1.684   6.523  10.750  0.7664  2.0073 -3.1327
24948SOL    HW286570   1.593   6.623  10.819  0.7669 -0.1174  0.1993
24949SOL     OW86571   6.298   9.750   0.117  0.4455 -0.0934  0.4056
24949SOL    HW186572   6.307   9.753   0.212  0.2620 -1.1306  0.4678
24949SOL    HW286573   6.367   9.807   0.084 -0.0025  0.9151  1.1801
24950SOL     OW86574   9.172   6.450   8.427 -0.3157  0.1483 -0.0943
24950SOL    HW186575   9.092   6.440   8.480 -0.6744 -1.3459 -0.8552
24950SOL    HW286576   9.152   6.522   8.367  0.6006  2.8529  2.5847
24951SOL     OW86577   5.659   9.757   0.144  0.1037  0.7421  0.0461
24951SOL    HW186578   5.611   9.821   0.195 -1.6362 -0.1441 -0.3905
24951SOL    HW286579   5.677   9.686   0.205  0.8333  1.0417  0.1908
24952SOL     OW86580   5.999  13.324  12.193 -0.0913  0.1598 -0.2405
24952SOL    HW186581   6.033  13.407  12.226 -0.2232  0.0906  0.0714
24952SOL    HW286582   6.060  13.258  12.226 -0.6931 -0.0001  0.5903
24953SOL     OW86583   7.779   6.178   9.601  0.2398 -0.5460 -0.2847
24953SOL    HW186584   7.710   6.134   9.551 -0.5680 -1.8637  1.8644
24953SOL    HW286585   7.736   6.204   9.682  1.1490  2.8075 -0.7541
24954SOL     OW86586   4.339   6.270  12.455  0.1317 -0.0999  0.2823
24954SOL    HW186587   4.294   6.354  12.461 -2.0370 -1.0094 -1.8452
24954SOL    HW286588   4.296   6.215  12.520 -0.1949 -0.2788 -0.0819
24955SOL     OW86589   9.160   6.346  11.783 -0.4556 -0.4197 -0.0390
24955SOL    HW186590   9.252   6.331  11.805 -0.1797  0.9323 -0.1731
24955SOL    HW286591   9.156   6.334  11.688 -0.6158 -1.3719  0.0813
24956SOL     OW86592   8.670   2.901   1.956 -0.3041 -0.6619 -0.3634
24956SOL    HW186593   8.670   2.806   1.965  0.5416 -0.6159  0.1796
24956SOL    HW286594   8.749   2.921   1.906  1.4138 -0.0194  2.4046
24957SOL     OW86595  11.696  11.096   4.669 -0.2471  0.0391  0.3070
24957SOL    HW186596  11.694  11.190   4.651 -0.5484  0.1352  0.8126
24957SOL    HW286597  11.724  11.056   4.587 -0.0488  0.5776  0.1103
24958SOL     OW86598   8.967   0.621   3.866 -0.4628  0.1839  0.0002
24958SOL    HW186599   9.019   0.585   3.937 -0.9356 -0.2185  0.1472
24958SOL    HW286600   9.017   0.602   3.787 -0.0908  0.3536  0.1929
24959SOL     OW86601  13.282   4.558  13.667  0.0797  0.2133 -0.6112
24959SOL    HW186602  13.351   4.502  13.633 -0.2106  0.1950 -1.1853
24959SOL    HW286603  13.252   4.513  13.747 -0.0128 -0.3492 -0.9548
24960SOL     OW86604   5.494   1.648   4.775  0.2296 -0.2428  0.0961
24960SOL    HW186605   5.497   1.630   4.681  1.5972  0.1392  0.0414
24960SOL    HW286606   5.470   1.741   4.781  0.8882 -0.0675  0.0864
24961SOL     OW86607   2.197   5.769  11.381  0.5720 -0.4491  0.2635
24961SOL    HW186608   2.175   5.825  11.306 -0.6858 -1.8145 -0.4471
24961SOL    HW286609   2.161   5.815  11.457 -1.6867 -0.8710 -0.4600
24962SOL     OW86610   9.922   1.900  10.108 -0.0228  0.7989  0.2726
24962SOL    HW186611   9.944   1.922  10.017  0.8789 -0.6593  0.1145
24962SOL    HW286612   9.830   1.927  10.118 -0.3048  0.4509 -1.2310
24963SOL     OW86613   2.881  11.860   8.646  0.0546  0.2160  0.0882
24963SOL    HW186614   2.853  11.941   8.690 -1.1774 -0.1380 -0.0205
24963SOL    HW286615   2.963  11.884   8.603 -0.5426  1.5732 -0.3684
24964SOL     OW86616  11.192   4.357   0.599 -0.4039  0.0486 -0.6264
24964SOL    HW186617  11.117   4.398   0.642 -0.3563  1.4786 -1.8190
24964SOL    HW286618  11.268   4.396   0.640 -0.2809 -1.0775  0.2758
24965SOL     OW86619   9.879  13.010   7.967 -0.3118 -0.3219  0.7800
24965SOL    HW186620   9.946  13.070   7.937  0.6926 -1.6666  0.2044
24965SOL    HW286621   9.829  12.988   7.888 -0.6228 -0.3108  0.9710
24966SOL     OW86622   2.063   6.012   6.703 -0.5790  0.0426 -0.1751
24966SOL    HW186623   2.117   5.949   6.655  0.3624  0.5014  0.2633
24966SOL    HW286624   2.018   6.062   6.635 -1.4551 -1.1654 -0.5393
24967SOL     OW86625   3.396   1.598   3.124  0.0111  0.0258  0.5103
24967SOL    HW186626   3.391   1.586   3.029 -1.7557 -1.3280  0.7154
24967SOL    HW286627   3.309   1.630   3.149 -0.4370 -2.0689  1.9243
24968SOL     OW86628  11.247   3.025  10.600  0.4952 -0.1108  0.5767
24968SOL    HW186629  11.211   3.113  10.614 -0.4255 -0.6409  1.7481
24968SOL    HW286630  11.217   3.001  10.512 -1.4631 -0.2280  1.2219
24969SOL     OW86631   9.861   8.511   8.080 -0.1984  0.2449 -0.0691
24969SOL    HW186632   9.877   8.547   8.168  0.2635 -2.8504  1.2527
24969SOL    HW286633   9.768   8.490   8.079 -0.0299 -0.5352  0.0393
24970SOL     OW86634   4.715   2.290   1.713 -0.4151 -0.6945  0.3676
24970SOL    HW186635   4.775   2.244   1.771  0.1354 -1.7757 -1.0055
24970SOL    HW286636   4.647   2.226   1.692 -1.9547  0.4308  1.6903
24971SOL     OW86637   3.241   4.645   9.558  0.1716 -0.3068  0.4354
24971SOL    HW186638   3.246   4.648   9.463  1.0123  0.5226  0.4874
24971SOL    HW286639   3.219   4.554   9.578 -1.3154 -0.2064 -0.5818
24972SOL     OW86640   3.416  12.326   3.140  0.1698 -0.4034  0.1299
24972SOL    HW186641   3.391  12.415   3.113  1.0306 -0.2595 -0.2108
24972SOL    HW286642   3.336  12.290   3.179 -0.5698  0.0626 -0.8986
24973SOL     OW86643   1.345   2.645  12.179 -0.5373  0.6265  0.1261
24973SOL    HW186644   1.352   2.676  12.269  0.3102  0.8599 -0.0125
24973SOL    HW286645   1.410   2.695  12.131 -1.8095  1.3807 -0.8702
24974SOL     OW86646   7.617   3.356   2.050  0.5248 -0.4974 -0.4642
24974SOL    HW186647   7.595   3.396   1.966  0.1819  0.6030  0.1342
24974SOL    HW286648   7.707   3.325   2.038  1.1120  1.2001 -0.6960
24975SOL     OW86649   6.354   3.567  10.512 -0.1396 -0.4310 -0.0977
24975SOL    HW186650   6.280   3.508  10.502  0.5079 -1.0537 -1.4879
24975SOL    HW286651   6.396   3.539  10.593 -1.6648  0.2569  0.9821
24976SOL     OW86652   2.723   0.670   7.203 -0.5458 -0.7205  0.2803
24976SOL    HW186653   2.632   0.695   7.184 -0.1009  0.0389 -1.0064
24976SOL    HW286654   2.738   0.592   7.151  0.2285  0.5213 -1.4668
24977SOL     OW86655   7.433   9.690   6.406 -0.3401  0.3278  0.6516
24977SOL    HW186656   7.427   9.595   6.409 -0.3743  0.3176  0.2675
24977SOL    HW286657   7.426   9.712   6.313 -0.1537  0.6935  0.7210
24978SOL     OW86658   2.661   0.183   8.539 -0.5764  0.5494  0.2198
24978SOL    HW186659   2.630   0.228   8.617 -2.0197  0.2102 -0.1314
24978SOL    HW286660   2.677   0.253   8.476  3.9327  1.2496  1.7360
24979SOL     OW86661  11.244  13.404  10.030  0.0587 -0.0252  0.1545
24979SOL    HW186662  11.174  13.342  10.009 -0.6182  0.5247  0.7220
24979SOL    HW286663  11.323  13.364   9.994 -0.3998 -1.0916  0.2732
24980SOL     OW86664  11.490   3.326   4.926  0.2237 -0.1900 -1.1100
24980SOL    HW186665  11.488   3.231   4.937  2.4736 -0.4649 -2.4749
24980SOL    HW286666  11.580   3.346   4.900 -0.1646  2.3426 -0.7930
24981SOL     OW86667   5.504  13.657   5.084 -0.5542  0.7568 -0.1856
24981SOL    HW186668   5.574  13.666   5.020  0.7109 -0.1213  1.0252
24981SOL    HW286669   5.473  13.567   5.073 -1.3854  1.0720 -0.5677
24982SOL     OW86670   1.546   1.274   4.653 -0.4736  0.1907  0.4662
24982SOL    HW186671   1.614   1.332   4.619 -0.6757  1.6227  2.3455
24982SOL    HW286672   1.482   1.332   4.694 -0.2537 -1.3472  3.2333
24983SOL     OW86673  12.629  10.161   7.485  0.4235 -0.2483  0.1090
24983SOL    HW186674  12.567  10.232   7.500 -0.5128 -1.1212  0.4502
24983SOL    HW286675  12.593  10.113   7.412  0.1593 -1.3436  0.9386
24984SOL     OW86676  11.271   8.252   3.582 -0.6925  0.1044  0.3880
24984SOL    HW186677  11.327   8.182   3.615  0.2126  0.6511  0.0362
24984SOL    HW286678  11.248   8.303   3.660 -1.3634 -0.5822  0.6464
24985SOL     OW86679  11.451  10.019  12.175 -0.2514  0.6069  0.0416
24985SOL    HW186680  11.389  10.049  12.241  1.2939  0.5722  1.5783
24985SOL    HW286681  11.398   9.969  12.113 -1.6563  0.0255  1.6330
24986SOL     OW86682   3.887   9.316   3.337  0.4416 -0.8348  0.2092
24986SOL    HW186683   3.931   9.303   3.253 -1.4171  0.5643 -1.0757
24986SOL    HW286684   3.796   9.336   3.313  0.2448  1.4374  2.4502
24987SOL     OW86685   0.811   4.357   0.492  0.0398 -0.3884 -0.1101
24987SOL    HW186686   0.721   4.388   0.478 -0.1555 -1.3236 -1.0068
24987SOL    HW286687   0.861   4.436   0.512 -0.7313  0.3067 -0.8937
24988SOL     OW86688  11.502   1.914   3.294  0.2047  0.3909  0.3581
24988SOL    HW186689  11.596   1.900   3.306  0.2408  1.2822  1.2695
24988SOL    HW286690  11.492   2.009   3.295 -0.6817  0.3049  0.0513
24989SOL     OW86691  12.047   9.942   6.156 -0.4449 -0.0986 -0.0509
24989SOL    HW186692  11.994   9.901   6.087  0.4704 -1.0195 -0.2375
24989SOL    HW286693  12.077   9.869   6.209  2.7583  0.0241 -1.4588
24990SOL     OW86694   5.441  13.666   3.315 -0.2705 -0.1717 -0.5691
24990SOL    HW186695   5.483  13.734   3.263 -0.4958 -0.5669 -1.2851
24990SOL    HW286696   5.439  13.589   3.257 -0.0854 -0.7691  0.1908
24991SOL     OW86697   0.598   7.966  12.479 -0.4957 -0.4960 -0.7063
24991SOL    HW186698   0.572   8.058  12.481 -0.6552 -0.5370 -0.9017
24991SOL    HW286699   0.532   7.923  12.424 -0.7373 -0.8243 -0.1704
24992SOL     OW86700  10.646  12.099  10.612 -0.0915 -0.2619 -0.6107
24992SOL    HW186701  10.568  12.098  10.667 -0.6607 -1.4759 -1.4222
24992SOL    HW286702  10.615  12.124  10.525  0.6787  0.7906 -0.6076
24993SOL     OW86703   3.004   6.487  11.369  0.2257 -0.5790  0.1081
24993SOL    HW186704   2.975   6.517  11.282 -0.4958 -0.1629  0.4765
24993SOL    HW286705   2.929   6.437  11.403 -0.6260  1.5564  1.5966
24994SOL     OW86706  11.017   4.233   0.437  0.4531  0.0357  0.0145
24994SOL    HW186707  10.942   4.290   0.453  0.5469  0.2583 -0.3442
24994SOL    HW286708  11.091   4.281   0.476  0.4338 -0.1230  0.2503
24995SOL     OW86709   6.075   8.913  13.728  0.5417 -0.1987  0.3733
24995SOL    HW186710   6.046   8.991  13.776 -0.6116 -0.0997 -0.4288
24995SOL    HW286711   6.122   8.948  13.652 -0.2772 -0.2643 -0.1717
24996SOL     OW86712   1.245   5.144   2.949 -0.2594 -0.2776 -0.1146
24996SOL    HW186713   1.247   5.116   3.040 -1.4195 -0.3901 -0.1103
24996SOL    HW286714   1.201   5.073   2.902 -0.7225  0.2921 -0.5637
24997SOL     OW86715   9.396   0.643   9.605  0.0488  0.2446  0.3760
24997SOL    HW186716   9.431   0.710   9.665 -1.5573  2.5184 -1.0682
24997SOL    HW286717   9.440   0.562   9.632  0.4155  1.3733  3.7280
24998SOL     OW86718  11.013   2.902   4.906  0.1518  0.1480  0.0647
24998SOL    HW186719  10.932   2.954   4.899 -0.0293 -0.1960 -0.5429
24998SOL    HW286720  11.002   2.834   4.839  0.3913 -0.6688  0.8434
24999SOL     OW86721   3.463   0.542  11.202  0.3857 -0.3798 -0.6036
24999SOL    HW186722   3.455   0.634  11.177  1.3225 -0.0234  0.3634
24999SOL    HW286723   3.372   0.511  11.204  0.0776  0.4330 -1.2284
25000SOL     OW86724  10.604   7.618   8.762  0.5422  0.5901 -0.3245
25000SOL    HW186725  10.676   7.556   8.772  0.6594  0.4709 -1.6602
25000SOL    HW286726  10.590   7.623   8.667  0.0292  2.0199 -0.2041
25001SOL     OW86727  12.671  10.629   1.585 -0.5367 -0.2773 -0.2561
25001SOL    HW186728  12.757  10.671   1.581  0.3193 -1.9575 -0.6068
25001SOL    HW286729  12.609  10.698   1.560  0.5805  1.2503  0.9909
25002SOL     OW86730   9.601   2.937  10.797  0.5344 -0.1775  0.4547
25002SOL    HW186731   9.653   2.906  10.722  0.5908 -1.0312  0.8358
25002SOL    HW286732   9.517   2.892  10.789  1.0445 -1.4405  1.6903
25003SOL     OW86733   8.038   3.904   5.228 -0.7859 -0.3433  0.0018
25003SOL    HW186734   8.014   3.993   5.254 -1.4634 -0.3407 -0.5788
25003SOL    HW286735   8.075   3.914   5.141 -3.9870 -0.9247 -1.5956
25004SOL     OW86736  10.944  13.514   5.806  0.0469 -0.4434  0.5230
25004SOL    HW186737  11.017  13.471   5.761  0.2197  0.0049  0.3662
25004SOL    HW286738  10.880  13.530   5.737  1.0937  1.9583  0.0003
25005SOL     OW86739  12.522   7.295   1.487 -0.2251  0.2796 -0.1714
25005SOL    HW186740  12.537   7.316   1.395  0.9513 -0.0498 -0.0713
25005SOL    HW286741  12.541   7.201   1.493 -2.2732 -0.1893  0.0253
25006SOL     OW86742   7.430   0.860  11.022  0.1475  0.1858  0.2242
25006SOL    HW186743   7.496   0.926  11.004  1.6161 -0.5874  2.4257
25006SOL    HW286744   7.443   0.837  11.114 -3.4480  0.2502  0.9057
25007SOL     OW86745   7.393  13.471   0.663  0.3830 -0.2556  0.1004
25007SOL    HW186746   7.343  13.432   0.735  0.0522  0.3824  0.2319
25007SOL    HW286747   7.389  13.565   0.681  0.7145 -0.1287 -0.4877
25008SOL     OW86748  10.383   4.165   0.886  0.3598 -0.0820  0.3338
25008SOL    HW186749  10.348   4.091   0.934  0.3034  0.2252  0.7702
25008SOL    HW286750  10.308   4.205   0.843  0.0929  0.8138  1.5903
25009SOL     OW86751   5.198  10.793   0.552 -0.1840 -0.7734 -0.2369
25009SOL    HW186752   5.175  10.815   0.642  0.6385 -0.1007 -0.1760
25009SOL    HW286753   5.293  10.807   0.547 -0.4492  0.9698 -1.6592
25010SOL     OW86754   8.456   9.802  11.982 -0.0416 -0.6395 -0.3145
25010SOL    HW186755   8.479   9.771  11.895  0.7807 -2.4486  0.4889
25010SOL    HW286756   8.373   9.757  12.002 -0.2505 -0.1966 -0.1811
25011SOL     OW86757   0.238   8.703  11.624 -0.0821  0.3159 -0.2189
25011SOL    HW186758   0.313   8.691  11.682 -0.0495  0.8698 -0.1354
25011SOL    HW286759   0.233   8.798  11.611 -0.3956  0.2360 -0.7169
25012SOL     OW86760   9.823   3.247  12.594  0.0884  0.1670 -0.1849
25012SOL    HW186761   9.910   3.213  12.612 -0.2356 -0.8529 -0.5191
25012SOL    HW286762   9.809   3.315  12.660  0.9706  0.0612  0.1125
25013SOL     OW86763  13.105   6.293   9.327 -0.1657 -0.3850  0.5133
25013SOL    HW186764  13.187   6.340   9.339 -0.5300  0.5227 -0.3745
25013SOL    HW286765  13.112   6.216   9.383  1.6221 -0.7642 -0.1838
25014SOL     OW86766   7.042   1.359   6.377 -0.0419 -0.4368  0.0848
25014SOL    HW186767   6.952   1.335   6.354 -0.3305 -0.1803  0.8973
25014SOL    HW286768   7.067   1.297   6.446  0.4607 -0.5993 -0.2359
25015SOL     OW86769   2.180   9.463   1.850  0.5019 -0.4009  0.1212
25015SOL    HW186770   2.197   9.467   1.755  1.2411 -0.7700  0.2287
25015SOL    HW286771   2.236   9.391   1.881 -0.2271 -0.7155  0.7362
25016SOL     OW86772  10.261   1.424   1.945  0.0651  0.0197  0.0663
25016SOL    HW186773  10.218   1.340   1.962 -0.4466  0.2623 -0.0118
25016SOL    HW286774  10.219   1.457   1.866 -0.3497  0.7584  0.5884
25017SOL     OW86775   9.574   7.814   7.211  0.1407  0.2699  0.2475
25017SOL    HW186776   9.510   7.804   7.281  1.3915  1.1452  1.5848
25017SOL    HW286777   9.654   7.841   7.256  1.0136  0.7835 -1.5273
25018SOL     OW86778  10.216   3.655   1.485  0.2902 -0.2064 -0.1480
25018SOL    HW186779  10.245   3.580   1.538 -0.8631 -0.5790 -0.0013
25018SOL    HW286780  10.294   3.708   1.472  1.3639 -1.9300 -1.0656
25019SOL     OW86781   2.806  10.228  13.585  0.4958 -0.2022  0.0076
25019SOL    HW186782   2.717  10.206  13.613  1.0038 -0.9398  1.0793
25019SOL    HW286783   2.813  10.192  13.497 -0.0679 -0.6581  0.1446
25020SOL     OW86784  10.776   1.639   2.870 -0.1399  0.0614 -0.1164
25020SOL    HW186785  10.803   1.695   2.798  0.0463 -0.5350 -0.5161
25020SOL    HW286786  10.731   1.698   2.931 -0.5806  0.5085 -0.8616
25021SOL     OW86787   6.808   0.868   1.819 -0.0143 -0.3234 -0.0926
25021SOL    HW186788   6.777   0.861   1.729  1.8793  0.0999 -0.8152
25021SOL    HW286789   6.878   0.803   1.826  0.1014 -0.1108  0.9671
25022SOL     OW86790  13.516   2.490  12.883  0.8833  0.4225 -0.1801
25022SOL    HW186791  13.599   2.460  12.848  0.3498 -0.5892 -0.6149
25022SOL    HW286792  13.514   2.456  12.973  0.5284 -0.3861 -0.4860
25023SOL     OW86793  11.593  13.173   8.993 -0.2794 -0.0321 -0.2385
25023SOL    HW186794  11.661  13.185   8.926 -1.6619 -1.0154 -1.8959
25023SOL    HW286795  11.598  13.080   9.015 -0.7820 -0.0012  0.0084
25024SOL     OW86796   8.353   4.600   0.803  0.4887 -0.6623 -0.0018
25024SOL    HW186797   8.412   4.610   0.878  2.6251  1.9574 -1.8385
25024SOL    HW286798   8.390   4.529   0.751  1.0858 -0.1228 -0.3218
25025SOL     OW86799   7.680   4.852   8.091  0.0325 -0.0659  0.2078
25025SOL    HW186800   7.684   4.911   8.166  0.5623 -0.7940  0.7644
25025SOL    HW286801   7.745   4.886   8.029 -0.0358  0.2286  0.2969
25026SOL     OW86802   8.862   9.602   5.145  0.2199 -0.2664  0.3987
25026SOL    HW186803   8.909   9.665   5.199  1.1850 -1.9084  1.5680
25026SOL    HW286804   8.920   9.588   5.070 -0.7385  1.3887 -0.7044
25027SOL     OW86805  13.596  10.504  11.359  0.0284 -1.2456  0.2566
25027SOL    HW186806  13.540  10.510  11.437  1.8232 -0.9391  1.6089
25027SOL    HW286807  13.614  10.410  11.350 -2.1577 -1.5838 -1.3546
25028SOL     OW86808   6.724   3.695   8.063 -0.2750  0.3126 -0.3168
25028SOL    HW186809   6.730   3.683   8.158 -1.2198  2.0092 -0.0025
25028SOL    HW286810   6.633   3.673   8.043 -0.5399  1.5433 -0.5457
25029SOL     OW86811   2.858   3.731  11.695 -0.0594  0.4811 -0.2562
25029SOL    HW186812   2.881   3.783  11.772  0.4882  1.2849 -0.9358
25029SOL    HW286813   2.863   3.640  11.724  2.5002  0.6497  0.0851
25030SOL     OW86814   7.179   8.391   0.479 -0.0105  0.0111  0.1590
25030SOL    HW186815   7.236   8.374   0.553 -0.5196 -0.4029  0.4636
25030SOL    HW286816   7.090   8.389   0.516 -0.2736 -0.2453 -0.4654
25031SOL     OW86817  12.336   2.495  11.605 -0.1956 -0.5732  0.1668
25031SOL    HW186818  12.336   2.419  11.547  0.9336 -2.5683  2.5626
25031SOL    HW286819  12.423   2.533  11.594 -0.2112 -0.5642  0.0746
25032SOL     OW86820  10.518  11.554  11.747 -0.0219 -0.1315  0.0246
25032SOL    HW186821  10.424  11.536  11.759 -0.1213 -0.8609 -1.5666
25032SOL    HW286822  10.535  11.531  11.656  1.6609  0.2777  0.2041
25033SOL     OW86823  10.350  10.363   5.377  0.5537 -0.1297  0.1065
25033SOL    HW186824  10.277  10.303   5.359 -1.2709  0.8118  3.3517
25033SOL    HW286825  10.312  10.451   5.365  2.2050  0.4443 -1.3508
25034SOL     OW86826   9.981   7.950   0.732 -0.1825  0.6097 -0.5117
25034SOL    HW186827   9.980   7.906   0.646 -1.9326  2.4994 -1.5448
25034SOL    HW286828  10.072   7.978   0.743  0.5352 -1.4465 -0.7358
25035SOL     OW86829   0.903   5.925   4.916  0.1412 -0.7397 -0.0729
25035SOL    HW186830   0.982   5.921   4.862  0.5211 -0.8570  0.4912
25035SOL    HW286831   0.850   5.852   4.885  1.2363 -2.0790  1.0549
25036SOL     OW86832   1.778   2.250   9.607  0.1680  0.0970  0.0801
25036SOL    HW186833   1.869   2.233   9.584 -0.1207 -1.1553 -0.2209
25036SOL    HW286834   1.782   2.317   9.675  1.2752  0.5321 -0.3946
25037SOL     OW86835   5.904   6.224  12.153 -0.2035 -0.2039  0.3065
25037SOL    HW186836   5.975   6.223  12.088  0.0146 -0.3154  0.5450
25037SOL    HW286837   5.943   6.265  12.230  0.1630 -1.9214  1.0661
25038SOL     OW86838   8.158  11.895  12.675 -0.4924  0.4658  0.6441
25038SOL    HW186839   8.164  11.981  12.634  0.1740  2.0130  3.6328
25038SOL    HW286840   8.093  11.906  12.745 -1.3223 -1.8608  0.3372
25039SOL     OW86841  11.257   6.052   9.313  0.3363 -0.2076  0.4056
25039SOL    HW186842  11.290   6.096   9.235  1.3019  1.1181  1.5172
25039SOL    HW286843  11.312   5.974   9.323  0.0834 -0.4893 -0.3096
25040SOL     OW86844  10.304   9.308   7.526 -0.1785  0.3555  0.6123
25040SOL    HW186845  10.310   9.372   7.455  0.8409  1.9306  2.0459
25040SOL    HW286846  10.255   9.354   7.595  1.2323 -0.0975  1.9600
25041SOL     OW86847  13.324   2.557   0.894 -0.4954 -0.2515 -0.0470
25041SOL    HW186848  13.358   2.472   0.865 -2.4829 -0.7753 -1.0785
25041SOL    HW286849  13.295   2.600   0.813  0.0498  1.2276  0.5112
25042SOL     OW86850   1.335   6.818   8.512  0.1270  0.0765 -0.3111
25042SOL    HW186851   1.399   6.838   8.444  2.1847  0.0678  1.5285
25042SOL    HW286852   1.348   6.725   8.531  0.3724  0.3323  0.8412
25043SOL     OW86853   5.380   1.549   9.060 -0.4836 -0.5568 -0.2008
25043SOL    HW186854   5.335   1.630   9.086 -0.6102 -0.5777 -0.3510
25043SOL    HW286855   5.428   1.522   9.138 -1.6788 -1.1768  0.3596
25044SOL     OW86856  11.027   2.942   3.026 -0.2399  0.2726 -0.6121
25044SOL    HW186857  11.060   2.882   2.959 -0.8897 -1.3007  0.4295
25044SOL    HW286858  11.106   2.976   3.069  0.1303 -0.2255 -0.8871
25045SOL     OW86859   2.987   2.376   3.803 -0.0723  0.0357  0.2715
25045SOL    HW186860   3.079   2.396   3.789  0.3338 -2.5307 -1.2598
25045SOL    HW286861   2.940   2.429   3.738  0.5426 -0.4775 -0.5998
25046SOL     OW86862   0.382  13.472   3.930  0.6229  1.0014  0.0793
25046SOL    HW186863   0.478  13.470   3.922  0.5333  1.2977 -1.3426
25046SOL    HW286864   0.361  13.565   3.935  0.3143  1.0109 -1.2012
25047SOL     OW86865  10.299   5.399  10.769  0.1338  0.0066  0.0316
25047SOL    HW186866  10.205   5.381  10.778 -0.0510  0.7853 -0.2506
25047SOL    HW286867  10.306   5.448  10.687  0.6482  0.8773  0.5758
25048SOL     OW86868   7.948   2.328   1.955  0.1737 -0.4655  0.0562
25048SOL    HW186869   7.927   2.234   1.959 -4.0812  0.2410 -0.8774
25048SOL    HW286870   7.952   2.347   1.862 -0.7075  0.5623  0.2187
25049SOL     OW86871   6.093   8.624  10.336 -0.0194  0.7913  0.6612
25049SOL    HW186872   6.178   8.655  10.368  0.4802  0.3606 -0.2228
25049SOL    HW286873   6.110   8.535  10.305 -1.1473  0.0634  1.9581
25050SOL     OW86874   5.505  10.718  13.021 -1.0025  0.2944 -0.3027
25050SOL    HW186875   5.597  10.715  13.046 -0.9180  2.8574 -0.0292
25050SOL    HW286876   5.457  10.720  13.104 -1.1242  1.3652 -0.3748
25051SOL     OW86877   7.111   5.425   8.309 -0.4461  0.2021 -0.2447
25051SOL    HW186878   7.142   5.406   8.397  1.9540 -0.2692 -1.1268
25051SOL    HW286879   7.052   5.352   8.288 -0.1725 -0.2496  0.5574
25052SOL     OW86880   6.971   5.740   9.072  0.2655 -0.1984 -0.3047
25052SOL    HW186881   7.051   5.788   9.051 -0.2471  0.2579 -1.2969
25052SOL    HW286882   6.930   5.790   9.142  1.0061 -0.6188  0.4416
25053SOL     OW86883   9.219   6.685   1.774  0.4062  0.5097 -0.6965
25053SOL    HW186884   9.287   6.649   1.717  0.9517 -0.7934  0.6990
25053SOL    HW286885   9.140   6.686   1.719  0.3621 -2.8500 -0.9005
25054SOL     OW86886   3.628   2.663   6.053 -0.1553  0.1135 -0.3469
25054SOL    HW186887   3.712   2.690   6.017  1.2365 -2.6237  0.5355
25054SOL    HW286888   3.568   2.734   6.031  2.2153  1.8700 -1.5832
25055SOL     OW86889   6.999  12.638  13.110 -0.0676  0.1948 -0.1215
25055SOL    HW186890   6.936  12.701  13.144 -1.1248 -1.0463  0.2972
25055SOL    HW286891   7.037  12.682  13.033 -1.4068  0.9944 -0.3622
25056SOL     OW86892   1.515  10.584   1.719 -0.5855  0.1516 -0.3531
25056SOL    HW186893   1.459  10.507   1.726  1.2168 -1.2523 -0.6816
25056SOL    HW286894   1.484  10.643   1.789 -1.3451 -1.2993  0.5810
25057SOL     OW86895   2.767  11.980   3.940  0.3999 -0.1360  0.4438
25057SOL    HW186896   2.700  12.014   3.881 -0.0178 -1.5773  0.0472
25057SOL    HW286897   2.726  11.906   3.984  0.8638  0.6210  2.2314
25058SOL     OW86898   3.604   1.292   9.383  0.2957  0.1268  0.1744
25058SOL    HW186899   3.548   1.369   9.379  0.2391  0.1848  1.4802
25058SOL    HW286900   3.553   1.229   9.435  1.8047  0.5235  2.2258
25059SOL     OW86901   2.191   4.561  11.682  0.1818  0.0065  0.1549
25059SOL    HW186902   2.264   4.591  11.629  0.0257  1.0980  0.5110
25059SOL    HW286903   2.125   4.630  11.672  0.3739  0.5533  2.1842
25060SOL     OW86904   2.832  11.871   3.691 -0.3820 -0.1100  0.2029
25060SOL    HW186905   2.790  11.791   3.660 -1.0860 -0.0851  1.0618
25060SOL    HW286906   2.792  11.888   3.776  0.1079  0.8951  0.2470
25061SOL     OW86907   3.810  13.163   6.891  0.3680  0.2476  0.0082
25061SOL    HW186908   3.763  13.202   6.964  0.6146  0.0957  0.2522
25061SOL    HW286909   3.859  13.090   6.931  0.1624 -0.1090 -0.3799
25062SOL     OW86910   2.086   4.251   4.956  0.0392 -0.5955  0.0088
25062SOL    HW186911   2.026   4.311   5.000  0.5801 -1.7130  2.4351
25062SOL    HW286912   2.038   4.221   4.879 -0.3851  2.5835 -1.1404
25063SOL     OW86913   5.832   5.591   7.148  0.1808 -0.0490 -0.4221
25063SOL    HW186914   5.741   5.609   7.123  0.6184  0.4538 -1.7595
25063SOL    HW286915   5.855   5.662   7.208 -0.7829 -1.0673  1.2055
25064SOL     OW86916   0.592  11.251   8.791  0.1184  0.8024  0.1760
25064SOL    HW186917   0.580  11.199   8.712 -0.0825 -1.3207  1.5212
25064SOL    HW286918   0.687  11.257   8.802  0.2608 -2.3685  1.8022
25065SOL     OW86919   2.651   3.417   3.797 -0.4199  0.3676  0.4645
25065SOL    HW186920   2.558   3.435   3.786 -0.8548 -1.8212  0.0182
25065SOL    HW286921   2.659   3.390   3.889 -0.3625 -0.1312  0.3140
25066SOL     OW86922  12.180   6.065   8.410  0.0657  0.2432  0.5318
25066SOL    HW186923  12.274   6.074   8.395 -0.3122  0.6671 -2.0883
25066SOL    HW286924  12.154   6.147   8.452  0.6051  0.9127 -0.4006
25067SOL     OW86925   0.667   7.170   0.349  0.3557 -0.3580  0.0820
25067SOL    HW186926   0.672   7.228   0.272  1.2069 -0.8675 -0.2543
25067SOL    HW286927   0.728   7.100   0.330  1.1430 -0.1091  1.5721
25068SOL     OW86928   8.749  13.289   4.229 -0.5588  0.1231 -0.8613
25068SOL    HW186929   8.691  13.220   4.262  0.1319  0.2397  0.6899
25068SOL    HW286930   8.814  13.301   4.299 -0.4683  2.1232 -1.2225
25069SOL     OW86931   9.759   5.212   0.052  0.5807 -0.0178  0.2938
25069SOL    HW186932   9.831   5.243   0.107  1.0759  0.6101 -0.6746
25069SOL    HW286933   9.715   5.292   0.023 -0.7179 -0.4049  1.1285
25070SOL     OW86934   3.114   8.228   1.901 -0.5701 -0.0357 -0.1155
25070SOL    HW186935   3.118   8.271   1.987 -2.3534 -1.8616  0.9747
25070SOL    HW286936   3.189   8.168   1.901 -1.3593 -1.0684  0.8210
25071SOL     OW86937   5.685   4.198  12.769  0.2864  0.5984 -0.4315
25071SOL    HW186938   5.751   4.160  12.712 -0.6799  1.7817 -2.4706
25071SOL    HW286939   5.727   4.276  12.807  0.1792  1.1712 -1.4703
25072SOL     OW86940   7.301   0.720  12.707 -0.3503 -0.7064  0.4468
25072SOL    HW186941   7.349   0.638  12.697  0.8644  0.0606 -0.3105
25072SOL    HW286942   7.213   0.694  12.735  0.3241 -2.1898  1.2691
25073SOL     OW86943  11.915   2.120   9.916 -0.2014 -0.0219  0.3585
25073SOL    HW186944  11.941   2.180   9.986 -0.6326  0.0781  0.4323
25073SOL    HW286945  11.939   2.167   9.836  0.7639 -0.3482  0.4352
25074SOL     OW86946   3.445   2.836   5.417 -0.5203  0.3536  0.2443
25074SOL    HW186947   3.421   2.835   5.509  0.7593  2.1003  0.6628
25074SOL    HW286948   3.374   2.791   5.372 -1.5671  0.1956  1.9915
25075SOL     OW86949   3.034   1.864   7.644  0.3456  0.7513 -0.0933
25075SOL    HW186950   3.023   1.881   7.550  0.2824 -0.4848 -0.3221
25075SOL    HW286951   2.945   1.853   7.677  0.4417 -2.1163 -0.5633
25076SOL     OW86952   3.662   3.584   8.013  1.0351 -0.4720 -0.0603
25076SOL    HW186953   3.581   3.636   8.016  0.6377 -1.0655 -0.4100
25076SOL    HW286954   3.643   3.507   8.068  1.3961 -0.5685 -0.0715
25077SOL     OW86955  12.074  10.471  13.203  0.0002  0.4198 -0.3558
25077SOL    HW186956  12.063  10.376  13.209  2.0537  0.2069  1.1555
25077SOL    HW286957  11.986  10.507  13.217 -0.4049 -1.2049  1.7242
25078SOL     OW86958  12.850   6.653  10.274  0.1874 -0.3060 -0.4789
25078SOL    HW186959  12.761   6.686  10.266 -0.2992 -1.2041  0.9340
25078SOL    HW286960  12.870   6.616  10.189 -0.1507  1.3860 -1.3396
25079SOL     OW86961   8.711  11.828   4.437 -0.8467 -0.3823  0.0015
25079SOL    HW186962   8.717  11.899   4.501 -0.6973  0.0501 -0.4779
25079SOL    HW286963   8.662  11.866   4.364 -1.7943 -1.1508  0.2272
25080SOL     OW86964   7.436   0.935   1.337  0.1079  0.3141  0.2288
25080SOL    HW186965   7.410   1.022   1.368 -2.5738 -0.2734 -0.1192
25080SOL    HW286966   7.451   0.885   1.417  0.6488  0.8168  0.4460
25081SOL     OW86967  11.533   7.730   6.197  0.3514  0.1100  0.7714
25081SOL    HW186968  11.598   7.735   6.267 -0.4513 -1.6159  1.7168
25081SOL    HW286969  11.466   7.794   6.222 -0.7920 -1.6695  2.6284
25082SOL     OW86970   1.484   9.929   2.920  0.0576  0.1113 -0.3907
25082SOL    HW186971   1.542   9.896   2.852 -0.7916  0.1534 -1.1593
25082SOL    HW286972   1.519  10.016   2.942  1.1688 -0.4797  0.2626
25083SOL     OW86973   9.849  10.279  11.415 -0.3403  0.5093  0.2590
25083SOL    HW186974   9.768  10.315  11.451 -0.1988 -0.1146  1.2459
25083SOL    HW286975   9.911  10.281  11.488  0.4953  0.8279 -0.4386
25084SOL     OW86976  11.914   0.817  13.609  0.2197 -0.3178  0.7611
25084SOL    HW186977  11.903   0.765  13.530  1.4391 -0.1134  0.4270
25084SOL    HW286978  11.853   0.779  13.672  1.1616 -2.2512  0.5730
25085SOL     OW86979  11.556   3.891  12.576 -0.5425  0.2102 -0.1884
25085SOL    HW186980  11.588   3.801  12.572  1.1265  0.7760 -0.5143
25085SOL    HW286981  11.527   3.902  12.667  0.2219 -0.3574  0.1365
25086SOL     OW86982   6.423   1.778   7.437 -0.4654 -0.4810  0.4374
25086SOL    HW186983   6.396   1.845   7.500 -0.3832 -0.3284  0.3096
25086SOL    HW286984   6.419   1.696   7.487 -0.2961 -0.3462  0.6757
25087SOL     OW86985  13.490   5.585   1.986  0.0306 -0.2686 -0.4447
25087SOL    HW186986  13.551   5.591   2.060 -0.3517 -1.2265 -0.0374
25087SOL    HW286987  13.418   5.531   2.018 -0.4502 -0.1646 -1.3153
25088SOL     OW86988   0.536  11.172  13.246  0.0707  0.0414 -0.0670
25088SOL    HW186989   0.598  11.111  13.285 -0.2196 -0.7601 -0.8333
25088SOL    HW286990   0.584  11.213  13.174 -0.5047 -1.1886 -1.1960
25089SOL     OW86991  12.768   6.037  10.771 -0.6240  0.1567 -0.2939
25089SOL    HW186992  12.685   5.994  10.792  0.4898 -2.0997 -0.2182
25089SOL    HW286993  12.743   6.124  10.740 -3.0605 -0.7325 -1.0499
25090SOL     OW86994   3.297   7.622   9.716 -0.3837 -0.1193  0.5865
25090SOL    HW186995   3.332   7.634   9.804  0.6854  0.2036  0.1386
25090SOL    HW286996   3.337   7.693   9.665 -2.0606  0.5334  0.1370
25091SOL     OW86997   4.165   0.787   2.291  1.0153  0.6553  0.3455
25091SOL    HW186998   4.159   0.746   2.378 -2.4961  0.9829  0.3796
25091SOL    HW286999   4.153   0.714   2.230  1.0230  0.7824  0.1934
25092SOL     OW87000   2.072   8.054   3.663  0.1357  0.1273 -0.3466
25092SOL    HW187001   2.048   7.986   3.726  1.0526  0.6612  0.6059
25092SOL    HW287002   2.121   8.007   3.595  0.5253 -0.2049  0.1615
25093SOL     OW87003  12.287   9.937  11.070  0.2715 -0.1868 -0.2757
25093SOL    HW187004  12.327   9.994  11.136  2.0293 -0.0252 -1.4366
25093SOL    HW287005  12.255   9.862  11.120  0.3860  0.5411  0.9238
25094SOL     OW87006   6.852   7.920  12.718  0.5235  0.0445 -0.9439
25094SOL    HW187007   6.923   7.860  12.696  0.8812 -0.0538  0.3936
25094SOL    HW287008   6.783   7.899  12.655  0.7514 -1.5831 -0.7001
25095SOL     OW87009   1.043  12.489   8.560  0.6306 -0.0966 -1.0342
25095SOL    HW187010   1.011  12.567   8.514  1.0194  2.0460  2.0226
25095SOL    HW287011   1.105  12.523   8.624  0.6494 -2.9144  0.6073
25096SOL     OW87012   7.425  10.227   0.502 -0.2334 -0.7809 -0.4577
25096SOL    HW187013   7.393  10.317   0.501 -0.3497 -0.8112 -1.9405
25096SOL    HW287014   7.499  10.229   0.562 -0.8532  0.0655  0.3180
25097SOL     OW87015   2.931   3.203   0.933  0.3362  0.2658 -0.1220
25097SOL    HW187016   2.905   3.291   0.907 -2.7003 -0.4710  0.0671
25097SOL    HW287017   2.945   3.208   1.027 -0.8367  0.3453  0.0538
25098SOL     OW87018   8.492   8.372   8.036  0.1177 -0.3642  0.0169
25098SOL    HW187019   8.479   8.278   8.023 -0.8382 -0.2900  0.3443
25098SOL    HW287020   8.525   8.380   8.125 -0.3624 -0.3605  0.2007
25099SOL     OW87021   7.641   2.672   3.042 -0.2947 -0.5793 -0.4557
25099SOL    HW187022   7.568   2.699   3.097 -0.4653 -1.0941 -0.4267
25099SOL    HW287023   7.656   2.747   2.984  0.1517  0.1349  0.5535
25100SOL     OW87024   5.295   6.230  10.514  0.0054 -0.0883  0.0869
25100SOL    HW187025   5.275   6.292  10.443  1.1684 -1.3930 -1.4570
25100SOL    HW287026   5.275   6.278  10.594 -1.6938  1.3371 -1.1158
25101SOL     OW87027   1.959   8.093   0.754 -0.2796  0.3410 -1.0027
25101SOL    HW187028   2.003   8.023   0.707 -2.6758 -1.4835 -0.7083
25101SOL    HW287029   2.001   8.093   0.841 -1.4498 -2.0827 -0.3508
25102SOL     OW87030   5.153   3.074  12.313 -0.7655 -0.1039  0.0547
25102SOL    HW187031   5.184   3.011  12.249 -0.2271  0.1341  0.0708
25102SOL    HW287032   5.227   3.085  12.373 -1.0908  0.0396  0.4333
25103SOL     OW87033   3.489   6.372  13.596 -0.0923  0.6874  0.5321
25103SOL    HW187034   3.423   6.384  13.527  1.1067  0.4102 -0.7004
25103SOL    HW287035   3.488   6.455  13.644 -1.4755  0.6096  0.6748
25104SOL     OW87036   0.915   6.914   2.824  0.1625  0.1382 -0.0605
25104SOL    HW187037   0.860   6.886   2.752 -0.6036 -0.7687  0.8472
25104SOL    HW287038   0.998   6.941   2.783 -1.0178  1.8350 -1.4821
25105SOL     OW87039   2.829   9.581   9.519 -0.1235 -0.2101 -0.1384
25105SOL    HW187040   2.755   9.625   9.562  0.0537  1.2089 -1.1972
25105SOL    HW287041   2.834   9.622   9.432  0.8181 -1.5236 -0.7323
25106SOL     OW87042   4.826   7.549  12.626  0.2435  0.0043 -0.0941
25106SOL    HW187043   4.766   7.476  12.642  0.5978 -0.2200  0.2410
25106SOL    HW287044   4.829   7.597  12.709  0.4063  0.1018 -0.1549
25107SOL     OW87045  13.032   7.952   4.213  0.3124  0.2786 -0.1978
25107SOL    HW187046  13.028   7.865   4.251  1.0917  0.8053  1.1934
25107SOL    HW287047  13.075   8.005   4.280 -1.1847  1.9879 -0.5116
25108SOL     OW87048   9.025   9.005   1.824 -0.1729  0.1322 -0.3710
25108SOL    HW187049   9.083   9.073   1.789 -0.3738  0.2167 -0.5402
25108SOL    HW287050   9.029   8.934   1.760  1.3282 -0.7221  0.5974
25109SOL     OW87051  10.454   4.261   8.503  0.3414 -0.4390  0.3218
25109SOL    HW187052  10.513   4.334   8.483  0.9659 -0.3613  2.2921
25109SOL    HW287053  10.501   4.209   8.568 -1.4375 -0.7935  1.3755
25110SOL     OW87054   1.392   5.789   7.602 -0.1466  0.1846 -0.4388
25110SOL    HW187055   1.400   5.883   7.615 -0.3805  0.0327  1.0603
25110SOL    HW287056   1.481   5.760   7.583  0.5188  0.3533  2.0784
25111SOL     OW87057  11.754   0.226   6.416  0.2147  0.0742 -0.0013
25111SOL    HW187058  11.699   0.274   6.478 -2.7940 -0.4246 -2.1012
25111SOL    HW287059  11.832   0.281   6.408 -1.1929  2.3946  0.9363
25112SOL     OW87060  10.096   9.447  11.188 -0.1525 -0.1707  0.0265
25112SOL    HW187061  10.067   9.365  11.229 -3.0234  1.1625  0.9377
25112SOL    HW287062  10.127   9.500  11.261  0.0632  0.1926 -0.3242
25113SOL     OW87063   0.057   3.269  12.251 -0.6630 -0.8568  0.0321
25113SOL    HW187064  -0.025   3.241  12.211 -1.2031 -0.2997  0.7201
25113SOL    HW287065   0.083   3.346  12.200 -1.0208 -0.5256  0.3391
25114SOL     OW87066   4.128  10.018   2.669  0.2536 -0.4776 -0.6238
25114SOL    HW187067   4.102  10.042   2.580  0.6920 -1.1449 -0.9434
25114SOL    HW287068   4.130   9.923   2.668  3.1250 -0.5162 -0.7869
25115SOL     OW87069  11.746  13.171  12.839  0.6862  0.2943  0.3027
25115SOL    HW187070  11.727  13.100  12.777  0.7218  0.8539 -0.3655
25115SOL    HW287071  11.734  13.251  12.787 -0.7587  0.8361  1.4152
25116SOL     OW87072   8.124   5.605   6.404 -0.3497 -0.0595 -0.3150
25116SOL    HW187073   8.106   5.668   6.335  0.9833  0.3082 -0.3606
25116SOL    HW287074   8.185   5.650   6.463 -0.4423 -0.8211  0.3912
25117SOL     OW87075   1.674   1.619   9.369  0.0493 -0.3430  0.2269
25117SOL    HW187076   1.746   1.637   9.431 -1.5801  0.9601  1.8618
25117SOL    HW287077   1.693   1.532   9.335  2.2953 -0.1298  0.7280
25118SOL     OW87078   1.165   7.096   3.774  0.6160  0.3226  0.2256
25118SOL    HW187079   1.074   7.102   3.744  0.4959 -2.5895 -0.3380
25118SOL    HW287080   1.159   7.065   3.865  1.0417  0.1123  0.1868
25119SOL     OW87081   4.752   1.607  11.912  0.6706  0.1254  0.1769
25119SOL    HW187082   4.692   1.588  11.984 -1.3495  0.7015 -1.2572
25119SOL    HW287083   4.826   1.548  11.925  0.0281 -0.2791  2.2869
25120SOL     OW87084   6.267   9.138   5.408 -0.0002 -0.4668 -0.0111
25120SOL    HW187085   6.231   9.086   5.336  0.3722  0.4156 -0.8531
25120SOL    HW287086   6.192   9.182   5.446 -0.1312 -0.5637 -0.1587
25121SOL     OW87087   1.612   5.867  11.319 -0.3551  0.2458 -0.2149
25121SOL    HW187088   1.652   5.882  11.404  0.2553  0.8379 -0.5945
25121SOL    HW287089   1.552   5.793  11.333 -2.3001  1.9901  1.3607
25122SOL     OW87090  12.242   3.612  12.305  0.8463  0.2827  0.2606
25122SOL    HW187091  12.163   3.623  12.357  1.5901  1.0214  1.2774
25122SOL    HW287092  12.232   3.527  12.263 -1.0112  0.8581 -0.5696
25123SOL     OW87093   4.624  11.573  11.851  0.5575  0.4117  0.0115
25123SOL    HW187094   4.646  11.632  11.923 -0.4412  2.0083 -0.9468
25123SOL    HW287095   4.699  11.579  11.792  1.1437 -0.5038  0.6261
25124SOL     OW87096  10.976   2.640   4.783  0.8813 -0.3193 -0.1459
25124SOL    HW187097  11.056   2.591   4.765  0.9534 -0.1428 -0.3153
25124SOL    HW287098  10.931   2.642   4.698  2.1194  2.1558 -0.8365
25125SOL     OW87099  13.632   0.714   7.027  0.2059 -0.1933  0.4458
25125SOL    HW187100  13.558   0.747   6.975  0.7710  1.2598  0.5141
25125SOL    HW287101  13.600   0.713   7.117 -0.4699 -1.8260  0.2241
25126SOL     OW87102   6.208   2.387   6.151 -0.1679 -0.3399 -0.0317
25126SOL    HW187103   6.287   2.433   6.122  1.9844 -2.6069  1.7519
25126SOL    HW287104   6.173   2.441   6.221 -0.1235  0.6314 -0.7433
25127SOL     OW87105   2.194   4.203  11.425  0.1553  0.3155  0.1940
25127SOL    HW187106   2.192   4.214  11.329  0.3649  0.6677  0.2257
25127SOL    HW287107   2.285   4.225  11.449  0.1579  0.0242  0.4495
25128SOL     OW87108   9.751  11.653   0.813  0.0826 -0.2526  0.4634
25128SOL    HW187109   9.816  11.714   0.779  0.7424 -0.4770  1.2775
25128SOL    HW287110   9.673  11.707   0.828  0.7652  0.4975  1.5096
25129SOL     OW87111   6.285  11.265   0.510  0.5458  0.0923 -0.1748
25129SOL    HW187112   6.379  11.275   0.524  0.6418 -1.1269  0.1846
25129SOL    HW287113   6.253  11.228   0.592 -0.0366 -0.6443 -0.7244
25130SOL     OW87114   1.056  11.791   4.584  0.1712  0.0901 -0.3370
25130SOL    HW187115   0.997  11.730   4.628  0.0503  0.0752 -0.5139
25130SOL    HW287116   1.128  11.736   4.553  0.1628  0.0688 -0.3184
25131SOL     OW87117   3.082   8.499   6.687  0.0369  0.0694 -0.2416
25131SOL    HW187118   2.991   8.471   6.677  0.6797 -1.6953 -1.9999
25131SOL    HW287119   3.104   8.479   6.778 -1.3640  0.6973  0.2555
25132SOL     OW87120  12.400   3.686   2.873  0.0735  0.0839 -0.0706
25132SOL    HW187121  12.414   3.685   2.778  0.4294  0.4014 -0.0261
25132SOL    HW287122  12.306   3.673   2.883 -0.1295  1.0915 -0.5142
25133SOL     OW87123  13.335   6.248  13.072 -0.3359 -0.8951  0.2333
25133SOL    HW187124  13.368   6.308  13.005 -1.2632 -0.5823  0.0279
25133SOL    HW287125  13.411   6.198  13.100  0.1600 -0.7240 -0.7477
25134SOL     OW87126   7.308   8.543  12.388 -0.0288 -0.0410  0.5738
25134SOL    HW187127   7.264   8.626  12.372 -0.8371 -0.7165 -0.9140
25134SOL    HW287128   7.336   8.547  12.479 -1.4237  1.2149  0.9673
25135SOL     OW87129  12.612   8.728   3.763  0.1418 -0.5530  0.2558
25135SOL    HW187130  12.650   8.640   3.767  0.5447 -0.4305 -0.6544
25135SOL    HW287131  12.614   8.750   3.670 -1.2901 -0.1551  0.3041
25136SOL     OW87132   1.181   7.006  12.798  0.4361 -0.4921 -0.2361
25136SOL    HW187133   1.213   7.076  12.741 -0.4337 -1.1827 -1.6230
25136SOL    HW287134   1.256   6.984  12.853  1.0032  0.8703 -0.4289
25137SOL     OW87135  12.172   9.952   5.539 -0.1020  0.2704 -0.5265
25137SOL    HW187136  12.169   9.861   5.509 -1.7040 -0.3850  1.4057
25137SOL    HW287137  12.080   9.977   5.549  0.3125  2.1007 -0.9181
25138SOL     OW87138   0.368   8.704  11.029  0.0448 -0.2642 -0.1883
25138SOL    HW187139   0.391   8.645  11.101 -0.0949 -1.6060 -1.2074
25138SOL    HW287140   0.288   8.667  10.992  0.3819  0.1101 -1.3471
25139SOL     OW87141   9.870  13.126   0.141  0.3239  0.1395 -0.0728
25139SOL    HW187142   9.825  13.202   0.104 -0.2921  0.1322  0.6482
25139SOL    HW287143   9.953  13.161   0.173 -0.6144  0.8737  1.7260
25140SOL     OW87144   4.496   8.094  12.714  0.0377 -0.6243 -0.0997
25140SOL    HW187145   4.445   8.025  12.673  1.7151 -1.2326 -1.3015
25140SOL    HW287146   4.462   8.176  12.677 -1.0002 -0.8792  0.2523
25141SOL     OW87147  10.731   3.432   3.175 -0.1625 -0.2965 -0.3013
25141SOL    HW187148  10.756   3.352   3.131 -3.4860 -0.5834 -1.9533
25141SOL    HW287149  10.665   3.405   3.239 -0.8302  1.0245 -0.3944
25142SOL     OW87150   6.608   2.490   1.473  0.5112 -0.0439  0.0437
25142SOL    HW187151   6.645   2.501   1.560  2.9343  0.2356 -0.9292
25142SOL    HW287152   6.661   2.548   1.417  1.5459 -2.9065 -2.2112
25143SOL     OW87153   7.845   5.431  10.283  0.3834 -0.2727 -0.0429
25143SOL    HW187154   7.841   5.508  10.226  0.1761 -0.5559 -0.4159
25143SOL    HW287155   7.801   5.458  10.363 -1.5136 -0.6302 -0.9123
25144SOL     OW87156   7.511   3.707   4.024  0.2469 -0.0741 -0.0382
25144SOL    HW187157   7.416   3.701   4.029  0.1036 -0.9399 -2.6173
25144SOL    HW287158   7.536   3.645   3.955  2.7663 -0.4118  1.0652
25145SOL     OW87159   8.514  10.438  13.200 -0.3854 -0.2069  0.1590
25145SOL    HW187160   8.559  10.472  13.123  1.1941 -2.0398  0.1829
25145SOL    HW287161   8.557  10.481  13.274 -1.3233  0.9134  0.0722
25146SOL     OW87162  10.855   7.394   5.381  0.6125 -0.3471 -0.0609
25146SOL    HW187163  10.782   7.359   5.330  1.7272 -2.2023 -0.4857
25146SOL    HW287164  10.882   7.473   5.335 -1.0561  0.3181  0.0628
25147SOL     OW87165   3.508   8.045  11.205 -0.7888 -0.6118 -0.0857
25147SOL    HW187166   3.577   7.998  11.251  0.2254 -1.6263 -2.5143
25147SOL    HW287167   3.427   8.003  11.234 -0.1664 -1.5044  0.4152
25148SOL     OW87168  13.220   6.203  11.360 -0.1094 -0.2558  0.6940
25148SOL    HW187169  13.156   6.236  11.423  0.3052  0.7176  0.6173
25148SOL    HW287170  13.290   6.268  11.360  0.4044 -0.7917  0.0228
25149SOL     OW87171   8.069   1.516   2.670 -0.0162 -0.2840  0.0366
25149SOL    HW187172   8.083   1.609   2.654  0.8273 -0.3738  0.2161
25149SOL    HW287173   8.148   1.487   2.716 -0.6544 -0.8896  0.7946
25150SOL     OW87174   2.225   2.161  11.092  0.7054  0.1037  0.3034
25150SOL    HW187175   2.320   2.163  11.087  0.7628 -1.3969  0.3771
25150SOL    HW287176   2.206   2.155  11.186  0.5424  0.4315  0.2906
25151SOL     OW87177   8.883  11.305  11.168  0.3936  0.1627 -0.1762
25151SOL    HW187178   8.804  11.273  11.125  0.1947  0.9496 -0.4047
25151SOL    HW287179   8.853  11.336  11.254  0.6842 -0.8078  0.2856
25152SOL     OW87180  12.269   6.130   2.673 -0.4774 -0.3372 -0.1206
25152SOL    HW187181  12.216   6.210   2.673  0.8766  0.6140 -1.3600
25152SOL    HW287182  12.302   6.123   2.583  0.6281 -1.4604  0.3422
25153SOL     OW87183   5.779   7.363   7.815 -0.0032 -0.0964 -0.5074
25153SOL    HW187184   5.855   7.305   7.818  0.8044  0.8981  2.8457
25153SOL    HW287185   5.704   7.305   7.828  0.3906 -0.7919 -1.2520
25154SOL     OW87186   4.209  10.553  11.401  0.3384 -0.3762 -0.2738
25154SOL    HW187187   4.280  10.541  11.339 -1.3604 -0.9132 -2.2343
25154SOL    HW287188   4.138  10.497  11.368 -1.2289  0.6176  1.2034
25155SOL     OW87189   9.886   0.083  12.284  0.2523  0.1379  0.0896
25155SOL    HW187190   9.885   0.142  12.359  1.0576  0.7289 -0.3393
25155SOL    HW287191   9.974   0.044  12.285 -0.3461 -1.2602  0.5072
25156SOL     OW87192   8.846   9.351  12.926  0.6338  0.2683 -0.0580
25156SOL    HW187193   8.850   9.273  12.981  0.5695  0.3883  0.1168
25156SOL    HW287194   8.799   9.416  12.979  0.2020  0.2513 -0.4095
25157SOL     OW87195  11.423  11.025   4.492  0.0770 -0.0710 -0.3068
25157SOL    HW187196  11.486  11.087   4.455 -0.2518  0.4790  0.0373
25157SOL    HW287197  11.352  11.079   4.525  0.4087 -0.5031  1.2446
25158SOL     OW87198   8.410   9.546   2.171  0.3604 -0.0712  0.2676
25158SOL    HW187199   8.431   9.454   2.156  0.4302  0.0126 -0.1501
25158SOL    HW287200   8.342   9.544   2.238 -2.3012 -0.6494 -2.2356
25159SOL     OW87201  13.149   2.607   6.101 -0.5545 -0.0136  0.1616
25159SOL    HW187202  13.090   2.633   6.030 -0.1876 -0.4184 -0.2998
25159SOL    HW287203  13.201   2.685   6.118 -2.1046  0.7821  1.4987
25160SOL     OW87204   9.130  11.508   6.768 -0.3762  0.3170 -0.8365
25160SOL    HW187205   9.207  11.541   6.814  0.1617  0.1517 -1.5955
25160SOL    HW287206   9.068  11.581   6.768  0.0247  0.6608 -0.7643
25161SOL     OW87207  12.757   2.079   4.199  0.1140  0.4498 -0.5929
25161SOL    HW187208  12.792   2.163   4.229 -0.8434  1.2340 -1.6114
25161SOL    HW287209  12.779   2.075   4.106 -0.9762  0.1974 -0.8590
25162SOL     OW87210   1.660   9.384  13.615 -0.1769 -0.4184 -0.6032
25162SOL    HW187211   1.695   9.446  13.551 -1.3962  2.1023  1.0349
25162SOL    HW287212   1.588   9.340  13.569 -1.5710  1.9266 -0.8281
25163SOL     OW87213   8.642   5.612   5.388  0.1310 -0.2488  0.0571
25163SOL    HW187214   8.706   5.590   5.321  1.0079  0.8643  0.4840
25163SOL    HW287215   8.691   5.663   5.452 -0.6471 -1.4007  1.6339
25164SOL     OW87216   8.531   5.668   6.551 -0.5706  0.3015 -0.1188
25164SOL    HW187217   8.600   5.708   6.497 -1.0647  0.3045 -0.7487
25164SOL    HW287218   8.578   5.636   6.629  0.2400 -0.1913 -0.7910
25165SOL     OW87219   6.977   3.345  13.379  0.5015 -0.5063 -0.3587
25165SOL    HW187220   7.026   3.263  13.369 -0.3882 -1.1224  0.1888
25165SOL    HW287221   6.886   3.318  13.384 -0.0181  0.6872 -2.2781
25166SOL     OW87222   2.643   5.819  13.014 -0.4307 -0.1115  0.2020
25166SOL    HW187223   2.581   5.758  13.054 -0.0856  0.2831  1.3591
25166SOL    HW287224   2.589   5.871  12.953 -1.0659 -0.3661  0.5435
25167SOL     OW87225   1.656   0.272   6.185  0.7278  0.1225 -0.1933
25167SOL    HW187226   1.586   0.330   6.154  1.9098  0.3291 -2.7875
25167SOL    HW287227   1.735   0.325   6.179  1.9576 -1.7825 -3.3203
25168SOL     OW87228   1.677   0.561   3.677 -0.2655  0.2400  0.2991
25168SOL    HW187229   1.632   0.477   3.686  1.4315 -0.8177 -0.6054
25168SOL    HW287230   1.612   0.618   3.636 -0.3609 -1.7088 -2.5517
25169SOL     OW87231   3.875   7.873   5.032  0.2207 -0.3051  0.1564
25169SOL    HW187232   3.850   7.946   4.974 -3.6525 -0.2592  1.6046
25169SOL    HW287233   3.823   7.799   5.001  0.8872 -1.3011  1.3337
25170SOL     OW87234   2.543   6.481  10.769  0.4506  0.1468 -0.5088
25170SOL    HW187235   2.497   6.549  10.720 -0.1934  0.4601  0.5067
25170SOL    HW287236   2.603   6.442  10.705  2.0640  2.7635 -0.7498
25171SOL     OW87237   3.079   6.272  10.214 -0.1484 -0.2991 -0.0854
25171SOL    HW187238   3.062   6.187  10.174  1.3115 -0.4178 -0.4950
25171SOL    HW287239   3.053   6.335  10.147 -2.2378 -0.3521  0.6070
25172SOL     OW87240   1.874   8.037   2.595 -0.5127 -0.0100 -0.1696
25172SOL    HW187241   1.829   8.062   2.676 -0.7972  1.3479 -0.7161
25172SOL    HW287242   1.951   8.095   2.592 -1.0063  0.6258 -1.3159
25173SOL     OW87243   9.609  10.079  12.269  0.2561 -0.3475 -0.1159
25173SOL    HW187244   9.661  10.000  12.259 -0.4164 -0.7304 -0.6572
25173SOL    HW287245   9.524  10.058  12.228 -0.1446  0.4319  0.2850
25174SOL     OW87246  13.536   0.832   6.758 -0.6207  0.3407  0.3184
25174SOL    HW187247  13.588   0.770   6.706  1.1727  0.8977  1.3611
25174SOL    HW287248  13.456   0.844   6.708  0.5968  0.0736 -1.7858
25175SOL     OW87249   8.129   4.929   9.969 -0.2964  0.0159  0.0945
25175SOL    HW187250   8.213   4.956  10.004  0.0114  0.7443 -1.1369
25175SOL    HW287251   8.071   4.925  10.045  0.4129  1.2135  0.7311
25176SOL     OW87252  13.577   7.648  10.611  0.3921 -0.2937 -0.3268
25176SOL    HW187253  13.534   7.639  10.696 -0.0416  2.0867 -0.2324
25176SOL    HW287254  13.670   7.658  10.633  0.4176 -0.7366 -0.2208
25177SOL     OW87255  10.492  11.501   5.727  0.7168 -0.1611 -0.0595
25177SOL    HW187256  10.572  11.534   5.687  0.2480 -0.0645 -0.9446
25177SOL    HW287257  10.443  11.579   5.752  0.9301 -0.2206  0.5517
25178SOL     OW87258   1.383  10.208   1.022  0.2147  0.3222  0.6502
25178SOL    HW187259   1.326  10.224   0.947 -0.7801  1.5688  1.6206
25178SOL    HW287260   1.335  10.144   1.074  0.0218  0.8128  1.0923
25179SOL     OW87261  10.542  10.311  13.067 -0.1259 -0.3284  0.4315
25179SOL    HW187262  10.499  10.230  13.039  0.0326 -0.6402  1.0800
25179SOL    HW287263  10.512  10.377  13.004 -0.6000 -0.7978  0.1584
25180SOL     OW87264   5.676  11.864  12.993  0.3473 -0.4742  0.4044
25180SOL    HW187265   5.603  11.809  13.021  0.1461  1.0713  3.3630
25180SOL    HW287266   5.747  11.843  13.053  0.9953  0.8796  0.1559
25181SOL     OW87267   3.235  10.694   2.485 -0.4880  0.6364  0.3223
25181SOL    HW187268   3.254  10.716   2.394  2.2927 -0.6855  0.4946
25181SOL    HW287269   3.225  10.599   2.485  1.7142  0.3590  1.6866
25182SOL     OW87270   4.683   1.382  11.256 -0.2675 -0.6396  0.3995
25182SOL    HW187271   4.775   1.389  11.229 -0.3386  0.7262  0.4595
25182SOL    HW287272   4.657   1.294  11.229  1.3477 -1.4462  1.3016
25183SOL     OW87273  10.905   6.793   6.598 -0.1029 -0.1084  0.2476
25183SOL    HW187274  10.865   6.728   6.656 -1.7224 -0.5529 -1.2961
25183SOL    HW287275  10.983   6.748   6.564  0.3441 -0.1819  1.3371
25184SOL     OW87276   8.304   1.458  13.027 -0.4038 -0.2394 -0.1965
25184SOL    HW187277   8.217   1.440  12.991 -0.9024 -0.8303  1.2519
25184SOL    HW287278   8.341   1.371  13.044  0.0778  0.0263  0.1247
25185SOL     OW87279  13.043   6.210   2.742 -0.0265  0.2117 -0.0758
25185SOL    HW187280  13.083   6.124   2.754 -0.1288  0.3001  0.9764
25185SOL    HW287281  13.021   6.239   2.831  1.4314  2.0108 -0.2512
25186SOL     OW87282   9.935  10.206   6.141  0.2906 -0.2901  0.4303
25186SOL    HW187283   9.863  10.247   6.093 -1.1598 -2.2335  0.8316
25186SOL    HW287284   9.971  10.142   6.080  0.4456 -0.6315  0.8764
25187SOL     OW87285   8.981   7.949  13.002 -0.0361  0.4642  0.6096
25187SOL    HW187286   8.897   7.937  13.046 -0.1816  2.0100  0.7970
25187SOL    HW287287   9.002   7.862  12.968 -1.2741 -0.1456  1.3153
25188SOL     OW87288   7.946  11.007  13.668  0.5533  0.4766 -0.1572
25188SOL    HW187289   7.946  11.020  13.573 -0.3033 -2.5215 -0.6726
25188SOL    HW287290   7.869  11.055  13.698 -1.8449 -2.1149 -1.7116
25189SOL     OW87291   9.297   2.778   4.911  0.1486  0.0171  0.0643
25189SOL    HW187292   9.311   2.860   4.958  2.1793 -0.8488  1.1281
25189SOL    HW287293   9.321   2.797   4.820 -0.9142  0.9676 -0.0301
25190SOL     OW87294   6.770   9.167   4.298  0.2457 -0.5511 -0.0143
25190SOL    HW187295   6.792   9.077   4.274 -0.3248 -0.5630 -0.5168
25190SOL    HW287296   6.705   9.158   4.368  1.2283 -0.5140  0.9373
25191SOL     OW87297  10.470   5.969  10.615 -0.6880 -0.0165 -0.4059
25191SOL    HW187298  10.449   5.910  10.687  1.2653 -0.2203  0.0680
25191SOL    HW287299  10.390   6.019  10.600 -1.1388  0.0918  1.9818
25192SOL     OW87300   1.124   9.397   6.266  0.0265 -0.4658  0.4878
25192SOL    HW187301   1.191   9.335   6.294  0.4447 -0.5682 -0.6998
25192SOL    HW287302   1.042   9.349   6.274  0.2619 -0.8843  0.3779
25193SOL     OW87303   2.004   4.913   2.734 -0.0762 -0.1147  0.4140
25193SOL    HW187304   2.043   4.833   2.699  1.5813  0.5047  0.7427
25193SOL    HW287305   2.037   4.983   2.678  0.0261  0.5321  1.2551
25194SOL     OW87306   2.681  10.465   5.948  0.2878  0.4258  0.1530
25194SOL    HW187307   2.733  10.545   5.946 -0.0580  0.6429 -0.0917
25194SOL    HW287308   2.707  10.417   5.869 -0.3878  0.8514 -0.3284
25195SOL     OW87309   0.730   0.251   4.152  0.0825 -0.4438 -0.1349
25195SOL    HW187310   0.819   0.222   4.130  0.2922 -0.4334  0.6950
25195SOL    HW287311   0.728   0.253   4.247 -0.3354  1.0160 -0.1510
25196SOL     OW87312  12.648  11.708   8.066 -0.6335  0.3862  0.1366
25196SOL    HW187313  12.557  11.731   8.046 -0.2901  0.5606 -1.3236
25196SOL    HW287314  12.674  11.650   7.994 -0.1231 -1.0953  1.4659
25197SOL     OW87315  13.086   3.788   0.747 -0.6851  0.3128 -0.2341
25197SOL    HW187316  13.014   3.800   0.686  0.0367 -1.1571 -1.4291
25197SOL    HW287317  13.118   3.876   0.764 -1.7656  0.8497 -0.9081
25198SOL     OW87318   7.538   7.975   8.611  0.2755 -0.0907  0.1645
25198SOL    HW187319   7.615   7.928   8.643  0.0915 -2.4392 -2.3825
25198SOL    HW287320   7.573   8.058   8.578  1.4304 -0.3350  0.7151
25199SOL     OW87321   1.453   0.425   6.066  0.7220  0.2434  0.2998
25199SOL    HW187322   1.378   0.398   6.014  1.5528 -0.7531 -0.4070
25199SOL    HW287323   1.416   0.482   6.134 -0.6341 -0.0936 -0.1391
25200SOL     OW87324   2.510   2.301   4.236 -0.3432 -0.1752  0.0831
25200SOL    HW187325   2.516   2.206   4.220  0.3287  0.0274 -0.9559
25200SOL    HW287326   2.585   2.320   4.292 -2.3339 -0.7749  3.1923
25201SOL     OW87327   1.761   7.575   9.676  0.2119  0.3774 -0.7157
25201SOL    HW187328   1.784   7.663   9.705 -1.7493  0.5742  0.3712
25201SOL    HW287329   1.676   7.558   9.715 -0.0028 -1.5490 -1.9004
25202SOL     OW87330   1.000   3.920   3.463  0.5032  0.1292 -0.0666
25202SOL    HW187331   0.921   3.965   3.496  0.3821  1.4490 -2.0025
25202SOL    HW287332   0.985   3.910   3.369  1.8218 -1.4014 -0.1566
25203SOL     OW87333  11.543  12.884   8.093 -0.6599  0.0372 -0.3235
25203SOL    HW187334  11.455  12.896   8.057 -0.7975 -2.0108 -0.7953
25203SOL    HW287335  11.532  12.818   8.162  0.6757 -1.4071 -1.4072
25204SOL     OW87336   2.939   7.795   3.222 -0.0630  0.2528 -0.4821
25204SOL    HW187337   2.935   7.815   3.315 -0.3576  0.4258 -0.5270
25204SOL    HW287338   2.891   7.712   3.213 -0.2758  0.3767 -0.5130
25205SOL     OW87339  13.492   1.293   6.569  0.2271 -0.3347  0.2800
25205SOL    HW187340  13.549   1.217   6.585 -0.2239 -0.8630 -0.5529
25205SOL    HW287341  13.501   1.311   6.476 -0.2783  0.1487  0.3212
25206SOL     OW87342  12.022  12.311   7.046  0.5704 -0.2574 -0.5525
25206SOL    HW187343  12.075  12.347   6.975  1.8825  1.7039  1.3164
25206SOL    HW287344  11.937  12.355   7.036  1.4538  1.7571  0.3599
25207SOL     OW87345   9.052   4.142  12.862  0.0173  0.4829  0.3975
25207SOL    HW187346   9.116   4.212  12.849  0.9008  0.2539  3.0331
25207SOL    HW287347   9.033   4.111  12.773  1.9071  1.9965 -0.6264
25208SOL     OW87348   0.282  12.104   0.583 -0.6800 -0.2243 -0.3967
25208SOL    HW187349   0.310  12.017   0.612  0.1325 -0.0196 -0.5635
25208SOL    HW287350   0.219  12.132   0.650  1.4951  0.4298  1.4922
25209SOL     OW87351  12.921  10.186   9.735 -0.2152 -0.2913  0.2221
25209SOL    HW187352  13.012  10.206   9.759 -0.1464  1.0379 -1.0215
25209SOL    HW287353  12.929  10.115   9.671  0.0269  0.3723 -0.5033
25210SOL     OW87354   5.141  13.711   7.402 -0.2123 -0.2067 -0.6268
25210SOL    HW187355   5.109  13.710   7.312 -0.1875  1.4383 -0.6755
25210SOL    HW287356   5.234  13.729   7.395  0.3133 -2.4864 -0.3535
25211SOL     OW87357   6.830  12.310   7.366  0.0171 -0.0341 -0.4970
25211SOL    HW187358   6.905  12.305   7.426 -0.0139 -1.6298 -0.5527
25211SOL    HW287359   6.866  12.350   7.287  0.1868  1.5846  0.3482
25212SOL     OW87360  10.257  11.721   9.899 -0.1518 -0.0735  0.5435
25212SOL    HW187361  10.192  11.657   9.868  0.2668 -0.6688  0.8587
25212SOL    HW287362  10.298  11.678   9.975  0.2437  0.5132  0.6691
25213SOL     OW87363  10.084   9.721   0.761  0.0978  0.8986 -0.5187
25213SOL    HW187364  10.154   9.685   0.705  0.6812  0.6525  0.3529
25213SOL    HW287365  10.130   9.753   0.839 -0.6436  1.7729 -0.4252
25214SOL     OW87366   1.187  10.717   1.536  0.4943 -0.0042  0.1538
25214SOL    HW187367   1.263  10.675   1.496  1.4386  1.9692 -0.2679
25214SOL    HW287368   1.114  10.695   1.478  1.1900 -0.0197 -0.7392
25215SOL     OW87369   5.628  11.461   9.184 -0.4881  0.0412  0.0022
25215SOL    HW187370   5.717  11.432   9.160 -0.0513  1.0010  0.4166
25215SOL    HW287371   5.585  11.382   9.214 -0.0565 -0.6152 -1.0193
25216SOL     OW87372  12.076   7.197  11.456  0.0312  0.4843  0.2722
25216SOL    HW187373  12.134   7.200  11.379 -1.2262  0.8432 -0.6899
25216SOL    HW287374  12.062   7.288  11.479  1.5660  0.3764  1.8894
25217SOL     OW87375   2.889  11.527   8.184 -0.9307 -0.1082 -0.3996
25217SOL    HW187376   2.823  11.596   8.176  1.1767  2.3668  1.5784
25217SOL    HW287377   2.846  11.459   8.237 -2.2148  0.9879  0.0268
25218SOL     OW87378   9.980   1.842   0.609 -0.5215  0.1287  0.4583
25218SOL    HW187379   9.888   1.839   0.635 -0.8964 -0.3530 -0.7988
25218SOL    HW287380   9.988   1.772   0.543  0.5185  0.7684 -0.1285
25219SOL     OW87381  12.303  11.443   2.669  0.2365  0.2670 -0.3304
25219SOL    HW187382  12.210  11.418   2.671  0.0709  0.7180 -1.2997
25219SOL    HW287383  12.350  11.360   2.665 -0.2519  0.0128 -2.2864
25220SOL     OW87384   2.511   9.869   4.169 -0.0119  0.7629 -0.3351
25220SOL    HW187385   2.415   9.879   4.170 -0.0764  0.1770  0.2288
25220SOL    HW287386   2.528   9.802   4.235  0.9207  1.9342  0.6376
25221SOL     OW87387   5.427   8.213   5.456  0.1497  0.4962 -0.1181
25221SOL    HW187388   5.510   8.260   5.462  1.0568 -0.5369 -2.8967
25221SOL    HW287389   5.445   8.139   5.398 -2.7610  0.3767 -1.0504
25222SOL     OW87390  12.886   3.953   0.925 -0.3072 -0.6753  0.0055
25222SOL    HW187391  12.830   3.875   0.932  0.4183 -1.0064  4.3015
25222SOL    HW287392  12.951   3.930   0.859 -1.2233 -2.9610 -0.1872
25223SOL     OW87393   7.533   0.974   3.459  0.4720  0.2523  0.0346
25223SOL    HW187394   7.584   1.034   3.404  0.7501 -0.7087 -0.7855
25223SOL    HW287395   7.535   0.891   3.412 -0.9926 -0.0791  0.5044
25224SOL     OW87396  11.313   6.165  10.809  0.1294  0.1382 -0.3896
25224SOL    HW187397  11.361   6.091  10.773 -0.8064 -0.1802 -1.0244
25224SOL    HW287398  11.379   6.235  10.817  0.6361 -0.1880 -1.5211
25225SOL     OW87399  10.145   0.449   1.998 -0.1604 -0.0451 -0.0701
25225SOL    HW187400  10.065   0.500   2.010 -0.1578 -0.3368  1.3724
25225SOL    HW287401  10.216   0.512   2.007 -0.2087  0.2241 -1.4066
25226SOL     OW87402   0.684   9.100   4.344 -0.1019 -0.5424  0.2071
25226SOL    HW187403   0.643   9.155   4.276  1.2577 -1.1474 -1.1609
25226SOL    HW287404   0.687   9.157   4.421  0.2798  0.9599 -0.8566
25227SOL     OW87405   3.185   9.528   7.787  0.5254 -0.5498 -0.1415
25227SOL    HW187406   3.226   9.539   7.873  0.6998 -1.8156 -0.0553
25227SOL    HW287407   3.252   9.486   7.733  0.4141  0.2296 -0.9119
25228SOL     OW87408  12.736  11.324   6.359 -0.3473 -0.0470 -0.5732
25228SOL    HW187409  12.759  11.234   6.381 -2.0216 -0.3791 -0.0385
25228SOL    HW287410  12.740  11.327   6.263 -0.8016 -0.8497 -0.6265
25229SOL     OW87411  13.179   8.957   3.855 -0.2618 -0.2097 -0.7409
25229SOL    HW187412  13.170   9.052   3.852 -0.3791 -0.2370 -1.4523
25229SOL    HW287413  13.163   8.934   3.946 -0.4084  0.4374 -0.6005
25230SOL     OW87414   0.308   6.283   7.189  0.1802  0.3623  0.4926
25230SOL    HW187415   0.356   6.317   7.114 -1.7776  0.3764 -0.8461
25230SOL    HW287416   0.292   6.191   7.167  1.8923 -0.4125  2.1951
25231SOL     OW87417  13.395   5.867  12.161  0.5175 -0.1529 -0.3240
25231SOL    HW187418  13.370   5.825  12.244  1.5150  0.1894  0.1684
25231SOL    HW287419  13.343   5.947  12.157  0.8877  0.1240  0.2710
25232SOL     OW87420   4.553   1.020   3.595  0.3447  0.3425 -0.5162
25232SOL    HW187421   4.533   1.111   3.573  0.7591  0.1527 -1.7547
25232SOL    HW287422   4.645   1.009   3.574  0.0515 -0.6349 -1.3978
25233SOL     OW87423   6.111  13.119  13.262  0.5846 -0.2278  0.4603
25233SOL    HW187424   6.066  13.154  13.339  0.3858  1.5650 -0.4111
25233SOL    HW287425   6.058  13.149  13.188  2.7070  1.2612 -0.5526
25234SOL     OW87426  11.380   6.880   4.658 -0.2890  0.0388  0.9120
25234SOL    HW187427  11.398   6.956   4.603 -0.3140 -0.5394  0.0783
25234SOL    HW287428  11.395   6.910   4.747  0.3123  0.8411  0.5498
25235SOL     OW87429  11.574   3.314  12.010 -0.4547  0.1675 -0.4372
25235SOL    HW187430  11.644   3.251  11.995 -0.8280 -0.1865 -0.7027
25235SOL    HW287431  11.498   3.261  12.035 -1.1948  0.3582 -2.1368
25236SOL     OW87432   5.574   6.214   7.496  0.4368  0.0698  0.3691
25236SOL    HW187433   5.538   6.290   7.542 -0.0317  0.4317 -0.5687
25236SOL    HW287434   5.578   6.146   7.563  1.1609  0.9962  1.3117
25237SOL     OW87435   3.778   6.495   7.691  0.5973 -0.7567 -0.3370
25237SOL    HW187436   3.764   6.404   7.664 -0.2573 -0.7050 -0.1078
25237SOL    HW287437   3.708   6.512   7.754 -2.0585  1.4033 -3.5291
25238SOL     OW87438   5.577   2.519   3.906 -0.1212 -0.4816  0.5751
25238SOL    HW187439   5.534   2.492   3.987  0.7239 -0.6874  0.9659
25238SOL    HW287440   5.659   2.558   3.935  0.3162 -0.8143 -0.1956
25239SOL     OW87441   7.014  10.094  12.843 -0.6620  0.1571 -0.1305
25239SOL    HW187442   7.029   9.999  12.843  0.5004  0.2952 -1.5034
25239SOL    HW287443   7.095  10.131  12.879  0.1272  0.6976 -2.2668
25240SOL     OW87444  11.524   3.017   8.623 -0.1081 -0.3052 -0.3364
25240SOL    HW187445  11.535   2.928   8.656  0.9343 -0.5302 -1.2364
25240SOL    HW287446  11.558   3.073   8.693  0.3229 -0.6800 -0.2430
25241SOL     OW87447   1.234   7.898   9.110  0.3386  0.0943 -0.7073
25241SOL    HW187448   1.198   7.809   9.108  0.6205 -0.0172 -0.9930
25241SOL    HW287449   1.298   7.895   9.181  0.5794 -0.0265 -0.9258
25242SOL     OW87450   7.618   7.137   1.826  0.0862  0.2688 -0.1888
25242SOL    HW187451   7.612   7.230   1.807  2.1766  0.8090  1.3980
25242SOL    HW287452   7.659   7.098   1.749  0.8458  0.9972 -0.1674
25243SOL     OW87453   9.758  12.904   3.541 -0.0867 -0.6579  0.9586
25243SOL    HW187454   9.706  12.823   3.537 -0.7677 -0.2555  1.4972
25243SOL    HW287455   9.812  12.894   3.619 -1.4464  0.1382  2.0488
25244SOL     OW87456   0.988   9.965   9.378  0.4464 -0.2488  0.2436
25244SOL    HW187457   1.043  10.022   9.431 -0.2031  1.0831 -0.4635
25244SOL    HW287458   0.948   9.905   9.440  0.5780  0.5377  1.1111
25245SOL     OW87459   6.393  12.387  11.534 -0.2789  0.3898  0.1764
25245SOL    HW187460   6.432  12.310  11.576  2.5197  0.5987 -1.7621
25245SOL    HW287461   6.446  12.460  11.566 -1.1650  1.1559 -0.0787
25246SOL     OW87462   7.355   1.374   4.815  0.5092  0.0648 -0.0021
25246SOL    HW187463   7.350   1.293   4.765 -2.0271 -0.5090  1.0370
25246SOL    HW287464   7.304   1.437   4.765  0.5663  0.3666  0.3113
25247SOL     OW87465   1.939   4.379   3.710  0.8204  0.9072  0.0167
25247SOL    HW187466   1.862   4.325   3.695 -0.4955  2.6956 -0.0519
25247SOL    HW287467   2.007   4.318   3.737 -0.5506 -0.7615 -0.1568
25248SOL     OW87468   7.376   8.706  13.329 -0.4781 -0.5191 -0.7771
25248SOL    HW187469   7.393   8.735  13.419 -0.7018  0.7955 -1.1335
25248SOL    HW287470   7.353   8.614  13.337  1.5242 -0.9782  0.2968
25249SOL     OW87471   4.042  12.199   6.783  0.0560 -0.5313 -0.7786
25249SOL    HW187472   3.972  12.239   6.834 -0.5464 -2.5430  0.0703
25249SOL    HW287473   4.003  12.183   6.697 -0.5361 -1.5872 -0.3279
25250SOL     OW87474   3.189  12.891   9.183 -0.2090 -0.3033 -0.1903
25250SOL    HW187475   3.115  12.838   9.214 -1.6646  1.7435 -0.0237
25250SOL    HW287476   3.266  12.839   9.206 -1.5235 -2.0092  0.6134
25251SOL     OW87477  11.991  11.263   4.296  0.2996 -0.1557  0.5714
25251SOL    HW187478  12.086  11.274   4.300  0.2611  0.2831  0.2927
25251SOL    HW287479  11.957  11.332   4.353  0.1712 -0.7950  1.2868
25252SOL     OW87480   9.848   4.100   4.623 -0.3392 -0.5515  0.2713
25252SOL    HW187481   9.894   4.140   4.548 -0.6118  0.8213  0.8074
25252SOL    HW287482   9.902   4.123   4.698  0.1626 -2.2919  0.4800
25253SOL     OW87483   3.076   6.128   8.012 -0.1503  0.2737  0.1902
25253SOL    HW187484   3.024   6.140   8.091  0.1132  0.4687  0.3343
25253SOL    HW287485   3.166   6.126   8.042 -0.1202 -1.2663  0.0842
25254SOL     OW87486  13.394  10.165   4.348 -0.0645  0.0228 -0.3757
25254SOL    HW187487  13.405  10.123   4.434 -0.1546  0.8592  0.0566
25254SOL    HW287488  13.321  10.119   4.308 -0.7569  0.3663  0.4694
25255SOL     OW87489   3.444   5.809  12.445  0.4398 -0.8398  0.2560
25255SOL    HW187490   3.524   5.770  12.411  0.4301 -2.1168  1.5889
25255SOL    HW287491   3.472   5.863  12.519  0.3261  0.8649 -0.8957
25256SOL     OW87492   1.630   8.734  11.714  0.0628 -0.3449  0.5153
25256SOL    HW187493   1.637   8.650  11.759  1.6143 -0.5065  0.0406
25256SOL    HW287494   1.648   8.799  11.782 -0.6018 -0.4044  0.7614
25257SOL     OW87495  10.351   3.055   4.135  0.1157  0.1921 -0.3715
25257SOL    HW187496  10.406   2.981   4.158  0.3283  0.3464 -0.3850
25257SOL    HW287497  10.410   3.130   4.133 -0.4130  0.7439  1.6152
25258SOL     OW87498  13.268  11.116   7.377  0.0163  0.1206  0.0415
25258SOL    HW187499  13.309  11.106   7.463  0.2172  0.1265 -0.0518
25258SOL    HW287500  13.190  11.062   7.380  0.7579 -0.9973 -0.2486
25259SOL     OW87501  11.436   0.796   8.221 -0.5115 -0.3507  0.3982
25259SOL    HW187502  11.493   0.804   8.298 -1.3475  1.2361  0.8793
25259SOL    HW287503  11.489   0.747   8.158  1.3629  0.9582  0.8717
25260SOL     OW87504   5.939  11.984   3.362 -0.3356  0.1392  0.2965
25260SOL    HW187505   5.880  12.045   3.406 -0.1044 -0.2362  1.1423
25260SOL    HW287506   5.884  11.940   3.297 -0.7436  0.5086  0.3914
25261SOL     OW87507   1.374   3.970   7.402 -0.2579 -0.5843 -0.0059
25261SOL    HW187508   1.367   3.874   7.402 -2.6214 -0.4851  0.9416
25261SOL    HW287509   1.284   4.000   7.409  0.4166  1.7531 -0.5886
25262SOL     OW87510   2.836  11.432  10.442  0.0822 -0.6871 -0.4233
25262SOL    HW187511   2.818  11.358  10.500  1.3034 -0.2985  0.4996
25262SOL    HW287512   2.917  11.408  10.397  0.9566  0.3832  0.4894
25263SOL     OW87513  13.158   0.374  11.418  0.3204  0.1975  0.2216
25263SOL    HW187514  13.100   0.298  11.413  2.6783 -1.6987 -0.1581
25263SOL    HW287515  13.184   0.390  11.327  0.5870  0.8626  0.4106
25264SOL     OW87516   7.468   9.577  12.899  0.1887 -0.2901 -0.1042
25264SOL    HW187517   7.542   9.633  12.877 -0.3487  0.1037 -0.9341
25264SOL    HW287518   7.505   9.509  12.956  1.0805  0.1928 -0.1009
25265SOL     OW87519   0.702   8.606   9.877 -0.0441 -0.6413 -0.1247
25265SOL    HW187520   0.656   8.572   9.801 -2.1060  1.2609  0.1561
25265SOL    HW287521   0.741   8.688   9.846 -0.5296 -0.0730  0.7360
25266SOL     OW87522   8.855   0.386   2.754  0.4943 -0.0369  0.3953
25266SOL    HW187523   8.820   0.434   2.679 -0.5056 -0.9286  0.2614
25266SOL    HW287524   8.919   0.445   2.793  0.1230  0.9346 -0.4270
25267SOL     OW87525  11.228   1.867   0.276  0.1423 -0.4565 -0.4987
25267SOL    HW187526  11.256   1.944   0.225  0.7493 -0.9316 -0.8994
25267SOL    HW287527  11.133   1.876   0.282  0.3518  1.3337  1.1218
25268SOL     OW87528   7.998   6.222   6.091 -0.4443 -0.7603 -0.3688
25268SOL    HW187529   8.033   6.193   6.007  0.9900  0.1490 -0.1401
25268SOL    HW287530   7.978   6.315   6.077  2.4196  0.1806  0.9596
25269SOL     OW87531  11.968   3.480   9.950  0.5761  0.1579  0.1342
25269SOL    HW187532  11.987   3.512   9.861  0.5405  1.0121  0.4269
25269SOL    HW287533  11.971   3.385   9.942 -0.0160  0.2124 -0.9178
25270SOL     OW87534   8.671   3.470  12.026 -0.1534  0.2801  0.1025
25270SOL    HW187535   8.644   3.435  12.111  0.3227 -1.9573 -0.6017
25270SOL    HW287536   8.736   3.537  12.047 -0.4479  0.1666  1.4976
25271SOL     OW87537   0.219  11.849   2.217 -0.2809 -0.2415 -0.7272
25271SOL    HW187538   0.241  11.942   2.213  0.6639 -0.4456 -0.4878
25271SOL    HW287539   0.126  11.846   2.196 -0.1639  0.6847 -1.4308
25272SOL     OW87540   8.946   1.146  13.248  0.2500  0.2479  0.9785
25272SOL    HW187541   8.984   1.158  13.160 -1.1917 -0.2592  0.2558
25272SOL    HW287542   8.979   1.061  13.277 -1.9439 -1.2651 -0.5855
25273SOL     OW87543   8.317   2.535   7.709 -0.5747 -0.1899 -0.2202
25273SOL    HW187544   8.232   2.495   7.730 -0.1247 -0.7939  0.5239
25273SOL    HW287545   8.345   2.489   7.630  0.0867 -1.6407  0.8097
25274SOL     OW87546   8.866   5.061   5.749  0.2802  0.1544 -0.1245
25274SOL    HW187547   8.818   5.083   5.829 -0.0132 -1.4213  0.1672
25274SOL    HW287548   8.798   5.049   5.683  0.4683  0.6563 -0.4136
25275SOL     OW87549  11.501  12.897   2.859 -0.6444  0.1369 -0.5050
25275SOL    HW187550  11.447  12.921   2.783  0.7385 -1.2098 -2.0122
25275SOL    HW287551  11.591  12.907   2.828 -0.0518 -1.2347  0.6820
25276SOL     OW87552   6.921   7.469   7.386  0.3304  0.1929  0.4485
25276SOL    HW187553   6.867   7.478   7.307  2.2727 -1.5073 -1.2105
25276SOL    HW287554   7.006   7.504   7.361  1.2324 -1.1393  1.4955
25277SOL     OW87555  10.249   5.261   6.290  0.4389  0.4760  0.1401
25277SOL    HW187556  10.261   5.238   6.382 -0.0790 -0.9100 -0.1113
25277SOL    HW287557  10.338   5.259   6.254  0.6895  1.3894  0.6683
25278SOL     OW87558   6.933   0.904  12.781  0.1001 -0.3397  0.2786
25278SOL    HW187559   6.993   0.966  12.740  0.8275 -1.3618 -0.2203
25278SOL    HW287560   6.910   0.945  12.865  1.4671  0.0771  0.4684
25279SOL     OW87561   5.811  12.344   7.556  0.6923 -0.6321 -0.3745
25279SOL    HW187562   5.862  12.309   7.629 -0.6950 -0.9751  0.4623
25279SOL    HW287563   5.877  12.377   7.494  1.8927 -0.4839  0.9393
25280SOL     OW87564  11.835   6.082   4.117 -0.4396 -0.0179  0.3967
25280SOL    HW187565  11.906   6.121   4.167  0.2430  0.4482 -0.8799
25280SOL    HW287566  11.781   6.157   4.090  0.9469  0.1553 -2.1796
25281SOL     OW87567  11.669   4.938   2.442  0.7143 -0.1095  0.3038
25281SOL    HW187568  11.700   4.888   2.516  1.3567 -1.6095 -0.9224
25281SOL    HW287569  11.733   5.009   2.432  0.3035  0.4550  1.4913
25282SOL     OW87570   8.417  11.597   0.573 -0.7245 -0.7677  0.0776
25282SOL    HW187571   8.396  11.690   0.571 -0.5533 -0.7284  0.1711
25282SOL    HW287572   8.423  11.572   0.481 -0.3105 -0.5836  0.0519
25283SOL     OW87573  13.203  12.725   1.514 -0.0156  0.1458 -0.0841
25283SOL    HW187574  13.219  12.677   1.432  1.9520 -0.7223  0.7337
25283SOL    HW287575  13.235  12.666   1.582 -1.5819  0.8706  1.3409
25284SOL     OW87576   2.328  13.335   8.726  0.1488 -0.3440 -0.4603
25284SOL    HW187577   2.349  13.428   8.726 -0.4236 -0.2127 -0.1573
25284SOL    HW287578   2.409  13.292   8.698  0.7636  0.1560  0.5265
25285SOL     OW87579   3.793   6.010   4.552  0.6561  0.0027  0.0408
25285SOL    HW187580   3.785   6.054   4.467 -0.0708  0.5947  0.4097
25285SOL    HW287581   3.703   5.998   4.581  0.8133 -1.9302 -0.1338
25286SOL     OW87582   0.392   3.638   4.088 -0.3258  0.5522 -0.0816
25286SOL    HW187583   0.450   3.635   4.164  0.0241  1.8327 -0.2681
25286SOL    HW287584   0.434   3.700   4.028 -1.9064  1.5602 -0.2043
25287SOL     OW87585   2.573   1.351   1.465 -0.0048  0.1861 -0.7652
25287SOL    HW187586   2.644   1.414   1.471  0.2163 -0.1699  0.6106
25287SOL    HW287587   2.608   1.280   1.412  0.7884 -0.1250  0.1537
25288SOL     OW87588   8.624   7.530  10.916  0.2234 -0.1409  0.2138
25288SOL    HW187589   8.642   7.524  10.822  2.5862 -0.5991  0.6170
25288SOL    HW287590   8.557   7.597  10.924 -0.8606 -0.8884 -1.8726
25289SOL     OW87591   3.539  13.214   2.925  0.3287 -0.3802  0.6203
25289SOL    HW187592   3.611  13.273   2.948 -1.1445  1.0188  1.9431
25289SOL    HW287593   3.502  13.250   2.845  1.2134 -1.2467 -0.2018
25290SOL     OW87594   3.632  10.518  10.044  0.0990 -0.0953 -0.2290
25290SOL    HW187595   3.609  10.523  10.137 -1.8396 -0.0705 -0.6593
25290SOL    HW287596   3.631  10.425  10.024  0.2923 -0.0871 -0.2710
25291SOL     OW87597  10.101   7.437  13.529 -0.1658  0.3462  0.1679
25291SOL    HW187598  10.024   7.449  13.474 -0.3545 -0.6530  0.1957
25291SOL    HW287599  10.166   7.398  13.472  0.7296  2.2096 -0.1460
25292SOL     OW87600   1.788   9.072   0.309  0.1368  0.5248  0.4468
25292SOL    HW187601   1.848   9.108   0.243  0.6857 -0.0408  0.6319
25292SOL    HW287602   1.717   9.135   0.313  0.3478  0.8226 -0.3295
25293SOL     OW87603   0.437   3.210   9.873  0.9939 -0.1312 -0.3125
25293SOL    HW187604   0.452   3.256   9.791 -1.7886  3.5314  0.9615
25293SOL    HW287605   0.510   3.237   9.929  1.4357 -0.4529 -0.7191
25294SOL     OW87606   1.915   2.161   0.084 -0.5314  0.2408  0.8071
25294SOL    HW187607   1.850   2.107   0.040  1.9530 -0.1031 -2.8918
25294SOL    HW287608   1.916   2.243   0.034  0.5380  1.0030  2.0157
25295SOL     OW87609   7.389  11.103   1.759 -0.7905  0.4125  0.6141
25295SOL    HW187610   7.354  11.069   1.677  0.0921  1.6442 -0.3223
25295SOL    HW287611   7.465  11.047   1.777  0.1881  1.3019 -0.4993
25296SOL     OW87612  11.097   8.933  11.202  0.3887  0.4761  0.0747
25296SOL    HW187613  11.082   8.919  11.108  0.2057  1.5186 -0.0636
25296SOL    HW287614  11.162   9.003  11.206 -0.1324  0.9326  0.7291
25297SOL     OW87615   0.445   6.694   7.820 -0.2540 -0.1523 -0.1674
25297SOL    HW187616   0.374   6.759   7.818  0.0885  0.3201  1.5495
25297SOL    HW287617   0.438   6.654   7.907  0.3928 -1.4906 -0.6985
25298SOL     OW87618  11.714   3.827   6.796  0.1250  0.1934 -0.4727
25298SOL    HW187619  11.795   3.867   6.767  0.5286  0.5972  1.0899
25298SOL    HW287620  11.645   3.874   6.749  0.7578  0.2375 -1.3719
25299SOL     OW87621   8.504   2.299   7.638 -0.5026  0.1458  0.0183
25299SOL    HW187622   8.439   2.304   7.708 -2.3899 -1.5076 -1.4983
25299SOL    HW287623   8.538   2.209   7.641 -0.9443 -0.1027 -1.4182
25300SOL     OW87624  12.207   9.422   7.427  0.3780 -0.2970 -0.0146
25300SOL    HW187625  12.231   9.338   7.464  1.6914 -0.0520 -0.2521
25300SOL    HW287626  12.144   9.401   7.358 -0.8013 -0.8896  1.2144
25301SOL     OW87627   2.846  13.149  13.205 -0.1779 -0.2637 -0.3703
25301SOL    HW187628   2.855  13.076  13.267  1.6338  1.4588  1.5590
25301SOL    HW287629   2.924  13.142  13.149  0.9260  1.1009  0.9317
25302SOL     OW87630  11.844   5.898   3.002 -0.1271 -0.2214 -0.1823
25302SOL    HW187631  11.772   5.887   3.064  0.0422 -0.9056 -0.0954
25302SOL    HW287632  11.921   5.908   3.057 -0.2548  1.4611 -0.2556
25303SOL     OW87633   2.099   1.184   2.081 -0.0082 -0.1407  0.0811
25303SOL    HW187634   2.018   1.136   2.062  0.0411 -0.3916  0.5071
25303SOL    HW287635   2.166   1.116   2.089  0.1162  0.0203  0.4106
25304SOL     OW87636   2.784  11.652  13.270  0.0529 -0.0256 -0.3131
25304SOL    HW187637   2.859  11.709  13.287 -0.3161 -0.0406  1.5877
25304SOL    HW287638   2.709  11.700  13.307 -0.9033 -0.0033 -2.1742
25305SOL     OW87639   3.364   8.721  10.319 -0.2197 -0.2341 -1.0669
25305SOL    HW187640   3.287   8.681  10.277  0.6768  0.1125 -3.1683
25305SOL    HW287641   3.389   8.792  10.260  0.3467  1.1853  0.7778
25306SOL     OW87642   7.043   7.700   6.688  0.3237  0.3879 -0.2623
25306SOL    HW187643   7.009   7.639   6.623 -0.6367  0.9003 -0.2566
25306SOL    HW287644   7.079   7.773   6.637  0.9429  0.0892 -0.2546
25307SOL     OW87645   9.191  10.088  10.531 -0.0551 -0.1186  0.0661
25307SOL    HW187646   9.245  10.025  10.484  2.7115  2.0110  0.1844
25307SOL    HW287647   9.101  10.065  10.507  1.0078 -1.8680 -2.6616
25308SOL     OW87648   8.567   0.085   1.609 -0.5142 -0.3212 -0.0643
25308SOL    HW187649   8.547  -0.008   1.617  0.5076 -0.4973  0.6277
25308SOL    HW287650   8.482   0.127   1.600 -1.1870 -1.1073  1.9595
25309SOL     OW87651   1.569   7.601   4.739 -0.1679  0.1936  0.0167
25309SOL    HW187652   1.586   7.632   4.828 -0.1086  0.2415 -0.0113
25309SOL    HW287653   1.572   7.680   4.685 -1.3440  0.3291  0.1304
25310SOL     OW87654   4.814   9.985   1.824  0.4674 -0.4770  0.8128
25310SOL    HW187655   4.849   9.925   1.890  2.7018 -0.8326 -0.5714
25310SOL    HW287656   4.808   9.932   1.744  2.7168  1.0848 -0.5052
25311SOL     OW87657   0.012  11.592   0.916 -0.0179  0.4357  0.1899
25311SOL    HW187658   0.092  11.578   0.967  0.4782 -2.2791 -1.1508
25311SOL    HW287659   0.041  11.589   0.824 -1.2376  2.7551 -0.3729
25312SOL     OW87660  11.733   9.912   3.098 -0.2962 -0.4779 -0.2009
25312SOL    HW187661  11.668   9.876   3.038 -0.4050 -0.6885  0.0363
25312SOL    HW287662  11.702  10.000   3.117 -0.3079 -0.4419 -0.3836
25313SOL     OW87663   2.620  12.362   6.458  0.5705 -0.3528 -0.0711
25313SOL    HW187664   2.708  12.374   6.424  1.1739 -2.3740  0.6499
25313SOL    HW287665   2.631  12.305   6.534 -1.4389 -1.4025 -0.4993
25314SOL     OW87666   7.472   1.134   2.304 -0.2319 -0.1335  0.0373
25314SOL    HW187667   7.493   1.059   2.359 -0.6600  0.4313  0.9856
25314SOL    HW287668   7.429   1.097   2.227 -0.8017 -0.8291  0.6835
25315SOL     OW87669   4.711  10.755  11.706 -0.2715 -0.3081 -0.2009
25315SOL    HW187670   4.771  10.686  11.736 -0.5280  0.3202  1.9349
25315SOL    HW287671   4.768  10.825  11.676  0.0682 -0.2993  0.4382
25316SOL     OW87672   2.077   7.654   8.612  0.0168 -0.0450 -0.5591
25316SOL    HW187673   2.003   7.611   8.655  0.1444 -0.1877 -0.4801
25316SOL    HW287674   2.040   7.736   8.577  0.2592  0.8925  1.2545
25317SOL     OW87675   9.916   2.614   3.668 -0.2689 -0.5838 -0.6617
25317SOL    HW187676   9.930   2.707   3.683 -1.8381 -0.5846  1.2488
25317SOL    HW287677   9.824   2.600   3.692 -0.0567 -2.6104 -0.8894
25318SOL     OW87678  12.972   0.281   0.736 -0.0628 -0.2100 -0.1817
25318SOL    HW187679  13.049   0.226   0.748  0.7934  1.2691  1.6939
25318SOL    HW287680  12.998   0.367   0.771 -2.2495  0.6005 -0.3834
25319SOL     OW87681   6.479   3.101   1.117 -0.1948  0.1402 -0.2330
25319SOL    HW187682   6.485   3.093   1.022  1.0454  0.8728 -0.2356
25319SOL    HW287683   6.525   3.025   1.151  0.2130  0.3838 -0.2307
25320SOL     OW87684  13.089   9.645   3.396  0.2047  0.1415 -0.0633
25320SOL    HW187685  13.047   9.559   3.403  1.2118 -0.4226 -0.6669
25320SOL    HW287686  13.176   9.626   3.361  1.0190  1.2603  1.2635
25321SOL     OW87687   3.099  11.011   6.942  0.2179  0.5241 -0.1274
25321SOL    HW187688   3.049  11.092   6.947  1.2447  1.1516  0.3373
25321SOL    HW287689   3.105  10.980   7.032  2.3207  1.5242  0.1310
25322SOL     OW87690   9.193   7.695   9.366  0.4871  0.5312  0.2144
25322SOL    HW187691   9.129   7.762   9.344 -0.1036 -0.6208 -1.8001
25322SOL    HW287692   9.256   7.697   9.293  0.7225 -0.7570  0.3587
25323SOL     OW87693   5.487   2.845  10.492 -0.1948 -0.2320  0.1909
25323SOL    HW187694   5.563   2.795  10.465  0.8245  0.8558  0.9292
25323SOL    HW287695   5.476   2.825  10.585  0.5080  1.1828  0.6189
25324SOL     OW87696   4.915   0.618   0.473 -0.0505  0.6100  0.2384
25324SOL    HW187697   4.859   0.690   0.444  0.4781  0.4081 -1.4408
25324SOL    HW287698   4.963   0.653   0.547 -1.2975  1.2757  0.7676
25325SOL     OW87699   4.626  12.355  11.367  0.0719  0.3229 -0.0397
25325SOL    HW187700   4.539  12.322  11.344  1.2397 -2.8390 -0.4719
25325SOL    HW287701   4.623  12.448  11.344 -3.2978  0.4643  0.4349
25326SOL     OW87702   4.812  12.111  11.323  0.1019 -0.4539  0.1046
25326SOL    HW187703   4.867  12.131  11.248  0.4999 -1.2714  0.1701
25326SOL    HW287704   4.767  12.193  11.342  0.3035 -0.1320 -0.7683
25327SOL     OW87705  10.597   5.659   9.634 -0.2025 -0.3750 -0.2400
25327SOL    HW187706  10.685   5.653   9.598  0.6242  1.6311  1.2556
25327SOL    HW287707  10.556   5.575   9.613  0.8893 -0.1647 -3.8538
25328SOL     OW87708   8.199   0.773   7.508  0.1803  0.4778 -0.7017
25328SOL    HW187709   8.199   0.858   7.551 -2.0478  0.7363 -1.0934
25328SOL    HW287710   8.194   0.794   7.415  1.0164 -0.0940 -0.8832
25329SOL     OW87711   2.265   0.843   5.573  0.4659  0.3860  0.0125
25329SOL    HW187712   2.251   0.750   5.592 -0.6395  0.5178 -0.1164
25329SOL    HW287713   2.310   0.844   5.489 -0.3939 -0.0147 -0.4651
25330SOL     OW87714   8.632   4.931  10.760  0.4590  0.0807  0.6639
25330SOL    HW187715   8.544   4.892  10.758  0.1175  0.8510 -0.5398
25330SOL    HW287716   8.616   5.023  10.782  1.0330  0.0818  1.0785
25331SOL     OW87717  13.445   9.982  11.664 -0.5780 -0.1607  0.0199
25331SOL    HW187718  13.425  10.075  11.659 -1.7221 -0.3203  1.0124
25331SOL    HW287719  13.467   9.966  11.756 -0.1445 -0.8130 -0.1889
25332SOL     OW87720   8.022   4.058  13.148 -0.4517  0.0548 -0.2361
25332SOL    HW187721   7.929   4.042  13.133 -0.7736  0.5184  1.1732
25332SOL    HW287722   8.033   4.152  13.132 -0.1743 -0.0357 -0.6031
25333SOL     OW87723   5.306   4.734   7.455  0.7283  0.2028 -0.7277
25333SOL    HW187724   5.300   4.654   7.507 -1.0599  0.4959 -0.4142
25333SOL    HW287725   5.320   4.804   7.519  0.3773  0.3474 -0.8042
25334SOL     OW87726   4.637   0.235   2.773 -0.2971 -0.2308  0.0433
25334SOL    HW187727   4.557   0.287   2.769 -0.2851 -0.2994 -1.6379
25334SOL    HW287728   4.706   0.293   2.741  0.3241 -0.2387  1.2897
25335SOL     OW87729  13.168   0.778   7.112  0.7733  0.0794 -0.1366
25335SOL    HW187730  13.112   0.822   7.048 -0.3110 -2.4626 -1.0986
25335SOL    HW287731  13.238   0.738   7.060  0.3175 -1.3669  0.3087
25336SOL     OW87732   0.497   1.295   5.440 -0.5336  0.2713  0.1380
25336SOL    HW187733   0.572   1.255   5.483 -1.1936 -1.6780 -0.4517
25336SOL    HW287734   0.473   1.368   5.498  0.3064 -0.5820  1.6261
25337SOL     OW87735   5.027   1.730   6.321  0.1880 -0.3737  0.1043
25337SOL    HW187736   5.090   1.755   6.389  2.2179 -0.4415 -1.6670
25337SOL    HW287737   5.026   1.805   6.261  0.0554 -1.1849 -0.9249
25338SOL     OW87738   6.118   9.653  10.640 -0.3373  0.3724 -0.5187
25338SOL    HW187739   6.068   9.726  10.675  1.1150  0.6150  1.2019
25338SOL    HW287740   6.156   9.687  10.558 -1.1120  0.9321 -0.6488
25339SOL     OW87741   5.987   6.840  10.195  0.3689 -0.0186 -0.0727
25339SOL    HW187742   6.082   6.826  10.198  0.5209  0.7554 -1.0032
25339SOL    HW287743   5.961   6.840  10.287  1.5305  1.3943  0.2940
25340SOL     OW87744   3.013   5.261   8.567 -0.3194  0.0190 -0.0304
25340SOL    HW187745   2.951   5.190   8.550  0.1083 -0.4854  0.4765
25340SOL    HW287746   2.969   5.317   8.631  0.0058 -0.7228  0.8751
25341SOL     OW87747   0.264  11.153   4.091 -0.1751  0.0388 -0.0198
25341SOL    HW187748   0.358  11.170   4.090  0.0529 -1.0307  0.6604
25341SOL    HW287749   0.226  11.228   4.137  0.3080  0.6268 -0.5780
25342SOL     OW87750   8.434   8.718   4.509  0.3719 -0.7522 -0.4705
25342SOL    HW187751   8.404   8.742   4.422  0.7760 -1.1567 -0.7243
25342SOL    HW287752   8.521   8.757   4.516  0.9139 -1.8605 -0.7751
25343SOL     OW87753   9.130   5.599   6.979  0.5751 -0.6556  0.3190
25343SOL    HW187754   9.146   5.594   6.885 -2.6586 -0.1782 -0.3752
25343SOL    HW287755   9.185   5.671   7.009  0.6129  0.1119 -1.5017
25344SOL     OW87756   2.259   9.002  12.998  0.1273  0.2813 -0.5143
25344SOL    HW187757   2.280   9.080  13.051 -0.6661  0.1513  0.0031
25344SOL    HW287758   2.282   8.929  13.055  1.2000  0.1144 -1.1294
25345SOL     OW87759   6.495   7.534  11.504  0.0162  0.8190 -0.3719
25345SOL    HW187760   6.586   7.521  11.479 -0.2476 -0.8527 -0.5571
25345SOL    HW287761   6.482   7.477  11.580 -1.0041  0.6454 -0.6649
25346SOL     OW87762   2.745   5.977   4.793 -0.3615  0.3353 -0.4776
25346SOL    HW187763   2.672   5.916   4.802  0.3179 -0.3485  0.6864
25346SOL    HW287764   2.762   6.007   4.883  2.5005 -1.6229 -0.2467
25347SOL     OW87765   3.057   3.506   1.015 -0.2608  0.3394 -0.3773
25347SOL    HW187766   3.003   3.539   1.087  1.0685 -1.5468  1.6212
25347SOL    HW287767   3.105   3.582   0.983 -2.5704  1.6625 -0.8796
25348SOL     OW87768  13.180   7.406   2.793 -0.2233  0.1764  0.1976
25348SOL    HW187769  13.115   7.409   2.722 -0.9732  1.0190  0.8983
25348SOL    HW287770  13.237   7.481   2.777  0.5836 -0.5460 -0.3998
25349SOL     OW87771   7.648   3.613   0.205  0.7261 -0.3043 -0.4473
25349SOL    HW187772   7.625   3.600   0.113 -0.9739 -1.9762  0.1277
25349SOL    HW287773   7.564   3.629   0.248  1.1858 -1.8040  1.1196
25350SOL     OW87774   9.708   8.784   2.603 -0.0697  0.0765 -0.1275
25350SOL    HW187775   9.758   8.718   2.556  0.6654  1.3545 -1.2004
25350SOL    HW287776   9.754   8.795   2.686  0.7421  0.3884 -0.6137
25351SOL     OW87777   8.738   8.755   5.839 -0.4609  0.2305 -0.1382
25351SOL    HW187778   8.651   8.777   5.804 -1.2106 -0.1108  1.4136
25351SOL    HW287779   8.721   8.690   5.906  0.9517  0.5501  0.5683
25352SOL     OW87780  10.211   9.132   6.181 -0.4700 -0.2086 -0.0919
25352SOL    HW187781  10.228   9.214   6.227 -1.8408 -0.1105  0.2705
25352SOL    HW287782  10.211   9.155   6.089  2.5892 -0.4525 -0.2825
25353SOL     OW87783   5.970   6.727   6.525  0.1831 -0.1270 -0.2183
25353SOL    HW187784   5.909   6.672   6.476 -0.6057  0.8339 -0.3453
25353SOL    HW287785   6.057   6.699   6.494 -0.2854  0.8297 -2.6742
25354SOL     OW87786   2.929  11.475   1.481  0.2006  0.5879 -0.8596
25354SOL    HW187787   2.954  11.561   1.446  0.8957  0.0711 -1.6704
25354SOL    HW287788   2.952  11.413   1.411  1.3453 -0.4622  0.3902
25355SOL     OW87789  13.452   4.766   5.568  0.1406  0.4718 -0.5310
25355SOL    HW187790  13.451   4.777   5.663  0.3239  1.9168 -0.6677
25355SOL    HW287791  13.485   4.678   5.554 -0.4395  0.0202  0.7548
25356SOL     OW87792   0.538   7.126   9.187  0.2525 -0.5395  0.4307
25356SOL    HW187793   0.577   7.180   9.118  1.9224 -0.4654  1.3867
25356SOL    HW287794   0.458   7.172   9.211  1.8127  1.8040  1.5011
25357SOL     OW87795  12.315   0.073   8.592 -0.0374 -0.4004 -0.1468
25357SOL    HW187796  12.302  -0.020   8.609 -1.0725 -0.2051  0.2611
25357SOL    HW287797  12.384   0.099   8.653 -1.3212 -0.4487  1.4007
25358SOL     OW87798   6.109  10.278   8.812 -0.1742  0.1778  0.1423
25358SOL    HW187799   6.018  10.305   8.797 -0.9746 -1.8599  0.8750
25358SOL    HW287800   6.154  10.299   8.730 -1.2507  1.3853 -0.1785
25359SOL     OW87801  12.082   0.424   6.717 -0.3066 -0.1315  0.0748
25359SOL    HW187802  12.143   0.494   6.689 -0.6895  0.3441  0.4088
25359SOL    HW287803  12.089   0.424   6.812 -2.9006  1.8949  0.3906
25360SOL     OW87804   0.837   8.776   5.849  0.1967  0.7537  0.3726
25360SOL    HW187805   0.914   8.725   5.824 -0.3174 -0.0304  0.3633
25360SOL    HW287806   0.763   8.731   5.808 -0.3004  1.3483  0.5887
25361SOL     OW87807  11.965   5.754  10.617  0.3904  0.3020  0.0859
25361SOL    HW187808  11.904   5.706  10.673  0.8878  0.7306  1.0098
25361SOL    HW287809  11.908   5.806  10.560 -0.1400 -0.8202 -0.4458
25362SOL     OW87810  12.105   3.062  11.938  0.1412 -0.2476  0.0227
25362SOL    HW187811  12.168   3.112  11.990  0.0717 -1.0045  0.8400
25362SOL    HW287812  12.020   3.082  11.977 -0.1084  0.4754 -0.8438
25363SOL     OW87813  10.914   1.395   9.090 -0.7080  0.0591  0.4104
25363SOL    HW187814  10.926   1.424   9.180  0.9698 -0.2473  0.3351
25363SOL    HW287815  10.900   1.300   9.097 -0.9407  0.0927  0.3802
25364SOL     OW87816   5.949  10.337   4.061  0.3306  0.0486 -0.1894
25364SOL    HW187817   6.039  10.357   4.036  0.2644 -0.4296 -0.8205
25364SOL    HW287818   5.900  10.417   4.040  0.3143 -0.2733 -1.4064
25365SOL     OW87819  11.275   0.977  11.985  0.2809  0.3813 -0.5028
25365SOL    HW187820  11.278   0.956  11.892  0.6912 -0.7580 -0.2473
25365SOL    HW287821  11.348   0.928  12.023 -0.1959  0.4252  0.4935
25366SOL     OW87822  12.186   7.533   6.754 -0.2664 -0.2644 -0.3129
25366SOL    HW187823  12.132   7.573   6.822 -1.1804 -1.0154 -0.5706
25366SOL    HW287824  12.135   7.542   6.674 -0.2526 -1.4150 -0.4772
25367SOL     OW87825  13.094   8.691   2.607  0.1079 -0.6980  0.4128
25367SOL    HW187826  13.060   8.606   2.580  0.3320 -1.2601  1.8119
25367SOL    HW287827  13.073   8.750   2.534 -1.7528 -1.5320  0.2148
25368SOL     OW87828   8.173  12.045   3.858  0.1942  0.1825 -0.3297
25368SOL    HW187829   8.218  11.982   3.801  0.7750  0.0522  0.2545
25368SOL    HW287830   8.088  12.005   3.876  0.7369 -0.6928  0.4249
25369SOL     OW87831   8.020   1.177   8.857  0.6746 -0.2818 -0.1948
25369SOL    HW187832   8.075   1.118   8.909  0.0904  0.2669  1.1062
25369SOL    HW287833   8.042   1.265   8.890  0.2473  0.0750 -0.8410
25370SOL     OW87834   2.255   1.249   2.519  0.6999  0.4193  0.4063
25370SOL    HW187835   2.213   1.273   2.602  1.5523  1.3808  0.5753
25370SOL    HW287836   2.187   1.262   2.453  0.0730 -0.1557  0.9194
25371SOL     OW87837   9.921   7.888  11.569  0.3258 -0.4016  0.0000
25371SOL    HW187838   9.975   7.964  11.548 -0.9698  1.1247  1.9437
25371SOL    HW287839   9.973   7.839  11.633  0.1570  0.1303  0.5486
25372SOL     OW87840  13.632   2.803   3.540  0.1446 -0.2381 -0.0346
25372SOL    HW187841  13.583   2.861   3.483 -1.9861 -2.0425 -0.1664
25372SOL    HW287842  13.655   2.728   3.484 -0.0877 -1.0464  0.9185
25373SOL     OW87843   9.139   6.165  11.521 -0.0669 -0.3760 -0.5605
25373SOL    HW187844   9.232   6.155  11.502 -0.3845  0.9499 -3.4269
25373SOL    HW287845   9.118   6.093  11.580  3.1179  0.3789  1.7255
25374SOL     OW87846  13.476   1.725   3.778  0.4056  0.8106  0.5646
25374SOL    HW187847  13.483   1.816   3.748  0.6417  0.8821  0.8305
25374SOL    HW287848  13.425   1.730   3.858  0.6683  0.7457  0.7383
25375SOL     OW87849   5.177  13.703   6.508  0.1646  0.1460  0.0527
25375SOL    HW187850   5.192  13.646   6.432 -0.5317 -2.0536  1.4551
25375SOL    HW287851   5.110  13.764   6.478 -0.4690 -0.9905 -0.9760
25376SOL     OW87852   6.321  11.460   6.417  0.1535 -0.0052 -0.5742
25376SOL    HW187853   6.371  11.532   6.379  1.6020  0.0305  1.2583
25376SOL    HW287854   6.231  11.474   6.386  0.8560  1.1062 -2.2888
25377SOL     OW87855   2.530   2.096  11.369 -0.0249 -0.3147 -0.6471
25377SOL    HW187856   2.501   2.161  11.433  0.2801  0.6814 -1.4978
25377SOL    HW287857   2.622   2.081  11.391  0.2408  0.4626 -1.1979
25378SOL     OW87858   5.559  12.489   7.014 -0.1307  0.0157  0.1970
25378SOL    HW187859   5.571  12.440   6.933  1.0625  0.1893  0.2517
25378SOL    HW287860   5.491  12.554   6.994 -2.8031 -2.4958  0.5298
25379SOL     OW87861  11.647   9.228   4.676  0.5564  0.4838  0.1423
25379SOL    HW187862  11.685   9.140   4.671  0.3749  0.3864  0.4340
25379SOL    HW287863  11.718   9.282   4.710  0.6076  0.4083  0.1593
25380SOL     OW87864  10.556  10.611   2.231  0.6498 -0.5867  0.6690
25380SOL    HW187865  10.555  10.677   2.161  2.0236 -2.0391 -0.8131
25380SOL    HW287866  10.485  10.638   2.290 -0.5111  0.7707 -1.2116
25381SOL     OW87867   4.158   8.651  11.116  0.6059  0.0588 -0.4148
25381SOL    HW187868   4.247   8.634  11.148  1.6407  1.4209 -2.3704
25381SOL    HW287869   4.126   8.566  11.088  1.9170 -0.2338 -1.1075
25382SOL     OW87870   3.604  11.417  12.650 -0.4844 -0.5833  0.6151
25382SOL    HW187871   3.643  11.422  12.562 -1.0136  1.5146  0.4218
25382SOL    HW287872   3.569  11.329  12.656 -2.9430 -0.0334 -2.4723
25383SOL     OW87873   8.652   9.661   2.900  0.2578 -1.0716  0.5424
25383SOL    HW187874   8.633   9.600   2.828  1.9357  0.2238 -1.0734
25383SOL    HW287875   8.567   9.696   2.924 -0.3419 -1.4108 -0.9461
25384SOL     OW87876   1.225   7.904   6.052  0.3962  0.3954 -0.3060
25384SOL    HW187877   1.310   7.929   6.087  0.7958  0.2184 -1.1384
25384SOL    HW287878   1.179   7.866   6.128 -0.2906  3.6185  1.0368
25385SOL     OW87879   4.415   5.422   3.956 -0.0500 -0.1130 -0.0871
25385SOL    HW187880   4.355   5.495   3.944 -2.2582 -1.6827  0.7669
25385SOL    HW287881   4.425   5.384   3.869  0.5789  0.7393 -0.4125
25386SOL     OW87882   5.755   0.040  11.925 -0.4751 -0.0630  0.3131
25386SOL    HW187883   5.772   0.082  11.841  0.1214 -1.0129 -0.0532
25386SOL    HW287884   5.660   0.046  11.936 -0.3079  2.8077  1.0503
25387SOL     OW87885   7.369   6.914   8.552  0.2228  0.3374  0.2368
25387SOL    HW187886   7.436   6.845   8.549 -1.0583 -1.1522 -4.7681
25387SOL    HW287887   7.299   6.878   8.605  0.5763 -1.1848 -0.2804
25388SOL     OW87888   3.093   7.803  12.867 -0.0122  0.1861  0.4130
25388SOL    HW187889   3.021   7.758  12.822 -0.4075  1.8509 -0.7412
25388SOL    HW287890   3.073   7.896  12.855  0.5635  0.7208  3.0009
25389SOL     OW87891  11.840   4.738   5.569 -0.0563  0.3879  0.3717
25389SOL    HW187892  11.827   4.663   5.511  0.7516 -0.2922  1.0378
25389SOL    HW287893  11.792   4.810   5.528 -0.0534 -0.2513 -0.7752
25390SOL     OW87894   4.798   5.122  11.762 -0.2457  0.5368 -0.0706
25390SOL    HW187895   4.715   5.083  11.734 -0.5762  0.9175  0.3807
25390SOL    HW287896   4.840   5.148  11.680 -0.5740  0.3509 -0.3009
25391SOL     OW87897   9.260   7.446   8.711 -0.7260  0.9192 -0.1198
25391SOL    HW187898   9.280   7.530   8.753  1.4573 -0.6518  2.3074
25391SOL    HW287899   9.251   7.467   8.618  0.3690  3.7254  0.3093
25392SOL     OW87900   1.610   4.660   6.382  0.7708  0.0579  0.5499
25392SOL    HW187901   1.579   4.741   6.343  0.3510 -0.6086 -0.5609
25392SOL    HW287902   1.618   4.599   6.308  0.3374 -1.1341  1.4424
25393SOL     OW87903   9.590   8.340   9.675 -0.0437 -0.6253  0.3869
25393SOL    HW187904   9.658   8.279   9.705  0.4862  0.5769  1.7521
25393SOL    HW287905   9.639   8.412   9.636 -0.5849 -0.2759  0.3513
25394SOL     OW87906   8.743   0.263  13.272 -0.7787 -0.3427  0.1088
25394SOL    HW187907   8.823   0.292  13.316 -1.6613  3.0600 -0.2627
25394SOL    HW287908   8.675   0.269  13.339 -1.1931 -0.5486 -0.2887
25395SOL     OW87909   5.354   3.819  13.725 -0.4410  0.1285 -0.4191
25395SOL    HW187910   5.399   3.754  13.672  0.7417  0.3644  0.2668
25395SOL    HW287911   5.352   3.781  13.813 -2.6364 -0.3930 -0.6189
25396SOL     OW87912   4.950  13.570  11.102  0.3053  0.1480 -0.0299
25396SOL    HW187913   4.913  13.623  11.032  1.1825  2.0661  0.8884
25396SOL    HW287914   4.878  13.558  11.164 -0.4804 -1.5738 -1.1790
25397SOL     OW87915   5.779   8.531  13.520 -0.6558 -0.9585  0.2862
25397SOL    HW187916   5.846   8.527  13.453 -1.5370 -2.3727 -0.5479
25397SOL    HW287917   5.727   8.452  13.509 -2.6196  0.1656  0.7510
25398SOL     OW87918   9.074   9.829   9.117  0.7685  0.2468 -0.3523
25398SOL    HW187919   9.153   9.857   9.164 -0.4635 -0.0426  2.0424
25398SOL    HW287920   9.045   9.751   9.164 -0.1473 -0.5424 -2.1294
25399SOL     OW87921   9.809   3.773   3.272 -0.5295 -0.2169  0.4715
25399SOL    HW187922   9.839   3.739   3.356 -0.3416 -0.4757  0.3016
25399SOL    HW287923   9.771   3.858   3.292 -1.3807 -0.7006  0.9599
25400SOL     OW87924   0.725   5.996   6.874  0.9442 -0.4384  0.4267
25400SOL    HW187925   0.643   5.947   6.874  0.1308  0.7146 -2.7981
25400SOL    HW287926   0.793   5.929   6.884 -0.2515 -1.3559  3.8708
25401SOL     OW87927  12.692   9.952   9.901  0.0204 -0.3987  0.0437
25401SOL    HW187928  12.761   9.901   9.943  0.8392 -0.1528 -0.9377
25401SOL    HW287929  12.714  10.043   9.920 -1.6390 -0.3639  2.0963
25402SOL     OW87930   9.519   1.485   7.728 -0.1781 -0.2886 -0.0614
25402SOL    HW187931   9.582   1.435   7.780  2.0006  2.8508  0.6216
25402SOL    HW287932   9.548   1.473   7.637  0.1769 -0.4752  0.0736
25403SOL     OW87933   2.323  12.532   2.020  0.1591  0.0157 -0.1674
25403SOL    HW187934   2.297  12.513   2.110 -1.0726  1.3318 -0.2127
25403SOL    HW287935   2.252  12.586   1.985  1.9120  1.8991 -1.0396
25404SOL     OW87936   1.746   8.295   7.530 -0.0756 -0.0527  0.0682
25404SOL    HW187937   1.661   8.250   7.529 -0.9856  1.5458  1.0382
25404SOL    HW287938   1.805   8.233   7.573 -0.7500 -1.1646 -0.5446
25405SOL     OW87939  11.832   3.436   5.026  0.5911 -0.0755  0.2226
25405SOL    HW187940  11.854   3.514   4.975  1.2069  0.2916  1.0348
25405SOL    HW287941  11.816   3.369   4.960 -1.9615  1.1945 -0.5844
25406SOL     OW87942   5.539   9.149  10.219  0.1658 -0.2004  0.2448
25406SOL    HW187943   5.621   9.194  10.237 -0.1287  1.1074 -1.3476
25406SOL    HW287944   5.495   9.204  10.154 -0.9497 -2.0147 -0.6491
25407SOL     OW87945  12.013   9.197   3.239  0.2641 -0.0687 -0.1492
25407SOL    HW187946  11.926   9.169   3.209  0.1342 -0.6442  0.7150
25407SOL    HW287947  12.072   9.165   3.171 -0.0805 -0.8445 -0.1062
25408SOL     OW87948   8.003   3.549   0.873 -0.3357 -0.4012 -0.1162
25408SOL    HW187949   8.017   3.456   0.854  1.3272  0.0310 -1.1902
25408SOL    HW287950   7.909   3.562   0.861 -0.5569 -1.8856 -0.1784
25409SOL     OW87951  12.554   4.901  10.078 -0.5687  0.2186  0.1290
25409SOL    HW187952  12.537   4.921  10.170 -0.7281  1.0883 -0.0809
25409SOL    HW287953  12.649   4.903  10.070 -0.5730  0.7093  0.1576
25410SOL     OW87954   0.347  13.464   1.801 -0.1674  0.3758 -0.2728
25410SOL    HW187955   0.286  13.538   1.800 -0.1510  0.4287  0.8446
25410SOL    HW287956   0.307  13.402   1.861  0.8823  0.4213  0.5036
25411SOL     OW87957   2.496   1.431   0.800 -0.4159  0.2208 -0.3352
25411SOL    HW187958   2.464   1.520   0.814  0.7769  0.4946  0.9430
25411SOL    HW287959   2.560   1.438   0.729 -0.8836  0.2450 -0.7518
25412SOL     OW87960  11.991   6.332   2.927  0.2557 -0.8777 -0.4945
25412SOL    HW187961  11.907   6.291   2.946  0.0465  0.3108  1.3247
25412SOL    HW287962  11.971   6.396   2.858 -0.4200 -0.3280  0.1991
25413SOL     OW87963   7.857   0.775  11.277  0.4369  0.4579  0.0736
25413SOL    HW187964   7.781   0.718  11.271  0.7817  0.0517 -0.6905
25413SOL    HW287965   7.831   0.856  11.232 -0.1284  1.0119  1.3540
25414SOL     OW87966   9.527   1.346   6.567 -0.2699  0.3179  0.2570
25414SOL    HW187967   9.467   1.311   6.633 -0.2730  0.0552  0.1177
25414SOL    HW287968   9.598   1.385   6.618  0.4815 -1.1889  0.4227
25415SOL     OW87969   0.768   8.196   0.087 -0.3049  0.5862 -0.3732
25415SOL    HW187970   0.767   8.231  -0.002  1.1875  0.7107 -0.3547
25415SOL    HW287971   0.858   8.166   0.101 -1.0882 -1.6959  0.2289
25416SOL     OW87972  10.224  13.073   4.691  0.2117 -0.3347  0.4096
25416SOL    HW187973  10.262  13.148   4.644 -1.1700  1.3436  1.8176
25416SOL    HW287974  10.276  12.998   4.662  3.6394  1.5505  1.1211
25417SOL     OW87975   9.117   1.030  11.288  0.0253 -0.4106 -0.4599
25417SOL    HW187976   9.185   1.092  11.260  1.6778 -1.3636  1.2160
25417SOL    HW287977   9.130   1.021  11.383 -0.5107 -2.8625 -0.5482
25418SOL     OW87978   3.781   7.998   6.839 -0.3156 -0.0905 -0.2812
25418SOL    HW187979   3.852   7.995   6.775 -0.7979 -0.3446 -0.8142
25418SOL    HW287980   3.791   7.917   6.890  0.7962  0.6817  0.7801
25419SOL     OW87981   2.273  10.333  10.619 -0.1451  0.3261  0.3471
25419SOL    HW187982   2.230  10.321  10.704  0.4139  0.7548  0.6942
25419SOL    HW287983   2.200  10.339  10.557 -0.5625  0.0416  0.7962
25420SOL     OW87984   8.788  12.359   5.901  0.7689  0.9764 -0.0836
25420SOL    HW187985   8.708  12.320   5.937  1.2089  2.8693  3.4370
25420SOL    HW287986   8.845  12.284   5.883 -1.5356 -0.3936 -2.3159
25421SOL     OW87987  10.508   0.757  11.704  0.7886  0.0117  0.1990
25421SOL    HW187988  10.586   0.756  11.649 -0.0458 -1.6661 -1.0931
25421SOL    HW287989  10.482   0.849  11.708  1.8437  0.3764 -0.8144
25422SOL     OW87990  11.077   0.728  12.850 -0.2524  0.3788  0.7388
25422SOL    HW187991  11.123   0.809  12.874 -1.1466  1.0503  0.2150
25422SOL    HW287992  11.126   0.693  12.776 -0.8216  1.3204 -0.0930
25423SOL     OW87993   0.149   0.166  13.552 -0.5050  0.6059 -0.8070
25423SOL    HW187994   0.121   0.083  13.513 -0.7404  0.8051 -1.0613
25423SOL    HW287995   0.244   0.156  13.563 -0.8201 -0.6854  1.5009
25424SOL     OW87996   5.360   8.215   3.401  0.5504 -0.2826 -0.3094
25424SOL    HW187997   5.343   8.229   3.308 -2.6345 -0.4199  0.1160
25424SOL    HW287998   5.310   8.135   3.422  1.3247 -0.3389  1.4946
25425SOL     OW87999   8.712   4.027  13.071 -0.0052 -0.0359 -0.0611
25425SOL    HW188000   8.802   4.028  13.104 -0.6192  0.9840  1.7144
25425SOL    HW288001   8.695   4.117  13.045 -0.2847 -0.3826 -1.1412
25426SOL     OW88002  12.555   0.693   2.727 -0.2755  0.2469 -0.6425
25426SOL    HW188003  12.578   0.786   2.739 -0.8643  0.2581  0.6181
25426SOL    HW288004  12.556   0.658   2.816 -0.7168 -0.8082 -1.0485
25427SOL     OW88005   9.849   8.656   7.495  0.0140  0.1168  0.6993
25427SOL    HW188006   9.941   8.630   7.498 -0.1386 -0.3758  1.8240
25427SOL    HW288007   9.834   8.700   7.579 -1.3745 -2.1042  1.7249
25428SOL     OW88008   9.511   0.004   5.667  1.3749 -0.4562  0.4369
25428SOL    HW188009   9.493  -0.042   5.585  1.4146  0.6347 -0.2021
25428SOL    HW288010   9.448  -0.032   5.729  1.6547 -1.6329  0.0665
25429SOL     OW88011   4.550   1.949   3.637 -0.4399 -0.3448 -0.3381
25429SOL    HW188012   4.636   1.973   3.669 -2.3148  3.1087  2.8515
25429SOL    HW288013   4.525   1.872   3.688  0.6316 -1.3746 -1.2990
25430SOL     OW88014   7.411   6.310   5.669 -0.0875  0.7650  0.6135
25430SOL    HW188015   7.352   6.369   5.716 -0.4140  0.9912 -0.0630
25430SOL    HW288016   7.354   6.242   5.635 -0.0454  1.2663 -0.4881
25431SOL     OW88017   7.100  12.901  11.984 -0.2300 -0.0209 -0.4884
25431SOL    HW188018   7.082  12.834  11.918 -0.4600 -0.1026 -0.3417
25431SOL    HW288019   7.026  12.961  11.978  1.4384  2.0303 -2.8341
25432SOL     OW88020   4.423  10.239  10.204 -1.0514  0.0724 -0.4371
25432SOL    HW188021   4.366  10.177  10.250 -1.0079 -0.4046 -1.0145
25432SOL    HW288022   4.433  10.312  10.266 -1.5458 -0.2448  0.0339
25433SOL     OW88023   2.472  10.243   2.609 -0.0642 -0.7661  0.2169
25433SOL    HW188024   2.514  10.330   2.606 -0.8447 -0.3128  1.7181
25433SOL    HW288025   2.543  10.183   2.633  0.0087 -0.1880  1.5118
25434SOL     OW88026   1.139  13.331   6.381 -0.3565 -0.0268 -0.5707
25434SOL    HW188027   1.044  13.331   6.367 -0.1592  0.3115 -2.1176
25434SOL    HW288028   1.160  13.423   6.398 -0.4878 -0.3274  1.4685
25435SOL     OW88029   7.082  11.546   0.581 -0.2627  0.3937 -0.1067
25435SOL    HW188030   7.151  11.497   0.536 -0.6194 -1.1603  0.9861
25435SOL    HW288031   7.096  11.637   0.552  2.3477  0.1816  0.1942
25436SOL     OW88032   5.875   2.269  10.938  0.0264 -0.4308 -0.0992
25436SOL    HW188033   5.940   2.277  11.007 -0.5216 -0.7240  0.4633
25436SOL    HW288034   5.926   2.267  10.857  1.0434 -3.9166  0.4587
25437SOL     OW88035  11.598  11.596   1.325  0.0749 -0.2981  0.0271
25437SOL    HW188036  11.573  11.545   1.402 -2.5903 -1.0170 -1.2063
25437SOL    HW288037  11.532  11.666   1.319  1.7037  1.2986 -0.2283
25438SOL     OW88038   2.549   8.331  10.178 -0.2136  0.3523  0.0083
25438SOL    HW188039   2.486   8.401  10.191  0.9073  1.5668 -0.7639
25438SOL    HW288040   2.538   8.274  10.253 -2.0734  0.6283 -0.0109
25439SOL     OW88041   3.702  13.193   9.597  0.3780 -0.4517  0.3169
25439SOL    HW188042   3.763  13.263   9.574  0.7677 -0.7340  0.4734
25439SOL    HW288043   3.649  13.229   9.668 -0.0643  0.0177 -0.2450
25440SOL     OW88044   0.600   5.845   5.742  0.4725  0.5569  0.0356
25440SOL    HW188045   0.508   5.859   5.762  0.2816 -0.0300 -0.3832
25440SOL    HW288046   0.603   5.756   5.705  1.3024  0.2947  0.6928
25441SOL     OW88047   0.520   7.210   6.791 -0.0872 -0.2390  0.1828
25441SOL    HW188048   0.490   7.292   6.753 -0.5215 -1.1412 -1.5141
25441SOL    HW288049   0.609   7.229   6.821  0.3623  0.4782 -1.5080
25442SOL     OW88050  12.003   1.639   2.501  0.0942  0.2649  0.4697
25442SOL    HW188051  12.069   1.579   2.535 -0.1253 -0.0966  0.2602
25442SOL    HW288052  11.956   1.670   2.579 -0.7896 -1.0089  0.4720
25443SOL     OW88053   7.157   7.688   0.524  0.1900  0.7071  0.2677
25443SOL    HW188054   7.213   7.746   0.472  1.3476 -0.1413  0.5269
25443SOL    HW288055   7.217   7.640   0.580 -0.8943  0.3939  1.2031
25444SOL     OW88056   9.634  11.100   5.147  0.5486  0.3360  0.2097
25444SOL    HW188057   9.622  11.173   5.208 -0.6894 -0.6449  1.1791
25444SOL    HW288058   9.580  11.030   5.182 -1.9717  0.3607 -3.1445
25445SOL     OW88059   8.622   6.187   6.985 -0.1936 -0.1057 -0.2587
25445SOL    HW188060   8.538   6.202   7.027  0.5475 -0.3716  1.4054
25445SOL    HW288061   8.679   6.256   7.020  0.7118 -0.9596 -0.0145
25446SOL     OW88062   3.988   0.688   8.652  0.0750  0.1544 -0.5579
25446SOL    HW188063   3.988   0.763   8.592  2.1703  1.6366  1.0899
25446SOL    HW288064   3.907   0.698   8.702  0.4750  1.5945 -0.1293
25447SOL     OW88065   3.808  11.275   3.891  0.0668  0.3219  0.6444
25447SOL    HW188066   3.713  11.289   3.895 -0.1552 -1.2554  2.1378
25447SOL    HW288067   3.846  11.348   3.940 -0.3785  0.8699  0.1804
25448SOL     OW88068  10.019   2.011   1.242  0.4818  0.0225  0.4297
25448SOL    HW188069  10.004   1.917   1.231 -1.3345  0.5332 -2.6825
25448SOL    HW288070   9.936   2.052   1.217  0.7431  2.4737  3.0711
25449SOL     OW88071   1.767   1.789   0.920  0.4127 -0.0874  0.1030
25449SOL    HW188072   1.688   1.779   0.868  0.1795  1.2393  0.1690
25449SOL    HW288073   1.758   1.725   0.991 -0.3126 -0.3461 -0.2162
25450SOL     OW88074  10.407   6.088   6.746  0.0382  0.3574  0.2311
25450SOL    HW188075  10.426   6.174   6.784 -0.5145 -0.1562  1.7512
25450SOL    HW288076  10.399   6.104   6.652 -0.1159  1.9796  0.4970
25451SOL     OW88077  11.959   9.849   2.811  0.3250 -0.4184  0.1461
25451SOL    HW188078  11.935   9.806   2.729 -0.0992 -0.6816  0.4087
25451SOL    HW288079  11.886   9.906   2.831  0.8959  0.4646 -0.2119
25452SOL     OW88080   8.301   6.169  10.838  0.3433 -0.4659  0.1723
25452SOL    HW188081   8.336   6.232  10.900 -1.7388  1.3821 -0.4044
25452SOL    HW288082   8.206   6.173  10.850 -0.1049 -0.5190 -2.6059
25453SOL     OW88083   1.893  12.474   8.349 -0.0814  0.0962 -0.0845
25453SOL    HW188084   1.987  12.489   8.338  0.0900 -0.6848  0.2087
25453SOL    HW288085   1.886  12.421   8.429 -0.8713  1.1504  0.5730
25454SOL     OW88086   5.213   8.198  11.110  0.0939 -0.3942 -0.3133
25454SOL    HW188087   5.275   8.241  11.051  0.4990  0.1278  0.4719
25454SOL    HW288088   5.248   8.110  11.122  1.1621  0.1410  0.7553
25455SOL     OW88089   3.712  13.133  11.033 -0.5108  0.0862 -0.0870
25455SOL    HW188090   3.672  13.158  10.950  1.1448  1.0142 -0.6335
25455SOL    HW288091   3.748  13.214  11.069  0.1401 -0.5648  0.7876
25456SOL     OW88092   1.254   0.387   8.608  0.5386 -0.2691 -0.3227
25456SOL    HW188093   1.183   0.355   8.663 -0.5087  1.2431 -0.7212
25456SOL    HW288094   1.210   0.421   8.530  1.5344  1.9217 -0.0004
25457SOL     OW88095  12.093   1.699  11.042 -0.8000 -0.2278 -0.0923
25457SOL    HW188096  12.084   1.629  10.978  0.1368 -0.5746  0.1281
25457SOL    HW288097  12.029   1.678  11.110 -0.9816 -0.5043 -0.3460
25458SOL     OW88098   8.952   0.952  13.718  0.7883 -0.6174 -0.6536
25458SOL    HW188099   8.966   0.928  13.810  0.3175 -0.3335 -0.5054
25458SOL    HW288100   8.901   1.033  13.721  0.0343 -1.0505 -1.1612
25459SOL     OW88101   1.747   4.723   2.935 -0.7953  0.3113 -0.2770
25459SOL    HW188102   1.673   4.781   2.956  0.7458  1.4694  2.3851
25459SOL    HW288103   1.722   4.638   2.971 -0.2770  1.0748  2.0244
25460SOL     OW88104   7.952  13.563   8.403  0.0491 -0.3528  0.6955
25460SOL    HW188105   8.044  13.567   8.431  0.1549 -0.9651  0.4454
25460SOL    HW288106   7.927  13.655   8.394  0.7887 -0.1790  0.2720
25461SOL     OW88107   1.847   6.143   7.407 -0.0245 -0.2088 -0.1533
25461SOL    HW188108   1.767   6.172   7.449 -0.0746  0.4712 -0.7046
25461SOL    HW288109   1.828   6.146   7.313  0.7691  0.3466 -0.3038
25462SOL     OW88110  11.302  11.783   7.301  0.1705 -0.0779 -0.2505
25462SOL    HW188111  11.359  11.859   7.311 -2.1508  1.9157 -1.1021
25462SOL    HW288112  11.242  11.789   7.375 -0.4002 -0.7707 -0.6495
25463SOL     OW88113  11.236  12.079   4.520 -0.3924  0.0873  0.9475
25463SOL    HW188114  11.309  12.141   4.518 -0.5348  0.2428  0.7181
25463SOL    HW288115  11.279  11.994   4.531 -0.1589  0.1497  0.5433
25464SOL     OW88116   4.086  13.576   4.818  0.0436  1.0657  0.3407
25464SOL    HW188117   4.086  13.491   4.775  0.3401  1.5282 -0.6028
25464SOL    HW288118   4.146  13.629   4.766 -1.9620  2.5684 -0.5501
25465SOL     OW88119  13.191   0.539   3.998  0.4364 -0.8267 -0.0939
25465SOL    HW188120  13.140   0.618   4.014 -0.1978 -1.4829  1.2656
25465SOL    HW288121  13.277   0.571   3.971 -0.2755  0.2976 -1.1423
25466SOL     OW88122   4.793   0.692   0.933  0.1240  0.1966  0.2573
25466SOL    HW188123   4.709   0.672   0.892  0.1857  0.1126  0.1706
25466SOL    HW288124   4.817   0.779   0.899  0.6636 -0.2947 -0.6914
25467SOL     OW88125   6.209   7.524  13.334 -0.3240 -0.1019  0.0677
25467SOL    HW188126   6.148   7.480  13.393 -1.9552  2.3905  0.3843
25467SOL    HW288127   6.175   7.507  13.247 -0.1827 -0.5205  0.0902
25468SOL     OW88128  10.007   7.937   2.438  0.5552  0.6838  0.3439
25468SOL    HW188129   9.982   7.868   2.376 -0.5158  0.6489  0.8029
25468SOL    HW288130  10.086   7.976   2.399  0.1052  0.4354 -0.8601
25469SOL     OW88131  10.820   2.268   0.313  0.1528  0.2676 -0.4423
25469SOL    HW188132  10.791   2.349   0.353 -1.1536 -0.9810  1.3075
25469SOL    HW288133  10.912   2.283   0.291  0.8289  1.2321  2.6271
25470SOL     OW88134   3.985   1.063   9.194 -0.1800 -0.1475  0.0055
25470SOL    HW188135   3.966   1.145   9.240 -0.7544  0.2579 -0.9392
25470SOL    HW288136   4.062   1.082   9.141 -1.4955  0.4304 -1.7841
25471SOL     OW88137  11.917   7.818  11.745 -0.0326  0.0070 -0.1502
25471SOL    HW188138  11.941   7.728  11.768 -0.7704  0.1696  1.4340
25471SOL    HW288139  11.923   7.866  11.827 -2.2694  0.7915 -0.3687
25472SOL     OW88140  13.619   0.144  13.682 -0.1121 -0.5329  0.1369
25472SOL    HW188141  13.624   0.237  13.700  1.8571 -0.7781  1.0905
25472SOL    HW288142  13.621   0.137  13.587 -0.3778  0.3843  0.0547
25473SOL     OW88143  10.360  11.246   0.254 -0.6373 -0.3936  0.7515
25473SOL    HW188144  10.358  11.317   0.318 -0.6842 -0.2493  0.5924
25473SOL    HW288145  10.444  11.258   0.208 -0.9360 -0.0440  0.2840
25474SOL     OW88146   0.512   1.570   0.162  0.3155  0.3360 -0.1719
25474SOL    HW188147   0.515   1.587   0.068  0.1420 -0.3259 -0.3012
25474SOL    HW288148   0.533   1.654   0.202 -0.0216  0.7263 -0.7983
25475SOL     OW88149   7.477   0.096   2.079 -0.4468 -0.5362  0.2020
25475SOL    HW188150   7.404   0.104   2.142 -0.9064  0.7950 -0.4625
25475SOL    HW288151   7.509   0.186   2.069  0.2466 -0.8846 -0.7412
25476SOL     OW88152  12.690   1.400   2.481  1.0788  0.0777  0.6150
25476SOL    HW188153  12.700   1.307   2.505 -1.7408 -0.3755  0.3292
25476SOL    HW288154  12.670   1.443   2.564  3.7327  0.7535  0.9871
25477SOL     OW88155   0.202   9.757   4.991 -0.4724 -0.1880  0.2198
25477SOL    HW188156   0.260   9.692   5.032  2.6966  0.8172 -2.2499
25477SOL    HW288157   0.215   9.836   5.044  0.3351 -0.0158 -0.2174
25478SOL     OW88158   8.441   6.145   8.011  0.1867  0.2282 -0.5239
25478SOL    HW188159   8.473   6.082   7.946  0.6330  0.2726 -0.3497
25478SOL    HW288160   8.519   6.171   8.060 -0.0517  0.6538 -0.3634
25479SOL     OW88161  12.417   2.640   3.352 -0.0181 -0.0211  0.4475
25479SOL    HW188162  12.338   2.596   3.322  0.7885 -0.7854 -0.6263
25479SOL    HW288163  12.464   2.574   3.403  1.4005 -0.6370 -1.5269
25480SOL     OW88164   4.631   4.815  12.272  0.6140 -0.1939  0.0060
25480SOL    HW188165   4.623   4.727  12.310  0.5560 -1.2658 -2.3167
25480SOL    HW288166   4.570   4.814  12.199  1.0451  1.6110 -0.4051
25481SOL     OW88167  12.805  10.208  11.517  0.2012  0.5407 -0.2986
25481SOL    HW188168  12.859  10.144  11.469 -0.6651 -0.3040 -0.1867
25481SOL    HW288169  12.865  10.246  11.581  1.1634  1.0651 -1.4696
25482SOL     OW88170   5.503   9.140   5.027  0.9237  0.2777 -0.6865
25482SOL    HW188171   5.534   9.165   4.939  1.2894  1.0857 -0.3461
25482SOL    HW288172   5.485   9.224   5.070 -2.1458 -0.1239 -0.9741
25483SOL     OW88173   1.176  10.058   9.541 -0.0953  0.2296 -0.1165
25483SOL    HW188174   1.225  10.019   9.613  2.4347  2.7048 -0.3133
25483SOL    HW288175   1.094  10.088   9.581  0.2050 -0.5881  1.1534
25484SOL     OW88176   8.941   0.330   3.094  0.3246  0.1047 -0.1206
25484SOL    HW188177   8.848   0.352   3.095  0.3928  0.3996  0.8848
25484SOL    HW288178   8.943   0.236   3.077 -0.0985  0.2892 -1.2772
25485SOL     OW88179   3.178   2.775  12.457  0.1676 -0.1458  0.9038
25485SOL    HW188180   3.225   2.808  12.534  0.0847 -0.3940  1.0617
25485SOL    HW288181   3.193   2.681  12.458  1.5635  0.0302 -0.3371
25486SOL     OW88182   4.912  10.328   7.970  0.0541  0.0769  0.3195
25486SOL    HW188183   4.880  10.304   7.883  0.0884  0.0722  0.3083
25486SOL    HW288184   4.864  10.270   8.030  0.1973 -0.0761  0.2869
25487SOL     OW88185   2.661  11.723   4.008  0.3550 -0.0888  0.1940
25487SOL    HW188186   2.640  11.666   4.082 -2.5128  1.0014  0.3622
25487SOL    HW288187   2.675  11.662   3.935 -0.2198 -1.1113  0.9013
25488SOL     OW88188  10.916   5.736   3.822  0.0075 -0.6527  0.1480
25488SOL    HW188189  10.906   5.792   3.899 -0.0330 -0.1528 -0.2128
25488SOL    HW288190  10.855   5.772   3.758  0.6495 -0.5360 -0.4106
25489SOL     OW88191   7.453   4.241  13.735 -0.2118  0.0277  0.1334
25489SOL    HW188192   7.418   4.153  13.721 -1.0064  0.3540  0.0112
25489SOL    HW288193   7.534   4.227  13.783 -1.0971 -0.6916  1.4907
25490SOL     OW88194   6.308   4.396  13.506 -0.1070  0.4836  0.0585
25490SOL    HW188195   6.277   4.486  13.503 -0.6160  0.3985  1.5299
25490SOL    HW288196   6.261   4.357  13.580 -0.6660 -1.2836 -1.1545
25491SOL     OW88197  10.340  11.682   9.010 -0.7395  0.0379  0.3717
25491SOL    HW188198  10.357  11.594   9.046 -1.4902 -0.6055 -0.7855
25491SOL    HW288199  10.423  11.710   8.974 -0.9010 -0.9609 -0.8183
25492SOL     OW88200   7.279  12.011   0.715  0.4922 -0.5728  0.2299
25492SOL    HW188201   7.311  11.966   0.792 -0.3505  0.0055  0.9343
25492SOL    HW288202   7.216  12.075   0.748 -0.8958 -1.2062 -1.0393
25493SOL     OW88203   9.266  13.163   1.219 -0.0413  0.3577 -0.1248
25493SOL    HW188204   9.246  13.098   1.151  0.6170  0.2164 -0.1912
25493SOL    HW288205   9.360  13.151   1.237  0.0892  1.2941 -0.1381
25494SOL     OW88206   7.472   0.308   9.967  0.1000  0.1882  0.1960
25494SOL    HW188207   7.501   0.272  10.051 -1.4731  0.6125  0.9556
25494SOL    HW288208   7.447   0.398   9.986  0.5734  0.5706 -0.9284
25495SOL     OW88209   2.561   0.515   3.875  0.3391 -0.0284  0.1591
25495SOL    HW188210   2.623   0.472   3.934 -1.4862  0.2273  2.4147
25495SOL    HW288211   2.548   0.601   3.914 -0.9055  0.1615 -0.6469
25496SOL     OW88212   0.540   2.322   2.956 -0.3170 -0.0727 -0.3400
25496SOL    HW188213   0.476   2.393   2.952  0.3822  0.8991  2.6189
25496SOL    HW288214   0.622   2.366   2.977  0.5336 -1.6165 -0.3158
25497SOL     OW88215   9.312   3.589   9.833 -0.0605  0.1254 -0.5525
25497SOL    HW188216   9.250   3.529   9.792 -0.4814 -0.1542  0.4710
25497SOL    HW288217   9.265   3.625   9.908  1.1183 -0.3363  0.4371
25498SOL     OW88218   9.701   2.240   0.623  0.0821  0.4607 -0.0095
25498SOL    HW188219   9.630   2.291   0.661 -0.3375 -0.6364  0.7449
25498SOL    HW288220   9.760   2.305   0.583 -2.2680  1.3252 -2.3729
25499SOL     OW88221   9.903   4.728   8.965  0.1330 -0.1649 -0.4085
25499SOL    HW188222   9.917   4.771   9.049  0.3745 -0.7471 -0.1512
25499SOL    HW288223   9.979   4.671   8.953  0.1250 -0.0591 -1.0434
25500SOL     OW88224  11.832   2.096   8.471 -0.5200 -0.2521 -0.8469
25500SOL    HW188225  11.895   2.160   8.505  0.5327  0.0291 -3.1278
25500SOL    HW288226  11.859   2.013   8.509  0.0105  0.1622 -0.2929
25501SOL     OW88227   7.211   5.640  10.114  0.1164 -0.4627 -0.6214
25501SOL    HW188228   7.250   5.554  10.099  2.1285  0.3583 -0.3753
25501SOL    HW288229   7.240   5.665  10.202 -2.8644 -0.7305  0.5668
25502SOL     OW88230   6.608   3.948   1.398  0.1702  0.2567 -0.0202
25502SOL    HW188231   6.625   3.994   1.481  1.4078  0.3867 -0.3327
25502SOL    HW288232   6.536   3.888   1.419 -0.4340  1.2239  0.7955
25503SOL     OW88233   5.255  10.243   1.183 -0.2681  0.4803  0.1550
25503SOL    HW188234   5.293  10.284   1.105  1.7372  0.0045  0.8285
25503SOL    HW288235   5.174  10.291   1.198  0.1417  1.6859 -1.2550
25504SOL     OW88236   7.935  12.213   3.359 -0.1214 -0.1075 -0.2741
25504SOL    HW188237   7.957  12.122   3.339  1.2394  0.1905 -0.2292
25504SOL    HW288238   7.840  12.216   3.356 -0.1727 -1.4722 -0.5429
25505SOL     OW88239   3.326   8.100   4.416  0.4484 -0.0582 -0.0701
25505SOL    HW188240   3.315   8.188   4.451 -0.6927  0.5525 -1.8181
25505SOL    HW288241   3.411   8.103   4.372  0.5247  0.0847  0.0853
25506SOL     OW88242  11.140   7.458  10.602  0.1154  0.0148  0.2155
25506SOL    HW188243  11.227   7.486  10.573 -0.1298  0.4162 -0.1367
25506SOL    HW288244  11.136   7.484  10.694  0.8712 -1.2007  0.6149
25507SOL     OW88245  12.601   7.496   0.821 -0.2307 -0.4591 -0.3591
25507SOL    HW188246  12.667   7.535   0.764  0.6611 -4.0535 -2.0966
25507SOL    HW288247  12.649   7.432   0.874 -1.9823 -1.7765 -0.2685
25508SOL     OW88248   5.451  12.400   8.009  0.4494 -0.3944 -0.4492
25508SOL    HW188249   5.502  12.404   8.090  0.5181  1.1163 -0.5518
25508SOL    HW288250   5.385  12.334   8.027 -0.4587  0.9237  1.4034
25509SOL     OW88251   6.899   1.777   6.869  0.0243  0.6032  0.1540
25509SOL    HW188252   6.824   1.820   6.910  0.0672  1.3710 -0.5543
25509SOL    HW288253   6.959   1.761   6.942 -0.5051  0.6690  0.6116
25510SOL     OW88254   3.483   9.183   8.052  0.2749 -0.0373  0.1669
25510SOL    HW188255   3.498   9.154   8.142  0.2547 -0.6138 -0.0118
25510SOL    HW288256   3.513   9.274   8.051 -2.2658  0.9073  1.4631
25511SOL     OW88257   9.907   6.162   2.598 -0.2989 -0.4467 -0.9481
25511SOL    HW188258   9.847   6.109   2.544 -1.9612 -1.8343  2.0183
25511SOL    HW288259   9.855   6.238   2.624 -0.8321 -1.5811  1.5281
25512SOL     OW88260   4.776   5.893  12.359 -0.1698  0.3432 -0.3052
25512SOL    HW188261   4.781   5.986  12.383  0.7350  0.0288  0.8461
25512SOL    HW288262   4.683   5.872  12.362 -0.4818  1.4182 -1.4855
25513SOL     OW88263  13.052   4.392  11.771  0.5321  0.1036  0.3909
25513SOL    HW188264  13.095   4.391  11.685 -0.4773  1.1372 -0.1549
25513SOL    HW288265  13.095   4.463  11.819 -1.2579  1.9662 -0.5875
25514SOL     OW88266   9.331   7.484   4.305 -0.4574  0.4012  0.5308
25514SOL    HW188267   9.403   7.448   4.253 -0.3335  0.4754  0.6508
25514SOL    HW288268   9.255   7.434   4.278 -0.5966  1.1320 -0.4842
25515SOL     OW88269   8.071   2.979   2.671 -0.3369  0.3548 -0.0619
25515SOL    HW188270   8.075   3.056   2.613  0.4111  1.3414  1.2343
25515SOL    HW288271   8.009   3.005   2.739  0.5232  0.1359  0.8204
25516SOL     OW88272  10.007   0.305   1.283  0.1676  0.3703  0.5667
25516SOL    HW188273  10.097   0.338   1.274  0.6996 -0.9926  0.7209
25516SOL    HW288274   9.959   0.346   1.211  0.9916  0.8186  0.2623
25517SOL     OW88275   8.987   3.166   7.101 -0.4518 -0.0614  0.0840
25517SOL    HW188276   9.067   3.150   7.150 -1.0605 -1.0126  0.7913
25517SOL    HW288277   8.956   3.250   7.133  1.0946  1.1490 -1.3769
25518SOL     OW88278   0.385   7.222   0.358  0.3185 -0.8409 -0.7055
25518SOL    HW188279   0.479   7.207   0.359  0.5627  0.5611 -0.2261
25518SOL    HW288280   0.347   7.136   0.380  1.4873 -1.3144 -0.4407
25519SOL     OW88281   3.232  10.477  11.277 -0.5833  0.0252  0.5091
25519SOL    HW188282   3.276  10.543  11.224 -0.1177  0.5750  1.5611
25519SOL    HW288283   3.148  10.463  11.232 -0.1070  0.2961 -0.4978
25520SOL     OW88284   5.980  12.923   2.046  0.1100  0.7832 -0.7410
25520SOL    HW188285   5.996  12.919   1.952 -1.8958  0.2395 -1.1120
25520SOL    HW288286   6.044  12.863   2.085  0.2329  0.1680 -1.8681
25521SOL     OW88287   2.762   1.461   2.437 -0.5070 -0.4511  0.6682
25521SOL    HW188288   2.796   1.547   2.414  1.3349 -2.0825 -4.0859
25521SOL    HW288289   2.669   1.464   2.411 -0.1063 -0.1909 -0.8756
25522SOL     OW88290   2.017  11.220  11.982  0.3049 -0.7668  0.2151
25522SOL    HW188291   1.937  11.248  11.937  0.1553  0.6130  1.2617
25522SOL    HW288292   1.987  11.190  12.068  0.9929  1.0612  1.1453
25523SOL     OW88293  12.758   0.075   1.641 -0.0155 -0.1427 -0.5130
25523SOL    HW188294  12.754   0.063   1.546 -0.5289 -0.8581 -0.4134
25523SOL    HW288295  12.771  -0.013   1.676  0.8116  0.1955  0.0575
25524SOL     OW88296   0.309   9.472   2.007  0.4875 -0.1659 -0.1393
25524SOL    HW188297   0.377   9.413   2.037  1.1292  0.6457  0.0369
25524SOL    HW288298   0.267   9.426   1.934 -0.3794 -1.7026  1.2521
25525SOL     OW88299   9.217   0.753   0.170  0.1995 -0.0091 -0.0769
25525SOL    HW188300   9.154   0.722   0.235 -1.1165  0.3948 -1.0870
25525SOL    HW288301   9.283   0.799   0.221 -1.2219  1.0161  0.9466
25526SOL     OW88302   9.001   2.457  11.168  0.0996 -0.7429  0.2102
25526SOL    HW188303   9.044   2.539  11.191 -1.0676 -0.4167  1.3734
25526SOL    HW288304   9.051   2.389  11.213  0.1950 -0.5121  0.4521
25527SOL     OW88305   2.843  12.991   1.354  0.0572  0.2657  0.3208
25527SOL    HW188306   2.883  13.059   1.300 -1.6133  2.0319  1.1584
25527SOL    HW288307   2.758  13.028   1.379 -0.1848 -1.4362  2.2525
25528SOL     OW88308   7.191   4.350   8.645  0.4614 -0.2506 -0.1216
25528SOL    HW188309   7.149   4.270   8.677 -0.0513 -0.0343 -0.2289
25528SOL    HW288310   7.221   4.328   8.557  0.6543 -0.4389 -0.0070
25529SOL     OW88311  11.822  11.991   8.618  0.0047 -0.2616 -0.5461
25529SOL    HW188312  11.890  11.948   8.670  0.9321  0.3529 -1.2164
25529SOL    HW288313  11.868  12.061   8.572 -1.1316  0.3099 -0.8505
25530SOL     OW88314  12.964   1.048  13.548  0.0356  0.8399  0.0264
25530SOL    HW188315  12.983   0.967  13.594  0.3617  0.1692 -1.2482
25530SOL    HW288316  12.982   1.117  13.612 -2.7503 -0.1035  1.9989
25531SOL     OW88317  11.377  12.385   2.781 -0.2503  1.0127 -0.2151
25531SOL    HW188318  11.444  12.326   2.748 -0.9319 -0.2203  0.4987
25531SOL    HW288319  11.424  12.448   2.835  0.2869 -0.2290  0.8060
25532SOL     OW88320   8.927  13.577  12.775 -0.1855  0.0800 -0.0897
25532SOL    HW188321   8.875  13.563  12.854  0.4792 -1.7740  0.0774
25532SOL    HW288322   8.898  13.662  12.741 -2.3271 -0.2712  0.7274
25533SOL     OW88323   9.358   1.105  11.813  0.9603 -0.5426  0.3971
25533SOL    HW188324   9.270   1.125  11.779  0.2370 -1.6084  1.5776
25533SOL    HW288325   9.369   1.011  11.798  1.0566 -0.8220  2.0751
25534SOL     OW88326   0.427   3.758   5.960  1.4989  0.4291  0.2514
25534SOL    HW188327   0.430   3.785   6.051  1.6401 -3.0465  1.4088
25534SOL    HW288328   0.480   3.678   5.956  0.8010 -0.0206 -2.6896
25535SOL     OW88329   7.911   3.855   9.112  0.2445  0.0890 -0.4212
25535SOL    HW188330   7.952   3.891   9.033  0.2142 -0.1042 -0.5253
25535SOL    HW288331   7.847   3.793   9.079  0.1483  0.0948 -0.2458
25536SOL     OW88332   2.843   8.592   6.278 -0.3189 -0.2831 -0.1075
25536SOL    HW188333   2.925   8.602   6.327 -0.3486 -0.5386 -0.0044
25536SOL    HW288334   2.828   8.678   6.238 -0.3037 -0.0586  0.3523
25537SOL     OW88335  11.371  10.628   4.931  0.2269  0.1978 -0.0749
25537SOL    HW188336  11.339  10.551   4.885  0.1522  0.7115 -0.9070
25537SOL    HW288337  11.380  10.695   4.863  2.7931  0.1872  0.1517
25538SOL     OW88338   0.141   9.370   7.744 -0.5382  0.0735  0.1133
25538SOL    HW188339   0.096   9.324   7.673  2.3504 -1.9670 -0.5769
25538SOL    HW288340   0.129   9.313   7.820  0.1807 -0.1193  0.0942
25539SOL     OW88341  10.638   0.931   0.917  0.6468 -0.0390  0.1648
25539SOL    HW188342  10.600   0.941   0.830 -1.6854 -0.0183  1.1049
25539SOL    HW288343  10.629   0.837   0.935  2.4423 -0.2927 -0.1481
25540SOL     OW88344   2.864  12.060   8.184  0.1351 -0.1152  0.4015
25540SOL    HW188345   2.956  12.033   8.182  0.4932  1.0686  0.4135
25540SOL    HW288346   2.833  12.046   8.094  0.5989  0.4009  0.1600
25541SOL     OW88347   7.895   0.608  13.017 -0.2679  0.2515  0.1371
25541SOL    HW188348   7.811   0.629  12.976 -0.2894 -0.9051 -0.4529
25541SOL    HW288349   7.905   0.513  13.003  2.7085  0.8243 -2.8868
25542SOL     OW88350   5.711  12.093  10.066  0.1049 -0.0433 -0.4702
25542SOL    HW188351   5.765  12.166  10.098 -1.7082  0.8061  0.8696
25542SOL    HW288352   5.753  12.065   9.985  0.9500  2.4122 -0.9516
25543SOL     OW88353  13.521  12.046   0.684  0.3408  0.7252  0.4153
25543SOL    HW188354  13.594  12.053   0.622  1.1554  1.2114  1.4023
25543SOL    HW288355  13.534  11.962   0.727 -0.6198  0.0659 -0.5262
25544SOL     OW88356   6.231   0.560   3.378 -0.1876 -0.2368  0.0793
25544SOL    HW188357   6.284   0.518   3.309 -0.0551  0.0603 -0.0036
25544SOL    HW288358   6.172   0.618   3.330  0.9833  1.1935  0.2711
25545SOL     OW88359   8.820  12.227   8.678 -0.0401 -0.4747  0.0851
25545SOL    HW188360   8.730  12.247   8.652 -0.0221 -2.2802 -1.5874
25545SOL    HW288361   8.814  12.211   8.773 -0.9198  2.0839  0.5452
25546SOL     OW88362   5.635   0.722   9.598  0.0533  0.4200  0.5707
25546SOL    HW188363   5.554   0.762   9.630 -0.2585 -0.8534  1.4632
25546SOL    HW288364   5.659   0.774   9.522 -1.6243  0.8083  0.2659
25547SOL     OW88365   7.226   8.792   2.928 -0.4637 -0.4415  0.1546
25547SOL    HW188366   7.202   8.725   2.993  1.3339 -1.4644 -0.1624
25547SOL    HW288367   7.234   8.744   2.846  3.0397 -0.3833  0.3188
25548SOL     OW88368   9.891  12.911  12.526 -0.7617 -1.3513 -0.4966
25548SOL    HW188369   9.983  12.930  12.544 -0.3564 -2.8589 -0.8796
25548SOL    HW288370   9.855  12.884  12.611 -1.3074  0.8122  0.0218
25549SOL     OW88371   0.036  13.701  10.848 -0.3661  0.2523 -0.4836
25549SOL    HW188372   0.004  13.790  10.838 -0.4074  0.3635  0.5220
25549SOL    HW288373   0.048  13.669  10.758 -0.1279  1.3440 -0.8551
25550SOL     OW88374   3.353   9.259  11.471 -0.1007 -0.7387  0.2061
25550SOL    HW188375   3.297   9.277  11.396 -1.0005  0.5787  1.1552
25550SOL    HW288376   3.410   9.336  11.477  1.8196 -1.9928 -0.6772
25551SOL     OW88377   2.051   3.133   1.306  0.2583  0.3396  0.3495
25551SOL    HW188378   1.978   3.184   1.341 -0.2823  0.3470 -0.7463
25551SOL    HW288379   2.037   3.045   1.341 -1.3567 -0.1247 -1.2883
25552SOL     OW88380   9.125   5.968   8.249 -0.0246 -0.3996 -0.1808
25552SOL    HW188381   9.045   5.965   8.196  0.7386 -0.1956 -1.3719
25552SOL    HW288382   9.117   6.049   8.300  0.4389  0.8483 -1.9943
25553SOL     OW88383   7.776   4.366  11.878  0.1753 -0.2763 -0.4268
25553SOL    HW188384   7.717   4.325  11.816 -0.0115  0.6569 -0.8919
25553SOL    HW288385   7.840   4.411  11.824 -0.6733  1.5470 -0.0057
25554SOL     OW88386   2.067   8.218   2.009  0.0829 -0.6463  0.2934
25554SOL    HW188387   2.142   8.271   2.035  0.0556 -0.7790  0.6516
25554SOL    HW288388   2.069   8.143   2.069  0.3281 -1.2325 -0.4230
25555SOL     OW88389   9.339  10.196  11.624 -0.1665  0.4001 -0.3477
25555SOL    HW188390   9.254  10.210  11.581 -0.6727 -1.9478 -0.2563
25555SOL    HW288391   9.396  10.164  11.555 -0.0012 -0.1008  0.0109
25556SOL     OW88392   5.970   7.832   2.311  0.2297  0.3737 -0.1113
25556SOL    HW188393   5.875   7.826   2.319  0.1340  0.1184 -1.2526
25556SOL    HW288394   5.995   7.753   2.264  1.1375 -0.0648  1.0646
25557SOL     OW88395  12.245   7.700   0.146  0.1208  0.0043  0.1518
25557SOL    HW188396  12.326   7.664   0.182 -1.1353 -0.0259  3.2101
25557SOL    HW288397  12.266   7.790   0.124  1.4985 -0.5925 -1.1917
25558SOL     OW88398  11.185  12.701   6.826 -0.4383  0.3144  0.0662
25558SOL    HW188399  11.090  12.716   6.831 -0.8173 -0.8964 -2.2525
25558SOL    HW288400  11.202  12.635   6.892 -1.1248  0.8041  0.7630
25559SOL     OW88401   2.996   7.006   1.023 -0.4693  0.0209  0.1985
25559SOL    HW188402   3.017   7.011   1.117  0.5291  1.1962 -0.0743
25559SOL    HW288403   2.914   7.055   1.015  0.7472  2.1702  0.1094
25560SOL     OW88404  10.357   4.266   6.517 -0.4753 -0.2852 -0.4888
25560SOL    HW188405  10.431   4.209   6.539 -1.5228 -1.9758 -1.1837
25560SOL    HW288406  10.317   4.225   6.441 -0.7330  1.9363 -1.6083
25561SOL     OW88407  10.336   9.226   1.994 -0.3760 -0.1232  0.0534
25561SOL    HW188408  10.368   9.314   2.015 -0.5436 -0.0893  0.1681
25561SOL    HW288409  10.406   9.167   2.024 -0.3299 -0.0377  0.1129
25562SOL     OW88410  11.858   2.781   5.400 -0.3998  0.0766  0.0248
25562SOL    HW188411  11.823   2.845   5.463 -0.3573 -0.6682  0.8176
25562SOL    HW288412  11.791   2.775   5.333 -2.2086 -1.8442  1.8649
25563SOL     OW88413   0.858  13.415  13.258 -0.2026 -0.3276 -0.1988
25563SOL    HW188414   0.820  13.373  13.335  0.3433  1.3251  1.0432
25563SOL    HW288415   0.950  13.389  13.259 -0.2693 -0.5789 -0.4948
25564SOL     OW88416   2.107  11.130   4.349  0.2577  0.1829 -0.7964
25564SOL    HW188417   2.162  11.096   4.280 -1.2471 -0.2018 -1.8638
25564SOL    HW288418   2.104  11.225   4.334  0.1557  0.1330 -1.0883
25565SOL     OW88419   9.764   3.950   4.900 -0.4257  0.2811  0.5056
25565SOL    HW188420   9.744   3.858   4.886 -0.5089  0.1438  1.4357
25565SOL    HW288421   9.859   3.952   4.909 -0.5717 -0.1281  2.9694
25566SOL     OW88422   1.419   0.992   5.664 -0.1764  0.4332 -0.1858
25566SOL    HW188423   1.416   1.081   5.629 -0.8993  1.0458  1.3435
25566SOL    HW288424   1.328   0.963   5.664  0.1786 -0.9692 -2.1309
25567SOL     OW88425  13.218  10.372  12.115  0.3534  0.5328  0.3459
25567SOL    HW188426  13.284  10.423  12.162  0.5091  2.5228 -1.8756
25567SOL    HW288427  13.224  10.402  12.024 -1.2475 -1.7544 -0.6162
25568SOL     OW88428   9.933  13.606   0.586 -0.0195  0.1750 -0.0281
25568SOL    HW188429   9.951  13.601   0.680 -2.9421 -0.3531  0.6112
25568SOL    HW288430   9.962  13.694   0.561  2.8279 -0.4332  0.7954
25569SOL     OW88431  11.832   2.054   6.408  0.2672 -0.2405  0.2958
25569SOL    HW188432  11.835   2.052   6.503  1.4330  2.2183  0.3970
25569SOL    HW288433  11.784   2.135   6.387  1.4318  0.1299 -1.1575
25570SOL     OW88434   4.614   8.732   2.098 -0.0369 -0.8105 -0.1596
25570SOL    HW188435   4.588   8.662   2.158 -2.1653 -1.1658 -1.4001
25570SOL    HW288436   4.707   8.745   2.115 -0.3029 -1.6926  2.3696
25571SOL     OW88437   3.378  10.714   3.853  0.6675 -0.5136  0.4516
25571SOL    HW188438   3.305  10.762   3.813  0.1812 -2.8469 -1.8023
25571SOL    HW288439   3.402  10.765   3.929 -1.9806  1.4476  0.1209
25572SOL     OW88440   1.289   8.726   0.206  0.5298 -0.1523 -0.0945
25572SOL    HW188441   1.380   8.727   0.235  0.5252  0.1720 -0.0836
25572SOL    HW288442   1.240   8.763   0.279  0.6690  1.9522 -0.9751
25573SOL     OW88443  13.743   1.193   7.146  0.0876 -0.5921  0.1544
25573SOL    HW188444  13.680   1.243   7.197  0.3384 -0.3011  0.1787
25573SOL    HW288445  13.690   1.146   7.082 -0.0499  0.6974 -0.7171
25574SOL     OW88446  10.911   8.807   2.289 -0.0948  0.0303 -0.2307
25574SOL    HW188447  10.868   8.885   2.325 -0.0720 -0.0204 -0.0895
25574SOL    HW288448  10.999   8.810   2.326  0.1805  0.3880 -0.8954
25575SOL     OW88449  11.143  12.327   1.420 -0.1391 -0.1495  0.2220
25575SOL    HW188450  11.221  12.333   1.476 -1.1353 -0.0207  1.6304
25575SOL    HW288451  11.138  12.234   1.398  0.3156 -0.1857  0.2513
25576SOL     OW88452  11.279  11.161  11.846  0.2244  0.1446  0.3115
25576SOL    HW188453  11.327  11.093  11.893 -0.5267  0.6931  1.9700
25576SOL    HW288454  11.191  11.124  11.835 -0.1967  0.8142  1.2510
25577SOL     OW88455   7.442  11.275  12.311  0.2575 -0.1976 -0.0740
25577SOL    HW188456   7.387  11.290  12.234 -0.5934  1.7144  0.8386
25577SOL    HW288457   7.483  11.360  12.327 -0.4896 -0.2238  2.2459
25578SOL     OW88458   8.613   1.532  13.524  0.2279 -0.4252  0.3421
25578SOL    HW188459   8.642   1.621  13.503  0.4942 -0.7818 -0.8463
25578SOL    HW288460   8.548   1.512  13.457  0.3369 -1.2148  0.4671
25579SOL     OW88461  12.121   3.641  10.666 -0.6868  0.1445 -0.1586
25579SOL    HW188462  12.033   3.614  10.695 -0.7102  0.5431  0.1453
25579SOL    HW288463  12.142   3.717  10.720 -0.7409  0.9370 -1.2106
25580SOL     OW88464   6.672  12.038   4.093  0.1325  0.2339 -0.2268
25580SOL    HW188465   6.613  12.106   4.126  1.3356  0.9014  0.6335
25580SOL    HW288466   6.740  12.086   4.045  1.2114 -0.3094  0.7181
25581SOL     OW88467   4.422   0.639   3.276  0.4232  0.6897 -0.0478
25581SOL    HW188468   4.512   0.609   3.266  0.8636  2.2346 -1.0810
25581SOL    HW288469   4.425   0.701   3.349  0.2894  1.0460 -0.3402
25582SOL     OW88470  10.307   9.513   5.812 -0.1467  0.2264  0.0624
25582SOL    HW188471  10.292   9.538   5.721  0.6219 -2.6247 -0.9369
25582SOL    HW288472  10.398   9.537   5.828 -0.2328  0.5764  0.0438
25583SOL     OW88473   9.393   9.541  10.935 -0.3733 -0.5889 -0.4270
25583SOL    HW188474   9.346   9.611  10.980 -0.8979 -0.8125 -0.6098
25583SOL    HW288475   9.360   9.544  10.845 -0.0411 -0.7594 -0.5569
25584SOL     OW88476   4.402   7.272   8.467 -0.6344 -0.0417 -0.2142
25584SOL    HW188477   4.395   7.280   8.562 -0.9169  1.7504 -0.3534
25584SOL    HW288478   4.483   7.224   8.454  0.0233  0.6841  0.9353
25585SOL     OW88479   1.999   2.460   8.181 -0.5260  0.4226 -0.7000
25585SOL    HW188480   2.057   2.463   8.257 -0.3959  1.8045 -0.8429
25585SOL    HW288481   1.914   2.434   8.217 -0.5282  1.3245 -0.0302
25586SOL     OW88482  13.409   3.523  10.079 -0.3889  0.6607 -0.7089
25586SOL    HW188483  13.337   3.518  10.142  0.1253 -1.7291 -0.2057
25586SOL    HW288484  13.483   3.481  10.123  0.5273  0.5706 -2.2366
25587SOL     OW88485   4.164   8.893  10.107  0.5592 -0.7938 -0.2409
25587SOL    HW188486   4.134   8.972  10.153  2.1681 -1.1531  1.5334
25587SOL    HW288487   4.211   8.927  10.030  0.3604 -0.0564 -0.0458
25588SOL     OW88488   4.151   3.456  10.003  0.5017 -0.0050 -0.4115
25588SOL    HW188489   4.140   3.384  10.066 -0.0458  0.4276 -0.0059
25588SOL    HW288490   4.067   3.501  10.003  0.5434  0.0922 -1.3540
25589SOL     OW88491  11.826   9.682   3.891 -0.0321 -0.2972 -0.4636
25589SOL    HW188492  11.754   9.730   3.931  1.3138  0.8311  0.7386
25589SOL    HW288493  11.859   9.625   3.961  1.7772  1.0289 -0.1772
25590SOL     OW88494  11.473   4.842   6.791 -0.1810  0.0692 -0.0722
25590SOL    HW188495  11.389   4.880   6.815  0.9909  2.9842 -0.1087
25590SOL    HW288496  11.452   4.778   6.724 -2.4113  0.3664  0.2633
25591SOL     OW88497  13.284   9.344   8.975 -0.3234 -0.1554 -0.1347
25591SOL    HW188498  13.237   9.269   8.938  0.6994 -1.8617  1.8590
25591SOL    HW288499  13.372   9.337   8.939 -0.3988  0.5146 -0.4681
25592SOL     OW88500  10.788  13.707   8.685 -0.0773  0.4255  0.3416
25592SOL    HW188501  10.784  13.727   8.779  0.6351 -0.9262  0.6929
25592SOL    HW288502  10.869  13.656   8.676 -0.0941  0.6250 -1.0300
25593SOL     OW88503   1.901   9.843   3.452 -0.4133  0.4994  0.0246
25593SOL    HW188504   1.931   9.933   3.437  0.9967  0.0743  0.1544
25593SOL    HW288505   1.950   9.791   3.389 -1.0980 -0.2089  0.0675
25594SOL     OW88506   3.545   9.209  13.502  0.4264 -0.1611 -0.0502
25594SOL    HW188507   3.454   9.180  13.501  0.8716 -1.6111 -0.9088
25594SOL    HW288508   3.578   9.182  13.588  0.2207 -0.2096  0.0135
25595SOL     OW88509   1.652   2.065   5.068  0.0020 -0.3343  0.1690
25595SOL    HW188510   1.615   2.120   5.137 -0.5854  0.2153 -0.5757
25595SOL    HW288511   1.744   2.091   5.064 -0.3549  0.9220 -0.4616
25596SOL     OW88512   9.623   1.590   2.340  0.3777 -0.3108 -0.3720
25596SOL    HW188513   9.665   1.604   2.255  1.0726  2.2486  0.3254
25596SOL    HW288514   9.695   1.569   2.400  0.3560  1.1233  0.2067
25597SOL     OW88515   3.850   3.338   3.627 -0.1889  0.6159  0.6952
25597SOL    HW188516   3.860   3.423   3.671 -1.9280  0.7300  0.9192
25597SOL    HW288517   3.936   3.297   3.636  0.3423  1.8555  1.6333
25598SOL     OW88518   0.863   9.960   2.903 -0.1983 -0.0943 -0.2047
25598SOL    HW188519   0.915   9.929   2.977 -0.6733  0.4207  0.3533
25598SOL    HW288520   0.838   9.880   2.856 -0.4267 -0.4751  0.5489
25599SOL     OW88521  11.051   7.470   7.477 -0.7284 -0.8996  0.3689
25599SOL    HW188522  11.011   7.383   7.481 -0.9098 -0.8813 -0.6688
25599SOL    HW288523  11.133   7.461   7.526 -1.1551 -1.4176  1.0009
25600SOL     OW88524  12.888   1.912   6.843 -0.1360  0.3777 -0.6380
25600SOL    HW188525  12.903   1.995   6.889  0.6419 -0.3373  0.4382
25600SOL    HW288526  12.840   1.937   6.764 -0.2192  1.8124 -0.1638
25601SOL     OW88527   6.359   6.347  12.034 -0.0742  0.6408  0.1204
25601SOL    HW188528   6.375   6.266  11.987 -1.6636  0.8686 -0.8926
25601SOL    HW288529   6.444   6.370  12.072  0.9343 -0.2924 -1.4574
25602SOL     OW88530   2.699   3.001  12.500 -0.0074 -0.7173 -0.3882
25602SOL    HW188531   2.687   3.067  12.568 -0.2235  0.2707 -1.3598
25602SOL    HW288532   2.793   2.981  12.502  0.2702  0.4878 -0.8636
25603SOL     OW88533  11.518  13.584   4.377 -0.3741 -0.1886 -0.2472
25603SOL    HW188534  11.484  13.560   4.463  1.6824 -0.4817  0.5414
25603SOL    HW288535  11.586  13.649   4.395  1.7717 -2.0078 -1.3918
25604SOL     OW88536   0.412  13.511  12.437 -0.2910 -0.5140 -0.2541
25604SOL    HW188537   0.365  13.572  12.494  0.1792 -1.2193  0.9216
25604SOL    HW288538   0.398  13.546  12.349 -1.7326  0.1377  0.1921
25605SOL     OW88539  10.117   3.627   6.820 -0.5919 -0.0097 -0.5146
25605SOL    HW188540  10.132   3.669   6.735 -1.4170  0.6957 -0.3279
25605SOL    HW288541  10.202   3.591   6.844  0.0735  1.2741 -0.8523
25606SOL     OW88542   5.756   1.737   6.002 -0.1224  0.1952  0.6817
25606SOL    HW188543   5.823   1.692   6.054 -1.4457 -0.4595  1.8915
25606SOL    HW288544   5.721   1.804   6.061 -1.2316 -0.1567  0.4466
25607SOL     OW88545   8.854   9.554   2.598  0.0854  0.3368 -0.4269
25607SOL    HW188546   8.936   9.577   2.641  0.6285  1.3332 -1.9065
25607SOL    HW288547   8.879   9.536   2.507 -1.2910  0.3157 -0.8254
25608SOL     OW88548   4.247   2.493   5.825  0.2964 -0.0088 -0.1643
25608SOL    HW188549   4.224   2.582   5.850 -2.7369 -1.1550  1.5360
25608SOL    HW288550   4.289   2.502   5.739 -2.2802  2.8292 -1.2625
25609SOL     OW88551   1.390   1.778   7.157 -0.4023 -0.3463  0.6383
25609SOL    HW188552   1.450   1.704   7.164 -0.8079 -0.6438  1.0038
25609SOL    HW288553   1.317   1.756   7.214 -0.6551  0.2156  0.5439
25610SOL     OW88554   9.390  10.896   8.557 -0.0921 -0.1355  0.3771
25610SOL    HW188555   9.354  10.943   8.482  1.0847  0.8575  0.3957
25610SOL    HW288556   9.362  10.947   8.633 -0.0982 -0.3450  0.5167
25611SOL     OW88557   8.243   9.578   9.495 -0.4909 -0.0149 -0.2934
25611SOL    HW188558   8.248   9.542   9.407  0.5239 -1.9371  0.5061
25611SOL    HW288559   8.211   9.506   9.549  1.2237  0.3479  1.3021
25612SOL     OW88560  10.435   3.133   5.714 -0.3263  0.5443  0.2541
25612SOL    HW188561  10.464   3.093   5.632  0.4307  1.3809  0.0922
25612SOL    HW288562  10.475   3.220   5.713 -0.4314  0.6201  1.4407
25613SOL     OW88563   1.268   1.680   2.019  0.2378  0.0370 -0.8212
25613SOL    HW188564   1.249   1.771   1.997 -0.5637  0.2836  0.7153
25613SOL    HW288565   1.191   1.651   2.068  1.5172 -0.6828  0.8584
25614SOL     OW88566   2.298   6.943  10.330  0.6189 -0.0665 -0.6437
25614SOL    HW188567   2.327   6.855  10.353 -1.6283 -0.5476  0.6084
25614SOL    HW288568   2.264   6.980  10.411  0.9315  1.7456 -1.2843
25615SOL     OW88569   3.236  10.783   5.321 -0.0522 -0.4107 -0.2135
25615SOL    HW188570   3.305  10.850   5.323  2.1084 -2.4992  1.2363
25615SOL    HW288571   3.155  10.832   5.312  1.5276  2.2574 -1.2055
25616SOL     OW88572   9.646   8.869   1.825  0.4001 -0.2005 -0.6823
25616SOL    HW188573   9.614   8.939   1.882 -0.9629 -1.1363 -0.2645
25616SOL    HW288574   9.701   8.915   1.761  1.1342  1.0050  0.7357
25617SOL     OW88575   4.778   8.020   9.635 -0.0558 -0.2198  0.0562
25617SOL    HW188576   4.858   7.968   9.626  1.1809  1.4524  0.8643
25617SOL    HW288577   4.795   8.098   9.581 -2.1829 -0.9192 -1.7888
25618SOL     OW88578   7.868  12.126   2.157 -0.6806 -0.0645  0.1572
25618SOL    HW188579   7.935  12.057   2.161  1.9236  2.2327 -0.7383
25618SOL    HW288580   7.853  12.149   2.249  0.9957  0.4245  0.3475
25619SOL     OW88581   7.414   8.921   8.051 -0.2078 -0.2402 -0.4881
25619SOL    HW188582   7.465   8.842   8.068  0.6640  0.6098  1.2294
25619SOL    HW288583   7.350   8.924   8.122 -1.4595 -0.3240 -1.5794
25620SOL     OW88584   4.062  12.289  11.613  0.1812  0.1732  0.0656
25620SOL    HW188585   4.016  12.252  11.689 -0.4376  0.1438 -0.3217
25620SOL    HW288586   4.118  12.357  11.651 -0.6163  0.6215  0.4828
25621SOL     OW88587  11.468   6.528  13.477 -0.0384 -0.3349  0.2745
25621SOL    HW188588  11.562   6.541  13.462  0.1967 -1.8473  0.3253
25621SOL    HW288589  11.440   6.474  13.403 -0.8942  0.1758  0.2227
25622SOL     OW88590   3.227  11.627   9.717 -0.4228  0.0289 -0.6261
25622SOL    HW188591   3.192  11.693   9.776  2.3456  0.4253  0.7526
25622SOL    HW288592   3.277  11.676   9.652 -0.9445 -0.5937 -1.5314
25623SOL     OW88593   5.054   2.570   5.987  0.5263  0.1000  0.4180
25623SOL    HW188594   5.119   2.518   6.033  0.1817  0.7460  1.6798
25623SOL    HW288595   5.059   2.657   6.027 -1.3788  0.0537  0.8619
25624SOL     OW88596  11.028   9.350   9.559  0.6116 -0.7250 -0.6656
25624SOL    HW188597  11.110   9.398   9.545 -0.3971  0.7032 -2.0697
25624SOL    HW288598  10.996   9.381   9.644 -0.1091  1.3663 -1.6144
25625SOL     OW88599   2.876   6.149   0.646 -0.3884 -0.1174  0.1395
25625SOL    HW188600   2.812   6.218   0.633  0.2532  0.5240  0.3432
25625SOL    HW288601   2.918   6.138   0.561 -1.1182 -0.9141 -0.1387
25626SOL     OW88602   5.691   5.125   8.777  0.2704 -0.3190  0.0451
25626SOL    HW188603   5.722   5.169   8.698 -1.3960 -0.2271 -0.5829
25626SOL    HW288604   5.769   5.121   8.833  0.9716  1.5823 -0.6919
25627SOL     OW88605  12.233  12.068   7.018  0.4641  0.4909  0.7439
25627SOL    HW188606  12.159  12.128   7.008  0.0259  0.2042  2.0916
25627SOL    HW288607  12.209  12.012   7.092  2.2842  0.8182  1.6312
25628SOL     OW88608  12.518   7.927  12.040 -0.1059 -0.4075  0.2510
25628SOL    HW188609  12.525   7.941  11.945  2.9809 -1.0443  0.2919
25628SOL    HW288610  12.594   7.873  12.062 -0.6438 -0.1404  3.1440
25629SOL     OW88611   6.130   1.160   6.980  0.0082  0.1544  0.2512
25629SOL    HW188612   6.113   1.218   6.907 -1.5631 -0.5428  0.0212
25629SOL    HW288613   6.043   1.131   7.009  0.6994 -2.6869 -0.1592
25630SOL     OW88614  11.154  10.397   3.703 -0.0679  0.6590  0.2802
25630SOL    HW188615  11.061  10.415   3.700 -0.5064 -1.4092 -0.0386
25630SOL    HW288616  11.172  10.377   3.795 -0.0116  0.6892  0.2760
25631SOL     OW88617   9.648   8.610   6.180 -0.3009 -0.3304 -0.1181
25631SOL    HW188618   9.645   8.518   6.205  0.3561 -0.3915 -0.2442
25631SOL    HW288619   9.650   8.609   6.085  0.3070 -0.2183 -0.1149
25632SOL     OW88620   0.560   1.397   5.136 -0.4223 -0.4782 -0.3365
25632SOL    HW188621   0.480   1.372   5.090 -0.5845  0.2276 -0.4516
25632SOL    HW288622   0.529   1.435   5.218 -0.2616  0.5681 -0.7375
25633SOL     OW88623   0.998   7.118  12.568  0.4152 -0.2335  0.3908
25633SOL    HW188624   0.984   7.039  12.621  1.4914  0.9490  2.5890
25633SOL    HW288625   1.088   7.112  12.538  0.5075  0.1750  0.5848
25634SOL     OW88626  11.034   2.260   5.109  0.0807 -0.1899 -0.7912
25634SOL    HW188627  10.943   2.285   5.094  0.1848 -0.0140 -1.1387
25634SOL    HW288628  11.071   2.248   5.021 -0.0813 -2.0168 -0.6537
25635SOL     OW88629  10.450  12.833  12.957 -0.0723 -0.6182  0.4104
25635SOL    HW188630  10.447  12.893  13.032  0.7466  1.2323 -0.9686
25635SOL    HW288631  10.543  12.828  12.934 -0.3729 -0.6787 -0.8664
25636SOL     OW88632   3.491   9.429   3.385  0.0678 -0.5470  0.4605
25636SOL    HW188633   3.557   9.396   3.446  1.5137 -0.3440 -0.9510
25636SOL    HW288634   3.462   9.511   3.424  1.4222 -0.1101  0.5782
25637SOL     OW88635  11.687   2.658  12.526 -1.0051 -0.2782  0.0990
25637SOL    HW188636  11.748   2.732  12.526 -1.5240  0.1731  0.9740
25637SOL    HW288637  11.710   2.607  12.603  0.0901 -1.6960 -1.1189
25638SOL     OW88638  12.970   0.202   8.894 -0.4299  0.5531 -0.1579
25638SOL    HW188639  12.884   0.218   8.853 -0.2660 -0.1099 -0.7771
25638SOL    HW288640  13.033   0.225   8.826 -0.0749  1.8046  0.5602
25639SOL     OW88641   9.677  11.194   2.475 -0.5086  0.2122 -0.0162
25639SOL    HW188642   9.636  11.280   2.489 -1.4409 -0.1178 -0.6695
25639SOL    HW288643   9.627  11.155   2.403  0.1190 -0.7499  0.0579
25640SOL     OW88644   6.231   8.431  12.015  0.3954  0.2333  0.2212
25640SOL    HW188645   6.270   8.362  11.960 -1.1150 -0.1652 -0.3843
25640SOL    HW288646   6.262   8.513  11.977  0.4205 -0.0710 -0.4249
25641SOL     OW88647   4.341   0.646   0.286  0.2161 -0.2966  0.6050
25641SOL    HW188648   4.284   0.569   0.287  0.5222 -0.5371  0.0788
25641SOL    HW288649   4.289   0.714   0.328 -0.3331 -0.6031  0.4475
25642SOL     OW88650   7.098   0.165   6.864 -0.3543  0.1436  0.0171
25642SOL    HW188651   7.050   0.230   6.915 -0.8901 -0.6591  0.5708
25642SOL    HW288652   7.055   0.165   6.779 -2.8451 -2.0405  1.1175
25643SOL     OW88653   4.358  10.938  11.048  0.2339 -0.2101  0.0647
25643SOL    HW188654   4.342  10.846  11.029 -0.5340  0.1738 -1.2524
25643SOL    HW288655   4.299  10.986  10.990  1.2303  1.1353  0.0999
25644SOL     OW88656  12.888  13.428   5.316 -0.2039 -0.6679 -0.4175
25644SOL    HW188657  12.877  13.360   5.250 -1.4186 -0.7624 -0.1516
25644SOL    HW288658  12.826  13.496   5.290 -0.7803 -0.7587  0.6735
25645SOL     OW88659   7.803   5.047   7.562  0.0347  0.1002 -0.0951
25645SOL    HW188660   7.750   4.984   7.513  0.8206  0.2875 -1.2057
25645SOL    HW288661   7.739   5.093   7.617 -0.6999 -0.9140 -0.0580
25646SOL     OW88662   4.506  12.620   3.366 -0.3424  0.3056  0.2006
25646SOL    HW188663   4.520  12.692   3.304 -1.8442 -0.0976 -0.6624
25646SOL    HW288664   4.428  12.645   3.415  0.9861  0.7381  2.1800
25647SOL     OW88665   0.849   6.919   7.866 -0.3327  0.3217  0.0431
25647SOL    HW188666   0.887   6.854   7.807 -2.0499 -0.5157 -0.1927
25647SOL    HW288667   0.913   6.991   7.867  1.3667 -1.1388 -0.0858
25648SOL     OW88668  12.229   2.400   3.508  0.0951  0.0474 -0.2779
25648SOL    HW188669  12.228   2.453   3.588 -0.9444 -0.4467  0.0541
25648SOL    HW288670  12.226   2.310   3.540 -1.4712 -0.1343 -0.8756
25649SOL     OW88671  10.379   4.543   3.212  0.0869  0.0430  0.6305
25649SOL    HW188672  10.448   4.477   3.223 -0.4155 -0.2586  2.4101
25649SOL    HW288673  10.320   4.505   3.147  0.4735 -0.6829  0.6912
25650SOL     OW88674   8.313  12.990   0.788  0.2086  0.2112  0.0474
25650SOL    HW188675   8.283  12.949   0.707 -0.9675  0.2444  0.4396
25650SOL    HW288676   8.399  13.026   0.767 -0.2114  0.4891 -1.2778
25651SOL     OW88677  10.185   9.530   5.185 -0.3009 -0.1838 -0.4983
25651SOL    HW188678  10.247   9.601   5.202 -2.2774  1.9367 -1.6407
25651SOL    HW288679  10.228   9.477   5.117  0.3078  1.2593 -1.2932
25652SOL     OW88680   9.502   8.016  11.741  0.0590 -0.8313  0.5001
25652SOL    HW188681   9.555   7.953  11.694 -0.1587 -0.8993  0.3432
25652SOL    HW288682   9.525   8.004  11.833  0.9752 -0.2434  0.3582
25653SOL     OW88683   0.761   5.477   9.880  0.2049  0.1787  0.2424
25653SOL    HW188684   0.714   5.401   9.844  1.6761  0.9006 -3.7805
25653SOL    HW288685   0.833   5.439   9.930 -0.1520 -1.0686 -0.1502
25654SOL     OW88686   8.601  11.235  11.147  0.1232  0.1625  0.2235
25654SOL    HW188687   8.547  11.206  11.074 -0.1549 -0.9382  0.8451
25654SOL    HW288688   8.594  11.165  11.212  1.9955  0.1670  0.4772
25655SOL     OW88689   5.110   2.784   7.396 -0.1248 -0.1819 -0.5626
25655SOL    HW188690   5.115   2.757   7.304 -0.8611  1.1912 -1.0348
25655SOL    HW288691   5.082   2.705   7.442  0.5149 -0.9645 -1.4679
25656SOL     OW88692  12.221   2.745  11.453  0.4275 -0.1124 -0.0248
25656SOL    HW188693  12.292   2.781  11.507  0.6233 -0.1356 -0.2631
25656SOL    HW288694  12.257   2.663  11.418 -0.0007 -0.5189  0.4781
25657SOL     OW88695   2.283   5.696   0.867  0.5146 -0.1391  0.3437
25657SOL    HW188696   2.273   5.658   0.780 -0.1410  1.2228 -0.2173
25657SOL    HW288697   2.378   5.700   0.881  0.7299  1.2717 -1.1203
25658SOL     OW88698   7.091   5.245  13.316  0.6580  0.3371 -0.4762
25658SOL    HW188699   7.077   5.332  13.353  0.0272  0.2311 -0.4563
25658SOL    HW288700   7.145   5.260  13.239  2.5025  0.5050  0.7824
25659SOL     OW88701   9.952   2.034   3.496  0.8557  0.5839 -0.8039
25659SOL    HW188702   9.968   1.950   3.538  0.6530  1.1233  0.3974
25659SOL    HW288703   9.948   2.097   3.568  0.8429  1.6039 -1.6621
25660SOL     OW88704   8.383   6.760   7.457 -0.0809 -0.2938  0.0183
25660SOL    HW188705   8.383   6.796   7.546 -1.4460 -0.7173  0.2206
25660SOL    HW288706   8.383   6.838   7.400  0.5515 -0.0188  0.3879
25661SOL     OW88707   9.384   9.853   9.736 -0.4479 -0.0889 -0.2984
25661SOL    HW188708   9.450   9.874   9.802 -0.1984  1.6982 -1.0574
25661SOL    HW288709   9.358   9.763   9.756  0.5572 -0.0474  1.4164
25662SOL     OW88710   9.107   7.876  11.433  0.5352  0.2710  0.0101
25662SOL    HW188711   9.079   7.965  11.452 -0.2603  0.7299 -2.9123
25662SOL    HW288712   9.159   7.883  11.353 -0.6247 -1.9944 -1.0378
25663SOL     OW88713   8.738   2.663   8.718 -0.1655  0.2280  0.5654
25663SOL    HW188714   8.679   2.735   8.741 -1.5339 -0.9821  0.9384
25663SOL    HW288715   8.787   2.696   8.643 -1.4137  1.2162  0.1559
25664SOL     OW88716   3.089   9.744   6.203  0.1269 -0.0101 -0.0852
25664SOL    HW188717   3.113   9.837   6.208 -0.4299  0.3047 -2.3104
25664SOL    HW288718   3.038   9.737   6.123 -3.1984 -1.5656  1.9568
25665SOL     OW88719  10.468   4.791  13.650 -0.2582  0.1794  0.2553
25665SOL    HW188720  10.511   4.723  13.702  0.3134  0.6644  0.4248
25665SOL    HW288721  10.434   4.853  13.714 -1.4632 -0.3305  0.1367
25666SOL     OW88722   6.094  13.578   5.444  0.6742 -0.4163  0.3763
25666SOL    HW188723   6.166  13.634   5.473  0.1606  0.6768 -0.3944
25666SOL    HW288724   6.128  13.489   5.452  1.3213 -0.0445  2.1450
25667SOL     OW88725  13.011   3.432  11.323  0.3108  0.0159  0.3711
25667SOL    HW188726  13.039   3.384  11.245 -1.4871  0.4590 -0.5920
25667SOL    HW288727  13.015   3.524  11.297 -1.8212  0.1021  0.2313
25668SOL     OW88728   8.712   8.625   9.928  0.4727 -0.0562  0.2327
25668SOL    HW188729   8.706   8.627   9.832 -0.1677  2.0799  0.2553
25668SOL    HW288730   8.704   8.533   9.950 -1.2336 -0.4661 -1.6916
25669SOL     OW88731  11.735  13.557  10.985  0.1512  0.9243 -0.7135
25669SOL    HW188732  11.812  13.507  10.960 -0.1623  0.3503 -0.5402
25669SOL    HW288733  11.770  13.636  11.027  0.6459  0.9130 -1.0971
25670SOL     OW88734   9.263   0.111  10.843 -0.1472 -0.3090  0.3329
25670SOL    HW188735   9.293   0.187  10.794 -0.5557 -1.6660 -2.1544
25670SOL    HW288736   9.310   0.037  10.805 -1.0556 -1.5460  1.5095
25671SOL     OW88737   8.940   6.898   1.877 -0.0867  0.0516  0.1497
25671SOL    HW188738   8.993   6.825   1.846  0.0293  0.2777 -0.1815
25671SOL    HW288739   9.002   6.970   1.891 -0.1784  0.0492  0.6131
25672SOL     OW88740   7.258  11.023   2.262  0.4973 -0.7702  0.0361
25672SOL    HW188741   7.303  11.072   2.331 -0.1955 -0.7583  0.4918
25672SOL    HW288742   7.323  11.014   2.192  0.4741  1.2704 -0.2859
25673SOL     OW88743  11.142   1.983   4.452 -0.3867 -0.2374  0.2184
25673SOL    HW188744  11.144   1.944   4.364 -1.0876  1.0254 -0.3797
25673SOL    HW288745  11.057   2.028   4.456 -0.3532 -0.2499  1.5452
25674SOL     OW88746   2.437   9.685   8.906 -0.1770 -0.3679  0.4664
25674SOL    HW188747   2.504   9.750   8.885  0.8793 -1.1140  1.4204
25674SOL    HW288748   2.449   9.617   8.840 -1.4130  0.4394 -0.6563
25675SOL     OW88749   9.661   5.734   6.433 -0.3356  0.4403 -0.0614
25675SOL    HW188750   9.707   5.699   6.357 -0.4342  1.1116 -0.4423
25675SOL    HW288751   9.727   5.786   6.479 -0.4844  0.7049 -0.1425
25676SOL     OW88752   4.560  11.393   5.445  0.3504  0.4347 -0.1967
25676SOL    HW188753   4.643  11.396   5.396 -0.0891 -0.6770 -1.0377
25676SOL    HW288754   4.524  11.306   5.427 -0.9359  0.8449  0.2772
25677SOL     OW88755   6.844   8.234  10.694  0.1357 -0.5217 -0.1713
25677SOL    HW188756   6.883   8.147  10.692 -0.3919 -0.8496  1.7422
25677SOL    HW288757   6.914   8.290  10.729  0.0621 -0.4169 -0.1916
25678SOL     OW88758   9.870   5.611   8.441 -0.2677 -0.1593  0.1206
25678SOL    HW188759   9.869   5.545   8.372 -0.1513 -1.7953  1.6114
25678SOL    HW288760   9.941   5.671   8.417  0.3986 -1.2443 -0.6760
25679SOL     OW88761   8.626   3.911   7.162 -0.5311  0.6245 -0.1193
25679SOL    HW188762   8.554   3.975   7.159 -0.8627  0.4192  2.1454
25679SOL    HW288763   8.705   3.964   7.149 -0.8128  1.5087  1.5323
25680SOL     OW88764  12.368   5.812  11.121 -0.0943 -0.6266 -0.1898
25680SOL    HW188765  12.456   5.792  11.089  0.2434 -1.1903  1.0036
25680SOL    HW288766  12.354   5.903  11.098  1.0550 -0.3498  0.1345
25681SOL     OW88767  12.214  10.180   1.664 -0.1848 -0.4223  0.1966
25681SOL    HW188768  12.245  10.164   1.753  1.0335  0.3701 -0.0495
25681SOL    HW288769  12.268  10.124   1.609 -2.0319 -2.1614  0.0304
25682SOL     OW88770  10.275   0.243   6.020  0.2835  0.0842  0.4578
25682SOL    HW188771  10.218   0.298   5.966  1.2455  0.9702  0.3304
25682SOL    HW288772  10.359   0.243   5.974  0.8219  0.0263  1.4316
25683SOL     OW88773   7.223   1.000  11.748  0.8248 -0.1850 -0.3431
25683SOL    HW188774   7.270   1.032  11.825 -0.6587  2.5407 -0.4379
25683SOL    HW288775   7.151   0.947  11.784  0.1661  1.0382  0.1895
25684SOL     OW88776   4.165   5.370   6.719 -0.2132  0.0318  0.5538
25684SOL    HW188777   4.085   5.369   6.772  0.7726  1.6519  2.2019
25684SOL    HW288778   4.165   5.456   6.678  0.4661 -0.1380  0.1819
25685SOL     OW88779   4.192   1.698  10.298 -0.3045 -0.0727 -0.0387
25685SOL    HW188780   4.110   1.712  10.250 -1.2511 -0.0805  1.5232
25685SOL    HW288781   4.256   1.676  10.230 -1.5195  0.2222 -1.3224
25686SOL     OW88782   6.326   2.195  10.762  0.7370  0.1088  0.1886
25686SOL    HW188783   6.345   2.160  10.676 -0.4865  0.7990 -0.3929
25686SOL    HW288784   6.322   2.290  10.749 -0.1290  0.1782  0.8415
25687SOL     OW88785   4.210  11.951   1.558  0.2001  0.1369 -0.3760
25687SOL    HW188786   4.196  11.981   1.648  0.7646  1.7320 -0.7898
25687SOL    HW288787   4.290  11.996   1.530  0.0720 -0.3975 -1.6515
25688SOL     OW88788   0.892   0.682   4.870  0.6426  0.0687  0.2966
25688SOL    HW188789   0.935   0.744   4.930 -0.3364  1.0791 -0.0064
25688SOL    HW288790   0.943   0.689   4.789 -0.6956  2.1593 -0.4591
25689SOL     OW88791   0.022  12.373   5.082 -0.1516 -0.8533  0.3805
25689SOL    HW188792   0.067  12.357   5.165 -0.6886 -0.3271  0.7778
25689SOL    HW288793  -0.004  12.285   5.052  2.9127 -1.4552 -0.9268
25690SOL     OW88794   7.418  10.321  10.903 -0.7939 -0.0861  0.5459
25690SOL    HW188795   7.397  10.303  10.812 -1.3532  0.1215  0.6332
25690SOL    HW288796   7.508  10.354  10.901 -1.4648  1.8315 -0.1544
25691SOL     OW88797   0.834   0.246   0.502  0.3978 -0.4025 -0.1001
25691SOL    HW188798   0.831   0.309   0.574 -1.5318 -1.3947  0.7561
25691SOL    HW288799   0.814   0.162   0.542  1.0816 -1.2978 -1.5296
25692SOL     OW88800  12.920   7.677  13.555 -0.2720  0.3448 -0.3594
25692SOL    HW188801  12.977   7.605  13.528  0.3830  0.9851 -0.6952
25692SOL    HW288802  12.905   7.663  13.648  3.0169  1.8978  0.5423
25693SOL     OW88803   1.161  10.460  10.721 -0.0424 -0.1239  0.4668
25693SOL    HW188804   1.195  10.548  10.704  0.3742  0.1442  2.3921
25693SOL    HW288805   1.146  10.423  10.635  1.3691  1.2293 -0.4211
25694SOL     OW88806   1.227   8.273   6.487 -0.1425  0.2340  0.5780
25694SOL    HW188807   1.197   8.355   6.448 -1.0836  0.0024  0.7861
25694SOL    HW288808   1.168   8.206   6.449  1.3593 -0.5226 -0.5202
25695SOL     OW88809   1.322  12.190  13.478 -0.0806  0.5785  0.0414
25695SOL    HW188810   1.234  12.165  13.504  0.2058 -0.7850 -0.2657
25695SOL    HW288811   1.325  12.177  13.384  0.7707 -0.4689  0.1908
25696SOL     OW88812   5.305   9.660   4.561  0.4186  0.1193  0.4360
25696SOL    HW188813   5.323   9.747   4.527 -0.3651  0.5649  1.1197
25696SOL    HW288814   5.224   9.670   4.611 -0.2695 -1.2220 -0.3393
25697SOL     OW88815   1.485  10.835  10.724  0.6616 -0.3732 -0.1180
25697SOL    HW188816   1.472  10.867  10.813  0.1415  2.7623 -1.1855
25697SOL    HW288817   1.561  10.777  10.729  2.4160  1.9189  1.9417
25698SOL     OW88818  11.767   3.810   6.196 -0.2143  0.3693 -0.1061
25698SOL    HW188819  11.803   3.766   6.273  1.3657  0.3864 -0.7985
25698SOL    HW288820  11.743   3.897   6.228 -0.4073  0.0816  0.5569
25699SOL     OW88821  10.857   5.887   0.848  0.4024 -0.6404 -0.1433
25699SOL    HW188822  10.927   5.822   0.841  1.5333  0.1464  2.5523
25699SOL    HW288823  10.899   5.964   0.887 -1.6777  0.3280  0.3294
25700SOL     OW88824   5.166  11.172   7.387  0.2338 -0.1084 -0.4200
25700SOL    HW188825   5.079  11.195   7.355  0.6650  0.1252 -1.4918
25700SOL    HW288826   5.223  11.240   7.351  0.8031  0.0100  0.6562
25701SOL     OW88827   5.713   8.867   4.666  0.0268  0.0477 -0.2008
25701SOL    HW188828   5.687   8.887   4.756  0.0860  0.6601 -0.3145
25701SOL    HW288829   5.798   8.911   4.656 -0.1364  0.2626 -0.6615
25702SOL     OW88830   9.880   4.769   0.557 -0.6841  0.7097 -0.3670
25702SOL    HW188831   9.839   4.718   0.627 -2.1229  3.3479  0.8647
25702SOL    HW288832   9.849   4.728   0.476 -0.7186 -1.1010  0.5034
25703SOL     OW88833   1.945   5.675  10.651 -0.0554 -0.9400  0.0455
25703SOL    HW188834   1.881   5.735  10.690 -1.4878 -3.2341  1.5227
25703SOL    HW288835   2.029   5.702  10.689 -0.1929  1.5805 -1.2377
25704SOL     OW88836   2.420   2.209  12.513  0.1966  0.0717 -0.2450
25704SOL    HW188837   2.421   2.304  12.500 -0.0492  0.0476 -0.4361
25704SOL    HW288838   2.354   2.195  12.581 -0.1400 -0.0064 -0.5810
25705SOL     OW88839   1.996  12.284   5.814  0.0478  0.1258 -0.3498
25705SOL    HW188840   2.035  12.329   5.739  0.7409  2.8173  1.4909
25705SOL    HW288841   2.070  12.269   5.874 -0.6750 -0.9064  0.3132
25706SOL     OW88842   9.460   4.862  12.038  0.2394  0.1893  0.4146
25706SOL    HW188843   9.403   4.823  12.105  0.0925  0.6285  0.5506
25706SOL    HW288844   9.452   4.804  11.962 -0.2595  0.1577  0.4897
25707SOL     OW88845   3.942  10.891   8.408 -0.5113 -0.0484 -0.4141
25707SOL    HW188846   3.984  10.815   8.367  0.7638  0.6368 -0.4318
25707SOL    HW288847   3.928  10.952   8.336  0.4247  0.5793 -0.0795
25708SOL     OW88848   1.259  12.613  13.699 -0.4057  0.1510 -0.1727
25708SOL    HW188849   1.316  12.591  13.772 -2.5607 -0.8613  1.3244
25708SOL    HW288850   1.289  12.559  13.626  2.4897  1.9796 -0.5034
25709SOL     OW88851   5.715   0.176   6.434 -0.3472 -0.1388  0.1034
25709SOL    HW188852   5.631   0.174   6.478  0.6197  2.1176  2.3175
25709SOL    HW288853   5.769   0.111   6.480 -0.3934 -0.4310 -0.2473
25710SOL     OW88854  11.530   8.007   6.767  0.0753  0.3158  0.1940
25710SOL    HW188855  11.466   8.044   6.707  0.9023  3.9394  1.2712
25710SOL    HW288856  11.516   8.054   6.850  0.8224 -2.4450  2.0420
25711SOL     OW88857  10.524   8.653   5.006  0.1174  0.1530 -0.0365
25711SOL    HW188858  10.568   8.725   5.051 -1.3937  0.2838  1.3281
25711SOL    HW288859  10.565   8.650   4.920  2.7919  0.2389  1.1161
25712SOL     OW88860   0.380  12.342   7.353  0.0981 -0.1261  0.0703
25712SOL    HW188861   0.410  12.275   7.415 -0.1092  0.7432  1.1299
25712SOL    HW288862   0.307  12.384   7.398 -0.5650  0.0113 -1.0963
25713SOL     OW88863   3.276   9.161   7.082 -0.0504 -0.5936  0.0399
25713SOL    HW188864   3.332   9.140   7.007 -2.5649  0.9149 -2.4507
25713SOL    HW288865   3.192   9.120   7.062 -1.1767  0.9368  1.3747
25714SOL     OW88866   1.949   3.818   0.919  0.3969  0.4053  0.0624
25714SOL    HW188867   1.893   3.895   0.909  1.8912  1.3222 -1.7023
25714SOL    HW288868   2.034   3.854   0.946  1.1320 -0.6086 -0.8369
25715SOL     OW88869   4.830  13.114   6.752 -0.3610  0.4018 -0.2233
25715SOL    HW188870   4.886  13.178   6.797  0.7741 -0.9099  0.3173
25715SOL    HW288871   4.836  13.138   6.659  0.8067  0.5316 -0.1315
25716SOL     OW88872  11.162  12.496   9.338  0.6199 -0.9199 -0.2352
25716SOL    HW188873  11.197  12.512   9.425  0.6790 -2.1183 -0.0235
25716SOL    HW288874  11.225  12.437   9.297  1.5816  1.0276 -1.8002
25717SOL     OW88875   1.288   7.584   9.284  0.1978  0.0028  0.0373
25717SOL    HW188876   1.248   7.532   9.214 -0.3726  0.5323 -0.0309
25717SOL    HW288877   1.355   7.636   9.239  0.0176  0.1408 -0.0733
25718SOL     OW88878  10.238   5.287   5.764 -0.3147  0.2423 -0.5309
25718SOL    HW188879  10.196   5.227   5.702  0.0791  1.6790 -2.2735
25718SOL    HW288880  10.166   5.340   5.799 -0.3277  0.7292 -1.2734
25719SOL     OW88881   7.174  11.445  12.298  0.3962 -0.1556 -0.4617
25719SOL    HW188882   7.186  11.370  12.356 -0.7687 -0.5051 -0.6382
25719SOL    HW288883   7.234  11.511  12.332 -1.5716  0.3616  2.4259
25720SOL     OW88884   7.988   3.306   9.771 -0.5584  0.2695 -0.2346
25720SOL    HW188885   7.968   3.306   9.865 -1.7000 -1.9641 -0.3995
25720SOL    HW288886   7.927   3.370   9.734 -1.4908 -0.2459  0.3470
25721SOL     OW88887   6.567   9.216  10.284 -0.2500 -0.2175 -0.3745
25721SOL    HW188888   6.583   9.241  10.193  1.3953  2.5025  0.5348
25721SOL    HW288889   6.644   9.163  10.307 -0.8102 -1.1559 -0.6106
25722SOL     OW88890   0.191  13.274   7.151 -0.7062  0.1800  1.1435
25722SOL    HW188891   0.208  13.184   7.179 -0.3207 -0.2650 -0.4216
25722SOL    HW288892   0.131  13.266   7.077  0.5367  1.0539 -0.0319
25723SOL     OW88893   2.491   6.054   8.109  0.4569  0.0294  0.5966
25723SOL    HW188894   2.461   6.028   8.196  1.1523 -2.4635  0.1805
25723SOL    HW288895   2.418   6.103   8.072 -0.4219 -0.1187  2.0685
25724SOL     OW88896  10.526   2.196   8.960 -0.1980  0.0387  0.0223
25724SOL    HW188897  10.580   2.122   8.932 -0.1591 -1.3354  3.3315
25724SOL    HW288898  10.461   2.206   8.890  0.7180 -2.1396 -1.2356
25725SOL     OW88899   8.422   2.272   3.176 -0.2845 -0.1281  0.4740
25725SOL    HW188900   8.350   2.334   3.188  0.2594  0.6047  0.0396
25725SOL    HW288901   8.487   2.321   3.126  0.1263 -1.0790  0.0597
25726SOL     OW88902   0.822   7.519   6.058  0.2904  0.3758  0.1344
25726SOL    HW188903   0.865   7.591   6.013  0.5021  1.1311  1.4815
25726SOL    HW288904   0.892   7.458   6.081  0.2615  0.2769 -0.0363
25727SOL     OW88905   6.279   7.906  10.673  0.7085 -0.3228 -0.0985
25727SOL    HW188906   6.183   7.897  10.668  0.8260 -0.8956 -2.3344
25727SOL    HW288907   6.304   7.845  10.742 -0.5593  0.0893  0.7689
25728SOL     OW88908  11.005   9.715  10.139  0.1755 -0.1142  0.1156
25728SOL    HW188909  10.913   9.689  10.137  0.4559 -1.2772 -2.3567
25728SOL    HW288910  11.048   9.655  10.077  2.4356  0.9585  0.5413
25729SOL     OW88911   7.138   1.289   8.315  0.6613  0.3081  0.0447
25729SOL    HW188912   7.207   1.225   8.297  0.6569  0.5216 -0.7780
25729SOL    HW288913   7.152   1.357   8.249 -0.4003  0.3119 -0.1834
25730SOL     OW88914   2.972  12.913  11.499 -0.3415  0.3659 -0.5960
25730SOL    HW188915   2.999  12.824  11.520  0.1313  0.7639  0.5412
25730SOL    HW288916   3.051  12.966  11.508 -1.1520  1.3232  1.4325
25731SOL     OW88917   8.748   2.333   2.224  0.5203  0.1518 -0.5931
25731SOL    HW188918   8.794   2.326   2.141 -0.9629 -0.3051 -1.4181
25731SOL    HW288919   8.729   2.426   2.233  1.0479  0.2591 -0.5425
25732SOL     OW88920   7.990   7.901   4.688 -0.3646 -0.0981  0.4377
25732SOL    HW188921   7.948   7.932   4.768  1.2971 -0.9780  1.7391
25732SOL    HW288922   7.923   7.849   4.644 -1.2184  0.1022  1.4535
25733SOL     OW88923   3.895   1.028   8.750  0.0178 -0.0723 -0.0101
25733SOL    HW188924   3.834   1.101   8.741 -0.6289 -0.3993  1.3836
25733SOL    HW288925   3.980   1.069   8.762 -0.1342  0.4180 -0.5639
25734SOL     OW88926  10.680  12.447   4.317 -0.0283  0.3539 -0.7616
25734SOL    HW188927  10.607  12.409   4.366  0.0881  1.0742 -0.0008
25734SOL    HW288928  10.675  12.541   4.336  2.1182  0.2419  0.7616
25735SOL     OW88929   1.322   9.746   1.776  0.6121 -0.5087 -0.0755
25735SOL    HW188930   1.416   9.763   1.766  0.0323  2.3313 -1.5365
25735SOL    HW288931   1.290   9.734   1.687 -0.4962 -1.2111  0.3939
25736SOL     OW88932  10.409   5.671  13.628 -0.4961 -0.5813  0.0604
25736SOL    HW188933  10.346   5.608  13.663 -2.6667  1.6206  0.4329
25736SOL    HW288934  10.441   5.717  13.706  0.3994 -0.6398 -0.2694
25737SOL     OW88935   9.679   2.658  11.881 -0.4539 -0.6862  0.5478
25737SOL    HW188936   9.682   2.573  11.838  0.8923 -0.8713  0.9625
25737SOL    HW288937   9.650   2.719  11.813 -2.4315 -1.5934  0.4975
25738SOL     OW88938   7.979   7.110   7.721  0.1756 -0.3260  0.2148
25738SOL    HW188939   8.004   7.188   7.671 -1.7339  1.3089  1.6525
25738SOL    HW288940   7.923   7.060   7.661  0.4935 -0.0417 -0.3336
25739SOL     OW88941   1.458   8.170   8.071  0.0940  0.2920 -0.3878
25739SOL    HW188942   1.435   8.261   8.052 -1.2796  0.1277  0.4209
25739SOL    HW288943   1.553   8.172   8.082  0.0641  1.6677 -0.1499
25740SOL     OW88944   8.299  10.230   2.331  0.3437  0.0291  0.0679
25740SOL    HW188945   8.344  10.199   2.253  1.5771  1.5092  0.1556
25740SOL    HW288946   8.209  10.198   2.321  0.7903 -0.8761 -1.3176
25741SOL     OW88947   9.360  12.073   8.769 -0.0962  0.6824  0.1500
25741SOL    HW188948   9.367  12.027   8.686  1.5494 -0.3149  0.8035
25741SOL    HW288949   9.270  12.106   8.770 -0.7620 -0.9488 -1.1621
25742SOL     OW88950  10.887  12.553   9.388  0.5362 -0.5849 -0.0945
25742SOL    HW188951  10.837  12.488   9.338  1.1007 -1.2004  0.1177
25742SOL    HW288952  10.979  12.531   9.370  0.7380  0.7701 -0.7841
25743SOL     OW88953  11.291   3.165   9.037 -0.4734  0.0962 -0.2018
25743SOL    HW188954  11.336   3.178   9.120  0.5044 -0.4301 -0.6365
25743SOL    HW288955  11.218   3.106   9.059 -1.2400  1.2825  0.5811
25744SOL     OW88956   7.572   9.745  10.589 -0.3215  0.4055  0.4462
25744SOL    HW188957   7.667   9.735  10.600 -0.3039 -3.2535 -1.4718
25744SOL    HW288958   7.562   9.782  10.502 -0.5817 -1.7141 -0.4785
25745SOL     OW88959  10.425   8.873   6.676 -0.4742  0.7158 -0.7705
25745SOL    HW188960  10.426   8.848   6.584  0.3329  0.7064 -0.7612
25745SOL    HW288961  10.332   8.886   6.696 -0.5984  1.7072 -1.8569
25746SOL     OW88962   2.758   4.752   4.780  0.1703  0.4612  0.3662
25746SOL    HW188963   2.713   4.668   4.769 -0.9482  1.1746 -0.8657
25746SOL    HW288964   2.836   4.745   4.725 -1.1405  1.0127 -1.6939
25747SOL     OW88965  12.431   7.849   2.614 -0.5961 -0.3694 -0.2241
25747SOL    HW188966  12.415   7.922   2.674 -0.5628 -0.4981 -0.0584
25747SOL    HW288967  12.460   7.891   2.533 -2.9205 -0.0543 -0.9667
25748SOL     OW88968   5.555  10.050   0.019 -0.1828 -0.1501  0.1555
25748SOL    HW188969   5.573   9.969  -0.030 -0.4280  0.6077 -1.2314
25748SOL    HW288970   5.634  10.102   0.010 -0.8934  0.7599 -1.0154
25749SOL     OW88971  11.579   0.189   1.379 -0.4565  0.5639 -0.3444
25749SOL    HW188972  11.659   0.242   1.385 -0.4431  0.4824  0.2991
25749SOL    HW288973  11.576   0.160   1.288  0.0769  0.8348 -0.4527
25750SOL     OW88974   1.696   3.654   4.040 -0.4815  0.9447  1.0098
25750SOL    HW188975   1.778   3.626   4.081  0.2814  0.0236 -1.0571
25750SOL    HW288976   1.630   3.595   4.076 -0.0540  0.9511  1.8283
25751SOL     OW88977   3.552   3.239   0.094 -0.2223  0.0868 -0.6544
25751SOL    HW188978   3.544   3.214   0.186 -0.5612 -2.2603 -1.2390
25751SOL    HW288979   3.462   3.248   0.063 -0.1333  3.1233 -0.2936
25752SOL     OW88980   1.109   7.494  12.400  0.2829  0.2408  0.0440
25752SOL    HW188981   1.095   7.522  12.491  0.5094 -1.2909  0.5856
25752SOL    HW288982   1.203   7.506  12.386  0.3563 -0.1073  0.2283
25753SOL     OW88983   3.097   9.956   4.777 -0.1520  0.1289  0.4759
25753SOL    HW188984   3.067   9.905   4.701  0.3637 -0.0330  0.3761
25753SOL    HW288985   3.021  10.007   4.803 -0.6721 -0.6562  0.5443
25754SOL     OW88986  12.140   9.580   4.951  0.2903  0.3563  0.6026
25754SOL    HW188987  12.202   9.572   4.878 -0.2387  0.3626  0.1469
25754SOL    HW288988  12.192   9.560   5.029 -0.0476 -4.0851 -0.0396
25755SOL     OW88989   4.548   0.782   7.791 -0.2552 -0.2361 -0.3178
25755SOL    HW188990   4.566   0.875   7.804  0.2526 -0.1481 -1.5188
25755SOL    HW288991   4.457   0.778   7.762 -0.6551 -0.2348  0.8817
25756SOL     OW88992   0.267   4.449   2.516 -1.0054 -0.1083  0.3593
25756SOL    HW188993   0.267   4.392   2.593 -1.4581  1.1692  1.3533
25756SOL    HW288994   0.353   4.438   2.477 -0.0011  0.7146  2.2414
25757SOL     OW88995   0.495   9.133   6.876 -0.0192 -0.0699 -0.2863
25757SOL    HW188996   0.482   9.217   6.832 -0.1970 -1.0618 -2.2213
25757SOL    HW288997   0.538   9.078   6.811 -0.9928 -1.8487  0.5132
25758SOL     OW88998   3.269   1.738   5.333 -0.4017 -0.3500  0.3646
25758SOL    HW188999   3.188   1.706   5.293 -1.0189  0.5101  0.9021
25758SOL    HW289000   3.330   1.664   5.325 -0.8024 -0.5511 -1.2493
25759SOL     OW89001   8.763  11.325  12.731 -0.7042 -0.2595 -0.2279
25759SOL    HW189002   8.718  11.294  12.652  1.2757 -0.2518 -1.4210
25759SOL    HW289003   8.798  11.411  12.706 -1.3896  0.4710  1.2117
25760SOL     OW89004  10.602   3.827   1.695 -0.2884 -0.0371  0.0320
25760SOL    HW189005  10.559   3.743   1.710 -1.6281  0.5513 -0.3267
25760SOL    HW289006  10.660   3.812   1.620  0.6996 -1.0346  0.9786
25761SOL     OW89007   3.975   5.146   6.280 -0.0749 -0.0747 -0.3752
25761SOL    HW189008   3.995   5.056   6.306 -1.9326 -0.3498  0.2765
25761SOL    HW289009   3.881   5.155   6.295  0.2357  2.3114  0.5769
25762SOL     OW89010   6.730   3.574   4.202  0.6848 -0.8138  0.0006
25762SOL    HW189011   6.651   3.576   4.147  0.3001  0.1948  0.5542
25762SOL    HW289012   6.724   3.492   4.250 -1.1382  0.1125  1.5344
25763SOL     OW89013   3.028  12.667  11.524 -0.1898 -0.0348  0.4154
25763SOL    HW189014   2.957  12.646  11.585 -1.2623 -1.4107 -1.1972
25763SOL    HW289015   3.096  12.603  11.544  0.5223  1.0905  1.7601
25764SOL     OW89016   8.400  11.089   5.991 -0.2645  0.3603  0.5995
25764SOL    HW189017   8.412  11.149   5.918 -1.8469  0.7112  0.5946
25764SOL    HW289018   8.377  11.145   6.065 -0.1659 -0.1172  1.0033
25765SOL     OW89019   0.585   1.290  11.603  0.0811 -0.4369 -0.3171
25765SOL    HW189020   0.617   1.218  11.549 -0.0860 -0.0391 -0.9510
25765SOL    HW289021   0.502   1.257  11.639 -0.3625 -0.2899 -1.1930
25766SOL     OW89022   0.828   9.388   8.384  0.3377  0.1707 -0.0080
25766SOL    HW189023   0.816   9.419   8.474 -1.4005  1.6007 -0.6748
25766SOL    HW289024   0.798   9.461   8.330 -0.8084 -1.4873 -1.7167
25767SOL     OW89025   0.813   8.501   4.540 -0.4422 -0.4016 -0.0450
25767SOL    HW189026   0.781   8.485   4.628  0.4650  0.6004  0.4884
25767SOL    HW289027   0.740   8.544   4.495 -0.1962  1.0689  0.8914
25768SOL     OW89028   1.886  12.432  13.343 -0.2430 -0.2347 -0.2695
25768SOL    HW189029   1.791  12.417  13.341 -0.5141  1.3984 -1.3693
25768SOL    HW289030   1.915  12.388  13.423 -1.6325 -2.2881 -0.7998
25769SOL     OW89031  10.723  10.489   9.434 -0.2171  0.2602  0.0684
25769SOL    HW189032  10.745  10.577   9.464 -0.4189  0.3342  0.0049
25769SOL    HW289033  10.722  10.436   9.514 -2.9726  0.9125  0.5706
25770SOL     OW89034   3.477   0.166  10.431  0.3678 -0.2496  0.3889
25770SOL    HW189035   3.476   0.122  10.346 -0.5986 -2.0108  1.2683
25770SOL    HW289036   3.508   0.255  10.411  0.1919 -0.6182 -1.7842
25771SOL     OW89037   9.606   0.304   0.463 -1.1661 -0.2661  0.1683
25771SOL    HW189038   9.644   0.216   0.460 -1.5730 -0.4209 -0.7112
25771SOL    HW289039   9.538   0.298   0.530 -0.8206 -0.4591  0.5137
25772SOL     OW89040   1.533  12.773  11.486 -0.0538  0.3332  0.4814
25772SOL    HW189041   1.575  12.791  11.570  0.5052  0.0042  0.2763
25772SOL    HW289042   1.465  12.709  11.508 -1.0756  1.5511  0.9628
25773SOL     OW89043   7.739   8.985   5.494  0.5904 -0.3298 -0.3080
25773SOL    HW189044   7.768   9.076   5.483 -0.1400 -0.2688 -2.0671
25773SOL    HW289045   7.809   8.933   5.456  0.7351 -0.4815  0.1581
25774SOL     OW89046  13.033   3.402   2.495 -0.1496 -0.1268  0.2854
25774SOL    HW189047  13.084   3.441   2.423 -3.4736 -0.2021 -2.3669
25774SOL    HW289048  12.977   3.473   2.526  0.8442 -0.2616  2.5385
25775SOL     OW89049   7.804  11.814  12.550  0.1456  0.1665  0.2973
25775SOL    HW189050   7.854  11.828  12.470  0.7613  0.2808  0.6980
25775SOL    HW289051   7.864  11.838  12.620 -0.0066 -1.0049  0.8440
25776SOL     OW89052   4.209   2.525   1.356 -0.4832 -0.0148  0.1959
25776SOL    HW189053   4.199   2.558   1.267 -0.6117 -0.1535  0.1580
25776SOL    HW289054   4.149   2.450   1.360 -2.5276  1.5808  1.2149
25777SOL     OW89055   4.503  12.395  11.998  0.5468 -0.7685 -0.0391
25777SOL    HW189056   4.570  12.419  11.934 -0.4893 -0.9353 -1.2314
25777SOL    HW289057   4.547  12.333  12.056  0.9418 -2.4388 -1.9692
25778SOL     OW89058   0.543   5.784   7.006  0.4472 -0.1319 -0.2864
25778SOL    HW189059   0.589   5.713   7.051  0.5297 -0.1378 -0.3781
25778SOL    HW289060   0.497   5.830   7.075 -1.5914 -1.7095 -0.4942
25779SOL     OW89061  12.569   5.463  10.206  0.3168  0.9757 -0.1620
25779SOL    HW189062  12.548   5.370  10.221  2.7456  0.1519 -1.3518
25779SOL    HW289063  12.584   5.498  10.294  0.7749 -0.1722  0.2445
25780SOL     OW89064   0.938   6.422   1.767  0.0433  0.1099 -0.0051
25780SOL    HW189065   0.899   6.467   1.843  2.1860  1.7943  0.2018
25780SOL    HW289066   0.923   6.329   1.783 -0.7795  0.5117  1.7793
25781SOL     OW89067  10.181   7.354   8.006 -0.1795 -0.3100 -0.4058
25781SOL    HW189068  10.258   7.314   8.046  0.6138  1.6576  0.1880
25781SOL    HW289069  10.114   7.352   8.075 -0.1588 -0.6380 -0.3937
25782SOL     OW89070   8.847  10.375   8.167 -0.2333  0.1971  0.1011
25782SOL    HW189071   8.907  10.422   8.109 -0.0158  1.8962  1.6309
25782SOL    HW289072   8.894  10.293   8.188  0.7394  0.6607 -0.1897
25783SOL     OW89073   3.757   4.939   5.697 -0.0955 -0.1170 -0.4945
25783SOL    HW189074   3.699   5.013   5.676 -0.5102 -0.4499 -0.5185
25783SOL    HW289075   3.707   4.861   5.675  0.3744 -0.4095 -0.5444
25784SOL     OW89076   4.086   8.204   9.989  0.4280  0.2884 -0.2036
25784SOL    HW189077   4.129   8.275   9.942  1.3669  0.6362  1.1184
25784SOL    HW289078   4.025   8.247  10.049  0.7969 -0.0162  0.4073
25785SOL     OW89079   8.669   4.001  11.426  0.3145 -0.1929 -0.1946
25785SOL    HW189080   8.586   4.023  11.385 -0.0234  0.4337  0.7833
25785SOL    HW289081   8.666   3.906  11.438 -0.8625 -0.0258  1.0464
25786SOL     OW89082   7.196   8.689   8.008 -0.1670  0.1679 -0.0080
25786SOL    HW189083   7.215   8.662   8.098 -0.4297  0.4393  0.1287
25786SOL    HW289084   7.106   8.658   7.993 -0.9213  1.9818  0.5498
25787SOL     OW89085   7.169   4.512   7.948 -0.3658 -0.6249  0.0389
25787SOL    HW189086   7.243   4.464   7.985 -1.5427 -1.5292  1.2703
25787SOL    HW289087   7.176   4.498   7.854  1.6972  0.2904  0.0059
25788SOL     OW89088  12.538   6.381   6.190  0.2372  0.3629  0.4593
25788SOL    HW189089  12.617   6.334   6.162 -1.4645 -2.0175 -0.7305
25788SOL    HW289090  12.524   6.352   6.280 -1.1282 -2.1883 -0.4425
25789SOL     OW89091   9.366   4.838   4.283 -0.1060  0.4598  0.1712
25789SOL    HW189092   9.310   4.794   4.347  1.2824 -1.3667  0.1988
25789SOL    HW289093   9.315   4.915   4.257 -0.4640  1.7677  3.9933
25790SOL     OW89094   4.855  13.697   7.417 -0.1621  0.3317 -0.1209
25790SOL    HW189095   4.829  13.785   7.388  1.1337  1.6378  2.3061
25790SOL    HW289096   4.949  13.693   7.396  0.2563  0.3937  1.6424
25791SOL     OW89097   8.720  13.278   7.324  0.9563  0.2467 -0.6019
25791SOL    HW189098   8.651  13.219   7.292  2.4661 -0.9556 -1.8019
25791SOL    HW289099   8.763  13.310   7.245  1.1998  1.7430  0.1034
25792SOL     OW89100   5.317   8.791   7.264  0.1355 -0.4822  0.4298
25792SOL    HW189101   5.267   8.841   7.200 -1.6970 -1.1058  1.2851
25792SOL    HW289102   5.395   8.844   7.280 -1.4781  1.9328  0.9582
25793SOL     OW89103   5.582   6.537   5.137 -0.3828 -0.1809  0.2891
25793SOL    HW189104   5.595   6.609   5.198  0.4213  0.6245 -0.8025
25793SOL    HW289105   5.534   6.575   5.063  1.8933 -0.1656 -1.2853
25794SOL     OW89106  13.638   7.436   9.870 -0.3593  0.3823  0.1452
25794SOL    HW189107  13.563   7.377   9.879 -0.2735 -0.0056 -1.3202
25794SOL    HW289108  13.696   7.415   9.942 -0.3167 -1.3709 -0.3688
25795SOL     OW89109   3.333   2.172   2.573 -0.7451  0.0165 -0.3850
25795SOL    HW189110   3.427   2.165   2.592 -0.4577 -1.1831 -1.9953
25795SOL    HW289111   3.296   2.089   2.604 -1.6732  1.2117  1.9619
25796SOL     OW89112   7.040   6.343  10.330  0.2986  0.1376 -0.4469
25796SOL    HW189113   6.990   6.261  10.325 -0.1183  0.3046  0.6656
25796SOL    HW289114   6.979   6.410  10.301  0.2428  0.1966 -0.1984
25797SOL     OW89115   5.247   0.999   8.239 -0.3634  0.2588  0.0774
25797SOL    HW189116   5.285   1.012   8.152  0.2598  0.6023  0.3930
25797SOL    HW289117   5.153   0.990   8.223 -0.3550  1.1816 -0.5503
25798SOL     OW89118   7.446   6.554  13.349  0.7510 -0.3454  0.4532
25798SOL    HW189119   7.535   6.535  13.318  0.9726  2.7524 -1.2172
25798SOL    HW289120   7.392   6.544  13.271 -0.5082 -2.4715  1.5196
25799SOL     OW89121   3.752   2.146   5.624  0.6181  0.3283 -0.0277
25799SOL    HW189122   3.661   2.121   5.608  0.6567  0.6825 -0.8470
25799SOL    HW289123   3.788   2.164   5.537  1.6970 -0.5492  0.2076
25800SOL     OW89124   0.809  13.536   9.055  0.1702 -0.0814  0.4770
25800SOL    HW189125   0.852  13.595   9.116  0.3127  0.7423 -0.3936
25800SOL    HW289126   0.834  13.568   8.968 -0.6425 -0.7500 -0.0298
25801SOL     OW89127   5.416   4.258  10.753 -0.3805 -0.4560 -0.2196
25801SOL    HW189128   5.385   4.340  10.791  0.0785 -0.4671  0.1888
25801SOL    HW289129   5.511   4.262  10.762 -0.3085 -0.7265 -0.8318
25802SOL     OW89130   0.873   1.808   3.645 -0.0561 -0.4210 -0.3916
25802SOL    HW189131   0.894   1.897   3.617 -0.6203 -0.2028 -0.1222
25802SOL    HW289132   0.807   1.818   3.713  1.7590 -0.9032  1.5357
25803SOL     OW89133  11.744   5.916  12.815  0.4929  0.1059  0.2613
25803SOL    HW189134  11.733   5.962  12.898 -0.7586 -1.0736  0.7880
25803SOL    HW289135  11.747   5.823  12.839  1.4543 -0.1959 -0.9087
25804SOL     OW89136  10.154  10.873   4.243 -0.6078  0.2253  0.2216
25804SOL    HW189137  10.109  10.789   4.241 -0.0542 -0.0762  0.1580
25804SOL    HW289138  10.184  10.883   4.334 -0.9185  0.4922  0.2986
25805SOL     OW89139   2.156   6.033   6.050  0.2322  0.0102  0.2209
25805SOL    HW189140   2.088   6.099   6.062  1.6014  1.8067 -1.1337
25805SOL    HW289141   2.232   6.084   6.020  2.2074 -1.8707  1.7538
25806SOL     OW89142   3.319  12.960  12.452 -0.0754 -0.1019 -0.1728
25806SOL    HW189143   3.238  12.913  12.471  0.2472 -0.7622 -0.4076
25806SOL    HW289144   3.306  12.997  12.365  0.2698 -1.1058 -0.6696
25807SOL     OW89145   9.866   2.029   9.555  0.8304  0.1762 -0.4179
25807SOL    HW189146   9.867   2.124   9.565 -2.6351  0.3058 -0.2296
25807SOL    HW289147   9.840   1.996   9.641 -0.5315 -0.7200 -1.1365
25808SOL     OW89148   0.599  12.075  13.593 -0.3578 -0.7687 -0.1225
25808SOL    HW189149   0.676  12.109  13.547 -0.1430 -1.1682 -0.0690
25808SOL    HW289150   0.557  12.152  13.630  1.2318 -0.6822  1.7264
25809SOL     OW89151  10.430  11.686   2.425 -0.4953 -0.0934 -0.3703
25809SOL    HW189152  10.421  11.748   2.497 -0.3147  0.3111 -0.6922
25809SOL    HW289153  10.441  11.741   2.347  0.3362 -0.5163 -0.5691
25810SOL     OW89154   8.626   9.608   1.880 -0.4357  1.1888 -0.3804
25810SOL    HW189155   8.558   9.544   1.857  0.1122  0.6537 -0.5078
25810SOL    HW289156   8.659   9.639   1.796  0.3315  0.5416 -0.3217
25811SOL     OW89157  13.116   0.690   1.810  0.1802 -0.0727 -0.9953
25811SOL    HW189158  13.199   0.642   1.805  0.0195 -0.4860  0.0207
25811SOL    HW289159  13.116   0.727   1.899 -1.0698 -0.7346 -0.7009
25812SOL     OW89160   7.304   1.999   6.778 -0.6172 -0.1812 -0.0051
25812SOL    HW189161   7.289   1.991   6.872 -1.3602  2.8882  0.2468
25812SOL    HW289162   7.223   1.969   6.737 -1.1862  0.6780  0.4771
25813SOL     OW89163   5.922   3.618  10.131 -0.7772 -0.3258 -0.3779
25813SOL    HW189164   5.996   3.673  10.156 -1.0303  1.0938 -2.4699
25813SOL    HW289165   5.951   3.529  10.152  2.4104 -0.0620 -2.7827
25814SOL     OW89166   7.072   7.439   6.453 -0.4711 -0.4752 -0.0159
25814SOL    HW189167   7.017   7.412   6.526  1.2284  2.6774  2.7573
25814SOL    HW289168   7.149   7.382   6.457 -0.7786 -0.8771  0.1092
25815SOL     OW89169   6.679  11.810   5.920  0.2205  0.1400 -0.4443
25815SOL    HW189170   6.612  11.807   5.852  0.4766  1.0484 -0.7601
25815SOL    HW289171   6.688  11.904   5.941  0.6639 -0.0593  0.3164
25816SOL     OW89172  13.061  10.216  10.110 -0.1217 -0.3120 -0.0840
25816SOL    HW189173  13.096  10.136  10.071 -0.9235 -0.1438 -1.1895
25816SOL    HW289174  13.138  10.260  10.148  0.2743 -1.7489  0.8614
25817SOL     OW89175   6.654   3.907   1.114  0.6165 -0.4431 -0.0051
25817SOL    HW189176   6.680   3.927   1.204  0.5648 -2.0282  0.4019
25817SOL    HW289177   6.727   3.937   1.060  1.5519 -1.2637  0.7631
25818SOL     OW89178  11.103   3.169   6.107 -0.1175 -0.0060  0.4824
25818SOL    HW189179  11.011   3.166   6.078  0.0396  0.6968 -0.1264
25818SOL    HW289180  11.118   3.260   6.130  0.7922  0.1604 -0.6698
25819SOL     OW89181   1.082   9.812  10.985  0.1050  0.2575  0.5489
25819SOL    HW189182   1.100   9.729  11.029 -1.2890 -0.8807 -0.9018
25819SOL    HW289183   1.104   9.879  11.050  0.5354 -1.2599  2.0401
25820SOL     OW89184   9.142   5.394   1.880  0.2728  0.4788 -0.5605
25820SOL    HW189185   9.051   5.369   1.863  0.2946  0.7909 -1.1759
25820SOL    HW289186   9.181   5.403   1.793  0.7777  0.7564 -0.3107
25821SOL     OW89187  13.365   0.408  11.696 -0.3635 -0.2655 -0.2174
25821SOL    HW189188  13.454   0.443  11.687 -0.8690  0.9203 -0.6707
25821SOL    HW289189  13.379   0.317  11.722  0.9785  0.3712  1.4751
25822SOL     OW89190   3.072  11.845  12.296 -0.2725 -0.1749 -0.4515
25822SOL    HW189191   3.001  11.828  12.234 -1.3324  1.2149  0.3506
25822SOL    HW289192   3.088  11.939  12.289  0.6782 -0.2689  0.2590
25823SOL     OW89193   5.403   0.593   3.482 -0.7155  0.5619 -0.4992
25823SOL    HW189194   5.407   0.500   3.457  0.7792  0.8492 -1.4559
25823SOL    HW289195   5.415   0.593   3.576 -3.8969 -0.3901  0.0298
25824SOL     OW89196   0.424   2.713  10.454  0.3909 -0.0134  0.3459
25824SOL    HW189197   0.336   2.716  10.492  0.7341  0.1754  1.1345
25824SOL    HW289198   0.482   2.696  10.528  0.9930 -0.4950 -0.2215
25825SOL     OW89199   3.997   5.578  12.545 -0.8647  0.4807  0.3264
25825SOL    HW189200   4.042   5.657  12.516  0.0161 -0.2873 -0.4425
25825SOL    HW289201   3.935   5.559  12.474  0.6513 -0.8855 -0.6809
25826SOL     OW89202  11.683   0.143   6.783  0.0547  0.3294 -0.1855
25826SOL    HW189203  11.696   0.060   6.738  0.9063  0.6821 -0.6234
25826SOL    HW289204  11.588   0.158   6.781 -0.1240 -0.7146  0.0744
25827SOL     OW89205  11.694   3.443   6.126  0.5353  0.2484  0.1026
25827SOL    HW189206  11.638   3.512   6.091  0.2601  0.0392  0.1343
25827SOL    HW289207  11.743   3.486   6.196  2.3075  1.1276 -1.5643
25828SOL     OW89208  10.671   6.300   8.095  0.2904 -0.1890 -0.2356
25828SOL    HW189209  10.691   6.211   8.066  0.5841 -0.2754  0.2215
25828SOL    HW289210  10.664   6.294   8.191  2.2858  0.6257  0.0277
25829SOL     OW89211   4.550   1.485   8.137 -0.2121  0.4801 -0.1149
25829SOL    HW189212   4.578   1.493   8.046 -0.1975  0.8120 -0.0836
25829SOL    HW289213   4.493   1.408   8.138 -1.0799  1.0862 -0.6260
25830SOL     OW89214   0.480   3.307   8.584 -0.2258 -0.3926 -0.2645
25830SOL    HW189215   0.480   3.211   8.588 -1.3328 -0.3770  1.0085
25830SOL    HW289216   0.572   3.331   8.595  0.2162 -1.3067 -1.6709
25831SOL     OW89217   2.111   5.664   3.717 -0.3262 -0.0562  0.1288
25831SOL    HW189218   2.102   5.676   3.622  0.9241 -0.1303 -0.0254
25831SOL    HW289219   2.178   5.728   3.743  1.5701 -2.0242  0.4080
25832SOL     OW89220   8.564   3.494   1.399  0.1239  0.1986  0.4228
25832SOL    HW189221   8.603   3.424   1.347 -1.6676 -0.8463  0.3985
25832SOL    HW289222   8.519   3.549   1.334  0.5897  0.7408  0.5550
25833SOL     OW89223  12.567   3.140   8.076 -0.2664  0.0108 -0.1048
25833SOL    HW189224  12.640   3.080   8.059 -0.1816  0.3366 -0.9277
25833SOL    HW289225  12.602   3.203   8.139  0.0248 -0.0758 -0.1770
25834SOL     OW89226   3.107   9.371   5.816 -0.3705  0.6109  0.0238
25834SOL    HW189227   3.126   9.401   5.905 -0.1453  1.6697 -0.3701
25834SOL    HW289228   3.189   9.330   5.788 -0.4860  0.1472  0.3471
25835SOL     OW89229   9.087   2.161  11.224  0.0939 -0.2101  0.5644
25835SOL    HW189230   9.147   2.211  11.280 -1.2222  0.6854  1.2122
25835SOL    HW289231   9.142   2.132  11.151  1.3773  0.3534  1.2664
25836SOL     OW89232  13.230  11.933   5.202 -0.0148 -0.2578 -0.7902
25836SOL    HW189233  13.241  12.013   5.254 -0.9616 -0.2454 -0.5956
25836SOL    HW289234  13.139  11.909   5.215 -0.1797 -0.4420 -2.2044
25837SOL     OW89235  10.306   5.154   9.933 -0.3511  0.4645  0.1747
25837SOL    HW189236  10.211   5.146   9.927 -0.1792 -2.5970  0.3668
25837SOL    HW289237  10.320   5.210  10.010 -1.9131  2.9039 -1.1526
25838SOL     OW89238   0.857  13.701  10.129  0.1232 -0.1065 -0.2531
25838SOL    HW189239   0.889  13.621  10.086 -1.0625  0.1488 -1.7146
25838SOL    HW289240   0.918  13.769  10.101  0.6927 -0.3537  0.3706
25839SOL     OW89241   5.521   1.864   0.333 -0.3256 -0.0758 -0.4667
25839SOL    HW189242   5.480   1.821   0.258 -0.3018  0.4971 -0.8168
25839SOL    HW289243   5.515   1.957   0.313  0.3206  0.0537 -0.0913
25840SOL     OW89244   0.396  11.596   9.571  0.1904  0.0759  0.0872
25840SOL    HW189245   0.417  11.608   9.664 -0.2511 -1.7885  0.4678
25840SOL    HW289246   0.303  11.619   9.565 -0.1426 -1.1211  0.4116
25841SOL     OW89247  11.530   6.392  10.050  0.6077  0.2388 -0.0901
25841SOL    HW189248  11.591   6.324  10.079 -1.5044 -0.9070  2.1053
25841SOL    HW289249  11.509   6.369   9.960  1.0387 -1.1949  0.1498
25842SOL     OW89250  10.686   1.137   6.153  0.3231 -0.5924 -0.1491
25842SOL    HW189251  10.736   1.199   6.099  1.0255  0.7925  1.9515
25842SOL    HW289252  10.623   1.192   6.201  0.2023 -1.6399  0.9507
25843SOL     OW89253  12.354   8.011  11.082  0.1054  0.4147 -0.7030
25843SOL    HW189254  12.377   7.925  11.045 -0.5600  0.4175 -1.1324
25843SOL    HW289255  12.381   8.005  11.173  0.2737 -0.1764 -0.7857
25844SOL     OW89256   9.596   4.429  13.423  0.0833  0.6529  0.2455
25844SOL    HW189257   9.574   4.522  13.425 -1.2309  0.5206 -2.7916
25844SOL    HW289258   9.512   4.384  13.423  0.3742 -0.2097 -3.3645
25845SOL     OW89259   3.715   6.036  10.492  0.2277  0.1679 -0.0323
25845SOL    HW189260   3.715   5.999  10.404 -0.8135 -0.1523  0.0825
25845SOL    HW289261   3.628   6.077  10.501  0.6113  0.8883  0.5650
25846SOL     OW89262  11.852   6.883  12.958  0.1545  0.2624  0.1023
25846SOL    HW189263  11.811   6.802  12.988  0.1031  0.6215  1.0433
25846SOL    HW289264  11.785   6.950  12.973 -0.1284  0.3657 -1.4817
25847SOL     OW89265  13.244   2.292   3.293  0.1395 -0.1660 -0.0937
25847SOL    HW189266  13.160   2.253   3.319 -0.2952  0.6577 -0.2295
25847SOL    HW289267  13.292   2.303   3.375  0.9659 -2.4584 -0.1693
25848SOL     OW89268   9.376  11.497   1.071 -0.2296  0.0021 -0.3088
25848SOL    HW189269   9.415  11.413   1.045  1.6362 -0.2691  2.7778
25848SOL    HW289270   9.399  11.557   1.000  2.6772 -1.0644 -0.4143
25849SOL     OW89271  11.265   7.855   9.685 -0.4912 -0.1062  0.0864
25849SOL    HW189272  11.191   7.863   9.745 -0.6422  0.7205 -0.1912
25849SOL    HW289273  11.339   7.889   9.734 -0.1207 -1.6189  0.6295
25850SOL     OW89274   4.304   9.999   5.993 -0.1250 -0.1730 -0.1659
25850SOL    HW189275   4.344   9.959   6.070  0.5399 -0.7109 -0.7754
25850SOL    HW289276   4.219   9.957   5.986  1.3181 -3.1129 -1.9664
25851SOL     OW89277  10.443   2.249   5.067  0.2529 -0.2122 -0.4468
25851SOL    HW189278  10.494   2.173   5.096 -0.4955 -0.8369 -0.7327
25851SOL    HW289279  10.509   2.317   5.052  0.8172 -0.4023  1.0025
25852SOL     OW89280   8.118  10.664   7.988 -0.2280  0.0881  0.4641
25852SOL    HW189281   8.079  10.576   7.985  0.2208 -0.1232  0.7455
25852SOL    HW289282   8.070  10.713   7.922  0.6576 -0.8457 -0.9211
25853SOL     OW89283  11.040   8.780  12.992  0.3532 -0.1980 -0.1833
25853SOL    HW189284  11.066   8.869  12.967  0.8343 -0.4010 -0.3920
25853SOL    HW289285  11.116   8.744  13.037  0.2337 -0.5854 -0.2878
25854SOL     OW89286   4.630   0.688   3.530 -0.0813 -0.0995 -0.1035
25854SOL    HW189287   4.718   0.685   3.567 -0.2480 -1.0116  0.2518
25854SOL    HW289288   4.582   0.619   3.576 -0.2561 -1.4262 -2.1034
25855SOL     OW89289   8.384  12.751   1.300  0.4994  0.1985 -0.0613
25855SOL    HW189290   8.302  12.717   1.266  1.1347 -2.7462  1.0214
25855SOL    HW289291   8.419  12.807   1.230 -1.7209  0.4013 -1.0673
25856SOL     OW89292   1.922   7.285  13.230  0.4445  0.2127  0.5325
25856SOL    HW189293   2.009   7.315  13.255  0.6329  0.1284 -0.0174
25856SOL    HW289294   1.919   7.194  13.260  0.5425  0.2170  0.5568
25857SOL     OW89295  13.091  10.197   4.464 -0.3587 -0.2783 -0.5198
25857SOL    HW189296  13.003  10.199   4.500 -0.6886 -0.6040 -1.2781
25857SOL    HW289297  13.081  10.154   4.378  0.1182  1.8997 -1.7382
25858SOL     OW89298  10.943   7.004   3.330  0.0140 -0.2507  0.0429
25858SOL    HW189299  11.017   7.004   3.270  0.3095 -1.1351  0.3858
25858SOL    HW289300  10.967   6.941   3.398 -0.7349 -0.0007  0.5539
25859SOL     OW89301  12.836  12.593  12.152 -0.2923 -0.4652 -0.4842
25859SOL    HW189302  12.741  12.603  12.141 -0.6840 -0.7213  1.9589
25859SOL    HW289303  12.861  12.664  12.211  0.6171 -1.5873  0.5660
25860SOL     OW89304   7.965   2.185   6.261 -0.1088 -0.1620  0.0402
25860SOL    HW189305   8.008   2.100   6.251  0.0635  0.1498 -2.9614
25860SOL    HW289306   7.902   2.189   6.189 -1.0239  1.7630  0.8640
25861SOL     OW89307  10.970   1.949   0.268  0.5045  0.4502 -0.1245
25861SOL    HW189308  10.900   1.943   0.202 -0.3035  0.9969  0.6557
25861SOL    HW289309  11.033   2.011   0.230  1.1126 -0.8292 -1.2932
25862SOL     OW89310   3.551   7.603   8.201 -0.3446 -0.2309  0.3632
25862SOL    HW189311   3.581   7.522   8.244 -1.7761 -0.5851  0.7614
25862SOL    HW289312   3.598   7.673   8.247 -0.5341 -0.7232  1.3304
25863SOL     OW89313   5.295   9.562  13.243 -0.3255 -0.4424  0.3863
25863SOL    HW189314   5.338   9.646  13.227  0.7452 -1.1989 -0.9074
25863SOL    HW289315   5.277   9.561  13.338 -0.7590  1.3970  0.3530
25864SOL     OW89316  13.407   8.258  12.762 -0.0636  0.7332  0.6088
25864SOL    HW189317  13.426   8.305  12.681  3.0130  1.9976  1.8930
25864SOL    HW289318  13.483   8.201  12.775 -0.9695 -0.2233  2.1164
25865SOL     OW89319   9.750   7.277  13.247 -0.1954 -0.0827 -0.2081
25865SOL    HW189320   9.843   7.258  13.261 -0.9618 -3.4878  1.2782
25865SOL    HW289321   9.726   7.333  13.322  0.3753 -0.2238  0.0884
25866SOL     OW89322  11.238   8.652   7.630 -0.1942  0.1847 -0.2465
25866SOL    HW189323  11.250   8.734   7.679  3.2982  0.4253 -1.2619
25866SOL    HW289324  11.273   8.671   7.543 -1.7797 -1.6714 -1.3716
25867SOL     OW89325   0.874   9.413   5.129  0.3606 -0.2057 -0.6742
25867SOL    HW189326   0.801   9.352   5.118  0.4686 -0.9497  1.9977
25867SOL    HW289327   0.833   9.500   5.133 -0.2289 -0.4890 -0.5459
25868SOL     OW89328  10.588  11.000  12.383  0.1680 -0.2770  0.1504
25868SOL    HW189329  10.648  11.049  12.439  1.1536 -1.1601 -0.1016
25868SOL    HW289330  10.598  10.909  12.410 -0.8262 -0.4727 -0.1196
25869SOL     OW89331   7.930   8.984  10.820  0.0456  0.6006 -0.0396
25869SOL    HW189332   7.920   9.067  10.774  1.5026  0.5161 -0.5738
25869SOL    HW289333   8.025   8.971  10.826 -0.1358 -1.6124 -1.0443
25870SOL     OW89334  11.109   5.715   7.314  0.1592  0.5284  0.1687
25870SOL    HW189335  11.180   5.771   7.283  0.1960 -0.4852 -1.7219
25870SOL    HW289336  11.045   5.716   7.243 -1.2295  0.5212  1.3658
25871SOL     OW89337  12.345   6.995   1.550  0.7062  0.0752  0.1663
25871SOL    HW189338  12.368   6.905   1.528  0.1508 -0.4729  1.6654
25871SOL    HW289339  12.336   6.994   1.646  2.0139  2.0404  0.3611
25872SOL     OW89340  13.055  11.035  12.345  0.6212 -0.3990  0.2736
25872SOL    HW189341  13.129  11.094  12.361  0.7891 -0.8498  1.2145
25872SOL    HW289342  13.084  10.980  12.272  0.8381  0.0334  0.0249
25873SOL     OW89343  10.636   5.519   4.780  0.2280  0.0846  0.0245
25873SOL    HW189344  10.688   5.599   4.770 -0.5186  0.4912 -0.7719
25873SOL    HW289345  10.546   5.550   4.784  0.0606 -0.5403  2.3515
25874SOL     OW89346  12.343   9.576  11.614  0.0446 -0.1474  0.1989
25874SOL    HW189347  12.338   9.617  11.701  0.0555 -0.6060  0.4208
25874SOL    HW289348  12.435   9.579  11.591 -0.1323  1.1745 -0.3888
25875SOL     OW89349   0.448   5.839   8.276 -0.0830 -0.0326  0.3281
25875SOL    HW189350   0.412   5.917   8.318  1.8991  0.5123  1.1051
25875SOL    HW289351   0.494   5.872   8.199  1.6629 -0.2438  1.2298
25876SOL     OW89352  11.821  12.304   6.804  0.4848 -0.4326 -0.0014
25876SOL    HW189353  11.909  12.340   6.821 -0.0789  1.3275 -0.5844
25876SOL    HW289354  11.785  12.361   6.736 -1.5908 -0.2999  1.1394
25877SOL     OW89355   7.245   8.166   5.162 -0.2998  0.2487  0.1986
25877SOL    HW189356   7.151   8.163   5.182 -0.3203 -0.7441  0.0103
25877SOL    HW289357   7.260   8.256   5.135 -1.0286  0.6376  1.0245
25878SOL     OW89358  12.284   6.054  10.963  0.1331 -0.2447 -0.1822
25878SOL    HW189359  12.251   6.137  10.928 -1.2503 -0.7170 -0.0769
25878SOL    HW289360  12.213   5.991  10.946  1.2544 -1.4705 -0.4941
25879SOL     OW89361   8.375   8.628   2.111  0.0065  0.2018 -0.0066
25879SOL    HW189362   8.418   8.714   2.119 -0.3963  0.7800 -2.9652
25879SOL    HW289363   8.360   8.601   2.201  2.7269  1.9055  1.0955
25880SOL     OW89364  10.427   5.511   3.639 -0.2938 -0.1638 -0.6269
25880SOL    HW189365  10.480   5.563   3.700 -0.6258 -1.7768  1.1196
25880SOL    HW289366  10.397   5.574   3.574  1.6328  1.2724 -0.1971
25881SOL     OW89367   2.933  12.758   5.102 -0.3044  0.0785  0.3055
25881SOL    HW189368   2.847  12.746   5.142 -1.6025 -0.2891 -2.3557
25881SOL    HW289369   2.980  12.676   5.120 -0.9829 -0.2228  0.7288
25882SOL     OW89370  10.772   9.050   5.721  0.0590  0.8324 -0.5582
25882SOL    HW189371  10.841   9.101   5.677  0.2173  1.6760  0.6220
25882SOL    HW289372  10.797   8.959   5.706  2.9567  1.0258  1.9366
25883SOL     OW89373   7.484   8.667   5.618  0.1946  0.2294 -0.0013
25883SOL    HW189374   7.501   8.741   5.676  1.2438  0.2476 -0.2976
25883SOL    HW289375   7.571   8.637   5.591 -0.1735 -1.4846  0.5715
25884SOL     OW89376   5.874  10.370   4.388  0.0820 -0.2346  0.2123
25884SOL    HW189377   5.881  10.290   4.335  0.5090 -0.8257  1.1414
25884SOL    HW289378   5.827  10.342   4.467  0.5731  0.3472  0.7164
25885SOL     OW89379   5.233   9.131  11.753 -0.1747  0.2003  0.3385
25885SOL    HW189380   5.214   9.048  11.796  0.8755  0.1581  0.7596
25885SOL    HW289381   5.247   9.193  11.824 -0.9670  0.7489  0.0275
25886SOL     OW89382   5.800   8.797   8.257 -0.7200 -0.0568 -0.0081
25886SOL    HW189383   5.717   8.812   8.211  0.3016 -0.5280 -2.0997
25886SOL    HW289384   5.790   8.845   8.339 -1.8138  2.6902 -1.6093
25887SOL     OW89385   5.645   9.631   9.741  0.0318  0.2792 -0.0301
25887SOL    HW189386   5.566   9.685   9.735 -0.5860 -0.5658  0.2045
25887SOL    HW289387   5.647   9.581   9.660 -0.2921 -0.5028  0.4299
25888SOL     OW89388   0.673   8.030  13.404 -0.0309 -0.5644  0.3827
25888SOL    HW189389   0.621   8.066  13.333  0.8548 -1.1098 -0.5640
25888SOL    HW289390   0.724   8.104  13.437 -1.4280  0.0047  1.3953
25889SOL     OW89391  10.218   7.849   1.364  0.5700 -0.1549 -0.3575
25889SOL    HW189392  10.139   7.864   1.416 -0.5783 -0.9526 -1.7933
25889SOL    HW289393  10.217   7.919   1.298  1.4363  0.2075 -0.0130
25890SOL     OW89394  11.102   3.989   3.473  0.2545 -0.3268 -0.4237
25890SOL    HW189395  11.013   3.989   3.439 -0.2030  1.0945  0.6990
25890SOL    HW289396  11.145   4.061   3.426  0.8048 -0.9644 -0.9121
25891SOL     OW89397  13.377   0.118   3.847 -0.2482 -0.0674  0.1070
25891SOL    HW189398  13.466   0.126   3.881  1.2001 -1.4805 -2.9614
25891SOL    HW289399  13.365   0.023   3.835 -1.6883  0.1949 -0.7390
25892SOL     OW89400  11.207   1.577  10.242  0.3122  0.1839  0.0099
25892SOL    HW189401  11.184   1.595  10.333  2.1722 -3.0526  1.2918
25892SOL    HW289402  11.302   1.564  10.244  0.1431 -2.0606 -1.9080
25893SOL     OW89403   7.228  12.897   5.812 -0.4681 -0.1298 -0.1580
25893SOL    HW189404   7.134  12.895   5.827 -0.5421 -1.1039 -0.7005
25893SOL    HW289405   7.240  12.964   5.744 -0.5272  1.4930  1.3601
25894SOL     OW89406  11.347   1.580   8.176 -0.0096 -0.4371  0.3309
25894SOL    HW189407  11.311   1.547   8.094 -0.7329  1.5402 -0.1984
25894SOL    HW289408  11.304   1.664   8.189 -0.1518 -0.8277  2.9183
25895SOL     OW89409  10.498   6.845   9.672 -0.5822  0.7842  0.1406
25895SOL    HW189410  10.428   6.784   9.649 -0.0781  0.5019 -0.6807
25895SOL    HW289411  10.551   6.798   9.736 -1.4134  1.1906  1.1589
25896SOL     OW89412   9.477   2.903   2.548  0.2011 -0.4669  0.4204
25896SOL    HW189413   9.525   2.980   2.519  1.4542 -1.5065 -0.3676
25896SOL    HW289414   9.489   2.902   2.643  0.1018  0.3344  0.4531
25897SOL     OW89415  12.567   8.013   5.367  0.0201 -0.1571 -0.3704
25897SOL    HW189416  12.616   8.055   5.297  1.3634 -0.8863  0.1122
25897SOL    HW289417  12.476   8.017   5.338  0.1669  2.3735 -0.6899
25898SOL     OW89418   6.225   5.951   6.233  0.2066 -0.0586  0.4151
25898SOL    HW189419   6.298   5.922   6.179  0.6194  1.0345  0.3589
25898SOL    HW289420   6.232   5.899   6.314 -1.1163 -2.5718 -0.9560
25899SOL     OW89421   5.957   0.102   7.772  0.0977 -0.3013 -0.5855
25899SOL    HW189422   5.904   0.149   7.707 -1.0719  1.3312  1.4027
25899SOL    HW289423   5.920   0.014   7.775 -2.1354  0.5992  0.2441
25900SOL     OW89424   1.588   5.954   1.386  0.2102 -0.0181  0.1756
25900SOL    HW189425   1.591   5.963   1.481  0.2090 -0.0023  0.1741
25900SOL    HW289426   1.526   5.883   1.371 -1.9004  1.7400  0.0897
25901SOL     OW89427   4.831  13.481   5.706  0.3298  0.1293 -0.0676
25901SOL    HW189428   4.911  13.431   5.689  0.8584 -0.1168  2.6231
25901SOL    HW289429   4.847  13.567   5.668  0.4089 -0.9114 -2.5891
25902SOL     OW89430   4.807  13.458   0.518  0.5622  0.1793  0.0252
25902SOL    HW189431   4.847  13.515   0.452 -0.7115  0.2870 -0.6824
25902SOL    HW289432   4.787  13.517   0.590 -0.0991  0.5110 -0.4160
25903SOL     OW89433   7.700   1.672   6.621  0.0948  0.2967 -0.2806
25903SOL    HW189434   7.782   1.627   6.599  1.2851  1.9018  0.6410
25903SOL    HW289435   7.640   1.649   6.550  1.3477 -0.8808 -1.0112
25904SOL     OW89436  12.357  12.249   5.381  0.5360  0.0294  0.7280
25904SOL    HW189437  12.330  12.233   5.471 -0.1691  2.3146  0.9805
25904SOL    HW289438  12.420  12.321   5.387  0.0460  0.6086 -0.6254
25905SOL     OW89439   2.686   4.076  12.438 -0.2044  0.3128  0.6106
25905SOL    HW189440   2.636   4.030  12.506  0.0115 -0.6199  0.1562
25905SOL    HW289441   2.620   4.129  12.392 -0.4040  0.7049  1.3288
25906SOL     OW89442  13.492   3.549  13.008 -0.6789 -0.7676  0.0636
25906SOL    HW189443  13.555   3.592  12.951 -0.5773 -1.0102 -0.0073
25906SOL    HW289444  13.441   3.493  12.950 -1.3052 -0.1770  0.0371
25907SOL     OW89445   2.110  13.273   7.612  0.0829  0.0629  0.1248
25907SOL    HW189446   2.147  13.343   7.559  0.7442 -0.2716  0.1430
25907SOL    HW289447   2.038  13.238   7.558  0.6228 -0.1468 -0.4664
25908SOL     OW89448  10.631   4.937   8.474  0.2279  0.2603  0.4151
25908SOL    HW189449  10.603   4.882   8.402 -0.4828 -0.9225  1.5627
25908SOL    HW289450  10.639   4.878   8.548  1.8054  1.2859  1.1237
25909SOL     OW89451   1.139   9.704   5.695  0.4971 -0.0581 -0.0234
25909SOL    HW189452   1.108   9.737   5.780 -0.9143  0.9748 -0.9043
25909SOL    HW289453   1.197   9.773   5.663 -0.2151  0.2995 -0.5819
25910SOL     OW89454  10.847   8.788   9.544  0.0504 -0.5569 -0.3431
25910SOL    HW189455  10.931   8.825   9.519 -0.0970 -0.5909 -0.9137
25910SOL    HW289456  10.820   8.737   9.467 -0.1179 -1.1956  0.1291
25911SOL     OW89457   1.736   4.742   6.860 -0.0966 -0.9245 -0.1297
25911SOL    HW189458   1.798   4.690   6.911 -0.1870 -3.0652 -2.0210
25911SOL    HW289459   1.682   4.786   6.925  1.4146 -1.4568  1.5702
25912SOL     OW89460   6.952  11.333  12.547 -0.5206 -0.1836  0.6103
25912SOL    HW189461   7.013  11.381  12.603 -0.8830  0.9569  0.0681
25912SOL    HW289462   6.901  11.402  12.503  0.3421 -0.9807 -1.8018
25913SOL     OW89463  11.189   0.629  10.280 -0.4436  0.2621 -0.4954
25913SOL    HW189464  11.158   0.718  10.262 -0.3978  0.6987  1.3434
25913SOL    HW289465  11.265   0.642  10.337  0.3730 -0.9328 -1.2741
25914SOL     OW89466   2.670   8.690  11.661 -0.6483 -0.0740 -0.0668
25914SOL    HW189467   2.690   8.736  11.580 -0.1925 -1.2696 -0.6631
25914SOL    HW289468   2.639   8.604  11.633 -2.2334  0.1047  0.9930
25915SOL     OW89469   6.335   8.690  10.858 -0.0991  0.4021  0.7722
25915SOL    HW189470   6.325   8.631  10.782 -1.9919  1.3542  0.2198
25915SOL    HW289471   6.370   8.771  10.821 -2.8269  1.5497  0.4981
25916SOL     OW89472  11.319   2.148  13.700 -0.0687 -0.0754  0.0451
25916SOL    HW189473  11.258   2.139  13.773 -0.3752 -0.7268 -0.2824
25916SOL    HW289474  11.282   2.094  13.630  0.1763  0.6010 -0.6261
25917SOL     OW89475   2.639  12.486  12.561  0.2976  0.4686 -0.2983
25917SOL    HW189476   2.588  12.497  12.641  0.9741  1.4312  0.0050
25917SOL    HW289477   2.642  12.391  12.548  1.9117  0.1480  1.9543
25918SOL     OW89478  12.806  11.528   0.687  0.0859  0.7229  0.2880
25918SOL    HW189479  12.811  11.581   0.607  2.4262 -2.0640 -1.5978
25918SOL    HW289480  12.855  11.578   0.752  1.1604  1.4837 -1.0452
25919SOL     OW89481   5.757   4.914   9.109 -0.2590  0.0542  0.2052
25919SOL    HW189482   5.770   4.822   9.087  0.0821  0.4765 -1.5199
25919SOL    HW289483   5.724   4.913   9.199  0.9572 -1.6728  0.6860
25920SOL     OW89484  12.033   5.217   8.675  0.0086  0.3307  0.1359
25920SOL    HW189485  11.969   5.149   8.655 -0.2800  0.0077  1.9878
25920SOL    HW289486  11.987   5.299   8.657  0.0681  0.0897 -1.2682
25921SOL     OW89487   4.654   0.557   5.075 -0.0548 -0.0718  0.3731
25921SOL    HW189488   4.581   0.501   5.047 -0.8666 -0.3000  2.7490
25921SOL    HW289489   4.679   0.522   5.161  2.0008  0.8381  0.1884
25922SOL     OW89490   9.150   0.638   6.889 -0.2049 -0.4317 -0.0273
25922SOL    HW189491   9.228   0.583   6.899  0.2804  0.1191 -0.7010
25922SOL    HW289492   9.083   0.593   6.940 -0.0669 -2.1630 -1.2406
25923SOL     OW89493   1.700   8.589   6.100 -0.4269 -0.0195 -0.7050
25923SOL    HW189494   1.761   8.654   6.134 -0.6255  0.2278 -0.8145
25923SOL    HW289495   1.742   8.559   6.019 -0.9899  1.0107 -1.4117
25924SOL     OW89496   5.521  11.028  12.242  0.4488  0.2474 -0.2775
25924SOL    HW189497   5.466  11.044  12.319 -2.4101 -1.0890 -1.8474
25924SOL    HW289498   5.561  10.943  12.258 -3.6161 -2.2789 -1.7880
25925SOL     OW89499   5.496   7.368  11.549  0.3845  0.3821 -0.0107
25925SOL    HW189500   5.492   7.450  11.500 -0.4606  0.6159  0.4292
25925SOL    HW289501   5.506   7.394  11.640  0.9837 -0.0286  0.0491
25926SOL     OW89502   3.825  11.588  12.735 -0.3290  0.5788  0.4461
25926SOL    HW189503   3.902  11.540  12.763 -0.3891 -0.1032 -0.4865
25926SOL    HW289504   3.827  11.582  12.639 -0.6206  2.0065  0.3232
25927SOL     OW89505  10.597  10.734  12.423  0.0551  0.3296 -0.1626
25927SOL    HW189506  10.623  10.689  12.343  0.3226 -1.8008  1.0291
25927SOL    HW289507  10.604  10.667  12.491 -0.5019  1.9604  1.5926
25928SOL     OW89508  11.880  13.459  12.279 -0.1133 -0.0596 -0.1279
25928SOL    HW189509  11.955  13.401  12.269 -0.3584 -0.5925  0.9884
25928SOL    HW289510  11.905  13.539  12.232  1.4902  0.0742  0.8774
25929SOL     OW89511  12.061   0.314  12.501  0.1733 -0.7377  0.7305
25929SOL    HW189512  12.147   0.307  12.459  0.7416 -0.2305  1.7582
25929SOL    HW289513  12.078   0.291  12.592 -0.4843  0.7732  1.2650
25930SOL     OW89514   3.809   0.536   6.632 -0.2257  0.4156 -0.4548
25930SOL    HW189515   3.749   0.514   6.561  1.1059  0.4896 -1.6406
25930SOL    HW289516   3.892   0.557   6.588  0.3121  1.5978  1.0396
25931SOL     OW89517  11.789   2.517   3.307  0.3400  0.3961  0.4020
25931SOL    HW189518  11.830   2.435   3.334 -2.1710 -1.2503 -0.3879
25931SOL    HW289519  11.762   2.559   3.388 -0.6361 -0.8773  0.7618
25932SOL     OW89520  11.551  12.986   9.905  0.2744  0.8773 -0.4855
25932SOL    HW189521  11.471  12.933   9.904  2.1612 -2.2383  0.2409
25932SOL    HW289522  11.547  13.037   9.824 -0.2424 -2.8901 -3.0917
25933SOL     OW89523  13.620  10.146   7.707  0.2236  0.0558  0.1398
25933SOL    HW189524  13.641  10.054   7.722 -1.0750  0.0289  2.1242
25933SOL    HW289525  13.543  10.163   7.762  0.1798  2.2279 -0.4833
25934SOL     OW89526   6.151   2.497  10.798 -0.1781  0.1540 -0.2935
25934SOL    HW189527   6.177   2.530  10.884 -1.0060  1.3115 -0.4565
25934SOL    HW289528   6.131   2.576  10.748 -1.9588 -0.5645 -0.8002
25935SOL     OW89529   3.701   6.545  12.791 -0.2574  0.4760  0.5711
25935SOL    HW189530   3.788   6.540  12.832 -0.2838 -1.1599  0.4997
25935SOL    HW289531   3.657   6.466  12.819 -0.6154 -0.2610 -1.8277
25936SOL     OW89532   0.838  13.052   2.579  0.4638  0.1628  0.1913
25936SOL    HW189533   0.745  13.044   2.556  0.3914  0.4475  0.3755
25936SOL    HW289534   0.851  12.987   2.649  0.3068  0.4036  0.4450
25937SOL     OW89535  13.503  12.681   9.139 -0.4430 -0.2030  0.5825
25937SOL    HW189536  13.546  12.607   9.183 -1.2850 -0.8219  0.4037
25937SOL    HW289537  13.496  12.749   9.206  1.0786  0.0318  0.5255
25938SOL     OW89538   7.396  10.819   2.513  0.3236 -0.3478  0.6407
25938SOL    HW189539   7.443  10.902   2.518  0.1920 -0.1639 -0.7713
25938SOL    HW289540   7.305  10.841   2.533 -0.2421  0.3961 -2.3262
25939SOL     OW89541   2.124   3.488  11.984 -0.6861 -0.4784 -0.0418
25939SOL    HW189542   2.115   3.506  12.077  0.7061  1.1398 -0.1638
25939SOL    HW289543   2.172   3.405  11.980 -0.1684 -0.2241  0.6931
25940SOL     OW89544  10.076   2.015   7.096 -0.3252  0.5448 -0.8083
25940SOL    HW189545  10.105   2.019   7.187 -2.1902  0.3308 -0.1658
25940SOL    HW289546  10.104   2.098   7.058  0.7105  0.5192 -0.1353
25941SOL     OW89547  12.380   6.974   9.569  0.4351  0.0721 -0.0908
25941SOL    HW189548  12.353   6.969   9.477 -2.3558  0.2473  0.6337
25941SOL    HW289549  12.374   7.067   9.590  0.3316 -0.0591  0.4658
25942SOL     OW89550  12.591  11.163  12.879 -0.1038  0.6521 -0.2983
25942SOL    HW189551  12.513  11.196  12.922  0.3881  1.1269  0.2496
25942SOL    HW289552  12.646  11.240  12.865  0.7243  0.1906  0.2985
25943SOL     OW89553   7.304  12.127  13.464 -0.4614  0.4707 -0.4620
25943SOL    HW189554   7.350  12.104  13.384  0.5031  0.0248  0.1992
25943SOL    HW289555   7.234  12.062  13.471 -0.1450  0.1096 -0.6049
25944SOL     OW89556   7.863  10.632   5.337  0.3508  0.3732 -0.0561
25944SOL    HW189557   7.791  10.602   5.282  0.2667  0.5631 -0.0487
25944SOL    HW289558   7.881  10.557   5.394  0.3702  0.2139 -0.2698
25945SOL     OW89559  11.694   5.402   7.836  0.0744  0.2329  0.1026
25945SOL    HW189560  11.737   5.337   7.780 -1.0272 -0.1206 -0.3507
25945SOL    HW289561  11.685   5.479   7.780 -1.5263 -0.3011 -0.4145
25946SOL     OW89562   1.487   5.073   1.893 -0.1875 -0.1870 -0.1750
25946SOL    HW189563   1.497   5.168   1.899  1.3173 -0.2563 -1.0029
25946SOL    HW289564   1.423   5.060   1.823  0.3027  0.2175 -0.7089
25947SOL     OW89565   8.471   7.429   2.848  0.0418 -0.2317  0.7350
25947SOL    HW189566   8.489   7.503   2.789 -2.8969  0.0977  0.0741
25947SOL    HW289567   8.486   7.352   2.793  1.3448 -0.1030  0.8726
25948SOL     OW89568  12.504  10.147   0.147 -0.1884 -0.4790 -0.2517
25948SOL    HW189569  12.548  10.072   0.187 -0.7351 -0.0469  1.2119
25948SOL    HW289570  12.455  10.188   0.218 -3.2730 -1.1254 -1.8450
25949SOL     OW89571   2.429   5.699   4.454  0.1517  0.4250  0.1033
25949SOL    HW189572   2.340   5.706   4.488  0.4646 -0.1118  1.0768
25949SOL    HW289573   2.484   5.687   4.531  1.0742  0.7231 -0.4838
25950SOL     OW89574   2.747  11.512   2.082  0.1963 -0.2491  0.5123
25950SOL    HW189575   2.697  11.545   2.007 -0.9551 -1.3837  0.7408
25950SOL    HW289576   2.733  11.417   2.079 -0.0708 -0.2973  2.2942
25951SOL     OW89577   3.997  13.221  11.749 -0.4012  0.2484 -0.1311
25951SOL    HW189578   3.952  13.170  11.816  1.1238 -1.5795 -0.4177
25951SOL    HW289579   3.957  13.194  11.666 -2.0782  2.2828 -0.0574
25952SOL     OW89580  13.032   2.117   5.274  0.1509 -0.4273  0.5679
25952SOL    HW189581  13.008   2.026   5.291 -1.0760 -0.6872 -1.9653
25952SOL    HW289582  12.951   2.158   5.242  0.5573  1.7102  2.0708
25953SOL     OW89583  11.800   2.616  11.592  0.6779  0.1718  0.3311
25953SOL    HW189584  11.805   2.531  11.548 -1.0757 -0.1040  0.6170
25953SOL    HW289585  11.816   2.679  11.522 -0.8379 -0.3128 -0.5095
25954SOL     OW89586   9.831   9.049  13.117  0.0524  0.5736  0.1918
25954SOL    HW189587   9.829   9.122  13.179 -0.2473 -0.1102  1.0086
25954SOL    HW289588   9.824   8.971  13.172  0.3512 -0.0712 -0.6706
25955SOL     OW89589   9.230  12.364  10.279 -0.1587 -0.3283 -0.0800
25955SOL    HW189590   9.316  12.338  10.312  0.7893 -0.3003 -2.3257
25955SOL    HW289591   9.185  12.281  10.261 -0.7543 -0.3463  1.3210
25956SOL     OW89592  12.931   9.271   6.842  0.1837 -0.5556  0.7202
25956SOL    HW189593  13.008   9.242   6.793  0.2151  1.7750 -0.7496
25956SOL    HW289594  12.857   9.254   6.783 -0.2016 -0.8660  1.2789
25957SOL     OW89595  12.283   2.160   6.416  0.2493 -0.5574 -0.1579
25957SOL    HW189596  12.319   2.221   6.481 -0.1952  0.9315 -1.2481
25957SOL    HW289597  12.219   2.108   6.465 -1.2926  1.6253  0.3432
25958SOL     OW89598   1.739   4.728  12.139  0.0524  0.2787 -0.0903
25958SOL    HW189599   1.831   4.729  12.113  0.3583 -0.1055  0.8949
25958SOL    HW289600   1.692   4.692  12.064  0.6846  0.6817 -0.6756
25959SOL     OW89601   7.259   1.337   7.794 -0.5901  0.1905 -0.1576
25959SOL    HW189602   7.279   1.293   7.711 -1.5451 -0.2233 -0.1803
25959SOL    HW289603   7.345   1.349   7.836 -0.2299 -0.9659 -0.5238
25960SOL     OW89604  10.461   7.124  11.683  0.6262  0.0378 -0.3691
25960SOL    HW189605  10.365   7.119  11.683  0.6114  0.0896 -1.1112
25960SOL    HW289606  10.489   7.057  11.745  0.1525 -1.5463 -1.7598
25961SOL     OW89607  11.424   5.414  13.407 -0.2783  0.0949  0.0306
25961SOL    HW189608  11.410   5.507  13.425 -1.7687 -0.2978  1.1264
25961SOL    HW289609  11.363   5.369  13.466  1.8099 -1.6600  1.0012
25962SOL     OW89610   7.251   0.408   1.931 -0.2932  0.0222 -0.3973
25962SOL    HW189611   7.206   0.442   1.853 -0.8279  0.0019 -0.1030
25962SOL    HW289612   7.284   0.487   1.975 -0.7622  0.1084 -0.1848
25963SOL     OW89613   1.625  13.043  11.363  0.6285 -0.7213  0.0460
25963SOL    HW189614   1.699  13.082  11.410  0.3560 -0.5510  0.3434
25963SOL    HW289615   1.565  13.116  11.348  1.5525 -0.3768 -2.2792
25964SOL     OW89616   1.821  11.117  10.833  0.4073  0.0670 -0.5640
25964SOL    HW189617   1.781  11.078  10.910  1.7991 -0.0472  0.1382
25964SOL    HW289618   1.833  11.209  10.855  0.0192  0.2232 -0.9883
25965SOL     OW89619   7.290   5.961   6.143  0.3779  0.3105  0.6705
25965SOL    HW189620   7.343   6.034   6.175 -0.5786  1.8749 -1.1142
25965SOL    HW289621   7.201   5.996   6.140 -0.2018 -1.1397  0.3456
25966SOL     OW89622   8.283   5.795  12.503 -0.1698  0.0927  0.4639
25966SOL    HW189623   8.376   5.779  12.493 -0.5089 -1.3671 -0.7863
25966SOL    HW289624   8.275   5.845  12.584  1.6130 -0.3708  0.9610
25967SOL     OW89625  11.802   1.754  12.991 -0.1247 -0.5603 -0.2307
25967SOL    HW189626  11.706   1.749  12.986 -0.2708  1.3606  0.0448
25967SOL    HW289627  11.831   1.749  12.900 -0.5650 -0.1985 -0.3966
25968SOL     OW89628   4.539   2.480  10.739 -0.2791 -1.1125  0.0292
25968SOL    HW189629   4.612   2.536  10.710 -1.1904 -0.5434 -1.2808
25968SOL    HW289630   4.551   2.473  10.834  0.7614  0.0170  0.0193
25969SOL     OW89631   0.741  12.107   1.164  0.2380 -0.4287  0.5017
25969SOL    HW189632   0.718  12.039   1.228  1.7384 -0.6494  0.8370
25969SOL    HW289633   0.786  12.174   1.216  0.0554  0.1499 -0.0723
25970SOL     OW89634  13.424  10.664   6.234  0.1975 -0.2917  0.0587
25970SOL    HW189635  13.330  10.649   6.223  0.4802 -0.9856 -1.6979
25970SOL    HW289636  13.456  10.684   6.146  1.7871 -0.5532  0.5370
25971SOL     OW89637   5.288   9.396  11.615 -0.1229 -0.0275  0.1025
25971SOL    HW189638   5.344   9.358  11.683 -0.3764  0.6126  0.6823
25971SOL    HW289639   5.350   9.431  11.551  0.2189  1.6701  1.2763
25972SOL     OW89640   0.461   2.190   5.172 -0.5207 -0.4120  0.3713
25972SOL    HW189641   0.409   2.267   5.194 -2.4646 -1.6309  0.2968
25972SOL    HW289642   0.429   2.163   5.086  0.0864 -1.3301  0.4209
25973SOL     OW89643   6.580  12.536   1.988  0.2762 -0.1249  0.2298
25973SOL    HW189644   6.635  12.489   1.924  1.1300  0.7364  0.3092
25973SOL    HW289645   6.639  12.553   2.061 -0.5304 -0.5533  1.0061
25974SOL     OW89646  10.548  13.193   9.446 -0.1473 -0.0219  0.2492
25974SOL    HW189647  10.469  13.243   9.467 -0.9098 -0.6084 -1.0732
25974SOL    HW289648  10.607  13.257   9.407 -1.2600 -0.1419 -1.7727
25975SOL     OW89649   8.210  12.797   5.162 -0.0727  0.7396  0.2706
25975SOL    HW189650   8.174  12.725   5.111  0.3219 -0.1769  1.2362
25975SOL    HW289651   8.241  12.860   5.097 -1.7328  0.7267 -0.5953
25976SOL     OW89652   5.016   9.169   2.566  0.0923  0.7774 -0.5736
25976SOL    HW189653   5.007   9.254   2.522 -2.2311  0.4549 -0.8344
25976SOL    HW289654   5.092   9.129   2.524  1.0636  2.5835 -0.6512
25977SOL     OW89655   3.618   7.135  11.121 -0.1049 -0.2585  0.4154
25977SOL    HW189656   3.634   7.177  11.205 -1.0655  0.2275  0.3792
25977SOL    HW289657   3.641   7.202  11.056  0.1383 -0.4479  0.3055
25978SOL     OW89658  12.767   6.606   1.743 -0.0775  0.1560  0.3672
25978SOL    HW189659  12.742   6.520   1.777 -1.1658 -0.2501 -1.3132
25978SOL    HW289660  12.735   6.668   1.808 -0.4172 -0.6561  0.9950
25979SOL     OW89661   5.269   0.993   4.161  0.0033 -1.0354 -0.3963
25979SOL    HW189662   5.249   1.084   4.142  1.0156 -0.7860 -0.3274
25979SOL    HW289663   5.356   0.979   4.124 -0.5091 -2.2401 -1.2414
25980SOL     OW89664  12.142  11.124   1.166  0.9119  0.2333  0.3170
25980SOL    HW189665  12.069  11.136   1.228 -0.0247  1.4811 -0.9523
25980SOL    HW289666  12.199  11.200   1.182  0.7283  0.4953 -0.2408
25981SOL     OW89667  12.485   2.459  10.427 -0.3621  0.1046  0.2576
25981SOL    HW189668  12.469   2.365  10.437 -2.4669  0.4688  0.6760
25981SOL    HW289669  12.410   2.491  10.377  0.1349  1.6438  0.4512
25982SOL     OW89670   3.428   4.765   0.944  0.3832 -0.0008  0.0145
25982SOL    HW189671   3.401   4.827   1.012 -0.5746  0.2409 -0.5657
25982SOL    HW289672   3.374   4.688   0.960  1.5420 -0.7012  0.7106
25983SOL     OW89673   6.791   6.952  12.768 -0.7942  0.3053 -0.3331
25983SOL    HW189674   6.723   6.897  12.729 -0.4903 -0.4806  0.2252
25983SOL    HW289675   6.806   6.914  12.854  0.4099  0.4054 -0.4823
25984SOL     OW89676  10.442   7.314  13.681 -0.2724 -0.2224  0.3148
25984SOL    HW189677  10.371   7.313  13.616 -1.2792  1.1489  1.3161
25984SOL    HW289678  10.475   7.404  13.679  2.2692 -1.0874 -0.9031
25985SOL     OW89679   0.156  11.926   9.152 -0.2026 -0.6179 -0.5158
25985SOL    HW189680   0.234  11.873   9.169 -0.9128 -1.0964  1.5830
25985SOL    HW289681   0.187  11.999   9.099  2.1020  0.2300  1.8089
25986SOL     OW89682   5.653   6.772  10.253  0.3268  0.0664 -0.0882
25986SOL    HW189683   5.740   6.809  10.237 -0.4127  1.3974 -1.2660
25986SOL    HW289684   5.658   6.684  10.216  1.0719  0.2671 -0.5004
25987SOL     OW89685   1.307   4.650   1.243 -0.3755  0.0303 -0.6678
25987SOL    HW189686   1.358   4.726   1.270  0.3328 -0.7611  0.3174
25987SOL    HW289687   1.359   4.611   1.172 -0.2474 -0.0730 -0.5177
25988SOL     OW89688   4.041  10.661   5.815 -0.3836 -0.8299  0.4515
25988SOL    HW189689   3.983  10.609   5.760 -0.3026 -0.1300 -0.3108
25988SOL    HW289690   4.083  10.722   5.755  0.0698 -0.3708  1.2171
25989SOL     OW89691   9.778   8.544   9.565  0.2220 -0.1562  0.3804
25989SOL    HW189692   9.767   8.519   9.473  0.7797  1.1403 -0.0460
25989SOL    HW289693   9.720   8.619   9.576  0.5827  0.0424  0.9368
25990SOL     OW89694   9.918   6.631   9.316  0.2587  0.3122  0.1772
25990SOL    HW189695   9.891   6.697   9.380 -0.7784 -1.4704  1.6575
25990SOL    HW289696   9.985   6.580   9.361  1.5684  0.7628 -1.2097
25991SOL     OW89697   6.008   4.446  10.521 -0.3072  0.2547  0.8473
25991SOL    HW189698   6.073   4.402  10.576 -0.0722  1.1658  1.3038
25991SOL    HW289699   6.032   4.420  10.432 -0.7268 -1.2689  1.1555
25992SOL     OW89700   1.197   6.846   0.374 -0.4599 -0.2583  0.3181
25992SOL    HW189701   1.266   6.865   0.310 -1.0653  0.3982 -0.1531
25992SOL    HW289702   1.242   6.847   0.459  0.0827  0.3408  0.0300
25993SOL     OW89703   3.704   1.208   8.827 -0.1337 -0.1378 -0.4346
25993SOL    HW189704   3.720   1.192   8.920 -0.6737  0.0113 -0.3096
25993SOL    HW289705   3.609   1.195   8.817 -0.0595 -0.2617 -0.9854
25994SOL     OW89706   5.447   4.102  12.848 -0.0510  0.5338 -0.0628
25994SOL    HW189707   5.524   4.134  12.801 -0.1589  0.8439 -0.0312
25994SOL    HW289708   5.378   4.164  12.825  0.3592  1.8994  2.0824
25995SOL     OW89709   9.559   5.700  10.370 -0.4605  0.3118 -0.2617
25995SOL    HW189710   9.639   5.681  10.320  0.6103  0.7077  1.2352
25995SOL    HW289711   9.490   5.653  10.323  1.0448 -2.0954 -0.2345
25996SOL     OW89712  12.575  10.804   4.053  0.6731  0.1983  0.5206
25996SOL    HW189713  12.530  10.765   3.978  3.5975 -1.0310 -0.7833
25996SOL    HW289714  12.560  10.898   4.045 -1.3431 -0.1334  0.0213
25997SOL     OW89715  10.800   9.031  11.005 -0.0591  0.4947  0.3818
25997SOL    HW189716  10.875   8.984  10.966 -1.0695 -0.4605 -0.4793
25997SOL    HW289717  10.839   9.085  11.074  1.1646 -1.9159  1.7293
25998SOL     OW89718  12.598   9.778   7.913  0.0081 -0.2728 -0.1376
25998SOL    HW189719  12.666   9.791   7.979 -0.4723 -4.0915  1.3712
25998SOL    HW289720  12.542   9.856   7.920  1.2426  0.4860  2.3913
25999SOL     OW89721   2.103   6.769   9.351  0.0200 -0.1024 -0.1619
25999SOL    HW189722   2.192   6.758   9.383  0.4262  3.1916  0.1514
25999SOL    HW289723   2.108   6.841   9.288 -2.3200 -0.2693 -0.6408
26000SOL     OW89724   0.428   5.324   2.515 -0.7649 -0.1294  0.2564
26000SOL    HW189725   0.499   5.363   2.567 -0.4608 -1.0091  0.5211
26000SOL    HW289726   0.352   5.379   2.532 -0.6617 -0.3843  1.6147
26001SOL     OW89727   9.127  13.609   8.076 -0.1190  0.5648 -0.1360
26001SOL    HW189728   9.204  13.603   8.132 -0.0271  0.2791 -0.2904
26001SOL    HW289729   9.117  13.703   8.059 -1.7522  0.9533  2.5317
26002SOL     OW89730  11.361   9.042   6.835  0.5262  0.0170 -0.0037
26002SOL    HW189731  11.370   9.077   6.924  0.8529  0.4978 -0.2224
26002SOL    HW289732  11.451   9.029   6.805  0.4238  0.2332 -0.4107
26003SOL     OW89733  10.845  12.955  13.584  0.3948 -0.0604 -0.1363
26003SOL    HW189734  10.783  12.886  13.559  0.8947 -0.6530  0.2270
26003SOL    HW289735  10.827  12.971  13.677 -0.5893  1.2290 -0.5145
26004SOL     OW89736   4.086   5.867  11.346  0.2743  0.7034  0.4710
26004SOL    HW189737   4.007   5.913  11.317  0.3261  0.2075 -0.5075
26004SOL    HW289738   4.073   5.853  11.440 -1.4097 -0.5237  0.0914
26005SOL     OW89739  13.530   2.443   1.654 -0.3493 -0.1920  0.1757
26005SOL    HW189740  13.466   2.459   1.585 -0.7156  0.3441  0.6309
26005SOL    HW289741  13.534   2.525   1.703  1.8103  0.3166 -0.7431
26006SOL     OW89742   7.556   2.403   6.554  0.2743 -0.0524  0.0265
26006SOL    HW189743   7.543   2.342   6.482  0.2810  1.4043 -1.2699
26006SOL    HW289744   7.648   2.391   6.580 -0.7099 -3.5389  2.7200
26007SOL     OW89745   8.502   1.453   2.983  0.5892  0.4801  0.0313
26007SOL    HW189746   8.496   1.380   2.922  3.0459  1.1877 -1.2384
26007SOL    HW289747   8.569   1.426   3.046  0.7465  1.1779  0.1750
26008SOL     OW89748  10.084   6.696   7.661  0.6404 -0.5204  0.5795
26008SOL    HW189749  10.060   6.622   7.716  0.5057 -0.1891  0.9685
26008SOL    HW289750  10.037   6.770   7.699  0.5215 -0.2952  0.0014
26009SOL     OW89751   9.871   9.645   5.575 -0.1698  0.5512  0.7358
26009SOL    HW189752   9.904   9.556   5.561  2.3658  1.3552  1.0804
26009SOL    HW289753   9.840   9.645   5.666  2.6878  0.7407  1.8109
26010SOL     OW89754   5.817   1.929   8.198  0.3585  0.2382 -0.1215
26010SOL    HW189755   5.901   1.928   8.244 -0.1731 -0.6490  0.8528
26010SOL    HW289756   5.779   1.842   8.214 -0.4508  0.3843 -1.1166
26011SOL     OW89757   1.915   6.749  11.255 -0.2747  0.1758  0.5732
26011SOL    HW189758   1.850   6.789  11.198 -0.5407  0.4196  1.0383
26011SOL    HW289759   1.954   6.679  11.202  0.3977  1.2204 -0.3476
26012SOL     OW89760  10.893   1.617   8.267 -0.4278 -0.1684 -0.1916
26012SOL    HW189761  10.812   1.658   8.299 -0.6829 -0.2170 -0.7687
26012SOL    HW289762  10.929   1.680   8.205  0.0784 -0.0641  0.2043
26013SOL     OW89763   7.537   5.034   4.196 -0.4408  0.1687 -0.2752
26013SOL    HW189764   7.503   5.104   4.251  2.2794 -0.1966  2.1421
26013SOL    HW289765   7.493   4.955   4.228  0.1869  0.1334  0.5284
26014SOL     OW89766   1.381   5.472  11.084  0.0001  0.2110  0.5073
26014SOL    HW189767   1.362   5.563  11.109  3.1874  1.2475 -0.4120
26014SOL    HW289768   1.310   5.448  11.025 -1.0127  2.0518  0.9047
26015SOL     OW89769   8.503   0.486   4.868 -0.0236 -0.1085  0.5064
26015SOL    HW189770   8.497   0.566   4.920  0.3138 -0.9216  1.8538
26015SOL    HW289771   8.593   0.484   4.838  0.2581 -0.4931  1.3513
26016SOL     OW89772   9.609   5.437   8.136  0.5878  0.2611 -0.2847
26016SOL    HW189773   9.665   5.515   8.140 -0.4720  1.1600 -1.8834
26016SOL    HW289774   9.562   5.438   8.220  2.1234  0.0867  0.6250
26017SOL     OW89775  11.669   0.324   1.897 -0.0848 -0.3979 -0.0789
26017SOL    HW189776  11.731   0.261   1.860 -0.2879  0.1021 -1.3220
26017SOL    HW289777  11.608   0.342   1.825 -0.6633  0.3900  0.5995
26018SOL     OW89778  13.642  13.063  13.367 -0.5492  0.1938  0.2981
26018SOL    HW189779  13.593  12.982  13.360  3.5133 -2.6063  0.4616
26018SOL    HW289780  13.640  13.101  13.279 -3.2692  0.5162  0.4395
26019SOL     OW89781   3.140  11.764   7.188 -0.0635  0.4434 -0.3826
26019SOL    HW189782   3.149  11.840   7.246  0.9440  1.5008 -1.8603
26019SOL    HW289783   3.103  11.800   7.108  0.5576 -0.6073 -1.1570
26020SOL     OW89784   1.347   8.910   9.116  0.6107  0.1729 -0.1985
26020SOL    HW189785   1.328   8.936   9.026 -2.5450  0.1133  0.3523
26020SOL    HW289786   1.304   8.826   9.127  1.6005 -0.1936  1.1885
26021SOL     OW89787   4.119   1.614  13.073 -0.2175  0.2821 -0.7166
26021SOL    HW189788   4.094   1.586  12.985 -1.4181 -0.1513 -0.2626
26021SOL    HW289789   4.056   1.682  13.096 -1.6263 -1.4330  0.7985
26022SOL     OW89790   0.052   6.786  10.512  0.2829 -0.0066 -0.1125
26022SOL    HW189791  -0.024   6.789  10.453 -0.1911 -0.8280  0.4276
26022SOL    HW289792   0.042   6.703  10.559  1.3254  0.0507  0.2324
26023SOL     OW89793   7.347   2.745   7.606  0.0614 -0.6696  0.1899
26023SOL    HW189794   7.294   2.807   7.656 -0.4617 -1.5093  0.7047
26023SOL    HW289795   7.418   2.720   7.665  0.0918 -0.7991  0.0986
26024SOL     OW89796   5.259   3.369  10.753 -0.5704 -0.0609 -0.1272
26024SOL    HW189797   5.170   3.406  10.750 -0.2077  0.8867  0.3927
26024SOL    HW289798   5.257   3.309  10.828 -1.2308 -1.3234 -1.1199
26025SOL     OW89799   7.583   7.230   7.685 -0.2295 -0.0424 -0.2454
26025SOL    HW189800   7.569   7.137   7.666  0.2366 -0.2932  0.6035
26025SOL    HW289801   7.559   7.239   7.777 -3.1038  1.2732 -0.9814
26026SOL     OW89802   4.211   8.716   2.713  0.0832  0.3410  0.2437
26026SOL    HW189803   4.299   8.680   2.707 -0.0660  0.1770 -1.7153
26026SOL    HW289804   4.222   8.802   2.753  0.8597 -0.4737  1.8573
26027SOL     OW89805   3.347   2.711  10.063 -0.1385 -0.4009  0.1994
26027SOL    HW189806   3.260   2.679  10.038 -1.0125  1.0329  1.1988
26027SOL    HW289807   3.362   2.786  10.005  0.1065 -0.2069  0.5096
26028SOL     OW89808   3.053  12.068  11.978 -0.2213  0.4973 -0.0560
26028SOL    HW189809   3.013  12.007  11.917 -1.4653 -2.1769  3.0977
26028SOL    HW289810   2.998  12.146  11.974 -1.1227 -0.1667 -1.2676
26029SOL     OW89811   7.904   2.603  10.802 -0.5798  0.0662  0.3439
26029SOL    HW189812   7.924   2.518  10.762  1.5911  0.4954  0.3462
26029SOL    HW289813   7.990   2.644  10.814 -1.4665  1.6688  1.6795
26030SOL     OW89814   0.729   3.348  13.059 -0.5171 -0.0590  0.2232
26030SOL    HW189815   0.803   3.399  13.091  1.2194 -2.2633  0.0343
26030SOL    HW289816   0.657   3.410  13.051  1.3966  2.2669  0.1157
26031SOL     OW89817   8.223   9.069   6.154 -0.0255 -0.0470  0.0259
26031SOL    HW189818   8.134   9.096   6.128 -0.5462  0.3503  2.0081
26031SOL    HW289819   8.210   9.022   6.236  1.2294 -3.4937 -1.5436
26032SOL     OW89820   1.753   8.567   6.575  0.1728  0.9116  0.2147
26032SOL    HW189821   1.704   8.534   6.650  1.3324 -1.6674 -0.0549
26032SOL    HW289822   1.801   8.491   6.542 -0.5348  1.8185 -3.3661
26033SOL     OW89823   7.649  10.230   2.394 -0.2879 -0.0371  0.0748
26033SOL    HW189824   7.678  10.151   2.347  0.9961  0.9234 -0.8417
26033SOL    HW289825   7.719  10.293   2.378 -1.0288  1.1155  1.2608
26034SOL     OW89826   3.753   2.041   6.580  0.4270 -0.3213 -0.0793
26034SOL    HW189827   3.766   2.081   6.665  1.0488  1.3704 -0.9350
26034SOL    HW289828   3.684   1.976   6.594  1.1471 -0.7184  1.8834
26035SOL     OW89829   2.796   3.768   3.091  0.2684 -0.5706  0.1532
26035SOL    HW189830   2.772   3.855   3.059 -0.3848 -0.9979 -0.5214
26035SOL    HW289831   2.741   3.755   3.169 -1.9410 -1.6177 -1.4772
26036SOL     OW89832   4.990   5.073  12.520 -0.3301 -0.3165  0.5421
26036SOL    HW189833   4.967   5.147  12.463  3.8490 -0.7896 -2.1789
26036SOL    HW289834   4.948   4.997  12.480  1.1451 -0.3659 -1.0398
26037SOL     OW89835  12.149   2.235   5.015  1.3351  0.2173  0.2071
26037SOL    HW189836  12.098   2.312   5.038  0.9730 -0.0496  0.3040
26037SOL    HW289837  12.098   2.161   5.048  0.7326 -0.1880 -1.5443
26038SOL     OW89838   0.598   0.837   2.803 -0.1897  0.2725  0.0811
26038SOL    HW189839   0.572   0.857   2.713  0.4500  0.1828 -0.1301
26038SOL    HW289840   0.570   0.914   2.853 -1.0862  0.0623 -0.0895
26039SOL     OW89841   3.028   0.466  12.795 -0.4078 -0.1963  0.3303
26039SOL    HW189842   3.099   0.473  12.731  1.5671  0.9845  2.4907
26039SOL    HW289843   3.015   0.372  12.807  1.4725 -0.4528  0.5591
26040SOL     OW89844   6.914   6.499  13.076 -0.7129  0.4204 -0.7360
26040SOL    HW189845   6.986   6.448  13.112  0.6491  2.7434  0.0595
26040SOL    HW289846   6.955   6.580  13.044 -3.0133  2.1486  0.3556
26041SOL     OW89847   2.389  10.484   8.761 -0.0342 -0.1524  0.1232
26041SOL    HW189848   2.327  10.538   8.809 -0.6477  0.3319 -1.1643
26041SOL    HW289849   2.388  10.400   8.807 -0.6306  0.2712  0.9123
26042SOL     OW89850   0.868  11.803   0.025 -0.3993 -0.2105 -0.2216
26042SOL    HW189851   0.837  11.865   0.092  0.1228 -0.0259 -0.1417
26042SOL    HW289852   0.839  11.841  -0.058  0.7199  0.6568 -0.2476
26043SOL     OW89853   4.866   6.225   3.868  0.4381  0.1845  0.2717
26043SOL    HW189854   4.948   6.221   3.918  1.1927 -1.0118 -0.9797
26043SOL    HW289855   4.817   6.148   3.896  0.8910 -0.5286 -0.7897
26044SOL     OW89856   8.889   3.840   2.738 -0.0676 -0.1668  0.0689
26044SOL    HW189857   8.898   3.889   2.820 -0.6208 -0.8986  0.5893
26044SOL    HW289858   8.887   3.907   2.670  0.5876  0.4448  0.6396
26045SOL     OW89859   5.007   5.635   8.569 -0.0579 -0.0133 -0.6505
26045SOL    HW189860   5.015   5.615   8.476 -1.6073  0.9567 -1.0316
26045SOL    HW289861   5.046   5.722   8.579  0.3968 -0.2478 -0.3124
26046SOL     OW89862  10.165   6.302   2.700  0.1452 -0.3541  0.0347
26046SOL    HW189863  10.253   6.298   2.663 -0.4941  0.5604 -1.7135
26046SOL    HW289864  10.134   6.212   2.699  1.2238 -0.7571  1.1417
26047SOL     OW89865  12.106   3.326  10.766  0.4801  0.0865 -0.4970
26047SOL    HW189866  12.196   3.299  10.784  0.7738  2.0492  1.3873
26047SOL    HW289867  12.063   3.325  10.851  0.0564  3.6045 -0.5055
26048SOL     OW89868   5.349   3.401   7.854  0.0103 -0.0286 -0.1639
26048SOL    HW189869   5.385   3.314   7.838 -3.2015 -1.4130 -0.7929
26048SOL    HW289870   5.379   3.454   7.781  0.8751 -0.9988 -0.5302
26049SOL     OW89871   5.436   8.501   7.941  0.0921  0.5657  0.2968
26049SOL    HW189872   5.341   8.505   7.953  0.0648  2.7697 -0.1007
26049SOL    HW289873   5.453   8.410   7.916 -1.7111 -0.2274  1.6799
26050SOL     OW89874   0.299   9.189   6.574  0.1227  0.0578 -0.4951
26050SOL    HW189875   0.305   9.264   6.633  2.9568 -0.6146  0.2028
26050SOL    HW289876   0.291   9.228   6.487  0.7743  1.1619 -0.0800
26051SOL     OW89877   6.081  11.672   7.380 -0.0495 -0.1934 -0.0447
26051SOL    HW189878   6.010  11.723   7.341 -0.4867 -1.2979 -0.7622
26051SOL    HW289879   6.135  11.644   7.306  2.5178  2.4892  0.6309
26052SOL     OW89880   0.188  10.824   7.723 -0.0876  0.1455  0.0210
26052SOL    HW189881   0.188  10.902   7.668 -0.6871 -0.1473 -0.4053
26052SOL    HW289882   0.238  10.759   7.673  1.6456  0.6572  0.9933
26053SOL     OW89883   2.231  10.617  11.708  0.5884 -0.7812  0.0760
26053SOL    HW189884   2.165  10.559  11.748  0.1580  0.0491  0.5939
26053SOL    HW289885   2.267  10.565  11.637  0.4539 -1.8225  0.7365
26054SOL     OW89886   3.269   6.609  10.274  0.8007  0.3417  0.7229
26054SOL    HW189887   3.296   6.642  10.188  1.1809 -0.8483  0.3625
26054SOL    HW289888   3.223   6.682  10.314 -1.2510  0.2774 -1.3319
26055SOL     OW89889   2.781  12.204  11.290  0.0111  0.1614  0.0637
26055SOL    HW189890   2.691  12.200  11.255  0.6115  1.1233 -1.7358
26055SOL    HW289891   2.811  12.292  11.267  0.9326  0.3673  1.9353
26056SOL     OW89892  11.173  10.084   2.473 -0.3923 -0.1036  0.2012
26056SOL    HW189893  11.117  10.131   2.411 -0.3893  1.9227  1.6365
26056SOL    HW289894  11.251  10.061   2.423 -1.2720 -0.4487 -1.0736
26057SOL     OW89895   4.026   9.874   8.654 -0.7672  0.2472  0.1395
26057SOL    HW189896   4.089   9.941   8.679 -1.6391  1.6609 -1.2566
26057SOL    HW289897   4.026   9.876   8.558 -0.2723 -2.2983  0.0228
26058SOL     OW89898   2.047   6.557  10.693 -0.1764 -0.0268 -0.9899
26058SOL    HW189899   2.027   6.473  10.734  0.7728  0.1699 -0.1185
26058SOL    HW289900   2.134   6.580  10.725 -0.2340  1.0689 -1.5868
26059SOL     OW89901   5.518  11.704   2.361 -0.0528  0.2904 -0.2489
26059SOL    HW189902   5.566  11.622   2.355 -0.9586 -0.2835  0.0829
26059SOL    HW289903   5.544  11.754   2.283  0.8406 -0.1211 -0.2197
26060SOL     OW89904   6.919   1.495  12.507 -0.3674  0.4222  0.0522
26060SOL    HW189905   6.947   1.428  12.444 -2.1137  0.6857 -1.0804
26060SOL    HW289906   6.980   1.567  12.494 -0.7208  0.4899 -1.4289
26061SOL     OW89907  10.631   7.345   6.663  0.0452 -0.0744  0.0006
26061SOL    HW189908  10.669   7.404   6.728 -0.2555  0.0465  0.0662
26061SOL    HW289909  10.699   7.280   6.648  0.6000  0.5862 -0.4601
26062SOL     OW89910  10.702  12.067   5.453  0.0287  0.3893 -0.1982
26062SOL    HW189911  10.746  12.148   5.428  0.7237  0.3535  0.8624
26062SOL    HW289912  10.773  12.008   5.478 -0.5406 -0.1800  0.0952
26063SOL     OW89913   3.299  13.582   6.347 -0.2071 -0.2167 -0.9915
26063SOL    HW189914   3.374  13.564   6.405 -0.1286  0.8923 -0.7261
26063SOL    HW289915   3.289  13.501   6.296  1.2838 -0.3335 -1.1575
26064SOL     OW89916   2.788   1.424   3.776  0.1692  0.2235 -0.2917
26064SOL    HW189917   2.873   1.397   3.811  0.4150 -1.2061 -1.8462
26064SOL    HW289918   2.730   1.351   3.796 -0.4700  0.7848 -0.0709
26065SOL     OW89919   4.615  10.649   7.175  0.5135 -0.4178 -0.1264
26065SOL    HW189920   4.657  10.702   7.243  0.0557  1.8999 -1.5487
26065SOL    HW289921   4.523  10.673   7.179  0.7345  1.3865 -2.7812
26066SOL     OW89922   3.064  11.894   8.413  0.0776 -0.3043 -0.2435
26066SOL    HW189923   3.066  11.824   8.348  0.0674 -1.5565  1.0303
26066SOL    HW289924   3.141  11.947   8.394 -0.1510 -0.4084 -1.5007
26067SOL     OW89925   5.529   3.271   3.866  0.9103 -0.3585 -0.1725
26067SOL    HW189926   5.556   3.207   3.932  2.6826  1.2567  0.7735
26067SOL    HW289927   5.461   3.322   3.909 -1.0935 -2.0161 -1.2109
26068SOL     OW89928  13.215   7.775   7.042 -0.1337  0.3777 -0.2592
26068SOL    HW189929  13.212   7.806   6.951  2.8485  3.1267  0.4056
26068SOL    HW289930  13.301   7.733   7.050 -0.4353 -0.0208  1.2577
26069SOL     OW89931   7.160  10.950  12.402  0.1672  0.9058 -0.2532
26069SOL    HW189932   7.252  10.966  12.381  0.6332  0.3760  1.2449
26069SOL    HW289933   7.114  10.958  12.318  1.6723  0.4463 -1.1493
26070SOL     OW89934  11.640  11.737   8.005 -0.5351  0.4277  0.3622
26070SOL    HW189935  11.698  11.748   7.929 -1.0303 -0.1916 -0.1162
26070SOL    HW289936  11.691  11.684   8.066  0.3629  1.9989  1.0376
26071SOL     OW89937   9.854  12.142  12.137  0.8660 -0.4629 -0.1121
26071SOL    HW189938   9.763  12.136  12.166  1.0189 -0.4161  0.3915
26071SOL    HW289939   9.849  12.189  12.053  0.5817  1.2886  0.8327
26072SOL     OW89940   1.390  13.378   7.433  0.3789 -0.2478  0.1024
26072SOL    HW189941   1.374  13.469   7.408 -0.6117  0.0986  1.8154
26072SOL    HW289942   1.356  13.326   7.360 -0.8630  0.7145 -0.0300
26073SOL     OW89943  10.084  13.325  12.620  0.4662  0.1443 -0.6473
26073SOL    HW189944  10.030  13.404  12.616  1.3723  0.8937  1.0624
26073SOL    HW289945  10.051  13.277  12.697  1.2422 -0.1472 -0.4914
26074SOL     OW89946   8.533   1.762   9.815  0.3345  0.4446  0.3009
26074SOL    HW189947   8.496   1.799   9.735 -0.9582 -0.1199  0.6082
26074SOL    HW289948   8.512   1.826   9.883  1.4041  0.9094  0.2064
26075SOL     OW89949  13.467   1.806  12.538  0.4885 -0.0419 -0.6602
26075SOL    HW189950  13.452   1.849  12.622  0.6534  1.5381 -1.3974
26075SOL    HW289951  13.420   1.860  12.475  2.3384  0.2048 -1.9013
26076SOL     OW89952   6.898   0.425   5.266 -0.0086 -0.4196  0.0344
26076SOL    HW189953   6.986   0.391   5.253 -0.6251 -2.1352  0.0615
26076SOL    HW289954   6.911   0.515   5.296  1.7532 -0.9949  1.1373
26077SOL     OW89955   6.856  11.357  11.092 -0.2181 -0.0796 -0.1090
26077SOL    HW189956   6.856  11.368  11.187  0.2942  1.4740 -0.2678
26077SOL    HW289957   6.790  11.419  11.061 -1.6217 -1.7712 -0.6848
26078SOL     OW89958  10.397   7.729   5.569  0.2588  0.0406  0.2085
26078SOL    HW189959  10.454   7.676   5.625  0.3189 -2.0452 -1.6859
26078SOL    HW289960  10.457   7.774   5.510  0.0996  0.3700  0.2992
26079SOL     OW89961   8.520   4.694   9.401  0.6684  0.3572  0.1401
26079SOL    HW189962   8.576   4.687   9.324  0.7811  1.1310  0.1449
26079SOL    HW289963   8.569   4.648   9.470  1.4090  1.2056  0.2003
26080SOL     OW89964   9.005   0.002  12.054 -0.1067  0.1066 -0.0964
26080SOL    HW189965   9.073  -0.061  12.027  0.0473 -0.4095  1.4106
26080SOL    HW289966   8.995  -0.013  12.148 -1.1157  1.3556  0.0122
26081SOL     OW89967   8.315   5.636   7.699  0.3617 -0.0388 -0.6307
26081SOL    HW189968   8.266   5.672   7.625  1.0830  0.9905 -0.6250
26081SOL    HW289969   8.405   5.626   7.666  0.7814  0.8013  0.2009
26082SOL     OW89970  12.247  11.413   4.321 -0.2768  0.1385 -0.3038
26082SOL    HW189971  12.322  11.368   4.282 -1.1498 -0.5368 -1.2616
26082SOL    HW289972  12.234  11.490   4.266 -0.3162  0.2232 -0.1754
26083SOL     OW89973   1.903   7.758   4.836  0.0303 -0.0020 -0.0819
26083SOL    HW189974   1.982   7.709   4.813 -1.0960 -2.0945  0.2978
26083SOL    HW289975   1.877   7.800   4.754  0.9071 -0.2308 -0.4854
26084SOL     OW89976   0.335   0.601   4.757  0.1541 -0.2234  0.6562
26084SOL    HW189977   0.245   0.588   4.726  0.7058  0.9354 -1.6926
26084SOL    HW289978   0.325   0.642   4.843 -1.5422 -0.8359  0.7974
26085SOL     OW89979   2.005  11.151  12.385 -0.8667  0.0552  0.4551
26085SOL    HW189980   2.018  11.219  12.451  0.5601  0.6608 -0.4287
26085SOL    HW289981   1.919  11.169  12.348 -0.2745  1.7396 -0.1640
26086SOL     OW89982  12.969   1.489   5.973  0.0200 -0.8944 -0.2190
26086SOL    HW189983  12.933   1.561   5.921 -0.1503 -0.4892  0.4535
26086SOL    HW289984  13.055   1.473   5.936 -0.6872 -1.6517 -1.6464
26087SOL     OW89985   4.241   4.993  13.547 -0.1945 -0.2032 -0.0080
26087SOL    HW189986   4.163   5.025  13.501  0.0389  0.0278 -0.2458
26087SOL    HW289987   4.214   4.986  13.638 -1.2724 -2.4884 -0.4190
26088SOL     OW89988   9.695   3.630   8.589  0.4755  0.0694  0.2210
26088SOL    HW189989   9.736   3.712   8.619 -1.2405  0.5946  1.2820
26088SOL    HW289990   9.603   3.653   8.575 -0.0140 -1.6406  0.3806
26089SOL     OW89991   4.384   9.537   2.234  0.1232 -0.1196 -0.3653
26089SOL    HW189992   4.421   9.543   2.146 -1.0160  0.7708 -0.8215
26089SOL    HW289993   4.386   9.444   2.256  1.0149 -0.2713 -1.0608
26090SOL     OW89994   7.517  12.076   1.025 -0.5220  0.4184  0.7089
26090SOL    HW189995   7.580  12.019   1.068 -0.4448  1.2434  1.7257
26090SOL    HW289996   7.438  12.023   1.017 -0.3640  0.0780  1.3612
26091SOL     OW89997  11.495   6.535   7.330 -0.6844  0.3665  0.0011
26091SOL    HW189998  11.408   6.507   7.303 -0.9866  0.1074  1.1676
26091SOL    HW289999  11.523   6.469   7.394  0.5685  0.1845 -0.7029
26092SOL     OW90000  13.465   6.005  10.745  0.3688 -0.1987  0.2875
26092SOL    HW190001  13.521   6.019  10.822 -0.4969 -1.5981  1.2176
26092SOL    HW290002  13.524   5.969  10.679  1.2769  1.6984  0.0126
26093SOL     OW90003   2.729   7.429  13.575  0.5051 -0.4544 -0.5664
26093SOL    HW190004   2.745   7.350  13.628  0.1738  0.6214  1.2310
26093SOL    HW290005   2.815   7.471  13.570  0.2282  0.3071  0.6325
26094SOL     OW90006  13.314  11.199  11.464  0.5426  0.2592 -0.1684
26094SOL    HW190007  13.334  11.187  11.371  1.4257  2.6578 -0.3664
26094SOL    HW290008  13.224  11.230  11.465  1.1425  2.1692 -0.4729
26095SOL     OW90009   4.020  10.636   7.843  0.6470 -0.3488 -0.6553
26095SOL    HW190010   3.971  10.554   7.830 -0.3313 -0.0759  1.0059
26095SOL    HW290011   4.063  10.625   7.928 -1.8693  1.9133  1.0703
26096SOL     OW90012   8.275   6.761  10.203  0.2739 -0.4005  0.5123
26096SOL    HW190013   8.306   6.697  10.267  1.1136  0.4870  1.0292
26096SOL    HW290014   8.322   6.842  10.226 -1.5487  0.7056  0.5845
26097SOL     OW90015   8.844   5.859   8.687  0.1765  0.0656 -0.2959
26097SOL    HW190016   8.849   5.903   8.602  0.2441  0.0972 -0.2758
26097SOL    HW290017   8.907   5.787   8.681  1.3185  0.9904  0.2673
26098SOL     OW90018   0.711  10.691   4.936 -0.2164  0.6056 -0.2849
26098SOL    HW190019   0.718  10.767   4.994  0.3674 -0.1583  0.6711
26098SOL    HW290020   0.619  10.666   4.938  0.0490 -0.3587  1.5828
26099SOL     OW90021   9.345   6.340  10.595  0.3942  0.6223  0.0731
26099SOL    HW190022   9.258   6.300  10.589  1.1663 -1.2273  0.4963
26099SOL    HW290023   9.331   6.431  10.569 -1.4360  0.0661 -1.1181
26100SOL     OW90024   1.870  13.152   1.704  0.0891  0.1201 -0.3178
26100SOL    HW190025   1.798  13.186   1.651  1.1825  1.2646 -1.1433
26100SOL    HW290026   1.921  13.229   1.727  1.5166 -0.7397 -0.4938
26101SOL     OW90027   1.091   9.188   8.640 -0.2570  0.5831  0.2738
26101SOL    HW190028   1.118   9.143   8.560 -1.3257 -0.6508  0.5676
26101SOL    HW290029   1.133   9.274   8.635  1.0245 -0.0628 -0.8084
26102SOL     OW90030   9.524   3.592   4.061  0.1628 -0.2204 -0.6435
26102SOL    HW190031   9.482   3.519   4.016  0.3017  0.6392 -2.2512
26102SOL    HW290032   9.473   3.604   4.141 -0.2946 -1.6026 -0.7009
26103SOL     OW90033  12.129   4.131  11.214 -0.7296  0.6790 -0.4226
26103SOL    HW190034  12.090   4.044  11.225  1.5036 -0.2653  0.5731
26103SOL    HW290035  12.210   4.116  11.166 -0.1531  2.1645  0.0208
26104SOL     OW90036   8.603   3.399   1.797  0.0586  0.5287 -0.0905
26104SOL    HW190037   8.580   3.332   1.733 -2.1809  0.6379  0.5408
26104SOL    HW290038   8.638   3.471   1.745  2.9851 -1.1938 -0.7684
26105SOL     OW90039   5.081  10.164  12.499 -0.8126  0.4028  0.0518
26105SOL    HW190040   5.053  10.196  12.584 -0.6524  0.6910 -0.0006
26105SOL    HW290041   5.031  10.216  12.436 -0.2705  0.8225 -0.0387
26106SOL     OW90042   5.371   2.758  10.264 -0.1917 -0.0579  0.3535
26106SOL    HW190043   5.291   2.803  10.239 -0.4880 -0.0363  1.3063
26106SOL    HW290044   5.389   2.788  10.354  0.4181 -0.6997  0.4589
26107SOL     OW90045   7.359  11.083   4.162 -0.1584  0.3158  0.5751
26107SOL    HW190046   7.336  11.174   4.180  0.0942  0.1634  1.7156
26107SOL    HW290047   7.429  11.062   4.224  0.8962 -0.1928 -0.7346
26108SOL     OW90048  12.804   1.071   8.706 -0.0217  0.0558 -0.1951
26108SOL    HW190049  12.758   1.106   8.630  1.1853  0.0368 -0.9665
26108SOL    HW290050  12.896   1.089   8.688  0.2662  0.4462  1.4794
26109SOL     OW90051   5.321  10.791   1.343 -0.3268 -0.4950 -0.0688
26109SOL    HW190052   5.232  10.797   1.310  0.2854  1.7666 -1.5097
26109SOL    HW290053   5.377  10.811   1.268  1.2386  1.7709  1.5415
26110SOL     OW90054   0.883   3.529   9.392  0.2929 -0.5942  0.0788
26110SOL    HW190055   0.948   3.481   9.442 -0.6837 -1.4172  0.6021
26110SOL    HW290056   0.933   3.578   9.327  1.4852 -0.5569  0.9976
26111SOL     OW90057  11.270  12.322   6.606  0.3716 -0.5896  0.0184
26111SOL    HW190058  11.200  12.360   6.659  1.4214  0.8564  0.4282
26111SOL    HW290059  11.225  12.266   6.543 -1.1976  0.6667 -0.0335
26112SOL     OW90060   1.293  10.421   8.594 -0.3344  0.0335  0.2550
26112SOL    HW190061   1.203  10.390   8.583 -0.3572  0.3118 -0.3815
26112SOL    HW290062   1.345  10.341   8.602 -0.7400 -0.1234  1.5512
26113SOL     OW90063  11.206   4.485  13.287  0.4815 -0.2675  0.4685
26113SOL    HW190064  11.129   4.503  13.342 -1.5490 -0.4366 -2.1488
26113SOL    HW290065  11.200   4.548  13.216  3.1666  0.0966  0.4761
26114SOL     OW90066   4.162   2.547  12.098 -0.2586 -0.8670 -0.4529
26114SOL    HW190067   4.251   2.579  12.084 -0.2549 -0.5665  0.2095
26114SOL    HW290068   4.169   2.489  12.173 -0.4696 -1.5526 -0.9543
26115SOL     OW90069   3.807   7.996   2.039 -0.1168 -0.1406  0.2058
26115SOL    HW190070   3.875   8.029   1.980 -0.1896 -1.7559 -0.8434
26115SOL    HW290071   3.800   8.063   2.107  0.7062  1.2951 -1.0529
26116SOL     OW90072   0.530  11.394  13.736 -0.0098  0.3041  0.0189
26116SOL    HW190073   0.584  11.469  13.764  0.7857 -0.4268  0.5032
26116SOL    HW290074   0.567  11.368  13.652  0.7941 -0.5530  0.6153
26117SOL     OW90075   7.143   3.119   0.890  0.3000 -0.5753  0.2112
26117SOL    HW190076   7.076   3.161   0.944 -2.3276 -1.0675 -2.3841
26117SOL    HW290077   7.121   3.145   0.800  2.1946 -2.6594 -0.9500
26118SOL     OW90078   7.325  12.275  10.957 -0.5090 -0.2193 -0.0434
26118SOL    HW190079   7.328  12.249  11.049 -1.4001  0.3412  0.1586
26118SOL    HW290080   7.314  12.193  10.909  0.2834 -0.5487  0.3115
26119SOL     OW90081  11.100   0.103   0.398 -0.4126  0.7467  0.6187
26119SOL    HW190082  11.149   0.167   0.346  1.0925  0.3458  1.4699
26119SOL    HW290083  11.063   0.044   0.333  0.8407  0.6679 -0.0683
26120SOL     OW90084   4.635   9.672  12.292  0.5725 -0.6509 -0.5081
26120SOL    HW190085   4.552   9.720  12.288  0.9854  0.0713 -0.7996
26120SOL    HW290086   4.624   9.601  12.229  0.1796 -0.5465 -0.5635
26121SOL     OW90087   0.320   6.941   0.521 -0.4206 -1.0149 -0.1117
26121SOL    HW190088   0.303   6.880   0.592  0.0661  0.1695  1.0762
26121SOL    HW290089   0.359   7.017   0.564 -1.3503  0.2911 -1.4697
26122SOL     OW90090  12.403   7.401   7.479  0.6073  0.4851  0.3329
26122SOL    HW190091  12.386   7.431   7.389 -0.9126  0.4975  0.5848
26122SOL    HW290092  12.445   7.476   7.521  1.0048  0.6098 -0.2654
26123SOL     OW90093   7.559   6.765  11.048 -0.1026 -0.0101  0.8004
26123SOL    HW190094   7.537   6.857  11.032  1.4530  0.2887  0.2486
26123SOL    HW290095   7.569   6.728  10.961  2.0738  0.0209  0.9924
26124SOL     OW90096   6.772   5.971  12.519  0.0943  0.3011 -0.0662
26124SOL    HW190097   6.791   6.019  12.600  2.0901  0.1824 -0.4061
26124SOL    HW290098   6.727   6.035  12.464  0.5572  1.0441  0.3938
26125SOL     OW90099   2.374   6.335   8.763  0.1094  0.4519 -0.3763
26125SOL    HW190100   2.306   6.370   8.705 -0.8671  1.7127  1.4230
26125SOL    HW290101   2.421   6.412   8.793  2.3012 -0.3956 -1.4447
26126SOL     OW90102   9.252  11.731   9.127  0.0598 -0.1372  0.2340
26126SOL    HW190103   9.175  11.729   9.184 -0.2982  1.0979 -0.1587
26126SOL    HW290104   9.217  11.760   9.042  1.0470  1.0805  0.2207
26127SOL     OW90105   8.867  11.611   9.022  0.2461 -0.0718  0.7666
26127SOL    HW190106   8.882  11.521   9.052 -2.0739 -0.5884  0.5665
26127SOL    HW290107   8.887  11.608   8.929 -1.4435 -0.8598  0.3958
26128SOL     OW90108   9.055  10.550   9.876 -0.0926 -0.4538  0.7470
26128SOL    HW190109   9.127  10.508   9.830 -0.4717 -1.4072  1.0008
26128SOL    HW290110   9.043  10.498   9.956 -0.7912 -0.0649  0.9074
26129SOL     OW90111   3.819   8.704  11.208  0.0774  0.4906  0.1998
26129SOL    HW190112   3.815   8.761  11.131  1.3259  0.3105 -0.0222
26129SOL    HW290113   3.912   8.683  11.217 -0.3609 -1.6329  0.2069
26130SOL     OW90114   3.776   2.038   4.855  0.6940 -0.7219 -0.1612
26130SOL    HW190115   3.716   1.993   4.915  0.3651 -1.9660 -1.3589
26130SOL    HW290116   3.863   2.009   4.882  0.4682 -2.4743 -1.1459
26131SOL     OW90117  12.073  12.717   8.931  1.0123  0.0047  0.1992
26131SOL    HW190118  12.057  12.786   8.867  0.6516 -1.0990 -0.9340
26131SOL    HW290119  12.092  12.763   9.013 -0.3350  1.4236 -0.2677
26132SOL     OW90120  11.519  11.194   9.517  0.3974 -0.2625 -0.1127
26132SOL    HW190121  11.473  11.210   9.434  0.0085  0.2557  0.1971
26132SOL    HW290122  11.498  11.104   9.539  1.9971 -1.0264 -1.4986
26133SOL     OW90123   4.189  10.228  11.829  0.4270 -0.4655  0.6104
26133SOL    HW190124   4.154  10.306  11.872  0.7647 -0.5116  0.9763
26133SOL    HW290125   4.152  10.155  11.879 -0.5574 -0.5738 -0.2416
26134SOL     OW90126   8.787   6.795  12.907 -0.0059  0.2544  0.8599
26134SOL    HW190127   8.864   6.852  12.900  0.2768 -0.2190 -0.2316
26134SOL    HW290128   8.741   6.825  12.985 -0.7808  3.1147 -0.5755
26135SOL     OW90129  12.348  11.254  12.985 -0.4293 -0.2532 -0.6500
26135SOL    HW190130  12.269  11.307  12.979 -0.2823  0.4578  2.4123
26135SOL    HW290131  12.321  11.174  13.029  0.7756  0.7583  2.1419
26136SOL     OW90132   7.644   3.265   3.259 -1.1900 -0.5229  0.1105
26136SOL    HW190133   7.726   3.223   3.287  0.1051  1.5900 -0.3085
26136SOL    HW290134   7.630   3.230   3.171  2.0709  2.5722 -1.9439
26137SOL     OW90135  12.000   3.418   6.658  0.8199 -0.2731 -0.0833
26137SOL    HW190136  11.978   3.422   6.566 -1.6176 -1.0011  0.4061
26137SOL    HW290137  11.922   3.383   6.701  1.8817 -0.0108  2.2616
26138SOL     OW90138   7.866   8.532   8.914 -0.4583 -0.2313  0.1669
26138SOL    HW190139   7.785   8.583   8.915 -0.9127 -0.9460  0.9033
26138SOL    HW290140   7.884   8.514   9.006  0.0371 -0.8589 -0.0432
26139SOL     OW90141   8.386   3.700   2.628  0.0259 -0.2408 -0.2747
26139SOL    HW190142   8.353   3.790   2.619  0.0320 -0.3032 -0.9567
26139SOL    HW290143   8.460   3.708   2.688  0.2809  0.2806 -0.6451
26140SOL     OW90144   1.845   8.783  10.178 -0.1814  0.6659 -0.3279
26140SOL    HW190145   1.818   8.763  10.267 -0.9186  1.1404 -0.4362
26140SOL    HW290146   1.899   8.709  10.152 -0.3766  0.2846  0.3328
26141SOL     OW90147   0.484   9.312   2.090 -0.1342  0.0428 -0.5321
26141SOL    HW190148   0.454   9.250   2.157  1.2503 -0.2193 -0.1205
26141SOL    HW290149   0.579   9.298   2.085 -0.1254  0.4773 -2.1375
26142SOL     OW90150  10.883   6.618  11.346  0.1256  0.6065  0.3227
26142SOL    HW190151  10.969   6.602  11.307 -0.8918  0.4689 -2.0515
26142SOL    HW290152  10.868   6.712  11.333 -1.2906  0.1394 -2.1946
26143SOL     OW90153   1.099   0.458  10.576  0.1546 -0.2754  0.2693
26143SOL    HW190154   1.105   0.415  10.661  0.4523  0.3670  0.5825
26143SOL    HW290155   1.061   0.392  10.518 -1.1980 -0.3208  1.1816
26144SOL     OW90156  12.421   4.479   5.447  0.0950  0.1036  0.2225
26144SOL    HW190157  12.383   4.403   5.492 -0.6879  0.8551  0.8687
26144SOL    HW290158  12.360   4.499   5.377 -0.7204  1.2751  1.2213
26145SOL     OW90159  11.968  12.936   3.327  0.1419  0.4058  0.1139
26145SOL    HW190160  11.932  12.947   3.238  0.9020  0.2614 -0.2206
26145SOL    HW290161  12.047  12.990   3.327 -0.3254  1.1064  0.9989
26146SOL     OW90162   2.975   5.504  11.505 -0.9418  0.8374  0.2070
26146SOL    HW190163   3.047   5.470  11.453 -2.0105 -1.5729  0.1534
26146SOL    HW290164   3.016   5.548  11.579  0.5605  0.5383 -0.4244
26147SOL     OW90165   6.173   1.176   1.638  0.0989  0.2160  0.6874
26147SOL    HW190166   6.094   1.122   1.630 -0.2853  0.7283  0.9480
26147SOL    HW290167   6.243   1.113   1.653 -0.6503 -0.1476  3.3193
26148SOL     OW90168   6.896   1.757   5.960  0.2630  0.0971  0.0467
26148SOL    HW190169   6.870   1.729   5.873 -1.5894  2.8574 -0.4185
26148SOL    HW290170   6.900   1.676   6.012  0.0161 -1.4417 -2.2137
26149SOL     OW90171   4.848  12.368   0.782  0.4190  0.3561  0.5904
26149SOL    HW190172   4.893  12.336   0.704  0.2701 -0.4925  0.8369
26149SOL    HW290173   4.787  12.434   0.750 -0.3166 -0.6489 -0.1526
26150SOL     OW90174   9.591  13.498   4.753  0.2226 -0.5031 -0.2733
26150SOL    HW190175   9.682  13.503   4.724  0.1943  1.5105 -0.1297
26150SOL    HW290176   9.593  13.531   4.843 -0.9149  1.7511 -1.0006
26151SOL     OW90177  12.132   2.210   9.700  0.3141  0.2752 -0.5476
26151SOL    HW190178  12.146   2.301   9.672  1.0829  0.1559 -0.5577
26151SOL    HW290179  12.131   2.160   9.618 -1.6098  0.4378 -0.6804
26152SOL     OW90180  13.734  13.581  11.976  0.7109 -0.0328  0.2165
26152SOL    HW190181  13.781  13.582  11.893 -0.0477  0.5015 -0.2139
26152SOL    HW290182  13.759  13.663  12.019  1.3379 -0.4467  0.6621
26153SOL     OW90183   8.103   8.156   5.868 -1.0969  0.6373 -0.6022
26153SOL    HW190184   8.141   8.191   5.948  0.3957  2.3659 -1.9862
26153SOL    HW290185   8.177   8.150   5.807 -2.4547  0.8643 -2.3416
26154SOL     OW90186  13.727   8.902   3.001 -0.0838  0.0591 -0.2534
26154SOL    HW190187  13.632   8.905   2.998 -0.1236 -1.1266 -0.6194
26154SOL    HW290188  13.754   8.894   2.909  0.3417 -0.2833 -0.1001
26155SOL     OW90189   7.299  10.930   6.116  0.1191 -0.3364 -0.7172
26155SOL    HW190190   7.349  10.953   6.038  1.6810 -1.8990 -0.2511
26155SOL    HW290191   7.363  10.931   6.187 -1.2768  1.0963  0.6052
26156SOL     OW90192   2.312   1.038   1.733  0.5106 -0.0069  0.5951
26156SOL    HW190193   2.276   1.086   1.808 -0.9502 -0.5237  0.2570
26156SOL    HW290194   2.299   0.946   1.755 -0.6912 -0.1594 -0.6082
26157SOL     OW90195   3.327   2.661   0.080 -0.4648  0.8499 -0.1182
26157SOL    HW190196   3.392   2.726   0.053 -1.0798  1.2200 -0.7451
26157SOL    HW290197   3.302   2.617  -0.001  0.9427 -1.1537  0.4649
26158SOL     OW90198   6.232   7.358   4.776 -0.0948  0.0367 -0.1017
26158SOL    HW190199   6.293   7.430   4.762 -0.9475  0.7937 -0.0574
26158SOL    HW290200   6.248   7.298   4.703  0.0548  0.6917 -0.6122
26159SOL     OW90201   0.115   2.947   3.631 -0.1424 -0.6422  0.1960
26159SOL    HW190202   0.191   2.895   3.603  0.3414  0.4816 -0.6411
26159SOL    HW290203   0.039   2.895   3.604  0.3184 -1.4833  0.4726
26160SOL     OW90204   0.739   5.763   1.150  0.0325 -0.2039  0.2627
26160SOL    HW190205   0.820   5.740   1.194 -0.1303  1.2879  1.4557
26160SOL    HW290206   0.705   5.838   1.201 -1.3446  0.1176 -1.0567
26161SOL     OW90207  13.110   6.334   2.503  0.2969  0.3301  0.1728
26161SOL    HW190208  13.065   6.279   2.567  2.4434 -1.4340  0.2896
26161SOL    HW290209  13.152   6.272   2.443  0.5211  1.9085 -1.3820
26162SOL     OW90210   7.845  13.427   6.877 -0.0936 -0.0123 -0.1859
26162SOL    HW190211   7.866  13.341   6.915  0.0859  0.5009  0.9014
26162SOL    HW290212   7.765  13.454   6.923 -1.6172 -0.6822 -2.2879
26163SOL     OW90213   8.952  12.040   5.625  0.1979 -0.2961  0.2855
26163SOL    HW190214   8.945  12.064   5.717 -0.0742 -0.0244  0.1951
26163SOL    HW290215   9.033  12.082   5.596  0.6847 -1.0094  0.5891
26164SOL     OW90216   5.115   8.660   2.044 -0.4549 -0.4581  0.2983
26164SOL    HW190217   5.117   8.590   1.978 -1.5551 -0.7806  0.5933
26164SOL    HW290218   5.134   8.739   1.994  1.4497 -1.0071  0.0581
26165SOL     OW90219   0.996   0.796   6.944 -0.7516 -0.5146 -0.6047
26165SOL    HW190220   0.953   0.774   7.027  2.1117 -1.0482  0.8663
26165SOL    HW290221   1.052   0.720   6.926 -0.2602  0.2062 -2.2846
26166SOL     OW90222   0.836   5.438  12.385 -0.1378 -0.4329  0.0392
26166SOL    HW190223   0.791   5.501  12.442 -1.5565 -0.9874 -0.4266
26166SOL    HW290224   0.790   5.355  12.400  2.4919 -1.7417  1.6055
26167SOL     OW90225  12.356   8.789   5.248 -0.0373 -0.1244 -0.3428
26167SOL    HW190226  12.379   8.699   5.223  0.6113 -0.6118  1.7664
26167SOL    HW290227  12.373   8.792   5.342 -0.5218  2.0864 -0.2814
26168SOL     OW90228   8.721  12.078  11.834  0.3853 -0.2670 -0.6050
26168SOL    HW190229   8.671  12.152  11.800 -0.7409 -1.0400 -0.7066
26168SOL    HW290230   8.808  12.113  11.853 -1.2309  2.1868  3.4324
26169SOL     OW90231  10.373   9.281  11.292 -0.1872 -0.2235 -0.1078
26169SOL    HW190232  10.286   9.241  11.305  0.2266 -1.2519 -0.3895
26169SOL    HW290233  10.414   9.277  11.378 -1.1390  2.1152  0.5196
26170SOL     OW90234   1.450   7.768   5.377  0.3856  0.1795 -0.4174
26170SOL    HW190235   1.491   7.689   5.343  2.9768  2.0266 -1.8870
26170SOL    HW290236   1.466   7.765   5.471  0.3908 -1.0466 -0.4463
26171SOL     OW90237   8.433   0.988  11.403  0.9897 -0.0546 -0.1998
26171SOL    HW190238   8.456   1.080  11.417 -1.4413  0.6361 -0.2979
26171SOL    HW290239   8.374   0.966  11.474  0.2330 -1.0276 -1.0913
26172SOL     OW90240   6.887   8.208   5.669  0.0193 -0.0269  0.2589
26172SOL    HW190241   6.860   8.174   5.584 -0.0236 -2.8576  1.3162
26172SOL    HW290242   6.982   8.213   5.664 -0.0663  1.9955 -0.6331
26173SOL     OW90243   5.571   1.323   4.451  0.2324 -0.0866 -0.3613
26173SOL    HW190244   5.651   1.374   4.467  0.4494 -0.5252 -0.0514
26173SOL    HW290245   5.580   1.293   4.360  0.5717 -0.4064 -0.2232
26174SOL     OW90246   7.793   4.697   1.802 -0.0665  0.2534 -0.2406
26174SOL    HW190247   7.699   4.690   1.790 -0.0439  1.5897 -1.4385
26174SOL    HW290248   7.807   4.788   1.828  0.9834  0.4484 -1.3717
26175SOL     OW90249  11.894   6.032   2.471  0.2347 -0.1375  0.3281
26175SOL    HW190250  11.888   5.942   2.439  0.5019 -0.7598  1.9296
26175SOL    HW290251  11.908   6.023   2.565  1.3322  1.5747  0.3714
26176SOL     OW90252   5.963   5.930   9.413  0.2759  0.5153  0.3175
26176SOL    HW190253   5.884   5.962   9.457 -1.8437 -1.6717 -1.5986
26176SOL    HW290254   6.006   5.876   9.478 -2.0839 -1.5825  0.2917
26177SOL     OW90255   6.967   1.852   7.473 -0.1935 -0.2390 -0.3139
26177SOL    HW190256   6.905   1.780   7.470 -0.9576  0.3903 -0.0399
26177SOL    HW290257   7.052   1.811   7.461 -0.5304 -1.2886  0.6478
26178SOL     OW90258   2.858  10.241   8.422  0.0054  0.0761  0.2043
26178SOL    HW190259   2.822  10.325   8.451  2.4625  0.9229  1.0814
26178SOL    HW290260   2.876  10.253   8.329 -0.9229  0.0016  0.0031
26179SOL     OW90261  11.915   2.848   7.142 -0.2109 -0.1621  0.0318
26179SOL    HW190262  11.937   2.927   7.093  1.7696 -0.2575  0.6888
26179SOL    HW290263  11.863   2.796   7.081  0.5220  0.5840 -1.2793
26180SOL     OW90264   7.413   2.362   1.252  0.2178 -0.2943 -0.2679
26180SOL    HW190265   7.325   2.339   1.221 -0.2444  0.8568  0.1283
26180SOL    HW290266   7.469   2.348   1.176 -0.0862 -2.2043 -0.1850
26181SOL     OW90267   4.878   1.636   3.673 -0.0813 -0.1422  0.1075
26181SOL    HW190268   4.947   1.687   3.633  0.3822 -1.3475 -0.7019
26181SOL    HW290269   4.889   1.649   3.767  1.7270 -0.8659  0.0362
26182SOL     OW90270   2.408   1.014   9.515  0.1417 -0.2379  0.0082
26182SOL    HW190271   2.446   0.931   9.545  1.8193  0.3859 -0.2790
26182SOL    HW290272   2.477   1.055   9.464 -0.2856  1.7763  0.9323
26183SOL     OW90273   5.434   5.233   9.391  0.1751  0.6612 -0.5616
26183SOL    HW190274   5.421   5.205   9.481 -0.0683 -1.7629 -1.2750
26183SOL    HW290275   5.377   5.309   9.381 -1.0248  0.0077  0.8997
26184SOL     OW90276   1.030  13.215   1.641  0.3109  0.0491 -0.1146
26184SOL    HW190277   0.999  13.151   1.704  2.1344 -1.0551 -0.2640
26184SOL    HW290278   1.120  13.188   1.621  1.4237  3.0112  0.3107
26185SOL     OW90279   1.438   7.018   1.090  0.1076  0.0517  0.1282
26185SOL    HW190280   1.459   7.071   1.013 -0.4449 -0.9303 -0.7108
26185SOL    HW290281   1.452   6.928   1.062 -1.1285 -0.3822  0.8367
26186SOL     OW90282  12.653   6.721  12.735  0.0166 -0.2910  0.1689
26186SOL    HW190283  12.738   6.761  12.751 -1.3381  3.0484 -0.1755
26186SOL    HW290284  12.594   6.795  12.717 -2.7585 -2.4947 -0.6221
26187SOL     OW90285   4.647   2.910  11.325 -0.5199 -0.6691 -0.8682
26187SOL    HW190286   4.679   2.930  11.413  0.8296  0.7679 -1.6348
26187SOL    HW290287   4.680   2.822  11.307  0.0654 -0.5721 -0.3256
26188SOL     OW90288   7.789  12.410   0.473  0.2110 -0.4265 -0.2632
26188SOL    HW190289   7.715  12.353   0.452 -1.8787  2.0095 -0.0483
26188SOL    HW290290   7.821  12.439   0.388 -0.7232  0.4017 -0.3557
26189SOL     OW90291   4.993   9.036  12.275  0.0299  0.5051  0.4139
26189SOL    HW190292   4.929   9.031  12.346  0.5507  0.7511  0.9042
26189SOL    HW290293   4.942   9.020  12.196 -0.6713  0.8922  0.7833
26190SOL     OW90294   9.820   6.553   2.921 -0.0001 -0.4878 -0.4658
26190SOL    HW190295   9.853   6.507   2.998  0.8528  0.8218 -0.0012
26190SOL    HW290296   9.899   6.575   2.871 -0.4949 -0.7036 -1.3479
26191SOL     OW90297   0.455   9.331   0.936 -0.2425  0.1239  0.6254
26191SOL    HW190298   0.429   9.416   0.902 -0.3751 -0.6819 -1.4475
26191SOL    HW290299   0.549   9.339   0.952 -0.0914  0.4350 -0.3389
26192SOL     OW90300   2.678  10.645   2.887  0.3736  0.4866 -0.6705
26192SOL    HW190301   2.668  10.714   2.952  1.4685  0.1933 -0.1672
26192SOL    HW290302   2.630  10.676   2.811 -1.6333  0.4908  0.5188
26193SOL     OW90303  12.951   9.632   3.913  0.2643  0.0610  0.0331
26193SOL    HW190304  12.941   9.668   3.825  0.0850 -1.4483 -0.5988
26193SOL    HW290305  13.045   9.624   3.925  0.2825  0.0706 -0.1031
26194SOL     OW90306  10.534   7.377   9.930  0.0942 -0.2679 -0.1428
26194SOL    HW190307  10.522   7.339  10.016 -0.4518  0.2186  0.0061
26194SOL    HW290308  10.565   7.305   9.875  2.4760 -0.1269  0.9118
26195SOL     OW90309   8.230   6.238   3.612  0.4401  0.0725 -0.5215
26195SOL    HW190310   8.243   6.219   3.705 -0.2035  1.2353 -0.1783
26195SOL    HW290311   8.313   6.213   3.570  0.4148 -1.3433  0.2029
26196SOL     OW90312   9.754   5.601   1.103 -0.0513 -0.2080 -0.3611
26196SOL    HW190313   9.679   5.545   1.121  0.1738 -0.8965 -1.4757
26196SOL    HW290314   9.746   5.624   1.010  0.8231  0.1483 -0.3599
26197SOL     OW90315   1.246  10.529  12.870 -0.2155 -0.4077 -1.0038
26197SOL    HW190316   1.331  10.568  12.892 -2.0808  2.4912  2.1250
26197SOL    HW290317   1.196  10.534  12.952 -3.6109 -1.4485 -2.8199
26198SOL     OW90318  11.237   9.715   7.291  0.1242  0.0426  0.7988
26198SOL    HW190319  11.328   9.687   7.298 -0.3583 -1.3026  2.2147
26198SOL    HW290320  11.242   9.809   7.277  1.7322 -0.1000  0.2308
26199SOL     OW90321  11.042  13.450  11.907 -0.3983 -0.2510  0.1207
26199SOL    HW190322  11.069  13.463  11.998  0.3576 -1.7434  0.1402
26199SOL    HW290323  10.961  13.400  11.912  0.1171 -1.1196 -0.0222
26200SOL     OW90324   0.052   2.804  12.184  0.2270 -0.0195 -0.7423
26200SOL    HW190325   0.069   2.879  12.126  0.8785  0.6834  0.3274
26200SOL    HW290326  -0.041   2.810  12.205 -0.1264 -0.5415 -2.0407
26201SOL     OW90327   4.823   3.280   9.859  0.4478  0.7987  0.6402
26201SOL    HW190328   4.800   3.243   9.944 -0.6164 -1.2677 -0.4781
26201SOL    HW290329   4.919   3.287   9.862  0.6272 -1.1848  1.3083
26202SOL     OW90330   9.453   4.058   0.701 -0.0586 -0.6184  0.2614
26202SOL    HW190331   9.433   3.991   0.767 -1.2432 -0.1194  0.4289
26202SOL    HW290332   9.531   4.102   0.736  0.5078 -1.6275  0.3453
26203SOL     OW90333  10.575  10.792   0.277 -0.2522 -1.0264 -0.1091
26203SOL    HW190334  10.624  10.739   0.340 -0.1338 -1.2973 -0.4234
26203SOL    HW290335  10.550  10.871   0.325  1.2075 -0.5028 -0.1658
26204SOL     OW90336   8.344   6.042  12.932  0.0036 -0.2637 -0.1165
26204SOL    HW190337   8.400   6.031  13.009  0.1765 -0.1718 -0.2280
26204SOL    HW290338   8.307   6.130  12.942 -1.2661 -0.8607  0.6991
26205SOL     OW90339  10.382   7.133  13.157  0.4449 -0.0372  0.0445
26205SOL    HW190340  10.390   7.218  13.114 -0.1466  0.2534  0.4874
26205SOL    HW290341  10.415   7.070  13.094 -1.4632  0.2373 -1.3059
26206SOL     OW90342   6.585  11.520  11.377  0.6662  0.0477 -0.2246
26206SOL    HW190343   6.505  11.556  11.414  0.6236  0.3703 -0.6290
26206SOL    HW290344   6.605  11.444  11.432  0.5222  0.4378  0.3635
26207SOL     OW90345  10.663  13.239   7.224 -0.1565 -0.4083  0.4289
26207SOL    HW190346  10.700  13.323   7.251  0.6732 -0.4572 -0.4687
26207SOL    HW290347  10.720  13.211   7.152  0.4028 -2.3840  1.5743
26208SOL     OW90348   1.125   7.868   7.909 -0.9856 -0.3549 -0.2176
26208SOL    HW190349   1.155   7.956   7.885 -1.1310 -0.4490 -0.7481
26208SOL    HW290350   1.091   7.879   7.998 -1.4510  0.2402 -0.4552
26209SOL     OW90351   7.943   5.693  13.015 -0.5777  0.4010  0.0814
26209SOL    HW190352   7.854   5.660  13.003 -0.1073 -1.1844  0.5972
26209SOL    HW290353   7.939   5.784  12.987 -2.3740  0.3936  0.1858
26210SOL     OW90354  11.405   5.966   1.072  0.5513 -0.8430  0.2460
26210SOL    HW190355  11.462   5.909   1.021  0.0500  1.7173 -3.6044
26210SOL    HW290356  11.319   5.957   1.031 -0.2727  0.2637  1.6385
26211SOL     OW90357   8.800   4.581   9.270 -0.0215  0.0335  0.5399
26211SOL    HW190358   8.769   4.578   9.360  1.3138 -1.3016  1.0022
26211SOL    HW290359   8.733   4.535   9.220 -1.0316  1.2416  0.7297
26212SOL     OW90360   0.142   8.503   2.605 -0.0398 -0.0930  0.3530
26212SOL    HW190361   0.197   8.533   2.532  0.0020 -0.9779 -0.0026
26212SOL    HW290362   0.108   8.419   2.575 -1.7759  0.5365  0.4831
26213SOL     OW90363  10.159   6.545   9.414  0.0144 -0.0840 -0.5563
26213SOL    HW190364  10.155   6.616   9.351  0.2332 -1.5604 -2.3234
26213SOL    HW290365  10.229   6.488   9.383 -2.0714 -2.6228 -0.9966
26214SOL     OW90366   2.482  12.310   7.696  0.1930  0.0842  0.2716
26214SOL    HW190367   2.396  12.296   7.658  0.6798  2.4554 -2.0387
26214SOL    HW290368   2.528  12.364   7.631  3.7856 -1.8860  0.9134
26215SOL     OW90369  10.863   4.835   0.075  0.3437  0.1631 -0.1148
26215SOL    HW190370  10.824   4.853   0.160 -1.0751  0.4133 -0.7947
26215SOL    HW290371  10.958   4.842   0.090  0.1850 -0.8602  1.6725
26216SOL     OW90372   6.428  13.555  13.160  0.1971  0.2471 -0.1414
26216SOL    HW190373   6.345  13.520  13.195  0.5357  0.1535  0.5870
26216SOL    HW290374   6.415  13.650  13.158 -0.4783  0.1610 -1.4887
26217SOL     OW90375   8.564   4.932   1.014 -0.3480 -0.0752  0.1017
26217SOL    HW190376   8.530   5.008   1.061  0.2156  1.0758 -1.2802
26217SOL    HW290377   8.659   4.946   1.013  0.0435 -2.0521  1.8856
26218SOL     OW90378   2.792   5.523   8.286 -0.0912  0.5562 -0.1674
26218SOL    HW190379   2.732   5.506   8.359  0.1586 -0.8338 -0.2524
26218SOL    HW290380   2.812   5.436   8.251  0.2472  1.1548 -1.5361
26219SOL     OW90381   8.881  10.100  11.559 -0.2012 -0.6708 -0.1184
26219SOL    HW190382   8.854  10.069  11.472 -0.9372 -0.4410  0.0266
26219SOL    HW290383   8.916  10.021  11.602 -0.3297 -0.9001 -0.4308
26220SOL     OW90384  10.242  10.674   8.509  0.4342 -0.3231  0.4441
26220SOL    HW190385  10.262  10.731   8.584 -0.1340  0.9605 -0.3346
26220SOL    HW290386  10.291  10.594   8.526  1.0216  0.2708  1.7480
26221SOL     OW90387   2.941   1.666  13.447  0.0182  0.1370 -0.3871
26221SOL    HW190388   2.983   1.684  13.531 -0.7542  1.6032 -0.2861
26221SOL    HW290389   3.003   1.698  13.382 -0.1903  0.7492 -0.2948
26222SOL     OW90390  10.419   8.003   5.177  0.0779  0.7444  0.2605
26222SOL    HW190391  10.385   7.983   5.089  0.3185 -2.8170  0.8337
26222SOL    HW290392  10.353   8.061   5.215 -0.8849  1.0092 -1.6790
26223SOL     OW90393   3.168   5.967  12.668 -0.2333  0.3548  0.3725
26223SOL    HW190394   3.136   5.983  12.757  0.8681  2.8904  0.3940
26223SOL    HW290395   3.263   5.966  12.676 -0.1307 -0.1341 -0.6915
26224SOL     OW90396   3.093   0.763   2.765  0.5265  0.0367  0.0079
26224SOL    HW190397   3.149   0.710   2.708 -0.5022  1.4120 -2.4859
26224SOL    HW290398   3.012   0.712   2.774  0.4057  0.1397 -0.4461
26225SOL     OW90399   9.774   5.893   1.823 -0.7424 -0.9005  0.1590
26225SOL    HW190400   9.701   5.847   1.864 -0.3311 -0.7704  1.0582
26225SOL    HW290401   9.781   5.976   1.872 -0.1361 -0.8147 -0.0604
26226SOL     OW90402   8.019  10.761   0.036 -0.4239  0.1021  0.0285
26226SOL    HW190403   7.994  10.713  -0.043 -0.6326 -0.9375  0.7080
26226SOL    HW290404   8.012  10.854   0.011 -1.0715 -0.2034 -0.9810
26227SOL     OW90405   9.068   0.768   5.263 -0.4425  0.0507  0.3623
26227SOL    HW190406   9.148   0.730   5.298 -0.9478  0.1600  1.6962
26227SOL    HW290407   9.014   0.693   5.238 -0.5477 -0.0726  0.9404
26228SOL     OW90408  12.364   0.137   4.416  0.2114 -0.1575 -0.1128
26228SOL    HW190409  12.360   0.139   4.512 -0.2275  1.0014 -0.1285
26228SOL    HW290410  12.285   0.091   4.389 -0.0007  0.0874  0.0817
26229SOL     OW90411   2.823   9.584   6.473  0.0721  0.1941 -0.1965
26229SOL    HW190412   2.840   9.548   6.561 -0.5932 -1.7006 -0.7836
26229SOL    HW290413   2.738   9.626   6.480  0.4756  0.9428  0.3056
26230SOL     OW90414   2.174  12.217   7.146  0.6829  0.3305  0.2294
26230SOL    HW190415   2.254  12.184   7.104  0.6866  0.6250 -0.0008
26230SOL    HW290416   2.169  12.169   7.228  1.3889  0.6981  0.4937
26231SOL     OW90417   3.021  13.548  12.142  0.2788 -0.4907 -0.0750
26231SOL    HW190418   2.990  13.466  12.181  2.3687 -0.8297  0.9785
26231SOL    HW290419   3.113  13.534  12.123  0.3125  1.0950 -1.4088
26232SOL     OW90420   5.135  10.398   0.083  0.2417  0.1563  0.7616
26232SOL    HW190421   5.111  10.489   0.071 -1.5115 -0.2412  0.9237
26232SOL    HW290422   5.153  10.366  -0.005  1.0781  0.6927  0.7269
26233SOL     OW90423   2.443  10.057   8.632 -1.1710 -1.0435  0.4355
26233SOL    HW190424   2.417  10.075   8.542 -0.2880 -1.0170  0.1746
26233SOL    HW290425   2.501  10.130   8.655  0.1882 -2.0543  0.3424
26234SOL     OW90426   1.175   6.661   1.115 -0.5862  0.2580  0.1511
26234SOL    HW190427   1.255   6.707   1.089 -0.0125 -0.1173  1.1834
26234SOL    HW290428   1.125   6.727   1.164 -0.5839  0.2891  0.1121
26235SOL     OW90429  10.065   7.742   0.516  0.7016  0.1550 -0.1905
26235SOL    HW190430  10.107   7.733   0.602 -1.6159  1.0179  1.1469
26235SOL    HW290431  10.133   7.721   0.453  1.9954 -2.4070  1.8890
26236SOL     OW90432  10.508   9.972   5.864  0.1425 -0.3391 -0.2169
26236SOL    HW190433  10.464   9.942   5.785  0.7300 -1.1438 -0.2493
26236SOL    HW290434  10.473   9.917   5.934  1.3332 -1.2405 -0.3014
26237SOL     OW90435   4.139   8.206   1.980  0.3373  0.3687 -0.1021
26237SOL    HW190436   4.058   8.207   1.929 -0.3029 -0.9616  0.8013
26237SOL    HW290437   4.201   8.157   1.925  0.0717  0.1380 -0.2022
26238SOL     OW90438   0.945   8.163   4.477 -0.0122  0.2722  0.3580
26238SOL    HW190439   1.019   8.217   4.505  0.4714 -0.7395  1.0901
26238SOL    HW290440   0.940   8.175   4.383 -1.1055  3.0868  0.6813
26239SOL     OW90441   9.642  12.082  11.893  0.8076 -0.1167 -0.0088
26239SOL    HW190442   9.726  12.121  11.870  1.4620 -0.5380  1.5122
26239SOL    HW290443   9.636  12.004  11.839  1.2290  0.1151 -0.3948
26240SOL     OW90444  13.339  12.939   4.000 -0.0037  0.3168  0.0774
26240SOL    HW190445  13.351  12.845   3.986  1.1748  0.6873 -1.7436
26240SOL    HW290446  13.370  12.955   4.089 -0.3577 -1.0289  0.4584
26241SOL     OW90447   1.456  13.094   0.501  0.6863 -0.2779 -0.0777
26241SOL    HW190448   1.435  13.003   0.520  0.0282 -0.3748 -1.1662
26241SOL    HW290449   1.551  13.095   0.491  1.0811 -0.2552  2.7702
26242SOL     OW90450   4.551  12.281   3.737 -0.0775 -0.5963 -0.5165
26242SOL    HW190451   4.604  12.268   3.816 -0.7487  0.2340  0.0835
26242SOL    HW290452   4.535  12.375   3.734 -2.8669 -0.9814  0.2060
26243SOL     OW90453   2.399   7.489   0.116 -0.3979 -0.2183  0.0822
26243SOL    HW190454   2.408   7.395   0.104  2.8194 -0.0811  0.4922
26243SOL    HW290455   2.380   7.523   0.028 -1.7419 -1.2148 -0.0337
26244SOL     OW90456   3.305   4.749  10.895  0.0788 -0.2037 -0.0123
26244SOL    HW190457   3.288   4.817  10.961  3.1607  2.5533 -1.7811
26244SOL    HW290458   3.291   4.793  10.811 -1.4143 -2.9373 -1.3396
26245SOL     OW90459  12.999  10.429   2.505  0.0807 -0.1260 -0.5299
26245SOL    HW190460  12.921  10.470   2.542 -1.2269 -2.1063 -0.9448
26245SOL    HW290461  13.005  10.465   2.416  0.4937  1.0669 -0.0495
26246SOL     OW90462   2.372   3.179   5.032 -0.5769  0.0169  0.4562
26246SOL    HW190463   2.441   3.161   5.096  0.5810 -1.1486 -1.0352
26246SOL    HW290464   2.406   3.253   4.980 -0.5206 -0.4336 -0.1601
26247SOL     OW90465  13.521   4.398   7.346 -0.1573  0.0174  0.6865
26247SOL    HW190466  13.564   4.336   7.286 -1.8607  0.1637 -0.7663
26247SOL    HW290467  13.568   4.481   7.332 -0.6753  0.1151 -0.6821
26248SOL     OW90468   1.027   2.266   9.369  0.2495  0.1234 -0.2843
26248SOL    HW190469   1.115   2.301   9.386  0.4051  0.0871 -0.9477
26248SOL    HW290470   1.029   2.177   9.402  0.9364 -0.3644 -1.5486
26249SOL     OW90471   1.358   5.840  11.907 -0.7418 -0.0605 -0.1881
26249SOL    HW190472   1.409   5.796  11.975  1.1046 -0.2365 -1.6286
26249SOL    HW290473   1.267   5.822  11.931 -0.1442 -0.6868  1.8445
26250SOL     OW90474  12.747   1.554  12.742 -0.3322  0.2089 -0.2278
26250SOL    HW190475  12.781   1.639  12.714  1.2062 -0.5911 -0.9178
26250SOL    HW290476  12.785   1.492  12.680 -0.2176 -1.1496  1.1392
26251SOL     OW90477   2.117  13.461   3.914  0.1373  0.4172  0.3336
26251SOL    HW190478   2.202  13.495   3.942 -0.2367  2.7842 -1.1222
26251SOL    HW290479   2.053  13.513   3.962 -0.5129 -0.4860  0.4774
26252SOL     OW90480  12.870   9.989  10.930  0.4852  0.3833  0.1012
26252SOL    HW190481  12.806   9.988  11.001 -1.0874 -1.7824 -1.2261
26252SOL    HW290482  12.903   9.900  10.926  3.0767  1.2409  0.1883
26253SOL     OW90483  12.258   0.710   7.177 -0.3368  0.3156  0.1516
26253SOL    HW190484  12.290   0.737   7.263 -1.3788  0.9282  0.3649
26253SOL    HW290485  12.196   0.779   7.152  0.2023  0.3197 -1.2434
26254SOL     OW90486   3.689  12.584  11.350  0.4625 -0.4030  0.3210
26254SOL    HW190487   3.773  12.559  11.310  1.1881  1.5567  0.5078
26254SOL    HW290488   3.623  12.558  11.285  1.3124 -0.7443 -0.4347
26255SOL     OW90489   3.544  12.627   1.513 -0.1173  0.2592  0.4790
26255SOL    HW190490   3.517  12.561   1.450  0.7789  0.2607  0.0878
26255SOL    HW290491   3.639  12.626   1.510 -0.0588  2.7085 -0.7541
26256SOL     OW90492  10.863  11.843  10.389 -0.2611  0.5157  0.2707
26256SOL    HW190493  10.931  11.819  10.452  1.4262 -0.7610 -1.9315
26256SOL    HW290494  10.906  11.906  10.331 -0.9693 -0.2357 -1.1031
26257SOL     OW90495  12.488   0.363   7.104  0.4987 -0.4277  0.1704
26257SOL    HW190496  12.488   0.452   7.139  0.3376  0.4314 -1.8223
26257SOL    HW290497  12.581   0.343   7.089  0.4608  0.3872 -1.4998
26258SOL     OW90498  13.121  11.904   9.156 -0.6093 -0.4831  0.5380
26258SOL    HW190499  13.211  11.873   9.154 -0.0329  1.0464  0.9394
26258SOL    HW290500  13.120  11.979   9.097 -1.8949 -1.0877 -0.2706
26259SOL     OW90501   7.266   2.847   0.711  0.5054  0.0951 -0.1051
26259SOL    HW190502   7.209   2.821   0.784  0.9063  0.8188  0.4755
26259SOL    HW290503   7.346   2.796   0.723 -0.1156 -1.1956 -1.1276
26260SOL     OW90504   6.128  13.490  13.029 -0.1934 -0.3015  1.0532
26260SOL    HW190505   6.086  13.414  12.989 -0.2608  0.2032  0.1419
26260SOL    HW290506   6.148  13.462  13.118  2.3495 -2.3798 -0.0489
26261SOL     OW90507   6.750   3.865   6.050  0.3740 -0.3424 -0.1021
26261SOL    HW190508   6.770   3.778   6.014 -1.0014 -1.8258  2.4876
26261SOL    HW290509   6.659   3.880   6.027  0.0853 -0.4079  0.9463
26262SOL     OW90510   4.201   3.160  10.614 -0.1540  0.5272  0.8666
26262SOL    HW190511   4.202   3.246  10.570  0.5211  0.7730  1.3418
26262SOL    HW290512   4.149   3.105  10.556  1.8057  0.4623 -0.9866
26263SOL     OW90513  13.428   5.099   3.388  0.4349  0.0095  0.2709
26263SOL    HW190514  13.512   5.078   3.347  0.1126  0.5494 -0.7072
26263SOL    HW290515  13.404   5.020   3.436  0.7681 -0.7015 -0.6917
26264SOL     OW90516   6.438   7.555  13.087 -0.0404 -0.4064 -0.7955
26264SOL    HW190517   6.531   7.575  13.084  0.1415 -1.1712 -0.4147
26264SOL    HW290518   6.423   7.518  13.174 -0.9064  0.6512 -0.4689
26265SOL     OW90519   5.140   8.727   6.247 -0.3561  0.2027  0.2476
26265SOL    HW190520   5.104   8.736   6.335 -1.3728 -1.9648  0.1300
26265SOL    HW290521   5.064   8.732   6.189  0.1998  0.8015 -0.4444
26266SOL     OW90522   1.429  11.447  12.527 -0.2074 -0.0925 -0.0473
26266SOL    HW190523   1.475  11.530  12.529 -0.8111  0.2520 -0.1317
26266SOL    HW290524   1.496  11.381  12.544 -0.0368  0.5399  2.0086
26267SOL     OW90525   4.764  10.029   1.452 -0.1262  0.3985 -0.5940
26267SOL    HW190526   4.683  10.035   1.502  0.6881 -0.4836  0.9002
26267SOL    HW290527   4.827  10.083   1.500  1.0591 -1.5923  0.2257
26268SOL     OW90528  12.166   0.009   9.036 -0.7663 -0.0241  0.3274
26268SOL    HW190529  12.175   0.093   8.993 -0.5251 -0.4098 -0.3861
26268SOL    HW290530  12.239  -0.043   9.003  0.1715  0.0488  2.1099
26269SOL     OW90531   8.668   5.609  13.045  0.2499 -0.2029 -0.5617
26269SOL    HW190532   8.643   5.569  12.962 -1.3001  0.5343 -0.4940
26269SOL    HW290533   8.653   5.541  13.110  1.3539 -0.7432 -0.8539
26270SOL     OW90534   7.050  12.089  11.826  0.1801  0.1220 -0.0537
26270SOL    HW190535   7.045  12.184  11.814 -0.6324  0.1379  0.3669
26270SOL    HW290536   6.996  12.053  11.755  0.0651 -0.0025  0.0954
26271SOL     OW90537   3.760  10.084   3.753  0.3807 -0.6299 -0.7520
26271SOL    HW190538   3.701  10.058   3.824  1.0864 -0.9902 -0.2787
26271SOL    HW290539   3.789  10.172   3.776  0.5455 -0.7149 -0.6336
26272SOL     OW90540  13.392   2.712   4.506 -0.0994 -0.2406 -0.0147
26272SOL    HW190541  13.444   2.793   4.509  0.4005 -0.5723  0.8416
26272SOL    HW290542  13.380   2.694   4.413 -0.9271  1.2623 -0.2314
26273SOL     OW90543   1.193   3.763   9.951  0.1903  0.0976 -0.0762
26273SOL    HW190544   1.158   3.743  10.038 -0.5762  1.3213 -0.0747
26273SOL    HW290545   1.233   3.850   9.961  2.0426 -0.6680 -0.4232
26274SOL     OW90546   3.012   7.551  13.582 -0.2114  0.2979 -0.0959
26274SOL    HW190547   2.988   7.630  13.630  0.8287 -0.3627  1.5825
26274SOL    HW290548   3.071   7.581  13.512  1.3376  0.8916  1.4058
26275SOL     OW90549  10.947   6.410  13.134 -0.3375  0.3160 -0.1544
26275SOL    HW190550  10.909   6.379  13.052 -0.6650  0.5217 -0.0826
26275SOL    HW290551  11.011   6.342  13.158 -0.0598  0.3782 -0.7047
26276SOL     OW90552   4.731   8.689   6.665  0.1003  0.1463 -0.0488
26276SOL    HW190553   4.737   8.717   6.757 -0.7328  1.3024 -0.3221
26276SOL    HW290554   4.672   8.614   6.667  0.4602 -0.1355  0.4095
26277SOL     OW90555   4.272   2.458   3.524  0.2940  0.2398  0.3366
26277SOL    HW190556   4.191   2.496   3.558 -1.2881 -1.7251 -0.9967
26277SOL    HW290557   4.289   2.505   3.442  0.1440  0.2295  0.2998
26278SOL     OW90558  13.507   6.015   0.028  0.0362  0.3759  0.1856
26278SOL    HW190559  13.579   6.042  -0.028  0.2363 -2.1271 -0.8739
26278SOL    HW290560  13.547   6.001   0.114  0.4657  0.5715  0.0189
26279SOL     OW90561   4.451  12.345   6.697  0.3206  0.4079  0.5160
26279SOL    HW190562   4.512  12.361   6.625  3.2482 -0.5401  2.5620
26279SOL    HW290563   4.454  12.424   6.750  1.1917 -0.2677  1.5261
26280SOL     OW90564   0.138   1.253   0.184 -0.4363  0.6014  0.2607
26280SOL    HW190565   0.228   1.286   0.180  0.5427 -1.8893 -1.5750
26280SOL    HW290566   0.085   1.321   0.142  0.9614  1.2169 -0.5895
26281SOL     OW90567  13.484   8.174  11.834 -0.4408 -0.1297  0.3175
26281SOL    HW190568  13.579   8.189  11.833 -0.5443  0.5535 -0.2037
26281SOL    HW290569  13.475   8.079  11.827  0.1943 -0.1164 -1.0791
26282SOL     OW90570   5.255   4.524   7.627  0.2066 -0.8734  0.1205
26282SOL    HW190571   5.275   4.430   7.625 -0.5744 -1.0413 -0.3393
26282SOL    HW290572   5.193   4.533   7.699 -1.2204 -1.0538 -1.0179
26283SOL     OW90573   7.907   2.227   4.544  0.4753 -0.0396 -0.3192
26283SOL    HW190574   7.932   2.146   4.589  0.2195  0.4268  0.6908
26283SOL    HW290575   7.965   2.232   4.469  0.0784 -1.4837 -0.7466
26284SOL     OW90576   8.825   6.874   5.522 -0.0600 -0.3296  0.1852
26284SOL    HW190577   8.866   6.807   5.467 -0.3727 -0.3970  0.0339
26284SOL    HW290578   8.811   6.830   5.606  1.7931  0.2113  0.8317
26285SOL     OW90579  12.717   8.464  13.166  0.1306 -0.5670 -0.6059
26285SOL    HW190580  12.739   8.549  13.203 -2.5809 -1.1345  2.9042
26285SOL    HW290581  12.784   8.405  13.200 -0.3729 -0.4650  0.6369
26286SOL     OW90582   3.104   1.823   3.962  0.2858 -0.5192 -0.5627
26286SOL    HW190583   3.028   1.804   4.017  0.5043 -1.5786 -0.6008
26286SOL    HW290584   3.107   1.919   3.957 -0.3072 -0.4319  0.4617
26287SOL     OW90585   1.237   9.440   8.718  0.4011 -0.5432 -0.1822
26287SOL    HW190586   1.306   9.506   8.715 -0.5169  0.5826  1.6124
26287SOL    HW290587   1.156   9.489   8.701 -0.1605 -1.4639 -0.2096
26288SOL     OW90588   9.227   9.532   8.697  0.5230  0.2465  0.0113
26288SOL    HW190589   9.272   9.548   8.780 -0.0083  0.9951  0.1596
26288SOL    HW290590   9.208   9.438   8.698  0.6340  0.2273  0.6719
26289SOL     OW90591  11.270   0.778   5.936  0.4560  0.1796  0.0624
26289SOL    HW190592  11.332   0.722   5.890  0.8962  0.8657 -0.2003
26289SOL    HW290593  11.309   0.791   6.023  0.0780 -0.3658  0.3212
26290SOL     OW90594   6.980   4.538   9.949  0.4216 -0.2573 -0.1638
26290SOL    HW190595   7.001   4.573  10.035 -2.1629  0.5026  0.2095
26290SOL    HW290596   7.052   4.568   9.893  0.8738  1.3161  1.1996
26291SOL     OW90597   5.520   7.276  10.429  0.1922 -0.3133 -0.7107
26291SOL    HW190598   5.541   7.285  10.336  1.5748 -0.1888 -0.4050
26291SOL    HW290599   5.602   7.295  10.474 -0.6328  0.3555  0.5796
26292SOL     OW90600  12.105   5.412   0.209 -0.0739 -0.2070  0.3095
26292SOL    HW190601  12.169   5.421   0.280  0.8469  1.3128 -0.6688
26292SOL    HW290602  12.129   5.329   0.167  3.0741  1.4863 -1.6526
26293SOL     OW90603   6.870   8.037   3.461  0.0010 -0.1848  0.1415
26293SOL    HW190604   6.869   8.018   3.555  0.1127  1.3293  0.4812
26293SOL    HW290605   6.807   8.109   3.451  1.5990  1.1928 -0.5557
26294SOL     OW90606   4.920   2.979   7.409  0.0373  0.6746 -0.3080
26294SOL    HW190607   4.994   2.923   7.433  0.3408  1.6860  1.2228
26294SOL    HW290608   4.872   2.928   7.344 -0.6287 -2.1757  2.1705
26295SOL     OW90609  13.308   6.555   7.058 -0.1867 -0.3179  0.2038
26295SOL    HW190610  13.221   6.591   7.079 -0.1944 -0.5290  0.5514
26295SOL    HW290611  13.367   6.629   7.067 -0.7621  0.8313 -3.7473
26296SOL     OW90612   0.251   1.846   0.946  0.8899  0.7154 -0.0813
26296SOL    HW190613   0.316   1.779   0.967 -0.6932 -0.7173  0.4526
26296SOL    HW290614   0.285   1.926   0.986  1.4299 -0.4042  1.8320
26297SOL     OW90615   1.773   9.977  11.065  0.3105 -0.1089 -0.2337
26297SOL    HW190616   1.720  10.052  11.091 -0.9034 -0.9280 -0.2217
26297SOL    HW290617   1.856   9.989  11.111 -0.2809  0.6276  0.6828
26298SOL     OW90618   8.659  12.570   5.651  0.8646  0.2439  0.0896
26298SOL    HW190619   8.675  12.567   5.745  1.2942  0.7006  0.0342
26298SOL    HW290620   8.605  12.492   5.634  2.0331 -0.6848  0.4736
26299SOL     OW90621   3.226   0.498   5.228  0.2425 -1.0042  0.0833
26299SOL    HW190622   3.170   0.442   5.173  0.0396 -1.2638  0.5483
26299SOL    HW290623   3.255   0.567   5.169  0.8420 -1.8221 -0.6223
26300SOL     OW90624   7.934   0.662   2.791  0.3678  0.4421 -0.2086
26300SOL    HW190625   7.895   0.576   2.809  2.1331 -0.4243 -0.3954
26300SOL    HW290626   7.876   0.700   2.725 -0.1137 -0.8614 -0.5880
26301SOL     OW90627   1.842   3.843   7.315 -0.4636  0.3097  0.3901
26301SOL    HW190628   1.754   3.809   7.300  0.1371 -0.5195 -1.6084
26301SOL    HW290629   1.898   3.765   7.312  0.4563  0.9555  0.4691
26302SOL     OW90630  10.595   0.527   4.254  0.1854 -0.2690 -0.6074
26302SOL    HW190631  10.552   0.556   4.335 -1.0065 -1.0824 -0.9276
26302SOL    HW290632  10.673   0.582   4.248  0.8420 -0.8570  1.6006
26303SOL     OW90633   5.207   7.561   5.986  0.3412 -0.1528 -0.3003
26303SOL    HW190634   5.302   7.573   5.990  0.4656 -0.5483 -1.6548
26303SOL    HW290635   5.195   7.471   5.957 -0.4751 -0.3922  0.7212
26304SOL     OW90636   6.525   6.406   8.767  0.4856  0.1877 -0.0471
26304SOL    HW190637   6.606   6.356   8.753  0.3814  0.3154 -1.1550
26304SOL    HW290638   6.456   6.351   8.730  0.4386  1.3763 -1.8203
26305SOL     OW90639  12.473   6.032   3.163 -0.3288 -0.2951  0.5544
26305SOL    HW190640  12.562   6.068   3.157 -0.1160 -0.6462  1.3562
26305SOL    HW290641  12.482   5.941   3.133 -0.7094  0.0803 -0.7260
26306SOL     OW90642   8.127   5.286   6.164  0.2132  0.0963 -0.3922
26306SOL    HW190643   8.068   5.310   6.234  0.1294 -0.2307 -0.3469
26306SOL    HW290644   8.070   5.254   6.094  0.3733 -1.7680  0.2481
26307SOL     OW90645   5.471   3.808   4.302 -0.4642 -0.2228 -0.2742
26307SOL    HW190646   5.427   3.870   4.245  2.0844  1.0455 -1.0242
26307SOL    HW290647   5.523   3.863   4.361  0.4376 -1.6026  0.2635
26308SOL     OW90648  11.927   9.393   3.866 -0.2789 -0.2092 -0.1204
26308SOL    HW190649  11.895   9.327   3.928 -1.3033  0.7235  0.3964
26308SOL    HW290650  12.004   9.430   3.909  2.8553 -3.7342 -2.1843
26309SOL     OW90651  12.130   3.554   2.503  0.8067  0.0732  0.4584
26309SOL    HW190652  12.175   3.494   2.444  1.6730 -0.8165  1.9564
26309SOL    HW290653  12.067   3.500   2.550 -0.4284  0.9176 -0.1566
26310SOL     OW90654  11.416   9.210   7.860 -0.0996 -0.2593  0.7347
26310SOL    HW190655  11.339   9.233   7.807 -0.2276 -0.7852  0.6868
26310SOL    HW290656  11.428   9.284   7.919  0.4669  0.6734 -0.4997
26311SOL     OW90657   6.778  12.953   7.330 -0.3060 -0.4590  0.2396
26311SOL    HW190658   6.742  12.872   7.296  0.2842 -0.0843 -1.3524
26311SOL    HW290659   6.745  13.021   7.271  1.8620  0.0466 -0.5135
26312SOL     OW90660  10.056   5.901   6.775  0.2104 -0.2295 -0.1116
26312SOL    HW190661  10.079   5.910   6.683 -0.0338 -1.1861 -0.2783
26312SOL    HW290662  10.131   5.856   6.814  0.3109  0.1661  0.1585
26313SOL     OW90663  12.365   3.092   7.724  0.1612 -0.3308  0.4333
26313SOL    HW190664  12.353   3.028   7.654  0.0160 -0.0454  0.1963
26313SOL    HW290665  12.390   3.040   7.800  1.9768 -0.5207 -0.2449
26314SOL     OW90666   5.567  13.240   7.646  0.5227  0.3480  0.0890
26314SOL    HW190667   5.529  13.176   7.706  0.1020  0.9269  0.4585
26314SOL    HW290668   5.561  13.200   7.560  0.9197 -0.4028  0.3986
26315SOL     OW90669  10.841   0.442   8.429 -0.0430  0.4016  0.2744
26315SOL    HW190670  10.903   0.432   8.357 -0.0718 -0.6499  0.3727
26315SOL    HW290671  10.810   0.353   8.446 -0.7531  0.7648  0.9558
26316SOL     OW90672  12.426   8.955  10.127  0.1078  0.2991 -0.1030
26316SOL    HW190673  12.494   8.937  10.192 -0.6427 -0.8932  0.3962
26316SOL    HW290674  12.350   8.904  10.157 -0.7871  1.0383 -1.0189
26317SOL     OW90675   8.183  13.537   5.226 -0.3196  0.2994  0.1090
26317SOL    HW190676   8.105  13.558   5.278  0.8763  1.1959  1.6442
26317SOL    HW290677   8.158  13.557   5.136 -1.8268  0.6634  0.5794
26318SOL     OW90678   4.777   9.818  13.138  0.2456  0.2662  0.0190
26318SOL    HW190679   4.733   9.903  13.147  1.7495  0.9933  1.0283
26318SOL    HW290680   4.839   9.831  13.066  0.4112  0.0052  0.1140
26319SOL     OW90681   1.744  10.817   8.747  0.1973  0.0797  0.0803
26319SOL    HW190682   1.694  10.898   8.737  0.0974  0.2367  1.6375
26319SOL    HW290683   1.719  10.783   8.833  1.6127 -0.6498  0.2377
26320SOL     OW90684   2.890   8.458   8.856 -0.6355  0.1434  0.3047
26320SOL    HW190685   2.978   8.495   8.872  0.0134 -0.4321 -1.6849
26320SOL    HW290686   2.862   8.499   8.774 -3.1781  1.8984  1.9197
26321SOL     OW90687   8.354  10.903   4.132 -0.4253 -0.4908  0.0987
26321SOL    HW190688   8.401  10.845   4.073 -0.2169 -0.4488  0.2199
26321SOL    HW290689   8.263  10.874   4.127 -0.7388  0.6436 -1.5933
26322SOL     OW90690   4.496   9.704   7.892  0.2086  0.3101 -0.0125
26322SOL    HW190691   4.569   9.766   7.890  1.3196 -0.9768 -1.6727
26322SOL    HW290692   4.467   9.704   7.984  1.1100  2.1703  0.3133
26323SOL     OW90693   1.298   9.809   0.505  0.2340  0.2821  0.3108
26323SOL    HW190694   1.248   9.745   0.453 -0.9561 -0.5968  2.3968
26323SOL    HW290695   1.259   9.893   0.483 -0.5858 -0.1305  0.1260
26324SOL     OW90696  10.500   4.244   8.117 -0.2431  0.2994  0.3431
26324SOL    HW190697  10.476   4.164   8.163  0.9862 -0.4621 -0.2758
26324SOL    HW290698  10.481   4.226   8.025  1.1938  0.2104  0.0279
26325SOL     OW90699   2.695   0.665  10.211 -0.3356  0.0918  0.4073
26325SOL    HW190700   2.670   0.753  10.239  1.5173  0.4775  0.9805
26325SOL    HW290701   2.729   0.624  10.291  1.3794 -0.1691 -0.4332
26326SOL     OW90702  10.041   3.293   0.942 -0.1239 -0.2218 -0.2331
26326SOL    HW190703  10.041   3.305   1.037 -1.1361  0.6887 -0.3260
26326SOL    HW290704  10.105   3.224   0.927  2.4980  1.8176  0.8223
26327SOL     OW90705  12.708  12.008  10.659  0.2132  0.2902  0.5915
26327SOL    HW190706  12.644  11.941  10.681  0.7428 -0.6724 -0.6651
26327SOL    HW290707  12.742  12.039  10.743 -0.4753 -0.5852  1.2003
26328SOL     OW90708  13.568   5.789   8.926 -0.1036 -0.0235  0.4869
26328SOL    HW190709  13.520   5.717   8.885 -0.6616  0.8506 -0.4261
26328SOL    HW290710  13.638   5.746   8.975 -2.3324 -1.4492  2.6845
26329SOL     OW90711   0.992  11.101   8.347  0.1125  0.5437  0.4579
26329SOL    HW190712   0.944  11.030   8.390 -2.1884  0.6944 -1.6268
26329SOL    HW290713   0.996  11.075   8.255  2.8311  1.2973  0.2753
26330SOL     OW90714   2.043  10.908  13.342 -0.1295  0.0188 -0.4395
26330SOL    HW190715   2.022  10.835  13.284  0.3633 -0.2763 -0.2542
26330SOL    HW290716   1.963  10.961  13.343 -1.0149 -1.2617  0.5387
26331SOL     OW90717   7.042  13.580   4.089  0.1782  0.8709 -0.6480
26331SOL    HW190718   6.952  13.555   4.069 -0.1419  2.7418 -1.7566
26331SOL    HW290719   7.044  13.675   4.077  1.5547  1.3315  2.3808
26332SOL     OW90720   2.168   1.700  11.097 -0.0105  0.0837  0.7905
26332SOL    HW190721   2.116   1.731  11.022  0.7118  2.7776  1.2769
26332SOL    HW290722   2.255   1.739  11.083  1.0166 -1.7984  1.5608
26333SOL     OW90723  13.374   2.140  10.768 -0.1948 -0.1894 -0.1416
26333SOL    HW190724  13.454   2.146  10.716  0.3610  1.9137  0.8647
26333SOL    HW290725  13.370   2.047  10.794  2.2621 -0.2561  0.2632
26334SOL     OW90726   1.519  11.876  11.618  0.0372 -0.0951 -0.3934
26334SOL    HW190727   1.519  11.840  11.707 -2.9259  0.8868  0.1105
26334SOL    HW290728   1.611  11.874  11.592  0.7521 -2.4269  1.8323
26335SOL     OW90729  12.585   0.124   3.462 -0.2234  0.2293 -0.4623
26335SOL    HW190730  12.509   0.175   3.434 -0.5342  0.5896  0.9380
26335SOL    HW290731  12.578   0.121   3.557  0.7250 -0.9966 -0.4034
26336SOL     OW90732   7.837   0.719   7.162 -0.9420 -0.2031  0.1045
26336SOL    HW190733   7.849   0.810   7.135 -0.1555 -0.2155  0.3903
26336SOL    HW290734   7.759   0.721   7.218  0.0875  0.6255  1.5845
26337SOL     OW90735   6.672   9.073  10.720 -0.4429  0.4445 -0.1295
26337SOL    HW190736   6.720   9.129  10.658  0.4361 -0.3896 -0.2236
26337SOL    HW290737   6.740   9.036  10.776 -1.0715 -0.1124  0.2727
26338SOL     OW90738  11.831  10.785   3.767  1.0728  0.3172  0.2544
26338SOL    HW190739  11.828  10.693   3.742  0.2122  0.2416  0.6036
26338SOL    HW290740  11.910  10.819   3.726  1.1232 -0.4554 -0.2945
26339SOL     OW90741   6.919  13.745   1.423  0.1348  0.3328  0.0489
26339SOL    HW190742   6.849  13.683   1.403  0.7444 -0.5606  0.5823
26339SOL    HW290743   6.999  13.692   1.423  0.6888  1.1374  0.4078
26340SOL     OW90744  10.651   9.693   2.875  0.2843 -0.1749 -0.0562
26340SOL    HW190745  10.722   9.658   2.821 -1.6432 -0.3281 -2.7009
26340SOL    HW290746  10.579   9.630   2.862 -0.9877  1.0434  0.8521
26341SOL     OW90747  13.201  12.364  13.676  0.6118  0.4402 -0.1279
26341SOL    HW190748  13.214  12.278  13.715 -1.7793 -0.1677 -0.4789
26341SOL    HW290749  13.152  12.413  13.742  0.3213  0.8858 -0.6605
26342SOL     OW90750   5.999   7.933   6.205 -0.5681 -0.8040 -0.2854
26342SOL    HW190751   6.081   7.890   6.229 -1.0965 -1.7846 -0.1855
26342SOL    HW290752   6.026   8.019   6.170  0.4208 -0.7308  0.6198
26343SOL     OW90753   8.554   1.859   5.504 -0.3118  0.4461 -0.8572
26343SOL    HW190754   8.511   1.868   5.419  0.4087 -0.1763 -1.3108
26343SOL    HW290755   8.647   1.846   5.482 -0.1406  0.1161  0.0125
26344SOL     OW90756   6.398   3.468   1.903  0.7208  0.0060  0.1489
26344SOL    HW190757   6.427   3.459   1.994  0.8536  0.4429  0.1561
26344SOL    HW290758   6.338   3.395   1.889  0.4965  0.0864  0.6711
26345SOL     OW90759   3.394   8.538   2.862  0.0105  0.2382 -0.4496
26345SOL    HW190760   3.426   8.475   2.927 -0.1226  0.0527 -0.5644
26345SOL    HW290761   3.408   8.623   2.904 -1.0200  0.0797  0.2584
26346SOL     OW90762  12.037   0.965  11.193 -0.0030  0.0846  0.7997
26346SOL    HW190763  12.126   0.975  11.226  0.6470 -1.4742 -0.3658
26346SOL    HW290764  12.037   0.881  11.148 -1.4772  0.9880 -1.0462
26347SOL     OW90765   1.225   1.944   2.048  0.4771  0.2732 -0.0669
26347SOL    HW190766   1.266   2.027   2.071  2.0050 -0.4946  0.0881
26347SOL    HW290767   1.185   1.914   2.130 -0.4829  1.0458 -0.2307
26348SOL     OW90768   3.121   0.301   9.050  0.2218 -0.7357 -0.8457
26348SOL    HW190769   3.094   0.247   8.976 -0.5718  0.7026 -1.6586
26348SOL    HW290770   3.205   0.337   9.024  0.2379 -0.7201 -0.7724
26349SOL     OW90771   1.538  12.112   7.228  0.5048 -0.1296  0.2595
26349SOL    HW190772   1.567  12.027   7.261  0.5584 -0.3907 -0.4443
26349SOL    HW290773   1.470  12.091   7.164  1.6678  0.2435 -1.1495
26350SOL     OW90774   9.957  11.615   2.038  0.0705  0.6350  0.3014
26350SOL    HW190775   9.875  11.663   2.045  0.6379  1.7652 -0.5572
26350SOL    HW290776   9.973  11.608   1.944  0.6155 -0.1731  0.4418
26351SOL     OW90777   6.912   8.033   1.267 -0.2942  0.3368 -0.5609
26351SOL    HW190778   6.906   7.974   1.342  0.1912  0.8270 -0.1296
26351SOL    HW290779   6.980   7.995   1.211  0.9037  1.1399  0.3185
26352SOL     OW90780  10.685   9.536  13.376 -0.0906  0.2740 -0.6787
26352SOL    HW190781  10.659   9.447  13.354 -0.0295 -0.1433  0.7971
26352SOL    HW290782  10.767   9.525  13.424 -0.0692  1.1275 -0.5019
26353SOL     OW90783   7.230   6.395   6.012 -0.3300  0.3307 -0.0250
26353SOL    HW190784   7.278   6.316   6.038 -1.1203  0.0349  0.5689
26353SOL    HW290785   7.155   6.362   5.962 -0.0943  0.7751 -0.6923
26354SOL     OW90786   7.856   9.796  12.626  0.0576  0.3271 -0.5828
26354SOL    HW190787   7.771   9.763  12.599 -0.6451  1.8531 -0.3558
26354SOL    HW290788   7.915   9.721  12.620 -0.9023 -0.3307 -2.4836
26355SOL     OW90789   0.608  10.958   9.319 -0.3341  0.4331 -0.0887
26355SOL    HW190790   0.614  11.053   9.309  3.3815  0.2151 -1.4631
26355SOL    HW290791   0.618  10.943   9.413 -1.3350  1.3628  0.1921
26356SOL     OW90792   1.397   7.212   7.727 -0.4840  0.3753 -0.1361
26356SOL    HW190793   1.319   7.213   7.781  1.3873  1.3853  2.7755
26356SOL    HW290794   1.430   7.302   7.730  1.5586 -0.3161 -0.0188
26357SOL     OW90795   1.942   9.332  13.297  0.2160 -0.1091  0.3825
26357SOL    HW190796   1.875   9.335  13.229  0.1135  0.7767  0.5105
26357SOL    HW290797   1.899   9.372  13.374  1.1332  1.2239  0.2415
26358SOL     OW90798  11.109  12.628   5.233  0.3693 -0.2711  0.3835
26358SOL    HW190799  11.077  12.698   5.289 -0.8826 -1.3211  1.0208
26358SOL    HW290800  11.204  12.629   5.245  0.5195  1.9314 -0.3909
26359SOL     OW90801   5.681   2.938   3.221  0.1746 -0.1459  0.1490
26359SOL    HW190802   5.702   2.850   3.252  0.8664 -0.4462 -1.1024
26359SOL    HW290803   5.586   2.941   3.218  0.0528 -0.0758  2.2813
26360SOL     OW90804   4.815  10.488  11.754 -0.4284  0.0465 -0.1444
26360SOL    HW190805   4.774  10.462  11.837 -0.0952 -3.7049 -0.9651
26360SOL    HW290806   4.902  10.517  11.779 -1.2103  1.5952  0.9931
26361SOL     OW90807  13.568   8.966  12.937 -0.3371 -0.0026 -0.0419
26361SOL    HW190808  13.552   9.020  13.014 -0.1602 -0.1266  0.0821
26361SOL    HW290809  13.489   8.977  12.883 -1.1110 -1.0555  0.8243
26362SOL     OW90810   6.500  12.785   4.690  0.0367  0.5703 -0.0205
26362SOL    HW190811   6.527  12.868   4.652  0.3317  0.6739  0.3946
26362SOL    HW290812   6.405  12.783   4.681  0.2397 -0.5082 -2.9708
26363SOL     OW90813   3.098   7.977   7.988  0.0836 -0.0106 -0.4870
26363SOL    HW190814   3.075   8.034   7.914  2.5804 -0.3954 -1.6608
26363SOL    HW290815   3.112   8.038   8.061  1.3752  0.8186 -1.3744
26364SOL     OW90816   1.208   2.360  13.508  0.0007 -0.0621  0.1658
26364SOL    HW190817   1.165   2.275  13.519  1.1419 -0.8331 -0.9814
26364SOL    HW290818   1.187   2.386  13.418  0.1485  0.5895  0.3134
26365SOL     OW90819   5.243   9.109   3.228  0.5294  0.4462  0.0022
26365SOL    HW190820   5.230   9.111   3.322 -1.1307 -3.2996  0.0401
26365SOL    HW290821   5.169   9.159   3.192  1.5346  2.4594  0.5833
26366SOL     OW90822   7.304  12.568   4.972 -0.0004  0.1229 -0.2538
26366SOL    HW190823   7.260  12.612   4.899  1.4463  1.0414 -0.6023
26366SOL    HW290824   7.264  12.606   5.050 -0.5152  0.2203 -0.5583
26367SOL     OW90825   1.528   5.210   6.518 -0.3275  0.1149  0.0697
26367SOL    HW190826   1.451   5.204   6.575 -0.7767 -1.8807 -0.6646
26367SOL    HW290827   1.498   5.262   6.443 -0.5612  0.4297  0.3752
26368SOL     OW90828  13.366   8.787   0.547 -0.8199 -0.0283  0.2743
26368SOL    HW190829  13.336   8.824   0.465 -1.0083  0.3658  0.5192
26368SOL    HW290830  13.288   8.747   0.586 -1.1062  1.2508  1.0485
26369SOL     OW90831   1.451  11.953   6.984 -0.0982 -0.0177 -0.3854
26369SOL    HW190832   1.391  11.953   6.910 -1.7072  2.7310  0.7588
26369SOL    HW290833   1.444  11.866   7.022 -1.1412 -0.6660 -1.9816
26370SOL     OW90834   7.193  12.193   7.210 -0.3027 -0.4247  0.2414
26370SOL    HW190835   7.271  12.192   7.266  0.2217 -1.0895 -0.4865
26370SOL    HW290836   7.226  12.214   7.123 -0.8929 -1.0084 -0.1341
26371SOL     OW90837   0.470   8.902  10.661  0.1489 -0.1362 -0.3070
26371SOL    HW190838   0.414   8.832  10.694  1.3743 -0.3505  1.5094
26371SOL    HW290839   0.452   8.976  10.719  1.5390 -0.1495  0.1862
26372SOL     OW90840   7.731  10.948   8.367 -0.0623  0.2190 -0.1988
26372SOL    HW190841   7.776  10.896   8.300  1.2910  0.2874  0.6027
26372SOL    HW290842   7.754  10.905   8.449  1.4222  2.2659  0.5298
26373SOL     OW90843   8.279   1.497   3.757  0.0216  0.0048  0.6274
26373SOL    HW190844   8.328   1.514   3.676 -0.6333  1.0747  0.4336
26373SOL    HW290845   8.187   1.502   3.731 -0.1982  0.6013  1.4789
26374SOL     OW90846   3.447  12.623  11.613  0.1035 -0.5677 -0.1178
26374SOL    HW190847   3.460  12.686  11.542 -1.0787 -0.1063  0.0395
26374SOL    HW290848   3.516  12.558  11.602  1.5466  0.9102 -0.1104
26375SOL     OW90849   1.531   4.873  12.278 -0.0467 -0.0969  0.0496
26375SOL    HW190850   1.589   4.808  12.237  0.9796  1.4447 -1.0777
26375SOL    HW290851   1.447   4.829  12.285  1.1422 -2.3105  1.4288
26376SOL     OW90852   6.699   8.247   3.509 -0.2675  0.0539 -0.6748
26376SOL    HW190853   6.613   8.284   3.527 -0.6437 -1.2617  0.3766
26376SOL    HW290854   6.760   8.320   3.522 -1.1368  0.7542 -0.4581
26377SOL     OW90855   2.769   7.977  10.471 -0.2104  0.3928  0.0461
26377SOL    HW190856   2.851   8.024  10.460 -0.8954  1.8882  0.9243
26377SOL    HW290857   2.763   7.961  10.565 -0.3818 -0.7667 -0.1474
26378SOL     OW90858  10.879   9.339   0.520 -0.8289  0.2964 -0.2253
26378SOL    HW190859  10.939   9.383   0.581 -0.2850  0.8885 -1.1627
26378SOL    HW290860  10.922   9.347   0.435 -1.4490 -0.7461 -0.6559
26379SOL     OW90861  12.921   6.351  10.288  0.2630 -0.2604 -0.0201
26379SOL    HW190862  12.929   6.416  10.218 -0.0840  0.5079  0.6323
26379SOL    HW290863  13.010   6.339  10.321  0.2552  0.3258  0.2307
26380SOL     OW90864   6.189   0.096   5.229  0.1614 -0.3594 -0.1647
26380SOL    HW190865   6.098   0.124   5.243  0.7610  1.3699  0.5189
26380SOL    HW290866   6.216   0.058   5.312  1.1643  2.5296  0.9735
26381SOL     OW90867  11.388  11.715  13.176  0.0984 -0.6377  0.1452
26381SOL    HW190868  11.311  11.711  13.120  0.1525  1.2059 -0.1285
26381SOL    HW290869  11.357  11.756  13.257  0.5800 -0.8541  0.4476
26382SOL     OW90870   3.711  13.645   6.617 -0.1274 -0.1308  0.2406
26382SOL    HW190871   3.660  13.586   6.673  1.8999 -1.3669  0.8765
26382SOL    HW290872   3.737  13.716   6.675  0.8366 -0.7190  0.5438
26383SOL     OW90873  12.544  12.479   5.521  0.1135  0.0177  0.2198
26383SOL    HW190874  12.540  12.482   5.426  1.1579  0.4801  0.1812
26383SOL    HW290875  12.609  12.545   5.545 -0.5302  0.2959  1.2892
26384SOL     OW90876   1.060   3.032   3.252  0.2082  0.7799  0.0008
26384SOL    HW190877   1.044   3.082   3.332 -1.1221 -0.0614  0.2984
26384SOL    HW290878   0.973   3.002   3.225  0.9377 -1.3573 -0.1718
26385SOL     OW90879   9.865   3.334   9.871 -0.1282 -0.6797  0.4441
26385SOL    HW190880   9.955   3.365   9.859 -0.1752 -1.0265 -1.0399
26385SOL    HW290881   9.823   3.401   9.925  0.6837  0.1318  0.0897
26386SOL     OW90882   2.173   0.432   8.959 -0.1257 -0.1031  0.1494
26386SOL    HW190883   2.119   0.474   8.892  0.2597 -0.2909 -0.2840
26386SOL    HW290884   2.111   0.382   9.012 -0.5943  1.0353  0.6957
26387SOL     OW90885   9.930   8.118   3.526 -0.3423 -0.2491 -0.3778
26387SOL    HW190886   9.931   8.197   3.472  1.3451 -1.2523 -1.9445
26387SOL    HW290887   9.955   8.148   3.613 -0.9368  1.1061 -0.6438
26388SOL     OW90888   9.033  12.971   4.793  0.1834  0.1863 -0.1776
26388SOL    HW190889   9.049  13.002   4.704  0.8489 -1.6516 -0.7549
26388SOL    HW290890   9.115  12.987   4.839 -0.5252  2.1706  0.4659
26389SOL     OW90891  12.061   4.768   8.028 -0.8669  0.0204  0.1727
26389SOL    HW190892  12.126   4.791   8.093  0.2052 -1.4864 -0.3006
26389SOL    HW290893  12.014   4.849   8.010  0.6293  1.0537  0.8046
26390SOL     OW90894   3.625   3.822   8.911 -0.0743 -0.3438  0.7497
26390SOL    HW190895   3.695   3.846   8.850 -1.3054  1.7296  0.0682
26390SOL    HW290896   3.654   3.856   8.996  0.3881 -0.7898  0.7751
26391SOL     OW90897   0.176   1.196   4.997  0.1597  0.0721  0.4442
26391SOL    HW190898   0.243   1.254   4.960  0.2652  0.7209  1.6068
26391SOL    HW290899   0.209   1.175   5.084 -0.0254 -1.5111  0.1720
26392SOL     OW90900   3.590  11.084   8.688  0.0272 -0.0948 -0.2936
26392SOL    HW190901   3.587  11.024   8.763 -0.0728 -0.0210 -0.2392
26392SOL    HW290902   3.677  11.070   8.651  0.9469  1.4447  1.1423
26393SOL     OW90903   8.105   5.237   1.609  0.1488  0.2710  0.5110
26393SOL    HW190904   8.154   5.167   1.566 -0.4975  0.1744 -0.0896
26393SOL    HW290905   8.017   5.230   1.572  0.7559  3.2570 -1.8165
26394SOL     OW90906  12.369   1.216   2.552 -0.3925  0.6127  0.0708
26394SOL    HW190907  12.280   1.179   2.555 -0.5516  1.0262  0.3969
26394SOL    HW290908  12.421   1.147   2.510 -1.1346  0.9131 -1.4008
26395SOL     OW90909   8.369   2.198   5.885 -0.5475 -0.0383 -0.2571
26395SOL    HW190910   8.366   2.291   5.907 -1.1868  0.0129 -0.5578
26395SOL    HW290911   8.462   2.175   5.892 -0.3527  0.6833 -0.4364
26396SOL     OW90912   5.348  12.176   9.736  0.1752 -0.4985  0.0295
26396SOL    HW190913   5.400  12.150   9.660 -0.5249  0.5450 -0.8331
26396SOL    HW290914   5.294  12.100   9.756  0.4210 -0.8080 -0.4677
26397SOL     OW90915   7.254   9.621   7.191 -0.2082  0.1284 -0.1862
26397SOL    HW190916   7.163   9.645   7.175 -0.0244 -0.0325 -1.6275
26397SOL    HW290917   7.255   9.526   7.191 -0.0713  0.1292 -0.0056
26398SOL     OW90918   6.109   9.773  11.682 -0.1697  0.7428 -0.2454
26398SOL    HW190919   6.021   9.768  11.721 -0.7894  0.0261 -1.6734
26398SOL    HW290920   6.156   9.833  11.740 -1.4724  0.8526  0.7779
26399SOL     OW90921   7.621   1.916   7.863 -0.1252  0.0958  0.0716
26399SOL    HW190922   7.603   2.003   7.898 -0.7939 -0.2642  0.6465
26399SOL    HW290923   7.536   1.884   7.832 -0.4267 -1.3706  2.2186
26400SOL     OW90924  13.117   7.412   9.405  0.0424  0.2293  0.4492
26400SOL    HW190925  13.072   7.352   9.465  1.7460 -0.0887  1.4725
26400SOL    HW290926  13.121   7.495   9.451 -1.0598  0.7765 -0.3894
26401SOL     OW90927   2.222   3.465   5.767 -0.1261 -0.2176 -0.1758
26401SOL    HW190928   2.301   3.412   5.768 -0.7644 -1.1846  0.3191
26401SOL    HW290929   2.151   3.403   5.751 -0.7424  0.7044 -1.1717
26402SOL     OW90930  13.652   0.271   1.711  0.0893 -0.7324 -0.4100
26402SOL    HW190931  13.712   0.326   1.661 -0.5585 -0.8634 -1.3705
26402SOL    HW290932  13.704   0.240   1.785  0.9788 -0.2430 -0.8081
26403SOL     OW90933   3.591   6.299  12.824  0.1709  0.2729 -0.2198
26403SOL    HW190934   3.567   6.220  12.775 -0.2619  0.1439  0.2021
26403SOL    HW290935   3.595   6.271  12.915  1.3295  0.4265 -0.1974
26404SOL     OW90936   0.000   5.626   5.463  0.5360 -0.6020 -0.6454
26404SOL    HW190937  -0.070   5.689   5.476  0.8254 -0.5894  1.0329
26404SOL    HW290938  -0.001   5.608   5.369 -2.0929 -1.0773 -0.5899
26405SOL     OW90939  13.002   7.123   1.043 -0.2256 -0.2646  0.2589
26405SOL    HW190940  13.075   7.112   1.104  0.5419  0.7370 -0.4370
26405SOL    HW290941  13.029   7.196   0.987 -1.3233 -0.5432 -0.6670
26406SOL     OW90942   6.304  11.576   7.923  0.0096 -0.0022  0.0797
26406SOL    HW190943   6.235  11.642   7.933  1.1252  1.0931  0.8957
26406SOL    HW290944   6.301  11.551   7.831 -0.8723  0.7155 -0.0959
26407SOL     OW90945   4.908   7.691   8.699  0.1838  0.0155  0.3757
26407SOL    HW190946   4.860   7.655   8.773  2.3143  1.0340  2.3991
26407SOL    HW290947   4.901   7.786   8.709  1.2328  0.1765 -0.2205
26408SOL     OW90948   0.742   8.226   9.920  0.5639 -0.2160  0.2316
26408SOL    HW190949   0.777   8.138   9.932  0.4253 -0.6571 -2.2195
26408SOL    HW290950   0.794   8.280   9.979  1.9372 -1.6376  0.3915
26409SOL     OW90951   1.098   4.486   0.611  0.1027  0.0918  0.5231
26409SOL    HW190952   1.091   4.529   0.526 -1.0058 -0.4646  0.3067
26409SOL    HW290953   1.192   4.488   0.632  0.3661  0.3976 -0.6221
26410SOL     OW90954   0.620  12.028   2.392  0.2122  0.2443  0.0586
26410SOL    HW190955   0.631  12.075   2.309  1.6365 -1.1339 -0.5911
26410SOL    HW290956   0.550  11.964   2.374  0.4755 -0.0102 -0.0769
26411SOL     OW90957  12.293   6.958  11.057  0.2107 -0.6566  0.4083
26411SOL    HW190958  12.209   7.004  11.054  1.8437  2.6794  0.6984
26411SOL    HW290959  12.356   7.026  11.083  3.2109 -2.6499 -1.0927
26412SOL     OW90960   7.365  12.518  11.787 -0.0904  0.1998 -0.3939
26412SOL    HW190961   7.338  12.579  11.856  0.3107 -1.0208  0.8851
26412SOL    HW290962   7.323  12.435  11.811  1.7898 -0.7930 -0.3777
26413SOL     OW90963   2.485   2.015   4.208 -0.4024  0.2258 -0.3950
26413SOL    HW190964   2.556   1.989   4.267 -1.0681  2.4007  1.4963
26413SOL    HW290965   2.405   1.986   4.252 -1.0149  3.2882  0.6738
26414SOL     OW90966   9.654   1.614   8.135  0.4172  0.0272 -0.1883
26414SOL    HW190967   9.562   1.592   8.126  0.6888 -1.1577 -0.1871
26414SOL    HW290968   9.658   1.668   8.214 -0.1059 -0.9776  0.5434
26415SOL     OW90969   1.779   8.558   8.424 -0.6422 -0.1466  0.4313
26415SOL    HW190970   1.854   8.509   8.392  0.2591  1.7222 -0.5180
26415SOL    HW290971   1.705   8.499   8.413  0.7833 -2.4804  2.4752
26416SOL     OW90972   1.582   4.416   9.588  0.0097 -0.2759  0.3163
26416SOL    HW190973   1.568   4.492   9.645  0.7363 -1.3565  2.0224
26416SOL    HW290974   1.677   4.408   9.581 -0.0554  0.0656 -1.4548
26417SOL     OW90975   6.339   9.058   6.822 -0.3958 -0.4746  0.0487
26417SOL    HW190976   6.299   9.138   6.788 -0.8175 -0.9419 -0.5808
26417SOL    HW290977   6.432   9.079   6.828 -0.5097  0.0862 -0.0370
26418SOL     OW90978   3.912   0.815   7.799  0.2412 -0.3993 -0.0882
26418SOL    HW190979   3.933   0.868   7.721  0.5600  0.4865  0.5876
26418SOL    HW290980   3.987   0.825   7.856 -0.8240  0.5750  1.1919
26419SOL     OW90981   9.724  10.726   0.179 -0.1502  0.0159 -0.2116
26419SOL    HW190982   9.653  10.666   0.205  0.9778 -0.9494  0.7574
26419SOL    HW290983   9.712  10.803   0.234  0.1152 -0.5452  0.6420
26420SOL     OW90984   6.460  13.722   7.986 -0.2452 -0.5833  0.1852
26420SOL    HW190985   6.464  13.698   7.893 -0.2949  0.8732 -0.2202
26420SOL    HW290986   6.552  13.726   8.013 -0.2082 -0.4350  0.0387
26421SOL     OW90987   4.475   9.561   4.285  0.1852 -0.0548 -0.5675
26421SOL    HW190988   4.553   9.513   4.256  0.1121  0.2726 -1.3420
26421SOL    HW290989   4.434   9.591   4.204 -2.9258 -3.4915 -0.5645
26422SOL     OW90990   1.207   9.726   6.578 -0.6953  0.4297  0.0329
26422SOL    HW190991   1.153   9.776   6.640  1.8447 -0.8768  3.6414
26422SOL    HW290992   1.290   9.773   6.575  0.1419 -1.0087 -0.2287
26423SOL     OW90993  11.358   8.153   0.558 -0.6572  0.4497  0.3898
26423SOL    HW190994  11.314   8.236   0.576 -1.8302 -0.2108  0.6195
26423SOL    HW290995  11.288   8.089   0.555  0.3985 -0.8808  2.1647
26424SOL     OW90996  12.403   1.749  12.035  0.7817  0.1636  0.0232
26424SOL    HW190997  12.409   1.730  12.129 -1.8470  0.4395  0.3204
26424SOL    HW290998  12.440   1.671  11.993  1.0445 -0.4186  1.2674
26425SOL     OW90999   3.182   7.401  12.539  0.3718 -0.1234  0.2262
26425SOL    HW191000   3.149   7.382  12.451 -1.5537  0.0662  0.8428
26425SOL    HW291001   3.177   7.497  12.546 -3.2709 -0.2505  1.7629
26426SOL     OW91002   9.826   9.487   2.600 -0.0575 -0.2534  0.4168
26426SOL    HW191003   9.825   9.487   2.505 -1.7957  0.2395  0.3915
26426SOL    HW291004   9.890   9.553   2.625 -0.0991  0.1060 -0.4246
26427SOL     OW91005   4.397   5.895  13.219  0.0230 -0.4898 -0.4322
26427SOL    HW191006   4.448   5.966  13.257  1.4306 -2.1141  0.8686
26427SOL    HW291007   4.306   5.920  13.235  0.4673 -0.7162  3.6302
26428SOL     OW91008   9.587   4.810  10.802  0.1413  0.5666 -0.0117
26428SOL    HW191009   9.505   4.780  10.764  0.5748 -0.0933 -0.4429
26428SOL    HW291010   9.615   4.882  10.746  0.2881  0.2322 -0.3687
26429SOL     OW91011   4.675   1.127  12.966  0.4101  0.0480 -0.1324
26429SOL    HW191012   4.724   1.195  13.012  0.5675 -1.3029  1.8492
26429SOL    HW291013   4.605   1.104  13.027  0.4400 -1.6354 -0.6938
26430SOL     OW91014   9.694   5.433   3.495 -0.7018 -0.4013 -0.6350
26430SOL    HW191015   9.783   5.422   3.462 -0.7217  0.3247 -0.9614
26430SOL    HW291016   9.660   5.344   3.503 -0.2370 -0.6463 -1.3081
26431SOL     OW91017   2.187   0.688  12.935 -0.0981  0.4078  0.6010
26431SOL    HW191018   2.245   0.614  12.949 -0.2374  0.3964  1.1270
26431SOL    HW291019   2.129   0.688  13.011 -1.7201 -0.4369 -0.5729
26432SOL     OW91020  10.148   2.306   4.860 -0.0278 -0.3427 -0.1913
26432SOL    HW191021  10.165   2.304   4.954 -0.2991 -0.7750 -0.1470
26432SOL    HW291022  10.234   2.322   4.820  0.4228 -1.9694  0.0521
26433SOL     OW91023   1.212  12.144   4.466 -0.6049  0.6369 -0.4277
26433SOL    HW191024   1.265  12.208   4.418  0.1968 -0.1902 -0.6819
26433SOL    HW291025   1.125  12.152   4.429 -0.8191  2.3978  0.3504
26434SOL     OW91026  13.675  12.464   9.244  0.1287  0.1536 -0.3435
26434SOL    HW191027  13.717  12.481   9.328  0.8523  1.6590 -0.9681
26434SOL    HW291028  13.747  12.438   9.186  0.1930  2.1999 -1.2725
26435SOL     OW91029   2.969  10.609  10.969 -0.2369  0.2431  0.1802
26435SOL    HW191030   2.894  10.667  10.987 -0.4248  0.0090  0.1512
26435SOL    HW291031   2.937  10.547  10.904  0.4637  1.1489 -1.0753
26436SOL     OW91032  10.823   8.232   4.196  0.5516  0.4829 -0.1174
26436SOL    HW191033  10.753   8.208   4.257  0.4789 -0.2361 -0.4722
26436SOL    HW291034  10.780   8.287   4.130 -0.6949 -3.1314 -2.6335
26437SOL     OW91035   3.343   4.488  12.337  0.1859  0.3590 -0.2177
26437SOL    HW191036   3.265   4.475  12.391  0.9753  2.4434  1.5651
26437SOL    HW291037   3.313   4.471  12.248 -2.4194  1.3313  0.3693
26438SOL     OW91038   3.661   5.103   0.044 -0.0786 -0.9252  0.2508
26438SOL    HW191039   3.566   5.102   0.050 -0.0479 -1.9514  0.7136
26438SOL    HW291040   3.682   5.029  -0.014  0.4290 -0.6076  0.0197
26439SOL     OW91041   4.044   8.324   7.509  0.1378 -0.1272  0.4973
26439SOL    HW191042   4.016   8.236   7.485 -0.7937  0.0364  0.9188
26439SOL    HW291043   4.139   8.323   7.502  0.0574 -0.8027 -0.7194
26440SOL     OW91044  12.739   1.067   6.425 -0.4145 -0.6211  0.2712
26440SOL    HW191045  12.796   1.015   6.482 -1.5357 -0.0816  1.9803
26440SOL    HW291046  12.754   1.158   6.453 -1.0371 -0.3478 -0.2534
26441SOL     OW91047   3.151   4.360  10.917  0.1339 -0.0172  0.3376
26441SOL    HW191048   3.105   4.279  10.941 -1.6176  0.7563 -0.3215
26441SOL    HW291049   3.117   4.426  10.978  2.9922 -0.0843  2.2288
26442SOL     OW91050   2.873   1.227   0.012  0.1038  0.6456 -0.7974
26442SOL    HW191051   2.829   1.204  -0.070 -1.3097 -1.8096  0.5437
26442SOL    HW291052   2.933   1.155   0.028 -1.3092 -0.1153  1.4308
26443SOL     OW91053   2.134   9.392  13.666  0.8292 -0.3983  0.2029
26443SOL    HW191054   2.074   9.343  13.722 -2.1532  3.0125  0.4424
26443SOL    HW291055   2.197   9.431  13.726  0.1759 -0.0631  0.6902
26444SOL     OW91056   5.799   7.349  11.181  0.0837 -0.4100 -0.1877
26444SOL    HW191057   5.865   7.280  11.174  0.7284  0.3467 -2.6710
26444SOL    HW291058   5.717   7.303  11.196  0.9329 -1.4554  1.5384
26445SOL     OW91059   6.269  11.095   5.574 -0.1523  0.1162  0.2434
26445SOL    HW191060   6.219  11.082   5.493 -2.2463  2.4513  1.0409
26445SOL    HW291061   6.223  11.042   5.639 -1.0949  1.5380  0.7742
26446SOL     OW91062   3.287   1.728   4.322 -0.2217 -0.6997  0.5126
26446SOL    HW191063   3.278   1.702   4.230 -0.7640 -0.8669  0.6107
26446SOL    HW291064   3.352   1.798   4.320  0.0528 -0.9579  0.0465
26447SOL     OW91065   6.149   1.429   8.845 -0.0386  0.4138  0.1380
26447SOL    HW191066   6.201   1.353   8.872  0.6889  0.0564 -2.0144
26447SOL    HW291067   6.181   1.500   8.900 -0.8119 -0.8007  2.2864
26448SOL     OW91068  10.625   4.141   6.542  0.6460 -0.1097  0.1146
26448SOL    HW191069  10.637   4.110   6.632 -1.1775  0.1843  0.5000
26448SOL    HW291070  10.678   4.082   6.489 -2.0909 -3.5736  0.8645
26449SOL     OW91071   3.303   9.582   4.788 -0.6832  0.1762 -0.1054
26449SOL    HW191072   3.313   9.677   4.791 -1.6861  0.2814  0.5600
26449SOL    HW291073   3.304   9.555   4.880 -0.3502 -0.4746 -0.2908
26450SOL     OW91074   8.447   2.498   3.449 -0.2207  0.8708  0.0169
26450SOL    HW191075   8.401   2.482   3.531  0.2978  0.5744  0.2554
26450SOL    HW291076   8.410   2.434   3.388 -0.7458  1.2211 -0.0454
26451SOL     OW91077   3.018   8.681   3.925 -0.2265 -0.2150  0.0247
26451SOL    HW191078   2.975   8.596   3.933 -0.8118  0.0687 -0.0965
26451SOL    HW291079   2.947   8.745   3.921  0.2054  0.2819  0.0647
26452SOL     OW91080   5.398   2.835   8.829  0.3846 -0.1184 -0.1879
26452SOL    HW191081   5.485   2.796   8.823  0.6471  0.4545 -0.2145
26452SOL    HW291082   5.401   2.911   8.771  0.0519  0.2362  0.2417
26453SOL     OW91083  13.675   4.435   0.506  0.8401 -0.1707 -0.2653
26453SOL    HW191084  13.757   4.468   0.468 -0.0370 -1.0014 -3.2056
26453SOL    HW291085  13.609   4.498   0.478  0.1235 -0.8671 -0.1926
26454SOL     OW91086  13.141  10.097   5.187 -0.2420  0.0193 -0.5096
26454SOL    HW191087  13.137  10.136   5.100 -1.1187 -0.4245 -0.6837
26454SOL    HW291088  13.137  10.003   5.172  0.6437 -0.1053 -0.0340
26455SOL     OW91089   0.078   8.168   9.568 -0.3198  0.9126  0.1229
26455SOL    HW191090   0.172   8.157   9.552 -0.4335 -1.4303  0.6647
26455SOL    HW291091   0.066   8.140   9.659 -1.6105  0.6774 -0.1055
26456SOL     OW91092   2.624   9.454   4.051 -0.2115  0.5409  0.9708
26456SOL    HW191093   2.632   9.542   4.015 -2.2356  0.4903  0.2536
26456SOL    HW291094   2.676   9.399   3.993 -0.8681  0.9336 -0.0138
26457SOL     OW91095   3.599   5.482   9.835 -0.2649 -0.0138  0.0333
26457SOL    HW191096   3.511   5.458   9.807 -0.6901 -0.8389  1.9588
26457SOL    HW291097   3.649   5.400   9.828 -0.7249 -0.6311  2.8156
26458SOL     OW91098   9.922   2.789  12.661  0.5827  0.1858 -0.4768
26458SOL    HW191099   9.942   2.699  12.636  0.8247  0.4464 -1.2422
26458SOL    HW291100   9.937   2.840  12.582 -2.1297  0.5528 -0.8336
26459SOL     OW91101   7.974   1.288   9.783  0.0921 -0.4852  0.0165
26459SOL    HW191102   7.955   1.357   9.720 -1.8578 -0.7479  0.2576
26459SOL    HW291103   7.933   1.209   9.746  1.1228 -1.2281  0.3973
26460SOL     OW91104  12.602   3.633   4.134 -0.7197  0.4667 -0.0985
26460SOL    HW191105  12.569   3.722   4.118  2.7006  1.6221 -1.6071
26460SOL    HW291106  12.680   3.626   4.079 -1.6012 -4.0409 -1.1815
26461SOL     OW91107  13.525   0.089  12.500 -0.0173 -0.1670  0.0902
26461SOL    HW191108  13.560   0.002  12.521  1.9344  0.1791 -1.3757
26461SOL    HW291109  13.434   0.073  12.476  0.6969 -2.1016 -1.6647
26462SOL     OW91110   4.533   9.105  13.062  0.0037  0.4787 -0.1080
26462SOL    HW191111   4.595   9.176  13.046  0.7707  0.1033  1.1024
26462SOL    HW291112   4.448   9.149  13.070  0.7453  1.5802  2.7938
26463SOL     OW91113   1.063   0.140   5.798  0.1812  0.1912  0.3627
26463SOL    HW191114   1.061   0.178   5.711  0.5624 -0.8446 -0.1130
26463SOL    HW291115   0.972   0.116   5.816  0.1540  0.1171  0.1247
26464SOL     OW91116   1.586   4.357   0.479 -0.4783 -0.0901 -0.7450
26464SOL    HW191117   1.660   4.303   0.452 -1.3623 -1.1436 -1.1107
26464SOL    HW291118   1.557   4.318   0.561  0.3626  1.3192  0.2634
26465SOL     OW91119  11.487  12.594  11.789 -0.2485 -0.0053 -0.2575
26465SOL    HW191120  11.392  12.601  11.797 -0.1809 -0.9557  2.3969
26465SOL    HW291121  11.521  12.665  11.843  0.4948 -1.0519  0.7061
26466SOL     OW91122   2.827   0.314   5.680 -0.4770  0.0650 -0.2161
26466SOL    HW191123   2.869   0.277   5.602  2.8029 -0.8360  1.7773
26466SOL    HW291124   2.797   0.238   5.730  0.6591  0.3611  0.9853
26467SOL     OW91125   3.457   3.582   1.115 -0.1914  0.5957 -0.6544
26467SOL    HW191126   3.526   3.566   1.050  2.0269 -0.8042  1.8225
26467SOL    HW291127   3.407   3.501   1.118 -0.9671  1.0374 -1.3123
26468SOL     OW91128   0.754   7.482   5.598  0.4088 -0.7128 -0.2976
26468SOL    HW191129   0.751   7.394   5.635 -0.8007 -0.8056 -0.5781
26468SOL    HW291130   0.702   7.535   5.658  0.5906 -0.3182 -0.4803
26469SOL     OW91131   5.159   4.823  12.920  0.5269  0.0946  0.2126
26469SOL    HW191132   5.094   4.850  12.855  0.1933 -0.3305  0.3678
26469SOL    HW291133   5.178   4.732  12.900 -0.4191 -0.3891  1.3975
26470SOL     OW91134   1.609   2.735   9.207 -0.6421  0.0724 -0.2616
26470SOL    HW191135   1.626   2.657   9.259 -0.0618  0.5405  0.2826
26470SOL    HW291136   1.525   2.767   9.238  0.1952  0.9605  1.2236
26471SOL     OW91137  10.569   2.962  10.223 -0.4129 -0.5355 -0.5370
26471SOL    HW191138  10.626   3.034  10.196 -2.1875  0.5243 -1.6887
26471SOL    HW291139  10.502   3.004  10.277  0.0047 -1.7910  1.0408
26472SOL     OW91140   7.704   3.210  10.782  0.2230  0.0584  0.0877
26472SOL    HW191141   7.763   3.147  10.824  0.1775 -0.6768 -0.8999
26472SOL    HW291142   7.635   3.226  10.846 -0.3502 -1.7452 -0.0403
26473SOL     OW91143   9.033   0.318  10.315  0.1137 -0.1603  0.3393
26473SOL    HW191144   8.958   0.267  10.345  0.6153 -0.3800  1.2543
26473SOL    HW291145   9.006   0.353  10.230 -0.2231 -1.9888 -0.3392
26474SOL     OW91146   2.068  11.628   9.148  0.2597  0.1380 -0.4510
26474SOL    HW191147   2.070  11.705   9.092  0.5112  1.8362  1.7392
26474SOL    HW291148   2.160  11.611   9.169  0.2089 -0.8010 -0.9377
26475SOL     OW91149   9.153  10.466  12.391  0.4169  0.4348  0.1494
26475SOL    HW191150   9.206  10.546  12.382  0.4843  0.2198 -2.1124
26475SOL    HW291151   9.176  10.432  12.477  2.5420  1.3698  0.0277
26476SOL     OW91152   3.377   6.032   5.009 -0.3558  0.9754 -0.8442
26476SOL    HW191153   3.394   6.067   5.097 -0.3435  0.0734 -0.4739
26476SOL    HW291154   3.319   6.096   4.968 -1.7813  0.5829  0.4501
26477SOL     OW91155   7.791  10.748  13.378 -0.2000 -0.4432 -0.0781
26477SOL    HW191156   7.801  10.833  13.335 -1.6674 -0.0513  0.3154
26477SOL    HW291157   7.750  10.692  13.312  1.6496 -1.1856 -0.6805
26478SOL     OW91158  13.524   1.822   6.975  0.3226 -0.1206 -0.6266
26478SOL    HW191159  13.581   1.767   6.921  0.2826 -0.6443 -0.1466
26478SOL    HW291160  13.486   1.884   6.913  1.0073 -0.1022 -1.0400
26479SOL     OW91161   9.111  11.431   1.099 -0.1239  0.6165 -0.2082
26479SOL    HW191162   9.134  11.353   1.149  0.6626 -0.1591 -1.7265
26479SOL    HW291163   9.194  11.473   1.080 -0.5871  2.6439  1.7224
26480SOL     OW91164  12.031  11.066   0.897  0.0250 -0.3684  0.1206
26480SOL    HW191165  12.063  10.997   0.838 -1.7236  1.6819 -3.5346
26480SOL    HW291166  12.072  11.046   0.981  4.3623 -2.4438 -2.1650
26481SOL     OW91167  11.139   6.467   1.173 -0.5352  0.5542 -0.1585
26481SOL    HW191168  11.149   6.415   1.253  0.6921  0.4019 -0.3947
26481SOL    HW291169  11.166   6.556   1.198  2.0229  0.0755 -0.8748
26482SOL     OW91170   2.790   0.386   2.162 -0.5884  0.0697 -0.4277
26482SOL    HW191171   2.834   0.403   2.079 -0.8950  0.9639 -0.4120
26482SOL    HW291172   2.850   0.328   2.209  0.6783  1.3811 -0.3507
26483SOL     OW91173  13.627   1.248   3.564 -0.2345  0.6477 -0.2669
26483SOL    HW191174  13.641   1.154   3.577 -1.0558  0.7062  1.3699
26483SOL    HW291175  13.704   1.289   3.602 -1.0582  0.6894  1.4652
26484SOL     OW91176   8.697   7.838   7.886 -0.0043  0.0314 -0.0105
26484SOL    HW191177   8.687   7.836   7.791 -0.0979  0.5887 -0.0150
26484SOL    HW291178   8.615   7.802   7.920 -0.2527  0.4748 -0.1315
26485SOL     OW91179   8.372   1.458   6.072 -0.4033  0.4680 -0.4169
26485SOL    HW191180   8.440   1.489   6.012 -0.5679 -0.9436 -1.3762
26485SOL    HW291181   8.342   1.376   6.033 -0.6275 -0.4163  1.5184
26486SOL     OW91182  12.526   0.170  13.685  0.4147  0.7800 -0.1104
26486SOL    HW191183  12.443   0.152  13.642 -0.0745  0.9704  0.7419
26486SOL    HW291184  12.556   0.085  13.718  0.8306  0.6192 -0.8641
26487SOL     OW91185  12.902   9.160  11.916  0.0723 -0.1568 -0.4081
26487SOL    HW191186  12.935   9.198  11.998 -2.5314 -0.5863  0.9362
26487SOL    HW291187  12.964   9.089  11.896  0.4223 -0.4628  1.5701
26488SOL     OW91188   7.674   9.352  12.113  0.1512  0.3656 -0.0131
26488SOL    HW191189   7.608   9.317  12.053 -0.2268 -1.1120  1.1890
26488SOL    HW291190   7.635   9.432  12.148 -0.9651 -0.4227  0.5910
26489SOL     OW91191  11.856   4.947   6.053  0.5706 -0.5425  0.7396
26489SOL    HW191192  11.933   4.963   5.998  0.7129 -1.0794  0.7779
26489SOL    HW291193  11.791   5.009   6.020 -0.0071 -2.1516 -1.3959
26490SOL     OW91194   4.007   7.932   7.650 -0.3056  0.1687  0.4255
26490SOL    HW191195   4.080   7.958   7.707  0.5929 -1.0421 -0.1316
26490SOL    HW291196   4.035   7.957   7.562  0.3566 -2.0412 -0.0609
26491SOL     OW91197  13.337   3.424  10.637  0.6192 -0.5091 -0.3548
26491SOL    HW191198  13.382   3.493  10.685 -0.1566 -0.5081  0.3782
26491SOL    HW291199  13.392   3.347  10.649  0.4029 -0.5226  0.5820
26492SOL     OW91200   7.177   3.079  13.615  0.2400 -0.0734 -0.2380
26492SOL    HW191201   7.231   3.157  13.629  0.7527 -0.5315  0.4257
26492SOL    HW291202   7.088   3.107  13.639 -0.1008  1.0650 -2.6150
26493SOL     OW91203   6.108   8.374   5.906 -0.0541 -0.2649  0.1001
26493SOL    HW191204   6.174   8.360   5.838  0.6598  1.0500  0.4899
26493SOL    HW291205   6.025   8.377   5.859  0.2282 -1.2049 -0.4816
26494SOL     OW91206   3.495  10.716   1.187 -0.0831  0.3189  0.3749
26494SOL    HW191207   3.446  10.672   1.257 -0.1924  1.0803  0.7976
26494SOL    HW291208   3.581  10.673   1.187  0.5369  1.4043  2.1679
26495SOL     OW91209   2.660   6.409   6.692  0.0161 -0.6840 -0.3871
26495SOL    HW191210   2.634   6.368   6.609  0.0363 -1.4835  0.0001
26495SOL    HW291211   2.754   6.392   6.699  0.2337  0.2997 -0.7033
26496SOL     OW91212   7.134   8.301   9.333 -0.2217 -0.4063 -0.6188
26496SOL    HW191213   7.066   8.361   9.303 -0.6274  0.2490  1.4778
26496SOL    HW291214   7.143   8.319   9.427  2.2225 -1.0879 -0.6483
26497SOL     OW91215   9.191   3.877   4.071  0.0681 -0.1508 -0.4223
26497SOL    HW191216   9.131   3.803   4.063  0.3849 -0.6708  1.4878
26497SOL    HW291217   9.161   3.940   4.005 -0.7371 -1.6098 -1.4967
26498SOL     OW91218  12.140   1.949  10.978  0.1655 -0.0637  0.2378
26498SOL    HW191219  12.106   1.896  10.906  1.8855 -1.4842  0.3991
26498SOL    HW291220  12.121   1.898  11.057 -2.4601  1.8623  0.9780
26499SOL     OW91221   5.356   8.064   0.313  0.2827  0.4482  0.0653
26499SOL    HW191222   5.315   8.003   0.252  1.0244  1.1745 -1.2013
26499SOL    HW291223   5.450   8.046   0.307  0.4284  1.0380  0.4176
26500SOL     OW91224  10.603  13.484   6.448 -0.1539  0.3481 -0.2116
26500SOL    HW191225  10.684  13.443   6.478  0.7647  1.8778 -0.4858
26500SOL    HW291226  10.630  13.540   6.375 -1.7367 -0.3764 -1.4294
26501SOL     OW91227   4.157   8.411   8.994  0.2267  0.5610 -0.1675
26501SOL    HW191228   4.120   8.492   9.028 -2.2073 -0.7754  0.5703
26501SOL    HW291229   4.204   8.373   9.068  0.0045  0.5426 -0.0335
26502SOL     OW91230  11.415   8.219   8.592 -0.5774 -0.1308 -0.1412
26502SOL    HW191231  11.319   8.220   8.585 -0.6938 -0.1696  1.2408
26502SOL    HW291232  11.442   8.305   8.561 -1.0995  0.0907  0.0145
26503SOL     OW91233  13.061   9.765   2.206 -0.1437 -0.0703  0.8753
26503SOL    HW191234  13.108   9.706   2.147  0.8898  1.0981  0.4989
26503SOL    HW291235  12.982   9.789   2.158 -0.5866 -1.1217  1.0364
26504SOL     OW91236   7.170  12.060  11.101  0.1390  0.2003  0.2410
26504SOL    HW191237   7.169  12.150  11.133 -1.1050 -0.0317  0.9265
26504SOL    HW291238   7.260  12.030  11.114  0.0910  0.6909  1.8928
26505SOL     OW91239   8.296   5.776   6.541 -0.1163  0.0065 -0.1912
26505SOL    HW191240   8.380   5.729   6.537 -0.6982 -1.2089  1.0093
26505SOL    HW291241   8.284   5.796   6.633 -0.6450  1.1656 -0.4942
26506SOL     OW91242   9.041   2.268  13.051  0.3493 -0.0491  0.1744
26506SOL    HW191243   9.104   2.338  13.070  1.3798 -0.6636 -0.8696
26506SOL    HW291244   9.019   2.281  12.959  1.4461 -1.7472 -0.3789
26507SOL     OW91245   6.065   2.797   9.002 -0.1105  0.8182  0.2221
26507SOL    HW191246   6.144   2.743   9.007  0.4506  1.2904 -2.2003
26507SOL    HW291247   6.089   2.878   9.049 -0.2055 -0.1053  1.9572
26508SOL     OW91248   1.826   7.805   3.099  0.2455 -0.0615  0.8785
26508SOL    HW191249   1.853   7.897   3.095  2.1153 -0.6136  0.0290
26508SOL    HW291250   1.838   7.772   3.010 -1.0760 -0.9836  1.0061
26509SOL     OW91251   3.777  10.531  13.243 -0.4832  0.1379 -0.0040
26509SOL    HW191252   3.831  10.454  13.226 -0.2755  0.2838 -0.0126
26509SOL    HW291253   3.833  10.605  13.220 -0.3885  0.3238  0.7853
26510SOL     OW91254  10.232   2.213   2.476 -0.0816  0.0216 -0.1033
26510SOL    HW191255  10.148   2.167   2.465 -0.2069 -0.1645  1.4246
26510SOL    HW291256  10.208   2.296   2.518  0.6581 -0.9501  2.4064
26511SOL     OW91257   4.035   9.550   0.978 -0.5176  0.1714 -0.2586
26511SOL    HW191258   4.056   9.642   0.995  0.7188 -0.1819  0.2214
26511SOL    HW291259   4.022   9.513   1.066 -0.4297 -0.2500 -0.4247
26512SOL     OW91260  12.958   3.791  13.658 -0.3937  0.0070  0.2969
26512SOL    HW191261  12.957   3.704  13.617  0.6558 -0.0024  0.2844
26512SOL    HW291262  12.890   3.839  13.611 -1.3946 -0.9638  0.6786
26513SOL     OW91263   4.973   6.434  12.133  0.3075 -0.2092  0.0044
26513SOL    HW191264   5.003   6.525  12.142 -0.6257  0.0349  0.8073
26513SOL    HW291265   4.942   6.410  12.220 -0.9882 -0.7379 -0.5766
26514SOL     OW91266  12.614   6.453  12.785 -0.3450  0.4201 -0.7264
26514SOL    HW191267  12.610   6.416  12.873  2.0697 -0.1441 -0.7883
26514SOL    HW291268  12.646   6.542  12.798  2.8417 -0.5536 -1.1154
26515SOL     OW91269  10.231  10.532  12.519  0.3630 -0.1529 -0.2486
26515SOL    HW191270  10.169  10.605  12.512  0.0095  0.0095  3.1721
26515SOL    HW291271  10.188  10.460  12.471 -1.7073  0.4629  0.5629
26516SOL     OW91272   2.583   8.138   8.462 -0.2578 -0.3168  0.7117
26516SOL    HW191273   2.632   8.212   8.427 -1.9193  1.0602  1.2112
26516SOL    HW291274   2.649   8.086   8.508  0.7188  1.5784  1.5447
26517SOL     OW91275   0.002  10.768   0.179 -0.2756 -0.0980  0.2378
26517SOL    HW191276  -0.009  10.792   0.087 -0.8018  0.0020  0.3276
26517SOL    HW291277  -0.064  10.701   0.195 -0.7589  0.4797  0.7604
26518SOL     OW91278   1.472   6.278  10.058 -0.0481 -0.0566 -0.0340
26518SOL    HW191279   1.482   6.242  10.146 -0.2857  2.5332  1.1521
26518SOL    HW291280   1.394   6.334  10.063  1.2854  2.0458 -1.1431
26519SOL     OW91281   7.778   0.176   9.808 -0.0859  0.5346  0.3127
26519SOL    HW191282   7.766   0.201   9.900 -0.8615 -0.2037  0.4268
26519SOL    HW291283   7.707   0.222   9.762  0.5098  1.1786  0.0236
26520SOL     OW91284   8.601   4.322   9.639 -0.2921  0.0136  0.6398
26520SOL    HW191285   8.544   4.275   9.578  0.7860 -0.8430  0.2718
26520SOL    HW291286   8.542   4.351   9.709 -1.5619  0.9784 -0.7454
26521SOL     OW91287   5.159   8.623   5.893  0.3527  0.0061 -0.6398
26521SOL    HW191288   5.178   8.531   5.873  0.8032 -0.1047  0.2497
26521SOL    HW291289   5.219   8.645   5.965  0.2187  0.9829 -0.8173
26522SOL     OW91290   4.224   6.439  12.950  0.6299  0.0322  0.3022
26522SOL    HW191291   4.187   6.371  12.894  2.5134 -0.5700 -0.3155
26522SOL    HW291292   4.187   6.521  12.917  0.1638 -0.5032 -0.5283
26523SOL     OW91293   4.461  11.034   9.856 -0.0764  0.2758  0.2925
26523SOL    HW191294   4.490  10.943   9.865  2.1171  0.8595 -0.3700
26523SOL    HW291295   4.491  11.077   9.936  0.1085  0.6993  0.0004
26524SOL     OW91296   0.591   1.842  10.965 -0.2468 -0.9315 -0.2686
26524SOL    HW191297   0.606   1.759  10.919 -0.5515 -1.1618  0.0488
26524SOL    HW291298   0.610   1.823  11.056 -0.5618 -0.7181 -0.1567
26525SOL     OW91299   3.021  13.626   6.941 -0.1937  0.3802  0.6459
26525SOL    HW191300   2.958  13.664   6.881 -0.5266  0.1567  0.8500
26525SOL    HW291301   3.059  13.701   6.987  1.1009  0.6794 -0.8281
26526SOL     OW91302  12.661   5.761  11.225  0.0108 -0.6229 -0.2000
26526SOL    HW191303  12.670   5.850  11.259 -0.5236  0.1362 -1.9607
26526SOL    HW291304  12.708   5.706  11.289  0.3581  0.8979  0.9034
26527SOL     OW91305   8.400   0.871   3.320 -0.2373 -0.2419  0.3691
26527SOL    HW191306   8.482   0.830   3.293  0.5634 -0.7217  3.2583
26527SOL    HW291307   8.340   0.854   3.247  1.1978 -3.0371 -0.3008
26528SOL     OW91308   4.388  10.178   9.434 -0.0923  0.2052 -0.0749
26528SOL    HW191309   4.374  10.270   9.411 -0.4044  0.0572 -0.4816
26528SOL    HW291310   4.303  10.137   9.421 -0.3975  0.1893  1.7496
26529SOL     OW91311  10.276   0.679   3.634  0.5627 -0.1663  0.6512
26529SOL    HW191312  10.346   0.712   3.690 -1.0041  1.5982  1.6883
26529SOL    HW291313  10.245   0.599   3.679  1.1658 -0.3364  0.7740
26530SOL     OW91314   9.051   9.630   8.341  0.0530  0.9348  0.1109
26530SOL    HW191315   8.998   9.551   8.343  0.8688  0.3881  0.6584
26530SOL    HW291316   9.022   9.676   8.262 -1.1693  0.6184  0.3542
26531SOL     OW91317   3.408   0.829   8.843  0.5173  0.0194 -0.2489
26531SOL    HW191318   3.473   0.790   8.901 -0.1479 -0.8968 -0.1035
26531SOL    HW291319   3.460   0.866   8.771  1.2907  0.5434  0.5571
26532SOL     OW91320   4.103   7.927   3.757 -0.0776 -0.2466  0.0265
26532SOL    HW191321   4.102   7.882   3.841 -0.2438  0.9219  0.6811
26532SOL    HW291322   4.015   7.964   3.748  0.4567  1.1493  0.2198
26533SOL     OW91323  10.314  12.582  11.373  0.3828 -0.0878  0.0856
26533SOL    HW191324  10.289  12.625  11.454 -0.5185  0.0695 -0.2722
26533SOL    HW291325  10.247  12.606  11.309  0.7496 -0.6858 -0.5572
26534SOL     OW91326   3.613   2.245   1.259  0.3623 -0.0179  0.1539
26534SOL    HW191327   3.612   2.172   1.321  0.3116  0.6003  0.8900
26534SOL    HW291328   3.638   2.321   1.312 -0.6602  0.7095 -0.3680
26535SOL     OW91329  13.267   1.207  13.446 -0.0455  0.7899  0.3672
26535SOL    HW191330  13.272   1.134  13.385  0.2459  1.1267 -0.0148
26535SOL    HW291331  13.285   1.167  13.532  2.6674  0.7621 -0.1087
26536SOL     OW91332   3.917   6.079   9.988 -0.3082 -0.5790  0.3124
26536SOL    HW191333   4.005   6.094  10.023  1.2480 -2.3011 -2.4789
26536SOL    HW291334   3.916   5.986   9.966 -3.5786 -1.0527  1.9404
26537SOL     OW91335  10.320   6.927   8.007  0.3279  0.3012  0.9840
26537SOL    HW191336  10.245   6.923   8.066  0.8398  3.5579  2.0842
26537SOL    HW291337  10.387   6.874   8.050 -0.7191 -1.1194  0.9249
26538SOL     OW91338  11.774   1.440   4.732 -0.7371 -0.1518  0.0235
26538SOL    HW191339  11.836   1.403   4.795  0.2456 -0.2325 -0.9616
26538SOL    HW291340  11.782   1.383   4.655 -1.0488  0.6417 -0.6051
26539SOL     OW91341   8.727   4.437   6.530  0.0774  0.3060  0.2835
26539SOL    HW191342   8.700   4.484   6.609  1.3168  1.5498  0.0207
26539SOL    HW291343   8.742   4.347   6.559 -2.9909 -0.1619  0.6612
26540SOL     OW91344   8.760   4.913  13.342  0.0549 -0.0608 -0.1107
26540SOL    HW191345   8.716   4.836  13.380  0.7547 -0.3168  0.2013
26540SOL    HW291346   8.822   4.876  13.278  0.8749  0.1884  0.5181
26541SOL     OW91347  11.991   7.101   6.647  0.0192  0.1347 -0.7107
26541SOL    HW191348  11.944   7.069   6.724 -1.9427 -1.0088 -2.2729
26541SOL    HW291349  11.937   7.173   6.614  0.2808 -0.0692 -1.5995
26542SOL     OW91350   5.250   1.932   6.770  0.5844  0.0274 -0.4316
26542SOL    HW191351   5.164   1.959   6.738 -0.8018 -0.6667  2.4322
26542SOL    HW291352   5.283   2.007   6.819 -0.7763 -1.3026  2.7798
26543SOL     OW91353  12.107   0.818   9.650  0.4123 -0.6493  0.3425
26543SOL    HW191354  12.058   0.839   9.730  0.0418 -0.6871  0.1290
26543SOL    HW291355  12.172   0.888   9.642 -0.1046 -0.1705  0.2228
26544SOL     OW91356   6.860  12.679   4.332  0.2175  0.2530  0.0454
26544SOL    HW191357   6.915  12.719   4.400  1.1043 -0.6129 -0.1462
26544SOL    HW291358   6.772  12.680   4.370  0.5020  0.8526  0.7266
26545SOL     OW91359   1.794   2.749   8.047  0.0426 -0.1571  0.1082
26545SOL    HW191360   1.737   2.822   8.024 -0.9963 -0.8073  0.5236
26545SOL    HW291361   1.820   2.766   8.138 -0.2500 -0.3259  0.2256
26546SOL     OW91362   7.433  13.622   2.358  0.2149  0.0563 -0.6340
26546SOL    HW191363   7.473  13.553   2.305  1.3115  0.1493  0.0221
26546SOL    HW291364   7.507  13.679   2.382 -0.2898  0.1819  0.7172
26547SOL     OW91365  12.317   9.724   4.288  0.7298  0.4751  0.5011
26547SOL    HW191366  12.371   9.648   4.267 -0.2869  0.0846 -0.8069
26547SOL    HW291367  12.324   9.781   4.211  0.2260  0.9780  0.8156
26548SOL     OW91368   4.163   2.935  11.269  0.2499  0.5964  0.4070
26548SOL    HW191369   4.152   2.887  11.187  0.6428  1.4521 -0.1602
26548SOL    HW291370   4.254   2.963  11.268  0.0004  1.4558  0.6581
26549SOL     OW91371  13.663  12.044  10.958  0.2613  0.4774 -0.5980
26549SOL    HW191372  13.589  12.010  11.010 -0.3438  1.5110 -0.7444
26549SOL    HW291373  13.672  11.983  10.886  0.9357 -0.8349  0.5537
26550SOL     OW91374   0.054   1.254   5.784 -0.1340  0.2427 -0.6198
26550SOL    HW191375   0.125   1.231   5.723  0.4479 -0.1369  0.1895
26550SOL    HW291376  -0.009   1.182   5.775 -0.6530  0.8079 -1.6751
26551SOL     OW91377   1.736   3.456   4.442  0.1156 -0.5215  0.1935
26551SOL    HW191378   1.781   3.538   4.459 -1.3333  0.3403  0.0826
26551SOL    HW291379   1.747   3.441   4.348 -1.9226  1.0540 -0.3675
26552SOL     OW91380   3.979   6.104   8.170  0.4792  0.5289  0.3347
26552SOL    HW191381   4.004   6.090   8.262  1.6327 -0.2734 -0.0768
26552SOL    HW291382   4.030   6.180   8.143  0.4469  0.5174  0.2441
26553SOL     OW91383   0.232   2.715   8.895 -0.3789  0.3042 -0.2118
26553SOL    HW191384   0.241   2.622   8.876  1.0322  0.3985 -0.0928
26553SOL    HW291385   0.256   2.724   8.988  1.2981  1.0069 -0.6745
26554SOL     OW91386   4.099  13.174   0.909 -0.0880 -0.0464  0.1678
26554SOL    HW191387   4.102  13.206   0.819 -0.3787  1.7847  0.7864
26554SOL    HW291388   4.055  13.243   0.958 -1.4612 -1.7392  1.4468
26555SOL     OW91389   0.892   4.193   2.904  0.4546  0.1456 -0.5070
26555SOL    HW191390   0.985   4.187   2.885  0.8948 -0.4325  1.6086
26555SOL    HW291391   0.887   4.218   2.996 -1.4841  0.4187 -0.6395
26556SOL     OW91392  11.907  11.766   0.336 -0.5829 -0.3581 -0.5480
26556SOL    HW191393  11.841  11.815   0.287 -0.5628 -0.9719 -1.1934
26556SOL    HW291394  11.987  11.818   0.326 -0.8085  0.0315 -0.3378
26557SOL     OW91395   1.505   3.037   7.304 -0.3703  0.0681 -0.5855
26557SOL    HW191396   1.516   3.071   7.392  0.0371 -1.5698  0.0301
26557SOL    HW291397   1.465   3.109   7.255 -1.6250  0.6419  1.1966
26558SOL     OW91398   5.346  13.321  12.537 -0.5032  0.3349  0.0980
26558SOL    HW191399   5.408  13.393  12.529 -0.9803  0.7668  0.2139
26558SOL    HW291400   5.282  13.338  12.468 -0.2332 -0.3700 -0.3323
26559SOL     OW91401   0.842  12.868  11.157  0.3978  0.1881  0.1369
26559SOL    HW191402   0.802  12.810  11.093 -0.5268  1.3626 -0.3860
26559SOL    HW291403   0.890  12.809  11.216  0.1499 -1.0196 -0.8211
26560SOL     OW91404   6.024   8.793  12.100 -0.2200  0.1755 -0.2844
26560SOL    HW191405   5.959   8.737  12.059  0.0513  0.6684 -1.4516
26560SOL    HW291406   6.057   8.743  12.174 -2.0260 -0.0163  0.4461
26561SOL     OW91407  11.151   1.821   2.573 -0.0971  0.4169  0.0073
26561SOL    HW191408  11.090   1.767   2.623  1.9041 -1.4609  0.5764
26561SOL    HW291409  11.198   1.760   2.516  0.6262  1.9067 -1.0872
26562SOL     OW91410   2.162   9.063   2.690 -0.3763 -0.0156  0.3614
26562SOL    HW191411   2.137   9.152   2.667 -2.2439 -0.6563 -0.2937
26562SOL    HW291412   2.206   9.029   2.612  0.4916  0.3692  0.6740
26563SOL     OW91413  10.449  13.628   7.864  0.4581  0.6534  0.4504
26563SOL    HW191414  10.451  13.537   7.834 -0.8630  0.4924  0.8081
26563SOL    HW291415  10.528  13.667   7.826  1.1295 -0.6644  0.4065
26564SOL     OW91416   5.592   2.738   8.585 -0.1391  0.1983 -0.3574
26564SOL    HW191417   5.655   2.678   8.548  1.0691  1.8951 -1.1816
26564SOL    HW291418   5.619   2.750   8.676 -1.4402 -1.7908  0.3585
26565SOL     OW91419  11.963  10.890   9.373 -0.1256  0.0055 -0.2367
26565SOL    HW191420  11.895  10.921   9.312 -2.0678 -1.5471  1.0131
26565SOL    HW291421  11.965  10.795   9.360 -0.0085 -0.2631  1.5241
26566SOL     OW91422  11.253   5.940   5.434  0.0512 -0.5581 -0.1975
26566SOL    HW191423  11.330   5.973   5.386  0.3753  2.0634  1.8927
26566SOL    HW291424  11.276   5.950   5.526 -2.4943 -0.3896  0.5003
26567SOL     OW91425  12.505  11.508  10.655 -0.1909 -0.1291 -0.5462
26567SOL    HW191426  12.424  11.479  10.611  0.5387 -1.6832 -0.9452
26567SOL    HW291427  12.492  11.483  10.746 -0.7746  1.0301 -0.2959
26568SOL     OW91428   1.290   8.473   6.181 -0.0884 -0.0876  0.8488
26568SOL    HW191429   1.325   8.455   6.094 -0.7788  0.8768  0.3538
26568SOL    HW291430   1.368   8.486   6.235  0.3858  1.4262 -0.1135
26569SOL     OW91431  12.978   8.252   3.860 -0.1175 -0.3413 -0.2702
26569SOL    HW191432  12.952   8.284   3.946  1.0248  0.3512 -0.1703
26569SOL    HW291433  12.897   8.216   3.823 -0.5512 -1.0124  1.2324
26570SOL     OW91434   0.498  10.174   6.912  0.4261 -0.5738  0.8011
26570SOL    HW191435   0.548  10.232   6.854  0.0813 -0.4131  0.6625
26570SOL    HW291436   0.426  10.141   6.857 -1.0240  1.0499  1.6172
26571SOL     OW91437  11.174  12.845  10.554  0.0484  0.5428 -0.5983
26571SOL    HW191438  11.152  12.928  10.513 -0.5743  0.5321 -0.2967
26571SOL    HW291439  11.202  12.868  10.642 -3.4215  0.2370  0.7365
26572SOL     OW91440   7.238   3.624   8.074 -0.5768 -0.7273 -0.4174
26572SOL    HW191441   7.326   3.624   8.037 -0.1827  1.1964  0.3663
26572SOL    HW291442   7.209   3.534   8.068  2.3533 -1.9558  1.3787
26573SOL     OW91443   7.888  11.923   3.809  0.1294 -0.6349  0.2731
26573SOL    HW191444   7.883  11.927   3.905 -0.2982 -0.9336  0.2676
26573SOL    HW291445   7.806  11.962   3.779  0.7640  0.5328 -0.0073
26574SOL     OW91446  10.920  10.562  12.445 -0.5289 -0.2340 -0.1541
26574SOL    HW191447  10.949  10.654  12.442  1.0418 -0.6126  1.4570
26574SOL    HW291448  10.929  10.538  12.538 -0.6749 -2.0909 -0.5940
26575SOL     OW91449   7.462   3.629   3.165  0.0844  0.1313 -0.5237
26575SOL    HW191450   7.444   3.713   3.206  0.4984 -0.1629  0.2799
26575SOL    HW291451   7.390   3.572   3.194 -1.6864  0.8531 -3.1582
26576SOL     OW91452   4.044  11.890  11.469  0.2838  0.1887 -0.3665
26576SOL    HW191453   4.023  11.962  11.409 -1.2099  0.5453  0.5483
26576SOL    HW291454   4.062  11.816  11.411  2.6601  1.4280 -1.3727
26577SOL     OW91455  11.687   3.013   3.499  0.1738  0.0925  0.1073
26577SOL    HW191456  11.768   3.055   3.471  0.3282 -0.7971 -0.8155
26577SOL    HW291457  11.628   3.086   3.520  0.6246  0.7628 -0.9076
26578SOL     OW91458   3.870   1.206   4.118  0.7778 -0.4151 -0.0562
26578SOL    HW191459   3.780   1.234   4.103  0.1392 -2.1100  0.3367
26578SOL    HW291460   3.915   1.284   4.151 -0.5380  0.4425 -0.2281
26579SOL     OW91461   4.622   5.439  11.301  0.2368 -0.3836 -0.4963
26579SOL    HW191462   4.605   5.458  11.208 -2.1459 -0.3735 -0.1223
26579SOL    HW291463   4.641   5.345  11.302 -2.4427 -1.0006 -0.7632
26580SOL     OW91464  12.214   9.051   4.417 -0.3216 -0.3152  0.4766
26580SOL    HW191465  12.212   8.960   4.385 -1.9583  0.2943 -1.3533
26580SOL    HW291466  12.173   9.102   4.347  0.6242  1.8779  1.4256
26581SOL     OW91467   9.352   3.606   5.209  0.3301 -0.0700 -0.0124
26581SOL    HW191468   9.407   3.572   5.138  0.3611 -0.7451  0.3237
26581SOL    HW291469   9.368   3.546   5.282  0.4057  0.6933  0.6127
26582SOL     OW91470   5.244  13.126   8.879  0.0032 -0.2198 -0.7553
26582SOL    HW191471   5.176  13.065   8.851 -0.9016  0.8861 -1.0472
26582SOL    HW291472   5.266  13.100   8.969 -2.0547  0.4342 -0.0135
26583SOL     OW91473  12.897   6.337  13.566 -0.6811 -0.2141 -0.1064
26583SOL    HW191474  12.957   6.411  13.555 -1.0933  0.2588  0.7735
26583SOL    HW291475  12.855   6.327  13.480  0.8134 -0.7179 -0.8222
26584SOL     OW91476  11.242   0.719   8.968  0.2398 -0.0023  0.0524
26584SOL    HW191477  11.316   0.780   8.976  0.9739 -0.5013 -2.1375
26584SOL    HW291478  11.239   0.673   9.052  2.1286  0.3728  0.3626
26585SOL     OW91479   3.411   0.280   4.450 -0.3419 -0.3608 -0.3663
26585SOL    HW191480   3.454   0.215   4.506 -0.6703 -1.2814 -1.1512
26585SOL    HW291481   3.480   0.307   4.389 -0.1801  0.1197  0.0162
26586SOL     OW91482   5.568   0.560  11.437 -0.2743 -0.3330  0.1628
26586SOL    HW191483   5.498   0.623  11.453 -1.3622 -1.2428 -0.8171
26586SOL    HW291484   5.562   0.540  11.343 -0.1987 -2.1434  0.5071
26587SOL     OW91485  13.678  10.234   0.661 -0.2379  0.3499 -0.7585
26587SOL    HW191486  13.589  10.242   0.696  0.6230 -1.7272  2.3273
26587SOL    HW291487  13.729  10.294   0.715  0.4983  0.2510 -1.3438
26588SOL     OW91488  13.199  11.709   1.486 -0.2784  0.5253  0.9169
26588SOL    HW191489  13.166  11.793   1.453  2.5020  1.2740 -0.3128
26588SOL    HW291490  13.290  11.727   1.510  0.6106 -2.2660  0.0412
26589SOL     OW91491   7.313   2.241  10.197 -0.0308 -0.2467  0.1422
26589SOL    HW191492   7.357   2.257  10.281 -0.1794 -0.1821  0.2078
26589SOL    HW291493   7.380   2.201  10.142  0.5282  1.0757 -0.2007
26590SOL     OW91494  11.999  12.375   5.170  0.0508  0.0130  0.6628
26590SOL    HW191495  12.005  12.458   5.123  0.1958  0.0978  0.8287
26590SOL    HW291496  11.922  12.332   5.133  0.7759 -0.4031 -0.4122
26591SOL     OW91497  11.698   5.940   3.940 -0.1970  0.1522 -0.5591
26591SOL    HW191498  11.742   6.001   3.998 -0.8975  3.2696 -3.0455
26591SOL    HW291499  11.606   5.966   3.941 -0.3744 -0.2595 -2.3479
26592SOL     OW91500  13.302  13.562  11.905  0.1847  0.2733 -0.8143
26592SOL    HW191501  13.302  13.624  11.832 -2.0085  1.6833  0.2867
26592SOL    HW291502  13.226  13.587  11.958  1.5383 -0.8399  1.8428
26593SOL     OW91503   8.594   2.948   6.262  0.7658 -0.6767  0.0864
26593SOL    HW191504   8.665   2.886   6.281  1.5337  0.3466  0.6519
26593SOL    HW291505   8.628   3.003   6.191 -0.0141 -1.0635 -0.6015
26594SOL     OW91506   9.937  12.653   6.147  0.0090  0.0208 -0.3014
26594SOL    HW191507   9.998  12.581   6.163  0.1088 -0.0789 -1.0646
26594SOL    HW291508   9.904  12.677   6.233  1.0826  0.0310  0.1265
26595SOL     OW91509   8.194   1.988  10.958 -0.6957  0.2011 -0.3707
26595SOL    HW191510   8.148   1.904  10.969 -0.7520  0.2383 -0.3201
26595SOL    HW291511   8.223   1.987  10.867  0.8063 -0.6244  0.0969
26596SOL     OW91512   1.368   3.957  10.032 -0.0349  0.3625  0.1587
26596SOL    HW191513   1.462   3.954  10.014 -0.1937 -1.4407 -0.7034
26596SOL    HW291514   1.361   3.949  10.127  0.7095 -2.0300  0.0955
26597SOL     OW91515   9.236  13.465   3.970  0.1443 -0.9184  0.5955
26597SOL    HW191516   9.309  13.420   4.013  1.0171 -0.1688 -0.0462
26597SOL    HW291517   9.233  13.550   4.012 -0.3740 -0.9490  0.6220
26598SOL     OW91518  11.694   9.445   4.886  0.0467  0.1510  0.1117
26598SOL    HW191519  11.773   9.394   4.870  0.0010  0.1228 -0.0321
26598SOL    HW291520  11.631   9.382   4.922 -0.4696 -0.2329 -1.3631
26599SOL     OW91521   9.642   5.423   0.533 -0.3153 -0.0661  1.0117
26599SOL    HW191522   9.612   5.333   0.546  0.5549 -0.4716  0.2974
26599SOL    HW291523   9.658   5.430   0.439 -0.2777  0.8009  1.0777
26600SOL     OW91524   1.201   6.102   3.305 -0.2506 -0.6894  0.0398
26600SOL    HW191525   1.116   6.079   3.269 -0.6061  0.8358 -0.1926
26600SOL    HW291526   1.236   6.167   3.244  0.6071 -0.5098  0.6999
26601SOL     OW91527   2.942   8.281   7.398 -0.3171 -0.1865 -0.5303
26601SOL    HW191528   2.984   8.365   7.381 -0.5992  0.5828  2.1003
26601SOL    HW291529   2.850   8.303   7.414 -0.4562 -1.0157 -0.1219
26602SOL     OW91530   6.079   0.674  12.810 -0.1683 -0.2685  0.1439
26602SOL    HW191531   6.103   0.587  12.841  0.1895 -0.0559  0.4899
26602SOL    HW291532   6.047   0.719  12.889  0.6613  0.2531  0.2019
26603SOL     OW91533   2.150   4.270   6.432 -0.6574 -0.0454  0.0586
26603SOL    HW191534   2.213   4.323   6.384 -2.1283  0.4101 -1.4810
26603SOL    HW291535   2.191   4.254   6.517  1.6358 -0.0640 -0.9871
26604SOL     OW91536   5.462   9.818   2.411 -0.0003 -0.0078  0.4032
26604SOL    HW191537   5.482   9.784   2.498  0.3340  0.8524  0.6753
26604SOL    HW291538   5.367   9.812   2.404 -0.0822  0.4702  1.0657
26605SOL     OW91539   6.899   2.876   1.250 -0.2348 -0.1920  0.1023
26605SOL    HW191540   6.813   2.917   1.237 -0.6407 -1.4736 -1.4267
26605SOL    HW291541   6.915   2.826   1.171  2.4135  0.7854 -0.0898
26606SOL     OW91542  11.568   1.425   0.265 -0.0156 -0.2443 -0.1810
26606SOL    HW191543  11.494   1.461   0.216 -0.8459 -0.5119  0.8301
26606SOL    HW291544  11.577   1.335   0.232  0.1140 -0.0903 -0.5729
26607SOL     OW91545   9.317   6.273   8.559 -0.4399  0.0265  0.2571
26607SOL    HW191546   9.285   6.349   8.511 -0.1485 -0.0664 -0.0893
26607SOL    HW291547   9.316   6.300   8.650 -1.8901 -0.1067  0.2978
26608SOL     OW91548   9.336  12.178   0.068  0.0725 -0.9900  0.5862
26608SOL    HW191549   9.329  12.166  -0.026  0.9586 -0.5196  0.4464
26608SOL    HW291550   9.346  12.273   0.080 -1.1855 -0.9182  1.2450
26609SOL     OW91551   6.528  11.122   4.660  0.0455  0.5573  0.0902
26609SOL    HW191552   6.525  11.027   4.645  0.8310  0.7242 -1.3038
26609SOL    HW291553   6.603  11.134   4.718  0.2067  0.3562 -0.0735
26610SOL     OW91554   0.078  12.225   3.874 -0.1254 -0.1823  0.3036
26610SOL    HW191555   0.067  12.131   3.890 -0.4842 -0.0915  0.6173
26610SOL    HW291556   0.075  12.265   3.962 -1.2016  0.2409  0.0943
26611SOL     OW91557   8.801  11.845   8.409  0.1832  0.1104  0.2813
26611SOL    HW191558   8.735  11.822   8.475 -0.5572  1.0952 -0.0771
26611SOL    HW291559   8.757  11.911   8.355  1.3645  0.5313 -0.1797
26612SOL     OW91560   2.881   1.422   1.230 -0.0380 -0.2690 -0.0485
26612SOL    HW191561   2.825   1.459   1.299  1.2741 -1.5969  1.8306
26612SOL    HW291562   2.923   1.499   1.191 -0.5240  0.5161  0.9015
26613SOL     OW91563   7.434  12.437   1.608  0.5463  0.0449  0.8006
26613SOL    HW191564   7.405  12.346   1.612 -0.8358  0.2951 -1.5507
26613SOL    HW291565   7.529  12.433   1.619  0.8346 -1.9735 -1.6767
26614SOL     OW91566  12.728   4.322   6.513  0.1617 -0.2651  0.9151
26614SOL    HW191567  12.824   4.313   6.517  0.4043  1.3103 -0.5371
26614SOL    HW291568  12.703   4.270   6.437 -0.1678 -0.6158  1.2525
26615SOL     OW91569   1.458   7.185   3.202  0.4024 -0.0914 -0.4069
26615SOL    HW191570   1.473   7.261   3.147 -1.3227  1.1043  0.6561
26615SOL    HW291571   1.457   7.220   3.291 -0.1263 -1.4074  0.1341
26616SOL     OW91572   5.006   1.435  10.257  0.7213 -0.0379 -0.2436
26616SOL    HW191573   5.003   1.526  10.229 -1.0414  0.5823  1.6691
26616SOL    HW291574   5.075   1.432  10.324  0.2311  0.0873  0.2706
26617SOL     OW91575   4.413   9.863   3.124 -0.3693 -0.0331  0.3807
26617SOL    HW191576   4.326   9.888   3.153  0.3486  2.0462  0.9166
26617SOL    HW291577   4.442   9.935   3.068  0.0307 -1.8976 -1.9694
26618SOL     OW91578   2.740  12.834  13.192  0.4709  0.1941  0.2774
26618SOL    HW191579   2.678  12.772  13.153 -1.0307  0.5184  2.0216
26618SOL    HW291580   2.818  12.828  13.136  0.1309 -2.7164 -0.0393
26619SOL     OW91581   1.048   6.322   1.018  0.0165  0.0500 -0.5538
26619SOL    HW191582   0.981   6.386   0.993  0.7400  1.2071  0.3445
26619SOL    HW291583   1.076   6.349   1.106  0.5768 -1.3274 -0.2701
26620SOL     OW91584   3.053   6.065   6.535 -0.7023  0.5531  0.5775
26620SOL    HW191585   3.022   6.133   6.476 -0.2556 -0.1357 -0.4804
26620SOL    HW291586   3.007   6.082   6.617 -1.4570  1.4415 -0.0069
26621SOL     OW91587  12.429   5.429   9.039 -0.0334  0.3479 -0.1092
26621SOL    HW191588  12.333   5.423   9.042 -0.0775  0.6178 -0.7095
26621SOL    HW291589  12.459   5.338   9.042 -0.3483  0.2150 -0.8023
26622SOL     OW91590  11.233   3.669  12.338  0.2409  0.4563 -0.2279
26622SOL    HW191591  11.250   3.724  12.415 -1.5344  0.9647 -0.1712
26622SOL    HW291592  11.285   3.710  12.268  2.3014 -0.3248  0.7742
26623SOL     OW91593   9.980   1.270  11.376  0.1652  0.6241 -0.6659
26623SOL    HW191594  10.070   1.242  11.357  0.1698  0.2839 -0.1446
26623SOL    HW291595   9.940   1.281  11.289 -0.3980 -2.7835 -0.9945
26624SOL     OW91596   7.743  10.822   6.284  0.0191 -0.3960  0.0616
26624SOL    HW191597   7.827  10.833   6.327 -0.0305 -1.0878  0.3510
26624SOL    HW291598   7.764  10.777   6.202 -0.0518 -0.4381  0.0658
26625SOL     OW91599  13.744   9.050   2.594 -0.3120  0.2782  0.1660
26625SOL    HW191600  13.688   8.972   2.599  0.5831 -0.4189 -0.2716
26625SOL    HW291601  13.683   9.124   2.595 -1.4142 -0.4844 -2.1892
26626SOL     OW91602  11.835   7.078   3.286 -0.0820 -0.1958  0.3546
26626SOL    HW191603  11.784   7.121   3.355 -0.6249 -1.7872  0.9845
26626SOL    HW291604  11.913   7.045   3.330  0.1619 -0.1502 -0.0410
26627SOL     OW91605   3.116  11.233  10.519  0.1584  0.3985 -0.2877
26627SOL    HW191606   3.113  11.156  10.461  1.9191  1.4924 -1.9579
26627SOL    HW291607   3.099  11.197  10.606 -0.9397 -1.5855 -1.2390
26628SOL     OW91608   4.954   3.996  12.409 -0.2003 -0.0707 -0.7140
26628SOL    HW191609   4.921   3.919  12.362 -2.4288 -1.5222  2.8067
26628SOL    HW291610   4.942   3.974  12.501  1.3832  3.5993  0.5361
26629SOL     OW91611   3.143   7.544   8.571 -0.0924  0.1676 -0.0388
26629SOL    HW191612   3.062   7.596   8.567 -0.1665  0.0560  0.0070
26629SOL    HW291613   3.161   7.521   8.480  1.2551  2.2860 -0.3803
26630SOL     OW91614   4.826   7.640   3.159  0.6104  0.1057  0.1843
26630SOL    HW191615   4.766   7.707   3.191 -1.1195  0.0308 -2.4959
26630SOL    HW291616   4.878   7.684   3.092  2.7247 -0.1658  1.5823
26631SOL     OW91617  12.931  12.435  13.314 -0.1790  0.1987  0.0012
26631SOL    HW191618  12.994  12.385  13.262 -1.6399 -0.8547 -0.8132
26631SOL    HW291619  12.922  12.518  13.267  0.3090  0.2050 -0.0853
26632SOL     OW91620  13.454  11.520   3.721 -0.3196  0.1642  0.3607
26632SOL    HW191621  13.457  11.452   3.788 -1.2055  0.4313  0.6828
26632SOL    HW291622  13.434  11.473   3.640  2.3070 -0.3787 -0.0673
26633SOL     OW91623  10.191   2.014   6.265 -0.4936  0.3725 -0.4782
26633SOL    HW191624  10.209   1.968   6.183  1.9689 -0.0135  0.1845
26633SOL    HW291625  10.278   2.034   6.301 -1.4017 -0.6810  2.6889
26634SOL     OW91626  13.559   3.300   0.972 -0.0978 -0.1368 -0.5958
26634SOL    HW191627  13.508   3.290   0.892  0.1404  2.8366 -1.2266
26634SOL    HW291628  13.498   3.338   1.035  0.2094 -0.6961  0.0564
26635SOL     OW91629  12.402  12.953  12.574  0.0785 -0.5121 -0.2725
26635SOL    HW191630  12.476  12.923  12.627 -0.5042 -0.1150  0.7857
26635SOL    HW291631  12.440  13.016  12.512  0.2590  1.7980  2.0320
26636SOL     OW91632   1.665   7.869   3.604  0.7622 -0.7680  0.1138
26636SOL    HW191633   1.738   7.810   3.582  1.5253  0.5414 -1.1183
26636SOL    HW291634   1.695   7.955   3.572 -0.8280  0.0336  0.7103
26637SOL     OW91635   4.468  10.465   6.181 -0.8313 -0.2537  0.7338
26637SOL    HW191636   4.493  10.505   6.264  1.4549 -0.1704  0.0680
26637SOL    HW291637   4.460  10.371   6.202 -0.3709 -0.2211  1.0664
26638SOL     OW91638   8.154  12.619  12.260 -0.0151 -0.8995 -0.5768
26638SOL    HW191639   8.079  12.677  12.258 -0.4743 -1.4539 -0.0245
26638SOL    HW291640   8.163  12.588  12.170 -0.0127 -0.2823 -0.7871
26639SOL     OW91641   7.924  11.307  10.198 -0.5950 -0.8619 -0.1144
26639SOL    HW191642   8.012  11.278  10.174 -1.8413 -3.0360 -2.4702
26639SOL    HW291643   7.867  11.273  10.130 -3.3455  0.3233  1.4039
26640SOL     OW91644   6.665  10.329   3.242 -0.1199  0.0277 -0.1026
26640SOL    HW191645   6.598  10.293   3.300 -0.0517 -1.3390 -0.8350
26640SOL    HW291646   6.652  10.284   3.159  0.5212  1.1203 -0.8172
26641SOL     OW91647  10.177   2.899   0.907  0.1929 -0.1713 -0.5040
26641SOL    HW191648  10.178   2.938   0.820 -0.1087  0.5472 -0.1955
26641SOL    HW291649  10.269   2.896   0.934  0.3538 -1.0017 -1.0955
26642SOL     OW91650   4.460   4.262  12.564 -0.2787  0.2756 -0.1933
26642SOL    HW191651   4.492   4.184  12.518 -0.9873 -0.6063  0.7790
26642SOL    HW291652   4.525   4.277  12.632 -0.3405  0.2981 -0.1393
26643SOL     OW91653   7.954   8.390  13.653  0.3065 -0.2114 -0.2284
26643SOL    HW191654   7.970   8.473  13.608  1.2004 -0.8759 -1.1910
26643SOL    HW291655   7.890   8.411  13.721 -0.6525  0.9483 -1.4312
26644SOL     OW91656   3.360  12.129   3.953 -0.1122  0.1058  0.3937
26644SOL    HW191657   3.364  12.159   3.862  0.0523 -1.0946 -0.0081
26644SOL    HW291658   3.270  12.099   3.965 -0.1014  0.1476  0.5909
26645SOL     OW91659   2.586  11.980   8.891  0.5420 -0.4047 -0.4230
26645SOL    HW191660   2.529  11.919   8.843 -1.4791  0.9927  0.0662
26645SOL    HW291661   2.636  12.025   8.822 -0.5208 -0.1635 -1.0720
26646SOL     OW91662   3.905   5.547  10.068 -0.9626  0.3670 -0.0372
26646SOL    HW191663   3.969   5.540  10.139 -0.6541  1.1853 -0.2250
26646SOL    HW291664   3.907   5.462  10.025 -1.6794 -0.3894  1.3725
26647SOL     OW91665   6.861  11.983  10.445  0.4794 -0.0050 -0.1372
26647SOL    HW191666   6.917  11.906  10.434 -2.4641 -2.1291 -1.5284
26647SOL    HW291667   6.823  11.972  10.532 -1.7790 -1.5950 -1.2247
26648SOL     OW91668   5.703  11.868   2.786 -0.3181 -0.1003 -0.3365
26648SOL    HW191669   5.639  11.800   2.768  0.5017 -0.9693 -0.0402
26648SOL    HW291670   5.770  11.825   2.840  0.0482  1.0197  0.1352
26649SOL     OW91671  10.245   9.981  13.173  0.0415 -0.0779 -0.0023
26649SOL    HW191672  10.336   9.984  13.203 -0.4865  0.9797  1.6376
26649SOL    HW291673  10.226  10.070  13.145 -0.1150 -0.5979 -1.6603
26650SOL     OW91674   0.728   9.587   3.318 -0.3042 -0.1647  0.3269
26650SOL    HW191675   0.756   9.676   3.337  2.1668 -0.9401  0.7850
26650SOL    HW291676   0.679   9.560   3.396 -0.1761  0.4621  0.6328
26651SOL     OW91677   4.272   3.154   6.765  0.2372  0.0387 -0.1010
26651SOL    HW191678   4.311   3.212   6.699 -0.3833 -0.0418 -0.5478
26651SOL    HW291679   4.347   3.118   6.812  0.7210 -0.2539 -1.0648
26652SOL     OW91680  10.802   6.695   8.986 -0.3689  0.2950  0.5160
26652SOL    HW191681  10.729   6.709   9.045 -0.9214 -0.0618 -0.0782
26652SOL    HW291682  10.773   6.730   8.902 -0.0893 -0.3802  0.1258
26653SOL     OW91683  13.586  10.677   3.147 -0.1765 -0.6563 -0.3501
26653SOL    HW191684  13.623  10.603   3.195 -0.9506 -0.8502 -0.0288
26653SOL    HW291685  13.644  10.689   3.073  0.3177 -1.1830 -0.0595
26654SOL     OW91686   2.034   8.756  12.087 -0.6084 -0.3771 -0.6583
26654SOL    HW191687   2.096   8.729  12.021 -0.2389 -1.3356  0.0596
26654SOL    HW291688   2.037   8.687  12.153 -0.6785  0.7228  0.5511
26655SOL     OW91689   9.867  11.312   7.084 -0.3561  0.0584 -0.6301
26655SOL    HW191690   9.784  11.350   7.054 -1.2083 -0.4748  0.9680
26655SOL    HW291691   9.934  11.370   7.048 -1.4945  1.4195 -0.6380
26656SOL     OW91692   4.397   4.253   8.005 -0.1967  0.0910 -0.0965
26656SOL    HW191693   4.358   4.341   8.006  1.0536  0.7296 -2.0442
26656SOL    HW291694   4.339   4.203   7.948 -0.6251 -0.2315  0.6078
26657SOL     OW91695   4.402   9.115  10.454  0.1768  0.2501 -0.5505
26657SOL    HW191696   4.433   9.095  10.365  0.6690 -0.0384 -0.3200
26657SOL    HW291697   4.386   9.029  10.494  0.9880  0.3415 -0.0059
26658SOL     OW91698   3.199  10.605  10.750 -0.5643 -0.1553  0.0113
26658SOL    HW191699   3.235  10.662  10.818  1.4838 -0.3355 -0.8531
26658SOL    HW291700   3.161  10.665  10.685  0.2670  0.1699 -0.1816
26659SOL     OW91701   1.491   6.408   6.153  0.0663  0.1675  0.0312
26659SOL    HW191702   1.547   6.482   6.174 -0.1829  0.0922  0.9684
26659SOL    HW291703   1.472   6.366   6.237 -1.2067  0.0514 -0.2883
26660SOL     OW91704   1.061   7.787  10.108  0.6042 -0.3097  0.2556
26660SOL    HW191705   1.003   7.791  10.184 -0.1288 -1.2333 -0.2397
26660SOL    HW291706   1.052   7.698  10.074 -0.4315  0.5322 -1.9319
26661SOL     OW91707  13.329   3.099   9.878 -0.1260 -0.1894 -0.5149
26661SOL    HW191708  13.244   3.076   9.915  1.4700 -2.0126  2.4277
26661SOL    HW291709  13.334   3.049   9.796 -1.2308 -1.4714  0.1605
26662SOL     OW91710   8.657  11.553   1.589 -0.1663  0.6707  0.2333
26662SOL    HW191711   8.625  11.541   1.679  1.0328 -1.5074  0.4511
26662SOL    HW291712   8.683  11.465   1.561  1.1141  1.5634 -1.6352
26663SOL     OW91713   9.878   5.257   8.326 -0.1493  0.3922 -0.4244
26663SOL    HW191714   9.793   5.277   8.364 -0.9851 -1.7220 -1.0594
26663SOL    HW291715   9.895   5.329   8.265  0.3430  2.8380  2.3949
26664SOL     OW91716  10.615   2.914   0.390 -0.5909  0.0187 -0.2076
26664SOL    HW191717  10.688   2.919   0.329  0.9975  3.4820  1.6495
26664SOL    HW291718  10.549   2.973   0.353  0.4151  2.2067  1.2048
26665SOL     OW91719   8.098   6.566   5.558  0.4703 -0.7033  0.3888
26665SOL    HW191720   8.085   6.498   5.624 -0.0168 -1.7355 -0.7382
26665SOL    HW291721   8.187   6.597   5.573  0.2769 -0.7384  1.6869
26666SOL     OW91722   4.276  10.832   0.217 -0.2163  0.0841 -0.0278
26666SOL    HW191723   4.333  10.763   0.184 -0.6314 -0.0861 -0.3885
26666SOL    HW291724   4.242  10.798   0.300 -1.3746 -0.6686 -0.7835
26667SOL     OW91725   4.049   5.062   4.456  0.5078  0.2694 -0.0058
26667SOL    HW191726   4.125   5.043   4.402  0.7485 -0.7363  0.6629
26667SOL    HW291727   3.977   5.015   4.414  0.8973 -1.3608  1.0752
26668SOL     OW91728   7.082   5.366   7.147  0.5589  0.0954 -0.0269
26668SOL    HW191729   7.131   5.417   7.082 -0.4825 -0.2929 -1.1575
26668SOL    HW291730   7.085   5.276   7.115 -1.7287  0.1888 -0.7390
26669SOL     OW91731   6.454  11.102   3.699 -0.4091 -0.1955  0.3279
26669SOL    HW191732   6.495  11.098   3.786  0.6629  0.0224 -0.1517
26669SOL    HW291733   6.439  11.195   3.684 -0.4745 -0.2223  0.2276
26670SOL     OW91734   9.323   9.298   7.510  0.0259  0.4484  0.0359
26670SOL    HW191735   9.275   9.368   7.463 -0.1222  0.4871  0.2456
26670SOL    HW291736   9.335   9.333   7.598 -0.8381 -0.1562  0.4040
26671SOL     OW91737   5.701   9.982   2.675 -0.4713  0.4653  0.7136
26671SOL    HW191738   5.786  10.011   2.710 -0.7719  1.8083  0.3816
26671SOL    HW291739   5.652   9.954   2.752  0.9105 -2.1764  0.7347
26672SOL     OW91740  10.897   9.783   6.769  0.2998  0.0409  0.1900
26672SOL    HW191741  10.961   9.852   6.750  0.4953  0.0537  0.8528
26672SOL    HW291742  10.913   9.717   6.703 -1.0288  1.3558 -1.5428
26673SOL     OW91743   0.152  10.363   2.723 -0.0660 -0.6208  0.5246
26673SOL    HW191744   0.131  10.456   2.711  0.9266 -0.5526 -1.0322
26673SOL    HW291745   0.070  10.317   2.708 -0.4866 -0.0202  0.9520
26674SOL     OW91746   1.283   4.582  10.508  0.2115 -1.2031  0.0782
26674SOL    HW191747   1.264   4.488  10.515  0.9718 -1.5329 -1.6545
26674SOL    HW291748   1.199   4.622  10.484  0.2106 -1.6866 -0.7715
26675SOL     OW91749   6.068  12.498   2.387 -0.1082  0.2002 -0.2006
26675SOL    HW191750   5.991  12.441   2.385  0.4252 -0.5119 -0.7673
26675SOL    HW291751   6.116  12.478   2.307 -0.3854  2.1449 -0.9034
26676SOL     OW91752   9.429   8.690   2.610  0.1191  0.2642  0.5950
26676SOL    HW191753   9.506   8.747   2.610 -0.1330  0.7215 -1.7654
26676SOL    HW291754   9.464   8.601   2.598  0.3469  0.3043  0.9672
26677SOL     OW91755   5.516  11.778  10.311 -0.7785 -0.3416  0.1734
26677SOL    HW191756   5.454  11.722  10.358  0.2796 -2.0432 -0.3708
26677SOL    HW291757   5.461  11.828  10.250 -1.6299 -2.0327 -0.5262
26678SOL     OW91758   5.621  12.987   9.078 -0.4371  0.0748 -0.5498
26678SOL    HW191759   5.604  13.081   9.082 -0.6294  0.1278 -2.0826
26678SOL    HW291760   5.717  12.979   9.079 -0.4252  0.2618 -0.1154
26679SOL     OW91761   1.423   0.257   3.567  0.1780 -0.0476 -0.5806
26679SOL    HW191762   1.356   0.190   3.582  0.0920 -0.1171 -1.2632
26679SOL    HW291763   1.475   0.257   3.648 -1.3458  0.8315  0.4372
26680SOL     OW91764   0.586   8.866   7.632  0.8820  0.6023  0.3718
26680SOL    HW191765   0.549   8.955   7.632  0.5922  0.5056  1.7713
26680SOL    HW291766   0.533   8.818   7.695  1.9635 -0.1623  0.7334
26681SOL     OW91767  13.590   4.088   0.083  0.0528 -0.0609  0.3566
26681SOL    HW191768  13.663   4.088   0.021 -0.3920 -0.8805 -0.1800
26681SOL    HW291769  13.569   3.996   0.096 -0.5178  0.1408  0.9591
26682SOL     OW91770   2.886  11.732   0.681 -0.8464  0.0490 -0.4455
26682SOL    HW191771   2.807  11.683   0.658 -1.4052 -0.2748  1.8946
26682SOL    HW291772   2.854  11.806   0.732  0.3536 -1.5856  3.0326
26683SOL     OW91773   8.926   2.395   7.539  0.0417 -0.0043  0.0662
26683SOL    HW191774   9.001   2.337   7.522  1.0082  0.5435  2.1376
26683SOL    HW291775   8.965   2.475   7.573 -1.4338  0.8472 -0.1672
26684SOL     OW91776   3.284   1.845   6.665 -0.0964 -0.1232 -0.3531
26684SOL    HW191777   3.347   1.913   6.641  1.8440 -1.2166  1.2497
26684SOL    HW291778   3.296   1.834   6.759 -1.6012 -1.4754 -0.2834
26685SOL     OW91779  13.397   3.198   4.285  0.0020 -0.3350 -0.0070
26685SOL    HW191780  13.366   3.253   4.357 -0.1144  2.4030 -1.9726
26685SOL    HW291781  13.337   3.124   4.285 -1.2092  0.5710  1.5123
26686SOL     OW91782   7.537   2.336  13.554 -0.5992 -0.0577 -0.0359
26686SOL    HW191783   7.572   2.256  13.515  0.0599  0.2718 -0.1348
26686SOL    HW291784   7.451   2.311  13.587 -0.8381 -0.5512 -0.9787
26687SOL     OW91785   2.467   6.755   1.086  0.9170  0.3367  0.5171
26687SOL    HW191786   2.518   6.760   1.005  2.5574 -0.1871  1.4612
26687SOL    HW291787   2.498   6.830   1.137  1.5036 -0.5681  1.5178
26688SOL     OW91788   6.828  12.335  13.727 -0.1360 -0.8124 -0.4990
26688SOL    HW191789   6.888  12.369  13.661 -0.3933 -2.7888 -1.8125
26688SOL    HW291790   6.885  12.291  13.791  0.0949  0.9337  0.5788
26689SOL     OW91791   6.878  12.833  12.770 -0.1830 -0.4122 -0.4538
26689SOL    HW191792   6.807  12.876  12.723 -1.0310  0.8472  1.8236
26689SOL    HW291793   6.955  12.888  12.753 -0.2961 -0.4224 -1.0046
26690SOL     OW91794   1.706   9.409   5.055  0.3238  0.6285  0.1018
26690SOL    HW191795   1.676   9.426   4.965  1.0398 -2.7227 -0.9216
26690SOL    HW291796   1.776   9.345   5.045 -1.1489 -1.7213  3.1403
26691SOL     OW91797   7.846   1.809  11.781  0.0172  0.3355  0.1705
26691SOL    HW191798   7.828   1.890  11.828  0.6970  0.2490  0.5892
26691SOL    HW291799   7.768   1.795  11.727  0.4731  2.0235 -1.0080
26692SOL     OW91800  12.268   6.716  10.281 -0.1778  0.5043 -0.1095
26692SOL    HW191801  12.205   6.674  10.222  0.5801 -1.1163  0.1899
26692SOL    HW291802  12.275   6.805  10.248 -3.0762  0.9573  0.2077
26693SOL     OW91803   8.382   6.149  12.471  0.3750  0.0579 -0.2242
26693SOL    HW191804   8.462   6.190  12.438  1.2805 -1.2825  0.2249
26693SOL    HW291805   8.358   6.201  12.547  0.8824  0.4137 -0.3027
26694SOL     OW91806  12.282   4.874   0.412  0.1087 -0.0700 -0.2779
26694SOL    HW191807  12.221   4.860   0.340  0.8224  0.3887 -0.9945
26694SOL    HW291808  12.230   4.915   0.481 -0.2506  0.9579 -1.1361
26695SOL     OW91809   9.386   4.057  13.631  0.2073  0.6046 -0.4717
26695SOL    HW191810   9.434   3.974  13.634 -0.6181  0.1348  1.5253
26695SOL    HW291811   9.431   4.113  13.696 -2.3043 -0.1560  2.1320
26696SOL     OW91812   9.994   2.545   5.550  0.5040  0.1730  0.5025
26696SOL    HW191813   9.984   2.552   5.645  0.5711 -0.7277  0.5841
26696SOL    HW291814  10.049   2.468   5.537  1.1202  0.7238 -0.2457
26697SOL     OW91815   2.908   8.533   7.247  0.1889  0.0995  0.3412
26697SOL    HW191816   2.865   8.614   7.275  0.7419  0.0722  1.3174
26697SOL    HW291817   2.864   8.510   7.165 -0.3741  1.0688  0.3511
26698SOL     OW91818  12.052   0.810   2.526  0.2969  0.0771 -0.2055
26698SOL    HW191819  12.001   0.747   2.577  0.1361  0.2195 -0.1878
26698SOL    HW291820  12.061   0.770   2.440 -1.6902  0.9652 -0.8955
26699SOL     OW91821   7.159   4.042   6.405 -0.6022 -0.0127  0.2805
26699SOL    HW191822   7.103   4.044   6.483 -0.1877 -2.1581  0.6871
26699SOL    HW291823   7.245   4.014   6.438  0.0264  0.6649 -0.7255
26700SOL     OW91824   3.695   4.898   7.911 -0.1095 -0.3561 -0.2880
26700SOL    HW191825   3.726   4.972   7.963 -0.8908 -0.0792 -0.2039
26700SOL    HW291826   3.605   4.922   7.887  0.1669 -0.5612 -1.6000
26701SOL     OW91827   9.693   0.012   4.459  0.0444 -0.1742  0.0571
26701SOL    HW191828   9.631  -0.026   4.521  0.8693  0.9085  1.6008
26701SOL    HW291829   9.752  -0.060   4.436  0.4673 -0.3236  1.5065
26702SOL     OW91830   2.739   6.367   9.877 -0.4070  0.2607  0.4362
26702SOL    HW191831   2.794   6.400   9.805 -1.5740  1.6677  0.1483
26702SOL    HW291832   2.736   6.272   9.864  0.4576  0.3577 -0.5958
26703SOL     OW91833   4.037  10.198   5.836  0.6457  0.0899 -0.0389
26703SOL    HW191834   3.982  10.132   5.793 -0.6157  1.1921 -0.1814
26703SOL    HW291835   4.068  10.253   5.764 -0.7037  1.3717  0.3073
26704SOL     OW91836  11.776   9.998   7.360  0.7634 -0.5903 -0.1731
26704SOL    HW191837  11.737  10.085   7.356  1.5837 -0.0704  1.6149
26704SOL    HW291838  11.856  10.005   7.307  1.7308  0.3246  1.3166
26705SOL     OW91839   5.031   1.323   4.798  0.2418 -0.0706  0.2338
26705SOL    HW191840   5.051   1.317   4.704 -1.1883 -1.7420  0.0013
26705SOL    HW291841   4.977   1.247   4.817 -0.9630  1.1516  2.0735
26706SOL     OW91842   3.138   5.213   7.266  0.5347  0.6531 -0.5503
26706SOL    HW191843   3.082   5.282   7.231 -2.5670 -2.0044 -1.2036
26706SOL    HW291844   3.192   5.186   7.192  0.7976  1.3939 -0.6425
26707SOL     OW91845   7.113   1.911  13.300 -0.4211 -0.4867 -0.1075
26707SOL    HW191846   7.122   1.997  13.340  1.2880 -1.5815  2.1237
26707SOL    HW291847   7.032   1.875  13.337 -0.5039 -0.2817 -0.0897
26708SOL     OW91848   3.783   2.420  10.796  0.3553  0.2639 -0.1089
26708SOL    HW191849   3.756   2.329  10.812  1.2370  0.0467  0.2402
26708SOL    HW291850   3.856   2.434  10.856 -1.0252  1.8726  1.3030
26709SOL     OW91851  11.669  11.894  10.130 -0.9991 -0.0077  0.1189
26709SOL    HW191852  11.738  11.935  10.184  0.8529 -1.4871 -0.9920
26709SOL    HW291853  11.603  11.866  10.194  0.4969 -0.5451  1.5206
26710SOL     OW91854   2.990   8.559  12.933  0.2114 -0.5251  0.5131
26710SOL    HW191855   3.037   8.610  12.999  1.4027 -0.0949 -0.6115
26710SOL    HW291856   3.049   8.558  12.857 -0.6945 -1.8124 -0.2197
26711SOL     OW91857   3.998   4.253   8.047 -0.1764  0.4548 -0.2735
26711SOL    HW191858   3.946   4.275   8.124 -0.1616  3.1691 -0.9494
26711SOL    HW291859   3.960   4.304   7.976  1.1001 -0.3805 -1.6236
26712SOL     OW91860   8.017   5.950   8.167  0.0197  0.1288  0.1168
26712SOL    HW191861   7.961   6.003   8.224 -1.8928 -3.3646  1.7740
26712SOL    HW291862   7.959   5.922   8.096  0.9472  0.0634 -0.6378
26713SOL     OW91863   4.551   4.831  11.512 -0.0965  0.4993 -0.7323
26713SOL    HW191864   4.572   4.909  11.564 -0.1543 -0.9735  1.6345
26713SOL    HW291865   4.469   4.799  11.550  1.2832 -2.1724  0.2311
26714SOL     OW91866   9.385   2.911  13.173  0.2501  0.1087 -0.3093
26714SOL    HW191867   9.316   2.935  13.111  0.7588 -0.7969 -1.2516
26714SOL    HW291868   9.464   2.906  13.120  0.7546 -0.4266  0.4727
26715SOL     OW91869   6.937   2.671   3.635  0.0125  0.6880  0.2451
26715SOL    HW191870   6.909   2.587   3.671  0.4754  1.1558  1.7404
26715SOL    HW291871   6.900   2.672   3.546 -2.3213  0.0911  1.1297
26716SOL     OW91872   2.984   2.007  10.731 -0.2284 -0.1839  0.6067
26716SOL    HW191873   3.025   1.968  10.808 -1.2595  0.8701  1.7166
26716SOL    HW291874   3.039   1.978  10.658  1.1007 -0.7358  1.7856
26717SOL     OW91875  13.528   1.002   2.964  0.2397 -0.5426  0.0881
26717SOL    HW191876  13.623   0.994   2.965  0.3258  0.4034  0.0223
26717SOL    HW291877  13.503   1.008   3.056  0.3853  0.7157  0.0522
26718SOL     OW91878   2.181   3.460   5.359 -0.5762  0.1679  0.2044
26718SOL    HW191879   2.144   3.529   5.304 -0.1546 -1.2983 -2.0394
26718SOL    HW291880   2.261   3.433   5.313 -0.0912 -1.0003  1.6544
26719SOL     OW91881   8.404   4.518   5.724 -0.8680 -0.4375 -0.2905
26719SOL    HW191882   8.365   4.448   5.671  1.6202 -2.8420  0.8528
26719SOL    HW291883   8.435   4.475   5.803  0.5681  2.0201  0.6110
26720SOL     OW91884   8.882  10.220   6.830  0.6160  0.6635  0.3326
26720SOL    HW191885   8.971  10.224   6.864  0.4058  0.3206  0.9471
26720SOL    HW291886   8.890  10.240   6.737  1.3354  0.6104  0.3827
26721SOL     OW91887  10.640   1.803   1.121 -0.5797  0.2981  0.0765
26721SOL    HW191888  10.560   1.763   1.084  0.1720 -0.9214 -0.2875
26721SOL    HW291889  10.609   1.852   1.197 -1.6780 -0.2089 -0.0197
26722SOL     OW91890  10.818   1.229   4.729 -0.7477  0.0807 -0.6018
26722SOL    HW191891  10.779   1.185   4.805  0.9572  0.8697  0.8094
26722SOL    HW291892  10.752   1.222   4.661 -2.1449 -1.1253  0.7905
26723SOL     OW91893  11.372   9.881   6.710 -0.2779 -0.0870  0.2930
26723SOL    HW191894  11.394   9.788   6.705  2.7015  0.5525 -1.2751
26723SOL    HW291895  11.325   9.898   6.628  0.2854 -0.0028 -0.0196
26724SOL     OW91896   3.607   8.195   7.469 -0.1586 -0.2655  0.2265
26724SOL    HW191897   3.519   8.229   7.458  0.7924  1.9576 -1.0968
26724SOL    HW291898   3.614   8.179   7.563 -1.3779  1.3264  0.6404
26725SOL     OW91899   0.975   6.939  10.363  0.2795 -0.0015 -0.2771
26725SOL    HW191900   0.929   7.019  10.337  1.4608  0.5173 -0.8152
26725SOL    HW291901   0.974   6.885  10.284 -0.4911 -0.5146  0.0782
26726SOL     OW91902  10.107  10.321  10.538 -0.0136  0.2415  0.3360
26726SOL    HW191903  10.196  10.286  10.539  0.2941  1.0131  0.9470
26726SOL    HW291904  10.102  10.376  10.616 -1.1251 -0.0254  0.4690
26727SOL     OW91905  11.471   2.152  11.125  0.0446 -0.2746  0.5238
26727SOL    HW191906  11.409   2.089  11.161 -0.7756 -0.5954 -1.3922
26727SOL    HW291907  11.541   2.098  11.087  0.8887  0.0669  1.5203
26728SOL     OW91908   0.035  11.288   7.415 -0.2812  0.7648 -0.5217
26728SOL    HW191909   0.129  11.277   7.400 -0.2565  2.5022 -2.0750
26728SOL    HW291910   0.029  11.330   7.501  0.6579  3.3689 -1.6091
26729SOL     OW91911   9.456  13.662   4.583  0.6581 -0.2244  0.0905
26729SOL    HW191912   9.483  13.588   4.639  3.3266  0.1175 -0.5843
26729SOL    HW291913   9.402  13.717   4.640  1.1089 -1.2140  1.5321
26730SOL     OW91914  10.473   3.854  12.933  0.0311 -0.6652 -0.8397
26730SOL    HW191915  10.449   3.929  12.878 -0.1249  0.6758  0.9581
26730SOL    HW291916  10.415   3.784  12.904 -1.8279  0.7371 -0.7214
26731SOL     OW91917   7.056  12.666   9.447  0.2534  0.0653  0.8817
26731SOL    HW191918   7.061  12.755   9.480 -2.6226  0.5467  0.2398
26731SOL    HW291919   6.978  12.629   9.487  0.7233 -1.7764  0.2104
26732SOL     OW91920   2.303   7.537   8.517  0.2175 -0.4170 -0.1089
26732SOL    HW191921   2.351   7.615   8.492 -0.9258 -0.4744 -2.8817
26732SOL    HW291922   2.223   7.570   8.558  0.7135 -0.2255  0.7287
26733SOL     OW91923   1.977   0.246  12.133  0.6086 -0.7336 -0.1204
26733SOL    HW191924   1.919   0.180  12.170  0.4715 -0.8464 -0.5290
26733SOL    HW291925   2.062   0.202  12.126  0.7273 -0.5896  0.4149
26734SOL     OW91926   6.249  11.452  10.697 -0.4631 -0.2887  0.3676
26734SOL    HW191927   6.205  11.499  10.627 -2.4844 -0.9987  1.0861
26734SOL    HW291928   6.332  11.498  10.709 -1.0430  1.1852 -0.9805
26735SOL     OW91929   0.660   3.190   3.046 -0.2168 -0.2559 -0.2481
26735SOL    HW191930   0.755   3.191   3.051 -0.2165 -1.1515  0.1301
26735SOL    HW291931   0.641   3.192   2.952  0.1940 -0.9407 -0.3494
26736SOL     OW91932   2.751   5.525   9.199  0.2218 -0.6347  0.2971
26736SOL    HW191933   2.841   5.558   9.194  0.9470 -2.4868  0.2291
26736SOL    HW291934   2.708   5.584   9.261  1.5751  0.0853  0.6069
26737SOL     OW91935  11.010   9.244   2.901 -0.5063 -0.2075 -0.4908
26737SOL    HW191936  11.042   9.291   2.825  0.8405  0.5127  0.4713
26737SOL    HW291937  11.076   9.177   2.917 -0.0572  0.5029  0.8100
26738SOL     OW91938   6.058   3.493  11.179  0.2666  0.1372 -0.0006
26738SOL    HW191939   6.137   3.443  11.159 -0.1789 -0.0612 -1.3253
26738SOL    HW291940   6.081   3.583  11.156  0.1638  0.1100 -0.2062
26739SOL     OW91941   7.156  13.598   8.286  0.1030 -0.0410 -0.3136
26739SOL    HW191942   7.191  13.568   8.370 -0.6067 -0.9485 -0.3259
26739SOL    HW291943   7.062  13.584   8.293 -0.1904  1.5678 -0.5977
26740SOL     OW91944  10.648   4.716  11.539  0.3707 -0.1893 -0.3062
26740SOL    HW191945  10.666   4.806  11.509  0.6912  0.3484  1.3833
26740SOL    HW291946  10.566   4.723  11.587 -0.6407 -1.2253 -1.7911
26741SOL     OW91947   2.892   2.569   8.919 -0.1036  0.5542  0.6871
26741SOL    HW191948   2.819   2.529   8.870 -0.3109  0.7275  0.8518
26741SOL    HW291949   2.906   2.509   8.993  0.1279  0.3576  0.4859
26742SOL     OW91950  12.694   4.047   1.469 -0.9500  0.0713 -0.3339
26742SOL    HW191951  12.786   4.054   1.442 -1.1756  0.6718 -0.9690
26742SOL    HW291952  12.664   3.966   1.429 -1.1187  0.6594 -1.4603
26743SOL     OW91953  12.740   5.312   9.752 -0.0180  0.0876 -0.0035
26743SOL    HW191954  12.721   5.371   9.825  0.2150  1.1974 -0.8086
26743SOL    HW291955  12.694   5.231   9.773  2.3710 -0.7158  2.8280
26744SOL     OW91956   6.284  12.239  10.546 -0.1246  0.2951  0.0836
26744SOL    HW191957   6.257  12.330  10.539  1.7275  0.8168 -0.8045
26744SOL    HW291958   6.349  12.227  10.477 -1.1386 -2.0321 -0.6009
26745SOL     OW91959   7.292   1.548  12.815  0.0014  0.1839  0.2147
26745SOL    HW191960   7.376   1.516  12.848  0.0891  1.0243  0.8420
26745SOL    HW291961   7.226   1.503  12.867  0.0596 -0.3544 -0.1680
26746SOL     OW91962  13.723  11.829  10.369 -0.3159 -0.1921  0.4406
26746SOL    HW191963  13.733  11.905  10.426  0.5517  2.1181 -2.5476
26746SOL    HW291964  13.763  11.757  10.418  0.8049  1.7179  2.5382
26747SOL     OW91965   4.817   5.626   5.713  0.7894  0.3857  0.3784
26747SOL    HW191966   4.877   5.663   5.778  1.4432  0.2705 -0.1467
26747SOL    HW291967   4.738   5.604   5.763  0.5993  1.9392  0.8179
26748SOL     OW91968   9.892   9.824   3.884 -0.0080  0.1321 -0.4004
26748SOL    HW191969   9.882   9.779   3.800 -1.1606  0.7740 -0.6151
26748SOL    HW291970   9.928   9.756   3.942 -0.0467 -0.5710 -1.1714
26749SOL     OW91971   3.008  11.265   8.354  0.4713 -0.2034 -0.2333
26749SOL    HW191972   2.973  11.208   8.423  3.0447 -2.3862 -0.5187
26749SOL    HW291973   2.973  11.228   8.272  0.2884  0.1147 -0.3006
26750SOL     OW91974   2.216   2.306  10.422 -0.6210 -0.0501 -0.0144
26750SOL    HW191975   2.129   2.269  10.439 -0.9200  0.8796  0.4979
26750SOL    HW291976   2.205   2.359  10.343 -0.7637  0.8806  0.6212
26751SOL     OW91977   2.220   4.553  13.224 -0.4127  0.0552  0.6603
26751SOL    HW191978   2.281   4.615  13.263  0.7834  0.0047 -1.0493
26751SOL    HW291979   2.275   4.490  13.178 -1.7183 -0.3815 -0.3637
26752SOL     OW91980   7.897   8.509   7.445  0.0597  0.3384  0.1587
26752SOL    HW191981   7.987   8.542   7.449 -0.2781  1.6758 -1.7411
26752SOL    HW291982   7.843   8.586   7.460 -0.7952 -0.4840  1.4476
26753SOL     OW91983   5.023   9.609   5.889  0.7656 -0.2655 -0.1882
26753SOL    HW191984   4.961   9.651   5.830 -2.1820 -1.4372  1.8219
26753SOL    HW291985   5.058   9.535   5.839  0.5153  0.3708 -1.3339
26754SOL     OW91986   1.992   5.307   6.903 -0.5213 -0.6129  0.4662
26754SOL    HW191987   1.926   5.263   6.956  0.0747  0.4008  2.1762
26754SOL    HW291988   1.944   5.374   6.854 -1.0130 -1.1731  0.1810
26755SOL     OW91989  10.713   7.862   3.606  0.4500 -0.6691 -0.2835
26755SOL    HW191990  10.629   7.821   3.627  0.6635 -0.7445  0.4393
26755SOL    HW291991  10.755   7.877   3.691  0.5261  0.7287 -0.5447
26756SOL     OW91992   8.408  12.887  12.230  0.2367 -0.0579 -0.5753
26756SOL    HW191993   8.440  12.891  12.140  1.5301 -1.2839 -0.1931
26756SOL    HW291994   8.401  12.794  12.250 -0.5342  0.1917  0.4423
26757SOL     OW91995   6.698  11.600   8.230 -0.2868 -0.2755 -1.1951
26757SOL    HW191996   6.650  11.580   8.311  0.2951  1.5767 -0.3231
26757SOL    HW291997   6.728  11.516   8.198  0.4806 -0.9846  1.1970
26758SOL     OW91998   1.914   4.146   5.527  0.1641 -0.2084 -0.0310
26758SOL    HW191999   1.889   4.128   5.617 -0.8792  0.2813 -0.2006
26758SOL    HW292000   1.880   4.234   5.510 -0.3447 -0.5996 -1.1344
26759SOL     OW92001   7.854   4.322   7.337  0.2259  0.2631 -0.2083
26759SOL    HW192002   7.843   4.253   7.272  1.2898 -0.6334  0.5241
26759SOL    HW292003   7.949   4.325   7.352  0.3281  2.5009 -0.8642
26760SOL     OW92004   6.954   7.583   0.363  0.1003 -0.1151  0.4108
26760SOL    HW192005   6.952   7.647   0.292  0.6902 -1.1986 -0.6141
26760SOL    HW292006   7.019   7.617   0.424 -0.6714  1.0139  0.6367
26761SOL     OW92007   7.845  11.766   2.281  0.1419 -0.0311  0.6484
26761SOL    HW192008   7.771  11.803   2.234  0.3114 -0.5576 -0.0566
26761SOL    HW292009   7.850  11.675   2.250  0.0658 -0.4943  1.9326
26762SOL     OW92010   7.182   0.841   6.688 -0.0764 -0.4707 -0.2808
26762SOL    HW192011   7.136   0.925   6.688 -2.9536 -1.9201 -1.1019
26762SOL    HW292012   7.219   0.834   6.599 -1.5429 -0.8823 -0.8852
26763SOL     OW92013  13.077   8.984   1.764 -0.1252 -0.3608 -0.6995
26763SOL    HW192014  13.162   9.017   1.793 -0.3059  1.0159 -1.6373
26763SOL    HW292015  13.020   8.995   1.841  0.4994 -1.2142 -0.0933
26764SOL     OW92016   8.978   5.674  13.634 -0.0760 -0.6695  0.3717
26764SOL    HW192017   8.892   5.710  13.657  0.0723 -0.7327  1.0668
26764SOL    HW292018   8.991   5.698  13.543  0.9559  2.9949  1.3090
26765SOL     OW92019   6.444   9.666   7.529 -0.3797  0.1113  0.5225
26765SOL    HW192020   6.516   9.610   7.502 -0.1846 -0.6031  2.3450
26765SOL    HW292021   6.465   9.753   7.494  0.4749 -0.4638 -0.4083
26766SOL     OW92022   8.825  11.909   0.172 -0.5642 -0.6454  0.4000
26766SOL    HW192023   8.913  11.890   0.138 -0.0982 -0.4406  1.4242
26766SOL    HW292024   8.768  11.906   0.096  0.0330 -2.6433 -0.0208
26767SOL     OW92025   2.480   8.141   3.730  0.0379 -0.1570  0.0488
26767SOL    HW192026   2.535   8.215   3.701  0.9714 -1.3522 -1.3671
26767SOL    HW292027   2.523   8.109   3.809  0.1536  0.2363  0.1483
26768SOL     OW92028  13.700  13.239   7.868  0.3848 -0.0925  0.0646
26768SOL    HW192029  13.785  13.226   7.910  0.0562 -1.3608  0.3743
26768SOL    HW292030  13.695  13.171   7.802 -0.4538 -0.1301  0.1525
26769SOL     OW92031   2.002   3.373   7.913  0.0423  0.0700 -0.0974
26769SOL    HW192032   1.941   3.446   7.925  0.8009  0.6883  0.0684
26769SOL    HW292033   2.020   3.343   8.002 -2.1889 -1.9830 -0.2318
26770SOL     OW92034  12.999  10.468   7.283  0.3701 -0.0011  0.5118
26770SOL    HW192035  12.984  10.531   7.212  1.2651  1.3533  1.4832
26770SOL    HW292036  12.979  10.517   7.363 -1.0528 -1.6396  1.2098
26771SOL     OW92037   2.939  13.228   4.814 -0.0202 -0.1323  0.0028
26771SOL    HW192038   2.899  13.177   4.884 -0.1810  0.3960  0.3046
26771SOL    HW292039   2.944  13.317   4.849  0.8517 -0.0659 -0.2687
26772SOL     OW92040   7.927   2.770  13.001  0.4448 -0.3265 -0.7214
26772SOL    HW192041   8.005   2.823  13.016  0.5492 -0.5969 -0.2775
26772SOL    HW292042   7.948   2.685  13.040 -0.6176  0.0372  0.7450
26773SOL     OW92043  12.692  12.246  11.590  0.1670 -0.0408  0.1167
26773SOL    HW192044  12.606  12.233  11.551 -0.0873  2.1117 -0.1573
26773SOL    HW292045  12.680  12.227  11.683 -1.1432  2.0519  0.4439
26774SOL     OW92046   9.883  11.707   9.475  0.5385  0.3453 -0.3558
26774SOL    HW192047   9.808  11.724   9.419 -0.2017  4.1991  1.4820
26774SOL    HW292048   9.959  11.712   9.417 -0.4214 -0.5600 -1.7304
26775SOL     OW92049   0.649   9.519   2.167 -0.2197  0.3863  0.1010
26775SOL    HW192050   0.710   9.446   2.160  0.3845  0.7972  0.8328
26775SOL    HW292051   0.602   9.502   2.249 -2.3181 -0.8151 -1.2837
26776SOL     OW92052   9.360   1.643   2.150  0.1300  0.1923  0.2346
26776SOL    HW192053   9.433   1.632   2.211  0.6631 -0.4931 -0.5007
26776SOL    HW292054   9.340   1.736   2.152  1.9336  0.6411 -0.5616
26777SOL     OW92055   8.248   2.456   6.644  0.2603  0.2483 -0.2620
26777SOL    HW192056   8.244   2.452   6.548  0.8665  1.0242 -0.3297
26777SOL    HW292057   8.307   2.385   6.669  0.7034  0.5245 -0.5179
26778SOL     OW92058  11.513   6.427   9.769  0.1930  0.1475 -0.6951
26778SOL    HW192059  11.479   6.512   9.796 -0.7088 -0.7664  1.2110
26778SOL    HW292060  11.468   6.408   9.687 -0.0060  1.2416 -0.8603
26779SOL     OW92061  10.534  10.409   6.686 -0.6303  0.3489 -0.1214
26779SOL    HW192062  10.438  10.407   6.687 -0.6674  1.4842  0.4084
26779SOL    HW292063  10.557  10.393   6.594 -1.3698  1.1204 -0.4567
26780SOL     OW92064   2.401   1.427  13.001  0.6996  0.2694 -0.1154
26780SOL    HW192065   2.415   1.491  13.071 -0.0550 -0.6177  0.8881
26780SOL    HW292066   2.489   1.393  12.982  0.8819  0.3140  0.6182
26781SOL     OW92067   2.583  13.651   1.743  0.3144  0.0153 -0.2591
26781SOL    HW192068   2.624  13.628   1.660  2.4146 -0.5496  0.8508
26781SOL    HW292069   2.494  13.677   1.720  0.3140 -1.6617 -2.4893
26782SOL     OW92070   1.203   4.308   6.584  0.0133 -0.8021 -0.3558
26782SOL    HW192071   1.277   4.271   6.538  1.2133  1.1985 -0.1562
26782SOL    HW292072   1.174   4.381   6.529  1.0951  1.2475  1.6125
26783SOL     OW92073   1.325   4.736   6.276 -0.2867 -0.0330 -0.5258
26783SOL    HW192074   1.325   4.811   6.217 -2.8357 -0.6136 -1.3984
26783SOL    HW292075   1.376   4.669   6.230 -1.0867 -0.0149 -1.4766
26784SOL     OW92076   8.438  13.743  11.735 -0.1284  0.7808  0.2853
26784SOL    HW192077   8.428  13.838  11.741  0.1903  0.8656 -0.4505
26784SOL    HW292078   8.531  13.729  11.719  0.2818  0.2091  2.7361
26785SOL     OW92079   3.561   9.554  11.993 -0.5632 -0.0852  0.9136
26785SOL    HW192080   3.545   9.547  12.087 -1.6794  1.6150  0.8980
26785SOL    HW292081   3.482   9.597  11.959 -0.3761 -1.0831 -0.8730
26786SOL     OW92082   5.379  10.356   5.052  0.1106  0.1801  0.2722
26786SOL    HW192083   5.449  10.400   5.003 -0.3788  1.7869  0.9417
26786SOL    HW292084   5.302  10.367   4.997  0.2282 -1.0653 -0.1810
26787SOL     OW92085   9.861   3.801   2.605 -0.0050  0.6647  0.3318
26787SOL    HW192086   9.906   3.767   2.682 -0.0332  0.8305  0.4218
26787SOL    HW292087   9.893   3.891   2.596  0.4885  0.4352 -0.2294
26788SOL     OW92088  11.250  13.636   9.795  0.3326 -0.4368  0.4971
26788SOL    HW192089  11.236  13.578   9.869  2.5213 -0.9925  0.5382
26788SOL    HW292090  11.271  13.578   9.722  0.7495  0.2157  0.0877
26789SOL     OW92091  10.888  11.109  11.601 -0.0813  0.2780  0.3828
26789SOL    HW192092  10.924  11.109  11.512 -0.4746  1.9922  0.1759
26789SOL    HW292093  10.793  11.115  11.587 -0.1364  0.6571  0.9145
26790SOL     OW92094   3.681  10.344  10.506 -0.2669  0.0107  0.7506
26790SOL    HW192095   3.636  10.302  10.578  1.1965  0.7183  2.1497
26790SOL    HW292096   3.665  10.438  10.518 -0.2509  0.1192 -0.0085
26791SOL     OW92097  10.252   0.401   9.019  0.0330  0.3058 -0.4269
26791SOL    HW192098  10.242   0.319   9.067 -2.2639 -0.0444 -1.4004
26791SOL    HW292099  10.215   0.383   8.932 -0.5221  2.3694 -0.6580
26792SOL     OW92100  11.648   6.921   4.152 -0.0406 -0.1939 -0.2445
26792SOL    HW192101  11.667   6.842   4.202  0.7241  0.2729  0.2235
26792SOL    HW292102  11.644   6.892   4.061 -2.3564 -1.2184  0.1186
26793SOL     OW92103   2.927   4.435  10.715 -0.2129 -0.6166  0.1668
26793SOL    HW192104   2.991   4.468  10.778  0.2223 -0.1544 -0.4991
26793SOL    HW292105   2.843   4.467  10.747  0.1893  1.1955 -0.4440
26794SOL     OW92106   5.094   3.115  11.868  0.4162 -0.3966  0.0773
26794SOL    HW192107   5.017   3.170  11.874  0.8382  0.1354  1.0265
26794SOL    HW292108   5.166   3.171  11.898  1.4887 -0.3106 -2.4624
26795SOL     OW92109   0.368   4.759   4.021  0.7279  0.4478  0.5497
26795SOL    HW192110   0.321   4.817   3.961 -1.1705 -1.2859  0.2748
26795SOL    HW292111   0.432   4.816   4.063 -1.5557  2.9595  0.8883
26796SOL     OW92112   8.835  13.568   4.556 -0.6652 -0.0189 -0.0662
26796SOL    HW192113   8.750  13.587   4.516 -2.0184 -0.4721  2.3305
26796SOL    HW292114   8.870  13.654   4.579 -0.2187  0.1977 -1.4857
26797SOL     OW92115  13.525  13.259   0.647  0.1651 -0.3429 -0.2417
26797SOL    HW192116  13.501  13.241   0.556 -0.7397 -0.7112  0.0538
26797SOL    HW292117  13.479  13.341   0.668 -2.1344 -1.7717  0.7596
26798SOL     OW92118   8.842   8.267  10.956 -0.1073  0.3789  0.6067
26798SOL    HW192119   8.809   8.237  10.872 -0.8697 -0.0954  1.0629
26798SOL    HW292120   8.800   8.210  11.021  0.9916  0.2909  1.2649
26799SOL     OW92121   4.055   0.700   8.074 -0.0240  0.0052 -0.0988
26799SOL    HW192122   4.147   0.675   8.068  0.1216 -0.9050  3.4531
26799SOL    HW292123   4.054   0.772   8.137 -1.8187 -0.9309  1.0131
26800SOL     OW92124   6.558   8.539   1.388  0.2118 -0.5762 -0.2495
26800SOL    HW192125   6.634   8.501   1.433  0.6841 -0.1652 -0.6802
26800SOL    HW292126   6.582   8.631   1.374  0.2167 -0.7533 -1.5920
26801SOL     OW92127   0.600   8.656  11.230  0.7062  0.1608 -0.2774
26801SOL    HW192128   0.673   8.596  11.245  0.3656 -0.0835  0.4171
26801SOL    HW292129   0.605   8.676  11.136  1.5491  0.0022 -0.2768
26802SOL     OW92130   2.662   0.373   9.570 -0.0670  0.1018 -0.6956
26802SOL    HW192131   2.717   0.415   9.636 -1.3892  2.6306 -1.0770
26802SOL    HW292132   2.718   0.369   9.492  0.3600  0.3654 -0.4098
26803SOL     OW92133   0.961  11.577   9.003  0.1892  0.1534 -0.5702
26803SOL    HW192134   1.046  11.537   9.019 -1.8862 -4.4410  0.5223
26803SOL    HW292135   0.946  11.632   9.081  1.1885 -0.8969  0.4091
26804SOL     OW92136   8.186   9.194   4.326  0.1997 -0.2259 -0.3182
26804SOL    HW192137   8.205   9.142   4.404 -0.1440  0.0093 -0.0713
26804SOL    HW292138   8.153   9.277   4.361  4.2362  1.7367 -0.5606
26805SOL     OW92139   7.094   5.055  10.030 -0.0736  0.4366  0.3580
26805SOL    HW192140   7.188   5.063  10.047 -0.0128  4.6379 -0.7799
26805SOL    HW292141   7.061   5.144  10.039 -3.2233 -0.1610 -3.0847
26806SOL     OW92142   6.899   7.998   8.290 -0.0224  0.0205 -0.2559
26806SOL    HW192143   6.844   8.021   8.215 -0.1259  1.6967  0.2991
26806SOL    HW292144   6.976   7.956   8.252 -1.4200 -1.9483 -1.0808
26807SOL     OW92145   3.478   2.582   0.792 -0.4419 -0.0019 -0.0461
26807SOL    HW192146   3.412   2.533   0.743  1.6766 -2.2404 -0.8361
26807SOL    HW292147   3.514   2.644   0.729 -1.9412  1.4947  0.4884
26808SOL     OW92148   6.589  12.878   7.586 -0.1337  0.2039  0.1306
26808SOL    HW192149   6.613  12.786   7.591  1.2603  0.4941 -0.6670
26808SOL    HW292150   6.556  12.890   7.497  1.1295  0.7621 -0.2931
26809SOL     OW92151   3.324   3.359  12.284  0.5235 -0.3408  0.1864
26809SOL    HW192152   3.257   3.358  12.215  2.1836  2.9816 -1.7091
26809SOL    HW292153   3.373   3.277  12.271  0.9375  0.2548 -2.8653
26810SOL     OW92154   5.179   5.398  10.101  0.6050 -0.6621 -0.6704
26810SOL    HW192155   5.267   5.369  10.076  0.2720 -0.7756 -1.7373
26810SOL    HW292156   5.183   5.493  10.096  0.7311 -0.6545 -0.4700
26811SOL     OW92157   6.751  11.153   1.285  0.0496 -0.0992  0.7654
26811SOL    HW192158   6.687  11.112   1.227  0.6448 -1.5333  1.0790
26811SOL    HW292159   6.700  11.210   1.342 -0.7080  0.2276 -0.2155
26812SOL     OW92160  13.173   9.334  13.025  0.2436 -0.8108  0.2813
26812SOL    HW192161  13.089   9.377  13.040 -0.4705 -2.5466  1.5910
26812SOL    HW292162  13.184   9.335  12.930 -0.1417  1.3913  0.2026
26813SOL     OW92163  10.443  13.284  13.397 -0.5322 -0.3023  0.4834
26813SOL    HW192164  10.363  13.233  13.401 -1.4720  1.0662 -0.2573
26813SOL    HW292165  10.508  13.230  13.442 -2.4658 -0.2889  3.5090
26814SOL     OW92166   2.531  12.388   3.937 -0.0779 -0.1909  0.1706
26814SOL    HW192167   2.561  12.459   3.879 -2.2344  2.2006  1.7333
26814SOL    HW292168   2.437  12.385   3.923 -0.5584 -0.0785  2.8703
26815SOL     OW92169   4.094   5.511  10.260 -0.2755 -0.8197  0.0866
26815SOL    HW192170   4.115   5.432  10.311 -1.4780 -2.0151 -1.1758
26815SOL    HW292171   4.127   5.583  10.313  0.1864 -2.1195  1.6571
26816SOL     OW92172   3.077  13.568   3.210 -0.1851 -0.0642 -0.3422
26816SOL    HW192173   3.126  13.611   3.280  1.3961 -1.3281 -0.6106
26816SOL    HW292174   3.143  13.519   3.160 -1.4628 -0.3138 -1.8883
26817SOL     OW92175   3.848   2.731   5.385 -0.0756 -0.0496  0.0036
26817SOL    HW192176   3.928   2.779   5.363  0.2578 -0.8840 -0.6573
26817SOL    HW292177   3.875   2.665   5.448 -0.0925 -0.7870 -0.7421
26818SOL     OW92178  11.049  10.771   0.337 -0.5837 -0.0232  0.0122
26818SOL    HW192179  11.000  10.690   0.353 -2.1650  1.2478  2.2092
26818SOL    HW292180  11.043  10.784   0.242  0.9512 -3.1255 -0.6593
26819SOL     OW92181   7.409  12.247   3.750  0.2504 -0.6740 -0.4632
26819SOL    HW192182   7.357  12.246   3.670 -1.5832 -2.0660  0.6569
26819SOL    HW292183   7.371  12.178   3.804  1.3745  0.2476  1.6334
26820SOL     OW92184   7.404   9.491  11.320  0.3923  0.5739  0.1210
26820SOL    HW192185   7.383   9.562  11.260  1.8620  0.7001 -0.2858
26820SOL    HW292186   7.495   9.469  11.300  0.9029  0.5649  2.2243
26821SOL     OW92187   2.350   4.396   7.180 -0.0383 -0.0420  0.2726
26821SOL    HW192188   2.324   4.326   7.240  2.9499 -1.1400  0.5020
26821SOL    HW292189   2.382   4.466   7.237 -0.4027  0.3602 -0.0079
26822SOL     OW92190   8.817   0.485  13.601  0.2697 -0.0501  0.3449
26822SOL    HW192191   8.859   0.571  13.596  0.5435 -0.1240  1.1990
26822SOL    HW292192   8.825   0.450  13.512  0.0228  0.8616 -0.0459
26823SOL     OW92193   3.069  12.028  10.872 -0.7153 -0.2960  0.4693
26823SOL    HW192194   3.141  11.970  10.898 -0.8765 -1.8378 -2.0987
26823SOL    HW292195   3.111  12.113  10.857  0.1177 -0.5419  1.3043
26824SOL     OW92196   4.965   7.334   6.878 -0.1470  0.0972  0.4430
26824SOL    HW192197   4.980   7.426   6.900  0.4015  0.3343 -0.8441
26824SOL    HW292198   5.053   7.297   6.868 -0.3523  0.0361 -1.3746
26825SOL     OW92199   5.822  12.390   1.795  0.2862 -0.2370  0.0268
26825SOL    HW192200   5.812  12.366   1.887 -0.6345 -0.5726 -0.1479
26825SOL    HW292201   5.800  12.483   1.792  2.8610  0.4524  0.5416
26826SOL     OW92202   2.250   9.917   4.185  0.4881 -0.7413  0.9089
26826SOL    HW192203   2.205   9.833   4.171 -1.7215  0.3422  1.0732
26826SOL    HW292204   2.208   9.977   4.123  2.4279  0.1535  0.3842
26827SOL     OW92205  12.566   5.796   7.173 -0.2883  0.0978 -0.0302
26827SOL    HW192206  12.583   5.728   7.108  0.0695  0.2933 -0.1474
26827SOL    HW292207  12.592   5.877   7.130 -2.5373  0.5804 -0.6242
26828SOL     OW92208   7.502   6.824   9.304 -0.0255 -0.3894  0.4707
26828SOL    HW192209   7.468   6.840   9.216  1.4448  1.2559  0.1521
26828SOL    HW292210   7.518   6.730   9.308 -0.1545 -0.4881 -1.0010
26829SOL     OW92211   0.958   1.529   1.618 -0.4019  0.4042  0.0145
26829SOL    HW192212   1.040   1.480   1.608 -1.5913 -1.8721  0.6120
26829SOL    HW292213   0.939   1.561   1.530  1.1334  1.0184 -0.1219
26830SOL     OW92214   1.544   5.560   2.580 -0.1892 -0.4926 -0.3531
26830SOL    HW192215   1.524   5.594   2.667  0.6929  2.9709 -1.3486
26830SOL    HW292216   1.465   5.513   2.553 -0.4840 -1.6356  2.2103
26831SOL     OW92217   6.866  11.547  11.600 -0.7652  0.0179  0.4392
26831SOL    HW192218   6.871  11.504  11.514  0.5597 -0.7779  0.8887
26831SOL    HW292219   6.919  11.492  11.658 -0.0748  1.5506  1.3363
26832SOL     OW92220   6.373   8.497   8.966 -0.5084 -0.4192 -0.0321
26832SOL    HW192221   6.336   8.570   9.014 -1.4576 -0.2015 -1.0357
26832SOL    HW292222   6.330   8.501   8.880  0.6258 -1.1817 -0.6612
26833SOL     OW92223   1.621   4.552  12.947  0.3062 -0.2221 -0.2134
26833SOL    HW192224   1.706   4.593  12.936 -0.3405  1.4447  0.6067
26833SOL    HW292225   1.640   4.458  12.956  2.1311  0.2154  0.9358
26834SOL     OW92226   0.907  13.400  10.856  0.1178  0.5007 -0.4585
26834SOL    HW192227   0.895  13.422  10.948  0.1286 -0.4667 -0.2063
26834SOL    HW292228   0.892  13.481  10.809  0.0288  0.9883  0.3922
26835SOL     OW92229   1.117   6.569   8.588 -0.4969  0.1605 -0.4299
26835SOL    HW192230   1.172   6.586   8.511  0.0703  0.6943  0.0776
26835SOL    HW292231   1.172   6.515   8.645 -0.5046  0.6758  0.0713
26836SOL     OW92232   2.743   8.863  10.488  0.3268  0.2264  0.6523
26836SOL    HW192233   2.654   8.865  10.452  0.9225 -1.1028 -1.0311
26836SOL    HW292234   2.780   8.780  10.457  2.1735  0.7466  1.3067
26837SOL     OW92235   1.105   4.524   2.910  0.5668  0.4500 -0.0434
26837SOL    HW192236   1.162   4.491   2.839 -1.1345  0.1720 -1.3450
26837SOL    HW292237   1.030   4.562   2.864 -0.6399  0.1682  1.6302
26838SOL     OW92238   8.760   4.024   3.199 -0.1353  0.4338 -0.4408
26838SOL    HW192239   8.695   4.092   3.215 -0.6596 -0.3929  1.1444
26838SOL    HW292240   8.776   3.985   3.285  0.7240 -0.9401 -1.1830
26839SOL     OW92241   6.679   5.903  11.973 -0.0534 -0.6834  0.0526
26839SOL    HW192242   6.665   5.835  11.907 -0.6337  0.9635 -1.5950
26839SOL    HW292243   6.769   5.932  11.958  0.4081 -1.4548  1.1630
26840SOL     OW92244  12.232   4.365   8.145  0.0323 -0.0157 -0.1300
26840SOL    HW192245  12.295   4.426   8.107  0.6370 -1.1944 -1.0909
26840SOL    HW292246  12.277   4.330   8.222  1.3171 -2.0371 -1.6669
26841SOL     OW92247   4.001  10.851  12.658 -0.5300 -0.3723  0.0845
26841SOL    HW192248   3.924  10.869  12.712 -1.0382 -1.3463 -0.2739
26841SOL    HW292249   4.049  10.783  12.706 -0.0235  0.0544  0.1878
26842SOL     OW92250  12.385   6.002   0.739 -0.0283 -0.2337  0.6359
26842SOL    HW192251  12.468   5.962   0.766  0.0591 -0.9163 -0.5843
26842SOL    HW292252  12.388   6.002   0.644 -0.3765  1.9817  0.5735
26843SOL     OW92253   9.913   6.062   9.760  0.0470  0.2110  0.1146
26843SOL    HW192254   9.962   5.981   9.748  1.5653  1.0986  0.0358
26843SOL    HW292255   9.980   6.130   9.768 -1.1530  1.3483  1.1098
26844SOL     OW92256   5.344   2.481   9.563 -0.0969 -0.0346 -0.1032
26844SOL    HW192257   5.339   2.437   9.647  0.7543 -1.2919 -0.6718
26844SOL    HW292258   5.374   2.413   9.502  0.6251  1.1755 -1.1540
26845SOL     OW92259   4.446   9.827  11.159 -0.5910 -0.4973 -0.4602
26845SOL    HW192260   4.439   9.794  11.249  2.0398 -0.7785 -0.2736
26845SOL    HW292261   4.539   9.821  11.139 -0.7641  1.7470 -2.3948
26846SOL     OW92262   3.310  12.040  12.642 -0.1752  0.4448  1.0902
26846SOL    HW192263   3.350  12.126  12.633  0.7890 -0.0169  0.8895
26846SOL    HW292264   3.294  12.030  12.736 -1.7546  1.4767  0.9665
26847SOL     OW92265  13.387   3.767   6.169  0.3772  0.5071  0.0483
26847SOL    HW192266  13.395   3.844   6.113  0.9554 -0.2837 -1.0080
26847SOL    HW292267  13.472   3.722   6.160  0.4705  0.3440  1.5507
26848SOL     OW92268   2.263   1.878   3.352  0.1101 -0.1928  0.3331
26848SOL    HW192269   2.226   1.952   3.305  0.5070  0.0858  0.4439
26848SOL    HW292270   2.333   1.846   3.295 -1.3521 -1.7778 -0.6538
26849SOL     OW92271  13.031   5.394   5.879 -0.5954 -0.1684  0.2759
26849SOL    HW192272  13.034   5.360   5.790 -1.7907 -1.3870  0.6688
26849SOL    HW292273  12.961   5.459   5.877 -1.0520 -0.6512  0.4684
26850SOL     OW92274  10.501  13.125   1.892  0.2979 -0.3352 -0.3900
26850SOL    HW192275  10.443  13.100   1.963 -1.7050  0.5965 -1.6059
26850SOL    HW292276  10.586  13.088   1.916 -0.9274 -2.3802  1.1198
26851SOL     OW92277  12.500   0.583   4.886  0.0120  0.2360  0.1177
26851SOL    HW192278  12.540   0.584   4.973  0.9641 -0.3035 -0.2974
26851SOL    HW292279  12.561   0.633   4.832  0.2096 -0.7263 -0.5639
26852SOL     OW92280   1.957  12.323  10.802 -0.3076 -0.4108  0.0445
26852SOL    HW192281   2.016  12.252  10.828 -1.4845 -1.8409 -0.9669
26852SOL    HW292282   1.881  12.314  10.860 -0.2057  0.4283  0.3174
26853SOL     OW92283   8.967   7.842   6.554  0.6928  0.2734 -0.3917
26853SOL    HW192284   8.877   7.811   6.554  1.0801 -1.0205  1.9705
26853SOL    HW292285   8.968   7.912   6.488 -1.6726 -0.5869 -1.4432
26854SOL     OW92286  12.156  11.199   6.172  0.2501 -0.0620 -0.2656
26854SOL    HW192287  12.238  11.150   6.171 -0.3234 -1.0328 -0.9937
26854SOL    HW292288  12.100  11.152   6.234 -0.1718 -0.1235 -0.6850
26855SOL     OW92289   8.434  11.564   7.031 -0.0780  0.1902 -0.3822
26855SOL    HW192290   8.509  11.609   6.991  1.4922 -2.6952 -1.0403
26855SOL    HW292291   8.423  11.485   6.977 -2.2594 -0.5168  0.9757
26856SOL     OW92292   3.775  13.466   1.430 -0.4057 -0.0101  0.0409
26856SOL    HW192293   3.849  13.432   1.380 -0.7871  0.4228 -0.8338
26856SOL    HW292294   3.741  13.390   1.477  0.6638 -0.1902  0.5531
26857SOL     OW92295  13.160   8.430   2.988  0.5720  0.2684  0.2060
26857SOL    HW192296  13.175   8.470   3.073 -1.1901  1.6927 -0.1063
26857SOL    HW292297  13.225   8.470   2.930 -0.1404  1.5426  0.2562
26858SOL     OW92298  12.498   0.487  10.338  0.7933 -0.4516 -0.7476
26858SOL    HW192299  12.421   0.436  10.315  1.5003 -1.2540 -1.4174
26858SOL    HW292300  12.508   0.550  10.265  0.7194 -0.2822 -0.6131
26859SOL     OW92301  12.748  11.742   5.748  0.0919 -0.5186 -0.2049
26859SOL    HW192302  12.770  11.700   5.831 -1.5238 -0.2140  0.4114
26859SOL    HW292303  12.809  11.816   5.742 -0.1188 -0.2251  0.9826
26860SOL     OW92304   2.188  12.274  10.285  0.0278  0.7414  0.1651
26860SOL    HW192305   2.192  12.283  10.381 -0.4572 -0.1277  0.2741
26860SOL    HW292306   2.261  12.216  10.264 -0.2156  0.4702  0.0690
26861SOL     OW92307   7.176   2.800   1.817 -0.0118 -0.1466 -0.2556
26861SOL    HW192308   7.173   2.785   1.722 -2.7064  0.2074 -0.3031
26861SOL    HW292309   7.141   2.889   1.827 -1.4174 -0.8099  1.1342
26862SOL     OW92310   0.465   2.228   2.047 -0.1566  0.0274  0.0885
26862SOL    HW192311   0.440   2.136   2.049 -0.2635  0.0673  0.9817
26862SOL    HW292312   0.548   2.232   2.094 -0.4489  0.4734  0.5715
26863SOL     OW92313   9.970   2.752   6.183  0.1388 -0.0121 -0.7759
26863SOL    HW192314   9.972   2.834   6.133  0.4860 -0.0973 -0.9056
26863SOL    HW292315  10.031   2.694   6.137  0.2673 -0.1805 -0.4018
26864SOL     OW92316  12.618  10.527   4.377 -0.0990 -0.1359 -0.4617
26864SOL    HW192317  12.678  10.586   4.329 -0.5144 -0.1192 -0.9685
26864SOL    HW292318  12.533  10.569   4.370 -0.4706 -0.9904 -1.1602
26865SOL     OW92319   8.382   8.194  13.688 -0.5400  0.2469 -0.0312
26865SOL    HW192320   8.350   8.139  13.616  1.2373 -1.4772  0.4005
26865SOL    HW292321   8.425   8.132  13.747 -1.5734  1.6685  2.3295
26866SOL     OW92322   7.344  12.301  13.075 -0.2216  0.5528 -0.3704
26866SOL    HW192323   7.360  12.214  13.112 -1.0647 -0.4577 -2.2675
26866SOL    HW292324   7.426  12.349  13.089  1.2395 -1.4293 -1.6302
26867SOL     OW92325  13.673   4.331   6.903 -0.4994  0.3937  0.5707
26867SOL    HW192326  13.709   4.417   6.925 -1.7355  1.2131 -0.4977
26867SOL    HW292327  13.603   4.349   6.841 -0.9160 -1.3824  0.4700
26868SOL     OW92328  10.526   5.906   2.376  0.1281  0.0010 -0.2839
26868SOL    HW192329  10.554   5.845   2.444  2.7115  0.4815 -0.8073
26868SOL    HW292330  10.580   5.984   2.390  0.3938  0.2903 -2.5437
26869SOL     OW92331   8.674   9.620   4.216 -0.0436 -0.2919  0.6612
26869SOL    HW192332   8.609   9.575   4.269  0.3083 -0.5089  0.9119
26869SOL    HW292333   8.747   9.559   4.210 -0.1573 -0.3622 -0.2566
26870SOL     OW92334   9.438  13.501   7.851 -0.0022 -0.3855 -0.1424
26870SOL    HW192335   9.382  13.437   7.894 -0.1241 -0.3119 -0.1932
26870SOL    HW292336   9.397  13.516   7.766 -0.9454  1.0529  0.5392
26871SOL     OW92337   8.811   3.017   5.834 -0.0786  0.7004  0.5784
26871SOL    HW192338   8.779   2.939   5.790  0.7129  1.4662 -1.4908
26871SOL    HW292339   8.905   3.017   5.816  0.3006  1.0509  2.3571
26872SOL     OW92340   9.568   8.526  12.522 -0.1358  0.2555  0.1558
26872SOL    HW192341   9.647   8.562  12.482 -0.1105 -1.3068 -1.3343
26872SOL    HW292342   9.597   8.443  12.560 -0.9832 -0.2217 -0.2145
26873SOL     OW92343  12.093   6.962  12.938 -0.5019  0.2252 -0.1959
26873SOL    HW192344  12.127   6.920  12.859 -0.3443 -1.3049  0.6665
26873SOL    HW292345  12.001   6.934  12.942 -0.8052  1.1564 -0.3904
26874SOL     OW92346   2.651  13.522   6.932  0.0055  0.0040  0.1368
26874SOL    HW192347   2.591  13.594   6.917  1.3084  1.1948  0.4666
26874SOL    HW292348   2.667  13.486   6.844  1.0194  1.5169 -0.3336
26875SOL     OW92349  13.176   7.117   8.382 -0.0074  0.1700 -0.5245
26875SOL    HW192350  13.241   7.185   8.399 -0.4282  1.0118 -2.0909
26875SOL    HW292351  13.094   7.164   8.373 -0.4856 -0.6638 -0.6227
26876SOL     OW92352   6.186  11.554   4.546  0.1646  0.2523  0.4740
26876SOL    HW192353   6.114  11.505   4.505  1.0408 -0.6111 -0.0859
26876SOL    HW292354   6.245  11.486   4.579  1.7026  0.8866 -0.8249
26877SOL     OW92355   1.019   9.613  12.307  0.8492  0.2402 -0.1478
26877SOL    HW192356   1.072   9.538  12.279  0.8350 -0.3954  1.4707
26877SOL    HW292357   1.079   9.666  12.359  0.8313  1.3328 -1.2001
26878SOL     OW92358   1.549   1.824   1.582  0.1263  0.2683  0.0439
26878SOL    HW192359   1.503   1.898   1.621 -1.7536 -0.2070 -1.1479
26878SOL    HW292360   1.525   1.749   1.636 -1.6284 -0.2028 -1.2943
26879SOL     OW92361   8.066   1.087  13.433 -0.6848  0.1637  0.4524
26879SOL    HW192362   8.069   1.036  13.515  1.1904  0.2479  0.4678
26879SOL    HW292363   8.113   1.033  13.370 -1.1161  0.6388 -0.2840
26880SOL     OW92364  12.550   6.359   4.760  0.2986  0.4812  0.2545
26880SOL    HW192365  12.597   6.395   4.834  1.3153 -0.4061  0.0655
26880SOL    HW292366  12.460   6.349   4.791  0.1506  2.4180  0.5440
26881SOL     OW92367  10.547   1.497  10.084 -0.4545  0.1465 -0.1469
26881SOL    HW192368  10.518   1.478  10.173  1.3864 -1.4567  0.1685
26881SOL    HW292369  10.643   1.495  10.089 -0.2527  2.3424 -1.7064
26882SOL     OW92370  12.348   6.983   2.698  0.3465 -0.4148  0.4180
26882SOL    HW192371  12.319   6.986   2.789 -0.8844  0.8850  0.0079
26882SOL    HW292372  12.278   7.024   2.648  1.7283  0.4249 -0.9352
26883SOL     OW92373   3.337   9.211   4.856 -0.3671  0.4047  0.6742
26883SOL    HW192374   3.417   9.227   4.906  0.4803 -2.1106  0.3127
26883SOL    HW292375   3.367   9.208   4.765 -0.8163 -0.6253  0.5463
26884SOL     OW92376  12.760  10.038   5.685 -0.0429  0.0182 -0.2723
26884SOL    HW192377  12.774  10.045   5.591  0.1624 -0.5958 -0.2964
26884SOL    HW292378  12.684   9.980   5.693  0.1134 -0.1587 -0.0581
26885SOL     OW92379   7.134  10.282   0.238 -0.3489 -0.4569  0.3087
26885SOL    HW192380   7.059  10.262   0.181 -0.5719 -0.0891  0.4713
26885SOL    HW292381   7.106  10.252   0.324 -0.3918 -0.1266  0.4106
26886SOL     OW92382   8.378  12.832   7.468  0.0439  0.0283 -0.0983
26886SOL    HW192383   8.359  12.813   7.559 -0.8593 -0.2841 -0.3418
26886SOL    HW292384   8.308  12.890   7.439  0.1077 -0.1721 -0.6903
26887SOL     OW92385   2.983  11.342   0.384 -0.4977  0.0560  0.3901
26887SOL    HW192386   2.920  11.399   0.340 -0.9333  0.4951  1.5203
26887SOL    HW292387   3.062  11.396   0.392 -0.6860  0.2743  0.8482
26888SOL     OW92388   3.202   4.356   6.578  0.2049 -0.0816 -0.0326
26888SOL    HW192389   3.238   4.315   6.499  0.4233 -1.2944  0.6745
26888SOL    HW292390   3.254   4.435   6.590  1.2892 -0.7508 -0.1792
26889SOL     OW92391   8.281   3.027   2.964 -0.2854 -0.0313  0.1395
26889SOL    HW192392   8.241   3.095   2.910  0.0668  0.5618  0.6083
26889SOL    HW292393   8.259   3.052   3.054  0.3694 -0.2033  0.3506
26890SOL     OW92394   0.100  12.644   8.424 -0.3029 -0.3276  0.0281
26890SOL    HW192395   0.033  12.669   8.487 -0.3400  0.1007 -0.1725
26890SOL    HW292396   0.115  12.724   8.373  1.2803 -0.0204  0.9090
26891SOL     OW92397  10.997   7.415   6.830  0.0817 -0.2562  0.1610
26891SOL    HW192398  10.998   7.503   6.868  0.2749 -0.2531  0.1531
26891SOL    HW292399  10.992   7.430   6.736  0.5809 -0.2393  0.1310
26892SOL     OW92400  11.955   3.417   8.393 -0.3506 -0.3370 -0.4134
26892SOL    HW192401  11.968   3.352   8.324 -0.6440 -0.2366 -0.5674
26892SOL    HW292402  11.919   3.367   8.466  1.2304 -0.6804  0.1510
26893SOL     OW92403   1.638   6.269  12.544 -0.1165 -0.3276  0.9280
26893SOL    HW192404   1.640   6.365  12.537  0.2764 -0.4344 -1.1202
26893SOL    HW292405   1.708   6.248  12.605  1.1273  0.6224 -0.1052
26894SOL     OW92406   6.848  13.481   5.256 -0.2050  0.1084  0.5768
26894SOL    HW192407   6.847  13.512   5.346 -0.3019  1.6215  0.0870
26894SOL    HW292408   6.941  13.475   5.234 -0.1803 -0.3605  0.8099
26895SOL     OW92409  13.607   0.686  12.810  0.4533  0.9072  0.2412
26895SOL    HW192410  13.641   0.604  12.773 -0.9060  0.1855  0.5318
26895SOL    HW292411  13.544   0.717  12.745  0.7535  1.5764  0.2667
26896SOL     OW92412   1.852   3.462   7.130 -0.0677 -0.1463  0.1732
26896SOL    HW192413   1.778   3.451   7.071  1.9759  0.2180 -2.6567
26896SOL    HW292414   1.908   3.386   7.113  0.2722 -0.4226  2.2545
26897SOL     OW92415   3.632   5.031   5.065  0.0219  0.6543  0.1006
26897SOL    HW192416   3.684   4.970   5.118  0.4628  0.9167 -0.0311
26897SOL    HW292417   3.695   5.072   5.006 -0.6170 -0.3025 -1.2728
26898SOL     OW92418  11.209   4.727   9.833  0.1409  0.3956  0.1472
26898SOL    HW192419  11.302   4.720   9.813 -0.2716 -2.7813 -1.2783
26898SOL    HW292420  11.201   4.694   9.922  0.2380 -0.7441 -0.2580
26899SOL     OW92421   2.384   8.622   3.040 -0.2491  0.0108  0.2591
26899SOL    HW192422   2.418   8.711   3.048 -0.4102  0.0054  1.0955
26899SOL    HW292423   2.330   8.610   3.118 -0.3701 -0.7612  0.0652
26900SOL     OW92424   6.054  10.615  13.119 -0.1070  0.5404 -0.8258
26900SOL    HW192425   6.102  10.657  13.190 -0.6096  0.4443 -0.4208
26900SOL    HW292426   6.053  10.522  13.142 -0.5277  0.5478 -0.7951
26901SOL     OW92427   6.623  13.301  10.328  0.0863  0.5206 -0.0756
26901SOL    HW192428   6.659  13.319  10.415  0.0892 -0.2347  0.0809
26901SOL    HW292429   6.622  13.387  10.285 -0.0282  0.9236  0.7092
26902SOL     OW92430   8.014   0.533   4.299  0.3418  0.4481 -0.1017
26902SOL    HW192431   8.018   0.463   4.364 -0.3472  1.0168  0.5689
26902SOL    HW292432   7.925   0.568   4.306  0.4875  1.0023 -0.8426
26903SOL     OW92433  11.640   4.563   9.108 -0.1895 -0.1770  0.0792
26903SOL    HW192434  11.673   4.563   9.198  0.7636  0.6538 -0.2551
26903SOL    HW292435  11.710   4.523   9.057  0.0993  1.0756 -0.5570
26904SOL     OW92436  10.745   8.625   9.916  0.2976  0.2525 -0.4274
26904SOL    HW192437  10.801   8.623   9.839  1.1170 -0.5777  0.1532
26904SOL    HW292438  10.714   8.535   9.925  1.2610  0.0219  0.9193
26905SOL     OW92439  11.493   4.937   6.171  1.0181 -0.5691 -0.3364
26905SOL    HW192440  11.535   4.852   6.162 -0.2468 -1.1002 -1.5584
26905SOL    HW292441  11.405   4.925   6.135  1.3942  1.6819 -2.2601
26906SOL     OW92442  11.249   5.410  12.948 -0.2239  0.4154  0.2692
26906SOL    HW192443  11.288   5.363  12.874  0.3624  1.1989  0.0636
26906SOL    HW292444  11.320   5.417  13.012 -0.5800  0.1906  0.6917
26907SOL     OW92445   7.295   2.337   4.064  0.1690  0.4954  0.0410
26907SOL    HW192446   7.242   2.262   4.089 -0.1151  0.5678 -0.3383
26907SOL    HW292447   7.347   2.357   4.142  0.0729  0.0553  0.2191
26908SOL     OW92448  10.059   9.733   5.312  0.0026 -0.2257 -0.0214
26908SOL    HW192449   9.988   9.708   5.372  0.1438  0.6617  0.5320
26908SOL    HW292450  10.083   9.651   5.268 -0.5525 -0.7647  0.6531
26909SOL     OW92451   4.323   1.756   7.127 -0.3621  0.1051 -0.5798
26909SOL    HW192452   4.233   1.786   7.118 -0.3308  0.3411 -0.1244
26909SOL    HW292453   4.316   1.673   7.175 -0.1384  1.7145  2.4740
26910SOL     OW92454  11.341   7.737   0.377  0.5558 -0.0149  0.3774
26910SOL    HW192455  11.335   7.708   0.286  2.7160 -1.5662  0.6522
26910SOL    HW292456  11.435   7.752   0.391  0.3924 -0.6942  2.5727
26911SOL     OW92457  12.518   9.745   9.810 -1.0245  0.0561 -0.0860
26911SOL    HW192458  12.572   9.823   9.820  0.0041 -0.3748 -1.9076
26911SOL    HW292459  12.572   9.673   9.843 -1.1624 -0.1337 -0.2665
26912SOL     OW92460   9.836   4.060  11.545 -0.1379  0.4270  0.6801
26912SOL    HW192461   9.762   4.000  11.535 -1.5510  2.3576 -1.6098
26912SOL    HW292462   9.861   4.054  11.637 -4.6931  1.3765  2.2048
26913SOL     OW92463   2.281   0.550  13.268 -0.0968 -0.0544 -0.2777
26913SOL    HW192464   2.329   0.533  13.187  1.1238  1.0038  0.1901
26913SOL    HW292465   2.191   0.567  13.239 -0.0520 -1.2806 -1.2374
26914SOL     OW92466  10.489   5.932   7.818 -0.4234 -0.4865  0.2630
26914SOL    HW192467  10.410   5.959   7.772  0.1350 -0.8260 -0.9483
26914SOL    HW292468  10.465   5.849   7.860 -1.7682  1.1358  2.9839
26915SOL     OW92469   6.364   8.075  13.403 -0.6126  0.0566 -0.0822
26915SOL    HW192470   6.305   8.000  13.406 -1.1048  0.4711  0.6893
26915SOL    HW292471   6.452   8.037  13.408 -0.8779 -0.3722  2.8127
26916SOL     OW92472   4.913   1.669   4.895  0.3462  0.1859  0.2429
26916SOL    HW192473   4.873   1.745   4.936  0.3930 -0.3310  1.2879
26916SOL    HW292474   4.841   1.606   4.886  0.3890  0.2073 -0.2485
26917SOL     OW92475   2.978   8.446   4.929 -0.0774  0.6336  0.2265
26917SOL    HW192476   2.985   8.471   5.021  0.5633  1.9487 -0.1599
26917SOL    HW292477   2.904   8.497   4.895  1.1135  1.9330 -0.5231
26918SOL     OW92478  10.738  11.561   2.763  0.7751 -0.0223  0.0737
26918SOL    HW192479  10.802  11.616   2.717  1.1035 -0.6487 -0.2285
26918SOL    HW292480  10.659  11.616   2.769  1.0071  0.3813 -0.4665
26919SOL     OW92481   9.988   4.022   2.520  0.2136 -0.1620 -0.2742
26919SOL    HW192482   9.999   4.088   2.451  0.7691 -1.1841 -1.2020
26919SOL    HW292483  10.072   3.977   2.524 -0.3449 -1.2256 -0.1084
26920SOL     OW92484   7.434  12.048   8.949 -0.0637 -0.3977  0.3778
26920SOL    HW192485   7.495  11.976   8.964  0.9956  0.1321 -1.1151
26920SOL    HW292486   7.490  12.123   8.927 -1.2264 -0.0594 -1.7272
26921SOL     OW92487  12.223   0.210  10.711  0.4784 -0.4253 -0.4518
26921SOL    HW192488  12.229   0.173  10.623  0.3352  1.2166 -1.1735
26921SOL    HW292489  12.148   0.270  10.707 -0.3998 -1.3405  1.1912
26922SOL     OW92490   2.309   8.842   2.596  0.2692  0.1527  0.2251
26922SOL    HW192491   2.237   8.862   2.657  0.6180  2.4486 -0.0222
26922SOL    HW292492   2.385   8.829   2.653  0.2195  0.4897  0.3756
26923SOL     OW92493   7.200   4.941   1.318  0.2013 -0.5144 -0.5168
26923SOL    HW192494   7.193   4.851   1.287 -0.4942 -0.6433  0.0191
26923SOL    HW292495   7.152   4.993   1.253  0.9451 -0.4599 -1.0510
26924SOL     OW92496   6.959  13.536   6.740 -0.6712  0.0222  0.0855
26924SOL    HW192497   6.958  13.470   6.670  0.6037  0.6020 -0.5115
26924SOL    HW292498   6.984  13.486   6.818 -1.3310 -0.4905 -0.0217
26925SOL     OW92499   3.139   3.400   2.129  0.7378  0.1773  0.1732
26925SOL    HW192500   3.189   3.326   2.096  1.4887  0.7455  0.0151
26925SOL    HW292501   3.160   3.472   2.069 -0.4843  0.3563 -0.0674
26926SOL     OW92502   7.864   3.490   1.848 -0.4182 -0.3777 -0.1585
26926SOL    HW192503   7.850   3.507   1.941 -0.0502  0.0817 -0.1835
26926SOL    HW292504   7.921   3.561   1.819 -0.4907 -0.5471 -0.7241
26927SOL     OW92505   2.602  10.028  10.920  0.2825 -0.4247  0.3964
26927SOL    HW192506   2.579   9.967  10.850 -1.3448 -0.8331  1.2504
26927SOL    HW292507   2.535  10.015  10.987 -0.2102  2.3426  0.5837
26928SOL     OW92508  11.789  11.459   8.812  0.5706  0.2742  0.9344
26928SOL    HW192509  11.825  11.371   8.816 -0.6816 -0.3270 -0.2208
26928SOL    HW292510  11.699  11.451   8.844 -0.4503  0.5468 -1.6070
26929SOL     OW92511  11.377  13.560  11.845 -0.2146 -0.2801  0.3135
26929SOL    HW192512  11.316  13.509  11.792  1.2623 -1.2501 -0.5356
26929SOL    HW292513  11.322  13.603  11.910 -1.7099 -1.6762  0.0472
26930SOL     OW92514  11.459   4.009   5.589  0.5761  0.5225  0.1608
26930SOL    HW192515  11.526   4.053   5.642  0.9063 -0.6264  0.7361
26930SOL    HW292516  11.415   3.950   5.651 -0.2977  0.5308 -0.4400
26931SOL     OW92517   8.306   5.218   9.858  0.0824 -0.2256 -0.2258
26931SOL    HW192518   8.240   5.250   9.796  0.8821  1.1315 -0.4166
26931SOL    HW292519   8.388   5.221   9.808  1.0466  2.5403  1.3325
26932SOL     OW92520   2.617   9.601   8.397 -0.7202 -0.0653 -0.0856
26932SOL    HW192521   2.534   9.566   8.363 -0.7579 -0.1918  0.1367
26932SOL    HW292522   2.621   9.691   8.364 -2.2508  0.8978  2.1611
26933SOL     OW92523   3.615  12.188   9.615  0.0525 -0.4927 -0.3947
26933SOL    HW192524   3.551  12.260   9.623  0.8809  0.2731 -0.4653
26933SOL    HW292525   3.612  12.163   9.523  1.2670  0.9090 -0.8495
26934SOL     OW92526   7.266  10.223  12.633 -0.2798  0.5202  0.1314
26934SOL    HW192527   7.231  10.148  12.681 -0.9784  0.0426 -1.0756
26934SOL    HW292528   7.225  10.218  12.547  2.5291  0.1141 -1.2826
26935SOL     OW92529  10.073  10.749  12.466 -0.0905  0.8132 -0.0638
26935SOL    HW192530  10.136  10.820  12.476  0.0364  0.8347 -0.9705
26935SOL    HW292531   9.994  10.781  12.510 -0.4997  2.1298 -1.6498
26936SOL     OW92532  12.789   4.055  10.105  0.0219 -0.3488  0.3736
26936SOL    HW192533  12.695   4.072  10.104  0.5112  3.1991  0.6549
26936SOL    HW292534  12.810   4.027  10.016 -1.2101 -0.5568  0.1337
26937SOL     OW92535   4.180   4.199   6.072 -0.0662  0.1487 -0.0964
26937SOL    HW192536   4.152   4.168   5.986  0.3642  1.1981 -0.6379
26937SOL    HW292537   4.276   4.199   6.067 -0.0264 -0.2581  0.5613
26938SOL     OW92538   0.442   0.643  12.500 -0.0822  0.5683  0.2703
26938SOL    HW192539   0.522   0.643  12.446 -0.9885 -0.9943 -1.1581
26938SOL    HW292540   0.396   0.722  12.473 -1.2010 -0.8629 -2.4421
26939SOL     OW92541  11.503   4.433   7.816  0.2408  0.9092 -0.4102
26939SOL    HW192542  11.517   4.442   7.722  1.4861  2.5587 -0.1069
26939SOL    HW292543  11.585   4.396   7.849  0.4975  1.9919  0.2263
26940SOL     OW92544  12.766  10.029  12.577 -0.6358  0.6450 -0.3614
26940SOL    HW192545  12.713   9.951  12.560 -2.1755  1.4880  0.3408
26940SOL    HW292546  12.784  10.065  12.490 -1.0358  0.2085 -0.6330
26941SOL     OW92547  12.170   0.087   0.822  0.1340  0.0568 -0.2294
26941SOL    HW192548  12.178   0.181   0.840  0.0500  0.0654 -0.2359
26941SOL    HW292549  12.241   0.068   0.761  0.0815  0.1392 -0.3159
26942SOL     OW92550  11.872  11.674  10.374  0.1818  0.4217 -0.1266
26942SOL    HW192551  11.807  11.643  10.310  0.5897  1.9600 -1.3422
26942SOL    HW292552  11.820  11.712  10.444 -0.2494 -0.0395 -0.1847
26943SOL     OW92553   2.855   0.341  10.992 -0.2184  0.0200 -0.5306
26943SOL    HW192554   2.908   0.278  11.040  0.9567  2.4705  1.6512
26943SOL    HW292555   2.907   0.362  10.914 -0.8903 -2.0258 -1.5862
26944SOL     OW92556   0.314   9.836   8.205  0.2266 -0.2698  0.0114
26944SOL    HW192557   0.385   9.890   8.170 -0.3296 -0.1349 -0.9551
26944SOL    HW292558   0.314   9.758   8.149 -0.6495 -0.0738 -0.2706
26945SOL     OW92559   7.972   5.382   0.048  0.0107  0.2472 -0.5826
26945SOL    HW192560   7.976   5.314  -0.019 -0.1657  0.3955 -0.7448
26945SOL    HW292561   7.991   5.336   0.130  0.3365  0.0871 -0.7475
26946SOL     OW92562   8.422   6.363  12.956  0.2887 -0.4519  0.4646
26946SOL    HW192563   8.406   6.424  13.027  2.0122 -0.6426  1.0814
26946SOL    HW292564   8.509   6.327  12.975  0.5202 -0.9818 -1.3901
26947SOL     OW92565   4.746   2.652  10.711 -0.3589  0.6996 -0.3364
26947SOL    HW192566   4.804   2.665  10.637 -0.7104  2.4053 -0.3607
26947SOL    HW292567   4.804   2.628  10.783  0.0128 -0.6745 -1.0560
26948SOL     OW92568   0.948  13.189   2.120 -0.3469  0.1707  0.7437
26948SOL    HW192569   1.000  13.152   2.048 -1.2901 -0.1636  0.2083
26948SOL    HW292570   0.885  13.120   2.142 -1.3287  0.9826  0.5682
26949SOL     OW92571   6.591  11.874   8.159 -0.0599 -0.5604 -0.1176
26949SOL    HW192572   6.528  11.866   8.087  1.4955 -0.0804 -1.6144
26949SOL    HW292573   6.629  11.787   8.167  1.9418  0.0386 -2.0585
26950SOL     OW92574   0.335   7.422   5.740 -0.3409 -0.5234  0.3094
26950SOL    HW192575   0.264   7.482   5.762 -0.7338 -1.0701  0.5432
26950SOL    HW292576   0.296   7.359   5.680  0.6427  0.7862 -1.8587
26951SOL     OW92577  12.845   6.373   6.932  0.2200 -0.4950  0.2539
26951SOL    HW192578  12.764   6.396   6.887 -0.1683 -1.1303  0.6134
26951SOL    HW292579  12.864   6.283   6.904  0.4970 -0.5519  0.6099
26952SOL     OW92580   1.003   0.289   3.459  0.1174  0.0075  0.0696
26952SOL    HW192581   0.979   0.202   3.427 -1.4311  0.5070 -0.2014
26952SOL    HW292582   0.976   0.288   3.551 -0.7583  0.5009 -0.1765
26953SOL     OW92583  12.868   8.267   4.507 -0.6363  0.2025 -0.0971
26953SOL    HW192584  12.817   8.207   4.561 -1.5004  0.6676 -0.3725
26953SOL    HW292585  12.814   8.347   4.503 -0.3115  0.3864 -1.1359
26954SOL     OW92586   1.512   4.377   2.050 -0.2612 -0.1020 -0.2877
26954SOL    HW192587   1.442   4.440   2.063  0.3406  0.6564 -0.5983
26954SOL    HW292588   1.505   4.352   1.958  1.1882  1.6473 -0.9259
26955SOL     OW92589   1.108   3.940   4.986  0.1281  0.2665  0.5501
26955SOL    HW192590   1.138   4.017   5.035  0.0780 -0.0416  1.0780
26955SOL    HW292591   1.015   3.932   5.008  0.0201  0.3287  0.1229
26956SOL     OW92592  10.134   7.751  12.040  0.1046 -0.1157  0.2127
26956SOL    HW192593  10.214   7.722  11.995 -0.8437 -2.1245 -0.3090
26956SOL    HW292594  10.156   7.749  12.133  0.8336 -0.1011  0.0447
26957SOL     OW92595   2.254   8.586   7.388 -0.0949  0.4269  0.2169
26957SOL    HW192596   2.258   8.564   7.481 -1.0167 -1.2678 -0.0997
26957SOL    HW292597   2.272   8.680   7.384  1.4770  0.2389  1.9468
26958SOL     OW92598   6.423   9.612   9.087 -0.5130  0.1197  0.4264
26958SOL    HW192599   6.491   9.677   9.103  0.4048 -0.5384 -0.6610
26958SOL    HW292600   6.356   9.630   9.154 -1.6368  3.8840 -1.4800
26959SOL     OW92601   5.468   6.064  10.220 -0.5083  0.2054 -0.1535
26959SOL    HW192602   5.408   6.096  10.152 -1.6083  1.0090  1.1456
26959SOL    HW292603   5.502   6.142  10.262 -0.0077 -0.2766  0.3565
26960SOL     OW92604   9.948   5.857   8.152  0.0361  0.9965 -0.7625
26960SOL    HW192605  10.016   5.847   8.219 -1.5208  1.9243  1.0532
26960SOL    HW292606   9.953   5.948   8.126  0.5062  0.6849 -1.8044
26961SOL     OW92607  13.222   9.451  12.463 -0.1724 -0.2048  0.2365
26961SOL    HW192608  13.312   9.424  12.481 -0.2273  0.6678  2.0476
26961SOL    HW292609  13.229   9.507  12.385  1.0024  0.5486  0.8501
26962SOL     OW92610   2.764   2.528   6.762 -0.1115 -0.0969 -0.0355
26962SOL    HW192611   2.687   2.473   6.746 -0.9235  0.9938 -0.0296
26962SOL    HW292612   2.838   2.475   6.732 -0.7987 -1.3912  0.4729
26963SOL     OW92613  11.689   7.651   9.087  0.2250  0.3436  0.0878
26963SOL    HW192614  11.623   7.595   9.129  1.7220 -1.6705 -0.0685
26963SOL    HW292615  11.650   7.675   9.003 -0.1237 -1.2998 -0.2527
26964SOL     OW92616   3.256   1.019   9.921 -0.3543 -0.4118  0.7893
26964SOL    HW192617   3.195   1.019   9.995  0.8946 -2.2237  1.9139
26964SOL    HW292618   3.238   1.100   9.875 -0.0763  1.6754  4.0314
26965SOL     OW92619   8.960   5.609   1.193  0.2374  0.4943  0.4234
26965SOL    HW192620   9.028   5.670   1.223  1.5420 -0.3588 -0.6829
26965SOL    HW292621   8.929   5.648   1.111  1.2792 -0.4414 -0.4377
26966SOL     OW92622  11.254  10.535   1.245  0.6272  0.0771 -0.4228
26966SOL    HW192623  11.319  10.521   1.314  1.3766 -1.3967 -1.3756
26966SOL    HW292624  11.305  10.541   1.164 -0.2748  1.2143 -0.9439
26967SOL     OW92625   9.025   7.316   9.035 -0.0137 -0.6813 -0.3102
26967SOL    HW192626   9.073   7.300   9.116 -1.9624 -0.5604  0.9435
26967SOL    HW292627   8.952   7.372   9.061  0.0325  0.4578 -2.4189
26968SOL     OW92628  10.740   6.995  12.609 -0.3175 -0.3677 -0.2451
26968SOL    HW192629  10.723   7.077  12.656 -0.2452 -0.5162  0.0380
26968SOL    HW292630  10.657   6.947  12.615 -0.4115 -0.2445 -0.5525
26969SOL     OW92631   0.664  12.575  12.094 -0.1339  0.2064  0.0863
26969SOL    HW192632   0.616  12.494  12.079  0.2407  0.1354 -0.7917
26969SOL    HW292633   0.610  12.643  12.053  0.5747  0.1021 -1.0606
26970SOL     OW92634   0.863   5.479   3.331 -0.5691  0.2994  0.0416
26970SOL    HW192635   0.798   5.432   3.279 -0.1284 -0.4886  0.2021
26970SOL    HW292636   0.933   5.416   3.347 -0.6513  0.5360  1.5244
26971SOL     OW92637   8.730  12.634   9.913  0.4037  0.1009  0.8493
26971SOL    HW192638   8.704  12.547   9.944  0.2780  0.2163  1.0704
26971SOL    HW292639   8.826  12.632   9.915  0.4489 -0.5454 -0.5770
26972SOL     OW92640  11.482  12.511   5.194 -0.5248 -0.4221  0.4314
26972SOL    HW192641  11.439  12.574   5.252 -1.4982 -1.6153  1.0474
26972SOL    HW292642  11.567  12.495   5.234 -1.5909 -2.0494  2.2037
26973SOL     OW92643  11.746   4.117  11.290  0.8252  0.2349  0.3724
26973SOL    HW192644  11.792   4.144  11.210  0.2288  1.7796  0.5126
26973SOL    HW292645  11.666   4.075  11.258  0.2939  1.3896  0.1274
26974SOL     OW92646   6.842   3.059  10.392  0.1428  0.1680 -0.5065
26974SOL    HW192647   6.823   2.997  10.321 -1.4844 -1.4066  1.1810
26974SOL    HW292648   6.938   3.058  10.399  0.1909 -2.7528 -0.1432
26975SOL     OW92649   1.349  12.050   3.561  0.6363 -0.3545 -0.1915
26975SOL    HW192650   1.403  12.017   3.634  1.2044  0.9390  0.0115
26975SOL    HW292651   1.407  12.110   3.515 -0.9416  2.0290  0.7285
26976SOL     OW92652   8.925  11.506  13.325 -0.3750  0.0343  0.2357
26976SOL    HW192653   8.917  11.417  13.360 -0.8170  0.0284  0.1278
26976SOL    HW292654   8.923  11.563  13.402  4.1124 -0.1848  0.7858
26977SOL     OW92655   5.411   8.961   7.861 -0.3011 -0.5043  0.5837
26977SOL    HW192656   5.429   9.053   7.838 -0.8296 -0.2341  1.2403
26977SOL    HW292657   5.317   8.951   7.847  0.0716 -1.5624 -1.6003
26978SOL     OW92658  10.192   1.406  13.649  0.8637 -0.4461 -0.1043
26978SOL    HW192659  10.272   1.354  13.644  0.2630 -1.2866 -3.1935
26978SOL    HW292660  10.133   1.355  13.705  0.7514 -2.5720 -2.0158
26979SOL     OW92661   0.376   7.873  10.406  0.7172  0.5061  0.1821
26979SOL    HW192662   0.405   7.964  10.396  0.7930  0.2942 -2.0794
26979SOL    HW292663   0.456   7.823  10.420  0.8148  0.6304  0.0640
26980SOL     OW92664  10.745   9.098   0.264 -0.0362 -0.0451 -0.5884
26980SOL    HW192665  10.743   9.095   0.359 -0.2059 -0.2458 -0.5965
26980SOL    HW292666  10.777   9.185   0.243  1.8321 -0.6352 -0.3342
26981SOL     OW92667   5.722   9.809   0.448 -0.7985  0.1148 -0.4746
26981SOL    HW192668   5.659   9.831   0.518  1.6919 -0.7598  2.2470
26981SOL    HW292669   5.747   9.894   0.412 -1.4420  0.6836  0.3538
26982SOL     OW92670   1.160   0.567   0.359  0.2210 -0.5524  0.0912
26982SOL    HW192671   1.206   0.511   0.421  1.2788 -0.9957 -1.0512
26982SOL    HW292672   1.101   0.508   0.313  0.7213 -0.5747 -0.5306
26983SOL     OW92673   3.220   1.547  10.194 -0.3163 -0.2614  0.1711
26983SOL    HW192674   3.212   1.490  10.117  0.0145 -1.0342  0.6886
26983SOL    HW292675   3.130   1.568  10.218 -0.4143  0.5197 -0.7949
26984SOL     OW92676   5.791  12.875   8.212  0.0023 -0.1102  0.3406
26984SOL    HW192677   5.756  12.789   8.188 -2.0235  0.9925 -0.9417
26984SOL    HW292678   5.832  12.908   8.131  0.2699  0.3686  0.6644
26985SOL     OW92679   8.678   8.963  11.077 -0.5351 -0.2298 -0.3194
26985SOL    HW192680   8.679   9.045  11.126 -0.5446 -0.3026 -0.1967
26985SOL    HW292681   8.769   8.950  11.050 -0.3628 -0.6374  0.4308
26986SOL     OW92682   9.232   9.444   2.389  0.1176 -0.2105  0.4019
26986SOL    HW192683   9.207   9.401   2.471 -1.8793  2.9012  1.6470
26986SOL    HW292684   9.157   9.429   2.331 -0.1620  0.6523  0.5169
26987SOL     OW92685   7.090   6.706  13.005 -0.0657  0.5136 -0.2810
26987SOL    HW192686   7.100   6.784  13.061  0.2985  0.3902 -0.1739
26987SOL    HW292687   7.164   6.651  13.027 -0.2906  0.1580 -0.4018
26988SOL     OW92688   8.414  12.647   4.505  0.5609 -0.2563  0.0697
26988SOL    HW192689   8.408  12.589   4.581 -0.8713 -0.2713 -0.0300
26988SOL    HW292690   8.333  12.698   4.507  0.2925 -0.5439 -1.6749
26989SOL     OW92691  12.522   4.226   1.304  0.0904 -0.0451 -0.2316
26989SOL    HW192692  12.585   4.193   1.368 -0.8046 -1.1898  0.0904
26989SOL    HW292693  12.562   4.204   1.219  1.5140  1.9151 -0.1534
26990SOL     OW92694  10.732   1.611  11.584  0.5040  0.1419  0.3695
26990SOL    HW192695  10.756   1.606  11.676  1.0784 -0.9702  0.1785
26990SOL    HW292696  10.639   1.632  11.584  0.3708 -0.3957  1.2217
26991SOL     OW92697   6.886   0.987   0.646  0.2952  0.4666 -0.1666
26991SOL    HW192698   6.842   1.037   0.714  1.0750  1.3016 -0.2570
26991SOL    HW292699   6.893   0.899   0.682 -0.7263  0.5055  0.1642
26992SOL     OW92700   4.755   6.794  12.638  0.5002 -0.2150 -0.3139
26992SOL    HW192701   4.736   6.782  12.545 -0.3401  0.0715 -0.1863
26992SOL    HW292702   4.797   6.713  12.665  2.0602  0.2281 -1.2641
26993SOL     OW92703  13.134   9.256   5.672  0.2253  0.1826  0.1624
26993SOL    HW192704  13.113   9.163   5.684 -0.5219  0.3436  0.1754
26993SOL    HW292705  13.051   9.295   5.643 -0.4283  1.4643  3.3660
26994SOL     OW92706  10.727   2.080  12.079  0.0392 -0.2044  0.3242
26994SOL    HW192707  10.672   2.158  12.072 -0.3494 -0.5635 -0.8799
26994SOL    HW292708  10.749   2.075  12.172 -1.7071  0.1481  0.7976
26995SOL     OW92709  10.053   0.452   5.892 -0.6650  0.2908  0.3859
26995SOL    HW192710  10.010   0.389   5.835 -1.0893 -0.7830  1.8248
26995SOL    HW292711  10.133   0.476   5.846 -0.4826 -1.3207 -0.2021
26996SOL     OW92712   3.398  11.741   7.032  0.2972 -0.0455 -0.2051
26996SOL    HW192713   3.328  11.767   7.091 -0.4191  1.1463 -1.5340
26996SOL    HW292714   3.361  11.669   6.981 -0.2932  1.0897 -1.4449
26997SOL     OW92715   7.684  12.405   5.298  0.1511 -0.1275 -0.2107
26997SOL    HW192716   7.591  12.427   5.287 -0.2669 -1.4887  0.4815
26997SOL    HW292717   7.708  12.362   5.216 -0.2455 -1.1211  0.1803
26998SOL     OW92718   5.617   2.585  12.100 -0.1547  0.1320 -0.0635
26998SOL    HW192719   5.553   2.552  12.036  0.2622  0.6321 -0.7588
26998SOL    HW292720   5.573   2.576  12.184 -0.9880  0.0951 -0.4849
26999SOL     OW92721   1.281   3.249   3.427  0.1435 -0.0183  0.2986
26999SOL    HW192722   1.217   3.277   3.493 -0.4025  2.1727 -1.0712
26999SOL    HW292723   1.257   3.158   3.409 -1.0850  0.0172  1.5269
27000SOL     OW92724  10.673   9.551   1.656  0.3108 -0.4701  0.3232
27000SOL    HW192725  10.629   9.481   1.607  1.3291 -1.0202  0.1671
27000SOL    HW292726  10.605   9.585   1.714 -0.1563 -1.7565  0.5848
27001SOL     OW92727   8.142  11.581   2.340 -0.1390 -0.1021  0.1560
27001SOL    HW192728   8.151  11.525   2.418  0.0130  0.8251  0.8186
27001SOL    HW292729   8.051  11.568   2.312 -0.6142  0.5926  1.3100
27002SOL     OW92730   5.917   6.063   3.274  0.0589  0.4802 -0.5612
27002SOL    HW192731   5.827   6.037   3.290  0.4679 -0.9603 -0.4000
27002SOL    HW292732   5.947   6.004   3.205  1.1062  0.4044 -0.0640
27003SOL     OW92733   3.853  10.719   2.818 -0.5302  0.2261  0.1198
27003SOL    HW192734   3.946  10.718   2.795 -0.6387  0.6274 -0.3416
27003SOL    HW292735   3.827  10.810   2.809 -0.4618  0.5304  2.3685
27004SOL     OW92736   6.038   1.885   3.410 -0.1116  0.0306  0.0427
27004SOL    HW192737   6.019   1.850   3.323 -0.8955 -1.2621  0.6871
27004SOL    HW292738   6.109   1.947   3.397 -1.2292  1.0268 -1.7284
27005SOL     OW92739   3.117   0.431  13.099  0.2407 -0.5437 -0.4641
27005SOL    HW192740   3.055   0.357  13.096  0.2162 -0.5087 -2.3565
27005SOL    HW292741   3.068   0.504  13.061  0.9923 -0.1446 -0.6677
27006SOL     OW92742  13.644  11.799   9.230  0.7666  0.0387 -1.0934
27006SOL    HW192743  13.672  11.716   9.192  0.8431 -0.2851 -0.3484
27006SOL    HW292744  13.725  11.847   9.247  0.7807 -0.1719 -0.5543
27007SOL     OW92745   7.839  10.511  12.572 -0.4602 -0.1912 -0.6544
27007SOL    HW192746   7.885  10.428  12.571 -1.3031 -0.6720 -0.6791
27007SOL    HW292747   7.758  10.495  12.523 -1.3331  0.2185  0.5804
27008SOL     OW92748   7.073   6.238   5.678  0.0398 -0.1013  0.2225
27008SOL    HW192749   7.080   6.276   5.591  1.1801 -2.1776 -0.6471
27008SOL    HW292750   7.037   6.151   5.664  0.0836 -0.4236  1.8570
27009SOL     OW92751   2.616   9.056  11.093 -0.0723  0.2272 -0.3039
27009SOL    HW192752   2.703   9.019  11.086 -1.2203 -3.1051  1.2257
27009SOL    HW292753   2.620   9.112  11.171  0.5082 -0.4977  0.1967
27010SOL     OW92754   1.983   9.137  10.580  0.0717  0.4934  0.2516
27010SOL    HW192755   1.953   9.077  10.648  1.1638  0.2542  0.5388
27010SOL    HW292756   1.933   9.112  10.502  2.2210 -2.5046 -0.3217
27011SOL     OW92757   1.557   8.065   1.912  0.0881  0.0360  0.2419
27011SOL    HW192758   1.572   8.016   1.994 -0.1063 -0.5213 -0.0487
27011SOL    HW292759   1.604   8.015   1.846  0.1748  0.4432 -0.0058
27012SOL     OW92760   1.112   3.566   3.253  0.6805 -0.2083  0.0084
27012SOL    HW192761   1.155   3.648   3.275  0.8212 -0.6181  1.3985
27012SOL    HW292762   1.182   3.510   3.219  1.0029 -0.4208  0.9896
27013SOL     OW92763   9.326   9.684   0.684  0.4244 -0.3764  0.0937
27013SOL    HW192764   9.269   9.688   0.607 -0.8175 -1.7798  0.8870
27013SOL    HW292765   9.369   9.769   0.687 -0.9109  0.3789 -1.0967
27014SOL     OW92766   4.873   4.266   9.906  0.0573 -0.3994  0.0907
27014SOL    HW192767   4.812   4.339   9.917  0.9454  0.1692  1.4190
27014SOL    HW292768   4.899   4.242   9.995  2.5841  0.0627 -0.4543
27015SOL     OW92769   5.419   9.905  11.142 -0.1432 -0.6960 -0.9397
27015SOL    HW192770   5.351   9.953  11.095 -0.7572 -0.4141  0.2063
27015SOL    HW292771   5.417   9.817  11.104  0.9151  0.0959 -2.9741
27016SOL     OW92772   9.229   6.682   0.470 -0.0985 -0.4590 -0.0897
27016SOL    HW192773   9.140   6.647   0.480  0.0051 -0.3824  1.1985
27016SOL    HW292774   9.278   6.646   0.544  0.8518 -0.1680 -0.5592
27017SOL     OW92775  13.595   5.129   2.864  0.2783 -0.1491 -0.1804
27017SOL    HW192776  13.518   5.113   2.808  0.6100 -0.1198 -0.6530
27017SOL    HW292777  13.566   5.105   2.952 -0.4325  0.3326 -0.2720
27018SOL     OW92778   6.855   1.431   1.076 -0.6411 -0.0445 -0.1426
27018SOL    HW192779   6.816   1.344   1.081 -0.7452 -0.0368 -0.6886
27018SOL    HW292780   6.919   1.424   1.005  0.9948 -0.2898  1.3140
27019SOL     OW92781   8.293   8.670   1.135  0.1239  0.1754  0.2401
27019SOL    HW192782   8.217   8.628   1.174  0.2563 -0.2471  0.0517
27019SOL    HW292783   8.257   8.745   1.087  0.0207  1.0485  1.6245
27020SOL     OW92784   6.075   8.077   9.245 -0.0884  0.3823  0.2859
27020SOL    HW192785   6.082   8.119   9.159 -0.0891  0.5503  0.3662
27020SOL    HW292786   6.018   8.002   9.231  1.3192 -0.6377 -0.2538
27021SOL     OW92787  12.862   5.931   6.619 -0.1440  0.4876  0.3269
27021SOL    HW192788  12.807   5.853   6.620 -1.9980  1.6690 -1.4145
27021SOL    HW292789  12.935   5.908   6.562 -0.2671 -0.2077  0.4392
27022SOL     OW92790  12.062   6.902  11.891  0.0772 -0.1210  0.0683
27022SOL    HW192791  11.978   6.934  11.922  0.5479 -0.7983  2.1589
27022SOL    HW292792  12.070   6.939  11.803 -1.3602  1.8338  0.6843
27023SOL     OW92793   0.081   2.701   7.252  0.9772  0.0968  0.4964
27023SOL    HW192794   0.061   2.794   7.256  3.4297  0.7209 -0.1112
27023SOL    HW292795   0.150   2.694   7.186  0.4294 -2.2421  0.0869
27024SOL     OW92796  12.353   1.468  11.207  0.0989  0.4089  0.2491
27024SOL    HW192797  12.371   1.532  11.138 -0.2948 -0.7740 -0.9737
27024SOL    HW292798  12.407   1.392  11.184 -0.9397 -0.4444  0.5669
27025SOL     OW92799  11.814   0.677   8.168 -0.3661 -0.1315 -0.2421
27025SOL    HW192800  11.878   0.682   8.239 -0.2789  0.8441 -0.3676
27025SOL    HW292801  11.826   0.590   8.130 -0.2820 -0.5890  0.8093
27026SOL     OW92802   6.356   5.828   9.564  0.2587  0.2964  0.1166
27026SOL    HW192803   6.311   5.900   9.520 -0.0098 -0.3224 -0.6621
27026SOL    HW292804   6.446   5.833   9.532  0.1766  0.1364 -0.1494
27027SOL     OW92805   0.363   4.914  11.789  0.0324 -0.1095 -0.3206
27027SOL    HW192806   0.361   4.886  11.698  1.1160 -1.5209  0.0469
27027SOL    HW292807   0.414   4.996  11.788  0.7890 -0.5686 -0.8940
27028SOL     OW92808  13.270  12.388  11.756 -0.1133  0.5524  0.7286
27028SOL    HW192809  13.343  12.422  11.807  0.5200  0.4237 -0.0869
27028SOL    HW292810  13.227  12.467  11.721 -0.3944  0.6284  1.2322
27029SOL     OW92811  13.363   9.691   9.063  0.3775  0.1211 -0.0084
27029SOL    HW192812  13.323   9.766   9.018 -0.0530 -0.4047 -0.5120
27029SOL    HW292813  13.403   9.640   8.993 -1.0444 -1.1705  0.0551
27030SOL     OW92814   8.880  13.493   0.192  0.0602  0.0770 -0.3437
27030SOL    HW192815   8.822  13.545   0.136  0.7852  0.8313 -0.4060
27030SOL    HW292816   8.826  13.469   0.267 -0.5762  0.0603 -0.8012
27031SOL     OW92817   2.922  12.844   8.656 -0.2722 -0.5586 -0.2976
27031SOL    HW192818   3.011  12.810   8.652  0.4853  1.3558 -0.9435
27031SOL    HW292819   2.868  12.775   8.616  0.3748 -3.0799  2.7402
27032SOL     OW92820   6.223   0.912  12.745 -0.2404 -0.6345 -0.2875
27032SOL    HW192821   6.226   0.954  12.659 -0.1300 -0.8415 -0.3839
27032SOL    HW292822   6.159   0.842  12.734 -1.8419  0.6532  0.3826
27033SOL     OW92823   2.650   4.596   8.918 -0.2195 -0.3179 -0.1838
27033SOL    HW192824   2.575   4.649   8.891  0.3342 -0.1377 -1.4508
27033SOL    HW292825   2.693   4.648   8.986 -0.8063 -0.0706  0.0018
27034SOL     OW92826   8.915   1.312   1.981 -0.6807 -0.2577 -0.4808
27034SOL    HW192827   8.927   1.219   1.999 -0.9103 -0.0151  1.0768
27034SOL    HW292828   8.826   1.318   1.946 -0.3801 -0.6922 -1.3752
27035SOL     OW92829   7.658  11.039  11.677  0.1400  0.1533  0.1246
27035SOL    HW192830   7.694  10.973  11.736  1.6212 -1.2990 -2.2176
27035SOL    HW292831   7.577  11.001  11.644 -0.8589  1.1036  1.3771
27036SOL     OW92832   8.600  11.460   4.060  0.4584 -0.5367 -0.2545
27036SOL    HW192833   8.661  11.425   3.995  0.5266  1.7605 -1.5553
27036SOL    HW292834   8.649  11.529   4.105  0.0084 -1.2609  1.4270
27037SOL     OW92835   5.034  10.063   8.974 -0.3512 -0.0435 -0.0038
27037SOL    HW192836   4.986  10.140   9.004  1.0138  1.1066 -0.6125
27037SOL    HW292837   5.049  10.079   8.880 -0.6363 -1.3974 -0.3023
27038SOL     OW92838  11.970   0.887   3.884  0.2895 -0.8629  0.4354
27038SOL    HW192839  11.953   0.961   3.942  1.8548  0.6982 -0.9949
27038SOL    HW292840  12.057   0.905   3.847  0.3403 -2.9811 -0.6241
27039SOL     OW92841   7.759   4.859   0.940  0.3009 -0.1233 -0.6159
27039SOL    HW192842   7.781   4.814   0.858  0.6850 -0.3383 -0.4003
27039SOL    HW292843   7.670   4.829   0.960 -0.5181  1.3196 -1.8800
27040SOL     OW92844  13.292  11.452  11.043  0.4358  0.3957 -0.2287
27040SOL    HW192845  13.220  11.505  11.010  0.3242  0.3548 -0.0523
27040SOL    HW292846  13.370  11.506  11.030  0.4884  0.1264 -1.1672
27041SOL     OW92847  12.251   4.824  11.500  0.3032  0.0402 -0.3149
27041SOL    HW192848  12.240   4.734  11.470 -0.2162  1.1099 -3.7627
27041SOL    HW292849  12.252   4.817  11.596 -1.8764 -3.3834 -0.3469
27042SOL     OW92850   9.010   6.369   6.800  0.0369  1.0317 -0.3531
27042SOL    HW192851   9.029   6.277   6.814  1.0650  1.1806 -0.6570
27042SOL    HW292852   8.921   6.371   6.766 -0.5820  0.2778  1.1151
27043SOL     OW92853   1.544  11.055   9.049 -0.0457  0.3587  0.2739
27043SOL    HW192854   1.630  11.017   9.067 -0.6751 -0.7826  1.0454
27043SOL    HW292855   1.510  11.079   9.136  0.1874  2.4292 -0.1715
27044SOL     OW92856   4.414   8.095   5.779 -0.0526 -0.2685 -0.1945
27044SOL    HW192857   4.444   8.063   5.694 -1.1255  0.5598 -0.9263
27044SOL    HW292858   4.326   8.059   5.788 -0.6115  1.0002 -0.2439
27045SOL     OW92859  10.254   2.143   1.892 -0.5360  0.4880  0.2509
27045SOL    HW192860  10.316   2.215   1.881  0.0717 -0.0166  0.3239
27045SOL    HW292861  10.274   2.084   1.819  0.4440 -0.6639  1.3982
27046SOL     OW92862   9.768   8.160   9.783  0.1427 -0.1472 -0.4179
27046SOL    HW192863   9.856   8.183   9.811  0.3301 -0.0875 -1.0450
27046SOL    HW292864   9.758   8.068   9.808  0.1537  0.0161  0.2081
27047SOL     OW92865   9.929   3.715   5.483  0.0891 -0.0910 -0.6926
27047SOL    HW192866  10.010   3.727   5.531 -0.0115  0.7967 -0.7291
27047SOL    HW292867   9.918   3.620   5.478  0.2336 -0.2091  0.7967
27048SOL     OW92868   5.412  13.506  12.343 -0.1437 -0.4148 -0.5131
27048SOL    HW192869   5.342  13.481  12.283  1.0625 -0.8908 -1.8061
27048SOL    HW292870   5.428  13.598  12.324 -0.7000 -0.1891  0.0948
27049SOL     OW92871   8.701   8.744   1.081 -0.1570 -0.1882  0.2617
27049SOL    HW192872   8.636   8.747   1.151  0.5451  1.7044  0.8833
27049SOL    HW292873   8.686   8.659   1.039 -2.6637 -0.0467  0.7016
27050SOL     OW92874   4.408  10.031   6.490  0.1215  0.1331  0.3373
27050SOL    HW192875   4.503  10.019   6.491  0.2110 -0.2002 -2.3710
27050SOL    HW292876   4.372   9.952   6.529  0.9585 -0.5056 -0.1565
27051SOL     OW92877   9.590   8.556  11.532  0.4120 -0.0410  0.0211
27051SOL    HW192878   9.649   8.524  11.464 -0.6139  0.1445 -0.9716
27051SOL    HW292879   9.548   8.477  11.566  1.0178 -0.1458  0.5442
27052SOL     OW92880   3.497  11.005   5.057  0.4635 -0.3250 -0.0681
27052SOL    HW192881   3.416  11.046   5.025 -0.9433 -3.3677 -0.7266
27052SOL    HW292882   3.559  11.016   4.984 -0.6763 -1.5058 -1.2569
27053SOL     OW92883   4.355   1.636  12.475  0.1336  0.6639  0.3536
27053SOL    HW192884   4.299   1.565  12.442 -0.5871  0.9633  0.9059
27053SOL    HW292885   4.422   1.591  12.526  0.8211  0.2510 -0.8492
27054SOL     OW92886   8.128   7.210   7.267  0.5835 -0.2972  0.6944
27054SOL    HW192887   8.212   7.215   7.313  1.0165 -1.1011  0.0093
27054SOL    HW292888   8.150   7.220   7.174 -0.1020 -0.2962  0.5242
27055SOL     OW92889   9.364   1.571   5.349 -0.3487  0.7449  0.4044
27055SOL    HW192890   9.319   1.649   5.316 -1.3382 -0.5237 -1.4501
27055SOL    HW292891   9.309   1.539   5.420 -0.7730  0.8909  0.1460
27056SOL     OW92892   9.158   0.658  11.690  0.1443  0.0262 -0.4164
27056SOL    HW192893   9.200   0.626  11.611 -1.4118 -0.8480 -0.9382
27056SOL    HW292894   9.074   0.694  11.660  0.4382  1.6783  0.5708
27057SOL     OW92895  13.072   3.942   8.861  0.1019  0.6846 -0.3313
27057SOL    HW192896  13.145   3.931   8.799  0.6869  1.6452  0.1691
27057SOL    HW292897  12.995   3.955   8.805  0.4863  0.7553 -0.8557
27058SOL     OW92898   3.587   4.865  11.315 -1.0376 -0.6135 -0.0410
27058SOL    HW192899   3.599   4.896  11.225  3.7471 -1.5248  0.0010
27058SOL    HW292900   3.598   4.770  11.309  2.4079 -0.4821  1.6245
27059SOL     OW92901   2.296  12.834   7.822  0.3644  0.2639  0.0709
27059SOL    HW192902   2.245  12.911   7.847  1.2297 -0.1301  3.5029
27059SOL    HW292903   2.234  12.761   7.828  0.3726  0.2735  0.2721
27060SOL     OW92904   3.509   4.695   0.456 -0.1229 -0.9454  0.2609
27060SOL    HW192905   3.597   4.716   0.423  0.1786 -2.0298  0.3261
27060SOL    HW292906   3.457   4.679   0.378  0.0801 -1.5690  0.2470
27061SOL     OW92907  13.184   1.476  11.916  0.4901  0.3950 -0.1150
27061SOL    HW192908  13.094   1.453  11.938  1.3472 -2.6506  0.8147
27061SOL    HW292909  13.198   1.562  11.956 -1.5636  0.2806  0.9827
27062SOL     OW92910   7.787  12.538   7.466  0.3243 -0.3472 -0.3964
27062SOL    HW192911   7.858  12.580   7.515 -0.1879  1.2381 -0.9797
27062SOL    HW292912   7.709  12.554   7.519  0.0811 -0.3011 -0.7629
27063SOL     OW92913   0.454   6.191   5.024 -0.0946 -0.1502  0.1122
27063SOL    HW192914   0.403   6.235   4.956 -1.6337 -1.1236  0.5645
27063SOL    HW292915   0.515   6.134   4.976  0.3934  0.8271 -0.4432
27064SOL     OW92916   5.305  11.236  12.417 -0.3730  0.2030  0.3440
27064SOL    HW192917   5.323  11.289  12.339  0.5444  1.0515  1.1172
27064SOL    HW292918   5.220  11.268  12.448 -0.6464  0.0040 -0.1821
27065SOL     OW92919   3.424   8.221   5.843  0.1158  0.0096 -0.3562
27065SOL    HW192920   3.413   8.126   5.849 -0.7924  0.1773  2.1389
27065SOL    HW292921   3.517   8.235   5.865  0.1456 -0.2940 -0.2740
27066SOL     OW92922   4.561  13.061   2.280  0.3771  0.0200  0.3386
27066SOL    HW192923   4.596  13.125   2.217  1.8893 -1.0856  0.0136
27066SOL    HW292924   4.587  13.096   2.365  0.5800  0.2151  0.2005
27067SOL     OW92925  13.443   9.074   1.650  0.5051 -0.1212  0.0135
27067SOL    HW192926  13.524   9.038   1.687  0.4320  1.8019  2.3297
27067SOL    HW292927  13.472   9.145   1.593  0.4992  0.3321  0.5609
27068SOL     OW92928   8.182   9.687  10.942 -0.0199 -0.8426  0.3726
27068SOL    HW192929   8.198   9.686  11.037 -0.9217 -0.5247  0.5411
27068SOL    HW292930   8.257   9.641  10.905  0.1304 -1.3615  1.2783
27069SOL     OW92931   1.108  10.086   2.363  0.8927 -0.0190 -0.0111
27069SOL    HW192932   1.025  10.070   2.319  0.7165  0.7723  0.0093
27069SOL    HW292933   1.097  10.048   2.450  1.4158 -2.0235 -0.7774
27070SOL     OW92934  11.185   4.196  11.215  0.1572 -0.5282  0.5961
27070SOL    HW192935  11.176   4.153  11.130 -2.0284 -0.0808  0.5426
27070SOL    HW292936  11.191   4.289  11.194 -0.5449 -0.4040  0.9289
27071SOL     OW92937   4.071   7.300   8.946  0.5588 -0.3287 -0.0756
27071SOL    HW192938   4.135   7.326   9.013 -1.3287 -1.4190  2.2859
27071SOL    HW292939   4.011   7.375   8.940 -0.0901 -0.7930  0.5308
27072SOL     OW92940   7.411  11.919   5.389  0.3264  0.1007  0.3979
27072SOL    HW192941   7.503  11.902   5.408  1.0465  2.1546 -0.9259
27072SOL    HW292942   7.363  11.860   5.448  2.4479 -2.3558 -0.1674
27073SOL     OW92943  11.761   5.409   3.281  0.1785  0.8298 -0.2766
27073SOL    HW192944  11.835   5.458   3.245 -0.3807  1.7228 -0.2516
27073SOL    HW292945  11.770   5.321   3.244  1.5586  0.7650  0.1757
27074SOL     OW92946   8.791   5.807   9.805  0.0983  0.3603 -0.1499
27074SOL    HW192947   8.820   5.828   9.893  0.8145 -1.3158  0.0553
27074SOL    HW292948   8.787   5.891   9.759  1.4456  1.0555  0.9625
27075SOL     OW92949   3.713  11.447  11.819  0.0479  0.1465 -0.0795
27075SOL    HW192950   3.735  11.450  11.726 -1.4879  0.2021 -0.4648
27075SOL    HW292951   3.778  11.388  11.857  0.5569 -0.0558 -1.2266
27076SOL     OW92952   8.579   2.211  11.451  0.2309  0.7109  0.0347
27076SOL    HW192953   8.500   2.177  11.409 -0.2236  2.8399 -0.9848
27076SOL    HW292954   8.547   2.258  11.528  0.6668  0.2618  0.4952
27077SOL     OW92955  13.592   2.463   0.425  0.1378 -0.6993 -0.4155
27077SOL    HW192956  13.548   2.394   0.375 -2.9031 -1.0190  2.4057
27077SOL    HW292957  13.565   2.545   0.384 -0.9108 -1.0097 -0.3540
27078SOL     OW92958   3.079   4.752   0.775 -0.0666 -0.1716  0.1340
27078SOL    HW192959   3.130   4.825   0.740  0.5103  0.6870  2.5997
27078SOL    HW292960   3.073   4.769   0.869 -2.0564 -2.0189  0.4224
27079SOL     OW92961  10.006   8.843   7.990 -0.0018  0.0656 -0.5898
27079SOL    HW192962  10.037   8.933   7.987  0.1439  0.0020 -0.9918
27079SOL    HW292963  10.061   8.801   8.057 -0.8417  0.5585  0.4421
27080SOL     OW92964   8.862  10.442   4.208  0.3878  0.1586  0.0818
27080SOL    HW192965   8.895  10.499   4.139 -3.5652 -0.4011 -2.5750
27080SOL    HW292966   8.890  10.354   4.183 -0.6630  0.0099 -0.6334
27081SOL     OW92967  12.164   0.272   9.038 -0.6600  0.3231  0.2787
27081SOL    HW192968  12.236   0.263   9.100  0.3240 -0.0046 -0.8848
27081SOL    HW292969  12.177   0.358   8.998 -0.4797 -0.0376 -0.4556
27082SOL     OW92970   9.923   8.055  10.225  0.3816  0.3664 -0.2508
27082SOL    HW192971  10.009   8.013  10.227  1.1548  1.9105 -0.2949
27082SOL    HW292972   9.908   8.084  10.315  1.5620  3.2667 -0.8836
27083SOL     OW92973   0.876   6.077   7.110 -0.2105 -0.3986 -0.1909
27083SOL    HW192974   0.809   6.077   7.041 -0.8473 -0.7826  0.4099
27083SOL    HW292975   0.828   6.100   7.189  1.0019  3.1158 -0.2867
27084SOL     OW92976   0.379   1.568   9.320 -0.0001  0.4628 -0.2681
27084SOL    HW192977   0.402   1.661   9.322  0.1087  0.4726 -1.3041
27084SOL    HW292978   0.440   1.527   9.381  0.5420  0.9482 -0.4786
27085SOL     OW92979   3.710   5.819   7.393  0.5453 -0.3624  0.0759
27085SOL    HW192980   3.666   5.735   7.384  1.0971 -0.6450  0.0045
27085SOL    HW292981   3.803   5.800   7.382  0.8015  0.0517  1.3379
27086SOL     OW92982   0.956   1.776  10.405  0.7007 -0.2109 -0.5655
27086SOL    HW192983   0.946   1.681  10.408  0.9048 -0.4389 -3.7209
27086SOL    HW292984   0.867   1.810  10.395  0.5949  0.0033  0.8821
27087SOL     OW92985  13.309   1.977  12.404  0.5726  0.2510 -0.2281
27087SOL    HW192986  13.264   2.012  12.481 -1.0955 -0.4885 -0.8209
27087SOL    HW292987  13.325   2.054  12.349  1.4326  0.7316  0.6459
27088SOL     OW92988   6.975   6.791   3.368 -0.2853  0.0232 -0.0257
27088SOL    HW192989   6.942   6.880   3.383 -1.2668 -0.6860  2.3863
27088SOL    HW292990   6.904   6.746   3.324  0.4640  0.5474 -1.8783
27089SOL     OW92991  11.216   5.795   0.322  0.0272 -0.1823 -0.1415
27089SOL    HW192992  11.225   5.785   0.227 -2.5376  3.5280 -0.9982
27089SOL    HW292993  11.126   5.770   0.341 -0.2824  1.5011  0.8156
27090SOL     OW92994   7.314  10.536  12.019  0.0102 -0.0990 -0.2287
27090SOL    HW192995   7.287  10.571  12.104 -0.8185  0.9051 -0.8976
27090SOL    HW292996   7.399  10.576  12.002 -0.1343  0.2227 -0.1862
27091SOL     OW92997   2.014   8.844   3.433 -0.3241  0.3055  0.4370
27091SOL    HW192998   2.026   8.766   3.487 -1.2948  0.3408  0.7083
27091SOL    HW292999   1.922   8.867   3.442 -0.5511  0.2260 -1.3536
27092SOL     OW93000   5.455   1.531  12.131  0.3385  0.1126  0.6384
27092SOL    HW193001   5.422   1.455  12.084 -0.4932  0.1431  1.1506
27092SOL    HW293002   5.539   1.551  12.089 -1.4665  1.6955 -2.5474
27093SOL     OW93003  11.519   5.870   4.409  0.3267 -0.5163 -0.5955
27093SOL    HW193004  11.462   5.879   4.333 -0.0502  0.6699 -0.1906
27093SOL    HW293005  11.516   5.955   4.451 -0.3208 -1.4423  1.3496
27094SOL     OW93006   2.395  10.612   0.272 -0.4246 -0.1648  0.4633
27094SOL    HW193007   2.416  10.530   0.317 -1.7427 -0.2459  0.9726
27094SOL    HW293008   2.336  10.586   0.201 -0.5503  0.3083  0.3917
27095SOL     OW93009   0.598   1.104   5.096  0.1306  0.7037 -0.1285
27095SOL    HW193010   0.606   1.199   5.103 -0.8429  0.7061  1.4273
27095SOL    HW293011   0.608   1.072   5.185 -0.4408 -0.5709 -0.4979
27096SOL     OW93012   3.157   4.789  11.994 -0.1884  0.0925  0.4243
27096SOL    HW193013   3.229   4.732  11.966  0.0936  0.7306 -0.1890
27096SOL    HW293014   3.091   4.729  12.029 -0.0183 -0.6297 -0.4554
27097SOL     OW93015  11.784   1.484  10.020  0.0928  0.2276 -0.3849
27097SOL    HW193016  11.840   1.539  10.075  0.4097  0.5785 -1.0450
27097SOL    HW293017  11.834   1.403  10.008  0.4430  0.5186 -0.9273
27098SOL     OW93018   9.336   4.968  11.192  0.3124 -0.5139  0.2184
27098SOL    HW193019   9.380   4.897  11.145 -0.3253 -1.2517  0.7268
27098SOL    HW293020   9.360   4.955  11.283  2.9741  1.9210  0.0342
27099SOL     OW93021   2.961   8.570   1.611 -0.7292 -0.5145 -0.0929
27099SOL    HW193022   2.999   8.657   1.624 -0.0517 -0.6240 -1.2132
27099SOL    HW293023   2.867   8.584   1.618 -0.5797  0.0120  1.3481
27100SOL     OW93024   2.465  11.306  12.946 -0.1406  0.0662  0.0005
27100SOL    HW193025   2.387  11.266  12.906  0.6730 -1.0449 -0.5332
27100SOL    HW293026   2.454  11.291  13.040 -0.2892 -0.6218 -0.1224
27101SOL     OW93027   4.367   5.509   8.550 -0.1495  0.4055 -0.2879
27101SOL    HW193028   4.439   5.515   8.487 -0.2103  1.0861 -0.3072
27101SOL    HW293029   4.400   5.450   8.618 -0.1381 -0.4494 -1.0199
27102SOL     OW93030  11.278   3.724   0.585  0.1768  0.5844 -0.4077
27102SOL    HW193031  11.355   3.740   0.639  0.4073  0.2611 -0.6361
27102SOL    HW293032  11.307   3.659   0.521 -0.1048  0.9335 -0.8955
27103SOL     OW93033  12.322   3.566   3.962  0.0243 -0.0399 -0.1392
27103SOL    HW193034  12.342   3.625   3.888  0.4248 -1.7642 -1.4835
27103SOL    HW293035  12.403   3.516   3.975 -0.7568 -1.3249 -0.0533
27104SOL     OW93036  10.155   9.569  11.420  0.3243  0.2093 -0.2138
27104SOL    HW193037  10.240   9.612  11.420  0.2478  0.3710  0.2589
27104SOL    HW293038  10.166   9.495  11.479  0.8010 -1.1412 -1.9141
27105SOL     OW93039   1.712   8.006   6.683 -0.1680 -0.0530  0.4535
27105SOL    HW193040   1.731   8.024   6.591  3.2224 -0.6123  0.9121
27105SOL    HW293041   1.740   7.916   6.696  1.1158  0.5630  2.3886
27106SOL     OW93042   2.091   8.339   3.389 -0.6737  0.2920 -0.8631
27106SOL    HW193043   2.054   8.355   3.476 -0.8953 -0.0642 -0.8901
27106SOL    HW293044   2.157   8.271   3.403  0.2679  1.1948 -0.7475
27107SOL     OW93045   0.529   3.958   6.380 -0.1600  0.2241 -0.4003
27107SOL    HW193046   0.500   3.918   6.462  1.7791  2.1375  1.3679
27107SOL    HW293047   0.625   3.957   6.385 -0.0045  2.2019 -1.6668
27108SOL     OW93048   4.300   8.026   6.290 -0.6826  0.3458  0.3725
27108SOL    HW193049   4.382   7.999   6.329  0.5740  2.7628 -0.3749
27108SOL    HW293050   4.245   7.948   6.291  1.8875 -1.5613  0.1662
27109SOL     OW93051   3.071   9.538   6.371  0.0707  0.8456  0.0480
27109SOL    HW193052   3.094   9.605   6.306  1.6638  0.9231  0.6601
27109SOL    HW293053   2.986   9.565   6.404  1.1077  3.1529  1.0009
27110SOL     OW93054  13.602   3.084  11.274  0.4208 -0.2405  0.3561
27110SOL    HW193055  13.617   3.005  11.223  0.5458 -1.0866  1.6754
27110SOL    HW293056  13.688   3.128  11.277  0.8138 -1.0307  1.1981
27111SOL     OW93057   7.440  11.117   0.967 -0.0673 -0.5549 -0.1938
27111SOL    HW193058   7.376  11.054   0.999 -0.7281 -0.2175 -0.8252
27111SOL    HW293059   7.453  11.178   1.040  1.0000 -1.7203  0.6251
27112SOL     OW93060   4.938  11.581   7.113 -0.2755  0.2627  0.0778
27112SOL    HW193061   4.980  11.569   7.028  0.6389  1.1823  0.3860
27112SOL    HW293062   5.006  11.559   7.177 -0.8205  0.0008  0.5805
27113SOL     OW93063   3.671   7.243   9.855  0.3081 -0.1375 -0.0445
27113SOL    HW193064   3.597   7.279   9.904 -0.7296 -1.1035 -0.8630
27113SOL    HW293065   3.731   7.317   9.844 -0.7961  0.8010  0.1359
27114SOL     OW93066   0.396   4.794   8.705 -0.2335 -0.2041 -0.9165
27114SOL    HW193067   0.472   4.844   8.735 -0.9597 -0.6320  1.9697
27114SOL    HW293068   0.420   4.703   8.722 -1.1318 -0.3839 -0.5668
27115SOL     OW93069   3.845   8.269   5.507 -0.0383 -0.1358 -0.0042
27115SOL    HW193070   3.836   8.187   5.557 -0.7180 -0.1302 -0.1017
27115SOL    HW293071   3.866   8.241   5.418  1.1204 -0.1495  0.2610
27116SOL     OW93072   4.025   2.437   4.474 -0.1303  0.1517  0.0110
27116SOL    HW193073   4.003   2.491   4.398  0.2361 -0.5196 -0.5799
27116SOL    HW293074   3.941   2.412   4.511 -0.4755  3.8693  2.3650
27117SOL     OW93075   2.454   7.509   8.238 -0.1085  0.1849 -0.8182
27117SOL    HW193076   2.511   7.437   8.210  1.8645  1.5972 -0.6687
27117SOL    HW293077   2.392   7.468   8.298  0.6708 -1.4586 -1.0656
27118SOL     OW93078   0.555   6.451  10.513  0.0806  0.2009 -0.2766
27118SOL    HW193079   0.564   6.479  10.604 -1.3235 -0.4060  0.0820
27118SOL    HW293080   0.553   6.533  10.463  0.3921  0.5538  0.2824
27119SOL     OW93081   2.318  11.477   3.228  0.2822  0.7530 -0.0852
27119SOL    HW193082   2.277  11.450   3.145  2.1485  0.3183 -0.9141
27119SOL    HW293083   2.405  11.507   3.203  0.0980  2.8003  1.4750
27120SOL     OW93084   2.983   4.302   4.582  0.3962 -0.0403  0.4585
27120SOL    HW193085   3.052   4.276   4.643  0.0088 -0.1892  0.8404
27120SOL    HW293086   2.941   4.377   4.625  0.0395 -0.2257  0.4340
27121SOL     OW93087  12.739  11.603   9.864  0.0953 -0.5504  0.8310
27121SOL    HW193088  12.814  11.616   9.922  0.0510 -0.7287  0.9297
27121SOL    HW293089  12.735  11.683   9.812  1.2639 -1.1331 -0.2116
27122SOL     OW93090   5.825   4.982   6.869  0.3488  0.0944 -0.4355
27122SOL    HW193091   5.743   4.962   6.824 -0.1467  2.3449 -0.6473
27122SOL    HW293092   5.810   5.066   6.911  1.3143 -1.1487  2.7317
27123SOL     OW93093   4.577  12.260  10.693 -0.3415  0.2591 -0.5400
27123SOL    HW193094   4.615  12.174  10.673 -0.5684  0.4517 -1.8586
27123SOL    HW293095   4.483  12.244  10.696 -0.3046  0.1047  1.1549
27124SOL     OW93096  10.212   5.264   8.014  0.4285  0.1306  0.0683
27124SOL    HW193097  10.166   5.199   8.066 -1.3991  1.1277 -0.2272
27124SOL    HW293098  10.148   5.294   7.949  2.0132  0.3624 -1.4914
27125SOL     OW93099   6.701   9.633  12.113  0.9114  0.3034  0.0443
27125SOL    HW193100   6.636   9.666  12.175 -0.2660  0.3632 -1.2038
27125SOL    HW293101   6.697   9.538  12.123  1.7004  0.3427  0.9966
27126SOL     OW93102   4.677  12.247  10.407  0.2632  0.1852  0.0856
27126SOL    HW193103   4.771  12.265  10.401  0.1135  0.7837 -0.5416
27126SOL    HW293104   4.672  12.170  10.463  1.1681 -0.2412 -0.3946
27127SOL     OW93105   4.659  12.531   1.766  0.0431  0.3123 -0.9567
27127SOL    HW193106   4.586  12.584   1.733  0.6113  1.5999 -0.2299
27127SOL    HW293107   4.698  12.584   1.835 -0.0030 -1.5395  0.5698
27128SOL     OW93108   3.565  12.211   8.950 -0.0804  0.0633  0.0713
27128SOL    HW193109   3.491  12.246   8.900 -0.2086 -0.2923  0.0101
27128SOL    HW293110   3.544  12.119   8.962  0.0933  0.0826  0.5285
27129SOL     OW93111  11.073   5.530   1.656 -0.1502 -0.2849 -0.1630
27129SOL    HW193112  10.983   5.541   1.626 -0.2906 -2.6313 -0.7980
27129SOL    HW293113  11.067   5.475   1.734  0.7912 -2.5676 -1.5831
27130SOL     OW93114   0.585   4.174   2.146  0.4734 -0.0525 -0.3937
27130SOL    HW193115   0.590   4.215   2.233 -0.7330 -2.2043  0.7647
27130SOL    HW293116   0.673   4.186   2.109  0.8049  1.5521  0.7825
27131SOL     OW93117  12.235   2.449  11.852  0.1986 -0.6527 -0.1132
27131SOL    HW193118  12.147   2.421  11.827  0.7418 -2.6434  0.0493
27131SOL    HW293119  12.279   2.467  11.769  0.2655 -1.7709 -0.3436
27132SOL     OW93120  10.030   5.094   8.148 -0.2290  0.9348 -0.1098
27132SOL    HW193121   9.957   5.126   8.200 -0.9032  0.7440 -0.9285
27132SOL    HW293122  10.009   5.003   8.129  0.1986  0.8888 -0.3937
27133SOL     OW93123  10.634   4.267   7.115 -0.4082  0.0458  0.3147
27133SOL    HW193124  10.603   4.178   7.130  1.0222 -0.8225 -1.4243
27133SOL    HW293125  10.700   4.281   7.183  1.7613 -1.5683 -1.3098
27134SOL     OW93126   4.452   6.736   1.111 -0.3820  0.0536 -0.1209
27134SOL    HW193127   4.397   6.811   1.132 -0.0334  0.1877  0.3119
27134SOL    HW293128   4.391   6.662   1.107 -0.7095  0.3386 -0.4544
27135SOL     OW93129   8.808  10.017   3.735 -0.3191  0.5495  0.6633
27135SOL    HW193130   8.729  10.036   3.685  0.1929  0.0585 -0.3802
27135SOL    HW293131   8.879  10.029   3.672  0.2245 -1.8397  0.7263
27136SOL     OW93132  10.990   1.660   3.779 -0.1978  0.4094 -0.1782
27136SOL    HW193133  11.072   1.611   3.769 -1.0836 -1.4369  1.0096
27136SOL    HW293134  10.943   1.645   3.697  0.0071  0.1950 -0.2581
27137SOL     OW93135   8.390   2.610   6.145 -0.0915 -0.0278  0.4118
27137SOL    HW193136   8.436   2.582   6.224  1.8602  0.6368 -0.4125
27137SOL    HW293137   8.411   2.703   6.137 -0.6929  0.0352 -0.6060
27138SOL     OW93138  11.964   3.661   7.899  0.0561 -0.4487 -0.6655
27138SOL    HW193139  12.021   3.717   7.952 -0.0387 -0.5152 -0.4936
27138SOL    HW293140  12.011   3.578   7.893  1.1290  0.2117 -2.5312
27139SOL     OW93141   2.452   3.496   9.501  0.2863  0.0210 -0.3301
27139SOL    HW193142   2.396   3.568   9.529  1.8362  0.4220  1.9455
27139SOL    HW293143   2.448   3.499   9.405 -0.5364  2.4343 -0.2882
27140SOL     OW93144   6.084  12.096   4.581  0.2055 -0.4112  0.6297
27140SOL    HW193145   6.025  12.026   4.607 -0.7485 -0.0922 -0.5823
27140SOL    HW293146   6.145  12.056   4.519 -1.9003  0.2724 -2.0656
27141SOL     OW93147   8.104   8.675  12.137 -0.1640 -0.6779 -0.4120
27141SOL    HW193148   8.128   8.616  12.209  0.8006  1.2586  0.9633
27141SOL    HW293149   8.023   8.638  12.101  0.0652 -2.4578  0.7830
27142SOL     OW93150   9.263   3.033   4.672 -0.1157  0.0271 -0.3614
27142SOL    HW193151   9.320   2.957   4.688 -0.1284  0.0846 -0.0283
27142SOL    HW293152   9.221   3.014   4.588 -1.0670 -0.9249  0.3064
27143SOL     OW93153  12.288   1.872   3.683 -0.7096  0.5797  0.5316
27143SOL    HW193154  12.358   1.884   3.747 -0.2696 -2.7231  0.8440
27143SOL    HW293155  12.207   1.890   3.731 -0.2827 -0.0951  1.5158
27144SOL     OW93156   0.830   3.133  11.169 -0.1806  0.0523  0.1614
27144SOL    HW193157   0.801   3.072  11.101 -0.4009  0.0157  0.2909
27144SOL    HW293158   0.778   3.212  11.155 -1.1697 -0.4141  1.1091
27145SOL     OW93159   1.584   7.195   9.440 -0.6641  0.0095  0.3352
27145SOL    HW193160   1.631   7.119   9.474 -0.6797  0.5876  1.7534
27145SOL    HW293161   1.539   7.231   9.517 -0.5907  1.4941 -0.2764
27146SOL     OW93162   4.112   8.315   0.523 -0.0624  0.6860 -0.3079
27146SOL    HW193163   4.180   8.290   0.460 -1.6744  0.6855 -2.1387
27146SOL    HW293164   4.032   8.321   0.471 -1.3625  1.3380  1.6515
27147SOL     OW93165   3.898   9.075  11.462 -0.2632 -0.2282  0.3597
27147SOL    HW193166   3.872   9.127  11.387 -0.0969 -1.0678 -0.2937
27147SOL    HW293167   3.873   9.128  11.538 -1.7082  0.0258 -0.2604
27148SOL     OW93168   3.457   6.354   3.315  0.0580 -0.0964 -0.5829
27148SOL    HW193169   3.395   6.385   3.250  1.8439  2.6378 -1.1275
27148SOL    HW293170   3.462   6.424   3.380  2.0085 -0.5284 -0.1938
27149SOL     OW93171   5.894   2.160   4.003  0.2968 -0.0188 -0.6762
27149SOL    HW193172   5.980   2.122   4.023 -0.5805 -1.0339  1.4659
27149SOL    HW293173   5.848   2.089   3.958  0.2576  0.1993 -0.9796
27150SOL     OW93174  12.364   3.631   2.604 -0.3855  0.3440 -0.2360
27150SOL    HW193175  12.379   3.576   2.528  1.0462 -0.4639  0.5986
27150SOL    HW293176  12.270   3.651   2.601 -1.0822 -2.5213 -0.3293
27151SOL     OW93177   4.881   1.991  10.684 -0.3951 -0.3780 -0.3552
27151SOL    HW193178   4.880   1.914  10.741 -0.0759  0.3566  0.6773
27151SOL    HW293179   4.805   2.042  10.712 -0.1940  0.0194 -0.5280
27152SOL     OW93180   2.278   3.440  13.660  0.0885 -0.5088  0.1004
27152SOL    HW193181   2.300   3.472  13.747 -0.1291 -0.7493  0.2442
27152SOL    HW293182   2.322   3.501  13.600  0.9802 -0.8574  0.3832
27153SOL     OW93183   7.246   1.897   4.468  0.1018  0.3138  0.4777
27153SOL    HW193184   7.197   1.975   4.495  0.4802  1.2211 -1.2772
27153SOL    HW293185   7.180   1.839   4.430  0.1005  0.7280 -0.1732
27154SOL     OW93186   5.353   9.055   1.562  0.3911  0.9369 -0.8958
27154SOL    HW193187   5.316   9.093   1.642  0.7461  1.6331 -1.0596
27154SOL    HW293188   5.364   8.962   1.584  1.3486  1.2829  0.1903
27155SOL     OW93189   5.109   2.608   6.723 -0.4906 -0.0164  0.1774
27155SOL    HW193190   5.036   2.547   6.717 -1.5188  1.1999 -0.1496
27155SOL    HW293191   5.095   2.655   6.805 -0.6395  0.8964 -0.3582
27156SOL     OW93192   1.630   3.671   6.987  0.4487 -0.4460 -0.6848
27156SOL    HW193193   1.698   3.647   6.924  1.4413 -0.8548  0.4981
27156SOL    HW293194   1.548   3.666   6.938  1.2642  0.0100 -2.1343
27157SOL     OW93195   9.207   0.373   4.691  0.2445 -0.0153  0.0866
27157SOL    HW193196   9.276   0.425   4.731  0.4380 -0.5950  0.5199
27157SOL    HW293197   9.195   0.410   4.604  0.0867  1.0192  0.5388
27158SOL     OW93198   6.738  13.043   0.393 -0.0963 -0.2931  0.0960
27158SOL    HW193199   6.752  13.053   0.299  0.9708  0.8789  0.3517
27158SOL    HW293200   6.722  13.132   0.425  1.6085 -0.3768  1.3036
27159SOL     OW93201   8.122   8.901   5.250 -0.6282 -0.3734 -0.3882
27159SOL    HW193202   8.165   8.965   5.193 -0.6937 -0.3691 -0.4335
27159SOL    HW293203   8.179   8.824   5.247  0.3040  0.2326  0.9471
27160SOL     OW93204   7.591  13.482  12.612  0.0294  0.1106  0.4708
27160SOL    HW193205   7.686  13.492  12.622 -0.0920 -0.5449  2.8802
27160SOL    HW293206   7.581  13.412  12.547  1.0552  2.6345 -2.6868
27161SOL     OW93207   0.051  10.490   4.187  0.3564  0.4177 -0.1520
27161SOL    HW193208   0.113  10.483   4.259 -1.3518  2.1420  1.6042
27161SOL    HW293209   0.044  10.401   4.153 -0.6056 -1.0649  3.4825
27162SOL     OW93210  12.741   6.136   2.890 -0.1088 -0.1765  0.2256
27162SOL    HW193211  12.668   6.075   2.889 -0.6477  0.4319  1.0823
27162SOL    HW293212  12.784   6.120   2.974 -0.3587  0.7241  0.5372
27163SOL     OW93213   3.999   3.451   0.631  0.2292  0.0540 -0.0910
27163SOL    HW193214   4.010   3.369   0.679 -0.2358 -0.0702 -0.1925
27163SOL    HW293215   4.089   3.481   0.615  0.3907  0.6398  1.7604
27164SOL     OW93216   5.909   0.535   3.868 -0.0840 -0.3084  0.4911
27164SOL    HW193217   5.981   0.556   3.808  2.0252 -0.2593  2.8962
27164SOL    HW293218   5.891   0.616   3.914 -1.3611 -0.4708  0.3308
27165SOL     OW93219   3.188   1.816  12.279  0.0458 -0.6063 -0.0721
27165SOL    HW193220   3.191   1.905  12.314 -2.2657 -0.5239  0.0578
27165SOL    HW293221   3.190   1.829  12.184 -0.9147 -0.3599 -0.0663
27166SOL     OW93222   2.037  10.815   5.820  0.5785  0.1547  0.1932
27166SOL    HW193223   2.024  10.817   5.915 -1.6486  2.2259 -0.0618
27166SOL    HW293224   1.953  10.844   5.784  1.6838  0.3757 -2.3899
27167SOL     OW93225   0.606   9.742   8.464  0.2882 -0.6185 -0.0432
27167SOL    HW193226   0.632   9.737   8.557 -1.1376 -0.6864  0.3716
27167SOL    HW293227   0.584   9.834   8.451 -0.4730 -0.8012 -0.0473
27168SOL     OW93228   2.499   3.980   2.710  0.4281 -0.4014  0.0215
27168SOL    HW193229   2.552   4.059   2.699 -1.2701  0.8800  0.5937
27168SOL    HW293230   2.515   3.930   2.630  2.5010 -0.1264  0.1938
27169SOL     OW93231   2.945   4.669   0.529 -0.2679 -0.1975 -0.1448
27169SOL    HW193232   3.035   4.671   0.497 -0.7042  0.6714 -1.3575
27169SOL    HW293233   2.954   4.682   0.624  0.8964 -0.5408 -0.1866
27170SOL     OW93234  12.517   1.152   3.441 -0.0432 -0.1219  0.0540
27170SOL    HW193235  12.584   1.120   3.380  0.1667 -0.2567  0.3533
27170SOL    HW293236  12.549   1.237   3.470 -0.1910 -0.0132 -0.0967
27171SOL     OW93237   7.151   3.400  12.526  0.4693 -0.4194 -0.0965
27171SOL    HW193238   7.232   3.447  12.509 -0.2232  1.1915  0.8276
27171SOL    HW293239   7.148   3.392  12.621  0.2476 -1.8104 -0.1961
27172SOL     OW93240   2.388   0.613  10.842 -0.3629 -0.3731 -0.2059
27172SOL    HW193241   2.359   0.530  10.881 -0.2491 -0.9007 -1.2160
27172SOL    HW293242   2.439   0.655  10.911  1.0498 -1.9337 -0.2241
27173SOL     OW93243   6.685   3.222  12.954  0.0751 -0.2125 -0.5078
27173SOL    HW193244   6.678   3.150  12.892 -2.1153 -1.2646  0.8496
27173SOL    HW293245   6.594   3.244  12.976  0.7402  1.2288  1.0687
27174SOL     OW93246   5.295   0.519   0.471 -0.0862 -0.6707  0.6184
27174SOL    HW193247   5.268   0.532   0.562 -1.5481 -2.0200  0.4184
27174SOL    HW293248   5.230   0.460   0.434 -0.3123  0.8727 -1.7135
27175SOL     OW93249   8.006  11.732   6.646  0.1782  0.2431  0.3975
27175SOL    HW193250   8.077  11.706   6.587 -0.8828 -0.6153 -0.5381
27175SOL    HW293251   7.955  11.652   6.660  0.1175  0.5328  2.1269
27176SOL     OW93252   0.784   9.161   8.030  0.4820  0.1095  0.0430
27176SOL    HW193253   0.756   9.072   8.008 -0.5588  0.7091 -1.2226
27176SOL    HW293254   0.750   9.175   8.119  0.3106 -0.6201  0.1001
27177SOL     OW93255   8.054   8.133  10.167 -0.5896 -0.1484 -0.2741
27177SOL    HW193256   8.053   8.037  10.160  0.4428 -0.2142  0.3269
27177SOL    HW293257   8.146   8.157  10.157 -0.7268  0.7077  0.3984
27178SOL     OW93258   6.276   6.060   9.111  0.1497  0.0264 -0.0080
27178SOL    HW193259   6.198   6.092   9.065 -0.1915 -1.3829 -0.4693
27178SOL    HW293260   6.285   5.970   9.081  2.7540  0.5484 -0.9959
27179SOL     OW93261  11.664   5.331   9.792  0.3948  0.2289 -0.6016
27179SOL    HW193262  11.759   5.342   9.790  0.3704  0.9112  0.7797
27179SOL    HW293263  11.629   5.415   9.760  0.2691  0.7960  0.9424
27180SOL     OW93264   8.158  11.468   2.666 -0.0110 -0.2362 -0.1532
27180SOL    HW193265   8.123  11.557   2.669 -1.5609 -0.8368  1.1824
27180SOL    HW293266   8.082  11.412   2.685  1.4009 -1.6971  1.5430
27181SOL     OW93267  12.207  12.613   4.997 -0.4517 -0.1805  0.3556
27181SOL    HW193268  12.265  12.540   4.975 -0.7295 -0.1935 -0.3598
27181SOL    HW293269  12.154  12.626   4.918 -2.0253 -0.7419  1.2832
27182SOL     OW93270   0.599   1.221   1.664  0.1897 -0.5789  0.1194
27182SOL    HW193271   0.561   1.252   1.581  2.3890 -1.2490 -1.2249
27182SOL    HW293272   0.572   1.286   1.728  2.1436  2.6417 -1.9942
27183SOL     OW93273   0.941   8.012   7.028  0.1670 -0.8998  0.2214
27183SOL    HW193274   0.919   8.092   7.076 -0.6451 -1.0311  0.0816
27183SOL    HW293275   0.939   8.038   6.936 -0.8311 -1.2327  0.1308
27184SOL     OW93276   3.898  10.593   6.527 -0.0578  0.1831  0.1564
27184SOL    HW193277   3.847  10.599   6.447 -1.7655 -2.3150  0.9519
27184SOL    HW293278   3.989  10.594   6.497 -0.6384 -1.5891 -1.9811
27185SOL     OW93279  12.332   1.797  12.888  1.0150  0.2208  0.3774
27185SOL    HW193280  12.375   1.862  12.833  0.2726  0.6938  0.3452
27185SOL    HW293281  12.266   1.846  12.937 -1.3978 -0.8673 -1.5461
27186SOL     OW93282   2.181   6.034   5.083  0.2836 -0.1617  0.2845
27186SOL    HW193283   2.235   6.012   5.007  1.5885 -1.0165  1.4127
27186SOL    HW293284   2.091   6.034   5.049  0.5786 -2.9481 -0.7872
27187SOL     OW93285   1.466   7.786   6.257  0.3543 -0.2569 -0.6902
27187SOL    HW193286   1.439   7.719   6.320  4.3233 -1.2328  0.2395
27187SOL    HW293287   1.460   7.742   6.172 -1.3970 -0.1907 -0.6432
27188SOL     OW93288   8.010   5.236   0.255 -0.1443  0.5260 -0.0493
27188SOL    HW193289   8.008   5.145   0.284 -0.2070  0.6450  0.3199
27188SOL    HW293290   8.053   5.283   0.326  0.1566  0.7368 -0.3732
27189SOL     OW93291   5.289   0.659   3.236 -0.2699  0.5528  0.2453
27189SOL    HW193292   5.344   0.666   3.314 -0.8245  0.6522  0.6347
27189SOL    HW293293   5.226   0.590   3.258  0.2632 -0.2064 -0.5435
27190SOL     OW93294   7.586   4.184  12.259 -1.0435  0.4280  0.3180
27190SOL    HW193295   7.553   4.244  12.192 -3.0703 -0.0789  0.8024
27190SOL    HW293296   7.594   4.100  12.215 -0.6861  0.4723  0.2924
27191SOL     OW93297   5.492   7.857   3.105 -0.3152 -0.2552  0.2838
27191SOL    HW193298   5.555   7.795   3.069  0.6606 -0.4583  2.1816
27191SOL    HW293299   5.478   7.827   3.195 -0.3778  1.8457  1.0309
27192SOL     OW93300  10.612   4.538   7.145  0.1926  0.5375  0.5368
27192SOL    HW193301  10.627   4.444   7.148 -0.2748  0.4345 -0.1667
27192SOL    HW293302  10.547   4.554   7.213  0.5927  0.4189  0.9511
27193SOL     OW93303   8.898   2.835  12.670  0.0663  0.1663 -0.3461
27193SOL    HW193304   8.910   2.741  12.681 -0.1180  0.1253 -0.4850
27193SOL    HW293305   8.958   2.859  12.600  1.1860  0.4149  0.6620
27194SOL     OW93306  11.810  13.743  11.154 -0.1881  0.5620  0.2986
27194SOL    HW193307  11.745  13.806  11.185  0.0602  0.7622  0.4121
27194SOL    HW293308  11.894  13.778  11.184  0.1068  0.9946 -0.9757
27195SOL     OW93309  10.950  11.353   4.054 -0.3548  0.1730  0.4917
27195SOL    HW193310  10.996  11.271   4.068 -1.3262 -0.5708 -0.4872
27195SOL    HW293311  10.869  11.344   4.106 -0.3522  0.6193  0.5796
27196SOL     OW93312   6.079   1.833  12.552 -0.0889  0.0631  0.7816
27196SOL    HW193313   6.025   1.850  12.475 -1.0624 -0.6244  1.3015
27196SOL    HW293314   6.017   1.805  12.620  0.9817 -1.5467  1.1539
27197SOL     OW93315   5.678   1.690   0.020 -0.2753 -0.1547  0.1275
27197SOL    HW193316   5.745   1.727   0.077 -0.8190  2.1313 -0.6152
27197SOL    HW293317   5.724   1.664  -0.059 -0.1202  0.6542 -0.0561
27198SOL     OW93318   2.279  11.723   6.433 -0.3211  0.4230  0.0596
27198SOL    HW193319   2.337  11.659   6.474 -1.1953  0.7345  1.8388
27198SOL    HW293320   2.203  11.672   6.407 -0.8162  0.6376  1.0562
27199SOL     OW93321  10.782   4.428  13.192  0.3841 -0.0247 -0.2153
27199SOL    HW193322  10.772   4.334  13.179 -0.6087 -0.1176  1.0965
27199SOL    HW293323  10.759   4.443  13.283  0.4711  1.5103 -0.4145
27200SOL     OW93324  11.446   0.878   3.322 -0.0924 -0.2145 -0.0326
27200SOL    HW193325  11.353   0.872   3.300  0.1276  0.6807 -1.3757
27200SOL    HW293326  11.490   0.884   3.237  1.1956 -0.5645  0.5789
27201SOL     OW93327   4.855   4.368   2.955 -0.2020 -0.1964  0.0400
27201SOL    HW193328   4.936   4.343   2.999  0.2055  0.7801 -0.1211
27201SOL    HW293329   4.854   4.316   2.874 -0.3144 -1.0497  0.5850
27202SOL     OW93330   3.845  12.319   7.448  0.1185 -0.1304  0.1720
27202SOL    HW193331   3.773  12.360   7.401 -1.0047 -0.5346  1.4877
27202SOL    HW293332   3.884  12.389   7.500 -1.0662 -0.4453  1.5314
27203SOL     OW93333   5.741   1.273   5.695  0.5660  0.0675 -0.3161
27203SOL    HW193334   5.781   1.240   5.776 -0.2456  0.2452  0.1731
27203SOL    HW293335   5.803   1.339   5.663 -0.2596  1.9085  1.5922
27204SOL     OW93336   0.097   5.255   4.342 -0.4258  0.2374  0.0125
27204SOL    HW193337   0.135   5.168   4.355  0.1416  0.5719  0.6053
27204SOL    HW293338   0.120   5.277   4.252  0.8732  0.4682  0.3854
27205SOL     OW93339  13.604   5.196   8.495 -0.5755 -0.0354  0.0113
27205SOL    HW193340  13.571   5.223   8.409  0.3309  0.0017 -0.3414
27205SOL    HW293341  13.567   5.108   8.508 -1.7200  0.4554  0.1571
27206SOL     OW93342  12.349   7.590   0.956 -0.3259  0.1271  0.4801
27206SOL    HW193343  12.373   7.538   0.879 -0.0959 -0.8305  1.1724
27206SOL    HW293344  12.371   7.534   1.031 -0.3545  1.1128  1.2556
27207SOL     OW93345   8.533  12.113   2.248  0.8229 -0.1530 -0.2702
27207SOL    HW193346   8.622  12.113   2.214  0.4800  0.8339 -1.2764
27207SOL    HW293347   8.504  12.204   2.236 -0.5844 -0.6355 -0.7526
27208SOL     OW93348  10.094   1.848   4.526  0.6368  0.0214  0.1645
27208SOL    HW193349  10.142   1.930   4.517  0.4675  0.1648  0.5428
27208SOL    HW293350  10.123   1.813   4.610 -1.0841  0.8932  1.1693
27209SOL     OW93351  11.129   2.301   1.869  0.0754 -0.8123 -0.1896
27209SOL    HW193352  11.103   2.215   1.902  0.3657 -0.8410 -0.0339
27209SOL    HW293353  11.141   2.354   1.948  0.9637 -0.9361 -0.2374
27210SOL     OW93354  13.228   4.620   0.324 -0.4470 -0.9161 -0.0401
27210SOL    HW193355  13.266   4.545   0.279  0.6386 -0.5088  0.1653
27210SOL    HW293356  13.203   4.680   0.254  0.1992 -0.7735 -0.1599
27211SOL     OW93357   5.146  12.147  12.042  0.6840 -0.3269 -0.6632
27211SOL    HW193358   5.118  12.109  11.959  2.6563  2.2268 -2.6627
27211SOL    HW293359   5.165  12.238  12.021  2.2625  0.1522  2.3880
27212SOL     OW93360   0.446  10.126  13.117  0.2321  0.2575  0.0219
27212SOL    HW193361   0.535  10.158  13.129  0.8044 -1.1430 -0.3336
27212SOL    HW293362   0.438  10.111  13.023 -0.2579  0.0148  0.1012
27213SOL     OW93363   3.460   8.049   1.317  0.6817 -0.3095  0.4948
27213SOL    HW193364   3.377   8.002   1.324  1.2705 -1.5399 -0.2730
27213SOL    HW293365   3.443   8.136   1.353 -1.0769 -0.3528 -0.1513
27214SOL     OW93366   9.125   0.114   1.744  0.0497  0.5876  0.1395
27214SOL    HW193367   9.169   0.031   1.758  1.1448  0.9931 -0.7356
27214SOL    HW293368   9.039   0.091   1.708  1.0900 -0.1464 -2.0137
27215SOL     OW93369  12.829  11.901   7.403 -0.1969  0.0657 -0.2628
27215SOL    HW193370  12.762  11.833   7.392 -1.1292  0.9539 -0.2222
27215SOL    HW293371  12.815  11.959   7.328 -0.7093  1.2727  0.7413
27216SOL     OW93372   8.149   8.830   1.415  0.0355  0.3848 -0.1521
27216SOL    HW193373   8.202   8.886   1.358  1.4817  0.1840  0.9344
27216SOL    HW293374   8.140   8.880   1.496 -1.8841  0.6092 -0.4575
27217SOL     OW93375  11.317   9.941   2.295 -0.4779  0.2318 -0.2171
27217SOL    HW193376  11.344   9.850   2.283  1.6023  0.9544 -1.5130
27217SOL    HW293377  11.272   9.964   2.214  1.8015  1.2401 -1.2499
27218SOL     OW93378   6.894  12.661   7.885  0.4664  0.1769  0.5853
27218SOL    HW193379   6.816  12.607   7.902  1.2275 -0.5205  2.0556
27218SOL    HW293380   6.870  12.748   7.918 -0.5916  0.6699 -1.3529
27219SOL     OW93381   1.378   2.098   7.830  0.0783  0.4852 -0.2602
27219SOL    HW193382   1.370   2.191   7.849  0.7472  0.5576 -0.2870
27219SOL    HW293383   1.447   2.067   7.889 -0.6636 -0.1614  0.2883
27220SOL     OW93384  12.766   9.256   0.516 -0.2902  0.0034 -0.0837
27220SOL    HW193385  12.787   9.348   0.500  0.0102 -0.0784 -0.1717
27220SOL    HW293386  12.849   9.210   0.500  0.1151 -0.0636  1.9388
27221SOL     OW93387   0.485  12.049   1.957 -0.2946  0.2933 -0.4961
27221SOL    HW193388   0.540  11.992   2.010  0.0259  0.5569 -0.5367
27221SOL    HW293389   0.415  12.077   2.016 -1.0067 -0.8986 -0.7488
27222SOL     OW93390   7.730  12.625   1.909 -0.2103  0.2833  0.3787
27222SOL    HW193391   7.712  12.620   2.003  4.2696 -1.3766  1.4019
27222SOL    HW293392   7.793  12.697   1.901  0.3601 -0.3525 -1.1701
27223SOL     OW93393  13.061   5.706   8.820 -0.3399 -0.4375  0.1384
27223SOL    HW193394  13.037   5.640   8.885  1.3813 -1.3787 -0.1406
27223SOL    HW293395  13.017   5.678   8.740 -1.5454  0.1064  0.5787
27224SOL     OW93396  13.326  11.535   8.495 -0.2695  0.3255  0.5535
27224SOL    HW193397  13.343  11.461   8.553 -1.9091  0.0203  0.6757
27224SOL    HW293398  13.402  11.537   8.437 -0.3536 -1.7030  0.2929
27225SOL     OW93399   2.844  10.216   7.484  0.7651  0.5456 -0.4634
27225SOL    HW193400   2.818  10.130   7.517 -0.8968  1.7048  1.5384
27225SOL    HW293401   2.940  10.214   7.483  0.8189 -0.6911  1.4590
27226SOL     OW93402   9.318  10.858   6.916 -0.1292  0.3378  0.4215
27226SOL    HW193403   9.243  10.908   6.950 -1.2422 -0.8028 -0.2632
27226SOL    HW293404   9.299  10.767   6.940  1.2594  0.0806  0.5903
27227SOL     OW93405   3.221   7.672   8.246  0.3538  0.3250  0.1333
27227SOL    HW193406   3.270   7.705   8.170 -0.6283  0.4994 -0.4357
27227SOL    HW293407   3.263   7.588   8.267  0.8165  0.4110 -0.4242
27228SOL     OW93408   9.948  13.353   0.405  0.1812  0.0933  0.4192
27228SOL    HW193409   9.970  13.424   0.465  0.9313  0.5241 -0.3411
27228SOL    HW293410   9.857  13.368   0.383  0.3747  0.9204  0.1444
27229SOL     OW93411   7.270   9.355   4.200 -0.1226  0.4592 -0.1415
27229SOL    HW193412   7.280   9.386   4.290  0.5959 -0.1925  0.0166
27229SOL    HW293413   7.205   9.285   4.207 -0.2259  0.5521 -0.1650
27230SOL     OW93414  13.006  10.939   5.221 -0.5124  0.2641  0.4742
27230SOL    HW193415  13.081  10.999   5.224 -0.4653  0.1850  1.0765
27230SOL    HW293416  12.998  10.908   5.311  0.0061 -1.3172 -0.0068
27231SOL     OW93417  10.943   5.683   0.550  0.2219 -0.7874 -0.0403
27231SOL    HW193418  10.949   5.588   0.555  3.3841 -0.6819  0.1271
27231SOL    HW293419  10.948   5.703   0.456  0.6157 -0.7726 -0.0189
27232SOL     OW93420   2.766   4.438  10.202  0.1530 -0.4331  0.7320
27232SOL    HW193421   2.676   4.450  10.233 -0.5565 -0.2746 -1.2179
27232SOL    HW293422   2.757   4.382  10.125  1.7275 -0.3948  0.4877
27233SOL     OW93423   9.185   7.497   8.479 -0.1497 -0.2614  0.9761
27233SOL    HW193424   9.143   7.422   8.437  0.6455  0.3846 -1.0533
27233SOL    HW293425   9.113   7.559   8.493 -0.3278 -0.2346 -0.0139
27234SOL     OW93426   3.161   6.328   2.831  0.1455  0.6650 -0.0764
27234SOL    HW193427   3.136   6.267   2.900  0.8282 -0.0378 -0.4301
27234SOL    HW293428   3.083   6.381   2.816 -0.7816 -0.7265 -0.3921
27235SOL     OW93429  10.848   4.778   3.524  0.1342  0.3094  0.5713
27235SOL    HW193430  10.849   4.845   3.592  0.0420  1.1083 -0.1986
27235SOL    HW293431  10.758   4.745   3.524 -0.2371  1.2757 -0.0733
27236SOL     OW93432   7.510   3.835   9.367 -0.7010 -0.1460  0.0122
27236SOL    HW193433   7.486   3.901   9.432 -2.3334 -1.3632  0.7101
27236SOL    HW293434   7.447   3.764   9.380  0.3964 -1.4409 -1.3495
27237SOL     OW93435  10.551   4.191  11.937 -0.2014 -0.2995 -0.1059
27237SOL    HW193436  10.609   4.197  11.861 -0.4950 -1.6159 -0.4703
27237SOL    HW293437  10.546   4.097  11.955 -1.9096 -0.1996  0.1389
27238SOL     OW93438   6.921   3.473  11.196 -0.2600 -0.4430  0.3775
27238SOL    HW193439   6.940   3.541  11.262  0.1110  0.8592 -1.0189
27238SOL    HW293440   6.988   3.486  11.129  0.4021 -2.8239  0.4912
27239SOL     OW93441   3.017   3.460   8.360  0.4690  0.0563  0.2613
27239SOL    HW193442   3.015   3.552   8.385 -0.1359 -0.3246  1.7002
27239SOL    HW293443   3.093   3.424   8.405 -0.9883 -0.7785  2.1922
27240SOL     OW93444  13.618   1.202   0.400 -0.7894  0.6474  0.1960
27240SOL    HW193445  13.655   1.151   0.328  0.3368 -0.0811  1.2398
27240SOL    HW293446  13.524   1.185   0.396 -0.4743 -1.3439  0.3560
27241SOL     OW93447   4.001   0.282   9.772  0.5610 -0.0678  0.0439
27241SOL    HW193448   3.974   0.314   9.686 -0.8405  0.0205  0.4839
27241SOL    HW293449   4.019   0.189   9.759  0.4441 -0.0360 -0.3581
27242SOL     OW93450   6.799   7.125   8.842 -0.1644  0.2906  0.1276
27242SOL    HW193451   6.786   7.031   8.859 -0.3990  0.3818  0.4610
27242SOL    HW293452   6.713   7.156   8.815  0.1900  0.1577 -1.2114
27243SOL     OW93453   3.895   9.900   0.397  0.2505 -0.1633 -0.3858
27243SOL    HW193454   3.825   9.878   0.335 -0.3704  2.0626 -0.5520
27243SOL    HW293455   3.864   9.867   0.481  0.0626 -1.1774 -0.8322
27244SOL     OW93456   4.065   2.041   8.229  0.4312  0.1494 -0.3390
27244SOL    HW193457   4.057   2.120   8.282 -0.8222 -0.8444  1.0165
27244SOL    HW293458   3.981   2.035   8.183 -1.0652 -2.2718  2.3764
27245SOL     OW93459   2.560   5.656   0.858 -0.2040  0.1072 -0.1374
27245SOL    HW193460   2.622   5.711   0.811 -1.5445  0.2690 -1.7995
27245SOL    HW293461   2.581   5.567   0.830  0.7742 -0.0876  1.1354
27246SOL     OW93462   3.167  10.600   6.248 -0.1098 -0.3322  0.1897
27246SOL    HW193463   3.208  10.520   6.216 -0.0845 -0.3995  0.3946
27246SOL    HW293464   3.073  10.583   6.240 -0.1044 -0.3879  0.2494
27247SOL     OW93465   7.982   2.191   9.718  0.1430 -0.4048  0.5973
27247SOL    HW193466   7.966   2.275   9.676  0.8990 -1.2864 -1.6373
27247SOL    HW293467   7.901   2.171   9.765 -0.9596  0.4816 -0.8320
27248SOL     OW93468  12.186   1.862   1.288 -0.9560 -0.5802 -0.1432
27248SOL    HW193469  12.189   1.845   1.382  0.0521  0.5268  0.0414
27248SOL    HW293470  12.148   1.782   1.250 -1.1100 -1.1428  1.1649
27249SOL     OW93471   4.956  10.157   2.951 -0.3784  0.5043  1.0848
27249SOL    HW193472   5.008  10.170   3.030 -0.6848 -1.0473  1.5799
27249SOL    HW293473   4.994  10.217   2.887  2.4785 -0.9726  1.2126
27250SOL     OW93474   8.677  11.296   0.882 -0.4307  0.2379 -0.4117
27250SOL    HW193475   8.716  11.227   0.936  0.3968 -0.3680 -1.7295
27250SOL    HW293476   8.750  11.352   0.856 -1.0939  1.6699  0.6507
27251SOL     OW93477  12.171   0.230   7.105  0.3970 -0.0240 -0.0875
27251SOL    HW193478  12.181   0.310   7.156  2.9410  0.6087 -1.3845
27251SOL    HW293479  12.238   0.237   7.037 -1.9545 -1.4401 -2.7203
27252SOL     OW93480  10.093   9.703   1.350 -0.7530  0.4231  0.0213
27252SOL    HW193481  10.086   9.616   1.390  1.4780 -0.1685 -0.7600
27252SOL    HW293482  10.080   9.687   1.257 -1.1222  1.0722 -0.0444
27253SOL     OW93483   3.063   5.440  13.309 -0.0281  0.5014  0.3532
27253SOL    HW193484   3.095   5.374  13.370  0.7298  1.5858  1.1567
27253SOL    HW293485   3.110   5.421  13.227  0.8156  0.5475  0.8149
27254SOL     OW93486   4.220   5.185   7.147  0.5844  0.1759 -0.0397
27254SOL    HW193487   4.277   5.246   7.099 -1.0293  2.1544  0.4681
27254SOL    HW293488   4.183   5.237   7.218 -0.7188 -1.4687  0.5360
27255SOL     OW93489   3.268   2.875   7.585  0.0680 -0.2301  0.0678
27255SOL    HW193490   3.241   2.888   7.676 -1.3896 -0.7647 -0.2573
27255SOL    HW293491   3.339   2.938   7.571  0.9069 -0.7418  1.8125
27256SOL     OW93492   7.071   8.983   7.418  0.9066  0.1655 -0.0614
27256SOL    HW193493   7.052   9.047   7.487  0.2177  0.9833 -0.9919
27256SOL    HW293494   7.037   8.900   7.453 -1.3789  0.9574 -0.2659
27257SOL     OW93495   8.350   9.946   2.370  0.3699 -0.1432  0.5724
27257SOL    HW193496   8.319   9.978   2.454 -0.9442  0.0616  0.0365
27257SOL    HW293497   8.391   9.862   2.390 -1.6096 -1.0316  1.2039
27258SOL     OW93498   1.871   1.049  13.476  0.2674 -0.3089  0.3226
27258SOL    HW193499   1.857   1.132  13.430 -3.8796  0.0626  1.8358
27258SOL    HW293500   1.915   0.993  13.412 -2.2006  1.1768 -2.9806
27259SOL     OW93501   2.320   7.550  12.893 -0.6452  0.1643  0.4077
27259SOL    HW193502   2.260   7.494  12.943 -1.5125  0.5517 -0.1635
27259SOL    HW293503   2.359   7.608  12.958 -1.1207  0.0958  0.7625
27260SOL     OW93504  13.005   2.796   0.606  0.2729  0.1207  0.0954
27260SOL    HW193505  12.974   2.881   0.637 -0.1161 -0.8920  2.7338
27260SOL    HW293506  13.101   2.806   0.602  0.2040  0.8008 -0.0742
27261SOL     OW93507   2.574   0.516   0.583 -0.2671 -0.9357  0.8310
27261SOL    HW193508   2.535   0.543   0.666  0.2527 -0.5269  0.9482
27261SOL    HW293509   2.667   0.537   0.592  0.4133 -3.7037  1.3306
27262SOL     OW93510   8.231   9.678  11.624  0.1531  0.0106 -0.2940
27262SOL    HW193511   8.310   9.709  11.666  0.0776 -0.6938  0.3873
27262SOL    HW293512   8.257   9.596  11.581 -0.5478 -1.1215  1.3230
27263SOL     OW93513   6.577   5.801   1.775 -0.7287  0.2225 -0.0498
27263SOL    HW193514   6.672   5.802   1.776 -0.6763  0.0028 -1.8198
27263SOL    HW293515   6.552   5.879   1.825  0.3517  0.1096  0.7067
27264SOL     OW93516  11.492   2.388  12.860 -0.0699 -0.6581 -0.0638
27264SOL    HW193517  11.474   2.308  12.810  1.6045 -2.9738  2.7646
27264SOL    HW293518  11.407   2.431  12.866 -1.4968 -3.2304 -0.1033
27265SOL     OW93519   3.004  11.252   7.377  0.0692 -0.3552  0.3030
27265SOL    HW193520   3.075  11.252   7.313 -0.1266  1.2621  0.0432
27265SOL    HW293521   3.026  11.324   7.437 -0.9015 -0.3986  0.7262
27266SOL     OW93522   1.024   1.659  10.065  0.1609 -0.2566  0.6031
27266SOL    HW193523   1.009   1.751  10.045 -0.0046 -0.0873  1.4610
27266SOL    HW293524   0.940   1.628  10.100  0.6142 -0.3483  1.6627
27267SOL     OW93525   4.667  10.717  10.672 -0.0413  0.1521 -0.3344
27267SOL    HW193526   4.753  10.680  10.651 -0.0856  0.5386 -1.2371
27267SOL    HW293527   4.658  10.790  10.612 -0.3425  1.0845  0.8194
27268SOL     OW93528   1.818   7.183   3.908 -0.1471  0.1740 -0.2245
27268SOL    HW193529   1.874   7.257   3.931  2.2271 -1.7241  0.5014
27268SOL    HW293530   1.749   7.183   3.974  0.0963  1.4323  0.0463
27269SOL     OW93531  12.031   2.983   3.399 -0.3634  0.2527  0.0102
27269SOL    HW193532  12.073   2.901   3.427 -2.7892 -0.8087  0.7941
27269SOL    HW293533  11.958   2.955   3.344 -1.5897  1.8436  0.7541
27270SOL     OW93534   6.046   3.302  13.384  0.1553  0.1661 -0.2142
27270SOL    HW193535   6.019   3.361  13.454 -1.0019 -0.3433 -0.2048
27270SOL    HW293536   5.971   3.243  13.372  0.4187  0.1041 -1.7289
27271SOL     OW93537  13.206  12.468   3.900  0.5493  0.5606 -0.7251
27271SOL    HW193538  13.225  12.390   3.952  0.0876  1.0234  0.1744
27271SOL    HW293539  13.111  12.468   3.891  0.3096  2.0916  1.1037
27272SOL     OW93540   6.813   3.575   6.855 -0.6202 -0.0315 -0.2302
27272SOL    HW193541   6.859   3.532   6.783 -0.1503  2.3155 -1.4249
27272SOL    HW293542   6.852   3.538   6.934  2.3328  0.7340 -1.2025
27273SOL     OW93543   3.453  13.551   0.265  0.0116  0.5173 -0.0111
27273SOL    HW193544   3.467  13.586   0.177  0.9992  2.6169  0.9344
27273SOL    HW293545   3.358  13.556   0.278 -0.0520  0.9994 -0.6405
27274SOL     OW93546   4.619  11.829   3.174 -0.2944  0.2168  0.0886
27274SOL    HW193547   4.665  11.757   3.217 -0.3281  0.5555  0.6986
27274SOL    HW293548   4.542  11.844   3.228  0.4240  1.6208  0.7677
27275SOL     OW93549   6.902   4.431   2.590 -0.6027 -0.4466 -0.1993
27275SOL    HW193550   6.916   4.359   2.529  0.5757 -0.9670  0.6326
27275SOL    HW293551   6.874   4.388   2.671  1.2516 -0.1308  0.6692
27276SOL     OW93552   0.347   5.254   0.775 -0.0864  0.2552  0.2829
27276SOL    HW193553   0.286   5.181   0.787 -1.0449  1.1880  1.3029
27276SOL    HW293554   0.409   5.245   0.847  0.4084 -0.1198 -0.1803
27277SOL     OW93555   3.295   4.618   6.585 -0.0215 -0.1660  0.0468
27277SOL    HW193556   3.340   4.677   6.524 -0.8022 -1.0372 -1.4278
27277SOL    HW293557   3.257   4.676   6.651  0.5079  0.8482 -0.5191
27278SOL     OW93558   8.551   5.689  12.500  0.7869  0.1311 -0.1011
27278SOL    HW193559   8.571   5.605  12.458  0.7297 -0.3783  0.8603
27278SOL    HW293560   8.567   5.755  12.432  0.3161 -0.6954 -1.0356
27279SOL     OW93561   0.065   3.966  12.367  0.1669 -0.0900  0.8883
27279SOL    HW193562   0.155   3.983  12.395 -0.3740  1.8838  1.6457
27279SOL    HW293563   0.014   3.966  12.448 -0.7122  0.5030  0.3581
27280SOL     OW93564   3.292   8.036   3.101  0.3150 -0.3504 -0.0670
27280SOL    HW193565   3.208   8.065   3.066  0.2514  0.5533  0.7793
27280SOL    HW293566   3.271   8.000   3.187  0.6567 -1.1112 -0.3000
27281SOL     OW93567  13.730  10.245  12.128  0.2550 -0.4448  0.4234
27281SOL    HW193568  13.683  10.323  12.099  0.8422  1.0233  3.1599
27281SOL    HW293569  13.822  10.264  12.108  0.6118  0.3955  2.6400
27282SOL     OW93570   1.364  11.284   3.367 -0.2747 -0.3755 -0.0386
27282SOL    HW193571   1.316  11.254   3.289  1.8449 -1.7683 -0.8933
27282SOL    HW293572   1.410  11.362   3.337  0.8156 -1.1093 -0.3097
27283SOL     OW93573   2.084   8.866   1.138 -0.0136  0.6306  0.4305
27283SOL    HW193574   2.138   8.898   1.066 -0.2018  0.2531  0.1146
27283SOL    HW293575   2.119   8.909   1.216  0.7767  0.3483  0.2373
27284SOL     OW93576   8.417   0.362   0.806 -0.4498 -0.1938 -0.5207
27284SOL    HW193577   8.505   0.328   0.786 -0.3933 -0.9806  0.9693
27284SOL    HW293578   8.434   0.444   0.852 -0.5095 -0.2420 -0.4153
27285SOL     OW93579  11.978   3.277  12.166  0.0824 -0.7156  0.3868
27285SOL    HW193580  11.951   3.187  12.182 -0.5540 -0.5131  0.4863
27285SOL    HW293581  12.044   3.294  12.233 -0.8051 -0.6630  1.2849
27286SOL     OW93582   7.970   6.992  11.394 -0.4004  0.8523 -0.6023
27286SOL    HW193583   7.928   7.000  11.308  0.2403 -1.2408 -1.1698
27286SOL    HW293584   8.054   6.952  11.376 -0.3736  0.1075  1.0349
27287SOL     OW93585   5.620  11.984   3.449 -0.4047 -0.0595 -0.8366
27287SOL    HW193586   5.571  12.043   3.392 -1.0506 -1.8030 -2.1630
27287SOL    HW293587   5.583  11.998   3.536 -1.4819  0.5152 -1.3670
27288SOL     OW93588  12.849  12.145  11.346 -0.1189  0.1624 -0.1530
27288SOL    HW193589  12.837  12.062  11.391 -0.2212  0.6108  0.6806
27288SOL    HW293590  12.807  12.209  11.404  2.4618  1.1914  0.7157
27289SOL     OW93591   7.100  10.485   3.476 -0.0391 -0.6819  0.2586
27289SOL    HW193592   7.141  10.571   3.476  0.8051 -1.0778 -0.1960
27289SOL    HW293593   7.014  10.499   3.436  0.8876 -0.4086 -1.7527
27290SOL     OW93594  11.247   2.178   9.481  0.1283 -0.5745  0.0340
27290SOL    HW193595  11.176   2.114   9.481  0.7843 -1.3194 -0.3945
27290SOL    HW293596  11.307   2.148   9.413  1.1597 -0.3062  0.7975
27291SOL     OW93597   7.389   7.637   3.861  0.2345  0.3537  0.3308
27291SOL    HW193598   7.338   7.592   3.794  0.0866 -0.3334  0.8841
27291SOL    HW293599   7.416   7.719   3.820  1.2101 -0.5948 -1.0103
27292SOL     OW93600  10.294  11.626  13.027  0.1179 -0.3083 -0.2424
27292SOL    HW193601  10.200  11.631  13.009 -0.0887  0.4755  0.9675
27292SOL    HW293602  10.336  11.639  12.942 -0.8552  0.2454 -0.6445
27293SOL     OW93603   2.977   2.123   2.391 -0.2818  0.1940  0.1606
27293SOL    HW193604   3.021   2.207   2.394  0.4113 -0.1853  2.6826
27293SOL    HW293605   3.048   2.060   2.376 -0.3429 -0.1718  1.3384
27294SOL     OW93606   6.532   2.829   7.531  0.8474 -0.2698 -0.5160
27294SOL    HW193607   6.570   2.917   7.536 -0.4512  0.2476  1.1850
27294SOL    HW293608   6.480   2.831   7.451  0.7473  0.5590 -0.4428
27295SOL     OW93609   4.488   4.511  13.628 -0.4241 -0.2907  0.1166
27295SOL    HW193610   4.411   4.561  13.601 -0.1594  0.2414  0.3238
27295SOL    HW293611   4.547   4.515  13.552 -0.6171 -0.7410 -0.0610
27296SOL     OW93612  11.107  11.792   1.121  0.4257  0.3582  0.3131
27296SOL    HW193613  11.113  11.718   1.181  0.4936  0.5610  0.5578
27296SOL    HW293614  11.023  11.833   1.142 -0.1072 -0.2549 -0.5284
27297SOL     OW93615   6.365  12.178   2.431  0.2490 -0.2749  0.5032
27297SOL    HW193616   6.384  12.250   2.371  0.1257  0.4439  1.2905
27297SOL    HW293617   6.383  12.099   2.381 -2.6383  0.1640 -1.4879
27298SOL     OW93618   4.036   2.048  13.319  0.1338 -0.1563  0.2345
27298SOL    HW193619   4.093   2.124  13.330  0.7116 -0.5752  0.2328
27298SOL    HW293620   4.094   1.973  13.336 -0.7639 -0.5482  1.7372
27299SOL     OW93621   9.895   6.762   0.608  0.0343 -0.4165 -0.0952
27299SOL    HW193622   9.983   6.789   0.633 -0.2846  0.6088 -0.0476
27299SOL    HW293623   9.884   6.797   0.520 -0.8557  0.7620  0.4566
27300SOL     OW93624  12.690   5.418   4.093  0.5817  0.2149  0.1653
27300SOL    HW193625  12.609   5.469   4.099  1.0009  0.9659 -0.4324
27300SOL    HW293626  12.724   5.438   4.006  1.4766  0.0052  0.4648
27301SOL     OW93627  12.228   2.832   3.570 -0.0069  0.0293  0.7452
27301SOL    HW193628  12.169   2.778   3.518  0.1567  0.0034  0.5845
27301SOL    HW293629  12.315   2.800   3.548  0.0543 -0.1273  1.2042
27302SOL     OW93630   1.791   6.105   5.217 -0.3146 -0.5260  0.3274
27302SOL    HW193631   1.713   6.074   5.264 -0.2543 -0.7039  0.3116
27302SOL    HW293632   1.756   6.148   5.139 -0.3664 -1.5714 -0.2513
27303SOL     OW93633  10.106   6.923   6.980  0.1905  0.1066 -0.3335
27303SOL    HW193634  10.137   6.852   6.923 -0.8494 -1.6555  1.1888
27303SOL    HW293635  10.017   6.940   6.951 -0.2690 -0.6496  0.5808
27304SOL     OW93636   4.039  11.805   0.272 -0.4355 -0.3077  0.1351
27304SOL    HW193637   4.060  11.802   0.366 -0.4865 -2.1453  0.1154
27304SOL    HW293638   4.067  11.720   0.238  1.9947  1.2157 -2.0888
27305SOL     OW93639   9.126   2.649  10.308 -0.5229 -0.2146 -0.3627
27305SOL    HW193640   9.081   2.644  10.392 -1.6721  1.8622 -0.7990
27305SOL    HW293641   9.065   2.610  10.245 -0.1671 -0.6910 -0.4157
27306SOL     OW93642   7.814   4.136   6.632 -0.1722 -0.3360  0.2761
27306SOL    HW193643   7.867   4.185   6.569 -0.1369 -0.4046  0.2525
27306SOL    HW293644   7.743   4.099   6.579 -0.6263  0.3196  0.4249
27307SOL     OW93645   4.847   8.275  10.977 -0.0073 -0.5916  0.4575
27307SOL    HW193646   4.810   8.341  11.036  0.1980 -0.3159  0.2754
27307SOL    HW293647   4.901   8.220  11.034 -1.2880 -1.4785  0.8850
27308SOL     OW93648  11.973  13.682   8.222  0.4814  0.4133 -0.5591
27308SOL    HW193649  11.901  13.619   8.231 -0.0369  0.9979 -0.5898
27308SOL    HW293650  12.039  13.651   8.284 -1.2895  1.9418  2.2822
27309SOL     OW93651   5.876   8.075   4.207 -0.4697 -0.4137  0.3651
27309SOL    HW193652   5.964   8.093   4.240  0.6279 -4.3095  0.1821
27309SOL    HW293653   5.817   8.102   4.277  1.0999 -0.2073  1.6545
27310SOL     OW93654   7.206   8.441   5.391  0.5814  0.0894 -0.2497
27310SOL    HW193655   7.189   8.355   5.429 -0.1969  0.5187  0.4074
27310SOL    HW293656   7.147   8.500   5.438 -0.4645  0.6498 -2.1582
27311SOL     OW93657   9.505   0.917  10.102  0.0492  0.7356  0.0926
27311SOL    HW193658   9.531   0.828  10.079 -1.5874 -0.0109  0.9234
27311SOL    HW293659   9.507   0.919  10.198  0.9543  1.9081  0.0813
27312SOL     OW93660   4.316   6.067  12.688  0.5529 -0.1228 -0.1743
27312SOL    HW193661   4.237   6.015  12.702 -0.4061  0.7828 -1.8677
27312SOL    HW293662   4.388   6.005  12.702 -0.3472 -0.7194  2.4497
27313SOL     OW93663  11.017   5.808   2.865  0.0534  0.0836  0.5489
27313SOL    HW193664  10.954   5.824   2.935 -0.5940  0.0457 -0.0158
27313SOL    HW293665  11.018   5.889   2.814 -1.0997 -0.6177 -0.6452
27314SOL     OW93666  10.874   1.862  13.598  0.7047 -0.0956 -0.0931
27314SOL    HW193667  10.866   1.773  13.564  1.8153 -0.8452  1.4561
27314SOL    HW293668  10.785   1.897  13.596  0.0458 -1.6822  0.3929
27315SOL     OW93669   0.974  12.351  13.471  0.0964  0.6922  0.0166
27315SOL    HW193670   0.944  12.408  13.542 -1.0165 -1.3918  1.3134
27315SOL    HW293671   1.042  12.298  13.511  1.0704  1.0245 -1.1544
27316SOL     OW93672   8.130   9.276   8.129  0.0339 -0.1410 -0.1606
27316SOL    HW193673   8.092   9.259   8.043 -2.0907 -3.0667  1.1837
27316SOL    HW293674   8.062   9.252   8.191  1.6162  1.4903  2.4135
27317SOL     OW93675  10.679   5.328   7.313 -0.8322 -0.2392  0.1538
27317SOL    HW193676  10.699   5.318   7.406 -1.7877 -0.9357  0.3089
27317SOL    HW293677  10.697   5.420   7.294  0.4396 -0.3483  0.7435
27318SOL     OW93678   5.013   9.083   6.918  0.1113  0.3846 -0.0801
27318SOL    HW193679   4.958   9.157   6.892 -0.9923 -0.3253  0.1708
27318SOL    HW293680   4.955   9.028   6.971  1.1366 -0.2807  0.3693
27319SOL     OW93681  11.171   4.816   6.593 -0.1367 -0.6159  0.9503
27319SOL    HW193682  11.195   4.752   6.526  1.5626  1.0044 -0.0835
27319SOL    HW293683  11.160   4.898   6.545 -1.3630  0.0844  2.3520
27320SOL     OW93684  13.531   2.672   8.584 -0.0304 -0.3211  0.2581
27320SOL    HW193685  13.461   2.612   8.557  0.8146 -2.0770  1.7443
27320SOL    HW293686  13.611   2.623   8.565  0.6575 -0.2149  2.6403
27321SOL     OW93687   1.313   2.373  11.115 -0.8721  0.4820  0.2181
27321SOL    HW193688   1.318   2.447  11.055 -0.3909  0.7180  0.5386
27321SOL    HW293689   1.229   2.332  11.096 -0.0011 -0.5200 -1.8565
27322SOL     OW93690   6.646   9.623   3.644 -0.3112 -0.2477  0.1633
27322SOL    HW193691   6.579   9.611   3.577 -0.4547 -0.3614  0.3265
27322SOL    HW293692   6.673   9.534   3.667 -2.2520 -0.4023  2.2652
27323SOL     OW93693   1.531   2.608   3.026 -0.3544  0.1321 -0.5907
27323SOL    HW193694   1.554   2.520   2.995  0.3094  0.1849 -0.2712
27323SOL    HW293695   1.551   2.665   2.952  2.1401  0.3783  0.1856
27324SOL     OW93696   6.040   8.601   4.879  0.0266  0.6238 -0.3374
27324SOL    HW193697   6.035   8.509   4.904  3.7993  0.3446 -0.1186
27324SOL    HW293698   6.074   8.601   4.790 -1.6902  1.8534 -1.0621
27325SOL     OW93699  10.145  12.954   1.269  0.3180  0.4502 -0.2672
27325SOL    HW193700  10.050  12.954   1.280  0.1108  2.0784 -1.5978
27325SOL    HW293701  10.174  13.031   1.318  0.9209  0.1135 -0.0905
27326SOL     OW93702  10.118   0.449   9.264  0.7955  0.2787  0.0280
27326SOL    HW193703  10.063   0.528   9.264  0.1391 -0.1634  0.7390
27326SOL    HW293704  10.171   0.457   9.185 -0.7382  0.4310 -1.0449
27327SOL     OW93705   5.855  13.124   2.845  0.9057  0.2273  0.2394
27327SOL    HW193706   5.866  13.215   2.819 -1.1968 -0.3643 -3.2790
27327SOL    HW293707   5.849  13.076   2.763  0.4700 -2.9130  1.9689
27328SOL     OW93708   9.603   2.377   2.371 -0.2823  0.5585 -0.0896
27328SOL    HW193709   9.674   2.387   2.434 -0.9283  0.2127  0.6954
27328SOL    HW293710   9.546   2.309   2.408 -1.8824  1.9335  0.0924
27329SOL     OW93711   5.705   4.599   2.610 -0.4089  0.2237  0.1965
27329SOL    HW193712   5.696   4.594   2.706 -1.1427  0.5036  0.1541
27329SOL    HW293713   5.658   4.521   2.578 -0.2462  0.1817  0.0622
27330SOL     OW93714  11.335   7.122   7.205 -0.1867 -0.3254 -0.6280
27330SOL    HW193715  11.254   7.071   7.192 -0.0838 -0.8480  0.6638
27330SOL    HW293716  11.304   7.209   7.233 -0.3192 -0.7750  0.7057
27331SOL     OW93717  10.993   4.528  12.107 -0.2805  0.2588 -0.4697
27331SOL    HW193718  10.992   4.551  12.014  0.1514  0.5628 -0.4052
27331SOL    HW293719  11.072   4.474  12.117 -2.2536 -2.9484 -0.9987
27332SOL     OW93720   3.847  12.068   5.418  0.2345  0.1534 -0.1943
27332SOL    HW193721   3.937  12.098   5.408  0.4439 -0.4450 -0.1175
27332SOL    HW293722   3.817  12.108   5.500 -0.2427  1.9896 -1.2244
27333SOL     OW93723   7.552   8.228   8.088  0.0673  0.4977  0.6083
27333SOL    HW193724   7.624   8.266   8.038  0.1125  0.2771  0.5060
27333SOL    HW293725   7.591   8.155   8.136 -0.3036 -0.2888 -0.2682
27334SOL     OW93726   4.614  12.339   7.270 -0.1627  0.4616 -0.2309
27334SOL    HW193727   4.542  12.384   7.225  1.3586  2.3245 -1.0002
27334SOL    HW293728   4.630  12.392   7.348  0.0938 -0.1846  0.1636
27335SOL     OW93729   2.080  12.076   0.628 -0.6152 -0.6708  0.9109
27335SOL    HW193730   2.170  12.058   0.602 -0.4627  0.7500  0.3463
27335SOL    HW293731   2.087  12.120   0.712 -0.8048 -0.8504  1.0230
27336SOL     OW93732   5.017  13.585  10.174 -0.0965  0.5067  0.0170
27336SOL    HW193733   4.930  13.545  10.183 -0.4339  1.3019  0.3118
27336SOL    HW293734   5.046  13.601  10.264  0.6201 -0.2866 -0.0514
27337SOL     OW93735   4.363  12.117   8.130 -0.2111 -0.0911  0.4543
27337SOL    HW193736   4.417  12.075   8.063  1.7392  1.7824  0.7277
27337SOL    HW293737   4.415  12.112   8.210  0.9747  4.0977  0.1677
27338SOL     OW93738   2.255   4.787  11.230 -0.3021 -0.1079  0.1328
27338SOL    HW193739   2.332   4.775  11.174  0.3800  0.6361  0.8728
27338SOL    HW293740   2.222   4.874  11.205  1.7179  1.6092  2.7598
27339SOL     OW93741  10.262  13.632   2.602 -0.2368  0.4356  0.3770
27339SOL    HW193742  10.321  13.557   2.609 -0.1987  0.3790 -0.5112
27339SOL    HW293743  10.174  13.594   2.601 -0.1690  0.2224 -2.0664
27340SOL     OW93744  11.645   5.368   6.626 -0.0559  0.4134  0.3967
27340SOL    HW193745  11.661   5.278   6.656 -0.5487  0.3910  0.6094
27340SOL    HW293746  11.673   5.367   6.534  0.3194  0.1537  0.5085
27341SOL     OW93747   6.146   9.076   5.174 -0.4605 -0.2743 -0.1422
27341SOL    HW193748   6.094   9.139   5.123 -1.8066 -1.7738 -0.6817
27341SOL    HW293749   6.211   9.043   5.112  2.1707  2.5273  0.8423
27342SOL     OW93750   7.975   9.364   9.336 -0.3904  0.1620 -0.1708
27342SOL    HW193751   7.902   9.341   9.279  0.4185 -0.3326 -1.0465
27342SOL    HW293752   8.043   9.300   9.315  0.3817  0.7542  0.4447
27343SOL     OW93753   9.298  10.709   9.135  0.0481  0.2241 -0.2937
27343SOL    HW193754   9.366  10.642   9.147  0.0458  0.4124  0.8569
27343SOL    HW293755   9.307  10.765   9.211 -1.2927  0.3596 -0.2247
27344SOL     OW93756  12.565   6.806   3.334 -0.2094 -0.3673 -0.3411
27344SOL    HW193757  12.586   6.866   3.406 -0.9601 -1.2193  0.6064
27344SOL    HW293758  12.635   6.820   3.271 -0.5116  1.7265 -0.2888
27345SOL     OW93759   4.070   9.140   6.948 -0.3345 -0.4126  0.4056
27345SOL    HW193760   4.122   9.194   7.008  1.3247 -0.7100 -0.6951
27345SOL    HW293761   4.131   9.072   6.918 -1.8433 -1.7731  0.3038
27346SOL     OW93762   9.025   6.432   1.461  0.2181  0.0570  0.1073
27346SOL    HW193763   8.953   6.380   1.425 -0.7883 -0.6367  2.8188
27346SOL    HW293764   9.104   6.381   1.441 -0.4442 -1.0380  0.1806
27347SOL     OW93765  12.877  12.673   1.182  0.0205  0.4295  0.0970
27347SOL    HW193766  12.933  12.666   1.104  0.5365  1.1565  0.3928
27347SOL    HW293767  12.790  12.689   1.148  0.1526  0.2204 -0.3488
27348SOL     OW93768   5.764   1.747   9.211 -0.0467 -0.1579 -0.0647
27348SOL    HW193769   5.746   1.693   9.135 -1.8617 -1.7475  1.4160
27348SOL    HW293770   5.684   1.744   9.263  1.0806  0.9800  1.8536
27349SOL     OW93771   8.401   3.196   5.680  0.7125 -0.1576  0.4788
27349SOL    HW193772   8.479   3.140   5.670  0.7670  0.1287 -0.8103
27349SOL    HW293773   8.374   3.182   5.771  1.1730 -1.7017  0.4094
27350SOL     OW93774   1.761   5.169  10.375 -0.2694  0.9477  0.7264
27350SOL    HW193775   1.762   5.077  10.347 -1.5166  1.3061 -0.6192
27350SOL    HW293776   1.852   5.197  10.369 -0.2412  0.5794 -1.7427
27351SOL     OW93777   5.902  12.129   2.747 -0.1021 -0.5062  0.1967
27351SOL    HW193778   5.968  12.072   2.788  1.3464  0.4347 -0.7386
27351SOL    HW293779   5.846  12.156   2.819 -0.2316 -2.3020  0.8272
27352SOL     OW93780   3.330  10.140   8.766  0.0410 -0.0727  0.0297
27352SOL    HW193781   3.385  10.106   8.697 -2.1691  1.3804 -2.6632
27352SOL    HW293782   3.244  10.153   8.725 -1.0232  2.2694  2.6126
27353SOL     OW93783   1.585  12.624  10.818  0.8182 -0.1426  0.1119
27353SOL    HW193784   1.557  12.583  10.900  0.4812  1.3616  0.7728
27353SOL    HW293785   1.642  12.696  10.845  2.4954 -0.9530 -1.0834
27354SOL     OW93786  10.764  12.703   1.958 -0.6368  0.2373 -0.3591
27354SOL    HW193787  10.734  12.617   1.986 -1.9954  0.4340 -1.1028
27354SOL    HW293788  10.805  12.688   1.873 -0.6521  0.2738 -0.3731
27355SOL     OW93789  11.080  12.134   8.616  0.1232  0.7944  0.1626
27355SOL    HW193790  11.107  12.226   8.607 -0.5132  0.9095 -0.7032
27355SOL    HW293791  10.994  12.138   8.660  1.0256  0.4782  2.0778
27356SOL     OW93792   3.189   8.427  10.753 -0.1538  0.0959 -0.3415
27356SOL    HW193793   3.221   8.338  10.735 -0.8762 -0.0443 -1.0076
27356SOL    HW293794   3.240   8.482  10.693  1.9652  0.4890  1.6483
27357SOL     OW93795   2.058  10.666   6.842 -0.0081 -0.2377 -0.5510
27357SOL    HW193796   2.086  10.691   6.754  0.3051 -0.1572 -0.4334
27357SOL    HW293797   2.120  10.712   6.900 -1.0448  0.8088 -0.2395
27358SOL     OW93798  13.171   7.227  11.232  0.3614  0.0468  0.3495
27358SOL    HW193799  13.147   7.169  11.304 -2.7224  3.2844  2.2607
27358SOL    HW293800  13.124   7.193  11.156  0.9005 -1.4641  0.6572
27359SOL     OW93801  11.919   6.891   4.692  0.1632  0.2924 -0.3050
27359SOL    HW193802  11.920   6.834   4.769 -1.3425  1.1978  0.4395
27359SOL    HW293803  11.994   6.948   4.703  0.9140 -0.6537 -0.3741
27360SOL     OW93804   1.638   7.613   5.017 -0.7119 -0.1172 -0.1901
27360SOL    HW193805   1.708   7.580   5.073 -1.0424  2.4232  1.9300
27360SOL    HW293806   1.566   7.551   5.028 -0.8182  0.3525  2.4635
27361SOL     OW93807   4.054   6.868   9.670  0.0831  0.6442  0.2800
27361SOL    HW193808   4.006   6.951   9.658  0.1377  0.3844 -2.3806
27361SOL    HW293809   4.146   6.894   9.675  0.2020  0.7416 -1.6684
27362SOL     OW93810  10.259   3.224   7.272 -0.0917 -0.2046 -0.1728
27362SOL    HW193811  10.264   3.136   7.311  0.4953 -0.0501  0.1099
27362SOL    HW293812  10.183   3.265   7.314  0.7467  0.0920  1.1046
27363SOL     OW93813  10.629   7.584  11.940  0.1686 -0.3706  0.1441
27363SOL    HW193814  10.597   7.494  11.949  1.9560 -0.9189  1.6782
27363SOL    HW293815  10.723   7.575  11.924  0.5409  1.2124  1.2093
27364SOL     OW93816   2.727  11.757   8.153 -0.1043  0.0816 -0.5977
27364SOL    HW193817   2.745  11.812   8.077 -1.6465  0.2744 -0.8594
27364SOL    HW293818   2.747  11.813   8.228 -1.4413  0.9668 -0.8655
27365SOL     OW93819   3.597   3.355  13.252  0.1507 -0.2060 -0.4937
27365SOL    HW193820   3.535   3.292  13.215 -0.1018  0.0687 -0.5446
27365SOL    HW293821   3.566   3.370  13.341  0.1479 -0.0734 -0.5165
27366SOL     OW93822  10.805   6.079   3.673  0.4843 -1.0415  0.5413
27366SOL    HW193823  10.883   6.033   3.640  0.0585 -1.1802 -0.2922
27366SOL    HW293824  10.745   6.010   3.700  0.8709 -0.9303  1.7672
27367SOL     OW93825   4.941   0.422   4.043  0.0928 -0.8875 -0.5177
27367SOL    HW193826   4.914   0.450   3.955  0.4705 -2.8803 -1.3256
27367SOL    HW293827   5.036   0.416   4.038  0.2517  0.4262  0.5181
27368SOL     OW93828  11.287   9.182   7.227  0.2453 -0.8916  0.1503
27368SOL    HW193829  11.277   9.254   7.166  0.3169 -0.2349  0.8941
27368SOL    HW293830  11.368   9.138   7.200 -0.1601 -1.1043 -0.7183
27369SOL     OW93831  10.260   8.634   1.921  0.1874  0.2401  0.1500
27369SOL    HW193832  10.170   8.648   1.950  0.7209 -0.2316  2.1790
27369SOL    HW293833  10.308   8.710   1.952  0.5439  0.4100 -0.7800
27370SOL     OW93834   9.539  13.234   8.619  0.0065  0.1712  0.1000
27370SOL    HW193835   9.536  13.200   8.530  0.6637 -0.2227  0.2261
27370SOL    HW293836   9.603  13.179   8.664  0.4282  0.9994  0.5432
27371SOL     OW93837  13.239   2.970  11.065  0.5219  0.3374 -0.6248
27371SOL    HW193838  13.161   2.927  11.031 -0.3599  1.1440  0.3161
27371SOL    HW293839  13.278   3.013  10.989  0.4298 -0.6171 -1.2281
27372SOL     OW93840  10.020   8.790   1.269 -0.3553  0.1882 -0.6984
27372SOL    HW193841   9.945   8.849   1.277 -1.0383 -0.6628 -0.7954
27372SOL    HW293842  10.096   8.846   1.287 -1.0701  0.8532  0.3749
27373SOL     OW93843   1.638   0.029   3.663  0.2381  0.0899  0.8562
27373SOL    HW193844   1.698   0.099   3.690 -1.1052  0.5678  2.7974
27373SOL    HW293845   1.661  -0.046   3.718  0.0246 -0.1941  0.5634
27374SOL     OW93846   7.327   9.231   3.369 -0.3951 -0.0967  0.2809
27374SOL    HW193847   7.369   9.189   3.293  0.5549 -0.4946  1.0054
27374SOL    HW293848   7.245   9.267   3.334 -0.0137 -0.3394 -0.9140
27375SOL     OW93849   1.859  12.823   5.821  0.1882  0.4963  0.1436
27375SOL    HW193850   1.863  12.903   5.768 -0.8218  1.0623  0.8820
27375SOL    HW293851   1.806  12.763   5.769  0.9977  0.2773 -0.4412
27376SOL     OW93852  11.499   3.985   1.205 -0.2200  0.0516 -0.4016
27376SOL    HW193853  11.549   3.972   1.286 -1.7028 -1.5166  0.3255
27376SOL    HW293854  11.552   4.046   1.154  1.6176 -0.2715  1.0046
27377SOL     OW93855   8.004   0.121   5.412  0.2783  0.3014  0.9644
27377SOL    HW193856   7.927   0.141   5.465 -0.2013 -2.0849  1.2970
27377SOL    HW293857   7.975   0.131   5.322 -0.2651 -0.0103  1.1021
27378SOL     OW93858  10.172  13.313   5.716  0.2661 -0.6649  0.1429
27378SOL    HW193859  10.178  13.238   5.656 -0.8700  0.2863 -1.2478
27378SOL    HW293860  10.086  13.304   5.757 -0.0569  0.0623 -0.3449
27379SOL     OW93861  11.742   6.595   5.880  0.4684  0.1968  0.2733
27379SOL    HW193862  11.741   6.639   5.965 -2.9186 -0.0275  0.4802
27379SOL    HW293863  11.719   6.663   5.817 -1.1373 -0.4360  0.1251
27380SOL     OW93864   6.185   2.511   8.604  0.2649 -0.1308 -0.1178
27380SOL    HW193865   6.267   2.527   8.651 -0.4161 -0.3993  1.2285
27380SOL    HW293866   6.123   2.574   8.641 -0.0049  0.4928 -1.5525
27381SOL     OW93867   0.483   6.344   5.285  0.0035  0.1167 -0.2787
27381SOL    HW193868   0.452   6.283   5.218  0.8288 -2.9162  1.8733
27381SOL    HW293869   0.577   6.325   5.292  0.3280  1.8156  0.3737
27382SOL     OW93870  12.106   1.653  13.681  0.6557 -0.2394  0.3717
27382SOL    HW193871  12.107   1.696  13.596 -0.7594 -0.4577  0.2101
27382SOL    HW293872  12.196   1.626  13.696  1.3844  1.8767  0.0293
27383SOL     OW93873   3.992   7.864  12.171 -0.9801 -0.2373  0.2905
27383SOL    HW193874   3.927   7.800  12.199  1.7376 -3.3528  0.0471
27383SOL    HW293875   4.047   7.817  12.109  0.9287  2.5396 -0.3115
27384SOL     OW93876   3.672   8.283  13.122  0.0144 -0.0045 -0.3541
27384SOL    HW193877   3.680   8.262  13.215 -0.1261 -0.5127 -0.4547
27384SOL    HW293878   3.736   8.353  13.108  0.0417  0.0701  0.1219
27385SOL     OW93879   8.455  10.433   8.573  0.3005 -0.0832  0.3778
27385SOL    HW193880   8.505  10.377   8.514 -1.0529 -1.2122  0.2420
27385SOL    HW293881   8.481  10.522   8.549  0.2899 -0.5325 -1.4638
27386SOL     OW93882   0.484  12.404  10.933  0.0582  0.4274  0.2628
27386SOL    HW193883   0.533  12.482  10.959  2.0101 -0.3516 -0.9028
27386SOL    HW293884   0.528  12.332  10.977 -0.0978 -0.2870 -0.7238
27387SOL     OW93885   9.908   1.653   9.238  0.0649 -0.7325  0.0829
27387SOL    HW193886   9.852   1.613   9.171  1.5728 -1.2450 -0.9423
27387SOL    HW293887   9.992   1.666   9.193  0.6188  0.4642  1.4083
27388SOL     OW93888   1.111   8.188   8.511  0.0463 -0.0449  0.7253
27388SOL    HW193889   1.179   8.139   8.464  0.2643 -1.5925  2.5411
27388SOL    HW293890   1.148   8.276   8.522 -0.0081  0.3858 -1.8876
27389SOL     OW93891   8.864   2.206  10.584  0.2426  0.7530 -0.2891
27389SOL    HW193892   8.772   2.189  10.560 -0.1365  0.6180  1.1699
27389SOL    HW293893   8.860   2.229  10.676  1.8815 -1.0609  0.2909
27390SOL     OW93894   6.152   9.746  11.109 -0.2406 -0.2839  0.2484
27390SOL    HW193895   6.247   9.738  11.102 -0.1888  0.8402 -0.5508
27390SOL    HW293896   6.137   9.778  11.198  0.2408  0.9890 -0.1154
27391SOL     OW93897  12.780   9.935   9.108  0.4385  0.2733  0.1485
27391SOL    HW193898  12.853   9.897   9.157 -0.3563  1.0098  1.9648
27391SOL    HW293899  12.710   9.945   9.172 -1.0776  0.1691 -1.4115
27392SOL     OW93900   0.419  13.080   2.286  0.0321 -0.1623  0.2854
27392SOL    HW193901   0.494  13.139   2.276 -1.4025  1.5783 -0.8914
27392SOL    HW293902   0.372  13.088   2.203 -1.5248 -1.1093  1.0467
27393SOL     OW93903   2.432   2.116  10.330  0.0813  0.1418 -0.0743
27393SOL    HW193904   2.470   2.028  10.320 -2.8105 -1.1991 -0.3927
27393SOL    HW293905   2.412   2.144  10.241 -0.1887  0.5640  0.1149
27394SOL     OW93906  12.158   5.182   6.682  0.2746 -0.1883 -0.1315
27394SOL    HW193907  12.123   5.097   6.656  0.1678 -0.7494  1.6880
27394SOL    HW293908  12.088   5.244   6.664  0.7915 -0.2384 -2.6437
27395SOL     OW93909   7.749   0.722  12.126 -0.7024 -0.7051 -0.6581
27395SOL    HW193910   7.775   0.747  12.215 -1.8328 -0.6202 -0.3372
27395SOL    HW293911   7.720   0.631  12.135 -0.6494 -0.7522 -0.9732
27396SOL     OW93912   1.077  11.796   2.296 -0.2380 -0.6042 -0.2832
27396SOL    HW193913   1.008  11.857   2.271  1.4129  1.8916  0.8685
27396SOL    HW293914   1.057  11.773   2.387  0.7387  0.7284  0.3163
27397SOL     OW93915   0.356   0.309  12.686 -0.1595 -0.3296 -0.2583
27397SOL    HW193916   0.306   0.279  12.609  0.4779 -0.3873 -0.6571
27397SOL    HW293917   0.436   0.257  12.684 -0.4995 -0.9323  0.9381
27398SOL     OW93918   3.453  10.909   3.146 -0.3201  0.0015 -0.2369
27398SOL    HW193919   3.450  10.993   3.099 -0.0264 -0.0070 -0.2706
27398SOL    HW293920   3.499  10.929   3.228  0.5038 -0.3055 -0.6158
27399SOL     OW93921   1.746  12.576   9.509 -0.2816 -0.0504 -0.0727
27399SOL    HW193922   1.841  12.579   9.494 -0.1743  3.1193  0.5613
27399SOL    HW293923   1.708  12.599   9.425 -0.4555 -0.1885 -0.0324
27400SOL     OW93924   8.613   1.564  12.711 -0.2845  0.1274  0.0366
27400SOL    HW193925   8.653   1.554  12.625  0.1135 -0.1871  0.2548
27400SOL    HW293926   8.685   1.590  12.768 -0.5433  0.3150  0.2768
27401SOL     OW93927   7.211   8.932   3.177  0.1230  0.8649  0.3871
27401SOL    HW193928   7.288   8.984   3.200  0.1600  0.9869  0.0057
27401SOL    HW293929   7.219   8.918   3.082 -0.3223  0.8761  0.3449
27402SOL     OW93930   9.373   4.146   2.652  0.0220 -0.4155  0.0368
27402SOL    HW193931   9.372   4.240   2.670 -2.1101 -0.6435  1.5070
27402SOL    HW293932   9.463   4.119   2.671  0.4109  1.1447  0.5903
27403SOL     OW93933  12.835  10.746   2.937 -0.2866 -0.4026 -1.1526
27403SOL    HW193934  12.781  10.822   2.913 -0.1128 -0.1220 -0.6818
27403SOL    HW293935  12.882  10.775   3.015 -1.2795 -1.4874 -0.1235
27404SOL     OW93936   5.997  10.636   0.924 -0.0230  0.2788  0.8015
27404SOL    HW193937   6.059  10.632   0.851 -0.6216 -0.9078  0.3310
27404SOL    HW293938   6.013  10.721   0.964  0.9066  0.5990 -0.1990
27405SOL     OW93939   9.555   9.256   5.770  0.6515 -0.0526 -0.4016
27405SOL    HW193940   9.461   9.239   5.780  0.8395 -1.1208 -0.3814
27405SOL    HW293941   9.585   9.279   5.858  0.4797 -0.0555 -0.3408
27406SOL     OW93942  13.350   4.007   1.031 -0.1424  0.4052 -0.0675
27406SOL    HW193943  13.435   4.026   1.071 -0.8054  3.2825  0.2312
27406SOL    HW293944  13.305   4.092   1.030 -2.7598 -0.8874 -0.8411
27407SOL     OW93945  10.062   5.427  10.617  0.0040  0.2105 -0.1335
27407SOL    HW193946  10.100   5.511  10.593  0.5842  0.2145  0.7401
27407SOL    HW293947  10.096   5.365  10.553 -1.0946  0.7769 -1.2892
27408SOL     OW93948   4.178   5.851   9.987 -0.3860  0.0156 -0.1366
27408SOL    HW193949   4.203   5.912  10.056 -1.0128 -0.4222  0.4940
27408SOL    HW293950   4.085   5.836  10.000 -0.4326 -0.3902 -0.8356
27409SOL     OW93951   1.810   8.361   8.067  0.0216 -0.6852  0.0478
27409SOL    HW193952   1.831   8.438   8.015  0.8486 -0.0095  1.3310
27409SOL    HW293953   1.804   8.290   8.003 -1.6028  0.5605 -1.2729
27410SOL     OW93954   5.736   6.653  10.694 -0.2105  0.1050 -0.8764
27410SOL    HW193955   5.669   6.661  10.627  0.1833 -0.4105 -1.3451
27410SOL    HW293956   5.779   6.739  10.695 -0.0182  0.0258 -1.5120
27411SOL     OW93957  10.708   5.743  10.801 -0.1494 -0.0459  0.3066
27411SOL    HW193958  10.653   5.813  10.836 -1.6691 -0.9878 -0.1138
27411SOL    HW293959  10.798   5.770  10.822 -0.7116  1.8366  0.4765
27412SOL     OW93960   1.863   6.244  13.044 -0.1919  0.3110  0.4393
27412SOL    HW193961   1.948   6.238  13.088  0.7182 -0.3445 -1.3119
27412SOL    HW293962   1.832   6.154  13.039 -0.5933  0.4550  0.3052
27413SOL     OW93963   0.302   1.763  11.876  0.3120 -0.2068 -0.1539
27413SOL    HW193964   0.293   1.668  11.882 -0.3056 -0.2300 -1.1510
27413SOL    HW293965   0.385   1.777  11.831  0.8177 -0.2424  0.7502
27414SOL     OW93966   4.935   1.880   3.522 -0.4188  0.0514 -0.7009
27414SOL    HW193967   4.934   1.952   3.458 -0.1826  1.0595  0.3788
27414SOL    HW293968   4.955   1.802   3.471 -0.0084  0.8649 -1.8244
27415SOL     OW93969   2.792   5.236  10.688 -0.2064 -0.4262  0.3296
27415SOL    HW193970   2.704   5.202  10.701 -1.2435  1.5881 -0.8930
27415SOL    HW293971   2.802   5.302  10.757 -0.1810  0.2417 -0.3004
27416SOL     OW93972   2.233   7.784   1.242 -0.0577 -0.4840  0.2743
27416SOL    HW193973   2.264   7.868   1.275  0.7970 -0.3966 -0.6859
27416SOL    HW293974   2.289   7.766   1.166 -1.7314 -0.8129 -0.9309
27417SOL     OW93975   7.684   7.142  13.196 -0.0614 -0.4675 -0.6865
27417SOL    HW193976   7.651   7.175  13.112 -0.2969  1.0920 -0.0059
27417SOL    HW293977   7.778   7.159  13.193 -0.1356 -0.0283 -0.4563
27418SOL     OW93978   9.584   5.997   4.968  0.1037 -0.4409  0.1385
27418SOL    HW193979   9.632   5.924   4.930  0.2006  1.6210 -4.3757
27418SOL    HW293980   9.653   6.057   4.998  0.3408  0.2449 -1.6090
27419SOL     OW93981   2.168  10.351   9.920  0.5596  0.0923  0.4876
27419SOL    HW193982   2.263  10.349   9.929  0.6977  0.7591 -0.5886
27419SOL    HW293983   2.152  10.352   9.826 -0.3939  2.6411  0.5722
27420SOL     OW93984  10.414   4.847  11.847 -0.3638  0.5516 -0.3105
27420SOL    HW193985  10.333   4.858  11.895  0.1421  0.1747  0.6515
27420SOL    HW293986  10.431   4.753  11.849 -0.1868  0.5604 -0.9858
27421SOL     OW93987   9.344  10.124   3.307  0.2287 -0.6099  0.0562
27421SOL    HW193988   9.419  10.139   3.365  0.3755 -2.0643  0.2653
27421SOL    HW293989   9.329  10.030   3.310 -0.4593 -0.5762 -1.4238
27422SOL     OW93990   5.443  13.022   9.670 -0.1637  0.4938  0.2047
27422SOL    HW193991   5.514  13.048   9.612  0.2176  1.0601  0.8966
27422SOL    HW293992   5.450  12.927   9.677  2.3469  0.7130  2.4466
27423SOL     OW93993  11.830  12.306  10.938  0.5252  0.1505  0.5002
27423SOL    HW193994  11.815  12.218  10.905 -1.5591  0.9294 -0.8977
27423SOL    HW293995  11.850  12.294  11.031  0.2446 -1.7848  0.3542
27424SOL     OW93996   6.460   6.988   5.848  0.0185  0.1127  0.0668
27424SOL    HW193997   6.501   6.929   5.785  0.3464  1.7638 -1.3417
27424SOL    HW293998   6.529   7.050   5.871 -1.0803  1.7366 -0.8121
27425SOL     OW93999   1.661   2.190   7.991  0.4759 -0.3007 -0.3943
27425SOL    HW194000   1.686   2.282   7.984  0.3934 -0.3511 -1.5053
27425SOL    HW294001   1.568   2.193   8.015  0.2560 -0.0796 -1.2409
27426SOL     OW94002   1.145   9.074   9.182  0.6258 -0.8388  0.2601
27426SOL    HW194003   1.195   9.150   9.211  0.7834 -0.6978 -0.3578
27426SOL    HW294004   1.211   9.015   9.146  0.3646 -0.6354 -0.5949
27427SOL     OW94005   2.708   8.921   7.420 -0.0250 -0.3060 -0.0132
27427SOL    HW194006   2.724   9.000   7.472  0.1209  0.4362 -1.1536
27427SOL    HW294007   2.792   8.903   7.377  0.4912 -2.1537  1.6004
27428SOL     OW94008   5.038   9.262  10.054 -0.3057  0.2600  0.2774
27428SOL    HW194009   5.089   9.271  10.135  0.7977 -1.2563 -0.1966
27428SOL    HW294010   5.077   9.325   9.994  2.0110 -1.7736 -0.5057
27429SOL     OW94011   8.530   1.584   5.894  0.0112  0.5432 -0.1146
27429SOL    HW194012   8.612   1.631   5.910 -0.3069  1.3729 -0.8392
27429SOL    HW294013   8.502   1.614   5.808 -0.7381 -0.2089 -0.1410
27430SOL     OW94014   7.719   7.979   8.016 -0.6953 -0.5109 -0.2460
27430SOL    HW194015   7.777   8.049   7.988  1.4134 -1.1949  2.1137
27430SOL    HW294016   7.633   8.004   7.981  0.9024  0.5321 -3.8887
27431SOL     OW94017   7.151   2.624   8.312  0.2065 -0.2686  0.0237
27431SOL    HW194018   7.206   2.572   8.255  1.0686 -0.8419  1.3379
27431SOL    HW294019   7.146   2.574   8.393 -0.7907  0.6300  0.5429
27432SOL     OW94020   1.600   5.223   4.756 -0.2644  0.0389  0.1927
27432SOL    HW194021   1.661   5.167   4.707 -0.4658  0.7439 -0.9085
27432SOL    HW294022   1.629   5.216   4.847  2.2929  1.3297 -0.4078
27433SOL     OW94023   3.803  11.899   9.722 -0.7069 -0.1391  0.0558
27433SOL    HW194024   3.710  11.882   9.733 -0.6347 -0.7751 -0.2206
27433SOL    HW294025   3.814  11.915   9.628 -0.4032 -1.0628 -0.0831
27434SOL     OW94026   2.847   2.508   1.443  0.5897  0.3767 -0.0357
27434SOL    HW194027   2.935   2.490   1.477 -0.1642 -0.3963  1.6545
27434SOL    HW294028   2.821   2.590   1.485  0.1180  0.0559  0.3120
27435SOL     OW94029   7.836   1.842   5.792 -0.0120  0.2395  0.3776
27435SOL    HW194030   7.850   1.761   5.743  1.4935  0.2727  0.6878
27435SOL    HW294031   7.776   1.893   5.738 -0.1637 -0.6597 -0.3252
27436SOL     OW94032   4.462   4.826  13.536 -0.6959  0.3322  0.4897
27436SOL    HW194033   4.461   4.771  13.614 -1.5033 -0.9901 -0.3966
27436SOL    HW294034   4.370   4.835  13.512 -0.3921 -0.8631 -1.3292
27437SOL     OW94035   5.644   2.424   2.347 -0.6699 -0.0524 -0.0317
27437SOL    HW194036   5.630   2.432   2.442 -3.2042  0.9191 -0.4174
27437SOL    HW294037   5.556   2.416   2.310  0.0498  2.1848 -2.5287
27438SOL     OW94038   9.121   6.865   5.253  0.5033  0.9431 -0.1391
27438SOL    HW194039   9.034   6.827   5.242  1.0437 -1.1293  1.9570
27438SOL    HW294040   9.111   6.929   5.324  0.6655  0.7702  0.0414
27439SOL     OW94041  12.257   6.195   7.452  0.3763  0.1571  0.1458
27439SOL    HW194042  12.296   6.127   7.507 -0.2545 -1.9451 -1.8452
27439SOL    HW294043  12.169   6.162   7.432 -0.2304  1.9387 -0.2479
27440SOL     OW94044   6.406   8.583   1.610  0.6294 -0.0316  0.1071
27440SOL    HW194045   6.442   8.668   1.633  2.0714 -0.8462  1.0242
27440SOL    HW294046   6.453   8.557   1.531 -1.0836  0.7656 -1.2355
27441SOL     OW94047   4.680   6.409  12.040  0.5842  0.0062 -0.3621
27441SOL    HW194048   4.655   6.319  12.019  2.3705 -0.1973 -1.8771
27441SOL    HW294049   4.736   6.400  12.118  1.4657 -0.3224 -1.0162
27442SOL     OW94050   8.141   5.715   1.625 -0.0675 -0.1411  0.3654
27442SOL    HW194051   8.124   5.752   1.539  2.4942  0.0358 -0.1330
27442SOL    HW294052   8.182   5.631   1.608  1.5650  0.4146  1.3489
27443SOL     OW94053   3.511   9.020   3.873 -0.7654 -0.2203  0.0803
27443SOL    HW194054   3.537   9.108   3.845 -2.9041  0.1032 -1.0624
27443SOL    HW294055   3.493   9.028   3.966  0.9122  0.0469  0.4225
27444SOL     OW94056   6.627   5.869   9.188 -0.6016 -0.0073  0.1125
27444SOL    HW194057   6.639   5.803   9.120 -1.7132  0.2765 -0.3758
27444SOL    HW294058   6.671   5.947   9.154  1.8045 -0.7781  1.2255
27445SOL     OW94059  10.823   7.575   5.675  0.1474  0.0145 -0.2822
27445SOL    HW194060  10.869   7.604   5.753  0.0336  0.5816 -0.4219
27445SOL    HW294061  10.885   7.518   5.630 -0.4959 -2.0372  1.2493
27446SOL     OW94062  12.125  12.548  11.109  0.1717 -0.5079 -0.3008
27446SOL    HW194063  12.056  12.564  11.173  2.1539  1.3450  1.5725
27446SOL    HW294064  12.094  12.591  11.029 -1.7227 -1.5988 -0.2071
27447SOL     OW94065   4.411  10.971   5.315 -0.4149 -0.1095 -0.2899
27447SOL    HW194066   4.322  10.991   5.344 -0.7802 -1.1524 -0.6426
27447SOL    HW294067   4.403  10.888   5.268  1.0290 -1.1319  1.1588
27448SOL     OW94068   2.348  10.889   5.845 -0.1562 -0.1602  0.0354
27448SOL    HW194069   2.368  10.860   5.934  0.3093  0.7456  0.2445
27448SOL    HW294070   2.255  10.871   5.834 -0.4313  0.5343  1.0461
27449SOL     OW94071   8.770   3.872   9.653  0.2084 -0.1060  0.0567
27449SOL    HW194072   8.743   3.925   9.728 -0.5137 -0.8055  0.3044
27449SOL    HW294073   8.696   3.813   9.638  0.4522 -0.1433 -1.0498
27450SOL     OW94074   7.206   3.510   0.218  0.7442 -0.1074 -0.1453
27450SOL    HW194075   7.295   3.497   0.249  1.1499 -3.6130 -2.2718
27450SOL    HW294076   7.153   3.452   0.273  0.0430  0.5513 -0.1071
27451SOL     OW94077  12.239  10.436   6.049 -0.2453 -0.7777  0.6112
27451SOL    HW194078  12.190  10.361   6.083  1.0371 -0.9187  2.2830
27451SOL    HW294079  12.187  10.512   6.076 -0.9614 -0.9998 -0.0935
27452SOL     OW94080   1.491   0.307  11.131  0.2302 -0.3480 -0.0766
27452SOL    HW194081   1.417   0.304  11.192 -1.5301  1.1134 -2.0300
27452SOL    HW294082   1.553   0.243  11.166 -2.4747 -2.5903  0.9712
27453SOL     OW94083  10.795   6.030  12.995  0.7498 -0.1160 -0.6706
27453SOL    HW194084  10.719   6.035  13.053  0.2775  0.9027 -1.3436
27453SOL    HW294085  10.865   5.996  13.050 -0.3316 -1.6423 -0.1862
27454SOL     OW94086   9.300  13.242  10.253  0.5586  0.1053  0.1557
27454SOL    HW194087   9.270  13.332  10.242  0.9315  0.1722 -0.3336
27454SOL    HW294088   9.234  13.201  10.309 -0.0226  0.4666 -0.2621
27455SOL     OW94089  10.609   7.207   1.598 -0.1079  0.1685  0.3376
27455SOL    HW194090  10.622   7.259   1.518  0.5921  0.1526  0.4300
27455SOL    HW294091  10.698   7.185   1.626 -0.3368  0.4354  1.2942
27456SOL     OW94092  10.758   6.548   8.040 -0.2491  0.6159  0.2695
27456SOL    HW194093  10.730   6.457   8.049  0.3715  0.5902  2.4086
27456SOL    HW294094  10.844   6.542   7.998 -0.1234  0.1860  0.5772
27457SOL     OW94095   5.867  10.165   1.959 -0.0705 -0.0405 -0.3955
27457SOL    HW194096   5.956  10.142   1.988  0.4317  0.6393 -1.3470
27457SOL    HW294097   5.811  10.140   2.032  1.0583  0.8038  0.8017
27458SOL     OW94098   3.170  10.596   0.402  0.0184  0.5557  0.5551
27458SOL    HW194099   3.078  10.609   0.379 -0.2554  0.3590  1.4934
27458SOL    HW294100   3.168  10.566   0.493  0.8700 -1.6543 -0.0802
27459SOL     OW94101   1.746  10.585   5.599  0.1453 -0.1781  0.6311
27459SOL    HW194102   1.769  10.678   5.606  1.9019 -0.4116 -1.2343
27459SOL    HW294103   1.673  10.582   5.537  1.6801 -0.1603 -1.2766
27460SOL     OW94104   0.255  12.159   1.045  0.2787 -0.3147  0.1846
27460SOL    HW194105   0.315  12.134   0.975  1.5027  0.6171  0.8578
27460SOL    HW294106   0.278  12.250   1.065 -1.5389  0.1529  0.3106
27461SOL     OW94107   4.847   3.241  11.821 -0.3792 -0.4506  0.1581
27461SOL    HW194108   4.853   3.269  11.730 -0.9568  0.8382  0.4919
27461SOL    HW294109   4.817   3.319  11.868 -3.1993 -1.8771  0.9849
27462SOL     OW94110   7.003   6.228   9.716 -0.5180  0.0644 -0.1250
27462SOL    HW194111   6.992   6.194   9.804  0.9038  2.0494  0.9068
27462SOL    HW294112   6.931   6.290   9.705 -1.3311 -0.9690 -0.8220
27463SOL     OW94113   2.002  10.311   6.225 -0.3104 -0.1665 -0.0242
27463SOL    HW194114   1.967  10.237   6.274 -0.0345  0.0023  0.4420
27463SOL    HW294115   1.960  10.306   6.139 -0.7738 -0.4905  0.2197
27464SOL     OW94116  13.326   3.127   1.259 -0.2505 -0.3971 -0.5712
27464SOL    HW194117  13.322   3.042   1.304 -1.0681 -0.6371 -1.0612
27464SOL    HW294118  13.392   3.177   1.307 -0.5320 -0.9229  0.4063
27465SOL     OW94119   4.712  10.195   8.160 -0.5459 -0.2697 -0.1410
27465SOL    HW194120   4.758  10.130   8.213 -0.7001 -1.0392 -0.9253
27465SOL    HW294121   4.635  10.150   8.127  0.1347 -0.2293 -1.9664
27466SOL     OW94122   2.603  11.503  13.620 -0.0573  0.1211 -0.0479
27466SOL    HW194123   2.683  11.521  13.571  0.3449 -1.1365  0.1185
27466SOL    HW294124   2.583  11.586  13.664  0.8889  0.5843 -0.4625
27467SOL     OW94125  10.552   5.676   6.974 -0.0074  0.3285  0.7685
27467SOL    HW194126  10.514   5.698   6.889  0.7929 -0.1939  0.2610
27467SOL    HW294127  10.565   5.581   6.972  1.8692  0.5493  0.6581
27468SOL     OW94128   2.927   0.204   2.313 -0.1912  0.2027 -0.4015
27468SOL    HW194129   3.009   0.193   2.362 -1.6531  0.3309  2.2687
27468SOL    HW294130   2.915   0.121   2.267  0.3908 -0.6474  0.9123
27469SOL     OW94131   3.851   6.710  10.114  0.5500  0.2763 -0.3028
27469SOL    HW194132   3.922   6.706  10.050  2.8158  1.7499  1.8956
27469SOL    HW294133   3.846   6.803  10.139 -1.1809 -0.0362  0.6917
27470SOL     OW94134   6.153   1.730   8.986  0.8180 -0.6360  0.0411
27470SOL    HW194135   6.113   1.769   9.064  1.2621 -0.6410  0.2741
27470SOL    HW294136   6.087   1.741   8.917  0.4788 -0.5064  0.3826
27471SOL     OW94137   5.117   9.452  12.041  0.2943  0.1602  0.1700
27471SOL    HW194138   5.135   9.511  11.968 -1.4311  0.6998  0.1314
27471SOL    HW294139   5.053   9.390  12.006  0.6916 -0.5991  0.7591
27472SOL     OW94140   1.011   3.298   5.646  0.3942  0.3443 -0.6702
27472SOL    HW194141   1.023   3.372   5.706 -1.6221 -0.3728  0.7332
27472SOL    HW294142   1.047   3.223   5.693 -0.5540 -0.1020 -0.6364
27473SOL     OW94143  12.151   7.712   7.948 -0.2264 -0.1245 -0.2586
27473SOL    HW194144  12.166   7.782   8.012  1.0194  0.2720 -0.9549
27473SOL    HW294145  12.159   7.755   7.863  3.5214 -1.5252 -0.8216
27474SOL     OW94146   4.047   1.047   1.351 -0.4166 -0.1985 -0.7601
27474SOL    HW194147   4.105   1.123   1.357 -0.7614 -0.0341  0.6854
27474SOL    HW294148   3.981   1.061   1.419 -0.5744 -1.7161 -0.5697
27475SOL     OW94149   2.799  10.650  13.589  0.0219 -0.2034  0.5851
27475SOL    HW194150   2.794  10.746  13.591 -0.9763 -0.1994 -0.7849
27475SOL    HW294151   2.709  10.622  13.571  0.6815 -1.3042 -1.2169
27476SOL     OW94152   7.226   1.288   7.510 -0.6155  0.6151 -0.0641
27476SOL    HW194153   7.160   1.355   7.490  0.1115  0.6310 -2.7836
27476SOL    HW294154   7.193   1.209   7.467 -0.5711 -0.3493  1.5984
27477SOL     OW94155  10.106   9.713   8.638  0.2904 -0.0555 -0.0202
27477SOL    HW194156  10.170   9.683   8.574  2.0177  1.2135  1.0628
27477SOL    HW294157  10.029   9.736   8.585  1.1031 -0.4958 -1.4571
27478SOL     OW94158   1.911  13.429   4.197 -0.1473  0.2146 -0.8210
27478SOL    HW194159   1.949  13.377   4.268  0.5614  0.6793 -0.8554
27478SOL    HW294160   1.936  13.519   4.217 -1.2847  0.5469 -0.8139
27479SOL     OW94161   2.946  10.051   2.776 -0.0187 -0.2850  0.1343
27479SOL    HW194162   3.016  10.039   2.840  1.5267  0.2001 -1.3922
27479SOL    HW294163   2.973  10.126   2.724 -0.8490 -1.0982 -1.5676
27480SOL     OW94164  12.205   2.624  12.862 -0.3649  0.0899  0.6442
27480SOL    HW194165  12.122   2.602  12.905 -0.3407 -1.5199 -0.0702
27480SOL    HW294166  12.218   2.554  12.797  0.5338  1.4255 -0.6840
27481SOL     OW94167   2.431   8.626   8.499  0.2164  0.6191  0.1055
27481SOL    HW194168   2.374   8.701   8.483 -0.9477 -0.2019  0.2756
27481SOL    HW294169   2.419   8.569   8.423 -1.2292 -0.7821  1.3093
27482SOL     OW94170   6.099   5.781   9.658 -0.0596 -0.4461  0.1811
27482SOL    HW194171   6.190   5.778   9.629  0.3022  0.0872  1.1911
27482SOL    HW294172   6.087   5.871   9.690 -0.8763 -0.5727  0.2549
27483SOL     OW94173   7.296   4.382   2.034  0.0917  0.0322 -0.6644
27483SOL    HW194174   7.298   4.410   1.942  2.1472  0.9218 -0.4010
27483SOL    HW294175   7.220   4.428   2.071  0.3836  1.2369 -1.4836
27484SOL     OW94176   6.331   1.065  12.959 -0.2895 -0.2083  0.0166
27484SOL    HW194177   6.298   1.139  12.907  1.0070  0.1416 -0.3484
27484SOL    HW294178   6.293   0.988  12.918  0.9224  0.0363 -1.6598
27485SOL     OW94179  10.910  12.962   3.138  0.1328  0.2552  0.2869
27485SOL    HW194180  10.988  12.999   3.178 -0.1588 -0.7956  1.9240
27485SOL    HW294181  10.906  12.873   3.171 -2.7399  0.8279  1.7907
27486SOL     OW94182   2.522   5.086   7.930  0.3361  0.6296 -0.0913
27486SOL    HW194183   2.602   5.034   7.922 -0.6426 -0.8792 -0.3780
27486SOL    HW294184   2.501   5.082   8.024 -0.1012 -0.0572 -0.2168
27487SOL     OW94185   8.049   5.755   6.748 -0.4772  0.4443  0.2184
27487SOL    HW194186   8.133   5.770   6.792  0.2874 -1.4785 -0.4592
27487SOL    HW294187   8.034   5.661   6.759 -2.8001  0.8255  0.7140
27488SOL     OW94188  13.303   6.199   2.043  0.5803 -0.2514  0.8077
27488SOL    HW194189  13.392   6.236   2.040  1.2692 -1.8732 -0.0670
27488SOL    HW294190  13.263   6.228   1.961 -0.6686  2.5623  2.2559
27489SOL     OW94191  12.265   7.294  12.936 -0.2889  0.3564 -0.1626
27489SOL    HW194192  12.279   7.204  12.964  1.5993  0.9605  1.0042
27489SOL    HW294193  12.183   7.320  12.980 -1.2954 -0.9903 -1.1592
27490SOL     OW94194   9.296   2.044   5.432 -0.2566 -0.1828  0.0441
27490SOL    HW194195   9.388   2.029   5.411  0.4731  0.7130  2.3453
27490SOL    HW294196   9.249   2.024   5.350  1.9793 -0.3614 -1.2662
27491SOL     OW94197   9.035   1.428   2.435 -0.0331 -0.4876  0.2837
27491SOL    HW194198   9.078   1.386   2.510 -0.8363 -0.8456  0.5636
27491SOL    HW294199   8.981   1.358   2.397  1.5768 -0.7724 -1.6145
27492SOL     OW94200   3.010   4.563  10.042  0.4171 -0.4428  0.4021
27492SOL    HW194201   3.093   4.539  10.083  0.0294 -3.7484 -0.4149
27492SOL    HW294202   2.943   4.540  10.106  0.0368 -0.1476  0.1184
27493SOL     OW94203   5.951   9.875  11.000  0.3134 -0.6467  0.0059
27493SOL    HW194204   5.995   9.955  10.969 -2.3821  1.4139  1.0106
27493SOL    HW294205   6.021   9.813  11.017  2.6229  1.7511 -0.1795
27494SOL     OW94206   5.826   1.190   7.781  0.5575 -0.2508  0.4250
27494SOL    HW194207   5.909   1.229   7.808  0.7048  0.6858 -1.2167
27494SOL    HW294208   5.771   1.265   7.759 -0.4778 -0.8917  0.7899
27495SOL     OW94209  10.114   2.175   8.608  0.8050 -0.0621  0.4733
27495SOL    HW194210  10.135   2.267   8.595 -0.7022  0.3258  0.6121
27495SOL    HW294211  10.106   2.164   8.703  2.7387 -0.7755  0.5950
27496SOL     OW94212  10.287   2.078   9.517  0.0463  0.1692  0.9594
27496SOL    HW194213  10.210   2.054   9.569 -0.0917  0.9254  1.1138
27496SOL    HW294214  10.335   1.996   9.506 -1.2877 -0.5128  0.0031
27497SOL     OW94215   8.622   1.911   8.919  0.0384 -0.1126  0.5555
27497SOL    HW194216   8.631   1.905   9.014 -0.3812  0.8878  0.6684
27497SOL    HW294217   8.528   1.916   8.904  0.0873  4.7133  0.4833
27498SOL     OW94218   2.561   8.685   6.336 -0.8125  0.5294  0.3759
27498SOL    HW194219   2.608   8.653   6.259 -0.2454 -1.7231  1.5619
27498SOL    HW294220   2.631   8.707   6.398 -1.2640 -1.2670  1.5657
27499SOL     OW94221   3.168   2.597   7.114  0.0941 -0.3054 -0.2856
27499SOL    HW194222   3.100   2.549   7.065 -0.5347  0.7960 -0.5183
27499SOL    HW294223   3.140   2.688   7.111  0.9626  0.0100  0.6683
27500SOL     OW94224  10.056  12.752  10.889 -0.3707 -0.3494 -0.8839
27500SOL    HW194225  10.045  12.844  10.864 -2.6347  0.1785  1.5976
27500SOL    HW294226   9.968  12.715  10.884 -0.3678 -1.1239  2.3524
27501SOL     OW94227   2.374  11.274   9.115 -0.4021  0.4644  0.0831
27501SOL    HW194228   2.334  11.316   9.191  0.1167 -0.6286  1.0010
27501SOL    HW294229   2.305  11.274   9.048 -0.5347  2.3559  0.1738
27502SOL     OW94230   3.123   9.655   7.119 -0.4879  0.0786 -0.0656
27502SOL    HW194231   3.085   9.666   7.206 -1.5122  0.3984 -0.5478
27502SOL    HW294232   3.212   9.691   7.127 -0.7616  0.6050  0.7013
27503SOL     OW94233   8.479  12.897   1.100 -0.3526 -0.5864  0.0112
27503SOL    HW194234   8.553  12.943   1.061  0.2630 -2.9167 -1.8488
27503SOL    HW294235   8.411  12.964   1.111  1.3178  1.2079 -0.1051
27504SOL     OW94236   4.455   7.098   7.671  0.0631  0.1213  0.3738
27504SOL    HW194237   4.364   7.107   7.698 -0.5172  1.0604 -1.6475
27504SOL    HW294238   4.506   7.136   7.743 -1.2997  1.7464  0.5496
27505SOL     OW94239   2.722   7.614   6.554  0.5681 -0.4673 -0.1874
27505SOL    HW194240   2.695   7.581   6.468  0.9667 -0.7276 -0.2112
27505SOL    HW294241   2.640   7.618   6.604  0.3720 -0.5560 -0.4967
27506SOL     OW94242   2.694  10.901  11.673  0.3964  0.2607  0.0671
27506SOL    HW194243   2.654  10.917  11.758 -0.1905 -0.0327 -0.1468
27506SOL    HW294244   2.633  10.842  11.628  1.5412 -0.9967  0.1056
27507SOL     OW94245  12.563   0.967   9.494 -0.2304  0.0809 -0.0976
27507SOL    HW194246  12.608   0.892   9.456  0.1419  0.2197  0.0705
27507SOL    HW294247  12.601   0.977   9.581  1.1299  1.6533 -0.8139
27508SOL     OW94248   0.285   2.525   1.434 -0.2286  0.0653  0.0214
27508SOL    HW194249   0.203   2.495   1.472 -0.1603  0.5314  0.5499
27508SOL    HW294250   0.273   2.620   1.425  0.6889  0.3112  1.2096
27509SOL     OW94251   9.062   4.192   2.900  0.0891 -0.1780  0.2598
27509SOL    HW194252   9.047   4.100   2.922 -0.7200 -0.1067  0.0238
27509SOL    HW294253   9.057   4.195   2.805 -0.6296  0.2374  0.3081
27510SOL     OW94254   4.870   1.043  12.800 -0.1536  0.4632 -0.2928
27510SOL    HW194255   4.835   1.055  12.711 -2.2314  0.1407  0.4107
27510SOL    HW294256   4.796   1.066  12.857  1.0797  0.4794  1.3473
27511SOL     OW94257   4.058  13.671   0.969 -0.4757  0.7688  0.3973
27511SOL    HW194258   4.041  13.580   0.945  0.5584  0.7839 -0.4961
27511SOL    HW294259   3.978  13.700   1.013 -0.5999 -0.7298  1.2033
27512SOL     OW94260  13.295   3.088   4.994 -0.1384 -0.3773  0.2334
27512SOL    HW194261  13.302   3.003   4.953  1.2402  0.1449 -0.6908
27512SOL    HW294262  13.226   3.133   4.946 -1.1337 -1.0715  0.9681
27513SOL     OW94263   8.373   8.246   9.813 -0.5868 -0.4217  0.0864
27513SOL    HW194264   8.437   8.227   9.881  0.1669 -1.6404 -0.9224
27513SOL    HW294265   8.417   8.223   9.731 -1.6758  0.4498 -0.7765
27514SOL     OW94266  10.898  11.491   0.403  0.1631  0.2708  0.5294
27514SOL    HW194267  10.862  11.475   0.490  2.1986 -0.3916  1.2972
27514SOL    HW294268  10.939  11.578   0.409 -0.2738  0.5263 -0.0012
27515SOL     OW94269   3.404   0.446   7.500 -0.0791 -0.1939  0.5149
27515SOL    HW194270   3.340   0.503   7.458 -0.3445  0.5709  1.9183
27515SOL    HW294271   3.367   0.426   7.586  1.3159 -0.1588  1.1529
27516SOL     OW94272   8.955   9.014   6.627 -0.0125 -0.4285 -0.0149
27516SOL    HW194273   8.910   8.969   6.698  1.2196 -0.7456  0.6069
27516SOL    HW294274   9.048   9.007   6.650  0.2921  1.4454 -0.4724
27517SOL     OW94275   7.153  13.546  12.359 -0.7092 -0.2698 -0.0182
27517SOL    HW194276   7.184  13.633  12.333  2.0123 -1.5299 -1.4491
27517SOL    HW294277   7.177  13.489  12.286 -2.8088 -2.1980  0.6755
27518SOL     OW94278  11.354   9.134   0.314  0.0650 -0.3682 -0.3055
27518SOL    HW194279  11.321   9.197   0.250 -0.6871 -1.4520 -1.0101
27518SOL    HW294280  11.351   9.181   0.397 -0.1222  0.6475 -0.8718
27519SOL     OW94281   6.541  11.465   6.652 -0.2138 -0.1862  0.6716
27519SOL    HW194282   6.618  11.505   6.692  0.4810 -1.4060  0.6065
27519SOL    HW294283   6.522  11.520   6.576  1.4481 -0.6227 -0.1156
27520SOL     OW94284   3.312  11.204  13.036  0.5207 -0.5386 -0.3728
27520SOL    HW194285   3.248  11.179  13.103 -0.8789 -3.0247 -2.4522
27520SOL    HW294286   3.372  11.130  13.031  0.9305 -0.1471 -1.4523
27521SOL     OW94287  11.781   8.567   9.479 -0.3074  0.0229  0.7553
27521SOL    HW194288  11.739   8.649   9.453  1.0829 -0.0168 -1.9659
27521SOL    HW294289  11.870   8.592   9.505  0.1463 -0.5984 -0.1522
27522SOL     OW94290   8.377  13.629   7.223 -0.2191  0.0423  0.3083
27522SOL    HW194291   8.307  13.681   7.263 -0.0009  0.3384  0.3070
27522SOL    HW294292   8.376  13.655   7.131  0.3433  0.5537  0.4442
27523SOL     OW94293  10.765   4.374  12.035  0.2804  0.2865 -0.0874
27523SOL    HW194294  10.814   4.453  12.057  1.0987  0.1550 -1.3123
27523SOL    HW294295  10.751   4.380  11.940 -0.9512 -0.3170  0.0435
27524SOL     OW94296   1.403  12.819   5.708 -0.2032  0.1131  0.7160
27524SOL    HW194297   1.408  12.875   5.786  1.5405 -2.2325  2.4529
27524SOL    HW294298   1.492  12.786   5.696  0.0373  1.6784 -3.4407
27525SOL     OW94299   2.330   4.640   8.057 -0.0512 -0.0522  0.2608
27525SOL    HW194300   2.326   4.735   8.056 -0.4740 -0.0530  0.9541
27525SOL    HW294301   2.423   4.619   8.054  0.0433  0.3838  0.1466
27526SOL     OW94302  12.763   1.446  11.625  0.3113  0.2403 -0.0583
27526SOL    HW194303  12.853   1.421  11.602  0.1880  1.3633 -2.0041
27526SOL    HW294304  12.711   1.368  11.607  0.8338 -0.2972  0.7075
27527SOL     OW94305   2.356   8.537  10.221  0.8122  0.0553 -0.1896
27527SOL    HW194306   2.319   8.501  10.301 -0.2840 -0.7523 -1.0253
27527SOL    HW294307   2.333   8.630  10.223 -0.1309 -0.1703 -0.0506
27528SOL     OW94308  13.012  13.477  11.537  0.5700 -0.0502  0.1610
27528SOL    HW194309  13.036  13.558  11.493  0.9952  0.4226  1.2235
27528SOL    HW294310  13.040  13.407  11.478 -0.1535  0.5697 -0.9405
27529SOL     OW94311  13.382   0.291  13.475  0.5787 -0.2593  0.5376
27529SOL    HW194312  13.403   0.213  13.526 -0.0552 -1.0103 -0.3132
27529SOL    HW294313  13.315   0.335  13.526 -0.1603 -1.0829  0.3019
27530SOL     OW94314   6.811  13.418  12.465 -0.7855 -0.3906 -0.2903
27530SOL    HW194315   6.885  13.478  12.479 -0.1832 -1.5420  1.9500
27530SOL    HW294316   6.772  13.407  12.552 -3.3314 -0.2040 -1.3417
27531SOL     OW94317   9.655   2.192   7.634  0.2901  0.0147 -0.2035
27531SOL    HW194318   9.660   2.256   7.705 -1.6795  0.0928 -0.0707
27531SOL    HW294319   9.744   2.157   7.626  0.8147  0.8616  1.4924
27532SOL     OW94320  12.691   6.200   3.403  0.5675  0.2366 -0.0552
27532SOL    HW194321  12.688   6.240   3.316 -1.8465  0.6020  0.1353
27532SOL    HW294322  12.602   6.168   3.418  0.8751  0.2993  2.3465
27533SOL     OW94323   9.899   7.138  10.137 -0.1416  0.2676 -0.2365
27533SOL    HW194324   9.852   7.198  10.079  0.3704  0.2246 -0.6958
27533SOL    HW294325   9.846   7.136  10.217 -1.5527 -0.6398 -1.1368
27534SOL     OW94326   6.281   7.721  10.874 -0.3486  0.6263 -0.5743
27534SOL    HW194327   6.189   7.708  10.853 -0.3262  0.9233 -0.8685
27534SOL    HW294328   6.314   7.634  10.895 -0.9378  0.6577  0.5351
27535SOL     OW94329   1.403   5.743   6.067  0.0552 -0.0615  0.6396
27535SOL    HW194330   1.362   5.783   5.990  1.5764  0.8493  0.2442
27535SOL    HW294331   1.361   5.785   6.141 -0.2579  0.2937  0.2675
27536SOL     OW94332   3.248   6.616  11.440  0.0084  0.5616  0.3740
27536SOL    HW194333   3.168   6.567  11.421  0.0467  0.6249  0.0375
27536SOL    HW294334   3.275   6.651  11.355  0.7625 -0.0182  0.3614
27537SOL     OW94335   8.674   9.919   2.145  0.3771 -0.0170 -0.0689
27537SOL    HW194336   8.648   9.964   2.064  1.3774 -0.2555 -0.5410
27537SOL    HW294337   8.670   9.986   2.213 -1.5283 -0.0678 -0.0902
27538SOL     OW94338   0.789  10.765   6.929 -0.1682 -0.0879 -0.5221
27538SOL    HW194339   0.791  10.788   6.836  0.1450 -0.7601 -0.6834
27538SOL    HW294340   0.699  10.786   6.956 -0.4230 -0.3991 -1.1047
27539SOL     OW94341  12.264  10.212   1.946 -0.1856  0.3620  0.2902
27539SOL    HW194342  12.180  10.231   1.989 -0.1450 -0.3603  0.6956
27539SOL    HW294343  12.310  10.156   2.007  0.2932  0.1435 -0.2626
27540SOL     OW94344   5.485  10.524   6.872 -0.6108  0.5978 -0.1128
27540SOL    HW194345   5.429  10.602   6.878 -1.5037  0.6675 -5.1541
27540SOL    HW294346   5.567  10.556   6.836 -0.9899 -0.6638 -2.2743
27541SOL     OW94347  10.528   0.390   9.602  0.1529  0.4299 -0.1782
27541SOL    HW194348  10.611   0.372   9.556  0.3457 -0.8785  0.6303
27541SOL    HW294349  10.553   0.398   9.694 -0.6678 -0.6083  0.1592
27542SOL     OW94350   9.604   4.732   2.718  0.3588 -0.1720 -0.4680
27542SOL    HW194351   9.600   4.658   2.779  0.5859 -0.9067 -1.3223
27542SOL    HW294352   9.543   4.708   2.648  0.5854  0.3593 -0.8520
27543SOL     OW94353   9.199   9.494   5.120  0.4494  0.0278  0.0443
27543SOL    HW194354   9.258   9.531   5.055  1.4319  0.5291  1.1833
27543SOL    HW294355   9.236   9.521   5.204 -2.2388  1.6649  0.7961
27544SOL     OW94356   2.439  12.302   9.544  0.1423  0.2481  0.3150
27544SOL    HW194357   2.444  12.237   9.614 -0.2610 -0.5034 -0.3457
27544SOL    HW294358   2.500  12.271   9.478 -2.0996 -1.0333 -1.2737
27545SOL     OW94359   6.399   3.822   7.704  0.5195  0.0220 -0.5890
27545SOL    HW194360   6.476   3.848   7.755  1.5112 -0.1773 -1.9463
27545SOL    HW294361   6.396   3.727   7.713  0.3686  0.0386 -0.4603
27546SOL     OW94362   4.926   5.811  13.032 -0.1929  0.6220  0.6120
27546SOL    HW194363   4.963   5.763  12.958 -1.9225  0.7912 -0.4261
27546SOL    HW294364   4.971   5.895  13.030 -0.1092  0.5753 -0.1764
27547SOL     OW94365  12.588  11.859   4.575 -0.0339  0.0931  0.1311
27547SOL    HW194366  12.507  11.869   4.625 -0.1194  1.3155 -0.2309
27547SOL    HW294367  12.631  11.945   4.581 -0.3687  0.5044 -2.4280
27548SOL     OW94368   8.336   7.577  12.903  0.2653  0.1034 -0.2669
27548SOL    HW194369   8.243   7.598  12.905  0.1926 -0.1046 -1.0912
27548SOL    HW294370   8.351   7.522  12.980 -0.1657  0.6392  0.2059
27549SOL     OW94371   2.616   8.643   3.629 -0.0997 -0.4063  0.4134
27549SOL    HW194372   2.696   8.693   3.614  0.5341 -1.6135 -0.4146
27549SOL    HW294373   2.602   8.650   3.724  2.6576 -2.4814  1.1398
27550SOL     OW94374   7.661  13.701   4.896  0.8320 -0.3797 -0.1570
27550SOL    HW194375   7.605  13.770   4.861  0.5025 -0.4205  0.2810
27550SOL    HW294376   7.665  13.636   4.826  0.9989 -0.0069 -0.5048
27551SOL     OW94377   8.038   2.049   5.616 -0.1751 -0.0023  0.2467
27551SOL    HW194378   7.986   2.035   5.696  1.1551 -2.5957  0.7581
27551SOL    HW294379   8.096   2.122   5.638 -1.9536  1.4531  0.4413
27552SOL     OW94380   7.029  10.401  13.496  0.0728  0.0491 -0.5212
27552SOL    HW194381   7.026  10.306  13.510 -1.7228  0.0986 -0.3086
27552SOL    HW294382   7.008  10.438  13.581  0.1548  0.6116 -0.7466
27553SOL     OW94383   1.689   7.804  13.586 -0.4192  0.0020  0.4090
27553SOL    HW194384   1.664   7.893  13.611  0.1211  0.2647  0.0347
27553SOL    HW294385   1.608   7.754  13.593 -0.2625 -0.0275  2.9759
27554SOL     OW94386   2.646  10.552   8.738  0.4092 -0.1573  0.5538
27554SOL    HW194387   2.657  10.620   8.804 -0.2564 -0.1411  0.6588
27554SOL    HW294388   2.551  10.543   8.729  0.4947  0.1433 -0.7161
27555SOL     OW94389   7.291   0.414  10.993  0.8795 -0.1569 -0.2366
27555SOL    HW194390   7.361   0.479  10.990  0.5917  0.2310  0.8772
27555SOL    HW294391   7.210   0.465  10.998  0.4685 -0.6001 -1.8274
27556SOL     OW94392  13.059  13.627   6.541  0.1121 -0.5459  0.2119
27556SOL    HW194393  13.030  13.709   6.501 -0.4828 -1.1530 -0.6258
27556SOL    HW294394  13.110  13.583   6.473 -0.7133 -1.4878  0.1797
27557SOL     OW94395   4.370   5.088  12.361  0.1524  0.3894  0.1179
27557SOL    HW194396   4.365   5.057  12.270  0.2598 -1.5664  0.7326
27557SOL    HW294397   4.279   5.106  12.385  0.2389  2.1384 -0.7389
27558SOL     OW94398   1.379  10.878   0.914 -0.2296 -0.7358  0.2332
27558SOL    HW194399   1.445  10.898   0.980  1.4299 -0.9970 -1.2596
27558SOL    HW294400   1.297  10.873   0.963  0.6838  0.5184  2.0304
27559SOL     OW94401  13.281   0.762   0.051 -0.1053  0.1761 -0.6956
27559SOL    HW194402  13.298   0.733   0.140  0.3736  4.1755  0.7347
27559SOL    HW294403  13.364   0.798   0.021 -1.0253  1.7925 -1.4449
27560SOL     OW94404   4.649   7.462   7.342 -0.2901 -0.0840  0.0485
27560SOL    HW194405   4.576   7.500   7.294 -0.0697  0.2196 -0.0479
27560SOL    HW294406   4.623   7.371   7.357 -0.9610  0.1847  0.5700
27561SOL     OW94407   0.787  13.161   5.078  0.1903 -0.1490 -0.6977
27561SOL    HW194408   0.844  13.087   5.057  0.4829  0.2941 -1.5075
27561SOL    HW294409   0.727  13.167   5.004  0.6240  0.8559 -0.9778
27562SOL     OW94410   7.689  13.442   4.237  0.0768  0.3003 -0.3766
27562SOL    HW194411   7.666  13.360   4.192  1.7787 -0.3505 -0.1395
27562SOL    HW294412   7.676  13.422   4.330 -2.2395  1.2490 -0.4333
27563SOL     OW94413   4.379   1.705   5.206 -0.2499 -0.2766  0.3587
27563SOL    HW194414   4.446   1.642   5.233  0.6292 -0.9817 -3.0987
27563SOL    HW294415   4.359   1.682   5.116 -1.7852  2.8474 -0.2239
27564SOL     OW94416   9.345   1.945  10.458 -0.1820 -0.1619  0.5549
27564SOL    HW194417   9.279   1.977  10.396  0.4068  0.2455  0.1289
27564SOL    HW294418   9.410   2.015  10.462  0.0721 -0.4265  1.2081
27565SOL     OW94419   1.418   7.277  11.784  0.0264  0.4520 -0.4049
27565SOL    HW194420   1.384   7.313  11.702  0.9216  2.2503 -0.0180
27565SOL    HW294421   1.511   7.301  11.785  1.4439 -4.0390 -1.2828
27566SOL     OW94422   4.700  12.329   0.087  0.4066 -0.3710 -0.4301
27566SOL    HW194423   4.665  12.254   0.135 -0.5885  0.7971  0.7872
27566SOL    HW294424   4.778  12.354   0.136  0.9611 -0.8212 -1.0634
27567SOL     OW94425  10.501  11.866   7.130 -0.1802  0.3583 -0.2054
27567SOL    HW194426  10.511  11.835   7.040 -1.1657 -1.2987  0.2130
27567SOL    HW294427  10.420  11.826   7.161  0.7303 -0.0895  1.8126
27568SOL     OW94428   1.498   2.122   6.414 -0.6142  0.1117  0.4534
27568SOL    HW194429   1.549   2.062   6.469 -0.0541 -2.2449 -2.4056
27568SOL    HW294430   1.564   2.177   6.373 -1.0300  1.8347  1.9553
27569SOL     OW94431  13.356  10.914   9.759  0.2384 -0.5733  0.3686
27569SOL    HW194432  13.307  10.964   9.693 -1.1004 -1.9684  0.2321
27569SOL    HW294433  13.335  10.957   9.842  1.3766  0.7682  0.0025
27570SOL     OW94434  10.503  10.952   3.190 -0.2049  0.4675 -0.5431
27570SOL    HW194435  10.555  10.950   3.110  0.3816 -0.4917 -0.1644
27570SOL    HW294436  10.458  11.036   3.188  0.6757  0.9376 -1.3229
27571SOL     OW94437   9.410  11.077  10.507  0.1823  0.5866 -0.1177
27571SOL    HW194438   9.461  11.158  10.520  0.1453  0.4418  1.0317
27571SOL    HW294439   9.385  11.050  10.596  0.7330 -1.0422 -0.4245
27572SOL     OW94440   0.148   0.166   4.353  0.6359  0.3320 -0.3257
27572SOL    HW194441   0.161   0.214   4.435 -0.7035 -1.1874  0.8684
27572SOL    HW294442   0.180   0.078   4.372 -0.3206 -0.2293 -1.2024
27573SOL     OW94443   4.602  10.607   0.307  0.1390 -0.2295 -0.4484
27573SOL    HW194444   4.588  10.611   0.212  0.2115 -2.0630 -0.5681
27573SOL    HW294445   4.522  10.567   0.341  0.0031  0.6601  0.3237
27574SOL     OW94446   1.114   2.602   5.522  0.5199  0.3451  0.1840
27574SOL    HW194447   1.033   2.564   5.554 -0.3785  1.0981 -1.1233
27574SOL    HW294448   1.173   2.598   5.598 -0.7024 -0.2455  1.1489
27575SOL     OW94449  13.451   9.349   7.730  0.4516 -0.0038 -0.5567
27575SOL    HW194450  13.455   9.444   7.746  0.9616 -0.3530  1.9095
27575SOL    HW294451  13.375   9.320   7.781 -0.4590 -0.8064 -2.2877
27576SOL     OW94452  13.054   9.057   6.187 -0.0191 -0.4108 -0.1425
27576SOL    HW194453  13.014   9.008   6.259  0.9651 -0.6108  0.2925
27576SOL    HW294454  13.002   9.137   6.181  0.3979  0.0190  1.3886
27577SOL     OW94455  13.401   0.655   8.413  0.1454 -0.2948  0.1157
27577SOL    HW194456  13.399   0.745   8.380  1.3220  0.7631  2.6511
27577SOL    HW294457  13.317   0.618   8.386  0.4232  0.8352 -2.7080
27578SOL     OW94458   5.925   5.593   9.514  0.4015  0.2632 -0.5805
27578SOL    HW194459   5.969   5.670   9.552  1.6808  0.1829 -1.8223
27578SOL    HW294460   5.832   5.618   9.510  0.6989  1.4730 -0.3089
27579SOL     OW94461   0.694   7.546   4.824  0.0106 -0.0059 -0.0379
27579SOL    HW194462   0.614   7.551   4.878  0.2719 -0.6621  0.4276
27579SOL    HW294463   0.703   7.634   4.787 -0.4282  0.3366  0.6346
27580SOL     OW94464  10.589  12.696   8.968 -0.2712  0.6115 -0.5823
27580SOL    HW194465  10.630  12.722   8.885 -0.3030  1.5826 -0.3148
27580SOL    HW294466  10.649  12.728   9.035  1.0178 -2.3029 -0.1902
27581SOL     OW94467  13.618   2.582   7.825  0.0096 -0.0046 -0.1619
27581SOL    HW194468  13.689   2.644   7.845  0.7729 -0.0299 -2.5607
27581SOL    HW294469  13.612   2.528   7.904  1.3215  1.2360  0.8590
27582SOL     OW94470   6.646   5.176  12.705  0.3411 -0.3230 -0.0173
27582SOL    HW194471   6.639   5.146  12.614 -0.4873 -0.8828  0.2253
27582SOL    HW294472   6.572   5.136  12.750  0.2780  0.6016  0.7382
27583SOL     OW94473   4.161   0.411   9.950  0.6462 -0.0297  0.1795
27583SOL    HW194474   4.109   0.354   9.894  0.5121 -0.4546  0.7270
27583SOL    HW294475   4.108   0.490   9.960  0.2528 -0.3256  0.4606
27584SOL     OW94476   3.125   7.309  13.224  0.2790  0.5622 -0.6364
27584SOL    HW194477   3.205   7.358  13.241 -0.0955  0.6806  0.9594
27584SOL    HW294478   3.056   7.362  13.264 -0.0299 -1.6087  2.0512
27585SOL     OW94479  13.327   2.411  13.191  0.4319  0.3711  0.5608
27585SOL    HW194480  13.416   2.439  13.169  1.3445 -2.0025  0.9425
27585SOL    HW294481  13.315   2.440  13.282  0.3980  1.5603  0.1995
27586SOL     OW94482   7.248   8.610   7.011 -0.1041 -0.3329  0.1868
27586SOL    HW194483   7.268   8.602   6.918 -2.0964 -1.0725 -0.2329
27586SOL    HW294484   7.251   8.520   7.044 -2.3876 -0.5012  0.1046
27587SOL     OW94485  10.477  10.127  11.032  0.0682 -0.2597 -0.8120
27587SOL    HW194486  10.504  10.209  10.990  1.0663  0.9227  1.9449
27587SOL    HW294487  10.451  10.152  11.120  1.4045 -3.0109  0.5008
27588SOL     OW94488   4.708  11.766   9.271  0.6690 -0.0520  0.8404
27588SOL    HW194489   4.661  11.701   9.218  0.1258  0.9863  0.0142
27588SOL    HW294490   4.705  11.731   9.360  0.2420 -1.0713  0.4418
27589SOL     OW94491   4.820   1.693   8.058 -0.4712 -0.2936  0.3631
27589SOL    HW194492   4.732   1.727   8.043  0.2075  1.7962  0.8127
27589SOL    HW294493   4.818   1.658   8.147 -0.4281  1.3702  1.0601
27590SOL     OW94494  12.923  11.309   0.837  0.3404 -0.2512 -0.0693
27590SOL    HW194495  12.949  11.249   0.767 -1.2607 -0.6639 -0.3527
27590SOL    HW294496  12.885  11.384   0.791 -2.7792 -1.4640  0.2596
27591SOL     OW94497   1.640  10.342   5.761 -0.1696 -0.1573  0.3684
27591SOL    HW194498   1.667  10.406   5.694  1.4489 -0.8487  0.3244
27591SOL    HW294499   1.722  10.306   5.794 -0.9530 -4.1367 -1.4346
27592SOL     OW94500  12.522  11.141  10.103  0.0661  0.2412 -0.1031
27592SOL    HW194501  12.559  11.227  10.087  0.4374  0.2549  0.7910
27592SOL    HW294502  12.436  11.158  10.141 -0.8877  0.2083 -2.0778
27593SOL     OW94503   5.109  13.030   5.596 -0.0545 -0.3028 -0.2844
27593SOL    HW194504   5.095  12.951   5.544  1.4424  0.5907 -2.1605
27593SOL    HW294505   5.203  13.046   5.591 -0.3039  1.5067  0.1996
27594SOL     OW94506   8.391   6.416   0.208 -0.4744  0.2044 -0.2641
27594SOL    HW194507   8.376   6.416   0.302 -1.3019  0.8035 -0.3870
27594SOL    HW294508   8.389   6.323   0.184 -0.9272  0.0922  0.2027
27595SOL     OW94509   3.900  10.552  10.097 -0.5952  0.2942  0.0508
27595SOL    HW194510   3.895  10.487  10.167 -1.4265 -0.0916 -0.3632
27595SOL    HW294511   3.814  10.550  10.056  0.4458 -0.8310 -2.2185
27596SOL     OW94512  10.027   7.854   4.773 -0.0857 -0.2682 -0.2836
27596SOL    HW194513   9.939   7.871   4.739 -0.2246  0.3091  0.3404
27596SOL    HW294514  10.012   7.808   4.856  0.1367  1.2738  0.6383
27597SOL     OW94515  12.059   3.649   5.826 -0.3362 -0.1419 -0.1515
27597SOL    HW194516  12.151   3.630   5.844 -0.3531  0.0355  0.1341
27597SOL    HW294517  12.061   3.703   5.747  0.0762  2.6976  1.6380
27598SOL     OW94518  10.255   1.409   6.666  0.1585 -0.5934 -0.3614
27598SOL    HW194519  10.233   1.497   6.637  1.4556 -0.5299 -1.2303
27598SOL    HW294520  10.307   1.421   6.745  0.6199 -0.5638 -0.6688
27599SOL     OW94521   4.861   6.047   8.701  0.0604 -0.0406  0.6668
27599SOL    HW194522   4.792   6.106   8.731  0.6658  0.7490  0.5567
27599SOL    HW294523   4.938   6.104   8.691  0.0010 -0.3059 -1.9765
27600SOL     OW94524   2.985   0.512   5.914 -0.0602 -0.1953  0.3423
27600SOL    HW194525   2.945   0.592   5.949 -0.0527 -0.2606  0.4974
27600SOL    HW294526   2.953   0.508   5.823 -1.0157 -0.6462  0.6787
27601SOL     OW94527  13.700  13.694   8.401 -0.1316  0.0043  0.0342
27601SOL    HW194528  13.755  13.622   8.432 -0.4467 -0.4495 -0.4495
27601SOL    HW294529  13.700  13.757   8.474  2.7088  1.0157 -0.7407
27602SOL     OW94530   2.334   5.677   6.153  0.0944 -0.8001 -0.8834
27602SOL    HW194531   2.275   5.630   6.094  1.6643 -1.8419 -1.6769
27602SOL    HW294532   2.416   5.685   6.104  0.4987  1.0571 -0.0069
27603SOL     OW94533  13.225   1.398  11.631 -0.4655 -0.1695  0.4569
27603SOL    HW194534  13.219   1.426  11.722  1.0201 -3.4657  1.7370
27603SOL    HW294535  13.316   1.414  11.607 -0.2961 -1.2469  0.3233
27604SOL     OW94536   8.375  12.534   7.931  0.0196 -0.1978  0.5196
27604SOL    HW194537   8.306  12.598   7.948 -0.4083 -0.6490  0.4797
27604SOL    HW294538   8.336  12.449   7.951  0.7246 -0.4198  1.0161
27605SOL     OW94539   2.501   7.731   0.473  0.0508 -0.7256  0.2084
27605SOL    HW194540   2.522   7.745   0.380  0.1547  0.0191  0.3413
27605SOL    HW294541   2.437   7.798   0.493  2.3829  1.2453  1.5083
27606SOL     OW94542   2.369   1.540  12.516  0.0731  0.6681  0.8694
27606SOL    HW194543   2.397   1.515  12.428 -0.8663 -0.2955  0.8220
27606SOL    HW294544   2.427   1.492  12.575 -1.6899 -1.7818  0.7809
27607SOL     OW94545  11.737   4.332   6.263  0.1170 -0.2506  0.2220
27607SOL    HW194546  11.714   4.352   6.172 -0.6062  0.9595  0.6586
27607SOL    HW294547  11.717   4.239   6.273  1.1314 -0.6383 -1.1300
27608SOL     OW94548   1.309   3.470   9.224  0.6239  0.0447 -0.3049
27608SOL    HW194549   1.310   3.510   9.311  4.1944 -1.4750  0.5570
27608SOL    HW294550   1.347   3.536   9.167  1.6597 -0.2002  0.0748
27609SOL     OW94551  11.723  10.362   6.875 -0.5055  0.0192 -0.0736
27609SOL    HW194552  11.795  10.351   6.814  2.3311  0.9144  2.8255
27609SOL    HW294553  11.712  10.457   6.883 -0.0784 -0.0324  1.4957
27610SOL     OW94554   3.699   6.872  12.181 -0.1704  0.6009  0.5512
27610SOL    HW194555   3.742   6.790  12.157 -0.4882  0.3208  0.9280
27610SOL    HW294556   3.615   6.844  12.219 -0.2692  1.1013  0.6962
27611SOL     OW94557  10.741   8.449   0.001 -0.2078 -0.4149 -0.3937
27611SOL    HW194558  10.748   8.544   0.004  1.6840 -0.5123 -0.8369
27611SOL    HW294559  10.797   8.419   0.073 -1.1624 -1.1978  0.0431
27612SOL     OW94560   9.524   3.965   4.540 -0.3667 -0.3893  0.3393
27612SOL    HW194561   9.543   4.056   4.564  0.2373 -1.0350  2.5104
27612SOL    HW294562   9.429   3.962   4.529 -0.3379  0.6079 -0.3741
27613SOL     OW94563  12.622   8.476  12.907  0.5034 -0.3454 -0.0464
27613SOL    HW194564  12.542   8.524  12.929  0.1211 -1.0572  0.1240
27613SOL    HW294565  12.675   8.479  12.987 -0.1512 -1.4625  0.4390
27614SOL     OW94566  10.136  10.850  11.832 -0.7907 -0.1993 -0.0033
27614SOL    HW194567  10.050  10.812  11.851 -0.4917 -0.1973  1.4932
27614SOL    HW294568  10.152  10.910  11.904  0.9555 -1.0402  0.3756
27615SOL     OW94569   2.250  10.621   2.948 -0.1789 -1.2278  0.0866
27615SOL    HW194570   2.263  10.573   3.029  1.7084 -0.5152  0.2420
27615SOL    HW294571   2.331  10.671   2.935 -1.5434  0.9665 -0.6980
27616SOL     OW94572  12.269   2.302   0.373 -0.2299  0.2886 -0.6970
27616SOL    HW194573  12.231   2.270   0.454  0.5982 -0.9390 -0.7704
27616SOL    HW294574  12.362   2.312   0.392 -0.3420  2.1078 -0.8675
27617SOL     OW94575   4.142  12.525   0.479  0.1296 -0.4221  0.1198
27617SOL    HW194576   4.116  12.612   0.510  0.1879 -0.2253 -0.3747
27617SOL    HW294577   4.174  12.539   0.390 -2.2696 -1.3008 -0.9771
27618SOL     OW94578   7.245  12.481   5.544  0.7003 -0.3822 -0.8642
27618SOL    HW194579   7.229  12.541   5.616  0.6626 -0.8010 -0.5164
27618SOL    HW294580   7.201  12.520   5.469  4.2940  2.3470 -1.8064
27619SOL     OW94581   5.753   7.875  11.214  0.4806 -0.1515  0.1364
27619SOL    HW194582   5.746   7.912  11.126 -0.8334 -0.7064 -0.0208
27619SOL    HW294583   5.745   7.780  11.200 -0.3156 -0.2045  0.9000
27620SOL     OW94584   7.487   4.864   0.035  0.4837 -0.1899 -0.0492
27620SOL    HW194585   7.459   4.921   0.107  2.0528 -2.1075  2.2478
27620SOL    HW294586   7.429   4.788   0.041 -0.5633  0.3573 -2.0877
27621SOL     OW94587   3.118   8.957   1.405 -0.2110 -0.0281 -0.6916
27621SOL    HW194588   3.099   8.923   1.317 -1.6170 -0.5566 -0.2077
27621SOL    HW294589   3.042   8.932   1.457  1.4008 -1.3728  1.1531
27622SOL     OW94590   9.282   9.556   4.871  0.3668 -0.0652 -0.0563
27622SOL    HW194591   9.249   9.645   4.862  1.2549  0.2465 -0.3010
27622SOL    HW294592   9.206   9.500   4.855  0.1070  0.6179 -1.2716
27623SOL     OW94593   4.304  11.796   7.937 -0.5284 -0.5574 -0.2195
27623SOL    HW194594   4.303  11.884   7.901  0.0234 -1.3223 -2.2912
27623SOL    HW294595   4.377  11.795   7.998  0.1150  0.1598 -0.9618
27624SOL     OW94596  10.606   3.135   8.141  0.3152 -0.2116  0.4682
27624SOL    HW194597  10.666   3.193   8.187  1.5194 -0.0658 -1.1923
27624SOL    HW294598  10.587   3.065   8.203  2.6980 -0.5853  0.8697
27625SOL     OW94599  12.539  11.655   0.454  0.2636  0.0037 -0.2048
27625SOL    HW194600  12.472  11.604   0.500  0.8585 -0.6174 -0.0014
27625SOL    HW294601  12.609  11.592   0.436  0.7773  0.6270 -0.4517
27626SOL     OW94602   1.166   6.183  10.392 -0.0712 -0.0644  0.3182
27626SOL    HW194603   1.188   6.090  10.398 -0.7313 -0.1716  1.3155
27626SOL    HW294604   1.149   6.210  10.483 -0.3669  0.9080 -0.0104
27627SOL     OW94605   7.010  12.187   0.110 -0.2751  0.0064  0.3278
27627SOL    HW194606   7.020  12.121   0.178  0.1653  0.1298  0.3839
27627SOL    HW294607   7.098  12.220   0.095 -0.2830 -0.3565 -0.6463
27628SOL     OW94608   4.931   9.877  12.690  0.4614  0.0665 -0.0361
27628SOL    HW194609   4.935   9.953  12.631 -0.5990  1.7295  1.9219
27628SOL    HW294610   4.883   9.811  12.640 -0.1914  1.3338 -1.1527
27629SOL     OW94611   1.550  12.367   8.641  0.6102 -0.1478 -0.3317
27629SOL    HW194612   1.564  12.406   8.555  0.6611 -0.4700 -0.4739
27629SOL    HW294613   1.568  12.274   8.628 -0.2021 -0.3372 -0.1744
27630SOL     OW94614   3.633   6.748   4.978 -0.0461  0.2694  0.3535
27630SOL    HW194615   3.649   6.840   5.001  0.3630  0.4375 -0.5765
27630SOL    HW294616   3.652   6.743   4.885 -0.8044 -0.5994  0.2341
27631SOL     OW94617   9.441  11.564   5.227  0.4257  0.4908 -1.0110
27631SOL    HW194618   9.375  11.558   5.296  1.8294 -1.0169  0.2946
27631SOL    HW294619   9.497  11.637   5.254 -0.9669  2.1666 -2.4324
27632SOL     OW94620   7.817   1.877   9.798 -0.0928 -0.5282 -0.3421
27632SOL    HW194621   7.779   1.867   9.710  0.2449  0.5726 -0.6347
27632SOL    HW294622   7.904   1.837   9.791  0.0156 -0.2608 -0.5832
27633SOL     OW94623   5.653  13.479   9.951 -0.8183 -0.3037  0.1610
27633SOL    HW194624   5.568  13.524   9.950 -0.8666 -0.3869 -0.7637
27633SOL    HW294625   5.646  13.415   9.880 -0.1730 -0.6918  0.4399
27634SOL     OW94626   9.910   4.525   7.528 -0.7555  0.3742  0.7628
27634SOL    HW194627   9.859   4.500   7.451 -1.1939  0.2321  1.1002
27634SOL    HW294628   9.853   4.507   7.602 -0.6230  1.2250  1.0865
27635SOL     OW94629   2.164   6.354   9.373 -0.2256 -0.0263  0.4384
27635SOL    HW194630   2.249   6.372   9.332 -0.9731  0.1868 -1.1036
27635SOL    HW294631   2.157   6.420   9.442  0.1675  1.0315 -0.4875
27636SOL     OW94632   6.887  12.624   8.194  0.5139 -0.8576 -0.1610
27636SOL    HW194633   6.814  12.565   8.174 -0.4487  0.4840 -0.7624
27636SOL    HW294634   6.893  12.680   8.117  1.4542 -0.2181  0.3746
27637SOL     OW94635   2.913   8.405  10.266  0.6646  0.2200  0.1150
27637SOL    HW194636   2.859   8.371  10.337  1.4518  0.2195  0.7247
27637SOL    HW294637   2.856   8.404  10.189 -0.5250  1.1754  0.9602
27638SOL     OW94638  10.981  10.991   0.795  0.0119  0.4756  0.0162
27638SOL    HW194639  10.918  10.945   0.851  1.4166  1.2148  2.3533
27638SOL    HW294640  10.970  10.952   0.709 -0.5078 -2.5618  1.3397
27639SOL     OW94641   0.833   5.986   9.463  0.0255 -0.0157  0.1152
27639SOL    HW194642   0.887   5.974   9.384 -1.3359  1.0228 -1.0172
27639SOL    HW294643   0.886   6.043   9.519 -0.3863  2.1415 -1.5719
27640SOL     OW94644  11.336  11.557   7.600  0.5364  0.1092  0.0367
27640SOL    HW194645  11.282  11.478   7.603 -1.7833  1.5247 -1.2608
27640SOL    HW294646  11.358  11.575   7.691 -0.3420 -1.0911  0.5086
27641SOL     OW94647   0.145   4.495   8.404 -0.5302 -0.3884  0.1254
27641SOL    HW194648   0.213   4.453   8.351  0.7426 -0.9926  2.1235
27641SOL    HW294649   0.192   4.559   8.457 -1.7431  0.1510  0.5854
27642SOL     OW94650  11.367  12.731   5.300 -0.5344  0.4333 -0.2512
27642SOL    HW194651  11.349  12.692   5.385  1.0296  0.3949  0.0884
27642SOL    HW294652  11.443  12.787   5.314 -0.2477  0.4242 -1.6093
27643SOL     OW94653   3.066  12.060   5.484 -0.5208 -0.0300 -0.4937
27643SOL    HW194654   2.986  12.100   5.519  0.9972  1.3873  1.6149
27643SOL    HW294655   3.134  12.127   5.496  0.8212 -0.6946 -3.3620
27644SOL     OW94656   7.716   4.657   6.622  0.7132  0.5221  0.0315
27644SOL    HW194657   7.811   4.652   6.618  0.9401  0.1312  3.1638
27644SOL    HW294658   7.686   4.622   6.538  3.2985  0.8831 -1.1273
27645SOL     OW94659  13.710   6.360  10.613  0.3675  0.2540 -0.4060
27645SOL    HW194660  13.670   6.403  10.689 -0.1784 -1.3390  0.2550
27645SOL    HW294661  13.701   6.267  10.631  0.0389 -0.1836 -2.5379
27646SOL     OW94662   9.102   9.976   6.037  0.3147  0.5063  0.0045
27646SOL    HW194663   9.076  10.044   5.975  0.0713  2.6472  2.3126
27646SOL    HW294664   9.020   9.944   6.074  0.5444  1.4471  1.3938
27647SOL     OW94665  10.258   4.151   2.523  0.0821  0.1706  0.3302
27647SOL    HW194666  10.200   4.204   2.579 -0.7718 -0.4631  0.0685
27647SOL    HW294667  10.305   4.216   2.470 -1.2807  0.6838 -0.3071
27648SOL     OW94668   3.038   8.711  13.176  0.4525  0.4313  0.7078
27648SOL    HW194669   3.023   8.762  13.255  2.4734  1.0644  0.7375
27648SOL    HW294670   3.124   8.739  13.145  0.3556 -0.8732 -0.8956
27649SOL     OW94671   2.882  11.605   0.249  0.2422  0.2171  0.3070
27649SOL    HW194672   2.977  11.610   0.260  0.8780 -2.5670 -2.5031
27649SOL    HW294673   2.869  11.601   0.155 -2.8565  1.8751  0.5432
27650SOL     OW94674  11.401   5.831  12.211  0.3146  0.0459  0.0319
27650SOL    HW194675  11.371   5.742  12.191 -1.9516  0.1212  2.5497
27650SOL    HW294676  11.483   5.818  12.259  0.7068 -0.5575 -0.7627
27651SOL     OW94677   2.268  10.270   4.258  0.3259 -0.0147 -0.2287
27651SOL    HW194678   2.202  10.284   4.190 -1.0471  2.3552  1.4606
27651SOL    HW294679   2.270  10.175   4.270 -0.3212 -0.3910 -2.6199
27652SOL     OW94680  11.628   1.624   2.300 -0.1113  0.1123 -0.1649
27652SOL    HW194681  11.637   1.546   2.355  0.0691  0.8681  0.9207
27652SOL    HW294682  11.708   1.675   2.318 -0.3586  0.6760 -0.6394
27653SOL     OW94683   2.805   3.345   9.541  0.1173 -0.3081 -0.5513
27653SOL    HW194684   2.791   3.389   9.624 -0.1351  0.1117 -0.8146
27653SOL    HW294685   2.875   3.395   9.499 -0.3130 -0.0261 -0.9402
27654SOL     OW94686   1.806   5.660   5.195  0.1250  0.4588 -0.0298
27654SOL    HW194687   1.712   5.663   5.181  0.1920  1.0955 -0.3505
27654SOL    HW294688   1.824   5.568   5.215 -0.3636  0.0257 -1.4192
27655SOL     OW94689   2.464   6.296   3.431  0.3279  0.3891 -1.1078
27655SOL    HW194690   2.443   6.347   3.509 -2.2678 -1.2038 -0.6471
27655SOL    HW294691   2.462   6.360   3.359  0.4327  1.4702 -0.1727
27656SOL     OW94692  11.704   9.923  12.319  0.5363 -0.0803  0.2535
27656SOL    HW194693  11.641   9.977  12.273  2.0104  0.9110 -0.6832
27656SOL    HW294694  11.765   9.894  12.251  1.3682 -0.6151  1.2011
27657SOL     OW94695   4.090  11.624   6.950  0.6922 -0.6325 -0.1044
27657SOL    HW194696   4.158  11.590   6.892 -0.8692  0.7790 -2.9762
27657SOL    HW294697   4.129  11.702   6.990  1.2545 -0.7157 -0.4814
27658SOL     OW94698   5.198   3.474   1.166  0.6526 -0.4164 -0.4378
27658SOL    HW194699   5.105   3.451   1.162  0.6205 -1.2363  2.8726
27658SOL    HW294700   5.243   3.390   1.167  1.1451 -0.1693  1.7931
27659SOL     OW94701   6.289   4.495   9.376 -0.0002 -0.2246  0.1418
27659SOL    HW194702   6.236   4.427   9.335 -0.8574  0.2805  0.3878
27659SOL    HW294703   6.281   4.478   9.470 -0.1290  0.1498  0.1991
27660SOL     OW94704   0.367   2.121   6.072 -0.1927  0.4581  0.2693
27660SOL    HW194705   0.315   2.056   6.025  1.8051 -0.2881 -1.0648
27660SOL    HW294706   0.334   2.119   6.162 -2.2738 -0.0952 -0.4682
27661SOL     OW94707   3.094   0.679   8.746 -0.2763 -1.2294 -0.7592
27661SOL    HW194708   3.119   0.666   8.654 -2.5234  3.7338 -2.3702
27661SOL    HW294709   3.151   0.749   8.777 -3.3605  1.3016 -0.4216
27662SOL     OW94710   7.252  11.344   0.978 -0.6384  0.1144 -0.1307
27662SOL    HW194711   7.173  11.296   1.001 -2.1001  2.4112 -0.1256
27662SOL    HW294712   7.296  11.359   1.062  0.5316 -2.2196 -0.2459
27663SOL     OW94713  13.145   0.468   0.389  0.1083  0.3593  0.0732
27663SOL    HW194714  13.209   0.466   0.318  0.3812  0.5391  0.3134
27663SOL    HW294715  13.064   0.434   0.350  0.1845  0.7091 -0.3932
27664SOL     OW94716   8.860   5.631   3.315 -0.3410  0.1626 -0.2410
27664SOL    HW194717   8.921   5.618   3.387  0.1364  0.7212 -0.5405
27664SOL    HW294718   8.853   5.545   3.273 -0.7061 -0.1952  0.5231
27665SOL     OW94719   3.885   6.332  13.533  0.0887  0.8998  0.2187
27665SOL    HW194720   3.853   6.342  13.623 -1.9831  1.0183 -0.4859
27665SOL    HW294721   3.872   6.419  13.494 -2.3421 -0.0005 -1.1606
27666SOL     OW94722   0.463  12.388   2.681  0.3553  0.0327 -0.1560
27666SOL    HW194723   0.514  12.309   2.665 -0.5091 -0.6852  0.5118
27666SOL    HW294724   0.386  12.378   2.624  1.4882  1.7052 -2.1286
27667SOL     OW94725   0.965   8.288   9.364 -0.4215 -0.0849  0.1145
27667SOL    HW194726   0.961   8.313   9.457 -0.5597  0.2915  0.0091
27667SOL    HW294727   1.058   8.269   9.349 -0.6362 -1.7558  0.7379
27668SOL     OW94728  11.645  13.678   6.589  0.3362 -0.0783  0.2314
27668SOL    HW194729  11.584  13.605   6.574  0.4261  0.0922 -1.0625
27668SOL    HW294730  11.632  13.736   6.514  0.6690  0.9766  0.9625
27669SOL     OW94731   3.962  13.099  11.247 -0.1252 -0.1744  0.3342
27669SOL    HW194732   4.015  13.139  11.178  1.4346 -1.6381  0.6165
27669SOL    HW294733   3.872  13.125  11.225  0.4418  0.4807 -1.4883
27670SOL     OW94734   9.102   2.944   9.829  0.0635 -0.1641  0.4411
27670SOL    HW194735   9.187   2.962   9.868  1.1189 -0.3413 -1.6088
27670SOL    HW294736   9.041   3.000   9.877  1.6629  1.4892  0.6545
27671SOL     OW94737   7.782  12.954   1.812  0.4550  0.3271  0.1291
27671SOL    HW194738   7.821  12.925   1.895  0.6486 -0.1089 -0.1132
27671SOL    HW294739   7.853  12.948   1.749 -0.4802 -2.4201 -0.7744
27672SOL     OW94740  11.033   8.218   5.458  0.6562  0.1693 -0.2041
27672SOL    HW194741  11.038   8.199   5.551 -1.0337  0.7628  0.0518
27672SOL    HW294742  10.992   8.140   5.420  0.4488  0.3185 -0.2907
27673SOL     OW94743   0.107  11.581   0.014  0.1692 -0.4354 -0.2158
27673SOL    HW194744   0.025  11.624  -0.011  0.6306  2.0142  2.1033
27673SOL    HW294745   0.080  11.495   0.046 -1.4675  0.2308  0.2704
27674SOL     OW94746  12.938   3.405  12.746  0.3046 -0.6932 -0.6356
27674SOL    HW194747  12.849   3.412  12.712  0.7540  0.1329 -1.7024
27674SOL    HW294748  12.985   3.476  12.703  1.4686 -1.0827 -0.0371
27675SOL     OW94749   4.389  12.764  10.573  0.1821  0.2347 -0.1381
27675SOL    HW194750   4.450  12.744  10.644  0.7923 -1.3758 -1.0824
27675SOL    HW294751   4.405  12.856  10.553  1.0960  0.2917  0.7738
27676SOL     OW94752   2.033  13.322  12.085  0.0154  0.0364  0.1346
27676SOL    HW194753   1.951  13.314  12.036 -0.0771 -0.3893  0.3502
27676SOL    HW294754   2.091  13.373  12.028 -0.2171 -0.1283 -0.2512
27677SOL     OW94755   6.580  10.198   4.128  0.1403  0.2975  0.1777
27677SOL    HW194756   6.498  10.216   4.175  1.0973  1.2647  1.5821
27677SOL    HW294757   6.567  10.236   4.041 -1.2054 -0.3461  0.0741
27678SOL     OW94758   7.006   7.691   8.371 -0.5189  0.2532 -0.7245
27678SOL    HW194759   6.980   7.775   8.408 -1.5303 -0.1088 -0.5999
27678SOL    HW294760   6.999   7.629   8.444 -2.0745 -0.3740 -1.3620
27679SOL     OW94761   7.422  11.374  12.924 -0.2924 -0.2342  0.3658
27679SOL    HW194762   7.342  11.338  12.964 -0.6438  0.4134  0.2597
27679SOL    HW294763   7.440  11.316  12.851 -2.1259  1.0303 -1.1728
27680SOL     OW94764   6.875  12.199   8.251 -0.3240 -0.7291 -0.3997
27680SOL    HW194765   6.870  12.144   8.173  0.8193 -2.2690  0.5564
27680SOL    HW294766   6.842  12.144   8.321 -1.0024  0.5099  0.2831
27681SOL     OW94767   2.144   2.817   3.327 -0.2427  0.0446 -0.2035
27681SOL    HW194768   2.142   2.722   3.316  0.7585  0.0779 -0.8349
27681SOL    HW294769   2.232   2.843   3.297 -0.6581  1.2152 -0.4681
27682SOL     OW94770  10.375   5.002  12.383 -0.3965  0.3823  0.4856
27682SOL    HW194771  10.430   4.997  12.462 -1.3883 -0.8576  1.1428
27682SOL    HW294772  10.311   5.071  12.403 -1.0302 -0.3518  1.0425
27683SOL     OW94773  11.109   0.236   2.499 -0.2769  0.6419 -0.3453
27683SOL    HW194774  11.071   0.216   2.414 -0.2662 -0.0265 -0.1958
27683SOL    HW294775  11.067   0.175   2.559  0.5819  0.3114 -0.0740
27684SOL     OW94776  10.606   3.744  11.723  0.0103  0.4342  1.1177
27684SOL    HW194777  10.646   3.660  11.747  1.4566 -0.5147 -3.5334
27684SOL    HW294778  10.670   3.809  11.749  0.1939 -0.1651  2.2237
27685SOL     OW94779   1.404  11.207   8.195  0.0371  0.2976 -0.3914
27685SOL    HW194780   1.494  11.204   8.162  0.3435 -1.1207  0.4773
27685SOL    HW294781   1.413  11.234   8.286 -0.2199 -1.6917  0.2512
27686SOL     OW94782   1.292   7.013   7.047 -0.0482 -0.2880  0.2944
27686SOL    HW194783   1.308   6.919   7.055  0.4900 -0.1958  0.3103
27686SOL    HW294784   1.215   7.029   7.102  0.9841 -0.4044  1.8448
27687SOL     OW94785   2.222   2.737   2.987  0.2854  0.9365  0.4788
27687SOL    HW194786   2.304   2.718   3.033  1.3619  1.0756 -1.2762
27687SOL    HW294787   2.242   2.718   2.895 -2.2743 -0.9653  0.2189
27688SOL     OW94788  13.441  12.627   6.454 -0.5584  0.3407  0.1353
27688SOL    HW194789  13.501  12.556   6.435  0.0598  1.0714 -0.7321
27688SOL    HW294790  13.477  12.670   6.531 -0.1285  0.6003 -0.2106
27689SOL     OW94791   0.101  10.507  13.589  0.1355 -0.3146  0.2947
27689SOL    HW194792   0.114  10.502  13.494  1.5688 -1.1089  0.4869
27689SOL    HW294793   0.081  10.599  13.606  2.2095  0.3737 -0.5651
27690SOL     OW94794   7.016   8.146  12.944  0.2039  0.6202  0.7046
27690SOL    HW194795   7.000   8.239  12.961 -2.6497  0.1563  1.0955
27690SOL    HW294796   6.976   8.130  12.859  0.5658 -0.2861  0.6955
27691SOL     OW94797  12.121   7.205  10.864 -0.0417 -0.4914 -0.2448
27691SOL    HW194798  12.202   7.249  10.888 -1.1469  1.7440 -0.3695
27691SOL    HW294799  12.115   7.216  10.769  0.1218 -1.8167 -0.4339
27692SOL     OW94800   7.196   0.793   1.702  0.4345 -0.0811  0.0064
27692SOL    HW194801   7.168   0.846   1.626 -0.3205  0.4417  0.6272
27692SOL    HW294802   7.285   0.822   1.720  1.2994 -1.4593 -1.7447
27693SOL     OW94803   1.451   9.349  12.040  0.1643 -0.3175  0.4325
27693SOL    HW194804   1.399   9.347  11.960 -1.5110 -0.7502  1.4797
27693SOL    HW294805   1.457   9.442  12.063  2.5126  0.0405 -1.2876
27694SOL     OW94806   2.148  12.294   5.560 -0.1348 -0.1868 -0.4281
27694SOL    HW194807   2.215  12.354   5.528  1.6207 -0.6955  2.0768
27694SOL    HW294808   2.187  12.207   5.552 -1.4380 -0.7438 -1.0844
27695SOL     OW94809   7.021  10.777   5.607 -0.0761 -0.2868  0.5140
27695SOL    HW194810   7.016  10.836   5.682 -0.4910  0.0402  0.2361
27695SOL    HW294811   7.097  10.808   5.558 -0.5998  0.3689  0.0888
27696SOL     OW94812   8.185  12.776   0.898  0.3832 -0.3730 -0.4637
27696SOL    HW194813   8.259  12.833   0.879  0.7522 -0.3795  0.8439
27696SOL    HW294814   8.224  12.690   0.913 -0.2137 -1.1735 -2.9861
27697SOL     OW94815   2.063  11.199   0.165 -0.1917  0.1664  0.0422
27697SOL    HW194816   1.973  11.214   0.193  0.0640  1.4377  0.2399
27697SOL    HW294817   2.117  11.240   0.233  0.5343 -0.3916 -0.1830
27698SOL     OW94818   0.684   8.806   2.271  0.1097  0.5220  0.0117
27698SOL    HW194819   0.632   8.769   2.342  0.9611  0.1747  0.4783
27698SOL    HW294820   0.774   8.800   2.302  0.5824 -0.3117 -1.3877
27699SOL     OW94821   9.390   5.441   9.468 -0.4507  0.2022 -0.0754
27699SOL    HW194822   9.354   5.365   9.423 -0.3428 -0.4670  0.9352
27699SOL    HW294823   9.380   5.421   9.561  0.9860  0.7518  0.2224
27700SOL     OW94824   1.409   9.601  13.436 -0.1370  0.2082  0.0864
27700SOL    HW194825   1.494   9.643  13.445 -1.1723  2.0789  2.3343
27700SOL    HW294826   1.377   9.630  13.350  1.5033 -0.6597 -0.8551
27701SOL     OW94827   5.361  13.624  13.067  0.3732 -0.4327  0.0440
27701SOL    HW194828   5.374  13.643  13.160  0.2939  0.0218 -0.0350
27701SOL    HW294829   5.340  13.530  13.064 -1.2669 -0.1267  0.6597
27702SOL     OW94830   5.605   3.578  10.977 -0.1234 -0.2593  0.3358
27702SOL    HW194831   5.672   3.520  10.942  1.8107  1.6575  0.5979
27702SOL    HW294832   5.552   3.602  10.902  1.2487  0.3351 -0.4859
27703SOL     OW94833   2.793   2.686   5.823  0.4033 -0.1365 -0.3991
27703SOL    HW194834   2.863   2.718   5.881 -0.3525  1.5462 -0.3461
27703SOL    HW294835   2.796   2.744   5.748 -1.8027  0.9170  0.2298
27704SOL     OW94836  10.117   4.970   3.650  0.4426  0.0807  0.5708
27704SOL    HW194837  10.164   4.925   3.719 -0.4994 -1.1442  0.4459
27704SOL    HW294838  10.152   5.059   3.651  0.8128 -0.0516  2.2656
27705SOL     OW94839   1.197   2.760   2.010  0.1461  0.2152 -0.2074
27705SOL    HW194840   1.216   2.722   2.095 -0.7458 -0.9372 -0.4899
27705SOL    HW294841   1.144   2.694   1.966 -3.7663  2.7289  0.2212
27706SOL     OW94842   2.777   2.610   8.191  0.3396 -0.1683  0.2927
27706SOL    HW194843   2.780   2.602   8.286  1.1034 -2.7210  0.1221
27706SOL    HW294844   2.868   2.603   8.163 -0.0646 -2.1487 -0.7213
27707SOL     OW94845   9.824   0.208  10.419  0.0091 -0.3760 -0.1315
27707SOL    HW194846   9.731   0.218  10.439 -0.2653 -1.9625 -0.4678
27707SOL    HW294847   9.829   0.212  10.323  0.3095 -0.2299 -0.1143
27708SOL     OW94848   6.521   4.036   6.023 -0.5638  0.3868 -0.5043
27708SOL    HW194849   6.474   4.113   6.055 -1.2198 -0.2301  0.0255
27708SOL    HW294850   6.504   4.034   5.929 -1.1448  0.4748 -0.3999
27709SOL     OW94851   3.090   1.668   3.720  0.2196  0.0014 -0.2236
27709SOL    HW194852   3.028   1.714   3.777  1.7210 -0.1895  1.6499
27709SOL    HW294853   3.175   1.707   3.741  1.0610 -1.3037 -1.0808
27710SOL     OW94854   6.736   2.983   8.239 -0.1155  0.1319 -0.2100
27710SOL    HW194855   6.784   2.908   8.274 -0.4408  0.0351  0.0415
27710SOL    HW294856   6.712   2.956   8.150 -0.4448 -0.1662 -0.0348
27711SOL     OW94857   8.377   8.986   8.407 -0.1496 -0.3585  0.0275
27711SOL    HW194858   8.459   8.965   8.363  0.2510  0.6288  0.2619
27711SOL    HW294859   8.324   8.906   8.400  1.2210 -1.3594  0.7924
27712SOL     OW94860  10.181   1.577   9.575  0.0712 -0.0065  0.3620
27712SOL    HW194861  10.143   1.640   9.635  2.0596  2.2038 -0.4950
27712SOL    HW294862  10.268   1.559   9.611  1.7109  2.1346 -2.1698
27713SOL     OW94863   1.501   1.438  12.659  0.1309 -0.0070 -0.3172
27713SOL    HW194864   1.408   1.423  12.643 -0.3226  1.0171  1.1449
27713SOL    HW294865   1.545   1.403  12.581 -1.4885 -0.1606 -1.2003
27714SOL     OW94866   3.195   6.326   2.252  0.1407  0.4972 -0.0727
27714SOL    HW194867   3.100   6.318   2.245  0.1281  1.3514 -1.0068
27714SOL    HW294868   3.226   6.334   2.162  1.1647 -0.3265  0.1774
27715SOL     OW94869   7.545  10.757   3.693 -0.1089  0.4817 -0.0635
27715SOL    HW194870   7.479  10.761   3.624  0.0674 -2.8119 -0.6020
27715SOL    HW294871   7.622  10.721   3.649  0.2037 -1.1106  1.6720
27716SOL     OW94872   4.388  11.911  13.473  0.4274 -0.0014 -0.1091
27716SOL    HW194873   4.419  11.968  13.403 -0.8676 -0.8411 -1.4346
27716SOL    HW294874   4.450  11.923  13.544  2.1149  0.4636 -1.6030
27717SOL     OW94875   0.892   6.890  12.706  0.4090 -0.1462 -0.2802
27717SOL    HW194876   0.849   6.892  12.791 -0.3114 -0.3279 -0.6367
27717SOL    HW294877   0.832   6.841  12.649  0.8810 -0.0306 -0.8943
27718SOL     OW94878  12.667  13.377   6.573 -0.0582 -0.0476 -0.5628
27718SOL    HW194879  12.754  13.342   6.556  0.7971  1.5363  0.3521
27718SOL    HW294880  12.638  13.330   6.652  0.4091  0.1622 -0.2624
27719SOL     OW94881   6.131   2.396   6.962 -0.4009 -0.1688  0.1541
27719SOL    HW194882   6.215   2.439   6.980 -0.3788  0.4723 -1.3136
27719SOL    HW294883   6.138   2.366   6.871 -1.5293 -0.6885  0.2152
27720SOL     OW94884   0.856  12.730   6.252  0.5338 -1.3216 -0.4644
27720SOL    HW194885   0.845  12.795   6.321  3.3993 -1.2992  0.0975
27720SOL    HW294886   0.892  12.780   6.178  1.1003 -1.9548 -0.6285
27721SOL     OW94887  13.367   2.311   9.514 -0.2582  0.3288 -0.1088
27721SOL    HW194888  13.457   2.282   9.499  0.0274 -0.3921  2.5341
27721SOL    HW294889  13.324   2.237   9.557 -2.6175  0.0961 -2.5689
27722SOL     OW94890   6.948   5.896   9.707  0.6511 -0.0280  0.1266
27722SOL    HW194891   6.857   5.916   9.685  0.5597  0.0423  0.5632
27722SOL    HW294892   6.997   5.975   9.682  0.6053 -0.0890 -0.1647
27723SOL     OW94893   2.308   4.213   1.712  0.1492  0.3491  0.2640
27723SOL    HW194894   2.302   4.295   1.662 -2.1641 -0.8451 -1.5689
27723SOL    HW294895   2.401   4.191   1.709  0.4911  1.7862 -1.0801
27724SOL     OW94896  13.536   3.641   3.782 -0.1392 -0.1855  0.4361
27724SOL    HW194897  13.501   3.593   3.707 -1.7209  0.9433  0.3822
27724SOL    HW294898  13.461   3.650   3.841  0.7771 -0.0230  1.6051
27725SOL     OW94899   2.254   0.870  11.215  0.4474  0.5916  0.3135
27725SOL    HW194900   2.204   0.859  11.135  0.5380 -0.1567  0.3521
27725SOL    HW294901   2.230   0.794  11.269  1.7437  0.1097  0.2565
27726SOL     OW94902   7.963  11.012   8.974 -0.0581  0.7680 -0.0087
27726SOL    HW194903   7.956  11.107   8.986  1.5798  1.1120 -1.4166
27726SOL    HW294904   8.038  10.987   9.028  0.0853  0.4337 -0.3634
27727SOL     OW94905   5.539   1.569   1.888  0.1555  0.0431  0.2379
27727SOL    HW194906   5.519   1.524   1.970  2.9034  0.9483  1.5224
27727SOL    HW294907   5.620   1.529   1.857 -0.6655 -0.0729 -1.9160
27728SOL     OW94908   8.946   8.207   4.799  0.0556  0.1167  0.0474
27728SOL    HW194909   8.885   8.142   4.763 -0.8530 -0.0451  1.7748
27728SOL    HW294910   9.004   8.156   4.855  0.5697  0.5419 -0.0958
27729SOL     OW94911   9.651   4.092   4.203 -0.1957 -0.5319 -0.3340
27729SOL    HW194912   9.716   4.050   4.260 -0.0648  1.3408  0.9717
27729SOL    HW294913   9.578   4.030   4.200  0.6999 -1.6475  0.0409
27730SOL     OW94914   7.773   0.532  10.643  0.0334  0.1228  0.7607
27730SOL    HW194915   7.789   0.541  10.736 -0.1248  0.1708  0.7845
27730SOL    HW294916   7.836   0.467  10.613  0.8464  0.9323  0.6880
27731SOL     OW94917   1.168  13.374  10.635 -0.3879  0.1473 -0.4912
27731SOL    HW194918   1.093  13.419  10.595 -0.8799 -1.1890 -1.1256
27731SOL    HW294919   1.139  13.355  10.724 -0.2444  0.8868 -0.2738
27732SOL     OW94920   5.546   5.720   7.482 -0.3468  0.0392  0.1712
27732SOL    HW194921   5.474   5.689   7.537 -0.7154  0.7165  0.0790
27732SOL    HW294922   5.615   5.742   7.544 -1.4285  2.6185  0.5738
27733SOL     OW94923   3.292   1.432   5.019 -0.4785  0.2966 -0.0794
27733SOL    HW194924   3.306   1.349   4.974 -1.3005  0.0984  0.0193
27733SOL    HW294925   3.360   1.433   5.087  0.2027  0.1961 -0.7406
27734SOL     OW94926   4.075   6.641   8.478 -0.0778 -0.7217 -0.3634
27734SOL    HW194927   4.002   6.581   8.467 -1.4771  0.7822  0.3754
27734SOL    HW294928   4.036   6.729   8.472  1.6057  0.1304  0.3676
27735SOL     OW94929   2.810  13.561   2.767 -0.0975  0.1493  0.2506
27735SOL    HW194930   2.799  13.547   2.673  2.0005 -1.0007  0.1073
27735SOL    HW294931   2.783  13.479   2.808  0.9550 -0.1173  0.4462
27736SOL     OW94932   4.758   1.371  13.105 -0.0799  0.6025 -0.9835
27736SOL    HW194933   4.672   1.402  13.132  0.4179  1.1147  0.1154
27736SOL    HW294934   4.775   1.413  13.021 -0.5763  1.1154 -0.8289
27737SOL     OW94935   3.047   7.320   7.967 -0.3939  0.4963  0.2871
27737SOL    HW194936   3.015   7.409   7.954  0.6464  0.6885 -1.3005
27737SOL    HW294937   3.036   7.278   7.881  0.9855 -0.2654  0.4556
27738SOL     OW94938   0.398  11.792   8.493 -0.0256  0.5040  0.3530
27738SOL    HW194939   0.313  11.753   8.473  0.8933 -1.6464  0.4058
27738SOL    HW294940   0.378  11.865   8.552 -1.7573 -0.6593  1.2875
27739SOL     OW94941   0.989   8.903   1.232  0.0947 -0.5912 -0.0020
27739SOL    HW194942   0.928   8.971   1.259  0.1232  0.0003 -1.3474
27739SOL    HW294943   0.965   8.827   1.284  0.3438  0.5459  1.8601
27740SOL     OW94944   4.212   7.148  11.513 -0.2876  0.3517  0.3477
27740SOL    HW194945   4.222   7.198  11.431 -1.0268  1.4326  0.8771
27740SOL    HW294946   4.298   7.109  11.529  0.4345  1.7539  0.0717
27741SOL     OW94947   3.760   3.955  11.525 -0.1079 -0.0767  0.3654
27741SOL    HW194948   3.798   4.038  11.553 -1.4559  0.8617 -0.4884
27741SOL    HW294949   3.750   3.964  11.430  1.3079 -1.8963 -0.0076
27742SOL     OW94950  12.438  11.841   7.954 -0.2961 -0.3587 -0.4489
27742SOL    HW194951  12.358  11.874   7.994  0.7746  0.6212  1.0183
27742SOL    HW294952  12.453  11.899   7.880 -0.6816 -0.2245 -0.4234
27743SOL     OW94953   6.546   5.090  10.027 -0.2481 -0.0864  0.3637
27743SOL    HW194954   6.477   5.120  10.086 -0.8188 -1.1798  0.2650
27743SOL    HW294955   6.627   5.121  10.068 -0.7251  0.3276  1.0163
27744SOL     OW94956  10.997   8.560   4.972 -0.6977 -0.6228 -0.1768
27744SOL    HW194957  11.090   8.539   4.959 -0.6846 -0.1641 -0.8710
27744SOL    HW294958  10.992   8.654   4.955 -1.3243 -0.6808 -0.3040
27745SOL     OW94959  13.431   7.189  11.186  0.2993  0.0315  0.0451
27745SOL    HW194960  13.337   7.188  11.204  0.6203  1.3513  2.2076
27745SOL    HW294961  13.470   7.218  11.268  2.5906 -0.2370 -0.8896
27746SOL     OW94962   0.892  12.665   1.895  0.0980 -0.0077  0.4381
27746SOL    HW194963   0.949  12.687   1.969 -0.7629  1.5582  0.6896
27746SOL    HW294964   0.879  12.749   1.850 -1.6055 -0.3994  0.1317
27747SOL     OW94965   6.704   9.310   9.635 -0.4733 -0.5871 -0.0647
27747SOL    HW194966   6.674   9.247   9.700  2.6995 -1.2524  0.8901
27747SOL    HW294967   6.700   9.263   9.552 -1.5090 -0.8056  0.0941
27748SOL     OW94968   7.088   7.064   8.700 -0.3142 -0.0058 -0.3682
27748SOL    HW194969   6.994   7.076   8.712 -0.0881  0.8134  0.8260
27748SOL    HW294970   7.120   7.032   8.785  0.6307  0.8791 -0.3513
27749SOL     OW94971   4.771  13.153   6.353  0.1136 -0.3020  0.2710
27749SOL    HW194972   4.825  13.091   6.401  2.3232 -0.4569 -2.1419
27749SOL    HW294973   4.813  13.238   6.369 -1.4030  0.2588  1.5491
27750SOL     OW94974   3.059   7.860   4.622 -0.7842  0.1649 -0.1598
27750SOL    HW194975   2.972   7.867   4.661 -0.8914 -0.1827 -0.3378
27750SOL    HW294976   3.098   7.783   4.663 -1.1436 -0.5985 -1.2030
27751SOL     OW94977   3.619   9.055  13.278  0.0826 -0.1343 -0.0808
27751SOL    HW194978   3.554   8.985  13.281  0.8786 -0.8838 -0.0912
27751SOL    HW294979   3.620   9.091  13.367 -1.8546  1.3240 -0.5671
27752SOL     OW94980  13.009   6.545   7.302  0.0976  0.2396 -0.1065
27752SOL    HW194981  13.083   6.589   7.342 -0.5227 -0.8045  2.3614
27752SOL    HW294982  13.021   6.452   7.325 -2.3469  0.1402  1.0930
27753SOL     OW94983  10.439   4.242  13.592 -0.2548 -0.2174 -0.3801
27753SOL    HW194984  10.422   4.177  13.525 -0.5829  0.7527 -1.2589
27753SOL    HW294985  10.458   4.191  13.671  2.7558 -1.4797 -1.7596
27754SOL     OW94986   1.629  10.384   4.998 -0.2811 -0.3917  0.0031
27754SOL    HW194987   1.606  10.471   4.968 -1.5473 -0.8480 -0.4032
27754SOL    HW294988   1.685  10.399   5.074 -0.9390  0.7701  0.2821
27755SOL     OW94989   6.209   7.562   0.036  0.1399 -0.1680 -0.0396
27755SOL    HW194990   6.132   7.578   0.092  0.1734 -2.9965  0.9882
27755SOL    HW294991   6.174   7.564  -0.053 -0.5577  1.2800  0.2357
27756SOL     OW94992   3.251   9.375  10.094 -0.2766  0.6708 -0.0108
27756SOL    HW194993   3.205   9.453  10.122 -1.0789 -0.4657  2.0888
27756SOL    HW294994   3.186   9.323  10.047  0.4225  1.4981 -1.9634
27757SOL     OW94995   1.594   3.798   2.963  0.3831 -0.4409  0.8468
27757SOL    HW194996   1.501   3.772   2.964  0.4318 -0.6876 -0.1015
27757SOL    HW294997   1.609   3.836   3.049 -1.1297  1.4682  0.3373
27758SOL     OW94998  10.095   0.914   6.579 -0.1816  0.6943  0.3910
27758SOL    HW194999  10.005   0.922   6.611 -0.6506 -1.0639 -0.3889
27758SOL    HW295000  10.124   1.004   6.567 -1.6871  1.3019  1.0611
27759SOL     OW95001   9.585  12.221  12.180 -0.4163  0.3971 -0.0647
27759SOL    HW195002   9.552  12.134  12.202  0.4630 -0.3232 -1.4516
27759SOL    HW295003   9.547  12.240  12.094  3.0895 -0.7563 -2.0698
27760SOL     OW95004   3.333  10.220   8.478  0.7707 -0.0630 -0.4561
27760SOL    HW195005   3.417  10.215   8.433 -0.1574 -0.6387 -2.1973
27760SOL    HW295006   3.270  10.238   8.409 -0.8585 -2.0994  0.4186
27761SOL     OW95007   2.745   1.672   3.906 -0.9367  0.6962 -0.0146
27761SOL    HW195008   2.754   1.580   3.882 -0.2651  1.3052 -2.3205
27761SOL    HW295009   2.755   1.673   4.001  0.4353 -1.4604 -0.0659
27762SOL     OW95010   9.311  12.601  10.497 -0.3783  0.1243  0.1811
27762SOL    HW195011   9.340  12.671  10.557 -0.3856  0.9388 -0.7458
27762SOL    HW295012   9.331  12.520  10.544  2.6449  0.6338 -0.0096
27763SOL     OW95013   2.897   2.616   3.668 -0.0712 -0.6754  0.0887
27763SOL    HW195014   2.837   2.661   3.608  0.1442  2.4501  1.9565
27763SOL    HW295015   2.981   2.660   3.656  0.3159 -0.9131  1.6563
27764SOL     OW95016   7.537  13.433   6.146  0.1391 -0.1437  0.2061
27764SOL    HW195017   7.589  13.501   6.190 -0.5986  1.5476 -1.4139
27764SOL    HW295018   7.572  13.430   6.057 -0.9156 -0.7587 -0.2019
27765SOL     OW95019   2.980  10.720   3.830  0.7518 -0.0243 -0.1759
27765SOL    HW195020   2.922  10.718   3.907 -0.7398 -1.0048 -1.2636
27765SOL    HW295021   3.023  10.806   3.834 -3.4004  2.3847 -1.1356
27766SOL     OW95022   1.606  12.040   9.377  0.9011  0.3773  0.4399
27766SOL    HW195023   1.544  12.041   9.449  2.9566  1.6712  2.2969
27766SOL    HW295024   1.558  12.079   9.303 -0.0650  2.7563  2.2160
27767SOL     OW95025   7.779  13.254   9.273 -0.6178  0.0426 -0.5494
27767SOL    HW195026   7.813  13.315   9.208  1.6007 -1.1815 -0.6280
27767SOL    HW295027   7.816  13.169   9.248 -1.7462 -0.9138  0.8767
27768SOL     OW95028   3.439   8.155   2.404 -0.0778  0.3631  0.5363
27768SOL    HW195029   3.381   8.115   2.339  0.5433 -0.2098  0.3186
27768SOL    HW295030   3.404   8.243   2.416  0.2765  0.7807 -1.2156
27769SOL     OW95031  12.420  10.627  12.474 -0.2597 -0.4024 -0.0096
27769SOL    HW195032  12.486  10.558  12.462 -0.3014 -0.0891 -2.4608
27769SOL    HW295033  12.407  10.631  12.569  2.7314 -0.9385  0.5174
27770SOL     OW95034   6.982   2.408   9.595 -0.1479  0.2446 -0.3382
27770SOL    HW195035   7.008   2.366   9.677  0.4656  1.4656  0.1234
27770SOL    HW295036   7.030   2.491   9.595 -1.9710  1.3551 -0.7793
27771SOL     OW95037  13.098   1.545   2.825  0.3803  0.2599 -0.1258
27771SOL    HW195038  13.179   1.566   2.872  0.4383  0.2983 -0.2443
27771SOL    HW295039  13.029   1.560   2.890  0.4750  0.1207  0.0097
27772SOL     OW95040  10.446  10.299  11.489  0.6874  0.3348 -0.3568
27772SOL    HW195041  10.530  10.338  11.513 -1.0703  3.0440  1.9670
27772SOL    HW295042  10.395  10.372  11.455 -1.8745 -0.4292  1.6101
27773SOL     OW95043   1.488   7.594   9.801 -0.4150  0.6846 -0.1889
27773SOL    HW195044   1.426   7.648   9.851 -1.5173 -0.7257  0.0567
27773SOL    HW295045   1.441   7.573   9.721  0.4419  1.0003 -0.7819
27774SOL     OW95046   2.527   7.249   6.503  0.4716 -0.2099 -0.0544
27774SOL    HW195047   2.595   7.257   6.570 -0.4383 -0.7793  0.9583
27774SOL    HW295048   2.574   7.219   6.425  1.2305 -1.7799  0.9601
27775SOL     OW95049   9.628  10.976  11.264  0.5626 -0.1154  0.2140
27775SOL    HW195050   9.657  11.034  11.334  3.3533 -0.4999 -0.4795
27775SOL    HW295051   9.658  11.019  11.184  1.6417 -1.8744 -0.3884
27776SOL     OW95052  13.079   1.902   1.646  0.4241 -0.4682 -0.3173
27776SOL    HW195053  13.019   1.964   1.689  1.2640  0.0207  0.1870
27776SOL    HW295054  13.086   1.829   1.708 -1.6753 -1.7756 -1.5364
27777SOL     OW95055   5.542   1.136   8.943  0.4395 -0.8333 -0.8262
27777SOL    HW195056   5.496   1.059   8.976 -0.3358 -0.0045  0.0864
27777SOL    HW295057   5.477   1.181   8.888  0.8550 -0.7765 -1.2789
27778SOL     OW95058  11.069   1.066   2.126 -0.0407  0.0399  0.2094
27778SOL    HW195059  11.107   1.003   2.188  1.4108  0.2509 -0.4194
27778SOL    HW295060  11.087   1.027   2.040  0.6728  1.1871 -0.1789
27779SOL     OW95061  10.637   3.657   2.259 -0.8336  0.1331 -0.1097
27779SOL    HW195062  10.609   3.691   2.174  0.2074  1.1342 -0.0811
27779SOL    HW295063  10.694   3.725   2.294 -0.9053 -0.4559  1.2107
27780SOL     OW95064  11.693  12.131   4.063  0.2003 -0.0121 -0.5752
27780SOL    HW195065  11.750  12.056   4.046 -1.7971 -1.2673 -2.2717
27780SOL    HW295066  11.715  12.194   3.994 -0.2031 -0.3748 -1.0497
27781SOL     OW95067  12.440   5.158   7.108  0.1033  0.4358 -0.2221
27781SOL    HW195068  12.396   5.130   7.027 -0.2343  0.1406  0.0588
27781SOL    HW295069  12.512   5.095   7.118 -0.1346  0.1881 -0.0495
27782SOL     OW95070   8.306   6.884   1.517  0.0490  0.0516 -0.2428
27782SOL    HW195071   8.287   6.947   1.586  1.5164 -1.5445  1.7544
27782SOL    HW295072   8.221   6.845   1.495 -0.3362 -0.1808  1.5048
27783SOL     OW95073   6.527   2.843   5.238 -0.1093  0.1418 -0.0754
27783SOL    HW195074   6.528   2.757   5.197 -2.2650 -0.6779  1.4024
27783SOL    HW295075   6.618   2.859   5.264  0.5143 -1.1600 -1.3428
27784SOL     OW95076  12.112  12.289  13.535  0.0360  0.3937 -0.0491
27784SOL    HW195077  12.143  12.375  13.564  1.2512  0.2281 -0.7740
27784SOL    HW295078  12.181  12.257  13.478  0.2837 -1.7062  1.3275
27785SOL     OW95079  11.816  12.481   9.340  0.3889  0.4403 -0.9113
27785SOL    HW195080  11.752  12.432   9.287  0.6294 -1.3932  0.4137
27785SOL    HW295081  11.889  12.498   9.280  0.0857 -0.4125 -1.5397
27786SOL     OW95082   6.958  11.775   4.368  0.4296  0.5303 -0.3190
27786SOL    HW195083   7.021  11.818   4.310 -0.1580 -0.5936 -1.8621
27786SOL    HW295084   6.954  11.831   4.445  1.1514  2.1542 -1.4171
27787SOL     OW95085  10.357   4.689   9.872 -0.6323 -0.2037  0.3541
27787SOL    HW195086  10.344   4.606   9.917 -0.6832 -0.7299 -0.6126
27787SOL    HW295087  10.381   4.751   9.942  0.4725 -1.2619  0.9447
27788SOL     OW95088   0.843   4.033   4.434 -0.2941 -0.1612 -0.2994
27788SOL    HW195089   0.818   3.990   4.516  0.9454  0.6745  0.5612
27788SOL    HW295090   0.845   4.127   4.456 -1.5860  0.2416 -1.7561
27789SOL     OW95091   0.773  11.033   2.516  0.1884 -0.8308 -0.2922
27789SOL    HW195092   0.716  10.961   2.545 -2.8814  0.9552 -1.4074
27789SOL    HW295093   0.762  11.101   2.583  0.1097 -0.0266 -1.1043
27790SOL     OW95094   8.090  12.074   6.170 -0.0125 -0.4109  0.6859
27790SOL    HW195095   7.996  12.056   6.169 -0.4350  1.5959 -0.4215
27790SOL    HW295096   8.109  12.094   6.262 -1.1393  1.2625  0.6001
27791SOL     OW95097   7.258   8.592   0.312 -0.9414  0.3276  0.2135
27791SOL    HW195098   7.235   8.517   0.366 -0.8381  0.3642  0.3092
27791SOL    HW295099   7.353   8.597   0.316 -0.9042  0.1098 -0.2673
27792SOL     OW95100   3.082  12.600  13.126  0.3967 -0.1712  0.3400
27792SOL    HW195101   3.093  12.515  13.084 -1.8833 -0.1352 -0.4218
27792SOL    HW295102   3.061  12.579  13.217  0.2616 -0.4133  0.2527
27793SOL     OW95103   0.389  13.547   8.303 -0.0106 -0.5031  0.4321
27793SOL    HW195104   0.302  13.510   8.319 -0.7914  0.2576 -1.6349
27793SOL    HW295105   0.438  13.475   8.262 -0.1908 -0.4884  0.1835
27794SOL     OW95106   9.902   1.514   8.394 -0.0691 -0.1932 -0.4264
27794SOL    HW195107   9.819   1.508   8.440 -0.1281  3.4693  0.2822
27794SOL    HW295108   9.877   1.534   8.303 -0.0993  1.9699 -0.0069
27795SOL     OW95109  12.605   5.265   7.633 -0.0669  0.7232  0.4879
27795SOL    HW195110  12.530   5.304   7.678  0.0625  2.0658 -0.3980
27795SOL    HW295111  12.567   5.217   7.559 -0.0931  0.8407  0.4254
27796SOL     OW95112   0.739   5.232  11.662  0.6016 -0.2236  0.1798
27796SOL    HW195113   0.734   5.327  11.657 -0.2221 -0.1896  1.2423
27796SOL    HW295114   0.648   5.203  11.669  0.8587 -1.0596  0.2278
27797SOL     OW95115   9.106   0.183  10.012 -0.3450  0.1370  0.3101
27797SOL    HW195116   9.124   0.185   9.918  0.2238 -2.2948  0.2918
27797SOL    HW295117   9.026   0.235  10.022  0.1327  1.2854 -1.3444
27798SOL     OW95118   8.407  11.219   7.999  0.2198 -0.1240  0.0763
27798SOL    HW195119   8.342  11.215   7.929  1.0236  0.0934 -0.7004
27798SOL    HW295120   8.380  11.151   8.061 -1.2306  0.5407  0.2159
27799SOL     OW95121  11.856   4.177   0.135  0.2459 -0.1036  0.1854
27799SOL    HW195122  11.857   4.086   0.166  2.0876 -0.1868  0.0122
27799SOL    HW295123  11.928   4.219   0.182  0.3997  0.8617 -0.8696
27800SOL     OW95124  13.599   3.292   5.434  0.3718  0.0246 -0.5028
27800SOL    HW195125  13.684   3.321   5.400  0.6042  0.1495  0.1556
27800SOL    HW295126  13.556   3.252   5.360  0.2581  1.5731 -1.3121
27801SOL     OW95127   9.066   4.926   6.801 -0.3048  0.1391  0.2979
27801SOL    HW195128   8.998   4.889   6.745  1.0355 -1.3304 -0.4290
27801SOL    HW295129   9.147   4.885   6.771  1.0284  2.3563  0.6779
27802SOL     OW95130  10.244  11.035  12.028  0.4511 -0.2201  0.3320
27802SOL    HW195131  10.292  10.955  12.051  0.4097 -1.1004 -2.3071
27802SOL    HW295132  10.294  11.072  11.955 -0.8335  0.8796 -0.0236
27803SOL     OW95133   8.162   0.098   6.891 -0.5731  0.4095 -0.1123
27803SOL    HW195134   8.131   0.177   6.937  0.3432  0.5773  0.2281
27803SOL    HW295135   8.090   0.036   6.901 -0.6726  0.6763  0.9735
27804SOL     OW95136  13.278   4.985   3.727  0.5296 -0.1745  0.2283
27804SOL    HW195137  13.314   4.951   3.808  0.2222 -1.0571  0.0035
27804SOL    HW295138  13.236   5.068   3.752  1.0613 -0.0835  0.8279
27805SOL     OW95139   7.272  10.908   6.999 -0.1018  0.2008 -0.5093
27805SOL    HW195140   7.313  10.911   6.912  0.4321  0.8125 -0.2402
27805SOL    HW295141   7.340  10.936   7.059 -0.0187 -1.6200  0.3001
27806SOL     OW95142   7.599   0.025  10.168 -0.1009 -0.7127 -0.2240
27806SOL    HW195143   7.675  -0.020  10.205  0.1890  0.1174  0.2406
27806SOL    HW295144   7.627   0.053  10.081  0.6754  0.8271  0.4640
27807SOL     OW95145   3.444   6.417  10.321 -0.4234 -0.7009 -0.5602
27807SOL    HW195146   3.519   6.461  10.280 -0.3413  0.7454  1.0130
27807SOL    HW295147   3.373   6.482  10.318 -1.3878 -1.7463 -1.2747
27808SOL     OW95148   1.605   6.602   9.132  0.5100 -0.5104 -0.1130
27808SOL    HW195149   1.651   6.523   9.104  0.3325 -0.1385 -1.4926
27808SOL    HW295150   1.637   6.671   9.074  2.2593  0.9495  2.3748
27809SOL     OW95151   0.859   7.208   0.754 -0.4865 -0.1699  0.1347
27809SOL    HW195152   0.791   7.217   0.688 -0.2499 -1.0394 -0.2423
27809SOL    HW295153   0.888   7.297   0.771 -3.1992  0.4740  1.9049
27810SOL     OW95154  13.099   7.833   6.426  0.3462 -0.0408  0.3498
27810SOL    HW195155  13.159   7.764   6.398  0.1966 -0.0259 -0.0019
27810SOL    HW295156  13.157   7.907   6.446  0.3461  0.5042 -1.5215
27811SOL     OW95157   6.529   8.212   8.316  0.3907  0.4202 -0.4391
27811SOL    HW195158   6.457   8.153   8.336  0.6362  0.5008  0.7573
27811SOL    HW295159   6.580   8.217   8.397  0.7099  1.7997 -0.6860
27812SOL     OW95160   0.766   3.619  13.588  0.1860  0.3856  0.1240
27812SOL    HW195161   0.798   3.573  13.511 -1.1738 -0.2749 -0.0756
27812SOL    HW295162   0.770   3.555  13.659 -1.2557  0.0594 -0.0503
27813SOL     OW95163   2.906   2.645  12.733  0.8447  0.3520 -0.3785
27813SOL    HW195164   2.919   2.569  12.677  1.0273  0.7224 -0.8458
27813SOL    HW295165   2.891   2.717  12.672 -0.0397  0.5586  0.0764
27814SOL     OW95166   2.102   6.491  12.442  0.1950 -0.4788  0.0598
27814SOL    HW195167   2.138   6.472  12.528 -0.6143  0.2520  0.5628
27814SOL    HW295168   2.072   6.406  12.409  0.9545 -0.8396  0.2729
27815SOL     OW95169  10.136   4.602   6.285 -0.0915 -0.0662  0.2971
27815SOL    HW195170  10.155   4.690   6.253 -2.3016  0.4600  0.2244
27815SOL    HW295171  10.180   4.596   6.369 -1.0595  1.6644  0.9642
27816SOL     OW95172   0.486   2.409   6.344  0.1121  0.5971  0.5383
27816SOL    HW195173   0.530   2.491   6.321  0.1717  0.5591  0.5157
27816SOL    HW295174   0.533   2.342   6.294  0.0144  0.5587  0.4979
27817SOL     OW95175   2.176  12.309   4.664  0.1225 -0.0142 -0.8442
27817SOL    HW195176   2.210  12.258   4.737 -0.6301  0.2331 -0.3044
27817SOL    HW295177   2.253  12.332   4.612  0.7120  0.1083  0.0610
27818SOL     OW95178  11.138   9.667   5.489  0.0500  0.3569  0.1745
27818SOL    HW195179  11.096   9.616   5.420 -0.4655 -0.3266  0.9757
27818SOL    HW295180  11.072   9.731   5.515  0.2388  0.6055  0.0449
27819SOL     OW95181  12.960   3.082  11.350 -0.3221 -0.0349 -0.2497
27819SOL    HW195182  13.005   3.148  11.297 -0.7036  0.2081 -0.2789
27819SOL    HW295183  13.017   3.068  11.425  0.9194 -1.4130 -1.4002
27820SOL     OW95184   0.686   4.904  11.175 -0.0535 -0.3881  0.2968
27820SOL    HW195185   0.639   4.861  11.103  1.5613 -1.0895 -0.4123
27820SOL    HW295186   0.779   4.887  11.155  0.4910  0.7552  1.7215
27821SOL     OW95187   4.137  12.320   0.684 -0.3018  0.2628 -0.1813
27821SOL    HW195188   4.111  12.330   0.775 -0.1505  0.5872 -0.1729
27821SOL    HW295189   4.164  12.408   0.657  0.9464 -0.0883 -0.1386
27822SOL     OW95190   3.406   7.333   9.685 -0.6214 -0.3096 -0.2588
27822SOL    HW195191   3.420   7.347   9.778 -0.5568 -1.8409 -0.0178
27822SOL    HW295192   3.342   7.400   9.660 -1.8701 -0.8907  1.2365
27823SOL     OW95193  12.279  11.034   7.425 -0.5615  0.4624  0.1769
27823SOL    HW195194  12.324  10.996   7.349  0.6814 -0.4733  1.3288
27823SOL    HW295195  12.261  10.959   7.482 -0.6361  1.2472  1.2164
27824SOL     OW95196   0.857   9.975  13.591  0.3154  0.6596 -0.5701
27824SOL    HW195197   0.805   9.910  13.638  1.2147 -0.7924 -1.5432
27824SOL    HW295198   0.798  10.051  13.584 -1.2156 -0.4767 -0.5457
27825SOL     OW95199   0.072   4.055  10.342 -0.1239 -0.3788  0.6312
27825SOL    HW195200  -0.016   4.017  10.332 -0.2110 -0.2584  0.9050
27825SOL    HW295201   0.060   4.148  10.324  0.2153 -0.5746 -0.6985
27826SOL     OW95202   7.992  10.833   2.936  0.0849  0.8072  0.2943
27826SOL    HW195203   8.061  10.898   2.934  0.2256  0.7859  2.3722
27826SOL    HW295204   7.912  10.882   2.917  0.5473  0.9631 -1.3769
27827SOL     OW95205   6.790  10.390  11.392 -0.0900 -0.4849 -0.1297
27827SOL    HW195206   6.705  10.406  11.434  0.6282  0.8761  0.8893
27827SOL    HW295207   6.772  10.395  11.298 -0.9825  0.7588  0.0794
27828SOL     OW95208   9.727   6.346   6.877  0.1601  0.3033 -0.0723
27828SOL    HW195209   9.765   6.370   6.792  0.1900 -0.8667 -0.3997
27828SOL    HW295210   9.794   6.372   6.941 -0.4450  2.5228 -0.2452
27829SOL     OW95211   8.318  12.192   0.797 -0.5596 -0.0927 -0.4598
27829SOL    HW195212   8.400  12.240   0.810  0.1028 -1.3061 -0.0352
27829SOL    HW295213   8.326  12.153   0.710  0.2109 -1.8448  0.3480
27830SOL     OW95214  10.575   0.499   5.404  0.3977 -0.3612  0.0232
27830SOL    HW195215  10.646   0.509   5.341  1.0523  0.9192  0.9365
27830SOL    HW295216  10.597   0.420   5.453  0.7288 -0.4522 -0.2680
27831SOL     OW95217   2.358   8.657   9.489  0.1589  0.1115 -0.3590
27831SOL    HW195218   2.326   8.607   9.564  1.6615  0.6409  0.6944
27831SOL    HW295219   2.425   8.601   9.450 -0.8496 -0.3055 -1.5482
27832SOL     OW95220   0.849  12.221   9.965  0.4652  0.3271 -0.3197
27832SOL    HW195221   0.885  12.308   9.980  0.2322  0.4425 -0.4181
27832SOL    HW295222   0.919  12.161   9.990 -0.1879  0.4677  2.0928
27833SOL     OW95223   2.460   2.073   3.958  0.1451  0.2162  0.0322
27833SOL    HW195224   2.480   1.994   3.908  0.2535  1.3359 -1.8128
27833SOL    HW295225   2.458   2.045   4.049  1.1941 -1.6891 -0.4875
27834SOL     OW95226  10.775   7.874  11.124 -0.3018 -0.1822  0.2679
27834SOL    HW195227  10.693   7.870  11.075  1.3794 -1.5746 -2.7607
27834SOL    HW295228  10.750   7.855  11.214 -3.4127  0.6638 -0.2884
27835SOL     OW95229   3.268   5.741   5.987 -0.2068  0.4114 -0.4831
27835SOL    HW195230   3.238   5.776   5.903  0.9546  0.5755 -0.8435
27835SOL    HW295231   3.361   5.721   5.973 -0.2244 -0.4179  0.4911
27836SOL     OW95232   2.547   9.115  13.547 -0.2054  0.7538 -0.2327
27836SOL    HW195233   2.543   9.162  13.464 -1.4101  1.8962  0.4310
27836SOL    HW295234   2.554   9.023  13.523 -0.4142  1.0749 -1.5913
27837SOL     OW95235   7.841   3.510  11.904 -0.3032 -0.8617  0.7790
27837SOL    HW195236   7.755   3.493  11.866 -0.0177 -1.0964  0.2224
27837SOL    HW295237   7.849   3.605  11.904  0.6048 -0.8536 -1.9243
27838SOL     OW95238   3.165   9.786   9.858 -0.1566  0.1409 -0.8136
27838SOL    HW195239   3.200   9.697   9.859  0.7498  0.4883 -0.7575
27838SOL    HW295240   3.134   9.801   9.947 -1.0617 -0.4001 -1.0257
27839SOL     OW95241  12.418   5.000   1.228  0.1524  0.0457  0.1593
27839SOL    HW195242  12.358   5.047   1.171 -0.1569  0.0571  0.4940
27839SOL    HW295243  12.392   5.024   1.316 -0.7549 -1.6566  0.3915
27840SOL     OW95244  10.853   4.416   8.838  0.2727  0.4552  0.1818
27840SOL    HW195245  10.918   4.354   8.870 -0.1765 -0.6046 -0.8798
27840SOL    HW295246  10.828   4.466   8.915  1.2755 -0.1092  0.8961
27841SOL     OW95247   0.295   4.289   5.988 -0.5844  0.3282  0.1616
27841SOL    HW195248   0.292   4.212   5.931 -2.1691  0.4851 -0.0340
27841SOL    HW295249   0.373   4.336   5.960  1.6861 -2.2259  1.7418
27842SOL     OW95250   7.585   0.324  13.431 -0.0495 -0.7842 -0.2555
27842SOL    HW195251   7.597   0.242  13.383 -1.6830 -0.9468 -0.4218
27842SOL    HW295252   7.623   0.390  13.374  0.7190 -1.3399 -0.4048
27843SOL     OW95253  10.051   0.115   2.933 -0.1905 -0.2903  0.5571
27843SOL    HW195254   9.990   0.097   2.861 -0.6580  0.2276  0.8088
27843SOL    HW295255  10.114   0.044   2.929 -0.5371 -0.5820 -0.0125
27844SOL     OW95256   0.675   2.469  10.471 -0.0524  0.2381 -0.0656
27844SOL    HW195257   0.604   2.436  10.526  0.4144 -0.4013  0.1750
27844SOL    HW295258   0.720   2.390  10.440  1.4369  0.6287  0.9622
27845SOL     OW95259   5.954   8.324  11.549 -0.2893 -0.7297 -0.1760
27845SOL    HW195260   6.031   8.300  11.498  0.1708 -0.9366  0.6060
27845SOL    HW295261   5.963   8.276  11.631  0.8211  2.2214  1.6001
27846SOL     OW95262   4.507   2.929   9.175 -0.4614  0.2530 -0.5540
27846SOL    HW195263   4.439   2.887   9.227  0.4291  0.3686  0.7575
27846SOL    HW295264   4.555   2.857   9.135 -1.4804  0.1754 -1.7117
27847SOL     OW95265  10.040   4.790   5.058 -0.0556 -0.0847  0.0129
27847SOL    HW195266  10.005   4.744   5.135  0.0814 -0.6820 -0.2769
27847SOL    HW295267  10.089   4.863   5.094  1.6998 -1.4871  0.6058
27848SOL     OW95268   4.487   2.887   2.048 -0.0054  0.5813  0.3730
27848SOL    HW195269   4.524   2.958   1.996  0.3405 -0.5838 -1.0218
27848SOL    HW295270   4.442   2.831   1.985  1.5286 -1.5868  1.0848
27849SOL     OW95271   1.235   6.820   5.874  0.1815  0.3864  0.2201
27849SOL    HW195272   1.311   6.877   5.881  0.9780 -0.6147  0.0851
27849SOL    HW295273   1.265   6.736   5.911 -0.4961 -0.3355 -0.8090
27850SOL     OW95274   7.127   2.294   9.837  0.4033  0.0848  0.1735
27850SOL    HW195275   7.117   2.215   9.891  0.4612  2.1109  3.4392
27850SOL    HW295276   7.126   2.366   9.900 -0.6502  2.8236 -2.7036
27851SOL     OW95277  11.104   1.100  11.548  0.3812  0.0317 -0.2368
27851SOL    HW195278  11.053   1.123  11.470 -0.2122 -1.0975 -0.2070
27851SOL    HW295279  11.069   1.155  11.618 -0.0038  0.0829 -0.4722
27852SOL     OW95280   1.896  13.215   4.842 -0.1585  0.1516  0.1963
27852SOL    HW195281   1.876  13.122   4.853  2.1200 -0.3641  0.5799
27852SOL    HW295282   1.818  13.261   4.872 -0.8076 -1.6149  1.3464
27853SOL     OW95283  13.267  12.200   3.917  0.2592  0.0995  0.5401
27853SOL    HW195284  13.223  12.190   3.832 -0.0816  0.9298  0.6092
27853SOL    HW295285  13.332  12.130   3.918  1.8327  1.4041 -1.3904
27854SOL     OW95286  12.811   6.774   3.515  0.3487  0.0990 -0.3033
27854SOL    HW195287  12.831   6.803   3.426  0.7716  0.8376  0.0268
27854SOL    HW295288  12.878   6.815   3.569 -0.3540  0.2685  0.4497
27855SOL     OW95289   0.807   4.564  11.551  0.3829  0.2997  0.1416
27855SOL    HW195290   0.897   4.544  11.527  0.6864  1.0452  0.6303
27855SOL    HW295291   0.790   4.649  11.511 -0.5627 -0.4315 -1.0870
27856SOL     OW95292   6.764   2.726   4.908  0.0903 -0.6148 -0.1850
27856SOL    HW195293   6.740   2.674   4.831 -1.1262  1.7304 -1.5162
27856SOL    HW295294   6.700   2.700   4.975  0.8721 -2.3367 -0.0376
27857SOL     OW95295   6.136   1.472   9.454 -0.1366  0.8674 -0.2346
27857SOL    HW195296   6.057   1.524   9.453  0.1493  1.4776  2.3407
27857SOL    HW295297   6.106   1.381   9.449 -0.9264  1.1196 -0.0431
27858SOL     OW95298   2.211   7.313   7.262  0.4466  0.3012 -0.0837
27858SOL    HW195299   2.221   7.392   7.207  1.7113 -0.1646 -0.5697
27858SOL    HW295300   2.230   7.241   7.202 -0.7444 -0.3853  0.3511
27859SOL     OW95301   4.324   9.329  13.061 -0.1612  0.3271 -0.0348
27859SOL    HW195302   4.259   9.265  13.090  0.2255  0.0999  0.3414
27859SOL    HW295303   4.314   9.332  12.966  0.1325 -0.6487 -0.1052
27860SOL     OW95304  10.164   7.370  12.922  0.0708 -0.6826  0.6494
27860SOL    HW195305  10.180   7.412  12.838  0.8633  0.7534  1.4702
27860SOL    HW295306  10.165   7.277  12.903  1.3908 -0.4247 -0.7533
27861SOL     OW95307   6.349  11.708   4.824 -0.9136  0.0815 -0.5202
27861SOL    HW195308   6.290  11.634   4.840 -1.1822  0.6358  1.2619
27861SOL    HW295309   6.435  11.675   4.849 -1.0516  0.3724  0.3926
27862SOL     OW95310  11.694   5.264   8.729 -0.0952  0.4546  0.1406
27862SOL    HW195311  11.632   5.309   8.671 -0.3271  0.5194  0.4339
27862SOL    HW295312  11.743   5.334   8.771  0.7940  0.3821 -0.7466
27863SOL     OW95313   1.784   7.390  11.274 -0.3323 -0.5295 -0.0264
27863SOL    HW195314   1.861   7.408  11.328 -0.0134  1.7384 -1.1350
27863SOL    HW295315   1.711   7.428  11.324 -0.5629 -1.4870  0.3890
27864SOL     OW95316   0.934   0.389  12.501  0.4583 -0.0783  1.0762
27864SOL    HW195317   0.851   0.413  12.541  0.4965  0.0499  1.0781
27864SOL    HW295318   0.992   0.463  12.519  0.1547  0.4871 -0.1947
27865SOL     OW95319   1.743  11.586  13.314 -0.0291 -0.0266  0.1718
27865SOL    HW195320   1.733  11.671  13.273  1.8657 -0.3744 -1.1597
27865SOL    HW295321   1.837  11.568  13.309 -0.0471 -1.1761  2.5322
27866SOL     OW95322  10.485   5.854   4.744  0.2850 -0.3521  0.4152
27866SOL    HW195323  10.417   5.892   4.688 -1.5577  0.9657  3.2952
27866SOL    HW295324  10.461   5.761   4.751  0.4379 -0.4950 -0.7705
27867SOL     OW95325   0.412   3.292   4.602 -0.2381  0.1406  0.2018
27867SOL    HW195326   0.413   3.263   4.510  0.0664 -1.0739  0.5813
27867SOL    HW295327   0.343   3.358   4.605  0.4263  0.9578 -1.1268
27868SOL     OW95328   3.179   6.105   4.415 -0.8105 -0.6016  0.4400
27868SOL    HW195329   3.102   6.137   4.461 -0.1865  0.3818  0.8295
27868SOL    HW295330   3.252   6.156   4.450  0.3597 -2.9021  1.5975
27869SOL     OW95331   3.037   4.945   0.317 -0.5024  0.0014 -0.0115
27869SOL    HW195332   3.113   4.959   0.373 -1.2770  0.8335  0.8774
27869SOL    HW295333   2.964   4.932   0.378 -1.1060 -0.6459 -0.8413
27870SOL     OW95334  12.609   0.564   5.800 -0.3296  0.2544 -0.1029
27870SOL    HW195335  12.687   0.590   5.752 -0.7658  3.0649  0.5539
27870SOL    HW295336  12.633   0.481   5.842  2.1515  0.8636 -0.1924
27871SOL     OW95337  11.804  11.103   7.269 -0.1553  0.2217 -0.3334
27871SOL    HW195338  11.743  11.048   7.220 -1.7146  1.7201 -0.1647
27871SOL    HW295339  11.757  11.186   7.281  1.5897  1.1243  0.5813
27872SOL     OW95340   5.410   7.784  10.077 -0.0603  0.1950  0.4961
27872SOL    HW195341   5.444   7.726  10.009  0.0035 -0.6995  1.2589
27872SOL    HW295342   5.324   7.811  10.044  0.6709  1.1362 -0.6854
27873SOL     OW95343   7.955   6.724   1.094 -0.0685 -0.0227 -0.1812
27873SOL    HW195344   7.878   6.725   1.037 -0.0248 -0.7328 -0.2632
27873SOL    HW295345   8.005   6.647   1.065 -0.3921 -0.8056  1.2557
27874SOL     OW95346   9.175   1.758   4.574  0.0695  0.1130  0.3091
27874SOL    HW195347   9.253   1.814   4.574 -0.4085  0.8193  1.7697
27874SOL    HW295348   9.131   1.778   4.492 -0.6601  2.7548  1.2415
27875SOL     OW95349   5.633   2.463   6.977  0.2427 -0.1713  0.1610
27875SOL    HW195350   5.566   2.489   7.040 -1.3560 -1.1897 -1.0436
27875SOL    HW295351   5.628   2.530   6.908 -1.2191 -1.4510 -1.0607
27876SOL     OW95352   9.502   9.710   1.845  0.9079  0.0483  0.8155
27876SOL    HW195353   9.442   9.732   1.774  0.0523 -2.3657  0.6822
27876SOL    HW295354   9.587   9.697   1.802  0.2091 -2.3025 -0.0212
27877SOL     OW95355   9.532  13.072   7.244  0.1115 -0.0761 -0.5022
27877SOL    HW195356   9.453  13.107   7.285 -0.0310  0.6650 -1.3860
27877SOL    HW295357   9.556  12.996   7.299 -0.4288  0.4931  0.5537
27878SOL     OW95358   6.899   4.522  13.639  0.2038 -0.1664  0.1602
27878SOL    HW195359   6.857   4.489  13.559  2.2137 -0.8856 -0.6561
27878SOL    HW295360   6.957   4.451  13.667  0.1856  0.4220  1.7904
27879SOL     OW95361   4.947   5.012   2.692 -0.3378  0.0263  0.1405
27879SOL    HW195362   5.037   4.980   2.699 -0.4427 -0.5049 -0.8000
27879SOL    HW295363   4.897   4.937   2.658 -0.9050  0.6938 -0.5150
27880SOL     OW95364  13.558   0.565  10.714  0.5596  0.3183  0.1389
27880SOL    HW195365  13.496   0.515  10.766  1.4793 -0.5663  0.4131
27880SOL    HW295366  13.640   0.516  10.721  1.3385  1.5498 -0.0629
27881SOL     OW95367   4.790  12.887  10.403 -0.1684 -0.0426  0.2931
27881SOL    HW195368   4.798  12.794  10.424 -3.8318 -0.3907  0.7539
27881SOL    HW295369   4.776  12.929  10.488  2.5668  1.2259  0.2324
27882SOL     OW95370   1.637   8.628   2.593 -0.1243 -0.0052  0.1989
27882SOL    HW195371   1.728   8.598   2.591 -0.1030 -0.3442  2.8182
27882SOL    HW295372   1.637   8.698   2.659 -1.3443  1.6621 -1.4731
27883SOL     OW95373   5.242  13.024   0.526  0.1613 -0.0794  0.0019
27883SOL    HW195374   5.257  13.045   0.434  0.2760  1.5993  0.3684
27883SOL    HW295375   5.327  12.990   0.557  0.2636 -0.1838 -0.3902
27884SOL     OW95376   0.380  10.196   4.358 -0.6633 -0.3812  0.4231
27884SOL    HW195377   0.455  10.137   4.351 -1.4870 -1.6704  2.0372
27884SOL    HW295378   0.335  10.187   4.273 -0.4826 -1.6888  0.4447
27885SOL     OW95379   4.437   2.441   6.862  0.3503 -0.1626  0.8601
27885SOL    HW195380   4.351   2.400   6.872  0.4468 -0.0826  2.3507
27885SOL    HW295381   4.447   2.454   6.768 -2.0072  1.4056  0.7523
27886SOL     OW95382   3.913  13.114  11.516 -0.3164 -0.2602  0.6078
27886SOL    HW195383   3.940  13.143  11.428  0.9322  1.2590  1.4427
27886SOL    HW295384   3.832  13.065  11.501  0.1211 -0.4386 -1.4414
27887SOL     OW95385   9.766  10.697   3.077  0.1759 -0.2877  0.2524
27887SOL    HW195386   9.725  10.613   3.060  2.3947 -1.2012 -1.1474
27887SOL    HW295387   9.767  10.741   2.992 -2.2809  1.9122  1.2102
27888SOL     OW95388  10.959   8.232   9.228  0.3587 -0.1643 -0.0749
27888SOL    HW195389  10.932   8.314   9.269  2.2203  0.4457  0.0206
27888SOL    HW295390  11.021   8.193   9.290 -1.5251 -2.4016  0.5514
27889SOL     OW95391   2.795   7.667   0.417 -0.0343  0.0661 -0.0384
27889SOL    HW195392   2.715   7.672   0.470  0.0761 -1.9019  0.4008
27889SOL    HW295393   2.767   7.625   0.335  0.3465  0.3291 -0.3032
27890SOL     OW95394  13.453   3.056   6.970 -1.1514  0.0395  0.4914
27890SOL    HW195395  13.455   2.961   6.977 -0.6616  0.0560  0.6032
27890SOL    HW295396  13.489   3.074   6.883  0.8915  0.2148  1.3366
27891SOL     OW95397  13.698   2.791   7.590  0.0218 -0.9171  0.1873
27891SOL    HW195398  13.615   2.747   7.574  0.1212 -0.2152 -2.9042
27891SOL    HW295399  13.756   2.722   7.622 -1.0792 -1.9685 -0.0199
27892SOL     OW95400   8.501   6.836   5.720 -0.1069 -0.0597 -0.4039
27892SOL    HW195401   8.439   6.878   5.780  0.0748 -0.8229  0.3358
27892SOL    HW295402   8.457   6.838   5.635 -1.2627 -0.7963  0.1506
27893SOL     OW95403  10.428  10.346   3.582  0.3784 -0.2120 -0.0972
27893SOL    HW195404  10.486  10.271   3.575  1.7982  1.0116 -2.2665
27893SOL    HW295405  10.479  10.412   3.629 -0.5322 -0.2516  0.9951
27894SOL     OW95406  11.267   2.882   4.628  0.0811 -0.2858  0.7900
27894SOL    HW195407  11.339   2.829   4.662  0.1049 -0.6537  0.1678
27894SOL    HW295408  11.291   2.972   4.652  1.2691 -0.2794 -0.2709
27895SOL     OW95409  11.887   3.553  12.195 -0.2380 -0.2873 -0.1370
27895SOL    HW195410  11.921   3.464  12.183 -0.0376 -0.0895 -1.1486
27895SOL    HW295411  11.870   3.584  12.106 -1.5317  0.2181  0.2589
27896SOL     OW95412  13.229  13.551   8.255  0.3026  0.0679 -0.1652
27896SOL    HW195413  13.261  13.564   8.345  1.7062  0.7105 -0.7179
27896SOL    HW295414  13.275  13.473   8.225  1.0414  0.7455 -0.8291
27897SOL     OW95415   0.249   9.804   3.565 -0.0361  0.4923 -0.2412
27897SOL    HW195416   0.240   9.810   3.660  2.0371 -0.0593  0.0279
27897SOL    HW295417   0.191   9.732   3.540  0.3216 -0.1743  0.7883
27898SOL     OW95418  12.076  10.698   5.415 -0.4303  0.0478  0.5233
27898SOL    HW195419  12.111  10.639   5.348  2.1080  2.1351 -0.1457
27898SOL    HW295420  12.140  10.694   5.486 -0.5315  1.4853  0.7234
27899SOL     OW95421   9.391   8.574   3.740  0.1938  0.1737 -0.3423
27899SOL    HW195422   9.296   8.567   3.747  0.3247 -1.1521  0.2444
27899SOL    HW295423   9.417   8.628   3.814  0.0577 -0.9048  0.5039
27900SOL     OW95424   9.048   5.116   6.475 -0.0066  0.2374  0.1193
27900SOL    HW195425   9.132   5.133   6.431  0.6616 -0.6677  0.9861
27900SOL    HW295426   9.016   5.035   6.435  0.6829 -0.6805  1.3335
27901SOL     OW95427   3.646   3.470   0.465 -0.0641  0.2354 -0.2970
27901SOL    HW195428   3.582   3.402   0.445  1.7135 -0.7667 -3.1939
27901SOL    HW295429   3.669   3.455   0.556 -0.5953 -2.3259 -0.5047
27902SOL     OW95430   9.794  13.463   1.710  0.1389  0.6271 -0.0850
27902SOL    HW195431   9.817  13.555   1.696  1.0959  0.3284 -0.5805
27902SOL    HW295432   9.876  13.415   1.695 -0.5105 -0.3776 -0.5557
27903SOL     OW95433   2.877  13.097   6.605  0.0542  0.3698  0.5923
27903SOL    HW195434   2.861  13.187   6.575 -3.3369  0.3018  1.7797
27903SOL    HW295435   2.880  13.045   6.525 -0.2920  1.2547 -0.0174
27904SOL     OW95436   4.651  13.015   8.511 -0.1825 -0.0193  0.0195
27904SOL    HW195437   4.693  12.990   8.593  1.2662 -0.9608 -0.9455
27904SOL    HW295438   4.562  13.040   8.535  0.3083  0.0314  1.8958
27905SOL     OW95439  12.781   4.887   0.768  0.1280  0.0896 -0.1462
27905SOL    HW195440  12.736   4.814   0.726 -0.4110 -0.9838  2.1363
27905SOL    HW295441  12.720   4.918   0.834  0.9088  1.7347 -0.1335
27906SOL     OW95442  10.818   4.766   2.324 -0.3869  0.4209 -0.4240
27906SOL    HW195443  10.908   4.775   2.356 -0.3997 -2.7608  0.9031
27906SOL    HW295444  10.789   4.683   2.360 -3.6252  0.9660 -1.5087
27907SOL     OW95445   4.697  12.218   7.729 -0.2720  0.4684 -0.1444
27907SOL    HW195446   4.723  12.136   7.771  2.1634  1.0579 -0.3598
27907SOL    HW295447   4.659  12.191   7.645 -1.3996 -0.5116  0.6554
27908SOL     OW95448   7.207   2.545   0.505 -0.1848  0.3549 -0.6529
27908SOL    HW195449   7.222   2.489   0.430 -0.6191  2.1954 -2.1904
27908SOL    HW295450   7.292   2.551   0.549 -0.4434 -2.5825  0.4180
27909SOL     OW95451   5.407   8.390   4.952  0.3197 -0.6170  0.1758
27909SOL    HW195452   5.399   8.484   4.972 -0.2551 -0.9129  1.4159
27909SOL    HW295453   5.358   8.347   5.021  1.4935 -1.8970  0.2447
27910SOL     OW95454   3.786   9.033  10.623  0.7143 -0.1005 -0.0577
27910SOL    HW195455   3.810   8.997  10.538 -0.3442 -1.3522  0.1492
27910SOL    HW295456   3.771   8.956  10.678 -1.7198  0.6260  0.3788
27911SOL     OW95457   2.636   8.842   7.177 -0.0747  0.5914  0.5417
27911SOL    HW195458   2.641   8.857   7.271  0.3120 -1.2776  0.8632
27911SOL    HW295459   2.588   8.918   7.143 -1.1240  0.8026  2.3620
27912SOL     OW95460  11.744   7.783  12.510 -0.3457  0.0643 -0.2503
27912SOL    HW195461  11.688   7.847  12.466 -0.7665 -0.4404 -0.4547
27912SOL    HW295462  11.802   7.750  12.442  0.2239  0.6079 -0.0320
27913SOL     OW95463   8.982  13.356  13.162 -0.2854 -0.2390 -0.3152
27913SOL    HW195464   9.016  13.267  13.163  0.1411 -0.0858 -0.7319
27913SOL    HW295465   9.054  13.410  13.194  0.0324  0.1344 -1.6044
27914SOL     OW95466   5.982  11.284   1.846 -0.3464  0.0102 -0.1386
27914SOL    HW195467   5.939  11.244   1.770  0.6610  2.5862 -2.2520
27914SOL    HW295468   6.068  11.243   1.849 -0.2829  0.1014 -0.5900
27915SOL     OW95469   5.469   3.790  12.274  0.0879 -0.2225  0.1891
27915SOL    HW195470   5.506   3.864  12.323 -0.9756  1.8378 -1.8868
27915SOL    HW295471   5.374   3.805  12.276 -0.1202 -1.2909 -0.6664
27916SOL     OW95472   9.256   6.140   6.575  0.3313  0.4865  0.1977
27916SOL    HW195473   9.287   6.050   6.585 -1.6498 -0.2068  0.6636
27916SOL    HW295474   9.164   6.136   6.601 -0.0837  2.4490 -0.7908
27917SOL     OW95475   8.374   4.669   7.863 -0.0386  0.1495 -0.7048
27917SOL    HW195476   8.429   4.731   7.815 -1.1811 -0.5336 -3.0332
27917SOL    HW295477   8.313   4.724   7.911 -1.6423  0.9588 -3.4556
27918SOL     OW95478   0.437  12.007   3.382  0.2894 -0.5657  0.4299
27918SOL    HW195479   0.366  11.944   3.369 -1.3410  1.3722 -0.6601
27918SOL    HW295480   0.496  11.991   3.309  1.2732 -2.4374  1.5424
27919SOL     OW95481   2.814  13.438  13.382  0.0996  0.3353 -0.1061
27919SOL    HW195482   2.889  13.437  13.322 -1.9151 -1.3595 -2.8209
27919SOL    HW295483   2.843  13.386  13.457  1.4950 -0.7395 -1.3260
27920SOL     OW95484   0.693  12.976   9.238  0.0471 -0.7033 -0.1384
27920SOL    HW195485   0.666  13.068   9.240  0.4045 -0.5632 -1.2033
27920SOL    HW295486   0.615  12.927   9.263  0.1605 -0.0675  1.5689
27921SOL     OW95487   7.793   8.469   7.831 -0.3653  0.7763 -0.3811
27921SOL    HW195488   7.876   8.485   7.786 -0.0919  0.6125  0.0591
27921SOL    HW295489   7.769   8.554   7.868 -0.6570  0.9418 -0.9391
27922SOL     OW95490   6.619   0.283   0.897  0.2795 -0.8745  0.0086
27922SOL    HW195491   6.672   0.241   0.829  1.4625 -0.0471  0.3891
27922SOL    HW295492   6.665   0.265   0.978 -0.1825 -0.3843  0.3870
27923SOL     OW95493  10.108  13.289   2.129 -0.5475 -0.3819  0.2006
27923SOL    HW195494  10.123  13.373   2.172 -1.1605 -0.6823  1.0411
27923SOL    HW295495  10.049  13.309   2.057  0.1336  0.0593 -0.2538
27924SOL     OW95496   1.500   9.139   2.342  0.0687 -0.3829  0.3085
27924SOL    HW195497   1.524   9.230   2.327 -0.5003  0.1684  2.4106
27924SOL    HW295498   1.555   9.089   2.282  1.1750  1.2744 -0.1167
27925SOL     OW95499   5.474   1.218  12.243  0.0394  0.0250 -0.2650
27925SOL    HW195500   5.460   1.161  12.168 -0.2189 -0.1484 -0.0885
27925SOL    HW295501   5.387   1.229  12.281  0.1921 -0.0207  0.1009
27926SOL     OW95502  12.598   2.509   8.840 -0.2006  0.8310 -0.3129
27926SOL    HW195503  12.640   2.423   8.833 -1.8393  0.0642 -1.3709
27926SOL    HW295504  12.647   2.564   8.779  0.4840  0.4985 -0.0739
27927SOL     OW95505   6.388   9.838   7.323  0.2061 -0.5684 -0.3285
27927SOL    HW195506   6.357   9.749   7.340 -0.4784 -0.6747 -1.8602
27927SOL    HW295507   6.377   9.849   7.228 -0.1318  1.2900 -0.1219
27928SOL     OW95508  12.707   1.178   2.625  0.5697 -0.2777  0.5587
27928SOL    HW195509  12.689   1.209   2.714 -1.5190 -0.6388  0.3013
27928SOL    HW295510  12.695   1.083   2.630  0.5530 -0.3139 -0.0871
27929SOL     OW95511   6.202   9.112  11.862  0.3398  0.3106 -0.5075
27929SOL    HW195512   6.244   9.056  11.927 -0.1587 -0.2273 -0.6417
27929SOL    HW295513   6.148   9.172  11.914 -0.3471 -0.3592 -0.4313
27930SOL     OW95514   0.830   7.307  10.779  0.4408 -0.9434 -0.6905
27930SOL    HW195515   0.792   7.364  10.712 -0.1265 -0.6654 -0.1465
27930SOL    HW295516   0.832   7.220  10.739  1.5697 -0.5108 -1.6243
27931SOL     OW95517  13.500  13.181   2.180 -0.0603  0.2268 -0.6217
27931SOL    HW195518  13.440  13.154   2.111  0.3145 -0.1560 -0.8083
27931SOL    HW295519  13.502  13.276   2.176  0.4419  0.1844 -1.5624
27932SOL     OW95520   9.309   2.783   6.720 -0.5263 -0.1638  0.0840
27932SOL    HW195521   9.387   2.761   6.669 -1.3051 -1.3265 -0.6599
27932SOL    HW295522   9.253   2.706   6.714 -1.4235  0.3519  1.2352
27933SOL     OW95523   4.574  12.943  11.378  0.8457 -0.0538 -0.5147
27933SOL    HW195524   4.530  12.916  11.458  1.8657  3.0640  1.2776
27933SOL    HW295525   4.664  12.958  11.405  1.4421  0.1864 -2.5142
27934SOL     OW95526   4.885   3.800  11.409  0.3066 -0.2213 -0.0019
27934SOL    HW195527   4.884   3.722  11.353  2.1867 -0.7425  0.5962
27934SOL    HW295528   4.938   3.863  11.359 -1.6985  0.9441 -0.7568
27935SOL     OW95529  13.432   9.698   2.794  0.1494 -0.6043 -0.2947
27935SOL    HW195530  13.475   9.704   2.880  0.0564 -1.5695 -0.1716
27935SOL    HW295531  13.340   9.717   2.812  0.5396  1.9388 -0.6312
27936SOL     OW95532   4.509   0.987   9.048  0.8562  0.0722  0.1050
27936SOL    HW195533   4.556   1.062   9.085  1.3970 -1.3521  2.5332
27936SOL    HW295534   4.417   1.015   9.044  0.9844  0.7378  1.4006
27937SOL     OW95535   8.163   8.231   8.139 -0.1530 -0.0119  0.2766
27937SOL    HW195536   8.178   8.280   8.058 -0.2506  1.0283  0.8664
27937SOL    HW295537   8.226   8.158   8.135 -1.8749 -1.4945 -1.8982
27938SOL     OW95538   0.862   5.627   6.446 -0.5816  0.1814  0.4418
27938SOL    HW195539   0.812   5.697   6.489 -2.0220 -0.9336  0.6681
27938SOL    HW295540   0.907   5.583   6.518  0.5085  0.9787  0.2744
27939SOL     OW95541  12.947   5.891   8.406 -0.1392 -0.4420  0.3356
27939SOL    HW195542  12.992   5.827   8.351 -0.7811 -0.6961  0.0978
27939SOL    HW295543  12.952   5.973   8.356 -2.4055 -1.0700 -1.0716
27940SOL     OW95544   8.467   0.879  12.379 -0.5872  0.0660  0.5351
27940SOL    HW195545   8.511   0.799  12.350 -0.2523  0.0721  1.0173
27940SOL    HW295546   8.538   0.943  12.388 -1.1396  1.5973 -3.4676
27941SOL     OW95547  11.801   2.932   3.252 -0.1443 -0.4183  0.6357
27941SOL    HW195548  11.722   2.951   3.303 -0.8121 -1.4387  0.0094
27941SOL    HW295549  11.768   2.906   3.166  0.8700 -0.9585  0.4014
27942SOL     OW95550   3.236   8.858   8.910 -0.0782 -0.6469 -0.2401
27942SOL    HW195551   3.154   8.907   8.899 -1.1374 -1.1067  3.8895
27942SOL    HW295552   3.297   8.922   8.946  0.0189 -1.2536  0.6978
27943SOL     OW95553  12.860   7.345   1.219 -0.5650  0.2253  0.7379
27943SOL    HW195554  12.768   7.318   1.213 -0.3301 -0.6816  1.1236
27943SOL    HW295555  12.897   7.324   1.133 -0.4744 -0.3564  0.9150
27944SOL     OW95556   9.428   5.884   6.478  0.2741  0.4039  0.3163
27944SOL    HW195557   9.494   5.926   6.534  1.7217 -0.7249 -0.4778
27944SOL    HW295558   9.471   5.806   6.443 -0.9040  0.5266 -1.5854
27945SOL     OW95559   4.526  11.718   4.414 -0.3303  0.2691 -1.0823
27945SOL    HW195560   4.462  11.671   4.360 -1.0572 -0.5548  0.4340
27945SOL    HW295561   4.610  11.700   4.373 -0.6811 -1.7342 -0.9800
27946SOL     OW95562  13.718   8.381   9.041  0.4118  0.6486 -0.2418
27946SOL    HW195563  13.747   8.427   8.963 -0.4727  0.6905 -0.5517
27946SOL    HW295564  13.699   8.451   9.104 -2.0459  0.8261 -1.0914
27947SOL     OW95565   0.291   2.664  12.138  0.0350  0.1768  0.4582
27947SOL    HW195566   0.277   2.662  12.043 -0.7663 -2.2999  0.5427
27947SOL    HW295567   0.220   2.719  12.171 -0.3017  0.2237 -0.3135
27948SOL     OW95568   2.620   3.571   1.688 -0.2942 -0.0125 -0.4588
27948SOL    HW195569   2.542   3.543   1.639 -0.0756  0.6748 -1.2400
27948SOL    HW295570   2.641   3.656   1.650 -1.7204  1.9355  2.7035
27949SOL     OW95571  13.461   9.131  13.146 -0.4892  0.1944  0.0352
27949SOL    HW195572  13.373   9.137  13.111 -0.6437 -2.6385 -0.2755
27949SOL    HW295573  13.453   9.078  13.225  0.8453  0.4533  0.3799
27950SOL     OW95574   7.935   2.034   0.741  0.1271  0.5657 -0.2186
27950SOL    HW195575   7.971   2.096   0.805 -0.7636 -0.3334  1.2067
27950SOL    HW295576   7.868   2.084   0.695 -1.8450  0.3031  2.1229
27951SOL     OW95577   3.649  13.525  10.360  0.2600 -0.3445 -0.0090
27951SOL    HW195578   3.713  13.563  10.301  0.9569 -0.2711  0.7769
27951SOL    HW295579   3.572  13.581  10.351  0.3833 -0.2944 -0.7864
27952SOL     OW95580  13.199   7.593  10.579  0.2964  0.0741  0.0953
27952SOL    HW195581  13.277   7.565  10.626  0.7001  0.7726 -0.1488
27952SOL    HW295582  13.199   7.540  10.499  0.7564  0.3608 -0.1013
27953SOL     OW95583   0.015   8.313   9.926  0.3271  0.0195 -0.1275
27953SOL    HW195584  -0.053   8.367   9.886  2.1236  1.3847 -1.5156
27953SOL    HW295585   0.036   8.357  10.008  0.8945  0.7312 -0.6460
27954SOL     OW95586   7.109  12.776   6.355 -0.3516 -0.0398  0.5752
27954SOL    HW195587   7.096  12.750   6.446  0.5188  1.1052  1.0410
27954SOL    HW295588   7.128  12.870   6.359  1.9304 -0.3863 -0.5640
27955SOL     OW95589   6.484   7.379   8.186  0.5771 -0.0839 -0.1801
27955SOL    HW195590   6.534   7.432   8.248  1.5084  0.1978 -1.1315
27955SOL    HW295591   6.535   7.298   8.178 -0.6997 -1.0662  1.0750
27956SOL     OW95592   3.704   8.069   0.156  0.0369 -0.2917  0.1562
27956SOL    HW195593   3.665   8.078   0.069 -0.5085  0.8855  0.4980
27956SOL    HW295594   3.667   7.987   0.190 -1.5830  0.4117  0.1709
27957SOL     OW95595  11.595  10.417  13.470 -0.1552  0.2677 -0.3343
27957SOL    HW195596  11.683  10.382  13.484  0.7793  3.0428  1.6459
27957SOL    HW295597  11.539  10.365  13.529  0.3428 -0.7256 -0.7099
27958SOL     OW95598   4.084   2.713   9.970  0.6215 -0.0838  0.2269
27958SOL    HW195599   4.043   2.778   9.912 -0.9013 -0.5357  0.7519
27958SOL    HW295600   4.141   2.662   9.912  1.4424  1.3694 -0.2893
27959SOL     OW95601  12.881  11.335  12.688 -0.5271  0.0738  0.0318
27959SOL    HW195602  12.977  11.337  12.689 -0.5150  0.9408 -1.0833
27959SOL    HW295603  12.860  11.242  12.681  0.2846 -0.0384 -1.3344
27960SOL     OW95604   9.858  13.511  12.525 -0.3550 -0.6826 -0.0571
27960SOL    HW195605   9.768  13.537  12.504 -0.3606 -0.9696 -0.3987
27960SOL    HW295606   9.890  13.470  12.445 -0.3899 -1.8505  0.5160
27961SOL     OW95607   0.878   7.923  12.357 -0.1588  0.0533  0.3998
27961SOL    HW195608   0.797   7.951  12.400  0.5732  2.6069  0.2612
27961SOL    HW295609   0.948   7.966  12.407  1.2204 -2.4509  0.8007
27962SOL     OW95610   9.690   1.655  11.469 -0.5113 -0.0524 -0.5069
27962SOL    HW195611   9.686   1.616  11.381 -1.4646  1.5680 -1.2369
27962SOL    HW295612   9.776   1.697  11.473  0.5543 -2.1803  0.3155
27963SOL     OW95613   3.984   1.176   7.924  0.0174  0.4099  0.1081
27963SOL    HW195614   4.029   1.248   7.880  1.8397  0.3074  1.6450
27963SOL    HW295615   4.055   1.117   7.950 -1.2636 -0.9840  0.5608
27964SOL     OW95616   9.915   2.445   9.164 -1.2312  0.3176 -0.5175
27964SOL    HW195617   9.968   2.366   9.161 -1.6746 -0.1076  1.4219
27964SOL    HW295618   9.977   2.516   9.145 -0.1401 -0.2467  0.7472
27965SOL     OW95619  12.597  12.092   6.504  0.0679  0.2183  0.1007
27965SOL    HW195620  12.585  12.167   6.446 -1.7528  0.1265  0.2986
27965SOL    HW295621  12.597  12.017   6.446  1.1569  0.3056 -0.0281
27966SOL     OW95622  11.135  11.166   6.001 -0.3932  0.5688  0.0575
27966SOL    HW195623  11.065  11.115   5.961 -0.4926 -0.3446  1.3235
27966SOL    HW295624  11.208  11.160   5.938 -0.9366  0.2329 -0.5546
27967SOL     OW95625   4.592  12.115   0.243 -0.1907 -0.2225 -0.2906
27967SOL    HW195626   4.556  12.042   0.192 -0.2957  0.5170 -1.3239
27967SOL    HW295627   4.647  12.075   0.309 -1.8433 -1.3419  0.4643
27968SOL     OW95628   9.322   6.070   4.975  0.0722  0.8230 -0.2095
27968SOL    HW195629   9.412   6.037   4.966  0.2405  1.0166  0.6528
27968SOL    HW295630   9.329   6.164   4.959 -0.0894  0.7390 -0.7888
27969SOL     OW95631   2.982   7.230   7.226  0.0461  0.0790  0.6762
27969SOL    HW195632   3.009   7.234   7.135  0.4655 -0.0132  0.7942
27969SOL    HW295633   2.918   7.159   7.230 -0.5420  0.5798  0.3137
27970SOL     OW95634   7.405  12.701   7.928  0.6828 -0.2450 -0.1802
27970SOL    HW195635   7.427  12.612   7.954 -1.3074 -0.9008 -0.5930
27970SOL    HW295636   7.320  12.694   7.885 -1.1314  2.2617  2.6173
27971SOL     OW95637   3.981   9.374   4.170  0.2911 -0.2623 -0.0495
27971SOL    HW195638   4.016   9.406   4.253  0.4456 -0.9123  0.1410
27971SOL    HW295639   3.896   9.337   4.193  0.4772 -0.7360 -0.1280
27972SOL     OW95640   1.631   0.088  11.270  0.0253 -0.1374 -0.2667
27972SOL    HW195641   1.683   0.162  11.302  2.1177 -1.6555  0.0583
27972SOL    HW295642   1.679   0.010  11.301  0.3037 -1.7000 -4.0847
27973SOL     OW95643   2.104   5.420   8.853 -0.4323  0.3774  0.6597
27973SOL    HW195644   2.172   5.364   8.891 -3.3376 -4.4274 -0.3834
27973SOL    HW295645   2.143   5.453   8.772  0.8980 -1.7896  0.3374
27974SOL     OW95646  12.376   1.017   1.312  0.0519 -0.0193  0.3877
27974SOL    HW195647  12.367   1.078   1.386 -0.6495  0.2479  0.0866
27974SOL    HW295648  12.419   0.940   1.350 -1.5916 -0.4830  1.4262
27975SOL     OW95649   8.627  12.176   7.422  0.0877 -0.0920  0.8009
27975SOL    HW195650   8.626  12.256   7.370  2.0698 -0.8346 -0.4852
27975SOL    HW295651   8.575  12.114   7.372 -0.6247  0.0733  1.3124
27976SOL     OW95652  12.606  10.878   3.349  0.4926  0.0864 -0.0266
27976SOL    HW195653  12.674  10.941   3.323 -0.4246  0.7549 -0.9046
27976SOL    HW295654  12.631  10.797   3.305  1.1057  0.1285  0.2361
27977SOL     OW95655   3.666   2.890   6.404 -0.1914  0.7939  0.2747
27977SOL    HW195656   3.744   2.863   6.453 -0.9396 -1.1264  0.5138
27977SOL    HW295657   3.633   2.966   6.452  0.1812  0.1357  1.6575
27978SOL     OW95658  10.829   2.659   2.693 -0.0745 -0.4624  0.4552
27978SOL    HW195659  10.739   2.680   2.669 -0.0080 -0.1216  0.5103
27978SOL    HW295660  10.867   2.622   2.614  0.2045  0.8338 -0.0323
27979SOL     OW95661   1.622   7.303   2.447  0.2022 -0.0434 -0.5312
27979SOL    HW195662   1.632   7.375   2.386  0.8534 -0.2603 -0.6917
27979SOL    HW295663   1.667   7.229   2.405 -0.5816 -0.5869 -0.4391
27980SOL     OW95664   9.250   1.946  10.733  0.2156 -0.1938 -0.1225
27980SOL    HW195665   9.155   1.956  10.744 -0.0447 -1.9487 -0.4622
27980SOL    HW295666   9.262   1.932  10.639  0.6488 -1.2288  0.0710
27981SOL     OW95667   3.949   4.699   6.815 -0.3533  0.5670 -0.0484
27981SOL    HW195668   3.884   4.769   6.823 -2.3959 -1.0904 -1.1223
27981SOL    HW295669   4.013   4.733   6.752 -0.7595  1.8393  0.2043
27982SOL     OW95670   8.934   7.386  11.401 -0.6609  0.0182  0.4950
27982SOL    HW195671   8.938   7.476  11.433 -0.6185 -0.3956  1.6792
27982SOL    HW295672   8.854   7.350  11.439 -0.4066 -0.6039  0.4515
27983SOL     OW95673  11.108   6.864   8.030  0.8966 -0.5081  0.4827
27983SOL    HW195674  11.074   6.827   8.112 -0.7791  0.1977  0.1472
27983SOL    HW295675  11.196   6.894   8.052  0.4484 -0.2540  2.0701
27984SOL     OW95676   2.062  12.837  12.125  0.3152  0.0246 -0.0316
27984SOL    HW195677   2.111  12.764  12.087 -0.0214 -0.2945  0.1427
27984SOL    HW295678   2.006  12.797  12.191  0.2749  0.4683  0.2079
27985SOL     OW95679  11.828   0.022   4.832  0.3725 -0.4295 -0.3220
27985SOL    HW195680  11.804   0.104   4.789 -1.8722 -0.2747  1.0678
27985SOL    HW295681  11.915   0.002   4.798  0.3290  1.6854 -1.8997
27986SOL     OW95682   2.575   1.151   1.660 -0.3261  0.2009 -0.4889
27986SOL    HW195683   2.556   1.205   1.584  0.4121  2.6523  0.9307
27986SOL    HW295684   2.494   1.152   1.711 -0.2631  0.1138 -0.3853
27987SOL     OW95685  12.217   3.272   7.519  0.1393  0.1953  0.1208
27987SOL    HW195686  12.306   3.239   7.509  0.8453  1.0436  2.7639
27987SOL    HW295687  12.164   3.195   7.538 -0.2373 -0.6434 -3.5734
27988SOL     OW95688   0.840  13.069   1.806  0.2505 -0.0028  0.0823
27988SOL    HW195689   0.768  13.028   1.855 -1.3448  1.8207 -0.6438
27988SOL    HW295690   0.849  13.156   1.844  2.4094 -0.3047  0.4262
27989SOL     OW95691   4.834   0.338  13.719 -0.2027  0.1253 -0.2580
27989SOL    HW195692   4.784   0.371  13.794  0.1786  0.9182 -0.3371
27989SOL    HW295693   4.880   0.415  13.686  1.3877 -0.6475  0.0547
27990SOL     OW95694   2.255   5.098   4.064 -0.0406  0.1190 -0.3033
27990SOL    HW195695   2.188   5.149   4.110 -0.7625  1.9989 -3.1926
27990SOL    HW295696   2.237   5.007   4.089 -3.1462  0.6350 -0.2922
27991SOL     OW95697   5.487   2.606   8.222  0.1200 -0.0807 -0.1492
27991SOL    HW195698   5.447   2.676   8.274 -0.1594  0.5513 -1.1831
27991SOL    HW295699   5.570   2.643   8.192 -0.3746  0.1307 -1.3405
27992SOL     OW95700   3.876   7.893   8.019  0.2351 -0.9323 -0.2344
27992SOL    HW195701   3.852   7.896   8.112  0.1780 -1.0351 -0.2449
27992SOL    HW295702   3.808   7.945   7.976  0.2679 -0.8753 -0.2172
27993SOL     OW95703   8.741  11.232   4.737 -0.7872  0.4277  0.3097
27993SOL    HW195704   8.784  11.148   4.717 -1.9439 -0.1923  0.3120
27993SOL    HW295705   8.706  11.262   4.653 -4.0039 -1.2328  0.8666
27994SOL     OW95706   7.469  12.159   9.668  0.1765  0.2553 -0.0935
27994SOL    HW195707   7.475  12.248   9.702 -0.4247  0.0778  0.4871
27994SOL    HW295708   7.375  12.140   9.666  0.3561 -0.8099  0.9686
27995SOL     OW95709   5.715   1.252   6.955  0.2728 -0.2224 -0.1760
27995SOL    HW195710   5.733   1.216   7.042  0.4084  0.8790  0.2654
27995SOL    HW295711   5.681   1.177   6.905  0.5656 -0.9614  0.6981
27996SOL     OW95712   2.405  11.066   8.896 -0.2087  0.5495 -0.1434
27996SOL    HW195713   2.389  11.092   8.805 -1.7044 -0.2556 -0.1383
27996SOL    HW295714   2.499  11.082   8.909 -0.1442  1.4830 -1.5533
27997SOL     OW95715   8.785   3.961   5.109 -0.7286 -0.1790  0.5319
27997SOL    HW195716   8.872   4.001   5.117 -1.0441  0.6493 -0.1127
27997SOL    HW295717   8.803   3.874   5.071 -0.0637 -0.5956  1.7524
27998SOL     OW95718   0.523   6.652   6.288  0.1344 -0.3956  0.1544
27998SOL    HW195719   0.442   6.676   6.334 -2.0193 -1.2143 -2.8824
27998SOL    HW295720   0.549   6.569   6.328  0.9342  1.0087  2.7736
27999SOL     OW95721   8.311   8.910   3.866 -0.5555 -0.1452  0.0078
27999SOL    HW195722   8.268   8.919   3.781 -0.2063  1.2002 -0.0607
27999SOL    HW295723   8.241   8.924   3.930 -0.1973  3.0206 -0.0968
28000SOL     OW95724   2.936   0.220   7.552  0.3181  0.0379  0.1194
28000SOL    HW195725   2.880   0.298   7.545 -0.2763 -0.0547  2.7705
28000SOL    HW295726   2.878   0.147   7.534 -0.7739 -0.1033  3.4492
28001SOL     OW95727   3.206  11.743   5.884  0.4388  0.2208 -0.0563
28001SOL    HW195728   3.210  11.659   5.931 -0.0250 -0.2794 -0.8809
28001SOL    HW295729   3.212  11.809   5.953  2.9540 -0.4356  0.4891
28002SOL     OW95730   1.635   6.040   0.820 -0.0603  0.5143  0.3920
28002SOL    HW195731   1.581   6.008   0.892  1.5918  0.0905  1.4752
28002SOL    HW295732   1.722   6.052   0.857  0.6242  1.1675 -1.3086
28003SOL     OW95733   7.411  11.323  10.646 -0.6044  0.0802  0.5051
28003SOL    HW195734   7.361  11.327  10.728  0.0065 -0.3610  0.9014
28003SOL    HW295735   7.497  11.360  10.668 -0.1981 -0.6944  0.2418
28004SOL     OW95736  11.466   2.950   5.450 -0.0007  0.3288  0.1416
28004SOL    HW195737  11.394   2.979   5.507 -0.5616  2.1456 -1.3567
28004SOL    HW295738  11.423   2.924   5.369  0.9788  1.2237 -0.7024
28005SOL     OW95739   3.930   3.499   7.953  0.7859 -0.1714  0.3905
28005SOL    HW195740   3.844   3.498   7.995 -0.4586  3.1733 -1.7109
28005SOL    HW295741   3.989   3.536   8.019  0.1263 -0.2747  1.0475
28006SOL     OW95742   2.285  12.806   6.445 -0.2686 -0.5090 -0.1542
28006SOL    HW195743   2.304  12.763   6.528 -0.7026 -0.1997  0.1049
28006SOL    HW295744   2.234  12.741   6.396 -2.8492  0.4397  1.0804
28007SOL     OW95745   4.158   5.933   5.756  0.2535  0.0804  0.5584
28007SOL    HW195746   4.122   5.851   5.720  1.2253 -0.3113  0.4385
28007SOL    HW295747   4.118   5.941   5.842  0.9787 -1.1258  1.0420
28008SOL     OW95748   6.253   7.990  13.045  0.6531  0.1660  0.0531
28008SOL    HW195749   6.234   8.055  12.977  0.6419 -0.6163 -0.7072
28008SOL    HW295750   6.346   7.998  13.062  0.6904  0.2325 -0.1888
28009SOL     OW95751   3.309   7.417  12.904  0.4509 -0.4111 -0.0596
28009SOL    HW195752   3.352   7.345  12.951  0.4464 -1.2594 -1.3092
28009SOL    HW295753   3.217   7.390  12.900 -0.0430  0.8619  1.6168
28010SOL     OW95754   0.180   7.082   1.133 -0.3131  0.1263 -0.1139
28010SOL    HW195755   0.209   7.076   1.042 -0.5901  0.1254 -0.2046
28010SOL    HW295756   0.258   7.064   1.185 -0.4063 -1.0812 -0.3561
28011SOL     OW95757   2.880  13.594   5.608 -0.2266 -0.5292 -0.2032
28011SOL    HW195758   2.918  13.643   5.681 -0.1136 -0.4940 -0.2852
28011SOL    HW295759   2.831  13.523   5.650 -2.3427  0.9727  0.0303
28012SOL     OW95760  13.005   3.568   2.814  0.7443  0.1435  0.5336
28012SOL    HW195761  12.960   3.573   2.729  2.2394  0.8574 -0.2539
28012SOL    HW295762  12.974   3.486   2.853 -0.3989  0.0888 -0.4396
28013SOL     OW95763   7.600   7.433  13.570 -0.1864 -0.0117 -0.1874
28013SOL    HW195764   7.507   7.410  13.565 -0.0438 -0.7054  0.2222
28013SOL    HW295765   7.644   7.351  13.595  0.3466  0.7082  1.3680
28014SOL     OW95766   6.043   6.270   9.576  0.2379 -0.2005  0.3460
28014SOL    HW195767   6.013   6.284   9.486  1.0199  1.4072  0.2956
28014SOL    HW295768   6.060   6.358   9.609 -0.2212 -0.7510  2.1542
28015SOL     OW95769   6.250  13.540  12.064  0.9438  0.0274  0.1746
28015SOL    HW195770   6.301  13.459  12.056 -0.0233 -0.4626 -1.8084
28015SOL    HW295771   6.280  13.595  11.992  1.5636  1.4548  1.4904
28016SOL     OW95772  11.098   9.021   5.698  0.2857 -0.1826 -0.2111
28016SOL    HW195773  11.157   8.979   5.760  1.0566 -0.3225 -1.0266
28016SOL    HW295774  11.124   8.987   5.612 -1.5878 -1.0032 -0.5300
28017SOL     OW95775   3.541  11.883   8.060  0.0588 -0.2641  0.2688
28017SOL    HW195776   3.625  11.901   8.103  0.9595 -0.1860 -1.4527
28017SOL    HW295777   3.475  11.912   8.124  1.3375  0.4066  1.3419
28018SOL     OW95778  10.230   8.873   8.269 -0.3956 -0.1573  0.0861
28018SOL    HW195779  10.209   8.783   8.243  0.2888 -0.1301 -0.5794
28018SOL    HW295780  10.145   8.917   8.273 -0.9021 -1.1812  1.8373
28019SOL     OW95781   8.148   7.142  11.541  0.0350  0.5716  0.1063
28019SOL    HW195782   8.074   7.093  11.507  0.4453 -0.3370  0.4975
28019SOL    HW295783   8.224   7.103  11.498  0.2739  1.7056 -0.5405
28020SOL     OW95784   6.339  10.497   5.258 -0.0084  0.0632  0.2431
28020SOL    HW195785   6.313  10.497   5.166  1.3834  1.2337 -0.1831
28020SOL    HW295786   6.434  10.488   5.256  0.2327  1.9039  1.4729
28021SOL     OW95787   0.343   3.057  11.243 -0.3601  0.4506  0.1368
28021SOL    HW195788   0.381   3.121  11.304  0.8757  0.5572 -0.7101
28021SOL    HW295789   0.385   2.974  11.266 -1.5958  0.0178  0.9078
28022SOL     OW95790   0.068   7.585   4.152 -0.1052  0.1187  0.2657
28022SOL    HW195791   0.006   7.639   4.202 -0.3436  0.4186 -0.3415
28022SOL    HW295792   0.130   7.648   4.115 -0.2274 -0.0443 -0.2290
28023SOL     OW95793   3.277   1.734   7.706  0.2206  0.3332  0.1094
28023SOL    HW195794   3.258   1.731   7.800 -0.3427  1.1111  0.0292
28023SOL    HW295795   3.196   1.767   7.666  0.0867 -0.9885 -0.7725
28024SOL     OW95796  11.429  13.501   7.473  0.3517  0.2616  0.1655
28024SOL    HW195797  11.344  13.524   7.436  0.1134 -1.5729 -0.5356
28024SOL    HW295798  11.415  13.504   7.568 -1.0429 -1.6666  0.0908
28025SOL     OW95799   8.266   0.113   6.087  0.1289  0.6360 -0.2142
28025SOL    HW195800   8.277   0.022   6.057 -0.9899  0.1240  0.8353
28025SOL    HW295801   8.340   0.127   6.146  0.2363  0.3600 -0.2779
28026SOL     OW95802   8.122  11.756   5.003  0.0071 -0.7919  0.1519
28026SOL    HW195803   8.152  11.666   5.017 -1.3610 -1.0846  1.4160
28026SOL    HW295804   8.032  11.747   4.973 -0.2281  0.1586  0.5399
28027SOL     OW95805   1.719  12.020   8.348  0.0350  0.5330  0.1524
28027SOL    HW195806   1.736  11.936   8.305  0.2215  0.1941  0.8622
28027SOL    HW295807   1.765  12.084   8.295 -0.9474  0.3416 -0.9885
28028SOL     OW95808  12.373   0.417  10.843  0.3041  0.4379 -0.2128
28028SOL    HW195809  12.311   0.349  10.817  1.2430 -0.0816 -1.1628
28028SOL    HW295810  12.322   0.476  10.900 -0.5270 -1.0382  0.6218
28029SOL     OW95811   7.102  11.903   3.339 -0.0381 -0.6315  0.4527
28029SOL    HW195812   7.094  11.865   3.427 -0.2193 -1.9074 -0.0827
28029SOL    HW295813   7.156  11.840   3.291  1.4349  0.8550  0.0828
28030SOL     OW95814   1.643   3.726  11.297 -0.3596  0.4434 -0.3586
28030SOL    HW195815   1.604   3.691  11.218  0.3246 -0.5822 -0.2599
28030SOL    HW295816   1.569   3.745  11.354 -1.0662  3.4512 -2.0616
28031SOL     OW95817  11.411   8.406   1.822  0.1545  0.0638 -0.4510
28031SOL    HW195818  11.438   8.375   1.908  0.7643 -0.1910 -0.7240
28031SOL    HW295819  11.443   8.496   1.818 -1.7827  0.8294  0.4149
28032SOL     OW95820  11.301   7.514   1.615  0.3148 -0.1073 -0.4235
28032SOL    HW195821  11.388   7.475   1.604  0.2277 -0.1608 -0.9653
28032SOL    HW295822  11.240   7.446   1.586  0.1254  0.1578 -0.6615
28033SOL     OW95823  11.334   0.124   9.361 -0.2259  0.0352  0.1675
28033SOL    HW195824  11.388   0.111   9.439 -1.7183  0.3262  1.3080
28033SOL    HW295825  11.382   0.189   9.309 -0.2218  1.4829  1.9032
28034SOL     OW95826   3.489   1.221  11.453  0.0417  0.2654 -0.0879
28034SOL    HW195827   3.559   1.242  11.391  0.0506  0.4920 -0.0031
28034SOL    HW295828   3.535   1.197  11.533  0.0193  0.5583  0.0127
28035SOL     OW95829   7.650   1.516   2.519  0.1381 -0.2658  0.6710
28035SOL    HW195830   7.620   1.561   2.598  0.9121 -0.7146  1.2268
28035SOL    HW295831   7.574   1.465   2.490 -0.1496 -0.0971  1.1194
28036SOL     OW95832   4.537  12.822   8.288  0.0514 -0.0151  0.0676
28036SOL    HW195833   4.582  12.885   8.344 -1.4265  0.7063  0.4977
28036SOL    HW295834   4.605  12.788   8.230  0.6548  3.0961 -1.2117
28037SOL     OW95835   8.923   1.391   4.569  0.2458 -0.1393  0.4657
28037SOL    HW195836   8.881   1.332   4.632  0.4523 -1.5873 -0.6767
28037SOL    HW295837   8.861   1.397   4.497 -0.1046  1.7096  0.8754
28038SOL     OW95838   8.022  13.183   5.552 -0.2410 -0.3540  0.1424
28038SOL    HW195839   8.031  13.131   5.472  0.4662  1.2735 -0.9033
28038SOL    HW295840   7.937  13.157   5.589 -1.2215 -0.2162 -1.8718
28039SOL     OW95841   8.598   9.263   7.896 -0.7165  0.0822  0.1543
28039SOL    HW195842   8.507   9.258   7.866 -1.0804 -1.7981  1.4488
28039SOL    HW295843   8.649   9.229   7.822 -1.3314 -1.5045  0.4295
28040SOL     OW95844  10.040   7.779   8.409  0.2416  0.3567 -0.0127
28040SOL    HW195845   9.972   7.749   8.348 -0.3582 -0.2360  0.9227
28040SOL    HW295846   9.993   7.829   8.475  0.7289  0.0081  0.6020
28041SOL     OW95847   6.517   8.361   0.328  0.2431  0.1536 -0.3614
28041SOL    HW195848   6.544   8.280   0.287  1.2735 -0.1651  0.8719
28041SOL    HW295849   6.424   8.370   0.306 -0.2011 -1.9595  0.3982
28042SOL     OW95850  11.836   4.631  10.120  0.1451  0.2176  0.3097
28042SOL    HW195851  11.878   4.564  10.173  1.3359  0.4977 -0.2446
28042SOL    HW295852  11.860   4.713  10.162 -0.5218  0.3494  0.4426
28043SOL     OW95853   9.392   3.474   0.882  0.7117 -0.4778 -0.8493
28043SOL    HW195854   9.483   3.458   0.855  1.4196  0.1652  0.9669
28043SOL    HW295855   9.397   3.555   0.933 -0.2918 -2.0412  1.9429
28044SOL     OW95856  10.118   6.836   4.503 -0.6932  0.1516  0.5755
28044SOL    HW195857  10.053   6.787   4.553 -0.8992  0.1520  0.3089
28044SOL    HW295858  10.082   6.842   4.415 -0.1890 -0.1283  0.3408
28045SOL     OW95859  10.294  12.002   7.406 -0.3619  0.6041 -0.6421
28045SOL    HW195860  10.228  12.042   7.464  0.3306 -1.3379  1.6455
28045SOL    HW295861  10.242  11.953   7.342 -1.1547  1.1647 -0.4510
28046SOL     OW95862   5.837   4.269  10.178  0.0463 -0.0924 -0.1834
28046SOL    HW195863   5.823   4.284  10.084  1.0716  0.5548 -0.2493
28046SOL    HW295864   5.750   4.269  10.216 -0.5711 -2.4666 -1.4288
28047SOL     OW95865   1.320   2.000  11.091  0.3524 -0.0265 -0.0459
28047SOL    HW195866   1.405   1.971  11.058  0.1787  0.8689 -1.3336
28047SOL    HW295867   1.284   2.054  11.022 -1.0151  0.1180  0.7350
28048SOL     OW95868   3.826   1.018   1.572 -0.3573 -0.1171 -0.1094
28048SOL    HW195869   3.778   1.005   1.654  0.5619  2.3606  0.9266
28048SOL    HW295870   3.759   1.014   1.504 -1.0972 -2.5913  0.6410
28049SOL     OW95871   4.991   9.828   3.980  0.0759  0.2675 -0.3113
28049SOL    HW195872   4.908   9.806   4.022 -0.1929 -0.2469 -1.0928
28049SOL    HW295873   4.973   9.907   3.931 -0.2501 -0.4082 -1.3133
28050SOL     OW95874   6.550  10.664  12.441 -0.4010 -0.1479 -0.2857
28050SOL    HW195875   6.569  10.756  12.421  1.2950  0.2974  2.8083
28050SOL    HW295876   6.577  10.617  12.362 -1.4716  1.9543 -2.0308
28051SOL     OW95877  11.864   2.960   1.178 -0.1378 -0.1897 -0.4165
28051SOL    HW195878  11.797   2.911   1.225  0.0040 -1.0524 -1.1016
28051SOL    HW295879  11.817   3.031   1.135 -0.8112 -1.4997 -1.8896
28052SOL     OW95880   0.271   4.438   0.203  0.0297 -0.4706 -0.0439
28052SOL    HW195881   0.194   4.493   0.190 -0.4633 -1.3121 -0.7888
28052SOL    HW295882   0.308   4.468   0.286 -0.7667  0.3354  0.0359
28053SOL     OW95883   4.659   6.299   6.006 -0.1335  0.0386 -0.5052
28053SOL    HW195884   4.642   6.216   6.052  0.9818 -0.7448 -1.4406
28053SOL    HW295885   4.588   6.305   5.942  1.4643 -1.9001 -2.6366
28054SOL     OW95886   3.347   5.051  10.459  0.1512  0.0214  0.6685
28054SOL    HW195887   3.341   5.137  10.419 -1.0208 -0.0432  0.6551
28054SOL    HW295888   3.405   5.001  10.402  0.5688  0.6919  0.4942
28055SOL     OW95889  11.098   7.289   3.454  0.3684  0.3017  0.3003
28055SOL    HW195890  11.124   7.202   3.483  1.0681 -0.2854 -1.9467
28055SOL    HW295891  11.178   7.341   3.458 -0.0878  0.9687  1.8391
28056SOL     OW95892   3.838   2.029  12.924 -0.4579  0.4041  0.0853
28056SOL    HW195893   3.818   2.104  12.980  0.5411  0.7530 -0.0134
28056SOL    HW295894   3.933   2.022  12.925 -0.4873 -0.2976 -0.6420
28057SOL     OW95895   1.553  10.648   2.345 -0.3443  0.6283 -0.3922
28057SOL    HW195896   1.557  10.559   2.309  1.1596  0.5487 -0.0980
28057SOL    HW295897   1.489  10.643   2.415  1.5753 -0.9264  1.3672
28058SOL     OW95898   7.251   1.884   5.729 -0.2677  0.7267 -0.0705
28058SOL    HW195899   7.269   1.863   5.820 -0.3192 -1.5743 -0.5238
28058SOL    HW295900   7.159   1.860   5.717  0.0950 -0.2993 -1.0156
28059SOL     OW95901   3.827   7.989   9.970  0.0748 -0.0763 -0.1715
28059SOL    HW195902   3.756   8.034   9.925  0.2898  0.2574 -0.1784
28059SOL    HW295903   3.897   8.054   9.976 -0.1757  0.1124  1.2023
28060SOL     OW95904   4.738   6.758   9.462  0.2105  0.3655 -0.0564
28060SOL    HW195905   4.811   6.750   9.401  0.6157 -0.3052  0.4962
28060SOL    HW295906   4.779   6.756   9.549 -0.4349  0.3456  0.2543
28061SOL     OW95907   4.009   3.648  11.408 -0.1199  0.0857  0.1426
28061SOL    HW195908   4.102   3.669  11.398 -0.2634  0.4455 -0.4617
28061SOL    HW295909   3.967   3.687  11.332 -0.6821 -0.6306  0.0776
28062SOL     OW95910   5.132   1.948  12.303  0.0363 -0.4056  0.4469
28062SOL    HW195911   5.170   1.948  12.215 -0.0303  1.0277  0.3882
28062SOL    HW295912   5.045   1.987  12.291 -0.2036 -0.7362  1.0671
28063SOL     OW95913  11.929  12.272   3.432 -0.0894 -0.7285 -0.1793
28063SOL    HW195914  11.957  12.207   3.369 -0.4235 -0.6379 -0.4238
28063SOL    HW295915  11.867  12.327   3.384 -0.8344 -1.0467  0.3975
28064SOL     OW95916   6.882   3.228   9.539 -0.5693  0.1951  0.1812
28064SOL    HW195917   6.850   3.138   9.528  0.4380 -0.0699 -0.9025
28064SOL    HW295918   6.849   3.256   9.624 -1.6950 -0.8612  0.1177
28065SOL     OW95919   4.600   1.849   2.997 -0.1954  0.1125  0.3164
28065SOL    HW195920   4.689   1.860   2.963 -0.5839 -0.4847 -0.9879
28065SOL    HW295921   4.564   1.937   2.998  0.1658  0.2651  0.1044
28066SOL     OW95922   7.178  12.441  11.552  0.4176 -0.1664 -0.4720
28066SOL    HW195923   7.137  12.526  11.537  0.2817 -0.3941 -1.4110
28066SOL    HW295924   7.120  12.379  11.509  0.7050 -0.7047 -0.0904
28067SOL     OW95925   2.984   0.764   3.710 -0.0386 -0.2747 -0.0238
28067SOL    HW195926   2.906   0.811   3.680  0.3844  0.4807  0.0596
28067SOL    HW295927   3.007   0.707   3.636 -0.4151 -0.1872 -0.2122
28068SOL     OW95928   4.336   9.326   2.950  0.0885  0.3433 -0.3150
28068SOL    HW195929   4.273   9.302   3.018 -0.7067 -0.8970 -1.4271
28068SOL    HW295930   4.349   9.420   2.961 -0.0586  0.1968  1.4876
28069SOL     OW95931   5.735  13.149   6.455 -0.4207  0.0067 -0.1554
28069SOL    HW195932   5.693  13.233   6.437  0.3806  1.0191  2.2137
28069SOL    HW295933   5.767  13.158   6.545  0.3025 -2.6030 -0.0830
28070SOL     OW95934   9.152  12.733   8.196 -0.1855  0.8163 -0.5719
28070SOL    HW195935   9.227  12.786   8.169 -0.0447  0.1737 -1.4702
28070SOL    HW295936   9.147  12.746   8.291  1.9558 -0.2937 -0.2512
28071SOL     OW95937  11.274   9.545   7.710  0.1624  0.3884 -0.7305
28071SOL    HW195938  11.334   9.567   7.781  0.1824 -0.6140 -0.4126
28071SOL    HW295939  11.232   9.628   7.686  1.0209  0.9387 -0.3569
28072SOL     OW95940   1.895  11.872   5.702  0.0336  0.1019 -0.5714
28072SOL    HW195941   1.989  11.886   5.714  0.1854 -0.1363 -1.3921
28072SOL    HW295942   1.874  11.920   5.622 -0.3482 -0.6002 -0.8973
28073SOL     OW95943  10.444   2.173   1.154  0.2043 -0.4964 -1.0159
28073SOL    HW195944  10.494   2.190   1.234  1.2019  0.4276 -1.7992
28073SOL    HW295945  10.430   2.078   1.154 -0.8439 -0.3869  0.8262
28074SOL     OW95946   2.367   3.520   1.610 -0.1858  0.1559  0.0089
28074SOL    HW195947   2.336   3.590   1.553  1.3779  0.6767 -0.2509
28074SOL    HW295948   2.288   3.470   1.631 -0.8627 -0.0430 -2.5657
28075SOL     OW95949  12.234   7.546   1.834 -0.3833 -0.0707 -0.1526
28075SOL    HW195950  12.219   7.588   1.749 -1.4220  0.7065  0.3938
28075SOL    HW295951  12.147   7.543   1.874  0.3347  1.1275  1.5945
28076SOL     OW95952  12.281   3.642  10.171 -0.1197  0.1108 -0.0901
28076SOL    HW195953  12.327   3.650  10.255 -0.2182 -1.3702  0.1350
28076SOL    HW295954  12.188   3.643  10.194 -0.1468 -0.3500 -0.1582
28077SOL     OW95955  12.957   2.046  13.623  0.1124  0.5017  0.3415
28077SOL    HW195956  13.042   2.088  13.637  0.1284  0.3383  0.7539
28077SOL    HW295957  12.958   2.022  13.530  0.9543 -0.4187  0.5568
28078SOL     OW95958   8.895   1.302  12.780 -0.3971  0.4379 -0.4450
28078SOL    HW195959   8.867   1.258  12.700 -0.4376 -0.3970  0.0120
28078SOL    HW295960   8.983   1.334  12.761 -0.5356  0.5426 -0.9282
28079SOL     OW95961   5.093   0.102   9.800 -0.2427  0.1862  0.0736
28079SOL    HW195962   5.086   0.197   9.812  0.2059  0.0926  1.2362
28079SOL    HW295963   5.187   0.086   9.790 -0.3208 -0.1217 -0.1780
28080SOL     OW95964   9.665   3.023   8.014  0.1185  0.2631  0.1499
28080SOL    HW195965   9.646   2.932   8.035 -0.2225  0.3353  0.1673
28080SOL    HW295966   9.710   3.020   7.930  2.3910 -0.1072  1.3162
28081SOL     OW95967  11.878   7.168   2.142 -0.0851 -0.0864 -0.0080
28081SOL    HW195968  11.954   7.220   2.167  0.8043  0.4355 -3.2491
28081SOL    HW295969  11.805   7.230   2.141  0.2680  0.3297 -0.5562
28082SOL     OW95970   4.700   1.833   9.972  0.1859  0.2373 -0.0474
28082SOL    HW195971   4.696   1.744  10.007 -3.7094 -0.0112 -0.6018
28082SOL    HW295972   4.736   1.822   9.883 -0.2845 -0.8129 -0.1254
28083SOL     OW95973   9.014   5.194  13.183 -0.7686 -0.1585  0.0361
28083SOL    HW195974   9.098   5.232  13.157 -0.5307  0.3813  1.4925
28083SOL    HW295975   9.036   5.134  13.255 -1.3390 -1.8939 -1.1631
28084SOL     OW95976   0.565   2.041   6.417  0.6961  0.3786 -0.7185
28084SOL    HW195977   0.471   2.046   6.397  0.5444 -0.1558 -0.1963
28084SOL    HW295978   0.568   1.995   6.501  1.4597 -0.2790 -1.0960
28085SOL     OW95979   3.574   1.859   8.331 -0.2098  0.8565  0.4062
28085SOL    HW195980   3.565   1.831   8.422 -0.9853  0.1983  0.1412
28085SOL    HW295981   3.602   1.780   8.284  0.7184  1.3260  0.1582
28086SOL     OW95982   9.788   9.439   2.879 -0.4439 -0.7019  0.0053
28086SOL    HW195983   9.868   9.483   2.910 -0.7645 -0.6501  0.7598
28086SOL    HW295984   9.760   9.493   2.805  0.1337 -0.6283 -0.1693
28087SOL     OW95985   3.465   2.921   4.465  0.1486 -0.2521 -0.0676
28087SOL    HW195986   3.373   2.942   4.476  0.2280  0.5714 -0.8520
28087SOL    HW295987   3.511   2.985   4.519  0.3191  0.3610 -0.9339
28088SOL     OW95988   7.698  13.221   0.730  0.3984 -0.3979 -0.3688
28088SOL    HW195989   7.677  13.140   0.684  0.2262 -0.9957  0.7384
28088SOL    HW295990   7.788  13.209   0.759  0.3198 -0.2591 -0.0665
28089SOL     OW95991   3.429   4.784  11.887  0.7376  0.0402 -0.2762
28089SOL    HW195992   3.445   4.695  11.920 -2.4562 -0.5885 -0.0871
28089SOL    HW295993   3.433   4.775  11.792 -0.4596 -0.5456 -0.2869
28090SOL     OW95994   9.256   2.070   8.775 -0.8597  0.3536  0.0217
28090SOL    HW195995   9.203   2.148   8.758 -2.5251  0.0759  3.1811
28090SOL    HW295996   9.332   2.103   8.823 -0.9417  0.1911  0.2674
28091SOL     OW95997   6.757  10.451   5.504 -0.5416 -0.0316  0.0417
28091SOL    HW195998   6.686  10.465   5.568 -1.4223 -0.7583 -0.7510
28091SOL    HW295999   6.829  10.414   5.556 -1.9382 -2.5745  0.3667
28092SOL     OW96000   4.410  12.469   7.135 -0.1587  0.1729 -0.2860
28092SOL    HW196001   4.332  12.461   7.080 -1.2712  0.7839  1.1265
28092SOL    HW296002   4.455  12.547   7.103 -0.3600  0.0676 -0.8259
28093SOL     OW96003   8.707  10.678  11.132  0.5560  0.3965 -0.1744
28093SOL    HW196004   8.628  10.625  11.147  1.4086 -1.0328 -0.6126
28093SOL    HW296005   8.759  10.666  11.212  0.5621  0.9476 -0.0912
28094SOL     OW96006   2.996   0.720   6.243  0.0799 -0.1687  0.2180
28094SOL    HW196007   2.920   0.730   6.185  3.3898 -1.3564 -4.9690
28094SOL    HW296008   2.986   0.632   6.280 -1.9382  0.4734  1.3798
28095SOL     OW96009   9.567   3.075   4.193 -0.0088  0.1651  0.6020
28095SOL    HW196010   9.595   3.097   4.104  2.0445  0.5741  1.2841
28095SOL    HW296011   9.492   3.016   4.181  1.0615 -0.9074 -1.4180
28096SOL     OW96012  12.361  10.485  13.334  0.3804 -0.8395  0.0302
28096SOL    HW196013  12.269  10.498  13.309  0.2666  0.5807  1.0570
28096SOL    HW296014  12.389  10.409  13.283 -1.2565 -1.0843 -0.5780
28097SOL     OW96015  10.572  11.451   1.709 -0.0695  0.3053 -0.1682
28097SOL    HW196016  10.494  11.459   1.764 -0.6397 -0.1800 -0.8727
28097SOL    HW296017  10.565  11.363   1.671  1.0814  0.0727  0.1341
28098SOL     OW96018   4.908   8.561  10.749  0.0427  0.4216  0.2736
28098SOL    HW196019   4.850   8.542  10.675 -0.9007  0.2413  1.0418
28098SOL    HW296020   4.851   8.600  10.815  1.2123  2.3167  0.2355
28099SOL     OW96021  12.552  13.440   5.027  0.0058 -0.0064  0.2028
28099SOL    HW196022  12.459  13.439   5.048 -0.0452  0.0338 -0.0192
28099SOL    HW296023  12.556  13.418   4.933  0.2132  0.0516  0.1971
28100SOL     OW96024   3.321   4.886  12.531 -0.1754 -0.4495 -0.3015
28100SOL    HW196025   3.405   4.842  12.519  0.2961  0.5747 -0.8310
28100SOL    HW296026   3.256   4.816  12.520  0.5992 -1.3386  0.5307
28101SOL     OW96027   0.771   9.456   8.655  0.2196 -0.2382  0.0323
28101SOL    HW196028   0.794   9.377   8.704  1.9185  0.6635  0.7731
28101SOL    HW296029   0.683   9.479   8.686  1.4193  0.6066  3.2092
28102SOL     OW96030   3.133   9.780   1.239 -0.6085 -0.6507 -0.2628
28102SOL    HW196031   3.070   9.844   1.274 -0.2029 -0.4626  0.1245
28102SOL    HW296032   3.218   9.814   1.265 -0.1585  0.3573 -2.7665
28103SOL     OW96033   3.246   9.387  12.989  0.4886 -0.7587 -0.0949
28103SOL    HW196034   3.273   9.473  12.957 -0.5206 -0.6663 -0.7200
28103SOL    HW296035   3.208   9.344  12.913 -0.7583 -1.0329  0.6641
28104SOL     OW96036  12.720   8.826  12.649 -0.0846 -0.7768  0.2904
28104SOL    HW196037  12.803   8.802  12.691 -0.2944 -1.7561  0.1739
28104SOL    HW296038  12.657   8.831  12.721 -0.1161 -0.9339  0.2737
28105SOL     OW96039  12.791  13.456   1.879 -0.2613  0.1753 -0.0231
28105SOL    HW196040  12.717  13.509   1.908 -0.4160  0.1326 -0.3368
28105SOL    HW296041  12.854  13.519   1.844 -0.5444  0.1336 -0.6114
28106SOL     OW96042   3.979  11.471   2.014  0.3068  0.4244 -0.1233
28106SOL    HW196043   3.935  11.554   1.994 -0.7244 -0.1256 -0.1900
28106SOL    HW296044   4.032  11.491   2.091  0.2246  1.2032 -0.2560
28107SOL     OW96045  13.047   6.360   3.838 -0.1303  0.3148 -0.2520
28107SOL    HW196046  13.007   6.314   3.765 -3.1222 -0.1475  1.5335
28107SOL    HW296047  12.999   6.443   3.843  2.1805  1.7667 -0.6710
28108SOL     OW96048  12.665   7.418   3.223  0.4962 -0.5632  0.3391
28108SOL    HW196049  12.597   7.352   3.212 -2.9339  2.7438 -0.1510
28108SOL    HW296050  12.735   7.390   3.164 -2.7748 -1.4399 -3.5675
28109SOL     OW96051   5.419   8.275   6.912 -0.0724 -0.2866  0.3575
28109SOL    HW196052   5.512   8.261   6.931 -0.3912  0.3962  2.7301
28109SOL    HW296053   5.384   8.187   6.898  0.3261 -0.8643  2.6996
28110SOL     OW96054   2.589   2.538   6.285 -0.1117 -0.1980 -0.0086
28110SOL    HW196055   2.668   2.567   6.238  0.4262  0.9118  1.5003
28110SOL    HW296056   2.568   2.611   6.343 -3.6259  0.5556 -1.9264
28111SOL     OW96057   8.927   4.999  12.788  0.2642 -0.7314 -0.2209
28111SOL    HW196058   8.867   4.959  12.850  0.4317 -1.6711 -0.6494
28111SOL    HW296059   8.902   4.963  12.703 -0.0508  0.6500 -0.7380
28112SOL     OW96060   6.760   0.612   9.395  0.2766 -0.0417  0.5933
28112SOL    HW196061   6.780   0.596   9.487  0.3489  1.4168  0.8645
28112SOL    HW296062   6.844   0.604   9.351  0.0556 -1.8786  0.4505
28113SOL     OW96063   2.314   4.731   3.942  0.2509  0.1713 -0.1942
28113SOL    HW196064   2.231   4.686   3.925  0.5488 -1.1694  1.5190
28113SOL    HW296065   2.354   4.741   3.856 -0.1299 -2.3423 -0.7511
28114SOL     OW96066   8.224   0.446   2.017 -0.0256  0.2390 -0.2517
28114SOL    HW196067   8.294   0.509   2.030  0.3711 -0.1923 -0.2771
28114SOL    HW296068   8.144   0.494   2.039  0.4638  0.0769  2.1138
28115SOL     OW96069   7.839   3.290   5.689  0.1588  0.2685 -0.2061
28115SOL    HW196070   7.850   3.378   5.652  0.7239  0.0695 -0.5186
28115SOL    HW296071   7.927   3.253   5.692 -0.2321 -0.8992 -1.6208
28116SOL     OW96072   2.746  11.358  12.879 -1.1760 -0.3039  0.3136
28116SOL    HW196073   2.656  11.353  12.912 -0.9207 -1.1731  0.8951
28116SOL    HW296074   2.800  11.357  12.957 -0.6504  0.3868 -0.0272
28117SOL     OW96075   3.166   3.956   1.040 -0.5870 -0.5583  0.8024
28117SOL    HW196076   3.205   3.895   1.102  1.4494 -1.1064 -0.9130
28117SOL    HW296077   3.235   4.021   1.023 -1.4360  0.1382 -0.1264
28118SOL     OW96078   8.112   0.061  12.254  0.1420 -0.2597  0.0121
28118SOL    HW196079   8.030   0.066  12.303 -1.8406  1.7696 -3.1387
28118SOL    HW296080   8.106  -0.022  12.206  1.1173 -1.2233  1.4470
28119SOL     OW96081   5.692   8.030   5.726 -0.2001 -0.0558  0.3665
28119SOL    HW196082   5.735   7.953   5.687  1.1424 -0.2724  2.1193
28119SOL    HW296083   5.721   8.103   5.672 -0.7490 -0.6459 -0.7713
28120SOL     OW96084   1.374   2.066   0.414 -0.1237  0.3935 -0.4484
28120SOL    HW196085   1.403   2.155   0.435 -0.7852  0.6364 -0.5435
28120SOL    HW296086   1.296   2.053   0.467  0.4463 -0.4554  0.2135
28121SOL     OW96087   9.113   0.443  11.167  0.1023  0.1690 -0.0028
28121SOL    HW196088   9.196   0.409  11.200  1.2857  0.9198 -2.0569
28121SOL    HW296089   9.124   0.538  11.165 -1.1658  0.3576  0.5432
28122SOL     OW96090   8.809   0.607   9.151  0.0188 -0.3820  0.1243
28122SOL    HW196091   8.868   0.645   9.087 -1.7849  1.4392 -0.5790
28122SOL    HW296092   8.837   0.516   9.160  2.0433  0.0746 -1.1370
28123SOL     OW96093   5.283  11.839   6.748 -0.4849 -0.1006  0.0570
28123SOL    HW196094   5.265  11.810   6.837  0.1737  0.3352  0.3344
28123SOL    HW296095   5.243  11.926   6.742 -2.2624 -0.9092 -0.7050
28124SOL     OW96096  11.307  10.957   5.616 -0.3318 -0.2507 -0.2267
28124SOL    HW196097  11.391  10.911   5.621  2.0679  3.7132  1.6668
28124SOL    HW296098  11.316  11.014   5.539 -0.4027  1.4444  0.9477
28125SOL     OW96099   5.477   1.936   4.632  0.4705  0.1237 -0.1897
28125SOL    HW196100   5.477   2.013   4.575  1.7344 -0.2574 -0.7416
28125SOL    HW296101   5.563   1.936   4.673  0.5063 -1.0061 -0.2225
28126SOL     OW96102  10.294   8.625   9.603 -0.0305  0.8832 -0.5236
28126SOL    HW196103  10.300   8.680   9.682 -2.3008  1.3751 -0.6211
28126SOL    HW296104  10.324   8.539   9.632  2.1171  1.7719  0.0358
28127SOL     OW96105   6.530   5.919   1.022  0.2923  0.1238 -0.5385
28127SOL    HW196106   6.493   5.988   0.966  1.7188  1.2466 -0.1516
28127SOL    HW296107   6.612   5.895   0.979 -0.4722 -1.8356 -1.0060
28128SOL     OW96108   1.509   4.070   8.478 -0.0040 -0.6848  0.2172
28128SOL    HW196109   1.449   4.130   8.434  0.9736  2.3747  2.7494
28128SOL    HW296110   1.454   4.020   8.537 -0.4497  0.0551  0.4395
28129SOL     OW96111  10.229   8.103   3.816  0.0958  0.7885  0.2808
28129SOL    HW196112  10.191   8.049   3.746  0.8227 -1.0916  1.2713
28129SOL    HW296113  10.307   8.142   3.777  0.5014 -0.2530  0.0151
28130SOL     OW96114   0.163   6.788   3.984  0.3614 -0.0294  0.0862
28130SOL    HW196115   0.211   6.823   4.059  1.7903 -0.7275 -0.4756
28130SOL    HW296116   0.200   6.833   3.908 -0.3753 -0.0620 -0.3112
28131SOL     OW96117   2.005  11.725   9.668 -0.3677  0.1454  0.0221
28131SOL    HW196118   2.085  11.772   9.644 -0.1607  1.2149  2.4423
28131SOL    HW296119   1.936  11.765   9.616  0.4117  0.4256 -0.8106
28132SOL     OW96120   7.312   3.638  10.158  0.1596 -0.6749  0.2212
28132SOL    HW196121   7.349   3.662  10.243 -2.2600 -0.0032  1.1473
28132SOL    HW296122   7.322   3.543  10.154  3.6050 -0.4067 -0.4498
28133SOL     OW96123  13.517  12.410  12.478 -0.1228 -0.1794 -0.0008
28133SOL    HW196124  13.431  12.437  12.510 -0.3176  0.3614 -0.9712
28133SOL    HW296125  13.578  12.446  12.542 -0.6135 -0.7988  0.8506
28134SOL     OW96126   6.488   4.804   7.982 -0.0207  0.4477  0.0174
28134SOL    HW196127   6.407   4.784   8.030 -1.1297  3.2964 -0.4887
28134SOL    HW296128   6.558   4.770   8.038 -1.4692 -0.3905  1.4120
28135SOL     OW96129   8.505   7.569   0.794 -0.1299 -0.1754 -0.3963
28135SOL    HW196130   8.492   7.564   0.699 -0.9152  1.1712 -0.3787
28135SOL    HW296131   8.599   7.576   0.805 -0.1135  1.1981 -1.1839
28136SOL     OW96132  10.954   0.815   8.074  0.1373 -0.7330 -0.0488
28136SOL    HW196133  11.005   0.766   8.139 -0.9695 -0.5511  0.9925
28136SOL    HW296134  10.937   0.751   8.004 -0.4698 -1.5932  0.8506
28137SOL     OW96135   6.953   1.082   1.247 -0.0022 -0.3776 -0.3050
28137SOL    HW196136   6.876   1.089   1.191 -0.0260  0.8523 -0.1453
28137SOL    HW296137   6.954   1.164   1.297  1.2452 -0.4968 -0.0938
28138SOL     OW96138   4.365  10.935  10.688 -0.9454  0.5311 -0.0857
28138SOL    HW196139   4.456  10.965  10.681 -0.7723  0.1470  0.3836
28138SOL    HW296140   4.369  10.841  10.668 -1.5886  0.9194 -2.2307
28139SOL     OW96141  13.480   3.202   5.180 -0.0023  0.1620 -0.0444
28139SOL    HW196142  13.498   3.291   5.149  0.5174 -0.2551 -0.9444
28139SOL    HW296143  13.440   3.158   5.106 -0.9531 -0.1517  0.6374
28140SOL     OW96144  13.093   0.930   6.103  0.3380 -0.3606 -0.0895
28140SOL    HW196145  13.040   1.010   6.107  1.5880  0.5461 -1.0740
28140SOL    HW296146  13.032   0.863   6.073 -0.7126  0.2228  0.6702
28141SOL     OW96147   7.147   4.134   5.463 -0.0182 -0.7195 -0.8505
28141SOL    HW196148   7.176   4.187   5.388  2.1810 -1.2896 -0.4600
28141SOL    HW296149   7.221   4.135   5.523 -1.6864 -0.3905  1.3131
28142SOL     OW96150   6.607  12.333   7.773 -0.0015 -0.1355  0.2744
28142SOL    HW196151   6.612  12.428   7.780  1.8228 -0.1441 -0.2422
28142SOL    HW296152   6.646  12.301   7.854  0.0805 -0.4156  0.1256
28143SOL     OW96153  10.520  12.385   1.786  0.5948 -0.5035 -0.0748
28143SOL    HW196154  10.434  12.408   1.750  0.3959 -0.8146  0.2002
28143SOL    HW296155  10.569  12.353   1.710  0.5487 -0.0906 -0.2782
28144SOL     OW96156   9.317   8.371  13.560  0.2484  0.1007  0.0339
28144SOL    HW196157   9.273   8.454  13.576 -0.1956  0.0371 -0.8322
28144SOL    HW296158   9.346   8.375  13.469 -0.2097 -0.8883 -0.1662
28145SOL     OW96159  10.368   0.120   0.242  0.5501 -0.0717  0.1919
28145SOL    HW196160  10.384   0.123   0.148  0.2323  0.2018  0.1449
28145SOL    HW296161  10.451   0.091   0.280  0.4448 -0.9700 -0.2348
28146SOL     OW96162   6.669   1.590  12.407 -0.3349 -0.1127  0.2317
28146SOL    HW196163   6.640   1.504  12.377  0.3192 -0.0908 -0.4817
28146SOL    HW296164   6.752   1.572  12.453  1.0923  0.3744 -1.9836
28147SOL     OW96165   1.061   3.509  12.546  0.1946  0.3517 -0.8397
28147SOL    HW196166   1.079   3.603  12.548  0.5941  0.2816  1.2466
28147SOL    HW296167   0.998   3.495  12.618  0.5401 -1.0333 -0.7784
28148SOL     OW96168   2.215   8.413   6.944 -0.0905 -0.2524  0.1143
28148SOL    HW196169   2.198   8.319   6.949  0.5240 -0.3766 -0.0498
28148SOL    HW296170   2.233   8.430   6.852  0.3363 -0.0723  0.2287
28149SOL     OW96171   7.626   9.013   7.837 -0.5159  0.2301 -0.2764
28149SOL    HW196172   7.544   8.965   7.846 -2.2951  1.7715 -4.8866
28149SOL    HW296173   7.689   8.949   7.803 -0.4602 -0.4564  1.0894
28150SOL     OW96174   3.122  11.026   5.902  0.3972 -0.2151 -0.7376
28150SOL    HW196175   3.208  11.012   5.862  0.7927  1.5860 -0.5810
28150SOL    HW296176   3.079  11.089   5.844  0.8434  2.2075  1.3766
28151SOL     OW96177   2.205   8.493   8.107  0.2040 -0.4907 -0.2018
28151SOL    HW196178   2.248   8.564   8.058 -1.9936  2.0079  1.2130
28151SOL    HW296179   2.146   8.454   8.043 -1.2762  1.5032 -0.1475
28152SOL     OW96180  10.101   6.227   1.695  0.8277  0.5464  0.1806
28152SOL    HW196181  10.075   6.206   1.605 -1.3023  1.9386  0.3779
28152SOL    HW296182  10.019   6.249   1.738  1.5580 -1.8240  3.0211
28153SOL     OW96183   7.096  13.393   5.236  0.0014 -0.0598  0.3427
28153SOL    HW196184   7.125  13.455   5.302 -1.2467  2.9702 -1.7341
28153SOL    HW296185   7.177  13.366   5.191  0.5560  0.0168  1.2851
28154SOL     OW96186   0.884   7.342   8.291  0.2780  0.4491  0.1349
28154SOL    HW196187   0.844   7.372   8.372 -1.0753 -0.4112 -0.1753
28154SOL    HW296188   0.851   7.252   8.280  1.0741  0.2682 -0.9450
28155SOL     OW96189   7.287   2.002   7.044 -0.0471  0.1257 -0.1462
28155SOL    HW196190   7.197   2.014   7.073  0.0655  1.2715 -0.2396
28155SOL    HW296191   7.331   2.084   7.066  1.4802 -1.0856  1.6448
28156SOL     OW96192   8.483   8.629   2.754  0.3195  0.4019  0.2195
28156SOL    HW196193   8.564   8.658   2.712  1.0406 -0.0482  1.2528
28156SOL    HW296194   8.512   8.593   2.838 -0.8643 -0.5921  0.2141
28157SOL     OW96195   7.740   9.922  10.412 -0.8230  0.1828 -0.3495
28157SOL    HW196196   7.794   9.937  10.489  0.6543 -0.0809 -1.2907
28157SOL    HW296197   7.802   9.923  10.339 -2.2957  1.4112 -1.6586
28158SOL     OW96198   4.011   4.555   0.011  0.2878 -0.2687  0.2470
28158SOL    HW196199   4.012   4.460   0.008 -2.5267 -0.3822  0.1624
28158SOL    HW296200   4.018   4.576   0.104 -0.2242 -0.6107  0.3645
28159SOL     OW96201  12.331   0.197   2.451 -0.2309 -0.0363  0.4682
28159SOL    HW196202  12.368   0.249   2.379 -0.7433 -0.0309  0.2061
28159SOL    HW296203  12.339   0.253   2.528 -1.4326  0.7262  0.0543
28160SOL     OW96204  13.605  10.248   9.345  0.5930  0.0265 -0.1647
28160SOL    HW196205  13.571  10.277   9.430  3.1026 -1.3887  1.4448
28160SOL    HW296206  13.583  10.319   9.285 -0.5611  1.4594  1.8462
28161SOL     OW96207   6.300   3.229   1.807 -0.4699  0.4009  0.4492
28161SOL    HW196208   6.299   3.190   1.720 -0.3858  0.1919  0.5418
28161SOL    HW296209   6.226   3.189   1.852 -0.5325  0.5327  0.4656
28162SOL     OW96210   5.171   3.783   8.243 -0.0344  0.0053  0.0138
28162SOL    HW196211   5.264   3.763   8.237  0.0794 -0.2874  2.0070
28162SOL    HW296212   5.128   3.697   8.240 -0.0276 -0.0878  1.6312
28163SOL     OW96213   1.084   6.584   5.549  0.3078 -0.4366  0.2016
28163SOL    HW196214   1.069   6.655   5.487  1.8078 -0.1435  0.1383
28163SOL    HW296215   1.136   6.520   5.501  1.3880 -0.2670  1.0866
28164SOL     OW96216   3.902   7.021  11.007 -0.0929  0.1931 -0.4679
28164SOL    HW196217   3.858   7.020  11.092 -0.0594  2.4518 -0.3577
28164SOL    HW296218   3.992   6.996  11.026  0.3819  2.4239  0.5417
28165SOL     OW96219   7.800   5.653  13.373 -0.5264  0.2924 -0.1030
28165SOL    HW196220   7.824   5.743  13.396  0.9921  0.1137 -0.8815
28165SOL    HW296221   7.756   5.619  13.451  1.1214  0.9001  1.1342
28166SOL     OW96222   4.531   3.564   6.106  0.0991  0.2826  0.2346
28166SOL    HW196223   4.578   3.505   6.048  0.3931 -0.1768  0.9260
28166SOL    HW296224   4.581   3.562   6.188  0.4232  1.8868  0.1212
28167SOL     OW96225   5.761   3.814  13.310  1.1369  0.1509 -0.2443
28167SOL    HW196226   5.797   3.731  13.281  1.4801 -0.2155  1.1299
28167SOL    HW296227   5.763   3.809  13.406  1.1403  1.7146 -0.1234
28168SOL     OW96228   7.503  10.021   7.222  0.3799  0.1990  0.1245
28168SOL    HW196229   7.588   9.986   7.247  1.5382  2.7142 -0.0546
28168SOL    HW296230   7.471   9.959   7.156  2.3289 -0.5052 -0.2318
28169SOL     OW96231   1.478   1.209   5.529  0.5794  0.1583 -0.1545
28169SOL    HW196232   1.515   1.174   5.448 -0.3723 -2.7339  0.5433
28169SOL    HW296233   1.383   1.206   5.515  0.4210  0.4886  0.7543
28170SOL     OW96234  13.440   6.590   3.292 -0.0743 -0.0993 -0.2953
28170SOL    HW196235  13.354   6.621   3.262  0.1612  0.5795 -0.2802
28170SOL    HW296236  13.490   6.669   3.307  0.4917 -0.4902 -0.0937
28171SOL     OW96237   6.495  11.615  13.243 -0.2757 -0.0248  0.3501
28171SOL    HW196238   6.447  11.553  13.188 -0.4183 -1.8299  2.3893
28171SOL    HW296239   6.437  11.690  13.252 -0.7727 -0.2352 -0.8860
28172SOL     OW96240   3.450   8.936   4.820 -0.5065  0.5732  0.1808
28172SOL    HW196241   3.384   9.004   4.809 -1.3530 -0.0414  1.2828
28172SOL    HW296242   3.527   8.981   4.854 -1.0805  0.9803  0.9716
28173SOL     OW96243   2.529  13.119   9.444  0.0796 -0.5176  0.1138
28173SOL    HW196244   2.554  13.124   9.352  2.1641 -1.1593  0.5807
28173SOL    HW296245   2.575  13.192   9.485  0.9447 -1.5109  0.9707
28174SOL     OW96246  10.916   9.380  10.454  0.2488  0.8652  0.3727
28174SOL    HW196247  10.949   9.315  10.516 -0.1023 -0.5660 -0.8757
28174SOL    HW296248  10.861   9.330  10.393  0.8408  2.1216 -1.2970
28175SOL     OW96249   8.694   9.696   6.094 -0.2239  0.3549 -0.4950
28175SOL    HW196250   8.609   9.728   6.123  0.2775 -1.3440  3.4234
28175SOL    HW296251   8.681   9.603   6.079  1.0530 -0.0942  0.9526
28176SOL     OW96252   8.918  13.014   1.459 -0.6199 -0.5679  0.4648
28176SOL    HW196253   8.861  12.969   1.521  0.8112 -1.7059  1.0042
28176SOL    HW296254   8.858  13.054   1.396 -2.0307 -1.0453  1.4581
28177SOL     OW96255   3.534   4.580   9.143  0.2214  0.0206  0.4145
28177SOL    HW196256   3.548   4.521   9.216  1.2166  0.7581  0.8391
28177SOL    HW296257   3.569   4.533   9.067 -0.6274 -0.6582  0.4272
28178SOL     OW96258  13.652   9.185   0.550 -0.4908  0.5309  0.5723
28178SOL    HW196259  13.705   9.155   0.476 -0.1659  1.1730  0.5383
28178SOL    HW296260  13.648   9.280   0.540 -0.8039  0.5833  1.1452
28179SOL     OW96261   9.504   3.647  13.038  0.0275 -0.2032  0.2894
28179SOL    HW196262   9.459   3.686  13.113  0.4289 -0.9233  0.9320
28179SOL    HW296263   9.597   3.663  13.055  0.1487 -0.7447  0.1768
28180SOL     OW96264   1.385   7.269  13.613  0.3838 -0.4211  0.1439
28180SOL    HW196265   1.477   7.256  13.634  0.2167 -3.8574 -0.6823
28180SOL    HW296266   1.339   7.252  13.695  0.4225  0.8254  0.4410
28181SOL     OW96267   7.651  10.229   8.543  0.0729 -0.1367 -0.1454
28181SOL    HW196268   7.599  10.153   8.567  0.4363 -0.2109  0.4302
28181SOL    HW296269   7.684  10.263   8.626 -0.9441  1.2737 -0.2891
28182SOL     OW96270   3.380   3.258   8.810  0.0364 -0.4661  0.5873
28182SOL    HW196271   3.442   3.195   8.774 -0.0396  0.3422 -1.0396
28182SOL    HW296272   3.427   3.298   8.884  2.1112  1.1941 -1.4776
28183SOL     OW96273   2.764   0.841   4.604  0.2232  0.6318  0.4143
28183SOL    HW196274   2.823   0.889   4.546 -1.2737  1.4237 -0.5376
28183SOL    HW296275   2.778   0.880   4.691  2.8709 -0.9246  0.7692
28184SOL     OW96276   2.435   5.701   5.089 -0.1761 -0.1503 -0.4679
28184SOL    HW196277   2.468   5.612   5.103  2.4404  0.9245  1.0117
28184SOL    HW296278   2.354   5.705   5.140  0.1918 -1.4065  0.2595
28185SOL     OW96279  11.459   2.332   6.110  0.1443 -0.5569  0.1271
28185SOL    HW196280  11.377   2.359   6.069 -1.4176 -1.6275  2.3046
28185SOL    HW296281  11.487   2.256   6.059 -0.6420 -0.6266 -0.2274
28186SOL     OW96282  10.778  12.204  10.879 -0.2333 -0.2372 -0.0004
28186SOL    HW196283  10.757  12.292  10.846  0.3717  0.2524  0.8797
28186SOL    HW296284  10.801  12.154  10.801 -3.1942 -0.4164 -0.8905
28187SOL     OW96285   4.084  12.508   6.036 -0.0686 -0.1057  0.1712
28187SOL    HW196286   4.011  12.551   5.991  1.4106  0.9265 -1.4065
28187SOL    HW296287   4.154  12.506   5.970  1.7724  0.1949  2.0261
28188SOL     OW96288   3.798   8.538   0.700  0.1107  0.0065 -0.2192
28188SOL    HW196289   3.808   8.458   0.752 -0.8389  0.1206  0.1755
28188SOL    HW296290   3.723   8.520   0.643 -0.6221  0.8885  0.4388
28189SOL     OW96291  10.394   7.444   6.487  0.1298  0.1968 -0.5987
28189SOL    HW196292  10.349   7.361   6.498  0.1600  0.2774  0.2408
28189SOL    HW296293  10.480   7.431   6.527  0.6389  0.2322 -1.6432
28190SOL     OW96294  12.706  12.615   4.809 -0.4145  0.3448 -0.2120
28190SOL    HW196295  12.677  12.703   4.786  0.1653  0.5919 -0.0102
28190SOL    HW296296  12.757  12.627   4.889 -0.6878 -0.2313  0.0554
28191SOL     OW96297   8.569   2.273   7.295  0.3456 -0.5687  0.1640
28191SOL    HW196298   8.631   2.316   7.354 -0.6577  1.0087  0.1099
28191SOL    HW296299   8.558   2.185   7.332  1.9787 -0.6027  0.6234
28192SOL     OW96300  13.200  10.729   0.577 -0.1698 -0.1751 -0.0535
28192SOL    HW196301  13.148  10.655   0.607  0.0178 -1.0872 -1.8473
28192SOL    HW296302  13.163  10.751   0.492  0.5114  1.0753 -0.0465
28193SOL     OW96303   2.115  10.566   7.221  0.6649  0.3001 -0.1676
28193SOL    HW196304   2.043  10.508   7.196  1.1207  0.8537 -3.0839
28193SOL    HW296305   2.165  10.516   7.285 -1.5506 -0.6010  0.9778
28194SOL     OW96306   8.859  12.590   0.213 -0.3304  0.0312  0.2418
28194SOL    HW196307   8.947  12.627   0.220  0.1217 -1.0057  0.1869
28194SOL    HW296308   8.824  12.594   0.301 -0.5939  1.2874  0.1045
28195SOL     OW96309  11.970   4.481  10.367  0.1675 -0.5939 -0.4255
28195SOL    HW196310  11.953   4.570  10.396 -0.9845 -1.4682  1.8553
28195SOL    HW296311  12.056   4.460  10.401  1.0011 -0.0071 -2.0391
28196SOL     OW96312   8.078   5.681  10.145 -0.1733  0.2483 -0.3856
28196SOL    HW196313   8.095   5.683  10.240 -0.8119  2.2626 -0.2713
28196SOL    HW296314   7.989   5.647  10.138 -0.5230  1.1026 -0.1771
28197SOL     OW96315  10.160  10.631   9.608 -0.2217 -0.1198  0.2424
28197SOL    HW196316  10.247  10.592   9.611 -0.5145 -0.7863  0.2874
28197SOL    HW296317  10.173  10.721   9.636  0.5855  0.0289 -0.5745
28198SOL     OW96318   7.338  11.801   1.542  0.4883 -0.5213 -0.0946
28198SOL    HW196319   7.274  11.729   1.543  0.4456 -0.4846 -0.2154
28198SOL    HW296320   7.288  11.877   1.514  0.4878 -0.4001  0.2360
28199SOL     OW96321   8.216   2.449   1.258  0.5236 -0.2042 -0.1644
28199SOL    HW196322   8.169   2.517   1.307  0.2996  1.0548 -2.0258
28199SOL    HW296323   8.302   2.446   1.298 -0.4355 -1.1129  1.9916
28200SOL     OW96324  10.602  13.152   4.443  0.1085 -0.3940 -0.1810
28200SOL    HW196325  10.590  13.207   4.520 -0.8875  1.4740 -1.5928
28200SOL    HW296326  10.695  13.127   4.446  0.5293  1.1726  0.6345
28201SOL     OW96327  10.121   5.141   5.577 -0.2202  0.3831  0.2312
28201SOL    HW196328  10.029   5.165   5.587 -0.3485 -0.4106  1.0580
28201SOL    HW296329  10.123   5.046   5.587  0.6731  0.3680  0.0354
28202SOL     OW96330   4.521  10.040   9.169  0.2266  0.2377 -0.2834
28202SOL    HW196331   4.547  10.119   9.217  0.4697  0.4065 -0.6836
28202SOL    HW296332   4.439  10.013   9.210  0.8893 -0.1581  0.8362
28203SOL     OW96333   6.512  12.193  10.366  0.0903  0.2970  0.2177
28203SOL    HW196334   6.496  12.269  10.309 -0.2794  0.4215  0.4888
28203SOL    HW296335   6.607  12.194  10.381 -0.1022  1.6514  1.5381
28204SOL     OW96336  13.427  12.350  11.084  0.8288 -0.1063  0.4481
28204SOL    HW196337  13.376  12.425  11.052  0.9909 -0.5376 -0.8524
28204SOL    HW296338  13.516  12.368  11.054  0.9852 -0.5186  0.6710
28205SOL     OW96339   6.867   0.787  10.923  0.6372 -0.3021  0.6386
28205SOL    HW196340   6.834   0.827  11.004 -2.0549 -1.5672  0.2774
28205SOL    HW296341   6.849   0.693  10.934  1.4399 -0.6674 -0.8935
28206SOL     OW96342  12.109  10.450   6.600 -0.2419 -0.4947 -0.2589
28206SOL    HW196343  12.125  10.445   6.505 -0.2444  0.6103 -0.3344
28206SOL    HW296344  12.193  10.427   6.640 -0.1766 -0.7457 -0.5396
28207SOL     OW96345   0.640  10.822   2.316  0.5095 -0.0275  0.1676
28207SOL    HW196346   0.544  10.826   2.317  0.4119 -1.0164 -1.3670
28207SOL    HW296347   0.668  10.913   2.326 -0.6278  0.3829 -0.2452
28208SOL     OW96348   2.288   1.003   4.175 -0.5310 -0.1689 -0.3677
28208SOL    HW196349   2.267   0.910   4.179  1.6610 -0.6674  2.8236
28208SOL    HW296350   2.204   1.047   4.185 -1.3166 -1.8578  0.9255
28209SOL     OW96351  12.333   6.284   9.046  0.3545  0.2300 -0.1121
28209SOL    HW196352  12.284   6.206   9.020  1.9381 -0.9287  0.2099
28209SOL    HW296353  12.399   6.295   8.977  2.0889 -0.5608  1.3399
28210SOL     OW96354  11.937   3.857   3.632 -0.4409 -0.0082 -0.3070
28210SOL    HW196355  11.890   3.875   3.551  0.0232  0.6524 -0.4417
28210SOL    HW296356  11.890   3.908   3.698 -1.3813 -1.2677  0.0368
28211SOL     OW96357  10.648   2.493   1.262  0.7949  0.2656 -0.4663
28211SOL    HW196358  10.636   2.414   1.210 -0.1588  0.4556 -0.5557
28211SOL    HW296359  10.736   2.524   1.240  1.2947 -0.9261 -0.1911
28212SOL     OW96360   1.322   6.812   8.828 -0.4095 -0.3614 -0.2700
28212SOL    HW196361   1.296   6.885   8.885 -0.6380 -1.0157  0.4786
28212SOL    HW296362   1.250   6.749   8.835  0.7000 -1.5865  0.7233
28213SOL     OW96363   0.869   6.350   4.059  0.1592  0.5526  0.1038
28213SOL    HW196364   0.931   6.404   4.011 -0.5089  2.5609  1.3616
28213SOL    HW296365   0.890   6.260   4.034  1.8841  1.3314 -1.4239
28214SOL     OW96366   0.819   3.017   9.979 -0.9125  0.6726 -0.1730
28214SOL    HW196367   0.727   2.991   9.975 -0.4861 -1.0400  0.0116
28214SOL    HW296368   0.867   2.939   9.950  0.5085  1.2554  0.4941
28215SOL     OW96369   4.569  10.351   5.766  0.3239  0.0116  0.6082
28215SOL    HW196370   4.573  10.374   5.673  0.0549 -2.4709 -0.0882
28215SOL    HW296371   4.486  10.306   5.776  1.3148 -1.7298  1.5183
28216SOL     OW96372   3.888   0.802   8.889 -0.1235  0.0107  0.1507
28216SOL    HW196373   3.972   0.776   8.927 -0.8301 -0.3872  1.5461
28216SOL    HW296374   3.900   0.892   8.861  0.9963 -0.3027 -0.3975
28217SOL     OW96375   2.755   0.368   4.002  0.5197 -0.3357  1.0824
28217SOL    HW196376   2.790   0.338   4.086  0.8448 -0.2735  0.9726
28217SOL    HW296377   2.831   0.367   3.944  0.8385  1.9640  1.3983
28218SOL     OW96378  11.431   8.650   6.746 -0.2860  0.0776 -0.1234
28218SOL    HW196379  11.458   8.620   6.659 -0.9414  3.4761 -1.6452
28218SOL    HW296380  11.513   8.670   6.791  0.0191  0.3868 -0.7964
28219SOL     OW96381  13.213  11.367   5.406  0.1954  0.0268 -0.6390
28219SOL    HW196382  13.263  11.441   5.442 -1.7391  0.0986  2.1943
28219SOL    HW296383  13.130  11.406   5.380  0.5071 -0.5734 -2.6680
28220SOL     OW96384   4.172   5.902   1.543  0.0287 -0.1145  0.7701
28220SOL    HW196385   4.098   5.842   1.534 -0.8963  0.8180  1.8160
28220SOL    HW296386   4.161   5.941   1.630 -0.1245  2.5017 -0.3512
28221SOL     OW96387  12.653   2.638   1.327  0.1739  0.3895 -0.8216
28221SOL    HW196388  12.740   2.654   1.291  0.4475 -1.5972 -1.1069
28221SOL    HW296389  12.669   2.619   1.420  0.2291 -1.4281 -1.1809
28222SOL     OW96390  11.443   7.850   3.962 -0.0016  0.5443 -0.3822
28222SOL    HW196391  11.440   7.848   4.058  0.6143  0.7515 -0.3531
28222SOL    HW296392  11.535   7.838   3.941 -0.2961 -0.7496 -0.9923
28223SOL     OW96393  11.115   9.430   9.181  0.0087  0.0079  0.0023
28223SOL    HW196394  11.055   9.485   9.230  0.1196 -0.9623  1.2754
28223SOL    HW296395  11.059   9.371   9.130 -0.1668 -1.1613  1.4870
28224SOL     OW96396  11.910   4.069   1.736  0.5243  0.0840 -0.1367
28224SOL    HW196397  11.885   4.162   1.734 -1.6938 -0.3653  1.7217
28224SOL    HW296398  11.998   4.069   1.773  0.3629  1.4474  0.3266
28225SOL     OW96399   1.442  12.559   6.589  0.2572 -0.6609 -0.2576
28225SOL    HW196400   1.451  12.524   6.500  0.1726 -1.3828  0.0103
28225SOL    HW296401   1.526  12.538   6.631  0.1047 -0.7906 -0.0137
28226SOL     OW96402  11.021   9.038  13.149  0.4341  0.3849 -0.6094
28226SOL    HW196403  11.059   9.124  13.132  2.7236 -0.3220  0.4918
28226SOL    HW296404  11.083   8.996  13.208 -2.7647 -0.3906  2.5906
28227SOL     OW96405   8.396   3.421   0.947  0.4384  0.2116  0.1512
28227SOL    HW196406   8.492   3.416   0.945  0.3870 -2.3395 -0.5480
28227SOL    HW296407   8.370   3.359   1.015 -0.7379  1.4247  0.8560
28228SOL     OW96408   3.958  12.357   8.186  0.8623  0.6746 -0.1338
28228SOL    HW196409   3.894  12.304   8.236  0.2989  1.8387  0.4278
28228SOL    HW296410   4.004  12.293   8.132  0.9431 -0.5477  1.2935
28229SOL     OW96411  10.828  12.725   8.374 -0.0045  0.2048 -0.3134
28229SOL    HW196412  10.819  12.688   8.463 -0.3920 -0.2634 -0.5394
28229SOL    HW296413  10.738  12.730   8.341  0.1431  0.3192 -0.7030
28230SOL     OW96414   9.013   6.810   0.754  0.0918 -0.1106 -0.9597
28230SOL    HW196415   9.043   6.779   0.840  0.2836  0.1985 -0.9156
28230SOL    HW296416   9.073   6.881   0.732 -0.5687  0.4755 -0.8993
28231SOL     OW96417  13.741   1.122   2.024  0.3837  0.0943  0.5155
28231SOL    HW196418  13.682   1.048   2.012 -0.5077  0.8916 -0.2503
28231SOL    HW296419  13.767   1.118   2.116 -1.7864  0.3646  1.1843
28232SOL     OW96420   8.489   5.282   1.600  0.6238  0.1260  0.2418
28232SOL    HW196421   8.502   5.304   1.692 -1.9678  0.4748  0.6049
28232SOL    HW296422   8.404   5.321   1.578  0.9618 -0.3477 -2.1824
28233SOL     OW96423   5.692   9.564  12.503 -0.0256 -0.1324  0.4773
28233SOL    HW196424   5.775   9.610  12.490 -0.8522  1.5219  0.7528
28233SOL    HW296425   5.717   9.473  12.518  1.7995  0.4588  1.3466
28234SOL     OW96426   4.877  10.687  13.134 -0.5222  0.0180 -0.4107
28234SOL    HW196427   4.906  10.778  13.144  0.2861 -0.0832 -1.5867
28234SOL    HW296428   4.836  10.666  13.217  2.1899  0.4200  1.1349
28235SOL     OW96429  13.396  12.408   6.710  0.1259 -0.1722  0.3489
28235SOL    HW196430  13.421  12.322   6.678 -0.3201  0.3219 -1.4805
28235SOL    HW296431  13.472  12.464   6.690 -0.1917  0.1639  0.0538
28236SOL     OW96432  11.599  12.709   0.484  0.0697  0.3336 -0.2132
28236SOL    HW196433  11.577  12.671   0.569  1.1251 -0.1823 -0.1578
28236SOL    HW296434  11.522  12.692   0.430  0.2995 -1.4482 -0.0415
28237SOL     OW96435   4.793   9.032   4.202 -0.4661  0.0681 -0.1022
28237SOL    HW196436   4.757   9.120   4.217 -0.5919 -0.1336  0.8678
28237SOL    HW296437   4.731   8.991   4.141 -1.7222 -0.1491  1.2592
28238SOL     OW96438   1.553   1.728   0.476  0.2663  0.3545 -0.0604
28238SOL    HW196439   1.565   1.808   0.527 -2.6355  0.5606  0.4950
28238SOL    HW296440   1.459   1.725   0.459  0.3281 -2.7203 -0.4407
28239SOL     OW96441   3.377   9.889  10.876 -0.1234 -0.5541  0.5055
28239SOL    HW196442   3.426   9.877  10.957 -0.6981 -2.1025  0.6430
28239SOL    HW296443   3.286   9.902  10.904 -0.3204 -1.0659  0.1142
28240SOL     OW96444  10.564  10.664  11.896 -0.3623  0.0517  0.0742
28240SOL    HW196445  10.502  10.619  11.838  1.0001 -0.8004 -0.7934
28240SOL    HW296446  10.630  10.699  11.837  1.4224 -1.3866  1.0998
28241SOL     OW96447  11.596   4.907   9.993  0.1316 -0.1291 -0.4352
28241SOL    HW196448  11.630   4.957   9.919  1.1223  1.5392  1.0382
28241SOL    HW296449  11.513   4.949  10.014 -0.1732 -0.6309 -0.6211
28242SOL     OW96450   2.191   1.785  12.966 -0.5311  0.4489 -0.0082
28242SOL    HW196451   2.226   1.865  12.927 -0.5226  0.5332  0.1746
28242SOL    HW296452   2.208   1.718  12.900  1.9824  0.0393  0.9556
28243SOL     OW96453  10.000   9.696  13.118  0.4707 -0.3531  0.5232
28243SOL    HW196454   9.973   9.675  13.028  0.2031  0.1558  0.4761
28243SOL    HW296455  10.078   9.751  13.107 -0.5866  1.2326  0.5129
28244SOL     OW96456  10.311  12.517  10.594  0.3757  0.2415  0.8189
28244SOL    HW196457  10.236  12.577  10.598  1.3498  1.7224 -1.4343
28244SOL    HW296458  10.325  12.492  10.685 -0.4602  2.9840  1.8270
28245SOL     OW96459  10.351   0.657   7.652  0.4051  0.2769 -0.3661
28245SOL    HW196460  10.348   0.732   7.711 -1.3896 -0.3112  0.3409
28245SOL    HW296461  10.319   0.584   7.705 -1.3496 -0.2546 -2.0691
28246SOL     OW96462   6.952   8.721   8.708 -0.7158  0.0179  0.2290
28246SOL    HW196463   6.973   8.811   8.685 -2.3474 -0.2948 -3.2323
28246SOL    HW296464   7.036   8.678   8.719  0.3010  1.0908 -2.4440
28247SOL     OW96465   8.952   3.051   8.481  0.4872  0.4078 -0.0292
28247SOL    HW196466   8.910   3.039   8.396  2.7396  0.3302 -1.2044
28247SOL    HW296467   9.041   3.080   8.460  0.5654  2.1918  2.3503
28248SOL     OW96468   9.507   5.057   2.596  0.0158  0.0956 -0.5151
28248SOL    HW196469   9.570   5.035   2.665 -0.4276  0.3017 -0.0381
28248SOL    HW296470   9.499   5.153   2.600 -0.9400  0.0045 -0.0190
28249SOL     OW96471   4.516  10.912   7.535 -0.6068 -0.1653 -0.2881
28249SOL    HW196472   4.499  10.821   7.513 -1.7994 -0.0653  0.1358
28249SOL    HW296473   4.429  10.952   7.543 -0.1740  0.5777  1.2832
28250SOL     OW96474  11.541   1.491   5.525  0.1122  0.4486 -0.0866
28250SOL    HW196475  11.583   1.533   5.450 -0.4800  0.6886 -0.2821
28250SOL    HW296476  11.448   1.507   5.514 -0.1350 -0.8936 -0.1532
28251SOL     OW96477   3.387   3.369  10.534 -0.4253  0.5669 -0.1185
28251SOL    HW196478   3.452   3.335  10.596 -0.4323  1.7244  0.5428
28251SOL    HW296479   3.336   3.432  10.585 -3.3336 -1.6081 -0.0528
28252SOL     OW96480   9.833   0.296  10.156  0.4331  0.1371  0.3362
28252SOL    HW196481   9.801   0.380  10.190 -0.3098 -0.5512  1.3653
28252SOL    HW296482   9.768   0.271  10.091 -0.3301 -0.5182  1.3360
28253SOL     OW96483   4.868  11.605   5.331  0.1041  0.1696 -0.1851
28253SOL    HW196484   4.903  11.623   5.419  0.4858  1.1682 -0.5369
28253SOL    HW296485   4.890  11.513   5.316  1.1746  0.3365  0.2514
28254SOL     OW96486  12.019   7.099   4.403  0.1873 -0.7933 -0.6828
28254SOL    HW196487  11.951   7.167   4.409 -0.5813 -1.4228 -1.8539
28254SOL    HW296488  12.082   7.123   4.471 -1.2658 -0.2592  0.5571
28255SOL     OW96489   4.485   8.981  12.460  0.4382 -0.4324 -0.7236
28255SOL    HW196490   4.550   9.050  12.466 -0.3320  0.3044 -0.7097
28255SOL    HW296491   4.421   9.013  12.397 -0.6159 -0.5529  0.2507
28256SOL     OW96492   5.980  11.196   6.660 -0.4636  0.5164 -0.1431
28256SOL    HW196493   5.888  11.223   6.652 -0.5981  0.4306  0.9674
28256SOL    HW296494   6.029  11.279   6.660 -0.7428  0.7087  1.5935
28257SOL     OW96495   1.245  10.261  12.400  0.6125  0.0817 -0.3318
28257SOL    HW196496   1.170  10.219  12.441 -1.3542  3.0769 -0.5094
28257SOL    HW296497   1.320  10.236  12.454 -0.5119 -2.6763  0.1066
28258SOL     OW96498   1.433   4.406   4.839 -0.4542  1.0196 -0.3185
28258SOL    HW196499   1.407   4.493   4.868 -1.4286  0.7923 -0.4530
28258SOL    HW296500   1.461   4.418   4.749 -0.6455  1.1850 -0.3568
28259SOL     OW96501   5.444  10.674   2.625 -0.4057  0.1212 -0.1577
28259SOL    HW196502   5.421  10.618   2.550 -1.3107  0.2891 -0.0198
28259SOL    HW296503   5.371  10.735   2.632 -0.1817  0.3013  0.6788
28260SOL     OW96504   7.306   0.547  10.053  0.6029  0.1204 -0.0476
28260SOL    HW196505   7.257   0.520  10.131  0.7802  1.8883  0.7115
28260SOL    HW296506   7.240   0.584   9.995  0.7179  0.4031  0.0018
28261SOL     OW96507  10.699   6.683  12.534  0.8085 -0.8354 -0.5891
28261SOL    HW196508  10.620   6.736  12.526 -0.4563 -2.5941 -0.4537
28261SOL    HW296509  10.770   6.741  12.507 -0.2316  1.4929  1.2866
28262SOL     OW96510  10.265  12.660  12.023  0.0886  0.1830  0.0772
28262SOL    HW196511  10.296  12.747  11.996  0.6769 -0.2670 -0.7521
28262SOL    HW296512  10.307  12.600  11.962 -0.5981 -0.6603  0.4164
28263SOL     OW96513   3.587   6.775  12.909 -0.0956 -0.2689  0.1490
28263SOL    HW196514   3.615   6.686  12.886  0.4096  0.0567 -0.5400
28263SOL    HW296515   3.506   6.787  12.860  0.4199  0.0406 -0.6436
28264SOL     OW96516   4.226  12.947   7.284  0.1138 -0.2567  0.1047
28264SOL    HW196517   4.242  13.024   7.339  0.5548  0.5042 -1.0461
28264SOL    HW296518   4.205  12.877   7.346 -2.6610  1.2966  1.1322
28265SOL     OW96519   6.602  11.497   0.050  0.5942 -0.1659  0.2904
28265SOL    HW196520   6.580  11.471  -0.039 -0.1840  0.4952  0.2745
28265SOL    HW296521   6.539  11.450   0.105  0.7206 -0.1510  0.4482
28266SOL     OW96522   4.497   1.092   2.064  0.3699 -0.1191  0.0698
28266SOL    HW196523   4.496   1.031   2.137  0.3610 -1.6307 -1.1450
28266SOL    HW296524   4.406   1.123   2.058  0.4402  0.2752  0.8795
28267SOL     OW96525   5.457   1.615   7.647  0.5665 -0.9030 -0.1657
28267SOL    HW196526   5.387   1.581   7.701 -0.7283  1.2925 -0.3639
28267SOL    HW296527   5.499   1.682   7.700  0.9633 -0.5374 -0.9200
28268SOL     OW96528   8.211  11.792   8.315 -0.5265  0.6070  0.0061
28268SOL    HW196529   8.211  11.701   8.343 -3.4539 -0.0430 -1.7060
28268SOL    HW296530   8.195  11.842   8.395  0.7668 -0.3444  0.9067
28269SOL     OW96531  12.361  10.557  10.788  0.3186  0.1075  0.3233
28269SOL    HW196532  12.389  10.618  10.720  1.8525 -2.2331 -1.2852
28269SOL    HW296533  12.267  10.572  10.796  0.6898  3.0658  0.4995
28270SOL     OW96534   1.979   1.891   6.630  0.2480 -0.0550 -0.3618
28270SOL    HW196535   2.052   1.922   6.684  0.2080  0.5972 -0.6738
28270SOL    HW296536   1.954   1.808   6.670  1.5446 -0.5924 -0.6023
28271SOL     OW96537   2.779   3.846   8.218 -0.0866 -0.5904  0.4223
28271SOL    HW196538   2.874   3.835   8.222 -0.0392 -0.3933 -0.1565
28271SOL    HW296539   2.747   3.765   8.180  0.1171  0.4724 -2.2017
28272SOL     OW96540  12.538   2.367  10.748  0.3118  0.1675  0.6175
28272SOL    HW196541  12.620   2.388  10.792  0.2235  0.6179  0.5726
28272SOL    HW296542  12.552   2.279  10.712  0.3743 -0.2282  1.5669
28273SOL     OW96543   6.768   6.818   8.049  0.1212  0.2079  0.3359
28273SOL    HW196544   6.681   6.839   8.015  0.7808  0.7773 -1.0878
28273SOL    HW296545   6.772   6.865   8.133 -1.2411 -0.5547  0.8748
28274SOL     OW96546  11.700   9.171  11.382  0.4569 -0.0139  0.4588
28274SOL    HW196547  11.785   9.208  11.407  0.6121 -1.2172  1.8850
28274SOL    HW296548  11.656   9.155  11.466 -1.8120  1.9085 -0.2504
28275SOL     OW96549  10.908   3.138  10.673 -0.0936  0.3045  0.0203
28275SOL    HW196550  10.996   3.173  10.661 -0.0599  1.2306  2.3485
28275SOL    HW296551  10.915   3.046  10.651  1.1365  0.6452 -1.1026
28276SOL     OW96552  10.176   1.968   8.972 -0.3423 -0.5072 -0.2915
28276SOL    HW196553  10.147   1.935   9.057  0.7677 -1.3272 -0.2067
28276SOL    HW296554  10.097   2.005   8.933 -0.5914  1.1460  1.6343
28277SOL     OW96555   6.830   7.352   8.111 -0.6021 -0.1129 -0.4190
28277SOL    HW196556   6.797   7.411   8.044 -3.8654 -2.0226 -0.7229
28277SOL    HW296557   6.915   7.324   8.079 -1.0824  0.7782 -2.6319
28278SOL     OW96558   4.646   2.438   9.038  0.2048 -0.1746  0.3087
28278SOL    HW196559   4.603   2.492   9.105 -1.5956 -1.0473 -0.0739
28278SOL    HW296560   4.734   2.475   9.029 -0.1930  1.1963  1.7228
28279SOL     OW96561   2.234   0.874   3.593  0.0810 -0.4712 -0.3219
28279SOL    HW196562   2.275   0.882   3.507  0.2597 -0.0419 -0.1974
28279SOL    HW296563   2.305   0.844   3.651  0.4051  0.8923  0.0294
28280SOL     OW96564   2.525   3.346   3.056 -0.0549 -0.0275 -0.4048
28280SOL    HW196565   2.558   3.259   3.033 -1.6859 -0.1029 -2.8009
28280SOL    HW296566   2.602   3.403   3.051  0.7981 -1.1007 -0.0296
28281SOL     OW96567  13.294   7.498   3.587  0.2775 -0.5542  0.1662
28281SOL    HW196568  13.366   7.505   3.649 -0.6044  0.0707  1.1559
28281SOL    HW296569  13.239   7.574   3.606 -0.9656 -1.3545 -0.1359
28282SOL     OW96570   6.351  12.550  12.961  0.0451 -0.1268  0.0841
28282SOL    HW196571   6.445  12.569  12.964  0.4981 -2.2943  1.3034
28282SOL    HW296572   6.346  12.458  12.934 -1.6254 -0.5784  1.7627
28283SOL     OW96573   9.849   3.735   6.257 -0.4550  0.7940 -0.1082
28283SOL    HW196574   9.833   3.820   6.217 -2.0695  0.3123 -0.5740
28283SOL    HW296575   9.783   3.728   6.326  0.5961  0.5148  0.8857
28284SOL     OW96576   3.505  11.485   1.158  0.3715 -0.1278 -0.2222
28284SOL    HW196577   3.470  11.492   1.069 -1.1912 -1.1681  0.2789
28284SOL    HW296578   3.505  11.392   1.176 -1.0909  0.1698  1.5338
28285SOL     OW96579   3.847   7.529  10.987  0.5141  0.2939 -0.0862
28285SOL    HW196580   3.837   7.605  11.045  0.0295  1.0072 -1.0776
28285SOL    HW296581   3.773   7.473  11.009 -0.0103  0.8411 -0.4051
28286SOL     OW96582  11.254   0.556   2.407  0.1669 -0.7033 -0.3052
28286SOL    HW196583  11.163   0.546   2.380 -0.1709  1.3365 -0.0574
28286SOL    HW296584  11.250   0.602   2.491  1.4043 -1.8320  0.4165
28287SOL     OW96585   9.303   5.263   9.696 -0.1688  0.3992  0.6040
28287SOL    HW196586   9.266   5.176   9.709  0.3751  0.4630  3.2660
28287SOL    HW296587   9.390   5.258   9.736  0.7306  1.6002 -1.1219
28288SOL     OW96588  12.536   3.064   1.162 -0.0762 -0.0235 -0.0505
28288SOL    HW196589  12.441   3.053   1.163 -0.0930  0.0765  1.0485
28288SOL    HW296590  12.554   3.118   1.085 -0.8601 -0.4181 -0.5148
28289SOL     OW96591   0.316  13.262   4.632  0.2071 -0.0177  0.2239
28289SOL    HW196592   0.278  13.297   4.551  0.7848  0.0339 -0.0345
28289SOL    HW296593   0.379  13.328   4.659 -0.4154  0.2453  1.0608
28290SOL     OW96594   0.016   0.000  12.916  0.2917 -0.3433 -0.2768
28290SOL    HW196595   0.031  -0.086  12.877  0.2355 -1.0360  1.1464
28290SOL    HW296596  -0.069   0.028  12.883 -1.1135 -2.2148  1.5219
28291SOL     OW96597  12.326  12.583   6.603  0.9889  0.3333  0.0904
28291SOL    HW196598  12.345  12.644   6.531  0.5526  0.6748  0.2589
28291SOL    HW296599  12.401  12.524   6.605  0.8560  0.1249 -0.8499
28292SOL     OW96600  11.484   7.615  10.147  0.0550 -0.4543  0.1845
28292SOL    HW196601  11.423   7.638  10.217 -0.0974 -3.0291  0.9876
28292SOL    HW296602  11.566   7.593  10.192  0.1572 -1.4734 -0.4546
28293SOL     OW96603   0.983   0.611   8.913 -0.5224 -0.2581  0.3238
28293SOL    HW196604   1.003   0.574   8.827 -1.0735 -1.1901  0.5794
28293SOL    HW296605   1.022   0.699   8.912 -1.1615  0.0341 -1.1481
28294SOL     OW96606   5.242  12.550   8.588 -0.2507 -0.2720 -0.1760
28294SOL    HW196607   5.290  12.531   8.507 -0.3929 -1.2921 -0.0351
28294SOL    HW296608   5.268  12.639   8.611 -0.5941  0.2265 -1.6172
28295SOL     OW96609   2.527  13.170   3.534 -0.1955 -0.1700 -0.6704
28295SOL    HW196610   2.571  13.099   3.487 -2.2818 -0.5083 -2.2695
28295SOL    HW296611   2.449  13.188   3.481 -1.0265  1.6050  1.0617
28296SOL     OW96612  12.633  12.635   3.023  0.1019 -0.3736 -0.5685
28296SOL    HW196613  12.622  12.554   3.072  0.5797 -1.7212 -2.5608
28296SOL    HW296614  12.693  12.687   3.076 -0.0140 -1.4133  0.6359
28297SOL     OW96615   5.295   9.946   8.294 -0.0693  0.1726  0.6118
28297SOL    HW196616   5.239  10.022   8.314 -1.1340 -0.3258 -0.3432
28297SOL    HW296617   5.246   9.897   8.228  1.5622 -0.2424 -0.3470
28298SOL     OW96618   6.072   3.814   7.421  0.3296  0.3924 -0.3234
28298SOL    HW196619   6.035   3.746   7.477  3.4104 -1.2636 -0.1211
28298SOL    HW296620   6.006   3.826   7.352 -0.3963 -2.7228 -0.3178
28299SOL     OW96621  13.558   8.576  10.985  0.3539 -0.3835 -0.0403
28299SOL    HW196622  13.565   8.587  11.080  0.6896  1.7098 -0.2579
28299SOL    HW296623  13.523   8.660  10.954 -2.1316 -1.8748 -1.5458
28300SOL     OW96624   4.984   5.552   9.642  0.6366  0.0623 -0.0895
28300SOL    HW196625   5.011   5.637   9.677 -0.7230  0.2009  0.7049
28300SOL    HW296626   4.914   5.573   9.580 -0.3330 -0.5267  0.7813
28301SOL     OW96627  11.518   6.034  13.111 -0.2889  0.1931 -0.0219
28301SOL    HW196628  11.610   6.045  13.134  0.3683 -2.4087 -1.0085
28301SOL    HW296629  11.474   6.011  13.193  0.3534 -0.4669  0.1475
28302SOL     OW96630   5.168   3.952  12.770 -0.5329 -0.5320 -0.0057
28302SOL    HW196631   5.222   4.018  12.725 -0.6797 -0.5196 -0.1666
28302SOL    HW296632   5.147   3.992  12.854 -0.0843 -0.6387  0.1583
28303SOL     OW96633   8.101   0.152   4.810 -0.4050  0.1040  0.0958
28303SOL    HW196634   8.180   0.170   4.861 -0.0230  0.9582 -0.7640
28303SOL    HW296635   8.039   0.220   4.835 -0.6486 -0.1970  0.3133
28304SOL     OW96636   4.748  10.097   8.821  0.2810 -0.1712  0.0326
28304SOL    HW196637   4.751  10.179   8.871  0.4158 -0.1037 -0.0842
28304SOL    HW296638   4.738  10.029   8.887 -3.0428  0.1185  0.0220
28305SOL     OW96639   4.205   9.531   3.282 -0.4541 -0.0425 -0.0133
28305SOL    HW196640   4.259   9.576   3.348 -1.1594 -0.3610  0.8064
28305SOL    HW296641   4.230   9.439   3.290 -1.1583 -0.2044  0.4305
28306SOL     OW96642  11.778   4.846   9.175  0.3323  0.1648  0.2329
28306SOL    HW196643  11.715   4.816   9.110  1.3399  0.5484 -0.9638
28306SOL    HW296644  11.803   4.767   9.223 -0.8424 -0.0282  0.5560
28307SOL     OW96645  11.718   4.155   3.459 -0.2862 -0.0666  0.1079
28307SOL    HW196646  11.789   4.193   3.510 -0.8714  0.6393  0.4041
28307SOL    HW296647  11.741   4.062   3.453  1.0929  0.3002 -0.5351
28308SOL     OW96648  11.963   2.783   8.518  0.1269 -0.4166  0.7766
28308SOL    HW196649  12.021   2.725   8.470  1.2273 -0.4395  2.0756
28308SOL    HW296650  11.875   2.749   8.501  0.2703  0.5720 -2.4989
28309SOL     OW96651   0.908   4.763  10.908 -0.5094 -0.7840 -0.0177
28309SOL    HW196652   0.952   4.826  10.964  0.8178 -1.0615 -0.7115
28309SOL    HW296653   0.856   4.816  10.847 -1.1981 -0.4579  0.8355
28310SOL     OW96654   5.758   8.272   5.607 -0.3875 -0.5675  0.7178
28310SOL    HW196655   5.701   8.347   5.592 -0.5369 -0.7486  0.3544
28310SOL    HW296656   5.846   8.306   5.596 -0.4548 -0.4419  0.5652
28311SOL     OW96657   9.348   7.697   2.893 -0.3701 -0.8098 -0.5674
28311SOL    HW196658   9.260   7.732   2.875  0.3601  0.8887 -1.0125
28311SOL    HW296659   9.407   7.752   2.842  1.1715 -0.3443  1.5788
28312SOL     OW96660   8.625  13.157  11.787 -0.2492 -0.1369  0.5266
28312SOL    HW196661   8.642  13.074  11.742  0.2586  0.3791 -0.2545
28312SOL    HW296662   8.559  13.201  11.733  2.5346  1.8572 -1.5737
28313SOL     OW96663  13.440   7.425   3.326  0.0039  0.0856 -0.2955
28313SOL    HW196664  13.518   7.445   3.378  0.0718  2.5395 -1.1823
28313SOL    HW296665  13.371   7.480   3.364 -0.5722  0.0144 -1.2003
28314SOL     OW96666  10.109  13.413  11.319  0.1859 -0.3590  0.2428
28314SOL    HW196667  10.116  13.431  11.412 -1.2961  1.4574  0.0548
28314SOL    HW296668  10.027  13.365  11.309 -0.0080  0.0420 -0.1789
28315SOL     OW96669  10.990   2.149   1.483  0.3186 -0.6786  0.0222
28315SOL    HW196670  10.982   2.203   1.562  0.6921  1.1469 -1.1346
28315SOL    HW296671  10.922   2.082   1.492 -0.7491  0.5069  1.1056
28316SOL     OW96672   4.406  12.846  11.679 -0.0160  0.2008  0.1340
28316SOL    HW196673   4.451  12.885  11.754  1.3535 -1.5830  0.2991
28316SOL    HW296674   4.315  12.875  11.688  0.6191  2.0199  1.0907
28317SOL     OW96675  10.914   1.888   5.752  0.2436 -0.3999  0.3316
28317SOL    HW196676  10.978   1.882   5.681  1.0930 -1.1487  1.1447
28317SOL    HW296677  10.861   1.964   5.728  1.4427  0.2712 -0.3615
28318SOL     OW96678   1.067   3.938   0.488  0.3106 -0.4916  0.0218
28318SOL    HW196679   1.073   4.015   0.545  2.4736  0.1645 -0.9971
28318SOL    HW296680   1.151   3.893   0.500 -0.3246 -1.8751 -0.5599
28319SOL     OW96681  10.786  10.864  13.315 -0.5493 -0.6892 -0.5861
28319SOL    HW196682  10.801  10.923  13.241 -0.7403 -1.7473 -1.4934
28319SOL    HW296683  10.695  10.880  13.340  0.1393  1.2904  0.9245
28320SOL     OW96684   2.763  11.367   4.926  0.5126 -0.1132 -0.1249
28320SOL    HW196685   2.820  11.361   5.003  2.4048 -0.7767 -1.5085
28320SOL    HW296686   2.808  11.428   4.868 -0.1043 -0.7764 -1.3284
28321SOL     OW96687   6.722   0.313   1.203  0.0427 -0.1297  0.7498
28321SOL    HW196688   6.796   0.365   1.237  1.6418 -0.8740 -1.3988
28321SOL    HW296689   6.645   0.360   1.233  1.3384  0.5763  3.2776
28322SOL     OW96690   8.295   6.872   5.478  0.6578 -0.4309 -0.1366
28322SOL    HW196691   8.296   6.966   5.500 -0.9745 -0.8676  2.0948
28322SOL    HW296692   8.232   6.866   5.406 -0.9693 -0.0678  1.2224
28323SOL     OW96693   4.556  13.598   9.870 -0.2093  0.2712  0.1452
28323SOL    HW196694   4.516  13.680   9.842 -0.0935  0.3388  0.1768
28323SOL    HW296695   4.515  13.579   9.954  0.2615  0.6579  0.4705
28324SOL     OW96696  10.913   3.003  11.260 -0.5527 -1.0188  0.0719
28324SOL    HW196697  11.005   3.019  11.282 -1.2872  0.8599  2.0864
28324SOL    HW296698  10.885   2.935  11.322 -1.1011  0.0817  1.0571
28325SOL     OW96699   5.254  10.753   6.587  0.0325  0.6522  0.4367
28325SOL    HW196700   5.239  10.675   6.534 -1.9686  1.5129 -0.3720
28325SOL    HW296701   5.320  10.803   6.537 -0.0101  0.3128  0.0310
28326SOL     OW96702   0.349   8.676  10.293  0.0079  0.2383 -0.0736
28326SOL    HW196703   0.424   8.620  10.274 -0.0047  0.4497 -0.8100
28326SOL    HW296704   0.346   8.738  10.220 -0.1554  1.0180  0.5790
28327SOL     OW96705  10.936  12.587   8.945  0.5460  0.2758  0.1855
28327SOL    HW196706  10.854  12.587   8.993  0.5728 -0.5333  0.2485
28327SOL    HW296707  10.933  12.666   8.891  0.2884  0.9253  1.1249
28328SOL     OW96708   2.682   2.872   7.998 -0.2505  0.4519 -0.3092
28328SOL    HW196709   2.723   2.795   7.959 -1.1111  0.8469 -2.0885
28328SOL    HW296710   2.710   2.870   8.090  0.6683 -1.3269 -0.5832
28329SOL     OW96711   4.047   8.790  13.134  0.1515 -0.5038 -0.1647
28329SOL    HW196712   4.002   8.706  13.142  0.3126 -0.5850 -0.0901
28329SOL    HW296713   3.996   8.851  13.187  1.1207 -0.9954  1.3945
28330SOL     OW96714   0.809   7.716   5.411 -0.2606 -0.0918  0.3665
28330SOL    HW196715   0.756   7.669   5.346  1.7680 -0.9497 -0.7859
28330SOL    HW296716   0.858   7.646   5.455  1.0652  0.7585  0.2734
28331SOL     OW96717  10.975  13.588   3.015 -0.1345  0.8584  0.4321
28331SOL    HW196718  11.053  13.629   2.976  1.0202 -0.6014  1.0963
28331SOL    HW296719  10.926  13.555   2.940  1.6368 -1.1725  0.0595
28332SOL     OW96720  10.044   4.403  12.688  0.0940 -0.1396  0.7005
28332SOL    HW196721   9.954   4.418  12.659 -0.3043 -3.2334  0.0476
28332SOL    HW296722  10.035   4.351  12.768  1.3394  0.5609  1.3356
28333SOL     OW96723   0.315   0.287   3.192  0.2968 -0.1029  0.0193
28333SOL    HW196724   0.282   0.227   3.125  0.0182 -0.1427  0.1897
28333SOL    HW296725   0.403   0.256   3.211  0.3066 -0.2037 -0.1976
28334SOL     OW96726   5.298   0.383  12.997 -0.3166 -0.2028  0.5639
28334SOL    HW196727   5.222   0.421  13.042  0.7437  1.0435  1.4149
28334SOL    HW296728   5.346   0.337  13.066  0.5933  0.5135  0.4299
28335SOL     OW96729   1.492   2.944   9.537  0.1081  0.1755  0.0880
28335SOL    HW196730   1.585   2.925   9.545  0.0787  0.4837  1.4310
28335SOL    HW296731   1.479   3.025   9.586 -1.1118 -0.6558  1.2264
28336SOL     OW96732   6.428   6.444   5.495 -0.7039 -0.1599  0.0648
28336SOL    HW196733   6.425   6.527   5.542  0.2255 -0.4250  0.6204
28336SOL    HW296734   6.336   6.417   5.487 -0.9750  0.6798  0.3031
28337SOL     OW96735   9.769   2.164   2.446 -0.2955 -0.0764  0.3966
28337SOL    HW196736   9.728   2.111   2.378 -0.1535  0.0884  0.1815
28337SOL    HW296737   9.723   2.139   2.526 -0.1123 -0.6546  0.3306
28338SOL     OW96738   9.310   4.256  12.294  0.3550  0.2089 -0.4869
28338SOL    HW196739   9.247   4.188  12.317  1.4514 -0.5351  0.3824
28338SOL    HW296740   9.312   4.314  12.371  2.6170 -1.2293  0.6523
28339SOL     OW96741   4.973   5.638   7.680 -0.4062 -0.1899 -0.1338
28339SOL    HW196742   4.999   5.561   7.630 -0.7294 -0.4439  0.0910
28339SOL    HW296743   4.923   5.604   7.753  1.5820 -0.0061  1.4185
28340SOL     OW96744  13.705  13.231  11.844  0.2437 -0.2405  0.3270
28340SOL    HW196745  13.625  13.272  11.876 -0.0569 -1.1211  0.7394
28340SOL    HW296746  13.772  13.299  11.853 -0.6126  0.7959 -0.8548
28341SOL     OW96747   2.373  11.520   0.257 -0.1628  0.8658  0.0817
28341SOL    HW196748   2.426  11.440   0.250  0.2206  1.1635 -0.4616
28341SOL    HW296749   2.379  11.560   0.171 -1.3664  0.8537 -0.0122
28342SOL     OW96750   2.636   7.077   3.117  0.4006  0.6061 -0.5332
28342SOL    HW196751   2.692   7.091   3.041  0.8536 -0.1048 -0.3408
28342SOL    HW296752   2.692   7.100   3.192 -0.7289  3.5211 -0.4566
28343SOL     OW96753   1.138   4.980   5.496 -0.0181  0.5591 -0.3148
28343SOL    HW196754   1.197   5.029   5.553  0.7803  0.8030 -1.3251
28343SOL    HW296755   1.129   5.035   5.418  1.0844 -0.9762 -1.5742
28344SOL     OW96756   0.756  11.399   3.174 -0.2165  0.3029  0.3385
28344SOL    HW196757   0.848  11.373   3.176  0.3008  1.8656  3.3290
28344SOL    HW296758   0.710  11.325   3.212  0.0967  0.3151  0.7504
28345SOL     OW96759   1.325   3.814  11.061 -0.1806  0.2400 -0.6405
28345SOL    HW196760   1.375   3.736  11.087  0.0753  0.3874 -0.6852
28345SOL    HW296761   1.275   3.838  11.139 -0.1848  0.0901 -0.5954
28346SOL     OW96762   0.292  13.058   9.714 -0.4051  0.5945 -0.3908
28346SOL    HW196763   0.252  13.096   9.636 -0.1698  1.0520 -0.2921
28346SOL    HW296764   0.260  13.113   9.786 -1.2015 -0.2594 -0.0746
28347SOL     OW96765   9.166   7.471   1.582  0.0139 -0.0743 -0.0111
28347SOL    HW196766   9.164   7.375   1.575 -1.6323 -0.1157  0.6135
28347SOL    HW296767   9.108   7.490   1.656 -1.5117  1.5166 -1.5314
28348SOL     OW96768  11.261   3.001   3.181 -0.1028  0.3151  0.2076
28348SOL    HW196769  11.341   2.973   3.137 -0.1207 -1.7282  1.3704
28348SOL    HW296770  11.285   3.005   3.274 -0.3463  3.5154  0.2458
28349SOL     OW96771   8.272  11.676  12.575 -0.0660  0.0873  0.5894
28349SOL    HW196772   8.233  11.679  12.488  0.6392 -0.3158  0.2436
28349SOL    HW296773   8.230  11.747  12.623 -1.5745 -0.6490  0.4045
28350SOL     OW96774   3.498   2.085   5.566  0.6513  0.1553 -0.6878
28350SOL    HW196775   3.452   2.011   5.528 -0.0332  0.3546 -0.2649
28350SOL    HW296776   3.465   2.162   5.519  1.5122  0.1885 -1.2720
28351SOL     OW96777   1.648   2.384   2.942 -0.1715  0.0870  0.6267
28351SOL    HW196778   1.672   2.292   2.950  0.5262  0.2093  0.0444
28351SOL    HW296779   1.718   2.423   2.891 -1.4660  0.5002 -0.9399
28352SOL     OW96780   2.147   0.779  12.602  0.6102  0.3437 -0.0957
28352SOL    HW196781   2.201   0.741  12.672  0.9734  0.6271 -0.2164
28352SOL    HW296782   2.083   0.711  12.581  0.1130  0.4799  0.9253
28353SOL     OW96783  12.520   4.085  10.042  0.1683 -0.2621  0.4055
28353SOL    HW196784  12.445   4.137  10.014 -1.2495 -1.2204  2.1319
28353SOL    HW296785  12.497   3.995  10.017  0.6053 -0.5975  1.1545
28354SOL     OW96786   4.684   8.231  11.342  0.2705 -0.0181 -0.1108
28354SOL    HW196787   4.728   8.274  11.269  1.6394 -1.4646 -0.1837
28354SOL    HW296788   4.658   8.145  11.307 -1.8432  0.4167  0.2126
28355SOL     OW96789   8.473   0.551   2.776  0.6167 -0.0964  0.2823
28355SOL    HW196790   8.500   0.562   2.867  0.0887 -3.0823  0.8981
28355SOL    HW296791   8.381   0.580   2.776  1.0622  1.4210  0.2740
28356SOL     OW96792  12.495   9.054   8.019  0.2130  0.1793  0.8052
28356SOL    HW196793  12.425   9.008   8.065  1.0938  0.4908  2.5669
28356SOL    HW296794  12.486   9.145   8.046  0.0448  0.6057 -0.6150
28357SOL     OW96795   2.296   9.894  10.695  0.5264  0.0161  0.5459
28357SOL    HW196796   2.377   9.847  10.715 -1.7638 -3.3107  3.3574
28357SOL    HW296797   2.280   9.948  10.773  1.0191  2.3778 -0.9095
28358SOL     OW96798  12.637  10.445  12.397  0.3264 -0.4229  0.0182
28358SOL    HW196799  12.628  10.420  12.305  0.9433 -0.8814  0.0763
28358SOL    HW296800  12.599  10.372  12.446 -1.8823  0.7144  0.1009
28359SOL     OW96801   0.624   7.600   5.243  0.4563  0.1277  0.3467
28359SOL    HW196802   0.654   7.512   5.219 -0.8305  0.1079 -1.4186
28359SOL    HW296803   0.548   7.584   5.300 -0.3327  0.0587 -0.7051
28360SOL     OW96804  12.409   6.688  11.750  0.1875  0.6752 -0.2285
28360SOL    HW196805  12.435   6.600  11.722  0.5640  0.9263 -0.6741
28360SOL    HW296806  12.399   6.737  11.669 -1.4617  0.6666 -0.0665
28361SOL     OW96807   3.116  12.238  11.103 -0.0875 -0.5926 -0.3858
28361SOL    HW196808   3.164  12.156  11.103  0.4382 -0.2906 -0.3076
28361SOL    HW296809   3.175  12.301  11.061 -0.4709 -0.2497 -0.4234
28362SOL     OW96810  11.478   0.293  10.105  0.0051  0.0693  0.0797
28362SOL    HW196811  11.546   0.361  10.111 -0.3467  0.4536 -0.1699
28362SOL    HW296812  11.406   0.337  10.060 -0.9397  0.0726  1.5707
28363SOL     OW96813   8.364   9.304  11.904 -0.2610 -0.2753 -0.4801
28363SOL    HW196814   8.348   9.330  11.995  1.0680 -0.4545 -0.1606
28363SOL    HW296815   8.279   9.310  11.861 -0.7369  0.6805  0.5567
28364SOL     OW96816  10.271   2.869   3.610  0.6944 -0.2452 -0.2961
28364SOL    HW196817  10.194   2.886   3.555  0.7909 -1.2122 -0.7412
28364SOL    HW296818  10.326   2.811   3.557  0.9400 -0.9284  0.6867
28365SOL     OW96819   6.366   2.340   7.525  0.4245  0.3453  0.7699
28365SOL    HW196820   6.459   2.350   7.502  0.3666  0.5912  0.6350
28365SOL    HW296821   6.321   2.401   7.466  0.2964  1.2118  1.7442
28366SOL     OW96822   9.590  12.271  12.907 -0.2351 -0.1889 -0.0495
28366SOL    HW196823   9.625  12.271  12.819 -0.0452 -0.1954  0.0270
28366SOL    HW296824   9.522  12.204  12.906 -0.4274  0.0067 -0.2669
28367SOL     OW96825   9.749   8.888   0.858 -0.3547 -0.5964  0.1607
28367SOL    HW196826   9.838   8.919   0.838 -0.7610  0.3614 -0.2630
28367SOL    HW296827   9.761   8.820   0.924  0.6629 -0.1831  0.4221
28368SOL     OW96828  13.432  10.444  12.305  0.3808 -0.0524  0.7546
28368SOL    HW196829  13.461  10.391  12.380 -0.0865 -0.4152  0.6829
28368SOL    HW296830  13.493  10.423  12.235 -0.7411 -1.7541  0.2229
28369SOL     OW96831  13.663  10.199   4.157 -0.0110 -0.1976 -0.0346
28369SOL    HW196832  13.596  10.226   4.220  1.0702  0.9774  0.6717
28369SOL    HW296833  13.657  10.104   4.154 -0.8963 -0.1912  0.9216
28370SOL     OW96834   6.560   9.710   0.765  0.5263  0.1221 -0.0280
28370SOL    HW196835   6.570   9.741   0.855  0.3522  1.8182 -0.5493
28370SOL    HW296836   6.647   9.719   0.727  0.6017 -0.5989 -0.0364
28371SOL     OW96837   2.285   6.066   3.117 -0.2397 -0.3524 -0.1841
28371SOL    HW196838   2.255   6.133   3.179  1.5831  0.6372 -0.3075
28371SOL    HW296839   2.319   5.996   3.172 -1.3496 -0.8139 -0.0632
28372SOL     OW96840   1.478   3.297   6.027 -0.3055  0.0231  0.1498
28372SOL    HW196841   1.442   3.285   6.115 -1.7389  1.1220 -0.2605
28372SOL    HW296842   1.474   3.391   6.012  0.7239 -0.0662 -0.7838
28373SOL     OW96843   8.401   6.814   1.274 -0.4320  0.1055 -0.0500
28373SOL    HW196844   8.388   6.862   1.357 -0.6765 -1.1466  0.6561
28373SOL    HW296845   8.469   6.750   1.294  1.2829  1.3715 -1.5325
28374SOL     OW96846  13.126   4.355   4.844  0.1466 -0.2106 -0.0261
28374SOL    HW196847  13.104   4.443   4.872  2.0734  0.4538 -0.4298
28374SOL    HW296848  13.052   4.327   4.790  0.3834  1.9783 -1.6260
28375SOL     OW96849  10.853  13.099   9.739  0.2567  0.3345 -0.3424
28375SOL    HW196850  10.933  13.064   9.778  2.2137  0.8163 -3.6079
28375SOL    HW296851  10.811  13.149   9.810  2.5520 -0.3377  1.6034
28376SOL     OW96852   7.412   3.214   8.126 -0.1046  0.1161 -0.3112
28376SOL    HW196853   7.323   3.239   8.100  0.2671  1.8646 -0.0641
28376SOL    HW296854   7.464   3.223   8.046  0.2713  1.4813  0.0555
28377SOL     OW96855   1.812   5.086   6.968  0.1319 -0.1321 -0.5497
28377SOL    HW196856   1.744   5.020   6.980 -1.0897  0.8880 -1.5145
28377SOL    HW296857   1.854   5.062   6.885  0.2150 -0.1522 -0.5013
28378SOL     OW96858   8.512  13.519  11.931  0.0963  0.0414 -0.5279
28378SOL    HW196859   8.510  13.591  11.868 -0.2430  0.1076 -0.4420
28378SOL    HW296860   8.478  13.558  12.012 -0.3637 -0.2945 -0.5612
28379SOL     OW96861   4.367   9.080   1.800 -0.2485 -0.1333 -0.7130
28379SOL    HW196862   4.400   9.052   1.885  1.6357 -1.7611 -1.9099
28379SOL    HW296863   4.369   9.176   1.804  1.3104 -0.1842  0.5227
28380SOL     OW96864   9.035   5.848  13.416  0.3472 -0.0495  0.0371
28380SOL    HW196865   9.124   5.856  13.383  0.0412 -0.2434 -0.8866
28380SOL    HW296866   8.980   5.854  13.337 -0.4600  0.2459  0.6072
28381SOL     OW96867  13.434  10.152   6.032  0.4479  0.8587 -0.2984
28381SOL    HW196868  13.483  10.135   6.113 -1.4073 -3.3209  0.1751
28381SOL    HW296869  13.502  10.167   5.966  2.1492  0.3425  1.2607
28382SOL     OW96870   6.254  11.178   1.817  0.2255 -0.1742  0.1233
28382SOL    HW196871   6.333  11.161   1.868 -0.8290 -0.9383  1.5478
28382SOL    HW296872   6.274  11.259   1.769  2.4005 -1.1299 -0.7036
28383SOL     OW96873   0.133  10.314   8.400 -0.2271  0.3868 -0.1195
28383SOL    HW196874   0.170  10.388   8.448  0.1794  2.1063 -2.8903
28383SOL    HW296875   0.207  10.275   8.354 -0.9163  0.2006 -1.1119
28384SOL     OW96876   2.300   4.239   8.580  1.0156 -0.3220 -0.5383
28384SOL    HW196877   2.275   4.157   8.623 -1.5812  1.0903  0.8879
28384SOL    HW296878   2.383   4.264   8.622  1.0018 -1.3884  0.1644
28385SOL     OW96879   0.517   9.361  12.498 -0.6142 -0.7315  0.2082
28385SOL    HW196880   0.505   9.360  12.403 -1.2364  1.7702  0.1765
28385SOL    HW296881   0.452   9.423  12.529  1.4154  0.6914  1.9316
28386SOL     OW96882  11.761   6.142   8.837 -0.4258 -0.7262 -0.1332
28386SOL    HW196883  11.666   6.148   8.828 -0.4220  0.6748  0.4691
28386SOL    HW296884  11.790   6.233   8.841  0.8410 -1.1424  0.5794
28387SOL     OW96885   8.548  11.939   4.237  0.1723 -0.0218 -0.7252
28387SOL    HW196886   8.537  12.028   4.203  0.1433  1.4667  2.7810
28387SOL    HW296887   8.459  11.907   4.252  0.2146  0.1169 -0.1836
28388SOL     OW96888  10.079   4.400   9.462  0.4386 -0.1781  0.3139
28388SOL    HW196889  10.076   4.447   9.379 -1.9533  1.3107  1.1227
28388SOL    HW296890  10.166   4.419   9.497  0.4310  1.6586 -0.5146
28389SOL     OW96891   2.575   1.212  10.134  0.1229  0.2945  0.0006
28389SOL    HW196892   2.532   1.222  10.049 -0.9996  1.5341  0.6873
28389SOL    HW296893   2.505   1.189  10.194  0.6694  0.8504  0.8691
28390SOL     OW96894   2.348  13.266   5.277  0.2814  0.0043  0.7300
28390SOL    HW196895   2.361  13.202   5.347 -0.5692  1.6661  2.5191
28390SOL    HW296896   2.426  13.259   5.223 -0.2408 -3.2394  0.1797
28391SOL     OW96897   7.979  11.952   5.346 -0.3433 -0.3139  0.2961
28391SOL    HW196898   7.998  11.903   5.426 -1.5692 -1.9019 -0.3432
28391SOL    HW296899   8.056  11.938   5.291 -0.7721 -1.7873  0.0223
28392SOL     OW96900   1.395   1.573   5.993  0.2591 -0.1740 -0.3073
28392SOL    HW196901   1.326   1.516   5.960 -0.4688  1.2093 -1.3221
28392SOL    HW296902   1.442   1.521   6.058 -0.8100 -1.6453 -0.6791
28393SOL     OW96903  10.069   4.036   8.680 -0.7582 -0.3051 -0.3866
28393SOL    HW196904  10.072   4.130   8.664  0.1383  0.0826  1.7331
28393SOL    HW296905  10.151   4.003   8.642  0.1842  0.2127  1.1232
28394SOL     OW96906   8.503   5.994   0.729  0.5295  0.7718 -0.1634
28394SOL    HW196907   8.476   5.953   0.811 -0.2615 -1.2433 -1.3486
28394SOL    HW296908   8.597   5.978   0.723  0.7179  1.5341  0.6523
28395SOL     OW96909   6.330   9.205   1.301 -0.1315 -0.0674  1.0027
28395SOL    HW196910   6.353   9.165   1.217  0.1590 -0.8145  1.4224
28395SOL    HW296911   6.340   9.299   1.287 -0.5864 -0.1406  0.0565
28396SOL     OW96912   6.000   5.710   5.022  0.0067  0.2883 -0.9014
28396SOL    HW196913   6.086   5.669   5.032 -0.6599 -1.3049 -1.4235
28396SOL    HW296914   5.970   5.684   4.935 -0.2317  2.4117 -1.5266
28397SOL     OW96915  11.977   9.213   1.642 -0.1808 -0.2092  0.7480
28397SOL    HW196916  11.980   9.156   1.565  1.2819  0.9630 -0.1357
28397SOL    HW296917  12.030   9.168   1.708  0.0124 -0.4223  0.4494
28398SOL     OW96918  10.819   5.618   1.978 -0.0851  0.0225  0.3945
28398SOL    HW196919  10.808   5.527   2.005  0.4246 -0.3702 -0.6469
28398SOL    HW296920  10.838   5.666   2.059  3.0520 -1.3493  0.6135
28399SOL     OW96921   5.601  12.823  10.720 -0.1465  0.2117 -0.1772
28399SOL    HW196922   5.554  12.739  10.713  0.4199 -0.1927  0.6798
28399SOL    HW296923   5.690  12.803  10.693  0.0556  0.4767  0.2906
28400SOL     OW96924  13.493   4.005   5.101  0.0833  0.0531 -0.7899
28400SOL    HW196925  13.522   3.948   5.029 -2.6964 -0.1804 -1.8460
28400SOL    HW296926  13.459   3.945   5.167 -0.0413  0.3881 -0.5466
28401SOL     OW96927   5.151   8.013  12.677  0.2879  0.5849  0.5079
28401SOL    HW196928   5.112   7.939  12.724 -1.8775  0.4527 -1.2944
28401SOL    HW296929   5.092   8.086  12.696  1.1383  1.2862  0.4745
28402SOL     OW96930  12.639   5.153   6.659 -0.2175  0.4186 -0.1858
28402SOL    HW196931  12.687   5.193   6.732  0.6302 -0.7984 -0.0638
28402SOL    HW296932  12.701   5.154   6.586 -0.3992 -0.1459 -0.3474
28403SOL     OW96933  13.165  13.504  13.276  0.3167  0.4549 -0.1581
28403SOL    HW196934  13.113  13.557  13.215  3.1369  0.2527 -2.9962
28403SOL    HW296935  13.207  13.569  13.333  1.0478  1.0657 -1.3503
28404SOL     OW96936   2.963   4.850  13.222 -0.8759 -0.4750 -0.2885
28404SOL    HW196937   2.945   4.780  13.286  1.6211  0.9825  2.2484
28404SOL    HW296938   2.878   4.893  13.210 -1.9575 -2.3956 -0.0156
28405SOL     OW96939  10.879   1.401   0.462  0.1515  0.4196 -0.0725
28405SOL    HW196940  10.920   1.485   0.484 -2.6712  1.5595  1.3320
28405SOL    HW296941  10.849   1.412   0.371  0.8637  0.4460 -0.3092
28406SOL     OW96942   7.924  12.437   8.209  0.1508 -0.3936  0.1313
28406SOL    HW196943   8.015  12.467   8.209 -0.3758  1.3528  1.2395
28406SOL    HW296944   7.923  12.365   8.272  0.7226 -0.2661  0.2997
28407SOL     OW96945  12.289   0.686   4.625 -0.1319  0.1747  0.6959
28407SOL    HW196946  12.365   0.663   4.572 -0.3180 -1.0612  0.9283
28407SOL    HW296947  12.214   0.657   4.572 -0.3861  0.3564  0.9565
28408SOL     OW96948   8.416   1.534   3.507 -0.9943 -0.0445 -0.1423
28408SOL    HW196949   8.376   1.511   3.423  0.9259  0.8065 -1.3427
28408SOL    HW296950   8.506   1.503   3.500 -0.6737  0.4550  1.4420
28409SOL     OW96951   4.700   0.212  10.933  0.0842 -1.2334 -0.3827
28409SOL    HW196952   4.785   0.217  10.890  0.9136 -1.9194  1.1173
28409SOL    HW296953   4.642   0.265  10.877  1.7613  0.3269 -0.7455
28410SOL     OW96954   1.763   3.476   1.184  0.4725  0.3161  0.0782
28410SOL    HW196955   1.764   3.516   1.097 -2.2264 -0.1514 -0.2315
28410SOL    HW296956   1.687   3.513   1.227 -0.2641 -2.0511  0.9491
28411SOL     OW96957   0.250   3.670   4.407  0.7203 -0.3540  0.2022
28411SOL    HW196958   0.326   3.728   4.404  0.1777  0.3157 -1.4384
28411SOL    HW296959   0.175   3.729   4.402  0.1201 -1.1110  0.1172
28412SOL     OW96960   2.174  10.015  13.317 -0.1488 -0.6868  0.3952
28412SOL    HW196961   2.246   9.980  13.265  1.4814 -0.9315  2.6789
28412SOL    HW296962   2.111   9.943  13.323  0.5440 -1.3037  0.3914
28413SOL     OW96963   3.261  11.786  10.731  0.0253 -0.3038 -0.0698
28413SOL    HW196964   3.257  11.828  10.817  1.2532 -1.2157  0.4546
28413SOL    HW296965   3.189  11.723  10.732  0.1549 -0.4482  0.3730
28414SOL     OW96966   9.528  12.308   4.010  0.0833 -0.1753  0.3232
28414SOL    HW196967   9.437  12.328   4.030  0.9178  1.9027  2.4538
28414SOL    HW296968   9.537  12.331   3.917 -1.6699 -1.1148 -0.1343
28415SOL     OW96969   2.320   7.381   1.146 -0.1333 -1.0729  0.2516
28415SOL    HW196970   2.395   7.386   1.087 -0.8959  0.9598 -0.6365
28415SOL    HW296971   2.247   7.352   1.091 -0.9165  1.1103  0.0015
28416SOL     OW96972  12.188   5.428  10.830  0.6699  0.8987  0.0543
28416SOL    HW196973  12.179   5.440  10.925 -1.4977  2.4055 -0.2910
28416SOL    HW296974  12.280   5.448  10.813  1.7168 -1.6138  2.0785
28417SOL     OW96975  10.351   6.131  13.427 -0.2482 -0.1344  0.2106
28417SOL    HW196976  10.436   6.111  13.466 -0.1570  0.1764  0.1759
28417SOL    HW296977  10.305   6.181  13.495  0.4535  1.6896 -0.5742
28418SOL     OW96978   2.998  10.362   6.151 -0.0704  0.0594  0.4635
28418SOL    HW196979   2.932  10.424   6.182  1.5558  1.3236  1.5802
28418SOL    HW296980   2.967  10.277   6.181 -1.7401  0.4692 -0.0323
28419SOL     OW96981   4.034   3.806   9.046  0.1472  0.3842  0.3725
28419SOL    HW196982   4.114   3.810   9.098  1.4006 -2.4052 -1.0773
28419SOL    HW296983   4.063   3.781   8.958 -2.3036 -1.6302 -0.0158
28420SOL     OW96984  12.057  12.641   6.529 -0.7716 -0.3654 -0.8238
28420SOL    HW196985  12.127  12.598   6.579 -0.9863 -0.6721 -0.7845
28420SOL    HW296986  12.095  12.725   6.503 -0.5136 -0.3774 -0.4965
28421SOL     OW96987   1.465   5.272  13.135 -0.3415  0.2433 -0.1734
28421SOL    HW196988   1.539   5.251  13.191 -2.5597 -1.4812  2.3856
28421SOL    HW296989   1.431   5.355  13.169  0.2605  0.9879 -1.2854
28422SOL     OW96990  11.833  12.717   7.798  0.3333  0.5643 -0.7359
28422SOL    HW196991  11.754  12.663   7.808  1.2195 -0.5608  0.4478
28422SOL    HW296992  11.855  12.711   7.706  0.3518 -1.0396 -0.6454
28423SOL     OW96993  10.022   4.336  13.685  0.1088  0.5595 -0.4260
28423SOL    HW196994  10.062   4.335  13.598 -0.0267 -1.1078 -0.5022
28423SOL    HW296995   9.964   4.411  13.683  1.7195  1.8668 -1.0001
28424SOL     OW96996   8.345  11.577  12.995 -0.4404  0.2945  0.4052
28424SOL    HW196997   8.322  11.516  13.066  0.2095 -1.3593 -0.7316
28424SOL    HW296998   8.440  11.571  12.988 -0.4614  0.7299 -0.3447
28425SOL     OW96999   0.296   8.642   1.611 -0.3443 -0.2531  0.0687
28425SOL    HW197000   0.367   8.606   1.557 -0.9173 -2.4386  0.6778
28425SOL    HW297001   0.231   8.572   1.614 -1.3397  0.6974  1.7233
28426SOL     OW97002  13.348  10.395   8.966 -0.3212  0.2107  0.4621
28426SOL    HW197003  13.345  10.342   8.886 -0.7236 -0.7076  1.0809
28426SOL    HW297004  13.352  10.485   8.934 -0.8451 -0.1261 -0.5975
28427SOL     OW97005  13.536   3.465   3.155  0.9527  0.0294 -0.7602
28427SOL    HW197006  13.609   3.493   3.100  1.9634  0.3050  0.6701
28427SOL    HW297007  13.563   3.379   3.189  1.0521  0.5433  0.5195
28428SOL     OW97008   1.410   2.660   6.353  0.0267 -0.4242 -0.3146
28428SOL    HW197009   1.505   2.672   6.359 -0.0660  0.0867  0.3061
28428SOL    HW297010   1.399   2.582   6.300  0.8198 -1.0509  0.4068
28429SOL     OW97011  12.980   2.517   3.537 -0.3579  0.4123 -0.3419
28429SOL    HW197012  12.984   2.508   3.632  1.0277  1.6582 -0.2503
28429SOL    HW297013  12.943   2.604   3.523 -2.1528 -0.3899 -1.0143
28430SOL     OW97014   7.685   9.758   2.480 -0.1183  0.3273 -0.3527
28430SOL    HW197015   7.596   9.763   2.447  0.3760 -0.7543 -1.9312
28430SOL    HW297016   7.684   9.812   2.560 -2.0953  0.5202 -0.4689
28431SOL     OW97017   5.127   2.310   7.910 -0.2170 -0.6231 -0.5507
28431SOL    HW197018   5.168   2.247   7.969 -0.0184 -0.0171 -0.0296
28431SOL    HW297019   5.107   2.386   7.965 -0.4287 -0.2141 -1.1719
28432SOL     OW97020   4.599   4.085   7.403 -0.4919  0.6744  0.6004
28432SOL    HW197021   4.553   4.041   7.332  0.2434 -1.0546  1.1254
28432SOL    HW297022   4.567   4.041   7.483  0.0349  1.3300  1.1854
28433SOL     OW97023   7.944   0.414   7.693  0.8447  0.2659  0.3257
28433SOL    HW197024   7.987   0.380   7.772 -0.5092 -0.0963  0.9254
28433SOL    HW297025   7.857   0.374   7.693  0.8714  0.1124 -1.4646
28434SOL     OW97026   1.751  10.552   6.365  0.0975 -0.7866  0.5198
28434SOL    HW197027   1.807  10.480   6.396 -0.5278 -0.9748  1.2455
28434SOL    HW297028   1.776  10.564   6.273  0.4328 -1.7177  0.4780
28435SOL     OW97029   2.209   9.249   6.982  0.0222 -0.1542  0.4385
28435SOL    HW197030   2.236   9.212   7.066 -0.7667 -0.8957  0.3822
28435SOL    HW297031   2.166   9.176   6.937 -1.5823  0.8091  0.3265
28436SOL     OW97032   3.433  11.688   3.458 -0.2580  0.2985 -0.2137
28436SOL    HW197033   3.506  11.691   3.396 -2.3012  1.3802 -2.6947
28436SOL    HW297034   3.364  11.741   3.418 -3.2961 -2.5114  0.8686
28437SOL     OW97035   6.044   6.224   9.013 -0.2727  0.6718  0.1484
28437SOL    HW197036   6.014   6.179   9.092  0.8770  1.9760  1.4005
28437SOL    HW297037   6.008   6.312   9.021  2.0291  1.6426  0.6541
28438SOL     OW97038  11.456   5.483   8.226  0.6689  0.2660  0.0097
28438SOL    HW197039  11.386   5.546   8.246  0.5828  0.1065  0.2123
28438SOL    HW297040  11.469   5.435   8.307  2.4950  1.7109  0.6483
28439SOL     OW97041  10.419   1.093  13.657  0.7235  0.1688 -0.0823
28439SOL    HW197042  10.344   1.060  13.608  1.7633  0.2181 -1.7769
28439SOL    HW297043  10.389   1.093  13.748 -1.0071 -0.6722 -0.5960
28440SOL     OW97044   1.743   8.396   2.217 -0.3806  0.1070  0.2027
28440SOL    HW197045   1.837   8.394   2.239 -0.2834  0.4349 -0.1632
28440SOL    HW297046   1.742   8.411   2.122 -0.7936 -0.7611  0.0693
28441SOL     OW97047   6.222   7.140  13.138  0.1538  0.5541 -0.5455
28441SOL    HW197048   6.180   7.186  13.066  1.0664  1.0430 -0.7721
28441SOL    HW297049   6.307   7.112  13.103  0.0671 -0.3388 -0.0679
28442SOL     OW97050  12.950   0.691  12.924  0.1804  0.2913  0.6617
28442SOL    HW197051  12.886   0.725  12.861  1.6841 -0.1459 -1.1629
28442SOL    HW297052  13.002   0.768  12.948 -0.6786  0.5543  1.8050
28443SOL     OW97053  12.002  12.921   5.786 -0.1677  0.0195  0.2848
28443SOL    HW197054  11.978  12.830   5.773 -3.0145  0.7923 -0.7460
28443SOL    HW297055  12.086  12.918   5.832  0.3106 -3.0543 -0.5847
28444SOL     OW97056   3.548  12.522  12.594  0.1538 -0.3932 -0.2019
28444SOL    HW197057   3.502  12.604  12.612 -2.2518 -1.4322 -1.0189
28444SOL    HW297058   3.519  12.499  12.505  1.5953 -1.6052 -0.3846
28445SOL     OW97059  11.144   5.618   3.949 -0.0477 -0.2252  0.3303
28445SOL    HW197060  11.087   5.681   3.904 -0.1879 -0.1485  0.6131
28445SOL    HW297061  11.101   5.534   3.936  0.1160 -0.2586 -0.0090
28446SOL     OW97062   3.612   2.163   7.793 -0.3383 -0.4919 -0.2398
28446SOL    HW197063   3.574   2.075   7.802 -0.9014 -0.2232  0.0781
28446SOL    HW297064   3.701   2.147   7.762  0.0042 -1.2341  1.0380
28447SOL     OW97065   4.722   3.163   4.387  0.2959 -0.0767 -0.1708
28447SOL    HW197066   4.641   3.215   4.385  0.1566 -0.2588  0.4226
28447SOL    HW297067   4.714   3.111   4.467  2.1063  1.6544  1.2363
28448SOL     OW97068   8.286  12.911  11.605 -0.1585  0.0413  0.1097
28448SOL    HW197069   8.302  12.831  11.555  0.7625  0.4217 -0.2204
28448SOL    HW297070   8.241  12.881  11.684  0.2887 -0.8163  0.0498
28449SOL     OW97071   2.811   5.594   1.149  0.5428  0.0621 -0.0107
28449SOL    HW197072   2.884   5.535   1.166  0.4494 -0.4235 -1.2175
28449SOL    HW297073   2.836   5.641   1.069  0.3959  1.3266  0.6500
28450SOL     OW97074   3.958   3.673  11.686  0.2438  0.3728  0.0813
28450SOL    HW197075   3.966   3.679  11.591 -1.2759 -0.2223 -0.1092
28450SOL    HW297076   4.025   3.609  11.711  0.8612  0.7546 -0.5324
28451SOL     OW97077  10.754   2.803   1.307 -0.2552  0.0777 -0.5397
28451SOL    HW197078  10.682   2.782   1.367 -0.6255 -0.9414 -1.3035
28451SOL    HW297079  10.806   2.723   1.303  0.8723  0.7696 -0.0872
28452SOL     OW97080   7.309   4.496   6.677  0.1996 -0.2627  0.0140
28452SOL    HW197081   7.359   4.415   6.666  2.1602  0.9724 -0.7937
28452SOL    HW297082   7.372   4.566   6.657 -0.8334  1.5777  2.5587
28453SOL     OW97083   4.485  11.752   1.031 -0.4791  0.3000 -0.5644
28453SOL    HW197084   4.573  11.724   1.057 -0.3887  0.1713 -1.0102
28453SOL    HW297085   4.476  11.725   0.940 -1.5281 -0.9941 -0.1098
28454SOL     OW97086  11.838  10.434   5.223 -0.1484 -0.6181 -0.3494
28454SOL    HW197087  11.812  10.469   5.137  0.0446  0.8984  0.1807
28454SOL    HW297088  11.763  10.381   5.250 -1.1440  0.6156 -0.5438
28455SOL     OW97089   4.439   9.287   0.043 -0.1767 -0.9337  0.0571
28455SOL    HW197090   4.407   9.368   0.002 -0.3772 -0.0570  1.8479
28455SOL    HW297091   4.385   9.218   0.006 -1.8446  0.1101  0.4575
28456SOL     OW97092   9.124   2.999  10.769 -0.1455  0.4662 -0.5302
28456SOL    HW197093   9.164   3.078  10.804  2.8577 -0.0106 -2.5207
28456SOL    HW297094   9.131   3.008  10.674 -1.5327 -1.3666 -0.8744
28457SOL     OW97095   0.051   5.990  11.750  0.6561  0.3264 -0.0990
28457SOL    HW197096   0.114   5.918  11.749  1.3661  0.8786 -2.6755
28457SOL    HW297097   0.104   6.069  11.760  0.1694  0.6666 -0.1812
28458SOL     OW97098   0.917  12.785  11.952 -0.0576 -0.1420  0.1987
28458SOL    HW197099   0.946  12.856  12.008 -1.7173  0.5694  0.2119
28458SOL    HW297100   0.902  12.711  12.012 -1.2230  0.4268  0.6475
28459SOL     OW97101   6.944   9.329   9.751  0.0060  0.4517  0.1535
28459SOL    HW197102   6.865   9.322   9.698  0.0471  0.0336  0.1454
28459SOL    HW297103   6.947   9.248   9.802  0.9823 -0.0242 -0.6269
28460SOL     OW97104   7.023  12.822   1.499 -0.7501 -0.1173 -0.2795
28460SOL    HW197105   7.095  12.881   1.518 -1.1558 -0.1681  1.5930
28460SOL    HW297106   6.969  12.823   1.578 -0.8345 -2.8797 -0.1909
28461SOL     OW97107   5.554  11.917   7.517 -0.5163  0.4215  0.4741
28461SOL    HW197108   5.568  11.822   7.514  0.9971  0.6280 -0.0453
28461SOL    HW297109   5.641  11.953   7.535 -0.7332  1.7782 -0.9574
28462SOL     OW97110  11.252  13.682  12.311 -0.6850 -0.0682  0.1811
28462SOL    HW197111  11.302  13.723  12.240 -1.1260  4.0299  1.9729
28462SOL    HW297112  11.316  13.669  12.381 -1.2338  1.0114  0.9026
28463SOL     OW97113   3.655   0.435  12.333 -0.5534  0.4865  0.4945
28463SOL    HW197114   3.710   0.357  12.329  0.7274  1.2930  1.7885
28463SOL    HW297115   3.568   0.402  12.356 -0.5695 -0.7571 -1.1679
28464SOL     OW97116   1.103   0.881  10.480  0.6630  0.4378  0.0931
28464SOL    HW197117   1.075   0.907  10.392  0.5184 -3.0376 -1.0020
28464SOL    HW297118   1.192   0.848  10.468  0.1806 -1.2729  0.9730
28465SOL     OW97119  11.264  12.887   0.206  0.1868 -0.1268  0.4843
28465SOL    HW197120  11.193  12.844   0.159  0.6577 -0.5849  0.1846
28465SOL    HW297121  11.243  12.980   0.202 -0.6438 -0.2895  0.8077
28466SOL     OW97122   5.928  12.982   6.701 -0.0831 -0.5931 -0.4515
28466SOL    HW197123   5.983  13.009   6.628  0.3493 -0.7393 -0.1831
28466SOL    HW297124   5.872  13.059   6.718 -0.7903 -0.8686 -1.4803
28467SOL     OW97125   8.310   4.731  13.644 -0.2796 -0.4346 -0.0747
28467SOL    HW197126   8.248   4.728  13.717  0.5814 -0.0471  0.6976
28467SOL    HW297127   8.296   4.817  13.604 -1.1728 -0.8865 -0.7584
28468SOL     OW97128   9.641   3.006   1.151 -0.6578 -0.4515 -0.7784
28468SOL    HW197129   9.705   3.076   1.141 -0.5715 -0.4147 -0.0532
28468SOL    HW297130   9.665   2.964   1.233  1.3534 -3.4903 -2.7165
28469SOL     OW97131  10.810   2.469   7.962 -0.0517 -0.1846 -0.6999
28469SOL    HW197132  10.830   2.538   7.898  1.6374  1.5617  1.5370
28469SOL    HW297133  10.852   2.391   7.926  0.2662  0.5549 -2.0363
28470SOL     OW97134  12.150  11.257   7.309 -0.2341  0.0329  0.1567
28470SOL    HW197135  12.191  11.176   7.337 -0.2963 -0.4868 -1.1721
28470SOL    HW297136  12.070  11.263   7.361  0.1984 -0.3075  0.8742
28471SOL     OW97137   8.575   8.574   0.242 -0.6952  0.1371 -0.0325
28471SOL    HW197138   8.667   8.559   0.265 -1.0750 -1.2000  0.7243
28471SOL    HW297139   8.576   8.656   0.193  0.9452 -0.0319 -0.3466
28472SOL     OW97140   7.859   4.709  10.695 -0.2605  0.4051  0.7224
28472SOL    HW197141   7.871   4.623  10.656  0.4714  0.4950  0.7313
28472SOL    HW297142   7.869   4.695  10.789 -2.2409  0.1501  0.9302
28473SOL     OW97143   4.291  12.747   4.776 -0.5735  0.3431  0.1608
28473SOL    HW197144   4.335  12.812   4.831 -0.1081 -0.5168  0.8211
28473SOL    HW297145   4.330  12.664   4.801 -2.3638 -0.4296  0.5612
28474SOL     OW97146   5.144   7.910   9.519 -0.0291 -0.6511 -0.0640
28474SOL    HW197147   5.065   7.921   9.465  0.4496 -2.0378 -1.0796
28474SOL    HW297148   5.119   7.947   9.604 -2.3079 -2.3095  0.0970
28475SOL     OW97149   6.173   2.135   0.042  0.1729  0.4501  0.5868
28475SOL    HW197150   6.137   2.048   0.058  1.4509  0.1557  2.1476
28475SOL    HW297151   6.108   2.195   0.076 -1.2828  0.2220 -1.5916
28476SOL     OW97152   4.668   9.223   8.039 -0.2531  0.2261 -0.2303
28476SOL    HW197153   4.575   9.200   8.041 -0.3928  0.8118  1.1140
28476SOL    HW297154   4.673   9.296   7.979 -0.9980  1.4145  1.0797
28477SOL     OW97155   8.639   9.948   0.069 -0.5851  0.0199  0.2870
28477SOL    HW197156   8.682  10.031   0.050 -3.2320  1.5217  0.3524
28477SOL    HW297157   8.704   9.897   0.116  1.4275  1.6906 -0.5336
28478SOL     OW97158   4.063   0.454   8.797  0.3232  0.4673  0.0506
28478SOL    HW197159   4.063   0.541   8.756  1.5612  0.6674  0.4150
28478SOL    HW297160   4.017   0.468   8.880 -0.0052  0.6383 -0.1577
28479SOL     OW97161   6.160  10.905   4.447  0.6360 -0.1762 -0.2406
28479SOL    HW197162   6.185  10.875   4.535  0.3281 -0.5894 -0.2929
28479SOL    HW297163   6.215  10.853   4.388 -0.6301 -1.4184 -0.3783
28480SOL     OW97164   2.435   8.310   8.609  0.6218  0.6055  0.5621
28480SOL    HW197165   2.500   8.379   8.620  0.4104  0.9227 -0.1096
28480SOL    HW297166   2.475   8.249   8.547  0.9488 -0.0630  1.4189
28481SOL     OW97167  11.970   2.021  11.427 -0.0864 -0.2860  0.1974
28481SOL    HW197168  11.942   1.951  11.369  1.0326 -0.7622  0.2043
28481SOL    HW297169  12.065   2.025  11.415 -0.0803  0.9381  0.5215
28482SOL     OW97170   8.259  10.169   1.568 -0.0744 -0.5724 -0.2305
28482SOL    HW197171   8.184  10.110   1.577 -0.7981  0.4058  0.1980
28482SOL    HW297172   8.330  10.123   1.613 -0.0594 -2.0612 -1.6567
28483SOL     OW97173   1.835  10.636   2.408  0.5285  0.3022 -0.0484
28483SOL    HW197174   1.824  10.546   2.437 -2.8485  1.0202  1.3524
28483SOL    HW297175   1.746  10.665   2.387  1.7876  2.5828 -2.9075
28484SOL     OW97176   4.574  10.927   4.119 -0.2739 -0.5663 -0.4085
28484SOL    HW197177   4.510  10.961   4.182  0.8771 -0.0477  0.5116
28484SOL    HW297178   4.641  10.995   4.114  0.7639 -1.5728 -0.5059
28485SOL     OW97179   2.908   7.663  10.490  0.3086 -0.6074  0.3299
28485SOL    HW197180   2.816   7.663  10.518  0.1176 -0.3323 -0.2780
28485SOL    HW297181   2.957   7.682  10.570 -0.2545  0.6275  0.3980
28486SOL     OW97182   8.340   2.730   1.777 -0.1586  0.2977  0.1067
28486SOL    HW197183   8.401   2.664   1.811 -1.3754 -1.3706 -0.8067
28486SOL    HW297184   8.337   2.714   1.683 -1.9653  0.3422  0.1240
28487SOL     OW97185   7.502  13.277  10.592 -0.2878 -0.0549 -0.1567
28487SOL    HW197186   7.485  13.306  10.502  1.1335 -0.0658 -0.4568
28487SOL    HW297187   7.536  13.188  10.583  0.6181  0.2257  0.2983
28488SOL     OW97188   4.277  10.852  10.051  0.2765 -0.0423  0.2718
28488SOL    HW197189   4.333  10.904  10.108 -0.3332  0.5128  0.3828
28488SOL    HW297190   4.305  10.875   9.962  0.3235  0.1250  0.3298
28489SOL     OW97191   6.111  11.973  12.672 -0.2492  0.7591 -0.0886
28489SOL    HW197192   6.024  11.966  12.633 -1.3915  0.2812  2.3389
28489SOL    HW297193   6.149  11.885  12.662 -0.4827  0.6692 -0.1869
28490SOL     OW97194   6.506   9.503   3.914 -0.3971 -0.1893 -0.1699
28490SOL    HW197195   6.581   9.457   3.877  0.3089 -0.0196  0.9823
28490SOL    HW297196   6.520   9.498   4.009 -1.3393  0.6822  0.0287
28491SOL     OW97197  10.986   0.565   6.000 -0.0447 -0.2711  0.2243
28491SOL    HW197198  11.044   0.621   5.949 -0.3796  0.3870  0.5506
28491SOL    HW297199  10.904   0.565   5.952 -0.3362  0.2871  0.7139
28492SOL     OW97200  11.251   9.456  10.929  0.4039 -0.0311  0.3320
28492SOL    HW197201  11.252   9.513  10.852  0.0169 -0.8400 -0.2829
28492SOL    HW297202  11.292   9.509  10.998  0.8073  0.6887 -0.4342
28493SOL     OW97203   4.786   1.016   8.292  0.1423  0.2173  0.1234
28493SOL    HW197204   4.816   1.051   8.376  2.1340 -0.2659 -0.3571
28493SOL    HW297205   4.718   0.952   8.316  1.1650 -0.4221  1.4318
28494SOL     OW97206   9.350  12.581   0.878  0.2912  0.1293 -0.1065
28494SOL    HW197207   9.273  12.629   0.847 -0.3321 -1.0142 -0.3760
28494SOL    HW297208   9.408  12.649   0.912 -0.0131  1.2120 -1.6217
28495SOL     OW97209   2.465   1.542   0.055 -0.4894  0.5005 -0.3958
28495SOL    HW197210   2.404   1.468   0.064 -0.1527  0.0540 -1.6035
28495SOL    HW297211   2.411   1.619   0.074 -1.3730  0.0930 -1.1643
28496SOL     OW97212  10.424  11.948   4.119 -0.6217  0.4016 -0.5630
28496SOL    HW197213  10.391  11.994   4.197  0.3071 -1.0901  0.7728
28496SOL    HW297214  10.502  11.997   4.094 -0.0842  0.0312  0.3637
28497SOL     OW97215   0.664  10.601   4.351 -0.1253 -0.4058 -0.1606
28497SOL    HW197216   0.738  10.628   4.297  0.5183  0.5837  1.1406
28497SOL    HW297217   0.703  10.558   4.427 -0.8979 -0.2233  0.3592
28498SOL     OW97218  13.102   9.000  11.579 -0.3586 -0.3651  0.3733
28498SOL    HW197219  13.031   9.009  11.516  2.3461 -0.7315 -3.0162
28498SOL    HW297220  13.138   8.913  11.562  1.0288 -0.1085  1.8089
28499SOL     OW97221   8.021  12.171  13.359 -0.4011  0.1351  0.2156
28499SOL    HW197222   7.960  12.097  13.350 -1.7330  0.8905  2.2180
28499SOL    HW297223   8.102  12.132  13.391 -1.7049 -0.3817  3.2534
28500SOL     OW97224   6.935   7.438  13.087 -0.0663 -0.3273 -0.3755
28500SOL    HW197225   7.000   7.507  13.082 -0.3309 -0.1587 -1.6360
28500SOL    HW297226   6.983   7.362  13.120  0.4870  0.1118 -0.1508
28501SOL     OW97227   5.548   8.561   5.260  0.3325  0.1797  0.6901
28501SOL    HW197228   5.453   8.569   5.246  0.3097  0.9575  1.2439
28501SOL    HW297229   5.566   8.468   5.245 -0.3833  0.1687 -0.2077
28502SOL     OW97230  13.609  10.319   2.415 -0.7342 -0.0674  0.3381
28502SOL    HW197231  13.542  10.384   2.433 -1.4925  0.2026 -2.8638
28502SOL    HW297232  13.568  10.257   2.356  1.6644 -0.1085 -1.4531
28503SOL     OW97233   1.486   0.718   7.763  0.3598  0.2863  0.8500
28503SOL    HW197234   1.491   0.625   7.783  0.7208  0.6048  2.3443
28503SOL    HW297235   1.491   0.722   7.667 -0.0859 -1.2395  0.7394
28504SOL     OW97236   7.590  12.624  11.632 -0.2415  0.1861  0.8294
28504SOL    HW197237   7.616  12.550  11.577 -2.1870 -0.7121  1.0109
28504SOL    HW297238   7.550  12.584  11.709 -2.3761  1.3554  0.4280
28505SOL     OW97239   3.897   0.194   1.284 -0.1827  0.0145 -0.3276
28505SOL    HW197240   3.852   0.274   1.259 -0.1779  0.2458  0.4009
28505SOL    HW297241   3.832   0.143   1.333  0.3025  0.3007  0.6273
28506SOL     OW97242  10.950   6.333   4.360 -0.0797 -0.1137 -0.9852
28506SOL    HW197243  10.877   6.273   4.348 -2.5167  2.2870  0.4782
28506SOL    HW297244  10.913   6.420   4.340  2.5031  1.1884 -0.5642
28507SOL     OW97245  12.569   7.331   1.214  0.4883 -0.1864 -0.3765
28507SOL    HW197246  12.486   7.373   1.193  0.5289  1.9238  2.9811
28507SOL    HW297247  12.561   7.242   1.179 -2.5587  0.3805 -1.3768
28508SOL     OW97248   2.686   6.531   1.232  0.1476 -0.0796 -0.7269
28508SOL    HW197249   2.696   6.554   1.140  1.8194  1.8407 -0.1270
28508SOL    HW297250   2.766   6.483   1.254  1.2308  2.1226  0.4204
28509SOL     OW97251   1.973  12.941   0.394 -0.0295 -0.5910  0.4274
28509SOL    HW197252   1.929  12.862   0.424 -0.4089 -1.2110 -1.6208
28509SOL    HW297253   1.994  12.924   0.302  0.8656  1.2680  0.2375
28510SOL     OW97254   0.113   4.632   3.662 -0.4866 -0.0728 -0.3564
28510SOL    HW197255   0.120   4.550   3.710  1.3166 -0.3353 -0.9883
28510SOL    HW297256   0.127   4.700   3.728  1.1325 -0.4065 -0.2928
28511SOL     OW97257  10.574   4.005   6.047 -0.0946 -0.5585 -0.1463
28511SOL    HW197258  10.630   3.959   5.985  0.9722  0.0647  0.3365
28511SOL    HW297259  10.502   4.039   5.994  1.4453  1.0555 -1.2883
28512SOL     OW97260   5.001  12.274   5.865  0.1394  0.3851 -0.1183
28512SOL    HW197261   4.965  12.325   5.937  0.3007  2.1611 -1.2346
28512SOL    HW297262   4.970  12.317   5.786  1.0120 -0.7383 -1.1294
28513SOL     OW97263   5.652  11.093   6.282  0.1676 -0.2198  0.0748
28513SOL    HW197264   5.568  11.139   6.287  0.8295  1.1944 -1.1961
28513SOL    HW297265   5.669  11.066   6.372 -1.5878 -0.4528  0.3807
28514SOL     OW97266   0.004   8.399  10.199  0.0405 -0.5465 -0.0401
28514SOL    HW197267  -0.063   8.358  10.253  0.5697 -1.7583 -0.2742
28514SOL    HW297268   0.000   8.492  10.222 -2.7291 -0.3053 -1.1110
28515SOL     OW97269   4.429   6.951   8.535  0.1194  0.4132  0.1551
28515SOL    HW197270   4.376   6.957   8.455  0.7761  2.9803 -0.1609
28515SOL    HW297271   4.513   6.991   8.511  1.5683 -1.8442  1.2023
28516SOL     OW97272  12.389  10.121   0.996 -0.0990  0.5335 -0.7107
28516SOL    HW197273  12.387  10.191   1.061  0.2645 -0.2874  0.2112
28516SOL    HW297274  12.297  10.099   0.982 -0.1344 -1.2670  1.7670
28517SOL     OW97275   8.719  10.849   3.537  0.2340  0.3253 -0.4608
28517SOL    HW197276   8.660  10.910   3.493  0.0979  0.7046  0.2268
28517SOL    HW297277   8.803  10.861   3.493  0.0634  0.5850 -0.7209
28518SOL     OW97278   1.100  11.629   9.529  0.3748 -0.2643  0.7666
28518SOL    HW197279   1.021  11.606   9.577  0.1351 -0.3438  0.3397
28518SOL    HW297280   1.131  11.710   9.570  0.4941 -0.6387  1.4220
28519SOL     OW97281   2.028   5.893   5.539  0.1397  0.0693  0.0094
28519SOL    HW197282   2.111   5.846   5.535 -0.3885 -1.0672  1.2600
28519SOL    HW297283   1.990   5.883   5.452  0.6992 -0.5690 -0.1676
28520SOL     OW97284   0.944   9.163   3.728 -0.9342  0.0978  0.0114
28520SOL    HW197285   0.963   9.239   3.783  0.3652  0.5482 -0.9863
28520SOL    HW297286   0.867   9.123   3.767 -0.3572  0.6816  1.8326
28521SOL     OW97287   1.056   4.795   9.924  0.2403 -0.1124 -0.2642
28521SOL    HW197288   1.122   4.805   9.855  3.7084  1.0810  2.9279
28521SOL    HW297289   1.026   4.884   9.942 -1.5631 -0.5378 -0.9119
28522SOL     OW97290   4.477   3.746   1.309 -0.4134  0.1356  0.6734
28522SOL    HW197291   4.442   3.705   1.230 -1.1902 -1.4049  1.7762
28522SOL    HW297292   4.460   3.839   1.297 -0.6455 -0.0853 -0.8978
28523SOL     OW97293   0.872   4.509   5.763  0.1829 -0.2350  0.0112
28523SOL    HW197294   0.803   4.554   5.812  1.0905 -0.6789  1.7625
28523SOL    HW297295   0.934   4.480   5.830  1.4207 -0.9760 -1.4063
28524SOL     OW97296  13.082   1.745   9.615  0.3573 -0.6868  0.8197
28524SOL    HW197297  13.161   1.693   9.599  2.3489  1.5358  2.5742
28524SOL    HW297298  13.019   1.683   9.653  0.8557 -2.7153 -1.4195
28525SOL     OW97299   0.332   4.746   9.257  0.1111 -0.0153  0.2726
28525SOL    HW197300   0.383   4.791   9.324  0.1658 -1.2808  1.1163
28525SOL    HW297301   0.390   4.677   9.225  0.3549  1.0091 -1.6326
28526SOL     OW97302  11.659   3.250  11.423  0.0876  0.0245  0.4734
28526SOL    HW197303  11.642   3.271  11.515 -0.1337  0.7965  0.2667
28526SOL    HW297304  11.746   3.285  11.405 -0.2358  0.6770  0.1541
28527SOL     OW97305  12.888   9.797  10.035 -0.5330 -0.1042 -0.3161
28527SOL    HW197306  12.902   9.884  10.072 -1.2465  0.4301 -1.2576
28527SOL    HW297307  12.930   9.737  10.097 -2.1637  0.6808  1.6858
28528SOL     OW97308   5.987   1.040   0.536  0.3257  0.6862 -0.3304
28528SOL    HW197309   5.934   0.975   0.491 -0.0564  0.7524  0.0259
28528SOL    HW297310   5.980   1.118   0.481 -0.4866  0.8959  0.0601
28529SOL     OW97311   5.878  10.073   5.719 -0.3951  0.0600 -0.0656
28529SOL    HW197312   5.830   9.994   5.745 -0.6606  0.1790 -0.1945
28529SOL    HW297313   5.940  10.087   5.791  0.7243 -1.1324 -0.7444
28530SOL     OW97314  12.092   7.780   3.538  0.1706  0.2077 -0.1586
28530SOL    HW197315  12.138   7.756   3.618  0.0989 -2.1287 -0.7418
28530SOL    HW297316  12.160   7.811   3.479  0.3587  0.9726  0.4506
28531SOL     OW97317   6.990   0.460  10.681 -0.1180 -0.5225  0.5160
28531SOL    HW197318   7.057   0.522  10.654 -0.9795  0.0932 -0.2945
28531SOL    HW297319   6.914   0.483  10.627 -1.4888 -0.1387  2.5217
28532SOL     OW97320   9.747   9.498   2.329  0.3326  0.0753 -0.1323
28532SOL    HW197321   9.674   9.464   2.278 -1.2142  0.8090  1.5007
28532SOL    HW297322   9.742   9.593   2.317 -0.6704  0.3488  2.0894
28533SOL     OW97323   9.922  10.425   7.069  0.3308 -0.0817  0.3979
28533SOL    HW197324   9.831  10.455   7.077 -0.1737 -1.1948 -0.8413
28533SOL    HW297325   9.948  10.403   7.159 -1.5390 -2.2963  0.4661
28534SOL     OW97326  12.139   5.400   4.883  0.4106  0.6686 -0.0987
28534SOL    HW197327  12.063   5.458   4.885  0.4569  0.7229  0.0757
28534SOL    HW297328  12.126   5.347   4.804  0.5581  1.1752 -0.4702
28535SOL     OW97329   3.489   0.460   2.198 -0.3390 -0.0520  0.3952
28535SOL    HW197330   3.584   0.452   2.185 -0.2705  0.1321  0.7452
28535SOL    HW297331   3.453   0.467   2.110 -0.0455 -0.3138  0.2485
28536SOL     OW97332   3.564   4.920  13.449 -0.2569 -0.6527  0.0444
28536SOL    HW197333   3.566   4.907  13.354 -0.6525 -2.9434  0.2819
28536SOL    HW297334   3.481   4.964  13.465 -0.1546 -0.1767 -0.6673
28537SOL     OW97335   7.149   5.347  10.589  0.3247  0.0680 -0.0678
28537SOL    HW197336   7.118   5.320  10.676  0.0173  0.4883 -0.0479
28537SOL    HW297337   7.113   5.280  10.530 -0.1081  0.2070  0.0327
28538SOL     OW97338   1.118   3.397  13.604  0.7987  0.0120 -0.1835
28538SOL    HW197339   1.185   3.369  13.542  0.8971  1.6692 -0.8766
28538SOL    HW297340   1.058   3.323  13.610  2.1826 -1.1613 -0.2474
28539SOL     OW97341   6.915   1.499   0.405 -0.1925  0.7783 -0.1739
28539SOL    HW197342   6.966   1.464   0.479 -0.9408 -0.5526 -0.2479
28539SOL    HW297343   6.979   1.549   0.353  0.6565  0.5438  0.6141
28540SOL     OW97344  10.462   3.207   2.644  0.7561 -0.2375  0.6842
28540SOL    HW197345  10.479   3.127   2.694 -1.1593 -0.7294  0.6310
28540SOL    HW297346  10.369   3.225   2.658  0.7130  0.9414 -0.8227
28541SOL     OW97347   6.071   9.822  11.359  0.3837  0.4482 -0.1915
28541SOL    HW197348   6.075   9.788  11.448  0.0263 -0.4521 -0.5170
28541SOL    HW297349   5.992   9.784  11.322 -0.6948  2.5446 -0.1986
28542SOL     OW97350  13.430  11.295  13.030 -0.1353  0.1969  0.3219
28542SOL    HW197351  13.388  11.359  12.973 -1.6652 -0.8706  0.1879
28542SOL    HW297352  13.518  11.284  12.994 -1.1591 -0.7179 -2.1369
28543SOL     OW97353  12.990  11.166  11.115 -0.0556  0.2097  0.0155
28543SOL    HW197354  12.958  11.088  11.069 -1.3126  0.2771  0.7101
28543SOL    HW297355  13.065  11.195  11.063 -0.6400 -0.4372 -1.2596
28544SOL     OW97356   2.311   5.794  10.502 -0.1669  0.6177 -0.0545
28544SOL    HW197357   2.262   5.764  10.579  1.5644 -0.6074  0.6132
28544SOL    HW297358   2.294   5.889  10.499 -1.2457  0.4900  1.0895
28545SOL     OW97359  10.362   4.556   3.660  0.4682 -0.3815  0.1681
28545SOL    HW197360  10.308   4.545   3.582  1.1425 -1.1813 -0.2022
28545SOL    HW297361  10.313   4.513   3.730  0.1250 -0.1523  0.0729
28546SOL     OW97362   7.432   6.177   2.049  0.0416  0.3741  0.0656
28546SOL    HW197363   7.418   6.223   1.966  0.6795  0.4382 -0.0088
28546SOL    HW297364   7.360   6.114   2.054 -0.8068  1.3271  0.1399
28547SOL     OW97365   7.746   0.437   8.074  0.9100 -0.1529  0.1449
28547SOL    HW197366   7.782   0.378   8.141 -2.3278 -0.4661  1.7944
28547SOL    HW297367   7.654   0.446   8.097  0.0019  1.1253 -3.3460
28548SOL     OW97368  11.358   6.754  12.262 -0.1987  0.8127  0.4706
28548SOL    HW197369  11.322   6.667  12.279 -0.4162  0.7178 -0.4090
28548SOL    HW297370  11.447   6.738  12.231 -0.0334  0.9395  0.8792
28549SOL     OW97371   3.098   6.733  10.955 -0.2593 -0.1130  0.2830
28549SOL    HW197372   3.038   6.687  11.015 -0.4012 -0.9817 -0.5005
28549SOL    HW297373   3.143   6.797  11.010 -1.0838 -0.2355  1.1192
28550SOL     OW97374   4.370  11.418  10.664 -0.0570 -0.3397 -0.0926
28550SOL    HW197375   4.380  11.352  10.732  0.7740 -0.8216 -0.6557
28550SOL    HW297376   4.439  11.482  10.683  0.3141 -0.5842 -0.5869
28551SOL     OW97377   2.034   0.306   9.166 -0.5780 -0.4710  0.3782
28551SOL    HW197378   2.001   0.290   9.077 -0.6443 -1.4994  0.5742
28551SOL    HW297379   1.963   0.350   9.211 -0.8326 -0.6303  0.1352
28552SOL     OW97380   1.413   8.082   6.383 -0.6021  0.4207  0.3638
28552SOL    HW197381   1.348   8.148   6.407 -0.0715  0.5078  1.6578
28552SOL    HW297382   1.397   8.010   6.443 -0.9275 -0.5022 -0.7864
28553SOL     OW97383  11.877   0.270   6.134  0.4434  0.0301 -0.2205
28553SOL    HW197384  11.836   0.230   6.057 -0.5278  1.6930 -0.6110
28553SOL    HW297385  11.804   0.287   6.193  0.4021  3.2296 -1.0043
28554SOL     OW97386  11.977  10.141   5.716  0.3300  0.2166  0.3810
28554SOL    HW197387  12.065  10.178   5.709  0.3085  0.0110 -2.1903
28554SOL    HW297388  11.919  10.214   5.694 -0.1413  0.2507  1.6811
28555SOL     OW97389   0.541   5.267   7.180 -0.8545  0.1588 -0.1963
28555SOL    HW197390   0.455   5.226   7.181 -0.0660 -1.6463 -1.4334
28555SOL    HW297391   0.601   5.200   7.213  0.3437  0.6423 -1.2872
28556SOL     OW97392   5.702   1.541   5.480  0.6153  0.2564 -0.3154
28556SOL    HW197393   5.647   1.497   5.415 -0.2661 -1.5676  1.5421
28556SOL    HW297394   5.680   1.634   5.473 -2.2756 -0.3284 -0.0859
28557SOL     OW97395   3.354   7.650  10.011  0.0149  0.6961  0.1567
28557SOL    HW197396   3.358   7.630  10.105  3.7134  2.6073  0.6092
28557SOL    HW297397   3.340   7.745  10.008  0.5221  0.7477 -1.1764
28558SOL     OW97398   7.726  12.662   8.130  0.1220 -0.3049  0.4035
28558SOL    HW197399   7.637  12.696   8.137 -0.5321 -1.8033 -0.0783
28558SOL    HW297400   7.727  12.586   8.189  0.9487 -0.5271  0.1189
28559SOL     OW97401   9.764  12.941   1.753 -0.0002 -0.1053 -0.1274
28559SOL    HW197402   9.824  12.983   1.815 -0.6208 -2.3619  2.1592
28559SOL    HW297403   9.817  12.872   1.712  0.1526  0.8028 -1.5226
28560SOL     OW97404   0.370   6.596   9.679 -0.2283  0.5807 -0.4327
28560SOL    HW197405   0.305   6.610   9.610 -0.3267  1.5061 -0.1656
28560SOL    HW297406   0.454   6.600   9.634 -0.3292 -0.3858 -0.7408
28561SOL     OW97407   6.352  12.512   7.928 -0.7036 -0.6243  0.2511
28561SOL    HW197408   6.321  12.441   7.984 -1.7775  0.6473  1.3371
28561SOL    HW297409   6.272  12.556   7.898 -0.0579  0.3264 -0.1225
28562SOL     OW97410  10.158   8.531  11.273  0.0237 -0.7203  0.2377
28562SOL    HW197411  10.160   8.616  11.228 -0.3787 -1.1024 -0.5248
28562SOL    HW297412  10.198   8.548  11.358  1.5187 -0.1475 -0.5481
28563SOL     OW97413   0.453   8.832   3.144  0.2310  0.4436  0.1373
28563SOL    HW197414   0.524   8.792   3.094 -0.8747 -1.5750  0.0532
28563SOL    HW297415   0.400   8.876   3.078 -1.3339 -2.3765 -0.6628
28564SOL     OW97416   7.758   8.529   8.159 -0.0369  0.4368 -0.2956
28564SOL    HW197417   7.664   8.549   8.158 -0.3818 -0.9035  1.1416
28564SOL    HW297418   7.780   8.524   8.252  0.6469 -2.6835 -0.5178
28565SOL     OW97419   7.625   0.323  11.593  0.2423 -0.0951 -0.3942
28565SOL    HW197420   7.670   0.267  11.530  0.3835  0.3898 -0.7285
28565SOL    HW297421   7.542   0.279  11.610 -0.1864  0.2119 -1.6019
28566SOL     OW97422  10.906   1.305   9.792 -0.3208 -0.3479 -0.4707
28566SOL    HW197423  10.936   1.217   9.767 -0.4649 -0.5245 -0.0365
28566SOL    HW297424  10.985   1.347   9.828  0.2949  0.4737 -2.6318
28567SOL     OW97425   5.718   2.184  10.624  0.1819 -0.3445  0.0037
28567SOL    HW197426   5.656   2.127  10.669 -0.5553 -0.2252 -0.8318
28567SOL    HW297427   5.802   2.165  10.665 -0.4953 -0.0979  1.5470
28568SOL     OW97428  10.886   2.250   8.430  0.4574 -0.0581 -0.1690
28568SOL    HW197429  10.845   2.307   8.365 -1.3113  1.8556  2.4274
28568SOL    HW297430  10.979   2.252   8.409  0.2796  2.6704 -1.0355
28569SOL     OW97431   8.755  10.272   7.673  0.3088 -0.2099 -0.2976
28569SOL    HW197432   8.785  10.210   7.606  0.2893 -0.7229  0.1601
28569SOL    HW297433   8.666  10.244   7.694  0.0371  0.4162 -0.6045
28570SOL     OW97434   3.469  12.095   4.467  0.2379  0.6468  0.2245
28570SOL    HW197435   3.427  12.128   4.388 -1.4419 -0.5233  0.5490
28570SOL    HW297436   3.507  12.011   4.440  0.3175  0.6042  0.4708
28571SOL     OW97437   9.304  11.976   0.240 -0.4724  0.2596 -0.0424
28571SOL    HW197438   9.353  11.985   0.322  0.2159  1.4780 -0.5613
28571SOL    HW297439   9.301  12.065   0.204  0.1318 -0.4035 -1.8342
28572SOL     OW97440   4.059  12.970   1.636  1.0390  0.3598 -0.1710
28572SOL    HW197441   4.073  13.018   1.718  1.3662 -0.1706  0.0869
28572SOL    HW297442   4.141  12.982   1.587  0.2999  1.9670 -1.1075
28573SOL     OW97443   4.238   2.445   8.973  0.0812  0.2480  0.5142
28573SOL    HW197444   4.292   2.505   8.921 -0.9130  0.8929  0.1948
28573SOL    HW297445   4.165   2.499   9.004 -0.8003 -0.7723  0.2807
28574SOL     OW97446  10.443   4.680   8.453 -0.1894  0.3673 -1.0930
28574SOL    HW197447  10.474   4.701   8.541 -0.0166  0.1377 -1.0982
28574SOL    HW297448  10.496   4.605   8.426 -0.6616  0.0548 -1.1536
28575SOL     OW97449   9.067   0.416   2.349 -0.3384 -0.1485 -0.3084
28575SOL    HW197450   8.991   0.474   2.341  0.3534  1.2416  2.1846
28575SOL    HW297451   9.039   0.347   2.408  0.6918  1.2040  1.8798
28576SOL     OW97452   3.895   1.967   5.388 -0.5793 -0.0182 -0.0614
28576SOL    HW197453   3.823   2.002   5.336 -1.9147 -0.4039  1.4366
28576SOL    HW297454   3.946   1.914   5.327 -1.8280 -0.1005 -1.0610
28577SOL     OW97455   7.126   4.075  10.843  0.0124  0.3361  0.0380
28577SOL    HW197456   7.192   4.096  10.777  0.0687 -0.9986 -0.3552
28577SOL    HW297457   7.096   3.987  10.821 -1.2504  0.5550  0.7567
28578SOL     OW97458   4.145   5.747   5.518 -0.6474  0.1580 -0.5462
28578SOL    HW197459   4.104   5.699   5.590  1.8777 -0.0126  0.8843
28578SOL    HW297460   4.157   5.680   5.450 -1.5428 -0.0719 -0.4917
28579SOL     OW97461   5.432   2.554   2.882 -0.6088 -0.2867 -0.0584
28579SOL    HW197462   5.509   2.608   2.900 -0.2844 -0.3272 -1.2249
28579SOL    HW297463   5.358   2.614   2.893 -0.4749 -0.3725  1.5730
28580SOL     OW97464   1.679   0.279   7.080  0.2651  0.0773 -0.3048
28580SOL    HW197465   1.761   0.241   7.111  0.9813  1.4924 -0.3866
28580SOL    HW297466   1.611   0.221   7.115  1.2704 -0.9945 -0.0450
28581SOL     OW97467   0.100   6.232  10.176 -0.0578 -0.2086  0.7668
28581SOL    HW197468   0.196   6.238  10.175 -0.1214  1.8946  1.3628
28581SOL    HW297469   0.073   6.292  10.106 -0.9471 -0.7872  0.6103
28582SOL     OW97470   4.931   2.682   5.276  0.4495 -0.3573  0.3494
28582SOL    HW197471   4.908   2.775   5.272  1.4372 -0.0475  1.4393
28582SOL    HW297472   4.912   2.649   5.188 -0.0589  0.8315 -0.0049
28583SOL     OW97473   4.109   1.527   5.239  0.4069 -0.4284  0.2999
28583SOL    HW197474   4.091   1.616   5.210  1.4310 -0.6046 -1.0044
28583SOL    HW297475   4.164   1.538   5.317  1.5111  0.1204 -0.5230
28584SOL     OW97476  12.213   1.014   0.585  0.4355 -0.4617  0.7225
28584SOL    HW197477  12.147   1.033   0.518  1.4484 -1.4647 -0.5848
28584SOL    HW297478  12.161   0.995   0.664 -0.8000 -0.2615 -0.0179
28585SOL     OW97479  10.584  11.364  10.539 -0.0597  0.2899 -0.1630
28585SOL    HW197480  10.615  11.379  10.450  0.7394  1.5251  0.3055
28585SOL    HW297481  10.584  11.450  10.580 -1.1423 -0.1426  0.8177
28586SOL     OW97482  12.959  10.382  11.687 -0.1686 -0.2314  0.6304
28586SOL    HW197483  13.012  10.459  11.669  1.1549 -1.6049 -1.9372
28586SOL    HW297484  12.979  10.360  11.778  1.7928  0.7238  0.4875
28587SOL     OW97485  10.592   1.410   6.593 -0.0193  0.3154  0.1977
28587SOL    HW197486  10.648   1.344   6.551  0.3867  1.5246 -1.2650
28587SOL    HW297487  10.509   1.364   6.608  0.3121 -0.6008 -0.6121
28588SOL     OW97488  11.000   0.708   1.209  0.4158  0.2071  0.6727
28588SOL    HW197489  10.958   0.690   1.294 -1.4480  0.1407 -0.2177
28588SOL    HW297490  10.942   0.667   1.145  1.4827  0.7618 -0.6838
28589SOL     OW97491   8.049   8.799   7.387  0.4897  0.0566  0.0278
28589SOL    HW197492   7.962   8.774   7.419  0.5039  0.9622  0.8251
28589SOL    HW297493   8.101   8.719   7.395 -0.9126 -1.3533 -3.1212
28590SOL     OW97494   6.798  10.762  12.085  0.0920  0.2290 -0.4051
28590SOL    HW197495   6.830  10.843  12.125  0.8248 -0.7195  1.0195
28590SOL    HW297496   6.706  10.779  12.066  0.4527  1.6944 -0.9918
28591SOL     OW97497   3.509  12.662   7.043  0.4003 -0.3611  0.3278
28591SOL    HW197498   3.544  12.733   6.988 -1.5363  1.4700  1.3159
28591SOL    HW297499   3.556  12.671   7.126  0.1217 -0.1975  0.4685
28592SOL     OW97500  11.859   7.349   9.581 -0.0941  0.0127  0.1590
28592SOL    HW197501  11.920   7.302   9.524  0.3569  0.5463  0.1971
28592SOL    HW297502  11.901   7.434   9.596 -0.3310 -0.0223  1.0606
28593SOL     OW97503   3.168   9.159   5.054 -0.5211  0.1411 -0.3106
28593SOL    HW197504   3.091   9.212   5.032 -0.5034 -0.0877 -0.9496
28593SOL    HW297505   3.239   9.198   5.004 -0.5702 -0.6547 -1.0150
28594SOL     OW97506   2.193   2.688   4.455  0.4968  0.3080  0.2343
28594SOL    HW197507   2.223   2.779   4.459  0.5064  0.3457 -0.6262
28594SOL    HW297508   2.100   2.693   4.476 -0.1723  0.8868 -2.5027
28595SOL     OW97509   8.668   4.913   5.917  0.1508  0.1060 -0.0817
28595SOL    HW197510   8.632   4.879   5.835  0.4695  0.5752 -0.4273
28595SOL    HW297511   8.593   4.925   5.974 -0.2671  1.1594 -0.8223
28596SOL     OW97512   8.206   0.664  10.046 -0.0741 -0.0163  0.2880
28596SOL    HW197513   8.284   0.701  10.087 -1.0727  0.2684  2.0504
28596SOL    HW297514   8.228   0.572  10.030  0.4957 -0.0290  1.0923
28597SOL     OW97515  12.765  12.203   6.873  0.2381  0.5191  0.1232
28597SOL    HW197516  12.731  12.261   6.805 -2.1075 -0.5154  0.3350
28597SOL    HW297517  12.696  12.139   6.888  1.1255  0.0321  2.6977
28598SOL     OW97518   8.781   6.559   9.643  0.4456 -0.0902 -0.4461
28598SOL    HW197519   8.771   6.620   9.570  0.0878 -0.2031 -0.4952
28598SOL    HW297520   8.852   6.595   9.695  0.4881  0.1637 -0.6782
28599SOL     OW97521   6.719  10.074   3.690  0.0865 -0.3121 -0.2593
28599SOL    HW197522   6.670   9.992   3.701 -1.9163  0.7868 -0.4997
28599SOL    HW297523   6.674  10.119   3.619  2.7839 -0.1011 -1.9847
28600SOL     OW97524   9.331   1.662   4.313  0.2309 -0.2166 -0.0008
28600SOL    HW197525   9.236   1.656   4.311  0.3052 -1.8426 -0.7817
28600SOL    HW297526   9.360   1.571   4.320  1.7338  0.2332 -0.0170
28601SOL     OW97527   1.759   0.126   2.017  0.5627 -0.7241 -0.7610
28601SOL    HW197528   1.706   0.085   1.949 -0.0574  1.1002 -1.4390
28601SOL    HW297529   1.697   0.139   2.090  0.3514  0.3286 -1.1115
28602SOL     OW97530  10.557   5.554  13.205  0.2543  0.0424 -0.5506
28602SOL    HW197531  10.618   5.593  13.268 -0.4323 -0.7037  0.6220
28602SOL    HW297532  10.521   5.629  13.158  1.1733  0.5833 -0.4263
28603SOL     OW97533   8.378  13.158   6.637  0.0895  0.1029  0.3736
28603SOL    HW197534   8.471  13.168   6.619  0.2955 -0.4084  1.0977
28603SOL    HW297535   8.344  13.104   6.565  0.7701 -1.4150  1.1519
28604SOL     OW97536  13.299   0.111   9.520 -0.1140  0.5094 -0.3742
28604SOL    HW197537  13.373   0.160   9.482 -1.1905  1.3152 -1.5331
28604SOL    HW297538  13.224   0.137   9.467 -1.3824  0.2795  1.2292
28605SOL     OW97539  13.048   6.747   6.771  0.7971  0.2872 -0.1029
28605SOL    HW197540  13.060   6.700   6.854 -0.9458 -0.0557 -0.0076
28605SOL    HW297541  12.955   6.770   6.770  1.2842  2.4986 -0.8254
28606SOL     OW97542   6.362  13.252   3.443 -0.3538  0.4329  0.6179
28606SOL    HW197543   6.323  13.298   3.368 -0.8401 -1.5958 -0.4406
28606SOL    HW297544   6.295  13.191   3.471  0.2056  0.4566  2.1170
28607SOL     OW97545   2.027  11.781   5.024  0.1076  0.2362 -0.2499
28607SOL    HW197546   2.068  11.762   5.109 -0.8012 -2.6662 -0.3587
28607SOL    HW297547   1.938  11.749   5.033  0.0765 -0.4118 -2.4155
28608SOL     OW97548   5.000   8.194   5.705 -0.3198  0.4386 -0.0977
28608SOL    HW197549   5.044   8.110   5.693 -1.1598 -0.0521  0.1720
28608SOL    HW297550   4.909   8.178   5.678 -0.4275  1.3293 -0.2907
28609SOL     OW97551   5.245   4.636   7.953  0.3537  0.0215 -0.8145
28609SOL    HW197552   5.190   4.570   7.911  0.5938  0.7198 -2.2645
28609SOL    HW297553   5.198   4.658   8.034 -0.7668 -0.4293 -1.3261
28610SOL     OW97554   2.767   4.794  10.146  0.2237  0.0495 -0.5146
28610SOL    HW197555   2.676   4.781  10.169 -0.2131  0.6066 -1.8241
28610SOL    HW297556   2.766   4.808  10.051  2.0748 -3.9279 -1.3368
28611SOL     OW97557  11.131  11.730  12.369  0.1992 -0.0341  0.0698
28611SOL    HW197558  11.170  11.800  12.316  0.0305  0.2714  0.3468
28611SOL    HW297559  11.156  11.650  12.323  0.2881  0.2106 -0.3238
28612SOL     OW97560   0.246  10.616   0.715 -0.4012 -0.4430  0.0408
28612SOL    HW197561   0.191  10.673   0.662 -0.8870 -0.1111  0.8785
28612SOL    HW297562   0.294  10.562   0.652 -0.5352  0.3340 -0.7385
28613SOL     OW97563  12.968   2.550   4.006 -0.1624 -0.2261 -0.1805
28613SOL    HW197564  13.029   2.616   4.039  0.9095 -0.7296 -1.0629
28613SOL    HW297565  12.892   2.599   3.977 -0.1982  0.4231  0.9470
28614SOL     OW97566  11.013   5.400   3.422  0.4427  0.1904  0.6808
28614SOL    HW197567  11.090   5.390   3.365  0.9145  0.0565  1.3280
28614SOL    HW297568  10.940   5.367   3.370  1.1682 -1.9414  0.9131
28615SOL     OW97569   5.878  11.740   4.089 -0.2173  0.2042 -0.7719
28615SOL    HW197570   5.901  11.701   4.005  0.5686  1.4876 -1.1746
28615SOL    HW297571   5.819  11.812   4.067 -0.6613  0.0425 -0.1457
28616SOL     OW97572   6.006   6.604   8.222  0.5796  0.3980 -0.1663
28616SOL    HW197573   6.072   6.572   8.284 -0.8517 -1.0456  0.6897
28616SOL    HW297574   5.981   6.690   8.256 -0.6720 -0.6450  1.7502
28617SOL     OW97575   6.528   2.397  13.591 -0.4721  0.6753  0.5388
28617SOL    HW197576   6.496   2.398  13.501  0.1777 -0.3988  0.2750
28617SOL    HW297577   6.495   2.314  13.628 -1.4044  1.4654  1.5561
28618SOL     OW97578   6.185   9.274   6.079 -0.3195  0.4479 -0.0373
28618SOL    HW197579   6.200   9.330   6.155 -0.9114  1.0392 -0.3460
28618SOL    HW297580   6.099   9.234   6.095 -0.5263  0.7106 -0.4664
28619SOL     OW97581   9.278   3.495   4.340 -0.1987  0.7012  0.7441
28619SOL    HW197582   9.192   3.473   4.304  0.3737 -0.6287  0.1456
28619SOL    HW297583   9.332   3.418   4.324  1.6632  2.1682 -0.6521
28620SOL     OW97584   2.289   5.592  11.551  0.0594  0.8256  0.2697
28620SOL    HW197585   2.239   5.600  11.633 -0.7186  0.5931 -0.1710
28620SOL    HW297586   2.248   5.655  11.492  0.3651  0.7120 -0.0608
28621SOL     OW97587  11.133   7.140   1.039 -0.4186  0.1738  0.1047
28621SOL    HW197588  11.201   7.188   0.992 -0.8448 -1.0418 -1.8699
28621SOL    HW297589  11.128   7.056   0.994 -1.4806 -0.7431  1.8273
28622SOL     OW97590   8.183   3.833   0.661  0.0705  0.1558  0.2489
28622SOL    HW197591   8.140   3.848   0.745 -0.4506 -1.3100  0.2701
28622SOL    HW297592   8.245   3.763   0.677  0.2434  0.1252 -0.4998
28623SOL     OW97593   9.946   8.380  11.517  0.1605 -0.1396 -0.1557
28623SOL    HW197594   9.902   8.364  11.601  1.3702 -1.8281  0.1974
28623SOL    HW297595  10.010   8.449  11.536 -0.0698  0.0038  0.1144
28624SOL     OW97596   4.938   1.909  11.287 -0.5721 -0.1486  0.2738
28624SOL    HW197597   4.972   1.998  11.283 -0.6064 -0.1275  0.4770
28624SOL    HW297598   4.886   1.906  11.366  1.7364 -1.1679  1.8715
28625SOL     OW97599   9.365   5.185   7.355 -0.6531  0.5243  0.3080
28625SOL    HW197600   9.305   5.113   7.376 -1.3265  0.4765 -1.6609
28625SOL    HW297601   9.359   5.195   7.260  0.9782  1.8427  0.3020
28626SOL     OW97602  13.549   7.806   7.840  0.3705  0.1112  0.0781
28626SOL    HW197603  13.639   7.819   7.868 -0.1311  0.6896  1.5455
28626SOL    HW297604  13.529   7.716   7.863  0.5350  0.0241 -0.1218
28627SOL     OW97605  10.297   1.131   0.579  0.3484 -0.4289  0.1125
28627SOL    HW197606  10.208   1.163   0.567  0.9737  0.8082 -1.6937
28627SOL    HW297607  10.305   1.113   0.672 -2.5177 -2.8808  0.0325
28628SOL     OW97608  13.320  10.577   3.970  0.5538  0.4207 -0.0710
28628SOL    HW197609  13.263  10.616   4.036  0.0955  1.3631 -0.9973
28628SOL    HW297610  13.274  10.497   3.943  0.8874 -0.1270  0.9416
28629SOL     OW97611   2.262  11.582   4.600 -0.4352  0.0061  0.2528
28629SOL    HW197612   2.247  11.581   4.695  0.7123 -0.2242  0.4483
28629SOL    HW297613   2.290  11.492   4.579  1.9661  0.6951  0.1887
28630SOL     OW97614   8.994   3.386   0.960 -0.1673 -0.3488  0.0887
28630SOL    HW197615   9.081   3.346   0.958  0.6847  1.4597 -0.7231
28630SOL    HW297616   8.945   3.339   0.892  0.5467 -0.5832 -0.2741
28631SOL     OW97617  12.265  12.637   9.412 -0.1253 -0.2357  0.3320
28631SOL    HW197618  12.308  12.563   9.368  1.7917  0.8486  0.2679
28631SOL    HW297619  12.309  12.714   9.377 -0.6014  0.8245  1.9746
28632SOL     OW97620  11.891   7.240  11.820 -0.2536  0.0631 -0.2518
28632SOL    HW197621  11.953   7.311  11.837  1.3790 -1.0974 -1.0372
28632SOL    HW297622  11.937   7.183  11.758 -1.4915 -1.6975  0.3703
28633SOL     OW97623   3.753   2.175   8.615 -0.2517  0.0010  0.0618
28633SOL    HW197624   3.746   2.193   8.708 -0.2490 -0.3929  0.1389
28633SOL    HW297625   3.820   2.107   8.609 -0.0021  0.2740 -0.2556
28634SOL     OW97626  11.059   7.900   0.164  0.2644  0.3097 -0.7721
28634SOL    HW197627  11.005   7.977   0.183  0.8725  0.7672 -0.8424
28634SOL    HW297628  11.085   7.912   0.073 -0.3766 -0.4517 -1.0607
28635SOL     OW97629   7.623   1.553  10.736 -0.4436  0.2941 -0.1318
28635SOL    HW197630   7.569   1.528  10.661  1.2072 -0.0353 -1.2758
28635SOL    HW297631   7.712   1.529  10.709  0.3753  1.5631  1.3433
28636SOL     OW97632  10.145   2.121   7.689 -0.3906 -0.1255 -0.5200
28636SOL    HW197633  10.148   2.030   7.719  0.5346 -0.4022 -1.4028
28636SOL    HW297634  10.091   2.166   7.754  0.1083 -1.0568  0.5626
28637SOL     OW97635   6.170   7.820  11.396  0.3377  0.0612 -0.3104
28637SOL    HW197636   6.093   7.873  11.414  0.9429  0.8252  0.1035
28637SOL    HW297637   6.203   7.853  11.312  0.8839  0.5740  0.0900
28638SOL     OW97638   5.826   2.744   1.625  0.1508  0.4995 -0.0040
28638SOL    HW197639   5.887   2.731   1.552  0.2012 -1.3584  0.3237
28638SOL    HW297640   5.879   2.782   1.695  0.4214  0.9430 -0.4413
28639SOL     OW97641   0.615   0.542   8.213 -0.2438  0.5180 -0.3726
28639SOL    HW197642   0.570   0.548   8.298  1.5242 -0.7170  0.7061
28639SOL    HW297643   0.693   0.491   8.231  1.5353  2.4047 -2.2152
28640SOL     OW97644   0.543   4.111  11.013 -0.1234  0.0098  0.2703
28640SOL    HW197645   0.604   4.182  10.993  1.4105 -0.8654  1.5962
28640SOL    HW297646   0.536   4.111  11.109 -1.5606 -0.4740  0.1955
28641SOL     OW97647   4.817   8.457  10.474  0.6076  0.3352  0.7274
28641SOL    HW197648   4.744   8.453  10.412  0.2079  1.0597  1.1333
28641SOL    HW297649   4.891   8.419  10.426  0.0331 -0.1689  0.2179
28642SOL     OW97650   8.955   7.155   2.098  0.4109 -0.3106  0.1440
28642SOL    HW197651   9.031   7.195   2.138 -0.4164  0.3878  1.0582
28642SOL    HW297652   8.952   7.066   2.135 -0.0769  0.1700  1.2980
28643SOL     OW97653   3.495   2.510  12.399  0.7984 -0.2317 -0.4829
28643SOL    HW197654   3.499   2.436  12.338  1.0318 -0.8295  0.2315
28643SOL    HW297655   3.403   2.517  12.421  0.7950 -0.4271 -0.4269
28644SOL     OW97656  11.103   6.479   7.253 -0.0248 -0.0964 -0.2459
28644SOL    HW197657  11.039   6.449   7.188  0.2488 -1.2939  0.0185
28644SOL    HW297658  11.110   6.573   7.238  0.6064 -0.4521 -2.4674
28645SOL     OW97659   5.850  12.646   7.746 -0.2776 -0.4039  0.1997
28645SOL    HW197660   5.770  12.607   7.781 -0.9412  0.2700 -0.5374
28645SOL    HW297661   5.840  12.640   7.651 -1.8919  4.2274 -0.1900
28646SOL     OW97662  12.355   7.739  11.068 -0.1080  0.1891  0.4117
28646SOL    HW197663  12.411   7.671  11.029  0.3302  0.5652  0.3776
28646SOL    HW297664  12.292   7.690  11.120 -0.0007 -0.2655  0.1284
28647SOL     OW97665   9.268   9.373  13.658 -0.4857  0.2230 -0.6162
28647SOL    HW197666   9.236   9.387  13.569  0.0846  1.9275 -0.5902
28647SOL    HW297667   9.359   9.401  13.656 -1.1168  2.7203  1.0274
28648SOL     OW97668  10.786   7.266   8.003  0.2956 -0.3919  0.0694
28648SOL    HW197669  10.774   7.173   8.020  0.3359 -0.5027 -0.5009
28648SOL    HW297670  10.874   7.285   8.035  0.1847 -0.4876  0.4368
28649SOL     OW97671   8.165   5.058   8.394  0.2032  1.0046  0.0826
28649SOL    HW197672   8.189   5.024   8.480  0.2096  1.1192  0.1270
28649SOL    HW297673   8.114   5.137   8.413  0.0033  0.8994 -0.0128
28650SOL     OW97674  11.735   0.254   4.726 -0.3439  0.0852  0.2998
28650SOL    HW197675  11.648   0.270   4.689 -0.2019 -0.3562 -0.2270
28650SOL    HW297676  11.794   0.254   4.651  0.0386 -0.1641  0.5972
28651SOL     OW97677   5.975   5.356  11.366 -0.2084  0.3651  0.3570
28651SOL    HW197678   5.937   5.278  11.326 -1.4014  0.2776  1.6202
28651SOL    HW297679   5.959   5.347  11.459 -0.2029  2.0329  0.5576
28652SOL     OW97680  11.350   8.396  12.812 -0.1348  0.0568 -0.2404
28652SOL    HW197681  11.405   8.325  12.777 -1.6013 -0.7846 -0.9198
28652SOL    HW297682  11.313   8.360  12.893  0.8352  0.8895  0.6096
28653SOL     OW97683   4.555   9.477   3.768  0.4087 -0.8611 -0.3902
28653SOL    HW197684   4.578   9.553   3.715  0.1814  0.1841  0.9319
28653SOL    HW297685   4.575   9.402   3.713 -0.4202  0.1524 -2.1747
28654SOL     OW97686  12.203   1.149   7.106 -0.3922  0.0667 -0.3268
28654SOL    HW197687  12.169   1.194   7.183  0.2120 -1.5689  0.9740
28654SOL    HW297688  12.279   1.200   7.079 -0.6571  0.6953  0.1007
28655SOL     OW97689  11.781   1.295   4.507 -0.1348  0.2158 -0.1818
28655SOL    HW197690  11.686   1.279   4.510 -0.1831  0.5577  0.2565
28655SOL    HW297691  11.793   1.353   4.432 -0.4778  1.4190  0.6540
28656SOL     OW97692   3.556   2.642   6.425  0.4011  0.5036 -0.0765
28656SOL    HW197693   3.587   2.731   6.408 -1.4721  1.0138 -1.0648
28656SOL    HW297694   3.543   2.638   6.519 -1.3591  1.9800 -0.2045
28657SOL     OW97695   6.153   6.196   6.388  0.4631 -0.0801 -0.1914
28657SOL    HW197696   6.243   6.225   6.376  0.0954  0.9315 -0.6156
28657SOL    HW297697   6.147   6.115   6.336  0.7165  0.6915 -1.4841
28658SOL     OW97698  13.731   1.214  12.340  0.9457  0.1001  0.3369
28658SOL    HW197699  13.724   1.243  12.431  1.9583 -0.0576  0.4700
28658SOL    HW297700  13.700   1.288  12.288 -2.2752 -0.7157  0.8679
28659SOL     OW97701   3.530   9.301  12.365  0.5068 -0.0141  0.2020
28659SOL    HW197702   3.558   9.379  12.317  0.6872 -0.2173 -0.0248
28659SOL    HW297703   3.458   9.331  12.419  0.9203  0.4345  0.5152
28660SOL     OW97704   5.148  13.319  12.322  0.1660 -1.0007  0.5401
28660SOL    HW197705   5.180  13.234  12.292  1.9946  0.5467 -2.4915
28660SOL    HW297706   5.104  13.357  12.245 -0.8389  0.7012  1.8639
28661SOL     OW97707   3.106   1.269  11.868  0.0972 -0.1310  0.0079
28661SOL    HW197708   3.161   1.335  11.827  1.1432 -2.4140 -2.5872
28661SOL    HW297709   3.027   1.267  11.814  0.3240 -1.3592 -0.2975
28662SOL     OW97710   7.962  11.935  12.353 -0.2144 -0.0131  0.2003
28662SOL    HW197711   8.035  11.873  12.351 -1.5432 -1.8944  3.2340
28662SOL    HW297712   7.995  12.008  12.405 -0.3266 -0.7751  1.4056
28663SOL     OW97713   5.174  10.484   3.528  0.0980 -0.3963  0.3410
28663SOL    HW197714   5.228  10.536   3.587  0.0861 -0.7653  0.6765
28663SOL    HW297715   5.086  10.489   3.566  0.1823 -1.0289  0.6151
28664SOL     OW97716  10.781   3.484   7.143 -0.4061  0.1778 -0.2790
28664SOL    HW197717  10.841   3.499   7.216 -0.0068  2.3118 -0.9709
28664SOL    HW297718  10.744   3.397   7.159  1.0587 -0.1738  1.4462
28665SOL     OW97719   7.714   6.397  11.355  0.2956 -0.3792  0.0921
28665SOL    HW197720   7.726   6.313  11.400  1.0048 -0.0948  0.4636
28665SOL    HW297721   7.755   6.461  11.414 -1.0195  0.3606  0.2446
28666SOL     OW97722   1.811  13.065   6.897  0.4565 -0.3273 -0.1565
28666SOL    HW197723   1.877  13.043   6.831  1.2740  0.7012  0.2982
28666SOL    HW297724   1.814  13.160   6.904 -2.4682 -0.0342 -1.5161
28667SOL     OW97725  13.031   3.705   5.189  0.3839 -0.2727  0.2170
28667SOL    HW197726  12.990   3.620   5.199  1.1817 -0.7930 -0.7481
28667SOL    HW297727  12.959   3.765   5.168  0.1211 -1.2637 -1.9799
28668SOL     OW97728   6.959   8.087   8.751  0.1373  0.0044 -0.4529
28668SOL    HW197729   6.922   8.008   8.712 -0.7728  0.4677 -0.5546
28668SOL    HW297730   6.926   8.087   8.841  1.2981 -0.4650 -0.0094
28669SOL     OW97731   9.389   0.946   0.612 -0.6609  0.0931  0.6853
28669SOL    HW197732   9.474   0.971   0.647 -1.3242  1.9844  1.0480
28669SOL    HW297733   9.346   0.900   0.684 -0.8119  1.1725  1.2978
28670SOL     OW97734   9.194  11.044   9.174 -0.8427 -0.4412 -0.1389
28670SOL    HW197735   9.241  11.012   9.250 -0.0116  1.1350  0.0589
28670SOL    HW297736   9.259  11.045   9.104 -0.5701  1.4659  0.0617
28671SOL     OW97737   3.400   1.242  10.998 -0.3574  0.0551  0.1503
28671SOL    HW197738   3.309   1.216  11.003 -0.2623 -0.2601  0.2803
28671SOL    HW297739   3.441   1.200  11.074 -0.0114 -0.1820 -0.1627
28672SOL     OW97740   7.185  13.548   5.887 -0.0034  0.1808  0.4627
28672SOL    HW197741   7.233  13.484   5.940 -1.0039 -0.2776  0.8469
28672SOL    HW297742   7.161  13.501   5.808  2.4382  1.1787 -0.9788
28673SOL     OW97743   9.105   6.418   3.368 -0.5098  0.1165 -0.0638
28673SOL    HW197744   9.149   6.503   3.367  0.7196 -0.4901  0.5468
28673SOL    HW297745   9.021   6.434   3.325  0.1116  1.4144 -0.8477
28674SOL     OW97746  10.413   0.428   5.666  0.2226  0.3568  0.3961
28674SOL    HW197747  10.506   0.407   5.660  0.3032  1.1243 -1.9126
28674SOL    HW297748  10.369   0.354   5.624 -0.2307  0.0276  1.4167
28675SOL     OW97749  12.253  13.274  10.407 -0.2417  0.4389  0.4062
28675SOL    HW197750  12.267  13.257  10.500  1.9574 -1.5304 -0.1812
28675SOL    HW297751  12.188  13.209  10.380 -0.1094  0.3218  0.3705
28676SOL     OW97752   5.662  13.423  12.597  0.2016 -0.4744  0.0714
28676SOL    HW197753   5.591  13.465  12.645 -0.1118  0.6118 -1.3036
28676SOL    HW297754   5.741  13.453  12.642 -0.1456 -2.0938  1.9303
28677SOL     OW97755   8.222   5.762   7.491 -0.4028 -0.0707  0.6688
28677SOL    HW197756   8.209   5.714   7.409 -0.4475  1.1348 -0.0538
28677SOL    HW297757   8.230   5.853   7.464  1.4177  0.1670  1.8516
28678SOL     OW97758  13.731   1.793  12.476  0.0952 -0.4220 -0.3431
28678SOL    HW197759  13.639   1.813  12.494  0.4953  1.5879 -0.3002
28678SOL    HW297760  13.729   1.745  12.394 -0.9490  0.4505 -0.8590
28679SOL     OW97761   2.582   9.834   2.636 -0.0173  0.5059 -0.0513
28679SOL    HW197762   2.553   9.801   2.551 -2.0904  0.9301  0.4299
28679SOL    HW297763   2.623   9.758   2.678  0.3923  0.1077 -1.1354
28680SOL     OW97764  10.660   6.887   4.171  0.1765 -0.0658  0.0443
28680SOL    HW197765  10.671   6.815   4.233  2.0262 -0.1681 -0.3358
28680SOL    HW297766  10.690   6.851   4.088  2.1740  1.4023  0.0555
28681SOL     OW97767   7.615   2.207   4.817  0.1286  0.5537 -0.3115
28681SOL    HW197768   7.629   2.260   4.739  1.4424 -0.1853 -0.6243
28681SOL    HW297769   7.547   2.253   4.866 -0.3442  1.3125 -1.6280
28682SOL     OW97770  12.604   2.805   7.479 -0.6597 -0.1059  0.5156
28682SOL    HW197771  12.536   2.814   7.411  0.9975 -0.3487 -1.2721
28682SOL    HW297772  12.614   2.710   7.489 -0.5388 -0.0714  0.7097
28683SOL     OW97773   3.129   0.512  11.717 -0.3737  0.4909 -0.5311
28683SOL    HW197774   3.200   0.448  11.711 -1.8381 -1.3189  0.3795
28683SOL    HW297775   3.171   0.592  11.751  0.9624 -1.0178  1.5997
28684SOL     OW97776  12.976  11.272   2.857  0.3194  0.5830  0.5350
28684SOL    HW197777  12.985  11.186   2.898  1.9889 -0.6529 -2.1230
28684SOL    HW297778  13.064  11.310   2.861 -0.5192  2.5477  2.2305
28685SOL     OW97779   6.847   8.576   5.178  0.2298  0.1454  0.3872
28685SOL    HW197780   6.810   8.644   5.235 -2.1999  1.4199 -2.4178
28685SOL    HW297781   6.771   8.523   5.153  1.0056  0.1766 -2.2701
28686SOL     OW97782   3.039   6.583   9.454  0.2380  0.4718  0.3423
28686SOL    HW197783   3.051   6.519   9.385 -0.8731 -1.1435  1.5659
28686SOL    HW297784   2.976   6.646   9.418 -0.3515 -0.3701 -0.1260
28687SOL     OW97785  10.287   8.930  12.472 -0.5222  0.0602 -0.1050
28687SOL    HW197786  10.357   8.978  12.517  1.1333 -2.1932 -0.0774
28687SOL    HW297787  10.294   8.959  12.381  0.5514 -0.1941 -0.1232
28688SOL     OW97788   5.538   5.691   7.884 -0.0695 -0.3547  0.3029
28688SOL    HW197789   5.455   5.718   7.846  0.3755 -1.6790 -1.8216
28688SOL    HW297790   5.535   5.722   7.974 -1.5112  2.4466 -0.5699
28689SOL     OW97791   3.586   9.027   7.400 -0.1246  0.6642  0.4238
28689SOL    HW197792   3.645   9.090   7.359 -0.8559  1.8935  1.2090
28689SOL    HW297793   3.518   9.080   7.440  0.0846 -0.5349  2.5004
28690SOL     OW97794   7.618   9.123   0.419  0.2181 -0.1983 -0.2328
28690SOL    HW197795   7.589   9.113   0.329 -0.0712 -1.0405 -0.0557
28690SOL    HW297796   7.594   9.040   0.461 -1.2921  0.8456  1.0596
28691SOL     OW97797  10.254   3.225   8.532 -0.1410  0.1279  0.3508
28691SOL    HW197798  10.171   3.216   8.579 -0.6361  0.1550 -0.4842
28691SOL    HW297799  10.316   3.172   8.581 -0.0796  1.8337  2.2597
28692SOL     OW97800   6.394   2.876  10.943 -0.2336  0.8563 -0.1028
28692SOL    HW197801   6.402   2.851  10.851  0.8431  1.0501 -0.0786
28692SOL    HW297802   6.484   2.874  10.976 -0.7050 -0.2891  1.2433
28693SOL     OW97803   0.452   1.936   3.592  0.4582 -0.1715 -0.3724
28693SOL    HW197804   0.462   2.027   3.565  2.0359 -0.0461  0.4910
28693SOL    HW297805   0.531   1.918   3.644  0.0901 -1.9765 -0.3849
28694SOL     OW97806   4.131  11.186   4.463  0.5476  0.1508 -0.1961
28694SOL    HW197807   4.164  11.274   4.446 -0.0844  0.4016 -0.1800
28694SOL    HW297808   4.060  11.199   4.526 -0.4326 -0.2230 -1.1929
28695SOL     OW97809   8.971   2.321   1.465 -0.6989  0.0923 -0.6333
28695SOL    HW197810   9.030   2.334   1.539 -1.4159 -0.5485  0.0569
28695SOL    HW297811   9.015   2.366   1.392 -1.5402  3.7708  0.8844
28696SOL     OW97812   5.179  13.271   0.656 -0.3007  0.0231  0.1495
28696SOL    HW197813   5.247  13.205   0.640 -1.0634 -0.1707 -2.6859
28696SOL    HW297814   5.223  13.355   0.643 -0.1170 -0.0126  0.5077
28697SOL     OW97815  11.857   5.563   9.958 -0.2801 -0.3985 -0.0636
28697SOL    HW197816  11.877   5.650   9.925 -2.1855 -0.4733 -1.6531
28697SOL    HW297817  11.872   5.505   9.883 -2.7973 -0.8467 -0.3413
28698SOL     OW97818   5.370   1.921   8.841 -0.0437 -0.8150  0.4227
28698SOL    HW197819   5.465   1.915   8.844  0.0025 -0.2257  0.1773
28698SOL    HW297820   5.348   1.912   8.748 -0.2093 -0.7000  0.4500
28699SOL     OW97821  13.378   3.988   8.120 -0.3020  0.0734 -0.6168
28699SOL    HW197822  13.334   4.069   8.146 -1.1975 -0.5126 -0.2990
28699SOL    HW297823  13.457   3.985   8.175 -1.5753 -0.5683  1.2431
28700SOL     OW97824   4.556  11.197   1.884 -0.4424  0.0865  0.6151
28700SOL    HW197825   4.560  11.186   1.789 -0.2627  1.0492  0.5021
28700SOL    HW297826   4.563  11.108   1.919 -0.6998 -0.2931 -0.2758
28701SOL     OW97827  10.743  13.422   7.665 -0.0886  0.2420  0.1646
28701SOL    HW197828  10.727  13.502   7.714 -0.4760  0.4168 -0.2466
28701SOL    HW297829  10.708  13.439   7.578 -0.5178 -0.5048  0.1830
28702SOL     OW97830   9.466   9.897   8.418 -0.0759 -0.1159  0.2432
28702SOL    HW197831   9.491   9.809   8.444  0.8982  0.0538 -0.0906
28702SOL    HW297832   9.380   9.886   8.377 -0.4070 -0.7599  1.0653
28703SOL     OW97833   8.721   7.297   2.029 -0.1901 -0.2706 -0.5207
28703SOL    HW197834   8.660   7.230   2.062  1.7469 -1.6745  0.4379
28703SOL    HW297835   8.802   7.249   2.013  1.4536  1.9238  0.6770
28704SOL     OW97836   6.814  11.554  12.218  0.2736 -0.7218  0.1278
28704SOL    HW197837   6.818  11.552  12.123 -0.6116  0.5599  0.0317
28704SOL    HW297838   6.730  11.596  12.238  0.1327 -1.5742  1.4857
28705SOL     OW97839  11.057   4.226   1.695 -0.0543  0.2004 -0.3287
28705SOL    HW197840  11.039   4.142   1.735 -0.9721 -0.3515 -1.8251
28705SOL    HW297841  11.126   4.208   1.631 -0.0377  0.6549 -0.4433
28706SOL     OW97842   6.638   6.741   2.458 -0.1619  0.3490 -0.1955
28706SOL    HW197843   6.550   6.713   2.432 -0.3433  0.6050  0.1366
28706SOL    HW297844   6.695   6.708   2.389 -0.4405 -0.3691 -0.0891
28707SOL     OW97845   2.411  10.547   0.645 -0.2912 -0.5979 -0.5228
28707SOL    HW197846   2.505  10.558   0.655 -0.4650  0.7947 -0.2287
28707SOL    HW297847   2.401  10.494   0.566  0.6963  0.9174 -1.7054
28708SOL     OW97848   2.556  10.597  11.372 -0.7628 -0.2835 -0.2534
28708SOL    HW197849   2.585  10.508  11.353 -1.0559 -0.8284  1.6721
28708SOL    HW297850   2.476  10.607  11.320 -1.2539 -1.5015  0.2276
28709SOL     OW97851  13.532   8.779   7.430 -0.2559  1.0389 -0.1204
28709SOL    HW197852  13.475   8.856   7.423  0.5979  1.9056  1.7378
28709SOL    HW297853  13.507   8.738   7.513 -0.3927 -0.4729 -0.8746
28710SOL     OW97854  10.771   8.954   2.671  0.0021  0.2659 -0.1522
28710SOL    HW197855  10.851   8.986   2.630 -0.3145 -0.1055 -1.0962
28710SOL    HW297856  10.719   9.033   2.686  0.6290  0.5294  0.6762
28711SOL     OW97857   8.482   9.836   1.093 -0.1001 -0.2113 -0.1711
28711SOL    HW197858   8.500   9.930   1.081 -1.0422 -0.1438 -1.2760
28711SOL    HW297859   8.487   9.822   1.187  0.6027  0.8361 -0.0399
28712SOL     OW97860   0.827   5.267  13.485  0.0304 -0.0673 -0.1905
28712SOL    HW197861   0.778   5.263  13.403 -1.5051 -0.0470  0.6933
28712SOL    HW297862   0.902   5.209  13.471 -2.0051 -2.8455 -0.4634
28713SOL     OW97863  13.210   2.081   6.826 -0.6173 -0.0684  0.0898
28713SOL    HW197864  13.300   2.058   6.849 -0.1763  1.0120 -0.4802
28713SOL    HW297865  13.170   1.997   6.802  0.3093 -0.5291  0.0893
28714SOL     OW97866  12.416   9.915   5.347  0.0554  0.3435 -0.1245
28714SOL    HW197867  12.339   9.969   5.360 -1.0406 -1.5359  1.9690
28714SOL    HW297868  12.441   9.887   5.435  0.0712 -3.1091 -1.0750
28715SOL     OW97869   9.747  13.242   4.785 -0.3908 -0.2673 -0.1460
28715SOL    HW197870   9.833  13.200   4.784  1.6857  3.5335  1.1450
28715SOL    HW297871   9.759  13.323   4.736 -2.6993  1.2910  1.6869
28716SOL     OW97872   3.704   6.193   2.356 -0.3224  0.3061  0.2593
28716SOL    HW197873   3.713   6.106   2.395 -0.0867  0.4725  0.5788
28716SOL    HW297874   3.629   6.232   2.402 -0.1606  0.4328  0.4144
28717SOL     OW97875   7.790   2.722   3.829  0.4088  0.1474 -0.2816
28717SOL    HW197876   7.857   2.768   3.878  1.4676 -0.1671 -1.3953
28717SOL    HW297877   7.731   2.687   3.895  1.5666  0.0790  0.7386
28718SOL     OW97878   9.150   9.817  12.162  0.2145  0.0153 -0.6289
28718SOL    HW197879   9.095   9.887  12.197  1.2692  0.4346  0.2429
28718SOL    HW297880   9.095   9.739  12.167 -0.6834  0.6191 -0.8292
28719SOL     OW97881  12.351   3.396   9.733 -0.8248 -0.7140  0.3200
28719SOL    HW197882  12.360   3.439   9.819  0.1146 -0.6962  0.2310
28719SOL    HW297883  12.352   3.468   9.671  0.2565 -0.8126  0.2000
28720SOL     OW97884  12.587   6.480  10.031  0.0699  0.4708  0.2275
28720SOL    HW197885  12.582   6.564   9.986 -0.3342  0.8985  1.0332
28720SOL    HW297886  12.496   6.462  10.058  0.0848 -0.4078 -0.2441
28721SOL     OW97887   5.477   8.620  12.641  0.2415  0.1877 -0.0615
28721SOL    HW197888   5.411   8.565  12.600  0.7198 -0.5232  0.0892
28721SOL    HW297889   5.488   8.694  12.581 -2.5181  1.6998  1.1266
28722SOL     OW97890   5.926  10.927   7.411  0.0149 -0.9452 -0.3219
28722SOL    HW197891   6.000  10.987   7.397 -1.0639  0.8693  1.2395
28722SOL    HW297892   5.890  10.953   7.495 -1.3170 -3.0014 -0.1994
28723SOL     OW97893  11.496   7.978  12.449 -0.1127 -0.1950 -0.3101
28723SOL    HW197894  11.538   8.017  12.372 -0.9287  1.2076 -0.0698
28723SOL    HW297895  11.405   8.008  12.444  0.0599  0.8326  1.7729
28724SOL     OW97896   9.796  12.538  11.292  0.0056 -0.1401  0.1700
28724SOL    HW197897   9.775  12.616  11.344  1.5533  0.4114  0.0277
28724SOL    HW297898   9.814  12.470  11.356  2.0189  0.5646  0.4222
28725SOL     OW97899   0.763  12.032   6.939 -0.2184 -0.2113  0.0658
28725SOL    HW197900   0.853  12.045   6.968  0.6364 -0.2678 -2.3524
28725SOL    HW297901   0.747  12.105   6.879 -1.0148 -1.3571 -1.1735
28726SOL     OW97902   6.982   1.399   0.848  0.3615  0.0430 -0.0011
28726SOL    HW197903   7.048   1.453   0.804  1.4994  0.5416  2.1450
28726SOL    HW297904   6.955   1.335   0.783  1.4164  1.1567 -1.6018
28727SOL     OW97905   7.827   4.534  11.428  0.2083  0.2481 -0.2345
28727SOL    HW197906   7.758   4.572  11.483 -0.1925 -2.3807  1.2451
28727SOL    HW297907   7.787   4.531  11.340  0.2509  2.9791 -0.4546
28728SOL     OW97908   1.095   2.970   2.847 -0.1356  0.1617  0.0850
28728SOL    HW197909   1.119   3.061   2.862 -0.9855  0.2098  1.2111
28728SOL    HW297910   1.004   2.973   2.818  0.5205 -0.1788 -2.2170
28729SOL     OW97911   7.502   6.384   0.227 -0.2264  0.2059 -0.2766
28729SOL    HW197912   7.410   6.367   0.211 -0.3309 -0.3433  0.8535
28729SOL    HW297913   7.518   6.469   0.185 -1.0304 -0.0768 -1.1912
28730SOL     OW97914   3.215   6.737   2.803  0.1228 -0.7975 -0.4500
28730SOL    HW197915   3.216   6.675   2.876  1.6135  0.5233  0.7390
28730SOL    HW297916   3.125   6.769   2.799 -0.0258 -1.0208  0.7212
28731SOL     OW97917  12.994   4.049   3.609 -0.5775  0.5261 -0.2553
28731SOL    HW197918  12.932   4.117   3.637  2.1990  2.5221  1.4785
28731SOL    HW297919  13.037   4.087   3.533  1.5349  1.1664  1.1803
28732SOL     OW97920   6.776   2.483   8.311 -0.4181  0.0269 -0.0197
28732SOL    HW197921   6.699   2.433   8.339 -1.1703  0.9508 -0.3791
28732SOL    HW297922   6.848   2.420   8.313 -1.6228 -1.5273 -2.0607
28733SOL     OW97923  11.886   2.319   6.917  0.9315  0.2857 -0.5016
28733SOL    HW197924  11.908   2.226   6.918  0.1166  0.0860  0.0563
28733SOL    HW297925  11.875   2.343   7.009 -1.5865  0.2219 -0.7149
28734SOL     OW97926   6.310   8.884  12.074  0.1157  0.1206  0.6981
28734SOL    HW197927   6.252   8.810  12.057  3.0245 -2.6482  1.8212
28734SOL    HW297928   6.290   8.909  12.165 -1.1785  1.1315  0.1772
28735SOL     OW97929  11.249   0.279   8.182  0.0763  0.3765  0.1027
28735SOL    HW197930  11.312   0.338   8.223 -0.6706  1.3334 -0.0814
28735SOL    HW297931  11.295   0.243   8.106  0.2912  1.3361 -0.2337
28736SOL     OW97932   7.924   5.519   1.520 -0.4200 -0.0671 -0.4538
28736SOL    HW197933   8.004   5.505   1.471  0.3819  1.8313  0.2009
28736SOL    HW297934   7.893   5.606   1.491 -0.3523  0.7535  1.7269
28737SOL     OW97935  12.111   4.070   5.645 -0.0226  0.5575 -0.1486
28737SOL    HW197936  12.091   4.051   5.736 -0.3657  0.0984 -0.3120
28737SOL    HW297937  12.025   4.084   5.604  0.0643 -0.1159 -0.5831
28738SOL     OW97938   7.334  10.053   2.007  0.1884  0.6273 -0.0105
28738SOL    HW197939   7.243  10.082   2.005  0.6165  2.0329 -1.6500
28738SOL    HW297940   7.376  10.114   2.068  0.3921  1.2746 -0.7741
28739SOL     OW97941  12.873   3.522   1.073  0.0922  0.6179  0.0351
28739SOL    HW197942  12.892   3.471   0.994  1.8656 -0.0240  0.8315
28739SOL    HW297943  12.871   3.456   1.143  0.7006  1.4372  0.8368
28740SOL     OW97944   2.983   5.631   8.844 -0.3138 -0.6517  0.4607
28740SOL    HW197945   2.934   5.707   8.877  1.5490  0.8083  0.0297
28740SOL    HW297946   3.054   5.619   8.906  0.2334 -1.1324 -0.2439
28741SOL     OW97947   1.227   6.449  12.918 -0.7717 -0.1027 -0.6768
28741SOL    HW197948   1.299   6.494  12.963 -1.0481  0.3411 -0.6817
28741SOL    HW297949   1.187   6.516  12.863  0.2844 -0.8945 -2.5156
28742SOL     OW97950  12.503   7.602  10.152  0.0489 -0.9114  0.1765
28742SOL    HW197951  12.526   7.537  10.218 -0.3978  0.1727  1.4318
28742SOL    HW297952  12.586   7.637  10.121  0.2336 -0.5211  1.1001
28743SOL     OW97953   7.965   8.487   0.292 -0.0853 -0.5189  0.2577
28743SOL    HW197954   8.021   8.446   0.358  0.1446 -0.3679  0.1591
28743SOL    HW297955   7.982   8.581   0.301  3.1674 -0.6060 -2.7536
28744SOL     OW97956   3.317  11.668   4.094  0.1236  0.2640  0.0189
28744SOL    HW197957   3.404  11.660   4.133  0.0705 -2.6675 -0.1898
28744SOL    HW297958   3.271  11.729   4.151  1.8954  0.8016  0.9461
28745SOL     OW97959   1.780   6.517   1.814  0.3257 -0.0004 -0.0937
28745SOL    HW197960   1.846   6.509   1.883 -0.7941 -1.3008  0.8773
28745SOL    HW297961   1.758   6.610   1.813  1.4620  0.2882  0.2208
28746SOL     OW97962  11.417  12.457  13.174 -0.3134  0.2335 -0.4333
28746SOL    HW197963  11.486  12.523  13.176 -1.1925  1.2112 -0.8623
28746SOL    HW297964  11.409  12.434  13.081  0.8207 -1.4288 -0.1575
28747SOL     OW97965   5.691   7.804   5.265 -0.2188  0.2105  0.0801
28747SOL    HW197966   5.787   7.800   5.262 -0.1032  0.4652  2.2530
28747SOL    HW297967   5.663   7.767   5.181  1.7968  1.6778 -1.3067
28748SOL     OW97968  12.855   3.840   9.160  0.4758  0.5553  0.3265
28748SOL    HW197969  12.861   3.824   9.065  1.8980  1.2238  0.2827
28748SOL    HW297970  12.924   3.786   9.198 -0.5985 -0.3409  1.1085
28749SOL     OW97971   5.462   0.444   3.704 -0.2319  0.1109  0.0184
28749SOL    HW197972   5.551   0.417   3.684 -0.9497 -0.2680 -3.1360
28749SOL    HW297973   5.416   0.363   3.724 -0.3578  0.0452 -0.5316
28750SOL     OW97974  10.313   6.097  12.304 -0.4222 -1.1795 -0.4854
28750SOL    HW197975  10.322   6.033  12.375  0.3860 -0.7688 -0.2095
28750SOL    HW297976  10.369   6.063  12.234 -0.3552 -1.0062 -0.5156
28751SOL     OW97977   1.639   5.105  12.630 -0.6155 -0.1008  0.0642
28751SOL    HW197978   1.571   5.125  12.694 -0.6909 -0.6755  0.1717
28751SOL    HW297979   1.620   5.015  12.602 -0.0943 -0.1509 -0.1452
28752SOL     OW97980   6.953   1.456   3.527 -0.0858  0.2470  0.9688
28752SOL    HW197981   6.910   1.499   3.453  0.3655 -1.1588 -0.1708
28752SOL    HW297982   7.039   1.496   3.532  0.7253 -1.1598 -0.7582
28753SOL     OW97983   4.825   0.916   7.348 -0.8006 -0.6307  0.2153
28753SOL    HW197984   4.858   0.871   7.269 -0.9317 -2.1672  0.9919
28753SOL    HW297985   4.885   0.990   7.360 -0.7056 -0.4384 -1.2517
28754SOL     OW97986   5.561  10.319  11.355 -0.2682  0.5340  0.2769
28754SOL    HW197987   5.609  10.269  11.289 -1.0576  0.3587 -0.1743
28754SOL    HW297988   5.619  10.393  11.376 -0.1453  0.7689 -0.8526
28755SOL     OW97989   4.976   7.406  10.396 -0.0876  0.1214  0.1368
28755SOL    HW197990   4.893   7.397  10.350 -0.4922  0.0517  0.8619
28755SOL    HW297991   5.031   7.337  10.359 -0.4939 -0.1081 -0.0490
28756SOL     OW97992   0.281   6.654   0.396  0.3021 -0.1530 -0.1950
28756SOL    HW197993   0.325   6.712   0.335 -0.0745  1.2324  0.7838
28756SOL    HW297994   0.188   6.675   0.386  0.1812 -0.4138  0.3470
28757SOL     OW97995  13.020   6.625  10.480  0.2281  0.2049  0.5740
28757SOL    HW197996  13.107   6.589  10.465  0.1638 -0.0903  0.9110
28757SOL    HW297997  12.985   6.641  10.392  1.0829  1.4377  0.4337
28758SOL     OW97998   5.174   8.410   9.808  0.7700 -0.6779 -0.0320
28758SOL    HW197999   5.189   8.421   9.714  0.9325  2.8061  0.2593
28758SOL    HW298000   5.237   8.470   9.849  1.6076 -3.0429  2.4424
28759SOL     OW98001   4.219   8.426   5.631 -0.0818 -0.5960  0.0354
28759SOL    HW198002   4.140   8.461   5.590 -0.4468 -1.2533  0.1691
28759SOL    HW298003   4.188   8.384   5.711  0.4312 -0.6668  0.1998
28760SOL     OW98004   7.582   7.650   0.493  0.3384  0.1956 -0.4944
28760SOL    HW198005   7.506   7.696   0.458 -0.4123 -0.5750  0.0759
28760SOL    HW298006   7.635   7.631   0.416 -0.5397 -0.1326 -1.0441
28761SOL     OW98007   8.100   8.893   7.797  0.4152  0.3277 -0.2720
28761SOL    HW198008   8.064   8.968   7.749  0.8691 -0.0359 -1.1995
28761SOL    HW298009   8.182   8.925   7.833  0.9787  0.0777 -1.2947
28762SOL     OW98010   5.902   9.960  11.803  0.2212 -0.6293 -0.3268
28762SOL    HW198011   5.900   9.975  11.898 -1.9047 -1.1739 -0.2470
28762SOL    HW298012   5.990   9.987  11.777  0.7213 -0.0831  1.7316
28763SOL     OW98013  12.600  11.112   5.011 -0.1029  0.2604  0.1161
28763SOL    HW198014  12.668  11.047   5.031 -0.9234 -0.7788 -0.3597
28763SOL    HW298015  12.640  11.168   4.945  0.0666 -0.8037 -0.7213
28764SOL     OW98016   9.420   0.040   1.058  0.3611  0.1660  0.2733
28764SOL    HW198017   9.456   0.030   1.146  1.3472 -0.4158 -0.1809
28764SOL    HW298018   9.327   0.019   1.067  0.1502  1.4533  1.4221
28765SOL     OW98019  12.726   7.871   2.187  0.5108  0.0241  0.6797
28765SOL    HW198020  12.740   7.794   2.131  0.1403 -0.0647  0.7088
28765SOL    HW298021  12.780   7.940   2.147  0.5819 -0.1583  0.4605
28766SOL     OW98022   9.825   6.376   3.588 -0.0248 -0.1664  0.4639
28766SOL    HW198023   9.907   6.425   3.599 -0.7955  0.8474  2.1337
28766SOL    HW298024   9.757   6.443   3.587 -0.9738 -1.0850  1.0681
28767SOL     OW98025   0.862   7.080   7.488 -0.0898  0.0285 -0.0826
28767SOL    HW198026   0.866   6.987   7.466 -1.4680  0.2757 -1.5455
28767SOL    HW298027   0.830   7.082   7.579 -0.7771 -0.9175 -0.2857
28768SOL     OW98028   3.159   0.713   3.025  0.0293 -0.3044 -0.2510
28768SOL    HW198029   3.121   0.727   2.938 -2.0583 -1.0410  0.4614
28768SOL    HW298030   3.165   0.800   3.063  1.5759  0.0936 -1.3386
28769SOL     OW98031  10.312  13.199   4.938 -0.6036  0.6415  0.5837
28769SOL    HW198032  10.389  13.250   4.910 -0.5465  0.8259  1.0766
28769SOL    HW298033  10.261  13.188   4.858 -1.4904  2.9491  0.7691
28770SOL     OW98034  11.604   3.141  12.470 -0.5169 -0.0264 -0.4285
28770SOL    HW198035  11.572   3.148  12.560  0.5905 -0.6547  0.0351
28770SOL    HW298036  11.590   3.228  12.432  1.3407  1.0418  1.1585
28771SOL     OW98037   1.083   2.987  12.174  0.0191  0.2364 -0.2223
28771SOL    HW198038   1.043   2.945  12.250 -0.1542  1.1005  0.1817
28771SOL    HW298039   1.130   3.062  12.211  0.4140  0.3395 -0.9105
28772SOL     OW98040   5.766  11.074  12.580  0.2583 -0.2794  0.4021
28772SOL    HW198041   5.675  11.047  12.566  0.3489 -0.5870  0.4114
28772SOL    HW298042   5.817  10.995  12.564  0.6714  0.3144 -1.3607
28773SOL     OW98043  12.074   1.837  12.161  0.2562 -0.4945 -0.4144
28773SOL    HW198044  12.003   1.791  12.205 -0.0076 -1.7907 -2.1084
28773SOL    HW298045  12.149   1.778  12.168  1.0176  0.5388  0.6979
28774SOL     OW98046   1.976  12.859   8.641 -0.2275 -0.4248 -0.0014
28774SOL    HW198047   1.964  12.911   8.720  0.1394  0.0006 -0.2188
28774SOL    HW298048   2.071  12.854   8.630 -0.2768 -0.3853 -0.4742
28775SOL     OW98049   1.117   1.577   6.112  0.2338 -0.0521  0.7422
28775SOL    HW198050   1.166   1.529   6.045 -0.5661  0.4037 -0.1946
28775SOL    HW298051   1.081   1.509   6.169 -2.2548 -0.7794 -1.4944
28776SOL     OW98052   9.297   6.294   8.188 -0.4524 -0.8650 -0.0706
28776SOL    HW198053   9.276   6.387   8.181 -0.1930 -0.8618 -1.0480
28776SOL    HW298054   9.336   6.284   8.275 -0.1574  0.0036 -0.0942
28777SOL     OW98055   1.854   1.075   3.458 -0.2069 -0.2523 -0.4302
28777SOL    HW198056   1.844   1.036   3.371  3.5392 -0.6731 -0.8147
28777SOL    HW298057   1.860   1.000   3.518 -1.9979  0.0294  0.1870
28778SOL     OW98058   8.261  13.353  12.539  0.2467 -0.6470  0.4986
28778SOL    HW198059   8.225  13.407  12.469  0.0908 -2.2480 -0.7251
28778SOL    HW298060   8.353  13.379  12.544  0.4170 -0.9083 -0.7577
28779SOL     OW98061   6.334   6.211   6.083  0.1902  0.7813  0.0561
28779SOL    HW198062   6.254   6.161   6.069  0.2124  1.2027 -1.8916
28779SOL    HW298063   6.308   6.286   6.136 -0.6085  0.6559 -0.1513
28780SOL     OW98064  10.534   2.509   1.531 -0.6532  0.2487  0.1564
28780SOL    HW198065  10.576   2.443   1.586  0.4778  2.0581  1.5478
28780SOL    HW298066  10.581   2.503   1.447 -1.2924 -1.4004 -0.1233
28781SOL     OW98067   2.502   8.848   1.238  0.5539  0.5609 -0.1677
28781SOL    HW198068   2.508   8.943   1.252  0.2227  0.4289  0.9208
28781SOL    HW298069   2.564   8.831   1.167  1.9783  1.3413  0.8356
28782SOL     OW98070   3.480  11.093  10.077  0.6180 -0.0090 -0.3121
28782SOL    HW198071   3.464  11.004  10.046 -1.5412  0.2887 -0.2576
28782SOL    HW298072   3.515  11.139  10.001  2.9666 -1.1420 -0.0037
28783SOL     OW98073   6.673   7.545   9.829 -0.3884 -0.7652  0.2844
28783SOL    HW198074   6.591   7.586   9.856 -0.7465 -1.6151  0.5127
28783SOL    HW298075   6.647   7.460   9.794  0.2808 -0.5515 -0.7740
28784SOL     OW98076  12.675   8.928   9.844  0.0194 -0.3715 -0.0884
28784SOL    HW198077  12.606   8.994   9.854  1.5524  1.1504  1.0407
28784SOL    HW298078  12.668   8.900   9.753 -1.7378  0.1200 -0.1407
28785SOL     OW98079   7.293   3.961  11.061  0.6805 -0.2480  0.1758
28785SOL    HW198080   7.234   3.954  10.986 -0.5728 -1.1713  1.2087
28785SOL    HW298081   7.374   3.996  11.024  0.6097 -2.0163 -1.8912
28786SOL     OW98082  13.622   1.803   4.687  0.2829  0.4358 -0.0640
28786SOL    HW198083  13.595   1.712   4.682 -0.7521  0.7335 -0.1152
28786SOL    HW298084  13.591   1.843   4.605 -2.1102  1.5316  1.2630
28787SOL     OW98085  11.888  11.451   1.328 -0.1079 -0.0658 -0.0381
28787SOL    HW198086  11.870  11.504   1.405  1.2183  1.7303 -0.8847
28787SOL    HW298087  11.951  11.385   1.358  2.1331  1.9471  0.0761
28788SOL     OW98088   5.971   5.698   9.914  0.0201 -0.1525 -0.1189
28788SOL    HW198089   5.969   5.615   9.961  1.0640 -0.2683 -0.2694
28788SOL    HW298090   6.010   5.676   9.829  2.6899  0.9283  0.7566
28789SOL     OW98091   4.924  12.559   8.498  0.1968  0.5133 -0.1417
28789SOL    HW198092   4.935  12.516   8.583 -0.9275  2.6670  1.1636
28789SOL    HW298093   5.007  12.603   8.482 -0.6468  2.8727  1.5404
28790SOL     OW98094   0.034   5.986   2.739 -0.2445  0.2328 -0.0493
28790SOL    HW198095   0.092   6.048   2.694  0.8611  0.0109  1.0225
28790SOL    HW298096   0.051   5.903   2.695  0.9040 -0.0031  0.7949
28791SOL     OW98097  10.348  11.355  10.386  0.3200  0.0693  0.1306
28791SOL    HW198098  10.423  11.341  10.444 -0.7090  0.5699  1.6441
28791SOL    HW298099  10.382  11.336  10.298  1.7753 -1.2859  0.9333
28792SOL     OW98100  10.262   4.692   9.164 -0.2569  0.5272  0.0680
28792SOL    HW198101  10.338   4.744   9.139 -0.7256  0.9946 -0.4293
28792SOL    HW298102  10.245   4.715   9.256 -0.1525  0.8672  0.0006
28793SOL     OW98103  12.424  11.418   0.528  0.0726 -0.0556 -0.1107
28793SOL    HW198104  12.338  11.412   0.570  1.2537 -0.3361  2.3916
28793SOL    HW298105  12.421  11.351   0.459 -1.5147 -0.4502  0.2966
28794SOL     OW98106   1.422   7.153   4.925 -0.1195  0.0984 -0.2161
28794SOL    HW198107   1.332   7.171   4.953 -0.3294  1.4099 -1.6108
28794SOL    HW298108   1.475   7.219   4.970 -0.5310  2.6115 -3.1217
28795SOL     OW98109   9.426   6.286  11.803  0.1694  0.2622  0.6127
28795SOL    HW198110   9.494   6.348  11.829  0.2464  0.0286  0.9838
28795SOL    HW298111   9.464   6.200  11.821  0.4316  0.0574 -0.7764
28796SOL     OW98112  13.348  11.343   0.258 -0.0985 -0.3586 -0.3802
28796SOL    HW198113  13.413  11.405   0.290 -0.1638  0.9182 -2.5422
28796SOL    HW298114  13.396  11.286   0.198 -0.6286 -0.5317 -0.6454
28797SOL     OW98115   3.578   7.764  11.362  0.0278  0.1293 -0.1808
28797SOL    HW198116   3.581   7.853  11.397  1.1107  0.2671 -0.5860
28797SOL    HW298117   3.568   7.708  11.439 -3.0194  0.6802 -0.0723
28798SOL     OW98118  10.567   0.640  10.552 -0.1004 -0.3438  0.1220
28798SOL    HW198119  10.477   0.610  10.534  0.3862 -0.7681 -1.8158
28798SOL    HW298120  10.570   0.729  10.518  0.1605 -0.2482  0.3921
28799SOL     OW98121  12.104   9.952   7.557 -0.0703  0.1740 -0.1245
28799SOL    HW198122  12.183  10.000   7.581  1.1250 -0.8813 -1.7599
28799SOL    HW298123  12.090   9.891   7.629  1.1852 -0.2770 -0.2342
28800SOL     OW98124   0.904   1.620   9.718 -0.0484  0.5192  0.1064
28800SOL    HW198125   0.984   1.567   9.725 -0.9830 -0.9520  0.1835
28800SOL    HW298126   0.857   1.602   9.799 -1.8888 -1.1562 -1.2463
28801SOL     OW98127   3.352  12.219   9.363  0.4165 -0.1348 -0.6184
28801SOL    HW198128   3.306  12.215   9.448  1.7095  0.1530  0.1187
28801SOL    HW298129   3.282  12.208   9.298 -0.6789  0.1152  0.4667
28802SOL     OW98130   7.201  12.131  12.558 -0.5239 -0.0212  0.6431
28802SOL    HW198131   7.128  12.116  12.499  0.1457  2.8546 -1.0994
28802SOL    HW298132   7.210  12.227  12.562  1.8124 -0.2139  2.4828
28803SOL     OW98133   1.017   1.287  11.596 -0.4318 -0.1151  0.3613
28803SOL    HW198134   0.949   1.256  11.657 -1.2259 -0.8535 -0.8616
28803SOL    HW298135   1.026   1.217  11.533  0.2148  0.7318 -0.5119
28804SOL     OW98136   0.423   9.183   0.248 -0.1397 -0.2603  0.3857
28804SOL    HW198137   0.372   9.163   0.327 -0.0418 -0.6008  0.3669
28804SOL    HW298138   0.378   9.258   0.209 -0.9814 -0.9109  0.0609
28805SOL     OW98139   9.530   9.627   7.381  0.3243 -0.6846  0.1133
28805SOL    HW198140   9.532   9.717   7.414  0.3345 -0.0045 -1.6027
28805SOL    HW298141   9.536   9.572   7.459  0.5962  0.8029  1.1821
28806SOL     OW98142   9.211   9.599   3.633  0.6336  0.0384  0.0672
28806SOL    HW198143   9.137   9.589   3.693  1.0685 -3.0193  0.2597
28806SOL    HW298144   9.187   9.548   3.556  0.7960  2.5470 -1.7503
28807SOL     OW98145   4.858   7.166  10.761  0.6574 -0.1844  0.2318
28807SOL    HW198146   4.791   7.184  10.695 -1.2412  0.6534  2.2501
28807SOL    HW298147   4.931   7.130  10.712  0.3458  2.6461 -2.6814
28808SOL     OW98148   9.404   4.275   0.238  0.0070  0.3028 -0.4497
28808SOL    HW198149   9.321   4.322   0.233 -0.4391 -0.5618 -2.2605
28808SOL    HW298150   9.386   4.202   0.297 -0.1462  0.7969  0.1210
28809SOL     OW98151  11.776   6.386  13.145 -0.6578  0.3932  0.3247
28809SOL    HW198152  11.866   6.416  13.153 -0.2541 -0.7755  0.4042
28809SOL    HW298153  11.740   6.391  13.234 -0.9266  1.5788  0.1627
28810SOL     OW98154   2.492   1.637   9.256  0.3494 -0.0970 -0.0363
28810SOL    HW198155   2.476   1.731   9.246  1.3280  0.1680  0.6542
28810SOL    HW298156   2.558   1.632   9.325  1.0405 -1.2463 -0.7511
28811SOL     OW98157   2.595   9.527  12.748 -0.4329  0.2289  0.2325
28811SOL    HW198158   2.500   9.540  12.739 -0.3217  0.0794 -1.4551
28811SOL    HW298159   2.634   9.605  12.710  0.1467  0.9122  2.1363
28812SOL     OW98160  12.866   9.804   6.726 -0.4307 -0.1031 -0.6677
28812SOL    HW198161  12.906   9.843   6.804 -0.6069  0.4870 -0.8662
28812SOL    HW298162  12.862   9.710   6.745  2.3132 -0.4145 -1.1689
28813SOL     OW98163   8.098   8.749   6.226 -0.3716  0.1788  0.4247
28813SOL    HW198164   8.102   8.673   6.283  1.5595 -0.9648 -1.1015
28813SOL    HW298165   8.042   8.811   6.272 -0.4803 -1.4221  2.5875
28814SOL     OW98166   1.153   4.901   7.677  0.1098 -0.8785 -0.5888
28814SOL    HW198167   1.135   4.854   7.595  0.1103 -0.6845 -0.7006
28814SOL    HW298168   1.199   4.837   7.731  1.0494 -0.6906 -1.1325
28815SOL     OW98169   6.480   9.935  13.427  0.1106 -0.1278  0.4565
28815SOL    HW198170   6.435  10.013  13.457 -0.4949  0.3462 -1.5321
28815SOL    HW298171   6.495   9.883  13.506 -0.7932  1.3113  1.6074
28816SOL     OW98172   9.455   0.115   7.567  0.1645  0.0853 -0.2310
28816SOL    HW198173   9.365   0.134   7.540  0.2971  1.0398 -0.0423
28816SOL    HW298174   9.475   0.031   7.526 -1.0217 -0.4499  0.2465
28817SOL     OW98175   0.087   5.657   1.230  0.7135 -0.5756 -0.2382
28817SOL    HW198176   0.002   5.657   1.187  0.7068 -0.8329 -0.2260
28817SOL    HW298177   0.081   5.589   1.297  0.8012 -0.3311  0.0170
28818SOL     OW98178   1.911  13.723   0.237  0.0740 -0.3696  0.0070
28818SOL    HW198179   1.954  13.806   0.258  0.1948 -0.5804  0.6216
28818SOL    HW298180   1.868  13.739   0.153 -3.2722  1.6020  1.8888
28819SOL     OW98181   1.847   5.381   5.489  0.1735  0.1358 -0.7370
28819SOL    HW198182   1.761   5.344   5.511  1.3955 -2.8138 -0.5597
28819SOL    HW298183   1.858   5.453   5.552 -0.3996 -2.1442  2.2333
28820SOL     OW98184   9.491   4.628   1.779  0.5924 -0.1907 -0.1457
28820SOL    HW198185   9.398   4.631   1.799  0.5852  0.2104 -0.2358
28820SOL    HW298186   9.502   4.548   1.727  0.8553 -2.0877  2.5873
28821SOL     OW98187   8.013   0.130   3.286 -0.0542 -0.1269  0.1990
28821SOL    HW198188   8.104   0.145   3.312  0.0902 -0.2482 -0.2301
28821SOL    HW298189   7.974   0.217   3.281  0.5754  0.0858 -1.5298
28822SOL     OW98190   2.119   1.231   3.524  0.8298 -0.4900  0.5762
28822SOL    HW198191   2.054   1.169   3.492  2.0874 -2.2795  1.3547
28822SOL    HW298192   2.069   1.311   3.541 -1.2580 -1.9204  1.5520
28823SOL     OW98193   3.524   0.958   9.867 -0.2394 -0.1893  0.2032
28823SOL    HW198194   3.443   1.005   9.886 -1.0844 -0.9883 -1.1656
28823SOL    HW298195   3.545   0.982   9.777  0.3491 -0.9625  0.1224
28824SOL     OW98196   1.741   0.292  11.385 -0.1287  0.0304  0.4858
28824SOL    HW198197   1.751   0.384  11.409 -0.1191  0.1189  0.1551
28824SOL    HW298198   1.777   0.244  11.459 -1.4960  0.2539  1.3272
28825SOL     OW98199   2.348   6.487   6.844  0.0646  0.0399 -0.2976
28825SOL    HW198200   2.429   6.518   6.885  0.2545  2.1473 -2.0471
28825SOL    HW298201   2.360   6.393   6.834  2.3173  0.2893 -0.4951
28826SOL     OW98202   2.965   5.156   1.472  0.0318  0.4691 -0.1409
28826SOL    HW198203   3.013   5.166   1.390 -3.6240  1.6139 -2.3530
28826SOL    HW298204   2.963   5.245   1.509 -0.8761  0.5492 -0.3811
28827SOL     OW98205   9.410  13.734   8.634 -0.3556 -0.6111  0.5326
28827SOL    HW198206   9.442  13.671   8.570  1.0738 -0.0637  0.6881
28827SOL    HW298207   9.466  13.810   8.624 -0.7988 -0.1024  1.6970
28828SOL     OW98208   3.920  12.346   6.194 -0.0604 -0.6223  0.0350
28828SOL    HW198209   3.981  12.381   6.129 -1.7735 -0.8979 -1.8361
28828SOL    HW298210   3.845  12.316   6.142 -1.3539 -1.2169  2.1341
28829SOL     OW98211   0.368   4.650   2.951  0.0712 -0.1786 -0.0257
28829SOL    HW198212   0.354   4.556   2.939 -1.6023 -0.0431  0.5722
28829SOL    HW298213   0.359   4.686   2.863 -1.0520 -0.4061 -0.0203
28830SOL     OW98214   0.140   1.318  13.219  0.1205 -0.4408  0.0403
28830SOL    HW198215   0.233   1.304  13.198 -0.5536 -1.4615 -2.6203
28830SOL    HW298216   0.141   1.352  13.308  3.1679  1.4718 -0.5670
28831SOL     OW98217  10.587   8.086   5.497  0.0602 -0.0073  0.1271
28831SOL    HW198218  10.601   8.146   5.424 -1.6378 -0.2497 -0.4562
28831SOL    HW298219  10.608   8.137   5.575  0.0322  0.8916 -0.4397
28832SOL     OW98220  10.794   6.444   2.940  0.8800 -0.2120 -0.0827
28832SOL    HW198221  10.879   6.446   2.983  0.9647 -1.4257 -0.1461
28832SOL    HW298222  10.738   6.393   2.999  1.7237 -4.4509 -2.4765
28833SOL     OW98223   2.804  13.229   1.577  0.5486 -0.2472  0.0455
28833SOL    HW198224   2.802  13.251   1.670  1.4706 -0.6602  0.1730
28833SOL    HW298225   2.875  13.282   1.541 -0.6858  0.9573 -0.7239
28834SOL     OW98226  13.301   0.089   4.213 -0.1493  0.4457  0.0086
28834SOL    HW198227  13.264   0.134   4.137 -0.5320 -0.0094 -0.0756
28834SOL    HW298228  13.377   0.042   4.180  0.0320  0.7246  0.0248
28835SOL     OW98229   9.029   6.614   2.502 -0.0782 -0.1639 -0.5963
28835SOL    HW198230   9.047   6.562   2.580 -0.4372 -0.4518 -0.7021
28835SOL    HW298231   8.940   6.646   2.515 -1.2160 -2.4470 -2.1032
28836SOL     OW98232   2.900  11.180   4.013  0.0839  0.0621 -0.4116
28836SOL    HW198233   2.987  11.146   4.034  0.2560 -0.1996 -1.4917
28836SOL    HW298234   2.846  11.103   3.998 -0.3198  0.2247  0.1505
28837SOL     OW98235   4.372   0.839   3.468  0.2329  0.1107  0.6133
28837SOL    HW198236   4.318   0.827   3.546 -0.0865 -0.4222  0.3137
28837SOL    HW298237   4.457   0.867   3.502 -0.2620  1.1077  1.0767
28838SOL     OW98238  13.485   3.805  11.946  0.3837  0.1742  0.2879
28838SOL    HW198239  13.534   3.779  12.024  0.3545 -0.5725  0.0633
28838SOL    HW298240  13.534   3.880  11.910  0.7595  0.1052  0.6535
28839SOL     OW98241   6.206   0.089   5.771 -0.1114  0.2628 -0.0846
28839SOL    HW198242   6.224   0.176   5.806  0.5158 -0.5179  1.6291
28839SOL    HW298243   6.116   0.095   5.737 -1.2513  0.8187  2.7380
28840SOL     OW98244   8.640   5.424   3.939  0.2889 -0.3468  0.4474
28840SOL    HW198245   8.617   5.331   3.939  0.5548 -0.4124  0.1937
28840SOL    HW298246   8.718   5.430   3.884 -0.8705  0.2930 -1.2033
28841SOL     OW98247  13.027   1.948   8.070  0.1832 -0.3825  0.6426
28841SOL    HW198248  12.977   1.914   8.144 -1.6037 -0.6086 -0.6102
28841SOL    HW298249  13.010   2.042   8.070 -0.7226 -0.5267 -0.0811
28842SOL     OW98250  10.036   1.397   0.891 -0.2173 -0.0138  0.7624
28842SOL    HW198251   9.969   1.460   0.918  0.1617  1.0212 -0.6064
28842SOL    HW298252  10.062   1.426   0.803  0.7416 -1.4594  0.5388
28843SOL     OW98253   9.400  12.845  10.052 -0.0934 -0.0390 -0.2381
28843SOL    HW198254   9.354  12.926  10.029 -0.4201  0.2830  1.4067
28843SOL    HW298255   9.362  12.819  10.136 -0.6282 -2.4130 -1.1397
28844SOL     OW98256   9.752  11.289   3.915 -0.1822  0.3559 -0.2491
28844SOL    HW198257   9.804  11.208   3.908 -1.6265 -0.6831  0.5264
28844SOL    HW298258   9.800  11.352   3.861  1.5702 -0.6934 -0.0231
28845SOL     OW98259   2.210   8.682  11.907 -0.1563  0.1381 -0.2703
28845SOL    HW198260   2.204   8.757  11.848  0.5107  0.5593  0.1823
28845SOL    HW298261   2.282   8.630  11.872 -1.3219 -0.8843 -1.2260
28846SOL     OW98262   3.813   4.302   7.557  0.0527 -0.0734  0.4432
28846SOL    HW198263   3.731   4.345   7.534  1.3091  0.7947 -2.9989
28846SOL    HW298264   3.803   4.212   7.524  0.0855 -0.3225  1.0935
28847SOL     OW98265   7.049   4.755   9.001 -0.5390  0.2638 -0.2933
28847SOL    HW198266   7.007   4.830   8.960 -1.0045 -0.2708 -0.8015
28847SOL    HW298267   7.027   4.681   8.945  0.9319 -0.0690 -0.4907
28848SOL     OW98268   3.912  11.959   4.190  0.3508  0.4135 -0.2608
28848SOL    HW198269   3.828  11.913   4.180  0.1834  0.6263  0.1658
28848SOL    HW298270   3.962  11.933   4.112  1.3522 -2.7028  1.2499
28849SOL     OW98271   8.546   7.084   9.207  0.0463  0.0499 -0.2505
28849SOL    HW198272   8.503   7.068   9.123  0.2720 -1.9582 -0.0240
28849SOL    HW298273   8.620   7.023   9.208  1.6856  1.9585  0.2661
28850SOL     OW98274   1.812   2.786  11.330 -0.5136 -0.2301 -0.0135
28850SOL    HW198275   1.842   2.725  11.398 -0.0072  0.1649  0.1209
28850SOL    HW298276   1.767   2.730  11.267 -0.4690 -0.6839  0.3465
28851SOL     OW98277   1.719   4.973  10.123 -0.5932 -0.4538 -0.1616
28851SOL    HW198278   1.717   5.067  10.140  0.1061 -0.3732 -0.4896
28851SOL    HW298279   1.681   4.963  10.036 -0.3218 -0.4372 -0.2816
28852SOL     OW98280  10.365   8.259   7.730 -0.1912 -0.3501 -0.3445
28852SOL    HW198281  10.309   8.197   7.684 -0.8680 -2.7072  3.2074
28852SOL    HW298282  10.306   8.302   7.792  1.3704 -0.9719  1.6806
28853SOL     OW98283  12.144   8.296  11.642  0.6410 -0.0716 -0.6522
28853SOL    HW198284  12.222   8.262  11.685  0.4062  1.1709  0.8410
28853SOL    HW298285  12.101   8.349  11.709 -1.1550 -0.2112 -1.6380
28854SOL     OW98286   3.115  11.330   4.199  0.1687  0.2339  0.5922
28854SOL    HW198287   3.076  11.417   4.204 -0.3442  0.1599 -1.1890
28854SOL    HW298288   3.194  11.335   4.252 -0.0405  1.6893  0.7871
28855SOL     OW98289  11.717   2.538  10.406 -0.4800 -0.6320  0.0461
28855SOL    HW198290  11.679   2.575  10.485  0.2017  0.0493  0.0636
28855SOL    HW298291  11.712   2.608  10.341 -1.1778 -1.2345 -0.5677
28856SOL     OW98292   6.690  11.238  11.488  0.3645  0.5192 -0.9471
28856SOL    HW198293   6.779  11.219  11.515  0.0574  0.0698 -0.2401
28856SOL    HW298294   6.651  11.153  11.471  0.0178  0.7035 -1.0945
28857SOL     OW98295   4.901   2.419   3.201 -0.6894 -0.1491  0.1288
28857SOL    HW198296   4.897   2.507   3.163 -1.7708 -0.2659 -0.0740
28857SOL    HW298297   4.846   2.366   3.143 -0.4468 -0.8470  0.5322
28858SOL     OW98298   6.311   6.870   9.445 -0.1788 -0.2447 -0.5313
28858SOL    HW198299   6.392   6.890   9.493  0.5030 -3.7490  0.0448
28858SOL    HW298300   6.328   6.900   9.356  1.6979 -0.7168 -0.3756
28859SOL     OW98301   1.905   1.645   2.198 -0.2133 -0.4261 -0.5264
28859SOL    HW198302   1.975   1.614   2.255 -0.0529 -0.0815 -0.5372
28859SOL    HW298303   1.887   1.734   2.228 -0.8630 -0.6177 -0.3154
28860SOL     OW98304   7.244  13.128   7.006  0.3623  0.2176 -0.1006
28860SOL    HW198305   7.267  13.116   7.099 -0.4956  1.9856  0.3802
28860SOL    HW298306   7.328  13.128   6.961  0.7711 -1.1576  0.5841
28861SOL     OW98307   1.317   1.989   3.826 -0.0568 -0.0558 -0.1835
28861SOL    HW198308   1.370   2.059   3.864  2.0267 -0.8267 -1.4796
28861SOL    HW298309   1.308   2.012   3.733  2.5000 -2.4065 -1.1637
28862SOL     OW98310   6.709   6.440  12.692 -0.3173 -0.1168  0.4142
28862SOL    HW198311   6.721   6.405  12.781  0.3559 -4.2713 -1.0866
28862SOL    HW298312   6.619   6.472  12.691 -0.7320 -1.0866  2.2671
28863SOL     OW98313   7.890   7.395   5.338  0.7192  0.0450  0.1842
28863SOL    HW198314   7.871   7.440   5.256 -0.9999  0.4960  0.7851
28863SOL    HW298315   7.822   7.328   5.345 -0.1278  1.0107  1.9313
28864SOL     OW98316   3.754  10.804   2.459 -1.0659 -0.7720  0.7158
28864SOL    HW198317   3.823  10.741   2.438  1.9511  2.7225 -1.0477
28864SOL    HW298318   3.679  10.776   2.407  0.5288 -2.3178 -0.8975
28865SOL     OW98319  10.099   4.507   2.278 -0.2932  0.1978  0.3195
28865SOL    HW198320  10.124   4.477   2.191  1.6847 -1.4123  1.3509
28865SOL    HW298321  10.145   4.591   2.289  0.0506  0.0387  0.0986
28866SOL     OW98322   5.276  10.286   7.228  0.5567  0.0820  0.0998
28866SOL    HW198323   5.206  10.342   7.193 -1.0468  0.2455  3.2256
28866SOL    HW298324   5.271  10.206   7.177  0.9980  1.6299 -2.5667
28867SOL     OW98325   4.397   3.060  11.552 -0.2094 -1.3661  0.2463
28867SOL    HW198326   4.462   3.119  11.513  0.8177 -2.3651  0.3759
28867SOL    HW298327   4.410   3.072  11.647  0.7847 -2.5755  0.2893
28868SOL     OW98328  12.987   2.433   9.045  0.0692 -0.0650 -0.2522
28868SOL    HW198329  12.904   2.425   9.092  1.0875 -0.0638  1.6663
28868SOL    HW298330  13.053   2.410   9.110  1.6635  1.2603 -1.3252
28869SOL     OW98331  10.520   7.000   2.482  0.1176  0.9348 -0.2696
28869SOL    HW198332  10.590   7.032   2.539  0.8377 -0.3310 -0.4184
28869SOL    HW298333  10.442   7.000   2.537  0.5392  0.9454  0.3354
28870SOL     OW98334   2.026  10.781   2.253 -0.1066 -0.2017  0.1765
28870SOL    HW198335   1.966  10.711   2.279 -1.4803  0.4952 -1.0131
28870SOL    HW298336   2.094  10.737   2.201  0.0562 -0.8902  0.9490
28871SOL     OW98337   4.702  11.337   2.779  0.0690  0.0439  0.1198
28871SOL    HW198338   4.687  11.395   2.853 -0.0030 -0.6544  0.6667
28871SOL    HW298339   4.672  11.251   2.810  1.0420 -0.4779 -0.3398
28872SOL     OW98340   9.990   7.774  10.925  0.2820 -0.1261  0.0665
28872SOL    HW198341  10.075   7.761  10.968 -0.0004 -1.6715  0.2011
28872SOL    HW298342  10.007   7.756  10.832  0.3562  0.8080 -0.1146
28873SOL     OW98343   6.515   1.296   6.496  0.2107 -0.0079 -0.0937
28873SOL    HW198344   6.496   1.306   6.590 -0.5743  0.5985 -0.3087
28873SOL    HW298345   6.433   1.267   6.458  0.8407 -1.4059 -0.4347
28874SOL     OW98346   8.280   0.890   9.358  0.1949 -0.1109 -0.2867
28874SOL    HW198347   8.205   0.922   9.409  1.2362 -0.2143  1.3745
28874SOL    HW298348   8.245   0.817   9.307 -0.8407 -0.1574  0.4541
28875SOL     OW98349  11.327   6.796   1.809 -0.1239 -0.4567  0.3454
28875SOL    HW198350  11.374   6.728   1.761 -0.7509  1.1992 -2.9807
28875SOL    HW298351  11.261   6.749   1.860  1.2862 -2.4406  0.4523
28876SOL     OW98352   3.332   9.408  11.018  0.0451  0.0659  0.1291
28876SOL    HW198353   3.290   9.356  10.950  0.6716  0.1239 -0.3065
28876SOL    HW298354   3.277   9.487  11.025  1.1338  1.0938 -1.8502
28877SOL     OW98355  12.970   6.053   5.016  0.1613  0.5270 -0.0606
28877SOL    HW198356  12.976   6.068   4.921  0.1660 -2.5829 -0.6371
28877SOL    HW298357  12.888   6.096   5.041 -0.7015 -0.0057 -1.8068
28878SOL     OW98358  12.005   2.734   0.744  0.0760 -0.3442 -0.2472
28878SOL    HW198359  11.916   2.700   0.728 -0.8709  1.3562  1.0234
28878SOL    HW298360  12.052   2.718   0.662 -1.4831 -1.0600 -1.0482
28879SOL     OW98361   4.432  13.644   8.397  0.0047 -0.2814 -0.1427
28879SOL    HW198362   4.468  13.731   8.415 -1.1751 -0.3466  3.4877
28879SOL    HW298363   4.337  13.656   8.407 -0.2733 -1.7413 -0.9023
28880SOL     OW98364   3.497  13.512   0.996  0.0292 -0.0783 -0.1064
28880SOL    HW198365   3.451  13.434   1.027  1.1073 -0.7471 -0.1324
28880SOL    HW298366   3.481  13.578   1.063  0.3118 -0.7709  0.6578
28881SOL     OW98367  12.315  11.169  11.298  0.2487  0.1756 -0.0172
28881SOL    HW198368  12.227  11.164  11.263  0.5437  1.4154 -0.9999
28881SOL    HW298369  12.303  11.189  11.391 -0.5024 -0.1900 -0.0339
28882SOL     OW98370  10.843  10.478  12.039  0.2686 -0.1304  0.8528
28882SOL    HW198371  10.884  10.505  11.957 -2.5151  1.8554 -0.0216
28882SOL    HW298372  10.915  10.478  12.102  1.9495  1.5030 -0.9070
28883SOL     OW98373   7.243   7.186   6.636 -0.1506  0.6667 -0.0006
28883SOL    HW198374   7.230   7.135   6.556  1.2627 -0.4375  0.4231
28883SOL    HW298375   7.321   7.239   6.617 -1.0977  2.0699 -0.1214
28884SOL     OW98376   6.064  10.182   7.794  0.1879  0.3475  0.0288
28884SOL    HW198377   5.987  10.237   7.782 -1.3683 -1.8640 -0.7838
28884SOL    HW298378   6.070  10.170   7.889 -0.0227  1.1230  0.1474
28885SOL     OW98379   2.431   8.897   9.347 -0.4318  0.5407 -0.2166
28885SOL    HW198380   2.401   8.812   9.380  0.4949  0.5556  0.7265
28885SOL    HW298381   2.410   8.895   9.254 -2.6633  0.2823  0.2249
28886SOL     OW98382   1.031   0.191  12.102  0.7646 -0.7607 -0.2172
28886SOL    HW198383   0.998   0.104  12.080 -0.0741 -0.3737 -0.5082
28886SOL    HW298384   0.953   0.247  12.104  1.1456 -0.2396  1.0850
28887SOL     OW98385   9.576   2.793  12.659  0.0417  0.2001 -1.0210
28887SOL    HW198386   9.534   2.807  12.574  0.6074  1.3210 -1.1328
28887SOL    HW298387   9.622   2.875  12.676  1.9265 -0.8703 -0.7594
28888SOL     OW98388  13.676   1.120   9.691  0.2512 -0.0986 -0.2881
28888SOL    HW198389  13.650   1.196   9.639  1.1506  1.0418  0.8495
28888SOL    HW298390  13.599   1.101   9.744  0.3163  0.6281  0.0865
28889SOL     OW98391  12.616   6.844   6.251 -0.5894 -0.1357  0.2171
28889SOL    HW198392  12.650   6.911   6.309  0.7100 -0.0434 -0.6024
28889SOL    HW298393  12.676   6.845   6.176 -0.6800 -2.0265  0.0719
28890SOL     OW98394  12.823   5.428   0.647  0.2022  0.1329 -0.0826
28890SOL    HW198395  12.822   5.406   0.554 -0.4360 -0.1019 -0.0257
28890SOL    HW298396  12.808   5.344   0.691  0.7759  0.1994  0.2436
28891SOL     OW98397   4.237  12.885  13.200 -0.1686  0.1672  0.1096
28891SOL    HW198398   4.177  12.921  13.265  0.2017  0.3939  0.3264
28891SOL    HW298399   4.179  12.849  13.132 -0.5436  1.7209 -0.4194
28892SOL     OW98400   0.560   5.069   6.122  0.1321  0.0556  0.2741
28892SOL    HW198401   0.549   5.117   6.040  1.2230 -0.7328 -0.3475
28892SOL    HW298402   0.540   5.134   6.190  1.0445  1.2458 -0.5654
28893SOL     OW98403   8.306   1.119  10.503 -0.1146 -0.6892 -0.2704
28893SOL    HW198404   8.277   1.176  10.432 -2.5042 -0.9355  0.4117
28893SOL    HW298405   8.328   1.036  10.460 -0.4616 -0.4827 -0.8505
28894SOL     OW98406   0.396  11.712   1.730 -1.0008 -0.5510  0.6768
28894SOL    HW198407   0.418  11.805   1.733 -0.0427 -0.7425  0.1792
28894SOL    HW298408   0.308  11.706   1.766 -1.0485  0.5414  0.7586
28895SOL     OW98409   4.091   4.685   7.935  0.4997 -0.7677 -0.3553
28895SOL    HW198410   4.080   4.613   7.874 -0.2882 -0.4456 -0.6168
28895SOL    HW298411   4.151   4.745   7.891  0.4585 -0.8501 -0.5235
28896SOL     OW98412  12.592  12.607  12.840 -0.0961 -0.3250  0.6463
28896SOL    HW198413  12.534  12.673  12.877  0.1165  0.3158 -0.1369
28896SOL    HW298414  12.575  12.528  12.892 -0.3459  0.3380  1.6018
28897SOL     OW98415  13.311   7.052   2.556 -0.5606  0.3860  0.0557
28897SOL    HW198416  13.291   7.033   2.647  0.5539  2.2145  0.7407
28897SOL    HW298417  13.248   7.000   2.506 -1.4957 -0.3004  1.8692
28898SOL     OW98418   8.962   9.162  11.791 -0.5292  0.2712 -0.4230
28898SOL    HW198419   8.991   9.116  11.712  0.2609 -1.7973  1.0097
28898SOL    HW298420   9.043   9.180  11.839 -1.1332 -0.1517  0.7822
28899SOL     OW98421   1.759   7.569  11.643  0.0724 -0.3171  0.0571
28899SOL    HW198422   1.847   7.550  11.612 -0.5927  0.4129 -2.4898
28899SOL    HW298423   1.762   7.660  11.672  0.4505 -0.7098  1.3395
28900SOL     OW98424   8.501  10.609   5.958  0.1632 -0.0002  0.0776
28900SOL    HW198425   8.495  10.610   6.054 -0.3079 -0.3267  0.0559
28900SOL    HW298426   8.448  10.684   5.931 -2.1196 -1.5645 -0.0243
28901SOL     OW98427  12.667   7.065   8.188  0.4118 -0.6587  0.1038
28901SOL    HW198428  12.611   7.135   8.222  0.5179 -0.5719  0.1025
28901SOL    HW298429  12.707   7.104   8.110  0.6925 -0.6202  0.2647
28902SOL     OW98430   0.795  11.734   8.003 -0.0651  0.3564 -0.7513
28902SOL    HW198431   0.733  11.780   8.061  0.5915  2.2639 -1.4789
28902SOL    HW298432   0.868  11.710   8.060 -0.8545 -0.7177 -0.1587
28903SOL     OW98433   3.659   6.548   6.889  0.0203 -0.3886 -0.3374
28903SOL    HW198434   3.578   6.530   6.840  0.7493 -0.5079 -1.5577
28903SOL    HW298435   3.640   6.518   6.978 -0.4837 -2.7541 -1.1438
28904SOL     OW98436   7.362  11.316   9.075  0.4876 -0.8479 -0.4469
28904SOL    HW198437   7.336  11.292   8.986  1.8247 -0.2017 -1.0415
28904SOL    HW298438   7.280  11.339   9.118 -0.1013 -0.3224 -1.7898
28905SOL     OW98439   0.958   5.945  12.431 -0.1310 -0.4802  0.4059
28905SOL    HW198440   0.994   6.028  12.462 -0.5494 -0.1333  0.0017
28905SOL    HW298441   0.868   5.967  12.406  0.2501 -0.6648 -1.2688
28906SOL     OW98442   9.880  10.829   6.229 -0.2835  0.2991 -0.2045
28906SOL    HW198443   9.790  10.818   6.257  0.0595 -0.5001  0.6232
28906SOL    HW298444   9.925  10.868   6.304 -0.1595  1.7022 -0.9862
28907SOL     OW98445   7.706   9.314  10.086 -0.0539 -0.4738 -0.3470
28907SOL    HW198446   7.692   9.309   9.992 -1.2395  0.7888 -0.2729
28907SOL    HW298447   7.763   9.240  10.106  0.3760 -0.6401 -2.0743
28908SOL     OW98448  11.824   8.273   5.464  0.3322  0.3898  0.1888
28908SOL    HW198449  11.749   8.311   5.509  0.1606 -0.5736  0.7326
28908SOL    HW298450  11.871   8.348   5.427 -0.2879  1.0782  0.7904
28909SOL     OW98451   3.733   5.233   5.972 -0.2068 -0.3536  0.2506
28909SOL    HW198452   3.650   5.247   5.927  0.9581 -0.3227 -2.0468
28909SOL    HW298453   3.717   5.261   6.062 -2.5087  0.1650 -0.2635
28910SOL     OW98454  10.471   0.859   0.401 -0.0548 -0.2702  0.1581
28910SOL    HW198455  10.551   0.853   0.350 -0.7710 -0.6801 -0.9616
28910SOL    HW298456  10.429   0.774   0.390 -1.4435  0.4881 -0.6599
28911SOL     OW98457   3.994   8.504   1.684  0.6884 -0.6423 -0.3591
28911SOL    HW198458   3.942   8.526   1.761  0.1200  0.2603 -0.9872
28911SOL    HW298459   4.085   8.508   1.715  0.4356 -1.4560  0.5462
28912SOL     OW98460   3.344   2.940  13.409  0.1695  0.2767  0.4427
28912SOL    HW198461   3.271   2.997  13.387  1.1496  1.9141  1.2220
28912SOL    HW298462   3.420   2.982  13.368  0.7379 -1.2191 -0.1063
28913SOL     OW98463   5.271  10.725   6.873 -0.1811  0.0159  0.1504
28913SOL    HW198464   5.333  10.789   6.907  0.6802 -1.6026  1.8902
28913SOL    HW298465   5.263  10.744   6.780  4.2235 -0.6512 -0.5447
28914SOL     OW98466   8.464  10.067   1.319 -0.2576  0.4312  0.1335
28914SOL    HW198467   8.382  10.114   1.303  0.2056  0.9282 -0.8451
28914SOL    HW298468   8.510  10.118   1.385 -0.5861  0.3305  0.4416
28915SOL     OW98469  12.114   9.451  13.159 -0.2982 -0.0487 -0.5496
28915SOL    HW198470  12.210   9.445  13.161 -0.1947 -0.2245 -2.8268
28915SOL    HW298471  12.084   9.364  13.186  0.1024  0.3581  1.3434
28916SOL     OW98472   3.100   7.452   8.990 -0.7957 -0.2909 -0.4307
28916SOL    HW198473   3.051   7.533   8.978  1.3029  1.1447  0.0129
28916SOL    HW298474   3.145   7.464   9.073  0.7916 -1.2081 -1.1136
28917SOL     OW98475  10.650  13.038  11.542  0.0575 -0.0928 -0.2623
28917SOL    HW198476  10.556  13.045  11.556  0.0903 -0.9456  0.4892
28917SOL    HW298477  10.660  13.027  11.448 -0.4142  2.3593 -0.6799
28918SOL     OW98478  13.399  10.475   2.479 -0.0343 -0.2846 -0.0240
28918SOL    HW198479  13.365  10.564   2.483 -0.2040 -0.3846  1.0873
28918SOL    HW298480  13.328  10.420   2.512  0.8301 -0.5913  1.4225
28919SOL     OW98481   7.356   8.984   4.924  0.7810 -0.0712 -0.2144
28919SOL    HW198482   7.362   8.905   4.977  1.0847 -0.6760 -1.1333
28919SOL    HW298483   7.413   8.967   4.848  0.7459  0.9679 -0.4937
28920SOL     OW98484   9.966   4.886   9.773  0.0037  0.2882 -0.1059
28920SOL    HW198485   9.874   4.911   9.764  0.2041  0.8099 -0.7532
28920SOL    HW298486   9.963   4.796   9.808 -0.7252  1.0797  2.0466
28921SOL     OW98487   6.572  13.616   3.212 -0.7671  0.4666 -0.0094
28921SOL    HW198488   6.613  13.576   3.289  0.5882 -1.6162 -1.7131
28921SOL    HW298489   6.610  13.704   3.207  0.3919  0.0273  0.7642
28922SOL     OW98490   9.858   6.879  13.287  0.5197  0.1658  0.2106
28922SOL    HW198491   9.890   6.790  13.271 -0.1339 -0.2842  1.2787
28922SOL    HW298492   9.771   6.881  13.247  0.9061  0.6309 -0.6240
28923SOL     OW98493  10.767   5.751   4.756 -0.4108 -0.6543  0.1988
28923SOL    HW198494  10.695   5.813   4.746 -0.6272 -0.9361 -0.0080
28923SOL    HW298495  10.825   5.792   4.820 -0.8508 -0.5124  0.5102
28924SOL     OW98496   9.870   3.578   4.507  0.2410  0.0551 -0.5493
28924SOL    HW198497   9.794   3.551   4.457 -0.2130  0.9297 -0.3489
28924SOL    HW298498   9.851   3.668   4.533  1.0149  0.0345  0.1335
28925SOL     OW98499   6.305   7.572   5.976 -0.0321  0.2291 -0.3256
28925SOL    HW198500   6.393   7.610   5.966 -0.0284  0.5718  0.8021
28925SOL    HW298501   6.292   7.568   6.071 -0.9545 -0.4870 -0.4714
28926SOL     OW98502   7.551  10.821   6.597 -0.1014 -0.6113  0.0886
28926SOL    HW198503   7.488  10.849   6.663 -0.5282 -1.3088 -0.0199
28926SOL    HW298504   7.633  10.865   6.622 -0.2481 -0.8947  1.0923
28927SOL     OW98505  10.251  11.836   1.324 -0.2664 -0.2410 -0.4747
28927SOL    HW198506  10.249  11.862   1.232 -0.9534  0.8329 -0.1895
28927SOL    HW298507  10.308  11.901   1.366 -3.0453  1.8065  0.4795
28928SOL     OW98508   4.683  12.218   6.829  0.0949  0.3494  0.2537
28928SOL    HW198509   4.595  12.209   6.791 -0.3991  1.2011  1.1158
28928SOL    HW298510   4.668  12.267   6.910  1.3839  0.5604  0.3821
28929SOL     OW98511   5.463  11.648  10.737  0.2707 -0.1162  0.0669
28929SOL    HW198512   5.497  11.566  10.700  0.6943  0.5314 -1.0297
28929SOL    HW298513   5.399  11.678  10.673  1.9646  1.7032 -0.8982
28930SOL     OW98514  13.636   6.222   0.833  0.0639  0.1045 -0.1978
28930SOL    HW198515  13.565   6.286   0.833 -0.0665 -0.0359 -0.4281
28930SOL    HW298516  13.608   6.156   0.896 -0.1566 -0.1071 -0.5148
28931SOL     OW98517   3.877   1.755  11.330 -0.2531 -0.5407  0.2418
28931SOL    HW198518   3.916   1.726  11.412 -0.8730 -1.6898  0.1427
28931SOL    HW298519   3.891   1.683  11.269 -0.0515  0.1869 -0.5845
28932SOL     OW98520   2.203   2.308   1.427  0.3070  0.2364  0.3854
28932SOL    HW198521   2.197   2.359   1.508 -0.5283  0.0179  0.4737
28932SOL    HW298522   2.116   2.267   1.418  0.7719 -0.7004  0.0181
28933SOL     OW98523   7.154   5.501   6.751  0.5744 -0.2069  0.1078
28933SOL    HW198524   7.067   5.471   6.776  0.9731 -1.5365 -0.0493
28933SOL    HW298525   7.209   5.484   6.827  1.0787 -1.1075 -0.4470
28934SOL     OW98526  12.144   8.054  12.895 -0.4991  0.6429 -0.6822
28934SOL    HW198527  12.214   8.119  12.897 -0.2982  0.4778  2.0660
28934SOL    HW298528  12.118   8.050  12.803  1.6557  2.2281 -1.4701
28935SOL     OW98529   5.577  11.046   3.020 -0.2791  0.2233  0.6093
28935SOL    HW198530   5.556  11.088   2.936 -3.4943  0.0836  1.2018
28935SOL    HW298531   5.636  10.975   2.997 -0.6411  0.5157 -1.4684
28936SOL     OW98532  13.253   4.034  11.277  0.0975  0.0810  0.0539
28936SOL    HW198533  13.311   3.986  11.337  1.2689  2.1057  0.6512
28936SOL    HW298534  13.208   4.097  11.333 -1.1108 -0.0533 -0.7511
28937SOL     OW98535   1.705   9.836  10.672 -0.0244  0.0076 -0.1915
28937SOL    HW198536   1.629   9.892  10.686 -0.5019 -0.6672 -0.0328
28937SOL    HW298537   1.731   9.808  10.760 -0.1636 -0.5062 -0.3115
28938SOL     OW98538   9.917  12.329   6.893 -0.3366  0.1593 -0.4536
28938SOL    HW198539   9.970  12.335   6.972 -0.0681 -1.3836 -0.4809
28938SOL    HW298540   9.849  12.395   6.903 -0.2702  0.0208  1.0331
28939SOL     OW98541  12.928   9.292   8.129  0.2365 -0.2371  0.5962
28939SOL    HW198542  12.984   9.239   8.186  0.7027  0.3791  0.7246
28939SOL    HW298543  12.989   9.350   8.083 -0.1002 -0.9838 -0.8227
28940SOL     OW98544  11.676   2.056  12.973  0.8565 -0.2117 -0.1269
28940SOL    HW198545  11.734   2.074  13.047  1.1842  0.0760 -0.4539
28940SOL    HW298546  11.724   2.085  12.896 -0.1598  1.0740 -0.3073
28941SOL     OW98547   9.327  11.326   2.703  0.2528 -0.6605  0.4601
28941SOL    HW198548   9.349  11.245   2.750  1.5908 -0.6454 -0.1029
28941SOL    HW298549   9.358  11.396   2.759  0.4622 -0.5871  0.2523
28942SOL     OW98550  12.580   6.506  13.488  0.2827 -0.2961  0.4946
28942SOL    HW198551  12.553   6.553  13.567 -1.0565  1.8993 -1.1434
28942SOL    HW298552  12.640   6.566  13.444  1.3883 -1.6863  0.0479
28943SOL     OW98553   8.344   7.191   9.630  0.2774  0.0116 -0.5129
28943SOL    HW198554   8.286   7.116   9.634  2.2656 -1.6541  4.0296
28943SOL    HW298555   8.424   7.158   9.589  0.8961 -0.2513  0.8400
28944SOL     OW98556   1.879  11.133  11.176  0.7707 -0.2554 -0.3774
28944SOL    HW198557   1.873  11.038  11.185  1.1338 -0.4293 -1.7277
28944SOL    HW298558   1.971  11.149  11.156  0.7762  0.4139  0.1696
28945SOL     OW98559   4.352  10.467   1.698  0.0624 -0.0116  0.1120
28945SOL    HW198560   4.366  10.444   1.790  0.1136 -0.8244 -0.0880
28945SOL    HW298561   4.381  10.558   1.691  1.4554 -0.3932  0.5886
28946SOL     OW98562   7.032   1.423   1.838  0.4691 -0.4108 -0.1641
28946SOL    HW198563   6.959   1.367   1.813  0.0806  0.2500 -0.5339
28946SOL    HW298564   7.076   1.375   1.909  0.3730 -1.3479 -0.7305
28947SOL     OW98565   5.866   5.064   0.382 -0.6970 -0.0247 -0.0455
28947SOL    HW198566   5.958   5.054   0.407 -0.7105 -1.2622 -0.4236
28947SOL    HW298567   5.823   5.096   0.462 -0.0092  0.1663  0.2547
28948SOL     OW98568   8.099   1.426   8.551  0.7871 -0.0795  0.6115
28948SOL    HW198569   8.053   1.486   8.610 -0.2707 -2.5992  2.5229
28948SOL    HW298570   8.127   1.481   8.478  0.3798  2.8230  2.4751
28949SOL     OW98571  11.155   4.379  11.003  0.0090 -0.2093 -0.1780
28949SOL    HW198572  11.121   4.309  10.949 -1.0374  0.7232 -0.7713
28949SOL    HW298573  11.165   4.453  10.943  1.3728  0.0760  0.3676
28950SOL     OW98574   4.920   0.787   7.890  0.7601  0.0686 -0.4061
28950SOL    HW198575   4.920   0.824   7.978 -0.7684 -1.3005  0.2264
28950SOL    HW298576   4.916   0.863   7.832 -3.2758  1.0716  0.8194
28951SOL     OW98577  12.580   8.617   4.974  0.5203 -0.7276  0.2227
28951SOL    HW198578  12.536   8.696   4.943 -1.2867 -0.6826  2.6647
28951SOL    HW298579  12.666   8.620   4.932  0.4391  2.4225  0.0569
28952SOL     OW98580   5.116   1.972   5.461  0.3646 -0.1636  0.1673
28952SOL    HW198581   5.078   2.058   5.443  2.6316  0.9269  0.1831
28952SOL    HW298582   5.134   1.935   5.375 -1.8884 -1.3231  0.1170
28953SOL     OW98583  10.018   0.178   9.340 -0.2632  0.2106 -0.0300
28953SOL    HW198584  10.050   0.112   9.402  0.2878  0.5782  0.0856
28953SOL    HW298585  10.060   0.259   9.368 -0.9123  0.6073 -0.1891
28954SOL     OW98586  10.561   0.886  10.170 -0.3615 -0.0361  0.0546
28954SOL    HW198587  10.471   0.917  10.179 -0.3518 -0.2784  1.1276
28954SOL    HW298588  10.553   0.790  10.168 -0.0722 -0.1020  1.1459
28955SOL     OW98589   9.225  12.349   2.823 -0.1958  0.1075 -0.6337
28955SOL    HW198590   9.241  12.440   2.851  0.5369  0.3063 -1.6389
28955SOL    HW298591   9.136  12.350   2.788 -1.3201 -0.2425  1.9631
28956SOL     OW98592   2.827   0.427   4.821 -0.1432  0.5099  0.0576
28956SOL    HW198593   2.776   0.381   4.754  1.0696 -1.2289  0.2766
28956SOL    HW298594   2.779   0.510   4.834 -1.1173  0.3498 -2.0130
28957SOL     OW98595   1.300  11.829   3.380  0.0657 -0.3514  0.5717
28957SOL    HW198596   1.303  11.898   3.447 -0.9977  0.1986  0.0905
28957SOL    HW298597   1.391  11.803   3.367  0.4993  0.9785  0.7693
28958SOL     OW98598  11.358  10.378   7.574 -0.2817  0.0694  0.3421
28958SOL    HW198599  11.370  10.425   7.491 -1.2067 -0.1555  0.0619
28958SOL    HW298600  11.267  10.398   7.599 -0.3947 -0.8336  0.6836
28959SOL     OW98601   2.602   0.308   4.637  0.4272 -0.0370 -0.2873
28959SOL    HW198602   2.603   0.403   4.624  0.8944 -0.0104 -0.0664
28959SOL    HW298603   2.518   0.291   4.680 -0.1533  0.1354 -1.3377
28960SOL     OW98604   6.752   1.234   7.165 -0.3999 -0.3079 -0.3854
28960SOL    HW198605   6.715   1.270   7.245  0.0485  2.2225 -1.2460
28960SOL    HW298606   6.682   1.177   7.131 -0.4865 -1.6640  1.8716
28961SOL     OW98607  13.697  10.704   5.027  0.1461  0.4626 -0.2240
28961SOL    HW198608  13.651  10.701   5.111  1.8816 -1.1466  0.7155
28961SOL    HW298609  13.664  10.628   4.979  2.9362 -1.8007  1.1630
28962SOL     OW98610   2.044   3.600  11.094  0.0258 -0.0124 -0.0996
28962SOL    HW198611   2.095   3.523  11.118 -1.3698 -0.6219  1.0944
28962SOL    HW298612   1.968   3.598  11.153 -0.8697  1.3845 -1.1291
28963SOL     OW98613   4.505   6.888   9.438 -0.0716  0.0027  0.5436
28963SOL    HW198614   4.542   6.973   9.415  0.6632 -0.8082 -1.4840
28963SOL    HW298615   4.581   6.832   9.454 -0.3850 -1.0766 -1.3938
28964SOL     OW98616   2.255  13.331   9.517  0.3753  0.7115 -0.4317
28964SOL    HW198617   2.208  13.394   9.463  0.4463  3.4155  2.3622
28964SOL    HW298618   2.340  13.373   9.533  0.2082  0.2416  1.9865
28965SOL     OW98619  13.240   9.016   3.276  0.0701 -0.1680  0.0473
28965SOL    HW198620  13.274   9.054   3.195  3.5250  0.3803  1.5786
28965SOL    HW298621  13.229   9.090   3.335 -0.7210 -0.7560  0.6662
28966SOL     OW98622   0.661   9.490   0.228 -0.0110 -0.2509 -0.3866
28966SOL    HW198623   0.755   9.471   0.222  0.0704 -0.4215  1.2107
28966SOL    HW298624   0.649   9.527   0.315 -1.1785  1.3508 -1.1878
28967SOL     OW98625   8.613   1.599   7.886 -0.0553  0.4998 -1.1051
28967SOL    HW198626   8.653   1.582   7.971  0.6874  0.6465 -1.4123
28967SOL    HW298627   8.533   1.647   7.906 -0.0019  0.3323 -0.4791
28968SOL     OW98628  13.000  12.247   6.988  0.2207  0.4526 -0.2775
28968SOL    HW198629  13.042  12.316   6.937  1.5647 -0.3412 -0.3000
28968SOL    HW298630  12.914  12.236   6.948  1.2069 -0.1346 -2.3974
28969SOL     OW98631   0.255   3.689  12.176  0.0848  0.0464  0.4477
28969SOL    HW198632   0.229   3.706  12.266  0.4452  0.0268  0.5590
28969SOL    HW298633   0.320   3.756  12.156  0.1032 -0.0286  0.2455
28970SOL     OW98634  11.591   2.880   1.397  0.4329 -0.3418 -0.1523
28970SOL    HW198635  11.591   2.939   1.472  1.9127  1.7431 -1.6847
28970SOL    HW298636  11.599   2.792   1.435  1.0946  0.6335  2.1084
28971SOL     OW98637   4.298  11.230   9.735 -0.3527  0.3305  0.1338
28971SOL    HW198638   4.347  11.171   9.792 -0.3071  1.2174  1.0248
28971SOL    HW298639   4.256  11.171   9.672 -0.8483 -0.7350  1.3957
28972SOL     OW98640   8.647   6.767   8.613 -0.7471  0.2491  1.0666
28972SOL    HW198641   8.552   6.762   8.619 -0.9834  1.2159 -1.0417
28972SOL    HW298642   8.665   6.795   8.523  1.5938 -1.1577  0.9993
28973SOL     OW98643   1.806   3.928   7.606 -0.1461  0.6854 -0.5973
28973SOL    HW198644   1.842   3.878   7.532  0.5247 -0.1595  0.2788
28973SOL    HW298645   1.877   3.933   7.669 -0.2490  2.6485 -0.5822
28974SOL     OW98646  13.409   4.648   3.557  0.0466 -0.7579  0.0053
28974SOL    HW198647  13.357   4.710   3.506 -0.5859 -1.4974 -0.2610
28974SOL    HW298648  13.496   4.688   3.562 -1.0167  1.6280  2.3201
28975SOL     OW98649   7.685  11.487   6.054  0.1238  0.4254  0.3350
28975SOL    HW198650   7.631  11.538   6.113 -1.1421 -0.4333 -0.0474
28975SOL    HW298651   7.630  11.471   5.978  0.1280 -2.2216  0.8012
28976SOL     OW98652  12.718   9.282   6.648 -0.5358 -0.2466  0.1455
28976SOL    HW198653  12.623   9.292   6.646 -0.6022 -0.1578  1.9803
28976SOL    HW298654  12.739   9.231   6.570 -1.7628  1.9111 -1.7211
28977SOL     OW98655   5.107   1.862   0.526  0.7122  0.5645  0.1358
28977SOL    HW198656   5.071   1.950   0.520 -2.5338 -0.6970 -4.0381
28977SOL    HW298657   5.056   1.820   0.595 -1.3991  0.7022 -1.2277
28978SOL     OW98658   0.125   9.894   2.898  0.4900 -0.3974 -0.1225
28978SOL    HW198659   0.159   9.959   2.960  0.2757 -0.6876  0.3074
28978SOL    HW298660   0.115   9.941   2.816  1.1517 -0.1012 -0.0368
28979SOL     OW98661  12.420   7.013   4.398  0.4136 -1.0133  0.4410
28979SOL    HW198662  12.386   7.064   4.324 -0.1211 -0.8807  0.7665
28979SOL    HW298663  12.425   7.077   4.470  1.2851 -1.0504  0.4286
28980SOL     OW98664   4.990   0.253   5.539 -0.1161 -0.4217 -0.5125
28980SOL    HW198665   5.063   0.314   5.527 -0.0538 -0.4016 -0.0565
28980SOL    HW298666   4.982   0.208   5.454 -0.0714  0.1123 -0.8012
28981SOL     OW98667   8.496   0.350  13.412  0.0318  0.4848 -0.3177
28981SOL    HW198668   8.511   0.445  13.413  0.9786  0.3417 -0.2043
28981SOL    HW298669   8.445   0.336  13.332  1.3118  0.9060 -1.2542
28982SOL     OW98670  10.827  10.358   2.823 -0.5964 -0.2265  0.4764
28982SOL    HW198671  10.759  10.381   2.760  1.5576  0.1156 -1.9207
28982SOL    HW298672  10.903  10.411   2.796  1.2055 -2.0090  1.7282
28983SOL     OW98673  10.930  11.687   1.467 -0.2464  0.1136 -0.4940
28983SOL    HW198674  10.963  11.683   1.556  1.5714 -1.2640 -1.1564
28983SOL    HW298675  10.837  11.667   1.474  0.0374 -0.7889  1.0178
28984SOL     OW98676  13.280   6.876   3.105  0.5655 -0.1597  0.5130
28984SOL    HW198677  13.293   6.809   3.038 -0.0164 -1.1348  1.3382
28984SOL    HW298678  13.360   6.928   3.103 -0.4589  1.5512 -2.7316
28985SOL     OW98679   6.102  13.442   9.086  0.2383 -0.5100 -0.2439
28985SOL    HW198680   6.007  13.441   9.080  0.1647 -2.8602  0.3829
28985SOL    HW298681   6.131  13.475   9.001 -1.0959  1.0800 -0.1427
28986SOL     OW98682   3.974   1.579  12.801  0.3002  0.3182  0.7720
28986SOL    HW198683   3.902   1.622  12.755 -0.3743 -1.1325  0.4228
28986SOL    HW298684   4.049   1.638  12.788 -0.5058  1.2180  0.0553
28987SOL     OW98685  12.551   3.892   5.000  0.2884  0.6395  0.0870
28987SOL    HW198686  12.511   3.960   4.946 -0.8814  0.1567  0.3033
28987SOL    HW298687  12.512   3.811   4.969 -0.1730  0.3184  1.4158
28988SOL     OW98688   6.020   4.486   9.267  0.4182 -0.0885  0.1475
28988SOL    HW198689   6.091   4.530   9.315  1.5108  0.2609 -1.6703
28988SOL    HW298690   5.962   4.557   9.239 -0.7350 -0.3832  1.7040
28989SOL     OW98691   5.689   3.270   4.623 -0.7218  0.2428 -0.1840
28989SOL    HW198692   5.628   3.197   4.638 -0.6726 -0.0043 -1.1534
28989SOL    HW298693   5.753   3.236   4.561  0.4052  0.5136  0.8044
28990SOL     OW98694   0.361   9.637  10.496 -0.0798  0.4424 -0.5312
28990SOL    HW198695   0.354   9.701  10.426  2.4449  2.4105  0.8112
28990SOL    HW298696   0.427   9.575  10.466 -0.3318  0.2244 -0.6333
28991SOL     OW98697  11.745   5.938   5.304 -0.1950 -0.7794  0.3253
28991SOL    HW198698  11.787   5.984   5.378  1.5498 -0.1106 -1.0005
28991SOL    HW298699  11.653   5.931   5.330 -0.3500  2.4942  1.1223
28992SOL     OW98700   4.253  10.041  11.255 -1.1601 -0.0309 -0.0558
28992SOL    HW198701   4.202  10.121  11.242 -1.3088 -0.4687 -2.8122
28992SOL    HW298702   4.283  10.017  11.168  1.7665 -1.1668  1.1329
28993SOL     OW98703  11.167   0.089   3.338 -0.0728  0.0195  0.2702
28993SOL    HW198704  11.246   0.114   3.291 -0.5280 -0.4427 -0.7788
28993SOL    HW298705  11.192   0.011   3.388 -0.1827 -0.9294 -1.1033
28994SOL     OW98706  11.928   4.862  10.240 -0.3672  0.0897 -0.2879
28994SOL    HW198707  11.980   4.875  10.319  0.1913  1.9636 -0.8955
28994SOL    HW298708  11.992   4.845  10.171 -0.5441  1.7604 -0.9216
28995SOL     OW98709   9.077   6.554   3.673  0.4034  0.6201 -0.4527
28995SOL    HW198710   9.052   6.582   3.761  2.2669 -0.8804  0.6187
28995SOL    HW298711   9.064   6.459   3.673 -0.1231  0.6509 -2.0352
28996SOL     OW98712   6.052  13.396   8.277  0.0969 -0.3578  0.3533
28996SOL    HW198713   6.119  13.447   8.231  0.3641  0.7518  1.9140
28996SOL    HW298714   6.095  13.312   8.295  1.0979  0.3471  1.3510
28997SOL     OW98715   0.025   0.436  12.798 -0.4524  0.1469 -0.1805
28997SOL    HW198716   0.007   0.412  12.889  1.4859 -0.0429  0.1942
28997SOL    HW298717   0.105   0.487  12.802 -1.1078  1.3686 -1.6659
28998SOL     OW98718   9.420   4.110   1.043 -0.5421  0.0253  0.2566
28998SOL    HW198719   9.435   4.193   1.089  0.3804 -0.8561  1.6014
28998SOL    HW298720   9.362   4.134   0.970  0.9106  2.1223 -0.3035
28999SOL     OW98721   8.076   6.105   6.990  0.1130  0.3538 -0.6640
28999SOL    HW198722   8.151   6.047   7.004  1.6582  2.3205 -0.2778
28999SOL    HW298723   8.084   6.132   6.898  0.8383  1.7395 -0.2323
29000SOL     OW98724  12.990   9.753   5.130 -0.0367  0.4713  0.5095
29000SOL    HW198725  13.046   9.773   5.205  1.4464 -0.6188 -0.2387
29000SOL    HW298726  12.959   9.664   5.146  2.8965 -1.0947 -1.5445
29001SOL     OW98727   6.081  11.524   0.769 -0.2196  0.0247  0.3030
29001SOL    HW198728   6.021  11.593   0.742 -0.8781 -0.2459  1.0199
29001SOL    HW298729   6.166  11.549   0.732 -0.7006  0.5917 -0.4377
29002SOL     OW98730  12.386  13.512   4.468  0.4835 -0.3280  0.2008
29002SOL    HW198731  12.432  13.545   4.391 -0.4234 -0.2625 -0.3378
29002SOL    HW298732  12.446  13.449   4.507  0.4243 -1.4139 -1.3664
29003SOL     OW98733   9.370  11.152  13.002 -0.2350  0.4865 -0.0871
29003SOL    HW198734   9.382  11.104  13.084 -2.1272 -3.4496 -1.8325
29003SOL    HW298735   9.286  11.196  13.012  0.2394  1.2896  0.5456
29004SOL     OW98736   2.061   2.360   9.993 -0.4539 -0.4408 -0.2197
29004SOL    HW198737   2.122   2.409  10.048 -0.2148  0.8487 -1.5614
29004SOL    HW298738   2.017   2.300  10.053  2.0428 -1.3610  0.8156
29005SOL     OW98739   5.669  11.278  13.502  0.4747 -0.3598  0.1641
29005SOL    HW198740   5.624  11.233  13.573 -1.2125  1.8232  0.6071
29005SOL    HW298741   5.607  11.275  13.429  0.3329  1.0612  0.1877
29006SOL     OW98742  11.960   2.784   7.565 -0.0366  0.1705  0.2593
29006SOL    HW198743  12.033   2.749   7.617 -0.3794 -0.2712  0.4541
29006SOL    HW298744  11.942   2.716   7.500  2.1099  1.7732 -2.2413
29007SOL     OW98745   2.793   1.597   2.063  0.2585  0.2101  0.0360
29007SOL    HW198746   2.756   1.597   1.974  0.6814 -1.1680 -0.1590
29007SOL    HW298747   2.725   1.557   2.117  0.3457  0.2732  0.1935
29008SOL     OW98748   0.289   1.044   0.855  0.1271 -0.0751  0.1473
29008SOL    HW198749   0.312   1.130   0.820 -1.5343  0.4910  0.3563
29008SOL    HW298750   0.250   0.998   0.781  0.4735 -0.4495  0.1907
29009SOL     OW98751   7.403   0.672   2.393 -0.3361 -0.6244 -0.2892
29009SOL    HW198752   7.450   0.654   2.311 -1.3433 -1.1523 -0.7755
29009SOL    HW298753   7.311   0.676   2.367 -0.7385 -1.4636  0.9134
29010SOL     OW98754  10.164  12.722   7.786  0.2835 -0.1506 -0.2131
29010SOL    HW198755  10.069  12.721   7.797  0.1965 -1.4097 -0.8788
29010SOL    HW298756  10.185  12.812   7.762 -0.8439 -0.0488 -0.8633
29011SOL     OW98757   2.914   4.464   3.887  0.0010  0.1626 -0.2714
29011SOL    HW198758   2.874   4.402   3.826  0.7022  1.7878 -2.5071
29011SOL    HW298759   2.938   4.411   3.963 -0.5841 -2.0437 -1.5418
29012SOL     OW98760   8.414   3.407   9.108  0.2396 -0.0116 -1.0220
29012SOL    HW198761   8.384   3.376   9.193  1.0865  0.5885 -0.4945
29012SOL    HW298762   8.410   3.329   9.052 -2.3361  0.0538 -1.0285
29013SOL     OW98763  12.288   8.955   8.385 -0.4686  0.4312 -0.7900
29013SOL    HW198764  12.326   9.037   8.418 -2.0839  1.0382 -0.3780
29013SOL    HW298765  12.364   8.896   8.377  0.2819  0.7281  2.5806
29014SOL     OW98766  10.673   8.437   0.838 -0.0247 -0.5797  0.2444
29014SOL    HW198767  10.758   8.464   0.804  0.0949  0.0286  1.0217
29014SOL    HW298768  10.687   8.348   0.870  0.9990  0.3837  2.6783
29015SOL     OW98769  10.122   5.210   6.574 -0.0081  0.3648  0.0415
29015SOL    HW198770  10.092   5.216   6.665 -0.6680 -1.3015 -0.0376
29015SOL    HW298771  10.049   5.169   6.528  0.2025  1.4777 -1.3170
29016SOL     OW98772   5.755  12.470   0.806  0.0678 -0.1943  0.2284
29016SOL    HW198773   5.737  12.386   0.849 -1.2073  1.7469  3.9917
29016SOL    HW298774   5.846  12.464   0.778  0.6059 -2.1881  2.1274
29017SOL     OW98775   3.244   6.535   2.993 -0.6907 -0.1371  0.0233
29017SOL    HW198776   3.224   6.456   2.944 -3.3694  0.7786 -0.5724
29017SOL    HW298777   3.215   6.516   3.082  0.2372 -0.3722  0.2831
29018SOL     OW98778   5.778  10.031  10.112 -0.2505  0.4146 -0.1876
29018SOL    HW198779   5.686  10.043  10.088 -0.4544 -0.2691  0.2149
29018SOL    HW298780   5.816  10.118  10.107 -0.4043  0.3954 -2.4143
29019SOL     OW98781  11.829   9.365   0.111 -0.0323 -0.0162  0.0256
29019SOL    HW198782  11.754   9.365   0.051 -1.0239  1.7344  1.1808
29019SOL    HW298783  11.847   9.272   0.127 -0.6187 -0.5083 -1.8601
29020SOL     OW98784   4.940  13.705   3.936 -0.5839 -0.0609  0.0308
29020SOL    HW198785   4.917  13.617   3.966 -2.0059 -0.1205 -1.1404
29020SOL    HW298786   5.025  13.723   3.977 -0.2431 -1.9910  0.2517
29021SOL     OW98787   4.157   4.048   5.850 -0.7981 -0.5173 -0.5143
29021SOL    HW198788   4.200   3.994   5.917  0.6961  2.2005  0.9050
29021SOL    HW298789   4.196   4.020   5.768  0.9213 -0.7249  0.3203
29022SOL     OW98790  12.277   6.753   7.447 -0.1390  0.4684 -0.4568
29022SOL    HW198791  12.282   6.660   7.425 -1.2466  0.5250 -0.9866
29022SOL    HW298792  12.349   6.794   7.399  1.6415 -0.3727  1.3322
29023SOL     OW98793   8.259   2.265   0.105  0.2421  0.0397  0.6528
29023SOL    HW198794   8.248   2.257   0.200 -0.1986 -1.5323  0.5041
29023SOL    HW298795   8.251   2.175   0.073  2.0610  0.3180 -0.7169
29024SOL     OW98796   8.419   7.532  12.119  0.0952  0.4895 -0.2729
29024SOL    HW198797   8.359   7.522  12.192 -1.0250 -0.3029 -1.2595
29024SOL    HW298798   8.369   7.581  12.053  0.3803 -0.4911 -1.2490
29025SOL     OW98799   0.458   9.974   1.088 -0.0712  0.1620  0.7504
29025SOL    HW198800   0.365   9.981   1.111 -0.1572 -1.6471  1.0972
29025SOL    HW298801   0.469  10.033   1.014 -1.9552 -1.0029 -0.5255
29026SOL     OW98802   3.349  10.044   9.553 -0.2400 -0.2512  0.0915
29026SOL    HW198803   3.366  10.129   9.594 -0.5584 -0.3043  0.3367
29026SOL    HW298804   3.362  10.059   9.459  1.6035 -0.3978  0.2824
29027SOL     OW98805   3.486   1.423   0.286 -0.4462  0.9460 -0.0309
29027SOL    HW198806   3.569   1.376   0.295 -0.6541  0.7395  0.8940
29027SOL    HW298807   3.450   1.426   0.375 -1.1045  1.6329 -0.3126
29028SOL     OW98808   4.288   0.608  13.182 -0.7447 -0.4176  0.2250
29028SOL    HW198809   4.200   0.598  13.146 -0.3145 -0.2305 -0.9097
29028SOL    HW298810   4.314   0.519  13.206 -0.3234 -0.8514 -1.6843
29029SOL     OW98811   9.025   5.508   5.707  0.2109 -0.6658  0.1380
29029SOL    HW198812   9.095   5.553   5.659  0.6749 -1.1811  0.3233
29029SOL    HW298813   9.071   5.450   5.767 -0.3848 -1.7077 -0.3841
29030SOL     OW98814  12.736   8.076   0.210  0.7604 -0.7600  0.2719
29030SOL    HW198815  12.756   8.157   0.163  1.5492 -2.2546 -2.1622
29030SOL    HW298816  12.789   8.081   0.289 -0.8893  2.0268  1.3619
29031SOL     OW98817   3.843  12.991   3.434 -0.2732 -0.6848 -0.1548
29031SOL    HW198818   3.854  13.075   3.389 -0.1863 -0.9073 -0.5590
29031SOL    HW298819   3.760  12.998   3.480  0.5572  0.2745  1.2557
29032SOL     OW98820  12.475  10.809  11.799  0.6422  0.3644 -0.4045
29032SOL    HW198821  12.437  10.886  11.842  1.8767  0.2565  0.9762
29032SOL    HW298822  12.560  10.839  11.767  1.3790 -0.5204  0.6241
29033SOL     OW98823   5.661   1.460   6.137  0.6362 -0.3747  0.2292
29033SOL    HW198824   5.688   1.499   6.054 -1.1139  0.1738 -0.1318
29033SOL    HW298825   5.730   1.398   6.159  1.2155 -0.3996 -1.5565
29034SOL     OW98826   7.865   6.763   8.451  0.6591 -0.3172 -0.9912
29034SOL    HW198827   7.848   6.804   8.536  0.2507 -0.7415 -0.8693
29034SOL    HW298828   7.881   6.671   8.471  2.1600 -0.1270 -1.2047
29035SOL     OW98829  10.111  10.772  12.858  0.4298 -0.3314 -0.1780
29035SOL    HW198830  10.022  10.742  12.841  0.0362  1.8242 -2.6104
29035SOL    HW298831  10.100  10.853  12.908  0.9780 -0.0233 -0.5305
29036SOL     OW98832  12.698   8.848  10.767  0.0006 -0.2496  0.5347
29036SOL    HW198833  12.730   8.938  10.767 -0.9616  0.1165 -0.5238
29036SOL    HW298834  12.608   8.855  10.737  0.1957 -1.6600 -0.4640
29037SOL     OW98835   1.513   2.394   1.027 -0.4189  0.3031  0.2084
29037SOL    HW198836   1.422   2.364   1.036 -0.5728  0.5359 -0.5402
29037SOL    HW298837   1.506   2.487   1.006 -0.1299 -0.2617 -2.7814
29038SOL     OW98838   9.274  10.069   1.436 -0.3118  0.0808  0.5377
29038SOL    HW198839   9.351  10.097   1.387  1.0679 -1.1093  1.9073
29038SOL    HW298840   9.260   9.978   1.410 -1.7742  0.4985 -0.2717
29039SOL     OW98841   6.358   0.484  13.143 -0.7257  0.2234  0.3536
29039SOL    HW198842   6.391   0.558  13.193  0.5714 -0.3496  0.3993
29039SOL    HW298843   6.374   0.408  13.199  1.0665 -0.4799 -0.9962
29040SOL     OW98844  13.515   1.347   6.296 -0.5017  0.2871 -0.0289
29040SOL    HW198845  13.507   1.431   6.251 -1.4057 -0.0954 -0.6054
29040SOL    HW298846  13.563   1.291   6.235  0.6586  0.5442  0.6096
29041SOL     OW98847   5.614   6.934   7.801 -0.2900  0.4590  1.1410
29041SOL    HW198848   5.682   6.873   7.828  0.7278  1.1088  0.1264
29041SOL    HW298849   5.535   6.879   7.792  0.0767 -0.2960  2.3204
29042SOL     OW98850  13.297   1.645   3.245 -0.6188  0.2301 -0.1296
29042SOL    HW198851  13.280   1.652   3.339 -0.8683 -1.2809 -0.0415
29042SOL    HW298852  13.392   1.646   3.238 -0.5696 -0.5008  0.2403
29043SOL     OW98853   3.373   8.551   6.092 -0.3399 -0.1338 -0.6632
29043SOL    HW198854   3.328   8.493   6.030 -1.0950  2.1329 -2.3654
29043SOL    HW298855   3.413   8.491   6.155 -3.0308 -2.4099 -0.9137
29044SOL     OW98856   5.636   2.510   0.277  0.1271 -0.2231  0.7274
29044SOL    HW198857   5.580   2.462   0.216 -1.1152  0.4423  1.3157
29044SOL    HW298858   5.681   2.442   0.326  2.1181 -0.8131 -1.7032
29045SOL     OW98859  11.552   7.122   2.806  0.0459  0.3631 -0.3327
29045SOL    HW198860  11.634   7.080   2.782  1.1787  0.6594  2.6259
29045SOL    HW298861  11.523   7.076   2.885 -1.5298  1.6393 -0.1069
29046SOL     OW98862  13.030   6.303   4.435  0.2343 -0.1034 -0.2864
29046SOL    HW198863  13.048   6.397   4.438  0.4973 -0.0582 -1.9241
29046SOL    HW298864  12.957   6.290   4.495  0.8984  0.9553  0.7920
29047SOL     OW98865  13.530   8.731   2.419  0.3183 -0.3768  0.5133
29047SOL    HW198866  13.495   8.774   2.497 -4.2427 -0.7122 -1.0390
29047SOL    HW298867  13.540   8.801   2.355  0.8723 -0.5557  0.3971
29048SOL     OW98868   9.913  12.867  10.177 -0.0262  0.0558 -0.9051
29048SOL    HW198869   9.936  12.888  10.086  1.7869  0.7813 -0.3285
29048SOL    HW298870   9.856  12.791  10.170 -1.9330  1.5249 -2.7696
29049SOL     OW98871   0.287  11.340  13.231 -0.5839  0.5416  0.2802
29049SOL    HW198872   0.378  11.311  13.231 -1.4624 -2.5462  0.7421
29049SOL    HW298873   0.255  11.321  13.143 -1.2413 -0.1502  0.6502
29050SOL     OW98874   6.355   6.500   8.004  0.0675 -0.1600  0.2299
29050SOL    HW198875   6.447   6.479   7.985 -0.7101 -2.5539 -1.2974
29050SOL    HW298876   6.320   6.422   8.046 -1.4976  0.3801 -0.0083
29051SOL     OW98877  12.406   8.137   5.899 -0.2370 -0.1123 -0.1348
29051SOL    HW198878  12.316   8.129   5.868 -0.4840  1.2981  0.1696
29051SOL    HW298879  12.398   8.160   5.992  0.4814 -2.5534  0.6144
29052SOL     OW98880   3.068  12.660   9.413  0.3225 -0.5814  0.1143
29052SOL    HW198881   3.009  12.603   9.462  0.1254  1.8304  2.9571
29052SOL    HW298882   3.148  12.608   9.402 -0.5849 -2.1451  0.6063
29053SOL     OW98883   5.675  12.740   0.740 -1.0572 -0.0728 -0.2941
29053SOL    HW198884   5.675  12.648   0.715  0.0676 -0.5112  1.1884
29053SOL    HW298885   5.715  12.741   0.827 -0.1516  1.9237 -0.6857
29054SOL     OW98886   1.024   9.570  13.732 -0.4091  0.1751 -0.0875
29054SOL    HW198887   1.117   9.590  13.722  0.0463  0.1694  3.0471
29054SOL    HW298888   1.011   9.490  13.680  2.0536 -1.4079  1.5139
29055SOL     OW98889   0.781   0.180   5.985 -0.3550  0.2246  0.6659
29055SOL    HW198890   0.726   0.223   6.050 -0.2748  0.5496  0.5225
29055SOL    HW298891   0.870   0.196   6.014 -0.3251  0.1194  0.6333
29056SOL     OW98892   3.017   1.326  10.329  0.2169 -0.2329  0.2332
29056SOL    HW198893   3.008   1.400  10.390 -0.0083 -1.3216  1.5578
29056SOL    HW298894   2.961   1.350  10.255 -1.1367  0.2411  1.3521
29057SOL     OW98895  12.936  11.000   7.166 -0.1705  0.2673  0.3954
29057SOL    HW198896  12.907  10.947   7.240 -0.4165 -1.7720 -1.0794
29057SOL    HW298897  12.931  11.090   7.198 -1.2193 -0.4674  2.5177
29058SOL     OW98898   5.480  11.684   4.398  0.2599  0.0220  0.2996
29058SOL    HW198899   5.527  11.606   4.427 -2.1515 -1.8111 -0.3418
29058SOL    HW298900   5.387  11.663   4.412 -0.4962  3.1205  0.8483
29059SOL     OW98901   0.896   6.393   7.344  0.0577 -0.3999  0.3334
29059SOL    HW198902   0.825   6.375   7.405 -2.4601  1.4339 -1.8415
29059SOL    HW298903   0.888   6.325   7.276  1.0465 -0.7586  0.5509
29060SOL     OW98904   0.927   5.803   6.863 -0.4006 -0.2230 -0.2017
29060SOL    HW198905   0.912   5.760   6.947  0.6421 -0.1934  0.0257
29060SOL    HW298906   0.934   5.732   6.800 -1.2537 -0.2418 -0.2733
29061SOL     OW98907   1.364   1.302  10.291 -0.1546  0.1728  0.2106
29061SOL    HW198908   1.422   1.234  10.256  0.2240  0.0925  0.9696
29061SOL    HW298909   1.317   1.335  10.214  0.8356  0.1803 -0.4105
29062SOL     OW98910  12.058  12.683   5.885  0.2833  0.5865  0.0015
29062SOL    HW198911  12.122  12.751   5.908 -0.7796  1.4600  0.4886
29062SOL    HW298912  12.110  12.613   5.846  1.9669  0.0312  2.8990
29063SOL     OW98913   7.751   2.858   8.326 -0.0916  0.1690  0.0842
29063SOL    HW198914   7.732   2.831   8.416  0.2172 -0.0123  0.0958
29063SOL    HW298915   7.665   2.876   8.288 -0.1212  1.8193  0.8904
29064SOL     OW98916   8.735   9.856  10.705  0.0360  0.4574 -0.1955
29064SOL    HW198917   8.823   9.818  10.694 -0.2250  0.1710 -1.4431
29064SOL    HW298918   8.747   9.925  10.770  0.5965 -1.5250  1.9389
29065SOL     OW98919  12.280  12.788   1.669  0.1791  0.6969  0.0258
29065SOL    HW198920  12.199  12.805   1.718 -0.2885  1.7922 -1.0679
29065SOL    HW298921  12.251  12.741   1.591  0.9911 -1.6290  1.0223
29066SOL     OW98922   4.656  10.857   5.048  0.2330  0.0883  0.0071
29066SOL    HW198923   4.703  10.826   5.126 -1.1048  0.5608  1.0594
29066SOL    HW298924   4.575  10.805   5.048 -0.0215  0.4756 -0.7579
29067SOL     OW98925  12.755   7.776  10.641 -0.1993 -0.2030  0.6596
29067SOL    HW198926  12.819   7.718  10.602 -0.4800 -0.3229  0.3757
29067SOL    HW298927  12.687   7.786  10.575  0.3323  1.2765  0.2898
29068SOL     OW98928   2.174   4.839   4.179 -0.2775  0.3678 -0.5671
29068SOL    HW198929   2.079   4.825   4.189 -0.5102  2.2628  0.2008
29068SOL    HW298930   2.205   4.759   4.136 -2.4124  0.1960 -1.9494
29069SOL     OW98931   3.164   6.720   6.666  0.3290 -0.1255 -0.0675
29069SOL    HW198932   3.078   6.678   6.665 -0.1752  0.6870  2.3065
29069SOL    HW298933   3.226   6.647   6.675 -0.3244 -0.5823  0.9272
29070SOL     OW98934   9.436   5.764   9.502  0.3699 -0.2536  0.3420
29070SOL    HW198935   9.487   5.748   9.582  0.8110  0.1647  0.1485
29070SOL    HW298936   9.386   5.844   9.521  2.4108  1.3454 -0.7036
29071SOL     OW98937  13.369   6.135   0.714 -0.4717  0.1957  0.4246
29071SOL    HW198938  13.387   6.098   0.800  1.8567  2.6187  1.1324
29071SOL    HW298939  13.283   6.102   0.691 -0.2896 -2.2039  2.7324
29072SOL     OW98940   1.577   1.567   7.142 -0.1947 -0.1028 -0.0338
29072SOL    HW198941   1.634   1.644   7.143 -0.4322  0.0742  0.0588
29072SOL    HW298942   1.634   1.494   7.166  0.5563 -0.3382 -2.3368
29073SOL     OW98943   5.775   3.727  13.557  0.1221  0.1316 -0.0429
29073SOL    HW198944   5.806   3.637  13.565 -1.0395 -0.5239 -2.0379
29073SOL    HW298945   5.683   3.722  13.582  0.5582  1.2561  1.9749
29074SOL     OW98946   8.615   9.140  11.244  0.3600  0.1430 -0.0045
29074SOL    HW198947   8.687   9.203  11.249  0.5186 -0.0772  0.5682
29074SOL    HW298948   8.536   9.193  11.241  0.4431  0.3712  1.3342
29075SOL     OW98949  11.822   2.914   6.684  0.1968  0.3905 -0.3671
29075SOL    HW198950  11.743   2.935   6.634  0.7067  1.0591 -0.8999
29075SOL    HW298951  11.827   2.982   6.751  0.0968  0.1036 -0.0629
29076SOL     OW98952   0.697   9.521   4.431 -0.4298  0.5576 -0.0990
29076SOL    HW198953   0.750   9.467   4.489  0.0116 -1.5647 -2.3336
29076SOL    HW298954   0.607   9.502   4.456 -0.2518 -0.4461 -0.2067
29077SOL     OW98955   4.978  13.203   4.474  0.3063 -0.7250  0.3832
29077SOL    HW198956   4.885  13.211   4.493  0.0780 -1.6121 -0.3162
29077SOL    HW298957   4.994  13.266   4.403  0.8348  1.4291  2.2910
29078SOL     OW98958  10.416   5.452   1.317 -0.0410  0.3628  0.4533
29078SOL    HW198959  10.342   5.488   1.365 -0.2626  0.4333  0.0590
29078SOL    HW298960  10.377   5.410   1.240  0.5336  2.8237 -1.2703
29079SOL     OW98961   2.898  12.002   7.259  0.5931 -0.0142  0.2548
29079SOL    HW198962   2.810  12.018   7.292  1.1179  3.5085  0.3155
29079SOL    HW298963   2.932  11.932   7.315 -1.5214 -0.2181  1.3904
29080SOL     OW98964  12.303  12.827   0.957  0.0834  0.2582  0.5231
29080SOL    HW198965  12.219  12.847   0.917  0.5563  0.9907 -0.1466
29080SOL    HW298966  12.304  12.877   1.038  0.7904  2.1433 -0.5913
29081SOL     OW98967  11.478   2.299   9.891  0.2655  0.0461 -0.0274
29081SOL    HW198968  11.527   2.268   9.967  0.7114  0.0373 -0.3110
29081SOL    HW298969  11.447   2.220   9.848  0.3485  0.0365 -0.0702
29082SOL     OW98970   9.178   3.394   8.316  0.4206  0.1655  0.2471
29082SOL    HW198971   9.220   3.436   8.391  0.5735 -0.5155  0.5469
29082SOL    HW298972   9.125   3.464   8.276 -1.1664  0.0935  2.0836
29083SOL     OW98973   7.398   4.619   0.101  0.7069 -0.2844 -0.0522
29083SOL    HW198974   7.350   4.564   0.163  0.1376  0.2901  0.0296
29083SOL    HW298975   7.396   4.571   0.019 -0.1848 -0.1820 -0.0973
29084SOL     OW98976  12.108   9.814  10.709  0.2143  0.5342 -0.6682
29084SOL    HW198977  12.098   9.802  10.804 -0.7648  0.6452 -0.7413
29084SOL    HW298978  12.018   9.819  10.677  0.5439  1.3590 -1.4960
29085SOL     OW98979  12.047   1.855   9.582  0.4549  0.8852  0.6635
29085SOL    HW198980  12.105   1.837   9.657  1.3614  2.4264  0.3719
29085SOL    HW298981  11.971   1.799   9.597  0.9917  0.5274  2.2840
29086SOL     OW98982  11.816  10.842   8.524 -0.3836  0.1629  0.2296
29086SOL    HW198983  11.827  10.854   8.618  0.9565 -1.0110  0.2539
29086SOL    HW298984  11.789  10.928   8.492 -2.7008  0.1497  1.9079
29087SOL     OW98985   3.618   1.328   2.310 -0.0540 -0.6893 -0.0187
29087SOL    HW198986   3.580   1.283   2.235  1.5255 -0.1125 -1.2424
29087SOL    HW298987   3.653   1.258   2.365 -0.2997 -1.0836 -0.3592
29088SOL     OW98988  13.123  10.114  12.159 -0.1033  0.3226 -0.3392
29088SOL    HW198989  13.099  10.133  12.068 -0.6416  0.6897 -0.1317
29088SOL    HW298990  13.161  10.196  12.191  1.4729 -0.2565 -0.6626
29089SOL     OW98991   9.539  12.457  12.307 -0.0229 -0.1308 -0.4470
29089SOL    HW198992   9.632  12.465  12.330 -0.2345  1.0825  0.0405
29089SOL    HW298993   9.529  12.365  12.283  1.1443 -0.4620  0.2183
29090SOL     OW98994  11.733   8.111  12.579 -0.6969  0.2346  0.1058
29090SOL    HW198995  11.656   8.054  12.579 -1.0804  0.7479  0.5861
29090SOL    HW298996  11.732   8.153  12.494 -1.3666  0.7982  0.3869
29091SOL     OW98997   9.944   0.066   2.671 -0.1528 -0.3830  0.3011
29091SOL    HW198998  10.032   0.105   2.679  0.1782 -0.9416 -0.4698
29091SOL    HW298999   9.915   0.092   2.584 -1.4334  1.1247  1.1304
29092SOL     OW99000   5.171  12.643   7.532 -0.0999 -0.2509 -0.0328
29092SOL    HW199001   5.212  12.641   7.445 -0.9408  1.2334 -0.4983
29092SOL    HW299002   5.108  12.715   7.527  0.9281  0.9205  2.3161
29093SOL     OW99003  12.452  11.810   9.367 -0.1513  0.7691 -0.8914
29093SOL    HW199004  12.360  11.806   9.340 -1.0663  0.0789  1.9591
29093SOL    HW299005  12.477  11.901   9.352 -1.1219  0.8570 -2.1613
29094SOL     OW99006   4.517   6.410   7.116  0.2361 -0.3130 -0.0678
29094SOL    HW199007   4.505   6.337   7.054 -0.7557  0.0305 -0.3019
29094SOL    HW299008   4.444   6.469   7.098  1.1750  0.8912 -0.0679
29095SOL     OW99009   0.965   6.442   6.972 -0.1495  0.0086  0.1475
29095SOL    HW199010   0.985   6.508   6.906  3.4612 -0.3708  0.6884
29095SOL    HW299011   0.878   6.466   7.004  0.1500  3.2689 -1.1156
29096SOL     OW99012  13.016   2.528  11.714 -0.3235 -0.0032 -0.2966
29096SOL    HW199013  13.005   2.510  11.620 -1.2470  1.9332 -0.6134
29096SOL    HW299014  13.076   2.459  11.745 -1.0009 -1.4548 -2.0131
29097SOL     OW99015   0.836  11.763  13.154  0.3191  0.3361  0.0493
29097SOL    HW199016   0.775  11.766  13.228 -0.3394  1.0768 -0.4924
29097SOL    HW299017   0.787  11.804  13.082  1.7745  1.8096 -0.1712
29098SOL     OW99018   6.711   3.478   1.548 -0.5952 -0.0361 -0.0608
29098SOL    HW199019   6.658   3.475   1.469  0.6110  1.9776 -1.0384
29098SOL    HW299020   6.798   3.505   1.518  0.6221 -1.7624  1.6462
29099SOL     OW99021   8.256  12.520   8.923  0.1542 -0.8482 -0.0699
29099SOL    HW199022   8.347  12.549   8.920 -0.6379  2.0379 -0.0362
29099SOL    HW299023   8.225  12.530   8.832  0.1196 -2.9089 -0.3233
29100SOL     OW99024   1.885  11.313  10.165 -0.2733  0.0247 -0.1171
29100SOL    HW199025   1.964  11.346  10.122 -0.6642  0.8163 -0.2655
29100SOL    HW299026   1.912  11.293  10.254  0.6248 -1.9453 -0.7835
29101SOL     OW99027  11.467  10.687   0.254  0.1849  0.5126 -0.5501
29101SOL    HW199028  11.399  10.620   0.247  0.6349 -0.0489  0.2698
29101SOL    HW299029  11.422  10.769   0.233 -0.2359 -0.1016 -2.1143
29102SOL     OW99030  10.885   0.450   2.934 -0.5099 -0.3790  0.6409
29102SOL    HW199031  10.942   0.428   2.860  0.5436  1.6775  0.7806
29102SOL    HW299032  10.841   0.367   2.956  2.9637 -2.3298  1.0043
29103SOL     OW99033  10.251   4.761  11.121  0.6058 -0.2056  0.8547
29103SOL    HW199034  10.307   4.683  11.129 -0.0965 -0.8171  0.0700
29103SOL    HW299035  10.224   4.761  11.029  1.1774  1.3903  0.6633
29104SOL     OW99036   0.890   1.904   4.791  0.2310  0.4364 -0.4185
29104SOL    HW199037   0.889   1.951   4.707 -1.9983 -0.0784 -0.7525
29104SOL    HW299038   0.934   1.822   4.772 -2.2998 -0.7328 -1.8145
29105SOL     OW99039   7.874  11.138   3.006 -0.0086 -0.1542 -0.3276
29105SOL    HW199040   7.845  11.080   2.936 -2.0601  0.3165  0.0603
29105SOL    HW299041   7.810  11.124   3.076  0.2926  1.4980  0.3179
29106SOL     OW99042   9.609   5.677  12.345 -0.0147 -0.4712  0.6078
29106SOL    HW199043   9.600   5.740  12.417  1.4943  0.3919  0.0717
29106SOL    HW299044   9.690   5.630  12.364 -0.1572 -0.9665  0.0170
29107SOL     OW99045   0.754   6.956   9.699 -0.4629 -0.1437  0.2287
29107SOL    HW199046   0.697   7.020   9.657  0.7390  0.5857 -0.3474
29107SOL    HW299047   0.773   6.892   9.630  0.4966  0.3674 -0.0023
29108SOL     OW99048  10.207   7.858   2.736 -0.1146  0.2109 -0.6242
29108SOL    HW199049  10.280   7.826   2.789 -1.0099 -0.6828  0.1217
29108SOL    HW299050  10.234   7.945   2.707  0.7594  0.3634  0.5868
29109SOL     OW99051   9.215   4.079   1.752 -0.2218  0.1736 -0.2025
29109SOL    HW199052   9.179   4.010   1.806 -0.7746  0.3250 -0.3710
29109SOL    HW299053   9.238   4.036   1.669  2.1680 -0.4146  0.6739
29110SOL     OW99054   9.247  11.615   9.537  0.5269 -0.5357  0.2346
29110SOL    HW199055   9.236  11.699   9.493  0.4611 -0.9737 -0.6045
29110SOL    HW299056   9.162  11.572   9.531  0.5770 -0.6971  0.5990
29111SOL     OW99057   9.049   1.343   5.251 -0.2463  0.4774  0.0103
29111SOL    HW199058   9.001   1.282   5.308  0.6300  0.5146  0.8139
29111SOL    HW299059   9.141   1.322   5.267  0.0589 -0.8108 -2.7998
29112SOL     OW99060   7.096   4.105   1.375  0.0200 -0.1051 -0.0684
29112SOL    HW199061   7.137   4.043   1.314  1.7796  1.7690 -0.9339
29112SOL    HW299062   7.084   4.056   1.456  0.2368 -1.8912 -1.0834
29113SOL     OW99063  12.141   4.368   3.082 -0.3615  0.0251 -0.3409
29113SOL    HW199064  12.116   4.314   3.157  0.4644  0.2555  0.1192
29113SOL    HW299065  12.236   4.360   3.077 -0.4637 -0.5154 -1.7943
29114SOL     OW99066   9.676   6.381  12.122 -0.4690  0.0130  0.3741
29114SOL    HW199067   9.621   6.424  12.188 -0.4850 -1.1380  1.1435
29114SOL    HW299068   9.691   6.293  12.157 -0.8396 -0.7874 -1.3636
29115SOL     OW99069  11.681   1.450   9.755 -1.0745 -0.3487  0.0347
29115SOL    HW199070  11.586   1.449   9.765 -1.0924 -0.4815 -0.1476
29115SOL    HW299071  11.714   1.465   9.843 -1.2369 -1.2302  0.2578
29116SOL     OW99072   1.322   3.566   1.853 -0.4542  0.0973  0.3077
29116SOL    HW199073   1.268   3.500   1.897 -0.9248  0.1828 -0.1326
29116SOL    HW299074   1.362   3.518   1.780 -0.7421  0.2777  0.0282
29117SOL     OW99075  11.202   4.226  10.282 -0.3367 -0.1309  0.8251
29117SOL    HW199076  11.254   4.285  10.228 -0.3424  1.1239  2.1302
29117SOL    HW299077  11.117   4.222  10.239  1.0480 -3.1423 -2.0111
29118SOL     OW99078  11.366   2.088   2.426 -0.1771  0.2626  0.0566
29118SOL    HW199079  11.368   2.100   2.521 -1.8757  0.2231  0.1186
29118SOL    HW299080  11.397   2.172   2.391  4.0596 -0.8473  0.5906
29119SOL     OW99081   0.230  10.438   4.415  0.3125  0.4453  0.3789
29119SOL    HW199082   0.305  10.379   4.420 -0.2716 -0.4864 -1.1189
29119SOL    HW299083   0.267  10.521   4.385  0.8897  0.3331  0.7584
29120SOL     OW99084   5.096   0.153   2.491  0.2610 -0.0892 -0.3880
29120SOL    HW199085   5.122   0.067   2.458  0.8796 -0.1620  0.2559
29120SOL    HW299086   5.122   0.151   2.583 -1.0884  0.2430  0.0109
29121SOL     OW99087   0.505   3.042   6.567  0.2010 -0.5303  0.4911
29121SOL    HW199088   0.545   2.974   6.512  1.2426  0.3797  0.0622
29121SOL    HW299089   0.565   3.051   6.641 -1.6404 -2.3643  2.3240
29122SOL     OW99090   3.068   9.693   2.199 -1.1308 -0.2451 -0.9034
29122SOL    HW199091   3.073   9.600   2.220  0.2637  0.4040  2.1507
29122SOL    HW299092   2.982   9.720   2.231 -0.4452 -0.0018  0.8624
29123SOL     OW99093   3.701  10.181  11.425  0.4267 -0.3893 -0.0144
29123SOL    HW199094   3.655  10.265  11.413  0.5730 -0.5286 -1.6845
29123SOL    HW299095   3.760  10.175  11.350 -0.5203 -2.5869 -0.6509
29124SOL     OW99096   6.123   1.618   7.585  0.9232  0.2623  0.1146
29124SOL    HW199097   6.123   1.617   7.680  5.0717 -0.1542  0.2678
29124SOL    HW299098   6.105   1.710   7.562 -1.0206  0.1922  1.1568
29125SOL     OW99099   6.724  10.287  10.836 -0.3149  0.0873 -0.0278
29125SOL    HW199100   6.752  10.213  10.783 -1.7372 -1.1358  0.8427
29125SOL    HW299101   6.775  10.279  10.917  0.2886  0.6870 -0.3420
29126SOL     OW99102   1.590   5.185  12.001  0.1099 -0.1546  0.1953
29126SOL    HW199103   1.557   5.214  11.916  0.5347  2.5207  0.8506
29126SOL    HW299104   1.590   5.090  11.995 -0.8634 -0.0847 -2.4080
29127SOL     OW99105   2.974   0.739  10.258 -0.4955  1.1425  0.1596
29127SOL    HW199106   2.925   0.767  10.336 -2.0241  2.0096 -1.0428
29127SOL    HW299107   2.906   0.708  10.198  0.8414 -1.7590 -0.0020
29128SOL     OW99108   8.423   8.423   6.705  0.3726  0.0373  0.0126
29128SOL    HW199109   8.398   8.333   6.683  0.8223  0.5582 -3.1920
29128SOL    HW299110   8.339   8.470   6.712  0.1519 -0.5200  1.2513
29129SOL     OW99111  11.498   7.596  10.993  0.3532  0.4068 -0.3483
29129SOL    HW199112  11.434   7.624  10.928 -1.0536  1.6218  1.4425
29129SOL    HW299113  11.558   7.538  10.945 -1.8379 -0.4769 -2.2173
29130SOL     OW99114   1.724   7.547   3.878  0.3404 -0.2849  0.0604
29130SOL    HW199115   1.688   7.533   3.966  1.4275 -1.0957  0.3980
29130SOL    HW299116   1.819   7.533   3.888  0.3915 -1.1949 -1.3989
29131SOL     OW99117   2.470  11.646   2.245 -0.6640  0.5847 -0.6917
29131SOL    HW199118   2.535  11.705   2.207 -0.9581  1.2427 -0.1969
29131SOL    HW299119   2.429  11.697   2.315 -0.5809 -0.3734  0.0833
29132SOL     OW99120   0.956   1.963   5.445  0.6266 -0.2686 -0.3801
29132SOL    HW199121   1.029   2.020   5.470  1.1247 -1.4563  1.0209
29132SOL    HW299122   0.884   1.989   5.502  1.0500 -1.4115  0.7285
29133SOL     OW99123   3.801   1.745   6.108 -0.2796  0.2428 -0.6946
29133SOL    HW199124   3.714   1.738   6.149 -0.4522  1.5637 -0.7747
29133SOL    HW299125   3.783   1.746   6.014  0.0943 -2.4847 -0.8716
29134SOL     OW99126   0.972   5.434   0.667 -0.1071  0.5896 -0.4326
29134SOL    HW199127   1.053   5.402   0.626 -0.2658  0.1318 -0.3953
29134SOL    HW299128   0.997   5.517   0.707  0.3633  0.4285 -0.3798
29135SOL     OW99129   8.167   3.700   6.248 -0.0652  0.4494  0.0072
29135SOL    HW199130   8.154   3.709   6.153 -1.1790  2.9843  0.3373
29135SOL    HW299131   8.256   3.731   6.263  0.4044 -0.6954 -0.2442
29136SOL     OW99132   2.530   4.281   8.689  0.3495 -0.3255 -0.0139
29136SOL    HW199133   2.523   4.313   8.779 -0.3465 -0.0104 -0.1766
29136SOL    HW299134   2.624   4.272   8.674  0.7403  3.4058 -0.5899
29137SOL     OW99135   0.301   3.469  13.369  0.9084 -0.1611  0.0332
29137SOL    HW199136   0.395   3.460  13.353  0.7297  1.1004 -2.0420
29137SOL    HW299137   0.292   3.555  13.409  0.6743 -0.5714  0.8884
29138SOL     OW99138   9.040  11.388   9.228  0.2140 -0.1155 -0.0877
29138SOL    HW199139   8.965  11.360   9.175 -0.7008  1.3001  0.3811
29138SOL    HW299140   9.115  11.381   9.169 -0.7114  1.0110 -1.4833
29139SOL     OW99141   5.710   9.062  10.649  0.4368 -0.5068 -0.1866
29139SOL    HW199142   5.739   9.047  10.739 -1.4652  0.5873  0.6768
29139SOL    HW299143   5.755   8.994  10.598  0.8477 -1.7622  1.7180
29140SOL     OW99144  10.552   7.670   3.396  0.0185  0.3232 -0.0710
29140SOL    HW199145  10.532   7.609   3.467 -1.0534  0.4961 -0.2043
29140SOL    HW299146  10.584   7.615   3.325  2.8694  0.3102  1.1123
29141SOL     OW99147  10.844   7.929   4.274  0.3514  0.3385 -0.3231
29141SOL    HW199148  10.820   8.020   4.293  0.0323  0.5986 -1.8491
29141SOL    HW299149  10.919   7.937   4.215  1.9881 -0.4377  1.5444
29142SOL     OW99150   7.546   8.990  12.302 -0.8491  0.4117 -0.0875
29142SOL    HW199151   7.622   9.036  12.339 -0.5728 -0.3975  0.3926
29142SOL    HW299152   7.535   8.914  12.359 -3.7598  1.9157  1.6139
29143SOL     OW99153   1.047   4.436   0.989 -0.2807 -0.4076  0.0424
29143SOL    HW199154   0.969   4.438   1.045  0.7311 -0.3539  1.5303
29143SOL    HW299155   1.110   4.384   1.039  0.6458 -0.4440 -1.1307
29144SOL     OW99156  12.246   7.894   3.329 -0.2673  0.2074 -0.7616
29144SOL    HW199157  12.306   7.846   3.271 -0.6830 -0.6130 -0.5389
29144SOL    HW299158  12.261   7.986   3.309  0.1486 -0.0347 -1.6170
29145SOL     OW99159  11.289  10.470  12.177 -0.1701  0.2823  0.1085
29145SOL    HW199160  11.258  10.538  12.117  0.7374  0.9443  0.3636
29145SOL    HW299161  11.210  10.439  12.222 -0.5573  1.3970  0.2179
29146SOL     OW99162   8.572   8.038   6.542 -0.2540 -0.2672 -0.0284
29146SOL    HW199163   8.601   8.120   6.502 -1.8297  0.1332 -0.4023
29146SOL    HW299164   8.620   8.034   6.626 -0.3660  1.1667  0.1197
29147SOL     OW99165  13.599   7.136  10.494  0.0083 -0.2853 -0.1981
29147SOL    HW199166  13.681   7.114  10.451  0.0398 -1.4174  0.4049
29147SOL    HW299167  13.597   7.232  10.494  0.9463 -0.2537 -0.9146
29148SOL     OW99168   7.817   3.662   5.302  0.2893  0.0288 -0.2606
29148SOL    HW199169   7.866   3.744   5.304  1.4628 -0.6527 -0.1530
29148SOL    HW299170   7.801   3.641   5.394 -0.3277  0.3082 -0.2980
29149SOL     OW99171   9.080   2.628   5.005  0.4492  0.5333  0.2302
29149SOL    HW199172   9.043   2.688   5.069 -0.1304  0.0002  0.4077
29149SOL    HW299173   9.149   2.678   4.962 -0.1251  1.3684  0.2641
29150SOL     OW99174   4.372  11.568   4.235 -0.6897  0.9248  0.1409
29150SOL    HW199175   4.330  11.654   4.235 -0.8656  0.8387  0.3232
29150SOL    HW299176   4.401  11.555   4.144  0.5444  1.7629  0.3891
29151SOL     OW99177   9.259  10.437   6.410  0.2827 -0.0351  0.5561
29151SOL    HW199178   9.319  10.508   6.387  1.0876 -0.9643 -0.3095
29151SOL    HW299179   9.174  10.465   6.374  0.9358 -0.2185 -1.2547
29152SOL     OW99180   4.285  12.685  13.417 -0.0893  0.7354 -0.5120
29152SOL    HW199181   4.276  12.723  13.330 -2.1239 -0.8458 -1.0632
29152SOL    HW299182   4.369  12.639  13.414 -0.3079  0.3916 -1.7660
29153SOL     OW99183  11.787   6.298  11.130  0.1155  0.0684 -0.1620
29153SOL    HW199184  11.807   6.209  11.102  0.0730  0.7901 -2.7769
29153SOL    HW299185  11.872   6.336  11.152  0.4107  0.0188 -1.1719
29154SOL     OW99186  12.463   4.727   2.432 -0.3058  0.2147 -0.0098
29154SOL    HW199187  12.400   4.746   2.502 -1.4496 -0.6360 -0.7632
29154SOL    HW299188  12.525   4.800   2.435 -2.3438  2.0781 -0.3512
29155SOL     OW99189   5.436   8.365   6.204 -0.0335  0.3517  0.0672
29155SOL    HW199190   5.378   8.304   6.249  0.7384  0.1541  0.8138
29155SOL    HW299191   5.480   8.412   6.274 -0.2059  1.3863 -0.4997
29156SOL     OW99192  13.002   3.862  10.886 -0.1855  0.0876  0.1852
29156SOL    HW199193  13.089   3.877  10.848 -0.1963  1.0485  0.5084
29156SOL    HW299194  12.946   3.844  10.811  0.2182 -0.1822 -0.0579
29157SOL     OW99195   7.551   7.285   6.925  0.1603  0.0241  0.0055
29157SOL    HW199196   7.487   7.214   6.918 -0.3709  0.4912  0.1242
29157SOL    HW299197   7.580   7.282   7.016 -0.3403  0.3737  0.1777
29158SOL     OW99198  11.401   2.832  11.201  0.1590  0.2241 -0.6804
29158SOL    HW199199  11.380   2.843  11.108  2.2027  1.3103 -1.0651
29158SOL    HW299200  11.473   2.893  11.217 -0.6432  0.6363  1.8270
29159SOL     OW99201  12.651   0.788  11.572 -0.5122  0.2130  0.0534
29159SOL    HW199202  12.573   0.742  11.602 -1.0967  0.8053 -0.5255
29159SOL    HW299203  12.724   0.737  11.607 -1.0909 -1.9369 -1.6529
29160SOL     OW99204   6.704  10.091  12.397 -0.2128 -0.1510  0.4872
29160SOL    HW199205   6.635  10.033  12.366 -0.4869  0.7450 -0.6709
29160SOL    HW299206   6.742  10.045  12.472 -1.6778 -0.9143  0.8016
29161SOL     OW99207   6.911   2.463  13.073  0.2685 -0.3412  0.5114
29161SOL    HW199208   6.996   2.447  13.033  1.2756  0.2557  2.2667
29161SOL    HW299209   6.903   2.395  13.140 -0.8104 -0.5997  0.1426
29162SOL     OW99210   0.270  12.747  13.022  0.1771  0.1933 -0.0145
29162SOL    HW199211   0.242  12.787  12.940  1.2840 -0.8401 -0.9435
29162SOL    HW299212   0.260  12.653  13.007  0.1137  0.0019  1.1580
29163SOL     OW99213  12.484   8.505   1.732  0.3553  0.3293 -0.3515
29163SOL    HW199214  12.439   8.449   1.668 -1.1932  1.8756 -0.6936
29163SOL    HW299215  12.512   8.581   1.682 -0.3320  1.2762  0.6534
29164SOL     OW99216   7.016   9.719  12.683  0.6170  0.2176  0.4591
29164SOL    HW199217   7.078   9.698  12.614 -0.0881 -1.5253  0.3002
29164SOL    HW299218   7.019   9.643  12.742 -1.0005  0.2835  0.6829
29165SOL     OW99219  13.579   9.223   7.316 -0.0507  0.1437  0.1353
29165SOL    HW199220  13.638   9.194   7.246  0.3420  0.8345  0.1738
29165SOL    HW299221  13.516   9.281   7.272 -0.6551 -0.5102  0.1116
29166SOL     OW99222   5.917   6.322   6.482  0.3407 -0.3183  0.2465
29166SOL    HW199223   5.917   6.410   6.444 -2.9126 -0.8759 -1.3804
29166SOL    HW299224   5.999   6.284   6.451  0.9008  1.4938 -0.6732
29167SOL     OW99225   4.126  10.026   6.398  0.3487  0.0722  0.4213
29167SOL    HW199226   4.215  10.002   6.371  0.0571  0.2369 -0.7465
29167SOL    HW299227   4.129  10.121   6.409  0.1489  0.1745 -0.3390
29168SOL     OW99228   0.085  10.359   0.178  0.2278  0.5388 -0.1050
29168SOL    HW199229  -0.000  10.356   0.223  1.8780  0.1289  3.3466
29168SOL    HW299230   0.118  10.269   0.185  1.1853  0.8124 -0.9182
29169SOL     OW99231  10.774  12.282  11.149 -0.2730 -0.1447  0.5361
29169SOL    HW199232  10.726  12.352  11.105  3.1219  2.5425  0.6183
29169SOL    HW299233  10.795  12.219  11.080 -0.9429  0.4065 -0.1877
29170SOL     OW99234  12.084   5.556   4.150 -0.5053  0.2172 -0.2458
29170SOL    HW199235  12.127   5.473   4.171  0.8988  0.4923 -1.7822
29170SOL    HW299236  12.114   5.617   4.217 -0.2913 -0.1498 -0.0065
29171SOL     OW99237  13.219   9.070  12.275  0.1622 -0.0632  0.6449
29171SOL    HW199238  13.180   9.135  12.217  1.7525  0.8581  0.5763
29171SOL    HW299239  13.250   9.001  12.217  0.6786  0.2933  0.4909
29172SOL     OW99240   3.996   8.685  10.010 -0.8325  0.0020 -0.3631
29172SOL    HW199241   4.044   8.756  10.052  1.0127 -1.1757 -0.3365
29172SOL    HW299242   3.988   8.711   9.918  1.7342 -0.6115 -0.8331
29173SOL     OW99243   5.157  13.009   3.986 -0.3167 -0.1735 -0.3519
29173SOL    HW199244   5.233  13.066   3.994  0.5242 -1.4975  1.9985
29173SOL    HW299245   5.179  12.950   3.914  1.0595 -0.7304  0.4891
29174SOL     OW99246   6.038   3.897   8.906  0.5146 -0.3936 -0.2829
29174SOL    HW199247   5.943   3.906   8.909  0.4674 -0.4133 -1.5572
29174SOL    HW299248   6.070   3.985   8.884  0.7865 -0.4600 -0.1609
29175SOL     OW99249   4.317  12.978   0.518 -0.3880 -0.0671 -0.4627
29175SOL    HW199250   4.228  13.009   0.505  0.2061  1.0175 -2.2526
29175SOL    HW299251   4.342  13.011   0.604 -1.0065  1.4460 -0.8333
29176SOL     OW99252  11.322   1.635  10.985 -0.3854 -0.0859  0.0168
29176SOL    HW199253  11.348   1.648  11.076  0.4336 -1.7983  0.0698
29176SOL    HW299254  11.330   1.721  10.944  0.7834  0.3863  1.1885
29177SOL     OW99255   4.559   1.339  10.719  0.2191 -0.0623 -0.1913
29177SOL    HW199256   4.631   1.357  10.779  0.2914 -0.5349 -0.1271
29177SOL    HW299257   4.484   1.324  10.777  0.1726 -0.0033 -0.2375
29178SOL     OW99258  11.273   5.699   3.192 -0.0169  0.6848  0.1256
29178SOL    HW199259  11.351   5.651   3.220 -0.1734  0.3107 -0.0716
29178SOL    HW299260  11.225   5.715   3.274  0.0460  0.5165  0.1968
29179SOL     OW99261   7.643   4.362  10.740  0.0432  0.3391 -0.0735
29179SOL    HW199262   7.642   4.399  10.828 -1.4209 -4.4468  2.2677
29179SOL    HW299263   7.732   4.331  10.728  0.5241  1.9105 -0.8442
29180SOL     OW99264   9.055   9.717   7.912  0.0035  0.4286 -0.8454
29180SOL    HW199265   8.990   9.666   7.864 -1.0427 -0.8497  1.7128
29180SOL    HW299266   9.024   9.715   8.003  2.7800  1.1603  0.2207
29181SOL     OW99267   5.244   0.072  10.551 -0.4348 -0.1854 -0.2013
29181SOL    HW199268   5.301   0.133  10.598 -1.4337  0.8353 -0.2622
29181SOL    HW299269   5.276   0.076  10.461 -1.1045  1.0265 -0.4035
29182SOL     OW99270   0.745   9.018   7.351  0.0728 -0.1853 -0.0294
29182SOL    HW199271   0.738   8.943   7.292 -1.0153  0.2801 -0.5033
29182SOL    HW299272   0.837   9.044   7.345  0.2163 -0.8117 -0.6864
29183SOL     OW99273   3.267   4.493   5.513 -0.1554  0.1775  0.2327
29183SOL    HW199274   3.256   4.453   5.599 -0.1782  2.1151  1.1707
29183SOL    HW299275   3.362   4.498   5.501 -0.1332  0.8688  0.6372
29184SOL     OW99276   6.083   8.190   9.006 -0.0425 -0.2463 -0.3024
29184SOL    HW199277   6.157   8.137   8.975 -0.7665 -2.2217  1.1413
29184SOL    HW299278   6.011   8.168   8.947 -0.0373  0.0469 -0.4190
29185SOL     OW99279  11.506   8.488   0.562 -0.1581 -0.1955 -0.6677
29185SOL    HW199280  11.549   8.563   0.603  1.4949 -1.3578 -0.1926
29185SOL    HW299281  11.513   8.504   0.468  0.4175  0.1220 -0.5745
29186SOL     OW99282   2.653  11.033  13.277  0.3843 -0.5652  0.1847
29186SOL    HW199283   2.697  11.018  13.193 -0.9618 -1.7082 -0.3466
29186SOL    HW299284   2.578  10.974  13.276 -0.7353  0.7642  1.3964
29187SOL     OW99285   0.608  13.551   6.652 -1.0493  0.3393  0.1019
29187SOL    HW199286   0.699  13.570   6.676 -0.5873 -1.8168  0.2313
29187SOL    HW299287   0.560  13.554   6.734 -0.7670 -0.1716  0.2892
29188SOL     OW99288   9.456   7.588   8.451 -0.0881  0.2026 -0.1857
29188SOL    HW199289   9.498   7.568   8.368  0.4363  1.6408 -0.2998
29188SOL    HW299290   9.375   7.539   8.450  0.5100 -0.8070 -0.9814
29189SOL     OW99291  13.583  10.166  12.802 -0.5811 -0.7323  0.8223
29189SOL    HW199292  13.651  10.201  12.860 -0.0641  2.9037 -1.6300
29189SOL    HW299293  13.510  10.145  12.860  0.6689  0.6217  3.0155
29190SOL     OW99294   8.740  11.805   1.795  0.4254  0.0576 -0.0855
29190SOL    HW199295   8.810  11.785   1.733  0.1766  1.1639 -0.7529
29190SOL    HW299296   8.780  11.791   1.881  0.3453 -2.9416 -0.4451
29191SOL     OW99297   7.388   8.596   9.885  0.1268  0.5101 -0.2346
29191SOL    HW199298   7.315   8.646   9.850 -1.0286 -1.0050 -0.0802
29191SOL    HW299299   7.377   8.508   9.849  1.0323 -0.1297  0.9460
29192SOL     OW99300  10.444  10.508   9.692 -0.1568 -0.5194  0.2671
29192SOL    HW199301  10.455  10.532   9.785 -0.6587 -1.7053  0.6499
29192SOL    HW299302  10.450  10.412   9.691  1.9468 -0.4351 -1.2348
29193SOL     OW99303   3.458   6.490   0.444 -0.0987 -0.4435 -0.0579
29193SOL    HW199304   3.459   6.509   0.537 -0.1866  1.3878 -0.4007
29193SOL    HW299305   3.483   6.572   0.402  1.0499 -1.5107 -1.6192
29194SOL     OW99306   6.909  12.472   5.262 -0.4347 -0.5894 -0.4442
29194SOL    HW199307   6.964  12.394   5.254  0.3954 -0.1367  0.5290
29194SOL    HW299308   6.872  12.467   5.350  0.0722  0.3759 -0.1632
29195SOL     OW99309   7.352  11.866   6.692  0.5187 -0.0509 -0.0612
29195SOL    HW199310   7.262  11.855   6.724  1.2359  0.0632  2.1585
29195SOL    HW299311   7.395  11.919   6.759  2.6466 -1.3486 -0.3126
29196SOL     OW99312   3.392   9.698   9.358  0.4297 -0.0547  0.2137
29196SOL    HW199313   3.326   9.755   9.397 -0.1440 -0.5261 -0.0576
29196SOL    HW299314   3.476   9.738   9.382  0.0542  0.3772  0.8149
29197SOL     OW99315   8.238   9.197  11.151  0.1719  0.1898  0.4333
29197SOL    HW199316   8.305   9.259  11.180  2.8906 -3.1599  2.0848
29197SOL    HW299317   8.287   9.127  11.110 -2.7454 -0.8529 -1.5413
29198SOL     OW99318   1.611   3.995   6.268  0.1637 -0.3285  0.0175
29198SOL    HW199319   1.688   4.047   6.245 -0.0258 -0.3165 -0.5905
29198SOL    HW299320   1.538   4.057   6.265  0.2088 -0.1961  1.2092
29199SOL     OW99321   3.779  11.883   8.245  0.6561  0.4229  0.0404
29199SOL    HW199322   3.786  11.795   8.207  0.8470  0.2895  0.3839
29199SOL    HW299323   3.820  11.876   8.331 -0.9802  0.3802  0.8598
29200SOL     OW99324   0.546   9.249   9.939 -0.0884 -0.1435  0.5092
29200SOL    HW199325   0.609   9.290   9.880 -0.1858  1.6060  1.5295
29200SOL    HW299326   0.466   9.243   9.888  0.1456  0.2615  0.0885
29201SOL     OW99327   9.401   6.654   0.710  0.1361  0.3488  0.4308
29201SOL    HW199328   9.472   6.699   0.664  0.1742  0.1193  0.2655
29201SOL    HW299329   9.427   6.657   0.802  0.7169 -0.3600  0.3027
29202SOL     OW99330  12.590   6.594   0.528 -0.1388  0.3708 -0.2132
29202SOL    HW199331  12.667   6.590   0.472  3.5866  0.6749  4.3274
29202SOL    HW299332  12.607   6.667   0.587 -3.2873 -0.3832  1.8719
29203SOL     OW99333   1.541   1.810   5.545  0.0949  0.5874  0.2690
29203SOL    HW199334   1.448   1.800   5.566  0.2651  1.2155  1.3933
29203SOL    HW299335   1.541   1.847   5.457 -0.7124  0.3959  0.1760
29204SOL     OW99336   2.855  11.391   2.901 -0.5677  0.2130  0.2186
29204SOL    HW199337   2.834  11.430   2.816 -1.9990 -1.1185 -0.0978
29204SOL    HW299338   2.916  11.452   2.941  0.8487  0.4549 -2.1190
29205SOL     OW99339   7.895   2.138   6.820  0.4424  0.2399 -0.3046
29205SOL    HW199340   7.882   2.104   6.732 -1.2699  1.6184 -0.6533
29205SOL    HW299341   7.814   2.115   6.866 -0.3055  2.6790 -0.2323
29206SOL     OW99342  10.337   4.269   6.826 -0.0257 -0.3089  0.2303
29206SOL    HW199343  10.353   4.179   6.798 -1.5148 -0.4978 -0.1159
29206SOL    HW299344  10.301   4.312   6.748  0.3546  0.4972  0.4894
29207SOL     OW99345   7.069  12.053   3.897 -0.2231 -0.1994 -0.0649
29207SOL    HW199346   7.127  11.977   3.907  1.8423  1.2405 -0.4211
29207SOL    HW299347   7.069  12.094   3.983  1.7908  1.4522 -0.7837
29208SOL     OW99348   3.394   5.101   0.038  0.3170 -0.4260 -0.1886
29208SOL    HW199349   3.375   5.099  -0.055  0.1734  0.8341 -0.2030
29208SOL    HW299350   3.311   5.125   0.079  0.8141  0.8852  0.0966
29209SOL     OW99351  10.481   7.176   6.193  0.5286 -0.2521  0.9137
29209SOL    HW199352  10.424   7.181   6.116  0.5854  1.1047  0.9276
29209SOL    HW299353  10.430   7.125   6.256  0.5623 -1.5458 -0.0645
29210SOL     OW99354   5.959   5.621   0.060 -0.1891 -0.3285  0.4839
29210SOL    HW199355   6.014   5.586  -0.010  1.1895  1.1807  0.7568
29210SOL    HW299356   5.904   5.686   0.017  0.2448  0.1748  0.6706
29211SOL     OW99357   6.334   1.754   4.805  0.0903  0.5321  0.1317
29211SOL    HW199358   6.420   1.754   4.846  0.6594  1.0078 -0.9957
29211SOL    HW299359   6.272   1.759   4.878  0.9489 -1.0560  1.0249
29212SOL     OW99360   1.955   7.345   2.657 -0.0000 -0.4079  0.1561
29212SOL    HW199361   1.951   7.336   2.562 -1.3294  1.7506 -0.0672
29212SOL    HW299362   1.992   7.432   2.671  1.6137 -1.2773  1.6984
29213SOL     OW99363   9.554   6.794   0.015  0.1269  0.0586  0.2243
29213SOL    HW199364   9.650   6.790   0.023  0.3734  2.5583 -0.6675
29213SOL    HW299365   9.522   6.782   0.104  1.1971 -1.7221  0.4089
29214SOL     OW99366   7.557  11.583   7.726 -0.3125  0.0491 -0.4178
29214SOL    HW199367   7.588  11.539   7.647 -0.4310 -2.7618  0.9862
29214SOL    HW299368   7.470  11.614   7.704 -0.0194  0.0612 -1.6416
29215SOL     OW99369   0.880  10.475  11.473  0.2839  0.6016  0.3509
29215SOL    HW199370   0.882  10.530  11.550  2.9677  0.1276  0.7007
29215SOL    HW299371   0.929  10.523  11.407 -0.2901  0.1238 -0.4501
29216SOL     OW99372   7.037   6.859   9.215 -0.1947 -0.3184 -0.2032
29216SOL    HW199373   7.033   6.770   9.251  1.1651 -1.2905 -2.2734
29216SOL    HW299374   7.116   6.897   9.254  0.5275 -0.8836 -1.0866
29217SOL     OW99375   7.465   2.910  12.649 -0.2036  0.2712  0.4367
29217SOL    HW199376   7.496   2.820  12.643  1.2420  0.6440  1.6748
29217SOL    HW299377   7.532   2.962  12.603 -0.2971  0.8541  0.9485
29218SOL     OW99378   8.105   1.779   3.848 -0.1937  0.9992  0.2976
29218SOL    HW199379   8.080   1.846   3.911 -1.3014  0.2362  0.7031
29218SOL    HW299380   8.040   1.710   3.859 -0.1283  0.6345 -1.3506
29219SOL     OW99381   7.432   9.815   1.446  0.3628 -0.8650 -0.4091
29219SOL    HW199382   7.348   9.861   1.440  0.0648 -1.5358 -1.4932
29219SOL    HW299383   7.442   9.770   1.362  1.5098 -1.3202 -0.0535
29220SOL     OW99384  13.288  13.459   1.498  0.1187  0.1934 -0.6260
29220SOL    HW199385  13.342  13.538   1.505 -1.2739  1.0481  1.9715
29220SOL    HW299386  13.222  13.480   1.432  1.5298 -0.0232 -2.1752
29221SOL     OW99387   2.039   4.075  10.418 -0.1834 -0.1342 -0.0088
29221SOL    HW199388   2.019   4.164  10.445  1.9868  0.4560 -0.1617
29221SOL    HW299389   1.954   4.035  10.399 -1.1648  2.0823 -0.5191
29222SOL     OW99390   7.847  13.562   2.354  0.0326  0.1484  0.1343
29222SOL    HW199391   7.895  13.487   2.388  0.0300  0.1060  0.0434
29222SOL    HW299392   7.857  13.556   2.259  0.1965  0.3721  0.1357
29223SOL     OW99393  12.208   4.765   2.197 -0.5213  0.4317 -0.2207
29223SOL    HW199394  12.252   4.690   2.236 -1.5184 -0.5401 -0.8725
29223SOL    HW299395  12.155   4.727   2.127  1.0581  2.0541 -2.4512
29224SOL     OW99396   5.497   8.236   8.445  0.1054  0.1011  0.2018
29224SOL    HW199397   5.523   8.273   8.530  0.0577 -0.6169  0.5340
29224SOL    HW299398   5.408   8.204   8.458 -0.0199  0.2673 -0.2136
29225SOL     OW99399   1.216   4.091   1.524  0.1864 -0.1649  0.2050
29225SOL    HW199400   1.297   4.140   1.511 -0.7361  1.2947 -0.2759
29225SOL    HW299401   1.155   4.154   1.561 -0.6693 -1.3096  0.8216
29226SOL     OW99402   1.733   2.969   5.161  0.3515  0.4566  0.1706
29226SOL    HW199403   1.682   2.958   5.081 -0.6831  1.5577  0.6607
29226SOL    HW299404   1.687   2.917   5.227  1.1537 -0.3793  0.0922
29227SOL     OW99405  10.963   1.790   5.186 -0.2958  0.0795  0.2344
29227SOL    HW199406  10.953   1.841   5.106  1.1850  1.7831  1.0505
29227SOL    HW299407  10.923   1.845   5.254 -1.9742 -1.5564  0.6443
29228SOL     OW99408  10.777   2.376   5.059 -0.7736  0.0435  0.5478
29228SOL    HW199409  10.808   2.466   5.065  0.8131 -0.3048 -1.3561
29228SOL    HW299410  10.753   2.365   4.967  1.0299 -2.0278  0.2228
29229SOL     OW99411   1.626   9.464   0.673  0.2509  0.0120 -0.0173
29229SOL    HW199412   1.669   9.527   0.732  0.9629 -1.2977  0.9125
29229SOL    HW299413   1.698   9.421   0.627 -0.2405 -0.0183 -0.7740
29230SOL     OW99414   2.623   9.292  13.350 -0.1690  0.9432  0.4961
29230SOL    HW199415   2.557   9.358  13.327 -1.3149 -0.2946  0.0795
29230SOL    HW299416   2.613   9.224  13.283 -0.7649 -0.8294  2.2920
29231SOL     OW99417   3.523  12.463   4.465  0.1341 -0.4410  0.0678
29231SOL    HW199418   3.498  12.472   4.373 -1.1374  0.0857  0.4419
29231SOL    HW299419   3.598  12.404   4.464  1.2384  0.9107 -1.4624
29232SOL     OW99420   0.895  11.562   4.706  0.1521  0.0575  0.3594
29232SOL    HW199421   0.817  11.618   4.710  0.6404  0.7991 -0.1310
29232SOL    HW299422   0.904  11.527   4.794 -0.4482  0.3749  0.5515
29233SOL     OW99423  11.814   2.626   9.420 -0.2821 -0.5062 -0.1351
29233SOL    HW199424  11.758   2.701   9.441  0.1502 -0.0817 -0.4696
29233SOL    HW299425  11.836   2.638   9.328  0.7205 -0.4197  0.1083
29234SOL     OW99426  12.486   6.836  11.980  0.1415 -0.5287  0.2731
29234SOL    HW199427  12.408   6.889  11.997 -1.2601 -3.0429  2.3794
29234SOL    HW299428  12.458   6.775  11.911  1.6735  1.1581 -1.9948
29235SOL     OW99429   1.961   8.346   0.606  1.1135  0.0648 -0.0733
29235SOL    HW199430   1.954   8.251   0.616  0.8199  0.0039 -0.7695
29235SOL    HW299431   2.029   8.372   0.668 -0.6894 -0.2269  2.1346
29236SOL     OW99432   9.214   8.241   7.201  0.3650 -0.5583 -0.0937
29236SOL    HW199433   9.164   8.165   7.231 -0.7070  0.1297 -0.1022
29236SOL    HW299434   9.218   8.299   7.277 -0.7129  0.3368 -0.6926
29237SOL     OW99435   0.682   9.142   5.785 -0.3815  0.5350 -0.1563
29237SOL    HW199436   0.700   9.233   5.763  0.8666  0.2310 -0.5162
29237SOL    HW299437   0.740   9.123   5.859 -1.7430  0.4510  0.9227
29238SOL     OW99438   1.752  13.072  11.047 -0.1589  0.0897  0.5717
29238SOL    HW199439   1.764  13.094  11.139  0.7255  0.9463  0.2659
29238SOL    HW299440   1.718  13.152  11.007  0.0503 -0.0808  0.0409
29239SOL     OW99441  10.727   0.041   9.757 -0.0710 -0.2073 -0.1795
29239SOL    HW199442  10.807   0.052   9.808 -1.2734 -2.9786  2.6715
29239SOL    HW299443  10.745  -0.033   9.700 -1.3263 -3.0547  2.7609
29240SOL     OW99444  11.832  11.512   4.090 -0.2492 -0.7285 -0.1602
29240SOL    HW199445  11.817  11.584   4.028 -2.1137  0.6129  1.6850
29240SOL    HW299446  11.901  11.544   4.147 -0.0439 -1.0491 -0.2265
29241SOL     OW99447   6.606   7.846   9.239  0.2606  0.1547  0.6600
29241SOL    HW199448   6.657   7.872   9.316 -0.4956 -0.9650  1.5824
29241SOL    HW299449   6.602   7.750   9.245  2.0861 -0.2094 -2.0119
29242SOL     OW99450   4.317  10.904   0.914  0.0846 -0.1188  0.1590
29242SOL    HW199451   4.281  10.825   0.955  0.9848 -0.8012 -0.3481
29242SOL    HW299452   4.397  10.923   0.964 -0.7480  1.2047  1.0710
29243SOL     OW99453  10.078   4.117  13.133 -0.6510 -0.1455 -0.1972
29243SOL    HW199454  10.094   4.045  13.194  0.6660  0.3424  0.0429
29243SOL    HW299455  10.045   4.188  13.188 -0.1791  0.0459 -0.1600
29244SOL     OW99456   9.005   5.470   6.718  0.2618  0.4593 -0.3511
29244SOL    HW199457   9.060   5.394   6.700 -0.1456  0.6390 -2.6792
29244SOL    HW299458   9.066   5.541   6.734  0.6530 -0.0261  0.3695
29245SOL     OW99459   7.644  10.306   7.863  0.0600  0.5855 -0.9949
29245SOL    HW199460   7.695  10.306   7.944 -0.3444  0.8194 -0.7379
29245SOL    HW299461   7.697  10.256   7.802 -0.3484 -0.9460 -0.1316
29246SOL     OW99462  11.775  13.194   5.091 -0.0906  0.1734  0.1842
29246SOL    HW199463  11.789  13.254   5.018  2.2954 -1.2984 -0.6764
29246SOL    HW299464  11.730  13.247   5.157  1.3304  2.7206 -0.7411
29247SOL     OW99465  11.581   1.994   6.999 -0.0051  0.2510  0.4383
29247SOL    HW199466  11.579   1.899   6.984  1.0899  0.0140  1.6060
29247SOL    HW299467  11.501   2.026   6.957 -2.3702 -1.6932  2.9970
29248SOL     OW99468   1.979   2.165  10.206 -0.0764 -0.9037 -0.1262
29248SOL    HW199469   2.055   2.208  10.246 -1.2524  2.2108 -0.8813
29248SOL    HW299470   1.917   2.153  10.278 -0.0365 -0.5409 -0.0295
29249SOL     OW99471   4.229   2.113  11.617 -0.1233 -0.2546 -0.4341
29249SOL    HW199472   4.177   2.128  11.696  0.5277  0.3094 -0.0988
29249SOL    HW299473   4.167   2.126  11.545 -0.2743  1.2616 -0.0711
29250SOL     OW99474   9.172   8.016   4.215  0.5391  0.2708  0.3247
29250SOL    HW199475   9.244   8.050   4.269 -0.2078  0.0279  1.5044
29250SOL    HW299476   9.144   8.091   4.162  0.0748  1.0457  1.6221
29251SOL     OW99477   1.825   2.393   9.849 -0.4763 -0.1539  0.0045
29251SOL    HW199478   1.912   2.395   9.890  0.2534  2.6481 -1.4452
29251SOL    HW299479   1.766   2.422   9.919 -0.1277 -1.1137  0.7191
29252SOL     OW99480   9.870   6.465   7.089 -0.2217  0.1847 -0.1133
29252SOL    HW199481   9.849   6.538   7.147 -2.9974 -0.8012  0.2875
29252SOL    HW299482   9.854   6.387   7.143  0.0639 -0.7428 -1.3238
29253SOL     OW99483   5.230   3.421   6.968  0.2117  0.9804 -0.3942
29253SOL    HW199484   5.259   3.353   6.906  0.0294 -0.7742  1.3558
29253SOL    HW299485   5.303   3.431   7.029  0.6215  3.1104 -1.1470
29254SOL     OW99486   1.849   3.627   6.813 -0.3577 -0.0246 -0.3673
29254SOL    HW199487   1.852   3.623   6.717  1.1624 -0.1873 -0.3408
29254SOL    HW299488   1.940   3.616   6.840 -0.8667 -0.8564  1.1359
29255SOL     OW99489   2.356   2.567   8.711  0.0919 -0.2455  0.1084
29255SOL    HW199490   2.328   2.587   8.622 -0.4546  1.6319  0.6589
29255SOL    HW299491   2.318   2.637   8.765  2.2138 -0.0513  1.5061
29256SOL     OW99492   9.278  13.083   1.809  0.4105  0.1002 -0.0466
29256SOL    HW199493   9.373  13.069   1.812  0.4620 -0.4091 -2.2663
29256SOL    HW299494   9.254  13.068   1.717 -2.0670 -1.3547  0.7339
29257SOL     OW99495  13.474   9.436   4.567 -0.2215 -0.4105 -0.1631
29257SOL    HW199496  13.460   9.530   4.580 -1.2391 -0.5002 -0.4859
29257SOL    HW299497  13.406   9.394   4.621  0.5961 -0.9813  0.4354
29258SOL     OW99498   7.842   5.937  12.943  0.2806  0.1194  0.2436
29258SOL    HW199499   7.832   6.026  12.909  3.2127  0.6549  0.5093
29258SOL    HW299500   7.782   5.932  13.017  0.6065  2.1853  0.6961
29259SOL     OW99501  12.862   7.204   3.913 -0.0068  0.5857 -0.1087
29259SOL    HW199502  12.805   7.212   3.990 -1.0252  1.1249 -0.8922
29259SOL    HW299503  12.802   7.212   3.839  0.9051 -0.2993 -0.9618
29260SOL     OW99504   4.676  12.880   7.869  0.4220  0.0361  0.1367
29260SOL    HW199505   4.751  12.881   7.927  1.1547 -1.3851 -0.7399
29260SOL    HW299506   4.610  12.828   7.915  1.2129 -1.5990 -0.5073
29261SOL     OW99507   9.017   8.937   6.253  0.4020 -0.2868 -0.3491
29261SOL    HW199508   8.975   9.023   6.257  1.1576  0.1266 -0.9839
29261SOL    HW299509   8.976   8.886   6.323  0.7145  0.9329  0.7520
29262SOL     OW99510   1.772   8.696  11.109 -0.1987  0.2678 -0.0318
29262SOL    HW199511   1.824   8.775  11.122 -0.9752  1.0616 -1.5320
29262SOL    HW299512   1.814   8.630  11.165  2.0327  1.0290 -0.6949
29263SOL     OW99513   2.980  10.383   3.116  0.4455  0.2858  0.0945
29263SOL    HW199514   2.948  10.401   3.028 -0.3817 -1.6578 -0.0557
29263SOL    HW299515   3.069  10.417   3.117  0.0323  1.4788 -1.0587
29264SOL     OW99516   1.974  11.241   4.047  0.1908 -0.0220 -0.4238
29264SOL    HW199517   2.023  11.180   4.102  0.0568  1.1274  1.0401
29264SOL    HW299518   1.997  11.328   4.080 -0.3741  0.6948 -1.8146
29265SOL     OW99519  11.163   1.938   4.136  0.6262 -0.6092  0.1197
29265SOL    HW199520  11.156   1.970   4.046  1.7749  0.3035  0.3217
29265SOL    HW299521  11.236   1.988   4.173  0.3065 -1.1181  1.4968
29266SOL     OW99522   3.016   0.478   9.259  0.0035 -0.2150 -0.1807
29266SOL    HW199523   3.056   0.423   9.192  2.1299 -0.7480  1.3912
29266SOL    HW299524   3.076   0.552   9.268 -1.0655  0.6435  0.0636
29267SOL     OW99525   0.301  10.386   3.307 -0.1032  0.0154 -0.0950
29267SOL    HW199526   0.390  10.371   3.276 -0.5006 -0.6781 -0.9472
29267SOL    HW299527   0.283  10.312   3.364 -0.3299 -0.1508 -0.3799
29268SOL     OW99528   7.052   6.714  11.046  0.0655  0.5201  0.0377
29268SOL    HW199529   7.013   6.800  11.041  1.6248  1.2306 -0.6784
29268SOL    HW299530   7.096   6.712  11.131 -1.3242 -0.2201  0.7761
29269SOL     OW99531   0.408   5.852   3.884  0.0034  0.5104  0.4211
29269SOL    HW199532   0.363   5.821   3.963 -2.8914 -1.4793 -1.7852
29269SOL    HW299533   0.413   5.775   3.828  2.1873  1.7942 -1.3025
29270SOL     OW99534   3.137  11.337   2.089 -0.6230 -0.4364  0.1179
29270SOL    HW199535   3.229  11.332   2.066  0.1763  0.4585  2.8120
29270SOL    HW299536   3.108  11.246   2.093  0.6314 -0.8211  0.9673
29271SOL     OW99537   3.603   9.653   8.201 -0.7576  0.3357 -0.1644
29271SOL    HW199538   3.575   9.711   8.272 -0.3345  1.5382 -0.9488
29271SOL    HW299539   3.651   9.583   8.245  1.1984  2.0792  0.6240
29272SOL     OW99540   9.198   3.659   6.807 -0.7340  0.0302  0.6828
29272SOL    HW199541   9.232   3.735   6.854 -1.9903  0.5875  0.7261
29272SOL    HW299542   9.123   3.692   6.758  0.3841 -0.5938 -1.5662
29273SOL     OW99543   3.001   7.662   6.873 -0.4708 -0.3093  0.3244
29273SOL    HW199544   2.923   7.715   6.889  0.3152  1.7625 -2.0843
29273SOL    HW299545   2.985   7.620   6.788  1.9859  2.3538 -1.6399
29274SOL     OW99546   7.353   2.888   9.571  0.2180 -0.2121 -1.0151
29274SOL    HW199547   7.392   2.846   9.647  2.7244 -1.1911 -2.7227
29274SOL    HW299548   7.421   2.947   9.538 -0.2329 -0.8893 -3.3042
29275SOL     OW99549   8.527  11.537   0.025  0.3012 -0.0903 -0.0334
29275SOL    HW199550   8.536  11.442   0.032  1.6400 -0.1138 -1.5590
29275SOL    HW299551   8.573  11.571   0.102 -0.8708 -0.6583  0.9562
29276SOL     OW99552  13.658   6.136   5.592 -0.3053 -0.0195 -0.7262
29276SOL    HW199553  13.647   6.158   5.685 -0.2365  0.0009 -0.7230
29276SOL    HW299554  13.585   6.180   5.548 -1.0597 -1.0297 -0.5338
29277SOL     OW99555   4.399  12.112   0.600 -0.3245  0.4196 -0.2631
29277SOL    HW199556   4.398  12.026   0.558  1.3410  0.7164 -1.0066
29277SOL    HW299557   4.339  12.165   0.548  0.2892  0.2706 -1.1460
29278SOL     OW99558  11.947   0.939   3.411 -0.1295 -0.5934 -0.0388
29278SOL    HW199559  11.903   0.856   3.429 -1.3707  0.4275  2.0205
29278SOL    HW299560  11.876   1.004   3.412  0.9441  0.6236 -0.5196
29279SOL     OW99561  12.219  13.328  11.341  0.2171  0.2011  0.3341
29279SOL    HW199562  12.307  13.364  11.331 -0.4096  2.4641  2.1430
29279SOL    HW299563  12.213  13.301  11.432 -0.4892 -1.4838 -0.1561
29280SOL     OW99564   3.220   4.373  12.628  0.1615 -0.1788  0.2957
29280SOL    HW199565   3.154   4.359  12.695 -0.9641 -0.6584 -0.8647
29280SOL    HW299566   3.202   4.305  12.563  0.9664  0.5148 -0.6753
29281SOL     OW99567   1.464   3.449   0.485  0.0461  0.2677  0.2605
29281SOL    HW199568   1.416   3.476   0.563 -0.1558  0.4953  0.0592
29281SOL    HW299569   1.471   3.354   0.493  1.3936  0.4245  1.3414
29282SOL     OW99570   5.743   5.426   7.476 -0.4652 -0.2807 -0.9018
29282SOL    HW199571   5.781   5.361   7.535  1.3643  0.5770 -1.0575
29282SOL    HW299572   5.802   5.501   7.483 -1.3513  0.5779 -2.2987
29283SOL     OW99573   9.005   0.949   8.238  0.1583 -0.1057 -0.2148
29283SOL    HW199574   9.000   0.926   8.145  0.5662  0.4266 -0.3784
29283SOL    HW299575   9.012   1.045   8.238  1.6772 -0.1899  0.2934
29284SOL     OW99576   1.936  13.017   9.190 -0.0362 -0.3467 -0.2902
29284SOL    HW199577   1.905  12.974   9.270  0.4911  0.3332  0.2959
29284SOL    HW299578   1.924  13.110   9.207  3.1275  0.0676  0.3835
29285SOL     OW99579   3.368   7.063   0.531 -0.5407  0.0338 -0.3416
29285SOL    HW199580   3.396   7.128   0.594  1.5311 -1.2753  0.1715
29285SOL    HW299581   3.405   7.092   0.447 -1.0477  0.3695 -0.4572
29286SOL     OW99582   8.648  10.056   8.671 -0.3761 -0.1851  0.0414
29286SOL    HW199583   8.650  10.152   8.667  0.5344 -0.2080 -0.4579
29286SOL    HW299584   8.574  10.036   8.728 -1.2151  0.7879 -0.6473
29287SOL     OW99585   8.016  12.715   0.075 -0.3229 -0.1769  0.8370
29287SOL    HW199586   8.004  12.660  -0.003  0.8929  0.1265  0.4159
29287SOL    HW299587   7.971  12.667   0.145 -0.3746 -1.0791  0.2085
29288SOL     OW99588   4.695  12.711   1.340 -0.3095  0.3352  0.3554
29288SOL    HW199589   4.659  12.623   1.324 -1.4298  0.8896 -0.3029
29288SOL    HW299590   4.754  12.699   1.414 -1.0985 -0.8302  0.8300
29289SOL     OW99591   2.222   8.306   0.740  0.7344  0.2456  0.7627
29289SOL    HW199592   2.182   8.322   0.825 -0.8709 -0.1406  0.1204
29289SOL    HW299593   2.254   8.216   0.745 -1.3765 -0.5984  0.2627
29290SOL     OW99594  12.838   9.478   2.192 -0.2651 -0.4961 -0.6344
29290SOL    HW199595  12.810   9.433   2.113 -1.3793 -3.3742  1.2528
29290SOL    HW299596  12.889   9.413   2.240 -1.3664  0.4114  1.9316
29291SOL     OW99597   6.550   6.337   4.077 -0.0606 -0.0059 -0.1134
29291SOL    HW199598   6.625   6.379   4.034  0.9545 -0.3645  1.2068
29291SOL    HW299599   6.516   6.404   4.137  1.6601 -0.9837  2.1130
29292SOL     OW99600   9.779   7.408   5.829 -0.0143 -0.1656  0.1356
29292SOL    HW199601   9.688   7.392   5.806 -0.8796  0.5876  2.7470
29292SOL    HW299602   9.779   7.490   5.877  2.2040  0.3210 -0.5526
29293SOL     OW99603   6.433   2.421   3.993 -0.8607 -0.7400  0.3065
29293SOL    HW199604   6.468   2.388   3.910  0.6044 -1.4059  1.1374
29293SOL    HW299605   6.421   2.515   3.978  2.3898 -0.2136  0.2277
29294SOL     OW99606   8.934   0.943   5.903 -0.9031  0.4067 -0.7702
29294SOL    HW199607   8.854   0.891   5.893 -1.6451  1.2576  0.3926
29294SOL    HW299608   8.933   0.969   5.995  0.9857  0.0231 -0.6134
29295SOL     OW99609   4.754   5.353   7.349 -0.0603  0.1373  0.1829
29295SOL    HW199610   4.716   5.442   7.351  0.8726  0.5411  0.4319
29295SOL    HW299611   4.848   5.368   7.343  0.1440 -0.8377  0.8452
29296SOL     OW99612   6.781   2.481   1.090 -0.1439 -0.0475  0.3480
29296SOL    HW199613   6.691   2.449   1.099 -0.8866  2.1735  1.3325
29296SOL    HW299614   6.827   2.444   1.165 -0.4298 -0.4656  0.3244
29297SOL     OW99615  10.099   7.983  11.915 -0.2269 -0.4444  0.5474
29297SOL    HW199616  10.011   8.019  11.921 -0.5140 -0.7630 -1.2682
29297SOL    HW299617  10.097   7.905  11.969 -1.2980 -0.8645 -0.0625
29298SOL     OW99618   1.862   0.266  13.575 -0.3201 -0.4086 -0.0344
29298SOL    HW199619   1.927   0.335  13.584  0.8125 -1.1753 -1.8444
29298SOL    HW299620   1.788   0.308  13.531 -0.6490  0.2152  1.0906
29299SOL     OW99621   1.629   0.903   3.848 -0.4578 -0.3587  0.2081
29299SOL    HW199622   1.549   0.850   3.851 -0.8891  0.0654 -1.9235
29299SOL    HW299623   1.634   0.933   3.757  1.1104  1.2092  0.7582
29300SOL     OW99624   0.766  10.155   5.555  0.7574 -0.5157  0.5488
29300SOL    HW199625   0.720  10.103   5.489 -0.3285 -0.7281  1.4264
29300SOL    HW299626   0.797  10.090   5.618  1.2721 -0.2694  0.5519
29301SOL     OW99627   2.951   2.079   1.420  0.0248  0.4571 -0.1176
29301SOL    HW199628   2.932   2.007   1.481  0.2290  0.4987 -0.0057
29301SOL    HW299629   2.881   2.143   1.437 -0.2056  0.2475 -0.2775
29302SOL     OW99630   6.953   2.753   9.190  0.7414 -0.1712  0.1586
29302SOL    HW199631   6.976   2.662   9.209  1.1214 -0.4609 -1.5083
29302SOL    HW299632   6.873   2.747   9.137  0.1441  0.5334  0.9489
29303SOL     OW99633   3.760   5.158   0.856  0.1462 -0.3652  0.1163
29303SOL    HW199634   3.834   5.213   0.882 -0.1895  0.6226 -0.9082
29303SOL    HW299635   3.703   5.217   0.807 -0.5921 -1.4661 -0.3932
29304SOL     OW99636  11.766   5.129   3.170 -0.1156 -0.4134  0.5766
29304SOL    HW199637  11.769   5.047   3.219 -1.4846 -0.0840  1.2404
29304SOL    HW299638  11.849   5.131   3.122  0.8020 -1.2556  2.0523
29305SOL     OW99639  11.414  10.777   4.385  0.5816  0.0193  0.5106
29305SOL    HW199640  11.422  10.869   4.410  2.1686 -0.1659  0.7731
29305SOL    HW299641  11.501  10.752   4.354 -0.1541 -1.0412 -0.8496
29306SOL     OW99642   9.319   5.562   8.666  0.0995  0.0486 -0.5661
29306SOL    HW199643   9.364   5.644   8.647 -0.2759  0.3247 -0.2878
29306SOL    HW299644   9.366   5.526   8.741 -0.8607  0.9265  0.4867
29307SOL     OW99645   1.362   6.454   3.577  0.0538  0.2149  0.0921
29307SOL    HW199646   1.335   6.363   3.590 -0.1774  0.4368  1.3458
29307SOL    HW299647   1.298   6.505   3.626 -0.0525  1.0948 -0.9325
29308SOL     OW99648   1.869  12.828  11.838  0.2360 -0.4096  0.3803
29308SOL    HW199649   1.929  12.757  11.861  1.8622  0.7835  0.0061
29308SOL    HW299650   1.907  12.905  11.880 -0.9350  0.4269 -0.0627
29309SOL     OW99651   0.168   4.216   4.403  0.0488 -0.2613  0.1706
29309SOL    HW199652   0.237   4.265   4.447 -0.8269  0.9541  0.2388
29309SOL    HW299653   0.196   4.212   4.311  1.2610 -1.7139  0.5651
29310SOL     OW99654   0.491   7.502   6.756 -0.0839 -0.1043 -0.2982
29310SOL    HW199655   0.572   7.510   6.807  0.4598 -1.2781 -0.9369
29310SOL    HW299656   0.431   7.564   6.797  1.0163  0.5192  0.4269
29311SOL     OW99657   0.755   8.051   9.379  0.4024 -0.9662 -0.0915
29311SOL    HW199658   0.846   8.071   9.358  0.7985 -1.9049  0.7031
29311SOL    HW299659   0.749   8.060   9.474 -0.6768  0.4223 -0.2597
29312SOL     OW99660  10.963  12.834   8.595  0.1700 -0.8829 -0.1967
29312SOL    HW199661  10.970  12.926   8.619 -1.0756 -1.0899  1.0688
29312SOL    HW299662  10.945  12.835   8.501  0.3919  0.1461 -0.2399
29313SOL     OW99663  10.911   6.330   7.113  0.4029  0.3625 -0.1476
29313SOL    HW199664  10.866   6.268   7.169  1.2386  0.0771  0.2333
29313SOL    HW299665  10.884   6.308   7.024  0.8011 -0.6499 -0.0270
29314SOL     OW99666   3.613   3.048   7.961  0.0235  0.5927  0.3212
29314SOL    HW199667   3.682   3.011   8.016  0.7134 -1.6164 -1.8459
29314SOL    HW299668   3.656   3.068   7.878 -1.6897  0.1710 -0.7291
29315SOL     OW99669   3.877   0.203   0.834  0.6509  0.3900 -0.0453
29315SOL    HW199670   3.962   0.175   0.869  0.3470  1.5747  1.7863
29315SOL    HW299671   3.830   0.121   0.816  1.3978 -0.2754  0.9532
29316SOL     OW99672   1.001   8.203  12.059 -0.2307  0.4392  0.9564
29316SOL    HW199673   1.024   8.236  11.972  0.7591 -0.2719  0.9260
29316SOL    HW299674   0.924   8.149  12.045 -0.9673  1.5054  0.7723
29317SOL     OW99675   4.494  10.636   7.520  0.0055 -0.0722 -0.0687
29317SOL    HW199676   4.496  10.564   7.456 -1.6619 -0.3026  0.1006
29317SOL    HW299677   4.455  10.597   7.598 -0.7947  0.9913  0.0685
29318SOL     OW99678   5.099  12.988  11.465 -0.5207 -0.7327  0.1838
29318SOL    HW199679   5.170  13.024  11.413 -1.7023  2.0500  0.3131
29318SOL    HW299680   5.070  12.910  11.417  1.6233 -1.1007 -0.5962
29319SOL     OW99681   7.010   4.757   0.399 -0.0528 -0.0374  0.2399
29319SOL    HW199682   7.081   4.798   0.449  0.5252 -0.2247 -0.4186
29319SOL    HW299683   7.026   4.784   0.309 -0.5752 -0.4331  0.0304
29320SOL     OW99684  11.057   5.250   1.554 -0.2378 -0.3798  0.1518
29320SOL    HW199685  11.047   5.206   1.470 -3.3981  1.3035 -0.5224
29320SOL    HW299686  11.080   5.341   1.532 -2.4913  0.4519  0.9080
29321SOL     OW99687   8.734   9.412  11.189 -0.7394 -0.6857  0.3438
29321SOL    HW199688   8.792   9.410  11.265  1.4112 -0.4687 -1.2006
29321SOL    HW299689   8.676   9.486  11.206  0.0600 -0.2910  1.5094
29322SOL     OW99690  10.131   5.239   3.740  0.1830 -0.4909  0.1965
29322SOL    HW199691  10.081   5.194   3.808 -2.1826  0.8384 -0.5312
29322SOL    HW299692  10.213   5.265   3.783  0.2882 -2.7382  1.4634
29323SOL     OW99693   1.860   8.750   5.530  0.1703 -0.2072 -0.6168
29323SOL    HW199694   1.873   8.656   5.530  0.2434 -0.2175  0.6044
29323SOL    HW299695   1.785   8.765   5.472 -0.8309 -1.1750  0.3838
29324SOL     OW99696  10.669   1.059   4.136  0.1039 -0.2464 -0.0716
29324SOL    HW199697  10.622   0.977   4.121  1.3069 -1.5882  2.6480
29324SOL    HW299698  10.607   1.114   4.185  0.4970 -1.0552  1.3798
29325SOL     OW99699   5.264   3.123   9.061  0.6726 -0.5197 -0.2762
29325SOL    HW199700   5.329   3.095   8.997 -0.5200 -1.3730 -1.1612
29325SOL    HW299701   5.242   3.212   9.036  1.2129 -0.3640 -0.2035
29326SOL     OW99702   8.017   2.850  12.591 -0.6062  0.4148  0.2021
29326SOL    HW199703   8.028   2.925  12.649  1.3541  0.4616 -0.1714
29326SOL    HW299704   8.101   2.842  12.545 -1.0323 -1.5243 -0.3448
29327SOL     OW99705   2.637   0.640   7.720  0.3703  0.2955 -0.0264
29327SOL    HW199706   2.603   0.577   7.784  2.4389 -0.4519  0.4050
29327SOL    HW299707   2.719   0.671   7.758  1.3745  0.2682 -2.0448
29328SOL     OW99708   8.725   2.145   8.279  0.5533 -0.4365 -0.3053
29328SOL    HW199709   8.667   2.212   8.243 -0.9370 -2.4211 -1.7920
29328SOL    HW299710   8.799   2.141   8.218  0.3773 -0.5103 -0.5152
29329SOL     OW99711  11.377   7.083  13.199 -0.0916  0.3402  0.0848
29329SOL    HW199712  11.344   7.049  13.282 -0.2429 -1.1115 -0.5395
29329SOL    HW299713  11.299   7.099  13.146  0.0614 -0.0385 -0.2581
29330SOL     OW99714  10.344   3.621  12.361  0.0105  0.3741 -0.1069
29330SOL    HW199715  10.287   3.685  12.403 -1.3769  0.4694 -2.0340
29330SOL    HW299716  10.285   3.554  12.328  0.9965  0.4351 -2.1093
29331SOL     OW99717   9.351   6.943   8.916  0.0879  0.1885 -0.3369
29331SOL    HW199718   9.260   6.973   8.924  0.0735 -0.2229  1.4654
29331SOL    HW299719   9.344   6.849   8.902  0.2340  0.3498 -1.6313
29332SOL     OW99720  13.031   8.701  11.052  0.5148 -0.1464  0.2919
29332SOL    HW199721  13.085   8.622  11.052 -2.6270 -2.5529  2.5798
29332SOL    HW299722  12.981   8.696  10.971  0.5587 -0.2944  0.2742
29333SOL     OW99723  11.534  10.348   7.796 -0.2305 -0.4067  0.3263
29333SOL    HW199724  11.519  10.387   7.710  1.8732 -1.5195 -0.6042
29333SOL    HW299725  11.446  10.335   7.832 -1.1149  3.0269 -0.2194
29334SOL     OW99726   4.150  10.695  12.835 -0.2984  0.0963 -0.1053
29334SOL    HW199727   4.108  10.618  12.795 -0.4057  1.1417 -2.1418
29334SOL    HW299728   4.218  10.658  12.892 -0.2096 -1.5180 -1.1867
29335SOL     OW99729  12.399   7.249   3.853 -0.2579  0.3610 -0.2839
29335SOL    HW199730  12.396   7.345   3.858 -0.8975  0.2785  1.4930
29335SOL    HW299731  12.459   7.223   3.923  1.3031 -0.5094 -1.8515
29336SOL     OW99732  10.865   1.073   0.679  0.7592  0.3271 -0.0830
29336SOL    HW199733  10.891   0.981   0.681  2.7580  0.8193 -1.0023
29336SOL    HW299734  10.884   1.106   0.767 -0.1383 -0.1546  0.3053
29337SOL     OW99735   7.997   3.587   0.448  0.3695  0.2301  0.2509
29337SOL    HW199736   7.977   3.601   0.356 -1.2156 -0.4806  0.4518
29337SOL    HW299737   8.030   3.672   0.478  1.8675  0.1975 -1.1687
29338SOL     OW99738   4.798   8.389   8.319  0.1406  0.4835 -0.1165
29338SOL    HW199739   4.806   8.386   8.415 -1.8298 -1.4883  0.0603
29338SOL    HW299740   4.873   8.338   8.287  0.2817  0.3586  0.4025
29339SOL     OW99741  11.358   5.060   1.239  0.3251  0.5858  0.5284
29339SOL    HW199742  11.351   5.056   1.143  1.0613 -1.3979  0.5204
29339SOL    HW299743  11.427   5.125   1.255  1.1938 -0.1012 -0.3524
29340SOL     OW99744   4.845  10.190   0.166  0.1073  0.0130 -0.3091
29340SOL    HW199745   4.924  10.221   0.210  0.7351 -2.0721  0.1485
29340SOL    HW299746   4.866  10.195   0.073  0.6216 -0.0931 -0.2052
29341SOL     OW99747   1.143   0.696  10.143  0.4378 -0.0199 -0.0989
29341SOL    HW199748   1.106   0.752  10.210  1.4601 -0.2579  0.6936
29341SOL    HW299749   1.096   0.719  10.063 -0.8346  0.2245  0.6970
29342SOL     OW99750   5.717  11.500  13.196 -0.3149 -0.0261  0.3238
29342SOL    HW199751   5.654  11.517  13.266 -1.0782  1.6778 -0.7156
29342SOL    HW299752   5.663  11.488  13.117  0.4474 -2.9525  0.1024
29343SOL     OW99753  10.434   1.102   3.723  0.2941 -0.3911  0.9541
29343SOL    HW199754  10.454   1.122   3.632 -2.9592  0.5792  0.3034
29343SOL    HW299755  10.469   1.177   3.772  0.0206  0.2632  0.1738
29344SOL     OW99756   9.412   0.003  12.864  0.0310 -0.4582  0.0568
29344SOL    HW199757   9.437   0.078  12.808 -0.7731 -1.0995 -1.2072
29344SOL    HW299758   9.317  -0.003  12.854  0.0380 -1.3713  0.5189
29345SOL     OW99759   4.518  11.131  11.162 -0.3919 -0.4623 -0.1892
29345SOL    HW199760   4.464  11.057  11.134 -0.4072 -0.4382 -0.2232
29345SOL    HW299761   4.601  11.118  11.115  0.8338 -2.2615  2.2433
29346SOL     OW99762   3.303   4.251  13.123  0.0751 -0.2990 -0.0453
29346SOL    HW199763   3.345   4.333  13.151  0.9780 -0.2189 -1.4877
29346SOL    HW299764   3.376   4.189  13.114 -0.3319 -0.6794 -0.8753
29347SOL     OW99765   6.685   8.473   9.701  0.4878  0.2070 -0.0248
29347SOL    HW199766   6.621   8.414   9.664  1.6876 -0.7217 -0.7028
29347SOL    HW299767   6.766   8.422   9.703  0.7879  0.6179  2.7184
29348SOL     OW99768   6.016   6.464   3.422 -0.2077  0.5335 -0.0119
29348SOL    HW199769   5.949   6.470   3.490  0.5696  2.0152  0.6712
29348SOL    HW299770   6.056   6.378   3.436 -1.6394 -0.1809 -0.1425
29349SOL     OW99771  12.457   4.433  13.177  0.0455  0.5952  0.1900
29349SOL    HW199772  12.396   4.362  13.200  0.0963 -0.0676 -1.6242
29349SOL    HW299773  12.410   4.484  13.111  0.9031  0.9396 -0.1584
29350SOL     OW99774   2.289   7.617  13.361 -0.1698  1.0293  0.8876
29350SOL    HW199775   2.253   7.700  13.332 -1.2439  0.2334 -0.1781
29350SOL    HW299776   2.375   7.639  13.397  0.4100  2.3802 -1.1389
29351SOL     OW99777   8.842  13.038   4.043  0.1599 -0.3372  0.0995
29351SOL    HW199778   8.832  13.129   4.071  0.8030 -0.4466  0.6982
29351SOL    HW299779   8.867  13.044   3.951 -2.0651  0.0211 -0.5247
29352SOL     OW99780   9.747   6.296   0.550  0.1124  0.4937  0.0615
29352SOL    HW199781   9.837   6.262   0.553  0.0893  0.3206 -0.9750
29352SOL    HW299782   9.711   6.261   0.469 -1.5392 -1.0147  1.3632
29353SOL     OW99783   4.166  13.376   7.230 -0.2138 -0.1986 -0.3382
29353SOL    HW199784   4.223  13.452   7.219 -1.8585  1.0719 -0.4138
29353SOL    HW299785   4.222  13.310   7.272  0.2739  2.4359  3.7154
29354SOL     OW99786   7.440  12.059  12.379 -0.4275  0.8357  0.2563
29354SOL    HW199787   7.499  12.073  12.452 -0.9155  1.4724  0.5474
29354SOL    HW299788   7.353  12.081  12.414 -1.0404 -1.2892  0.2067
29355SOL     OW99789   3.391   1.641   5.761 -0.3416  0.9519  0.0240
29355SOL    HW199790   3.437   1.707   5.813 -0.3098  0.6787  0.3464
29355SOL    HW299791   3.331   1.692   5.706  0.8220  1.3621 -0.9197
29356SOL     OW99792   9.516   5.983   8.165  0.3873  0.3586 -0.0589
29356SOL    HW199793   9.436   6.013   8.120 -0.1228 -1.2268 -0.2795
29356SOL    HW299794   9.484   5.927   8.236  1.3108 -1.0792 -0.7364
29357SOL     OW99795  13.115  11.974   3.286  0.2241 -0.4789 -0.5957
29357SOL    HW199796  13.199  11.933   3.263  0.1802 -0.3511 -0.9818
29357SOL    HW299797  13.135  12.067   3.294  0.5064 -0.6519  1.1174
29358SOL     OW99798   8.074  10.466   6.678 -0.2520 -0.5499  0.5353
29358SOL    HW199799   8.065  10.372   6.661 -0.6799 -0.3822 -0.2137
29358SOL    HW299800   8.160  10.474   6.719 -0.0982 -1.2420  0.3717
29359SOL     OW99801   5.271   9.838   1.758 -0.2135 -0.3788 -0.2940
29359SOL    HW199802   5.343   9.776   1.747 -1.0821 -1.2463 -1.4000
29359SOL    HW299803   5.253   9.870   1.669  0.4613  1.7856  0.2977
29360SOL     OW99804   2.504   3.622  11.918 -0.0920 -0.0403  0.1992
29360SOL    HW199805   2.503   3.536  11.875  0.0674 -0.1676  0.4480
29360SOL    HW299806   2.417   3.659  11.900 -1.0225 -1.1936  1.9538
29361SOL     OW99807   6.355  13.677   4.147 -0.3209  0.5308  0.4128
29361SOL    HW199808   6.301  13.722   4.212 -0.1127  0.3464  0.7120
29361SOL    HW299809   6.397  13.606   4.195 -1.4579 -0.6439 -0.2799
29362SOL     OW99810   1.530   1.901   8.080 -0.0197 -0.0282  0.1694
29362SOL    HW199811   1.499   1.991   8.092  2.0546  0.7935 -0.2693
29362SOL    HW299812   1.622   1.904   8.105  0.3851 -1.7727 -0.9835
29363SOL     OW99813   6.925   4.768   9.524 -0.5498  0.0488  0.6555
29363SOL    HW199814   6.956   4.682   9.499 -2.4062 -0.5009  0.0957
29363SOL    HW299815   6.829   4.760   9.525 -0.7738  2.1339  0.4268
29364SOL     OW99816   4.819   8.955  12.074 -0.3128 -0.1879 -0.1896
29364SOL    HW199817   4.740   8.909  12.102 -0.5677 -0.2710 -1.0227
29364SOL    HW299818   4.818   8.948  11.978  0.6420 -0.0934 -0.2145
29365SOL     OW99819   5.216   4.979  10.336 -0.3385 -0.3194 -0.1841
29365SOL    HW199820   5.198   5.067  10.370  0.7250 -0.3671  0.5656
29365SOL    HW299821   5.192   4.984  10.244 -1.0825  0.5121  0.0360
29366SOL     OW99822  11.568   3.750   5.240 -0.1869 -0.5294  0.3100
29366SOL    HW199823  11.578   3.656   5.224  0.2012 -0.2781 -1.0819
29366SOL    HW299824  11.476   3.768   5.220 -0.4704 -0.7366  1.3653
29367SOL     OW99825  12.463   4.841   8.576 -0.2309  0.0261 -0.4112
29367SOL    HW199826  12.494   4.876   8.659  1.1885 -2.6314  0.2900
29367SOL    HW299827  12.537   4.850   8.516  0.5026 -2.3972  0.0361
29368SOL     OW99828   4.928   2.881   8.378 -0.3511  0.0318  0.1172
29368SOL    HW199829   4.944   2.868   8.285 -0.3891  2.2372 -0.2639
29368SOL    HW299830   4.989   2.823   8.422 -2.0482 -2.9706 -1.1961
29369SOL     OW99831  10.407  11.994   2.921 -0.2460 -0.1443  0.1267
29369SOL    HW199832  10.350  12.034   2.855 -1.1029 -0.3136  0.7488
29369SOL    HW299833  10.449  12.068   2.965 -1.5585  0.0816  1.0357
29370SOL     OW99834  10.463  11.782   3.658  0.3081  0.3664  0.1255
29370SOL    HW199835  10.408  11.798   3.581 -1.1744 -0.6861  0.9137
29370SOL    HW299836  10.411  11.814   3.731  0.5812 -1.0149  0.9427
29371SOL     OW99837  12.989   2.078   6.268  0.7292 -0.6155 -0.4843
29371SOL    HW199838  13.008   2.150   6.328  1.7085 -1.4560  0.2606
29371SOL    HW299839  12.963   2.005   6.325  0.6488 -1.1190 -1.1517
29372SOL     OW99840  10.078   5.808  13.100  0.1956 -0.0056  0.2043
29372SOL    HW199841  10.052   5.716  13.114  0.0470  0.1933  1.2851
29372SOL    HW299842  10.047   5.854  13.178  3.1055  0.3918  1.2376
29373SOL     OW99843   3.516   4.622   8.184 -0.2006  1.0832  0.0801
29373SOL    HW199844   3.588   4.605   8.244  0.1065  1.1374 -0.2739
29373SOL    HW299845   3.551   4.602   8.097 -1.7357 -2.6876  0.1574
29374SOL     OW99846   5.073  10.487   5.333 -0.4672 -0.0854  0.4044
29374SOL    HW199847   5.025  10.564   5.365 -2.5044 -0.8318 -0.6495
29374SOL    HW299848   5.140  10.472   5.399 -1.2635  1.4353  1.6430
29375SOL     OW99849   2.811  11.307   4.239  0.3942  0.2634  0.0987
29375SOL    HW199850   2.827  11.246   4.311 -1.8584 -1.7614 -0.9890
29375SOL    HW299851   2.850  11.266   4.162 -2.2272 -0.5494 -0.8940
29376SOL     OW99852   0.403   9.768   3.005  0.5142  1.0883  0.6975
29376SOL    HW199853   0.464   9.824   2.956  0.2999 -0.0432 -0.9586
29376SOL    HW299854   0.320   9.775   2.958  0.2311  0.1262  1.0178
29377SOL     OW99855  10.465  10.527   1.321  0.2961  0.5884  0.1069
29377SOL    HW199856  10.450  10.457   1.257  1.3493 -0.0930  0.5761
29377SOL    HW299857  10.423  10.495   1.401  1.6033  0.0374  0.5881
29378SOL     OW99858   0.358  11.900   5.089  0.2594  0.7693 -0.1817
29378SOL    HW199859   0.286  11.870   5.144 -0.8523  2.6539 -0.5115
29378SOL    HW299860   0.434  11.851   5.120 -0.6945  0.4202  1.7690
29379SOL     OW99861   7.481  11.094   0.060  0.4391  0.1001 -0.2479
29379SOL    HW199862   7.422  11.151   0.109  1.7839 -0.4970  2.2591
29379SOL    HW299863   7.465  11.116  -0.032 -1.2859  2.2665  0.4751
29380SOL     OW99864   4.106   3.268  10.198 -0.7147  0.2782 -0.5600
29380SOL    HW199865   4.099   3.177  10.228  0.2357 -0.0276 -1.2362
29380SOL    HW299866   4.040   3.315  10.250  0.3204 -0.3654  1.4220
29381SOL     OW99867   9.349  13.092  11.916  0.3428  0.0028 -0.6228
29381SOL    HW199868   9.358  13.059  12.005 -0.1060  0.5483 -0.3689
29381SOL    HW299869   9.299  13.025  11.870 -0.2369  0.1447 -0.2097
29382SOL     OW99870   9.352   7.712   9.611  0.0687 -0.3066  0.8219
29382SOL    HW199871   9.278   7.772   9.621  1.1428  0.9991  1.3460
29382SOL    HW299872   9.350   7.684   9.520  0.2499  1.5488  0.2116
29383SOL     OW99873   5.686   1.471   4.953 -0.0972  0.2143 -0.2440
29383SOL    HW199874   5.662   1.546   4.898  0.9357 -0.0283 -1.0684
29383SOL    HW299875   5.637   1.397   4.916 -1.3500  0.5155  0.7573
29384SOL     OW99876   3.623  12.605   9.375 -0.0496  0.0996  0.0951
29384SOL    HW199877   3.595  12.675   9.433  0.5117  0.4476 -0.0384
29384SOL    HW299878   3.578  12.527   9.406  0.6184  0.1774  1.2995
29385SOL     OW99879   4.193   1.405  12.829 -0.1509 -0.6230  0.0216
29385SOL    HW199880   4.103   1.430  12.808  0.4969  0.3658 -1.7148
29385SOL    HW299881   4.198   1.312  12.803 -0.4756 -0.4867 -0.5540
29386SOL     OW99882   9.186   5.741   5.508 -0.0865  0.5936 -0.7461
29386SOL    HW199883   9.131   5.770   5.580 -0.5985 -0.6045 -0.6271
29386SOL    HW299884   9.197   5.819   5.453  1.2588  1.8490  1.1756
29387SOL     OW99885  12.175  13.617   1.365  0.3672 -0.1359  0.1254
29387SOL    HW199886  12.172  13.703   1.324 -0.5445  1.7049  3.6365
29387SOL    HW299887  12.092  13.576   1.341  0.4966  0.2407 -1.0093
29388SOL     OW99888   9.689   3.137   2.802 -0.2578 -0.1281 -0.0127
29388SOL    HW199889   9.600   3.139   2.837  0.2135 -0.0311  1.2015
29388SOL    HW299890   9.727   3.221   2.828 -0.6045  0.9816 -2.7384
29389SOL     OW99891   0.262   4.913   1.243 -0.2785 -0.1852 -0.3093
29389SOL    HW199892   0.171   4.942   1.239 -1.0282 -2.1401  0.9333
29389SOL    HW299893   0.313   4.989   1.213 -2.3009  0.8735 -1.2632
29390SOL     OW99894   3.551   8.493   1.256  0.1700  0.6639  0.0585
29390SOL    HW199895   3.477   8.508   1.197  0.4266  0.5260 -0.2982
29390SOL    HW299896   3.628   8.518   1.205  0.7659 -2.8867 -1.0193
29391SOL     OW99897   1.321   4.982   8.268  0.1929  0.6104 -0.0968
29391SOL    HW199898   1.325   4.893   8.302 -0.1087  0.7778  0.3975
29391SOL    HW299899   1.279   5.032   8.338  1.2686  1.3395  0.0491
29392SOL     OW99900   5.387   2.500  10.158 -0.1254 -0.3365  0.0400
29392SOL    HW199901   5.375   2.578  10.211  0.5454 -0.3039  0.1625
29392SOL    HW299902   5.389   2.531  10.068  0.5394 -0.1455  0.1098
29393SOL     OW99903   3.874   7.735   0.635 -0.2452  0.0332 -0.2573
29393SOL    HW199904   3.935   7.778   0.576 -0.4836  0.5654 -0.1218
29393SOL    HW299905   3.845   7.657   0.587 -0.3854  0.4208 -0.8147
29394SOL     OW99906  12.123   7.508   9.741  0.4157 -0.3216 -0.4367
29394SOL    HW199907  12.150   7.544   9.656  1.1879 -0.0799 -0.1019
29394SOL    HW299908  12.053   7.566   9.770  1.7850  1.0986  0.1890
29395SOL     OW99909   8.935  11.057   8.563  0.5486  0.1406 -0.5754
29395SOL    HW199910   8.913  11.103   8.482  0.7011 -0.6702 -1.0886
29395SOL    HW299911   8.862  11.076   8.622 -0.7469 -1.1409 -1.6823
29396SOL     OW99912  11.706   7.149   9.575  0.2864  0.1011  0.0527
29396SOL    HW199913  11.759   7.224   9.546  1.9166 -1.1718 -0.3785
29396SOL    HW299914  11.724   7.141   9.668  1.6641 -0.9266 -0.2820
29397SOL     OW99915  11.081   4.873   5.132 -0.7974 -0.7636  0.8701
29397SOL    HW199916  11.121   4.919   5.206 -0.4941  0.7774 -0.2035
29397SOL    HW299917  11.006   4.827   5.170 -0.6006 -0.0756  2.1424
29398SOL     OW99918   7.577  10.843   8.899 -0.1340 -0.3452 -0.1398
29398SOL    HW199919   7.569  10.891   8.981 -0.7671  0.0165 -0.4070
29398SOL    HW299920   7.670  10.820   8.894 -0.1442 -0.6113  0.8032
29399SOL     OW99921  12.190   9.401   6.831  0.2641 -0.4393  0.3786
29399SOL    HW199922  12.131   9.429   6.901 -0.0796  0.4873 -0.2623
29399SOL    HW299923  12.276   9.436   6.857  0.3553 -0.9780  0.8341
29400SOL     OW99924   8.353  10.367   1.385  0.5100  0.6446 -0.1296
29400SOL    HW199925   8.429  10.332   1.432 -0.5040 -1.2972  0.1574
29400SOL    HW299926   8.280  10.312   1.413 -0.3164 -0.0505 -3.2978
29401SOL     OW99927   4.685   1.932   4.254  0.3059  0.2457  0.1164
29401SOL    HW199928   4.709   1.876   4.327  0.9085  1.1497  0.6418
29401SOL    HW299929   4.590   1.937   4.256  0.2622 -0.5896  0.1781
29402SOL     OW99930  12.330   6.556   9.475  0.5387 -0.1871 -0.0221
29402SOL    HW199931  12.311   6.615   9.548 -2.7443  0.7467 -1.4346
29402SOL    HW299932  12.324   6.468   9.513  1.6973  0.3077  1.3631
29403SOL     OW99933   0.465   6.565  12.219 -0.2120  0.4447 -0.1450
29403SOL    HW199934   0.503   6.611  12.144 -1.3615  1.1994 -0.2935
29403SOL    HW299935   0.373   6.592  12.220 -0.3293  0.1031  1.2686
29404SOL     OW99936   3.564   0.627   4.317  0.0910  0.4534  0.5225
29404SOL    HW199937   3.628   0.648   4.249 -0.5538 -0.3064 -0.3365
29404SOL    HW299938   3.481   0.659   4.283  0.0637  1.9479  1.8784
29405SOL     OW99939  11.728   9.015  12.935 -0.8033 -0.6161 -0.2192
29405SOL    HW199940  11.639   9.046  12.949 -0.3437  0.6898 -0.0860
29405SOL    HW299941  11.730   8.989  12.843 -1.4015 -0.9573 -0.1385
29406SOL     OW99942   2.460   9.522  13.352  0.1350 -0.5364  0.4056
29406SOL    HW199943   2.370   9.492  13.356 -0.3574  0.8945  0.8751
29406SOL    HW299944   2.460   9.604  13.401  1.4655  0.0237 -0.4624
29407SOL     OW99945   3.138   9.974   6.603 -0.2652  1.0255  0.4658
29407SOL    HW199946   3.221   9.957   6.557 -0.6496  0.7991 -0.1631
29407SOL    HW299947   3.071   9.938   6.545 -0.8646  1.8600  0.6203
29408SOL     OW99948   3.233   7.019   6.553  0.5737 -0.5627  0.5491
29408SOL    HW199949   3.210   6.928   6.574  2.6876 -1.2929 -0.0455
29408SOL    HW299950   3.296   7.012   6.481 -0.6759  1.5009 -0.8546
29409SOL     OW99951   2.393  12.432   2.312 -0.2814  0.1159  0.1702
29409SOL    HW199952   2.368  12.408   2.402  0.3713  1.1095  0.6259
29409SOL    HW299953   2.422  12.350   2.273 -1.4132 -0.5067  0.5699
29410SOL     OW99954   6.366  12.380  13.565  0.0946  0.0733 -0.0692
29410SOL    HW199955   6.321  12.349  13.644 -1.3966  0.0449 -0.9035
29410SOL    HW299956   6.443  12.324  13.557 -0.2244 -0.5066  0.8614
29411SOL     OW99957  13.368  10.133  12.998  0.2619  0.2412 -0.0844
29411SOL    HW199958  13.343  10.225  13.007 -2.8284 -0.4680 -0.1297
29411SOL    HW299959  13.285  10.088  12.985  1.8964 -2.2149 -3.3517
29412SOL     OW99960   8.368   8.310   4.284  0.2181 -0.5770 -0.1996
29412SOL    HW199961   8.378   8.396   4.241 -1.4513  0.8469  2.0153
29412SOL    HW299962   8.442   8.305   4.344 -0.2974 -0.1115  0.4955
29413SOL     OW99963  11.396   1.249  12.059  0.0045 -0.0906 -0.3148
29413SOL    HW199964  11.411   1.324  12.000  2.5973 -0.9609 -0.8842
29413SOL    HW299965  11.341   1.190  12.008 -0.0474  0.3587 -0.7933
29414SOL     OW99966   1.962   1.208  12.181 -0.0648 -0.0550 -0.0728
29414SOL    HW199967   1.915   1.291  12.180 -0.3541 -0.2150 -1.1799
29414SOL    HW299968   1.958   1.179  12.272 -1.8817  0.0728 -0.0692
29415SOL     OW99969   5.930   9.874   4.550  0.3918  0.1101 -0.1377
29415SOL    HW199970   5.907   9.782   4.559 -0.7704  0.3513 -0.4950
29415SOL    HW299971   5.982   9.878   4.469 -1.2291  0.0271 -1.2377
29416SOL     OW99972   5.578   5.401  10.592 -0.1433  0.1023 -0.2436
29416SOL    HW199973   5.614   5.485  10.622  3.5972 -1.5255  0.3704
29416SOL    HW299974   5.630   5.378  10.516 -1.0683 -1.7202 -0.3875
29417SOL     OW99975   2.489   4.081  11.104 -0.2150  0.7459  0.5927
29417SOL    HW199976   2.550   4.088  11.030  0.8603  1.3653  1.5069
29417SOL    HW299977   2.454   4.170  11.114 -0.6695  0.5703  0.5858
29418SOL     OW99978   1.170   9.488   4.002  0.1526  0.2393 -0.3023
29418SOL    HW199979   1.149   9.545   4.076  2.2525  0.0855  0.4859
29418SOL    HW299980   1.205   9.408   4.042  0.7862 -0.0859 -1.4475
29419SOL     OW99981   9.578   5.844   5.223 -0.3070  0.0693 -0.0971
29419SOL    HW199982   9.649   5.886   5.272  0.0475 -0.5692 -0.0552
29419SOL    HW299983   9.571   5.896   5.143  0.3522  0.0115 -0.1979
29420SOL     OW99984   7.173  12.306  10.381  0.3610  0.0220  0.1672
29420SOL    HW199985   7.150  12.325  10.472 -0.2114 -0.6872  0.1744
29420SOL    HW299986   7.214  12.220  10.383 -1.2586 -0.7956 -0.4618
29421SOL     OW99987   3.372   7.529   3.112  0.3611 -0.0860  0.3303
29421SOL    HW199988   3.308   7.582   3.064 -0.6105 -1.4031  0.1147
29421SOL    HW299989   3.449   7.585   3.119 -0.3581  1.0619 -0.5546
29422SOL     OW99990   8.737   9.906   8.964 -0.2174 -0.1221  0.4562
29422SOL    HW199991   8.805   9.863   9.014  0.2623  0.2207  0.1098
29422SOL    HW299992   8.715   9.985   9.014 -0.6775 -0.4584  0.7918
29423SOL     OW99993  12.278  11.249  13.359 -0.1133  0.7067  0.2475
29423SOL    HW199994  12.249  11.201  13.281  2.5113 -0.0462 -0.3747
29423SOL    HW299995  12.354  11.299  13.329 -1.6747  3.9323  1.3239
29424SOL     OW99996   9.497   7.223   9.321 -0.4391 -0.5710 -0.3850
29424SOL    HW199997   9.508   7.295   9.383 -1.6929 -0.6267 -0.0548
29424SOL    HW299998   9.576   7.225   9.267 -0.2847  0.8262 -0.1536
29425SOL     OW99999   0.208  13.182   7.595  0.0738  0.1134  0.3662
29425SOL    HW1    0   0.124  13.142   7.571 -0.2586  0.7104  0.5277
29425SOL    HW2    1   0.257  13.111   7.636 -0.3046 -0.2723  0.1642
29426SOL     OW    2   6.518   0.419  10.484 -0.1868 -0.1342  0.4720
29426SOL    HW1    3   6.590   0.393  10.541 -1.2660 -1.2523  1.3867
29426SOL    HW2    4   6.467   0.482  10.536 -3.1128 -3.6434  2.3293
29427SOL     OW    5   4.664   3.087   9.344 -0.3085 -0.3880  0.0704
29427SOL    HW1    6   4.684   3.164   9.292  0.5142 -0.2254  0.6197
29427SOL    HW2    7   4.636   3.021   9.280 -0.7797  0.2793 -0.4192
29428SOL     OW    8  13.363   5.188   0.919  0.6943 -0.1954  0.5064
29428SOL    HW1    9  13.269   5.205   0.928  0.9967  2.1026  0.0811
29428SOL    HW2   10  13.376   5.178   0.825  1.2371  2.5146  0.2245
29429SOL     OW   11  12.178  12.092   8.882 -0.3902  0.5509 -0.5313
29429SOL    HW1   12  12.273  12.077   8.886 -0.4295  0.1886 -0.9276
29429SOL    HW2   13  12.168  12.165   8.821 -0.2966  1.2955  0.3282
29430SOL     OW   14  13.718   2.852   1.147  0.3056 -0.2917 -0.1041
29430SOL    HW1   15  13.722   2.774   1.093  1.0677  0.7429 -1.5872
29430SOL    HW2   16  13.625   2.860   1.171 -0.3837  0.1311 -2.6746
29431SOL     OW   17  10.201   0.494   8.510 -0.3149  0.7335  0.3740
29431SOL    HW1   18  10.223   0.472   8.420  0.4058 -1.9972  1.1168
29431SOL    HW2   19  10.281   0.535   8.545 -0.3578  1.1599 -0.0238
29432SOL     OW   20   0.640  12.970   0.734  0.3295  0.4940  0.3821
29432SOL    HW1   21   0.620  12.936   0.821 -2.5547 -1.8569 -1.0146
29432SOL    HW2   22   0.729  12.939   0.716  0.4004 -0.2669  1.8941
29433SOL     OW   23   4.750   8.542   6.271  0.7432 -0.1349 -0.0180
29433SOL    HW1   24   4.666   8.586   6.272  0.3851 -0.7994  0.0439
29433SOL    HW2   25   4.767   8.520   6.363  1.3546  0.6737  0.0703
29434SOL     OW   26   7.901  11.081   4.145  0.1484 -0.0827  0.5921
29434SOL    HW1   27   7.861  11.049   4.226 -1.5717  0.2234 -0.1039
29434SOL    HW2   28   7.880  11.015   4.080  0.3703  0.3276  0.0988
29435SOL     OW   29   4.483  13.032  12.337  0.4707 -0.5838 -0.1845
29435SOL    HW1   30   4.535  13.112  12.331  0.2512 -0.4223  0.0482
29435SOL    HW2   31   4.547  12.962  12.336  0.5726 -0.5396 -2.8180
29436SOL     OW   32  11.974   6.313   5.441 -0.2789 -0.3266  0.2170
29436SOL    HW1   33  12.001   6.272   5.523 -2.1014  0.0864  1.0757
29436SOL    HW2   34  12.034   6.387   5.430 -0.2076 -0.1997  1.3510
29437SOL     OW   35   2.522  12.772   7.704  0.1723  0.4694 -0.1491
29437SOL    HW1   36   2.435  12.805   7.726 -0.5006 -0.4522 -1.3052
29437SOL    HW2   37   2.545  12.814   7.622  1.1113  1.1747  0.4494
29438SOL     OW   38  10.013  12.580  11.504  1.1563  0.1936 -0.5927
29438SOL    HW1   39   9.991  12.623  11.586 -0.9131  0.4744 -1.2337
29438SOL    HW2   40  10.039  12.491  11.529 -1.1965 -0.3141  0.2985
29439SOL     OW   41   8.536  12.000   7.863  0.3306 -0.2132  0.8165
29439SOL    HW1   42   8.468  11.979   7.927 -0.2767 -3.5394 -0.7240
29439SOL    HW2   43   8.490  12.050   7.795  0.5686  1.6508  1.9447
29440SOL     OW   44   2.220   1.573   8.474 -0.6637 -0.0142  0.4727
29440SOL    HW1   45   2.193   1.657   8.437  0.0430  1.6527  3.3980
29440SOL    HW2   46   2.300   1.550   8.426 -0.0213  1.7936  0.6101
29441SOL     OW   47   0.225  12.299   8.732 -0.1843 -0.0924 -0.6293
29441SOL    HW1   48   0.177  12.222   8.761 -1.8224  1.4183  0.8559
29441SOL    HW2   49   0.178  12.328   8.654  0.2010 -0.3563 -0.9647
29442SOL     OW   50   6.990   2.633   2.486 -0.6025  0.6444 -0.6737
29442SOL    HW1   51   7.032   2.683   2.416  1.6607 -1.1793 -0.7097
29442SOL    HW2   52   7.041   2.654   2.564 -1.7510  0.9573  0.0140
29443SOL     OW   53  10.723   0.231   4.977 -0.3436  0.0472  0.6556
29443SOL    HW1   54  10.683   0.153   5.015  0.0799 -0.0585  0.8846
29443SOL    HW2   55  10.780   0.198   4.908  0.1735  0.1168  1.0419
29444SOL     OW   56  11.159   6.694   2.015 -0.0709  0.0597  0.6199
29444SOL    HW1   57  11.156   6.734   2.102 -0.7006 -1.5814  1.3867
29444SOL    HW2   58  11.167   6.600   2.032 -1.1780 -0.3817 -1.0754
29445SOL     OW   59   9.440  11.092   7.556  0.1014 -0.1300 -0.1098
29445SOL    HW1   60   9.462  11.097   7.463 -2.0671 -1.1221 -0.7560
29445SOL    HW2   61   9.349  11.120   7.560  0.7495  1.8913  2.0597
29446SOL     OW   62   1.961   3.465   2.561 -0.8454  0.3814 -0.3582
29446SOL    HW1   63   2.048   3.467   2.520 -1.0614 -0.1617 -0.8661
29446SOL    HW2   64   1.901   3.485   2.489 -0.9921  4.0139  0.6048
29447SOL     OW   65   0.693   7.616   7.980 -0.4727  0.1522  0.4302
29447SOL    HW1   66   0.679   7.644   8.071 -1.7948 -0.3318  0.3881
29447SOL    HW2   67   0.606   7.616   7.941 -0.1276 -1.1082 -0.4060
29448SOL     OW   68   9.226   0.859   4.397 -0.4094 -0.1551  0.0320
29448SOL    HW1   69   9.284   0.929   4.365 -0.0266 -1.2370 -1.7957
29448SOL    HW2   70   9.139   0.899   4.399 -0.6731 -0.2263 -3.5290
29449SOL     OW   71   8.768   1.280  13.396  0.6636 -0.6001 -0.0903
29449SOL    HW1   72   8.807   1.317  13.475 -1.2614 -0.8958  1.0696
29449SOL    HW2   73   8.832   1.217  13.364  0.7559 -1.8415  2.3134
29450SOL     OW   74   2.205  11.898   6.619 -0.2589 -0.1679 -0.4766
29450SOL    HW1   75   2.226  11.836   6.549 -0.7282 -1.0124  0.1120
29450SOL    HW2   76   2.156  11.967   6.575  0.2748 -0.2121 -1.1482
29451SOL     OW   77  12.657   4.433   1.529  0.2066 -0.1839 -0.1131
29451SOL    HW1   78  12.665   4.376   1.606 -1.2218 -0.6120 -0.2527
29451SOL    HW2   79  12.568   4.469   1.535  1.5340  3.2866  0.7819
29452SOL     OW   80   1.439   1.543   3.294  0.0603  0.3399  0.4196
29452SOL    HW1   81   1.516   1.515   3.342  0.6330  1.4655  0.1950
29452SOL    HW2   82   1.374   1.563   3.362 -0.1033 -0.7684  0.5999
29453SOL     OW   83  11.305   9.559  12.714 -0.2221 -0.3714  0.1586
29453SOL    HW1   84  11.217   9.561  12.677  0.4869  2.0834 -1.6614
29453SOL    HW2   85  11.305   9.626  12.781 -0.0725 -1.2886  1.1035
29454SOL     OW   86  13.202  10.802   6.477  0.0770 -0.0502  0.0581
29454SOL    HW1   87  13.266  10.770   6.412 -0.3839  0.7970 -0.8457
29454SOL    HW2   88  13.159  10.723   6.509  0.1106 -0.4744 -0.8973
29455SOL     OW   89   5.869   5.125  11.298  0.3573  0.1184  0.6201
29455SOL    HW1   90   5.917   5.095  11.222  0.9130 -0.6598  1.2662
29455SOL    HW2   91   5.824   5.047  11.331 -1.1334  0.7570  0.2042
29456SOL     OW   92   0.623   4.362   3.578  0.0375  0.3157  0.4673
29456SOL    HW1   93   0.572   4.442   3.566  0.5613  0.6645  0.5097
29456SOL    HW2   94   0.711   4.393   3.599  0.3912 -0.2658 -0.1065
29457SOL     OW   95   4.767   4.369   5.625 -0.0932  0.8026  0.3561
29457SOL    HW1   96   4.820   4.311   5.570 -0.9497  1.7627 -1.5838
29457SOL    HW2   97   4.769   4.454   5.581 -0.2200  1.8412  2.2463
29458SOL     OW   98  11.118   6.691  11.623 -0.5827  0.7717 -0.5703
29458SOL    HW1   99  11.160   6.663  11.542 -0.8193  0.8055 -0.7046
29458SOL    HW2  100  11.066   6.767  11.599 -1.7670 -0.0463 -0.6771
29459SOL     OW  101  10.538  10.354   0.249 -0.1011  0.2602 -0.2342
29459SOL    HW1  102  10.543  10.263   0.220 -0.8007 -0.5485  1.9369
29459SOL    HW2  103  10.560  10.405   0.172  1.3156 -1.7698 -1.2862
29460SOL     OW  104   3.651  11.206  10.232 -0.2866  0.0607  0.3414
29460SOL    HW1  105   3.728  11.148  10.234  0.0895  0.5610  0.5637
29460SOL    HW2  106   3.589  11.161  10.174 -0.5459 -1.2372  1.5638
29461SOL     OW  107   5.028   2.559   0.852  0.5153 -0.3660  0.2003
29461SOL    HW1  108   4.963   2.525   0.791  0.1522  3.6680 -2.0093
29461SOL    HW2  109   5.105   2.503   0.839 -0.7600 -1.8824 -1.1863
29462SOL     OW  110  13.043   1.850  13.115 -0.4238 -0.1539 -0.0331
29462SOL    HW1  111  12.990   1.798  13.176 -1.9650 -0.3400 -1.4778
29462SOL    HW2  112  13.019   1.941  13.135 -1.6342 -0.2541 -0.9543
29463SOL     OW  113   7.306   5.299  11.998  0.2145  0.5060  0.0990
29463SOL    HW1  114   7.245   5.370  12.017 -3.3208 -2.4146  0.7432
29463SOL    HW2  115   7.334   5.316  11.908  0.4120  3.2096  0.5731
29464SOL     OW  116   0.401   3.359   8.035  0.3594  0.5313 -0.0072
29464SOL    HW1  117   0.413   3.302   8.111 -2.0139 -1.1793 -0.7840
29464SOL    HW2  118   0.359   3.438   8.070 -2.2171 -0.8995  0.3748
29465SOL     OW  119   0.942   8.131  12.532 -0.0025 -0.9046  0.0027
29465SOL    HW1  120   0.943   8.115  12.626 -0.0383  0.3678  0.2306
29465SOL    HW2  121   1.003   8.203  12.518 -0.3022 -0.8069 -0.8967
29466SOL     OW  122  10.207   9.667  10.591  0.2502  0.6843 -0.0136
29466SOL    HW1  123  10.228   9.704  10.506 -0.4787  1.4396  0.1144
29466SOL    HW2  124  10.249   9.726  10.654 -0.8420  1.2729  0.1892
29467SOL     OW  125  10.206   2.682  12.808 -0.0877 -0.5126 -0.4126
29467SOL    HW1  126  10.219   2.701  12.715  0.4793 -1.2201 -0.4876
29467SOL    HW2  127  10.139   2.745  12.836 -0.9613 -0.9025 -1.5189
29468SOL     OW  128  10.355   1.575   3.095 -0.0241 -0.1139 -0.4619
29468SOL    HW1  129  10.261   1.576   3.078 -0.1410 -0.7475  0.0690
29468SOL    HW2  130  10.373   1.659   3.137 -0.8149 -0.9038  1.6062
29469SOL     OW  131   2.515   0.452   3.345 -0.3819 -0.2231 -0.4398
29469SOL    HW1  132   2.581   0.520   3.350 -0.4484 -0.1734 -0.2081
29469SOL    HW2  133   2.436   0.492   3.382 -0.8432  0.0766 -1.6795
29470SOL     OW  134   9.764   1.263   3.283  0.0039 -0.1997 -0.5692
29470SOL    HW1  135   9.824   1.335   3.264  0.7385  0.2934  2.9794
29470SOL    HW2  136   9.817   1.184   3.272 -0.0182 -0.0690 -1.7608
29471SOL     OW  137  11.821   8.435   2.949 -0.5151 -0.3697  0.3853
29471SOL    HW1  138  11.738   8.466   2.911  0.7519  2.3618 -0.4471
29471SOL    HW2  139  11.837   8.494   3.023  1.0476 -0.2846  0.0204
29472SOL     OW  140   6.127   8.229   3.998  0.4264 -0.6402  0.2746
29472SOL    HW1  141   6.110   8.186   4.081  0.9200  0.6356  1.0701
29472SOL    HW2  142   6.052   8.206   3.942 -1.4108  0.7961  2.0094
29473SOL     OW  143   4.459   0.022   6.576 -0.1117  0.2323  0.3298
29473SOL    HW1  144   4.375   0.046   6.616 -0.3598 -1.3826  0.8372
29473SOL    HW2  145   4.452  -0.072   6.560  1.7626 -0.0247  0.7935
29474SOL     OW  146   1.438  13.277   3.206 -0.0099 -0.0667 -0.2809
29474SOL    HW1  147   1.473  13.223   3.278 -0.9021  0.3201  0.4548
29474SOL    HW2  148   1.491  13.357   3.208 -0.0920 -0.0184  0.0062
29475SOL     OW  149  13.697  13.036   9.149 -0.2698 -0.2434 -0.5724
29475SOL    HW1  150  13.724  13.123   9.121  2.7728 -1.4234 -1.7297
29475SOL    HW2  151  13.686  13.044   9.244 -3.5687  2.1116 -0.9906
29476SOL     OW  152   1.335  10.324   6.970  0.6225 -0.0844  0.2571
29476SOL    HW1  153   1.280  10.354   7.042  1.6966 -0.3165  1.1964
29476SOL    HW2  154   1.377  10.404   6.938 -1.6185  0.4292 -1.7376
29477SOL     OW  155   9.839   8.984   7.066  0.0493 -0.0809 -0.1972
29477SOL    HW1  156   9.849   8.959   7.158 -0.3449 -1.6060 -0.5378
29477SOL    HW2  157   9.927   8.977   7.030 -0.1607 -1.8393 -0.4575
29478SOL     OW  158   9.034  12.536  10.404  0.4502  0.2117  0.0137
29478SOL    HW1  159   9.018  12.616  10.354  0.9466  1.1273  1.2830
29478SOL    HW2  160   9.129  12.534  10.417  0.4533 -0.6396 -0.0835
29479SOL     OW  161   4.987   8.709   0.050 -0.6809 -0.1712 -0.1668
29479SOL    HW1  162   5.021   8.754  -0.028 -0.6621  0.2537  0.0834
29479SOL    HW2  163   4.975   8.618   0.021 -0.9025  0.0304 -0.7330
29480SOL     OW  164  10.349   9.048   7.539  0.2193 -0.1390 -0.3062
29480SOL    HW1  165  10.338   9.143   7.528  0.3737 -0.0494  0.3054
29480SOL    HW2  166  10.417   9.039   7.606 -0.9501 -0.6754  0.8401
29481SOL     OW  167  12.437   4.047   7.791  0.7178 -0.1792  0.5919
29481SOL    HW1  168  12.522   4.091   7.797  0.1104  1.1900 -0.2374
29481SOL    HW2  169  12.425   4.007   7.877  1.1072  1.7210  1.5976
29482SOL     OW  170   3.677  12.537  13.475  0.1091 -0.2435  0.4906
29482SOL    HW1  171   3.587  12.514  13.456 -0.8178  1.7823  2.0606
29482SOL    HW2  172   3.701  12.601  13.407  0.1117 -0.2440  0.4912
29483SOL     OW  173   3.521   0.514  10.401 -0.6188 -0.5321  0.1600
29483SOL    HW1  174   3.583   0.574  10.360 -1.2072  1.0392  1.4543
29483SOL    HW2  175   3.446   0.514  10.343  0.2691 -1.8860 -1.0467
29484SOL     OW  176   6.408   6.021   2.127  0.8722  0.2468 -0.0923
29484SOL    HW1  177   6.373   5.941   2.165  0.5285  0.2499 -0.3911
29484SOL    HW2  178   6.399   6.087   2.196 -0.0371  0.3248 -0.2747
29485SOL     OW  179   0.910   0.658   9.183  0.0605  0.2748  0.2373
29485SOL    HW1  180   0.896   0.565   9.203 -1.5602  0.5325  0.3859
29485SOL    HW2  181   0.924   0.661   9.089 -0.0388 -0.1011  0.2094
29486SOL     OW  182   9.352   8.436   7.451 -0.0961  0.2476 -0.0557
29486SOL    HW1  183   9.437   8.430   7.495 -0.3042  0.8943  0.4514
29486SOL    HW2  184   9.368   8.492   7.375 -0.0396  0.2399 -0.0493
29487SOL     OW  185   0.208   3.055  12.239  0.7584  0.3487 -0.1461
29487SOL    HW1  186   0.141   3.122  12.230  0.0409 -0.4374 -0.7611
29487SOL    HW2  187   0.180   3.002  12.314  1.6555  1.0782  0.7446
29488SOL     OW  188  13.423  10.157  11.087 -0.6040  0.4770 -0.2572
29488SOL    HW1  189  13.364  10.223  11.123 -0.7939 -0.2394  0.7986
29488SOL    HW2  190  13.510  10.197  11.092 -0.1611 -0.4972  3.6480
29489SOL     OW  191   6.897  11.463   5.068 -0.4725 -0.3377 -0.4038
29489SOL    HW1  192   6.918  11.466   4.975 -1.0336  0.5831 -0.5094
29489SOL    HW2  193   6.895  11.370   5.089 -1.9293 -0.6215 -1.6902
29490SOL     OW  194   4.711   8.735  12.698  0.0787  0.2241 -0.2254
29490SOL    HW1  195   4.652   8.801  12.734 -0.8662 -1.6167  1.8329
29490SOL    HW2  196   4.699   8.741  12.603 -1.0972  1.9460 -0.0128
29491SOL     OW  197   7.151   3.807  11.570 -0.5743  0.0567  0.2091
29491SOL    HW1  198   7.196   3.816  11.487 -2.8685  0.2371 -1.1114
29491SOL    HW2  199   7.099   3.887  11.578 -0.1426  0.1960  2.0020
29492SOL     OW  200   7.918   2.831   0.253 -0.3261  0.0798 -0.1020
29492SOL    HW1  201   7.861   2.849   0.328 -0.5755  0.7248 -0.4374
29492SOL    HW2  202   7.971   2.757   0.281  0.2680  0.9111  1.0848
29493SOL     OW  203  12.523   9.791  10.136 -0.1471 -0.5379 -0.0063
29493SOL    HW1  204  12.530   9.722  10.070 -0.7754 -0.1477 -0.4890
29493SOL    HW2  205  12.577   9.862  10.102 -0.5051 -0.3202 -0.1298
29494SOL     OW  206   6.053   9.905  12.152 -0.3580  0.2672  0.1431
29494SOL    HW1  207   6.034   9.993  12.121  3.3794  1.0649 -0.3304
29494SOL    HW2  208   6.147   9.894  12.138 -0.6950 -3.9863 -0.2240
29495SOL     OW  209  11.856   3.344  10.524  0.1116 -0.2946 -0.3618
29495SOL    HW1  210  11.817   3.419  10.569 -0.4643 -0.6221 -0.3054
29495SOL    HW2  211  11.927   3.315  10.581  0.9451  0.7609 -0.8120
29496SOL     OW  212   7.300   3.616  11.876  0.2729  0.0827 -0.2278
29496SOL    HW1  213   7.332   3.701  11.908  0.9057 -0.3169  0.2243
29496SOL    HW2  214   7.379   3.573  11.843  0.0466 -0.5597  0.0665
29497SOL     OW  215  12.772  12.001   8.631  0.0447  0.0153  0.4858
29497SOL    HW1  216  12.740  11.939   8.696  1.1380 -0.0551  0.9789
29497SOL    HW2  217  12.731  12.084   8.654 -1.4264 -0.4885 -0.1783
29498SOL     OW  218   5.490   7.611   6.872  0.1850 -0.3286 -0.1366
29498SOL    HW1  219   5.492   7.595   6.778 -0.9632  0.1145 -0.2562
29498SOL    HW2  220   5.478   7.524   6.911  1.6279 -0.6306 -0.3286
29499SOL     OW  221   2.968   6.796  13.221  0.1365 -0.1051 -0.0886
29499SOL    HW1  222   2.986   6.888  13.203  0.7256 -0.1267  0.3869
29499SOL    HW2  223   2.907   6.770  13.152  0.1744  0.5715 -0.3819
29500SOL     OW  224  13.245   8.083   0.006  0.1732 -0.4255  0.2234
29500SOL    HW1  225  13.168   8.106   0.058  0.2960  1.0480 -0.1865
29500SOL    HW2  226  13.223   7.998  -0.033 -1.4978  0.2178 -0.3472
29501SOL     OW  227   0.834   1.355  13.458 -0.5754 -0.1467  0.1023
29501SOL    HW1  228   0.851   1.383  13.368  0.6255 -0.3831  0.2424
29501SOL    HW2  229   0.843   1.260  13.455 -0.3508 -0.1392  0.5135
29502SOL     OW  230   8.282  10.117   0.341  0.3861  0.8818 -0.2199
29502SOL    HW1  231   8.271  10.059   0.417 -0.1751  0.6154 -0.4984
29502SOL    HW2  232   8.214  10.183   0.352 -0.3383  0.2767 -1.0035
29503SOL     OW  233   5.738  12.539  12.590  0.4125  0.1917 -0.3340
29503SOL    HW1  234   5.738  12.521  12.684  0.7578 -1.3794 -0.5922
29503SOL    HW2  235   5.740  12.634  12.583 -0.5612  0.3736  1.2396
29504SOL     OW  236   6.004  12.205  11.857  0.1002  0.0727  0.2123
29504SOL    HW1  237   6.022  12.197  11.950 -1.6084 -0.9518  0.4922
29504SOL    HW2  238   6.065  12.272  11.826 -0.5610  1.8024  2.4333
29505SOL     OW  239   2.272   2.482   4.234  0.3153  0.3321  0.7988
29505SOL    HW1  240   2.291   2.545   4.304  1.2836  1.1661 -0.1679
29505SOL    HW2  241   2.340   2.415   4.243  0.6331  0.6074  0.4721
29506SOL     OW  242  13.659  10.720   4.113 -0.2186 -0.3521 -0.0963
29506SOL    HW1  243  13.732  10.775   4.086 -0.8239  0.3980 -0.2452
29506SOL    HW2  244  13.699  10.636   4.136  0.9361  0.5946  1.6204
29507SOL     OW  245   9.528  12.311   2.478 -0.3216 -0.5403  1.1501
29507SOL    HW1  246   9.450  12.265   2.447  0.3063 -0.8864  0.0384
29507SOL    HW2  247   9.520  12.311   2.573  0.1753 -3.9453  1.3044
29508SOL     OW  248   7.678   1.439   5.108  0.0006  0.2448  0.1767
29508SOL    HW1  249   7.710   1.519   5.150 -0.0245  0.2584  0.1708
29508SOL    HW2  250   7.750   1.377   5.115 -0.3268 -0.0582  1.0744
29509SOL     OW  251   1.309   3.182   6.848  0.0314 -0.2458  0.2662
29509SOL    HW1  252   1.259   3.125   6.789  0.0053 -0.8922  0.8941
29509SOL    HW2  253   1.390   3.133   6.863 -0.1247 -0.2599  1.0640
29510SOL     OW  254  10.594   0.145  12.370 -0.6590  0.8559  0.4704
29510SOL    HW1  255  10.525   0.159  12.305 -0.4916  0.3425  0.1768
29510SOL    HW2  256  10.609   0.231  12.408 -0.7533  1.1627 -0.1753
29511SOL     OW  257  10.089   5.079   3.938  0.4728 -0.1709 -0.1156
29511SOL    HW1  258  10.105   4.992   3.901 -2.1714 -1.2070  0.9608
29511SOL    HW2  259  10.095   5.065   4.033 -4.5427 -0.4327  0.3952
29512SOL     OW  260  11.596   4.202   4.818 -0.0940 -0.1882 -0.0589
29512SOL    HW1  261  11.673   4.250   4.789 -0.1434  0.1868  0.4233
29512SOL    HW2  262  11.523   4.246   4.774 -0.0280 -0.6163 -0.6080
29513SOL     OW  263  11.633  10.138  11.963  0.1368 -0.3883  0.2798
29513SOL    HW1  264  11.581  10.218  11.974 -1.2523 -1.4255  1.6338
29513SOL    HW2  265  11.618  10.088  12.044  1.5600 -1.6876 -0.2165
29514SOL     OW  266   1.148   0.096   4.711 -0.2740 -0.2111 -0.8197
29514SOL    HW1  267   1.140   0.129   4.801  2.7503  0.3471 -0.6435
29514SOL    HW2  268   1.195   0.013   4.720 -1.0964 -0.7958 -1.8142
29515SOL     OW  269   1.780  13.205   1.386  0.2172  0.3976  0.6459
29515SOL    HW1  270   1.733  13.123   1.400 -0.9860  0.6034 -1.5833
29515SOL    HW2  271   1.871  13.179   1.370 -0.4322 -0.7602 -1.6822
29516SOL     OW  272   4.622   7.657   6.197 -0.3175  0.2711 -0.1849
29516SOL    HW1  273   4.701   7.708   6.177  0.2256 -0.3262  0.4320
29516SOL    HW2  274   4.653   7.584   6.250 -1.3020  0.0760  0.1323
29517SOL     OW  275   0.851   2.302   1.954 -0.8076  0.2005  0.8040
29517SOL    HW1  276   0.863   2.255   1.872 -0.9986  1.0440  0.2807
29517SOL    HW2  277   0.931   2.355   1.963 -0.4223 -0.4793  1.5763
29518SOL     OW  278   7.896  11.936   3.323  0.2864 -0.0590  0.3487
29518SOL    HW1  279   7.953  11.866   3.294  0.9117  0.5030  0.1928
29518SOL    HW2  280   7.839  11.954   3.247 -0.4306 -0.9381  0.6647
29519SOL     OW  281  12.613   0.448   0.777  0.1556 -0.3010  0.1889
29519SOL    HW1  282  12.621   0.363   0.733  0.8704 -0.9268  1.4786
29519SOL    HW2  283  12.524   0.449   0.811  0.2263 -0.6330  0.3831
29520SOL     OW  284  12.211   0.183  10.048 -0.4652 -0.5140  0.5547
29520SOL    HW1  285  12.136   0.229  10.009  0.2046  1.2179  1.2403
29520SOL    HW2  286  12.173   0.105  10.088 -1.5284 -1.0204 -1.2994
29521SOL     OW  287   3.769   2.047  13.278 -0.0187 -0.3705 -0.5601
29521SOL    HW1  288   3.768   2.137  13.245 -0.0364 -0.5672 -1.0958
29521SOL    HW2  289   3.861   2.028  13.293 -0.0721  0.0174  0.3382
29522SOL     OW  290  10.219  11.434  10.883 -0.1253 -0.7316 -0.3514
29522SOL    HW1  291  10.140  11.446  10.830  0.1788  0.0714 -0.6381
29522SOL    HW2  292  10.197  11.474  10.967 -1.2460 -3.5397  0.8199
29523SOL     OW  293   0.054   9.878   6.107 -0.5639  0.1993 -0.4224
29523SOL    HW1  294   0.125   9.850   6.049  1.2060  0.9288  1.2802
29523SOL    HW2  295   0.049   9.973   6.094 -0.3330  0.3305  0.3980
29524SOL     OW  296   9.317  13.090   9.274  0.0932 -0.6923 -1.0856
29524SOL    HW1  297   9.399  13.077   9.226  0.3200  0.0213 -0.9190
29524SOL    HW2  298   9.286  13.176   9.244  0.1260 -0.3366 -0.1358
29525SOL     OW  299   5.110   3.290   0.827  0.0180 -0.2358  0.1921
29525SOL    HW1  300   5.028   3.322   0.864 -0.3089 -0.0842 -0.6292
29525SOL    HW2  301   5.146   3.366   0.781 -0.9952 -1.0871 -2.1724
29526SOL     OW  302   0.361   1.732   5.511 -0.4098 -0.0042  0.3116
29526SOL    HW1  303   0.275   1.692   5.527 -0.4091 -0.0919  0.0989
29526SOL    HW2  304   0.348   1.785   5.432 -1.2738  2.9591  2.2783
29527SOL     OW  305   3.557   3.342   6.894 -0.2895 -0.2514  0.0980
29527SOL    HW1  306   3.534   3.425   6.936  0.7684 -0.0272  0.2857
29527SOL    HW2  307   3.507   3.341   6.813  0.7349  1.2739 -0.6087
29528SOL     OW  308   6.973   8.267   1.385 -0.4365 -0.4573 -0.0924
29528SOL    HW1  309   7.033   8.259   1.311  0.4916 -0.6589  0.6714
29528SOL    HW2  310   6.940   8.178   1.399 -0.1554 -0.5278  0.1165
29529SOL     OW  311  12.858  11.219   7.985  0.3564 -0.0612  0.1380
29529SOL    HW1  312  12.866  11.248   8.076  1.7251  0.7616 -0.2290
29529SOL    HW2  313  12.767  11.189   7.978  0.5661 -1.3768  2.1117
29530SOL     OW  314   2.256   8.826   8.429  0.9650 -0.0026  0.1387
29530SOL    HW1  315   2.169   8.786   8.439  0.6914  0.1511 -1.3622
29530SOL    HW2  316   2.252   8.871   8.345  2.0742  1.1529  0.6802
29531SOL     OW  317  11.883  13.625   4.542 -0.1920  0.7682 -0.5449
29531SOL    HW1  318  11.799  13.671   4.548  0.2657  1.6890 -1.0233
29531SOL    HW2  319  11.861  13.532   4.555 -1.2584  1.0150 -0.5372
29532SOL     OW  320   0.215   2.945  12.557 -0.0026  0.1078  0.7185
29532SOL    HW1  321   0.242   2.891  12.631 -2.9304  1.1212  2.7486
29532SOL    HW2  322   0.256   3.030  12.573  0.4855 -0.0734  0.4137
29533SOL     OW  323   2.273   8.985   8.155 -0.0211 -0.3917 -0.1312
29533SOL    HW1  324   2.184   8.949   8.148 -0.9812  1.7901  0.0680
29533SOL    HW2  325   2.285   9.035   8.075  0.3194  0.7828  0.6332
29534SOL     OW  326   1.861   3.399   4.819 -0.0717  0.0671  0.1292
29534SOL    HW1  327   1.814   3.483   4.824 -3.9895 -1.9485  1.8362
29534SOL    HW2  328   1.872   3.373   4.910  2.1118 -0.8479 -0.3456
29535SOL     OW  329   0.457   5.812  10.474 -0.2580 -0.7893 -0.7168
29535SOL    HW1  330   0.403   5.885  10.443  1.4342  0.7678 -0.1718
29535SOL    HW2  331   0.525   5.802  10.408 -0.0109 -1.3749 -0.3840
29536SOL     OW  332  12.936   1.951   7.488 -0.2301  0.3814 -0.0750
29536SOL    HW1  333  12.950   1.896   7.566 -1.0120 -0.3341 -0.4346
29536SOL    HW2  334  13.024   1.960   7.450 -0.1767 -1.2576 -0.4272
29537SOL     OW  335   6.146  12.904   6.956 -0.0791 -0.1043 -0.0850
29537SOL    HW1  336   6.131  12.976   6.895  0.1198 -0.7718 -0.9396
29537SOL    HW2  337   6.100  12.830   6.918 -0.3534 -0.4217  0.8279
29538SOL     OW  338   4.954   3.710   9.499 -0.3209 -0.0179  0.0002
29538SOL    HW1  339   4.892   3.637   9.500  0.4039 -0.6652 -1.0689
29538SOL    HW2  340   5.040   3.668   9.503  0.1173  0.7469 -1.0777
29539SOL     OW  341   0.820   7.630   9.324  0.1880  0.0585 -0.4456
29539SOL    HW1  342   0.775   7.546   9.335  0.3372 -0.0247 -0.4732
29539SOL    HW2  343   0.752   7.688   9.289  0.7420 -0.8023 -3.2501
29540SOL     OW  344   9.194   3.497   7.239  0.3568  0.2677 -0.4600
29540SOL    HW1  345   9.107   3.462   7.253  1.1854 -0.9380  2.3182
29540SOL    HW2  346   9.183   3.592   7.241 -0.9110  0.1304 -0.5626
29541SOL     OW  347   2.884   7.730   7.400  0.5529 -0.1922  0.1811
29541SOL    HW1  348   2.965   7.718   7.449 -0.1635 -0.6081  1.3172
29541SOL    HW2  349   2.876   7.651   7.346  1.1713  0.1041 -0.3518
29542SOL     OW  350   0.980   0.528   8.657 -0.2145  0.1902  0.7853
29542SOL    HW1  351   0.981   0.432   8.655 -0.3487  0.1132  2.4242
29542SOL    HW2  352   0.892   0.552   8.629 -0.2003 -0.1796  0.4241
29543SOL     OW  353   5.302   9.796   2.060 -0.5268 -0.5205 -0.0362
29543SOL    HW1  354   5.314   9.886   2.089  1.3196 -0.7418  0.0384
29543SOL    HW2  355   5.298   9.801   1.964 -0.6267 -0.3434 -0.0225
29544SOL     OW  356  11.212   4.587   1.154  0.3594  0.0309 -0.8054
29544SOL    HW1  357  11.259   4.649   1.209 -0.0586 -1.0855  0.8958
29544SOL    HW2  358  11.203   4.632   1.069  0.2779  2.1879  0.2618
29545SOL     OW  359  12.910   5.762   7.624  0.0235  0.6524  0.3863
29545SOL    HW1  360  12.835   5.749   7.681 -1.2071  0.8410 -1.1163
29545SOL    HW2  361  12.883   5.723   7.540  2.5101 -1.4744  0.4360
29546SOL     OW  362   1.868   9.002   1.359  0.2707  0.3160 -0.4021
29546SOL    HW1  363   1.900   9.077   1.308  0.8710  0.3687  0.0424
29546SOL    HW2  364   1.884   8.926   1.303  1.2710  0.3326 -0.1521
29547SOL     OW  365   5.372   1.727  13.044  0.2943  0.1557 -0.0582
29547SOL    HW1  366   5.371   1.632  13.031 -0.3328  0.1227  0.2509
29547SOL    HW2  367   5.306   1.760  12.983 -0.7148  0.2384  1.0443
29548SOL     OW  368   4.752  13.070   7.098  0.1098  0.4927  0.1781
29548SOL    HW1  369   4.842  13.083   7.070  0.0778 -1.0223 -0.6832
29548SOL    HW2  370   4.758  13.010   7.172 -0.3416 -2.1716 -1.8231
29549SOL     OW  371   5.268   4.012  11.385 -0.7179  0.1547 -0.0656
29549SOL    HW1  372   5.362   4.020  11.368 -0.2871 -0.8223  1.6881
29549SOL    HW2  373   5.248   4.087  11.442 -0.8035 -0.1376  0.2912
29550SOL     OW  374   8.634  13.177  10.177  0.5424 -0.1091  0.0808
29550SOL    HW1  375   8.644  13.215  10.089 -0.8481  0.0292 -0.0358
29550SOL    HW2  376   8.540  13.172  10.191  0.7122  0.9280  2.0276
29551SOL     OW  377   9.524   2.698   9.467 -0.5295  0.0542  0.3880
29551SOL    HW1  378   9.596   2.668   9.523 -0.7470  1.6682  1.6131
29551SOL    HW2  379   9.448   2.649   9.498 -0.4585  0.2402  0.8624
29552SOL     OW  380   6.389  10.861   2.851 -0.2436 -0.2489 -0.5146
29552SOL    HW1  381   6.435  10.879   2.933  0.4697  1.6494 -1.2589
29552SOL    HW2  382   6.304  10.905   2.862  0.1544  0.6928 -1.0466
29553SOL     OW  383  11.463   5.552  13.052 -0.1152 -0.4293 -0.3967
29553SOL    HW1  384  11.558   5.561  13.065 -0.4275  2.5834  0.7884
29553SOL    HW2  385  11.435   5.639  13.024 -2.4276 -1.5522 -1.8370
29554SOL     OW  386   5.813   5.656   5.984  0.5414  0.2452 -0.0627
29554SOL    HW1  387   5.749   5.638   6.053  1.2446  1.7028  1.0219
29554SOL    HW2  388   5.893   5.612   6.013 -0.2001 -2.7845 -2.0954
29555SOL     OW  389   9.128   6.920   6.313 -0.2722 -0.0420  0.3988
29555SOL    HW1  390   9.143   6.826   6.310  2.3807  0.3489 -0.8975
29555SOL    HW2  391   9.086   6.940   6.229  0.5614  0.1205  0.0152
29556SOL     OW  392  11.305   0.517   0.418 -0.0040  0.0587  0.1504
29556SOL    HW1  393  11.275   0.609   0.421 -1.0656 -0.2403  3.6619
29556SOL    HW2  394  11.393   0.522   0.380 -0.0631  2.5200  0.1232
29557SOL     OW  395   7.821   9.282   4.742  0.6294 -0.2899  0.0241
29557SOL    HW1  396   7.791   9.254   4.656  0.8564  0.4381 -0.2960
29557SOL    HW2  397   7.814   9.377   4.741 -0.3939 -0.3223  1.2021
29558SOL     OW  398  12.400   2.967   5.574 -0.1405 -0.3063  0.0536
29558SOL    HW1  399  12.354   2.944   5.655  0.1528  0.0850  0.3370
29558SOL    HW2  400  12.333   2.964   5.507 -0.5456  0.1080  0.4351
29559SOL     OW  401   6.612  13.417   5.366 -0.3034 -0.1188 -0.4324
29559SOL    HW1  402   6.657  13.402   5.283 -0.9387 -0.1277 -0.7828
29559SOL    HW2  403   6.662  13.366   5.430  0.9197  0.8620 -0.5684
29560SOL     OW  404   1.218   2.943   1.655  0.2123 -0.4412  0.3186
29560SOL    HW1  405   1.166   2.872   1.617 -0.0640 -0.4863  0.7734
29560SOL    HW2  406   1.161   3.020   1.650 -0.7583 -0.9014  2.6935
29561SOL     OW  407   9.879   3.027   0.118 -0.1176  0.2988 -0.3411
29561SOL    HW1  408   9.925   3.100   0.078 -0.3273 -0.6814 -2.5152
29561SOL    HW2  409   9.809   3.068   0.169  0.3744  1.6246 -0.6945
29562SOL     OW  410  10.534  10.042   8.032 -0.3603 -0.0692 -0.5135
29562SOL    HW1  411  10.536  10.122   7.980 -0.0968  1.3875  1.5929
29562SOL    HW2  412  10.501  10.071   8.118 -0.4866 -2.2757  0.2370
29563SOL     OW  413  10.323  12.533  12.258  0.1908  1.0893 -0.7018
29563SOL    HW1  414  10.328  12.560  12.166 -2.6447  0.4354 -1.1333
29563SOL    HW2  415  10.282  12.607  12.303  0.5707  0.9802 -0.1656
29564SOL     OW  416  13.090  11.408   3.985  0.2531  0.2075  0.4408
29564SOL    HW1  417  13.103  11.431   3.893  0.0067  0.4366  0.4621
29564SOL    HW2  418  13.032  11.476   4.019 -0.2859 -0.3089  0.5700
29565SOL     OW  419   0.366   5.628   3.054  0.0724 -0.1549 -0.0465
29565SOL    HW1  420   0.280   5.585   3.046  0.0827 -0.4864  1.3548
29565SOL    HW2  421   0.407   5.616   2.968 -1.2375 -0.0895 -0.7036
29566SOL     OW  422   4.179   7.103   7.685  0.2305  0.2756 -0.2718
29566SOL    HW1  423   4.131   7.183   7.708 -0.9652 -0.1664 -1.1287
29566SOL    HW2  424   4.122   7.032   7.715  1.8918 -0.3017  1.7157
29567SOL     OW  425   8.655  11.131   8.132  0.0215 -0.5705  0.0822
29567SOL    HW1  426   8.627  11.040   8.119 -0.3137 -0.5269  0.4853
29567SOL    HW2  427   8.595  11.182   8.077  0.3478 -0.6083 -0.3130
29568SOL     OW  428  11.718   9.969  10.397 -0.1698 -0.1909  0.4001
29568SOL    HW1  429  11.753  10.051  10.362  0.2803  0.4012  2.1790
29568SOL    HW2  430  11.742   9.903  10.331 -2.0804  1.3171 -1.9397
29569SOL     OW  431   1.774   1.768  11.184 -0.3371  0.6086 -0.2776
29569SOL    HW1  432   1.827   1.820  11.123  0.5157  1.8879  1.4548
29569SOL    HW2  433   1.798   1.677  11.166  0.4233  1.0125 -1.3589
29570SOL     OW  434   8.060   3.161   4.554 -0.5466 -0.0854 -0.3097
29570SOL    HW1  435   8.055   3.255   4.542 -0.0325 -0.1839 -1.4890
29570SOL    HW2  436   8.121   3.149   4.627 -2.7683  0.5322  1.7833
29571SOL     OW  437   8.839   4.749   7.717  0.1022 -0.2379 -0.0309
29571SOL    HW1  438   8.918   4.770   7.668  0.3026 -1.4109 -0.2417
29571SOL    HW2  439   8.834   4.816   7.786  0.2380  0.9701 -1.1507
29572SOL     OW  440   7.618   9.001   7.451  0.1203  0.0171 -0.5679
29572SOL    HW1  441   7.523   9.006   7.468 -0.1152  3.3750 -1.9988
29572SOL    HW2  442   7.624   8.960   7.365 -0.0332 -0.3140 -0.4222
29573SOL     OW  443   1.982   7.987   0.320 -0.5195 -0.1062 -0.2254
29573SOL    HW1  444   2.044   8.055   0.293  0.6795 -0.4099  1.5525
29573SOL    HW2  445   1.920   7.981   0.247 -0.1375  2.2250 -0.8435
29574SOL     OW  446   6.822   6.861  11.437  0.1059  0.3300 -0.3143
29574SOL    HW1  447   6.839   6.809  11.515 -0.4383  2.3756  1.2263
29574SOL    HW2  448   6.733   6.838  11.411  0.1479 -0.0587 -0.1214
29575SOL     OW  449  13.672   7.971  10.378  0.2484  0.0527  0.8583
29575SOL    HW1  450  13.758   7.967  10.418  0.1080  2.3634  1.5835
29575SOL    HW2  451  13.686   8.014  10.294  0.3004 -3.2627 -0.9763
29576SOL     OW  452   5.735   1.170   3.133  0.0216 -0.0339  0.2144
29576SOL    HW1  453   5.768   1.106   3.196  2.7185  0.4070 -0.6045
29576SOL    HW2  454   5.677   1.120   3.076  0.8842 -1.4239  0.4987
29577SOL     OW  455   2.843  13.709   9.112 -0.3156 -0.1779  0.2696
29577SOL    HW1  456   2.882  13.664   9.037 -0.3100 -0.2719  0.3290
29577SOL    HW2  457   2.782  13.772   9.073  0.0891  0.1571  0.1644
29578SOL     OW  458   2.659  11.134  11.047  0.3005 -0.4462  0.1224
29578SOL    HW1  459   2.637  11.221  11.016 -1.7748 -1.6275 -2.1224
29578SOL    HW2  460   2.574  11.095  11.069  1.2216 -1.7365  1.6033
29579SOL     OW  461  11.538   9.570  12.563  0.0858 -0.6784  0.5421
29579SOL    HW1  462  11.520   9.516  12.487  1.2916 -0.3408 -0.0063
29579SOL    HW2  463  11.455   9.576  12.609 -0.1841 -2.5964  0.3645
29580SOL     OW  464  10.173   0.840  12.365 -0.3683  0.2456  0.2208
29580SOL    HW1  465  10.102   0.874  12.311 -0.8976  0.3742  0.9856
29580SOL    HW2  466  10.246   0.899  12.349 -0.3935  0.0589 -0.6433
29581SOL     OW  467   7.032   2.229   5.535 -0.1380 -0.0960 -0.1293
29581SOL    HW1  468   7.110   2.173   5.537 -0.4444 -0.5134  0.2766
29581SOL    HW2  469   7.066   2.318   5.550  0.3854 -0.1211 -1.0695
29582SOL     OW  470  10.957   4.411   5.081 -0.6204  0.1921 -0.1832
29582SOL    HW1  471  11.046   4.389   5.052  0.5403  0.4558  2.8651
29582SOL    HW2  472  10.919   4.328   5.110 -0.6058  0.3973  0.4272
29583SOL     OW  473   9.698   7.239   7.866  0.1287  0.5624  0.3323
29583SOL    HW1  474   9.777   7.198   7.829 -0.4475 -0.3151  0.0415
29583SOL    HW2  475   9.645   7.262   7.790 -0.1667  0.5946  0.5463
29584SOL     OW  476   1.703   2.300  10.997  0.1391  0.1262  0.1474
29584SOL    HW1  477   1.729   2.380  11.044  1.8822  0.1025 -0.6939
29584SOL    HW2  478   1.686   2.236  11.066  1.8144  0.3359  0.7877
29585SOL     OW  479   6.457   0.491   0.422  0.0088  0.3081  0.3857
29585SOL    HW1  480   6.401   0.428   0.468  0.5670  1.1138  2.3027
29585SOL    HW2  481   6.540   0.488   0.471  0.4840  1.5575 -0.3066
29586SOL     OW  482   4.015   2.559  10.713  0.0448  0.4630  0.1712
29586SOL    HW1  483   3.965   2.478  10.702  0.1636  0.5283 -0.9626
29586SOL    HW2  484   4.106   2.533  10.695  0.5291  0.2501  2.6238
29587SOL     OW  485   4.319  10.575   7.275 -0.1773 -1.0814  0.0618
29587SOL    HW1  486   4.230  10.562   7.241 -1.6759  2.3687  2.0836
29587SOL    HW2  487   4.314  10.550   7.367  0.6004  0.0733  0.4524
29588SOL     OW  488   0.726   8.360   0.304 -0.1826  0.5802  0.1543
29588SOL    HW1  489   0.740   8.310   0.224 -0.6841  0.1890  0.3096
29588SOL    HW2  490   0.805   8.414   0.312  0.1614  0.1469 -0.2511
29589SOL     OW  491   1.586  11.505   3.878  0.6351 -0.0719  0.5083
29589SOL    HW1  492   1.548  11.580   3.832  1.7479  0.6687  0.7684
29589SOL    HW2  493   1.680  11.520   3.875  0.7589  0.7520  4.1559
29590SOL     OW  494   2.636   4.347   0.439  0.7504 -0.2280 -0.4481
29590SOL    HW1  495   2.581   4.418   0.473  0.7774  0.4562 -1.7528
29590SOL    HW2  496   2.648   4.288   0.513 -0.5309  0.3602  0.2616
29591SOL     OW  497  12.329   3.031   1.386 -0.2488 -0.1100  0.0614
29591SOL    HW1  498  12.401   2.982   1.347 -0.1269 -0.6957  0.9792
29591SOL    HW2  499  12.269   2.964   1.418 -1.5591  0.3630 -1.2792
29592SOL     OW  500   3.935   3.646   9.607 -0.1608  0.3004 -0.2318
29592SOL    HW1  501   3.861   3.588   9.624  0.6734 -0.3960  1.1897
29592SOL    HW2  502   3.908   3.697   9.531 -2.0448 -0.0156  0.1708
29593SOL     OW  503  11.503   9.599   3.359 -0.1678 -0.0248  0.8174
29593SOL    HW1  504  11.467   9.531   3.415 -1.5451  0.1808  0.2199
29593SOL    HW2  505  11.446   9.601   3.283  0.5776  0.9622  0.2526
29594SOL     OW  506   2.921  12.113   6.808 -0.2781  1.0036 -0.2160
29594SOL    HW1  507   2.906  12.037   6.752 -2.2823  0.8856  0.4116
29594SOL    HW2  508   2.989  12.163   6.763 -0.5829  0.0159 -1.8462
29595SOL     OW  509  11.965  10.747  12.695 -0.7339 -0.1636  0.5117
29595SOL    HW1  510  11.948  10.664  12.740  0.2964 -0.1864  0.8844
29595SOL    HW2  511  12.047  10.778  12.732 -0.7878  0.7210 -0.0777
29596SOL     OW  512  11.556  10.346   5.748  0.1655  0.3127 -0.7184
29596SOL    HW1  513  11.474  10.297   5.743 -0.0694  0.2785  1.9400
29596SOL    HW2  514  11.554  10.403   5.671 -2.8937  1.0472 -0.2652
29597SOL     OW  515   9.477   1.543   3.233  0.6853 -0.1995 -0.6861
29597SOL    HW1  516   9.385   1.559   3.253  1.0940 -0.3712  1.6265
29597SOL    HW2  517   9.477   1.459   3.187 -0.2908 -0.3238 -0.4862
29598SOL     OW  518   4.919   7.794   6.355 -0.1483 -0.2191  0.0338
29598SOL    HW1  519   4.894   7.886   6.343  0.2036 -0.1986 -0.5998
29598SOL    HW2  520   4.934   7.786   6.450 -0.8449  0.1996  0.1851
29599SOL     OW  521   5.981   4.225  11.466 -0.2547 -0.3556 -0.0267
29599SOL    HW1  522   5.925   4.154  11.496 -1.5878  0.3048 -0.8731
29599SOL    HW2  523   5.921   4.297  11.449  0.9106  0.5141 -0.5737
29600SOL     OW  524   4.000   9.457  11.670 -0.3468 -0.7159  0.0168
29600SOL    HW1  525   4.004   9.501  11.585  0.4603  0.2962  0.5531
29600SOL    HW2  526   3.941   9.512  11.722 -1.4929 -1.7784 -0.1189
29601SOL     OW  527  12.476   8.351   3.382  0.0261  0.5016  0.0626
29601SOL    HW1  528  12.533   8.425   3.404 -1.1233  1.1575  0.9526
29601SOL    HW2  529  12.528   8.274   3.403  1.5850  0.9850 -1.6973
29602SOL     OW  530  13.359  13.566   6.715  0.2977  0.4531  0.1911
29602SOL    HW1  531  13.389  13.557   6.806 -0.5965 -1.3151  0.3553
29602SOL    HW2  532  13.264  13.570   6.722  0.1981 -0.2111 -0.6984
29603SOL     OW  533   8.842   6.806   2.548 -0.7673 -0.1138 -0.0644
29603SOL    HW1  534   8.843   6.871   2.617  0.1251  0.6318 -0.7571
29603SOL    HW2  535   8.821   6.855   2.468 -2.2020 -1.0199 -0.2764
29604SOL     OW  536   9.696   9.978   7.461 -0.3351 -0.2121 -0.5706
29604SOL    HW1  537   9.680  10.067   7.431 -1.3418  0.0191  0.6054
29604SOL    HW2  538   9.718   9.930   7.381 -0.2863  0.9684 -1.2871
29605SOL     OW  539   9.790   4.237   4.022  0.3003 -0.5492  0.0446
29605SOL    HW1  540   9.760   4.168   4.082  2.2935 -1.0232  0.5853
29605SOL    HW2  541   9.709   4.275   3.987 -0.8823 -2.2462  0.7697
29606SOL     OW  542   5.904   6.363  10.365 -0.3833  0.1492  0.6132
29606SOL    HW1  543   5.866   6.377  10.452  0.5232  1.4356  0.8382
29606SOL    HW2  544   5.987   6.319  10.382 -0.7737 -0.7437  0.2818
29607SOL     OW  545   7.833   5.794   4.853 -0.4190  0.0052 -0.5857
29607SOL    HW1  546   7.870   5.817   4.768  0.0636  0.4181 -0.2663
29607SOL    HW2  547   7.823   5.699   4.849  0.0139 -0.0290 -0.9362
29608SOL     OW  548   9.784   5.991  11.708 -0.3784 -0.1119  0.6305
29608SOL    HW1  549   9.794   5.916  11.650 -2.4134  0.4516 -0.5591
29608SOL    HW2  550   9.694   5.987  11.739 -0.4685  1.6816  0.7520
29609SOL     OW  551  12.156  10.840   0.512  0.5949 -0.0845 -0.0625
29609SOL    HW1  552  12.100  10.807   0.442 -1.0413  0.2708  1.0356
29609SOL    HW2  553  12.133  10.786   0.588  1.2174  0.5589  0.5916
29610SOL     OW  554  12.010   2.674  13.353  0.0432 -0.2358  0.4463
29610SOL    HW1  555  12.019   2.625  13.434 -0.3349 -0.8606  0.1193
29610SOL    HW2  556  12.093   2.721  13.344  0.3361 -0.6611  0.8648
29611SOL     OW  557   3.998   4.963   8.439  0.7275 -0.2434 -0.0152
29611SOL    HW1  558   3.993   4.986   8.531  2.6583  0.6536 -0.0956
29611SOL    HW2  559   4.000   4.867   8.438 -0.2740 -0.2960  0.7723
29612SOL     OW  560   4.849   2.147  13.404 -0.2639  0.2119 -0.0838
29612SOL    HW1  561   4.910   2.127  13.332 -0.1868  2.5639 -0.7306
29612SOL    HW2  562   4.900   2.199  13.466 -1.0393  0.3932  0.4225
29613SOL     OW  563   9.208  13.693   4.125  0.0496 -0.4440  0.0375
29613SOL    HW1  564   9.256  13.771   4.096 -0.2820 -1.1500 -2.7326
29613SOL    HW2  565   9.256  13.663   4.202  0.3569  2.2732  1.0342
29614SOL     OW  566  11.125   8.825   0.999 -0.5942 -0.1189  0.3275
29614SOL    HW1  567  11.107   8.881   0.923 -0.1491  0.6179  0.7458
29614SOL    HW2  568  11.055   8.760   0.998 -0.6912 -0.0162 -0.6167
29615SOL     OW  569   7.738  10.783   7.412  0.2200  0.1738 -0.3211
29615SOL    HW1  570   7.673  10.734   7.362  1.1141 -0.8449 -0.5320
29615SOL    HW2  571   7.769  10.851   7.351 -2.1908  2.1603  0.4959
29616SOL     OW  572   7.106  12.205   6.934 -0.0748  0.4960  0.0543
29616SOL    HW1  573   7.094  12.110   6.933  0.8541  0.3641 -1.0694
29616SOL    HW2  574   7.024  12.240   6.899 -0.4947  0.1200  0.6609
29617SOL     OW  575   3.059  11.907   0.276 -0.5503 -0.2731  0.4064
29617SOL    HW1  576   3.073  11.813   0.264  0.4111  0.1448 -2.7925
29617SOL    HW2  577   3.147  11.944   0.278 -0.9006  0.5571  2.3405
29618SOL     OW  578  12.403   7.212  10.684  0.6737 -0.4689 -0.2472
29618SOL    HW1  579  12.363   7.194  10.599  0.7061  2.7829 -1.0747
29618SOL    HW2  580  12.455   7.134  10.703 -2.3332 -2.9474 -1.3071
29619SOL     OW  581   2.663   0.815   8.092 -0.0645 -0.0313 -0.2409
29619SOL    HW1  582   2.637   0.777   8.176  0.0261  0.9049  0.2259
29619SOL    HW2  583   2.721   0.750   8.053  1.3342  0.2782  1.2385
29620SOL     OW  584  11.261   6.231  11.347 -0.3374  0.6288  0.5517
29620SOL    HW1  585  11.286   6.165  11.283 -0.6283  0.9148  0.1385
29620SOL    HW2  586  11.313   6.210  11.425 -1.0373 -0.6035  0.7209
29621SOL     OW  587  10.793   6.580  12.782 -0.2620 -0.2481  0.3171
29621SOL    HW1  588  10.746   6.599  12.701 -0.0402 -0.9762  0.0024
29621SOL    HW2  589  10.798   6.484  12.784 -1.6525 -0.3190  1.9881
29622SOL     OW  590   8.624   8.871  11.383 -0.1261 -0.2286 -0.7404
29622SOL    HW1  591   8.617   8.937  11.314  1.9142  1.0012  0.1709
29622SOL    HW2  592   8.579   8.909  11.458  1.1375  0.2335 -0.1838
29623SOL     OW  593  12.722   6.752   0.063 -0.5380  0.5239  0.7757
29623SOL    HW1  594  12.776   6.674   0.050 -1.6085 -0.2507  0.8369
29623SOL    HW2  595  12.784   6.825   0.057  0.2279 -0.2061 -0.9589
29624SOL     OW  596  12.757   3.673  10.014  0.2105  0.0180  0.2424
29624SOL    HW1  597  12.839   3.707  10.049  0.9172 -2.0691  0.7985
29624SOL    HW2  598  12.714   3.634  10.090 -0.6322 -0.1490 -0.3084
29625SOL     OW  599  10.405  11.839   8.284 -0.3357 -0.3290  0.2765
29625SOL    HW1  600  10.460  11.835   8.206  0.8660  0.1954  1.0803
29625SOL    HW2  601  10.382  11.748   8.303 -0.8788 -0.4442 -0.8308
29626SOL     OW  602  13.407   7.047   1.997 -0.2474 -0.4139  0.0788
29626SOL    HW1  603  13.330   7.002   2.031 -1.0792 -0.1206 -1.3217
29626SOL    HW2  604  13.419   7.122   2.054 -2.9753  1.3538 -1.4442
29627SOL     OW  605   0.058  12.929   0.795 -0.0952  0.3107  0.3966
29627SOL    HW1  606   0.129  12.865   0.787 -1.1749 -0.8330 -0.5185
29627SOL    HW2  607   0.074  12.973   0.878  1.1846 -0.5335  0.6256
29628SOL     OW  608   3.534   2.579   4.287 -0.5285  0.2935 -0.3752
29628SOL    HW1  609   3.624   2.590   4.318  0.2205  1.8219 -2.8491
29628SOL    HW2  610   3.542   2.535   4.203 -2.0109  1.2777 -1.0877
29629SOL     OW  611   9.383  13.066   2.493 -0.5474 -0.1727  0.2812
29629SOL    HW1  612   9.467  13.092   2.530 -0.9095  0.3274  0.7729
29629SOL    HW2  613   9.396  13.069   2.398  0.1888 -0.7960  0.3598
29630SOL     OW  614   1.595   3.729   8.252  0.5748 -0.5563 -0.1675
29630SOL    HW1  615   1.670   3.769   8.297 -1.0261  1.2348  1.0712
29630SOL    HW2  616   1.592   3.772   8.167  0.0401  0.6032  0.4088
29631SOL     OW  617   5.313   6.101  13.127  0.5303 -0.0721  0.0571
29631SOL    HW1  618   5.364   6.179  13.106  0.9755 -0.0473  1.1871
29631SOL    HW2  619   5.300   6.105  13.222 -0.3505 -0.8271 -0.0188
29632SOL     OW  620   5.574   1.952   9.077 -0.0874 -0.2260  0.2080
29632SOL    HW1  621   5.592   1.867   9.037 -1.4620  0.3976 -1.8658
29632SOL    HW2  622   5.585   1.936   9.171  0.6596 -2.4207 -0.1799
29633SOL     OW  623   0.911   2.439   9.011 -0.1200  0.0083  0.6991
29633SOL    HW1  624   0.945   2.502   9.075  0.8130  0.8551 -0.5892
29633SOL    HW2  625   0.816   2.450   9.015  0.0075  1.1076  0.8740
29634SOL     OW  626   3.605   8.376   5.176  0.2238  0.2067  0.0584
29634SOL    HW1  627   3.542   8.393   5.246  0.2321 -0.0205  0.1206
29634SOL    HW2  628   3.585   8.288   5.146  0.6879  0.0281  0.2599
29635SOL     OW  629   6.199   7.626   3.199 -0.2743 -0.4800 -0.2327
29635SOL    HW1  630   6.121   7.596   3.246 -0.8257  2.1755  0.7550
29635SOL    HW2  631   6.272   7.582   3.241 -1.0405 -0.7411  0.8530
29636SOL     OW  632   0.865   9.358   3.963  0.3654  0.2276  0.1969
29636SOL    HW1  633   0.918   9.414   4.019 -2.1730  0.2140  2.8347
29636SOL    HW2  634   0.808   9.417   3.915  0.6686  0.0752 -0.3718
29637SOL     OW  635   0.219   9.766  12.015  0.1262  0.4181 -0.0214
29637SOL    HW1  636   0.284   9.831  11.989  2.5078 -1.8517 -0.2149
29637SOL    HW2  637   0.239   9.746  12.106 -3.7724  3.3428  1.7367
29638SOL     OW  638   3.921   9.160   5.915  0.1232  0.5326  0.5013
29638SOL    HW1  639   3.848   9.199   5.867 -1.4438 -0.4880  1.9789
29638SOL    HW2  640   3.993   9.223   5.903 -0.7943  1.3034 -1.4273
29639SOL     OW  641   5.666  10.825   3.747  0.0562  0.2580  0.8301
29639SOL    HW1  642   5.715  10.752   3.784 -0.0577 -0.1603  0.1735
29639SOL    HW2  643   5.715  10.848   3.667 -0.8718 -0.2449  0.0994
29640SOL     OW  644  13.136   6.771  10.724  1.0593 -0.3068 -0.1386
29640SOL    HW1  645  13.081   6.753  10.800  2.6485 -1.1972  0.8709
29640SOL    HW2  646  13.102   6.714  10.655 -0.4228  0.5360 -0.1445
29641SOL     OW  647   3.975  11.960   5.063 -0.0142  0.2620 -0.3628
29641SOL    HW1  648   3.942  11.909   5.138 -0.0438  1.2977  0.3552
29641SOL    HW2  649   3.902  11.964   5.002 -0.0837 -0.3564 -0.3236
29642SOL     OW  650   7.962   4.910   0.259  0.2130 -0.3029  0.9195
29642SOL    HW1  651   7.868   4.892   0.262 -0.4440  2.2349 -0.8210
29642SOL    HW2  652   7.998   4.860   0.332 -2.0824 -3.2427  0.2355
29643SOL     OW  653  13.298   6.272   6.699  0.2629 -0.5037  0.3991
29643SOL    HW1  654  13.327   6.360   6.720  0.1098 -0.0379 -1.1814
29643SOL    HW2  655  13.378   6.220   6.694  0.2095 -1.1000  3.7682
29644SOL     OW  656   6.378   0.680   0.651 -0.1943  0.5628  0.1890
29644SOL    HW1  657   6.359   0.616   0.582  0.5452 -1.4634  1.7722
29644SOL    HW2  658   6.332   0.760   0.623 -1.0820 -0.6055 -1.9097
29645SOL     OW  659   3.479  11.118   2.989 -0.1808 -0.2619  0.4605
29645SOL    HW1  660   3.483  11.177   2.913  1.5576 -0.2956  0.5007
29645SOL    HW2  661   3.569  11.092   3.005 -0.8562 -2.7823  0.6042
29646SOL     OW  662   5.218  11.942   9.465 -0.0668  0.1802  0.5868
29646SOL    HW1  663   5.148  11.929   9.529 -1.4304 -0.9906 -1.0519
29646SOL    HW2  664   5.231  11.856   9.426  0.7661  0.8435 -0.6645
29647SOL     OW  665  11.827  12.006   2.152  0.2411  0.3774  0.2600
29647SOL    HW1  666  11.923  12.008   2.147  0.4575  0.4894  2.9742
29647SOL    HW2  667  11.806  11.917   2.179 -0.3101  0.7226  1.0033
29648SOL     OW  668   1.811  11.482   6.246 -0.6925  0.3072  0.0963
29648SOL    HW1  669   1.758  11.546   6.292 -1.5633 -0.7556  0.6228
29648SOL    HW2  670   1.853  11.431   6.316  2.0333  1.8323 -0.2556
29649SOL     OW  671   0.136   7.916   3.885  0.5068 -0.5820 -0.5721
29649SOL    HW1  672   0.119   7.940   3.794 -0.0117 -0.0411 -0.3383
29649SOL    HW2  673   0.049   7.905   3.924  0.7225 -0.6979 -0.1146
29650SOL     OW  674  13.147   3.081   4.416 -0.1311  0.4245  0.1821
29650SOL    HW1  675  13.198   3.050   4.491  2.0383  0.1524 -1.3251
29650SOL    HW2  676  13.097   3.004   4.388  0.8761 -0.1543 -0.0790
29651SOL     OW  677   9.743   0.300   1.114 -0.4334 -1.0946  0.3392
29651SOL    HW1  678   9.743   0.293   1.210  1.5839 -0.9402  0.4026
29651SOL    HW2  679   9.716   0.390   1.097  0.0445 -0.8533  0.8115
29652SOL     OW  680   7.282   0.914   7.939  0.3242 -0.2426 -0.3333
29652SOL    HW1  681   7.230   0.939   7.863 -2.7266  0.1617  1.7111
29652SOL    HW2  682   7.334   0.839   7.909 -1.1358 -0.4321 -2.6452
29653SOL     OW  683   4.812  11.381   6.702  0.5376  0.0502  0.6235
29653SOL    HW1  684   4.827  11.286   6.707  0.0807 -0.2038 -1.5143
29653SOL    HW2  685   4.885  11.420   6.749  1.4016 -1.3575  0.5001
29654SOL     OW  686  10.577   5.812   9.017 -0.2065 -0.5151  0.2707
29654SOL    HW1  687  10.484   5.833   9.008  0.5519  3.8900  0.3139
29654SOL    HW2  688  10.605   5.858   9.096  2.6685  1.8153 -1.8599
29655SOL     OW  689   6.939   0.783   3.033 -0.2938 -0.0472  1.1744
29655SOL    HW1  690   7.029   0.801   3.003 -0.4029 -1.1874  0.1054
29655SOL    HW2  691   6.899   0.870   3.039 -0.8263  0.3605 -3.8567
29656SOL     OW  692   4.204   8.746   4.295  0.1981  0.1526  0.5726
29656SOL    HW1  693   4.222   8.720   4.385 -0.4755 -1.0969  0.3631
29656SOL    HW2  694   4.117   8.711   4.276  0.5798 -0.1523 -0.7551
29657SOL     OW  695  12.179   9.722   5.414 -0.1848 -0.6424  0.0825
29657SOL    HW1  696  12.101   9.721   5.359 -0.8822  1.5595  0.9401
29657SOL    HW2  697  12.251   9.739   5.354 -0.6964 -0.1544 -0.4029
29658SOL     OW  698   4.269   3.512   0.628 -0.0311 -0.5694 -0.1483
29658SOL    HW1  699   4.348   3.498   0.681 -0.1178  1.0740  0.4857
29658SOL    HW2  700   4.300   3.562   0.553 -0.4328 -0.0668  0.0171
29659SOL     OW  701   5.551   4.073  10.115  0.1742  0.3174  0.0830
29659SOL    HW1  702   5.548   4.096  10.207 -3.7008  0.1912  0.1265
29659SOL    HW2  703   5.500   4.141  10.071  1.6151  0.1740 -1.9624
29660SOL     OW  704   3.304   8.173   9.221  0.0917 -0.0359  0.0365
29660SOL    HW1  705   3.339   8.107   9.162  0.6450  0.5756 -0.3321
29660SOL    HW2  706   3.376   8.193   9.281 -0.6909 -1.1991  1.4378
29661SOL     OW  707   7.460   0.280   7.550 -0.3565  0.2716  0.2318
29661SOL    HW1  708   7.395   0.293   7.619 -0.1461  0.6254  0.3674
29661SOL    HW2  709   7.529   0.343   7.570  0.6098 -0.9090  0.7759
29662SOL     OW  710  12.766   3.729   1.835  0.3563  0.0687  0.5900
29662SOL    HW1  711  12.769   3.662   1.904 -1.4330  0.6174  1.2535
29662SOL    HW2  712  12.734   3.807   1.880  0.1428  0.7199 -0.6719
29663SOL     OW  713  10.888   5.415   4.968  0.2913  0.4649  0.3932
29663SOL    HW1  714  10.840   5.333   4.976 -0.0577  0.5653 -0.5385
29663SOL    HW2  715  10.935   5.424   5.051  1.9695 -1.7207 -0.2384
29664SOL     OW  716   3.878   2.197  10.320  0.6732 -0.0372  0.2101
29664SOL    HW1  717   3.946   2.261  10.340  0.1703  0.2023  1.2664
29664SOL    HW2  718   3.845   2.222  10.234 -0.6576  2.2017  1.2710
29665SOL     OW  719   1.503   2.823  12.047 -0.2157  0.1635  0.2632
29665SOL    HW1  720   1.588   2.779  12.054 -0.2523  0.1523  0.6794
29665SOL    HW2  721   1.525   2.915  12.034 -0.1330  0.2386  0.8885
29666SOL     OW  722   9.627   9.331   6.010 -0.5189  0.0724 -0.8136
29666SOL    HW1  723   9.698   9.315   6.072  0.3475  2.2622 -1.1260
29666SOL    HW2  724   9.553   9.357   6.064 -0.1234  0.7995 -0.6012
29667SOL     OW  725   5.671   6.030   8.759  0.4928  0.3929  0.1721
29667SOL    HW1  726   5.661   5.935   8.753  0.0361  0.3537  1.3548
29667SOL    HW2  727   5.754   6.044   8.804 -0.0408  0.5168  1.1471
29668SOL     OW  728   6.949   8.454  10.038  0.1848 -0.1672  0.2557
29668SOL    HW1  729   6.951   8.497   9.953 -1.7217 -0.5289 -0.0342
29668SOL    HW2  730   7.010   8.503  10.092  1.2222  0.2475 -1.2272
29669SOL     OW  731  11.543   9.116   4.268 -0.0434 -0.1413  0.1893
29669SOL    HW1  732  11.618   9.105   4.209 -0.1499  3.1084 -0.7747
29669SOL    HW2  733  11.472   9.069   4.225  0.4488  0.2657 -1.1206
29670SOL     OW  734   4.979   4.604  13.525  0.3303 -0.0368  0.3281
29670SOL    HW1  735   5.066   4.637  13.549  0.5222 -0.9450  0.9267
29670SOL    HW2  736   4.941   4.574  13.607 -0.9359  1.1770  0.2103
29671SOL     OW  737   3.350   9.719  10.675 -0.2066 -0.1800 -0.4615
29671SOL    HW1  738   3.260   9.747  10.660 -0.2074  0.2212  0.2355
29671SOL    HW2  739   3.374   9.760  10.758  0.3695 -0.8829 -0.2708
29672SOL     OW  740  10.257  13.133   8.791 -0.2331  0.9758 -0.4341
29672SOL    HW1  741  10.252  13.056   8.849 -0.0545  2.0699  1.1009
29672SOL    HW2  742  10.251  13.096   8.703  2.4178 -1.0756  0.1062
29673SOL     OW  743   6.720   2.051  10.047 -0.2871 -0.0228  0.3339
29673SOL    HW1  744   6.774   2.063  10.125 -1.0227  0.0451  0.8410
29673SOL    HW2  745   6.763   2.103   9.979  0.9036 -0.8529  0.4243
29674SOL     OW  746   1.440   3.101   4.775 -0.1224  0.5716 -0.1560
29674SOL    HW1  747   1.353   3.069   4.799  0.4279  0.0973  1.2909
29674SOL    HW2  748   1.460   3.168   4.840  0.5522  0.7534 -0.5393
29675SOL     OW  749   0.779   6.753   3.772  0.8301 -0.2370 -0.2206
29675SOL    HW1  750   0.745   6.835   3.806 -0.4417 -0.6655 -0.4188
29675SOL    HW2  751   0.826   6.778   3.692  1.4259  0.4230  0.3242
29676SOL     OW  752   2.402  11.470  10.837  0.5721 -0.4199 -0.2768
29676SOL    HW1  753   2.434  11.548  10.882  0.9534 -1.1841  0.8531
29676SOL    HW2  754   2.334  11.501  10.777  0.7855  0.7738  0.0895
29677SOL     OW  755   5.872   3.203   4.426 -0.0871 -0.0431 -0.1753
29677SOL    HW1  756   5.947   3.170   4.376 -0.2639  0.3126 -0.6862
29677SOL    HW2  757   5.796   3.162   4.384 -0.1341 -1.1856  0.9605
29678SOL     OW  758   2.211   3.134   2.486 -0.2272  0.6159 -0.4658
29678SOL    HW1  759   2.257   3.129   2.402 -1.4384 -0.0386 -1.1222
29678SOL    HW2  760   2.178   3.223   2.490  0.9783  1.0669 -0.0271
29679SOL     OW  761   9.506  10.205   3.747 -0.0896  0.2399 -0.1981
29679SOL    HW1  762   9.530  10.290   3.711 -1.3293 -0.8470 -4.0769
29679SOL    HW2  763   9.539  10.207   3.837  1.0132  4.2850 -0.4827
29680SOL     OW  764   3.274   0.866  13.043 -0.0685  0.3439 -0.7397
29680SOL    HW1  765   3.263   0.796  13.107  0.1527  0.0627 -1.0076
29680SOL    HW2  766   3.210   0.932  13.069  0.7957  0.7383  0.4574
29681SOL     OW  767   2.539   5.947  13.631  0.0756 -0.0327  0.2588
29681SOL    HW1  768   2.464   5.952  13.690  0.1771 -0.3043  0.4090
29681SOL    HW2  769   2.505   5.979  13.547 -0.5902 -1.4701 -0.0356
29682SOL     OW  770   0.372   2.246  13.552  0.0792  0.3954  0.3618
29682SOL    HW1  771   0.386   2.282  13.465 -0.7842  3.5198  1.4083
29682SOL    HW2  772   0.456   2.254  13.595  1.1814 -3.2822 -0.7231
29683SOL     OW  773   9.872  11.324   9.192 -0.0462  0.3204 -0.5236
29683SOL    HW1  774   9.822  11.392   9.147  0.1024  0.8576  0.1046
29683SOL    HW2  775   9.821  11.304   9.270 -0.1250 -0.3471 -0.7424
29684SOL     OW  776  10.774   7.433   1.727  0.1330  0.5090  0.6651
29684SOL    HW1  777  10.715   7.372   1.772  1.3327  1.3278  3.6207
29684SOL    HW2  778  10.841   7.376   1.689 -1.0457 -0.2387 -0.3772
29685SOL     OW  779   3.984   9.579   8.248 -0.2537  0.2701  0.3529
29685SOL    HW1  780   3.936   9.662   8.245  0.6021  0.7885  0.8502
29685SOL    HW2  781   4.060   9.593   8.192 -1.6714 -1.2383 -2.1423
29686SOL     OW  782   0.034  11.887   8.874 -0.3175  0.2204  0.1636
29686SOL    HW1  783   0.066  11.860   8.960 -1.3741 -0.4544  0.3718
29686SOL    HW2  784   0.053  11.980   8.870 -0.7942  0.3944  1.3936
29687SOL     OW  785  12.608   3.412   8.250 -0.0107 -0.6257 -0.0756
29687SOL    HW1  786  12.571   3.447   8.169 -1.3526  1.1734  1.2465
29687SOL    HW2  787  12.532   3.401   8.308  1.0197 -1.1008  1.2184
29688SOL     OW  788   8.867   9.932   6.160  0.7147 -0.3297  0.0733
29688SOL    HW1  789   8.816   9.857   6.130  0.7377 -1.0080  1.6111
29688SOL    HW2  790   8.863   9.926   6.255  0.4279  1.8441  0.2420
29689SOL     OW  791   7.259   0.990   4.078 -0.4078 -0.2730 -0.2233
29689SOL    HW1  792   7.343   1.008   4.035 -1.2559  1.2985 -1.3025
29689SOL    HW2  793   7.282   0.934   4.152  1.7685  1.2487  0.3442
29690SOL     OW  794   4.622   8.926   3.955 -0.2105 -0.6995 -0.2582
29690SOL    HW1  795   4.654   8.841   3.984  1.1437 -0.3630 -0.6827
29690SOL    HW2  796   4.627   8.922   3.860  2.2565  0.6785 -0.2610
29691SOL     OW  797  13.242   7.452   7.604  0.4083 -0.0653  0.1858
29691SOL    HW1  798  13.166   7.511   7.603  0.6566  0.2592 -0.8802
29691SOL    HW2  799  13.222   7.386   7.538  2.0882  1.4066 -1.9049
29692SOL     OW  800   0.594   0.724  12.846 -0.0475  0.4602 -0.2732
29692SOL    HW1  801   0.671   0.781  12.852 -0.3498  1.0714 -1.8625
29692SOL    HW2  802   0.524   0.781  12.816 -1.2939  0.0169  1.5874
29693SOL     OW  803   6.635   8.514   8.903 -0.5879  0.1653 -0.0507
29693SOL    HW1  804   6.547   8.495   8.934  0.4243 -3.2152  1.2313
29693SOL    HW2  805   6.646   8.608   8.918 -2.5960  0.0068  3.5847
29694SOL     OW  806   8.187   0.623  10.853  0.3928  0.1719 -0.3973
29694SOL    HW1  807   8.222   0.694  10.906 -1.6122  0.3058  0.8507
29694SOL    HW2  808   8.225   0.544  10.892 -0.0189  0.3578  0.3993
29695SOL     OW  809   9.294   5.709   6.230 -0.7120  0.2338  0.1724
29695SOL    HW1  810   9.265   5.665   6.150 -1.0273 -1.2134  1.0334
29695SOL    HW2  811   9.387   5.727   6.215 -0.8239  0.2101 -0.6156
29696SOL     OW  812   4.580  13.257  12.031  0.2961  0.3880  0.9062
29696SOL    HW1  813   4.572  13.316  11.956  1.4867 -1.5188 -0.8347
29696SOL    HW2  814   4.491  13.247  12.064 -0.1446  1.8417  0.2136
29697SOL     OW  815  13.377   0.880   6.076  0.1353 -0.0990  0.2718
29697SOL    HW1  816  13.380   0.966   6.035 -0.4023 -0.6549 -0.9683
29697SOL    HW2  817  13.284   0.864   6.092  0.3276  0.0746  1.6726
29698SOL     OW  818   2.905   2.527  13.695  0.1962  0.0733 -0.3420
29698SOL    HW1  819   2.967   2.539  13.623 -0.0525  2.9405 -0.2034
29698SOL    HW2  820   2.821   2.557  13.660 -0.3181 -0.2522  0.5822
29699SOL     OW  821  10.020   8.695  13.181  0.6675  0.1785 -0.8268
29699SOL    HW1  822  10.105   8.697  13.224  0.9448  1.4310 -1.3605
29699SOL    HW2  823  10.039   8.665  13.092  0.7118  1.2996 -1.2139
29700SOL     OW  824   9.099   4.744   8.547 -0.1336  0.8408  0.1365
29700SOL    HW1  825   9.195   4.740   8.551 -0.1921  0.4102  1.2473
29700SOL    HW2  826   9.081   4.824   8.498  0.7944  0.7645 -0.3660
29701SOL     OW  827  10.152  12.031   0.181  0.3742 -0.5212 -0.4875
29701SOL    HW1  828  10.201  11.951   0.204  0.2453 -0.2895  0.6577
29701SOL    HW2  829  10.210  12.103   0.206 -0.2319 -0.2487  0.1679
29702SOL     OW  830   1.062   0.543   7.572 -0.8155  0.1420  0.9432
29702SOL    HW1  831   1.133   0.531   7.509 -0.9588  0.1306  0.7851
29702SOL    HW2  832   1.031   0.633   7.557 -1.4137 -0.1450  0.4170
29703SOL     OW  833   4.462  10.232  11.892  0.3297 -0.1975 -0.4282
29703SOL    HW1  834   4.374  10.226  11.854  1.3084 -0.8229 -2.7474
29703SOL    HW2  835   4.470  10.153  11.946 -0.0754 -0.8068 -1.2427
29704SOL     OW  836   8.459   8.688   7.767 -0.7062  0.5768  0.3495
29704SOL    HW1  837   8.384   8.657   7.818  0.5910 -0.0861  1.9579
29704SOL    HW2  838   8.496   8.759   7.819  1.4845 -1.0276  1.1387
29705SOL     OW  839  11.462  13.293  11.944 -0.1657  0.1208  0.0655
29705SOL    HW1  840  11.482  13.355  11.874 -0.6935  4.6804  3.4752
29705SOL    HW2  841  11.548  13.265  11.976  0.0952 -0.6012 -1.2091
29706SOL     OW  842   1.040   0.723  10.698  0.6037  0.0453 -0.8856
29706SOL    HW1  843   1.077   0.647  10.652 -0.9691 -0.3660 -1.5075
29706SOL    HW2  844   1.041   0.793  10.633 -0.7023 -0.2720 -1.2799
29707SOL     OW  845  12.975   9.176   9.838 -0.0569 -0.0616 -0.1972
29707SOL    HW1  846  13.070   9.177   9.842 -0.0928  0.5560  0.9643
29707SOL    HW2  847  12.953   9.242   9.772  0.3089  0.0819 -0.1763
29708SOL     OW  848   1.486   6.226  11.590 -0.4067  0.4655  0.3213
29708SOL    HW1  849   1.494   6.266  11.677  1.7026  2.2856 -0.5866
29708SOL    HW2  850   1.392   6.221  11.574 -0.8168  1.1396  2.2589
29709SOL     OW  851   4.882   0.961  11.596  0.1934  0.0344 -0.5290
29709SOL    HW1  852   4.860   1.042  11.641 -1.4522 -0.4394 -0.4180
29709SOL    HW2  853   4.887   0.895  11.666 -2.1080 -0.6506 -0.9020
29710SOL     OW  854   5.175   0.647   5.551 -0.3440  0.4314 -0.6444
29710SOL    HW1  855   5.168   0.617   5.642 -0.4125  0.1861 -0.7318
29710SOL    HW2  856   5.085   0.666   5.525 -0.3611  0.1546 -0.7814
29711SOL     OW  857   5.663  11.263   0.360 -0.6148  0.8889  0.0009
29711SOL    HW1  858   5.704  11.347   0.379  0.7084  0.1166  0.6720
29711SOL    HW2  859   5.579  11.286   0.319  0.5315  2.5210 -1.5713
29712SOL     OW  860   5.415   5.894   4.564  0.1200 -0.2856  0.0211
29712SOL    HW1  861   5.405   5.958   4.635 -1.9534 -0.2482 -0.2528
29712SOL    HW2  862   5.390   5.810   4.604  1.1026 -0.6548 -0.1004
29713SOL     OW  863  12.123   5.891   6.335  0.7879 -0.4491  0.1128
29713SOL    HW1  864  12.169   5.856   6.412 -0.0816 -1.1126  0.3408
29713SOL    HW2  865  12.122   5.819   6.272 -1.4331 -1.0609  0.7639
29714SOL     OW  866  11.820   5.892   1.658  0.5893  0.2244  0.0909
29714SOL    HW1  867  11.847   5.972   1.614  3.0063 -0.7990 -0.4276
29714SOL    HW2  868  11.881   5.882   1.731  0.7629 -1.4801 -0.2453
29715SOL     OW  869  10.680   7.245   5.531 -0.1853  0.2408  0.1542
29715SOL    HW1  870  10.735   7.191   5.588 -1.1870 -0.9350  0.0284
29715SOL    HW2  871  10.741   7.310   5.495  1.0012 -0.6328  0.5090
29716SOL     OW  872   4.638   6.162   9.563 -0.6153 -0.2105  0.1800
29716SOL    HW1  873   4.720   6.201   9.591 -0.4853  0.3729 -0.9452
29716SOL    HW2  874   4.634   6.078   9.609  0.8020 -0.4232 -0.0413
29717SOL     OW  875   1.685   4.035  12.842 -0.2268  0.2513  0.3554
29717SOL    HW1  876   1.629   3.971  12.799 -0.3607  0.5067  0.1486
29717SOL    HW2  877   1.749   4.060  12.776 -1.1156  1.4881 -0.0863
29718SOL     OW  878   6.858  11.081   7.209 -0.6116  0.1327 -0.4867
29718SOL    HW1  879   6.812  11.127   7.279 -0.0677  0.3992 -0.2989
29718SOL    HW2  880   6.844  10.988   7.227  0.5888  0.1599  0.7228
29719SOL     OW  881   4.052   8.562   8.062  0.1238 -0.0839  0.2437
29719SOL    HW1  882   4.008   8.631   8.112 -0.1554 -0.5370  0.6205
29719SOL    HW2  883   4.068   8.602   7.976 -0.4303  0.2994  0.3150
29720SOL     OW  884   3.335   7.352   2.215 -0.7067  0.1592  0.2626
29720SOL    HW1  885   3.377   7.310   2.290  2.0887  1.8985 -0.1716
29720SOL    HW2  886   3.265   7.405   2.254  2.0647  2.8088  2.1183
29721SOL     OW  887   5.195   2.895   8.540 -0.4041  0.6961  0.1600
29721SOL    HW1  888   5.135   2.949   8.591  0.6058  1.8354  0.2171
29721SOL    HW2  889   5.247   2.848   8.605  0.0850  1.2457  0.1837
29722SOL     OW  890   2.170   1.980   6.430  0.1430  0.9046  0.1287
29722SOL    HW1  891   2.221   1.898   6.429 -1.7442 -0.3213  0.1746
29722SOL    HW2  892   2.102   1.965   6.496 -0.3429  2.4766  0.0197
29723SOL     OW  893  12.056   8.447  11.424 -0.3266  0.1856 -0.1946
29723SOL    HW1  894  12.054   8.538  11.456  0.0861  0.4784 -0.9514
29723SOL    HW2  895  12.068   8.394  11.502 -1.4896  0.7125  0.3662
29724SOL     OW  896   2.014   9.472  11.669  0.3134 -0.0083 -0.3933
29724SOL    HW1  897   1.992   9.411  11.739  0.2091  1.0117  0.4977
29724SOL    HW2  898   2.016   9.419  11.589  0.2695 -1.1585  0.3595
29725SOL     OW  899   4.481  11.973   6.783 -0.1111 -0.4181 -0.4189
29725SOL    HW1  900   4.392  11.989   6.813  0.7807  0.8313  1.9019
29725SOL    HW2  901   4.533  11.971   6.864  2.2666  1.1284 -1.7814
29726SOL     OW  902  10.748   8.933   0.704  0.0304 -0.1517 -0.0936
29726SOL    HW1  903  10.667   8.977   0.677  1.2906  1.8721 -0.7193
29726SOL    HW2  904  10.753   8.948   0.798 -0.9233 -1.3772  0.1790
29727SOL     OW  905  10.897  10.783   2.584 -0.1265 -0.4368 -0.1578
29727SOL    HW1  906  10.818  10.737   2.559 -0.3053 -0.6892  0.8138
29727SOL    HW2  907  10.932  10.732   2.658 -0.5310  1.1508  1.1861
29728SOL     OW  908   4.043  11.043   3.125 -0.0952 -0.5011  0.1848
29728SOL    HW1  909   4.001  10.958   3.118  0.0430 -0.6102  0.6874
29728SOL    HW2  910   4.067  11.065   3.035 -1.2421 -0.4267 -0.1213
29729SOL     OW  911  11.289  13.588   6.670  0.2285 -0.2585  0.1043
29729SOL    HW1  912  11.330  13.552   6.749  1.1027 -0.1847 -0.3002
29729SOL    HW2  913  11.317  13.679   6.669  0.5725 -0.3652 -0.5063
29730SOL     OW  914   6.118  12.787   2.913 -0.1913 -0.0143 -0.5978
29730SOL    HW1  915   6.120  12.692   2.903 -1.7206 -0.0592 -0.5937
29730SOL    HW2  916   6.128  12.821   2.824  1.2715 -0.1316 -0.5080
29731SOL     OW  917   0.440  12.151   9.710 -0.3249 -0.1743 -0.0983
29731SOL    HW1  918   0.440  12.236   9.668 -1.2742 -0.1776 -0.1261
29731SOL    HW2  919   0.475  12.167   9.798  0.5330  0.0381 -0.4690
29732SOL     OW  920   6.747   4.871   1.142  0.2108  0.0021  0.3963
29732SOL    HW1  921   6.710   4.795   1.185 -0.3604  0.0352 -0.0203
29732SOL    HW2  922   6.766   4.842   1.053 -1.0877  0.6418 -0.1184
29733SOL     OW  923   4.763  11.471   5.615 -0.1783  0.7227  0.6292
29733SOL    HW1  924   4.742  11.452   5.706  0.8304 -0.6202  0.6115
29733SOL    HW2  925   4.685  11.446   5.566  1.0763 -4.1244  0.5664
29734SOL     OW  926   2.377   5.546   9.793  0.0979 -0.2356 -0.4124
29734SOL    HW1  927   2.438   5.579   9.859  0.1146  0.1569 -0.6206
29734SOL    HW2  928   2.365   5.620   9.733 -0.9340 -0.1425 -0.1221
29735SOL     OW  929   3.492   5.365   5.671  0.4336  0.6295 -0.6769
29735SOL    HW1  930   3.462   5.351   5.761 -2.1559  1.1994 -1.3564
29735SOL    HW2  931   3.511   5.277   5.639 -1.5971  0.0526 -0.4548
29736SOL     OW  932   0.299  13.059  10.676  0.1198 -0.5408 -0.3842
29736SOL    HW1  933   0.252  13.094  10.751  1.7822 -2.2943  1.5932
29736SOL    HW2  934   0.355  13.131  10.647 -1.8471  0.7494 -1.2082
29737SOL     OW  935   9.052   1.283   9.807 -0.0751 -0.3108  0.0044
29737SOL    HW1  936   9.046   1.188   9.799  1.0011 -0.3927 -0.0571
29737SOL    HW2  937   9.140   1.298   9.843 -0.3067  0.6504  0.1995
29738SOL     OW  938  12.409   3.893   2.422  0.3063 -0.9352  0.4494
29738SOL    HW1  939  12.446   3.934   2.501 -1.2917  2.0399 -0.1949
29738SOL    HW2  940  12.322   3.864   2.449 -1.4421  2.6689 -0.6919
29739SOL     OW  941   5.831   1.837   4.226 -0.4077  0.0769  0.0055
29739SOL    HW1  942   5.776   1.759   4.217 -0.5773  0.3437 -1.3944
29739SOL    HW2  943   5.905   1.821   4.169 -0.3752  0.8892 -0.1931
29740SOL     OW  944   4.112   2.047  12.920 -0.5232  0.0879  0.0242
29740SOL    HW1  945   4.119   2.102  12.998  2.4784 -1.0581  0.6727
29740SOL    HW2  946   4.161   2.095  12.853 -2.4197  0.6822 -1.0423
29741SOL     OW  947   7.866   1.251  12.689 -0.7832  0.3386  0.3408
29741SOL    HW1  948   7.784   1.272  12.645 -0.2708  0.6479 -0.5098
29741SOL    HW2  949   7.888   1.163  12.658 -1.6647 -0.4849  1.9473
29742SOL     OW  950   2.922   0.465   1.931 -0.4208 -0.6791  0.4401
29742SOL    HW1  951   2.877   0.446   1.848  0.1095  1.2800 -0.3640
29742SOL    HW2  952   2.898   0.556   1.951  0.0055 -0.8989  2.0988
29743SOL     OW  953   2.905   5.027   9.919  0.1926  0.3220 -0.1745
29743SOL    HW1  954   2.997   5.001   9.913 -0.4161 -2.4145  0.6762
29743SOL    HW2  955   2.896   5.066  10.005  0.7713  1.8171 -0.7604
29744SOL     OW  956   3.729   9.264   4.239 -0.2205  0.5269  0.2342
29744SOL    HW1  957   3.656   9.212   4.272  0.2314 -0.0891  0.2880
29744SOL    HW2  958   3.758   9.218   4.161  0.7594  0.1698  0.7826
29745SOL     OW  959   4.147  12.399  12.511 -0.0207  0.1932 -0.3900
29745SOL    HW1  960   4.162  12.350  12.430 -0.6353 -1.4023  0.4095
29745SOL    HW2  961   4.114  12.333  12.573  1.2652  1.1613  1.4247
29746SOL     OW  962   0.296  13.490   7.686 -0.4084 -0.2079 -0.3479
29746SOL    HW1  963   0.365  13.515   7.625  0.4159 -0.4246  0.4782
29746SOL    HW2  964   0.261  13.408   7.650  1.7267 -1.6828  0.7164
29747SOL     OW  965  11.194   1.321  12.223  1.3897  0.6264  0.3369
29747SOL    HW1  966  11.157   1.397  12.267  1.0375 -0.3482  1.7734
29747SOL    HW2  967  11.279   1.352  12.190  1.4378  1.5262  1.2489
29748SOL     OW  968   6.232   0.633   4.811 -0.3924 -0.7004  0.0773
29748SOL    HW1  969   6.199   0.680   4.735 -1.8925  1.6016  2.0101
29748SOL    HW2  970   6.190   0.547   4.807 -1.1081 -0.3026 -1.2271
29749SOL     OW  971   7.220   9.523   5.132  0.3396 -0.1554  0.0943
29749SOL    HW1  972   7.217   9.555   5.222  0.0749  1.5207 -0.4848
29749SOL    HW2  973   7.198   9.430   5.139 -2.2021  0.4710  1.5033
29750SOL     OW  974   3.835  11.664   0.706  0.3219  0.3505  0.2890
29750SOL    HW1  975   3.798  11.697   0.624  1.1789 -0.1213 -0.3046
29750SOL    HW2  976   3.917  11.623   0.680  1.0925  1.0617  1.5330
29751SOL     OW  977   7.888  12.239   1.456  0.0054  0.4304  0.0860
29751SOL    HW1  978   7.813  12.286   1.419  0.2014 -0.4781 -1.5611
29751SOL    HW2  979   7.905  12.282   1.539 -1.2430  1.7852 -0.3277
29752SOL     OW  980  11.014  11.920  12.058  0.3778  0.2646  0.4548
29752SOL    HW1  981  11.001  12.015  12.050  0.6092  0.2922  0.3932
29752SOL    HW2  982  11.099  11.911  12.101  0.5232  0.0819  0.1317
29753SOL     OW  983  13.596   8.074   2.441 -0.3720  0.1899  0.1169
29753SOL    HW1  984  13.543   8.044   2.515  0.5969 -0.4293  0.5863
29753SOL    HW2  985  13.535   8.077   2.367 -1.0262 -0.6522  0.5996
29754SOL     OW  986  10.971  11.406   3.049  0.7413  0.2908  0.2128
29754SOL    HW1  987  10.997  11.354   3.125  0.1425  0.3890  0.4900
29754SOL    HW2  988  10.895  11.456   3.079  0.1047 -0.1397 -0.6350
29755SOL     OW  989   3.800   6.790   2.344  0.4323  0.0773  0.3000
29755SOL    HW1  990   3.718   6.767   2.387  0.1287 -1.6845 -1.1303
29755SOL    HW2  991   3.867   6.780   2.412 -0.2594 -0.7415  0.8717
29756SOL     OW  992  12.617   6.860  12.390  0.2162  0.1531  0.4597
29756SOL    HW1  993  12.710   6.837  12.389  0.2724  0.3910  0.1058
29756SOL    HW2  994  12.603   6.897  12.477 -0.4245 -3.3817  2.0477
29757SOL     OW  995   7.312   7.601   0.732  0.2628 -0.3324  0.0563
29757SOL    HW1  996   7.263   7.520   0.741 -1.4612  0.6003 -0.4876
29757SOL    HW2  997   7.402   7.578   0.756 -0.1633 -2.4014 -0.1863
29758SOL     OW  998  13.578  11.513   8.876  0.1788  0.4429 -0.2729
29758SOL    HW1  999  13.499  11.461   8.888 -0.1953  0.8344 -0.9519
29758SOL    HW2 1000  13.547  11.597   8.842  0.6810  1.4666  1.6538
29759SOL     OW 1001  11.285   9.728   6.159 -0.1808  0.0678  0.0657
29759SOL    HW1 1002  11.248   9.747   6.073  1.7537  1.6998 -0.4982
29759SOL    HW2 1003  11.338   9.649   6.146  0.0269  0.2552 -0.2346
29760SOL     OW 1004   5.735  10.127  12.802  0.4736  0.1423 -0.3711
29760SOL    HW1 1005   5.829  10.125  12.789  0.7028 -1.7943  1.0865
29760SOL    HW2 1006   5.718  10.212  12.843  1.8605 -0.1909  0.9871
29761SOL     OW 1007   5.863   2.693   5.028  0.2200 -0.3571 -0.4528
29761SOL    HW1 1008   5.901   2.652   5.106  1.0600 -0.2083 -0.7671
29761SOL    HW2 1009   5.917   2.772   5.014 -0.7412  0.3203 -0.4301
29762SOL     OW 1010  13.512  10.088   7.373 -0.1370  0.7029  0.4957
29762SOL    HW1 1011  13.556  10.173   7.379 -2.9199  2.1766  1.4596
29762SOL    HW2 1012  13.549  10.037   7.445  0.2685  1.7545  1.0516
29763SOL     OW 1013  11.184   5.936  12.918 -0.1810  0.0028 -0.1459
29763SOL    HW1 1014  11.201   5.970  12.831 -0.5725  1.4429  0.3059
29763SOL    HW2 1015  11.167   6.014  12.971 -1.7355 -0.9302  0.8157
29764SOL     OW 1016   1.086   1.540  13.511 -0.1694  0.3197  0.1759
29764SOL    HW1 1017   1.075   1.471  13.446 -0.7913  2.8614 -2.6348
29764SOL    HW2 1018   0.999   1.550  13.550 -0.8135  1.2660 -1.3989
29765SOL     OW 1019   6.062   3.631  12.367  0.3446  0.2963  0.5782
29765SOL    HW1 1020   6.092   3.545  12.396  2.8159  1.5166  1.9939
29765SOL    HW2 1021   5.999   3.658  12.434 -1.8109 -1.0237 -0.7883
29766SOL     OW 1022  11.142   1.401   0.005 -0.0588 -0.5676 -0.2732
29766SOL    HW1 1023  11.101   1.315   0.014  3.1104 -2.2983 -1.0588
29766SOL    HW2 1024  11.095   1.441  -0.068 -0.9306 -2.0323 -0.5736
29767SOL     OW 1025   9.252  11.893  12.296 -0.5115 -0.0191  0.4337
29767SOL    HW1 1026   9.344  11.888  12.269 -1.0983  0.2269 -1.8218
29767SOL    HW2 1027   9.217  11.806  12.279 -0.9070  0.1345  0.4501
29768SOL     OW 1028   7.898  12.934   5.896 -0.2159  0.7244 -0.2340
29768SOL    HW1 1029   7.810  12.951   5.865 -0.2165  0.6836 -0.2537
29768SOL    HW2 1030   7.936  13.021   5.908 -0.2550  0.7419 -0.2359
29769SOL     OW 1031  11.837   9.796   1.354 -0.2787  0.7971  0.2749
29769SOL    HW1 1032  11.786   9.820   1.431 -0.3033  1.2463  0.1196
29769SOL    HW2 1033  11.782   9.819   1.280 -0.2363  0.4070  0.1180
29770SOL     OW 1034   4.753  11.323  12.409  0.3233  0.1928 -0.1116
29770SOL    HW1 1035   4.726  11.235  12.384  1.9307 -0.1465 -0.7852
29770SOL    HW2 1036   4.742  11.375  12.329 -0.6365  0.6391  0.2865
29771SOL     OW 1037   3.833   8.541   1.899  0.5949 -0.1723  0.1162
29771SOL    HW1 1038   3.804   8.464   1.949  1.7020 -1.0541 -0.5531
29771SOL    HW2 1039   3.760   8.561   1.842  0.2505 -0.6638  0.3754
29772SOL     OW 1040   4.224   7.899  13.614 -0.6141 -0.0261 -0.2896
29772SOL    HW1 1041   4.223   7.991  13.641 -2.2730 -0.1609  0.2401
29772SOL    HW2 1042   4.289   7.858  13.670 -0.9838  0.5300  0.5678
29773SOL     OW 1043   3.685   0.674   8.636 -0.4052  0.3902 -0.6111
29773SOL    HW1 1044   3.692   0.672   8.540  0.4750  0.2089 -0.5487
29773SOL    HW2 1045   3.640   0.757   8.655  0.6915  1.1230 -1.1170
29774SOL     OW 1046   2.293  12.071  11.286  0.6254  0.5652  0.2615
29774SOL    HW1 1047   2.216  12.114  11.323 -0.4209 -0.4946 -0.6153
29774SOL    HW2 1048   2.295  12.099  11.194 -0.0141 -1.1094 -0.2954
29775SOL     OW 1049   3.060   7.757  13.146 -0.0956 -0.2954 -0.1821
29775SOL    HW1 1050   2.984   7.816  13.139  1.2647  1.5567 -0.1026
29775SOL    HW2 1051   3.086   7.741  13.056  0.4979  0.5735 -0.1767
29776SOL     OW 1052   1.994  12.013   7.043 -0.1461 -0.0029  0.7177
29776SOL    HW1 1053   1.919  12.050   6.996  0.7970  0.9514 -0.0894
29776SOL    HW2 1054   2.068  12.068   7.017  1.0553 -1.6028  0.5875
29777SOL     OW 1055   3.061   5.502  12.794 -0.1680 -0.0258 -0.1977
29777SOL    HW1 1056   3.057   5.590  12.756  1.0052  0.2072  0.1903
29777SOL    HW2 1057   3.081   5.445  12.720  1.3578  0.3311 -0.0935
29778SOL     OW 1058   2.202   7.302  10.152 -0.1452  0.6491 -0.0751
29778SOL    HW1 1059   2.137   7.281  10.085  0.1146  1.5792 -0.6391
29778SOL    HW2 1060   2.263   7.228  10.150 -0.8031  0.0897 -0.0075
29779SOL     OW 1061   2.974   7.681   5.492 -0.4328 -0.2127 -0.3004
29779SOL    HW1 1062   3.058   7.665   5.451 -0.0182 -0.5575  0.6592
29779SOL    HW2 1063   2.995   7.702   5.583 -1.4668 -1.9177  0.3728
29780SOL     OW 1064   6.753   3.770   5.525  0.4137  0.4630  0.0028
29780SOL    HW1 1065   6.758   3.675   5.536  0.3512  0.6269  1.7854
29780SOL    HW2 1066   6.771   3.784   5.433  1.0890 -1.2410 -0.1698
29781SOL     OW 1067  10.332   0.358   6.890 -0.0059  0.1415 -0.1229
29781SOL    HW1 1068  10.407   0.364   6.950 -0.6637  0.0607  0.7301
29781SOL    HW2 1069  10.270   0.422   6.924 -1.8824 -2.3749  1.4632
29782SOL     OW 1070   1.589   8.362   9.379 -0.1596 -0.3199 -0.1859
29782SOL    HW1 1071   1.511   8.391   9.426  0.3779  1.4730 -0.3045
29782SOL    HW2 1072   1.595   8.422   9.304 -0.0031 -1.9737 -1.5581
29783SOL     OW 1073   1.783   4.539  10.408  0.5829 -0.2268 -0.0676
29783SOL    HW1 1074   1.805   4.570  10.321  0.6239  0.4471  0.1824
29783SOL    HW2 1075   1.751   4.616  10.454  1.2397 -0.4257  0.7418
29784SOL     OW 1076   6.768  13.278   3.489 -0.0640  0.5778 -0.3291
29784SOL    HW1 1077   6.833  13.233   3.435 -1.1038  1.0153 -2.0376
29784SOL    HW2 1078   6.725  13.208   3.538  1.3061  0.2371  0.4410
29785SOL     OW 1079   6.528   1.657   2.810  0.5727  0.0054 -0.6118
29785SOL    HW1 1080   6.492   1.627   2.727  1.0717  1.5190 -1.4237
29785SOL    HW2 1081   6.570   1.580   2.848  0.4856 -0.6794 -1.8526
29786SOL     OW 1082   1.419  11.366   3.016 -0.0850 -0.0901  0.1676
29786SOL    HW1 1083   1.388  11.391   3.104  0.7130 -1.1552  0.7627
29786SOL    HW2 1084   1.340  11.370   2.962 -1.2581 -2.2429  1.5497
29787SOL     OW 1085   1.396   2.365   9.103 -0.1845  0.8449 -0.0054
29787SOL    HW1 1086   1.391   2.363   9.198 -0.1507 -2.4298  0.0264
29787SOL    HW2 1087   1.311   2.402   9.076 -1.5191 -1.0413  1.3166
29788SOL     OW 1088  10.238   3.077  13.449 -0.7529  0.3821  0.3272
29788SOL    HW1 1089  10.250   3.072  13.354  0.8664  1.3097  0.4422
29788SOL    HW2 1090  10.234   3.171  13.468  0.1226  0.2443  1.2878
29789SOL     OW 1091  11.942   6.849   5.668  0.2607  0.5189 -0.2931
29789SOL    HW1 1092  11.921   6.760   5.638 -0.0234  0.9507 -1.4189
29789SOL    HW2 1093  11.982   6.836   5.754  0.3813 -0.7116 -0.5129
29790SOL     OW 1094   8.944  10.192   4.124  0.2101  0.8192 -0.2012
29790SOL    HW1 1095   8.979  10.114   4.167  0.8199  1.0490 -0.2683
29790SOL    HW2 1096   8.874  10.159   4.068  1.1530  0.1652 -1.0380
29791SOL     OW 1097  10.504   1.335   3.859  0.0383  0.0280  0.3893
29791SOL    HW1 1098  10.522   1.355   3.951 -1.5657  0.5196  0.6193
29791SOL    HW2 1099  10.581   1.369   3.812  1.2726 -0.9835  1.5997
29792SOL     OW 1100   2.973   1.768   2.630  0.0451  0.1627 -0.1322
29792SOL    HW1 1101   2.960   1.786   2.536  1.0108  1.5166 -0.0476
29792SOL    HW2 1102   2.889   1.732   2.659 -0.4446  0.1938 -1.4178
29793SOL     OW 1103   6.042   9.616   0.236 -0.6654  0.1489 -0.7164
29793SOL    HW1 1104   6.130   9.639   0.206 -0.3650 -0.7127 -0.5266
29793SOL    HW2 1105   6.024   9.532   0.195 -1.8202  0.7723 -1.5502
29794SOL     OW 1106   4.213   8.803  10.387  0.1055  0.6536 -0.4419
29794SOL    HW1 1107   4.228   8.785  10.294  0.4357 -1.6253  0.0005
29794SOL    HW2 1108   4.194   8.718  10.425 -1.2603  1.7188  1.3899
29795SOL     OW 1109   8.906   6.223   2.431  0.6064  0.0274 -1.0161
29795SOL    HW1 1110   8.810   6.232   2.434  0.4751 -1.0730  1.6376
29795SOL    HW2 1111   8.934   6.242   2.521  2.5964 -1.9517 -1.1156
29796SOL     OW 1112   9.121  12.701  10.855  0.2523 -0.7685  0.5074
29796SOL    HW1 1113   9.191  12.736  10.801  2.3800 -3.4162  1.3391
29796SOL    HW2 1114   9.162  12.679  10.939 -2.3929  0.8835  2.4265
29797SOL     OW 1115   5.715  13.409   0.177  0.6091  0.1003 -0.1687
29797SOL    HW1 1116   5.782  13.399   0.109 -1.4151  1.1216 -2.4406
29797SOL    HW2 1117   5.747  13.480   0.232  3.2970 -2.0909  1.3747
29798SOL     OW 1118   6.622   9.705  13.272  0.2342 -0.2994  0.1990
29798SOL    HW1 1119   6.694   9.663  13.320  1.2586  1.2249  0.0815
29798SOL    HW2 1120   6.570   9.748  13.340 -0.3633 -1.0724  0.2462
29799SOL     OW 1121   5.602   8.891   8.057 -0.0778  0.0772  0.4120
29799SOL    HW1 1122   5.538   8.913   7.990  1.0023 -2.1717 -1.5127
29799SOL    HW2 1123   5.556   8.905   8.140 -1.3137  3.3765 -0.6839
29800SOL     OW 1124   4.709  12.593   5.401 -0.2550 -0.1474 -0.3255
29800SOL    HW1 1125   4.653  12.577   5.325 -0.0167  0.6251 -0.6759
29800SOL    HW2 1126   4.795  12.558   5.375 -0.5660 -1.3525  0.2206
29801SOL     OW 1127  12.534   5.722   1.862  0.0708 -0.4595  0.3467
29801SOL    HW1 1128  12.463   5.660   1.883  1.0351 -0.5766  3.6732
29801SOL    HW2 1129  12.500   5.807   1.889  0.6425 -0.2759  0.4819
29802SOL     OW 1130   1.072  10.968   7.629 -0.0357 -0.1290 -0.3900
29802SOL    HW1 1131   1.164  10.977   7.656  0.0649 -1.9553  0.0549
29802SOL    HW2 1132   1.066  10.879   7.595 -1.8020 -0.2918  0.2452
29803SOL     OW 1133  13.493   0.066   3.073 -0.0090 -0.0235  0.0363
29803SOL    HW1 1134  13.472  -0.018   3.115  1.4203 -0.8632 -0.8295
29803SOL    HW2 1135  13.426   0.076   3.006  0.1467 -0.7988 -0.2506
29804SOL     OW 1136   8.535   0.068  12.902  0.4762 -0.3810 -0.0337
29804SOL    HW1 1137   8.488   0.141  12.860 -0.9217 -0.4960  1.2207
29804SOL    HW2 1138   8.625   0.099  12.910  0.4701  0.2088 -1.7527
29805SOL     OW 1139   3.164   0.579   3.282 -0.4228  0.3460 -0.1940
29805SOL    HW1 1140   3.150   0.485   3.291  0.2000  0.4393  2.4271
29805SOL    HW2 1141   3.208   0.589   3.198  1.4871 -1.9766  0.4403
29806SOL     OW 1142   4.779   1.512   9.475 -0.3197 -0.3848  0.1257
29806SOL    HW1 1143   4.848   1.451   9.446 -0.1949  0.1142 -0.6325
29806SOL    HW2 1144   4.781   1.583   9.412 -0.9502  0.0688  0.6043
29807SOL     OW 1145   6.869   1.682   0.767 -0.2498  0.1625 -0.5108
29807SOL    HW1 1146   6.913   1.597   0.775 -0.3280 -0.1294 -2.7847
29807SOL    HW2 1147   6.815   1.688   0.847  1.3747 -0.9188  0.7384
29808SOL     OW 1148   2.633   4.442   8.262  0.1006 -0.1346 -0.2476
29808SOL    HW1 1149   2.592   4.452   8.347  1.0823 -3.3576  0.7490
29808SOL    HW2 1150   2.604   4.356   8.231  1.4019  0.0543 -2.1848
29809SOL     OW 1151  11.126   5.442   8.658 -0.1484  0.2200  0.6478
29809SOL    HW1 1152  11.096   5.532   8.668 -1.9668 -0.3357  0.5521
29809SOL    HW2 1153  11.056   5.389   8.696 -0.0821 -1.2434 -1.1416
29810SOL     OW 1154   5.556   3.542   0.839 -0.5266 -0.8659 -0.0527
29810SOL    HW1 1155   5.541   3.505   0.926 -0.5361  1.3626  0.9610
29810SOL    HW2 1156   5.628   3.604   0.851  1.7129 -2.7777 -2.3568
29811SOL     OW 1157  11.344   4.540   0.785 -0.2989 -0.1089 -0.3201
29811SOL    HW1 1158  11.416   4.577   0.734 -0.9073 -2.1133 -2.8807
29811SOL    HW2 1159  11.385   4.506   0.864  1.3696 -0.0610 -1.1307
29812SOL     OW 1160   1.183   5.125   7.365 -0.7545 -0.2751 -0.3370
29812SOL    HW1 1161   1.220   5.055   7.311 -0.6093 -0.9888  0.6777
29812SOL    HW2 1162   1.193   5.204   7.311  0.5586 -0.7561 -0.8399
29813SOL     OW 1163   7.634   8.183   5.593  0.4197 -0.2895  0.2464
29813SOL    HW1 1164   7.725   8.176   5.565  0.0146  1.2754 -1.6281
29813SOL    HW2 1165   7.604   8.093   5.600  1.7219 -0.8025 -0.4607
29814SOL     OW 1166  13.283   9.200   2.142 -0.6949  0.3776  0.7087
29814SOL    HW1 1167  13.312   9.174   2.055 -0.3219  1.7976  0.3859
29814SOL    HW2 1168  13.310   9.292   2.150  1.0069 -0.2347  3.0650
29815SOL     OW 1169   8.886   0.136  11.332 -0.4942 -0.2833 -0.0320
29815SOL    HW1 1170   8.943   0.146  11.408  0.9807 -2.0744 -0.8076
29815SOL    HW2 1171   8.934   0.076  11.274 -2.0867  0.0920 -1.8543
29816SOL     OW 1172  11.770   4.793  13.678  0.0768 -0.1553  0.3329
29816SOL    HW1 1173  11.724   4.709  13.670  0.5491 -0.2727 -1.6596
29816SOL    HW2 1174  11.747   4.824  13.766 -1.6069 -1.4792  0.4304
29817SOL     OW 1175   4.879   1.154   1.275  0.1401  0.4145 -0.1680
29817SOL    HW1 1176   4.898   1.209   1.351  0.0200 -0.2306  0.3304
29817SOL    HW2 1177   4.940   1.081   1.281 -0.8789 -0.4437  0.1670
29818SOL     OW 1178   2.877  11.590   3.329 -0.1676 -0.5663  0.1806
29818SOL    HW1 1179   2.804  11.549   3.376  1.1685 -2.0617  1.0794
29818SOL    HW2 1180   2.955  11.567   3.381  1.1408 -0.5515 -1.6637
29819SOL     OW 1181   0.027   6.321   9.515  0.0247  0.5148  0.2279
29819SOL    HW1 1182   0.080   6.300   9.438 -0.1294  1.9704 -0.3053
29819SOL    HW2 1183  -0.061   6.294   9.491  0.1501  0.0198  0.3043
29820SOL     OW 1184   2.160   7.122   1.572 -0.5002 -0.0216  0.1044
29820SOL    HW1 1185   2.170   7.056   1.503  0.9407  0.8932 -0.5980
29820SOL    HW2 1186   2.097   7.185   1.536 -2.8865 -1.5891  1.2838
29821SOL     OW 1187  10.016  11.635   1.762  0.5142 -0.2282 -0.2161
29821SOL    HW1 1188  10.062  11.697   1.706  1.0175 -0.8596 -0.5158
29821SOL    HW2 1189   9.972  11.575   1.701 -1.0021  0.5570  0.0580
29822SOL     OW 1190   3.405  11.961   3.256  0.2515 -0.8764 -0.1858
29822SOL    HW1 1191   3.447  12.037   3.297  2.8471 -1.8437 -0.8082
29822SOL    HW2 1192   3.381  11.991   3.169  0.9939 -0.6598 -0.3244
29823SOL     OW 1193   3.983  13.583   1.641  0.7511 -0.0237 -0.1587
29823SOL    HW1 1194   3.925  13.521   1.685  0.3189  0.2510 -0.3351
29823SOL    HW2 1195   3.991  13.549   1.552  2.4921 -1.1788  0.3920
29824SOL     OW 1196   2.518   2.359   7.659  0.1752 -0.1701 -0.5077
29824SOL    HW1 1197   2.571   2.344   7.580 -0.3029  0.6048 -0.9810
29824SOL    HW2 1198   2.524   2.277   7.707  1.1248 -0.3833 -0.9663
29825SOL     OW 1199   2.904   1.781  12.135  0.0250 -0.1237  0.6567
29825SOL    HW1 1200   2.987   1.744  12.105 -0.2222 -0.3846  0.2850
29825SOL    HW2 1201   2.839   1.714  12.115 -0.1598 -0.2823  1.7385
29826SOL     OW 1202  12.485  11.264   9.430  0.4513 -0.1561  0.3253
29826SOL    HW1 1203  12.481  11.322   9.506  2.2968  1.3156 -0.6226
29826SOL    HW2 1204  12.393  11.246   9.409 -0.1209  0.7384  1.8919
29827SOL     OW 1205  11.922   8.676   9.808 -0.1203 -0.4746  0.0750
29827SOL    HW1 1206  11.940   8.623   9.730  0.5294 -1.7202  1.0261
29827SOL    HW2 1207  11.951   8.764   9.784  0.3162 -0.8902 -1.0056
29828SOL     OW 1208  13.100   9.513   2.772  0.3305 -0.7574  0.1607
29828SOL    HW1 1209  13.011   9.528   2.741  0.9523  0.4979 -1.1260
29828SOL    HW2 1210  13.118   9.588   2.829  0.7256 -0.7791  0.0631
29829SOL     OW 1211   8.339  11.037   4.572  0.5284  0.3352  0.2839
29829SOL    HW1 1212   8.299  11.093   4.638 -0.0892 -0.5568  0.6877
29829SOL    HW2 1213   8.409  10.991   4.620  0.5193  0.1806  0.1484
29830SOL     OW 1214   5.510   7.006  12.451 -0.2443  0.1502 -0.3962
29830SOL    HW1 1215   5.524   7.100  12.450  0.6974  0.0273 -2.1568
29830SOL    HW2 1216   5.478   6.987  12.539 -0.7159  2.1378 -0.1048
29831SOL     OW 1217   5.963  11.536   5.128  0.1639  0.5381 -0.0537
29831SOL    HW1 1218   5.958  11.631   5.115  0.4798  0.6921  0.8436
29831SOL    HW2 1219   5.978  11.526   5.222 -0.1904 -0.4162 -0.0869
29832SOL     OW 1220   0.670  11.285  13.506 -0.5406 -0.2777 -0.1830
29832SOL    HW1 1221   0.677  11.194  13.479 -1.1829  0.2007 -2.1462
29832SOL    HW2 1222   0.632  11.330  13.430  0.7597  1.8163  0.3115
29833SOL     OW 1223   3.992   7.383  13.184 -0.0010  0.1596  0.8368
29833SOL    HW1 1224   3.971   7.311  13.125  0.3369 -0.5421  1.5672
29833SOL    HW2 1225   4.029   7.342  13.262  1.8434  1.2088  0.5748
29834SOL     OW 1226   1.587   6.350  12.850 -0.0720 -0.3627 -0.0478
29834SOL    HW1 1227   1.666   6.373  12.802 -0.0189  2.9274  1.3593
29834SOL    HW2 1228   1.618   6.304  12.928  0.3256 -0.5796 -0.3337
29835SOL     OW 1229  10.353  12.896  10.060  0.5066  0.3219  0.5276
29835SOL    HW1 1230  10.345  12.900   9.965  0.7352 -0.7608  0.4439
29835SOL    HW2 1231  10.266  12.918  10.093  0.5080  0.9942  0.0815
29836SOL     OW 1232   4.249   1.243  13.583  0.2796 -0.2766 -0.2599
29836SOL    HW1 1233   4.274   1.332  13.606 -1.0176  0.1801 -0.5312
29836SOL    HW2 1234   4.154   1.240  13.596  0.4850 -2.1221  1.3707
29837SOL     OW 1235  10.248   5.603   2.644  0.2554 -0.2125 -0.2364
29837SOL    HW1 1236  10.174   5.633   2.697 -0.0414  2.5532 -2.0075
29837SOL    HW2 1237  10.214   5.531   2.592 -0.3377 -0.8683  1.0251
29838SOL     OW 1238  12.472   1.816   2.344 -0.2322 -0.3719  0.0007
29838SOL    HW1 1239  12.464   1.762   2.266 -0.8593  1.8481 -1.5943
29838SOL    HW2 1240  12.566   1.823   2.358  0.0878  1.2881 -2.2536
29839SOL     OW 1241   6.387  13.421   7.562  0.2744 -0.1549 -0.1563
29839SOL    HW1 1242   6.314  13.483   7.557 -0.2198 -0.7517 -0.5168
29839SOL    HW2 1243   6.431  13.442   7.645 -0.9661 -0.4964  0.6212
29840SOL     OW 1244  11.302   2.782   0.169 -0.3737  0.1015 -0.2364
29840SOL    HW1 1245  11.334   2.856   0.220  1.1168 -0.5544 -0.1552
29840SOL    HW2 1246  11.330   2.801   0.079 -2.0183  0.7195 -0.6594
29841SOL     OW 1247   7.995   4.834   8.260  0.0068 -0.5763 -0.0591
29841SOL    HW1 1248   8.033   4.866   8.343 -0.1256  0.6364 -0.4465
29841SOL    HW2 1249   7.931   4.900   8.236  0.9037 -0.2622 -1.7576
29842SOL     OW 1250   6.635  10.193   3.000  0.0601  0.3802 -0.7638
29842SOL    HW1 1251   6.638  10.257   2.929 -0.7605 -1.1762 -2.2866
29842SOL    HW2 1252   6.681  10.117   2.964  2.5088  0.6082  1.5955
29843SOL     OW 1253  12.454   0.226   4.938  0.1465  0.4307 -0.1709
29843SOL    HW1 1254  12.419   0.289   4.875 -1.9629 -0.8972 -0.4403
29843SOL    HW2 1255  12.487   0.153   4.884 -0.0485  0.0661  0.1927
29844SOL     OW 1256   0.412   8.913   9.763 -0.0244 -0.2892  0.6382
29844SOL    HW1 1257   0.371   8.828   9.781  1.5025 -1.3795 -0.6924
29844SOL    HW2 1258   0.496   8.890   9.722 -1.0299  1.8554 -3.0421
29845SOL     OW 1259   9.870   2.980   2.009 -0.1869  0.1917 -0.2906
29845SOL    HW1 1260   9.832   2.904   1.964  0.0258  0.7064 -1.3965
29845SOL    HW2 1261   9.796   3.022   2.052 -0.1270 -1.2706  1.3293
29846SOL     OW 1262  11.429   6.139   6.957 -0.2071  0.0800  0.2430
29846SOL    HW1 1263  11.421   6.044   6.953  0.6137  0.0020  0.3140
29846SOL    HW2 1264  11.338   6.170   6.962 -0.5324 -0.6467 -0.7819
29847SOL     OW 1265   1.017  13.420   7.438 -0.1962  0.1575 -0.2788
29847SOL    HW1 1266   0.995  13.330   7.416 -0.1891  0.0740  0.0563
29847SOL    HW2 1267   1.112  13.420   7.451 -0.1674  0.2564 -0.4702
29848SOL     OW 1268   1.943   5.423   7.326  0.1512  0.3248 -0.2762
29848SOL    HW1 1269   1.922   5.516   7.324 -0.4302  0.2278  0.6809
29848SOL    HW2 1270   2.035   5.418   7.301  0.7192  1.3387  1.4577
29849SOL     OW 1271   4.160   0.516  12.808 -0.0238 -0.2039 -0.1566
29849SOL    HW1 1272   4.138   0.579  12.739 -0.0788 -1.5201 -1.3915
29849SOL    HW2 1273   4.255   0.516  12.811  0.0394 -1.1052 -1.2200
29850SOL     OW 1274   3.398  10.868  10.701  0.3049 -0.3179  0.0513
29850SOL    HW1 1275   3.338  10.939  10.679  2.6427  1.8617  0.1936
29850SOL    HW2 1276   3.428  10.889  10.790  1.6524 -1.0228 -0.2097
29851SOL     OW 1277  12.860   4.140   9.273 -0.3464 -0.3439 -0.1099
29851SOL    HW1 1278  12.923   4.123   9.203 -1.1306 -0.1669 -0.8799
29851SOL    HW2 1279  12.815   4.220   9.247 -0.8066 -0.3970  0.4912
29852SOL     OW 1280   2.466  10.793   5.038 -0.0314 -0.4438 -0.1883
29852SOL    HW1 1281   2.411  10.778   5.114 -0.9225 -1.6872 -1.0455
29852SOL    HW2 1282   2.547  10.745   5.056  0.3235  0.3989  0.5454
29853SOL     OW 1283   3.283  13.644   8.242 -0.1272 -0.3988  0.3134
29853SOL    HW1 1284   3.240  13.604   8.167  2.2228 -0.2218 -1.2377
29853SOL    HW2 1285   3.375  13.621   8.232  0.7231  2.1473  1.4977
29854SOL     OW 1286   3.166   1.016   2.714  0.2788  0.4525 -0.0970
29854SOL    HW1 1287   3.091   1.058   2.672 -0.0920 -0.8885 -0.8395
29854SOL    HW2 1288   3.136   0.926   2.731  1.8478 -0.2571 -0.8565
29855SOL     OW 1289   8.206   4.763   2.812  0.1687  0.3748 -0.4665
29855SOL    HW1 1290   8.268   4.832   2.836 -0.2198  0.4752  0.2711
29855SOL    HW2 1291   8.260   4.683   2.810  0.1244  0.2216  1.5118
29856SOL     OW 1292   3.363   6.440   6.412 -0.4693 -0.6367 -0.1097
29856SOL    HW1 1293   3.393   6.518   6.366  0.8816  1.1186  3.3841
29856SOL    HW2 1294   3.443   6.389   6.425 -1.2359 -2.3841 -1.7547
29857SOL     OW 1295   2.288   3.701  13.413  0.4728 -0.4895  0.1061
29857SOL    HW1 1296   2.360   3.697  13.476 -0.9208 -0.2818  1.7924
29857SOL    HW2 1297   2.220   3.751  13.458 -0.0298  1.0707 -2.1994
29858SOL     OW 1298   5.926  12.079  13.710 -0.4231  0.2073 -0.0878
29858SOL    HW1 1299   5.954  12.040  13.627 -0.3980 -0.2345  0.1244
29858SOL    HW2 1300   5.867  12.150  13.685 -0.1647  0.2793 -0.4951
29859SOL     OW 1301   4.412   2.702  10.183  0.1875 -0.7897  0.0731
29859SOL    HW1 1302   4.391   2.754  10.261  1.6371  0.3541 -0.2491
29859SOL    HW2 1303   4.410   2.611  10.213 -2.0199 -0.5753  0.7593
29860SOL     OW 1304   5.084   3.063   0.300  0.3362  0.1184  0.3700
29860SOL    HW1 1305   4.994   3.052   0.270  0.9895 -0.2547 -1.5309
29860SOL    HW2 1306   5.080   3.141   0.356 -0.8386  1.2796 -1.2199
29861SOL     OW 1307   5.465   0.023   6.627  0.7236  0.0942 -0.0310
29861SOL    HW1 1308   5.414   0.059   6.554 -0.5066 -0.5531  0.4791
29861SOL    HW2 1309   5.410  -0.047   6.662  2.3709 -1.2618 -0.0240
29862SOL     OW 1310  13.298   1.325   4.725 -0.4939  0.2419 -0.2694
29862SOL    HW1 1311  13.370   1.262   4.717 -0.0041  0.6140  0.9292
29862SOL    HW2 1312  13.253   1.321   4.641  1.7516  0.9979 -1.5952
29863SOL     OW 1313   3.743  10.647  10.730 -0.0353 -0.1271  0.1877
29863SOL    HW1 1314   3.750  10.743  10.735  0.7735 -0.1828  0.1195
29863SOL    HW2 1315   3.833  10.615  10.736 -0.2596 -0.8690 -0.2383
29864SOL     OW 1316  12.747   5.400  12.315  0.7787  0.0145  0.0516
29864SOL    HW1 1317  12.725   5.311  12.286  0.3668  1.1451 -3.5606
29864SOL    HW2 1318  12.843   5.403  12.310  0.7322  0.1074 -1.1446
29865SOL     OW 1319   3.235   7.137   1.222 -0.3365  0.0394  0.2085
29865SOL    HW1 1320   3.193   7.157   1.138  0.0330 -0.6332 -0.1466
29865SOL    HW2 1321   3.326   7.161   1.209  0.1271 -1.7454 -0.2349
29866SOL     OW 1322   2.109  11.404   4.332 -0.5762  0.2513 -0.9394
29866SOL    HW1 1323   2.091  11.478   4.275  1.5461  2.4772  1.0530
29866SOL    HW2 1324   2.048  11.414   4.405  0.6935  0.9696  0.0619
29867SOL     OW 1325   0.674  12.767  13.484  0.8921 -0.3228 -0.0090
29867SOL    HW1 1326   0.667  12.683  13.530 -1.3024 -0.3340 -0.2422
29867SOL    HW2 1327   0.658  12.832  13.552  1.3712 -0.1491 -0.0616
29868SOL     OW 1328  12.257  12.114   0.344 -0.8015 -0.4308 -0.4519
29868SOL    HW1 1329  12.215  12.198   0.361  1.3934  0.2568  2.1700
29868SOL    HW2 1330  12.313  12.130   0.268  1.5982  1.4061  1.5236
29869SOL     OW 1331   6.285   6.565   3.452 -0.0893 -0.4040 -0.2980
29869SOL    HW1 1332   6.191   6.548   3.460 -0.2350  1.0947  2.4048
29869SOL    HW2 1333   6.324   6.478   3.444 -1.5889 -1.1686  0.1640
29870SOL     OW 1334   8.696  12.844   5.375 -0.0746 -0.3787 -0.7642
29870SOL    HW1 1335   8.739  12.884   5.450  0.3594 -1.7032 -0.2804
29870SOL    HW2 1336   8.746  12.874   5.299 -0.7169  1.2336 -0.5869
29871SOL     OW 1337   1.296   9.526   8.425  0.0711 -0.4317 -0.1963
29871SOL    HW1 1338   1.290   9.597   8.360 -0.7045 -0.2898  0.0199
29871SOL    HW2 1339   1.380   9.542   8.469 -0.9012  1.5209  1.1444
29872SOL     OW 1340   4.441   5.541  11.790  0.0393 -0.6715 -0.7071
29872SOL    HW1 1341   4.381   5.574  11.723 -0.4775  0.0820  0.1096
29872SOL    HW2 1342   4.448   5.612  11.854 -0.0881 -1.6637  0.4399
29873SOL     OW 1343  12.617   8.110   3.458 -0.4156 -0.2527 -0.5039
29873SOL    HW1 1344  12.579   8.123   3.545  0.0914 -1.3185 -0.1087
29873SOL    HW2 1345  12.704   8.074   3.474 -0.2720 -0.3618 -1.4508
29874SOL     OW 1346  11.671  11.326  11.961  0.3248 -0.0859 -0.6944
29874SOL    HW1 1347  11.718  11.243  11.971 -1.8121 -1.2368  0.5586
29874SOL    HW2 1348  11.675  11.344  11.868  1.2160 -1.3518 -0.9402
29875SOL     OW 1349   5.707   3.394  11.550  0.0558  0.4624 -0.5194
29875SOL    HW1 1350   5.739   3.314  11.593 -0.4492  1.7826  2.5619
29875SOL    HW2 1351   5.787   3.438  11.520  0.4373 -0.5078 -0.9682
29876SOL     OW 1352   1.299   0.686   5.911  0.0803  0.1035  0.5534
29876SOL    HW1 1353   1.332   0.690   6.001  0.4968 -0.7870  0.4564
29876SOL    HW2 1354   1.239   0.611   5.911  2.0706 -1.5812 -0.5055
29877SOL     OW 1355   8.796   6.147   4.970  0.3057 -0.0168 -0.1045
29877SOL    HW1 1356   8.748   6.222   5.006 -1.4710 -0.6262 -1.0737
29877SOL    HW2 1357   8.764   6.071   5.019  1.2365 -0.3060  0.0811
29878SOL     OW 1358  11.505   1.538  10.109  0.0676 -0.5338 -0.1490
29878SOL    HW1 1359  11.434   1.490  10.068  1.2381 -0.3779 -2.5142
29878SOL    HW2 1360  11.585   1.495  10.079  1.0414  0.0643  1.4084
29879SOL     OW 1361   0.599  10.184   7.291 -0.3682 -0.6095 -0.1987
29879SOL    HW1 1362   0.690  10.207   7.311 -0.3845  0.3118 -1.0928
29879SOL    HW2 1363   0.547  10.238   7.350 -0.3645  0.6126 -1.2518
29880SOL     OW 1364  10.553   8.171  10.728 -0.9975 -0.4509 -0.1740
29880SOL    HW1 1365  10.596   8.086  10.717  0.6326 -0.0803  2.4679
29880SOL    HW2 1366  10.495   8.159  10.804 -1.1875  0.6204 -0.1346
29881SOL     OW 1367   4.972   1.332   9.479  0.2468  0.4125 -0.4497
29881SOL    HW1 1368   5.012   1.333   9.392 -0.6400  0.3770 -0.8703
29881SOL    HW2 1369   5.032   1.384   9.533  2.6260 -2.3604 -0.2089
29882SOL     OW 1370  13.608  12.470   5.756 -0.4412 -0.0753 -0.4491
29882SOL    HW1 1371  13.643  12.392   5.713 -0.4777 -0.0756 -0.4794
29882SOL    HW2 1372  13.541  12.502   5.695 -0.7577 -0.2930 -0.2168
29883SOL     OW 1373   3.155   3.837   0.107 -0.7753  0.2716 -0.2786
29883SOL    HW1 1374   3.120   3.912   0.058 -0.2397  0.1057 -0.9265
29883SOL    HW2 1375   3.250   3.844   0.097 -0.7432 -1.9413 -2.6091
29884SOL     OW 1376   0.549   8.914  11.641  0.1667  0.2017 -0.3190
29884SOL    HW1 1377   0.459   8.937  11.618 -0.1720 -0.7167  0.0228
29884SOL    HW2 1378   0.562   8.827  11.603 -0.6263 -1.6912  3.3472
29885SOL     OW 1379   6.302  10.743  12.045 -0.2495 -0.4720  0.6655
29885SOL    HW1 1380   6.208  10.734  12.032 -0.2315 -1.0589  0.9090
29885SOL    HW2 1381   6.311  10.822  12.098 -0.5491  0.0022  0.0270
29886SOL     OW 1382   4.582  10.215  12.206  0.4595  0.3436 -0.6325
29886SOL    HW1 1383   4.494  10.235  12.173  0.5751 -0.9007 -1.8038
29886SOL    HW2 1384   4.591  10.121  12.192  2.4380  0.6445 -1.7237
29887SOL     OW 1385  12.075   2.773  12.214 -0.4599  0.4566  0.5177
29887SOL    HW1 1386  12.145   2.812  12.162 -0.2763  0.7639  0.9800
29887SOL    HW2 1387  12.033   2.710  12.156  0.1116  0.3746  0.1880
29888SOL     OW 1388  12.200   8.302   8.498 -0.7153  0.6053 -0.1727
29888SOL    HW1 1389  12.106   8.323   8.504 -0.6938  0.4060  1.3592
29888SOL    HW2 1390  12.209   8.255   8.415 -1.5428  2.6608 -1.4929
29889SOL     OW 1391   7.771   2.668  11.332 -0.1582 -0.6354 -0.4150
29889SOL    HW1 1392   7.753   2.575  11.318 -0.0825 -0.7974  0.5275
29889SOL    HW2 1393   7.867   2.675  11.324 -0.0810 -0.7869  0.3114
29890SOL     OW 1394  11.345   3.986   2.426 -0.1700 -0.4514 -0.7120
29890SOL    HW1 1395  11.299   4.014   2.505  0.5289 -0.6027 -0.2341
29890SOL    HW2 1396  11.280   3.939   2.375 -0.9740  0.7643 -0.8429
29891SOL     OW 1397   3.576   2.851  10.866 -0.0517  0.1697 -0.3185
29891SOL    HW1 1398   3.662   2.807  10.868  0.4559  1.1318 -0.2614
29891SOL    HW2 1399   3.522   2.796  10.810  0.7971 -0.1173 -0.8780
29892SOL     OW 1400   9.277   8.829   3.249 -0.2070  0.5525  0.7145
29892SOL    HW1 1401   9.208   8.866   3.195  0.1392  0.1147 -0.0414
29892SOL    HW2 1402   9.241   8.747   3.282 -0.7044  1.1910  1.7947
29893SOL     OW 1403   0.869   6.015  12.716  0.7723 -0.1534 -0.0253
29893SOL    HW1 1404   0.797   6.059  12.762  0.6094 -0.8463  0.4046
29893SOL    HW2 1405   0.903   6.081  12.656 -0.1721  0.2120 -0.1764
29894SOL     OW 1406   1.542   1.158   9.846  0.4012 -0.4761 -0.1893
29894SOL    HW1 1407   1.522   1.215   9.921  1.6896 -1.6988  1.1595
29894SOL    HW2 1408   1.472   1.094   9.845 -0.2112  0.1791 -0.7479
29895SOL     OW 1409   9.708   2.489   9.887 -0.2719  0.4892  0.0635
29895SOL    HW1 1410   9.771   2.527   9.947  1.5059  1.1152 -2.0943
29895SOL    HW2 1411   9.719   2.394   9.896 -0.2972  0.5663  0.9531
29896SOL     OW 1412  13.533   2.833  11.642 -0.1739 -0.8525 -0.4165
29896SOL    HW1 1413  13.459   2.869  11.693 -0.9076  0.3495 -2.2249
29896SOL    HW2 1414  13.600   2.901  11.647  0.0927 -1.1238 -0.3188
29897SOL     OW 1415   8.058   8.287   7.814 -0.1676  0.1924 -0.4200
29897SOL    HW1 1416   8.078   8.380   7.804  0.8291 -0.0634 -0.8947
29897SOL    HW2 1417   7.984   8.285   7.875 -0.9669  1.3510 -1.3047
29898SOL     OW 1418   1.228  12.997   3.037  0.3686  0.3537 -0.4889
29898SOL    HW1 1419   1.317  12.975   3.010  0.0789  0.1597 -1.3012
29898SOL    HW2 1420   1.171  12.949   2.977 -0.2930  0.4522  0.0365
29899SOL     OW 1421  11.981  12.147   2.593 -0.1299 -0.0499 -0.0515
29899SOL    HW1 1422  11.963  12.056   2.570  0.3165 -0.3359  0.7140
29899SOL    HW2 1423  11.938  12.160   2.678  0.9355  0.0548  0.4901
29900SOL     OW 1424   1.238   2.658  10.570  0.2654  0.0259 -0.6638
29900SOL    HW1 1425   1.185   2.615  10.638  0.9867 -0.1656 -0.2075
29900SOL    HW2 1426   1.185   2.733  10.543 -0.2508 -0.1708 -0.2351
29901SOL     OW 1427  13.173  13.617   3.349 -0.5009  0.0549 -0.1269
29901SOL    HW1 1428  13.235  13.636   3.420 -2.0992  2.1251  0.8624
29901SOL    HW2 1429  13.173  13.522   3.341 -0.4514 -0.3072  2.9240
29902SOL     OW 1430   7.343   7.681  13.681 -0.1888  0.4383 -0.3337
29902SOL    HW1 1431   7.299   7.731  13.612 -1.5984  0.0017  0.2175
29902SOL    HW2 1432   7.360   7.596  13.640 -1.8473 -0.1364  0.0945
29903SOL     OW 1433   5.870   9.302  12.291 -0.7770  0.2553  0.2723
29903SOL    HW1 1434   5.821   9.383  12.280 -4.3268 -1.3782  2.0524
29903SOL    HW2 1435   5.806   9.233  12.272  1.3946 -2.1492  1.0657
29904SOL     OW 1436   7.653  12.483  11.335 -0.2725  0.2915 -0.2004
29904SOL    HW1 1437   7.580  12.444  11.383 -0.6007  2.0440  0.8263
29904SOL    HW2 1438   7.612  12.526  11.260 -0.0623 -0.2573 -0.6351
29905SOL     OW 1439   6.390   3.417   2.169  0.5076  0.0894  0.1629
29905SOL    HW1 1440   6.472   3.450   2.205  0.6395  2.2738 -1.9441
29905SOL    HW2 1441   6.322   3.454   2.226  0.8630  0.3212  0.4409
29906SOL     OW 1442   2.052   5.230  10.276  0.1081 -0.3621  0.1982
29906SOL    HW1 1443   2.134   5.278  10.265  0.7136 -1.1535  1.1985
29906SOL    HW2 1444   2.017   5.223  10.187  0.7915  0.5426 -0.1575
29907SOL     OW 1445   7.758  11.723   2.757  0.0301 -0.2021 -0.2585
29907SOL    HW1 1446   7.745  11.677   2.840 -0.1187  0.7962  0.2922
29907SOL    HW2 1447   7.688  11.788   2.755  0.2285 -0.0090 -1.0210
29908SOL     OW 1448  10.492   5.032  11.283  0.5615  0.1991  0.0209
29908SOL    HW1 1449  10.434   4.983  11.341 -0.3959 -0.8072 -1.7046
29908SOL    HW2 1450  10.433   5.077  11.222  1.5436  0.8497 -0.4762
29909SOL     OW 1451   1.531  11.440  13.667  0.0474  1.0109 -0.3187
29909SOL    HW1 1452   1.496  11.385  13.736  3.7004 -1.5314 -0.1904
29909SOL    HW2 1453   1.505  11.397  13.586  1.3328  0.0943 -0.2681
29910SOL     OW 1454   6.866   7.156  12.434 -0.0644 -0.3009 -0.5197
29910SOL    HW1 1455   6.885   7.078  12.383 -1.0076 -1.1683  0.4220
29910SOL    HW2 1456   6.772   7.169  12.426  0.0562  0.6426 -0.5287
29911SOL     OW 1457  12.373   0.295   1.715 -0.2643  0.3080 -0.5914
29911SOL    HW1 1458  12.429   0.370   1.693 -0.6353  1.2567  1.3906
29911SOL    HW2 1459  12.431   0.236   1.764 -0.9098  1.3912  1.6532
29912SOL     OW 1460   8.092   4.907  10.866  0.1026 -0.2725  0.7476
29912SOL    HW1 1461   8.087   4.907  10.770  0.2377 -1.0466  0.7411
29912SOL    HW2 1462   8.010   4.866  10.894  0.5611 -1.0674  0.9362
29913SOL     OW 1463   7.103   9.993  13.154 -0.4082  0.4030  0.2491
29913SOL    HW1 1464   7.078   9.944  13.076  0.4203  0.4592 -0.0624
29913SOL    HW2 1465   7.020  10.022  13.192 -0.8206  0.3315 -0.5771
29914SOL     OW 1466   1.330   1.449   7.131 -0.3424  0.5971 -0.1205
29914SOL    HW1 1467   1.414   1.496   7.126 -0.0499 -0.0471 -1.8340
29914SOL    HW2 1468   1.354   1.357   7.121 -0.9863  0.0648  2.4869
29915SOL     OW 1469   6.813   8.663  11.790 -1.0150 -0.6036  0.0546
29915SOL    HW1 1470   6.896   8.712  11.787 -0.7454 -0.9232  1.3392
29915SOL    HW2 1471   6.747   8.729  11.811 -0.6482 -0.7248  1.8027
29916SOL     OW 1472   9.239  13.296   8.018 -0.5991  0.1189 -0.0266
29916SOL    HW1 1473   9.177  13.367   8.037 -0.0176  0.2750  1.4492
29916SOL    HW2 1474   9.189  13.216   8.029 -0.8303  0.2723  0.0333
29917SOL     OW 1475  13.625   0.353   5.582  0.0467 -0.8523  0.1090
29917SOL    HW1 1476  13.661   0.277   5.628  0.5980 -1.8386 -1.8575
29917SOL    HW2 1477  13.699   0.413   5.573 -0.1028 -0.5827  0.6146
29918SOL     OW 1478  11.995   7.583  13.011  0.4385  0.3323  0.2312
29918SOL    HW1 1479  12.087   7.575  12.984  0.7962  1.9078  0.8836
29918SOL    HW2 1480  11.948   7.607  12.931  0.6974  0.2064  0.0383
29919SOL     OW 1481   5.703  12.041   8.355  0.3391 -0.1425  0.2204
29919SOL    HW1 1482   5.690  12.134   8.338 -1.3597 -0.4304 -0.1673
29919SOL    HW2 1483   5.676  11.998   8.273  2.2101 -0.9335 -0.0310
29920SOL     OW 1484   4.592   7.357   4.663 -0.1869 -0.1175  0.2161
29920SOL    HW1 1485   4.549   7.289   4.715  0.3666  0.0190  0.8719
29920SOL    HW2 1486   4.531   7.430   4.664 -0.5947 -0.4536 -0.1263
29921SOL     OW 1487   1.222   7.700   7.681 -0.0389 -0.3668 -0.5052
29921SOL    HW1 1488   1.140   7.721   7.725  0.5710 -2.2518  1.7636
29921SOL    HW2 1489   1.213   7.738   7.594 -1.9995  2.2152  0.6778
29922SOL     OW 1490   5.445   3.072  10.309  0.4792  0.3178  0.0353
29922SOL    HW1 1491   5.438   3.135  10.382  1.8437  0.9597 -0.3579
29922SOL    HW2 1492   5.490   2.997  10.347  0.8616  0.5018 -0.0535
29923SOL     OW 1493  11.212   5.616   4.862  0.1353  0.2142 -0.0119
29923SOL    HW1 1494  11.141   5.599   4.800 -0.3670  1.0532  0.3123
29923SOL    HW2 1495  11.292   5.594   4.814 -0.3579 -1.6934 -0.0696
29924SOL     OW 1496   3.952   4.638   1.093 -0.2830  0.0467  0.0041
29924SOL    HW1 1497   3.984   4.667   1.179 -1.0861 -1.4255  0.8549
29924SOL    HW2 1498   3.865   4.677   1.085  0.2515  1.1199 -0.6758
29925SOL     OW 1499  12.527   3.597   1.059  0.1406  0.0672 -0.2789
29925SOL    HW1 1500  12.544   3.560   1.146 -2.0899  0.9415  0.6030
29925SOL    HW2 1501  12.519   3.521   1.002 -0.4887 -0.6282  0.7150
29926SOL     OW 1502   2.152   9.338  12.388  0.3185  0.2896  0.2944
29926SOL    HW1 1503   2.216   9.285  12.341 -0.0762 -1.5664  1.7584
29926SOL    HW2 1504   2.179   9.334  12.479 -1.5652 -0.0891  0.8704
29927SOL     OW 1505   1.137  10.084   4.691 -0.1238  0.1125  0.0915
29927SOL    HW1 1506   1.211  10.145   4.682 -0.4652  0.5462  0.2186
29927SOL    HW2 1507   1.077  10.128   4.750 -0.7840  0.0396 -0.5183
29928SOL     OW 1508  12.308   6.382  12.362 -0.2473 -0.4698  0.3609
29928SOL    HW1 1509  12.333   6.451  12.300 -0.5157  0.0100  0.7858
29928SOL    HW2 1510  12.357   6.305  12.332 -1.0090 -0.4695 -0.9447
29929SOL     OW 1511   3.910  12.950   8.317  0.6247 -0.1743 -0.1533
29929SOL    HW1 1512   3.878  12.894   8.387 -1.1755 -0.4879 -1.1668
29929SOL    HW2 1513   3.862  12.920   8.239 -0.6528  2.9466 -0.6864
29930SOL     OW 1514   3.585   4.701  12.132  0.0796  0.3003 -0.3571
29930SOL    HW1 1515   3.665   4.715  12.082 -0.5119  1.3975 -1.0450
29930SOL    HW2 1516   3.548   4.620  12.098  1.3899 -0.7673  0.6678
29931SOL     OW 1517  13.734   2.516  12.158  0.2556 -0.1180  0.0171
29931SOL    HW1 1518  13.788   2.476  12.226  0.2629  0.2132  0.2080
29931SOL    HW2 1519  13.731   2.609  12.181  0.3665  0.0223 -0.5062
29932SOL     OW 1520   2.009  11.772   9.928  0.2886 -0.0026 -0.0625
29932SOL    HW1 1521   2.040  11.862   9.931 -1.0817  0.4679  1.9915
29932SOL    HW2 1522   2.027  11.743   9.838 -0.8038  2.8833 -1.3071
29933SOL     OW 1523   0.283   1.758  11.080 -0.6296  0.2285  0.0872
29933SOL    HW1 1524   0.267   1.728  10.990 -0.7911  0.9609 -0.1343
29933SOL    HW2 1525   0.303   1.851  11.071 -0.6372  0.3052  0.8156
29934SOL     OW 1526   2.488   3.216   9.097  0.6487  0.2708 -0.0642
29934SOL    HW1 1527   2.427   3.250   9.031  0.4043  0.1356  0.0890
29934SOL    HW2 1528   2.515   3.131   9.063  1.4261  0.6979 -0.5523
29935SOL     OW 1529   2.519  12.571  12.791  0.1280  0.2594  1.0853
29935SOL    HW1 1530   2.551  12.653  12.829 -0.7615  0.8966  0.4911
29935SOL    HW2 1531   2.424  12.579  12.792  0.0501  0.2829 -1.1519
29936SOL     OW 1532   2.579   7.796   0.184  0.1229  0.1414  0.0884
29936SOL    HW1 1533   2.601   7.883   0.151 -1.2098  1.1064  1.5664
29936SOL    HW2 1534   2.518   7.761   0.119 -0.0293  0.6822 -0.0696
29937SOL     OW 1535   0.149   6.270   8.608 -0.1633 -0.0061 -0.2499
29937SOL    HW1 1536   0.154   6.365   8.603 -1.5306  0.2585  2.0226
29937SOL    HW2 1537   0.105   6.244   8.527  1.3700  1.1196 -1.5103
29938SOL     OW 1538  13.119  11.628  11.452  0.7549 -0.7031 -0.1471
29938SOL    HW1 1539  13.052  11.587  11.398  1.9489 -2.1263 -0.6203
29938SOL    HW2 1540  13.109  11.586  11.538  0.1231  0.1455  0.2092
29939SOL     OW 1541   3.114   8.128  13.688 -0.4212  0.2379  0.1692
29939SOL    HW1 1542   3.042   8.191  13.688 -0.5220  0.1677  1.5165
29939SOL    HW2 1543   3.189   8.176  13.653 -1.3050  0.0430 -2.1229
29940SOL     OW 1544   6.413   3.175   2.282 -0.2721  0.1202 -0.0990
29940SOL    HW1 1545   6.392   3.181   2.375 -0.3511  0.3150 -0.1285
29940SOL    HW2 1546   6.395   3.262   2.247 -1.3295 -0.2382 -0.5117
29941SOL     OW 1547  12.060  10.408   9.843 -0.1519 -0.1736  0.3943
29941SOL    HW1 1548  12.023  10.458   9.916  0.4203  0.3033  0.3646
29941SOL    HW2 1549  12.141  10.371   9.877  0.1810  0.1549 -0.0335
29942SOL     OW 1550   7.567   2.715   5.501 -0.5189  0.9034 -0.1734
29942SOL    HW1 1551   7.496   2.685   5.557 -0.8104 -0.7531 -1.3772
29942SOL    HW2 1552   7.531   2.715   5.413  1.3523 -1.4883 -1.0389
29943SOL     OW 1553   2.947  12.535  13.404 -0.1732 -0.2449 -0.5590
29943SOL    HW1 1554   2.909  12.622  13.417 -1.5017 -0.5678 -1.9690
29943SOL    HW2 1555   2.892  12.495  13.336  0.0482 -2.4060  0.4607
29944SOL     OW 1556   0.406   8.997   7.268 -0.4733  0.8406  0.2401
29944SOL    HW1 1557   0.333   8.952   7.310 -1.5870  2.9989  0.7942
29944SOL    HW2 1558   0.466   9.017   7.340  1.3249 -1.8740 -0.3530
29945SOL     OW 1559   3.659   0.863   3.801 -0.4118  0.3494 -0.0824
29945SOL    HW1 1560   3.626   0.915   3.728  0.9613  0.9352 -0.3048
29945SOL    HW2 1561   3.581   0.847   3.855 -0.9278  2.4457 -0.1174
29946SOL     OW 1562   9.222   1.731  12.076  0.1978 -0.3174 -0.3164
29946SOL    HW1 1563   9.267   1.672  12.015 -0.9494  0.3295 -1.8283
29946SOL    HW2 1564   9.289   1.754  12.140  1.5779 -0.6300 -1.5972
29947SOL     OW 1565  12.485   7.157   7.361  0.0382  0.2933  0.2264
29947SOL    HW1 1566  12.465   7.246   7.390  0.4449  0.3560  0.3241
29947SOL    HW2 1567  12.409   7.105   7.386 -1.0937  0.9881 -1.5988
29948SOL     OW 1568   5.176  10.148   5.420  0.5811 -0.3210 -0.0180
29948SOL    HW1 1569   5.208  10.070   5.465  0.7638 -0.1054  0.2308
29948SOL    HW2 1570   5.167  10.121   5.328 -0.5939 -1.0077  0.2780
29949SOL     OW 1571   7.681  12.670   5.149 -0.3803 -0.4069  0.0090
29949SOL    HW1 1572   7.694  12.611   5.224  1.1032 -0.0376  0.0816
29949SOL    HW2 1573   7.626  12.620   5.088  0.1419 -1.5409  0.4328
29950SOL     OW 1574   6.918   0.476   9.580 -0.1488  0.2166 -0.1226
29950SOL    HW1 1575   6.946   0.421   9.507  0.3906  1.0757 -0.5796
29950SOL    HW2 1576   6.980   0.549   9.580 -0.4295  0.4691  0.9046
29951SOL     OW 1577  13.534   1.016   5.629  0.2702 -0.1204 -0.4481
29951SOL    HW1 1578  13.542   0.945   5.565  2.0352 -0.6697  0.3267
29951SOL    HW2 1579  13.598   0.995   5.696 -2.5182 -0.4006  2.3544
29952SOL     OW 1580  12.502   4.746  10.652 -0.0354  0.0854 -1.1036
29952SOL    HW1 1581  12.550   4.801  10.591 -1.4709 -0.3630 -2.7150
29952SOL    HW2 1582  12.416   4.735  10.612  0.0278 -2.9418 -0.6243
29953SOL     OW 1583   2.016   9.881  12.353  0.7398 -0.3336  0.0044
29953SOL    HW1 1584   2.013   9.971  12.386  0.7421 -0.0202 -0.8066
29953SOL    HW2 1585   1.958   9.832  12.410  0.1631  0.3457  0.0161
29954SOL     OW 1586   6.097   2.548  10.349  0.3752  0.5278  0.2306
29954SOL    HW1 1587   6.042   2.587  10.417  0.6448  0.5891  0.4152
29954SOL    HW2 1588   6.036   2.502  10.291  0.2184 -0.2964  1.0277
29955SOL     OW 1589   6.684   4.399   6.736 -0.4197  0.1424 -0.2758
29955SOL    HW1 1590   6.667   4.490   6.759 -2.3083 -0.2763  0.1134
29955SOL    HW2 1591   6.743   4.367   6.804 -2.4142  0.1688  1.5440
29956SOL     OW 1592   7.763   9.964   0.006 -0.5471  0.3429 -0.1576
29956SOL    HW1 1593   7.705   9.913   0.062 -0.6120  0.3775 -0.1937
29956SOL    HW2 1594   7.716   9.972  -0.077 -1.0941  1.5252  0.2364
29957SOL     OW 1595   0.718   4.532   7.248 -0.0946  0.4749 -0.0711
29957SOL    HW1 1596   0.803   4.575   7.236  0.4641 -0.0946  1.5295
29957SOL    HW2 1597   0.722   4.497   7.337 -1.7416 -0.1898 -0.2316
29958SOL     OW 1598   0.543   4.729   6.708 -0.2433  0.5002 -0.0419
29958SOL    HW1 1599   0.568   4.700   6.621 -0.5774 -0.0256  0.0367
29958SOL    HW2 1600   0.620   4.774   6.742  0.4674 -0.7449  0.0399
29959SOL     OW 1601   6.404   4.400  10.318 -0.1804  0.1350 -0.0081
29959SOL    HW1 1602   6.374   4.446  10.239  1.0578 -0.5493 -0.9204
29959SOL    HW2 1603   6.458   4.464  10.364  0.1732  0.1358 -0.4138
29960SOL     OW 1604   8.861   2.149   8.039 -0.2135  0.4751 -0.0328
29960SOL    HW1 1605   8.810   2.195   7.973  0.5164  0.4261 -0.6469
29960SOL    HW2 1606   8.944   2.129   7.996  0.4581  0.8446  1.0464
29961SOL     OW 1607   9.639   6.288   2.488  0.6548 -0.5260 -0.0747
29961SOL    HW1 1608   9.695   6.285   2.411  0.2042  1.5995 -0.5293
29961SOL    HW2 1609   9.567   6.345   2.464 -0.8234 -1.7831  1.1019
29962SOL     OW 1610   5.414   1.100   1.505 -0.0839 -0.1371  0.2068
29962SOL    HW1 1611   5.404   1.129   1.415 -2.5558 -1.1963  0.0609
29962SOL    HW2 1612   5.451   1.012   1.497  1.2237  0.3821  0.3375
29963SOL     OW 1613   8.665  11.536   3.665 -0.3851 -0.1313  0.2595
29963SOL    HW1 1614   8.727  11.588   3.614 -0.4950 -0.7125 -0.4751
29963SOL    HW2 1615   8.580  11.577   3.648 -0.7557 -1.6549 -1.8419
29964SOL     OW 1616   2.917   1.253   3.208  0.5199  0.2651 -0.3603
29964SOL    HW1 1617   2.988   1.291   3.260  2.0816 -0.5407 -1.7865
29964SOL    HW2 1618   2.837   1.293   3.243  1.1594 -1.7022  4.0418
29965SOL     OW 1619   6.873   5.719  10.801 -0.0138  0.3544  0.4955
29965SOL    HW1 1620   6.900   5.772  10.726 -0.7721 -0.6849 -0.5373
29965SOL    HW2 1621   6.779   5.731  10.808 -0.0326  0.0079  0.9487
29966SOL     OW 1622   1.482  13.544  10.865 -0.0727 -0.1934 -0.1033
29966SOL    HW1 1623   1.464  13.450  10.863 -0.0341 -0.2199  0.5604
29966SOL    HW2 1624   1.486  13.565  10.958 -2.2060  0.8719 -0.2155
29967SOL     OW 1625   4.159   8.655   5.287  0.5238 -0.2937  0.1023
29967SOL    HW1 1626   4.110   8.636   5.367 -0.7365  1.2250 -0.2490
29967SOL    HW2 1627   4.101   8.630   5.216 -0.1984  2.2592 -0.3302
29968SOL     OW 1628  12.391   4.696   3.853  0.4322 -0.0668 -0.1218
29968SOL    HW1 1629  12.311   4.657   3.890 -0.4972  3.8696  2.6674
29968SOL    HW2 1630  12.462   4.652   3.898 -0.3429 -1.0253  0.2078
29969SOL     OW 1631   5.229   2.768  12.478  0.4012 -0.4625 -0.0927
29969SOL    HW1 1632   5.254   2.860  12.490  0.0279 -0.3948  0.2121
29969SOL    HW2 1633   5.272   2.722  12.550  1.5519 -0.7225 -0.9166
29970SOL     OW 1634  11.900   5.451   9.311 -0.0930  0.0667  0.1125
29970SOL    HW1 1635  11.972   5.412   9.260 -1.2714 -0.3743 -1.2748
29970SOL    HW2 1636  11.834   5.382   9.316 -0.6880  0.6725  0.8156
29971SOL     OW 1637   0.842  13.242   4.228 -0.3274  0.5450 -0.6007
29971SOL    HW1 1638   0.934  13.262   4.246  0.1709 -0.7729 -1.4949
29971SOL    HW2 1639   0.799  13.245   4.314  1.4549 -3.2004  0.6256
29972SOL     OW 1640   4.513   2.076   3.918  0.3826  0.1985  0.1828
29972SOL    HW1 1641   4.474   2.051   3.835  0.0055  1.3135  0.0098
29972SOL    HW2 1642   4.580   2.009   3.934  0.0701 -0.3462 -0.7267
29973SOL     OW 1643  10.099   9.355   8.837  0.1075  0.6799  0.6773
29973SOL    HW1 1644  10.177   9.314   8.875 -0.5961  0.7898  2.3359
29973SOL    HW2 1645  10.114   9.353   8.743 -0.0434 -3.7822  0.5561
29974SOL     OW 1646   7.105   3.262   8.560 -0.1862 -0.0770  0.2798
29974SOL    HW1 1647   7.020   3.295   8.588  0.0689  0.6612  0.1977
29974SOL    HW2 1648   7.168   3.326   8.592  0.2986 -0.3761 -0.0563
29975SOL     OW 1649  12.255  13.494   0.245  0.3836  0.4349  0.5397
29975SOL    HW1 1650  12.189  13.523   0.309 -0.1687  0.5889 -0.0854
29975SOL    HW2 1651  12.335  13.484   0.296  0.4908  2.6115  0.8895
29976SOL     OW 1652  12.070  11.980   4.458 -0.4442 -0.2360 -0.1310
29976SOL    HW1 1653  12.110  11.954   4.541  0.3425 -2.2469 -1.0675
29976SOL    HW2 1654  12.076  12.076   4.458  3.2428 -0.3130  0.4190
29977SOL     OW 1655   8.305   0.703   6.867  0.2957  0.7389 -0.9413
29977SOL    HW1 1656   8.279   0.749   6.787  0.7958  0.9873 -0.9663
29977SOL    HW2 1657   8.401   0.704   6.865  0.3360  1.7022  0.1945
29978SOL     OW 1658  13.386   8.282  13.583  0.0710 -0.3879  0.4217
29978SOL    HW1 1659  13.335   8.362  13.599  2.2135  1.0092  0.6535
29978SOL    HW2 1660  13.338   8.214  13.629 -0.8600  1.1250  1.8098
29979SOL     OW 1661   3.480  11.721   1.302 -0.2911  0.4853 -0.1361
29979SOL    HW1 1662   3.503  11.635   1.266  0.3299  1.2694 -1.6600
29979SOL    HW2 1663   3.403  11.703   1.357  1.2046 -1.4297  1.5075
29980SOL     OW 1664   2.307  10.332   4.916 -0.0042 -0.7321 -0.4225
29980SOL    HW1 1665   2.281  10.419   4.947  2.4424  1.0631 -2.8850
29980SOL    HW2 1666   2.370  10.301   4.982 -1.5631 -1.1183  0.9352
29981SOL     OW 1667   2.051  13.312   8.679 -0.5146  0.3050  0.4206
29981SOL    HW1 1668   2.032  13.306   8.586 -0.4534  2.2240  0.2492
29981SOL    HW2 1669   2.143  13.338   8.684  1.2876 -5.0282  1.1864
29982SOL     OW 1670   6.595   8.506   2.568  0.0063  0.1137 -0.2045
29982SOL    HW1 1671   6.650   8.440   2.526  1.8606  2.2731 -1.4067
29982SOL    HW2 1672   6.508   8.468   2.568  1.1773 -2.8684  0.4511
29983SOL     OW 1673   3.050   0.501   8.040 -0.2244  0.9120  0.5469
29983SOL    HW1 1674   2.996   0.423   8.030  1.0897 -0.1889  1.6197
29983SOL    HW2 1675   3.078   0.524   7.952  0.5106 -0.6957  0.3271
29984SOL     OW 1676  11.617   3.030   1.021  0.2890 -0.2544  0.2338
29984SOL    HW1 1677  11.554   3.015   1.092 -2.0257 -1.8863 -2.0137
29984SOL    HW2 1678  11.619   3.125   1.012 -0.2678 -0.0691  1.6826
29985SOL     OW 1679   9.302   1.921   5.817  0.2835 -0.7455 -0.0344
29985SOL    HW1 1680   9.395   1.901   5.802  0.4637 -0.2016  0.3044
29985SOL    HW2 1681   9.285   1.892   5.906  0.9838  1.9360  1.0866
29986SOL     OW 1682  12.496   7.657   5.316 -0.0360 -0.1378 -0.1473
29986SOL    HW1 1683  12.573   7.701   5.278 -0.5936  0.4975 -0.5894
29986SOL    HW2 1684  12.527   7.570   5.339  0.6586 -0.1053 -0.8989
29987SOL     OW 1685   7.361   6.116   6.897  0.3936  0.0386  0.3114
29987SOL    HW1 1686   7.291   6.086   6.839  1.4359 -0.2719 -0.8164
29987SOL    HW2 1687   7.423   6.159   6.839  2.4497 -2.0026  0.8621
29988SOL     OW 1688   7.950  10.539  12.054 -0.0698 -0.1163  0.2795
29988SOL    HW1 1689   7.962  10.623  12.011  1.2903 -0.8464 -0.8750
29988SOL    HW2 1690   7.968  10.556  12.146 -0.3002  0.9344  0.1419
29989SOL     OW 1691   8.653   6.283   8.138 -0.1863  0.0361  0.2265
29989SOL    HW1 1692   8.642   6.341   8.214  2.0484  0.4236  0.3157
29989SOL    HW2 1693   8.727   6.227   8.161 -0.1895 -0.6048 -1.2191
29990SOL     OW 1694   2.412   8.419   1.218  0.1377  0.3402 -0.1051
29990SOL    HW1 1695   2.350   8.409   1.290  0.2238 -2.8229 -0.3269
29990SOL    HW2 1696   2.389   8.503   1.178 -1.4729  1.0578  2.1024
29991SOL     OW 1697  11.825  12.347   1.666 -0.1938  0.1308 -0.2157
29991SOL    HW1 1698  11.785  12.263   1.689  0.9211 -0.4896 -0.4615
29991SOL    HW2 1699  11.876  12.371   1.743  0.2792  0.0839 -0.5097
29992SOL     OW 1700   1.375   6.818   6.222 -0.2881  0.3775 -0.3248
29992SOL    HW1 1701   1.376   6.867   6.140 -0.8882  1.7218  0.4347
29992SOL    HW2 1702   1.451   6.759   6.216  0.4011  1.3234 -1.3202
29993SOL     OW 1703   8.830   6.449  13.428 -0.5979 -0.5817 -0.2690
29993SOL    HW1 1704   8.884   6.433  13.350  1.8452 -2.1394  1.5856
29993SOL    HW2 1705   8.822   6.544  13.432  1.9810 -0.2430 -0.7591
29994SOL     OW 1706  11.876   5.768  12.383 -0.1081  0.1779  0.6847
29994SOL    HW1 1707  11.943   5.712  12.423  0.9102 -0.0326 -1.1790
29994SOL    HW2 1708  11.885   5.852  12.429  1.5330  0.1837  0.4361
29995SOL     OW 1709   6.316  10.067   4.835  0.0354  0.1004  0.1502
29995SOL    HW1 1710   6.362  10.018   4.903  3.7707  1.7097 -1.0090
29995SOL    HW2 1711   6.351  10.034   4.752 -0.5933  1.7133 -0.8124
29996SOL     OW 1712  11.109   8.709   1.572  0.0792  0.0716  0.3060
29996SOL    HW1 1713  11.165   8.633   1.587 -1.0708 -1.1218 -1.0661
29996SOL    HW2 1714  11.030   8.672   1.532 -0.6871  1.9563 -0.0054
29997SOL     OW 1715  11.116   1.331   6.692 -0.0209 -0.3331 -0.4292
29997SOL    HW1 1716  11.174   1.398   6.727  0.7392 -0.7631 -0.8305
29997SOL    HW2 1717  11.164   1.294   6.618 -0.5838 -1.0548 -0.4466
29998SOL     OW 1718  12.439  10.453   2.799 -0.1525 -0.0539 -0.2508
29998SOL    HW1 1719  12.504  10.463   2.868 -1.3786 -0.3966  0.9996
29998SOL    HW2 1720  12.416  10.543   2.775  0.3479  0.0689 -0.2757
29999SOL     OW 1721   5.679  11.857   9.641  0.6895 -0.4575 -0.3184
29999SOL    HW1 1722   5.728  11.783   9.607  1.2730 -0.3307  0.2275
29999SOL    HW2 1723   5.640  11.898   9.564  1.6512 -0.4078 -0.7940
30000SOL     OW 1724   3.241   7.556  12.108  0.0254  1.1319 -0.1178
30000SOL    HW1 1725   3.172   7.490  12.118 -0.1947  1.5034  0.8809
30000SOL    HW2 1726   3.292   7.526  12.033 -1.4318  1.0323 -1.1129
30001SOL     OW 1727  11.684   3.564   3.882 -0.3909  0.5561 -0.5474
30001SOL    HW1 1728  11.624   3.523   3.943 -0.1759  0.8496 -0.1333
30001SOL    HW2 1729  11.717   3.641   3.929  1.3032 -0.3018 -0.2659
30002SOL     OW 1730   6.519   8.092   0.225  0.2819 -0.5644 -0.6624
30002SOL    HW1 1731   6.442   8.111   0.170 -0.0756 -0.1157 -0.0142
30002SOL    HW2 1732   6.503   8.004   0.259 -0.4913 -0.0533  0.3522
30003SOL     OW 1733   5.057   3.285   1.756 -0.7177 -0.2491 -0.7601
30003SOL    HW1 1734   5.032   3.365   1.802 -1.3372  0.5072 -2.3232
30003SOL    HW2 1735   5.145   3.303   1.722  0.4144 -1.4005  1.3644
30004SOL     OW 1736   9.023   7.881   9.651  0.7628 -0.8629  0.1176
30004SOL    HW1 1737   9.091   7.839   9.703  0.9474 -0.3815  0.2628
30004SOL    HW2 1738   8.963   7.809   9.628  0.6439 -1.0738  1.0322
30005SOL     OW 1739   1.435   4.537   7.425 -0.0979  0.1819 -0.6798
30005SOL    HW1 1740   1.430   4.506   7.335  1.2835 -1.4705 -0.2511
30005SOL    HW2 1741   1.427   4.632   7.419  1.2118  0.2141 -2.6787
30006SOL     OW 1742   6.398  11.134  12.438 -0.1787  0.4125 -0.0146
30006SOL    HW1 1743   6.423  11.223  12.413  0.4403  0.3159  0.2500
30006SOL    HW2 1744   6.361  11.143  12.525  2.1597  0.1131  1.1016
30007SOL     OW 1745   4.584   2.259   4.781  0.5717 -0.6401 -0.0273
30007SOL    HW1 1746   4.505   2.211   4.804 -0.5697  1.3758  0.5056
30007SOL    HW2 1747   4.579   2.268   4.686  0.5953 -1.2203 -0.0872
30008SOL     OW 1748   6.723   8.311   5.419 -0.1389 -0.1655 -0.6723
30008SOL    HW1 1749   6.660   8.369   5.376  1.1098  1.0154 -0.9758
30008SOL    HW2 1750   6.739   8.353   5.504  1.8681  0.8001 -1.4646
30009SOL     OW 1751   5.568  13.656   8.748  0.5103  0.3450 -0.3358
30009SOL    HW1 1752   5.651  13.624   8.783  0.7768  1.5635  0.1691
30009SOL    HW2 1753   5.591  13.704   8.669 -0.0630 -2.1655 -2.1662
30010SOL     OW 1754   1.455   6.471  10.486  0.2981  0.7353  0.2431
30010SOL    HW1 1755   1.423   6.520  10.561 -0.1319  1.2578 -0.2629
30010SOL    HW2 1756   1.541   6.509  10.467  1.2217 -0.5949  1.5377
30011SOL     OW 1757   9.164   3.444   7.707  0.2045  0.3838 -0.0532
30011SOL    HW1 1758   9.209   3.379   7.761  2.1841  0.9942 -0.8793
30011SOL    HW2 1759   9.188   3.528   7.746  0.0538  0.7395 -0.7095
30012SOL     OW 1760   2.669   2.580  12.354 -0.5071 -0.5686  0.1323
30012SOL    HW1 1761   2.741   2.624  12.309 -1.7981  1.0466 -0.4746
30012SOL    HW2 1762   2.707   2.501  12.389  0.7299 -1.7741 -3.4553
30013SOL     OW 1763  11.147  10.119   7.816 -0.2090  0.0703 -0.2710
30013SOL    HW1 1764  11.069  10.173   7.831  0.2715  0.3174  1.6231
30013SOL    HW2 1765  11.128  10.036   7.860 -0.2966 -0.7388 -1.7873
30014SOL     OW 1766   4.269   1.561  11.263  0.0848  0.0245 -0.4252
30014SOL    HW1 1767   4.191   1.562  11.207  0.3914 -3.4324 -1.1710
30014SOL    HW2 1768   4.338   1.598  11.207 -0.1650 -0.9787 -1.4523
30015SOL     OW 1769  11.525  12.271  10.801  0.4422  0.0900  0.7213
30015SOL    HW1 1770  11.613  12.299  10.826  0.6814 -0.8273  0.9159
30015SOL    HW2 1771  11.527  12.176  10.805 -0.4395  0.0408  0.3106
30016SOL     OW 1772   1.055  11.833   1.385  0.4502  0.5760  0.3242
30016SOL    HW1 1773   1.138  11.804   1.348 -0.5280 -1.4527 -0.4460
30016SOL    HW2 1774   1.053  11.794   1.473 -0.4698 -1.0743 -0.3759
30017SOL     OW 1775  12.147   3.596   2.893 -0.5158  0.5186  0.0679
30017SOL    HW1 1776  12.052   3.606   2.890 -0.5358  0.2080 -2.1717
30017SOL    HW2 1777  12.161   3.503   2.910 -0.5667  0.6889  1.1373
30018SOL     OW 1778   9.798   1.212   5.052 -0.0349  0.2576 -1.0322
30018SOL    HW1 1779   9.747   1.131   5.043 -1.9191  1.1451  0.7968
30018SOL    HW2 1780   9.886   1.188   5.021 -1.1872 -1.6787 -3.2189
30019SOL     OW 1781  12.820   8.186   8.802 -0.5696 -0.3299 -0.1285
30019SOL    HW1 1782  12.907   8.176   8.763  0.4016  0.2654  1.7415
30019SOL    HW2 1783  12.818   8.122   8.873 -1.7199 -0.4142 -0.2148
30020SOL     OW 1784   9.191   4.716  12.967  0.3613  0.3048  0.4789
30020SOL    HW1 1785   9.137   4.637  12.962  1.1815 -0.3270  1.1805
30020SOL    HW2 1786   9.272   4.686  13.010  0.0965  1.8477  2.1497
30021SOL     OW 1787   7.664   3.281  12.993  0.6955  0.4196  0.1697
30021SOL    HW1 1788   7.598   3.229  12.948  0.4707  0.2138  0.7176
30021SOL    HW2 1789   7.617   3.358  13.025  0.8749  0.6194 -0.0476
30022SOL     OW 1790   8.530  10.221   5.988 -0.0189 -0.5087 -0.2828
30022SOL    HW1 1791   8.557  10.148   5.932  1.2240 -0.9684  0.8570
30022SOL    HW2 1792   8.612  10.258   6.019 -0.6571  0.9857 -0.3292
30023SOL     OW 1793   2.913   1.095   1.087 -0.6017 -0.2490  0.4704
30023SOL    HW1 1794   2.919   1.160   1.156  0.9434 -0.8088  0.9006
30023SOL    HW2 1795   2.844   1.127   1.030  0.0018  1.6690  0.7555
30024SOL     OW 1796   2.542  12.322   1.252  0.0862 -0.3785  0.0331
30024SOL    HW1 1797   2.498  12.345   1.170  1.9445 -0.5354 -1.0638
30024SOL    HW2 1798   2.571  12.406   1.287  1.2664 -0.4616 -0.6768
30025SOL     OW 1799  12.339  13.517   3.760 -0.5782 -0.1513 -0.2919
30025SOL    HW1 1800  12.291  13.524   3.842 -1.1365 -3.4017 -0.2128
30025SOL    HW2 1801  12.358  13.607   3.736  0.4183  0.9365  3.8331
30026SOL     OW 1802  12.267   9.861   3.182 -0.7791  0.3373 -0.5464
30026SOL    HW1 1803  12.175   9.872   3.158 -1.7587  2.9066  3.4111
30026SOL    HW2 1804  12.312   9.850   3.099 -4.4643  0.3881 -2.7885
30027SOL     OW 1805   6.645   2.037   7.345 -0.5382 -0.3429  0.1289
30027SOL    HW1 1806   6.567   2.059   7.396 -0.0710  1.2916  0.1753
30027SOL    HW2 1807   6.718   2.047   7.406 -0.0884  0.3564 -0.5128
30028SOL     OW 1808  12.796  12.979   7.048 -0.0559 -0.1264  0.1648
30028SOL    HW1 1809  12.712  12.950   7.084 -1.4170  0.5321 -2.2693
30028SOL    HW2 1810  12.797  12.945   6.958  2.5852 -0.6119  0.2884
30029SOL     OW 1811   8.736   7.922   4.871  0.4310 -0.0489  0.1697
30029SOL    HW1 1812   8.764   7.926   4.780  2.2435 -2.8573  0.5104
30029SOL    HW2 1813   8.814   7.942   4.922 -0.6573  1.9611  1.2098
30030SOL     OW 1814  12.149  11.508   5.485 -0.0906 -0.8071 -0.0482
30030SOL    HW1 1815  12.117  11.598   5.471  0.8865 -0.4206  0.0862
30030SOL    HW2 1816  12.135  11.492   5.579  0.7902 -0.3521  0.1708
30031SOL     OW 1817   0.004  13.270   8.357  0.4636  0.2565 -0.4256
30031SOL    HW1 1818  -0.048  13.289   8.279 -0.8147  0.9551  0.5590
30031SOL    HW2 1819  -0.057  13.230   8.419  1.3177  0.2051  0.4279
30032SOL     OW 1820  12.581   4.852  11.891 -0.4080 -0.1214  0.6505
30032SOL    HW1 1821  12.599   4.807  11.809  2.4642 -1.4298  1.8772
30032SOL    HW2 1822  12.539   4.785  11.946 -0.3156  0.0872  0.9743
30033SOL     OW 1823   8.425  12.199   1.239 -0.0263 -0.1594 -0.1972
30033SOL    HW1 1824   8.463  12.283   1.212 -2.9098  0.8323 -1.6051
30033SOL    HW2 1825   8.394  12.159   1.158  0.3204 -2.1244  0.5737
30034SOL     OW 1826   2.538   8.658   9.978  0.1092 -0.2220  0.1481
30034SOL    HW1 1827   2.505   8.570   9.958 -0.2414  0.0119 -0.3228
30034SOL    HW2 1828   2.504   8.678  10.064 -1.0620  0.0453 -0.3618
30035SOL     OW 1829   9.782  11.587   6.783 -0.1289 -0.6088  0.3517
30035SOL    HW1 1830   9.836  11.621   6.712 -1.2220  1.5021  0.4489
30035SOL    HW2 1831   9.804  11.642   6.859 -0.1533 -1.7712  1.2350
30036SOL     OW 1832   9.301  12.954  13.574  0.2668 -0.2656 -0.4625
30036SOL    HW1 1833   9.216  12.962  13.617  0.0958  0.5912 -0.9212
30036SOL    HW2 1834   9.326  12.862  13.585  0.8169  0.1547  2.5133
30037SOL     OW 1835   6.849  10.276   3.471  0.2797  0.2975 -0.0942
30037SOL    HW1 1836   6.917  10.314   3.415 -0.2213 -2.8765 -3.1639
30037SOL    HW2 1837   6.767  10.300   3.429 -0.4016  1.0350  1.5519
30038SOL     OW 1838   7.365   3.633   8.865 -0.5643 -0.1484  0.2175
30038SOL    HW1 1839   7.272   3.647   8.883 -0.1969  1.3240  1.1467
30038SOL    HW2 1840   7.400   3.595   8.946 -0.4324 -1.1864 -0.3048
30039SOL     OW 1841  11.162   7.928   2.691 -0.2059  0.3602  0.1554
30039SOL    HW1 1842  11.072   7.925   2.659  0.0779  2.2013 -0.9835
30039SOL    HW2 1843  11.201   8.002   2.645  1.9890 -0.5695  0.4181
30040SOL     OW 1844  10.474  11.370   4.326  0.7940  0.6213 -0.4680
30040SOL    HW1 1845  10.403  11.435   4.330  0.7853  0.5717  0.3464
30040SOL    HW2 1846  10.470  11.325   4.410 -1.3514 -2.7491 -2.1670
30041SOL     OW 1847  11.471  10.170  10.906  0.0293 -0.1320 -0.2123
30041SOL    HW1 1848  11.380  10.200  10.908  0.0103 -0.1678 -0.4351
30041SOL    HW2 1849  11.495  10.158  10.998  0.0506  0.5971 -0.1184
30042SOL     OW 1850  10.154   3.640   1.078  0.2293 -0.1068 -0.9210
30042SOL    HW1 1851  10.118   3.567   1.128  0.9751 -0.5662 -1.0299
30042SOL    HW2 1852  10.088   3.660   1.012  0.8733 -2.1205 -2.2813
30043SOL     OW 1853   0.014   7.734   8.017 -0.1574 -0.3865  0.0689
30043SOL    HW1 1854   0.109   7.727   8.019 -0.1275 -1.1172 -1.9741
30043SOL    HW2 1855  -0.016   7.670   8.081  0.6966 -0.5344  0.3356
30044SOL     OW 1856   3.100   1.023   7.288  0.8415  0.1359  0.3273
30044SOL    HW1 1857   3.015   1.048   7.323  1.1101  1.3121  0.1891
30044SOL    HW2 1858   3.079   0.962   7.217  0.1026  0.4924  0.2226
30045SOL     OW 1859   0.657   8.509   2.406  0.0599 -0.0026  0.1650
30045SOL    HW1 1860   0.562   8.504   2.393 -0.0325  2.6637 -0.8374
30045SOL    HW2 1861   0.694   8.486   2.321  0.1581  1.5463 -0.2393
30046SOL     OW 1862  10.689  12.763   9.819  0.1808 -0.0302  0.0714
30046SOL    HW1 1863  10.630  12.834   9.792  1.1279  0.8994  0.3895
30046SOL    HW2 1864  10.745  12.748   9.743 -1.3933 -1.9724 -0.7987
30047SOL     OW 1865   6.465   7.848  10.483  0.2482  0.1581  0.4202
30047SOL    HW1 1866   6.488   7.756  10.470  3.2876  0.9907 -1.0202
30047SOL    HW2 1867   6.398   7.846  10.552  0.5620 -3.0658  0.8047
30048SOL     OW 1868   0.418   1.667  13.491  0.3162  0.1981  0.4604
30048SOL    HW1 1869   0.409   1.755  13.456  0.3023  0.2654  0.6310
30048SOL    HW2 1870   0.499   1.633  13.453  0.1668  0.1738  0.1605
30049SOL     OW 1871   6.390  13.016   8.037 -0.0877  0.9441 -0.1889
30049SOL    HW1 1872   6.414  13.079   8.105  0.8948 -0.1585  0.5177
30049SOL    HW2 1873   6.471  13.002   7.988 -0.2037 -0.0494 -0.1033
30050SOL     OW 1874   1.301   2.942  13.141 -0.4448  0.3836  0.2474
30050SOL    HW1 1875   1.205   2.940  13.139 -0.4608  0.8306  0.4959
30050SOL    HW2 1876   1.323   3.035  13.140  0.0654  0.3548 -2.8533
30051SOL     OW 1877  13.661  11.004   2.067  0.4795  0.3284 -0.3292
30051SOL    HW1 1878  13.589  11.036   2.012 -0.0238  2.5818  1.4659
30051SOL    HW2 1879  13.733  11.065   2.050 -0.2244  2.1537  2.5805
30052SOL     OW 1880  11.801   2.440  12.409 -0.1069  0.0495 -0.8072
30052SOL    HW1 1881  11.748   2.373  12.452 -2.3771  0.2394 -3.0648
30052SOL    HW2 1882  11.767   2.523  12.442  0.4637  0.1516 -0.4621
30053SOL     OW 1883  11.856   0.638   0.532  0.3706  0.1258  0.2230
30053SOL    HW1 1884  11.853   0.665   0.440  0.3750  0.2922  0.2718
30053SOL    HW2 1885  11.887   0.716   0.579 -0.1852  0.2167  0.4388
30054SOL     OW 1886   9.610   6.199   5.412  0.5317 -0.4441 -0.7120
30054SOL    HW1 1887   9.681   6.253   5.377 -0.4164  2.0605  0.9430
30054SOL    HW2 1888   9.530   6.242   5.382 -0.2733  0.0854  1.9301
30055SOL     OW 1889   3.717   1.174   9.939 -0.1006  0.4419 -0.0173
30055SOL    HW1 1890   3.657   1.190   9.866 -1.5370  1.6776  1.3572
30055SOL    HW2 1891   3.675   1.103   9.988 -0.7416  1.6079  1.1912
30056SOL     OW 1892   7.099   2.884  11.454  0.0348 -0.5879 -0.1537
30056SOL    HW1 1893   7.134   2.870  11.542 -1.1331  0.3954  0.4908
30056SOL    HW2 1894   7.069   2.797  11.426 -0.0693 -0.8168  0.6452
30057SOL     OW 1895   9.754   1.883   7.662 -0.0997  0.0236  0.4892
30057SOL    HW1 1896   9.832   1.830   7.648  0.9941  1.4997  0.7868
30057SOL    HW2 1897   9.757   1.907   7.754 -0.5631  0.6234  0.3544
30058SOL     OW 1898  12.928  10.532   7.567 -0.3016 -0.2295 -0.2174
30058SOL    HW1 1899  12.932  10.450   7.615 -1.2016 -0.1421  0.0443
30058SOL    HW2 1900  12.834  10.551   7.561 -0.1020  0.9182 -0.0127
30059SOL     OW 1901   0.353  12.506  13.581  0.0389  0.0664 -0.0761
30059SOL    HW1 1902   0.275  12.519  13.635 -0.2250  0.8093 -0.6176
30059SOL    HW2 1903   0.381  12.594  13.557 -0.1771 -0.2449 -1.5821
30060SOL     OW 1904  12.493   8.151  11.586 -0.4744 -0.0802  0.4821
30060SOL    HW1 1905  12.443   8.160  11.667  0.2801  2.5635  0.7463
30060SOL    HW2 1906  12.578   8.191  11.607 -0.4932  1.2882 -1.7811
30061SOL     OW 1907   8.153   8.235   6.566  0.2662  0.0665  0.2182
30061SOL    HW1 1908   8.204   8.159   6.592  1.2666  1.2139  1.8353
30061SOL    HW2 1909   8.062   8.205   6.569  0.6138 -0.9647  1.2283
30062SOL     OW 1910   2.604   4.400   7.527 -0.2248  0.1816  0.2613
30062SOL    HW1 1911   2.569   4.419   7.440 -1.6038 -0.7602  0.5814
30062SOL    HW2 1912   2.612   4.305   7.529 -0.4955  0.1688  1.2699
30063SOL     OW 1913   6.232  11.387   2.933 -0.7866  0.7684  0.2699
30063SOL    HW1 1914   6.275  11.315   2.888  0.6674  0.9648  1.3012
30063SOL    HW2 1915   6.139  11.378   2.909 -0.4413 -0.6655 -0.6225
30064SOL     OW 1916   8.071  12.609   1.336 -0.6465  0.7439 -0.2974
30064SOL    HW1 1917   7.977  12.626   1.330 -0.6392  0.7041 -0.5377
30064SOL    HW2 1918   8.095  12.574   1.250 -0.2200  1.6570 -0.5656
30065SOL     OW 1919   7.420   9.191   8.564  0.1611 -0.0419 -0.0897
30065SOL    HW1 1920   7.505   9.234   8.571  0.4284 -0.7355  1.4882
30065SOL    HW2 1921   7.440   9.098   8.561 -0.5306 -0.2116  0.2779
30066SOL     OW 1922   3.606   4.647   1.557  0.3151 -0.2084  0.2983
30066SOL    HW1 1923   3.604   4.717   1.622 -1.7634 -0.6871  0.7895
30066SOL    HW2 1924   3.617   4.567   1.608  3.0650 -0.3080 -0.2840
30067SOL     OW 1925   0.547  11.210   8.444  0.3354  0.4276  0.2500
30067SOL    HW1 1926   0.561  11.275   8.375 -2.2054  1.1092  0.2458
30067SOL    HW2 1927   0.566  11.126   8.403 -1.5760  0.7773 -1.5216
30068SOL     OW 1928   4.243   7.740   1.661  0.2270 -0.6410 -0.5990
30068SOL    HW1 1929   4.191   7.672   1.618 -0.1447 -2.0243  1.9082
30068SOL    HW2 1930   4.180   7.792   1.710  1.0167 -1.7559  1.7148
30069SOL     OW 1931   2.099  10.644   0.980  0.0383  0.0847  0.8930
30069SOL    HW1 1932   2.153  10.715   1.016  0.6721 -0.5016  1.1254
30069SOL    HW2 1933   2.070  10.596   1.057 -0.9221  0.4603  0.7716
30070SOL     OW 1934  12.667   5.668  10.969 -0.2147  0.6044 -0.2756
30070SOL    HW1 1935  12.709   5.706  11.046 -2.1059 -0.7538  1.5139
30070SOL    HW2 1936  12.660   5.742  10.908 -0.1434  2.1527  1.4793
30071SOL     OW 1937   3.443   1.655   6.392 -0.3169  0.6512 -0.0936
30071SOL    HW1 1938   3.409   1.690   6.474 -1.6536  0.5106 -0.5657
30071SOL    HW2 1939   3.498   1.725   6.357 -1.0723  1.3798  0.1278
30072SOL     OW 1940  10.279   3.487   6.403 -0.1851  0.4575  0.5244
30072SOL    HW1 1941  10.258   3.549   6.332  0.6985 -1.1535 -1.2434
30072SOL    HW2 1942  10.195   3.467   6.443 -0.6644  1.6927  0.1896
30073SOL     OW 1943   3.752  11.952  12.070 -0.5447 -0.0592  0.5831
30073SOL    HW1 1944   3.678  11.916  12.119 -0.7098 -0.8366 -0.1986
30073SOL    HW2 1945   3.711  12.003  12.000 -0.3173  0.8488  1.1013
30074SOL     OW 1946   6.946  12.384   7.927 -0.0967  0.4045 -0.2341
30074SOL    HW1 1947   7.026  12.337   7.902 -0.2425 -0.2078  0.4146
30074SOL    HW2 1948   6.971  12.476   7.927  0.7290  0.1881  0.3889
30075SOL     OW 1949  12.552   8.878  10.362  0.3110 -0.2198 -0.6546
30075SOL    HW1 1950  12.619   8.810  10.365  1.4013  0.8711  0.6920
30075SOL    HW2 1951  12.513   8.879  10.449 -1.6960 -1.0082 -1.4801
30076SOL     OW 1952  10.227   2.089   6.719  0.2892  0.0065 -0.7928
30076SOL    HW1 1953  10.201   2.150   6.650 -0.3638 -0.8554 -1.3316
30076SOL    HW2 1954  10.207   2.003   6.683 -0.7368 -0.4336  0.7377
30077SOL     OW 1955  12.697   7.192   1.755 -0.2106  0.2646 -0.4158
30077SOL    HW1 1956  12.733   7.267   1.708  0.9495 -0.2552 -0.3920
30077SOL    HW2 1957  12.763   7.123   1.745  0.5374  0.3694  2.6814
30078SOL     OW 1958   9.746  11.108   4.340  0.1943 -0.3821  0.6274
30078SOL    HW1 1959   9.825  11.112   4.286 -0.1245 -0.2470  0.1658
30078SOL    HW2 1960   9.677  11.145   4.285 -0.1471 -0.2926  1.1087
30079SOL     OW 1961   8.082   2.600   1.779 -0.2998  0.5101 -0.1501
30079SOL    HW1 1962   7.987   2.599   1.776 -0.6387 -2.5803  3.7025
30079SOL    HW2 1963   8.105   2.689   1.807 -2.1665  0.8859  0.2684
30080SOL     OW 1964   8.264   1.321  13.378 -0.1561 -0.8427 -0.7397
30080SOL    HW1 1965   8.194   1.265  13.411 -0.6477  0.3281  0.2607
30080SOL    HW2 1966   8.330   1.260  13.345 -1.1661 -1.9775 -0.7233
30081SOL     OW 1967   0.163   4.584   4.679 -0.9877 -0.3567 -0.1489
30081SOL    HW1 1968   0.228   4.528   4.720 -0.0323  0.0139 -1.1166
30081SOL    HW2 1969   0.125   4.634   4.751  0.1435 -0.2297  0.3710
30082SOL     OW 1970   9.557   0.949  13.429 -0.2040  0.1836 -0.5790
30082SOL    HW1 1971   9.478   0.937  13.481 -0.4239 -0.7854 -1.1146
30082SOL    HW2 1972   9.539   1.026  13.376 -0.3022  0.6878  0.1667
30083SOL     OW 1973   3.294   5.588   8.000  0.2398  0.2716  0.1340
30083SOL    HW1 1974   3.243   5.636   8.065 -0.2143 -0.0946  0.0511
30083SOL    HW2 1975   3.275   5.496   8.017 -0.9244  0.2049 -1.3424
30084SOL     OW 1976  10.952   1.711  13.149 -0.7542 -0.1289  0.7257
30084SOL    HW1 1977  10.869   1.739  13.189 -1.1519 -0.1169 -0.0880
30084SOL    HW2 1978  10.940   1.728  13.056  0.6077  0.9378  0.7239
30085SOL     OW 1979   0.552   2.953   9.992 -0.7264 -0.3125  0.1388
30085SOL    HW1 1980   0.472   3.003  10.006 -0.9086 -0.7962  0.8714
30085SOL    HW2 1981   0.549   2.884  10.058  0.6137  0.0561  0.6125
30086SOL     OW 1982  10.441   7.259   1.046  0.0333 -0.8327  0.6112
30086SOL    HW1 1983  10.531   7.256   1.080  0.0897  1.0967  0.7034
30086SOL    HW2 1984  10.427   7.171   1.011  2.6431 -0.6984 -1.1050
30087SOL     OW 1985   2.582   7.324  11.989 -0.0844  0.2230  0.3357
30087SOL    HW1 1986   2.518   7.288  12.051 -0.5835  0.8311  0.1805
30087SOL    HW2 1987   2.595   7.414  12.016  0.8039  0.0759  0.4309
30088SOL     OW 1988   1.826  12.481   1.941 -0.1264 -0.1548  0.2858
30088SOL    HW1 1989   1.756  12.450   1.883  0.5495 -0.3160 -0.4581
30088SOL    HW2 1990   1.788  12.475   2.029  0.1766 -3.9168  0.3470
30089SOL     OW 1991   8.759   1.166   1.523  0.0245 -0.2911  0.2327
30089SOL    HW1 1992   8.777   1.135   1.611 -0.9271 -0.2063  0.4637
30089SOL    HW2 1993   8.824   1.235   1.508 -0.9108  0.9245  1.5369
30090SOL     OW 1994  10.511   9.582   5.999 -0.3440  0.2775 -0.2080
30090SOL    HW1 1995  10.598   9.616   5.981 -0.4100  0.2246 -0.6450
30090SOL    HW2 1996  10.466   9.653   6.043 -0.5826  0.8848 -1.3977
30091SOL     OW 1997   6.175   8.487   1.726  0.0701  0.5638 -0.4593
30091SOL    HW1 1998   6.253   8.533   1.695  1.5111 -1.8116 -0.5701
30091SOL    HW2 1999   6.201   8.448   1.809 -1.2187  0.2738 -0.1766
30092SOL     OW 2000  12.200   8.655   3.388 -0.1396 -0.1422 -0.2020
30092SOL    HW1 2001  12.129   8.648   3.325  0.7748 -0.0822 -1.2601
30092SOL    HW2 2002  12.158   8.686   3.469 -1.3184 -0.2286 -0.7721
30093SOL     OW 2003   5.427   7.624   8.341  0.1729 -0.0162  0.0383
30093SOL    HW1 2004   5.454   7.606   8.252  0.8131  0.0354  0.2193
30093SOL    HW2 2005   5.349   7.678   8.332 -0.3548 -0.8484 -0.4876
30094SOL     OW 2006   3.768   0.406   7.645  0.3633  0.0661 -0.5845
30094SOL    HW1 2007   3.805   0.438   7.563 -0.3662 -0.5533 -1.1747
30094SOL    HW2 2008   3.709   0.335   7.618  0.8778 -0.8229  0.5595
30095SOL     OW 2009   6.932   5.823   7.164  0.4541  0.0960  0.0053
30095SOL    HW1 2010   6.998   5.806   7.097 -0.8889 -2.4824 -0.8179
30095SOL    HW2 2011   6.850   5.796   7.124 -0.4569 -1.1259  2.4949
30096SOL     OW 2012  12.188   1.012   5.246 -0.3561  0.0676  0.6187
30096SOL    HW1 2013  12.146   0.934   5.210 -1.2974  0.9931 -0.3993
30096SOL    HW2 2014  12.225   1.056   5.169  1.4099 -0.0889  1.3512
30097SOL     OW 2015   1.245   8.070  11.307  0.2103 -0.1699 -0.3217
30097SOL    HW1 2016   1.195   8.075  11.226  0.1363 -1.8753 -0.4078
30097SOL    HW2 2017   1.227   7.983  11.342 -0.1903  0.7025  1.8349
30098SOL     OW 2018  11.635  10.493   0.513  0.3289 -0.9462  0.3625
30098SOL    HW1 2019  11.669  10.508   0.601 -1.3801  1.2187  0.7420
30098SOL    HW2 2020  11.629  10.580   0.474 -0.9725 -1.6317 -1.0890
30099SOL     OW 2021   9.939   4.945  11.399 -0.0309  0.4709 -0.2215
30099SOL    HW1 2022  10.003   4.978  11.336  1.8890 -1.9325  0.2861
30099SOL    HW2 2023   9.878   4.894  11.346  0.9273 -0.6170 -0.3218
30100SOL     OW 2024  12.577   5.210  12.589  0.7003  0.5129 -0.3208
30100SOL    HW1 2025  12.672   5.198  12.593  0.5832 -0.3540  2.5742
30100SOL    HW2 2026  12.559   5.280  12.651 -0.6895 -0.9924  1.0935
30101SOL     OW 2027   1.278   6.104   8.752 -0.6737 -0.0186 -0.1077
30101SOL    HW1 2028   1.268   6.180   8.809  0.9331  0.3095 -0.2171
30101SOL    HW2 2029   1.206   6.046   8.777  0.4958 -0.3262  2.9809
30102SOL     OW 2030   9.248   3.002   3.340  0.0086  0.3305 -0.0656
30102SOL    HW1 2031   9.238   3.026   3.432  1.4456  1.6209 -0.2039
30102SOL    HW2 2032   9.236   3.084   3.292  2.9799  0.5192 -0.7102
30103SOL     OW 2033   3.299   7.226  11.328  0.1710  0.2318  0.4522
30103SOL    HW1 2034   3.236   7.182  11.386  0.0281  1.5226  1.3071
30103SOL    HW2 2035   3.383   7.216  11.372  0.3709 -0.3593 -0.0459
30104SOL     OW 2036   3.778   5.913   5.829 -0.2155  0.1733  0.2928
30104SOL    HW1 2037   3.772   5.827   5.871 -1.1949  0.3585  0.5563
30104SOL    HW2 2038   3.757   5.976   5.898  0.2845  0.6138  0.0483
30105SOL     OW 2039   0.009  12.969  11.985  0.1590  0.2462  0.3286
30105SOL    HW1 2040   0.022  13.041  11.923  0.3586  0.1048  0.2055
30105SOL    HW2 2041  -0.086  12.958  11.989  0.1369  0.3826  0.1912
30106SOL     OW 2042   9.501   5.540  12.816 -0.3886  0.0991  0.0375
30106SOL    HW1 2043   9.407   5.556  12.815 -0.4050  0.0384  0.3069
30106SOL    HW2 2044   9.519   5.514  12.907 -0.0214  0.6847  0.1350
30107SOL     OW 2045  10.008   9.738   6.889 -0.3247 -0.0683  0.3389
30107SOL    HW1 2046   9.982   9.821   6.851 -0.8014 -0.5957 -0.5220
30107SOL    HW2 2047  10.094   9.720   6.851  0.3742  0.6519  1.5418
30108SOL     OW 2048  11.808   6.663   2.397 -0.0252  0.0051 -0.3363
30108SOL    HW1 2049  11.791   6.571   2.419 -0.1587 -0.0953 -0.8274
30108SOL    HW2 2050  11.895   6.680   2.433 -0.4109 -0.0110  0.6347
30109SOL     OW 2051   4.253  12.171   3.618  0.5565 -0.1680  0.3511
30109SOL    HW1 2052   4.203  12.108   3.566  2.0555 -1.2502  0.1836
30109SOL    HW2 2053   4.340  12.133   3.626  0.7380  0.5536  2.6255
30110SOL     OW 2054   3.317   7.961   6.218 -0.6652 -0.4785  0.2246
30110SOL    HW1 2055   3.408   7.970   6.249 -0.8038 -0.3207  0.5964
30110SOL    HW2 2056   3.264   7.967   6.298 -1.1862  2.2662 -0.2415
30111SOL     OW 2057   7.412   7.953   6.795  0.3313  0.1499  0.0805
30111SOL    HW1 2058   7.384   7.917   6.879  1.0621 -3.0371 -0.9144
30111SOL    HW2 2059   7.337   7.940   6.736  0.5957  0.3109 -0.2997
30112SOL     OW 2060  13.373   4.828   3.138 -0.0093  0.1920  0.0581
30112SOL    HW1 2061  13.299   4.872   3.179  0.1080  1.9712 -1.4611
30112SOL    HW2 2062  13.429   4.802   3.210 -1.0533  0.8171  1.1343
30113SOL     OW 2063   2.533   3.967   6.416  0.1148  0.1779 -0.1617
30113SOL    HW1 2064   2.553   4.052   6.377  0.8892  0.7222  1.3714
30113SOL    HW2 2065   2.442   3.951   6.393 -0.4973  2.1241  0.7440
30114SOL     OW 2066   4.771  12.486   2.370  0.0222  0.1343 -0.0323
30114SOL    HW1 2067   4.704  12.500   2.302  0.6761 -0.6129 -0.8567
30114SOL    HW2 2068   4.724  12.441   2.441 -0.8561  1.6568  0.3845
30115SOL     OW 2069  10.885   6.079   6.188 -0.0882  0.3138  0.0576
30115SOL    HW1 2070  10.936   6.066   6.108 -1.4407  1.3910 -1.0358
30115SOL    HW2 2071  10.938   6.038   6.257 -0.1502 -3.2118 -1.7504
30116SOL     OW 2072  13.273   6.487  10.474 -0.7548 -0.1110  0.4255
30116SOL    HW1 2073  13.252   6.406  10.428 -0.9126  0.1498  0.0258
30116SOL    HW2 2074  13.305   6.546  10.405  0.4885 -0.2184  0.8869
30117SOL     OW 2075   0.360   8.330   6.038  0.2869 -0.0927  0.3318
30117SOL    HW1 2076   0.416   8.404   6.015  0.0075 -0.2095 -0.7753
30117SOL    HW2 2077   0.370   8.321   6.133  1.3613  0.5080  0.2883
30118SOL     OW 2078   5.863   1.172   1.290 -0.2084 -0.1050  0.6527
30118SOL    HW1 2079   5.887   1.234   1.360  3.0011 -1.2781  0.7210
30118SOL    HW2 2080   5.821   1.227   1.223 -0.5084  1.5519  2.1241
30119SOL     OW 2081  12.845  10.883   7.391  0.6722 -0.2439 -0.5009
30119SOL    HW1 2082  12.813  10.803   7.349  0.7848 -0.5301 -0.0409
30119SOL    HW2 2083  12.765  10.929   7.416  0.6065 -0.2102 -0.7673
30120SOL     OW 2084  13.343   0.223   4.948 -0.4611 -0.1877  0.1737
30120SOL    HW1 2085  13.389   0.166   5.009 -1.2513 -0.5695  0.4288
30120SOL    HW2 2086  13.396   0.222   4.868 -0.3834 -1.1587  0.2304
30121SOL     OW 2087  10.794  10.668   9.095 -0.7333  0.0378  0.0889
30121SOL    HW1 2088  10.870  10.610   9.084  0.5688  1.4711  1.0737
30121SOL    HW2 2089  10.790  10.717   9.013 -1.5101 -1.0109 -0.5327
30122SOL     OW 2090  10.104  12.384  13.197 -0.6027 -0.0342 -0.4294
30122SOL    HW1 2091  10.166  12.453  13.174 -0.9217  0.0170 -1.1741
30122SOL    HW2 2092  10.139  12.305  13.155 -0.6971 -0.1471 -0.2996
30123SOL     OW 2093   1.263   4.665   2.509  0.0847 -0.2177  0.3712
30123SOL    HW1 2094   1.231   4.593   2.454  1.6795  0.0518 -0.9712
30123SOL    HW2 2095   1.264   4.628   2.597  3.1837 -2.7787 -0.5530
30124SOL     OW 2096   2.954   3.945  13.453  0.1275  0.5007 -0.0776
30124SOL    HW1 2097   3.049   3.959  13.463 -0.0336  2.3453 -0.7299
30124SOL    HW2 2098   2.940   3.951  13.358 -0.7594  1.1520  0.0898
30125SOL     OW 2099   8.691   9.260   3.402 -0.3805  0.1957  0.6202
30125SOL    HW1 2100   8.712   9.351   3.425 -0.6226  0.4536 -0.1635
30125SOL    HW2 2101   8.774   9.221   3.377  0.1673 -0.5158  3.2593
30126SOL     OW 2102   8.276   2.415   4.437 -0.2472  0.5307 -0.5500
30126SOL    HW1 2103   8.344   2.430   4.370  0.9492  1.3510  0.7856
30126SOL    HW2 2104   8.264   2.320   4.437  0.7229  0.3889 -0.9884
30127SOL     OW 2105   5.837  12.763   9.315  0.0425 -0.8023 -0.0918
30127SOL    HW1 2106   5.910  12.823   9.329 -1.0754  0.8635 -1.0767
30127SOL    HW2 2107   5.872  12.696   9.256  1.0391 -0.5829  0.2286
30128SOL     OW 2108  10.250  11.517  11.770 -0.2252 -0.2251 -0.1701
30128SOL    HW1 2109  10.229  11.555  11.855  0.2183  1.8240 -0.9166
30128SOL    HW2 2110  10.253  11.422  11.786 -0.2261  0.0943  2.0496
30129SOL     OW 2111   7.191  12.038   7.468 -0.9007 -0.0355  0.0981
30129SOL    HW1 2112   7.132  11.973   7.432  0.6759 -1.2341 -0.4240
30129SOL    HW2 2113   7.271  12.030   7.416  0.3736  0.2846  1.8973
30130SOL     OW 2114   3.779   2.506   9.936  0.5243 -0.5918  0.1292
30130SOL    HW1 2115   3.733   2.590   9.936 -0.5920 -1.1813  0.4057
30130SOL    HW2 2116   3.837   2.511  10.012  0.9030  0.1481 -0.1951
30131SOL     OW 2117   5.788  11.099   4.246  0.4131 -0.6102 -0.4487
30131SOL    HW1 2118   5.874  11.060   4.265  1.3101  0.6596 -1.6747
30131SOL    HW2 2119   5.774  11.079   4.153 -0.7745 -1.0621 -0.1811
30132SOL     OW 2120  11.500   8.037   5.206  0.8022 -1.1477  0.5374
30132SOL    HW1 2121  11.519   8.118   5.158  0.2934 -0.5365  1.3355
30132SOL    HW2 2122  11.412   8.051   5.242 -0.3107 -2.9993 -1.2506
30133SOL     OW 2123   2.591  12.438   4.203  0.1226 -0.2260  0.1207
30133SOL    HW1 2124   2.571  12.409   4.114  0.6397 -2.0020  0.5419
30133SOL    HW2 2125   2.681  12.409   4.218  0.5651  1.3722  0.7280
30134SOL     OW 2126   6.271   3.014  12.633  0.7332  0.3943 -0.3755
30134SOL    HW1 2127   6.291   3.033  12.724  2.6356 -2.6387 -0.0142
30134SOL    HW2 2128   6.193   2.957  12.637  1.6690 -0.9464 -0.4433
30135SOL     OW 2129   6.506   0.117   0.088  0.0241 -0.5055  0.5446
30135SOL    HW1 2130   6.535   0.042   0.035 -0.1250  0.4278 -0.9194
30135SOL    HW2 2131   6.415   0.131   0.062  0.4096  0.9327 -0.1562
30136SOL     OW 2132   9.520   2.342   6.104 -0.4305 -0.6491 -0.4021
30136SOL    HW1 2133   9.534   2.310   6.015  0.5425 -0.6223 -0.2620
30136SOL    HW2 2134   9.562   2.429   6.105  0.5857 -1.1302  0.4061
30137SOL     OW 2135   0.207   7.103  10.329  0.3201  0.5766 -0.4140
30137SOL    HW1 2136   0.157   7.184  10.333  1.1875  1.1292 -0.5612
30137SOL    HW2 2137   0.264   7.105  10.405  0.8668  0.4573 -0.8142
30138SOL     OW 2138   8.726   3.496   8.251  0.5822 -0.2676  0.1565
30138SOL    HW1 2139   8.794   3.507   8.184  1.0321 -0.7811  0.5217
30138SOL    HW2 2140   8.688   3.410   8.234  0.2091 -0.0998  0.1271
30139SOL     OW 2141   9.763  11.108  12.810 -0.1572  0.0925 -0.1305
30139SOL    HW1 2142   9.819  11.178  12.775 -0.8124  0.0687 -1.2827
30139SOL    HW2 2143   9.695  11.154  12.859  0.0877  0.1928  0.1177
30140SOL     OW 2144   1.975  13.549  12.237 -0.1322 -0.1995 -0.3235
30140SOL    HW1 2145   1.997  13.473  12.183 -0.1019  0.4206 -1.1819
30140SOL    HW2 2146   2.058  13.574  12.278  0.3984  0.8697 -1.9611
30141SOL     OW 2147   7.617   3.193  12.149  0.1538 -0.1550  0.0128
30141SOL    HW1 2148   7.545   3.181  12.087 -0.7907 -2.4623  1.3972
30141SOL    HW2 2149   7.577   3.240  12.222  0.1496 -1.0259  0.5811
30142SOL     OW 2150  10.039  13.345   3.353  0.1741  0.1266  0.3571
30142SOL    HW1 2151  10.051  13.434   3.319  1.6200 -0.2133 -0.1230
30142SOL    HW2 2152   9.967  13.352   3.414  1.1285  1.9286  1.3670
30143SOL     OW 2153   2.955  11.070  10.703  0.1299  0.1768 -0.1864
30143SOL    HW1 2154   2.880  11.114  10.662  0.0383  1.4665  1.2719
30143SOL    HW2 2155   2.925  10.980  10.715 -0.2366  0.0371 -1.8941
30144SOL     OW 2156  12.698   7.483  12.315 -0.6628  0.1108  0.5610
30144SOL    HW1 2157  12.608   7.454  12.326 -1.7503  1.0041 -4.0413
30144SOL    HW2 2158  12.737   7.418  12.256  1.3793  0.3951  1.5170
30145SOL     OW 2159   4.295   6.305  10.107 -0.5508  0.4825  0.0584
30145SOL    HW1 2160   4.317   6.394  10.079 -1.0335  0.7293  0.4678
30145SOL    HW2 2161   4.326   6.249  10.035 -0.2783  0.9819 -0.2132
30146SOL     OW 2162   7.550   8.515  10.374 -0.3185 -0.2983  0.1232
30146SOL    HW1 2163   7.519   8.562  10.296 -1.4734 -3.2770 -1.3474
30146SOL    HW2 2164   7.525   8.572  10.447 -0.3599  1.9879 -1.5453
30147SOL     OW 2165   0.229  12.904   8.422  0.3405 -0.3944  0.1903
30147SOL    HW1 2166   0.136  12.912   8.446 -0.0281 -2.1942 -0.4529
30147SOL    HW2 2167   0.277  12.923   8.502 -0.4699  2.4070  0.1033
30148SOL     OW 2168  11.121   3.507   0.347 -0.1503  0.1483  0.4345
30148SOL    HW1 2169  11.056   3.489   0.415 -0.6344  1.1954  0.2617
30148SOL    HW2 2170  11.072   3.505   0.265 -0.1129  1.5870  0.3516
30149SOL     OW 2171   6.259   6.252   7.747 -0.1738  0.1526  0.0151
30149SOL    HW1 2172   6.354   6.265   7.752  0.0277 -0.5137 -1.3753
30149SOL    HW2 2173   6.224   6.339   7.728  0.4014  0.0682 -1.6160
30150SOL     OW 2174   4.896   4.254  12.521  0.6806  0.2487  0.3258
30150SOL    HW1 2175   4.917   4.190  12.453  1.2362  0.1775  0.5646
30150SOL    HW2 2176   4.979   4.298  12.540  0.4642  0.4895  0.7326
30151SOL     OW 2177  10.701   9.716  10.924  0.1503 -0.0727 -0.1540
30151SOL    HW1 2178  10.746   9.705  11.007  0.0685 -0.9877 -0.2180
30151SOL    HW2 2179  10.623   9.766  10.945  0.0124 -0.4993  0.3619
30152SOL     OW 2180   9.109  12.861   1.353  0.6089  0.2503 -0.1852
30152SOL    HW1 2181   9.183  12.825   1.403 -0.2899 -0.3470  0.7585
30152SOL    HW2 2182   9.052  12.900   1.419  0.6676  1.8298 -1.0241
30153SOL     OW 2183   5.015   8.813  13.521  0.6941 -0.0434  0.3380
30153SOL    HW1 2184   4.925   8.838  13.503  0.9776  1.0797  0.3518
30153SOL    HW2 2185   5.062   8.830  13.439  1.3895  2.0404  1.1022
30154SOL     OW 2186   2.148   6.634  12.923 -0.0105 -0.4910  0.3940
30154SOL    HW1 2187   2.146   6.718  12.876 -1.1190 -1.1351 -0.7914
30154SOL    HW2 2188   2.068   6.634  12.976  0.1444 -0.6544  0.6267
30155SOL     OW 2189   8.835  13.164   2.733 -0.0460  0.4236 -0.3902
30155SOL    HW1 2190   8.793  13.200   2.811  1.4782  0.2717  0.5218
30155SOL    HW2 2191   8.919  13.131   2.763  0.2562 -0.3335 -1.9619
30156SOL     OW 2192  13.282   8.466   4.790 -0.2123 -0.2056  0.4647
30156SOL    HW1 2193  13.347   8.399   4.769  1.2154  1.4683 -0.8220
30156SOL    HW2 2194  13.326   8.523   4.854 -0.4839  0.7837 -0.1922
30157SOL     OW 2195  10.199   3.831   5.534  0.5338  0.0926 -0.0015
30157SOL    HW1 2196  10.275   3.851   5.588 -0.4044 -0.5108  1.6233
30157SOL    HW2 2197  10.130   3.888   5.569  0.1643  0.5001 -1.3256
30158SOL     OW 2198   9.595  11.203  12.329 -0.1673  0.1613 -0.9217
30158SOL    HW1 2199   9.578  11.274  12.267 -0.8780 -0.0975 -1.0324
30158SOL    HW2 2200   9.509  11.184  12.368  0.0539 -0.5063 -0.7476
30159SOL     OW 2201   2.197   1.245  12.880  0.3775  0.0460 -0.5245
30159SOL    HW1 2202   2.211   1.161  12.922  0.7421  0.5359  0.3652
30159SOL    HW2 2203   2.260   1.304  12.921 -1.1366  1.2053  0.2652
30160SOL     OW 2204   4.589   8.576   5.722  0.0957  0.2179  0.0728
30160SOL    HW1 2205   4.607   8.612   5.809  1.7807 -0.1365 -0.1085
30160SOL    HW2 2206   4.601   8.482   5.731  1.3317  0.2759 -0.7699
30161SOL     OW 2207   0.025  13.357   5.916  0.3744 -0.1467  0.4093
30161SOL    HW1 2208   0.073  13.304   5.980  0.7348 -1.1735 -0.6623
30161SOL    HW2 2209  -0.063  13.319   5.914  0.0617  0.5309  1.0137
30162SOL     OW 2210   9.780  12.171  12.734  0.2285  0.3996 -0.0221
30162SOL    HW1 2211   9.716  12.103  12.756  0.5064  0.4430  0.9696
30162SOL    HW2 2212   9.864  12.130  12.751  0.5528 -0.0156 -2.3217
30163SOL     OW 2213   5.530   8.356  12.544 -0.4792  0.3556 -0.2618
30163SOL    HW1 2214   5.467   8.406  12.491  0.0882 -0.0381 -1.3448
30163SOL    HW2 2215   5.530   8.400  12.629 -2.9671 -0.2225  0.1382
30164SOL     OW 2216  10.871   8.507   6.822  0.1044  0.3397 -0.0899
30164SOL    HW1 2217  10.936   8.526   6.754  0.7566  0.5957  0.5914
30164SOL    HW2 2218  10.918   8.522   6.904 -1.6864  3.7866  0.4741
30165SOL     OW 2219   4.305   6.454  10.795  0.0374  0.1499 -0.1175
30165SOL    HW1 2220   4.343   6.368  10.780 -0.8105 -0.2821  0.1344
30165SOL    HW2 2221   4.331   6.506  10.720  0.7068 -0.2750 -0.1820
30166SOL     OW 2222  13.174   2.389   0.113 -0.0258 -0.1348  0.3019
30166SOL    HW1 2223  13.119   2.371   0.037  0.1817 -0.2386  0.1762
30166SOL    HW2 2224  13.154   2.318   0.174  1.2500 -1.1693 -0.4432
30167SOL     OW 2225   5.248  11.864   4.582 -0.4118  0.1540 -1.1009
30167SOL    HW1 2226   5.273  11.952   4.609 -0.5714  0.6507 -2.5181
30167SOL    HW2 2227   5.317  11.808   4.617 -1.1826  0.5915  1.2834
30168SOL     OW 2228   5.184   8.152   7.855 -0.2853 -0.2629 -0.3207
30168SOL    HW1 2229   5.265   8.178   7.811 -0.1227 -0.0126  0.1258
30168SOL    HW2 2230   5.117   8.210   7.819  0.0239  0.6010  0.4563
30169SOL     OW 2231   3.356   6.284  10.921  0.3741  0.1198 -0.0497
30169SOL    HW1 2232   3.422   6.316  10.860  0.9570 -1.7090 -0.4455
30169SOL    HW2 2233   3.336   6.360  10.976  0.6699  1.5100 -1.7420
30170SOL     OW 2234   1.225  11.175   9.999  0.2888 -0.0885 -0.5435
30170SOL    HW1 2235   1.191  11.085  10.000 -0.4672  0.1098 -2.7691
30170SOL    HW2 2236   1.150  11.230  10.019  0.6377  0.0880  0.3096
30171SOL     OW 2237  11.724  10.267   5.407  0.0265 -0.2771  0.1653
30171SOL    HW1 2238  11.777  10.248   5.484  0.8023 -0.2035 -0.3337
30171SOL    HW2 2239  11.641  10.222   5.423  0.9465 -2.1125  0.0872
30172SOL     OW 2240   7.602  12.416   3.127  0.2628 -0.1866  0.8128
30172SOL    HW1 2241   7.646  12.478   3.070  0.3609  0.0542  1.1445
30172SOL    HW2 2242   7.523  12.391   3.080 -1.7212  2.9446  2.1517
30173SOL     OW 2243   4.751   5.105  10.107 -0.3595 -0.2717 -0.2192
30173SOL    HW1 2244   4.722   5.156  10.183  0.1817  1.3882 -1.0798
30173SOL    HW2 2245   4.685   5.123  10.040 -0.4886 -1.2220 -0.3651
30174SOL     OW 2246  11.073  11.376   6.387 -0.5006  0.0401  0.4318
30174SOL    HW1 2247  11.044  11.339   6.303 -0.9203  2.4493 -0.5779
30174SOL    HW2 2248  11.168  11.382   6.379 -0.5773  0.7509 -0.1428
30175SOL     OW 2249  12.594   5.457  11.630 -0.2334 -0.5107  0.0374
30175SOL    HW1 2250  12.668   5.441  11.688 -0.0279 -1.8522 -0.5699
30175SOL    HW2 2251  12.530   5.503  11.685  0.8134  0.1921  0.7111
30176SOL     OW 2252  12.705   9.721  10.791 -0.6140 -0.2259 -0.4420
30176SOL    HW1 2253  12.687   9.810  10.761 -0.4522 -0.2669 -0.6638
30176SOL    HW2 2254  12.639   9.704  10.859  0.1964  0.5566  0.5717
30177SOL     OW 2255  11.597  10.461   8.052  0.1613 -0.2885 -0.2549
30177SOL    HW1 2256  11.521  10.511   8.020 -0.4305 -0.4880  0.7835
30177SOL    HW2 2257  11.608  10.391   7.988  0.0259  0.2578 -0.8882
30178SOL     OW 2258   4.415   8.891   3.600 -0.4792  0.1867  0.2487
30178SOL    HW1 2259   4.388   8.983   3.608 -0.4863  0.3915 -1.5714
30178SOL    HW2 2260   4.348   8.842   3.647 -1.1277  1.0442  0.2590
30179SOL     OW 2261   8.312   3.412  11.093  0.3446 -0.0291  0.3672
30179SOL    HW1 2262   8.252   3.440  11.162  0.7423  0.7924  0.3964
30179SOL    HW2 2263   8.299   3.318  11.086 -0.7932  0.1054  0.5180
30180SOL     OW 2264   4.207   8.701  12.382  0.3676  0.8650 -0.1572
30180SOL    HW1 2265   4.195   8.756  12.459 -1.1922 -0.4222  0.5760
30180SOL    HW2 2266   4.158   8.621  12.401  2.0705 -0.5875 -1.3981
30181SOL     OW 2267   4.236   9.216   4.056 -0.1814 -0.6953  0.0522
30181SOL    HW1 2268   4.260   9.269   3.980  0.3402 -0.4957  0.3474
30181SOL    HW2 2269   4.178   9.272   4.107 -1.5510 -1.2853 -0.8078
30182SOL     OW 2270   7.240   7.948   5.878 -0.3046  0.0011  0.1244
30182SOL    HW1 2271   7.158   7.934   5.831  0.2837 -0.8311 -0.6981
30182SOL    HW2 2272   7.254   7.866   5.926 -0.0906  0.2444  0.4786
30183SOL     OW 2273  12.394  12.082   2.686 -0.1276 -0.1966 -0.3148
30183SOL    HW1 2274  12.484  12.114   2.683  0.5022 -1.5604  1.9594
30183SOL    HW2 2275  12.345  12.155   2.725 -0.0790  0.5946 -1.6679
30184SOL     OW 2276  10.998   8.299   6.136  0.8468 -0.2855 -0.1032
30184SOL    HW1 2277  10.953   8.226   6.093 -0.7016  1.0422 -0.8426
30184SOL    HW2 2278  10.975   8.291   6.229  2.0506 -1.6394  0.1226
30185SOL     OW 2279   9.927   0.093   6.951  0.6524  0.0478 -0.2755
30185SOL    HW1 2280   9.834   0.101   6.973  0.7105  0.0814 -0.0430
30185SOL    HW2 2281   9.969   0.070   7.033  0.8537  0.0567 -0.3768
30186SOL     OW 2282   0.958   0.380   7.999 -0.1145  0.2089 -0.6384
30186SOL    HW1 2283   0.915   0.465   7.994 -1.8551 -0.5644  0.3428
30186SOL    HW2 2284   0.887   0.318   8.011  1.3060 -1.0445  2.2433
30187SOL     OW 2285   8.568   0.001  13.711  0.3440  0.0202  0.6936
30187SOL    HW1 2286   8.575   0.035  13.622  3.0891 -0.9963  0.3910
30187SOL    HW2 2287   8.475  -0.017  13.723 -0.3528  1.8494 -1.2824
30188SOL     OW 2288  12.682  10.700  10.824  0.6367 -0.5191 -0.4969
30188SOL    HW1 2289  12.656  10.608  10.830  1.1648 -0.6495 -0.1803
30188SOL    HW2 2290  12.602  10.748  10.844  0.8267 -0.9214  1.4698
30189SOL     OW 2291   6.868   3.890   0.795  0.4406  0.1194  0.1376
30189SOL    HW1 2292   6.945   3.911   0.848  0.3086  1.0074 -0.0059
30189SOL    HW2 2293   6.888   3.805   0.757  2.0092  0.9575 -1.0598
30190SOL     OW 2294   6.338   2.015   5.842 -0.3410 -0.3339  0.2284
30190SOL    HW1 2295   6.363   2.105   5.823 -0.3977  0.0608  1.8793
30190SOL    HW2 2296   6.412   1.962   5.811  0.8203  0.4960  1.4981
30191SOL     OW 2297   2.799  12.487   7.238 -0.4514 -0.5019 -0.3524
30191SOL    HW1 2298   2.763  12.407   7.276 -0.9407  0.6709  1.8097
30191SOL    HW2 2299   2.799  12.550   7.310  0.1657  1.3858 -1.9158
30192SOL     OW 2300   9.900  10.126  10.541 -0.2247  0.5374  0.2607
30192SOL    HW1 2301   9.931  10.072  10.614 -1.1548  0.6771  0.7741
30192SOL    HW2 2302   9.958  10.202  10.541  0.4984 -0.0038  0.1268
30193SOL     OW 2303  13.673   2.248  13.251  0.0663 -0.7048 -0.4410
30193SOL    HW1 2304  13.750   2.281  13.204 -0.4778 -1.4290 -1.9307
30193SOL    HW2 2305  13.618   2.326  13.264  0.4417 -0.4074 -0.6054
30194SOL     OW 2306   3.131  13.494   3.711  0.4292 -0.3730  0.1311
30194SOL    HW1 2307   3.065  13.478   3.779  2.5926 -0.5181  2.3735
30194SOL    HW2 2308   3.191  13.557   3.751  1.8779 -0.5512 -1.6466
30195SOL     OW 2309  11.118   7.862  10.384  0.2884 -0.3252  0.1971
30195SOL    HW1 2310  11.042   7.822  10.427 -0.9255  1.8632  0.2354
30195SOL    HW2 2311  11.137   7.939  10.438  1.0373  0.4633 -1.1510
30196SOL     OW 2312   2.750   1.661   0.866 -0.6063 -0.5055 -0.2495
30196SOL    HW1 2313   2.787   1.747   0.883 -1.1401 -0.4439  0.6701
30196SOL    HW2 2314   2.766   1.611   0.946 -2.6108 -0.4138  0.2596
30197SOL     OW 2315   7.215   7.899   6.575 -0.3989 -0.7463  0.2533
30197SOL    HW1 2316   7.169   7.980   6.555 -2.3728 -1.6643  0.7398
30197SOL    HW2 2317   7.266   7.879   6.497  0.9984  1.4748  0.5226
30198SOL     OW 2318   2.258  11.820   0.741  0.1070 -0.5566 -0.3559
30198SOL    HW1 2319   2.338  11.775   0.767  0.9172  1.2291  0.4369
30198SOL    HW2 2320   2.243  11.793   0.651  2.7898  0.6040 -1.2330
30199SOL     OW 2321  11.150   5.278   2.225 -0.2935 -0.0333  0.2258
30199SOL    HW1 2322  11.076   5.235   2.269  0.1035  0.1856  1.1420
30199SOL    HW2 2323  11.227   5.233   2.260 -0.0008 -0.7015 -1.2062
30200SOL     OW 2324   2.041   1.934  11.772  0.1966 -0.1654 -0.4024
30200SOL    HW1 2325   2.040   1.927  11.867  2.8523 -0.8912 -0.3577
30200SOL    HW2 2326   1.963   1.886  11.744 -0.5003 -0.1391  1.3709
30201SOL     OW 2327  12.118   3.778   2.300  0.3652  0.5009  0.2448
30201SOL    HW1 2328  12.095   3.732   2.381 -0.8925  2.0660  0.8115
30201SOL    HW2 2329  12.209   3.751   2.284  0.8799  0.6225  2.5104
30202SOL     OW 2330   4.873   6.879   7.865 -0.2683  0.4878  0.1976
30202SOL    HW1 2331   4.861   6.867   7.959 -0.4073 -1.5945 -0.0507
30202SOL    HW2 2332   4.802   6.830   7.825  1.0191 -0.4483 -1.0203
30203SOL     OW 2333   2.748   8.077   6.690 -0.5129  0.1897 -0.0372
30203SOL    HW1 2334   2.833   8.039   6.711 -0.9106 -2.3000 -2.3515
30203SOL    HW2 2335   2.759   8.116   6.603 -1.4016  1.1124  0.2351
30204SOL     OW 2336   5.542   2.893   7.671 -0.0479 -0.4834 -0.4379
30204SOL    HW1 2337   5.595   2.823   7.712  0.9020 -1.0790 -2.5525
30204SOL    HW2 2338   5.501   2.850   7.596 -1.1556  0.7553 -0.5621
30205SOL     OW 2339   2.735   7.068   4.484 -0.1277  0.1050  0.3410
30205SOL    HW1 2340   2.714   7.078   4.577  1.2574  0.2382  0.6679
30205SOL    HW2 2341   2.685   7.137   4.441 -1.1351 -0.2410  0.9243
30206SOL     OW 2342  13.638   9.477   9.578  0.2694  0.0530 -0.0955
30206SOL    HW1 2343  13.590   9.422   9.640  0.9740 -0.3172  0.1430
30206SOL    HW2 2344  13.695   9.416   9.532  0.1878  0.4186 -0.6821
30207SOL     OW 2345   8.034   2.789   6.742 -0.3319  0.1415  0.2258
30207SOL    HW1 2346   8.066   2.711   6.787 -1.3366 -0.7059 -0.4847
30207SOL    HW2 2347   8.114   2.835   6.713  0.2902  0.0401  1.7198
30208SOL     OW 2348   2.341   3.494   0.748  0.1458 -0.3586  0.5002
30208SOL    HW1 2349   2.368   3.440   0.674 -0.0456 -1.5299  1.2563
30208SOL    HW2 2350   2.351   3.584   0.717 -0.4122 -0.8157 -1.1210
30209SOL     OW 2351   1.988   6.476   1.995 -0.7295  0.5683  0.7092
30209SOL    HW1 2352   2.076   6.512   1.985 -1.0065  1.1029  0.0738
30209SOL    HW2 2353   1.981   6.455   2.088  1.0992 -2.1816  0.3514
30210SOL     OW 2354   2.534   4.156   0.911  0.0896  0.2307  0.1742
30210SOL    HW1 2355   2.606   4.134   0.970  0.3064 -0.8530 -0.4706
30210SOL    HW2 2356   2.570   4.143   0.823 -0.0118  2.4785 -0.2594
30211SOL     OW 2357   2.959   8.307   4.201  0.2508  0.3168  0.5525
30211SOL    HW1 2358   3.019   8.349   4.263  0.5065 -2.1202  2.0675
30211SOL    HW2 2359   2.899   8.257   4.255 -2.8763  2.1339 -0.9482
30212SOL     OW 2360   1.043   2.335   1.422  0.7504 -0.0172  0.1338
30212SOL    HW1 2361   0.972   2.394   1.447  1.0771  0.0726  0.8848
30212SOL    HW2 2362   1.037   2.328   1.327 -0.1325  0.1503  0.1736
30213SOL     OW 2363  10.878   7.512  10.229  0.6791 -0.5771  0.1659
30213SOL    HW1 2364  10.969   7.514  10.198  0.9970  3.8663  0.7249
30213SOL    HW2 2365  10.886   7.515  10.324  0.0256  0.1147  0.2089
30214SOL     OW 2366   4.450   3.170   9.065  0.1671  0.0483  0.1190
30214SOL    HW1 2367   4.510   3.155   8.992  1.2885 -2.1133  1.4059
30214SOL    HW2 2368   4.456   3.091   9.118 -1.3972  1.1271  2.0267
30215SOL     OW 2369   6.450   9.146  12.668 -0.4317  0.3524 -0.2576
30215SOL    HW1 2370   6.438   9.240  12.655 -1.3687  0.3435  0.4582
30215SOL    HW2 2371   6.543   9.136  12.688  0.2273  0.8197 -2.7792
30216SOL     OW 2372   7.790  10.460   1.258  0.5309  0.4805 -0.0187
30216SOL    HW1 2373   7.875  10.479   1.299  0.3869 -0.7077  0.8666
30216SOL    HW2 2374   7.757  10.385   1.305 -0.3660  0.0152 -1.3369
30217SOL     OW 2375   0.483   0.086   5.993  0.0517 -0.1031 -0.1006
30217SOL    HW1 2376   0.552   0.120   5.936 -1.2733  0.5376 -1.3912
30217SOL    HW2 2377   0.525   0.078   6.079  1.7957 -0.0104 -0.8927
30218SOL     OW 2378   4.929  11.174   5.090  0.6996  0.8148  0.0064
30218SOL    HW1 2379   4.837  11.184   5.112  0.4821 -1.0286  0.1042
30218SOL    HW2 2380   4.976  11.205   5.168  0.0660 -0.8616  1.1047
30219SOL     OW 2381  10.647  13.275   4.099 -0.1397 -0.2038 -0.5006
30219SOL    HW1 2382  10.659  13.184   4.128  1.5563  0.0832 -0.2222
30219SOL    HW2 2383  10.679  13.328   4.172  1.6704  0.5628 -1.7822
30220SOL     OW 2384   4.895   6.039  10.451 -0.0881 -0.0637  0.1371
30220SOL    HW1 2385   4.920   6.129  10.429  1.9891 -0.7407 -0.5341
30220SOL    HW2 2386   4.836   6.013  10.380 -0.1110  0.5174 -0.0649
30221SOL     OW 2387  13.069   9.629  13.257  0.6129  0.1062  0.2277
30221SOL    HW1 2388  13.000   9.609  13.321 -0.8854  0.7469 -1.1203
30221SOL    HW2 2389  13.144   9.577  13.286 -1.7685 -4.4491 -0.7761
30222SOL     OW 2390  11.973  12.507   7.300 -0.0095  0.5960 -0.2392
30222SOL    HW1 2391  12.059  12.494   7.261  0.5510 -0.7619  1.3546
30222SOL    HW2 2392  11.973  12.452   7.378 -1.9829  1.3109  0.3260
30223SOL     OW 2393  10.916   6.404  10.795 -0.3988 -0.3665  0.0757
30223SOL    HW1 2394  10.851   6.442  10.736 -1.7183 -1.1558  0.9691
30223SOL    HW2 2395  10.884   6.426  10.882  0.8249 -0.3468  0.5410
30224SOL     OW 2396  10.114   6.561  10.879 -0.1817 -0.1949 -0.0719
30224SOL    HW1 2397  10.207   6.564  10.856  0.2800 -2.0768  1.3244
30224SOL    HW2 2398  10.093   6.468  10.883 -1.3268  0.1044  2.6631
30225SOL     OW 2399   8.856   6.745   5.780  0.5224  0.2509 -0.0077
30225SOL    HW1 2400   8.788   6.782   5.835  1.4981 -1.2417  2.3687
30225SOL    HW2 2401   8.867   6.655   5.812  1.9279 -0.3343 -1.9292
30226SOL     OW 2402   2.640  10.492   0.004  0.1219  0.6213 -0.0991
30226SOL    HW1 2403   2.615  10.577   0.041 -0.1644 -0.4203  2.3021
30226SOL    HW2 2404   2.733  10.485   0.022  0.2431  0.6070 -0.7189
30227SOL     OW 2405  12.357   3.722   7.874  0.1809  0.0622  0.2079
30227SOL    HW1 2406  12.275   3.751   7.834  0.3823  1.3912  0.7133
30227SOL    HW2 2407  12.410   3.692   7.800 -0.3787  0.1400 -0.2352
30228SOL     OW 2408   6.139   2.169   8.034  0.5239  0.2545  0.2826
30228SOL    HW1 2409   6.190   2.156   8.114 -1.0054  0.7223  1.3890
30228SOL    HW2 2410   6.164   2.097   7.977  1.2344 -0.4183  1.4110
30229SOL     OW 2411  10.636   8.336   9.980  0.7333  0.2255 -0.1560
30229SOL    HW1 2412  10.588   8.296  10.053  2.0234  1.0571  1.2198
30229SOL    HW2 2413  10.621   8.278   9.906 -0.2413 -0.9198  0.8990
30230SOL     OW 2414  10.209   0.190   5.627  0.3794 -1.0299  0.1795
30230SOL    HW1 2415  10.158   0.210   5.549  0.4950  1.2053  0.6243
30230SOL    HW2 2416  10.144   0.174   5.695  0.1958  1.0681  0.5623
30231SOL     OW 2417  11.170   6.739   0.799 -0.0647 -1.0443  0.0726
30231SOL    HW1 2418  11.211   6.797   0.735 -1.4548  0.4854  0.5303
30231SOL    HW2 2419  11.130   6.669   0.747  0.5277 -0.9139 -0.5640
30232SOL     OW 2420   2.286   3.583   2.017  0.5997 -0.4140  0.1586
30232SOL    HW1 2421   2.220   3.538   1.965  1.8326 -1.6980 -0.3475
30232SOL    HW2 2422   2.366   3.532   2.004  1.1223 -0.4050  2.7796
30233SOL     OW 2423  13.613   7.959  12.875 -0.3334  0.2258  0.2521
30233SOL    HW1 2424  13.661   7.944  12.794 -0.5529  0.0128  0.1634
30233SOL    HW2 2425  13.676   8.003  12.932 -0.6915  2.0249 -0.6517
30234SOL     OW 2426   1.490   1.205   6.405 -0.0822  0.3442 -0.2374
30234SOL    HW1 2427   1.515   1.211   6.497 -1.3134  1.2407  0.0675
30234SOL    HW2 2428   1.557   1.149   6.366 -0.3207 -1.2200  1.4802
30235SOL     OW 2429  13.473   3.585  11.661 -0.1100 -0.4750 -0.5576
30235SOL    HW1 2430  13.548   3.620  11.710 -1.2303 -0.5772  1.3267
30235SOL    HW2 2431  13.511   3.513  11.609  1.7819  1.9077 -2.7333
30236SOL     OW 2432   7.539   8.690   9.561  0.5328  0.2601 -0.6658
30236SOL    HW1 2433   7.470   8.623   9.572 -0.2238  0.9747 -0.9524
30236SOL    HW2 2434   7.546   8.731   9.648  0.6071  0.1825 -0.6344
30237SOL     OW 2435   4.461  10.012   2.802 -0.1479  0.0842  0.1182
30237SOL    HW1 2436   4.401  10.059   2.860  0.2530  0.9613 -0.1522
30237SOL    HW2 2437   4.547  10.048   2.823  0.0369  0.2087 -0.8244
30238SOL     OW 2438   7.750   9.758   8.394 -0.0864  0.5923  0.1413
30238SOL    HW1 2439   7.742   9.774   8.300  0.1181  1.3636  0.2416
30238SOL    HW2 2440   7.675   9.803   8.433  0.5879  1.4822  0.4543
30239SOL     OW 2441   0.952   8.505   1.962 -0.1028 -0.2047  0.6558
30239SOL    HW1 2442   0.969   8.442   1.892  0.8707  0.3296  0.3968
30239SOL    HW2 2443   0.869   8.545   1.938  0.6857  0.6814 -0.7530
30240SOL     OW 2444  11.954   9.745   9.205 -0.1954  1.0219 -0.3819
30240SOL    HW1 2445  11.931   9.830   9.240  0.0771  1.4184 -1.1356
30240SOL    HW2 2446  12.023   9.763   9.141 -0.6136  0.3179 -1.0489
30241SOL     OW 2447  13.580   7.886   9.795  0.8561 -0.2755  0.1609
30241SOL    HW1 2448  13.590   7.795   9.768  0.0391 -0.8098  1.5188
30241SOL    HW2 2449  13.667   7.924   9.786  1.4049 -1.4433  0.4163
30242SOL     OW 2450   2.996   7.858   4.155 -0.0991 -0.2549 -0.1305
30242SOL    HW1 2451   3.037   7.847   4.242 -1.2459  0.7854  0.5630
30242SOL    HW2 2452   3.037   7.937   4.120 -1.3438  0.6879  0.4913
30243SOL     OW 2453   5.838   7.385  11.673  0.2910  0.2264  0.0253
30243SOL    HW1 2454   5.842   7.303  11.624  0.5674 -1.8805  3.2149
30243SOL    HW2 2455   5.792   7.362  11.754  3.4883  2.2047  2.6962
30244SOL     OW 2456   2.467   6.214   4.731 -0.2305 -0.4444 -0.3451
30244SOL    HW1 2457   2.471   6.224   4.636  0.0927 -0.9832 -0.3907
30244SOL    HW2 2458   2.556   6.236   4.761  0.1087 -1.7472 -0.3181
30245SOL     OW 2459   7.961  12.989  12.291  0.2139 -0.0414 -0.2460
30245SOL    HW1 2460   7.954  12.925  12.221  2.4405  0.0197 -0.5928
30245SOL    HW2 2461   8.051  13.023  12.285  0.5296 -0.0658  2.6324
30246SOL     OW 2462   9.906   8.954  11.478  0.0412 -0.0690  0.1064
30246SOL    HW1 2463   9.898   8.993  11.565  1.3088  0.3660  0.0470
30246SOL    HW2 2464   9.867   9.019  11.419  0.2547  0.1728  0.2289
30247SOL     OW 2465   7.689   0.471  12.156  0.3695 -0.4124  0.0195
30247SOL    HW1 2466   7.597   0.456  12.179  0.2410  0.1015 -0.1305
30247SOL    HW2 2467   7.694   0.449  12.063  0.1937  0.4025 -0.1861
30248SOL     OW 2468  11.831   5.181   3.661  0.0456 -0.0391 -0.3332
30248SOL    HW1 2469  11.904   5.197   3.720  0.1430  0.1942 -0.5131
30248SOL    HW2 2470  11.803   5.269   3.634  0.0690 -0.1468 -0.7098
30249SOL     OW 2471   0.610   5.416   4.933  0.4387 -0.2302 -0.0360
30249SOL    HW1 2472   0.614   5.322   4.946 -0.1686 -0.3020 -0.3203
30249SOL    HW2 2473   0.564   5.428   4.850 -1.3853  0.3288  0.9773
30250SOL     OW 2474  12.779   2.556   6.567 -0.2724  0.3633  0.1532
30250SOL    HW1 2475  12.727   2.526   6.493 -1.0887 -0.5266  1.0545
30250SOL    HW2 2476  12.742   2.642   6.589  0.0505  0.6828 -0.5339
30251SOL     OW 2477   4.017  13.652  12.080  0.0589  0.3672  0.0378
30251SOL    HW1 2478   3.926  13.679  12.089 -0.3341 -0.9506  0.2992
30251SOL    HW2 2479   4.059  13.678  12.162 -0.1023  0.8749 -0.0384
30252SOL     OW 2480  10.806  12.048   6.283  0.8317 -0.0892 -0.2057
30252SOL    HW1 2481  10.812  11.953   6.289 -1.5497 -0.2699  0.1957
30252SOL    HW2 2482  10.838  12.079   6.368 -0.4749 -0.6838  0.5231
30253SOL     OW 2483   5.318   2.174   8.886  0.4115 -0.3845  0.0182
30253SOL    HW1 2484   5.394   2.217   8.924 -0.6577  0.2850  1.4862
30253SOL    HW2 2485   5.341   2.081   8.884 -0.4855 -1.0665  5.3488
30254SOL     OW 2486   5.968   1.217   3.618  0.3672  0.1786 -0.0481
30254SOL    HW1 2487   5.929   1.224   3.704 -0.2870  2.2415 -0.4662
30254SOL    HW2 2488   6.059   1.246   3.630  0.8301 -1.3123  0.2624
30255SOL     OW 2489   1.560   6.394  13.237  0.5471 -0.1429  0.5814
30255SOL    HW1 2490   1.488   6.338  13.263  0.0072  1.0292  1.7503
30255SOL    HW2 2491   1.638   6.339  13.244  0.0328 -0.7483  1.6857
30256SOL     OW 2492  11.446   1.500  12.210  0.8200 -0.3402  0.0482
30256SOL    HW1 2493  11.501   1.431  12.247  2.2166  0.6261 -0.1287
30256SOL    HW2 2494  11.497   1.580  12.223 -0.0986  0.4564 -1.0590
30257SOL     OW 2495  12.790   4.077   2.288 -0.6887  0.4469 -0.5804
30257SOL    HW1 2496  12.712   4.024   2.298 -0.6931  0.2432 -1.5610
30257SOL    HW2 2497  12.862   4.014   2.283 -0.5706  0.5826 -0.6339
30258SOL     OW 2498   4.507  11.286   3.099 -0.6164 -0.0419  0.5927
30258SOL    HW1 2499   4.474  11.196   3.093 -1.2452  0.0476  2.1335
30258SOL    HW2 2500   4.457  11.335   3.034  0.4982 -0.9759 -1.0456
30259SOL     OW 2501   7.036  10.310  12.154  0.4219 -0.1037  0.7289
30259SOL    HW1 2502   7.000  10.387  12.109  2.7850  1.7792  1.7656
30259SOL    HW2 2503   6.967  10.281  12.213 -0.5188  1.3086  0.3641
30260SOL     OW 2504   7.041   1.846   7.943  0.9677 -0.4841  0.2814
30260SOL    HW1 2505   7.055   1.758   7.909  0.9234 -0.4338  0.1323
30260SOL    HW2 2506   6.982   1.834   8.018  0.4334 -0.5156 -0.1351
30261SOL     OW 2507   0.666   7.619   9.885 -0.0637  0.0514 -0.5129
30261SOL    HW1 2508   0.722   7.554   9.840  0.0087  1.4138 -2.5389
30261SOL    HW2 2509   0.676   7.598   9.978 -0.4751 -3.1853 -1.0585
30262SOL     OW 2510   5.252  10.385   2.739  0.2065 -0.2773  0.0571
30262SOL    HW1 2511   5.343  10.378   2.711  0.6075  1.2994  0.8578
30262SOL    HW2 2512   5.215  10.454   2.684 -0.7428 -1.3755 -0.7474
30263SOL     OW 2513   4.056  10.771   0.968 -0.1761  0.0602  0.3630
30263SOL    HW1 2514   4.090  10.730   1.048  0.9967  0.2909  0.0003
30263SOL    HW2 2515   4.065  10.865   0.983 -1.2732  0.1595  0.5063
30264SOL     OW 2516  11.402   6.046  13.352  0.4501 -0.0158 -0.0581
30264SOL    HW1 2517  11.336   6.108  13.322  1.1261 -0.0888 -1.8378
30264SOL    HW2 2518  11.466   6.099  13.399 -0.9952  0.0035  2.0467
30265SOL     OW 2519   0.513  12.573   7.858  0.4145  0.4731 -0.0794
30265SOL    HW1 2520   0.572  12.644   7.831 -0.2989  0.7190 -1.0468
30265SOL    HW2 2521   0.427  12.614   7.861 -0.1853 -0.5845 -1.7447
30266SOL     OW 2522   0.352  10.854  13.013  0.0524  0.4580  0.4420
30266SOL    HW1 2523   0.444  10.837  12.995 -0.0573 -1.3537  1.3726
30266SOL    HW2 2524   0.348  10.870  13.108 -0.5858  0.5290  0.4108
30267SOL     OW 2525   7.874   9.456   5.856  0.0738  0.2380  0.5795
30267SOL    HW1 2526   7.941   9.494   5.913  0.3249  1.1742 -0.2981
30267SOL    HW2 2527   7.806   9.523   5.852  0.6375  0.7722 -1.2051
30268SOL     OW 2528   3.711   1.983   1.669 -0.2285 -0.0339 -0.1221
30268SOL    HW1 2529   3.617   1.988   1.690 -0.4857 -2.8637 -0.1828
30268SOL    HW2 2530   3.752   1.956   1.751  0.4710  0.5434 -0.2703
30269SOL     OW 2531  13.618  11.353   1.752 -0.0322 -0.1374  0.3551
30269SOL    HW1 2532  13.699  11.355   1.804 -1.2918  1.1496  2.4032
30269SOL    HW2 2533  13.642  11.395   1.670  1.0016  1.9872  1.6369
30270SOL     OW 2534  13.635  12.419  12.993  0.2106  0.2621  0.3462
30270SOL    HW1 2535  13.595  12.387  13.073  1.4247 -0.8233  0.5466
30270SOL    HW2 2536  13.727  12.435  13.016  0.7743 -0.8341 -0.9993
30271SOL     OW 2537  12.681   8.529   2.220 -0.6446  0.2525  0.1200
30271SOL    HW1 2538  12.735   8.592   2.173 -0.0343 -1.4551 -1.5895
30271SOL    HW2 2539  12.666   8.570   2.306  1.1029  1.9468 -0.3029
30272SOL     OW 2540   6.306   8.243   6.342 -0.1958 -0.2915 -0.0735
30272SOL    HW1 2541   6.274   8.195   6.417 -0.2891 -0.8023 -0.4380
30272SOL    HW2 2542   6.238   8.233   6.275 -0.4292  0.7168 -0.0081
30273SOL     OW 2543   3.361   3.945  12.753  0.3279 -0.0909 -0.4284
30273SOL    HW1 2544   3.398   4.018  12.703  1.2466 -1.7119 -2.2122
30273SOL    HW2 2545   3.436   3.903  12.794 -0.1527 -0.3090  0.2394
30274SOL     OW 2546   1.901   4.041   3.013  0.0069 -0.3880  0.2574
30274SOL    HW1 2547   1.959   3.977   2.972  0.4671  0.5025 -0.5230
30274SOL    HW2 2548   1.911   4.025   3.107 -0.5534 -2.0146  0.0674
30275SOL     OW 2549  12.252  11.573   7.505  0.1054 -0.3101  0.5008
30275SOL    HW1 2550  12.173  11.588   7.452 -0.8511 -0.7641  1.7558
30275SOL    HW2 2551  12.221  11.525   7.582  1.4713  0.3206  1.4874
30276SOL     OW 2552  11.764   2.625   1.780  0.6286 -0.6346  0.4208
30276SOL    HW1 2553  11.807   2.540   1.780  1.1523 -0.4211  2.1895
30276SOL    HW2 2554  11.820   2.680   1.836  0.3357  0.8959 -0.7147
30277SOL     OW 2555   5.219   9.866  12.625 -0.8693  0.4565 -0.1330
30277SOL    HW1 2556   5.293   9.921  12.649 -0.9723 -0.0047  1.3775
30277SOL    HW2 2557   5.148   9.927  12.605 -0.5260  0.8796 -0.0690
30278SOL     OW 2558   7.041   9.206   2.483 -0.4048 -0.1084  0.0714
30278SOL    HW1 2559   7.022   9.299   2.497  0.6788 -0.1054  2.0438
30278SOL    HW2 2560   7.030   9.167   2.570 -0.3594 -1.7300 -0.6273
30279SOL     OW 2561  11.288  12.915   9.885 -0.5032  0.1776 -0.1376
30279SOL    HW1 2562  11.288  12.844   9.949  0.4967  0.7447  0.5264
30279SOL    HW2 2563  11.200  12.953   9.891 -1.4305 -1.6759 -1.3132
30280SOL     OW 2564   7.575   1.571  12.636 -0.1290  0.1017 -0.0736
30280SOL    HW1 2565   7.563   1.570  12.731 -0.8485  1.5082 -0.1232
30280SOL    HW2 2566   7.670   1.562  12.624  0.0578  0.6978  0.8142
30281SOL     OW 2567   9.802  12.708   6.802 -0.1759  0.1901  0.2657
30281SOL    HW1 2568   9.819  12.789   6.849 -3.7777  1.1114  0.2273
30281SOL    HW2 2569   9.777  12.645   6.870  2.3195 -0.9280  0.2645
30282SOL     OW 2570   0.841  11.211   9.419  0.4708 -0.0504 -0.4168
30282SOL    HW1 2571   0.921  11.265   9.419  0.6106 -0.2047 -2.3465
30282SOL    HW2 2572   0.871  11.125   9.450  1.1163 -0.1504 -1.2683
30283SOL     OW 2573  13.367  12.242   3.095 -0.4796 -0.0612 -0.2351
30283SOL    HW1 2574  13.330  12.171   3.043  0.1806 -0.8395  0.3265
30283SOL    HW2 2575  13.423  12.198   3.159  0.0358  0.9788  0.0499
30284SOL     OW 2576   1.228  10.564  13.452  0.0695 -0.2420  0.5729
30284SOL    HW1 2577   1.314  10.522  13.448  0.6101  0.7633 -3.3020
30284SOL    HW2 2578   1.182  10.530  13.375 -1.6068  1.9162  0.5354
30285SOL     OW 2579   7.683  12.259  12.423 -0.5137  0.0513 -0.2790
30285SOL    HW1 2580   7.599  12.274  12.380  0.4452  0.9625 -1.9398
30285SOL    HW2 2581   7.704  12.343  12.464 -0.9846 -0.5464  1.2498
30286SOL     OW 2582  12.815   9.950  10.390 -0.1964  0.1233 -0.4680
30286SOL    HW1 2583  12.839   9.976  10.480  2.1598  0.1409 -1.0321
30286SOL    HW2 2584  12.745  10.010  10.366  1.0186  2.0059  0.4206
30287SOL     OW 2585   1.658   4.987   9.318 -0.3198  0.2587  0.0187
30287SOL    HW1 2586   1.600   4.964   9.245 -0.1403  0.9022 -0.3445
30287SOL    HW2 2587   1.731   5.034   9.276  0.0709  0.1373  0.5512
30288SOL     OW 2588   9.092   8.964   5.320  0.0572  0.2401 -0.2740
30288SOL    HW1 2589   9.088   9.059   5.304  0.9813  0.7380  1.9657
30288SOL    HW2 2590   9.011   8.944   5.367 -1.2361 -0.5960 -2.7206
30289SOL     OW 2591   1.876   8.096  10.595  0.2785  0.0780 -0.2415
30289SOL    HW1 2592   1.967   8.070  10.578 -0.6100 -2.3032 -1.8392
30289SOL    HW2 2593   1.852   8.047  10.673  0.0797 -0.0584 -0.3883
30290SOL     OW 2594  10.323   9.946  12.764  0.2498  0.0170  0.4161
30290SOL    HW1 2595  10.256  10.013  12.776 -0.9256 -0.2199 -3.4332
30290SOL    HW2 2596  10.405   9.991  12.781 -0.6425  1.7269  0.3793
30291SOL     OW 2597   4.951  12.290  12.848 -0.1969 -0.2207 -0.2836
30291SOL    HW1 2598   4.871  12.282  12.795  0.0682 -1.6028 -0.4972
30291SOL    HW2 2599   5.008  12.220  12.817  1.3255  1.0531 -0.4823
30292SOL     OW 2600   3.810   5.325   0.022 -0.0954  0.2267 -0.0176
30292SOL    HW1 2601   3.757   5.246   0.036  1.5857 -0.9356  0.0041
30292SOL    HW2 2602   3.898   5.292   0.004  1.2609  2.1048  2.5732
30293SOL     OW 2603   8.006   2.740   7.017  0.1582 -0.2853  0.0981
30293SOL    HW1 2604   7.990   2.651   7.046 -1.6961 -0.6534 -1.7838
30293SOL    HW2 2605   8.074   2.732   6.950 -1.4571 -0.6877 -1.6031
30294SOL     OW 2606  10.301   9.122   4.443  0.5227  0.0502 -0.5239
30294SOL    HW1 2607  10.254   9.097   4.522  0.3606 -0.7975 -0.8751
30294SOL    HW2 2608  10.340   9.207   4.464 -1.0014  0.7041 -0.1499
30295SOL     OW 2609   9.809   1.998   9.287  0.5221  0.1759 -0.7677
30295SOL    HW1 2610   9.844   2.023   9.373 -1.4417 -1.6166  0.6505
30295SOL    HW2 2611   9.779   2.080   9.249 -0.0497  0.8336  0.9963
30296SOL     OW 2612   3.005  11.475   3.702  0.4128 -0.1651 -0.0347
30296SOL    HW1 2613   2.988  11.458   3.795  1.5344  1.3923  0.4911
30296SOL    HW2 2614   3.101  11.472   3.694  0.3532  0.1720 -1.0519
30297SOL     OW 2615   6.268   9.675   1.609  0.0778  0.2442 -0.4767
30297SOL    HW1 2616   6.359   9.703   1.618  1.0127 -1.9634 -2.1422
30297SOL    HW2 2617   6.234   9.727   1.536  0.2563  0.4578 -0.4115
30298SOL     OW 2618  10.166   3.888   3.198  0.5094  0.2773 -0.2586
30298SOL    HW1 2619  10.223   3.812   3.208  1.0542  0.8871  1.7888
30298SOL    HW2 2620  10.097   3.859   3.138  1.7379 -1.1838 -1.0231
30299SOL     OW 2621   1.887   3.061   4.581  0.0228 -0.0531  0.3647
30299SOL    HW1 2622   1.808   3.104   4.550  1.2403  1.4481 -0.7793
30299SOL    HW2 2623   1.863   2.968   4.588 -1.5015  0.2046 -1.0202
30300SOL     OW 2624  13.044  10.857   9.298 -0.2664 -0.2259 -0.4069
30300SOL    HW1 2625  13.039  10.787   9.233 -0.1664 -0.5092 -0.1127
30300SOL    HW2 2626  13.018  10.815   9.380  1.4539 -0.3675  0.1082
30301SOL     OW 2627   4.093   9.041  11.087 -0.3254 -0.3110  0.6306
30301SOL    HW1 2628   4.035   9.116  11.069  2.4005  2.0538  0.9397
30301SOL    HW2 2629   4.097   9.037  11.183 -0.8695 -1.2459  0.6240
30302SOL     OW 2630   3.415   6.049   3.357  0.2673 -0.5087  0.2016
30302SOL    HW1 2631   3.391   6.136   3.327  1.8459  0.2008  0.8947
30302SOL    HW2 2632   3.340   5.994   3.336 -0.3096  0.7927 -1.2414
30303SOL     OW 2633  10.512   2.329  12.619 -0.2827 -0.7138 -0.5077
30303SOL    HW1 2634  10.595   2.368  12.592 -0.3592  0.1738  0.4788
30303SOL    HW2 2635  10.537   2.254  12.673 -0.0709  0.5944  1.2813
30304SOL     OW 2636  11.880   5.661   3.661  0.0677 -0.1235 -0.4328
30304SOL    HW1 2637  11.815   5.597   3.632 -1.0161 -0.1234  1.7599
30304SOL    HW2 2638  11.939   5.611   3.717  0.0758  0.4743  0.1071
30305SOL     OW 2639   4.430  11.662   7.700  0.3336 -0.0002 -0.5811
30305SOL    HW1 2640   4.387  11.722   7.761 -0.1502 -1.2122  0.3084
30305SOL    HW2 2641   4.410  11.696   7.613  0.1140  1.1382 -0.0918
30306SOL     OW 2642  12.743   8.745  11.284  0.1875 -0.1973 -0.3647
30306SOL    HW1 2643  12.748   8.815  11.218 -1.0931  0.4025  0.1392
30306SOL    HW2 2644  12.830   8.745  11.324  0.4661  0.5661 -0.9271
30307SOL     OW 2645   4.807   4.336   8.776  0.1141  0.1112 -0.4798
30307SOL    HW1 2646   4.838   4.354   8.864 -1.0490 -0.2001  0.0048
30307SOL    HW2 2647   4.787   4.243   8.775  0.6772 -0.0192 -1.2629
30308SOL     OW 2648  13.421  11.935  11.061 -0.3206  0.0748 -0.8135
30308SOL    HW1 2649  13.383  11.872  11.123 -0.6800  1.6166  0.6095
30308SOL    HW2 2650  13.348  11.993  11.039  0.0048  0.0104 -2.1089
30309SOL     OW 2651   7.260   2.170  10.773 -0.1946  0.1586  0.1643
30309SOL    HW1 2652   7.280   2.090  10.821  0.1172 -0.0149 -0.2461
30309SOL    HW2 2653   7.199   2.142  10.705  0.5662  0.0977 -0.5128
30310SOL     OW 2654   0.848   5.170   9.104  0.4221  0.1820 -0.2787
30310SOL    HW1 2655   0.829   5.094   9.050  1.1008  1.7604 -2.9345
30310SOL    HW2 2656   0.763   5.196   9.141 -0.0188 -1.0819 -0.3691
30311SOL     OW 2657   0.666   5.381   6.623  0.1524 -0.3392 -0.5850
30311SOL    HW1 2658   0.655   5.471   6.652  0.8743  0.1797 -1.8378
30311SOL    HW2 2659   0.755   5.358   6.650  1.6362  0.8356 -3.8676
30312SOL     OW 2660   2.056   0.786   5.838  0.2564  0.3293 -0.2021
30312SOL    HW1 2661   2.113   0.851   5.879 -0.6282  0.2768  1.1536
30312SOL    HW2 2662   2.117   0.728   5.791  1.3203  0.4009  1.0260
30313SOL     OW 2663   3.779  12.688  10.716 -0.0753 -0.0025 -0.0315
30313SOL    HW1 2664   3.839  12.711  10.787 -1.4089 -1.2120  1.5903
30313SOL    HW2 2665   3.836  12.671  10.641  1.6085 -0.8845  1.3602
30314SOL     OW 2666   5.861   7.140  11.542  0.5573 -0.0621 -0.1187
30314SOL    HW1 2667   5.770   7.131  11.511  0.4343  0.8335 -0.0586
30314SOL    HW2 2668   5.914   7.121  11.465  0.3367 -0.9732 -0.0578
30315SOL     OW 2669   4.517   6.231  13.010 -1.2578 -0.3019  0.5947
30315SOL    HW1 2670   4.422   6.224  13.004 -1.5495  2.0783  1.3589
30315SOL    HW2 2671   4.535   6.240  13.103 -0.6100  1.9406  0.3296
30316SOL     OW 2672   0.439  13.738   1.468  0.3185  0.3396 -0.0748
30316SOL    HW1 2673   0.452  13.671   1.401 -0.5931 -0.2283  0.2860
30316SOL    HW2 2674   0.345  13.731   1.489  0.7974 -0.2722  2.0585
30317SOL     OW 2675   3.708  12.804   6.507 -0.4164  0.2475 -0.8870
30317SOL    HW1 2676   3.628  12.813   6.454 -1.6959  0.5642  0.9989
30317SOL    HW2 2677   3.701  12.718   6.547  0.5550 -0.0029 -1.2364
30318SOL     OW 2678   3.490  11.918   0.613 -0.0707 -0.2842  0.1191
30318SOL    HW1 2679   3.440  11.992   0.579  0.1595 -0.3650 -0.4099
30318SOL    HW2 2680   3.482  11.925   0.708  1.3575  1.4300  0.1591
30319SOL     OW 2681   7.588   8.313  11.195  0.3571 -0.4757  0.5593
30319SOL    HW1 2682   7.662   8.372  11.180 -0.5966  0.7213  0.3494
30319SOL    HW2 2683   7.601   8.278  11.283  2.3825 -2.1265 -0.3283
30320SOL     OW 2684   0.939  12.352  11.314  0.2198 -0.0045  0.2774
30320SOL    HW1 2685   0.944  12.329  11.221  0.0147 -0.7488  0.4404
30320SOL    HW2 2686   0.911  12.271  11.356 -0.5983  0.5789  0.8853
30321SOL     OW 2687  12.906   0.489   9.379  0.0480  0.0061  0.4020
30321SOL    HW1 2688  12.971   0.456   9.441 -1.7805 -0.1856  2.3238
30321SOL    HW2 2689  12.949   0.564   9.338  2.6163 -1.9719 -0.7701
30322SOL     OW 2690   6.341   6.017   8.678 -0.9621 -0.0406 -0.7634
30322SOL    HW1 2691   6.325   5.948   8.742  0.1758  0.1009 -0.3122
30322SOL    HW2 2692   6.316   6.098   8.723  3.0115  0.4818  0.8638
30323SOL     OW 2693   2.908   3.461   7.421 -0.0297 -0.0239 -0.3356
30323SOL    HW1 2694   2.925   3.555   7.423  3.0108 -0.4864  0.4597
30323SOL    HW2 2695   2.858   3.443   7.501 -0.2231  0.8203 -0.2596
30324SOL     OW 2696   7.629   4.295  13.204  0.3047 -0.3074 -0.3713
30324SOL    HW1 2697   7.576   4.272  13.280 -0.4878  1.0572 -0.4768
30324SOL    HW2 2698   7.588   4.246  13.132  0.1240 -0.4302 -0.1881
30325SOL     OW 2699   3.439  11.187   0.522  0.4155  0.2982 -0.3774
30325SOL    HW1 2700   3.379  11.154   0.589  2.0275 -0.4684  0.7566
30325SOL    HW2 2701   3.512  11.125   0.523  1.3219  1.3006 -1.5797
30326SOL     OW 2702   1.983  13.457   9.411  0.1686 -0.1819  0.1349
30326SOL    HW1 2703   1.952  13.494   9.329 -1.4272 -1.1097  0.2784
30326SOL    HW2 2704   1.919  13.487   9.476  1.1096  0.1002  0.9512
30327SOL     OW 2705   9.433   4.392   1.113 -0.4833  0.1177  0.1821
30327SOL    HW1 2706   9.357   4.426   1.160 -0.8355  0.1332 -0.3838
30327SOL    HW2 2707   9.443   4.452   1.038  0.2219  0.2449  0.3718
30328SOL     OW 2708   5.672  13.059   5.986  0.1712  0.3386 -0.3350
30328SOL    HW1 2709   5.617  13.132   5.959  1.0979  1.3369  0.3831
30328SOL    HW2 2710   5.626  12.981   5.954 -0.5839  1.2498 -1.5609
30329SOL     OW 2711   4.522  12.235  12.304  0.2052  0.6285 -0.3289
30329SOL    HW1 2712   4.437  12.241  12.347  0.7111  1.1579  0.6348
30329SOL    HW2 2713   4.581  12.287  12.359  1.3841 -0.5762 -0.4110
30330SOL     OW 2714   5.007  12.971   1.438  0.1629  0.0747 -0.2633
30330SOL    HW1 2715   5.084  13.028   1.436 -0.9792  1.7392  0.4337
30330SOL    HW2 2716   4.988  12.960   1.531  0.1326 -1.1767 -0.4010
30331SOL     OW 2717   7.925   1.578   4.023  0.0954 -0.2758  0.3764
30331SOL    HW1 2718   7.942   1.487   3.999  0.5516  0.0371 -0.5098
30331SOL    HW2 2719   7.934   1.580   4.118  1.8640 -0.7923  0.2435
30332SOL     OW 2720   7.293   3.343  10.171  0.0195 -0.0671  0.2260
30332SOL    HW1 2721   7.220   3.331  10.231  0.2727  2.3768  1.1107
30332SOL    HW2 2722   7.371   3.319  10.222 -0.0290 -2.2765 -0.5935
30333SOL     OW 2723  12.666   6.069  10.404  0.1588 -0.5450  0.0411
30333SOL    HW1 2724  12.658   6.164  10.417  2.3298 -0.4354  0.9919
30333SOL    HW2 2725  12.607   6.031  10.469  0.2972  0.1532  0.5874
30334SOL     OW 2726   2.884   1.426   9.344  0.3682  0.5279  0.2114
30334SOL    HW1 2727   2.885   1.359   9.412 -0.6475  1.3829  1.0981
30334SOL    HW2 2728   2.895   1.377   9.262  2.7259 -0.4224  1.0085
30335SOL     OW 2729   4.807   0.560   7.808  0.1224  0.0897  0.5027
30335SOL    HW1 2730   4.846   0.630   7.860  3.5784 -0.8859 -0.5332
30335SOL    HW2 2731   4.860   0.482   7.829 -1.2873 -1.3749 -1.0638
30336SOL     OW 2732   6.804   9.953  11.359 -0.5725  0.4908 -0.2867
30336SOL    HW1 2733   6.895   9.925  11.366 -0.9420 -0.6341  0.1476
30336SOL    HW2 2734   6.754   9.889  11.410 -1.4486  2.0025  0.8587
30337SOL     OW 2735   2.729   1.353   4.328 -0.6340 -0.8262 -0.1228
30337SOL    HW1 2736   2.704   1.345   4.236  1.4416  0.1123 -0.8500
30337SOL    HW2 2737   2.810   1.405   4.326 -0.5644 -0.7237  2.2464
30338SOL     OW 2738   1.300  11.860   6.787  0.0363  0.0984  0.4615
30338SOL    HW1 2739   1.224  11.860   6.729 -1.4324  0.4376  2.2870
30338SOL    HW2 2740   1.375  11.867   6.728 -1.4193  1.6905 -1.3359
30339SOL     OW 2741   4.185   4.724   1.321  0.4124 -0.6838 -0.0335
30339SOL    HW1 2742   4.202   4.664   1.394 -1.7264 -1.6882 -0.2631
30339SOL    HW2 2743   4.090   4.738   1.325  0.7828  2.5292 -0.1537
30340SOL     OW 2744   6.002   3.536  11.663 -0.5800 -0.2502 -0.3235
30340SOL    HW1 2745   6.032   3.463  11.610 -1.0673  0.1248 -1.1337
30340SOL    HW2 2746   6.006   3.503  11.753 -0.3626 -1.1171 -0.6393
30341SOL     OW 2747  13.569   3.057  12.733 -0.0386 -0.4524 -0.2541
30341SOL    HW1 2748  13.539   3.027  12.819  0.1515  1.7797  0.6715
30341SOL    HW2 2749  13.656   3.095  12.749 -0.5972  1.3183 -1.0825
30342SOL     OW 2750   2.499   0.522   1.611  0.0354  0.4210 -0.3795
30342SOL    HW1 2751   2.439   0.471   1.666  1.8463 -2.4434 -0.8728
30342SOL    HW2 2752   2.452   0.533   1.528 -0.1963 -1.0367 -0.4685
30343SOL     OW 2753  11.667  12.367   1.354 -0.0421  0.1925 -0.3179
30343SOL    HW1 2754  11.687  12.402   1.441  1.1692 -3.0332  0.8582
30343SOL    HW2 2755  11.741  12.393   1.299 -0.1889  1.1576 -0.0766
30344SOL     OW 2756   1.669  11.634   2.479  0.3874  0.0446  0.5545
30344SOL    HW1 2757   1.580  11.610   2.453  1.3052 -1.7816 -1.2807
30344SOL    HW2 2758   1.662  11.723   2.513 -2.1501 -0.1440  0.7006
30345SOL     OW 2759  13.740   6.784   4.830 -0.5156 -0.2134 -0.3546
30345SOL    HW1 2760  13.835   6.790   4.821 -0.2388 -1.2992  1.3965
30345SOL    HW2 2761  13.721   6.833   4.911 -1.5300  0.4469 -0.9736
30346SOL     OW 2762  10.027   6.158  10.153 -0.7001  0.1340 -0.0504
30346SOL    HW1 2763  10.017   6.223  10.223  0.3520  0.6266 -0.3374
30346SOL    HW2 2764  10.058   6.208  10.078  0.4388 -0.7400 -0.1883
30347SOL     OW 2765  13.542   7.140   7.070  0.4542  0.7808  0.5475
30347SOL    HW1 2766  13.542   7.089   6.989  0.3944  0.6775  0.6122
30347SOL    HW2 2767  13.484   7.092   7.128 -1.1226  1.9072 -0.0176
30348SOL     OW 2768   8.864  13.355   0.647 -0.2801 -0.2298  0.8773
30348SOL    HW1 2769   8.900  13.441   0.625  1.2922 -1.1171 -0.2280
30348SOL    HW2 2770   8.775  13.357   0.612 -0.2373  0.9322  0.8157
30349SOL     OW 2771   8.902   6.958  13.567 -0.2952  0.3107  0.5433
30349SOL    HW1 2772   8.996   6.960  13.583  0.0447  1.6194 -1.2521
30349SOL    HW2 2773   8.868   7.032  13.616 -0.2807  0.2691  0.6163
30350SOL     OW 2774  13.291   6.450   8.272 -0.2367 -0.4069  0.0576
30350SOL    HW1 2775  13.309   6.544   8.270 -1.1137 -0.2116  0.8132
30350SOL    HW2 2776  13.196   6.444   8.280 -0.0958 -1.3115  1.4870
30351SOL     OW 2777  10.916   7.224  13.088  0.3054  0.1247 -0.0100
30351SOL    HW1 2778  10.948   7.266  13.168  1.6201 -0.4611 -0.2063
30351SOL    HW2 2779  10.870   7.146  13.120  0.3995  0.1525  0.2002
30352SOL     OW 2780   8.105   7.287   9.792 -0.0019 -0.2821  0.1553
30352SOL    HW1 2781   8.090   7.256   9.703 -1.1041 -0.3542  0.3518
30352SOL    HW2 2782   8.098   7.382   9.787 -0.0739 -0.2869  0.1585
30353SOL     OW 2783   9.186   5.350   2.319  0.0938  0.0008  0.2679
30353SOL    HW1 2784   9.197   5.258   2.297 -0.4845  0.0923 -0.4660
30353SOL    HW2 2785   9.199   5.355   2.413  2.4057 -0.4732  0.0375
30354SOL     OW 2786  11.872   9.103   0.849 -0.2446  0.2736 -0.1908
30354SOL    HW1 2787  11.872   9.008   0.864  1.6098  0.1305 -0.7833
30354SOL    HW2 2788  11.963   9.124   0.830 -0.1862  2.5808  2.1656
30355SOL     OW 2789   9.656   6.617   3.577 -0.3630  0.1523  0.6988
30355SOL    HW1 2790   9.621   6.683   3.637 -0.2091  0.8589  0.0334
30355SOL    HW2 2791   9.682   6.667   3.499 -0.1019 -0.6770  0.2400
30356SOL     OW 2792  10.225  11.903   1.075 -0.4687 -0.3907 -0.2637
30356SOL    HW1 2793  10.304  11.855   1.051  1.1949  2.7445 -1.6908
30356SOL    HW2 2794  10.155  11.857   1.030  0.7077 -2.4013 -0.1879
30357SOL     OW 2795   1.406   9.420   6.479 -0.4463  0.2116 -0.2396
30357SOL    HW1 2796   1.468   9.452   6.544 -1.7518  1.5454  0.4002
30357SOL    HW2 2797   1.442   9.449   6.395  0.3594 -0.0158  0.0143
30358SOL     OW 2798   4.270   9.079   6.031 -0.0848 -0.5689 -0.5319
30358SOL    HW1 2799   4.231   9.113   5.951 -0.0627  0.7480 -0.0155
30358SOL    HW2 2800   4.354   9.043   6.004 -0.5004 -1.0217 -1.2463
30359SOL     OW 2801   7.238   6.750   1.090  1.0383  0.0062 -0.1337
30359SOL    HW1 2802   7.259   6.657   1.098  2.1514 -0.1101 -3.1863
30359SOL    HW2 2803   7.321   6.795   1.106  0.8333  0.3833 -0.1234
30360SOL     OW 2804   3.596  12.357   3.632 -0.0498 -0.5526 -0.0829
30360SOL    HW1 2805   3.513  12.359   3.678  0.0511 -0.4784  0.0993
30360SOL    HW2 2806   3.580  12.405   3.550 -0.2757 -0.8415 -0.2068
30361SOL     OW 2807  13.543   8.360   1.259  0.5043  0.0563 -0.0817
30361SOL    HW1 2808  13.452   8.330   1.259  0.7157 -0.6696 -1.5658
30361SOL    HW2 2809  13.559   8.389   1.169  1.2816  1.6586  0.5356
30362SOL     OW 2810   3.468   7.623   7.774  0.1373 -0.1272  0.0897
30362SOL    HW1 2811   3.402   7.563   7.739  0.8111  0.2063 -1.8904
30362SOL    HW2 2812   3.541   7.567   7.800 -0.7040 -0.4562  1.8644
30363SOL     OW 2813  10.286   7.884   6.264  0.5163  0.2231  0.5136
30363SOL    HW1 2814  10.376   7.904   6.290  0.2188  0.4495  1.4351
30363SOL    HW2 2815  10.268   7.944   6.192  1.5728 -0.8278 -0.6612
30364SOL     OW 2816   4.236  12.059   1.068  0.2375  0.6447 -0.0172
30364SOL    HW1 2817   4.215  12.124   1.134  1.1435  1.3637 -0.4109
30364SOL    HW2 2818   4.193  12.091   0.988  1.4382  1.2812 -0.4371
30365SOL     OW 2819   8.538   7.350   3.269  0.4177  0.6570  0.4911
30365SOL    HW1 2820   8.596   7.276   3.254  0.6648  1.2152 -1.6689
30365SOL    HW2 2821   8.451   7.311   3.278  0.4093  0.1000 -1.5282
30366SOL     OW 2822   1.640   1.833  11.749  0.8763  0.0269  0.0105
30366SOL    HW1 2823   1.702   1.820  11.678 -0.3948  1.1970 -1.3813
30366SOL    HW2 2824   1.692   1.872  11.820  2.0119 -0.4711 -0.5241
30367SOL     OW 2825   9.192   3.272  10.726 -0.2447  0.8616 -0.2151
30367SOL    HW1 2826   9.192   3.330  10.802 -1.9762 -1.2141  1.5179
30367SOL    HW2 2827   9.107   3.287  10.685 -1.1373 -1.0309  0.8240
30368SOL     OW 2828   2.592   4.385   6.893  0.7050 -0.5323 -0.3497
30368SOL    HW1 2829   2.614   4.476   6.872  1.7593 -0.6633  0.1219
30368SOL    HW2 2830   2.593   4.340   6.809  1.0938 -0.2914 -0.4759
30369SOL     OW 2831  10.613  12.797  12.146  0.3871  0.2113 -0.1110
30369SOL    HW1 2832  10.661  12.879  12.139  0.2894  0.2294 -0.6653
30369SOL    HW2 2833  10.594  12.773  12.055 -2.4758  1.2794  0.0751
30370SOL     OW 2834   0.683  10.619   7.825 -0.0139  0.3604 -0.2137
30370SOL    HW1 2835   0.606  10.584   7.780  1.0706 -0.6731 -1.3220
30370SOL    HW2 2836   0.711  10.693   7.770  1.7165 -1.3216 -1.7279
30371SOL     OW 2837   9.474   5.897   8.414  0.3342  0.1069 -0.0806
30371SOL    HW1 2838   9.460   5.970   8.475 -0.0335  1.4054 -1.6622
30371SOL    HW2 2839   9.550   5.851   8.449 -0.8103 -0.1660  2.2315
30372SOL     OW 2840   2.219   7.475   6.676 -0.3069 -0.2635  0.9030
30372SOL    HW1 2841   2.235   7.390   6.633 -0.3312  0.7451 -1.2517
30372SOL    HW2 2842   2.135   7.463   6.721 -0.7944 -1.1197 -0.1830
30373SOL     OW 2843   4.767   0.546   8.170 -0.2242 -0.1422 -0.2568
30373SOL    HW1 2844   4.849   0.520   8.211 -0.5056 -1.5606 -0.5452
30373SOL    HW2 2845   4.705   0.553   8.243 -0.0225  0.2742 -0.1197
30374SOL     OW 2846  12.757   9.573   9.127  0.5970 -0.0483 -0.6119
30374SOL    HW1 2847  12.757   9.666   9.106 -0.1941 -0.2238 -1.4873
30374SOL    HW2 2848  12.847   9.554   9.153  0.5084  1.1974  0.7638
30375SOL     OW 2849   0.886   3.633   1.816 -0.2156  0.0152  0.3609
30375SOL    HW1 2850   0.836   3.714   1.806 -2.5774 -1.4733 -0.7791
30375SOL    HW2 2851   0.940   3.647   1.894 -0.7905  2.5208  0.3834
30376SOL     OW 2852  13.160   5.177  13.486 -0.0954 -0.3631  0.0660
30376SOL    HW1 2853  13.115   5.108  13.438  0.3728 -2.6682  2.6804
30376SOL    HW2 2854  13.217   5.218  13.421 -1.1491 -1.7555 -1.8278
30377SOL     OW 2855   5.910   6.887   4.670 -0.1367  0.1621  0.8967
30377SOL    HW1 2856   5.875   6.952   4.730  0.5070 -0.5389  2.0655
30377SOL    HW2 2857   5.933   6.813   4.726 -0.4427 -0.8992 -0.3466
30378SOL     OW 2858  11.993   4.535   5.172 -0.1917  0.2204  0.5263
30378SOL    HW1 2859  11.969   4.626   5.190  0.5318  0.4894  0.1907
30378SOL    HW2 2860  11.910   4.491   5.155 -0.5353  0.8608  0.5078
30379SOL     OW 2861  10.075   0.195   4.093 -0.2123 -0.2998  0.2780
30379SOL    HW1 2862  10.108   0.284   4.083  0.7025 -0.5820  0.6848
30379SOL    HW2 2863  10.096   0.152   4.010  0.7537 -0.5690  0.6527
30380SOL     OW 2864   5.488   0.040   4.762  0.0241  0.0646 -0.0967
30380SOL    HW1 2865   5.486  -0.051   4.793 -1.1995  0.3996  0.9008
30380SOL    HW2 2866   5.489   0.033   4.667  0.8153 -0.9860 -0.0364
30381SOL     OW 2867  13.099   8.249  12.010  0.5031  0.6067 -0.0933
30381SOL    HW1 2868  13.015   8.206  11.995 -0.2231  1.2039  1.9402
30381SOL    HW2 2869  13.163   8.178  12.011 -0.3374 -0.1616  0.8391
30382SOL     OW 2870   9.048  11.104  10.038  0.4028 -0.1259 -0.4348
30382SOL    HW1 2871   8.958  11.082  10.061  0.3993 -0.0974 -0.4219
30382SOL    HW2 2872   9.095  11.021  10.042  0.3512 -0.1609 -0.5629
30383SOL     OW 2873  11.761   5.702   8.704 -0.2335  0.1113  0.5025
30383SOL    HW1 2874  11.755   5.797   8.691  0.9009  0.4275  1.9844
30383SOL    HW2 2875  11.722   5.688   8.790 -1.4844 -0.9615 -0.2004
30384SOL     OW 2876   8.545   1.641  10.304 -0.2733  0.1576  0.5281
30384SOL    HW1 2877   8.616   1.646  10.368 -1.0860 -0.1188  1.4591
30384SOL    HW2 2878   8.503   1.726  10.306 -0.0655  0.2795  0.0631
30385SOL     OW 2879   5.221   1.668   6.883  0.4199 -0.3081 -0.1575
30385SOL    HW1 2880   5.272   1.654   6.963  0.1189  2.1820  0.5414
30385SOL    HW2 2881   5.242   1.757   6.857 -1.0720 -0.3776 -1.7237
30386SOL     OW 2882   2.818   3.878   6.613  0.5106  0.3647 -0.5766
30386SOL    HW1 2883   2.767   3.800   6.637  3.5876 -1.4486  0.5980
30386SOL    HW2 2884   2.827   3.872   6.518  1.8320 -1.5424 -0.3748
30387SOL     OW 2885   5.148   1.619   3.569  0.4025  0.2844  0.5372
30387SOL    HW1 2886   5.201   1.699   3.562  0.0789  0.3591 -3.2216
30387SOL    HW2 2887   5.196   1.554   3.518 -0.7277 -1.1097  1.1897
30388SOL     OW 2888   7.844   7.742  11.686 -0.0763 -0.4649 -0.7382
30388SOL    HW1 2889   7.900   7.726  11.762 -0.2342  0.1799 -0.4838
30388SOL    HW2 2890   7.776   7.801  11.718  0.2315  0.3325 -1.5453
30389SOL     OW 2891   1.435  13.433   9.023  0.3825 -0.0500  0.1568
30389SOL    HW1 2892   1.503  13.366   9.031 -0.1280 -0.4200  1.5707
30389SOL    HW2 2893   1.355  13.384   9.006  0.4046  0.3802 -1.4053
30390SOL     OW 2894  11.149  11.791   3.248 -0.2599 -0.1862 -0.5777
30390SOL    HW1 2895  11.167  11.701   3.275 -0.4314 -0.4367 -1.2876
30390SOL    HW2 2896  11.053  11.795   3.241 -0.6338  1.1041  3.0715
30391SOL     OW 2897   0.546   0.106   6.771 -0.5886 -0.0904 -0.3782
30391SOL    HW1 2898   0.556   0.036   6.835  0.6303  1.5485  1.3189
30391SOL    HW2 2899   0.624   0.102   6.717  0.5261  1.1648  1.0446
30392SOL     OW 2900  12.377  13.037   5.703 -0.5843  0.4668  0.4568
30392SOL    HW1 2901  12.338  13.027   5.617  2.3083 -0.7291 -0.8465
30392SOL    HW2 2902  12.411  13.126   5.704  0.4110  0.1085 -0.1556
30393SOL     OW 2903  11.286  12.468   0.155 -0.2660 -0.3268  0.5812
30393SOL    HW1 2904  11.315  12.385   0.194 -0.4760 -0.0404  1.3400
30393SOL    HW2 2905  11.212  12.443   0.099  0.9383 -0.9612 -0.8192
30394SOL     OW 2906  12.709  11.014   4.431 -0.0023 -0.1057  0.2294
30394SOL    HW1 2907  12.758  11.004   4.513  1.3390  1.8012 -0.2769
30394SOL    HW2 2908  12.753  11.085   4.385  0.9214 -2.7202 -3.3620
30395SOL     OW 2909  13.115  11.336  12.042  0.0498 -0.7417  0.1884
30395SOL    HW1 2910  13.201  11.299  12.057  0.3122  0.5477  2.1836
30395SOL    HW2 2911  13.130  11.407  11.979  0.3242 -0.9139  0.0578
30396SOL     OW 2912   5.766  10.681  13.096 -0.1737 -0.5716  0.2716
30396SOL    HW1 2913   5.752  10.746  13.165 -1.8632 -1.8842  1.2460
30396SOL    HW2 2914   5.856  10.652  13.109  1.0011  2.2151 -0.8304
30397SOL     OW 2915  11.598   4.082   6.241  0.4598  0.3958 -0.3045
30397SOL    HW1 2916  11.537   4.029   6.293  1.0700 -0.7166 -0.6880
30397SOL    HW2 2917  11.551   4.100   6.160  0.0782  0.8461  0.0090
30398SOL     OW 2918  10.032   8.369   6.029 -1.2681 -0.3320 -0.3462
30398SOL    HW1 2919   9.961   8.361   5.965  1.0770 -0.2738 -3.1329
30398SOL    HW2 2920  10.107   8.401   5.979  1.0112 -1.1722  2.2500
30399SOL     OW 2921   1.953   3.143   1.713 -0.2861 -0.2237 -0.1768
30399SOL    HW1 2922   1.920   3.136   1.623 -1.5441  0.5302  0.1931
30399SOL    HW2 2923   1.955   3.053   1.745 -0.5840 -0.4264 -0.7123
30400SOL     OW 2924  12.826   6.713  11.140 -0.1843 -0.0663 -0.1863
30400SOL    HW1 2925  12.807   6.669  11.057 -0.8230  0.0808 -0.1199
30400SOL    HW2 2926  12.894   6.776  11.119 -1.3900  1.0232 -0.9184
30401SOL     OW 2927   2.549  11.109   9.228  0.0914 -0.3833 -0.7149
30401SOL    HW1 2928   2.495  11.172   9.180  2.1179  0.5452 -1.8835
30401SOL    HW2 2929   2.501  11.095   9.310 -0.8905  1.9922 -0.7868
30402SOL     OW 2930   9.573   0.234   7.090  0.0049  0.0981 -0.7494
30402SOL    HW1 2931   9.564   0.318   7.134  2.6486 -1.1810  2.7418
30402SOL    HW2 2932   9.534   0.247   7.004 -0.8971  4.4368  0.1001
30403SOL     OW 2933   5.168  12.789   7.865 -0.3470 -0.3906  0.0258
30403SOL    HW1 2934   5.215  12.766   7.785 -0.5815 -2.1654  0.3494
30403SOL    HW2 2935   5.104  12.718   7.877 -1.0116  0.3684  1.2372
30404SOL     OW 2936  10.106  13.721   5.861  0.9821  0.2426 -0.5995
30404SOL    HW1 2937  10.097  13.653   5.927 -0.3902  1.2000  0.2814
30404SOL    HW2 2938  10.166  13.785   5.900 -1.1949  1.6897  0.6091
30405SOL     OW 2939   7.728   1.232  12.934  0.7020  0.0134  0.2261
30405SOL    HW1 2940   7.775   1.233  12.851 -0.0341  0.7913 -0.2009
30405SOL    HW2 2941   7.795   1.216  13.000  1.3709 -0.1109 -0.4716
30406SOL     OW 2942   0.613   9.251   7.728 -0.0231  0.2108 -0.3211
30406SOL    HW1 2943   0.571   9.330   7.696  2.0574  1.9474  0.9676
30406SOL    HW2 2944   0.566   9.228   7.808 -1.6004 -0.8299 -1.4825
30407SOL     OW 2945   2.715  11.631   2.702 -0.0840 -0.2080 -0.1828
30407SOL    HW1 2946   2.790  11.644   2.645 -0.1248 -1.4862 -0.5539
30407SOL    HW2 2947   2.731  11.690   2.776  0.4803  0.7040 -1.0056
30408SOL     OW 2948   6.353   4.002   7.252 -0.0234  0.0352 -0.4411
30408SOL    HW1 2949   6.356   4.098   7.246 -2.0899  0.2282  0.6908
30408SOL    HW2 2950   6.268   3.979   7.214  0.3358 -1.3406 -0.4507
30409SOL     OW 2951   4.217   2.749   4.434 -0.4302 -0.3588 -0.3565
30409SOL    HW1 2952   4.241   2.660   4.459 -2.1056 -0.4683  0.9985
30409SOL    HW2 2953   4.292   2.802   4.462 -0.4951 -1.0338  1.2013
30410SOL     OW 2954   3.376   3.206  11.566 -0.2519  0.2800  0.0367
30410SOL    HW1 2955   3.291   3.246  11.551 -0.6462  0.3353  2.1711
30410SOL    HW2 2956   3.363   3.113  11.548 -0.7899  0.2811  0.3962
30411SOL     OW 2957   3.605  12.074  10.697  0.1646  0.0414  0.2992
30411SOL    HW1 2958   3.511  12.082  10.682  0.0099 -0.9890  0.6496
30411SOL    HW2 2959   3.637  12.024  10.622  0.3114 -0.2254  0.5360
30412SOL     OW 2960   6.371   8.212   5.953  0.2549 -0.5326 -0.8407
30412SOL    HW1 2961   6.324   8.233   5.872  0.4876  0.7130 -0.6765
30412SOL    HW2 2962   6.373   8.116   5.956 -0.6581 -0.5958 -1.7806
30413SOL     OW 2963  10.713   8.788   1.478  0.1312  0.3439 -0.0128
30413SOL    HW1 2964  10.747   8.863   1.429  1.4993  0.3859  0.9667
30413SOL    HW2 2965  10.779   8.720   1.469  0.0155  0.0653  1.0687
30414SOL     OW 2966   5.700  13.574   2.760 -0.1726 -0.3195  0.0291
30414SOL    HW1 2967   5.658  13.552   2.843  0.1698  0.8006  0.5150
30414SOL    HW2 2968   5.715  13.489   2.718  0.6589 -1.0066  1.6080
30415SOL     OW 2969   7.665  10.260   0.173 -0.4484  0.0118  0.0621
30415SOL    HW1 2970   7.574  10.274   0.147 -0.1906  0.1520 -0.7946
30415SOL    HW2 2971   7.665  10.173   0.213 -0.8906 -0.1492 -0.2749
30416SOL     OW 2972  10.587   9.063   7.217  0.0329  0.1016  0.3942
30416SOL    HW1 2973  10.655   9.130   7.218  2.5215 -2.1344 -1.8592
30416SOL    HW2 2974  10.619   8.995   7.276 -0.7861 -0.5517  0.1073
30417SOL     OW 2975   6.876  13.145   8.133 -0.6201 -0.3217 -0.4348
30417SOL    HW1 2976   6.855  13.051   8.130 -1.0047 -0.3376  1.4213
30417SOL    HW2 2977   6.826  13.178   8.208  0.7304  1.0296 -0.0827
30418SOL     OW 2978   1.502   2.997   1.230  0.3538 -0.2288 -0.6955
30418SOL    HW1 2979   1.450   2.969   1.155  0.9174  0.1583 -1.2415
30418SOL    HW2 2980   1.493   2.926   1.293  0.8323 -1.1232 -1.5929
30419SOL     OW 2981  11.770   9.503   8.277 -0.0288 -0.2880  0.2556
30419SOL    HW1 2982  11.784   9.598   8.275 -0.8761 -0.1451  0.6028
30419SOL    HW2 2983  11.736   9.486   8.365 -0.9040 -0.7528 -0.1618
30420SOL     OW 2984   2.826   4.658   1.399 -0.4233 -1.0254 -0.4538
30420SOL    HW1 2985   2.916   4.662   1.434 -0.5917 -2.0478  0.1387
30420SOL    HW2 2986   2.818   4.569   1.365 -1.5367 -1.2886  0.4374
30421SOL     OW 2987   1.630  10.314   9.882  0.2806 -0.2345  0.1621
30421SOL    HW1 2988   1.619  10.281   9.971  1.5342  0.5637  0.6422
30421SOL    HW2 2989   1.721  10.346   9.880 -0.0926  0.8082 -1.0559
30422SOL     OW 2990   5.689   3.437   8.512  0.0235  0.1414 -0.0840
30422SOL    HW1 2991   5.596   3.425   8.533 -0.2149  0.0023 -1.1736
30422SOL    HW2 2992   5.732   3.361   8.552 -0.2608  0.4262  0.7919
30423SOL     OW 2993  13.012  12.499   4.171 -0.0949 -0.1546  0.4490
30423SOL    HW1 2994  12.944  12.559   4.139 -0.7100 -1.3277 -0.4894
30423SOL    HW2 2995  13.093  12.548   4.158 -0.3694 -0.2636 -2.2839
30424SOL     OW 2996   8.817   3.886  11.681  0.1076 -0.3549  0.1633
30424SOL    HW1 2997   8.912   3.888  11.671  0.1697  1.3983  0.8126
30424SOL    HW2 2998   8.797   3.961  11.737 -1.7554 -0.0603 -0.8142
30425SOL     OW 2999   2.760   4.339   5.401  0.7223 -0.0614 -0.1415
30425SOL    HW1 3000   2.730   4.267   5.346 -1.2919  0.8870 -0.3766
30425SOL    HW2 3001   2.854   4.345   5.385  0.6527 -1.6337 -1.2816
30426SOL     OW 3002  12.600  13.675   8.220  0.1311 -0.5254 -0.3375
30426SOL    HW1 3003  12.521  13.621   8.216  0.6062 -1.1783 -1.4653
30426SOL    HW2 3004  12.672  13.612   8.223  0.6455  0.0581 -0.1838
30427SOL     OW 3005   4.862  11.276   7.275 -0.2211 -0.0457 -0.6557
30427SOL    HW1 3006   4.856  11.184   7.300 -3.4601  0.6932  2.0444
30427SOL    HW2 3007   4.811  11.283   7.194  0.4384 -0.6250 -1.1386
30428SOL     OW 3008   5.501   8.004   8.234 -0.1999  0.3878  0.2871
30428SOL    HW1 3009   5.423   8.036   8.188 -1.0548 -2.2718 -0.2913
30428SOL    HW2 3010   5.488   8.032   8.324 -0.2006  2.7011 -0.3562
30429SOL     OW 3011   2.276   1.783  12.540 -0.3016 -0.3218  0.2811
30429SOL    HW1 3012   2.187   1.797  12.509 -0.0908  0.1117 -0.1324
30429SOL    HW2 3013   2.292   1.690  12.525 -0.4467 -0.2588 -0.2764
30430SOL     OW 3014   4.049   0.352   3.134 -0.4880  0.3969 -0.4417
30430SOL    HW1 3015   4.122   0.292   3.146  0.7388  1.6378 -1.3930
30430SOL    HW2 3016   3.995   0.310   3.066 -1.0281 -0.8000  0.6691
30431SOL     OW 3017   1.790   3.236  10.314 -0.2862  0.0804  0.3805
30431SOL    HW1 3018   1.696   3.248  10.327 -0.5245 -0.7178 -0.4263
30431SOL    HW2 3019   1.819   3.316  10.271 -1.1204 -0.6238 -1.6515
30432SOL     OW 3020   8.980  10.948   5.221  0.3807 -0.7021  0.1219
30432SOL    HW1 3021   9.024  10.894   5.155  0.0815 -0.8553  0.0445
30432SOL    HW2 3022   8.995  11.038   5.192  1.4852 -0.6994  0.6292
30433SOL     OW 3023   5.575  10.646  10.214  0.2072  0.6492  0.0070
30433SOL    HW1 3024   5.653  10.633  10.160 -1.0983  0.3847 -1.9211
30433SOL    HW2 3025   5.602  10.621  10.303  1.7913 -1.2819 -0.9461
30434SOL     OW 3026  12.491   0.027   3.943  0.2815 -0.0723 -0.0829
30434SOL    HW1 3027  12.446   0.083   4.006 -1.5850 -0.6303 -0.8428
30434SOL    HW2 3028  12.479  -0.062   3.978 -0.3746 -0.3420 -0.9492
30435SOL     OW 3029   1.428   3.400   1.610  0.5147  0.3587  0.0155
30435SOL    HW1 3030   1.494   3.459   1.573  1.7395  0.1398  1.7174
30435SOL    HW2 3031   1.477   3.322   1.635 -0.6745 -0.4241 -0.0398
30436SOL     OW 3032   0.302   4.683   2.672  0.0803  0.2520  0.2983
30436SOL    HW1 3033   0.225   4.626   2.664  0.8447 -0.7046 -0.5525
30436SOL    HW2 3034   0.367   4.643   2.614  1.3941  0.7521  1.3770
30437SOL     OW 3035  12.103   1.061   0.316  0.5488 -0.6407 -0.3617
30437SOL    HW1 3036  12.079   1.143   0.275  1.2395 -0.8488 -1.2308
30437SOL    HW2 3037  12.032   1.001   0.295 -0.3977 -0.0673  1.0267
30438SOL     OW 3038  10.637   6.108   5.704 -0.4431  0.3998  0.2109
30438SOL    HW1 3039  10.610   6.035   5.759  1.8723 -0.2387  0.6183
30438SOL    HW2 3040  10.644   6.071   5.616 -0.4085  0.4214  0.2041
30439SOL     OW 3041   6.764   7.629   4.341  0.0973 -0.4807  0.5563
30439SOL    HW1 3042   6.778   7.640   4.247  1.0795 -0.4241  0.7015
30439SOL    HW2 3043   6.696   7.562   4.347  1.3236 -1.8498 -0.1819
30440SOL     OW 3044   0.235  13.163  11.276  0.2835 -0.3042  0.2964
30440SOL    HW1 3045   0.322  13.140  11.244  1.0140  0.4746  1.6581
30440SOL    HW2 3046   0.206  13.087  11.326 -0.2311 -0.9245 -0.8977
30441SOL     OW 3047   8.455   9.907  12.476  0.6582  0.0136  0.6393
30441SOL    HW1 3048   8.532   9.961  12.490  1.2033 -0.1310 -1.4395
30441SOL    HW2 3049   8.481   9.820  12.506  0.9275  0.1865  0.9192
30442SOL     OW 3050  11.190   7.233  12.086  0.1820 -0.0736 -0.2286
30442SOL    HW1 3051  11.249   7.194  12.022  0.6393  0.8991 -0.4016
30442SOL    HW2 3052  11.113   7.176  12.084  0.8307 -0.9739 -0.4754
30443SOL     OW 3053   3.168   6.449   7.656  0.1040  0.2515 -0.2745
30443SOL    HW1 3054   3.126   6.378   7.703  0.2860  0.3952  0.1110
30443SOL    HW2 3055   3.138   6.529   7.701  2.3516  0.2699  1.3117
30444SOL     OW 3056   9.651  12.188   5.775 -0.1141 -0.1962 -0.8212
30444SOL    HW1 3057   9.608  12.248   5.836 -2.3138  0.3555 -2.7403
30444SOL    HW2 3058   9.640  12.231   5.690  0.5733 -2.1173 -1.9197
30445SOL     OW 3059  12.007   8.309  10.122 -0.0402  0.5369  0.4354
30445SOL    HW1 3060  11.932   8.274  10.170 -0.6931  1.0933 -0.1497
30445SOL    HW2 3061  11.969   8.374  10.063  0.0289 -2.8728 -3.8697
30446SOL     OW 3062   6.374   0.865  10.939 -0.1859  0.4203  0.0171
30446SOL    HW1 3063   6.424   0.828  10.866 -1.6050 -0.4197 -0.5905
30446SOL    HW2 3064   6.394   0.808  11.013  0.1787  0.4221 -0.0799
30447SOL     OW 3065   1.937   3.097  10.790 -0.5759 -0.3224 -0.3196
30447SOL    HW1 3066   1.953   3.188  10.816 -0.6725 -0.1098 -0.9679
30447SOL    HW2 3067   1.910   3.104  10.698  0.7329 -1.1161 -0.7842
30448SOL     OW 3068   5.921   4.529   3.784 -0.1288 -0.1072 -0.3194
30448SOL    HW1 3069   5.949   4.438   3.789 -0.9235 -0.2820  2.2770
30448SOL    HW2 3070   5.991   4.579   3.826 -0.5083  0.2748 -0.1302
30449SOL     OW 3071   6.054  11.541   1.740 -0.3221  0.0293 -0.1123
30449SOL    HW1 3072   6.090  11.511   1.657  0.2049 -0.9593  0.4480
30449SOL    HW2 3073   6.037  11.460   1.789 -1.4750  0.5557  0.3965
30450SOL     OW 3074   6.145   2.946   0.563  0.2661  0.1144 -0.1335
30450SOL    HW1 3075   6.149   3.033   0.523  1.7194  0.1878  0.1148
30450SOL    HW2 3076   6.214   2.896   0.519 -0.5936 -0.9423 -0.3142
30451SOL     OW 3077   2.855   5.375   9.969 -0.9732 -0.2266 -0.1444
30451SOL    HW1 3078   2.863   5.462  10.008 -0.7006  0.1609 -1.0325
30451SOL    HW2 3079   2.853   5.392   9.874 -2.0323 -1.1030 -0.2945
30452SOL     OW 3080   0.513  13.406   9.482  0.2845 -0.2259  0.3388
30452SOL    HW1 3081   0.553  13.319   9.489  1.1989  0.2143  0.6612
30452SOL    HW2 3082   0.558  13.448   9.409 -0.0489  0.0424  0.2817
30453SOL     OW 3083  10.982  12.406   3.853  0.6432  0.4786  0.4130
30453SOL    HW1 3084  10.965  12.487   3.805  0.1924  0.1806  0.0618
30453SOL    HW2 3085  11.047  12.359   3.800  2.5750  1.5678  1.7020
30454SOL     OW 3086   0.342   9.063  12.590 -0.0047  0.2425  0.3695
30454SOL    HW1 3087   0.255   9.057  12.631  0.5380  1.6797  1.8498
30454SOL    HW2 3088   0.398   9.099  12.659  1.6913 -0.2557 -0.6897
30455SOL     OW 3089  11.676  12.308   0.009 -0.3175 -0.0412 -0.2300
30455SOL    HW1 3090  11.689  12.235   0.070 -1.6899  0.9631  1.3315
30455SOL    HW2 3091  11.724  12.282  -0.070 -1.4479 -3.0079 -0.0442
30456SOL     OW 3092   1.322   7.042   1.345  0.2261  0.2286 -0.1095
30456SOL    HW1 3093   1.346   7.052   1.253  0.6200 -1.1768 -0.1901
30456SOL    HW2 3094   1.398   6.998   1.385  0.1030  0.9101  0.9111
30457SOL     OW 3095  12.439   1.040  12.936  0.0475 -0.4583 -0.1199
30457SOL    HW1 3096  12.505   1.095  12.895 -0.8397  0.8071  0.0977
30457SOL    HW2 3097  12.383   1.101  12.984 -1.7786 -1.3859 -0.9634
30458SOL     OW 3098   7.548   3.976   5.746  0.0634  0.3767 -0.4932
30458SOL    HW1 3099   7.608   3.986   5.672 -0.0640  2.1560 -0.3927
30458SOL    HW2 3100   7.463   3.960   5.704  0.1989  0.1710 -0.6964
30459SOL     OW 3101  13.519  12.532   8.313  0.2342  0.5239 -0.3097
30459SOL    HW1 3102  13.562  12.451   8.340  0.1225  0.7331  0.5059
30459SOL    HW2 3103  13.465  12.507   8.239 -0.3353 -0.2852  0.3693
30460SOL     OW 3104   8.765   2.423  10.364  0.3333 -0.1178 -0.2107
30460SOL    HW1 3105   8.825   2.416  10.438  0.6524 -2.0327 -0.5922
30460SOL    HW2 3106   8.794   2.502  10.317 -0.6453  1.8636  2.2688
30461SOL     OW 3107   1.532   5.822   9.472 -0.1445  0.2868  0.7310
30461SOL    HW1 3108   1.460   5.878   9.501  0.2465  0.2024  1.9007
30461SOL    HW2 3109   1.489   5.742   9.441 -0.6077  0.6418  0.4322
30462SOL     OW 3110   8.553  11.813  10.375  0.3555 -0.2764 -0.4869
30462SOL    HW1 3111   8.627  11.848  10.424 -1.5142 -1.4265  3.6108
30462SOL    HW2 3112   8.533  11.729  10.417 -2.4361 -0.6868 -2.3132
30463SOL     OW 3113  10.637   7.560  11.550 -0.6329 -0.3372  0.0293
30463SOL    HW1 3114  10.658   7.483  11.498 -1.3113 -0.5419  0.0465
30463SOL    HW2 3115  10.555   7.537  11.594 -1.6490  0.9628 -1.1367
30464SOL     OW 3116   5.972  10.569  13.626  0.6845  0.4740 -0.0018
30464SOL    HW1 3117   5.978  10.554  13.532 -1.9222  1.1960 -0.3718
30464SOL    HW2 3118   6.057  10.542  13.661  2.3360  1.7495 -2.7321
30465SOL     OW 3119   0.429   7.270   8.842  0.3066 -0.1315 -0.0954
30465SOL    HW1 3120   0.448   7.364   8.837 -0.9384  0.4446  3.5951
30465SOL    HW2 3121   0.484   7.238   8.913 -1.9491 -1.3845  1.1734
30466SOL     OW 3122   8.270   7.295   4.321 -0.2588  0.4230 -0.0513
30466SOL    HW1 3123   8.212   7.370   4.330  0.2863  0.8019  0.3886
30466SOL    HW2 3124   8.259   7.246   4.402 -0.6973 -0.0351 -0.3865
30467SOL     OW 3125   7.739  13.352   7.947  0.4683  0.1805  0.7523
30467SOL    HW1 3126   7.805  13.367   8.015  0.3080  0.0499  0.9386
30467SOL    HW2 3127   7.745  13.258   7.928 -0.1890  0.0149  1.3221
30468SOL     OW 3128   3.542  12.320  10.862  0.2806  0.1211  0.4100
30468SOL    HW1 3129   3.518  12.235  10.825  0.8242  0.2707 -0.3027
30468SOL    HW2 3130   3.574  12.370  10.787 -0.1819  1.0114  0.7956
30469SOL     OW 3131   0.949   7.319   9.253  0.1971  0.0148 -0.5065
30469SOL    HW1 3132   0.865   7.283   9.280  1.2459 -2.2266  0.0445
30469SOL    HW2 3133   0.971   7.382   9.321 -0.5530 -0.1803 -0.0753
30470SOL     OW 3134   5.851  13.247   6.049  0.1428  0.1926 -0.6894
30470SOL    HW1 3135   5.789  13.177   6.069  0.1715  0.3522 -0.0289
30470SOL    HW2 3136   5.905  13.211   5.978  0.4223 -0.6166 -0.0826
30471SOL     OW 3137  11.790   4.955   3.962 -0.2063  0.0773 -0.6491
30471SOL    HW1 3138  11.827   4.894   4.027 -2.4215 -1.2388 -0.5317
30471SOL    HW2 3139  11.866   4.983   3.910  1.2221 -0.9665  0.7609
30472SOL     OW 3140   0.501   3.304   6.365 -0.4867 -0.4551  0.3667
30472SOL    HW1 3141   0.525   3.225   6.316  0.5068 -0.8665  1.4873
30472SOL    HW2 3142   0.480   3.273   6.453  0.5875  0.5750  1.0243
30473SOL     OW 3143   1.927   0.694   7.663  0.1424 -0.4281 -0.0835
30473SOL    HW1 3144   1.959   0.724   7.748 -1.3264 -0.7786  0.6262
30473SOL    HW2 3145   2.001   0.707   7.604  1.3732 -0.6400  1.3412
30474SOL     OW 3146   4.777   4.755   9.171  0.0550 -0.6980  0.5232
30474SOL    HW1 3147   4.794   4.753   9.265  2.1148 -0.1879  0.2062
30474SOL    HW2 3148   4.858   4.787   9.132 -1.9873  3.1515 -1.1511
30475SOL     OW 3149  12.015  10.817   4.666 -0.3545  0.6556 -0.6073
30475SOL    HW1 3150  12.110  10.823   4.660 -0.3144  0.1476 -0.5700
30475SOL    HW2 3151  12.000  10.743   4.726 -0.7655  1.3413  0.1640
30476SOL     OW 3152  10.072   5.975   1.068  0.7005  0.6947 -0.1476
30476SOL    HW1 3153  10.005   5.965   1.000 -0.8676  2.0503  1.0993
30476SOL    HW2 3154  10.038   5.923   1.141 -0.4323  3.4218  1.4219
30477SOL     OW 3155   3.194  12.288   0.603  0.4914  0.1249 -0.5272
30477SOL    HW1 3156   3.208  12.368   0.654  0.3201  0.7712 -1.4566
30477SOL    HW2 3157   3.160  12.320   0.519 -0.6921 -1.0066 -0.4971
30478SOL     OW 3158   3.301   0.501   8.918  0.2093 -0.0448 -0.6164
30478SOL    HW1 3159   3.227   0.513   8.858 -0.2207 -1.1625 -0.3472
30478SOL    HW2 3160   3.377   0.531   8.869 -0.0703 -1.3188 -1.9047
30479SOL     OW 3161   4.235  11.000   7.538  0.0523  0.3033  0.3247
30479SOL    HW1 3162   4.183  11.071   7.575  1.3697  0.4530  2.0446
30479SOL    HW2 3163   4.209  10.922   7.588 -0.2973 -0.1335 -0.5179
30480SOL     OW 3164   9.310   6.832  10.354  0.6674 -0.4434  0.4025
30480SOL    HW1 3165   9.361   6.834  10.273  1.2876 -1.6328  0.7319
30480SOL    HW2 3166   9.288   6.923  10.371 -0.6478 -0.2701 -1.8098
30481SOL     OW 3167   2.453  11.653   1.410  0.0975 -0.2840  0.6964
30481SOL    HW1 3168   2.522  11.697   1.361 -0.2943 -0.5333 -0.1083
30481SOL    HW2 3169   2.498  11.592   1.468  0.6127  0.6750  1.3235
30482SOL     OW 3170   0.506  12.217  10.722  0.2249 -0.2771 -0.2480
30482SOL    HW1 3171   0.596  12.192  10.742  0.3982  0.7943  0.3648
30482SOL    HW2 3172   0.488  12.291  10.780 -0.6666  0.2580 -1.1701
30483SOL     OW 3173   9.887   4.355   6.646  0.0650 -0.4305 -0.0778
30483SOL    HW1 3174   9.924   4.292   6.584  2.0349 -0.5055  1.1037
30483SOL    HW2 3175   9.912   4.440   6.612 -0.7418 -0.3517 -0.5136
30484SOL     OW 3176   0.787  10.836   2.063  0.2794  0.2690 -0.0278
30484SOL    HW1 3177   0.823  10.908   2.115 -1.5987  2.1980 -1.2641
30484SOL    HW2 3178   0.706  10.812   2.109 -0.6800  1.0552 -1.2668
30485SOL     OW 3179   1.953  12.196   7.755 -0.3156 -0.0846  0.2898
30485SOL    HW1 3180   1.931  12.281   7.792  1.5784  0.2492  0.7833
30485SOL    HW2 3181   1.899  12.134   7.802  0.0853  0.6208  1.7268
30486SOL     OW 3182   3.855   2.626  11.953  0.0063 -0.2659  0.3389
30486SOL    HW1 3183   3.831   2.569  11.880 -0.7898  0.3341  0.1190
30486SOL    HW2 3184   3.906   2.697  11.912 -0.9557  0.3931  0.2676
30487SOL     OW 3185   9.419   5.525   9.842 -0.1187 -0.3873 -0.7662
30487SOL    HW1 3186   9.455   5.511   9.929  0.5559  1.9635 -0.5960
30487SOL    HW2 3187   9.332   5.485   9.845 -0.4727  0.4597  1.2972
30488SOL     OW 3188   5.235   5.681   9.473  0.5189  0.0097  0.0523
30488SOL    HW1 3189   5.191   5.739   9.534 -0.7174 -0.2969 -0.5190
30488SOL    HW2 3190   5.325   5.676   9.505 -0.0874 -0.1425  1.8262
30489SOL     OW 3191   1.633   4.102   3.583 -0.1986  0.8982 -0.4760
30489SOL    HW1 3192   1.657   4.142   3.499  1.8467  0.9216  0.0496
30489SOL    HW2 3193   1.614   4.176   3.641  1.1388  1.0423 -0.1871
30490SOL     OW 3194   2.267   4.622   3.302  0.4672 -0.6583 -0.1191
30490SOL    HW1 3195   2.275   4.602   3.395  2.0720  2.8469  0.6490
30490SOL    HW2 3196   2.352   4.597   3.265  0.9025  0.6137 -0.0115
30491SOL     OW 3197   6.184  10.670   7.897  0.2495  0.0011 -0.0671
30491SOL    HW1 3198   6.259  10.634   7.944 -0.5074  0.9802  2.0139
30491SOL    HW2 3199   6.218  10.694   7.811  2.2613  0.2195  0.7436
30492SOL     OW 3200  11.944   9.715  10.350  0.7619 -0.0896  0.0967
30492SOL    HW1 3201  11.904   9.628  10.352  0.2050  0.1670  0.2384
30492SOL    HW2 3202  11.922   9.750  10.264 -1.6624  1.1198  1.1265
30493SOL     OW 3203   6.712   3.799   6.726  0.3417  0.2712  0.1075
30493SOL    HW1 3204   6.669   3.785   6.642  0.5196  0.1192  0.0431
30493SOL    HW2 3205   6.746   3.713   6.751  0.8767  0.4527  0.0156
30494SOL     OW 3206   5.720   9.769  13.148 -0.0038  0.6333  0.1671
30494SOL    HW1 3207   5.784   9.834  13.178  1.4995 -0.8875  0.4238
30494SOL    HW2 3208   5.760   9.731  13.070 -1.3922  0.7852 -0.6501
30495SOL     OW 3209   0.030   3.346  11.541 -0.4552  0.8133  0.3203
30495SOL    HW1 3210  -0.011   3.395  11.470 -1.3969  2.6190  1.9844
30495SOL    HW2 3211  -0.041   3.328  11.602  0.7344  1.9545  2.1766
30496SOL     OW 3212   9.754   7.804   7.409 -0.2659  0.3550  0.3175
30496SOL    HW1 3213   9.718   7.754   7.482 -1.9321  0.2617 -0.5260
30496SOL    HW2 3214   9.761   7.893   7.443 -0.1583  0.1420  0.8675
30497SOL     OW 3215  10.707  12.984   1.994  0.2428 -0.5654  0.1474
30497SOL    HW1 3216  10.778  13.009   2.052 -0.0900 -0.5529  0.5559
30497SOL    HW2 3217  10.728  12.894   1.968  1.0495 -0.1392 -0.7247
30498SOL     OW 3218   5.136  10.459   2.978 -0.1579  0.2644 -0.2531
30498SOL    HW1 3219   5.203  10.513   3.020 -0.4115 -0.0696  0.6070
30498SOL    HW2 3220   5.178  10.427   2.898  1.0127 -0.5811  0.6549
30499SOL     OW 3221  11.528   4.165   1.822  0.2555  0.0941  0.2996
30499SOL    HW1 3222  11.537   4.076   1.788  0.2176 -0.3857  1.5162
30499SOL    HW2 3223  11.583   4.218   1.765 -0.1456 -0.6123 -0.7800
30500SOL     OW 3224  10.345   4.366   9.534 -0.4230  0.0185  0.0421
30500SOL    HW1 3225  10.390   4.447   9.556 -1.6988  0.5574  0.8495
30500SOL    HW2 3226  10.381   4.302   9.595  0.6661 -0.0740 -0.6695
30501SOL     OW 3227   4.040   6.175   2.146 -0.3715 -0.3786 -0.2587
30501SOL    HW1 3228   4.126   6.210   2.120  0.2472 -2.3804 -1.1270
30501SOL    HW2 3229   4.058   6.086   2.174 -1.9107 -0.1662  1.6546
30502SOL     OW 3230   1.267  11.403   5.607  0.2176  0.4404 -0.1609
30502SOL    HW1 3231   1.246  11.451   5.687  1.8023 -1.0571  1.2512
30502SOL    HW2 3232   1.192  11.418   5.549 -2.7463 -1.2131  2.8835
30503SOL     OW 3233  11.477  11.084   1.785  0.0743  0.5156 -0.1678
30503SOL    HW1 3234  11.562  11.116   1.811  0.5262 -0.6648 -0.1105
30503SOL    HW2 3235  11.431  11.160   1.750  1.5604  0.9490 -1.2531
30504SOL     OW 3236   2.394   8.267   6.487  0.7214 -0.2284 -0.1225
30504SOL    HW1 3237   2.449   8.217   6.547  0.6744  0.7334  0.7467
30504SOL    HW2 3238   2.451   8.338   6.457  0.1179  0.5031  0.4226
30505SOL     OW 3239  13.621  11.614  12.048 -0.3278  1.1339 -0.1009
30505SOL    HW1 3240  13.639  11.525  12.079 -2.5799  0.7878  0.3881
30505SOL    HW2 3241  13.556  11.603  11.979 -0.0770  2.3638 -0.5681
30506SOL     OW 3242   1.161   6.373   1.948  0.0355 -0.1732  0.6117
30506SOL    HW1 3243   1.131   6.382   1.858  0.5938  1.0737  0.5200
30506SOL    HW2 3244   1.187   6.282   1.956 -2.4155 -0.9780  0.2964
30507SOL     OW 3245  11.040  10.144   8.378  0.1111  0.1727 -0.8048
30507SOL    HW1 3246  11.114  10.180   8.426  2.3835 -1.4789 -2.8042
30507SOL    HW2 3247  10.974  10.126   8.445  0.5531  3.7257  0.7964
30508SOL     OW 3248  11.332   3.024   3.490  0.2604  0.2632  0.4870
30508SOL    HW1 3249  11.282   2.943   3.481 -0.6937  0.6486  1.9243
30508SOL    HW2 3250  11.385   3.011   3.569  2.3829 -0.0713 -0.9104
30509SOL     OW 3251   7.261   1.825  10.150 -0.1186  0.5398  0.1574
30509SOL    HW1 3252   7.333   1.879  10.180 -0.7502  1.2105  0.4960
30509SOL    HW2 3253   7.250   1.849  10.058 -0.3087  0.8913  0.2703
30510SOL     OW 3254   5.099   3.870   0.265  0.7038 -0.5022 -0.2728
30510SOL    HW1 3255   5.117   3.866   0.171 -0.2600  2.1532 -0.6458
30510SOL    HW2 3256   5.008   3.840   0.272  1.0121 -1.4221 -0.0570
30511SOL     OW 3257   8.495  12.698   6.307  0.3257  0.3524  0.1818
30511SOL    HW1 3258   8.462  12.699   6.397 -2.4979 -0.9229 -0.7205
30511SOL    HW2 3259   8.551  12.621   6.302  0.5746  0.4856  0.8551
30512SOL     OW 3260  11.746   1.905   9.969  0.1595  0.5463  0.2452
30512SOL    HW1 3261  11.789   1.989   9.982 -0.8127  0.9861  0.7822
30512SOL    HW2 3262  11.792   1.865   9.896  1.0561  1.2605  0.4044
30513SOL     OW 3263  11.416   8.277  11.525  0.8188  0.2568  0.0193
30513SOL    HW1 3264  11.471   8.249  11.598 -0.9233 -1.1301  0.8580
30513SOL    HW2 3265  11.417   8.204  11.464  1.1676  0.8729 -0.7351
30514SOL     OW 3266   3.129   1.222   0.438  0.4260 -0.6427  0.5499
30514SOL    HW1 3267   3.141   1.127   0.438 -0.9335 -0.8347 -0.0347
30514SOL    HW2 3268   3.052   1.236   0.492 -1.4642 -0.2076 -2.0952
30515SOL     OW 3269  11.721   6.372   7.690  0.5709  0.1391 -0.3143
30515SOL    HW1 3270  11.803   6.329   7.714 -0.2751 -0.9845  0.6940
30515SOL    HW2 3271  11.698   6.334   7.605  0.3602 -0.6422  0.0856
30516SOL     OW 3272  11.700   9.432  10.527 -0.0725 -0.1151  0.4596
30516SOL    HW1 3273  11.772   9.421  10.466 -0.7400  0.6352 -0.4945
30516SOL    HW2 3274  11.713   9.363  10.592 -1.0333 -3.0334 -2.1708
30517SOL     OW 3275   0.430   5.877   6.680  0.8871 -0.4977 -0.2049
30517SOL    HW1 3276   0.501   5.913   6.626  1.5583 -1.6041 -0.0927
30517SOL    HW2 3277   0.410   5.946   6.743  0.0289  0.8728 -1.8749
30518SOL     OW 3278  12.194   1.513   8.660  0.1799  0.6134 -0.2615
30518SOL    HW1 3279  12.226   1.561   8.583  2.2952  2.2657  1.5144
30518SOL    HW2 3280  12.272   1.496   8.712 -0.7637 -3.0975  0.2480
30519SOL     OW 3281   0.512   2.434   1.868  0.3594  0.3104 -0.3949
30519SOL    HW1 3282   0.445   2.502   1.876  1.0551  1.2066 -1.7046
30519SOL    HW2 3283   0.477   2.359   1.917 -0.8473  1.2947  0.2984
30520SOL     OW 3284  13.273   4.474   5.921 -0.3519  0.5320 -0.6942
30520SOL    HW1 3285  13.244   4.390   5.887 -1.9847  0.2854  1.1095
30520SOL    HW2 3286  13.201   4.534   5.901  0.1032  1.1363 -0.5633
30521SOL     OW 3287  11.797   9.002   2.458 -0.0973  0.3746  0.1150
30521SOL    HW1 3288  11.767   9.009   2.549 -1.2612  2.6621 -0.3465
30521SOL    HW2 3289  11.879   9.051   2.456  0.0462  0.1257 -0.0027
30522SOL     OW 3290   9.494   0.521  13.131 -0.7937 -0.1241 -0.0174
30522SOL    HW1 3291   9.531   0.595  13.180 -0.4084  0.2207 -0.8144
30522SOL    HW2 3292   9.406   0.511  13.165 -0.3729 -0.1944  1.0860
30523SOL     OW 3293  13.231  13.439   4.420  0.2353 -0.2307 -0.8090
30523SOL    HW1 3294  13.208  13.418   4.511 -3.1899  0.8994 -1.2807
30523SOL    HW2 3295  13.209  13.359   4.371 -3.0006  0.7395 -1.2107
30524SOL     OW 3296  11.571   7.327   3.238 -0.1496 -0.2362 -0.4756
30524SOL    HW1 3297  11.596   7.271   3.164  0.6673  1.8300 -1.8624
30524SOL    HW2 3298  11.487   7.364   3.213  0.1687  0.5372 -0.4302
30525SOL     OW 3299  11.503   4.811  12.404  0.2016  0.0745  0.9534
30525SOL    HW1 3300  11.504   4.726  12.447  1.7412 -0.4096  0.0710
30525SOL    HW2 3301  11.592   4.821  12.371 -0.7309  0.6209 -1.6274
30526SOL     OW 3302   8.862  12.899  11.765 -0.1657  0.0198  0.0410
30526SOL    HW1 3303   8.828  12.910  11.854 -0.4917 -0.2288 -0.0517
30526SOL    HW2 3304   8.784  12.900  11.709  0.1505  1.9705 -0.4316
30527SOL     OW 3305  12.248   7.804   8.434  0.9878 -0.4538 -0.6329
30527SOL    HW1 3306  12.232   7.794   8.340 -0.0191  1.3670 -0.6962
30527SOL    HW2 3307  12.213   7.724   8.473 -2.2569  0.4042 -1.4833
30528SOL     OW 3308   9.070   3.952   6.717 -0.3938  0.0129 -0.7061
30528SOL    HW1 3309   9.077   4.047   6.723 -1.4652  0.0653  0.1282
30528SOL    HW2 3310   8.975   3.935   6.723 -0.1700 -1.1347 -0.1112
30529SOL     OW 3311  10.302   5.813   3.859 -0.1113 -0.4129  0.4307
30529SOL    HW1 3312  10.394   5.785   3.856 -0.0724 -0.3297  0.7725
30529SOL    HW2 3313  10.267   5.789   3.774 -0.2373 -2.0469  0.9056
30530SOL     OW 3314   1.260   2.811   4.835  0.0430 -0.3948  0.3261
30530SOL    HW1 3315   1.227   2.899   4.853 -1.1169 -0.8650  0.5955
30530SOL    HW2 3316   1.247   2.763   4.917 -0.0473 -1.0287 -0.0518
30531SOL     OW 3317   0.613   7.237  11.746  0.1248 -0.6487 -0.0922
30531SOL    HW1 3318   0.547   7.299  11.715 -0.4022 -1.8999 -1.5853
30531SOL    HW2 3319   0.689   7.292  11.769 -0.3419  0.5460 -1.2978
30532SOL     OW 3320   3.926   6.125   5.780 -0.2060 -0.4291 -0.2092
30532SOL    HW1 3321   3.990   6.106   5.712 -1.1792  1.2990 -1.6849
30532SOL    HW2 3322   3.884   6.040   5.797  1.2986 -1.2425 -0.4094
30533SOL     OW 3323  13.118  13.137   8.018 -0.5111 -0.7901 -0.2333
30533SOL    HW1 3324  13.184  13.071   7.998 -1.9378 -1.9944 -1.2114
30533SOL    HW2 3325  13.045  13.117   7.959 -1.1913  1.3981 -0.2388
30534SOL     OW 3326   0.154   2.582  10.683  0.1729  0.1829  0.2483
30534SOL    HW1 3327   0.180   2.597  10.774  1.6809 -0.6139 -0.0174
30534SOL    HW2 3328   0.066   2.543  10.689 -0.1505  1.0360  1.3023
30535SOL     OW 3329   1.157   6.982   4.973 -0.4477 -0.7980  0.3028
30535SOL    HW1 3330   1.087   7.002   5.035  0.9667 -1.3552  2.1824
30535SOL    HW2 3331   1.224   6.939   5.026  1.7298  0.5650 -1.1845
30536SOL     OW 3332   3.479   1.283   1.450  0.0631 -0.0642  0.2729
30536SOL    HW1 3333   3.446   1.258   1.363 -0.2568 -0.1500  0.4167
30536SOL    HW2 3334   3.489   1.199   1.496  0.7417 -0.0624  0.1441
30537SOL     OW 3335  12.571   1.519   2.745  0.0009 -0.1506  0.1620
30537SOL    HW1 3336  12.615   1.550   2.824  0.8081  1.4685 -0.8937
30537SOL    HW2 3337  12.504   1.459   2.778  0.0849  0.7508  2.1070
30538SOL     OW 3338   5.867   9.178   6.952  0.0136 -0.2167  0.2316
30538SOL    HW1 3339   5.898   9.172   6.862 -1.4353  1.4370 -0.4343
30538SOL    HW2 3340   5.908   9.257   6.987 -1.6167  0.7522  0.0530
30539SOL     OW 3341   6.102   1.606   1.189  0.1709  0.1407  0.1974
30539SOL    HW1 3342   6.183   1.607   1.240 -0.0864 -0.7697  0.6481
30539SOL    HW2 3343   6.086   1.514   1.170 -0.7809  0.2996  0.1471
30540SOL     OW 3344   7.473   9.058  10.437  0.2323  0.4095 -0.1800
30540SOL    HW1 3345   7.408   9.048  10.367 -1.2039 -0.6821  1.2491
30540SOL    HW2 3346   7.449   9.140  10.480  1.7414  1.6256 -1.5133
30541SOL     OW 3347   5.898  10.366  13.159  0.0267 -0.2040 -0.4777
30541SOL    HW1 3348   5.911  10.360  13.064  0.3684  0.3825 -0.4769
30541SOL    HW2 3349   5.803  10.360  13.171  0.0196 -0.7910 -0.8118
30542SOL     OW 3350   5.826  10.327   8.832 -0.7100 -0.1876  0.1461
30542SOL    HW1 3351   5.750  10.363   8.786 -0.4959  0.7571  0.5046
30542SOL    HW2 3352   5.816  10.232   8.824 -1.0309 -0.0669 -1.2848
30543SOL     OW 3353   9.105   0.699   5.873  0.2489 -0.8416  0.2379
30543SOL    HW1 3354   9.199   0.712   5.858  0.7168 -2.8299  1.1756
30543SOL    HW2 3355   9.074   0.785   5.904  1.5976  0.0335 -0.7414
30544SOL     OW 3356  10.943   0.127   7.037 -0.0765 -0.0854 -0.4686
30544SOL    HW1 3357  10.903   0.165   6.959 -0.7530 -0.2443 -0.2077
30544SOL    HW2 3358  10.963   0.202   7.092  0.1702  0.0104 -0.6912
30545SOL     OW 3359  12.224   0.043  11.084  0.4600 -0.3910  0.3893
30545SOL    HW1 3360  12.203   0.131  11.053 -1.1990 -0.9861 -0.3115
30545SOL    HW2 3361  12.179   0.036  11.168  3.1713  0.4613  2.0202
30546SOL     OW 3362  12.528   0.521   4.286  0.1253  0.7697 -0.2690
30546SOL    HW1 3363  12.594   0.451   4.289 -1.0173 -0.3231  0.2747
30546SOL    HW2 3364  12.497   0.520   4.196 -0.2858  0.1805 -0.1251
30547SOL     OW 3365   7.000   4.017  11.383 -0.3810  0.5504 -0.3066
30547SOL    HW1 3366   6.925   4.014  11.323  0.1480  0.9010 -0.9927
30547SOL    HW2 3367   7.073   4.045  11.328  0.8480 -2.3130 -0.2631
30548SOL     OW 3368  10.908   8.293  13.272 -0.6104  0.3157 -0.4924
30548SOL    HW1 3369  10.888   8.370  13.220 -2.7862  0.5710  0.6192
30548SOL    HW2 3370  10.964   8.326  13.343 -0.8203  0.7097 -0.5104
30549SOL     OW 3371  10.708   5.283   4.707 -0.3986  0.0791 -0.5824
30549SOL    HW1 3372  10.657   5.212   4.745  0.7711 -0.9560 -0.8656
30549SOL    HW2 3373  10.683   5.361   4.757  0.9861 -1.1849  2.2880
30550SOL     OW 3374   2.450   2.104   4.535 -0.5203 -0.5734  0.1412
30550SOL    HW1 3375   2.385   2.101   4.465 -1.6944  0.7020  1.1170
30550SOL    HW2 3376   2.439   2.191   4.574  1.3050 -0.5974  0.8016
30551SOL     OW 3377  12.091   9.430   0.134  0.1409 -0.3501 -0.3013
30551SOL    HW1 3378  11.998   9.426   0.112  0.4677  0.4552 -2.0241
30551SOL    HW2 3379  12.113   9.341   0.161 -1.2480 -0.4088  0.7123
30552SOL     OW 3380   6.690   0.945   6.956 -0.1827 -0.0101 -0.0491
30552SOL    HW1 3381   6.614   0.907   6.912 -0.4015 -1.9003  1.7867
30552SOL    HW2 3382   6.665   0.948   7.048  2.4478 -2.1859  0.8691
30553SOL     OW 3383   0.261   2.460   0.009  0.2813  0.5323 -1.0125
30553SOL    HW1 3384   0.252   2.411   0.091 -2.1721  0.7169 -1.1199
30553SOL    HW2 3385   0.294   2.395  -0.053  1.4879  0.2147 -0.1010
30554SOL     OW 3386   9.748   7.332   0.909 -0.3585 -0.0111 -1.1648
30554SOL    HW1 3387   9.842   7.314   0.901 -0.6960 -1.1165 -3.4900
30554SOL    HW2 3388   9.739   7.425   0.886  0.2018  0.2373 -0.4130
30555SOL     OW 3389   0.398  12.280   1.637  0.2960 -0.4679  0.1943
30555SOL    HW1 3390   0.394  12.323   1.722 -0.1557  0.5583 -0.3339
30555SOL    HW2 3391   0.320  12.311   1.590  0.7485 -0.7008 -0.7390
30556SOL     OW 3392  12.150   1.688   8.211  0.0772 -0.6131 -0.3441
30556SOL    HW1 3393  12.056   1.688   8.192  0.0711 -1.2361 -0.3272
30556SOL    HW2 3394  12.183   1.765   8.164 -0.6205  0.3145  0.6164
30557SOL     OW 3395  13.482  12.049   2.143  0.1980  0.3156  0.4476
30557SOL    HW1 3396  13.449  11.963   2.117  1.1074  0.3917 -1.0986
30557SOL    HW2 3397  13.473  12.103   2.065  3.6432  0.3911 -0.0891
30558SOL     OW 3398   0.887   9.592   9.895  0.1440 -0.0788 -0.4002
30558SOL    HW1 3399   0.946   9.528   9.935  1.7338  1.6360  0.1595
30558SOL    HW2 3400   0.942   9.669   9.881 -0.8006  0.0684 -4.2149
30559SOL     OW 3401  12.869   4.190  13.414  0.8546 -0.4852 -0.1282
30559SOL    HW1 3402  12.873   4.096  13.430  1.8325 -0.3019  0.9153
30559SOL    HW2 3403  12.824   4.199  13.330  0.0069 -1.8287  0.1516
30560SOL     OW 3404  13.432   5.501   9.477  0.1907 -0.0246  0.3714
30560SOL    HW1 3405  13.470   5.555   9.547  0.3688  0.6914 -0.2698
30560SOL    HW2 3406  13.375   5.561   9.429  0.4810 -0.3809 -0.4235
30561SOL     OW 3407   4.407   0.401  10.547  0.4259  0.6351  0.4888
30561SOL    HW1 3408   4.331   0.447  10.514 -0.8362 -1.7186 -0.0607
30561SOL    HW2 3409   4.461   0.384  10.470  1.2464  1.7467  0.7903
30562SOL     OW 3410   9.595   3.818  10.154  0.0436  0.4427 -0.7043
30562SOL    HW1 3411   9.526   3.794  10.217  0.0416  1.4398 -0.3137
30562SOL    HW2 3412   9.677   3.807  10.202  0.4756 -3.2938 -1.9075
30563SOL     OW 3413   1.900   2.391   0.826  0.7546  0.1463  0.1413
30563SOL    HW1 3414   1.840   2.326   0.862  1.4839 -1.0733 -0.7550
30563SOL    HW2 3415   1.878   2.395   0.733 -1.2176  3.3769  0.6103
30564SOL     OW 3416   4.431   7.589  12.011 -0.0989 -0.2239 -0.2207
30564SOL    HW1 3417   4.498   7.523  11.995 -0.0207 -0.4298  0.8383
30564SOL    HW2 3418   4.453   7.624  12.098 -1.4082 -0.3692  0.1949
30565SOL     OW 3419   5.243  12.541   0.409  0.1061  0.5555 -0.1313
30565SOL    HW1 3420   5.282  12.574   0.490  0.9771 -0.2947 -0.1968
30565SOL    HW2 3421   5.256  12.612   0.345 -0.6697  1.2694  0.4747
30566SOL     OW 3422  11.664   5.124   1.927  0.1114  0.3272  0.3002
30566SOL    HW1 3423  11.751   5.083   1.929  0.5614  1.2808  2.0376
30566SOL    HW2 3424  11.617   5.076   1.859  1.6984 -0.8097 -0.0594
30567SOL     OW 3425   6.859   0.572  11.584 -0.0725  0.5873 -0.1639
30567SOL    HW1 3426   6.890   0.533  11.666 -0.2949 -0.4425 -0.5553
30567SOL    HW2 3427   6.934   0.620  11.550 -0.1049  1.3906  0.8594
30568SOL     OW 3428  12.116   3.330   2.994  0.2354  0.1609 -0.3277
30568SOL    HW1 3429  12.042   3.273   2.974 -1.3950  1.9235  0.3137
30568SOL    HW2 3430  12.146   3.301   3.080  0.9883 -1.2159 -1.0280
30569SOL     OW 3431   7.332   7.299   0.511 -0.1956  0.5040 -0.3441
30569SOL    HW1 3432   7.349   7.231   0.446  0.2652  0.1470  0.1401
30569SOL    HW2 3433   7.309   7.376   0.460 -2.1720 -0.3755 -0.8858
30570SOL     OW 3434  12.418   1.830   1.772  0.2010 -0.1318 -0.0187
30570SOL    HW1 3435  12.421   1.735   1.782  3.4829  0.0375  2.0965
30570SOL    HW2 3436  12.387   1.863   1.857  1.1275  0.7315  0.0057
30571SOL     OW 3437   4.473  12.384   8.104  0.1355 -0.1167  0.0350
30571SOL    HW1 3438   4.406  12.436   8.148  1.1513 -0.6942  2.4443
30571SOL    HW2 3439   4.440  12.295   8.107  0.6764 -0.3078  0.6443
30572SOL     OW 3440   6.852   1.320  10.523  0.3273 -0.1517 -0.4979
30572SOL    HW1 3441   6.900   1.302  10.604 -0.1460  2.2505  0.4269
30572SOL    HW2 3442   6.787   1.385  10.549  0.1073  0.6363 -2.8101
30573SOL     OW 3443  10.990   5.707   8.822  0.2295 -0.4266  0.2871
30573SOL    HW1 3444  10.936   5.785   8.815  2.0007  0.9668  1.1599
30573SOL    HW2 3445  10.947   5.654   8.890 -0.6751  0.0656  0.1150
30574SOL     OW 3446   4.095  13.068   6.928  0.6499  0.4510  0.1172
30574SOL    HW1 3447   4.174  13.116   6.950  0.0997  0.8920  1.2259
30574SOL    HW2 3448   4.103  12.986   6.978  1.2537 -0.3221 -1.2100
30575SOL     OW 3449   9.174   2.345  12.270 -0.0946  0.1744  0.1928
30575SOL    HW1 3450   9.176   2.257  12.232  1.6628 -0.2317  1.1498
30575SOL    HW2 3451   9.196   2.403  12.197 -0.3450 -0.2411 -0.2231
30576SOL     OW 3452   2.527   9.737   1.296 -0.1700 -0.3108 -0.4667
30576SOL    HW1 3453   2.529   9.673   1.367  2.7200  1.4150  1.2145
30576SOL    HW2 3454   2.448   9.788   1.312 -0.8314 -1.4652  0.0452
30577SOL     OW 3455  12.708   0.267   9.408 -0.6820  0.3277  0.2284
30577SOL    HW1 3456  12.769   0.338   9.388  0.7870 -0.4388  1.7660
30577SOL    HW2 3457  12.737   0.233   9.492 -2.2806 -1.1329  0.2493
30578SOL     OW 3458   2.773  10.317   3.289  0.3974  0.1356  0.5967
30578SOL    HW1 3459   2.789  10.320   3.383  0.0731 -0.4625  0.6738
30578SOL    HW2 3460   2.856  10.345   3.250 -0.5294  4.2105  1.0829
30579SOL     OW 3461   0.315  10.895  10.269  0.0686 -0.0003  0.1374
30579SOL    HW1 3462   0.230  10.877  10.310 -0.2074 -3.1092 -1.5049
30579SOL    HW2 3463   0.294  10.910  10.177  1.1308  1.9068  0.1483
30580SOL     OW 3464   0.298   5.056   9.819 -0.5236 -0.1533 -0.0864
30580SOL    HW1 3465   0.329   5.133   9.867 -2.3662  0.0085  0.9532
30580SOL    HW2 3466   0.377   5.007   9.799  0.8295  2.4586 -1.6971
30581SOL     OW 3467   9.321   3.035  11.274 -0.7634  0.0658 -0.6608
30581SOL    HW1 3468   9.321   3.047  11.179 -0.2511  0.1777 -0.6522
30581SOL    HW2 3469   9.414   3.035  11.298 -0.9031  0.8292 -0.0617
30582SOL     OW 3470   0.737  10.438   6.247 -0.5424 -0.2728  0.2463
30582SOL    HW1 3471   0.801  10.372   6.272 -1.2358 -2.2102 -2.5341
30582SOL    HW2 3472   0.788  10.516   6.227  0.5920 -0.8009  1.0352
30583SOL     OW 3473   8.608  12.757   4.847  0.4599  0.4876  0.2053
30583SOL    HW1 3474   8.598  12.768   4.942 -0.3078  2.1927 -0.0475
30583SOL    HW2 3475   8.541  12.693   4.823  0.1146  0.6641  0.6964
30584SOL     OW 3476  10.984   7.042   2.906  0.5527  0.4895  0.0209
30584SOL    HW1 3477  10.994   7.024   2.812  3.2832  1.2272  0.0803
30584SOL    HW2 3478  11.073   7.060   2.936 -0.4309  1.6729  2.4771
30585SOL     OW 3479   4.016   1.150  13.347 -0.0549 -0.1766 -0.2766
30585SOL    HW1 3480   4.083   1.217  13.336  0.3181 -0.9109 -3.9861
30585SOL    HW2 3481   4.059   1.079  13.393  2.0889 -0.8796 -3.1009
30586SOL     OW 3482   4.924   4.556   6.873  0.2488  0.2353 -0.5003
30586SOL    HW1 3483   4.930   4.647   6.844  0.6849  0.2528 -0.3649
30586SOL    HW2 3484   5.014   4.524   6.869  0.2837  0.1668  0.5962
30587SOL     OW 3485   8.358  12.321   0.137  0.0474 -0.6718  0.0938
30587SOL    HW1 3486   8.350  12.318   0.042 -0.0005 -0.5037  0.0920
30587SOL    HW2 3487   8.442  12.280   0.156  0.2406 -0.3440 -0.0498
30588SOL     OW 3488   9.190   6.748  11.239  0.0550  0.8306 -0.1056
30588SOL    HW1 3489   9.142   6.785  11.314  1.3665  0.3205  1.0393
30588SOL    HW2 3490   9.277   6.728  11.275  0.8784  1.0184 -1.9061
30589SOL     OW 3491   5.520   9.663  10.634  0.0916  0.0499  0.2154
30589SOL    HW1 3492   5.488   9.744  10.675  0.4962  0.1866  0.2631
30589SOL    HW2 3493   5.614   9.677  10.623  0.1800 -0.4567  0.3183
30590SOL     OW 3494   9.933   3.875  11.973  0.5191 -0.9821  0.3303
30590SOL    HW1 3495  10.028   3.879  11.974  0.5369  1.9479 -0.9894
30590SOL    HW2 3496   9.912   3.786  12.000  3.5973 -1.6604  0.8660
30591SOL     OW 3497   3.588   8.014   1.805 -0.0116  0.4077  0.1577
30591SOL    HW1 3498   3.618   7.927   1.830 -1.1626 -0.0515 -0.0036
30591SOL    HW2 3499   3.653   8.046   1.742  1.0921  0.1927  1.1492
30592SOL     OW 3500  10.875  10.258   8.149  0.3065 -0.2025  0.2981
30592SOL    HW1 3501  10.941  10.235   8.215 -0.2315 -0.9764  0.5768
30592SOL    HW2 3502  10.799  10.204   8.171 -0.3512  0.5201 -0.1487
30593SOL     OW 3503   0.031  10.873   1.168 -0.0651 -0.0601  0.4292
30593SOL    HW1 3504   0.093  10.900   1.101  0.0871  0.3782  0.7406
30593SOL    HW2 3505   0.040  10.939   1.237  0.3635 -0.9201  1.2389
30594SOL     OW 3506   5.008   1.044   5.933 -0.0015 -0.1224  0.8881
30594SOL    HW1 3507   4.957   1.061   6.013 -0.5058  2.4672  0.1232
30594SOL    HW2 3508   5.099   1.038   5.963 -0.3585 -0.9754  1.8427
30595SOL     OW 3509  11.677   5.640   8.954  0.4308  0.0934 -0.3774
30595SOL    HW1 3510  11.604   5.578   8.951  0.1608  0.3957 -0.1473
30595SOL    HW2 3511  11.749   5.591   8.994  0.1765 -0.0306 -0.0708
30596SOL     OW 3512   7.696  13.124  11.557 -0.1599 -0.6570 -0.2257
30596SOL    HW1 3513   7.644  13.055  11.514 -1.9618  0.8401 -0.5425
30596SOL    HW2 3514   7.737  13.171  11.484  0.9968 -1.2862 -0.0117
30597SOL     OW 3515   4.658   9.589   4.963  0.1172  1.0542  0.3295
30597SOL    HW1 3516   4.605   9.536   4.904  0.9079 -0.4605  0.9351
30597SOL    HW2 3517   4.597   9.655   4.997 -1.0268  0.2103 -0.0356
30598SOL     OW 3518  10.674   1.630   3.705  0.2900 -0.0917  0.2437
30598SOL    HW1 3519  10.594   1.607   3.658  1.2357 -2.0992 -0.4912
30598SOL    HW2 3520  10.714   1.699   3.650 -1.1396  1.3480  0.9177
30599SOL     OW 3521  12.456  10.273  12.287  0.0087 -0.2118  0.0003
30599SOL    HW1 3522  12.438  10.334  12.216  0.1211 -0.4473 -0.2294
30599SOL    HW2 3523  12.379  10.280  12.344  0.4874  0.9329  0.5465
30600SOL     OW 3524   3.212   2.780   9.115 -0.1255  0.1968  0.2411
30600SOL    HW1 3525   3.152   2.735   9.174  1.6824  0.4084  2.4055
30600SOL    HW2 3526   3.268   2.833   9.173  1.2505  1.0830 -1.7465
30601SOL     OW 3527   3.682  10.637  13.525  0.0879 -0.1492 -0.1314
30601SOL    HW1 3528   3.621  10.565  13.540 -1.6028  1.4160  0.9007
30601SOL    HW2 3529   3.670  10.660  13.433  0.3429 -0.8860 -0.3615
30602SOL     OW 3530  10.444   1.033  11.631  0.3654 -0.0452 -0.2529
30602SOL    HW1 3531  10.486   1.118  11.615 -0.2777  0.2879 -0.2508
30602SOL    HW2 3532  10.372   1.031  11.568 -1.1481  0.5316  1.3773
30603SOL     OW 3533  10.369   9.822   5.664  0.3630 -0.2007 -0.3049
30603SOL    HW1 3534  10.276   9.827   5.643  0.1668  1.2654  0.7842
30603SOL    HW2 3535  10.401   9.747   5.614 -1.0967  0.1431 -1.8264
30604SOL     OW 3536   1.438   1.875   6.026 -0.5083 -0.0910 -0.6177
30604SOL    HW1 3537   1.463   1.908   6.112 -1.3611  1.2299 -0.8470
30604SOL    HW2 3538   1.433   1.780   6.037 -2.1215  0.1406  1.2215
30605SOL     OW 3539   7.712   4.522   8.942 -0.4258  0.4389  0.2751
30605SOL    HW1 3540   7.705   4.427   8.934  0.5140  0.2534  1.3392
30605SOL    HW2 3541   7.674   4.556   8.862  1.1163 -0.9302 -1.1193
30606SOL     OW 3542   7.022   9.175   7.227 -0.4123  0.1917 -0.4034
30606SOL    HW1 3543   7.105   9.222   7.231  0.5765 -1.2796 -2.3970
30606SOL    HW2 3544   7.041   9.088   7.261 -1.4704  0.2080  0.2947
30607SOL     OW 3545  10.460  12.151   7.121 -0.0365  0.3472 -0.5112
30607SOL    HW1 3546  10.553  12.147   7.100  0.4199  2.6904  0.6430
30607SOL    HW2 3547  10.429  12.061   7.114  2.4499 -0.5926 -0.3110
30608SOL     OW 3548   9.831  12.414   1.779 -0.4199  0.0941  0.0460
30608SOL    HW1 3549   9.777  12.367   1.842  0.6312 -2.4153 -0.8135
30608SOL    HW2 3550   9.911  12.438   1.828 -1.5136  2.3954  0.8699
30609SOL     OW 3551   1.533  12.929   1.698  0.6372  0.0504  0.0509
30609SOL    HW1 3552   1.567  12.843   1.720 -1.1066 -0.5496  0.5370
30609SOL    HW2 3553   1.555  12.984   1.773  0.5098 -0.3358  0.3716
30610SOL     OW 3554   2.165  10.570   7.782 -0.2929 -0.0966 -0.0924
30610SOL    HW1 3555   2.234  10.535   7.838  1.5808  0.7271 -1.7623
30610SOL    HW2 3556   2.086  10.568   7.836  1.2800  0.1447  2.3454
30611SOL     OW 3557   5.893   0.863   5.568 -0.0315 -0.1384  0.0772
30611SOL    HW1 3558   5.959   0.829   5.507 -0.1381 -1.8655  0.8676
30611SOL    HW2 3559   5.809   0.847   5.524 -0.0487  4.1769 -2.0146
30612SOL     OW 3560  11.446  12.398   3.536  0.3495 -0.5699 -0.2804
30612SOL    HW1 3561  11.465  12.315   3.493  2.1125 -0.1986 -0.2733
30612SOL    HW2 3562  11.449  12.463   3.466 -1.5779 -0.5480 -0.3857
30613SOL     OW 3563   1.748  13.520   9.818 -0.5293  0.5733  0.2401
30613SOL    HW1 3564   1.702  13.598   9.848 -0.0323  1.1803 -0.5139
30613SOL    HW2 3565   1.770  13.473   9.898 -0.3841  1.4767  0.7508
30614SOL     OW 3566   8.741   9.269   0.464 -0.3754  0.0632  0.5476
30614SOL    HW1 3567   8.659   9.318   0.462 -0.2078  0.3311 -1.2414
30614SOL    HW2 3568   8.716   9.181   0.490 -0.9908  0.5163  1.5623
30615SOL     OW 3569   5.989   5.900   3.026  0.5844 -0.5170 -0.0540
30615SOL    HW1 3570   5.935   5.829   3.062 -0.0595  0.8523  1.8594
30615SOL    HW2 3571   5.931   5.943   2.964  0.4746 -0.7992 -0.1515
30616SOL     OW 3572   5.691  12.672   6.416 -0.3231 -0.5731  0.3257
30616SOL    HW1 3573   5.765  12.732   6.428  0.3355 -0.8410 -1.8939
30616SOL    HW2 3574   5.666  12.647   6.504  0.0983  2.0860  1.2671
30617SOL     OW 3575   8.997   2.003   3.595  0.3498  0.1025  0.2316
30617SOL    HW1 3576   9.000   2.005   3.500 -0.8048 -1.3783  0.1334
30617SOL    HW2 3577   8.912   2.042   3.617  0.9781  1.2476  0.7195
30618SOL     OW 3578   0.618   7.708   8.257  0.2474 -0.0983 -0.1780
30618SOL    HW1 3579   0.612   7.733   8.349 -0.5757  1.2422 -0.5649
30618SOL    HW2 3580   0.560   7.633   8.249  0.1885 -0.1134  0.3664
30619SOL     OW 3581   3.648   8.089   6.102  0.4620  0.6070  0.1114
30619SOL    HW1 3582   3.739   8.117   6.098  0.5318  0.4344  0.4902
30619SOL    HW2 3583   3.649   8.008   6.152  0.5010 -1.2178 -2.6417
30620SOL     OW 3584   7.751   6.389   7.744  0.2800  0.0475  0.3545
30620SOL    HW1 3585   7.808   6.391   7.821 -0.3926 -0.1589  0.8626
30620SOL    HW2 3586   7.756   6.298   7.714 -0.4642 -0.1829  0.9188
30621SOL     OW 3587   2.252  13.635  13.047  0.7040  0.3237  0.2314
30621SOL    HW1 3588   2.201  13.612  13.124  1.5677  1.9500  1.3654
30621SOL    HW2 3589   2.207  13.712  13.011  0.1156 -0.6233 -1.1084
30622SOL     OW 3590   5.430   4.747   2.952 -0.0198 -0.1118 -0.4424
30622SOL    HW1 3591   5.338   4.752   2.928  0.0819 -1.9467 -1.3290
30622SOL    HW2 3592   5.433   4.782   3.041 -0.9943  3.2588 -1.5711
30623SOL     OW 3593   3.380   2.950   9.934 -0.2598 -0.1297  0.2731
30623SOL    HW1 3594   3.437   2.965   9.859 -2.0026 -2.2265 -1.6230
30623SOL    HW2 3595   3.305   3.008   9.919  0.2274  0.8593  1.4753
30624SOL     OW 3596   0.525   6.552   4.479  0.0215 -0.3590  0.3059
30624SOL    HW1 3597   0.432   6.552   4.501 -0.2833  0.3972 -0.8881
30624SOL    HW2 3598   0.542   6.640   4.446  0.4831 -1.3003 -2.1727
30625SOL     OW 3599  12.836   9.452   1.694  0.2067 -0.0185  0.2078
30625SOL    HW1 3600  12.740   9.445   1.699  0.1653  0.2884 -0.0902
30625SOL    HW2 3601  12.854   9.544   1.711  0.2367  0.5307 -2.3861
30626SOL     OW 3602  10.524   5.531   8.365  0.3690 -0.2270 -0.3520
30626SOL    HW1 3603  10.482   5.452   8.332  1.3095 -0.3374 -1.3521
30626SOL    HW2 3604  10.548   5.510   8.455 -1.7129 -0.1335  0.2699
30627SOL     OW 3605   5.390   3.955  11.856  0.7380  0.1376  0.6520
30627SOL    HW1 3606   5.468   3.990  11.813  0.9001 -0.1104  0.7412
30627SOL    HW2 3607   5.324   4.024  11.846  1.0625  0.4803  0.8582
30628SOL     OW 3608  10.302   2.831   8.953  0.1011  0.1343 -0.7781
30628SOL    HW1 3609  10.329   2.840   8.862  0.6278 -0.6109 -0.7087
30628SOL    HW2 3610  10.384   2.819   9.001 -0.0445  1.7905 -0.0172
30629SOL     OW 3611   4.022   7.692  11.751 -0.0021 -0.0410  0.2256
30629SOL    HW1 3612   4.066   7.775  11.768  0.1166 -0.1530  0.4603
30629SOL    HW2 3613   3.941   7.717  11.706  1.3551  0.0671 -2.3890
30630SOL     OW 3614   7.423  10.336   1.143  0.3416  0.2129 -0.0790
30630SOL    HW1 3615   7.412  10.294   1.058  0.5917  0.2783 -0.1433
30630SOL    HW2 3616   7.462  10.421   1.124 -0.9506  0.8451 -0.0203
30631SOL     OW 3617   2.205  12.625  11.623  0.4401  0.3144  0.4272
30631SOL    HW1 3618   2.223  12.688  11.692 -0.6499  0.7735  0.3158
30631SOL    HW2 3619   2.129  12.661  11.577  1.0145 -0.0870 -0.8833
30632SOL     OW 3620   9.925   3.707   7.137 -0.2534 -0.0518  0.1903
30632SOL    HW1 3621   9.919   3.802   7.147 -0.9640  0.2201 -2.1732
30632SOL    HW2 3622   9.909   3.672   7.225 -2.0408  1.9640  0.7529
30633SOL     OW 3623   9.764   1.009   9.517  0.2883 -0.2146  0.8503
30633SOL    HW1 3624   9.845   0.960   9.535  1.4880  1.5559  0.5430
30633SOL    HW2 3625   9.782   1.097   9.549 -0.2260  1.1236 -2.2171
30634SOL     OW 3626   3.803   6.961  11.279 -0.8116  0.0086 -0.8722
30634SOL    HW1 3627   3.722   6.963  11.330 -0.7566  0.9395 -0.8132
30634SOL    HW2 3628   3.872   6.970  11.345 -0.6608 -0.5887 -0.9428
30635SOL     OW 3629   7.403   2.597   1.797 -0.0778 -0.6795  0.6133
30635SOL    HW1 3630   7.326   2.652   1.784  0.1157 -0.0400  1.9228
30635SOL    HW2 3631   7.477   2.658   1.789  0.1918 -0.9499  1.0166
30636SOL     OW 3632   7.772   1.688   7.809 -0.4072 -0.0226  0.9267
30636SOL    HW1 3633   7.737   1.770   7.843 -0.6811 -0.2838  1.2805
30636SOL    HW2 3634   7.745   1.686   7.717  2.5252  1.9436 -0.1273
30637SOL     OW 3635  13.066   8.510   7.869 -0.0291 -0.2862 -0.0554
30637SOL    HW1 3636  13.121   8.471   7.802 -0.6233  0.9021 -1.3078
30637SOL    HW2 3637  13.108   8.593   7.890 -0.1799 -0.3667  0.5955
30638SOL     OW 3638  11.787   3.351   4.751 -0.6115  0.1967 -0.0242
30638SOL    HW1 3639  11.857   3.394   4.703  0.2156 -0.2309  0.7618
30638SOL    HW2 3640  11.713   3.351   4.690 -0.0755  1.0505 -0.7089
30639SOL     OW 3641  11.700   7.778   3.876 -0.2682 -0.0155 -0.1298
30639SOL    HW1 3642  11.754   7.711   3.833 -1.7318 -0.9729 -0.5465
30639SOL    HW2 3643  11.760   7.821   3.937  0.5581 -2.1561  0.6553
30640SOL     OW 3644   8.578   0.888  10.736 -0.3048  0.0430  0.1425
30640SOL    HW1 3645   8.605   0.942  10.662 -0.6203  0.9003  0.6447
30640SOL    HW2 3646   8.544   0.950  10.800 -0.8458 -0.7698  0.6574
30641SOL     OW 3647  10.655   8.372   9.273  0.7964  0.0244  0.0978
30641SOL    HW1 3648  10.692   8.346   9.189 -0.8691  0.2391 -0.7658
30641SOL    HW2 3649  10.662   8.295   9.328 -1.3165 -1.3868 -1.4323
30642SOL     OW 3650  11.673   8.129   4.772  0.4517 -0.2267  0.1317
30642SOL    HW1 3651  11.644   8.123   4.681 -1.7921  1.4600  0.6460
30642SOL    HW2 3652  11.625   8.059   4.816  0.2223  0.0249  0.2866
30643SOL     OW 3653   2.631   4.962  10.746 -0.0826 -0.9450  0.2166
30643SOL    HW1 3654   2.578   5.041  10.734  1.0672 -0.2777 -0.7579
30643SOL    HW2 3655   2.666   4.944  10.659  0.5682 -1.8746  0.6605
30644SOL     OW 3656   9.321   9.926  10.779  0.9887 -0.2517  0.0081
30644SOL    HW1 3657   9.397   9.886  10.735 -0.3812 -4.1664  0.8330
30644SOL    HW2 3658   9.281   9.982  10.712  2.3227 -1.2973 -1.7414
30645SOL     OW 3659   9.531   9.985   2.974 -0.5363  0.1469  0.0864
30645SOL    HW1 3660   9.443   9.950   2.955 -0.3209  0.5389 -1.8317
30645SOL    HW2 3661   9.581   9.908   3.002 -1.6259  0.0293  1.9357
30646SOL     OW 3662   9.679   2.790   1.910  0.1256 -0.3987 -0.4252
30646SOL    HW1 3663   9.640   2.704   1.923  1.4810 -0.9927 -0.1325
30646SOL    HW2 3664   9.763   2.773   1.868  0.4812  0.7638 -0.2370
30647SOL     OW 3665   5.586  11.194   0.034 -0.0288  0.1309  0.0622
30647SOL    HW1 3666   5.629  11.124   0.083  1.9229  1.1275 -0.1427
30647SOL    HW2 3667   5.523  11.231   0.096 -0.9988 -1.6591  0.2179
30648SOL     OW 3668   7.358  11.665  12.352 -0.1178 -0.6868 -0.7613
30648SOL    HW1 3669   7.360  11.752  12.391 -1.6186 -0.7184 -0.5247
30648SOL    HW2 3670   7.446  11.651  12.318  0.2402  0.7803 -0.5021
30649SOL     OW 3671   7.090   2.894   0.484  0.0319  0.1751  0.4032
30649SOL    HW1 3672   7.169   2.860   0.525  0.4454  0.3759 -0.2310
30649SOL    HW2 3673   7.052   2.820   0.438  0.7061  0.4548 -0.6230
30650SOL     OW 3674   9.570   4.797   3.317  1.0761 -0.0573  0.3842
30650SOL    HW1 3675   9.480   4.786   3.346  0.7890  2.1088  0.4839
30650SOL    HW2 3676   9.574   4.750   3.233 -0.3052  0.2449  0.1245
30651SOL     OW 3677  11.858  12.379  13.305  0.5438  0.0316  0.0064
30651SOL    HW1 3678  11.829  12.325  13.231  0.5084  0.4680 -0.3015
30651SOL    HW2 3679  11.952  12.361  13.312  0.3653 -0.7376  0.4655
30652SOL     OW 3680   7.388   4.184   6.195  0.1333 -0.0107  0.8294
30652SOL    HW1 3681   7.450   4.133   6.143  0.1554  0.6258  0.2184
30652SOL    HW2 3682   7.436   4.208   6.274  1.0872  1.4778 -0.1524
30653SOL     OW 3683   7.573   0.014   2.684  0.0724  0.3440 -0.1572
30653SOL    HW1 3684   7.535   0.083   2.738 -0.5666 -0.7672  0.8747
30653SOL    HW2 3685   7.569   0.048   2.595  0.8113  2.0748  0.4289
30654SOL     OW 3686   0.124   4.145  13.139  0.4906 -0.0649 -0.3972
30654SOL    HW1 3687   0.077   4.095  13.073 -2.1944  0.6675  0.8163
30654SOL    HW2 3688   0.111   4.095  13.220  0.2582  1.0646  0.2811
30655SOL     OW 3689   6.400   5.459   7.717  0.0376 -0.2008  0.2457
30655SOL    HW1 3690   6.349   5.530   7.676  0.0295 -0.8175 -0.8560
30655SOL    HW2 3691   6.432   5.407   7.643  0.1190 -1.2974  1.0324
30656SOL     OW 3692   9.409   8.491   2.895 -1.0653 -0.4402 -0.5902
30656SOL    HW1 3693   9.440   8.458   2.810  0.8777 -1.0878  0.3336
30656SOL    HW2 3694   9.456   8.440   2.960 -0.5163  1.8354  0.9188
30657SOL     OW 3695  11.995   3.206   9.916 -0.1310  0.5410 -0.1864
30657SOL    HW1 3696  12.080   3.210   9.872 -0.1043 -0.9406 -0.3173
30657SOL    HW2 3697  12.016   3.182  10.006 -0.3706  0.7417 -0.0781
30658SOL     OW 3698   5.511   9.031   4.021 -0.2978  0.5476  0.4283
30658SOL    HW1 3699   5.426   9.011   3.984  0.2823 -2.9491  0.6844
30658SOL    HW2 3700   5.572   8.970   3.979  1.6953  1.4533  1.7960
30659SOL     OW 3701   1.667   4.655   4.567 -0.4212  0.5218  0.6082
30659SOL    HW1 3702   1.583   4.611   4.560 -0.1025 -0.0383  0.1913
30659SOL    HW2 3703   1.672   4.685   4.658 -1.6142  1.6918  0.3207
30660SOL     OW 3704   1.093   7.607   6.439  0.7089 -0.1690 -0.0715
30660SOL    HW1 3705   1.025   7.545   6.414  0.0413  0.1776  0.8503
30660SOL    HW2 3706   1.092   7.607   6.535  0.1908  1.7994 -0.0367
30661SOL     OW 3707  11.614   0.486  10.950 -0.1071  0.6900  0.0323
30661SOL    HW1 3708  11.656   0.569  10.931  0.3522  0.0967 -1.7214
30661SOL    HW2 3709  11.650   0.425  10.885 -2.9434 -0.0598 -0.9838
30662SOL     OW 3710   7.342   7.432  12.674  0.8313  0.2514  0.3266
30662SOL    HW1 3711   7.401   7.367  12.637 -0.7499 -1.1805  0.1690
30662SOL    HW2 3712   7.290   7.462  12.599 -0.0950 -0.1553  0.7840
30663SOL     OW 3713   8.901  11.034   9.257  0.1125  0.4292  0.8253
30663SOL    HW1 3714   8.982  11.084   9.262 -0.3587  1.1402  1.6835
30663SOL    HW2 3715   8.924  10.947   9.289  0.9852  0.0013 -0.8695
30664SOL     OW 3716   4.016  13.018   0.124 -0.4964 -0.5403  0.0064
30664SOL    HW1 3717   3.977  12.931   0.119 -0.5141 -0.6598  1.6746
30664SOL    HW2 3718   4.110  13.001   0.127 -0.4410 -0.4218 -0.8145
30665SOL     OW 3719  13.218   4.800   1.759 -0.1283 -0.3526 -0.3793
30665SOL    HW1 3720  13.306   4.836   1.748 -0.7403  1.4198  0.1679
30665SOL    HW2 3721  13.225   4.709   1.731  1.8298 -0.1885 -0.5247
30666SOL     OW 3722   1.726   9.464   1.117 -0.1208 -0.0615 -0.5834
30666SOL    HW1 3723   1.815   9.460   1.153 -1.1657  0.9843  2.4512
30666SOL    HW2 3724   1.736   9.512   1.034  2.0014  1.0391  0.2233
30667SOL     OW 3725  12.826   5.909   8.808  0.0623 -0.2154 -0.2301
30667SOL    HW1 3726  12.844   5.821   8.842  0.7166 -0.0940 -0.2487
30667SOL    HW2 3727  12.803   5.895   8.716  0.1485 -0.3751 -0.2285
30668SOL     OW 3728   0.530  10.930  10.441  0.2565  0.9781  0.0595
30668SOL    HW1 3729   0.446  10.918  10.396 -0.3415  0.3602  1.3016
30668SOL    HW2 3730   0.595  10.901  10.377 -0.5756  0.1046 -0.4229
30669SOL     OW 3731  10.276   3.208   8.102 -0.4986 -0.1841  0.3834
30669SOL    HW1 3732  10.336   3.256   8.159  0.4011 -1.0248  0.1718
30669SOL    HW2 3733  10.326   3.194   8.021 -1.7769  1.0824 -0.6826
30670SOL     OW 3734   1.796   5.742  12.515 -0.5489 -0.2894 -0.2962
30670SOL    HW1 3735   1.739   5.817  12.503 -1.6997 -1.3007 -1.4217
30670SOL    HW2 3736   1.779   5.686  12.439 -0.9364 -2.4619  1.2914
30671SOL     OW 3737   7.176   8.189   9.915 -0.0420  0.2506 -0.8454
30671SOL    HW1 3738   7.086   8.157   9.924  0.1762 -0.4408 -1.0148
30671SOL    HW2 3739   7.193   8.238   9.995  0.3342 -1.9238  0.4980
30672SOL     OW 3740   4.788   3.256   0.678  0.2967  0.1870  0.0485
30672SOL    HW1 3741   4.830   3.180   0.718  1.2779  0.2487 -0.8363
30672SOL    HW2 3742   4.840   3.331   0.708 -0.9077  0.5902  1.2495
30673SOL     OW 3743   0.887   2.511  11.192 -0.7260 -0.3400  0.2315
30673SOL    HW1 3744   0.961   2.460  11.226 -1.8663 -1.9442  0.3738
30673SOL    HW2 3745   0.860   2.565  11.266 -0.0274 -0.1086  0.3307
30674SOL     OW 3746   7.264   3.163   6.706 -0.2744  0.0368 -0.4581
30674SOL    HW1 3747   7.299   3.084   6.666  1.2532 -0.5109  1.8031
30674SOL    HW2 3748   7.314   3.234   6.665 -0.1820 -0.3246 -0.9828
30675SOL     OW 3749   1.904   0.042   9.521 -0.5303  0.1304  0.5074
30675SOL    HW1 3750   1.832   0.021   9.462 -0.8469 -0.3116  1.0426
30675SOL    HW2 3751   1.894   0.135   9.540  1.0080  0.9435 -2.0611
30676SOL     OW 3752   2.512   6.307   1.037 -0.4741  0.1675 -0.0832
30676SOL    HW1 3753   2.519   6.357   0.955  0.0112  0.0964 -0.0861
30676SOL    HW2 3754   2.570   6.233   1.024 -0.4180  0.1433  0.3214
30677SOL     OW 3755   8.711   2.745   2.656 -0.3548 -0.3396 -0.2313
30677SOL    HW1 3756   8.676   2.775   2.572 -1.2086  1.0126  0.5655
30677SOL    HW2 3757   8.707   2.823   2.712 -1.1465 -1.5615  1.4875
30678SOL     OW 3758   1.781   1.383   0.681 -0.1215 -0.3402  0.4685
30678SOL    HW1 3759   1.740   1.332   0.751 -0.4847  0.0474  0.5447
30678SOL    HW2 3760   1.837   1.321   0.635  0.2856 -0.5494  1.2382
30679SOL     OW 3761   7.739  13.071   7.903 -0.0929  0.1430 -0.4048
30679SOL    HW1 3762   7.649  13.040   7.904  0.1234 -0.4967  0.2379
30679SOL    HW2 3763   7.790  12.998   7.937  0.3653  1.4289  1.8503
30680SOL     OW 3764  10.366   4.793   1.029 -0.2523 -0.3825  0.2200
30680SOL    HW1 3765  10.342   4.743   0.951 -0.1147 -0.8329  0.4677
30680SOL    HW2 3766  10.447   4.839   1.004 -0.4613 -0.1583 -0.0564
30681SOL     OW 3767  12.446  13.554  12.436  0.1716  0.0700 -0.0948
30681SOL    HW1 3768  12.533  13.547  12.476  0.6240  0.1272 -1.0471
30681SOL    HW2 3769  12.389  13.506  12.495  0.6619  0.8876  1.0886
30682SOL     OW 3770   7.229   2.234  11.425  0.6184  0.0186 -0.5818
30682SOL    HW1 3771   7.299   2.171  11.407  2.0216  1.1512  0.5658
30682SOL    HW2 3772   7.190   2.205  11.508  2.1875  1.2967  0.6967
30683SOL     OW 3773   9.026   3.120   8.771  0.1060  0.1917 -0.9715
30683SOL    HW1 3774   8.958   3.075   8.820 -0.3921  0.9321 -0.9558
30683SOL    HW2 3775   9.005   3.104   8.679  0.6117 -0.5772 -0.9607
30684SOL     OW 3776   6.111  10.860  11.539  0.7385  1.1232 -0.0700
30684SOL    HW1 3777   6.085  10.940  11.494 -0.4211  1.4419  1.1028
30684SOL    HW2 3778   6.029  10.823  11.571  1.3722  0.0554  0.3691
30685SOL     OW 3779   3.374  10.944   7.178  0.2218  0.1957  0.3293
30685SOL    HW1 3780   3.312  11.008   7.213  1.0885  1.8312 -1.0147
30685SOL    HW2 3781   3.460  10.985   7.189  1.0497 -1.6676  1.3754
30686SOL     OW 3782   1.866   7.689   8.893 -0.0829  0.3251 -0.1058
30686SOL    HW1 3783   1.838   7.656   8.979  0.3558 -0.3013 -0.1997
30686SOL    HW2 3784   1.941   7.745   8.912 -1.2244  1.8549  0.1263
30687SOL     OW 3785   7.806  13.026  11.823 -0.5866 -0.6762 -0.1884
30687SOL    HW1 3786   7.894  13.063  11.828 -0.9190  0.3579 -1.3974
30687SOL    HW2 3787   7.776  13.048  11.735 -1.9657 -1.2239  0.1247
30688SOL     OW 3788  12.542   3.883   4.125 -0.3426  0.1137  0.0861
30688SOL    HW1 3789  12.620   3.886   4.180 -0.5844  2.1460  0.4003
30688SOL    HW2 3790  12.548   3.962   4.070 -1.9229  0.0680 -0.2079
30689SOL     OW 3791   2.572   5.459   9.017 -0.1791  0.1695  0.0995
30689SOL    HW1 3792   2.552   5.549   8.991  0.1696 -0.3573 -2.1760
30689SOL    HW2 3793   2.652   5.467   9.068 -1.0510  1.2992  1.3689
30690SOL     OW 3794   7.162  10.403  10.975  0.4106 -0.3052  0.1421
30690SOL    HW1 3795   7.245  10.418  10.931 -0.5419 -0.4590 -1.8034
30690SOL    HW2 3796   7.098  10.396  10.904 -1.1734 -0.7911  1.5548
30691SOL     OW 3797  13.001   9.578   7.627 -0.1568 -0.2077  0.3131
30691SOL    HW1 3798  13.036   9.505   7.678  0.2190 -0.3120 -0.0859
30691SOL    HW2 3799  12.971   9.641   7.693  0.1305 -0.4323  0.6650
30692SOL     OW 3800   4.883   8.472   5.879  0.1782 -0.1090 -0.7219
30692SOL    HW1 3801   4.975   8.454   5.859  1.4257  2.7356  1.6118
30692SOL    HW2 3802   4.866   8.557   5.836 -1.1619 -0.2775 -0.5548
30693SOL     OW 3803   3.495   3.631   6.850 -0.1344 -0.3386  0.4310
30693SOL    HW1 3804   3.498   3.606   6.758 -3.3071  0.2437  0.0538
30693SOL    HW2 3805   3.516   3.724   6.850 -0.8333 -0.1733  0.1725
30694SOL     OW 3806   3.041  10.905   0.768  0.5747 -0.2120 -0.6528
30694SOL    HW1 3807   3.039  10.882   0.674  0.7035  1.5213 -1.1035
30694SOL    HW2 3808   2.958  10.949   0.783 -0.4288 -2.3925  0.6156
30695SOL     OW 3809   9.572  12.498   1.506  1.1192  0.0458  0.2688
30695SOL    HW1 3810   9.655  12.482   1.551  1.2172  0.2123  0.1480
30695SOL    HW2 3811   9.563  12.427   1.443  1.1742  0.0337  0.2752
30696SOL     OW 3812   7.074   6.730   1.969 -0.2009  0.0899 -0.7286
30696SOL    HW1 3813   7.089   6.642   1.935  0.7655 -0.1444  0.2747
30696SOL    HW2 3814   7.160   6.760   1.996 -0.6019  1.1724 -0.6222
30697SOL     OW 3815   9.692   6.562   2.244  0.2613 -0.0481  0.1058
30697SOL    HW1 3816   9.649   6.576   2.328  1.2517 -2.4020  1.1098
30697SOL    HW2 3817   9.632   6.503   2.197  1.5020 -2.0181  0.8624
30698SOL     OW 3818   9.220  11.187   1.788  0.5744 -0.3864  0.6171
30698SOL    HW1 3819   9.204  11.249   1.716  0.5975 -0.2742  0.7097
30698SOL    HW2 3820   9.205  11.101   1.748  1.8998 -0.3993  0.1102
30699SOL     OW 3821   8.554   5.378  13.535  0.5089 -0.2864 -0.3692
30699SOL    HW1 3822   8.520   5.466  13.553 -0.6003 -0.7163 -0.2996
30699SOL    HW2 3823   8.602   5.388  13.453 -3.2387 -0.4242 -2.8075
30700SOL     OW 3824  10.645   4.162   0.918  0.2348 -0.0674 -0.0427
30700SOL    HW1 3825  10.551   4.146   0.932  0.0502  0.4610 -0.5954
30700SOL    HW2 3826  10.663   4.125   0.832  0.8313 -1.2826  0.5884
30701SOL     OW 3827   6.505  13.381  11.729  0.0404  0.1535  0.2828
30701SOL    HW1 3828   6.417  13.415  11.711 -0.1219 -0.0621  0.6700
30701SOL    HW2 3829   6.493  13.288  11.744 -0.0610  0.5319  3.0193
30702SOL     OW 3830   8.675   3.608   8.495  0.4260  0.0200  0.3539
30702SOL    HW1 3831   8.700   3.558   8.417 -1.0223  1.6068 -1.2032
30702SOL    HW2 3832   8.579   3.607   8.495  0.3790  1.5408  1.0955
30703SOL     OW 3833   1.746  11.678   8.379 -0.4978  0.1222  0.1649
30703SOL    HW1 3834   1.770  11.718   8.463 -1.4502  0.1313  0.4489
30703SOL    HW2 3835   1.802  11.722   8.315  0.4763 -0.1270  0.8338
30704SOL     OW 3836   7.784  13.448   2.986  0.4295 -0.7686  0.1919
30704SOL    HW1 3837   7.869  13.423   2.948  1.5357  1.3009  1.1367
30704SOL    HW2 3838   7.794  13.430   3.080  0.5466  1.1679  0.5928
30705SOL     OW 3839   1.928   2.665   0.434  0.1308  0.5576  0.4914
30705SOL    HW1 3840   2.009   2.616   0.422  0.2001  0.5907  0.8219
30705SOL    HW2 3841   1.924   2.724   0.358 -0.7731 -1.0706 -0.7971
30706SOL     OW 3842   7.704   5.580   9.318  0.1204 -0.5072 -0.1017
30706SOL    HW1 3843   7.755   5.499   9.306  0.7683 -0.1663  0.2880
30706SOL    HW2 3844   7.753   5.647   9.271  0.5788  0.0303  1.1013
30707SOL     OW 3845   5.859  10.680   0.485 -0.6759  0.3413 -0.3033
30707SOL    HW1 3846   5.863  10.630   0.403 -1.6570 -1.1447  0.4936
30707SOL    HW2 3847   5.811  10.760   0.462 -1.5281 -0.3603 -1.0651
30708SOL     OW 3848   7.778  11.342  11.022  0.1425 -0.3959  0.0427
30708SOL    HW1 3849   7.826  11.421  11.044 -0.1480  0.7237 -2.9050
30708SOL    HW2 3850   7.690  11.356  11.056 -0.0266  0.7894 -0.8308
30709SOL     OW 3851   2.965  11.406  12.692 -0.4996  0.1801  0.3829
30709SOL    HW1 3852   2.887  11.389  12.744 -2.4398  1.0284 -2.0227
30709SOL    HW2 3853   2.980  11.325  12.643  0.3749 -0.0998  1.0944
30710SOL     OW 3854   2.253   0.639   0.264 -0.0668 -0.4316 -0.5662
30710SOL    HW1 3855   2.230   0.675   0.350 -2.1788  0.2478 -1.3647
30710SOL    HW2 3856   2.200   0.560   0.256  0.5091 -0.7769 -1.0646
30711SOL     OW 3857   4.779  12.619  10.442  0.3281 -0.2226 -0.6051
30711SOL    HW1 3858   4.704  12.576  10.483 -0.0403 -0.3066 -1.3489
30711SOL    HW2 3859   4.850  12.609  10.506  0.2437 -1.8904 -0.7242
30712SOL     OW 3860   7.772   8.922   9.134  0.0215 -0.4169  0.4515
30712SOL    HW1 3861   7.854   8.963   9.160  0.3729  0.3846 -1.7102
30712SOL    HW2 3862   7.756   8.856   9.202  2.2359 -0.3386  1.1442
30713SOL     OW 3863   2.675   3.719   9.577  0.2598  0.0968 -0.6215
30713SOL    HW1 3864   2.641   3.808   9.585  1.1632  0.4178 -0.2369
30713SOL    HW2 3865   2.600   3.663   9.598  0.2488  0.8004  1.3664
30714SOL     OW 3866   4.096   2.457  11.850  0.3901 -0.8066 -0.3540
30714SOL    HW1 3867   4.100   2.362  11.845 -1.8587 -0.9717 -0.0663
30714SOL    HW2 3868   4.109   2.477  11.943  0.1470 -0.8981 -0.2991
30715SOL     OW 3869   2.254   5.955  12.394 -0.3382  0.4728 -0.3294
30715SOL    HW1 3870   2.349   5.963  12.395 -0.3630  0.7539  0.3283
30715SOL    HW2 3871   2.226   6.014  12.323 -0.0041  0.1155 -0.7611
30716SOL     OW 3872  13.197   6.716   5.350  0.1542  0.2916 -0.3483
30716SOL    HW1 3873  13.163   6.684   5.433  0.2397  1.3868  0.1197
30716SOL    HW2 3874  13.119   6.746   5.303  0.3558  2.2926  0.5027
30717SOL     OW 3875   3.939   8.730   1.374 -0.1803 -0.4480  0.6440
30717SOL    HW1 3876   3.958   8.723   1.280 -1.4436 -2.0555  0.4670
30717SOL    HW2 3877   3.862   8.787   1.378  0.0685 -0.1180  0.7328
30718SOL     OW 3878  13.627  10.019   2.113  0.6448  0.1946 -0.0754
30718SOL    HW1 3879  13.589  10.096   2.154  0.2945  0.5862 -1.0959
30718SOL    HW2 3880  13.590   9.945   2.163  1.4525  0.6773  1.2836
30719SOL     OW 3881   7.498   9.296   4.980  0.0247  0.3509 -0.2327
30719SOL    HW1 3882   7.537   9.295   5.067  1.0492  1.2083 -0.6618
30719SOL    HW2 3883   7.475   9.204   4.963  2.1437 -0.2575 -0.0682
30720SOL     OW 3884  11.755   1.946   3.161 -0.3169  0.3585  0.3638
30720SOL    HW1 3885  11.729   2.038   3.172  1.4895  0.8710  0.6049
30720SOL    HW2 3886  11.744   1.929   3.067 -0.0206  1.0282  0.2045
30721SOL     OW 3887  11.789   8.181  10.233  0.0571 -0.2473 -0.1324
30721SOL    HW1 3888  11.725   8.211  10.168 -0.1377  0.0402  0.1887
30721SOL    HW2 3889  11.786   8.085  10.228 -1.6443 -0.2929  1.0642
30722SOL     OW 3890   2.321   9.116   4.246 -0.1942  0.2160  0.4084
30722SOL    HW1 3891   2.298   9.202   4.280 -0.0388  0.4676 -0.1126
30722SOL    HW2 3892   2.300   9.120   4.153  2.4463  0.6863 -0.2640
30723SOL     OW 3893  10.598  12.573   9.972  0.2219 -0.1484 -0.0125
30723SOL    HW1 3894  10.610  12.632   9.898 -0.3670 -0.9385 -0.7430
30723SOL    HW2 3895  10.563  12.630  10.041 -0.6841  0.3071 -0.8188
30724SOL     OW 3896  12.035   3.133   4.073 -0.2104  0.3019 -0.3035
30724SOL    HW1 3897  11.957   3.188   4.080 -0.6031 -0.2927  0.0438
30724SOL    HW2 3898  12.107   3.196   4.064 -0.5696  0.9061  0.7729
30725SOL     OW 3899  11.774  10.091   2.618 -0.1254 -0.3957  0.1420
30725SOL    HW1 3900  11.724  10.011   2.604  0.0892 -0.4659 -0.2356
30725SOL    HW2 3901  11.777  10.133   2.531 -0.1972 -0.0022  0.3261
30726SOL     OW 3902   0.030   9.574   0.276  0.3270  0.2953 -0.5278
30726SOL    HW1 3903   0.018   9.596   0.368 -0.1070 -1.6344 -0.0942
30726SOL    HW2 3904  -0.058   9.560   0.243  0.5900 -1.2258 -0.6448
30727SOL     OW 3905  12.153   8.700  11.804  0.4111 -0.0134  0.2134
30727SOL    HW1 3906  12.108   8.752  11.871 -0.4680 -0.5570  0.0676
30727SOL    HW2 3907  12.213   8.644  11.853  1.1199  0.8923  0.3953
30728SOL     OW 3908  12.865   4.158  12.113 -0.0961 -0.6948 -0.4438
30728SOL    HW1 3909  12.873   4.159  12.018 -1.7350 -0.6859 -0.6136
30728SOL    HW2 3910  12.771   4.163  12.129  0.1563 -0.5946  1.1843
30729SOL     OW 3911  11.220   8.465   0.627  0.5644  0.7344 -0.1300
30729SOL    HW1 3912  11.189   8.555   0.627 -1.4597  0.0925 -0.8368
30729SOL    HW2 3913  11.306   8.469   0.670 -0.1423  2.7309  1.2229
30730SOL     OW 3914  11.632   0.270   5.192  0.2189 -0.4873 -0.3399
30730SOL    HW1 3915  11.594   0.182   5.193  1.0311 -0.8640 -1.2763
30730SOL    HW2 3916  11.671   0.278   5.105 -0.3017  1.0022 -0.4561
30731SOL     OW 3917   4.737   9.217   2.849 -0.4762 -0.2978  0.3671
30731SOL    HW1 3918   4.772   9.130   2.829  1.8660  0.9116 -1.4300
30731SOL    HW2 3919   4.671   9.202   2.916  0.3706 -3.3627  0.6769
30732SOL     OW 3920  11.050   1.000  10.879 -0.2289 -0.2233 -0.3104
30732SOL    HW1 3921  11.122   1.027  10.822 -0.9784  1.0642 -0.7145
30732SOL    HW2 3922  11.040   1.073  10.940 -2.7060  0.8141 -1.7905
30733SOL     OW 3923  10.851   8.365   1.255 -0.5615 -0.1485 -0.0230
30733SOL    HW1 3924  10.854   8.286   1.201  2.6424  0.4197 -0.9163
30733SOL    HW2 3925  10.917   8.351   1.322 -1.3292  1.0146  1.0259
30734SOL     OW 3926  12.894   8.417  10.202 -0.5506  0.5327 -0.2883
30734SOL    HW1 3927  12.809   8.445  10.238 -0.1330 -0.8753  2.0328
30734SOL    HW2 3928  12.957   8.437  10.271  0.7722  0.1344 -1.3444
30735SOL     OW 3929   0.283   1.176   1.499  0.1146  0.5152 -0.3657
30735SOL    HW1 3930   0.265   1.134   1.415  0.1146 -3.1633  1.2720
30735SOL    HW2 3931   0.202   1.222   1.521 -1.3327 -1.6731 -0.7511
30736SOL     OW 3932   0.225   4.614   4.199  0.0650  0.3163 -0.1987
30736SOL    HW1 3933   0.211   4.689   4.257  0.6933  0.6432 -0.4652
30736SOL    HW2 3934   0.286   4.646   4.133  1.0071 -0.6847  0.1697
30737SOL     OW 3935   5.807   9.591   6.690  0.1343 -0.4618 -0.2613
30737SOL    HW1 3936   5.781   9.535   6.616 -1.4562  1.2021 -1.0415
30737SOL    HW2 3937   5.755   9.671   6.679 -1.1383 -0.6016  3.3351
30738SOL     OW 3938  11.265  10.673   7.063  0.2072 -0.4184  0.2332
30738SOL    HW1 3939  11.247  10.614   6.990  1.6325  0.7128 -1.1226
30738SOL    HW2 3940  11.250  10.621   7.141  0.1907 -2.1636 -0.8844
30739SOL     OW 3941  10.650   8.687   0.993  0.0118 -0.2619 -0.1963
30739SOL    HW1 3942  10.634   8.614   1.053 -1.2726 -0.0183 -0.2149
30739SOL    HW2 3943  10.629   8.652   0.906 -1.3091  0.3047 -0.1326
30740SOL     OW 3944  13.437   9.758   4.049  0.2287  0.2740 -0.0665
30740SOL    HW1 3945  13.342   9.763   4.054  0.1879 -1.0159  1.3033
30740SOL    HW2 3946  13.454   9.701   3.974 -0.0236  1.2774 -0.9059
30741SOL     OW 3947   5.790  11.541   8.754 -0.2445 -0.3703 -0.0734
30741SOL    HW1 3948   5.851  11.599   8.708  0.4224 -0.8860  0.1311
30741SOL    HW2 3949   5.704  11.560   8.715  0.0573  0.3170 -0.4216
30742SOL     OW 3950   7.209   9.589   5.742  1.1823 -0.1358  0.3277
30742SOL    HW1 3951   7.193   9.598   5.836 -1.6189  3.3812 -0.2730
30742SOL    HW2 3952   7.125   9.561   5.705  0.9001  2.6138 -1.4228
30743SOL     OW 3953  12.044  10.011   5.004 -0.4686 -0.0871  0.3348
30743SOL    HW1 3954  12.095   9.962   5.069  0.7102  0.4439 -0.1477
30743SOL    HW2 3955  12.058   9.963   4.922  1.3969  1.4560 -0.3190
30744SOL     OW 3956   3.525   6.776  11.438 -0.1590  0.6548  0.5598
30744SOL    HW1 3957   3.492   6.686  11.440 -0.0828  0.6241  0.4213
30744SOL    HW2 3958   3.576   6.784  11.519  0.7685  0.2151  0.0302
30745SOL     OW 3959   7.484  11.007  12.935  0.2645 -0.1006  0.5006
30745SOL    HW1 3960   7.478  11.097  12.903  0.2456 -0.4405 -0.4964
30745SOL    HW2 3961   7.467  10.953  12.857 -0.6367 -0.9638  1.2744
30746SOL     OW 3962   6.776   0.019  12.643 -0.2881 -0.1727  0.0484
30746SOL    HW1 3963   6.821   0.026  12.558 -0.0774 -1.0061  0.0775
30746SOL    HW2 3964   6.710   0.088  12.641  0.1444  0.2359 -0.5290
30747SOL     OW 3965   0.260   9.760  10.248  0.1353  0.1974 -0.0541
30747SOL    HW1 3966   0.175   9.745  10.208  0.0948 -0.9247  0.4237
30747SOL    HW2 3967   0.322   9.762  10.174 -0.1077 -0.5071 -0.2775
30748SOL     OW 3968   2.677  11.766   1.284  0.1796  0.4667 -0.4529
30748SOL    HW1 3969   2.752  11.767   1.225  0.6293  0.2437  0.1116
30748SOL    HW2 3970   2.684  11.848   1.334 -1.1583  1.5199 -1.8696
30749SOL     OW 3971   8.595   1.625   1.753 -0.2834 -0.0191 -0.3916
30749SOL    HW1 3972   8.630   1.711   1.731  1.1436 -0.4007  0.2579
30749SOL    HW2 3973   8.535   1.641   1.826 -0.4641  0.4909 -0.6497
30750SOL     OW 3974   7.816   5.489   4.802 -0.0862 -0.8948  0.1630
30750SOL    HW1 3975   7.822   5.410   4.855  1.7155 -1.3701 -0.6590
30750SOL    HW2 3976   7.780   5.460   4.719 -0.6626 -0.5928  0.3010
30751SOL     OW 3977  11.311  12.780   9.413 -0.3539  0.7011 -0.2886
30751SOL    HW1 3978  11.222  12.814   9.417 -0.9009 -0.7218  0.3793
30751SOL    HW2 3979  11.332  12.756   9.503  0.8975  1.4497 -0.3552
30752SOL     OW 3980  12.445   6.644   6.122  0.1998  0.1953  0.3008
30752SOL    HW1 3981  12.506   6.573   6.144 -0.6454 -0.9803 -0.9363
30752SOL    HW2 3982  12.448   6.702   6.198  0.9131 -1.1708  1.3812
30753SOL     OW 3983   5.858   4.996   8.022  0.0018 -0.1159 -0.0291
30753SOL    HW1 3984   5.932   4.938   8.008  0.7425  0.6597  0.5651
30753SOL    HW2 3985   5.783   4.937   8.034  0.4609 -0.8971 -0.9191
30754SOL     OW 3986   3.546   4.159   9.729  0.2703 -0.7284 -0.3471
30754SOL    HW1 3987   3.576   4.231   9.785 -0.2649  0.2943 -1.3473
30754SOL    HW2 3988   3.451   4.170   9.725  0.2263 -1.2679 -0.8063
30755SOL     OW 3989  12.735   0.323   9.757 -0.0946  0.4033  0.0390
30755SOL    HW1 3990  12.796   0.397   9.751 -1.9906  2.1993  1.5251
30755SOL    HW2 3991  12.670   0.351   9.821 -2.5013 -1.4300 -1.4434
30756SOL     OW 3992  12.956   2.183   8.366  0.0826  0.1001 -0.1063
30756SOL    HW1 3993  12.890   2.191   8.297  2.4143 -0.0868 -2.5410
30756SOL    HW2 3994  13.011   2.261   8.356  1.9857 -1.1921 -0.2356
30757SOL     OW 3995   1.870  13.622  10.073  0.2377 -0.4015  0.3291
30757SOL    HW1 3996   1.910  13.690  10.020 -1.4132 -0.0845 -0.5530
30757SOL    HW2 3997   1.935  13.605  10.142  1.2020  1.1672 -0.1377
30758SOL     OW 3998   4.940   5.947   2.597  0.2229  0.0012 -0.0833
30758SOL    HW1 3999   4.874   5.891   2.637  1.0325  0.4797  2.0687
30758SOL    HW2 4000   4.907   6.036   2.610 -0.0895  0.1497 -1.6771
30759SOL     OW 4001   4.904   8.288   0.596  0.3176  0.3864  0.4756
30759SOL    HW1 4002   4.962   8.269   0.522 -1.6596 -0.7785 -0.8688
30759SOL    HW2 4003   4.846   8.357   0.564 -2.5649 -2.1841 -0.3321
30760SOL     OW 4004   5.988  12.755   2.561  0.3011  0.4102  0.1263
30760SOL    HW1 4005   6.068  12.796   2.593  0.4316  0.6354 -0.4910
30760SOL    HW2 4006   6.018  12.680   2.511  0.2203  1.4352 -1.5187
30761SOL     OW 4007  12.049  11.403   6.013 -0.2280 -0.7075  0.2688
30761SOL    HW1 4008  12.084  11.342   6.079 -1.5220 -1.1259  0.6084
30761SOL    HW2 4009  12.027  11.482   6.063 -0.1496 -0.5971  0.1293
30762SOL     OW 4010   6.853   4.273  11.397 -0.2377  0.5729  0.5946
30762SOL    HW1 4011   6.905   4.192  11.395 -2.6083 -1.0383 -0.7161
30762SOL    HW2 4012   6.826   4.281  11.488 -0.9398 -0.8177  0.5366
30763SOL     OW 4013   9.999  13.256   8.735  0.1271 -0.0608 -0.2749
30763SOL    HW1 4014  10.084  13.223   8.766  1.0219  1.8559 -0.5258
30763SOL    HW2 4015   9.945  13.178   8.726  2.0744 -1.4501 -0.7625
30764SOL     OW 4016   9.518   0.509   9.150  0.1079  0.0965 -0.2421
30764SOL    HW1 4017   9.594   0.501   9.207  0.2374 -2.7590 -0.6682
30764SOL    HW2 4018   9.451   0.456   9.192 -0.4439 -0.4102 -1.7054
30765SOL     OW 4019  11.985   4.131   3.293  0.4837 -0.5944  0.2686
30765SOL    HW1 4020  12.065   4.079   3.287  2.1264  1.5766  1.8828
30765SOL    HW2 4021  11.992   4.177   3.376 -2.4199 -0.2232  0.4091
30766SOL     OW 4022  10.010   0.172  12.915  0.1434  0.4046 -0.1084
30766SOL    HW1 4023  10.090   0.138  12.876 -0.4369  1.2963 -2.1988
30766SOL    HW2 4024  10.035   0.199  13.003  1.2376 -2.8498  0.7144
30767SOL     OW 4025   1.433  13.280   0.260  0.1105  0.5642 -0.3864
30767SOL    HW1 4026   1.506  13.338   0.282 -0.2122  0.2052  1.7653
30767SOL    HW2 4027   1.425  13.221   0.334 -1.7859 -0.0186 -0.9958
30768SOL     OW 4028  10.269  12.620  13.160  0.1952  0.3465 -0.1864
30768SOL    HW1 4029  10.184  12.654  13.133  1.0424  0.2156 -3.5345
30768SOL    HW2 4030  10.313  12.599  13.077  2.4375 -2.1826  1.4769
30769SOL     OW 4031   2.393   7.848   9.869  0.2384  0.1091 -0.3339
30769SOL    HW1 4032   2.426   7.895   9.946 -0.2960  0.9601 -0.6080
30769SOL    HW2 4033   2.468   7.797   9.838  0.0154 -1.6176  1.7346
30770SOL     OW 4034   5.517   4.089   9.408 -0.2250 -0.1249 -0.1906
30770SOL    HW1 4035   5.607   4.062   9.391  0.4695  2.7546 -1.6069
30770SOL    HW2 4036   5.525   4.174   9.452 -2.2522  0.2187 -0.3698
30771SOL     OW 4037   9.973   9.082   6.580  0.2099 -0.7778 -0.5145
30771SOL    HW1 4038   9.958   9.166   6.537 -0.2928 -1.0783 -0.9432
30771SOL    HW2 4039   9.889   9.060   6.620  0.3781 -1.0112 -0.2838
30772SOL     OW 4040   2.964   1.817   0.521 -0.1235  0.5683  0.3224
30772SOL    HW1 4041   2.890   1.759   0.534 -0.7406  1.7762  2.8925
30772SOL    HW2 4042   3.006   1.785   0.441 -0.8953 -2.8347  1.1079
30773SOL     OW 4043  11.858   3.973   5.789 -0.0676 -0.0729 -0.3127
30773SOL    HW1 4044  11.930   4.008   5.842 -0.9706  1.3821 -0.0014
30773SOL    HW2 4045  11.828   3.896   5.837 -0.3588  0.7730  0.9065
30774SOL     OW 4046   2.655  10.556  13.136 -0.1254 -0.1221  0.2093
30774SOL    HW1 4047   2.621  10.546  13.047  0.6689 -1.5458  0.0367
30774SOL    HW2 4048   2.714  10.631  13.130 -1.9769  1.4024  0.1630
30775SOL     OW 4049  12.302   5.243   9.335 -0.0646  0.3503  0.3012
30775SOL    HW1 4050  12.311   5.149   9.348  0.4961 -0.3141 -3.7336
30775SOL    HW2 4051  12.378   5.281   9.379 -0.7565 -0.8755  2.7496
30776SOL     OW 4052   2.845  11.495  13.494 -0.4380 -0.2589 -0.1097
30776SOL    HW1 4053   2.918  11.434  13.502  1.0944  1.2804 -1.6989
30776SOL    HW2 4054   2.834  11.507  13.400 -1.2617  1.2534  0.1539
30777SOL     OW 4055   3.602   4.570   7.131  0.0994  0.9360  0.2163
30777SOL    HW1 4056   3.509   4.587   7.150 -0.2897 -0.5914 -0.1557
30777SOL    HW2 4057   3.602   4.543   7.039  0.8704  0.6043  0.3124
30778SOL     OW 4058   0.448  13.401   1.546  0.2302 -0.1602 -0.4068
30778SOL    HW1 4059   0.418  13.438   1.629  0.2696  0.1321 -0.5185
30778SOL    HW2 4060   0.543  13.410   1.549  0.3478 -1.3911  0.0889
30779SOL     OW 4061   4.653   6.150  11.449 -0.7958  0.0068  0.5974
30779SOL    HW1 4062   4.593   6.106  11.508 -0.8424 -0.0059  0.5402
30779SOL    HW2 4063   4.614   6.141  11.363 -0.6446 -0.1176  0.5414
30780SOL     OW 4064   3.323   0.081  10.718  0.0012 -0.7306  0.6785
30780SOL    HW1 4065   3.323   0.175  10.738 -1.2362 -0.6660  0.4667
30780SOL    HW2 4066   3.411   0.063  10.687 -0.1213  0.6500 -0.5889
30781SOL     OW 4067   8.859   0.818  12.159  0.1852  0.3859 -0.0940
30781SOL    HW1 4068   8.840   0.845  12.070 -0.6592 -0.1409 -0.0830
30781SOL    HW2 4069   8.822   0.730  12.167  2.5689 -0.6698 -0.0156
30782SOL     OW 4070  11.374   6.095   9.053 -0.0240  0.6869  0.7239
30782SOL    HW1 4071  11.434   6.152   9.005 -2.1366  1.8539 -0.6910
30782SOL    HW2 4072  11.406   6.006   9.036 -0.4934  1.0310 -2.7545
30783SOL     OW 4073   4.985   1.464  11.613 -0.8729 -0.0483 -0.2854
30783SOL    HW1 4074   5.047   1.463  11.687 -1.7490  0.4648  0.4833
30783SOL    HW2 4075   5.034   1.427  11.540  0.1136 -0.3107  0.4861
30784SOL     OW 4076   5.397   9.234   0.729 -0.0839 -0.0021 -0.3959
30784SOL    HW1 4077   5.413   9.326   0.750 -0.0613 -0.3092  1.0206
30784SOL    HW2 4078   5.484   9.196   0.718 -0.0876  0.0722 -0.7056
30785SOL     OW 4079   6.278  11.337   5.451 -0.7052  0.3550 -0.2994
30785SOL    HW1 4080   6.260  11.268   5.515  0.1667  0.8244  0.4739
30785SOL    HW2 4081   6.341  11.395   5.494  0.4075  0.3406 -1.8158
30786SOL     OW 4082   1.926   3.963   2.060  0.4379 -0.7722 -0.0255
30786SOL    HW1 4083   1.966   4.049   2.048 -0.7101 -0.2670 -0.2921
30786SOL    HW2 4084   1.987   3.917   2.118  0.8263  0.3781  0.5077
30787SOL     OW 4085   7.709   3.675   7.675  0.0727 -0.3831 -0.1026
30787SOL    HW1 4086   7.676   3.662   7.586  0.3752 -3.5050  0.1293
30787SOL    HW2 4087   7.782   3.614   7.683 -1.0719 -1.5229  2.8122
30788SOL     OW 4088   0.157   2.997   0.566 -0.3350 -0.1910 -0.1536
30788SOL    HW1 4089   0.105   3.034   0.637  1.7918  2.1100  0.3577
30788SOL    HW2 4090   0.108   3.018   0.487 -0.0700  2.3247  0.2700
30789SOL     OW 4091  12.863   7.638   9.214  0.2516  0.1013  0.3029
30789SOL    HW1 4092  12.911   7.719   9.232  1.5319 -0.1395 -1.6852
30789SOL    HW2 4093  12.771   7.665   9.212  0.5766  1.3057  0.6245
30790SOL     OW 4094  10.631   5.554   0.752 -0.1518 -0.4764  0.1847
30790SOL    HW1 4095  10.558   5.502   0.785  0.2308 -1.2167 -0.1179
30790SOL    HW2 4096  10.598   5.644   0.753 -1.1969 -0.8366 -0.3043
30791SOL     OW 4097   7.686   6.032   1.191 -0.3377  0.2635 -0.3343
30791SOL    HW1 4098   7.781   6.046   1.194 -0.2535 -0.1989 -0.6442
30791SOL    HW2 4099   7.652   6.080   1.266 -0.0160  1.6300 -1.0219
30792SOL     OW 4100   1.743   8.171   1.218 -0.3575 -0.4325  0.7180
30792SOL    HW1 4101   1.764   8.106   1.151 -1.1613 -2.9158  2.7311
30792SOL    HW2 4102   1.669   8.220   1.182 -0.8237 -1.7619 -0.1736
30793SOL     OW 4103   5.188   1.360   5.928 -0.3068  0.0285  0.4289
30793SOL    HW1 4104   5.268   1.328   5.970  0.4420  2.6618  1.2339
30793SOL    HW2 4105   5.142   1.408   5.997 -2.4833 -1.1451 -0.1096
30794SOL     OW 4106  11.848   8.104  10.990 -0.4081  0.4546 -0.3780
30794SOL    HW1 4107  11.790   8.139  11.057  0.0854 -0.3347  0.4952
30794SOL    HW2 4108  11.935   8.108  11.030 -0.1609 -0.4146 -0.8062
30795SOL     OW 4109   6.150  11.850   3.519  0.3060 -0.0543  0.3945
30795SOL    HW1 4110   6.086  11.882   3.455  1.3947 -0.0236 -0.7146
30795SOL    HW2 4111   6.127  11.896   3.600 -1.8454 -0.9803  0.3842
30796SOL     OW 4112   6.934  11.062   1.468 -0.0299  0.0112  0.3826
30796SOL    HW1 4113   6.867  11.078   1.401 -0.9011  2.0803  1.6386
30796SOL    HW2 4114   6.894  10.999   1.528 -1.0915  1.5322  1.3421
30797SOL     OW 4115  11.062  12.146   1.217  0.4103  0.1402 -0.1547
30797SOL    HW1 4116  11.056  12.157   1.122 -0.8352  0.2171 -0.0891
30797SOL    HW2 4117  10.985  12.191   1.251  1.6976  1.5668  1.0435
30798SOL     OW 4118   0.537   8.936   8.031 -0.0325  0.0167 -0.0329
30798SOL    HW1 4119   0.557   8.919   8.123  0.3696  0.8309  0.0486
30798SOL    HW2 4120   0.460   8.883   8.012 -0.1093 -0.1719  0.7719
30799SOL     OW 4121   1.951   9.775  10.082  0.2438 -0.2421  0.3652
30799SOL    HW1 4122   2.005   9.740  10.153 -0.4885  1.1683  1.6691
30799SOL    HW2 4123   2.001   9.851  10.051  0.4501 -0.7223 -0.5038
30800SOL     OW 4124   2.834   2.791  12.979  0.4635 -0.1777 -0.0104
30800SOL    HW1 4125   2.879   2.726  12.925 -0.3737 -1.3682  0.6782
30800SOL    HW2 4126   2.742   2.779  12.960  0.0922 -0.9657  1.9889
30801SOL     OW 4127   9.352   7.355   7.791 -0.3486  0.6141 -0.0246
30801SOL    HW1 4128   9.285   7.301   7.832 -1.0004  1.2296 -0.2722
30801SOL    HW2 4129   9.401   7.295   7.736 -0.4223  0.0763  0.4861
30802SOL     OW 4130   7.755  12.094  13.098  0.3986  0.1027  0.0902
30802SOL    HW1 4131   7.842  12.059  13.083 -0.3445 -1.5079 -0.7371
30802SOL    HW2 4132   7.709  12.025  13.146 -1.0278 -0.0044 -1.3219
30803SOL     OW 4133  13.276   7.118   3.907 -0.0487 -0.2796 -0.2407
30803SOL    HW1 4134  13.350   7.128   3.847 -1.1402  1.4877 -1.3982
30803SOL    HW2 4135  13.207   7.173   3.869 -1.2546 -0.2039  1.8988
30804SOL     OW 4136  12.242  12.080   6.036  0.2711  0.6558  0.2396
30804SOL    HW1 4137  12.190  12.104   5.959  1.1997  0.6854 -0.3823
30804SOL    HW2 4138  12.212  12.142   6.104 -0.8438  0.3591  0.0423
30805SOL     OW 4139   6.147   0.902   1.732  0.2042 -0.6769  0.3123
30805SOL    HW1 4140   6.092   0.887   1.655  1.0462  0.4459 -0.5374
30805SOL    HW2 4141   6.214   0.833   1.726  0.2867 -0.5745  0.0131
30806SOL     OW 4142   1.213   0.919   8.510  0.7634  0.1487 -0.4724
30806SOL    HW1 4143   1.167   0.969   8.577  1.0766 -1.2876  0.8783
30806SOL    HW2 4144   1.172   0.946   8.427 -2.6588 -1.1067  0.6189
30807SOL     OW 4145   5.404   9.335   7.195 -0.8919  0.2645  0.0200
30807SOL    HW1 4146   5.417   9.409   7.136  1.6006  1.0056  1.3745
30807SOL    HW2 4147   5.341   9.367   7.259  1.4356  2.0032  1.6200
30808SOL     OW 4148   7.914   7.021   9.158  0.1692 -0.6699  0.1850
30808SOL    HW1 4149   7.989   6.992   9.210  0.7794 -0.4482 -0.5470
30808SOL    HW2 4150   7.901   6.951   9.094  0.2725 -0.3276 -0.2112
30809SOL     OW 4151   9.307   4.924  13.433 -0.4369 -0.7448  0.0003
30809SOL    HW1 4152   9.329   5.017  13.445 -1.0661 -0.4677 -0.8487
30809SOL    HW2 4153   9.297   4.914  13.338 -0.1386 -1.7434  0.0645
30810SOL     OW 4154   5.321   2.422   6.835  0.1925  0.4928 -0.1939
30810SOL    HW1 4155   5.244   2.472   6.808  0.0356  0.5819  0.4186
30810SOL    HW2 4156   5.286   2.350   6.888  0.4599  0.0345 -0.6239
30811SOL     OW 4157   0.524   9.695   1.068 -0.7385 -0.1717 -0.3837
30811SOL    HW1 4158   0.493   9.783   1.043 -1.0236 -0.5341 -1.3692
30811SOL    HW2 4159   0.587   9.672   1.000  0.2860 -0.2262  0.5715
30812SOL     OW 4160   3.013   3.622   7.878  0.0487  0.1302 -0.0104
30812SOL    HW1 4161   3.058   3.538   7.886  0.3378  0.3147  0.3243
30812SOL    HW2 4162   3.065   3.671   7.814 -1.9246 -1.1232 -2.8095
30813SOL     OW 4163  12.067  13.289   8.767  0.3978 -0.1224 -0.1497
30813SOL    HW1 4164  12.128  13.305   8.839  1.0417 -1.3956 -0.3909
30813SOL    HW2 4165  12.109  13.221   8.714 -1.3023 -1.1307 -0.2554
30814SOL     OW 4166  12.821   1.662   0.148  0.2480 -0.0764  0.1645
30814SOL    HW1 4167  12.743   1.629   0.191 -0.3541  1.0871  0.0021
30814SOL    HW2 4168  12.789   1.717   0.077  1.2220 -0.3319 -0.4949
30815SOL     OW 4169   2.583   5.459   5.039  0.0556  0.1879 -0.7450
30815SOL    HW1 4170   2.585   5.432   4.948 -0.7544 -0.2304 -0.6464
30815SOL    HW2 4171   2.657   5.520   5.048 -0.0697  0.4988 -1.7500
30816SOL     OW 4172   9.979   9.497   0.863  0.4313 -0.2203 -0.5132
30816SOL    HW1 4173  10.012   9.579   0.826 -1.0985  0.3544 -0.6592
30816SOL    HW2 4174   9.941   9.450   0.789  0.5159 -0.6775 -0.2710
30817SOL     OW 4175   8.755   2.008   5.049  0.1211 -0.1971  0.4692
30817SOL    HW1 4176   8.801   2.040   4.971 -3.8333 -1.2974 -2.6668
30817SOL    HW2 4177   8.708   2.084   5.083 -0.9865 -0.3986 -0.5384
30818SOL     OW 4178  10.394  12.859   5.155  0.2247  0.5878 -0.1554
30818SOL    HW1 4179  10.323  12.811   5.112 -1.1344  2.2871  0.0947
30818SOL    HW2 4180  10.453  12.884   5.084  0.7606 -1.0555 -0.3350
30819SOL     OW 4181   7.104  12.289  13.376 -0.0649 -0.4739  0.1114
30819SOL    HW1 4182   7.059  12.317  13.456  1.0378  0.8852  0.3062
30819SOL    HW2 4183   7.180  12.239  13.408  0.8854  0.8310  0.0031
30820SOL     OW 4184  12.513  13.391   4.769 -0.0938 -0.0027 -0.3383
30820SOL    HW1 4185  12.569  13.367   4.695  0.7478  2.4252 -0.5835
30820SOL    HW2 4186  12.432  13.342   4.755 -0.2240  0.8333 -3.2838
30821SOL     OW 4187   1.250   0.525   2.646 -0.7774  0.2834 -0.1236
30821SOL    HW1 4188   1.162   0.556   2.668 -0.3726  1.2905  0.1711
30821SOL    HW2 4189   1.308   0.595   2.678  0.1635 -0.5969  0.1527
30822SOL     OW 4190   6.383   9.639   2.811  0.4479 -0.1932 -0.7590
30822SOL    HW1 4191   6.313   9.672   2.755  0.7399 -0.2219 -1.1529
30822SOL    HW2 4192   6.412   9.715   2.861 -1.4238 -0.6479  1.1585
30823SOL     OW 4193  11.880   9.994   4.290  0.2152  0.2107 -0.1524
30823SOL    HW1 4194  11.845   9.963   4.206  0.4346  0.3970 -0.3127
30823SOL    HW2 4195  11.949  10.055   4.266  1.5405 -1.1245  0.1607
30824SOL     OW 4196  13.052  11.730   9.817 -0.0440  0.1958 -0.1305
30824SOL    HW1 4197  13.095  11.649   9.792  0.1757  0.0288  0.7402
30824SOL    HW2 4198  13.013  11.711   9.902  0.1155  1.0344  0.1401
30825SOL     OW 4199  10.937  13.356  11.177  0.2473  0.5258 -0.1175
30825SOL    HW1 4200  10.851  13.314  11.171 -0.4491  1.8445  0.4181
30825SOL    HW2 4201  10.966  13.364  11.086 -0.3850  0.4606 -0.3316
30826SOL     OW 4202  12.243  12.600  13.069 -0.1974  0.2036  0.0651
30826SOL    HW1 4203  12.217  12.639  13.152  3.4543 -3.7433  3.5442
30826SOL    HW2 4204  12.318  12.652  13.040  0.2665 -0.0425  0.8098
30827SOL     OW 4205   1.796   8.898   0.705 -0.3459 -0.1348  0.5520
30827SOL    HW1 4206   1.877   8.867   0.664 -0.3524 -0.1842  0.5765
30827SOL    HW2 4207   1.790   8.990   0.680 -0.3786 -0.1799  0.3960
30828SOL     OW 4208  13.704  11.313  10.321 -0.0872  0.4253 -0.1877
30828SOL    HW1 4209  13.638  11.373  10.288 -1.3876 -0.0255  1.4392
30828SOL    HW2 4210  13.696  11.236  10.265  0.2618  1.0254 -1.0755
30829SOL     OW 4211  10.421  12.517   7.425 -0.3574 -0.0966  0.2659
30829SOL    HW1 4212  10.471  12.460   7.484  0.3771  1.3210  1.0789
30829SOL    HW2 4213  10.347  12.547   7.477 -0.8288 -0.4316 -0.2088
30830SOL     OW 4214   1.761   7.570   7.885  0.1578  0.3792 -0.1561
30830SOL    HW1 4215   1.825   7.636   7.911 -0.2603  0.2032  1.4200
30830SOL    HW2 4216   1.689   7.581   7.948 -0.1404 -1.2376 -0.1911
30831SOL     OW 4217  13.237  12.231   5.346 -0.3326 -0.1475  0.3744
30831SOL    HW1 4218  13.256  12.320   5.317 -2.6145  0.0087 -0.8659
30831SOL    HW2 4219  13.175  12.241   5.418 -2.6829 -0.6584 -1.4321
30832SOL     OW 4220   2.188  13.525   1.954  0.0038  0.0223 -0.3594
30832SOL    HW1 4221   2.276  13.551   1.926 -0.5173  0.9453 -1.2601
30832SOL    HW2 4222   2.137  13.606   1.949 -1.7190 -1.0760 -3.2728
30833SOL     OW 4223   7.197   3.382   9.338 -0.2281 -0.1977 -0.1398
30833SOL    HW1 4224   7.142   3.322   9.287 -1.4411  1.0178 -0.3253
30833SOL    HW2 4225   7.284   3.342   9.337 -1.2053 -2.5207  0.7101
30834SOL     OW 4226   9.824   1.946   4.993 -0.0817 -0.1469  0.0269
30834SOL    HW1 4227   9.831   2.027   5.043 -0.5718 -0.1884  0.1671
30834SOL    HW2 4228   9.881   1.885   5.038  0.7999  0.2988 -0.4527
30835SOL     OW 4229   7.255   0.902   7.112  0.9049  0.2145  0.4416
30835SOL    HW1 4230   7.173   0.952   7.107  1.4021  0.9061 -2.2764
30835SOL    HW2 4231   7.239   0.838   7.181 -2.5642 -0.7482 -1.0450
30836SOL     OW 4232   6.976  10.821  13.623  0.0028 -0.0118 -0.1994
30836SOL    HW1 4233   7.028  10.865  13.690  0.0248 -0.4022  0.0413
30836SOL    HW2 4234   7.019  10.845  13.540 -1.2639  2.2277 -0.3023
30837SOL     OW 4235   5.336  12.619   6.926 -0.0374 -0.2964  0.4462
30837SOL    HW1 4236   5.377  12.702   6.901  0.1002 -0.8625 -1.3092
30837SOL    HW2 4237   5.257  12.614   6.873 -0.5714 -0.8267  1.2802
30838SOL     OW 4238  13.299   2.196   8.428 -0.2937 -0.1969  0.0238
30838SOL    HW1 4239  13.388   2.162   8.440  1.1285  2.1682 -2.7027
30838SOL    HW2 4240  13.256   2.131   8.373  1.2491  0.5431 -2.2287
30839SOL     OW 4241   4.786  13.201   5.440 -0.1363  0.1526 -0.1725
30839SOL    HW1 4242   4.834  13.205   5.523 -0.6949  0.7185  0.1359
30839SOL    HW2 4243   4.773  13.107   5.425  0.7185  0.0061 -0.0690
30840SOL     OW 4244  12.452   6.335  10.751  0.1940 -0.1459  0.1044
30840SOL    HW1 4245  12.471   6.309  10.841  3.0352  0.8943 -0.0972
30840SOL    HW2 4246  12.535   6.324  10.705 -0.6686  1.2323 -1.9138
30841SOL     OW 4247   4.835  11.658   0.800  0.1074  0.7545  0.0957
30841SOL    HW1 4248   4.927  11.684   0.801 -0.0102  1.2062  1.5288
30841SOL    HW2 4249   4.788  11.734   0.767  0.2777  0.2865 -1.3130
30842SOL     OW 4250   2.264   4.002  12.637 -0.5066 -0.5457  0.1796
30842SOL    HW1 4251   2.196   3.935  12.637  0.2266 -1.3622  2.0985
30842SOL    HW2 4252   2.288   4.012  12.729  2.7113 -1.0501 -0.4662
30843SOL     OW 4253  10.729   7.531   0.324  0.3708  0.7124 -0.0069
30843SOL    HW1 4254  10.743   7.459   0.261 -0.8771  1.0933 -0.7518
30843SOL    HW2 4255  10.778   7.604   0.286  0.5807  0.6129  0.0720
30844SOL     OW 4256   4.108   1.380   0.809  0.1832  0.0179  0.0401
30844SOL    HW1 4257   4.087   1.299   0.854  0.7823 -0.8291 -1.1337
30844SOL    HW2 4258   4.055   1.378   0.729  0.6511  0.4697 -0.2956
30845SOL     OW 4259   6.303  10.901   9.387 -0.1373 -0.2512 -0.7247
30845SOL    HW1 4260   6.222  10.903   9.336 -0.6935  1.1883  0.1499
30845SOL    HW2 4261   6.277  10.868   9.473 -0.1001  1.4708 -0.0101
30846SOL     OW 4262  12.872  10.177   1.588 -0.2478 -0.1784 -0.4454
30846SOL    HW1 4263  12.851  10.269   1.601 -3.5381 -0.5740 -1.9489
30846SOL    HW2 4264  12.913  10.174   1.501 -0.6184 -0.1634 -0.6238
30847SOL     OW 4265   5.536  11.934  13.287  0.0963  0.0242 -1.0551
30847SOL    HW1 4266   5.599  11.862  13.291  0.0265  0.0152  0.2027
30847SOL    HW2 4267   5.463  11.906  13.342  0.9426  1.8362  1.1846
30848SOL     OW 4268   1.586   0.302  12.715 -0.0659  0.3805 -0.0996
30848SOL    HW1 4269   1.501   0.282  12.754 -0.6837  1.0525 -1.0644
30848SOL    HW2 4270   1.621   0.217  12.690 -2.5256  0.2321 -3.8873
30849SOL     OW 4271   6.877   1.938   8.571  0.2534  0.0276  0.5296
30849SOL    HW1 4272   6.913   1.852   8.552 -0.5546 -0.1877 -0.0263
30849SOL    HW2 4273   6.815   1.956   8.500  0.8491  1.3258  0.2931
30850SOL     OW 4274   5.365   0.742   9.750 -0.0616  0.4473  0.9014
30850SOL    HW1 4275   5.371   0.808   9.820  0.0417  1.8515 -0.3698
30850SOL    HW2 4276   5.272   0.743   9.725 -0.1753 -0.3444  1.2809
30851SOL     OW 4277   6.280  12.926   5.164 -0.1138 -0.0826  0.3396
30851SOL    HW1 4278   6.346  12.859   5.183  2.1272  2.3176  1.5457
30851SOL    HW2 4279   6.316  12.976   5.092 -0.4018  1.5052  1.2612
30852SOL     OW 4280  12.062   8.840   0.697  0.4752  0.4856  0.0415
30852SOL    HW1 4281  12.125   8.854   0.625  1.3659  1.1759  0.9136
30852SOL    HW2 4282  12.069   8.920   0.749 -0.4004  0.1305  0.7160
30853SOL     OW 4283   5.690   2.361  13.696  0.3352  0.0283  0.4711
30853SOL    HW1 4284   5.645   2.440  13.668  0.9240 -0.0689 -0.7839
30853SOL    HW2 4285   5.619   2.300  13.719 -0.1553  0.2379 -0.4616
30854SOL     OW 4286  12.105   8.759   0.280 -0.0707 -0.0646  0.6681
30854SOL    HW1 4287  12.010   8.759   0.290 -0.0016 -1.0925  1.4198
30854SOL    HW2 4288  12.126   8.670   0.252  0.6946  0.1092  0.6840
30855SOL     OW 4289   9.582  10.205   7.312  0.3103  0.7073 -0.1879
30855SOL    HW1 4290   9.575  10.298   7.336  0.2699  1.1969 -1.9568
30855SOL    HW2 4291   9.607  10.206   7.220  0.0943 -1.0563 -0.2972
30856SOL     OW 4292   8.005   0.963   0.940 -0.6631  0.5704  0.0564
30856SOL    HW1 4293   7.910   0.967   0.946 -0.6439  1.2235 -0.0291
30856SOL    HW2 4294   8.022   0.891   0.878 -1.0878  0.2911  0.2619
30857SOL     OW 4295   5.187  12.410   8.269 -0.1482  1.0431  0.2805
30857SOL    HW1 4296   5.266  12.446   8.310 -0.7794  2.6159  0.1873
30857SOL    HW2 4297   5.183  12.452   8.184 -0.2202 -0.2985 -0.4020
30858SOL     OW 4298   0.425  11.224  11.758  0.0256  0.1865  0.1985
30858SOL    HW1 4299   0.467  11.296  11.710 -1.0376  0.6786 -0.0467
30858SOL    HW2 4300   0.349  11.266  11.800 -1.3689 -1.0073 -1.0008
30859SOL     OW 4301  12.982   5.190   0.173  0.2705 -0.1193 -0.0859
30859SOL    HW1 4302  13.012   5.273   0.136 -0.6687 -0.6405 -2.2060
30859SOL    HW2 4303  12.915   5.160   0.112  1.1109 -2.8028  0.1825
30860SOL     OW 4304  11.558   0.125   8.483  0.1210 -0.1309  0.1493
30860SOL    HW1 4305  11.638   0.176   8.478 -0.3588  0.5581 -0.6998
30860SOL    HW2 4306  11.491   0.188   8.510 -0.9941  0.3420 -3.2873
30861SOL     OW 4307   2.446   5.190   5.797 -0.0058 -0.1458 -0.4754
30861SOL    HW1 4308   2.415   5.102   5.818 -0.0773 -0.6565 -2.5149
30861SOL    HW2 4309   2.384   5.248   5.841  1.6532 -0.9764  3.3218
30862SOL     OW 4310   8.726   1.425   0.957 -0.3263 -0.0876  0.1405
30862SOL    HW1 4311   8.694   1.342   0.993 -1.0982  0.6485  1.2313
30862SOL    HW2 4312   8.678   1.436   0.875  0.1862 -0.9771 -0.2867
30863SOL     OW 4313   4.462   6.809   7.072  0.0962 -0.1365 -0.6935
30863SOL    HW1 4314   4.448   6.826   7.166 -0.5471  0.2417 -0.8474
30863SOL    HW2 4315   4.532   6.869   7.048 -0.6998  0.8021 -0.7514
30864SOL     OW 4316  11.233   9.663   0.760 -0.2758 -0.2613 -0.2946
30864SOL    HW1 4317  11.183   9.614   0.826 -0.7630 -0.8077 -1.0542
30864SOL    HW2 4318  11.169   9.684   0.692 -0.7089  3.5134  1.0163
30865SOL     OW 4319  12.860   2.484  13.008  0.5038 -0.3502  0.1095
30865SOL    HW1 4320  12.955   2.483  12.995  0.5531  0.9513  0.2475
30865SOL    HW2 4321  12.850   2.470  13.103  0.7406  2.3159  0.6184
30866SOL     OW 4322   2.999  10.782   9.080 -0.3879 -0.4060 -0.2794
30866SOL    HW1 4323   3.004  10.830   9.163  0.0073 -1.3507  0.2546
30866SOL    HW2 4324   3.027  10.846   9.014 -0.9115  0.4254  0.2707
30867SOL     OW 4325   1.532   9.529   9.782  0.5208 -0.5772 -0.1337
30867SOL    HW1 4326   1.543   9.558   9.692  0.4896 -0.9303 -0.2515
30867SOL    HW2 4327   1.591   9.454   9.791  0.8381 -0.2863  0.2615
30868SOL     OW 4328  10.731   6.082   9.987 -0.1835 -0.2632 -0.3968
30868SOL    HW1 4329  10.679   6.132  10.050  1.1983  1.6925 -0.7071
30868SOL    HW2 4330  10.689   6.099   9.903  1.0543  1.5426 -0.6856
30869SOL     OW 4331   6.952  12.058   7.233  0.2700  0.1804 -0.4960
30869SOL    HW1 4332   7.044  12.084   7.233  0.7790 -1.3528  1.0258
30869SOL    HW2 4333   6.913  12.110   7.303  0.3104 -0.1341 -0.2377
30870SOL     OW 4334   0.218   2.953   7.827 -0.3469  0.0580  0.1824
30870SOL    HW1 4335   0.280   3.024   7.841  0.8495 -0.2225 -2.9954
30870SOL    HW2 4336   0.150   2.991   7.771 -0.9502 -0.7117  0.3680
30871SOL     OW 4337  12.241   5.878   9.455 -0.7554 -0.3348 -0.0884
30871SOL    HW1 4338  12.291   5.899   9.376 -1.9562  0.2150 -0.7446
30871SOL    HW2 4339  12.149   5.888   9.428 -1.1921 -0.0086  1.4155
30872SOL     OW 4340   1.294  13.639   5.431 -0.1217 -0.3508 -0.1261
30872SOL    HW1 4341   1.385  13.659   5.408  0.8324 -2.9819  0.9791
30872SOL    HW2 4342   1.282  13.678   5.517 -0.5053  1.1102 -0.8154
30873SOL     OW 4343   6.726  13.454   6.435 -0.7451 -0.2486 -0.0545
30873SOL    HW1 4344   6.687  13.423   6.354  0.3142 -0.5227 -0.4802
30873SOL    HW2 4345   6.821  13.449   6.420 -0.5327  0.5133  0.8836
30874SOL     OW 4346   7.891   8.101   4.204  0.0604 -0.0272  0.1156
30874SOL    HW1 4347   7.942   8.179   4.183  0.1640  0.1979  1.1435
30874SOL    HW2 4348   7.866   8.065   4.119 -1.4810  2.0777 -0.4105
30875SOL     OW 4349  12.315   4.292   5.596  0.0309  0.4296  0.4325
30875SOL    HW1 4350  12.226   4.266   5.618 -0.5542  0.5732 -1.5675
30875SOL    HW2 4351  12.346   4.340   5.673 -1.1117 -0.7907  1.6953
30876SOL     OW 4352   3.467   7.372  12.669  0.3953  0.1596 -0.8373
30876SOL    HW1 4353   3.406   7.371  12.743  1.3919 -0.7924 -0.0066
30876SOL    HW2 4354   3.410   7.373  12.592 -0.8039 -2.9271 -0.1649
30877SOL     OW 4355   4.624   5.381   7.814  0.5595  0.3570 -0.7277
30877SOL    HW1 4356   4.542   5.340   7.842  0.4045  0.9771 -0.2617
30877SOL    HW2 4357   4.661   5.319   7.751 -0.3382  0.1442 -1.0579
30878SOL     OW 4358   1.734  10.587   4.007  0.5227  0.2605 -0.0713
30878SOL    HW1 4359   1.787  10.557   3.933 -0.3549 -0.1367 -0.5452
30878SOL    HW2 4360   1.644  10.578   3.978  0.1379  4.1022 -0.6001
30879SOL     OW 4361   7.517   7.403   9.134 -0.3572  0.7223  0.0284
30879SOL    HW1 4362   7.503   7.419   9.228  0.8432 -0.8979  0.5465
30879SOL    HW2 4363   7.608   7.431   9.119  0.0566 -0.6586 -0.2032
30880SOL     OW 4364  10.536   3.659   9.186  0.1732  0.3587 -0.2324
30880SOL    HW1 4365  10.514   3.728   9.248 -1.2453  0.4373 -0.7694
30880SOL    HW2 4366  10.626   3.635   9.207  0.4004  1.7596  0.5367
30881SOL     OW 4367   5.970   0.602   4.914 -0.0367 -0.2445  0.7554
30881SOL    HW1 4368   5.975   0.670   4.981 -2.1201 -0.3803  1.0906
30881SOL    HW2 4369   5.971   0.650   4.831 -4.4904  0.5883  0.9812
30882SOL     OW 4370   2.689   3.583  11.083 -0.1976  0.0717 -0.3029
30882SOL    HW1 4371   2.628   3.551  11.017 -1.4911  0.7540  0.5100
30882SOL    HW2 4372   2.633   3.605  11.158  1.0291  0.9560  0.3857
30883SOL     OW 4373  12.900   1.659   3.691 -0.3323  0.7465  0.2239
30883SOL    HW1 4374  12.991   1.629   3.698 -0.1410  1.3181  0.2879
30883SOL    HW2 4375  12.902   1.728   3.625 -0.6221  1.1152  0.5898
30884SOL     OW 4376   1.504   9.514   7.902  0.3195  0.3482  0.2591
30884SOL    HW1 4377   1.441   9.538   7.834 -0.1733  1.0871  0.9615
30884SOL    HW2 4378   1.453   9.469   7.968  1.0908 -1.9535 -0.6227
30885SOL     OW 4379   9.571   2.042   5.324  0.1102  0.3194 -0.3478
30885SOL    HW1 4380   9.621   1.975   5.278 -2.0576 -0.9404 -0.9693
30885SOL    HW2 4381   9.536   2.098   5.255  0.4603  1.0842  0.0764
30886SOL     OW 4382  12.810   5.830  10.044 -0.0793  0.1124 -0.2448
30886SOL    HW1 4383  12.864   5.906  10.022  0.8993  0.0024  1.5948
30886SOL    HW2 4384  12.723   5.852  10.011  0.7606  0.8579 -2.1168
30887SOL     OW 4385  12.597   1.476  10.440  0.3611  0.5415 -0.4041
30887SOL    HW1 4386  12.638   1.504  10.521  0.9380 -0.7505 -0.2311
30887SOL    HW2 4387  12.591   1.380  10.447  0.0979  0.4376 -1.7256
30888SOL     OW 4388   7.634   1.874   0.874 -0.4234  0.1422 -0.0400
30888SOL    HW1 4389   7.689   1.796   0.865 -1.8299 -1.0560  1.2466
30888SOL    HW2 4390   7.679   1.927   0.940 -1.1692 -1.2333  1.6468
30889SOL     OW 4391   9.668   9.031   4.397 -0.1633  0.3568  0.1942
30889SOL    HW1 4392   9.643   8.939   4.389 -0.1211  0.4587 -1.4215
30889SOL    HW2 4393   9.607   9.078   4.341 -1.0299  1.5113  1.9923
30890SOL     OW 4394  10.954   2.355   2.237  0.1126  0.2851  0.3072
30890SOL    HW1 4395  10.974   2.422   2.171 -0.5832 -0.0107 -0.2203
30890SOL    HW2 4396  10.934   2.276   2.186 -0.8584  0.1599  0.8432
30891SOL     OW 4397   0.001  11.940  12.237  0.3374 -0.4425  0.1218
30891SOL    HW1 4398  -0.044  12.016  12.201  0.4564 -0.2019  0.4791
30891SOL    HW2 4399   0.030  11.890  12.160  1.3342  0.4965 -0.1270
30892SOL     OW 4400   2.982   5.045  13.613  0.6271 -0.0893 -0.3374
30892SOL    HW1 4401   2.969   5.107  13.540 -0.1798 -1.5327 -1.4925
30892SOL    HW2 4402   2.895   5.038  13.652  0.7551 -0.3523 -0.1056
30893SOL     OW 4403   7.694  13.475  13.282 -0.6930 -0.6614  0.2938
30893SOL    HW1 4404   7.649  13.397  13.317  1.8426 -2.0610  0.7014
30893SOL    HW2 4405   7.639  13.548  13.309 -2.6982 -2.2222  0.7311
30894SOL     OW 4406  11.611   9.282   8.507 -0.0287  0.4596 -0.3751
30894SOL    HW1 4407  11.672   9.348   8.538  0.5744 -0.9490  1.6813
30894SOL    HW2 4408  11.632   9.204   8.559 -2.6799 -0.4715 -0.5329
30895SOL     OW 4409   3.083   2.960  12.281 -0.0482  0.0727  0.0563
30895SOL    HW1 4410   3.124   2.894  12.338 -1.2295 -0.3933  0.4011
30895SOL    HW2 4411   3.141   2.965  12.205  2.1995  1.5448  1.7371
30896SOL     OW 4412   0.469   3.545   0.514  0.2420  0.5933 -0.4024
30896SOL    HW1 4413   0.434   3.585   0.434 -1.0838 -0.2379 -0.2676
30896SOL    HW2 4414   0.393   3.506   0.557  0.7303  1.8823  1.8101
30897SOL     OW 4415   0.238  12.758  10.415 -0.9428 -0.4137  0.5960
30897SOL    HW1 4416   0.311  12.771  10.475 -0.5904 -1.2311  0.3482
30897SOL    HW2 4417   0.170  12.717  10.468 -1.5458  1.0387  1.0259
30898SOL     OW 4418   2.618  12.295   1.783  0.3366  0.0927  0.4423
30898SOL    HW1 4419   2.693  12.245   1.815 -0.4304  0.2936  2.7412
30898SOL    HW2 4420   2.620  12.283   1.688  3.5064  0.4676  0.3578
30899SOL     OW 4421   1.469  10.419   3.577  0.1292 -0.4672 -1.0480
30899SOL    HW1 4422   1.463  10.434   3.671 -0.2401 -2.6719 -0.6578
30899SOL    HW2 4423   1.553  10.374   3.565  0.9990  1.2982 -2.0518
30900SOL     OW 4424  10.959   5.261   8.799 -0.2943  0.1104  0.0529
30900SOL    HW1 4425  10.869   5.255   8.766 -0.1314 -2.5035 -0.1361
30900SOL    HW2 4426  10.949   5.258   8.895 -0.4361 -0.1656  0.0330
30901SOL     OW 4427  10.809   6.080   9.069 -0.4240  0.1327  0.4268
30901SOL    HW1 4428  10.886   6.092   9.125  0.4831 -1.1745 -0.4850
30901SOL    HW2 4429  10.746   6.035   9.125  0.5460 -1.3489  0.4017
30902SOL     OW 4430   7.434   6.564  11.851 -0.5714  0.2771  0.8337
30902SOL    HW1 4431   7.492   6.631  11.888  0.7848 -0.6199  0.3994
30902SOL    HW2 4432   7.380   6.612  11.788 -0.7400  1.2418  1.6840
30903SOL     OW 4433   7.037   9.203   8.854 -0.7442  0.1659  0.0621
30903SOL    HW1 4434   7.027   9.298   8.856  0.7641  0.3830 -1.0533
30903SOL    HW2 4435   7.131   9.189   8.858 -0.7879 -1.1695 -2.2465
30904SOL     OW 4436   6.695   0.841  10.512 -0.0192 -0.2532  0.2672
30904SOL    HW1 4437   6.644   0.916  10.480  1.0524 -0.4657 -2.1648
30904SOL    HW2 4438   6.786   0.870  10.505  0.3453 -1.2336  0.8545
30905SOL     OW 4439   1.143   2.125   1.807  0.2176  0.7291 -0.0248
30905SOL    HW1 4440   1.073   2.106   1.744  0.5823  0.8719 -0.4754
30905SOL    HW2 4441   1.142   2.050   1.866 -0.8537  1.1003  0.4638
30906SOL     OW 4442   2.606   9.225   7.832  0.1921  0.0233 -0.4897
30906SOL    HW1 4443   2.587   9.135   7.859 -1.7883  1.0298  1.8782
30906SOL    HW2 4444   2.665   9.258   7.900  0.4351  0.6760 -1.0152
30907SOL     OW 4445  11.150  11.540   9.104 -0.4030 -0.5704  0.0129
30907SOL    HW1 4446  11.118  11.627   9.080 -0.8474 -0.7436 -0.0346
30907SOL    HW2 4447  11.233  11.531   9.056 -1.0121 -0.6934 -1.0445
30908SOL     OW 4448   5.876   3.277   9.731  0.5855  0.0306  0.3235
30908SOL    HW1 4449   5.950   3.221   9.755  1.7080  0.1029 -2.6182
30908SOL    HW2 4450   5.806   3.215   9.708  1.0381 -0.1469 -0.6185
30909SOL     OW 4451   5.160   1.555   5.734 -0.2137  0.4435 -0.0181
30909SOL    HW1 4452   5.221   1.616   5.776 -1.5180  1.4336  0.5608
30909SOL    HW2 4453   5.138   1.493   5.803 -0.2021  0.3667 -0.0842
30910SOL     OW 4454   7.307  11.908   4.006 -0.3620  0.1963 -0.2354
30910SOL    HW1 4455   7.362  11.987   3.996 -0.7176  0.3865 -0.7093
30910SOL    HW2 4456   7.369  11.836   4.002 -0.1054  0.4252 -0.4732
30911SOL     OW 4457   0.379   5.790   6.353 -0.1072  0.3563  0.3399
30911SOL    HW1 4458   0.309   5.802   6.289 -0.9862 -2.7245  0.5530
30911SOL    HW2 4459   0.435   5.722   6.315 -0.1928 -0.9598  2.3766
30912SOL     OW 4460   1.899   6.233  12.007  0.3228  0.1036  0.5203
30912SOL    HW1 4461   1.867   6.286  12.080 -0.1941  0.4871  0.0149
30912SOL    HW2 4462   1.880   6.143  12.033  0.1922  0.2353  0.8846
30913SOL     OW 4463  13.385   8.738   4.620 -0.6546  0.1721  0.5382
30913SOL    HW1 4464  13.454   8.783   4.571 -1.1151 -0.1177 -0.4078
30913SOL    HW2 4465  13.331   8.809   4.655 -0.1780  0.3876  0.8479
30914SOL     OW 4466   2.235  11.914  10.405  0.3175  0.1802 -0.1546
30914SOL    HW1 4467   2.143  11.925  10.380 -0.1403  1.1169  1.7488
30914SOL    HW2 4468   2.243  11.961  10.488  2.7735  1.0240 -0.7839
30915SOL     OW 4469   5.238   2.562  13.220 -0.3056 -1.3266 -0.1789
30915SOL    HW1 4470   5.302   2.614  13.171 -0.0371  2.4302  3.5478
30915SOL    HW2 4471   5.154   2.583  13.180  0.0034  0.7718  0.1512
30916SOL     OW 4472   9.723   8.919  12.214  0.4174 -0.1361  0.0766
30916SOL    HW1 4473   9.799   8.900  12.270  1.8114  1.3410 -1.2191
30916SOL    HW2 4474   9.761   8.942  12.129 -1.5834 -0.8905 -1.0845
30917SOL     OW 4475   0.045   6.723   6.020 -0.6032 -0.6472 -0.0922
30917SOL    HW1 4476   0.009   6.808   6.045 -0.1788 -0.1254 -1.1916
30917SOL    HW2 4477  -0.024   6.660   6.041 -2.2575  0.3299 -2.2644
30918SOL     OW 4478   3.943   0.334   9.478 -0.3529 -0.1368  0.5165
30918SOL    HW1 4479   3.942   0.422   9.442  0.7922  0.5408  2.0647
30918SOL    HW2 4480   4.029   0.299   9.456 -0.2883 -0.3495  1.0748
30919SOL     OW 4481   7.579  11.471   5.341  0.1362  0.5000  0.4089
30919SOL    HW1 4482   7.505  11.494   5.285  0.2158 -0.5795 -0.1652
30919SOL    HW2 4483   7.541  11.466   5.429 -1.1783 -2.7931 -0.2042
30920SOL     OW 4484  13.695   7.580   1.619 -0.6809  0.2686 -0.4587
30920SOL    HW1 4485  13.740   7.548   1.698  1.2618  0.4430 -1.4353
30920SOL    HW2 4486  13.666   7.501   1.574 -1.4167  0.1559  0.1762
30921SOL     OW 4487   7.453   6.767   9.965 -0.4838 -0.3983 -0.1505
30921SOL    HW1 4488   7.504   6.786  10.044 -1.4158 -2.1542  0.9283
30921SOL    HW2 4489   7.511   6.793   9.893  1.6462 -1.5600  1.0314
30922SOL     OW 4490   3.149  11.286  11.506  0.0266  0.1433 -0.3696
30922SOL    HW1 4491   3.068  11.240  11.487  1.6304 -2.5219 -1.3585
30922SOL    HW2 4492   3.132  11.377  11.479 -2.5033 -0.3590 -0.7085
30923SOL     OW 4493   9.155   5.425   9.249 -0.1472 -0.7721 -0.0095
30923SOL    HW1 4494   9.063   5.451   9.258  0.0965 -0.0279  0.4907
30923SOL    HW2 4495   9.204   5.506   9.263  0.5815 -1.1058 -0.5421
30924SOL     OW 4496   5.542   1.942   7.822  0.0457  0.2653 -0.4455
30924SOL    HW1 4497   5.622   1.948   7.769  0.2371 -0.0277 -0.1935
30924SOL    HW2 4498   5.531   2.030   7.858  0.2655  0.3056 -0.4698
30925SOL     OW 4499   8.305   9.912  13.550  0.2306  0.0377  0.4112
30925SOL    HW1 4500   8.287   9.942  13.462  0.9216 -2.3993 -0.6533
30925SOL    HW2 4501   8.249   9.835  13.562  1.6910 -0.9658  1.2186
30926SOL     OW 4502   6.828   4.704   1.484 -0.0562  0.3497  0.2540
30926SOL    HW1 4503   6.811   4.796   1.463  1.9112  0.2725 -1.9614
30926SOL    HW2 4504   6.769   4.655   1.427  2.5897  0.2310 -2.6351
30927SOL     OW 4505   6.122   7.255   7.354 -0.1082 -0.1509 -0.3981
30927SOL    HW1 4506   6.065   7.225   7.424 -1.1122 -0.1185 -1.1802
30927SOL    HW2 4507   6.116   7.351   7.357  0.7665 -0.1027  0.2024
30928SOL     OW 4508   7.185   6.173   3.543 -0.3065 -0.4404 -0.3552
30928SOL    HW1 4509   7.144   6.128   3.617  0.6858 -0.2838  0.3123
30928SOL    HW2 4510   7.167   6.265   3.557  1.3647 -0.2362  0.6780
30929SOL     OW 4511  10.357   3.702   8.317 -0.1424 -0.0549  0.6214
30929SOL    HW1 4512  10.452   3.689   8.309  0.0758  1.4356  0.5639
30929SOL    HW2 4513  10.326   3.622   8.361  0.8447 -1.3943 -0.9934
30930SOL     OW 4514   1.768   4.915   1.123  0.6388  0.2807 -0.2331
30930SOL    HW1 4515   1.808   4.909   1.037 -0.9099 -1.0854 -0.9072
30930SOL    HW2 4516   1.838   4.894   1.184  0.9382 -2.3682 -1.3735
30931SOL     OW 4517   9.289   8.892  13.343 -0.7786  0.2241  0.1156
30931SOL    HW1 4518   9.353   8.958  13.318 -0.1235 -0.8513 -1.1780
30931SOL    HW2 4519   9.272   8.908  13.436  0.8668  0.9422  0.3127
30932SOL     OW 4520   0.489  10.728   6.053 -0.0206 -0.3814  0.3306
30932SOL    HW1 4521   0.502  10.643   6.011  0.3585  0.0188 -0.3976
30932SOL    HW2 4522   0.545  10.727   6.130  0.2345 -0.6726  0.1410
30933SOL     OW 4523   5.590  13.102  10.668 -0.1994  0.4649  0.5848
30933SOL    HW1 4524   5.564  13.036  10.732  1.1909 -0.4595  0.2412
30933SOL    HW2 4525   5.603  13.053  10.587 -2.5654  1.7115 -0.6498
30934SOL     OW 4526   7.371  12.648   9.732 -0.3661 -0.2500  0.0094
30934SOL    HW1 4527   7.340  12.738   9.728 -1.3369 -0.3536  2.8486
30934SOL    HW2 4528   7.292  12.596   9.752  0.4675 -1.4535  0.3037
30935SOL     OW 4529  11.047   2.757   0.135  0.3930  0.6400  0.0453
30935SOL    HW1 4530  11.041   2.832   0.076  2.3891  1.3697  0.6753
30935SOL    HW2 4531  11.138   2.758   0.165  0.4298 -1.9505  0.2127
30936SOL     OW 4532   3.170   8.691   3.701  0.1252  0.1431  1.0370
30936SOL    HW1 4533   3.213   8.777   3.698  0.9578 -0.2232  1.9751
30936SOL    HW2 4534   3.114   8.695   3.778  0.1449 -0.1514  1.0673
30937SOL     OW 4535   4.612   5.826  11.305  0.5401 -0.5419 -0.4665
30937SOL    HW1 4536   4.636   5.898  11.246  2.0945 -1.2663 -0.7851
30937SOL    HW2 4537   4.693   5.776  11.316 -0.3580 -1.9348  0.1850
30938SOL     OW 4538   5.038   8.673  12.812  0.2029 -0.3138 -0.2375
30938SOL    HW1 4539   5.102   8.625  12.863  0.0967 -0.7334 -0.4979
30938SOL    HW2 4540   5.076   8.761  12.802 -0.2859  0.1428  1.5431
30939SOL     OW 4541  12.750  12.585   6.800 -0.1614 -1.1761 -0.2842
30939SOL    HW1 4542  12.742  12.680   6.804 -0.1589 -1.0838 -1.8288
30939SOL    HW2 4543  12.766  12.566   6.708  0.4413 -2.6365  0.0919
30940SOL     OW 4544   1.457   1.366   9.994 -0.5901  0.2839  0.0459
30940SOL    HW1 4545   1.368   1.395   9.973 -1.6823 -1.4481  1.8498
30940SOL    HW2 4546   1.496   1.439  10.041 -1.6609  0.5061  0.6266
30941SOL     OW 4547   1.317  12.518  11.563  0.4594 -0.4149  0.1962
30941SOL    HW1 4548   1.267  12.438  11.580  0.3046 -0.4171 -0.2566
30941SOL    HW2 4549   1.323  12.561  11.648  1.2537 -1.3125  0.6063
30942SOL     OW 4550   5.854   8.084   1.627 -0.3267  0.7774  0.4950
30942SOL    HW1 4551   5.857   8.030   1.705  1.7004  0.8354  0.5234
30942SOL    HW2 4552   5.913   8.157   1.646 -0.6275  1.3599 -0.6826
30943SOL     OW 4553   8.026   3.388   5.354  0.0697 -0.2854  0.5392
30943SOL    HW1 4554   8.008   3.481   5.340  3.0707  0.5990  1.6568
30943SOL    HW2 4555   8.113   3.387   5.396 -0.1756 -3.5678  1.2221
30944SOL     OW 4556   5.918  13.281  13.451  0.5955 -0.2312  0.9607
30944SOL    HW1 4557   5.890  13.326  13.372 -0.3257 -2.4253 -0.0562
30944SOL    HW2 4558   5.875  13.328  13.523 -1.3838 -0.2614 -0.1384
30945SOL     OW 4559   5.670   7.040   7.131 -0.0945  0.4561 -0.4807
30945SOL    HW1 4560   5.632   6.958   7.102  1.0678 -0.5330  0.6476
30945SOL    HW2 4561   5.728   7.015   7.203  0.6335  2.2086 -0.4072
30946SOL     OW 4562   3.071   3.938  12.751 -0.1352 -0.2592  0.1586
30946SOL    HW1 4563   3.051   4.022  12.793  0.1281  1.1506 -2.3674
30946SOL    HW2 4564   3.166   3.936  12.746 -0.1751  0.1045 -1.2307
30947SOL     OW 4565   3.244  10.226   1.598 -0.0533 -0.0284  0.0968
30947SOL    HW1 4566   3.235  10.208   1.692 -0.1672  0.6371  0.2235
30947SOL    HW2 4567   3.154  10.245   1.570  0.2506  2.1179  0.3758
30948SOL     OW 4568  12.581   7.010  10.752  0.2919 -0.0435  0.2032
30948SOL    HW1 4569  12.534   6.964  10.822  1.7727 -2.2223 -0.1363
30948SOL    HW2 4570  12.660   7.044  10.795  0.2494  0.3216 -0.0069
30949SOL     OW 4571   2.614  10.104   4.720  0.0903 -0.5343 -0.0803
30949SOL    HW1 4572   2.690  10.061   4.760  1.4645  1.3602 -0.5479
30949SOL    HW2 4573   2.599  10.181   4.774 -0.6305 -0.1443 -0.8138
30950SOL     OW 4574   3.209   2.535   8.321  0.2199 -0.2218  0.0293
30950SOL    HW1 4575   3.241   2.593   8.391  1.4650 -0.0568 -0.6445
30950SOL    HW2 4576   3.198   2.451   8.364 -0.6309  0.2596  0.7929
30951SOL     OW 4577  13.235   8.753   8.930  0.2289  0.1457 -0.6355
30951SOL    HW1 4578  13.177   8.676   8.928  1.5265 -0.8523 -0.9779
30951SOL    HW2 4579  13.234   8.782   9.021 -1.9571  1.0868 -0.8851
30952SOL     OW 4580   9.392  12.998   9.549  0.1984  0.0967 -0.5389
30952SOL    HW1 4581   9.316  12.963   9.595  1.2882 -0.6066  0.8097
30952SOL    HW2 4582   9.364  13.005   9.458 -1.8146  0.8821  0.0889
30953SOL     OW 4583   9.374  11.317   8.129  0.4399  0.2386  0.0203
30953SOL    HW1 4584   9.448  11.274   8.173 -0.0517  0.2564  0.8919
30953SOL    HW2 4585   9.378  11.287   8.039  0.4309 -1.2062  0.4835
30954SOL     OW 4586   5.098   8.853   9.796  0.0125 -0.9772 -0.4045
30954SOL    HW1 4587   5.172   8.898   9.837 -1.4160  0.1401  1.0699
30954SOL    HW2 4588   5.058   8.918   9.739  0.0843 -1.5565 -1.1405
30955SOL     OW 4589   7.756   3.405   1.572  0.0703 -0.0103 -0.4585
30955SOL    HW1 4590   7.787   3.439   1.656  0.5921  0.1882 -0.7235
30955SOL    HW2 4591   7.661   3.415   1.575 -0.0962 -1.6019  0.7992
30956SOL     OW 4592   2.410   9.968   9.348  0.1917  1.1115  0.0817
30956SOL    HW1 4593   2.457   9.913   9.285  0.2762  0.3636  0.7803
30956SOL    HW2 4594   2.342  10.010   9.296  0.0259  0.2220 -0.4469
30957SOL     OW 4595  13.019   9.244   2.242  0.0325  0.1172 -0.0513
30957SOL    HW1 4596  13.104   9.256   2.200  2.4135 -2.7093  3.2900
30957SOL    HW2 4597  12.979   9.172   2.193  0.0615  0.6840 -0.9351
30958SOL     OW 4598   6.635  10.586  10.983 -0.6133  0.4658 -0.7017
30958SOL    HW1 4599   6.722  10.602  10.948 -0.9151  1.2692 -1.1128
30958SOL    HW2 4600   6.582  10.563  10.907 -0.7332 -0.1659 -0.4343
30959SOL     OW 4601   4.522   3.795  10.740 -0.3053  0.5401 -0.5712
30959SOL    HW1 4602   4.453   3.754  10.689  0.7282  0.0029 -1.5830
30959SOL    HW2 4603   4.535   3.881  10.699 -0.2287  0.5592 -0.5089
30960SOL     OW 4604   8.578   2.761   7.627  0.3031  0.3609  0.8440
30960SOL    HW1 4605   8.598   2.791   7.715  3.8798  1.8589 -0.3133
30960SOL    HW2 4606   8.579   2.665   7.633  1.3714  0.4444  2.2730
30961SOL     OW 4607   8.875   4.374   1.432  0.0253 -0.4166 -0.1142
30961SOL    HW1 4608   8.914   4.347   1.349  0.6602 -1.7348  0.5838
30961SOL    HW2 4609   8.784   4.395   1.410 -1.1118 -4.7532 -0.5814
30962SOL     OW 4610   7.984   2.551   8.875  0.2659 -0.3221 -0.2615
30962SOL    HW1 4611   8.052   2.618   8.882  2.4686 -2.4692  0.5535
30962SOL    HW2 4612   7.922   2.572   8.945  2.7506 -0.9359  2.3268
30963SOL     OW 4613   7.464  10.292   9.819  0.9661 -0.0006 -0.0797
30963SOL    HW1 4614   7.489  10.241   9.896  1.3801 -0.5221 -0.5486
30963SOL    HW2 4615   7.455  10.382   9.851  1.3857 -0.1698  0.5213
30964SOL     OW 4616   5.665   0.709   3.718 -0.0903 -0.3145  0.0775
30964SOL    HW1 4617   5.570   0.712   3.730 -0.2525 -0.1217 -1.1516
30964SOL    HW2 4618   5.701   0.728   3.806 -1.1767 -0.2905  0.5299
30965SOL     OW 4619  13.651  10.738   8.117 -0.2027  0.1298 -0.0452
30965SOL    HW1 4620  13.622  10.648   8.102 -0.7565  0.5044 -1.3829
30965SOL    HW2 4621  13.682  10.767   8.031  0.6682  0.9706  0.5485
30966SOL     OW 4622  13.725   3.433   5.667  0.2495 -0.3770 -0.5224
30966SOL    HW1 4623  13.722   3.522   5.702 -0.1306  0.1367 -1.7796
30966SOL    HW2 4624  13.651   3.429   5.607  1.9520 -0.5162 -2.7659
30967SOL     OW 4625   6.400   1.790   4.246  0.0450 -0.3618 -0.0315
30967SOL    HW1 4626   6.305   1.779   4.255  0.0262  0.3702  0.7682
30967SOL    HW2 4627   6.436   1.754   4.326  0.3581  0.4043  0.1826
30968SOL     OW 4628  11.380   2.737   3.620  0.7730 -0.2674 -0.0738
30968SOL    HW1 4629  11.305   2.741   3.561  0.3191 -0.8780  0.4453
30968SOL    HW2 4630  11.441   2.678   3.576  0.2910 -0.9954  0.2166
30969SOL     OW 4631   9.087  13.553   1.695 -0.1808  0.6206 -0.4206
30969SOL    HW1 4632   9.035  13.507   1.762 -1.8609  1.7598 -0.9004
30969SOL    HW2 4633   9.086  13.493   1.620 -0.6040  0.5195 -0.3417
30970SOL     OW 4634  12.614  13.663   0.071 -0.1115 -0.3686  0.0304
30970SOL    HW1 4635  12.647  13.573   0.073 -2.0008 -1.1426 -0.9716
30970SOL    HW2 4636  12.544  13.664   0.136  0.2666  0.5531  0.4343
30971SOL     OW 4637   5.341   2.394   9.818  0.0898  0.1767  0.2409
30971SOL    HW1 4638   5.264   2.338   9.830  0.3426 -0.7155 -1.9344
30971SOL    HW2 4639   5.413   2.344   9.855 -0.3672  1.2385  2.7736
30972SOL     OW 4640  11.646   3.315   6.715  0.8608 -0.5739  0.7432
30972SOL    HW1 4641  11.583   3.279   6.652  0.4548 -0.0499  0.8442
30972SOL    HW2 4642  11.600   3.388   6.755  1.3903 -0.4460  1.1207
30973SOL     OW 4643   9.045   4.232   9.746  0.1368  0.3546  0.0400
30973SOL    HW1 4644   9.101   4.298   9.703  0.0642 -0.1849 -0.9196
30973SOL    HW2 4645   9.034   4.264   9.835 -1.3508  2.5887 -0.8524
30974SOL     OW 4646  12.769   0.738   4.274  0.2143  0.4516  0.6193
30974SOL    HW1 4647  12.773   0.674   4.345  1.2994  0.2177  0.3628
30974SOL    HW2 4648  12.768   0.685   4.194 -0.2229  0.7298  0.4395
30975SOL     OW 4649  10.414  11.145  11.317  1.0030  0.6580 -0.2416
30975SOL    HW1 4650  10.426  11.163  11.410 -0.1716 -0.1352  0.0732
30975SOL    HW2 4651  10.320  11.156  11.302  0.7231 -1.8703 -0.7153
30976SOL     OW 4652   5.107   9.085  13.589  0.0584  0.2265 -0.4350
30976SOL    HW1 4653   5.132   8.998  13.560  1.8630  1.2062 -2.0656
30976SOL    HW2 4654   5.051   9.119  13.519 -0.8804  0.3155  0.3266
30977SOL     OW 4655   6.987  12.506   2.145  0.3895 -0.2780  0.2155
30977SOL    HW1 4656   7.042  12.567   2.196  0.7076 -1.4349  1.3135
30977SOL    HW2 4657   6.974  12.551   2.061 -0.0915  1.6753  1.2606
30978SOL     OW 4658   7.296   3.615  11.138  0.2069  0.0939 -0.0930
30978SOL    HW1 4659   7.213   3.613  11.089  0.4881 -0.3063 -0.5591
30978SOL    HW2 4660   7.302   3.528  11.178  0.6936 -0.0954 -0.5640
30979SOL     OW 4661  10.906   7.037   4.834 -0.3752 -0.3956  0.0402
30979SOL    HW1 4662  10.925   6.984   4.756 -1.9027 -0.1437 -0.5166
30979SOL    HW2 4663  10.906   7.127   4.803 -1.5266 -0.3295  0.2136
30980SOL     OW 4664  13.429  10.798   3.841 -0.1911  0.5103  0.4604
30980SOL    HW1 4665  13.412  10.726   3.901 -0.1509 -0.1468 -0.3037
30980SOL    HW2 4666  13.451  10.756   3.758 -1.0585  1.4014 -0.2463
30981SOL     OW 4667  11.798   9.550   0.424  0.1092 -0.3884 -0.2339
30981SOL    HW1 4668  11.892   9.561   0.411 -0.0696  0.6532 -0.7757
30981SOL    HW2 4669  11.790   9.474   0.481  1.2897 -0.3856 -0.0466
30982SOL     OW 4670  10.596  12.818   5.359 -0.0078  0.1130 -0.1064
30982SOL    HW1 4671  10.649  12.739   5.347 -1.5562 -1.2125  1.2316
30982SOL    HW2 4672  10.537  12.818   5.283  0.0482  0.0124 -0.1504
30983SOL     OW 4673   8.568   8.747   3.644  0.1876 -0.3335  0.5242
30983SOL    HW1 4674   8.537   8.811   3.580  0.1050  0.6216  1.4905
30983SOL    HW2 4675   8.660   8.769   3.657  0.7339 -1.7313 -0.6440
30984SOL     OW 4676  13.357   8.835   6.789  0.0085 -0.2329  0.0857
30984SOL    HW1 4677  13.439   8.838   6.838 -0.0283 -1.9108  0.2829
30984SOL    HW2 4678  13.381   8.797   6.704 -0.6311 -1.1538  0.3085
30985SOL     OW 4679   8.808   8.041  12.776  0.5265  0.9152 -0.7069
30985SOL    HW1 4680   8.718   8.054  12.746  0.3199  1.3459  0.0916
30985SOL    HW2 4681   8.812   7.948  12.798  0.1448  0.9882 -0.3206
30986SOL     OW 4682   4.381   0.046   0.432  0.8515  0.2012 -0.0444
30986SOL    HW1 4683   4.392   0.138   0.409  1.0370  0.1866 -0.0178
30986SOL    HW2 4684   4.351   0.047   0.523  1.4247  0.2211  0.1517
30987SOL     OW 4685   6.720   2.597  13.659  0.6571 -0.1616  0.0548
30987SOL    HW1 4686   6.797   2.609  13.602 -1.4618  3.3691 -2.4935
30987SOL    HW2 4687   6.662   2.540  13.610  0.0454  0.4019  0.1191
30988SOL     OW 4688   8.361   9.158   4.099  0.0928  0.5568  0.0596
30988SOL    HW1 4689   8.442   9.194   4.135  1.0242 -1.6533  0.3194
30988SOL    HW2 4690   8.301   9.155   4.173  0.1784  1.0447  0.1522
30989SOL     OW 4691   8.824   5.925  10.293  0.2643 -0.0452 -0.5024
30989SOL    HW1 4692   8.898   5.987  10.287  0.3910  0.2317  2.4940
30989SOL    HW2 4693   8.844   5.871  10.369 -2.8159  0.3182  0.7054
30990SOL     OW 4694   9.516   8.789  10.320  0.0444 -0.4211  0.1907
30990SOL    HW1 4695   9.550   8.703  10.344  0.4510 -0.1251  0.7100
30990SOL    HW2 4696   9.489   8.828  10.403  0.7163  0.3052  0.0829
30991SOL     OW 4697  12.620   7.610   6.429  0.0466  0.9574  0.2188
30991SOL    HW1 4698  12.700   7.580   6.472 -0.4429 -1.4454 -0.4635
30991SOL    HW2 4699  12.624   7.706   6.437  2.7019  0.8786  0.6448
30992SOL     OW 4700   1.761   8.028   7.338 -0.4982  0.2751  0.3731
30992SOL    HW1 4701   1.829   8.091   7.362  1.7663 -2.8427  2.9424
30992SOL    HW2 4702   1.782   8.004   7.247  0.4741  0.9710  0.3980
30993SOL     OW 4703   4.323   7.269  12.743 -0.5103 -0.2153  0.0140
30993SOL    HW1 4704   4.340   7.361  12.722 -0.7870 -0.2777 -0.5027
30993SOL    HW2 4705   4.228   7.261  12.736 -0.3622 -0.9622 -1.7707
30994SOL     OW 4706  12.412  12.947  13.256  0.0813  0.3828  0.3594
30994SOL    HW1 4707  12.457  13.031  13.249  1.3923 -0.2822  0.4962
30994SOL    HW2 4708  12.332  12.967  13.304  0.6006  1.4821  0.8106
30995SOL     OW 4709  11.077   9.838   0.430 -0.1706 -0.5821 -0.3018
30995SOL    HW1 4710  11.097   9.846   0.523 -1.4982 -0.6076  0.0087
30995SOL    HW2 4711  11.161   9.851   0.386  0.0660  2.0983  0.7527
30996SOL     OW 4712   9.940   2.768   9.499  0.2227  0.0696 -0.4796
30996SOL    HW1 4713  10.004   2.749   9.567 -0.0890 -0.5025 -0.3451
30996SOL    HW2 4714   9.908   2.856   9.520 -0.5908 -0.4849  0.6888
30997SOL     OW 4715   8.778  10.249  11.949 -0.0523 -0.2007  0.4651
30997SOL    HW1 4716   8.724  10.268  12.026  0.0729 -0.0709  0.5209
30997SOL    HW2 4717   8.837  10.179  11.978  1.2428  1.0674  1.0720
30998SOL     OW 4718  10.960  10.490   6.315 -0.4939  0.1215 -0.7226
30998SOL    HW1 4719  10.955  10.568   6.370  0.6116  0.9103 -1.6996
30998SOL    HW2 4720  10.960  10.417   6.378 -1.3829  0.8938  0.2076
30999SOL     OW 4721   9.028   5.967  11.682  1.1592  0.7172 -0.1834
30999SOL    HW1 4722   8.980   5.969  11.765  1.8824  0.9209  0.2409
30999SOL    HW2 4723   9.090   5.895  11.692  1.3832  0.8679 -0.4732
31000SOL     OW 4724   9.326  10.924  12.890  0.4398  0.1627 -0.7509
31000SOL    HW1 4725   9.231  10.914  12.899  0.6580 -1.0684  0.6602
31000SOL    HW2 4726   9.346  11.005  12.936  0.3849 -1.2228  1.9146
31001SOL     OW 4727   4.557   1.122   2.818 -0.4537 -0.0481 -0.0101
31001SOL    HW1 4728   4.507   1.089   2.892 -1.1959  0.5934 -0.2189
31001SOL    HW2 4729   4.518   1.206   2.797  1.0133  0.7048  0.1237
31002SOL     OW 4730  12.363  12.760   0.124  0.4427  0.8022  0.3146
31002SOL    HW1 4731  12.388  12.684   0.176  2.9437  0.2483 -1.5464
31002SOL    HW2 4732  12.409  12.833   0.164  2.2309  0.4033 -0.9079
31003SOL     OW 4733   3.295  11.880   0.928  0.5550 -0.0068  0.2162
31003SOL    HW1 4734   3.364  11.900   0.865  1.6519 -0.5759  1.2001
31003SOL    HW2 4735   3.281  11.963   0.974  0.4279  0.1683 -0.1382
31004SOL     OW 4736  11.671   9.038  13.311 -0.2875  0.4031 -0.5184
31004SOL    HW1 4737  11.760   9.060  13.338 -0.5279  1.2032 -0.3493
31004SOL    HW2 4738  11.634   9.121  13.280 -0.4499 -0.2256 -2.0916
31005SOL     OW 4739   8.767   9.748   7.043  0.1572  1.2800 -0.1687
31005SOL    HW1 4740   8.783   9.825   6.988  1.5574  0.8200 -0.4222
31005SOL    HW2 4741   8.739   9.785   7.127 -1.1393  2.0079 -0.8785
31006SOL     OW 4742   5.835   3.926  12.887  0.4091  0.3437  0.0372
31006SOL    HW1 4743   5.783   3.991  12.934 -0.0564 -0.3005  0.4211
31006SOL    HW2 4744   5.823   3.948  12.794 -1.3603 -0.3869  0.0564
31007SOL     OW 4745   0.754   6.275   1.340 -0.4686  0.5730 -0.2637
31007SOL    HW1 4746   0.669   6.272   1.383 -0.5010  1.5778 -0.2546
31007SOL    HW2 4747   0.778   6.367   1.339  0.3933  0.3556 -0.7190
31008SOL     OW 4748   1.865  11.517   1.958 -0.0412 -0.3025 -0.8905
31008SOL    HW1 4749   1.799  11.537   2.024 -0.3374  2.3522 -1.8645
31008SOL    HW2 4750   1.927  11.459   2.002 -2.0969 -1.5033  0.5522
31009SOL     OW 4751   2.209   1.144  10.584  0.4478  0.2535  0.3825
31009SOL    HW1 4752   2.191   1.074  10.646  0.0942 -1.2906 -1.3873
31009SOL    HW2 4753   2.297   1.126  10.552  0.6661  1.0969  0.4789
31010SOL     OW 4754   3.638   1.861  11.362  0.8704  0.0586  0.0086
31010SOL    HW1 4755   3.725   1.823  11.355  1.2128  0.3992  1.9672
31010SOL    HW2 4756   3.650   1.940  11.415 -0.6993 -0.1925  0.7988
31011SOL     OW 4757   3.418   5.494   0.920 -0.1733 -0.6760 -0.9984
31011SOL    HW1 4758   3.381   5.517   1.005 -0.7664  1.0891 -1.6925
31011SOL    HW2 4759   3.416   5.575   0.870  1.8898 -1.2178 -2.0998
31012SOL     OW 4760  12.711  12.594   0.753  0.0160  0.0048 -0.3428
31012SOL    HW1 4761  12.757  12.559   0.829  1.5481  0.6388 -0.9352
31012SOL    HW2 4762  12.633  12.636   0.790 -0.2902 -1.3677  0.6541
31013SOL     OW 4763  13.621   4.046  13.083  0.1616  0.1326 -0.1808
31013SOL    HW1 4764  13.639   3.955  13.059  1.0476  0.5341 -1.1216
31013SOL    HW2 4765  13.549   4.072  13.025 -1.5491 -0.5726  1.5345
31014SOL     OW 4766  13.411   8.550   0.436  0.3739 -0.7190 -0.0173
31014SOL    HW1 4767  13.395   8.621   0.498  0.0692 -2.2964  1.8398
31014SOL    HW2 4768  13.506   8.550   0.423  0.3613  0.0911 -0.1102
31015SOL     OW 4769  12.036   6.985  11.621 -0.3073 -0.1738 -0.8424
31015SOL    HW1 4770  11.962   6.926  11.607  0.2436 -1.0529 -0.1948
31015SOL    HW2 4771  12.036   7.042  11.545 -0.7634 -1.1220 -1.5758
31016SOL     OW 4772   2.021   1.267   8.864 -0.0947  0.0843  0.2712
31016SOL    HW1 4773   1.961   1.197   8.839 -0.3485  0.0601  0.9091
31016SOL    HW2 4774   2.101   1.221   8.891  0.6877  0.1671 -1.7353
31017SOL     OW 4775   8.875   8.878   4.092  0.2309  0.0406 -0.2870
31017SOL    HW1 4776   8.921   8.940   4.035 -0.1426 -0.5676 -1.2726
31017SOL    HW2 4777   8.917   8.793   4.074 -0.7994 -0.3943 -0.6740
31018SOL     OW 4778   9.471   5.008   8.066 -0.6887 -0.1516  0.5135
31018SOL    HW1 4779   9.418   5.086   8.050 -0.2019  0.0147 -0.3644
31018SOL    HW2 4780   9.439   4.945   8.001 -0.1831 -0.2352  0.3472
31019SOL     OW 4781   6.310  12.142   8.805  0.9137 -0.4296  0.5013
31019SOL    HW1 4782   6.267  12.059   8.828  1.1679 -0.3187  1.3851
31019SOL    HW2 4783   6.317  12.190   8.887 -0.5040  1.1043 -0.2067
31020SOL     OW 4784   4.049   5.529  11.429 -0.3564 -0.2846 -0.3053
31020SOL    HW1 4785   3.999   5.563  11.356 -2.8431 -1.5474  0.7014
31020SOL    HW2 4786   4.112   5.469  11.389 -1.0856 -0.3084 -1.4679
31021SOL     OW 4787   5.497   8.261   7.866  0.4718  0.2983 -0.5220
31021SOL    HW1 4788   5.458   8.208   7.797  0.9200 -0.3232 -0.3140
31021SOL    HW2 4789   5.546   8.198   7.920  1.0248  0.9246 -0.2709
31022SOL     OW 4790   3.897   9.754   5.804  0.0772  0.2191  0.2306
31022SOL    HW1 4791   3.849   9.828   5.767 -0.3958 -0.0402  0.3157
31022SOL    HW2 4792   3.832   9.684   5.811  0.3825 -0.0268  0.6826
31023SOL     OW 4793  11.191   1.215  10.412  0.3098  0.2745 -0.1386
31023SOL    HW1 4794  11.264   1.184  10.359  0.3514  0.2841 -0.0868
31023SOL    HW2 4795  11.118   1.221  10.351  0.1733 -0.3930 -0.0475
31024SOL     OW 4796   5.065   7.522   6.435 -0.3178 -0.1525  0.1703
31024SOL    HW1 4797   5.154   7.546   6.411 -0.5978  1.2087  0.4041
31024SOL    HW2 4798   5.035   7.466   6.363  1.1695 -1.8333  0.7685
31025SOL     OW 4799   3.052   6.342  13.003 -0.7600  0.4395  0.2874
31025SOL    HW1 4800   3.142   6.357  13.033  0.5111 -1.4414 -2.1418
31025SOL    HW2 4801   3.002   6.324  13.082  1.6845 -1.3083  1.5614
31026SOL     OW 4802   0.592   6.981  13.067 -0.3780 -0.3451  0.7734
31026SOL    HW1 4803   0.571   6.977  13.161 -2.4945  1.0561  0.4221
31026SOL    HW2 4804   0.678   6.938  13.060 -0.0303 -0.2421  3.3711
31027SOL     OW 4805  12.064   0.273   4.260  0.5035 -0.6714 -0.0483
31027SOL    HW1 4806  12.051   0.336   4.189  0.6717  0.1500  0.6390
31027SOL    HW2 4807  12.041   0.189   4.221 -1.9321  0.0537 -0.3546
31028SOL     OW 4808   4.826   0.559   9.958 -0.2601 -0.2381  0.1414
31028SOL    HW1 4809   4.774   0.637   9.980 -1.7292 -1.1048 -0.0843
31028SOL    HW2 4810   4.786   0.489  10.010  1.8724 -0.6251  1.3567
31029SOL     OW 4811   3.369   8.240  12.773  0.0945 -0.4262  0.5155
31029SOL    HW1 4812   3.430   8.214  12.703  1.7977  0.8337  1.4549
31029SOL    HW2 4813   3.385   8.177  12.843 -0.3716 -0.6429  0.4314
31030SOL     OW 4814  10.539   4.443   0.576  0.5633 -0.6219  0.9138
31030SOL    HW1 4815  10.465   4.502   0.594  0.5071 -0.2457 -0.4397
31030SOL    HW2 4816  10.534   4.426   0.482  2.7197  0.1508  0.5986
31031SOL     OW 4817  13.120   8.738   6.921  0.3727  0.5715 -0.2211
31031SOL    HW1 4818  13.105   8.646   6.941 -0.2428  0.9787  1.3019
31031SOL    HW2 4819  13.214   8.744   6.907  0.3336 -0.4002 -1.0392
31032SOL     OW 4820   8.276  11.618   0.076  0.7533  0.2635 -0.3489
31032SOL    HW1 4821   8.364  11.597   0.045  0.7441 -2.9894  1.4084
31032SOL    HW2 4822   8.258  11.554   0.145 -2.4371  1.7563  0.4303
31033SOL     OW 4823   2.921  13.065   7.373 -1.1229  0.5912  0.7265
31033SOL    HW1 4824   2.856  13.063   7.443 -0.9742 -1.2811  0.8509
31033SOL    HW2 4825   3.002  13.034   7.414 -0.5710  1.2362  0.1531
31034SOL     OW 4826   5.964   3.367   5.800  0.5195 -0.0998  0.0912
31034SOL    HW1 4827   6.059   3.375   5.809  0.6471  0.5471 -1.4629
31034SOL    HW2 4828   5.940   3.436   5.738 -0.8538 -0.7758 -0.1653
31035SOL     OW 4829   3.118   4.153  11.905  0.2299  0.3054  0.3967
31035SOL    HW1 4830   3.071   4.237  11.908 -0.9050 -0.2543 -0.6435
31035SOL    HW2 4831   3.155   4.150  11.816  2.2126  0.6842  1.1613
31036SOL     OW 4832   8.022   4.557   0.829  0.1982 -0.4689  0.3188
31036SOL    HW1 4833   8.099   4.614   0.821 -0.4565  0.3631 -0.0595
31036SOL    HW2 4834   8.047   4.477   0.782  0.3807  0.2587 -0.8498
31037SOL     OW 4835   2.043   1.601   1.782  0.2972 -0.3877 -0.1544
31037SOL    HW1 4836   2.060   1.533   1.717 -0.2295 -1.6221  0.9711
31037SOL    HW2 4837   2.046   1.556   1.866 -3.2236  0.2756  0.4674
31038SOL     OW 4838  12.141   3.731   1.072 -0.5366  0.0405 -0.1859
31038SOL    HW1 4839  12.111   3.689   1.152  0.7250 -0.0523  0.2671
31038SOL    HW2 4840  12.157   3.822   1.097  0.6959 -0.1870 -0.0876
31039SOL     OW 4841   8.209   3.271   7.442 -0.5147 -0.2893 -0.5474
31039SOL    HW1 4842   8.276   3.288   7.376  0.9565 -1.1046  0.6568
31039SOL    HW2 4843   8.234   3.186   7.479  0.6685  1.4766  3.2075
31040SOL     OW 4844   0.565   4.224  13.142  0.2570 -0.3862 -0.0695
31040SOL    HW1 4845   0.500   4.156  13.121 -0.6498  0.5375 -0.3200
31040SOL    HW2 4846   0.641   4.202  13.088 -0.4924 -0.4822 -1.1068
31041SOL     OW 4847   1.722   7.870   0.773  0.3848 -0.4263 -0.0672
31041SOL    HW1 4848   1.685   7.951   0.737 -0.0511 -0.2333  0.7885
31041SOL    HW2 4849   1.762   7.896   0.856  3.4931 -0.4145 -1.4546
31042SOL     OW 4850   5.226   2.962   5.822 -0.3135  0.4015 -0.1160
31042SOL    HW1 4851   5.283   2.980   5.747  0.6548 -1.9928 -0.0529
31042SOL    HW2 4852   5.258   3.022   5.890  1.3879 -0.0322 -0.4687
31043SOL     OW 4853   7.504   2.854   8.200  0.4794  0.4358  0.7541
31043SOL    HW1 4854   7.441   2.811   8.259  0.4781  0.9665  1.1423
31043SOL    HW2 4855   7.452   2.919   8.153  0.6151  0.4528  0.6275
31044SOL     OW 4856  11.744   3.894  10.642 -0.0750  0.4999 -0.1041
31044SOL    HW1 4857  11.671   3.870  10.698  0.0658  1.8050  0.6891
31044SOL    HW2 4858  11.798   3.952  10.696  2.6938 -2.0120  0.0803
31045SOL     OW 4859   1.084   1.380   7.206  0.2301 -0.3268  0.0852
31045SOL    HW1 4860   1.166   1.406   7.164  0.2531 -0.0619  0.2872
31045SOL    HW2 4861   1.064   1.294   7.170  1.6247 -1.3115  1.4775
31046SOL     OW 4862   2.742   4.962  13.734 -0.6519  0.2950 -0.6708
31046SOL    HW1 4863   2.667   4.906  13.712  0.3405 -0.6985 -1.7093
31046SOL    HW2 4864   2.801   4.905  13.783 -0.3778  0.9336 -0.2523
31047SOL     OW 4865   7.731  12.633  12.928  0.0775 -0.0138 -0.3555
31047SOL    HW1 4866   7.815  12.656  12.967  0.8738 -2.3356 -0.5103
31047SOL    HW2 4867   7.677  12.711  12.938  1.8803  1.1642  0.7641
31048SOL     OW 4868  13.142   6.805   6.222 -0.4596 -0.2436 -0.0938
31048SOL    HW1 4869  13.107   6.786   6.134 -0.5020 -0.5378 -0.0159
31048SOL    HW2 4870  13.097   6.742   6.279  1.0509 -1.4194 -0.1628
31049SOL     OW 4871  10.375   7.523   1.144  0.3591 -0.1274  0.2842
31049SOL    HW1 4872  10.333   7.513   1.229 -2.1060 -1.4258 -0.9911
31049SOL    HW2 4873  10.411   7.437   1.124  1.0489  0.2057  0.0390
31050SOL     OW 4874   0.087   5.746   3.548  0.3009 -0.0772  0.6380
31050SOL    HW1 4875   0.118   5.763   3.459 -0.6320 -1.5244 -0.0098
31050SOL    HW2 4876   0.130   5.812   3.601  2.4324 -0.3692 -0.5807
31051SOL     OW 4877   5.010   4.006   7.220  0.4321 -0.7115  0.3106
31051SOL    HW1 4878   4.952   4.082   7.223  0.9748 -0.1852 -1.2842
31051SOL    HW2 4879   5.095   4.040   7.248  0.4368 -0.9869  0.6305
31052SOL     OW 4880   0.141   9.293   3.815  0.0869  0.2253 -0.1064
31052SOL    HW1 4881   0.105   9.230   3.877  1.4529 -0.1703  0.3344
31052SOL    HW2 4882   0.139   9.249   3.730  1.1747 -0.5125  0.2241
31053SOL     OW 4883   3.712   8.550   8.059 -0.4053  0.4012 -0.2398
31053SOL    HW1 4884   3.763   8.480   8.098 -0.4943 -0.0260 -0.8832
31053SOL    HW2 4885   3.689   8.607   8.133 -1.7254 -1.0976  0.5752
31054SOL     OW 4886   4.818   3.658   2.919  0.4069 -0.5300 -0.1685
31054SOL    HW1 4887   4.875   3.604   2.973  1.2073 -0.8022 -1.2549
31054SOL    HW2 4888   4.761   3.596   2.875 -0.2127 -0.3103  0.3020
31055SOL     OW 4889   8.307   1.344   1.939 -0.0509  0.0457  0.5098
31055SOL    HW1 4890   8.213   1.358   1.923 -0.7579 -2.5217  2.0087
31055SOL    HW2 4891   8.327   1.399   2.015 -0.6859 -0.4339  1.0334
31056SOL     OW 4892   8.036   5.221  12.949 -0.7586  0.1059 -0.2225
31056SOL    HW1 4893   7.974   5.283  12.910 -0.5145  0.1261 -0.5832
31056SOL    HW2 4894   8.030   5.238  13.043 -1.1079  0.2879 -0.2727
31057SOL     OW 4895   7.335   8.214   5.884  0.3776 -0.0454  0.0264
31057SOL    HW1 4896   7.295   8.141   5.837  0.2410 -0.8927  1.4041
31057SOL    HW2 4897   7.422   8.181   5.909  0.8722  0.7836 -0.5527
31058SOL     OW 4898   6.207   4.876   2.711  1.0901 -0.1864 -0.3781
31058SOL    HW1 4899   6.113   4.894   2.720  1.6033  1.7705  3.5729
31058SOL    HW2 4900   6.219   4.851   2.620 -3.0329  0.9176 -1.4128
31059SOL     OW 4901  13.563  11.587   4.891 -0.4427  0.0124 -0.5228
31059SOL    HW1 4902  13.470  11.610   4.894 -0.1682  1.1378  2.2109
31059SOL    HW2 4903  13.599  11.643   4.823 -1.1078  2.6091  1.1262
31060SOL     OW 4904   1.117   3.255  12.461 -0.0815 -0.0138  0.0416
31060SOL    HW1 4905   1.112   3.345  12.494  0.8425  0.3797 -0.8505
31060SOL    HW2 4906   1.130   3.265  12.367  0.6508 -1.0755  0.0215
31061SOL     OW 4907   9.867   9.952   7.667  0.1398 -0.5692 -0.4687
31061SOL    HW1 4908   9.855  10.017   7.736  0.0088 -1.2359  0.1399
31061SOL    HW2 4909   9.817   9.987   7.593 -0.5391 -0.3398  0.0904
31062SOL     OW 4910   6.176  13.416  13.288  0.5747 -0.0391 -0.0163
31062SOL    HW1 4911   6.081  13.415  13.273  0.2850  0.8318  1.4927
31062SOL    HW2 4912   6.190  13.344  13.350  0.5407  1.1107  1.3908
31063SOL     OW 4913  11.616   6.989   5.858 -0.6426  0.2356 -0.0256
31063SOL    HW1 4914  11.569   6.975   5.940 -2.5512 -0.0072 -1.1047
31063SOL    HW2 4915  11.578   7.069   5.822  0.9454  0.9500 -0.1878
31064SOL     OW 4916   6.511   3.737   6.522 -0.4023  0.2585  0.4996
31064SOL    HW1 4917   6.541   3.710   6.435  1.1002  1.0551  0.7547
31064SOL    HW2 4918   6.486   3.829   6.511 -0.8387  0.1721  0.7674
31065SOL     OW 4919   5.648   0.802  10.865  0.4840 -0.1613 -0.6766
31065SOL    HW1 4920   5.737   0.820  10.895  0.2078  2.1075 -1.0918
31065SOL    HW2 4921   5.595   0.872  10.901 -1.7590 -2.8980  1.8809
31066SOL     OW 4922  11.527   2.415   3.482 -0.5541 -0.5801  0.1038
31066SOL    HW1 4923  11.467   2.412   3.557 -0.1409  0.5485  0.4902
31066SOL    HW2 4924  11.480   2.367   3.413 -2.5666  1.4186 -0.0455
31067SOL     OW 4925   1.262   5.569   5.753  0.2360  0.3432  0.2844
31067SOL    HW1 4926   1.351   5.536   5.763  0.4918  0.4763 -1.2713
31067SOL    HW2 4927   1.272   5.664   5.747 -0.2645  0.5776  2.3233
31068SOL     OW 4928   5.171   6.745  13.055 -0.5375 -0.2385  0.0732
31068SOL    HW1 4929   5.076   6.738  13.061 -0.7080  2.1906  1.1794
31068SOL    HW2 4930   5.203   6.700  13.134 -0.7158 -1.2640 -0.4197
31069SOL     OW 4931  11.176   4.176  12.728  0.0216 -0.2874  0.0763
31069SOL    HW1 4932  11.239   4.188  12.657  0.5650  0.2851  0.6332
31069SOL    HW2 4933  11.112   4.246  12.716 -0.4727 -0.8349 -0.4579
31070SOL     OW 4934   9.313   2.954   9.531 -0.1710  0.0515  0.1045
31070SOL    HW1 4935   9.356   2.976   9.449 -1.0595  0.4178 -0.2740
31070SOL    HW2 4936   9.385   2.939   9.593  0.4929  0.9036 -0.4425
31071SOL     OW 4937  13.185  13.058   3.328 -0.4036 -0.1511 -0.6509
31071SOL    HW1 4938  13.131  13.024   3.399  1.5791 -0.5945  0.7465
31071SOL    HW2 4939  13.275  13.035   3.353  0.5630  1.5319 -2.2832
31072SOL     OW 4940   2.129   4.247  11.146  0.8470 -0.3262  0.6891
31072SOL    HW1 4941   2.093   4.159  11.144 -1.0535  0.4056 -0.0273
31072SOL    HW2 4942   2.052   4.304  11.146  2.0098  1.3492 -0.9456
31073SOL     OW 4943   1.140   8.189   9.985  0.3473  0.3364 -0.0401
31073SOL    HW1 4944   1.072   8.202  10.051  0.5829  0.9261  0.0961
31073SOL    HW2 4945   1.175   8.102  10.003 -2.1149 -1.0909 -1.7451
31074SOL     OW 4946   6.033  10.568   5.529 -1.0364  0.0239 -0.7321
31074SOL    HW1 4947   5.960  10.508   5.545 -0.7584 -1.0682 -3.1724
31074SOL    HW2 4948   6.103  10.513   5.496  0.0113  1.4169 -0.9436
31075SOL     OW 4949   6.963   5.137  11.487  0.1191  0.8758  0.2068
31075SOL    HW1 4950   6.938   5.050  11.454  0.4963  0.2421  1.5492
31075SOL    HW2 4951   6.998   5.182  11.410 -0.1321 -0.1435 -0.5241
31076SOL     OW 4952   2.424   1.260   7.927 -0.8397  0.0429 -0.3104
31076SOL    HW1 4953   2.514   1.287   7.908 -0.4421 -1.7304 -1.0722
31076SOL    HW2 4954   2.404   1.301   8.012  0.5642  0.6858 -0.2683
31077SOL     OW 4955  12.737   9.946   3.000 -0.0400  0.1724 -0.1368
31077SOL    HW1 4956  12.725   9.931   2.906  1.7586  0.2806 -0.4201
31077SOL    HW2 4957  12.751  10.041   3.007 -0.1835  0.1657  0.2493
31078SOL     OW 4958   6.779   0.659   8.773  0.1696  0.0411 -0.3859
31078SOL    HW1 4959   6.795   0.630   8.863 -2.8537 -1.5458 -0.2502
31078SOL    HW2 4960   6.779   0.579   8.722  1.7898  0.9214 -1.8684
31079SOL     OW 4961  10.449   8.982   6.211  0.3222 -0.6153 -0.1456
31079SOL    HW1 4962  10.372   9.038   6.201  0.1440 -0.7522  0.3906
31079SOL    HW2 4963  10.523   9.038   6.189  0.2486  0.2297  1.5788
31080SOL     OW 4964   9.329  12.482   9.898  0.3228  0.1007 -0.3089
31080SOL    HW1 4965   9.277  12.522   9.968  0.8210  0.7238 -0.2858
31080SOL    HW2 4966   9.363  12.402   9.937 -1.4963 -0.9181 -0.6683
31081SOL     OW 4967   4.180   1.192   2.607  0.6282 -0.3457  0.1206
31081SOL    HW1 4968   4.097   1.169   2.567 -0.3577  2.4465  0.3575
31081SOL    HW2 4969   4.246   1.169   2.541 -0.6916  1.0923 -1.7981
31082SOL     OW 4970   1.311   4.833   7.968  0.0129 -0.0529  0.0217
31082SOL    HW1 4971   1.395   4.858   7.931 -0.5315  0.7479 -0.6971
31082SOL    HW2 4972   1.293   4.900   8.035 -1.1129  1.1450 -1.4195
31083SOL     OW 4973   6.689   0.458   2.478 -0.3023  0.0824 -0.1572
31083SOL    HW1 4974   6.641   0.440   2.398 -0.9332 -0.6188  0.3591
31083SOL    HW2 4975   6.671   0.382   2.534  0.2686  0.4746  0.5764
31084SOL     OW 4976   0.854  10.420   9.789  0.2330  0.1373  0.3881
31084SOL    HW1 4977   0.906  10.428   9.709 -2.2428  3.4927 -1.1706
31084SOL    HW2 4978   0.787  10.354   9.768 -0.3210  0.9030 -0.3378
31085SOL     OW 4979   0.594   3.894   0.436  0.2153 -0.5251  0.2936
31085SOL    HW1 4980   0.509   3.850   0.429  0.7595 -1.4513 -1.1017
31085SOL    HW2 4981   0.642   3.864   0.358  0.6534  2.5106 -0.7484
31086SOL     OW 4982  12.671   1.855   5.320  0.1655  0.2515 -0.1527
31086SOL    HW1 4983  12.689   1.943   5.284 -0.7872  1.0002  1.1125
31086SOL    HW2 4984  12.661   1.869   5.414  0.3860 -1.3043  0.1297
31087SOL     OW 4985  10.562   7.944  11.612 -0.8363 -0.2885 -0.0277
31087SOL    HW1 4986  10.521   8.029  11.626  1.2664  0.6382  0.8683
31087SOL    HW2 4987  10.567   7.905  11.699  0.2730 -0.3182 -0.0903
31088SOL     OW 4988   8.582   5.785   0.266  0.0122  0.4856  0.1254
31088SOL    HW1 4989   8.643   5.851   0.299  0.2412  0.3727 -0.0689
31088SOL    HW2 4990   8.563   5.812   0.176  0.8964 -0.2562 -0.2998
31089SOL     OW 4991   2.138  11.724   1.489 -0.1310 -0.4694  0.9417
31089SOL    HW1 4992   2.214  11.666   1.494 -0.1234 -0.4399  1.1466
31089SOL    HW2 4993   2.087  11.704   1.567  0.4250  0.5818  1.5899
31090SOL     OW 4994   8.655   0.273   9.804  0.2829  0.0456  0.0053
31090SOL    HW1 4995   8.726   0.310   9.857  2.1254 -0.8449 -1.6861
31090SOL    HW2 4996   8.689   0.275   9.714 -2.3974  0.7563 -1.0627
31091SOL     OW 4997   8.741   9.979  10.971 -0.0190  0.4890 -0.6184
31091SOL    HW1 4998   8.753   9.987  11.065 -1.5486  0.5733 -0.4049
31091SOL    HW2 4999   8.790  10.052  10.934  1.8787 -0.4182 -0.0322
31092SOL     OW 5000  11.667   1.111   9.834 -0.5254 -0.4361 -0.0280
31092SOL    HW1 5001  11.695   1.182   9.892 -0.9369 -2.1512  2.4454
31092SOL    HW2 5002  11.724   1.117   9.758  0.4572  1.5921  0.8067
31093SOL     OW 5003  13.255   7.905   1.721  0.1432  0.3585 -0.1234
31093SOL    HW1 5004  13.248   7.920   1.626 -1.0899 -2.2082 -0.5143
31093SOL    HW2 5005  13.298   7.820   1.728  0.8552  0.8385  1.6808
31094SOL     OW 5006   3.854   7.508   0.432  0.0846 -0.5302 -0.3613
31094SOL    HW1 5007   3.941   7.502   0.392 -0.8182 -0.4917 -2.4511
31094SOL    HW2 5008   3.858   7.448   0.507  2.4073  0.7466  0.6830
31095SOL     OW 5009   3.755   8.825   0.454  0.4683  0.0449 -0.1929
31095SOL    HW1 5010   3.737   8.731   0.463 -0.3127  0.2680  0.7230
31095SOL    HW2 5011   3.752   8.858   0.544  0.9785  0.9080 -0.4895
31096SOL     OW 5012   7.870   9.309  13.509 -0.6489  1.0237 -0.2590
31096SOL    HW1 5013   7.866   9.244  13.578  0.4838  2.0447  0.8079
31096SOL    HW2 5014   7.789   9.359  13.519  0.3295  2.3578  1.6017
31097SOL     OW 5015   1.066   2.458   7.693  0.1764  0.7456 -0.2557
31097SOL    HW1 5016   1.133   2.520   7.721 -1.3214  2.1821  0.3069
31097SOL    HW2 5017   0.989   2.480   7.745 -0.7440 -0.8866 -0.8403
31098SOL     OW 5018   5.982  11.017  10.304 -0.2084  0.5608  0.8228
31098SOL    HW1 5019   6.038  11.086  10.337  0.1429 -0.1857  1.8204
31098SOL    HW2 5020   6.039  10.941  10.294 -0.5200  0.4791 -0.5601
31099SOL     OW 5021  12.799   8.698   1.939  0.1322  0.3943 -0.3467
31099SOL    HW1 5022  12.832   8.634   1.876  2.1221 -0.2203  1.2008
31099SOL    HW2 5023  12.739   8.753   1.889 -1.3681 -2.3900 -1.8556
31100SOL     OW 5024  13.535   2.301   2.012 -0.4944  0.3763 -0.0578
31100SOL    HW1 5025  13.510   2.248   2.088  0.7037 -0.4416 -0.2159
31100SOL    HW2 5026  13.629   2.313   2.022 -0.2952  0.1071 -1.5050
31101SOL     OW 5027  10.966  12.385   2.504  0.1472  0.1070 -0.8667
31101SOL    HW1 5028  11.040  12.440   2.478 -0.3878  1.8280  0.9667
31101SOL    HW2 5029  10.913  12.441   2.560 -1.8646 -1.5070 -1.0351
31102SOL     OW 5030   0.237   1.547   6.286  0.1003  0.2743 -0.4991
31102SOL    HW1 5031   0.206   1.568   6.375  2.6693 -1.2182  0.8773
31102SOL    HW2 5032   0.300   1.615   6.266 -1.1125  1.1108 -1.6312
31103SOL     OW 5033  12.919   1.580   7.797 -0.0572 -0.2578 -0.0280
31103SOL    HW1 5034  12.833   1.542   7.781 -0.0059 -0.4418  0.1291
31103SOL    HW2 5035  12.980   1.507   7.784  0.1643  0.1094 -1.1843
31104SOL     OW 5036   5.678   1.887   8.783 -0.4534 -0.0509  0.2492
31104SOL    HW1 5037   5.638   1.925   8.705 -0.3135  0.8188  0.5912
31104SOL    HW2 5038   5.764   1.929   8.789  0.5347 -1.8634 -0.4527
31105SOL     OW 5039  11.810   2.716   6.335  0.0080  0.5572  0.5976
31105SOL    HW1 5040  11.874   2.766   6.385  1.4077 -0.9430  0.3888
31105SOL    HW2 5041  11.786   2.643   6.392  0.4704 -0.3317 -0.3182
31106SOL     OW 5042   3.238  12.584   6.916 -0.4224  0.3584 -0.0487
31106SOL    HW1 5043   3.300  12.627   6.975  0.2491 -0.7980  0.1087
31106SOL    HW2 5044   3.164  12.560   6.972 -0.1882  0.0725  0.1385
31107SOL     OW 5045   2.990   6.733   1.328  0.6340 -0.4384  0.0323
31107SOL    HW1 5046   2.895   6.743   1.326  0.3098 -2.9093  0.6945
31107SOL    HW2 5047   3.024   6.821   1.308 -1.7593  0.5514  0.0767
31108SOL     OW 5048   4.419   3.206   0.593 -0.3369 -0.3033 -0.1174
31108SOL    HW1 5049   4.441   3.232   0.503 -1.2413  1.3147  0.0931
31108SOL    HW2 5050   4.327   3.181   0.589 -0.0118 -1.6135  0.1064
31109SOL     OW 5051   4.594   1.154  10.186  0.3206  0.4555  0.0575
31109SOL    HW1 5052   4.639   1.188  10.108  0.4653 -1.6504 -0.8292
31109SOL    HW2 5053   4.590   1.229  10.245  2.1498  1.5641 -1.1096
31110SOL     OW 5054   5.710   9.430   5.392 -0.6417  0.2648  0.2175
31110SOL    HW1 5055   5.783   9.437   5.453  0.6351 -1.6825 -0.9842
31110SOL    HW2 5056   5.712   9.512   5.343 -1.2804  1.5837  2.2277
31111SOL     OW 5057  12.984   6.304   6.402 -0.0835 -0.8625  0.0815
31111SOL    HW1 5058  12.975   6.350   6.485  2.2246  0.2439 -0.1850
31111SOL    HW2 5059  13.066   6.255   6.411  0.1711 -0.7785 -1.4854
31112SOL     OW 5060   6.634  10.552   0.410  0.5933  0.1696 -0.2065
31112SOL    HW1 5061   6.602  10.544   0.320 -0.2095 -1.1970  0.1735
31112SOL    HW2 5062   6.561  10.524   0.464  1.5189 -0.3237  0.8203
31113SOL     OW 5063  13.575   7.809   1.603  0.2148  0.2231  0.1974
31113SOL    HW1 5064  13.652   7.866   1.610  0.5604 -0.0030 -1.3754
31113SOL    HW2 5065  13.610   7.720   1.612  0.2867  0.0742 -1.3814
31114SOL     OW 5066   9.453  11.643   0.400 -0.1071  0.4315 -0.0985
31114SOL    HW1 5067   9.409  11.714   0.447 -0.0331  0.3314  0.1270
31114SOL    HW2 5068   9.392  11.570   0.404  0.2719  0.1438  0.6363
31115SOL     OW 5069  13.113  10.645   8.873 -0.7393 -0.0430 -0.2384
31115SOL    HW1 5070  13.202  10.622   8.846 -0.5872  0.3142 -0.0504
31115SOL    HW2 5071  13.110  10.740   8.867 -0.2561  0.2158  2.2530
31116SOL     OW 5072   5.102   9.184  13.297 -0.0990  0.1284 -0.1550
31116SOL    HW1 5073   5.089   9.121  13.226  2.7864  1.5005 -2.0673
31116SOL    HW2 5074   5.037   9.252  13.280 -1.4514 -0.9712  0.3826
31117SOL     OW 5075  10.607  10.469   4.540  0.2244  0.4553  0.3406
31117SOL    HW1 5076  10.598  10.397   4.603 -1.3252 -0.7713 -1.1646
31117SOL    HW2 5077  10.696  10.461   4.506 -0.4889 -2.0869 -1.2204
31118SOL     OW 5078   1.214   1.175  13.126 -0.1778  0.2432 -0.2349
31118SOL    HW1 5079   1.220   1.145  13.216 -1.2499 -1.9494 -0.8027
31118SOL    HW2 5080   1.298   1.215  13.107 -0.0097  0.8963  1.7690
31119SOL     OW 5081   5.514  12.761   7.671  0.3846 -0.5617  0.1070
31119SOL    HW1 5082   5.465  12.681   7.688 -1.6422  0.2893 -1.3295
31119SOL    HW2 5083   5.530  12.760   7.577  0.3935  0.6535  0.0741
31120SOL     OW 5084   5.253   5.241   2.870 -0.3931  0.9112  0.0213
31120SOL    HW1 5085   5.209   5.227   2.953 -1.2323 -0.3516 -0.5992
31120SOL    HW2 5086   5.346   5.234   2.890 -0.5817  0.8556  0.8815
31121SOL     OW 5087   3.063   8.085   8.375 -0.0159  0.2923  0.2681
31121SOL    HW1 5088   3.002   8.108   8.444  0.1688  1.3564  0.1028
31121SOL    HW2 5089   3.058   8.158   8.313  0.5384 -0.1732 -0.3489
31122SOL     OW 5090   2.693   1.674   1.200 -0.0782 -0.5071  0.2763
31122SOL    HW1 5091   2.716   1.767   1.212  1.8467 -0.9779  0.6556
31122SOL    HW2 5092   2.599   1.670   1.218 -0.2550  1.3978  0.0252
31123SOL     OW 5093   6.218  10.285  12.141 -0.1008 -0.7477 -0.4531
31123SOL    HW1 5094   6.146  10.348  12.149 -0.2412 -0.8838 -0.6475
31123SOL    HW2 5095   6.295  10.339  12.126 -0.1603 -0.6005 -0.2391
31124SOL     OW 5096   5.529   9.498  10.841 -0.1114  0.4922 -0.0190
31124SOL    HW1 5097   5.529   9.528  10.750 -0.5743  0.1582 -0.1281
31124SOL    HW2 5098   5.618   9.466  10.855 -0.1608  0.1567 -0.4799
31125SOL     OW 5099  10.435  11.257   4.553  0.3992  0.5096  0.1717
31125SOL    HW1 5100  10.354  11.205   4.551  0.5705  0.1981  0.8672
31125SOL    HW2 5101  10.433  11.299   4.639  0.5385  1.2160 -0.1704
31126SOL     OW 5102   3.665  11.022   6.452 -0.1962 -0.2453 -0.7050
31126SOL    HW1 5103   3.751  11.035   6.411 -0.9655 -1.7048 -3.0049
31126SOL    HW2 5104   3.659  11.091   6.518  2.0061  1.0113 -1.7067
31127SOL     OW 5105   0.419   7.749  10.825  1.1424  0.3519 -0.2073
31127SOL    HW1 5106   0.389   7.695  10.752  0.5591  2.7573 -1.8420
31127SOL    HW2 5107   0.504   7.783  10.797  1.7226 -0.0336  0.9961
31128SOL     OW 5108   3.243   8.415   0.928  0.0942  0.3998 -0.1522
31128SOL    HW1 5109   3.262   8.376   1.014  0.6449 -2.6019 -1.5348
31128SOL    HW2 5110   3.150   8.437   0.932 -0.1787 -0.8195  0.8386
31129SOL     OW 5111  12.350  11.730   4.939  0.8104  0.0805  0.5288
31129SOL    HW1 5112  12.316  11.758   4.854 -0.0100 -0.9590  0.4983
31129SOL    HW2 5113  12.352  11.635   4.935 -0.0556 -0.0400  1.9674
31130SOL     OW 5114   7.940   8.821  11.253 -0.7544 -0.4952  0.1627
31130SOL    HW1 5115   7.978   8.776  11.329  1.3958 -0.9954 -1.1212
31130SOL    HW2 5116   7.924   8.910  11.284 -0.3232 -0.7924  1.3165
31131SOL     OW 5117  12.270   0.605   8.430 -0.1889 -0.1155  0.0801
31131SOL    HW1 5118  12.188   0.556   8.428  0.0289 -0.5073  0.6119
31131SOL    HW2 5119  12.295   0.613   8.338 -0.0712 -1.2720  0.0063
31132SOL     OW 5120   3.536   9.165   0.047 -0.2330  0.0071  0.0596
31132SOL    HW1 5121   3.530   9.253   0.083 -2.3522  0.0467 -0.2628
31132SOL    HW2 5122   3.576   9.113   0.117  2.8578  1.4917 -0.4149
31133SOL     OW 5123  12.922   2.324   4.940 -0.5574 -0.6831 -0.4848
31133SOL    HW1 5124  12.854   2.375   4.898  0.6019  0.6755 -0.8033
31133SOL    HW2 5125  12.989   2.312   4.873  2.2284  3.1638  1.2021
31134SOL     OW 5126  10.168   4.842  11.980  0.0994 -0.5594 -0.2694
31134SOL    HW1 5127  10.144   4.789  12.056 -2.0734  0.7024 -0.0062
31134SOL    HW2 5128  10.148   4.787  11.904  0.7547 -1.2185  0.0237
31135SOL     OW 5129  10.498   8.733  10.618  0.3128 -0.2059 -0.1943
31135SOL    HW1 5130  10.566   8.800  10.612 -0.2601  0.2880 -2.1700
31135SOL    HW2 5131  10.542   8.652  10.589 -0.2860  0.4846 -3.4514
31136SOL     OW 5132   4.997   4.916   9.105  0.5563  0.1782  0.4305
31136SOL    HW1 5133   5.017   4.898   9.013 -0.7183  1.3644 -0.1251
31136SOL    HW2 5134   4.968   5.008   9.106  0.0565  0.0364  1.9228
31137SOL     OW 5135  13.288   6.975   8.939 -0.1560  0.2238 -0.0851
31137SOL    HW1 5136  13.238   7.049   8.906  0.7949  0.6552 -0.6210
31137SOL    HW2 5137  13.223   6.913   8.971 -1.0648  0.3958 -1.5287
31138SOL     OW 5138  11.868   7.930   9.334 -0.0211  0.2574  0.6726
31138SOL    HW1 5139  11.800   7.871   9.366  0.8889 -1.0724  0.2399
31138SOL    HW2 5140  11.884   7.901   9.244  0.0512  1.5421  0.2493
31139SOL     OW 5141   2.415   4.078   3.224 -0.3351  0.1857 -0.3842
31139SOL    HW1 5142   2.481   4.139   3.191  0.7838 -0.3068  0.8898
31139SOL    HW2 5143   2.382   4.034   3.145  0.5236  0.7523 -1.0784
31140SOL     OW 5144  12.348   4.286   9.388 -0.3251 -0.2061  0.2788
31140SOL    HW1 5145  12.353   4.275   9.293 -3.1587 -1.7242  0.1948
31140SOL    HW2 5146  12.438   4.306   9.415  0.5539  0.2876 -2.6894
31141SOL     OW 5147  13.526  12.527   6.038  0.6366  0.6820 -0.2297
31141SOL    HW1 5148  13.588  12.595   6.063  0.7321 -0.0038  1.5138
31141SOL    HW2 5149  13.554  12.499   5.951  0.3541  3.1121 -1.1889
31142SOL     OW 5150   2.196  12.901   5.654  0.2336  0.1370 -0.3669
31142SOL    HW1 5151   2.135  12.966   5.690  1.6910  1.6927 -0.6057
31142SOL    HW2 5152   2.258  12.885   5.725  1.8376  1.5762 -1.3657
31143SOL     OW 5153   8.985   4.004   0.115  0.0615  0.7488 -0.3209
31143SOL    HW1 5154   8.963   4.000   0.022 -1.2493 -0.5814  0.0095
31143SOL    HW2 5155   9.079   4.022   0.117  0.1234  0.6966 -1.8975
31144SOL     OW 5156   2.921   4.050   9.839 -0.0677  0.5046 -0.0979
31144SOL    HW1 5157   2.953   3.984   9.777 -0.0243  1.2232 -0.8653
31144SOL    HW2 5158   2.979   4.042   9.914  1.0842  0.8440 -0.9075
31145SOL     OW 5159  12.194   0.250  12.754  0.2581  0.3722  0.0836
31145SOL    HW1 5160  12.197   0.261  12.849  1.4970  1.8556 -0.0867
31145SOL    HW2 5161  12.278   0.209  12.732 -1.0286 -2.3730 -0.1750
31146SOL     OW 5162   4.109   1.656   0.760  0.6741  0.3361 -0.4392
31146SOL    HW1 5163   4.102   1.566   0.790 -1.9086  0.3401 -0.8008
31146SOL    HW2 5164   4.068   1.708   0.829 -2.1461  0.6765 -2.1695
31147SOL     OW 5165  11.292   7.888   1.271  0.2027 -0.0153 -0.4864
31147SOL    HW1 5166  11.349   7.957   1.236 -0.0816  0.2805 -0.3655
31147SOL    HW2 5167  11.326   7.872   1.359 -0.3040  0.6234 -0.1690
31148SOL     OW 5168  12.491   9.945   4.206 -0.2322  0.0155 -0.1597
31148SOL    HW1 5169  12.408   9.991   4.198 -0.2507  0.4688  2.0594
31148SOL    HW2 5170  12.498   9.922   4.299  2.0689 -0.1012 -0.2887
31149SOL     OW 5171  13.114  12.825  11.417 -0.8587  0.1697 -0.2211
31149SOL    HW1 5172  13.197  12.859  11.384 -1.8910  1.0603 -2.0337
31149SOL    HW2 5173  13.115  12.845  11.510  1.3043 -0.6173 -0.0089
31150SOL     OW 5174  13.512  10.664   3.592 -0.3996  0.0653 -0.0669
31150SOL    HW1 5175  13.530  10.719   3.515 -0.1275  1.4524  0.9495
31150SOL    HW2 5176  13.591  10.613   3.604 -0.3724 -0.0219 -0.6037
31151SOL     OW 5177  12.116  13.510   0.681  0.7682  0.2974  0.7022
31151SOL    HW1 5178  12.207  13.532   0.700  1.4401 -0.2816 -1.4931
31151SOL    HW2 5179  12.102  13.540   0.591 -1.1490  0.1592  0.9013
31152SOL     OW 5180   3.874  11.429   9.956 -0.1933 -0.5008  0.4175
31152SOL    HW1 5181   3.814  11.481  10.009 -0.9496 -0.2929 -0.5853
31152SOL    HW2 5182   3.863  11.464   9.867  1.8876 -0.0566  0.2964
31153SOL     OW 5183  11.027  11.411   8.710 -0.0034  0.2911 -0.3201
31153SOL    HW1 5184  11.057  11.502   8.708 -0.0013  0.2808 -0.8129
31153SOL    HW2 5185  11.025  11.384   8.618 -2.0139  0.4578 -0.3889
31154SOL     OW 5186   8.448   5.225   8.374 -0.1672 -0.1854 -0.6883
31154SOL    HW1 5187   8.489   5.148   8.413  1.6948  0.4599 -1.2624
31154SOL    HW2 5188   8.416   5.195   8.289  3.6854  0.3457 -2.5111
31155SOL     OW 5189  13.459   6.519   2.502 -0.2007 -0.4995  0.1818
31155SOL    HW1 5190  13.454   6.612   2.522  1.0638 -0.4133  0.2272
31155SOL    HW2 5191  13.378   6.499   2.455 -0.2857  0.7176 -0.2129
31156SOL     OW 5192  13.655  12.183   9.929 -0.1320  0.4769  0.4493
31156SOL    HW1 5193  13.725  12.175   9.864 -0.5988 -0.2961  0.0250
31156SOL    HW2 5194  13.695  12.155  10.011 -0.3036 -1.3685 -0.0519
31157SOL     OW 5195   0.252   7.043   5.892  0.4365  0.3005 -0.2145
31157SOL    HW1 5196   0.264   7.132   5.926 -2.2330  0.7122 -0.1030
31157SOL    HW2 5197   0.271   6.986   5.966  1.0368  0.8281  0.0477
31158SOL     OW 5198   7.795   3.709  12.285  0.2370  0.1573  0.3410
31158SOL    HW1 5199   7.769   3.617  12.289 -0.5930  0.3409 -0.5179
31158SOL    HW2 5200   7.731   3.755  12.341 -0.3630  0.4015 -0.5120
31159SOL     OW 5201   8.964  10.110   0.016  0.4971  0.3276  0.4272
31159SOL    HW1 5202   8.874  10.140   0.005  0.3577 -0.7495 -2.3873
31159SOL    HW2 5203   9.006  10.180   0.066 -1.6656  1.3074  1.0132
31160SOL     OW 5204   6.615   9.218   4.554 -0.0319  0.4363 -0.5806
31160SOL    HW1 5205   6.524   9.206   4.581  0.0955  2.6974  1.1149
31160SOL    HW2 5206   6.650   9.129   4.548 -1.8401 -0.4060  0.5891
31161SOL     OW 5207   2.581   2.548  12.054  0.1613  0.0209 -0.6228
31161SOL    HW1 5208   2.495   2.506  12.056 -0.6828  1.6572  0.0123
31161SOL    HW2 5209   2.598   2.571  12.146  1.5594 -0.7791 -0.6554
31162SOL     OW 5210   5.261  12.539   9.480 -0.0984 -0.2443  0.1588
31162SOL    HW1 5211   5.196  12.483   9.439 -0.8025  0.0616  0.8159
31162SOL    HW2 5212   5.252  12.623   9.435 -0.7791  0.0527  0.8183
31163SOL     OW 5213  10.760   5.558   2.361 -0.1081 -0.0935  0.1647
31163SOL    HW1 5214  10.815   5.503   2.417 -0.9008 -1.4816 -0.3805
31163SOL    HW2 5215  10.670   5.533   2.383 -0.4487 -0.8681 -1.8753
31164SOL     OW 5216   1.421  11.335  13.435  0.5585 -0.4116 -0.0780
31164SOL    HW1 5217   1.350  11.382  13.477  1.2517 -0.0082  0.6632
31164SOL    HW2 5218   1.412  11.244  13.465  0.0826 -0.4638 -0.3683
31165SOL     OW 5219   7.708   1.814  13.252 -0.1942  0.5787 -0.6843
31165SOL    HW1 5220   7.672   1.895  13.289 -1.3594 -0.4936  0.6583
31165SOL    HW2 5221   7.632   1.771  13.212  0.5823  0.5304 -2.1680
31166SOL     OW 5222   5.832   0.339  11.075  0.6141  0.5710 -0.3071
31166SOL    HW1 5223   5.866   0.365  10.990 -0.4638 -1.7387 -1.5326
31166SOL    HW2 5224   5.820   0.245  11.068 -2.0034  0.6761  1.4725
31167SOL     OW 5225  10.311  10.408   1.548  0.0599 -0.1848 -0.0106
31167SOL    HW1 5226  10.355  10.443   1.625  2.6287  2.0722 -2.2919
31167SOL    HW2 5227  10.340  10.317   1.543 -2.6535 -1.4535  3.1971
31168SOL     OW 5228   7.342   3.036   5.080  0.1087 -0.4802 -0.2717
31168SOL    HW1 5229   7.428   3.066   5.112  0.0392  1.1500 -1.5078
31168SOL    HW2 5230   7.363   2.978   5.007  0.1445  0.0034 -0.6419
31169SOL     OW 5231   3.353  12.952  10.719  0.0766  0.1668 -0.3369
31169SOL    HW1 5232   3.362  13.033  10.770 -1.3163  0.6290 -0.7914
31169SOL    HW2 5233   3.443  12.931  10.692  0.8104  0.1918  1.8327
31170SOL     OW 5234  11.284  11.801   3.556  0.4875 -0.3496  0.0979
31170SOL    HW1 5235  11.291  11.705   3.560  0.2045 -0.3558  0.5500
31170SOL    HW2 5236  11.359  11.832   3.608 -0.2996 -0.3589  1.2932
31171SOL     OW 5237  13.133   3.407   3.157 -0.1740  0.0212 -0.2871
31171SOL    HW1 5238  13.146   3.467   3.231  0.4815  2.2209 -2.0814
31171SOL    HW2 5239  13.045   3.373   3.170 -0.4421  1.0911  1.0051
31172SOL     OW 5240   8.931  12.174   6.345  0.4003  0.3196  0.6738
31172SOL    HW1 5241   8.956  12.171   6.252 -0.7467  1.4033  0.3026
31172SOL    HW2 5242   8.911  12.266   6.361 -1.1588 -0.1363  1.5143
31173SOL     OW 5243   2.643   1.060   7.149 -0.7219 -0.3217 -0.8167
31173SOL    HW1 5244   2.574   1.125   7.164 -0.0290  0.1916  0.2824
31173SOL    HW2 5245   2.660   1.064   7.055 -2.2778 -0.5621 -1.1380
31174SOL     OW 5246   4.169  10.558   6.072 -0.8769  0.2037  0.3004
31174SOL    HW1 5247   4.160  10.604   5.989 -1.4464  0.5214  0.5364
31174SOL    HW2 5248   4.264  10.550   6.085 -0.7831  0.9060  0.0411
31175SOL     OW 5249   7.463   9.295  10.241  1.2237  0.4160  0.3305
31175SOL    HW1 5250   7.402   9.343  10.185  1.1647  1.2467  1.0852
31175SOL    HW2 5251   7.548   9.306  10.198  1.0724  0.5020  0.0523
31176SOL     OW 5252  12.802   0.481   4.545  0.3608  0.0070 -0.8047
31176SOL    HW1 5253  12.843   0.416   4.602 -0.1714 -0.4163 -0.8854
31176SOL    HW2 5254  12.747   0.429   4.486 -0.5267  0.5695 -0.4953
31177SOL     OW 5255  12.988   3.619  12.153 -1.0391 -0.5627  0.0070
31177SOL    HW1 5256  13.077   3.620  12.188 -1.4247 -2.6210  1.2018
31177SOL    HW2 5257  12.999   3.599  12.060 -0.2594 -1.4521  0.2773
31178SOL     OW 5258   1.144   4.932  10.376  0.4248 -0.2444  0.5703
31178SOL    HW1 5259   1.103   4.857  10.333 -1.3325  0.1575  1.4517
31178SOL    HW2 5260   1.098   4.940  10.460  2.9267 -0.2840  2.0574
31179SOL     OW 5261   1.680   1.800   9.964 -0.5206  0.1738  0.3888
31179SOL    HW1 5262   1.719   1.886   9.983  0.3565  0.1527 -1.1188
31179SOL    HW2 5263   1.700   1.785   9.871 -2.6948 -0.6271 -0.0027
31180SOL     OW 5264   9.561   7.701   3.512  0.6803  0.5544 -0.2591
31180SOL    HW1 5265   9.533   7.776   3.565  0.9636 -0.1358  0.8981
31180SOL    HW2 5266   9.480   7.659   3.486  0.4675  1.7661 -1.7294
31181SOL     OW 5267   0.267   4.035  12.820  0.5534  0.2747 -0.6436
31181SOL    HW1 5268   0.301   3.953  12.785 -0.2507 -0.4156  0.1800
31181SOL    HW2 5269   0.311   4.103  12.768  2.2705 -0.6189 -0.4276
31182SOL     OW 5270   4.338  13.225   3.853 -0.5339 -0.2392 -0.0404
31182SOL    HW1 5271   4.399  13.152   3.866  1.3936  1.4549  1.0612
31182SOL    HW2 5272   4.349  13.279   3.931 -0.9525  1.8698 -1.3631
31183SOL     OW 5273  10.003   5.945   6.087 -0.5511 -0.2657  0.0557
31183SOL    HW1 5274  10.054   6.026   6.097  0.5686 -1.1227  1.6552
31183SOL    HW2 5275   9.912   5.972   6.104 -0.5050  1.0362 -1.5620
31184SOL     OW 5276   2.352  11.867   5.042 -0.0323  0.5280 -0.4107
31184SOL    HW1 5277   2.265  11.907   5.030  0.7936  1.5512 -4.0651
31184SOL    HW2 5278   2.334  11.773   5.049 -1.4621  0.7246 -1.0902
31185SOL     OW 5279   9.365   9.484  12.796 -0.0783  0.2798  0.5240
31185SOL    HW1 5280   9.277   9.497  12.830  1.0327  1.4983  3.2735
31185SOL    HW2 5281   9.375   9.389  12.791 -2.0163  0.1141 -1.3904
31186SOL     OW 5282   1.609  11.525  11.846  0.5577  0.0577  0.3341
31186SOL    HW1 5283   1.571  11.594  11.900 -1.4041 -0.4828 -0.2873
31186SOL    HW2 5284   1.666  11.571  11.785  1.2472  0.8608  1.5425
31187SOL     OW 5285   5.020  13.589   9.904  0.0553  0.0734 -0.0837
31187SOL    HW1 5286   5.007  13.592   9.999 -0.5579 -1.0425 -0.1195
31187SOL    HW2 5287   5.020  13.681   9.878 -2.2946  0.3535  0.6805
31188SOL     OW 5288   4.198   6.026   4.150  0.0013 -0.2184 -0.1192
31188SOL    HW1 5289   4.248   6.101   4.118 -0.2464 -0.0004 -0.0004
31188SOL    HW2 5290   4.246   5.996   4.227  0.3645 -0.4811 -0.4409
31189SOL     OW 5291   3.062   2.872  11.511  0.0979  0.0869  0.4238
31189SOL    HW1 5292   3.061   2.776  11.512 -0.2992  0.0562 -1.1783
31189SOL    HW2 5293   2.969   2.896  11.504  0.0831  0.6383  2.1514
31190SOL     OW 5294   4.105  13.129  10.353  0.0181 -0.5280 -0.2942
31190SOL    HW1 5295   4.096  13.037  10.381  1.8398 -0.5255  0.4198
31190SOL    HW2 5296   4.119  13.124  10.259 -2.1772 -0.7962 -0.6683
31191SOL     OW 5297   7.071   9.735   4.327 -0.0116  0.2844 -0.2528
31191SOL    HW1 5298   7.032   9.821   4.311 -0.5665 -0.0205 -0.5421
31191SOL    HW2 5299   7.104   9.708   4.241  1.7570  0.9712  0.1524
31192SOL     OW 5300   0.379   6.685   2.431  0.0103  0.1429  0.7306
31192SOL    HW1 5301   0.400   6.600   2.470  1.0630  0.0267 -0.0533
31192SOL    HW2 5302   0.450   6.743   2.460  1.1096 -0.0625 -1.3489
31193SOL     OW 5303   4.998  10.279   2.710  0.0960 -0.2070  0.6995
31193SOL    HW1 5304   5.083  10.322   2.720 -0.2268  0.4600  0.6046
31193SOL    HW2 5305   4.961  10.316   2.630 -0.3873 -0.3177  0.8642
31194SOL     OW 5306   3.599   1.394   2.984 -0.1909 -0.3651 -0.0598
31194SOL    HW1 5307   3.604   1.418   2.892 -0.8371 -1.5452 -0.4213
31194SOL    HW2 5308   3.679   1.428   3.023 -1.3480  3.0690 -0.3347
31195SOL     OW 5309   1.842   3.550   9.210  0.5226 -0.1757 -0.3270
31195SOL    HW1 5310   1.814   3.523   9.123 -1.4879  0.4047  0.0896
31195SOL    HW2 5311   1.805   3.485   9.269  2.3128 -0.8666  0.1067
31196SOL     OW 5312   9.671   4.123   8.424 -0.4299 -0.1162  0.1248
31196SOL    HW1 5313   9.606   4.193   8.419 -0.4528 -0.2112 -1.0008
31196SOL    HW2 5314   9.736   4.145   8.358 -0.2242 -0.9485  0.0353
31197SOL     OW 5315   9.982   7.560   2.169  0.2792 -0.0939 -0.3824
31197SOL    HW1 5316  10.071   7.586   2.145  0.6613  0.8431  1.8699
31197SOL    HW2 5317   9.942   7.536   2.085  1.8399  1.8835 -1.8171
31198SOL     OW 5318   2.268   9.936   9.095 -0.2512  0.0456  0.6187
31198SOL    HW1 5319   2.293   9.937   9.003 -0.4034 -1.6453  0.5194
31198SOL    HW2 5320   2.187   9.884   9.097  0.2277 -0.6979  1.8015
31199SOL     OW 5321  13.655   7.473  10.214 -1.3087 -0.3760 -0.4980
31199SOL    HW1 5322  13.664   7.569  10.211  0.1842 -0.4772 -0.1602
31199SOL    HW2 5323  13.708   7.442  10.141  1.1244 -1.0418  1.4089
31200SOL     OW 5324   1.422   0.645   8.752 -0.2458 -0.5983  0.0222
31200SOL    HW1 5325   1.376   0.591   8.689  0.4005 -1.7699  0.5135
31200SOL    HW2 5326   1.362   0.652   8.826  0.1266 -1.6840  0.4487
31201SOL     OW 5327   2.752  12.343   2.447 -0.3528 -1.2533  0.2377
31201SOL    HW1 5328   2.700  12.417   2.478  0.8392 -0.3296  0.1151
31201SOL    HW2 5329   2.801  12.314   2.524 -0.8018 -1.9213  0.2817
31202SOL     OW 5330   8.053  11.443   5.769  0.0722 -0.2749 -0.1707
31202SOL    HW1 5331   8.025  11.510   5.830  1.1269 -0.2219  0.2806
31202SOL    HW2 5332   8.060  11.363   5.822 -1.5101 -0.8457 -0.7729
31203SOL     OW 5333   5.205   6.653  10.685  0.3177  0.5687  0.1673
31203SOL    HW1 5334   5.208   6.704  10.605 -3.9950  0.6303 -0.1385
31203SOL    HW2 5335   5.160   6.708  10.748 -1.9492 -1.6937  0.6803
31204SOL     OW 5336   8.357   6.348   6.292  0.2658 -0.9031  0.1633
31204SOL    HW1 5337   8.338   6.435   6.256  0.9821  0.3759  2.6495
31204SOL    HW2 5338   8.272   6.314   6.318  0.1437 -0.2372  0.6529
31205SOL     OW 5339   4.088   5.968   5.375  0.1042  0.0660 -0.4144
31205SOL    HW1 5340   4.105   5.881   5.411 -0.8985 -0.6662 -1.6108
31205SOL    HW2 5341   4.004   5.959   5.330  0.1304  1.5842 -0.8160
31206SOL     OW 5342  12.874  13.516  12.934 -0.0367  0.1420  0.0346
31206SOL    HW1 5343  12.882  13.421  12.927  1.8359  0.0055  2.6423
31206SOL    HW2 5344  12.849  13.545  12.846  1.9883 -2.5241 -1.5606
31207SOL     OW 5345   1.950  11.600   7.948  0.2623  0.3900 -0.3317
31207SOL    HW1 5346   1.996  11.654   7.883 -1.4039  0.2445 -1.6845
31207SOL    HW2 5347   1.860  11.596   7.917 -0.2069 -1.1358  1.0928
31208SOL     OW 5348   0.595  12.047   0.933 -0.3904 -0.0523 -0.3837
31208SOL    HW1 5349   0.644  12.082   0.859 -0.6258 -0.6171 -0.8158
31208SOL    HW2 5350   0.651  12.062   1.009  0.7123 -1.1600 -0.9396
31209SOL     OW 5351   9.444   5.315  11.384 -0.5057  0.7586 -0.6952
31209SOL    HW1 5352   9.533   5.333  11.354  0.3618  0.2770  1.4382
31209SOL    HW2 5353   9.423   5.388  11.442 -0.2468 -0.6488  1.2733
31210SOL     OW 5354   2.847   3.639   0.509  0.1704  0.5201  0.8145
31210SOL    HW1 5355   2.899   3.571   0.551  1.0925  1.1754  0.7607
31210SOL    HW2 5356   2.911   3.704   0.480 -0.7431  1.8837  1.7117
31211SOL     OW 5357   1.263   9.731   5.058  0.0089 -0.0429 -0.2056
31211SOL    HW1 5358   1.326   9.687   5.001  0.6376 -0.3235  0.6823
31211SOL    HW2 5359   1.291   9.823   5.059 -0.3875  0.0892 -0.8458
31212SOL     OW 5360  13.393   9.767   2.022 -0.0389 -0.1529  0.0454
31212SOL    HW1 5361  13.433   9.728   1.944 -1.2048  1.6822 -1.5582
31212SOL    HW2 5362  13.369   9.856   1.995 -1.4099  0.2102  2.1974
31213SOL     OW 5363   3.601  10.679   1.660 -0.9455  0.1752 -0.2852
31213SOL    HW1 5364   3.616  10.591   1.624  0.0677  0.7887 -1.4198
31213SOL    HW2 5365   3.623  10.738   1.588 -0.8663  1.3907  0.7151
31214SOL     OW 5366   1.074   5.602  12.342 -0.2472  0.6670  0.1281
31214SOL    HW1 5367   0.983   5.575  12.330  0.0883  0.5361 -2.6055
31214SOL    HW2 5368   1.076   5.637  12.431 -2.8232  0.1609  0.4779
31215SOL     OW 5369   9.894  12.350  10.194  0.1121 -0.2220 -0.1742
31215SOL    HW1 5370   9.966  12.289  10.213  0.6116  0.4448  0.1420
31215SOL    HW2 5371   9.836  12.301  10.136  0.6037 -0.9261 -0.0951
31216SOL     OW 5372   5.551   7.312   7.475  0.8875 -0.0552  0.5619
31216SOL    HW1 5373   5.526   7.295   7.384  1.0093  1.3818  0.2472
31216SOL    HW2 5374   5.471   7.297   7.525  1.0570 -1.8234  0.3682
31217SOL     OW 5375   1.753  12.969   6.199  0.0635  0.2173 -0.2101
31217SOL    HW1 5376   1.681  13.020   6.236 -0.6322 -1.1817  0.4658
31217SOL    HW2 5377   1.832  13.013   6.230 -0.5133  1.0545  0.0971
31218SOL     OW 5378   3.816   7.539  12.690 -0.3936  0.0069  0.2656
31218SOL    HW1 5379   3.784   7.491  12.614 -0.7912  1.2377 -0.3716
31218SOL    HW2 5380   3.760   7.510  12.762  0.0299 -1.2200  0.1206
31219SOL     OW 5381  12.301  10.429   0.767  0.2150 -0.2720  0.3508
31219SOL    HW1 5382  12.321  10.471   0.683 -1.2971  1.3513  0.7388
31219SOL    HW2 5383  12.384  10.426   0.813  0.4766  1.9760  0.1197
31220SOL     OW 5384  13.609   7.708  12.249 -0.0756  0.3815 -0.5669
31220SOL    HW1 5385  13.702   7.724  12.235  0.8147 -1.3599  2.4740
31220SOL    HW2 5386  13.588   7.758  12.328 -1.6829  0.5305 -1.0539
31221SOL     OW 5387  12.696   5.412   6.280 -0.6090 -0.0869  0.1762
31221SOL    HW1 5388  12.672   5.411   6.188  2.0397 -0.6374 -0.5948
31221SOL    HW2 5389  12.733   5.500   6.294 -1.5827  0.2261  0.9196
31222SOL     OW 5390  12.532   3.993  11.106  0.0626 -0.6707 -0.3604
31222SOL    HW1 5391  12.477   4.070  11.092  1.6972  0.9998  1.7572
31222SOL    HW2 5392  12.574   3.978  11.021 -0.2123  0.8148 -0.7801
31223SOL     OW 5393   5.265  10.480   8.964 -0.4584  0.5924  0.4006
31223SOL    HW1 5394   5.223  10.457   8.881  0.3864  1.0491 -0.1749
31223SOL    HW2 5395   5.205  10.542   9.005 -1.0403  0.1077  0.2917
31224SOL     OW 5396   0.517   3.518   6.977  0.0032  0.4435 -0.6154
31224SOL    HW1 5397   0.612   3.507   6.975 -0.0202 -1.6839  2.5698
31224SOL    HW2 5398   0.484   3.454   6.915  0.6221 -0.1754 -0.3233
31225SOL     OW 5399  11.954   4.827   0.528 -0.1938  0.1980  0.2045
31225SOL    HW1 5400  11.892   4.900   0.520  0.4124  0.9146  1.7037
31225SOL    HW2 5401  11.920   4.760   0.468 -1.1040  1.4707 -0.7527
31226SOL     OW 5402  10.022   1.167  13.314 -0.2497 -0.1242 -0.2338
31226SOL    HW1 5403   9.944   1.220  13.298 -0.6758 -0.5494  0.3994
31226SOL    HW2 5404  10.031   1.164  13.409 -0.2018 -1.1305 -0.2535
31227SOL     OW 5405   7.963   6.738   7.535 -0.2723 -0.1192 -0.4365
31227SOL    HW1 5406   7.876   6.777   7.526 -1.6374 -2.7683  0.1440
31227SOL    HW2 5407   8.023   6.806   7.504 -2.6082  1.3749 -2.0676
31228SOL     OW 5408   0.852  12.997  13.244 -1.0194  0.4382 -0.4699
31228SOL    HW1 5409   0.864  12.908  13.278 -0.2454  0.7147  0.0065
31228SOL    HW2 5410   0.881  13.053  13.315 -0.2620  1.0547 -1.2525
31229SOL     OW 5411  11.546  12.094   6.290 -0.0011  0.6390 -0.1407
31229SOL    HW1 5412  11.548  12.053   6.376  2.0702  0.9135 -0.0012
31229SOL    HW2 5413  11.554  12.187   6.307 -0.5743  0.7781 -0.6065
31230SOL     OW 5414   1.195   8.828  11.090 -0.4348  0.3564  0.5646
31230SOL    HW1 5415   1.254   8.796  11.157 -1.1257  2.2269  2.1706
31230SOL    HW2 5416   1.220   8.920  11.077 -1.6035  0.5941 -0.2566
31231SOL     OW 5417   2.615   2.622   8.861 -0.0094 -0.3432 -0.2548
31231SOL    HW1 5418   2.530   2.589   8.831  0.2717 -0.9280 -0.4093
31231SOL    HW2 5419   2.611   2.613   8.956 -0.2761  0.0094 -0.2308
31232SOL     OW 5420   2.336   7.824   8.923  0.2707 -0.4207 -0.4076
31232SOL    HW1 5421   2.360   7.868   8.842  0.4568 -0.3463 -0.3125
31232SOL    HW2 5422   2.410   7.838   8.981  0.6833 -1.5361 -0.6379
31233SOL     OW 5423   0.251   6.106   1.295  0.1590 -0.4359 -0.6903
31233SOL    HW1 5424   0.177   6.110   1.235 -0.5616 -1.4265  0.1012
31233SOL    HW2 5425   0.251   6.016   1.327  0.9753 -0.1205  0.2527
31234SOL     OW 5426   1.669   8.858   7.220 -0.1193  0.5940  0.0602
31234SOL    HW1 5427   1.707   8.796   7.157  2.4210  1.6490  0.4627
31234SOL    HW2 5428   1.587   8.886   7.179  0.8064  0.2479 -2.1774
31235SOL     OW 5429  13.131   5.773   5.348  0.4937 -0.2235 -0.5019
31235SOL    HW1 5430  13.118   5.784   5.254  1.8034 -1.5718 -0.8757
31235SOL    HW2 5431  13.186   5.847   5.373 -0.3462  0.4729 -0.6565
31236SOL     OW 5432  13.488   1.929  10.155  0.5062  0.1758  0.3123
31236SOL    HW1 5433  13.522   1.938  10.244  0.4085 -1.7752  0.5906
31236SOL    HW2 5434  13.439   2.009  10.139  0.3003  0.4376  2.1267
31237SOL     OW 5435  12.725   7.317   7.982 -0.1185 -0.9465 -0.0736
31237SOL    HW1 5436  12.770   7.402   7.990 -0.3095 -0.8689  0.1750
31237SOL    HW2 5437  12.633   7.340   7.970  0.0555 -1.0731 -1.8484
31238SOL     OW 5438   7.699  11.408   8.047 -0.6124  0.9118 -0.7161
31238SOL    HW1 5439   7.787  11.371   8.052 -0.4823  1.3806  1.4100
31238SOL    HW2 5440   7.647  11.339   8.006  0.2541 -0.3911  0.2673
31239SOL     OW 5441   2.132   7.002   9.189 -0.4117  0.0768  0.5654
31239SOL    HW1 5442   2.121   7.017   9.095  2.4276  1.3468  0.3609
31239SOL    HW2 5443   2.109   7.085   9.230  4.0992  1.6810  0.3692
31240SOL     OW 5444   4.059  11.512  10.963 -0.3462  0.0284  0.4240
31240SOL    HW1 5445   4.124  11.578  10.939 -0.5882 -0.1314 -0.7214
31240SOL    HW2 5446   4.002  11.556  11.026  0.7779  0.2073  1.3618
31241SOL     OW 5447   9.891  13.660   8.158 -0.8938  0.4218 -0.6743
31241SOL    HW1 5448   9.970  13.711   8.174 -0.4880  0.0612 -1.5067
31241SOL    HW2 5449   9.901  13.626   8.069 -1.8414  0.1177 -0.6763
31242SOL     OW 5450   5.944   9.877   4.198 -0.4264  0.1887  0.2537
31242SOL    HW1 5451   5.935   9.789   4.234 -1.4729 -0.3096 -1.1480
31242SOL    HW2 5452   6.002   9.867   4.123 -0.7441  0.6400 -0.0613
31243SOL     OW 5453   9.588  10.350  13.004  0.4840  0.7800 -0.0234
31243SOL    HW1 5454   9.648  10.280  13.029 -0.8668 -0.3878  0.0758
31243SOL    HW2 5455   9.600  10.360  12.909  1.3399  1.0764  0.1083
31244SOL     OW 5456  10.052   9.718   4.619  0.1202 -1.0705 -0.0210
31244SOL    HW1 5457  10.000   9.707   4.539  0.7033 -0.5793 -0.4773
31244SOL    HW2 5458  10.046   9.634   4.663 -1.3692 -0.9181  0.1229
31245SOL     OW 5459   0.887   7.619   8.380  0.3415  0.3126  0.0750
31245SOL    HW1 5460   0.863   7.569   8.301  0.1270 -0.9397  0.9028
31245SOL    HW2 5461   0.857   7.708   8.361 -3.0343 -0.6592  0.1211
31246SOL     OW 5462  10.059   2.838   2.752 -0.5508 -0.3348 -0.0441
31246SOL    HW1 5463   9.968   2.868   2.750 -0.3292  0.4058  0.5505
31246SOL    HW2 5464  10.081   2.833   2.845 -0.3406 -1.6615 -0.1427
31247SOL     OW 5465   7.475   2.665   6.501 -0.0085 -0.0277  0.2426
31247SOL    HW1 5466   7.500   2.577   6.530  2.2017  0.1996 -0.7503
31247SOL    HW2 5467   7.531   2.724   6.552  0.6949  0.5902 -1.1777
31248SOL     OW 5468  10.092   8.117  11.511  0.2517  0.2458  0.1413
31248SOL    HW1 5469  10.179   8.147  11.487  0.9273 -0.9875  0.9170
31248SOL    HW2 5470  10.034   8.190  11.491  1.6381  1.5760  0.8228
31249SOL     OW 5471   4.282   2.253  13.641  0.3396  0.0630  0.2088
31249SOL    HW1 5472   4.321   2.223  13.723 -0.4878 -1.8170 -0.0359
31249SOL    HW2 5473   4.188   2.242  13.653  0.1576  0.4576 -0.7372
31250SOL     OW 5474   7.964   0.712   1.626 -0.1127  0.1260 -0.2773
31250SOL    HW1 5475   8.029   0.668   1.573  0.0821  0.8779 -0.6769
31250SOL    HW2 5476   7.986   0.805   1.619  2.4558  0.1465  4.3158
31251SOL     OW 5477  11.199   3.279   2.886 -0.1444 -0.0899 -0.2393
31251SOL    HW1 5478  11.286   3.240   2.890  0.5630  1.5257  1.4016
31251SOL    HW2 5479  11.209   3.354   2.828 -0.3503  0.2826  0.2019
31252SOL     OW 5480  10.732   1.608   2.082 -0.8409  0.0989  0.0445
31252SOL    HW1 5481  10.791   1.536   2.059 -1.3636 -0.6869  1.1214
31252SOL    HW2 5482  10.647   1.582   2.047 -1.0755  0.0945  0.6142
31253SOL     OW 5483   2.847   9.608   4.974  0.3312  0.2638 -0.5244
31253SOL    HW1 5484   2.802   9.639   4.896 -0.2776  3.5491  0.9727
31253SOL    HW2 5485   2.923   9.665   4.983  0.8576 -0.5864  0.8398
31254SOL     OW 5486  11.237   5.406   9.789 -0.0639  0.0970 -0.2811
31254SOL    HW1 5487  11.220   5.370   9.876 -0.0038  0.3049 -0.1836
31254SOL    HW2 5488  11.282   5.489   9.805 -0.8671  0.5876 -0.4801
31255SOL     OW 5489   8.614   2.157  10.494 -0.4003  0.4078  0.1710
31255SOL    HW1 5490   8.627   2.078  10.442 -0.7059  0.5326 -0.0968
31255SOL    HW2 5491   8.521   2.177  10.485 -0.1996  1.1836 -0.3142
31256SOL     OW 5492   0.253   2.696   0.566 -0.2488  0.0050  0.1822
31256SOL    HW1 5493   0.194   2.771   0.567 -1.3144 -0.8113  1.6335
31256SOL    HW2 5494   0.329   2.726   0.516 -1.1151  1.6679 -0.2029
31257SOL     OW 5495  12.289   9.880   9.334 -0.0300  0.2041 -0.1009
31257SOL    HW1 5496  12.241   9.936   9.396  0.2847  2.4661 -1.7693
31257SOL    HW2 5497  12.334   9.816   9.389 -3.3370 -0.8091  1.6669
31258SOL     OW 5498   4.659   1.316  13.530  0.0432 -0.5809  0.0569
31258SOL    HW1 5499   4.602   1.391  13.512  0.0818 -0.6165 -0.2261
31258SOL    HW2 5500   4.629   1.249  13.468  1.2127 -0.1808 -0.9723
31259SOL     OW 5501   1.533  12.182   1.686  0.1835  0.1481  0.4976
31259SOL    HW1 5502   1.536  12.240   1.762 -0.1134  1.4737 -0.4578
31259SOL    HW2 5503   1.475  12.227   1.624  1.3311 -0.2970 -0.9756
31260SOL     OW 5504   7.012   3.474   2.524  0.6512  0.0310 -0.5167
31260SOL    HW1 5505   7.102   3.443   2.526  0.9516  0.9100  0.7010
31260SOL    HW2 5506   6.964   3.413   2.580  0.7096  0.1937 -0.2879
31261SOL     OW 5507  12.766   3.835  13.010 -0.5206  0.0937 -0.4480
31261SOL    HW1 5508  12.753   3.843  12.916 -2.4260 -0.6590 -0.2939
31261SOL    HW2 5509  12.705   3.899  13.048 -0.8244 -0.6120  0.2887
31262SOL     OW 5510   1.973   0.133   5.736 -0.3499 -0.0312  0.1297
31262SOL    HW1 5511   1.971   0.085   5.819 -0.2771  0.8943  0.6869
31262SOL    HW2 5512   1.980   0.065   5.669  0.7792 -0.7448  0.9350
31263SOL     OW 5513  12.104   3.374   9.493  0.0036  0.9594 -0.1887
31263SOL    HW1 5514  12.140   3.462   9.504 -0.6189  1.0918  0.9578
31263SOL    HW2 5515  12.050   3.361   9.570  0.3254 -0.5546 -0.1929
31264SOL     OW 5516   8.399   3.298   0.559 -0.7499 -0.1319 -0.1284
31264SOL    HW1 5517   8.471   3.312   0.621 -0.6722  0.4986 -0.3486
31264SOL    HW2 5518   8.329   3.260   0.612 -0.2606 -0.7345  0.0878
31265SOL     OW 5519   2.721  12.670   8.546  0.1622 -0.0128  0.2384
31265SOL    HW1 5520   2.736  12.684   8.453 -0.2410 -2.2206 -0.2231
31265SOL    HW2 5521   2.746  12.579   8.561 -1.3151 -0.2088  1.9213
31266SOL     OW 5522  11.466   0.159   4.700  0.6769 -0.0472 -0.1705
31266SOL    HW1 5523  11.389   0.110   4.729  0.8415  0.3159  0.9057
31266SOL    HW2 5524  11.455   0.246   4.738  0.8729  0.4804 -1.2685
31267SOL     OW 5525  12.266   3.695   8.457  0.4826 -0.1779  0.1956
31267SOL    HW1 5526  12.266   3.642   8.537 -3.5016 -0.7465  0.0463
31267SOL    HW2 5527  12.255   3.632   8.386  0.5070  0.5387 -0.4613
31268SOL     OW 5528   4.577   0.157   3.711 -0.5501  0.2219  0.5271
31268SOL    HW1 5529   4.672   0.152   3.726 -0.6408 -0.8086  0.8049
31268SOL    HW2 5530   4.568   0.217   3.636  0.2230  1.4217  1.3579
31269SOL     OW 5531   2.173   6.426   8.608  0.2108  0.1066 -0.1477
31269SOL    HW1 5532   2.158   6.520   8.614  0.0662  0.0483  0.5010
31269SOL    HW2 5533   2.106   6.395   8.547  0.0099  0.3702 -0.0647
31270SOL     OW 5534  13.624   6.332  11.801 -0.1324 -0.1939  0.3697
31270SOL    HW1 5535  13.616   6.243  11.837  1.3302 -0.3969  0.2677
31270SOL    HW2 5536  13.557   6.337  11.733  0.9214 -1.8880 -0.8795
31271SOL     OW 5537   2.627   4.774   6.926  0.9800  0.0749 -0.3974
31271SOL    HW1 5538   2.545   4.821   6.909  0.3880 -0.7992 -0.0340
31271SOL    HW2 5539   2.627   4.760   7.021  1.3594 -0.2837 -0.4498
31272SOL     OW 5540  11.088   2.350   8.691  0.3372  0.6217  1.4563
31272SOL    HW1 5541  10.992   2.344   8.695  0.3961 -1.2612  1.2432
31272SOL    HW2 5542  11.117   2.260   8.705  2.0506  0.9969  0.5213
31273SOL     OW 5543   7.331   8.832   5.394  0.0449  0.5296 -0.3001
31273SOL    HW1 5544   7.375   8.867   5.471  0.9301  1.7545 -1.3167
31273SOL    HW2 5545   7.366   8.744   5.384 -0.8535 -0.0376  1.2611
31274SOL     OW 5546  11.138   6.306  13.464 -0.7410 -0.0580 -0.2047
31274SOL    HW1 5547  11.174   6.283  13.378 -0.1977  0.7502 -0.2002
31274SOL    HW2 5548  11.049   6.270  13.463 -1.6703  2.0524 -2.0594
31275SOL     OW 5549   2.572   2.476  11.569 -0.2498  0.4140 -0.3462
31275SOL    HW1 5550   2.624   2.518  11.637 -0.0776 -1.8574  0.9902
31275SOL    HW2 5551   2.550   2.390  11.604  0.4345 -1.1613 -3.4165
31276SOL     OW 5552  12.968   6.040   7.637  0.4472 -0.5195  0.3944
31276SOL    HW1 5553  12.901   6.095   7.596  0.5651 -1.4430 -1.1289
31276SOL    HW2 5554  12.934   5.951   7.629  1.5425 -0.9375  0.1961
31277SOL     OW 5555  10.667   0.903  10.457 -0.1771 -0.1262  0.5429
31277SOL    HW1 5556  10.739   0.840  10.453  1.0359  1.1227  1.6801
31277SOL    HW2 5557  10.652   0.929  10.366  1.0980 -0.0921  0.3329
31278SOL     OW 5558   7.804   9.116   7.605 -0.2115 -0.0338  0.6343
31278SOL    HW1 5559   7.756   9.063   7.541  1.2974 -2.0998  1.1229
31278SOL    HW2 5560   7.756   9.103   7.687 -0.6587  0.5264  0.4663
31279SOL     OW 5561   9.734   2.683   9.675  0.5191 -0.1470 -0.1071
31279SOL    HW1 5562   9.828   2.689   9.662  0.3753 -1.0230 -1.9460
31279SOL    HW2 5563   9.722   2.614   9.740  1.1927  1.9235  2.3812
31280SOL     OW 5564   6.935   2.768  12.742 -0.6624  0.5883  0.4316
31280SOL    HW1 5565   6.899   2.811  12.664  1.9616 -0.1376 -1.3043
31280SOL    HW2 5566   6.989   2.836  12.783 -0.9955  0.5795  0.8884
31281SOL     OW 5567   3.805   3.171   6.261 -0.2216  0.3430  0.0271
31281SOL    HW1 5568   3.760   3.177   6.345 -0.3553 -0.6459  0.0377
31281SOL    HW2 5569   3.861   3.094   6.269  0.0867  0.4896 -0.6400
31282SOL     OW 5570   8.413  11.194   5.108 -0.4357  0.0778  0.1724
31282SOL    HW1 5571   8.443  11.121   5.162  0.5703  0.7317  0.5317
31282SOL    HW2 5572   8.493  11.230   5.070 -1.1476 -0.6046 -2.1025
31283SOL     OW 5573  12.576   5.170   4.044  0.1690 -0.1251  0.4277
31283SOL    HW1 5574  12.603   5.260   4.063 -1.5866  0.6260 -0.3366
31283SOL    HW2 5575  12.481   5.170   4.060 -0.1951 -1.2978 -1.4224
31284SOL     OW 5576   6.523  13.175   7.542 -0.0545  0.3518  0.2961
31284SOL    HW1 5577   6.464  13.250   7.550 -1.5821 -0.9128  1.7632
31284SOL    HW2 5578   6.490  13.127   7.466  0.3401  0.6641 -0.0773
31285SOL     OW 5579  10.053   4.599   3.872  0.7197  0.4864 -0.0800
31285SOL    HW1 5580   9.966   4.628   3.901  0.5965  1.1397 -1.0668
31285SOL    HW2 5581  10.035   4.529   3.810  0.9656 -0.5332  0.9682
31286SOL     OW 5582   7.280  10.401   1.360  0.6021  0.4687 -0.3670
31286SOL    HW1 5583   7.314  10.347   1.289 -0.0138  1.6288 -1.5783
31286SOL    HW2 5584   7.320  10.364   1.439  0.6978 -1.3387 -1.2054
31287SOL     OW 5585  12.064   7.241   8.699  0.1043  0.9677  0.0681
31287SOL    HW1 5586  12.074   7.147   8.687  0.6742  1.0403 -0.0581
31287SOL    HW2 5587  12.103   7.279   8.621  1.4575  1.3650  0.9069
31288SOL     OW 5588   0.851  13.670   1.873  0.0040 -0.1582  0.2072
31288SOL    HW1 5589   0.882  13.609   1.806 -0.6804 -1.0614  0.7028
31288SOL    HW2 5590   0.874  13.629   1.956  0.3768  0.7127  0.5476
31289SOL     OW 5591   8.754   8.405   2.746 -0.1362 -0.0633 -0.3029
31289SOL    HW1 5592   8.706   8.324   2.731  1.6747 -1.4728  1.0183
31289SOL    HW2 5593   8.711   8.446   2.821 -0.1693 -0.5758 -0.0382
31290SOL     OW 5594   1.530  11.799  10.000 -0.1661  0.6132 -0.0453
31290SOL    HW1 5595   1.484  11.874   9.963  1.4986  1.9260  0.4323
31290SOL    HW2 5596   1.603  11.783   9.940  1.5288  1.6375  1.6243
31291SOL     OW 5597  12.305   2.386   2.454  0.3718 -0.1383  0.3457
31291SOL    HW1 5598  12.397   2.382   2.431  0.5715  1.8124  0.6717
31291SOL    HW2 5599  12.302   2.440   2.533 -1.1661  1.1097 -0.5073
31292SOL     OW 5600  11.780   2.652   0.058 -0.7424 -0.0158  0.1950
31292SOL    HW1 5601  11.695   2.617   0.084 -0.5484  0.1289  1.0808
31292SOL    HW2 5602  11.784   2.738   0.099 -0.4816  0.2983 -0.4824
31293SOL     OW 5603   5.597   2.795  12.814  0.8678  0.2136  0.7563
31293SOL    HW1 5604   5.593   2.829  12.903 -2.6876  1.2304  0.3300
31293SOL    HW2 5605   5.620   2.871  12.760 -4.3461  1.6962  0.1297
31294SOL     OW 5606   6.772   5.588   9.411 -0.4892 -0.2204 -0.2422
31294SOL    HW1 5607   6.747   5.521   9.348 -0.7729  0.8288 -1.2731
31294SOL    HW2 5608   6.728   5.563   9.492  0.5694 -2.0652 -0.1933
31295SOL     OW 5609   0.986   9.434  12.902 -0.3785  0.4291  0.2803
31295SOL    HW1 5610   0.983   9.348  12.860  1.1304  1.4093 -2.0520
31295SOL    HW2 5611   1.020   9.417  12.989  0.3306 -1.2963 -0.2888
31296SOL     OW 5612   9.578  10.174  10.784 -0.2749 -0.5776 -0.4584
31296SOL    HW1 5613   9.513  10.159  10.716  1.3565 -1.0974 -1.9787
31296SOL    HW2 5614   9.646  10.227  10.741 -0.2052  0.9320  1.3993
31297SOL     OW 5615  12.800   4.303   8.774 -0.7810  0.2978 -0.1518
31297SOL    HW1 5616  12.863   4.247   8.729  0.9389  0.6422  1.6712
31297SOL    HW2 5617  12.829   4.392   8.754 -0.4500  0.4572  0.9600
31298SOL     OW 5618   6.709   9.843  11.738 -0.0010  0.6852 -0.2917
31298SOL    HW1 5619   6.675   9.777  11.678 -0.7374 -0.6945  1.5464
31298SOL    HW2 5620   6.788   9.875  11.695 -0.4856 -0.2433 -1.9739
31299SOL     OW 5621  10.576   2.959   8.392 -0.2027 -0.0613 -0.0596
31299SOL    HW1 5622  10.592   3.041   8.439 -0.7973  0.1047 -0.1381
31299SOL    HW2 5623  10.606   2.891   8.452  0.3895  0.2126 -0.0328
31300SOL     OW 5624   6.186   0.976   9.161 -0.2922 -0.3093  0.0163
31300SOL    HW1 5625   6.092   0.980   9.175 -0.3641 -0.1548 -0.4905
31300SOL    HW2 5626   6.224   1.005   9.244 -0.7018  0.3658 -0.0262
31301SOL     OW 5627   1.056   2.148   9.935  0.9178  0.3902  0.1472
31301SOL    HW1 5628   1.033   2.144   9.842 -0.9656  1.3999  0.5201
31301SOL    HW2 5629   1.142   2.189   9.937  0.6537  1.0558 -1.1188
31302SOL     OW 5630  13.364   7.768   5.053  1.0562  0.2506 -0.2223
31302SOL    HW1 5631  13.276   7.733   5.056  0.9168  0.6280  0.1373
31302SOL    HW2 5632  13.395   7.748   4.964  1.4009 -1.7696  0.3127
31303SOL     OW 5633   2.855  11.249  11.963 -0.1339 -0.5451 -0.0229
31303SOL    HW1 5634   2.777  11.263  11.910 -0.0769  0.0694  0.0516
31303SOL    HW2 5635   2.916  11.205  11.904 -0.1688 -0.1110 -0.3908
31304SOL     OW 5636   7.077   9.664  11.632 -0.5048 -0.3047 -0.1192
31304SOL    HW1 5637   7.081   9.585  11.687  1.6079  0.5322  1.0384
31304SOL    HW2 5638   7.115   9.637  11.549  0.7996 -0.3821  0.4802
31305SOL     OW 5639   9.709   4.414  11.742  0.0711  0.0779 -0.3572
31305SOL    HW1 5640   9.669   4.383  11.661  0.1039 -0.6786 -0.0951
31305SOL    HW2 5641   9.746   4.499  11.720 -0.8504  0.3595 -0.8535
31306SOL     OW 5642  13.246  10.314   4.001  0.2980  0.2276 -0.1416
31306SOL    HW1 5643  13.291  10.320   4.085 -0.5326  1.0732  0.2666
31306SOL    HW2 5644  13.309  10.272   3.943  0.2961 -1.8995  1.2931
31307SOL     OW 5645   0.214  12.743   4.516 -0.3171  0.7865  0.4256
31307SOL    HW1 5646   0.270  12.807   4.559 -0.2741  1.1372 -0.1463
31307SOL    HW2 5647   0.175  12.693   4.588  1.4730 -0.1166  0.8291
31308SOL     OW 5648   4.173   9.540   7.551  0.6487  0.1494 -0.2679
31308SOL    HW1 5649   4.120   9.585   7.618 -1.1805  0.6821 -1.9558
31308SOL    HW2 5650   4.191   9.608   7.486  1.6867 -0.5453 -0.7187
31309SOL     OW 5651   2.880  11.429   5.390  0.3111 -0.5874 -0.1485
31309SOL    HW1 5652   2.933  11.500   5.427  0.1647 -0.7079  0.2967
31309SOL    HW2 5653   2.792  11.446   5.423  0.0402 -0.3210 -0.9856
31310SOL     OW 5654   1.818  11.882   9.262 -0.2771 -0.0550  0.1356
31310SOL    HW1 5655   1.768  11.958   9.289 -2.0465 -1.1964  0.2219
31310SOL    HW2 5656   1.794  11.813   9.325 -0.3260 -1.2435 -1.1217
31311SOL     OW 5657   0.577   0.952   8.054  0.0567  0.5285  0.7882
31311SOL    HW1 5658   0.490   0.968   8.018 -0.3925  2.8602  2.5995
31311SOL    HW2 5659   0.597   0.862   8.031 -2.4117  0.2394 -0.5344
31312SOL     OW 5660   8.485   7.918  10.070  0.3238  0.1743  0.3950
31312SOL    HW1 5661   8.416   7.910  10.004 -1.0048  1.3664  1.5687
31312SOL    HW2 5662   8.449   7.876  10.148  0.9224  0.8416  1.0464
31313SOL     OW 5663   8.031   5.060   9.751 -0.0685  0.0890  0.4948
31313SOL    HW1 5664   8.016   5.142   9.798  1.9030  0.3944  0.6669
31313SOL    HW2 5665   8.089   5.010   9.807 -1.0943 -1.3918  0.3072
31314SOL     OW 5666   4.530   6.478   2.202  0.1158 -0.3828 -0.3519
31314SOL    HW1 5667   4.518   6.566   2.167  0.3086 -0.4977 -0.7177
31314SOL    HW2 5668   4.619   6.454   2.177 -0.0454 -0.8059 -0.5412
31315SOL     OW 5669  11.021   0.465   8.177  0.4626  0.4451  0.3833
31315SOL    HW1 5670  11.041   0.558   8.174  1.0587  0.2960 -1.5194
31315SOL    HW2 5671  11.097   0.422   8.136 -0.2585 -0.7867  0.2697
31316SOL     OW 5672   3.314   6.129   3.080  0.3836  0.4473 -0.8083
31316SOL    HW1 5673   3.358   6.044   3.077 -1.3436 -0.9237  3.8638
31316SOL    HW2 5674   3.222   6.109   3.062  0.2040  1.6935 -1.3835
31317SOL     OW 5675   4.627  10.960   6.261  0.5924 -0.4896  0.5043
31317SOL    HW1 5676   4.698  11.004   6.215  0.7698  1.9633  2.8798
31317SOL    HW2 5677   4.663  10.939   6.347 -1.2552 -0.0560  1.4330
31318SOL     OW 5678   0.547   3.714   9.404 -0.8040 -0.2194  0.6739
31318SOL    HW1 5679   0.554   3.672   9.490  1.2987 -0.2022  0.5610
31318SOL    HW2 5680   0.578   3.648   9.342  0.2741  0.6634  0.2427
31319SOL     OW 5681  13.711   7.530  11.372  0.0328  0.0175 -0.0811
31319SOL    HW1 5682  13.779   7.532  11.305  0.5277 -0.3989  0.4082
31319SOL    HW2 5683  13.721   7.446  11.415 -1.6872 -0.6743 -0.9089
31320SOL     OW 5684  10.806   3.023  12.686  0.1301 -0.3502 -0.9472
31320SOL    HW1 5685  10.789   2.986  12.773  0.3805 -0.3954 -0.9165
31320SOL    HW2 5686  10.749   2.974  12.627 -0.1231 -0.2433 -0.7913
31321SOL     OW 5687   1.121  13.131  12.231  0.0933  0.2493  0.1977
31321SOL    HW1 5688   1.186  13.134  12.301  1.2528 -1.3749 -0.7303
31321SOL    HW2 5689   1.054  13.070  12.264 -0.0923  0.5942  0.4621
31322SOL     OW 5690   2.282   2.146   2.282  0.0066 -0.1112  0.3274
31322SOL    HW1 5691   2.237   2.062   2.272  0.9744 -0.5419 -0.6457
31322SOL    HW2 5692   2.360   2.138   2.227 -0.5012  1.8788 -0.7908
31323SOL     OW 5693   8.903   4.659   2.395 -0.1030  0.2045  0.5942
31323SOL    HW1 5694   8.840   4.587   2.386 -1.1554  0.5884  3.7079
31323SOL    HW2 5695   8.983   4.617   2.429  0.2935  0.1378 -0.3977
31324SOL     OW 5696  12.167   4.926  13.473  0.0220  0.0717  0.1501
31324SOL    HW1 5697  12.108   4.855  13.447  0.3754 -0.4104  0.6479
31324SOL    HW2 5698  12.126   4.963  13.552  0.8386 -0.8675  1.0480
31325SOL     OW 5699  11.297   1.985  10.609  0.0216 -0.6596 -0.0472
31325SOL    HW1 5700  11.236   1.943  10.549  0.5882 -0.3814 -0.8277
31325SOL    HW2 5701  11.367   2.019  10.553 -0.0690  0.7191  0.6385
31326SOL     OW 5702   2.581   0.926   6.699 -0.0346 -0.2091 -0.2080
31326SOL    HW1 5703   2.630   0.969   6.770 -0.4056 -0.5233  0.2460
31326SOL    HW2 5704   2.490   0.929   6.728 -0.3365  0.6215 -1.1778
31327SOL     OW 5705   7.891   4.824   1.430 -0.0679  0.1923 -0.5207
31327SOL    HW1 5706   7.890   4.857   1.520  0.6764 -2.4236  0.5661
31327SOL    HW2 5707   7.928   4.895   1.378  0.3625  1.4519  1.4152
31328SOL     OW 5708  12.576   0.900  13.402  0.1630 -0.3260  0.1436
31328SOL    HW1 5709  12.551   0.841  13.331 -1.4788  0.1533  0.2852
31328SOL    HW2 5710  12.541   0.858  13.481  0.2731  0.1116  0.4283
31329SOL     OW 5711  12.460  13.116   1.325  0.3636  0.0686  0.5843
31329SOL    HW1 5712  12.401  13.125   1.400  1.3997 -2.0186  1.7397
31329SOL    HW2 5713  12.546  13.139   1.361  0.7732 -0.3216 -0.1459
31330SOL     OW 5714   3.545   6.402  10.734 -0.2682  0.2200 -0.1691
31330SOL    HW1 5715   3.492   6.475  10.766 -0.5430  0.1681 -0.5050
31330SOL    HW2 5716   3.618   6.443  10.688  0.3113  0.3038  0.7926
31331SOL     OW 5717   2.824   7.189  12.698 -0.4203 -0.5154  0.2289
31331SOL    HW1 5718   2.776   7.162  12.777  0.2461 -0.1330  0.7845
31331SOL    HW2 5719   2.778   7.146  12.626 -1.6665 -0.0662  0.7202
31332SOL     OW 5720   8.688   3.294  11.777  0.4007  0.2672 -0.2118
31332SOL    HW1 5721   8.669   3.356  11.847 -0.6619  1.6204 -1.6223
31332SOL    HW2 5722   8.602   3.274  11.739  0.6783 -2.3111  0.3405
31333SOL     OW 5723   7.989   9.762   1.912 -0.4262 -0.2612  0.4937
31333SOL    HW1 5724   7.926   9.798   1.974 -0.6403 -0.4749  0.4030
31333SOL    HW2 5725   8.055   9.718   1.966 -2.0326 -2.8266  0.5342
31334SOL     OW 5726  11.973  11.567   7.423  0.0166  0.3577  0.7689
31334SOL    HW1 5727  11.978  11.472   7.435  1.5113  0.3750  0.4979
31334SOL    HW2 5728  11.882  11.589   7.441 -1.0257 -1.4724 -1.7329
31335SOL     OW 5729   9.810   5.269  10.646 -0.6736 -0.5432 -0.1426
31335SOL    HW1 5730   9.887   5.326  10.651 -0.9630 -0.2275  1.2648
31335SOL    HW2 5731   9.760   5.303  10.571 -0.3884  0.4903  0.1098
31336SOL     OW 5732   9.481  13.294   6.274 -0.2613  0.4746 -0.1668
31336SOL    HW1 5733   9.453  13.202   6.277 -0.9617  0.6934  1.8248
31336SOL    HW2 5734   9.561  13.295   6.326 -1.5467  1.3225  1.9403
31337SOL     OW 5735  10.102   1.982  10.310  0.0403 -0.5152  0.5119
31337SOL    HW1 5736  10.022   1.956  10.264  1.4682 -1.6400 -1.5000
31337SOL    HW2 5737  10.111   2.075  10.290 -0.0746 -0.6880 -0.4116
31338SOL     OW 5738   3.161   8.468  10.317 -0.0741  0.6303 -0.1688
31338SOL    HW1 5739   3.066   8.458  10.304 -0.2009 -0.5168  1.3422
31338SOL    HW2 5740   3.170   8.497  10.408  1.0466  0.2895 -0.1569
31339SOL     OW 5741   9.215   8.021  11.888  0.0051 -0.5956  0.4427
31339SOL    HW1 5742   9.300   8.066  11.889  0.3788 -1.2865  0.2575
31339SOL    HW2 5743   9.227   7.950  11.825 -0.1951 -1.6969  1.6056
31340SOL     OW 5744   2.620   0.205   2.115  0.6977  0.3815 -0.2557
31340SOL    HW1 5745   2.532   0.244   2.123  0.7580  1.4760 -3.4341
31340SOL    HW2 5746   2.678   0.270   2.155  0.1150 -0.8082  2.8235
31341SOL     OW 5747   6.363   4.407   1.559 -0.6882 -0.1846 -0.5834
31341SOL    HW1 5748   6.443   4.369   1.595 -0.9324  0.1995  0.4076
31341SOL    HW2 5749   6.392   4.464   1.488  0.1971  2.0300  1.4418
31342SOL     OW 5750   0.053   3.713  11.198 -0.3062 -0.2382  0.0376
31342SOL    HW1 5751  -0.034   3.700  11.234 -0.3144 -0.5058 -0.0777
31342SOL    HW2 5752   0.109   3.729  11.274 -0.4028 -0.3653  0.1359
31343SOL     OW 5753   4.499   8.366   0.883 -0.2763  0.1370  0.3473
31343SOL    HW1 5754   4.499   8.391   0.975 -1.1334 -0.4348  0.5077
31343SOL    HW2 5755   4.587   8.331   0.868 -0.1373  0.2204  0.9492
31344SOL     OW 5756  13.480   0.979   2.058 -0.9078 -0.0275 -0.6449
31344SOL    HW1 5757  13.457   0.958   2.148 -1.5825 -1.1218 -1.0544
31344SOL    HW2 5758  13.486   0.894   2.014  0.1918  0.4381 -1.4552
31345SOL     OW 5759   1.881   5.562   8.633 -0.4676  0.1480 -0.2975
31345SOL    HW1 5760   1.886   5.656   8.651  4.3802  0.0292  0.4659
31345SOL    HW2 5761   1.866   5.522   8.719  0.5877  0.2178 -0.0605
31346SOL     OW 5762   0.155   3.595   7.405 -0.1412 -0.4291  0.1652
31346SOL    HW1 5763   0.143   3.592   7.500  0.3458 -2.2271  0.2041
31346SOL    HW2 5764   0.249   3.609   7.393 -0.1420 -0.6111 -0.0535
31347SOL     OW 5765   5.285  10.282  11.379 -0.4803 -0.1356  0.4374
31347SOL    HW1 5766   5.363  10.231  11.403  0.2277  1.2608  1.2005
31347SOL    HW2 5767   5.304  10.317  11.292 -0.7748 -0.7651  0.1105
31348SOL     OW 5768   6.358   0.722   1.756 -0.0239  0.1871 -0.3959
31348SOL    HW1 5769   6.449   0.751   1.758  0.2493 -0.4480 -1.8395
31348SOL    HW2 5770   6.332   0.716   1.848  0.5747  2.7695  0.0149
31349SOL     OW 5771  12.560   4.127  10.739 -0.1103 -0.1879  0.2482
31349SOL    HW1 5772  12.591   4.117  10.829 -0.7177 -0.9648  0.3789
31349SOL    HW2 5773  12.465   4.141  10.748 -0.0524  0.5724 -0.2309
31350SOL     OW 5774   6.890   0.059   4.340  0.0301  0.1357  0.1994
31350SOL    HW1 5775   6.882  -0.010   4.405  2.2295 -1.2319 -0.8666
31350SOL    HW2 5776   6.965   0.111   4.369 -1.2365  1.8087  0.6742
31351SOL     OW 5777   3.033   8.653   1.991 -0.5749  0.3217 -0.3490
31351SOL    HW1 5778   3.046   8.687   1.902 -1.4413 -0.8410 -0.9320
31351SOL    HW2 5779   2.942   8.624   1.993 -0.3888 -0.2326  0.7315
31352SOL     OW 5780   3.385   9.705   6.154  0.2746 -0.4366 -0.1425
31352SOL    HW1 5781   3.476   9.699   6.125 -0.3203  0.9853 -2.5246
31352SOL    HW2 5782   3.356   9.791   6.126 -2.2751 -1.4382 -0.8711
31353SOL     OW 5783   0.697   7.957   8.180  0.1690  0.6674 -0.0186
31353SOL    HW1 5784   0.681   7.868   8.211  0.1975 -0.0795 -2.0012
31353SOL    HW2 5785   0.778   7.984   8.224  1.2687 -1.0726 -0.8580
31354SOL     OW 5786  10.900   0.569  13.703 -0.4924 -0.2535 -0.1999
31354SOL    HW1 5787  10.971   0.550  13.764  0.9762  3.1705 -0.6704
31354SOL    HW2 5788  10.906   0.499  13.637  2.2877 -0.2397 -0.0814
31355SOL     OW 5789   4.874  13.682   5.225 -0.4866 -0.0533  0.3498
31355SOL    HW1 5790   4.847  13.626   5.152  1.3432 -2.3974  1.3437
31355SOL    HW2 5791   4.821  13.651   5.299  0.0990 -0.0578  0.7716
31356SOL     OW 5792  11.613   7.292   3.669  0.3679 -0.2967 -0.2746
31356SOL    HW1 5793  11.705   7.318   3.661  0.2792 -0.3650 -1.9785
31356SOL    HW2 5794  11.614   7.225   3.738  1.2085  1.2604  1.3122
31357SOL     OW 5795   6.193   7.902   7.306 -0.0369  0.4963 -0.4766
31357SOL    HW1 5796   6.119   7.957   7.283  0.2053  0.7245 -0.7232
31357SOL    HW2 5797   6.155   7.829   7.355 -0.4559  0.4624 -0.8507
31358SOL     OW 5798   5.321   0.006   0.499 -0.0871  0.1024  0.4065
31358SOL    HW1 5799   5.411  -0.017   0.523  1.5676  1.1208 -3.9005
31358SOL    HW2 5800   5.275  -0.078   0.497  1.2711 -0.6857  0.9316
31359SOL     OW 5801   2.415   0.534   1.347  0.4041 -0.1200  0.1240
31359SOL    HW1 5802   2.319   0.538   1.346  0.3016 -1.7344  0.6715
31359SOL    HW2 5803   2.436   0.451   1.304  1.3602 -1.5791  3.1676
31360SOL     OW 5804   1.601   3.930  11.939 -0.4406 -0.1700  0.0769
31360SOL    HW1 5805   1.554   3.897  12.015  2.0229  0.5926  2.0713
31360SOL    HW2 5806   1.601   4.025  11.951  1.1198 -0.1218 -0.1108
31361SOL     OW 5807   2.838   8.856   6.130 -0.4567 -0.3953  0.1409
31361SOL    HW1 5808   2.783   8.934   6.126 -0.4652 -0.3685  0.7767
31361SOL    HW2 5809   2.919   8.882   6.085 -1.0603 -0.5336 -1.0797
31362SOL     OW 5810   5.234   9.168  11.467 -0.2484 -0.4284  0.4111
31362SOL    HW1 5811   5.193   9.252  11.446  0.8568 -0.0585 -0.3347
31362SOL    HW2 5812   5.245   9.170  11.562  1.2542  1.0025  0.2546
31363SOL     OW 5813   2.814   6.028  13.155 -0.2006 -0.5635  0.6829
31363SOL    HW1 5814   2.820   5.970  13.231  2.3021 -2.5588 -0.8721
31363SOL    HW2 5815   2.746   5.988  13.101 -0.1047 -0.7102  0.6692
31364SOL     OW 5816   8.349   0.604   0.047  0.1956  0.4912  0.1907
31364SOL    HW1 5817   8.444   0.614   0.033  0.5097 -0.1123  1.6540
31364SOL    HW2 5818   8.334   0.510   0.043 -0.4117  0.6133 -0.3948
31365SOL     OW 5819  11.644   0.142   7.636  0.1179  0.1016 -0.0986
31365SOL    HW1 5820  11.550   0.138   7.648  0.1387  0.9463  0.4590
31365SOL    HW2 5821  11.667   0.060   7.593 -0.8040 -0.3300  0.2132
31366SOL     OW 5822   3.309   5.050  13.522 -0.3444  0.2534  0.4164
31366SOL    HW1 5823   3.292   5.145  13.521 -0.6345  0.2000 -0.0843
31366SOL    HW2 5824   3.245   5.014  13.461 -0.7440 -0.3587  1.1774
31367SOL     OW 5825   6.863   2.975  10.895 -0.6424  0.1596  0.1321
31367SOL    HW1 5826   6.949   3.009  10.875 -1.1910  0.7817 -1.2862
31367SOL    HW2 5827   6.872   2.880  10.885 -0.2149  0.2538 -0.4535
31368SOL     OW 5828   4.848   3.409  11.093  0.1916  0.1172 -0.0414
31368SOL    HW1 5829   4.877   3.456  11.171 -0.2836  1.2182 -0.4999
31368SOL    HW2 5830   4.882   3.460  11.020 -0.1369 -0.3943 -0.5645
31369SOL     OW 5831  10.056   0.639  12.529 -0.1715  0.2034  0.8158
31369SOL    HW1 5832  10.050   0.689  12.610 -1.0780  1.9767 -0.2941
31369SOL    HW2 5833  10.074   0.704  12.461 -3.5961 -0.5142 -1.0416
31370SOL     OW 5834   0.651   8.252   8.401  0.2317  0.1510  0.1034
31370SOL    HW1 5835   0.658   8.169   8.448  0.9391 -1.2781 -2.3368
31370SOL    HW2 5836   0.741   8.275   8.380  0.0311  1.5116  0.6704
31371SOL     OW 5837   6.161   3.655   8.323  0.1658 -0.3015 -0.7814
31371SOL    HW1 5838   6.074   3.650   8.284  0.1016  0.0795 -0.6903
31371SOL    HW2 5839   6.174   3.570   8.363 -1.2089  0.4355  1.4001
31372SOL     OW 5840  10.800   3.873  10.029 -0.5244  0.0358  1.1020
31372SOL    HW1 5841  10.785   3.961  10.065 -0.4107  0.5273  0.0087
31372SOL    HW2 5842  10.715   3.847   9.994 -0.0854  0.6760 -0.5557
31373SOL     OW 5843  11.988   0.695   6.939 -0.1497  0.1587 -0.1232
31373SOL    HW1 5844  12.010   0.785   6.961 -2.5621  0.7742  0.0501
31373SOL    HW2 5845  11.958   0.699   6.848 -1.9507 -0.0865  0.4138
31374SOL     OW 5846  11.920   0.074  13.236 -0.7776  0.5023 -0.2340
31374SOL    HW1 5847  11.950   0.039  13.152  0.4684  0.4191  0.2322
31374SOL    HW2 5848  11.870   0.153  13.212 -0.2519  0.6023 -1.0403
31375SOL     OW 5849  12.023  10.866   7.114 -0.3552 -0.0859 -0.7461
31375SOL    HW1 5850  12.021  10.775   7.084  3.7550 -0.3537 -0.6712
31375SOL    HW2 5851  12.018  10.860   7.210 -2.4538  0.0367 -0.7940
31376SOL     OW 5852   0.127   2.423   4.360 -0.0703  0.2463  0.2458
31376SOL    HW1 5853   0.156   2.459   4.276 -2.8096 -0.5791 -1.1730
31376SOL    HW2 5854   0.118   2.329   4.344  1.5994 -0.3418  2.2390
31377SOL     OW 5855   5.721   5.729   6.413 -1.1673  1.7339 -0.7398
31377SOL    HW1 5856   5.789   5.758   6.353 -0.0268  0.0916 -0.2971
31377SOL    HW2 5857   5.767   5.712   6.495 -2.0263  0.2203 -0.5437
31378SOL     OW 5858   9.091   1.079   2.553  0.2258  1.1142 -1.2979
31378SOL    HW1 5859   9.126   1.160   2.591  1.1304  0.4080 -0.5841
31378SOL    HW2 5860   9.166   1.021   2.547 -0.6926 -0.2462 -0.2848
31379SOL     OW 5861   1.386  11.220   1.329 -0.0268  0.2649  0.5368
31379SOL    HW1 5862   1.454  11.229   1.397 -0.9747  0.3166  1.4967
31379SOL    HW2 5863   1.406  11.137   1.286 -0.7967 -0.9932  2.4820
31380SOL     OW 5864   1.665   3.255   7.001  1.0880 -0.0789  0.3025
31380SOL    HW1 5865   1.715   3.209   7.068  0.8947 -0.4826  0.1749
31380SOL    HW2 5866   1.595   3.194   6.978 -2.1025  2.0091  3.4785
31381SOL     OW 5867   1.492  10.709   4.301  0.1651  0.0850  0.0018
31381SOL    HW1 5868   1.540  10.789   4.282  0.9588 -0.3524  0.1086
31381SOL    HW2 5869   1.405  10.738   4.327  0.4518  0.9056  0.0600
31382SOL     OW 5870   4.560   7.517   3.270 -1.0458 -0.2874 -0.1274
31382SOL    HW1 5871   4.600   7.516   3.356 -1.1139 -1.1409 -0.1021
31382SOL    HW2 5872   4.632   7.536   3.210 -1.1699  1.3854  0.1822
31383SOL     OW 5873   7.278   7.493   5.928 -0.0474 -0.0233 -0.6487
31383SOL    HW1 5874   7.259   7.399   5.923  1.2252 -0.3166 -0.3202
31383SOL    HW2 5875   7.374   7.498   5.925 -0.0272  1.1647  1.0364
31384SOL     OW 5876   3.798  12.414  12.634 -0.5617 -0.0809  0.1335
31384SOL    HW1 5877   3.706  12.434  12.614 -0.0172  1.6307 -0.8174
31384SOL    HW2 5878   3.829  12.366  12.557 -1.0107 -2.0149  1.0862
31385SOL     OW 5879   7.419   1.345   1.935 -0.1926 -1.0652  0.8790
31385SOL    HW1 5880   7.451   1.356   1.845 -1.7992 -0.3357  0.3564
31385SOL    HW2 5881   7.446   1.424   1.980 -1.6622 -0.1754  0.2810
31386SOL     OW 5882   3.553   6.761   7.977  0.5218  0.7994 -1.0496
31386SOL    HW1 5883   3.527   6.672   7.956  1.2642  0.5328 -0.8477
31386SOL    HW2 5884   3.499   6.816   7.920 -1.9138  0.3782  0.6651
31387SOL     OW 5885  12.360   9.137   2.745  0.3137 -0.1995 -0.3061
31387SOL    HW1 5886  12.324   9.186   2.819 -0.5637  0.8293 -1.3691
31387SOL    HW2 5887  12.455   9.137   2.759  0.1593  0.0117  0.7883
31388SOL     OW 5888  12.644   2.174   6.225 -0.1810  0.1836  0.4449
31388SOL    HW1 5889  12.654   2.083   6.252 -1.0721  0.2458  1.0277
31388SOL    HW2 5890  12.631   2.170   6.130  0.3747 -0.2424  0.3804
31389SOL     OW 5891   9.248   2.486   8.522  0.1657  0.1399 -0.3447
31389SOL    HW1 5892   9.259   2.545   8.596 -2.3602  1.1948 -0.7143
31389SOL    HW2 5893   9.279   2.535   8.446  0.3354  0.0329 -0.3465
31390SOL     OW 5894   9.981  12.539   7.410 -0.1026  0.0540 -0.1978
31390SOL    HW1 5895  10.067  12.551   7.451 -0.0889  2.7654 -0.8546
31390SOL    HW2 5896   9.971  12.444   7.405  1.9786 -0.3725  1.6775
31391SOL     OW 5897  10.137   1.693   2.112 -0.5643  0.2927  0.1106
31391SOL    HW1 5898  10.177   1.608   2.128  1.2654  1.0214 -0.3610
31391SOL    HW2 5899  10.055   1.673   2.066  0.0009 -1.1872 -0.3003
31392SOL     OW 5900   3.001   3.915   4.024  0.4613 -0.3686  0.3837
31392SOL    HW1 5901   3.026   3.834   4.067  0.4821  0.4893  2.0675
31392SOL    HW2 5902   3.084   3.954   3.995  0.7426  0.3494  2.0420
31393SOL     OW 5903  11.543  10.299  10.582 -0.1101 -0.0849  0.1312
31393SOL    HW1 5904  11.487  10.274  10.508  2.2859 -0.0488 -1.8265
31393SOL    HW2 5905  11.596  10.221  10.598  0.3310  0.3651  0.8961
31394SOL     OW 5906   6.206   5.288  11.025 -0.2044 -0.1033  0.5249
31394SOL    HW1 5907   6.256   5.211  10.998 -1.1868 -0.7148  0.4099
31394SOL    HW2 5908   6.260   5.362  10.997  0.0662 -0.7380 -0.6957
31395SOL     OW 5909   3.781  13.311   4.877  0.4656  0.4214 -0.2263
31395SOL    HW1 5910   3.866  13.303   4.921  0.6096  2.5176 -0.0029
31395SOL    HW2 5911   3.718  13.274   4.939  1.1128 -0.3127  0.0003
31396SOL     OW 5912   6.212   9.765   3.139  0.1451 -0.6017  0.1400
31396SOL    HW1 5913   6.231   9.671   3.131 -2.9600 -1.2206 -1.2949
31396SOL    HW2 5914   6.153   9.771   3.214 -1.2362 -0.1332 -0.9470
31397SOL     OW 5915   2.404   0.907   7.118 -0.4274  0.9580  0.3566
31397SOL    HW1 5916   2.488   0.952   7.103  1.0202 -2.2876 -3.0102
31397SOL    HW2 5917   2.361   0.909   7.032 -2.5667  0.1517  1.3525
31398SOL     OW 5918   7.232  10.332   3.941 -0.3336  0.0499 -0.1979
31398SOL    HW1 5919   7.192  10.328   3.855  0.8724  0.7168 -0.8113
31398SOL    HW2 5920   7.304  10.395   3.932 -0.4595  0.4862  1.4025
31399SOL     OW 5921   1.964  11.984  12.075  0.2429 -0.1434  0.0006
31399SOL    HW1 5922   2.031  12.007  12.011  1.9363  0.1320  1.7661
31399SOL    HW2 5923   1.921  11.907  12.038  0.8906  0.2400 -1.6209
31400SOL     OW 5924   6.519  12.028  13.423 -0.2008  0.3958 -0.2192
31400SOL    HW1 5925   6.529  11.974  13.345 -0.4904 -1.4176  0.9199
31400SOL    HW2 5926   6.505  11.965  13.494 -2.0950  2.0244  0.9894
31401SOL     OW 5927   5.732  13.535   8.426  0.0458 -0.2683  0.5258
31401SOL    HW1 5928   5.637  13.541   8.429 -0.0516 -1.2657  0.0620
31401SOL    HW2 5929   5.752  13.448   8.460  0.8883  0.3976  1.8222
31402SOL     OW 5930   6.695  10.061   5.413 -0.2422 -0.4452 -0.1850
31402SOL    HW1 5931   6.729  10.137   5.366  2.0935  0.4835  2.6961
31402SOL    HW2 5932   6.628  10.097   5.472 -0.9789 -1.0715 -0.6268
31403SOL     OW 5933  13.487  13.229   9.224  0.5137  0.0599  0.2077
31403SOL    HW1 5934  13.429  13.289   9.177 -0.4752 -0.5406  0.6147
31403SOL    HW2 5935  13.468  13.143   9.187  0.7421 -0.2230  0.7274
31404SOL     OW 5936   6.397   2.110  10.164 -0.1013  0.3517  0.2495
31404SOL    HW1 5937   6.459   2.041  10.186 -0.5917  0.2715  1.5111
31404SOL    HW2 5938   6.317   2.063  10.138  0.2973  0.4536 -1.2423
31405SOL     OW 5939   0.683  12.228   6.134 -0.2447  0.0539 -0.4552
31405SOL    HW1 5940   0.709  12.259   6.048 -0.2245  0.1825 -0.4042
31405SOL    HW2 5941   0.763  12.233   6.187 -0.6905  1.9135  0.1150
31406SOL     OW 5942  11.810  12.552   2.833 -0.4344 -0.2037  0.0822
31406SOL    HW1 5943  11.782  12.566   2.742 -1.2125  0.6530  0.4371
31406SOL    HW2 5944  11.868  12.626   2.851 -2.0987  0.9536  0.9893
31407SOL     OW 5945   9.407  13.654   8.190 -0.0368  0.2248  0.3382
31407SOL    HW1 5946   9.426  13.748   8.198 -1.6680  0.8959 -2.3094
31407SOL    HW2 5947   9.478  13.620   8.136 -0.9224  0.6256 -1.1530
31408SOL     OW 5948  12.671   8.924   0.223 -0.1690  0.8051  0.0792
31408SOL    HW1 5949  12.711   8.842   0.193  1.0526  1.7932 -1.0961
31408SOL    HW2 5950  12.589   8.930   0.175 -1.2090 -0.6236  1.5771
31409SOL     OW 5951   3.109  12.243   2.816 -1.0976  0.0025 -0.0671
31409SOL    HW1 5952   3.054  12.281   2.746  0.5600  0.5548 -1.1438
31409SOL    HW2 5953   3.078  12.285   2.896 -1.3396  1.3557 -0.8363
31410SOL     OW 5954   5.316   8.001   5.058 -0.6571 -0.6498  0.0485
31410SOL    HW1 5955   5.238   8.035   5.102 -1.2008  0.4376 -1.6417
31410SOL    HW2 5956   5.282   7.945   4.988 -0.0773  1.2425 -1.8568
31411SOL     OW 5957   9.957   3.515   3.176 -0.6837 -0.5992 -0.4849
31411SOL    HW1 5958   9.864   3.494   3.184 -0.7818 -0.1442 -0.3454
31411SOL    HW2 5959   9.985   3.531   3.267 -0.1058 -2.1742 -0.3569
31412SOL     OW 5960   1.909   8.905  11.129  0.3883  0.1885  0.1386
31412SOL    HW1 5961   1.885   8.932  11.217 -0.8476  0.9479 -0.4119
31412SOL    HW2 5962   1.957   8.979  11.093  1.2936 -0.2983  0.3191
31413SOL     OW 5963  11.596   2.768   2.170 -0.8254 -0.2635  0.2051
31413SOL    HW1 5964  11.619   2.804   2.084  1.2271 -1.9879 -0.0534
31413SOL    HW2 5965  11.503   2.747   2.162 -1.2939  1.9147 -0.6968
31414SOL     OW 5966   3.036   8.009  10.797  0.3127 -0.0652 -0.5461
31414SOL    HW1 5967   3.118   8.029  10.843 -0.9169  0.6724  1.4360
31414SOL    HW2 5968   3.009   8.094  10.760 -0.5995  0.1822  0.6283
31415SOL     OW 5969  10.287   5.097  11.097  0.1225 -0.2780 -0.1738
31415SOL    HW1 5970  10.223   5.093  11.025  0.7147 -1.5812 -0.6576
31415SOL    HW2 5971  10.369   5.123  11.055  0.5614 -1.4163 -0.0743
31416SOL     OW 5972   5.526  13.593   7.054 -0.0222  0.4394  0.1393
31416SOL    HW1 5973   5.569  13.608   7.138 -0.1901  0.1507  0.2809
31416SOL    HW2 5974   5.530  13.498   7.042  0.2535  0.5046 -0.3153
31417SOL     OW 5975   2.733   6.108   9.821 -0.3696 -0.1077 -0.6675
31417SOL    HW1 5976   2.784   6.052   9.763 -0.6869 -0.0509 -1.0025
31417SOL    HW2 5977   2.642   6.094   9.795 -0.4095  1.1001 -1.2463
31418SOL     OW 5978   3.927   2.549  10.146  0.4930  0.0389  0.5799
31418SOL    HW1 5979   4.003   2.580  10.096  1.2660 -0.7521  1.2234
31418SOL    HW2 5980   3.958   2.547  10.237  0.0986 -1.4261  0.7085
31419SOL     OW 5981   4.998   0.778   6.302  0.3853 -0.3385  0.4389
31419SOL    HW1 5982   4.954   0.693   6.313  0.2566 -0.1181  1.6680
31419SOL    HW2 5983   4.929   0.843   6.315  0.5771 -0.0195 -0.0697
31420SOL     OW 5984   7.846   6.239   4.572 -0.3057  0.4299  0.3033
31420SOL    HW1 5985   7.759   6.201   4.584  0.6406 -1.8957  0.4732
31420SOL    HW2 5986   7.887   6.230   4.658 -0.0251  1.9067  0.3416
31421SOL     OW 5987   3.111   1.353   7.427 -0.3493  0.1629  0.3440
31421SOL    HW1 5988   3.140   1.291   7.494  0.1964 -1.1926 -1.0759
31421SOL    HW2 5989   3.148   1.437   7.455  1.0931 -0.6473  0.9860
31422SOL     OW 5990  10.557   9.736   2.382 -0.4169  0.3254 -0.1038
31422SOL    HW1 5991  10.523   9.668   2.440 -1.9452  0.5917 -0.6303
31422SOL    HW2 5992  10.637   9.699   2.346 -1.1782 -1.2037 -0.3199
31423SOL     OW 5993   5.346   1.746   0.502 -0.3788 -0.0777 -0.0187
31423SOL    HW1 5994   5.270   1.803   0.513 -0.9102 -0.6936 -0.4132
31423SOL    HW2 5995   5.403   1.794   0.443 -1.4635 -0.5458 -1.5029
31424SOL     OW 5996   4.038   7.175   4.343  0.3432 -0.0128  0.8584
31424SOL    HW1 5997   4.099   7.243   4.373 -0.0336  0.6699  0.1083
31424SOL    HW2 5998   3.952   7.209   4.366  0.1589 -0.2642  0.5294
31425SOL     OW 5999   7.069  11.081  10.685  0.2056  0.6227 -0.0090
31425SOL    HW1 6000   7.064  11.015  10.616  0.4622  0.8602 -0.2550
31425SOL    HW2 6001   7.112  11.036  10.757 -0.5011  0.2250  0.1799
31426SOL     OW 6002  10.697   1.879   0.105 -0.0112  0.3097 -0.0472
31426SOL    HW1 6003  10.674   1.896   0.013  1.4511 -2.5858 -1.0572
31426SOL    HW2 6004  10.613   1.886   0.152 -0.9847  0.7637 -1.7610
31427SOL     OW 6005  13.443  10.348   0.216  0.3221 -0.3167 -0.4208
31427SOL    HW1 6006  13.363  10.336   0.268  1.3298 -1.4784  0.9439
31427SOL    HW2 6007  13.514  10.324   0.275  1.6479 -0.0960 -1.8554
31428SOL     OW 6008   5.559   9.850   5.136  0.4665  0.0484 -0.7665
31428SOL    HW1 6009   5.487   9.913   5.138  0.2399 -0.1971  1.1206
31428SOL    HW2 6010   5.524   9.775   5.087 -0.2490  0.2952 -0.6445
31429SOL     OW 6011   0.392   6.403  12.475  0.2622  0.3008 -0.5655
31429SOL    HW1 6012   0.296   6.400  12.476  0.2098  1.4013  0.6630
31429SOL    HW2 6013   0.415   6.405  12.382 -0.9951  1.5435 -0.8873
31430SOL     OW 6014   4.639  10.408   0.912 -0.1015 -0.0471  0.0691
31430SOL    HW1 6015   4.604  10.339   0.855  1.6583 -0.4258 -0.6121
31430SOL    HW2 6016   4.692  10.462   0.854  2.3249 -0.8413  1.4456
31431SOL     OW 6017  11.411  10.716   8.885  0.3509  0.6655 -0.1159
31431SOL    HW1 6018  11.433  10.716   8.792 -1.7049 -2.6134 -0.7690
31431SOL    HW2 6019  11.318  10.693   8.887  0.3331  0.6421  2.7680
31432SOL     OW 6020  10.481   1.905   3.505 -0.6770  0.2014  0.1330
31432SOL    HW1 6021  10.500   1.886   3.596  1.6419  1.1884 -0.0786
31432SOL    HW2 6022  10.427   1.984   3.507 -1.3785 -0.2805  0.6445
31433SOL     OW 6023   4.067  13.359   7.707 -0.3411  0.3439  0.0943
31433SOL    HW1 6024   3.991  13.323   7.661  0.1030 -0.0471 -0.3514
31433SOL    HW2 6025   4.106  13.419   7.644  1.5155 -1.7986 -0.9288
31434SOL     OW 6026   1.285   8.878  12.641  0.3901 -0.4245 -0.8131
31434SOL    HW1 6027   1.196   8.891  12.607  0.6303  0.7673 -1.0471
31434SOL    HW2 6028   1.314   8.796  12.602  0.2125  0.2991 -2.5590
31435SOL     OW 6029   7.589   9.615   8.662 -0.0781  0.3662  0.3175
31435SOL    HW1 6030   7.648   9.649   8.729  0.2008  0.2306  0.1469
31435SOL    HW2 6031   7.554   9.693   8.619 -1.4970  0.4957  1.6523
31436SOL     OW 6032   7.100  13.373   6.963  0.1585 -0.2197 -0.1416
31436SOL    HW1 6033   7.176  13.314   6.971  2.7556  2.5528 -2.0440
31436SOL    HW2 6034   7.085  13.404   7.052  0.3803 -1.7853  0.4746
31437SOL     OW 6035  12.461   4.316  11.583  0.5502  0.3074  0.3101
31437SOL    HW1 6036  12.452   4.380  11.513 -1.6924 -0.6504 -0.3651
31437SOL    HW2 6037  12.473   4.232  11.538 -0.9021 -0.3158  1.0214
31438SOL     OW 6038   8.661  13.720   8.408  0.1267 -0.0356 -0.5991
31438SOL    HW1 6039   8.624  13.791   8.460  1.6318  1.1389 -1.0568
31438SOL    HW2 6040   8.750  13.709   8.442  0.2136 -1.0843 -1.1353
31439SOL     OW 6041   0.396   7.630  10.551  0.1261  0.0671 -0.6101
31439SOL    HW1 6042   0.465   7.593  10.496  0.4291 -0.0947 -0.1294
31439SOL    HW2 6043   0.320   7.639  10.493  0.4393 -0.1075 -1.0465
31440SOL     OW 6044   6.950   6.163   9.970  0.8561 -0.6934 -0.0720
31440SOL    HW1 6045   6.903   6.080   9.959 -2.6431  1.3491 -2.1462
31440SOL    HW2 6046   6.901   6.211  10.036  1.3338  0.6539 -0.6538
31441SOL     OW 6047   9.612   0.736   1.826  0.7105  0.3742  0.3166
31441SOL    HW1 6048   9.676   0.740   1.755 -0.1567 -0.2192 -0.5209
31441SOL    HW2 6049   9.659   0.698   1.899  1.2158 -0.4651 -0.4222
31442SOL     OW 6050  10.007   2.064   2.489 -0.4188 -0.4036  0.3465
31442SOL    HW1 6051   9.951   2.139   2.510 -0.9999 -1.1467  1.5753
31442SOL    HW2 6052   9.981   2.039   2.400 -0.8389  0.2928  0.2642
31443SOL     OW 6053   1.933  10.233   9.495 -0.4201 -0.4425 -0.1872
31443SOL    HW1 6054   1.947  10.140   9.511  0.8855 -0.1908  0.2837
31443SOL    HW2 6055   1.839  10.242   9.483 -1.0222 -1.3519  3.0559
31444SOL     OW 6056  10.619   6.786   6.540 -0.1253 -0.2135  0.2269
31444SOL    HW1 6057  10.595   6.732   6.465  0.4677 -1.1532  0.7084
31444SOL    HW2 6058  10.715   6.783   6.543 -0.1520 -0.4096  1.1818
31445SOL     OW 6059   0.653   3.727   5.690  1.0290  0.6314  0.5604
31445SOL    HW1 6060   0.661   3.812   5.646  1.2352  1.0385  1.3459
31445SOL    HW2 6061   0.691   3.743   5.777 -1.8819  0.6672  1.9488
31446SOL     OW 6062  12.868  11.806   8.914 -0.1315  0.5987 -0.3775
31446SOL    HW1 6063  12.891  11.839   9.001 -0.5066  2.4044 -0.9390
31446SOL    HW2 6064  12.922  11.727   8.904 -0.4923  0.0208  1.6921
31447SOL     OW 6065  12.760  11.688   1.692 -0.0867  0.2285  0.2606
31447SOL    HW1 6066  12.671  11.725   1.693 -0.0571  0.3024  0.9022
31447SOL    HW2 6067  12.789  11.698   1.602  0.3743  2.9150  0.6270
31448SOL     OW 6068  10.417   2.859  10.966  0.4587  0.5806  0.2033
31448SOL    HW1 6069  10.391   2.951  10.972  0.3753  0.4707  2.0782
31448SOL    HW2 6070  10.507   2.857  10.997  0.0480 -0.1328  1.3988
31449SOL     OW 6071  11.968   3.642  11.383 -0.7796  0.2228  0.7596
31449SOL    HW1 6072  11.982   3.549  11.361 -1.7665  0.2904 -0.2757
31449SOL    HW2 6073  11.880   3.660  11.351 -0.7795  1.4045  1.3953
31450SOL     OW 6074  12.483   5.342   4.415 -0.3483  0.2272  0.0164
31450SOL    HW1 6075  12.578   5.351   4.426 -0.3576 -0.1169  0.4165
31450SOL    HW2 6076  12.447   5.384   4.493 -0.5357  0.5742 -0.2544
31451SOL     OW 6077  12.446  10.640   6.571  0.2026  0.0944 -0.2517
31451SOL    HW1 6078  12.431  10.623   6.478 -0.3940  1.4367 -0.4244
31451SOL    HW2 6079  12.435  10.555   6.613  0.7394 -0.5867 -1.4297
31452SOL     OW 6080   5.730   3.043   9.669 -0.0899  0.5896  0.3613
31452SOL    HW1 6081   5.640   3.063   9.696  0.5556  0.9055  2.4445
31452SOL    HW2 6082   5.721   3.009   9.580 -2.2694  0.5546  0.5404
31453SOL     OW 6083   4.242   9.949   2.201 -0.1072 -0.0511 -0.0419
31453SOL    HW1 6084   4.147   9.947   2.215 -0.0817  1.3240  0.4808
31453SOL    HW2 6085   4.275   9.875   2.252 -0.9123 -0.6584 -0.3792
31454SOL     OW 6086   6.887  10.642   4.320  0.4782  0.2486 -0.3530
31454SOL    HW1 6087   6.948  10.671   4.253  0.7226  1.0536  0.1900
31454SOL    HW2 6088   6.837  10.571   4.280  0.8101  0.5322 -1.2760
31455SOL     OW 6089  13.620   2.721   9.218 -0.4476  0.4074 -0.2292
31455SOL    HW1 6090  13.704   2.727   9.263 -0.9032 -0.0719  0.7085
31455SOL    HW2 6091  13.612   2.629   9.193 -0.5560  0.5151 -0.6050
31456SOL     OW 6092   5.616   9.604   2.312 -0.1646  0.3328  0.6628
31456SOL    HW1 6093   5.597   9.693   2.343 -3.3091 -0.3350  0.9922
31456SOL    HW2 6094   5.552   9.589   2.243  0.4485 -1.6087  0.4587
31457SOL     OW 6095   5.451   3.607  10.731 -0.1824 -0.1201 -0.0848
31457SOL    HW1 6096   5.413   3.522  10.709  0.0862  0.2071 -2.0579
31457SOL    HW2 6097   5.376   3.666  10.740 -0.3586 -0.5086  1.0929
31458SOL     OW 6098   7.219  11.432   2.629  0.6018 -0.1385  0.0068
31458SOL    HW1 6099   7.158  11.427   2.556  0.3355  0.5031  0.1847
31458SOL    HW2 6100   7.165  11.424   2.707  0.7215  0.5525  0.1696
31459SOL     OW 6101  11.445  11.151   2.945  0.1487 -0.2367 -0.2311
31459SOL    HW1 6102  11.485  11.231   2.981  0.5064 -0.4364 -0.1790
31459SOL    HW2 6103  11.502  11.080   2.975  0.1557 -0.4575 -0.7498
31460SOL     OW 6104  10.063   0.024   0.234 -0.9102  0.6918  0.5630
31460SOL    HW1 6105  10.090   0.036   0.325  2.2253 -0.3727 -0.0918
31460SOL    HW2 6106  10.092  -0.065   0.213 -3.1314  0.2729 -1.0264
31461SOL     OW 6107   0.657   3.179  12.100  0.1926  0.4399  0.0440
31461SOL    HW1 6108   0.697   3.128  12.171 -0.5925  1.0599  0.9472
31461SOL    HW2 6109   0.633   3.113  12.035  0.8053 -0.1504  0.3938
31462SOL     OW 6110  12.047   3.022   8.727  0.1878  0.0755 -0.2891
31462SOL    HW1 6111  12.141   3.022   8.746  0.1545  0.5612 -0.1134
31462SOL    HW2 6112  12.033   2.944   8.674  0.8124  0.3659 -0.8907
31463SOL     OW 6113   7.549  12.454  10.597 -0.7513  0.3875  0.3409
31463SOL    HW1 6114   7.521  12.510  10.669  0.8733 -0.0706  1.3781
31463SOL    HW2 6115   7.531  12.365  10.627  1.8836  0.0476  1.1835
31464SOL     OW 6116   1.243   8.957  13.158  0.1293 -0.4470 -0.2523
31464SOL    HW1 6117   1.243   8.969  13.253 -0.3248 -1.2915 -0.1372
31464SOL    HW2 6118   1.151   8.964  13.132  0.3010  0.2887 -0.7089
31465SOL     OW 6119   4.078   9.230   5.022 -0.2918 -0.2205  0.0889
31465SOL    HW1 6120   4.094   9.238   4.928 -0.2891 -4.0048 -0.3801
31465SOL    HW2 6121   4.165   9.219   5.060 -0.4232 -1.5424  0.0756
31466SOL     OW 6122   4.213   9.260   7.611  0.2088 -1.0942 -0.1575
31466SOL    HW1 6123   4.189   9.353   7.615  2.2173 -0.4923 -0.6213
31466SOL    HW2 6124   4.290   9.254   7.668 -0.8850 -2.8467  1.1910
31467SOL     OW 6125   5.823  12.374   9.217 -0.8316  0.0455  0.1952
31467SOL    HW1 6126   5.764  12.301   9.236 -0.9579 -0.3796 -1.5875
31467SOL    HW2 6127   5.810  12.391   9.124  0.6427  1.0490  0.1373
31468SOL     OW 6128  10.340   9.675  13.410  0.0177 -0.1079 -0.4881
31468SOL    HW1 6129  10.345   9.723  13.327 -1.1019 -0.5933 -0.8528
31468SOL    HW2 6130  10.297   9.593  13.387 -0.9503  0.0442  0.6888
31469SOL     OW 6131   2.396   8.513  13.472 -0.4106  0.7579  0.0460
31469SOL    HW1 6132   2.394   8.444  13.406  0.8811  0.2718  0.4828
31469SOL    HW2 6133   2.322   8.569  13.451 -1.4024 -0.6797 -0.4065
31470SOL     OW 6134  13.529  11.785   3.658 -0.2251  0.3811  0.1423
31470SOL    HW1 6135  13.487  11.711   3.701 -1.5296  0.8379 -0.2778
31470SOL    HW2 6136  13.608  11.749   3.617 -0.4788 -0.6208  0.5182
31471SOL     OW 6137  10.811   4.269   1.592  0.3341  0.2679 -0.4183
31471SOL    HW1 6138  10.898   4.260   1.631 -0.6325 -0.1118  1.8045
31471SOL    HW2 6139  10.803   4.194   1.533  1.0327 -0.4048  0.3221
31472SOL     OW 6140   5.006   0.907   8.194  0.5399 -0.1087  0.1567
31472SOL    HW1 6141   4.917   0.933   8.216  0.0712 -0.0614 -1.6005
31472SOL    HW2 6142   5.027   0.836   8.255 -0.7712 -0.2484  0.4697
31473SOL     OW 6143  10.681   9.299   6.959 -0.5205 -0.4875 -0.0385
31473SOL    HW1 6144  10.657   9.215   6.997  0.0881 -0.7087 -0.1209
31473SOL    HW2 6145  10.769   9.316   6.993  0.2117 -0.8930 -1.6562
31474SOL     OW 6146  11.687   9.605  11.429 -0.0560  0.1230  0.0790
31474SOL    HW1 6147  11.741   9.626  11.505 -1.0469 -0.6803  1.0349
31474SOL    HW2 6148  11.619   9.673  11.429 -0.4658 -0.2825  0.3351
31475SOL     OW 6149   6.814  11.517  10.736 -0.1204 -0.6929  0.2469
31475SOL    HW1 6150   6.799  11.544  10.645  1.5777 -0.2994  0.0483
31475SOL    HW2 6151   6.829  11.422  10.731 -1.8497 -0.9955  0.3812
31476SOL     OW 6152   5.119   2.332  12.352 -0.0829 -0.3941  0.3666
31476SOL    HW1 6153   5.176   2.280  12.408  2.2912  1.8108  0.2318
31476SOL    HW2 6154   5.035   2.333  12.396  0.5786 -1.9958  1.7656
31477SOL     OW 6155  11.665  12.136   9.170  0.2606 -0.3447 -0.2585
31477SOL    HW1 6156  11.750  12.097   9.151  0.7806  0.0631  1.0829
31477SOL    HW2 6157  11.668  12.222   9.127  0.7611 -0.1086  0.2268
31478SOL     OW 6158   5.573  10.546  13.402  0.4562 -0.0194  0.1450
31478SOL    HW1 6159   5.563  10.470  13.345 -1.6005 -0.3345  0.8395
31478SOL    HW2 6160   5.510  10.610  13.369  1.4763  1.0308  0.1669
31479SOL     OW 6161  13.731   4.687   8.875  0.1350  0.3739  0.6953
31479SOL    HW1 6162  13.769   4.640   8.949  0.2192  0.5373  0.7585
31479SOL    HW2 6163  13.800   4.750   8.849  1.1699 -1.4362 -1.2235
31480SOL     OW 6164   1.162   9.829   0.931 -0.5200  0.3879 -0.2416
31480SOL    HW1 6165   1.217   9.854   0.857  0.0937 -0.7842 -0.1922
31480SOL    HW2 6166   1.186   9.738   0.950  0.0147  0.9454  2.0120
31481SOL     OW 6167   0.779   5.138   1.544  0.3657  0.0342 -0.3138
31481SOL    HW1 6168   0.721   5.214   1.536 -0.9487 -0.2915  3.6950
31481SOL    HW2 6169   0.729   5.065   1.507 -1.2946  0.0531  1.6965
31482SOL     OW 6170  13.617   4.959   5.912 -0.6412  0.4540 -0.4110
31482SOL    HW1 6171  13.652   5.046   5.932  1.8120 -0.6473  0.3944
31482SOL    HW2 6172  13.607   4.917   5.997 -1.1190 -0.3231 -0.8408
31483SOL     OW 6173   3.300   4.287   9.911  0.3613  0.1861  0.6560
31483SOL    HW1 6174   3.376   4.318   9.960 -0.0244  0.2554  1.2074
31483SOL    HW2 6175   3.246   4.241   9.975 -0.2152  0.4022  0.3377
31484SOL     OW 6176   1.425   0.428   2.881  0.0249  0.0582  0.1834
31484SOL    HW1 6177   1.426   0.363   2.810  1.1750  0.1268  0.1175
31484SOL    HW2 6178   1.455   0.508   2.839  1.1819 -0.0127  0.8354
31485SOL     OW 6179   1.348   1.749   5.782 -0.4062 -0.6054 -0.3174
31485SOL    HW1 6180   1.424   1.704   5.743  0.6580  0.9701 -0.1728
31485SOL    HW2 6181   1.369   1.753   5.875 -0.7542 -0.3428 -0.2507
31486SOL     OW 6182   7.241   2.150   8.547  0.0548  0.0436  0.3746
31486SOL    HW1 6183   7.314   2.132   8.488 -1.2723  1.1152 -1.7660
31486SOL    HW2 6184   7.228   2.069   8.596  1.4640 -0.7886 -0.5533
31487SOL     OW 6185  11.153   9.182  12.231  0.2513  0.1489 -0.3825
31487SOL    HW1 6186  11.192   9.244  12.293 -0.6190 -0.6234  0.9624
31487SOL    HW2 6187  11.227   9.156  12.176  1.0983  0.6885  0.4473
31488SOL     OW 6188   4.346   5.190   4.130 -0.5590 -0.7769  0.3701
31488SOL    HW1 6189   4.395   5.259   4.085 -0.8578 -0.8736 -0.1176
31488SOL    HW2 6190   4.412   5.136   4.172 -0.3578  0.2561  1.4136
31489SOL     OW 6191   5.790  12.133   7.099 -0.4052 -0.0098 -0.2034
31489SOL    HW1 6192   5.724  12.107   7.035 -0.1424  1.4651 -1.1277
31489SOL    HW2 6193   5.747  12.200   7.152  0.8127  2.3166 -1.9745
31490SOL     OW 6194   5.661   7.742  12.042  0.2520  0.2315  0.3741
31490SOL    HW1 6195   5.709   7.820  12.016  1.5523 -1.4275 -2.8795
31490SOL    HW2 6196   5.571   7.758  12.012  0.2058  0.9220  0.8578
31491SOL     OW 6197   6.927   2.424   6.508  0.4191  0.0611  0.3504
31491SOL    HW1 6198   6.981   2.368   6.451 -1.5065 -0.3686 -1.1322
31491SOL    HW2 6199   6.888   2.488   6.449 -1.7536 -0.4745  1.1061
31492SOL     OW 6200  12.546   9.485   4.715 -0.0086  0.5171 -0.3362
31492SOL    HW1 6201  12.622   9.523   4.758  0.3676 -1.1563  0.5508
31492SOL    HW2 6202  12.576   9.463   4.627  1.1581 -1.8029  0.5545
31493SOL     OW 6203  11.799   4.595   0.789  0.5345  0.0010  0.3169
31493SOL    HW1 6204  11.835   4.533   0.725  1.0287  1.9158 -1.3399
31493SOL    HW2 6205  11.717   4.624   0.750  0.6307  0.8677  0.7351
31494SOL     OW 6206  11.977   7.592   7.599  0.4177 -0.0635  0.5272
31494SOL    HW1 6207  11.886   7.611   7.621  0.7556  1.4308  0.7770
31494SOL    HW2 6208  12.027   7.664   7.639  1.7854 -1.1917  0.9604
31495SOL     OW 6209   9.627  11.313   5.332 -0.1215 -0.4334 -0.1799
31495SOL    HW1 6210   9.567  11.343   5.401 -0.5169 -0.5391 -0.4702
31495SOL    HW2 6211   9.685  11.388   5.316 -0.6645 -0.0544 -0.4230
31496SOL     OW 6212   2.885  12.000   9.931 -0.0317 -0.2140 -0.1444
31496SOL    HW1 6213   2.818  11.933   9.947  1.4915 -2.1997 -1.5741
31496SOL    HW2 6214   2.843  12.064   9.874 -0.5170 -1.8742 -1.7342
31497SOL     OW 6215  12.725   6.654   5.125  0.3955 -0.9751 -0.6116
31497SOL    HW1 6216  12.706   6.732   5.073  1.4848  1.3081  2.1911
31497SOL    HW2 6217  12.820   6.654   5.136  0.1463 -0.5211  2.4146
31498SOL     OW 6218   3.283   0.592   8.198 -0.0549  0.1761 -0.4264
31498SOL    HW1 6219   3.195   0.562   8.174  0.3307 -0.2556 -1.3549
31498SOL    HW2 6220   3.326   0.609   8.114 -0.0921  2.9445  0.0373
31499SOL     OW 6221   4.120   7.279  10.219 -0.1294 -0.3092 -0.2090
31499SOL    HW1 6222   4.076   7.337  10.281  0.4336 -1.6798  1.5396
31499SOL    HW2 6223   4.059   7.272  10.145 -1.0873  0.8898  0.4355
31500SOL     OW 6224   7.993   3.540   4.683 -0.3674 -0.3278 -0.4964
31500SOL    HW1 6225   7.996   3.468   4.746  0.0724  0.4591  0.4040
31500SOL    HW2 6226   7.911   3.586   4.701 -0.5135 -0.4283 -0.8838
31501SOL     OW 6227   5.659   9.122   0.712 -0.2171 -0.0904  0.4236
31501SOL    HW1 6228   5.750   9.133   0.687 -0.4312 -1.0332 -0.8767
31501SOL    HW2 6229   5.662   9.093   0.804  0.8315 -0.9859  0.1213
31502SOL     OW 6230  11.274   7.698  10.838 -0.9462  0.1996  0.6965
31502SOL    HW1 6231  11.218   7.753  10.894 -1.4288 -0.3614  0.7720
31502SOL    HW2 6232  11.252   7.725  10.749 -0.6374  0.6515  0.7538
31503SOL     OW 6233   3.752   1.776   4.693  0.2182  0.7082 -0.4303
31503SOL    HW1 6234   3.777   1.794   4.602  0.7576  0.9682 -0.2352
31503SOL    HW2 6235   3.705   1.855   4.721 -0.5477  0.3604 -0.6860
31504SOL     OW 6236   4.761   8.288   0.855  0.1543 -0.0526  0.1549
31504SOL    HW1 6237   4.819   8.270   0.781 -0.1170  1.0445 -0.3349
31504SOL    HW2 6238   4.820   8.298   0.929  0.3586 -2.8733  0.5163
31505SOL     OW 6239  10.080   0.207   1.628 -0.1742 -0.6127  0.2155
31505SOL    HW1 6240  10.152   0.210   1.565 -0.6083 -0.2998 -0.2720
31505SOL    HW2 6241  10.012   0.157   1.583 -0.6863  0.0748  0.2177
31506SOL     OW 6242   1.297   1.829   5.274 -0.0910  0.4434 -0.4557
31506SOL    HW1 6243   1.277   1.922   5.260  0.0550  0.3650 -1.2656
31506SOL    HW2 6244   1.219   1.793   5.315 -0.4217  0.7856 -0.7738
31507SOL     OW 6245  11.806   8.018   5.721  0.1925 -0.3664 -0.8121
31507SOL    HW1 6246  11.739   8.007   5.789  1.5851  0.1877  0.7148
31507SOL    HW2 6247  11.887   7.989   5.762  1.0811 -0.0470 -2.2720
31508SOL     OW 6248  10.254   6.021   1.808  0.3756 -0.7033 -0.4648
31508SOL    HW1 6249  10.166   6.001   1.840 -1.0792  1.0471 -2.9723
31508SOL    HW2 6250  10.240   6.088   1.740  3.4443 -1.7270 -2.3286
31509SOL     OW 6251  11.821  11.225  13.543 -0.0280  0.0234  0.5064
31509SOL    HW1 6252  11.827  11.299  13.603 -2.7100 -1.0751  2.2682
31509SOL    HW2 6253  11.910  11.189  13.540  1.1382  2.6841  0.3006
31510SOL     OW 6254   6.821   8.369   0.151 -0.0432  0.1626 -0.6313
31510SOL    HW1 6255   6.823   8.312   0.227 -0.8277 -1.0696 -1.4888
31510SOL    HW2 6256   6.759   8.438   0.174  0.4889  0.3633  0.2125
31511SOL     OW 6257   7.950   5.759   3.338  0.2934 -0.0014 -0.3841
31511SOL    HW1 6258   7.965   5.811   3.417  0.2285 -1.5412  0.6891
31511SOL    HW2 6259   8.009   5.796   3.273  2.8838 -0.7980  1.3645
31512SOL     OW 6260   2.664   9.102   4.825  0.4374 -0.7949 -0.3715
31512SOL    HW1 6261   2.715   9.025   4.799  2.3272 -0.4944  2.1054
31512SOL    HW2 6262   2.599   9.068   4.886 -1.1958 -0.8831 -2.0710
31513SOL     OW 6263   6.957  10.290  10.485 -0.1338 -0.1865 -0.2415
31513SOL    HW1 6264   6.888  10.255  10.429 -0.6714 -0.9099  0.8523
31513SOL    HW2 6265   7.022  10.324  10.423 -0.6253 -1.1085 -1.3099
31514SOL     OW 6266   0.775   9.104   0.284 -0.3642 -0.2176 -0.2811
31514SOL    HW1 6267   0.713   9.031   0.280  1.6884 -2.0380 -0.5988
31514SOL    HW2 6268   0.823   9.099   0.201  1.5684 -0.1519  0.7954
31515SOL     OW 6269   6.623   1.871  11.396 -0.3776 -0.1044 -0.5171
31515SOL    HW1 6270   6.679   1.845  11.323 -0.0234  1.0054 -0.6609
31515SOL    HW2 6271   6.582   1.790  11.425  2.3426 -1.2342  0.4967
31516SOL     OW 6272  12.090  12.443   1.099  0.3829  0.4916 -0.3454
31516SOL    HW1 6273  12.061  12.516   1.045  0.9055  0.5493 -0.5596
31516SOL    HW2 6274  12.070  12.365   1.047 -3.8765  0.1011  1.4859
31517SOL     OW 6275   2.137   7.274   9.635  0.0986  0.7985 -0.0575
31517SOL    HW1 6276   2.051   7.282   9.676  0.1955  1.6448  0.0025
31517SOL    HW2 6277   2.199   7.284   9.706  0.2534  0.7330 -0.1832
31518SOL     OW 6278   2.614   3.685  13.104 -0.0850  0.4877 -0.0363
31518SOL    HW1 6279   2.614   3.704  13.198 -0.9034 -1.4616  0.4136
31518SOL    HW2 6280   2.705   3.697  13.077  0.2362  0.7045  1.0798
31519SOL     OW 6281   0.741   5.905   2.184 -0.6229 -0.0285  0.3667
31519SOL    HW1 6282   0.727   5.925   2.277 -4.2991 -0.0703 -0.0472
31519SOL    HW2 6283   0.689   5.826   2.169 -1.1419  0.7023 -1.9904
31520SOL     OW 6284  11.138  11.917   5.117  0.0874 -0.0037  0.9943
31520SOL    HW1 6285  11.153  11.825   5.092  1.0525 -0.1095  1.9064
31520SOL    HW2 6286  11.087  11.912   5.198  0.4122  0.2535  1.2166
31521SOL     OW 6287  10.651  12.470   2.049 -0.5320 -0.3580  0.0611
31521SOL    HW1 6288  10.600  12.415   1.989 -1.2904 -0.2484  0.5824
31521SOL    HW2 6289  10.718  12.411   2.084  1.1697  0.0507 -2.2963
31522SOL     OW 6290  13.005  10.187   6.078  0.1309  0.5234  0.2459
31522SOL    HW1 6291  13.095  10.160   6.099 -0.2197 -0.2415  0.7877
31522SOL    HW2 6292  12.950  10.137   6.138 -0.5857  2.0281  0.8912
31523SOL     OW 6293   1.956   2.725   3.772 -0.5314  0.5213  0.1013
31523SOL    HW1 6294   1.909   2.683   3.844 -1.3018 -1.1307 -1.2984
31523SOL    HW2 6295   1.896   2.718   3.697 -0.0923  2.8977 -0.5522
31524SOL     OW 6296  13.724   4.795   0.586  0.0941  0.4804 -0.1090
31524SOL    HW1 6297  13.809   4.828   0.616  0.2616 -0.6886  0.7675
31524SOL    HW2 6298  13.746   4.730   0.519 -0.1429  0.6289 -0.3340
31525SOL     OW 6299  12.742   0.173   1.003  0.6368 -0.0753 -0.7313
31525SOL    HW1 6300  12.660   0.219   1.022  0.1403 -0.8086 -1.0338
31525SOL    HW2 6301  12.757   0.189   0.910  1.8411  1.5993 -0.2913
31526SOL     OW 6302   1.944   7.435  12.767  0.0720  0.3204 -0.6528
31526SOL    HW1 6303   1.915   7.453  12.857 -1.5135  0.5277 -1.1742
31526SOL    HW2 6304   2.013   7.370  12.777  0.7514  1.2098  0.7937
31527SOL     OW 6305  12.185   3.013   1.724  0.0668  0.0600  0.1132
31527SOL    HW1 6306  12.100   3.027   1.683  0.2855 -0.5002 -0.5505
31527SOL    HW2 6307  12.228   2.948   1.668  0.6158 -0.2561  0.8856
31528SOL     OW 6308   3.222   0.982   4.220  0.2902 -0.5151  0.0202
31528SOL    HW1 6309   3.196   0.948   4.134  0.4955 -1.6819  0.3916
31528SOL    HW2 6310   3.170   1.061   4.231  0.9959  0.2285 -1.6035
31529SOL     OW 6311  13.222  12.858   6.218  0.5686  0.0127 -0.4653
31529SOL    HW1 6312  13.208  12.781   6.273 -0.8246  0.6123  0.0588
31529SOL    HW2 6313  13.316  12.857   6.199  0.8365 -0.9706  0.7864
31530SOL     OW 6314   4.658   3.301  13.654 -0.0681  0.3342 -0.4889
31530SOL    HW1 6315   4.662   3.393  13.628 -0.1331  0.7821  1.0350
31530SOL    HW2 6316   4.690   3.300  13.744 -1.8279 -0.8597  0.1696
31531SOL     OW 6317   5.240  11.957   0.437 -0.2473  0.2899  0.1968
31531SOL    HW1 6318   5.284  12.041   0.451 -0.7436  1.1005 -2.5146
31531SOL    HW2 6319   5.186  11.970   0.359 -3.3204 -1.4646  1.8304
31532SOL     OW 6320   7.318  12.528  13.636  0.4354  0.1531 -0.3086
31532SOL    HW1 6321   7.282  12.483  13.712  1.1119 -0.3734 -0.2855
31532SOL    HW2 6322   7.378  12.594  13.674 -0.8073  1.3428 -0.3281
31533SOL     OW 6323   3.850  11.519  11.309  0.1425  0.3282 -0.4052
31533SOL    HW1 6324   3.857  11.425  11.325  1.4150  0.4060 -0.3555
31533SOL    HW2 6325   3.763  11.531  11.271 -0.8733 -0.5701  1.5329
31534SOL     OW 6326  12.697  10.607   8.554  0.4175  0.1157  0.0392
31534SOL    HW1 6327  12.679  10.659   8.633 -0.7624 -1.1560  0.6622
31534SOL    HW2 6328  12.785  10.572   8.567  0.7616  1.0137  0.1524
31535SOL     OW 6329   2.935   2.254   7.366  0.5827 -0.8603  0.3341
31535SOL    HW1 6330   2.999   2.324   7.382 -2.2432  2.2579 -0.8580
31535SOL    HW2 6331   2.978   2.196   7.303  2.8437  0.0639  0.9210
31536SOL     OW 6332   9.068  11.217   2.770 -0.5194  0.0258  0.1668
31536SOL    HW1 6333   9.151  11.206   2.815 -0.1358  1.4675 -0.1215
31536SOL    HW2 6334   9.017  11.274   2.828 -1.0249 -0.2559  0.0059
31537SOL     OW 6335  10.863   0.515  12.617  0.3763 -0.4834 -0.3826
31537SOL    HW1 6336  10.834   0.565  12.540  0.8621 -0.0396 -0.2740
31537SOL    HW2 6337  10.791   0.453  12.632  0.0914 -0.3040 -0.9480
31538SOL     OW 6338   4.754   7.529   3.461 -0.3125  0.1417  1.4168
31538SOL    HW1 6339   4.833   7.482   3.434  0.4447  0.7337  2.5065
31538SOL    HW2 6340   4.704   7.464   3.511 -2.0374 -1.1622 -1.7166
31539SOL     OW 6341  13.725  11.242   8.956  0.0939 -0.1158  0.0967
31539SOL    HW1 6342  13.804  11.197   8.926 -0.2187  0.1723 -1.2627
31539SOL    HW2 6343  13.727  11.326   8.909 -0.9834 -0.0819  0.0806
31540SOL     OW 6344   8.727  11.976   6.329  0.2498 -0.2605 -0.0928
31540SOL    HW1 6345   8.692  12.005   6.245 -0.1492 -1.2385 -0.2815
31540SOL    HW2 6346   8.791  12.042   6.352  0.2618  0.1055 -1.1011
31541SOL     OW 6347  10.465   8.185  11.671 -0.2458 -0.1461 -0.0813
31541SOL    HW1 6348  10.441   8.172  11.762  1.8401  0.8644  0.6813
31541SOL    HW2 6349  10.412   8.260  11.642  0.9331  1.2146  1.1446
31542SOL     OW 6350   9.291   9.323   7.790 -0.0853 -0.2407  0.1177
31542SOL    HW1 6351   9.263   9.290   7.876  2.1032  0.8328  1.3324
31542SOL    HW2 6352   9.374   9.368   7.808  0.3198  0.2126 -2.5515
31543SOL     OW 6353  10.323   9.272   4.899 -0.0973 -0.0198  0.2815
31543SOL    HW1 6354  10.361   9.275   4.987 -0.7523  1.0485  0.5542
31543SOL    HW2 6355  10.359   9.349   4.855 -0.6833  0.1060  0.0138
31544SOL     OW 6356  12.011   5.993   7.866 -0.2539 -0.1285  0.4528
31544SOL    HW1 6357  12.023   5.972   7.959 -2.4936 -1.4643  0.5088
31544SOL    HW2 6358  11.921   5.966   7.847  0.4768 -0.8932 -2.3809
31545SOL     OW 6359   5.234   2.989  12.985  0.4612 -0.0656 -0.2736
31545SOL    HW1 6360   5.285   2.909  12.973  1.1169  0.0900  1.2636
31545SOL    HW2 6361   5.288   3.044  13.041 -0.4566  1.0210 -0.4136
31546SOL     OW 6362   4.908   0.529   7.074  0.1409  0.2068  0.1414
31546SOL    HW1 6363   4.823   0.556   7.041  0.7766  0.7920 -1.0634
31546SOL    HW2 6364   4.951   0.487   6.999  1.1153  0.3902  0.5830
31547SOL     OW 6365   6.271   9.698  12.060 -0.1876 -0.0371 -0.2388
31547SOL    HW1 6366   6.220   9.622  12.031  1.1592 -0.2689 -2.2053
31547SOL    HW2 6367   6.332   9.662  12.125  0.9038 -0.8471 -1.6501
31548SOL     OW 6368  10.083  12.390   5.324 -0.0290  0.2811 -0.4864
31548SOL    HW1 6369  10.122  12.309   5.291 -1.0406  0.6910 -2.8827
31548SOL    HW2 6370  10.099  12.388   5.419  0.2469 -2.5529 -0.5145
31549SOL     OW 6371  11.439   9.132  10.524 -0.1483  0.4373  0.6064
31549SOL    HW1 6372  11.382   9.205  10.548 -1.1772 -0.8607  2.2938
31549SOL    HW2 6373  11.380   9.061  10.501  0.8387  0.1529 -1.2092
31550SOL     OW 6374   1.212   1.040  11.634 -0.2286 -0.0437 -0.1905
31550SOL    HW1 6375   1.119   1.037  11.657 -0.7974  1.3229 -2.0117
31550SOL    HW2 6376   1.222   0.971  11.568  0.3259 -0.9046  0.7696
31551SOL     OW 6377   1.265   5.595   3.676  0.2121 -0.0671 -0.6354
31551SOL    HW1 6378   1.240   5.663   3.614 -1.4849 -0.7494 -0.7510
31551SOL    HW2 6379   1.183   5.555   3.703  0.9280 -0.0722  1.7702
31552SOL     OW 6380   0.350   0.745   1.830 -0.2573 -0.1338  0.0515
31552SOL    HW1 6381   0.265   0.707   1.808 -0.9597  0.7754  1.0872
31552SOL    HW2 6382   0.359   0.820   1.772  0.8183 -1.3972 -1.5091
31553SOL     OW 6383   4.325   5.721   6.363  0.1754 -0.6612 -0.1511
31553SOL    HW1 6384   4.298   5.746   6.275 -0.9037 -2.0210 -0.2342
31553SOL    HW2 6385   4.410   5.679   6.352 -0.3413 -1.5878 -0.6679
31554SOL     OW 6386   4.941   2.775   6.922 -0.2948  0.4660 -0.0141
31554SOL    HW1 6387   4.856   2.736   6.901  0.3701 -1.3511  0.4696
31554SOL    HW2 6388   4.954   2.756   7.015  0.7719  0.4291 -0.1551
31555SOL     OW 6389  12.604   3.155   4.694 -0.5644 -0.1512 -0.0984
31555SOL    HW1 6390  12.569   3.223   4.751 -1.8526  0.2593 -1.3026
31555SOL    HW2 6391  12.674   3.198   4.645  0.1249 -0.3341  0.7112
31556SOL     OW 6392  10.235  11.310   7.055 -0.2330 -0.4200  0.0576
31556SOL    HW1 6393  10.185  11.363   6.993  0.5204 -0.4859 -0.6306
31556SOL    HW2 6394  10.326  11.318   7.026  0.0342 -1.1399  0.6466
31557SOL     OW 6395  11.123   7.516   9.897 -0.0877  0.1157  0.3607
31557SOL    HW1 6396  11.107   7.472   9.814 -2.3428 -0.1309  0.8587
31557SOL    HW2 6397  11.142   7.607   9.873 -1.5091  0.2341 -0.4373
31558SOL     OW 6398   3.740  11.491   8.433  0.4132  0.2085  0.5649
31558SOL    HW1 6399   3.674  11.530   8.376 -0.6061 -1.4475  0.5434
31558SOL    HW2 6400   3.757  11.557   8.500 -0.3406  1.1394 -0.1456
31559SOL     OW 6401   8.317  13.204   8.228  0.1715 -0.0234  0.3252
31559SOL    HW1 6402   8.327  13.128   8.171 -1.7011  0.6006 -0.9173
31559SOL    HW2 6403   8.306  13.167   8.315 -1.3633 -1.2418 -0.3400
31560SOL     OW 6404  10.423   1.446   2.288  0.1159 -0.8056 -0.0462
31560SOL    HW1 6405  10.373   1.507   2.341  0.5546  0.7860 -1.3729
31560SOL    HW2 6406  10.513   1.480   2.290  0.0697 -0.4616 -2.0859
31561SOL     OW 6407   4.934   5.783   3.381 -0.6590  0.1558 -0.5578
31561SOL    HW1 6408   4.848   5.792   3.340 -0.7545  0.2056 -0.3533
31561SOL    HW2 6409   4.993   5.761   3.310 -0.8848 -0.1193 -0.6657
31562SOL     OW 6410   8.767   7.041   5.883 -0.2816  0.3902 -0.0695
31562SOL    HW1 6411   8.806   7.098   5.949 -0.0835 -0.1075  0.2456
31562SOL    HW2 6412   8.827   7.046   5.808  1.1889 -1.4378  0.8881
31563SOL     OW 6413   8.072  10.368   1.189 -0.1457  0.3626  0.0322
31563SOL    HW1 6414   8.041  10.373   1.280  0.0050 -0.5907  0.1405
31563SOL    HW2 6415   8.116  10.452   1.175  1.2944 -0.1096  1.3911
31564SOL     OW 6416  10.438  11.494   6.544 -0.1067 -0.1616  0.3357
31564SOL    HW1 6417  10.464  11.468   6.633  0.8555 -1.7994 -0.3751
31564SOL    HW2 6418  10.458  11.587   6.540  2.7806 -0.6670  0.8872
31565SOL     OW 6419   3.948  11.817   3.398 -0.0875 -0.0429 -0.4914
31565SOL    HW1 6420   3.904  11.863   3.327  0.7189 -1.0307 -1.6859
31565SOL    HW2 6421   3.912  11.728   3.394 -0.7772  0.1337  1.0244
31566SOL     OW 6422  13.048  10.315   8.390 -0.2825  0.2004 -0.1754
31566SOL    HW1 6423  13.112  10.356   8.448  1.3670  0.6500 -2.1808
31566SOL    HW2 6424  12.998  10.387   8.353  0.7846  0.2610 -1.6158
31567SOL     OW 6425   0.988   6.089   7.509 -0.1349  0.4646 -0.2741
31567SOL    HW1 6426   1.033   6.101   7.593  0.1244  2.2930 -0.6405
31567SOL    HW2 6427   1.033   6.014   7.469  1.0217  0.7753  0.3992
31568SOL     OW 6428   9.617   1.866   2.972  0.4726  0.0970  0.3739
31568SOL    HW1 6429   9.547   1.841   3.033 -0.0218 -0.2258 -0.3058
31568SOL    HW2 6430   9.666   1.785   2.957  0.2306  0.0359 -0.1073
31569SOL     OW 6431   3.548   0.021   5.388  0.2938  0.1291 -0.1965
31569SOL    HW1 6432   3.544   0.111   5.354 -0.6811  0.2620  0.2205
31569SOL    HW2 6433   3.498  -0.030   5.324  2.4087 -0.4986 -1.4586
31570SOL     OW 6434   3.270  13.226   7.958  0.1182  0.0277 -0.1504
31570SOL    HW1 6435   3.327  13.298   7.931 -0.3548  0.1174 -0.9430
31570SOL    HW2 6436   3.242  13.186   7.876  1.1122 -1.6612  0.3004
31571SOL     OW 6437   2.609  10.738   4.092  0.4138 -0.1165 -0.7468
31571SOL    HW1 6438   2.553  10.676   4.138 -0.0849  1.0661  0.2966
31571SOL    HW2 6439   2.693  10.692   4.083 -0.2859 -1.3674 -1.0572
31572SOL     OW 6440   8.156   0.490   2.748 -0.0756  0.3764  0.0523
31572SOL    HW1 6441   8.118   0.577   2.741  1.8518  1.1104 -3.1080
31572SOL    HW2 6442   8.101   0.435   2.692 -0.5427 -0.2397  1.0655
31573SOL     OW 6443   9.339   5.936   0.197  0.2815  0.0454 -0.0903
31573SOL    HW1 6444   9.255   5.891   0.205  0.9018 -1.1220  0.0515
31573SOL    HW2 6445   9.319   6.028   0.218 -0.4137 -0.7072  3.1072
31574SOL     OW 6446   2.414  10.665  10.414  0.2108 -0.0370  0.2579
31574SOL    HW1 6447   2.412  10.739  10.474  1.2924 -0.0134  0.2721
31574SOL    HW2 6448   2.335  10.675  10.361 -2.3342 -1.5288  3.3951
31575SOL     OW 6449   5.282   9.229   2.887  1.0761 -0.1578  0.0087
31575SOL    HW1 6450   5.197   9.200   2.922  0.3069  1.0027 -0.8286
31575SOL    HW2 6451   5.313   9.156   2.834 -0.1666 -0.0295 -0.9382
31576SOL     OW 6452   2.683   5.771  12.092  0.0083  0.1949  0.3150
31576SOL    HW1 6453   2.670   5.840  12.158  2.0488  0.1190  0.8519
31576SOL    HW2 6454   2.695   5.691  12.143  1.2899  0.0867 -0.1223
31577SOL     OW 6455  10.224  12.491   0.430 -0.4396 -0.6391  0.7037
31577SOL    HW1 6456  10.214  12.484   0.335 -0.1276  0.8638  0.5392
31577SOL    HW2 6457  10.277  12.414   0.454 -1.4122 -1.6146 -0.1675
31578SOL     OW 6458  11.867   4.658   8.195  0.4329 -0.4854  0.3424
31578SOL    HW1 6459  11.935   4.704   8.145 -0.7792  0.7126 -0.2860
31578SOL    HW2 6460  11.913   4.585   8.236  2.1830  0.5247  0.3016
31579SOL     OW 6461   7.515   6.187   7.396 -0.0270 -0.2625  0.7211
31579SOL    HW1 6462   7.471   6.210   7.315  0.7759 -0.5338  0.1926
31579SOL    HW2 6463   7.600   6.153   7.368  0.0457 -0.8683  1.6497
31580SOL     OW 6464  12.186   3.960   0.335  0.3332  0.4231  0.1600
31580SOL    HW1 6465  12.236   3.956   0.416  0.6475  2.1181  0.0806
31580SOL    HW2 6466  12.224   3.892   0.280  1.0352  0.1846  0.9205
31581SOL     OW 6467   1.707   3.968   0.422  0.0904  0.2914  0.5139
31581SOL    HW1 6468   1.802   3.983   0.425 -0.0641  1.5772 -0.1455
31581SOL    HW2 6469   1.695   3.897   0.359  0.5269  1.2404 -0.6753
31582SOL     OW 6470   6.211  12.850   1.043 -0.1175  0.2091  0.1974
31582SOL    HW1 6471   6.290  12.819   0.999  0.1497  0.4971  0.4652
31582SOL    HW2 6472   6.162  12.770   1.063  0.8538 -0.1125  1.4363
31583SOL     OW 6473   9.230   5.783  11.721 -0.2526 -0.4797 -0.1376
31583SOL    HW1 6474   9.215   5.695  11.687 -0.5620 -0.8028  0.8100
31583SOL    HW2 6475   9.231   5.772  11.816  0.0633  0.4857 -0.0227
31584SOL     OW 6476   4.472   9.653  11.419  0.0132  0.0409 -0.2845
31584SOL    HW1 6477   4.470   9.566  11.459  0.6181 -0.8437 -2.0600
31584SOL    HW2 6478   4.381   9.671  11.397 -0.1489 -0.0265  0.3180
31585SOL     OW 6479   9.767   0.140   3.931 -0.1740 -0.5409 -0.5023
31585SOL    HW1 6480   9.750   0.172   4.020 -0.8024  0.0043 -0.8069
31585SOL    HW2 6481   9.862   0.143   3.922 -0.2052  2.8946 -1.0688
31586SOL     OW 6482  12.775   1.132   0.156  0.2582  0.2149 -0.4478
31586SOL    HW1 6483  12.703   1.109   0.098 -1.8990 -0.2350  2.1803
31586SOL    HW2 6484  12.776   1.227   0.156  1.1691  0.2316 -2.1665
31587SOL     OW 6485   5.749  12.306   1.163 -0.0536 -0.6560  0.2455
31587SOL    HW1 6486   5.743  12.359   1.242  0.4169 -1.4792  0.8515
31587SOL    HW2 6487   5.755  12.216   1.196 -1.0516 -1.1088 -0.7548
31588SOL     OW 6488   3.658  11.063   4.841 -0.2742 -0.3330  0.3313
31588SOL    HW1 6489   3.681  11.127   4.773  0.2138  0.3858  1.1569
31588SOL    HW2 6490   3.697  10.981   4.811 -0.3164 -0.0928 -0.4020
31589SOL     OW 6491   2.398   5.352   8.112  0.1999  0.2753  0.0932
31589SOL    HW1 6492   2.369   5.309   8.193 -0.4631  1.7202  0.6478
31589SOL    HW2 6493   2.326   5.338   8.050 -0.8419  2.0538  0.8257
31590SOL     OW 6494  10.103  11.071   3.256  0.8155 -0.3101 -0.2387
31590SOL    HW1 6495  10.064  10.990   3.223  0.4004 -0.1299 -0.1946
31590SOL    HW2 6496  10.064  11.083   3.343  0.0843  0.4747 -0.6531
31591SOL     OW 6497   2.607  11.973   0.622 -0.4750  0.4497 -0.4191
31591SOL    HW1 6498   2.690  11.950   0.665 -1.0307 -1.0459 -0.0552
31591SOL    HW2 6499   2.620  11.949   0.530 -1.0529 -1.5202 -0.0399
31592SOL     OW 6500   7.155   1.160   6.528 -0.0747  0.8476 -0.0186
31592SOL    HW1 6501   7.106   1.144   6.608  0.6911 -0.0041  0.2926
31592SOL    HW2 6502   7.228   1.216   6.554 -0.5856  1.6993 -0.3860
31593SOL     OW 6503  10.324   2.298   4.290  0.2555  0.6059 -0.3813
31593SOL    HW1 6504  10.405   2.332   4.328 -1.0115  1.8411  1.3869
31593SOL    HW2 6505  10.353   2.249   4.213  2.7240  0.4479  0.5321
31594SOL     OW 6506  10.625   1.815   7.202  0.3180 -0.3172  0.2776
31594SOL    HW1 6507  10.686   1.823   7.129 -0.7720  0.8004 -0.5797
31594SOL    HW2 6508  10.669   1.858   7.275  1.3470 -1.2813  0.2505
31595SOL     OW 6509   9.786   7.234   1.543 -0.2016 -0.4873 -0.1902
31595SOL    HW1 6510   9.810   7.143   1.522 -0.1688 -0.1632 -1.6474
31595SOL    HW2 6511   9.814   7.284   1.467 -0.1082  0.7820  0.6559
31596SOL     OW 6512   4.968  12.322   6.780  0.1563  0.2174 -0.5408
31596SOL    HW1 6513   4.881  12.322   6.740  0.1322  1.4864 -0.5350
31596SOL    HW2 6514   4.966  12.395   6.843  1.1700  0.1822 -0.4429
31597SOL     OW 6515  10.740  12.204   7.853  0.5556 -0.1386  0.4183
31597SOL    HW1 6516  10.792  12.193   7.933 -0.2333 -0.8172  0.8530
31597SOL    HW2 6517  10.784  12.149   7.789  0.2906 -0.8338  0.8266
31598SOL     OW 6518  10.646   2.121   8.558  0.2698 -0.0119 -0.3164
31598SOL    HW1 6519  10.695   2.040   8.542  0.0270  0.0838 -1.6851
31598SOL    HW2 6520  10.708   2.191   8.539 -0.1198  0.1065 -1.2357
31599SOL     OW 6521  13.275   8.948  11.903  0.2909  0.1989  0.3671
31599SOL    HW1 6522  13.304   8.868  11.858 -0.1062  0.4936 -0.4437
31599SOL    HW2 6523  13.179   8.939  11.907  0.1286  1.1640 -0.8038
31600SOL     OW 6524   1.158   5.179   9.427  0.1306  0.0284 -0.2098
31600SOL    HW1 6525   1.213   5.102   9.434  1.5650  1.1133  1.1754
31600SOL    HW2 6526   1.081   5.158   9.480 -0.0522 -0.8667 -0.8049
31601SOL     OW 6527  12.289   9.563   4.707 -0.2623  0.7957 -0.1936
31601SOL    HW1 6528  12.377   9.527   4.695 -0.5442  1.0701 -4.6281
31601SOL    HW2 6529  12.294   9.650   4.668 -2.0889  1.5749  1.2087
31602SOL     OW 6530  12.077   3.007  12.845 -0.0654  0.3278  0.2417
31602SOL    HW1 6531  11.994   3.039  12.879 -0.0307  1.3452 -0.5628
31602SOL    HW2 6532  12.117   2.960  12.918 -1.3539 -0.2156  0.6241
31603SOL     OW 6533   8.958   4.141   5.575  0.2579  0.0208  0.5031
31603SOL    HW1 6534   9.010   4.218   5.553  0.2795 -0.1749 -0.1358
31603SOL    HW2 6535   8.993   4.071   5.521 -1.8447  0.3011 -1.3567
31604SOL     OW 6536   2.542  12.653  13.107 -0.4692 -0.5905 -0.3788
31604SOL    HW1 6537   2.549  12.576  13.163 -0.1604  0.5557  1.2366
31604SOL    HW2 6538   2.450  12.678  13.112 -0.0569  0.7571  1.4395
31605SOL     OW 6539   3.501   7.173   8.376 -0.4198  0.0827  0.1735
31605SOL    HW1 6540   3.451   7.234   8.430 -0.0633  0.1962  0.3848
31605SOL    HW2 6541   3.440   7.103   8.354  0.1775 -1.5704  3.2372
31606SOL     OW 6542   6.043   1.437   8.045 -0.1706  0.6225  0.5508
31606SOL    HW1 6543   5.956   1.445   8.006  0.3603  0.9704 -0.6157
31606SOL    HW2 6544   6.045   1.350   8.083 -0.5937  0.1120 -0.5553
31607SOL     OW 6545   0.529   1.841   6.650 -0.6154  0.2981 -0.1273
31607SOL    HW1 6546   0.609   1.851   6.702 -1.2032 -1.7803  1.3471
31607SOL    HW2 6547   0.466   1.805   6.712 -1.6439 -1.4262 -2.0483
31608SOL     OW 6548   6.045  12.064   6.754 -0.4008  0.2658  0.0126
31608SOL    HW1 6549   6.111  11.999   6.778  0.7290  0.6754 -1.8080
31608SOL    HW2 6550   6.033  12.052   6.660 -1.2938  1.6777 -0.0816
31609SOL     OW 6551   5.575   3.496   8.062  0.2664 -0.5611  0.2633
31609SOL    HW1 6552   5.513   3.538   8.002 -0.1960 -1.7315 -0.1037
31609SOL    HW2 6553   5.661   3.528   8.034  0.2209 -2.1615 -2.0045
31610SOL     OW 6554  13.340   8.121  10.160 -0.0985  0.0559  0.3711
31610SOL    HW1 6555  13.262   8.175  10.152  0.6849  1.3056  0.8131
31610SOL    HW2 6556  13.377   8.119  10.072 -1.9115 -2.6444 -0.4345
31611SOL     OW 6557   3.727   6.681   8.410 -0.1640  0.3411 -0.1951
31611SOL    HW1 6558   3.641   6.682   8.451 -0.8414 -2.4814 -1.3489
31611SOL    HW2 6559   3.785   6.724   8.474 -1.6408 -1.4120  2.4998
31612SOL     OW 6560   0.315   3.391  12.153  0.7378 -0.2787 -0.3116
31612SOL    HW1 6561   0.354   3.366  12.237  1.3382  1.1983 -0.1304
31612SOL    HW2 6562   0.332   3.485  12.145 -1.8222  0.2024 -0.7613
31613SOL     OW 6563  10.389   7.435   5.316  0.2269 -0.2315  0.4639
31613SOL    HW1 6564  10.373   7.519   5.272 -2.1809  1.0663  3.3717
31613SOL    HW2 6565  10.363   7.369   5.253 -2.3382  1.4526 -0.4163
31614SOL     OW 6566   7.816   4.019  12.522  0.2455 -0.6186 -0.2878
31614SOL    HW1 6567   7.907   4.038  12.545  0.3705 -1.0324 -0.4360
31614SOL    HW2 6568   7.809   3.924  12.529 -1.2248 -0.4114  3.7915
31615SOL     OW 6569  12.112   9.810   2.352  0.4319 -0.0912  0.2910
31615SOL    HW1 6570  12.079   9.783   2.437 -0.5821  0.2332  0.0113
31615SOL    HW2 6571  12.205   9.789   2.355  0.6485  0.9015  1.8787
31616SOL     OW 6572   2.684   6.192   7.272  0.0157  0.4038 -0.2627
31616SOL    HW1 6573   2.626   6.231   7.338  0.9554  0.8956  0.2919
31616SOL    HW2 6574   2.737   6.129   7.322  1.4877  1.5618 -0.3140
31617SOL     OW 6575   3.005  12.928  10.941 -0.1909  0.5693 -0.3346
31617SOL    HW1 6576   2.966  12.940  11.028  1.0067 -1.6965  0.6031
31617SOL    HW2 6577   3.098  12.944  10.955 -0.2218  2.4146 -1.7731
31618SOL     OW 6578   8.382   8.101   8.542 -0.0261 -0.3599  0.1881
31618SOL    HW1 6579   8.307   8.134   8.492  1.5356  2.5258 -0.4972
31618SOL    HW2 6580   8.382   8.153   8.623  1.6736  0.3640 -0.2253
31619SOL     OW 6581  13.595   3.128   6.475 -0.2171  0.0718  0.0512
31619SOL    HW1 6582  13.646   3.091   6.402 -0.2847  1.4896 -0.7460
31619SOL    HW2 6583  13.580   3.219   6.450 -1.1815  0.2942  1.3527
31620SOL     OW 6584  11.548   7.353   9.065  0.0717 -0.6562  0.4803
31620SOL    HW1 6585  11.472   7.336   9.010  0.2536 -2.4905  0.7259
31620SOL    HW2 6586  11.547   7.283   9.130  0.5510  0.7499  2.0819
31621SOL     OW 6587  12.590   5.877   0.898  0.0228 -0.0597 -0.1641
31621SOL    HW1 6588  12.661   5.934   0.868  1.2583 -1.1423  0.6411
31621SOL    HW2 6589  12.633   5.796   0.926 -1.5135 -0.6924  0.4952
31622SOL     OW 6590   2.503   9.343   0.678 -0.2323 -0.5372 -0.0596
31622SOL    HW1 6591   2.540   9.344   0.590 -2.3251 -0.6110 -0.9999
31622SOL    HW2 6592   2.416   9.304   0.668 -1.2547  1.0631  1.7241
31623SOL     OW 6593   8.825   5.796   3.685 -0.0392  0.4219 -0.4657
31623SOL    HW1 6594   8.731   5.810   3.696 -0.1309 -1.0568  1.0016
31623SOL    HW2 6595   8.866   5.870   3.731 -0.4592  0.7607 -0.6262
31624SOL     OW 6596   1.291  11.040   1.792  0.1362 -0.1509  0.0173
31624SOL    HW1 6597   1.311  11.113   1.734 -2.2519  0.4606 -0.1302
31624SOL    HW2 6598   1.348  11.053   1.868 -1.1522  2.6921  0.6127
31625SOL     OW 6599   2.910   2.266   2.856 -0.3293  0.0290 -0.0251
31625SOL    HW1 6600   2.996   2.228   2.870 -0.6926 -1.2293 -1.0182
31625SOL    HW2 6601   2.849   2.204   2.896 -0.8718 -0.0333 -0.9017
31626SOL     OW 6602   9.525   2.760   2.802 -0.2196  0.4728 -0.2120
31626SOL    HW1 6603   9.542   2.689   2.863  0.8578  1.0477  0.1821
31626SOL    HW2 6604   9.512   2.717   2.718  0.4631 -0.1988  0.0185
31627SOL     OW 6605  13.642  11.658   7.738  0.0541 -0.2586 -0.1243
31627SOL    HW1 6606  13.597  11.575   7.720 -0.7622  0.0223  0.5233
31627SOL    HW2 6607  13.641  11.666   7.833  2.3434 -0.6802 -0.0106
31628SOL     OW 6608   6.723   6.252  10.089 -0.3380 -0.3579 -0.2239
31628SOL    HW1 6609   6.653   6.206  10.043 -1.1945  1.2297 -0.5909
31628SOL    HW2 6610   6.678   6.322  10.138  0.5244 -1.8157  2.9376
31629SOL     OW 6611   9.828  12.957   0.429  0.4055  0.2308  0.1481
31629SOL    HW1 6612   9.749  12.932   0.381  1.9276 -2.3022 -1.3042
31629SOL    HW2 6613   9.847  13.046   0.399 -1.3422  0.5261 -0.1879
31630SOL     OW 6614   2.718   0.631   3.486 -0.3421  0.0188  0.5377
31630SOL    HW1 6615   2.736   0.692   3.415  0.0586 -0.3611  0.3096
31630SOL    HW2 6616   2.790   0.644   3.548  0.5913 -1.2914 -0.2341
31631SOL     OW 6617   0.002   2.322   1.126 -1.0476  0.3391  0.2688
31631SOL    HW1 6618   0.091   2.350   1.149 -1.4848  0.7813  1.4973
31631SOL    HW2 6619   0.012   2.280   1.041  0.4549 -0.2327  0.6921
31632SOL     OW 6620   0.162  10.732   3.311 -0.5987  0.1689  0.0853
31632SOL    HW1 6621   0.133  10.735   3.220  0.0634  0.2219 -0.1289
31632SOL    HW2 6622   0.164  10.639   3.333  3.2959 -0.2990 -1.3235
31633SOL     OW 6623   3.711  10.026   5.390  0.1187  0.0197  0.4654
31633SOL    HW1 6624   3.688   9.974   5.467 -0.3743 -0.0644  0.2685
31633SOL    HW2 6625   3.806  10.036   5.395  0.3715 -1.8065 -0.0647
31634SOL     OW 6626   5.575  10.641   2.883 -0.6078 -0.4426  0.2083
31634SOL    HW1 6627   5.604  10.564   2.835 -2.5138 -2.1057  1.5850
31634SOL    HW2 6628   5.526  10.692   2.819  1.0390 -0.0915 -0.8262
31635SOL     OW 6629  10.943  11.707   8.285  0.0482  0.2696 -0.5202
31635SOL    HW1 6630  10.869  11.732   8.230 -1.5232  1.9211  2.1139
31635SOL    HW2 6631  11.007  11.778   8.274  0.2422  0.0182 -1.0404
31636SOL     OW 6632   8.751   3.427  10.296  0.2896  0.0056 -0.2629
31636SOL    HW1 6633   8.837   3.440  10.255  0.5083 -1.7218 -0.4367
31636SOL    HW2 6634   8.692   3.485  10.248  1.0788  0.1149 -1.1248
31637SOL     OW 6635   2.546   7.867  12.290  0.0959  0.1407  0.1055
31637SOL    HW1 6636   2.640   7.851  12.294  0.0336 -0.8351 -1.3705
31637SOL    HW2 6637   2.506   7.786  12.322 -0.2305  0.0649 -0.4759
31638SOL     OW 6638   1.536   4.736   0.687 -0.2729 -0.4760  0.1416
31638SOL    HW1 6639   1.540   4.765   0.596  0.5558 -0.9373  0.0192
31638SOL    HW2 6640   1.603   4.668   0.693  0.0879 -0.0465  1.2424
31639SOL     OW 6641   6.286  10.748   0.216 -0.6529 -0.6396 -0.0654
31639SOL    HW1 6642   6.224  10.679   0.239  1.0698 -1.9741  0.8730
31639SOL    HW2 6643   6.279  10.756   0.121 -1.9684 -1.0061 -0.0279
31640SOL     OW 6644   9.350   6.648   2.976  0.0289  0.3856 -0.2728
31640SOL    HW1 6645   9.266   6.681   3.009 -0.6781  0.2980 -1.8879
31640SOL    HW2 6646   9.413   6.669   3.046 -1.2309  0.9053  0.7549
31641SOL     OW 6647   8.958   2.362   5.631 -0.1632  0.2423  0.3117
31641SOL    HW1 6648   8.961   2.267   5.617 -1.0819 -0.1912  2.6227
31641SOL    HW2 6649   8.882   2.375   5.688  0.2768  2.3052  0.4933
31642SOL     OW 6650   9.706  11.554   0.375  0.0366 -0.3341 -0.2654
31642SOL    HW1 6651   9.713  11.522   0.464  0.3210  0.1673 -0.0990
31642SOL    HW2 6652   9.624  11.603   0.373  0.7963  1.0257  0.1904
31643SOL     OW 6653   1.358   7.967   2.508 -0.4786  0.8377 -0.1584
31643SOL    HW1 6654   1.360   7.874   2.532 -1.3187  0.8017 -0.1768
31643SOL    HW2 6655   1.398   7.970   2.421 -0.4193  0.4899 -0.1443
31644SOL     OW 6656  11.589   7.130  10.279 -0.5983 -0.3122  0.0534
31644SOL    HW1 6657  11.614   7.083  10.200 -0.3185 -0.0683 -0.0074
31644SOL    HW2 6658  11.666   7.183  10.301 -0.1666 -1.3657  1.2431
31645SOL     OW 6659   5.780   7.989   7.758  0.1025  0.2526  0.1973
31645SOL    HW1 6660   5.715   8.027   7.818  0.1472  0.7950 -0.0915
31645SOL    HW2 6661   5.817   7.915   7.806  0.1944  0.7341  0.8711
31646SOL     OW 6662  11.964   6.829   6.187  0.1012 -0.2044 -0.3020
31646SOL    HW1 6663  12.049   6.786   6.175  0.8958  1.1767  0.1212
31646SOL    HW2 6664  11.969   6.867   6.275 -1.1793 -0.5635 -0.0609
31647SOL     OW 6665   0.319   1.970   0.677 -0.0556  0.0262  0.5187
31647SOL    HW1 6666   0.327   1.950   0.770  0.3365  2.1398  0.9947
31647SOL    HW2 6667   0.283   2.059   0.675 -0.7110 -0.2363 -1.3718
31648SOL     OW 6668  10.357   3.760   5.983 -0.3061 -0.0031 -0.0420
31648SOL    HW1 6669  10.264   3.765   6.005 -0.9943 -4.6935 -0.8204
31648SOL    HW2 6670  10.398   3.721   6.060  0.0007 -2.4375 -1.3273
31649SOL     OW 6671   4.195   6.693  11.081 -0.1512  0.4670 -0.0157
31649SOL    HW1 6672   4.108   6.668  11.051  0.2532  0.0604 -0.8577
31649SOL    HW2 6673   4.180   6.732  11.168 -1.3759  2.0156 -0.8737
31650SOL     OW 6674   2.779   6.857   0.357 -0.4182 -0.1378 -0.1720
31650SOL    HW1 6675   2.721   6.801   0.409 -0.9973  0.5265 -0.1005
31650SOL    HW2 6676   2.822   6.914   0.421 -0.5613  0.1643 -0.3452
31651SOL     OW 6677   2.580   5.659  11.564 -0.2515  0.3882 -0.2698
31651SOL    HW1 6678   2.622   5.593  11.508 -0.2532 -0.0832  0.2731
31651SOL    HW2 6679   2.486   5.641  11.554 -0.2631  0.4808 -0.3282
31652SOL     OW 6680   5.084   9.588   0.457  0.1456 -0.2606  0.2326
31652SOL    HW1 6681   5.119   9.508   0.495  0.4866  0.0825  0.6604
31652SOL    HW2 6682   5.158   9.625   0.408 -0.1501 -0.4510 -0.3633
31653SOL     OW 6683   9.617   4.067  12.088  0.3116 -0.5984  0.2197
31653SOL    HW1 6684   9.610   4.035  11.999 -0.4269  0.0565  0.0301
31653SOL    HW2 6685   9.573   4.001  12.142 -0.8885 -0.1121 -0.1250
31654SOL     OW 6686  12.569   3.583  12.296  0.1870 -0.6587 -0.2806
31654SOL    HW1 6687  12.478   3.585  12.265  0.0137 -0.4353  0.2196
31654SOL    HW2 6688  12.562   3.594  12.391  0.7981  0.6255 -0.3606
31655SOL     OW 6689   1.862  13.302   8.130  0.1469  0.2570 -0.3427
31655SOL    HW1 6690   1.844  13.208   8.130  0.1734  0.2452 -0.9267
31655SOL    HW2 6691   1.779  13.342   8.104 -0.2257  0.4840  1.1429
31656SOL     OW 6692  12.878   8.099  12.000  0.3140  0.1570  0.3480
31656SOL    HW1 6693  12.798   8.067  12.041  0.9048 -1.3290  0.3869
31656SOL    HW2 6694  12.917   8.022  11.959  1.4424  0.9640 -0.1551
31657SOL     OW 6695   7.309  11.446   3.100 -0.0597  0.8008 -0.2383
31657SOL    HW1 6696   7.338  11.464   3.010  1.3996  0.8456  0.2165
31657SOL    HW2 6697   7.389  11.450   3.152  0.0492 -3.9870  0.3935
31658SOL     OW 6698   1.326   4.458   2.715 -0.0814  0.1471  0.6634
31658SOL    HW1 6699   1.411   4.502   2.724 -0.3498  0.9888 -0.5777
31658SOL    HW2 6700   1.338   4.398   2.641 -0.6278  0.4489  0.3216
31659SOL     OW 6701   0.695   2.648   9.267 -0.0854  0.9281 -0.4054
31659SOL    HW1 6702   0.665   2.627   9.355  1.2543  1.7076  0.2663
31659SOL    HW2 6703   0.734   2.735   9.275 -0.1679  1.1217 -1.8289
31660SOL     OW 6704  11.806   7.858  11.164 -0.3427 -0.0600  0.4959
31660SOL    HW1 6705  11.826   7.903  11.246 -0.1322 -0.3358  0.5981
31660SOL    HW2 6706  11.829   7.921  11.096 -1.5555  0.5877  0.6585
31661SOL     OW 6707   9.288  12.150  12.382  0.2323 -0.2046 -0.4954
31661SOL    HW1 6708   9.261  12.199  12.305 -2.1373 -0.6687 -0.0472
31661SOL    HW2 6709   9.261  12.060  12.363  0.7812 -0.5557  0.3542
31662SOL     OW 6710   9.873   4.314   8.977  0.0376  0.0203 -0.4251
31662SOL    HW1 6711   9.904   4.224   8.992  0.2465  0.3220  1.1134
31662SOL    HW2 6712   9.877   4.325   8.882  1.9766 -0.9015 -0.4923
31663SOL     OW 6713   7.143   8.065   0.016  0.0673  0.1992 -0.1335
31663SOL    HW1 6714   7.233   8.041   0.039 -0.5338 -1.0900  0.9475
31663SOL    HW2 6715   7.136   8.158   0.039  0.7626  0.0024  0.8989
31664SOL     OW 6716   7.786   7.724   7.930 -0.6186 -0.4126  0.7182
31664SOL    HW1 6717   7.716   7.710   7.868 -0.9474 -0.5877  1.1246
31664SOL    HW2 6718   7.768   7.811   7.968 -0.9250 -0.6867  1.2119
31665SOL     OW 6719  13.117  12.251   4.909 -0.1590 -0.0520  0.1228
31665SOL    HW1 6720  13.198  12.292   4.939 -1.3818  2.1329  0.6784
31665SOL    HW2 6721  13.146  12.174   4.860  2.1195 -1.0006  2.6974
31666SOL     OW 6722   4.578   3.526  11.111  0.3740  0.2872  0.1908
31666SOL    HW1 6723   4.650   3.476  11.073  0.7332  1.2119 -0.3682
31666SOL    HW2 6724   4.594   3.616  11.085 -1.7701  0.3416 -1.2331
31667SOL     OW 6725   7.018  10.537   2.613  0.1916  0.8815  0.0594
31667SOL    HW1 6726   6.975  10.478   2.551 -1.0446  1.3233  0.4568
31667SOL    HW2 6727   7.109  10.542   2.583  0.3003 -1.0688 -0.0978
31668SOL     OW 6728   0.437   1.791   5.863  0.0696 -0.1968  0.8025
31668SOL    HW1 6729   0.363   1.839   5.898 -0.7217  0.0155 -1.0441
31668SOL    HW2 6730   0.413   1.699   5.872  0.1351 -0.1681  1.3136
31669SOL     OW 6731   3.941  12.118   8.718 -0.0723 -0.2228 -0.4784
31669SOL    HW1 6732   3.982  12.069   8.789 -1.4245 -1.4125 -0.4646
31669SOL    HW2 6733   3.890  12.186   8.761 -0.6872 -0.7839 -0.2981
31670SOL     OW 6734   8.693   3.445  11.192 -0.2275  0.2249 -0.3157
31670SOL    HW1 6735   8.726   3.503  11.260  2.1667 -0.8935 -0.4380
31670SOL    HW2 6736   8.731   3.359  11.212 -0.5099 -0.4209 -2.2949
31671SOL     OW 6737   1.311  11.121   5.589  0.0627 -0.2381 -0.3781
31671SOL    HW1 6738   1.403  11.113   5.614  0.3613 -1.1840 -1.6899
31671SOL    HW2 6739   1.292  11.215   5.596  0.1721 -0.3630  3.0211
31672SOL     OW 6740   9.093   5.033   5.944 -0.2207  0.2900 -0.3911
31672SOL    HW1 6741   9.065   5.124   5.955 -0.8932  0.0962 -0.4267
31672SOL    HW2 6742   9.112   5.025   5.851  0.8387  0.6570 -0.2256
31673SOL     OW 6743   4.135   3.968   1.281 -0.6924  0.5574  0.1184
31673SOL    HW1 6744   4.076   4.003   1.214 -2.9017 -0.9811  1.1341
31673SOL    HW2 6745   4.151   3.878   1.254 -0.7256  0.2585  1.0585
31674SOL     OW 6746   8.079   0.386   5.710 -0.0093  0.4200  0.0784
31674SOL    HW1 6747   8.012   0.353   5.770  0.9912  0.4144  1.2259
31674SOL    HW2 6748   8.157   0.396   5.764  1.7538 -2.1572 -1.7561
31675SOL     OW 6749   9.034  10.960   2.632  0.0729  0.0645  0.1104
31675SOL    HW1 6750   9.055  11.046   2.667 -2.0600  0.2354  1.0909
31675SOL    HW2 6751   9.093  10.900   2.677  1.3229  0.9348 -0.3167
31676SOL     OW 6752   0.617  12.203  11.522 -0.5109  0.3343  0.1011
31676SOL    HW1 6753   0.562  12.224  11.597  0.4375 -0.3683  1.0300
31676SOL    HW2 6754   0.635  12.109  11.531  0.4641  0.4589 -0.4098
31677SOL     OW 6755   0.627   8.994  10.062  0.5776  0.0793  0.6630
31677SOL    HW1 6756   0.600   8.911  10.022  0.6022 -0.0509  0.9154
31677SOL    HW2 6757   0.580   9.061  10.012 -0.2346 -0.1437  1.1180
31678SOL     OW 6758   9.099  11.101  13.251 -0.1007  0.2477 -0.1009
31678SOL    HW1 6759   9.182  11.056  13.267  0.6715  1.6185 -0.1535
31678SOL    HW2 6760   9.087  11.097  13.156  1.0497  1.9512 -0.3604
31679SOL     OW 6761  12.719  13.586   5.154 -0.1787 -0.0468  0.2219
31679SOL    HW1 6762  12.661  13.659   5.176 -0.0276 -0.1732  1.0717
31679SOL    HW2 6763  12.666  13.528   5.099 -0.7834 -0.0448  0.7966
31680SOL     OW 6764   7.892  13.435  12.594  0.0257 -0.9121 -0.0681
31680SOL    HW1 6765   7.909  13.358  12.539 -0.5131 -0.8478 -0.3367
31680SOL    HW2 6766   7.973  13.448  12.644  0.1728 -1.5651 -0.1295
31681SOL     OW 6767   8.190  12.793   4.488 -0.6520  0.2425 -0.3540
31681SOL    HW1 6768   8.136  12.854   4.438 -0.6632  1.5174  1.1181
31681SOL    HW2 6769   8.168  12.811   4.580  0.8330 -0.5739  0.2054
31682SOL     OW 6770   9.549   5.605   4.269  0.5804  0.6533 -0.2239
31682SOL    HW1 6771   9.609   5.543   4.311  0.6944 -0.0997 -1.4463
31682SOL    HW2 6772   9.606   5.668   4.226  0.4629  1.3391  0.5969
31683SOL     OW 6773   9.839   9.532  10.779  0.5768  0.4741  0.5670
31683SOL    HW1 6774   9.811   9.568  10.863 -1.6135  2.7192 -0.9950
31683SOL    HW2 6775   9.893   9.601  10.740  0.3459  0.0917 -0.4655
31684SOL     OW 6776  11.157   7.232   6.724  0.4724  0.4852  0.0627
31684SOL    HW1 6777  11.099   7.276   6.787  1.0269  0.7321  0.4154
31684SOL    HW2 6778  11.121   7.144   6.715 -0.0118  0.6670  0.2029
31685SOL     OW 6779   2.816   3.735   9.320 -0.0053  0.8432  0.2380
31685SOL    HW1 6780   2.775   3.745   9.406 -0.3969  0.3290  0.1128
31685SOL    HW2 6781   2.752   3.686   9.268  1.0594 -0.6598  0.2651
31686SOL     OW 6782   0.463  10.004   8.877 -0.2467 -0.5498 -0.6905
31686SOL    HW1 6783   0.492  10.064   8.946  0.5980 -1.1763 -0.4831
31686SOL    HW2 6784   0.443  10.061   8.803 -1.2239  0.1339  0.0802
31687SOL     OW 6785  10.516   2.642   2.002 -0.0076 -0.0333  0.3184
31687SOL    HW1 6786  10.595   2.589   1.997 -0.3624 -0.4795 -2.5215
31687SOL    HW2 6787  10.444   2.579   1.997 -0.4382  0.4938 -3.6225
31688SOL     OW 6788   8.465   7.774   8.381 -0.0526  0.6623 -0.3744
31688SOL    HW1 6789   8.507   7.722   8.313 -0.0282 -0.2252  0.3091
31688SOL    HW2 6790   8.537   7.804   8.437 -0.2917 -0.8333  0.7799
31689SOL     OW 6791   2.692  12.278   6.701 -0.3300 -0.3591  0.1510
31689SOL    HW1 6792   2.785  12.299   6.697  0.0206 -1.2268  2.3493
31689SOL    HW2 6793   2.686  12.206   6.764 -2.4060 -0.9207 -0.6011
31690SOL     OW 6794  12.864   7.871   8.503 -0.0119 -0.5013  0.2588
31690SOL    HW1 6795  12.811   7.819   8.564  0.4180  0.7371  1.7700
31690SOL    HW2 6796  12.952   7.833   8.509 -0.1817 -1.0218 -0.4009
31691SOL     OW 6797  11.362   3.917   3.397 -0.3700  0.2903  0.0918
31691SOL    HW1 6798  11.406   3.893   3.479 -0.7327 -1.3397 -0.1455
31691SOL    HW2 6799  11.271   3.894   3.412 -0.1909 -1.4909 -1.2587
31692SOL     OW 6800   8.616   6.527   5.266  0.5716  0.4491  0.2857
31692SOL    HW1 6801   8.680   6.464   5.299  0.8618  0.9107  0.6007
31692SOL    HW2 6802   8.607   6.592   5.336 -0.2693  0.3710  0.2650
31693SOL     OW 6803   8.304   5.414   6.843 -0.5424 -0.3381 -0.3150
31693SOL    HW1 6804   8.356   5.363   6.906 -0.7943  1.2612  1.2847
31693SOL    HW2 6805   8.347   5.400   6.759  1.1812 -0.7778  0.5924
31694SOL     OW 6806   7.307   1.322   2.678 -0.3568  0.4483 -0.8780
31694SOL    HW1 6807   7.308   1.259   2.750 -0.8115  0.7214 -0.6311
31694SOL    HW2 6808   7.243   1.287   2.616 -2.5745  1.9408  0.4312
31695SOL     OW 6809   9.533   5.833   6.142  0.1620 -0.3170  0.5450
31695SOL    HW1 6810   9.591   5.757   6.151  1.9982  1.1524  1.5604
31695SOL    HW2 6811   9.579   5.904   6.184 -2.3510  0.9814  1.2819
31696SOL     OW 6812  11.306  13.079  12.802  0.5712  0.1281  0.1790
31696SOL    HW1 6813  11.238  13.137  12.837  0.2158  0.2421 -0.6674
31696SOL    HW2 6814  11.373  13.076  12.870 -0.3344 -0.0760  1.0854
31697SOL     OW 6815  10.526   5.013   0.959  1.0311 -0.3608 -0.0484
31697SOL    HW1 6816  10.575   5.092   0.934  0.6368 -0.1973 -0.3062
31697SOL    HW2 6817  10.594   4.949   0.981  1.3499  0.1057  0.3425
31698SOL     OW 6818   8.916   9.213  13.414 -0.2225  0.0048  0.7371
31698SOL    HW1 6819   8.936   9.291  13.362  0.8797 -0.2782  0.7123
31698SOL    HW2 6820   8.960   9.142  13.368 -1.7691 -0.7608  0.3867
31699SOL     OW 6821  13.565   5.296   1.418  0.9229 -0.2298  0.1793
31699SOL    HW1 6822  13.659   5.296   1.403  1.0951 -1.1832  1.0763
31699SOL    HW2 6823  13.526   5.288   1.331  1.6882 -0.3431 -0.1605
31700SOL     OW 6824   8.539  11.267  10.356 -0.3061 -0.0281 -0.5131
31700SOL    HW1 6825   8.514  11.349  10.313  0.3831  0.3529 -0.2142
31700SOL    HW2 6826   8.635  11.268  10.355 -0.2791 -0.3409  0.4098
31701SOL     OW 6827   6.263   2.565   8.027  0.2859 -0.4137  0.3051
31701SOL    HW1 6828   6.221   2.530   7.948 -0.1665 -0.6149  0.6300
31701SOL    HW2 6829   6.193   2.566   8.092  0.1767  1.4624  0.2185
31702SOL     OW 6830   5.370  11.138   4.614 -0.4416 -0.2922  0.3035
31702SOL    HW1 6831   5.428  11.076   4.658  0.2150 -0.0689 -0.2225
31702SOL    HW2 6832   5.337  11.194   4.684  1.7901  1.0538  0.4039
31703SOL     OW 6833   8.307   5.476   8.987  0.7494 -0.0473 -0.2029
31703SOL    HW1 6834   8.268   5.503   8.903  3.7179  0.9459 -1.4123
31703SOL    HW2 6835   8.351   5.555   9.019  0.6184 -0.7194  1.7791
31704SOL     OW 6836   0.501   2.375   8.687 -0.3463  0.0164  0.0874
31704SOL    HW1 6837   0.567   2.341   8.747 -0.3261  1.2332  0.7732
31704SOL    HW2 6838   0.548   2.442   8.636 -0.7637  0.0783 -0.2161
31705SOL     OW 6839  10.411   8.101   4.103  0.4961 -0.2611 -0.3870
31705SOL    HW1 6840  10.324   8.102   4.062  0.6577  3.7760 -1.0439
31705SOL    HW2 6841  10.394   8.118   4.195  0.5523 -0.8899 -0.2558
31706SOL     OW 6842   6.464   5.923  12.198  0.6873 -0.1013  0.0766
31706SOL    HW1 6843   6.505   5.988  12.255 -0.6794 -0.3644  1.4434
31706SOL    HW2 6844   6.524   5.915  12.123  0.6617  3.0619 -0.4131
31707SOL     OW 6845  11.233   4.905   2.652 -0.9335  0.1733  0.0951
31707SOL    HW1 6846  11.165   4.867   2.597 -0.0434 -1.6679  0.1914
31707SOL    HW2 6847  11.222   4.862   2.737  1.1862 -1.2768 -0.2793
31708SOL     OW 6848   3.299   8.817  12.172 -0.5090  0.2737 -0.2613
31708SOL    HW1 6849   3.295   8.863  12.257  0.4921  1.5899 -0.8820
31708SOL    HW2 6850   3.392   8.808  12.155 -0.6615  1.4146 -1.9175
31709SOL     OW 6851   2.105   1.977   0.570  0.0884 -0.0585  0.2514
31709SOL    HW1 6852   2.025   1.973   0.517  0.7312 -0.9789 -0.6837
31709SOL    HW2 6853   2.154   1.899   0.546  1.5565  0.7969  0.3659
31710SOL     OW 6854   2.717   6.901   6.931  0.0378  0.4360 -0.4937
31710SOL    HW1 6855   2.739   6.830   6.992 -0.0918  1.1279  0.3804
31710SOL    HW2 6856   2.769   6.883   6.853  1.0542  0.1217  0.2308
31711SOL     OW 6857  10.272  10.373   2.021 -1.0845  0.3467  0.4897
31711SOL    HW1 6858  10.315  10.321   2.089 -3.3045  1.6201  3.0776
31711SOL    HW2 6859  10.293  10.328   1.939  0.3647 -2.2838  2.1649
31712SOL     OW 6860   9.352   8.211  10.674  0.3262 -0.1930 -0.6855
31712SOL    HW1 6861   9.389   8.156  10.743 -0.5588 -0.2561 -0.2369
31712SOL    HW2 6862   9.330   8.293  10.718 -1.5228 -0.7168 -0.5276
31713SOL     OW 6863   6.846  11.120  12.361  0.1457  0.4155  0.0203
31713SOL    HW1 6864   6.829  11.050  12.424  2.1104 -0.0481  0.1004
31713SOL    HW2 6865   6.872  11.195  12.415  0.2543  0.5064 -0.1555
31714SOL     OW 6866   8.929   4.278   7.538  0.1831  0.4951 -0.1328
31714SOL    HW1 6867   8.877   4.212   7.491  1.1696  0.0856 -0.6689
31714SOL    HW2 6868   8.938   4.350   7.475 -1.2590  1.3654  0.5986
31715SOL     OW 6869   7.632  10.118   6.003 -0.2243 -0.3836  0.0252
31715SOL    HW1 6870   7.720  10.147   6.027 -0.1198  2.3996 -3.0757
31715SOL    HW2 6871   7.573  10.173   6.054 -0.1977 -1.0584  0.8123
31716SOL     OW 6872   3.424  10.937   6.827  0.5821  0.4829 -0.3443
31716SOL    HW1 6873   3.364  10.972   6.893 -0.0687 -1.6774  0.3162
31716SOL    HW2 6874   3.368  10.915   6.753  0.5385 -1.2695  0.1619
31717SOL     OW 6875  13.284   3.427   6.253 -0.2355 -0.0242 -0.3630
31717SOL    HW1 6876  13.236   3.384   6.182  1.4181 -0.9213 -0.9865
31717SOL    HW2 6877  13.370   3.445   6.216  0.9621 -1.2700  1.6226
31718SOL     OW 6878   9.068   2.570   3.350  0.0298 -0.1366 -0.3432
31718SOL    HW1 6879   9.120   2.572   3.270 -0.0850  0.5675 -0.3989
31718SOL    HW2 6880   9.065   2.660   3.380 -0.1896 -0.3487  0.2898
31719SOL     OW 6881   6.820  10.264   4.801  0.1143  0.3613  0.1979
31719SOL    HW1 6882   6.853  10.243   4.714  1.0800  0.5002  0.5112
31719SOL    HW2 6883   6.894  10.308   4.845 -0.5392  0.7984  0.8928
31720SOL     OW 6884  10.641  12.494   5.921 -0.0777  0.5367  0.1622
31720SOL    HW1 6885  10.610  12.419   5.871  0.0078 -0.9908  2.2393
31720SOL    HW2 6886  10.565  12.521   5.974  0.9760 -0.9949  2.6751
31721SOL     OW 6887   9.611  12.769   0.596  0.0086  0.6298 -0.3197
31721SOL    HW1 6888   9.673  12.799   0.663 -0.0412 -0.2466  0.1374
31721SOL    HW2 6889   9.573  12.849   0.561 -0.4017  1.1049  1.1301
31722SOL     OW 6890  10.571   3.324  13.684 -0.3393  0.3456 -0.5947
31722SOL    HW1 6891  10.642   3.338  13.621  0.6334 -0.7207  0.2180
31722SOL    HW2 6892  10.577   3.399  13.743  1.2876 -0.6119  0.5142
31723SOL     OW 6893   9.843  11.949   3.086 -0.4852 -0.4203 -0.0191
31723SOL    HW1 6894   9.810  12.006   3.155 -0.7868 -1.0143  0.3318
31723SOL    HW2 6895   9.785  11.966   3.011 -0.5569 -0.2522  0.0753
31724SOL     OW 6896   1.785   9.924  10.277 -0.0023  0.4774 -0.6990
31724SOL    HW1 6897   1.800   9.857  10.211  0.9776 -1.2938  1.2174
31724SOL    HW2 6898   1.853   9.990  10.260  0.4320 -0.1022 -1.2630
31725SOL     OW 6899  10.901   2.680   5.638  0.6582 -0.3900  0.5734
31725SOL    HW1 6900  10.969   2.721   5.692  0.4621 -0.1936  0.6752
31725SOL    HW2 6901  10.949   2.623   5.578  0.8219 -1.6153  1.8012
31726SOL     OW 6902   4.338   8.483   1.243  0.1881  0.4852 -0.2452
31726SOL    HW1 6903   4.302   8.534   1.315 -0.6793  0.9443 -0.9742
31726SOL    HW2 6904   4.262   8.441   1.202  0.8905 -1.7478  0.5503
31727SOL     OW 6905  10.711   8.608   8.893  0.0631 -0.6176 -0.1271
31727SOL    HW1 6906  10.620   8.578   8.898 -0.5039  1.1768  2.0558
31727SOL    HW2 6907  10.764   8.530   8.907 -1.2766 -1.0863  2.9673
31728SOL     OW 6908   2.265  11.101  13.240  0.1279  0.0224 -0.2332
31728SOL    HW1 6909   2.283  11.052  13.160  0.9607  0.5795 -0.3968
31728SOL    HW2 6910   2.206  11.045  13.290 -0.8995 -0.0866 -1.4964
31729SOL     OW 6911   8.505   0.045   9.709 -0.4234  0.0493 -0.6094
31729SOL    HW1 6912   8.410   0.054   9.719 -0.4615  3.1589 -2.5724
31729SOL    HW2 6913   8.541   0.126   9.744  1.5338 -0.9548 -0.1511
31730SOL     OW 6914   1.928   5.246   9.280 -0.1770 -0.1542 -0.5888
31730SOL    HW1 6915   1.911   5.153   9.297 -0.6996 -0.1882 -1.2458
31730SOL    HW2 6916   2.023   5.250   9.268  0.3269 -0.0500  2.5834
31731SOL     OW 6917   9.632   6.443   0.977  0.3418 -0.0604  0.1484
31731SOL    HW1 6918   9.617   6.533   0.951  0.4901  0.1890  0.8828
31731SOL    HW2 6919   9.693   6.449   1.051  1.5484 -0.8517 -0.7398
31732SOL     OW 6920   1.887   5.147  12.002  0.0794  0.1742 -0.0347
31732SOL    HW1 6921   1.797   5.174  11.983  0.4814  0.9860 -0.8750
31732SOL    HW2 6922   1.929   5.144  11.917  0.3118 -2.3167  0.1125
31733SOL     OW 6923   0.927   3.274  10.838 -0.1695 -0.4786 -0.7772
31733SOL    HW1 6924   0.937   3.367  10.817 -0.0241 -0.5739 -1.1282
31733SOL    HW2 6925   0.838   3.267  10.873 -0.0943 -0.1655 -0.5152
31734SOL     OW 6926   6.180   9.171   9.940 -0.1900 -0.2714 -0.0505
31734SOL    HW1 6927   6.105   9.113   9.924  0.5369 -1.2772  0.0897
31734SOL    HW2 6928   6.225   9.132  10.014  0.4092  0.4004 -0.0529
31735SOL     OW 6929  13.166  13.135   5.399 -0.1483 -0.7925  0.4685
31735SOL    HW1 6930  13.115  13.126   5.480 -1.6393  0.4618 -0.2788
31735SOL    HW2 6931  13.131  13.068   5.341 -2.1227  1.0121 -0.5688
31736SOL     OW 6932   3.896  12.040  10.192 -0.2874  0.6274  0.0067
31736SOL    HW1 6933   3.897  11.967  10.129 -0.0223  1.1420 -0.5937
31736SOL    HW2 6934   3.816  12.026  10.243 -0.0108 -0.3352  0.2096
31737SOL     OW 6935   3.802   0.065   4.686  0.3695 -0.6562  0.0337
31737SOL    HW1 6936   3.804   0.027   4.773 -0.4140 -0.4406  0.1580
31737SOL    HW2 6937   3.893   0.088   4.667  0.6324 -1.2470  0.5434
31738SOL     OW 6938  11.807   0.310   3.891 -0.4669 -0.1797 -0.3244
31738SOL    HW1 6939  11.873   0.247   3.863 -2.5272 -1.6680 -2.2281
31738SOL    HW2 6940  11.786   0.360   3.813 -0.5535  1.2985  0.6075
31739SOL     OW 6941   0.266   0.199  11.221  0.3544 -0.3204  0.6216
31739SOL    HW1 6942   0.225   0.285  11.212  0.1961 -0.3004  1.4013
31739SOL    HW2 6943   0.193   0.137  11.227  0.4690 -0.5286 -0.0808
31740SOL     OW 6944   2.690   5.157  12.076 -0.2630 -0.3069  0.3432
31740SOL    HW1 6945   2.675   5.064  12.092  1.1993 -0.6416 -0.0414
31740SOL    HW2 6946   2.628   5.180  12.007 -2.2797 -0.3790  2.0406
31741SOL     OW 6947   4.730  12.482   7.497  0.4617  0.6476  0.2390
31741SOL    HW1 6948   4.812  12.450   7.537 -0.1273 -0.6417  0.4486
31741SOL    HW2 6949   4.692  12.539   7.564 -0.5713 -1.5839  1.6328
31742SOL     OW 6950   2.837   1.586   4.533  0.3533 -0.2492 -0.0455
31742SOL    HW1 6951   2.868   1.669   4.569  0.6410 -0.2935 -0.1912
31742SOL    HW2 6952   2.881   1.519   4.586  0.2708 -0.3097 -0.0538
31743SOL     OW 6953   1.935   7.134   8.072 -0.3923 -0.5338 -0.5249
31743SOL    HW1 6954   2.006   7.183   8.031 -0.3760 -0.5627 -0.5310
31743SOL    HW2 6955   1.855   7.168   8.030 -0.4660  0.1965  0.1748
31744SOL     OW 6956   4.381  11.779   3.344  0.0837 -0.7109 -0.2865
31744SOL    HW1 6957   4.343  11.795   3.257  0.5383  1.2404 -0.1673
31744SOL    HW2 6958   4.355  11.855   3.396  0.4732 -1.4841  1.0654
31745SOL     OW 6959   3.080   1.781  11.345 -0.5442 -0.5180  0.1179
31745SOL    HW1 6960   3.080   1.705  11.402 -0.7194 -1.8098 -1.5059
31745SOL    HW2 6961   2.991   1.815  11.350 -1.2543 -2.0238 -1.0611
31746SOL     OW 6962  12.796  11.415  11.821 -0.4888 -0.4239 -0.3701
31746SOL    HW1 6963  12.848  11.346  11.863 -2.0638 -1.2156  0.3271
31746SOL    HW2 6964  12.781  11.480  11.890  1.6643  1.1290 -1.2127
31747SOL     OW 6965   0.372  13.567   2.124 -0.2596  0.0578  0.0560
31747SOL    HW1 6966   0.401  13.658   2.128  0.3069 -0.1722  1.8613
31747SOL    HW2 6967   0.416  13.524   2.196 -1.3527 -1.4261 -0.1080
31748SOL     OW 6968   6.898  13.176   2.638 -0.8811  0.1706 -0.0297
31748SOL    HW1 6969   6.840  13.232   2.585 -2.1710 -0.8347  0.2554
31748SOL    HW2 6970   6.850  13.093   2.646 -0.1399 -0.1381  1.6226
31749SOL     OW 6971   9.605   6.262   6.159 -0.3637 -0.1110 -0.3314
31749SOL    HW1 6972   9.537   6.300   6.215  0.4719 -0.0920  0.6909
31749SOL    HW2 6973   9.632   6.182   6.204 -0.4438 -0.6764 -1.2701
31750SOL     OW 6974   4.021  13.354   6.907 -0.0680  0.2581 -0.1359
31750SOL    HW1 6975   3.944  13.299   6.925  0.5610 -1.5123 -2.3812
31750SOL    HW2 6976   4.081  13.336   6.979 -0.4264 -0.9889 -0.1282
31751SOL     OW 6977   2.492   3.497  10.880 -0.3037 -0.2372  0.0876
31751SOL    HW1 6978   2.509   3.545  10.799  0.2730 -0.0915  0.2904
31751SOL    HW2 6979   2.399   3.513  10.898 -0.3037  0.1666 -0.2586
31752SOL     OW 6980   6.198  13.189   7.799 -0.2235 -0.2717  0.1010
31752SOL    HW1 6981   6.121  13.170   7.853 -2.0697  1.3990 -1.7849
31752SOL    HW2 6982   6.224  13.104   7.765 -1.2792 -0.8672  0.7121
31753SOL     OW 6983   3.069   2.787   6.343  0.4058  0.6341 -0.0745
31753SOL    HW1 6984   2.974   2.778   6.343  0.4264 -0.0515 -2.2067
31753SOL    HW2 6985   3.096   2.754   6.429 -1.1022 -1.6477 -0.3901
31754SOL     OW 6986   0.442  12.707   1.055 -0.2209  0.7467 -0.2575
31754SOL    HW1 6987   0.522  12.700   1.003 -1.7121  0.1311 -2.6334
31754SOL    HW2 6988   0.408  12.794   1.035 -0.1835  0.9958  0.7184
31755SOL     OW 6989  13.276   7.828  10.197  0.3940 -0.2469 -0.4482
31755SOL    HW1 6990  13.304   7.917  10.175 -2.0227  1.3110  2.0221
31755SOL    HW2 6991  13.326   7.807  10.276 -0.2330 -0.3845 -0.0858
31756SOL     OW 6992   0.862   4.515   0.777 -0.5179  0.0486 -0.2146
31756SOL    HW1 6993   0.863   4.483   0.867  0.7391  1.9389  0.5156
31756SOL    HW2 6994   0.953   4.508   0.749 -0.6889  0.5797 -0.9236
31757SOL     OW 6995   3.355   4.919   5.118  0.0812  0.3472 -0.8367
31757SOL    HW1 6996   3.334   4.830   5.091 -1.0858  0.3163  0.0886
31757SOL    HW2 6997   3.421   4.948   5.055  1.2754 -1.5116 -0.5320
31758SOL     OW 6998   1.215   7.680   1.903 -0.3266 -0.1187 -0.0498
31758SOL    HW1 6999   1.167   7.614   1.953  0.3586 -1.7645 -1.4312
31758SOL    HW2 7000   1.152   7.709   1.837 -0.4212  0.0976  0.1371
31759SOL     OW 7001   9.882   5.955   5.722  0.2938 -0.3690 -0.1421
31759SOL    HW1 7002   9.856   6.031   5.774  2.3353  0.7155 -0.6260
31759SOL    HW2 7003   9.858   5.978   5.632  0.3088 -0.5913 -0.2034
31760SOL     OW 7004   3.949  10.325  10.583  0.3489  0.0338 -0.9063
31760SOL    HW1 7005   3.889  10.324  10.508  0.0502 -0.9841 -0.6741
31760SOL    HW2 7006   4.003  10.247  10.572  0.3834 -0.0623 -0.1322
31761SOL     OW 7007   6.501   3.112   0.806 -0.0612  0.0971  0.4689
31761SOL    HW1 7008   6.523   3.096   0.714 -0.7114  0.4684  0.2383
31761SOL    HW2 7009   6.422   3.061   0.820 -0.9152  1.3279  0.3362
31762SOL     OW 7010   2.895  12.059   9.567 -0.2257  0.0583 -0.1257
31762SOL    HW1 7011   2.838  12.103   9.630  0.5906 -0.3852  0.9445
31762SOL    HW2 7012   2.883  11.966   9.584  0.8359 -0.0449  0.1568
31763SOL     OW 7013   2.849   4.857   5.554  0.1198  0.2108  0.0620
31763SOL    HW1 7014   2.824   4.941   5.514  1.8164  0.5947 -0.2535
31763SOL    HW2 7015   2.812   4.791   5.496 -1.4228  0.7069  0.4268
31764SOL     OW 7016  12.814  12.478   1.816 -0.2995  0.0349  0.3488
31764SOL    HW1 7017  12.811  12.383   1.829  0.6697 -0.0938 -0.2726
31764SOL    HW2 7018  12.765  12.493   1.736  0.6802 -0.1041 -0.2897
31765SOL     OW 7019  12.935  12.960   0.320 -0.2009 -0.0734  0.0968
31765SOL    HW1 7020  12.980  12.892   0.268 -0.7416  0.1391 -0.6621
31765SOL    HW2 7021  12.849  12.922   0.339  0.5392 -0.8340  2.2792
31766SOL     OW 7022   1.020   9.955   6.344  0.0862 -0.0902 -0.0516
31766SOL    HW1 7023   1.066   9.974   6.425 -0.6850 -0.2599  0.4418
31766SOL    HW2 7024   1.016   9.859   6.340 -1.8333 -0.0992  0.8885
31767SOL     OW 7025  11.906   6.612   3.610 -0.4520 -0.2848  0.0545
31767SOL    HW1 7026  11.933   6.534   3.561  0.7123 -0.2687  0.6571
31767SOL    HW2 7027  11.959   6.611   3.689  0.4558  1.7494 -0.4548
31768SOL     OW 7028   7.917  10.429   0.524  0.2002 -0.1045 -0.8842
31768SOL    HW1 7029   7.841  10.473   0.486  0.2683  0.4295 -0.4052
31768SOL    HW2 7030   7.983  10.497   0.532  0.6143 -0.4909 -0.9674
31769SOL     OW 7031  11.980   7.014  12.273 -0.4347  0.0869 -0.2869
31769SOL    HW1 7032  11.939   7.047  12.194  0.1517  0.0269 -0.6206
31769SOL    HW2 7033  11.961   6.920  12.273 -1.5998  0.3018  0.3597
31770SOL     OW 7034   3.837   5.721   0.144  0.1849  0.1603 -0.2905
31770SOL    HW1 7035   3.744   5.699   0.135 -0.1914  1.6374 -0.2956
31770SOL    HW2 7036   3.875   5.647   0.191 -1.1022 -0.2329  0.1666
31771SOL     OW 7037  13.237   9.736  12.903 -0.5524 -0.0709  0.5339
31771SOL    HW1 7038  13.286   9.674  12.958 -1.1400 -1.8441 -0.8272
31771SOL    HW2 7039  13.292   9.749  12.826 -0.4125  1.1803  0.8358
31772SOL     OW 7040   3.428   0.567   6.676 -0.1930  0.2567  0.2028
31772SOL    HW1 7041   3.478   0.629   6.623  0.1214 -0.4561 -0.3400
31772SOL    HW2 7042   3.450   0.481   6.640 -2.7658 -0.0240 -0.8942
31773SOL     OW 7043   0.509   8.023   3.553  0.8935  0.1524 -0.6417
31773SOL    HW1 7044   0.569   7.954   3.581 -0.2810 -0.6765 -0.0507
31773SOL    HW2 7045   0.473   8.058   3.635  0.1759  0.2502 -0.9848
31774SOL     OW 7046   7.290  13.662  10.761  0.5174 -0.1567  0.3202
31774SOL    HW1 7047   7.251  13.708  10.836  0.2780  2.8895 -1.5267
31774SOL    HW2 7048   7.383  13.656  10.782  0.3462 -0.0189  1.1703
31775SOL     OW 7049  10.851   5.397   4.024  0.5502  0.5092  0.1329
31775SOL    HW1 7050  10.928   5.419   4.077  0.1896  2.2443  0.0139
31775SOL    HW2 7051  10.885   5.392   3.934  0.8924 -0.9703  0.3112
31776SOL     OW 7052   8.250   1.916   9.335  0.6372 -0.0303 -0.3607
31776SOL    HW1 7053   8.183   1.924   9.404  1.8104  0.7530  0.7502
31776SOL    HW2 7054   8.285   2.005   9.326  3.0885 -0.7914  0.7638
31777SOL     OW 7055   7.058  12.702   7.055  0.1002  0.2216  0.2492
31777SOL    HW1 7056   7.073  12.735   7.143  0.3897 -0.4136  0.4452
31777SOL    HW2 7057   7.008  12.771   7.011 -1.5586 -0.1725  1.4365
31778SOL     OW 7058   8.574   7.894   8.866 -0.4015  0.2419 -0.1602
31778SOL    HW1 7059   8.601   7.870   8.777 -2.4381 -1.0994 -0.4691
31778SOL    HW2 7060   8.647   7.948   8.899  1.0577 -0.4275 -2.0899
31779SOL     OW 7061   0.684   0.986   5.330 -0.0982  0.2640 -0.1349
31779SOL    HW1 7062   0.674   0.923   5.402  0.2495  0.2429 -0.1032
31779SOL    HW2 7063   0.743   0.943   5.268  0.8199  0.8806  0.2773
31780SOL     OW 7064   0.247  10.605   7.396  0.2313  0.6416 -0.2546
31780SOL    HW1 7065   0.199  10.561   7.325 -0.6299  0.1121  0.6336
31780SOL    HW2 7066   0.286  10.533   7.446  0.2371  0.9781  0.2231
31781SOL     OW 7067   6.339   9.740  12.902 -0.6399  0.1338 -0.3075
31781SOL    HW1 7068   6.360   9.824  12.942 -2.0908  0.8890 -1.0337
31781SOL    HW2 7069   6.290   9.693  12.970 -0.4667  0.1756 -0.1526
31782SOL     OW 7070   4.647   0.383   1.037  0.0866  0.2510  0.0395
31782SOL    HW1 7071   4.712   0.346   1.097  1.2850  1.0372 -0.7274
31782SOL    HW2 7072   4.644   0.476   1.059 -1.4844  0.0838  0.6748
31783SOL     OW 7073   1.068  12.181  13.053 -0.3359 -0.5463 -0.3325
31783SOL    HW1 7074   1.114  12.254  13.094 -0.8905 -0.1509 -0.4015
31783SOL    HW2 7075   0.981  12.181  13.094 -1.3769  0.6666 -2.3775
31784SOL     OW 7076   2.897  10.503   2.549 -0.5339 -0.1436 -0.4572
31784SOL    HW1 7077   2.921  10.589   2.583 -0.2467 -0.9901  1.6493
31784SOL    HW2 7078   2.860  10.521   2.463  0.5086  1.9662 -0.5382
31785SOL     OW 7079   4.546  13.168  10.838  0.2049 -0.5740  0.2391
31785SOL    HW1 7080   4.607  13.241  10.850  0.2267 -0.6373  0.5205
31785SOL    HW2 7081   4.463  13.210  10.815 -0.1257 -0.3722  1.6839
31786SOL     OW 7082  12.694   7.229   2.885  0.1997 -0.3283  0.2626
31786SOL    HW1 7083  12.676   7.259   2.796 -0.4018  0.6181  0.6833
31786SOL    HW2 7084  12.780   7.265   2.905 -0.5272  1.1883  0.7710
31787SOL     OW 7085   5.102   3.429   3.510 -0.2950 -0.6415  0.1779
31787SOL    HW1 7086   5.128   3.437   3.419 -1.8936 -1.6420 -0.4025
31787SOL    HW2 7087   5.166   3.482   3.558  1.0473 -0.7386 -1.4173
31788SOL     OW 7088  13.642   7.066   4.505 -0.2514  0.6584 -0.2242
31788SOL    HW1 7089  13.665   7.116   4.583 -0.7987 -0.1580  0.4749
31788SOL    HW2 7090  13.625   6.977   4.537 -0.2887  0.2593 -1.2971
31789SOL     OW 7091   7.961   1.894  13.097 -0.4096 -0.0142 -0.4179
31789SOL    HW1 7092   7.895   1.854  13.155 -1.6323 -0.4573 -2.0441
31789SOL    HW2 7093   8.002   1.819  13.054 -0.8918  0.3535 -1.5504
31790SOL     OW 7094   3.285  11.977   2.554  0.0346  0.0946  0.2950
31790SOL    HW1 7095   3.333  12.001   2.633 -0.6200  0.7782  0.5037
31790SOL    HW2 7096   3.316  11.890   2.532 -0.1936 -0.3526  1.6424
31791SOL     OW 7097  11.260  13.721   7.071 -0.0411  0.6469  0.4533
31791SOL    HW1 7098  11.307  13.638   7.061 -0.5305  0.3508  0.5738
31791SOL    HW2 7099  11.193  13.719   7.003  0.6461  1.4473 -0.2747
31792SOL     OW 7100   3.503   1.965   9.587  0.6697  0.4242 -0.1741
31792SOL    HW1 7101   3.423   1.972   9.534 -0.2915 -0.8133  1.0614
31792SOL    HW2 7102   3.518   2.054   9.619 -1.5505  0.3043  1.4186
31793SOL     OW 7103   2.094   1.968   1.164 -0.0319 -0.0648 -0.5956
31793SOL    HW1 7104   2.121   1.959   1.073  1.4094 -1.8062 -0.0604
31793SOL    HW2 7105   2.173   1.947   1.215 -1.2851 -1.1457  1.0455
31794SOL     OW 7106   7.523   4.054   8.289  0.1369  0.8160 -0.0485
31794SOL    HW1 7107   7.572   4.115   8.234  1.6813 -1.8377 -1.8245
31794SOL    HW2 7108   7.447   4.030   8.235 -0.8433  1.6139  0.9250
31795SOL     OW 7109   4.754   2.823  10.452 -0.2604  0.0070 -0.1269
31795SOL    HW1 7110   4.715   2.899  10.495 -0.7860  0.3555 -1.1966
31795SOL    HW2 7111   4.753   2.844  10.359  2.0946 -0.1562 -0.2617
31796SOL     OW 7112  11.456   3.109  11.296 -0.4776 -0.4633  0.3380
31796SOL    HW1 7113  11.529   3.166  11.270 -1.6045  0.5581 -0.7643
31796SOL    HW2 7114  11.441   3.130  11.388 -1.9061  2.3991 -0.4017
31797SOL     OW 7115   1.007  12.648   0.932 -0.3708 -0.0490 -0.2551
31797SOL    HW1 7116   1.016  12.595   0.852 -1.5279  0.1706 -0.5601
31797SOL    HW2 7117   1.010  12.738   0.900  1.8976  0.1153  0.2977
31798SOL     OW 7118  11.868   3.587   2.878 -0.4325 -0.2578 -0.4540
31798SOL    HW1 7119  11.828   3.625   2.956  2.1823 -0.7018  1.2433
31798SOL    HW2 7120  11.795   3.549   2.830 -2.2716  0.8540  1.2830
31799SOL     OW 7121   0.785   0.801  11.189  0.1725 -0.3047  0.1566
31799SOL    HW1 7122   0.814   0.839  11.106 -3.1967 -2.7435 -2.4157
31799SOL    HW2 7123   0.859   0.748  11.219  1.6810  1.1100 -0.9092
31800SOL     OW 7124   5.956   1.599   0.726  0.8750 -0.4809  0.0486
31800SOL    HW1 7125   6.008   1.676   0.704 -1.0160  1.5693  2.1329
31800SOL    HW2 7126   6.005   1.556   0.796  0.2203  1.0266  1.4950
31801SOL     OW 7127   9.758   9.905   7.157  0.0772 -0.3024 -0.1536
31801SOL    HW1 7128   9.851   9.903   7.182  0.3568 -0.8495 -1.1606
31801SOL    HW2 7129   9.745   9.823   7.110 -1.2234 -0.7661  0.9760
31802SOL     OW 7130   1.235   5.619   1.018  0.1726  0.4403  0.7244
31802SOL    HW1 7131   1.223   5.574   1.102 -0.8010 -0.3018  0.2147
31802SOL    HW2 7132   1.146   5.639   0.989  0.4394 -0.0373 -0.5025
31803SOL     OW 7133  11.006   9.097   4.689 -0.5222  0.3664  0.2002
31803SOL    HW1 7134  10.938   9.151   4.729  0.4961  1.8843 -0.0594
31803SOL    HW2 7135  10.970   9.008   4.692 -3.1658  1.2759 -1.2863
31804SOL     OW 7136   3.875   9.621  13.323  0.5325 -0.1599 -0.2752
31804SOL    HW1 7137   3.882   9.693  13.386  2.3638 -0.2240 -0.3540
31804SOL    HW2 7138   3.826   9.553  13.369 -0.0929  0.6508  0.2674
31805SOL     OW 7139   4.240   4.108  12.703  0.5070  0.2469  0.2031
31805SOL    HW1 7140   4.215   4.022  12.667 -0.1572  1.1616 -1.6419
31805SOL    HW2 7141   4.333   4.100  12.723  0.1568 -1.3365  1.4510
31806SOL     OW 7142  11.334   9.179  12.033 -0.2017 -0.7434 -0.4301
31806SOL    HW1 7143  11.355   9.139  11.948  2.4307 -0.6879  0.0974
31806SOL    HW2 7144  11.358   9.271  12.022 -1.6050 -0.3309 -0.1600
31807SOL     OW 7145   3.247   2.609  12.805 -0.0834  0.2660  0.5373
31807SOL    HW1 7146   3.257   2.687  12.750  0.4765  0.1730  0.5074
31807SOL    HW2 7147   3.180   2.557  12.760  0.8756 -0.1438 -0.4531
31808SOL     OW 7148   8.324   8.542   1.723 -0.1652  0.4958 -0.4949
31808SOL    HW1 7149   8.371   8.609   1.672  0.7774 -0.7284 -1.3088
31808SOL    HW2 7150   8.393   8.496   1.771 -0.8140  0.1749  0.1508
31809SOL     OW 7151   4.324  10.391   1.985 -0.1623 -0.3124 -0.0129
31809SOL    HW1 7152   4.389  10.450   2.023  1.3188 -0.7323 -1.7776
31809SOL    HW2 7153   4.327  10.313   2.041  1.8862 -0.8738 -0.8357
31810SOL     OW 7154   9.115  10.465   7.993  0.3976 -0.2674 -0.3631
31810SOL    HW1 7155   9.188  10.424   7.947 -0.3973 -2.3133  0.0926
31810SOL    HW2 7156   9.038  10.442   7.941 -0.2878 -1.0031  0.9334
31811SOL     OW 7157   3.598   2.102   4.082 -0.3422 -0.2179  0.0818
31811SOL    HW1 7158   3.612   2.135   3.993  0.0952  0.7212  0.4924
31811SOL    HW2 7159   3.662   2.031   4.091  1.7126  1.5777  0.6233
31812SOL     OW 7160   7.021   8.772   9.078  0.0285  0.2816  0.2261
31812SOL    HW1 7161   7.073   8.772   9.158  2.0192  1.3851 -0.9804
31812SOL    HW2 7162   7.084   8.791   9.008 -1.8221  0.5746 -1.4656
31813SOL     OW 7163  10.316  12.329   2.459 -0.1030  0.4615 -0.3082
31813SOL    HW1 7164  10.263  12.359   2.385 -0.8751 -0.4926 -0.1612
31813SOL    HW2 7165  10.377  12.266   2.420  0.8472  1.4339 -0.4485
31814SOL     OW 7166   6.857   0.845   1.040 -0.1041 -0.0322  0.2587
31814SOL    HW1 7167   6.943   0.813   1.014 -0.8658 -0.4926 -1.9944
31814SOL    HW2 7168   6.801   0.767   1.039 -1.1252  0.6495 -1.2904
31815SOL     OW 7169   3.911  12.063   5.708 -0.2034  0.8547 -0.0977
31815SOL    HW1 7170   3.834  12.119   5.695 -0.2640  0.6901 -0.4599
31815SOL    HW2 7171   3.984  12.113   5.670 -0.3594  0.4296 -0.9926
31816SOL     OW 7172   0.298  13.731   2.661 -0.1279  0.3959 -0.2847
31816SOL    HW1 7173   0.209  13.715   2.694 -0.4628 -1.2852 -1.8183
31816SOL    HW2 7174   0.302  13.825   2.647 -2.4639  0.3041 -2.1730
31817SOL     OW 7175  13.431   9.386   9.358  0.2348 -0.8386  0.4733
31817SOL    HW1 7176  13.475   9.456   9.406 -0.3462 -0.8983  1.1064
31817SOL    HW2 7177  13.365   9.429   9.305 -0.4887 -0.9289  1.2677
31818SOL     OW 7178   5.395   0.290   9.327 -0.1715 -0.7192  0.4538
31818SOL    HW1 7179   5.413   0.207   9.283  0.7671 -1.2391  1.7195
31818SOL    HW2 7180   5.434   0.279   9.414 -0.8611  0.7088  0.9745
31819SOL     OW 7181   0.941   2.412  12.238 -0.1385  0.1365 -0.2569
31819SOL    HW1 7182   0.943   2.381  12.147  1.8201 -1.0175  0.1245
31819SOL    HW2 7183   0.983   2.498  12.236 -1.2780  0.6996 -0.6132
31820SOL     OW 7184  11.426   3.477   5.695  0.1047  0.2485 -0.0976
31820SOL    HW1 7185  11.511   3.518   5.707  0.5308 -0.3839 -0.8449
31820SOL    HW2 7186  11.413   3.476   5.600 -0.7360  0.3290  0.0039
31821SOL     OW 7187   9.796   7.604   7.783  0.0588  0.5627 -0.2226
31821SOL    HW1 7188   9.764   7.550   7.856  0.9808  0.0417 -0.1913
31821SOL    HW2 7189   9.861   7.549   7.740 -0.2471  0.9953 -1.2499
31822SOL     OW 7190   1.997   7.452   1.145  0.1303 -0.7962  0.6753
31822SOL    HW1 7191   2.049   7.424   1.069  2.2550  2.7719  0.5666
31822SOL    HW2 7192   1.915   7.483   1.108  1.7216  2.3472 -0.5987
31823SOL     OW 7193   1.579  12.803   7.190  0.3574 -0.2763  0.0132
31823SOL    HW1 7194   1.670  12.779   7.172  0.4336  0.0662 -0.0801
31823SOL    HW2 7195   1.570  12.890   7.151 -0.2982 -0.7230 -0.8830
31824SOL     OW 7196   6.233   3.910  13.710 -0.2880 -0.0715  0.0188
31824SOL    HW1 7197   6.212   3.959  13.790  0.0887  0.9681 -0.4870
31824SOL    HW2 7198   6.152   3.910  13.659 -0.8393 -1.6855  0.8574
31825SOL     OW 7199   0.578   1.422   7.836 -0.0984  0.3421 -0.3375
31825SOL    HW1 7200   0.565   1.504   7.789 -1.5493  0.1423 -0.3126
31825SOL    HW2 7201   0.601   1.448   7.925  1.2527  0.7085 -0.7643
31826SOL     OW 7202   8.483  12.893  12.775  0.2582  0.7669  0.0820
31826SOL    HW1 7203   8.469  12.842  12.695  1.9583  1.4185 -0.6674
31826SOL    HW2 7204   8.540  12.837  12.828 -0.6718  0.4414  0.7726
31827SOL     OW 7205   7.444  12.797   0.930 -0.3625  0.5327  0.1552
31827SOL    HW1 7206   7.512  12.732   0.915 -0.0743  1.1027 -1.0963
31827SOL    HW2 7207   7.363  12.746   0.940 -0.1798 -0.0142 -1.0495
31828SOL     OW 7208   4.225  13.426   9.346 -0.0253  0.2720 -0.0666
31828SOL    HW1 7209   4.157  13.359   9.357 -0.3516  0.2757 -1.7908
31828SOL    HW2 7210   4.302  13.378   9.316 -0.3327  0.6485 -1.5509
31829SOL     OW 7211   1.905   4.372   0.589  0.2813  0.1541 -0.1214
31829SOL    HW1 7212   1.989   4.380   0.542  1.0312 -0.4981  1.0722
31829SOL    HW2 7213   1.854   4.310   0.536  0.4496  0.7279 -0.9810
31830SOL     OW 7214  13.013   0.523   9.687 -0.2665 -0.9122  0.3924
31830SOL    HW1 7215  13.011   0.507   9.782  1.5103  0.6468  0.7405
31830SOL    HW2 7216  12.938   0.581   9.672 -0.0766 -0.5053  0.9845
31831SOL     OW 7217   9.766   1.557   4.373  0.3510 -0.0076 -0.3571
31831SOL    HW1 7218   9.739   1.594   4.289 -0.8593  0.4701  0.2157
31831SOL    HW2 7219   9.774   1.633   4.431  1.3412 -0.3150 -0.0670
31832SOL     OW 7220   7.920   9.363  11.530  0.1053 -0.2887 -0.9412
31832SOL    HW1 7221   7.836   9.324  11.507  0.7776 -1.7618 -0.9768
31832SOL    HW2 7222   7.980   9.289  11.536  0.7852  0.3725  1.9992
31833SOL     OW 7223  13.523  11.589   8.298 -0.1478 -0.6360  0.2511
31833SOL    HW1 7224  13.614  11.605   8.272 -0.5495 -1.9226 -2.2981
31833SOL    HW2 7225  13.485  11.676   8.310  1.5583 -0.0694  2.2012
31834SOL     OW 7226   3.144   4.251   0.372  0.0045 -0.8543  0.1249
31834SOL    HW1 7227   3.075   4.314   0.395  1.3208  0.8418 -0.3262
31834SOL    HW2 7228   3.174   4.217   0.456 -0.5201 -0.6623  0.3983
31835SOL     OW 7229   1.150   4.127   5.945 -0.2308  0.1031 -0.5108
31835SOL    HW1 7230   1.165   4.037   5.973 -0.6310  0.5515  1.2794
31835SOL    HW2 7231   1.238   4.162   5.928  0.0063 -0.3265 -0.1935
31836SOL     OW 7232  11.234  12.666  12.951  0.2014  0.3193 -0.2353
31836SOL    HW1 7233  11.230  12.713  13.035  0.4572 -0.1222  0.0313
31836SOL    HW2 7234  11.260  12.577  12.975 -0.8416 -0.1176 -0.6767
31837SOL     OW 7235   5.124  11.330   3.664 -0.0919  0.3048  0.1666
31837SOL    HW1 7236   5.137  11.415   3.705  0.2684 -0.2138  1.1625
31837SOL    HW2 7237   5.030  11.325   3.647 -0.2920  0.4353  1.1775
31838SOL     OW 7238   7.221   1.833   9.894 -0.5761  0.4083 -0.0422
31838SOL    HW1 7239   7.298   1.817   9.838 -1.5540 -0.5673 -1.1756
31838SOL    HW2 7240   7.146   1.817   9.836 -1.6495  1.8759  0.8868
31839SOL     OW 7241   9.851  10.862  12.593  0.6113 -0.1356  0.1888
31839SOL    HW1 7242   9.791  10.840  12.521  0.2614  0.0861  0.4085
31839SOL    HW2 7243   9.835  10.955  12.609  0.4523 -0.2572  0.7667
31840SOL     OW 7244   0.241   2.230   0.621 -0.3214  0.3857 -0.4493
31840SOL    HW1 7245   0.273   2.234   0.531 -2.0925 -0.2767 -1.1555
31840SOL    HW2 7246   0.156   2.274   0.618  0.1167  1.4110  1.1745
31841SOL     OW 7247   3.363   2.738   1.780 -0.5931  0.3671  0.3455
31841SOL    HW1 7248   3.323   2.682   1.847  0.5515 -0.8970  0.0179
31841SOL    HW2 7249   3.457   2.717   1.784 -0.4499  0.5098 -1.4264
31842SOL     OW 7250  11.773   6.549  12.755 -0.0942  0.1910 -0.3887
31842SOL    HW1 7251  11.734   6.578  12.838 -0.7390 -1.0193 -0.2556
31842SOL    HW2 7252  11.700   6.516  12.704  0.3458  0.6712 -1.3511
31843SOL     OW 7253  10.862   9.106   8.960  0.0174 -0.2275 -0.2009
31843SOL    HW1 7254  10.840   9.197   8.980  1.0517  0.1785 -0.8509
31843SOL    HW2 7255  10.794   9.055   9.004  1.1936  0.6669  2.8480
31844SOL     OW 7256   8.292   3.621   4.715 -0.4638 -0.2791  0.0443
31844SOL    HW1 7257   8.299   3.664   4.800 -0.1281 -1.6375  0.7305
31844SOL    HW2 7258   8.202   3.587   4.713 -1.2103  1.5726 -1.0908
31845SOL     OW 7259   2.022   2.179   9.542 -0.9893 -0.9830  0.0506
31845SOL    HW1 7260   2.025   2.262   9.493  0.4716 -1.5129 -0.8488
31845SOL    HW2 7261   2.083   2.193   9.615  0.9109 -1.8985 -1.2742
31846SOL     OW 7262   5.308   9.436   9.284 -0.6547 -0.0998  0.2003
31846SOL    HW1 7263   5.240   9.502   9.274  0.8009  1.4432  0.0327
31846SOL    HW2 7264   5.320   9.401   9.196 -1.1433 -0.3107  0.2121
31847SOL     OW 7265   7.620   5.118   7.765  0.6498  0.1599 -0.1677
31847SOL    HW1 7266   7.677   5.177   7.814 -0.2513 -0.5229  1.7792
31847SOL    HW2 7267   7.611   5.041   7.821 -1.3817 -0.1610 -0.8571
31848SOL     OW 7268  11.642   6.932  12.663 -0.1710 -0.0449  0.2003
31848SOL    HW1 7269  11.687   6.970  12.739 -0.9890  0.0766  0.6436
31848SOL    HW2 7270  11.562   6.894  12.700 -0.4262 -0.2613 -0.5613
31849SOL     OW 7271  12.675   3.895   3.528  0.3059 -0.5788  0.3763
31849SOL    HW1 7272  12.702   3.982   3.500  3.9676 -1.4405  0.6802
31849SOL    HW2 7273  12.678   3.898   3.624  1.0629 -1.1316  0.3859
31850SOL     OW 7274  10.747   0.251   4.280  0.2827 -0.0032  0.0893
31850SOL    HW1 7275  10.751   0.219   4.370 -1.5084 -1.8302 -0.4168
31850SOL    HW2 7276  10.672   0.310   4.279  1.4083  1.4993  0.1666
31851SOL     OW 7277   3.363   1.881   2.999  0.4553 -0.6909 -0.2140
31851SOL    HW1 7278   3.382   1.821   3.071  0.0686 -0.5608 -0.0024
31851SOL    HW2 7279   3.278   1.853   2.965  1.8926 -2.6328 -2.5565
31852SOL     OW 7280   4.377  12.876   6.286  0.2519  0.3318  0.2854
31852SOL    HW1 7281   4.450  12.927   6.250  2.0853 -1.4924  1.2094
31852SOL    HW2 7282   4.418  12.814   6.345 -2.1413 -0.4748  1.2251
31853SOL     OW 7283   1.830   7.695  10.485 -0.2071  0.0570 -0.4206
31853SOL    HW1 7284   1.923   7.699  10.508 -0.5803  1.4926  1.0068
31853SOL    HW2 7285   1.824   7.742  10.401  0.2194  0.8099 -0.0371
31854SOL     OW 7286   3.325  13.599  12.649  0.0379  0.2630 -0.0563
31854SOL    HW1 7287   3.277  13.681  12.639 -0.0448  0.4885  1.8123
31854SOL    HW2 7288   3.322  13.559  12.562 -2.6724  0.7263 -0.2721
31855SOL     OW 7289   9.611   8.026   8.626  0.1705  0.8249  0.3659
31855SOL    HW1 7290   9.521   7.992   8.629  0.7144 -0.6389  1.1217
31855SOL    HW2 7291   9.631   8.034   8.533  0.0831 -1.2161  0.1274
31856SOL     OW 7292   9.823   2.859   9.249 -0.4513  0.6045  0.0950
31856SOL    HW1 7293   9.865   2.848   9.164 -0.8485 -1.6560  0.1259
31856SOL    HW2 7294   9.886   2.825   9.312 -1.4357 -0.8410  0.3434
31857SOL     OW 7295  12.517   0.547   9.705 -0.0020 -0.2695 -0.3212
31857SOL    HW1 7296  12.507   0.555   9.610 -2.9900  0.9232 -0.0104
31857SOL    HW2 7297  12.434   0.510   9.735  1.1351 -1.2970  1.8183
31858SOL     OW 7298  11.433   5.511   8.973 -0.0128  0.0763  0.2232
31858SOL    HW1 7299  11.362   5.573   8.996 -0.7162 -0.4321 -0.5345
31858SOL    HW2 7300  11.447   5.461   9.053 -1.4618 -0.7208  0.0127
31859SOL     OW 7301   9.413   4.631   5.668 -0.7827  0.2316  0.3526
31859SOL    HW1 7302   9.508   4.643   5.672 -0.8308  0.6135  0.4538
31859SOL    HW2 7303   9.392   4.632   5.575 -0.5380 -1.1518  0.2635
31860SOL     OW 7304  10.075   4.253  11.671  0.7068 -0.8849  0.7599
31860SOL    HW1 7305  10.070   4.197  11.594 -0.0227 -1.5232  1.2711
31860SOL    HW2 7306  10.004   4.316  11.660  2.8156  1.4431 -0.9311
31861SOL     OW 7307  11.784   6.809  10.089  0.6426  0.0444  0.3708
31861SOL    HW1 7308  11.692   6.802  10.115  0.9533 -3.4934  1.1228
31861SOL    HW2 7309  11.818   6.881  10.141 -1.7676  1.8650 -0.3842
31862SOL     OW 7310   9.488   7.731  13.479 -0.4032  0.2035 -0.2007
31862SOL    HW1 7311   9.538   7.780  13.544 -0.3752 -0.2500  0.1277
31862SOL    HW2 7312   9.554   7.691  13.423 -0.3327 -1.1866  0.8116
31863SOL     OW 7313   4.042   2.570  11.230  0.4887  0.2067  0.2855
31863SOL    HW1 7314   4.102   2.503  11.198  0.7072  1.0027 -1.0360
31863SOL    HW2 7315   4.090   2.652  11.222 -0.7744  0.8779 -0.8995
31864SOL     OW 7316  10.635   6.755   3.625  0.3733 -0.0249 -0.0497
31864SOL    HW1 7317  10.666   6.844   3.642 -1.7021  0.9028 -0.8824
31864SOL    HW2 7318  10.673   6.732   3.540 -0.7865  0.9230 -0.8499
31865SOL     OW 7319   5.897  11.338   0.633  0.1251  0.3344  0.7469
31865SOL    HW1 7320   5.909  11.370   0.543 -0.5910 -0.0897  0.4960
31865SOL    HW2 7321   5.955  11.393   0.686 -1.3036  2.2712  0.3776
31866SOL     OW 7322   1.104   2.052   5.942 -0.5305  0.2041 -0.3681
31866SOL    HW1 7323   1.019   2.089   5.968 -0.6548 -1.0339  1.1300
31866SOL    HW2 7324   1.143   2.021   6.023  0.1312 -1.7375 -1.3576
31867SOL     OW 7325   2.559  10.298   4.288 -0.9357  0.1689  0.6226
31867SOL    HW1 7326   2.575  10.212   4.327 -0.0969  0.3218  0.6426
31867SOL    HW2 7327   2.464  10.306   4.284 -1.0594 -1.4907 -1.0227
31868SOL     OW 7328   0.580   7.635   5.749 -0.4466  0.2314  0.0477
31868SOL    HW1 7329   0.491   7.600   5.752  0.1257 -1.4747 -1.3204
31868SOL    HW2 7330   0.589   7.684   5.831 -2.2111 -0.6385  0.8151
31869SOL     OW 7331   2.319   9.865   5.940  0.1197 -0.6174  0.1125
31869SOL    HW1 7332   2.291   9.948   5.901  2.4049  0.4716  0.5787
31869SOL    HW2 7333   2.346   9.811   5.865 -0.3639 -0.5209 -0.1298
31870SOL     OW 7334   7.867  13.364   4.785  0.7533 -0.2374  0.6885
31870SOL    HW1 7335   7.923  13.325   4.853 -0.0810 -1.7784  0.5256
31870SOL    HW2 7336   7.836  13.290   4.734 -0.4254  0.7072 -0.0185
31871SOL     OW 7337   3.246  10.893  11.523  0.0672 -0.1189  0.6969
31871SOL    HW1 7338   3.152  10.887  11.542  0.1869 -1.8845  0.8902
31871SOL    HW2 7339   3.288  10.863  11.604  0.7828  0.1528  0.4287
31872SOL     OW 7340   8.235   3.109   3.250  0.4235 -0.2037  0.0311
31872SOL    HW1 7341   8.258   3.196   3.280  0.0753  0.0112 -0.3177
31872SOL    HW2 7342   8.254   3.052   3.325  1.8519 -0.0164 -0.1577
31873SOL     OW 7343   2.464   6.219   7.042  0.9447  0.4695 -0.1591
31873SOL    HW1 7344   2.436   6.215   6.951 -1.0197 -1.3475  0.4367
31873SOL    HW2 7345   2.489   6.130   7.064  1.9054  0.9818  0.9557
31874SOL     OW 7346  13.346   8.114   7.011 -0.1106 -0.4613  0.1197
31874SOL    HW1 7347  13.421   8.156   6.970  0.2755 -1.8685 -0.6897
31874SOL    HW2 7348  13.284   8.099   6.939 -0.4007 -0.9009  0.4488
31875SOL     OW 7349  10.705  12.987   3.778  0.7612  0.1572 -0.3724
31875SOL    HW1 7350  10.668  12.936   3.706 -1.4177  1.4803 -0.2776
31875SOL    HW2 7351  10.629  13.021   3.825  2.0851  2.9962 -0.0828
31876SOL     OW 7352   0.362   9.784  12.938  0.5716 -0.2585  0.4328
31876SOL    HW1 7353   0.334   9.763  13.027 -1.3914  0.2699 -0.0087
31876SOL    HW2 7354   0.330   9.711  12.884  0.1342  0.2959 -0.0780
31877SOL     OW 7355   5.793  13.474  13.605 -0.2933  0.4194  0.7878
31877SOL    HW1 7356   5.834  13.431  13.680 -2.1223 -2.4564  0.2929
31877SOL    HW2 7357   5.791  13.567  13.629  3.4673  0.3348  2.1414
31878SOL     OW 7358   3.627  11.351   4.215  0.7771 -0.0353  0.6703
31878SOL    HW1 7359   3.639  11.326   4.124 -0.6899  0.7418  0.2463
31878SOL    HW2 7360   3.710  11.328   4.257  1.8364  0.4980 -1.0492
31879SOL     OW 7361  11.578   1.264  12.285  0.6492  0.2687  0.2347
31879SOL    HW1 7362  11.582   1.279  12.380  0.8846 -2.1099  0.6816
31879SOL    HW2 7363  11.502   1.206  12.274  0.9216  0.1287 -0.9669
31880SOL     OW 7364   4.391   3.247  10.215  0.9034  0.2291  0.5969
31880SOL    HW1 7365   4.296   3.254  10.205  0.7663  0.5392  1.9036
31880SOL    HW2 7366   4.413   3.315  10.277  2.0345  0.3310  0.1004
31881SOL     OW 7367  10.741   1.925   4.611  0.3192  0.1979 -0.4912
31881SOL    HW1 7368  10.805   1.855   4.621 -0.1819 -0.0462  1.3809
31881SOL    HW2 7369  10.793   2.003   4.589  1.2968  0.0037  0.9893
31882SOL     OW 7370   7.435   8.899   0.491 -0.1155  0.0525  0.7175
31882SOL    HW1 7371   7.487   8.846   0.430  0.0657 -0.9758  1.7325
31882SOL    HW2 7372   7.376   8.836   0.533 -1.4946  1.0382  0.3192
31883SOL     OW 7373   7.130   3.608   8.338  0.3819  0.3208  0.4213
31883SOL    HW1 7374   7.164   3.619   8.249  0.9372  0.7931  0.6801
31883SOL    HW2 7375   7.073   3.684   8.351 -1.5790 -0.9470 -0.3459
31884SOL     OW 7376   4.835  11.751   2.821  0.4904 -0.2914 -0.0446
31884SOL    HW1 7377   4.792  11.691   2.881  0.7450 -0.9973 -0.5540
31884SOL    HW2 7378   4.895  11.696   2.770  1.2790  0.5171 -0.0126
31885SOL     OW 7379  11.511  13.346   6.240  0.4054 -0.3660  0.0662
31885SOL    HW1 7380  11.528  13.350   6.146 -0.1001 -0.5477 -0.0357
31885SOL    HW2 7381  11.459  13.267   6.252  0.7154 -0.5056  0.5418
31886SOL     OW 7382   7.184   8.020  12.387 -0.2685  0.4618  0.4686
31886SOL    HW1 7383   7.152   8.107  12.362 -0.7429  0.3880  0.8026
31886SOL    HW2 7384   7.208   8.028  12.479 -0.5927  0.1650  0.5824
31887SOL     OW 7385   9.607  13.546  11.035  0.2000  0.0970  0.0440
31887SOL    HW1 7386   9.661  13.608  11.084  1.0996 -0.5619 -0.1005
31887SOL    HW2 7387   9.619  13.462  11.080 -1.6397  0.1615  0.7314
31888SOL     OW 7388  12.246   6.640  12.835 -0.1722 -0.0587 -0.6199
31888SOL    HW1 7389  12.318   6.578  12.823  1.9982  1.5621  2.5821
31888SOL    HW2 7390  12.183   6.592  12.889  0.5084 -0.1846  0.0863
31889SOL     OW 7391   7.018   3.676  11.319  0.3590 -0.6468  0.6895
31889SOL    HW1 7392   7.111   3.701  11.319 -0.0826  1.3854 -1.1873
31889SOL    HW2 7393   6.973   3.751  11.358 -0.9208  1.4362 -4.0056
31890SOL     OW 7394   8.582  11.415   7.240  0.1153 -0.1939 -0.2366
31890SOL    HW1 7395   8.563  11.464   7.160 -1.1210 -1.0725 -0.5024
31890SOL    HW2 7396   8.588  11.481   7.309  3.2782  0.8204 -1.3316
31891SOL     OW 7397   1.453   4.749   2.756 -0.0666  0.0902 -0.2476
31891SOL    HW1 7398   1.408   4.795   2.685  0.5527  0.3840 -0.4538
31891SOL    HW2 7399   1.414   4.783   2.836 -1.0517 -0.5321 -0.4470
31892SOL     OW 7400   0.616   3.567   2.868 -0.2452 -0.2932  0.1573
31892SOL    HW1 7401   0.531   3.525   2.863 -0.3402 -0.0281 -0.4936
31892SOL    HW2 7402   0.670   3.521   2.804 -1.0040  2.0323 -2.3153
31893SOL     OW 7403  10.685   7.361  10.813  0.0938 -0.2000 -0.0886
31893SOL    HW1 7404  10.761   7.343  10.759  0.5523  1.4857 -0.0423
31893SOL    HW2 7405  10.610   7.334  10.760  0.6049  0.2820 -1.0708
31894SOL     OW 7406   9.815   6.336   5.590  0.2586  0.5140  0.1285
31894SOL    HW1 7407   9.776   6.392   5.522 -0.0777 -0.3151 -0.3715
31894SOL    HW2 7408   9.742   6.316   5.649  0.3898  0.6285  0.3324
31895SOL     OW 7409  10.990   6.419  10.289 -0.1862 -0.1518  0.7735
31895SOL    HW1 7410  10.999   6.490  10.226  1.1836 -1.5326 -0.6951
31895SOL    HW2 7411  10.904   6.381  10.271 -0.3084  0.2163  0.5644
31896SOL     OW 7412   9.812   1.158  12.194 -0.1379  0.0471  0.0107
31896SOL    HW1 7413   9.718   1.146  12.207 -0.1799  1.6529  1.6256
31896SOL    HW2 7414   9.820   1.242  12.150  0.5728  0.9855  1.8115
31897SOL     OW 7415   4.064  11.255   0.775  0.2458  0.1822  0.0696
31897SOL    HW1 7416   4.101  11.167   0.775 -1.4122 -0.6508 -2.9057
31897SOL    HW2 7417   4.027  11.265   0.863 -1.4197 -3.0477 -0.0810
31898SOL     OW 7418  11.890   3.277   1.499 -0.2824 -0.0504 -0.2858
31898SOL    HW1 7419  11.882   3.191   1.542 -1.5870  0.1254 -0.1399
31898SOL    HW2 7420  11.800   3.305   1.485  0.1333  1.0154 -0.9320
31899SOL     OW 7421   8.915   8.489   9.468  0.2541  0.5510 -0.2363
31899SOL    HW1 7422   8.945   8.398   9.478  0.2917  0.3842 -1.5686
31899SOL    HW2 7423   8.914   8.502   9.373 -0.3512  1.7522 -0.0740
31900SOL     OW 7424   6.040   7.322   4.030  0.3510  0.7084 -0.1530
31900SOL    HW1 7425   5.951   7.355   4.034  0.7175  1.6042  0.7329
31900SOL    HW2 7426   6.033   7.242   3.977 -0.8926  1.0055 -0.4608
31901SOL     OW 7427   7.219  13.507   3.826  0.5097  0.4627  0.2277
31901SOL    HW1 7428   7.184  13.461   3.902  1.0071  0.3832  0.4137
31901SOL    HW2 7429   7.276  13.443   3.784  1.7502  1.1088  0.8694
31902SOL     OW 7430   8.582   3.236   3.321  0.0872 -0.1633  0.3884
31902SOL    HW1 7431   8.616   3.298   3.386 -1.0770 -1.2616  2.1191
31902SOL    HW2 7432   8.490   3.262   3.310  0.4685  0.5355 -1.5172
31903SOL     OW 7433  11.588   7.187  11.439 -0.2405  0.4392 -0.4405
31903SOL    HW1 7434  11.548   7.264  11.398  0.6302  0.7494 -0.7239
31903SOL    HW2 7435  11.676   7.183  11.402 -0.2522 -0.6642 -0.3738
31904SOL     OW 7436   1.491   6.377   0.224 -0.1975  0.5194 -0.6111
31904SOL    HW1 7437   1.577   6.365   0.265  0.3686  2.0362 -1.3052
31904SOL    HW2 7438   1.458   6.459   0.261 -0.6371  0.7869 -1.5697
31905SOL     OW 7439   4.511   1.422   2.311  0.1725  0.3100  0.8576
31905SOL    HW1 7440   4.568   1.353   2.346  0.8442 -0.7528 -2.0233
31905SOL    HW2 7441   4.570   1.496   2.296  0.3055  0.0586  0.1264
31906SOL     OW 7442   8.954   6.205  12.829  0.5142 -0.0563  0.1618
31906SOL    HW1 7443   8.875   6.193  12.776  0.0893 -1.1047  0.9747
31906SOL    HW2 7444   8.996   6.118  12.828  0.9702  0.1509  0.7829
31907SOL     OW 7445   3.540   0.324  10.152  0.8374 -0.1642 -0.2746
31907SOL    HW1 7446   3.483   0.401  10.158 -0.3325 -1.0661  0.5150
31907SOL    HW2 7447   3.617   0.355  10.104 -0.9820  0.7175 -2.8200
31908SOL     OW 7448   3.572   0.852  10.931  0.1756 -0.5428  0.2557
31908SOL    HW1 7449   3.509   0.799  10.980 -0.2034  0.0668  0.4287
31908SOL    HW2 7450   3.654   0.803  10.938 -0.5977 -2.1939 -1.3388
31909SOL     OW 7451  11.616  10.318   9.918 -0.0266  0.6265  0.3621
31909SOL    HW1 7452  11.678  10.347   9.851  1.0255  0.7787  1.3580
31909SOL    HW2 7453  11.627  10.223   9.921  0.8942  0.7416  1.1973
31910SOL     OW 7454   4.229   0.920   8.953 -0.2695 -0.5515 -0.2488
31910SOL    HW1 7455   4.214   0.992   9.014 -0.0752  0.0048 -0.8517
31910SOL    HW2 7456   4.233   0.842   9.009  0.1035 -0.0299  0.4660
31911SOL     OW 7457   9.984   8.794   3.538  0.1139 -0.1921 -0.1792
31911SOL    HW1 7458  10.051   8.809   3.472 -0.7310  2.8891 -0.4817
31911SOL    HW2 7459  10.008   8.852   3.610 -1.5312  0.0407  0.2169
31912SOL     OW 7460   0.314   0.622  10.306  0.3901  0.0923 -0.6176
31912SOL    HW1 7461   0.326   0.708  10.346  0.2403 -0.2096  0.0944
31912SOL    HW2 7462   0.359   0.627  10.222  1.3467  0.5054 -0.0889
31913SOL     OW 7463   0.398  12.119   4.564 -0.4812  0.1676  0.1567
31913SOL    HW1 7464   0.441  12.036   4.544  0.5394  1.2531 -2.6252
31913SOL    HW2 7465   0.445  12.153   4.640 -0.2131 -1.2712  0.6570
31914SOL     OW 7466   6.652   6.711   8.650  0.1490  0.2108  0.3020
31914SOL    HW1 7467   6.557   6.702   8.646  0.0741 -0.2493  2.1182
31914SOL    HW2 7468   6.675   6.682   8.739  1.9012  1.0299  0.1585
31915SOL     OW 7469   8.826   1.287   9.285 -0.1995  0.6269 -0.2490
31915SOL    HW1 7470   8.741   1.259   9.317  0.1521  0.7531  0.8351
31915SOL    HW2 7471   8.883   1.287   9.362 -0.0101  3.6823 -0.2458
31916SOL     OW 7472   0.347   8.216   8.556  0.1997  0.5465 -0.1190
31916SOL    HW1 7473   0.403   8.289   8.583 -2.7530  3.1845 -0.4986
31916SOL    HW2 7474   0.326   8.235   8.464 -0.4187 -0.9906 -0.3305
31917SOL     OW 7475   4.175   2.032   4.350 -0.2382 -0.9159  0.0704
31917SOL    HW1 7476   4.104   2.065   4.295 -1.7056 -3.5782  0.2214
31917SOL    HW2 7477   4.255   2.054   4.301 -1.2859  0.0085 -1.2991
31918SOL     OW 7478  10.571  12.217   1.308 -0.0095  0.1161 -0.1933
31918SOL    HW1 7479  10.511  12.210   1.233  0.7940  1.4408 -0.9982
31918SOL    HW2 7480  10.638  12.279   1.279 -0.1843  1.4038  1.9798
31919SOL     OW 7481   1.602   3.201   1.954  0.4159  0.1783 -0.1892
31919SOL    HW1 7482   1.514   3.163   1.953  1.0276 -1.3253 -1.3677
31919SOL    HW2 7483   1.659   3.127   1.976  1.5722  0.6635 -1.4440
31920SOL     OW 7484  10.550   3.561   6.028  0.5204 -0.5967 -0.4422
31920SOL    HW1 7485  10.602   3.633   5.993  0.8934 -0.0408  1.1918
31920SOL    HW2 7486  10.613   3.490   6.042  0.3813 -0.7990 -0.8095
31921SOL     OW 7487  11.531   7.996  13.569  0.4809  0.0225 -0.7766
31921SOL    HW1 7488  11.582   8.064  13.613 -1.2089  0.9271 -0.1346
31921SOL    HW2 7489  11.596   7.929  13.545  2.2479  1.9295 -1.6441
31922SOL     OW 7490   0.256   3.488   1.580  0.4689  0.8420 -0.1366
31922SOL    HW1 7491   0.301   3.432   1.517 -0.4056 -0.4334  0.3353
31922SOL    HW2 7492   0.238   3.568   1.531  0.1793  0.0378 -1.3995
31923SOL     OW 7493   3.171  13.065   3.817  0.5733 -0.2533  0.3884
31923SOL    HW1 7494   3.163  12.970   3.813 -0.6023 -0.1299 -1.6829
31923SOL    HW2 7495   3.091  13.094   3.862  0.1122 -0.1901 -0.4447
31924SOL     OW 7496   3.707  11.344   2.079 -0.3533 -0.4058 -0.1094
31924SOL    HW1 7497   3.796  11.380   2.074 -0.2412 -0.2858  1.7279
31924SOL    HW2 7498   3.720  11.251   2.097 -0.6003 -0.5383 -0.6310
31925SOL     OW 7499  11.112   8.174   3.362 -0.4634 -0.1788  0.1780
31925SOL    HW1 7500  11.056   8.244   3.329 -0.9018 -0.6751 -0.1620
31925SOL    HW2 7501  11.128   8.196   3.453 -0.9294  0.1553  0.1798
31926SOL     OW 7502   9.774   8.146   1.377 -0.1127 -0.7426  0.0393
31926SOL    HW1 7503   9.727   8.108   1.451  2.0481 -1.3248  1.2033
31926SOL    HW2 7504   9.766   8.241   1.390 -0.0817 -0.8380  0.8277
31927SOL     OW 7505   0.928  12.645  12.189 -0.1420  0.4689  0.1783
31927SOL    HW1 7506   0.844  12.600  12.198  0.4275 -0.2317  2.6943
31927SOL    HW2 7507   0.982  12.585  12.138 -0.8992  0.5906 -0.8024
31928SOL     OW 7508   1.309   9.280   9.778 -0.2133  0.0261 -0.3106
31928SOL    HW1 7509   1.355   9.215   9.724  0.6949  0.1345  0.3053
31928SOL    HW2 7510   1.310   9.242   9.866 -0.4692  0.4719 -0.1131
31929SOL     OW 7511   4.020   9.247  10.745  0.2527  0.1671 -0.3576
31929SOL    HW1 7512   4.034   9.324  10.799 -1.9511  0.7285 -0.4759
31929SOL    HW2 7513   3.930   9.256  10.713  0.3499 -1.8383 -1.3816
31930SOL     OW 7514   1.052   4.958  11.016 -0.0997  0.0789 -0.6026
31930SOL    HW1 7515   1.030   5.026  10.952  0.5154 -1.0043 -2.0285
31930SOL    HW2 7516   1.130   4.915  10.979  0.0158 -0.8619  0.6715
31931SOL     OW 7517  12.478   4.108   5.733  0.3372  0.0230  0.1934
31931SOL    HW1 7518  12.537   4.081   5.662  0.1775  1.5201 -0.5678
31931SOL    HW2 7519  12.411   4.161   5.689 -1.6047 -1.6179  1.0392
31932SOL     OW 7520   5.307  11.349   2.846 -0.4979  0.6208 -0.2658
31932SOL    HW1 7521   5.254  11.293   2.902  0.9549 -0.4163  0.1173
31932SOL    HW2 7522   5.291  11.438   2.879 -0.8225  0.1731  0.8163
31933SOL     OW 7523  13.614   4.092   5.418 -0.1639  0.4809  0.3548
31933SOL    HW1 7524  13.643   4.001   5.420  1.0414  0.8499  0.7292
31933SOL    HW2 7525  13.585   4.107   5.328 -1.3844 -0.5471  0.5356
31934SOL     OW 7526   9.355   9.981   1.909  0.1261  0.3303  0.7375
31934SOL    HW1 7527   9.314   9.920   1.847  1.5895  0.0694 -0.0099
31934SOL    HW2 7528   9.448   9.978   1.888  0.5856  0.7146  2.5643
31935SOL     OW 7529  12.302   0.421   7.783  0.6282  0.0044  0.0966
31935SOL    HW1 7530  12.318   0.358   7.712 -0.7941 -0.2304 -0.0476
31935SOL    HW2 7531  12.268   0.498   7.739 -1.1855 -0.4885  0.5687
31936SOL     OW 7532   6.555  12.906  10.347  0.0485 -0.2765  0.1916
31936SOL    HW1 7533   6.573  12.892  10.440 -1.2275  1.7910  0.8349
31936SOL    HW2 7534   6.629  12.959  10.316  0.1616 -0.4263  0.2108
31937SOL     OW 7535   6.105   9.399   0.401  0.0876  0.0663 -0.0783
31937SOL    HW1 7536   6.182   9.343   0.401  0.5037  0.5450  2.0615
31937SOL    HW2 7537   6.132   9.477   0.353  0.8980  0.1631  0.5210
31938SOL     OW 7538   9.819   4.822  12.880 -0.0147  0.2614 -0.3036
31938SOL    HW1 7539   9.807   4.775  12.798  0.3373 -0.5303  0.0898
31938SOL    HW2 7540   9.806   4.914  12.857 -1.6142 -0.0878 -0.9139
31939SOL     OW 7541   6.909   5.246   2.052 -0.3821 -0.2968 -0.6944
31939SOL    HW1 7542   6.880   5.196   2.128 -0.0397 -0.0916 -0.4294
31939SOL    HW2 7543   6.946   5.326   2.088 -1.4474  0.4224 -1.1404
31940SOL     OW 7544  13.237   3.625  12.256 -0.0384  0.3563  0.4579
31940SOL    HW1 7545  13.282   3.572  12.190 -0.0806  1.0021 -0.0987
31940SOL    HW2 7546  13.277   3.712  12.249  0.2431  0.3310  1.5688
31941SOL     OW 7547   8.131   1.658   0.967  0.3778  0.9962  0.1026
31941SOL    HW1 7548   8.103   1.727   1.027  3.4305  2.1479  0.3825
31941SOL    HW2 7549   8.123   1.697   0.880 -0.6103  0.6204  0.0092
31942SOL     OW 7550   4.441   6.420   8.115 -0.8191  0.0149  0.1336
31942SOL    HW1 7551   4.424   6.366   8.192 -1.5008  0.1522  0.0874
31942SOL    HW2 7552   4.491   6.495   8.149 -0.4213 -0.3265  0.3015
31943SOL     OW 7553  12.624   0.254   2.951 -0.2481  0.1562 -0.0331
31943SOL    HW1 7554  12.606   0.218   3.038 -1.0413 -0.4213 -0.4190
31943SOL    HW2 7555  12.701   0.206   2.921 -0.3247 -0.0628  0.1144
31944SOL     OW 7556   0.437   6.106   6.225 -0.3547 -0.2295  0.0251
31944SOL    HW1 7557   0.373   6.167   6.190 -2.8963 -2.6382  0.1030
31944SOL    HW2 7558   0.459   6.049   6.151  0.3998 -0.4757  0.4288
31945SOL     OW 7559   2.268   2.923   2.011  0.5556 -0.1018 -0.0295
31945SOL    HW1 7560   2.356   2.958   2.021  0.1604  1.6177 -1.8696
31945SOL    HW2 7561   2.213   3.001   1.997 -0.9769 -1.2466 -0.6064
31946SOL     OW 7562  13.360   3.368  10.358 -0.1002  0.4948  0.4265
31946SOL    HW1 7563  13.370   3.390  10.450  2.7793  0.8245  0.1094
31946SOL    HW2 7564  13.371   3.273  10.354  2.5245  0.7431  0.2061
31947SOL     OW 7565  13.659   0.862  10.755 -0.1640 -0.0309 -0.0492
31947SOL    HW1 7566  13.652   0.924  10.683  1.6518  0.6239  0.2910
31947SOL    HW2 7567  13.636   0.777  10.717 -1.8671  0.6766 -0.7157
31948SOL     OW 7568  13.419   4.934   6.546  0.0266  0.1895  0.1368
31948SOL    HW1 7569  13.475   4.937   6.623  1.8508 -1.2407 -1.0637
31948SOL    HW2 7570  13.414   5.025   6.516 -1.0940  0.8544  2.1248
31949SOL     OW 7571   9.311   3.621  11.537  0.0201  0.0184  0.0355
31949SOL    HW1 7572   9.251   3.549  11.557 -0.0599  0.0050 -0.2464
31949SOL    HW2 7573   9.271   3.665  11.462 -0.3623  0.8632  0.7145
31950SOL     OW 7574   4.728  10.379  13.097 -0.5785 -0.1111  0.0343
31950SOL    HW1 7575   4.709  10.420  13.012 -0.3920 -0.3319 -0.1159
31950SOL    HW2 7576   4.736  10.452  13.158  1.7283  0.2448 -0.5999
31951SOL     OW 7577   4.196  13.415  13.663 -0.1841 -0.2163 -0.1933
31951SOL    HW1 7578   4.200  13.422  13.759 -0.0067  2.7982 -0.3229
31951SOL    HW2 7579   4.175  13.504  13.634  1.6071 -0.6249 -3.0513
31952SOL     OW 7580   0.527   6.277   3.714  0.4467 -0.3077 -0.0192
31952SOL    HW1 7581   0.471   6.325   3.652 -0.4196 -2.8379 -1.3059
31952SOL    HW2 7582   0.465   6.242   3.779  0.9058 -0.7162  0.1981
31953SOL     OW 7583   2.256  12.632   4.460 -0.2813 -0.1848  0.4602
31953SOL    HW1 7584   2.191  12.685   4.413 -1.4481 -0.4563  1.6967
31953SOL    HW2 7585   2.340  12.660   4.425 -1.0687 -0.3105 -1.7259
31954SOL     OW 7586   8.814   8.073   8.228  0.2024 -0.0368 -0.2726
31954SOL    HW1 7587   8.794   8.164   8.206 -1.5439 -0.5497 -0.9093
31954SOL    HW2 7588   8.749   8.050   8.294  0.2960 -0.9990 -0.5127
31955SOL     OW 7589   3.201   4.410   5.756 -0.1803 -0.3749 -0.0104
31955SOL    HW1 7590   3.163   4.496   5.770 -0.9841 -0.6543 -0.3826
31955SOL    HW2 7591   3.141   4.349   5.799 -0.4589 -0.8719 -1.0655
31956SOL     OW 7592   4.077   2.147   7.594  0.0302 -0.0110 -0.5886
31956SOL    HW1 7593   4.159   2.126   7.550  0.5332  0.1562  0.2504
31956SOL    HW2 7594   4.060   2.239   7.572  1.1420  0.5795  0.8651
31957SOL     OW 7595   5.636  12.516   7.820  0.0477  0.2013 -0.1078
31957SOL    HW1 7596   5.621  12.440   7.876 -0.0430  1.2702  1.3918
31957SOL    HW2 7597   5.592  12.588   7.866 -0.2854  1.0702 -1.7298
31958SOL     OW 7598   2.074   4.754   9.812  0.3594  0.5306 -0.3687
31958SOL    HW1 7599   2.003   4.731   9.752  0.3516  0.9661 -0.5330
31958SOL    HW2 7600   2.105   4.671   9.846 -0.1544  0.3310 -0.3870
31959SOL     OW 7601   6.549  10.287  10.558 -0.0949  0.0561 -0.5773
31959SOL    HW1 7602   6.565  10.354  10.625 -0.7648 -0.7236  0.4062
31959SOL    HW2 7603   6.456  10.295  10.537 -0.3412 -0.9373  0.0193
31960SOL     OW 7604  12.621   9.699   4.085 -0.5124 -0.3853  0.3688
31960SOL    HW1 7605  12.600   9.703   4.179  0.5208  0.0047  0.5974
31960SOL    HW2 7606  12.616   9.789   4.055  0.4252 -0.3202  0.3566
31961SOL     OW 7607   8.477   7.547   6.705 -0.1487  0.1451  0.8857
31961SOL    HW1 7608   8.498   7.455   6.721  1.5161  0.3323 -0.0465
31961SOL    HW2 7609   8.447   7.550   6.614  0.9757  0.6782  0.5131
31962SOL     OW 7610  12.709   1.066   0.408 -0.1629 -0.0973  0.0039
31962SOL    HW1 7611  12.616   1.066   0.387  0.0084 -0.0223 -0.8123
31962SOL    HW2 7612  12.752   1.053   0.323  0.5647 -0.1516  0.3755
31963SOL     OW 7613   0.763   0.476   9.943 -0.4745 -1.0289 -0.1869
31963SOL    HW1 7614   0.796   0.388   9.961 -2.0808 -1.5829  0.2363
31963SOL    HW2 7615   0.791   0.494   9.853  2.1892 -0.8296  0.6077
31964SOL     OW 7616   7.294   3.404   2.599 -0.4386 -0.4552  0.5243
31964SOL    HW1 7617   7.383   3.397   2.632  0.2045  0.3665 -0.9800
31964SOL    HW2 7618   7.249   3.461   2.662  0.4355  0.1547  0.6058
31965SOL     OW 7619   5.237   1.456   3.364  0.1782  0.6607 -0.3874
31965SOL    HW1 7620   5.314   1.406   3.392  0.8043  1.3750 -0.7882
31965SOL    HW2 7621   5.180   1.391   3.323  0.4665  0.0875  0.1030
31966SOL     OW 7622  10.839   6.579   6.787  0.2159  0.3128  0.2067
31966SOL    HW1 7623  10.785   6.500   6.784 -1.6901  1.5591 -3.0333
31966SOL    HW2 7624  10.926   6.549   6.763  0.1443 -1.1520  1.5999
31967SOL     OW 7625   8.642   5.112  10.223  0.0465 -0.1758 -0.6520
31967SOL    HW1 7626   8.604   5.083  10.306 -0.6173 -0.0046 -0.8891
31967SOL    HW2 7627   8.656   5.206  10.235  1.7810 -0.4691 -0.0454
31968SOL     OW 7628   5.423   6.403  12.264  0.1909  0.0892 -0.3480
31968SOL    HW1 7629   5.355   6.414  12.330  0.2617 -0.1735 -0.2287
31968SOL    HW2 7630   5.376   6.397  12.181  0.2123  3.3104 -0.7134
31969SOL     OW 7631   3.639  12.537   8.150 -0.1209  0.1701 -0.1976
31969SOL    HW1 7632   3.653  12.583   8.233 -2.5432  0.3141  0.1855
31969SOL    HW2 7633   3.571  12.588   8.105  0.8438 -0.1357 -2.1296
31970SOL     OW 7634   9.476   1.896  13.640 -0.4848 -0.6968  0.3570
31970SOL    HW1 7635   9.454   1.893  13.733 -2.4846  0.3138 -0.0115
31970SOL    HW2 7636   9.445   1.982  13.611  1.5988 -0.2985 -0.9246
31971SOL     OW 7637  10.229  11.230  13.615 -0.2064 -0.3573  0.4850
31971SOL    HW1 7638  10.274  11.214  13.698  1.1392  0.0341 -0.1301
31971SOL    HW2 7639  10.241  11.149  13.565  1.4615  0.3728 -0.3744
31972SOL     OW 7640   0.835   1.768   5.023  0.7136  0.1576  0.1129
31972SOL    HW1 7641   0.762   1.791   5.082  0.2450  0.9693 -0.7578
31972SOL    HW2 7642   0.819   1.819   4.944 -0.1263 -2.8549 -1.8180
31973SOL     OW 7643   2.832   1.051   7.347 -0.3330 -0.2930  0.4268
31973SOL    HW1 7644   2.756   1.042   7.290  0.5103 -1.1049 -0.5951
31973SOL    HW2 7645   2.836   1.145   7.367 -1.2275 -0.1485 -0.0258
31974SOL     OW 7646   3.013   6.676   4.528 -0.0819  0.5043 -0.0853
31974SOL    HW1 7647   2.939   6.734   4.509 -1.5195 -1.2435 -0.1243
31974SOL    HW2 7648   3.033   6.635   4.444  0.7616  0.7629 -0.0159
31975SOL     OW 7649  11.327   7.903   8.912 -0.3235  0.6587  0.4574
31975SOL    HW1 7650  11.292   7.881   8.998 -1.3108 -0.2625 -0.1579
31975SOL    HW2 7651  11.338   7.998   8.915 -0.7996  0.6990  1.4279
31976SOL     OW 7652   6.466  12.782   6.304 -0.1382 -0.7288  0.4559
31976SOL    HW1 7653   6.533  12.714   6.306  0.4538 -0.1412  1.2518
31976SOL    HW2 7654   6.437  12.784   6.213  0.7877 -1.1309  0.1381
31977SOL     OW 7655   1.876  13.524  12.529 -0.0036  0.2161 -0.5192
31977SOL    HW1 7656   1.920  13.600  12.566  0.9429 -0.8625  0.6373
31977SOL    HW2 7657   1.918  13.511  12.444  0.8714  0.0966 -0.0729
31978SOL     OW 7658   0.968   4.404   3.089 -0.3551 -0.1503 -0.0580
31978SOL    HW1 7659   1.023   4.446   3.023 -0.2589 -1.4559 -0.8298
31978SOL    HW2 7660   1.028   4.347   3.137 -0.6310  0.0117  0.4866
31979SOL     OW 7661   1.718   9.679  11.956  0.2915 -0.3900 -0.5578
31979SOL    HW1 7662   1.759   9.764  11.941 -0.6820 -0.1177 -1.8568
31979SOL    HW2 7663   1.776   9.635  12.018 -0.4758  2.1227  2.1532
31980SOL     OW 7664   3.237   2.293   2.057  0.5779 -0.1178 -0.4435
31980SOL    HW1 7665   3.254   2.266   2.147  0.6870 -1.1152 -0.7562
31980SOL    HW2 7666   3.146   2.269   2.041 -0.5481  3.0544  0.4435
31981SOL     OW 7667   0.200  12.989  11.487  0.3639  0.6163 -0.8223
31981SOL    HW1 7668   0.242  12.934  11.553  0.0832 -0.0392 -1.1831
31981SOL    HW2 7669   0.116  13.014  11.525 -0.1756 -0.4685 -1.2601
31982SOL     OW 7670   5.633  13.494   4.639  0.1274 -0.2296  0.1841
31982SOL    HW1 7671   5.673  13.556   4.577 -0.0621 -2.0244 -1.8687
31982SOL    HW2 7672   5.542  13.524   4.648  0.8471  1.6600  1.8815
31983SOL     OW 7673   1.857   9.700   1.964  0.8926 -0.1827  0.4361
31983SOL    HW1 7674   1.901   9.619   1.988 -0.0676 -0.3537  1.7305
31983SOL    HW2 7675   1.928   9.758   1.934  1.6934 -1.1816  0.3402
31984SOL     OW 7676   0.545  12.569   7.444  0.2056 -0.2258  0.7573
31984SOL    HW1 7677   0.465  12.532   7.407 -1.0860  0.7966  2.3741
31984SOL    HW2 7678   0.585  12.495   7.491  1.4632 -1.3255 -1.8852
31985SOL     OW 7679   6.298  11.324   8.359  0.3716  0.2394  0.0825
31985SOL    HW1 7680   6.302  11.407   8.311  2.3795  0.4909  0.6012
31985SOL    HW2 7681   6.374  11.275   8.329  0.2046 -0.6704  1.0800
31986SOL     OW 7682   9.929  11.231   2.510  0.1674  0.2287  0.3698
31986SOL    HW1 7683   9.852  11.225   2.454  0.9619 -1.2518 -0.6202
31986SOL    HW2 7684   9.914  11.167   2.580 -0.1707  1.0505  1.0783
31987SOL     OW 7685   3.892   4.486   5.770  0.4631  0.0840  0.5378
31987SOL    HW1 7686   3.912   4.578   5.759  0.8395 -0.1436 -0.8526
31987SOL    HW2 7687   3.845   4.461   5.690  1.0573 -1.1038  0.5325
31988SOL     OW 7688  13.313   0.687   7.700 -0.6128 -0.5824 -0.7396
31988SOL    HW1 7689  13.332   0.625   7.771 -0.9952  0.1953  0.0695
31988SOL    HW2 7690  13.385   0.749   7.702 -2.0870  1.2352  1.0557
31989SOL     OW 7691  13.277   3.352   6.959 -0.3608 -0.6159 -0.3740
31989SOL    HW1 7692  13.186   3.330   6.939 -0.9240  0.2762  1.0807
31989SOL    HW2 7693  13.319   3.267   6.974 -0.5909 -1.1276 -2.3120
31990SOL     OW 7694   2.618   4.803   4.019 -0.3304  0.4397  0.1580
31990SOL    HW1 7695   2.545   4.753   3.982 -0.4192  0.8934 -0.2892
31990SOL    HW2 7696   2.579   4.849   4.094 -1.1494  2.5791 -1.4689
31991SOL     OW 7697  11.126  11.402   1.542 -0.7606  0.4349  0.1775
31991SOL    HW1 7698  11.033  11.380   1.531 -0.4893 -0.9032  0.3528
31991SOL    HW2 7699  11.126  11.482   1.593 -1.8057 -0.6121  1.9141
31992SOL     OW 7700   2.689   1.484   4.852 -0.6665  0.3861 -0.1055
31992SOL    HW1 7701   2.691   1.560   4.794  0.5912 -0.6190 -1.4739
31992SOL    HW2 7702   2.602   1.486   4.892 -0.6913  2.4594 -0.1873
31993SOL     OW 7703   0.663   7.729   6.541 -0.3315  0.0695 -0.0403
31993SOL    HW1 7704   0.722   7.804   6.547 -0.5741  0.1438  1.8006
31993SOL    HW2 7705   0.577   7.763   6.564 -0.5949 -0.6023  0.0044
31994SOL     OW 7706   2.441  11.024  12.114  0.4704  0.6290  0.4384
31994SOL    HW1 7707   2.508  11.089  12.134 -0.3955  1.8259 -0.4235
31994SOL    HW2 7708   2.461  10.995  12.025  1.1666 -0.7120  1.0086
31995SOL     OW 7709   6.833   9.664   7.902  0.0283  0.4261 -0.4090
31995SOL    HW1 7710   6.752   9.691   7.858  0.6846  0.6122 -1.5366
31995SOL    HW2 7711   6.902   9.682   7.838  0.8057 -1.2015 -0.0617
31996SOL     OW 7712   8.130   1.190   9.475 -0.2954  0.1164 -0.3388
31996SOL    HW1 7713   8.108   1.103   9.507  1.8828 -0.7706 -1.0745
31996SOL    HW2 7714   8.049   1.223   9.438 -1.7916 -0.5723  2.1013
31997SOL     OW 7715   8.229   1.769  12.980 -0.2143 -0.2348 -0.7873
31997SOL    HW1 7716   8.299   1.704  12.992  0.6230  0.6405 -0.7815
31997SOL    HW2 7717   8.276   1.849  12.955 -1.2485  0.2943 -1.0611
31998SOL     OW 7718  11.884   8.528   5.425 -0.1487  0.6836 -0.0017
31998SOL    HW1 7719  11.898   8.539   5.331 -1.6385 -1.4771 -0.5381
31998SOL    HW2 7720  11.841   8.609   5.453 -0.6544  0.9171 -1.3935
31999SOL     OW 7721   6.003  10.320   0.722  0.1250  0.6622 -0.2638
31999SOL    HW1 7722   5.931  10.265   0.753 -0.6618  2.0214  0.4320
31999SOL    HW2 7723   6.069  10.313   0.791  1.5294 -2.0297 -1.7321
32000SOL     OW 7724   5.129   4.668   8.201 -0.0448  0.5976  0.0130
32000SOL    HW1 7725   5.043   4.709   8.194 -0.4685 -0.3321 -0.4723
32000SOL    HW2 7726   5.113   4.589   8.254 -0.1058 -1.1054 -2.3926
32001SOL     OW 7727   9.081   1.102   4.578  0.4230  0.0575  0.2627
32001SOL    HW1 7728   9.081   1.161   4.653  0.8384  0.3782  0.0144
32001SOL    HW2 7729   9.001   1.051   4.587 -1.0372  2.0472 -0.6091
32002SOL     OW 7730   1.785  11.190  12.239  0.1121  0.3845  0.4395
32002SOL    HW1 7731   1.771  11.285  12.241  0.3491  0.4099  1.9741
32002SOL    HW2 7732   1.702  11.154  12.208 -0.8321  0.9788  2.1603
32003SOL     OW 7733   3.017   8.154  10.556  0.4406  0.4490 -0.4164
32003SOL    HW1 7734   3.061   8.069  10.557 -0.3961 -0.0309 -2.0429
32003SOL    HW2 7735   3.060   8.203  10.487 -0.1064  0.7825 -0.5244
32004SOL     OW 7736  13.565   0.883   2.717  0.1723  0.1851 -0.2985
32004SOL    HW1 7737  13.548   0.958   2.773  0.3596 -0.5430  0.7588
32004SOL    HW2 7738  13.514   0.812   2.756  2.3095 -0.9976  0.4977
32005SOL     OW 7739  10.254   5.520   6.664 -0.2229  0.4636  0.2580
32005SOL    HW1 7740  10.224   5.460   6.733  0.6334  0.4662  0.6486
32005SOL    HW2 7741  10.328   5.567   6.703  0.8275 -0.1251 -0.9060
32006SOL     OW 7742  10.456   4.251   1.335 -0.1699 -0.2890 -0.8189
32006SOL    HW1 7743  10.519   4.179   1.327  1.1545  0.4666  1.6782
32006SOL    HW2 7744  10.475   4.308   1.260 -0.1172 -1.6689 -1.8991
32007SOL     OW 7745  12.020   2.949   0.936  0.5534  0.2058 -0.0076
32007SOL    HW1 7746  11.967   2.952   1.016  1.1982  0.3983  0.4180
32007SOL    HW2 7747  11.958   2.922   0.868  0.3228 -1.5375  0.8290
32008SOL     OW 7748   1.349   5.097   7.611 -0.1536  0.5031  0.6912
32008SOL    HW1 7749   1.314   5.145   7.536  0.5984 -0.1257 -0.0871
32008SOL    HW2 7750   1.273   5.056   7.651 -0.5000  0.3555 -0.0910
32009SOL     OW 7751   3.588   1.904   5.010 -0.6390  0.0231 -0.5557
32009SOL    HW1 7752   3.523   1.854   4.961 -0.6652 -1.1655  0.6379
32009SOL    HW2 7753   3.620   1.843   5.077 -0.3890  1.4969  0.7176
32010SOL     OW 7754   5.174   0.748   1.495 -0.3246 -0.8274  0.8811
32010SOL    HW1 7755   5.103   0.764   1.557  0.5870 -1.4154  2.1190
32010SOL    HW2 7756   5.248   0.799   1.529  0.4437 -1.8428  0.7759
32011SOL     OW 7757   1.195   8.845  10.078  0.0451  0.5081 -0.3136
32011SOL    HW1 7758   1.162   8.895  10.003 -1.5610  0.1384  0.1308
32011SOL    HW2 7759   1.118   8.821  10.128  0.9433 -0.8355  0.4974
32012SOL     OW 7760   4.664  10.221   1.869  0.3091  0.5687 -0.2698
32012SOL    HW1 7761   4.596  10.178   1.818  0.4185 -0.0546  0.0992
32012SOL    HW2 7762   4.740  10.162   1.863  0.2036  0.2840  0.9276
32013SOL     OW 7763   3.719   6.026   5.323 -0.1255  0.0216 -0.9551
32013SOL    HW1 7764   3.634   6.035   5.280  0.6612 -0.6192 -2.7267
32013SOL    HW2 7765   3.725   6.101   5.381 -1.3631  0.7841 -1.7751
32014SOL     OW 7766   1.456  13.302  11.510  0.7893 -0.2073 -0.0016
32014SOL    HW1 7767   1.382  13.330  11.455  0.7797  0.8928  0.5450
32014SOL    HW2 7768   1.441  13.345  11.594  1.8335 -0.2987  0.2449
32015SOL     OW 7769   1.728  12.823   3.104  0.6743 -0.3980  0.2340
32015SOL    HW1 7770   1.789  12.897   3.110  1.3964 -1.0728  1.7080
32015SOL    HW2 7771   1.733  12.780   3.190  0.2076 -2.1041 -0.5414
32016SOL     OW 7772   9.002   5.935  12.738 -0.2198  0.2940 -0.0804
32016SOL    HW1 7773   9.069   5.868  12.739  1.3912  1.8360 -0.1063
32016SOL    HW2 7774   8.921   5.888  12.758  0.2845 -2.1560 -3.0182
32017SOL     OW 7775   9.855  12.653   7.939 -0.0483 -0.4881  0.5540
32017SOL    HW1 7776   9.911  12.579   7.915 -0.6656 -1.0512  0.8178
32017SOL    HW2 7777   9.837  12.697   7.856  0.0251 -0.8460  0.3437
32018SOL     OW 7778   2.038   9.427   9.760  0.1077 -0.3443 -0.1213
32018SOL    HW1 7779   2.067   9.351   9.709  2.2495 -0.1372  0.6867
32018SOL    HW2 7780   2.023   9.495   9.695  1.5263 -0.4704 -0.6093
32019SOL     OW 7781   5.963   1.051   2.156 -0.0540 -0.7673  0.1310
32019SOL    HW1 7782   6.017   0.972   2.147  0.0755 -0.8767  1.5658
32019SOL    HW2 7783   5.923   1.062   2.070  1.1900 -1.4586 -0.5794
32020SOL     OW 7784  13.219   6.726   3.858  0.1413 -0.5677  0.0055
32020SOL    HW1 7785  13.148   6.776   3.898 -0.0298 -0.8950  0.1217
32020SOL    HW2 7786  13.251   6.781   3.786  0.3033 -0.0712  0.4536
32021SOL     OW 7787  13.410   2.999   8.652 -0.7620 -0.4543 -0.0364
32021SOL    HW1 7788  13.501   3.001   8.621 -0.8517  1.8968 -0.2844
32021SOL    HW2 7789  13.414   2.950   8.734  1.2105  1.6101  1.2269
32022SOL     OW 7790   9.824  10.596  11.578  0.5116  0.1895  0.1984
32022SOL    HW1 7791   9.770  10.537  11.525  1.9215 -0.9113 -0.1009
32022SOL    HW2 7792   9.776  10.679  11.579 -1.7831 -1.0554  1.0188
32023SOL     OW 7793   6.427   6.678   8.831 -0.8562 -0.4864  0.3115
32023SOL    HW1 7794   6.438   6.586   8.806 -0.3316 -0.1953 -0.5929
32023SOL    HW2 7795   6.362   6.711   8.769  0.2031  0.1675 -0.4763
32024SOL     OW 7796   3.888   8.502  12.866  0.5140 -0.1366 -0.2990
32024SOL    HW1 7797   3.901   8.499  12.961 -0.2069 -0.8557 -0.2129
32024SOL    HW2 7798   3.931   8.423  12.834 -0.4427 -0.6282 -0.4038
32025SOL     OW 7799  13.368   4.852   2.875 -0.2140 -0.2887 -0.2981
32025SOL    HW1 7800  13.386   4.856   2.969 -1.0643 -1.2785 -0.0746
32025SOL    HW2 7801  13.283   4.808   2.869  0.2898 -1.1526 -1.5729
32026SOL     OW 7802   7.583  12.731  10.742  0.0333 -0.3012  0.2272
32026SOL    HW1 7803   7.609  12.776  10.661 -0.3549  0.2233  0.3844
32026SOL    HW2 7804   7.492  12.706  10.727 -0.0187 -0.2622  0.4735
32027SOL     OW 7805   9.290   1.216   6.208 -0.7749 -0.0606  0.0372
32027SOL    HW1 7806   9.264   1.129   6.179 -0.6219 -0.3672  0.7899
32027SOL    HW2 7807   9.386   1.216   6.203 -0.6875 -0.4107  1.2909
32028SOL     OW 7808   9.776  13.633   4.977 -0.0337  0.4792 -0.1500
32028SOL    HW1 7809   9.852  13.676   5.015 -1.0119  1.1920  1.0429
32028SOL    HW2 7810   9.784  13.542   5.006  0.6695  0.4048 -0.5422
32029SOL     OW 7811   8.262   0.951   5.729  0.3024 -0.1994  0.3208
32029SOL    HW1 7812   8.195   0.882   5.733 -0.1480  0.2720  1.1199
32029SOL    HW2 7813   8.213   1.033   5.732  0.8185  0.1812 -0.8779
32030SOL     OW 7814   0.652   9.858   4.112  0.5000 -0.0063 -0.2824
32030SOL    HW1 7815   0.668   9.951   4.096  1.1514 -0.2251 -0.9388
32030SOL    HW2 7816   0.739   9.819   4.116  0.2303 -0.5831  0.0347
32031SOL     OW 7817   1.755   4.945   1.626 -0.4726 -0.3905  0.3852
32031SOL    HW1 7818   1.731   4.984   1.542 -0.7057  0.5697  0.8824
32031SOL    HW2 7819   1.845   4.915   1.614  0.0248  1.0791  0.2367
32032SOL     OW 7820   9.515  13.606   7.429 -0.1484 -0.1660 -0.3907
32032SOL    HW1 7821   9.600  13.569   7.454 -0.8595 -0.9268  1.0306
32032SOL    HW2 7822   9.462  13.597   7.508 -1.6233  0.0771 -1.3320
32033SOL     OW 7823   8.139   8.475   7.087  0.4855  0.4102  0.5811
32033SOL    HW1 7824   8.125   8.539   7.017 -0.6510  0.9926  1.3072
32033SOL    HW2 7825   8.050   8.449   7.113  0.8864 -2.3542 -0.4609
32034SOL     OW 7826  11.631   9.623   5.681  0.0759 -0.5227 -0.4675
32034SOL    HW1 7827  11.663   9.540   5.645  2.2259 -0.2034  0.5874
32034SOL    HW2 7828  11.708   9.665   5.718 -1.1512  1.5114 -0.0680
32035SOL     OW 7829   0.053   3.733   0.250 -0.3779 -0.0644  0.0904
32035SOL    HW1 7830   0.026   3.641   0.258  0.8925 -0.9239 -3.5667
32035SOL    HW2 7831  -0.012   3.772   0.192  0.5851  0.5943 -0.5761
32036SOL     OW 7832   7.854   7.841   5.322 -0.3995  0.4562  0.5383
32036SOL    HW1 7833   7.794   7.877   5.386 -1.5026 -0.2682 -0.0514
32036SOL    HW2 7834   7.877   7.755   5.356 -0.5444  0.2994  0.2492
32037SOL     OW 7835   0.075   4.539   3.404  0.1851 -0.3649  0.0828
32037SOL    HW1 7836   0.098   4.575   3.490 -0.7229  1.0274 -0.2291
32037SOL    HW2 7837   0.131   4.587   3.343 -1.0241  0.5527 -0.3354
32038SOL     OW 7838   5.106  10.507  12.639 -1.1982 -0.9750 -0.2130
32038SOL    HW1 7839   5.086  10.589  12.685 -0.3576 -0.9763  0.1705
32038SOL    HW2 7840   5.095  10.529  12.546 -0.2326 -0.2088 -0.1564
32039SOL     OW 7841  11.479   6.939   1.506 -0.2896 -0.3832  0.9763
32039SOL    HW1 7842  11.465   7.034   1.502 -1.8778 -0.5431  1.9677
32039SOL    HW2 7843  11.473   6.918   1.599  2.4810 -1.1661  1.0764
32040SOL     OW 7844  11.544   2.686   7.405 -0.0320  0.3045  0.0374
32040SOL    HW1 7845  11.462   2.644   7.433  0.8307 -1.8720 -0.4665
32040SOL    HW2 7846  11.559   2.754   7.470 -0.9926 -0.8757  1.5840
32041SOL     OW 7847   0.199  13.719  12.615  0.6353 -0.1468  0.5640
32041SOL    HW1 7848   0.280  13.770  12.626  0.9004 -0.1106 -1.2677
32041SOL    HW2 7849   0.130  13.785  12.608  0.6762 -0.1173  0.4408
32042SOL     OW 7850   8.431   4.555   1.401 -0.2563  0.0912  0.3892
32042SOL    HW1 7851   8.468   4.642   1.416 -1.6982  0.5439  1.5304
32042SOL    HW2 7852   8.427   4.547   1.306  1.0669  0.7372  0.2507
32043SOL     OW 7853  11.794   3.927   2.375  0.0102 -0.2996  0.3188
32043SOL    HW1 7854  11.769   3.851   2.427 -0.1353 -1.0583 -0.8284
32043SOL    HW2 7855  11.720   3.988   2.383 -0.9325 -1.2676 -0.6210
32044SOL     OW 7856  10.813   0.550   5.249 -0.1049  0.6155  0.0596
32044SOL    HW1 7857  10.830   0.538   5.156  0.3530 -0.8808  0.3120
32044SOL    HW2 7858  10.856   0.634   5.270  1.0248  0.2764 -0.7803
32045SOL     OW 7859  13.023   5.473   6.376 -0.2545  0.3189 -0.8947
32045SOL    HW1 7860  13.072   5.394   6.354  1.2101  0.7640  0.6042
32045SOL    HW2 7861  13.089   5.539   6.392 -1.3121  0.9868  1.0412
32046SOL     OW 7862  12.067  11.491   8.318  0.4682  0.2108 -0.7511
32046SOL    HW1 7863  12.128  11.476   8.390  0.8647 -0.9385 -1.2906
32046SOL    HW2 7864  12.067  11.585   8.305  0.6152  0.4076  0.5512
32047SOL     OW 7865   1.686  11.164  10.463 -0.3386 -0.4465  0.5713
32047SOL    HW1 7866   1.652  11.177  10.375 -0.1974  2.6938  0.8605
32047SOL    HW2 7867   1.766  11.217  10.466 -0.3050 -0.5352  2.5465
32048SOL     OW 7868   7.314   6.665  11.185 -0.7386  0.5238 -0.2915
32048SOL    HW1 7869   7.320   6.758  11.207  1.3932  0.2942  0.3379
32048SOL    HW2 7870   7.391   6.648  11.130 -1.7163 -0.6325 -1.3544
32049SOL     OW 7871  11.921  12.823   0.421 -0.0104 -0.3081  0.3474
32049SOL    HW1 7872  11.860  12.894   0.442  0.1560  0.0365 -0.2973
32049SOL    HW2 7873  11.875  12.744   0.446 -0.3669  0.0080  0.6963
32050SOL     OW 7874   7.423   6.418   9.721 -0.1868 -0.2412 -0.2114
32050SOL    HW1 7875   7.505   6.404   9.769  0.8053 -0.5026 -1.8958
32050SOL    HW2 7876   7.357   6.431   9.789  1.3527  0.5849  1.1952
32051SOL     OW 7877  11.051   8.145   8.964 -0.1701  0.2331 -0.5018
32051SOL    HW1 7878  11.030   8.147   9.058  1.0964  1.5797 -0.2112
32051SOL    HW2 7879  10.971   8.113   8.923 -0.1460 -2.2098  1.1703
32052SOL     OW 7880  10.740   2.319   6.020 -0.3458  0.0294 -0.3450
32052SOL    HW1 7881  10.665   2.374   6.042 -0.8860 -1.3282  1.3930
32052SOL    HW2 7882  10.793   2.318   6.100 -0.7856 -2.6132 -0.0100
32053SOL     OW 7883   8.465   5.961   7.813  0.3263  0.0794 -0.0328
32053SOL    HW1 7884   8.392   5.914   7.773 -1.1350  1.5861  0.7758
32053SOL    HW2 7885   8.526   5.892   7.839 -1.8399 -1.4330  1.3253
32054SOL     OW 7886  13.645   0.612   5.180 -0.6683  0.8736  0.2997
32054SOL    HW1 7887  13.679   0.699   5.162  0.3666  0.3604 -0.3090
32054SOL    HW2 7888  13.551   0.625   5.193 -0.6195  1.9973 -0.3554
32055SOL     OW 7889  10.821   4.564   4.463  0.2266 -0.1847  0.3681
32055SOL    HW1 7890  10.799   4.656   4.449 -1.9498 -0.6281  0.5467
32055SOL    HW2 7891  10.897   4.567   4.522 -0.3550  1.4927  1.1024
32056SOL     OW 7892  11.901   5.695   4.462 -0.0136 -0.4876 -0.4243
32056SOL    HW1 7893  11.858   5.746   4.394 -1.3978  2.7792  2.5742
32056SOL    HW2 7894  11.835   5.686   4.531  1.9781 -1.4178  1.4995
32057SOL     OW 7895   2.623   2.735  11.019  0.1934 -0.4214 -0.5641
32057SOL    HW1 7896   2.619   2.793  10.943 -0.9590 -0.0547 -0.2302
32057SOL    HW2 7897   2.708   2.755  11.059  0.3198  0.1858 -1.1156
32058SOL     OW 7898   9.230   3.672   7.820  0.5217 -0.2584 -0.4624
32058SOL    HW1 7899   9.245   3.717   7.903 -0.1640 -0.2548 -0.3348
32058SOL    HW2 7900   9.290   3.714   7.758  0.3435  0.3921 -0.1948
32059SOL     OW 7901   6.618   3.444   6.604 -0.6503 -0.1585 -0.6779
32059SOL    HW1 7902   6.710   3.466   6.617 -0.5559 -0.7046 -0.4162
32059SOL    HW2 7903   6.571   3.521   6.638 -0.3431 -0.7156  1.1053
32060SOL     OW 7904   0.949   5.950   2.023 -0.0265 -0.1641  0.4139
32060SOL    HW1 7905   0.871   5.946   2.079  0.3084 -0.7787  0.8458
32060SOL    HW2 7906   1.002   6.021   2.060 -0.2298  0.0416  0.3133
32061SOL     OW 7907   8.251   2.736   2.932 -0.1212 -0.0037  0.4120
32061SOL    HW1 7908   8.255   2.831   2.944  2.0973 -0.0873  0.7482
32061SOL    HW2 7909   8.166   2.721   2.890  0.8344  2.5292 -2.9583
32062SOL     OW 7910   1.852   1.960  11.008  0.2639 -0.0338 -0.4475
32062SOL    HW1 7911   1.880   2.033  11.063 -0.0844 -1.0442  1.1598
32062SOL    HW2 7912   1.931   1.932  10.962  0.7986  0.2470  0.2815
32063SOL     OW 7913   9.684  13.426   0.410  0.6436 -0.3345  0.0043
32063SOL    HW1 7914   9.654  13.440   0.500 -1.2645 -0.4263 -0.5611
32063SOL    HW2 7915   9.636  13.349   0.380  1.6622 -0.6368 -0.9370
32064SOL     OW 7916   9.129  13.136  13.304 -0.2886  0.4274 -0.2385
32064SOL    HW1 7917   9.199  13.170  13.359  0.0946  1.2249 -1.1839
32064SOL    HW2 7918   9.166  13.136  13.216 -0.7174 -1.3013 -0.4524
32065SOL     OW 7919   6.414   9.934   0.965  0.2304 -0.2245  0.3626
32065SOL    HW1 7920   6.327   9.928   0.926 -1.2645  0.5192  3.3032
32065SOL    HW2 7921   6.445  10.022   0.942  1.1419 -1.1586 -2.3089
32066SOL     OW 7922  10.567   8.578  11.172 -0.2401  0.1339 -0.3166
32066SOL    HW1 7923  10.502   8.613  11.111 -0.8566 -1.3352 -0.5481
32066SOL    HW2 7924  10.643   8.557  11.118 -0.4792 -0.3976 -0.4508
32067SOL     OW 7925   7.097   1.791   9.673 -0.5702  0.3274  0.5344
32067SOL    HW1 7926   7.004   1.785   9.653 -0.1567 -0.7408 -1.3031
32067SOL    HW2 7927   7.140   1.738   9.606  1.4991  2.1725  0.2900
32068SOL     OW 7928   1.579   9.442   1.828  0.5164 -0.5007 -0.2751
32068SOL    HW1 7929   1.527   9.389   1.767 -1.7458  1.6016 -0.3555
32068SOL    HW2 7930   1.556   9.532   1.806  1.2177  0.4100  2.3559
32069SOL     OW 7931   9.150   9.493  10.017 -0.6450  0.7232  0.0264
32069SOL    HW1 7932   9.202   9.512   9.939 -0.2145  1.0819  0.3915
32069SOL    HW2 7933   9.084   9.430   9.988  0.0555  0.1817 -0.4247
32070SOL     OW 7934   5.978   3.907  13.507 -0.1921 -0.2356 -0.3136
32070SOL    HW1 7935   5.898   3.855  13.511 -0.5859  0.3840  0.0433
32070SOL    HW2 7936   5.948   3.996  13.492  0.5901 -0.4095 -3.5116
32071SOL     OW 7937   7.950   2.146   9.296 -0.6896 -0.3178  0.1018
32071SOL    HW1 7938   7.927   2.081   9.229 -0.7555 -0.4901  0.2885
32071SOL    HW2 7939   7.867   2.166   9.339 -1.1818  1.9494 -1.7326
32072SOL     OW 7940   2.744  11.324   8.595 -0.2428 -0.0568  0.3794
32072SOL    HW1 7941   2.808  11.264   8.632  1.0721  0.3548 -1.0988
32072SOL    HW2 7942   2.667  11.314   8.650  1.8558  1.3228  3.9286
32073SOL     OW 7943   3.799   3.786   9.432 -0.8441  0.2389  0.3702
32073SOL    HW1 7944   3.768   3.876   9.418 -2.4290 -0.0939  1.5173
32073SOL    HW2 7945   3.838   3.761   9.349  0.2737  2.2328  0.2403
32074SOL     OW 7946  12.655   3.170   3.459 -0.2636 -0.2123  0.0026
32074SOL    HW1 7947  12.743   3.197   3.435 -0.1400  0.7280  1.3959
32074SOL    HW2 7948  12.600   3.247   3.442 -0.5209 -0.2339  0.7001
32075SOL     OW 7949   4.252  11.289   4.909 -0.6135  0.2622 -0.6863
32075SOL    HW1 7950   4.293  11.285   4.995 -0.6029 -0.8964 -0.7207
32075SOL    HW2 7951   4.178  11.227   4.915 -1.4069  1.1405 -1.1066
32076SOL     OW 7952  10.619   5.288   3.905  0.1221  0.2807 -0.3672
32076SOL    HW1 7953  10.646   5.235   3.979 -0.0683  0.0571 -0.4564
32076SOL    HW2 7954  10.641   5.378   3.930 -1.2997  0.3881  0.5872
32077SOL     OW 7955  13.411   1.800   7.885 -0.6332  0.3226  0.3689
32077SOL    HW1 7956  13.441   1.887   7.859  0.7679 -0.9425 -2.7569
32077SOL    HW2 7957  13.488   1.757   7.922 -0.9379 -0.0451  0.5933
32078SOL     OW 7958  11.030   6.083  10.292  0.1049 -0.5149  0.1792
32078SOL    HW1 7959  11.001   6.165  10.253 -0.8158 -0.7571  0.3378
32078SOL    HW2 7960  11.042   6.103  10.385  1.9355 -0.0351 -0.1077
32079SOL     OW 7961   0.772   2.683  11.379 -0.0342  0.4125  0.1953
32079SOL    HW1 7962   0.679   2.661  11.380 -0.2911  1.4790  0.9937
32079SOL    HW2 7963   0.809   2.636  11.454  0.1680 -0.3374 -0.3581
32080SOL     OW 7964   1.921  13.183   9.429  0.4945 -0.1648 -0.3277
32080SOL    HW1 7965   1.950  13.274   9.423 -0.0817  0.0085 -0.6119
32080SOL    HW2 7966   1.842  13.186   9.484  0.6456 -0.5368 -0.0819
32081SOL     OW 7967   3.527  10.297   4.119  0.0587  0.2356  0.3759
32081SOL    HW1 7968   3.579  10.327   4.194  1.4592 -0.6833 -0.1916
32081SOL    HW2 7969   3.514  10.204   4.135 -0.3581  0.2039 -0.1261
32082SOL     OW 7970   2.927   4.033   7.629 -0.3064  0.1569  0.1638
32082SOL    HW1 7971   3.001   4.093   7.617 -1.6219  1.5498 -1.5232
32082SOL    HW2 7972   2.925   3.981   7.548 -1.0349 -0.0169  0.2893
32083SOL     OW 7973   5.906   5.843   6.244  0.3773 -0.2110 -0.5164
32083SOL    HW1 7974   5.987   5.795   6.259  0.6531 -0.5255 -2.6813
32083SOL    HW2 7975   5.934   5.932   6.226 -0.0126  0.4064  1.6704
32084SOL     OW 7976   4.986  10.579   2.318  0.1065 -0.1704  0.3860
32084SOL    HW1 7977   4.953  10.656   2.270  1.9913  0.4410  0.0081
32084SOL    HW2 7978   5.025  10.523   2.250 -1.7788 -1.8228  0.5671
32085SOL     OW 7979   8.693  12.852   1.633 -0.2794  0.1388  0.3471
32085SOL    HW1 7980   8.661  12.942   1.630  0.8973  0.5543  0.1237
32085SOL    HW2 7981   8.668  12.821   1.721  2.1199  1.7485  1.6984
32086SOL     OW 7982   9.689  12.815   3.092 -0.2150 -0.1098 -0.1404
32086SOL    HW1 7983   9.751  12.757   3.136  1.0301  0.7261 -0.7323
32086SOL    HW2 7984   9.718  12.816   3.000 -0.7210  0.8019 -0.3038
32087SOL     OW 7985   8.199  13.072   9.940 -0.4546  0.1162  0.5092
32087SOL    HW1 7986   8.168  13.162   9.948 -0.6470  0.1906 -0.8365
32087SOL    HW2 7987   8.251  13.057  10.019 -1.8341  0.8201  1.5931
32088SOL     OW 7988   6.242   7.289  12.922 -0.3142 -0.1666 -0.3931
32088SOL    HW1 7989   6.210   7.372  12.885  0.8742 -0.1285 -1.4171
32088SOL    HW2 7990   6.336   7.303  12.933 -0.0428 -1.4818 -0.8701
32089SOL     OW 7991   6.878   3.815   9.254  0.3531  0.1670  0.5883
32089SOL    HW1 7992   6.789   3.834   9.283  0.4860 -0.6365  1.5916
32089SOL    HW2 7993   6.872   3.729   9.213  0.6499  0.1165  0.6429
32090SOL     OW 7994  13.532  12.175   1.700 -0.1071 -0.2526 -0.2131
32090SOL    HW1 7995  13.597  12.225   1.750 -0.5983  0.2133 -0.0335
32090SOL    HW2 7996  13.450  12.188   1.747 -0.9429  1.5465 -1.9928
32091SOL     OW 7997  11.320   8.581  12.139  0.0968  0.1350 -0.2684
32091SOL    HW1 7998  11.384   8.545  12.201 -0.5042 -0.6957 -0.1011
32091SOL    HW2 7999  11.367   8.584  12.055 -0.1741 -2.3620 -0.6077
32092SOL     OW 8000   8.802   5.548   5.179 -0.2534  0.4683  0.1188
32092SOL    HW1 8001   8.889   5.527   5.145  0.4330 -0.3707  2.2055
32092SOL    HW2 8002   8.743   5.527   5.107  1.2263  0.7348 -1.2376
32093SOL     OW 8003  10.737  12.762   4.369 -0.2778  0.2497 -0.1207
32093SOL    HW1 8004  10.826  12.725   4.376  1.0793  2.7596 -2.5116
32093SOL    HW2 8005  10.725  12.809   4.451  0.8482  0.3755 -0.0098
32094SOL     OW 8006   9.602   8.507   7.578  0.4304 -0.3318 -0.2203
32094SOL    HW1 8007   9.647   8.431   7.614  0.7471  0.6291  1.5595
32094SOL    HW2 8008   9.668   8.552   7.525  1.2792  0.4549  1.4400
32095SOL     OW 8009   6.659   8.607   2.845 -0.2483 -0.2038 -0.6422
32095SOL    HW1 8010   6.620   8.559   2.772 -0.1083  0.6644 -1.3186
32095SOL    HW2 8011   6.590   8.666   2.875 -0.2279 -0.3905 -0.2270
32096SOL     OW 8012   5.074   3.422   5.951  0.0396 -0.0340  0.3317
32096SOL    HW1 8013   5.018   3.429   6.029 -0.4859  1.0694 -0.1207
32096SOL    HW2 8014   5.163   3.432   5.985 -0.1184 -0.3934  0.8829
32097SOL     OW 8015   2.358   8.003   2.502 -0.0499  0.1410 -0.4046
32097SOL    HW1 8016   2.350   8.056   2.582 -0.5878  0.6070 -0.7631
32097SOL    HW2 8017   2.278   7.951   2.500  0.8092 -1.2959  0.3586
32098SOL     OW 8018   7.467   5.646  13.081 -0.5377  0.1850 -0.1064
32098SOL    HW1 8019   7.402   5.629  13.149  0.3635 -1.3160  0.4335
32098SOL    HW2 8020   7.415   5.656  13.001 -1.5391  0.8334  0.5953
32099SOL     OW 8021  11.984   8.669   8.518 -0.2646 -0.8233  0.1356
32099SOL    HW1 8022  12.069   8.653   8.557 -0.4318  0.6008  1.1705
32099SOL    HW2 8023  11.953   8.583   8.491  0.4921 -1.6693  1.8422
32100SOL     OW 8024   4.827  12.222   6.537 -0.5663 -0.5044  0.0595
32100SOL    HW1 8025   4.825  12.309   6.496  0.8500 -0.5335 -0.1279
32100SOL    HW2 8026   4.737  12.190   6.529 -0.3036 -0.7870 -3.6995
32101SOL     OW 8027  11.699   5.812   6.775  0.3049 -0.6501  0.1177
32101SOL    HW1 8028  11.732   5.836   6.688  0.0335  2.1451  0.6986
32101SOL    HW2 8029  11.604   5.804   6.762  0.4908 -2.6894 -0.2947
32102SOL     OW 8030  13.357  12.261   4.498  1.0216  0.5185  0.1850
32102SOL    HW1 8031  13.364  12.238   4.405 -1.2387 -0.0666  0.1075
32102SOL    HW2 8032  13.436  12.224   4.537  2.1272  0.9556 -1.5092
32103SOL     OW 8033   1.695   4.451   6.220  0.1042  0.5706  0.4399
32103SOL    HW1 8034   1.770   4.408   6.260  0.7082  0.3464 -0.8771
32103SOL    HW2 8035   1.699   4.425   6.128 -0.3689  2.2429 -0.0882
32104SOL     OW 8036  10.524   0.337   1.616  0.7982  0.7490  0.1226
32104SOL    HW1 8037  10.528   0.268   1.682 -1.1177 -0.2133 -0.6711
32104SOL    HW2 8038  10.504   0.416   1.666  1.1435  0.3740  0.8679
32105SOL     OW 8039   1.766   7.465  10.646  0.3594 -0.4610  0.4206
32105SOL    HW1 8040   1.782   7.529  10.577  2.9153 -2.7043 -1.2309
32105SOL    HW2 8041   1.760   7.518  10.726  0.0405  1.9910 -1.1223
32106SOL     OW 8042   8.876   1.280   7.591  0.2397 -0.6400 -0.0447
32106SOL    HW1 8043   8.892   1.350   7.655  2.1319 -0.8644 -0.1970
32106SOL    HW2 8044   8.914   1.202   7.631 -0.6856 -1.3022 -0.4384
32107SOL     OW 8045  13.544  12.306  13.230 -0.2611  0.1576 -0.4138
32107SOL    HW1 8046  13.628  12.260  13.237 -0.5670 -0.3607 -0.0559
32107SOL    HW2 8047  13.480  12.245  13.268 -0.9942  0.0249 -1.7983
32108SOL     OW 8048   2.744  12.804   7.887 -0.4020  0.3259 -0.1710
32108SOL    HW1 8049   2.791  12.721   7.884  0.2338  0.5570  1.7451
32108SOL    HW2 8050   2.661  12.787   7.842  0.1200 -1.0556 -0.6536
32109SOL     OW 8051   3.259   4.196  10.213  0.1587 -0.4377  0.4665
32109SOL    HW1 8052   3.256   4.291  10.207  1.1084 -0.4545 -0.6963
32109SOL    HW2 8053   3.215   4.175  10.295 -0.8662  0.9445  0.2989
32110SOL     OW 8054   3.474   1.271   0.067 -0.1430 -0.9122  0.2141
32110SOL    HW1 8055   3.478   1.359   0.104  0.7198 -1.2460  0.9881
32110SOL    HW2 8056   3.561   1.258   0.028 -0.7368 -0.9148 -1.1259
32111SOL     OW 8057   8.346   8.766   0.369 -0.4776 -0.8124 -0.1138
32111SOL    HW1 8058   8.393   8.792   0.290  0.5612 -1.1758  0.3623
32111SOL    HW2 8059   8.322   8.675   0.354 -0.6943 -0.7398 -0.2053
32112SOL     OW 8060   6.544   8.466   5.235 -0.3107 -0.0518  0.2285
32112SOL    HW1 8061   6.463   8.447   5.188  0.3052  0.2227 -0.9914
32112SOL    HW2 8062   6.522   8.538   5.294 -0.7077  0.7474 -0.8650
32113SOL     OW 8063   1.120   8.935   8.268 -0.1087 -0.0628  0.3378
32113SOL    HW1 8064   1.060   8.863   8.246 -0.2097  0.1572 -0.1022
32113SOL    HW2 8065   1.064   9.001   8.309 -0.1198  0.0338  0.1646
32114SOL     OW 8066   0.824   3.150  10.607 -0.7394  0.1870  0.3908
32114SOL    HW1 8067   0.736   3.169  10.638 -0.4449  1.0560  0.7220
32114SOL    HW2 8068   0.877   3.146  10.687 -0.6594 -1.5153  0.3074
32115SOL     OW 8069   8.887   8.173   5.529  0.1207 -1.0198 -0.2891
32115SOL    HW1 8070   8.815   8.154   5.589 -0.1763  1.0209  0.1009
32115SOL    HW2 8071   8.845   8.216   5.454  0.8400 -0.4901 -0.4009
32116SOL     OW 8072  11.054   7.615  11.394 -0.0962  0.4098 -0.5153
32116SOL    HW1 8073  11.000   7.664  11.457  1.0647 -3.2846  3.8396
32116SOL    HW2 8074  11.141   7.654  11.402  0.5659 -1.3702  2.0908
32117SOL     OW 8075  13.440  10.947   7.956  0.1409 -0.1159  0.1957
32117SOL    HW1 8076  13.432  11.018   8.020  0.4858  0.3847 -0.3046
32117SOL    HW2 8077  13.534  10.939   7.940  0.0807 -0.4714  0.0143
32118SOL     OW 8078   3.303   3.150  10.820  0.5673  0.7754 -0.2730
32118SOL    HW1 8079   3.248   3.101  10.760  0.5685  0.5833 -0.1193
32118SOL    HW2 8080   3.381   3.094  10.832 -0.2801 -0.1259  1.4272
32119SOL     OW 8081   3.902   3.070  12.575  0.1309 -0.1033  0.0661
32119SOL    HW1 8082   3.846   3.139  12.541 -0.9848 -1.2934 -0.5964
32119SOL    HW2 8083   3.880   3.065  12.668 -0.7777 -0.4455 -0.1539
32120SOL     OW 8084   1.675   0.128   5.893 -0.1986 -0.2465  0.7716
32120SOL    HW1 8085   1.751   0.073   5.911  0.8386  0.7211 -0.4170
32120SOL    HW2 8086   1.698   0.214   5.927  0.6745  0.8985 -2.3686
32121SOL     OW 8087   7.087   9.349   1.907  0.1487  0.4039 -0.3720
32121SOL    HW1 8088   7.076   9.395   1.990 -1.1233 -0.5047 -0.0045
32121SOL    HW2 8089   7.105   9.258   1.932  1.2010  0.3989 -1.0905
32122SOL     OW 8090   4.114  10.022  12.024  0.2826 -0.2612  0.0551
32122SOL    HW1 8091   4.133   9.936  12.060  0.2683  0.2626  1.3540
32122SOL    HW2 8092   4.022  10.038  12.045  0.1818 -0.0732 -0.4985
32123SOL     OW 8093   1.627   1.631   6.261 -0.0432  0.1560  0.2607
32123SOL    HW1 8094   1.682   1.635   6.182 -0.0772  0.5633  0.2550
32123SOL    HW2 8095   1.648   1.711   6.309  1.6992 -1.1469  1.8394
32124SOL     OW 8096  12.488  13.135   9.360  0.1029 -0.1542 -0.0380
32124SOL    HW1 8097  12.397  13.129   9.333  0.6899  1.8420 -2.9429
32124SOL    HW2 8098  12.538  13.127   9.278  2.4263  0.7732  1.1895
32125SOL     OW 8099   4.383   1.620   2.904  0.0483 -0.2240  0.5019
32125SOL    HW1 8100   4.400   1.530   2.931  2.5485 -0.0583 -0.2484
32125SOL    HW2 8101   4.468   1.653   2.875 -1.1230  1.8280 -0.8963
32126SOL     OW 8102   0.949   3.365   0.907  0.3278 -0.1462  0.4496
32126SOL    HW1 8103   0.961   3.443   0.854 -0.0183 -0.4004 -0.0205
32126SOL    HW2 8104   0.997   3.296   0.859  1.9999  0.0913  1.6860
32127SOL     OW 8105   9.403  10.104   5.615  0.2391  0.0320  0.4811
32127SOL    HW1 8106   9.367  10.039   5.555 -0.7522  0.3774  0.6798
32127SOL    HW2 8107   9.480  10.138   5.571 -0.8989  0.8319 -0.9521
32128SOL     OW 8108   4.476   3.037  10.339  0.4580 -0.3621  0.1632
32128SOL    HW1 8109   4.430   3.117  10.311 -0.3219 -0.6899  0.4681
32128SOL    HW2 8110   4.547   3.027  10.276  1.0169  0.9640  0.5356
32129SOL     OW 8111   8.869   5.264   0.223  0.9497 -0.7615  0.2419
32129SOL    HW1 8112   8.848   5.342   0.171  2.5831 -0.8540 -0.6243
32129SOL    HW2 8113   8.792   5.250   0.277  0.1269  0.7330 -0.4769
32130SOL     OW 8114  11.595   4.455   7.228  0.7457 -0.9764  0.4456
32130SOL    HW1 8115  11.689   4.441   7.236  0.3479 -3.0745  2.7450
32130SOL    HW2 8116  11.567   4.484   7.315 -0.9682 -2.5320  0.4929
32131SOL     OW 8117   4.950   3.317   0.208  0.0282 -0.3215  0.0590
32131SOL    HW1 8118   4.896   3.240   0.191  0.1259 -0.1605 -0.9941
32131SOL    HW2 8119   4.888   3.387   0.227 -0.1105 -0.2822 -0.5466
32132SOL     OW 8120   9.785   8.518   2.804 -0.0194  0.4664  0.1435
32132SOL    HW1 8121   9.772   8.552   2.893 -0.8341 -1.8535  0.9749
32132SOL    HW2 8122   9.873   8.545   2.780  0.3867  0.7389  1.8499
32133SOL     OW 8123   8.127   9.961   6.343 -0.4647  0.5510 -0.1709
32133SOL    HW1 8124   8.210   9.935   6.382 -0.8033  0.7352  0.7061
32133SOL    HW2 8125   8.060   9.925   6.402 -1.0150  0.0838 -1.0671
32134SOL     OW 8126   6.505   1.979   4.598  0.0102  0.2344  0.1210
32134SOL    HW1 8127   6.480   1.895   4.559  2.3739 -0.0368 -0.9243
32134SOL    HW2 8128   6.512   1.959   4.692 -0.5519 -0.4219  0.0412
32135SOL     OW 8129   8.102  12.145   6.764  0.4820 -0.2732  0.7297
32135SOL    HW1 8130   8.175  12.206   6.756  0.5909 -0.4119  0.6635
32135SOL    HW2 8131   8.136  12.073   6.818  0.0993  0.1185  1.4978
32136SOL     OW 8132   1.102   6.375  13.349 -0.4941 -0.2484 -0.1720
32136SOL    HW1 8133   1.032   6.375  13.284  0.0503 -0.5757 -0.7596
32136SOL    HW2 8134   1.137   6.464  13.346 -0.5470 -0.2297 -0.2369
32137SOL     OW 8135  10.781   4.049   1.451 -0.2051 -0.1994  0.0125
32137SOL    HW1 8136  10.780   3.956   1.473  0.3046 -0.2096 -0.0035
32137SOL    HW2 8137  10.744   4.053   1.362 -0.3404 -0.3707  0.0610
32138SOL     OW 8138  10.514   0.626   8.038  0.6340 -0.7253  0.5325
32138SOL    HW1 8139  10.506   0.557   8.104  0.6179 -1.6913 -0.4374
32138SOL    HW2 8140  10.429   0.669   8.038 -0.3754 -2.5546 -0.7587
32139SOL     OW 8141   3.767   9.541   4.243 -0.4294 -1.0541 -0.1223
32139SOL    HW1 8142   3.681   9.571   4.273 -0.4150 -2.0902  1.0227
32139SOL    HW2 8143   3.758   9.446   4.238  0.6782 -1.1769  0.0924
32140SOL     OW 8144   2.984   6.122  11.969  0.2519 -0.0768 -0.0380
32140SOL    HW1 8145   3.045   6.159  11.905  1.1461 -1.4164 -0.0166
32140SOL    HW2 8146   2.899   6.124  11.926  0.6252  0.1954 -0.7772
32141SOL     OW 8147   8.896   8.041   1.317  0.1653  0.2593 -1.0822
32141SOL    HW1 8148   8.950   8.053   1.239  0.1126  0.6691 -1.0586
32141SOL    HW2 8149   8.812   8.082   1.295  0.1227  0.3031 -0.8431
32142SOL     OW 8150  13.582   0.412  13.324 -0.5901  0.0645 -0.1687
32142SOL    HW1 8151  13.512   0.357  13.360 -0.0716  0.1034  0.9274
32142SOL    HW2 8152  13.592   0.381  13.234 -3.1434  1.1566 -0.9260
32143SOL     OW 8153   3.556   2.725   8.079  0.4614  0.3022 -0.0948
32143SOL    HW1 8154   3.617   2.685   8.141  3.1191  4.6207  0.4879
32143SOL    HW2 8155   3.583   2.690   7.994  1.2357 -0.6599  0.5160
32144SOL     OW 8156  11.602  10.086  13.404 -0.1191  0.4363 -0.6235
32144SOL    HW1 8157  11.696  10.090  13.389 -0.2495  0.9398 -1.3565
32144SOL    HW2 8158  11.592  10.027  13.479  0.7669  0.2919 -0.6095
32145SOL     OW 8159  12.996   5.301   5.192 -0.3650 -0.2557 -0.0528
32145SOL    HW1 8160  12.967   5.314   5.282 -2.6402 -0.0285 -0.7568
32145SOL    HW2 8161  13.049   5.378   5.172  0.7400 -0.6286  1.2620
32146SOL     OW 8162   0.464   0.911   2.061 -0.0373  0.3618 -0.0927
32146SOL    HW1 8163   0.519   0.953   1.995  3.0894  0.3714  2.3087
32146SOL    HW2 8164   0.430   0.833   2.017  0.1058  1.4897 -2.3387
32147SOL     OW 8165   8.315  13.170   8.514 -0.4376  0.0293 -0.3392
32147SOL    HW1 8166   8.388  13.148   8.571 -1.5322 -1.2959  0.5918
32147SOL    HW2 8167   8.249  13.207   8.572 -1.5048 -1.1751 -0.7513
32148SOL     OW 8168   8.219  10.419   0.006 -0.1338  0.5744  0.9315
32148SOL    HW1 8169   8.227  10.439   0.100  1.7705  1.0923  0.6947
32148SOL    HW2 8170   8.257  10.331  -0.002  0.4979  0.8800  0.5289
32149SOL     OW 8171   6.055   6.607  10.651 -0.3106  0.1251 -0.1848
32149SOL    HW1 8172   6.085   6.541  10.713  0.8695 -0.5053 -1.3960
32149SOL    HW2 8173   6.114   6.682  10.664 -0.7051  0.3832  0.1487
32150SOL     OW 8174  10.075   3.704  12.994 -0.3833  0.1464 -0.0744
32150SOL    HW1 8175  10.009   3.712  12.926  0.1999 -0.6522 -0.7550
32150SOL    HW2 8176  10.157   3.728  12.951 -0.0170 -0.3378  0.3399
32151SOL     OW 8177  12.563   7.423   2.258 -0.5382  0.0074  0.4474
32151SOL    HW1 8178  12.485   7.474   2.282 -0.8617  0.4179 -1.3215
32151SOL    HW2 8179  12.551   7.404   2.165  0.3791 -1.9185  0.6759
32152SOL     OW 8180   2.269   3.338   7.246 -0.1324  0.3695 -0.0272
32152SOL    HW1 8181   2.318   3.420   7.240  0.4076 -0.0484 -1.7005
32152SOL    HW2 8182   2.330   3.271   7.216 -1.0683 -0.4418 -0.1803
32153SOL     OW 8183   6.938  13.234   1.538  0.1022  0.1392  0.1995
32153SOL    HW1 8184   6.855  13.231   1.586  1.3017 -0.0485  2.4036
32153SOL    HW2 8185   6.932  13.164   1.474 -2.0099  1.1058 -0.7537
32154SOL     OW 8186   5.566  13.190  11.270 -0.0917  0.5866 -0.1890
32154SOL    HW1 8187   5.557  13.281  11.298  1.0649  0.6567  0.0355
32154SOL    HW2 8188   5.629  13.152  11.332  0.6442  0.0843 -1.2070
32155SOL     OW 8189  10.560   4.292   5.210  0.7149  0.1771 -0.2100
32155SOL    HW1 8190  10.546   4.284   5.304  1.1156 -0.6362 -0.2127
32155SOL    HW2 8191  10.536   4.382   5.190 -2.0848 -0.3810  0.2167
32156SOL     OW 8192   5.128  10.080   7.690  0.2675 -0.8294  0.0971
32156SOL    HW1 8193   5.169  10.080   7.604  0.5108 -0.4114  0.2066
32156SOL    HW2 8194   5.105   9.989   7.706  1.2065 -1.0916  0.0552
32157SOL     OW 8195   8.751   1.848   7.316  0.4518  0.1300  0.1219
32157SOL    HW1 8196   8.738   1.804   7.232 -1.3511 -0.4170  0.6305
32157SOL    HW2 8197   8.760   1.777   7.379  1.8976  0.5382  0.3936
32158SOL     OW 8198   3.948   2.439  11.468 -0.1985  0.4113  0.1909
32158SOL    HW1 8199   3.988   2.485  11.542 -0.6508  0.8896  0.1462
32158SOL    HW2 8200   3.956   2.501  11.395 -0.4833  0.2679  0.0380
32159SOL     OW 8201  10.517   3.271  10.467 -0.1079 -0.1483  0.0592
32159SOL    HW1 8202  10.522   3.352  10.517 -0.0080 -0.1900  0.1161
32159SOL    HW2 8203  10.600   3.265  10.421  0.0247 -0.3991  0.3313
32160SOL     OW 8204   0.597   8.508   4.143 -0.0762  0.0538  0.0945
32160SOL    HW1 8205   0.578   8.451   4.217 -2.8829 -2.5438 -2.3361
32160SOL    HW2 8206   0.536   8.581   4.153 -2.8044 -1.8883 -1.0851
32161SOL     OW 8207   5.804   2.075   9.597  0.6372 -0.2886  0.2090
32161SOL    HW1 8208   5.862   2.143   9.632  1.1216 -0.9722  0.7628
32161SOL    HW2 8209   5.769   2.113   9.516  0.9189  0.6043  0.4928
32162SOL     OW 8210   2.571   7.196   3.526  0.2845 -0.5882  0.3225
32162SOL    HW1 8211   2.627   7.274   3.529 -1.5581  0.8047  0.5878
32162SOL    HW2 8212   2.530   7.193   3.613 -1.6129 -0.3202 -0.5300
32163SOL     OW 8213  13.621   0.484   9.460 -0.4875 -0.4148 -0.2344
32163SOL    HW1 8214  13.621   0.457   9.552  0.1432 -0.2822 -0.1964
32163SOL    HW2 8215  13.621   0.580   9.463  2.7187 -0.3202 -0.3333
32164SOL     OW 8216   0.927   5.479   5.209 -0.0511  0.3390  0.4061
32164SOL    HW1 8217   0.848   5.517   5.249 -0.7041  0.0051 -0.5313
32164SOL    HW2 8218   0.978   5.447   5.283 -1.6259 -1.0321  0.9613
32165SOL     OW 8219   0.116  11.264  11.725 -0.5384  0.4726 -0.0130
32165SOL    HW1 8220   0.083  11.290  11.639 -1.9028  0.0660  0.3626
32165SOL    HW2 8221   0.090  11.335  11.784  1.5204  1.3836 -0.1193
32166SOL     OW 8222  10.239   9.787  12.970  0.0159 -0.3765 -0.2828
32166SOL    HW1 8223  10.264   9.843  12.897  0.1808 -2.3591 -1.8430
32166SOL    HW2 8224  10.246   9.843  13.047  1.7916  1.2526 -1.5367
32167SOL     OW 8225  12.930  13.419   6.223  0.5174 -0.2774  0.5371
32167SOL    HW1 8226  13.020  13.448   6.237  0.6366 -0.4004  0.0407
32167SOL    HW2 8227  12.921  13.414   6.128 -0.2320  0.4255  0.5628
32168SOL     OW 8228  13.392   4.443   9.786  0.1890 -0.3292 -0.1573
32168SOL    HW1 8229  13.319   4.405   9.737 -0.1273  1.2467 -1.0088
32168SOL    HW2 8230  13.350   4.503   9.848  0.7192  0.7636 -0.8084
32169SOL     OW 8231   2.180  12.641  13.521 -0.3026 -0.3563  0.0860
32169SOL    HW1 8232   2.103  12.624  13.575 -0.4693  0.4907  0.1357
32169SOL    HW2 8233   2.147  12.645  13.432 -0.3552  0.1968  0.1266
32170SOL     OW 8234  13.298   5.367   2.050 -0.7439 -0.8058 -0.1848
32170SOL    HW1 8235  13.216   5.415   2.054 -0.4407 -0.3136  0.3277
32170SOL    HW2 8236  13.273   5.275   2.055 -1.2015 -0.6299  1.3663
32171SOL     OW 8237  13.742   4.635  12.098 -0.0371 -0.1133  0.8478
32171SOL    HW1 8238  13.825   4.599  12.066  0.1925  0.6707  0.5489
32171SOL    HW2 8239  13.736   4.721  12.057 -0.9517 -0.1194  0.9559
32172SOL     OW 8240  11.660   9.415   8.900 -0.9554  0.4704  0.4911
32172SOL    HW1 8241  11.607   9.362   8.840 -1.4927  1.2358  0.2792
32172SOL    HW2 8242  11.599   9.481   8.934 -0.4555  0.5610  1.2479
32173SOL     OW 8243  10.053   7.341   0.863  0.3354  0.0162  0.7592
32173SOL    HW1 8244  10.133   7.394   0.869  0.3596  0.0747  0.0695
32173SOL    HW2 8245  10.064   7.273   0.928  1.1332 -0.2091  0.4050
32174SOL     OW 8246   7.658  11.674   0.228 -0.1536 -0.0941 -0.2285
32174SOL    HW1 8247   7.562  11.673   0.235 -0.1034 -0.1692  0.5294
32174SOL    HW2 8248   7.687  11.601   0.283  0.2020 -2.3989 -3.2119
32175SOL     OW 8249   5.573   2.341  13.104  0.1075  0.0412  0.1764
32175SOL    HW1 8250   5.663   2.374  13.099  0.4660 -1.0437 -1.3008
32175SOL    HW2 8251   5.523   2.399  13.047  0.4448 -0.9498 -1.1969
32176SOL     OW 8252   6.363  10.066   3.058 -0.2393  0.1375  0.4023
32176SOL    HW1 8253   6.363   9.985   3.109  1.1117 -0.9444 -1.2239
32176SOL    HW2 8254   6.432  10.119   3.098  1.0686 -0.8570 -0.4334
32177SOL     OW 8255  10.657   1.441   9.783  0.3456  0.2325 -0.0681
32177SOL    HW1 8256  10.738   1.390   9.787  1.7512  2.2898 -0.7797
32177SOL    HW2 8257  10.626   1.444   9.874  1.1616 -0.4579  0.2364
32178SOL     OW 8258  12.856  12.187   4.413 -0.1484  0.1235  0.0349
32178SOL    HW1 8259  12.771  12.174   4.370  0.6900 -0.8114 -1.3820
32178SOL    HW2 8260  12.847  12.139   4.496 -1.0682  0.1751 -0.0248
32179SOL     OW 8261   2.371   6.642  12.582  0.4481  0.3301 -0.1937
32179SOL    HW1 8262   2.426   6.581  12.534 -0.3158 -0.9512  0.4890
32179SOL    HW2 8263   2.303   6.587  12.621 -1.2743  1.8219 -0.9226
32180SOL     OW 8264   6.062   4.161   6.778  0.0134  0.2658 -0.9648
32180SOL    HW1 8265   6.155   4.181   6.771  0.1784  0.5019  1.2440
32180SOL    HW2 8266   6.029   4.221   6.845 -1.0102 -1.9774  0.6807
32181SOL     OW 8267   2.262   0.257   3.981 -0.6041 -0.0325 -0.5758
32181SOL    HW1 8268   2.354   0.269   3.960 -0.3335  0.2791  0.6741
32181SOL    HW2 8269   2.227   0.206   3.908  0.5820 -0.2852 -0.9956
32182SOL     OW 8270   4.333   6.427   9.592 -0.6463  0.9007 -0.2826
32182SOL    HW1 8271   4.418   6.472   9.597  0.6052 -1.3218  0.2304
32182SOL    HW2 8272   4.344   6.366   9.519 -0.6311 -1.5003  1.6001
32183SOL     OW 8273   6.981   5.724   1.618 -0.2445 -0.2961  0.6298
32183SOL    HW1 8274   6.974   5.775   1.538  0.0122 -0.3140  0.5928
32183SOL    HW2 8275   7.068   5.685   1.613  1.6229  3.0568  2.8935
32184SOL     OW 8276   3.259  10.334   2.088 -0.2928  0.0108  0.2076
32184SOL    HW1 8277   3.283  10.278   2.162 -0.8081 -0.4059  0.0588
32184SOL    HW2 8278   3.336  10.332   2.031  0.1839  0.4988  0.8304
32185SOL     OW 8279  11.926  12.413   8.767  0.2853 -0.2115  0.0022
32185SOL    HW1 8280  11.871  12.469   8.822  1.6593  0.0107  1.2087
32185SOL    HW2 8281  11.884  12.327   8.770 -0.0487 -0.0262  0.7866
32186SOL     OW 8282   8.628   7.561   7.513  0.1022  0.2587  0.5678
32186SOL    HW1 8283   8.599   7.644   7.550  0.2630 -0.3804  2.1822
32186SOL    HW2 8284   8.619   7.498   7.584 -1.0037 -1.3511 -0.9225
32187SOL     OW 8285  13.629   4.673  11.759  0.3858  0.0095  0.1159
32187SOL    HW1 8286  13.662   4.705  11.842  0.0837  0.4233  0.0804
32187SOL    HW2 8287  13.677   4.722  11.692 -1.8896  2.4085  0.0480
32188SOL     OW 8288  11.182   4.152   9.814 -0.2850  0.2444 -0.9295
32188SOL    HW1 8289  11.141   4.222   9.865  0.0959 -1.2920  1.6597
32188SOL    HW2 8290  11.264   4.190   9.782 -1.3317  1.7811 -1.9284
32189SOL     OW 8291   8.605   0.431   6.900 -0.0333 -0.1258  0.3022
32189SOL    HW1 8292   8.649   0.368   6.843 -1.4554 -0.1091 -0.8723
32189SOL    HW2 8293   8.651   0.514   6.883  0.8607 -0.5170  0.7273
32190SOL     OW 8294   9.397  10.497   0.644  0.4735  0.2662  0.7621
32190SOL    HW1 8295   9.380  10.409   0.676  1.0060 -0.2361 -0.2805
32190SOL    HW2 8296   9.470  10.529   0.698  0.6627 -0.1586  0.7620
32191SOL     OW 8297   4.831   3.662   1.761  0.0372 -0.1757  0.3131
32191SOL    HW1 8298   4.893   3.674   1.690 -1.8327  1.4429 -1.1693
32191SOL    HW2 8299   4.809   3.569   1.759  0.7588 -0.3365 -0.5632
32192SOL     OW 8300  11.882  10.280   3.545  0.1197 -0.2461 -0.5057
32192SOL    HW1 8301  11.812  10.262   3.608 -0.2537  0.9391 -0.5548
32192SOL    HW2 8302  11.839  10.330   3.475  1.0981  0.9827 -0.2632
32193SOL     OW 8303  10.582   2.034   9.258 -0.1127 -0.2897 -0.1646
32193SOL    HW1 8304  10.603   1.942   9.274 -2.2837 -0.5472  1.6881
32193SOL    HW2 8305  10.547   2.035   9.169 -0.5943 -1.3521  0.0002
32194SOL     OW 8306   8.916   0.076  12.644  0.3372  0.0895  0.3697
32194SOL    HW1 8307   8.934   0.160  12.686  3.2615 -0.2106 -0.0542
32194SOL    HW2 8308   8.846   0.095  12.581  1.3278  2.3957 -0.1372
32195SOL     OW 8309   1.489  13.716  13.673 -0.4761  0.7288  0.6161
32195SOL    HW1 8310   1.569  13.758  13.704  1.4115 -2.1395  0.0011
32195SOL    HW2 8311   1.472  13.647  13.737 -0.3736 -0.9554 -1.0981
32196SOL     OW 8312  11.398  13.120   1.941  0.0764 -0.1343  0.0285
32196SOL    HW1 8313  11.480  13.168   1.930 -0.0301  0.5726  2.0133
32196SOL    HW2 8314  11.425  13.028   1.945  0.9651  0.1520  1.8256
32197SOL     OW 8315   3.988  10.176   6.616  0.0687  0.0418 -0.3552
32197SOL    HW1 8316   3.904  10.130   6.624  0.4686 -0.4420  1.4957
32197SOL    HW2 8317   4.037  10.124   6.553  0.3077 -1.8385  1.2973
32198SOL     OW 8318   0.584   1.221   2.709 -0.1055 -0.0846 -0.1472
32198SOL    HW1 8319   0.638   1.154   2.666 -1.2946 -0.9947 -0.2846
32198SOL    HW2 8320   0.497   1.209   2.671 -0.3534  1.5660 -0.1754
32199SOL     OW 8321   1.583   6.610  10.228 -0.1770  0.1347  0.2748
32199SOL    HW1 8322   1.507   6.561  10.260 -1.4389  1.9746  0.2538
32199SOL    HW2 8323   1.641   6.616  10.304 -0.6460 -0.1879  0.6640
32200SOL     OW 8324   4.706   5.222  13.121 -0.5886  0.3141 -0.5709
32200SOL    HW1 8325   4.675   5.175  13.199 -1.4842 -0.3601 -1.3160
32200SOL    HW2 8326   4.647   5.195  13.051  0.5068  0.5292 -1.6117
32201SOL     OW 8327   0.768  11.625   9.861  0.7918  0.5373  0.3670
32201SOL    HW1 8328   0.817  11.562   9.809 -1.0030 -0.0811 -0.6681
32201SOL    HW2 8329   0.695  11.652   9.805 -0.4206  0.9448  2.0301
32202SOL     OW 8330  11.635   7.422  10.822  0.0891 -0.3047 -0.4991
32202SOL    HW1 8331  11.577   7.356  10.784 -1.1375  1.3201 -1.5885
32202SOL    HW2 8332  11.719   7.377  10.831 -0.0889 -1.4141 -3.3094
32203SOL     OW 8333  13.679   5.332   7.361 -0.3173 -0.0598  0.2529
32203SOL    HW1 8334  13.681   5.394   7.434  1.4947 -1.0161  1.0784
32203SOL    HW2 8335  13.587   5.327   7.337 -1.0110  0.2236  2.5466
32204SOL     OW 8336  10.878   1.430   1.039 -0.0537  0.6213 -0.4531
32204SOL    HW1 8337  10.834   1.473   1.112 -0.9169 -0.2097 -0.4677
32204SOL    HW2 8338  10.808   1.389   0.990  0.7789 -1.2881 -0.1186
32205SOL     OW 8339   6.389   2.816   0.495 -0.3623 -0.3600  0.0033
32205SOL    HW1 8340   6.379   2.756   0.569 -1.2442  0.8619  0.9222
32205SOL    HW2 8341   6.453   2.881   0.525 -1.2883  0.5728  0.0045
32206SOL     OW 8342   1.034   4.547  13.683  0.1743 -0.0484 -0.4551
32206SOL    HW1 8343   1.053   4.490  13.757 -0.7930  1.9840  1.4968
32206SOL    HW2 8344   1.102   4.614  13.685  0.8013 -0.5862 -2.1636
32207SOL     OW 8345   8.614   7.596   7.166 -0.0580  0.0477  0.1021
32207SOL    HW1 8346   8.638   7.633   7.081  1.2476  2.6537  1.4708
32207SOL    HW2 8347   8.519   7.585   7.161 -0.1465  1.1268 -1.3651
32208SOL     OW 8348   5.233  13.173  12.772 -0.3638  0.1252  0.2345
32208SOL    HW1 8349   5.268  13.236  12.835  1.0007  0.0809 -0.4333
32208SOL    HW2 8350   5.256  13.210  12.686 -3.5190  0.9687 -0.3522
32209SOL     OW 8351   2.038   3.851   2.861 -0.4133 -0.4654  0.2533
32209SOL    HW1 8352   2.090   3.795   2.919  1.6932  2.5900  1.6196
32209SOL    HW2 8353   2.080   3.843   2.775 -0.6412 -1.5383  0.2359
32210SOL     OW 8354  11.575  13.662   8.795 -0.1903  0.9839  0.1086
32210SOL    HW1 8355  11.556  13.741   8.845 -0.0152  0.6125  0.7677
32210SOL    HW2 8356  11.586  13.594   8.861  2.3049  0.9326 -0.2395
32211SOL     OW 8357  11.734   6.341   4.102 -0.7598 -0.2419 -0.1610
32211SOL    HW1 8358  11.796   6.354   4.174 -1.2257 -0.1483  0.2231
32211SOL    HW2 8359  11.756   6.410   4.039  0.9333 -1.4927 -1.0199
32212SOL     OW 8360   4.078  10.213   3.850  0.1571  0.4936 -0.1896
32212SOL    HW1 8361   4.087  10.198   3.756  2.0693  2.1551 -0.3283
32212SOL    HW2 8362   4.124  10.140   3.890  0.4499  0.4604 -0.5774
32213SOL     OW 8363   0.094   4.508   9.076 -0.0276 -0.2562  0.4763
32213SOL    HW1 8364   0.033   4.443   9.112  0.3433 -0.5367  0.5941
32213SOL    HW2 8365   0.143   4.461   9.009 -0.5878  0.2164 -0.2882
32214SOL     OW 8366   6.699  10.143   6.515 -0.4406 -0.2598 -0.2266
32214SOL    HW1 8367   6.689  10.049   6.503 -1.6515  0.1063 -2.5948
32214SOL    HW2 8368   6.785  10.163   6.477 -0.7781 -0.2341 -0.9901
32215SOL     OW 8369  13.722  13.581   0.570 -0.6921 -0.6482  0.2415
32215SOL    HW1 8370  13.694  13.562   0.660 -0.6837  1.9665  0.8707
32215SOL    HW2 8371  13.640  13.585   0.520 -0.7420 -1.4763  0.2342
32216SOL     OW 8372   1.815   7.692   6.027  0.1249  0.1958 -0.3115
32216SOL    HW1 8373   1.854   7.609   5.997  0.3972 -0.2599  1.2286
32216SOL    HW2 8374   1.872   7.721   6.098 -0.7807  0.9800  0.1115
32217SOL     OW 8375  12.017   2.415  13.188  0.2564 -0.0596 -0.1771
32217SOL    HW1 8376  12.032   2.507  13.210  3.5411 -0.2553 -0.9388
32217SOL    HW2 8377  12.055   2.366  13.261  1.5933 -0.7119 -1.2405
32218SOL     OW 8378   9.307  13.418   8.559 -0.0406 -0.4772  0.0220
32218SOL    HW1 8379   9.224  13.432   8.513 -0.4119 -0.6950  0.6045
32218SOL    HW2 8380   9.374  13.436   8.494 -0.5509 -0.5936 -0.5486
32219SOL     OW 8381  10.717   2.633   4.975 -0.3765 -0.3093  0.5314
32219SOL    HW1 8382  10.800   2.646   4.930  0.8498 -0.1256  2.7069
32219SOL    HW2 8383  10.652   2.632   4.905  1.4685 -0.8503 -1.2802
32220SOL     OW 8384   0.558   9.643  11.038  0.4267  0.7146  0.4550
32220SOL    HW1 8385   0.552   9.683  11.125  0.0385 -0.3952  0.9606
32220SOL    HW2 8386   0.508   9.562  11.045 -0.0171  0.8343 -0.9570
32221SOL     OW 8387  10.617   0.942   5.317 -0.4517 -0.7307 -0.0805
32221SOL    HW1 8388  10.711   0.958   5.331 -0.6391 -0.3834  0.9016
32221SOL    HW2 8389  10.574   1.009   5.370 -1.2612 -0.7306 -0.7225
32222SOL     OW 8390  12.533   4.214  10.337  0.4094  0.3434 -0.3395
32222SOL    HW1 8391  12.476   4.287  10.362 -0.7096 -0.3069 -0.9153
32222SOL    HW2 8392  12.607   4.256  10.292 -0.0134  1.1427 -0.3017
32223SOL     OW 8393   5.536   0.623   2.558  0.7673 -0.1182 -0.3335
32223SOL    HW1 8394   5.543   0.658   2.469  2.0769  0.8978  0.1387
32223SOL    HW2 8395   5.496   0.537   2.547  1.7659 -0.4036 -2.0161
32224SOL     OW 8396   3.596   5.747  11.452 -0.2178 -0.0819 -0.4050
32224SOL    HW1 8397   3.638   5.832  11.462  0.3941  0.1241 -3.4898
32224SOL    HW2 8398   3.503   5.764  11.467 -0.0164  0.9722 -0.2910
32225SOL     OW 8399   4.257  12.791   1.947  0.3520 -0.3611  0.1030
32225SOL    HW1 8400   4.177  12.742   1.931  0.9920 -1.7870  1.1269
32225SOL    HW2 8401   4.304  12.740   2.012  1.7156  0.8884  0.1422
32226SOL     OW 8402   1.183   5.903   1.645 -0.2627  0.2444  0.8132
32226SOL    HW1 8403   1.163   5.937   1.557 -2.1021 -2.1625  0.1961
32226SOL    HW2 8404   1.262   5.851   1.632  1.9630  3.1749  1.5582
32227SOL     OW 8405   7.310   4.565   0.565 -0.4447 -0.0660  0.3702
32227SOL    HW1 8406   7.282   4.534   0.479  0.9942 -0.6995  0.1116
32227SOL    HW2 8407   7.309   4.661   0.557  0.7589 -0.1163 -0.7441
32228SOL     OW 8408   6.920   3.880   7.281 -0.3784 -0.0036 -0.0761
32228SOL    HW1 8409   7.002   3.904   7.323 -0.7514 -1.7599  1.8454
32228SOL    HW2 8410   6.853   3.899   7.347 -1.7239  2.3073 -1.9321
32229SOL     OW 8411  11.257   5.226   2.858 -1.0701 -0.5129 -0.2845
32229SOL    HW1 8412  11.168   5.251   2.882 -1.1871 -0.8536 -0.3636
32229SOL    HW2 8413  11.268   5.138   2.892 -1.3043 -1.0918 -1.6138
32230SOL     OW 8414  13.133   8.010   3.952 -0.3658  0.7288 -0.1397
32230SOL    HW1 8415  13.080   7.979   4.026 -1.1573 -0.2925 -1.0959
32230SOL    HW2 8416  13.085   8.085   3.917  0.2289  1.4826  0.6140
32231SOL     OW 8417   7.586  10.974   4.306 -0.7218  0.0013 -0.3320
32231SOL    HW1 8418   7.652  10.935   4.363 -0.0571  0.5971 -0.6761
32231SOL    HW2 8419   7.597  10.929   4.222 -1.7780 -0.9594  0.0231
32232SOL     OW 8420   1.722  11.346   4.871  0.2415  0.7329  0.8076
32232SOL    HW1 8421   1.775  11.296   4.933  0.8183  0.9284  0.4769
32232SOL    HW2 8422   1.645  11.372   4.922 -0.4357 -1.1147  0.7744
32233SOL     OW 8423  12.835   3.449   0.159  0.4455  0.5888 -0.0894
32233SOL    HW1 8424  12.820   3.519   0.222 -1.0408 -0.4294  0.7613
32233SOL    HW2 8425  12.805   3.484   0.075  0.5845  1.2718  0.1418
32234SOL     OW 8426   2.351   0.007   2.170 -0.1450  0.1188  0.0162
32234SOL    HW1 8427   2.347  -0.017   2.263  1.4035  0.0208  0.0821
32234SOL    HW2 8428   2.355   0.103   2.171  1.7834  0.0623  0.1695
32235SOL     OW 8429  10.260  12.309  12.381 -0.5206 -0.3836 -0.2060
32235SOL    HW1 8430  10.334  12.311  12.442 -1.0101  0.8998  0.3726
32235SOL    HW2 8431  10.261  12.395  12.339  0.5627 -1.6162 -3.0099
32236SOL     OW 8432   9.912   3.119  13.009  0.9355 -0.5176  0.4697
32236SOL    HW1 8433   9.817   3.129  13.000  0.6257 -1.9432  1.8013
32236SOL    HW2 8434   9.948   3.203  12.979 -0.7092 -0.1208 -0.4708
32237SOL     OW 8435   9.877   0.485  11.067 -0.1719  0.2853  0.4139
32237SOL    HW1 8436   9.812   0.461  11.133  0.8685 -0.5556  1.1517
32237SOL    HW2 8437   9.849   0.572  11.037 -1.1997  0.2669  1.2497
32238SOL     OW 8438   7.213   5.197   7.615 -0.1505 -0.0057 -0.0037
32238SOL    HW1 8439   7.238   5.242   7.534  2.1390 -1.2106 -0.0313
32238SOL    HW2 8440   7.133   5.149   7.591  0.2802 -0.0524 -1.4623
32239SOL     OW 8441   1.471   8.328   4.882  0.2643 -0.6409  0.4567
32239SOL    HW1 8442   1.383   8.322   4.917 -0.1947 -1.6123 -0.7794
32239SOL    HW2 8443   1.475   8.414   4.840 -0.0707 -0.5682  0.5744
32240SOL     OW 8444   9.879   5.644   9.648 -0.2612  0.6281  0.6050
32240SOL    HW1 8445   9.856   5.703   9.575  0.0381  0.8583  0.6957
32240SOL    HW2 8446   9.804   5.585   9.654 -0.7467  1.2397  0.7639
32241SOL     OW 8447   0.450  11.745  10.345  0.1810  0.0989  0.0989
32241SOL    HW1 8448   0.522  11.707  10.396 -0.6960 -0.1205  1.2091
32241SOL    HW2 8449   0.462  11.840  10.354  0.8269  0.0766 -0.4531
32242SOL     OW 8450   3.907   2.913   8.847  0.3714 -0.6181 -0.3823
32242SOL    HW1 8451   3.847   2.985   8.867 -0.7914 -1.2221 -1.5636
32242SOL    HW2 8452   3.962   2.906   8.925 -2.2514 -1.1964  1.5733
32243SOL     OW 8453   7.902   1.889   1.523  0.0082 -0.5262 -0.0905
32243SOL    HW1 8454   7.917   1.895   1.618  0.3575  0.8127 -0.2090
32243SOL    HW2 8455   7.989   1.897   1.484 -0.2131 -0.3138 -0.5501
32244SOL     OW 8456   7.824   4.767   9.458  0.4758 -0.1537 -0.3053
32244SOL    HW1 8457   7.857   4.762   9.368 -1.1140 -2.5010 -0.8647
32244SOL    HW2 8458   7.818   4.676   9.486 -0.1230  0.4793  1.7803
32245SOL     OW 8459   9.344  12.948   7.506 -0.2778  0.0824  0.4154
32245SOL    HW1 8460   9.430  12.906   7.497 -0.0868  0.6736 -0.7670
32245SOL    HW2 8461   9.364  13.038   7.533 -0.3028  1.0112 -2.3364
32246SOL     OW 8462   4.919  11.073   6.256  0.4876 -0.0008 -0.5158
32246SOL    HW1 8463   4.934  11.140   6.322 -0.0994 -0.2058 -0.1702
32246SOL    HW2 8464   4.947  10.991   6.298  1.8642  0.1016 -1.1800
32247SOL     OW 8465  13.438   7.380   6.730  0.3394 -0.2624 -0.5129
32247SOL    HW1 8466  13.359   7.431   6.710  0.1245  0.2895  1.5303
32247SOL    HW2 8467  13.435   7.306   6.669 -2.1505 -0.6526 -0.0294
32248SOL     OW 8468   3.332   9.494   0.655 -0.2178 -0.6643 -0.2951
32248SOL    HW1 8469   3.268   9.505   0.585 -0.6007 -0.7055  0.0477
32248SOL    HW2 8470   3.293   9.430   0.714 -0.3350  0.1041  0.4753
32249SOL     OW 8471   7.027   3.345   4.695 -0.2409  0.3856  0.4641
32249SOL    HW1 8472   7.096   3.386   4.748 -0.0916  0.2673  0.3622
32249SOL    HW2 8473   6.946   3.387   4.725 -0.1636  0.2770  0.8304
32250SOL     OW 8474  10.296   5.490  10.505  0.7403 -0.5253 -0.5133
32250SOL    HW1 8475  10.249   5.451  10.432 -1.3485 -1.5229  1.2430
32250SOL    HW2 8476  10.269   5.582  10.504  0.2636 -0.6651 -0.6562
32251SOL     OW 8477   1.264   1.499  12.919 -0.0269 -0.1642 -0.0740
32251SOL    HW1 8478   1.330   1.431  12.906 -0.3097 -0.2966 -0.8588
32251SOL    HW2 8479   1.304   1.559  12.981  1.0049 -0.0294 -0.8425
32252SOL     OW 8480   0.561   7.897   1.106 -0.1792 -0.1688 -0.3342
32252SOL    HW1 8481   0.516   7.818   1.136  0.3614  0.7491  3.4330
32252SOL    HW2 8482   0.652   7.870   1.095 -0.3400 -0.4735 -0.9339
32253SOL     OW 8483   5.658   2.760   8.840 -0.4549  0.3207 -0.2560
32253SOL    HW1 8484   5.749   2.729   8.846 -0.6578 -0.3386 -0.5315
32253SOL    HW2 8485   5.613   2.716   8.913 -0.4718  0.9510  0.1192
32254SOL     OW 8486   0.222  10.955  10.828 -0.0451  0.4039  0.7212
32254SOL    HW1 8487   0.294  10.924  10.773  1.2919  1.4289  1.8063
32254SOL    HW2 8488   0.170  10.876  10.846 -0.2440 -0.0485 -1.5183
32255SOL     OW 8489  12.244   6.184   5.405 -0.8471 -0.5097  0.1185
32255SOL    HW1 8490  12.236   6.207   5.497 -0.5042 -3.1092  0.8709
32255SOL    HW2 8491  12.159   6.147   5.382 -0.3285 -1.6528 -0.0270
32256SOL     OW 8492   8.383   4.979   2.855  0.4175 -0.4682 -0.2317
32256SOL    HW1 8493   8.323   5.035   2.904 -0.0449 -0.1854 -1.0869
32256SOL    HW2 8494   8.470   5.004   2.885  0.1691  0.0817  0.0386
32257SOL     OW 8495   7.505  13.632   7.273  0.0637 -0.0023  0.3003
32257SOL    HW1 8496   7.460  13.564   7.223  2.0242 -0.3523 -1.1225
32257SOL    HW2 8497   7.557  13.584   7.338  0.8034  0.1538 -0.1599
32258SOL     OW 8498   8.523   0.925  11.899 -0.1768 -0.3849  0.0247
32258SOL    HW1 8499   8.534   0.833  11.875  1.2542  0.3537 -2.5756
32258SOL    HW2 8500   8.613   0.957  11.907 -0.6563  0.5628  2.0062
32259SOL     OW 8501   9.326   1.942   1.143 -0.4957  0.0610  0.1152
32259SOL    HW1 8502   9.293   1.912   1.228 -0.7298 -0.3953 -0.1329
32259SOL    HW2 8503   9.421   1.937   1.151 -0.5328 -1.4350 -0.1542
32260SOL     OW 8504   3.161   1.111   4.679 -0.4746  0.1354 -0.4668
32260SOL    HW1 8505   3.246   1.144   4.708 -0.6807  0.2588  0.0113
32260SOL    HW2 8506   3.178   1.020   4.654 -0.2461  0.0865 -0.1423
32261SOL     OW 8507   3.927   1.141   5.077 -0.1996 -0.3700 -0.1534
32261SOL    HW1 8508   3.947   1.201   5.149  0.0249 -0.6064 -0.0145
32261SOL    HW2 8509   3.898   1.197   5.006  1.8851  0.1016 -0.7054
32262SOL     OW 8510   0.262   7.289  10.983  0.4749  0.4109 -0.7477
32262SOL    HW1 8511   0.167   7.280  10.973  0.6915 -0.2879 -2.5635
32262SOL    HW2 8512   0.293   7.200  10.999  0.7382  0.8011  1.1492
32263SOL     OW 8513  11.554   3.850   8.170  0.2738  0.3101 -0.7306
32263SOL    HW1 8514  11.563   3.939   8.203 -0.8214  0.9989 -2.2030
32263SOL    HW2 8515  11.624   3.801   8.214  0.2071  1.6311  0.9180
32264SOL     OW 8516   4.972   0.497   0.831 -0.0699  0.2645 -0.5229
32264SOL    HW1 8517   4.976   0.424   0.894  0.1152  0.4403 -0.3280
32264SOL    HW2 8518   4.908   0.557   0.868 -2.3538 -1.0716 -2.0736
32265SOL     OW 8519  13.647   7.255   1.898 -0.3841 -0.5746  0.4681
32265SOL    HW1 8520  13.560   7.259   1.859  0.1448  1.6577 -0.6424
32265SOL    HW2 8521  13.634   7.215   1.984 -2.5143 -0.1233  0.3874
32266SOL     OW 8522   0.302   0.144  12.883  0.1559 -0.7833  0.0165
32266SOL    HW1 8523   0.244   0.121  12.810 -0.8933  2.1752 -0.2101
32266SOL    HW2 8524   0.347   0.223  12.854 -0.3997  0.5763  2.5787
32267SOL     OW 8525   0.576   6.722   0.486  0.0309  0.1258 -0.3636
32267SOL    HW1 8526   0.505   6.777   0.454  0.1896  1.7361  1.8512
32267SOL    HW2 8527   0.605   6.673   0.409 -4.2772 -1.6356 -1.1152
32268SOL     OW 8528   2.972   3.174  12.894  0.5787 -0.1109 -0.0787
32268SOL    HW1 8529   2.927   3.181  12.810 -1.4693  0.2706  0.9976
32268SOL    HW2 8530   2.990   3.265  12.920 -0.6495 -0.0991  0.8159
32269SOL     OW 8531  11.408   3.592  11.644  0.6215  0.7495  0.4907
32269SOL    HW1 8532  11.464   3.572  11.719 -0.5186 -1.0980  0.9079
32269SOL    HW2 8533  11.324   3.619  11.683  0.2945  0.6242 -0.1097
32270SOL     OW 8534   3.912   0.666   4.931 -0.1250  0.6577  0.1589
32270SOL    HW1 8535   3.917   0.712   5.015 -0.3117  0.9350  0.0193
32270SOL    HW2 8536   3.884   0.733   4.869 -0.7889  0.2646  0.0264
32271SOL     OW 8537   8.851   2.844   7.492  0.6708 -0.7271 -0.6595
32271SOL    HW1 8538   8.795   2.796   7.553  0.7400 -0.8573 -0.7001
32271SOL    HW2 8539   8.886   2.778   7.433  0.7737 -0.6297 -0.7089
32272SOL     OW 8540   8.124   2.534   0.728 -0.9362 -0.1862  0.0955
32272SOL    HW1 8541   8.156   2.455   0.683 -1.4525  0.6659 -1.8974
32272SOL    HW2 8542   8.031   2.517   0.744 -0.6247 -0.7269  1.4549
32273SOL     OW 8543   2.656   0.035   7.074  0.3980 -0.5531  0.2925
32273SOL    HW1 8544   2.607   0.075   7.002  3.2096  1.8296 -0.5227
32273SOL    HW2 8545   2.636  -0.058   7.068 -0.9079 -0.2017 -2.4344
32274SOL     OW 8546  13.658   0.473   2.762 -0.1822  0.2237 -0.3057
32274SOL    HW1 8547  13.685   0.537   2.828  0.3718  1.3668 -1.5937
32274SOL    HW2 8548  13.655   0.390   2.809  2.1391  0.6542  0.7242
32275SOL     OW 8549   8.660  11.404   9.275  0.0122  0.5461 -0.1697
32275SOL    HW1 8550   8.699  11.316   9.281 -0.6564  0.2374 -0.2121
32275SOL    HW2 8551   8.730  11.463   9.301 -0.3314 -0.1825  2.8108
32276SOL     OW 8552   4.745   9.788   4.074 -0.5588 -0.3046 -0.4707
32276SOL    HW1 8553   4.721   9.695   4.070 -1.9037 -0.0389  0.7722
32276SOL    HW2 8554   4.738   9.811   4.167  0.6669  0.8290 -0.6220
32277SOL     OW 8555   0.825   0.455   4.444  0.1891 -0.5903 -1.2325
32277SOL    HW1 8556   0.915   0.463   4.411  0.0692  2.9377 -1.0787
32277SOL    HW2 8557   0.773   0.507   4.383 -0.8369  1.8494  1.4924
32278SOL     OW 8558   0.257   1.311   9.174 -0.2906  0.1278 -0.7377
32278SOL    HW1 8559   0.212   1.287   9.255 -2.0508  1.6650 -1.1831
32278SOL    HW2 8560   0.240   1.405   9.165  1.8423  0.4844 -1.7146
32279SOL     OW 8561   0.465  12.043   6.413 -0.4109 -0.1780  0.0741
32279SOL    HW1 8562   0.476  12.056   6.507 -0.9832 -0.5528  0.1990
32279SOL    HW2 8563   0.503  12.121   6.374  1.0939 -0.6388  0.5372
32280SOL     OW 8564   8.322   3.188  10.434 -0.3632 -0.0875  0.1711
32280SOL    HW1 8565   8.375   3.267  10.431 -0.5229  0.0083 -0.3734
32280SOL    HW2 8566   8.292   3.181  10.525  0.3407  0.0114  0.4115
32281SOL     OW 8567   2.450   3.880   1.208  0.0190 -0.1858  0.3722
32281SOL    HW1 8568   2.437   3.974   1.216 -1.8945 -0.1959 -1.6366
32281SOL    HW2 8569   2.382   3.851   1.147  0.8498 -2.8044  0.5434
32282SOL     OW 8570   1.821  13.681  12.921  0.2623  0.1684 -0.0808
32282SOL    HW1 8571   1.905  13.721  12.901  0.4477 -0.0046  0.3383
32282SOL    HW2 8572   1.779  13.741  12.982  0.4391 -0.1457  0.3606
32283SOL     OW 8573  10.691   6.072   3.197  0.2172 -0.0129  0.1218
32283SOL    HW1 8574  10.650   6.145   3.150  1.1052 -0.0818 -0.7722
32283SOL    HW2 8575  10.731   6.113   3.274  0.1852  0.3425 -0.0511
32284SOL     OW 8576   3.121  10.172  13.530 -0.2192  0.4770  0.2683
32284SOL    HW1 8577   3.172  10.245  13.564 -0.5409  0.5763  0.5460
32284SOL    HW2 8578   3.156  10.158  13.442  0.6868  0.1486  0.6709
32285SOL     OW 8579   1.191   3.320  10.237  0.0832  0.1024  0.0914
32285SOL    HW1 8580   1.237   3.332  10.154  1.1177  1.5367  0.8108
32285SOL    HW2 8581   1.099   3.312  10.214  0.2543  1.3910 -1.1512
32286SOL     OW 8582   1.285   7.103   9.505  0.4561 -0.4446 -0.2292
32286SOL    HW1 8583   1.234   7.027   9.533  0.2797 -0.6778 -1.1639
32286SOL    HW2 8584   1.361   7.066   9.460  0.1386 -0.0647 -1.0844
32287SOL     OW 8585   0.503   5.081   1.226 -0.1177 -0.3324 -0.0546
32287SOL    HW1 8586   0.521   5.027   1.303  0.4781 -0.2597 -0.1372
32287SOL    HW2 8587   0.589   5.098   1.188 -0.4616 -1.0047 -1.1800
32288SOL     OW 8588   0.878   9.800   1.027  0.3499  0.1339 -0.4410
32288SOL    HW1 8589   0.969   9.801   0.997  0.6749  0.5316  0.5123
32288SOL    HW2 8590   0.884   9.788   1.121 -0.5298  1.4714 -0.1793
32289SOL     OW 8591  11.062   7.492  10.856 -0.4550 -0.6177 -0.3177
32289SOL    HW1 8592  11.105   7.578  10.867  0.4328 -1.0450 -0.3566
32289SOL    HW2 8593  11.021   7.476  10.941 -0.7443 -0.0932 -0.3512
32290SOL     OW 8594   5.022  11.343   5.347  0.4818  0.5159  0.0233
32290SOL    HW1 8595   5.117  11.355   5.340  0.4860  0.5457  0.1398
32290SOL    HW2 8596   5.003  11.351   5.440  0.2700  1.1965 -0.0746
32291SOL     OW 8597   1.185   7.721  12.995  0.4888  0.1489  0.5402
32291SOL    HW1 8598   1.156   7.630  12.990  1.0042 -0.1087  1.8785
32291SOL    HW2 8599   1.280   7.717  12.988  0.4175  0.8206 -1.7722
32292SOL     OW 8600   7.290   3.422   7.457  0.1849  0.5765  0.1073
32292SOL    HW1 8601   7.271   3.329   7.449 -0.6534  0.5519  1.9966
32292SOL    HW2 8602   7.343   3.442   7.379  3.3069 -2.1815  1.2714
32293SOL     OW 8603   8.826   4.819   4.834 -0.4058 -1.1408 -0.3712
32293SOL    HW1 8604   8.830   4.738   4.783  1.7517 -1.3800  0.0645
32293SOL    HW2 8605   8.874   4.882   4.781  0.2249 -0.8935  0.4664
32294SOL     OW 8606   0.919   3.714   1.098 -0.8342  0.7476 -0.0029
32294SOL    HW1 8607   0.937   3.807   1.084 -0.3318  1.0881  2.3795
32294SOL    HW2 8608   0.851   3.714   1.166  0.5975 -0.5891  1.5011
32295SOL     OW 8609  12.342  13.349   3.299 -0.0942  0.1904  0.3833
32295SOL    HW1 8610  12.431  13.317   3.285  0.0582  1.0710 -0.8329
32295SOL    HW2 8611  12.343  13.387   3.387  1.1976  1.6114 -0.2061
32296SOL     OW 8612   8.538  13.144   4.927  0.2867 -0.3173 -0.5170
32296SOL    HW1 8613   8.617  13.105   4.889  0.1284 -1.1059 -0.0653
32296SOL    HW2 8614   8.550  13.134   5.021 -0.5673 -0.8929 -0.4605
32297SOL     OW 8615   9.509   7.164   0.776  0.4359  0.3985  0.6671
32297SOL    HW1 8616   9.424   7.207   0.787  1.0386  1.4945  1.1390
32297SOL    HW2 8617   9.570   7.235   0.757  0.9481 -0.5707 -1.6420
32298SOL     OW 8618  12.483   9.632   0.519  0.1310  0.3039  0.1784
32298SOL    HW1 8619  12.513   9.559   0.574 -1.1012 -1.0679 -0.9150
32298SOL    HW2 8620  12.493   9.709   0.576  2.5172 -0.4921  1.0048
32299SOL     OW 8621   9.922   6.901  12.141 -0.1146  0.2841  0.0087
32299SOL    HW1 8622   9.871   6.934  12.067 -3.3152 -0.9055  1.5009
32299SOL    HW2 8623   9.894   6.810  12.151  1.9228 -0.2666  1.3167
32300SOL     OW 8624   9.955  12.964  13.406 -0.2859 -0.2478 -0.2565
32300SOL    HW1 8625   9.947  13.025  13.333  0.4909 -1.3315 -1.2985
32300SOL    HW2 8626   9.864  12.942  13.428 -0.5497  0.6760 -0.3753
32301SOL     OW 8627   8.484   8.820   1.550  1.0173 -0.0862 -0.3561
32301SOL    HW1 8628   8.535   8.742   1.571  0.2674 -0.4091  0.3481
32301SOL    HW2 8629   8.453   8.852   1.635 -0.8264 -0.5331 -0.8010
32302SOL     OW 8630   7.242  10.903   5.519 -0.5468 -0.0697 -0.1961
32302SOL    HW1 8631   7.276  10.856   5.443  0.5635  0.4864 -0.0687
32302SOL    HW2 8632   7.273  10.993   5.507  0.3066 -0.1341  1.2809
32303SOL     OW 8633   4.993   1.228   0.359 -0.1468  0.1311 -0.4494
32303SOL    HW1 8634   5.086   1.210   0.350  0.3008  2.1196 -0.3995
32303SOL    HW2 8635   4.981   1.247   0.452 -0.6580 -0.3990 -0.4057
32304SOL     OW 8636   5.316   2.016   9.467 -0.1026 -0.3753 -0.3091
32304SOL    HW1 8637   5.378   1.978   9.405 -2.6207  0.2714 -3.4818
32304SOL    HW2 8638   5.347   2.106   9.479  0.8596 -0.7406  0.0661
32305SOL     OW 8639   0.949   7.073  10.010  0.2243 -0.7581 -0.0860
32305SOL    HW1 8640   0.906   7.094  10.093 -3.8435  0.5587 -2.2757
32305SOL    HW2 8641   0.954   7.156   9.963  1.0695 -1.6846 -1.7289
32306SOL     OW 8642   2.571  13.642   6.479  0.2351 -0.1079  0.0084
32306SOL    HW1 8643   2.568  13.673   6.570  1.1455  0.4906 -0.1550
32306SOL    HW2 8644   2.497  13.686   6.436  1.0076  1.2419 -0.0174
32307SOL     OW 8645   1.666   7.022  10.814 -0.7153  0.4873  0.5301
32307SOL    HW1 8646   1.603   7.085  10.777 -1.7265 -1.4302 -1.2265
32307SOL    HW2 8647   1.751   7.066  10.806 -1.4396  1.8746 -0.0075
32308SOL     OW 8648   6.354   0.669   4.025 -0.1037 -0.1504  0.0978
32308SOL    HW1 8649   6.435   0.695   4.070  0.5394  1.3789 -1.8006
32308SOL    HW2 8650   6.333   0.583   4.061  1.0913  0.4071  2.2884
32309SOL     OW 8651   9.567   8.269   7.929  0.3070  1.0519 -0.3517
32309SOL    HW1 8652   9.659   8.295   7.916  0.7084  0.2204  0.6737
32309SOL    HW2 8653   9.532   8.336   7.988  0.7702  0.4224  0.6653
32310SOL     OW 8654   8.521   8.875   5.465  0.6647  0.1779 -0.9343
32310SOL    HW1 8655   8.452   8.835   5.413  2.5190 -2.2568 -1.7319
32310SOL    HW2 8656   8.586   8.903   5.400  1.7823 -0.3697 -0.0731
32311SOL     OW 8657   3.311   4.638   1.423 -0.2499 -0.4764  0.4860
32311SOL    HW1 8658   3.405   4.647   1.408 -0.2670 -1.2713 -0.1488
32311SOL    HW2 8659   3.282   4.576   1.356 -1.1400 -0.6239  0.9969
32312SOL     OW 8660   2.200  11.693  13.102 -0.1183  0.7179 -0.1612
32312SOL    HW1 8661   2.152  11.621  13.061 -0.6019  2.5835 -3.2409
32312SOL    HW2 8662   2.284  11.654  13.128 -1.2027 -1.4011  0.3628
32313SOL     OW 8663   9.065   7.435  10.691 -0.1203 -0.2039 -0.2140
32313SOL    HW1 8664   8.993   7.398  10.640 -0.6110 -0.0198  0.3355
32313SOL    HW2 8665   9.144   7.413  10.641 -0.4757 -1.1888 -0.3676
32314SOL     OW 8666  12.723   3.449  13.064 -0.4486  0.2974 -0.8100
32314SOL    HW1 8667  12.665   3.383  13.026  0.3344  0.3441 -2.1734
32314SOL    HW2 8668  12.811   3.418  13.044 -0.0190  0.8516  0.1248
32315SOL     OW 8669   8.972  11.856  11.427 -0.3714 -0.0307  0.9317
32315SOL    HW1 8670   8.959  11.815  11.513  2.8946  0.6037  1.8609
32315SOL    HW2 8671   9.013  11.788  11.374 -1.1713 -0.0111  0.2759
32316SOL     OW 8672   4.500  13.219   7.826 -0.1922 -0.0223 -0.2147
32316SOL    HW1 8673   4.472  13.292   7.772  2.1808  0.0932 -1.4213
32316SOL    HW2 8674   4.596  13.226   7.829 -0.0698 -1.4626  1.9926
32317SOL     OW 8675   1.877  10.147   5.556  0.2872 -0.0970  0.4650
32317SOL    HW1 8676   1.927  10.228   5.551  0.8800 -0.4746  0.1526
32317SOL    HW2 8677   1.941  10.081   5.582  0.4755 -1.0233 -2.0681
32318SOL     OW 8678   4.303   9.130   3.612  0.1709  0.0339  0.2685
32318SOL    HW1 8679   4.275   9.142   3.521 -0.6375  1.0618  0.6383
32318SOL    HW2 8680   4.243   9.183   3.663  2.0206  1.3166  1.2078
32319SOL     OW 8681   2.474  11.805   0.159  0.5079 -0.1553  0.6008
32319SOL    HW1 8682   2.539  11.838   0.096  0.1797 -0.6555 -0.0066
32319SOL    HW2 8683   2.496  11.850   0.241  2.0495 -0.8016  0.5881
32320SOL     OW 8684  12.119   7.876  10.918  0.4282  0.2430 -0.3324
32320SOL    HW1 8685  12.099   7.784  10.934 -0.2957  0.4321 -0.1179
32320SOL    HW2 8686  12.200   7.891  10.967  0.4764 -0.2410 -0.2523
32321SOL     OW 8687   5.173  12.703   9.105  0.4307  0.4824  0.2618
32321SOL    HW1 8688   5.194  12.733   9.194  0.3662 -0.3402  0.5635
32321SOL    HW2 8689   5.207  12.771   9.048 -0.3871  1.4981  0.9530
32322SOL     OW 8690   1.041   1.266   9.896  0.0599  0.0825 -0.5124
32322SOL    HW1 8691   1.095   1.209   9.950 -0.0438 -1.2989 -1.7859
32322SOL    HW2 8692   0.957   1.221   9.890 -0.0256  0.3448 -1.5369
32323SOL     OW 8693   7.756   2.464   0.255 -0.0982 -0.1476 -0.4590
32323SOL    HW1 8694   7.727   2.547   0.294 -1.8418 -0.2876 -1.3228
32323SOL    HW2 8695   7.732   2.473   0.163  0.6950 -1.1957 -0.7731
32324SOL     OW 8696   3.793   8.034  13.022 -0.0902  0.2108  0.7326
32324SOL    HW1 8697   3.750   8.115  13.049  0.1783  0.5644  0.1409
32324SOL    HW2 8698   3.880   8.063  12.993  0.4977 -0.4651  1.7583
32325SOL     OW 8699  11.283  12.390  12.940  0.3137 -0.1669  0.4341
32325SOL    HW1 8700  11.223  12.342  12.996  1.2635  0.4214  2.0171
32325SOL    HW2 8701  11.309  12.326  12.873 -1.3535 -0.6839  0.2276
32326SOL     OW 8702   2.352   1.257  11.399  0.0012  0.2803  0.0668
32326SOL    HW1 8703   2.441   1.244  11.433 -0.9979  0.6158  3.1425
32326SOL    HW2 8704   2.341   1.351  11.394 -0.7403  0.3105  1.5781
32327SOL     OW 8705   9.312   5.995   7.304 -0.6770  0.0256 -0.3600
32327SOL    HW1 8706   9.400   5.956   7.309  0.4501  2.3125 -0.8021
32327SOL    HW2 8707   9.259   5.943   7.364  0.7396 -1.9956 -0.7485
32328SOL     OW 8708  10.027   4.032   3.958 -0.4220 -0.1081  0.6646
32328SOL    HW1 8709   9.983   4.116   3.970 -2.9775 -0.8230 -2.4175
32328SOL    HW2 8710  10.111   4.054   3.919 -1.0728  1.0316 -0.1335
32329SOL     OW 8711  13.170   4.200  11.452  0.1691 -0.4751  0.1218
32329SOL    HW1 8712  13.153   4.294  11.460  0.1156 -0.4823  0.0995
32329SOL    HW2 8713  13.185   4.170  11.541 -0.7425 -0.6136  0.2382
32330SOL     OW 8714   6.850   1.532  13.724 -0.0127 -0.2050 -0.6129
32330SOL    HW1 8715   6.779   1.474  13.695 -1.0353  0.7351 -0.0659
32330SOL    HW2 8716   6.930   1.490  13.693 -0.7764 -1.5470 -0.8223
32331SOL     OW 8717   0.157  10.490  12.481 -0.2663  1.0830 -0.0274
32331SOL    HW1 8718   0.134  10.582  12.487  1.7162  1.9464 -3.2144
32331SOL    HW2 8719   0.252  10.490  12.469 -0.2121 -1.3805 -0.1201
32332SOL     OW 8720  12.073   3.579  10.360  0.9516 -0.1636  0.1728
32332SOL    HW1 8721  12.048   3.656  10.411  2.6689  0.6258 -0.1349
32332SOL    HW2 8722  12.089   3.511  10.426 -0.1550 -0.1618  0.4662
32333SOL     OW 8723   4.411   4.179  13.504  0.0065 -0.2849 -0.0044
32333SOL    HW1 8724   4.440   4.088  13.508  0.9657  0.0153  0.1601
32333SOL    HW2 8725   4.453   4.221  13.580  0.2114  0.4618 -0.5201
32334SOL     OW 8726   4.914   7.794   5.705 -0.0162  0.1771  0.7897
32334SOL    HW1 8727   4.844   7.826   5.648  1.9808  0.5258 -1.6585
32334SOL    HW2 8728   4.985   7.858   5.694  2.5277 -2.6649 -0.8510
32335SOL     OW 8729   6.438  12.034   9.702  0.2177  0.2697  0.2334
32335SOL    HW1 8730   6.384  12.108   9.730 -1.0360 -0.5567  0.0702
32335SOL    HW2 8731   6.485  12.066   9.625  0.6047  1.2604  0.8637
32336SOL     OW 8732   3.911   6.168  11.909 -0.4997 -0.0841 -0.1441
32336SOL    HW1 8733   3.995   6.207  11.931 -0.7708  0.8949 -0.7720
32336SOL    HW2 8734   3.853   6.193  11.982 -0.6136  0.5295 -0.4319
32337SOL     OW 8735   5.786   2.193   2.754  0.2636  0.1990  0.0292
32337SOL    HW1 8736   5.836   2.194   2.672  1.6899 -0.8231  0.8358
32337SOL    HW2 8737   5.852   2.178   2.822 -1.0282 -0.1768  1.2440
32338SOL     OW 8738  10.391   8.239   6.254  0.2632  0.7342 -0.2193
32338SOL    HW1 8739  10.403   8.334   6.262 -1.0665  0.8182  1.2114
32338SOL    HW2 8740  10.311   8.221   6.302 -0.6077 -0.8734 -2.1437
32339SOL     OW 8741   0.984  13.191  13.064 -0.3784 -0.0778 -0.1983
32339SOL    HW1 8742   0.935  13.273  13.054 -0.9685 -0.4536 -0.4133
32339SOL    HW2 8743   1.006  13.188  13.158 -2.4760 -0.8488  0.3365
32340SOL     OW 8744  11.531  11.726   3.972 -0.2169  0.7298  0.4275
32340SOL    HW1 8745  11.551  11.634   3.990  0.2980  0.7453 -0.0283
32340SOL    HW2 8746  11.511  11.764   4.057  1.0406  0.5391  0.8246
32341SOL     OW 8747   0.214   4.962   8.239  0.0608  0.1177  0.8872
32341SOL    HW1 8748   0.172   4.894   8.291 -0.9340  0.6843  0.8414
32341SOL    HW2 8749   0.156   5.037   8.246  0.4437  0.5339 -0.1797
32342SOL     OW 8750   8.161   7.855  10.150  0.0963 -0.7947  0.4774
32342SOL    HW1 8751   8.077   7.837  10.193 -0.4180  0.4789  0.0589
32342SOL    HW2 8752   8.154   7.812  10.065 -0.7976  0.5997 -0.1947
32343SOL     OW 8753   0.531  10.853   6.923 -0.4266  0.5773  0.0219
32343SOL    HW1 8754   0.465  10.855   6.993  0.3730  1.0163  0.7694
32343SOL    HW2 8755   0.480  10.835   6.844 -1.1187 -2.2138  0.9794
32344SOL     OW 8756  12.512  11.377  13.264 -0.6692  0.5430 -0.4461
32344SOL    HW1 8757  12.549  11.344  13.346 -0.9755 -0.4379 -0.6920
32344SOL    HW2 8758  12.580  11.435  13.228  0.8239 -1.5136 -1.0928
32345SOL     OW 8759   2.728   1.676   9.409 -0.3269 -0.2859 -0.1215
32345SOL    HW1 8760   2.775   1.597   9.383 -2.0709 -1.0861 -1.0092
32345SOL    HW2 8761   2.774   1.747   9.364 -1.1636 -1.2758 -2.7081
32346SOL     OW 8762  10.980  10.463  12.727 -0.3682 -0.0000  0.3067
32346SOL    HW1 8763  10.900  10.500  12.764 -1.5552  1.1069 -2.9990
32346SOL    HW2 8764  11.051  10.501  12.778 -1.8533  1.0114  1.7051
32347SOL     OW 8765   3.741   6.197   9.466  0.1846  0.0633  0.1560
32347SOL    HW1 8766   3.694   6.226   9.544  0.3859 -1.6549  0.9551
32347SOL    HW2 8767   3.827   6.172   9.497  0.3719 -0.3662 -0.6709
32348SOL     OW 8768   9.638   5.517   9.643 -0.3888 -0.3103  0.7395
32348SOL    HW1 8769   9.587   5.538   9.721 -0.6921  1.4102  0.1434
32348SOL    HW2 8770   9.573   5.509   9.573 -0.0270 -0.4409  0.4108
32349SOL     OW 8771   0.685   6.720   1.454  0.3726  0.0141 -0.2926
32349SOL    HW1 8772   0.672   6.815   1.456 -0.0460 -0.0425  1.4062
32349SOL    HW2 8773   0.598   6.684   1.438  0.1706 -0.1020  0.9361
32350SOL     OW 8774   7.760   0.555  12.663  0.2543 -0.2511 -0.0419
32350SOL    HW1 8775   7.755   0.606  12.583 -0.0917 -2.3492 -1.4511
32350SOL    HW2 8776   7.830   0.491  12.646  1.5501  0.4880  2.1191
32351SOL     OW 8777   8.946   3.558  13.413  0.4413  0.2564  0.8200
32351SOL    HW1 8778   8.922   3.583  13.502  1.6925  3.1355  0.4668
32351SOL    HW2 8779   8.862   3.557  13.366  0.0696  2.1750  1.3248
32352SOL     OW 8780   2.984   8.658   4.610 -0.6003  0.6312 -0.1894
32352SOL    HW1 8781   2.926   8.605   4.665  0.2480 -0.1633 -0.0362
32352SOL    HW2 8782   3.061   8.674   4.665  0.3494 -0.3426 -1.2000
32353SOL     OW 8783   9.757   6.124  10.945 -0.5844 -0.1423  0.5205
32353SOL    HW1 8784   9.835   6.140  10.998 -0.0395 -0.8149 -0.0472
32353SOL    HW2 8785   9.751   6.029  10.940 -0.9628 -0.0892 -0.1262
32354SOL     OW 8786   2.017   5.137   4.700 -0.1337  0.0133 -0.4727
32354SOL    HW1 8787   2.083   5.102   4.640  0.3564  0.5919 -0.2899
32354SOL    HW2 8788   1.933   5.113   4.661  0.1630  0.9918 -1.7700
32355SOL     OW 8789   5.786   9.483  10.710 -0.5046 -0.1496  0.1001
32355SOL    HW1 8790   5.878   9.458  10.711 -0.7379 -1.2824 -1.7615
32355SOL    HW2 8791   5.786   9.573  10.675 -0.1574 -0.5586 -0.9945
32356SOL     OW 8792   7.705  11.427  11.947 -0.1617 -0.6705 -0.0930
32356SOL    HW1 8793   7.796  11.447  11.926 -0.0430 -2.2106 -1.2187
32356SOL    HW2 8794   7.708  11.395  12.037  0.3946 -0.6026 -0.0814
32357SOL     OW 8795  11.812   0.303   5.826 -0.8007 -0.2691  1.0283
32357SOL    HW1 8796  11.771   0.358   5.759 -1.2439 -2.0232 -0.2154
32357SOL    HW2 8797  11.819   0.217   5.785  0.6322 -0.9555  2.6075
32358SOL     OW 8798   1.916   5.416  10.439 -0.1418  0.5167  0.1963
32358SOL    HW1 8799   1.913   5.505  10.406  0.0561 -0.1578 -1.7826
32358SOL    HW2 8800   1.967   5.368  10.374  1.0833 -0.7478  1.9749
32359SOL     OW 8801   7.422   8.687   4.919  0.6479 -0.1550  0.3209
32359SOL    HW1 8802   7.471   8.605   4.909  2.5508  0.7853  1.3606
32359SOL    HW2 8803   7.370   8.675   4.998 -1.5022 -1.4352 -1.1850
32360SOL     OW 8804   2.397   6.876   0.040 -0.2788 -0.0033 -0.3219
32360SOL    HW1 8805   2.417   6.850   0.130 -1.2552  1.2279  0.2854
32360SOL    HW2 8806   2.458   6.825  -0.014  1.7505  0.7047  1.1485
32361SOL     OW 8807   0.708  12.943  12.712  0.5310 -0.3252 -0.0008
32361SOL    HW1 8808   0.648  12.868  12.706  1.0062 -0.6179 -1.9121
32361SOL    HW2 8809   0.714  12.962  12.805 -1.5487 -1.0737  0.3378
32362SOL     OW 8810   9.529   8.828   5.287 -0.6332 -0.2648  0.7749
32362SOL    HW1 8811   9.520   8.743   5.329  0.3945 -0.7822  0.0174
32362SOL    HW2 8812   9.597   8.814   5.220 -1.8182  0.6425 -0.6879
32363SOL     OW 8813  13.427   8.811   1.886 -0.4156 -0.4167  0.3285
32363SOL    HW1 8814  13.348   8.764   1.859 -1.0301  0.4191  0.6360
32363SOL    HW2 8815  13.496   8.775   1.831 -0.9097 -1.5040  0.3841
32364SOL     OW 8816  11.390   1.023   0.645  0.1835 -0.0679 -0.8898
32364SOL    HW1 8817  11.340   1.082   0.701 -0.4106 -0.6269 -0.8096
32364SOL    HW2 8818  11.367   1.049   0.555 -0.2390 -0.3106 -0.8528
32365SOL     OW 8819   0.986   1.577   4.051  0.4132  0.1254  0.4438
32365SOL    HW1 8820   1.003   1.670   4.066  0.8870  0.2402 -0.6660
32365SOL    HW2 8821   0.977   1.569   3.956 -1.7572 -0.6373  0.6738
32366SOL     OW 8822  12.794   8.753  11.599  0.2764  0.1929 -0.0099
32366SOL    HW1 8823  12.704   8.736  11.570  0.1627 -0.4673  0.7293
32366SOL    HW2 8824  12.807   8.846  11.581 -0.7677  0.4348  0.4469
32367SOL     OW 8825   6.417   6.932   8.417 -0.4534 -0.1024 -0.0196
32367SOL    HW1 8826   6.367   6.962   8.341 -2.0318  0.6411  1.2662
32367SOL    HW2 8827   6.467   7.009   8.445 -0.2905 -0.2238  0.0276
32368SOL     OW 8828  12.053  13.272   9.724  0.4463  0.5324  0.2871
32368SOL    HW1 8829  12.090  13.289   9.810 -1.2502 -1.8326  1.6022
32368SOL    HW2 8830  12.046  13.176   9.719 -3.7030  0.6641 -0.4929
32369SOL     OW 8831   2.941   9.288   8.077 -0.2746 -0.0594 -0.0634
32369SOL    HW1 8832   2.944   9.382   8.062 -4.3831  0.4696  1.1456
32369SOL    HW2 8833   2.940   9.250   7.989 -0.6295  1.1933 -0.6281
32370SOL     OW 8834   7.999   8.211   3.322 -0.2660 -0.3311  0.3567
32370SOL    HW1 8835   8.056   8.271   3.274 -1.0656 -1.2400 -1.8580
32370SOL    HW2 8836   7.910   8.236   3.297 -0.6354 -1.9405 -0.1034
32371SOL     OW 8837  11.013   1.914   8.332  0.3819  0.5153 -0.0412
32371SOL    HW1 8838  11.004   1.872   8.417  0.0786  2.1370  0.7734
32371SOL    HW2 8839  10.924   1.940   8.309 -0.1628 -2.8743 -2.5431
32372SOL     OW 8840  10.761   0.025   8.260 -0.0154  0.3678 -0.1246
32372SOL    HW1 8841  10.704  -0.002   8.188 -0.6226 -1.6299  1.0308
32372SOL    HW2 8842  10.813   0.097   8.224 -0.5886 -0.2928 -2.4202
32373SOL     OW 8843   1.917   2.753  11.811 -0.6495  0.5410 -0.0600
32373SOL    HW1 8844   1.891   2.663  11.794 -2.0832  0.3924  2.4445
32373SOL    HW2 8845   1.897   2.800  11.730  2.5036 -1.7279 -2.3721
32374SOL     OW 8846   5.052   9.246   2.207 -0.1112 -0.3543  0.0035
32374SOL    HW1 8847   4.995   9.275   2.136  0.3639  1.6156  0.3543
32374SOL    HW2 8848   5.000   9.260   2.286  0.1673 -0.3608  0.1882
32375SOL     OW 8849  11.662   1.084   4.888  0.2084  0.2443  0.0409
32375SOL    HW1 8850  11.605   1.153   4.854  0.3195 -0.1149 -0.9305
32375SOL    HW2 8851  11.671   1.023   4.814  0.6332 -0.4705  0.6709
32376SOL     OW 8852   7.412   3.814   1.029  0.2148  0.1719 -0.0949
32376SOL    HW1 8853   7.465   3.742   1.062 -0.1657 -0.0747 -0.0236
32376SOL    HW2 8854   7.454   3.893   1.063  1.9751  0.1444 -1.9810
32377SOL     OW 8855  12.239   0.904   9.259  0.2899  0.1237 -0.6590
32377SOL    HW1 8856  12.246   0.889   9.165  0.3371  0.4368 -0.7068
32377SOL    HW2 8857  12.209   0.995   9.266 -1.1646 -0.3372 -0.4172
32378SOL     OW 8858   0.302   6.474   2.602  0.1413  0.2888  0.0936
32378SOL    HW1 8859   0.220   6.519   2.624  0.6413  1.5574 -0.5319
32378SOL    HW2 8860   0.287   6.383   2.627 -1.1600  0.6625  0.7612
32379SOL     OW 8861   4.132   5.503   7.183  0.7531  0.2675 -0.0351
32379SOL    HW1 8862   4.225   5.519   7.196  0.7315  0.8043 -0.5261
32379SOL    HW2 8863   4.110   5.434   7.247  1.1830  1.0821  1.0137
32380SOL     OW 8864   7.772   5.043   0.548 -0.3607  0.4083  0.1689
32380SOL    HW1 8865   7.857   5.062   0.587 -1.0965  0.4569  1.8021
32380SOL    HW2 8866   7.714   5.111   0.582 -1.2419 -0.0852 -0.3000
32381SOL     OW 8867   4.184   3.191  11.379  0.5746  0.2446  0.3874
32381SOL    HW1 8868   4.147   3.126  11.318 -1.1388  0.4763  1.1282
32381SOL    HW2 8869   4.255   3.144  11.423  1.0431 -0.3033 -0.8912
32382SOL     OW 8870   1.941  13.323  13.334 -0.2202  0.5671 -0.4163
32382SOL    HW1 8871   1.891  13.392  13.289 -1.6667  0.8761  1.5240
32382SOL    HW2 8872   1.938  13.348  13.426  1.5851 -0.6849  0.0315
32383SOL     OW 8873   1.412   2.900   5.906  0.7253  1.2163  0.4916
32383SOL    HW1 8874   1.377   2.954   5.977 -1.3222 -0.2359  0.6649
32383SOL    HW2 8875   1.431   2.816   5.947  0.7064  0.7630 -0.4123
32384SOL     OW 8876   5.632  11.347   6.165 -0.0900  0.1664 -0.1182
32384SOL    HW1 8877   5.677  11.263   6.178  0.8841  0.8148  0.8542
32384SOL    HW2 8878   5.695  11.400   6.116 -0.8147  0.2471 -0.9833
32385SOL     OW 8879  10.655   0.298  10.269  0.0744  0.0198 -0.4472
32385SOL    HW1 8880  10.565   0.328  10.280  0.0774 -0.0120 -0.3302
32385SOL    HW2 8881  10.647   0.202  10.266  0.0999  0.0186 -0.4804
32386SOL     OW 8882   8.045   5.352   6.462  0.3702  0.1083  0.8273
32386SOL    HW1 8883   8.074   5.443   6.449  0.2599  0.1612  0.9595
32386SOL    HW2 8884   7.953   5.352   6.437  0.3975  0.0102  0.7268
32387SOL     OW 8885   8.144   0.968   3.489  0.1301  0.1795 -0.4607
32387SOL    HW1 8886   8.206   0.994   3.421  4.3138 -3.3855  1.4331
32387SOL    HW2 8887   8.151   1.036   3.556 -1.7451  2.1626 -2.1395
32388SOL     OW 8888   9.000  12.125   3.368 -0.1009 -0.3892 -0.1237
32388SOL    HW1 8889   9.067  12.191   3.384 -2.2781  2.2742 -1.2419
32388SOL    HW2 8890   8.983  12.130   3.274 -1.2616 -1.6491 -0.0165
32389SOL     OW 8891  11.177  10.998   6.600  0.1511  0.5270  0.1304
32389SOL    HW1 8892  11.144  11.050   6.526 -2.1475 -0.0771  0.6567
32389SOL    HW2 8893  11.252  10.951   6.564 -1.7897 -0.9509 -2.3806
32390SOL     OW 8894   1.847   3.028   2.592 -0.0226 -0.4104 -0.3123
32390SOL    HW1 8895   1.822   2.986   2.675  0.4379  0.0425  0.0673
32390SOL    HW2 8896   1.932   3.067   2.610  0.3179 -0.7409 -1.1609
32391SOL     OW 8897   9.272  10.207   2.575  0.3355  0.4547  0.2164
32391SOL    HW1 8898   9.225  10.132   2.611 -0.5454  0.7930 -0.1998
32391SOL    HW2 8899   9.225  10.283   2.611 -0.0506  0.7994 -0.9703
32392SOL     OW 8900   7.014  10.069   5.625  0.8081  0.4235  0.5264
32392SOL    HW1 8901   7.058  10.091   5.543  1.1950  0.2057  0.6688
32392SOL    HW2 8902   7.085  10.042   5.683  0.3300 -2.1535  0.0655
32393SOL     OW 8903   6.382   2.440   7.151  0.7173  0.3859 -0.3706
32393SOL    HW1 8904   6.441   2.365   7.156  0.6540  0.3391 -0.3271
32393SOL    HW2 8905   6.437   2.512   7.121  1.7214  1.2774  3.1307
32394SOL     OW 8906  11.253   3.679   5.269  0.1914  0.9787 -0.4778
32394SOL    HW1 8907  11.234   3.662   5.361 -1.3024  1.7507 -0.6046
32394SOL    HW2 8908  11.288   3.597   5.236  0.1308  0.4909  0.6199
32395SOL     OW 8909   4.766   1.144   2.162  0.0016  0.4769 -0.5288
32395SOL    HW1 8910   4.733   1.136   2.252 -0.4389  0.3091 -0.7029
32395SOL    HW2 8911   4.690   1.129   2.107  0.2774  0.5454 -0.9351
32396SOL     OW 8912   0.136   7.562   2.326  0.4881 -0.2683 -0.4474
32396SOL    HW1 8913   0.076   7.633   2.350  2.0130  1.1728 -0.6584
32396SOL    HW2 8914   0.209   7.571   2.387  0.4621 -2.0699 -0.1059
32397SOL     OW 8915   9.787   0.133   0.925 -0.4063  0.0114 -0.4307
32397SOL    HW1 8916   9.779   0.196   0.996  1.4116 -0.2946  0.1133
32397SOL    HW2 8917   9.698   0.103   0.909 -0.9502  0.6044  1.2499
32398SOL     OW 8918   1.538  13.052   7.977 -0.0189 -0.3220 -0.6386
32398SOL    HW1 8919   1.611  13.047   7.916 -1.1501 -0.6749 -2.0384
32398SOL    HW2 8920   1.536  13.142   8.007  1.5753 -0.5452  0.1999
32399SOL     OW 8921  13.662  11.665  13.559  0.0758  0.1000  0.2717
32399SOL    HW1 8922  13.666  11.740  13.500  2.4642  0.8088  1.2219
32399SOL    HW2 8923  13.677  11.589  13.503  1.0301  0.6488 -0.2459
32400SOL     OW 8924   6.737   3.188   8.435 -0.5878 -0.5568 -0.8854
32400SOL    HW1 8925   6.647   3.221   8.438  0.3188  2.1308 -0.0528
32400SOL    HW2 8926   6.738   3.128   8.360 -3.1755 -1.1246 -0.5640
32401SOL     OW 8927   0.401   9.082   1.665 -0.1075 -0.2786  0.1894
32401SOL    HW1 8928   0.360   9.114   1.745  0.4349 -1.7038  1.0667
32401SOL    HW2 8929   0.343   9.013   1.634  0.6636 -1.0355  0.4139
32402SOL     OW 8930  12.685   6.332  10.419 -0.1644  0.5292 -0.1752
32402SOL    HW1 8931  12.772   6.329  10.379  1.1431 -0.1610  2.4948
32402SOL    HW2 8932  12.659   6.424  10.414  1.0552  0.8834 -0.3334
32403SOL     OW 8933   2.241  12.010   4.191 -0.2211 -0.0519 -0.1261
32403SOL    HW1 8934   2.304  11.938   4.194 -0.8520 -0.6032  0.1556
32403SOL    HW2 8935   2.190  12.000   4.272  0.8644  1.7987  0.8663
32404SOL     OW 8936   4.283   7.499   7.801 -0.4569 -0.0950 -0.1257
32404SOL    HW1 8937   4.205   7.446   7.786  0.1213 -0.8193 -0.6413
32404SOL    HW2 8938   4.338   7.443   7.857  1.3239 -1.2237 -2.8242
32405SOL     OW 8939   1.402   1.661   9.759 -0.3726 -0.1422 -0.1246
32405SOL    HW1 8940   1.391   1.729   9.692 -0.1268 -0.6723 -0.7161
32405SOL    HW2 8941   1.400   1.708   9.842 -0.8462  0.5096 -0.4985
32406SOL     OW 8942   7.790  13.309  12.161 -0.2040  0.5376  0.1394
32406SOL    HW1 8943   7.762  13.356  12.082 -1.4705 -0.9369 -0.3112
32406SOL    HW2 8944   7.880  13.281  12.140 -0.1316  1.0821 -0.3352
32407SOL     OW 8945   0.635   9.748   9.842  0.1899 -0.5288  0.0817
32407SOL    HW1 8946   0.620   9.765   9.749  0.3547 -2.6310 -0.3740
32407SOL    HW2 8947   0.723   9.712   9.846  0.2194 -0.3685  1.0761
32408SOL     OW 8948   8.901   7.051   7.320  0.5318 -0.4454 -0.2396
32408SOL    HW1 8949   8.873   6.971   7.275 -0.5604  0.5757 -1.4650
32408SOL    HW2 8950   8.819   7.097   7.339  1.1254  0.2099  0.8024
32409SOL     OW 8951  10.584   2.766  11.604  0.9493  0.0629  0.5501
32409SOL    HW1 8952  10.499   2.745  11.564  0.5129  0.5702  1.1838
32409SOL    HW2 8953  10.588   2.709  11.681  0.7875  0.6538  1.0034
32410SOL     OW 8954   7.409   5.254   4.328  0.4114 -0.5929 -0.3030
32410SOL    HW1 8955   7.451   5.330   4.287  0.2441 -0.7551 -0.7728
32410SOL    HW2 8956   7.316   5.276   4.331  0.5490 -0.1202  0.9837
32411SOL     OW 8957   3.252   6.344   8.398  0.3558 -0.1284 -0.0018
32411SOL    HW1 8958   3.242   6.419   8.456  1.2575  0.4602 -0.5937
32411SOL    HW2 8959   3.171   6.342   8.347  0.3864  0.5312 -0.0783
32412SOL     OW 8960   6.071   3.627   0.086 -0.1355 -0.5064 -0.8534
32412SOL    HW1 8961   6.000   3.563   0.092  1.4862 -2.5501 -2.0519
32412SOL    HW2 8962   6.143   3.587   0.136  0.8268  0.5351 -1.3670
32413SOL     OW 8963   3.122  12.947  12.788 -0.1433  0.7159 -0.4845
32413SOL    HW1 8964   3.217  12.959  12.778 -0.1282  1.7908  0.7072
32413SOL    HW2 8965   3.094  12.909  12.705  1.1994  1.1632 -1.1742
32414SOL     OW 8966   3.066   9.093   1.744 -0.2073 -0.0962  0.5661
32414SOL    HW1 8967   3.103   9.145   1.673  0.2225 -0.2002  0.7135
32414SOL    HW2 8968   2.976   9.126   1.753 -0.7440 -1.0313 -0.9556
32415SOL     OW 8969  10.095   2.366  10.034  0.6255 -0.3045  0.4755
32415SOL    HW1 8970  10.032   2.436  10.052 -0.8459 -1.6275  0.6876
32415SOL    HW2 8971  10.125   2.383   9.945  1.7034  1.6130  1.1487
32416SOL     OW 8972   7.913  13.418   3.985  0.0930  0.3303  0.3473
32416SOL    HW1 8973   7.966  13.433   3.906  0.5669  1.4149  0.8486
32416SOL    HW2 8974   7.825  13.449   3.961 -0.1045 -0.6188 -0.1889
32417SOL     OW 8975   6.825   2.540   3.409  0.7227 -0.1283 -0.0692
32417SOL    HW1 8976   6.750   2.480   3.409  1.4360 -1.0556 -1.0607
32417SOL    HW2 8977   6.901   2.483   3.418  1.2946  0.8672  1.6625
32418SOL     OW 8978   3.113  12.259   7.307 -0.0479 -0.0808  0.0832
32418SOL    HW1 8979   3.072  12.252   7.221 -0.2145  1.1840  0.0433
32418SOL    HW2 8980   3.080  12.183   7.355  0.5635 -1.1770 -1.1549
32419SOL     OW 8981  13.227   1.749   8.071  0.5097  0.0725 -0.1437
32419SOL    HW1 8982  13.276   1.793   8.001 -0.0065  1.2423  0.2067
32419SOL    HW2 8983  13.149   1.803   8.083  0.3784 -0.3491  1.0302
32420SOL     OW 8984  12.349   0.534   3.096 -0.5283  0.0190 -0.7292
32420SOL    HW1 8985  12.368   0.560   3.186 -1.1999  0.7148 -0.7730
32420SOL    HW2 8986  12.258   0.505   3.098 -0.1570 -1.2238 -0.9317
32421SOL     OW 8987   0.807   5.339   4.571  0.5782 -0.5475  0.0793
32421SOL    HW1 8988   0.817   5.434   4.582  1.0270 -0.6096  0.2105
32421SOL    HW2 8989   0.730   5.330   4.514 -0.6047 -0.1588  1.5478
32422SOL     OW 8990   0.925  11.093   1.681 -0.3872 -0.1323  0.5459
32422SOL    HW1 8991   0.917  11.002   1.708  1.7009 -0.1777  1.1613
32422SOL    HW2 8992   0.939  11.141   1.762 -1.0447  0.7006  0.1849
32423SOL     OW 8993  13.443   0.619   8.702  0.8605  0.0371  0.4452
32423SOL    HW1 8994  13.452   0.659   8.616  0.5831 -1.9653 -0.5605
32423SOL    HW2 8995  13.378   0.550   8.690  1.2192 -0.6417  2.1253
32424SOL     OW 8996   3.107   6.405   7.386 -0.2567 -0.2989  0.0527
32424SOL    HW1 8997   3.065   6.469   7.328 -0.2999 -1.3174 -1.0690
32424SOL    HW2 8998   3.113   6.450   7.470  0.0815  1.3396 -0.8049
32425SOL     OW 8999  11.644   3.300   8.659 -0.0311 -0.2805 -0.1965
32425SOL    HW1 9000  11.718   3.304   8.719 -1.5172 -0.5281  1.7347
32425SOL    HW2 9001  11.673   3.242   8.589  0.9167 -1.9931  1.5392
32426SOL     OW 9002  13.171  10.661   4.190  0.1218  0.2088 -0.4958
32426SOL    HW1 9003  13.224  10.607   4.249  1.1162  1.3613 -0.2735
32426SOL    HW2 9004  13.082  10.629   4.201  0.4056 -0.1423  1.0524
32427SOL     OW 9005  11.821   5.655  13.015 -0.2910 -0.0781 -0.3884
32427SOL    HW1 9006  11.870   5.588  12.967 -0.7249 -1.9968  1.6555
32427SOL    HW2 9007  11.782   5.607  13.089 -1.6123  2.2332  0.5120
32428SOL     OW 9008  10.088  10.327   5.501  0.3785 -0.8529 -0.6961
32428SOL    HW1 9009  10.099  10.397   5.438  0.4188 -1.1999 -1.0789
32428SOL    HW2 9010  10.176  10.289   5.510  0.1124 -1.6843 -1.4718
32429SOL     OW 9011  13.317   3.762   7.995  0.2798  0.1897  0.0002
32429SOL    HW1 9012  13.224   3.759   7.973  0.4588  1.1091 -0.9508
32429SOL    HW2 9013  13.333   3.853   8.021  1.0502  0.2133 -0.5151
32430SOL     OW 9014  11.877   0.674  12.594  0.4709 -0.5129 -0.4938
32430SOL    HW1 9015  11.971   0.671  12.611  0.3432  0.8979  0.5770
32430SOL    HW2 9016  11.854   0.766  12.600 -0.7368 -0.6369 -2.2746
32431SOL     OW 9017   7.419   9.371  12.693 -0.1504 -0.4891  0.2262
32431SOL    HW1 9018   7.420   9.455  12.740 -0.2914  0.4328 -1.3611
32431SOL    HW2 9019   7.497   9.325  12.724 -0.8553 -0.4284  2.2314
32432SOL     OW 9020   4.940  10.491   0.994 -0.2296 -0.8771  0.3421
32432SOL    HW1 9021   5.036  10.496   0.996 -0.1811 -1.8337  0.9666
32432SOL    HW2 9022   4.922  10.415   0.938 -0.5252 -2.4236  2.4199
32433SOL     OW 9023   2.608  13.052   1.750  0.1204  0.2234 -0.4417
32433SOL    HW1 9024   2.664  13.116   1.793  0.8200 -0.3749 -0.4353
32433SOL    HW2 9025   2.563  13.007   1.821 -0.2241  0.5736 -0.4368
32434SOL     OW 9026   0.702   5.412   2.936 -0.1006 -0.0970 -0.5464
32434SOL    HW1 9027   0.742   5.497   2.956  0.3093 -0.3880 -0.1424
32434SOL    HW2 9028   0.684   5.373   3.021 -0.3131 -0.4128 -0.7333
32435SOL     OW 9029   6.896   5.135  12.485 -0.0228  0.5637  0.2291
32435SOL    HW1 9030   6.906   5.223  12.520 -0.7236  1.5975 -1.9912
32435SOL    HW2 9031   6.812   5.104  12.520  0.9011  0.1295  2.1920
32436SOL     OW 9032   7.260   9.710   5.412  0.2659 -0.4948 -0.6249
32436SOL    HW1 9033   7.302   9.693   5.496 -0.8297 -0.8662 -0.1385
32436SOL    HW2 9034   7.307   9.785   5.376  0.0413  0.3641  0.8157
32437SOL     OW 9035   0.876   6.791   0.619 -0.3597  0.4485  0.0062
32437SOL    HW1 9036   0.787   6.770   0.649 -0.7482  1.6987 -0.2228
32437SOL    HW2 9037   0.875   6.771   0.526 -0.0401 -0.6245  0.2182
32438SOL     OW 9038   6.609   5.805   9.442  0.1704 -0.3569 -0.4943
32438SOL    HW1 9039   6.619   5.831   9.351 -0.2627 -0.2372 -0.5108
32438SOL    HW2 9040   6.674   5.735   9.454  0.2711 -0.3323 -0.8760
32439SOL     OW 9041   4.141  11.169   2.391 -0.6137 -0.1647 -0.1881
32439SOL    HW1 9042   4.225  11.162   2.347 -1.0676 -0.1810 -1.0810
32439SOL    HW2 9043   4.085  11.106   2.345 -0.7965 -1.0495  1.1801
32440SOL     OW 9044   7.267   1.946  10.912  0.2795 -0.7746  0.1032
32440SOL    HW1 9045   7.248   1.877  10.849  1.9248  0.0897 -1.4275
32440SOL    HW2 9046   7.183   1.964  10.955 -0.7705 -1.7845 -1.4422
32441SOL     OW 9047  12.192   7.006   4.085  0.0906  0.0727 -0.4631
32441SOL    HW1 9048  12.243   6.937   4.042  0.0625 -0.7518  0.7732
32441SOL    HW2 9049  12.119   6.960   4.126 -0.6373  1.0147 -0.6643
32442SOL     OW 9050   0.143  13.427  11.262 -0.5767  0.1986 -0.2675
32442SOL    HW1 9051   0.179  13.339  11.269 -0.6123  0.2974  1.5541
32442SOL    HW2 9052   0.159  13.453  11.171  4.9029  0.6109  0.5023
32443SOL     OW 9053   1.281   8.385   2.609  0.6327  0.5534 -0.0563
32443SOL    HW1 9054   1.230   8.341   2.677  0.1880  0.3014 -0.5486
32443SOL    HW2 9055   1.217   8.407   2.541  0.7145  2.5445  0.4533
32444SOL     OW 9056   9.170   3.241   6.251  0.2073  0.4979  0.5948
32444SOL    HW1 9057   9.121   3.317   6.219 -0.6421  0.6533  2.1853
32444SOL    HW2 9058   9.124   3.165   6.215 -0.4975  0.6739  1.1267
32445SOL     OW 9059   5.992   1.029   8.906 -0.9936 -0.8603  0.0199
32445SOL    HW1 9060   5.982   0.950   8.959  0.2425 -0.8363  0.3020
32445SOL    HW2 9061   6.063   1.078   8.947 -1.2117  0.0223 -0.6204
32446SOL     OW 9062   2.650  13.070   2.683 -0.2536  0.5504  0.4667
32446SOL    HW1 9063   2.594  13.011   2.733 -2.0829  0.7611 -1.2212
32446SOL    HW2 9064   2.597  13.149   2.671  0.5301  0.8942 -0.9398
32447SOL     OW 9065   8.111  10.972   1.140  0.0360 -0.4854  0.8656
32447SOL    HW1 9066   8.121  10.912   1.214 -0.1834 -0.6959  0.7247
32447SOL    HW2 9067   8.029  10.946   1.099 -0.1493  0.0177  0.9045
32448SOL     OW 9068   5.614   9.711   6.347 -0.3969  0.2051 -0.1935
32448SOL    HW1 9069   5.571   9.783   6.395 -2.0216 -1.2300  0.6026
32448SOL    HW2 9070   5.559   9.635   6.364  0.8545 -1.0838 -1.6611
32449SOL     OW 9071  12.106  12.818  13.322 -0.4572  0.0245 -0.3274
32449SOL    HW1 9072  12.097  12.892  13.383  0.8155  0.9463 -1.1998
32449SOL    HW2 9073  12.017  12.786  13.310 -1.0454  1.4087  0.0987
32450SOL     OW 9074   8.387   2.426   8.468 -0.3105  0.0534  0.2705
32450SOL    HW1 9075   8.379   2.386   8.555 -1.4336 -0.7427 -0.1733
32450SOL    HW2 9076   8.315   2.387   8.418 -2.2682  3.4760  0.1256
32451SOL     OW 9077   9.662   2.991   8.827  0.3811  0.6069 -0.1116
32451SOL    HW1 9078   9.598   2.997   8.756 -0.5744 -1.3483  0.5085
32451SOL    HW2 9079   9.739   3.037   8.794 -1.1506  2.7217 -1.0468
32452SOL     OW 9080   9.668   7.977  13.271  0.0654 -0.1941 -0.5602
32452SOL    HW1 9081   9.715   7.953  13.351  0.1579 -1.0951 -0.8785
32452SOL    HW2 9082   9.736   7.982  13.204  0.0561  1.0200 -0.4951
32453SOL     OW 9083   2.918   2.563   9.628  0.2183  0.3859  0.4169
32453SOL    HW1 9084   2.852   2.518   9.574 -0.4088  0.8533  0.7749
32453SOL    HW2 9085   2.973   2.492   9.661  0.5062  0.0745 -0.6801
32454SOL     OW 9086   1.851   3.707   0.525 -0.0914  0.3028 -0.0495
32454SOL    HW1 9087   1.817   3.752   0.602 -0.9135 -0.6381  0.1697
32454SOL    HW2 9088   1.926   3.657   0.557 -0.3862 -0.0272  0.1398
32455SOL     OW 9089   8.186   7.739  13.143 -0.6004  0.7768  0.0446
32455SOL    HW1 9090   8.150   7.702  13.062  2.0646  0.8662 -1.3279
32455SOL    HW2 9091   8.134   7.817  13.160 -3.9100 -1.4243  0.8691
32456SOL     OW 9092  10.713  12.389  11.908  0.8514  1.0365  0.1367
32456SOL    HW1 9093  10.768  12.311  11.913 -0.1723  0.1404 -1.5133
32456SOL    HW2 9094  10.731  12.425  11.821 -1.9363  0.0348 -0.9654
32457SOL     OW 9095   7.700   7.184   5.893  0.2638  0.4091 -0.2270
32457SOL    HW1 9096   7.654   7.152   5.970  0.5233 -0.9341 -0.6011
32457SOL    HW2 9097   7.663   7.133   5.821  0.6646  1.0063 -0.8685
32458SOL     OW 9098   6.728   8.436   5.666  0.6386 -0.2739 -0.3054
32458SOL    HW1 9099   6.787   8.375   5.710 -0.3251 -0.7222  0.4144
32458SOL    HW2 9100   6.744   8.519   5.710 -0.0506 -0.6382  0.6770
32459SOL     OW 9101   3.345   2.202  13.362  0.6833 -0.2947  0.2336
32459SOL    HW1 9102   3.303   2.131  13.410  0.9133 -1.0888 -0.7040
32459SOL    HW2 9103   3.398   2.159  13.295 -1.2735  0.7202 -2.1633
32460SOL     OW 9104  10.122   4.358   9.909  0.0981 -0.1592  1.0451
32460SOL    HW1 9105  10.204   4.390   9.946  1.0086 -2.2096  0.9380
32460SOL    HW2 9106  10.147   4.280   9.860 -1.4348  1.0616 -1.8959
32461SOL     OW 9107   2.963   2.550   1.942  0.4532 -0.3313  0.0201
32461SOL    HW1 9108   2.905   2.510   1.877 -1.2581 -1.4610  2.1169
32461SOL    HW2 9109   2.915   2.626   1.974 -0.1862 -1.5643  2.1404
32462SOL     OW 9110   4.778  12.915   4.113 -0.1204 -0.5656 -0.2180
32462SOL    HW1 9111   4.720  12.870   4.052  0.5871 -2.0264  0.1331
32462SOL    HW2 9112   4.724  12.929   4.191 -0.7311  0.4094 -0.7951
32463SOL     OW 9113   4.334  10.239   1.514  0.1008  0.2764  0.1585
32463SOL    HW1 9114   4.252  10.265   1.472  0.3935 -0.4670 -0.9050
32463SOL    HW2 9115   4.365  10.318   1.557 -0.3687  0.9885 -0.7784
32464SOL     OW 9116   2.196   3.992   5.193  0.6904  0.1484  0.0706
32464SOL    HW1 9117   2.234   4.007   5.107  2.4007  0.1245  0.7838
32464SOL    HW2 9118   2.233   4.061   5.248  1.6992 -1.3369  1.3508
32465SOL     OW 9119  10.087  10.347  12.403  0.0132 -0.1185  0.0779
32465SOL    HW1 9120  10.002  10.306  12.422  0.2039  0.4326  2.2975
32465SOL    HW2 9121  10.133  10.282  12.349 -0.1283 -2.3942  2.5180
32466SOL     OW 9122  13.566   5.593   6.052 -0.4440 -0.4001  0.1650
32466SOL    HW1 9123  13.518   5.626   5.977  0.6234 -1.1191 -0.8623
32466SOL    HW2 9124  13.656   5.583   6.022  0.6390  1.8725  2.3373
32467SOL     OW 9125   3.248  11.212  10.179 -0.7277 -0.8030 -0.4690
32467SOL    HW1 9126   3.205  11.223  10.094 -1.4444 -1.1593 -0.1607
32467SOL    HW2 9127   3.338  11.189  10.157 -0.5336  0.4829 -1.1233
32468SOL     OW 9128   1.095   0.346   4.356  0.1513 -0.1775 -0.1146
32468SOL    HW1 9129   1.167   0.309   4.407  0.1884 -0.0414 -0.0702
32468SOL    HW2 9130   1.137   0.404   4.293  0.0771 -0.0748 -0.0686
32469SOL     OW 9131  11.550   1.488   6.735  0.2301 -0.5734  0.4757
32469SOL    HW1 9132  11.624   1.482   6.674 -0.3688 -2.6801 -0.1222
32469SOL    HW2 9133  11.578   1.439   6.812 -1.0213 -2.7126 -0.3448
32470SOL     OW 9134  11.032  10.795   8.658  0.5559  0.2978 -0.6201
32470SOL    HW1 9135  10.990  10.770   8.576  0.2445  1.1392 -0.7309
32470SOL    HW2 9136  11.067  10.883   8.642 -0.6025  1.0122  0.5092
32471SOL     OW 9137  13.386   6.565   1.784 -0.5391  0.1286 -0.6928
32471SOL    HW1 9138  13.312   6.549   1.843 -0.6935 -1.5385 -1.2715
32471SOL    HW2 9139  13.455   6.506   1.816  0.5968  1.7322 -0.1050
32472SOL     OW 9140  10.377   1.576   6.179 -0.1044  0.4101 -0.1997
32472SOL    HW1 9141  10.413   1.663   6.195 -0.8321  0.6728  0.0806
32472SOL    HW2 9142  10.290   1.579   6.219 -0.5899 -0.0703 -1.1949
32473SOL     OW 9143  13.286   8.149  12.448 -0.0715  0.2114 -0.0906
32473SOL    HW1 9144  13.277   8.123  12.539  1.2155 -2.1246 -0.5562
32473SOL    HW2 9145  13.196   8.152  12.415 -0.6405  2.1454  1.4531
32474SOL     OW 9146  10.111  13.407   4.914 -0.3514  0.0155 -0.2735
32474SOL    HW1 9147  10.097  13.462   4.991 -1.6083 -0.3288 -0.2303
32474SOL    HW2 9148  10.108  13.318   4.949  0.9868 -0.1087 -0.4453
32475SOL     OW 9149   0.213   2.511   4.104 -0.0861  0.0823 -0.3674
32475SOL    HW1 9150   0.291   2.565   4.092 -0.3763  0.5022 -0.3660
32475SOL    HW2 9151   0.219   2.444   4.037  1.5929 -1.4366  1.1837
32476SOL     OW 9152   2.020   6.535   2.897 -0.4078  0.2341  0.6465
32476SOL    HW1 9153   1.931   6.566   2.914 -0.8041  0.4283 -1.5011
32476SOL    HW2 9154   2.075   6.613   2.910 -0.6278  0.2737  1.3561
32477SOL     OW 9155   9.332   0.654  10.435 -0.2294  0.4475  0.1525
32477SOL    HW1 9156   9.250   0.622  10.472  0.4210 -0.7652  0.6312
32477SOL    HW2 9157   9.306   0.720  10.370 -1.7045 -1.1845 -1.0292
32478SOL     OW 9158   5.273   8.453   5.229 -0.2436  0.5879  0.0749
32478SOL    HW1 9159   5.254   8.547   5.222  0.8581  0.7602 -0.9668
32478SOL    HW2 9160   5.280   8.437   5.323 -0.5036  1.5445  0.2690
32479SOL     OW 9161  13.724  10.231   1.069 -0.0699  0.2064  0.7235
32479SOL    HW1 9162  13.762  10.254   0.984 -2.8790  0.0086 -0.6933
32479SOL    HW2 9163  13.730  10.311   1.121  1.3380  0.4376  0.2584
32480SOL     OW 9164   1.381   3.822   5.765  0.7160  0.3202  0.0601
32480SOL    HW1 9165   1.476   3.833   5.755  1.0823 -0.0852  2.3347
32480SOL    HW2 9166   1.372   3.742   5.817 -0.9240  0.0886 -0.5272
32481SOL     OW 9167  11.499   4.029  11.201 -0.0466 -0.5281  0.4648
32481SOL    HW1 9168  11.477   3.939  11.225 -1.2719 -0.0842  1.0685
32481SOL    HW2 9169  11.458   4.042  11.115 -4.1800  0.9098  2.3901
32482SOL     OW 9170   3.260   1.694  12.511 -0.3368 -0.3142 -0.2076
32482SOL    HW1 9171   3.188   1.755  12.527 -0.0377  0.3281 -1.1935
32482SOL    HW2 9172   3.277   1.703  12.417  1.1971 -0.2673  0.0575
32483SOL     OW 9173  12.676  12.231   9.383  0.3414  0.6579  0.2622
32483SOL    HW1 9174  12.682  12.139   9.409  1.9615  0.5351 -0.4461
32483SOL    HW2 9175  12.663  12.228   9.288  1.6504  1.1446  0.0454
32484SOL     OW 9176   4.118  11.627  12.400 -0.3022 -0.0535  0.6383
32484SOL    HW1 9177   4.071  11.704  12.433  1.3174  0.7957  1.0822
32484SOL    HW2 9178   4.161  11.591  12.477 -0.5280 -1.0470  0.3110
32485SOL     OW 9179   4.729   3.084  11.561 -0.2839 -0.4946 -0.0006
32485SOL    HW1 9180   4.824   3.094  11.555 -0.4046  0.0068 -1.1989
32485SOL    HW2 9181   4.694   3.161  11.518 -1.2447 -1.3215 -0.7357
32486SOL     OW 9182   3.113   6.231   9.925 -0.0517 -0.5705  0.0071
32486SOL    HW1 9183   3.058   6.179   9.983 -0.9208 -0.0558 -0.3391
32486SOL    HW2 9184   3.201   6.227   9.965 -0.5344 -0.5894  1.1029
32487SOL     OW 9185  12.300   4.759   2.659 -0.2391 -0.4057  0.0921
32487SOL    HW1 9186  12.271   4.700   2.729 -0.1981 -0.2021  0.2819
32487SOL    HW2 9187  12.354   4.824   2.704 -1.2244  0.4564  0.0558
32488SOL     OW 9188   0.175   1.552   5.538 -0.0848 -0.2046  0.3163
32488SOL    HW1 9189   0.242   1.495   5.577  0.4440  0.1112 -0.1238
32488SOL    HW2 9190   0.140   1.501   5.465  1.5412  0.6507 -1.1111
32489SOL     OW 9191  12.929   1.153   1.062  0.2319  0.0404 -0.2444
32489SOL    HW1 9192  12.924   1.067   1.020 -1.1554 -0.7450  1.4286
32489SOL    HW2 9193  12.843   1.166   1.101  1.1164  1.1877  1.4324
32490SOL     OW 9194  11.174   0.920   3.286 -0.9431 -0.0684  0.4011
32490SOL    HW1 9195  11.166   0.931   3.381 -2.7457 -0.5755  0.3316
32490SOL    HW2 9196  11.110   0.981   3.249  2.4624  3.2014 -0.7492
32491SOL     OW 9197  13.180   5.999   9.902  0.1281 -0.4005  0.1247
32491SOL    HW1 9198  13.244   5.994   9.830 -0.1887  0.7956 -0.2686
32491SOL    HW2 9199  13.099   5.964   9.865  0.2708 -0.8944  0.2776
32492SOL     OW 9200  10.692   1.907   1.774 -0.6680 -0.4748  0.0132
32492SOL    HW1 9201  10.774   1.950   1.799 -1.0135  0.3281 -0.2070
32492SOL    HW2 9202  10.698   1.819   1.813  1.0610 -1.0739 -1.4573
32493SOL     OW 9203  10.402   3.388   7.097  0.6965  0.3231 -0.2114
32493SOL    HW1 9204  10.353   3.326   7.150 -0.1413  0.8911 -0.3115
32493SOL    HW2 9205  10.376   3.474   7.129  0.3607  0.6746 -1.3535
32494SOL     OW 9206   6.890   0.035  12.397  0.5066  0.0273 -0.0046
32494SOL    HW1 9207   6.891   0.035  12.301 -0.3303 -1.4607 -0.0345
32494SOL    HW2 9208   6.981   0.022  12.422  0.6447 -0.2058 -0.6107
32495SOL     OW 9209   3.870   4.750  12.662  0.2463  0.0568 -0.6461
32495SOL    HW1 9210   3.851   4.749  12.568 -0.5454  2.4626 -0.5867
32495SOL    HW2 9211   3.895   4.841  12.680  2.9583 -0.9350  1.0418
32496SOL     OW 9212   6.031   1.292  12.663  0.1393  0.0961 -0.1587
32496SOL    HW1 9213   6.076   1.271  12.581 -0.2137  1.0447 -0.6143
32496SOL    HW2 9214   5.955   1.343  12.636  0.3195  0.9068  0.8050
32497SOL     OW 9215   0.633   7.428   9.270 -0.6091 -0.1955  0.2095
32497SOL    HW1 9216   0.672   7.389   9.192 -1.9529  1.4228 -1.3561
32497SOL    HW2 9217   0.542   7.399   9.269 -0.6401 -0.1668  1.2036
32498SOL     OW 9218  12.022  10.256   5.326  0.1105  0.0008 -0.2232
32498SOL    HW1 9219  11.984  10.341   5.305 -0.1604  0.3925  1.6834
32498SOL    HW2 9220  11.946  10.199   5.338  0.2836 -0.4402 -1.1443
32499SOL     OW 9221   2.904  10.459   0.116  0.1176 -0.2839 -0.0952
32499SOL    HW1 9222   2.926  10.373   0.151  0.4233 -0.3109 -0.3449
32499SOL    HW2 9223   2.940  10.459   0.027 -1.5120 -0.5800 -0.7823
32500SOL     OW 9224  10.491   3.120   1.686 -0.5012 -0.5826 -0.0127
32500SOL    HW1 9225  10.558   3.055   1.708 -0.5631 -0.2611  1.2004
32500SOL    HW2 9226  10.417   3.098   1.742 -0.7908  0.0885 -0.1241
32501SOL     OW 9227   7.077   1.041   7.393 -0.0735  1.1067 -0.0374
32501SOL    HW1 9228   7.118   1.090   7.321 -0.8106  0.9912 -0.5376
32501SOL    HW2 9229   6.984   1.040   7.372 -0.1988  0.3948  0.5199
32502SOL     OW 9230  13.561  11.963   1.282  0.0842  0.1722 -0.1732
32502SOL    HW1 9231  13.622  11.974   1.209  1.8696 -0.2429  1.2065
32502SOL    HW2 9232  13.580  11.876   1.316 -1.0561  0.1766  0.5112
32503SOL     OW 9233  12.954  10.715   4.871  0.0686  0.4241  0.0802
32503SOL    HW1 9234  12.900  10.701   4.948  1.6898  1.8822  1.5737
32503SOL    HW2 9235  12.899  10.688   4.797 -2.7903  2.0006  1.4549
32504SOL     OW 9236   8.919  10.953   4.806 -0.0620  0.2087 -0.3062
32504SOL    HW1 9237   8.969  10.873   4.823 -1.3033 -0.4561  0.3660
32504SOL    HW2 9238   8.922  10.964   4.711 -0.7312 -1.2285 -0.5227
32505SOL     OW 9239   7.146   5.992  12.606 -0.0932  0.1667  0.6769
32505SOL    HW1 9240   7.202   6.062  12.572 -2.0537  1.1546 -0.6902
32505SOL    HW2 9241   7.201   5.914  12.604  0.9287  0.8616 -1.6830
32506SOL     OW 9242   4.859   3.081   7.043  0.1304  0.0557 -0.1769
32506SOL    HW1 9243   4.828   3.095   7.132  1.5414 -0.1385  0.3715
32506SOL    HW2 9244   4.867   2.986   7.034  0.4516  0.0937 -0.3316
32507SOL     OW 9245   3.215   3.596   9.315  0.3415 -1.1596 -0.2817
32507SOL    HW1 9246   3.264   3.579   9.395  0.7941 -0.3422 -0.3723
32507SOL    HW2 9247   3.271   3.561   9.245  0.7362 -0.3779 -0.3709
32508SOL     OW 9248   2.929  12.567   2.286 -0.2084 -0.2910  0.2051
32508SOL    HW1 9249   3.014  12.547   2.247  0.2831  0.9997  0.5670
32508SOL    HW2 9250   2.870  12.577   2.211  0.3572  0.5126 -0.1506
32509SOL     OW 9251   0.522   3.494   5.273  0.1202 -0.6685  0.3207
32509SOL    HW1 9252   0.436   3.452   5.271  0.4578 -1.3551 -0.3961
32509SOL    HW2 9253   0.531   3.527   5.362 -0.3476 -1.7360  0.7866
32510SOL     OW 9254   4.132   2.084   1.618  0.0018  0.7184 -0.3949
32510SOL    HW1 9255   4.167   2.171   1.602 -1.1345  1.2043 -0.3276
32510SOL    HW2 9256   4.186   2.026   1.563  0.6510  1.4753 -0.5752
32511SOL     OW 9257   3.814   7.118   7.147 -0.5516 -0.2181 -0.1148
32511SOL    HW1 9258   3.844   7.127   7.056  1.3542  0.1611  0.5029
32511SOL    HW2 9259   3.721   7.143   7.144 -0.1168  1.4790 -1.6766
32512SOL     OW 9260   3.500   7.663  13.454  0.2390 -0.4384 -0.7417
32512SOL    HW1 9261   3.410   7.672  13.422  0.3406  0.1296 -0.8780
32512SOL    HW2 9262   3.555   7.689  13.379  0.4868  0.5610 -0.2254
32513SOL     OW 9263   8.371   1.548   0.641  0.7243  0.0689 -0.1656
32513SOL    HW1 9264   8.349   1.455   0.644 -1.5151  0.5723  0.9609
32513SOL    HW2 9265   8.289   1.592   0.616  1.8258  1.7269 -1.0726
32514SOL     OW 9266   9.963   2.478   0.006  0.0307  1.0360  0.1469
32514SOL    HW1 9267   9.934   2.565   0.032  0.5438  0.7922  1.5982
32514SOL    HW2 9268   9.931   2.420   0.074 -1.7090 -0.1943 -1.6100
32515SOL     OW 9269   6.683   0.112   4.900  0.0339  0.5481  0.7230
32515SOL    HW1 9270   6.717   0.046   4.959  0.4617  0.0304 -0.0978
32515SOL    HW2 9271   6.613   0.155   4.951 -1.4533 -1.6681  0.6905
32516SOL     OW 9272   0.398   1.982   6.935  0.3060  0.2367  0.2507
32516SOL    HW1 9273   0.451   2.039   6.880  0.4139  0.5101  0.6316
32516SOL    HW2 9274   0.459   1.916   6.968  0.9392  1.8431  2.4895
32517SOL     OW 9275   8.886  12.158  12.273  0.2769 -0.2715 -0.3914
32517SOL    HW1 9276   8.942  12.154  12.351 -0.9559  0.8227  0.5883
32517SOL    HW2 9277   8.803  12.121  12.301  0.0146 -0.4809 -1.3960
32518SOL     OW 9278   5.874   9.995   6.968 -0.0331  0.1671  0.0380
32518SOL    HW1 9279   5.822   9.923   7.004 -1.6325 -0.9759 -3.9880
32518SOL    HW2 9280   5.811  10.049   6.922  1.7967  1.1786 -1.4321
32519SOL     OW 9281   1.946   9.800  11.335  1.1028  0.3418  0.0905
32519SOL    HW1 9282   1.897   9.881  11.339  0.0690 -0.2104 -0.9391
32519SOL    HW2 9283   1.940   9.764  11.424  2.0726  1.6483  0.7122
32520SOL     OW 9284  13.011  10.125   5.814  0.0911  0.3033 -0.6001
32520SOL    HW1 9285  13.010  10.123   5.910 -1.2544 -0.6276 -0.6014
32520SOL    HW2 9286  12.959  10.048   5.788  1.1246  0.0668 -2.0869
32521SOL     OW 9287  11.413   9.557   8.196  0.4865 -0.2159  0.5320
32521SOL    HW1 9288  11.420   9.463   8.211  1.3845 -0.0568  1.2240
32521SOL    HW2 9289  11.457   9.596   8.272  0.4811  0.7499  0.0507
32522SOL     OW 9290  13.046   8.116   7.946  0.4472  0.0002 -0.2517
32522SOL    HW1 9291  13.051   8.150   7.856 -1.5566 -0.4741 -0.5817
32522SOL    HW2 9292  13.122   8.058   7.953  0.3316 -0.4013 -1.8419
32523SOL     OW 9293   2.476   9.987  13.450 -0.0188 -0.0730 -0.6144
32523SOL    HW1 9294   2.499  10.047  13.522  0.9412 -0.7698 -0.3215
32523SOL    HW2 9295   2.523  10.023  13.374  0.5782 -0.4542 -0.4331
32524SOL     OW 9296   2.755   0.451   6.583  0.0246  0.2438 -0.0502
32524SOL    HW1 9297   2.757   0.531   6.635  2.6338  1.5556 -1.8989
32524SOL    HW2 9298   2.845   0.418   6.585  0.0583 -0.1349 -2.8556
32525SOL     OW 9299   4.620   3.328   7.739  0.2855 -0.0274  0.1327
32525SOL    HW1 9300   4.662   3.336   7.825  0.5615 -4.1045  0.5712
32525SOL    HW2 9301   4.528   3.347   7.756  0.7462  2.1275  0.5986
32526SOL     OW 9302   6.573   7.401  12.352 -0.2038 -0.2810  0.3028
32526SOL    HW1 9303   6.543   7.462  12.419  3.2142  0.0599  1.7345
32526SOL    HW2 9304   6.552   7.314  12.387 -0.6045 -0.0588  0.6261
32527SOL     OW 9305  10.824   1.141  10.834  0.6184  0.3147  0.1059
32527SOL    HW1 9306  10.883   1.067  10.819 -1.9464 -1.9107  0.0556
32527SOL    HW2 9307  10.805   1.138  10.927  0.5076  0.9366  0.1076
32528SOL     OW 9308  13.059   4.822   7.140  0.5082 -0.0965  0.0932
32528SOL    HW1 9309  13.140   4.778   7.165  1.3399  1.7314  0.7608
32528SOL    HW2 9310  12.990   4.758   7.161  1.7691 -2.1649 -1.5709
32529SOL     OW 9311   2.843   7.124   9.528  0.4323  0.2245 -0.7611
32529SOL    HW1 9312   2.917   7.071   9.499  0.6046 -0.1209  0.2692
32529SOL    HW2 9313   2.768   7.064   9.522  0.8154 -0.5581  1.5444
32530SOL     OW 9314  12.551   7.286  12.572  0.0788  0.0639 -0.4933
32530SOL    HW1 9315  12.513   7.360  12.618 -2.5921 -0.4376 -1.7290
32530SOL    HW2 9316  12.554   7.312  12.480  0.8612 -0.6932 -0.7048
32531SOL     OW 9317   0.577   7.784   1.497  0.3789 -0.0056 -0.0654
32531SOL    HW1 9318   0.654   7.840   1.489 -0.4282  1.1191 -0.1705
32531SOL    HW2 9319   0.556   7.757   1.408  0.5638 -0.2044 -0.0501
32532SOL     OW 9320   0.894   6.881   9.470  0.5802  0.4421  1.2021
32532SOL    HW1 9321   0.977   6.849   9.506 -0.1823 -0.2629  2.4214
32532SOL    HW2 9322   0.862   6.807   9.418 -0.0407  0.0928  2.0619
32533SOL     OW 9323   2.277   2.895   0.294 -0.8423  0.4976 -0.0563
32533SOL    HW1 9324   2.328   2.965   0.254  0.7433 -1.3154 -1.4226
32533SOL    HW2 9325   2.187   2.927   0.294  0.0625  3.2680  1.1963
32534SOL     OW 9326   3.526   7.680  13.177  0.0543 -0.5084  0.1887
32534SOL    HW1 9327   3.602   7.727  13.143 -0.5166  1.8421  1.9364
32534SOL    HW2 9328   3.466   7.675  13.103  1.4069 -1.4098 -0.9029
32535SOL     OW 9329   5.026   0.074   3.694 -0.1651  0.0148  0.0056
32535SOL    HW1 9330   5.079  -0.006   3.684 -1.1793 -0.5716 -0.8550
32535SOL    HW2 9331   4.976   0.059   3.774  0.2614  0.1573  0.3015
32536SOL     OW 9332   3.558   0.125  12.870  0.0972 -0.3063  0.6580
32536SOL    HW1 9333   3.471   0.163  12.869 -0.6302 -1.7723 -1.7666
32536SOL    HW2 9334   3.605   0.170  12.799  0.6041 -0.9879  0.5483
32537SOL     OW 9335   5.296  11.753   8.262 -0.0288 -0.0167 -0.4105
32537SOL    HW1 9336   5.366  11.730   8.201  1.7188  1.6651  0.8406
32537SOL    HW2 9337   5.302  11.687   8.331 -1.2753 -1.2607 -1.4461
32538SOL     OW 9338   1.477   7.458   0.097  0.0919  0.7095 -0.2013
32538SOL    HW1 9339   1.505   7.467   0.006  1.2356  0.7684  0.1304
32538SOL    HW2 9340   1.555   7.483   0.148 -0.1220 -0.5448  0.7795
32539SOL     OW 9341  12.257   0.736  10.176  0.1388 -0.2754 -0.1421
32539SOL    HW1 9342  12.206   0.812  10.206 -0.3736 -0.6822  0.0402
32539SOL    HW2 9343  12.343   0.747  10.215 -0.3549 -0.5075  1.0317
32540SOL     OW 9344   4.946   8.354  11.417  0.0679 -0.0079 -0.6518
32540SOL    HW1 9345   4.958   8.283  11.480 -0.3108  0.1990 -0.3396
32540SOL    HW2 9346   4.851   8.363  11.409  0.1121  0.0644 -1.1450
32541SOL     OW 9347   9.537  11.080   7.015  0.1151  0.5278  0.3418
32541SOL    HW1 9348   9.445  11.082   7.041  0.3591 -0.2115  1.3022
32541SOL    HW2 9349   9.536  11.052   6.923 -0.5834  0.0768  0.4848
32542SOL     OW 9350   0.040   6.308  12.734  0.2702 -0.5547 -0.2177
32542SOL    HW1 9351   0.104   6.312  12.805 -1.3478  0.5419  1.2894
32542SOL    HW2 9352  -0.030   6.253  12.769 -0.3697 -0.3557 -1.1539
32543SOL     OW 9353  12.991   0.431   9.940 -0.5635 -0.5268  0.1216
32543SOL    HW1 9354  12.959   0.484  10.013 -1.6084  0.4181 -0.9685
32543SOL    HW2 9355  12.958   0.343   9.959 -0.3162 -0.4265  1.0757
32544SOL     OW 9356   7.940   0.114   1.561  0.0665  0.3716 -0.3193
32544SOL    HW1 9357   7.861   0.143   1.606 -0.8836 -3.3436  0.7358
32544SOL    HW2 9358   7.991   0.069   1.628 -0.3022 -3.3389 -2.2925
32545SOL     OW 9359   0.160   9.525   8.040 -0.3982  0.0973  0.0009
32545SOL    HW1 9360   0.136   9.573   8.119  0.7856  0.9928 -0.1453
32545SOL    HW2 9361   0.085   9.468   8.022 -0.7023 -0.1041  1.7378
32546SOL     OW 9362  11.371  10.486   5.279  0.1428  0.8029  0.1021
32546SOL    HW1 9363  11.400  10.414   5.224  0.7549  0.7391  0.5026
32546SOL    HW2 9364  11.278  10.496   5.257 -0.1246 -0.5340  0.5128
32547SOL     OW 9365   0.593   3.170   3.796  0.0277  0.0566  0.2172
32547SOL    HW1 9366   0.661   3.151   3.731 -0.6165  0.9986 -0.7741
32547SOL    HW2 9367   0.609   3.108   3.867  1.8186  0.1583 -0.0637
32548SOL     OW 9368  11.087   1.873  10.482  0.9371 -0.2696  0.4248
32548SOL    HW1 9369  11.012   1.919  10.520  1.0809  0.4961 -0.1948
32548SOL    HW2 9370  11.082   1.893  10.389  1.2087 -1.2350  0.1926
32549SOL     OW 9371   8.217   8.787  13.329 -0.0045  0.8845 -0.3578
32549SOL    HW1 9372   8.247   8.701  13.358 -1.7164  1.1225  2.5181
32549SOL    HW2 9373   8.277   8.849  13.370  1.2907  1.1539 -2.5096
32550SOL     OW 9374  13.719   5.113   0.036  0.5647 -0.5488 -0.0392
32550SOL    HW1 9375  13.742   5.190  -0.015 -2.0539  0.1373 -0.2899
32550SOL    HW2 9376  13.647   5.072  -0.011  1.0208 -2.4506  0.7867
32551SOL     OW 9377   5.807   3.490   6.305 -0.4413  0.4594 -0.2910
32551SOL    HW1 9378   5.769   3.573   6.334 -0.0059  0.1686  1.1959
32551SOL    HW2 9379   5.866   3.464   6.376 -1.7478 -1.9219  0.0363
32552SOL     OW 9380   2.183   5.360   6.343  0.8999  0.1620 -0.4074
32552SOL    HW1 9381   2.110   5.364   6.280 -0.1665 -0.6495  0.7261
32552SOL    HW2 9382   2.257   5.326   6.293 -0.3792 -2.1293 -0.8693
32553SOL     OW 9383   5.454   2.708  11.040  0.3177  0.5264  0.4060
32553SOL    HW1 9384   5.532   2.762  11.026 -0.3132  1.3760  0.0325
32553SOL    HW2 9385   5.471   2.661  11.121  2.1290 -0.9699 -0.7719
32554SOL     OW 9386   3.213  10.757   3.203  0.2990 -0.0680 -0.5273
32554SOL    HW1 9387   3.288  10.807   3.172  0.8374 -0.5626 -0.0317
32554SOL    HW2 9388   3.232  10.739   3.295 -0.7028  0.3104 -0.2285
32555SOL     OW 9389   4.011  12.875  12.687 -0.5791  0.4821 -0.1006
32555SOL    HW1 9390   3.936  12.858  12.745 -0.6727 -0.6634 -0.5379
32555SOL    HW2 9391   3.988  12.831  12.605  1.2556 -1.2607  0.2535
32556SOL     OW 9392   4.602   4.856  10.280 -0.2853 -0.1169  0.0316
32556SOL    HW1 9393   4.694   4.856  10.306 -0.7995 -1.2824  2.0526
32556SOL    HW2 9394   4.603   4.821  10.191  1.0262 -4.2537  1.4180
32557SOL     OW 9395   9.131   3.291   6.830 -0.1927  0.2357  0.4200
32557SOL    HW1 9396   9.067   3.356   6.859 -1.1282 -0.1610 -0.6594
32557SOL    HW2 9397   9.095   3.207   6.861 -0.3626 -0.0174 -0.4406
32558SOL     OW 9398   1.873  13.698   0.541  0.8911 -0.1394 -0.1036
32558SOL    HW1 9399   1.931  13.686   0.466  1.3682  1.0989  0.0409
32558SOL    HW2 9400   1.882  13.617   0.591  2.3682 -0.0569 -0.1885
32559SOL     OW 9401   9.060   2.795  13.087 -0.2871  0.4074 -0.5255
32559SOL    HW1 9402   9.083   2.703  13.078 -2.4773 -0.0227 -3.0700
32559SOL    HW2 9403   9.054   2.810  13.181  0.8559 -1.8114 -0.0406
32560SOL     OW 9404   9.885  11.915  10.417  0.4920  0.3956  0.3080
32560SOL    HW1 9405   9.952  11.848  10.429  0.5783  0.5280  0.5837
32560SOL    HW2 9406   9.925  11.995  10.451 -0.3886  0.1539  2.0471
32561SOL     OW 9407  10.672   7.485   4.164 -0.2604 -0.2896  0.0872
32561SOL    HW1 9408  10.697   7.393   4.172 -0.2257 -0.4088 -1.1079
32561SOL    HW2 9409  10.750   7.534   4.189  0.0780 -0.6091 -0.3266
32562SOL     OW 9410   6.799   8.458   3.017  0.0536 -0.1803 -0.3103
32562SOL    HW1 9411   6.743   8.516   2.965  0.3611  0.7224  0.3432
32562SOL    HW2 9412   6.882   8.505   3.024 -0.0806 -0.1362  1.2577
32563SOL     OW 9413   5.104  13.465   7.550 -0.5467 -0.3490  0.3123
32563SOL    HW1 9414   5.102  13.559   7.531  0.9772 -0.4008 -0.2610
32563SOL    HW2 9415   5.047  13.455   7.627 -3.4714  0.4813 -1.6000
32564SOL     OW 9416  10.744   4.965   5.222 -0.2605  0.4709 -0.3334
32564SOL    HW1 9417  10.666   4.991   5.270 -0.8433 -2.9547  0.8896
32564SOL    HW2 9418  10.806   4.938   5.290  0.7536  0.1064 -1.3705
32565SOL     OW 9419  13.273   7.443  13.171 -0.3895 -0.1158 -0.2595
32565SOL    HW1 9420  13.343   7.502  13.142 -0.4695  0.3296  0.4099
32565SOL    HW2 9421  13.302   7.413  13.257 -1.3177  0.6116  0.3307
32566SOL     OW 9422   2.940  13.718  13.694  0.1800  0.0756  0.1519
32566SOL    HW1 9423   2.858  13.767  13.683 -0.1249 -0.7816 -1.8087
32566SOL    HW2 9424   3.001  13.759  13.632  0.7026 -0.3899  0.3493
32567SOL     OW 9425   8.754  12.162   3.507 -0.2511 -0.1039 -0.1440
32567SOL    HW1 9426   8.779  12.219   3.580 -0.8151  0.1681 -0.1599
32567SOL    HW2 9427   8.836  12.148   3.459 -0.0852  0.6180 -0.0912
32568SOL     OW 9428   2.197   4.906   8.074 -0.5062 -0.8761  0.5879
32568SOL    HW1 9429   2.191   4.987   8.125 -2.6583 -0.2755 -0.4843
32568SOL    HW2 9430   2.108   4.894   8.039  0.3140 -2.5148 -1.0699
32569SOL     OW 9431   3.014   2.491   0.832  0.3060  0.5226  0.1263
32569SOL    HW1 9432   2.935   2.536   0.862 -0.8920 -1.7789  0.6897
32569SOL    HW2 9433   3.059   2.466   0.912  0.9756  0.7833 -0.1673
32570SOL     OW 9434   5.423  10.989  11.309  0.0253 -0.2637  0.3230
32570SOL    HW1 9435   5.494  10.989  11.246  0.8649  2.0670  1.1675
32570SOL    HW2 9436   5.346  11.016  11.259  0.5470  0.9324  0.1423
32571SOL     OW 9437   9.503   0.104   6.259  0.3065 -0.2685 -0.3730
32571SOL    HW1 9438   9.599   0.101   6.258  0.3624  0.9604 -0.7064
32571SOL    HW2 9439   9.480   0.162   6.187 -0.4855  2.3929  1.8103
32572SOL     OW 9440   9.330  11.140  12.410  0.2027 -0.2355 -0.2260
32572SOL    HW1 9441   9.283  11.078  12.465 -0.4894 -0.3433 -0.9192
32572SOL    HW2 9442   9.278  11.145  12.329  0.5994  0.7448 -0.4383
32573SOL     OW 9443  10.586   6.433   2.697  0.4845 -0.1207  0.1646
32573SOL    HW1 9444  10.630   6.486   2.763  0.9911 -0.5899  0.2118
32573SOL    HW2 9445  10.493   6.452   2.708  0.4979 -0.7938  1.5317
32574SOL     OW 9446   8.136   1.428  12.453  1.0180 -0.3747 -0.6888
32574SOL    HW1 9447   8.201   1.492  12.481  0.8519 -1.3452  2.2638
32574SOL    HW2 9448   8.159   1.348  12.500  0.4062 -2.1415 -3.1943
32575SOL     OW 9449   0.102   3.847  11.650 -0.3267 -0.4235  0.3555
32575SOL    HW1 9450   0.196   3.865  11.653 -0.3375 -0.2380 -0.2738
32575SOL    HW2 9451   0.062   3.922  11.694 -0.1591 -0.7060  0.9962
32576SOL     OW 9452   8.656  13.088  10.475 -0.0332 -0.5382  0.2715
32576SOL    HW1 9453   8.682  13.094  10.383 -0.9567 -1.8950 -0.1096
32576SOL    HW2 9454   8.694  13.005  10.505  0.4828  0.0215  1.1947
32577SOL     OW 9455   9.068  11.696   8.213  0.3028 -0.8251  0.0361
32577SOL    HW1 9456   8.986  11.697   8.165  0.0838 -0.8341  0.4024
32577SOL    HW2 9457   9.085  11.604   8.230 -1.2980 -0.7222  2.7642
32578SOL     OW 9458   1.141   5.948   3.687 -0.5651  0.0430  0.0573
32578SOL    HW1 9459   1.048   5.951   3.665 -0.5394 -2.9875 -0.9785
32578SOL    HW2 9460   1.175   5.873   3.637  2.0602  0.0103  1.6935
32579SOL     OW 9461  11.085   5.389  13.366 -0.3916  0.2077 -0.2407
32579SOL    HW1 9462  11.069   5.483  13.366 -0.6385  0.1677  0.0439
32579SOL    HW2 9463  11.055   5.360  13.280 -1.9082  0.1367  0.2671
32580SOL     OW 9464   1.284   9.932   9.280 -0.3118  0.1215 -0.0737
32580SOL    HW1 9465   1.196   9.961   9.306 -0.3744 -0.5015  0.4378
32580SOL    HW2 9466   1.306   9.863   9.343 -0.2905 -1.1489 -1.4132
32581SOL     OW 9467   5.552   7.213  10.769  0.6120  0.3201  0.1485
32581SOL    HW1 9468   5.493   7.289  10.759  0.2077 -0.0395 -0.2824
32581SOL    HW2 9469   5.628   7.248  10.815  1.4365  1.5269 -1.9637
32582SOL     OW 9470   2.278   0.312   7.945 -0.5999  0.1518 -0.1229
32582SOL    HW1 9471   2.204   0.351   7.991 -1.6638 -0.6806 -1.0747
32582SOL    HW2 9472   2.300   0.235   7.998 -0.7894  0.0864 -0.1364
32583SOL     OW 9473   0.231   0.168   9.990  0.3757  0.4736 -0.2167
32583SOL    HW1 9474   0.150   0.213  10.012  0.5421  0.9772 -0.6173
32583SOL    HW2 9475   0.235   0.094  10.050 -1.5252 -0.8937 -1.6448
32584SOL     OW 9476   2.761   8.939   2.133  0.2657 -0.3046 -0.0861
32584SOL    HW1 9477   2.847   8.972   2.105 -0.5171  0.2755 -1.9731
32584SOL    HW2 9478   2.780   8.857   2.179  1.7146 -1.1909 -2.1230
32585SOL     OW 9479   4.204  10.300  10.866  0.3246 -0.0417 -0.4051
32585SOL    HW1 9480   4.122  10.250  10.858  0.8195 -0.9482 -0.0082
32585SOL    HW2 9481   4.205  10.357  10.789  0.1800 -1.3438 -1.4191
32586SOL     OW 9482   6.670   3.423  13.578  0.1914 -0.1676  0.2000
32586SOL    HW1 9483   6.658   3.393  13.668  0.9567  0.7857  0.6331
32586SOL    HW2 9484   6.656   3.518  13.582 -1.5015 -0.3034 -1.0131
32587SOL     OW 9485  10.919   2.842   9.121 -0.1339  0.0132  0.1760
32587SOL    HW1 9486  10.944   2.760   9.079 -0.2966 -0.0499  0.2022
32587SOL    HW2 9487  10.839   2.821   9.170 -0.0202  0.1179  0.4093
32588SOL     OW 9488   4.125  13.551   2.725  0.0540 -0.4622  0.1422
32588SOL    HW1 9489   4.129  13.489   2.798 -1.2441 -0.1120  0.5418
32588SOL    HW2 9490   4.041  13.534   2.683  0.2689  0.1383 -0.5603
32589SOL     OW 9491   0.602   6.324   9.746  0.1938  0.1229 -0.4817
32589SOL    HW1 9492   0.618   6.354   9.657  2.0064 -1.8199 -0.8951
32589SOL    HW2 9493   0.625   6.398   9.802  1.0091  0.6867 -1.5508
32590SOL     OW 9494   0.893   6.167   1.803  0.2147  0.2429  0.3542
32590SOL    HW1 9495   0.906   6.097   1.867  0.0371  0.8256  1.0493
32590SOL    HW2 9496   0.859   6.123   1.725  0.2899 -0.4653  0.7129
32591SOL     OW 9497   1.175   5.888  13.041 -0.1642 -0.2468 -0.7026
32591SOL    HW1 9498   1.190   5.942  13.118  2.6252  0.1092 -1.4199
32591SOL    HW2 9499   1.081   5.896  13.024 -0.5172  1.0951  1.5637
32592SOL     OW 9500   9.665   5.775   8.546  0.3163  0.1219 -0.4628
32592SOL    HW1 9501   9.718   5.814   8.615 -0.5415 -1.1052  0.9740
32592SOL    HW2 9502   9.724   5.713   8.502 -0.1135 -2.1909  1.9487
32593SOL     OW 9503   5.552   2.272   8.612 -0.0387 -0.5255  0.7071
32593SOL    HW1 9504   5.564   2.348   8.669  0.4264  0.2984 -0.4348
32593SOL    HW2 9505   5.524   2.310   8.528 -1.0084 -1.7175  0.4719
32594SOL     OW 9506   9.402  13.627   4.324 -0.4740 -0.4364 -0.3081
32594SOL    HW1 9507   9.420  13.625   4.418  0.4472 -0.5841 -0.4825
32594SOL    HW2 9508   9.488  13.634   4.283 -0.8454 -0.7644 -1.1594
32595SOL     OW 9509   8.760   2.639   2.001  0.0187  0.1682 -0.0650
32595SOL    HW1 9510   8.747   2.606   2.090 -1.4157  0.2254 -0.2289
32595SOL    HW2 9511   8.851   2.618   1.980  0.6058  0.8047  1.6828
32596SOL     OW 9512   2.861   6.856   4.362  0.8629  0.0876 -0.3165
32596SOL    HW1 9513   2.777   6.814   4.342  0.7613 -0.5566  1.2696
32596SOL    HW2 9514   2.837   6.945   4.385  0.2442 -0.6766  2.3753
32597SOL     OW 9515   8.048   2.116   2.559  0.0623  0.2649 -0.3118
32597SOL    HW1 9516   8.027   2.174   2.487 -1.2590  1.2690  0.8325
32597SOL    HW2 9517   7.963   2.090   2.594  0.6758  0.3197  1.2813
32598SOL     OW 9518   1.398  10.807   5.590 -0.5734 -0.0061 -0.4036
32598SOL    HW1 9519   1.393  10.893   5.548 -1.3347 -1.2478 -3.0906
32598SOL    HW2 9520   1.309  10.790   5.622  0.1081  1.1475  2.4131
32599SOL     OW 9521   3.463   5.907  10.638 -0.2067  0.3969  0.0558
32599SOL    HW1 9522   3.492   5.998  10.640  1.4449 -0.0122 -1.8297
32599SOL    HW2 9523   3.443   5.891  10.546  0.1545 -1.3280  0.2516
32600SOL     OW 9524  12.843   8.182   7.583 -0.1513  0.4402 -0.1254
32600SOL    HW1 9525  12.921   8.156   7.534 -1.0857  2.6680 -3.1499
32600SOL    HW2 9526  12.874   8.243   7.648  0.7379  0.6880 -0.7662
32601SOL     OW 9527  11.581   7.172  13.688  0.2885  0.0075 -0.2295
32601SOL    HW1 9528  11.524   7.104  13.654  0.3679 -0.9228  1.4087
32601SOL    HW2 9529  11.670   7.143  13.667  0.4688 -1.5206  2.1978
32602SOL     OW 9530  12.242   2.940   4.291  0.3372 -0.2094  0.2588
32602SOL    HW1 9531  12.205   2.900   4.212 -0.6882 -0.0100  0.6243
32602SOL    HW2 9532  12.183   3.013   4.311  1.1246  0.3262  0.6744
32603SOL     OW 9533   5.823   9.014   7.797 -0.2930 -0.8932  0.1331
32603SOL    HW1 9534   5.876   8.964   7.859  0.0162  0.5167  1.0594
32603SOL    HW2 9535   5.818   9.102   7.835  1.7616  0.6913 -2.8731
32604SOL     OW 9536  11.812   6.721   4.276  0.1125  0.2608  0.5940
32604SOL    HW1 9537  11.825   6.630   4.303 -0.7523 -0.6059 -1.7057
32604SOL    HW2 9538  11.892   6.765   4.304  0.9866 -1.4123  0.9002
32605SOL     OW 9539   0.056   4.174   8.908 -0.2905  0.3353 -0.2779
32605SOL    HW1 9540   0.107   4.121   8.969  2.0197  0.3067 -2.0670
32605SOL    HW2 9541  -0.014   4.115   8.878  0.1544 -0.5391  0.3397
32606SOL     OW 9542   7.026  12.139  12.350  0.2017  0.5681 -0.4656
32606SOL    HW1 9543   6.948  12.177  12.391 -1.0690 -1.4417 -0.8929
32606SOL    HW2 9544   7.022  12.169  12.259  0.0378  0.6542 -0.4307
32607SOL     OW 9545  10.057   5.844  11.374  0.4828  0.3977  0.0021
32607SOL    HW1 9546  10.136   5.791  11.385  0.7610  0.8310  0.1231
32607SOL    HW2 9547  10.063   5.911  11.442  0.3120  0.8002 -0.3743
32608SOL     OW 9548   5.013   0.520   8.293  0.6500 -0.5628  0.5023
32608SOL    HW1 9549   5.052   0.449   8.344  3.7044  1.5594  1.4223
32608SOL    HW2 9550   5.086   0.555   8.242 -1.1853  0.6972 -1.4276
32609SOL     OW 9551  10.324   8.310  10.643  0.0912 -0.2479 -0.2738
32609SOL    HW1 9552  10.397   8.252  10.620  0.8980  0.9314 -0.7615
32609SOL    HW2 9553  10.315   8.301  10.738 -0.6023 -2.0618 -0.4541
32610SOL     OW 9554   8.777   4.166   2.860 -0.1896 -0.0705 -0.1981
32610SOL    HW1 9555   8.781   4.184   2.767 -1.7035  1.1297 -0.0578
32610SOL    HW2 9556   8.868   4.169   2.889  0.1468  1.4548 -1.3052
32611SOL     OW 9557   4.919  13.356   1.505  0.0336 -0.4309  0.1576
32611SOL    HW1 9558   4.852  13.305   1.460  1.4579 -0.8583 -1.6259
32611SOL    HW2 9559   4.984  13.292   1.534  0.7625  0.1364 -0.1596
32612SOL     OW 9560   8.382  11.663  11.579  0.4386 -0.0401 -0.0816
32612SOL    HW1 9561   8.351  11.605  11.648  0.1188 -1.0965 -1.0878
32612SOL    HW2 9562   8.402  11.605  11.506  0.3522  1.0921 -1.0293
32613SOL     OW 9563   0.006   8.698   3.650  0.1574  0.0493  0.7456
32613SOL    HW1 9564   0.080   8.661   3.697  0.4985  0.0736  0.2347
32613SOL    HW2 9565   0.028   8.791   3.638  0.7790 -0.2520 -0.7567
32614SOL     OW 9566   7.422  11.331   9.501 -0.4559  0.0110 -0.1021
32614SOL    HW1 9567   7.447  11.387   9.575  0.1714 -1.3070  0.7249
32614SOL    HW2 9568   7.347  11.281   9.534 -1.1940  0.5396 -0.9314
32615SOL     OW 9569  12.769   1.299   8.928  0.4405  0.1055 -0.5331
32615SOL    HW1 9570  12.769   1.238   8.854 -0.6589 -0.3216 -0.1986
32615SOL    HW2 9571  12.730   1.379   8.893 -0.9640 -0.4043 -0.1992
32616SOL     OW 9572   2.640   3.009  10.893  0.2255  0.2002 -0.1934
32616SOL    HW1 9573   2.551   3.028  10.924  0.5567 -1.2342  1.8584
32616SOL    HW2 9574   2.648   3.058  10.812 -2.2291  0.8585 -0.1232
32617SOL     OW 9575  13.013   1.019   1.378  0.1822 -0.0501 -0.0823
32617SOL    HW1 9576  13.005   0.983   1.289 -0.5980  1.0741 -0.4880
32617SOL    HW2 9577  12.988   0.947   1.435  0.8882 -0.8593 -0.7506
32618SOL     OW 9578   8.903  13.443   2.844  0.5410 -0.0215  0.0277
32618SOL    HW1 9579   8.982  13.393   2.824  0.8703  0.8962 -1.0431
32618SOL    HW2 9580   8.927  13.498   2.918  0.4231 -0.8211  0.6824
32619SOL     OW 9581  12.082   7.354   3.773 -0.6225 -0.2643  0.1028
32619SOL    HW1 9582  12.056   7.320   3.859 -0.2203  1.6000  1.0079
32619SOL    HW2 9583  12.149   7.419   3.793 -0.6086  0.2937 -1.6331
32620SOL     OW 9584  13.497   4.046   6.491  0.8527 -0.1663 -0.4738
32620SOL    HW1 9585  13.416   4.036   6.442 -0.5893  2.5910  1.1216
32620SOL    HW2 9586  13.471   4.041   6.582  1.9298  3.2767  0.1659
32621SOL     OW 9587  13.617  13.124   0.141 -0.4271  0.2449  0.1040
32621SOL    HW1 9588  13.651  13.046   0.183  0.3345  1.4637  1.8980
32621SOL    HW2 9589  13.531  13.098   0.109 -0.2104 -1.3121  0.6886
32622SOL     OW 9590  13.519   4.507  12.553 -0.8724 -0.4302  0.2059
32622SOL    HW1 9591  13.499   4.580  12.495 -1.8838  1.2169  2.4703
32622SOL    HW2 9592  13.460   4.437  12.525  0.8510 -0.8782 -2.6967
32623SOL     OW 9593   0.432   9.758   9.564 -0.5677  0.4101  0.6711
32623SOL    HW1 9594   0.516   9.802   9.547  0.2242 -1.6153 -0.9963
32623SOL    HW2 9595   0.366   9.827   9.552  0.7666  1.8006  1.0247
32624SOL     OW 9596   5.199   4.227  11.550 -0.1741  0.4268 -0.0693
32624SOL    HW1 9597   5.207   4.185  11.635 -1.0620  1.2214  0.4318
32624SOL    HW2 9598   5.133   4.295  11.563  0.4470  1.2750 -1.1142
32625SOL     OW 9599   9.402   1.840  12.261 -0.5449 -0.0652  0.0064
32625SOL    HW1 9600   9.488   1.879  12.240 -0.3540 -0.5643 -0.1449
32625SOL    HW2 9601   9.418   1.787  12.339 -0.2814 -1.6395 -1.0674
32626SOL     OW 9602   4.775   0.259   8.392 -0.1548 -0.6591  0.0388
32626SOL    HW1 9603   4.712   0.325   8.420 -0.1982 -0.7641  0.1892
32626SOL    HW2 9604   4.798   0.212   8.472 -0.3337 -1.0088 -0.1115
32627SOL     OW 9605   6.376  11.241   6.677  0.2876 -0.1599  0.8371
32627SOL    HW1 9606   6.427  11.310   6.634  0.0237 -0.4093  0.1024
32627SOL    HW2 9607   6.289  11.279   6.690  0.5456  0.1411  1.7631
32628SOL     OW 9608   9.511   7.800   0.441 -0.6415 -0.0818 -0.7626
32628SOL    HW1 9609   9.468   7.883   0.419 -0.7309 -0.6629 -3.0088
32628SOL    HW2 9610   9.529   7.807   0.535 -0.4958  2.5474 -0.8955
32629SOL     OW 9611  12.725   1.862   2.437 -0.1067 -0.4304 -0.2846
32629SOL    HW1 9612  12.799   1.910   2.474  2.6308 -0.8640 -4.4838
32629SOL    HW2 9613  12.730   1.776   2.476  0.4029  0.1109  0.8875
32630SOL     OW 9614   7.732   1.383   7.239  0.1139  0.1732  0.1613
32630SOL    HW1 9615   7.643   1.419   7.239  0.4620  1.3713 -2.7166
32630SOL    HW2 9616   7.780   1.436   7.302 -0.8775  0.5431  0.6245
32631SOL     OW 9617  10.147   9.530   7.958  0.3795 -0.4749 -0.3514
32631SOL    HW1 9618  10.150   9.624   7.939  1.4332 -0.4506 -0.1314
32631SOL    HW2 9619  10.117   9.490   7.877  4.5507 -0.3616 -2.1749
32632SOL     OW 9620   1.024   6.032   4.200  0.2354 -0.7441 -0.2116
32632SOL    HW1 9621   1.060   6.118   4.178  0.6060 -1.0138 -0.6722
32632SOL    HW2 9622   1.095   5.986   4.243 -0.6369 -0.0378  2.1112
32633SOL     OW 9623   2.077   2.835  13.419  0.1507  0.2061 -0.9908
32633SOL    HW1 9624   2.076   2.766  13.485 -0.1902  0.7615 -0.3997
32633SOL    HW2 9625   2.075   2.916  13.470 -2.7387  0.6756 -1.6595
32634SOL     OW 9626   9.160   5.824   1.279  0.2156  0.0569  0.2535
32634SOL    HW1 9627   9.173   5.906   1.231  0.5441 -0.2798 -0.2424
32634SOL    HW2 9628   9.244   5.779   1.271 -0.7087 -1.4401 -1.6153
32635SOL     OW 9629  12.716  11.747  12.248 -0.4010  0.2265 -0.5676
32635SOL    HW1 9630  12.696  11.778  12.337  1.1827 -1.2570  0.3699
32635SOL    HW2 9631  12.759  11.821  12.206  2.6845 -0.2798  1.3895
32636SOL     OW 9632   9.427   2.843   7.396 -0.5238 -0.1043 -0.0623
32636SOL    HW1 9633   9.347   2.855   7.445 -0.1706 -0.0266  0.5021
32636SOL    HW2 9634   9.497   2.872   7.455  0.0784 -1.7721  0.1001
32637SOL     OW 9635   7.647  12.904   3.814 -0.1442  0.0305 -0.4716
32637SOL    HW1 9636   7.668  12.963   3.742 -0.5034  1.2116  0.3552
32637SOL    HW2 9637   7.570  12.943   3.855  1.0995  0.4118  1.6374
32638SOL     OW 9638  10.633  10.069   9.865  0.6501  0.0331 -0.5880
32638SOL    HW1 9639  10.630   9.983   9.822 -1.2171  1.0699 -2.7374
32638SOL    HW2 9640  10.568  10.063   9.935  0.4902 -0.2694 -0.7596
32639SOL     OW 9641  10.911  12.892  13.217 -0.1515 -0.1046  0.0157
32639SOL    HW1 9642  10.908  12.985  13.242  0.6235  0.5746 -2.1524
32639SOL    HW2 9643  11.003  12.876  13.196 -0.8074 -0.1589 -3.4687
32640SOL     OW 9644  11.632   1.809  11.950 -0.0279  0.1114 -0.2764
32640SOL    HW1 9645  11.709   1.862  11.969  0.7320 -0.9549 -0.3035
32640SOL    HW2 9646  11.658   1.754  11.876 -0.3360 -1.2039  0.5470
32641SOL     OW 9647   7.758   7.112   6.721 -0.1579 -0.0461 -0.3210
32641SOL    HW1 9648   7.784   7.036   6.668  0.1191  0.4201 -0.8675
32641SOL    HW2 9649   7.815   7.108   6.798  0.1243 -0.1800 -0.5345
32642SOL     OW 9650  12.183   0.753   4.153  0.1805  0.0455  0.0180
32642SOL    HW1 9651  12.220   0.807   4.083 -0.6421  1.1808  0.4298
32642SOL    HW2 9652  12.172   0.813   4.227  1.4877 -1.2346  1.3106
32643SOL     OW 9653   5.859  11.474   6.488 -0.1176 -0.1796  0.1746
32643SOL    HW1 9654   5.884  11.536   6.557 -0.5306  1.5614 -1.1805
32643SOL    HW2 9655   5.767  11.456   6.503  0.4029 -1.9496  1.6326
32644SOL     OW 9656   4.848   7.883   7.905  0.2034  0.3730  0.6230
32644SOL    HW1 9657   4.938   7.896   7.877  0.0780  0.8164  0.4148
32644SOL    HW2 9658   4.798   7.881   7.823 -0.2113  2.0242  0.7965
32645SOL     OW 9659   9.525   9.299   8.753 -0.0696 -0.3079 -0.4252
32645SOL    HW1 9660   9.554   9.329   8.839  0.6926  0.3159 -0.8933
32645SOL    HW2 9661   9.460   9.232   8.773  1.5325 -1.6184  0.6600
32646SOL     OW 9662   3.244   2.929   0.702  0.6190 -0.3049  0.1933
32646SOL    HW1 9663   3.207   2.848   0.737  1.2953  0.2440  2.3523
32646SOL    HW2 9664   3.325   2.902   0.660 -0.2096 -0.9922 -1.0192
32647SOL     OW 9665   1.487  13.678  12.436  0.1358  0.4750  0.9876
32647SOL    HW1 9666   1.405  13.707  12.397  0.7002  1.1230  0.2375
32647SOL    HW2 9667   1.461  13.622  12.508 -0.9603  0.0754  0.3097
32648SOL     OW 9668   2.917   4.643  10.349  0.0905 -0.4201  0.2691
32648SOL    HW1 9669   2.869   4.586  10.288 -0.7966  1.1813 -0.6013
32648SOL    HW2 9670   2.894   4.732  10.321  0.5645  0.3723  2.2674
32649SOL     OW 9671   5.549   0.418  13.734  0.0616  0.7952 -0.0806
32649SOL    HW1 9672   5.521   0.364  13.807 -1.0980  0.6486 -0.6166
32649SOL    HW2 9673   5.498   0.387  13.660  0.8308  1.2999 -0.8355
32650SOL     OW 9674   9.860   8.265   3.002  0.1810 -0.7023 -0.1958
32650SOL    HW1 9675   9.908   8.293   3.080 -1.0870  0.7065  0.1169
32650SOL    HW2 9676   9.928   8.234   2.943  1.2840 -0.6540  0.9929
32651SOL     OW 9677   8.372   2.017  10.728  0.0760  0.1395 -0.1938
32651SOL    HW1 9678   8.440   2.008  10.794 -1.7797 -0.5106  1.7204
32651SOL    HW2 9679   8.373   1.934  10.680 -1.5604 -1.3319  2.1090
32652SOL     OW 9680   3.967   2.171  13.566 -0.2001  0.1255 -0.4222
32652SOL    HW1 9681   4.007   2.111  13.502 -1.6938 -0.7900 -0.5537
32652SOL    HW2 9682   3.886   2.200  13.524  0.2738  1.9323 -0.1640
32653SOL     OW 9683   1.881   6.706   4.885 -0.9401  0.0309  0.0784
32653SOL    HW1 9684   1.794   6.665   4.885 -0.3392 -1.3709 -1.7848
32653SOL    HW2 9685   1.877   6.770   4.814 -0.5015  0.0868  0.1031
32654SOL     OW 9686   7.369   3.596   7.642  0.7598  0.2824 -0.0733
32654SOL    HW1 9687   7.427   3.667   7.613  1.1813 -0.4950 -1.1876
32654SOL    HW2 9688   7.344   3.551   7.561 -0.7542  0.0940  0.4659
32655SOL     OW 9689   5.775   4.817   7.114  0.6708 -0.5235  0.6248
32655SOL    HW1 9690   5.814   4.870   7.045  1.5199 -1.7927  0.1069
32655SOL    HW2 9691   5.814   4.850   7.195  1.4401 -0.5730  0.2795
32656SOL     OW 9692  11.924   9.376  11.583 -0.1476 -0.3477 -0.2852
32656SOL    HW1 9693  11.984   9.447  11.559  1.3280 -2.1098 -2.0898
32656SOL    HW2 9694  11.889   9.403  11.668  3.2263  0.7836  0.9094
32657SOL     OW 9695   4.350   0.678   2.534  0.7718 -0.4236 -0.3650
32657SOL    HW1 9696   4.276   0.716   2.581  0.1029  0.8210 -2.2799
32657SOL    HW2 9697   4.419   0.744   2.540  0.8043 -0.4133 -0.7855
32658SOL     OW 9698   8.176  12.818  10.808 -0.3034 -0.3855  0.3914
32658SOL    HW1 9699   8.199  12.742  10.861 -1.4148 -0.2691  1.0720
32658SOL    HW2 9700   8.179  12.787  10.717 -2.0650 -1.6316  0.7150
32659SOL     OW 9701   0.234   0.881   0.428 -0.0127 -0.0370 -0.1208
32659SOL    HW1 9702   0.191   0.965   0.439  0.8330  0.2609  1.1485
32659SOL    HW2 9703   0.308   0.899   0.370  0.3966  0.1864  0.4644
32660SOL     OW 9704   6.341   6.147   7.418 -0.0209 -0.2965 -0.0947
32660SOL    HW1 9705   6.299   6.166   7.502  1.2076  0.4339  0.3839
32660SOL    HW2 9706   6.289   6.195   7.354 -0.7374 -0.5398  0.2875
32661SOL     OW 9707   1.859   0.562   9.256 -0.1768 -0.0658  0.2998
32661SOL    HW1 9708   1.850   0.593   9.166 -1.0373  0.3861  0.5321
32661SOL    HW2 9709   1.884   0.639   9.306 -0.5054 -0.1402  0.5816
32662SOL     OW 9710  10.259   3.079  13.148 -0.2300  0.1296  0.6780
32662SOL    HW1 9711  10.187   3.083  13.085 -0.2181 -1.3078  0.5581
32662SOL    HW2 9712  10.295   2.991  13.139  0.8559  0.4617  1.5108
32663SOL     OW 9713   5.851   1.312   2.506  0.7171 -0.5103  0.2540
32663SOL    HW1 9714   5.774   1.269   2.470  0.3672 -0.2900  0.7285
32663SOL    HW2 9715   5.829   1.329   2.598  0.8186  0.7149  0.0715
32664SOL     OW 9716   4.237   9.946   9.129  0.4145 -0.2939 -0.3381
32664SOL    HW1 9717   4.257   9.853   9.138  3.8309  0.2188 -1.2231
32664SOL    HW2 9718   4.249   9.964   9.036 -1.9449  0.7591 -0.5047
32665SOL     OW 9719   8.682   1.741   2.173  0.1670  0.1464  0.0987
32665SOL    HW1 9720   8.694   1.646   2.166  1.2542  0.3096 -0.4685
32665SOL    HW2 9721   8.681   1.758   2.267 -0.9167 -0.5169  0.2286
32666SOL     OW 9722   6.253   8.173   9.420 -0.4581  0.0201 -0.1982
32666SOL    HW1 9723   6.195   8.149   9.348 -0.2550  1.9830 -1.0809
32666SOL    HW2 9724   6.341   8.155   9.386 -0.4102 -0.0484 -0.0367
32667SOL     OW 9725   4.851   2.227  12.055 -0.2283  0.0104  0.2054
32667SOL    HW1 9726   4.858   2.314  12.017  0.5080  0.5042  1.4401
32667SOL    HW2 9727   4.898   2.170  11.993  1.6212  0.9179  0.7100
32668SOL     OW 9728  10.110   4.505  11.906  0.4661 -0.5253 -0.0708
32668SOL    HW1 9729  10.166   4.429  11.890  0.1125 -0.5190 -1.4306
32668SOL    HW2 9730  10.024   4.468  11.926  0.9953 -0.5546  2.5350
32669SOL     OW 9731   3.050   6.729   1.013 -0.2918 -0.4943 -0.1179
32669SOL    HW1 9732   3.134   6.704   0.973 -0.6587  0.4943 -1.5655
32669SOL    HW2 9733   3.047   6.824   1.005 -1.0839 -0.4125  0.9180
32670SOL     OW 9734   9.210  11.432  13.430 -0.1451 -0.4345  0.2214
32670SOL    HW1 9735   9.151  11.445  13.356  2.1271 -2.9417 -2.3049
32670SOL    HW2 9736   9.234  11.520  13.458 -1.8346  0.6066 -1.3574
32671SOL     OW 9737   6.025   8.901  10.304  0.2197  0.3194  0.5881
32671SOL    HW1 9738   5.980   8.944  10.377  0.9015  0.2800  1.0501
32671SOL    HW2 9739   6.060   8.821  10.342 -0.6194 -0.4150 -0.1455
32672SOL     OW 9740   0.362   6.910   6.094  0.2763 -0.3116  0.0069
32672SOL    HW1 9741   0.363   6.948   6.182  0.1681 -1.4012  0.4970
32672SOL    HW2 9742   0.395   6.821   6.106 -2.0183 -1.3131 -0.6433
32673SOL     OW 9743   7.372   0.132   4.265 -0.0993  0.9037 -0.0024
32673SOL    HW1 9744   7.380   0.065   4.198 -1.9405  0.3823  0.2461
32673SOL    HW2 9745   7.329   0.206   4.220  2.1829  2.1035 -0.3600
32674SOL     OW 9746   0.419   6.159   3.926  0.1358  0.2604 -0.4623
32674SOL    HW1 9747   0.389   6.128   4.011  1.8686 -0.3372 -0.0172
32674SOL    HW2 9748   0.434   6.079   3.875 -0.0119  0.5743 -1.0056
32675SOL     OW 9749   4.014   5.588  13.421 -0.6137  0.0236 -0.5311
32675SOL    HW1 9750   4.056   5.525  13.362 -1.5362 -0.7935 -0.3440
32675SOL    HW2 9751   4.086   5.635  13.462  0.0941 -0.8373 -0.7713
32676SOL     OW 9752   5.023   0.582   3.325 -0.0434 -0.2114  0.1997
32676SOL    HW1 9753   4.945   0.584   3.270  0.2496  0.7803 -0.1951
32676SOL    HW2 9754   4.997   0.532   3.403 -0.2214 -2.3580 -1.1725
32677SOL     OW 9755   7.333   4.643   3.427  0.2047  0.0156 -0.4987
32677SOL    HW1 9756   7.416   4.634   3.474  0.1276 -1.7063 -0.6205
32677SOL    HW2 9757   7.290   4.718   3.468  2.0743  1.3634 -0.8663
32678SOL     OW 9758   5.230   0.861   9.495  0.7013 -0.4137  0.0728
32678SOL    HW1 9759   5.292   0.789   9.505  1.8240  0.6586  1.1855
32678SOL    HW2 9760   5.178   0.859   9.576  2.3745  1.4524  1.3030
32679SOL     OW 9761   6.613   5.890  13.291  0.6189 -0.2074  0.1857
32679SOL    HW1 9762   6.537   5.912  13.237 -0.2792 -1.2965  0.9585
32679SOL    HW2 9763   6.657   5.821  13.242  2.2236  1.6927 -1.1861
32680SOL     OW 9764   7.441   0.133   3.971  0.1959  0.2210  0.0022
32680SOL    HW1 9765   7.396   0.104   3.891  0.0315 -0.1516  0.2273
32680SOL    HW2 9766   7.496   0.058   3.995 -4.0430 -2.2119  3.5548
32681SOL     OW 9767   5.570   0.312   1.045 -0.0156  0.4485 -0.1802
32681SOL    HW1 9768   5.541   0.286   1.133 -1.9482  0.5428 -0.7344
32681SOL    HW2 9769   5.543   0.403   1.037 -3.0209 -0.4375 -2.0014
32682SOL     OW 9770   0.728   8.432   7.278  0.1641  0.1750 -0.1376
32682SOL    HW1 9771   0.797   8.465   7.220  0.2163 -2.0431 -1.4274
32682SOL    HW2 9772   0.648   8.472   7.244  0.2167 -0.9585 -1.7063
32683SOL     OW 9773   4.093   7.195   9.637 -0.0314 -0.4024 -0.0469
32683SOL    HW1 9774   4.180   7.189   9.599 -0.0598  1.9556 -0.6463
32683SOL    HW2 9775   4.066   7.286   9.621 -2.8740 -1.2153 -0.4947
32684SOL     OW 9776   3.588   4.590   9.555  0.0247 -0.0164 -0.3113
32684SOL    HW1 9777   3.666   4.608   9.607 -0.7954 -0.6690  1.1779
32684SOL    HW2 9778   3.515   4.625   9.607 -1.1027 -3.0303  0.3381
32685SOL     OW 9779   5.163   3.988   8.398  0.8692  0.4980 -0.0087
32685SOL    HW1 9780   5.146   3.906   8.352 -0.5659  2.2504 -2.8340
32685SOL    HW2 9781   5.254   4.010   8.375  0.6123  0.6616 -0.8994
32686SOL     OW 9782  11.915  13.150  11.366  0.2192 -0.0733  0.0173
32686SOL    HW1 9783  11.947  13.230  11.406  0.6540  0.4624 -1.3567
32686SOL    HW2 9784  11.830  13.134  11.408 -0.1691  1.4626 -0.1358
32687SOL     OW 9785   6.060  10.823  12.890 -0.1618 -0.1591 -0.0113
32687SOL    HW1 9786   6.038  10.768  12.965 -0.6875  0.9853  0.6886
32687SOL    HW2 9787   6.039  10.912  12.917  0.2365  0.3573 -1.2922
32688SOL     OW 9788   3.636  12.047   2.978  1.1513 -0.6608 -0.7114
32688SOL    HW1 9789   3.662  11.961   2.944  2.4089  0.1319 -1.8195
32688SOL    HW2 9790   3.557  12.069   2.929  1.3840 -0.7496 -1.1242
32689SOL     OW 9791  11.015  11.835   0.645 -0.7811  0.0935  0.0588
32689SOL    HW1 9792  10.945  11.899   0.657  0.5306  1.6069 -0.0965
32689SOL    HW2 9793  11.083  11.862   0.707 -0.4523 -1.5614  0.4730
32690SOL     OW 9794  12.527  11.851  10.049 -0.2750 -0.6872 -0.2199
32690SOL    HW1 9795  12.608  11.882  10.008 -1.6627 -0.5606 -3.1570
32690SOL    HW2 9796  12.508  11.769  10.004 -1.8183 -0.6575  0.3328
32691SOL     OW 9797   5.253   2.160   6.957  0.0471 -0.4660 -0.2026
32691SOL    HW1 9798   5.288   2.087   7.007  0.0300 -0.0201  0.4759
32691SOL    HW2 9799   5.174   2.187   7.005  1.0077  1.1215  0.5628
32692SOL     OW 9800   6.751   3.000  10.633 -0.3396  0.5232 -0.1635
32692SOL    HW1 9801   6.799   3.002  10.716 -0.1342  0.3813 -0.2758
32692SOL    HW2 9802   6.808   3.046  10.571 -0.2064  0.0967 -0.3676
32693SOL     OW 9803   7.778   1.953  12.358 -0.3970 -0.0364 -0.0768
32693SOL    HW1 9804   7.720   2.029  12.364 -0.4786 -0.1309  0.3186
32693SOL    HW2 9805   7.857   1.979  12.406 -1.0851 -0.8192  1.5348
32694SOL     OW 9806   2.701  10.205   2.889  0.0881  0.1860  0.1904
32694SOL    HW1 9807   2.702  10.244   2.976 -0.3042 -1.6638  1.0687
32694SOL    HW2 9808   2.775  10.247   2.843 -0.7405  2.4532  0.7725
32695SOL     OW 9809  12.816  10.522   9.753  0.2817  0.4693 -0.9445
32695SOL    HW1 9810  12.812  10.520   9.849  0.9424 -1.3588 -0.9156
32695SOL    HW2 9811  12.811  10.615   9.731  1.6328  1.0541  0.9479
32696SOL     OW 9812   0.065   9.153   0.338 -0.5513 -0.1037 -0.2459
32696SOL    HW1 9813   0.147   9.129   0.381 -0.4709 -1.1946 -0.9610
32696SOL    HW2 9814   0.083   9.144   0.244 -0.6609  2.4178 -0.5709
32697SOL     OW 9815   1.561   4.951   8.581 -0.2545 -0.8026 -0.4164
32697SOL    HW1 9816   1.590   4.896   8.508  1.0217 -0.3535 -0.2691
32697SOL    HW2 9817   1.642   4.976   8.625 -0.9004  0.3338  0.1453
32698SOL     OW 9818   2.415   3.933   0.527  0.2122 -0.0199 -0.1046
32698SOL    HW1 9819   2.511   3.933   0.524  0.2916 -1.0355  1.4262
32698SOL    HW2 9820   2.389   4.004   0.467  1.9325  0.8177  0.0859
32699SOL     OW 9821  10.961   5.597   5.212 -0.1256  0.0451  0.0305
32699SOL    HW1 9822  11.033   5.638   5.163 -0.4660  1.4019  0.6374
32699SOL    HW2 9823  10.970   5.632   5.301 -0.7772 -0.7716  0.4244
32700SOL     OW 9824   4.319   7.872   0.146  0.2657  0.0839  0.4506
32700SOL    HW1 9825   4.397   7.831   0.184  0.1528 -0.9183 -0.3627
32700SOL    HW2 9826   4.350   7.956   0.113  1.6356 -1.2804 -2.0668
32701SOL     OW 9827   3.026   7.993   3.020 -0.3948 -0.1937 -0.2533
32701SOL    HW1 9828   2.983   7.945   3.090  1.2754  0.0098  0.9670
32701SOL    HW2 9829   3.010   7.941   2.941 -2.0547 -0.5740  0.3110
32702SOL     OW 9830   0.898   0.806   0.171 -0.7486  0.0496 -0.4661
32702SOL    HW1 9831   0.891   0.799   0.076  2.4313 -0.7537 -0.7597
32702SOL    HW2 9832   0.917   0.898   0.187  1.7164 -0.3028 -0.9884
32703SOL     OW 9833   2.246   8.476   6.683  0.5387 -0.6321 -0.3344
32703SOL    HW1 9834   2.275   8.428   6.605  1.8379  1.3907 -1.1762
32703SOL    HW2 9835   2.322   8.528   6.708 -1.0041  1.5490  0.0612
32704SOL     OW 9836  13.686  13.425   1.575  0.1305 -0.6457 -0.4867
32704SOL    HW1 9837  13.659  13.496   1.635  0.2301 -0.1135 -1.0663
32704SOL    HW2 9838  13.616  13.360   1.584 -1.3048  0.6216 -1.8032
32705SOL     OW 9839  12.047  11.850   7.997  0.1291 -0.1204  0.7716
32705SOL    HW1 9840  11.986  11.923   7.997 -1.4837 -1.3908  1.6069
32705SOL    HW2 9841  12.005  11.785   7.940  2.1281  0.0297 -0.9893
32706SOL     OW 9842  10.677   8.361  10.364 -0.4963  0.1737  0.0563
32706SOL    HW1 9843  10.593   8.318  10.346 -0.3897  0.3037 -0.7759
32706SOL    HW2 9844  10.688   8.352  10.458 -2.0428  1.2323  0.3759
32707SOL     OW 9845  10.153   5.068   2.234  0.2833  0.5087 -0.2955
32707SOL    HW1 9846  10.087   5.122   2.278  0.0330  0.4170 -0.5554
32707SOL    HW2 9847  10.215   5.045   2.303 -1.4252 -1.7559  0.6093
32708SOL     OW 9848   6.641   3.561   8.630  0.2996 -0.3130  0.0397
32708SOL    HW1 9849   6.681   3.648   8.636  0.3301 -0.2483 -0.9640
32708SOL    HW2 9850   6.578   3.559   8.702 -0.6038  1.0280 -0.6638
32709SOL     OW 9851  11.549   5.276   1.218  0.5542  0.1661  0.1357
32709SOL    HW1 9852  11.559   5.273   1.313  1.5980  0.7233  0.0609
32709SOL    HW2 9853  11.535   5.369   1.199 -0.5361 -0.0472 -0.1945
32710SOL     OW 9854   8.331   9.005  13.438 -0.7594  0.3072 -0.6351
32710SOL    HW1 9855   8.412   8.992  13.389 -0.0941 -0.8011  0.6751
32710SOL    HW2 9856   8.312   9.098  13.428  1.3088  0.8495 -0.0826
32711SOL     OW 9857   8.290  11.105  11.520  0.7754 -0.4268  0.0421
32711SOL    HW1 9858   8.375  11.133  11.554  0.8442 -0.3233 -0.2095
32711SOL    HW2 9859   8.267  11.173  11.457  0.2999 -0.2246  0.4276
32712SOL     OW 9860   2.768   7.026   7.248 -0.6103  0.3818  0.0246
32712SOL    HW1 9861   2.702   7.095   7.254 -1.5471 -0.3635 -1.3788
32712SOL    HW2 9862   2.720   6.948   7.222  0.7833 -0.2053 -0.9172
32713SOL     OW 9863  11.939  10.138  10.348 -0.1387  0.5576 -0.5103
32713SOL    HW1 9864  11.971  10.130  10.258  1.0571  3.5661 -0.4943
32713SOL    HW2 9865  11.999  10.084  10.400 -2.0623 -2.9063 -1.5600
32714SOL     OW 9866   1.246   0.304   5.647 -0.4051  0.1182 -0.1435
32714SOL    HW1 9867   1.223   0.294   5.555 -2.0860  0.9116  0.1528
32714SOL    HW2 9868   1.304   0.380   5.650 -0.3007  0.0544 -0.5488
32715SOL     OW 9869   8.910   4.294   8.346 -0.1098  0.8507  0.0328
32715SOL    HW1 9870   8.965   4.219   8.366 -1.1846 -0.5777 -1.9986
32715SOL    HW2 9871   8.971   4.365   8.329  1.0479 -0.2203 -0.4117
32716SOL     OW 9872   7.368  12.461   8.881 -0.0880 -0.6557  0.2307
32716SOL    HW1 9873   7.405  12.514   8.810 -1.7552 -0.4334 -0.5277
32716SOL    HW2 9874   7.333  12.525   8.943 -1.7544 -0.7851 -0.5000
32717SOL     OW 9875   0.367  12.553   3.192  0.0527  0.3463 -0.3372
32717SOL    HW1 9876   0.421  12.525   3.265 -0.3805 -0.2514 -0.2394
32717SOL    HW2 9877   0.429  12.576   3.123  0.5687  2.7946  0.8272
32718SOL     OW 9878   2.141   3.724   5.808  0.1756  0.3886 -0.8785
32718SOL    HW1 9879   2.166   3.633   5.796  0.0031  0.3176 -0.7195
32718SOL    HW2 9880   2.107   3.728   5.898 -1.6586  0.1684 -1.5101
32719SOL     OW 9881  10.861  10.192   8.606 -0.1016 -0.3029  0.4825
32719SOL    HW1 9882  10.772  10.206   8.638  0.1164  0.5976  0.7393
32719SOL    HW2 9883  10.898  10.126   8.664 -1.1268 -1.9164 -0.6407
32720SOL     OW 9884   3.159   0.163   5.357 -0.3526 -0.1588 -0.0822
32720SOL    HW1 9885   3.182   0.132   5.270  0.2316  0.1201 -0.0315
32720SOL    HW2 9886   3.166   0.258   5.351 -0.8589 -0.1084  0.1159
32721SOL     OW 9887   7.604  11.525  11.446 -0.8916 -0.4774  0.6236
32721SOL    HW1 9888   7.514  11.517  11.414 -0.7340 -1.3408  0.3443
32721SOL    HW2 9889   7.617  11.445  11.497  0.5303 -1.7149 -1.4987
32722SOL     OW 9890  10.421   2.657  13.678 -0.2811  0.3797  0.3513
32722SOL    HW1 9891  10.350   2.601  13.645  0.5055 -0.3513 -0.1271
32722SOL    HW2 9892  10.493   2.596  13.696  0.0115  1.0305  1.4633
32723SOL     OW 9893  13.429   3.548   3.495 -0.3639 -0.6281 -0.5812
32723SOL    HW1 9894  13.453   3.456   3.488  0.2455 -0.5862  0.5463
32723SOL    HW2 9895  13.341   3.553   3.459 -0.1397 -1.5172 -1.2941
32724SOL     OW 9896   1.043  12.047  10.046  0.0781 -0.1281 -0.3930
32724SOL    HW1 9897   1.031  12.019  10.137 -0.9938 -0.8522 -0.7269
32724SOL    HW2 9898   1.102  12.121  10.050  0.5684 -0.5698  0.8378
32725SOL     OW 9899   7.947  12.348   4.821 -0.2466 -0.1744  0.6211
32725SOL    HW1 9900   7.986  12.285   4.883 -2.0949  1.2742  3.4779
32725SOL    HW2 9901   7.858  12.316   4.808  0.0280 -0.2863 -1.1485
32726SOL     OW 9902   8.954   6.125   6.586  0.2920 -0.5841  0.0891
32726SOL    HW1 9903   8.891   6.174   6.639  0.5774  0.2281 -0.2956
32726SOL    HW2 9904   8.926   6.141   6.496  0.9069 -0.4070 -0.0758
32727SOL     OW 9905   9.936   8.108   5.747 -0.2527 -0.0430  0.1852
32727SOL    HW1 9906  10.008   8.141   5.695 -1.1819  1.2030 -0.3575
32727SOL    HW2 9907   9.902   8.034   5.697  0.8277 -0.8628  0.6140
32728SOL     OW 9908   3.547   1.252   5.674  0.4515  0.1051 -0.7257
32728SOL    HW1 9909   3.506   1.165   5.669  0.5833  0.0207 -0.3630
32728SOL    HW2 9910   3.610   1.245   5.745 -0.4458  0.8665  0.1864
32729SOL     OW 9911   6.428  12.368  10.144  0.0980 -0.2746 -0.1477
32729SOL    HW1 9912   6.446  12.376  10.050  1.8934  2.5402  0.3001
32729SOL    HW2 9913   6.340  12.331  10.149  0.0743 -0.8023 -2.9263
32730SOL     OW 9914   5.637  13.405   1.410 -0.4880  0.2270 -0.0971
32730SOL    HW1 9915   5.708  13.363   1.457  0.1234  0.8990 -0.4073
32730SOL    HW2 9916   5.676  13.435   1.328 -0.3527  3.2625  0.9793
32731SOL     OW 9917  11.813   1.838   3.498 -0.5700  0.1506 -0.2879
32731SOL    HW1 9918  11.763   1.904   3.546  0.7964  0.7797  0.3397
32731SOL    HW2 9919  11.849   1.781   3.567 -1.8157 -1.3668 -0.8215
32732SOL     OW 9920  10.516   2.676   7.132 -0.3731 -0.7223  0.8550
32732SOL    HW1 9921  10.515   2.652   7.039  0.8808  0.8384  0.3904
32732SOL    HW2 9922  10.513   2.592   7.179 -0.6348 -1.5524 -0.5856
32733SOL     OW 9923   5.876  11.260  11.927 -0.0104  0.4492 -0.6050
32733SOL    HW1 9924   5.847  11.200  11.996 -1.1082  0.2425 -1.2258
32733SOL    HW2 9925   5.939  11.317  11.970 -0.4758  0.1575  0.5045
32734SOL     OW 9926   9.506  10.263   5.236  0.0927 -0.1822 -0.6213
32734SOL    HW1 9927   9.601  10.255   5.235  0.0438 -0.9388  0.1040
32734SOL    HW2 9928   9.475  10.175   5.257 -0.7423  0.2309 -0.1062
32735SOL     OW 9929   4.749   9.303  12.996  0.4570  0.6977 -0.5555
32735SOL    HW1 9930   4.764   9.397  12.991 -0.0593  0.7763 -0.6974
32735SOL    HW2 9931   4.786   9.268  12.915  1.0124  0.7240 -0.3178
32736SOL     OW 9932   1.266   9.628   9.838 -0.0264 -0.1441 -0.8892
32736SOL    HW1 9933   1.235   9.550   9.792  0.2025 -0.7546 -0.0345
32736SOL    HW2 9934   1.346   9.599   9.882 -0.5796  0.2451  0.4029
32737SOL     OW 9935   5.744   9.427  11.565  0.8005 -0.2199  0.0549
32737SOL    HW1 9936   5.720   9.422  11.657 -0.2127  3.0658  0.0920
32737SOL    HW2 9937   5.828   9.473  11.564 -0.0458  1.3917 -0.6670
32738SOL     OW 9938   0.107  10.875   2.675  0.5596 -0.0670 -0.1231
32738SOL    HW1 9939   0.087  10.965   2.699 -1.6087 -0.4668 -0.1503
32738SOL    HW2 9940   0.173  10.882   2.606  0.4953  1.4861 -0.0649
32739SOL     OW 9941   5.580   1.372   7.576 -0.6286  0.0681  0.3277
32739SOL    HW1 9942   5.575   1.336   7.665 -1.8841  0.8017  0.5772
32739SOL    HW2 9943   5.538   1.458   7.583  2.4260  1.7599 -0.1803
32740SOL     OW 9944   3.295  13.732   5.519  0.2012 -0.4473  0.1471
32740SOL    HW1 9945   3.373  13.764   5.564 -0.3192 -0.3939  1.0414
32740SOL    HW2 9946   3.261  13.808   5.472  0.9478 -0.5887 -0.6501
32741SOL     OW 9947   0.898   3.937   9.127  0.0285  0.1554  0.4623
32741SOL    HW1 9948   0.840   3.902   9.059  1.3383  0.6330 -0.9703
32741SOL    HW2 9949   0.855   3.915   9.209 -1.5421 -0.5978 -0.5107
32742SOL     OW 9950   7.131   0.149   1.059 -0.2135 -0.5792 -0.5936
32742SOL    HW1 9951   7.144   0.159   1.153 -1.8625 -0.9997 -0.2789
32742SOL    HW2 9952   7.110   0.056   1.047 -2.0932 -0.1545 -1.0346
32743SOL     OW 9953   7.728   5.559   6.584 -0.4218  0.7631  0.3716
32743SOL    HW1 9954   7.653   5.613   6.610 -0.0241  0.9878  1.0777
32743SOL    HW2 9955   7.804   5.612   6.606 -0.0417  0.2471  0.2987
32744SOL     OW 9956  12.017   1.435   6.707 -0.3239  0.0404 -0.4060
32744SOL    HW1 9957  11.971   1.516   6.731 -1.9662 -0.4838 -1.6093
32744SOL    HW2 9958  12.097   1.466   6.664  0.4961  0.9730  1.6649
32745SOL     OW 9959  13.249  11.210  12.386 -0.3302 -0.3083 -0.1251
32745SOL    HW1 9960  13.328  11.235  12.434 -0.2630 -1.2718  0.2847
32745SOL    HW2 9961  13.262  11.246  12.298  0.9736 -1.1954 -0.3243
32746SOL     OW 9962   7.087   1.497  10.790 -0.2458 -0.5945  0.3805
32746SOL    HW1 9963   7.145   1.485  10.714 -0.1877  1.7788 -0.0082
32746SOL    HW2 9964   7.054   1.409  10.808  0.3736 -1.3761 -1.8891
32747SOL     OW 9965  11.087   8.893   9.473 -0.2139  0.0233  0.4374
32747SOL    HW1 9966  11.087   8.916   9.380 -2.7721  0.4168  0.4627
32747SOL    HW2 9967  11.120   8.971   9.517 -0.7818  0.5566 -0.0491
32748SOL     OW 9968   4.925   9.074   0.475  0.0174 -0.3096  0.2277
32748SOL    HW1 9969   4.945   9.144   0.412 -0.9888 -1.3133 -1.2420
32748SOL    HW2 9970   4.993   9.009   0.460 -0.5950 -0.8387 -0.2857
32749SOL     OW 9971   0.349   0.883  10.397 -0.2334 -0.4289  0.2570
32749SOL    HW1 9972   0.325   0.975  10.382  0.4319 -0.1478  0.8951
32749SOL    HW2 9973   0.354   0.875  10.492  3.0152 -0.2430  0.2076
32750SOL     OW 9974   1.796   9.998  13.684  0.6525 -0.4408  0.4024
32750SOL    HW1 9975   1.792  10.008  13.589 -1.3885 -1.4844  0.3446
32750SOL    HW2 9976   1.720  10.046  13.717  1.1241 -0.4072  1.4953
32751SOL     OW 9977   2.496   0.756   8.316  0.3667 -0.9448  0.3461
32751SOL    HW1 9978   2.480   0.775   8.408 -0.0237 -0.5068  0.1929
32751SOL    HW2 9979   2.433   0.810   8.269 -0.6505 -2.4611 -0.1257
32752SOL     OW 9980  10.780  13.654   9.080 -0.3752  0.0598 -0.1580
32752SOL    HW1 9981  10.830  13.577   9.106 -1.0914  0.0299  1.2444
32752SOL    HW2 9982  10.703  13.653   9.137 -0.9891  1.1715 -0.9248
32753SOL     OW 9983  11.328   6.173   0.726 -0.2597 -0.2294 -0.3596
32753SOL    HW1 9984  11.314   6.210   0.639 -0.4902 -0.7398 -0.5391
32753SOL    HW2 9985  11.347   6.249   0.781 -0.6130  0.1486 -0.7509
32754SOL     OW 9986   1.549   3.510  12.368 -0.0176  0.1626  0.0119
32754SOL    HW1 9987   1.628   3.506  12.423  0.5676  0.6538 -0.7783
32754SOL    HW2 9988   1.482   3.546  12.425  0.1521 -0.8318  0.8854
32755SOL     OW 9989   2.561   3.416   5.953 -0.3161 -0.6145  0.2811
32755SOL    HW1 9990   2.484   3.362   5.934  0.2552 -1.1026 -0.7123
32755SOL    HW2 9991   2.527   3.505   5.960 -0.7225 -0.5363 -2.1373
32756SOL     OW 9992   3.575   6.257   8.954 -0.2318  0.3614 -0.0770
32756SOL    HW1 9993   3.639   6.272   9.024 -0.0743  1.5294 -0.4465
32756SOL    HW2 9994   3.573   6.340   8.906  0.9636 -0.9178 -2.5321
32757SOL     OW 9995   1.115  13.318   4.271 -0.6211  0.1209 -0.0256
32757SOL    HW1 9996   1.203  13.322   4.233 -1.0353 -1.1262 -1.1955
32757SOL    HW2 9997   1.128  13.284   4.359  0.2250  1.6779  0.4876
32758SOL     OW 9998   0.679  11.724   4.726  0.2773  0.2519 -0.4188
32758SOL    HW1 9999   0.612  11.692   4.786 -0.8369  2.4885 -0.3441
32758SOL    HW210000   0.700  11.812   4.758  0.0740  1.2964 -2.9014
32759SOL     OW10001   4.403   0.342   3.193 -0.4077  0.1416 -0.5650
32759SOL    HW110002   4.334   0.279   3.173 -1.3825  1.2866 -0.9118
32759SOL    HW210003   4.371   0.425   3.157  0.8256  0.8483 -0.0899
32760SOL     OW10004   5.281  11.782   3.374  0.2579  0.4073 -0.7284
32760SOL    HW110005   5.302  11.758   3.464 -1.1344  1.4836 -0.0745
32760SOL    HW210006   5.360  11.759   3.325  0.8323 -0.7538  0.6431
32761SOL     OW10007  12.754   9.460  12.293  0.3294 -1.0358  0.0238
32761SOL    HW110008  12.818   9.467  12.364 -0.7050  0.2689  0.8659
32761SOL    HW210009  12.749   9.548  12.256 -2.4975 -0.5050  1.3903
32762SOL     OW10010   7.697   8.934  13.706  0.3324  0.1892 -0.1286
32762SOL    HW110011   7.787   8.958  13.686 -0.0768 -0.0463 -2.5167
32762SOL    HW210012   7.702   8.841  13.730  0.7088  0.1226 -0.4523
32763SOL     OW10013   5.941   4.556   6.800 -0.0678  0.2680  0.2715
32763SOL    HW110014   5.884   4.513   6.864  1.8008 -0.6334  1.4213
32763SOL    HW210015   6.022   4.572   6.848  0.5656  1.7811 -1.2156
32764SOL     OW10016   5.545   9.308   3.326  0.6008 -0.2778  0.5107
32764SOL    HW110017   5.624   9.257   3.307 -1.1486 -2.9718 -0.0478
32764SOL    HW210018   5.540   9.371   3.254  2.6368  0.5866  1.0291
32765SOL     OW10019   6.234   2.019   3.981 -0.2098  0.1624  0.2486
32765SOL    HW110020   6.326   2.007   4.003  0.3650  0.7901 -1.6523
32765SOL    HW210021   6.196   2.060   4.058  1.3187  0.7907  0.6884
32766SOL     OW10022   3.522  12.329   6.396 -0.1351 -0.2471 -0.4865
32766SOL    HW110023   3.543  12.247   6.352  0.9156 -0.2693  0.0087
32766SOL    HW210024   3.475  12.303   6.475 -0.2868 -0.3370 -0.6077
32767SOL     OW10025   1.389  10.467   0.047 -0.6442  0.1217  0.5681
32767SOL    HW110026   1.394  10.379   0.010  0.2806  0.5362 -0.3444
32767SOL    HW210027   1.297  10.491   0.039 -0.5504  0.0196 -1.0660
32768SOL     OW10028   7.441  10.294   1.587 -0.5710  0.8850  0.2458
32768SOL    HW110029   7.512  10.319   1.647 -0.9776  0.7959  0.7648
32768SOL    HW210030   7.394  10.225   1.633 -1.6439  1.6669  0.3728
32769SOL     OW10031  11.265   0.680   0.736 -0.2623  0.2765 -0.1519
32769SOL    HW110032  11.297   0.750   0.792  0.0731 -0.3577  0.4556
32769SOL    HW210033  11.294   0.599   0.778 -1.2064 -0.2582 -0.4835
32770SOL     OW10034   2.342   0.385  12.014  0.2584  0.0001 -0.8119
32770SOL    HW110035   2.404   0.331  11.965  0.8689  2.0145 -2.4008
32770SOL    HW210036   2.389   0.466  12.032 -1.1207  0.6402  0.1377
32771SOL     OW10037  10.969   9.757  10.776  0.2675 -0.2302  0.3765
32771SOL    HW110038  10.890   9.744  10.828 -0.7887 -0.0702 -1.1600
32771SOL    HW210039  10.945   9.734  10.687  1.5070  1.2773 -0.4101
32772SOL     OW10040   3.548   2.700   9.032 -0.1839  0.0088 -0.2658
32772SOL    HW110041   3.586   2.625   8.987  1.5941  0.7655 -0.1200
32772SOL    HW210042   3.461   2.710   8.994  0.6677 -0.3173 -2.4486
32773SOL     OW10043   7.809   4.983   6.334  0.3838  0.1167  0.3362
32773SOL    HW110044   7.846   4.964   6.247  1.3743 -0.5452  0.8860
32773SOL    HW210045   7.718   4.955   6.327  0.4234  0.1495 -0.5185
32774SOL     OW10046   6.253   5.398  12.117 -0.1587  0.5512 -0.4289
32774SOL    HW110047   6.283   5.476  12.071 -2.3283  0.3539 -2.3751
32774SOL    HW210048   6.168   5.423  12.153 -0.3084 -0.5452  0.0021
32775SOL     OW10049   1.385   2.077   9.323  0.2336  0.4018  0.4873
32775SOL    HW110050   1.408   2.029   9.402 -0.4151 -0.5280  0.1253
32775SOL    HW210051   1.404   2.017   9.251 -1.2812  0.3716  0.0718
32776SOL     OW10052   8.525   1.059   7.850 -0.0387  0.6253  0.0597
32776SOL    HW110053   8.502   0.994   7.917  0.1128 -0.3061 -0.7591
32776SOL    HW210054   8.543   1.006   7.771  0.5916  1.6289 -0.4884
32777SOL     OW10055  11.710   7.985   6.015 -0.0118 -0.2500  0.3791
32777SOL    HW110056  11.673   7.901   6.040 -0.9111  0.0758  0.1997
32777SOL    HW210057  11.723   8.031   6.098  0.2007 -0.4559  0.4588
32778SOL     OW10058   4.190   5.445  13.263  0.5557 -0.3220 -0.3667
32778SOL    HW110059   4.262   5.413  13.208  0.5271 -0.8689 -0.0867
32778SOL    HW210060   4.134   5.493  13.202  1.5016  0.7105 -0.4753
32779SOL     OW10061  11.363   4.608   5.366 -0.1450  0.1483  0.4536
32779SOL    HW110062  11.416   4.655   5.431  1.3134 -0.5836 -0.1568
32779SOL    HW210063  11.382   4.516   5.381 -2.4289 -0.2814  1.1608
32780SOL     OW10064  13.611   7.661   3.703 -0.0608 -0.1166 -0.0247
32780SOL    HW110065  13.679   7.655   3.637 -0.3535  0.0068 -0.3385
32780SOL    HW210066  13.601   7.754   3.720  1.0576 -0.1939  1.2933
32781SOL     OW10067  12.715  12.331  13.462 -0.0319 -0.0766 -0.5244
32781SOL    HW110068  12.647  12.382  13.418  1.2586  1.5512 -0.7247
32781SOL    HW210069  12.794  12.385  13.455  0.6567 -0.5856  2.2110
32782SOL     OW10070   2.065   0.932   6.994 -0.4917 -0.8397  0.1171
32782SOL    HW110071   1.989   0.941   6.937 -1.0446 -2.3109  0.5860
32782SOL    HW210072   2.100   1.021   7.001 -1.3779 -0.3605 -1.1660
32783SOL     OW10073   6.570   9.155   9.817 -0.1693 -0.6253  0.2871
32783SOL    HW110074   6.536   9.241   9.842  1.1587  0.1623 -0.5179
32783SOL    HW210075   6.501   9.116   9.765 -0.4312  0.3460 -0.1141
32784SOL     OW10076  11.657   8.788   2.035 -0.4377  0.5020 -0.2244
32784SOL    HW110077  11.606   8.716   2.072 -1.1675  1.9234  1.7866
32784SOL    HW210078  11.748   8.761   2.046 -0.6992 -0.2393  0.2121
32785SOL     OW10079  13.654   3.163   0.134  0.5537  0.4017 -0.0523
32785SOL    HW110080  13.662   3.233   0.069  0.5923 -0.2092 -0.7184
32785SOL    HW210081  13.612   3.091   0.086  1.8490 -0.5645  0.2103
32786SOL     OW10082  11.208   5.682   8.987 -0.6050  0.1686 -0.5491
32786SOL    HW110083  11.173   5.742   9.052 -0.2225 -0.6281  0.4264
32786SOL    HW210084  11.143   5.681   8.917 -0.6142  1.7043 -0.6010
32787SOL     OW10085   7.617  11.470   2.249 -0.0891  0.3423 -0.4483
32787SOL    HW110086   7.552  11.537   2.272  0.8490  1.5087 -1.1180
32787SOL    HW210087   7.576  11.388   2.276 -1.6263  1.0926 -0.3790
32788SOL     OW10088   3.584   4.658   9.973  0.0257 -0.2167 -0.2007
32788SOL    HW110089   3.661   4.701  10.010  0.0720 -0.4163 -0.0613
32788SOL    HW210090   3.575   4.696   9.886 -1.1702  1.6175  0.6532
32789SOL     OW10091   9.170   8.876   0.452 -0.1019  0.1608  0.6375
32789SOL    HW110092   9.195   8.968   0.457  1.4185 -0.1098 -1.0779
32789SOL    HW210093   9.208   8.845   0.370  0.3440 -2.2516  1.6590
32790SOL     OW10094   2.754   5.944   0.258 -0.2355 -0.2218 -0.1084
32790SOL    HW110095   2.727   5.960   0.167 -0.1630 -1.5767 -0.3830
32790SOL    HW210096   2.723   5.856   0.277 -1.4314  0.5228  1.6523
32791SOL     OW10097   6.330   1.706   3.437  0.4423  0.1051 -0.3769
32791SOL    HW110098   6.340   1.655   3.357 -0.1853 -1.7900  0.6833
32791SOL    HW210099   6.343   1.797   3.410  1.5220 -0.5862 -2.3685
32792SOL     OW10100   7.925   2.099   3.271 -0.0416 -0.0167  0.1970
32792SOL    HW110101   7.878   2.016   3.284  0.9488 -0.4740  1.0244
32792SOL    HW210102   7.924   2.141   3.357  0.8352  0.0828  0.1656
32793SOL     OW10103   5.204  11.211   5.827  0.1126  0.0244 -0.2904
32793SOL    HW110104   5.151  11.166   5.892  1.9691 -0.1661  1.1706
32793SOL    HW210105   5.252  11.140   5.783 -0.5500  0.2199 -1.3887
32794SOL     OW10106   1.501   6.458   8.096 -0.2885 -0.6852 -0.0151
32794SOL    HW110107   1.595   6.443   8.095 -0.1045 -0.5420  3.1307
32794SOL    HW210108   1.469   6.405   8.169 -2.4708  0.1424 -0.2796
32795SOL     OW10109  13.585   4.636   9.711 -0.3308 -0.2079  0.3018
32795SOL    HW110110  13.523   4.565   9.727 -0.4553 -0.0207  0.6670
32795SOL    HW210111  13.583   4.648   9.616  0.1036 -1.0610  0.1772
32796SOL     OW10112   3.585   1.925   8.885 -0.0204  0.5362  0.5241
32796SOL    HW110113   3.611   1.986   8.817 -0.0187  0.1489  0.1700
32796SOL    HW210114   3.496   1.898   8.861 -0.0244  0.4067  0.6780
32797SOL     OW10115   9.569   6.379   9.901 -0.0500  0.8428 -0.2121
32797SOL    HW110116   9.563   6.329   9.820  1.2780 -0.5604  0.5114
32797SOL    HW210117   9.488   6.431   9.903 -0.8015 -0.2000 -1.6929
32798SOL     OW10118   8.184   7.414   0.077 -0.0824 -0.0493 -0.4166
32798SOL    HW110119   8.189   7.368   0.161 -0.3934 -0.8003 -0.7985
32798SOL    HW210120   8.162   7.504   0.101  0.0790 -0.1972  0.3236
32799SOL     OW10121   6.674   4.080   6.760  0.5108 -0.0052 -0.5348
32799SOL    HW110122   6.613   4.006   6.767  2.4700 -1.5954  1.1914
32799SOL    HW210123   6.690   4.105   6.851  2.1534  0.5587 -0.9567
32800SOL     OW10124  11.049   8.561  11.170 -0.0347 -0.0884 -0.0778
32800SOL    HW110125  11.140   8.557  11.199 -0.3396  0.2857  0.9687
32800SOL    HW210126  11.015   8.642  11.208 -0.9176 -0.4238 -0.1268
32801SOL     OW10127   2.145   5.794   1.788 -0.1489  0.3506  0.0880
32801SOL    HW110128   2.125   5.880   1.824  0.5749  0.8702 -0.7032
32801SOL    HW210129   2.079   5.780   1.720 -0.7294 -0.0650  0.7236
32802SOL     OW10130  11.216  12.295   7.521  0.1736 -0.4957 -0.4428
32802SOL    HW110131  11.163  12.286   7.601 -2.5128 -3.2233 -2.3015
32802SOL    HW210132  11.239  12.388   7.518 -0.9392  0.0053  2.6742
32803SOL     OW10133   9.574   3.240   0.481  0.4831  0.2639 -0.2742
32803SOL    HW110134   9.489   3.199   0.496 -0.3153  1.0479 -2.2986
32803SOL    HW210135   9.600   3.275   0.567 -1.0527 -0.3108  0.4494
32804SOL     OW10136   1.813   6.160  11.767 -0.2794 -0.6089  0.4304
32804SOL    HW110137   1.810   6.224  11.838 -2.0267  0.6287 -0.6624
32804SOL    HW210138   1.728   6.115  11.772 -0.1670 -0.9543 -0.4527
32805SOL     OW10139   8.668   8.665   2.405  0.0779  0.0826  0.2562
32805SOL    HW110140   8.711   8.720   2.340 -2.0987  1.9616  0.2872
32805SOL    HW210141   8.649   8.723   2.478 -0.4018 -1.2169  1.2105
32806SOL     OW10142   5.235   9.988   3.003  0.1262 -0.1631  1.1771
32806SOL    HW110143   5.170   9.984   2.934  0.7404 -1.5732  0.6458
32806SOL    HW210144   5.229  10.077   3.037 -3.4731 -0.7601  2.5490
32807SOL     OW10145   3.937   8.254  13.379 -0.8012  0.3700  0.4787
32807SOL    HW110146   4.015   8.287  13.424 -2.2466  2.5062  1.6401
32807SOL    HW210147   3.916   8.322  13.314 -0.8819 -0.8842 -0.8530
32808SOL     OW10148   0.394  10.890  12.677 -0.4995 -0.0757  0.1658
32808SOL    HW110149   0.477  10.902  12.723  0.2564 -1.6798 -0.7156
32808SOL    HW210150   0.400  10.804  12.636 -1.9760  0.4093 -1.2146
32809SOL     OW10151   7.384   2.057  11.271  0.2954  0.3175  0.0850
32809SOL    HW110152   7.343   2.113  11.205 -0.3175  0.4432  0.5734
32809SOL    HW210153   7.475   2.050  11.242  0.2835  1.2396 -0.1934
32810SOL     OW10154   2.266   5.917   6.283  0.5774  0.2433  0.1015
32810SOL    HW110155   2.305   5.837   6.247  0.0749 -0.1870  0.4825
32810SOL    HW210156   2.238   5.966   6.206  0.0024 -0.4169 -0.1324
32811SOL     OW10157   3.774   7.138   9.112 -0.4069  0.0071  0.6208
32811SOL    HW110158   3.811   7.208   9.165  3.8764  0.2318 -2.2212
32811SOL    HW210159   3.726   7.183   9.043  0.7312  0.1095 -0.1205
32812SOL     OW10160  13.330   2.868   6.404 -0.1643 -0.1190 -0.2815
32812SOL    HW110161  13.416   2.827   6.403 -0.5395 -1.1347  2.0167
32812SOL    HW210162  13.341   2.945   6.460 -0.4363  0.6198 -1.2083
32813SOL     OW10163   2.915   5.320  12.022 -0.5905 -0.6040  0.2129
32813SOL    HW110164   2.859   5.249  12.053  0.1490 -1.2674  0.0686
32813SOL    HW210165   2.972   5.340  12.095  0.1996 -1.1944 -0.2260
32814SOL     OW10166  11.175   6.478  10.743  0.0288  0.1999  0.7228
32814SOL    HW110167  11.085   6.444  10.740  0.3643 -0.7977  1.3305
32814SOL    HW210168  11.199   6.490  10.652 -1.1482  1.6852  0.5750
32815SOL     OW10169   0.939   2.170   6.993  0.1740  0.3868 -0.6680
32815SOL    HW110170   0.960   2.241   7.053 -0.1566  0.3831 -0.5450
32815SOL    HW210171   0.917   2.096   7.049  0.1212  0.3072 -0.7925
32816SOL     OW10172   9.649   6.880   5.903 -0.5644 -0.3946 -1.0354
32816SOL    HW110173   9.612   6.935   5.834  0.5782 -0.2438 -1.5662
32816SOL    HW210174   9.574   6.849   5.953 -1.4445 -0.7245 -2.5125
32817SOL     OW10175   4.269   9.205   8.796 -0.3476 -0.2757  0.2062
32817SOL    HW110176   4.319   9.224   8.876 -2.7175  1.0614  1.4997
32817SOL    HW210177   4.322   9.240   8.725  0.7461  0.6620  1.4448
32818SOL     OW10178  12.873   8.437   8.504 -0.4969 -0.3505 -0.1092
32818SOL    HW110179  12.946   8.410   8.448 -0.7706 -2.3455  0.4215
32818SOL    HW210180  12.913   8.493   8.570  0.0001  1.1887 -1.6430
32819SOL     OW10181  11.813   1.503   8.934  0.3421  0.3163 -0.0170
32819SOL    HW110182  11.820   1.511   9.029  2.2483  0.6929 -0.1537
32819SOL    HW210183  11.742   1.440   8.921  0.8139 -0.6471  1.6939
32820SOL     OW10184   0.438   2.853   1.524 -0.3700  0.3297 -0.0238
32820SOL    HW110185   0.450   2.948   1.530 -0.8575  0.4442 -0.7978
32820SOL    HW210186   0.507   2.823   1.465 -0.0287  0.1560  0.4561
32821SOL     OW10187   6.689   2.333   4.102 -0.3599 -0.0647 -1.1174
32821SOL    HW110188   6.610   2.370   4.063 -0.3327  0.2794 -0.8489
32821SOL    HW210189   6.709   2.257   4.048 -0.4048  0.3246 -1.6877
32822SOL     OW10190  11.132  10.455   0.493 -0.7359  0.2278  0.3049
32822SOL    HW110191  11.164  10.528   0.546  0.7556 -0.1926  0.0380
32822SOL    HW210192  11.050  10.428   0.535  0.3188 -0.0087  2.3211
32823SOL     OW10193   7.799   5.241  12.299 -0.4938 -0.8004  0.2051
32823SOL    HW110194   7.742   5.183  12.248 -1.2517 -0.1530  0.2929
32823SOL    HW210195   7.864   5.273  12.237  0.8164 -2.8166  0.4500
32824SOL     OW10196   8.655  13.244   5.864  0.2736 -0.2132  1.0089
32824SOL    HW110197   8.718  13.316   5.850 -0.0404 -0.2858 -1.1481
32824SOL    HW210198   8.609  13.237   5.780 -1.8640 -0.9074  2.1801
32825SOL     OW10199  13.492  11.048   1.032  0.4426 -0.2599  0.3748
32825SOL    HW110200  13.492  10.959   0.995  1.9341  0.3155 -1.1496
32825SOL    HW210201  13.558  11.095   0.981 -0.9896  2.0123  0.4843
32826SOL     OW10202   1.755   4.832  13.355  0.3678 -0.1295  0.0819
32826SOL    HW110203   1.835   4.780  13.345  0.0664 -0.7489  0.7538
32826SOL    HW210204   1.719   4.838  13.267  1.3613  0.5125 -0.3043
32827SOL     OW10205   9.000   8.481   8.090  0.3972 -0.5328  0.9481
32827SOL    HW110206   9.059   8.525   8.029 -0.2411 -1.9079 -0.7192
32827SOL    HW210207   9.037   8.393   8.101 -0.7544 -1.0518  0.7273
32828SOL     OW10208   2.647   0.079   7.972 -0.5784 -0.2487 -0.2592
32828SOL    HW110209   2.679   0.022   7.902 -0.7901 -0.0077 -0.5544
32828SOL    HW210210   2.701   0.057   8.047 -0.6226 -0.8088 -0.3823
32829SOL     OW10211   5.669  13.112   2.380 -0.0168 -0.2387 -0.4769
32829SOL    HW110212   5.732  13.051   2.343  0.1284 -0.1206 -0.4254
32829SOL    HW210213   5.676  13.190   2.325  0.3054 -0.0070 -0.1105
32830SOL     OW10214   3.642  12.723  12.189 -0.4521  0.3030  0.0153
32830SOL    HW110215   3.737  12.708  12.185 -0.4709  0.0428  0.5498
32830SOL    HW210216   3.625  12.743  12.281 -0.6746  2.0040 -0.3708
32831SOL     OW10217   2.862  12.292   4.727 -0.0811  0.2095  0.2349
32831SOL    HW110218   2.841  12.284   4.634  0.8641  1.3416 -0.1141
32831SOL    HW210219   2.788  12.253   4.772 -0.1920 -1.0772 -1.0036
32832SOL     OW10220   1.620   2.537   9.430 -0.3341  0.0463  0.2625
32832SOL    HW110221   1.539   2.569   9.471 -0.8293  0.3547 -0.9130
32832SOL    HW210222   1.613   2.441   9.437 -1.9152 -0.0520 -1.7982
32833SOL     OW10223   0.130   9.759  13.679  0.3887 -1.1476  0.3245
32833SOL    HW110224   0.194   9.722  13.739  0.6719 -1.3004 -0.0679
32833SOL    HW210225   0.159   9.850  13.666 -0.7425 -0.5165  1.8977
32834SOL     OW10226  10.077   6.436  13.097 -0.0647  0.0116  0.1491
32834SOL    HW110227  10.087   6.469  13.008  1.2982  0.6693  0.5118
32834SOL    HW210228  10.022   6.358  13.088 -0.1122  0.1845 -1.2373
32835SOL     OW10229   9.970   9.662   7.498 -0.5578 -1.2084  0.1069
32835SOL    HW110230   9.996   9.746   7.460 -0.0890 -1.2080  0.4179
32835SOL    HW210231   9.946   9.608   7.422 -0.1709 -1.0251 -0.1476
32836SOL     OW10232  12.815  10.853  10.249 -0.1471  0.3732  0.0487
32836SOL    HW110233  12.907  10.865  10.274  0.4801 -0.3981 -1.7103
32836SOL    HW210234  12.770  10.930  10.284  0.2363 -1.2522  4.8550
32837SOL     OW10235   1.136   1.438  10.879  0.0809  0.1632 -0.1274
32837SOL    HW110236   1.210   1.400  10.925 -0.7468  0.6740  1.7171
32837SOL    HW210237   1.169   1.521  10.844  0.5412  0.0951  0.1502
32838SOL     OW10238   9.722   5.723  12.777  0.3539  0.1179  0.6501
32838SOL    HW110239   9.655   5.658  12.801 -1.1404  1.7015  0.9490
32838SOL    HW210240   9.804   5.684  12.807 -0.6357 -1.1119  1.9201
32839SOL     OW10241   6.389  13.016   1.987 -0.0805 -0.4789  0.2728
32839SOL    HW110242   6.338  13.054   2.059 -0.1345  0.6545 -0.3308
32839SOL    HW210243   6.428  13.092   1.943  2.1003 -1.3044  0.6626
32840SOL     OW10244   8.019   5.386  10.952 -0.0662 -0.0773  0.2971
32840SOL    HW110245   7.977   5.307  10.987 -0.4686  0.4572  1.0344
32840SOL    HW210246   8.113   5.366  10.956 -0.2030 -0.9949 -0.6842
32841SOL     OW10247  13.277   2.085   9.256  0.1854 -0.0050 -0.5620
32841SOL    HW110248  13.263   2.007   9.202 -1.7993 -1.0529  1.3022
32841SOL    HW210249  13.262   2.054   9.346  0.6947  2.2466  0.3551
32842SOL     OW10250   7.815   8.836   4.371  0.3916  0.1220  0.1593
32842SOL    HW110251   7.750   8.779   4.412  0.7492 -1.9874 -2.0047
32842SOL    HW210252   7.897   8.815   4.416  0.0478  1.0509  1.2714
32843SOL     OW10253   4.031  11.633   5.031  0.0840  0.4676 -0.4031
32843SOL    HW110254   3.996  11.722   5.028  0.3516  0.5755 -0.3561
32843SOL    HW210255   4.092  11.634   5.105  0.2033  0.2879 -0.4989
32844SOL     OW10256   7.034   2.474   1.536 -0.0703 -0.1500  0.7511
32844SOL    HW110257   6.992   2.487   1.621 -0.5130  1.0017  0.3773
32844SOL    HW210258   7.098   2.404   1.551  1.1841  1.2883  2.5052
32845SOL     OW10259   7.529   6.136  11.597 -0.2916  0.6537 -0.1116
32845SOL    HW110260   7.525   6.060  11.656 -0.7241 -1.2804 -2.4453
32845SOL    HW210261   7.621   6.140  11.570 -0.2046  1.1869  0.2544
32846SOL     OW10262   8.615  11.566  12.958 -0.0487 -0.3220 -0.1146
32846SOL    HW110263   8.656  11.583  13.043 -2.0237  1.7103  0.5322
32846SOL    HW210264   8.673  11.607  12.894  0.0882  0.5462  0.5510
32847SOL     OW10265   0.593   8.399   1.013 -0.0245 -0.8193 -0.1429
32847SOL    HW110266   0.617   8.470   1.072  1.0608  0.6027 -2.1858
32847SOL    HW210267   0.509   8.425   0.976  0.2567 -0.6973 -0.7108
32848SOL     OW10268   1.150   3.217   5.400  0.1605 -0.3708 -1.2675
32848SOL    HW110269   1.096   3.182   5.329 -0.1118 -0.0168 -1.2396
32848SOL    HW210270   1.088   3.258   5.459  0.5928  2.0552 -2.3546
32849SOL     OW10271   8.763   9.910  13.252  0.1131  0.0784  0.2703
32849SOL    HW110272   8.699   9.973  13.286 -0.0677 -0.2016  0.4496
32849SOL    HW210273   8.741   9.827  13.295 -0.2643 -0.3344 -0.6871
32850SOL     OW10274   2.331   9.268   4.805  0.0912  0.0180  0.3466
32850SOL    HW110275   2.252   9.229   4.844  0.3489 -0.9870 -0.1054
32850SOL    HW210276   2.391   9.277   4.879 -0.4908  0.9322  0.7234
32851SOL     OW10277   5.987   7.103   6.787 -0.4718 -0.2256 -0.5279
32851SOL    HW110278   5.917   7.162   6.816  0.5393  0.8376 -0.1939
32851SOL    HW210279   6.046   7.158   6.736  0.4087 -0.9932 -0.3667
32852SOL     OW10280   1.570  13.069   7.074  0.1991 -0.3744 -0.5640
32852SOL    HW110281   1.662  13.086   7.055  0.1098 -0.4131 -1.0364
32852SOL    HW210282   1.525  13.085   6.991 -0.2276 -0.2981 -0.3208
32853SOL     OW10283   7.606   9.135   9.157  0.6395 -0.0114 -0.0720
32853SOL    HW110284   7.639   9.045   9.159  0.9785  0.1035 -0.3705
32853SOL    HW210285   7.679   9.186   9.122 -0.1452  0.1185 -1.5831
32854SOL     OW10286   6.606  12.972  11.895 -0.1946 -0.3365  0.7334
32854SOL    HW110287   6.622  12.958  11.988 -0.3390 -1.1908  0.6342
32854SOL    HW210288   6.640  12.893  11.852  0.3009  0.2409  0.0120
32855SOL     OW10289   1.834   0.709   1.153  0.4807  0.1583 -0.4014
32855SOL    HW110290   1.881   0.629   1.131  1.0742  0.5297 -0.5228
32855SOL    HW210291   1.887   0.750   1.222  0.0745  0.3446 -0.1930
32856SOL     OW10292  11.094  12.246   7.753 -0.0609 -0.3430 -0.5301
32856SOL    HW110293  11.153  12.191   7.804 -2.1179 -1.4886  0.7412
32856SOL    HW210294  11.046  12.297   7.819 -0.6797  0.3843 -1.5155
32857SOL     OW10295  11.064  10.307  10.771 -0.2757 -0.0228  0.6068
32857SOL    HW110296  11.041  10.247  10.842  1.6375  0.7159  1.9294
32857SOL    HW210297  11.019  10.272  10.694  0.6251 -3.0949  1.3368
32858SOL     OW10298  11.598   9.186   3.352  0.7287  0.9307  0.3333
32858SOL    HW110299  11.635   9.100   3.373 -1.1904  0.1160  0.6646
32858SOL    HW210300  11.655   9.248   3.396  3.4504  0.0462 -1.6879
32859SOL     OW10301   5.241   9.039   3.933  0.5413 -0.2896  0.4291
32859SOL    HW110302   5.209   9.115   3.885  1.6765  0.3164  0.5966
32859SOL    HW210303   5.162   8.991   3.957 -0.1620  0.5473 -0.1493
32860SOL     OW10304   4.274   6.599   8.279  0.3066 -0.0226  0.0211
32860SOL    HW110305   4.215   6.618   8.352 -1.0052 -1.5082 -0.5917
32860SOL    HW210306   4.348   6.658   8.292  0.0682 -0.1489  2.4656
32861SOL     OW10307  10.718   5.232   2.934 -0.6376 -0.2278 -0.5215
32861SOL    HW110308  10.687   5.150   2.895 -0.4997 -1.3960  1.6623
32861SOL    HW210309  10.676   5.235   3.019  0.9136  0.9636  0.2543
32862SOL     OW10310  12.155  13.587  10.380 -0.3457  0.5103 -0.3642
32862SOL    HW110311  12.221  13.519  10.394 -0.8777  0.2507  0.9711
32862SOL    HW210312  12.071  13.544  10.397 -0.6612  1.6105  1.0307
32863SOL     OW10313   8.761   3.610   9.362 -0.0177 -0.0229  0.0405
32863SOL    HW110314   8.674   3.650   9.361  1.1732  2.8800  0.3996
32863SOL    HW210315   8.812   3.665   9.422  1.5644 -2.8998  1.5401
32864SOL     OW10316   4.726   1.939  13.193 -0.0631  0.6545  0.1277
32864SOL    HW110317   4.726   1.854  13.149  1.0950  1.0957 -0.7852
32864SOL    HW210318   4.729   1.918  13.286  0.0030 -0.3002 -0.0837
32865SOL     OW10319  10.656  11.683   0.582 -0.7397 -0.4799 -0.1266
32865SOL    HW110320  10.691  11.747   0.643 -1.0634 -0.8862  0.4936
32865SOL    HW210321  10.670  11.598   0.624 -4.3023 -0.5857  1.1861
32866SOL     OW10322   3.548   1.590   7.884  0.5002 -0.4318 -0.2819
32866SOL    HW110323   3.473   1.614   7.938  0.4018 -1.9580  0.3192
32866SOL    HW210324   3.622   1.636   7.924  0.1858 -0.4317  0.3086
32867SOL     OW10325   3.658   8.509   2.238  0.2282 -0.0416  0.1975
32867SOL    HW110326   3.754   8.517   2.232  0.1706 -0.4069 -1.6287
32867SOL    HW210327   3.625   8.568   2.171 -0.8247 -0.3014  0.4751
32868SOL     OW10328  12.899   7.956  13.010  0.0628 -0.1048  0.2284
32868SOL    HW110329  12.955   7.903  13.067 -0.1625 -0.2975  0.2727
32868SOL    HW210330  12.892   7.905  12.930  1.6702  0.8893 -0.5931
32869SOL     OW10331  11.313  10.120   9.164  0.0413  0.0427  0.2602
32869SOL    HW110332  11.263  10.202   9.158 -0.0947 -0.0607 -0.0643
32869SOL    HW210333  11.383  10.139   9.226  1.8796  1.3924 -2.0594
32870SOL     OW10334   1.575   7.489   6.988  0.7596  0.3836  0.3529
32870SOL    HW110335   1.482   7.511   6.989  0.6214 -0.1628  0.3148
32870SOL    HW210336   1.593   7.469   6.896  0.7894  0.0029  0.4399
32871SOL     OW10337  12.473   8.461   3.095  0.4047  0.4308  0.6200
32871SOL    HW110338  12.476   8.365   3.097 -2.6113  0.0701 -2.0696
32871SOL    HW210339  12.554   8.486   3.051  0.1745 -1.1876 -0.8848
32872SOL     OW10340   1.848   6.526   1.201 -0.6003 -0.1460  0.0268
32872SOL    HW110341   1.823   6.444   1.158 -0.2281  0.4148 -1.3313
32872SOL    HW210342   1.943   6.528   1.196 -0.5159 -0.2838  1.3332
32873SOL     OW10343   8.986  13.320  10.144 -0.4758  0.1794  0.4664
32873SOL    HW110344   8.968  13.243  10.199  1.5000  0.7785  2.0576
32873SOL    HW210345   8.998  13.284  10.056  0.5248 -1.3836  1.1996
32874SOL     OW10346   3.749   9.972   2.565 -0.0767  0.4680 -0.3043
32874SOL    HW110347   3.826   9.942   2.516  0.7588  0.6987  0.8349
32874SOL    HW210348   3.767  10.064   2.584 -0.4511  0.4193  0.2963
32875SOL     OW10349   9.828   1.742   6.057  0.4373  1.1608 -0.0506
32875SOL    HW110350   9.793   1.699   5.979  2.4285  2.0529 -1.5282
32875SOL    HW210351   9.761   1.807   6.081 -1.2012 -0.5840  0.3932
32876SOL     OW10352   2.849   9.517  10.445  0.0953  0.1426  0.5007
32876SOL    HW110353   2.944   9.505  10.444  0.1255  0.3123 -0.9380
32876SOL    HW210354   2.818   9.457  10.513  1.1964 -0.1356  0.7836
32877SOL     OW10355  12.963   1.477  13.415 -0.1830  0.1411  0.6506
32877SOL    HW110356  12.997   1.387  13.408  0.2743  0.2028  1.7811
32877SOL    HW210357  13.037   1.527  13.449  0.0370  1.2781 -1.3659
32878SOL     OW10358   0.084   3.894   4.400  0.1858 -0.2618 -0.5925
32878SOL    HW110359   0.027   3.923   4.471  1.0476  0.5833 -0.2285
32878SOL    HW210360   0.135   3.972   4.377  1.0865 -0.9594 -1.0189
32879SOL     OW10361   4.504   3.488   9.938  0.3143  0.2122  0.0176
32879SOL    HW110362   4.530   3.559   9.998  1.8386  0.6876 -1.1505
32879SOL    HW210363   4.584   3.438   9.924 -0.4606 -1.0007 -0.1779
32880SOL     OW10364   3.094   7.818   8.450 -0.3054 -0.0822 -0.3257
32880SOL    HW110365   3.138   7.773   8.378  0.7109  0.9376 -0.3587
32880SOL    HW210366   3.107   7.911   8.433 -2.1168  0.2625 -0.0916
32881SOL     OW10367   4.467   2.578  11.713 -0.3269 -0.2880 -0.1074
32881SOL    HW110368   4.466   2.654  11.772  1.7622 -0.0465 -0.3181
32881SOL    HW210369   4.426   2.610  11.633  2.3459  1.3701 -0.9502
32882SOL     OW10370   7.154  13.247   0.049  0.2080 -0.6545 -0.3695
32882SOL    HW110371   7.132  13.221   0.139  0.4897 -1.5439 -0.5443
32882SOL    HW210372   7.131  13.339   0.044  1.8996 -0.0973  1.1701
32883SOL     OW10373  11.775  12.707   9.158 -0.0771  0.5316 -0.8022
32883SOL    HW110374  11.839  12.766   9.198 -0.1246  0.0054  0.0906
32883SOL    HW210375  11.720  12.764   9.104 -1.3025  1.6765  1.4737
32884SOL     OW10376   3.642   1.281   8.439  0.1851 -1.0288  0.3850
32884SOL    HW110377   3.548   1.287   8.428  0.2592 -2.4248 -1.3985
32884SOL    HW210378   3.662   1.344   8.508 -2.4304 -2.9154  3.1295
32885SOL     OW10379   7.896   3.923   8.801 -0.0681  0.1766  0.1197
32885SOL    HW110380   7.802   3.928   8.818 -0.7000 -0.9310 -2.4642
32885SOL    HW210381   7.905   3.952   8.710  2.2084  0.9984  0.5691
32886SOL     OW10382   5.589   4.155   8.254  0.0753 -0.7927 -0.1713
32886SOL    HW110383   5.538   4.182   8.330 -1.1103 -0.5879 -1.0205
32886SOL    HW210384   5.526   4.114   8.195  0.6602  0.4227 -1.7216
32887SOL     OW10385   2.324   8.355  10.918 -0.3938  0.3857 -0.1260
32887SOL    HW110386   2.363   8.390  10.998  0.4954 -2.9875  1.0887
32887SOL    HW210387   2.392   8.300  10.880 -2.0665 -1.1177 -1.0837
32888SOL     OW10388   4.525   9.672   7.194  0.4823 -0.5891 -0.0080
32888SOL    HW110389   4.499   9.654   7.104  0.1773 -1.1487  0.1823
32888SOL    HW210390   4.608   9.720   7.187  0.2345 -0.2414 -0.5883
32889SOL     OW10391  12.977   6.040  11.778 -0.1078 -0.0807  0.8626
32889SOL    HW110392  12.893   6.086  11.780 -1.0271 -1.3354 -2.0506
32889SOL    HW210393  12.973   5.980  11.852 -2.5451 -1.1909 -0.0487
32890SOL     OW10394   9.424   8.727   7.638 -0.1677  0.0065  0.3612
32890SOL    HW110395   9.435   8.763   7.550 -0.8594 -2.9182 -1.0570
32890SOL    HW210396   9.491   8.660   7.645 -0.3806 -0.0777  1.9497
32891SOL     OW10397   5.883   3.473   7.843 -0.1497 -0.3401  0.1140
32891SOL    HW110398   5.854   3.421   7.768  1.1651  1.3018 -1.6418
32891SOL    HW210399   5.804   3.518   7.872 -0.6234 -0.7409 -0.5059
32892SOL     OW10400   9.292   0.964   4.695 -0.0899  0.1510 -0.0527
32892SOL    HW110401   9.232   1.006   4.634 -0.2244  0.4199  0.2668
32892SOL    HW210402   9.270   1.000   4.780  1.7684  1.6995 -0.1565
32893SOL     OW10403  12.426   3.827  10.004 -0.0294  0.0155 -0.4892
32893SOL    HW110404  12.494   3.765   9.979 -2.6441 -2.1354 -2.8881
32893SOL    HW210405  12.384   3.787  10.079 -0.5373 -0.1730 -0.8731
32894SOL     OW10406  13.681   4.120  10.914 -0.4237  0.0012 -0.0904
32894SOL    HW110407  13.735   4.086  10.843  2.0841  1.5196  0.9193
32894SOL    HW210408  13.592   4.119  10.879  0.2282 -2.3811 -1.9816
32895SOL     OW10409   9.394   3.808  10.601  0.3698  0.8121  0.4099
32895SOL    HW110410   9.315   3.789  10.652 -1.1565 -0.1491 -2.1287
32895SOL    HW210411   9.445   3.868  10.656 -2.5946  2.3123  1.7255
32896SOL     OW10412   4.829   2.814   7.210  0.1383 -1.0659  0.0679
32896SOL    HW110413   4.834   2.719   7.225 -0.3772 -1.0676  0.2641
32896SOL    HW210414   4.741   2.828   7.176  0.2995 -0.6871 -0.1977
32897SOL     OW10415   7.045   7.784   7.600  0.1401  1.0765 -0.3541
32897SOL    HW110416   7.095   7.703   7.597  0.4753  1.2950 -1.0570
32897SOL    HW210417   7.026   7.804   7.508 -2.1213  0.4675 -0.0846
32898SOL     OW10418   8.702   4.858   3.420 -0.4138  0.3998  0.3502
32898SOL    HW110419   8.644   4.838   3.347 -0.1284  0.9002 -0.0216
32898SOL    HW210420   8.722   4.773   3.459 -0.0928  0.0671 -0.5271
32899SOL     OW10421   9.375  12.573   6.211 -0.1357  0.0676  0.1079
32899SOL    HW110422   9.449  12.533   6.257  0.3174 -0.3425 -0.9537
32899SOL    HW210423   9.341  12.504   6.155 -1.1127  0.3635  0.3200
32900SOL     OW10424   2.432   2.545   4.526  0.1573 -0.2129 -0.7285
32900SOL    HW110425   2.495   2.602   4.482  1.4575 -1.2342 -0.2459
32900SOL    HW210426   2.347   2.588   4.513  1.1304  2.1009  0.0438
32901SOL     OW10427  10.713   5.237   5.038 -0.5592  0.1116  0.5110
32901SOL    HW110428  10.690   5.191   4.957  5.4169  0.1068 -1.6406
32901SOL    HW210429  10.742   5.168   5.097  2.7187  0.4527 -0.5224
32902SOL     OW10430   2.897   5.640  13.403  0.3575 -0.2693 -0.5435
32902SOL    HW110431   2.827   5.604  13.348  1.0712 -1.0071 -0.9948
32902SOL    HW210432   2.973   5.587  13.382  1.3808  1.2965 -0.9809
32903SOL     OW10433   1.964   9.160   6.126  0.0140  0.1883  0.4316
32903SOL    HW110434   1.988   9.245   6.090 -0.8262  0.0802 -0.3970
32903SOL    HW210435   1.983   9.168   6.220  1.3130  0.7866  0.1457
32904SOL     OW10436   1.784  13.567   2.165 -0.0143 -0.4169 -0.6838
32904SOL    HW110437   1.773  13.484   2.120 -1.7487  0.0638 -1.2146
32904SOL    HW210438   1.712  13.622   2.134  0.0899  0.7167  0.9215
32905SOL     OW10439   4.276   2.112  10.153 -0.0828  0.3847 -0.4887
32905SOL    HW110440   4.333   2.035  10.155  1.1589  1.2401 -1.3482
32905SOL    HW210441   4.188   2.077  10.168  0.3061 -1.3534 -1.8262
32906SOL     OW10442  13.595   1.188   2.604 -0.1055 -0.0855  0.4556
32906SOL    HW110443  13.527   1.196   2.538  0.3254  1.2492  0.1455
32906SOL    HW210444  13.627   1.098   2.596 -0.9126 -0.3093 -0.2914
32907SOL     OW10445   8.399   3.685  11.211 -0.4440  0.8145 -0.2775
32907SOL    HW110446   8.326   3.733  11.174  0.6110  2.8071  0.0860
32907SOL    HW210447   8.470   3.695  11.148 -0.0316  0.1498  0.0585
32908SOL     OW10448   0.707   0.694   6.286  0.0729 -0.0648  0.0384
32908SOL    HW110449   0.701   0.669   6.193 -0.5504 -0.5917  0.2105
32908SOL    HW210450   0.781   0.754   6.290  1.1495 -1.2952 -0.5422
32909SOL     OW10451   5.221   8.814   7.535 -0.4254 -0.6498  0.1626
32909SOL    HW110452   5.294   8.863   7.571 -1.7772  1.9243 -0.3416
32909SOL    HW210453   5.241   8.805   7.442 -0.8801  0.3934 -0.0501
32910SOL     OW10454   7.597  11.532  12.327  0.3001  0.3868 -0.1864
32910SOL    HW110455   7.685  11.498  12.345  0.0485 -0.2576 -0.1324
32910SOL    HW210456   7.609  11.595  12.257  0.7139 -0.2143 -0.6620
32911SOL     OW10457  10.711   9.445   1.972 -0.4365  0.4500  0.2065
32911SOL    HW110458  10.692   9.362   1.928 -1.7605  0.8467 -0.0082
32911SOL    HW210459  10.760   9.496   1.908  0.1899 -0.0849  0.2595
32912SOL     OW10460   1.924  12.673  13.022 -0.1073  0.3102 -0.7221
32912SOL    HW110461   1.992  12.685  12.956 -0.1867  1.4587 -0.6057
32912SOL    HW210462   1.860  12.616  12.979  0.4769 -0.0319 -1.1580
32913SOL     OW10463   2.551   2.649   0.093  0.0518 -0.1495 -0.3155
32913SOL    HW110464   2.630   2.629   0.142  0.7940  0.7600 -1.0982
32913SOL    HW210465   2.481   2.643   0.158  0.4761 -2.7393  0.0236
32914SOL     OW10466   6.017  13.539   4.976 -0.0949 -0.3028 -0.1482
32914SOL    HW110467   5.984  13.582   4.897  0.8820 -0.8355 -0.8701
32914SOL    HW210468   5.961  13.572   5.046  0.0464  1.4610 -0.7983
32915SOL     OW10469   7.500   0.143   5.641  0.3047 -0.8861  0.1951
32915SOL    HW110470   7.463   0.068   5.687 -0.8169 -1.3390 -1.3444
32915SOL    HW210471   7.442   0.216   5.665  0.2698 -0.9253  0.2313
32916SOL     OW10472  12.614   6.997   3.020  0.5401 -0.4520  0.1089
32916SOL    HW110473  12.620   7.056   2.945  1.6228  0.1707  0.6635
32916SOL    HW210474  12.547   6.933   2.995 -0.2214  0.6443 -0.7523
32917SOL     OW10475  13.028   8.356   5.189  0.3381 -0.1219 -0.5285
32917SOL    HW110476  12.946   8.406   5.184  0.3484  0.2917  2.0407
32917SOL    HW210477  13.097   8.422   5.177  0.3199 -0.1282 -0.6736
32918SOL     OW10478   9.546  11.937   7.317 -0.2916  0.3053 -0.0351
32918SOL    HW110479   9.603  11.951   7.241 -0.3076 -1.8979 -0.5260
32918SOL    HW210480   9.495  11.859   7.294 -0.9955  0.1644  1.8385
32919SOL     OW10481   9.926   6.639  10.296 -0.4819  0.3349  0.7264
32919SOL    HW110482   9.979   6.590  10.360  2.0043  0.9882 -0.6897
32919SOL    HW210483   9.836   6.621  10.321  0.3111 -3.3774  1.4666
32920SOL     OW10484   7.736  11.627   3.003  0.0945 -0.2293  0.0429
32920SOL    HW110485   7.780  11.579   3.073  0.3420  2.2377  1.6941
32920SOL    HW210486   7.645  11.635   3.032 -0.0097  0.0392 -0.3437
32921SOL     OW10487   9.270   0.944  13.506 -0.4120  0.2423 -0.3016
32921SOL    HW110488   9.269   0.864  13.558 -0.9748 -0.6502 -1.6397
32921SOL    HW210489   9.199   0.933  13.443  0.7459  0.9112 -1.7853
32922SOL     OW10490   5.333   3.439   4.024  0.0251  0.5338 -0.6197
32922SOL    HW110491   5.376   3.516   3.987  0.3274 -0.4476 -2.4291
32922SOL    HW210492   5.246   3.439   3.985  0.3868 -0.5865 -1.4654
32923SOL     OW10493  11.300   7.580   4.332  0.7455 -0.9540 -0.0284
32923SOL    HW110494  11.271   7.489   4.331  2.0445 -1.3987  0.6116
32923SOL    HW210495  11.337   7.592   4.419 -0.4256  0.5411  0.3098
32924SOL     OW10496   2.820  10.736   5.356  0.4607  0.0726 -0.5881
32924SOL    HW110497   2.867  10.655   5.337 -1.3624 -1.1436 -0.2250
32924SOL    HW210498   2.846  10.760   5.445  2.6443  1.1514 -1.4331
32925SOL     OW10499  12.231  12.231   4.231 -0.7615  0.9714 -0.7862
32925SOL    HW110500  12.208  12.311   4.184 -1.0255  1.0466 -0.5291
32925SOL    HW210501  12.213  12.161   4.168  0.1935  1.1594 -1.2783
32926SOL     OW10502   3.318   6.893   6.152  0.2529  0.2412  0.0863
32926SOL    HW110503   3.230   6.930   6.153  0.3998  0.6332 -0.5391
32926SOL    HW210504   3.363   6.937   6.224  0.1172  0.5184  0.0056
32927SOL     OW10505   0.929   0.964   7.267  0.7240 -0.9122 -0.0209
32927SOL    HW110506   0.949   1.044   7.220  0.1515 -0.2702  0.8013
32927SOL    HW210507   0.870   0.916   7.209  0.3553 -0.3234 -0.1343
32928SOL     OW10508   7.361   5.224   5.937 -0.0190  0.3036  0.4335
32928SOL    HW110509   7.409   5.302   5.911  2.5789 -1.2836  0.1061
32928SOL    HW210510   7.275   5.256   5.963  1.0850  3.3026  0.7416
32929SOL     OW10511   6.128  10.161  12.966 -0.4472  0.9270 -0.1828
32929SOL    HW110512   6.095  10.077  12.933  0.6423  0.5200 -0.2617
32929SOL    HW210513   6.140  10.146  13.059  1.7676  0.2807 -0.5184
32930SOL     OW10514   5.752  12.310   2.060  0.3613 -0.1467  0.4219
32930SOL    HW110515   5.778  12.290   2.150 -2.7190 -1.4757  1.1784
32930SOL    HW210516   5.684  12.376   2.069 -0.5974 -0.9165 -0.8209
32931SOL     OW10517  13.411  11.815  12.188 -0.1011  0.1532  0.0799
32931SOL    HW110518  13.325  11.783  12.217  0.2025  0.3930  1.2880
32931SOL    HW210519  13.471  11.788  12.257  0.5212  1.4450  0.0717
32932SOL     OW10520   6.824   8.995   4.962 -0.3019 -0.4363 -0.4493
32932SOL    HW110521   6.786   9.069   4.914 -0.5623 -1.1344 -1.3476
32932SOL    HW210522   6.912   8.984   4.924  0.3947  0.4482  0.8326
32933SOL     OW10523   0.375   2.658   5.195 -0.8596  0.8529 -0.0190
32933SOL    HW110524   0.443   2.624   5.137 -0.1853 -0.5930  1.5349
32933SOL    HW210525   0.323   2.582   5.219 -0.7455  1.2796  1.7158
32934SOL     OW10526  11.040   2.561   1.513  0.0998  0.5853  0.1672
32934SOL    HW110527  10.979   2.566   1.439  0.0650 -1.7383 -0.0508
32934SOL    HW210528  11.097   2.637   1.502  2.4411 -1.4118 -4.5182
32935SOL     OW10529   7.144   7.299   0.054 -0.0493 -0.0987 -0.0344
32935SOL    HW110530   7.175   7.387   0.073  0.8664 -0.4177 -0.0259
32935SOL    HW210531   7.065   7.289   0.108  1.2369 -0.1816  1.9183
32936SOL     OW10532  12.138   1.368  13.348  0.4504  0.6091 -0.1198
32936SOL    HW110533  12.073   1.350  13.280  1.6567  0.9625 -1.4130
32936SOL    HW210534  12.184   1.447  13.318  1.8225  0.0810  0.4859
32937SOL     OW10535   9.544  12.864   5.811 -0.0810  0.1529  0.0919
32937SOL    HW110536   9.639  12.881   5.815  0.5302 -2.4082 -1.4795
32937SOL    HW210537   9.522  12.835   5.900  1.1606 -1.4616 -0.0701
32938SOL     OW10538   4.236   2.821  11.906  0.2068 -0.0476  0.3960
32938SOL    HW110539   4.302   2.753  11.911  0.8018  0.3591 -1.3169
32938SOL    HW210540   4.198   2.824  11.994  2.6477 -0.0979  1.5278
32939SOL     OW10541   8.429  12.655   0.512  0.4275  0.1109 -0.3505
32939SOL    HW110542   8.394  12.606   0.437 -1.9239  1.2063 -0.0656
32939SOL    HW210543   8.384  12.617   0.588 -0.9573  2.1875 -0.0632
32940SOL     OW10544   0.412   2.009   7.640 -0.2535  0.2022  0.1793
32940SOL    HW110545   0.368   2.060   7.572  0.0552  0.8253  0.4343
32940SOL    HW210546   0.442   2.075   7.703  0.7051 -0.2296  0.1952
32941SOL     OW10547   6.610   1.587   1.453  0.1477  0.0682  0.1542
32941SOL    HW110548   6.681   1.649   1.436  0.4371  0.2867  1.9535
32941SOL    HW210549   6.594   1.594   1.547 -0.5948 -1.7736  0.2097
32942SOL     OW10550   6.533   1.117   0.177  0.4484 -0.6883 -1.3237
32942SOL    HW110551   6.559   1.192   0.124 -0.3903  1.8208  1.5037
32942SOL    HW210552   6.615   1.085   0.214  0.6226  0.3778 -0.7338
32943SOL     OW10553   2.894   6.670   6.611  0.1207 -0.1972 -0.6892
32943SOL    HW110554   2.889   6.576   6.591 -0.7807 -0.1478 -0.7280
32943SOL    HW210555   2.916   6.711   6.527  1.1300 -0.4149 -0.5482
32944SOL     OW10556   8.355   8.110  13.195 -0.0014 -0.3284  0.6263
32944SOL    HW110557   8.309   8.084  13.115 -2.4914 -0.1597  1.9030
32944SOL    HW210558   8.395   8.194  13.173  0.9869 -1.1559 -0.9684
32945SOL     OW10559   1.674   6.706   0.696 -0.1388  0.2068 -0.0473
32945SOL    HW110560   1.649   6.706   0.788  0.1678  0.0101  0.0384
32945SOL    HW210561   1.684   6.798   0.673  2.1026  0.2167  0.7576
32946SOL     OW10562   1.841   3.510   8.557  0.1729  0.4160  0.3958
32946SOL    HW110563   1.823   3.588   8.609  2.5951  1.0232  0.4420
32946SOL    HW210564   1.816   3.534   8.468  1.4480  1.5096  0.3013
32947SOL     OW10565  11.098  10.923   7.328 -0.2696 -0.8094 -0.1598
32947SOL    HW110566  11.018  10.911   7.278 -1.1119  0.0676  0.9220
32947SOL    HW210567  11.168  10.904   7.266 -1.2730  0.0218 -1.6062
32948SOL     OW10568   1.471   5.275   8.545  0.6790 -0.2781  0.4207
32948SOL    HW110569   1.457   5.368   8.526 -1.5325 -0.4552  0.8878
32948SOL    HW210570   1.511   5.274   8.632  0.5782  0.2459  0.4740
32949SOL     OW10571  12.315   4.882   4.194  0.2764  0.2247 -0.4920
32949SOL    HW110572  12.278   4.864   4.108  1.0308  0.2570 -0.8366
32949SOL    HW210573  12.404   4.848   4.189  0.7026  1.2478 -0.1100
32950SOL     OW10574   5.755   0.715   9.239  0.2362  0.2698  0.2996
32950SOL    HW110575   5.697   0.639   9.235 -0.0350  0.4044  1.2653
32950SOL    HW210576   5.841   0.679   9.262  0.3581  0.1565 -0.3089
32951SOL     OW10577  10.569   1.500   5.967 -0.2904 -0.3181  0.1849
32951SOL    HW110578  10.511   1.506   6.042 -0.1858 -1.0709  0.3322
32951SOL    HW210579  10.545   1.575   5.912  0.6028  1.0978  1.6229
32952SOL     OW10580   4.800   2.523  10.969 -0.0194 -0.0064  0.6291
32952SOL    HW110581   4.865   2.553  11.031 -0.8759 -0.4976  1.8038
32952SOL    HW210582   4.734   2.478  11.022 -3.0827  3.2711  0.0110
32953SOL     OW10583   7.366  11.265   0.715  0.5234 -0.4303 -0.4490
32953SOL    HW110584   7.334  11.297   0.799  0.9676 -1.6075  0.2021
32953SOL    HW210585   7.360  11.169   0.722 -2.4501 -0.5868 -2.9540
32954SOL     OW10586  13.490  11.191   9.570  0.3778 -0.4587  0.0783
32954SOL    HW110587  13.502  11.233   9.485 -0.0594 -0.1301  0.1763
32954SOL    HW210588  13.399  11.162   9.571 -0.2329  1.3211  1.1975
32955SOL     OW10589   4.762   9.322   3.358 -0.1549  0.1070  0.3453
32955SOL    HW110590   4.810   9.313   3.441 -0.9557 -1.4167  0.6789
32955SOL    HW210591   4.675   9.352   3.385 -0.5643 -0.8416  0.1264
32956SOL     OW10592   9.870   7.821   3.595  0.4541 -0.2019  0.7016
32956SOL    HW110593   9.837   7.809   3.505 -1.8894 -0.0465  1.4549
32956SOL    HW210594   9.836   7.745   3.642 -1.2229  1.3630  2.1446
32957SOL     OW10595   5.052   4.574  11.506 -0.4541 -0.7657 -0.3255
32957SOL    HW110596   4.991   4.623  11.451 -0.0786  1.0351  0.8039
32957SOL    HW210597   5.137   4.585  11.463  0.0389  1.5648  1.0940
32958SOL     OW10598  13.162   4.865   6.556  0.3214  0.3138 -0.1565
32958SOL    HW110599  13.175   4.774   6.585 -1.0200  0.3892  0.7420
32958SOL    HW210600  13.251   4.900   6.548  0.8488 -0.9560 -0.1497
32959SOL     OW10601   6.333   3.050   1.570  0.3996  0.0046  0.3099
32959SOL    HW110602   6.340   3.110   1.495  2.5103 -0.4801  0.0430
32959SOL    HW210603   6.416   3.003   1.569 -0.6733 -1.9911  1.3187
32960SOL     OW10604   2.583   5.121   7.205  0.7489 -0.2619  0.0236
32960SOL    HW110605   2.654   5.157   7.258  2.5816 -0.0931 -2.3696
32960SOL    HW210606   2.549   5.048   7.257  2.0369  0.2476  1.6666
32961SOL     OW10607   9.852   3.165   4.587 -0.2768 -0.0112 -0.5316
32961SOL    HW110608   9.927   3.171   4.529  1.1010  0.5729  1.2137
32961SOL    HW210609   9.883   3.201   4.670 -2.3868 -0.0848  0.3529
32962SOL     OW10610   4.089   1.348  10.920 -0.1050  1.1975  0.1377
32962SOL    HW110611   4.063   1.414  10.984  0.2755  0.2281  1.3226
32962SOL    HW210612   4.176   1.376  10.892  1.2120 -0.1080  2.5755
32963SOL     OW10613   3.445   7.480   7.232  0.2818  0.7532 -0.3873
32963SOL    HW110614   3.361   7.510   7.198  0.1650 -1.6467 -2.5468
32963SOL    HW210615   3.423   7.426   7.308 -0.2999 -0.5130 -1.4007
32964SOL     OW10616  10.896   0.358   7.423  0.1033 -0.3729  0.0479
32964SOL    HW110617  10.911   0.443   7.462 -0.4410 -0.4357  0.4067
32964SOL    HW210618  10.937   0.296   7.483  0.2188 -0.3866 -0.0459
32965SOL     OW10619   7.566  11.167   0.389  0.3281 -0.6448  0.7118
32965SOL    HW110620   7.508  11.154   0.314 -0.5965 -1.8494  1.6096
32965SOL    HW210621   7.529  11.112   0.458 -0.0842  1.9827  2.7406
32966SOL     OW10622   4.550   2.148   5.397 -0.4842 -0.3472 -0.5059
32966SOL    HW110623   4.594   2.103   5.469 -1.0320  1.6248  1.1581
32966SOL    HW210624   4.482   2.086   5.368 -0.2901 -1.1568  0.6959
32967SOL     OW10625   8.303   2.634   2.167 -0.3345 -0.1298  0.3763
32967SOL    HW110626   8.268   2.573   2.102  0.4211 -1.5398  1.2299
32967SOL    HW210627   8.333   2.578   2.239 -0.8174  1.3460  1.8020
32968SOL     OW10628   2.928  13.374   6.540  0.2901  0.4219 -0.2679
32968SOL    HW110629   3.004  13.320   6.560  0.5817  0.5547 -0.9643
32968SOL    HW210630   2.965  13.457   6.510 -0.1523  1.0291  0.8190
32969SOL     OW10631   5.641  11.872  10.792  0.2587  0.1429  0.6209
32969SOL    HW110632   5.603  11.866  10.879 -2.2541  1.2768 -0.2893
32969SOL    HW210633   5.622  11.787  10.751 -1.7512  0.7955  0.0752
32970SOL     OW10634  10.506   2.804   1.483  0.0756 -0.3795  0.0598
32970SOL    HW110635  10.463   2.857   1.550  0.3384  0.5206 -0.4642
32970SOL    HW210636  10.517   2.718   1.524 -1.5440 -0.4260  0.4553
32971SOL     OW10637  13.001  13.608  12.440  0.6823  0.4474  0.3121
32971SOL    HW110638  12.923  13.656  12.411  0.5344  0.1508  0.2093
32971SOL    HW210639  12.992  13.521  12.400 -1.1996 -1.1577  3.7317
32972SOL     OW10640   2.010   5.157   4.996 -0.0747 -0.0731 -0.0127
32972SOL    HW110641   1.983   5.151   4.905 -0.4995 -0.3056  0.1272
32972SOL    HW210642   2.081   5.221   4.996  2.1620 -2.4384 -0.9772
32973SOL     OW10643   1.963   4.456  11.090  0.1330  0.1443  0.4373
32973SOL    HW110644   1.977   4.543  11.128  1.5212  1.1243 -2.0443
32973SOL    HW210645   2.011   4.458  11.007  1.0043 -3.3460  0.6897
32974SOL     OW10646   8.341  10.248   6.190 -0.1401 -0.5257 -0.0436
32974SOL    HW110647   8.324  10.233   6.097  0.2376  1.0768 -0.4058
32974SOL    HW210648   8.430  10.215   6.204  0.2933  0.3744 -0.5743
32975SOL     OW10649   3.897   3.392   4.055 -0.3617  0.4590  0.1422
32975SOL    HW110650   3.975   3.447   4.064  0.0081 -0.1301  0.7334
32975SOL    HW210651   3.928   3.315   4.006 -0.5104  0.1260  0.5584
32976SOL     OW10652   5.129   0.018   5.510  0.1991 -0.0297 -0.1721
32976SOL    HW110653   5.076  -0.016   5.438  2.5769 -2.1611 -1.0634
32976SOL    HW210654   5.066   0.056   5.571 -1.9501  2.2184 -3.4325
32977SOL     OW10655  12.198   3.739   6.066  0.8436  0.1451 -0.3416
32977SOL    HW110656  12.257   3.753   5.993 -0.2515 -1.2498 -1.5654
32977SOL    HW210657  12.148   3.821   6.073  1.2964  0.4666 -0.8260
32978SOL     OW10658   9.672   6.623   6.339 -0.4419  0.4168  0.0427
32978SOL    HW110659   9.708   6.636   6.252 -0.8837  0.0083 -0.2044
32978SOL    HW210660   9.701   6.535   6.364 -1.1040  0.1585 -0.0830
32979SOL     OW10661  12.132   5.147   2.206  0.3221  0.0130  0.1413
32979SOL    HW110662  12.204   5.164   2.145  1.3934 -3.0191  0.3828
32979SOL    HW210663  12.173   5.100   2.279 -1.8083 -1.4105  0.5155
32980SOL     OW10664   4.046   4.082   7.356 -0.1849 -0.3532  0.2930
32980SOL    HW110665   4.063   4.000   7.308 -0.8161  0.3682 -1.2225
32980SOL    HW210666   3.952   4.082   7.371 -0.3266  0.5261 -0.5473
32981SOL     OW10667  11.956  11.574   1.591 -0.5270  0.3383  0.2430
32981SOL    HW110668  11.875  11.559   1.640 -0.9174  1.6127  0.0359
32981SOL    HW210669  12.026  11.550   1.651 -1.0370  0.4107  0.8749
32982SOL     OW10670   4.276   9.257   2.682 -0.0054 -0.5431 -0.0447
32982SOL    HW110671   4.271   9.272   2.776  0.5561 -0.0370 -0.0880
32982SOL    HW210672   4.310   9.168   2.674 -0.3771 -0.7108  0.2298
32983SOL     OW10673  12.694   0.306   4.392 -0.3482 -0.2056 -0.9744
32983SOL    HW110674  12.704   0.295   4.298  1.2191  0.0186 -0.8745
32983SOL    HW210675  12.661   0.221   4.423  0.6477 -0.8238 -1.5430
32984SOL     OW10676  13.196   0.275   5.197 -0.6689  0.7754 -0.1421
32984SOL    HW110677  13.108   0.303   5.174 -0.3458  1.6478 -0.3725
32984SOL    HW210678  13.245   0.284   5.115 -0.4056  0.1502 -0.0530
32985SOL     OW10679   8.849   8.851   9.315  0.3618 -0.1152  0.1052
32985SOL    HW110680   8.873   8.783   9.378 -0.3832 -1.8422 -1.3772
32985SOL    HW210681   8.932   8.880   9.279  0.7794  0.7014  1.6325
32986SOL     OW10682  12.163  10.478  11.468  0.1053 -0.9567 -0.0155
32986SOL    HW110683  12.183  10.567  11.441 -1.1399 -0.8886 -0.7505
32986SOL    HW210684  12.141  10.432  11.387  1.0997 -2.0482  0.3018
32987SOL     OW10685   6.339   9.859  11.846 -0.1870 -0.9752  0.0147
32987SOL    HW110686   6.311   9.798  11.914 -0.8038 -0.7586 -0.0433
32987SOL    HW210687   6.422   9.894  11.878  0.3407 -2.0630 -0.0901
32988SOL     OW10688   7.871   1.888   7.128  0.1487  0.3412 -0.5962
32988SOL    HW110689   7.848   1.882   7.035 -0.0180  1.4658 -0.6377
32988SOL    HW210690   7.823   1.816   7.169 -1.3777  1.0446 -1.0860
32989SOL     OW10691  11.137   4.748  11.193 -0.0969  0.8173  0.2204
32989SOL    HW110692  11.113   4.828  11.148  0.6730 -0.4861 -2.7547
32989SOL    HW210693  11.231   4.739  11.178  0.0163 -0.1933  1.3377
32990SOL     OW10694  11.369   1.265   1.159  0.4568 -0.1892  0.1634
32990SOL    HW110695  11.343   1.215   1.237  0.5648 -1.8035 -0.8005
32990SOL    HW210696  11.286   1.296   1.123  0.4097  0.6464  0.9353
32991SOL     OW10697  10.877   9.609   2.735 -0.5092  0.3215 -0.2022
32991SOL    HW110698  10.904   9.594   2.644  1.8299 -0.8843  0.6225
32991SOL    HW210699  10.943   9.668   2.770 -0.7424 -0.1170  1.0274
32992SOL     OW10700   9.878  10.359   1.811 -0.0516  0.5008  0.7622
32992SOL    HW110701   9.924  10.305   1.747 -0.3115  0.5524  0.5289
32992SOL    HW210702   9.918  10.446   1.802 -0.0967  0.5118  0.6568
32993SOL     OW10703  10.933   7.152   4.555  0.0935  0.4577 -0.0270
32993SOL    HW110704  10.864   7.214   4.531 -0.1635 -0.1726 -0.9878
32993SOL    HW210705  10.887   7.069   4.569  0.5850  0.1704 -0.0939
32994SOL     OW10706   7.541   2.496   8.090  0.1592 -0.5744  0.2090
32994SOL    HW110707   7.552   2.589   8.071  0.5072 -0.0312  2.7664
32994SOL    HW210708   7.630   2.465   8.112 -0.3892 -0.7226  2.4123
32995SOL     OW10709  10.726   9.367   5.310  0.0902  0.1511  0.0022
32995SOL    HW110710  10.647   9.345   5.360 -0.0141 -0.0331 -0.2392
32995SOL    HW210711  10.733   9.297   5.245  0.6990 -0.0679  0.2985
32996SOL     OW10712   4.118   9.406   5.332 -0.5249  0.2092 -0.5224
32996SOL    HW110713   4.125   9.357   5.415 -0.0235 -1.6054 -1.5743
32996SOL    HW210714   4.201   9.389   5.287 -0.9917  0.7502 -1.6255
32997SOL     OW10715   4.156   6.243   0.910 -0.5206  0.3660 -0.1916
32997SOL    HW110716   4.109   6.237   0.827 -2.4119  0.5234  0.8194
32997SOL    HW210717   4.127   6.167   0.960 -0.0085  0.6795  0.6095
32998SOL     OW10718   4.287  13.359   4.513 -0.2162  0.0802 -0.3190
32998SOL    HW110719   4.301  13.350   4.607  0.1149  1.5495 -0.2018
32998SOL    HW210720   4.373  13.343   4.475 -0.4399 -0.9373 -0.4204
32999SOL     OW10721   0.477  10.115  10.372  0.2786  0.2502  0.2343
32999SOL    HW110722   0.392  10.157  10.388 -1.6644 -2.1128 -2.7629
32999SOL    HW210723   0.508  10.153  10.291 -0.0762 -1.8155 -0.9378
33000SOL     OW10724   9.804  10.397   3.475 -0.8402 -0.6859 -0.6201
33000SOL    HW110725   9.863  10.341   3.526 -1.0264 -0.8016 -0.5344
33000SOL    HW210726   9.850  10.410   3.392 -1.3525 -1.9895 -1.1299
33001SOL     OW10727  10.748   4.950   5.642 -0.2241  0.0042  0.2660
33001SOL    HW110728  10.775   4.860   5.622 -0.9532 -0.1132 -0.2234
33001SOL    HW210729  10.661   4.958   5.604  0.7396  1.6764 -1.7482
33002SOL     OW10730   4.236  12.947   7.736  0.5918 -0.2799  0.0476
33002SOL    HW110731   4.331  12.951   7.734  0.5567  0.8009 -0.2630
33002SOL    HW210732   4.208  13.032   7.700 -0.4871 -0.7940 -0.3546
33003SOL     OW10733   9.663   8.111   0.481  0.2845 -0.2665  0.6333
33003SOL    HW110734   9.568   8.099   0.481  0.2636 -0.1232 -0.4036
33003SOL    HW210735   9.675   8.205   0.495  0.2706 -0.2493  0.5270
33004SOL     OW10736   5.932   8.598   3.433  0.1930 -0.1281 -0.1958
33004SOL    HW110737   5.989   8.524   3.456  0.6606  0.2413 -0.1445
33004SOL    HW210738   5.859   8.558   3.386  0.3197 -0.6491  0.0399
33005SOL     OW10739   3.960   6.571   0.903 -0.2060 -0.3828  0.2857
33005SOL    HW110740   4.045   6.531   0.888  0.1579  0.8767 -1.2486
33005SOL    HW210741   3.948   6.567   0.998  1.9533  0.1775  0.6256
33006SOL     OW10742   6.383   0.897   3.344 -0.1604 -0.0740 -0.0638
33006SOL    HW110743   6.460   0.843   3.362  0.1352  0.1765 -0.5709
33006SOL    HW210744   6.358   0.874   3.255  0.1163  0.7990 -0.3725
33007SOL     OW10745  12.666  13.684   7.346  0.1956  0.0598  0.2324
33007SOL    HW110746  12.621  13.604   7.318 -1.5284  0.8436  0.6334
33007SOL    HW210747  12.734  13.653   7.406 -1.1553 -1.0574  1.2764
33008SOL     OW10748   3.399   3.385   4.095 -0.8004 -0.6540  0.0427
33008SOL    HW110749   3.366   3.341   4.174 -2.0756 -0.0495 -0.1297
33008SOL    HW210750   3.407   3.315   4.030 -2.8142 -0.7011 -0.2317
33009SOL     OW10751  12.303   0.519  13.593  0.3699  0.1813  0.3450
33009SOL    HW110752  12.289   0.526  13.687  2.0418 -0.5159  0.6681
33009SOL    HW210753  12.397   0.508  13.583  0.0326 -1.7863 -1.2750
33010SOL     OW10754   3.826  10.531  11.568 -0.3301  0.4092  0.2033
33010SOL    HW110755   3.870  10.448  11.585 -1.3321  0.1738  1.8587
33010SOL    HW210756   3.823  10.575  11.654  1.2496  2.7344 -0.8165
33011SOL     OW10757   6.408  10.292   0.011 -0.1583  0.0635  0.7400
33011SOL    HW110758   6.415  10.201  -0.018  1.0530  0.2336  0.4659
33011SOL    HW210759   6.322  10.320  -0.020 -0.1973 -0.7366  0.0830
33012SOL     OW10760   7.025  10.339   1.048  0.5840 -0.6737  0.0319
33012SOL    HW110761   6.962  10.300   1.109  1.4215 -2.5869 -0.2681
33012SOL    HW210762   6.987  10.323   0.961  0.5979 -0.1713 -0.0697
33013SOL     OW10763   3.890  11.970   9.172  0.2435 -0.2236  0.6379
33013SOL    HW110764   3.966  11.954   9.228 -0.6018 -1.2036  1.5482
33013SOL    HW210765   3.917  11.943   9.085  1.6507  1.4891  0.4774
33014SOL     OW10766   2.519   3.881   7.423  0.6552 -0.0217  0.0627
33014SOL    HW110767   2.550   3.961   7.465  0.5976 -0.9901  2.0696
33014SOL    HW210768   2.491   3.909   7.336  0.9230  2.0663  0.5920
33015SOL     OW10769   3.163   5.889   6.915  0.1721 -0.2340 -0.1143
33015SOL    HW110770   3.200   5.825   6.854 -0.9448 -1.3483  0.3253
33015SOL    HW210771   3.117   5.952   6.860  0.3151 -0.4668 -0.5019
33016SOL     OW10772   6.761   8.937  12.867 -0.0917  0.0057 -0.2736
33016SOL    HW110773   6.825   8.987  12.919 -0.7883  0.8215 -0.1803
33016SOL    HW210774   6.790   8.846  12.875  0.1040  0.1713  1.1336
33017SOL     OW10775  11.521   0.554   5.475  0.6097  0.4824 -0.0117
33017SOL    HW110776  11.545   0.597   5.393 -0.0722 -0.5554 -0.7809
33017SOL    HW210777  11.605   0.531   5.514  0.9486  0.0534 -0.9465
33018SOL     OW10778  12.458   3.138   1.619 -0.7005  0.3411  0.2319
33018SOL    HW110779  12.458   3.113   1.527  0.7431 -0.6149  0.4477
33018SOL    HW210780  12.425   3.060   1.665  0.9998 -0.1586  0.6863
33019SOL     OW10781   1.262  11.772   1.054  0.1079  0.6122  0.2345
33019SOL    HW110782   1.232  11.862   1.054 -1.5383  0.1562 -2.0915
33019SOL    HW210783   1.269  11.748   0.961  0.0666 -1.7605  0.7637
33020SOL     OW10784  13.074   0.007   5.681 -0.0688  0.4061 -0.3027
33020SOL    HW110785  13.047   0.099   5.687  0.3377  0.4544  2.4707
33020SOL    HW210786  13.158   0.010   5.635  1.0441  1.7987  1.6145
33021SOL     OW10787  10.279   8.701   4.955 -0.0923 -0.4089 -0.2505
33021SOL    HW110788  10.228   8.687   5.035 -0.4028  0.5372 -0.2718
33021SOL    HW210789  10.370   8.691   4.981 -0.0944  1.4679  0.5796
33022SOL     OW10790  10.286   5.909   2.984  0.4787 -0.2307  0.0371
33022SOL    HW110791  10.244   5.926   2.900 -0.6771  1.7409  0.9494
33022SOL    HW210792  10.370   5.954   2.979  1.1288 -1.4530 -0.5975
33023SOL     OW10793   1.637   0.626   5.045  0.0531 -0.1170 -0.6095
33023SOL    HW110794   1.636   0.674   5.128  0.4059 -2.4865  0.8884
33023SOL    HW210795   1.552   0.644   5.006 -0.2383  0.8434  0.3961
33024SOL     OW10796  10.821   0.576   8.653 -0.0334 -0.2518  0.3095
33024SOL    HW110797  10.737   0.541   8.684  1.3028 -1.5838  2.7294
33024SOL    HW210798  10.838   0.527   8.572 -0.6805 -1.4348  0.8539
33025SOL     OW10799   4.101  11.164  12.744  0.3312 -0.4393  0.4747
33025SOL    HW110800   4.113  11.185  12.651  2.1493  0.3814  0.8639
33025SOL    HW210801   4.146  11.080  12.755  2.1052  0.5438  1.0422
33026SOL     OW10802   2.851   7.350   3.751  0.4477 -0.0502  0.3568
33026SOL    HW110803   2.901   7.376   3.674 -1.2603  0.4365 -0.6551
33026SOL    HW210804   2.880   7.261   3.770  0.1435 -0.5899 -1.5344
33027SOL     OW10805  13.458   7.325   7.955  0.5348  0.0316 -0.2115
33027SOL    HW110806  13.412   7.270   7.891  0.4776 -1.1975  0.8421
33027SOL    HW210807  13.431   7.291   8.040  3.2960 -0.7146  0.4781
33028SOL     OW10808   2.516   7.547   6.739 -0.0480  0.5431  0.1069
33028SOL    HW110809   2.424   7.537   6.714  0.6132 -1.1892 -1.8969
33028SOL    HW210810   2.531   7.642   6.740 -1.5206  0.8171 -0.8463
33029SOL     OW10811  13.356   0.299   8.908 -0.3946  0.0811 -0.9036
33029SOL    HW110812  13.408   0.346   8.973 -0.5681  0.3175 -0.9347
33029SOL    HW210813  13.309   0.368   8.861  0.3250 -0.0254 -1.8087
33030SOL     OW10814   7.948  12.162   0.062 -0.0725 -0.0125 -0.0504
33030SOL    HW110815   7.993  12.079   0.078 -1.1619 -0.2323  2.2955
33030SOL    HW210816   7.975  12.218   0.135 -0.7713  1.0703 -0.6025
33031SOL     OW10817   5.241   9.657  11.326  0.2550  0.6204  0.1802
33031SOL    HW110818   5.276   9.676  11.239 -1.0134 -2.8171 -1.2547
33031SOL    HW210819   5.310   9.609  11.370  0.5302  1.5247  0.7774
33032SOL     OW10820   5.185   3.154   1.467 -0.3666  0.0349  0.7752
33032SOL    HW110821   5.215   3.064   1.481 -0.7388 -0.2343 -0.0500
33032SOL    HW210822   5.233   3.206   1.531 -0.2161 -0.7670  1.3247
33033SOL     OW10823   3.408   9.668   9.072 -0.1791  0.0388 -0.4174
33033SOL    HW110824   3.462   9.640   9.146 -1.5391 -1.4475  0.0704
33033SOL    HW210825   3.375   9.754   9.098  1.2992  0.6309 -0.3986
33034SOL     OW10826  11.304   0.601   2.141 -0.1128 -0.7026  0.0104
33034SOL    HW110827  11.298   0.594   2.237 -0.4379  1.9399  0.2610
33034SOL    HW210828  11.213   0.596   2.111  0.0283 -2.0666 -0.2485
33035SOL     OW10829   6.849  12.385  11.105 -0.1127 -0.2386 -0.2481
33035SOL    HW110830   6.893  12.328  11.167 -0.0768 -0.2163 -0.2531
33035SOL    HW210831   6.914  12.453  11.085 -0.2176 -0.0960 -0.1054
33036SOL     OW10832   8.984   6.223   4.547  0.0416 -0.1915 -0.2313
33036SOL    HW110833   8.987   6.260   4.459 -3.3184 -0.8552 -0.7504
33036SOL    HW210834   8.974   6.129   4.533 -2.0419 -0.1585  0.7610
33037SOL     OW10835   8.094   1.622   5.813 -0.1585 -0.5123 -0.1689
33037SOL    HW110836   8.163   1.561   5.840 -0.3104 -0.2268  0.8936
33037SOL    HW210837   8.017   1.595   5.862 -0.4869 -0.0708 -0.4332
33038SOL     OW10838  11.331   5.978   1.562  0.0304 -0.6432 -0.6134
33038SOL    HW110839  11.381   5.935   1.493 -0.5170 -0.3152 -1.2255
33038SOL    HW210840  11.283   5.907   1.604 -0.7491 -0.6761 -1.5186
33039SOL     OW10841   1.151   4.015   3.051 -0.5071 -0.4141 -0.0445
33039SOL    HW110842   1.066   3.971   3.059 -0.3058 -0.7234  0.4550
33039SOL    HW210843   1.162   4.030   2.957 -0.5571 -1.4655 -0.2236
33040SOL     OW10844   0.435   3.814   1.564  0.3330  0.3567  0.4502
33040SOL    HW110845   0.368   3.792   1.499  0.4586  0.5208  0.2629
33040SOL    HW210846   0.511   3.840   1.511 -0.0247  1.9156  0.6674
33041SOL     OW10847   0.440   5.374   3.528 -0.6844  0.5322 -0.4052
33041SOL    HW110848   0.462   5.466   3.514 -1.6070  1.2340  2.2087
33041SOL    HW210849   0.349   5.368   3.498 -0.5753  0.4180 -0.7184
33042SOL     OW10850   9.941   9.378   5.127 -0.5171  0.3621  0.1512
33042SOL    HW110851   9.993   9.456   5.144  0.0328  0.7677 -2.8053
33042SOL    HW210852   9.852   9.411   5.115 -0.4351  0.4381 -0.2697
33043SOL     OW10853  10.734   5.793   7.647  0.4534  0.0776  0.2076
33043SOL    HW110854  10.776   5.738   7.580  1.2420  0.8771  0.0203
33043SOL    HW210855  10.642   5.766   7.646  0.8453 -1.3741  0.2641
33044SOL     OW10856   3.010   2.305  10.114 -0.0916  0.7295 -0.3006
33044SOL    HW110857   2.958   2.375  10.075  0.2902  1.4742  0.4853
33044SOL    HW210858   2.959   2.276  10.189  1.1776  2.3938  1.2890
33045SOL     OW10859   1.958  12.697   2.396  0.1960 -0.1137  0.1379
33045SOL    HW110860   1.875  12.731   2.431  0.0712 -0.1305 -0.1426
33045SOL    HW210861   1.941  12.605   2.378  0.8599 -0.6406  1.9535
33046SOL     OW10862   5.260   1.048   6.423  0.0730  0.0905 -0.6923
33046SOL    HW110863   5.168   1.029   6.441  0.3580 -0.3622  0.3255
33046SOL    HW210864   5.262   1.068   6.329 -1.1617  0.7247 -0.6067
33047SOL     OW10865   6.476   4.192  12.731  0.2599 -0.0513  0.0022
33047SOL    HW110866   6.401   4.243  12.763 -0.0794 -0.7766  0.3878
33047SOL    HW210867   6.542   4.202  12.799  0.9351  1.4759 -0.8355
33048SOL     OW10868   7.662   7.802   9.100  0.2219  0.5951  0.0597
33048SOL    HW110869   7.634   7.861   9.030 -1.1575  0.6215  0.5867
33048SOL    HW210870   7.661   7.856   9.179 -1.4843 -0.1751  0.6219
33049SOL     OW10871   8.834  12.107   9.805 -0.1102  0.2809  0.1062
33049SOL    HW110872   8.775  12.045   9.849  0.8187  0.4994  1.7262
33049SOL    HW210873   8.918  12.061   9.799 -0.0350  0.5160 -0.8529
33050SOL     OW10874   0.436   6.779   8.716  0.2090  0.2520  0.1579
33050SOL    HW110875   0.491   6.857   8.707 -0.2333  0.3839 -1.6942
33050SOL    HW210876   0.348   6.809   8.692  0.2543 -1.0653 -1.9230
33051SOL     OW10877   0.625   9.437  13.138 -0.0319  0.0304  0.8302
33051SOL    HW110878   0.653   9.398  13.055 -1.9727  0.1567  0.0587
33051SOL    HW210879   0.680   9.516  13.146  0.1608  0.0478 -0.3617
33052SOL     OW10880  10.687   7.388   1.381 -0.1389 -0.0353 -0.1918
33052SOL    HW110881  10.649   7.445   1.449 -1.1795 -1.0682  0.1266
33052SOL    HW210882  10.681   7.440   1.301 -1.0719  0.3196  0.0936
33053SOL     OW10883   5.970   6.088   7.523  0.2134 -0.1346 -0.5743
33053SOL    HW110884   6.039   6.043   7.573  1.6752  1.2629 -1.2568
33053SOL    HW210885   5.993   6.072   7.431  1.5334  2.9223 -0.8908
33054SOL     OW10886   9.830   8.235   6.415 -0.1677 -0.1242 -0.5445
33054SOL    HW110887   9.780   8.160   6.446 -0.9494  0.1480 -1.1140
33054SOL    HW210888   9.819   8.301   6.484 -3.1087  1.0033 -1.9365
33055SOL     OW10889   3.780  12.099   3.452  0.4702 -0.3423 -0.3319
33055SOL    HW110890   3.820  12.156   3.517 -1.0739  1.0262 -0.5296
33055SOL    HW210891   3.765  12.017   3.499  0.0761  0.3646  0.8195
33056SOL     OW10892   1.962   4.393   4.703 -0.6804 -0.0485 -0.0745
33056SOL    HW110893   1.925   4.305   4.711 -0.6297 -0.0370  0.3081
33056SOL    HW210894   1.891   4.452   4.730 -0.1170 -0.0683  1.5874
33057SOL     OW10895   1.171  12.069  11.334 -0.3797  0.6325 -0.1518
33057SOL    HW110896   1.212  12.156  11.325  0.3715  0.2707 -0.3039
33057SOL    HW210897   1.215  12.030  11.409 -0.6882  0.3639 -0.1139
33058SOL     OW10898   3.840  12.037   4.463  0.6355  0.8019  0.3964
33058SOL    HW110899   3.895  11.983   4.520 -1.3390 -2.1365 -0.2307
33058SOL    HW210900   3.795  11.973   4.407 -0.3390  3.3118 -1.8613
33059SOL     OW10901  10.682   6.349   8.966 -0.2458 -0.0984  0.1919
33059SOL    HW110902  10.723   6.391   9.042  0.6176 -1.0907  0.3167
33059SOL    HW210903  10.716   6.259   8.968 -0.1641 -0.1363 -1.3973
33060SOL     OW10904   7.138   8.922   7.772  0.2447  0.3206 -0.6351
33060SOL    HW110905   7.156   8.828   7.777 -2.3653 -0.2646 -0.6830
33060SOL    HW210906   7.134   8.951   7.863  1.6692  0.5605 -0.6279
33061SOL     OW10907  10.166  12.407   0.175  0.0417 -0.0918  0.0071
33061SOL    HW110908  10.175  12.479   0.113  0.2016 -0.0750  0.0492
33061SOL    HW210909  10.112  12.342   0.129  1.6343 -0.8744 -0.8663
33062SOL     OW10910   7.285  10.392   7.113  0.5643  0.0131 -0.7252
33062SOL    HW110911   7.207  10.360   7.067 -0.5023  1.7084 -0.2158
33062SOL    HW210912   7.311  10.470   7.064 -1.2366  2.5122  1.9459
33063SOL     OW10913  12.782   6.545   4.514 -0.7571 -0.3428  0.1172
33063SOL    HW110914  12.737   6.583   4.438 -2.4590 -1.7021  0.3894
33063SOL    HW210915  12.720   6.482   4.549  0.4658 -0.5787  1.9704
33064SOL     OW10916  12.426   5.053  12.899  0.2993  0.0598  0.2642
33064SOL    HW110917  12.364   5.126  12.903 -0.9640 -1.0265  1.3165
33064SOL    HW210918  12.461   5.056  12.810 -0.5579  1.2608 -0.0589
33065SOL     OW10919   7.685   6.366   9.195  0.3628  0.3497  0.1558
33065SOL    HW110920   7.595   6.333   9.200  0.7966 -0.8042  0.7504
33065SOL    HW210921   7.731   6.301   9.142  1.2303  0.0041  1.3023
33066SOL     OW10922  11.263  10.588   9.526  0.1762  0.0942  0.0887
33066SOL    HW110923  11.330  10.597   9.459 -0.7946  1.4119 -0.7373
33066SOL    HW210924  11.281  10.503   9.567  1.1756 -0.4340 -1.3918
33067SOL     OW10925   3.181   7.248   4.839 -0.1859  0.2239 -0.0046
33067SOL    HW110926   3.228   7.232   4.921 -1.0670 -1.4123  0.2215
33067SOL    HW210927   3.157   7.340   4.844  0.1105  0.2559  1.4100
33068SOL     OW10928   2.362   5.252   1.123  0.0619 -0.1044 -0.0782
33068SOL    HW110929   2.394   5.168   1.091  1.4237  0.7353 -0.9918
33068SOL    HW210930   2.302   5.283   1.055  1.6684  0.8934 -1.1243
33069SOL     OW10931   3.535  10.784  12.526  0.4698  0.0147  0.7552
33069SOL    HW110932   3.622  10.743  12.532  0.1223 -0.6252  1.8902
33069SOL    HW210933   3.491  10.756  12.607 -0.2096  1.6822  0.9953
33070SOL     OW10934   8.853   4.495  10.198  0.3386 -0.1155  0.7027
33070SOL    HW110935   8.828   4.473  10.108  0.3143 -1.5502  1.0352
33070SOL    HW210936   8.942   4.530  10.191  0.5319 -0.7042  0.1796
33071SOL     OW10937   9.698  12.245  10.016  0.0761  0.2694  0.2660
33071SOL    HW110938   9.617  12.293  10.036 -0.4517 -0.0577 -0.9784
33071SOL    HW210939   9.727  12.281   9.932  0.5646 -0.4525  0.1177
33072SOL     OW10940  12.550  12.709   1.811 -0.5490 -0.5942 -0.3091
33072SOL    HW110941  12.590  12.727   1.896 -2.9455 -1.9508  1.2321
33072SOL    HW210942  12.562  12.615   1.799 -3.4340 -1.1767  0.4612
33073SOL     OW10943   9.756   5.586   5.806  0.3038 -0.3109 -0.3958
33073SOL    HW110944   9.830   5.634   5.843 -0.0461  0.3488 -0.5230
33073SOL    HW210945   9.713   5.650   5.748  0.4938 -1.1322 -1.4648
33074SOL     OW10946   5.325  11.388   6.350 -0.2690  0.1984  0.1794
33074SOL    HW110947   5.270  11.439   6.410  0.2107 -2.0228  2.6645
33074SOL    HW210948   5.263  11.350   6.287 -1.0095  1.0140  0.3841
33075SOL     OW10949   2.088   3.240   4.174 -0.1676  0.4122  0.3037
33075SOL    HW110950   2.039   3.178   4.229  0.1164  0.7925  0.9920
33075SOL    HW210951   2.135   3.295   4.236  0.6236  0.4734 -0.3375
33076SOL     OW10952   6.146   1.790   0.691  0.3799  0.3025  0.0370
33076SOL    HW110953   6.231   1.827   0.669  1.2460 -1.3401  0.5397
33076SOL    HW210954   6.109   1.851   0.755  1.9204  0.1487  1.1060
33077SOL     OW10955   4.951   1.795   9.466 -0.4957  0.6534  0.0163
33077SOL    HW110956   4.965   1.889   9.469 -1.4055  0.8045 -0.1074
33077SOL    HW210957   4.940   1.775   9.373 -1.4985  0.6300  0.1240
33078SOL     OW10958   5.784   7.407   7.033 -0.1134 -0.5269  0.4070
33078SOL    HW110959   5.742   7.348   6.971 -1.0522 -1.5965  1.9890
33078SOL    HW210960   5.860   7.359   7.064 -0.7352 -0.8331  1.5083
33079SOL     OW10961  11.289   6.393   9.276 -0.5085  0.1515 -0.6414
33079SOL    HW110962  11.225   6.449   9.232 -0.8992  0.3632  0.1793
33079SOL    HW210963  11.368   6.400   9.222 -0.9772  0.3791 -1.3208
33080SOL     OW10964   9.913   8.229  12.663  0.4101 -0.5786  0.0454
33080SOL    HW110965   9.967   8.303  12.633 -0.5992 -0.3289 -1.2711
33080SOL    HW210966   9.940   8.215  12.753  1.7829  0.3477 -0.1782
33081SOL     OW10967  10.673   9.944   9.394  0.4739 -0.1582  0.3835
33081SOL    HW110968  10.610   9.900   9.337  0.2809  1.6212 -0.8550
33081SOL    HW210969  10.693   9.879   9.462 -1.5093 -1.3079 -0.0516
33082SOL     OW10970   1.513   9.882   5.956  0.4321  0.3005  0.7426
33082SOL    HW110971   1.564   9.910   5.880  2.7464 -0.5259  1.8761
33082SOL    HW210972   1.452   9.954   5.972  1.6755  1.6623 -0.3429
33083SOL     OW10973   0.616   8.706  11.502  0.5853 -0.7993  0.2137
33083SOL    HW110974   0.667   8.629  11.525  0.7462 -1.2798 -1.5779
33083SOL    HW210975   0.618   8.708  11.406 -0.8655  0.4564  0.1705
33084SOL     OW10976   1.871   6.100   6.525  0.2454  0.2817 -0.1393
33084SOL    HW110977   1.824   6.140   6.452 -0.2059  0.3772  0.1931
33084SOL    HW210978   1.806   6.046   6.569  1.0427 -1.4498 -1.0215
33085SOL     OW10979  10.945   5.643   8.384  0.0959  0.6171  0.0297
33085SOL    HW110980  10.906   5.567   8.426  2.0121  0.1853  1.1517
33085SOL    HW210981  10.877   5.711   8.388 -0.4233  0.0473  2.2774
33086SOL     OW10982   3.569   0.753   3.033  0.1708  0.1262  0.0264
33086SOL    HW110983   3.535   0.810   2.964  1.4735 -1.0933 -1.6847
33086SOL    HW210984   3.603   0.814   3.099  1.6708  1.3948 -1.8153
33087SOL     OW10985   1.754   8.935   3.499 -0.0729  0.5824  0.1965
33087SOL    HW110986   1.766   9.030   3.496 -0.2725  0.6236  0.5789
33087SOL    HW210987   1.696   8.921   3.574 -1.9285  0.3399 -1.2295
33088SOL     OW10988   1.182   5.293   4.878 -0.5630 -0.0564  0.2494
33088SOL    HW110989   1.216   5.343   4.804 -0.1825 -1.0760 -0.2805
33088SOL    HW210990   1.216   5.204   4.866 -0.1800 -0.1633  1.8583
33089SOL     OW10991   1.921   3.109   0.822 -0.2995  0.4133 -0.0933
33089SOL    HW110992   1.999   3.143   0.866 -0.6893  0.7701  0.3333
33089SOL    HW210993   1.882   3.186   0.780 -1.5821  0.6946  1.4772
33090SOL     OW10994   3.600   3.509   9.476  0.2484  0.1964 -0.5416
33090SOL    HW110995   3.506   3.522   9.493 -0.2623 -0.2061 -2.7975
33090SOL    HW210996   3.627   3.446   9.543 -1.5993 -1.2383 -1.0398
33091SOL     OW10997   1.533   2.222   6.082  0.0291 -0.4321 -0.4919
33091SOL    HW110998   1.473   2.172   6.026 -1.3905 -0.5214  1.0272
33091SOL    HW210999   1.586   2.155   6.125 -0.2133 -0.4792 -0.2675
33092SOL     OW11000  11.000  12.111   1.589  0.5801  0.4412 -0.0732
33092SOL    HW111001  10.986  12.204   1.572 -2.1344  0.2730  0.8248
33092SOL    HW211002  10.931  12.067   1.540  1.1859 -1.0273  0.3427
33093SOL     OW11003   9.337  10.472   9.381 -0.6187  0.3989 -0.1615
33093SOL    HW111004   9.356  10.537   9.448  1.2826  0.0079 -0.2773
33093SOL    HW211005   9.339  10.388   9.426 -3.8662  0.3666  0.1556
33094SOL     OW11006  13.448  11.913   7.716  0.1901 -0.3434 -0.2960
33094SOL    HW111007  13.424  11.924   7.624  1.2905  2.4144 -0.3208
33094SOL    HW211008  13.544  11.910   7.716  0.2716  1.1095  0.8369
33095SOL     OW11009   8.198  10.813   6.159  0.0051  0.2067  0.3679
33095SOL    HW111010   8.266  10.829   6.093  1.1029 -0.1263  1.3775
33095SOL    HW211011   8.231  10.739   6.210 -1.3443 -0.2522  0.6071
33096SOL     OW11012   0.961  13.224   3.769 -0.5263  0.2584  0.6601
33096SOL    HW111013   0.992  13.229   3.679 -0.5208  0.2718  0.6627
33096SOL    HW211014   0.868  13.207   3.762 -0.8524  1.8560  0.6159
33097SOL     OW11015  11.596   2.688   8.259 -0.0494 -0.7298  0.3621
33097SOL    HW111016  11.592   2.671   8.165 -2.3150  0.3800  0.2012
33097SOL    HW211017  11.602   2.783   8.266  2.3150 -0.8814  1.3664
33098SOL     OW11018   9.517  10.011   2.571  0.6083 -0.0397  0.0876
33098SOL    HW111019   9.427  10.044   2.565  0.5421 -0.1837  0.2655
33098SOL    HW211020   9.558  10.067   2.638  0.2900 -0.7665  0.9050
33099SOL     OW11021   8.864   7.606  13.010 -0.1873 -0.5931 -0.4953
33099SOL    HW111022   8.826   7.607  13.098  0.2674 -1.9316 -0.2681
33099SOL    HW211023   8.955   7.583  13.023  0.0198 -0.2528 -1.2822
33100SOL     OW11024   6.204  10.875   5.899  0.0892  0.0623 -0.2577
33100SOL    HW111025   6.129  10.934   5.899  0.8111  0.9960 -0.2689
33100SOL    HW211026   6.173  10.798   5.851 -1.7356 -0.7698  2.0399
33101SOL     OW11027   9.286   4.203   6.465 -0.7025 -0.3242  0.2090
33101SOL    HW111028   9.293   4.118   6.423  1.5025 -1.1388  2.0237
33101SOL    HW211029   9.244   4.186   6.549  0.3721  0.2420  0.8809
33102SOL     OW11030  10.049  11.860  13.048  0.2288 -0.2856 -0.3867
33102SOL    HW111031  10.067  11.869  13.141  0.2526 -0.0695 -0.4125
33102SOL    HW211032  10.075  11.770  13.027  1.1954 -0.0114 -0.4040
33103SOL     OW11033   6.789   3.940   2.078 -0.3648  0.6503 -0.1210
33103SOL    HW111034   6.727   3.868   2.065 -3.2107  2.4529  2.2066
33103SOL    HW211035   6.767   4.004   2.011 -0.7722  1.1448  0.4809
33104SOL     OW11036   4.437   5.148   9.009  0.1256  0.5354 -0.1588
33104SOL    HW111037   4.405   5.101   9.086 -3.7487 -0.5937 -2.1904
33104SOL    HW211038   4.501   5.089   8.970 -0.3077 -0.3719  0.4507
33105SOL     OW11039   9.572  13.556   2.718 -0.6075  0.1467  0.2043
33105SOL    HW111040   9.625  13.606   2.656  0.3644 -0.8281  0.2083
33105SOL    HW211041   9.482  13.581   2.700 -0.4259 -0.6318 -2.1058
33106SOL     OW11042   9.455   9.201  11.201  1.0556 -0.0103  0.4719
33106SOL    HW111043   9.493   9.122  11.162  0.3817 -0.0095 -0.2203
33106SOL    HW211044   9.489   9.203  11.290  2.6027 -0.0431 -0.0952
33107SOL     OW11045   0.410   5.910   4.732 -0.0988 -0.0811 -1.0267
33107SOL    HW111046   0.326   5.947   4.703  0.2459  1.5002 -0.0912
33107SOL    HW211047   0.385   5.846   4.799 -0.4840  2.7984  1.7719
33108SOL     OW11048   7.217   5.078  13.533  0.1663 -0.2216  0.7669
33108SOL    HW111049   7.305   5.070  13.498  0.7427  2.1999  1.5136
33108SOL    HW211050   7.171   5.134  13.471 -0.0308  0.6977  1.7170
33109SOL     OW11051   5.192   2.938  11.678  0.2442 -0.2949  0.3713
33109SOL    HW111052   5.150   2.994  11.743 -0.1871  0.0039 -0.1585
33109SOL    HW211053   5.216   2.859  11.726  1.8352  0.7558  1.3898
33110SOL     OW11054   2.021   9.205   1.702 -0.8575 -0.0877 -0.1259
33110SOL    HW111055   1.941   9.247   1.733  0.2489  2.1456 -0.0581
33110SOL    HW211056   2.030   9.127   1.757 -2.7061 -0.1228  0.1820
33111SOL     OW11057  11.034   8.457   6.611 -0.1082  0.1018  0.1935
33111SOL    HW111058  11.090   8.500   6.546  0.0022 -2.1019 -1.2871
33111SOL    HW211059  11.074   8.372   6.624 -0.9841 -0.0660  2.0715
33112SOL     OW11060  12.678  12.446   2.548  0.3553  0.1787 -0.1643
33112SOL    HW111061  12.707  12.507   2.616  0.9139 -1.2458  0.9168
33112SOL    HW211062  12.755  12.431   2.494 -0.2822  1.9200 -1.6635
33113SOL     OW11063  10.587   0.259   5.578 -0.3906 -0.2585 -0.1962
33113SOL    HW111064  10.558   0.169   5.568 -2.0001 -0.0058  1.5458
33113SOL    HW211065  10.678   0.252   5.608 -0.7054 -1.3168  0.5515
33114SOL     OW11066   3.195   5.490   0.535  0.2333 -0.0328 -0.0776
33114SOL    HW111067   3.173   5.573   0.492  0.2075  0.9690  1.7958
33114SOL    HW211068   3.290   5.483   0.527  0.7037  1.9133  2.6261
33115SOL     OW11069   8.463   7.445   2.325 -0.2311 -0.0337  0.1815
33115SOL    HW111070   8.403   7.432   2.251 -0.7366 -0.4360  0.6487
33115SOL    HW211071   8.550   7.450   2.286 -0.6398  1.5538 -0.6187
33116SOL     OW11072  12.812  12.857  12.507 -0.2207  0.4832 -0.9057
33116SOL    HW111073  12.790  12.913  12.432  1.3704  0.9118 -1.0774
33116SOL    HW211074  12.901  12.827  12.489 -0.6139 -1.1816 -0.2337
33117SOL     OW11075  11.574   9.142  12.185 -0.0975  0.1277  0.0153
33117SOL    HW111076  11.480   9.143  12.164  0.2960 -0.1827 -1.9446
33117SOL    HW211077  11.617   9.130  12.100  1.6498 -1.8485  1.1110
33118SOL     OW11078  11.170   0.570   3.587  0.0485  0.2743 -0.1154
33118SOL    HW111079  11.134   0.561   3.498 -1.1966  2.2823  0.1252
33118SOL    HW211080  11.161   0.483   3.625  1.6594 -0.9409 -2.2897
33119SOL     OW11081   2.310   1.304  11.872 -0.1729  0.1801 -0.5431
33119SOL    HW111082   2.284   1.238  11.808 -1.7981  1.1416 -0.9258
33119SOL    HW211083   2.335   1.380  11.820  0.6814  0.2179 -0.0851
33120SOL     OW11084   2.714   8.580  13.462 -0.5097 -0.3380  0.5479
33120SOL    HW111085   2.764   8.637  13.520  0.8592 -1.8984  0.9486
33120SOL    HW211086   2.652   8.535  13.519 -0.5703 -0.3589  0.4665
33121SOL     OW11087   5.773   5.249   9.945 -0.1175 -0.0250 -0.3751
33121SOL    HW111088   5.701   5.235   9.883  0.1835  0.2003 -0.7832
33121SOL    HW211089   5.852   5.239   9.892  0.1753  3.5864 -0.8552
33122SOL     OW11090   6.153   8.162   6.147 -0.4559  0.4259  0.0184
33122SOL    HW111091   6.067   8.205   6.143 -0.3388  0.6298 -0.3536
33122SOL    HW211092   6.202   8.200   6.075 -0.3293 -0.3047 -0.2833
33123SOL     OW11093   1.502   1.541   9.046 -0.2116  0.0167  0.4009
33123SOL    HW111094   1.458   1.486   8.981 -0.5971  0.9278 -0.1331
33123SOL    HW211095   1.594   1.516   9.039 -0.5213 -1.4318  1.0513
33124SOL     OW11096  13.018  10.056   8.860  0.4863  0.3821  0.5181
33124SOL    HW111097  12.934  10.091   8.832  0.3401 -0.5783 -0.2789
33124SOL    HW211098  13.081  10.091   8.797 -0.2521 -4.4730 -3.5206
33125SOL     OW11099  11.125   9.660  11.997 -0.1453  0.3526 -0.7005
33125SOL    HW111100  11.047   9.705  11.966  0.1891  0.3018 -1.6383
33125SOL    HW211101  11.134   9.584  11.940  0.9522  0.7147 -1.0447
33126SOL     OW11102   8.814   9.799   5.841 -0.1692 -0.1079 -0.2491
33126SOL    HW111103   8.790   9.738   5.911 -0.5558 -1.5629 -1.6076
33126SOL    HW211104   8.902   9.829   5.865 -1.1466  1.2271  2.0351
33127SOL     OW11105   8.209  10.412   3.070 -0.0661 -0.3686 -0.0229
33127SOL    HW111106   8.222  10.351   2.997  1.5870  0.2300 -0.2663
33127SOL    HW211107   8.297  10.429   3.103 -0.7580 -0.4372  1.9958
33128SOL     OW11108   5.426   3.129   7.850 -0.7002  0.0763 -0.0861
33128SOL    HW111109   5.376   3.076   7.788 -0.2735  0.1920 -0.5405
33128SOL    HW211110   5.516   3.098   7.841 -0.7042 -0.2318  0.8323
33129SOL     OW11111  10.932   5.932  10.693 -0.3877  0.3994  0.0822
33129SOL    HW111112  10.892   6.019  10.684 -0.7444  0.1001 -1.4215
33129SOL    HW211113  11.020   5.942  10.657 -1.0818 -0.2836 -1.9662
33130SOL     OW11114  12.400   3.073   6.644  0.5339  0.3559 -0.4686
33130SOL    HW111115  12.346   3.142   6.680 -0.5196 -1.5545  1.8695
33130SOL    HW211116  12.389   3.081   6.549 -0.4513  2.6154 -0.2210
33131SOL     OW11117   8.016   4.384   7.660 -0.4366 -0.1085 -0.6052
33131SOL    HW111118   8.019   4.361   7.567  0.8387 -2.9741  0.0370
33131SOL    HW211119   8.108   4.394   7.686 -0.7245 -0.3118  0.5588
33132SOL     OW11120   6.496   7.696  11.217  0.2149  0.1825  0.7715
33132SOL    HW111121   6.578   7.695  11.267  1.6718  2.4935 -1.2963
33132SOL    HW211122   6.451   7.616  11.243  3.5651 -1.7256  1.3253
33133SOL     OW11123  13.610  13.097   8.690 -0.4953 -0.0478 -0.1936
33133SOL    HW111124  13.561  13.157   8.634 -0.1976  0.1741 -0.2237
33133SOL    HW211125  13.641  13.153   8.762  0.6088  0.0512 -0.7287
33134SOL     OW11126   7.214   0.889   0.159 -0.3801  0.6152 -0.1716
33134SOL    HW111127   7.143   0.840   0.117 -0.6910  1.2148 -0.3507
33134SOL    HW211128   7.258   0.824   0.214  1.7253 -0.9344 -3.3890
33135SOL     OW11129   1.340  12.786   7.413  0.4590  0.2100 -0.6771
33135SOL    HW111130   1.368  12.697   7.391  0.3684 -0.5289  1.8333
33135SOL    HW211131   1.244  12.783   7.406  0.4153 -0.0837 -0.0182
33136SOL     OW11132  12.860  10.125  12.949 -0.4781 -0.2969  0.1464
33136SOL    HW111133  12.808  10.205  12.956  2.3022  1.7034 -0.0164
33136SOL    HW211134  12.799  10.054  12.966 -2.9259  1.9040  1.1619
33137SOL     OW11135   0.406   2.309   2.308 -0.1632 -0.4832 -0.2890
33137SOL    HW111136   0.425   2.291   2.215 -2.2057  1.4808 -1.1848
33137SOL    HW211137   0.409   2.405   2.314  0.1667 -0.5915  1.7548
33138SOL     OW11138   5.858   7.027   9.238 -0.0737  0.1232 -0.4359
33138SOL    HW111139   5.847   6.956   9.175 -1.2802 -1.1165  1.0882
33138SOL    HW211140   5.790   7.091   9.215  0.2020  0.1981 -1.0488
33139SOL     OW11141   9.748   5.990  12.870 -0.3136  0.1188  0.1048
33139SOL    HW111142   9.760   5.904  12.829 -0.3316  0.3263 -0.3337
33139SOL    HW211143   9.705   6.043  12.803  2.0222  1.2602 -0.5562
33140SOL     OW11144   5.768   8.216   9.333 -0.7120 -0.3754  0.3173
33140SOL    HW111145   5.779   8.133   9.286 -0.2152 -0.0806 -0.1064
33140SOL    HW211146   5.756   8.281   9.263 -1.1038 -0.0909  0.6463
33141SOL     OW11147   7.993  11.902   2.514 -0.0589 -0.3069 -0.5396
33141SOL    HW111148   7.937  11.843   2.463 -2.8782  1.4097  0.3700
33141SOL    HW211149   7.997  11.982   2.462 -0.1608  0.3097  0.3907
33142SOL     OW11150   4.436   9.961   4.423  0.0268 -0.3376 -0.2128
33142SOL    HW111151   4.479  10.046   4.429 -0.1271 -0.2824  0.1479
33142SOL    HW211152   4.418   9.949   4.330 -1.0585  0.5812 -0.1472
33143SOL     OW11153  12.805   5.057   7.353  0.4493  0.1995  0.8304
33143SOL    HW111154  12.779   5.149   7.355 -0.4150 -0.0051 -0.0775
33143SOL    HW211155  12.888   5.054   7.400  0.0608  1.3003  1.6129
33144SOL     OW11156   9.866  11.813   8.512  0.3346  0.0778  0.5539
33144SOL    HW111157   9.899  11.750   8.447 -1.8779 -0.3917 -0.2078
33144SOL    HW211158   9.910  11.895   8.490  0.4994 -0.3456 -0.8352
33145SOL     OW11159  10.858  12.887   5.123 -0.0806  0.0176 -0.3031
33145SOL    HW111160  10.870  12.955   5.189 -2.1563  0.6552 -0.5099
33145SOL    HW211161  10.917  12.911   5.052  1.3823 -0.0765  0.8375
33146SOL     OW11162   9.816   9.595   2.041  0.2637  0.2324 -0.5232
33146SOL    HW111163   9.753   9.662   2.068 -0.0658 -0.5520  0.7754
33146SOL    HW211164   9.868   9.579   2.120  2.1671  0.9151 -1.5865
33147SOL     OW11165  12.610   1.078  12.706  0.0790 -0.0905  0.0103
33147SOL    HW111166  12.535   1.059  12.650  1.5733 -0.6528 -1.9167
33147SOL    HW211167  12.611   1.173  12.715 -1.6356 -0.1436  1.2637
33148SOL     OW11168   6.469   7.337  10.656  0.0030 -0.4446 -0.0543
33148SOL    HW111169   6.391   7.392  10.663  0.2072  0.3736 -3.0447
33148SOL    HW211170   6.542   7.399  10.661  0.4022 -0.9316  0.3569
33149SOL     OW11171   5.806  10.991   7.646 -0.1184  0.1289  0.1173
33149SOL    HW111172   5.719  11.022   7.670 -1.3204 -1.9100 -1.3364
33149SOL    HW211173   5.816  10.909   7.694  1.5480  0.8928  1.1791
33150SOL     OW11174   8.526   9.066  11.927 -0.1074 -0.6155 -0.1544
33150SOL    HW111175   8.478   9.149  11.926  2.3205  0.9728  2.0709
33150SOL    HW211176   8.500   9.025  12.010 -0.1997 -1.4161 -0.5698
33151SOL     OW11177   3.549   8.370   3.789  0.5181  0.8190  0.2500
33151SOL    HW111178   3.479   8.307   3.806  0.3872  0.6311 -0.9525
33151SOL    HW211179   3.506   8.445   3.750  0.6494  1.7714  1.8178
33152SOL     OW11180   1.195   3.449   5.204 -0.1640  0.4829  0.1735
33152SOL    HW111181   1.252   3.382   5.168 -0.9129 -0.5156  0.7804
33152SOL    HW211182   1.188   3.427   5.297 -1.3769  0.6721  0.1476
33153SOL     OW11183   0.409   9.378   4.466  0.0112 -0.6731 -0.3644
33153SOL    HW111184   0.331   9.401   4.415  1.0735 -0.9568 -2.1923
33153SOL    HW211185   0.398   9.285   4.485  0.5611 -1.0737 -1.8901
33154SOL     OW11186  11.817   0.287   0.333  0.2283 -0.5963 -0.3389
33154SOL    HW111187  11.813   0.317   0.424 -0.9397 -1.6547 -0.0179
33154SOL    HW211188  11.773   0.202   0.333 -0.0310 -0.5010 -1.9452
33155SOL     OW11189  13.407  13.555   7.657 -0.2313  0.5934 -0.1712
33155SOL    HW111190  13.486  13.528   7.704 -1.0967 -2.8392 -0.4507
33155SOL    HW211191  13.438  13.576   7.569  0.5915  1.2916  0.2631
33156SOL     OW11192   9.889  13.503   8.800 -0.6622  0.2540 -0.8255
33156SOL    HW111193   9.805  13.533   8.766 -1.4221 -0.4227  0.4224
33156SOL    HW211194   9.891  13.409   8.781 -0.1675  0.2693 -0.8703
33157SOL     OW11195   3.026   0.960   5.071  0.1378  0.0156 -0.1579
33157SOL    HW111196   2.992   0.895   5.132 -1.6637  1.6345  0.6861
33157SOL    HW211197   3.109   0.989   5.109 -0.4043  0.1696  0.9506
33158SOL     OW11198   5.944  12.533   6.189  0.0345 -0.6848  0.0044
33158SOL    HW111199   5.980  12.451   6.156 -0.3764 -0.4241 -1.1761
33158SOL    HW211200   6.014  12.597   6.175 -0.4031 -0.4226 -1.1418
33159SOL     OW11201  13.200   1.222   1.116  0.1020  0.0336 -0.3850
33159SOL    HW111202  13.187   1.316   1.131 -1.4293 -0.2348  0.1689
33159SOL    HW211203  13.115   1.191   1.086  0.4062 -1.3004  0.0648
33160SOL     OW11204   9.481   0.353   2.389  0.1830  0.2159  0.0864
33160SOL    HW111205   9.512   0.403   2.313  0.6798  1.5240  1.1159
33160SOL    HW211206   9.417   0.411   2.431 -0.3854 -0.6593  0.4485
33161SOL     OW11207   1.361  10.987   9.535  0.0763 -0.2470 -0.1483
33161SOL    HW111208   1.312  11.025   9.608 -0.1238  0.6964 -0.7692
33161SOL    HW211209   1.440  11.041   9.529 -0.8681  1.0295 -1.9494
33162SOL     OW11210   2.219  12.549   4.941  0.4726 -0.4748 -0.4123
33162SOL    HW111211   2.246  12.617   5.002  0.9217 -1.1299  0.1438
33162SOL    HW211212   2.230  12.467   4.990 -4.1896 -0.7909  0.5016
33163SOL     OW11213   8.368   5.916   8.888 -0.1633  0.3438  0.0545
33163SOL    HW111214   8.392   6.002   8.922 -1.6784  0.2226  1.5817
33163SOL    HW211215   8.350   5.864   8.966 -0.9834 -0.8280 -0.8778
33164SOL     OW11216   8.748  13.497   6.675  0.7661  0.0660  0.3938
33164SOL    HW111217   8.770  13.406   6.653  1.1657 -0.3155  2.1372
33164SOL    HW211218   8.695  13.490   6.755  0.8937  1.3595  0.6152
33165SOL     OW11219   8.251   7.308  13.382  0.2831  0.0831  0.1712
33165SOL    HW111220   8.326   7.312  13.442  1.1926 -1.2364 -0.8220
33165SOL    HW211221   8.279   7.360  13.306  0.1584 -0.3123 -0.1487
33166SOL     OW11222  11.219   7.743   0.826 -0.1799 -0.5863  0.0372
33166SOL    HW111223  11.164   7.699   0.761 -0.4559  1.5516 -1.2580
33166SOL    HW211224  11.307   7.706   0.812 -0.3757 -0.6467 -1.1001
33167SOL     OW11225  12.799   4.314   6.907 -0.1539 -0.1277 -0.0172
33167SOL    HW111226  12.752   4.297   6.988  1.4262 -0.6161  0.8264
33167SOL    HW211227  12.796   4.230   6.860  1.1070 -0.6041  0.7098
33168SOL     OW11228   0.138   5.928   4.631  0.3730 -0.1018 -0.2803
33168SOL    HW111229   0.107   5.969   4.549 -1.0553 -0.2770  0.1395
33168SOL    HW211230   0.070   5.949   4.695 -0.7977 -3.5781 -0.1588
33169SOL     OW11231   7.613   9.469  10.377  0.4742  0.0568 -0.3492
33169SOL    HW111232   7.549   9.405  10.345 -0.3877  0.6233  0.1798
33169SOL    HW211233   7.581   9.493  10.464  2.0148 -0.4271  0.3917
33170SOL     OW11234  13.407   2.607   9.910 -0.0389 -0.8842  0.4575
33170SOL    HW111235  13.347   2.602   9.836 -0.8777 -0.4838  1.0975
33170SOL    HW211236  13.467   2.534   9.897 -0.7805 -1.4080 -0.0927
33171SOL     OW11237   4.322  10.119   3.012  0.8823  0.3968 -0.4136
33171SOL    HW111238   4.341  10.200   3.059 -0.1877  0.7441 -0.5328
33171SOL    HW211239   4.233  10.096   3.040 -0.0698  0.9713 -2.7362
33172SOL     OW11240   2.737   4.732   6.286  0.0826  0.6077 -0.4271
33172SOL    HW111241   2.773   4.691   6.364 -1.4396 -0.7291 -0.3924
33172SOL    HW211242   2.808   4.728   6.222  0.3543 -1.0149 -0.0505
33173SOL     OW11243  12.113  12.160   8.197  0.5291  0.1947  0.0431
33173SOL    HW111244  12.056  12.184   8.125  0.1900 -0.6666  0.0052
33173SOL    HW211245  12.066  12.089   8.242  1.3375 -0.1984  0.2944
33174SOL     OW11246   9.916   3.667   8.867  0.2156 -0.2661 -0.0635
33174SOL    HW111247   9.894   3.757   8.890 -0.0924 -0.1464 -0.8272
33174SOL    HW211248   9.927   3.623   8.952  0.1533  0.4324  0.3118
33175SOL     OW11249   1.639   2.243  12.615 -0.3577  0.2435  0.3972
33175SOL    HW111250   1.720   2.268  12.571 -1.0901  2.0524 -0.0160
33175SOL    HW211251   1.662   2.239  12.708  0.2426  0.5191  0.2630
33176SOL     OW11252   3.993   5.135  11.300 -0.5074  0.3242 -0.0808
33176SOL    HW111253   3.934   5.209  11.289  0.5466  1.2332  0.2413
33176SOL    HW211254   3.941   5.059  11.275 -1.0989  1.3308 -2.1056
33177SOL     OW11255   3.081   8.685   6.392 -0.2975  0.3599 -0.3517
33177SOL    HW111256   3.136   8.684   6.471  0.7872 -2.4932 -1.0391
33177SOL    HW211257   3.142   8.702   6.320 -1.0547  1.4578 -0.7668
33178SOL     OW11258  11.726   7.947  13.338 -0.2258  0.3706 -0.2235
33178SOL    HW111259  11.669   7.902  13.276  0.5274 -2.1766  0.7925
33178SOL    HW211260  11.793   7.989  13.284 -0.2007 -0.8825 -1.2089
33179SOL     OW11261   5.309   2.398  11.084  0.2554  0.1318 -0.1824
33179SOL    HW111262   5.359   2.414  11.004  1.0915  1.2729  0.5465
33179SOL    HW211263   5.372   2.361  11.146  0.5907  2.6547  1.1275
33180SOL     OW11264   3.907  13.496   4.038 -0.4075  0.5482 -0.1707
33180SOL    HW111265   3.858  13.578   4.039 -0.9296  0.2384 -0.2750
33180SOL    HW211266   3.851  13.434   4.085  0.9266  0.7813  1.8311
33181SOL     OW11267   0.431   0.261  11.965 -0.1804  0.1952  0.0338
33181SOL    HW111268   0.388   0.344  11.987  0.0943  0.6640 -1.1626
33181SOL    HW211269   0.445   0.265  11.871  1.0716 -0.6377  0.1640
33182SOL     OW11270  11.595  11.705   6.846  0.3019  0.2232  0.3558
33182SOL    HW111271  11.591  11.789   6.893  0.4886 -0.0223  0.8177
33182SOL    HW211272  11.508  11.667   6.859  0.0519  0.5591 -0.2693
33183SOL     OW11273   5.546  13.313   7.096 -0.3603 -0.0418 -0.6742
33183SOL    HW111274   5.564  13.220   7.085  0.0196 -0.0955  0.3274
33183SOL    HW211275   5.608  13.342   7.163 -0.9374  0.7786 -0.4830
33184SOL     OW11276   8.568   6.353   5.658  0.2102 -0.1611 -0.0562
33184SOL    HW111277   8.662   6.351   5.643  0.3501  2.4408  0.1327
33184SOL    HW211278   8.534   6.279   5.606  2.3291 -1.2562  0.0289
33185SOL     OW11279   8.505   4.000   4.292 -0.1607  0.3357 -0.4475
33185SOL    HW111280   8.465   3.917   4.267 -0.5194  0.3586  0.0317
33185SOL    HW211281   8.538   4.037   4.210 -0.7593  0.1215 -0.7874
33186SOL     OW11282  12.097   3.228   9.062 -0.2349  0.1944 -0.0170
33186SOL    HW111283  12.008   3.242   9.094  0.1467  1.6271  0.4848
33186SOL    HW211284  12.133   3.159   9.119 -0.8017  0.0857  0.2091
33187SOL     OW11285   8.490   0.618  10.812  0.3017 -0.2079  0.1231
33187SOL    HW111286   8.512   0.711  10.801 -0.0910  0.1578  2.1244
33187SOL    HW211287   8.395   0.615  10.800  0.3702 -0.4577 -0.4130
33188SOL     OW11288   1.441   5.641   6.511  0.1804  0.3054  0.2128
33188SOL    HW111289   1.494   5.596   6.577  0.1779 -1.4988 -0.9264
33188SOL    HW211290   1.503   5.695   6.462  0.2924  1.1281  1.2343
33189SOL     OW11291   6.922   3.192   7.962  0.6181 -0.3495 -0.0605
33189SOL    HW111292   6.853   3.240   8.009  2.1175 -0.3623  2.3639
33189SOL    HW211293   6.928   3.109   8.009  1.9656 -0.5285 -0.5151
33190SOL     OW11294   4.799   8.109   9.882 -0.0071 -0.4552 -0.1282
33190SOL    HW111295   4.781   8.057   9.804 -0.0804  1.0404 -1.1409
33190SOL    HW211296   4.819   8.196   9.849 -2.9799  1.0613  1.6151
33191SOL     OW11297   5.711   7.106   7.593 -0.3969 -0.5468 -0.3909
33191SOL    HW111298   5.678   7.074   7.677 -0.3869 -0.7477 -0.4604
33191SOL    HW211299   5.640   7.160   7.558 -0.3436 -0.3483 -0.1885
33192SOL     OW11300   9.792   0.250   4.638  0.0660  0.0048 -0.2958
33192SOL    HW111301   9.779   0.214   4.550 -2.2928  0.6907 -0.3014
33192SOL    HW211302   9.819   0.341   4.623  0.2888 -0.0581 -0.2892
33193SOL     OW11303   1.265   2.538   2.844  0.5419 -0.0130 -0.5719
33193SOL    HW111304   1.283   2.450   2.877  0.5069  0.4130  0.6493
33193SOL    HW211305   1.187   2.566   2.893  0.3660  0.5750 -1.1823
33194SOL     OW11306   6.566   1.934   2.229 -0.4711  0.1203  0.4599
33194SOL    HW111307   6.522   1.962   2.309  0.0487  0.5377  0.6023
33194SOL    HW211308   6.647   1.893   2.259 -0.6477 -0.4370  0.1862
33195SOL     OW11309   8.898   5.566  11.805  0.2504 -0.6895  0.1196
33195SOL    HW111310   8.970   5.531  11.753  0.1879 -0.4873 -0.1106
33195SOL    HW211311   8.882   5.501  11.873  0.0249 -1.1902 -0.4018
33196SOL     OW11312  11.530  13.667   9.146 -0.4338  0.2156  0.2343
33196SOL    HW111313  11.507  13.729   9.077 -1.5115 -1.1770 -0.7168
33196SOL    HW211314  11.580  13.599   9.101 -0.4500 -0.3011  0.9820
33197SOL     OW11315  11.503   5.088   7.295  0.4288  0.3722 -0.3456
33197SOL    HW111316  11.591   5.058   7.271 -0.2900 -0.2071 -2.4464
33197SOL    HW211317  11.444   5.037   7.239 -1.1806  1.7469  0.0187
33198SOL     OW11318  12.359   6.889   7.979 -0.5392 -0.5853  0.1645
33198SOL    HW111319  12.333   6.957   7.917  0.9479 -0.4672 -0.3669
33198SOL    HW211320  12.388   6.817   7.924  0.6639 -0.5327  0.7089
33199SOL     OW11321   5.572   2.319  10.093 -0.1996  0.1235  0.1871
33199SOL    HW111322   5.504   2.371  10.136 -0.5726  1.4206 -1.8457
33199SOL    HW211323   5.625   2.286  10.165 -0.8314  2.1021  1.6708
33200SOL     OW11324  10.983   0.857   5.895 -0.3090 -0.5267 -0.3787
33200SOL    HW111325  10.999   0.852   5.801 -1.2069 -0.3666 -0.5456
33200SOL    HW211326  11.067   0.834   5.935  0.4669  0.7644 -1.2191
33201SOL     OW11327   2.399   6.963   8.206 -0.4720 -0.0850 -0.3480
33201SOL    HW111328   2.372   6.872   8.193 -1.7140  0.4091 -1.4236
33201SOL    HW211329   2.366   6.986   8.293 -2.8249  0.1945 -1.2343
33202SOL     OW11330  11.157   6.462   6.187  0.3465  0.2824 -0.7633
33202SOL    HW111331  11.089   6.417   6.137 -0.2524  1.5053 -1.1003
33202SOL    HW211332  11.190   6.530   6.127 -0.5996  1.9933  0.5557
33203SOL     OW11333   8.544   1.783   3.869 -0.0094  0.3932 -0.0577
33203SOL    HW111334   8.498   1.705   3.902  1.6606 -1.4242 -1.7253
33203SOL    HW211335   8.502   1.801   3.785  1.9041 -1.1058 -1.4586
33204SOL     OW11336   2.693   6.820  13.103  0.3977  0.4526  0.0630
33204SOL    HW111337   2.624   6.755  13.114  0.4139  0.4668  0.2454
33204SOL    HW211338   2.702   6.861  13.189  1.0420  0.0469  0.1890
33205SOL     OW11339   5.053  11.073   6.014 -0.1032 -0.4258  0.0861
33205SOL    HW111340   5.011  11.103   6.095  0.8738 -0.7116  0.7192
33205SOL    HW211341   5.012  10.988   5.997  0.6156 -0.9825  1.0288
33206SOL     OW11342   0.812  13.682  13.156 -0.6080  0.5700  0.6782
33206SOL    HW111343   0.839  13.600  13.198  1.1100  0.1669 -1.0314
33206SOL    HW211344   0.731  13.660  13.111 -1.0786  0.3063  1.6320
33207SOL     OW11345  11.916  13.672   2.261  0.4202  0.1018  0.2891
33207SOL    HW111346  11.964  13.625   2.329  0.7823  0.5076  0.3131
33207SOL    HW211347  11.940  13.763   2.271 -0.0174  0.2548  0.0180
33208SOL     OW11348  12.201  11.645   4.193  0.3107 -0.4745  0.1807
33208SOL    HW111349  12.203  11.697   4.113 -3.0049  0.3262  0.4755
33208SOL    HW211350  12.257  11.694   4.254  0.2041  0.7544 -0.6613
33209SOL     OW11351   5.755   9.392   6.525  0.6851 -0.4123  0.3085
33209SOL    HW111352   5.807   9.415   6.448  0.3465  0.2724  0.2735
33209SOL    HW211353   5.790   9.308   6.554  2.1458  0.2889  0.6076
33210SOL     OW11354  10.427   3.919   9.717 -0.7265  0.0433 -0.7103
33210SOL    HW111355  10.418   3.845   9.777 -1.9074 -1.0219 -2.1182
33210SOL    HW211356  10.376   3.893   9.640 -0.4269  1.9608 -1.6005
33211SOL     OW11357  13.375   5.859   8.472 -0.4722  0.0568  0.1192
33211SOL    HW111358  13.379   5.767   8.447  0.8005 -0.4139  1.8495
33211SOL    HW211359  13.433   5.866   8.549 -0.1236  2.3989 -0.2691
33212SOL     OW11360  11.977  12.838   4.192 -0.0363  0.5072  0.3718
33212SOL    HW111361  11.892  12.828   4.235 -0.2893  0.5142 -0.1264
33212SOL    HW211362  11.995  12.932   4.197  0.0588  0.4762  0.6862
33213SOL     OW11363  12.248   0.223  13.306 -0.2949  0.4655 -0.1159
33213SOL    HW111364  12.323   0.259  13.353  0.7737  0.9121 -2.0462
33213SOL    HW211365  12.176   0.284  13.323  0.2859  1.0499  0.2598
33214SOL     OW11366   5.472   1.331  10.905 -0.2919  0.0504 -0.1356
33214SOL    HW111367   5.522   1.408  10.933  0.5130 -0.4322 -0.2399
33214SOL    HW211368   5.538   1.267  10.881 -0.9690 -0.4513 -0.6723
33215SOL     OW11369   6.972   9.025   4.561  0.2755 -0.2600 -0.6015
33215SOL    HW111370   7.040   9.080   4.599  1.1915 -1.6328 -0.1622
33215SOL    HW211371   7.018   8.971   4.497  0.1673 -2.8629  1.3293
33216SOL     OW11372   3.456   1.066  10.797 -0.1502  0.1390 -0.4598
33216SOL    HW111373   3.502   0.991  10.834 -1.5061 -0.0970  0.8643
33216SOL    HW211374   3.450   1.129  10.869 -1.9196  0.1065 -0.5286
33217SOL     OW11375  10.168   6.024   8.232 -0.2183 -0.5161  0.1180
33217SOL    HW111376  10.238   6.089   8.228 -0.4349  0.0168  3.0009
33217SOL    HW211377  10.093   6.066   8.190  0.6952 -0.4739 -1.5456
33218SOL     OW11378   7.490  11.982   7.685  0.4146  0.1485  0.5037
33218SOL    HW111379   7.409  11.937   7.709  0.8324 -0.2355  1.2269
33218SOL    HW211380   7.512  11.948   7.598 -0.4014  0.5461  0.1331
33219SOL     OW11381   9.340   9.099   2.713 -0.1311 -0.1410  0.1608
33219SOL    HW111382   9.280   9.079   2.785 -0.7470  0.8887 -0.0495
33219SOL    HW211383   9.419   9.132   2.756 -0.7718  1.1780  0.3534
33220SOL     OW11384   7.451  11.045   7.176 -0.3339 -0.0831  0.0527
33220SOL    HW111385   7.544  11.045   7.154 -0.7725 -1.2704 -2.0385
33220SOL    HW211386   7.445  10.995   7.256  0.8220  0.0048  0.2125
33221SOL     OW11387   1.490   4.484   6.554  0.0946 -0.6656  0.1711
33221SOL    HW111388   1.408   4.531   6.569 -0.0262 -0.6410 -0.5234
33221SOL    HW211389   1.546   4.547   6.509 -0.1640 -1.2507 -1.0014
33222SOL     OW11390   6.413  11.681   5.373 -0.1146 -0.4916 -0.0579
33222SOL    HW111391   6.467  11.745   5.327 -0.4432 -0.8695 -0.9933
33222SOL    HW211392   6.370  11.631   5.304  1.1154 -2.6119  0.5817
33223SOL     OW11393  10.244   8.404   2.092  0.3259  0.3693 -0.0929
33223SOL    HW111394  10.172   8.343   2.077  0.9359 -1.0164  2.1778
33223SOL    HW211395  10.240   8.465   2.017 -2.2498 -0.5256 -0.7835
33224SOL     OW11396   9.695   1.306   4.261 -0.0441 -0.1572  0.1874
33224SOL    HW111397   9.782   1.275   4.233  0.1750  1.8967 -1.6666
33224SOL    HW211398   9.711   1.394   4.294 -1.2380 -0.3606  1.3906
33225SOL     OW11399   7.334   8.480   6.041  0.0777  0.1734  0.4948
33225SOL    HW111400   7.257   8.533   6.017  1.2269  1.9071  0.5138
33225SOL    HW211401   7.332   8.407   5.979 -1.2194  0.5472  0.0602
33226SOL     OW11402   6.799   9.139  11.568 -0.1781 -0.3231 -0.0536
33226SOL    HW111403   6.732   9.082  11.531 -0.9894  0.7209 -0.2399
33226SOL    HW211404   6.760   9.226  11.567  1.1071  0.2772  0.0386
33227SOL     OW11405   5.324  11.556  11.016  0.2415  0.0377  0.4441
33227SOL    HW111406   5.389  11.596  10.958  0.4008  0.6886  1.0598
33227SOL    HW211407   5.279  11.492  10.961  0.9978  0.0060 -0.1533
33228SOL     OW11408   1.015   7.067   1.077 -0.3219  0.0725 -0.0466
33228SOL    HW111409   1.051   6.996   1.130 -1.5438  0.5337  1.4753
33228SOL    HW211410   1.013   7.031   0.988 -1.6957 -2.1721  0.7821
33229SOL     OW11411   3.558   8.320  10.916  0.0075  0.5947  0.4205
33229SOL    HW111412   3.627   8.300  10.853 -0.7711  1.0959 -0.6367
33229SOL    HW211413   3.602   8.324  11.000  0.6446 -3.0827  0.4310
33230SOL     OW11414   0.172  11.842   0.005 -0.6610 -0.2403 -0.0205
33230SOL    HW111415   0.178  11.761  -0.046  0.8072 -0.1760  0.0203
33230SOL    HW211416   0.154  11.813   0.094 -0.2865 -0.5253 -0.0331
33231SOL     OW11417   9.335  12.120   9.365  0.5424  0.0827  0.3879
33231SOL    HW111418   9.389  12.181   9.315  0.5371 -0.2337 -0.0088
33231SOL    HW211419   9.356  12.139   9.456  0.5996  0.6224  0.2693
33232SOL     OW11420  12.284  12.633   9.693 -0.6897 -0.2786 -0.1856
33232SOL    HW111421  12.265  12.632   9.599  0.4388 -2.4021 -0.4425
33232SOL    HW211422  12.251  12.549   9.725  0.5622 -0.3614  0.9612
33233SOL     OW11423   7.321   3.868   8.435 -0.0652  0.0240  0.4899
33233SOL    HW111424   7.309   3.774   8.445 -0.5156  0.0615  0.2944
33233SOL    HW211425   7.311   3.884   8.341 -0.1573  0.2892  0.5439
33234SOL     OW11426   9.409  13.307   8.910 -0.1139  0.1634 -0.0999
33234SOL    HW111427   9.348  13.301   8.985  1.4442  2.1928  1.4335
33234SOL    HW211428   9.495  13.318   8.950  0.8863  0.5389 -2.2214
33235SOL     OW11429   0.242   8.743   3.328 -0.0790  0.5254 -0.4124
33235SOL    HW111430   0.240   8.657   3.288 -1.8715  0.3698 -0.1046
33235SOL    HW211431   0.315   8.789   3.286  1.4747 -1.4073  0.0565
33236SOL     OW11432  10.049   5.000   8.728  0.3113 -0.2840  0.0279
33236SOL    HW111433  10.043   5.019   8.634  1.4905 -0.7612 -0.1545
33236SOL    HW211434   9.961   5.019   8.761 -0.1193 -0.0852 -1.1659
33237SOL     OW11435   0.989   2.848   2.157 -0.2210  0.2106 -1.0731
33237SOL    HW111436   1.027   2.875   2.073 -0.5628 -0.3320 -1.4079
33237SOL    HW211437   0.965   2.756   2.144 -2.4784  0.7534 -1.1692
33238SOL     OW11438   9.489   5.082   0.239  0.1837 -0.1541 -0.3325
33238SOL    HW111439   9.554   5.092   0.169  0.6237 -1.9782 -0.2614
33238SOL    HW211440   9.413   5.131   0.210  1.2184  1.1601 -0.9194
33239SOL     OW11441  13.139   9.931   9.356 -0.2117 -0.3364  0.7962
33239SOL    HW111442  13.122   9.999   9.291 -0.1026 -1.8308 -0.8517
33239SOL    HW211443  13.185   9.976   9.427  1.5128  0.9718 -1.0590
33240SOL     OW11444  13.519  10.284  11.745  0.1009  0.3367  0.0350
33240SOL    HW111445  13.464  10.343  11.693  0.4519  0.7405  0.1092
33240SOL    HW211446  13.525  10.326  11.831  0.6356  0.3796 -0.0158
33241SOL     OW11447   8.132  11.715   6.259 -0.4644  0.1290 -0.1627
33241SOL    HW111448   8.183  11.783   6.303 -1.1232 -0.6990  1.9893
33241SOL    HW211449   8.050  11.759   6.235 -0.3298  0.4461 -0.0517
33242SOL     OW11450   8.992  11.931   2.222  0.6669  0.0771  0.7854
33242SOL    HW111451   9.023  11.968   2.305  1.1038 -0.4455  0.8641
33242SOL    HW211452   9.013  11.838   2.228  1.9926  0.2489 -0.4830
33243SOL     OW11453  10.032   2.128  11.646  0.2489 -0.3932  0.6532
33243SOL    HW111454   9.955   2.084  11.610  1.2461  0.5250 -3.0464
33243SOL    HW211455  10.098   2.059  11.653  0.4904 -0.3428 -0.8683
33244SOL     OW11456  10.175   9.231   9.240 -0.3878  0.8309 -0.2310
33244SOL    HW111457  10.267   9.229   9.215 -0.4746  1.6670 -0.6718
33244SOL    HW211458  10.145   9.141   9.228  0.0806  0.7919 -1.2621
33245SOL     OW11459   1.511   6.182   1.687  0.0661 -0.2803  0.1568
33245SOL    HW111460   1.593   6.164   1.641  1.0652 -0.8998  2.0253
33245SOL    HW211461   1.478   6.095   1.711 -1.4217 -0.0617 -0.9629
33246SOL     OW11462   2.014   6.945  12.205  0.8418 -0.6508  0.2500
33246SOL    HW111463   1.939   6.977  12.155  0.5810  0.4645  1.2916
33246SOL    HW211464   1.981   6.934  12.294  2.1824  1.1517  1.0500
33247SOL     OW11465  12.874   3.133   4.142 -0.4039 -0.0035 -0.0778
33247SOL    HW111466  12.934   3.138   4.067 -0.9558 -1.1895 -0.6270
33247SOL    HW211467  12.842   3.223   4.153 -0.0004  0.2733 -1.0053
33248SOL     OW11468   1.554   6.657   5.579 -0.2315 -0.3734  0.5607
33248SOL    HW111469   1.502   6.716   5.524  0.0836 -1.4616 -0.9662
33248SOL    HW211470   1.618   6.618   5.519 -0.6053 -2.4761  1.4448
33249SOL     OW11471   9.405  10.577   3.061 -0.2030  0.1533 -0.2397
33249SOL    HW111472   9.417  10.616   2.974  1.8296  2.0409  0.7782
33249SOL    HW211473   9.473  10.510   3.066 -0.3475  0.0164 -0.1103
33250SOL     OW11474   1.955  13.461   5.001  0.0450 -0.1299 -0.2461
33250SOL    HW111475   1.964  13.389   4.938 -1.0160  0.4462 -1.1000
33250SOL    HW211476   2.026  13.447   5.064 -0.6111 -2.3530  0.0728
33251SOL     OW11477   4.808   1.534   4.234  0.0920  0.2124 -0.1438
33251SOL    HW111478   4.767   1.525   4.148  0.9096 -0.9759 -0.4312
33251SOL    HW211479   4.804   1.446   4.272  0.5828  0.5176  0.6416
33252SOL     OW11480   7.795   8.615   4.747  0.2439 -0.0326  0.6801
33252SOL    HW111481   7.878   8.578   4.717  0.1779  0.3950 -0.0624
33252SOL    HW211482   7.816   8.659   4.830  0.7910  0.1992  0.4193
33253SOL     OW11483   7.885  10.331   1.899  0.0537  0.9458  0.5855
33253SOL    HW111484   7.853  10.329   1.809  1.6283 -0.0520  0.0042
33253SOL    HW211485   7.961  10.272   1.898  0.1850  1.0397  2.5324
33254SOL     OW11486   9.517   7.789   5.412 -0.1769 -0.0660  0.3297
33254SOL    HW111487   9.492   7.703   5.445  0.9206 -0.1382  1.0353
33254SOL    HW211488   9.603   7.805   5.450  0.5323  0.4730 -1.3812
33255SOL     OW11489   1.473   1.459   2.531  0.0176  0.2121 -0.1652
33255SOL    HW111490   1.500   1.452   2.439 -2.7592  0.8200 -1.1220
33255SOL    HW211491   1.428   1.377   2.549 -2.6504  1.5001 -0.5802
33256SOL     OW11492   4.432   1.400   6.621 -0.0950  0.3050  0.0815
33256SOL    HW111493   4.398   1.486   6.646 -0.2542  0.3699 -0.3490
33256SOL    HW211494   4.522   1.400   6.652  0.1628  0.9476 -0.6542
33257SOL     OW11495   2.649   1.897   5.054  0.4294 -0.3067 -0.3069
33257SOL    HW111496   2.560   1.918   5.083  0.1276 -1.0359 -0.6702
33257SOL    HW211497   2.670   1.965   4.990 -0.4316 -0.9275 -1.2847
33258SOL     OW11498   1.756   7.255   8.824  0.6902  0.3030  0.5115
33258SOL    HW111499   1.781   7.229   8.735 -0.2261  4.1150 -1.0652
33258SOL    HW211500   1.673   7.211   8.840 -0.0525  0.9306 -1.3454
33259SOL     OW11501   5.498  12.646   1.966 -0.2698  0.1645  0.0586
33259SOL    HW111502   5.593  12.646   1.972 -0.2560  1.4821  0.1845
33259SOL    HW211503   5.471  12.561   2.001  0.8895 -0.5413 -0.7080
33260SOL     OW11504  12.368   3.832  12.509  0.1737  0.0411 -0.0728
33260SOL    HW111505  12.295   3.789  12.554 -0.8848  1.0904 -0.7112
33260SOL    HW211506  12.395   3.769  12.442  0.7180 -0.8759  0.9755
33261SOL     OW11507   3.237   8.467   9.285 -0.3349  0.5252 -0.5154
33261SOL    HW111508   3.175   8.538   9.267  0.3989  1.0841 -0.8946
33261SOL    HW211509   3.188   8.387   9.267 -1.4676  0.8883  0.8063
33262SOL     OW11510  11.998  12.913  13.656 -0.0977  0.5592  0.0433
33262SOL    HW111511  12.003  12.953  13.742 -0.3465  0.1430  0.2579
33262SOL    HW211512  12.078  12.861  13.649 -0.5921 -0.2861  0.4833
33263SOL     OW11513   6.568  12.830   3.621 -0.7887 -0.3496 -0.3615
33263SOL    HW111514   6.558  12.878   3.539  0.3760 -1.4065 -1.1557
33263SOL    HW211515   6.495  12.768   3.622 -0.6128 -0.5662 -0.7669
33264SOL     OW11516   8.673   7.370   8.414 -0.0794  0.2214 -0.0511
33264SOL    HW111517   8.649   7.355   8.323 -1.3806  1.7708  0.0064
33264SOL    HW211518   8.592   7.394   8.458  0.9373  2.1684  0.9166
33265SOL     OW11519  11.405  13.686  12.828 -0.2233 -0.0571  0.4433
33265SOL    HW111520  11.347  13.654  12.897 -0.3338  0.7795  0.7547
33265SOL    HW211521  11.357  13.759  12.789  0.4596  0.4137  0.4643
33266SOL     OW11522   5.751   7.927  10.298 -1.1003 -0.4470  0.3505
33266SOL    HW111523   5.838   7.958  10.321 -1.3102  1.0591 -0.7438
33266SOL    HW211524   5.691   7.981  10.350 -1.4081 -0.8560  0.4280
33267SOL     OW11525   8.921  13.079   2.057 -0.0923 -0.2050 -0.3087
33267SOL    HW111526   8.920  13.003   2.116 -0.5457  0.0611  0.0417
33267SOL    HW211527   8.842  13.068   2.004 -0.8424  0.6499  0.5875
33268SOL     OW11528   6.214   5.796  12.122  0.6408 -0.8529 -0.3016
33268SOL    HW111529   6.260   5.717  12.093 -1.1095 -2.2260  0.4683
33268SOL    HW211530   6.283   5.852  12.159  1.9135 -2.0498 -0.7828
33269SOL     OW11531   2.896   2.773  11.234 -0.4609  0.0528 -0.4045
33269SOL    HW111532   2.888   2.827  11.312 -0.3637 -0.7582  0.1788
33269SOL    HW211533   2.986   2.738  11.238 -0.5990 -0.3390 -0.6509
33270SOL     OW11534   3.804   4.610   5.027 -0.1181  0.1716 -0.3734
33270SOL    HW111535   3.768   4.669   5.094 -0.5380 -0.2386 -0.2326
33270SOL    HW211536   3.819   4.666   4.951  0.3130  0.6325  0.0412
33271SOL     OW11537  13.127   6.377   7.661 -0.2729 -0.3796  0.7657
33271SOL    HW111538  13.207   6.420   7.689  0.6534 -2.7883  2.1466
33271SOL    HW211539  13.061   6.403   7.726  0.0990 -0.5187  1.2001
33272SOL     OW11540   3.094  11.625  13.282 -0.3064 -0.1165  0.2777
33272SOL    HW111541   3.179  11.622  13.238 -0.5286  1.0191 -0.2669
33272SOL    HW211542   3.099  11.556  13.349  1.2797  0.3324  0.6695
33273SOL     OW11543   9.098   7.813   1.787  0.0859 -0.0908  0.0977
33273SOL    HW111544   9.152   7.874   1.837  0.6663  0.3988 -1.0870
33273SOL    HW211545   9.015   7.859   1.775  1.1718  1.4385 -2.5234
33274SOL     OW11546  13.480   4.944   8.490  0.2723  0.0889 -0.2105
33274SOL    HW111547  13.385   4.932   8.485 -0.0129  1.9107  0.0058
33274SOL    HW211548  13.512   4.928   8.402 -0.0464 -1.7762 -0.0145
33275SOL     OW11549   4.623   7.959   5.219 -0.4641  0.1640 -0.1570
33275SOL    HW111550   4.656   7.883   5.171 -0.3230  0.4611 -0.5385
33275SOL    HW211551   4.693   8.024   5.211 -0.4878  0.2602  0.3600
33276SOL     OW11552   7.865   1.149  12.359 -0.0434  0.5298 -0.3691
33276SOL    HW111553   7.878   1.244  12.353  0.3528  0.4980 -0.0444
33276SOL    HW211554   7.912   1.123  12.439 -1.1559  0.2311  0.2023
33277SOL     OW11555  13.372  12.409  10.087 -0.2790  0.3209 -0.1679
33277SOL    HW111556  13.370  12.431   9.993 -0.6079 -0.2333 -0.2954
33277SOL    HW211557  13.336  12.320  10.091  2.1098 -0.7137  0.1961
33278SOL     OW11558   1.360  10.885  10.149 -0.2546  0.0963  0.2091
33278SOL    HW111559   1.432  10.865  10.090  0.4003 -0.1421  1.0580
33278SOL    HW211560   1.288  10.910  10.092  0.5129  0.3817 -0.6599
33279SOL     OW11561  12.957   2.997   3.679  0.3834 -0.1189  0.1343
33279SOL    HW111562  12.990   2.984   3.591 -0.2322  1.6746 -0.4086
33279SOL    HW211563  13.013   2.942   3.735  2.5566  0.7949 -1.0425
33280SOL     OW11564   0.990   9.189  12.780  0.2977 -0.3055  0.7118
33280SOL    HW111565   0.940   9.109  12.761 -0.5149  0.0071  1.4398
33280SOL    HW211566   1.070   9.158  12.822  0.9024 -0.8369 -0.7709
33281SOL     OW11567   0.521  10.756   5.287 -0.2595 -0.4909 -0.4890
33281SOL    HW111568   0.480  10.797   5.364 -0.9741 -1.1878 -0.4806
33281SOL    HW211569   0.525  10.826   5.222 -1.7988 -0.4745 -0.6011
33282SOL     OW11570  11.616  12.850  11.906 -0.8050  0.1006  0.5272
33282SOL    HW111571  11.558  12.893  11.842 -1.5597 -0.4114  0.8473
33282SOL    HW211572  11.571  12.860  11.990 -0.2564 -0.0140  0.8390
33283SOL     OW11573   7.491   7.472   0.148  0.0755 -0.3404  0.0321
33283SOL    HW111574   7.580   7.469   0.182  0.0799 -2.8777  0.0118
33283SOL    HW211575   7.480   7.388   0.102 -2.4573 -0.3123  0.4285
33284SOL     OW11576  11.360  10.215  10.401  0.2851 -0.1192 -0.5511
33284SOL    HW111577  11.324  10.261  10.325  0.8737  0.0986 -0.6985
33284SOL    HW211578  11.284  10.171  10.440 -0.3483  1.2076 -0.2297
33285SOL     OW11579  11.903   2.942   5.107 -0.3221 -0.0876  0.0668
33285SOL    HW111580  11.998   2.938   5.110 -0.3601 -0.3053  1.4429
33285SOL    HW211581  11.877   2.975   5.193 -1.5304 -0.8645  0.0284
33286SOL     OW11582   6.822   2.041   7.586 -0.0587  0.1624 -0.1444
33286SOL    HW111583   6.862   2.117   7.628 -1.0567  0.4902  0.2491
33286SOL    HW211584   6.895   1.985   7.562  0.7439  1.4722 -0.8857
33287SOL     OW11585   2.779   7.956   2.811 -0.3521 -0.0180 -0.2337
33287SOL    HW111586   2.860   7.907   2.792  0.2159  0.0530  1.7255
33287SOL    HW211587   2.711   7.889   2.813  0.1002 -0.4741  0.5241
33288SOL     OW11588   0.224   4.906   5.910 -0.4713  0.0614  0.1282
33288SOL    HW111589   0.154   4.853   5.948  0.2453 -0.4303  0.7965
33288SOL    HW211590   0.200   4.916   5.818 -0.7362 -1.2579  0.0397
33289SOL     OW11591   7.104   9.935  11.084 -0.1802  0.1629 -0.2669
33289SOL    HW111592   7.171   9.997  11.056  0.1930  0.6322  1.5301
33289SOL    HW211593   7.022   9.986  11.084 -0.0462  0.3848  0.2290
33290SOL     OW11594   0.819  10.153   5.943  0.2350 -0.8259  0.5092
33290SOL    HW111595   0.826  10.246   5.920 -2.7148 -0.3393  1.0968
33290SOL    HW211596   0.900  10.134   5.991  1.4452  1.0935 -0.6289
33291SOL     OW11597  10.540   9.646   7.542  0.2395 -0.1913 -0.3766
33291SOL    HW111598  10.491   9.669   7.463 -0.8963 -0.2412  0.2930
33291SOL    HW211599  10.603   9.580   7.513  0.0880  0.0592 -1.3046
33292SOL     OW11600  10.651   3.717   6.347  0.3593 -0.1505  0.3408
33292SOL    HW111601  10.728   3.740   6.296 -0.6319  3.5390  0.2074
33292SOL    HW211602  10.665   3.757   6.433 -1.1356  0.0915  0.5048
33293SOL     OW11603   2.843   9.332   2.085  0.4531 -0.2415  0.2091
33293SOL    HW111604   2.760   9.285   2.080  0.3474  0.0261 -0.6921
33293SOL    HW211605   2.908   9.264   2.105 -0.0451 -0.3679  1.4659
33294SOL     OW11606  11.046   9.145   6.478  0.3513 -0.7082 -0.7450
33294SOL    HW111607  11.128   9.180   6.442  1.3478 -1.9003  0.2670
33294SOL    HW211608  10.977   9.198   6.438  1.7111  1.9577  0.2012
33295SOL     OW11609  12.035   6.922   0.925 -0.0287 -0.0255  0.3182
33295SOL    HW111610  11.980   6.845   0.908 -0.0409 -0.1189  0.7634
33295SOL    HW211611  12.121   6.886   0.948 -0.4487  0.0125  2.1210
33296SOL     OW11612   3.594   4.104   6.767  0.3483 -0.5658  0.1521
33296SOL    HW111613   3.623   4.161   6.696  0.0242 -0.2242  0.2891
33296SOL    HW211614   3.550   4.163   6.828  1.2562 -0.7418  0.9906
33297SOL     OW11615  11.620   4.171   6.922  0.1112  0.0220 -0.3116
33297SOL    HW111616  11.630   4.219   6.840 -1.6549 -0.3642 -0.7991
33297SOL    HW211617  11.560   4.099   6.901  1.7116 -1.6845  0.6919
33298SOL     OW11618  13.215  10.297   2.578  0.4092  0.6634 -0.1928
33298SOL    HW111619  13.135  10.349   2.570  0.0163  0.0814 -0.0682
33298SOL    HW211620  13.188  10.218   2.625  1.2210  0.8095  0.5313
33299SOL     OW11621   1.611   7.815   2.881  0.3434  0.0982  0.0258
33299SOL    HW111622   1.631   7.900   2.842  0.9922 -0.3996 -0.7437
33299SOL    HW211623   1.693   7.767   2.879  0.1336 -0.3210  1.0561
33300SOL     OW11624  12.718   7.116   7.203 -0.8268  0.1936  0.1558
33300SOL    HW111625  12.799   7.091   7.248 -0.7457  0.7324  0.3235
33300SOL    HW211626  12.652   7.122   7.272 -1.2405 -1.1334 -0.1024
33301SOL     OW11627  11.159  11.697   6.448 -0.4426 -0.8577 -0.5886
33301SOL    HW111628  11.240  11.740   6.420 -0.8688  0.1419 -0.3247
33301SOL    HW211629  11.168  11.607   6.418  0.4065 -0.5486 -1.2982
33302SOL     OW11630   2.694  11.472   6.391 -0.2804  0.3235 -0.6682
33302SOL    HW111631   2.668  11.409   6.458 -0.3149 -0.0064 -0.9891
33302SOL    HW211632   2.704  11.419   6.312  1.0889  0.4857 -0.6190
33303SOL     OW11633   9.983   4.121  11.094  0.2033 -0.0242 -0.0358
33303SOL    HW111634   9.951   4.205  11.128 -0.2679  0.2104 -1.0127
33303SOL    HW211635   9.932   4.055  11.141  0.4764  0.2390  0.6334
33304SOL     OW11636  11.804   7.321   8.918  0.0050  0.0304  0.0443
33304SOL    HW111637  11.765   7.337   9.004  0.7657 -1.2188  0.6326
33304SOL    HW211638  11.882   7.376   8.917 -0.7279  1.0998 -0.4083
33305SOL     OW11639  11.522   7.950   8.561 -0.1140 -0.3774 -0.0308
33305SOL    HW111640  11.611   7.962   8.595  0.9941  0.0068 -2.7656
33305SOL    HW211641  11.480   8.035   8.572  1.1943  0.6219 -2.0109
33306SOL     OW11642   6.601   8.395   8.086  0.2808 -0.1583  0.8344
33306SOL    HW111643   6.696   8.388   8.094  0.3121 -0.7685  0.0675
33306SOL    HW211644   6.567   8.330   8.148  0.3657 -0.0022  1.0444
33307SOL     OW11645   0.977   2.898  13.476 -0.3246  0.2696 -0.0844
33307SOL    HW111646   0.952   2.878  13.386 -0.6117 -1.4016  0.3392
33307SOL    HW211647   0.928   2.836  13.529 -1.1600  2.0376  1.3532
33308SOL     OW11648   4.342   1.340   8.605 -0.3595  1.0307  0.3314
33308SOL    HW111649   4.342   1.245   8.616  0.1140  1.1724  1.8940
33308SOL    HW211650   4.297   1.356   8.523  0.0690 -0.5777 -0.2375
33309SOL     OW11651   9.521   6.481  13.479 -0.5903  0.1115  0.0280
33309SOL    HW111652   9.474   6.554  13.520 -0.9556  0.9979 -1.8442
33309SOL    HW211653   9.602   6.474  13.529 -0.2924  2.2123 -0.0478
33310SOL     OW11654   5.690   1.915   1.591 -0.0516  0.2407  0.1905
33310SOL    HW111655   5.608   1.911   1.641 -0.4080  1.1384 -0.3083
33310SOL    HW211656   5.736   1.991   1.625 -0.0724  0.5699 -0.5061
33311SOL     OW11657   4.516  12.044   8.766  0.0789  0.2623 -0.5589
33311SOL    HW111658   4.474  11.959   8.781 -0.1079  0.4876  0.2790
33311SOL    HW211659   4.450  12.096   8.723 -0.2037  0.3306 -0.0534
33312SOL     OW11660   1.141   8.136   9.637 -0.2023  0.1142 -0.8888
33312SOL    HW111661   1.207   8.075   9.605 -0.2785  0.0528 -0.9256
33312SOL    HW211662   1.190   8.194   9.696 -0.2313 -0.2861 -0.4718
33313SOL     OW11663   5.373   1.609  11.223 -0.1835 -0.8588 -0.0002
33313SOL    HW111664   5.420   1.537  11.265 -1.9661 -1.4351  1.0789
33313SOL    HW211665   5.301   1.630  11.283 -0.7557  0.6385 -1.1407
33314SOL     OW11666   4.471  12.144   9.530  0.2083 -0.1494  0.1863
33314SOL    HW111667   4.476  12.102   9.444  0.5247  0.1250  0.0670
33314SOL    HW211668   4.442  12.233   9.511  1.4303  0.2833  0.2349
33315SOL     OW11669  13.320   4.569   8.314  0.0373  0.6606 -0.0193
33315SOL    HW111670  13.375   4.643   8.290  1.9628 -0.9209 -0.7411
33315SOL    HW211671  13.360   4.494   8.271 -0.7907 -1.1245  2.1133
33316SOL     OW11672   9.192   8.586   7.643 -0.3956  0.3274 -0.3513
33316SOL    HW111673   9.212   8.529   7.569 -1.4022  1.4575 -1.5463
33316SOL    HW211674   9.269   8.641   7.654  0.1888 -0.5763  0.1740
33317SOL     OW11675  11.134   8.799  11.431 -0.2433  0.1765  0.5809
33317SOL    HW111676  11.129   8.848  11.349 -1.0972 -0.5429  0.1893
33317SOL    HW211677  11.057   8.827  11.480 -0.8225 -0.8591  0.2908
33318SOL     OW11678  11.595   3.546   0.979  0.0432  0.4783  0.5482
33318SOL    HW111679  11.652   3.599   1.036 -1.1922 -0.1580  2.4835
33318SOL    HW211680  11.508   3.582   0.993 -0.1076  1.6777 -2.6534
33319SOL     OW11681   0.290  10.193   1.245 -0.2439 -0.2153 -0.3410
33319SOL    HW111682   0.382  10.190   1.273 -0.6594  0.3699  1.2127
33319SOL    HW211683   0.287  10.264   1.180  0.0946  1.0583  0.9822
33320SOL     OW11684   1.228   5.645   7.985 -0.2797 -0.0688 -0.7346
33320SOL    HW111685   1.241   5.728   7.940 -0.6800 -0.6827 -2.0083
33320SOL    HW211686   1.136   5.625   7.973  0.2829 -1.8589 -2.5349
33321SOL     OW11687   6.902   0.147   2.840  0.0421 -0.4717  0.0177
33321SOL    HW111688   6.997   0.134   2.837 -0.0767 -1.2969 -1.0013
33321SOL    HW211689   6.883   0.165   2.932  1.0599 -1.4458  0.4465
33322SOL     OW11690   9.142   4.231   6.706 -0.0129 -0.4942  0.4389
33322SOL    HW111691   9.191   4.216   6.787  1.3849  0.5367 -0.1703
33322SOL    HW211692   9.124   4.325   6.707 -0.8262 -0.6437  0.0007
33323SOL     OW11693  13.082   5.151   2.347 -0.3202 -0.2626  0.6907
33323SOL    HW111694  13.064   5.078   2.408 -0.5146 -0.9207 -0.1312
33323SOL    HW211695  13.139   5.112   2.281  0.0967  0.5203  0.5890
33324SOL     OW11696  13.020   9.656  11.427  0.0195  0.6828 -0.1402
33324SOL    HW111697  13.100   9.684  11.382 -0.2922  0.6038 -0.7502
33324SOL    HW211698  13.044   9.657  11.520  0.8171  0.3721 -0.3347
33325SOL     OW11699   2.900   9.686  12.351 -0.8849 -0.0429 -0.1099
33325SOL    HW111700   2.918   9.765  12.301  0.5408 -0.4612 -0.2937
33325SOL    HW211701   2.828   9.710  12.410 -1.9808  0.7228 -1.6816
33326SOL     OW11702   1.975  13.132   6.237 -0.3799 -0.5067  0.1705
33326SOL    HW111703   2.040  13.081   6.188  1.1172  0.6555  0.8536
33326SOL    HW211704   1.955  13.206   6.180  1.5598  0.9902  1.2684
33327SOL     OW11705   1.631   3.792  13.450 -0.3588  0.1504 -0.1065
33327SOL    HW111706   1.640   3.702  13.481 -1.1237 -0.2062 -0.8545
33327SOL    HW211707   1.594   3.839  13.524 -2.7293 -0.8119 -0.5713
33328SOL     OW11708   6.153   2.896   7.926  0.0982  0.4003 -0.1163
33328SOL    HW111709   6.123   2.896   7.835  0.1898  0.9953 -0.1493
33328SOL    HW211710   6.101   2.826   7.968  1.3967 -1.1845 -1.0359
33329SOL     OW11711   4.199  11.052  13.347 -0.4265  0.1156 -0.1652
33329SOL    HW111712   4.272  11.060  13.286 -0.1703  1.9549  0.3249
33329SOL    HW211713   4.230  11.094  13.427 -1.4593 -0.5015  0.5818
33330SOL     OW11714   7.476  13.060   3.609  0.0425  0.0572  0.0851
33330SOL    HW111715   7.561  13.025   3.583 -0.0753  0.9279 -1.6947
33330SOL    HW211716   7.420  12.984   3.621  0.3660 -0.4643 -1.4945
33331SOL     OW11717   2.017   2.461   4.158  0.7954 -0.6362 -0.1897
33331SOL    HW111718   2.007   2.395   4.226 -0.2262  0.5874  0.9052
33331SOL    HW211719   2.111   2.478   4.154  0.8495 -0.5100  1.1691
33332SOL     OW11720   2.553   9.953   8.953 -0.5840  0.9829  0.1487
33332SOL    HW111721   2.537   9.969   8.860 -1.1879 -1.2178 -0.1792
33332SOL    HW211722   2.612  10.024   8.980 -0.8488  1.9846 -1.7589
33333SOL     OW11723  11.534  12.609   2.902 -0.0537  0.0290 -0.2122
33333SOL    HW111724  11.612  12.562   2.871  0.1815  0.3523 -0.1221
33333SOL    HW211725  11.526  12.683   2.842  0.6442  0.8900  0.7144
33334SOL     OW11726   4.787   8.908  11.804  0.5338  0.2736 -0.5546
33334SOL    HW111727   4.696   8.884  11.787  0.5266 -0.4740  0.4047
33334SOL    HW211728   4.816   8.953  11.725 -1.2440  2.2371 -0.1611
33335SOL     OW11729   9.690  11.679   1.718 -0.5786 -0.2275  0.1579
33335SOL    HW111730   9.683  11.600   1.771 -1.8671  0.1013  0.5098
33335SOL    HW211731   9.762  11.728   1.758 -1.2839 -0.1597  1.3894
33336SOL     OW11732  10.057   5.432   3.562 -0.2401  0.3641  0.0164
33336SOL    HW111733  10.108   5.386   3.629 -2.5924 -1.1582  0.8924
33336SOL    HW211734  10.010   5.500   3.610 -0.9951  0.0660 -0.2811
33337SOL     OW11735   2.608   7.323   4.746 -0.4213  0.4425 -0.5608
33337SOL    HW111736   2.518   7.312   4.779 -1.7033  2.3972 -2.9970
33337SOL    HW211737   2.636   7.235   4.723 -1.7763 -0.2060  0.1673
33338SOL     OW11738   2.398  13.390   4.238 -0.0250 -0.0994 -0.0632
33338SOL    HW111739   2.446  13.308   4.245  0.7920  0.5079  2.4204
33338SOL    HW211740   2.328  13.383   4.302 -1.3269  0.3205 -1.3804
33339SOL     OW11741   7.707   8.936  13.329  0.3792  0.3830 -0.9717
33339SOL    HW111742   7.791   8.981  13.337 -0.4709  1.8309  0.3954
33339SOL    HW211743   7.721   8.851  13.370  1.1265  0.6847 -0.5895
33340SOL     OW11744   2.976  10.451   0.679 -0.1970 -0.2012 -0.5742
33340SOL    HW111745   3.003  10.392   0.609  0.3416  1.3086 -1.7032
33340SOL    HW211746   3.054  10.504   0.698 -0.9741  0.9610 -0.4714
33341SOL     OW11747   8.962   1.561   5.849 -0.6150  0.8155  0.2586
33341SOL    HW111748   8.869   1.581   5.845 -0.3603  1.9729 -0.1927
33341SOL    HW211749   9.005   1.635   5.806  0.5113  0.2662  0.3893
33342SOL     OW11750   6.544  10.090  11.654 -0.2626  0.1014 -0.1467
33342SOL    HW111751   6.597  10.013  11.671  0.1087  0.3315 -0.2495
33342SOL    HW211752   6.559  10.111  11.561  0.6117  1.0199  0.1849
33343SOL     OW11753   2.559  12.551   3.277  0.3422  0.5975  0.2435
33343SOL    HW111754   2.616  12.624   3.302  0.0691  1.2437 -0.9316
33343SOL    HW211755   2.504  12.536   3.353  1.2737  0.7480  0.9715
33344SOL     OW11756  11.283  12.951   8.029 -0.2196  0.2094  0.2501
33344SOL    HW111757  11.242  12.951   7.942  0.9647 -0.6040 -0.3522
33344SOL    HW211758  11.210  12.948   8.091 -1.0847  0.4810 -0.7284
33345SOL     OW11759   5.451  10.873   1.044  0.0562 -0.1802  0.4184
33345SOL    HW111760   5.382  10.908   0.987  0.4387  0.2893  0.2309
33345SOL    HW211761   5.526  10.862   0.986  0.3694  0.0485  0.7756
33346SOL     OW11762   7.818   2.361   3.860  0.2625 -0.4168  0.5586
33346SOL    HW111763   7.829   2.409   3.942 -0.4006 -0.8017  0.8808
33346SOL    HW211764   7.724   2.364   3.844  0.0919 -2.3359  1.0373
33347SOL     OW11765   0.328  11.486   1.488 -0.2456  0.2024  0.1081
33347SOL    HW111766   0.325  11.391   1.505  0.2996 -0.0971 -1.3417
33347SOL    HW211767   0.348  11.524   1.574  0.9030 -1.1077  0.4666
33348SOL     OW11768   1.855   2.525  11.676  0.0122  0.2275 -0.9146
33348SOL    HW111769   1.833   2.432  11.670 -2.6793  0.6390  0.9043
33348SOL    HW211770   1.797   2.567  11.612 -1.8289  0.9609  1.1227
33349SOL     OW11771   6.221   4.368  11.370 -0.1887 -0.0665  0.1751
33349SOL    HW111772   6.256   4.316  11.442 -1.8986 -0.8489  0.4966
33349SOL    HW211773   6.135   4.330  11.354 -0.0251  0.3750 -1.9977
33350SOL     OW11774   1.200  13.554   0.931  0.0284 -0.5250 -0.0108
33350SOL    HW111775   1.223  13.646   0.913 -1.9168 -0.4682 -2.8956
33350SOL    HW211776   1.134  13.559   1.000 -0.7802  0.3769 -0.8108
33351SOL     OW11777   4.288   6.846   9.970  0.0526 -0.4841  0.2658
33351SOL    HW111778   4.337   6.898   9.907  0.9637  1.0044  2.1045
33351SOL    HW211779   4.202   6.888   9.975  0.0021 -0.5636  0.0667
33352SOL     OW11780   9.573   3.753   2.257  0.4020  0.0159 -0.1396
33352SOL    HW111781   9.521   3.723   2.182  1.2159  0.1451 -0.7705
33352SOL    HW211782   9.618   3.674   2.288  0.5632  0.0854 -0.1946
33353SOL     OW11783   5.050   9.524   3.401  0.0217 -0.1813  0.1932
33353SOL    HW111784   5.099   9.495   3.324 -0.1379  0.2069 -0.0587
33353SOL    HW211785   5.005   9.446   3.433  1.3350 -0.7071  0.8360
33354SOL     OW11786  12.290   4.313   0.536 -0.1688 -0.3124  0.1455
33354SOL    HW111787  12.225   4.244   0.525 -1.3408  0.4068  2.0899
33354SOL    HW211788  12.251   4.374   0.598  1.4284  1.3804 -0.4119
33355SOL     OW11789   1.852   5.449   6.703  0.0289  0.1978 -0.3656
33355SOL    HW111790   1.869   5.535   6.664  0.2078 -0.2025 -1.1985
33355SOL    HW211791   1.757   5.440   6.700  0.1059 -0.4841 -2.2272
33356SOL     OW11792   3.342   7.831  10.357  0.0930 -0.0275 -0.4053
33356SOL    HW111793   3.257   7.787  10.356  1.1110 -2.1198 -0.9382
33356SOL    HW211794   3.344   7.878  10.274 -0.3052 -0.4792 -0.6820
33357SOL     OW11795   3.156   8.124  12.521 -0.4343 -0.2541  0.5749
33357SOL    HW111796   3.077   8.132  12.467  0.1777 -1.7302 -0.5796
33357SOL    HW211797   3.134   8.172  12.601 -2.3525 -0.2963  0.1256
33358SOL     OW11798   7.570   1.442   3.341 -0.4135  0.4245 -0.1570
33358SOL    HW111799   7.664   1.464   3.337 -0.3669  0.3636  0.5736
33358SOL    HW211800   7.532   1.510   3.396 -0.6815  0.0482  0.1226
33359SOL     OW11801  10.858   5.080   6.369  0.2523  0.0650 -0.0027
33359SOL    HW111802  10.795   5.062   6.439  1.2085  1.4421  1.2789
33359SOL    HW211803  10.832   5.166   6.336  1.3943  0.6315  0.5159
33360SOL     OW11804  11.557   9.318   9.933  0.0179 -0.1238 -0.4694
33360SOL    HW111805  11.568   9.261  10.009  0.1478 -0.4131 -0.7044
33360SOL    HW211806  11.642   9.315   9.889  0.0070  0.2046 -0.5145
33361SOL     OW11807   4.132  13.613  10.941  0.1497 -0.1152  0.5108
33361SOL    HW111808   4.120  13.696  10.988  0.8736 -0.8415  2.0408
33361SOL    HW211809   4.221  13.618  10.906 -0.1764  0.1749 -0.2970
33362SOL     OW11810  12.329  11.177   0.678 -0.3504  0.0085  0.8678
33362SOL    HW111811  12.323  11.093   0.722  0.3647 -0.6274 -0.1985
33362SOL    HW211812  12.394  11.226   0.729  2.2355 -1.5721 -0.7128
33363SOL     OW11813   6.779   4.356  12.099 -0.0874  0.1341  0.0508
33363SOL    HW111814   6.742   4.390  12.018 -1.3765 -0.5127  0.3402
33363SOL    HW211815   6.811   4.269  12.075  0.1152  0.1986  0.0873
33364SOL     OW11816   0.730   0.388   3.555 -0.4523  0.3003  0.2018
33364SOL    HW111817   0.713   0.314   3.496  0.4398  1.1190 -1.1503
33364SOL    HW211818   0.644   0.425   3.574 -0.7117  0.5675 -1.3584
33365SOL     OW11819   5.210   0.216   6.728  0.2279 -0.2254 -0.1593
33365SOL    HW111820   5.235   0.179   6.643  1.5110 -1.3791  0.6852
33365SOL    HW211821   5.267   0.172   6.791 -1.3674 -0.1336  1.4258
33366SOL     OW11822  11.695   8.930   3.386  0.1415  0.3555  0.3010
33366SOL    HW111823  11.723   8.916   3.477  1.7656  2.7359  0.2595
33366SOL    HW211824  11.761   8.884   3.334  0.8921  1.3823  0.3122
33367SOL     OW11825   8.210   8.837   3.593  0.0281  0.9332 -0.5025
33367SOL    HW111826   8.293   8.877   3.567  0.4911  0.4795  0.2295
33367SOL    HW211827   8.144   8.884   3.543  0.9643 -1.2596 -4.2138
33368SOL     OW11828  11.946  10.094   1.649 -0.3807 -0.0248 -0.4449
33368SOL    HW111829  12.038  10.112   1.666 -0.9267  0.8420  1.8807
33368SOL    HW211830  11.898  10.158   1.701 -2.3246 -0.5548 -1.4681
33369SOL     OW11831   6.527   8.407  12.586 -0.1460 -0.2649 -0.0601
33369SOL    HW111832   6.433   8.394  12.574 -0.2062  1.1107 -1.2981
33369SOL    HW211833   6.565   8.385  12.501  0.8288 -1.9885  0.7585
33370SOL     OW11834  13.041   6.589  13.041  0.0009  0.1110  0.0094
33370SOL    HW111835  12.950   6.619  13.036  0.3534  1.3068  0.5476
33370SOL    HW211836  13.090   6.665  13.071  1.4873  0.0886 -2.1131
33371SOL     OW11837   0.011   1.276   7.867 -0.1679 -0.6568 -1.0839
33371SOL    HW111838   0.085   1.310   7.817  1.4958 -0.7595  1.1299
33371SOL    HW211839   0.021   1.315   7.954 -2.4175 -1.1329 -0.5454
33372SOL     OW11840  13.043   5.525   9.050 -0.7264 -0.1804  0.6759
33372SOL    HW111841  13.109   5.460   9.024 -0.9038 -0.2114  0.2987
33372SOL    HW211842  12.981   5.475   9.103 -0.9177 -0.3423  0.3028
33373SOL     OW11843  11.529   2.281   4.183 -0.1391  0.2451 -0.0486
33373SOL    HW111844  11.598   2.216   4.195 -0.5132 -0.0005  0.8687
33373SOL    HW211845  11.543   2.316   4.095  2.1901  1.4108  0.6993
33374SOL     OW11846   2.320  11.757   2.462  0.4383  0.2539 -0.2287
33374SOL    HW111847   2.269  11.708   2.526 -0.0658  0.1315 -0.7108
33374SOL    HW211848   2.396  11.789   2.511  0.3431 -0.2916  0.2939
33375SOL     OW11849   1.094  12.390   1.644  0.4772 -0.3733 -0.2599
33375SOL    HW111850   1.108  12.306   1.601  1.5510 -0.1510 -0.3723
33375SOL    HW211851   1.128  12.379   1.732 -1.5131 -0.7538  0.5047
33376SOL     OW11852   2.177  10.554  11.031 -0.5404  0.5082  0.5429
33376SOL    HW111853   2.225  10.492  10.976 -0.4939  1.9922 -1.1603
33376SOL    HW211854   2.231  10.562  11.110  0.8042  0.3480 -0.3316
33377SOL     OW11855   2.090   1.478   0.239  0.6636 -0.4811 -0.5077
33377SOL    HW111856   2.106   1.389   0.272  0.8786 -0.1370  0.3527
33377SOL    HW211857   2.050   1.524   0.313  2.1639  0.6296 -0.3391
33378SOL     OW11858   4.324   2.844  12.369  0.3844 -0.5243  0.6011
33378SOL    HW111859   4.384   2.873  12.300  0.6969 -0.9598  0.6796
33378SOL    HW211860   4.241   2.828  12.324  0.4198 -0.2348  0.4321
33379SOL     OW11861   3.173  11.462   7.462 -0.5300  0.2315 -0.2596
33379SOL    HW111862   3.161  11.547   7.505 -1.9085  0.1170 -0.3847
33379SOL    HW211863   3.234  11.415   7.520 -0.6160  0.9031  0.3955
33380SOL     OW11864  10.728   8.491   3.104  0.5962 -0.3610 -0.5282
33380SOL    HW111865  10.698   8.402   3.083  0.1113 -0.3711  0.1693
33380SOL    HW211866  10.771   8.521   3.024 -2.7876  0.3118 -2.2871
33381SOL     OW11867   0.982   4.428  13.413  0.7557 -0.1966  0.0647
33381SOL    HW111868   0.978   4.457  13.504  1.0835  0.0475  0.0017
33381SOL    HW211869   1.060   4.470  13.378  0.8086 -0.5503 -0.2406
33382SOL     OW11870  11.380   6.379  10.279 -0.7368  0.7115 -0.2184
33382SOL    HW111871  11.300   6.345  10.240 -0.0320 -0.3412 -0.7875
33382SOL    HW211872  11.445   6.372  10.210  0.5413 -1.1599  1.0749
33383SOL     OW11873   1.052  11.679   4.087 -0.5475 -0.5603  0.3170
33383SOL    HW111874   1.141  11.664   4.119  0.9173  1.2486 -2.4409
33383SOL    HW211875   1.008  11.595   4.094  1.4336 -1.5427  1.6310
33384SOL     OW11876   6.338   7.202  11.338  0.1957  0.5699 -0.3029
33384SOL    HW111877   6.335   7.297  11.348 -1.3599  0.4133  1.0612
33384SOL    HW211878   6.330   7.188  11.243 -1.5587  1.7848 -0.3924
33385SOL     OW11879   4.605  13.520   7.348  0.5342 -0.2090 -0.3151
33385SOL    HW111880   4.690  13.546   7.313  1.5837 -1.8626  0.8490
33385SOL    HW211881   4.605  13.552   7.438  0.9529 -2.1754  0.4407
33386SOL     OW11882   7.223   2.754   2.656  0.3059 -0.3658  0.0205
33386SOL    HW111883   7.269   2.792   2.582  0.8471 -1.1810 -0.0781
33386SOL    HW211884   7.284   2.688   2.691 -0.3808 -0.7618  0.5046
33387SOL     OW11885   9.776   7.565   0.013 -0.1466 -0.2269 -0.1109
33387SOL    HW111886   9.729   7.605   0.086 -2.0222 -0.5519 -1.0763
33387SOL    HW211887   9.867   7.562   0.042 -0.8005 -0.2229  2.1457
33388SOL     OW11888   8.833   5.275   5.441 -0.7137  0.6520  0.6693
33388SOL    HW111889   8.892   5.344   5.410  0.4158 -0.0365  1.2194
33388SOL    HW211890   8.870   5.194   5.406 -1.8461  0.2739  0.2962
33389SOL     OW11891  13.079   2.875   1.612 -0.2027  0.1220  0.2242
33389SOL    HW111892  13.112   2.947   1.665  1.8320 -1.1189  0.7568
33389SOL    HW211893  13.157   2.823   1.592 -1.6528 -2.1819  0.2442
33390SOL     OW11894   9.659  11.980  12.514 -0.0392  0.0403 -0.1681
33390SOL    HW111895   9.592  11.938  12.569 -0.3724  0.1926 -0.4559
33390SOL    HW211896   9.739  11.930  12.532 -0.7426 -1.7555 -1.6689
33391SOL     OW11897   9.607   2.561   2.987  0.1349 -0.0722 -0.1864
33391SOL    HW111898   9.699   2.567   3.012  0.6634 -1.6518 -1.5262
33391SOL    HW211899   9.577   2.479   3.026 -1.2306  1.1995  1.6138
33392SOL     OW11900  12.657   4.050   3.116 -0.1461 -0.0385  0.1602
33392SOL    HW111901  12.645   4.144   3.106  1.5358 -0.0009 -2.6093
33392SOL    HW211902  12.610   4.012   3.042 -1.2439 -1.4797  1.5199
33393SOL     OW11903   5.057   6.208   4.080 -0.6822 -0.4580 -0.6802
33393SOL    HW111904   5.123   6.140   4.066  1.3265  1.3955 -0.8402
33393SOL    HW211905   5.033   6.199   4.172  0.9274 -0.2767 -0.2123
33394SOL     OW11906   1.390  13.693   8.168  0.0813 -0.3043 -0.2502
33394SOL    HW111907   1.464  13.751   8.181 -1.1191  0.8307  2.2402
33394SOL    HW211908   1.369  13.701   8.075  1.5654  1.2442 -0.4948
33395SOL     OW11909   0.267   9.819   4.489 -0.1053  0.0099 -0.2166
33395SOL    HW111910   0.296   9.741   4.536 -1.6673 -0.9929 -0.8287
33395SOL    HW211911   0.346   9.871   4.478  1.0624 -1.6493 -0.0879
33396SOL     OW11912  11.128   5.631  13.551  0.0372  0.3561  0.8487
33396SOL    HW111913  11.058   5.667  13.606  0.0289 -0.2647  1.2525
33396SOL    HW211914  11.158   5.705  13.499 -0.9859  0.6144  0.6057
33397SOL     OW11915  12.963   9.668   5.767 -0.2883  0.1913  0.6615
33397SOL    HW111916  12.879   9.654   5.722 -0.9905 -0.0623  1.9926
33397SOL    HW211917  13.024   9.692   5.698 -1.4990  0.5010 -0.3274
33398SOL     OW11918   4.781   1.261   0.165  0.1218 -0.2200 -0.6282
33398SOL    HW111919   4.806   1.316   0.092 -0.0214  2.0197  0.9094
33398SOL    HW211920   4.853   1.270   0.228 -0.5111 -0.7642  0.2016
33399SOL     OW11921   6.680   7.442   8.404  0.3925  0.1197  0.0507
33399SOL    HW111922   6.758   7.420   8.354 -0.7656 -3.7479 -0.4230
33399SOL    HW211923   6.696   7.530   8.438  4.4612 -0.1178 -0.8197
33400SOL     OW11924   1.596   2.860   4.281 -0.0847 -0.1138  0.0191
33400SOL    HW111925   1.680   2.875   4.239  0.2094  0.4513  0.7906
33400SOL    HW211926   1.566   2.776   4.246  2.0182 -1.6493  1.7060
33401SOL     OW11927   8.423   7.752   9.037 -0.0789 -0.3661 -0.2119
33401SOL    HW111928   8.474   7.747   9.118  0.7783  2.1913 -0.5227
33401SOL    HW211929   8.482   7.790   8.973 -0.8368 -2.0458 -2.0439
33402SOL     OW11930  13.621  12.287   6.179 -0.0428 -0.0551 -0.3639
33402SOL    HW111931  13.654  12.296   6.269 -2.0636  1.2089  0.2988
33402SOL    HW211932  13.649  12.367   6.135 -2.4662  1.2527  0.3353
33403SOL     OW11933   5.662   9.524  10.007  0.1666  0.0172  0.1084
33403SOL    HW111934   5.709   9.440  10.002 -1.4945 -1.1121  1.9102
33403SOL    HW211935   5.659   9.555   9.917  2.0798 -1.1171 -0.4145
33404SOL     OW11936   7.006   2.670   0.340 -0.1930 -0.1363  0.0614
33404SOL    HW111937   7.079   2.627   0.385  0.7136  0.8630 -0.4140
33404SOL    HW211938   6.978   2.607   0.274  0.2187 -0.5434  0.2707
33405SOL     OW11939   0.541   1.088   9.456 -0.1814  0.1869 -0.4653
33405SOL    HW111940   0.468   1.144   9.482 -0.4864  0.2366 -1.4084
33405SOL    HW211941   0.525   1.069   9.364 -0.3393 -1.8424 -0.0661
33406SOL     OW11942   7.949  13.722   4.196  0.1828  0.3673  0.7924
33406SOL    HW111943   7.952  13.635   4.158 -0.7455  0.8849 -0.5147
33406SOL    HW211944   8.036  13.734   4.235  1.1824 -0.2090 -1.1289
33407SOL     OW11945  12.228  13.456  11.695 -0.2261 -0.2807  0.4107
33407SOL    HW111946  12.138  13.490  11.698  0.2444  1.1316 -0.4238
33407SOL    HW211947  12.236  13.403  11.774 -1.8739 -0.6494  0.3779
33408SOL     OW11948  13.106   4.841   1.147 -0.2603  0.6300 -0.2304
33408SOL    HW111949  13.201   4.826   1.140 -0.5129 -1.2549 -0.0113
33408SOL    HW211950  13.090   4.917   1.091  1.3121  0.7015 -0.6414
33409SOL     OW11951   7.311   1.325   5.667  0.1155 -0.1184 -0.6197
33409SOL    HW111952   7.280   1.247   5.622 -0.1885 -0.1618 -0.3369
33409SOL    HW211953   7.382   1.294   5.723 -0.7979 -0.4155  0.4083
33410SOL     OW11954   5.212   9.355   5.560  0.5240  0.4411 -0.3533
33410SOL    HW111955   5.299   9.351   5.599  0.5418  1.3940 -0.2731
33410SOL    HW211956   5.152   9.337   5.633  0.6054  1.0092 -0.1454
33411SOL     OW11957   6.266   9.250   2.984 -0.2678  0.6626  0.0643
33411SOL    HW111958   6.229   9.217   3.066  0.8640 -1.0076 -0.0328
33411SOL    HW211959   6.254   9.178   2.922  1.7380  0.6100 -0.3381
33412SOL     OW11960   5.916   6.754   9.367  0.3846 -0.2888  0.1790
33412SOL    HW111961   5.968   6.736   9.446  0.7454  1.4254  0.3811
33412SOL    HW211962   5.927   6.848   9.353 -3.0162  0.2753  0.4753
33413SOL     OW11963   0.758   6.267   8.312  0.1205  0.3254 -0.1565
33413SOL    HW111964   0.814   6.251   8.236 -0.7855  0.4445 -0.8596
33413SOL    HW211965   0.799   6.341   8.357  1.3573 -0.5207  0.1776
33414SOL     OW11966   8.981  11.835   3.374 -0.2417 -0.1986  0.3589
33414SOL    HW111967   9.067  11.841   3.334  0.1058 -1.9805  0.7306
33414SOL    HW211968   8.955  11.925   3.391  0.8997  0.4377 -1.0938
33415SOL     OW11969   7.768   6.700  10.093  0.3666 -0.5573 -0.3776
33415SOL    HW111970   7.847   6.744  10.124  0.3673 -1.7224  1.4638
33415SOL    HW211971   7.699   6.732  10.151 -0.6641  0.7977 -2.2527
33416SOL     OW11972   2.571   0.172   1.545  0.2510  0.0227 -0.2789
33416SOL    HW111973   2.575   0.168   1.640  0.9536 -0.6777 -0.3238
33416SOL    HW211974   2.596   0.262   1.523 -1.7598  0.7562  0.2517
33417SOL     OW11975   8.521   7.823  11.017  0.1233 -0.5106 -1.0605
33417SOL    HW111976   8.484   7.896  10.966 -0.0836 -0.1485 -0.3994
33417SOL    HW211977   8.445   7.773  11.046  0.0983  0.4104  0.5641
33418SOL     OW11978   4.816   9.320   7.690 -0.1047 -0.7740  0.0233
33418SOL    HW111979   4.772   9.364   7.763 -1.3040  0.3597 -1.3156
33418SOL    HW211980   4.775   9.357   7.612  3.2125  0.3681 -1.3683
33419SOL     OW11981  13.032   3.821   1.693  0.1704 -0.3357 -0.0177
33419SOL    HW111982  12.979   3.803   1.771  0.8973 -0.6402  0.4115
33419SOL    HW211983  13.013   3.748   1.634  0.1015 -0.4354  0.1276
33420SOL     OW11984   8.098   9.658   8.601 -0.2129  0.6103 -0.0604
33420SOL    HW111985   8.180   9.696   8.571 -0.6467  0.6340 -1.2654
33420SOL    HW211986   8.101   9.567   8.571 -0.3494  0.4305  0.4563
33421SOL     OW11987   3.443   7.502   5.104 -0.2711 -0.0448 -0.5294
33421SOL    HW111988   3.454   7.503   5.199 -0.2164 -1.5875 -0.4875
33421SOL    HW211989   3.440   7.594   5.079 -1.0045  0.3919  1.0412
33422SOL     OW11990  13.570   8.931   0.696  0.6881  0.0623 -0.2534
33422SOL    HW111991  13.587   9.024   0.679 -0.1447 -0.1124 -2.2909
33422SOL    HW211992  13.485   8.914   0.657 -0.1276 -1.1341  1.8947
33423SOL     OW11993  12.461   1.193  10.496  0.2244  0.5307 -0.2103
33423SOL    HW111994  12.533   1.180  10.559  0.8590 -0.6605 -1.1398
33423SOL    HW211995  12.382   1.199  10.551  0.6361 -1.4813  0.6755
33424SOL     OW11996   0.223   2.646   5.716  0.0302  0.2861 -0.0590
33424SOL    HW111997   0.235   2.739   5.700  0.9466 -0.0394 -1.4573
33424SOL    HW211998   0.143   2.640   5.768  1.1969  1.9996  2.0874
33425SOL     OW11999   5.383   8.332   7.308 -0.0581 -0.1479 -0.4990
33425SOL    HW112000   5.370   8.398   7.240  2.5060  0.0021 -0.9499
33425SOL    HW212001   5.450   8.274   7.272 -0.5656 -1.6420  0.8438
33426SOL     OW12002   2.668   1.118  11.560 -0.0734 -0.3615 -0.1856
33426SOL    HW112003   2.676   1.071  11.477  0.7154  2.7817 -2.0382
33426SOL    HW212004   2.574   1.136  11.569 -0.0808 -0.0632 -0.8106
33427SOL     OW12005   1.580   1.781  12.060  0.1160  0.4766  0.4817
33427SOL    HW112006   1.645   1.845  12.034  1.0855 -0.9947 -0.9405
33427SOL    HW212007   1.630   1.712  12.104 -0.7879  0.3119  1.2887
33428SOL     OW12008   4.380   6.476   6.374 -0.1411 -0.1843  0.2998
33428SOL    HW112009   4.368   6.393   6.420 -1.6195 -1.2864 -1.8693
33428SOL    HW212010   4.467   6.469   6.334  1.1995  0.8317  2.8455
33429SOL     OW12011   2.438  12.554   7.386 -0.3154  0.2638 -0.0215
33429SOL    HW112012   2.504  12.579   7.451 -0.5864 -0.0017  0.3628
33429SOL    HW212013   2.375  12.627   7.387 -0.3312  0.2504  0.0357
33430SOL     OW12014   7.103  11.862   2.449 -0.3732 -0.4091 -0.7108
33430SOL    HW112015   7.037  11.801   2.483 -1.6434  2.2131  1.9545
33430SOL    HW212016   7.056  11.945   2.439  2.0443  1.0405 -0.7779
33431SOL     OW12017  11.923   7.692   5.513 -0.6588 -0.0291  0.1304
33431SOL    HW112018  11.983   7.662   5.581 -0.4452 -2.9301 -1.1943
33431SOL    HW212019  11.836   7.667   5.544 -0.8497  0.9047  0.4031
33432SOL     OW12020   2.220   1.245   7.301  0.4429  0.7317  0.2950
33432SOL    HW112021   2.304   1.273   7.265  0.3461  1.2928  0.4866
33432SOL    HW212022   2.223   1.274   7.392  0.4491 -0.1521  0.5820
33433SOL     OW12023  10.563   3.552   3.855  0.3033  0.4681 -0.0470
33433SOL    HW112024  10.472   3.579   3.867 -0.3114 -0.5553 -2.0130
33433SOL    HW212025  10.604   3.566   3.941 -1.3374  2.2193  0.5253
33434SOL     OW12026   3.317   7.949   0.850 -0.5292  0.3163 -0.3103
33434SOL    HW112027   3.321   8.040   0.822 -0.7370  0.8711  1.3243
33434SOL    HW212028   3.401   7.934   0.895 -0.3950 -0.3809 -0.7739
33435SOL     OW12029   0.381   8.956  11.191  0.0890  0.3154  0.1442
33435SOL    HW112030   0.471   8.963  11.222 -0.1816  2.3899  0.6210
33435SOL    HW212031   0.385   8.895  11.118  2.0767  1.2491 -0.5906
33436SOL     OW12032  13.389  10.336   0.703  0.4218 -0.5588 -0.0653
33436SOL    HW112033  13.386  10.267   0.636 -0.5374  0.5882 -1.2485
33436SOL    HW212034  13.347  10.296   0.780  0.8391 -1.6301 -0.3717
33437SOL     OW12035   1.317   4.638  11.852  0.0532  0.2935 -0.8039
33437SOL    HW112036   1.235   4.602  11.886  0.0096  0.7304 -0.4481
33437SOL    HW212037   1.300   4.731  11.837  0.2108  0.2089 -1.5971
33438SOL     OW12038   7.404   3.223   9.179  0.2762 -0.6777 -0.6858
33438SOL    HW112039   7.332   3.239   9.118 -0.0255 -1.8070 -0.6430
33438SOL    HW212040   7.450   3.148   9.143 -0.1461 -1.6323  0.6671
33439SOL     OW12041  11.648   0.394  10.476  0.3065  0.7414 -0.4372
33439SOL    HW112042  11.707   0.402  10.401 -0.2053  0.5733 -0.8626
33439SOL    HW212043  11.604   0.310  10.463 -1.2442  1.5857 -1.0361
33440SOL     OW12044   8.677   5.213   2.345 -0.2305  0.9158  0.2343
33440SOL    HW112045   8.667   5.126   2.306 -0.6150  0.2930  1.6355
33440SOL    HW212046   8.589   5.250   2.344 -0.3666  0.6385  1.0369
33441SOL     OW12047  12.509   1.518   4.566 -0.4470 -0.6197  0.5597
33441SOL    HW112048  12.535   1.585   4.630 -0.8071 -0.5694  0.6544
33441SOL    HW212049  12.568   1.533   4.492  0.2298 -0.9233  1.0215
33442SOL     OW12050   7.309  12.510   7.432  0.7920 -0.3453  0.3487
33442SOL    HW112051   7.290  12.494   7.524 -2.7173 -3.2663 -0.6091
33442SOL    HW212052   7.367  12.439   7.406 -0.0754 -0.9012 -0.1198
33443SOL     OW12053  10.059   8.584   0.168 -0.3341  0.1857  0.2971
33443SOL    HW112054   9.987   8.534   0.207  0.7966 -2.1510 -0.4504
33443SOL    HW212055  10.119   8.599   0.241  0.0231 -0.9244  0.2562
33444SOL     OW12056   3.519   4.538   6.014 -0.2186 -0.6592 -0.0725
33444SOL    HW112057   3.512   4.443   6.011  1.5961 -0.8320  0.3397
33444SOL    HW212058   3.613   4.556   6.011 -0.5428  1.2148 -2.7358
33445SOL     OW12059   3.827   6.478   9.302 -0.5024 -0.1090 -0.5513
33445SOL    HW112060   3.894   6.545   9.316 -0.6392 -0.2685  1.0144
33445SOL    HW212061   3.759   6.498   9.366 -2.9452  1.1823 -3.2713
33446SOL     OW12062   2.024  13.020  11.605 -0.1908  0.1966  0.1628
33446SOL    HW112063   1.939  13.055  11.631  0.3795  0.1996  2.1618
33446SOL    HW212064   2.067  12.995  11.687  2.1405  1.0980 -0.6744
33447SOL     OW12065   1.439   6.391   0.980  0.2942  0.2573  0.0518
33447SOL    HW112066   1.516   6.375   0.925  0.4157  0.2758  0.2140
33447SOL    HW212067   1.443   6.484   1.000 -0.2938  0.4505 -0.7123
33448SOL     OW12068   6.895  12.481   5.570 -0.0355  0.2237 -0.2225
33448SOL    HW112069   6.980  12.445   5.594  0.7808  1.8364 -0.5009
33448SOL    HW212070   6.837  12.406   5.565  1.3031 -0.8828  0.2821
33449SOL     OW12071  11.770   1.077  12.999  0.4761  0.1780 -0.0104
33449SOL    HW112072  11.770   0.991  12.957 -1.3428  0.3293 -0.3917
33449SOL    HW212073  11.831   1.129  12.947  1.0332 -0.6689 -0.2201
33450SOL     OW12074   5.163   9.590   3.651 -0.1212 -0.0893  0.0178
33450SOL    HW112075   5.110   9.578   3.730 -0.0132  0.3543  0.1584
33450SOL    HW212076   5.105   9.563   3.580 -0.1387 -0.7166  0.2647
33451SOL     OW12077   8.469  13.345   9.645 -0.3125 -0.3735  0.0794
33451SOL    HW112078   8.419  13.320   9.723 -1.5393  0.9210 -0.2482
33451SOL    HW212079   8.448  13.278   9.580  1.2971 -1.8836  1.0262
33452SOL     OW12080   8.893   6.948   7.581  0.1933  0.1195 -0.3236
33452SOL    HW112081   8.933   7.002   7.649 -1.4622 -0.1427  0.9040
33452SOL    HW212082   8.893   7.004   7.503 -0.0480  1.3234  0.5169
33453SOL     OW12083  10.255   3.518   8.469  0.3870  0.6521  0.1092
33453SOL    HW112084  10.237   3.425   8.482  1.0304 -0.0209 -3.0605
33453SOL    HW212085  10.224   3.560   8.550 -0.2189 -2.2321  1.4986
33454SOL     OW12086   7.779  10.654  12.838 -0.0549 -0.3910 -0.3741
33454SOL    HW112087   7.784  10.586  12.771  0.8270  0.4459 -1.1734
33454SOL    HW212088   7.685  10.671  12.847 -0.1787 -0.3582 -1.5647
33455SOL     OW12089   5.168   7.944   8.631  0.0398  0.4997 -0.0459
33455SOL    HW112090   5.100   7.945   8.697  0.7441 -0.1877  0.7085
33455SOL    HW212091   5.198   7.853   8.627  1.9249  1.0318  0.7393
33456SOL     OW12092   7.687  10.616   1.863  0.7085 -0.1033  0.0759
33456SOL    HW112093   7.689  10.539   1.805 -3.1357  0.6927 -1.3636
33456SOL    HW212094   7.630  10.590   1.935  0.0990  1.0849  0.0372
33457SOL     OW12095  13.739   7.097   0.345 -0.1744 -0.0404 -0.2970
33457SOL    HW112096  13.776   7.079   0.259  0.3441  0.6349 -0.2234
33457SOL    HW212097  13.788   7.173   0.377 -2.2466  1.4826 -0.5890
33458SOL     OW12098  10.458  13.060   1.028  0.2332 -0.0035 -0.0265
33458SOL    HW112099  10.454  13.035   0.936  0.1143 -0.0338 -0.0128
33458SOL    HW212100  10.480  13.154   1.025 -0.8610  0.2693 -0.1187
33459SOL     OW12101  11.334   0.755   6.254 -0.4156 -0.3956  0.1421
33459SOL    HW112102  11.400   0.697   6.216 -0.0405  0.1046  0.0265
33459SOL    HW212103  11.340   0.741   6.349  0.0410 -0.1491  0.1479
33460SOL     OW12104  11.042   1.783   2.876  0.3018  0.7712 -0.0675
33460SOL    HW112105  10.992   1.806   2.954  0.2840 -0.9809  0.4626
33460SOL    HW212106  11.083   1.866   2.849 -0.6799  1.6577  1.0546
33461SOL     OW12107   7.767   4.850   8.514 -0.6497  0.1884  0.7063
33461SOL    HW112108   7.693   4.811   8.560 -1.0448  0.7605  0.5597
33461SOL    HW212109   7.839   4.844   8.577 -0.4690 -1.5277  0.3840
33462SOL     OW12110   8.452   7.265  10.887 -0.0149  0.5500  0.0035
33462SOL    HW112111   8.485   7.351  10.912 -0.0271  0.3728  0.6591
33462SOL    HW212112   8.368   7.283  10.845 -0.0738  0.8539  0.2447
33463SOL     OW12113   4.818   7.048  12.410 -0.1756 -0.0579 -0.4689
33463SOL    HW112114   4.844   7.010  12.327 -1.0469 -0.4951 -0.5515
33463SOL    HW212115   4.726   7.023  12.421  0.1096 -0.6281  0.9581
33464SOL     OW12116  10.866   5.037   6.045  0.8063 -0.2869 -0.7147
33464SOL    HW112117  10.798   5.052   5.979  1.3625  0.6334 -1.1121
33464SOL    HW212118  10.871   4.942   6.053 -0.0833 -0.3876 -1.1373
33465SOL     OW12119   6.914   2.575   7.540  0.2116  0.0431 -0.7181
33465SOL    HW112120   6.922   2.485   7.508 -1.4465  0.0680 -1.3547
33465SOL    HW212121   6.873   2.622   7.467  0.2252  1.1061 -0.0609
33466SOL     OW12122   0.036   6.118   1.513 -0.4284  0.1771 -0.1264
33466SOL    HW112123   0.127   6.139   1.531 -0.9219  0.1451  2.8994
33466SOL    HW212124   0.039   6.033   1.469  1.0023  0.2642 -0.2175
33467SOL     OW12125  10.761   9.729   9.106 -0.3851  0.2770 -0.0297
33467SOL    HW112126  10.743   9.675   9.029 -0.4075  2.4575 -1.6461
33467SOL    HW212127  10.675   9.744   9.145 -0.4137 -0.5504  0.2541
33468SOL     OW12128   8.863   1.241   0.715 -0.5070 -0.7978 -0.3770
33468SOL    HW112129   8.797   1.214   0.651 -1.1425  1.5665 -0.8168
33468SOL    HW212130   8.819   1.231   0.800 -0.3800 -1.9885 -0.4368
33469SOL     OW12131   6.576   7.058   9.130 -0.1515 -0.0119  0.1455
33469SOL    HW112132   6.586   6.998   9.057  0.4737 -1.0342  1.0430
33469SOL    HW212133   6.628   7.019   9.200 -1.2894  0.5827  1.3530
33470SOL     OW12134   6.501   3.057  11.239  0.7499  0.4689 -0.2541
33470SOL    HW112135   6.566   3.125  11.256  1.7843 -0.5747  0.0342
33470SOL    HW212136   6.542   3.000  11.174  0.8184 -1.1304  1.1215
33471SOL     OW12137   4.851   9.775   4.998  0.0183 -0.7178  0.1784
33471SOL    HW112138   4.878   9.811   4.913  2.6380 -1.7160  0.4759
33471SOL    HW212139   4.785   9.709   4.977 -0.0672 -0.2913 -0.9827
33472SOL     OW12140   2.658   8.777   1.439  0.4496 -0.3742 -0.1929
33472SOL    HW112141   2.598   8.742   1.505  0.6286  3.1428  2.1378
33472SOL    HW212142   2.600   8.810   1.370 -0.3458  1.5387  1.2776
33473SOL     OW12143   5.800  12.971   7.835 -0.0488 -0.1806 -0.2277
33473SOL    HW112144   5.722  13.027   7.830 -0.8236 -1.0166  1.5736
33473SOL    HW212145   5.777  12.892   7.787 -0.5906 -0.6904  0.8338
33474SOL     OW12146   2.760  12.696   2.831  0.1158 -0.8066  0.0086
33474SOL    HW112147   2.730  12.758   2.764  0.8257 -0.3462  0.1039
33474SOL    HW212148   2.723  12.612   2.805 -4.2518  0.2225  1.9600
33475SOL     OW12149   6.647   2.105   0.133  0.2549 -0.0696 -0.6819
33475SOL    HW112150   6.565   2.127   0.178  0.1387  2.9639 -2.0666
33475SOL    HW212151   6.624   2.032   0.076 -0.8183 -0.8654  0.7046
33476SOL     OW12152  10.825   8.778   0.510 -0.2032  0.3104 -0.6232
33476SOL    HW112153  10.791   8.844   0.571 -0.5453  2.8543 -3.3190
33476SOL    HW212154  10.747   8.729   0.482 -0.3286  0.3863 -0.4151
33477SOL     OW12155   7.190  13.153   6.189 -0.1739 -0.3511  0.1649
33477SOL    HW112156   7.106  13.132   6.149 -0.3802  0.5158  0.1213
33477SOL    HW212157   7.199  13.090   6.261 -0.1417 -1.4312 -0.7655
33478SOL     OW12158   8.037  11.351   9.884  0.0729  0.0402 -0.3782
33478SOL    HW112159   7.959  11.319   9.839  1.5467 -0.6304 -2.6353
33478SOL    HW212160   8.040  11.300   9.965 -2.0808  0.4931  0.0499
33479SOL     OW12161   3.866   5.124   8.271 -0.2054  0.2772  0.3937
33479SOL    HW112162   3.907   5.087   8.349 -2.6241 -1.7493  0.8216
33479SOL    HW212163   3.871   5.054   8.206 -0.6783  0.9366 -0.3633
33480SOL     OW12164   0.410  12.173   5.298 -0.1486  0.6737  0.3857
33480SOL    HW112165   0.454  12.255   5.319 -1.5697  1.9889 -1.4513
33480SOL    HW212166   0.480  12.113   5.272  0.7742  1.8754  0.0601
33481SOL     OW12167   0.772   2.759   5.232  0.0556  0.0439  0.1136
33481SOL    HW112168   0.783   2.852   5.249  1.4311 -0.4562  2.3547
33481SOL    HW212169   0.703   2.755   5.165  1.4666  2.7171 -1.7062
33482SOL     OW12170   2.493   1.826  10.596  0.2687 -0.0739  0.1468
33482SOL    HW112171   2.579   1.838  10.635  0.5390 -0.9713 -0.1424
33482SOL    HW212172   2.503   1.750  10.538 -1.2623 -1.6050  1.7624
33483SOL     OW12173   1.603   4.288   8.833 -0.0875 -0.0155 -0.0048
33483SOL    HW112174   1.510   4.266   8.826 -0.1848 -0.0517  1.2581
33483SOL    HW212175   1.615   4.314   8.924  0.3791  3.5033 -0.9220
33484SOL     OW12176   1.156  12.416   7.994  0.1277  0.2933 -0.0966
33484SOL    HW112177   1.207  12.452   8.066 -1.6650  1.4841  0.6441
33484SOL    HW212178   1.163  12.321   8.005  1.0977  0.4497  0.7419
33485SOL     OW12179   3.696  11.059   2.123  0.3014  0.3491  0.1037
33485SOL    HW112180   3.655  10.991   2.176  2.9340 -0.1718  1.6519
33485SOL    HW212181   3.650  11.056   2.039 -0.9569 -1.9709  0.8024
33486SOL     OW12182   9.947   3.961   7.212 -0.4819  0.1741 -0.1312
33486SOL    HW112183   9.873   3.970   7.272 -0.9003 -3.7316  0.1985
33486SOL    HW212184  10.019   4.006   7.257 -1.9539  1.6759  0.8453
33487SOL     OW12185  10.055   8.521   9.984 -0.1042 -0.0251  0.4195
33487SOL    HW112186  10.010   8.456  10.039  0.7485 -0.1151  1.0227
33487SOL    HW212187  10.143   8.486   9.972 -0.1211  0.2467 -0.6046
33488SOL     OW12188   8.849   3.452  13.658  0.0507  0.1326  0.4637
33488SOL    HW112189   8.944   3.462  13.652  0.1633 -0.8020  0.5900
33488SOL    HW212190   8.834   3.358  13.650 -0.9309  0.3467 -0.4358
33489SOL     OW12191   0.189   7.901   6.510  0.3147 -0.4762 -0.0124
33489SOL    HW112192   0.134   7.848   6.567  1.8528 -1.5762  0.5294
33489SOL    HW212193   0.140   7.906   6.428 -0.7746 -1.0582  0.5730
33490SOL     OW12194   3.709  10.501   7.273  0.4098 -0.1432 -0.1080
33490SOL    HW112195   3.779  10.491   7.338  0.3231  0.9022  0.1661
33490SOL    HW212196   3.635  10.538   7.322 -0.5018 -1.6236 -0.3000
33491SOL     OW12197   7.151   1.848   3.322 -0.5440 -0.3629 -0.1030
33491SOL    HW112198   7.122   1.758   3.331  0.1885 -0.6430 -0.5050
33491SOL    HW212199   7.194   1.868   3.406 -0.8002 -0.3484  0.0257
33492SOL     OW12200   7.827   7.647   9.288 -0.1613  0.6707  0.1974
33492SOL    HW112201   7.833   7.579   9.221 -0.1825  1.2980 -0.4534
33492SOL    HW212202   7.765   7.711   9.253  0.1837  1.2401  0.6000
33493SOL     OW12203  10.656   8.157   6.229 -0.5115 -0.8748  0.1734
33493SOL    HW112204  10.677   8.172   6.137  0.8336  0.1630  0.6269
33493SOL    HW212205  10.567   8.191   6.239 -0.2791 -0.0324 -0.5147
33494SOL     OW12206   1.898   9.124   0.551 -0.1133 -0.2667  0.1517
33494SOL    HW112207   1.873   9.213   0.530  1.2762 -0.3941 -2.4941
33494SOL    HW212208   1.869   9.072   0.475 -0.4681 -1.9843  1.4024
33495SOL     OW12209  10.378   8.779   5.259  0.0162 -0.0024  0.5992
33495SOL    HW112210  10.332   8.698   5.239  0.1449  0.5261 -2.2619
33495SOL    HW212211  10.310   8.837   5.295 -0.3154 -0.9486  1.5564
33496SOL     OW12212   3.609   3.538  11.460 -0.0575  0.6189 -0.4654
33496SOL    HW112213   3.515   3.552  11.474  0.0294  1.1091 -0.3687
33496SOL    HW212214   3.650   3.566  11.542  0.0597 -1.0034  0.0727
33497SOL     OW12215   2.719  10.165   8.650 -0.5614 -0.4071  0.5029
33497SOL    HW112216   2.765  10.165   8.566 -1.2590 -0.3214  0.1191
33497SOL    HW212217   2.766  10.229   8.703 -2.1530  2.0794 -0.9391
33498SOL     OW12218  10.412  10.707   1.797  0.4263  0.3077  0.2206
33498SOL    HW112219  10.355  10.685   1.871  2.4384 -1.8671  1.2433
33498SOL    HW212220  10.454  10.625   1.774  0.6373  1.1359 -2.7551
33499SOL     OW12221   7.170   9.329  12.636  0.1969 -0.4417 -0.0001
33499SOL    HW112222   7.255   9.342  12.678  0.1478 -1.8507  0.5571
33499SOL    HW212223   7.107   9.365  12.697  0.3388  0.1388 -0.1856
33500SOL     OW12224   4.858   9.755  11.725 -0.3878 -0.0270 -0.3649
33500SOL    HW112225   4.913   9.677  11.736 -2.7793 -1.7044  0.7136
33500SOL    HW212226   4.779   9.722  11.681 -1.8998  1.5578  1.0281
33501SOL     OW12227   2.211   1.583   0.582 -0.2446  0.0982  0.0380
33501SOL    HW112228   2.167   1.629   0.654 -0.8831 -0.6091  0.1135
33501SOL    HW212229   2.150   1.514   0.557 -0.4625  0.8958 -1.8178
33502SOL     OW12230  13.232   9.328   6.873 -0.0212 -0.2101  0.2777
33502SOL    HW112231  13.217   9.240   6.840 -1.5574  0.2719 -0.3736
33502SOL    HW212232  13.184   9.385   6.814 -2.6967  0.7278  3.0987
33503SOL     OW12233   4.617   3.208   8.578  0.1424 -0.4846  0.5336
33503SOL    HW112234   4.522   3.218   8.575 -0.0967 -2.0247  1.7569
33503SOL    HW212235   4.636   3.148   8.506  0.1947 -0.1544  0.2710
33504SOL     OW12236   6.205   7.010   6.371  0.2752  0.0777  0.1513
33504SOL    HW112237   6.223   6.965   6.288 -0.6102 -0.0841  0.0341
33504SOL    HW212238   6.240   6.952   6.438 -0.7408 -0.7435 -0.0049
33505SOL     OW12239   2.697   7.472   9.897 -0.4424  0.0796  0.0559
33505SOL    HW112240   2.752   7.430   9.963 -0.4593  0.6753  0.4491
33505SOL    HW212241   2.678   7.402   9.834  1.6334  0.0989 -0.6731
33506SOL     OW12242  10.636   8.744  12.561 -0.4122  0.5012  0.2593
33506SOL    HW112243  10.650   8.830  12.602 -1.6434  0.6500  0.4077
33506SOL    HW212244  10.674   8.681  12.622  0.0761  0.8951  0.3725
33507SOL     OW12245   7.832   5.375  12.932  0.2948 -0.0234 -0.1767
33507SOL    HW112246   7.771   5.407  12.866  0.0526 -2.1437 -1.0666
33507SOL    HW212247   7.806   5.419  13.013 -1.3374  0.3617 -0.8795
33508SOL     OW12248   7.936  13.363  10.415  0.3817 -0.6873 -0.0931
33508SOL    HW112249   7.912  13.294  10.353 -0.4902 -0.0091 -0.5425
33508SOL    HW212250   7.853  13.386  10.458  0.4119  0.8843 -0.8057
33509SOL     OW12251   9.473   4.846   9.979  0.1892  0.1748 -0.5963
33509SOL    HW112252   9.445   4.799  10.057  3.0304 -0.2621  0.2717
33509SOL    HW212253   9.437   4.795   9.906 -1.6565  0.0184  0.3556
33510SOL     OW12254   4.233   3.720   7.458 -0.0796 -0.6343  0.0065
33510SOL    HW112255   4.142   3.700   7.480 -0.0002  0.1260  1.0637
33510SOL    HW212256   4.257   3.651   7.395 -0.9047 -1.7367  0.8462
33511SOL     OW12257   9.815  10.755   8.072 -0.3095 -0.0555 -0.2437
33511SOL    HW112258   9.815  10.684   8.136 -0.9842  0.2033  0.0461
33511SOL    HW212259   9.878  10.726   8.005  0.7660 -0.1014  0.7628
33512SOL     OW12260   0.228   0.204  12.433 -0.1995 -0.7229 -0.5969
33512SOL    HW112261   0.229   0.158  12.348  0.4621 -2.2702  0.2122
33512SOL    HW212262   0.139   0.192  12.465  0.1706 -2.1827 -0.0382
33513SOL     OW12263   3.379  13.237  11.099  0.3637 -0.2012  0.2353
33513SOL    HW112264   3.451  13.277  11.050 -1.6318  0.2330 -2.5952
33513SOL    HW212265   3.311  13.304  11.100 -1.0877 -1.6197  0.1850
33514SOL     OW12266   8.289  10.139  13.677  0.1614  0.0815 -0.1516
33514SOL    HW112267   8.207  10.132  13.726 -0.3806 -0.5897 -1.1080
33514SOL    HW212268   8.307  10.049  13.647  3.2534 -0.6210  3.0990
33515SOL     OW12269   6.898  12.122   1.378  0.6408 -0.0419 -0.0715
33515SOL    HW112270   6.918  12.128   1.285 -0.7806  1.9227 -0.3041
33515SOL    HW212271   6.818  12.173   1.389 -0.9022 -2.6108  1.7631
33516SOL     OW12272  10.702   2.999  11.054  0.2013  0.5175  0.6918
33516SOL    HW112273  10.767   2.993  11.125  1.0114 -1.0725 -0.1342
33516SOL    HW212274  10.742   2.954  10.980 -0.4485  2.4967 -0.9693
33517SOL     OW12275  12.606  10.164   5.051 -0.2763  0.3123 -0.4349
33517SOL    HW112276  12.544  10.142   4.983  0.0897 -0.3773 -0.5510
33517SOL    HW212277  12.608  10.087   5.108  0.0292  0.5584 -0.1069
33518SOL     OW12278   7.441   3.759   7.166 -0.2524  0.1026 -0.0005
33518SOL    HW112279   7.502   3.752   7.092 -0.3137 -0.6016  0.0154
33518SOL    HW212280   7.386   3.681   7.160 -1.9652  1.3079 -0.7353
33519SOL     OW12281   7.237   0.951   0.581 -0.3063 -0.2239 -0.4530
33519SOL    HW112282   7.280   0.870   0.607 -1.7682 -1.1300 -0.7099
33519SOL    HW212283   7.207   0.990   0.663  2.0284  1.0775 -0.1487
33520SOL     OW12284   5.515   7.573   8.097 -0.3783  0.0869  0.6087
33520SOL    HW112285   5.490   7.488   8.133 -0.2317  0.3746  1.4106
33520SOL    HW212286   5.484   7.571   8.007 -0.2041 -0.8929  0.5630
33521SOL     OW12287   9.698   7.367  10.210  0.7433  0.0710  0.3716
33521SOL    HW112288   9.643   7.292  10.232  0.4662  0.3502  0.6435
33521SOL    HW212289   9.746   7.386  10.291  0.1151  0.7689  0.5999
33522SOL     OW12290  11.143   7.013   3.643 -0.3528  0.1314  0.2475
33522SOL    HW112291  11.180   6.960   3.713  0.7669 -0.7577 -0.9700
33522SOL    HW212292  11.102   7.087   3.688 -1.0337 -1.2023  1.9131
33523SOL     OW12293   1.843  11.221  11.631 -0.0278  0.4940 -0.1885
33523SOL    HW112294   1.793  11.286  11.679 -2.1827 -1.1070 -0.1326
33523SOL    HW212295   1.825  11.138  11.676  2.3034 -0.2682 -0.4859
33524SOL     OW12296   2.778   7.203   0.159 -0.3140  0.3528 -0.5768
33524SOL    HW112297   2.758   7.118   0.198 -1.1057  1.3248  1.2602
33524SOL    HW212298   2.871   7.217   0.176  0.1033 -0.5767 -1.8709
33525SOL     OW12299   2.058  12.964   6.765  0.0976 -0.4862 -0.0194
33525SOL    HW112300   2.069  13.000   6.677 -0.2542 -0.3053  0.0100
33525SOL    HW212301   2.146  12.940   6.792  0.4885  1.1605  0.3093
33526SOL     OW12302  11.641   0.614   5.166  0.3403  0.0142 -0.1861
33526SOL    HW112303  11.673   0.549   5.104 -0.6577 -0.1214 -0.5883
33526SOL    HW212304  11.646   0.697   5.119  3.1360  0.5455  0.8730
33527SOL     OW12305   0.208  12.754   7.898 -0.5092  0.4909 -0.5585
33527SOL    HW112306   0.135  12.787   7.951 -0.8427  1.3972 -1.5459
33527SOL    HW212307   0.276  12.821   7.905 -0.5355  0.5907 -1.2164
33528SOL     OW12308  10.266   1.838  10.807  0.3982  0.7682  0.2385
33528SOL    HW112309  10.192   1.798  10.760  0.8227 -0.4608  0.5622
33528SOL    HW212310  10.233   1.849  10.897  0.3039  1.0814  0.1646
33529SOL     OW12311  11.667   3.307   8.051  0.2965  0.0823  0.1219
33529SOL    HW112312  11.634   3.316   7.962  1.0076  1.7427 -0.0037
33529SOL    HW212313  11.733   3.238   8.046 -1.4779 -1.6902 -0.0703
33530SOL     OW12314   3.408  13.081  11.329 -0.2914 -0.7354  0.1635
33530SOL    HW112315   3.469  13.015  11.295 -0.7834 -0.9997 -0.2342
33530SOL    HW212316   3.366  13.117  11.251 -1.8336 -1.7311  0.4812
33531SOL     OW12317   7.117   3.590   1.363 -0.2413 -0.4567 -0.3364
33531SOL    HW112318   7.097   3.516   1.305 -1.4655  0.0648 -0.6124
33531SOL    HW212319   7.075   3.665   1.321 -1.5159 -0.1212  1.4143
33532SOL     OW12320   1.564   1.760   3.726  0.2553 -0.1484 -0.1745
33532SOL    HW112321   1.614   1.701   3.783  0.0129 -0.9284 -0.7535
33532SOL    HW212322   1.488   1.785   3.778  0.6605  0.1382  0.2935
33533SOL     OW12323   9.414  12.400  11.514 -0.1867 -0.5080 -0.1609
33533SOL    HW112324   9.382  12.480  11.473 -1.7648 -1.1927 -0.3230
33533SOL    HW212325   9.360  12.330  11.478 -1.8135 -1.1515  3.1237
33534SOL     OW12326   5.025   6.617  10.302  0.5834  0.6814  0.5065
33534SOL    HW112327   5.015   6.707  10.272  2.1053  1.4031  1.9874
33534SOL    HW212328   4.985   6.616  10.389 -1.5739 -0.7401 -0.4213
33535SOL     OW12329   5.678   7.447   5.571  0.2760  0.8689  0.3460
33535SOL    HW112330   5.717   7.512   5.630  0.1822  0.7553  0.5359
33535SOL    HW212331   5.594   7.486   5.546  0.3683  0.9699  0.1939
33536SOL     OW12332  13.417  10.839  10.524  0.1541  0.0670  0.3920
33536SOL    HW112333  13.424  10.747  10.497 -0.9688 -0.1214  0.6702
33536SOL    HW212334  13.462  10.842  10.608 -1.2683 -0.6506  1.2293
33537SOL     OW12335  10.139   9.848   9.422 -0.2392 -0.0432  0.0192
33537SOL    HW112336  10.140   9.822   9.514  1.6565  1.2717  0.4394
33537SOL    HW212337  10.097   9.934   9.422  0.5683  0.3650 -0.1761
33538SOL     OW12338  11.665   9.746   7.399  0.2054 -0.0618  0.2863
33538SOL    HW112339  11.674   9.841   7.404  0.1321 -0.1005  1.3135
33538SOL    HW212340  11.646   9.718   7.489  1.2647 -1.1500  0.2118
33539SOL     OW12341  12.265   2.539   3.744  0.1364 -0.4103 -0.1220
33539SOL    HW112342  12.328   2.485   3.791  0.4403  0.0428 -0.0035
33539SOL    HW212343  12.318   2.588   3.681 -0.2342 -0.8343 -0.7743
33540SOL     OW12344   2.068   3.537   0.603 -0.6365  0.2562 -0.3459
33540SOL    HW112345   2.055   3.510   0.694 -0.1114  0.0983 -0.3107
33540SOL    HW212346   2.163   3.540   0.592 -0.6777 -0.7341 -1.1720
33541SOL     OW12347   0.453   4.678   1.145  0.2914 -0.0826  0.5046
33541SOL    HW112348   0.392   4.738   1.187  0.1569  0.5467 -0.5585
33541SOL    HW212349   0.412   4.658   1.061  1.2531 -0.1395  0.0423
33542SOL     OW12350   9.963   0.591   0.583 -0.3314 -0.3820  0.5984
33542SOL    HW112351   9.929   0.571   0.496  1.0167 -0.8677  0.1428
33542SOL    HW212352   9.892   0.569   0.643 -1.1590 -0.3683 -0.3509
33543SOL     OW12353   4.354  12.593  12.100 -0.1006 -0.1850  0.6170
33543SOL    HW112354   4.416  12.529  12.066 -0.8128  0.8141 -2.9494
33543SOL    HW212355   4.407  12.672  12.114 -0.1966  0.1051 -0.5779
33544SOL     OW12356  10.878   3.232  12.535  0.1559  0.7001  0.3619
33544SOL    HW112357  10.870   3.158  12.595  0.9549  0.8188  0.6204
33544SOL    HW212358  10.804   3.289  12.556 -1.7907 -1.0432 -1.3217
33545SOL     OW12359   1.091   2.191   2.484  0.1746  0.0515 -0.0764
33545SOL    HW112360   1.077   2.146   2.400 -2.4381 -1.1738  0.8990
33545SOL    HW212361   1.066   2.282   2.467  1.3671  0.2336 -1.0135
33546SOL     OW12362  11.629   0.842   7.355 -0.2364 -0.6337 -0.2257
33546SOL    HW112363  11.673   0.760   7.331 -0.7907 -1.2593  0.8094
33546SOL    HW212364  11.699   0.898   7.389 -0.0502 -1.2111  0.3790
33547SOL     OW12365   8.624  12.894   7.670  0.3140 -0.2929 -0.2243
33547SOL    HW112366   8.534  12.926   7.664  0.1902 -0.8778 -2.5470
33547SOL    HW212367   8.617  12.808   7.711 -0.0463  0.1030  0.5573
33548SOL     OW12368   2.530   5.109   3.532  0.5867 -0.1582 -0.4419
33548SOL    HW112369   2.540   5.095   3.626  0.6884  1.2890 -0.2194
33548SOL    HW212370   2.619   5.109   3.498  0.6408  0.6683 -0.3187
33549SOL     OW12371   9.863   0.982  10.207  0.0128 -0.5958  0.3546
33549SOL    HW112372   9.879   0.961  10.299  1.4083 -0.8146  0.0830
33549SOL    HW212373   9.801   1.054  10.209 -0.6951 -1.2187  1.4433
33550SOL     OW12374   9.300   0.555   5.640 -0.3164 -0.2037 -0.1600
33550SOL    HW112375   9.303   0.469   5.681 -1.9530 -0.0552  0.3276
33550SOL    HW212376   9.290   0.537   5.547  0.6400 -0.5220 -0.2157
33551SOL     OW12377   5.580   0.986   0.957 -0.2948  0.4702  0.4114
33551SOL    HW112378   5.609   0.960   1.045  1.4288 -0.4608 -0.4026
33551SOL    HW212379   5.575   0.905   0.907 -1.5202  0.9587 -0.3258
33552SOL     OW12380   9.478   5.084  12.489  0.2970  0.0426  0.2143
33552SOL    HW112381   9.457   5.151  12.424  1.5487 -0.7697 -1.0792
33552SOL    HW212382   9.515   5.133  12.562  0.7008  0.8286 -0.4876
33553SOL     OW12383   8.046   4.630   6.204 -0.8626  0.5590  0.2793
33553SOL    HW112384   7.970   4.585   6.167 -0.4434  0.4345 -0.4339
33553SOL    HW212385   8.122   4.584   6.169 -0.3714  2.7164 -1.7263
33554SOL     OW12386  12.572  13.394   2.170 -0.0281  0.5407  0.4478
33554SOL    HW112387  12.642  13.349   2.218  1.1652  1.0936 -0.7102
33554SOL    HW212388  12.610  13.479   2.147 -0.9521  0.7127 -0.5019
33555SOL     OW12389   2.618  12.864   4.983 -0.2386 -0.4330  0.0118
33555SOL    HW112390   2.670  12.911   5.047 -1.0272  0.8123 -0.2376
33555SOL    HW212391   2.679  12.801   4.944  1.4395  1.7842 -1.1311
33556SOL     OW12392  12.397   4.140   3.400 -0.0209  0.0463 -0.7157
33556SOL    HW112393  12.321   4.137   3.458  0.2710  0.0636 -0.3303
33556SOL    HW212394  12.365   4.105   3.317 -0.6168  0.6312 -0.7476
33557SOL     OW12395  13.316   9.274   0.915 -0.4314  0.0057  0.0721
33557SOL    HW112396  13.369   9.310   0.986 -1.0325  2.2220 -0.4977
33557SOL    HW212397  13.350   9.318   0.836 -2.6657  1.0883 -0.3844
33558SOL     OW12398   0.569   2.036   2.806  0.4551 -0.6073  0.5782
33558SOL    HW112399   0.605   2.120   2.835 -2.0005  0.2874  1.2716
33558SOL    HW212400   0.530   1.998   2.884 -2.2720 -0.2924 -0.5197
33559SOL     OW12401   8.000   1.915  11.569 -0.3798  0.5474 -0.2188
33559SOL    HW112402   8.045   1.995  11.596 -1.5691  1.8735 -1.8662
33559SOL    HW212403   7.955   1.885  11.648  1.6144  0.3820  0.9120
33560SOL     OW12404   0.290  10.422   5.424  0.2750 -0.0601  0.8859
33560SOL    HW112405   0.351  10.448   5.354 -0.6021 -2.3595 -0.8419
33560SOL    HW212406   0.230  10.496   5.431 -0.5652 -0.3386 -1.9875
33561SOL     OW12407   1.166   1.545   9.625  0.1355 -0.1298 -0.1512
33561SOL    HW112408   1.215   1.567   9.705 -1.8463  0.6008  0.9230
33561SOL    HW212409   1.222   1.577   9.554  1.4525  0.1986  0.9801
33562SOL     OW12410  11.796  11.334   3.729 -0.3413 -0.4233  0.1531
33562SOL    HW112411  11.730  11.313   3.663 -2.1356 -0.4117  1.8630
33562SOL    HW212412  11.851  11.256   3.733 -0.4211 -0.5628 -1.0744
33563SOL     OW12413   0.479   2.244   9.171  0.5194  0.2452 -0.0517
33563SOL    HW112414   0.504   2.325   9.127 -1.3348  0.1754 -1.3947
33563SOL    HW212415   0.432   2.273   9.249 -0.0924  0.5062 -0.5002
33564SOL     OW12416   5.039   2.053   9.518  0.4915 -0.2578  0.6325
33564SOL    HW112417   5.132   2.030   9.524  0.6448  0.0944 -0.1936
33564SOL    HW212418   5.030   2.131   9.572  0.6748 -0.3026  0.7287
33565SOL     OW12419  13.096   8.143  13.067 -0.1524  0.3822  0.2622
33565SOL    HW112420  13.016   8.115  13.022  0.0967  0.7042 -0.3941
33565SOL    HW212421  13.145   8.062  13.082  1.3060  0.4963 -3.0219
33566SOL     OW12422   0.346  10.595  12.874 -0.2261 -0.3954  0.3590
33566SOL    HW112423   0.254  10.571  12.873 -0.2242 -0.3901 -0.2339
33566SOL    HW212424   0.351  10.674  12.927 -0.3874 -1.0935  1.4338
33567SOL     OW12425   3.995  11.347   1.036  0.0174  0.5887 -0.1677
33567SOL    HW112426   3.915  11.395   1.058  0.1786  0.4135  0.8441
33567SOL    HW212427   4.041  11.337   1.120  1.4406  1.2832 -0.8268
33568SOL     OW12428  10.432   5.121   5.692 -0.1530 -0.5237  0.2480
33568SOL    HW112429  10.467   5.167   5.616 -0.7865 -0.1593  0.1724
33568SOL    HW212430  10.347   5.161   5.707 -0.8378 -1.8259  0.0276
33569SOL     OW12431   8.228   3.496   1.928 -0.5615 -0.8045 -0.0398
33569SOL    HW112432   8.215   3.486   2.022 -0.5456 -1.6666 -0.1200
33569SOL    HW212433   8.195   3.414   1.890  0.5748 -0.9972 -0.6687
33570SOL     OW12434   2.877   6.028   8.261  0.1172  0.2227  0.4008
33570SOL    HW112435   2.823   6.041   8.339 -1.8749 -0.3924 -0.7862
33570SOL    HW212436   2.842   5.948   8.221  1.7609 -0.0494 -0.5973
33571SOL     OW12437  12.657  13.546   2.440 -0.0217 -0.2798  0.2202
33571SOL    HW112438  12.720  13.481   2.469  0.2609 -0.4305 -0.7007
33571SOL    HW212439  12.574  13.518   2.478  0.5354  0.2276  1.9028
33572SOL     OW12440   5.171   3.495   8.690 -0.0680 -0.2426 -0.0205
33572SOL    HW112441   5.086   3.537   8.678  0.4734  0.6483 -0.9213
33572SOL    HW212442   5.234   3.568   8.688  0.7547 -0.9394  0.0686
33573SOL     OW12443   1.232  11.192   0.839 -0.5210 -0.2508  0.3663
33573SOL    HW112444   1.310  11.185   0.784 -1.2050  0.3355 -0.7069
33573SOL    HW212445   1.266  11.213   0.926  0.4890  0.9293 -0.2801
33574SOL     OW12446  12.861   0.174   5.295 -0.0607 -0.3869  0.4845
33574SOL    HW112447  12.893   0.237   5.230  1.1811 -0.0133  1.4115
33574SOL    HW212448  12.910   0.094   5.275 -1.0575 -0.8530 -0.1920
33575SOL     OW12449   9.861   8.502  11.084  0.0154  0.3585  0.2547
33575SOL    HW112450   9.918   8.574  11.056 -0.5507  0.8407  0.3127
33575SOL    HW212451   9.916   8.424  11.078  0.2247  0.5922 -1.1740
33576SOL     OW12452   2.696   4.672   1.647 -0.2670  0.0330  0.0878
33576SOL    HW112453   2.708   4.672   1.552  1.4488  0.7234  0.2739
33576SOL    HW212454   2.776   4.633   1.681  0.4440  2.4204  1.3484
33577SOL     OW12455   8.823   7.400   7.002  0.1355 -0.3122  0.9007
33577SOL    HW112456   8.907   7.444   7.017 -0.3824  0.9423  0.1689
33577SOL    HW212457   8.776   7.411   7.085 -1.4611  3.8696 -0.3032
33578SOL     OW12458   0.752   7.947   2.758 -0.3993 -0.2067 -0.3520
33578SOL    HW112459   0.822   7.884   2.744  2.6625  2.9608 -0.7422
33578SOL    HW212460   0.765   7.978   2.847  0.5602  2.3389 -1.2915
33579SOL     OW12461   4.867   6.425  10.166  0.3274 -0.1616 -0.6904
33579SOL    HW112462   4.787   6.462  10.204  0.3904 -0.5571 -0.1589
33579SOL    HW212463   4.938   6.470  10.212  0.4070 -1.1520  0.2013
33580SOL     OW12464   1.475   4.682   9.412  0.2584  0.6511  0.2582
33580SOL    HW112465   1.530   4.716   9.482 -1.0250  0.2096  1.5119
33580SOL    HW212466   1.426   4.611   9.452  2.8365 -2.8563 -2.2401
33581SOL     OW12467   9.531   4.793  11.757 -0.8047 -0.3566 -0.3439
33581SOL    HW112468   9.519   4.888  11.750  0.6087 -0.0193  1.0810
33581SOL    HW212469   9.602   4.774  11.696  0.0725 -0.1749  0.5790
33582SOL     OW12470   4.523   2.653   8.135 -0.6338 -0.4392  0.2801
33582SOL    HW112471   4.532   2.564   8.171  1.8416  0.2405  1.5972
33582SOL    HW212472   4.547   2.644   8.043 -1.1520 -1.2348  0.2072
33583SOL     OW12473   5.391   0.858  10.324  0.0314  0.2204 -0.3863
33583SOL    HW112474   5.342   0.867  10.406  0.1284 -0.5670 -0.2396
33583SOL    HW212475   5.331   0.892  10.257 -0.7341 -0.7415 -0.2122
33584SOL     OW12476   9.942   7.317   6.382 -0.4660 -0.3229 -0.4761
33584SOL    HW112477   9.847   7.311   6.371 -1.3573  0.5407  4.4462
33584SOL    HW212478   9.964   7.405   6.352 -1.4103 -0.1640 -0.7223
33585SOL     OW12479   2.471  11.268  13.242 -0.1095  0.8793  0.1021
33585SOL    HW112480   2.538  11.199  13.245  0.3898  1.3745  1.8490
33585SOL    HW212481   2.390  11.223  13.265 -0.0362  0.6134 -0.1557
33586SOL     OW12482   2.030  11.817   3.501 -0.5268 -0.1152  0.1531
33586SOL    HW112483   1.971  11.867   3.558  0.8109  0.4517  1.0828
33586SOL    HW212484   2.095  11.780   3.561  0.6764  0.1435 -0.9678
33587SOL     OW12485  10.924   6.430   4.864 -0.4194 -0.0983 -0.3719
33587SOL    HW112486  10.890   6.503   4.813  0.9204  0.5264 -0.4217
33587SOL    HW212487  10.964   6.372   4.799  1.1635  0.6275 -0.1120
33588SOL     OW12488   0.488  11.371  10.245 -0.3303  0.1829  0.1455
33588SOL    HW112489   0.508  11.370  10.339 -0.9346 -0.6841  0.2771
33588SOL    HW212490   0.410  11.316  10.237  1.0183 -1.6584 -1.1445
33589SOL     OW12491   6.165   5.113   6.005  0.2991 -0.4225 -0.3590
33589SOL    HW112492   6.221   5.058   6.058 -0.0396 -1.5395 -1.1198
33589SOL    HW212493   6.164   5.070   5.919 -0.3314  0.5240 -0.8412
33590SOL     OW12494   0.130  11.666  10.532  0.2958 -0.1593  0.1858
33590SOL    HW112495   0.174  11.719  10.599 -2.0032  1.3274  0.6444
33590SOL    HW212496   0.049  11.637  10.574  0.0934 -1.5471 -1.0871
33591SOL     OW12497   2.421   4.703   8.783 -0.0253  0.3622 -0.0014
33591SOL    HW112498   2.375   4.620   8.775  2.3846 -1.3390  2.0587
33591SOL    HW212499   2.453   4.722   8.695 -0.0719 -1.2576 -0.3917
33592SOL     OW12500   0.632   6.197  10.494  0.0337  0.3317 -0.0338
33592SOL    HW112501   0.636   6.292  10.497 -1.9743  0.4547  0.3472
33592SOL    HW212502   0.704   6.171  10.436 -0.9626  2.2653 -2.3112
33593SOL     OW12503   0.769   0.668   3.519  0.3251  0.1708  0.1555
33593SOL    HW112504   0.731   0.580   3.522  0.0365  0.3214  1.4244
33593SOL    HW212505   0.860   0.655   3.546  0.2143  0.2917  0.5921
33594SOL     OW12506  10.532  10.515   6.104  0.3567  0.1010 -0.0245
33594SOL    HW112507  10.504  10.423   6.108 -0.0355  0.1931 -0.5964
33594SOL    HW212508  10.532  10.544   6.196 -0.1218 -0.2868  0.1007
33595SOL     OW12509  13.574   0.152   8.041 -0.2754  0.3557  0.2771
33595SOL    HW112510  13.496   0.101   8.017 -1.4598  2.4439 -0.6327
33595SOL    HW212511  13.646   0.089   8.036 -1.8510 -1.6459  1.0722
33596SOL     OW12512   7.122   6.731  12.416 -0.1680 -0.4692 -0.5690
33596SOL    HW112513   7.029   6.708  12.423 -0.2397  0.1292  1.0789
33596SOL    HW212514   7.168   6.648  12.420 -0.4783 -0.6714  3.6952
33597SOL     OW12515   0.070   8.863   5.341  0.6204  0.1119 -0.0700
33597SOL    HW112516   0.095   8.866   5.249  1.7963 -3.5696 -0.0404
33597SOL    HW212517  -0.025   8.866   5.341  0.5446 -1.1181 -1.5780
33598SOL     OW12518   3.373   5.675  13.033  0.7974 -0.1690 -0.0979
33598SOL    HW112519   3.290   5.637  13.064  0.8228 -0.4546 -0.3783
33598SOL    HW212520   3.377   5.651  12.941  0.1791  1.6307 -0.6413
33599SOL     OW12521   5.050   9.343   7.977 -0.0490  0.3597  0.2572
33599SOL    HW112522   5.122   9.314   8.033 -0.3484  0.6019  0.7707
33599SOL    HW212523   5.092   9.371   7.896  0.2190 -2.2325 -0.5950
33600SOL     OW12524  10.472   8.871   5.747  0.1775 -0.1615  0.4050
33600SOL    HW112525  10.521   8.833   5.674  0.6651  0.6477  0.3056
33600SOL    HW212526  10.529   8.858   5.823  0.1824  0.0366  0.4354
33601SOL     OW12527  11.765   3.122   6.858  0.0057  0.1928  0.5028
33601SOL    HW112528  11.750   3.192   6.794 -1.9782 -0.8387 -0.2619
33601SOL    HW212529  11.679   3.081   6.869  0.3115  0.1087  3.6389
33602SOL     OW12530  11.378  12.971   2.616 -0.3385  0.1050  0.0426
33602SOL    HW112531  11.364  12.881   2.585  0.0738  0.8529 -2.5369
33602SOL    HW212532  11.292  13.000   2.646 -1.3466  0.0326 -2.5715
33603SOL     OW12533   3.323   7.828   7.390  0.4188  0.3745 -0.3901
33603SOL    HW112534   3.359   7.759   7.445 -2.2110 -0.6059  0.2693
33603SOL    HW212535   3.355   7.909   7.428  0.5664 -0.3805  1.1663
33604SOL     OW12536  10.051   8.461  11.795 -0.0857 -0.4426 -0.2487
33604SOL    HW112537  10.060   8.367  11.809  0.9530 -0.4124 -0.5922
33604SOL    HW212538  10.134   8.498  11.824 -0.8073  0.4828  0.7190
33605SOL     OW12539   1.581  13.193   2.170 -0.5122 -0.3245 -0.4458
33605SOL    HW112540   1.662  13.206   2.121 -1.0879 -1.0682 -1.6413
33605SOL    HW212541   1.609  13.164   2.257  0.5029 -0.1786 -0.7183
33606SOL     OW12542   2.390   7.982   9.497  0.2513 -0.1426 -0.0148
33606SOL    HW112543   2.376   7.974   9.403  0.3132  0.5610 -0.0909
33606SOL    HW212544   2.481   7.954   9.510  1.4630  3.0147 -0.6860
33607SOL     OW12545   6.691   5.342   4.164 -0.1502  0.1732  0.3464
33607SOL    HW112546   6.714   5.433   4.180 -0.9110  0.5568 -0.6474
33607SOL    HW212547   6.643   5.343   4.081  0.4013 -1.2170 -0.0240
33608SOL     OW12548   7.237   9.903   5.953  0.1373  0.6084  0.5096
33608SOL    HW112549   7.167   9.851   5.913  1.4755 -1.2210  0.3839
33608SOL    HW212550   7.271   9.846   6.023  2.3720  0.8275 -0.3251
33609SOL     OW12551   6.685   7.833   7.076  0.0829 -0.5578  0.6797
33609SOL    HW112552   6.622   7.762   7.090  0.5370 -1.5284 -1.6968
33609SOL    HW212553   6.635   7.913   7.092 -1.3855 -1.3501  0.2387
33610SOL     OW12554   4.837   9.856   2.064 -0.0711  0.3737 -0.2750
33610SOL    HW112555   4.883   9.784   2.107 -0.2501  1.5429  2.0664
33610SOL    HW212556   4.745   9.826   2.061 -0.3658  0.8836  1.7858
33611SOL     OW12557   0.483  13.739   7.396 -0.0531 -0.0160  0.2251
33611SOL    HW112558   0.517  13.656   7.364  0.6345  0.4298 -0.2414
33611SOL    HW212559   0.391  13.723   7.414  0.0095 -0.8004 -0.1334
33612SOL     OW12560   6.135   3.767   9.134  0.2434 -0.1002  0.1183
33612SOL    HW112561   6.114   3.803   9.048  1.1431 -0.4272 -0.2495
33612SOL    HW212562   6.051   3.736   9.169  0.1123 -1.4970 -1.3573
33613SOL     OW12563  11.875   9.437  11.849 -0.1736  0.0210  0.3287
33613SOL    HW112564  11.869   9.532  11.851 -0.2606  0.0225 -0.0867
33613SOL    HW212565  11.834   9.409  11.931  0.9106  0.3970  1.0201
33614SOL     OW12566  11.407  11.965   3.318  0.3759 -0.1885 -0.0467
33614SOL    HW112567  11.396  11.914   3.238 -1.2064 -0.1786  0.1388
33614SOL    HW212568  11.367  11.911   3.387  0.7686  0.2744  0.5601
33615SOL     OW12569   3.552  13.210   3.706 -0.0004 -0.2938 -0.5626
33615SOL    HW112570   3.530  13.302   3.720  2.1007  0.5734 -2.4121
33615SOL    HW212571   3.619  13.192   3.772 -0.8164 -0.7126  0.1757
33616SOL     OW12572   0.941  11.884   3.647 -1.1191  0.2094 -0.4251
33616SOL    HW112573   0.979  11.971   3.635 -0.6258  0.0462 -0.0764
33616SOL    HW212574   0.926  11.877   3.741 -0.9678 -0.1586 -0.4252
33617SOL     OW12575  11.416  12.693   3.123 -0.5096  0.0471  0.0021
33617SOL    HW112576  11.467  12.679   3.043  0.9990  1.4998  0.6784
33617SOL    HW212577  11.346  12.627   3.117  1.2619 -1.8691 -1.0630
33618SOL     OW12578   4.367  11.329   2.597  0.0552 -0.8854 -0.3698
33618SOL    HW112579   4.366  11.420   2.567 -0.9712 -0.0954  1.8739
33618SOL    HW212580   4.312  11.282   2.533  0.2213  0.1546 -1.2938
33619SOL     OW12581  10.096   6.936   0.869 -0.8858  0.0217 -0.1435
33619SOL    HW112582  10.008   6.944   0.833 -1.2582 -0.8533  0.5241
33619SOL    HW212583  10.147   6.895   0.799 -1.3112 -0.5925 -0.0959
33620SOL     OW12584  12.092  11.445  12.640  0.0265  0.0777  0.6971
33620SOL    HW112585  12.048  11.471  12.559 -0.8275 -1.8686  0.4910
33620SOL    HW212586  12.185  11.461  12.624 -0.2353  0.7378 -0.2427
33621SOL     OW12587   2.415  12.269   7.403 -0.1626 -0.3556 -0.0531
33621SOL    HW112588   2.322  12.269   7.427  0.0494  2.0301  1.0995
33621SOL    HW212589   2.436  12.362   7.390  2.3676 -0.6926  1.0686
33622SOL     OW12590   8.338   5.014   7.699  0.2589  0.1407  0.2858
33622SOL    HW112591   8.367   5.066   7.625 -0.9897 -1.3613 -1.3614
33622SOL    HW212592   8.412   4.957   7.720  1.6263  2.4349  2.0985
33623SOL     OW12593   2.991  13.285   9.134 -0.2136 -0.1003  0.2285
33623SOL    HW112594   2.966  13.288   9.042  0.2966 -0.5347  0.0747
33623SOL    HW212595   2.924  13.231   9.176 -0.9432  0.8195  0.2796
33624SOL     OW12596   4.059   4.048   1.764 -0.2881 -0.3266 -0.1342
33624SOL    HW112597   4.105   4.005   1.692  0.4909  0.2766 -0.0154
33624SOL    HW212598   4.012   4.121   1.723  1.4802  1.0442  0.1330
33625SOL     OW12599   4.237  11.783   4.201  0.1645 -0.0401 -0.6233
33625SOL    HW112600   4.267  11.866   4.165 -0.8513  1.1612  1.1966
33625SOL    HW212601   4.170  11.753   4.139 -0.4423  1.1993 -0.5913
33626SOL     OW12602  11.744   3.620   3.401 -0.1414  0.2740  0.2114
33626SOL    HW112603  11.749   3.572   3.483  0.0978 -1.4697 -0.7648
33626SOL    HW212604  11.814   3.583   3.347 -1.0102  0.5514 -1.1697
33627SOL     OW12605   4.644   6.959  10.569  0.8493 -0.5910 -0.3616
33627SOL    HW112606   4.665   7.051  10.583 -0.8644 -0.0406 -1.1360
33627SOL    HW212607   4.618   6.927  10.656 -0.5892  0.2514 -0.4591
33628SOL     OW12608  13.142   5.720  11.750 -0.5670  0.5978 -0.4284
33628SOL    HW112609  13.055   5.682  11.764 -0.0553 -0.3239  0.4219
33628SOL    HW212610  13.140   5.803  11.797 -0.3479 -0.3666  1.3394
33629SOL     OW12611   3.615   8.484   9.030  0.4629 -0.0697  0.0195
33629SOL    HW112612   3.684   8.541   8.995  0.1263  0.4773  0.2201
33629SOL    HW212613   3.572   8.538   9.096 -0.7727 -0.0391 -0.7745
33630SOL     OW12614  12.046   1.525  10.847  0.3195  0.3011 -0.3196
33630SOL    HW112615  11.959   1.543  10.811  0.0942  0.4634  0.2868
33630SOL    HW212616  12.040   1.435  10.879  0.3474  0.3388 -0.2075
33631SOL     OW12617   2.843   8.884   4.763  0.1667 -0.4032 -0.1647
33631SOL    HW112618   2.832   8.896   4.669  0.7716  1.0788 -0.0781
33631SOL    HW212619   2.936   8.904   4.779  0.3460 -1.7362  0.6010
33632SOL     OW12620  11.056   0.692   9.822 -0.2606  0.4025 -0.6609
33632SOL    HW112621  11.042   0.612   9.770  5.5089 -2.0868  0.7033
33632SOL    HW212622  11.040   0.664   9.912 -0.7602  1.6751 -0.3443
33633SOL     OW12623   6.322  10.664   9.149  0.2128 -0.1489 -0.7351
33633SOL    HW112624   6.390  10.663   9.216 -0.8851 -1.3558  0.4099
33633SOL    HW212625   6.331  10.580   9.104 -0.7257 -0.4686 -0.3439
33634SOL     OW12626   6.297  11.542   8.196  0.2121 -0.1292  0.2978
33634SOL    HW112627   6.203  11.535   8.179  0.3944 -2.0601 -0.0718
33634SOL    HW212628   6.337  11.547   8.109  0.4387  1.5300  0.4612
33635SOL     OW12629   0.329   4.085  13.564 -0.3855 -0.0981  0.0765
33635SOL    HW112630   0.385   4.160  13.549  0.3919 -0.3961  1.3630
33635SOL    HW212631   0.367   4.015  13.512 -1.1705  0.3910 -1.2061
33636SOL     OW12632   3.990   3.981  10.233  0.0246 -0.2988 -0.1211
33636SOL    HW112633   4.019   3.890  10.237 -3.1262 -1.5016 -1.5114
33636SOL    HW212634   4.009   4.009  10.144 -1.6554 -0.6471 -0.6201
33637SOL     OW12635  11.702   5.324   6.341 -0.2172  0.4310  0.0521
33637SOL    HW112636  11.790   5.291   6.321 -0.1170  0.4149  0.5042
33637SOL    HW212637  11.645   5.281   6.277  0.0829  0.3267 -0.1474
33638SOL     OW12638   9.817   6.283   1.748  0.3509 -0.2268  0.1753
33638SOL    HW112639   9.810   6.336   1.827 -0.4852 -0.1262  0.0423
33638SOL    HW212640   9.782   6.339   1.678 -0.0542 -0.7570 -0.0547
33639SOL     OW12641   7.474   6.181  10.375 -0.4887 -0.0777  0.0483
33639SOL    HW112642   7.545   6.152  10.318 -2.0594 -1.8451 -1.1146
33639SOL    HW212643   7.396   6.182  10.319 -1.4287  1.9299  1.2422
33640SOL     OW12644   9.381  12.166  11.805  0.0338  0.0724  0.2951
33640SOL    HW112645   9.470  12.137  11.827  0.7048  1.1153 -0.8664
33640SOL    HW212646   9.334  12.086  11.783  1.3310 -0.3214 -1.1898
33641SOL     OW12647   7.935   5.938   6.203  0.3476  0.1056  0.2378
33641SOL    HW112648   7.994   5.867   6.178 -1.5115 -1.5031  0.1740
33641SOL    HW212649   7.972   6.016   6.162  1.6123 -1.0986 -1.0161
33642SOL     OW12650   7.759   3.214   0.307  0.0308 -0.1260 -0.7553
33642SOL    HW112651   7.796   3.289   0.352  1.5717 -0.6304 -1.0967
33642SOL    HW212652   7.714   3.164   0.375  0.5253  0.2021 -0.1793
33643SOL     OW12653  10.340  10.663   4.746  0.1172 -0.1117 -0.4807
33643SOL    HW112654  10.266  10.717   4.719 -0.2689 -0.0918  0.5450
33643SOL    HW212655  10.313  10.573   4.726 -0.6324 -0.1991  0.7713
33644SOL     OW12656   0.771   4.869   6.241 -0.1998 -0.3417 -0.4430
33644SOL    HW112657   0.738   4.937   6.182  1.7622  0.2799 -0.8910
33644SOL    HW212658   0.748   4.901   6.328 -0.7566  0.0680 -0.7317
33645SOL     OW12659   0.029   5.409   4.995 -0.2939 -0.7087  0.6275
33645SOL    HW112660  -0.047   5.363   5.030 -1.1749  1.0396  1.1123
33645SOL    HW212661   0.082   5.430   5.072  0.2711 -1.1691  0.3760
33646SOL     OW12662   2.912   2.077   6.388 -0.8832  0.1595 -0.1627
33646SOL    HW112663   2.841   2.083   6.323  0.1775 -0.5055 -1.4385
33646SOL    HW212664   2.952   2.164   6.388  0.8897 -0.5342 -2.5869
33647SOL     OW12665  11.845  13.344   9.549 -0.1379  0.4324  0.6210
33647SOL    HW112666  11.838  13.419   9.489  0.1592  0.5497  0.7335
33647SOL    HW212667  11.939  13.336   9.566 -0.3787  1.8314  2.9014
33648SOL     OW12668   1.048   8.044   7.568 -0.2725  0.1706 -0.0028
33648SOL    HW112669   1.121   8.010   7.621 -1.0884 -2.4586 -0.4125
33648SOL    HW212670   1.080   8.040   7.478  0.0012  1.6701 -0.0045
33649SOL     OW12671   9.339   5.588  12.245  0.2538 -0.0313 -0.2408
33649SOL    HW112672   9.410   5.618  12.302 -0.4435 -1.3583  1.4264
33649SOL    HW212673   9.371   5.604  12.156  1.6569  1.5206  0.4964
33650SOL     OW12674  10.169   0.200  13.742 -0.2669 -0.1615  0.0725
33650SOL    HW112675  10.109   0.153  13.799 -0.6920  1.0121  0.5966
33650SOL    HW212676  10.172   0.289  13.776  0.8700  0.1049 -0.6452
33651SOL     OW12677   7.023  13.498   0.040  0.1372 -0.2442 -0.0210
33651SOL    HW112678   7.005  13.518   0.132  2.1782  0.9629  0.1695
33651SOL    HW212679   7.069  13.575   0.007 -0.5660 -0.6544 -2.0862
33652SOL     OW12680   3.554  13.706   3.369  0.3288  0.4393 -0.0211
33652SOL    HW112681   3.580  13.749   3.288 -0.1463 -1.9701 -1.5384
33652SOL    HW212682   3.458  13.715   3.371  0.4099  1.3651  0.8507
33653SOL     OW12683   0.573   3.599  13.099 -0.1415  0.3591 -0.5705
33653SOL    HW112684   0.554   3.573  13.189  0.2149  2.9576  0.3253
33653SOL    HW212685   0.495   3.647  13.070  0.9545  2.3481 -0.4306
33654SOL     OW12686   7.179   4.609   2.188  0.1691  0.2830 -0.0639
33654SOL    HW112687   7.112   4.664   2.148  0.3651 -0.4065 -1.4278
33654SOL    HW212688   7.261   4.638   2.149  0.5375  0.4098  0.7853
33655SOL     OW12689  13.199  11.666  12.900 -0.0854  0.3095  0.3579
33655SOL    HW112690  13.227  11.714  12.979  0.9860  1.2482 -0.5599
33655SOL    HW212691  13.133  11.722  12.860 -0.3489  0.0142  0.3730
33656SOL     OW12692   9.745   8.921   8.117 -0.1488 -0.4567  0.3392
33656SOL    HW112693   9.656   8.939   8.089  0.0190  0.4384  0.3768
33656SOL    HW212694   9.798   8.933   8.038  0.1861  0.9830  0.7617
33657SOL     OW12695   0.518   8.639   3.731  0.3696  0.2264 -0.4188
33657SOL    HW112696   0.613   8.650   3.732  0.7765 -2.5575 -0.3329
33657SOL    HW212697   0.505   8.544   3.731 -2.4517  0.4631  2.1821
33658SOL     OW12698   3.503   1.484   3.989  0.2767  0.1048  0.4132
33658SOL    HW112699   3.472   1.462   3.901  1.1229  0.8118 -0.0804
33658SOL    HW212700   3.439   1.547   4.022  0.9194  1.2508 -0.4434
33659SOL     OW12701   9.892  12.932   9.902 -0.3883  0.6327  0.0200
33659SOL    HW112702   9.819  12.990   9.924 -1.6622 -0.5431 -0.9060
33659SOL    HW212703   9.851  12.846   9.888  1.3987 -0.5060  1.2323
33660SOL     OW12704   6.047   7.105   3.850  0.1912  0.2090 -0.0417
33660SOL    HW112705   6.099   7.048   3.906  0.0157 -2.4671 -2.3572
33660SOL    HW212706   6.109   7.137   3.785 -0.3724 -0.2629 -0.8280
33661SOL     OW12707  11.905  13.490  10.430 -0.1635 -0.2101  0.1633
33661SOL    HW112708  11.857  13.486  10.347  0.1646  0.9692 -0.0921
33661SOL    HW212709  11.889  13.405  10.471  1.1809 -1.5574 -1.9448
33662SOL     OW12710   6.630   2.997   7.969  0.1911  0.4364 -0.4610
33662SOL    HW112711   6.559   2.982   7.906  0.3957 -0.4935 -0.4796
33662SOL    HW212712   6.609   3.082   8.008 -0.2744  0.7348 -1.3359
33663SOL     OW12713   2.960  10.529  12.770  0.7042 -0.1643 -0.3037
33663SOL    HW112714   2.993  10.449  12.731  0.1969 -1.3031  1.5031
33663SOL    HW212715   2.913  10.501  12.848  0.4795  1.8861  0.3747
33664SOL     OW12716   0.793   3.997   5.339  0.3414  0.2333 -0.5163
33664SOL    HW112717   0.865   3.934   5.341  0.6636  0.6079  0.4971
33664SOL    HW212718   0.817   4.060   5.271  0.2467 -0.4646 -1.2046
33665SOL     OW12719   5.529  11.835   3.185  0.3936  0.3089 -0.7006
33665SOL    HW112720   5.598  11.858   3.246  0.2781 -0.1323 -0.3967
33665SOL    HW212721   5.517  11.913   3.131  0.8607  0.5169 -0.5043
33666SOL     OW12722  12.937   1.292  11.945  0.4047 -0.3981 -0.4077
33666SOL    HW112723  12.926   1.340  11.863  0.2783 -1.3115 -0.9377
33666SOL    HW212724  12.902   1.351  12.012  0.4691  0.3383 -1.0148
33667SOL     OW12725  10.964  12.746  11.141  0.1727  0.3064 -0.0345
33667SOL    HW112726  10.994  12.761  11.051 -0.0575 -0.1152 -0.1893
33667SOL    HW212727  10.956  12.833  11.179  1.1046  0.4482 -0.1469
33668SOL     OW12728   9.074   6.565   4.891  0.1740  0.9072  0.0906
33668SOL    HW112729   9.009   6.518   4.840  1.0832  0.8939 -1.0801
33668SOL    HW212730   9.078   6.518   4.974 -0.0225 -0.1551 -0.4920
33669SOL     OW12731   9.745   7.936   2.089 -0.4159 -0.1832 -0.1072
33669SOL    HW112732   9.661   7.953   2.132 -0.1167  0.5583  0.1905
33669SOL    HW212733   9.791   7.876   2.147 -0.2964  0.2693  0.2670
33670SOL     OW12734   9.332  10.365   1.852  0.2057  0.0166 -0.0821
33670SOL    HW112735   9.302  10.368   1.943 -0.4694 -0.2992 -0.2837
33670SOL    HW212736   9.427  10.363   1.858  0.2037  1.2430  0.5801
33671SOL     OW12737   7.515   1.374   8.889 -0.1859  0.4552  0.5589
33671SOL    HW112738   7.605   1.403   8.905 -0.8886  3.3450 -0.0089
33671SOL    HW212739   7.520   1.325   8.807  0.6271  2.6207 -0.7756
33672SOL     OW12740   1.358  10.291  10.095 -0.2847 -0.0207  0.3371
33672SOL    HW112741   1.434  10.239  10.120  1.0650  0.5298 -2.2245
33672SOL    HW212742   1.392  10.380  10.086 -1.8900  0.7913  1.8153
33673SOL     OW12743   9.933  12.125   2.569 -0.6485 -0.0895  0.4108
33673SOL    HW112744   9.859  12.084   2.614 -0.9632 -0.0013 -0.0109
33673SOL    HW212745   9.972  12.055   2.518 -1.9148  0.3351 -1.2566
33674SOL     OW12746   8.919   9.737   2.940 -0.6121 -0.1635 -0.5883
33674SOL    HW112747   8.920   9.820   2.987  0.5853  0.2312 -1.2645
33674SOL    HW212748   8.827   9.710   2.941 -0.8427  0.5887  0.6215
33675SOL     OW12749  12.401   8.210   4.758  0.4069  0.5150 -0.1163
33675SOL    HW112750  12.370   8.128   4.797  0.7137  0.3254 -0.2709
33675SOL    HW212751  12.334   8.232   4.693  1.6133 -1.0134 -1.9789
33676SOL     OW12752   7.300   4.008  10.325  0.0255 -0.2129 -0.1996
33676SOL    HW112753   7.315   3.948  10.397  1.7046  0.1452 -0.2073
33676SOL    HW212754   7.206   4.001  10.307 -0.5713  0.0991  2.3632
33677SOL     OW12755   6.659  13.645  13.731 -0.0794  0.5181  0.0508
33677SOL    HW112756   6.690  13.627  13.642  0.1250  0.7007  0.0835
33677SOL    HW212757   6.695  13.573  13.783 -0.3886  0.2856 -0.0528
33678SOL     OW12758  12.519   2.913  12.051  0.0348  0.2490 -0.3847
33678SOL    HW112759  12.590   2.939  12.111 -1.5061  0.9749  1.1945
33678SOL    HW212760  12.509   2.819  12.065  0.6499  0.1429 -0.5986
33679SOL     OW12761  12.514   8.579  10.761 -0.4804 -0.0969 -0.0267
33679SOL    HW112762  12.563   8.656  10.789  0.9412 -0.1816 -2.0583
33679SOL    HW212763  12.441   8.614  10.711 -1.6109 -0.0275  1.5962
33680SOL     OW12764  10.465   7.591   2.924  0.3829 -0.0359  0.0807
33680SOL    HW112765  10.438   7.532   2.854  0.6077  0.0143 -0.0479
33680SOL    HW212766  10.391   7.653   2.933  0.3776 -0.0082 -0.1477
33681SOL     OW12767   2.268  10.125   0.566 -0.2964  0.4918  0.2009
33681SOL    HW112768   2.180  10.149   0.592  0.0483  0.6055  1.3040
33681SOL    HW212769   2.260  10.100   0.474 -0.9408  3.4006 -0.6477
33682SOL     OW12770   0.456   8.250  11.596  0.0889 -0.4114  0.2996
33682SOL    HW112771   0.536   8.231  11.646  1.2101 -1.3700 -1.7246
33682SOL    HW212772   0.429   8.164  11.563 -2.2176 -0.2090  1.4727
33683SOL     OW12773   1.743   3.072   3.835  0.1951 -0.0536 -0.1100
33683SOL    HW112774   1.672   3.136   3.836  1.4027  1.3214  0.5984
33683SOL    HW212775   1.822   3.123   3.851  1.5402 -1.3446 -2.1674
33684SOL     OW12776   2.605   3.667   1.276 -0.4048  0.0278 -0.2941
33684SOL    HW112777   2.557   3.742   1.242 -0.1808  0.4491  0.3144
33684SOL    HW212778   2.655   3.701   1.350  1.9575 -0.0657 -1.7391
33685SOL     OW12779  10.317   8.804   7.109  0.3192  0.0101  0.5329
33685SOL    HW112780  10.387   8.854   7.068  0.9192 -0.7544  0.6064
33685SOL    HW212781  10.331   8.816   7.203 -2.2063  3.3823  0.6524
33686SOL     OW12782   9.277   7.773  13.718  0.1043 -0.6518 -0.1770
33686SOL    HW112783   9.260   7.813  13.633 -1.6285 -1.2922 -0.1913
33686SOL    HW212784   9.197   7.789  13.769  0.7371 -1.0792  1.0014
33687SOL     OW12785   1.898  12.307   5.041  0.5242  0.5312 -0.0125
33687SOL    HW112786   1.842  12.239   5.004  0.0963  1.7632 -1.7569
33687SOL    HW212787   1.894  12.378   4.978  2.6468  1.3633  0.7057
33688SOL     OW12788  10.027   6.155  11.083  0.0816  0.1630 -0.1039
33688SOL    HW112789  10.033   6.251  11.086  0.8095  0.0954  0.7901
33688SOL    HW212790  10.057   6.133  10.994  2.9825  0.5899  0.6774
33689SOL     OW12791  13.551   9.906   6.985 -0.3897  0.1936  0.4636
33689SOL    HW112792  13.608   9.981   7.002 -1.6129  1.4793 -0.8098
33689SOL    HW212793  13.521   9.879   7.071  2.1948 -0.6515  1.2074
33690SOL     OW12794  12.354   3.608   9.585  0.3939 -0.2809 -0.4742
33690SOL    HW112795  12.362   3.624   9.491  0.2182  1.2114 -0.2606
33690SOL    HW212796  12.389   3.686   9.626 -2.5735  0.6187  0.6435
33691SOL     OW12797   1.475   1.729   1.067 -0.2725 -0.3047 -0.1193
33691SOL    HW112798   1.432   1.692   1.144 -2.1745  0.4357 -0.7782
33691SOL    HW212799   1.449   1.672   0.995 -0.3610  0.3097 -0.5754
33692SOL     OW12800   8.408   9.701   3.389 -0.1042  0.4122 -0.4715
33692SOL    HW112801   8.348   9.755   3.338 -0.1303  0.7189 -0.1219
33692SOL    HW212802   8.455   9.763   3.444  0.5891  0.1810 -0.7960
33693SOL     OW12803  11.334   3.196   4.089  0.0661 -0.1889 -0.3492
33693SOL    HW112804  11.261   3.149   4.130  0.0886  0.4101  0.3728
33693SOL    HW212805  11.310   3.198   3.996 -1.2262  0.6869 -0.0198
33694SOL     OW12806   1.340   4.237   8.709 -0.3617  0.3105  0.0205
33694SOL    HW112807   1.333   4.142   8.698 -2.1400 -0.1547  3.5841
33694SOL    HW212808   1.297   4.274   8.631 -0.9286 -1.8461 -0.7580
33695SOL     OW12809   4.598   4.864   0.084  0.3668 -0.2687  0.1197
33695SOL    HW112810   4.618   4.933   0.020  0.1562  0.6298  1.0043
33695SOL    HW212811   4.683   4.823   0.101  0.5076 -0.1894 -0.3632
33696SOL     OW12812   1.713   3.252   6.576 -0.1161  0.4406 -0.3610
33696SOL    HW112813   1.675   3.295   6.653 -1.0772  0.1718 -0.6656
33696SOL    HW212814   1.713   3.319   6.508 -2.3091 -0.1787 -1.0549
33697SOL     OW12815   6.910   4.578   6.991  0.2702 -0.1701  0.2067
33697SOL    HW112816   6.983   4.601   6.934  2.3044 -2.3775  1.6945
33697SOL    HW212817   6.906   4.649   7.055  0.9792  0.1071 -0.0464
33698SOL     OW12818   3.482  11.019   0.770  0.1536 -0.7648  0.2283
33698SOL    HW112819   3.560  10.988   0.723  0.6380 -0.0329  0.5273
33698SOL    HW212820   3.487  10.977   0.855 -0.4256 -1.6543 -0.1671
33699SOL     OW12821   1.745   3.732   2.501  0.3751  0.2004 -0.1800
33699SOL    HW112822   1.697   3.778   2.432  1.0254 -0.1675 -0.8847
33699SOL    HW212823   1.728   3.784   2.580 -0.6829  0.4144 -0.5295
33700SOL     OW12824   8.471  12.452   9.542  0.7774 -0.0546  0.0676
33700SOL    HW112825   8.441  12.490   9.624  2.6850 -0.0723  0.8345
33700SOL    HW212826   8.409  12.382   9.523 -0.4364  0.7919  0.7869
33701SOL     OW12827   8.375   2.578  13.472  0.0309  0.8831 -0.1342
33701SOL    HW112828   8.382   2.526  13.551  1.0177  0.7505 -0.3041
33701SOL    HW212829   8.299   2.634  13.487 -1.4169 -0.9751 -0.1811
33702SOL     OW12830  11.448   8.225   1.403  0.7112 -0.0601 -0.2832
33702SOL    HW112831  11.414   8.268   1.324  1.1389  0.7936 -0.0193
33702SOL    HW212832  11.402   8.142   1.406 -0.6890  0.6722 -0.4294
33703SOL     OW12833   0.387   9.114   4.530  0.3963 -0.2058  0.2939
33703SOL    HW112834   0.320   9.120   4.598 -0.9712 -1.4372 -0.8794
33703SOL    HW212835   0.444   9.043   4.558  1.5820  1.1557  1.5385
33704SOL     OW12836   6.133   8.747  12.511 -0.5365 -0.7557  0.1582
33704SOL    HW112837   6.218   8.790  12.511 -0.2176 -1.3493 -0.7358
33704SOL    HW212838   6.073   8.813  12.545  0.5822 -1.0319  2.8999
33705SOL     OW12839   9.615  10.395   8.021 -0.1892 -0.5329  0.1847
33705SOL    HW112840   9.692  10.405   7.966 -0.3131 -2.2934 -0.3729
33705SOL    HW212841   9.576  10.482   8.023 -0.2599 -0.3917 -2.6719
33706SOL     OW12842   6.045  12.382   1.075 -0.3254 -0.1712  0.4527
33706SOL    HW112843   5.950  12.377   1.089 -0.3008 -0.2709  0.5899
33706SOL    HW212844   6.059  12.346   0.988 -0.5851  1.3380 -0.2541
33707SOL     OW12845   0.605   5.733   8.681 -0.2487 -0.0236  0.5519
33707SOL    HW112846   0.590   5.745   8.588 -2.4588  2.6355  1.1277
33707SOL    HW212847   0.691   5.690   8.686  1.1225  1.9752 -2.6252
33708SOL     OW12848   0.644   5.110   6.914 -0.0026  0.1737  0.0365
33708SOL    HW112849   0.659   5.113   7.008 -0.3088  0.2325  0.0860
33708SOL    HW212850   0.727   5.138   6.875  0.6415 -1.3949  0.2429
33709SOL     OW12851   0.199   3.496   4.201 -0.2930 -0.0102 -0.3482
33709SOL    HW112852   0.235   3.524   4.285 -0.3522 -1.5934  0.2396
33709SOL    HW212853   0.254   3.538   4.136  1.1527 -0.5038  0.5068
33710SOL     OW12854   1.540   6.227   0.474 -0.1369 -0.1621 -0.0580
33710SOL    HW112855   1.449   6.212   0.501  0.0323 -0.7523  0.2004
33710SOL    HW212856   1.554   6.320   0.487 -0.2909 -0.3026  1.2004
33711SOL     OW12857   2.015   0.636   2.440  0.2972  0.0610 -0.0526
33711SOL    HW112858   2.042   0.728   2.435  1.6307 -0.2250  1.0969
33711SOL    HW212859   1.935   0.637   2.493  1.4849  0.4112  1.8522
33712SOL     OW12860   3.933  13.594  10.095 -0.2310 -0.7199 -0.3198
33712SOL    HW112861   3.923  13.502  10.119 -0.5059 -0.6554 -0.1887
33712SOL    HW212862   3.987  13.592  10.016  0.3895 -0.9495  0.0989
33713SOL     OW12863   0.445   1.190   7.448 -0.2916 -0.3663 -0.0911
33713SOL    HW112864   0.505   1.119   7.423 -0.3585 -0.2394 -0.6263
33713SOL    HW212865   0.443   1.248   7.372 -0.7726 -0.1476  0.0818
33714SOL     OW12866   4.751   6.364  12.310  0.3924  0.2972 -0.1313
33714SOL    HW112867   4.833   6.355  12.358  0.3800  0.1782 -0.1332
33714SOL    HW212868   4.702   6.284  12.330 -0.0369  0.6993  0.4748
33715SOL     OW12869  13.733  13.113   2.377  0.3149  0.2647  0.1136
33715SOL    HW112870  13.681  13.182   2.337 -1.8645 -0.5176  1.4370
33715SOL    HW212871  13.752  13.144   2.465  0.7099 -0.1547  0.1839
33716SOL     OW12872  12.358   8.930   8.761  0.0413  0.4884  0.7279
33716SOL    HW112873  12.332   8.868   8.829 -0.2341  1.3117  1.3912
33716SOL    HW212874  12.422   8.882   8.708 -0.8690 -0.6840  0.6459
33717SOL     OW12875  10.000   4.859   2.598  0.2399 -0.4669 -0.1980
33717SOL    HW112876   9.981   4.795   2.667 -1.1247  0.2768  0.1373
33717SOL    HW212877   9.959   4.823   2.520  0.8059 -0.7465 -0.3732
33718SOL     OW12878   4.871   9.356  13.291 -0.0230  0.6979 -0.0357
33718SOL    HW112879   4.783   9.343  13.325 -0.1297  2.8907  0.7283
33718SOL    HW212880   4.862   9.423  13.223  1.0699  1.2400  0.3167
33719SOL     OW12881   1.505   4.126   9.237 -0.5436 -0.2256 -0.4058
33719SOL    HW112882   1.412   4.131   9.215 -0.9742 -0.3776  1.2313
33719SOL    HW212883   1.507   4.105   9.331  1.1369 -2.0462 -0.7675
33720SOL     OW12884  12.244   8.923   3.002  0.2656 -0.2126  0.3325
33720SOL    HW112885  12.258   8.829   2.987  0.1267 -0.3167  0.8217
33720SOL    HW212886  12.313   8.948   3.063 -0.2820 -0.2204  0.9705
33721SOL     OW12887  12.756   7.876   3.896 -0.4338 -0.4269 -0.2013
33721SOL    HW112888  12.661   7.878   3.896 -0.4900 -1.7088  0.9134
33721SOL    HW212889  12.779   7.803   3.952  1.2488  1.2829  1.5025
33722SOL     OW12890  10.962   2.936   7.878 -0.0995 -0.1362  0.0398
33722SOL    HW112891  11.033   2.993   7.847 -0.6431  1.1175  1.0282
33722SOL    HW212892  11.001   2.886   7.950 -0.1338  0.3160  0.3710
33723SOL     OW12893   8.892   8.828   7.822 -0.9290  1.0531 -0.7022
33723SOL    HW112894   8.819   8.859   7.767 -0.2922  0.5445 -1.8760
33723SOL    HW212895   8.871   8.736   7.839  0.5264  0.2024 -3.0256
33724SOL     OW12896  12.611   3.773  13.702  0.4471  0.2010  0.0725
33724SOL    HW112897  12.601   3.796  13.795  1.9811  1.1308  0.0488
33724SOL    HW212898  12.525   3.791  13.664 -0.3260 -0.5662  1.3651
33725SOL     OW12899   7.166  10.087   4.176 -0.7886  0.3679  0.1068
33725SOL    HW112900   7.136  10.037   4.100  0.4359 -0.2328  0.0010
33725SOL    HW212901   7.236  10.035   4.214 -0.9988  0.9319  1.3382
33726SOL     OW12902   1.869   7.219  10.646 -0.1759  0.4328  0.0706
33726SOL    HW112903   1.902   7.205  10.735 -0.2857 -1.3066 -0.1399
33726SOL    HW212904   1.837   7.310  10.647 -0.3545  0.3874  1.8573
33727SOL     OW12905   0.520   1.564   3.516  0.3622  0.1095  0.2157
33727SOL    HW112906   0.584   1.614   3.464 -0.9265 -0.2644 -1.8643
33727SOL    HW212907   0.563   1.481   3.533  0.5708 -0.0278 -0.8985
33728SOL     OW12908   5.546  11.305   5.171  0.0691 -0.3103  0.2395
33728SOL    HW112909   5.633  11.271   5.193 -0.2875 -0.3013  1.7392
33728SOL    HW212910   5.549  11.319   5.076  1.4159 -1.1143  0.1431
33729SOL     OW12911  12.257   5.690  13.515  0.0140  0.1790  0.2126
33729SOL    HW112912  12.351   5.695  13.495 -0.0030  1.2468  0.3311
33729SOL    HW212913  12.221   5.770  13.478 -1.4473 -1.6720 -2.7844
33730SOL     OW12914  13.032   6.162   3.204 -0.0921 -0.3016 -0.0684
33730SOL    HW112915  13.015   6.215   3.282 -0.2083 -0.2680 -0.1163
33730SOL    HW212916  13.127   6.153   3.201 -0.0955 -0.4010  0.1430
33731SOL     OW12917   3.796  13.617   2.638  0.4718 -0.1071  0.3620
33731SOL    HW112918   3.783  13.522   2.639 -0.0473 -0.0393  0.2713
33731SOL    HW212919   3.740  13.648   2.567  1.4088  0.1637 -0.2813
33732SOL     OW12920  10.549   1.502   7.894  0.0730  0.3470 -0.1566
33732SOL    HW112921  10.564   1.590   7.929 -0.0133  0.0931  0.5217
33732SOL    HW212922  10.584   1.506   7.805 -1.8705  1.7086 -0.9359
33733SOL     OW12923  10.245   4.389  13.471  0.4085 -0.3063  0.1708
33733SOL    HW112924  10.308   4.401  13.400 -1.6004 -1.2383 -1.8923
33733SOL    HW212925  10.293   4.340  13.537  2.4066  0.7425 -0.4081
33734SOL     OW12926  12.902   8.514   3.214  0.0569 -0.3759  0.3118
33734SOL    HW112927  12.909   8.594   3.162 -1.0835  0.9269  2.0732
33734SOL    HW212928  12.988   8.504   3.253 -0.2444  0.9712  1.3970
33735SOL     OW12929   4.295  12.501   7.402  0.0813  0.2026  0.2902
33735SOL    HW112930   4.331  12.487   7.314 -1.2899 -0.0168 -0.2688
33735SOL    HW212931   4.313  12.420   7.448 -1.0398 -0.5240 -0.4877
33736SOL     OW12932   8.447   5.700   6.189 -0.0784  0.0647  0.8420
33736SOL    HW112933   8.377   5.644   6.153 -0.2514  0.6283  0.2799
33736SOL    HW212934   8.400   5.766   6.240  0.0973 -0.0222  1.1143
33737SOL     OW12935   2.033   9.708   0.926  0.0718  0.4915 -0.5251
33737SOL    HW112936   2.023   9.666   0.841 -0.1056  0.7369 -0.6285
33737SOL    HW212937   2.124   9.736   0.930  0.5650 -1.0964  0.1055
33738SOL     OW12938  13.064  10.118  11.193 -0.4352  0.3084 -0.3234
33738SOL    HW112939  13.089  10.044  11.138 -3.3621 -0.3579 -0.9718
33738SOL    HW212940  13.051  10.079  11.280 -2.2253 -0.0684 -0.7212
33739SOL     OW12941   1.353   0.335   9.342 -0.3136 -0.1829 -0.4260
33739SOL    HW112942   1.441   0.330   9.304 -0.2859 -0.5275 -0.3215
33739SOL    HW212943   1.324   0.424   9.323 -0.1292 -0.2140 -0.8771
33740SOL     OW12944   8.628   7.061   2.486 -0.5446  0.4139 -0.2231
33740SOL    HW112945   8.674   7.051   2.402  0.7813  1.3904  0.3403
33740SOL    HW212946   8.604   6.972   2.511 -0.1505  0.0159 -1.2006
33741SOL     OW12947   4.525   5.724  13.041 -0.0864 -0.1144  0.2525
33741SOL    HW112948   4.495   5.793  13.101 -0.6623 -0.3876  0.2780
33741SOL    HW212949   4.610   5.698  13.077 -0.4698 -0.3466  1.0218
33742SOL     OW12950   4.310  10.515   2.312 -0.3255  0.0757 -0.5036
33742SOL    HW112951   4.260  10.437   2.290 -0.9148  0.1660  0.4538
33742SOL    HW212952   4.374  10.524   2.241  0.3923 -1.8159 -0.1519
33743SOL     OW12953   6.524   7.962   9.781 -0.3733 -0.2936 -0.2677
33743SOL    HW112954   6.480   8.028   9.834 -0.6046 -1.3172  0.8768
33743SOL    HW212955   6.470   7.955   9.703 -0.9657  0.0938  0.0952
33744SOL     OW12956  11.491   9.295   5.017  0.1511  0.5757  0.1402
33744SOL    HW112957  11.516   9.246   5.095 -0.6097  0.7985  0.5309
33744SOL    HW212958  11.408   9.337   5.040  0.0632  0.8772 -0.6881
33745SOL     OW12959   9.015   5.128  11.419 -0.2013 -0.4691  0.6356
33745SOL    HW112960   9.106   5.113  11.445  0.2695  2.9918  1.4271
33745SOL    HW212961   8.970   5.152  11.501 -0.4746  3.1068 -0.4037
33746SOL     OW12962  11.393   5.222   5.735  0.3922  0.0097 -0.3772
33746SOL    HW112963  11.352   5.239   5.820 -0.0540 -1.3478 -0.3075
33746SOL    HW212964  11.329   5.170   5.687  0.6859  0.6795 -1.5229
33747SOL     OW12965  10.183   8.215  11.757  0.4836  0.4295 -0.2114
33747SOL    HW112966  10.142   8.187  11.676  1.7186  1.3006 -1.1829
33747SOL    HW212967  10.182   8.137  11.813 -0.5964 -0.1169 -0.9618
33748SOL     OW12968   3.393   8.431   0.320  0.3515 -0.1583  0.3015
33748SOL    HW112969   3.467   8.383   0.284  1.0607 -0.2469  1.7950
33748SOL    HW212970   3.356   8.479   0.245  0.5705 -1.7930 -0.8933
33749SOL     OW12971   5.339   0.316  13.509  0.2282 -0.4583 -0.3495
33749SOL    HW112972   5.269   0.378  13.526  0.4751 -0.2922  0.0782
33749SOL    HW212973   5.299   0.230  13.521  0.0985 -0.3639 -0.1004
33750SOL     OW12974   6.787   2.206   2.624 -0.3749 -0.3195  0.0592
33750SOL    HW112975   6.850   2.148   2.665 -1.1644 -1.9384 -0.9315
33750SOL    HW212976   6.704   2.189   2.670 -1.1566 -1.8039 -1.7776
33751SOL     OW12977   4.198   0.472   4.079  0.2068 -0.3724  0.0091
33751SOL    HW112978   4.141   0.491   4.153  1.1963 -0.9611  0.9560
33751SOL    HW212979   4.155   0.513   4.004 -0.4950  0.7914  1.0177
33752SOL     OW12980   2.884   3.724  13.037  0.0581  0.2441 -0.3746
33752SOL    HW112981   2.852   3.755  12.952  1.8474 -1.4579 -1.7470
33752SOL    HW212982   2.977   3.747  13.038  0.1595 -0.1282  0.9604
33753SOL     OW12983   7.210   2.482   6.609  0.1539  0.2110 -0.1117
33753SOL    HW112984   7.237   2.401   6.565  0.5998  0.4928 -0.3707
33753SOL    HW212985   7.292   2.529   6.623 -0.1536  0.8613 -0.4563
33754SOL     OW12986   9.830   6.981   0.792  0.7049  0.5962 -0.6540
33754SOL    HW112987   9.792   6.995   0.705  2.2813  1.9686 -1.1795
33754SOL    HW212988   9.773   7.030   0.851  1.3615  2.3690 -1.3892
33755SOL     OW12989  11.696   8.232   1.470  0.6979  0.1223 -0.2928
33755SOL    HW112990  11.697   8.327   1.475 -0.9922  0.1777 -0.5905
33755SOL    HW212991  11.603   8.208   1.464  1.1413 -1.4733 -1.5269
33756SOL     OW12992   5.022   3.947   5.401 -0.6375 -0.4593 -0.9247
33756SOL    HW112993   5.005   3.878   5.465  2.0864 -0.1035  0.3286
33756SOL    HW212994   5.068   3.903   5.330  2.8964  0.1943  0.7585
33757SOL     OW12995  11.228  13.518   1.997  0.0524 -0.3503 -0.2155
33757SOL    HW112996  11.244  13.451   2.064 -0.6286 -0.4772 -0.1745
33757SOL    HW212997  11.274  13.596   2.030 -0.9248 -0.1717  0.8200
33758SOL     OW12998  10.156   5.242  10.442  0.9223  0.1633 -0.1766
33758SOL    HW112999  10.239   5.197  10.460  0.3523 -0.7409  0.2592
33758SOL    HW213000  10.111   5.183  10.381  0.8205  0.9115 -0.8381
33759SOL     OW13001   9.584   0.695   5.973  0.2058  0.3202 -0.8563
33759SOL    HW113002   9.614   0.777   5.934 -1.1290 -0.0848 -2.8908
33759SOL    HW213003   9.664   0.649   5.997  1.0511  1.2979 -1.6820
33760SOL     OW13004   4.005   0.620  13.398  0.0093  0.1711 -0.7311
33760SOL    HW113005   4.080   0.560  13.398  0.6799  0.9851 -0.4397
33760SOL    HW213006   3.994   0.644  13.306 -0.3310 -0.4718 -0.8632
33761SOL     OW13007   8.420   7.736  12.445 -0.2949  0.1561 -0.1236
33761SOL    HW113008   8.327   7.728  12.422 -0.1064 -0.5488 -0.6481
33761SOL    HW213009   8.422   7.807  12.510 -1.3976 -0.8587  1.0728
33762SOL     OW13010  12.788   5.485   1.527  0.2746  0.4138 -0.6305
33762SOL    HW113011  12.749   5.406   1.565  0.8173  0.5891  0.3215
33762SOL    HW213012  12.874   5.457   1.496  1.2696  1.0059  1.4268
33763SOL     OW13013  10.836  11.837  12.354  0.1252 -0.7867  0.1314
33763SOL    HW113014  10.873  11.861  12.269 -0.3400 -2.3365 -0.5609
33763SOL    HW213015  10.912  11.809  12.406  0.4296  0.3091  0.2918
33764SOL     OW13016  13.014   7.743   5.104 -0.1894  0.1676  0.0152
33764SOL    HW113017  13.003   7.819   5.046  0.1316  0.2143  0.0143
33764SOL    HW213018  13.060   7.678   5.050  1.7006  0.8372  0.7275
33765SOL     OW13019  12.079   4.834   1.726 -0.3546  0.1995 -1.3024
33765SOL    HW113020  12.008   4.898   1.718 -0.8383 -0.1995 -0.3754
33765SOL    HW213021  12.045   4.768   1.786  0.1028 -0.9837 -2.3052
33766SOL     OW13022   3.900  11.475   4.065  0.4398  0.4688  0.0921
33766SOL    HW113023   3.980  11.444   4.021  0.7015 -2.2497  2.2211
33766SOL    HW213024   3.929  11.498   4.153 -0.8434  1.2269  0.3302
33767SOL     OW13025  11.401   2.514  10.072 -0.0953 -0.6478  0.2871
33767SOL    HW113026  11.337   2.450  10.102  0.7554 -1.6031  0.1499
33767SOL    HW213027  11.356   2.598  10.076 -0.4995 -0.9031  2.8093
33768SOL     OW13028  12.355   0.761   7.417  0.4790  0.2929  0.0990
33768SOL    HW113029  12.382   0.691   7.477  1.3185  0.4465 -0.0974
33768SOL    HW213030  12.397   0.840   7.451 -1.9489  1.1243  1.4225
33769SOL     OW13031   1.238   4.136   1.959  0.0569  0.2128 -0.6502
33769SOL    HW113032   1.218   4.221   1.997 -0.2595 -0.3247  0.4429
33769SOL    HW213033   1.326   4.145   1.924 -0.1441  1.1167 -0.9348
33770SOL     OW13034   0.866   2.017   8.643  0.0871  0.2047  0.1569
33770SOL    HW113035   0.827   1.938   8.679 -1.6435 -0.1244 -2.2525
33770SOL    HW213036   0.814   2.037   8.566  1.6859  2.6170 -0.4086
33771SOL     OW13037   5.919   7.416   6.316 -0.2839 -0.0778  0.1133
33771SOL    HW113038   5.991   7.380   6.368 -0.3370  0.5950  0.6594
33771SOL    HW213039   5.848   7.353   6.327 -0.9780  1.0148  2.5232
33772SOL     OW13040   9.610   6.688   8.949  0.2169 -0.0901 -0.5043
33772SOL    HW113041   9.542   6.724   9.007  0.3345  0.1277 -0.4999
33772SOL    HW213042   9.647   6.765   8.906  0.1888 -0.2451 -0.8030
33773SOL     OW13043   3.062  10.111   3.396 -0.3661  0.1049  0.0688
33773SOL    HW113044   3.007  10.177   3.439 -2.4890 -0.4121 -1.6509
33773SOL    HW213045   3.138  10.160   3.365 -0.6468  1.2190  1.0465
33774SOL     OW13046  13.667  13.402   7.486 -0.2978 -0.1021  0.1808
33774SOL    HW113047  13.616  13.322   7.496 -2.7388  1.4540  1.4277
33774SOL    HW213048  13.605  13.465   7.450  0.3207  2.2352  2.8086
33775SOL     OW13049  13.121  12.708   9.173 -0.4483  0.0998  0.4106
33775SOL    HW113050  13.123  12.801   9.152  1.7755  0.4486  1.8146
33775SOL    HW213051  13.184  12.668   9.113 -1.8840 -0.6851 -0.6592
33776SOL     OW13052  12.477   2.634  10.647 -0.0951 -0.4746  0.0159
33776SOL    HW113053  12.460   2.592  10.562  1.2216 -1.9987  0.4703
33776SOL    HW213054  12.497   2.562  10.706  0.2141  0.6630  1.3486
33777SOL     OW13055  10.857  13.033   8.366  0.3286 -0.6004  0.4537
33777SOL    HW113056  10.813  12.973   8.306  1.0323 -0.5510 -0.1207
33777SOL    HW213057  10.809  13.116   8.357 -0.2582 -0.8912  0.7966
33778SOL     OW13058   6.635   3.944   0.319  0.2262  0.9933  0.7979
33778SOL    HW113059   6.562   3.996   0.351 -1.3651 -1.4190  1.3754
33778SOL    HW213060   6.667   3.897   0.396  1.4268  0.8879  0.2637
33779SOL     OW13061   3.973   3.988  12.562 -0.4254 -0.2678  0.1805
33779SOL    HW113062   3.935   4.030  12.639  0.7628  1.1982  0.0117
33779SOL    HW213063   3.963   4.052  12.492 -1.3811 -1.5426 -0.8835
33780SOL     OW13064   7.140   0.773   3.306  0.1370  0.2883  0.0152
33780SOL    HW113065   7.162   0.854   3.260 -0.7567  0.6436  0.1987
33780SOL    HW213066   7.208   0.712   3.279  1.2839  1.3194  0.4842
33781SOL     OW13067   8.000   6.087   8.487 -0.3096  0.4975  0.5222
33781SOL    HW113068   7.931   6.021   8.496 -0.4332  0.5225 -0.1481
33781SOL    HW213069   8.081   6.039   8.503 -0.2258 -0.3371 -2.0259
33782SOL     OW13070   4.052   6.562   6.039  0.1813 -0.8981 -0.0091
33782SOL    HW113071   4.022   6.550   6.129 -0.0990 -0.3102 -0.0138
33782SOL    HW213072   4.020   6.485   5.992 -0.3139 -0.8507  0.2411
33783SOL     OW13073   9.358   4.916   7.807 -0.1575  0.2593 -0.3646
33783SOL    HW113074   9.377   4.870   7.725 -1.3581 -0.4207 -0.2941
33783SOL    HW213075   9.366   5.009   7.786  0.8333  0.0643 -0.9023
33784SOL     OW13076   8.369   1.306   9.381 -0.6220  0.2948 -0.1687
33784SOL    HW113077   8.412   1.363   9.445  0.1289 -1.8384  1.3526
33784SOL    HW213078   8.290   1.275   9.425 -0.2239 -1.0066 -0.3119
33785SOL     OW13079   4.616   3.492   2.837  0.6424 -0.0232 -0.0527
33785SOL    HW113080   4.522   3.481   2.843  0.7218 -1.2146 -0.5311
33785SOL    HW213081   4.652   3.405   2.855  1.7338  0.6833  1.4323
33786SOL     OW13082   9.003   0.801   9.057 -0.3326  0.0169 -0.1528
33786SOL    HW113083   9.081   0.755   9.088 -1.2041 -0.1774  1.8850
33786SOL    HW213084   8.986   0.867   9.125 -0.2247  2.1259 -2.0505
33787SOL     OW13085   3.158   6.254  13.534 -0.3709 -0.0850 -0.2705
33787SOL    HW113086   3.150   6.342  13.572 -1.1333  0.0917 -0.8182
33787SOL    HW213087   3.068   6.222  13.530 -0.3015 -0.1378 -1.8193
33788SOL     OW13088  13.313   0.433   2.939 -0.6198  0.2764 -0.1319
33788SOL    HW113089  13.361   0.453   3.020 -0.0058 -0.3734 -0.3256
33788SOL    HW213090  13.222   0.423   2.967 -0.2779 -0.9000  0.6679
33789SOL     OW13091  10.694   7.508  13.739  0.0092 -0.2985  0.8168
33789SOL    HW113092  10.718   7.591  13.779 -1.2919 -0.2663  1.5935
33789SOL    HW213093  10.721   7.442  13.802  1.1545 -0.4903  0.1439
33790SOL     OW13094   5.746  10.486   2.527 -0.0059 -0.1819  0.1239
33790SOL    HW113095   5.808  10.536   2.474  1.4162 -1.5664  0.3982
33790SOL    HW213096   5.706  10.425   2.466 -0.2606 -0.0439  0.1555
33791SOL     OW13097   8.675   1.681   7.107 -0.8689  0.3816 -0.6499
33791SOL    HW113098   8.690   1.727   7.024 -0.7778 -0.3431 -1.0424
33791SOL    HW213099   8.592   1.634   7.093 -1.1420  0.7000 -0.1297
33792SOL     OW13100  13.734   2.758  11.241  0.5432  0.4450  0.3218
33792SOL    HW113101  13.778   2.750  11.325  1.1050 -0.6579 -0.0491
33792SOL    HW213102  13.641   2.749  11.261  0.7148 -0.4574  0.7731
33793SOL     OW13103   1.505   8.327   6.589 -0.4284  0.4623 -0.0585
33793SOL    HW113104   1.544   8.250   6.549  1.2114  0.8255  0.7366
33793SOL    HW213105   1.412   8.306   6.597 -0.0838 -1.2678 -0.2063
33794SOL     OW13106   0.795  13.567   5.871 -0.2432  0.4359 -0.2670
33794SOL    HW113107   0.723  13.523   5.826  0.5129 -1.9105  0.6952
33794SOL    HW213108   0.752  13.635   5.923 -1.5658  0.2412 -1.0586
33795SOL     OW13109   0.693   7.964   5.364  0.0301  0.2589  0.1365
33795SOL    HW113110   0.776   7.919   5.347 -0.6704 -0.9939 -0.0159
33795SOL    HW213111   0.712   8.056   5.342  1.3056 -0.0336 -0.1080
33796SOL     OW13112  10.401  13.316   4.303 -0.5355  0.2881  0.1096
33796SOL    HW113113  10.458  13.389   4.278  0.4810 -0.4337  0.2938
33796SOL    HW213114  10.456  13.259   4.356 -1.4563 -0.3913  0.3561
33797SOL     OW13115   9.193  12.166  13.282 -0.3042 -0.8617  0.2181
33797SOL    HW113116   9.257  12.097  13.262  0.0940 -0.2182 -0.8136
33797SOL    HW213117   9.206  12.184  13.375  0.8719 -0.8970  0.0799
33798SOL     OW13118  11.896   9.948   2.257 -0.2266  0.0236  0.6990
33798SOL    HW113119  11.972   9.890   2.265  1.3640  2.0971  1.2467
33798SOL    HW213120  11.829   9.908   2.313  1.8923  0.3496  3.6899
33799SOL     OW13121   5.383   2.318  13.600  0.1273  0.1850  0.5347
33799SOL    HW113122   5.354   2.227  13.593  0.1567  0.1711  0.5895
33799SOL    HW213123   5.436   2.332  13.522 -1.7683  0.8589 -0.6959
33800SOL     OW13124   4.476   2.959   3.770  0.6735  0.3725  0.1082
33800SOL    HW113125   4.515   3.017   3.835 -0.6180  1.4051 -0.0029
33800SOL    HW213126   4.433   2.890   3.821 -0.8661  1.5124  0.4375
33801SOL     OW13127  11.834   1.900   1.882  0.2490 -0.6700  0.9641
33801SOL    HW113128  11.806   1.895   1.973 -0.9140  0.1495  0.6778
33801SOL    HW213129  11.800   1.820   1.842  0.4591 -0.8617  1.1639
33802SOL     OW13130  11.820  13.381   6.244 -0.3940  0.4781  0.0233
33802SOL    HW113131  11.845  13.424   6.161  0.3311  0.0339  0.0006
33802SOL    HW213132  11.725  13.381   6.243 -0.4779 -1.6250 -1.9578
33803SOL     OW13133   6.735   5.274   6.215  0.4632  0.2259  0.0172
33803SOL    HW113134   6.777   5.357   6.193  2.3884 -0.5012  0.6499
33803SOL    HW213135   6.752   5.218   6.139 -2.2755  0.8221 -1.1395
33804SOL     OW13136   3.270   9.654   5.313 -0.7138 -0.1738  0.2649
33804SOL    HW113137   3.190   9.699   5.341 -0.7755  1.5975 -2.3935
33804SOL    HW213138   3.245   9.604   5.236  0.3762 -1.1665  0.5081
33805SOL     OW13139  13.453   8.967   3.784 -0.0063  0.3860  0.1801
33805SOL    HW113140  13.445   8.945   3.691  0.8613 -2.1000  0.6134
33805SOL    HW213141  13.376   8.929   3.825  1.5134 -2.0997  0.9562
33806SOL     OW13142   0.641   3.642  12.169 -0.2942  0.2999  0.0265
33806SOL    HW113143   0.688   3.559  12.176 -1.8529 -0.6635 -0.5596
33806SOL    HW213144   0.672   3.680  12.087  0.7374  0.5385  0.5012
33807SOL     OW13145   9.896  10.499   9.522 -0.0234  0.6109 -0.4283
33807SOL    HW113146   9.990  10.512   9.532 -0.2421  1.9519  0.1074
33807SOL    HW213147   9.863  10.491   9.612 -0.5406  1.2026 -0.5572
33808SOL     OW13148   4.909   8.541   6.527 -0.4276  0.5038 -0.1273
33808SOL    HW113149   4.988   8.594   6.540 -0.6850  0.7116  0.6011
33808SOL    HW213150   4.845   8.577   6.587 -0.3800 -1.0855  0.9535
33809SOL     OW13151   1.093  12.979   4.616 -0.1408 -0.4156 -0.8838
33809SOL    HW113152   1.157  12.944   4.553 -0.3947 -0.0273 -1.3658
33809SOL    HW213153   1.067  12.903   4.668  0.6370 -0.5988 -0.7463
33810SOL     OW13154  10.941   9.930   0.015  0.0056  0.0628 -0.7310
33810SOL    HW113155  10.976   9.847  -0.018  0.6612  0.1172 -0.1977
33810SOL    HW213156  10.930   9.985  -0.062  1.0450  0.0140 -0.9272
33811SOL     OW13157   4.986   0.862   9.900 -0.0263  0.4709 -0.0823
33811SOL    HW113158   4.968   0.937   9.844  0.1995  0.7025  0.1540
33811SOL    HW213159   4.907   0.849   9.951  0.4283  1.4165  0.8801
33812SOL     OW13160   5.793  11.468   8.208 -0.1555  0.2767  0.8034
33812SOL    HW113161   5.730  11.530   8.172  0.6725 -0.4020 -2.0719
33812SOL    HW213162   5.771  11.385   8.167  1.3767 -0.3770  1.2259
33813SOL     OW13163   7.653   7.968   8.888 -0.0221 -0.3317 -0.0100
33813SOL    HW113164   7.723   7.940   8.829  0.4917  2.3363 -0.8237
33813SOL    HW213165   7.689   8.045   8.932 -1.7640 -0.0614  1.0362
33814SOL     OW13166  13.289   2.840  11.824  0.2940  0.0877 -0.0668
33814SOL    HW113167  13.270   2.768  11.884 -0.1634 -0.2945 -0.6639
33814SOL    HW213168  13.221   2.833  11.756  0.8858  0.4328 -0.6994
33815SOL     OW13169  10.703   9.361   4.172  0.6813 -0.7951  0.0216
33815SOL    HW113170  10.700   9.456   4.163  0.9238 -0.8229 -0.3531
33815SOL    HW213171  10.788   9.336   4.138  1.3216 -0.9896  1.6835
33816SOL     OW13172   1.294   9.313   7.550  0.3551  0.3226 -0.0056
33816SOL    HW113173   1.305   9.223   7.521  1.5997  0.1687  0.8372
33816SOL    HW213174   1.214   9.343   7.508  0.7005 -0.7029 -1.4714
33817SOL     OW13175  13.475   0.495   3.140 -0.4299 -0.1635 -0.5982
33817SOL    HW113176  13.543   0.428   3.147  0.9062  1.2374  0.5409
33817SOL    HW213177  13.520   0.577   3.158 -2.5942  0.7318  1.2459
33818SOL     OW13178   0.496  11.971  11.274  0.2679 -0.1575  0.0503
33818SOL    HW113179   0.459  12.053  11.307  0.7304 -0.2993  0.9730
33818SOL    HW213180   0.450  11.955  11.191  0.0015  0.9001 -0.0199
33819SOL     OW13181   1.774   7.119   7.114  0.1013  0.5996 -0.6102
33819SOL    HW113182   1.812   7.097   7.199 -1.0110  0.6876 -0.0710
33819SOL    HW213183   1.742   7.208   7.124  0.4108  0.7873 -1.2872
33820SOL     OW13184  13.622   2.390   9.907  0.3983 -0.2451  0.4609
33820SOL    HW113185  13.646   2.297   9.901 -0.6160 -0.5082  0.2679
33820SOL    HW213186  13.699   2.432   9.945  1.3640 -0.9481 -0.6456
33821SOL     OW13187   0.184   9.091   4.060  0.3634 -0.0176 -0.2649
33821SOL    HW113188   0.158   9.162   4.118 -2.7997  0.0851 -1.6062
33821SOL    HW213189   0.106   9.036   4.052  1.7647 -1.9585 -1.6772
33822SOL     OW13190  10.277   0.157  12.598  0.7016 -0.2685 -0.0648
33822SOL    HW113191  10.334   0.183  12.671 -0.3879  1.5054  0.2179
33822SOL    HW213192  10.230   0.237  12.575 -0.7749 -1.3793 -1.0956
33823SOL     OW13193  13.619   5.068   5.025  0.7869 -0.5889 -0.0639
33823SOL    HW113194  13.571   5.146   4.997  0.5174 -1.0564 -0.9477
33823SOL    HW213195  13.560   5.025   5.087  0.1884 -0.9877 -0.8953
33824SOL     OW13196  12.079  11.534   9.377  0.5717 -0.2384 -0.0630
33824SOL    HW113197  12.122  11.553   9.294  0.2956 -0.6336 -0.2936
33824SOL    HW213198  12.007  11.596   9.382  0.7676 -0.0149  0.0225
33825SOL     OW13199   2.237  11.979  12.802 -0.0803  0.5588 -0.0096
33825SOL    HW113200   2.168  11.914  12.811 -0.2809  0.8612  0.7197
33825SOL    HW213201   2.310  11.945  12.854  1.1152 -0.7681 -2.4000
33826SOL     OW13202  10.509  11.024   4.797 -0.4273  0.8741 -0.6047
33826SOL    HW113203  10.507  11.018   4.892  1.5010 -3.4669 -0.5797
33826SOL    HW213204  10.574  11.091   4.777 -1.4234  2.3875  1.0629
33827SOL     OW13205   9.854  13.284   6.108  0.4226  0.4773  0.5625
33827SOL    HW113206   9.812  13.286   6.194 -0.8018  3.2652  0.0128
33827SOL    HW213207   9.803  13.345   6.055 -0.3492 -2.7934 -2.9425
33828SOL     OW13208  10.660   3.645   4.076 -0.4128  0.4229  0.1646
33828SOL    HW113209  10.714   3.566   4.079  1.1703  1.4846  0.9620
33828SOL    HW213210  10.721   3.716   4.055 -1.9923  1.3174 -1.6931
33829SOL     OW13211   8.475   2.102  12.127  0.1355  0.4187  0.2279
33829SOL    HW113212   8.408   2.142  12.071  0.5890  0.9720  0.0776
33829SOL    HW213213   8.429   2.083  12.209 -0.0899  1.2633  0.3061
33830SOL     OW13214   3.663   2.367   3.341  0.3291 -0.7670 -0.2962
33830SOL    HW113215   3.743   2.408   3.373 -0.1318  0.9450 -1.1816
33830SOL    HW213216   3.669   2.376   3.246 -0.7407 -0.9284 -0.3864
33831SOL     OW13217   8.128   8.173   8.414 -0.6721 -0.0637 -0.9146
33831SOL    HW113218   8.126   8.213   8.327  2.5918  1.2786 -0.4973
33831SOL    HW213219   8.086   8.237   8.471 -0.9963 -0.0276 -1.1937
33832SOL     OW13220   1.546   2.341   3.219  0.3523  0.2903  0.3057
33832SOL    HW113221   1.584   2.350   3.131 -0.9151  0.2493 -0.2685
33832SOL    HW213222   1.621   2.336   3.277  1.2509  2.2888 -0.5727
33833SOL     OW13223   3.200  10.643   6.845  0.4252 -0.1523 -0.3806
33833SOL    HW113224   3.231  10.673   6.931 -0.9604  0.4258 -0.0503
33833SOL    HW213225   3.204  10.721   6.790 -3.9867  1.1235  0.6971
33834SOL     OW13226   1.263   5.634   2.769 -0.5634 -0.0301 -0.0104
33834SOL    HW113227   1.351   5.606   2.793  0.0538  0.1049 -1.9521
33834SOL    HW213228   1.221   5.555   2.734 -1.0103  0.0383  0.3635
33835SOL     OW13229   2.661  11.606   5.042  0.2383  0.0680 -0.0648
33835SOL    HW113230   2.730  11.671   5.031  0.0507  0.6607  1.8597
33835SOL    HW213231   2.675  11.544   4.970  2.5906  0.3203  0.0827
33836SOL     OW13232   4.062   6.762   7.736 -0.2366  0.3140 -0.1431
33836SOL    HW113233   4.095   6.773   7.825  0.6893  0.1300 -0.4529
33836SOL    HW213234   4.081   6.671   7.714  0.0684  0.5122 -0.7298
33837SOL     OW13235  10.103  12.634   2.521  0.1382 -0.1736 -0.0693
33837SOL    HW113236  10.009  12.631   2.539 -0.2377 -0.4622 -1.9041
33837SOL    HW213237  10.118  12.568   2.454  1.8564 -0.8467  0.9014
33838SOL     OW13238   1.791   0.155  10.287 -0.1277 -0.6881  0.0882
33838SOL    HW113239   1.704   0.175  10.255 -0.3364  0.0808  1.0753
33838SOL    HW213240   1.806   0.064  10.262 -1.2817 -0.8836  0.0686
33839SOL     OW13241  10.554  10.064   1.794  0.2815 -0.1767 -0.8399
33839SOL    HW113242  10.500  10.140   1.814 -2.0766 -2.2509  1.2941
33839SOL    HW213243  10.496  10.006   1.744  1.1273 -1.7019 -0.1115
33840SOL     OW13244  11.187  10.125  11.007 -0.6672  0.2283 -0.2676
33840SOL    HW113245  11.203  10.059  11.074  0.7568 -0.2667 -1.0620
33840SOL    HW213246  11.181  10.076  10.925 -0.7523  0.9792 -0.7213
33841SOL     OW13247  11.015   7.679   6.219 -0.0011 -0.0216 -0.2713
33841SOL    HW113248  10.957   7.737   6.269 -1.3214 -1.5991  0.0888
33841SOL    HW213249  11.076   7.644   6.283 -0.8508 -1.0166  0.0065
33842SOL     OW13250   8.748   5.828   6.401  0.7928  0.2010  0.7414
33842SOL    HW113251   8.826   5.773   6.401  0.9414  0.3850 -0.1934
33842SOL    HW213252   8.774   5.905   6.349  0.2395  0.6273  1.0909
33843SOL     OW13253   8.469   2.179   1.462  0.1465 -0.4007  0.1595
33843SOL    HW113254   8.528   2.114   1.501 -0.9146 -0.3116  2.0763
33843SOL    HW213255   8.403   2.127   1.416  0.6255 -0.5687 -0.3497
33844SOL     OW13256  11.982   1.108   7.919 -0.1509 -0.3929 -0.0748
33844SOL    HW113257  11.910   1.094   7.857  0.1361 -0.8575 -0.3119
33844SOL    HW213258  12.043   1.037   7.901  0.4754  0.1181 -0.0322
33845SOL     OW13259  11.602   6.435   4.686  0.3971  0.4134 -0.0372
33845SOL    HW113260  11.687   6.429   4.728  0.4069 -0.3857 -0.1513
33845SOL    HW213261  11.611   6.507   4.624  0.8941  0.5284  0.1642
33846SOL     OW13262   3.533   9.095   9.528  0.2115  0.6372 -0.2773
33846SOL    HW113263   3.612   9.043   9.542 -0.1594 -0.0830 -0.7859
33846SOL    HW213264   3.536   9.162   9.596  1.1687  0.5143 -0.1880
33847SOL     OW13265   7.384   5.549  11.107 -0.0704  0.5516 -0.1846
33847SOL    HW113266   7.466   5.501  11.107 -0.2585  0.2273 -0.5639
33847SOL    HW213267   7.406   5.635  11.071  0.1897  0.6276  0.1467
33848SOL     OW13268   5.542  13.144   2.823  0.0866  0.2029 -0.4514
33848SOL    HW113269   5.626  13.170   2.860 -0.2249  1.0610 -0.3323
33848SOL    HW213270   5.506  13.224   2.785 -2.2453  0.7174  2.5324
33849SOL     OW13271   4.010   0.858   6.050 -0.0797 -0.5334 -0.2673
33849SOL    HW113272   4.083   0.854   6.112 -0.5210 -0.7743  0.2483
33849SOL    HW213273   4.049   0.891   5.969  0.3143  0.7339  0.4133
33850SOL     OW13274   3.828   0.867   7.523  0.1433 -0.0493  0.1420
33850SOL    HW113275   3.777   0.831   7.450  0.4822 -1.5849  0.6296
33850SOL    HW213276   3.763   0.883   7.592  0.3557 -3.3396  1.2902
33851SOL     OW13277   7.990   0.271  10.929 -0.4585  0.1998 -0.8333
33851SOL    HW113278   7.978   0.365  10.918 -0.0391  0.4616  0.7669
33851SOL    HW213279   7.908   0.232  10.898 -0.8538  1.1240 -0.9739
33852SOL     OW13280   9.343   2.123   2.929  0.6035 -0.0772 -0.1656
33852SOL    HW113281   9.338   2.066   2.853  0.9177  0.1819 -0.3798
33852SOL    HW213282   9.382   2.068   2.998 -0.2296 -0.4909 -0.0145
33853SOL     OW13283  11.853   7.125   5.828  0.6063  0.3366 -0.5698
33853SOL    HW113284  11.839   7.125   5.923 -1.4816  1.9795 -0.8116
33853SOL    HW213285  11.797   7.054   5.796  3.4660 -2.1992 -0.4422
33854SOL     OW13286   9.517   9.473   6.557 -0.1033 -0.3033 -0.1274
33854SOL    HW113287   9.550   9.388   6.529  2.8890  0.6725  0.1569
33854SOL    HW213288   9.541   9.533   6.486  0.6511  0.8354  1.0445
33855SOL     OW13289   0.079   5.393   4.731  0.3517  0.2793 -0.5396
33855SOL    HW113290   0.050   5.388   4.822 -0.3469  0.9704 -0.7141
33855SOL    HW213291   0.078   5.486   4.711 -0.6695  0.0615 -1.6118
33856SOL     OW13292   0.850  13.413   7.659  0.4632  0.1750 -0.1184
33856SOL    HW113293   0.896  13.437   7.579 -0.1969 -1.0131 -0.8857
33856SOL    HW213294   0.758  13.428   7.639  0.2607 -0.5125  0.2638
33857SOL     OW13295   3.642   0.239  12.606 -0.1302  0.4775  0.7762
33857SOL    HW113296   3.628   0.164  12.548 -1.5940 -0.3042  2.0635
33857SOL    HW213297   3.737   0.251  12.606  0.1377 -1.2781  0.4013
33858SOL     OW13298   1.594  12.599   4.273 -0.1005 -0.1811 -0.4567
33858SOL    HW113299   1.576  12.544   4.197  0.1284 -1.8663  0.6700
33858SOL    HW213300   1.678  12.568   4.306 -1.1001 -0.8500  1.6257
33859SOL     OW13301  10.684   7.818  11.402 -0.8253  0.0426  0.3336
33859SOL    HW113302  10.694   7.724  11.414 -0.1121  0.2118  1.1696
33859SOL    HW213303  10.639   7.848  11.482  0.1684  0.5954  0.7033
33860SOL     OW13304   6.481   5.702   9.798 -0.4782  0.2155 -0.1544
33860SOL    HW113305   6.458   5.726   9.887  0.0736  1.7936 -0.4109
33860SOL    HW213306   6.419   5.750   9.743 -1.2699 -1.2928 -0.6212
33861SOL     OW13307   5.216  11.419  10.801 -0.1362  0.1881 -0.5569
33861SOL    HW113308   5.297  11.368  10.804 -0.4221 -0.2527 -0.0985
33861SOL    HW213309   5.167  11.381  10.728  0.2775  0.7814 -1.1491
33862SOL     OW13310  10.981   7.933   5.433 -0.0540 -0.1610 -0.5102
33862SOL    HW113311  10.890   7.905   5.447  0.1201 -1.5601 -1.9031
33862SOL    HW213312  10.983   7.961   5.342  1.0379 -0.6544 -0.6440
33863SOL     OW13313   4.098   2.974   5.792 -0.1227 -0.3991 -0.1142
33863SOL    HW113314   4.053   2.921   5.726 -0.2970  0.2870 -0.5509
33863SOL    HW213315   4.173   3.011   5.746 -1.0130  1.2151 -0.3446
33864SOL     OW13316   3.069   7.764  10.696 -0.1321 -0.4030  0.5277
33864SOL    HW113317   3.016   7.835  10.733 -2.3901 -1.9609  0.4962
33864SOL    HW213318   3.122   7.806  10.629 -1.7460  1.2024  0.1826
33865SOL     OW13319  11.097   4.469  11.486  0.0317 -0.1680 -0.0949
33865SOL    HW113320  11.193   4.469  11.480 -0.0248 -0.4780 -1.1633
33865SOL    HW213321  11.068   4.441  11.400 -1.0206 -0.7983  0.4553
33866SOL     OW13322   1.238   4.196  11.301 -0.2547 -0.5058  0.1002
33866SOL    HW113323   1.269   4.284  11.322  0.7171 -0.0800 -2.7468
33866SOL    HW213324   1.318   4.146  11.284 -0.8711 -0.8782 -1.9791
33867SOL     OW13325   1.059   9.331  13.634  0.1030  0.0309  0.1646
33867SOL    HW113326   1.097   9.335  13.722  0.6773 -1.1274 -0.0090
33867SOL    HW213327   0.976   9.284  13.646 -0.6392  1.3330  0.3257
33868SOL     OW13328   5.343   1.560  11.572 -0.2679  0.1479 -0.4294
33868SOL    HW113329   5.334   1.481  11.517  0.4070 -0.3695  0.1859
33868SOL    HW213330   5.436   1.566  11.590 -0.2747  1.2596 -0.6820
33869SOL     OW13331   1.699   0.519  11.097 -0.3908 -0.6024 -0.1726
33869SOL    HW113332   1.641   0.447  11.123  1.2009 -2.1929 -0.7798
33869SOL    HW213333   1.777   0.475  11.063 -0.8538  1.3050 -4.2791
33870SOL     OW13334   9.189   3.329  10.294  0.0941  0.2564  0.2590
33870SOL    HW113335   9.238   3.347  10.214  0.3169  0.6090  0.4718
33870SOL    HW213336   9.220   3.244  10.324  2.1255  1.3755  1.5358
33871SOL     OW13337   3.271   2.941  13.032  0.4513  0.4037  0.0190
33871SOL    HW113338   3.253   2.852  13.063  0.5800  0.4924  0.3646
33871SOL    HW213339   3.361   2.937  13.000 -0.4029 -0.2362 -2.4554
33872SOL     OW13340   0.237   5.048   3.928 -0.1714 -0.5938 -0.0099
33872SOL    HW113341   0.181   4.976   3.899 -0.8410  0.2968 -1.0434
33872SOL    HW213342   0.288   5.071   3.850 -0.2002  0.2448  0.2085
33873SOL     OW13343   1.340   6.904  10.363 -0.0810 -0.2325  0.1719
33873SOL    HW113344   1.332   6.994  10.395  1.1414 -0.0921  0.1420
33873SOL    HW213345   1.252   6.881  10.333 -0.5089  0.7913  0.5929
33874SOL     OW13346   9.420   5.436   1.999 -0.6802 -0.5315 -0.4667
33874SOL    HW113347   9.394   5.346   1.980  0.4100 -0.4782 -2.4730
33874SOL    HW213348   9.404   5.483   1.918 -0.0721  0.8195  0.1663
33875SOL     OW13349  10.341   3.825   9.475  0.5613  0.2875 -0.2502
33875SOL    HW113350  10.383   3.855   9.394 -1.0628  0.3092 -1.1297
33875SOL    HW213351  10.247   3.829   9.456  0.1738 -0.9450  1.2031
33876SOL     OW13352   7.715   1.169   3.650  0.1123  0.3759  0.3996
33876SOL    HW113353   7.728   1.082   3.688  1.0862  0.5957  0.5967
33876SOL    HW213354   7.620   1.178   3.642  0.0238 -1.0210 -0.3645
33877SOL     OW13355   2.892  11.090   2.642  0.4605 -0.3364  0.1642
33877SOL    HW113356   2.811  11.128   2.676 -2.1980 -4.1421 -1.2777
33877SOL    HW213357   2.930  11.045   2.717 -1.2227 -2.1710  0.0082
33878SOL     OW13358   0.137   1.178  12.775  0.1785 -0.1317 -0.0009
33878SOL    HW113359   0.085   1.189  12.855  0.4544  0.6185  0.0802
33878SOL    HW213360   0.135   1.084  12.758 -0.8251 -0.1674  0.2603
33879SOL     OW13361   2.251   4.745   6.442 -0.0525  0.4471  0.3967
33879SOL    HW113362   2.197   4.738   6.521 -0.0531 -1.5042  0.2753
33879SOL    HW213363   2.284   4.656   6.428 -1.0118  0.4389 -2.4725
33880SOL     OW13364   1.677  12.430   3.806 -0.4406 -0.3432  0.1576
33880SOL    HW113365   1.678  12.334   3.810  0.4167 -0.3199  1.0781
33880SOL    HW213366   1.600  12.455   3.856 -0.5320 -0.5535  0.1238
33881SOL     OW13367   0.851   4.934   5.945  0.0258 -0.7240  0.3437
33881SOL    HW113368   0.846   4.947   5.850  2.2676 -2.6631 -0.1508
33881SOL    HW213369   0.864   5.022   5.981  1.4745 -0.1572 -1.4070
33882SOL     OW13370  12.429   8.780   2.540 -0.0827 -0.4169  0.2968
33882SOL    HW113371  12.460   8.777   2.630 -0.6729  0.0730  0.5190
33882SOL    HW213372  12.396   8.691   2.524  0.0638 -0.5182  0.5445
33883SOL     OW13373   0.901   8.757   9.721 -0.1093  0.1595  0.4714
33883SOL    HW113374   0.946   8.673   9.728 -0.8976 -0.3924 -0.6359
33883SOL    HW213375   0.960   8.820   9.760  0.1795 -1.0189  2.0352
33884SOL     OW13376   8.238  10.797   9.797 -0.0504  0.1562 -0.0467
33884SOL    HW113377   8.328  10.827   9.786  0.0552 -1.0014 -3.6239
33884SOL    HW213378   8.244  10.702   9.800 -1.1604 -0.1885 -3.5900
33885SOL     OW13379   6.476  10.166   7.468  0.4347 -0.3318  0.2032
33885SOL    HW113380   6.385  10.141   7.453  1.3213 -2.8909 -1.7293
33885SOL    HW213381   6.513  10.175   7.381  2.5207 -1.5370  0.8832
33886SOL     OW13382   6.598   9.000   8.536 -0.0565  0.1814  0.1306
33886SOL    HW113383   6.645   9.012   8.619  0.0994  1.5726 -0.1306
33886SOL    HW213384   6.551   8.918   8.547 -0.5661  0.6568  1.8637
33887SOL     OW13385   5.315  12.769  10.560 -0.6227  0.3683  0.1213
33887SOL    HW113386   5.376  12.700  10.588 -0.5808  1.0530  1.8666
33887SOL    HW213387   5.329  12.777  10.466  2.2534  0.7086  0.4887
33888SOL     OW13388  11.738   7.425   5.924 -0.3927  0.3471  0.1656
33888SOL    HW113389  11.803   7.404   5.991  0.3928 -0.0883 -0.7106
33888SOL    HW213390  11.654   7.422   5.970  0.0888 -0.3831  1.0284
33889SOL     OW13391   9.496  11.394   7.680  0.0249  0.1408 -0.5340
33889SOL    HW113392   9.498  11.375   7.587  0.5376  1.2827 -0.7713
33889SOL    HW213393   9.495  11.490   7.686  3.4397  0.2323  0.6442
33890SOL     OW13394   6.081   3.470  10.525  0.0466  0.1902  0.3719
33890SOL    HW113395   6.078   3.556  10.484 -1.6517  0.1335  0.3003
33890SOL    HW213396   6.075   3.488  10.619 -1.4002  0.1408  0.3103
33891SOL     OW13397  12.860   3.642   4.022  0.6801 -0.5892  0.0674
33891SOL    HW113398  12.900   3.608   3.942  1.8473  1.3105 -0.2073
33891SOL    HW213399  12.919   3.712   4.051 -0.8854  0.2619  1.3504
33892SOL     OW13400  12.263  12.202   1.469  0.7336  0.0452  0.2660
33892SOL    HW113401  12.170  12.193   1.490  1.0194  0.2473  1.7554
33892SOL    HW213402  12.267  12.269   1.401 -0.2393 -0.2946 -0.1343
33893SOL     OW13403   6.666   4.485   1.026 -0.4439 -0.5621 -0.4127
33893SOL    HW113404   6.662   4.484   0.931 -0.6627  0.3147 -0.4180
33893SOL    HW213405   6.686   4.576   1.049 -1.5948 -0.4968  0.4268
33894SOL     OW13406   3.220  11.173   9.042  0.5584 -0.2015  0.0177
33894SOL    HW113407   3.201  11.263   9.016  1.6608  0.4030  1.2157
33894SOL    HW213408   3.196  11.120   8.965  2.4009  1.3620 -1.7483
33895SOL     OW13409   9.396   0.823   2.290 -0.0785  0.3590 -0.1744
33895SOL    HW113410   9.376   0.772   2.212 -0.5974  1.0188 -0.4798
33895SOL    HW213411   9.454   0.892   2.260  0.0250  0.3904  0.0935
33896SOL     OW13412   5.486   0.353   3.355 -0.4703  0.2152 -0.3512
33896SOL    HW113413   5.436   0.325   3.278 -2.9669  0.7657  0.9582
33896SOL    HW213414   5.549   0.283   3.370 -1.5041 -1.0160 -1.5254
33897SOL     OW13415  13.638  13.534   4.632 -0.2000  0.0095  1.0741
33897SOL    HW113416  13.733  13.519   4.635 -0.2293 -0.0717  1.6063
33897SOL    HW213417  13.616  13.568   4.718 -0.7626 -0.5884  1.1715
33898SOL     OW13418  11.363   2.748  13.391 -0.1147  0.0118  0.0542
33898SOL    HW113419  11.459   2.752  13.380 -0.0652  1.4049  0.8040
33898SOL    HW213420  11.347   2.660  13.425  0.7490 -0.7200 -1.3253
33899SOL     OW13421  10.428   8.805   3.195 -0.2563  0.4827  0.2938
33899SOL    HW113422  10.521   8.786   3.189 -0.7871 -2.0901 -1.9874
33899SOL    HW213423  10.418   8.890   3.153  0.7918 -0.6054 -2.3661
33900SOL     OW13424   0.573  13.572   1.268  0.2632  0.5971  0.5661
33900SOL    HW113425   0.655  13.619   1.258  0.8208 -0.3541  0.5827
33900SOL    HW213426   0.593  13.500   1.328 -0.3031 -0.2919 -0.2829
33901SOL     OW13427  11.946   3.704   5.541 -0.9370 -0.2420 -0.4053
33901SOL    HW113428  11.916   3.616   5.518 -0.0998 -0.9345  0.9916
33901SOL    HW213429  11.868   3.759   5.536 -1.5445 -1.1306 -0.9442
33902SOL     OW13430   0.232   2.981   6.583 -0.2385 -0.8339 -0.8415
33902SOL    HW113431   0.207   3.014   6.669 -0.2735 -2.2105 -0.3108
33902SOL    HW213432   0.307   3.036   6.558 -0.0560 -0.5894  0.1866
33903SOL     OW13433  13.314  12.782  12.909 -0.7132  0.0674  0.3749
33903SOL    HW113434  13.385  12.729  12.873 -0.9741 -0.6538  0.9061
33903SOL    HW213435  13.270  12.724  12.971 -1.7501  0.5275  0.0755
33904SOL     OW13436  12.197   6.028   1.981  0.1326 -0.4097 -0.2238
33904SOL    HW113437  12.179   6.027   2.075  0.1253 -0.6442 -0.2260
33904SOL    HW213438  12.166   6.113   1.951  0.3285 -0.2495  0.0243
33905SOL     OW13439   2.327   8.091  11.287 -0.6429  0.0225  0.0435
33905SOL    HW113440   2.291   8.046  11.211 -1.7247  0.8045  0.0801
33905SOL    HW213441   2.413   8.050  11.300 -0.7954 -0.6972 -1.0751
33906SOL     OW13442   3.165  11.755  12.908 -0.2721  0.0180 -0.0215
33906SOL    HW113443   3.108  11.783  12.838 -1.2226  1.5737  1.3009
33906SOL    HW213444   3.118  11.684  12.951 -0.4193  0.1264 -0.0041
33907SOL     OW13445   5.450   4.501  12.690 -0.3635 -0.1466  0.2465
33907SOL    HW113446   5.489   4.446  12.622  1.5763  1.2553  0.1268
33907SOL    HW213447   5.391   4.560  12.643 -1.6923 -1.4181  0.2569
33908SOL     OW13448  12.739  11.967   9.403  0.1043  0.0667 -0.6349
33908SOL    HW113449  12.807  11.900   9.406 -3.5920 -4.1130  0.5270
33908SOL    HW213450  12.709  11.966   9.312  0.4607  0.6393 -0.7612
33909SOL     OW13451   4.326   9.721   3.517  0.3245 -0.9324 -0.0998
33909SOL    HW113452   4.234   9.744   3.513  0.2706 -1.2564 -1.0351
33909SOL    HW213453   4.372   9.801   3.492  0.3892 -0.3215  1.8098
33910SOL     OW13454  11.716  10.138   9.505  1.0541  0.1355 -0.5066
33910SOL    HW113455  11.757  10.214   9.464  0.6218  1.2325  0.9936
33910SOL    HW213456  11.752  10.137   9.594 -1.5335  0.7112  0.6412
33911SOL     OW13457  13.478   2.046   6.846  0.2183  0.2987  0.1319
33911SOL    HW113458  13.483   2.022   6.754 -1.9988 -1.1911  0.3267
33911SOL    HW213459  13.548   2.111   6.858 -0.7448  2.1544 -3.0888
33912SOL     OW13460   2.068   3.427  10.290  0.0720 -0.2425 -0.3832
33912SOL    HW113461   2.091   3.335  10.282 -2.4863 -1.1119  1.1085
33912SOL    HW213462   2.070   3.444  10.384 -3.2845  0.0092 -0.2131
33913SOL     OW13463   0.311  12.299  11.951  0.4024  0.0978  0.1485
33913SOL    HW113464   0.224  12.278  11.986 -0.9702  2.4353 -1.6110
33913SOL    HW213465   0.360  12.331  12.027 -0.5216 -0.4235  0.9991
33914SOL     OW13466  11.087   2.534  13.684 -0.2743 -0.2886  0.0336
33914SOL    HW113467  11.078   2.625  13.711  0.4251 -0.5730  1.3329
33914SOL    HW213468  11.171   2.531  13.638  0.3106 -0.4916  1.0794
33915SOL     OW13469   1.676   1.899   9.323  0.0146 -0.1817  0.2630
33915SOL    HW113470   1.677   1.803   9.316  0.9241 -0.0581 -2.0482
33915SOL    HW213471   1.755   1.920   9.373  0.8038 -0.5680 -0.7981
33916SOL     OW13472  13.434  12.330   0.635 -0.0962  0.1119 -0.4465
33916SOL    HW113473  13.437  12.362   0.725 -0.5879 -0.9935 -0.0147
33916SOL    HW213474  13.489  12.252   0.635  0.0650  0.2175 -1.1527
33917SOL     OW13475   6.270   2.734  13.032 -0.3042  0.1299 -0.4442
33917SOL    HW113476   6.321   2.766  12.958  0.1950 -1.5850 -0.8846
33917SOL    HW213477   6.331   2.736  13.106 -0.7977  1.8242 -0.0346
33918SOL     OW13478  13.630   3.263   1.855  0.0628 -0.4000  0.0579
33918SOL    HW113479  13.647   3.267   1.761 -1.3515 -1.8433 -0.3037
33918SOL    HW213480  13.680   3.335   1.891  1.3940 -0.3854 -1.6881
33919SOL     OW13481   4.756   3.245  10.168  0.2993  0.4389 -0.3487
33919SOL    HW113482   4.687   3.284  10.113  0.8837 -0.2888 -1.6497
33919SOL    HW213483   4.809   3.320  10.196 -0.1439  0.8521 -0.5853
33920SOL     OW13484   3.392  12.745   0.444  0.7885 -0.2101 -0.3655
33920SOL    HW113485   3.471  12.755   0.391  0.6248  0.8099 -0.4421
33920SOL    HW213486   3.413  12.677   0.507  1.4046 -0.5898 -0.9771
33921SOL     OW13487  12.348   5.645   2.180 -0.0794 -0.7761 -0.1375
33921SOL    HW113488  12.311   5.580   2.239  0.2283 -1.5144 -0.7292
33921SOL    HW213489  12.353   5.600   2.095 -1.1597  0.4761 -0.9039
33922SOL     OW13490   4.443   9.175   6.299 -0.0488  0.3286  0.4783
33922SOL    HW113491   4.427   9.087   6.265  3.5190  0.1003 -1.0352
33922SOL    HW213492   4.382   9.231   6.251  0.4311 -0.8362 -1.6085
33923SOL     OW13493   7.502   5.323   7.332 -0.2612 -0.4569  0.1580
33923SOL    HW113494   7.574   5.321   7.395 -1.6703  2.8580  2.1351
33923SOL    HW213495   7.538   5.365   7.254  0.5005 -0.9023  0.2668
33924SOL     OW13496   9.937   9.458   3.474 -0.0594 -0.0122 -0.0415
33924SOL    HW113497   9.933   9.365   3.450 -2.1825  0.2702 -1.0023
33924SOL    HW213498   9.888   9.465   3.555  1.8480  0.0063  1.1675
33925SOL     OW13499   6.068  10.600  11.214  0.9986  0.3433  0.1366
33925SOL    HW113500   5.990  10.638  11.255  1.2212 -1.1434  2.1277
33925SOL    HW213501   6.130  10.672  11.208 -0.3003  1.4271 -0.9849
33926SOL     OW13502   9.663   6.730   3.326  0.2832  0.9033  0.1645
33926SOL    HW113503   9.576   6.763   3.301 -0.0344  0.3287  0.4871
33926SOL    HW213504   9.724   6.795   3.292 -0.3358  1.9445  0.9807
33927SOL     OW13505   3.217   1.863   1.691  0.0989 -0.2480  0.3735
33927SOL    HW113506   3.306   1.846   1.661  0.5019  2.0496  0.0879
33927SOL    HW213507   3.225   1.941   1.746 -1.9584  1.0294 -1.0041
33928SOL     OW13508  12.782   2.673   5.552 -0.1454  0.0149 -0.4663
33928SOL    HW113509  12.811   2.582   5.559 -0.1787  0.0899  0.9260
33928SOL    HW213510  12.851   2.717   5.503  0.9066 -0.3388  0.6558
33929SOL     OW13511   8.038  10.211  12.273 -0.9358  0.1500  0.5446
33929SOL    HW113512   8.105  10.157  12.314  1.5591  2.7054  0.1708
33929SOL    HW213513   8.029  10.287  12.330 -1.7314  1.0134 -0.6572
33930SOL     OW13514  12.767   6.288  13.301  0.6415  0.3122  0.0064
33930SOL    HW113515  12.771   6.340  13.221  0.7915  0.0223 -0.1740
33930SOL    HW213516  12.674   6.274  13.316  0.6355 -0.3407 -0.5783
33931SOL     OW13517   4.487   5.861  12.783  0.0553 -0.1998 -0.5288
33931SOL    HW113518   4.480   5.833  12.874 -0.5237 -0.3692 -0.6250
33931SOL    HW213519   4.465   5.784  12.732 -2.1102  0.5179 -0.7950
33932SOL     OW13520   0.771   0.757  10.741  0.2176  0.5396 -0.0216
33932SOL    HW113521   0.865   0.769  10.731  0.4632  0.3256  1.7165
33932SOL    HW213522   0.733   0.793  10.661  1.7482  0.9453 -0.5889
33933SOL     OW13523   4.391   7.728   7.047  0.0459 -0.0713  0.1237
33933SOL    HW113524   4.299   7.704   7.043 -0.1257  0.0830  2.1355
33933SOL    HW213525   4.417   7.710   7.138  1.5042  1.6212  0.1022
33934SOL     OW13526   1.748  11.474   7.592 -0.1765  0.3103 -0.7639
33934SOL    HW113527   1.825  11.418   7.604  0.6711  1.4920 -0.4576
33934SOL    HW213528   1.735  11.515   7.678  0.3270  1.9230 -1.4328
33935SOL     OW13529   5.097   6.685  12.143 -0.3195  0.1388 -0.1620
33935SOL    HW113530   5.085   6.723  12.056  0.9105  1.6189  0.2865
33935SOL    HW213531   5.145   6.751  12.193  0.0627 -1.1619  1.2922
33936SOL     OW13532   6.729  13.135   4.109  0.6352 -0.2400 -0.3341
33936SOL    HW113533   6.652  13.084   4.086 -0.2903  0.6878  0.5830
33936SOL    HW213534   6.745  13.114   4.201  0.3515  0.9257  0.0062
33937SOL     OW13535  11.982  13.072   4.756 -0.1149  0.8432  0.3975
33937SOL    HW113536  11.976  13.043   4.664  0.0789  2.2927 -0.0896
33937SOL    HW213537  12.013  12.994   4.803 -0.1347  0.0976 -0.7737
33938SOL     OW13538  10.921   1.186   7.433 -0.5631  0.3443 -0.4927
33938SOL    HW113539  10.967   1.238   7.500 -0.5465  0.1744 -0.3696
33938SOL    HW213540  10.952   1.222   7.350  0.7493 -0.5626 -0.4349
33939SOL     OW13541   0.791  10.535   2.129 -0.0210 -0.5246 -0.1538
33939SOL    HW113542   0.771  10.471   2.061  3.6419 -1.3116 -0.6986
33939SOL    HW213543   0.811  10.616   2.081 -0.2199 -0.2643  0.1970
33940SOL     OW13544   2.393   0.389  11.044  0.3123  0.4990  0.5581
33940SOL    HW113545   2.397   0.385  11.140  0.1241 -0.8009  0.5307
33940SOL    HW213546   2.478   0.424  11.018  1.0248 -0.7423  1.1447
33941SOL     OW13547   8.050  13.562   5.915  0.2624 -0.1948 -0.3405
33941SOL    HW113548   8.092  13.574   5.829 -0.0810 -1.3070 -0.6768
33941SOL    HW213549   7.973  13.619   5.911  0.7237  0.4292 -0.4341
33942SOL     OW13550   7.169   2.673  12.929 -0.0863 -0.3463  0.1068
33942SOL    HW113551   7.200   2.589  12.897  1.6643  0.5135 -0.6017
33942SOL    HW213552   7.248   2.718  12.959 -1.2245  0.3325  2.2647
33943SOL     OW13553   8.698  12.668   4.517  0.1110 -0.1143  0.1490
33943SOL    HW113554   8.614  12.693   4.555  0.4287 -0.2335  0.9426
33943SOL    HW213555   8.685  12.578   4.487 -0.2289  0.0813 -0.3061
33944SOL     OW13556   9.156   5.807  10.201  0.1891  0.4524  0.5879
33944SOL    HW113557   9.087   5.855  10.154 -0.3139  0.0436  0.8959
33944SOL    HW213558   9.220   5.874  10.224  0.4927  0.6487 -0.7605
33945SOL     OW13559  13.534  11.175   3.182  0.1947  0.0445 -0.4954
33945SOL    HW113560  13.615  11.189   3.231  0.6287 -0.1768 -1.1370
33945SOL    HW213561  13.469  11.230   3.227  0.1821 -1.3111  1.2927
33946SOL     OW13562   7.749   0.945   0.665  0.6577  0.3787 -0.0333
33946SOL    HW113563   7.654   0.941   0.652  0.6967 -0.1157 -0.1779
33946SOL    HW213564   7.760   0.950   0.760  0.5290 -0.9211  0.0584
33947SOL     OW13565   6.840  13.632   0.869 -0.0313 -0.0253 -0.1160
33947SOL    HW113566   6.757  13.621   0.915 -0.5788 -0.4933 -1.1704
33947SOL    HW213567   6.907  13.614   0.935 -0.7824 -0.2984  0.5849
33948SOL     OW13568   2.284   8.533   3.890 -0.5085  0.3460 -0.3874
33948SOL    HW113569   2.212   8.487   3.933 -0.7493  0.8138 -0.2804
33948SOL    HW213570   2.265   8.525   3.796 -1.8489  2.2105 -0.3507
33949SOL     OW13571  12.173  13.519  13.528  0.2578 -0.4986  0.3268
33949SOL    HW113572  12.082  13.549  13.529 -0.7954 -3.3093 -0.7022
33949SOL    HW213573  12.214  13.567  13.456 -0.5057  0.4491  0.4997
33950SOL     OW13574   6.299   4.838  11.101  0.2097  0.4160 -0.3695
33950SOL    HW113575   6.315   4.796  11.016 -0.5940  0.0956 -0.3714
33950SOL    HW213576   6.261   4.770  11.155 -1.5192  1.2049 -0.5104
33951SOL     OW13577   4.271   5.748  13.440  0.1765 -0.0862 -0.3076
33951SOL    HW113578   4.253   5.809  13.369  0.5240  0.4800  0.0839
33951SOL    HW213579   4.365   5.756  13.456 -0.0008  0.2712  0.6381
33952SOL     OW13580   5.764  10.785   7.818 -0.1139  0.6808  0.3851
33952SOL    HW113581   5.673  10.757   7.814  0.0352  0.2575 -0.1781
33952SOL    HW213582   5.804  10.730   7.885  0.0423 -0.0786 -0.3185
33953SOL     OW13583   7.229  10.761  13.159  0.0924 -0.5438  0.7433
33953SOL    HW113584   7.182  10.812  13.093 -1.2465 -2.8566 -0.2040
33953SOL    HW213585   7.161  10.715  13.208  1.1337  0.1637  3.0089
33954SOL     OW13586   2.517   9.254   5.989 -0.2752  0.2423 -0.0989
33954SOL    HW113587   2.521   9.341   6.030  3.2773 -1.0067  2.7128
33954SOL    HW213588   2.570   9.262   5.910  2.1142  0.1787  1.4177
33955SOL     OW13589   9.086  10.653   7.651  0.6630 -0.2612  0.0999
33955SOL    HW113590   9.038  10.570   7.646  1.7993 -0.8897 -1.0769
33955SOL    HW213591   9.143  10.644   7.726 -0.8031  0.3866  1.3495
33956SOL     OW13592  10.371   5.607   4.760  0.4028 -0.1695 -0.3752
33956SOL    HW113593  10.355   5.574   4.672  0.1274 -1.1527  0.0285
33956SOL    HW213594  10.292   5.584   4.809  0.1875  1.1152 -0.0673
33957SOL     OW13595   3.323   1.673   4.013 -0.0163 -0.1200 -0.0860
33957SOL    HW113596   3.373   1.680   3.931 -2.8751 -0.8742 -2.0650
33957SOL    HW213597   3.241   1.719   3.994 -2.2409 -3.2909  1.0468
33958SOL     OW13598  10.524  10.561   5.800 -0.2636 -0.1201 -0.2750
33958SOL    HW113599  10.553  10.615   5.873  0.2978 -0.1061 -0.5044
33958SOL    HW213600  10.428  10.562   5.806 -0.2619  0.8722 -0.2678
33959SOL     OW13601  10.296   4.465  11.282 -0.0646  0.2875  0.1724
33959SOL    HW113602  10.289   4.432  11.372 -3.2400  1.6741  0.5656
33959SOL    HW213603  10.387   4.494  11.275  0.7434 -1.3525  2.3368
33960SOL     OW13604   2.919  12.427   7.588  0.0372  0.5024  0.3477
33960SOL    HW113605   2.996  12.452   7.539  0.1199  0.9939  0.7147
33960SOL    HW213606   2.933  12.335   7.611 -0.3289  0.0493 -1.1344
33961SOL     OW13607   2.573   8.251  13.188 -1.2148 -0.4691  0.0760
33961SOL    HW113608   2.572   8.213  13.101 -0.4527 -1.9688  0.6826
33961SOL    HW213609   2.599   8.343  13.175 -0.1919 -0.9187 -1.1886
33962SOL     OW13610   2.148   4.706   3.609 -0.1089 -0.1522  0.3152
33962SOL    HW113611   2.143   4.614   3.580 -1.4016  0.5971 -2.1320
33962SOL    HW213612   2.230   4.711   3.659  1.7514 -1.9542 -2.2692
33963SOL     OW13613   6.805   0.234   9.733  0.5426  0.1745 -0.3172
33963SOL    HW113614   6.784   0.226   9.640 -2.5370 -1.7787  0.4066
33963SOL    HW213615   6.726   0.204   9.778  1.9350  1.0068  2.9589
33964SOL     OW13616  12.016   2.212  10.640  0.0203  0.4037  0.1954
33964SOL    HW113617  11.984   2.302  10.635  0.6606  0.5956 -0.6597
33964SOL    HW213618  12.074   2.211  10.716  1.0082  1.0517 -0.5309
33965SOL     OW13619   6.653   7.118   0.287  0.4660  0.0206  0.0054
33965SOL    HW113620   6.636   7.139   0.196 -1.3892  0.5980  0.4414
33965SOL    HW213621   6.744   7.089   0.289  1.8471  3.6878 -1.4087
33966SOL     OW13622   4.830  12.403   2.920 -0.1837 -0.0994  0.0201
33966SOL    HW113623   4.902  12.462   2.941 -1.5151  2.3053 -1.6966
33966SOL    HW213624   4.782  12.447   2.850 -3.2340 -1.6229  0.9490
33967SOL     OW13625   3.396   7.549   6.479 -0.4398 -0.1106 -0.5145
33967SOL    HW113626   3.409   7.640   6.506  2.1770 -0.5492  0.0162
33967SOL    HW213627   3.318   7.520   6.526  0.1656  1.1274  1.3591
33968SOL     OW13628  11.153   4.728   0.853  0.2004 -0.5977  0.6580
33968SOL    HW113629  11.177   4.813   0.816 -1.7102 -0.0695  0.5207
33968SOL    HW213630  11.222   4.668   0.824  0.0588  0.3027 -1.7648
33969SOL     OW13631   1.233   7.814  11.373 -0.3136  0.1403 -0.3129
33969SOL    HW113632   1.167   7.755  11.410 -0.2212 -1.0574 -1.9478
33969SOL    HW213633   1.316   7.777  11.402 -0.2858  1.7744  1.9302
33970SOL     OW13634   0.564  10.686   6.475 -0.0078  0.1048 -0.3706
33970SOL    HW113635   0.614  10.687   6.393 -0.9923 -1.0189 -0.9990
33970SOL    HW213636   0.475  10.663   6.449 -0.2421 -0.7088  1.0591
33971SOL     OW13637   8.438   0.863   8.072  0.6209  0.3889  0.1145
33971SOL    HW113638   8.527   0.876   8.105  0.9567 -0.4178 -0.4444
33971SOL    HW213639   8.428   0.768   8.067  0.6861  0.4478 -2.3219
33972SOL     OW13640   8.439   8.883  10.508 -1.3117 -0.2001  0.0489
33972SOL    HW113641   8.490   8.919  10.436 -0.0265 -1.1928  0.4302
33972SOL    HW213642   8.499   8.823  10.553 -2.2598 -0.0415  1.6016
33973SOL     OW13643  11.711   1.702  13.521  0.2139  0.4021  0.1256
33973SOL    HW113644  11.738   1.646  13.448 -0.1187  2.6499 -1.8445
33973SOL    HW213645  11.620   1.678  13.538  0.6334 -0.9255  0.6315
33974SOL     OW13646   6.099  10.842  10.971  0.0829  0.5341 -0.4153
33974SOL    HW113647   6.042  10.801  11.037  1.4970 -0.6413  0.1542
33974SOL    HW213648   6.069  10.806  10.888 -1.3539  1.5870 -0.3850
33975SOL     OW13649  12.136   5.038   2.647  0.4177 -0.2204  0.1470
33975SOL    HW113650  12.206   5.102   2.638 -0.7769  0.8442 -2.6838
33975SOL    HW213651  12.155   4.972   2.580  0.5236 -1.8358  1.6713
33976SOL     OW13652  13.503   9.435   6.915 -0.1193  0.2168 -0.1793
33976SOL    HW113653  13.431   9.433   6.851 -1.8765  3.5391  1.4228
33976SOL    HW213654  13.471   9.492   6.985  2.8717 -0.8308  2.2750
33977SOL     OW13655   4.640   1.127  11.171  0.0270  0.0202 -0.2487
33977SOL    HW113656   4.692   1.068  11.117  2.3150 -0.7567  2.5058
33977SOL    HW213657   4.550   1.094  11.164  0.9956 -2.9919  0.0906
33978SOL     OW13658   6.365  10.732  11.554 -0.1065  0.2740 -0.4807
33978SOL    HW113659   6.343  10.647  11.592  0.3013 -0.3870 -1.6687
33978SOL    HW213660   6.283  10.781  11.557 -0.2182  0.0528  0.7182
33979SOL     OW13661   2.117   6.801   2.938 -0.1866  0.3199 -0.1810
33979SOL    HW113662   2.197   6.799   2.886 -1.4874  1.9046 -2.3890
33979SOL    HW213663   2.125   6.880   2.992  0.6255 -0.6740  1.2143
33980SOL     OW13664  10.511  13.337   8.458  0.5947 -0.1355  0.3505
33980SOL    HW113665  10.525  13.303   8.546  1.1013  0.0856  0.3570
33980SOL    HW213666  10.568  13.414   8.453 -2.2578  2.2631  1.2164
33981SOL     OW13667   3.738   5.708   4.376  0.3568 -0.6937  0.0907
33981SOL    HW113668   3.680   5.781   4.352  1.9120  0.4111 -0.5011
33981SOL    HW213669   3.742   5.710   4.471 -0.6542 -0.8699  0.1479
33982SOL     OW13670   8.010   3.148   8.009 -0.9901  0.3126 -0.1564
33982SOL    HW113671   8.055   3.123   8.089  0.7655  0.2121 -1.1244
33982SOL    HW213672   8.031   3.079   7.947 -0.1079  1.6694 -1.4480
33983SOL     OW13673  11.200  11.440   8.027 -0.6096  0.3493  0.2496
33983SOL    HW113674  11.157  11.411   7.947 -1.0295  0.9604  0.2457
33983SOL    HW213675  11.225  11.359   8.072  0.6668 -0.0028 -1.0303
33984SOL     OW13676   9.587   0.438   6.443  0.2964 -0.5413  0.0315
33984SOL    HW113677   9.657   0.424   6.380  1.7917 -1.3710  1.7669
33984SOL    HW213678   9.540   0.515   6.410  0.7619 -1.1613 -2.2386
33985SOL     OW13679   6.545   6.956  11.108 -0.0886 -0.1432  0.3358
33985SOL    HW113680   6.546   6.932  11.201  0.4620 -0.9120  0.1444
33985SOL    HW213681   6.458   6.930  11.078  0.2086 -1.1952  0.3286
33986SOL     OW13682   9.557   6.913  11.993 -0.4379  0.2810 -0.2195
33986SOL    HW113683   9.539   6.843  12.055 -1.5704 -0.0003 -0.8300
33986SOL    HW213684   9.545   6.993  12.044 -0.3060  0.0472  0.1848
33987SOL     OW13685  12.273  13.441   5.098 -0.0196  0.4032 -0.4630
33987SOL    HW113686  12.235  13.415   5.182  3.0786  0.4212  1.1071
33987SOL    HW213687  12.261  13.536   5.094 -1.1277  0.2704 -0.6046
33988SOL     OW13688   1.145   9.953  10.433  0.1026  0.7922  0.0715
33988SOL    HW113689   1.159   9.883  10.496  1.3147  0.9277 -0.0324
33988SOL    HW213690   1.228  10.001  10.431 -0.9228  2.6950  0.7065
33989SOL     OW13691  13.058   5.097  10.857  0.0012  0.2052  0.0045
33989SOL    HW113692  13.044   5.191  10.867  0.6814  0.1134  2.4608
33989SOL    HW213693  13.148   5.089  10.823 -0.0416  0.4464 -0.1606
33990SOL     OW13694   2.066  10.314  10.806  0.2993  0.1006 -0.3577
33990SOL    HW113695   2.023  10.396  10.830 -0.6212  0.0985 -1.8665
33990SOL    HW213696   1.994  10.253  10.790  0.9714 -0.9597  0.5273
33991SOL     OW13697   5.296   0.800  10.620 -0.7882 -0.4385 -0.0983
33991SOL    HW113698   5.291   0.771  10.711  0.3310 -0.1079  0.0870
33991SOL    HW213699   5.374   0.855  10.617 -2.4286  2.0162 -0.5856
33992SOL     OW13700   6.246   0.098   4.680 -0.3497 -0.1547 -0.0270
33992SOL    HW113701   6.340   0.090   4.699 -0.1182 -0.1156 -1.0794
33992SOL    HW213702   6.222   0.183   4.717 -0.2512 -0.6822  1.2886
33993SOL     OW13703  10.433  13.281   0.322 -0.5693 -0.0039  0.4442
33993SOL    HW113704  10.468  13.224   0.253  0.2075 -0.5937  1.2976
33993SOL    HW213705  10.388  13.221   0.381  0.3859  0.2274  1.4394
33994SOL     OW13706  11.396   3.901   2.813 -0.1517 -0.0037  0.1005
33994SOL    HW113707  11.359   3.873   2.897 -1.1059 -1.5698 -0.7823
33994SOL    HW213708  11.323   3.942   2.767 -0.1422 -0.8108 -0.6610
33995SOL     OW13709   0.370   0.387   3.865 -0.3760  0.0038 -0.3781
33995SOL    HW113710   0.275   0.392   3.882 -0.0237  2.4931  1.4238
33995SOL    HW213711   0.410   0.399   3.951  1.6001  1.2090 -1.4016
33996SOL     OW13712   9.243  10.072   4.686  0.1481 -0.2353 -0.3217
33996SOL    HW113713   9.247  10.056   4.592 -1.7713 -0.5827 -0.3727
33996SOL    HW213714   9.176  10.011   4.719 -0.3020  0.9245  1.0217
33997SOL     OW13715  10.816  11.448   3.791 -0.1375  0.1574  0.6191
33997SOL    HW113716  10.902  11.421   3.823  0.3799  1.1792  0.1256
33997SOL    HW213717  10.766  11.468   3.871  0.2278  0.0108  0.8892
33998SOL     OW13718   0.578   2.569   8.043  0.0214 -0.2401  0.2281
33998SOL    HW113719   0.510   2.515   8.083 -0.3397  0.8629  1.1735
33998SOL    HW213720   0.532   2.645   8.007  0.6957  0.4057  0.6674
33999SOL     OW13721   3.432   2.457   4.736 -0.1015 -0.0676 -0.3024
33999SOL    HW113722   3.448   2.535   4.683 -0.6216  0.9152  0.9281
33999SOL    HW213723   3.384   2.397   4.678 -1.0237  1.1374 -0.8308
34000SOL     OW13724   9.675   1.712   3.254  0.2422  0.2224 -0.3174
34000SOL    HW113725   9.602   1.650   3.259  1.4625 -1.3343 -0.8437
34000SOL    HW213726   9.660   1.772   3.326 -0.4751 -1.2954  0.8576
34001SOL     OW13727   2.520   8.352   2.481 -0.4399 -0.3784  0.2251
34001SOL    HW113728   2.474   8.326   2.560 -0.2707 -1.1487  0.0773
34001SOL    HW213729   2.608   8.316   2.491  0.2772  1.4066  0.6775
34002SOL     OW13730  10.436  11.455   9.114  0.2499 -0.5723  0.5208
34002SOL    HW113731  10.472  11.386   9.059 -0.8579 -0.9458  0.2448
34002SOL    HW213732  10.465  11.433   9.203  0.1819 -1.2024  0.3863
34003SOL     OW13733  12.852   1.581   1.860  0.0171 -0.0293 -0.5459
34003SOL    HW113734  12.937   1.560   1.900  1.0475 -1.1635 -3.1295
34003SOL    HW213735  12.846   1.524   1.783 -2.6888  0.6999 -0.9997
34004SOL     OW13736   3.245   5.412  13.108 -0.6186 -0.0579  0.0474
34004SOL    HW113737   3.288   5.359  13.175 -0.4855  0.4668  0.3740
34004SOL    HW213738   3.288   5.387  13.026  2.1149  2.2953  0.6499
34005SOL     OW13739   2.074   4.772  10.229  0.0483 -0.6318 -0.4479
34005SOL    HW113740   1.980   4.756  10.223 -0.0388 -0.2174 -0.2159
34005SOL    HW213741   2.085   4.822  10.310  0.4374 -0.4545 -0.6052
34006SOL     OW13742   3.342   5.311   3.782  0.3016 -0.2577  0.4057
34006SOL    HW113743   3.373   5.382   3.725  1.8447 -0.3330  1.0982
34006SOL    HW213744   3.294   5.355   3.852  0.8505  0.0758  0.5774
34007SOL     OW13745   5.332  10.524  12.230 -0.3345 -0.1778 -0.2769
34007SOL    HW113746   5.350  10.433  12.208 -0.0976  0.2005 -1.7440
34007SOL    HW213747   5.383  10.575  12.167 -4.3001  0.9769 -2.9791
34008SOL     OW13748   2.921   8.324   1.761  0.7501  0.3243 -0.3430
34008SOL    HW113749   3.005   8.296   1.797  0.0299  0.4373  1.5742
34008SOL    HW213750   2.935   8.415   1.735  1.2804  0.2856 -0.1959
34009SOL     OW13751  12.388   2.192  10.379  0.2114  0.0666 -0.3312
34009SOL    HW113752  12.336   2.113  10.396  0.4505  0.2033  1.1784
34009SOL    HW213753  12.450   2.166  10.311  2.4608 -2.1135  2.3328
34010SOL     OW13754   3.667  11.701   1.502  0.3867  0.3224  0.1979
34010SOL    HW113755   3.678  11.788   1.540 -0.4448  0.2766  0.5583
34010SOL    HW213756   3.593  11.709   1.443  0.0287 -0.2367  0.5553
34011SOL     OW13757  11.053   4.195   3.642 -0.3976 -0.7323  1.0251
34011SOL    HW113758  11.065   4.276   3.592 -0.5187 -0.9379  0.6604
34011SOL    HW213759  11.040   4.127   3.576 -1.1741 -0.9106  1.3554
34012SOL     OW13760   3.514   2.078  13.563 -0.5565  0.0893 -0.3514
34012SOL    HW113761   3.496   2.088  13.657 -0.3645 -1.4218 -0.1256
34012SOL    HW213762   3.443   2.023  13.531  0.0748 -0.4639 -0.8223
34013SOL     OW13763   5.076  12.055  12.749 -0.2902 -0.3053  0.2867
34013SOL    HW113764   5.087  11.991  12.679  1.0450  1.4461 -1.2023
34013SOL    HW213765   5.150  12.039  12.808 -0.3095 -0.5356  0.2484
34014SOL     OW13766   3.799   2.596  11.068  0.1806  0.4396 -0.1686
34014SOL    HW113767   3.873   2.578  11.126  1.5045  0.5238 -1.7521
34014SOL    HW213768   3.740   2.522  11.080  0.8879 -0.0170  0.5737
34015SOL     OW13769   7.912   3.102   8.765 -0.0680 -0.0095 -0.5915
34015SOL    HW113770   7.993   3.154   8.763 -0.4138  0.5274 -1.3638
34015SOL    HW213771   7.939   3.014   8.741  0.6099 -0.3360  1.2242
34016SOL     OW13772   9.694   9.211   6.945 -0.4135  0.0476  0.3617
34016SOL    HW113773   9.744   9.130   6.945 -1.2980 -0.5276 -0.7666
34016SOL    HW213774   9.750   9.274   6.992  0.3997 -1.1216  1.0075
34017SOL     OW13775   1.169   1.160   9.010 -0.2380 -0.3695 -0.6047
34017SOL    HW113776   1.124   1.213   9.075 -1.7012  0.5153 -2.2546
34017SOL    HW213777   1.184   1.219   8.936  2.1870 -1.0862 -0.7886
34018SOL     OW13778   0.919   5.240   9.566  0.5062 -0.0837 -0.2757
34018SOL    HW113779   0.901   5.175   9.633  1.8801  0.7630  0.9992
34018SOL    HW213780   0.904   5.324   9.609 -0.7732  0.4934 -1.7314
34019SOL     OW13781   1.185   3.210  10.842  0.4055  0.3474  0.5690
34019SOL    HW113782   1.095   3.234  10.865 -0.4139 -0.6367 -1.3707
34019SOL    HW213783   1.177   3.129  10.792  2.2356  0.9288 -0.8012
34020SOL     OW13784   4.494  12.751   7.114  0.5444  0.3440 -0.1767
34020SOL    HW113785   4.436  12.791   7.050  2.2196 -0.1751 -2.1102
34020SOL    HW213786   4.497  12.814   7.186 -3.0321  0.0017  0.4580
34021SOL     OW13787   1.046  12.702   7.089 -0.0735  0.6311  0.4421
34021SOL    HW113788   1.020  12.760   7.019 -0.8952 -0.3382 -0.0748
34021SOL    HW213789   1.132  12.669   7.062 -0.4118  0.2159 -0.1547
34022SOL     OW13790   5.420  12.645   9.970  0.1033  0.0515  0.3688
34022SOL    HW113791   5.379  12.591   9.903 -3.6021  1.4630  1.2282
34022SOL    HW213792   5.426  12.732   9.931  2.0332 -0.0149  0.4383
34023SOL     OW13793   0.952   3.096   2.546  0.1232  0.0846 -0.2208
34023SOL    HW113794   0.888   3.081   2.617 -1.9311 -0.4973 -2.0849
34023SOL    HW213795   1.017   3.154   2.585 -1.3866  0.5102  1.8829
34024SOL     OW13796   8.418  12.716   2.523  0.2226 -0.3980  0.6229
34024SOL    HW113797   8.457  12.715   2.611 -1.4675 -1.5912  1.4230
34024SOL    HW213798   8.490  12.693   2.464  1.0800 -0.9903  1.8611
34025SOL     OW13799   8.680   3.337   9.901 -0.3124 -0.3694  0.2838
34025SOL    HW113800   8.674   3.307   9.810 -1.3559 -0.1625  0.2773
34025SOL    HW213801   8.693   3.432   9.894  1.3353 -0.5459  0.3414
34026SOL     OW13802  10.995   8.410  12.776 -0.3828 -0.1090 -0.3090
34026SOL    HW113803  11.034   8.361  12.703 -0.7231 -0.5298 -0.2138
34026SOL    HW213804  10.985   8.345  12.845  0.1089  0.3290  0.1786
34027SOL     OW13805   9.037   7.922   6.791  0.0417  0.0099  0.7565
34027SOL    HW113806   8.965   7.883   6.841  0.6962 -2.3478 -0.0083
34027SOL    HW213807   9.016   7.902   6.700  0.1643  1.9844  0.2668
34028SOL     OW13808  13.157  13.405   3.850 -0.0452 -0.0495 -0.3217
34028SOL    HW113809  13.116  13.432   3.932  1.0097  0.7034 -0.0055
34028SOL    HW213810  13.223  13.473   3.833  1.2248 -1.3098 -0.6655
34029SOL     OW13811  12.750  11.534  13.171  0.8916 -0.5636 -0.3888
34029SOL    HW113812  12.838  11.523  13.208  0.9060  3.0460  1.1022
34029SOL    HW213813  12.754  11.618  13.125 -2.0865  0.4713  1.0005
34030SOL     OW13814  12.959   2.536   9.427 -0.0076  0.1188 -0.1487
34030SOL    HW113815  12.907   2.540   9.507  0.7445 -1.5103  0.4615
34030SOL    HW213816  12.895   2.542   9.356 -0.8788 -0.4011  0.5766
34031SOL     OW13817  13.279   5.711   6.049 -0.1320 -0.2986 -0.4233
34031SOL    HW113818  13.309   5.628   6.086 -1.4533 -1.0111 -0.9012
34031SOL    HW213819  13.318   5.713   5.961 -0.4956 -0.6508 -0.5944
34032SOL     OW13820   9.044   6.413  13.605  0.2916 -0.7317 -0.3122
34032SOL    HW113821   9.115   6.475  13.618  1.3365 -1.4746 -2.1203
34032SOL    HW213822   9.004   6.438  13.522  1.1816 -2.8086 -1.4459
34033SOL     OW13823   8.202   9.904  11.453  0.5307 -1.0497 -0.0501
34033SOL    HW113824   8.203   9.824  11.506 -0.0556 -0.0253  1.5740
34033SOL    HW213825   8.117   9.903  11.410  0.0937 -0.7821  0.8001
34034SOL     OW13826   3.521  10.545   8.784  0.4798 -0.5306 -0.1724
34034SOL    HW113827   3.459  10.566   8.714 -0.7728 -2.6975  0.1904
34034SOL    HW213828   3.598  10.512   8.738  0.6958  0.5405 -0.5921
34035SOL     OW13829   4.120  11.096  11.395  0.1601  0.0701  0.2242
34035SOL    HW113830   4.114  11.014  11.445  1.8694 -1.6729 -2.1928
34035SOL    HW213831   4.061  11.083  11.321  1.1374  0.6008 -0.6768
34036SOL     OW13832  10.702  10.580   4.909  0.3115  0.2851  0.0872
34036SOL    HW113833  10.684  10.655   4.852 -0.1579  0.9452  1.0773
34036SOL    HW213834  10.657  10.507   4.866 -1.2510  1.0587  0.3201
34037SOL     OW13835   9.038   6.198   0.801  0.3335 -0.5657  0.3149
34037SOL    HW113836   9.062   6.288   0.821  3.8250 -1.3409  0.2930
34037SOL    HW213837   9.098   6.145   0.852 -0.8991 -2.8947 -0.4912
34038SOL     OW13838   0.822   0.963   3.284  0.3415  0.1622  0.0936
34038SOL    HW113839   0.865   0.889   3.241  1.0920 -0.4081  1.7439
34038SOL    HW213840   0.892   1.009   3.329 -0.2938  1.2257  0.0304
34039SOL     OW13841   2.250   1.093   9.746 -0.7001  0.3294  0.3117
34039SOL    HW113842   2.203   1.013   9.771  0.6852 -0.1293  1.5913
34039SOL    HW213843   2.296   1.068   9.665 -0.9980  0.1258  0.2023
34040SOL     OW13844   2.406   9.653  10.390 -0.1937  0.4148 -0.3043
34040SOL    HW113845   2.406   9.742  10.355  0.3676  0.0602 -1.2626
34040SOL    HW213846   2.469   9.606  10.334  0.2550 -0.3394  0.7987
34041SOL     OW13847   7.614   7.699   9.703  0.2043 -0.4338 -0.0922
34041SOL    HW113848   7.698   7.707   9.658  0.3663  1.4125  0.4674
34041SOL    HW213849   7.550   7.732   9.640  0.2023  0.3907  0.3340
34042SOL     OW13850   6.233  10.330   6.023  0.5901 -0.1409  0.2134
34042SOL    HW113851   6.308  10.294   6.070  0.1750 -0.3683  0.7219
34042SOL    HW213852   6.172  10.355   6.092 -1.2733 -3.0876 -0.1693
34043SOL     OW13853  11.403  11.734   5.935 -0.0183 -0.5809  0.2854
34043SOL    HW113854  11.445  11.811   5.897 -1.5553  2.0510  3.4203
34043SOL    HW213855  11.309  11.748   5.920 -0.3905 -1.3964  1.6369
34044SOL     OW13856  12.099   9.013  10.976  0.0397 -0.5974  0.6836
34044SOL    HW113857  12.127   8.923  10.959 -0.9071 -0.8378  0.3245
34044SOL    HW213858  12.055   9.040  10.895  1.5367  0.6985  0.2391
34045SOL     OW13859   7.572   4.623   3.556  0.2645  0.1521  0.1410
34045SOL    HW113860   7.608   4.641   3.470 -0.1167 -0.3326 -0.1283
34045SOL    HW213861   7.640   4.652   3.617  0.8734 -0.2132 -0.3396
34046SOL     OW13862   4.545   0.285   0.457 -0.2567  0.4979 -0.1898
34046SOL    HW113863   4.630   0.262   0.419 -0.3153 -0.3284  0.1674
34046SOL    HW213864   4.567   0.326   0.540 -0.2272 -0.5626  0.3370
34047SOL     OW13865  13.613   4.356   9.196  0.7735 -0.0247  0.2803
34047SOL    HW113866  13.561   4.289   9.153  3.0194 -0.3403 -2.2127
34047SOL    HW213867  13.643   4.316   9.277  0.3532 -1.2576 -0.1596
34048SOL     OW13868   5.293  13.566   5.556 -1.0714  0.5295 -0.4243
34048SOL    HW113869   5.213  13.609   5.526 -1.4198 -0.4197 -0.9143
34048SOL    HW213870   5.361  13.595   5.495 -1.5462 -0.5010 -1.5061
34049SOL     OW13871   2.276   8.904   4.935 -0.2914 -0.7729 -0.4835
34049SOL    HW113872   2.233   8.988   4.918 -0.4418 -0.3559  1.5883
34049SOL    HW213873   2.205   8.846   4.963 -0.1037 -1.4158 -1.3136
34050SOL     OW13874   6.635  12.041   0.269  0.5301  0.1698 -0.2182
34050SOL    HW113875   6.649  11.953   0.233  1.7693 -0.8469  2.4720
34050SOL    HW213876   6.720  12.065   0.307 -0.4050  1.5257  1.1285
34051SOL     OW13877   6.066   6.828   0.580 -0.2867  0.8255 -0.0339
34051SOL    HW113878   6.060   6.859   0.490 -2.1124 -0.0837 -0.2763
34051SOL    HW213879   6.016   6.747   0.581  1.8679 -0.5924  1.2530
34052SOL     OW13880   8.593   4.246   7.122 -0.3494  0.2441 -0.3349
34052SOL    HW113881   8.623   4.198   7.045 -0.0640 -0.6284  0.3060
34052SOL    HW213882   8.667   4.302   7.146  0.1218 -0.5851  0.1809
34053SOL     OW13883   7.980  12.648   5.138  0.1401  0.3441 -0.8506
34053SOL    HW113884   7.888  12.671   5.129 -0.1975  0.2446  1.5277
34053SOL    HW213885   7.986  12.610   5.226  1.6624 -3.5406 -2.3717
34054SOL     OW13886  12.647   1.339   6.214 -0.6833 -0.1854 -0.1965
34054SOL    HW113887  12.679   1.314   6.127  0.5331 -1.0718  0.4780
34054SOL    HW213888  12.553   1.321   6.211 -0.8696  0.8675 -1.6742
34055SOL     OW13889   8.009  11.892   7.174  0.3518  0.1950 -0.0382
34055SOL    HW113890   7.988  11.812   7.125  2.2088 -1.2451  1.3849
34055SOL    HW213891   7.933  11.906   7.230 -0.0991 -0.4402 -0.4736
34056SOL     OW13892  13.700   0.030   2.072  0.1713  0.8825  0.1334
34056SOL    HW113893  13.752  -0.049   2.084 -0.2869  0.7171  1.1036
34056SOL    HW213894  13.749   0.082   2.008 -1.3331 -1.8038 -3.5727
34057SOL     OW13895   7.579   9.412   1.750 -0.0186  0.2355  0.3888
34057SOL    HW113896   7.516   9.455   1.808 -0.7906 -0.6485  0.2142
34057SOL    HW213897   7.633   9.484   1.718 -1.1054  1.0554  0.3223
34058SOL     OW13898   9.719  11.164   6.437 -0.2744  0.0249  0.3006
34058SOL    HW113899   9.755  11.138   6.352  0.7607  0.5744  0.5620
34058SOL    HW213900   9.795  11.190   6.489 -1.1502  3.1723  0.2210
34059SOL     OW13901   5.730   0.048   0.528 -0.3698 -0.2894 -0.2322
34059SOL    HW113902   5.672   0.120   0.504  1.5328  1.4654  0.1301
34059SOL    HW213903   5.690   0.009   0.606 -1.0326  0.9037  0.0454
34060SOL     OW13904   1.741   8.723   9.502 -1.4558  0.3634  0.2182
34060SOL    HW113905   1.712   8.715   9.593  0.9956  1.8283  1.2480
34060SOL    HW213906   1.831   8.754   9.509 -1.2657  0.7464 -2.7462
34061SOL     OW13907   7.765   5.141   0.922  0.8476  0.1382  0.5558
34061SOL    HW113908   7.758   5.046   0.932  1.4143  0.1262  0.8643
34061SOL    HW213909   7.717   5.176   0.997  2.9002  0.0625  1.9914
34062SOL     OW13910  13.464  10.101   3.384 -0.6385 -0.3113  0.0255
34062SOL    HW113911  13.449  10.086   3.477 -2.8407 -2.1103 -0.5250
34062SOL    HW213912  13.390  10.156   3.356  1.0609  1.9456 -0.3486
34063SOL     OW13913   2.104   9.673   4.547  0.3095 -0.0517 -0.2783
34063SOL    HW113914   2.157   9.625   4.611  2.9945  1.8860 -0.8543
34063SOL    HW213915   2.075   9.751   4.593  2.6935  1.6198 -1.3710
34064SOL     OW13916   6.613   6.454  12.161  0.5070 -0.5482  0.6680
34064SOL    HW113917   6.615   6.540  12.119 -0.4570 -1.0505 -0.4716
34064SOL    HW213918   6.704   6.425  12.162  0.6174 -0.2882 -0.6108
34065SOL     OW13919  10.694   8.332   7.233  0.1069 -0.0831  0.2536
34065SOL    HW113920  10.711   8.275   7.157  0.1840  0.1263  0.1129
34065SOL    HW213921  10.637   8.280   7.290 -1.2010  0.3074 -0.6443
34066SOL     OW13922   6.924   4.630   7.420  0.3315 -0.4278  0.5726
34066SOL    HW113923   6.861   4.585   7.477  1.0489 -1.2601  0.7275
34066SOL    HW213924   6.870   4.689   7.368 -0.3488  0.4097  2.1461
34067SOL     OW13925   3.921   5.812  10.066 -0.2153  0.1425  0.1805
34067SOL    HW113926   3.912   5.826  10.160 -0.2974 -0.1460  0.2168
34067SOL    HW213927   3.896   5.721  10.053 -2.2608  0.7262 -0.3922
34068SOL     OW13928   4.092  10.177   4.811  0.0396 -0.5811  0.0122
34068SOL    HW113929   4.104  10.175   4.906  1.0459 -1.4818 -0.1053
34068SOL    HW213930   4.065  10.088   4.789 -1.9773  0.0926 -0.3601
34069SOL     OW13931   5.865   5.917   8.102 -0.4228 -0.2911  0.1201
34069SOL    HW113932   5.871   5.921   8.007 -0.2711  1.4085  0.1622
34069SOL    HW213933   5.948   5.954   8.133 -0.0437 -1.7607  0.9328
34070SOL     OW13934   2.231   7.500  11.300 -0.1721  0.4161  0.0807
34070SOL    HW113935   2.301   7.562  11.283  1.0165 -0.2367  2.1908
34070SOL    HW213936   2.176   7.544  11.365  0.5328 -0.5467  1.3887
34071SOL     OW13937   3.659   9.052   1.702  0.0709 -0.0838  0.1797
34071SOL    HW113938   3.733   9.090   1.654 -1.2227 -0.9839 -2.7770
34071SOL    HW213939   3.582   9.094   1.663 -1.0981 -1.2536  1.1497
34072SOL     OW13940   2.520   8.781   5.592 -0.0135 -0.0319 -0.5102
34072SOL    HW113941   2.507   8.753   5.502  0.6592  0.1739 -0.6742
34072SOL    HW213942   2.536   8.700   5.641  1.0260 -0.0263 -0.8263
34073SOL     OW13943   8.062   1.447   1.898  0.2743  0.0504  0.2058
34073SOL    HW113944   8.066   1.470   1.805  0.8441  0.8605  0.4151
34073SOL    HW213945   7.969   1.438   1.916  0.1959 -0.9256 -0.6266
34074SOL     OW13946  12.040   1.852  10.737 -0.2410  0.0013 -0.1765
34074SOL    HW113947  12.007   1.888  10.654  1.2496 -1.0151 -1.2537
34074SOL    HW213948  11.973   1.789  10.764  0.2170 -1.2201 -1.7423
34075SOL     OW13949   3.448   9.868  10.271  1.1315 -0.4066 -0.2657
34075SOL    HW113950   3.500   9.789  10.280  0.3720 -0.8444  0.4011
34075SOL    HW213951   3.419   9.888  10.361  0.1941 -0.1528 -0.6100
34076SOL     OW13952   5.408   2.209   3.271  0.3835  0.2535  0.2097
34076SOL    HW113953   5.443   2.218   3.360  1.1344  1.0427 -0.1525
34076SOL    HW213954   5.485   2.199   3.215 -0.0878 -0.4305 -0.3476
34077SOL     OW13955   1.060   6.090   4.560 -0.1803 -0.0177 -0.1146
34077SOL    HW113956   1.076   6.026   4.629 -1.2392  0.3518  0.5066
34077SOL    HW213957   1.073   6.042   4.479  0.6435 -0.5762  0.3404
34078SOL     OW13958   4.761   2.174   4.173  0.3832  0.2843  0.0488
34078SOL    HW113959   4.731   2.088   4.204 -1.7871  0.5618 -1.0723
34078SOL    HW213960   4.856   2.168   4.175  0.2938 -1.8384  0.8612
34079SOL     OW13961   4.588   1.761   0.548 -0.3204  0.2821 -0.2002
34079SOL    HW113962   4.517   1.715   0.591 -1.3995  1.5775 -0.5330
34079SOL    HW213963   4.625   1.697   0.487 -1.3511 -0.3449 -0.1895
34080SOL     OW13964   2.237   7.371   9.184  0.2688 -0.0323 -0.0240
34080SOL    HW113965   2.164   7.334   9.233 -0.5018  0.6304 -0.6591
34080SOL    HW213966   2.312   7.317   9.209 -0.5146 -0.9875  0.3016
34081SOL     OW13967  10.463   5.203   7.924  0.6328 -0.3046 -0.2863
34081SOL    HW113968  10.382   5.230   7.967  0.6464  2.7880 -1.9781
34081SOL    HW213969  10.532   5.234   7.983  0.6100  0.0752 -0.4567
34082SOL     OW13970   8.089   9.384   0.784  0.5527  0.1455  0.6852
34082SOL    HW113971   8.137   9.382   0.867 -0.1125  0.3282  1.0804
34082SOL    HW213972   8.041   9.302   0.781  0.1554  0.3712  0.7409
34083SOL     OW13973   2.087   6.236   7.538  0.0490  0.2777  0.2857
34083SOL    HW113974   2.096   6.148   7.575  1.6712  0.3836  0.2123
34083SOL    HW213975   1.998   6.238   7.501 -0.1066 -1.2295  0.5257
34084SOL     OW13976   3.656   6.438   7.165  0.4389 -0.2801 -0.4138
34084SOL    HW113977   3.611   6.356   7.147 -0.6730  0.1121  0.4391
34084SOL    HW213978   3.587   6.497   7.196  1.1105  1.1532 -1.5043
34085SOL     OW13979   0.119  10.859   2.210 -0.5664  0.0420 -0.0635
34085SOL    HW113980   0.053  10.887   2.147 -1.2780 -1.0976  0.1595
34085SOL    HW213981   0.130  10.935   2.268 -0.1986  0.9552 -1.2795
34086SOL     OW13982   6.507  10.805   5.965  0.2438  0.1510  0.0067
34086SOL    HW113983   6.591  10.764   5.946 -0.3430 -1.3083  0.4416
34086SOL    HW213984   6.466  10.817   5.879 -0.1393 -1.4539 -0.0615
34087SOL     OW13985   6.439   3.671  13.110  0.4832 -0.6659 -0.0653
34087SOL    HW113986   6.437   3.621  13.029 -0.4907  0.5622 -0.8284
34087SOL    HW213987   6.351   3.661  13.147 -0.3619  1.8871 -1.1667
34088SOL     OW13988   0.531   4.042  12.298  0.3362  0.3410 -0.3629
34088SOL    HW113989   0.583   3.982  12.352 -1.9780  0.7946  2.6116
34088SOL    HW213990   0.588   4.118  12.286  2.1687 -1.1047 -1.6357
34089SOL     OW13991  12.543   6.480  11.571 -0.5399  0.2643  0.7461
34089SOL    HW113992  12.563   6.516  11.485 -0.2816  1.2752  1.2090
34089SOL    HW213993  12.469   6.421  11.556  1.1211 -1.6293 -0.5971
34090SOL     OW13994   0.884   7.924   5.572  0.3230  0.5291  0.8316
34090SOL    HW113995   0.881   7.847   5.514  1.3559  1.2852 -0.2599
34090SOL    HW213996   0.973   7.957   5.563 -0.3854  2.4343  0.5221
34091SOL     OW13997  11.155  11.872   1.593  0.2660  0.3104 -0.6421
34091SOL    HW113998  11.094  11.945   1.578  0.0047  0.0217 -0.9743
34091SOL    HW213999  11.224  11.885   1.528 -0.1029 -0.0977 -1.1104
34092SOL     OW14000   3.912  10.811   3.134 -0.9986  0.3399 -0.0947
34092SOL    HW114001   3.841  10.760   3.095  0.1278 -0.5029 -1.0857
34092SOL    HW214002   3.964  10.746   3.182 -1.2967  1.0721  1.2896
34093SOL     OW14003   5.497   1.376   3.124 -0.5293 -0.4251 -0.4556
34093SOL    HW114004   5.451   1.305   3.170 -0.7611  0.2647  0.3980
34093SOL    HW214005   5.590   1.359   3.142 -0.6523  0.2706  0.9491
34094SOL     OW14006  11.684  10.228   9.116  0.5441  0.0698  0.5439
34094SOL    HW114007  11.775  10.205   9.097  0.5333 -1.3027  1.8559
34094SOL    HW214008  11.654  10.275   9.039  2.1490 -0.0883 -0.2240
34095SOL     OW14009   2.469  12.014  10.989  0.2988 -0.2299  0.0224
34095SOL    HW114010   2.532  12.085  10.978  0.7998 -0.5638  0.6670
34095SOL    HW214011   2.522  11.939  11.015 -0.3923 -0.4514  0.8315
34096SOL     OW14012  10.135   7.481  13.170 -0.0124  0.2557 -0.6627
34096SOL    HW114013  10.117   7.479  13.076  1.0511 -1.3628 -0.8747
34096SOL    HW214014  10.213   7.427  13.180 -1.0647 -0.9858  1.3375
34097SOL     OW14015  10.798   7.962   3.839  0.6202 -0.3464  0.1561
34097SOL    HW114016  10.747   8.043   3.845 -0.6211 -0.9857 -1.2158
34097SOL    HW214017  10.884   7.985   3.875 -0.2221  1.1086  1.3686
34098SOL     OW14018   9.440   2.542   5.834  0.4634 -0.0536  0.2073
34098SOL    HW114019   9.369   2.493   5.793  0.6749 -1.7050  1.6477
34098SOL    HW214020   9.403   2.628   5.854 -0.5860 -0.3124 -0.5860
34099SOL     OW14021   4.844   3.830  13.564 -0.5290 -0.1875  0.0089
34099SOL    HW114022   4.832   3.737  13.583  0.8118  0.2017  3.4826
34099SOL    HW214023   4.929   3.835  13.521 -0.0201 -0.4796  0.9665
34100SOL     OW14024   4.230  10.378  12.465  0.5248  0.0935  0.0296
34100SOL    HW114025   4.279  10.342  12.540  1.7056 -1.1354 -1.2730
34100SOL    HW214026   4.293  10.376  12.393 -1.4187 -1.5758 -1.7435
34101SOL     OW14027   6.390   6.314   3.486  0.0477 -0.4936  0.7494
34101SOL    HW114028   6.337   6.234   3.486 -0.1283 -0.3869  0.1142
34101SOL    HW214029   6.464   6.294   3.543 -0.5693 -0.7185  1.4863
34102SOL     OW14030   7.135   0.626  11.060  0.8318 -0.4888  0.5382
34102SOL    HW114031   7.042   0.634  11.039  1.4607 -0.2194 -2.6731
34102SOL    HW214032   7.157   0.708  11.104  0.3450  1.4865 -2.5732
34103SOL     OW14033   6.680  12.289   9.831 -0.3045 -0.0741 -0.0751
34103SOL    HW114034   6.670  12.287   9.735  0.5234 -0.4345 -0.1557
34103SOL    HW214035   6.727  12.370   9.849 -2.1921  1.0303  0.2182
34104SOL     OW14036   8.293   4.962   7.049 -0.4128 -0.1826  0.2885
34104SOL    HW114037   8.233   5.032   7.072 -0.2487 -0.4084  1.4291
34104SOL    HW214038   8.306   4.972   6.954 -4.2063 -1.6480 -0.5903
34105SOL     OW14039   0.191  10.096   7.753  0.3470  0.0969 -0.1309
34105SOL    HW114040   0.147  10.039   7.817  0.5721  0.3671  0.2729
34105SOL    HW214041   0.282  10.068   7.755  1.0888  2.2487  2.1629
34106SOL     OW14042   2.755   3.007   4.118 -0.0129 -0.0881  0.7649
34106SOL    HW114043   2.826   3.060   4.084 -1.7953  1.8417 -0.1840
34106SOL    HW214044   2.773   2.999   4.212  1.4062  0.3424  0.5472
34107SOL     OW14045   9.631   0.695  13.554 -0.0808  0.2618  0.3199
34107SOL    HW114046   9.574   0.756  13.506  0.8433  0.2454 -0.8406
34107SOL    HW214047   9.582   0.674  13.633 -1.1387  1.2274 -0.0496
34108SOL     OW14048   8.107   8.312   3.095 -0.0927 -0.1304 -0.0303
34108SOL    HW114049   8.078   8.297   3.005  1.8269  0.6653 -0.8200
34108SOL    HW214050   8.077   8.401   3.115 -0.7669 -0.4107  0.2419
34109SOL     OW14051   0.126   7.834   5.637 -0.3637 -0.1851 -0.5331
34109SOL    HW114052   0.179   7.895   5.689 -0.3423  1.0559 -1.9516
34109SOL    HW214053   0.061   7.890   5.595 -0.7923 -1.2525 -1.3168
34110SOL     OW14054   3.344   8.055   8.470 -0.2967  1.0753  0.2523
34110SOL    HW114055   3.253   8.081   8.459 -0.2760  1.8710  1.8068
34110SOL    HW214056   3.341   7.985   8.535  0.0852  0.0920 -0.7507
34111SOL     OW14057  13.445   0.376   8.463  0.0856 -0.1647  0.4892
34111SOL    HW114058  13.395   0.348   8.386 -0.0272  0.8443  0.1932
34111SOL    HW214059  13.457   0.470   8.452  1.4648 -0.2670  0.8997
34112SOL     OW14060   2.656   2.911   3.156 -0.6355  0.9408  0.3216
34112SOL    HW114061   2.718   2.844   3.127  2.7471  3.1424  1.8947
34112SOL    HW214062   2.655   2.975   3.084  0.1520  1.6455  0.9224
34113SOL     OW14063  13.646   1.933  13.046 -0.0381 -0.3134  0.0565
34113SOL    HW114064  13.646   1.837  13.057 -0.4317 -0.3282 -0.0610
34113SOL    HW214065  13.608   1.966  13.127 -0.8782 -0.3107 -0.3349
34114SOL     OW14066  12.644   4.489   8.374 -0.3369 -0.0667  0.1747
34114SOL    HW114067  12.670   4.552   8.307  0.7084 -0.9914 -0.3175
34114SOL    HW214068  12.595   4.422   8.326 -0.1884 -0.3805  0.4562
34115SOL     OW14069   6.331  12.690   1.574 -0.1239  0.0204 -0.0860
34115SOL    HW114070   6.303  12.686   1.483 -3.3958  1.2936  0.7193
34115SOL    HW214071   6.300  12.608   1.613 -2.6201  1.2119  0.6888
34116SOL     OW14072   7.525   0.642   4.096 -0.1594  0.0767  0.5390
34116SOL    HW114073   7.494   0.562   4.054  1.5141 -0.0470 -0.5339
34116SOL    HW214074   7.566   0.692   4.026  0.9805  0.7643  1.6507
34117SOL     OW14075   5.239   3.770   7.390 -0.6126 -0.4857  0.0891
34117SOL    HW114076   5.276   3.764   7.302 -0.5057 -0.0181  0.0971
34117SOL    HW214077   5.144   3.770   7.376 -0.6028 -0.8010  0.0054
34118SOL     OW14078   8.550   0.634   9.814 -0.5023  0.5035  0.0861
34118SOL    HW114079   8.589   0.681   9.740 -1.7048  0.7314 -0.4311
34118SOL    HW214080   8.506   0.703   9.865  1.6844  0.6139  1.9794
34119SOL     OW14081   7.310  10.683   1.333  0.4965 -0.4732  0.4215
34119SOL    HW114082   7.222  10.700   1.299  0.4013  0.6139  1.1617
34119SOL    HW214083   7.318  10.587   1.332 -0.3519 -0.5562 -0.4723
34120SOL     OW14084  11.470   9.128  12.966  0.3511 -0.3360 -0.4241
34120SOL    HW114085  11.480   9.189  12.893  0.3902 -1.9762 -1.8484
34120SOL    HW214086  11.424   9.053  12.929  2.2605 -2.1600  0.6467
34121SOL     OW14087   3.106  12.401  11.788  0.0896  0.4122 -0.3062
34121SOL    HW114088   3.146  12.424  11.704  2.9991  0.5177  1.0179
34121SOL    HW214089   3.176  12.411  11.852 -0.8824 -3.3370  1.6573
34122SOL     OW14090   2.685   1.758   8.713  0.5402 -0.0305  0.0224
34122SOL    HW114091   2.765   1.710   8.732  1.4263  0.8793 -1.2692
34122SOL    HW214092   2.702   1.847   8.744 -0.0755  0.1071 -0.0076
34123SOL     OW14093  10.439   7.832  13.336 -0.5934  0.1265 -0.2946
34123SOL    HW114094  10.362   7.777  13.329 -0.4068 -0.4917  1.7836
34123SOL    HW214095  10.404   7.920  13.353 -0.8424  0.1201 -0.7533
34124SOL     OW14096   1.136   0.990   1.492  0.2627  0.0711 -0.4544
34124SOL    HW114097   1.092   0.916   1.534  1.6892  0.2776  1.4854
34124SOL    HW214098   1.150   1.053   1.562  1.3141  1.1208 -1.5690
34125SOL     OW14099   2.132   4.257   3.075  0.1168  0.0738  0.6424
34125SOL    HW114100   2.199   4.288   3.014 -1.1873  2.7342  0.4296
34125SOL    HW214101   2.066   4.217   3.019  0.1400  0.1233  0.5796
34126SOL     OW14102  12.855  12.474   0.956  0.6555  0.0732  0.7635
34126SOL    HW114103  12.858  12.425   1.038  1.4927  1.2631  1.4812
34126SOL    HW214104  12.941  12.461   0.917  0.8776  0.9206  0.9494
34127SOL     OW14105   4.065   0.630  11.238 -0.5280 -0.2803  0.2775
34127SOL    HW114106   4.017   0.593  11.312 -1.5538 -0.5195 -0.4815
34127SOL    HW214107   4.030   0.718  11.228  0.7411  0.3433  1.0456
34128SOL     OW14108  11.964   9.624   6.804  0.7858 -0.3806 -0.6575
34128SOL    HW114109  11.921   9.707   6.822 -0.3012 -1.0760  0.1023
34128SOL    HW214110  11.971   9.581   6.889  2.5506 -0.5294 -0.8321
34129SOL     OW14111   2.191   3.856  10.483 -0.3651 -0.3124 -0.5227
34129SOL    HW114112   2.270   3.864  10.430 -1.0049 -1.1618 -1.6434
34129SOL    HW214113   2.138   3.932  10.461  0.0756  0.2128  0.1665
34130SOL     OW14114   9.392   6.374   1.251 -0.1928 -0.1125 -0.0078
34130SOL    HW114115   9.471   6.328   1.281 -0.0082 -0.1607 -0.5659
34130SOL    HW214116   9.322   6.340   1.308  0.7038  2.3916  2.8325
34131SOL     OW14117   2.013   2.614   8.821  0.1289  0.6261  0.6105
34131SOL    HW114118   1.929   2.618   8.775  0.1217  2.2421  0.7012
34131SOL    HW214119   1.990   2.597   8.912 -0.1815  1.7463  0.7600
34132SOL     OW14120  11.957   4.416   6.982 -0.2849  0.2745 -0.3881
34132SOL    HW114121  11.928   4.443   6.895 -1.1326 -0.6392 -0.4039
34132SOL    HW214122  11.985   4.325   6.971  2.3717  1.0019 -0.3051
34133SOL     OW14123  13.639   4.499   7.899  0.0063  0.0566 -0.0925
34133SOL    HW114124  13.688   4.515   7.819  0.3181 -1.0412 -0.1483
34133SOL    HW214125  13.684   4.424   7.940 -2.2427 -1.7708 -0.7303
34134SOL     OW14126   8.708   8.566   9.636 -1.0465 -0.0303  0.3376
34134SOL    HW114127   8.795   8.535   9.611 -1.3130 -0.4629 -0.0746
34134SOL    HW214128   8.659   8.569   9.554 -1.1811  1.0142  0.4448
34135SOL     OW14129   4.145   3.127  11.949 -0.6021 -0.2975  0.4095
34135SOL    HW114130   4.056   3.094  11.945 -0.6519 -0.1079 -0.2518
34135SOL    HW214131   4.136   3.222  11.951 -0.4567 -0.2844  2.2855
34136SOL     OW14132   2.473  10.127   0.743  0.1198 -0.0306 -0.1003
34136SOL    HW114133   2.494  10.035   0.755  1.7696  0.2494 -0.6570
34136SOL    HW214134   2.401  10.127   0.679  0.3221 -0.9121 -0.3426
34137SOL     OW14135   8.157   2.299  11.364  0.2694 -0.4639 -0.1045
34137SOL    HW114136   8.179   2.314  11.456 -0.3487  1.8622 -0.2791
34137SOL    HW214137   8.113   2.379  11.336 -0.1564 -1.3736 -2.2647
34138SOL     OW14138   8.887   9.917   2.427 -0.2221  0.0839  0.1739
34138SOL    HW114139   8.830   9.873   2.490  0.0619 -0.7416 -0.1385
34138SOL    HW214140   8.828   9.978   2.380 -0.3504  1.0168  1.5009
34139SOL     OW14141   0.882   2.115   9.157  0.0886  1.1515 -0.2542
34139SOL    HW114142   0.932   2.040   9.125 -1.9505 -1.2773  1.7590
34139SOL    HW214143   0.948   2.178   9.186  1.8902  0.9711 -3.5227
34140SOL     OW14144   4.178   1.163   6.207  0.4371  0.1372  0.3789
34140SOL    HW114145   4.206   1.072   6.208  2.0315  0.5994  0.3084
34140SOL    HW214146   4.218   1.200   6.128  0.0819  0.9734  0.5778
34141SOL     OW14147   0.387   7.151   0.662  0.4610  0.3375 -0.1391
34141SOL    HW114148   0.467   7.188   0.699  0.6700 -1.3147  1.1864
34141SOL    HW214149   0.317   7.209   0.693  0.7968 -0.1620  1.6903
34142SOL     OW14150   7.674   9.685  10.193 -0.0729  0.1821 -0.2560
34142SOL    HW114151   7.665   9.765  10.245  0.6777  0.9120 -1.2139
34142SOL    HW214152   7.661   9.614  10.256 -1.1471  1.0407  0.5411
34143SOL     OW14153   3.202   0.631   2.188 -0.1123 -0.3429  0.3922
34143SOL    HW114154   3.256   0.587   2.253  0.5218  0.4738  0.4288
34143SOL    HW214155   3.219   0.724   2.201  0.0902 -0.1702 -1.0007
34144SOL     OW14156   3.807   1.642   0.489  0.0979 -0.3083 -0.0358
34144SOL    HW114157   3.779   1.620   0.400 -0.5402 -3.1314  0.7618
34144SOL    HW214158   3.739   1.605   0.546 -0.6874  3.2886  1.6729
34145SOL     OW14159   5.505   4.956   9.597 -0.2521 -0.1618 -0.6283
34145SOL    HW114160   5.432   5.014   9.578 -1.7403 -1.5228  0.6224
34145SOL    HW214161   5.494   4.883   9.536  1.3448  0.5932 -1.8876
34146SOL     OW14162   0.216  12.816  12.307 -0.0524  0.0670 -0.0820
34146SOL    HW114163   0.251  12.848  12.390 -1.0640  1.3161 -0.1110
34146SOL    HW214164   0.144  12.876  12.286  0.2116 -0.1733 -1.8832
34147SOL     OW14165   6.244  11.904   6.829  0.3418 -0.8699 -0.1477
34147SOL    HW114166   6.303  11.967   6.871  0.4516 -2.0581  1.6000
34147SOL    HW214167   6.302  11.838   6.792  0.1746 -1.7111  1.0286
34148SOL     OW14168  10.393   3.668   9.875 -0.3894  0.6731  0.0034
34148SOL    HW114169  10.303   3.640   9.862 -0.4472  1.2333 -0.8612
34148SOL    HW214170  10.434   3.597   9.925 -1.0691  0.0193 -0.3681
34149SOL     OW14171   1.429   9.760   1.185 -0.3053  0.2056 -0.1077
34149SOL    HW114172   1.357   9.697   1.184 -0.7329  0.5469  2.4294
34149SOL    HW214173   1.385   9.846   1.187  0.2483  0.5505 -1.7562
34150SOL     OW14174   6.648   1.008   3.178 -0.2126  0.1703 -0.4675
34150SOL    HW114175   6.556   1.029   3.193 -0.0525  0.2126  0.5052
34150SOL    HW214176   6.659   1.014   3.083 -0.7921  1.8852 -0.4507
34151SOL     OW14177   3.128   3.691   7.036 -0.8026  0.2471  0.1934
34151SOL    HW114178   3.082   3.617   6.997 -0.6200  0.1889  0.0890
34151SOL    HW214179   3.111   3.764   6.977 -2.7071  0.8140  1.3397
34152SOL     OW14180   1.906  11.731   1.336  0.0993  0.8945  0.3908
34152SOL    HW114181   1.858  11.760   1.414  0.6444  1.4338  0.5289
34152SOL    HW214182   1.990  11.700   1.370  0.3236  1.0989  0.0215
34153SOL     OW14183   9.982  12.986   5.593  0.1095  0.5019 -0.5352
34153SOL    HW114184  10.006  12.902   5.553  1.0544  0.6416 -0.3022
34153SOL    HW214185   9.936  13.034   5.523  0.0441 -0.0023 -0.8406
34154SOL     OW14186  13.041  13.210  10.283  0.2838  0.1338  0.2267
34154SOL    HW114187  13.135  13.203  10.300  0.1712  1.6088  1.6891
34154SOL    HW214188  13.003  13.132  10.324  0.6096  0.9880  2.2801
34155SOL     OW14189   7.923   5.748   1.131  0.1867 -0.0030  0.1722
34155SOL    HW114190   7.934   5.747   1.036 -1.3756 -2.3799 -0.0937
34155SOL    HW214191   7.991   5.687   1.163  0.9756  1.1033  0.6546
34156SOL     OW14192  12.066  12.188  11.685 -0.3452  0.2769 -0.1355
34156SOL    HW114193  12.082  12.162  11.595  0.2082 -0.1275  0.0718
34156SOL    HW214194  11.994  12.252  11.680 -0.3347  0.2361 -0.8498
34157SOL     OW14195  13.181  12.864   5.702 -0.0574 -0.4172 -0.1354
34157SOL    HW114196  13.276  12.865   5.714  0.1080 -0.6449 -1.2940
34157SOL    HW214197  13.155  12.774   5.725 -0.1487 -0.0737  1.1695
34158SOL     OW14198   9.115   1.057   4.889  0.1955  0.4551 -0.0983
34158SOL    HW114199   9.076   0.978   4.926  0.5616  0.1582 -0.3516
34158SOL    HW214200   9.076   1.128   4.940 -0.1507  0.1154  0.1141
34159SOL     OW14201  12.725   0.631   2.339  0.3137 -0.2177 -0.4963
34159SOL    HW114202  12.649   0.579   2.315  0.8727 -1.1357 -0.3633
34159SOL    HW214203  12.743   0.606   2.429  0.3714  0.5001 -0.3056
34160SOL     OW14204   5.979   3.903   9.751  0.3976 -0.8442  0.2985
34160SOL    HW114205   6.068   3.869   9.762  0.1087 -1.8920 -0.4631
34160SOL    HW214206   5.924   3.847   9.806 -0.0868 -1.6544 -0.9795
34161SOL     OW14207   7.732   7.845   6.276  0.0378  0.1151  0.0660
34161SOL    HW114208   7.652   7.896   6.271 -0.8913 -1.1411  1.2033
34161SOL    HW214209   7.793   7.889   6.218 -1.9846  0.1494 -2.1655
34162SOL     OW14210  12.721  10.465   2.685 -0.0705 -0.0776  0.0906
34162SOL    HW114211  12.763  10.379   2.690 -1.4404 -0.8413 -0.6636
34162SOL    HW214212  12.671  10.471   2.767 -1.3967 -0.8368 -0.6160
34163SOL     OW14213   6.645   6.053  10.411 -0.0991 -0.5009 -0.2940
34163SOL    HW114214   6.730   6.039  10.370 -0.6891 -0.7041 -1.4881
34163SOL    HW214215   6.656   6.134  10.462  0.3210  0.4877 -1.8819
34164SOL     OW14216   0.990   6.285   3.641  0.0088  0.5292  0.2653
34164SOL    HW114217   1.067   6.241   3.604 -1.0360 -0.3146 -0.9603
34164SOL    HW214218   0.956   6.339   3.570 -1.9255 -0.9734 -0.0314
34165SOL     OW14219   5.764   5.624   8.176 -0.6193 -0.2589  0.5535
34165SOL    HW114220   5.703   5.680   8.129 -0.0954  0.0588  0.2443
34165SOL    HW214221   5.802   5.680   8.244 -0.5678 -0.4140  0.6562
34166SOL     OW14222   4.426  11.074   8.126  0.0244 -0.1904  0.8171
34166SOL    HW114223   4.432  11.078   8.222  0.0999 -2.5518  0.9560
34166SOL    HW214224   4.407  11.164   8.100 -1.5574  0.2483  3.1754
34167SOL     OW14225   1.400   6.018  11.204  0.3061  0.3188 -0.5019
34167SOL    HW114226   1.433   6.107  11.210  1.2490 -0.0765  0.3151
34167SOL    HW214227   1.471   5.963  11.236  0.5687 -0.9154 -2.9285
34168SOL     OW14228   2.038  10.243   0.674  0.0294 -0.0343 -0.1278
34168SOL    HW114229   1.974  10.223   0.606 -1.4089 -0.3768  1.2549
34168SOL    HW214230   2.025  10.175   0.740 -0.2043  1.5507  1.5424
34169SOL     OW14231   6.727  10.492  11.844  0.7048 -0.3668 -0.1372
34169SOL    HW114232   6.778  10.435  11.786  1.1108 -0.2419  0.0957
34169SOL    HW214233   6.701  10.565  11.788  0.3930 -0.6514 -0.3728
34170SOL     OW14234   0.523   7.816   4.726  0.4591 -0.2806 -0.0815
34170SOL    HW114235   0.506   7.806   4.632 -2.0984 -1.8124  0.4190
34170SOL    HW214236   0.617   7.830   4.733  0.7872 -0.6468 -2.8381
34171SOL     OW14237  11.425  11.170   8.116 -0.7252  0.2796  0.2601
34171SOL    HW114238  11.339  11.137   8.088 -0.1861 -0.3487 -0.6997
34171SOL    HW214239  11.464  11.098   8.165 -0.9083  0.7209  1.0755
34172SOL     OW14240   2.562  10.708   5.406  0.8610 -0.0339  0.0247
34172SOL    HW114241   2.646  10.720   5.363  0.6404 -1.1585 -0.7679
34172SOL    HW214242   2.571  10.755   5.489  1.3864  1.9689 -1.0857
34173SOL     OW14243   7.938   1.214   1.308  0.2553  0.5324 -0.0383
34173SOL    HW114244   8.026   1.251   1.317 -0.2181  1.5759  0.5623
34173SOL    HW214245   7.896   1.269   1.241 -0.4077  1.0216  0.7473
34174SOL     OW14246  11.400   7.047  11.544  0.1457 -0.3831  0.7238
34174SOL    HW114247  11.434   6.959  11.526 -0.4441 -0.4865  0.0327
34174SOL    HW214248  11.463   7.106  11.503  0.1650 -0.5200  0.5526
34175SOL     OW14249   2.460  13.194   8.345 -0.3942 -0.2293  0.0440
34175SOL    HW114250   2.488  13.107   8.317  0.8320  0.0173  0.4725
34175SOL    HW214251   2.500  13.254   8.282  1.0924  0.2168  1.3655
34176SOL     OW14252   3.993  11.251   8.605  0.0022 -0.6896 -0.2902
34176SOL    HW114253   4.055  11.223   8.673  0.7779  0.2726 -0.5675
34176SOL    HW214254   3.969  11.340   8.630  0.4668 -0.2362 -1.3705
34177SOL     OW14255  13.118  12.357   6.781  0.5916 -0.0201  0.2862
34177SOL    HW114256  13.204  12.321   6.757  1.0829  1.3462 -0.0955
34177SOL    HW214257  13.080  12.386   6.698 -0.0907 -0.2620  0.5053
34178SOL     OW14258   4.012  13.433  12.939 -0.1914  0.5022 -0.4383
34178SOL    HW114259   4.047  13.441  13.028 -1.2529 -0.4309  0.0944
34178SOL    HW214260   4.078  13.382  12.892 -0.6785 -1.1026  0.5099
34179SOL     OW14261  11.433   5.584  10.687  0.4821  0.2107 -0.4360
34179SOL    HW114262  11.411   5.665  10.731  1.5187  0.3934 -0.2174
34179SOL    HW214263  11.465   5.611  10.601 -0.9991 -0.1072 -1.1107
34180SOL     OW14264  11.497   9.963   2.524  0.1985  0.1270 -0.2685
34180SOL    HW114265  11.433   9.952   2.454  1.4025 -1.2743 -1.1939
34180SOL    HW214266  11.576   9.920   2.492  1.2569  0.7764  1.3337
34181SOL     OW14267   4.115   3.842   3.907  0.2915 -0.2268 -0.1769
34181SOL    HW114268   4.130   3.934   3.925  0.4518 -0.5363  1.4598
34181SOL    HW214269   4.153   3.827   3.821  0.3658  1.1960 -0.4086
34182SOL     OW14270  13.456   6.827  10.193 -0.5971 -0.5444 -0.4296
34182SOL    HW114271  13.546   6.796  10.184 -0.3956 -0.3204  0.7092
34182SOL    HW214272  13.438   6.823  10.287 -2.4024 -2.3208 -0.7899
34183SOL     OW14273   2.799  11.068   1.355 -0.3330 -0.2892  0.2262
34183SOL    HW114274   2.816  11.090   1.447  0.6971  1.0222 -0.2384
34183SOL    HW214275   2.735  11.134   1.327 -2.1967 -1.9017  0.4993
34184SOL     OW14276  11.150  13.114   4.374 -0.1725 -0.2239  0.2207
34184SOL    HW114277  11.087  13.067   4.427 -1.0559  0.8453  0.1588
34184SOL    HW214278  11.113  13.202   4.365  0.4822 -0.0612 -1.2428
34185SOL     OW14279   3.785  11.008   2.790  0.2507  0.0752  0.5271
34185SOL    HW114280   3.737  11.088   2.772  1.7843  1.6773  2.8863
34185SOL    HW214281   3.862  11.013   2.733  0.0541 -0.0400  0.2477
34186SOL     OW14282  12.934   8.855   9.935  0.0069 -0.7903  0.4385
34186SOL    HW114283  12.841   8.869   9.917  0.3058 -0.1934 -0.6931
34186SOL    HW214284  12.980   8.897   9.862  1.1872 -0.6414  1.2345
34187SOL     OW14285   4.871   9.752   9.193  0.1786 -0.2167 -0.5776
34187SOL    HW114286   4.954   9.774   9.234  0.1782 -1.0336 -0.1165
34187SOL    HW214287   4.806   9.803   9.241  0.2989 -0.3769 -0.2414
34188SOL     OW14288   8.719  10.518  13.348 -0.1314  0.5921 -0.4311
34188SOL    HW114289   8.689  10.603  13.315  0.8445  1.1133 -0.0329
34188SOL    HW214290   8.742  10.535  13.439 -0.1808 -0.1726 -0.2703
34189SOL     OW14291  11.027  10.321   9.413 -0.2798 -0.1434  0.0569
34189SOL    HW114292  10.964  10.264   9.369 -0.3009  1.5546 -2.2814
34189SOL    HW214293  10.973  10.386   9.458 -0.3048  1.2052 -1.8005
34190SOL     OW14294   7.560   3.919   7.828 -0.0258 -0.3410  0.2368
34190SOL    HW114295   7.571   3.838   7.778  2.6460  0.4972 -0.7220
34190SOL    HW214296   7.573   3.893   7.919 -0.3788 -1.1605  0.0664
34191SOL     OW14297   6.411  10.169   1.887  0.1233 -0.5402  0.5938
34191SOL    HW114298   6.408  10.076   1.865 -0.1788 -0.6120  0.9415
34191SOL    HW214299   6.337  10.183   1.946 -0.4250  0.1266 -0.2272
34192SOL     OW14300   3.803  10.259   2.568  0.0223  0.0110 -0.1074
34192SOL    HW114301   3.762  10.305   2.495  0.6657 -0.7705 -0.9787
34192SOL    HW214302   3.778  10.310   2.645 -1.7980  0.0905 -0.7091
34193SOL     OW14303   8.060   0.366  13.741  0.2226 -0.1575 -0.1421
34193SOL    HW114304   8.013   0.337  13.663  0.9166 -0.9203 -0.2945
34193SOL    HW214305   8.025   0.312  13.812  1.3870 -1.2923 -0.3933
34194SOL     OW14306   2.448   4.243  12.841  0.1702  0.2446  0.2510
34194SOL    HW114307   2.493   4.160  12.825 -0.5625 -0.5177  1.8029
34194SOL    HW214308   2.476   4.268  12.929 -0.7261  0.8688  0.3755
34195SOL     OW14309   2.028   0.057  13.551  0.2332  0.2991 -0.7708
34195SOL    HW114310   1.980  -0.024  13.568  1.8401 -0.5832 -0.2930
34195SOL    HW214311   1.962   0.126  13.562 -0.8588 -0.8381  0.1644
34196SOL     OW14312  10.598   8.525   2.620  0.3895  0.5403 -0.5138
34196SOL    HW114313  10.641   8.467   2.683  0.2856  0.9805 -0.0241
34196SOL    HW214314  10.668   8.555   2.562  0.6483  0.7853 -0.0870
34197SOL     OW14315  13.078   2.136   1.966  0.1480 -0.3551  0.1114
34197SOL    HW114316  13.016   2.079   1.921 -0.7088  0.9837 -0.4652
34197SOL    HW214317  13.142   2.159   1.899  0.3080 -0.3789  0.2565
34198SOL     OW14318   4.935  12.781   2.384  0.0067  0.0254 -0.6796
34198SOL    HW114319   5.020  12.808   2.417 -0.9750  0.1605  1.9162
34198SOL    HW214320   4.945  12.687   2.365  0.5564 -0.1131  0.2644
34199SOL     OW14321   6.303  11.100   4.813 -0.4528 -0.6140  0.4155
34199SOL    HW114322   6.375  11.109   4.751 -1.3937  0.1788 -0.5903
34199SOL    HW214323   6.225  11.118   4.762 -1.2988 -0.4740  1.7179
34200SOL     OW14324  12.982   3.027   4.703 -0.1980  0.5129  0.3694
34200SOL    HW114325  13.077   3.020   4.692 -0.4052  0.7867 -2.3550
34200SOL    HW214326  12.966   2.993   4.791  2.3293 -0.2992  0.6209
34201SOL     OW14327  12.671   7.572   5.798  0.2153  0.8014  0.5523
34201SOL    HW114328  12.656   7.518   5.875 -0.3886  0.3158  0.1048
34201SOL    HW214329  12.591   7.562   5.746  1.3325 -0.3684 -1.0433
34202SOL     OW14330   1.581   7.463  11.447 -0.2447 -0.0991 -0.1238
34202SOL    HW114331   1.553   7.552  11.427 -1.1312 -0.2782  0.2881
34202SOL    HW214332   1.616   7.468  11.536 -2.3678 -0.5714  0.7983
34203SOL     OW14333  12.075   4.371  10.682  0.1243 -0.0494  0.3968
34203SOL    HW114334  12.114   4.290  10.715  0.6599  0.3802  0.8468
34203SOL    HW214335  12.136   4.402  10.615 -0.2363 -0.1770  0.0095
34204SOL     OW14336   2.192  11.223   4.995  0.3399 -0.5216  0.1881
34204SOL    HW114337   2.229  11.215   5.083  2.6998 -0.6627 -0.7613
34204SOL    HW214338   2.211  11.313   4.969  1.4844 -1.0624 -0.9240
34205SOL     OW14339  11.508   1.804   2.849 -0.1826 -0.4403 -0.3764
34205SOL    HW114340  11.582   1.773   2.797 -0.2385  1.4793 -1.7400
34205SOL    HW214341  11.525   1.897   2.862 -0.8827 -0.5849  1.9312
34206SOL     OW14342  11.284   9.591   4.958  0.6969  0.3104  0.4461
34206SOL    HW114343  11.286   9.505   5.000  0.9047  0.1413  0.0896
34206SOL    HW214344  11.264   9.573   4.866  0.7213  0.6453  0.3728
34207SOL     OW14345   9.060   8.146   9.029 -0.0592 -1.0474  0.0061
34207SOL    HW114346   9.115   8.142   9.107 -0.1961 -1.8228  0.0720
34207SOL    HW214347   9.108   8.095   8.963 -0.9587 -2.2410  0.2398
34208SOL     OW14348   5.428   7.009   5.902  0.3327 -0.0477 -0.1233
34208SOL    HW114349   5.478   7.014   5.821 -0.7677 -1.3761 -0.9177
34208SOL    HW214350   5.341   6.981   5.875 -0.7210  1.6304  1.2816
34209SOL     OW14351  12.174   1.487  12.860  0.0948  0.2097  0.1719
34209SOL    HW114352  12.186   1.413  12.800  1.3785  0.2341  0.3743
34209SOL    HW214353  12.175   1.564  12.803  0.0612  0.1529  0.0945
34210SOL     OW14354   5.722  11.221  10.418  0.0252 -0.0203 -0.0675
34210SOL    HW114355   5.724  11.316  10.434  3.2262  0.2448 -1.3226
34210SOL    HW214356   5.750  11.211  10.327  5.2678 -2.1647  1.3674
34211SOL     OW14357  11.665   5.911   8.006 -0.6455  0.3574 -0.0277
34211SOL    HW114358  11.749   5.878   8.038 -0.9415 -0.6339 -0.2588
34211SOL    HW214359  11.688   5.984   7.949  0.0634  0.0463 -0.1480
34212SOL     OW14360   0.956  13.043   6.248  0.0381  0.0440  0.4193
34212SOL    HW114361   0.950  12.965   6.193  0.6977  1.1201 -1.2699
34212SOL    HW214362   1.014  13.102   6.199 -3.2632  3.0838 -0.2261
34213SOL     OW14363   0.571   3.190  10.710 -0.4440 -0.3895 -0.4326
34213SOL    HW114364   0.524   3.125  10.763 -0.4443 -0.0508 -0.0108
34213SOL    HW214365   0.504   3.254  10.687 -0.7325 -1.1760 -1.9209
34214SOL     OW14366   5.890   0.177   2.514 -0.1577 -0.1524 -0.1668
34214SOL    HW114367   5.861   0.265   2.538 -1.0132 -0.2110 -0.9331
34214SOL    HW214368   5.816   0.120   2.536  0.4142 -0.7097  0.3903
34215SOL     OW14369   6.116   9.810   0.592  0.2210 -0.4512  0.5904
34215SOL    HW114370   6.169   9.779   0.666  0.0901  0.8642  1.2739
34215SOL    HW214371   6.053   9.740   0.577  0.2184 -0.7287  1.7795
34216SOL     OW14372  11.966   3.074   3.015  0.2999  0.0660 -0.1806
34216SOL    HW114373  11.881   3.034   2.996  0.9422 -1.7101  0.4676
34216SOL    HW214374  12.027   3.001   3.016  1.4199  0.9448  1.7933
34217SOL     OW14375   6.028  13.523   4.138 -0.7290  0.4966 -0.5430
34217SOL    HW114376   6.024  13.452   4.202  0.1293  2.2463  1.5969
34217SOL    HW214377   6.098  13.498   4.078  1.2379  0.5501  1.5930
34218SOL     OW14378   2.449  13.045   0.814  0.0785  0.7232 -0.0020
34218SOL    HW114379   2.501  13.124   0.799  0.8278  0.1349 -0.6338
34218SOL    HW214380   2.514  12.977   0.832 -0.5692  0.2991  0.7823
34219SOL     OW14381   8.346   6.189   2.907 -0.2859 -0.4248 -0.5322
34219SOL    HW114382   8.423   6.221   2.859  0.8044 -0.8522  0.8438
34219SOL    HW214383   8.298   6.136   2.844  0.7424 -0.4114 -1.3431
34220SOL     OW14384   0.146   5.914   6.658  0.2467  0.0910 -0.2016
34220SOL    HW114385   0.170   6.006   6.673  0.1167  0.0444  0.3366
34220SOL    HW214386   0.083   5.895   6.728  2.1834 -1.1602  1.3191
34221SOL     OW14387  10.586   3.405   7.985  0.4274  0.5579  0.3651
34221SOL    HW114388  10.626   3.329   8.027 -0.9670 -0.8303 -0.6826
34221SOL    HW214389  10.576   3.380   7.893  0.5029  2.2738 -0.1552
34222SOL     OW14390   1.831  10.048  11.372 -0.4822 -0.0342  0.2205
34222SOL    HW114391   1.830  10.143  11.383  0.5241  0.0223 -0.0953
34222SOL    HW214392   1.738  10.023  11.372 -0.7740  0.9987 -0.1810
34223SOL     OW14393  12.015  13.308   4.439 -0.3175 -0.3940 -0.3443
34223SOL    HW114394  11.945  13.316   4.503 -0.8614 -1.0257 -0.8566
34223SOL    HW214395  12.065  13.232   4.467  0.2525  0.1256  0.0897
34224SOL     OW14396   1.826   9.739   2.514  0.1495  0.1888 -0.4673
34224SOL    HW114397   1.903   9.687   2.539  0.4473  0.8680  0.0628
34224SOL    HW214398   1.855   9.830   2.521 -0.6278  0.4483 -0.5322
34225SOL     OW14399   2.904   5.760  10.840  0.4883  0.6307 -0.4255
34225SOL    HW114400   2.942   5.713  10.766 -1.9243 -0.9405 -0.7706
34225SOL    HW214401   2.975   5.766  10.904  0.9846 -3.7915 -0.2449
34226SOL     OW14402   4.392  13.484   6.534  0.8059 -0.8447 -0.2662
34226SOL    HW114403   4.324  13.536   6.491  0.3231 -0.9192  0.3801
34226SOL    HW214404   4.400  13.405   6.482 -0.5568 -1.4334  0.3742
34227SOL     OW14405   6.232   0.783  10.211  0.1582  0.2337  0.0657
34227SOL    HW114406   6.138   0.793  10.198  0.1588 -1.0313 -1.1783
34227SOL    HW214407   6.272   0.841  10.146  0.2562  0.8074  0.6252
34228SOL     OW14408   4.967   0.989   7.714  0.1351  0.3995 -0.3807
34228SOL    HW114409   4.970   1.019   7.623  1.2938  3.1329  0.4360
34228SOL    HW214410   5.049   1.021   7.752 -0.9672  0.6302  1.9696
34229SOL     OW14411  13.163  13.333   3.279 -0.2396  0.0131 -0.1250
34229SOL    HW114412  13.218  13.255   3.275  0.7923  0.7445 -0.7214
34229SOL    HW214413  13.153  13.351   3.373  1.0532  0.2162 -0.0161
34230SOL     OW14414   7.555  13.632   4.097 -0.3394 -0.6827  0.2462
34230SOL    HW114415   7.460  13.618   4.101 -0.7177  1.1612 -0.8798
34230SOL    HW214416   7.592  13.565   4.154 -2.1578 -2.8041 -0.9241
34231SOL     OW14417   6.527   9.050  13.547 -0.0206  0.1547 -1.0642
34231SOL    HW114418   6.434   9.069  13.533 -0.5873 -1.0222  0.6922
34231SOL    HW214419   6.546   8.979  13.485  0.0020  1.0407 -2.1076
34232SOL     OW14420   2.702  13.231   4.186 -0.4738 -0.0194 -0.3521
34232SOL    HW114421   2.713  13.139   4.161  0.4125 -0.4902  1.5341
34232SOL    HW214422   2.675  13.227   4.278 -1.0633  1.6094 -0.4272
34233SOL     OW14423  13.073   0.260   9.406  0.3717  0.2675  0.3443
34233SOL    HW114424  13.016   0.256   9.329  1.2889 -1.4382 -0.3025
34233SOL    HW214425  13.034   0.198   9.468  1.4894 -0.9977 -0.1451
34234SOL     OW14426  10.147   1.932   3.051 -0.3048 -0.3597 -0.1571
34234SOL    HW114427  10.187   1.961   3.133 -1.6231  0.6344  0.1711
34234SOL    HW214428  10.069   1.883   3.078 -0.9172  0.2319 -0.7833
34235SOL     OW14429   8.951  11.911  13.485 -0.3309 -0.0631  0.3388
34235SOL    HW114430   8.896  11.987  13.464 -1.3467 -1.1118 -1.0408
34235SOL    HW214431   9.024  11.916  13.424 -1.1954 -0.9622 -0.8267
34236SOL     OW14432  11.726   9.187   1.081  0.0157  0.3467  0.2304
34236SOL    HW114433  11.814   9.163   1.052 -1.0891 -0.7261 -2.5419
34236SOL    HW214434  11.729   9.283   1.088  1.5989  0.2736  1.0492
34237SOL     OW14435   4.204  11.038   9.557  0.0730 -0.1296  0.4442
34237SOL    HW114436   4.246  10.953   9.551 -2.6985 -1.5784 -0.2509
34237SOL    HW214437   4.111  11.018   9.572 -0.6290  2.7723  0.6383
34238SOL     OW14438   2.978  10.860   0.002  0.7750 -0.4471 -0.6914
34238SOL    HW114439   2.901  10.852   0.059  0.6193 -3.4814 -1.2118
34238SOL    HW214440   3.049  10.824   0.054  1.3329 -0.0939 -1.2054
34239SOL     OW14441   2.769   1.640  11.469 -0.4642  0.3168  0.0050
34239SOL    HW114442   2.676   1.619  11.484 -0.6399  2.8565  4.1259
34239SOL    HW214443   2.810   1.555  11.454 -3.3757 -0.8919 -1.9547
34240SOL     OW14444   5.799   1.662   3.513  0.1928  0.9855 -0.2076
34240SOL    HW114445   5.877   1.652   3.459 -0.6746  0.5504 -1.4323
34240SOL    HW214446   5.731   1.690   3.452 -0.6736  1.1047  0.7842
34241SOL     OW14447  10.180   0.135   0.897 -0.8149  0.2765  0.4998
34241SOL    HW114448  10.247   0.123   0.964 -1.8527  2.5605  2.0810
34241SOL    HW214449  10.227   0.170   0.821  0.4474 -2.7612 -0.2971
34242SOL     OW14450  10.603   5.750   1.751  0.1537  0.0011  0.1326
34242SOL    HW114451  10.669   5.818   1.758  0.3032  0.0617 -1.5730
34242SOL    HW214452  10.639   5.675   1.799  2.1888 -0.4945 -2.0333
34243SOL     OW14453   7.819   3.116  10.059  0.5282  0.1375  0.5132
34243SOL    HW114454   7.733   3.111  10.100  1.2082 -1.5425  1.9040
34243SOL    HW214455   7.844   3.208  10.065 -0.5751  0.3955  1.3737
34244SOL     OW14456   1.115   0.515   5.783  0.2405  0.4332 -0.7301
34244SOL    HW114457   1.147   0.444   5.727 -0.5489 -0.1183 -0.4891
34244SOL    HW214458   1.020   0.507   5.780  0.1768  0.6043  0.4210
34245SOL     OW14459  11.877  11.900  12.439 -0.3094 -0.5724 -0.4938
34245SOL    HW114460  11.830  11.849  12.505  1.0008 -0.2274  0.7782
34245SOL    HW214461  11.824  11.893  12.360 -1.9568 -0.9866  0.5987
34246SOL     OW14462   3.842   9.288   9.534 -0.1411 -0.5565  0.0399
34246SOL    HW114463   3.875   9.209   9.576 -0.2708 -0.6274  0.0102
34246SOL    HW214464   3.883   9.288   9.447  1.6460  0.5855  0.8292
34247SOL     OW14465   2.547   4.094   0.187 -0.7391 -0.7229  0.3990
34247SOL    HW114466   2.589   4.175   0.158 -0.8387 -0.2391  1.5366
34247SOL    HW214467   2.485   4.122   0.254 -1.2665 -1.6733  0.3197
34248SOL     OW14468   9.367   7.773   9.153  0.2467  0.1399  0.2454
34248SOL    HW114469   9.362   7.868   9.160  0.1336  0.1815 -0.2824
34248SOL    HW214470   9.350   7.755   9.060 -0.6579 -0.4526  0.5072
34249SOL     OW14471  13.034   5.362  10.985 -0.1754  0.6705  0.1016
34249SOL    HW114472  13.076   5.442  11.015 -1.4894  1.7756 -0.8847
34249SOL    HW214473  12.966   5.345  11.049  0.7728 -0.2818  0.8861
34250SOL     OW14474   8.831   5.501   7.791 -1.0944  0.5043  1.0185
34250SOL    HW114475   8.901   5.563   7.772 -2.8420  1.8615 -1.6485
34250SOL    HW214476   8.859   5.456   7.871  2.1790  1.8020  0.7420
34251SOL     OW14477   8.727   0.134   2.243  1.3752  0.1115  0.4387
34251SOL    HW114478   8.690   0.051   2.214 -0.6209  0.5032  1.6576
34251SOL    HW214479   8.765   0.172   2.164  1.6801 -1.6107 -0.2815
34252SOL     OW14480  10.530  11.318   7.072 -0.2544 -0.1565 -0.0302
34252SOL    HW114481  10.590  11.260   7.025  2.1382  1.5106  0.7951
34252SOL    HW214482  10.526  11.281   7.160 -1.6735 -1.0719 -0.4347
34253SOL     OW14483   3.362  10.733   1.828  0.4252 -0.0995 -0.4274
34253SOL    HW114484   3.433  10.766   1.773  0.2419  1.2898  0.1373
34253SOL    HW214485   3.406  10.694   1.903  0.5921  0.9010 -0.0012
34254SOL     OW14486   5.273  13.316   7.034  0.5449  0.3724  0.2636
34254SOL    HW114487   5.222  13.297   7.113  1.4157 -3.5452  0.0479
34254SOL    HW214488   5.364  13.314   7.064  0.8385 -0.1135 -0.6363
34255SOL     OW14489  13.716   6.450   5.698  0.2775  0.2296  0.4303
34255SOL    HW114490  13.707   6.396   5.777 -0.5619 -0.8233 -0.3474
34255SOL    HW214491  13.646   6.514   5.705  0.5388  0.4789  0.7941
34256SOL     OW14492  12.675   5.724   4.725 -0.1087  0.6442 -0.0009
34256SOL    HW114493  12.609   5.711   4.793  1.6764  1.0835  1.8951
34256SOL    HW214494  12.701   5.815   4.734  1.3797  0.2466 -0.1016
34257SOL     OW14495   1.211  13.302   8.909  0.4574  0.1527  0.2569
34257SOL    HW114496   1.147  13.289   8.979  0.8737 -1.1145  0.4272
34257SOL    HW214497   1.167  13.360   8.847 -0.1926  0.7039  1.1999
34258SOL     OW14498   0.080   8.834  12.706  0.3514 -0.8145 -0.7056
34258SOL    HW114499   0.081   8.828  12.611  1.1149  0.9090 -0.8342
34258SOL    HW214500   0.089   8.928  12.725  3.0965 -1.3207  1.0899
34259SOL     OW14501   7.829   4.131  11.663 -0.9681  0.1377 -0.1197
34259SOL    HW114502   7.866   4.053  11.703 -1.3012 -0.9894 -1.9260
34259SOL    HW214503   7.906   4.185  11.640 -0.7732  0.8690  2.0151
34260SOL     OW14504  12.982   4.702   2.089 -0.4074 -0.2836  0.1311
34260SOL    HW114505  12.970   4.795   2.109  1.2469  0.0244 -0.1362
34260SOL    HW214506  12.903   4.677   2.043 -0.8006  1.0430  0.0289
34261SOL     OW14507   7.762   7.909   0.455 -0.4320  0.4342  0.6052
34261SOL    HW114508   7.754   7.867   0.369  0.3029  1.3270  0.0840
34261SOL    HW214509   7.829   7.859   0.500 -0.8591 -0.0724  0.6921
34262SOL     OW14510   5.260  10.101   1.812  0.3329 -0.0064 -0.2758
34262SOL    HW114511   5.261  10.005   1.803 -1.5171  0.0840 -1.9836
34262SOL    HW214512   5.332  10.130   1.756  0.0435 -0.3421 -0.8335
34263SOL     OW14513   0.561   5.393   8.151  0.0503  0.0344  0.6272
34263SOL    HW114514   0.496   5.460   8.128 -0.6574 -0.4978  1.0480
34263SOL    HW214515   0.533   5.361   8.237  1.5095  0.5794  1.3393
34264SOL     OW14516   2.061   0.706   8.485 -0.9498  0.4933 -0.7638
34264SOL    HW114517   2.111   0.763   8.426 -1.9007  1.3738 -0.7293
34264SOL    HW214518   1.970   0.720   8.461 -1.3967  1.2154  1.2161
34265SOL     OW14519   4.681   6.293  10.619  0.4998  0.2630  0.3102
34265SOL    HW114520   4.649   6.379  10.647  1.3758  0.7099 -0.0386
34265SOL    HW214521   4.640   6.278  10.534 -1.5654 -0.7567  1.4230
34266SOL     OW14522  11.485  12.822   6.376 -0.1181  0.5431 -0.3963
34266SOL    HW114523  11.450  12.851   6.291  1.4627  0.1185 -1.2478
34266SOL    HW214524  11.409  12.790   6.424 -1.1406  1.3061 -1.4362
34267SOL     OW14525   5.840   1.010   4.915  0.5517 -0.3935  0.0833
34267SOL    HW114526   5.844   1.095   4.959  0.8045 -0.2380 -0.2415
34267SOL    HW214527   5.746   0.994   4.901  0.5637  0.4666 -1.0846
34268SOL     OW14528   5.958   1.153   0.780  0.6826  0.4222 -0.6232
34268SOL    HW114529   5.973   1.098   0.703  1.0712  1.4569 -1.3196
34268SOL    HW214530   6.040   1.202   0.790  0.4699  0.6260  0.1790
34269SOL     OW14531  11.393  10.006  10.163  0.0871  0.2772 -0.3388
34269SOL    HW114532  11.318  10.058  10.134 -0.9535 -0.9144  0.0862
34269SOL    HW214533  11.363   9.966  10.245  0.1120 -2.4393 -1.5496
34270SOL     OW14534  10.063  12.156  11.028  0.7273 -0.3196 -0.1137
34270SOL    HW114535  10.017  12.074  11.011 -1.2973  0.8583 -0.6599
34270SOL    HW214536  10.155  12.131  11.039  0.1148 -2.6714  0.0847
34271SOL     OW14537   7.286  13.201   3.487 -0.3858 -0.2188  0.1001
34271SOL    HW114538   7.211  13.180   3.542 -1.3457 -1.3652 -1.5758
34271SOL    HW214539   7.355  13.141   3.515 -1.0352 -1.1596 -0.2768
34272SOL     OW14540   7.971   4.639   3.130  0.1644  0.2235  0.1049
34272SOL    HW114541   7.960   4.585   3.208  1.8187 -1.4201 -0.7077
34272SOL    HW214542   7.974   4.577   3.058 -0.4882  1.6369 -1.1866
34273SOL     OW14543   7.523   0.819   0.258 -0.4168  0.2900 -0.0365
34273SOL    HW114544   7.584   0.786   0.324 -0.1090  0.9018 -0.0074
34273SOL    HW214545   7.562   0.794   0.174 -1.2954 -1.3402  0.0147
34274SOL     OW14546  13.292   6.129  10.993 -0.2016 -0.2637 -0.4363
34274SOL    HW114547  13.324   6.056  10.940 -0.4340 -1.2425  0.7312
34274SOL    HW214548  13.200   6.138  10.967  0.1221  0.4063 -1.4218
34275SOL     OW14549   8.705   5.154  11.841  0.0794 -0.5758 -0.2425
34275SOL    HW114550   8.714   5.189  11.930  1.1035  0.8351 -0.8608
34275SOL    HW214551   8.612   5.136  11.832 -0.1072 -0.3609  0.9736
34276SOL     OW14552   8.098   4.534  11.059 -0.0772 -0.4333  0.4861
34276SOL    HW114553   8.023   4.592  11.051  0.3884  0.0221 -0.9329
34276SOL    HW214554   8.170   4.583  11.019  0.6785 -1.3905  0.6394
34277SOL     OW14555   9.937   6.951   4.993  0.0108  0.6832 -0.3983
34277SOL    HW114556   9.899   6.872   5.033  1.7802 -0.3482 -0.6750
34277SOL    HW214557   9.908   6.948   4.902  1.7343 -0.8282 -0.9600
34278SOL     OW14558   1.219   0.546   9.226  0.0975 -0.0149 -0.4595
34278SOL    HW114559   1.174   0.486   9.167 -0.5385  0.6323 -0.6480
34278SOL    HW214560   1.155   0.564   9.295  0.5179 -0.0624 -0.0566
34279SOL     OW14561   5.801   2.567   4.040 -0.2510  0.5966  0.1531
34279SOL    HW114562   5.875   2.557   3.980 -0.5244 -1.8982  0.1327
34279SOL    HW214563   5.838   2.550   4.126 -0.0405  3.3262  0.6870
34280SOL     OW14564   1.415  12.134   2.931  0.2249  0.6815 -0.3552
34280SOL    HW114565   1.336  12.152   2.880  0.7118  1.3604 -0.8769
34280SOL    HW214566   1.432  12.215   2.979 -0.6464 -0.1701  1.5104
34281SOL     OW14567   2.277   8.821   9.127  0.2465 -0.2095  0.0824
34281SOL    HW114568   2.330   8.799   9.050  1.8468  2.6780  0.2311
34281SOL    HW214569   2.190   8.839   9.091  0.0229 -2.2364 -0.5312
34282SOL     OW14570   9.341   1.529   5.858 -0.1217 -0.7061 -0.4496
34282SOL    HW114571   9.347   1.556   5.950 -1.9589  2.2465 -1.0792
34282SOL    HW214572   9.254   1.489   5.851 -0.7935  0.8386 -1.2550
34283SOL     OW14573  11.544   0.975   9.489 -0.3802 -1.0678  0.5463
34283SOL    HW114574  11.531   0.917   9.565 -1.4444 -1.0854  0.3645
34283SOL    HW214575  11.556   0.915   9.415 -2.3928 -1.1018  0.2021
34284SOL     OW14576   7.998   1.361  10.474  0.6348 -0.0523  0.8692
34284SOL    HW114577   8.023   1.406  10.555 -0.6548  1.2648  0.5872
34284SOL    HW214578   8.064   1.389  10.410  0.8995 -0.0486  1.1391
34285SOL     OW14579   0.249   7.793   4.108  0.3845  0.4202  0.0287
34285SOL    HW114580   0.219   7.830   4.191 -1.3998 -0.1505 -0.3281
34285SOL    HW214581   0.238   7.864   4.045  0.7980  0.5333  0.0770
34286SOL     OW14582   2.235  11.173  10.192  0.4891  0.2790  0.0592
34286SOL    HW114583   2.179  11.236  10.145 -1.4196 -0.8086  0.7649
34286SOL    HW214584   2.323  11.212  10.188 -0.4469  2.5459 -0.2783
34287SOL     OW14585  11.723   7.544   3.186 -0.3083  0.3900  0.6956
34287SOL    HW114586  11.785   7.543   3.259 -0.1599 -1.8930  0.6052
34287SOL    HW214587  11.670   7.465   3.198 -1.5088  0.9376 -0.6572
34288SOL     OW14588   1.024   8.764   0.965  0.1394 -0.8261 -0.4756
34288SOL    HW114589   1.002   8.822   1.038  0.0628 -1.2568 -0.1519
34288SOL    HW214590   1.117   8.745   0.977 -0.2144 -2.1169  0.3971
34289SOL     OW14591   6.288   1.340   5.428 -0.1307 -0.7992 -0.3410
34289SOL    HW114592   6.301   1.256   5.474 -0.9663 -0.0021  1.4513
34289SOL    HW214593   6.201   1.333   5.390  0.5545 -1.4518 -1.8616
34290SOL     OW14594  12.610   1.628   6.201  0.2916  0.1499  0.1155
34290SOL    HW114595  12.523   1.599   6.173  0.1687 -0.5440  1.1824
34290SOL    HW214596  12.659   1.547   6.218  0.6499  0.5362  1.0055
34291SOL     OW14597   1.573   5.045   3.215  0.0600 -0.5639 -0.0871
34291SOL    HW114598   1.647   4.986   3.204  0.7040  0.2618 -0.3307
34291SOL    HW214599   1.612   5.126   3.248 -0.3821  0.6243 -2.2468
34292SOL     OW14600   4.346   1.318   4.469 -0.4636  0.1774  0.2321
34292SOL    HW114601   4.253   1.338   4.455 -0.7598 -0.0551  1.6562
34292SOL    HW214602   4.369   1.257   4.398 -1.0100  1.2997 -0.9476
34293SOL     OW14603  10.248  13.145   0.470  1.0363  0.7850 -0.2439
34293SOL    HW114604  10.298  13.080   0.519 -0.6171  0.7901  1.5824
34293SOL    HW214605  10.159  13.140   0.506 -0.1505  1.2988 -2.8035
34294SOL     OW14606   4.152   1.385   6.443 -0.2058 -0.3789 -0.1812
34294SOL    HW114607   4.181   1.367   6.353 -0.3849  1.3510 -0.6164
34294SOL    HW214608   4.224   1.354   6.497  0.5562 -0.1360 -1.0216
34295SOL     OW14609  11.214   2.325   7.420  0.3174 -0.3223  0.0778
34295SOL    HW114610  11.279   2.264   7.386  0.7055 -0.7467  1.5203
34295SOL    HW214611  11.139   2.314   7.362  0.6964 -1.5371 -0.2130
34296SOL     OW14612  11.347   3.472   9.621 -0.0840  0.6669 -0.4162
34296SOL    HW114613  11.260   3.456   9.658  0.4118 -0.7585  0.2279
34296SOL    HW214614  11.331   3.494   9.529 -1.1289  0.4850 -0.2907
34297SOL     OW14615   3.767   7.883   2.606  0.2279  0.1411  0.3908
34297SOL    HW114616   3.859   7.857   2.605  0.0446 -0.7373  2.4806
34297SOL    HW214617   3.732   7.849   2.688 -1.6772  1.4909  0.2297
34298SOL     OW14618  13.360   1.120  11.841  0.4767  0.2031 -0.4810
34298SOL    HW114619  13.378   1.096  11.750 -0.9503 -1.5400 -0.3843
34298SOL    HW214620  13.265   1.106  11.851  0.7559 -0.6532  1.5185
34299SOL     OW14621   3.165  13.586  10.239 -0.1591  0.5076  0.1004
34299SOL    HW114622   3.214  13.537  10.305  2.2724  0.1858 -1.7912
34299SOL    HW214623   3.109  13.521  10.197 -1.7995  0.7330  1.7935
34300SOL     OW14624  11.093   7.347  11.384  0.5703  0.2412 -0.6119
34300SOL    HW114625  11.092   7.331  11.289  0.3920  0.9957 -0.7440
34300SOL    HW214626  11.080   7.441  11.392  0.5683  0.1767  0.1698
34301SOL     OW14627  11.020   0.570   9.502  0.0417  0.1850  0.1941
34301SOL    HW114628  10.942   0.553   9.450  0.3687 -2.0216  0.3341
34301SOL    HW214629  11.003   0.528   9.586  1.0826  0.3221  0.4970
34302SOL     OW14630  13.374  13.524   9.969 -0.0016 -0.3414 -0.1115
34302SOL    HW114631  13.385  13.584   9.895  0.8117 -0.1753  0.1390
34302SOL    HW214632  13.340  13.443   9.929 -0.6655  0.1175 -0.5086
34303SOL     OW14633   0.832   9.236  11.216  0.1470 -0.0413 -0.3176
34303SOL    HW114634   0.818   9.282  11.298  0.1136 -0.4301 -0.1034
34303SOL    HW214635   0.775   9.281  11.153  0.0038  0.1145 -0.0780
34304SOL     OW14636   8.684   1.198   8.938 -0.1069 -0.0357  0.2800
34304SOL    HW114637   8.739   1.182   8.861  1.4987  1.5232  1.0157
34304SOL    HW214638   8.686   1.116   8.987  1.9832  0.0779  0.4809
34305SOL     OW14639  11.148   3.373   5.465 -0.2689 -0.4059 -0.0876
34305SOL    HW114640  11.188   3.458   5.484  1.4318 -1.2568  0.3110
34305SOL    HW214641  11.082   3.362   5.534  1.2951 -0.5156  1.4712
34306SOL     OW14642   0.774   6.215   7.760  0.7691 -0.1827  0.4530
34306SOL    HW114643   0.753   6.263   7.680  1.7125 -1.4218 -0.5799
34306SOL    HW214644   0.841   6.268   7.802 -1.0536  1.4633  1.4674
34307SOL     OW14645   3.823   1.851   7.276 -0.3724  0.1946  0.7830
34307SOL    HW114646   3.866   1.798   7.344  0.1215  0.6265  0.8157
34307SOL    HW214647   3.879   1.929   7.268  1.2240 -1.0914 -2.1484
34308SOL     OW14648   5.021  10.633   4.498  0.2026  0.0057  0.7671
34308SOL    HW114649   4.971  10.650   4.419  1.0985 -0.4209  0.0998
34308SOL    HW214650   5.007  10.711   4.552 -2.5786 -0.7911  1.3761
34309SOL     OW14651   2.073   3.185  11.365 -0.2539  0.1269 -0.0421
34309SOL    HW114652   2.041   3.270  11.396  0.1683 -0.2729  1.6205
34309SOL    HW214653   2.165   3.184  11.390 -0.5769 -1.3490  1.2478
34310SOL     OW14654   1.837   0.535  13.347 -0.3007 -0.6709 -0.3596
34310SOL    HW114655   1.905   0.546  13.413 -0.7839 -0.9021  0.1872
34310SOL    HW214656   1.794   0.621  13.342 -1.1271 -1.0093  0.6078
34311SOL     OW14657   7.940   6.681   5.141  0.1383  0.5835  0.1612
34311SOL    HW114658   7.850   6.666   5.170  0.4173  0.5857  1.0815
34311SOL    HW214659   7.948   6.633   5.059 -1.0684  1.6228 -0.5809
34312SOL     OW14660   1.224   7.097   0.838  0.0440  0.1982 -0.3081
34312SOL    HW114661   1.171   7.018   0.847  0.6671 -0.2178 -0.2431
34312SOL    HW214662   1.165   7.161   0.798 -0.5774 -0.1797 -0.0120
34313SOL     OW14663   4.954   2.433   1.459 -0.2165  0.2545 -0.2422
34313SOL    HW114664   4.932   2.395   1.374 -0.0858 -0.6915  0.1351
34313SOL    HW214665   4.877   2.416   1.513  0.0746  0.0265  0.0954
34314SOL     OW14666  12.818   5.373   9.374 -0.1638  0.7722 -0.0180
34314SOL    HW114667  12.795   5.403   9.286  0.3211 -2.8555 -1.5494
34314SOL    HW214668  12.754   5.305   9.395  2.2299 -1.5493  0.4171
34315SOL     OW14669   3.748   7.966   4.269 -1.1599 -0.1888 -0.0050
34315SOL    HW114670   3.653   7.972   4.269 -1.1387  0.1800 -0.1518
34315SOL    HW214671   3.770   7.921   4.350 -1.5136 -1.2165 -0.4548
34316SOL     OW14672  12.043  12.424   0.769 -0.6052  0.0477 -0.9187
34316SOL    HW114673  12.052  12.483   0.695  0.6099  0.5673 -0.3846
34316SOL    HW214674  12.075  12.339   0.736  2.1378  0.7823 -0.4177
34317SOL     OW14675   6.602   9.540   7.349 -0.3413  0.4803  0.1726
34317SOL    HW114676   6.574   9.463   7.299  0.0582 -0.9202  2.0372
34317SOL    HW214677   6.617   9.606   7.282  0.9392 -1.5443 -1.6790
34318SOL     OW14678   8.478   9.932  11.328  0.1403  0.7046 -0.2232
34318SOL    HW114679   8.387   9.921  11.353 -0.0995 -0.4170 -1.4630
34318SOL    HW214680   8.476   9.995  11.256  0.3823  0.8679 -0.0919
34319SOL     OW14681   8.786   6.616   1.453  0.5371 -0.7905 -0.0323
34319SOL    HW114682   8.844   6.555   1.406 -0.0098 -0.6937 -0.8465
34319SOL    HW214683   8.700   6.575   1.447 -0.1213  0.6960 -1.8120
34320SOL     OW14684   3.211   2.340  11.240 -0.5435  0.6566 -0.0766
34320SOL    HW114685   3.237   2.424  11.278 -1.4579 -0.2785  2.8614
34320SOL    HW214686   3.254   2.275  11.295  0.3196 -0.8434 -2.4273
34321SOL     OW14687   4.439  11.127  12.926 -0.0357 -0.2598 -0.4823
34321SOL    HW114688   4.398  11.104  12.843  0.2879 -0.3338 -0.6221
34321SOL    HW214689   4.458  11.220  12.918 -0.3778 -0.1716 -0.3269
34322SOL     OW14690   8.444   8.066  12.335  0.7961 -0.4432  0.3376
34322SOL    HW114691   8.355   8.044  12.362  1.1849 -1.4186  0.8542
34322SOL    HW214692   8.476   7.988  12.290  0.9496  0.3671 -1.0024
34323SOL     OW14693  13.361   3.986   9.973  0.0411  0.0513  0.1556
34323SOL    HW114694  13.336   4.056   9.912 -0.4789  0.0348  0.3388
34323SOL    HW214695  13.383   3.912   9.916  0.1465  0.2228 -0.0278
34324SOL     OW14696   2.940   0.208  12.823  0.7643 -0.0574  0.1243
34324SOL    HW114697   2.860   0.222  12.874 -0.5209 -1.0757 -1.5021
34324SOL    HW214698   2.944   0.113  12.811  1.0155  0.1498 -1.6580
34325SOL     OW14699   6.128   3.746   0.409 -0.1690 -0.1457  0.4675
34325SOL    HW114700   6.126   3.654   0.434  1.2092 -0.2223  0.3825
34325SOL    HW214701   6.220   3.763   0.389 -0.1501  1.5857  1.7643
34326SOL     OW14702   3.415  12.128   0.024  0.3993 -0.4207 -0.2647
34326SOL    HW114703   3.403  12.221   0.007 -0.2298 -0.6818 -1.3120
34326SOL    HW214704   3.390  12.085  -0.057  1.0774 -1.4858  0.0711
34327SOL     OW14705   9.602   0.573   9.894  0.0359  0.2932 -0.3712
34327SOL    HW114706   9.557   0.650   9.858 -1.6272  0.6965  2.3345
34327SOL    HW214707   9.568   0.564   9.983  0.8078 -3.1034 -0.2824
34328SOL     OW14708   5.379   1.621   9.438  0.3028 -0.4491 -0.0227
34328SOL    HW114709   5.359   1.528   9.431 -1.2487 -0.0519 -1.7299
34328SOL    HW214710   5.435   1.628   9.515 -0.2183 -2.6712  0.6299
34329SOL     OW14711   6.263   3.483   8.580  0.4034  0.0248 -0.0470
34329SOL    HW114712   6.317   3.544   8.630 -0.5259 -1.7897  3.5090
34329SOL    HW214713   6.173   3.504   8.604  0.0300 -2.1904  0.8133
34330SOL     OW14714   9.223  11.355  10.870 -0.2919  0.1443  1.0233
34330SOL    HW114715   9.303  11.306  10.889  0.1089  0.4875  0.2505
34330SOL    HW214716   9.213  11.349  10.775 -0.7363  0.8036  1.0210
34331SOL     OW14717   5.441   8.560   3.366 -0.0615  0.2712  0.2032
34331SOL    HW114718   5.371   8.591   3.423  1.8790  2.6647  1.4673
34331SOL    HW214719   5.489   8.496   3.419 -1.6388 -2.0449 -0.9645
34332SOL     OW14720   0.777   2.348   4.641  0.0522 -0.1682  0.2520
34332SOL    HW114721   0.811   2.260   4.660 -2.4230 -0.9792  1.2567
34332SOL    HW214722   0.687   2.334   4.614  0.1913  1.9454 -1.5698
34333SOL     OW14723   0.625   2.214  12.876 -0.0565  0.3315 -0.0398
34333SOL    HW114724   0.637   2.185  12.966 -1.2065  0.8286  0.2929
34333SOL    HW214725   0.531   2.210  12.862 -0.0058  1.3910 -0.8268
34334SOL     OW14726   7.791   9.825   5.099 -0.4958  0.5969 -0.1949
34334SOL    HW114727   7.760   9.830   5.189  0.8755  2.7497  0.2248
34334SOL    HW214728   7.716   9.851   5.046 -0.7849  1.0599  0.4437
34335SOL     OW14729   4.363  11.993   4.069  0.0366 -0.0391 -0.7028
34335SOL    HW114730   4.411  11.961   3.993  1.0924  1.7546 -0.8396
34335SOL    HW214731   4.420  12.061   4.106 -1.0405  0.0224  0.9316
34336SOL     OW14732   0.527  12.091   8.585  0.2462  0.2297 -0.1434
34336SOL    HW114733   0.616  12.058   8.594  0.1397  0.5986  3.3684
34336SOL    HW214734   0.527  12.176   8.629 -1.9544  0.0025  0.4226
34337SOL     OW14735   8.308  10.925   4.848  0.0542  0.5819  0.6201
34337SOL    HW114736   8.298  11.020   4.852 -2.7495  0.3650  0.7499
34337SOL    HW214737   8.313  10.897   4.939 -0.9479  0.5157  0.6739
34338SOL     OW14738   1.775   5.499   9.458 -0.2164 -0.6933 -0.4240
34338SOL    HW114739   1.757   5.436   9.388  0.3332 -0.0888 -1.1277
34338SOL    HW214740   1.693   5.505   9.507 -0.5845 -1.1924 -0.9685
34339SOL     OW14741  13.379  13.332   9.566  0.3888 -0.1829  0.0526
34339SOL    HW114742  13.474  13.342   9.563  0.5548 -1.8287 -0.9421
34339SOL    HW214743  13.358  13.333   9.660  1.4433 -0.3659  0.3055
34340SOL     OW14744   0.325   7.329  12.075  0.0528  0.5142 -0.4996
34340SOL    HW114745   0.382   7.354  12.147  0.0646 -0.5339 -0.1371
34340SOL    HW214746   0.366   7.251  12.037 -1.7016 -0.9673  0.4868
34341SOL     OW14747   5.727   7.003   9.844  0.3946  0.4349 -0.2656
34341SOL    HW114748   5.786   7.077   9.834  1.7804 -0.8803 -3.0447
34341SOL    HW214749   5.782   6.932   9.877 -0.4636  0.1164  0.5164
34342SOL     OW14750   1.295  10.498   0.391 -0.4025  0.7670  0.6365
34342SOL    HW114751   1.352  10.430   0.356 -1.1358 -0.3911  1.6122
34342SOL    HW214752   1.212  10.487   0.343 -1.2309 -0.4723  2.2626
34343SOL     OW14753  10.622   5.498   4.137  0.0684  0.0417 -0.5241
34343SOL    HW114754  10.699   5.451   4.105 -0.8354 -1.5688 -0.4443
34343SOL    HW214755  10.649   5.534   4.221  0.9285  0.0434 -0.7952
34344SOL     OW14756   9.974  10.768   0.077  0.1710  0.0158 -0.1140
34344SOL    HW114757   9.892  10.729   0.107  0.8065 -0.7065  0.7312
34344SOL    HW214758   9.977  10.854   0.118 -0.6667  0.5071 -1.0262
34345SOL     OW14759   4.950   6.072  12.002 -0.1445  0.0663  0.0883
34345SOL    HW114760   4.875   6.056  12.058 -0.2702  0.2512 -0.0281
34345SOL    HW214761   4.956   6.167  11.995 -1.1567  0.0504 -1.5602
34346SOL     OW14762  10.355   9.802  10.762  0.1783  0.4162 -0.2506
34346SOL    HW114763  10.325   9.743  10.832  1.4737  0.3019  0.2260
34346SOL    HW214764  10.344   9.890  10.799 -0.6260  0.4359 -0.5134
34347SOL     OW14765   8.292  13.363  12.997 -0.4047  0.3548  0.1804
34347SOL    HW114766   8.330  13.277  12.979 -0.0417  0.4981  0.2566
34347SOL    HW214767   8.366  13.423  12.993 -0.3901  0.4577  1.6577
34348SOL     OW14768   9.139   5.818   7.815 -0.0192 -0.3763 -0.1177
34348SOL    HW114769   9.219   5.869   7.826  0.5930 -0.9088 -1.7911
34348SOL    HW214770   9.074   5.863   7.869  0.5774  1.9522 -1.1990
34349SOL     OW14771  10.235   2.689   5.265 -0.4209 -0.6539 -0.1461
34349SOL    HW114772  10.216   2.644   5.347  0.6266  0.5298  0.7942
34349SOL    HW214773  10.316   2.649   5.234  1.4439  1.4884  1.5364
34350SOL     OW14774   6.623   1.738   6.339 -0.3292 -0.1926  0.3340
34350SOL    HW114775   6.595   1.798   6.270 -0.1419  1.8245  1.8853
34350SOL    HW214776   6.712   1.713   6.315 -1.5350 -2.6580 -2.0647
34351SOL     OW14777   5.118  12.224   3.904  0.5771  0.2022  0.4284
34351SOL    HW114778   5.125  12.320   3.906  0.3817  0.2093  0.8948
34351SOL    HW214779   5.041  12.207   3.850  0.9583  0.2861 -0.1553
34352SOL     OW14780  13.683   0.527   6.694  0.0925 -0.7421 -0.2181
34352SOL    HW114781  13.635   0.503   6.615  1.4198 -0.0521 -1.2917
34352SOL    HW214782  13.687   0.447   6.746  0.2567 -1.5537 -1.4462
34353SOL     OW14783   4.329   1.899  10.497  0.5061 -0.1081 -0.1330
34353SOL    HW114784   4.246   1.908  10.449  0.3688  1.2608  0.3013
34353SOL    HW214785   4.304   1.870  10.584  0.5753 -0.5919 -0.2709
34354SOL     OW14786   0.705   0.828   9.882 -0.1059 -0.0198  0.3113
34354SOL    HW114787   0.771   0.898   9.883 -0.1671  0.1121 -1.4587
34354SOL    HW214788   0.731   0.770   9.953  0.6737  1.1364  1.0174
34355SOL     OW14789   4.629   4.591   8.986  0.0946 -0.5611 -0.3091
34355SOL    HW114790   4.716   4.553   8.974  0.2610 -1.2895  2.4423
34355SOL    HW214791   4.644   4.666   9.045 -1.1183 -0.6426  0.1256
34356SOL     OW14792   3.246  11.753  11.279 -0.3769 -0.4344 -0.2117
34356SOL    HW114793   3.174  11.787  11.332 -1.3533 -1.0174 -1.1133
34356SOL    HW214794   3.224  11.661  11.265  0.1667 -0.4418 -1.1084
34357SOL     OW14795   4.608   7.040  10.218  0.2453 -0.0293 -0.1950
34357SOL    HW114796   4.576   7.128  10.236 -1.0914 -0.8336  1.7988
34357SOL    HW214797   4.532   6.984  10.233  0.7822 -1.4768 -2.3953
34358SOL     OW14798   0.886   7.033   1.442  0.7525 -0.2030 -0.1604
34358SOL    HW114799   0.881   7.012   1.349  0.6136 -0.9842  0.0145
34358SOL    HW214800   0.800   7.068   1.464 -0.0486 -2.2999  0.1959
34359SOL     OW14801  10.762   0.893   9.986  0.3523  0.3307 -0.3420
34359SOL    HW114802  10.693   0.895  10.053 -0.0311  1.0722 -0.7340
34359SOL    HW214803  10.813   0.973  10.002  0.7032  0.1363 -0.4795
34360SOL     OW14804   1.457   8.991   2.564 -0.0794 -0.3662 -0.0309
34360SOL    HW114805   1.372   8.949   2.553 -0.0965 -0.5121  0.6132
34360SOL    HW214806   1.465   9.051   2.489 -1.7686  1.3865  1.0967
34361SOL     OW14807  10.485  11.703   7.805 -0.2202  0.0228 -0.1531
34361SOL    HW114808  10.552  11.757   7.763  0.7944 -0.2157  1.1004
34361SOL    HW214809  10.533  11.627   7.837 -1.0526 -0.0459  0.9749
34362SOL     OW14810   3.258   7.896  12.627 -0.6135  0.1422 -0.4765
34362SOL    HW114811   3.239   7.975  12.576 -0.0288 -0.1385 -1.1559
34362SOL    HW214812   3.229   7.916  12.715  1.0718  1.7652 -0.2304
34363SOL     OW14813   4.476   5.945   3.664 -0.3077  1.0778  0.3263
34363SOL    HW114814   4.450   5.868   3.714 -1.3502  0.6576 -0.8279
34363SOL    HW214815   4.564   5.924   3.633 -0.9234 -0.0624 -0.7323
34364SOL     OW14816   9.884   7.412   1.363 -0.0780  0.3276  0.0714
34364SOL    HW114817   9.847   7.495   1.333  0.5323  0.9650  1.0302
34364SOL    HW214818   9.968   7.405   1.318 -0.1710  0.1735 -0.0819
34365SOL     OW14819   2.837   7.433   6.363  0.2396  0.4195 -0.2389
34365SOL    HW114820   2.837   7.474   6.277  2.6943 -1.1684 -1.1297
34365SOL    HW214821   2.782   7.355   6.353  1.7949 -0.6472 -0.9446
34366SOL     OW14822   9.846   7.710  12.616 -0.3876 -0.2965  0.4338
34366SOL    HW114823   9.813   7.775  12.554  1.0063  0.8064  0.7925
34366SOL    HW214824   9.768   7.663  12.645 -1.1525 -0.4034 -1.6299
34367SOL     OW14825  11.805  12.815  11.416  0.0646 -0.1364  0.1234
34367SOL    HW114826  11.742  12.854  11.356 -0.4868 -0.0045  0.7784
34367SOL    HW214827  11.771  12.834  11.503  1.4095  0.6101  0.5148
34368SOL     OW14828   2.233   4.511   9.458  0.3936  0.1292  0.4007
34368SOL    HW114829   2.243   4.449   9.386 -0.4984  0.9659 -0.4755
34368SOL    HW214830   2.314   4.562   9.457 -0.3916  1.4712 -1.3636
34369SOL     OW14831   6.978  13.123  11.341  0.5164  0.3594  0.1984
34369SOL    HW114832   7.007  13.032  11.340  0.4073  0.3138 -1.7403
34369SOL    HW214833   6.898  13.122  11.393 -1.0541 -1.2275 -2.0415
34370SOL     OW14834  11.015   6.326   8.867 -0.0143 -0.6337  0.3041
34370SOL    HW114835  11.063   6.401   8.902 -1.0357 -0.3052  1.0487
34370SOL    HW214836  11.061   6.250   8.904 -0.6952 -0.3111  1.9312
34371SOL     OW14837   7.756   1.179   5.414 -0.0225  0.3201  0.1414
34371SOL    HW114838   7.813   1.108   5.443 -0.3758  0.2063  0.5700
34371SOL    HW214839   7.774   1.251   5.474  0.7265  0.7839 -0.6221
34372SOL     OW14840   3.223   0.626  12.153 -0.0819  0.0434  0.2625
34372SOL    HW114841   3.148   0.585  12.111 -0.5129 -1.1247  2.0836
34372SOL    HW214842   3.291   0.558  12.153  1.4790  1.4295 -2.4066
34373SOL     OW14843   4.443   4.849   3.549  0.0223 -0.2649 -0.5787
34373SOL    HW114844   4.441   4.759   3.582 -0.1379  0.5263  1.8260
34373SOL    HW214845   4.483   4.843   3.463  1.7315 -2.4491  0.2641
34374SOL     OW14846   3.568  12.378  10.155 -0.0474 -0.4648 -0.9640
34374SOL    HW114847   3.661  12.397  10.165 -0.1174 -0.7340  0.3821
34374SOL    HW214848   3.543  12.337  10.238 -1.2213 -0.9869 -1.5509
34375SOL     OW14849   3.693   2.351   1.670  0.3506 -0.5404  0.0911
34375SOL    HW114850   3.705   2.364   1.576 -2.3781  0.8927 -0.1579
34375SOL    HW214851   3.615   2.296   1.677  0.1972 -0.1718  1.5145
34376SOL     OW14852  13.298  12.310   4.239  0.5929  0.1055 -0.4902
34376SOL    HW114853  13.337  12.380   4.187 -0.5057  2.4848  1.6617
34376SOL    HW214854  13.232  12.271   4.181  1.4719  0.5569 -1.8504
34377SOL     OW14855   4.211   0.436   3.514  0.5448  0.0706  0.3654
34377SOL    HW114856   4.224   0.477   3.429  0.7449 -1.3107 -0.2853
34377SOL    HW214857   4.118   0.450   3.533  0.6535  1.0031  0.2684
34378SOL     OW14858   2.727  10.623   5.036 -0.0428 -0.4082  0.0650
34378SOL    HW114859   2.743  10.564   5.110  0.7739 -0.7326 -0.3580
34378SOL    HW214860   2.776  10.584   4.963 -0.8172 -0.0790 -0.6427
34379SOL     OW14861  13.147   9.339   8.565  0.0888  0.1974 -0.0166
34379SOL    HW114862  13.104   9.424   8.561  0.2450  0.2600 -0.4336
34379SOL    HW214863  13.239   9.359   8.584  0.2457  0.1607 -0.7154
34380SOL     OW14864   0.727  11.891  12.927  0.5194 -0.4198  0.0918
34380SOL    HW114865   0.673  11.950  12.876  2.0766  1.5556  0.5985
34380SOL    HW214866   0.802  11.872  12.871  1.1476 -0.0250  0.7750
34381SOL     OW14867  12.705   6.824   7.447  0.1537  0.1116  0.2613
34381SOL    HW114868  12.634   6.807   7.384 -0.0328 -1.7358  0.9049
34381SOL    HW214869  12.706   6.746   7.503 -0.2319  2.0060  3.1073
34382SOL     OW14870  10.739  12.061  12.475  0.4473 -0.2294 -0.2501
34382SOL    HW114871  10.789  12.122  12.420  0.2982 -1.0888 -1.3780
34382SOL    HW214872  10.767  11.974  12.447 -2.3289 -0.7967 -1.6316
34383SOL     OW14873   3.442   6.274   9.366  0.5806 -0.4423  0.0762
34383SOL    HW114874   3.509   6.270   9.298  0.5419  0.2111 -0.0084
34383SOL    HW214875   3.366   6.231   9.327 -0.0228  1.4677 -1.0040
34384SOL     OW14876  12.293  10.713   5.141  0.0205 -0.6218 -1.0284
34384SOL    HW114877  12.237  10.636   5.144  0.8931 -1.2496 -0.2580
34384SOL    HW214878  12.356  10.694   5.071  0.9064 -1.1117 -0.1250
34385SOL     OW14879   5.990   9.503  12.737  0.0965  0.5733  0.3508
34385SOL    HW114880   5.953   9.556  12.807 -1.1363  0.8692 -0.4894
34385SOL    HW214881   6.056   9.559  12.696 -1.3414  1.5783 -0.6637
34386SOL     OW14882   7.340   3.808  10.527  0.0721 -0.0988 -0.2421
34386SOL    HW114883   7.377   3.728  10.490 -0.5587 -0.6685  0.3273
34386SOL    HW214884   7.415   3.853  10.567  0.4461 -0.3479 -0.6495
34387SOL     OW14885   1.108   4.517  11.947  0.7453 -0.5108  0.1134
34387SOL    HW114886   1.056   4.551  12.019  1.4526 -0.4995  0.6268
34387SOL    HW214887   1.049   4.457  11.901  0.4174 -0.8342  0.9415
34388SOL     OW14888  12.031  13.211   2.501  0.3697 -0.2172 -0.9657
34388SOL    HW114889  12.127  13.206   2.496  0.3505 -0.2076 -1.3494
34388SOL    HW214890  12.011  13.189   2.593  0.8783  2.2547 -0.1957
34389SOL     OW14891   9.117   2.678   9.840  0.0192 -0.2255  0.6449
34389SOL    HW114892   9.080   2.663   9.926 -1.1353 -0.6669  0.0914
34389SOL    HW214893   9.077   2.760   9.811 -1.7547 -1.4341 -0.5519
34390SOL     OW14894   0.944   8.431  11.292 -0.2522  0.3659  0.2998
34390SOL    HW114895   0.859   8.399  11.321 -0.1133 -1.9407 -1.5530
34390SOL    HW214896   0.924   8.513  11.247 -1.6939 -0.7053 -1.1083
34391SOL     OW14897  13.187   8.892   6.448 -0.0790  0.0903  0.0227
34391SOL    HW114898  13.208   8.858   6.361  1.0510  0.0952  0.2715
34391SOL    HW214899  13.248   8.964   6.461 -2.9369  2.8777 -0.8157
34392SOL     OW14900   7.054   1.542   8.034  0.2888  0.1884  0.0464
34392SOL    HW114901   7.097   1.457   8.021  1.3993  0.7672 -0.0886
34392SOL    HW214902   7.062   1.559   8.128 -4.3558 -2.1660  1.1955
34393SOL     OW14903   4.119  11.401   8.969  0.3872  0.0123  0.5557
34393SOL    HW114904   4.042  11.424   9.020 -0.6743 -2.2161  0.0472
34393SOL    HW214905   4.100  11.433   8.881 -0.3713 -1.2944  0.2270
34394SOL     OW14906   9.492   1.249   9.230 -0.1318 -0.1595  0.1028
34394SOL    HW114907   9.526   1.295   9.307  1.3904 -1.4023  0.2144
34394SOL    HW214908   9.565   1.196   9.199 -1.7832 -2.4885 -0.0458
34395SOL     OW14909   4.909   2.121  13.126 -0.2620 -0.1944 -0.0997
34395SOL    HW114910   4.970   2.059  13.085  0.6479 -1.6517  3.1235
34395SOL    HW214911   4.841   2.066  13.165  0.0623  0.8115  2.0554
34396SOL     OW14912   5.154   6.184  12.225 -0.1049 -0.3609 -0.4014
34396SOL    HW114913   5.243   6.165  12.256 -0.9789 -1.1015  1.8030
34396SOL    HW214914   5.119   6.099  12.199 -0.8476 -0.3831  0.6525
34397SOL     OW14915  12.926   0.306  13.424  0.3546  0.6522  0.0396
34397SOL    HW114916  12.843   0.325  13.467  0.3089  1.4808 -0.3955
34397SOL    HW214917  12.960   0.229  13.471 -0.6938  0.2369  0.1469
34398SOL     OW14918   8.760   1.707   1.415  0.2062  0.6860  0.3949
34398SOL    HW114919   8.821   1.712   1.341 -1.4932  1.9890 -1.0306
34398SOL    HW214920   8.707   1.630   1.397 -0.5383  1.2881 -0.0561
34399SOL     OW14921   8.587  11.307  12.007 -0.0708 -0.3479  0.2050
34399SOL    HW114922   8.552  11.367  12.073 -0.6935 -0.4221 -0.0484
34399SOL    HW214923   8.550  11.221  12.030  1.2230 -0.7506  0.8703
34400SOL     OW14924   0.932  12.074  11.046 -0.1619  0.1162 -0.1378
34400SOL    HW114925   0.994  12.010  11.081  0.6132  1.0706  0.2776
34400SOL    HW214926   0.852  12.024  11.031 -0.5441 -0.4174  2.9488
34401SOL     OW14927  10.097  11.902   2.395 -0.3158  0.2769  0.1450
34401SOL    HW114928  10.144  11.865   2.470  1.1583  0.4579 -0.6696
34401SOL    HW214929  10.054  11.827   2.354 -3.2795  0.4647  2.5485
34402SOL     OW14930  12.062   3.799  12.137 -0.2352  0.2913 -0.0313
34402SOL    HW114931  12.039   3.746  12.213 -1.2129 -0.7827 -1.0345
34402SOL    HW214932  12.134   3.854  12.167  1.4803 -2.2386  0.7928
34403SOL     OW14933   3.396   0.505   3.040  0.4985  0.5274 -0.1426
34403SOL    HW114934   3.331   0.494   2.970  0.9147 -1.0326 -0.3340
34403SOL    HW214935   3.434   0.591   3.025 -0.3566  0.7620 -1.0384
34404SOL     OW14936   4.946  13.642   0.387  0.2597 -0.3107  0.3256
34404SOL    HW114937   4.896  13.626   0.308  3.0323 -1.7812 -1.2934
34404SOL    HW214938   4.946  13.737   0.397 -1.0815 -0.1773 -0.7608
34405SOL     OW14939   8.502  13.365   6.151 -0.3342 -0.0583 -0.0696
34405SOL    HW114940   8.508  13.275   6.119 -2.1447 -0.3128  0.1985
34405SOL    HW214941   8.410  13.376   6.173 -0.0994  1.8084  0.1031
34406SOL     OW14942   7.729   0.316   0.793 -0.6112  0.1524 -0.1217
34406SOL    HW114943   7.777   0.316   0.875 -1.2638  1.4509  0.2961
34406SOL    HW214944   7.764   0.391   0.744 -0.2578 -0.5798 -1.0268
34407SOL     OW14945   9.529   9.956  12.564  0.0193  0.3906  0.3608
34407SOL    HW114946   9.547   9.914  12.648 -0.4662  1.2025  0.8838
34407SOL    HW214947   9.606   9.938  12.511 -0.3571 -1.5748  0.3833
34408SOL     OW14948   0.892   3.299   9.192  0.0240  0.0288  0.6616
34408SOL    HW114949   0.840   3.336   9.264 -1.5441 -1.3327  0.2857
34408SOL    HW214950   0.827   3.262   9.132  1.4152 -2.4318  0.5327
34409SOL     OW14951  11.786   8.256   5.928  0.5972 -0.3422 -0.2307
34409SOL    HW114952  11.824   8.281   6.012 -1.4066  0.2300  0.5508
34409SOL    HW214953  11.801   8.161   5.923  1.1449 -0.3080  0.5482
34410SOL     OW14954   0.326   6.165   1.661 -0.0578 -0.5815  0.1386
34410SOL    HW114955   0.285   6.093   1.708  0.1248 -0.8555 -0.1212
34410SOL    HW214956   0.418   6.162   1.687 -0.0823 -0.3342  0.2618
34411SOL     OW14957   1.278  12.647   1.073 -0.2470  0.0133 -0.0997
34411SOL    HW114958   1.200  12.701   1.083 -0.2603  0.0358 -0.3370
34411SOL    HW214959   1.272  12.611   0.984 -0.2257 -0.3578  0.0448
34412SOL     OW14960  12.347  13.696   2.755 -0.6200  0.5887 -0.6624
34412SOL    HW114961  12.416  13.761   2.754 -1.0108  1.0235  0.0451
34412SOL    HW214962  12.290  13.721   2.682 -0.0290  0.2104 -1.2655
34413SOL     OW14963   8.139   6.608   8.078  0.5578  0.3292  0.2295
34413SOL    HW114964   8.085   6.565   8.012  2.5324  0.3196 -1.4829
34413SOL    HW214965   8.208   6.545   8.098  2.2541  1.7761 -0.7116
34414SOL     OW14966   5.384   0.855   4.370  0.8858  0.2833  0.1968
34414SOL    HW114967   5.348   0.855   4.459 -1.3781 -1.1860 -0.6368
34414SOL    HW214968   5.333   0.921   4.323 -1.1355 -2.0719 -1.1025
34415SOL     OW14969   6.905   2.443   7.958  0.7872  0.2586  0.1810
34415SOL    HW114970   6.859   2.510   7.908  0.1549  0.2292  0.7036
34415SOL    HW214971   6.875   2.455   8.048  0.3479 -0.9611  0.2279
34416SOL     OW14972  13.634   9.327   3.245  0.3591 -0.2472  1.1350
34416SOL    HW114973  13.723   9.293   3.239  1.0304  1.1681  2.3507
34416SOL    HW214974  13.626   9.387   3.172  0.5491 -0.0709  1.2585
34417SOL     OW14975   3.305   7.321   5.865 -0.2017 -0.1144 -0.1062
34417SOL    HW114976   3.248   7.387   5.824  0.4995  0.1466 -0.6777
34417SOL    HW214977   3.310   7.250   5.801 -0.2814 -0.3628  0.1578
34418SOL     OW14978   6.224   1.028   3.814 -0.7069 -0.4949  0.0534
34418SOL    HW114979   6.211   1.120   3.794  0.3237 -0.5227 -0.8028
34418SOL    HW214980   6.267   0.992   3.737  0.2944 -1.3476  0.9760
34419SOL     OW14981  10.973  11.603   7.604  0.1327  0.0356  0.3095
34419SOL    HW114982  10.962  11.697   7.614  1.2563  0.2524 -0.2459
34419SOL    HW214983  11.067  11.588   7.619 -0.0756 -1.0358  0.6872
34420SOL     OW14984   2.626   7.736   9.820 -0.1520 -0.0971 -0.0431
34420SOL    HW114985   2.670   7.653   9.839 -0.2423 -0.8194 -2.6453
34420SOL    HW214986   2.691   7.788   9.773 -1.0447  0.0873 -1.1033
34421SOL     OW14987   9.929   3.517   3.733 -0.4320 -0.5085 -0.4086
34421SOL    HW114988   9.944   3.467   3.814  0.9134  0.6476  0.1097
34421SOL    HW214989   9.922   3.608   3.763 -1.5820 -0.2415 -1.4463
34422SOL     OW14990   1.007   4.230   1.616 -0.7448 -0.0994 -0.6371
34422SOL    HW114991   0.918   4.200   1.597 -0.0665 -2.7309  0.0398
34422SOL    HW214992   1.003   4.325   1.604 -3.2963 -0.2937 -1.9151
34423SOL     OW14993  12.890   8.288   6.320 -0.0648 -0.1702 -0.2495
34423SOL    HW114994  12.799   8.317   6.317 -0.1353 -0.4228 -0.7731
34423SOL    HW214995  12.936   8.358   6.367 -0.8402 -0.9573  1.7488
34424SOL     OW14996   8.408   7.936  12.679  0.2803 -0.0078 -0.7423
34424SOL    HW114997   8.318   7.921  12.650 -0.5125  2.6800 -0.0057
34424SOL    HW214998   8.414   7.892  12.764 -0.6580  0.5450 -0.3776
34425SOL     OW14999   1.582  12.602  13.067  0.0567  0.2635 -0.1677
34425SOL    HW115000   1.492  12.627  13.046  0.4411  1.1856 -0.8194
34425SOL    HW215001   1.629  12.613  12.984  0.6093 -1.0351 -0.0514
34426SOL     OW15002  11.363   0.960   6.992 -0.1222  0.6257  0.2351
34426SOL    HW115003  11.346   1.019   6.918 -0.6531 -1.0388 -1.0185
34426SOL    HW215004  11.456   0.939   6.986 -0.2226  0.2746 -0.1495
34427SOL     OW15005   4.966   4.299  11.735  0.1614 -0.0227  0.1515
34427SOL    HW115006   4.945   4.384  11.696 -0.4547 -0.8665 -1.4849
34427SOL    HW215007   4.881   4.258  11.750  0.3328  0.5079  3.1271
34428SOL     OW15008  11.355   3.993   6.362 -0.6363 -0.6439  0.0954
34428SOL    HW115009  11.355   3.906   6.402 -0.0271 -0.4774  0.4796
34428SOL    HW215010  11.270   4.000   6.319 -1.3885 -0.7606  1.5088
34429SOL     OW15011   4.528  12.559  13.527 -0.6215 -0.0142  0.5560
34429SOL    HW115012   4.556  12.486  13.471 -0.3569 -0.9280  1.8383
34429SOL    HW215013   4.608  12.610  13.540 -0.7913  0.4800 -0.2856
34430SOL     OW15014   8.399  11.057   7.459 -0.5646  0.0700  0.5597
34430SOL    HW115015   8.486  11.086   7.487 -0.8879 -0.6583  2.5285
34430SOL    HW215016   8.351  11.045   7.541 -2.2763 -0.3120 -0.4557
34431SOL     OW15017   1.852  12.592   8.624 -0.5994 -0.1417  0.3522
34431SOL    HW115018   1.816  12.504   8.634  1.1164 -0.7947  1.3293
34431SOL    HW215019   1.911  12.602   8.699  3.6928 -0.4304 -2.6390
34432SOL     OW15020   7.089   4.567   1.710 -0.0718  0.4177 -0.0913
34432SOL    HW115021   7.077   4.661   1.704 -1.0533  0.3648  0.7889
34432SOL    HW215022   7.001   4.530   1.701  0.3303 -0.4361 -0.7103
34433SOL     OW15023   5.728   7.507   7.567 -0.2480  0.6428 -0.1586
34433SOL    HW115024   5.777   7.462   7.635 -1.1235 -0.1537 -0.0370
34433SOL    HW215025   5.684   7.437   7.519 -0.4567  1.2681 -0.9007
34434SOL     OW15026   8.611   8.430   5.726 -0.1664  0.0608  0.3019
34434SOL    HW115027   8.687   8.426   5.784  0.6456 -2.4749 -0.7899
34434SOL    HW215028   8.630   8.503   5.667  0.5797  0.5658  1.1387
34435SOL     OW15029   2.199   7.449  12.567  0.0153  0.6532  0.2750
34435SOL    HW115030   2.234   7.536  12.586  0.8313  0.7142 -1.3786
34435SOL    HW215031   2.261   7.389  12.610 -0.4291  0.8552  1.2323
34436SOL     OW15032   2.715   5.199   5.861  0.3518  0.3760 -0.0324
34436SOL    HW115033   2.629   5.191   5.820  0.7295 -0.3514 -0.7246
34436SOL    HW215034   2.733   5.293   5.861 -1.4044  0.7720  2.2281
34437SOL     OW15035   6.751   0.343   7.572 -0.3467 -0.2730  0.3603
34437SOL    HW115036   6.801   0.264   7.549  1.1030  0.4376  0.9028
34437SOL    HW215037   6.737   0.335   7.666  0.8462  0.6337  0.6473
34438SOL     OW15038  11.028   7.678   3.175  0.0653 -0.3475 -0.3242
34438SOL    HW115039  11.116   7.715   3.181 -0.3987  1.3563 -2.5462
34438SOL    HW215040  10.990   7.693   3.262  1.6190 -0.2317  0.3659
34439SOL     OW15041   8.248   1.716   9.661  0.2451 -0.4732 -0.2987
34439SOL    HW115042   8.323   1.657   9.654  0.1314 -0.8456  1.3016
34439SOL    HW215043   8.280   1.800   9.627  0.7599 -1.1285 -1.4836
34440SOL     OW15044   1.129   4.856   1.008 -0.2918  0.4124 -0.3441
34440SOL    HW115045   1.207   4.802   1.000  0.3009  1.3647 -1.2397
34440SOL    HW215046   1.151   4.919   1.076 -0.4600  0.3916 -0.2699
34441SOL     OW15047  13.235  12.442   2.317 -0.0113 -0.1651  0.3444
34441SOL    HW115048  13.141  12.427   2.301 -0.3043  1.7960 -0.0641
34441SOL    HW215049  13.256  12.517   2.261  1.6501 -0.1519  0.9535
34442SOL     OW15050   9.922  12.848   8.180 -0.3233  0.7623  0.2190
34442SOL    HW115051   9.913  12.905   8.104  0.5091  0.9937  0.2897
34442SOL    HW215052   9.832  12.820   8.199 -0.6103  1.1858 -0.4722
34443SOL     OW15053   4.634   4.327   2.090  0.2662 -0.0019 -0.3911
34443SOL    HW115054   4.596   4.267   2.154 -1.1210  0.7525 -0.4788
34443SOL    HW215055   4.560   4.363   2.043  1.0733  1.5523 -0.5455
34444SOL     OW15056   0.574   1.545   6.289  0.1051  0.0906  0.3462
34444SOL    HW115057   0.653   1.515   6.243 -0.8230  0.7353 -1.8465
34444SOL    HW215058   0.590   1.637   6.307 -1.5472  1.4435 -3.8615
34445SOL     OW15059   1.172   0.250   7.599 -0.6441  0.5730  0.0089
34445SOL    HW115060   1.187   0.245   7.693 -2.0331  1.8052  0.3249
34445SOL    HW215061   1.154   0.343   7.582  1.1801  0.6712 -1.7468
34446SOL     OW15062   9.032  12.055   2.456 -0.3090 -0.2244  0.3776
34446SOL    HW115063   9.002  12.146   2.459 -1.1512 -0.4291 -0.9060
34446SOL    HW215064   8.976  12.009   2.519  1.7784  0.5159  2.9671
34447SOL     OW15065   8.100  12.600   0.570 -0.0215 -0.1752  0.6242
34447SOL    HW115066   8.095  12.562   0.483 -1.7742  0.2883  0.4819
34447SOL    HW215067   8.163  12.545   0.617  0.1333 -1.0828 -0.5999
34448SOL     OW15068  11.095   9.060   8.848 -0.0055 -0.5011  0.1609
34448SOL    HW115069  11.005   9.071   8.879 -0.4274  0.7011 -1.3464
34448SOL    HW215070  11.089   9.077   8.753  1.8140 -0.2896  0.0618
34449SOL     OW15071  12.479   4.597  11.983 -0.8397 -0.4365  0.0177
34449SOL    HW115072  12.406   4.542  12.011 -1.0568  0.1481  0.6597
34449SOL    HW215073  12.551   4.573  12.042 -1.5200  1.3368  1.6898
34450SOL     OW15074  11.987   6.169  12.847  0.0773 -0.1036 -0.1917
34450SOL    HW115075  12.042   6.093  12.868  1.4542  0.0620 -2.7926
34450SOL    HW215076  11.976   6.165  12.752 -2.4858  1.2327 -0.0411
34451SOL     OW15077   9.397   2.781  10.929  0.1396 -0.1338  0.1547
34451SOL    HW115078   9.461   2.764  10.999  0.5031  0.1654 -0.1032
34451SOL    HW215079   9.394   2.699  10.880  0.1280 -0.2358  0.3229
34452SOL     OW15080   1.159   0.713  10.945 -0.3057 -0.2155 -0.0988
34452SOL    HW115081   1.140   0.711  10.851  0.9323  2.3978 -0.4905
34452SOL    HW215082   1.104   0.783  10.979 -0.9530 -1.3138  1.2552
34453SOL     OW15083  10.396  11.325  12.303 -0.0284  0.2274  0.3007
34453SOL    HW115084  10.434  11.246  12.265 -0.2437 -0.2195  0.9873
34453SOL    HW215085  10.364  11.297  12.389  0.0922  1.1159  0.6456
34454SOL     OW15086  11.530   3.227   6.227  0.7166 -0.1472  0.2791
34454SOL    HW115087  11.571   3.305   6.188 -1.3236  0.6672 -0.3837
34454SOL    HW215088  11.553   3.156   6.167  1.3211  0.2427  0.0378
34455SOL     OW15089   1.822   2.334   7.185 -0.2299  0.6752  0.2262
34455SOL    HW115090   1.796   2.274   7.255  0.5030  0.2783  0.1673
34455SOL    HW215091   1.740   2.353   7.138 -0.1060 -2.8821 -1.7821
34456SOL     OW15092   0.324   8.643   0.450  0.7714 -0.6936  0.6343
34456SOL    HW115093   0.234   8.612   0.459  1.0002 -1.4495  0.3952
34456SOL    HW215094   0.370   8.571   0.406  1.4141 -0.1786  0.4484
34457SOL     OW15095   6.750   9.475   7.584 -0.5889 -0.1516  0.0186
34457SOL    HW115096   6.690   9.504   7.515 -0.1744  1.8012  0.4093
34457SOL    HW215097   6.694   9.462   7.660 -0.7457 -0.0697 -0.0808
34458SOL     OW15098   5.588   4.646  10.827 -0.4858 -0.0756  0.5429
34458SOL    HW115099   5.539   4.683  10.753 -2.5027 -1.3226  1.1718
34458SOL    HW215100   5.650   4.714  10.851 -2.5949  2.0690  0.3028
34459SOL     OW15101   9.605   9.186   0.535 -0.3701 -0.3764  0.0576
34459SOL    HW115102   9.626   9.197   0.628  0.9821  2.8239 -0.4852
34459SOL    HW215103   9.670   9.123   0.503  1.3596  0.9775  0.7073
34460SOL     OW15104  13.058  11.011   6.440  0.2785 -0.5513  0.0158
34460SOL    HW115105  13.049  11.009   6.345  0.3828  1.4574 -0.0732
34460SOL    HW215106  13.119  10.941   6.460 -0.5843 -1.7242 -1.2701
34461SOL     OW15107   0.648   8.294   4.880  0.4949  0.0789 -0.3723
34461SOL    HW115108   0.672   8.384   4.855  0.4098  0.2092  0.0119
34461SOL    HW215109   0.690   8.239   4.814  0.0094  0.4384 -0.9940
34462SOL     OW15110  10.390   7.283  11.475  0.5160 -0.2734 -0.1938
34462SOL    HW115111  10.438   7.253  11.552  0.3233 -0.4384 -0.1367
34462SOL    HW215112  10.308   7.233  11.477  0.2609  0.1427 -0.1858
34463SOL     OW15113   2.875   4.387   1.401 -0.4238  0.1211  0.6990
34463SOL    HW115114   2.933   4.352   1.333  0.2937  0.8019  0.9370
34463SOL    HW215115   2.880   4.322   1.472  0.0835  0.1855  0.7277
34464SOL     OW15116   1.109  11.828   1.702  0.2908 -0.3547 -0.4915
34464SOL    HW115117   1.173  11.836   1.772  0.3015 -0.7637 -0.4575
34464SOL    HW215118   1.037  11.885   1.729  1.3542  1.5123 -1.3470
34465SOL     OW15119   4.085   7.658   4.756 -0.3312 -0.0584  0.0981
34465SOL    HW115120   4.068   7.646   4.662  0.1326 -0.7959  0.1018
34465SOL    HW215121   4.036   7.589   4.799  0.8904 -0.8602  0.2570
34466SOL     OW15122  11.557   1.457   4.986  0.4465  0.1835  0.6700
34466SOL    HW115123  11.546   1.526   5.051 -2.8523 -0.9196  1.4910
34466SOL    HW215124  11.509   1.489   4.909 -1.6854 -1.3091  1.2798
34467SOL     OW15125   7.438   2.708   8.912 -0.0117 -0.6377 -0.0319
34467SOL    HW115126   7.509   2.742   8.967  0.4908 -0.7884 -0.5726
34467SOL    HW215127   7.358   2.741   8.952  0.3090 -1.1844  1.0989
34468SOL     OW15128   6.834   0.948   3.420  0.4346  0.4173  0.3072
34468SOL    HW115129   6.770   0.968   3.351  1.4340 -0.6417 -0.9754
34468SOL    HW215130   6.914   0.993   3.394  0.5207  0.9414  1.3971
34469SOL     OW15131  10.604  10.835   8.164  0.1026  0.5390 -0.4440
34469SOL    HW115132  10.650  10.879   8.236  1.1683  0.3906 -1.0117
34469SOL    HW215133  10.511  10.849   8.183  0.3101 -0.2994  1.4764
34470SOL     OW15134  12.274   3.417  12.666  0.4324 -0.0376 -0.2877
34470SOL    HW115135  12.256   3.324  12.650  1.7379 -0.1356 -1.2847
34470SOL    HW215136  12.235   3.434  12.752  0.3445 -1.5520 -0.0014
34471SOL     OW15137   8.306   2.713   8.775  0.4317 -0.0678  0.3815
34471SOL    HW115138   8.290   2.712   8.680 -1.6382  1.1829  0.6539
34471SOL    HW215139   8.325   2.622   8.797 -0.7668 -0.6873 -1.0050
34472SOL     OW15140   8.162   5.935  12.734 -0.5689 -0.5532  0.4290
34472SOL    HW115141   8.094   6.002  12.746 -1.6747 -1.8542  1.7507
34472SOL    HW215142   8.213   5.938  12.815 -0.6955 -1.3613  0.5477
34473SOL     OW15143   5.354   8.801   9.343  0.3001  0.4216  0.8717
34473SOL    HW115144   5.367   8.881   9.394 -1.5272  1.5022 -0.2471
34473SOL    HW215145   5.412   8.811   9.268 -2.2799  2.4463 -1.0576
34474SOL     OW15146   3.282   3.478   5.796 -0.2191 -0.1454  0.3739
34474SOL    HW115147   3.337   3.496   5.872 -0.9846  0.4822  0.7997
34474SOL    HW215148   3.343   3.459   5.725  0.6192  2.2387  0.3771
34475SOL     OW15149  12.127   9.933  11.841 -0.3348 -0.3229 -0.1894
34475SOL    HW115150  12.118  10.024  11.814 -1.1897  0.0488  1.2151
34475SOL    HW215151  12.220   9.923  11.862 -0.4131  0.5573  0.6631
34476SOL     OW15152   2.566   2.257   9.045  0.6440  0.3834  0.2626
34476SOL    HW115153   2.496   2.250   8.979 -1.3895 -0.8759  2.4300
34476SOL    HW215154   2.578   2.352   9.056  0.1170  0.6210 -0.9380
34477SOL     OW15155  10.383   6.164   8.174  0.1018 -0.1158 -0.4205
34477SOL    HW115156  10.415   6.085   8.131 -1.5255 -1.6394  1.0080
34477SOL    HW215157  10.443   6.178   8.248  0.7201  0.3511 -0.9961
34478SOL     OW15158   7.927   1.041   4.496  0.1159 -0.0835 -0.3564
34478SOL    HW115159   7.847   1.060   4.544  0.9389  0.9005  0.6849
34478SOL    HW215160   7.995   1.087   4.544  1.1647 -0.0690 -1.7970
34479SOL     OW15161   2.230   7.697   8.026 -0.1103 -0.2673 -0.0603
34479SOL    HW115162   2.267   7.609   8.015  3.1857  1.0315 -0.4142
34479SOL    HW215163   2.240   7.738   7.940 -1.9887  0.3792 -0.0083
34480SOL     OW15164   9.097   7.047   8.944 -0.3725 -0.2378  0.4195
34480SOL    HW115165   9.109   7.096   9.024 -1.5244 -0.3092  0.6601
34480SOL    HW215166   9.066   7.111   8.880 -0.8209 -0.4319  0.4340
34481SOL     OW15167  13.688   0.539   0.875  0.6976  0.3573 -0.3469
34481SOL    HW115168  13.695   0.454   0.918 -1.1141 -0.4443 -1.4931
34481SOL    HW215169  13.648   0.597   0.940 -1.5862 -0.7160 -0.6773
34482SOL     OW15170   2.793   8.050  11.836 -0.5227  0.0199 -0.3898
34482SOL    HW115171   2.815   8.110  11.908 -1.3586 -0.2078  0.0728
34482SOL    HW215172   2.872   8.046  11.783  0.0565  0.3416  0.4225
34483SOL     OW15173   3.555   0.843  13.033  0.7651  0.6660  0.0450
34483SOL    HW115174   3.465   0.875  13.021  0.6577  0.6761  0.8183
34483SOL    HW215175   3.582   0.815  12.946  0.1975  1.1470 -0.2946
34484SOL     OW15176  12.533   7.888   0.028 -0.0207 -0.6510  0.0990
34484SOL    HW115177  12.450   7.912  -0.012  0.5311  0.1629 -0.5981
34484SOL    HW215178  12.546   7.953   0.097  1.1141  0.6878 -1.2997
34485SOL     OW15179   0.295  10.105   5.321  0.0590  0.0881 -0.2727
34485SOL    HW115180   0.372  10.148   5.283 -0.4104  0.6129 -0.6505
34485SOL    HW215181   0.289  10.141   5.409 -0.0283  0.4155 -0.4094
34486SOL     OW15182   1.901   9.945   2.935  0.4244 -0.0159 -0.1183
34486SOL    HW115183   1.950   9.933   2.854  1.3458  0.5948  0.3343
34486SOL    HW215184   1.952   9.898   3.001  0.2298  0.3548  0.3006
34487SOL     OW15185  10.009   8.728  10.630 -0.1622  0.0052 -0.5234
34487SOL    HW115186   9.948   8.793  10.595  0.5589 -0.0608 -1.9927
34487SOL    HW215187   9.956   8.649  10.643 -0.6223  0.2826 -0.6907
34488SOL     OW15188   8.339  12.335  13.602 -0.5464 -0.3486 -0.0641
34488SOL    HW115189   8.410  12.370  13.547  0.2309  0.3751  1.3376
34488SOL    HW215190   8.263  12.388  13.579  0.3169  1.5145  1.1299
34489SOL     OW15191   8.582   2.148   5.651 -0.1766 -0.3578  0.0507
34489SOL    HW115192   8.664   2.122   5.610  0.5245  0.8957  0.6000
34489SOL    HW215193   8.521   2.159   5.578  0.3189 -0.6825 -0.4176
34490SOL     OW15194   8.078   2.540  12.798 -0.4277  0.1231 -0.0426
34490SOL    HW115195   7.991   2.502  12.806 -0.1114 -0.2906  2.3035
34490SOL    HW215196   8.064   2.634  12.801 -1.0189  0.2744 -3.5049
34491SOL     OW15197   1.595  10.944   1.086  0.3037 -0.2668 -0.4535
34491SOL    HW115198   1.629  10.917   1.172 -0.2896 -1.6457 -0.6298
34491SOL    HW215199   1.619  11.036   1.079 -0.0761  0.0157  1.4218
34492SOL     OW15200  12.891  12.691   0.578 -0.3670 -0.6707  0.0835
34492SOL    HW115201  12.847  12.628   0.635  0.2868 -1.5016 -0.3013
34492SOL    HW215202  12.856  12.672   0.491 -0.0506 -0.6042 -0.0566
34493SOL     OW15203   2.597  10.508   2.599  0.4187 -0.6125  0.1057
34493SOL    HW115204   2.563  10.597   2.599 -0.0156 -0.7673 -0.8712
34493SOL    HW215205   2.692  10.518   2.588  0.2368 -0.2900 -1.4270
34494SOL     OW15206   7.138  10.632  12.218 -0.1373 -0.4187  0.2816
34494SOL    HW115207   7.097  10.597  12.139 -2.1970  0.2184  1.0039
34494SOL    HW215208   7.101  10.720  12.227 -0.8741 -0.9134  2.5748
34495SOL     OW15209   8.265  13.389   0.128  0.6644 -0.4182 -0.5302
34495SOL    HW115210   8.264  13.482   0.107  0.2701 -0.1325  0.6730
34495SOL    HW215211   8.276  13.345   0.043 -1.6391  0.6062 -1.4459
34496SOL     OW15212   7.275   8.071  12.982 -0.3370 -0.3420  0.2984
34496SOL    HW115213   7.279   7.979  12.955 -1.6737 -0.5900  0.8412
34496SOL    HW215214   7.187   8.099  12.957 -0.8387  0.0667  2.3101
34497SOL     OW15215   4.359   2.786   1.156 -0.3216  0.0274  0.3432
34497SOL    HW115216   4.368   2.844   1.080 -0.1351 -2.1025 -1.3324
34497SOL    HW215217   4.449   2.770   1.185 -0.3822  0.6803  0.9133
34498SOL     OW15218  10.556   0.446   7.029  0.1501 -0.1817 -0.0515
34498SOL    HW115219  10.520   0.380   7.087  1.4986  1.8860  3.4545
34498SOL    HW215220  10.533   0.530   7.069  0.5522  1.4837 -2.9570
34499SOL     OW15221  11.005   9.945   1.059  0.1571 -0.3277  0.0735
34499SOL    HW115222  11.003  10.037   1.086 -1.2811  0.0150 -1.0359
34499SOL    HW215223  11.086   9.910   1.096  1.2699  1.6681 -0.3460
34500SOL     OW15224   2.726  12.657  10.002  0.8433  0.2015 -0.7129
34500SOL    HW115225   2.633  12.668   9.983  0.1187 -2.3921  0.7852
34500SOL    HW215226   2.752  12.739  10.043 -1.0336  0.6558 -0.3505
34501SOL     OW15227   5.323   8.210   3.134 -0.1658  0.4529  0.1695
34501SOL    HW115228   5.405   8.165   3.116 -1.5548 -1.8630 -0.8397
34501SOL    HW215229   5.290   8.235   3.047 -0.4198  1.6286  0.5797
34502SOL     OW15230   5.008   7.434   3.489  0.0835  0.0891  0.4077
34502SOL    HW115231   5.077   7.372   3.466 -0.3073 -0.0622 -0.3831
34502SOL    HW215232   5.051   7.519   3.488  0.5345 -0.1158  1.1254
34503SOL     OW15233   7.437   3.652   6.325  0.4379 -0.2790  0.3145
34503SOL    HW115234   7.368   3.655   6.392  0.2824 -0.8568  0.1783
34503SOL    HW215235   7.428   3.566   6.284  0.0304  0.3505 -0.9775
34504SOL     OW15236  10.289   8.374   9.172 -0.8207 -0.3338  0.2845
34504SOL    HW115237  10.282   8.290   9.217  1.7415  0.2239  1.9279
34504SOL    HW215238  10.328   8.433   9.237 -2.5505  2.1759 -0.7940
34505SOL     OW15239   4.184   1.182   3.038  0.1350  0.0221 -0.1257
34505SOL    HW115240   4.104   1.154   2.994 -0.9330  0.3170  1.5560
34505SOL    HW215241   4.213   1.105   3.088  0.7564  0.0058 -0.4959
34506SOL     OW15242   4.028  12.558   3.036 -0.1424 -0.5734  0.3989
34506SOL    HW115243   4.022  12.530   3.127  2.3726 -2.8078  0.0125
34506SOL    HW215244   4.082  12.636   3.038 -2.8609  1.4709  0.9969
34507SOL     OW15245   2.688   6.230   5.443 -0.2128 -0.4619 -0.1441
34507SOL    HW115246   2.688   6.218   5.348 -1.7036 -1.9841 -0.0024
34507SOL    HW215247   2.780   6.245   5.465 -0.0358  1.6128 -1.9737
34508SOL     OW15248   7.422   8.953  11.631 -0.2570 -0.4981 -0.3845
34508SOL    HW115249   7.452   8.863  11.645 -2.5016 -1.5103 -1.6369
34508SOL    HW215250   7.381   8.977  11.714 -1.9204 -1.6160 -0.8480
34509SOL     OW15251   5.385  13.386   5.062  0.3720 -0.0876  0.4645
34509SOL    HW115252   5.300  13.428   5.072  1.1496  1.5595  0.6488
34509SOL    HW215253   5.380  13.339   4.979  0.0229  2.0078 -0.7861
34510SOL     OW15254   6.623   0.588   6.900  0.5071 -0.3538  0.2974
34510SOL    HW115255   6.692   0.654   6.895 -0.4699  0.6155 -1.0342
34510SOL    HW215256   6.633   0.549   6.987  1.8639  0.7014  0.6419
34511SOL     OW15257   2.113  11.785   2.283 -0.3536  0.4121  0.4055
34511SOL    HW115258   2.197  11.796   2.327 -0.0532 -0.1622 -0.0099
34511SOL    HW215259   2.049  11.781   2.354  0.3400 -2.6960  1.0106
34512SOL     OW15260  10.947   2.979   3.732  0.1687  0.0661 -0.3080
34512SOL    HW115261  10.897   2.945   3.806  1.0866 -0.4620  0.0973
34512SOL    HW215262  11.024   3.019   3.772 -0.5443  2.0371 -0.8349
34513SOL     OW15263   7.837   8.851   2.207  0.1586  0.4499  0.1974
34513SOL    HW115264   7.758   8.840   2.153  1.4232  0.8247 -1.8601
34513SOL    HW215265   7.829   8.939   2.243  0.0399  0.8556 -0.7734
34514SOL     OW15266   3.806   7.019   8.785 -0.4511  0.2242  0.1469
34514SOL    HW115267   3.899   7.031   8.802 -0.1720 -0.5896 -0.7365
34514SOL    HW215268   3.782   7.092   8.729  0.0443 -0.4607 -0.9796
34515SOL     OW15269   4.260  13.308   3.297  0.2128 -0.0042  0.1092
34515SOL    HW115270   4.224  13.356   3.372 -2.0404 -0.8856 -0.3275
34515SOL    HW215271   4.238  13.217   3.313 -0.1717 -0.2354 -1.5220
34516SOL     OW15272   8.818   7.968   1.936  0.2162 -0.7528 -0.5309
34516SOL    HW115273   8.826   7.981   2.030  0.1140 -1.0258 -0.4840
34516SOL    HW215274   8.741   8.019   1.911  2.9588  3.6125 -1.3153
34517SOL     OW15275   0.306  11.275   7.406  0.4771 -0.0843  0.1553
34517SOL    HW115276   0.390  11.232   7.392  0.5596  0.2556 -0.4298
34517SOL    HW215277   0.311  11.355   7.354 -0.4408 -0.3603 -0.3716
34518SOL     OW15278   4.772   3.817   0.950  0.6233 -0.1197 -0.2411
34518SOL    HW115279   4.827   3.841   1.025  2.1575 -3.0292 -0.3134
34518SOL    HW215280   4.831   3.823   0.875 -0.1886  0.2554 -0.8551
34519SOL     OW15281   4.117  10.412   0.846  0.0388 -0.3453 -0.4553
34519SOL    HW115282   4.023  10.428   0.857  0.2122  0.8706 -0.5740
34519SOL    HW215283   4.123  10.356   0.769 -0.6959 -2.1776  0.7492
34520SOL     OW15284   8.956   9.877  11.183  0.2958  0.0195 -0.2184
34520SOL    HW115285   9.049   9.901  11.185  0.3836 -0.3311  1.9711
34520SOL    HW215286   8.949   9.814  11.112  1.4146  1.1623 -1.4030
34521SOL     OW15287  10.750   4.207   2.837 -0.2116 -0.5949 -0.7911
34521SOL    HW115288  10.695   4.171   2.906 -0.9070 -0.0201 -1.0241
34521SOL    HW215289  10.823   4.248   2.883  0.6085 -2.3017 -0.5297
34522SOL     OW15290   8.220   9.958  10.391 -0.1166  1.1870 -0.0796
34522SOL    HW115291   8.243   9.901  10.317 -2.6336  1.7323 -1.4027
34522SOL    HW215292   8.258   9.915  10.467  0.6962 -0.5970 -1.4118
34523SOL     OW15293   5.462   1.860  11.690  0.6042 -0.1088 -0.2408
34523SOL    HW115294   5.521   1.799  11.733 -0.0785 -0.0773  0.7804
34523SOL    HW215295   5.375   1.836  11.722  0.3007  1.2977  0.0705
34524SOL     OW15296   6.959   4.938  11.174  0.3458  0.3128  0.0345
34524SOL    HW115297   6.935   4.886  11.251  0.2228 -0.6701 -0.6589
34524SOL    HW215298   6.978   5.025  11.210 -1.2841  0.3276  0.9739
34525SOL     OW15299  12.854   9.231   6.095  0.6100  0.6289 -0.4899
34525SOL    HW115300  12.816   9.146   6.073 -2.3628  1.4881  0.9137
34525SOL    HW215301  12.816   9.291   6.030 -1.9182  1.7779  1.8647
34526SOL     OW15302   6.846   9.876   7.206  0.2523 -0.1492 -0.0684
34526SOL    HW115303   6.881   9.789   7.186  0.9205 -0.2802  1.5036
34526SOL    HW215304   6.752   9.869   7.188  0.4376 -0.9363 -0.7722
34527SOL     OW15305   5.455   4.570   8.155  0.8188 -0.1294  0.4398
34527SOL    HW115306   5.365   4.559   8.122  0.8702 -0.4742  0.4050
34527SOL    HW215307   5.443   4.598   8.246  0.6775  0.4090  0.2614
34528SOL     OW15308   1.862  11.918   4.629  0.1472  0.7246 -0.6395
34528SOL    HW115309   1.947  11.902   4.588  0.4784  0.4294  0.1398
34528SOL    HW215310   1.881  11.979   4.700 -0.0352 -0.4822  0.4729
34529SOL     OW15311  12.733   5.669   0.994  0.2489 -0.2191  0.6629
34529SOL    HW115312  12.690   5.587   0.969  1.1979 -0.2343 -0.9951
34529SOL    HW215313  12.724   5.672   1.090 -1.3293 -1.3785  0.5920
34530SOL     OW15314   4.922   6.513  10.855 -0.1552  0.2211  0.6145
34530SOL    HW115315   4.875   6.591  10.823 -0.3063 -0.2211 -0.2605
34530SOL    HW215316   5.014   6.538  10.852 -0.2417  0.6002  0.9904
34531SOL     OW15317   8.808   7.552  11.883 -0.2865 -0.0193  0.0396
34531SOL    HW115318   8.900   7.552  11.909 -0.4808  1.7562  0.8988
34531SOL    HW215319   8.765   7.492  11.943  0.5877 -2.6008 -1.7415
34532SOL     OW15320   6.214   6.275  10.128 -0.0785  0.1549 -0.4745
34532SOL    HW115321   6.209   6.190  10.173 -1.5876 -0.5687 -1.9175
34532SOL    HW215322   6.123   6.303  10.121  0.4257  2.1722  0.4017
34533SOL     OW15323   2.756   5.611  10.307  0.1463  0.0885  0.3278
34533SOL    HW115324   2.789   5.539  10.360 -1.4572 -0.9092  0.0151
34533SOL    HW215325   2.712   5.669  10.370  0.5801  0.3101  0.4361
34534SOL     OW15326   7.764   1.719  10.398  0.2994  0.1389 -0.1544
34534SOL    HW115327   7.734   1.651  10.457  1.2626  0.0941  0.3086
34534SOL    HW215328   7.841   1.681  10.354  1.2618  1.1413  0.6082
34535SOL     OW15329  11.469  10.710  10.201  0.3953 -0.1584 -0.3315
34535SOL    HW115330  11.526  10.698  10.125  0.7338  0.2911 -0.1526
34535SOL    HW215331  11.424  10.793  10.185 -0.5878 -0.7377 -0.7019
34536SOL     OW15332   7.109   3.110  13.335 -0.2393  0.2492  0.0434
34536SOL    HW115333   7.099   3.084  13.426 -1.4105 -1.3814 -0.4915
34536SOL    HW215334   7.179   3.054  13.301  0.8100  1.4553  0.1122
34537SOL     OW15335   9.567   9.502   8.273  0.8213 -0.3422  0.1177
34537SOL    HW115336   9.481   9.464   8.256  0.7584 -0.9531  1.6879
34537SOL    HW215337   9.564   9.530   8.365  2.0268  0.3837 -0.0344
34538SOL     OW15338   8.078   1.772   1.214  0.2624 -0.4116 -0.2227
34538SOL    HW115339   7.990   1.738   1.232  0.5965 -1.8576 -1.1105
34538SOL    HW215340   8.133   1.731   1.281  0.4626 -0.6057 -0.5011
34539SOL     OW15341   5.065   5.584  10.738  0.2366 -0.1232 -0.6702
34539SOL    HW115342   5.050   5.519  10.807 -0.1833 -1.0729 -1.6194
34539SOL    HW215343   5.159   5.604  10.743  0.7475 -2.0853 -1.4021
34540SOL     OW15344  10.769   7.835   7.276 -0.3660 -0.1022 -0.0892
34540SOL    HW115345  10.717   7.808   7.200  2.2371  1.2016 -2.5493
34540SOL    HW215346  10.827   7.761   7.292 -0.0701  0.0974 -0.2213
34541SOL     OW15347   5.307   3.422   4.699  0.4472  0.1882 -0.0485
34541SOL    HW115348   5.269   3.340   4.666  1.1532  0.2301 -1.0034
34541SOL    HW215349   5.261   3.491   4.650 -1.0182  0.4717  1.6109
34542SOL     OW15350   0.135   7.945  10.551 -0.1711  0.2484  0.6607
34542SOL    HW115351   0.099   7.872  10.601  1.4528 -0.3066  1.0623
34542SOL    HW215352   0.225   7.919  10.530  0.2133  1.8267  0.1944
34543SOL     OW15353   4.151   6.295  11.937 -0.0784  0.1964  0.2646
34543SOL    HW115354   4.184   6.312  12.025  0.2152 -0.9453  0.3901
34543SOL    HW215355   4.228   6.271  11.886  0.1674  3.1845 -0.9856
34544SOL     OW15356  10.225   8.364   4.529 -0.3272  0.3977  0.1626
34544SOL    HW115357  10.209   8.418   4.606 -0.5166 -1.0335  1.1514
34544SOL    HW215358  10.151   8.384   4.471 -1.9818 -0.8841  1.7250
34545SOL     OW15359   0.447  13.552   6.869  0.0739  0.1637 -0.0700
34545SOL    HW115360   0.378  13.490   6.845 -0.8614  1.4523 -0.8367
34545SOL    HW215361   0.425  13.580   6.958  0.7469 -0.9005  0.4502
34546SOL     OW15362  10.601   3.047   5.952 -0.4057 -0.7479  0.2446
34546SOL    HW115363  10.519   3.085   5.919 -0.0869  1.5346  1.9116
34546SOL    HW215364  10.625   2.982   5.885 -3.2171 -1.0569 -0.6079
34547SOL     OW15365   2.079  10.860   7.677 -0.1229 -0.2669 -0.0855
34547SOL    HW115366   2.173  10.841   7.673  0.0845  0.6829  0.0954
34547SOL    HW215367   2.059  10.865   7.770 -0.4245 -0.7540 -0.1181
34548SOL     OW15368   2.264  13.021   5.425  0.5145  0.2264 -0.4568
34548SOL    HW115369   2.183  13.070   5.417 -0.4142 -1.0617  0.5302
34548SOL    HW215370   2.247  12.958   5.496  1.8709 -1.0367 -1.1962
34549SOL     OW15371  12.379  10.003   2.555  0.3419 -0.2334 -0.2069
34549SOL    HW115372  12.314  10.003   2.625  0.5807  0.1928  0.0184
34549SOL    HW215373  12.407  10.094   2.548  2.2411 -0.6730  0.9572
34550SOL     OW15374   6.360   8.261   9.782 -0.0359  0.2038  0.3451
34550SOL    HW115375   6.377   8.320   9.855  0.5953 -0.7353  0.9876
34550SOL    HW215376   6.295   8.306   9.728  0.3858  1.4339  0.8486
34551SOL     OW15377   5.178  11.459   4.095  0.3666  0.4043  0.1401
34551SOL    HW115378   5.264  11.432   4.065  1.3807 -0.0012  3.0688
34551SOL    HW215379   5.183  11.555   4.101  1.5625  0.2720  2.5669
34552SOL     OW15380   0.444   1.405   8.636 -0.0020  0.4692  0.0964
34552SOL    HW115381   0.492   1.399   8.554  0.2661 -0.3521  0.3065
34552SOL    HW215382   0.475   1.330   8.688 -2.7152 -1.1500 -0.4155
34553SOL     OW15383   6.766  13.492   2.488 -0.4388  0.3089  0.3823
34553SOL    HW115384   6.819  13.427   2.443 -0.4424 -2.1316  3.5613
34553SOL    HW215385   6.829  13.543   2.539 -0.8586 -1.1157  2.4115
34554SOL     OW15386  12.454   7.984  10.756 -0.4190 -0.1527 -0.0902
34554SOL    HW115387  12.411   7.901  10.741 -0.7867 -0.3489  1.7876
34554SOL    HW215388  12.486   8.011  10.670 -1.8069 -1.3683 -1.0258
34555SOL     OW15389  11.625  12.525   8.473  0.2616 -0.1986 -0.6860
34555SOL    HW115390  11.671  12.441   8.480  1.2990  0.3709 -0.4688
34555SOL    HW215391  11.605  12.548   8.564  1.7363  0.7157 -0.5600
34556SOL     OW15392  11.837   6.527  10.081  0.6243 -0.1639  0.1529
34556SOL    HW115393  11.787   6.493  10.007  1.6672 -0.6380 -0.3567
34556SOL    HW215394  11.829   6.622  10.073 -0.7468 -0.2291  0.4894
34557SOL     OW15395  11.695  11.330   7.290 -0.1197 -0.2424 -0.0489
34557SOL    HW115396  11.603  11.347   7.271 -0.0774 -0.6489 -0.6715
34557SOL    HW215397  11.723  11.404   7.344 -0.9145 -0.3372  0.4992
34558SOL     OW15398  12.670  10.414  10.340  0.8216  0.2660  0.2528
34558SOL    HW115399  12.760  10.381  10.345  0.0667 -1.8340  1.3248
34558SOL    HW215400  12.674  10.502  10.376  2.4236  0.1673  0.3800
34559SOL     OW15401   5.617   4.645   6.763  0.0762 -0.2955  0.1507
34559SOL    HW115402   5.567   4.726   6.767 -0.6909 -0.6972 -0.8225
34559SOL    HW215403   5.611   4.617   6.671  0.3981 -1.3980  0.4479
34560SOL     OW15404   1.203  11.474   5.860 -0.2293 -0.3501 -0.4190
34560SOL    HW115405   1.298  11.474   5.869 -0.3433 -1.1052  1.0619
34560SOL    HW215406   1.171  11.518   5.938 -1.1239 -0.8312 -0.4937
34561SOL     OW15407  13.553   2.586   2.913  0.7214  0.2474 -0.1024
34561SOL    HW115408  13.545   2.512   2.853 -0.8602  0.1514  0.1917
34561SOL    HW215409  13.549   2.664   2.857 -0.8062  0.1593 -0.1351
34562SOL     OW15410  13.356   7.889   2.456  0.4675  0.4365 -0.1546
34562SOL    HW115411  13.328   7.809   2.412 -1.0605  0.3560  0.8836
34562SOL    HW215412  13.276   7.941   2.463  0.5242  0.2984  2.7419
34563SOL     OW15413   5.119  10.079   3.568  0.0586 -0.2265 -0.0831
34563SOL    HW115414   5.190  10.016   3.557  0.1756 -0.2679  0.8422
34563SOL    HW215415   5.092  10.069   3.660 -0.9575 -0.0258 -0.3458
34564SOL     OW15416   1.935   6.655   3.426  0.9830  0.4312 -0.6069
34564SOL    HW115417   2.001   6.591   3.400  1.3052  0.5572 -0.0996
34564SOL    HW215418   1.911   6.699   3.344  0.6473 -0.4311 -0.9899
34565SOL     OW15419   2.805   3.494   9.776  0.2017 -0.9596 -0.2953
34565SOL    HW115420   2.894   3.528   9.769  0.2447 -1.1946 -0.9574
34565SOL    HW215421   2.754   3.568   9.809  0.2638 -0.1692 -1.9041
34566SOL     OW15422  11.138   5.069  10.802 -0.3349  0.2698  0.5888
34566SOL    HW115423  11.074   5.085  10.734 -0.2297  0.2883  0.4945
34566SOL    HW215424  11.191   4.997  10.769  1.3657  1.9341 -0.5102
34567SOL     OW15425  10.128  10.828   7.585 -0.2457  0.3186  0.0782
34567SOL    HW115426  10.154  10.909   7.541 -0.3210  0.0731 -0.4338
34567SOL    HW215427  10.033  10.837   7.597  0.0543  1.2653  2.0492
34568SOL     OW15428   7.492   4.458   7.855  0.5689 -0.4894 -0.4231
34568SOL    HW115429   7.545   4.382   7.831  0.1844 -1.6267  2.0137
34568SOL    HW215430   7.539   4.498   7.928  0.5313  1.4302 -1.3724
34569SOL     OW15431   9.807   8.323   8.400  0.0100  0.0252  0.0268
34569SOL    HW115432   9.852   8.265   8.338 -0.3544  1.1547 -1.3305
34569SOL    HW215433   9.828   8.411   8.370 -1.3883  0.5899  0.6384
34570SOL     OW15434  10.990   6.326   9.891  0.1488  0.3157 -0.2196
34570SOL    HW115435  11.064   6.376   9.926 -0.3269  0.9733 -0.1324
34570SOL    HW215436  11.010   6.235   9.913  0.2318  0.6310  1.0814
34571SOL     OW15437   6.521   1.592   7.627  0.0512  0.2171 -0.1426
34571SOL    HW115438   6.582   1.665   7.635 -2.3701  2.5139 -0.8148
34571SOL    HW215439   6.478   1.588   7.712  0.4399 -0.7155  0.0168
34572SOL     OW15440   8.496   4.896   0.265 -0.5201 -0.5006 -0.1002
34572SOL    HW115441   8.559   4.916   0.334 -0.1951  1.5303 -0.9019
34572SOL    HW215442   8.496   4.801   0.258 -0.0272 -0.7171  2.1705
34573SOL     OW15443   8.720  12.956   1.921 -0.5068  0.2095  0.0418
34573SOL    HW115444   8.776  12.879   1.916  1.0069  0.6547  4.8462
34573SOL    HW215445   8.634  12.922   1.945 -0.9921 -0.1235 -1.9873
34574SOL     OW15446   8.753   4.485   5.865  0.0035  0.1246 -0.2511
34574SOL    HW115447   8.804   4.405   5.852  0.3335  0.5483 -1.7288
34574SOL    HW215448   8.665   4.455   5.887  0.8965 -0.6345  2.8492
34575SOL     OW15449  12.600   0.907   2.136 -0.2149 -0.6018 -0.4848
34575SOL    HW115450  12.532   0.841   2.127 -2.0891  1.1639 -0.1376
34575SOL    HW215451  12.575   0.976   2.074  2.0906 -0.4866 -1.4043
34576SOL     OW15452   4.701   5.586   3.677  0.5842 -0.7295  0.0597
34576SOL    HW115453   4.610   5.614   3.684  0.8185  0.3938 -0.9768
34576SOL    HW215454   4.710   5.515   3.741 -0.9902 -0.8164  0.2172
34577SOL     OW15455   1.844   1.632   4.227  1.0085  0.2399 -0.0562
34577SOL    HW115456   1.751   1.654   4.234  0.3360 -2.4780  0.8754
34577SOL    HW215457   1.880   1.699   4.168 -1.6642  0.9875 -1.0002
34578SOL     OW15458   7.129  11.745  12.533  0.1489 -0.2923 -0.3245
34578SOL    HW115459   7.054  11.771  12.586 -0.6368 -1.6691 -0.7237
34578SOL    HW215460   7.202  11.797  12.567 -1.0456  1.3642 -0.1919
34579SOL     OW15461   9.537  10.647   1.830  0.2039  0.3799  0.1230
34579SOL    HW115462   9.488  10.647   1.912 -1.9994  0.2415 -1.1039
34579SOL    HW215463   9.495  10.715   1.777  1.2440  0.1269 -1.0784
34580SOL     OW15464   3.401  13.154   9.680  0.3296  0.1047  0.1072
34580SOL    HW115465   3.341  13.209   9.630  0.9784  1.5225  0.8369
34580SOL    HW215466   3.385  13.066   9.647 -2.0846  0.4324  0.1910
34581SOL     OW15467  12.024   2.263   1.271  0.2413  0.8897 -0.5200
34581SOL    HW115468  12.065   2.258   1.357 -2.9326 -1.7782  1.1037
34581SOL    HW215469  11.970   2.342   1.274 -0.6633  0.2536  0.4038
34582SOL     OW15470   0.898  12.890   0.654  0.0302 -0.2155 -0.0902
34582SOL    HW115471   0.964  12.925   0.715 -0.9362  2.3278 -0.3933
34582SOL    HW215472   0.939  12.898   0.568  0.7798 -2.3561 -0.0065
34583SOL     OW15473   7.280  12.315   4.867  0.0172  0.7490  0.3950
34583SOL    HW115474   7.184  12.309   4.861  0.0304 -0.1887  0.8340
34583SOL    HW215475   7.297  12.405   4.895 -0.7641  0.8071  0.7175
34584SOL     OW15476  11.256   3.740   8.631  0.8782 -0.3826  0.3737
34584SOL    HW115477  11.321   3.763   8.564 -0.2174 -0.3349 -0.7100
34584SOL    HW215478  11.305   3.738   8.713  1.7788  2.1241 -0.0163
34585SOL     OW15479   2.422   7.652  12.374  0.1833  0.9689  0.1275
34585SOL    HW115480   2.473   7.622  12.449 -0.0697  0.7401  0.2129
34585SOL    HW215481   2.439   7.587  12.306 -1.0027  0.1437  0.5704
34586SOL     OW15482   5.397  11.661   7.614  0.0936 -0.1904  0.4012
34586SOL    HW115483   5.385  11.676   7.708 -0.6173 -0.0481  0.2957
34586SOL    HW215484   5.430  11.571   7.608 -1.1024 -0.6738  0.7265
34587SOL     OW15485   3.622   3.260   7.181 -0.1849  0.1138  0.0658
34587SOL    HW115486   3.584   3.179   7.216  1.9987 -1.5366 -1.0959
34587SOL    HW215487   3.570   3.278   7.102 -0.0913 -0.7425 -0.2083
34588SOL     OW15488  11.369   2.318   3.259 -0.1489 -0.3021 -0.1977
34588SOL    HW115489  11.277   2.317   3.283  0.0700  0.8137  0.7287
34588SOL    HW215490  11.371   2.358   3.172 -0.4328  0.7993  0.2951
34589SOL     OW15491  12.604   3.014  12.497  0.1076 -0.0840  0.0375
34589SOL    HW115492  12.620   2.919  12.497 -1.3587 -0.3671  0.7464
34589SOL    HW215493  12.612   3.039  12.405  0.4164 -0.9104 -0.1754
34590SOL     OW15494  10.928   5.725   7.100 -0.3286 -0.4549 -0.3172
34590SOL    HW115495  10.852   5.774   7.132 -1.0248 -1.6820 -0.0213
34590SOL    HW215496  10.909   5.709   7.008  0.7888  1.4191 -0.9369
34591SOL     OW15497   7.537   0.642   4.848 -0.4111  0.1676 -0.1206
34591SOL    HW115498   7.516   0.732   4.824 -0.9436  0.0528 -0.1040
34591SOL    HW215499   7.590   0.610   4.775 -1.4906  0.0216 -0.8612
34592SOL     OW15500  11.637   1.147   8.701 -0.2586  0.1666 -0.6236
34592SOL    HW115501  11.548   1.116   8.717  0.4900 -0.3796  3.3002
34592SOL    HW215502  11.644   1.229   8.751  1.5317  0.0273 -0.5747
34593SOL     OW15503   8.273  12.917   2.406 -0.5334 -0.0063 -0.0344
34593SOL    HW115504   8.291  12.827   2.432 -1.2322 -0.4423 -0.9914
34593SOL    HW215505   8.326  12.971   2.465  1.1368 -1.0915 -0.4999
34594SOL     OW15506  13.490   0.436   9.127  0.1227 -0.5542  0.3032
34594SOL    HW115507  13.422   0.415   9.191  0.4055  0.6172  1.0114
34594SOL    HW215508  13.486   0.532   9.118 -0.4466 -0.7127 -2.0345
34595SOL     OW15509   5.857  13.094   0.135 -0.0603  0.5425 -0.0750
34595SOL    HW115510   5.939  13.044   0.127 -0.5412 -0.0602 -1.6187
34595SOL    HW215511   5.846  13.107   0.229  1.6404  0.3513  0.1815
34596SOL     OW15512   3.071  10.202   8.593 -0.7076  0.7445  0.2705
34596SOL    HW115513   2.996  10.183   8.538 -0.4573 -0.1322  0.2238
34596SOL    HW215514   3.143  10.216   8.532 -0.8738  1.8161  0.3063
34597SOL     OW15515   2.934  13.276  12.221 -0.0589  0.4167 -0.2975
34597SOL    HW115516   2.921  13.294  12.314  0.0975  2.9213 -0.6915
34597SOL    HW215517   3.029  13.277  12.210 -0.1045  1.9877 -0.7579
34598SOL     OW15518   6.255   0.607   2.054  0.2616  0.1969  0.2909
34598SOL    HW115519   6.247   0.517   2.021 -0.3909 -0.3104  1.7506
34598SOL    HW215520   6.286   0.598   2.144  3.7103  1.6233 -0.6079
34599SOL     OW15521   9.154   4.625   6.463  0.2370  0.2816 -0.4181
34599SOL    HW115522   9.107   4.554   6.419  0.8871 -0.9344  0.7844
34599SOL    HW215523   9.101   4.703   6.446 -1.6864 -0.8522  0.0592
34600SOL     OW15524   1.502   5.646   3.815 -0.0318  0.3800  0.5036
34600SOL    HW115525   1.464   5.662   3.902  0.5662 -1.4687  1.1292
34600SOL    HW215526   1.429   5.613   3.763 -0.5306  2.0217  0.0849
34601SOL     OW15527  11.540   2.624   6.247 -0.1479 -0.4853  0.3838
34601SOL    HW115528  11.451   2.629   6.282  0.2481  3.1617  1.3212
34601SOL    HW215529  11.586   2.565   6.307 -1.8031 -2.1211  0.1051
34602SOL     OW15530  12.606  10.633   5.843  0.3529 -0.4436 -0.6650
34602SOL    HW115531  12.604  10.650   5.748  0.9005  0.1791 -0.5714
34602SOL    HW215532  12.533  10.573   5.858  0.7868 -1.2146 -1.6041
34603SOL     OW15533  12.719   9.932   2.259 -0.3391  0.6179 -0.1165
34603SOL    HW115534  12.759   9.987   2.327 -0.6394  1.4860 -0.6418
34603SOL    HW215535  12.794   9.895   2.212 -0.1291  0.1627  0.5522
34604SOL     OW15536  12.880   0.416  11.753  0.2573 -0.2682 -0.0550
34604SOL    HW115537  12.807   0.355  11.761 -1.0074  1.4605  2.9787
34604SOL    HW215538  12.845   0.489  11.702  1.1577 -1.0948 -1.9525
34605SOL     OW15539   3.310   8.739  10.894  0.1673 -0.0746 -0.4997
34605SOL    HW115540   3.327   8.733  10.800  0.6845  0.4216 -0.4473
34605SOL    HW215541   3.381   8.689  10.935  0.0326 -0.1591 -0.3689
34606SOL     OW15542   9.624   5.741   2.539 -0.7380 -0.1938  0.6984
34606SOL    HW115543   9.672   5.669   2.498  0.3878  0.4590  0.8357
34606SOL    HW215544   9.594   5.705   2.623  0.0851 -0.4129  0.9094
34607SOL     OW15545   1.748   0.327   8.695 -0.4267 -0.2818  0.1332
34607SOL    HW115546   1.791   0.276   8.627  0.5556 -0.0919  0.5892
34607SOL    HW215547   1.655   0.319   8.677 -0.1738  0.9926 -2.1522
34608SOL     OW15548   4.337   9.368   1.725  0.2777  0.3856  0.3223
34608SOL    HW115549   4.400   9.415   1.670 -1.1510  0.6144 -1.1882
34608SOL    HW215550   4.326   9.424   1.802  0.4942  1.2805 -0.2837
34609SOL     OW15551  11.914   7.886   6.311 -0.1440  0.1216  0.2445
34609SOL    HW115552  11.879   7.976   6.309 -0.2304  0.2033  2.8192
34609SOL    HW215553  11.852   7.838   6.365  1.9171 -0.5336  2.1641
34610SOL     OW15554  11.785  10.726   5.430  0.4617 -0.7217  0.0595
34610SOL    HW115555  11.862  10.674   5.408  0.2245 -0.4817 -1.4107
34610SOL    HW215556  11.716  10.693   5.372  0.0844  0.6255 -0.2951
34611SOL     OW15557   0.826  12.939   4.344 -0.5053  0.1703  0.1760
34611SOL    HW115558   0.890  12.945   4.414 -2.3155 -0.3691  1.9671
34611SOL    HW215559   0.762  13.007   4.365 -0.5180  0.7868 -1.6395
34612SOL     OW15560   1.571   6.453  11.322  0.4087  0.0656 -0.5821
34612SOL    HW115561   1.624   6.524  11.358 -1.8937  0.6068  2.1175
34612SOL    HW215562   1.491   6.454  11.374 -1.9083 -1.3072 -3.7386
34613SOL     OW15563   4.614  11.130   9.636  0.2454  0.2670 -0.2676
34613SOL    HW115564   4.536  11.112   9.689 -0.3500  0.0218 -1.1943
34613SOL    HW215565   4.680  11.069   9.669 -0.4953 -0.7426 -0.6293
34614SOL     OW15566  12.952   3.266   6.396 -0.1376  0.1648 -0.7175
34614SOL    HW115567  13.008   3.306   6.462  0.0078  1.1769 -1.4384
34614SOL    HW215568  12.888   3.333   6.375 -0.3940 -0.2708 -1.3613
34615SOL     OW15569   7.765  13.278   1.814 -0.1573  0.2054  0.0246
34615SOL    HW115570   7.772  13.311   1.904 -1.6970  1.4117 -0.2702
34615SOL    HW215571   7.812  13.342   1.761 -0.3461  0.1643 -0.1918
34616SOL     OW15572   4.163   7.800   6.401 -0.3549 -0.3908  0.2960
34616SOL    HW115573   4.186   7.721   6.451 -0.7539 -0.5486  0.2312
34616SOL    HW215574   4.068   7.806   6.408 -0.2852  0.3446  0.6861
34617SOL     OW15575  11.999   4.527   6.695 -0.2716  0.7027 -0.3400
34617SOL    HW115576  11.949   4.601   6.660  0.3753  1.1463 -0.3242
34617SOL    HW215577  12.090   4.555   6.692 -0.0380 -0.0044 -0.1135
34618SOL     OW15578   8.431  11.057   1.614  0.2267  0.2682  0.1202
34618SOL    HW115579   8.418  11.052   1.519  2.8356 -0.6837 -0.2693
34618SOL    HW215580   8.458  11.148   1.630 -0.2951  0.4529 -0.0094
34619SOL     OW15581   1.689  13.411   5.913  0.0978 -0.6096 -0.2303
34619SOL    HW115582   1.775  13.388   5.949  0.3841  0.1468 -0.3994
34619SOL    HW215583   1.641  13.449   5.987  0.8797  1.4527 -0.7043
34620SOL     OW15584   2.801  10.002   4.870  0.0257  0.5981  0.2507
34620SOL    HW115585   2.776  10.024   4.960 -0.9647  2.3067 -0.3823
34620SOL    HW215586   2.786   9.908   4.863  0.3194  0.4000  1.9189
34621SOL     OW15587   5.942  11.315  13.474 -0.3204  0.4096  0.1701
34621SOL    HW115588   5.944  11.338  13.567  0.1577  0.4313  0.1559
34621SOL    HW215589   5.850  11.296  13.456 -0.0854 -2.2528  1.2948
34622SOL     OW15590   4.780  12.232   9.320 -0.5181 -0.1323 -0.5156
34622SOL    HW115591   4.840  12.212   9.248 -0.0655 -0.1531 -0.1363
34622SOL    HW215592   4.759  12.146   9.358 -0.0157 -0.0453 -0.0355
34623SOL     OW15593  10.436   1.575   3.562 -0.3835  0.0880  0.9611
34623SOL    HW115594  10.345   1.602   3.559 -0.2790  0.3672 -0.1751
34623SOL    HW215595  10.432   1.480   3.578 -0.9328 -0.1242 -0.2839
34624SOL     OW15596  10.794   4.966  11.082 -0.0861  0.6929  0.0703
34624SOL    HW115597  10.712   5.015  11.079 -0.2005  0.5332  0.5758
34624SOL    HW215598  10.770   4.878  11.053 -0.0618  0.6860  0.0712
34625SOL     OW15599   5.503   6.980  13.663 -0.4005 -0.0883 -0.0671
34625SOL    HW115600   5.459   6.966  13.579 -0.1006 -0.6809 -0.1306
34625SOL    HW215601   5.484   7.071  13.685 -1.9117 -0.4100  0.0598
34626SOL     OW15602   7.211   2.172   2.805 -0.1065 -0.1771  0.2445
34626SOL    HW115603   7.301   2.160   2.834 -0.3085 -0.5476  0.7319
34626SOL    HW215604   7.202   2.267   2.794  0.4984 -0.1835 -0.3309
34627SOL     OW15605   7.288  12.544  11.279 -0.0751  0.1950  0.7511
34627SOL    HW115606   7.311  12.525  11.370  0.6329  1.0415  0.7707
34627SOL    HW215607   7.367  12.585  11.244 -0.3069 -0.2209 -0.2799
34628SOL     OW15608   5.012   6.029   3.109  0.3982 -0.5447 -0.5091
34628SOL    HW115609   5.071   5.967   3.151  2.2455  0.9031 -0.8526
34628SOL    HW215610   4.982   6.086   3.180  0.0418 -0.7747 -0.4706
34629SOL     OW15611   3.238   4.482  10.235 -0.1600 -0.0268  0.3910
34629SOL    HW115612   3.172   4.494  10.304  1.8665 -0.0249  2.4418
34629SOL    HW215613   3.295   4.558  10.243  1.8032 -1.4445  0.7179
34630SOL     OW15614   8.353   1.725   0.210  0.3156 -0.1594  0.6278
34630SOL    HW115615   8.361   1.650   0.151  0.1364  0.6588 -0.4692
34630SOL    HW215616   8.442   1.758   0.219  0.4633 -0.7582  1.4791
34631SOL     OW15617   5.678   5.140   7.789  0.4179  0.7653  0.1525
34631SOL    HW115618   5.737   5.100   7.853  1.5044  1.7468 -0.2087
34631SOL    HW215619   5.669   5.231   7.818  1.3311  1.3634 -1.3407
34632SOL     OW15620   5.506   0.747   2.289  0.1658  0.2072 -0.1809
34632SOL    HW115621   5.586   0.789   2.257  0.5723 -0.3024  0.1288
34632SOL    HW215622   5.462   0.715   2.210 -0.4293  1.6686 -0.4627
34633SOL     OW15623   2.838   8.058   7.689  0.2796  0.5462 -0.2229
34633SOL    HW115624   2.862   8.068   7.597 -0.8404 -0.9354 -0.7184
34633SOL    HW215625   2.743   8.044   7.688 -0.0975  2.4584  1.3467
34634SOL     OW15626   2.972   0.442   7.302  0.1132 -0.1262 -0.5472
34634SOL    HW115627   2.912   0.444   7.375 -0.1811 -0.4297 -0.7762
34634SOL    HW215628   3.025   0.521   7.312 -0.4083  0.2124 -0.4199
34635SOL     OW15629   4.541   9.344   2.396  0.6413  0.4369 -0.0794
34635SOL    HW115630   4.484   9.267   2.402 -0.5564  1.3573  0.9944
34635SOL    HW215631   4.620   9.319   2.444  0.3125 -0.1767  0.1551
34636SOL     OW15632   3.997   0.199   4.321 -0.0628 -0.3368 -0.1053
34636SOL    HW115633   3.930   0.261   4.289  0.8099  0.0447 -1.2677
34636SOL    HW215634   4.037   0.243   4.395 -0.3027 -0.0545 -0.1410
34637SOL     OW15635   8.933   3.981  13.531 -1.1703 -0.8254 -0.5468
34637SOL    HW115636   8.861   3.954  13.474 -1.0015  0.7788 -1.6020
34637SOL    HW215637   8.916   4.074  13.548  0.5195 -0.4765 -0.6284
34638SOL     OW15638  13.047   1.858   2.129  0.0253  0.2818  0.4840
34638SOL    HW115639  13.099   1.889   2.203  0.7231 -1.2440  0.6655
34638SOL    HW215640  12.970   1.914   2.128 -0.1205  0.1662  2.5217
34639SOL     OW15641  12.207   6.078   3.950  0.2414  0.4486  0.1477
34639SOL    HW115642  12.152   6.152   3.927  0.4807  0.1613 -1.4463
34639SOL    HW215643  12.147   6.004   3.957  0.1065  0.6256  0.9578
34640SOL     OW15644   0.549   8.044  12.945  0.5252 -0.0845 -0.0127
34640SOL    HW115645   0.637   8.013  12.923  1.3818  2.9193 -1.4004
34640SOL    HW215646   0.557   8.073  13.036  0.4334 -1.3867  0.4331
34641SOL     OW15647  13.572   5.658   6.558 -0.7428 -0.2069  0.2527
34641SOL    HW115648  13.498   5.709   6.525 -0.4936  0.0351  0.0656
34641SOL    HW215649  13.536   5.610   6.633 -0.2350  2.7683  2.5737
34642SOL     OW15650   2.533  12.033   5.857 -0.5201 -0.0792 -0.2956
34642SOL    HW115651   2.480  12.030   5.936 -0.4074  0.3930 -0.1990
34642SOL    HW215652   2.561  12.124   5.850 -1.0630  0.0257 -1.2333
34643SOL     OW15653   5.466  13.201   8.439 -0.1252 -0.1113  0.3328
34643SOL    HW115654   5.451  13.291   8.410 -1.1148 -0.0728  0.8959
34643SOL    HW215655   5.547  13.174   8.396 -1.9112 -0.3838 -3.1791
34644SOL     OW15656  10.228   5.595   8.230 -0.2983  0.3924  0.0403
34644SOL    HW115657  10.243   5.646   8.150  1.1228 -1.0054 -0.6359
34644SOL    HW215658  10.315   5.563   8.255 -0.9648 -0.5815  1.2030
34645SOL     OW15659   3.071   5.453   9.556  0.3612 -0.2446 -0.1594
34645SOL    HW115660   3.067   5.477   9.463  0.7315 -0.1766 -0.1570
34645SOL    HW215661   3.136   5.383   9.560 -1.0013 -1.5651 -0.2289
34646SOL     OW15662  13.083   2.626  12.316  0.1646 -0.3314 -0.2409
34646SOL    HW115663  13.022   2.588  12.253  1.0550  0.5356 -1.7145
34646SOL    HW215664  13.078   2.570  12.393 -1.5760 -0.9557 -0.7792
34647SOL     OW15665   8.859   9.418   0.052 -0.2517 -0.1156 -0.1330
34647SOL    HW115666   8.937   9.469   0.028  0.5620 -0.6307  1.3114
34647SOL    HW215667   8.893   9.346   0.106 -1.8069  0.1282  1.2501
34648SOL     OW15668   1.788   8.334   6.194  0.1856  0.0888 -0.5350
34648SOL    HW115669   1.766   8.415   6.148 -1.4724 -1.7125 -3.2024
34648SOL    HW215670   1.872   8.307   6.156 -0.9221 -1.1201 -2.2577
34649SOL     OW15671  13.670   9.333   7.550 -0.4741  0.2976  0.0394
34649SOL    HW115672  13.590   9.295   7.585 -0.5264  0.7104  0.3757
34649SOL    HW215673  13.684   9.288   7.466 -1.3419  0.5973 -0.2718
34650SOL     OW15674   4.129   6.357   9.819  0.3289 -0.6172 -0.6940
34650SOL    HW115675   4.173   6.368   9.734 -1.0065 -0.8348 -1.4330
34650SOL    HW215676   4.107   6.264   9.823 -1.6471 -0.2165 -1.1761
34651SOL     OW15677  10.654   3.273   1.282  0.1088  0.4519 -0.1188
34651SOL    HW115678  10.643   3.338   1.213  1.0952  0.9481  0.1778
34651SOL    HW215679  10.691   3.196   1.238  0.0869  0.5209 -0.2558
34652SOL     OW15680   5.931   6.015   8.884 -0.5147 -0.6463  0.6244
34652SOL    HW115681   5.926   5.984   8.975  0.4806 -2.1954  0.1971
34652SOL    HW215682   5.994   6.087   8.886  0.6508 -1.6395  0.9580
34653SOL     OW15683   0.788   6.270   6.509  0.1919  0.0424 -0.1158
34653SOL    HW115684   0.844   6.238   6.438  0.1842 -2.3974  0.8619
34653SOL    HW215685   0.840   6.256   6.588 -1.5203 -1.7362  0.7592
34654SOL     OW15686   0.598   1.790   0.285  0.2890  0.3903 -0.4792
34654SOL    HW115687   0.573   1.847   0.357 -0.3103 -0.1813 -0.2268
34654SOL    HW215688   0.624   1.851   0.215 -1.8363  1.0518 -0.7762
34655SOL     OW15689   7.795   5.886   7.956 -0.2566  0.1754 -0.0633
34655SOL    HW115690   7.702   5.870   7.943 -0.4667  1.3343 -0.0517
34655SOL    HW215691   7.811   5.972   7.917  0.8558 -0.1106 -0.2792
34656SOL     OW15692   5.095  11.605   7.594 -0.1971 -0.0327 -0.3260
34656SOL    HW115693   5.094  11.629   7.501 -1.0373 -0.1951 -0.3615
34656SOL    HW215694   5.186  11.580   7.610 -0.0455 -0.0322 -1.1112
34657SOL     OW15695   9.547   3.474   7.939  0.1558  0.1896 -0.0595
34657SOL    HW115696   9.625   3.421   7.952  0.7239  1.4960  2.3840
34657SOL    HW215697   9.490   3.451   8.013 -0.4619  1.4345 -0.1222
34658SOL     OW15698  12.445  10.087   4.860  0.6550 -0.6256 -0.1124
34658SOL    HW115699  12.500  10.117   4.787  1.1623 -0.5822  0.2868
34658SOL    HW215700  12.360  10.068   4.819  0.8867 -0.4488 -0.6885
34659SOL     OW15701   8.632   4.968  13.720  0.1807  0.0053 -0.1483
34659SOL    HW115702   8.634   5.063  13.728  2.1003 -0.1108  1.6780
34659SOL    HW215703   8.567   4.940  13.785  0.6945  0.0289  0.3867
34660SOL     OW15704  12.023   5.456   3.186 -0.0779  0.1573  0.0931
34660SOL    HW115705  11.989   5.490   3.103  0.7600 -0.3024 -0.4558
34660SOL    HW215706  12.101   5.407   3.161 -0.3824 -0.8487  1.0403
34661SOL     OW15707   5.140  10.856   1.059  0.3949  0.4939  0.5288
34661SOL    HW115708   5.131  10.941   1.015 -2.2827 -1.2250 -2.7232
34661SOL    HW215709   5.072  10.856   1.126  0.0199  0.6852  0.1507
34662SOL     OW15710   2.862   0.867   4.190 -0.2084 -0.2588  0.7410
34662SOL    HW115711   2.907   0.842   4.109 -2.3389 -0.4003 -0.4616
34662SOL    HW215712   2.825   0.953   4.171  1.8056  1.1579  2.7033
34663SOL     OW15713   3.197   1.110   3.920 -0.1326 -0.1635 -0.3086
34663SOL    HW115714   3.245   1.128   3.839 -1.1441  1.2788 -0.6348
34663SOL    HW215715   3.144   1.189   3.935 -0.7107 -0.7894  1.2353
34664SOL     OW15716   9.920   5.236   1.062  0.0360  0.4778 -0.6266
34664SOL    HW115717   9.947   5.204   0.976  0.1906  0.1651 -0.4631
34664SOL    HW215718   9.925   5.159   1.119 -1.7392  0.2560 -0.7180
34665SOL     OW15719   6.161   6.153   7.976  0.2167  0.3456 -0.5857
34665SOL    HW115720   6.199   6.197   7.900  0.2666 -0.0769 -0.8077
34665SOL    HW215721   6.230   6.093   8.006  0.6318  1.3227  0.4910
34666SOL     OW15722   0.548   4.149   0.205 -0.0085 -0.0377 -0.5071
34666SOL    HW115723   0.576   4.209   0.136 -0.3179  0.3029 -0.3399
34666SOL    HW215724   0.613   4.078   0.203  0.1668  0.1319 -0.9301
34667SOL     OW15725   2.751   1.328   1.768  0.5368  0.3926  0.2710
34667SOL    HW115726   2.835   1.308   1.727  0.2497 -0.5921  0.1291
34667SOL    HW215727   2.688   1.268   1.726 -0.2853  1.2734  0.2065
34668SOL     OW15728  11.311  13.666   5.895 -0.4402 -0.0405 -0.0951
34668SOL    HW115729  11.241  13.712   5.849 -0.0351 -0.5518 -1.2702
34668SOL    HW215730  11.270  13.629   5.973 -0.7566  2.4165  1.0167
34669SOL     OW15731   3.028   8.975   5.542  0.0886 -0.2178 -0.2372
34669SOL    HW115732   3.059   9.066   5.543 -0.4435 -0.0318  0.1259
34669SOL    HW215733   2.974   8.968   5.621 -1.7916 -0.1646 -1.4597
34670SOL     OW15734   1.504  10.032  13.173  0.0231 -0.0869  0.5474
34670SOL    HW115735   1.564  10.094  13.130  0.5342 -0.9196  0.0262
34670SOL    HW215736   1.427  10.084  13.195  1.0213  1.0848  1.4626
34671SOL     OW15737  12.332   0.576  10.559  0.0042 -0.3579 -0.0127
34671SOL    HW115738  12.353   0.574  10.465  0.6135  0.4694  0.0882
34671SOL    HW215739  12.413   0.549  10.602 -0.3160 -0.8615  0.2703
34672SOL     OW15740  11.331   2.386   4.332 -0.2131 -0.1794 -0.0437
34672SOL    HW115741  11.297   2.452   4.271  0.3569 -0.0694 -0.2493
34672SOL    HW215742  11.412   2.356   4.291  0.0988 -0.2113  0.6041
34673SOL     OW15743   9.800   8.489  10.291 -0.0856  0.6816 -0.0900
34673SOL    HW115744   9.892   8.461  10.299 -0.6317 -1.5247 -0.7512
34673SOL    HW215745   9.765   8.480  10.379  0.3351  1.6630  0.1954
34674SOL     OW15746  10.104  10.003   0.383 -0.1631  0.1280 -0.4650
34674SOL    HW115747  10.163   9.952   0.439 -0.8208 -0.8052 -0.5947
34674SOL    HW215748  10.017   9.969   0.404 -0.5362  0.6735 -1.1236
34675SOL     OW15749   1.062  11.521   1.484 -0.2631  0.5638 -0.5381
34675SOL    HW115750   1.110  11.509   1.566 -0.7340  1.6847 -0.0688
34675SOL    HW215751   1.130  11.537   1.419  0.0718  0.7714 -0.1433
34676SOL     OW15752   9.324   4.183   4.430 -0.2935 -0.1136  0.2245
34676SOL    HW115753   9.351   4.148   4.345 -0.8661  1.0194 -0.4452
34676SOL    HW215754   9.285   4.108   4.475 -0.9073 -0.5090 -0.9104
34677SOL     OW15755   9.264   7.379  10.459 -0.9790  0.1167  0.6904
34677SOL    HW115756   9.350   7.376  10.501 -0.5821 -0.1898 -0.1240
34677SOL    HW215757   9.247   7.472  10.447 -0.2264  0.1645 -0.1803
34678SOL     OW15758  13.436  12.826   8.064  0.0685 -0.6518 -0.3477
34678SOL    HW115759  13.399  12.850   8.149  1.3445  0.6114 -0.1152
34678SOL    HW215760  13.396  12.887   8.003 -0.8810 -1.5887 -0.6881
34679SOL     OW15761  12.963   5.697   4.131 -0.2838 -0.2844  0.4458
34679SOL    HW115762  12.971   5.644   4.211  1.7550 -0.9487 -0.1207
34679SOL    HW215763  13.001   5.642   4.063 -1.6336  0.4295 -0.9401
34680SOL     OW15764  12.183   3.922   8.640 -0.4020  0.2499 -0.4637
34680SOL    HW115765  12.253   3.986   8.648 -0.4943  0.6933 -2.5891
34680SOL    HW215766  12.200   3.878   8.557 -2.6900  0.4944 -1.1525
34681SOL     OW15767   5.767  11.269   8.657 -0.4129 -0.5559  0.5348
34681SOL    HW115768   5.835  11.202   8.666  1.8499  1.1273 -2.3726
34681SOL    HW215769   5.788  11.334   8.724 -0.4189 -0.9403  0.9240
34682SOL     OW15770  10.828   7.829  10.862  0.3338 -0.7098 -0.0048
34682SOL    HW115771  10.776   7.752  10.886 -0.9846  0.0939 -0.1654
34682SOL    HW215772  10.858   7.865  10.946 -0.2792 -0.5775  0.1617
34683SOL     OW15773   8.614   2.317  10.162 -0.2633  0.3055 -0.5277
34683SOL    HW115774   8.651   2.346  10.245 -0.6732  0.0701 -0.2601
34683SOL    HW215775   8.674   2.350  10.096 -0.6654  1.6811 -0.2284
34684SOL     OW15776  10.971   0.050   5.577  1.0616 -0.2119  0.2825
34684SOL    HW115777  10.960   0.091   5.492  3.3475 -0.9374 -0.4549
34684SOL    HW215778  10.901  -0.014   5.583 -1.6338  2.5740  0.8094
34685SOL     OW15779   7.213  10.838  11.363 -0.0369  0.2052 -0.3289
34685SOL    HW115780   7.195  10.766  11.424 -1.4985  1.4164  0.7710
34685SOL    HW215781   7.127  10.878  11.349  0.4973  0.7651 -2.1857
34686SOL     OW15782   3.795   7.952   9.163  0.1383  0.5652  0.0040
34686SOL    HW115783   3.826   8.003   9.237 -0.7407  0.0235  0.7806
34686SOL    HW215784   3.702   7.974   9.156  0.1333  0.3546 -0.7305
34687SOL     OW15785  13.090   4.586   1.581 -0.2661 -0.0765 -0.2305
34687SOL    HW115786  13.040   4.563   1.502  0.8344  0.1594 -1.0240
34687SOL    HW215787  13.034   4.559   1.653 -0.9736 -1.0388 -1.0986
34688SOL     OW15788   0.154   7.669   0.589  0.2661 -0.6469 -0.2928
34688SOL    HW115789   0.217   7.721   0.540 -0.1332 -1.7908 -2.1014
34688SOL    HW215790   0.202   7.592   0.617  0.9164  0.6426  2.5755
34689SOL     OW15791   8.448   0.405   7.848 -0.3060 -0.4192  0.4334
34689SOL    HW115792   8.427   0.374   7.760 -2.1383  0.0858  0.6423
34689SOL    HW215793   8.435   0.328   7.904  2.2845 -1.1466  0.1612
34690SOL     OW15794   7.485   7.646   8.106  0.0116  0.0895 -0.0017
34690SOL    HW115795   7.451   7.558   8.121  0.6062  0.1503  1.9548
34690SOL    HW215796   7.580   7.636   8.111  0.0750  0.8764  0.4547
34691SOL     OW15797   1.667  10.856   9.463  0.0611  0.3967 -0.1417
34691SOL    HW115798   1.619  10.850   9.381  1.7897 -1.8912 -1.0945
34691SOL    HW215799   1.622  10.795   9.522 -0.2787  0.8937  0.1137
34692SOL     OW15800  10.433   6.090   7.591  0.4148  0.1982 -0.0135
34692SOL    HW115801  10.435   6.172   7.640  0.6955  0.6823 -0.8152
34692SOL    HW215802  10.515   6.090   7.541 -1.3988  1.5584 -3.3530
34693SOL     OW15803   5.249   7.736  10.828 -0.7073 -0.3702 -0.0597
34693SOL    HW115804   5.168   7.708  10.870 -1.2927  0.5636 -0.5407
34693SOL    HW215805   5.318   7.696  10.881 -1.4284  0.4227  1.5342
34694SOL     OW15806  13.720  11.022  11.907 -0.2714  0.4160 -0.4226
34694SOL    HW115807  13.707  10.974  11.825 -0.3937  0.8761 -0.6821
34694SOL    HW215808  13.812  11.008  11.929 -0.3159  0.0421 -0.4775
34695SOL     OW15809   1.236  12.866  12.628 -0.0595 -0.1990 -0.2713
34695SOL    HW115810   1.158  12.863  12.684  0.9157  0.5162  1.1836
34695SOL    HW215811   1.290  12.794  12.658  1.3015  1.3078  1.0249
34696SOL     OW15812   5.015  10.562   8.038 -0.1152 -0.3871 -0.0571
34696SOL    HW115813   5.099  10.558   7.991 -0.1100  0.4393 -0.1376
34696SOL    HW215814   4.966  10.486   8.006  0.1936 -0.2768 -0.8224
34697SOL     OW15815   5.720   8.230   4.733  0.0480  0.0415 -0.0499
34697SOL    HW115816   5.725   8.273   4.818  0.0648  0.5533 -0.3056
34697SOL    HW215817   5.629   8.199   4.727 -0.1822  0.7320 -0.1918
34698SOL     OW15818   1.989   4.484   5.807  0.0382  0.1030  0.0989
34698SOL    HW115819   1.916   4.524   5.855 -0.8958  0.3583 -1.4519
34698SOL    HW215820   1.981   4.390   5.826 -1.4327 -0.0189 -0.9101
34699SOL     OW15821   2.121   7.002   1.104  0.1806 -0.6465  1.0297
34699SOL    HW115822   2.162   6.960   1.028  0.0451 -1.5930  1.4561
34699SOL    HW215823   2.048   7.051   1.068  2.1119  1.7733  0.1340
34700SOL     OW15824   3.530   6.172   7.611  0.4269  0.0121 -0.2277
34700SOL    HW115825   3.516   6.266   7.601 -1.1648 -0.2600 -0.8845
34700SOL    HW215826   3.442   6.136   7.622  0.7898 -1.6377 -2.1392
34701SOL     OW15827   4.463   7.201   7.036  0.3212  0.3202  0.0470
34701SOL    HW115828   4.497   7.274   6.984  1.2319 -1.1067 -1.4554
34701SOL    HW215829   4.506   7.124   7.000 -1.2091 -1.0719  1.0538
34702SOL     OW15830   9.754   3.918   0.695  0.2020 -0.0137  0.4581
34702SOL    HW115831   9.761   3.871   0.778  1.2168  0.4240  0.6373
34702SOL    HW215832   9.695   3.991   0.714 -2.1650 -1.6934 -0.0762
34703SOL     OW15833  11.699  10.395   4.275  0.2119 -0.4183  0.2165
34703SOL    HW115834  11.717  10.333   4.205 -2.4814 -1.7121  0.5362
34703SOL    HW215835  11.743  10.475   4.248  3.1635 -2.1708 -0.5972
34704SOL     OW15836   0.716   6.426   1.592 -0.3727  0.4510  0.1726
34704SOL    HW115837   0.805   6.431   1.628 -0.2032  2.2542 -0.3782
34704SOL    HW215838   0.674   6.507   1.622 -1.2848  0.4230 -0.9606
34705SOL     OW15839   4.976   5.496   1.931 -0.4098  0.1644  0.1065
34705SOL    HW115840   4.907   5.486   1.997 -0.0114 -0.4640  0.4379
34705SOL    HW215841   5.053   5.456   1.971  0.1497  0.8688 -0.2633
34706SOL     OW15842  10.433  10.680   0.538 -0.5575  0.0123 -0.4122
34706SOL    HW115843  10.434  10.706   0.630  1.0753 -0.6113 -0.2224
34706SOL    HW215844  10.360  10.729   0.500 -0.9782  0.6230  1.1042
34707SOL     OW15845   3.438   7.384   9.941 -0.3629 -0.1679 -0.2134
34707SOL    HW115846   3.354   7.348   9.968 -0.4385  0.0385 -0.1764
34707SOL    HW215847   3.431   7.478   9.958 -0.4340 -0.0246 -0.9955
34708SOL     OW15848   9.988   3.303   2.853 -0.2660 -0.3416  0.0902
34708SOL    HW115849  10.009   3.396   2.846  0.4104 -0.5038 -0.1581
34708SOL    HW215850   9.899   3.301   2.885 -0.4156  0.4002 -0.2500
34709SOL     OW15851   8.815   1.107   3.851  0.0236  0.3591  0.6099
34709SOL    HW115852   8.834   1.197   3.824 -0.3813  0.3778  0.3785
34709SOL    HW215853   8.720   1.104   3.856  0.0867  0.5576  2.7467
34710SOL     OW15854   3.410   6.303  12.406  0.1409  0.5973  0.3367
34710SOL    HW115855   3.318   6.315  12.432 -0.1177 -0.3309 -0.1169
34710SOL    HW215856   3.408   6.307  12.310  0.7081  1.4184  0.3498
34711SOL     OW15857   6.721  13.228   5.536  0.1066 -0.2506 -0.0783
34711SOL    HW115858   6.688  13.151   5.491 -1.6212 -0.9562  2.1569
34711SOL    HW215859   6.803  13.200   5.575 -0.1625 -0.7670  0.1320
34712SOL     OW15860  12.220   8.561   6.168 -0.0360 -0.1061 -0.6437
34712SOL    HW115861  12.306   8.536   6.135 -0.5854 -1.5515 -1.0180
34712SOL    HW215862  12.163   8.561   6.091 -0.4350  0.6589 -0.3678
34713SOL     OW15863   2.812   7.274   1.637 -0.2909  0.1535 -0.0802
34713SOL    HW115864   2.775   7.270   1.549 -0.2451 -1.0464 -0.0606
34713SOL    HW215865   2.905   7.256   1.625 -0.5214 -1.4983  0.3322
34714SOL     OW15866   2.319   7.113   0.867  0.3052  0.1358 -0.3513
34714SOL    HW115867   2.248   7.099   0.804  0.2493 -0.4562 -0.1640
34714SOL    HW215868   2.331   7.028   0.909  2.5458 -0.3689 -1.8451
34715SOL     OW15869   8.206  12.948   7.058 -0.5213 -0.0990  0.2362
34715SOL    HW115870   8.260  12.988   7.126  0.7256 -0.0724 -0.7431
34715SOL    HW215871   8.211  13.008   6.984 -2.0494 -0.0175  0.1550
34716SOL     OW15872  11.455  10.270   4.471 -0.5664  0.1366  0.2543
34716SOL    HW115873  11.505  10.340   4.429 -0.3187  0.3262  0.8509
34716SOL    HW215874  11.510  10.242   4.545 -0.5746 -0.8278 -0.0991
34717SOL     OW15875   5.478  10.770   8.354  0.0124  0.3076  0.0330
34717SOL    HW115876   5.518  10.814   8.280  0.0700  0.0034 -0.1179
34717SOL    HW215877   5.514  10.681   8.352 -1.9744 -0.5403 -1.1760
34718SOL     OW15878   0.393   5.326   6.664  0.1859 -0.2491 -0.3001
34718SOL    HW115879   0.364   5.264   6.731 -0.2270  1.0834  0.7806
34718SOL    HW215880   0.487   5.309   6.655 -0.0739 -1.6574 -0.7159
34719SOL     OW15881   4.373   2.279  11.179  0.0782  0.0937 -0.5087
34719SOL    HW115882   4.339   2.297  11.266 -3.9191 -0.1678 -1.8167
34719SOL    HW215883   4.385   2.185  11.177  0.3831  0.1238 -0.1983
34720SOL     OW15884   8.278  10.847  13.447 -0.0027  0.3642  0.1789
34720SOL    HW115885   8.188  10.878  13.436 -0.4674 -0.5713  1.1493
34720SOL    HW215886   8.269  10.754  13.467  0.9972  0.7699  2.9306
34721SOL     OW15887  13.580   3.713   7.874 -0.1510  0.3686 -0.5699
34721SOL    HW115888  13.488   3.710   7.903  0.1135  1.2204  0.4108
34721SOL    HW215889  13.595   3.805   7.854  0.7655  0.4067  0.2273
34722SOL     OW15890   1.882   5.863   7.434  0.0730  0.8535 -0.1085
34722SOL    HW115891   1.864   5.953   7.410 -1.1508  0.5009 -0.5920
34722SOL    HW215892   1.854   5.811   7.358 -0.2811 -0.0077  0.5873
34723SOL     OW15893   5.152  13.108   6.250 -0.0878 -0.2700 -0.1666
34723SOL    HW115894   5.121  13.022   6.222  0.6118 -0.1278 -1.4493
34723SOL    HW215895   5.244  13.111   6.223 -0.2661  1.1118 -0.7207
34724SOL     OW15896   1.098  13.405   2.729 -0.4935  0.4554 -0.1560
34724SOL    HW115897   1.027  13.372   2.785 -1.0222 -0.8297 -1.5042
34724SOL    HW215898   1.171  13.346   2.746  0.3542  1.8357  1.3020
34725SOL     OW15899   3.673   8.721  12.841 -0.0905 -0.0248  0.5099
34725SOL    HW115900   3.634   8.648  12.792 -0.0082  0.3224 -0.0780
34725SOL    HW215901   3.757   8.687  12.870  0.1801 -0.0037 -0.2133
34726SOL     OW15902   8.631  10.743   0.392 -0.1171 -0.0830 -0.1683
34726SOL    HW115903   8.553  10.697   0.361 -0.6068  0.6411 -0.0311
34726SOL    HW215904   8.605  10.835   0.396  0.7254  0.1618 -0.0584
34727SOL     OW15905  11.229  10.477   4.217  0.7288 -0.0743  0.4860
34727SOL    HW115906  11.193  10.554   4.174  1.7599  0.9285  1.3377
34727SOL    HW215907  11.313  10.462   4.173 -0.0217 -1.4937 -0.5149
34728SOL     OW15908   5.950   0.337   9.293 -0.0657  0.1066  0.0600
34728SOL    HW115909   5.872   0.282   9.292 -1.5911  2.1485  0.0987
34728SOL    HW215910   6.021   0.278   9.319 -1.5581 -1.8402 -0.0905
34729SOL     OW15911   6.118  10.517   0.284  0.2114  0.0050 -0.2112
34729SOL    HW115912   6.092  10.467   0.362  0.8311 -0.0273 -0.0217
34729SOL    HW215913   6.035  10.550   0.249 -0.0629  0.1389  0.5352
34730SOL     OW15914  12.178   5.256  10.225  0.2268 -0.3601 -0.0029
34730SOL    HW115915  12.235   5.270  10.300  0.5217 -0.7382 -0.1539
34730SOL    HW215916  12.092   5.283  10.255  0.2556 -0.9553  0.6166
34731SOL     OW15917   4.198   3.711   4.799 -0.4951  0.0709  0.0595
34731SOL    HW115918   4.106   3.734   4.799 -0.5876 -0.2896 -0.3117
34731SOL    HW215919   4.217   3.687   4.708  0.2549  1.2935 -0.1335
34732SOL     OW15920  10.182   4.554   7.499 -0.1637  0.1850 -0.3501
34732SOL    HW115921  10.102   4.506   7.520  0.3661  0.2587  2.1195
34732SOL    HW215922  10.247   4.521   7.561  1.3358  1.1440 -1.3475
34733SOL     OW15923   7.131   1.476  13.351 -0.6006 -0.2975  0.0979
34733SOL    HW115924   7.104   1.388  13.323  0.9369 -1.0127  0.7730
34733SOL    HW215925   7.212   1.493  13.302 -0.7544  0.6546  0.1514
34734SOL     OW15926   7.398   6.057  12.034 -0.4834 -0.4947  0.1876
34734SOL    HW115927   7.354   6.141  12.048 -3.9468 -2.2122  0.6697
34734SOL    HW215928   7.401   6.046  11.939  1.1481  0.6334  0.0646
34735SOL     OW15929   2.994   9.014   3.662 -0.4490  0.0181  0.4994
34735SOL    HW115930   3.031   9.052   3.582  0.3707 -1.0303  0.3570
34735SOL    HW215931   3.062   9.026   3.728 -1.7988  2.4756  1.5598
34736SOL     OW15932   6.649  13.195   1.658 -0.0152 -0.1780 -0.2084
34736SOL    HW115933   6.625  13.277   1.703  0.2864 -0.2097  0.0174
34736SOL    HW215934   6.576  13.178   1.598 -0.4285 -0.1356  0.2725
34737SOL     OW15935   4.080   0.148  11.977  0.1464  0.0455 -0.0578
34737SOL    HW115936   4.064   0.059  12.010 -0.7944 -0.7475 -2.4942
34737SOL    HW215937   4.049   0.147  11.887  0.9984  2.6086 -0.4665
34738SOL     OW15938   5.177   9.076   0.799 -0.6001  0.0992 -0.0737
34738SOL    HW115939   5.221   9.125   0.730  0.4054  0.3749  0.7321
34738SOL    HW215940   5.222   9.102   0.879 -0.6070 -1.4758  0.4879
34739SOL     OW15941   5.066  12.963   9.980  0.0120  0.1135 -0.9023
34739SOL    HW115942   5.000  13.017   9.936 -0.1902  0.1608 -0.5482
34739SOL    HW215943   5.053  12.982  10.074  0.2578 -0.1888 -0.8078
34740SOL     OW15944   7.486   2.392  11.574 -0.1908 -0.2286  0.3354
34740SOL    HW115945   7.578   2.389  11.546 -0.6308 -0.9129 -1.1799
34740SOL    HW215946   7.480   2.327  11.644  0.2526 -1.1098 -0.4061
34741SOL     OW15947  11.947   5.332   5.714 -0.5394  0.0233  0.1332
34741SOL    HW115948  11.872   5.373   5.758  0.0533  0.8037  0.4344
34741SOL    HW215949  11.917   5.315   5.625 -0.7357  1.2882 -0.0525
34742SOL     OW15950   3.813   2.012   5.878 -0.0282  0.8673 -0.0660
34742SOL    HW115951   3.844   2.073   5.944 -0.2634  0.7434  0.1636
34742SOL    HW215952   3.802   2.065   5.799  0.3303  1.0000 -0.0271
34743SOL     OW15953   8.584   5.057   1.998  0.2300  0.8357  0.1438
34743SOL    HW115954   8.564   5.141   2.039  2.2335  0.3923  2.2558
34743SOL    HW215955   8.662   5.074   1.946  0.6585  0.3120  0.6018
34744SOL     OW15956   0.355   6.162  10.161  0.2446  0.5449  0.0888
34744SOL    HW115957   0.317   6.078  10.135  1.5935  0.0007 -0.2103
34744SOL    HW215958   0.449   6.151  10.147  0.4687  2.0339  0.2719
34745SOL     OW15959  13.287   6.712   4.623  0.4928  0.6297 -0.0963
34745SOL    HW115960  13.303   6.741   4.533 -0.6174  1.6979  0.0223
34745SOL    HW215961  13.220   6.645   4.615  1.5313 -0.4310 -0.1795
34746SOL     OW15962   7.165   3.892   6.965 -0.8241  0.5003 -0.0669
34746SOL    HW115963   7.071   3.878   6.951 -0.6308  1.1956 -2.6722
34746SOL    HW215964   7.196   3.929   6.882  2.0090 -0.8840  0.2604
34747SOL     OW15965   9.778   7.269   9.569 -0.2322 -0.3228 -0.5149
34747SOL    HW115966   9.753   7.231   9.484 -0.1640 -0.7343 -0.3554
34747SOL    HW215967   9.773   7.363   9.555  0.4196 -0.3722 -1.1797
34748SOL     OW15968   1.326   0.205   0.134 -0.5445  0.4308 -0.4219
34748SOL    HW115969   1.336   0.288   0.182 -0.9875  1.1793 -1.5784
34748SOL    HW215970   1.376   0.218   0.054 -0.5926 -0.4508 -0.5960
34749SOL     OW15971   1.413   7.130   4.293 -0.4104  0.2322 -0.2933
34749SOL    HW115972   1.398   7.141   4.387 -1.0580  1.8681 -0.5524
34749SOL    HW215973   1.335   7.168   4.251 -0.5184 -1.2041 -1.4989
34750SOL     OW15974   4.420   6.866   5.352  0.2387 -0.3636 -0.1071
34750SOL    HW115975   4.428   6.896   5.262 -2.0679  0.0172 -0.2486
34750SOL    HW215976   4.333   6.826   5.357  0.1198  0.0235  2.0397
34751SOL     OW15977  13.378  10.472   1.324 -0.1048  0.2723 -0.1090
34751SOL    HW115978  13.408  10.468   1.415 -1.6675 -2.2498  0.4148
34751SOL    HW215979  13.283  10.461   1.330 -0.3098  0.6827 -2.0367
34752SOL     OW15980   1.765   6.554  10.424 -0.2401  0.1821 -0.0129
34752SOL    HW115981   1.780   6.632  10.478 -0.6579  1.0659 -1.1415
34752SOL    HW215982   1.852   6.525  10.398 -0.0241 -0.3070  1.1771
34753SOL     OW15983   5.668   7.865  12.299 -0.0713  0.1142 -0.9955
34753SOL    HW115984   5.753   7.902  12.275  0.9484 -1.8537 -0.6290
34753SOL    HW215985   5.637   7.821  12.220  0.3888 -1.1606 -0.4867
34754SOL     OW15986   7.419   2.069   8.346  0.1516 -0.0257 -0.4948
34754SOL    HW115987   7.415   2.118   8.263  2.6897 -1.5772 -1.6603
34754SOL    HW215988   7.494   2.011   8.336 -0.5449 -1.5871  2.2374
34755SOL     OW15989   5.709  12.715   2.196  0.6550  0.5223 -0.2573
34755SOL    HW115990   5.697  12.671   2.281  0.4459 -0.6306 -0.8539
34755SOL    HW215991   5.631  12.770   2.186  1.2988  1.6929  0.8649
34756SOL     OW15992   4.445   8.243   8.344 -0.2651  0.4947 -0.0427
34756SOL    HW115993   4.393   8.170   8.309  0.2155 -0.5524  1.3456
34756SOL    HW215994   4.519   8.250   8.284  0.0249 -0.5914  0.1756
34757SOL     OW15995   1.785   0.443  13.044 -0.1216  0.4669 -0.6734
34757SOL    HW115996   1.747   0.412  12.962 -0.1911 -1.2015 -0.0436
34757SOL    HW215997   1.726   0.513  13.073 -1.2561 -0.3269 -1.0193
34758SOL     OW15998   4.461  10.602   2.933 -0.1346 -0.2266 -0.8255
34758SOL    HW115999   4.526  10.666   2.904  0.4610 -1.6273 -2.8378
34758SOL    HW216000   4.510  10.520   2.941 -1.0698 -0.6779  0.7253
34759SOL     OW16001  11.676   2.436   4.521  0.2203  0.3497 -0.0029
34759SOL    HW116002  11.731   2.366   4.557 -0.4291 -0.1646  0.0057
34759SOL    HW216003  11.703   2.444   4.430  2.3113  2.0785  0.6805
34760SOL     OW16004   6.151  11.051   7.363 -0.7209  0.1308  0.2136
34760SOL    HW116005   6.240  11.084   7.375 -0.2200 -0.2610 -2.0100
34760SOL    HW216006   6.132  11.065   7.270 -1.6041 -3.0530 -0.2130
34761SOL     OW16007   5.594  12.648   3.636  0.1989 -0.1794  0.4632
34761SOL    HW116008   5.525  12.713   3.626  2.6390  2.8738  1.9227
34761SOL    HW216009   5.659  12.671   3.569  0.3475 -2.3687 -0.2453
34762SOL     OW16010  10.765   8.811   8.550  0.2173 -0.8129  0.3669
34762SOL    HW116011  10.676   8.826   8.581 -0.3860 -2.2185 -0.5659
34762SOL    HW216012  10.793   8.895   8.513 -0.1862  0.0107  1.8818
34763SOL     OW16013  11.314  12.813   3.348 -0.3763 -0.1397  0.3969
34763SOL    HW116014  11.252  12.752   3.388 -0.2599 -1.3437 -1.1472
34763SOL    HW216015  11.351  12.765   3.274  1.0581  1.1988  0.1761
34764SOL     OW16016   3.294  10.241   1.060 -0.1480  0.0254 -0.0352
34764SOL    HW116017   3.305  10.169   1.123 -0.4666  0.4456  0.5120
34764SOL    HW216018   3.376  10.289   1.064 -0.9009  1.3078  1.6929
34765SOL     OW16019  13.288  11.812   8.558  0.1937 -0.0586 -0.3135
34765SOL    HW116020  13.206  11.831   8.603 -0.4290  0.2191 -1.5151
34765SOL    HW216021  13.274  11.726   8.518  1.1165 -0.7756  0.8306
34766SOL     OW16022  11.084   8.337  12.078 -0.0275  0.8171 -0.1128
34766SOL    HW116023  11.091   8.420  12.031  1.9317 -0.3274 -2.0946
34766SOL    HW216024  11.031   8.282  12.020  1.2148 -0.1868 -0.3440
34767SOL     OW16025  12.338  12.870   8.557 -0.0272 -0.4150  0.4918
34767SOL    HW116026  12.430  12.852   8.578  0.7009  2.0526 -0.2849
34767SOL    HW216027  12.317  12.808   8.487  0.2151 -2.6923  2.3021
34768SOL     OW16028   3.896   0.229   1.714  0.1944 -0.1653  0.1841
34768SOL    HW116029   3.981   0.187   1.700  1.2377  1.6308  0.7697
34768SOL    HW216030   3.913   0.322   1.698 -1.5330  0.3091  0.9017
34769SOL     OW16031   7.080   0.073   3.498 -0.0372 -0.3896  0.8969
34769SOL    HW116032   7.042   0.122   3.425 -0.6001  1.7302  2.5462
34769SOL    HW216033   7.113  -0.008   3.457 -0.4757  0.6305 -1.6579
34770SOL     OW16034   5.811   0.177  11.699 -0.1699 -0.2643  0.4482
34770SOL    HW116035   5.743   0.244  11.698  0.0191 -0.0621  0.9919
34770SOL    HW216036   5.816   0.147  11.608 -1.5923 -0.8909  0.5506
34771SOL     OW16037  10.600   4.516  13.400 -0.2371 -0.3003 -0.0998
34771SOL    HW116038  10.603   4.610  13.381  0.3260 -0.1170  0.7949
34771SOL    HW216039  10.522   4.485  13.356 -0.2825  0.5392 -0.6423
34772SOL     OW16040   2.926   3.498   5.025  0.5376  0.2613  0.1971
34772SOL    HW116041   2.841   3.482   5.066 -0.1994  1.2076 -0.8820
34772SOL    HW216042   2.989   3.449   5.078 -0.7712 -1.0311  0.6196
34773SOL     OW16043   8.689   0.681   0.978 -0.3783 -0.3826  0.0512
34773SOL    HW116044   8.682   0.597   1.023  2.5726 -1.1638 -0.6850
34773SOL    HW216045   8.762   0.668   0.917 -0.1396  2.5901 -0.4034
34774SOL     OW16046  10.262   6.937   9.458 -0.0554 -0.0526  0.2684
34774SOL    HW116047  10.208   7.015   9.473 -1.6810 -0.8086 -1.3188
34774SOL    HW216048  10.317   6.961   9.383  0.0686 -0.1460  0.3295
34775SOL     OW16049  13.246   9.212   1.314  0.0507 -0.2026  0.3326
34775SOL    HW116050  13.317   9.148   1.316 -0.1093 -0.3690  1.6242
34775SOL    HW216051  13.285   9.289   1.273  0.5523 -0.7502 -0.2688
34776SOL     OW16052   6.477   8.166  12.244 -0.1701 -0.1566  0.4251
34776SOL    HW116053   6.461   8.258  12.264  0.6212  0.4260 -1.4586
34776SOL    HW216054   6.407   8.119  12.290 -0.4586  1.3459  1.5919
34777SOL     OW16055   2.239   1.971   9.583 -0.9079 -0.0160 -0.8362
34777SOL    HW116056   2.291   2.006   9.510  1.1315 -0.7007  0.2011
34777SOL    HW216057   2.258   1.877   9.583 -1.8389 -0.2202 -0.1490
34778SOL     OW16058   0.598  11.541   1.742 -0.3810  0.3839  0.0087
34778SOL    HW116059   0.655  11.572   1.672  0.5819  0.2351  0.7151
34778SOL    HW216060   0.529  11.608   1.749 -0.9839 -0.0146 -1.6319
34779SOL     OW16061  10.546   5.117  10.996  0.0309  0.0229  0.0887
34779SOL    HW116062  10.552   5.097  10.902 -0.4039 -0.1960  0.1068
34779SOL    HW216063  10.586   5.204  11.004 -0.3615  0.2549 -0.3771
34780SOL     OW16064  10.107  10.002   3.532  0.0791  0.5941  0.4851
34780SOL    HW116065  10.182   9.951   3.563  1.2066  1.7686 -0.2073
34780SOL    HW216066  10.058  10.023   3.612 -0.5006 -1.6213  0.7816
34781SOL     OW16067   5.861   3.174   1.713  0.6446  0.1579 -0.3266
34781SOL    HW116068   5.921   3.133   1.776  0.1717 -1.6626 -0.9806
34781SOL    HW216069   5.864   3.116   1.637 -1.7733  0.1063 -0.4573
34782SOL     OW16070  13.527  12.618   7.731 -0.5147  0.1755 -0.6320
34782SOL    HW116071  13.608  12.621   7.681  0.0955  0.0130  0.3252
34782SOL    HW216072  13.540  12.548   7.795 -1.6017 -0.1866 -0.7881
34783SOL     OW16073   3.852  10.914   3.701  0.1989 -0.1803  0.4096
34783SOL    HW116074   3.905  10.993   3.699 -1.7203  1.1932  0.6749
34783SOL    HW216075   3.818  10.910   3.791  0.5834 -1.5414  0.5207
34784SOL     OW16076   4.177  11.749   0.872  1.0105 -0.0913 -0.2078
34784SOL    HW116077   4.203  11.840   0.855  0.2514  0.2113  0.1759
34784SOL    HW216078   4.091  11.757   0.913  0.7375 -1.0135 -0.5840
34785SOL     OW16079   2.100   7.386   6.352  0.4333 -0.2304 -0.1108
34785SOL    HW116080   2.117   7.292   6.358 -1.9135 -0.6548  1.2939
34785SOL    HW216081   2.186   7.426   6.365  1.2783 -2.1723  0.8341
34786SOL     OW16082   2.466   6.755  10.670  0.7890  0.2224  0.3143
34786SOL    HW116083   2.528   6.819  10.705  1.1015 -0.9716  2.0360
34786SOL    HW216084   2.380   6.794  10.686  0.9973  0.5648  0.6117
34787SOL     OW16085   6.449   7.190   4.338  0.0768  0.5696 -0.0311
34787SOL    HW116086   6.499   7.109   4.324 -0.2278  0.5984 -1.4263
34787SOL    HW216087   6.378   7.186   4.274 -0.1940  1.7524  0.1704
34788SOL     OW16088   0.674   1.723   7.456  0.3453  0.2554  0.0703
34788SOL    HW116089   0.644   1.658   7.393 -0.2666  1.0464 -0.4692
34788SOL    HW216090   0.635   1.695   7.539  1.4339 -0.9818  0.2033
34789SOL     OW16091   7.843  11.983  13.397 -0.5428 -0.0015 -0.1612
34789SOL    HW116092   7.836  11.891  13.372  0.0052 -0.1055  0.0427
34789SOL    HW216093   7.839  11.981  13.493  0.5210  0.0721 -0.1005
34790SOL     OW16094   6.059  12.956   9.791  0.7711 -0.1937 -0.0687
34790SOL    HW116095   6.027  13.011   9.863  3.6030 -0.4582  1.5189
34790SOL    HW216096   6.116  13.014   9.741  0.9568 -0.7568 -0.5080
34791SOL     OW16097   1.309   1.440   0.307  0.5032  0.6352  0.4721
34791SOL    HW116098   1.394   1.443   0.263  0.3216  0.8172  0.1263
34791SOL    HW216099   1.329   1.423   0.399  0.9655  1.7479  0.5801
34792SOL     OW16100   1.914   8.353   6.796 -0.0698  0.0217  0.7194
34792SOL    HW116101   1.838   8.307   6.831 -1.5924  0.6167 -1.5599
34792SOL    HW216102   1.932   8.309   6.713  0.2973  1.6458 -0.1027
34793SOL     OW16103   8.950   8.988   3.453 -0.0743  1.0244 -0.1306
34793SOL    HW116104   8.922   9.066   3.501 -0.3811  1.8947 -1.6582
34793SOL    HW216105   9.009   8.943   3.513 -0.0382  2.3421  0.8669
34794SOL     OW16106   7.502   2.210   5.697 -0.1107 -0.0681 -0.3616
34794SOL    HW116107   7.567   2.262   5.648  0.8889 -0.6362  0.3348
34794SOL    HW216108   7.489   2.259   5.778 -1.8815  0.9509 -1.1906
34795SOL     OW16109   5.474   2.198   7.919  0.3400  0.0153  0.6361
34795SOL    HW116110   5.459   2.292   7.909 -0.5391 -0.2603 -1.0946
34795SOL    HW216111   5.493   2.186   8.012  1.8795  2.0724  0.6546
34796SOL     OW16112   1.885  10.542   1.161  0.4650  0.1415  0.3539
34796SOL    HW116113   1.897  10.636   1.176  0.7362  0.0361  0.8175
34796SOL    HW216114   1.853  10.509   1.245 -2.3056  0.2542 -0.5412
34797SOL     OW16115  10.303  13.261  11.207 -0.1203 -0.0509  0.3218
34797SOL    HW116116  10.226  13.308  11.240  0.2112  0.9155 -0.2265
34797SOL    HW216117  10.337  13.317  11.137 -0.3605 -1.6507 -1.1637
34798SOL     OW16118   9.818   1.187   1.947  0.0708  0.0257 -0.6671
34798SOL    HW116119   9.847   1.181   1.857 -1.7009 -0.1200 -1.2786
34798SOL    HW216120   9.774   1.273   1.953  1.9068  0.9489  0.6389
34799SOL     OW16121  11.916  13.484   3.782 -0.6089 -0.1513 -0.2668
34799SOL    HW116122  11.905  13.396   3.818 -1.7373 -0.4383 -1.2411
34799SOL    HW216123  11.902  13.473   3.688  0.2877  0.9018 -0.5399
34800SOL     OW16124   4.003   1.547   6.151  0.3077  0.0258  0.1231
34800SOL    HW116125   3.937   1.612   6.126  0.0910 -0.4799 -0.6391
34800SOL    HW216126   4.084   1.578   6.112  0.1135 -0.3872 -0.6287
34801SOL     OW16127  12.318   6.340   6.975  0.2420  0.5192 -0.5844
34801SOL    HW116128  12.357   6.286   7.043 -1.7860 -1.1990 -0.6910
34801SOL    HW216129  12.233   6.366   7.010 -0.2947  0.6960 -1.9348
34802SOL     OW16130  10.152  13.744  12.273  0.0448 -0.1015 -0.1807
34802SOL    HW116131  10.189  13.795  12.201 -1.3231  0.1657 -0.7254
34802SOL    HW216132  10.228  13.711  12.321  0.9675  0.7225 -1.0364
34803SOL     OW16133   1.427   6.443  13.524 -0.9030  0.2122  0.2766
34803SOL    HW116134   1.418   6.404  13.437  2.4579  5.4371 -3.0745
34803SOL    HW216135   1.484   6.383  13.572  0.0762 -1.3034 -2.5476
34804SOL     OW16136   5.251  10.123   7.014 -0.0484  0.1828 -0.1025
34804SOL    HW116137   5.219  10.181   6.946  0.4172  1.7018  0.9239
34804SOL    HW216138   5.273  10.042   6.968 -1.5409  0.4694 -1.4386
34805SOL     OW16139   7.637  10.056   0.702 -0.1317  0.1411 -0.2670
34805SOL    HW116140   7.718  10.034   0.654  1.1324  1.1914  1.2878
34805SOL    HW216141   7.583   9.978   0.694  1.8137 -1.3284  0.2016
34806SOL     OW16142   0.146   2.798   1.898 -0.3968 -0.2024  0.1578
34806SOL    HW116143   0.084   2.843   1.840 -1.8795 -0.5559  1.3756
34806SOL    HW216144   0.219   2.858   1.907 -0.2908  0.0018 -1.7723
34807SOL     OW16145   4.213   6.288   1.243  0.1486 -0.0176  0.0511
34807SOL    HW116146   4.186   6.256   1.157  1.0850  0.4647 -0.4451
34807SOL    HW216147   4.191   6.218   1.303 -1.5096  0.0614 -0.4119
34808SOL     OW16148  13.548  10.716  10.067 -0.1871  0.2607  1.1328
34808SOL    HW116149  13.480  10.778  10.093  0.0989  1.2900 -0.4396
34808SOL    HW216150  13.623  10.738  10.123 -0.0129  1.5213  0.4372
34809SOL     OW16151   2.034   8.459  10.926 -0.0384  0.0393 -0.1448
34809SOL    HW116152   2.117   8.414  10.912 -0.7647 -2.0025  1.7068
34809SOL    HW216153   2.051   8.517  11.000 -0.6773 -1.7539  1.4808
34810SOL     OW16154   8.949   7.273   8.156 -0.3106 -0.0600 -0.1048
34810SOL    HW116155   8.989   7.317   8.231 -1.9349 -0.1138  0.8368
34810SOL    HW216156   8.989   7.187   8.155 -1.0155 -0.4383  1.3831
34811SOL     OW16157   8.899   7.402   6.547  0.2841  0.1427 -0.2124
34811SOL    HW116158   8.908   7.326   6.605  0.2922  0.7035  0.5343
34811SOL    HW216159   8.955   7.469   6.586 -0.9630  1.0701  0.0483
34812SOL     OW16160   9.545  11.420   2.520  0.1806 -0.5228  0.5166
34812SOL    HW116161   9.534  11.497   2.464 -0.0436  1.5102  3.1655
34812SOL    HW216162   9.458  11.405   2.557  0.2104 -2.1362  0.0410
34813SOL     OW16163   4.490  12.690  12.996 -0.0224 -0.6446 -0.1684
34813SOL    HW116164   4.401  12.661  12.974 -0.2155 -1.1487  1.1696
34813SOL    HW216165   4.489  12.785  12.979 -1.6785 -0.1313  2.3269
34814SOL     OW16166   3.748   8.834   1.835  0.0592  0.8510  0.4812
34814SOL    HW116167   3.722   8.916   1.793 -0.2868  1.6157  2.0974
34814SOL    HW216168   3.719   8.766   1.775 -2.8341  1.7788  0.6747
34815SOL     OW16169  11.099   3.766   0.156 -0.0912 -0.2147 -0.4897
34815SOL    HW116170  11.069   3.685   0.114 -1.0244  1.2717 -2.9435
34815SOL    HW216171  11.148   3.812   0.087  1.6553  0.6976  1.2714
34816SOL     OW16172   8.548  11.605   1.835  0.0051  0.1632  0.5570
34816SOL    HW116173   8.597  11.686   1.818  0.5251 -0.1414  0.5969
34816SOL    HW216174   8.472  11.634   1.885 -1.4179  1.0556 -1.9681
34817SOL     OW16175   9.489  12.148   8.166 -0.5489 -0.2472  0.0554
34817SOL    HW116176   9.413  12.156   8.224 -0.6800  0.8764 -0.2495
34817SOL    HW216177   9.462  12.083   8.101 -0.5595 -1.2040  0.9785
34818SOL     OW16178   2.179  10.666   1.414  0.2297 -0.1490 -0.1604
34818SOL    HW116179   2.210  10.650   1.325 -0.7311 -2.6399 -0.1245
34818SOL    HW216180   2.203  10.757   1.432  2.4847 -0.2645 -2.1124
34819SOL     OW16181   4.450   7.712   9.054  0.6781 -0.0934  0.0825
34819SOL    HW116182   4.423   7.638   9.000  3.6766 -1.2880  0.0589
34819SOL    HW216183   4.522   7.752   9.006  1.5052  0.6162  1.8352
34820SOL     OW16184   2.971   3.977   5.933  0.1064  0.2000 -0.0738
34820SOL    HW116185   2.995   3.902   5.879 -0.7036 -0.5134  0.5360
34820SOL    HW216186   2.878   3.965   5.951  0.2132  0.7754  0.9379
34821SOL     OW16187   6.768  10.974  12.592  0.3887 -0.0005 -0.0331
34821SOL    HW116188   6.795  10.901  12.648  0.4555  1.3126  1.6958
34821SOL    HW216189   6.812  11.051  12.629  0.8781  0.8510 -2.2320
34822SOL     OW16190   4.854   4.220   2.741  0.1931  0.0509  1.1124
34822SOL    HW116191   4.918   4.149   2.731 -0.6359 -0.8292  1.8081
34822SOL    HW216192   4.786   4.200   2.676 -1.2183 -1.1733  2.8675
34823SOL     OW16193   1.089   3.182   9.469 -0.3380  0.5480 -0.0767
34823SOL    HW116194   0.997   3.187   9.494 -0.5575  0.2299 -0.7847
34823SOL    HW216195   1.095   3.102   9.417 -0.1124  1.6503 -1.8289
34824SOL     OW16196   5.706   0.691   8.801 -0.4436  0.1584  0.1368
34824SOL    HW116197   5.712   0.785   8.817 -2.8542  0.3964  0.0037
34824SOL    HW216198   5.753   0.678   8.719  2.6792  0.6416  1.6546
34825SOL     OW16199  10.710   7.319   2.165 -0.3411 -0.5547 -0.1820
34825SOL    HW116200  10.779   7.262   2.199  0.1035  0.4877  0.6980
34825SOL    HW216201  10.662   7.348   2.243 -1.9113 -1.3941 -0.7792
34826SOL     OW16202   1.396   1.962   8.593  0.1384 -0.2291  0.2669
34826SOL    HW116203   1.409   1.936   8.501  2.9824  0.8174  0.2756
34826SOL    HW216204   1.304   1.990   8.597  0.0424  0.1061 -2.3643
34827SOL     OW16205   8.908   1.876   0.522 -0.1477  0.2887 -0.3901
34827SOL    HW116206   8.847   1.950   0.519  0.2778  0.6305 -0.9389
34827SOL    HW216207   8.866   1.812   0.580 -0.3984  1.0636  0.2978
34828SOL     OW16208   5.735   0.975   8.780  0.0963 -0.0647  0.4492
34828SOL    HW116209   5.680   1.051   8.801  1.8574  1.6441 -0.7391
34828SOL    HW216210   5.811   0.984   8.837  0.1580 -1.1520  0.5436
34829SOL     OW16211   5.051  11.518  12.870  0.4549  0.3932 -0.1134
34829SOL    HW116212   5.117  11.464  12.827 -0.0465  0.0563 -0.4584
34829SOL    HW216213   5.023  11.580  12.803  2.3978  2.4084  0.7688
34830SOL     OW16214   1.802   7.590   9.135 -0.2483  0.4872  0.2862
34830SOL    HW116215   1.837   7.599   9.224  1.2469 -0.8757 -0.1055
34830SOL    HW216216   1.712   7.621   9.141  0.1398  1.4084  2.0339
34831SOL     OW16217   2.742   9.972   0.938 -0.4553 -0.2577 -0.1318
34831SOL    HW116218   2.802   9.983   1.012  1.0643 -1.0889 -1.1695
34831SOL    HW216219   2.762  10.045   0.880 -0.3882 -0.5687 -0.5056
34832SOL     OW16220   8.856   1.699  11.019  0.5524 -0.5028 -0.0054
34832SOL    HW116221   8.869   1.732  10.930  0.6623 -3.1016 -1.0410
34832SOL    HW216222   8.866   1.604  11.012 -3.2630 -1.2790  2.0320
34833SOL     OW16223   8.685   8.651   8.501 -0.0032 -0.2824 -0.1700
34833SOL    HW116224   8.732   8.654   8.418  0.1450 -0.1462 -0.0814
34833SOL    HW216225   8.594   8.665   8.477  0.0911  0.1818 -0.2654
34834SOL     OW16226  13.273   2.429   5.010 -0.2656  0.1091 -0.6109
34834SOL    HW116227  13.354   2.461   4.969 -0.2497  1.4895  0.3965
34834SOL    HW216228  13.299   2.348   5.054  0.2603 -0.1327 -1.3525
34835SOL     OW16229   8.161  12.640   6.192  0.1842 -0.4193 -0.5704
34835SOL    HW116230   8.203  12.557   6.216  0.2950 -0.4896 -1.0063
34835SOL    HW216231   8.126  12.673   6.275 -0.2618 -1.1301 -0.4657
34836SOL     OW16232   6.212   9.789   7.932  0.1153 -0.1132  0.2784
34836SOL    HW116233   6.212   9.755   7.842  0.1678 -1.9625  0.9286
34836SOL    HW216234   6.143   9.739   7.976  0.0583  0.8097  1.2632
34837SOL     OW16235   8.144   4.070   5.606 -0.4451 -0.5372 -0.0123
34837SOL    HW116236   8.190   4.141   5.652  0.3469  0.0215 -1.6037
34837SOL    HW216237   8.130   4.004   5.674  1.4677 -0.1230  0.8735
34838SOL     OW16238  10.110   0.151   9.063 -0.6968 -0.0496 -0.3655
34838SOL    HW116239  10.072   0.074   9.021 -0.1227 -1.7022  1.9294
34838SOL    HW216240  10.059   0.162   9.143  1.9260 -0.8611  1.5776
34839SOL     OW16241   2.296   2.400   7.844 -0.4756 -0.6149 -0.2934
34839SOL    HW116242   2.264   2.463   7.908 -1.3522 -1.6018  0.2655
34839SOL    HW216243   2.364   2.448   7.795 -0.4444  0.4424  0.7450
34840SOL     OW16244  10.792   6.187   2.808 -0.1543 -0.0270  0.5651
34840SOL    HW116245  10.703   6.174   2.775  0.9349 -0.0338 -2.6440
34840SOL    HW216246  10.799   6.282   2.820 -0.1974  0.1197 -0.4934
34841SOL     OW16247   4.616  12.104   9.999  0.3458  0.1553  0.7579
34841SOL    HW116248   4.606  12.180  10.057 -0.8456  0.7031 -0.1393
34841SOL    HW216249   4.558  12.122   9.925  0.2787 -1.4962  0.3756
34842SOL     OW16250   9.838  12.567   2.103 -0.4983 -0.4171 -0.2519
34842SOL    HW116251   9.819  12.477   2.129 -0.6494 -0.9426 -2.0160
34842SOL    HW216252   9.754  12.602   2.072 -0.1477 -0.2090 -1.0139
34843SOL     OW16253   6.264   3.581   7.337  0.0218 -0.3690  0.3641
34843SOL    HW116254   6.229   3.667   7.357 -1.3201 -0.4784 -1.2417
34843SOL    HW216255   6.295   3.547   7.421 -0.4215  1.2178  1.2105
34844SOL     OW16256  13.152   3.144   2.302  0.2763  0.1087  0.3321
34844SOL    HW116257  13.200   3.227   2.305  2.3144 -0.8622 -2.1732
34844SOL    HW216258  13.060   3.170   2.305  0.8540  2.3831  0.5052
34845SOL     OW16259   2.205   1.388   6.177 -0.1093  1.0053 -0.3418
34845SOL    HW116260   2.290   1.366   6.139  0.0136 -0.0190  0.4722
34845SOL    HW216261   2.149   1.313   6.154 -0.2747  0.7928  0.6944
34846SOL     OW16262  13.166   2.131  12.619  0.7671 -0.3362 -0.1877
34846SOL    HW116263  13.116   2.087  12.688 -0.3483 -0.7451 -1.2291
34846SOL    HW216264  13.231   2.183  12.667 -0.1538 -0.3886  1.1821
34847SOL     OW16265   0.409   7.411   7.411 -0.6601 -0.4596  0.0864
34847SOL    HW116266   0.333   7.431   7.356 -0.1133 -0.4963 -0.7062
34847SOL    HW216267   0.474   7.376   7.350 -0.3685 -1.3918  0.9129
34848SOL     OW16268   4.309   4.417   0.072  0.5143  0.7497  0.1813
34848SOL    HW116269   4.308   4.502   0.117  1.4571  1.0881 -0.3968
34848SOL    HW216270   4.362   4.432  -0.006  0.8552 -0.4224  0.1678
34849SOL     OW16271   7.101   1.295   4.937 -0.0241 -1.0057 -0.2033
34849SOL    HW116272   7.171   1.353   4.906 -2.4479  2.1993 -0.1879
34849SOL    HW216273   7.112   1.215   4.887  1.9048  0.4519 -2.3103
34850SOL     OW16274   8.864   5.361  12.988  0.2226 -0.2332 -0.3212
34850SOL    HW116275   8.924   5.365  12.914 -0.0537 -0.7136 -0.5730
34850SOL    HW216276   8.903   5.298  13.048  0.4321  0.1348 -0.0695
34851SOL     OW16277  12.058   8.698  11.540 -0.0106  0.2995 -0.0859
34851SOL    HW116278  12.099   8.689  11.626  1.0338  0.1361 -0.5861
34851SOL    HW216279  12.007   8.779  11.547  0.3656  0.4904  0.5685
34852SOL     OW16280   0.109   1.698   1.807 -0.5587  0.3150 -0.3329
34852SOL    HW116281   0.093   1.687   1.714 -3.6769 -0.9081  0.2183
34852SOL    HW216282   0.053   1.772   1.833 -1.1697 -0.5375  0.8632
34853SOL     OW16283   6.456   7.130   6.503 -0.0508 -0.0690  0.1994
34853SOL    HW116284   6.417   7.043   6.512 -0.1212 -0.1387 -0.7105
34853SOL    HW216285   6.434   7.157   6.414  0.4934  0.6281  0.2692
34854SOL     OW16286   9.202  10.280   8.945 -0.5091 -0.5115  0.0997
34854SOL    HW116287   9.161  10.194   8.954  1.8652 -1.6162  1.3009
34854SOL    HW216288   9.246  10.295   9.028  1.4332  0.5764 -1.0365
34855SOL     OW16289  13.544   9.283   2.454  0.8090  0.0520  0.0735
34855SOL    HW116290  13.625   9.287   2.505  0.3690  0.1200  0.7842
34855SOL    HW216291  13.566   9.231   2.377  0.6144 -3.1276  1.9877
34856SOL     OW16292  10.125   9.456   1.528  0.3157 -0.4825  0.3652
34856SOL    HW116293  10.200   9.466   1.470  0.2420  0.0302  0.3502
34856SOL    HW216294  10.159   9.410   1.604  0.2833 -1.7113 -0.3414
34857SOL     OW16295   9.479   1.800   6.631  0.4149 -0.0717  0.4039
34857SOL    HW116296   9.421   1.724   6.633  1.0145 -0.5823 -0.5889
34857SOL    HW216297   9.552   1.773   6.575 -0.7119  2.1585 -2.3955
34858SOL     OW16298   0.791  11.602   3.697 -0.1210 -1.6297 -0.6009
34858SOL    HW116299   0.715  11.546   3.682 -1.8699  0.8100 -1.3049
34858SOL    HW216300   0.802  11.652   3.616  0.5953 -0.0638  0.4067
34859SOL     OW16301   5.982   1.415   1.413 -0.6981 -0.3515  0.1066
34859SOL    HW116302   6.077   1.429   1.419 -0.4516 -1.2930 -1.1036
34859SOL    HW216303   5.949   1.492   1.366 -0.0872 -1.2595 -1.9671
34860SOL     OW16304  12.106   8.129   2.016 -0.3847 -0.5298 -0.4594
34860SOL    HW116305  12.102   8.045   1.970  0.2240 -0.3718 -0.8180
34860SOL    HW216306  12.101   8.194   1.947  1.4309 -0.2920 -0.4198
34861SOL     OW16307   3.796  13.166   3.847 -0.0516 -0.6078 -0.0204
34861SOL    HW116308   3.856  13.236   3.819 -0.5774 -0.3405 -0.5065
34861SOL    HW216309   3.788  13.178   3.942 -0.5749  0.3578 -0.1693
34862SOL     OW16310  11.477  13.159  10.313  0.6724  0.2598 -0.5567
34862SOL    HW116311  11.442  13.178  10.400  2.0305  1.7218 -0.2844
34862SOL    HW216312  11.522  13.075  10.324 -0.6740 -0.4558 -0.3269
34863SOL     OW16313   9.437   1.570   8.724 -0.5123 -0.0114 -0.2376
34863SOL    HW116314   9.393   1.651   8.748 -1.1381  0.0033 -1.3302
34863SOL    HW216315   9.368   1.504   8.727  0.5888 -1.2307  3.7642
34864SOL     OW16316   1.190   2.386   1.686  0.3540 -0.1325  0.4074
34864SOL    HW116317   1.167   2.365   1.596 -0.8485  0.3431  0.5851
34864SOL    HW216318   1.206   2.301   1.727  0.1976 -0.3961 -0.0773
34865SOL     OW16319   8.371   9.791   9.186 -0.1717  0.0707 -0.2775
34865SOL    HW116320   8.400   9.878   9.160  0.2381 -0.0394 -0.2012
34865SOL    HW216321   8.444   9.756   9.237 -0.7657  0.1046  0.6246
34866SOL     OW16322   3.826  11.920   7.808 -0.5972  0.3321 -0.1278
34866SOL    HW116323   3.867  11.993   7.762 -0.3286 -0.6009 -1.4141
34866SOL    HW216324   3.894  11.887   7.867 -1.1813  2.0121  1.5978
34867SOL     OW16325  10.652  13.523   9.948 -0.7749  0.9270 -0.8546
34867SOL    HW116326  10.636  13.613   9.919 -1.0656  0.6511 -1.5513
34867SOL    HW216327  10.713  13.533  10.021  0.9642  1.5558 -2.3275
34868SOL     OW16328   9.066   4.724   7.131 -0.3746  0.3173  0.5868
34868SOL    HW116329   9.152   4.740   7.093 -0.3999  1.3476  0.9355
34868SOL    HW216330   9.009   4.706   7.056  0.3551 -1.4797  0.4290
34869SOL     OW16331   5.714  10.293   1.382 -0.2111  0.3073 -0.4016
34869SOL    HW116332   5.700  10.382   1.415 -0.4448  0.7475 -1.6222
34869SOL    HW216333   5.661  10.238   1.440  0.8934  0.7949  1.1341
34870SOL     OW16334   2.542   1.609   5.266 -0.0881 -0.8584  0.0775
34870SOL    HW116335   2.512   1.597   5.176  0.1622  2.6306 -0.5897
34870SOL    HW216336   2.464   1.637   5.314  0.1784 -0.8236  0.4964
34871SOL     OW16337   9.806  13.604   5.411  0.2404 -0.5856 -0.3706
34871SOL    HW116338   9.764  13.678   5.455  1.3318 -0.7370  0.9855
34871SOL    HW216339   9.890  13.594   5.455  1.0390 -1.2943 -1.9595
34872SOL     OW16340  10.339   9.423   0.734 -0.5323 -0.4997 -0.6408
34872SOL    HW116341  10.409   9.382   0.784 -0.3532 -1.3490 -1.5513
34872SOL    HW216342  10.367   9.514   0.722 -1.1047  0.0472  1.7191
34873SOL     OW16343   2.078   4.944   5.892  0.3765 -0.1660 -0.0958
34873SOL    HW116344   2.014   4.892   5.843 -2.5982  2.1972  1.0130
34873SOL    HW216345   2.061   4.923   5.984  2.2349 -0.5319  0.2130
34874SOL     OW16346   4.260   7.703   8.333 -0.3152  0.1631  0.0260
34874SOL    HW116347   4.218   7.766   8.391  1.1374  1.1434  0.0655
34874SOL    HW216348   4.346   7.741   8.314 -0.3484 -0.6344 -1.9271
34875SOL     OW16349   4.403   8.081   4.172 -0.5876 -0.1399  0.3915
34875SOL    HW116350   4.391   8.127   4.089 -2.2488 -0.9708  0.1311
34875SOL    HW216351   4.383   7.989   4.152  0.1344 -0.5412  1.4533
34876SOL     OW16352   2.543   4.315   4.653  0.1758 -0.0333  0.0293
34876SOL    HW116353   2.502   4.355   4.576 -2.0236 -1.1336  0.5402
34876SOL    HW216354   2.516   4.223   4.649  0.8070 -0.3134  1.6240
34877SOL     OW16355   2.997   2.095   8.690 -0.0697  0.0300  0.2083
34877SOL    HW116356   3.078   2.110   8.737 -1.3363  0.3302  2.4336
34877SOL    HW216357   3.006   2.006   8.655  1.3265  0.1943  0.0911
34878SOL     OW16358  12.870   6.296   2.204 -0.2320 -0.4689  0.0752
34878SOL    HW116359  12.828   6.218   2.168 -0.8816  0.4167 -1.1826
34878SOL    HW216360  12.804   6.334   2.262 -0.9346  0.4973 -1.2959
34879SOL     OW16361   8.715   7.521   2.199 -0.2514 -0.1158  0.4111
34879SOL    HW116362   8.716   7.596   2.140  2.8169 -1.0398 -0.8995
34879SOL    HW216363   8.732   7.445   2.143 -1.7210 -1.6367  1.9098
34880SOL     OW16364   0.484  12.575   0.153  0.4931  1.0380  0.9392
34880SOL    HW116365   0.396  12.612   0.147  1.9584  4.7452 -1.8049
34880SOL    HW216366   0.534  12.640   0.202  2.5031  1.0783 -1.0064
34881SOL     OW16367   3.469   3.228   3.895  0.7017  0.3525  0.3655
34881SOL    HW116368   3.563   3.210   3.888  0.6643  0.3270 -0.1338
34881SOL    HW216369   3.429   3.173   3.827  0.4448  1.2593 -0.2263
34882SOL     OW16370   9.778  13.629   2.552  0.3978  0.3242  0.0313
34882SOL    HW116371   9.835  13.639   2.476 -0.4060  1.4001 -0.4482
34882SOL    HW216372   9.818  13.685   2.619  0.5150  0.2143  0.0527
34883SOL     OW16373   0.478  13.573   8.578 -0.4852  0.0382  1.1176
34883SOL    HW116374   0.529  13.653   8.592  1.6760 -1.3069  1.2863
34883SOL    HW216375   0.471  13.566   8.483  1.1164 -0.6053  1.0183
34884SOL     OW16376   2.648  11.209   6.511 -0.1308  0.2022  0.0475
34884SOL    HW116377   2.743  11.205   6.501 -0.1592 -0.0895 -0.1306
34884SOL    HW216378   2.616  11.132   6.464 -0.7752  2.5189 -3.7661
34885SOL     OW16379  11.881   1.360   1.110  0.6262  0.0216 -0.2569
34885SOL    HW116380  11.839   1.293   1.056 -1.3239  1.2330 -0.3479
34885SOL    HW216381  11.864   1.442   1.064 -0.7697  1.0534  1.9391
34886SOL     OW16382   7.342  13.272   4.445 -0.4224  0.1289 -0.6097
34886SOL    HW116383   7.415  13.331   4.428  0.8883 -0.7382  1.6297
34886SOL    HW216384   7.321  13.234   4.360 -0.8150  3.1766 -1.9922
34887SOL     OW16385   1.969  10.505   2.193  0.4574 -0.6239  0.3668
34887SOL    HW116386   2.055  10.476   2.223  0.1897 -1.9890 -0.1251
34887SOL    HW216387   1.912  10.497   2.269  0.5573 -0.6478  0.4384
34888SOL     OW16388   7.026  11.246   0.734 -0.2477 -0.2142  0.2156
34888SOL    HW116389   7.089  11.178   0.754  0.7531 -0.1791 -2.4478
34888SOL    HW216390   6.963  11.205   0.675 -0.6184  0.7119 -0.0625
34889SOL     OW16391   5.276  12.337   8.763  0.0074  0.1132 -0.1393
34889SOL    HW116392   5.249  12.393   8.690 -1.6032  0.1672  0.4463
34889SOL    HW216393   5.236  12.377   8.840  1.6922  0.0699  0.8073
34890SOL     OW16394   2.092   5.364  12.871  0.6195  0.5379 -0.1838
34890SOL    HW116395   2.026   5.428  12.896 -0.9181 -1.5928  1.6676
34890SOL    HW216396   2.044   5.298  12.822  1.6175 -0.4361  0.1130
34891SOL     OW16397   5.058  10.632  13.497  0.4325 -0.0369  0.4825
34891SOL    HW116398   4.989  10.568  13.480 -0.8691  0.6719  2.6952
34891SOL    HW216399   5.013  10.708  13.535  2.2873  0.9491  0.8736
34892SOL     OW16400   5.718   8.814   6.434 -0.6192 -0.2710  0.2633
34892SOL    HW116401   5.669   8.891   6.463  1.4612  1.5050 -0.6207
34892SOL    HW216402   5.747   8.836   6.345  0.0783 -2.0655 -0.0025
34893SOL     OW16403   4.074   8.129  10.893  0.1177  0.4030 -0.3133
34893SOL    HW116404   4.164   8.162  10.898 -0.2308  1.1882  1.4946
34893SOL    HW216405   4.038   8.170  10.815  1.7416 -1.0935 -1.9437
34894SOL     OW16406   2.989   8.000  10.106 -0.1262 -0.2743 -0.2346
34894SOL    HW116407   2.897   8.001  10.080 -0.3291 -0.1443  0.4653
34894SOL    HW216408   3.033   8.058  10.044 -1.2308  3.1749  1.8994
34895SOL     OW16409   5.266  12.103   5.767  0.2071 -0.2676 -0.0577
34895SOL    HW116410   5.222  12.164   5.826  2.1598  0.2037  1.0326
34895SOL    HW216411   5.254  12.017   5.807  1.8042  0.0890  1.2914
34896SOL     OW16412   4.475   6.749   5.577 -0.4798 -0.0598 -0.0089
34896SOL    HW116413   4.544   6.685   5.561 -2.0030 -2.3993  2.1073
34896SOL    HW216414   4.464   6.794   5.493  2.0512 -1.1370 -1.0077
34897SOL     OW16415   5.586   2.004   0.976  0.0340  0.2633 -0.2846
34897SOL    HW116416   5.542   2.018   0.892  1.8238 -0.8195 -1.4823
34897SOL    HW216417   5.629   2.088   0.995  0.3777  0.2408 -0.9394
34898SOL     OW16418  11.986   0.259   7.525 -0.4501  0.4606 -0.5215
34898SOL    HW116419  12.030   0.224   7.602 -1.0126  1.6710  0.3677
34898SOL    HW216420  12.022   0.208   7.452  1.0116  0.1471  0.3885
34899SOL     OW16421  10.642   9.191   2.661  0.0778  0.0020  0.6485
34899SOL    HW116422  10.685   9.248   2.597  1.2369 -0.7926  0.6778
34899SOL    HW216423  10.667   9.228   2.746 -0.3652  0.2846  0.6577
34900SOL     OW16424  11.643  11.595  10.208 -0.1464  0.5390 -0.3012
34900SOL    HW116425  11.582  11.625  10.140 -1.2432 -2.7091 -0.9233
34900SOL    HW216426  11.598  11.614  10.290  0.2023  2.4737 -0.5056
34901SOL     OW16427   4.984  13.702   8.764  0.3404  0.2625 -0.1566
34901SOL    HW116428   5.077  13.682   8.775 -0.1139 -1.4784  1.1280
34901SOL    HW216429   4.940  13.618   8.777 -1.3639  0.8346 -1.8245
34902SOL     OW16430   0.087   7.088   7.689  0.1728 -0.1843 -0.3318
34902SOL    HW116431   0.142   7.104   7.612  1.0967 -1.4881  0.0299
34902SOL    HW216432   0.138   7.122   7.762  0.3807 -1.1275 -0.0274
34903SOL     OW16433   1.423   8.398   0.136  0.3704  0.2530  0.1815
34903SOL    HW116434   1.477   8.426   0.063  1.5685  0.2527  1.0370
34903SOL    HW216435   1.461   8.441   0.212 -0.8554  0.2618  0.8107
34904SOL     OW16436  12.363   6.982   5.940 -0.1893  0.2971  0.1426
34904SOL    HW116437  12.399   7.035   5.869 -0.5191 -0.2352 -0.4309
34904SOL    HW216438  12.366   6.892   5.907 -0.1077  0.0123  0.9045
34905SOL     OW16439  10.630   1.504   3.386 -0.4773 -0.4723  0.4319
34905SOL    HW116440  10.560   1.535   3.443  0.3702  0.8291  0.8196
34905SOL    HW216441  10.710   1.529   3.432  0.2293 -0.8373 -0.5803
34906SOL     OW16442   7.673   1.887   0.209 -0.3220  0.0460 -0.0915
34906SOL    HW116443   7.682   1.979   0.232 -0.1070 -0.1121  0.4795
34906SOL    HW216444   7.760   1.861   0.179 -0.2550 -0.0873  0.2061
34907SOL     OW16445   0.860   2.710  10.779 -0.5440  0.1083 -0.2125
34907SOL    HW116446   0.811   2.628  10.775 -0.6911  0.2201 -0.7973
34907SOL    HW216447   0.880   2.722  10.872  1.1464 -1.5773 -0.3035
34908SOL     OW16448   9.569   2.282   3.381  0.1063  0.1163  0.2409
34908SOL    HW116449   9.484   2.253   3.413 -0.1010  0.2643 -0.1759
34908SOL    HW216450   9.610   2.204   3.343  0.1744  0.0385  0.4687
34909SOL     OW16451  10.995   3.919   5.652  0.3492  0.1103 -0.6346
34909SOL    HW116452  11.017   3.859   5.580  0.7526 -0.4499 -0.0496
34909SOL    HW216453  10.991   3.863   5.729 -1.5175  0.4640 -0.4386
34910SOL     OW16454   2.422   4.428   0.804  0.2028  0.2198  0.2646
34910SOL    HW116455   2.354   4.458   0.864 -0.6071  1.2413 -1.1314
34910SOL    HW216456   2.474   4.367   0.857 -0.3912  1.1789  2.0460
34911SOL     OW16457   3.902   4.714  11.561  0.2873 -0.2923 -0.6262
34911SOL    HW116458   3.967   4.646  11.545  0.6566  0.0150 -0.4275
34911SOL    HW216459   3.933   4.760  11.639  1.2821  1.6223 -2.0638
34912SOL     OW16460  11.765   8.368   3.472 -0.3027 -0.0426 -0.2186
34912SOL    HW116461  11.821   8.371   3.395 -0.0492 -0.1099 -0.0392
34912SOL    HW216462  11.679   8.394   3.441  0.1510  1.5896 -0.1919
34913SOL     OW16463   6.255   8.846   9.226 -0.3099 -0.1156 -0.4285
34913SOL    HW116464   6.235   8.899   9.148 -0.2026 -0.5822 -0.7759
34913SOL    HW216465   6.173   8.847   9.277 -1.0282 -1.4332 -1.5003
34914SOL     OW16466  10.716   5.491   2.872 -0.0696 -0.0488 -0.7062
34914SOL    HW116467  10.736   5.399   2.886  0.3745  0.2465  0.6840
34914SOL    HW216468  10.621   5.493   2.859 -0.2045 -0.5988  0.1496
34915SOL     OW16469   1.877   7.829  11.268  0.4450  0.1404  0.0983
34915SOL    HW116470   1.956   7.823  11.322  1.4798 -0.5494 -1.4309
34915SOL    HW216471   1.810   7.864  11.327  1.8719  0.6889  1.4517
34916SOL     OW16472   0.370   8.086   3.136 -0.0592  0.6622  0.2982
34916SOL    HW116473   0.365   8.128   3.222 -2.0983 -0.5430  0.8434
34916SOL    HW216474   0.279   8.067   3.114  0.6807 -3.5007  0.1564
34917SOL     OW16475   4.144   9.408  10.317  0.2347  0.4094  0.0952
34917SOL    HW116476   4.140   9.434  10.409 -0.6313  1.6908 -0.2759
34917SOL    HW216477   4.113   9.318  10.316  0.8578  0.1604  1.1281
34918SOL     OW16478  12.058   6.868   4.282 -0.1630 -0.3073  0.1633
34918SOL    HW116479  12.136   6.839   4.331  0.3736  0.3133 -0.3192
34918SOL    HW216480  12.035   6.952   4.321  0.9522  0.7465 -1.3882
34919SOL     OW16481   7.285   1.199  10.519  0.1479  0.3307 -0.6378
34919SOL    HW116482   7.260   1.155  10.600 -0.7979  0.8634 -0.6262
34919SOL    HW216483   7.248   1.143  10.450  0.3954  0.2224 -0.6846
34920SOL     OW16484   2.999  10.291  11.886  0.3505  0.0531 -0.2620
34920SOL    HW116485   3.046  10.374  11.878 -0.3061  0.3300 -1.4365
34920SOL    HW216486   3.039  10.248  11.962  1.9520  0.6197 -0.7492
34921SOL     OW16487   0.916   5.119   1.308 -0.2371  0.2067  0.4733
34921SOL    HW116488   0.896   5.115   1.401  2.0640 -0.6718  0.9908
34921SOL    HW216489   0.951   5.208   1.295  0.2243  0.0483  0.6270
34922SOL     OW16490  12.935   1.436   9.287  0.7231  0.7555  0.3151
34922SOL    HW116491  12.899   1.351   9.261 -0.8025  1.1303  1.0612
34922SOL    HW216492  12.965   1.475   9.205  0.6004 -0.1191 -0.1629
34923SOL     OW16493  12.649   1.685   2.969  0.4452 -0.7537  0.7597
34923SOL    HW116494  12.729   1.650   3.008  1.9737  0.8221 -0.7987
34923SOL    HW216495  12.656   1.780   2.981  0.2554 -0.3237 -1.8660
34924SOL     OW16496  12.683   6.079   9.214  0.0043 -0.2669  0.4729
34924SOL    HW116497  12.719   5.991   9.216  1.3765  0.0512 -2.8946
34924SOL    HW216498  12.751   6.132   9.171 -1.5525  1.9946  0.5863
34925SOL     OW16499   4.692  11.653   1.885 -0.0082  0.0021 -0.3612
34925SOL    HW116500   4.686  11.603   1.967 -0.4412 -1.9307 -1.5318
34925SOL    HW216501   4.604  11.653   1.850  0.1573  0.9082 -0.8112
34926SOL     OW16502   0.115  11.142   5.996  0.2124 -0.0663  0.1427
34926SOL    HW116503   0.077  11.094   5.922 -0.5628 -0.2597  0.6529
34926SOL    HW216504   0.209  11.129   5.987  0.3757  1.9122 -2.1862
34927SOL     OW16505  10.550   4.015  11.073 -0.2082  0.5154 -0.0681
34927SOL    HW116506  10.522   3.924  11.075 -0.9492  0.7088 -1.0537
34927SOL    HW216507  10.578   4.030  10.982  0.9457  0.9666  0.3424
34928SOL     OW16508   2.561   8.293   0.530 -0.0610  0.4312  0.3491
34928SOL    HW116509   2.620   8.346   0.584  0.4183 -1.1130  1.3882
34928SOL    HW216510   2.476   8.336   0.539  0.7910  2.6353 -1.0826
34929SOL     OW16511   9.560   3.946   8.188 -0.1514  0.4437  0.1231
34929SOL    HW116512   9.640   3.945   8.136 -0.3802  1.8610 -0.3139
34929SOL    HW216513   9.589   3.972   8.276  0.1743 -1.5032  0.6264
34930SOL     OW16514  11.274   4.988   2.992  0.0541  0.1023 -0.1385
34930SOL    HW116515  11.357   5.019   3.028  0.5506 -1.1147 -0.1865
34930SOL    HW216516  11.268   4.897   3.020 -1.4251  0.2600  0.1260
34931SOL     OW16517   1.665   5.812   7.590 -0.2289 -0.4420 -0.4274
34931SOL    HW116518   1.742   5.846   7.546 -1.1203  0.5905 -1.2584
34931SOL    HW216519   1.680   5.830   7.683 -0.7214  2.5506 -0.8134
34932SOL     OW16520   6.241  13.246  10.769 -0.2122 -0.4755  0.1327
34932SOL    HW116521   6.146  13.250  10.769 -0.1849  0.4830  0.4348
34932SOL    HW216522   6.263  13.191  10.695 -0.9912 -0.3247 -0.2188
34933SOL     OW16523   7.869   4.907   7.935 -0.4018  0.4457  0.2789
34933SOL    HW116524   7.964   4.920   7.934 -0.3920  0.3626 -0.2154
34933SOL    HW216525   7.848   4.880   7.845 -0.7813 -0.3150  0.5858
34934SOL     OW16526   3.968   4.877   8.121 -0.2596 -0.1825  0.0726
34934SOL    HW116527   3.957   4.810   8.052  0.3148 -0.2266  0.0251
34934SOL    HW216528   3.987   4.827   8.200 -4.0517 -0.4005  1.0554
34935SOL     OW16529   0.171   4.153   1.432 -0.6885  0.4303  0.2487
34935SOL    HW116530   0.188   4.233   1.482  0.2528  0.2330  0.2770
34935SOL    HW216531   0.176   4.180   1.341 -2.7584  0.8624  0.2103
34936SOL     OW16532   0.766  10.352   7.035  0.7226  0.6060  0.1954
34936SOL    HW116533   0.679  10.373   7.068 -0.0334  0.0299 -1.3528
34936SOL    HW216534   0.799  10.285   7.095 -0.3691  0.0166  0.1646
34937SOL     OW16535   5.320  12.330   6.009 -0.0614 -0.3137 -0.2539
34937SOL    HW116536   5.341  12.361   5.921 -1.6440 -0.6946 -0.8047
34937SOL    HW216537   5.401  12.291   6.041  0.5630 -0.0948 -1.5060
34938SOL     OW16538   4.404  11.406   2.866  0.0744 -0.3823  0.4331
34938SOL    HW116539   4.361  11.491   2.854 -1.0352 -0.9309  0.4379
34938SOL    HW216540   4.397  11.363   2.780  1.0998 -0.2776  0.2772
34939SOL     OW16541   5.272   4.079  10.945 -0.2705  0.7115 -0.0330
34939SOL    HW116542   5.318   4.092  11.028 -0.3376 -0.5342  0.2323
34939SOL    HW216543   5.327   4.122  10.880  1.1882 -0.5488  0.3107
34940SOL     OW16544   4.202   1.627   8.453  0.0457  0.5077  0.0271
34940SOL    HW116545   4.184   1.718   8.476  2.0808  0.5967  1.5594
34940SOL    HW216546   4.290   1.629   8.415  1.6534 -1.1437  3.2587
34941SOL     OW16547   0.940  12.758  13.370 -0.1270 -0.0658 -0.1501
34941SOL    HW116548   0.860  12.760  13.424 -1.3941 -1.2072 -1.8752
34941SOL    HW216549   1.010  12.784  13.430 -2.0023  2.8797  0.9981
34942SOL     OW16550  12.622   9.535   8.515  0.0408 -0.6306 -0.2469
34942SOL    HW116551  12.634   9.441   8.521  1.3313 -0.3925  1.8795
34942SOL    HW216552  12.666   9.560   8.434 -1.4319 -1.9480 -1.5311
34943SOL     OW16553  10.925   0.381  12.342  0.0667 -0.3845 -0.0419
34943SOL    HW116554  10.991   0.446  12.316 -0.1632 -0.3664 -0.6028
34943SOL    HW216555  10.844   0.431  12.348  0.1557 -0.3373  0.9971
34944SOL     OW16556  10.477   0.462   9.888 -0.1993  0.3618 -0.1875
34944SOL    HW116557  10.523   0.544   9.872 -1.9694  2.1812  2.9583
34944SOL    HW216558  10.531   0.416   9.953 -0.6467  0.4758  0.2776
34945SOL     OW16559  11.564  12.778   3.783 -0.0423  0.4756  0.1024
34945SOL    HW116560  11.528  12.756   3.869  2.1156 -1.3930  0.6465
34945SOL    HW216561  11.659  12.776   3.796  0.4719 -2.1983 -2.7445
34946SOL     OW16562   3.088   5.005   5.164  0.1274 -0.5250 -0.5276
34946SOL    HW116563   3.091   5.012   5.260 -0.8742 -0.6883 -0.4737
34946SOL    HW216564   3.168   4.957   5.142  0.4230 -0.3968  0.2210
34947SOL     OW16565  13.733   9.258   4.255  0.2246 -0.0344 -0.1795
34947SOL    HW116566  13.663   9.316   4.283  0.2348  0.0404 -0.3093
34947SOL    HW216567  13.703   9.170   4.279  0.9207  0.1560  1.5335
34948SOL     OW16568   6.077   5.756  10.330 -0.3723  0.2701  0.2470
34948SOL    HW116569   6.070   5.661  10.333  2.8729 -0.0830  0.2671
34948SOL    HW216570   6.065   5.778  10.237  0.0787 -0.3111  0.0477
34949SOL     OW16571   0.035   0.190  12.637  0.1112 -0.1698  0.2691
34949SOL    HW116572  -0.056   0.161  12.625 -0.0436  0.9218 -1.4021
34949SOL    HW216573   0.027   0.278  12.674  0.4781  0.1684 -0.4573
34950SOL     OW16574   3.612   5.311   7.025 -0.2945 -0.0805 -0.0682
34950SOL    HW116575   3.614   5.352   6.938 -1.4121 -0.9509 -0.5252
34950SOL    HW216576   3.704   5.307   7.051 -0.1344  3.3695  0.3496
34951SOL     OW16577   2.315  12.028  12.543 -0.0402 -0.0450 -0.7003
34951SOL    HW116578   2.243  12.046  12.482  0.7861  1.1886 -1.3566
34951SOL    HW216579   2.276  12.037  12.630 -0.1601  3.5132 -0.9605
34952SOL     OW16580   5.010   3.936   9.857  0.0119  0.5529 -0.3788
34952SOL    HW116581   5.002   3.987   9.938 -1.2143  0.3690 -0.3671
34952SOL    HW216582   5.100   3.902   9.859 -0.3574 -0.4634  1.5400
34953SOL     OW16583   2.369   6.220   5.980  0.3349 -0.4264  0.7732
34953SOL    HW116584   2.445   6.239   6.035  0.1020 -0.5661  1.1409
34953SOL    HW216585   2.407   6.195   5.896  0.6629  1.0628  0.4534
34954SOL     OW16586   6.661   9.903   3.205 -0.7165  0.4392 -0.4860
34954SOL    HW116587   6.668   9.879   3.297 -0.9190 -5.5157 -1.6164
34954SOL    HW216588   6.748   9.935   3.182  0.9722 -2.6521  0.9317
34955SOL     OW16589  10.382   4.914   2.725  0.4649 -0.4728  0.3279
34955SOL    HW116590  10.368   4.820   2.711  1.8266 -0.2539 -3.8893
34955SOL    HW216591  10.415   4.921   2.815 -0.0587 -3.9414  0.9104
34956SOL     OW16592   7.268  12.668   6.878  0.2902  0.3989  0.4067
34956SOL    HW116593   7.244  12.589   6.830  2.0797 -0.3883  0.7107
34956SOL    HW216594   7.189  12.690   6.929 -0.4878 -0.7308 -0.2656
34957SOL     OW16595  11.222  12.493   3.098 -0.1424  0.6293  0.3773
34957SOL    HW116596  11.136  12.523   3.127  0.0060  1.2298  0.2035
34957SOL    HW216597  11.204  12.441   3.020 -0.6054 -1.4430  1.7693
34958SOL     OW16598   3.080   9.054   0.882  0.1592  0.1244  0.2303
34958SOL    HW116599   3.128   8.974   0.861  1.3430  0.1104  2.6879
34958SOL    HW216600   3.008   9.055   0.819  0.0150 -2.9214  0.1761
34959SOL     OW16601  13.040   4.035   6.173 -0.1078  0.2003  0.3600
34959SOL    HW116602  12.961   3.981   6.181  0.5395 -0.6996  0.8808
34959SOL    HW216603  13.025   4.089   6.095 -0.6452 -0.9710 -0.3717
34960SOL     OW16604   3.867   3.346   7.067  0.2164 -0.7098  0.4895
34960SOL    HW116605   3.781   3.311   7.091  0.6999 -1.4715  1.1732
34960SOL    HW216606   3.884   3.311   6.980 -0.4843  0.0631  0.0239
34961SOL     OW16607  12.731  11.293   4.807  0.6176  0.1136  0.5039
34961SOL    HW116608  12.792  11.359   4.839  0.8577  0.6358 -0.9774
34961SOL    HW216609  12.701  11.326   4.723  1.6791 -2.2105 -0.8750
34962SOL     OW16610   0.734   1.498  12.504  0.5460 -0.8355 -0.0497
34962SOL    HW116611   0.699   1.510  12.416  0.6268 -0.2462 -0.0049
34962SOL    HW216612   0.786   1.577  12.520  1.3825 -1.4099  0.1234
34963SOL     OW16613   4.420   3.301   6.559  0.1985 -0.0193 -0.0414
34963SOL    HW116614   4.449   3.389   6.538 -1.5944  1.0312  1.5696
34963SOL    HW216615   4.407   3.259   6.474 -2.0141  2.3752 -1.0410
34964SOL     OW16616  11.552   8.480  10.297  0.5740  0.1019 -0.3173
34964SOL    HW116617  11.634   8.518  10.330  0.5969 -0.4072  0.2263
34964SOL    HW216618  11.485   8.544  10.320  0.3307 -0.9448  2.2789
34965SOL     OW16619   4.271  12.981  10.973  0.7107  0.3254 -0.0412
34965SOL    HW116620   4.323  12.913  11.016 -0.5342  0.0024  1.0166
34965SOL    HW216621   4.289  13.060  11.023  0.8948  0.4244 -0.2598
34966SOL     OW16622   5.303   0.322   7.536 -0.0827  0.3591  0.0932
34966SOL    HW116623   5.340   0.389   7.593 -1.6690  3.6609 -2.4351
34966SOL    HW216624   5.228   0.287   7.584  1.7770 -1.0562  2.1726
34967SOL     OW16625   7.744  11.418   6.431 -0.0896 -0.2707  0.5736
34967SOL    HW116626   7.711  11.348   6.375  1.7498 -0.9732  0.2936
34967SOL    HW216627   7.676  11.430   6.498  0.0376 -3.1828  1.3630
34968SOL     OW16628   9.355  10.608   4.077  0.1953 -0.1410 -0.6870
34968SOL    HW116629   9.386  10.642   4.161  0.9560 -0.0275 -1.0108
34968SOL    HW216630   9.304  10.679   4.039  1.7487  0.6548 -1.3498
34969SOL     OW16631   1.095  12.582  10.210 -0.2661  0.4908  0.2249
34969SOL    HW116632   1.159  12.654  10.203  0.8529 -0.4350  0.6680
34969SOL    HW216633   1.106  12.549  10.299 -0.7657 -0.2313  0.0247
34970SOL     OW16634  11.279   1.317  12.984 -0.8087 -0.0420 -0.1298
34970SOL    HW116635  11.325   1.268  13.052 -0.5656  0.2905 -0.0515
34970SOL    HW216636  11.279   1.408  13.015 -1.2647  0.0096 -0.2673
34971SOL     OW16637   2.614   5.626   4.645 -0.2593  0.1325  0.7903
34971SOL    HW116638   2.627   5.535   4.673  0.0175  0.2871  1.1700
34971SOL    HW216639   2.702   5.663   4.645 -0.4103  0.4900  0.9404
34972SOL     OW16640   3.215   0.115  12.653 -0.7755 -0.2911  0.1228
34972SOL    HW116641   3.265   0.123  12.734 -1.5742  1.1551  0.5126
34972SOL    HW216642   3.170   0.199  12.644  0.5884  0.2813 -2.7182
34973SOL     OW16643   7.972  10.988  13.025 -0.0509  0.0633 -0.6884
34973SOL    HW116644   7.979  11.049  13.099  0.0398 -0.2221 -0.4562
34973SOL    HW216645   7.897  11.019  12.975 -0.8896 -0.4600  0.2025
34974SOL     OW16646  10.217   2.299   2.180  0.2151  0.0383  0.0129
34974SOL    HW116647  10.125   2.280   2.198  0.1291  0.3731 -0.0481
34974SOL    HW216648  10.257   2.310   2.266  0.1065  0.2810  0.0356
34975SOL     OW16649   0.099  11.087   2.384  0.2074  0.1727  0.4710
34975SOL    HW116650   0.037  11.141   2.335  0.0322 -0.9562 -0.5950
34975SOL    HW216651   0.085  11.112   2.475 -2.4302 -0.5810  0.3662
34976SOL     OW16652  10.874   1.284   1.973 -0.1615  0.1313 -0.2463
34976SOL    HW116653  10.918   1.368   1.982 -1.0592  0.5122  0.7103
34976SOL    HW216654  10.927   1.223   2.025 -0.7281  0.5887  0.9067
34977SOL     OW16655   2.744  13.022   6.808 -0.3506  0.2405  0.0180
34977SOL    HW116656   2.800  13.070   6.747  0.6412 -0.0976  0.6476
34977SOL    HW216657   2.780  13.041   6.894 -1.0057 -0.2489  0.4108
34978SOL     OW16658   8.706  12.653   7.775 -0.7093 -0.1893 -0.4525
34978SOL    HW116659   8.795  12.670   7.806 -1.0373  0.3463  0.1942
34978SOL    HW216660   8.703  12.558   7.763 -0.5196 -0.3895  0.9759
34979SOL     OW16661   5.130   9.761   9.701  0.3315 -0.2811 -0.0253
34979SOL    HW116662   5.104   9.778   9.611 -1.6265  0.2678  0.5912
34979SOL    HW216663   5.140   9.848   9.739 -2.1288 -0.4086  1.1121
34980SOL     OW16664   0.761   9.008   8.520 -0.7103 -0.1588 -0.3879
34980SOL    HW116665   0.829   8.947   8.548 -0.1049  0.5243 -0.3380
34980SOL    HW216666   0.705   9.019   8.596  0.3386  0.8913  0.2709
34981SOL     OW16667   6.119   4.969   6.814  0.0796  0.2045  0.2820
34981SOL    HW116668   6.031   5.006   6.817  0.4157  1.2082 -1.0416
34981SOL    HW216669   6.177   5.044   6.819  0.8499 -0.3817  0.3995
34982SOL     OW16670  12.547   2.674   6.774  0.1055 -0.7760 -0.0160
34982SOL    HW116671  12.602   2.705   6.845 -2.3476 -0.1893  1.7522
34982SOL    HW216672  12.560   2.739   6.704  1.0971 -0.2782  0.6102
34983SOL     OW16673   8.105   1.439  10.725  0.0534  0.3639  0.0341
34983SOL    HW116674   8.133   1.348  10.712  0.8757  0.4968  0.7961
34983SOL    HW216675   8.176   1.479  10.775 -0.5572  1.2876  0.1804
34984SOL     OW16676   2.749   0.030   7.482 -0.1001 -0.0352 -0.4617
34984SOL    HW116677   2.673   0.075   7.518  0.1321 -1.6384  2.3786
34984SOL    HW216678   2.723  -0.063   7.482  0.9869 -0.3593 -1.8174
34985SOL     OW16679   0.744   4.155  12.650 -0.0416  0.3347  0.2080
34985SOL    HW116680   0.734   4.240  12.608  0.6572  0.8407  1.0478
34985SOL    HW216681   0.822   4.117  12.609  1.1912  1.2222  1.6592
34986SOL     OW16682  13.345   2.700  12.763  0.5093 -0.5833  0.2925
34986SOL    HW116683  13.384   2.665  12.843 -0.1948  0.5397  1.1566
34986SOL    HW216684  13.255   2.667  12.764 -0.0520  0.8795  0.9294
34987SOL     OW16685  12.559   9.014   6.210 -0.5033  0.1809  0.5827
34987SOL    HW116686  12.631   8.991   6.152  0.3424 -1.4373  2.1572
34987SOL    HW216687  12.480   8.993   6.161  0.1087  0.9219 -0.7554
34988SOL     OW16688   4.068  12.758   8.587  0.5005 -1.1259 -0.4301
34988SOL    HW116689   3.978  12.783   8.604  0.9543  0.3745  0.0023
34988SOL    HW216690   4.063  12.695   8.515 -0.7583  1.0508 -2.3931
34989SOL     OW16691   2.730   7.719   6.942  0.3336  0.4291 -0.8185
34989SOL    HW116692   2.643   7.749   6.915 -0.2134 -0.9797 -0.6615
34989SOL    HW216693   2.714   7.639   6.991  1.5172  1.4234  1.3644
34990SOL     OW16694   8.718  11.484   5.618 -0.1106  0.0826  0.2567
34990SOL    HW116695   8.689  11.475   5.527 -0.5652  0.7599  0.3282
34990SOL    HW216696   8.767  11.567   5.620 -0.0881  0.0636  0.6267
34991SOL     OW16697  13.254   2.368  10.212  0.6036 -0.1497 -0.2232
34991SOL    HW116698  13.161   2.346  10.209  0.9049 -1.4840 -0.6635
34991SOL    HW216699  13.256   2.463  10.199 -0.6669 -0.1730 -0.8539
34992SOL     OW16700   5.436  13.404   2.764  0.4251 -0.1519 -0.3580
34992SOL    HW116701   5.350  13.381   2.728 -0.1367  1.1048  0.1247
34992SOL    HW216702   5.421  13.414   2.858  1.0787  0.1564 -0.2793
34993SOL     OW16703   2.333   7.756   3.625 -0.0188 -0.2196 -0.4536
34993SOL    HW116704   2.389   7.833   3.617 -0.1279 -0.2112 -1.2030
34993SOL    HW216705   2.354   7.720   3.711  0.9316 -0.0508 -0.6085
34994SOL     OW16706   6.435  12.002  11.911  0.2917 -0.5642 -0.0858
34994SOL    HW116707   6.482  11.919  11.910  1.7935  0.2421 -1.3917
34994SOL    HW216708   6.503  12.068  11.922 -0.5267  0.6434 -1.7617
34995SOL     OW16709  13.273  11.935   6.630  0.0179  0.4627 -0.6304
34995SOL    HW116710  13.205  11.957   6.693  0.3477 -1.9760  0.7150
34995SOL    HW216711  13.227  11.928   6.546 -1.0694  0.5396 -0.0539
34996SOL     OW16712   9.677   2.625   0.495  0.5135  0.1600 -0.2623
34996SOL    HW116713   9.647   2.574   0.420  1.9874  0.0804 -0.8298
34996SOL    HW216714   9.599   2.671   0.525 -0.5356 -1.3201 -0.6114
34997SOL     OW16715   0.845   5.375   5.674 -0.3764 -0.7452 -0.3966
34997SOL    HW116716   0.840   5.471   5.679 -2.5087 -0.8738  2.2266
34997SOL    HW216717   0.754   5.348   5.666 -0.2004 -2.5931  2.4821
34998SOL     OW16718   4.451   4.315   8.357  0.1728  0.1488 -0.2724
34998SOL    HW116719   4.496   4.395   8.332 -1.0107  0.8398 -0.2934
34998SOL    HW216720   4.477   4.299   8.447  1.4911 -0.2318 -0.7001
34999SOL     OW16721   7.417   2.518   4.326 -0.2934  0.1875 -0.0166
34999SOL    HW116722   7.462   2.437   4.351  0.2874  0.3208 -0.6047
34999SOL    HW216723   7.412   2.569   4.407 -0.6870 -0.4413  0.3648
35000SOL     OW16724   9.508  11.609   4.952  0.1251  0.0876  0.1679
35000SOL    HW116725   9.471  11.579   5.035  0.9098 -1.1258  0.1007
35000SOL    HW216726   9.439  11.594   4.888  0.1114 -0.5322  0.3263
35001SOL     OW16727   6.510   3.319   6.852  0.2647  0.0474  0.1332
35001SOL    HW116728   6.425   3.351   6.822  0.4404  0.3188 -0.0829
35001SOL    HW216729   6.574   3.374   6.807  0.5676 -0.4186 -0.0137
35002SOL     OW16730   5.031  10.653   9.884  0.0462  0.7210 -0.3493
35002SOL    HW116731   4.947  10.648   9.839  0.3090  0.2096 -0.7890
35002SOL    HW216732   5.009  10.641   9.976 -0.2144 -0.8078 -0.5929
35003SOL     OW16733   2.579   7.653   5.211 -0.3793  0.2575  0.2853
35003SOL    HW116734   2.602   7.659   5.303 -0.3027 -0.3741  0.3138
35003SOL    HW216735   2.653   7.606   5.171 -0.6828  0.0049  0.0136
35004SOL     OW16736   3.318   5.049   6.723 -0.1433  0.2745 -1.0529
35004SOL    HW116737   3.313   5.139   6.690  1.5919  0.5897 -0.5529
35004SOL    HW216738   3.245   5.004   6.681 -1.1847  1.9629 -1.1499
35005SOL     OW16739  13.565   4.464   6.019  0.0443  0.4131  0.2620
35005SOL    HW116740  13.645   4.435   5.974  0.5951  1.4939  0.4926
35005SOL    HW216741  13.597   4.519   6.091 -0.8841  0.0367  0.9898
35006SOL     OW16742   5.792   6.926   7.368 -0.2118  0.0426  0.2586
35006SOL    HW116743   5.771   6.838   7.398  1.0812 -0.2087  0.4958
35006SOL    HW216744   5.826   6.970   7.446 -1.7979  1.0958  0.3882
35007SOL     OW16745   0.312   8.874   2.874  0.2239 -0.5117  0.3256
35007SOL    HW116746   0.295   8.935   2.802 -1.5206 -1.5617 -0.2179
35007SOL    HW216747   0.385   8.821   2.844 -0.3520 -0.8019 -0.6074
35008SOL     OW16748  12.318   4.015   7.060 -0.3118 -0.2500  0.4142
35008SOL    HW116749  12.306   4.109   7.066  2.1333  0.0804  1.1452
35008SOL    HW216750  12.395   4.004   7.005 -0.2831 -1.8193  0.7194
35009SOL     OW16751   1.627   1.936   8.367  0.7632  0.1383 -0.1373
35009SOL    HW116752   1.661   1.900   8.449  1.6004 -1.0120 -0.9563
35009SOL    HW216753   1.704   1.968   8.321  0.4355 -0.1931 -0.9325
35010SOL     OW16754   7.785   5.010  12.124 -0.0756 -0.5566  0.1199
35010SOL    HW116755   7.714   4.978  12.068  0.2021 -0.0070 -0.5705
35010SOL    HW216756   7.862   4.960  12.096  0.4326  0.8695 -1.1880
35011SOL     OW16757   9.388   4.700   9.780  0.0388  0.8942  0.0698
35011SOL    HW116758   9.422   4.618   9.817  0.7052  1.8411  1.6625
35011SOL    HW216759   9.351   4.675   9.696  0.6316 -0.9693  0.3216
35012SOL     OW16760   0.792   0.338  11.995  0.5747  0.4210  0.2167
35012SOL    HW116761   0.770   0.278  11.923 -0.0202  1.0290 -0.1181
35012SOL    HW216762   0.864   0.391  11.961  1.6636 -0.6160  0.8047
35013SOL     OW16763  12.432   5.439   7.998  0.0044 -0.1045  0.1662
35013SOL    HW116764  12.375   5.511   7.973 -1.4346 -1.3188 -0.1512
35013SOL    HW216765  12.520   5.476   7.994 -0.6604  1.4819 -0.5021
35014SOL     OW16766   0.700   8.156   2.066  0.2112 -0.3651  0.1767
35014SOL    HW116767   0.741   8.119   1.987  1.4594  2.0564 -0.4290
35014SOL    HW216768   0.725   8.096   2.136 -0.0908 -2.0496 -1.1025
35015SOL     OW16769   0.941   8.017  11.604 -0.5649 -0.3934 -0.1835
35015SOL    HW116770   0.874   7.976  11.550 -1.1660  0.3476 -0.0145
35015SOL    HW216771   0.980   7.944  11.653 -0.1506 -1.0448 -1.4352
35016SOL     OW16772   8.960   9.567  12.618  0.0924 -0.3698  0.0538
35016SOL    HW116773   8.949   9.623  12.541  2.3559  1.5701  1.0227
35016SOL    HW216774   8.886   9.589  12.674 -2.2514 -2.6348 -1.8935
35017SOL     OW16775  11.497  11.760  10.405 -0.1422 -0.2483 -0.0555
35017SOL    HW116776  11.427  11.707  10.444 -0.7882  0.4555 -0.2498
35017SOL    HW216777  11.573  11.742  10.460 -0.1075 -2.0429 -0.6070
35018SOL     OW16778   4.458   2.852   4.545 -0.0380  0.2392 -0.2842
35018SOL    HW116779   4.475   2.900   4.626 -0.6633  0.1051 -0.0662
35018SOL    HW216780   4.481   2.761   4.565  2.4897  0.6197 -1.1175
35019SOL     OW16781  12.431   2.882  13.446 -0.5687  0.3499 -0.8030
35019SOL    HW116782  12.488   2.855  13.518 -0.6700  0.5649 -0.6420
35019SOL    HW216783  12.483   2.866  13.367 -0.1490  0.8735 -0.6405
35020SOL     OW16784   5.145   2.257   7.642  0.5581  0.0198  0.1098
35020SOL    HW116785   5.140   2.276   7.736  1.0293 -2.0518  0.6119
35020SOL    HW216786   5.236   2.270   7.619  0.6416 -0.4168  0.1815
35021SOL     OW16787  12.836  10.761  12.723 -0.5130 -0.0492  0.1394
35021SOL    HW116788  12.792  10.820  12.784  1.6368 -0.1151  1.9015
35021SOL    HW216789  12.810  10.792  12.636 -0.2868  2.8401  0.9945
35022SOL     OW16790   9.523   1.098   2.825  0.0002 -0.3448 -0.1628
35022SOL    HW116791   9.533   1.025   2.886  0.9057  0.7321  1.0243
35022SOL    HW216792   9.432   1.126   2.835 -0.5782 -1.7350 -1.1677
35023SOL     OW16793   3.784  11.317   1.369  0.0966 -0.2946  0.0061
35023SOL    HW116794   3.710  11.362   1.408 -1.4491 -1.8324 -0.9888
35023SOL    HW216795   3.860  11.348   1.418 -1.2284  1.0800  1.2872
35024SOL     OW16796   2.319   9.263   7.468 -0.0915 -0.1631 -0.4137
35024SOL    HW116797   2.323   9.170   7.447  3.1056 -0.4916  1.0898
35024SOL    HW216798   2.405   9.297   7.446 -1.0354  2.4107 -0.5405
35025SOL     OW16799  10.354  10.757   3.303  0.0671  0.4105 -0.0467
35025SOL    HW116800  10.301  10.802   3.368  1.1201  0.2649  0.9401
35025SOL    HW216801  10.418  10.822   3.274  0.4971  0.0649  0.1133
35026SOL     OW16802   6.203  10.870  10.534  0.1534 -0.1252 -0.4182
35026SOL    HW116803   6.252  10.902  10.610  1.5017 -1.7272 -0.5468
35026SOL    HW216804   6.145  10.802  10.570 -0.3942  0.2487 -0.5894
35027SOL     OW16805  13.520   4.732   0.892 -0.9307 -0.2801  0.7166
35027SOL    HW116806  13.523   4.754   0.799 -0.4757  0.2602  0.8506
35027SOL    HW216807  13.575   4.654   0.900 -0.5891 -0.0561  0.5990
35028SOL     OW16808   4.610   7.367  12.010  0.4153  0.1021  0.5814
35028SOL    HW116809   4.626   7.272  12.010  0.2309  0.0679  1.1584
35028SOL    HW216810   4.692   7.404  12.042  0.8664  0.2200 -0.6274
35029SOL     OW16811  10.745   1.877   7.434 -0.1167  0.0959 -0.3108
35029SOL    HW116812  10.826   1.927   7.444 -0.3045  0.4046 -0.3090
35029SOL    HW216813  10.724   1.847   7.523  0.4561 -0.7245 -0.4398
35030SOL     OW16814   0.925   0.535  11.181  0.2050 -0.3509 -0.0613
35030SOL    HW116815   0.869   0.537  11.103 -0.0997 -0.0809  0.1643
35030SOL    HW216816   1.006   0.495  11.150 -0.1742 -0.9187 -0.3511
35031SOL     OW16817   4.505   3.708   8.345  0.8550  0.0326 -0.2925
35031SOL    HW116818   4.427   3.716   8.290  1.1568  0.2557 -0.6944
35031SOL    HW216819   4.570   3.667   8.288  1.5302  1.3143 -0.4820
35032SOL     OW16820   1.194   3.328   2.290 -0.4226 -0.2336 -0.7106
35032SOL    HW116821   1.218   3.279   2.369  0.4989 -1.5606 -1.7748
35032SOL    HW216822   1.209   3.420   2.314  0.5043 -0.6549  0.4390
35033SOL     OW16823   7.973   0.686  13.742  0.3082  0.0373  0.0361
35033SOL    HW116824   7.991   0.669  13.835 -1.9273  0.5224  0.6246
35033SOL    HW216825   7.965   0.599  13.703 -2.5974 -0.3344  1.2030
35034SOL     OW16826   0.069   6.900   6.370  0.1790 -0.7172  0.6853
35034SOL    HW116827   0.092   6.988   6.399  1.3097 -0.3409 -1.1685
35034SOL    HW216828   0.022   6.913   6.288 -2.9082 -1.7392  2.1442
35035SOL     OW16829  13.507  11.951   0.243  0.0057 -0.0153 -0.1720
35035SOL    HW116830  13.513  11.921   0.334 -1.3914 -0.9178 -0.3408
35035SOL    HW216831  13.526  11.873   0.191  0.5250  0.4336 -0.6552
35036SOL     OW16832   6.708   0.719  10.018 -0.1803  0.4226 -0.4987
35036SOL    HW116833   6.718   0.665  10.097  0.9110  2.5443  0.8987
35036SOL    HW216834   6.627   0.686   9.978 -1.9201  0.5399  2.5915
35037SOL     OW16835   8.732   3.006   0.603  0.3684  0.4002 -0.3099
35037SOL    HW116836   8.738   2.940   0.534 -0.3799  0.4876 -0.4591
35037SOL    HW216837   8.770   3.085   0.563 -0.1995  0.4924 -0.6804
35038SOL     OW16838   8.202  11.087   3.001  0.0981 -0.0967  0.5390
35038SOL    HW116839   8.246  11.010   3.039 -2.2424 -2.1923 -0.6612
35038SOL    HW216840   8.218  11.157   3.063  0.5611 -2.1091  2.8558
35039SOL     OW16841  12.988   2.361  10.271 -0.1901 -0.1162 -0.2697
35039SOL    HW116842  12.938   2.340  10.350  1.5363 -1.6002  0.4792
35039SOL    HW216843  12.924   2.403  10.214 -1.6885  0.2650  1.5813
35040SOL     OW16844  12.035   3.139   4.363  0.5172 -0.5804  0.3685
35040SOL    HW116845  12.047   3.146   4.268  0.1482  1.7281  0.4212
35040SOL    HW216846  11.940   3.140   4.375  0.5667 -0.2297  0.7644
35041SOL     OW16847   3.498   3.030   9.073  0.1512 -0.1264 -0.1795
35041SOL    HW116848   3.469   2.940   9.086 -1.0137 -0.2619 -3.1866
35041SOL    HW216849   3.419   3.083   9.084  0.2845  0.2599 -1.0704
35042SOL     OW16850   2.867   1.296  11.714  0.4243 -0.0342 -0.4290
35042SOL    HW116851   2.824   1.211  11.702 -0.1306  0.2191 -0.3095
35042SOL    HW216852   2.821   1.335  11.788  1.2989 -0.0135  0.1049
35043SOL     OW16853   5.790   7.256  13.188 -0.0264 -0.4984 -0.3233
35043SOL    HW116854   5.748   7.342  13.180 -1.3223 -1.1104 -0.3852
35043SOL    HW216855   5.743   7.213  13.259 -0.2640 -1.6272 -1.1314
35044SOL     OW16856  11.614   3.668   1.696 -0.2819 -0.4539 -0.1836
35044SOL    HW116857  11.681   3.656   1.629  0.6296 -0.9502  0.7953
35044SOL    HW216858  11.553   3.595   1.683 -1.2595  0.5673 -1.7368
35045SOL     OW16859   6.067  10.358   2.485  0.9213  0.2304  0.2557
35045SOL    HW116860   6.019  10.437   2.461  2.0238  0.7873 -0.2231
35045SOL    HW216861   6.063  10.356   2.580 -0.0627  0.2458  0.2205
35046SOL     OW16862   3.741   7.561   6.334  0.0053 -0.0981  0.2813
35046SOL    HW116863   3.785   7.509   6.401  2.3350  3.5000  1.8706
35046SOL    HW216864   3.674   7.610   6.381 -0.4573  0.2266 -0.6763
35047SOL     OW16865   1.312   2.262   3.917 -0.1201 -0.1833  0.2816
35047SOL    HW116866   1.268   2.283   3.834 -1.0303 -1.2811  0.4722
35047SOL    HW216867   1.405   2.276   3.898 -0.1198 -2.1506 -1.5000
35048SOL     OW16868   9.354   3.349   7.072  0.2056 -0.1494  0.2314
35048SOL    HW116869   9.317   3.391   6.994 -0.4711  0.6624  0.9625
35048SOL    HW216870   9.319   3.400   7.145  2.1841  0.1760  1.0082
35049SOL     OW16871   0.757   1.188   5.480  0.2007 -0.5006 -0.0879
35049SOL    HW116872   0.850   1.212   5.472  0.5863 -1.4133  1.3144
35049SOL    HW216873   0.742   1.129   5.406  0.8403 -0.6287 -0.1279
35050SOL     OW16874   6.811  12.086   5.283 -0.1135 -0.1476 -0.1722
35050SOL    HW116875   6.729  12.076   5.331  0.4680  0.9571  1.1190
35050SOL    HW216876   6.865  12.011   5.309 -0.2469 -0.1960 -0.0349
35051SOL     OW16877  13.740   1.664   1.553  0.0467 -0.2181 -0.0617
35051SOL    HW116878  13.666   1.676   1.613 -0.4209  1.5054 -0.9334
35051SOL    HW216879  13.739   1.570   1.533 -3.2799  0.0066 -1.7154
35052SOL     OW16880   0.342   0.858  12.097 -0.0326  0.1112 -0.0661
35052SOL    HW116881   0.406   0.855  12.168  0.2958  0.0668 -0.3591
35052SOL    HW216882   0.260   0.886  12.139  0.0411 -0.3768  0.4112
35053SOL     OW16883   8.167   3.386   2.184  0.1550  0.1333 -0.0300
35053SOL    HW116884   8.091   3.328   2.194 -0.0226  0.4308  0.3632
35053SOL    HW216885   8.198   3.401   2.274  0.6228  0.0887 -0.1817
35054SOL     OW16886   1.242   0.218  12.245 -0.4289  0.1960  0.0649
35054SOL    HW116887   1.169   0.219  12.182 -1.7863 -0.0543  1.5575
35054SOL    HW216888   1.252   0.310  12.270 -0.8006  0.1297  0.4687
35055SOL     OW16889  12.424   7.162  11.817 -0.0601 -0.3572 -0.5416
35055SOL    HW116890  12.368   7.126  11.886 -0.4646  1.3724  0.0858
35055SOL    HW216891  12.507   7.115  11.826 -0.0319 -0.0268  1.2876
35056SOL     OW16892  10.158   5.533   9.543  0.1657 -0.9138 -0.2243
35056SOL    HW116893  10.160   5.609   9.601  3.0779 -1.5253  0.6342
35056SOL    HW216894  10.097   5.558   9.474  0.0406  1.6831  0.6990
35057SOL     OW16895  10.824   4.241   7.309 -0.1967  0.1323 -0.0051
35057SOL    HW116896  10.896   4.177   7.308 -0.9131 -0.7951  2.2751
35057SOL    HW216897  10.859   4.316   7.357 -0.1114  0.5390 -0.6860
35058SOL     OW16898   4.851   7.166   6.323 -0.4151  0.3266  0.4442
35058SOL    HW116899   4.825   7.141   6.411 -1.4372 -0.8489 -0.1676
35058SOL    HW216900   4.871   7.083   6.279  0.1966  0.9044 -0.3995
35059SOL     OW16901   8.477   9.133   9.220 -0.4454 -0.0045  0.1165
35059SOL    HW116902   8.506   9.171   9.136 -1.6166  1.0037  0.1438
35059SOL    HW216903   8.553   9.143   9.278 -0.1135  0.6182 -0.4091
35060SOL     OW16904  13.530   2.213   2.914  0.4319  0.6779 -0.1037
35060SOL    HW116905  13.504   2.156   2.986  0.1314  2.1057  0.9692
35060SOL    HW216906  13.533   2.301   2.953  0.8640  1.4032 -1.6907
35061SOL     OW16907   8.216   9.273   9.264 -0.3867  0.0578  0.4946
35061SOL    HW116908   8.297   9.230   9.236  0.4420  0.5252  2.0816
35061SOL    HW216909   8.226   9.364   9.236 -1.0119 -0.1658 -0.5466
35062SOL     OW16910   4.250  12.549   2.675 -0.2865 -0.2574 -0.0559
35062SOL    HW116911   4.198  12.486   2.725 -1.8567 -2.1501 -3.7287
35062SOL    HW216912   4.284  12.498   2.601  1.0697  2.5598 -1.5116
35063SOL     OW16913  11.764   2.088  10.802  0.0507  0.1753 -0.4501
35063SOL    HW116914  11.834   2.022  10.801  0.7341  0.8798 -0.1537
35063SOL    HW216915  11.684   2.037  10.807  0.5494 -0.6518 -0.6373
35064SOL     OW16916   9.697   7.336   4.903  0.8011 -1.1108 -0.3383
35064SOL    HW116917   9.776   7.320   4.851  1.4192  0.1234  0.2060
35064SOL    HW216918   9.710   7.285   4.983  2.3639  1.1933  0.9932
35065SOL     OW16919   8.880   0.417   7.759 -0.0533 -0.0857  0.4010
35065SOL    HW116920   8.920   0.475   7.695 -1.9705  3.3878  2.0747
35065SOL    HW216921   8.946   0.409   7.829  0.1638  0.2440  0.2349
35066SOL     OW16922   5.045   9.578  13.088  0.1977  0.0525 -0.2799
35066SOL    HW116923   5.004   9.591  13.174  0.0145 -1.6802 -0.0571
35066SOL    HW216924   5.139   9.583  13.105  0.1490  1.0652 -0.2451
35067SOL     OW16925   3.870   0.991   2.700  0.1190  0.1482 -0.3202
35067SOL    HW116926   3.811   1.056   2.740  1.1582  0.7586  0.2580
35067SOL    HW216927   3.818   0.910   2.698 -0.2599  0.2938  1.5517
35068SOL     OW16928   0.702   7.846   3.316 -0.6407  0.3679 -0.4977
35068SOL    HW116929   0.656   7.838   3.232 -0.5951 -0.4857 -0.4537
35068SOL    HW216930   0.680   7.765   3.362 -0.5993  0.8000  0.2860
35069SOL     OW16931  10.220   3.437  10.243  0.0646 -0.2494 -0.8064
35069SOL    HW116932  10.139   3.439  10.294  1.3283  2.1627  1.3634
35069SOL    HW216933  10.242   3.344  10.237 -2.0494 -0.8576 -0.1513
35070SOL     OW16934   2.733   3.908  10.066 -0.2910  0.3828 -0.0854
35070SOL    HW116935   2.767   3.992  10.097 -0.9289  1.0723 -1.1790
35070SOL    HW216936   2.806   3.869  10.019  0.4401 -0.3238  1.5484
35071SOL     OW16937   2.844  12.604  12.154  0.3607 -0.5328 -0.6168
35071SOL    HW116938   2.851  12.690  12.196 -0.7439 -1.2041  1.0661
35071SOL    HW216939   2.875  12.618  12.065 -0.9114  1.8936 -0.7664
35072SOL     OW16940   3.144   5.270  11.819 -0.1459  0.1194  0.1019
35072SOL    HW116941   3.200   5.198  11.846 -0.5343 -0.6925 -1.1772
35072SOL    HW216942   3.094   5.292  11.898 -2.4350 -3.2646 -0.1710
35073SOL     OW16943   3.832   8.259  13.686  0.0219 -0.1555 -0.1336
35073SOL    HW116944   3.880   8.233  13.608  1.8121  1.4556  0.3448
35073SOL    HW216945   3.775   8.330  13.656  1.3895  1.1171  0.1090
35074SOL     OW16946  10.036  10.198   7.373 -0.5779 -0.3827  0.0061
35074SOL    HW116947  10.080  10.271   7.329 -1.1923  1.9195  2.8499
35074SOL    HW216948  10.102  10.129   7.376  1.5714  1.5640  0.7513
35075SOL     OW16949  12.406   0.908   4.716 -0.6072 -0.5778  0.1878
35075SOL    HW116950  12.344   0.842   4.685  1.2916 -1.4576 -2.0935
35075SOL    HW216951  12.492   0.868   4.701  0.5863  1.9900 -0.2518
35076SOL     OW16952   6.074   5.913  11.813  0.2410 -0.0666 -0.0984
35076SOL    HW116953   6.088   5.984  11.877  1.6209 -1.1034  0.8170
35076SOL    HW216954   5.982   5.890  11.823 -0.0702  1.1468  0.0510
35077SOL     OW16955   3.162  10.194   1.869  0.5486  0.1720 -0.0067
35077SOL    HW116956   3.070  10.175   1.848  0.6154  0.4364 -0.5325
35077SOL    HW216957   3.160  10.280   1.910  0.8698  1.5232 -2.6349
35078SOL     OW16958   8.811   8.244   6.975  0.3248 -0.1297  0.2876
35078SOL    HW116959   8.903   8.265   6.956  0.2562  1.2417  1.2592
35078SOL    HW216960   8.815   8.194   7.057  0.2342 -0.4154  0.1168
35079SOL     OW16961   2.624  10.376   5.325 -0.3883 -0.1558  0.2859
35079SOL    HW116962   2.585  10.460   5.349 -0.4535  0.1425 -0.7989
35079SOL    HW216963   2.711  10.399   5.292 -0.5277 -0.4739 -0.3206
35080SOL     OW16964   5.260   5.652   8.100  0.0051 -1.3978  0.4180
35080SOL    HW116965   5.330   5.586   8.100  0.0413 -1.3645 -0.2558
35080SOL    HW216966   5.179   5.601   8.095  0.0787 -1.3939 -2.7697
35081SOL     OW16967  12.534   9.004   3.908  0.3610 -0.2633 -0.1061
35081SOL    HW116968  12.621   9.018   3.947  0.1662 -0.8171  0.5355
35081SOL    HW216969  12.550   8.946   3.834  0.4143 -1.2084  0.6250
35082SOL     OW16970   0.203   1.955   2.818  0.0572  0.0642 -0.3934
35082SOL    HW116971   0.126   1.998   2.780  0.6988  1.3092 -0.3530
35082SOL    HW216972   0.191   1.962   2.912 -0.3091 -0.7531 -0.3706
35083SOL     OW16973   0.637   9.303   1.749 -0.2359  0.6787  0.2300
35083SOL    HW116974   0.550   9.274   1.775 -0.4824 -0.0855 -1.3767
35083SOL    HW216975   0.696   9.258   1.810 -0.8840  0.3362  0.6167
35084SOL     OW16976   9.175  10.953   1.323  0.0429 -0.1424 -0.0477
35084SOL    HW116977   9.144  10.971   1.235 -1.6894  1.1209  0.7583
35084SOL    HW216978   9.260  10.997   1.328 -0.5380  1.0904 -0.6188
35085SOL     OW16979   5.373   6.962  10.735  0.2678  0.4713 -0.5518
35085SOL    HW116980   5.450   6.983  10.682  0.5388 -1.2495 -0.9044
35085SOL    HW216981   5.315   6.915  10.675 -0.7543  1.1079 -0.0932
35086SOL     OW16982   0.402   2.841   5.387  0.3759 -0.0600 -0.0563
35086SOL    HW116983   0.486   2.807   5.417 -0.0955 -0.9652  0.2797
35086SOL    HW216984   0.377   2.783   5.315 -0.0305  0.1073 -0.0538
35087SOL     OW16985  12.959   4.543   0.822 -0.9375  0.1913 -0.1737
35087SOL    HW116986  12.901   4.562   0.896 -2.1944 -2.1800 -0.4322
35087SOL    HW216987  12.907   4.565   0.745 -1.4521 -1.5834 -0.3969
35088SOL     OW16988   8.135  12.110   7.900 -0.2263  0.9955 -0.0571
35088SOL    HW116989   8.044  12.091   7.879 -0.4177  0.1985  1.3174
35088SOL    HW216990   8.186  12.052   7.843 -0.6441  0.2361  0.3317
35089SOL     OW16991   4.092   5.299   7.367 -0.0117  0.1950  0.4479
35089SOL    HW116992   4.153   5.325   7.436 -0.0079 -0.0262  0.5307
35089SOL    HW216993   4.034   5.235   7.409  1.2558 -1.5106 -0.2505
35090SOL     OW16994   2.022   5.760   9.231  0.1246 -0.9326 -0.2427
35090SOL    HW116995   2.043   5.777   9.140  0.9972  1.3521  0.3186
35090SOL    HW216996   1.928   5.777   9.238  0.3653  0.6596 -0.4095
35091SOL     OW16997  11.242   0.376  12.493 -0.1558 -0.7349  0.5672
35091SOL    HW116998  11.223   0.468  12.510  0.9369 -0.7206  1.9228
35091SOL    HW216999  11.195   0.328  12.561 -1.2732 -1.2566 -0.5372
35092SOL     OW17000  11.910   3.433   5.451  0.0788  0.1260  0.5444
35092SOL    HW117001  11.986   3.476   5.413 -0.2176  0.2288  0.0696
35092SOL    HW217002  11.947   3.358   5.499  0.3862 -0.6150 -0.7924
35093SOL     OW17003   3.352   4.441   7.298  0.3460 -0.0893  0.0394
35093SOL    HW117004   3.310   4.434   7.212  0.6731  0.2336 -0.1516
35093SOL    HW217005   3.296   4.391   7.357 -0.0842  0.0034 -0.2904
35094SOL     OW17006   6.396   0.546   6.287 -0.2398  0.1827 -0.0555
35094SOL    HW117007   6.420   0.492   6.363  0.7670  0.1931 -0.3554
35094SOL    HW217008   6.306   0.520   6.267 -0.6594  0.4617  1.3773
35095SOL     OW17009   7.771  11.031   0.282  0.1170 -0.3539  0.2350
35095SOL    HW117010   7.681  11.062   0.295  0.0716  0.3779 -1.6025
35095SOL    HW217011   7.781  11.023   0.187  1.0669 -3.3027  0.4708
35096SOL     OW17012   2.225   9.464   1.285  0.2255 -0.6161 -0.0561
35096SOL    HW117013   2.318   9.479   1.265 -0.0334  0.3958 -0.5434
35096SOL    HW217014   2.207   9.378   1.249  0.4939 -0.0073 -1.7034
35097SOL     OW17015  13.056  11.876  10.828 -0.2694  0.1226  0.0299
35097SOL    HW117016  13.030  11.877  10.736 -0.0002 -1.9782 -0.1258
35097SOL    HW217017  13.046  11.784  10.854 -0.4775  0.6938  2.1442
35098SOL     OW17018   1.258   8.879   7.984  0.1408  0.1492  0.3230
35098SOL    HW117019   1.180   8.934   7.979  0.1331  0.2038  1.0263
35098SOL    HW217020   1.323   8.934   8.027 -0.0070 -0.5488  1.4482
35099SOL     OW17021   0.092  11.474   6.849 -0.6019  0.4090 -0.0811
35099SOL    HW117022   0.029  11.443   6.783  0.1360 -0.8987 -0.2094
35099SOL    HW217023   0.106  11.398   6.906 -0.0720  1.0618  0.6802
35100SOL     OW17024  11.898  11.694  12.656 -0.9587 -0.3091 -0.1578
35100SOL    HW117025  11.992  11.698  12.641 -1.0241 -1.6140 -1.0812
35100SOL    HW217026  11.889  11.644  12.737 -0.8688 -1.0398 -0.5881
35101SOL     OW17027  11.536  10.565   2.974 -0.2801  0.5426 -0.5708
35101SOL    HW117028  11.546  10.657   2.952  1.4165  1.3831  2.8753
35101SOL    HW217029  11.453  10.560   3.021 -1.2278 -0.0942 -2.2596
35102SOL     OW17030   7.123   0.380  12.609 -0.8581 -0.0039 -0.1642
35102SOL    HW117031   7.213   0.389  12.578  0.6537 -2.1245  3.0374
35102SOL    HW217032   7.114   0.446  12.678  0.3342 -3.0301  3.2557
35103SOL     OW17033  12.716   3.008   6.923 -0.3246  0.1770 -0.4650
35103SOL    HW117034  12.700   3.025   7.016  2.4301 -1.3427  0.3802
35103SOL    HW217035  12.764   3.085   6.893  0.8490 -0.3461  0.0181
35104SOL     OW17036  11.791  12.668   5.827  0.1035 -0.1457 -0.0043
35104SOL    HW117037  11.885  12.659   5.839  0.0926 -0.2265  0.0158
35104SOL    HW217038  11.764  12.728   5.897  0.2306  0.3433 -0.3709
35105SOL     OW17039  13.369   1.690  10.134 -0.4332  0.0605  0.0614
35105SOL    HW117040  13.409   1.774  10.112 -0.2378 -0.4349 -1.6639
35105SOL    HW217041  13.280   1.711  10.159 -0.0117  0.8913  0.9231
35106SOL     OW17042   9.981   7.716  11.301  0.2684  0.2636  0.5101
35106SOL    HW117043   9.960   7.722  11.394  0.3628 -0.2494  0.5728
35106SOL    HW217044   9.909   7.759  11.256  0.5954  1.1933  0.8505
35107SOL     OW17045   6.319   0.147  11.662 -0.3939 -0.5861 -0.7311
35107SOL    HW117046   6.235   0.190  11.671 -0.3074 -0.7906  1.9388
35107SOL    HW217047   6.379   0.216  11.632 -1.3457 -0.2969 -2.0316
35108SOL     OW17048   0.496   2.912  12.204  0.5361  0.4716  0.1685
35108SOL    HW117049   0.449   2.842  12.159  1.3104  1.1038 -1.7321
35108SOL    HW217050   0.427   2.967  12.241 -0.2056  0.3434 -0.9465
35109SOL     OW17051   3.734  11.132  11.537  0.1787  0.1691  0.0538
35109SOL    HW117052   3.808  11.086  11.575 -0.8409 -0.4469  1.3634
35109SOL    HW217053   3.679  11.063  11.499  0.5328  0.6652 -1.4301
35110SOL     OW17054   0.712  13.209  10.812  0.3395  0.3529  0.1827
35110SOL    HW117055   0.783  13.257  10.854 -1.1688  1.7217  1.3100
35110SOL    HW217056   0.713  13.238  10.721 -0.2372  2.2334  0.7349
35111SOL     OW17057  13.368   8.455  10.851  0.1679 -0.3442  0.1667
35111SOL    HW117058  13.444   8.504  10.882  0.1642 -0.0838 -0.2328
35111SOL    HW217059  13.401   8.367  10.835  0.5985 -0.0095 -0.8612
35112SOL     OW17060   0.218   1.423  10.831 -0.8046 -0.1778  0.6252
35112SOL    HW117061   0.248   1.456  10.916 -2.7763 -0.2846  1.4107
35112SOL    HW217062   0.208   1.329  10.844  0.5083 -0.4791 -0.2817
35113SOL     OW17063  10.085   2.801   3.058 -0.0520  0.0790 -0.1743
35113SOL    HW117064  10.166   2.760   3.088 -0.9154 -1.8871 -0.3969
35113SOL    HW217065  10.056   2.854   3.133  0.9258  0.0378  0.2509
35114SOL     OW17066   5.485   8.026   4.486  0.7664  0.6377 -0.6042
35114SOL    HW117067   5.491   7.973   4.407  0.9585  0.7942 -0.6972
35114SOL    HW217068   5.395   8.015   4.516  1.0094 -0.3476 -0.1932
35115SOL     OW17069  11.477   0.351   9.261 -0.4925  0.0778 -0.2431
35115SOL    HW117070  11.506   0.352   9.170 -0.1434 -1.3843 -0.1784
35115SOL    HW217071  11.546   0.306   9.309 -2.0024 -1.9077  0.2116
35116SOL     OW17072   6.398   0.184   9.337 -0.1218  0.0576 -0.0692
35116SOL    HW117073   6.436   0.237   9.268  0.5283  1.4379  1.2910
35116SOL    HW217074   6.464   0.117   9.356 -0.3408 -0.3873 -0.7908
35117SOL     OW17075   1.956  13.633   5.607  0.5912  0.2997 -0.2441
35117SOL    HW117076   1.899  13.560   5.632 -0.6919  1.2462 -0.3147
35117SOL    HW217077   1.933  13.651   5.516  0.6530  1.0225 -0.1157
35118SOL     OW17078   1.129   5.916   4.757 -0.3511  0.5283  0.2093
35118SOL    HW117079   1.127   5.822   4.778 -0.7858  0.4717 -0.0847
35118SOL    HW217080   1.195   5.952   4.817 -0.3613  0.0776  0.4968
35119SOL     OW17081  10.144  11.702  10.467 -0.3510  0.5937 -0.4835
35119SOL    HW117082  10.223  11.752  10.443 -0.2965 -0.3855 -2.5501
35119SOL    HW217083  10.121  11.654  10.388 -1.2479 -1.5630  0.9928
35120SOL     OW17084   6.193  10.725   9.586  0.0522 -0.2490 -0.2167
35120SOL    HW117085   6.148  10.650   9.549  1.3298 -1.4090  0.5110
35120SOL    HW217086   6.134  10.757   9.654 -0.9042 -0.0015 -1.1395
35121SOL     OW17087   7.864  10.529   3.774 -0.6092  0.2691  0.3812
35121SOL    HW117088   7.862  10.603   3.713 -0.2943 -0.5291 -0.6335
35121SOL    HW217089   7.871  10.569   3.861  0.6728  1.4239 -0.2088
35122SOL     OW17090   0.668   1.181   0.428 -0.0478 -0.0242 -0.5382
35122SOL    HW117091   0.700   1.221   0.347 -0.3261 -0.7484 -1.0120
35122SOL    HW217092   0.679   1.087   0.415  0.1374 -0.1450  0.3686
35123SOL     OW17093  10.744   0.156   1.677  0.3015 -1.1105 -0.2213
35123SOL    HW117094  10.777   0.244   1.659 -1.2694 -0.4382 -0.0343
35123SOL    HW217095  10.730   0.155   1.772 -0.7905 -1.1342 -0.3701
35124SOL     OW17096   9.912   4.684   5.295 -0.3243  0.7291  0.2642
35124SOL    HW117097   9.819   4.707   5.289 -0.5826 -0.4827 -0.8211
35124SOL    HW217098   9.919   4.601   5.249  1.0969  0.1666  1.4445
35125SOL     OW17099   8.647   7.158   7.074  0.4269 -0.1379 -0.4866
35125SOL    HW117100   8.671   7.180   7.164 -0.2039  0.3424 -0.4271
35125SOL    HW217101   8.714   7.200   7.020  0.2976  0.3379 -0.2812
35126SOL     OW17102   1.338  12.401   2.698  0.5055 -0.6320  0.0253
35126SOL    HW117103   1.382  12.323   2.665 -2.1483 -2.6079  0.8063
35126SOL    HW217104   1.273  12.368   2.760  0.5585  2.3866  1.8970
35127SOL     OW17105   9.691   5.311   6.147 -0.0161  0.0583 -0.6728
35127SOL    HW117106   9.703   5.216   6.146 -0.9886 -0.1424  1.4935
35127SOL    HW217107   9.710   5.338   6.057 -2.7280 -2.5773 -2.2101
35128SOL     OW17108   8.111   6.110   5.879 -0.5256 -0.1633  0.0719
35128SOL    HW117109   8.046   6.076   5.817 -0.1622 -0.4312 -0.1613
35128SOL    HW217110   8.193   6.108   5.831 -0.4733  0.9217  0.0923
35129SOL     OW17111   9.441   6.140  13.166 -0.3327  0.1633 -0.1017
35129SOL    HW117112   9.499   6.187  13.226  0.4785  0.0432 -0.7763
35129SOL    HW217113   9.389   6.208  13.125 -0.7493  0.2653  0.5782
35130SOL     OW17114  12.908   3.139   1.840 -0.4913  0.1016 -0.5704
35130SOL    HW117115  12.861   3.103   1.765 -0.3906 -1.6620  0.1465
35130SOL    HW217116  12.945   3.221   1.809 -0.1592 -0.7435 -2.5506
35131SOL     OW17117   0.843  13.719   0.518  0.1177  0.0257  0.4885
35131SOL    HW117118   0.823  13.702   0.426  2.5464  0.4267 -0.1724
35131SOL    HW217119   0.938  13.712   0.524  0.0869  0.7422  2.8254
35132SOL     OW17120   5.610   3.291   8.854  0.0890  0.5336 -0.4947
35132SOL    HW117121   5.648   3.225   8.912  0.0447  1.5364  0.7146
35132SOL    HW217122   5.620   3.254   8.766  1.9698 -0.1433 -0.0453
35133SOL     OW17123   2.632   7.609  11.257  0.2204  0.1299 -0.1451
35133SOL    HW117124   2.667   7.522  11.239 -0.9972 -0.5660  0.7369
35133SOL    HW217125   2.703   7.655  11.302  0.3106 -0.9746  0.8891
35134SOL     OW17126   5.834  11.224   3.110  0.1289 -0.2260 -0.5647
35134SOL    HW117127   5.903  11.264   3.162  1.4288  0.0048 -2.3548
35134SOL    HW217128   5.868  11.138   3.087 -0.8817 -0.7494 -0.1645
35135SOL     OW17129   0.508   2.760   3.621 -0.1754  0.3722  0.0411
35135SOL    HW117130   0.481   2.816   3.695 -1.8567 -1.8593  1.2249
35135SOL    HW217131   0.456   2.792   3.547 -1.2349  0.2983  0.7309
35136SOL     OW17132  13.237  10.131  11.861 -0.0638 -0.0582  0.3605
35136SOL    HW117133  13.306  10.066  11.870  0.8017  0.4315 -1.9968
35136SOL    HW217134  13.277  10.213  11.889  0.3438  0.2145 -0.9459
35137SOL     OW17135  13.047   7.083   5.005 -0.2438 -0.3709 -0.2473
35137SOL    HW117136  13.107   7.128   4.945 -0.1259  1.5007  1.1891
35137SOL    HW217137  12.993   7.153   5.041 -0.1035 -1.3533  2.0439
35138SOL     OW17138   5.887   9.122   4.392 -0.3256 -0.0009  0.1971
35138SOL    HW117139   5.882   9.161   4.304 -1.3977 -0.3521  0.0857
35138SOL    HW217140   5.905   9.030   4.376  1.7820  0.3301  0.4466
35139SOL     OW17141  12.634   2.414   6.349  0.1920  0.3541 -0.0088
35139SOL    HW117142  12.605   2.487   6.295  0.3216 -0.0441 -0.6323
35139SOL    HW217143  12.630   2.338   6.290  1.4735  0.1132  0.1983
35140SOL     OW17144   7.270   3.613  13.013 -0.0518 -0.0964  0.2904
35140SOL    HW117145   7.299   3.598  12.923 -1.2096 -0.4188 -0.0336
35140SOL    HW217146   7.182   3.648  13.005 -0.4783 -0.8841  1.3294
35141SOL     OW17147   4.464   5.625  11.378  0.7763 -0.0537 -0.0622
35141SOL    HW117148   4.517   5.703  11.362 -0.6799  0.9102 -0.3420
35141SOL    HW217149   4.521   5.552  11.354  2.5344  0.8420  1.1954
35142SOL     OW17150  11.318   9.003   1.110 -0.2534  0.2150 -0.1961
35142SOL    HW117151  11.268   8.923   1.094  1.5722 -0.8738 -0.7605
35142SOL    HW217152  11.390   8.975   1.167 -0.1141  1.6810  0.3981
35143SOL     OW17153   8.720  12.459  11.955 -0.0893  0.7435 -0.2700
35143SOL    HW117154   8.815  12.474  11.956  0.1144 -0.4403  0.6881
35143SOL    HW217155   8.698  12.443  12.047 -1.0594  0.0594 -0.6071
35144SOL     OW17156  10.294  11.083   6.015  0.3922  0.3628 -0.0984
35144SOL    HW117157  10.336  11.062   5.931  0.4293  0.7638 -0.1798
35144SOL    HW217158  10.239  11.006   6.033  1.1784 -0.1852  0.0345
35145SOL     OW17159  13.163   4.536  12.525 -0.2740 -0.4301 -0.0979
35145SOL    HW117160  13.196   4.624  12.510 -1.9291  0.2203 -0.1825
35145SOL    HW217161  13.186   4.517  12.616  0.6249 -0.1705 -0.2608
35146SOL     OW17162   9.927   6.053  12.638 -0.0973  0.0046 -0.1738
35146SOL    HW117163   9.960   5.975  12.683  0.3389  0.7300  0.7980
35146SOL    HW217164   9.905   6.114  12.709  0.1315  0.9860 -0.9332
35147SOL     OW17165  12.975   4.010   1.465  0.0467  0.0170  0.3032
35147SOL    HW117166  13.035   3.990   1.393 -1.3036  1.0848 -1.1829
35147SOL    HW217167  12.986   3.937   1.526  0.0524 -1.8340 -1.7700
35148SOL     OW17168   8.192   7.859   1.374 -0.4011  0.0516 -0.3099
35148SOL    HW117169   8.268   7.885   1.321 -0.6391 -0.0259 -0.6981
35148SOL    HW217170   8.158   7.781   1.329 -0.0823 -0.5510  0.4636
35149SOL     OW17171   9.775  12.644  10.952 -0.1160 -0.1981  0.5866
35149SOL    HW117172   9.744  12.621  11.040  1.6959  0.6531  1.5266
35149SOL    HW217173   9.818  12.564  10.921 -0.4912 -0.4116  0.6157
35150SOL     OW17174   8.329   1.119   7.554  0.2392 -0.0714  0.3109
35150SOL    HW117175   8.315   1.092   7.463 -1.2777 -2.3023  1.1058
35150SOL    HW217176   8.413   1.082   7.578 -0.7498 -2.2136  0.6696
35151SOL     OW17177  12.622   5.232  10.773  0.0759  0.4782  0.3796
35151SOL    HW117178  12.673   5.253  10.694 -0.7934  2.1231  0.2098
35151SOL    HW217179  12.584   5.316  10.799 -2.5084 -0.6522  0.5183
35152SOL     OW17180   7.645   1.401  12.025 -0.1864 -0.0855 -0.2251
35152SOL    HW117181   7.725   1.421  11.977  0.9018  1.8570  2.2137
35152SOL    HW217182   7.675   1.356  12.104 -1.4655  0.8540  0.8258
35153SOL     OW17183  10.654   1.943   6.419 -0.3687  0.2971 -0.5137
35153SOL    HW117184  10.681   1.868   6.472 -1.1957 -0.2390 -0.8259
35153SOL    HW217185  10.642   2.014   6.481 -0.7124 -0.1540 -0.0560
35154SOL     OW17186   3.940   8.382   4.317  0.2309  0.1007 -0.2687
35154SOL    HW117187   3.998   8.314   4.350  1.2353  1.0552 -0.0118
35154SOL    HW217188   3.896   8.342   4.241  0.6246 -0.8943  0.0183
35155SOL     OW17189   0.286  10.895   5.400 -0.5815 -0.5669 -0.5884
35155SOL    HW117190   0.329  10.948   5.467 -0.1354 -0.1750 -1.1766
35155SOL    HW217191   0.217  10.951   5.365  1.0578  0.3589 -2.4945
35156SOL     OW17192   2.203   5.031   7.132  0.1337 -0.3922  0.0545
35156SOL    HW117193   2.247   4.974   7.194  2.0689  0.0691 -0.8043
35156SOL    HW217194   2.274   5.066   7.078 -1.2037  1.2739 -0.7042
35157SOL     OW17195   0.546   5.109  13.021  0.6662 -0.6029  0.2876
35157SOL    HW117196   0.500   5.039  13.065  2.8242 -1.4202  1.3925
35157SOL    HW217197   0.559   5.077  12.931 -0.7701 -0.3804 -0.0237
35158SOL     OW17198   8.107   1.784   6.834  0.3443  0.2739  0.1068
35158SOL    HW117199   8.169   1.856   6.821 -0.5968  0.8101 -1.6415
35158SOL    HW217200   8.159   1.716   6.877  1.2633  1.9430  1.8452
35159SOL     OW17201   6.997   5.941   6.741 -0.3193  0.7202  0.2876
35159SOL    HW117202   7.018   6.033   6.722 -0.9382  0.7793 -0.1460
35159SOL    HW217203   6.952   5.910   6.662  2.0442 -0.6917 -0.6182
35160SOL     OW17204  12.288   1.349   3.335  0.9734  0.0504 -0.4843
35160SOL    HW117205  12.229   1.280   3.364  0.2895  1.0300  0.4971
35160SOL    HW217206  12.333   1.311   3.259  1.0515 -1.6910  0.3774
35161SOL     OW17207   6.601  13.092  10.835  0.1229 -0.0030  0.0687
35161SOL    HW117208   6.595  13.186  10.820  0.8923  0.0367 -0.0308
35161SOL    HW217209   6.518  13.069  10.876 -0.5329  0.5232 -0.9088
35162SOL     OW17210   8.560   0.973   7.566  0.1280 -0.0482  0.6221
35162SOL    HW117211   8.655   0.969   7.555  0.2439 -0.1312  1.5521
35162SOL    HW217212   8.528   0.887   7.538  0.3594 -0.1200  0.5803
35163SOL     OW17213   9.196   8.200   3.277 -0.1676  0.4989 -0.0469
35163SOL    HW117214   9.258   8.166   3.212 -0.4600  0.8257 -0.5103
35163SOL    HW217215   9.132   8.249   3.225 -0.4236  0.7471  0.4912
35164SOL     OW17216   5.472   1.815   9.284 -0.0838 -0.0692  0.5834
35164SOL    HW117217   5.424   1.752   9.338 -1.2479  1.2255  1.1304
35164SOL    HW217218   5.415   1.830   9.209 -1.4659  2.6813  1.9960
35165SOL     OW17219  10.352  11.150   3.576 -0.7737  0.4598  0.3319
35165SOL    HW117220  10.443  11.163   3.547 -0.6022  2.0810  1.4759
35165SOL    HW217221  10.360  11.129   3.669 -1.4870 -1.6807 -0.0305
35166SOL     OW17222  12.281   3.576   1.436  0.0656 -0.6492 -0.2245
35166SOL    HW117223  12.188   3.555   1.435  0.1048 -1.0926 -2.7160
35166SOL    HW217224  12.289   3.652   1.377  1.2770 -0.6005 -0.0349
35167SOL     OW17225   7.148  13.416  11.518  0.1942  0.0930  0.5958
35167SOL    HW117226   7.166  13.333  11.562 -0.8240  0.4660  1.7812
35167SOL    HW217227   7.171  13.400  11.426  0.5973 -1.2954  0.9123
35168SOL     OW17228   7.894  11.943  10.066  0.6198 -0.6302  0.3738
35168SOL    HW117229   7.815  11.920  10.115  0.2554  0.2319  0.2031
35168SOL    HW217230   7.920  11.861  10.023 -1.4193 -0.4774 -1.3185
35169SOL     OW17231   1.234  11.740   9.936  0.4480  0.4186  0.0413
35169SOL    HW117232   1.322  11.718   9.968  1.7360  1.8638 -2.2710
35169SOL    HW217233   1.207  11.814   9.991  1.0136  0.4932  0.2292
35170SOL     OW17234  12.360  11.488  12.584 -0.1257  0.0867  0.1135
35170SOL    HW117235  12.379  11.537  12.504 -0.6512 -0.4477 -0.3406
35170SOL    HW217236  12.446  11.464  12.619  0.0958  0.1327 -0.4007
35171SOL     OW17237   4.562   2.004   0.703 -0.0860  0.0065 -0.0225
35171SOL    HW117238   4.561   1.940   0.774  2.5136  1.6819  1.7172
35171SOL    HW217239   4.582   1.953   0.625 -0.7836 -1.6164  0.7972
35172SOL     OW17240   9.620   9.567   3.547 -0.2640  0.4674 -0.1774
35172SOL    HW117241   9.604   9.607   3.461 -0.0860 -0.3774 -0.6154
35172SOL    HW217242   9.542   9.587   3.598 -1.4509 -1.0197 -1.3161
35173SOL     OW17243   9.828   7.666   4.398 -0.2899  0.0767  0.4064
35173SOL    HW117244   9.903   7.714   4.435  0.0234 -0.1349  0.0551
35173SOL    HW217245   9.817   7.591   4.456  2.4185 -2.2315 -1.7446
35174SOL     OW17246   3.811   1.465  13.721  0.0166  0.3072 -0.0395
35174SOL    HW117247   3.788   1.501  13.635  0.9456  0.3174 -0.2900
35174SOL    HW217248   3.773   1.377  13.720  0.2002  0.2294 -0.5425
35175SOL     OW17249   7.680   4.395   5.951  0.7135  0.1622  0.8317
35175SOL    HW117250   7.685   4.319   5.893  2.0541  1.5504 -1.0111
35175SOL    HW217251   7.588   4.399   5.977  0.9382 -3.2338  2.7340
35176SOL     OW17252   1.694   5.003   7.432 -0.2703  0.0642  0.9727
35176SOL    HW117253   1.755   4.981   7.361  0.6623 -0.2479  1.8379
35176SOL    HW217254   1.642   5.076   7.398  0.2133 -0.0357 -0.0012
35177SOL     OW17255   5.480   1.454   9.742 -0.2471 -0.4309 -0.0371
35177SOL    HW117256   5.435   1.532   9.773 -0.0554  0.0442 -0.9221
35177SOL    HW217257   5.471   1.391   9.814 -0.9782  0.1716  0.4140
35178SOL     OW17258   5.599   0.940   0.554  1.2528  0.2890  0.3989
35178SOL    HW117259   5.580   0.970   0.643  1.2111 -0.8806  0.8014
35178SOL    HW217260   5.557   0.854   0.548 -0.2569  1.0843 -1.3500
35179SOL     OW17261   8.274   3.314   4.933  0.0688 -0.3652 -0.5713
35179SOL    HW117262   8.229   3.259   4.997 -3.1006  1.5632 -0.9297
35179SOL    HW217263   8.276   3.261   4.853 -3.1551 -0.0483 -0.9874
35180SOL     OW17264  10.023   5.021   8.448  0.8367 -0.1307  0.2301
35180SOL    HW117265   9.997   5.078   8.376  1.1033 -0.2178  0.0636
35180SOL    HW217266   9.970   4.942   8.436 -0.6124  0.6299  1.3039
35181SOL     OW17267  13.305   0.875  12.317  0.2348 -0.0522  0.3899
35181SOL    HW117268  13.279   0.796  12.364 -0.6516 -0.4531 -0.7382
35181SOL    HW217269  13.304   0.944  12.383 -2.0144 -0.3865  0.7661
35182SOL     OW17270   3.195  10.767   0.118  0.1121 -0.1647 -0.5509
35182SOL    HW117271   3.177  10.722   0.201 -0.9369 -0.4770 -0.9254
35182SOL    HW217272   3.245  10.703   0.067  0.0881 -0.2657 -0.4498
35183SOL     OW17273  10.315   7.484  10.602 -0.3945  0.2012 -0.4123
35183SOL    HW117274  10.257   7.548  10.642 -0.3998  1.4686 -2.2965
35183SOL    HW217275  10.267   7.453  10.525 -0.5319 -2.3863  0.6075
35184SOL     OW17276   6.851  10.970   8.917 -0.7337  0.1340  0.1240
35184SOL    HW117277   6.819  10.880   8.924  0.2367 -0.1872  0.6442
35184SOL    HW217278   6.784  11.015   8.865 -1.0572 -0.9713 -0.4638
35185SOL     OW17279   2.600   7.598  11.995  0.5221 -0.0106  0.1963
35185SOL    HW117280   2.645   7.660  11.938 -0.2346  1.0517  0.7253
35185SOL    HW217281   2.508   7.622  11.988  0.2627 -0.8182  0.7344
35186SOL     OW17282   9.411   6.579  10.717 -0.3567  0.1101 -0.2975
35186SOL    HW117283   9.455   6.497  10.737 -0.6943 -0.0288 -0.1217
35186SOL    HW217284   9.482   6.640  10.695 -0.1867 -0.8384 -2.7395
35187SOL     OW17285  11.129   7.854   4.475 -0.6588  0.1165 -0.3680
35187SOL    HW117286  11.116   7.766   4.441  0.6937 -0.2115 -0.1068
35187SOL    HW217287  11.066   7.908   4.428 -0.3042 -0.6841 -1.8123
35188SOL     OW17288  11.507   2.983  10.588 -0.4728  0.2811 -0.7686
35188SOL    HW117289  11.416   2.999  10.614 -0.4472 -0.1119 -0.4256
35188SOL    HW217290  11.546   3.070  10.582 -0.4025  0.3749  0.8046
35189SOL     OW17291   6.273   1.899   8.087 -0.3467 -0.0586  0.1154
35189SOL    HW117292   6.258   1.809   8.113  2.5747 -0.7437 -0.1663
35189SOL    HW217293   6.263   1.950   8.168  1.9053 -1.2551  1.2522
35190SOL     OW17294   4.869   6.008  13.487  0.1263  0.2734  0.4520
35190SOL    HW117295   4.849   6.023  13.579  0.6843 -0.1761  0.6596
35190SOL    HW217296   4.864   5.913  13.477  2.8092  0.0316  0.7166
35191SOL     OW17297  10.433   7.387   3.652  0.5075  0.5905  0.1023
35191SOL    HW117298  10.454   7.410   3.742  1.3659 -1.1649  0.3783
35191SOL    HW217299  10.435   7.292   3.650  2.3108  0.5857 -2.1546
35192SOL     OW17300   5.766  13.540   3.252  0.0034 -0.5043 -0.0746
35192SOL    HW117301   5.828  13.477   3.289  1.3394 -0.3729 -1.9776
35192SOL    HW217302   5.797  13.625   3.284  1.5236 -0.3292 -1.8443
35193SOL     OW17303   7.586   4.124   4.899 -0.5188 -0.0291  0.1730
35193SOL    HW117304   7.552   4.084   4.818 -2.1598 -1.4856  1.4734
35193SOL    HW217305   7.642   4.056   4.937  1.0862  1.0390 -0.2053
35194SOL     OW17306   4.919  10.102   2.139  0.0226  0.3553 -0.2908
35194SOL    HW117307   4.903  10.017   2.096 -0.6317  0.5433 -0.4191
35194SOL    HW217308   4.998  10.135   2.096  2.9271 -2.0872  2.6100
35195SOL     OW17309   2.568  10.276  12.743 -0.2380  0.5851 -0.2271
35195SOL    HW117310   2.517  10.214  12.691 -1.4638  0.6371  0.8593
35195SOL    HW217311   2.581  10.232  12.827 -2.0810  2.1746  0.9638
35196SOL     OW17312   6.125   0.144   8.156  0.2435  0.1454  0.0396
35196SOL    HW117313   6.126   0.094   8.074  0.7531 -0.2659  0.2971
35196SOL    HW217314   6.129   0.236   8.127 -1.4691  0.0985 -0.4618
35197SOL     OW17315   6.139  11.689   1.953 -0.4336 -0.3698 -0.3825
35197SOL    HW117316   6.085  11.649   1.884 -0.7688 -0.0219 -0.3291
35197SOL    HW217317   6.219  11.717   1.908 -0.0615 -1.3679 -0.3580
35198SOL     OW17318  11.944   1.331   3.368 -0.4662 -0.6280  0.0438
35198SOL    HW117319  11.861   1.314   3.324 -0.8850 -0.9580  0.9515
35198SOL    HW217320  11.940   1.280   3.449  1.3581 -2.1333 -0.7268
35199SOL     OW17321   2.654  10.186   9.045  0.8427 -0.2912  0.5707
35199SOL    HW117322   2.684  10.188   9.136  1.0719  1.4664  0.4940
35199SOL    HW217323   2.720  10.236   8.997 -0.2253  0.3726 -0.2512
35200SOL     OW17324   2.506   3.397   2.281 -0.2561 -0.1585 -0.4326
35200SOL    HW117325   2.516   3.483   2.322 -0.1019  0.2123 -1.2233
35200SOL    HW217326   2.539   3.409   2.192 -1.4382 -0.6905 -0.9733
35201SOL     OW17327   1.460   0.501   5.369 -0.2069 -0.3922  0.4704
35201SOL    HW117328   1.447   0.408   5.353 -0.9404 -0.4687  1.4397
35201SOL    HW217329   1.419   0.517   5.454  2.0283  0.3169  1.5022
35202SOL     OW17330   1.764   8.938   4.087 -0.0328 -0.5991  0.1931
35202SOL    HW117331   1.776   9.023   4.044  1.8164  0.3964  2.4349
35202SOL    HW217332   1.792   8.874   4.022 -0.1914  0.5788 -1.0932
35203SOL     OW17333   4.412   2.052   4.196  0.2816 -0.1639 -0.2997
35203SOL    HW117334   4.412   1.975   4.138 -1.6904  0.4897 -1.2465
35203SOL    HW217335   4.446   2.123   4.141  0.9068 -0.0842  0.1854
35204SOL     OW17336   4.608   8.294   5.753 -0.1514 -0.2480  0.0251
35204SOL    HW117337   4.671   8.236   5.711 -0.1607  1.4138 -2.5451
35204SOL    HW217338   4.529   8.241   5.764  0.8801 -1.6468  1.0109
35205SOL     OW17339  13.527   7.060   3.044 -0.0615  0.4294  0.0305
35205SOL    HW117340  13.564   7.106   3.119 -1.1074 -0.0592  0.8807
35205SOL    HW217341  13.458   7.118   3.011  0.2321  0.5349 -0.4014
35206SOL     OW17342   4.475   0.645   5.822 -0.0507  0.1408 -0.2212
35206SOL    HW117343   4.537   0.701   5.775  1.2707 -0.6141  0.5616
35206SOL    HW217344   4.449   0.579   5.759 -1.5815  1.5326 -1.1401
35207SOL     OW17345   8.725  11.124   7.671  0.2209 -0.4368 -0.1286
35207SOL    HW117346   8.668  11.048   7.672 -1.3395  0.6433 -1.0974
35207SOL    HW217347   8.668  11.197   7.696  1.2739  0.6330 -0.7157
35208SOL     OW17348   9.865   2.436   6.150 -0.0540  0.0409  0.0353
35208SOL    HW117349   9.831   2.392   6.072  0.5528  0.4875 -0.4925
35208SOL    HW217350   9.808   2.512   6.161 -0.3218 -0.1849  0.1965
35209SOL     OW17351  11.313   9.740   3.958  0.3524 -0.3199 -0.4081
35209SOL    HW117352  11.234   9.720   3.907  1.0567 -1.7673 -0.9887
35209SOL    HW217353  11.282   9.753   4.047 -0.8269  1.5714 -1.0331
35210SOL     OW17354   7.487   3.320  12.375  0.4864  0.1201  0.7249
35210SOL    HW117355   7.473   3.260  12.449  1.0110 -0.7822  0.1061
35210SOL    HW217356   7.432   3.396  12.396  0.0998 -0.4053  1.7102
35211SOL     OW17357   7.948  10.642   6.938  0.2702 -0.6310  0.0569
35211SOL    HW117358   7.920  10.604   6.854  1.2458 -0.7331 -0.2396
35211SOL    HW217359   8.043  10.632   6.937  0.4394  0.8264  0.4742
35212SOL     OW17360   5.096   1.305  13.464 -0.6356  0.5056 -0.0646
35212SOL    HW117361   5.090   1.218  13.425  1.0705  0.2614  0.1192
35212SOL    HW217362   5.111   1.364  13.389  0.7062  0.2913  0.0158
35213SOL     OW17363   6.158   9.174   5.807 -0.2967  0.7044  0.1932
35213SOL    HW117364   6.243   9.140   5.836 -0.5885  1.5199  2.1079
35213SOL    HW217365   6.136   9.241   5.871 -1.0097  2.6469 -1.9672
35214SOL     OW17366  12.283   1.223   7.990  0.3862 -0.0040  0.1337
35214SOL    HW117367  12.280   1.215   8.085  0.5015 -2.0599  0.0169
35214SOL    HW217368  12.307   1.135   7.960  0.9823  0.7697 -1.7676
35215SOL     OW17369  10.299   9.653  12.132  0.0370  0.0753 -0.4772
35215SOL    HW117370  10.328   9.713  12.201 -2.2724  0.2578  0.4290
35215SOL    HW217371  10.229   9.699  12.087 -3.2742 -2.4918  1.5429
35216SOL     OW17372   4.082   3.395   6.589 -0.8091  0.0318 -0.0500
35216SOL    HW117373   4.084   3.303   6.566 -1.5160  0.1335 -0.5768
35216SOL    HW217374   4.017   3.433   6.530 -0.4613  0.8822  0.0958
35217SOL     OW17375   0.535  12.650   4.890  0.5612  0.5957  0.9646
35217SOL    HW117376   0.464  12.714   4.886 -0.2640 -0.3541 -0.7733
35217SOL    HW217377   0.529  12.612   4.978 -0.8704  0.7570  0.9508
35218SOL     OW17378   9.692   5.832   3.140  0.4473  0.6924 -0.5141
35218SOL    HW117379   9.666   5.873   3.058  1.0773  1.1925 -0.4690
35218SOL    HW217380   9.618   5.845   3.199 -0.1440  0.0436 -1.0910
35219SOL     OW17381   8.541   5.049  11.513  0.1304  0.3735 -0.0569
35219SOL    HW117382   8.541   5.022  11.422  1.8106 -0.4355  0.1381
35219SOL    HW217383   8.531   5.144  11.510 -1.5034  0.2004 -0.9733
35220SOL     OW17384   3.200  10.216  12.682  0.0571 -0.4559 -0.1918
35220SOL    HW117385   3.156  10.221  12.597  0.2056 -0.1242 -0.2513
35220SOL    HW217386   3.277  10.272  12.672  1.8931 -2.9511 -0.9030
35221SOL     OW17387   5.638   3.185  10.605 -0.1975 -0.3557  0.3966
35221SOL    HW117388   5.690   3.235  10.543 -1.7340  0.6582 -0.1496
35221SOL    HW217389   5.548   3.215  10.591 -0.6201 -0.0085  3.1859
35222SOL     OW17390  11.809   3.496  12.439  0.2899  0.1983 -0.5138
35222SOL    HW117391  11.835   3.568  12.497  1.5418 -0.0544 -0.7194
35222SOL    HW217392  11.821   3.530  12.351 -2.4845  0.8893 -0.6956
35223SOL     OW17393   8.869   7.182   6.742  0.7697  0.3145  0.0314
35223SOL    HW117394   8.825   7.105   6.706  0.8126  0.4862 -0.3972
35223SOL    HW217395   8.914   7.150   6.820 -1.3699  0.4360  1.4060
35224SOL     OW17396   9.745  10.792   5.252  0.2631  0.3165 -0.2263
35224SOL    HW117397   9.650  10.802   5.255  0.2513 -0.0661  2.5275
35224SOL    HW217398   9.771  10.836   5.171 -2.2516  0.2130 -1.1675
35225SOL     OW17399   0.570  13.631   5.586  0.0647 -0.0271  0.9129
35225SOL    HW117400   0.609  13.544   5.585 -0.7912 -0.5146  3.3400
35225SOL    HW217401   0.640  13.689   5.617 -0.0532 -0.2768  1.6591
35226SOL     OW17402   5.263   3.271   8.543  0.0979  0.5197  0.4435
35226SOL    HW117403   5.216   3.351   8.568 -0.6397  0.1777  0.1859
35226SOL    HW217404   5.228   3.249   8.457  1.0211  0.4607  0.0748
35227SOL     OW17405   5.543  10.820  12.770 -0.0985 -0.6551 -0.8056
35227SOL    HW117406   5.459  10.863  12.750  1.5380  3.3016 -0.1870
35227SOL    HW217407   5.534  10.792  12.861 -0.1478  1.7912  0.0314
35228SOL     OW17408  13.512   0.389   6.991  0.2191  0.3432 -0.2988
35228SOL    HW117409  13.479   0.390   6.902 -0.2934  1.3198 -0.1060
35228SOL    HW217410  13.482   0.305   7.027  2.6363 -1.3133 -1.8130
35229SOL     OW17411   9.156   6.802  11.968  0.0406  0.2670  0.5196
35229SOL    HW117412   9.060   6.807  11.961  0.1762  1.0154 -1.3216
35229SOL    HW217413   9.188   6.864  11.903  1.8050  1.1292  2.1271
35230SOL     OW17414   5.722  11.009   9.183  0.1502 -0.0205  0.4133
35230SOL    HW117415   5.755  10.939   9.128  0.5885 -0.1880  0.8811
35230SOL    HW217416   5.784  11.080   9.172 -0.4675  0.4228 -0.3119
35231SOL     OW17417   8.954   7.479  12.283 -0.0546 -0.1166  0.0441
35231SOL    HW117418   9.034   7.435  12.256 -0.5139 -0.6967 -0.3999
35231SOL    HW217419   8.978   7.572  12.288  0.6253 -0.2782 -0.1423
35232SOL     OW17420  10.465   5.024   9.758 -0.1370  0.0445  0.2738
35232SOL    HW117421  10.405   5.069   9.817  0.0832  1.2511 -0.3742
35232SOL    HW217422  10.409   4.968   9.705 -0.5266  0.1551  0.5671
35233SOL     OW17423  11.361  11.501  10.836  0.1287 -0.5217 -0.0158
35233SOL    HW117424  11.347  11.408  10.815 -0.7242 -0.3463 -0.2580
35233SOL    HW217425  11.456  11.511  10.837  0.2306 -1.4076  0.0406
35234SOL     OW17426  10.221   5.223   7.222 -0.3113  0.1291  0.3608
35234SOL    HW117427  10.259   5.185   7.301 -0.9329  0.5234  0.8616
35234SOL    HW217428  10.188   5.147   7.173  1.4034 -0.2569 -0.2673
35235SOL     OW17429  13.495   4.035   1.890  0.9853 -0.6876 -0.0511
35235SOL    HW117430  13.454   4.113   1.851  0.3814 -0.3578  1.1930
35235SOL    HW217431  13.580   4.065   1.920  0.7042 -0.4552  0.5386
35236SOL     OW17432  10.858   5.904   1.487  0.0561  0.5626 -1.0228
35236SOL    HW117433  10.846   5.934   1.577  0.0662 -0.4333 -0.6785
35236SOL    HW217434  10.770   5.904   1.449 -0.5077 -2.2472  0.0567
35237SOL     OW17435   9.778   8.989   0.541 -0.2632 -0.1796  0.1175
35237SOL    HW117436   9.701   8.934   0.558  0.7804 -2.1851 -1.1867
35237SOL    HW217437   9.852   8.935   0.570  0.8025  0.5631 -1.1403
35238SOL     OW17438   2.742   6.349   8.874  0.1561 -0.4007 -0.3258
35238SOL    HW117439   2.836   6.343   8.856 -0.1059 -1.7270 -1.4264
35238SOL    HW217440   2.737   6.380   8.964  1.6820 -2.0892  0.4109
35239SOL     OW17441   2.057   1.476   4.311 -0.5585  0.2641 -0.0467
35239SOL    HW117442   1.981   1.512   4.265 -0.9125 -1.0651 -0.5591
35239SOL    HW217443   2.020   1.434   4.389 -0.2466  0.3669  0.1591
35240SOL     OW17444   1.838   7.118  12.546 -0.0468 -0.3230 -0.0763
35240SOL    HW117445   1.845   7.208  12.580  1.8395 -0.5043  0.1062
35240SOL    HW217446   1.927   7.085  12.548 -0.4936 -1.7120 -1.5660
35241SOL     OW17447   9.540  11.885  12.257  0.0591  0.0831 -0.2954
35241SOL    HW117448   9.584  11.801  12.273  0.5764  0.2965 -0.5681
35241SOL    HW217449   9.562  11.939  12.333  1.9744  0.8733 -1.3235
35242SOL     OW17450   0.080   7.797   7.688 -0.2972 -0.0828 -0.2134
35242SOL    HW117451   0.110   7.729   7.748 -1.4028 -0.9415 -0.6004
35242SOL    HW217452   0.108   7.767   7.602 -1.8480 -0.7193 -0.5372
35243SOL     OW17453   8.443   1.127   1.846  0.0742 -0.8043  0.2480
35243SOL    HW117454   8.395   1.210   1.854 -0.5772 -1.1072 -0.4103
35243SOL    HW217455   8.452   1.096   1.936 -0.3557 -0.3906  0.4422
35244SOL     OW17456   6.941  11.836  10.702 -0.0638  0.3812  0.8655
35244SOL    HW117457   6.900  11.761  10.659  1.8623 -0.9841  1.2367
35244SOL    HW217458   6.972  11.801  10.786  1.8425  1.2632  0.5975
35245SOL     OW17459   0.561   3.042  11.870  0.5776 -0.1187 -0.1231
35245SOL    HW117460   0.622   3.028  11.797  1.1156  2.2991 -0.2187
35245SOL    HW217461   0.476   3.052  11.828  0.9481  1.7149 -0.5514
35246SOL     OW17462   5.449   8.030  10.949  0.0402 -0.4254  0.0167
35246SOL    HW117463   5.431   8.119  10.919  2.6215  1.2155  2.7971
35246SOL    HW217464   5.377   7.978  10.914 -3.2870  3.2583  0.6840
35247SOL     OW17465   3.130   8.205   1.434 -0.0176 -0.4692 -0.1333
35247SOL    HW117466   3.037   8.227   1.432  0.7069  3.6917  0.9092
35247SOL    HW217467   3.165   8.255   1.509  3.1112 -1.5984 -0.6755
35248SOL     OW17468   1.200   6.639  13.332 -0.3342  0.3578  0.5136
35248SOL    HW117469   1.279   6.672  13.290 -0.8630  0.7994 -0.1326
35248SOL    HW217470   1.202   6.678  13.420 -0.8249  1.9239 -0.1533
35249SOL     OW17471   4.788  13.299  12.877 -0.1369  0.4145 -0.1550
35249SOL    HW117472   4.818  13.331  12.962  0.5257 -0.2987 -0.1118
35249SOL    HW217473   4.729  13.226  12.898  1.6131 -1.1150 -0.3138
35250SOL     OW17474   3.882   2.008   8.021 -0.3010  0.1942  0.1931
35250SOL    HW117475   3.918   1.929   7.981 -1.4927  0.0727 -0.7093
35250SOL    HW217476   3.840   2.055   7.948 -2.5208 -0.0003  1.2532
35251SOL     OW17477   0.100  13.052   1.062 -0.3149 -0.7878  0.2867
35251SOL    HW117478   0.061  13.110   1.127 -1.3357 -0.3272 -0.7060
35251SOL    HW217479   0.154  13.109   1.007  0.8166 -1.2285  0.9153
35252SOL     OW17480  10.017   3.533   0.326 -0.7395  0.6926  0.2536
35252SOL    HW117481  10.038   3.552   0.418  0.2493 -0.6132  0.3256
35252SOL    HW217482   9.975   3.447   0.328 -0.1700  0.3887 -0.5716
35253SOL     OW17483  11.153  12.148  10.644  0.3411 -0.3621 -0.7975
35253SOL    HW117484  11.065  12.164  10.610  0.5007 -0.7624 -1.4087
35253SOL    HW217485  11.186  12.075  10.592  0.1869 -1.7288  0.9085
35254SOL     OW17486   9.213   0.556  13.240 -0.0893  0.1229 -0.0041
35254SOL    HW117487   9.168   0.641  13.237  0.7865  0.5582 -1.2352
35254SOL    HW217488   9.199   0.519  13.153  1.0895 -0.1685 -0.0834
35255SOL     OW17489   3.026   9.892   5.878  0.1993 -0.5199 -0.2720
35255SOL    HW117490   2.984   9.809   5.902  0.1283 -0.4589 -0.1844
35255SOL    HW217491   3.002   9.952   5.949 -1.7196  0.2267 -1.4795
35256SOL     OW17492   0.397   7.614   9.354 -0.1650  0.6192  0.7447
35256SOL    HW117493   0.410   7.708   9.361  2.0924  0.3343  1.2462
35256SOL    HW217494   0.402   7.597   9.260  1.1575  0.8402  0.7504
35257SOL     OW17495   0.909   8.007   9.029  0.7631 -0.1236 -0.9388
35257SOL    HW117496   0.879   8.096   9.009 -1.0759 -0.7891 -1.3168
35257SOL    HW217497   1.003   8.009   9.010  0.8768  1.8584 -0.4444
35258SOL     OW17498   5.955   4.703   2.270  0.1679  0.5265 -0.2038
35258SOL    HW117499   5.878   4.710   2.327 -0.8154  0.5979 -1.5109
35258SOL    HW217500   5.922   4.663   2.190  1.7748 -0.6753 -0.3045
35259SOL     OW17501   9.978   1.870  12.792 -0.1703 -0.4631  0.1992
35259SOL    HW117502   9.969   1.806  12.721  0.0273 -0.0353 -0.2132
35259SOL    HW217503  10.032   1.824  12.857 -0.0163 -0.7172 -0.0993
35260SOL     OW17504  13.307  12.576   8.989 -0.0333  0.2633 -0.1394
35260SOL    HW117505  13.391  12.611   9.019  0.6388 -0.8032 -0.6761
35260SOL    HW217506  13.317  12.481   8.997 -1.0792  0.1096 -0.5149
35261SOL     OW17507  11.213   8.845  13.293  0.3937 -0.7078 -0.7221
35261SOL    HW117508  11.184   8.756  13.271  0.8960 -1.0302 -0.1160
35261SOL    HW217509  11.186   8.857  13.384  0.0726 -0.1238 -0.8903
35262SOL     OW17510   5.014   5.136   6.087  0.6725  0.1095 -0.1659
35262SOL    HW117511   5.074   5.200   6.047  1.4236 -0.6347 -0.2494
35262SOL    HW217512   5.067   5.092   6.154 -0.0803  0.1364  0.4640
35263SOL     OW17513  12.111   3.220  13.079 -0.4234 -0.3164 -0.1967
35263SOL    HW117514  12.060   3.148  13.115 -0.9789  0.5007  0.6861
35263SOL    HW217515  12.177   3.238  13.146 -0.2523 -0.0300 -0.4406
35264SOL     OW17516   1.565   6.759  12.732  0.1523 -0.7960  0.1368
35264SOL    HW117517   1.604   6.846  12.742 -0.7399 -0.5154  1.4675
35264SOL    HW217518   1.495   6.772  12.668  0.1640 -0.5769  0.1674
35265SOL     OW17519  12.548   6.535   7.074 -0.2911  0.2439 -0.1286
35265SOL    HW117520  12.500   6.453   7.085 -1.4305  0.7657 -1.0325
35265SOL    HW217521  12.635   6.517   7.111 -0.9477 -0.9383  0.9074
35266SOL     OW17522  10.003   8.213  13.387 -0.5903 -0.0118  0.3498
35266SOL    HW117523  10.028   8.211  13.479  1.5118 -0.5651 -0.1931
35266SOL    HW217524   9.986   8.306  13.369 -0.0444  0.2287  1.0459
35267SOL     OW17525  11.562   0.238   2.142 -0.3907 -0.7560  0.6093
35267SOL    HW117526  11.597   0.294   2.073 -0.5976 -0.7227  0.5313
35267SOL    HW217527  11.473   0.268   2.155  0.1574  0.3405  2.0610
35268SOL     OW17528   7.848  11.670   9.305 -0.0274  0.0017  0.0261
35268SOL    HW117529   7.906  11.621   9.364 -0.7337 -1.8842 -0.7476
35268SOL    HW217530   7.776  11.699   9.361  0.0053 -0.5703  0.3787
35269SOL     OW17531   8.270  13.011  10.245  0.3380 -0.3934  0.1179
35269SOL    HW117532   8.294  13.102  10.264 -0.5005 -0.1168 -0.0716
35269SOL    HW217533   8.242  12.975  10.329  0.1327 -0.2971  0.0921
35270SOL     OW17534   6.715   0.325   7.849 -0.0299  0.8491 -0.6234
35270SOL    HW117535   6.774   0.250   7.858  0.8803  1.1208 -3.3941
35270SOL    HW217536   6.727   0.374   7.930 -1.6483 -2.5553  1.9510
35271SOL     OW17537   7.560   5.037   5.911  0.0472  0.0699 -0.3434
35271SOL    HW117538   7.520   4.963   5.958  0.4340  0.0614 -0.0243
35271SOL    HW217539   7.492   5.104   5.910  1.0005  1.3175  3.0536
35272SOL     OW17540   8.816  11.677   8.095 -0.3444  0.2603  0.6048
35272SOL    HW117541   8.746  11.742   8.100 -1.2841 -0.8078  2.6129
35272SOL    HW217542   8.796  11.625   8.018 -0.3307  1.5035 -0.2552
35273SOL     OW17543  10.593   6.273  13.645  0.3830 -0.1263 -0.3476
35273SOL    HW117544  10.639   6.332  13.586  0.8413 -1.1111 -0.9939
35273SOL    HW217545  10.599   6.315  13.731  1.5544  0.2922 -0.6211
35274SOL     OW17546  10.912   4.353   9.179  0.0714 -0.0670 -0.4231
35274SOL    HW117547  10.941   4.381   9.266  2.3708 -0.4999 -0.9863
35274SOL    HW217548  10.936   4.261   9.173  1.6860  0.3913 -2.1325
35275SOL     OW17549   4.708   5.232  10.338 -0.1661  0.3439  0.1166
35275SOL    HW117550   4.788   5.281  10.321  0.9449 -0.3459  2.8186
35275SOL    HW217551   4.641   5.299  10.347  0.8597  1.2353  1.4202
35276SOL     OW17552  13.228   4.223   8.155  0.6069  0.0116 -0.3580
35276SOL    HW117553  13.179   4.251   8.232 -0.5311 -1.0836 -0.6530
35276SOL    HW217554  13.281   4.299   8.132 -0.4601  1.0191  0.3735
35277SOL     OW17555   5.094  12.097   1.577 -0.8385  0.1296 -0.0738
35277SOL    HW117556   5.002  12.108   1.554 -0.7704  0.2430 -0.2940
35277SOL    HW217557   5.093  12.037   1.651 -1.0267 -0.5889 -0.6455
35278SOL     OW17558  11.380   9.467   9.257 -0.2732  0.1698  0.1110
35278SOL    HW117559  11.382   9.555   9.296  0.0080  0.3511 -0.3082
35278SOL    HW217560  11.287   9.450   9.241 -0.5790 -0.5215  2.2080
35279SOL     OW17561   8.622   9.187   8.979  0.1213 -0.0848  0.2040
35279SOL    HW117562   8.553   9.151   8.923 -0.4386 -1.1459  1.5003
35279SOL    HW217563   8.651   9.266   8.935 -2.4054  0.7796 -0.0716
35280SOL     OW17564   7.263   3.185   4.875  0.3733 -0.2448  0.3029
35280SOL    HW117565   7.263   3.148   4.963  0.1788 -3.6053 -0.9618
35280SOL    HW217566   7.206   3.127   4.824  1.4011  0.8370 -2.2917
35281SOL     OW17567  10.813   2.610  13.106 -0.0712  0.7334 -0.0370
35281SOL    HW117568  10.763   2.595  13.186  0.2587  2.6770  0.5965
35281SOL    HW217569  10.900   2.575  13.125 -0.1122  0.8238  0.3260
35282SOL     OW17570   3.339  11.134   2.731  0.1303  0.0390  0.2277
35282SOL    HW117571   3.290  11.213   2.707 -0.4054  0.2768  1.9766
35282SOL    HW217572   3.305  11.066   2.673 -0.8746  0.6339  0.0963
35283SOL     OW17573   1.566  11.936  12.573 -0.3901  0.1581 -0.2410
35283SOL    HW117574   1.544  11.989  12.649 -1.1944  1.2731 -1.2088
35283SOL    HW217575   1.661  11.942  12.566 -0.2150 -0.6447  1.1377
35284SOL     OW17576   2.411  11.208   5.158  0.3530  0.0915 -0.3275
35284SOL    HW117577   2.423  11.184   5.250  1.0940 -1.0675 -0.7000
35284SOL    HW217578   2.470  11.282   5.146  0.9191 -0.3046 -0.0714
35285SOL     OW17579  12.840   6.253   3.634 -0.5948 -0.0582  0.8805
35285SOL    HW117580  12.786   6.234   3.557 -0.0997  0.6523  0.3418
35285SOL    HW217581  12.879   6.339   3.614 -0.1884 -0.0328  1.7715
35286SOL     OW17582   2.406   1.835  11.057 -0.2259 -0.3091 -0.2973
35286SOL    HW117583   2.422   1.808  11.148  2.8894  0.8278 -0.3832
35286SOL    HW217584   2.420   1.930  11.058 -0.0191 -0.2904 -1.9860
35287SOL     OW17585   0.569  12.988   7.186 -0.2723  0.0013 -0.1195
35287SOL    HW117586   0.490  13.005   7.135 -0.0982  0.7161 -0.1637
35287SOL    HW217587   0.545  12.918   7.246 -1.0290  0.4263  0.0765
35288SOL     OW17588  11.557  13.315   8.278  0.9556 -0.3018  0.3506
35288SOL    HW117589  11.521  13.297   8.191 -0.0581  1.3749  0.3785
35288SOL    HW217590  11.606  13.236   8.301 -1.1067 -1.9306 -0.5364
35289SOL     OW17591   3.352   6.300   6.790 -0.1484  0.0076 -0.2062
35289SOL    HW117592   3.364   6.393   6.810  0.0664  0.0943 -0.7059
35289SOL    HW217593   3.440   6.268   6.769 -0.3462 -0.0827 -0.9383
35290SOL     OW17594   5.048   5.390  11.629  0.2055  0.3542 -0.1910
35290SOL    HW117595   5.028   5.376  11.721 -0.8000 -3.2896 -0.8146
35290SOL    HW217596   4.968   5.427  11.592 -0.3766 -0.7348 -0.0578
35291SOL     OW17597   0.594   6.984   5.953 -0.1328 -0.3358  0.0726
35291SOL    HW117598   0.507   6.972   5.991  0.0618  0.5104  0.8271
35291SOL    HW217599   0.578   7.000   5.860 -0.6453 -2.0307 -0.1791
35292SOL     OW17600   6.586   0.565   5.666 -0.0521  0.3308  0.7150
35292SOL    HW117601   6.557   0.550   5.756  2.1032 -0.2487  1.3768
35292SOL    HW217602   6.639   0.644   5.670 -0.9226  0.9907 -0.3057
35293SOL     OW17603   7.809   1.752  10.073  1.1781 -0.1120  0.7624
35293SOL    HW117604   7.835   1.794   9.991 -1.2789  1.6382  0.7554
35293SOL    HW217605   7.801   1.825  10.135 -3.0126 -0.3808  0.8249
35294SOL     OW17606   9.698   1.973   6.971  0.0531 -0.0395  0.7115
35294SOL    HW117607   9.652   2.041   7.020 -0.5363 -0.3599  0.6159
35294SOL    HW217608   9.745   1.923   7.038  1.0320  0.8565  0.7140
35295SOL     OW17609   9.174  11.723   4.701  0.3948  0.4590 -0.1046
35295SOL    HW117610   9.229  11.656   4.742 -0.7869 -1.3481 -1.3348
35295SOL    HW217611   9.114  11.674   4.645 -0.1715  2.6081 -1.5042
35296SOL     OW17612   0.304  11.441   4.602 -0.2039  0.0169 -0.6484
35296SOL    HW117613   0.347  11.393   4.531  0.0264 -0.4546 -0.1971
35296SOL    HW217614   0.341  11.529   4.598 -1.3532  0.4734 -2.1112
35297SOL     OW17615   8.193   9.967   2.602  0.2257 -0.1087  0.4485
35297SOL    HW117616   8.119   9.992   2.546 -0.0076  0.2304  0.8952
35297SOL    HW217617   8.152   9.940   2.685  0.5865 -0.1419  0.6166
35298SOL     OW17618   0.804   2.788   7.104  0.1938 -0.1239 -0.5077
35298SOL    HW117619   0.849   2.870   7.127  0.0978 -0.1156 -0.3383
35298SOL    HW217620   0.866   2.740   7.051 -0.4393  0.8908 -2.2467
35299SOL     OW17621   5.307   9.283   2.082  0.3560  0.6352 -0.5372
35299SOL    HW117622   5.360   9.361   2.101  0.0106  0.9532 -0.8724
35299SOL    HW217623   5.234   9.288   2.144  1.6537 -0.7879  1.2503
35300SOL     OW17624  12.925   2.268   9.985 -0.4556  0.3420 -0.0480
35300SOL    HW117625  12.924   2.364   9.981  0.4221  0.3343 -2.2700
35300SOL    HW217626  12.837   2.242   9.958 -0.4851  0.5258 -0.1305
35301SOL     OW17627   4.396  11.503   3.958  0.0684  0.1858  0.0842
35301SOL    HW117628   4.441  11.420   3.938 -2.3488 -2.0748  3.0854
35301SOL    HW217629   4.332  11.513   3.887 -0.9407 -1.6727  0.6671
35302SOL     OW17630  13.404  13.561   4.111 -0.2035  0.0141 -0.0898
35302SOL    HW117631  13.315  13.535   4.136 -1.0266  2.9876  0.5042
35302SOL    HW217632  13.455  13.551   4.191 -0.2368 -0.7523 -0.1599
35303SOL     OW17633  11.384  12.378   0.478 -0.0203  0.1037 -0.2606
35303SOL    HW117634  11.360  12.433   0.404 -1.9591  0.7826  0.7846
35303SOL    HW217635  11.403  12.292   0.440 -1.3905  0.3235 -1.5252
35304SOL     OW17636   6.200   3.305   9.547  0.0888 -0.0399 -0.5529
35304SOL    HW117637   6.180   3.247   9.620  1.0337  0.9833  0.5554
35304SOL    HW217638   6.272   3.262   9.500  0.5453  0.0528  0.0548
35305SOL     OW17639   2.672   0.303   9.935 -0.0154 -0.1435 -0.3195
35305SOL    HW117640   2.588   0.348   9.935  0.0205 -0.0668 -0.7498
35305SOL    HW217641   2.723   0.350   9.869 -0.0068 -0.8838 -0.8429
35306SOL     OW17642  12.592   0.354  10.006  0.0287 -0.3402 -0.0055
35306SOL    HW117643  12.673   0.358  10.056 -0.3979 -0.4663  0.7000
35306SOL    HW217644  12.553   0.441  10.018 -0.2639 -0.5021  0.1920
35307SOL     OW17645   8.835   1.511   6.702  0.2161 -0.3039 -0.1161
35307SOL    HW117646   8.829   1.416   6.699  0.5767 -0.4695  2.2714
35307SOL    HW217647   8.883   1.535   6.622  1.2242 -2.2332 -0.1532
35308SOL     OW17648   8.467  10.215   2.546  0.3523  0.1654 -0.1154
35308SOL    HW117649   8.402  10.221   2.476  0.8902 -1.8406 -0.8536
35308SOL    HW217650   8.417  10.229   2.626 -1.0086 -1.1672 -0.6779
35309SOL     OW17651  10.382  11.835  13.169 -0.1440 -0.5846 -0.1218
35309SOL    HW117652  10.296  11.877  13.177 -0.9575 -2.1929 -0.0224
35309SOL    HW217653  10.366  11.759  13.114  1.1914 -0.9941  0.0396
35310SOL     OW17654   8.591   9.477  11.691  0.5632 -0.6551 -0.2854
35310SOL    HW117655   8.664   9.466  11.629  1.0164 -1.8611  0.4308
35310SOL    HW217656   8.619   9.430  11.769 -0.8401 -0.8273  0.1324
35311SOL     OW17657  11.748   8.578   8.096  0.0557  0.0835 -0.3732
35311SOL    HW117658  11.725   8.671   8.088  1.8770  0.4736 -1.4454
35311SOL    HW217659  11.692   8.534   8.031 -0.0196  0.5695 -0.6417
35312SOL     OW17660   6.580   0.081   4.372  0.0103 -0.3692 -0.1284
35312SOL    HW117661   6.666   0.075   4.332  1.1613  2.4954  1.6152
35312SOL    HW217662   6.535   0.149   4.321 -0.2220  0.0083  0.5716
35313SOL     OW17663   3.590   8.632  10.773  0.1290 -0.5520 -0.2407
35313SOL    HW117664   3.563   8.715  10.734  2.5128  0.0792 -0.6970
35313SOL    HW217665   3.537   8.566  10.728 -0.9309  0.6098 -0.7441
35314SOL     OW17666   3.390   3.814   7.157 -0.7554  0.1801  0.1384
35314SOL    HW117667   3.307   3.768   7.144 -0.0062 -0.7301 -1.6650
35314SOL    HW217668   3.427   3.822   7.069 -0.1318  2.9175  0.5731
35315SOL     OW17669   3.865   8.149   5.262 -0.0110 -0.6040 -0.1599
35315SOL    HW117670   3.893   8.069   5.306  0.2275 -0.1227  0.5911
35315SOL    HW217671   3.911   8.147   5.178  0.9803 -0.6612  0.3635
35316SOL     OW17672   0.210   4.766   2.235  0.3657  0.3153  0.6202
35316SOL    HW117673   0.178   4.849   2.200 -1.5382 -1.2381 -1.6151
35316SOL    HW217674   0.296   4.755   2.194 -0.1821  0.3383 -0.5764
35317SOL     OW17675   5.309   4.185   2.920 -0.1789  0.1781  0.1228
35317SOL    HW117676   5.400   4.213   2.930 -0.3781  0.5523  1.0609
35317SOL    HW217677   5.313   4.089   2.920  0.3740  0.1592 -1.7099
35318SOL     OW17678   3.464  13.459   7.420  0.3710  0.1895 -0.0795
35318SOL    HW117679   3.381  13.499   7.394  1.4199  1.4084 -1.7126
35318SOL    HW217680   3.531  13.511   7.376  2.0785 -0.2687  1.8138
35319SOL     OW17681   2.257   2.732  13.259 -0.2437  0.3397  0.3208
35319SOL    HW117682   2.302   2.707  13.339 -2.1182 -2.3729  0.6470
35319SOL    HW217683   2.229   2.823  13.274  2.9698  1.3484  0.9739
35320SOL     OW17684   0.455   3.785   0.014 -0.0999 -0.7057  0.3484
35320SOL    HW117685   0.522   3.851   0.001  2.4668 -2.6246  2.6842
35320SOL    HW217686   0.414   3.807   0.097  0.8852 -2.0066  1.2293
35321SOL     OW17687   8.171   4.434   3.644 -0.0853  0.4733 -0.4143
35321SOL    HW117688   8.196   4.523   3.618  0.9946  0.3332  0.0736
35321SOL    HW217689   8.077   4.429   3.627 -0.0476  1.5141 -0.9972
35322SOL     OW17690  13.584   7.697   1.048 -0.0966  0.0258  0.2769
35322SOL    HW117691  13.619   7.762   0.988 -1.0451  1.2374  0.9730
35322SOL    HW217692  13.638   7.706   1.127  1.0209 -1.4240 -0.2781
35323SOL     OW17693  11.396   5.301   8.682  0.1390  0.3825  0.0718
35323SOL    HW117694  11.443   5.328   8.603 -1.9770 -0.1675 -1.4578
35323SOL    HW217695  11.341   5.376   8.703 -0.2803  0.0275  0.2451
35324SOL     OW17696   1.444   6.786   4.507  0.0075 -0.2905 -0.5073
35324SOL    HW117697   1.497   6.847   4.558  0.8648 -0.3517 -1.2980
35324SOL    HW217698   1.356   6.793   4.545 -0.0345  1.7746 -0.8561
35325SOL     OW17699   5.874   7.643  10.534 -0.5976 -0.1455 -0.1533
35325SOL    HW117700   5.962   7.626  10.568 -0.8000 -0.4416  0.2258
35325SOL    HW217701   5.848   7.725  10.575  0.3049  1.0362 -1.8350
35326SOL     OW17702   7.918   6.059   0.147 -0.1761  0.0696 -0.0412
35326SOL    HW117703   7.929   5.988   0.211 -0.1884 -0.4796 -0.6435
35326SOL    HW217704   7.839   6.104   0.176  1.2524  1.4856  1.8863
35327SOL     OW17705  11.981   6.497  12.089 -0.0994  0.1609 -0.3624
35327SOL    HW117706  12.054   6.554  12.114 -0.0748  0.0939 -0.2797
35327SOL    HW217707  11.993   6.418  12.142 -0.5533  0.3787  0.0737
35328SOL     OW17708  12.887   4.739   7.420  0.0904 -0.2108  0.0553
35328SOL    HW117709  12.939   4.818   7.405 -0.3121 -0.0772 -0.6790
35328SOL    HW217710  12.950   4.672   7.445  0.6701 -0.1292 -1.1099
35329SOL     OW17711   7.261  13.133  10.857  0.0136 -0.5293 -0.6279
35329SOL    HW117712   7.348  13.128  10.897 -0.2374  0.2045  0.0262
35329SOL    HW217713   7.221  13.047  10.875  0.1432 -0.4321  0.1423
35330SOL     OW17714  11.785   4.141   1.271  0.3341 -0.0003  0.1563
35330SOL    HW117715  11.863   4.171   1.319 -0.2931 -0.7475  1.7218
35330SOL    HW217716  11.723   4.214   1.280  0.1953 -0.1650  0.5536
35331SOL     OW17717   9.434   3.655   7.187 -0.5208  0.8519 -0.1041
35331SOL    HW117718   9.499   3.633   7.254 -1.1641  0.5095  0.4119
35331SOL    HW217719   9.358   3.688   7.236 -1.4809 -0.5921 -0.5650
35332SOL     OW17720   3.843   9.639  11.942 -0.3393  0.0879  0.1251
35332SOL    HW117721   3.756   9.633  11.983  0.4731  1.9213  2.3514
35332SOL    HW217722   3.884   9.555  11.962 -1.5111 -0.7304 -0.7963
35333SOL     OW17723  13.419   0.888  12.634 -0.2805 -0.1427 -0.4322
35333SOL    HW117724  13.469   0.884  12.552  0.3420 -0.5369 -0.0486
35333SOL    HW217725  13.427   0.979  12.662  0.1645 -0.1786 -0.4238
35334SOL     OW17726   2.140   6.330   9.869  0.1913  0.2459 -0.2918
35334SOL    HW117727   2.154   6.281   9.950  0.7082 -0.1875 -0.6456
35334SOL    HW217728   2.150   6.422   9.895  0.0667  0.1254  0.1933
35335SOL     OW17729   1.258  13.706   9.570 -0.0540  0.3001  0.0776
35335SOL    HW117730   1.338  13.658   9.592  0.8965  1.1121 -1.3447
35335SOL    HW217731   1.281  13.753   9.489 -2.3612 -0.3765 -1.0647
35336SOL     OW17732   3.537  12.717   4.615  0.2137 -0.1798  0.2341
35336SOL    HW117733   3.443  12.728   4.630  0.3179 -2.0276  3.0175
35336SOL    HW217734   3.544  12.637   4.563  0.2524 -0.6501  0.9494
35337SOL     OW17735   9.620   1.848  13.075  0.2041 -0.3886  0.4162
35337SOL    HW117736   9.596   1.905  13.003  1.2647 -0.2848  0.1216
35337SOL    HW217737   9.716   1.853  13.079  0.2104 -0.9026  1.4063
35338SOL     OW17738   9.063  10.362  12.025  0.9179  0.0063 -0.1677
35338SOL    HW117739   9.021  10.420  12.088 -0.1522 -0.4033 -0.4797
35338SOL    HW217740   9.118  10.304  12.077 -0.1158 -0.4613  0.4099
35339SOL     OW17741   2.657  10.913   1.836  0.1316 -0.2795  0.3337
35339SOL    HW117742   2.677  10.917   1.930  0.7678  0.4373  0.1805
35339SOL    HW217743   2.731  10.957   1.794  0.4425 -1.6516 -0.5972
35340SOL     OW17744   0.552   4.574   9.083  0.0622 -0.4091  0.0856
35340SOL    HW117745   0.506   4.531   9.010 -0.2244  1.4062 -0.8524
35340SOL    HW217746   0.575   4.660   9.049 -0.5656  0.7050  2.3252
35341SOL     OW17747  10.756  10.845  10.778 -0.3002 -0.3505  0.1748
35341SOL    HW117748  10.748  10.940  10.779  1.5612 -0.1071  2.6706
35341SOL    HW217749  10.772  10.823  10.686  0.2076  1.8585 -0.3351
35342SOL     OW17750   6.358   5.454  10.222 -0.7803 -0.0403  0.2830
35342SOL    HW117751   6.336   5.543  10.195  0.2058 -0.2279 -1.3402
35342SOL    HW217752   6.297   5.398  10.174 -0.9025 -0.2610  0.6970
35343SOL     OW17753   8.588  12.678   8.090  0.4821  0.3397  0.2523
35343SOL    HW117754   8.496  12.690   8.069  0.3005  1.8554  1.7311
35343SOL    HW217755   8.626  12.640   8.011 -1.4474 -0.6321 -0.2744
35344SOL     OW17756   9.953  12.048   6.463 -0.5445 -0.1767  0.1467
35344SOL    HW117757   9.870  12.004   6.485 -0.1954 -0.6848  0.4772
35344SOL    HW217758   9.987  11.999   6.388 -0.1331 -0.5093  0.5418
35345SOL     OW17759  12.767   8.459   7.030 -0.0849 -0.7534 -0.0410
35345SOL    HW117760  12.850   8.504   7.049 -0.2613 -0.2896 -0.3504
35345SOL    HW217761  12.784   8.410   6.950 -1.0653  2.0346 -2.0932
35346SOL     OW17762   9.080   2.994  12.914  0.5442  0.3980 -0.2066
35346SOL    HW117763   9.109   2.963  12.829  1.2775  0.4791  0.0123
35346SOL    HW217764   9.046   2.916  12.958  0.6900  0.2528 -0.3550
35347SOL     OW17765   7.374   1.253   1.220  1.0024 -0.2464  0.2834
35347SOL    HW117766   7.360   1.306   1.298  0.7827 -0.4357  0.3746
35347SOL    HW217767   7.304   1.280   1.161  0.2566 -1.1662  0.7232
35348SOL     OW17768  11.113   7.323   0.469  0.3787  0.2013  0.5625
35348SOL    HW117769  11.156   7.401   0.503  1.0341 -0.2316  0.7553
35348SOL    HW217770  11.183   7.276   0.423  0.6208 -1.4821  2.4956
35349SOL     OW17771   9.730   8.790  11.859  0.4854  0.0816 -0.1798
35349SOL    HW117772   9.725   8.782  11.764  2.1873 -1.2184 -0.2172
35349SOL    HW217773   9.649   8.749  11.890 -0.4145  1.1259 -1.0507
35350SOL     OW17774  12.220   9.067   4.689 -0.0694 -1.1664 -0.1538
35350SOL    HW117775  12.252   9.058   4.599  0.7314 -0.7046  0.0753
35350SOL    HW217776  12.217   9.162   4.703 -1.1961 -1.2070 -0.0380
35351SOL     OW17777   5.976  11.842   7.660  0.0877 -0.2210 -0.0358
35351SOL    HW117778   6.053  11.804   7.619 -0.4883  0.9808 -2.4168
35351SOL    HW217779   5.902  11.806   7.611 -0.5023  3.7944 -2.5446
35352SOL     OW17780  13.568   6.513   8.391  0.3260  0.0189 -0.2457
35352SOL    HW117781  13.532   6.430   8.422 -3.4869  0.4376 -2.8569
35352SOL    HW217782  13.554   6.574   8.464  1.3500 -1.1291  0.9671
35353SOL     OW17783   7.277   4.725  10.366  0.2037 -0.0737  0.0810
35353SOL    HW117784   7.191   4.727  10.408  0.4332  1.7447  0.5484
35353SOL    HW217785   7.326   4.659  10.416 -1.3400 -2.3197 -1.1923
35354SOL     OW17786  13.595   8.564   1.447  0.4238  0.4462 -0.6662
35354SOL    HW117787  13.571   8.488   1.393 -0.9276  0.5252 -0.2117
35354SOL    HW217788  13.633   8.626   1.386 -0.5177  0.2838 -1.4345
35355SOL     OW17789   9.574   8.791   4.331 -0.1721 -0.4175  0.0038
35355SOL    HW117790   9.555   8.745   4.249  0.9251  0.5342 -0.8080
35355SOL    HW217791   9.554   8.727   4.400  0.1937 -1.7059 -1.0539
35356SOL     OW17792   3.820   5.926   4.857 -0.1715  0.5633 -0.2375
35356SOL    HW117793   3.744   5.979   4.832  1.0983  1.8121 -1.6506
35356SOL    HW217794   3.876   5.927   4.779  1.3939 -0.1316  0.8426
35357SOL     OW17795  10.499   9.959   1.276 -0.1056 -0.2915  0.2650
35357SOL    HW117796  10.492   9.891   1.342 -0.7626  0.1816  0.6958
35357SOL    HW217797  10.464   9.919   1.196  0.4004 -0.7601  0.2690
35358SOL     OW17798  11.288  10.365  10.150 -0.1126  0.4874 -0.3132
35358SOL    HW117799  11.218  10.302  10.132  1.0214 -0.4202 -1.8158
35358SOL    HW217800  11.325  10.384  10.064  0.9390  1.6076  0.3602
35359SOL     OW17801  10.977   5.179  12.335  0.1465 -0.2550  0.1011
35359SOL    HW117802  10.884   5.156  12.328 -0.2423  1.2652 -0.1688
35359SOL    HW217803  10.987   5.210  12.425 -0.3506  2.3445 -0.6380
35360SOL     OW17804   7.098  13.033   4.683  0.4601  0.2378  0.7146
35360SOL    HW117805   7.051  13.114   4.665 -0.1469  0.5377  3.3103
35360SOL    HW217806   7.191  13.057   4.680  0.3992  0.4105 -0.9818
35361SOL     OW17807   3.579  11.712   9.727 -0.4554  0.6179  0.2735
35361SOL    HW117808   3.530  11.777   9.778  0.0669  0.3565  1.1226
35361SOL    HW217809   3.572  11.631   9.777 -0.7920  0.0929 -0.5924
35362SOL     OW17810  10.676   2.384   2.186 -0.0792  0.1600 -0.0861
35362SOL    HW117811  10.627   2.307   2.155  1.4388 -0.9692  0.2084
35362SOL    HW217812  10.721   2.417   2.109 -0.6124  0.6761 -0.1807
35363SOL     OW17813   2.093   1.076  11.297  0.0498  0.0460  0.0685
35363SOL    HW117814   2.055   1.074  11.209 -1.4143 -0.5198  0.6779
35363SOL    HW217815   2.179   1.035  11.287 -0.4058 -0.6898 -0.9730
35364SOL     OW17816  10.981   8.495   4.086  0.0166 -0.4122  0.4457
35364SOL    HW117817  11.011   8.535   4.168  1.2282  1.5693 -0.8714
35364SOL    HW217818  10.886   8.501   4.089  0.1060  1.3668  0.9309
35365SOL     OW17819   8.755   5.380   7.299 -0.1504 -0.6251  0.9245
35365SOL    HW117820   8.818   5.335   7.354  0.0945  1.4430  2.4489
35365SOL    HW217821   8.682   5.400   7.358 -0.5433  0.3297  0.1353
35366SOL     OW17822   3.130   5.703  10.416 -0.0947 -0.2865  0.2296
35366SOL    HW117823   3.177   5.784  10.438  1.3092 -0.7458 -0.9214
35366SOL    HW217824   3.199   5.642  10.390 -1.1075 -1.9150  1.1814
35367SOL     OW17825   2.144  10.754  12.747 -0.3320  0.4899 -0.3767
35367SOL    HW117826   2.054  10.774  12.720 -0.6634 -0.6519 -0.1603
35367SOL    HW217827   2.197  10.773  12.669 -0.7916  0.8400 -0.6120
35368SOL     OW17828   0.587   0.893   4.633  0.1126  0.0222  0.1266
35368SOL    HW117829   0.641   0.820   4.663 -0.0554 -0.1729 -0.0440
35368SOL    HW217830   0.555   0.934   4.713  0.1682 -0.1210  0.2215
35369SOL     OW17831   5.411   6.592   8.272 -0.4183  0.4925 -0.0897
35369SOL    HW117832   5.504   6.580   8.258 -0.5035 -1.4820  0.7357
35369SOL    HW217833   5.400   6.590   8.367 -1.5107 -1.5216 -0.1983
35370SOL     OW17834   3.246   2.201   0.743  0.1096 -0.6822 -0.2289
35370SOL    HW117835   3.257   2.292   0.715  0.9845 -1.0743 -1.2331
35370SOL    HW217836   3.243   2.151   0.661  2.8105 -1.8748  0.2848
35371SOL     OW17837  12.319   2.912   3.825 -0.5519 -0.1650 -0.0846
35371SOL    HW117838  12.291   2.966   3.751 -2.3170 -1.0465 -0.0995
35371SOL    HW217839  12.384   2.852   3.788  0.5749  1.1464 -0.3139
35372SOL     OW17840   4.411  12.671   1.746 -0.0440 -0.1631  0.1995
35372SOL    HW117841   4.373  12.751   1.783  0.2272 -0.2722  0.7156
35372SOL    HW217842   4.352  12.602   1.775 -0.0379 -0.2088  0.1051
35373SOL     OW17843   9.888   9.241  12.507  0.6228 -0.1503 -0.0258
35373SOL    HW117844   9.956   9.228  12.573  0.3318 -2.3633 -0.0994
35373SOL    HW217845   9.820   9.292  12.553  1.5087  0.5164  0.5850
35374SOL     OW17846   6.290   6.444   9.004 -0.3435 -0.1743 -0.1268
35374SOL    HW117847   6.354   6.453   9.075 -0.9850 -0.4718  0.4855
35374SOL    HW217848   6.340   6.402   8.933 -0.4327 -2.5447  1.1324
35375SOL     OW17849  11.388   4.003   6.927  0.1130  0.6872 -0.6370
35375SOL    HW117850  11.310   4.044   6.964 -0.5036 -1.6015  0.8208
35375SOL    HW217851  11.431   3.962   7.002 -0.0070 -2.3392 -2.0637
35376SOL     OW17852  12.625   6.298   3.165 -0.4265  0.3451 -0.0852
35376SOL    HW117853  12.608   6.300   3.071  0.1664 -0.5382 -0.2233
35376SOL    HW217854  12.558   6.355   3.203 -0.6740  0.7008 -1.0371
35377SOL     OW17855   0.652   5.168   4.726  0.0377  0.2768  0.1270
35377SOL    HW117856   0.713   5.229   4.685  2.2781 -1.2711  0.9428
35377SOL    HW217857   0.687   5.155   4.814 -0.8876 -1.4518  0.2797
35378SOL     OW17858  12.154   8.739  10.933 -0.2499 -0.3372  0.0037
35378SOL    HW117859  12.135   8.686  10.856  0.5323 -1.1810  0.3744
35378SOL    HW217860  12.205   8.681  10.990 -0.7185  0.3016  1.1045
35379SOL     OW17861   5.129   3.049   9.984 -0.3198 -0.0306  0.4530
35379SOL    HW117862   5.082   3.097   9.916  0.1497 -0.3848 -0.1297
35379SOL    HW217863   5.201   3.106  10.008 -0.5286  0.1267  0.7108
35380SOL     OW17864   6.361   5.219  11.571 -0.4915  0.4903  0.3284
35380SOL    HW117865   6.329   5.294  11.520  1.6302  2.9094  2.2830
35380SOL    HW217866   6.405   5.164  11.507 -0.6629  1.7686 -0.9495
35381SOL     OW17867  10.515   3.323   9.673  0.2200 -0.1923 -0.1578
35381SOL    HW117868  10.560   3.278   9.602  0.1108  0.8202 -0.8944
35381SOL    HW217869  10.484   3.405   9.634 -1.5398 -0.4752  0.5245
35382SOL     OW17870   1.823   4.965   9.688 -0.3158  0.6272  0.0563
35382SOL    HW117871   1.847   4.919   9.608  0.6161  0.7620  0.2408
35382SOL    HW217872   1.877   5.044   9.687  0.2695  0.2698  1.1666
35383SOL     OW17873   6.792   1.343   5.479 -0.1894  0.2505 -0.1813
35383SOL    HW117874   6.839   1.268   5.442 -0.6895 -0.6253  0.9311
35383SOL    HW217875   6.788   1.325   5.573  0.5933  2.1815  0.2694
35384SOL     OW17876  13.153   7.295   3.469  0.2694  0.3695  0.1756
35384SOL    HW117877  13.209   7.362   3.508 -0.4614  0.9165  0.2927
35384SOL    HW217878  13.069   7.304   3.513  0.0723 -0.4376 -0.0104
35385SOL     OW17879   8.692  11.277   1.503 -0.1025 -0.1461 -0.1733
35385SOL    HW117880   8.648  11.249   1.583 -0.3554  2.0947  0.5226
35385SOL    HW217881   8.784  11.258   1.518  0.1483  2.1120  1.5606
35386SOL     OW17882   3.294   9.164   5.724  0.0840 -1.1281  0.0236
35386SOL    HW117883   3.381   9.151   5.763  0.5803 -2.1273 -1.3494
35386SOL    HW217884   3.271   9.078   5.688 -0.6495 -0.4180 -1.2670
35387SOL     OW17885  13.484   2.472   7.604  0.0297 -0.3475 -0.1693
35387SOL    HW117886  13.509   2.505   7.690  1.1197 -0.7215 -0.3238
35387SOL    HW217887  13.456   2.549   7.555  1.4291  0.1896 -0.1584
35388SOL     OW17888  10.903  13.268   0.294 -0.3763 -0.1046 -0.1181
35388SOL    HW117889  10.848  13.193   0.314 -1.8297  1.3333  1.6624
35388SOL    HW217890  10.971  13.267   0.362 -0.1053 -0.0741 -0.3852
35389SOL     OW17891  12.462  12.155   6.709 -0.0548 -0.2423 -0.4936
35389SOL    HW117892  12.519  12.119   6.641  1.8258  1.9151 -0.2079
35389SOL    HW217893  12.389  12.194   6.661  0.8889  0.6291 -1.2629
35390SOL     OW17894   2.787  11.565   7.840 -0.2140 -0.1600 -0.1951
35390SOL    HW117895   2.736  11.508   7.896 -0.1096 -0.9311 -0.8693
35390SOL    HW217896   2.723  11.608   7.784 -0.3175  0.6026  0.4901
35391SOL     OW17897   4.854   0.624  13.104  0.1783 -0.1678  0.3534
35391SOL    HW117898   4.849   0.682  13.027  1.2693 -1.8326 -1.0687
35391SOL    HW217899   4.785   0.654  13.162 -0.2999  1.5485 -1.0234
35392SOL     OW17900   6.003   3.900   0.131 -0.0216  0.0341  0.4641
35392SOL    HW117901   5.967   3.909   0.219  1.0071  1.4422  0.7919
35392SOL    HW217902   6.007   3.806   0.115 -0.0029 -0.2572  2.0269
35393SOL     OW17903   3.939   2.966   3.567 -0.1350  0.5549 -0.5454
35393SOL    HW117904   3.887   2.953   3.647 -1.2089 -0.2091 -1.3456
35393SOL    HW217905   3.928   2.885   3.518  1.3023  0.6423 -1.0506
35394SOL     OW17906  12.803   9.457   5.921  0.0677  0.1725  0.4445
35394SOL    HW117907  12.756   9.469   5.839  3.4973 -0.4660 -1.8215
35394SOL    HW217908  12.875   9.520   5.917  0.3084  0.1728  3.0415
35395SOL     OW17909   1.304   8.440  13.449 -0.1448 -0.0385  0.0667
35395SOL    HW117910   1.378   8.462  13.392 -1.1430  0.5207 -1.0548
35395SOL    HW217911   1.309   8.345  13.458 -1.3772 -0.5291 -3.0951
35396SOL     OW17912   8.063  12.265   7.071 -0.2018 -0.2585 -0.5115
35396SOL    HW117913   8.157  12.256   7.054  0.5399  3.8919  0.4736
35396SOL    HW217914   8.056  12.275   7.166 -1.9058 -1.9132 -0.3858
35397SOL     OW17915   0.307   3.451  11.237  0.6387 -0.1266 -0.2762
35397SOL    HW117916   0.281   3.526  11.291  0.8226 -0.0027 -0.3580
35397SOL    HW217917   0.238   3.386  11.252  0.2476  0.2175 -0.5389
35398SOL     OW17918   9.758  11.327   3.556  0.2516  0.3301  0.6855
35398SOL    HW117919   9.822  11.353   3.622  0.5527 -1.4268  1.1391
35398SOL    HW217920   9.699  11.266   3.602  0.4666 -0.9350 -0.6386
35399SOL     OW17921   3.010   0.140   3.176 -0.4210 -0.1911 -0.2256
35399SOL    HW117922   3.019   0.096   3.092  0.8214 -1.3889  0.5041
35399SOL    HW217923   2.940   0.092   3.221 -0.1407 -0.4252 -0.0393
35400SOL     OW17924   5.182  12.257   8.032  0.2949 -0.1022 -0.0128
35400SOL    HW117925   5.087  12.256   8.031  0.2035  1.2067  1.4860
35400SOL    HW217926   5.209  12.185   7.975 -1.5916 -1.4940  0.7691
35401SOL     OW17927   7.167   8.536   0.048  0.0791  0.4404 -0.1233
35401SOL    HW117928   7.197   8.542   0.139  0.5597 -2.2175 -0.0126
35401SOL    HW217929   7.228   8.592  -0.000  0.8302  0.6280  0.9943
35402SOL     OW17930   6.718  12.121   8.491  0.7575  0.7512 -0.0784
35402SOL    HW117931   6.727  12.206   8.533  0.7596  0.1089  1.2595
35402SOL    HW217932   6.798  12.073   8.515  0.4862  0.1648 -0.3232
35403SOL     OW17933   2.507   5.383  10.371  0.5708  0.2685 -0.3013
35403SOL    HW117934   2.570   5.425  10.430 -0.1518  0.5771  0.2768
35403SOL    HW217935   2.518   5.290  10.387  1.0599  0.3065 -0.3990
35404SOL     OW17936   8.952   0.503   0.111 -0.2147  0.1944  0.1714
35404SOL    HW117937   9.035   0.548   0.099  0.2083 -0.5328  0.3328
35404SOL    HW217938   8.910   0.505   0.025 -0.4623  1.3747  0.2939
35405SOL     OW17939   5.668   2.342   3.680  0.0649  0.4577 -0.4006
35405SOL    HW117940   5.749   2.382   3.710  0.2487  0.3094 -0.6911
35405SOL    HW217941   5.608   2.349   3.754 -0.0632  1.7166 -0.5915
35406SOL     OW17942  10.701   3.638   9.832  0.0380 -0.4364 -0.0928
35406SOL    HW117943  10.606   3.629   9.839  0.1019 -1.6930 -0.5165
35406SOL    HW217944  10.733   3.548   9.831  1.2146 -0.0297 -0.2025
35407SOL     OW17945   4.282   7.607  10.718 -0.1738  0.4248  0.0086
35407SOL    HW117946   4.262   7.588  10.810  1.3407  0.7810  0.4285
35407SOL    HW217947   4.331   7.689  10.721 -1.1422  1.0789 -1.2333
35408SOL     OW17948   2.267   2.467   5.081 -0.1675 -0.1463  0.3587
35408SOL    HW117949   2.235   2.432   4.998 -1.7436 -2.3402  1.7884
35408SOL    HW217950   2.361   2.451   5.080 -0.3872 -1.4867 -0.4308
35409SOL     OW17951   9.951   1.402   6.962  0.2116  0.0512  0.0371
35409SOL    HW117952  10.012   1.369   7.027 -0.9553 -1.1964  0.5573
35409SOL    HW217953   9.867   1.405   7.008 -0.1071  2.0054 -0.5642
35410SOL     OW17954   8.481   0.691  10.493 -0.5576  0.0067 -0.3392
35410SOL    HW117955   8.403   0.740  10.520  1.1276  1.2895  2.6977
35410SOL    HW217956   8.459   0.600  10.511 -1.5569  0.2899 -0.0478
35411SOL     OW17957   5.229  10.822   1.777 -0.2675 -0.4912  0.2641
35411SOL    HW117958   5.263  10.743   1.736 -0.7859 -0.0413 -1.1082
35411SOL    HW217959   5.304  10.862   1.820  0.0990 -1.4639  0.5483
35412SOL     OW17960   9.466   9.137   7.288  0.6047 -0.1283  0.1383
35412SOL    HW117961   9.435   9.157   7.376  0.3795 -1.3192  0.3385
35412SOL    HW217962   9.529   9.207   7.269 -0.7989  1.2876  0.4364
35413SOL     OW17963   9.899   5.445   2.004 -0.5190  0.4230 -0.1194
35413SOL    HW117964   9.842   5.495   2.063 -0.2760 -0.2491  0.7004
35413SOL    HW217965   9.895   5.493   1.921 -2.1215  0.4974 -0.0275
35414SOL     OW17966  13.038   6.062  10.893 -0.0404  0.8332  0.2107
35414SOL    HW117967  12.952   6.052  10.852 -0.1997  0.9490  0.5138
35414SOL    HW217968  13.019   6.097  10.980  0.2258 -0.3554  0.7702
35415SOL     OW17969   8.044   1.987   2.205 -0.5194 -0.2846  0.4367
35415SOL    HW117970   7.970   1.985   2.144 -1.3460 -0.3304  1.4007
35415SOL    HW217971   8.031   2.068   2.255  0.7991  0.3593 -0.2140
35416SOL     OW17972   1.501   0.673   9.985 -0.0521  0.2765  0.3716
35416SOL    HW117973   1.556   0.620   9.928 -1.2621 -0.9727  0.3200
35416SOL    HW217974   1.414   0.672   9.944 -0.2585  1.7740  0.7162
35417SOL     OW17975   7.631  13.165   4.091  0.6860 -0.2083  0.0886
35417SOL    HW117976   7.713  13.123   4.064  0.3754 -0.6270 -0.2218
35417SOL    HW217977   7.563  13.107   4.058  0.2765 -0.4448  1.3129
35418SOL     OW17978   9.234   7.089   0.909  0.0147 -0.1964  0.0110
35418SOL    HW117979   9.147   7.062   0.938 -0.0664 -0.5868 -0.5835
35418SOL    HW217980   9.218   7.152   0.839  0.2080  0.9725  0.9708
35419SOL     OW17981  13.385  11.552   6.100  0.4536 -0.8119  0.3570
35419SOL    HW117982  13.355  11.572   6.189 -0.4871 -0.9461  0.0723
35419SOL    HW217983  13.305  11.538   6.050  0.9988 -2.0759 -0.2088
35420SOL     OW17984   1.784   7.494   1.539 -0.4924 -0.0694 -0.5797
35420SOL    HW117985   1.712   7.457   1.589  0.7547 -0.4391  1.0362
35420SOL    HW217986   1.822   7.420   1.492  0.1634 -0.3075  0.3024
35421SOL     OW17987   8.574  11.535  10.238  0.1390 -0.5726 -0.3597
35421SOL    HW117988   8.665  11.561  10.254 -0.4450  1.1938  0.3301
35421SOL    HW217989   8.543  11.595  10.171 -0.6911 -0.7810 -0.1778
35422SOL     OW17990  10.665   5.098   5.859 -0.3649  0.7584 -0.4955
35422SOL    HW117991  10.578   5.126   5.831  0.1442  0.5640 -2.4403
35422SOL    HW217992  10.698   5.047   5.785  1.5459  1.1550  0.0340
35423SOL     OW17993   0.922   1.585   6.329  0.5263 -0.3534  0.2471
35423SOL    HW117994   0.847   1.599   6.387  1.1274 -2.2137  1.5588
35423SOL    HW217995   0.886   1.542   6.252  0.1229 -0.4878  0.5091
35424SOL     OW17996   0.728   2.192   5.493  0.0435 -0.5935 -1.0174
35424SOL    HW117997   0.669   2.255   5.534  1.0113 -1.3781  1.8441
35424SOL    HW217998   0.795   2.245   5.451 -0.6027  0.2842 -0.9690
35425SOL     OW17999  11.346   6.174   9.796  0.1375  0.5382  0.2118
35425SOL    HW118000  11.365   6.206   9.708  0.3853  1.1766  0.4882
35425SOL    HW218001  11.316   6.252   9.844  2.3449  0.7420  1.3690
35426SOL     OW18002  10.404   0.463  11.089 -0.2835 -0.4469  0.1281
35426SOL    HW118003  10.355   0.464  11.171  0.0179  0.7197  0.3147
35426SOL    HW218004  10.475   0.401  11.104 -1.1890 -1.5342  0.1399
35427SOL     OW18005   5.076   9.711  10.400 -0.6227 -0.1793  0.1646
35427SOL    HW118006   4.987   9.710  10.436 -0.7405  0.3939 -0.0973
35427SOL    HW218007   5.108   9.800  10.418  0.9726 -1.2076  2.8392
35428SOL     OW18008   2.154  12.118  13.525 -0.4819 -0.2533  0.1659
35428SOL    HW118009   2.157  12.054  13.596 -1.2628  0.0042  0.4403
35428SOL    HW218010   2.090  12.183  13.554  1.4034  1.5283  0.6255
35429SOL     OW18011   8.468  12.717   2.816 -0.2603  0.3525  0.7922
35429SOL    HW118012   8.456  12.773   2.893 -0.7422 -0.1519  1.0936
35429SOL    HW218013   8.563  12.707   2.808 -0.2076  0.4007  1.3299
35430SOL     OW18014   8.809   4.052   4.336  0.3111 -0.0900  0.2685
35430SOL    HW118015   8.838   3.985   4.273  1.0374  0.2716  0.2035
35430SOL    HW218016   8.729   4.016   4.374  0.8337 -1.1325  0.4368
35431SOL     OW18017  11.292   4.648   2.853  0.4081  0.2738  0.3872
35431SOL    HW118018  11.307   4.714   2.921  0.2516 -0.1118  0.7998
35431SOL    HW218019  11.213   4.601   2.882  1.6508 -1.4380  1.1742
35432SOL     OW18020  13.381   0.089  12.052  0.9399 -0.4676 -0.1342
35432SOL    HW118021  13.461   0.039  12.065  0.7346 -0.6921  0.3121
35432SOL    HW218022  13.330   0.074  12.132 -0.0656 -1.3066 -0.8993
35433SOL     OW18023   3.778   1.642  10.586  0.5201  0.0509 -0.1413
35433SOL    HW118024   3.870   1.661  10.567  0.2979 -0.7862 -2.4053
35433SOL    HW218025   3.733   1.657  10.503 -0.8231 -2.8293 -0.0508
35434SOL     OW18026   0.207   2.704   3.506  0.3149 -0.5292  0.8530
35434SOL    HW118027   0.130   2.685   3.451  0.3806  1.5885 -0.0830
35434SOL    HW218028   0.273   2.735   3.444  1.3208 -0.6335  1.8519
35435SOL     OW18029  12.234  11.974   3.142 -0.2640 -0.0818 -0.2262
35435SOL    HW118030  12.267  12.063   3.140  0.1981 -0.2354 -2.3771
35435SOL    HW218031  12.248  11.944   3.232  1.8277  1.1914 -0.0773
35436SOL     OW18032   6.549   0.679   0.857 -0.1337  0.6363  0.1462
35436SOL    HW118033   6.488   0.679   0.782 -0.1927 -0.3118  0.1774
35436SOL    HW218034   6.546   0.768   0.891 -1.4006  0.6461  0.0487
35437SOL     OW18035   0.911   2.289  10.729  0.0304 -0.1946 -0.3070
35437SOL    HW118036   0.957   2.211  10.762  0.6903 -0.2097 -1.2124
35437SOL    HW218037   0.902   2.273  10.635  0.2848  0.8692 -0.5268
35438SOL     OW18038   8.602   1.591   0.783 -0.3576 -0.4463  0.0322
35438SOL    HW118039   8.588   1.677   0.823  1.1376  0.4940 -1.3313
35438SOL    HW218040   8.524   1.577   0.729 -1.1779 -0.5407  1.2018
35439SOL     OW18041   1.435   1.025  10.189 -0.4255  0.1833 -0.3312
35439SOL    HW118042   1.456   1.019  10.282  0.9064  0.1467 -0.6157
35439SOL    HW218043   1.381   0.948  10.172 -0.6179  0.1493  0.3946
35440SOL     OW18044   1.097   9.226  12.045  0.3234 -0.0184 -0.7712
35440SOL    HW118045   1.034   9.153  12.042  1.4679 -1.0402 -0.5905
35440SOL    HW218046   1.176   9.191  12.005  0.9873  1.0581 -0.4281
35441SOL     OW18047   7.268   9.061   6.099  0.1244  0.7252 -0.0624
35441SOL    HW118048   7.361   9.079   6.093  0.3800 -0.3762  0.3769
35441SOL    HW218049   7.235   9.070   6.009  0.9945 -0.6329 -0.5381
35442SOL     OW18050   5.822   0.874   8.517 -0.2962  0.6592 -0.0352
35442SOL    HW118051   5.866   0.792   8.541 -1.2592  0.1356 -0.0025
35442SOL    HW218052   5.797   0.913   8.601  0.1620  0.9900 -0.0506
35443SOL     OW18053  13.363  11.037  11.244  0.6270  0.0988  0.1954
35443SOL    HW118054  13.414  11.053  11.164 -1.5845  1.6521 -1.0219
35443SOL    HW218055  13.292  10.980  11.216 -1.0298  1.8353  0.6244
35444SOL     OW18056   1.791  12.970   7.404  0.0655  0.2767 -0.3311
35444SOL    HW118057   1.829  12.982   7.491 -0.3731  2.8301 -0.4258
35444SOL    HW218058   1.704  13.008   7.411 -0.9039 -1.6004 -1.3035
35445SOL     OW18059  10.870   7.848   6.399 -0.4300  0.3930 -0.5638
35445SOL    HW118060  10.806   7.916   6.375 -1.5586 -1.4546 -3.2696
35445SOL    HW218061  10.952   7.895   6.407 -1.3973  2.2892 -1.0814
35446SOL     OW18062  10.102  11.390   4.806 -0.5090 -0.3752  0.1832
35446SOL    HW118063  10.031  11.329   4.787  0.0388 -1.1969  0.7457
35446SOL    HW218064  10.058  11.475   4.814 -1.2453 -0.6422 -0.8079
35447SOL     OW18065  13.242   4.383   5.103 -0.3944  0.2565 -0.1346
35447SOL    HW118066  13.165   4.418   5.148  0.0008  2.9351 -1.3677
35447SOL    HW218067  13.211   4.361   5.015  0.0833  0.7425 -0.4328
35448SOL     OW18068   8.358   3.829   8.077 -0.0028 -0.0142  0.3517
35448SOL    HW118069   8.295   3.758   8.066 -1.4776  1.4135 -0.9521
35448SOL    HW218070   8.426   3.812   8.012  0.5610 -1.1009  1.1921
35449SOL     OW18071   9.246   7.633   0.278  0.1314 -0.1318  0.4046
35449SOL    HW118072   9.246   7.729   0.274 -1.2160 -0.1143  0.5331
35449SOL    HW218073   9.160   7.608   0.245  1.3742 -1.4286 -2.1054
35450SOL     OW18074  11.957  10.945   2.799  0.5513  0.2172  0.4316
35450SOL    HW118075  12.041  10.949   2.754  1.3262 -2.9586  1.3256
35450SOL    HW218076  11.892  10.938   2.728  1.1864  0.7783 -0.2245
35451SOL     OW18077   9.715   1.341  11.433 -0.5115  0.2168  0.9706
35451SOL    HW118078   9.690   1.360  11.524 -0.6084  0.6885  0.8483
35451SOL    HW218079   9.809   1.354  11.431 -0.6880  1.6582  0.6713
35452SOL     OW18080   9.244   0.852   9.940  0.2220 -0.1772  0.3819
35452SOL    HW118081   9.235   0.764   9.975  3.1120  0.0799  2.1034
35452SOL    HW218082   9.199   0.909  10.003 -1.4391 -0.3138 -0.6088
35453SOL     OW18083   5.767   9.308  10.310 -0.2424  0.7423  0.1291
35453SOL    HW118084   5.825   9.384  10.303  1.5375 -0.3130  2.2065
35453SOL    HW218085   5.733   9.312  10.399  1.0540 -1.5886  0.8228
35454SOL     OW18086  12.608   2.958   3.307 -0.1438 -0.0322 -0.2299
35454SOL    HW118087  12.615   2.978   3.400 -0.0107  0.3046 -0.3099
35454SOL    HW218088  12.603   3.044   3.264 -1.0578 -0.2005 -0.4737
35455SOL     OW18089   4.389   4.380   9.966  0.0465 -0.6435  0.5297
35455SOL    HW118090   4.388   4.293  10.006 -2.4183 -1.1717 -0.5101
35455SOL    HW218091   4.406   4.363   9.873 -0.0241  0.0364  0.3882
35456SOL     OW18092   8.692   1.858   7.810  0.3008 -0.1792  0.0393
35456SOL    HW118093   8.639   1.779   7.802  0.3888 -0.2987  0.6081
35456SOL    HW218094   8.767   1.832   7.863  0.4938  0.2076 -0.0341
35457SOL     OW18095   8.320   0.436   6.966 -0.0443  0.6403  0.0066
35457SOL    HW118096   8.409   0.433   6.929  0.3520  0.9391  0.9067
35457SOL    HW218097   8.276   0.505   6.917 -0.7593 -1.4075 -2.4855
35458SOL     OW18098  13.419   4.287   0.006 -0.1696 -0.7249 -0.1905
35458SOL    HW118099  13.403   4.265  -0.086  0.1125 -2.2712  0.1072
35458SOL    HW218100  13.464   4.211   0.042 -2.9864 -1.5209  2.0040
35459SOL     OW18101   5.064  12.758  13.359  0.4136  0.1485 -0.1149
35459SOL    HW118102   5.091  12.730  13.446  1.0341  0.2446 -0.2742
35459SOL    HW218103   5.134  12.816  13.329  0.5669 -0.4637 -0.9700
35460SOL     OW18104   0.412   9.381   6.732 -0.2627 -0.6137  0.2749
35460SOL    HW118105   0.325   9.373   6.772  0.1120  0.8811  1.4705
35460SOL    HW218106   0.420   9.473   6.708  0.2868 -1.0972 -1.5823
35461SOL     OW18107   0.669   4.178   4.180  0.1648 -0.4689  0.1640
35461SOL    HW118108   0.637   4.244   4.118 -0.9903 -0.2214  1.0039
35461SOL    HW218109   0.756   4.210   4.204  0.2544 -0.0793 -0.6119
35462SOL     OW18110   1.100   8.719   3.627 -0.2432  0.6784  0.6090
35462SOL    HW118111   1.022   8.775   3.627  0.5040  1.8095 -1.2147
35462SOL    HW218112   1.142   8.735   3.542  2.0454  0.1818  1.5575
35463SOL     OW18113   2.851  10.064   1.171  0.6388  0.1002  0.3421
35463SOL    HW118114   2.880  10.039   1.258  0.5937 -0.4278  0.2092
35463SOL    HW218115   2.911  10.134   1.144 -0.8077  2.0209  1.7667
35464SOL     OW18116  11.795  12.487   0.173 -0.6041  0.3342 -0.1256
35464SOL    HW118117  11.742  12.456   0.100 -1.3091  0.2172  0.4260
35464SOL    HW218118  11.872  12.430   0.171 -1.3357 -0.6938  0.1477
35465SOL     OW18119  13.306   5.176  10.538 -0.2129  0.1755 -0.4022
35465SOL    HW118120  13.245   5.123  10.485 -0.4431 -0.2342  0.2689
35465SOL    HW218121  13.320   5.125  10.617  1.2936  0.1032 -0.6944
35466SOL     OW18122   6.386  12.851  11.243 -0.1911 -0.0129 -0.2540
35466SOL    HW118123   6.436  12.931  11.227 -2.4516  1.3308 -1.1334
35466SOL    HW218124   6.352  12.826  11.157 -0.7295 -1.0890  0.2494
35467SOL     OW18125   9.594  12.350   5.575 -0.3039 -0.4271 -0.0280
35467SOL    HW118126   9.567  12.441   5.590 -0.2470 -0.5888  1.1652
35467SOL    HW218127   9.689  12.352   5.587  0.0898 -0.1784 -2.5654
35468SOL     OW18128   2.682  13.698   6.086  0.3374 -0.5462  0.2531
35468SOL    HW118129   2.633  13.710   6.005  2.4533  0.5021 -0.9472
35468SOL    HW218130   2.637  13.626   6.130 -1.2459 -0.7406 -1.5364
35469SOL     OW18131   1.695   2.197  13.188 -0.5720  0.3253  0.0322
35469SOL    HW118132   1.691   2.158  13.275 -1.2137  0.7759  0.2132
35469SOL    HW218133   1.762   2.265  13.196 -0.7355  0.4666  0.2221
35470SOL     OW18134  12.212  11.611  11.997 -0.3399  0.3883 -0.1379
35470SOL    HW118135  12.284  11.567  12.042  1.0919  0.7689 -1.9263
35470SOL    HW218136  12.208  11.698  12.037 -0.6490 -0.0461  0.8051
35471SOL     OW18137   1.080   2.159   5.613 -0.1961  0.6765  0.4900
35471SOL    HW118138   1.034   2.238   5.644  0.6348  1.5358 -0.3880
35471SOL    HW218139   1.164   2.191   5.582  0.6476 -0.7467  1.2114
35472SOL     OW18140   1.751  13.529   5.228  0.5086  0.3296  0.4644
35472SOL    HW118141   1.762  13.470   5.153 -0.2060  0.8088 -0.0337
35472SOL    HW218142   1.840  13.556   5.251  0.7136  0.5459 -0.5286
35473SOL     OW18143   8.673   4.739   8.654 -0.1310 -0.1283 -0.4700
35473SOL    HW118144   8.600   4.751   8.593 -1.7188 -0.3346  1.2713
35473SOL    HW218145   8.747   4.715   8.599 -1.2642  0.5175 -2.3707
35474SOL     OW18146  12.200  10.300   4.481  0.1226  0.1463 -0.1224
35474SOL    HW118147  12.169  10.365   4.544 -0.7390  0.2121 -0.6053
35474SOL    HW218148  12.279  10.264   4.521  0.2515  1.0301  0.4492
35475SOL     OW18149   8.338   3.163   8.935  0.3541 -0.4282  0.5397
35475SOL    HW118150   8.396   3.098   8.974 -0.8202 -2.0206 -0.2430
35475SOL    HW218151   8.383   3.191   8.855  1.0715  0.0997  1.1108
35476SOL     OW18152   0.071   1.894   1.439 -0.3523  0.3932 -0.0780
35476SOL    HW118153   0.051   1.811   1.481  2.7654 -0.2533  0.4393
35476SOL    HW218154  -0.014   1.935   1.422 -1.9167 -2.1492  1.1192
35477SOL     OW18155   3.026  11.476   9.841 -0.3334 -0.4397  0.6849
35477SOL    HW118156   3.086  11.425   9.896  0.2560 -0.3248  0.1570
35477SOL    HW218157   3.083  11.521   9.779 -1.0069 -0.8206 -0.2347
35478SOL     OW18158   8.974  12.543  11.492 -0.2837 -0.6805 -0.3145
35478SOL    HW118159   9.060  12.573  11.523 -1.2926  1.1018  0.9436
35478SOL    HW218160   8.915  12.560  11.565 -1.8028 -1.5176 -1.2862
35479SOL     OW18161  12.421  13.616   3.387  0.3095  0.2729  0.2967
35479SOL    HW118162  12.438  13.593   3.296  1.4390 -1.3960  0.8874
35479SOL    HW218163  12.491  13.676   3.410  1.4886 -1.2287  0.7442
35480SOL     OW18164   4.186   3.602   9.535  0.1284  0.2205 -0.0264
35480SOL    HW118165   4.099   3.605   9.574  0.2458 -1.6760  0.5023
35480SOL    HW218166   4.246   3.607   9.610  0.4227 -0.1442 -0.2316
35481SOL     OW18167   9.180  10.209   9.710 -0.4218 -0.2686 -0.0843
35481SOL    HW118168   9.091  10.177   9.723 -1.5496  3.1557  1.8869
35481SOL    HW218169   9.221  10.201   9.796 -0.8252  3.2999  0.5852
35482SOL     OW18170   2.141  11.983   3.299 -0.0404 -0.1842 -0.1612
35482SOL    HW118171   2.111  11.912   3.356  0.0253  0.9070  1.2928
35482SOL    HW218172   2.220  11.948   3.258  0.1991 -0.8445  0.8137
35483SOL     OW18173   7.591   8.368   3.559  0.2912  0.5433  0.5360
35483SOL    HW118174   7.566   8.438   3.620  0.6266  1.3784 -0.2623
35483SOL    HW218175   7.685   8.380   3.546  0.5893 -0.7756  1.2564
35484SOL     OW18176  13.476   1.933  11.138  0.2073  0.1446  0.0583
35484SOL    HW118177  13.561   1.895  11.162 -0.3271 -1.5680 -0.5572
35484SOL    HW218178  13.413   1.862  11.155 -0.8132  0.6225 -1.5047
35485SOL     OW18179   0.586   7.034  12.504  0.3235 -0.6513  0.3216
35485SOL    HW118180   0.618   7.078  12.584  0.8728  1.0300 -0.7759
35485SOL    HW218181   0.628   7.081  12.433 -2.0031 -0.5646 -1.0836
35486SOL     OW18182  10.166  12.053  13.652 -0.1693  0.0066  0.0393
35486SOL    HW118183  10.127  12.116  13.712  0.1292  0.8643 -0.6447
35486SOL    HW218184  10.176  11.973  13.704 -0.5981  0.5069  0.9070
35487SOL     OW18185   9.560   6.102   2.228  0.0305  0.3763  0.3797
35487SOL    HW118186   9.645   6.107   2.272  0.6137 -0.8239 -0.5408
35487SOL    HW218187   9.561   6.016   2.184 -0.9098  1.0915 -1.1300
35488SOL     OW18188  11.585   8.188   5.540 -0.2698  0.2705  0.0033
35488SOL    HW118189  11.512   8.126   5.540 -0.3357  0.3466 -0.0596
35488SOL    HW218190  11.547   8.269   5.575 -0.5266  0.6678 -1.1519
35489SOL     OW18191  10.120   2.660  10.254 -0.0343  0.0704  0.2510
35489SOL    HW118192  10.109   2.636  10.346  0.1241 -0.5549  0.1092
35489SOL    HW218193  10.045   2.620  10.210  0.6922 -0.9131 -0.1210
35490SOL     OW18194   5.819   9.784  11.564 -0.2768  0.1637 -0.1943
35490SOL    HW118195   5.751   9.773  11.630 -1.2136  0.4724 -1.0870
35490SOL    HW218196   5.838   9.878  11.566 -1.0214  0.3464 -1.0316
35491SOL     OW18197   6.558   2.028  13.368 -0.0827  0.0543  0.6196
35491SOL    HW118198   6.590   2.118  13.375 -1.2518  0.4315  1.3105
35491SOL    HW218199   6.464   2.034  13.384 -0.1573 -1.3182  0.8472
35492SOL     OW18200  12.860   3.922   7.127  0.2529 -0.3552 -0.6406
35492SOL    HW118201  12.846   3.857   7.196  0.4270 -1.3444 -1.5146
35492SOL    HW218202  12.808   3.998   7.155  1.1535 -0.3352  1.0841
35493SOL     OW18203   8.956   3.473   6.958  0.0747 -0.4110 -0.2046
35493SOL    HW118204   8.919   3.437   7.039  0.1143 -0.9602 -0.4281
35493SOL    HW218205   8.946   3.568   6.968  1.8595 -0.3063  1.3274
35494SOL     OW18206   7.384   2.664  13.556 -0.3832  0.1961  0.4568
35494SOL    HW118207   7.359   2.756  13.549  0.2766  0.6180  2.8287
35494SOL    HW218208   7.474   2.661  13.525 -0.6706  0.1703 -0.4060
35495SOL     OW18209  13.170   5.944   8.848  0.3144  0.3436  0.0247
35495SOL    HW118210  13.222   5.928   8.770  0.5831 -0.5826  0.3784
35495SOL    HW218211  13.119   5.863   8.859  1.5587 -0.2677  1.7743
35496SOL     OW18212  11.572   1.165  11.256  0.1106  0.3109  0.4490
35496SOL    HW118213  11.658   1.161  11.214 -0.5097 -2.9546 -0.7825
35496SOL    HW218214  11.523   1.093  11.217 -2.8347  1.3640  1.9516
35497SOL     OW18215   4.271  13.082   1.114  0.2858 -0.3267  0.3828
35497SOL    HW118216   4.297  13.012   1.054  0.4740 -1.5037  1.7693
35497SOL    HW218217   4.208  13.134   1.064  0.0690 -1.5386 -0.6683
35498SOL     OW18218  10.530  11.741   6.471  0.0164  0.0883 -0.0305
35498SOL    HW118219  10.592  11.687   6.520 -1.1620 -0.0409  1.3558
35498SOL    HW218220  10.540  11.829   6.507  0.4164  0.3890 -0.8333
35499SOL     OW18221  11.553   7.488   1.037  0.1241  0.3068 -0.1948
35499SOL    HW118222  11.621   7.456   0.977 -1.0208 -2.1115 -0.2969
35499SOL    HW218223  11.480   7.428   1.025 -1.8437  2.4323  0.3895
35500SOL     OW18224   2.395   7.720  11.310  0.4639  0.2501  0.6673
35500SOL    HW118225   2.475   7.671  11.291 -1.1532 -2.2733 -0.1142
35500SOL    HW218226   2.401   7.742  11.403  3.0081  2.1212  0.1586
35501SOL     OW18227   7.670  12.708   5.942 -0.1083  0.0893  0.1406
35501SOL    HW118228   7.765  12.707   5.958 -0.0490  1.4911 -0.0330
35501SOL    HW218229   7.632  12.693   6.028  0.2697  0.6360  0.4120
35502SOL     OW18230  10.784   6.193   1.825 -0.4862  0.4309 -0.1183
35502SOL    HW118231  10.856   6.250   1.800 -0.9385  1.9178  1.7541
35502SOL    HW218232  10.705   6.242   1.804 -0.8841  0.6909  1.8011
35503SOL     OW18233   3.042   1.045  12.020 -0.0814 -0.1130  0.4942
35503SOL    HW118234   3.037   0.991  11.942 -3.1989  0.3519  0.2461
35503SOL    HW218235   3.065   1.132  11.987  1.0409 -0.4042  0.4458
35504SOL     OW18236   1.161   6.284   6.316  0.0054 -0.1865 -0.2345
35504SOL    HW118237   1.221   6.335   6.371 -0.6597 -1.0258  1.3588
35504SOL    HW218238   1.123   6.347   6.255  0.6167  0.8418  0.4276
35505SOL     OW18239   8.071  10.280   5.223 -0.1139 -0.2213  0.0758
35505SOL    HW118240   7.998  10.330   5.187  0.7728  0.1984 -1.2143
35505SOL    HW218241   8.047  10.189   5.210 -0.6970 -0.0959  0.2619
35506SOL     OW18242   5.494   8.684  11.936 -0.5244 -0.3961 -0.2403
35506SOL    HW118243   5.439   8.762  11.948 -1.6464 -1.2545  0.4007
35506SOL    HW218244   5.550   8.683  12.013 -0.1990  0.0110 -0.4680
35507SOL     OW18245   0.324   1.610   3.182 -0.4000 -0.2323 -0.5601
35507SOL    HW118246   0.324   1.658   3.099 -2.7348 -2.4413 -2.0087
35507SOL    HW218247   0.289   1.672   3.246  0.4728  1.2052 -1.4351
35508SOL     OW18248   2.035   3.905   3.450  0.0384 -0.0703  0.6746
35508SOL    HW118249   2.032   3.983   3.395  1.1836  1.6284  2.8650
35508SOL    HW218250   2.040   3.832   3.388  2.9445  1.7643 -1.5112
35509SOL     OW18251   3.951   4.968  12.283  0.3489  0.2147 -0.1417
35509SOL    HW118252   3.937   4.895  12.343  1.6754 -0.5946 -0.7732
35509SOL    HW218253   4.023   5.018  12.322 -0.8539  1.5165  0.5353
35510SOL     OW18254  11.923   7.727   8.529  0.4734  0.0628 -0.0561
35510SOL    HW118255  11.855   7.777   8.484  1.7718  0.3498 -1.8011
35510SOL    HW218256  11.981   7.792   8.567  0.6653 -0.1607  0.0382
35511SOL     OW18257   2.648   0.315   6.794  0.0304  0.0254  0.3387
35511SOL    HW118258   2.634   0.222   6.779  0.0635  0.2295 -1.1365
35511SOL    HW218259   2.668   0.350   6.707 -1.9970  1.7530  0.4676
35512SOL     OW18260  12.360   2.158   4.851 -0.6819  0.4278  0.5703
35512SOL    HW118261  12.377   2.249   4.829 -0.4512  0.0666 -0.8010
35512SOL    HW218262  12.276   2.159   4.897 -2.0390  1.0399 -1.8175
35513SOL     OW18263   5.608   3.811  12.006 -0.1325  0.0297  0.0282
35513SOL    HW118264   5.538   3.831  11.943 -0.7282 -1.7929  0.0610
35513SOL    HW218265   5.566   3.821  12.092  0.3758  1.4041  0.1499
35514SOL     OW18266   9.278   5.292  13.207 -0.4081 -0.2916  0.1530
35514SOL    HW118267   9.273   5.386  13.226  0.2398 -0.3434  0.6015
35514SOL    HW218268   9.359   5.263  13.249  0.0941 -0.7831 -1.0997
35515SOL     OW18269   1.554  13.245  13.515 -0.0567  0.7671  0.2979
35515SOL    HW118270   1.564  13.271  13.424  0.5227  0.3197  0.2274
35515SOL    HW218271   1.461  13.224  13.524 -0.2986  1.7166  0.0611
35516SOL     OW18272   1.296   4.722  12.270 -0.4412  0.1026 -0.1854
35516SOL    HW118273   1.321   4.630  12.266  0.4498  0.3553 -0.8344
35516SOL    HW218274   1.215   4.723  12.321 -0.0541 -0.9468  0.4785
35517SOL     OW18275   0.257   3.171  11.989  0.0463  0.0573 -0.0657
35517SOL    HW118276   0.242   3.107  12.059 -4.4371  0.4246 -0.3637
35517SOL    HW218277   0.287   3.250  12.034  1.6460 -0.9842  0.7892
35518SOL     OW18278   6.223  11.086   8.945  0.1237 -0.5555 -0.1159
35518SOL    HW118279   6.154  11.021   8.957  0.7482 -1.4790 -1.3650
35518SOL    HW218280   6.176  11.168   8.930 -0.7930 -1.4397 -2.5279
35519SOL     OW18281   4.736  12.904   1.050 -0.1756  0.0754  0.4913
35519SOL    HW118282   4.697  12.943   0.972  1.0772 -1.4013 -0.9565
35519SOL    HW218283   4.774  12.978   1.097 -3.2546  1.3736  1.2014
35520SOL     OW18284  11.106   0.509   3.331 -0.0925  0.4655  0.0063
35520SOL    HW118285  11.055   0.581   3.293 -0.3602 -0.0895 -0.7126
35520SOL    HW218286  11.078   0.432   3.282 -0.1474 -0.2095  1.0865
35521SOL     OW18287  13.208   9.661   9.563 -0.6423 -0.1685  0.1780
35521SOL    HW118288  13.214   9.624   9.475  0.6322 -1.6507  0.8365
35521SOL    HW218289  13.227   9.754   9.552  0.2469 -0.4663 -1.0034
35522SOL     OW18290   0.599  10.611   8.551 -0.1437 -0.2863 -0.1118
35522SOL    HW118291   0.596  10.637   8.643  1.1085  2.0362 -0.6606
35522SOL    HW218292   0.512  10.635   8.517 -0.7257 -1.4509  0.5025
35523SOL     OW18293   3.238   1.977  10.598  0.6274 -0.1727  0.2524
35523SOL    HW118294   3.251   1.906  10.535  0.8079 -0.2866  0.4176
35523SOL    HW218295   3.275   1.943  10.680 -1.9072 -1.1052  1.1232
35524SOL     OW18296  11.981   7.263   9.347 -0.0772 -0.0645 -0.2151
35524SOL    HW118297  11.932   7.341   9.322 -0.5778 -0.1410  0.5067
35524SOL    HW218298  11.924   7.190   9.321 -0.6931 -0.1459  1.2489
35525SOL     OW18299   1.258   7.036  10.751 -0.5704 -0.4336 -0.3259
35525SOL    HW118300   1.184   7.073  10.798 -0.6837  0.5769 -1.2730
35525SOL    HW218301   1.220   6.972  10.691 -0.5507 -0.8170  0.0703
35526SOL     OW18302  10.916   0.899   3.857 -0.5250 -0.2031  0.1456
35526SOL    HW118303  10.828   0.913   3.822 -0.7995  0.4972  1.0553
35526SOL    HW218304  10.975   0.923   3.785 -1.0748  0.3314 -0.1381
35527SOL     OW18305   5.887   0.906   8.253  0.2406  0.1082 -0.1336
35527SOL    HW118306   5.857   0.877   8.339  0.2799 -0.2162 -0.2250
35527SOL    HW218307   5.930   0.829   8.216  0.7518  0.4223 -0.2026
35528SOL     OW18308  13.357   3.440   4.464 -0.2373 -0.1052  0.4158
35528SOL    HW118309  13.432   3.481   4.421 -1.3284  1.2564 -0.2698
35528SOL    HW218310  13.379   3.441   4.557  0.7695 -0.1159  0.1877
35529SOL     OW18311   1.448   9.187  11.371  0.0319 -0.7202  0.3159
35529SOL    HW118312   1.429   9.280  11.379  0.0060 -0.7902  1.1817
35529SOL    HW218313   1.543   9.181  11.371  0.1779 -0.4260 -3.3452
35530SOL     OW18314   3.738  11.030   3.054 -0.3405  0.0798 -0.0101
35530SOL    HW118315   3.806  10.986   3.105  0.1831  2.1438  1.1971
35530SOL    HW218316   3.771  11.030   2.964  1.4435  1.2867  0.5989
35531SOL     OW18317   8.978   8.354   5.818  0.0994 -0.1848  0.8833
35531SOL    HW118318   9.067   8.363   5.783 -0.6843  0.0059 -1.2088
35531SOL    HW218319   8.935   8.436   5.793 -1.4242 -1.3703 -0.6608
35532SOL     OW18320  11.941   3.419  10.973  0.0669  0.1261 -0.0066
35532SOL    HW118321  11.879   3.357  10.936  0.5006  0.2787 -1.0149
35532SOL    HW218322  11.929   3.499  10.923  1.7186 -0.1267 -0.8993
35533SOL     OW18323   9.735   1.425  10.297  0.2040  0.2503 -0.0097
35533SOL    HW118324   9.714   1.506  10.345 -1.0521  1.2810 -2.1422
35533SOL    HW218325   9.749   1.454  10.207 -1.1811 -2.0237 -1.0327
35534SOL     OW18326   2.263   1.171   2.884 -0.0278 -0.3455  0.1285
35534SOL    HW118327   2.342   1.205   2.841 -0.4399 -0.4221 -0.7112
35534SOL    HW218328   2.294   1.100   2.939  0.4932 -0.3647 -0.1821
35535SOL     OW18329   9.106   7.522   1.309  0.1494 -0.6486 -0.6438
35535SOL    HW118330   9.137   7.533   1.399  1.6464  0.7454 -1.2979
35535SOL    HW218331   9.012   7.541   1.314  0.2779 -0.2439  0.5597
35536SOL     OW18332   1.576   6.373   4.745 -0.3068 -0.0771  0.3977
35536SOL    HW118333   1.671   6.382   4.752 -0.1481 -1.1433 -0.1927
35536SOL    HW218334   1.544   6.396   4.832  0.4841  0.3177  0.6003
35537SOL     OW18335  11.103  13.662   1.273  0.1638  0.4030 -0.2844
35537SOL    HW118336  11.008  13.663   1.257 -0.2838  0.0633  1.9269
35537SOL    HW218337  11.133  13.746   1.240 -0.9949  0.7120 -0.6211
35538SOL     OW18338   7.603   0.960   6.244 -0.5398 -0.1978 -0.3296
35538SOL    HW118339   7.568   1.037   6.289  0.7761 -0.2393  0.8010
35538SOL    HW218340   7.664   0.921   6.306  0.8207 -0.6557 -1.8870
35539SOL     OW18341   1.748   0.106   6.525 -0.3298 -0.5526  0.3006
35539SOL    HW118342   1.790   0.103   6.611 -0.9025 -0.3076  0.5970
35539SOL    HW218343   1.806   0.162   6.472  0.6955 -1.7224  0.1374
35540SOL     OW18344   3.743   5.454   8.823  0.1278 -0.1201 -0.4624
35540SOL    HW118345   3.799   5.423   8.751 -0.6925 -2.3312 -0.2379
35540SOL    HW218346   3.796   5.438   8.902  1.0007  2.2410 -0.4897
35541SOL     OW18347   1.079  13.162  11.362 -0.6922 -0.1668  0.1821
35541SOL    HW118348   1.015  13.164  11.290 -0.1695 -0.0443 -0.2841
35541SOL    HW218349   1.078  13.251  11.397 -0.5824 -0.0972  0.0062
35542SOL     OW18350  10.706   8.870   8.993  0.7506 -0.5263 -0.0452
35542SOL    HW118351  10.661   8.920   8.926 -1.1108 -0.1729  1.3686
35542SOL    HW218352  10.713   8.782   8.956 -0.5849 -0.4375 -0.5811
35543SOL     OW18353   8.213  12.400  11.092 -0.4856 -0.5809  0.1803
35543SOL    HW118354   8.260  12.354  11.023 -2.2016  0.1198 -1.5687
35543SOL    HW218355   8.126  12.360  11.092 -1.2440  0.9976  0.2850
35544SOL     OW18356   5.768   4.445   8.658  0.3489 -0.5302  0.4103
35544SOL    HW118357   5.852   4.465   8.699  0.3749  0.3430 -0.0480
35544SOL    HW218358   5.788   4.430   8.566 -0.0428  0.0831  0.2171
35545SOL     OW18359  12.545   5.739   9.772  0.2295  0.1601  0.1900
35545SOL    HW118360  12.569   5.719   9.682  0.6975  2.0418 -0.1473
35545SOL    HW218361  12.587   5.670   9.824  1.2289 -0.0848 -0.9048
35546SOL     OW18362   8.621   8.192  11.428 -0.7263 -0.0592  0.4759
35546SOL    HW118363   8.535   8.182  11.386 -0.4880  1.6024 -0.4747
35546SOL    HW218364   8.683   8.195  11.356  0.1176 -0.9401  1.1497
35547SOL     OW18365  11.005   6.734   7.136  0.4514  0.0691 -0.5869
35547SOL    HW118366  10.945   6.662   7.116 -0.3564  0.4865  0.2840
35547SOL    HW218367  10.967   6.777   7.212  1.9774  0.2060  0.1373
35548SOL     OW18368   2.246   1.701   0.972 -0.4410 -0.0146 -0.5107
35548SOL    HW118369   2.192   1.774   0.940  1.4346  2.4069  1.4095
35548SOL    HW218370   2.333   1.719   0.938  0.1684 -1.0685  0.4353
35549SOL     OW18371  10.893   3.614  11.112  0.0493  0.8498  0.2644
35549SOL    HW118372  10.800   3.598  11.095  0.2010  0.7597 -0.5185
35549SOL    HW218373  10.929   3.527  11.127  0.4314  0.6020 -1.7259
35550SOL     OW18374  11.149   6.937  12.335  0.1078 -0.2082 -0.1760
35550SOL    HW118375  11.194   6.872  12.281 -0.0585 -0.2282 -0.2925
35550SOL    HW218376  11.217   6.972  12.393  0.0037 -1.1818  0.5688
35551SOL     OW18377   6.676   1.434   2.880 -0.2574 -0.5047  0.5807
35551SOL    HW118378   6.706   1.430   2.971 -1.9584  1.0724  1.2637
35551SOL    HW218379   6.757   1.436   2.828  0.7393 -1.2551  2.0457
35552SOL     OW18380   8.648   7.125   0.659 -0.3620 -0.1205 -0.3141
35552SOL    HW118381   8.552   7.125   0.661 -0.5698  3.4250 -2.2310
35552SOL    HW218382   8.673   7.204   0.707  1.5338 -0.4613 -0.6586
35553SOL     OW18383   9.098   2.537  11.995  0.4749  0.2493 -0.2079
35553SOL    HW118384   9.141   2.619  11.974 -0.2648  0.0237 -3.0534
35553SOL    HW218385   9.132   2.475  11.931  1.4726 -1.9097  2.2249
35554SOL     OW18386  13.014   7.753   9.853 -0.0837  0.1116  0.0265
35554SOL    HW118387  13.076   7.826   9.853 -1.4074  1.2944 -1.0790
35554SOL    HW218388  12.937   7.787   9.899 -0.4005 -0.8924  0.2597
35555SOL     OW18389  11.756   6.759   5.368  0.7083 -0.1498  0.1248
35555SOL    HW118390  11.821   6.829   5.358 -1.1071  1.6190  0.0715
35555SOL    HW218391  11.674   6.797   5.336 -0.9909 -1.2573  2.7612
35556SOL     OW18392   9.963   9.173   7.295 -0.1611 -0.0461 -0.0000
35556SOL    HW118393   9.984   9.084   7.269 -1.7801 -0.5476  0.3002
35556SOL    HW218394   9.918   9.164   7.379  0.6158  1.1550  0.5821
35557SOL     OW18395   1.605   7.205  13.344  0.2990  0.4550  0.2594
35557SOL    HW118396   1.616   7.233  13.435  1.0620  0.2398  0.2436
35557SOL    HW218397   1.580   7.285  13.297 -1.1910  0.3467  0.8345
35558SOL     OW18398  11.880   6.711   0.825  0.2122 -0.0706 -0.0157
35558SOL    HW118399  11.813   6.699   0.891  0.5496 -1.7189  0.0770
35558SOL    HW218400  11.880   6.629   0.775 -0.3117  1.2486 -2.3524
35559SOL     OW18401  10.140   6.769   9.662  0.2707 -0.6506  0.0812
35559SOL    HW118402  10.051   6.779   9.631  0.7241  1.6916 -0.6745
35559SOL    HW218403  10.191   6.831   9.611  2.4062 -2.0628  0.3331
35560SOL     OW18404   1.375   5.563   1.848  0.2186 -0.1417  0.2357
35560SOL    HW118405   1.392   5.500   1.778 -0.1652  0.1494 -0.1276
35560SOL    HW218406   1.386   5.648   1.807  0.7961  0.0299  0.7429
35561SOL     OW18407   2.974  10.521   1.739  0.0595 -0.0333 -0.2429
35561SOL    HW118408   2.990  10.452   1.674  0.4273 -0.7344  0.5681
35561SOL    HW218409   2.889  10.498   1.777 -0.6082  0.9099 -1.1119
35562SOL     OW18410   9.959  13.057   4.770  0.3993 -0.1110  0.4059
35562SOL    HW118411   9.976  13.073   4.863  2.3138  0.8416 -0.0478
35562SOL    HW218412  10.046  13.062   4.729 -0.5452  0.7641 -1.6173
35563SOL     OW18413  12.928   5.356   5.443 -0.6867  0.3112 -0.1908
35563SOL    HW118414  13.009   5.394   5.478  0.6582 -1.2793 -1.3936
35563SOL    HW218415  12.904   5.288   5.506 -0.1301 -0.3389 -0.6744
35564SOL     OW18416  11.610   1.972   7.847  0.4906  0.3175  0.0936
35564SOL    HW118417  11.705   1.987   7.846  0.2675  1.9038 -0.6720
35564SOL    HW218418  11.579   2.012   7.766 -0.9969  1.0098  0.9726
35565SOL     OW18419   6.082   8.589  11.562  0.1113 -0.0026  0.4054
35565SOL    HW118420   6.095   8.674  11.520  2.4656 -0.7204 -0.4677
35565SOL    HW218421   6.052   8.531  11.491  1.8990 -0.6715  0.1297
35566SOL     OW18422   6.604   0.547   3.845 -0.2028 -0.5292 -0.0160
35566SOL    HW118423   6.591   0.478   3.910 -0.9230 -1.2295 -0.8639
35566SOL    HW218424   6.529   0.605   3.855  0.2571 -0.0176  0.5077
35567SOL     OW18425  11.183   9.835   7.655  0.2876 -0.3182  0.2080
35567SOL    HW118426  11.267   9.882   7.661  0.3606 -0.2590 -0.9838
35567SOL    HW218427  11.122   9.901   7.620 -0.4849 -0.1078  1.8831
35568SOL     OW18428  12.681   1.347  13.677 -0.5956  0.2353  0.0553
35568SOL    HW118429  12.591   1.371  13.696 -0.5304  1.8465 -1.4902
35568SOL    HW218430  12.675   1.262  13.633 -1.5128  1.0235 -1.3997
35569SOL     OW18431   5.211   9.750   2.475 -0.3287 -0.5163  0.1589
35569SOL    HW118432   5.130   9.782   2.435 -1.8243 -2.7966  1.1375
35569SOL    HW218433   5.188   9.736   2.567  1.4177 -0.5419  0.6286
35570SOL     OW18434  13.052  11.996  12.105  0.2806  0.0645 -0.5435
35570SOL    HW118435  13.044  11.944  12.024  0.0711 -0.0752 -0.4346
35570SOL    HW218436  12.967  11.986  12.148  0.0977  0.8159 -0.7065
35571SOL     OW18437  10.089   0.404   8.730 -0.0373  0.5632  0.0293
35571SOL    HW118438  10.132   0.439   8.652 -0.1985  0.6737 -0.0103
35571SOL    HW218439  10.010   0.457   8.739 -0.4369  0.0161 -0.2034
35572SOL     OW18440   3.986   6.550   8.012  0.3204 -0.6142  0.0261
35572SOL    HW118441   3.920   6.611   8.046  0.0381 -0.5029 -0.7060
35572SOL    HW218442   4.052   6.606   7.972  0.8011 -0.7324  0.6353
35573SOL     OW18443   1.936  13.335  10.355 -0.1832 -0.8894  0.1639
35573SOL    HW118444   1.846  13.307  10.338 -0.1217 -2.4080  1.9738
35573SOL    HW218445   1.940  13.348  10.450  0.8044  1.9445 -0.1793
35574SOL     OW18446   2.670   1.472  10.134 -0.0047  0.3047 -0.1313
35574SOL    HW118447   2.659   1.377  10.138 -0.2059  0.3743  1.9162
35574SOL    HW218448   2.582   1.505  10.115  0.0764  0.1121 -0.9078
35575SOL     OW18449   7.553   4.836   0.604 -0.3423 -0.5860 -0.0131
35575SOL    HW118450   7.612   4.790   0.663 -0.1322 -1.8953 -1.1987
35575SOL    HW218451   7.607   4.904   0.564 -0.8073  1.1848  2.2044
35576SOL     OW18452  12.753   6.996  11.288 -0.4181 -0.0129 -0.5278
35576SOL    HW118453  12.732   6.904  11.303  0.9182 -0.4595 -1.3003
35576SOL    HW218454  12.674   7.032  11.246 -0.5676 -1.0619 -1.1672
35577SOL     OW18455   0.049   1.262   9.383 -0.0937 -0.3009 -0.3482
35577SOL    HW118456  -0.042   1.233   9.377 -0.7391  1.7743 -1.8679
35577SOL    HW218457   0.043   1.357   9.395  1.8805 -0.0976 -0.5818
35578SOL     OW18458   9.148   9.686   6.888  0.2589  0.3201  0.1490
35578SOL    HW118459   9.244   9.689   6.897  0.3479  0.3270 -0.7274
35578SOL    HW218460   9.131   9.604   6.843 -0.2446 -0.2300  1.3195
35579SOL     OW18461   8.038   2.680   9.241 -0.5922 -0.6412  0.5179
35579SOL    HW118462   8.110   2.628   9.205 -0.9760 -0.5414 -0.4178
35579SOL    HW218463   8.073   2.715   9.323  1.4053  1.5370 -1.1217
35580SOL     OW18464   3.824  13.271   7.938  0.0240  0.0727 -0.2936
35580SOL    HW118465   3.887  13.260   8.009 -0.8379 -0.3005  0.4292
35580SOL    HW218466   3.743  13.297   7.981 -0.0617  1.5779 -1.3056
35581SOL     OW18467  11.480  13.236   5.447  0.9751 -0.0647 -0.1742
35581SOL    HW118468  11.531  13.225   5.527  0.0345  0.3738  0.5047
35581SOL    HW218469  11.431  13.154   5.438  2.2205 -0.7306 -1.1578
35582SOL     OW18470  11.677  11.387   6.654  0.3463  0.2714 -0.1971
35582SOL    HW118471  11.739  11.328   6.611  0.6562  0.3060  0.1963
35582SOL    HW218472  11.695  11.376   6.748 -0.9456 -0.5116 -0.0153
35583SOL     OW18473   9.692   6.028   6.338  0.0193  0.7451  0.2201
35583SOL    HW118474   9.638   6.033   6.418  0.0605 -0.8618  0.3964
35583SOL    HW218475   9.781   6.043   6.369  0.2366 -1.3541  0.8074
35584SOL     OW18476  12.885   8.256   3.031  0.0160  0.0264 -0.2797
35584SOL    HW118477  12.945   8.253   2.956 -0.9613 -0.2964 -1.0640
35584SOL    HW218478  12.895   8.345   3.065 -1.5888  1.1641 -2.5473
35585SOL     OW18479   6.862   9.817   9.208  0.6100 -0.5007 -0.2545
35585SOL    HW118480   6.826   9.889   9.260 -2.2932  1.3457 -4.2778
35585SOL    HW218481   6.952   9.806   9.241 -0.3359  1.6583  3.6691
35586SOL     OW18482   9.756   2.361   5.918 -0.2143  0.0895  1.0839
35586SOL    HW118483   9.741   2.442   5.869 -1.2254  0.1689  1.4940
35586SOL    HW218484   9.685   2.303   5.889  2.5779 -2.1256 -2.1263
35587SOL     OW18485  10.515  12.025   6.590  0.7562  0.1855  0.2024
35587SOL    HW118486  10.452  12.097   6.582  0.4945  0.0760  1.1448
35587SOL    HW218487  10.476  11.966   6.654 -0.4291 -2.2853 -2.5242
35588SOL     OW18488   9.669   0.649  10.751 -0.4151  0.8201  0.6278
35588SOL    HW118489   9.582   0.611  10.754 -0.9972  2.1431  1.3534
35588SOL    HW218490   9.667   0.710  10.678 -0.1075  0.8722  0.6593
35589SOL     OW18491   1.773   6.463   0.095 -0.5303 -0.4445 -0.2056
35589SOL    HW118492   1.820   6.390   0.134 -0.8955 -1.6306 -1.8529
35589SOL    HW218493   1.813   6.473   0.008 -1.9323 -0.1329 -0.8404
35590SOL     OW18494   8.982   9.263   7.427 -0.6471  0.1734  0.0832
35590SOL    HW118495   8.939   9.329   7.373  0.8493  2.3259  1.3720
35590SOL    HW218496   9.054   9.231   7.373 -0.4891  0.6775 -0.0050
35591SOL     OW18497   6.875  10.726   1.398 -0.5568  0.1255  0.3089
35591SOL    HW118498   6.859  10.779   1.476  0.6424  0.2125  0.5196
35591SOL    HW218499   6.936  10.658   1.428  0.4249  0.5310 -0.6738
35592SOL     OW18500  12.871   2.020   9.041 -0.0233 -0.2817 -0.1144
35592SOL    HW118501  12.947   2.070   9.012  0.8791 -0.7072  1.3740
35592SOL    HW218502  12.878   1.937   8.994 -0.2380  0.1023 -0.8485
35593SOL     OW18503   1.351   2.822   5.351  0.0034 -0.4079  0.5465
35593SOL    HW118504   1.422   2.784   5.402  0.0701 -1.1323 -0.0787
35593SOL    HW218505   1.371   2.916   5.348  0.8087 -0.5791  0.5635
35594SOL     OW18506   9.102   7.407   3.998 -0.0421 -0.0392 -0.2107
35594SOL    HW118507   9.084   7.452   4.080  0.9755  0.7486 -0.4022
35594SOL    HW218508   9.048   7.452   3.933  1.4135  1.3646 -0.5142
35595SOL     OW18509   1.538  10.048   9.755 -0.2325  0.3156 -0.0065
35595SOL    HW118510   1.592   9.970   9.767 -0.6566  0.0720  0.3261
35595SOL    HW218511   1.570  10.110   9.820 -0.4056  0.1452  0.2393
35596SOL     OW18512  11.144   4.433   8.000  0.3543 -0.1014 -0.6382
35596SOL    HW118513  11.189   4.350   7.982  1.1869  0.2679 -0.3427
35596SOL    HW218514  11.212   4.500   7.990  0.7011  0.2424  2.7046
35597SOL     OW18515   3.892   9.589   1.466 -0.4863 -0.2741  0.2237
35597SOL    HW118516   3.924   9.679   1.465 -1.2137 -0.0160 -0.5012
35597SOL    HW218517   3.909   9.559   1.556  0.0664  0.4655  0.3778
35598SOL     OW18518   5.145   6.121   8.711 -0.2142 -0.0812 -0.2531
35598SOL    HW118519   5.221   6.092   8.760  1.2663 -1.3440 -3.0831
35598SOL    HW218520   5.172   6.203   8.669 -0.9700  0.2844 -0.0535
35599SOL     OW18521   1.627   3.121   6.287  0.3899 -0.4645 -0.4060
35599SOL    HW118522   1.644   3.153   6.376  1.3925 -2.3886  0.1668
35599SOL    HW218523   1.661   3.189   6.229 -0.6757  1.0234  0.6495
35600SOL     OW18524   2.650   7.092  10.067  0.2464 -0.5165 -0.1465
35600SOL    HW118525   2.723   7.125  10.120 -1.3357  0.4872  1.5076
35600SOL    HW218526   2.678   7.106   9.976  1.0847  2.2462  0.4555
35601SOL     OW18527  12.866   9.204  13.658  0.0444  0.3649 -0.4099
35601SOL    HW118528  12.872   9.187  13.752 -0.6886  0.7913 -0.2736
35601SOL    HW218529  12.796   9.269  13.651  0.3261  0.5859 -1.2222
35602SOL     OW18530   6.334   2.347   2.287 -0.6824 -0.2168  0.4636
35602SOL    HW118531   6.303   2.331   2.376 -1.5870 -0.2050  0.1614
35602SOL    HW218532   6.263   2.395   2.245 -0.6190 -0.9418 -0.5081
35603SOL     OW18533   4.639   3.946   0.283  0.3778  0.9601 -0.2957
35603SOL    HW118534   4.636   4.041   0.296  0.2898  0.8136  0.8994
35603SOL    HW218535   4.548   3.922   0.263  0.5347  1.2107 -1.3729
35604SOL     OW18536   9.332   4.392   5.758 -0.2947  0.5156 -0.3503
35604SOL    HW118537   9.256   4.398   5.816 -0.1080 -0.4564  0.0096
35604SOL    HW218538   9.365   4.482   5.753 -1.2935  0.9009 -0.2885
35605SOL     OW18539   4.160   6.125   6.957 -0.5980 -0.0282 -0.5463
35605SOL    HW118540   4.127   6.158   7.041  0.9183  1.1132 -0.3636
35605SOL    HW218541   4.255   6.130   6.965 -0.3902 -1.4485 -1.7491
35606SOL     OW18542  13.527  10.460  10.710  0.3168  0.1014 -0.4432
35606SOL    HW118543  13.505  10.508  10.790  1.5346  0.5736 -0.3595
35606SOL    HW218544  13.504  10.369  10.728 -0.5167  0.3952  0.0023
35607SOL     OW18545  12.868  13.184   7.604 -0.2550 -0.1873  0.3550
35607SOL    HW118546  12.926  13.209   7.532 -1.1916 -1.3631 -0.8652
35607SOL    HW218547  12.816  13.262   7.622  0.4119  0.3045  0.1777
35608SOL     OW18548   1.806   7.239   2.167 -0.7399  0.2378  0.1926
35608SOL    HW118549   1.882   7.267   2.115 -0.1820 -0.6450  0.5030
35608SOL    HW218550   1.731   7.252   2.109 -0.3423  1.0219 -0.1615
35609SOL     OW18551   1.381  12.767   5.166 -0.3103 -0.4820  0.0002
35609SOL    HW118552   1.386  12.843   5.224 -1.4517  0.5680 -1.2097
35609SOL    HW218553   1.348  12.696   5.221  0.6503 -0.0893  1.1227
35610SOL     OW18554  12.442  10.857   3.582 -0.2405  0.1469  0.3782
35610SOL    HW118555  12.481  10.857   3.494 -1.0949  0.1442 -0.0071
35610SOL    HW218556  12.384  10.933   3.583 -1.6441 -0.8778  0.2882
35611SOL     OW18557   5.044   1.261  12.750 -0.1669 -0.3955 -0.2363
35611SOL    HW118558   5.057   1.224  12.662  2.0617  0.5946 -0.3846
35611SOL    HW218559   4.986   1.199  12.794  1.7914 -3.0190 -1.1219
35612SOL     OW18560  13.132   6.123   1.484 -0.7133 -0.1732 -0.2881
35612SOL    HW118561  13.134   6.160   1.396  2.4480 -0.9269 -0.6385
35612SOL    HW218562  13.097   6.035   1.473  0.3542 -0.5311 -0.9539
35613SOL     OW18563   7.352   9.751   3.454  0.1125 -0.2572 -0.4448
35613SOL    HW118564   7.390   9.772   3.369 -1.4978 -1.1749 -1.4407
35613SOL    HW218565   7.280   9.813   3.465  0.8337  0.4334  0.6973
35614SOL     OW18566   4.657   3.964  12.804 -0.6537  0.0745 -0.2204
35614SOL    HW118567   4.657   3.876  12.842 -1.8675 -0.4654 -1.3912
35614SOL    HW218568   4.582   4.008  12.845  0.7378  1.0628  1.3725
35615SOL     OW18569  10.393  13.405   2.948  0.3748 -0.4346 -0.0604
35615SOL    HW118570  10.334  13.350   2.896 -0.3243 -0.5789  0.8501
35615SOL    HW218571  10.435  13.345   3.009  0.5539 -0.1445  0.1046
35616SOL     OW18572  11.803   0.884  12.237 -0.3853  0.4896 -0.8746
35616SOL    HW118573  11.839   0.795  12.244 -1.7434  0.0370  1.0681
35616SOL    HW218574  11.718   0.872  12.195  0.5071  1.2495 -3.0388
35617SOL     OW18575   8.033  10.213  13.491  0.0001  0.1897  0.2710
35617SOL    HW118576   8.035  10.146  13.423 -0.9513  0.5541 -0.1371
35617SOL    HW218577   8.052  10.167  13.572 -2.7988 -1.0389  0.3398
35618SOL     OW18578   1.021   6.910   3.205 -0.5019 -0.0304 -0.4027
35618SOL    HW118579   0.971   6.968   3.147  0.8662  1.6259 -0.0143
35618SOL    HW218580   0.967   6.831   3.212 -2.2214  0.9869 -1.3547
35619SOL     OW18581   0.077   3.743   6.425  0.3619  0.2921 -0.4209
35619SOL    HW118582   0.117   3.661   6.455  2.2116  1.8299  1.6624
35619SOL    HW218583   0.049   3.786   6.505  2.1485  2.9851 -1.1052
35620SOL     OW18584  11.315   1.412   9.990 -0.1003  0.0933  0.1599
35620SOL    HW118585  11.225   1.420   9.958  0.1568  2.5972 -0.1933
35620SOL    HW218586  11.365   1.385   9.913 -0.6114 -2.2797  0.5821
35621SOL     OW18587   9.157   9.360   7.083  0.3248  0.3658 -0.1647
35621SOL    HW118588   9.168   9.300   7.156 -1.3615  0.4856  0.2237
35621SOL    HW218589   9.246   9.386   7.059  1.0488 -1.6200  0.1943
35622SOL     OW18590   3.466  10.952   2.272  0.4873  0.0442 -0.3597
35622SOL    HW118591   3.424  11.028   2.233  1.5043  1.2055  0.7240
35622SOL    HW218592   3.467  10.971   2.366  0.3664 -1.5236 -0.0088
35623SOL     OW18593   6.780   5.972   7.704 -0.2610  0.3117  0.6206
35623SOL    HW118594   6.729   5.891   7.703  1.2666 -0.6809 -0.5312
35623SOL    HW218595   6.848   5.957   7.769  2.0541 -0.7269 -1.8733
35624SOL     OW18596   4.833  11.536   1.394 -0.4236  0.1593  0.7668
35624SOL    HW118597   4.832  11.523   1.489  1.9388  0.6583  0.9187
35624SOL    HW218598   4.827  11.631   1.382 -2.1559  0.0248  0.3155
35625SOL     OW18599   9.069  10.057   1.636 -0.3599 -0.5651  0.0344
35625SOL    HW118600   9.085  10.099   1.721  1.3599 -0.5913 -0.2432
35625SOL    HW218601   9.155  10.055   1.594 -0.9228 -1.8549 -1.1207
35626SOL     OW18602  11.441   0.469   3.417  0.0880  0.2905  0.3801
35626SOL    HW118603  11.479   0.554   3.437  0.8465 -0.4699  2.4414
35626SOL    HW218604  11.352   0.474   3.453  0.0133  0.3280  0.1911
35627SOL     OW18605   1.468   6.242   5.959  0.2897  0.2558  0.2855
35627SOL    HW118606   1.470   6.303   6.033  0.0068 -0.2503  0.7115
35627SOL    HW218607   1.403   6.176   5.983  3.3041 -2.5097  1.6527
35628SOL     OW18608   8.918  13.704  12.301  0.2912 -0.3490  0.1524
35628SOL    HW118609   8.836  13.730  12.258 -1.0132 -0.5854  2.3253
35628SOL    HW218610   8.951  13.785  12.340  0.0817 -0.5940  0.8506
35629SOL     OW18611  12.913  13.037  12.206  0.1249  0.2281 -0.3870
35629SOL    HW118612  12.830  12.990  12.197 -0.5661  1.3554 -0.0337
35629SOL    HW218613  12.960  13.019  12.124 -1.5535  1.6759 -1.7305
35630SOL     OW18614  10.396   1.605   4.528  0.2686 -0.0294 -0.0756
35630SOL    HW118615  10.391   1.699   4.547 -0.3622 -0.5731  3.1130
35630SOL    HW218616  10.307   1.581   4.504 -0.1571 -0.1475  1.4804
35631SOL     OW18617   2.841   6.477  11.785 -0.4712  0.5570  0.9411
35631SOL    HW118618   2.847   6.571  11.798 -0.2358  0.4596  1.6396
35631SOL    HW218619   2.788   6.446  11.859  1.9332 -0.1817  2.4885
35632SOL     OW18620  13.053   8.171   0.191  0.1636 -0.2089 -0.1576
35632SOL    HW118621  13.032   8.223   0.269  0.3900 -0.8049  0.3008
35632SOL    HW218622  12.975   8.180   0.135 -0.5542 -0.8510  0.7109
35633SOL     OW18623   4.604   0.300   4.078 -0.5923 -0.2892  0.1505
35633SOL    HW118624   4.547   0.369   4.113 -1.7111 -0.4022 -1.3643
35633SOL    HW218625   4.566   0.218   4.109  0.8024 -0.2961  2.0465
35634SOL     OW18626  13.339   8.862   1.113  0.1606 -1.1527  0.9871
35634SOL    HW118627  13.325   8.783   1.165 -1.8520 -0.0356  2.3060
35634SOL    HW218628  13.383   8.923   1.172  0.8992 -0.9639  0.2694
35635SOL     OW18629  11.927  10.669   6.524  0.2839  0.1574  0.0519
35635SOL    HW118630  11.895  10.691   6.612  0.1804  0.1923  0.0055
35635SOL    HW218631  11.978  10.589   6.537  1.2612  0.8074  0.3399
35636SOL     OW18632   0.251   6.984   0.106 -0.3309  0.5321  0.2818
35636SOL    HW118633   0.205   6.929   0.042 -0.2159  1.0470 -0.2526
35636SOL    HW218634   0.276   7.062   0.056  0.8246  0.4155  0.6527
35637SOL     OW18635   8.338   7.903   8.717 -0.6134 -0.5434 -0.8004
35637SOL    HW118636   8.346   7.965   8.644 -0.7531  0.0679 -0.3028
35637SOL    HW218637   8.405   7.930   8.779  0.1652 -1.6706 -1.1245
35638SOL     OW18638  12.224   6.687   5.603 -0.3511 -0.2149  0.1761
35638SOL    HW118639  12.167   6.764   5.597  0.1856  0.1490 -0.4725
35638SOL    HW218640  12.278   6.704   5.681 -0.1313  0.1408 -0.0512
35639SOL     OW18641   9.304   4.244   9.042  0.6586 -0.6279 -0.0089
35639SOL    HW118642   9.286   4.272   8.952 -0.8137 -1.4957 -0.0155
35639SOL    HW218643   9.282   4.151   9.043  0.0585 -0.5005  1.3952
35640SOL     OW18644   5.868   3.971  10.065 -0.0732  0.3827  0.4011
35640SOL    HW118645   5.841   4.046  10.012  0.1233  1.1662  1.3801
35640SOL    HW218646   5.813   3.976  10.143  0.6420  0.1159  0.9368
35641SOL     OW18647   8.298   6.134  10.008  0.6350  0.0259  0.0488
35641SOL    HW118648   8.236   6.146   9.936 -1.3688 -0.6455  1.5806
35641SOL    HW218649   8.343   6.218  10.016 -0.2820  0.6287 -0.9042
35642SOL     OW18650   0.870  11.107  10.990  0.1670 -0.1077  0.3738
35642SOL    HW118651   0.875  11.015  10.963 -0.7053 -0.0263 -0.0988
35642SOL    HW218652   0.902  11.106  11.081  0.4938 -0.8180  0.2632
35643SOL     OW18653   1.589   2.537   0.144  0.1105 -0.6352  0.1085
35643SOL    HW118654   1.633   2.604   0.092  0.6512 -1.4237 -0.4541
35643SOL    HW218655   1.511   2.581   0.177  0.4591  0.2773 -0.2490
35644SOL     OW18656   5.149   0.596  10.008  0.2704 -0.2792 -0.1872
35644SOL    HW118657   5.055   0.578  10.013  0.5683 -1.6121  1.6925
35644SOL    HW218658   5.160   0.677  10.058 -0.1366  1.3558 -2.5715
35645SOL     OW18659   9.047   8.354   6.867  0.1288  0.5918  0.6257
35645SOL    HW118660   9.142   8.359   6.874  0.0429  2.1216  1.0051
35645SOL    HW218661   9.019   8.443   6.845 -1.2118  0.1517  0.4232
35646SOL     OW18662   9.608   4.692   4.767  0.2738 -0.1276  0.0335
35646SOL    HW118663   9.696   4.678   4.730  0.3565 -1.1639  0.6093
35646SOL    HW218664   9.570   4.605   4.773 -0.9000  0.3347 -0.4196
35647SOL     OW18665   9.211   2.059  12.219  0.4593 -0.5925  0.2295
35647SOL    HW118666   9.261   1.981  12.244 -0.5767 -1.3536 -0.0364
35647SOL    HW218667   9.120   2.031  12.218  0.2683 -0.4952 -3.6371
35648SOL     OW18668  13.079   6.893   2.416  0.6200  0.1179 -0.0245
35648SOL    HW118669  13.003   6.905   2.473  0.6317 -0.3967  0.1066
35648SOL    HW218670  13.090   6.798   2.412  0.2454  0.1089 -1.3636
35649SOL     OW18671  13.717   7.755   1.989  0.4366  0.5185 -0.2446
35649SOL    HW118672  13.786   7.695   2.017 -0.9145 -0.1071  2.0514
35649SOL    HW218673  13.672   7.708   1.919  0.3216 -0.5442  0.5121
35650SOL     OW18674   4.179  11.200   6.255  0.1265  0.4253  0.0421
35650SOL    HW118675   4.110  11.251   6.213  0.6662 -0.2306 -1.7410
35650SOL    HW218676   4.137  11.161   6.332 -1.1182  1.0630 -0.2847
35651SOL     OW18677   2.659  12.440   8.039 -0.3960 -0.0226  0.1140
35651SOL    HW118678   2.634  12.355   8.075  0.5027 -0.2298  0.2867
35651SOL    HW218679   2.593  12.459   7.973 -0.5187 -0.9299 -0.0374
35652SOL     OW18680  13.407   1.923   8.571 -0.4779 -0.0772  0.0751
35652SOL    HW118681  13.447   1.988   8.514  1.7918 -0.0988  1.4833
35652SOL    HW218682  13.414   1.961   8.659  1.2089 -2.2518  0.9819
35653SOL     OW18683  12.524   4.561   6.832  0.1226 -0.4940  0.2052
35653SOL    HW118684  12.517   4.500   6.759  0.3616  1.6452 -1.7277
35653SOL    HW218685  12.611   4.601   6.822 -0.7620  1.5477  0.1936
35654SOL     OW18686   5.194  10.757  12.968 -0.1353  0.6041  0.1252
35654SOL    HW118687   5.103  10.738  12.948 -0.5609 -0.0195  2.3184
35654SOL    HW218688   5.220  10.688  13.030  1.1631  1.9302  1.1535
35655SOL     OW18689   1.513   2.703   5.547  0.4189 -0.6114  0.1981
35655SOL    HW118690   1.594   2.689   5.595  1.1626 -1.9322 -1.3637
35655SOL    HW218691   1.451   2.643   5.588  0.5820 -0.5718  0.5120
35656SOL     OW18692   0.656   0.103  10.039 -0.4299 -0.0728 -0.3624
35656SOL    HW118693   0.621   0.166  10.102  0.3809  0.1392 -0.1076
35656SOL    HW218694   0.719   0.051  10.090  0.0949 -0.0218 -0.9444
35657SOL     OW18695   7.047   7.696  12.902  0.4231  0.5514  0.1506
35657SOL    HW118696   6.969   7.730  12.945  1.1792  0.4979  1.6179
35657SOL    HW218697   7.018   7.614  12.861 -0.3054  0.5840  0.5975
35658SOL     OW18698   1.490  11.056   4.881  0.2797 -0.0457 -0.2733
35658SOL    HW118699   1.563  10.994   4.880 -1.0482 -1.6864 -0.6378
35658SOL    HW218700   1.484  11.085   4.972  1.6793  0.5201 -0.3400
35659SOL     OW18701   2.477   2.433  11.252 -0.5765  0.6908  0.2697
35659SOL    HW118702   2.556   2.485  11.269 -0.5204  0.4154  0.8862
35659SOL    HW218703   2.431   2.431  11.336 -1.6856  1.5770 -0.2978
35660SOL     OW18704   9.093   0.394   1.740 -0.0727 -0.2216 -0.2755
35660SOL    HW118705   9.109   0.401   1.834  2.1072  0.3702 -0.6402
35660SOL    HW218706   9.085   0.300   1.725 -1.0159 -0.2965  0.5587
35661SOL     OW18707   2.544  11.693   5.277  0.8234 -0.1603 -0.3513
35661SOL    HW118708   2.558  11.788   5.275 -0.5363  0.0520 -2.2085
35661SOL    HW218709   2.600  11.659   5.207 -1.2380 -0.2880 -2.0061
35662SOL     OW18710   9.275   3.168   5.556 -0.0996 -0.0745 -0.3373
35662SOL    HW118711   9.357   3.159   5.605 -0.8554 -0.3122  0.9222
35662SOL    HW218712   9.259   3.262   5.554 -0.0522 -0.0616 -0.1453
35663SOL     OW18713   7.020   5.854   6.334  0.1106 -0.3815  0.6045
35663SOL    HW118714   6.956   5.888   6.396 -0.6872 -1.4733  0.3928
35663SOL    HW218715   7.009   5.909   6.256 -1.7985 -1.6322 -0.0650
35664SOL     OW18716   8.606  10.056   9.480 -0.1685 -0.1109 -0.5777
35664SOL    HW118717   8.658  10.122   9.434  1.8283 -1.6138 -0.6239
35664SOL    HW218718   8.642  10.054   9.568 -1.6866  0.3503  0.0816
35665SOL     OW18719  11.927   0.426   7.896 -0.1972  0.1121  0.3488
35665SOL    HW118720  11.886   0.493   7.842  0.4582 -1.0867 -1.7307
35665SOL    HW218721  11.994   0.472   7.946 -0.0320  1.0724 -0.7285
35666SOL     OW18722   2.907   9.165  11.388 -0.4879  0.1097 -0.3546
35666SOL    HW118723   2.988   9.128  11.353 -0.1513 -0.0441  0.5684
35666SOL    HW218724   2.900   9.130  11.477 -1.7174 -0.1050 -0.5119
35667SOL     OW18725   3.580   3.260  11.368 -0.0649  0.5005  0.1486
35667SOL    HW118726   3.602   3.353  11.374 -1.0235  0.6988  0.8691
35667SOL    HW218727   3.517   3.246  11.439 -1.3275 -0.2823 -1.0644
35668SOL     OW18728   3.028   1.729   2.108 -0.0104 -0.1310 -0.4064
35668SOL    HW118729   3.088   1.655   2.106 -1.0767 -1.4403  4.0970
35668SOL    HW218730   2.942   1.692   2.087 -0.3060  0.0967  0.3380
35669SOL     OW18731   8.380   3.252   7.237 -0.3339 -0.3368 -0.3457
35669SOL    HW118732   8.370   3.193   7.162  0.3407 -1.0273  0.0991
35669SOL    HW218733   8.456   3.306   7.215  1.2300 -1.9721  0.7288
35670SOL     OW18734   7.611   5.639   1.790  0.3694  0.5840  0.4170
35670SOL    HW118735   7.601   5.686   1.873 -0.5229 -0.1475  0.7476
35670SOL    HW218736   7.700   5.659   1.761  0.4825  1.3400  1.2445
35671SOL     OW18737   9.858   3.140   8.696 -0.1587 -0.0448  0.0196
35671SOL    HW118738   9.874   3.142   8.602 -0.0924  2.4083  0.0046
35671SOL    HW218739   9.851   3.232   8.721  0.8134 -0.5613  2.5909
35672SOL     OW18740   6.586   3.887  10.811 -0.4664  0.0173 -0.0908
35672SOL    HW118741   6.581   3.925  10.723  0.6946  0.8158  0.1718
35672SOL    HW218742   6.627   3.954  10.864 -3.1957  0.4764  1.6493
35673SOL     OW18743   8.397   8.157   9.532  0.0130 -0.5132  0.2927
35673SOL    HW118744   8.370   8.173   9.442 -0.9902 -0.4775  0.5855
35673SOL    HW218745   8.457   8.083   9.527  0.4526 -0.1065 -0.4706
35674SOL     OW18746  12.881  10.503  10.681  0.7192 -0.0112 -0.8212
35674SOL    HW118747  12.793  10.537  10.664  0.5201  0.1143  0.3720
35674SOL    HW218748  12.867  10.432  10.743  1.3644 -0.7515 -1.4967
35675SOL     OW18749   2.231   2.278   5.387  0.6716 -0.5829 -0.1244
35675SOL    HW118750   2.210   2.238   5.471  0.2007 -0.3898 -0.1486
35675SOL    HW218751   2.263   2.206   5.332  2.1917 -0.5070  0.6132
35676SOL     OW18752   8.317   4.464  12.693  0.0016 -0.3480  0.1510
35676SOL    HW118753   8.333   4.377  12.656 -0.7362 -0.6965  0.6220
35676SOL    HW218754   8.353   4.460  12.781  2.1539  0.6216 -0.6237
35677SOL     OW18755   0.866  10.270   0.544 -0.2007 -0.0496  0.7807
35677SOL    HW118756   0.916  10.231   0.472 -0.4332 -1.2458  1.2486
35677SOL    HW218757   0.931  10.281   0.614 -0.2047  0.1053  0.7600
35678SOL     OW18758   3.173   6.153   5.954 -0.1559  0.1345 -0.5320
35678SOL    HW118759   3.239   6.208   5.995  0.0795 -0.4376 -0.1256
35678SOL    HW218760   3.217   6.114   5.878  0.6881 -1.9041  0.9110
35679SOL     OW18761   1.220   9.419   4.810 -0.8354 -0.0750 -0.4402
35679SOL    HW118762   1.300   9.471   4.814 -0.4745 -0.5094 -1.5229
35679SOL    HW218763   1.153   9.475   4.848  0.2558 -0.3332  2.0618
35680SOL     OW18764  10.395  13.362   2.431  0.6905 -0.0452  0.0896
35680SOL    HW118765  10.460  13.292   2.427  0.0074 -0.6371 -1.6748
35680SOL    HW218766  10.318  13.321   2.471  0.7534  0.0979  0.3575
35681SOL     OW18767  12.128  11.532   3.627 -0.2963 -0.0260  0.2521
35681SOL    HW118768  12.063  11.543   3.696  0.2868  1.7008  0.5991
35681SOL    HW218769  12.081  11.547   3.545 -0.9098 -1.6957  0.2760
35682SOL     OW18770   6.708   4.936  13.164 -0.0922  0.4590 -0.1047
35682SOL    HW118771   6.776   4.903  13.222 -0.0954 -0.0695 -0.3957
35682SOL    HW218772   6.755   4.984  13.096 -0.0181  0.2232 -0.2214
35683SOL     OW18773   1.633   9.759  13.466  0.0006 -0.0957 -0.7376
35683SOL    HW118774   1.672   9.845  13.451 -1.3754  0.2785 -2.7111
35683SOL    HW218775   1.661   9.734  13.554 -0.9428  3.1562  0.6462
35684SOL     OW18776   5.087   4.325  11.263  0.3713 -0.7063  0.4787
35684SOL    HW118777   5.149   4.322  11.190 -0.6684 -0.6452 -0.4350
35684SOL    HW218778   5.135   4.286  11.336  2.9101  2.7914  0.9477
35685SOL     OW18779   5.914   2.892   5.658 -0.1092 -0.1550 -0.1774
35685SOL    HW118780   5.974   2.879   5.732  1.4210  2.1464 -0.8954
35685SOL    HW218781   5.865   2.971   5.682  0.3507  0.5704 -1.5222
35686SOL     OW18782   4.095   0.475  10.725  0.4584 -0.3278 -0.0990
35686SOL    HW118783   4.132   0.559  10.751 -2.1165  0.4486  1.3319
35686SOL    HW218784   4.114   0.469  10.631  1.1022  1.6060 -0.1420
35687SOL     OW18785   3.657  10.591   5.475 -0.4987  0.3064  0.1166
35687SOL    HW118786   3.634  10.502   5.446  1.0451 -0.4310  1.0282
35687SOL    HW218787   3.610  10.602   5.558  1.3705 -0.7687  1.4046
35688SOL     OW18788   7.351   5.084  11.270 -0.1254  0.4452 -0.5432
35688SOL    HW118789   7.433   5.036  11.257  0.2278 -0.1870  2.8941
35688SOL    HW218790   7.373   5.152  11.334 -1.7492  1.9665 -1.5120
35689SOL     OW18791   6.145   8.341  13.033 -0.3687  0.2109 -0.0738
35689SOL    HW118792   6.191   8.300  12.960  0.4367 -0.1189  0.5986
35689SOL    HW218793   6.071   8.387  12.993  0.4095  0.5469 -1.1499
35690SOL     OW18794   4.286   6.556  10.027 -0.3253  0.2965  0.5253
35690SOL    HW118795   4.216   6.515   9.976  0.4420 -0.9804  0.4470
35690SOL    HW218796   4.285   6.648  10.001 -0.0888 -0.2724 -1.6542
35691SOL     OW18797  12.902  13.623   7.453  0.0294  0.3800  0.2845
35691SOL    HW118798  12.978  13.654   7.502 -0.4842  1.4449  0.4303
35691SOL    HW218799  12.940  13.580   7.376  0.7876  0.3907  0.6361
35692SOL     OW18800  10.115   6.926   8.181 -0.0800  0.1416  0.5542
35692SOL    HW118801  10.068   6.864   8.236  0.0839 -0.8362 -0.3770
35692SOL    HW218802  10.060   7.004   8.180 -0.1110  0.1698  2.0355
35693SOL     OW18803   0.221   8.139  11.153  0.8310 -0.4158 -0.0485
35693SOL    HW118804   0.204   8.071  11.087 -2.3015  0.0709  0.0804
35693SOL    HW218805   0.183   8.104  11.234  1.5386  0.4121  0.6621
35694SOL     OW18806   4.585   0.623   1.164  0.0294  0.3381  0.3918
35694SOL    HW118807   4.555   0.631   1.255  1.8154 -0.2767  1.0907
35694SOL    HW218808   4.661   0.682   1.158  0.1714  0.0791 -0.5835
35695SOL     OW18809   3.804  11.546   9.705 -0.0195 -0.1333 -0.5322
35695SOL    HW118810   3.761  11.631   9.707  1.9994  0.9374  0.3643
35695SOL    HW218811   3.889  11.563   9.666  1.0954 -1.3619  1.1862
35696SOL     OW18812   3.405  10.096   9.281  0.7081  0.2950  0.3969
35696SOL    HW118813   3.438  10.112   9.193  0.1083  0.0314  0.1214
35696SOL    HW218814   3.358  10.177   9.304 -0.1632 -0.0837 -0.0050
35697SOL     OW18815  10.670  10.095   2.102  0.1164  0.1948  0.6610
35697SOL    HW118816  10.652  10.158   2.032  0.0943 -0.0257  0.4696
35697SOL    HW218817  10.705  10.149   2.174  0.7318  0.3444  0.2533
35698SOL     OW18818   4.236   9.748   2.758  0.1233 -0.2308 -0.3824
35698SOL    HW118819   4.302   9.800   2.711  0.0551  1.0682  0.9017
35698SOL    HW218820   4.220   9.673   2.700 -0.2633  1.4765 -2.6398
35699SOL     OW18821  13.550   5.233   0.227 -0.4241 -0.0908  0.5003
35699SOL    HW118822  13.599   5.194   0.156 -0.6746  0.4716  0.0071
35699SOL    HW218823  13.463   5.249   0.190 -0.3764  0.7675  0.7336
35700SOL     OW18824  11.704   1.362   2.869 -0.0801  0.2730 -0.4218
35700SOL    HW118825  11.735   1.416   2.941 -0.2394  0.9519 -0.8424
35700SOL    HW218826  11.616   1.335   2.895  0.2365 -0.2960  0.0598
35701SOL     OW18827   5.967  11.965   8.162  0.3060 -0.6139 -0.1574
35701SOL    HW118828   5.983  12.053   8.195  0.2506  0.5194 -2.8917
35701SOL    HW218829   5.872  11.953   8.170  0.5616 -1.5247  2.5467
35702SOL     OW18830  12.472   6.618   6.524  0.7210  0.1733 -0.1975
35702SOL    HW118831  12.447   6.549   6.463  3.3559 -0.0451 -1.1731
35702SOL    HW218832  12.391   6.641   6.569 -1.1420 -0.3808 -3.0186
35703SOL     OW18833   2.757   6.022   6.047 -0.7506 -0.0091  0.3890
35703SOL    HW118834   2.764   6.011   5.953 -0.5889  3.1228 -0.0823
35703SOL    HW218835   2.847   6.018   6.079 -0.6919  0.0867  0.2336
35704SOL     OW18836  11.826   5.978  10.840  0.9011  0.3028 -0.2776
35704SOL    HW118837  11.868   5.936  10.916  0.7742 -2.3519 -1.5427
35704SOL    HW218838  11.896   5.985  10.775  0.3135 -0.5074 -1.0221
35705SOL     OW18839  13.166  11.403  12.916  0.5974 -0.6390  0.2376
35705SOL    HW118840  13.162  11.498  12.909 -3.2283 -0.6057  0.4377
35705SOL    HW218841  13.169  11.372  12.825  1.4868 -0.3585  0.1637
35706SOL     OW18842   1.182   6.910   1.950 -0.0787  0.5698  0.5285
35706SOL    HW118843   1.122   6.866   1.889 -0.8616 -0.9497  2.3100
35706SOL    HW218844   1.175   7.003   1.926 -3.1874  0.4895  0.6252
35707SOL     OW18845   8.796   6.012   2.795  0.4954 -0.3178 -0.2070
35707SOL    HW118846   8.791   6.091   2.850  1.1721  0.1057 -0.7378
35707SOL    HW218847   8.879   5.971   2.820  1.4788  0.5830 -1.8082
35708SOL     OW18848   8.928  12.959   9.948  0.2816  0.0827  0.2448
35708SOL    HW118849   8.968  12.980  10.033 -0.1988  1.4482  0.1700
35708SOL    HW218850   8.930  12.864   9.943  0.1338 -0.0355  1.8829
35709SOL     OW18851  10.723   5.459   9.806  0.6080 -0.3090  0.0984
35709SOL    HW118852  10.701   5.552   9.815 -0.0974 -0.3745 -0.7916
35709SOL    HW218853  10.798   5.447   9.865  1.1039  0.9540 -0.2250
35710SOL     OW18854  12.961  12.198   9.498  0.1397 -0.3126 -0.2708
35710SOL    HW118855  12.940  12.105   9.492 -2.0129  0.1930 -1.7218
35710SOL    HW218856  12.897  12.233   9.559 -1.3801  0.7466 -2.3486
35711SOL     OW18857   2.090   9.573  12.704  0.5649  0.1749  0.5942
35711SOL    HW118858   2.146   9.496  12.716 -0.0601 -0.6052 -1.1511
35711SOL    HW218859   2.002   9.537  12.689  0.5283  1.0668 -1.8730
35712SOL     OW18860   6.215   9.013  10.573 -0.0309 -0.0485 -0.0645
35712SOL    HW118861   6.282   9.081  10.563 -0.8673  1.0624  1.4295
35712SOL    HW218862   6.134   9.056  10.548 -0.5151 -0.6412  0.4592
35713SOL     OW18863  12.938   7.935   4.923  0.0375 -0.3167  0.2368
35713SOL    HW118864  12.854   7.940   4.876 -1.2302  0.0691  2.4101
35713SOL    HW218865  12.934   8.007   4.986  1.2157 -1.4004  1.6204
35714SOL     OW18866  11.367   3.662   1.094  0.5106 -0.1711 -0.4126
35714SOL    HW118867  11.309   3.732   1.066  1.4097  0.7250 -0.1028
35714SOL    HW218868  11.366   3.666   1.190  1.8491  0.5446 -0.4041
35715SOL     OW18869   3.170  13.524  12.890 -0.3906 -0.0995  0.3458
35715SOL    HW118870   3.225  13.519  12.811 -2.7364  1.0637 -1.4856
35715SOL    HW218871   3.222  13.480  12.957  2.8467  1.0445 -1.1528
35716SOL     OW18872   4.015   1.880   0.576 -0.1440 -0.2843 -0.2455
35716SOL    HW118873   4.064   1.959   0.596 -0.5077  0.0368 -0.5967
35716SOL    HW218874   4.060   1.810   0.624 -0.5237  0.3191  1.0346
35717SOL     OW18875  10.686   6.110   2.413  0.0393  0.1104 -0.0629
35717SOL    HW118876  10.699   6.198   2.446 -0.0602  0.2796 -0.4618
35717SOL    HW218877  10.764   6.062   2.440  0.5388  0.5695 -0.6448
35718SOL     OW18878   1.858   5.792   5.724  0.2631  0.1780  0.0932
35718SOL    HW118879   1.936   5.799   5.669 -0.6770 -2.4142 -1.7616
35718SOL    HW218880   1.870   5.711   5.773 -1.7375 -0.9222 -1.1290
35719SOL     OW18881   5.470   0.227   0.792  0.0079 -0.4096 -0.1219
35719SOL    HW118882   5.511   0.245   0.876  1.5557  2.1072 -1.2912
35719SOL    HW218883   5.381   0.260   0.801  0.5083  0.8879  0.2067
35720SOL     OW18884   7.224   6.416   7.286  0.4543 -0.0947 -0.3518
35720SOL    HW118885   7.246   6.331   7.249 -3.1917  0.1090 -3.5790
35720SOL    HW218886   7.193   6.396   7.375  2.2523 -1.6844 -0.0251
35721SOL     OW18887  10.891   7.734  13.267 -0.7467 -0.1044  0.5563
35721SOL    HW118888  10.812   7.751  13.318 -0.0303  0.2930  1.5767
35721SOL    HW218889  10.963   7.747  13.330  0.2118  1.1825 -0.7585
35722SOL     OW18890   4.914   4.491  12.132 -0.1853  0.6039  0.1987
35722SOL    HW118891   4.898   4.398  12.112  2.6524  0.1958 -0.6294
35722SOL    HW218892   4.829   4.533  12.119 -1.6256 -1.8784  0.7895
35723SOL     OW18893   6.215   2.600   3.643 -0.3230  0.0155 -0.1082
35723SOL    HW118894   6.227   2.506   3.631 -1.8879 -0.6518  2.7038
35723SOL    HW218895   6.304   2.634   3.655  0.2533 -1.0803 -1.0335
35724SOL     OW18896   1.808   8.688   7.068 -0.5280  0.9036 -0.4351
35724SOL    HW118897   1.729   8.655   7.025 -0.2709 -0.0418 -0.2085
35724SOL    HW218898   1.877   8.627   7.043  0.0039  1.3679 -0.1333
35725SOL     OW18899   3.271   9.402   1.876  0.4005  0.2756 -0.0030
35725SOL    HW118900   3.350   9.412   1.929  1.1595  2.0414 -1.3638
35725SOL    HW218901   3.212   9.470   1.907  1.0442  1.6677 -1.6503
35726SOL     OW18902   5.819   1.865  12.559  0.3526 -0.6873 -0.3454
35726SOL    HW118903   5.799   1.954  12.531  0.7342 -0.4076  0.2339
35726SOL    HW218904   5.796   1.864  12.652 -1.3921 -1.7433 -0.7392
35727SOL     OW18905   8.448   4.329   6.820  0.5408  0.0716  0.5735
35727SOL    HW118906   8.408   4.334   6.733  0.1627  0.1708  0.7528
35727SOL    HW218907   8.475   4.418   6.840 -1.9764  0.6413  1.7729
35728SOL     OW18908   3.591   8.412   4.226 -0.0254 -0.1181  0.3279
35728SOL    HW118909   3.505   8.450   4.243  0.9993  1.5281  2.4597
35728SOL    HW218910   3.596   8.336   4.284  0.0127 -0.0848  0.3696
35729SOL     OW18911   0.738  11.895  11.031 -0.7030 -0.2862 -0.9348
35729SOL    HW118912   0.743  11.835  11.105 -1.4043  1.1801  0.3669
35729SOL    HW218913   0.663  11.864  10.979 -0.6716 -0.8848 -0.6305
35730SOL     OW18914  10.359   6.013   9.338  0.1705  0.3038  0.0352
35730SOL    HW118915  10.386   6.077   9.404  0.2804  0.1273  0.1608
35730SOL    HW218916  10.361   5.929   9.384 -0.9315  0.3256  0.1508
35731SOL     OW18917   9.515   6.252   6.978  0.7385  0.7494 -0.3211
35731SOL    HW118918   9.596   6.282   6.936  0.4494  0.2316 -1.2927
35731SOL    HW218919   9.504   6.310   7.053  0.6607  2.5245 -1.6241
35732SOL     OW18920  12.164   5.359   0.867  0.3974  0.4601  0.3372
35732SOL    HW118921  12.138   5.445   0.835 -0.1958  0.1252 -0.0889
35732SOL    HW218922  12.251   5.345   0.830  0.2637  0.6421 -0.0487
35733SOL     OW18923  10.224   3.914  10.017 -0.1589  0.0834 -0.4034
35733SOL    HW118924  10.202   3.849  10.083 -0.2347  0.6886  0.1710
35733SOL    HW218925  10.188   3.879   9.936  0.2654 -0.8443 -0.2040
35734SOL     OW18926   3.191  11.513  10.558  0.5887  0.0688 -0.6190
35734SOL    HW118927   3.152  11.426  10.551  0.5519  0.0578 -0.2977
35734SOL    HW218928   3.285  11.497  10.567  0.7955  0.1277 -2.3701
35735SOL     OW18929   2.872   9.687   8.247 -0.3704  0.6530 -0.0047
35735SOL    HW118930   2.894   9.625   8.316  1.7635 -0.2714 -1.4128
35735SOL    HW218931   2.911   9.769   8.275  1.2656  0.0669 -0.4694
35736SOL     OW18932   5.243   9.793  10.710  0.4261  0.6823 -0.1189
35736SOL    HW118933   5.157   9.799  10.669  0.9390  0.4106 -1.2817
35736SOL    HW218934   5.250   9.703  10.741  0.8078  0.3139 -1.2418
35737SOL     OW18935  10.802   3.305  10.409 -0.4054 -0.5122  0.7392
35737SOL    HW118936  10.819   3.254  10.488  1.5374 -0.6856  0.2580
35737SOL    HW218937  10.875   3.366  10.403 -0.0769 -1.0137 -1.2921
35738SOL     OW18938   2.348   2.211  10.089  0.2854 -0.2896 -0.5253
35738SOL    HW118939   2.265   2.178  10.055 -1.1589  1.3635  1.2160
35738SOL    HW218940   2.414   2.178  10.028 -1.7551 -0.6293 -2.6506
35739SOL     OW18941   8.571  11.614  12.574 -0.3142  0.2907 -0.4515
35739SOL    HW118942   8.478  11.628  12.593 -0.3447  0.2963 -0.6003
35739SOL    HW218943   8.583  11.520  12.579 -0.2516  0.3176 -0.0825
35740SOL     OW18944   9.484   1.495  13.665  0.6570  0.7352 -0.0918
35740SOL    HW118945   9.535   1.547  13.727  0.1682  1.1391 -0.0165
35740SOL    HW218946   9.400   1.482  13.710 -0.0798  1.8871 -1.0531
35741SOL     OW18947  11.261  12.039   7.844  0.2479  0.0803 -0.0189
35741SOL    HW118948  11.278  11.968   7.783  0.1703 -0.8321  0.9919
35741SOL    HW218949  11.255  11.997   7.930  1.3758  1.4239  0.7828
35742SOL     OW18950   8.412   1.448  10.927 -0.3843  0.2361  0.0247
35742SOL    HW118951   8.321   1.425  10.946  0.3018 -2.2019  0.7484
35742SOL    HW218952   8.461   1.415  11.003  1.1254  1.3829 -0.4132
35743SOL     OW18953   2.379   0.237  12.980  0.2252 -0.4373 -0.9872
35743SOL    HW118954   2.475   0.239  12.984  0.1840  0.0379  0.6561
35743SOL    HW218955   2.355   0.163  13.036 -0.3978  0.3719 -0.1660
35744SOL     OW18956   9.519   9.417   4.830 -0.0986  0.0188  0.0108
35744SOL    HW118957   9.458   9.345   4.851 -1.5100  1.9009  3.0902
35744SOL    HW218958   9.465   9.496   4.834  1.5766  1.4187 -2.3982
35745SOL     OW18959   7.335   7.664  11.069 -0.4110 -0.3310  0.5819
35745SOL    HW118960   7.306   7.738  11.016 -3.2641 -1.9058 -0.2703
35745SOL    HW218961   7.301   7.682  11.157 -0.9951 -0.5546  0.4049
35746SOL     OW18962   0.389  11.643   7.069 -0.3371  0.5280 -0.0984
35746SOL    HW118963   0.298  11.624   7.089 -0.7452  0.8267 -1.6024
35746SOL    HW218964   0.434  11.559   7.078 -1.5404 -0.6408 -3.5155
35747SOL     OW18965  13.655  12.547   0.688  0.0974 -0.7540 -0.3902
35747SOL    HW118966  13.726  12.559   0.751  0.1016 -0.6888 -0.4071
35747SOL    HW218967  13.588  12.497   0.736  1.3605 -3.4763 -1.2507
35748SOL     OW18968   0.131  13.034  10.453  0.2116 -0.3989 -0.1850
35748SOL    HW118969   0.176  13.034  10.537  0.1852  1.1100 -0.1465
35748SOL    HW218970   0.175  12.966  10.402  2.7226  1.1602 -0.2249
35749SOL     OW18971  11.126   4.547   0.139  0.1830 -0.4998  0.2286
35749SOL    HW118972  11.205   4.514   0.183  1.2125  2.3388  0.7599
35749SOL    HW218973  11.056   4.490   0.170  1.5730 -1.2918  2.1487
35750SOL     OW18974   5.577   4.646   9.843 -0.6475 -0.2491 -0.4798
35750SOL    HW118975   5.553   4.712   9.908  2.0646  0.4010 -0.0201
35750SOL    HW218976   5.493   4.616   9.808 -2.0877  1.3797  1.3144
35751SOL     OW18977   2.435   9.825  11.641 -0.5456 -0.0992  0.5403
35751SOL    HW118978   2.385   9.745  11.629 -0.2394 -0.0452 -1.4536
35751SOL    HW218979   2.380   9.894  11.603 -0.3489  0.4806  1.2801
35752SOL     OW18980   0.548  12.448  11.414 -0.1052 -0.0320 -0.0640
35752SOL    HW118981   0.620  12.498  11.453  0.4139 -0.2352 -0.7429
35752SOL    HW218982   0.562  12.358  11.443 -1.2625  0.2625  1.4785
35753SOL     OW18983   5.754  13.498   1.178  0.0806 -0.6160  0.0247
35753SOL    HW118984   5.846  13.472   1.175 -0.1427 -1.3758 -0.5897
35753SOL    HW218985   5.720  13.478   1.090 -0.4838  0.3626  0.0099
35754SOL     OW18986   6.097   9.334   5.502 -0.1946  0.0127  0.6278
35754SOL    HW118987   6.130   9.422   5.522  0.7609 -0.2831  0.3802
35754SOL    HW218988   6.006   9.336   5.532  0.2165  0.6400  1.9084
35755SOL     OW18989   1.822   4.371  11.838 -0.3767  0.1795 -0.5302
35755SOL    HW118990   1.738   4.326  11.852  0.9693 -2.6577 -0.7554
35755SOL    HW218991   1.873   4.350  11.915  0.1885  1.8382 -0.4254
35756SOL     OW18992   9.691  12.217   8.440  0.6132  0.3149  0.4566
35756SOL    HW118993   9.619  12.249   8.386 -0.7848 -2.8988  0.2139
35756SOL    HW218994   9.653  12.206   8.527  2.1708  2.9919  1.6077
35757SOL     OW18995  10.060  13.331   1.252  0.2401  0.0582 -0.1308
35757SOL    HW118996   9.992  13.291   1.306  0.2837 -1.5954 -1.1978
35757SOL    HW218997  10.095  13.258   1.200  2.0338  1.0754 -0.4455
35758SOL     OW18998   9.816  10.974  11.633  0.0413 -0.2745 -0.1340
35758SOL    HW118999   9.768  10.918  11.695  0.5299  0.3848  0.8596
35758SOL    HW219000   9.749  11.034  11.599  0.4519  2.2092  3.0053
35759SOL     OW19001   8.156  10.010   6.029 -0.9533  0.0072 -0.0724
35759SOL    HW119002   8.104   9.986   6.106  0.3913 -0.5771  0.6854
35759SOL    HW219003   8.243  10.031   6.064 -0.4943  0.3687 -1.3701
35760SOL     OW19004   3.940   2.039  11.574 -0.5578 -0.7721  0.1641
35760SOL    HW119005   3.847   2.051  11.555 -0.2938  1.6506  0.1215
35760SOL    HW219006   3.948   2.060  11.667  0.1544  0.4379 -0.1643
35761SOL     OW19007   1.559   2.249   7.359 -0.0574  0.0099  0.2489
35761SOL    HW119008   1.543   2.336   7.396 -1.7918 -0.0031 -0.4006
35761SOL    HW219009   1.472   2.214   7.340  0.6346 -1.6141 -0.1198
35762SOL     OW19010   1.762   0.429   4.147  0.7903 -0.0835 -0.0311
35762SOL    HW119011   1.786   0.352   4.097  4.0264  1.7199 -1.5289
35762SOL    HW219012   1.829   0.437   4.214  0.0674  1.0144  0.6080
35763SOL     OW19013   0.438   8.329   4.681  0.0068 -0.0623 -0.0589
35763SOL    HW119014   0.508   8.306   4.741  0.3723  2.1311  0.4230
35763SOL    HW219015   0.362   8.347   4.737 -1.0867 -2.5967 -0.5816
35764SOL     OW19016  10.416  10.291   1.181 -0.1251 -0.2657 -0.4425
35764SOL    HW119017  10.471  10.256   1.111  0.4264 -0.1792 -0.0649
35764SOL    HW219018  10.327  10.263   1.159  0.1047 -0.6215 -0.9351
35765SOL     OW19019   1.568   1.817  10.305  0.8941 -0.3324 -0.5302
35765SOL    HW119020   1.570   1.750  10.237  2.2889 -1.2788  0.3763
35765SOL    HW219021   1.521   1.776  10.377 -2.8413  1.5347 -1.6672
35766SOL     OW19022   5.622   3.769  12.611  0.4470 -0.1570 -0.3275
35766SOL    HW119023   5.651   3.858  12.591  0.7149 -0.3444 -0.7889
35766SOL    HW219024   5.641   3.759  12.704 -1.5540  1.0023  0.2763
35767SOL     OW19025  11.936  11.129   8.675 -0.1503 -0.4092  0.5206
35767SOL    HW119026  11.901  11.080   8.749  1.1568 -1.6878  0.3422
35767SOL    HW219027  12.028  11.103   8.670  0.0707  0.5058 -0.8679
35768SOL     OW19028   1.191  12.851   6.431 -0.2082 -0.3057 -0.4625
35768SOL    HW119029   1.139  12.773   6.412  1.1445 -0.8316 -2.2901
35768SOL    HW219030   1.243  12.865   6.352 -0.4406  2.5112 -0.2210
35769SOL     OW19031   1.611   5.348   1.975  0.1806  0.3646 -0.0110
35769SOL    HW119032   1.601   5.416   1.909 -0.5928 -0.9774 -1.3365
35769SOL    HW219033   1.691   5.302   1.950  0.2744  0.2863  0.4212
35770SOL     OW19034   1.426  10.949  12.535  0.3445 -0.0811 -0.1644
35770SOL    HW119035   1.341  10.933  12.577  0.5316 -1.1124 -0.1643
35770SOL    HW219036   1.490  10.936  12.605  0.7313 -2.7400 -0.9113
35771SOL     OW19037   6.423   0.317   4.301 -0.0564  0.1604 -0.0039
35771SOL    HW119038   6.344   0.353   4.259 -1.2510 -0.7008  1.4189
35771SOL    HW219039   6.441   0.377   4.373  0.4415  0.1979 -0.1569
35772SOL     OW19040   3.911  12.843  11.190  0.2460 -0.2493 -0.4697
35772SOL    HW119041   3.876  12.821  11.276 -0.8233 -0.9286 -1.0574
35772SOL    HW219042   3.950  12.930  11.201 -1.0120  0.2258  0.3934
35773SOL     OW19043   7.160   1.606   7.793 -0.7188 -0.1001  0.0004
35773SOL    HW119044   7.124   1.602   7.882  0.2941  1.1013  0.4851
35773SOL    HW219045   7.212   1.526   7.785  1.1523  0.8972  1.4081
35774SOL     OW19046  11.875   5.586   2.977  0.1085 -0.5853 -0.2984
35774SOL    HW119047  11.810   5.526   2.941 -0.6183  0.1771 -0.3098
35774SOL    HW219048  11.829   5.670   2.983  0.1580 -0.6556  2.4296
35775SOL     OW19049   6.464   8.592   4.260 -0.0724  0.1934  0.3547
35775SOL    HW119050   6.388   8.534   4.266 -0.2937  0.3381 -0.8616
35775SOL    HW219051   6.525   8.548   4.201  1.2553 -0.3896  2.0550
35776SOL     OW19052   9.882   0.282   6.036  0.3222  0.1917 -0.0202
35776SOL    HW119053   9.819   0.252   5.971  0.4887 -0.1359 -0.0341
35776SOL    HW219054   9.938   0.343   5.988  1.2703 -1.0527 -0.5478
35777SOL     OW19055   2.790  11.109   3.148 -0.4281 -0.2930  0.0305
35777SOL    HW119056   2.834  11.025   3.159  0.2016 -0.0030 -0.2295
35777SOL    HW219057   2.844  11.157   3.084 -0.2574  0.6593  0.8512
35778SOL     OW19058  12.673   2.253   9.030 -0.1214 -0.1721 -0.2730
35778SOL    HW119059  12.583   2.232   9.007 -0.1727  1.5456 -1.8563
35778SOL    HW219060  12.724   2.176   9.006 -1.2341 -1.5125  1.4674
35779SOL     OW19061  10.981  13.040   2.884  0.3306  0.3574 -0.0293
35779SOL    HW119062  11.039  13.115   2.895  2.4564 -1.1044 -0.7053
35779SOL    HW219063  10.946  13.023   2.971  1.2071  1.0737  0.4713
35780SOL     OW19064   3.785   1.505   0.256 -0.2068  0.2899 -0.9643
35780SOL    HW119065   3.778   1.415   0.288 -1.9802  0.8514  0.4302
35780SOL    HW219066   3.785   1.498   0.161 -0.9126 -1.1645 -0.8784
35781SOL     OW19067   9.079   1.042   0.691 -0.1328 -0.5364  0.1483
35781SOL    HW119068   9.030   1.112   0.734  0.3350  0.3234 -0.6597
35781SOL    HW219069   9.017   1.002   0.631  0.2450  0.9568 -1.3334
35782SOL     OW19070  10.363   1.293   1.223 -0.1740  0.3251  0.1784
35782SOL    HW119071  10.395   1.220   1.276 -1.1273  1.9782  3.3571
35782SOL    HW219072  10.401   1.371   1.264 -2.2363  1.8343 -0.5522
35783SOL     OW19073   1.857  11.144   0.730  0.0838  0.2323  0.0097
35783SOL    HW119074   1.950  11.130   0.747  0.3578  0.5434 -1.1486
35783SOL    HW219075   1.812  11.081   0.787  0.9963  0.0905  0.5854
35784SOL     OW19076   2.140   3.242  10.606  0.2884 -0.2275 -0.3642
35784SOL    HW119077   2.194   3.191  10.668  1.4699  1.7193  0.2972
35784SOL    HW219078   2.172   3.332  10.616 -0.3789  0.3501 -2.9035
35785SOL     OW19079  10.181   2.051   0.633 -0.0317 -0.1287 -0.3873
35785SOL    HW119080  10.106   1.993   0.618  1.1642 -2.5409  2.0641
35785SOL    HW219081  10.167   2.086   0.721  1.2418  0.0941 -0.2554
35786SOL     OW19082   2.120   9.458   0.445  0.0005  0.7665  0.0230
35786SOL    HW119083   2.148   9.381   0.395 -0.2172  0.8086 -0.1667
35786SOL    HW219084   2.192   9.520   0.436 -0.2422  0.9639 -0.6605
35787SOL     OW19085   0.943   7.546   2.574  0.1020  0.0260 -0.1008
35787SOL    HW119086   0.923   7.465   2.527  1.1077 -0.1039 -0.3248
35787SOL    HW219087   1.026   7.528   2.619 -1.3183 -0.2279  2.6369
35788SOL     OW19088   4.851   0.539   6.289 -0.1501  0.1552  0.6570
35788SOL    HW119089   4.813   0.576   6.368  0.3065 -1.5219  1.7064
35788SOL    HW219090   4.778   0.497   6.244 -0.3811  0.9818  0.2372
35789SOL     OW19091   1.845   3.708   4.414 -0.0576 -0.6853 -0.3664
35789SOL    HW119092   1.852   3.789   4.465  0.5171 -2.0245  1.8003
35789SOL    HW219093   1.920   3.711   4.355 -0.1140  0.4069 -0.4062
35790SOL     OW19094  11.456   5.944   6.490  0.4437 -0.1883  0.1565
35790SOL    HW119095  11.516   5.964   6.561  0.8654 -1.5089  0.1862
35790SOL    HW219096  11.452   5.849   6.487 -2.3260 -0.1879  0.7408
35791SOL     OW19097  12.706   7.768   1.750 -0.2873 -0.5161  0.4838
35791SOL    HW119098  12.627   7.718   1.766  1.1459 -3.1081 -0.0372
35791SOL    HW219099  12.756   7.761   1.831  0.4681 -0.9750 -0.0144
35792SOL     OW19100  12.721   0.862   2.514  0.6089  0.7838 -0.3137
35792SOL    HW119101  12.741   0.830   2.426 -0.0783  0.6320 -0.4216
35792SOL    HW219102  12.806   0.869   2.557  0.7847 -1.7302 -0.0969
35793SOL     OW19103   1.513  13.584   6.527 -0.2023 -0.3527 -0.4798
35793SOL    HW119104   1.424  13.554   6.546 -1.3585  1.5079 -2.5458
35793SOL    HW219105   1.542  13.624   6.609 -2.2884  1.2701 -0.4573
35794SOL     OW19106  10.544  10.982  13.518  0.5678  0.1390 -0.5780
35794SOL    HW119107  10.520  11.063  13.473 -0.2224 -0.1343 -0.6566
35794SOL    HW219108  10.509  10.912  13.463 -1.5828 -0.1779  1.0638
35795SOL     OW19109  13.707  10.267   3.621  0.0751  0.2311  0.1306
35795SOL    HW119110  13.649  10.195   3.596  2.2389 -0.8756 -2.1445
35795SOL    HW219111  13.770  10.228   3.681 -0.4871  1.0278  1.2815
35796SOL     OW19112   1.616  13.491   3.206 -0.1815 -0.2215  0.2049
35796SOL    HW119113   1.658  13.456   3.285  0.1699  1.0765  0.6301
35796SOL    HW219114   1.569  13.569   3.237 -0.1069  0.2562 -0.8463
35797SOL     OW19115   1.742   6.316   8.364 -0.0861 -0.1447 -0.3076
35797SOL    HW119116   1.712   6.357   8.283  0.7159 -0.1445 -0.6073
35797SOL    HW219117   1.695   6.233   8.367 -2.5633  1.1930  0.8505
35798SOL     OW19118   2.029  10.981   1.573 -0.0200 -0.5332 -0.0165
35798SOL    HW119119   2.112  10.970   1.526 -0.1542 -0.6437 -0.2295
35798SOL    HW219120   2.046  11.051   1.635  0.4008 -0.9298  0.3259
35799SOL     OW19121  12.879  12.171   1.507 -0.2694 -0.1043 -0.3448
35799SOL    HW119122  12.838  12.165   1.593 -1.8037 -0.7421 -1.0818
35799SOL    HW219123  12.961  12.217   1.523  0.0678 -1.2671  1.6491
35800SOL     OW19124  11.148   3.924  11.106  0.3237  0.6275 -0.2767
35800SOL    HW119125  11.222   3.935  11.047  0.9485 -0.2211  0.3368
35800SOL    HW219126  11.147   3.831  11.128 -1.0629  0.5792 -0.4480
35801SOL     OW19127   9.994   2.400   6.378 -0.7426  0.8139  0.3261
35801SOL    HW119128   9.946   2.415   6.297 -0.2952  1.9954  0.2609
35801SOL    HW219129  10.016   2.488   6.410 -1.2951  0.4102  1.9535
35802SOL     OW19130  13.371   4.129   8.631 -0.2863 -0.0998  0.3344
35802SOL    HW119131  13.380   4.218   8.598  0.1040 -0.3377 -0.2287
35802SOL    HW219132  13.423   4.128   8.711  0.6445 -0.1034 -0.2428
35803SOL     OW19133   1.789  12.718   6.084 -0.2529  0.3964 -0.5383
35803SOL    HW119134   1.783  12.806   6.121  0.2430 -0.5326  1.9633
35803SOL    HW219135   1.817  12.732   5.994 -1.3211  2.8291 -0.5653
35804SOL     OW19136   7.656   4.432  10.393 -0.4026 -0.2598 -0.4291
35804SOL    HW119137   7.750   4.442  10.383 -0.3814  0.0990  0.0989
35804SOL    HW219138   7.645   4.347  10.436 -0.2132  0.4674  1.1069
35805SOL     OW19139   1.949  10.143  13.386 -0.1384 -0.3580 -0.0796
35805SOL    HW119140   1.965  10.238  13.392  0.5702 -0.5049  0.4546
35805SOL    HW219141   2.031  10.107  13.351 -0.7800 -0.6637 -1.3228
35806SOL     OW19142   5.247  10.485   0.372 -0.6981  0.1023  0.5452
35806SOL    HW119143   5.207  10.507   0.457 -3.5903 -0.2674 -0.5956
35806SOL    HW219144   5.291  10.566   0.346  0.8083  0.0453  2.6055
35807SOL     OW19145  10.754   1.108   2.876  0.1614 -1.3626 -0.2107
35807SOL    HW119146  10.846   1.082   2.866  0.1114 -1.6298  0.0045
35807SOL    HW219147  10.719   1.048   2.942 -0.1208 -1.1401 -0.1563
35808SOL     OW19148   0.724   5.762   4.762 -0.4638 -0.2324 -0.2673
35808SOL    HW119149   0.641   5.718   4.779 -0.4973 -0.5023 -1.0870
35808SOL    HW219150   0.766   5.710   4.693 -1.4430  2.1320 -2.8362
35809SOL     OW19151  10.850  12.241   8.804  0.5460  0.0234 -0.7177
35809SOL    HW119152  10.767  12.250   8.850  0.5955  0.2247 -0.6685
35809SOL    HW219153  10.916  12.274   8.864  0.6741 -0.2212 -0.7209
35810SOL     OW19154   5.818   6.909  10.728 -0.0241 -0.2516 -0.2267
35810SOL    HW119155   5.862   6.981  10.774 -0.7845 -1.7114  3.0981
35810SOL    HW219156   5.750   6.952  10.676  1.7012  1.6048 -1.1010
35811SOL     OW19157  12.079   9.818   0.071 -0.8018  0.0461 -0.6284
35811SOL    HW119158  12.001   9.763   0.079 -0.4026 -0.3143  1.7304
35811SOL    HW219159  12.150   9.765   0.109 -0.0150  1.4483 -0.0589
35812SOL     OW19160   5.182  10.180   4.481  0.4271 -0.4962  0.1262
35812SOL    HW119161   5.131  10.229   4.546 -1.8683 -1.9790 -0.4116
35812SOL    HW219162   5.153  10.215   4.396 -0.0333 -1.6179 -0.2031
35813SOL     OW19163   2.514  12.558  12.321  0.6099 -0.3715  0.1708
35813SOL    HW119164   2.547  12.647  12.334 -0.4763  0.1091 -0.2505
35813SOL    HW219165   2.523  12.517  12.406  0.8574  0.2377  0.4467
35814SOL     OW19166   9.919  12.824  12.861  0.0470 -0.4624 -0.4535
35814SOL    HW119167   9.834  12.803  12.822 -0.0219 -1.0096 -0.0233
35814SOL    HW219168   9.947  12.742  12.902  1.8179 -0.9373 -2.4448
35815SOL     OW19169  10.756  10.278   3.079  0.4781  0.0803  0.1769
35815SOL    HW119170  10.722  10.189   3.070  1.1841 -0.3036  1.1649
35815SOL    HW219171  10.780  10.303   2.990 -0.4399 -0.4230 -0.2210
35816SOL     OW19172  10.900   9.475  11.544  0.3162 -0.4515 -0.2316
35816SOL    HW119173  10.844   9.547  11.571  1.1901 -0.0838  0.6856
35816SOL    HW219174  10.849   9.427  11.479 -0.1542  1.1773 -1.1200
35817SOL     OW19175   7.445  11.263   1.527 -0.1696  0.4498 -0.2132
35817SOL    HW119176   7.364  11.233   1.567 -2.3357  2.4274 -2.7468
35817SOL    HW219177   7.465  11.345   1.572  0.9637 -0.4393  0.9672
35818SOL     OW19178   4.504   4.235   0.154  0.2836 -0.2899 -0.5162
35818SOL    HW119179   4.440   4.304   0.134  1.5461  0.9653 -0.4278
35818SOL    HW219180   4.462   4.154   0.127 -0.9998  0.5943 -1.2679
35819SOL     OW19181   1.617  12.169  13.382 -0.1898  0.1038  0.0986
35819SOL    HW119182   1.536  12.178  13.331  1.7183 -0.5289 -3.3219
35819SOL    HW219183   1.607  12.085  13.428 -1.1945 -0.2946 -0.8046
35820SOL     OW19184   8.303   9.132   5.760 -0.2394 -0.1262 -0.2951
35820SOL    HW119185   8.236   9.174   5.815  0.3050 -0.6571  0.7963
35820SOL    HW219186   8.283   9.039   5.765 -1.4174 -0.0901 -2.6850
35821SOL     OW19187  10.970   8.750   8.715  0.2375  0.3750 -0.0867
35821SOL    HW119188  10.911   8.727   8.787  0.7595 -1.4151 -0.1965
35821SOL    HW219189  10.910   8.773   8.643 -0.5061 -2.9155 -0.6998
35822SOL     OW19190   7.658  13.501   8.871  0.4905  0.7668  0.0275
35822SOL    HW119191   7.636  13.593   8.862 -1.5628  0.3281  0.1395
35822SOL    HW219192   7.574  13.455   8.868  1.4802 -1.1387 -0.3942
35823SOL     OW19193  12.252   6.081   6.704 -0.3457 -0.0149  0.2588
35823SOL    HW119194  12.267   6.175   6.692 -1.0883  0.1291  0.4156
35823SOL    HW219195  12.334   6.048   6.741  0.1485  0.4517 -0.3876
35824SOL     OW19196   0.431   3.922  13.372 -0.2307 -0.3192  0.2711
35824SOL    HW119197   0.439   3.979  13.296 -0.6578  0.7808  1.0236
35824SOL    HW219198   0.491   3.850  13.354  1.8058  1.3068  0.1199
35825SOL     OW19199   9.584  13.035   9.197 -0.1146 -0.0096  0.0783
35825SOL    HW119200   9.642  13.077   9.134  0.0032 -1.7701 -1.0685
35825SOL    HW219201   9.602  12.941   9.187 -2.4534 -0.5549  0.3646
35826SOL     OW19202   1.355   5.948   0.695  0.1419  0.5957  0.1487
35826SOL    HW119203   1.286   5.944   0.762  0.6264  2.1492  0.8005
35826SOL    HW219204   1.434   5.972   0.744  0.5318  1.6552 -0.9524
35827SOL     OW19205   5.933   1.404   5.562 -0.5284  0.1412  0.5896
35827SOL    HW119206   5.971   1.460   5.630  2.3282 -0.6906 -0.1940
35827SOL    HW219207   5.873   1.461   5.514  1.8294  2.4317  0.1673
35828SOL     OW19208   5.461   7.849  11.279 -0.3241 -0.1087  0.1876
35828SOL    HW119209   5.483   7.886  11.193  0.5396  0.3252  0.5917
35828SOL    HW219210   5.538   7.865  11.333 -0.1656 -1.9257  0.5688
35829SOL     OW19211   6.169   1.925   2.363  0.3064 -0.1991  0.1649
35829SOL    HW119212   6.258   1.952   2.385  0.1648 -0.6156  1.3215
35829SOL    HW219213   6.112   1.981   2.417 -0.2182  1.0080 -1.5508
35830SOL     OW19214   8.381   8.862   8.123  0.0727 -0.2849  0.0824
35830SOL    HW119215   8.465   8.875   8.168  1.2862  1.2858 -2.4696
35830SOL    HW219216   8.391   8.777   8.080 -0.6930 -1.3022  1.8208
35831SOL     OW19217  10.401   7.425   4.202  0.0807 -0.1842  0.2294
35831SOL    HW119218  10.486   7.469   4.215 -0.0868  0.1260  0.2750
35831SOL    HW219219  10.418   7.334   4.226  0.4713 -0.1803 -0.0193
35832SOL     OW19220   1.139   7.422  12.846  0.7606  0.0343  0.1057
35832SOL    HW119221   1.184   7.373  12.916 -0.5416 -2.3656 -0.6029
35832SOL    HW219222   1.205   7.434  12.779  1.6059  0.9743  1.0591
35833SOL     OW19223  11.009   3.479  10.432  0.2343 -0.5049 -0.2132
35833SOL    HW119224  11.057   3.433  10.501 -0.3248 -1.0099 -0.1560
35833SOL    HW219225  11.009   3.571  10.459  1.5664 -0.4126 -0.4455
35834SOL     OW19226   2.917   7.491   5.828  0.7056  0.3542 -0.1001
35834SOL    HW119227   2.885   7.410   5.787  0.8344  0.3731 -0.2398
35834SOL    HW219228   2.996   7.513   5.777  0.8374  0.4059  0.1274
35835SOL     OW19229   0.163   3.778   4.013 -0.0180  0.1909  0.0498
35835SOL    HW119230   0.121   3.707   3.963  0.3957 -0.5166  0.6928
35835SOL    HW219231   0.233   3.735   4.061  0.1464  1.0214  0.5625
35836SOL     OW19232   4.525   5.575  12.707 -0.3969  0.1720  0.5016
35836SOL    HW119233   4.581   5.497  12.703  1.8528  1.7041  0.5741
35836SOL    HW219234   4.450   5.548  12.760 -0.1913 -2.2111 -0.2946
35837SOL     OW19235   7.816   1.315   1.958 -0.0471 -1.1838 -0.0544
35837SOL    HW119236   7.746   1.376   1.980  1.5392  0.8361 -0.2961
35837SOL    HW219237   7.827   1.262   2.037  1.4926  1.9251  2.0276
35838SOL     OW19238   5.053  11.820   3.236  0.2406 -0.0333  0.0440
35838SOL    HW119239   5.051  11.754   3.167 -2.1794 -0.3065  0.2920
35838SOL    HW219240   5.134  11.802   3.284  0.3448 -1.8982 -0.7610
35839SOL     OW19241  11.329  10.695   8.234  0.2668 -0.3359  0.2427
35839SOL    HW119242  11.356  10.604   8.219  1.4335  0.2036 -1.1754
35839SOL    HW219243  11.258  10.689   8.297  0.7800 -2.1847  0.7022
35840SOL     OW19244   6.688  10.910   5.242  0.2693  0.5876  0.4057
35840SOL    HW119245   6.619  10.846   5.262 -0.1651  1.3262  1.3760
35840SOL    HW219246   6.744  10.910   5.319  0.6448  0.9076  0.1370
35841SOL     OW19247  10.908   1.958   2.512  0.2513 -0.3514 -0.3805
35841SOL    HW119248  11.004   1.963   2.510  0.2201  2.0575  0.6195
35841SOL    HW219249  10.879   2.038   2.469 -1.3165 -0.6976 -0.0288
35842SOL     OW19250   3.902   9.491  12.311  0.8466  0.0171  0.0512
35842SOL    HW119251   3.890   9.520  12.221  0.4927  0.0222  0.0947
35842SOL    HW219252   3.975   9.543  12.344  1.2973 -0.3359 -0.3774
35843SOL     OW19253   9.014  13.286   5.558 -0.1626  0.2786 -0.1923
35843SOL    HW119254   9.008  13.202   5.513 -0.7232 -0.8789  1.8800
35843SOL    HW219255   9.108  13.299   5.572  0.0227  0.7022 -1.7043
35844SOL     OW19256  10.813   2.399   9.411  0.1111 -0.0030 -0.0936
35844SOL    HW119257  10.840   2.340   9.341 -0.3482 -0.6249  0.2474
35844SOL    HW219258  10.718   2.409   9.399 -0.1506 -0.8902  0.9981
35845SOL     OW19259  10.597  11.761   8.510 -0.0568  0.4496 -0.2741
35845SOL    HW119260  10.589  11.766   8.415  1.2002  1.0796 -0.3616
35845SOL    HW219261  10.547  11.836   8.543 -2.0849 -0.8016 -0.2961
35846SOL     OW19262   4.726  11.882   0.684 -0.2989  0.3261 -0.0807
35846SOL    HW119263   4.752  11.971   0.709  0.7083  0.9457 -2.9608
35846SOL    HW219264   4.640  11.871   0.724  0.3703  1.7970  1.9813
35847SOL     OW19265  12.143   5.387   2.412 -0.3576  0.1955 -0.0909
35847SOL    HW119266  12.118   5.479   2.411 -1.4122 -0.0612 -2.1164
35847SOL    HW219267  12.237   5.388   2.393 -0.2950  0.8564  0.2138
35848SOL     OW19268   8.825   9.006   5.456  0.1507 -1.2078  0.6376
35848SOL    HW119269   8.802   9.073   5.521  0.5009 -1.0760  0.6276
35848SOL    HW219270   8.768   9.024   5.382  1.0499 -0.1856  0.1703
35849SOL     OW19271   1.420  11.528  12.218 -0.3218 -0.0999  0.1425
35849SOL    HW119272   1.419  11.621  12.241 -1.4285 -0.6489  2.6540
35849SOL    HW219273   1.340  11.516  12.165  0.7059  0.6275 -1.6734
35850SOL     OW19274  12.577  10.964   7.192  0.4629  0.5249 -0.1205
35850SOL    HW119275  12.625  10.942   7.111  4.3744 -0.4861  2.1965
35850SOL    HW219276  12.572  10.881   7.239 -1.6710  1.1098  0.7730
35851SOL     OW19277   3.982  12.130   1.104  0.2306 -0.2454 -0.9898
35851SOL    HW119278   3.933  12.116   1.023 -2.3766  1.9811  0.0095
35851SOL    HW219279   3.966  12.051   1.156 -2.0995  0.2167 -0.8801
35852SOL     OW19280   5.978   8.732   1.256  0.0124  0.3210 -0.0445
35852SOL    HW119281   5.944   8.732   1.346  0.5313 -0.9092  0.1787
35852SOL    HW219282   6.071   8.753   1.266  0.4581 -1.4865 -0.0903
35853SOL     OW19283   0.267   5.453   9.222  0.2067 -0.8801 -0.1412
35853SOL    HW119284   0.191   5.457   9.280  0.6763 -1.5455  0.5401
35853SOL    HW219285   0.342   5.466   9.280  0.5935  0.3580 -0.8883
35854SOL     OW19286   1.485   4.263  10.064  0.3576 -0.5911 -0.4115
35854SOL    HW119287   1.413   4.293  10.119 -0.1361 -0.6783 -0.9918
35854SOL    HW219288   1.541   4.213  10.123  0.4848  0.3324  0.2689
35855SOL     OW19289   7.040   3.361  10.340  0.1273  0.7267  0.3226
35855SOL    HW119290   6.952   3.340  10.308  0.2973 -0.1463  0.3996
35855SOL    HW219291   7.033   3.451  10.373 -0.5017  0.9981 -0.5030
35856SOL     OW19292   1.692   7.372   7.187 -0.3615 -0.0077 -0.1874
35856SOL    HW119293   1.644   7.409   7.112 -1.1196 -1.8555 -0.6801
35856SOL    HW219294   1.745   7.445   7.220  0.5812  0.6844 -2.9759
35857SOL     OW19295   2.473  12.563   5.700  0.4486  0.3518  0.0925
35857SOL    HW119296   2.462  12.631   5.633  1.0127 -0.2698 -0.6463
35857SOL    HW219297   2.384  12.541   5.726  0.1023 -0.5643 -1.6634
35858SOL     OW19298  12.891   9.815   8.537 -0.1408 -0.2602 -0.0802
35858SOL    HW119299  12.815   9.829   8.480  0.8036  0.9793 -1.0997
35858SOL    HW219300  12.941   9.896   8.530  1.1299 -0.9350  0.8185
35859SOL     OW19301  10.214  10.199   6.949  0.9296 -0.4379  0.3315
35859SOL    HW119302  10.212  10.104   6.942  1.5443 -0.6287  2.1549
35859SOL    HW219303  10.293  10.218   6.999  1.6159  1.1581 -1.2576
35860SOL     OW19304   3.398   4.724   5.857  0.7232  0.6873 -0.7562
35860SOL    HW119305   3.471   4.679   5.815 -0.2974 -0.1755 -1.6638
35860SOL    HW219306   3.390   4.681   5.942  0.4035 -0.1979 -1.2135
35861SOL     OW19307   9.941   3.240  11.115 -0.6872 -0.1348  0.0634
35861SOL    HW119308   9.958   3.179  11.043  0.6084  0.3634 -0.0770
35861SOL    HW219309   9.935   3.185  11.192  1.0774 -0.4238  0.0321
35862SOL     OW19310   2.766   0.429   7.551  0.6264 -0.3403  0.0870
35862SOL    HW119311   2.704   0.405   7.481 -0.0721 -0.1103  0.6160
35862SOL    HW219312   2.742   0.519   7.573  1.6352  0.0076 -0.2033
35863SOL     OW19313  11.293   6.218   3.834  0.5896  0.2879 -0.0675
35863SOL    HW119314  11.202   6.191   3.844  0.5066  0.3179 -0.7268
35863SOL    HW219315  11.289   6.300   3.786  0.9182  0.8113  0.7724
35864SOL     OW19316   4.964   7.156   7.892 -0.2367 -0.0114 -0.4352
35864SOL    HW119317   4.982   7.171   7.985  0.2639  2.1696 -0.8183
35864SOL    HW219318   4.932   7.066   7.888 -2.5381  0.5453  2.1935
35865SOL     OW19319   8.816   6.296   8.432  0.4496  0.2010  0.2878
35865SOL    HW119320   8.721   6.308   8.441  0.6074  1.2104  0.7235
35865SOL    HW219321   8.852   6.325   8.516  1.1891  0.3172 -0.0640
35866SOL     OW19322   9.205   5.788   9.011 -0.1416  0.4151 -0.2268
35866SOL    HW119323   9.267   5.729   9.054 -1.5482 -0.4104  0.7484
35866SOL    HW219324   9.186   5.855   9.077 -1.0988  0.0364 -0.0985
35867SOL     OW19325   1.252  10.500   0.772 -0.4188 -0.6048  0.5171
35867SOL    HW119326   1.188  10.473   0.838  0.9336 -0.6495  1.8521
35867SOL    HW219327   1.314  10.554   0.819  0.7485 -0.8656 -0.6670
35868SOL     OW19328   1.454   4.973  10.628  0.5368  0.4938  0.2073
35868SOL    HW119329   1.381   5.036  10.636 -0.5548 -0.3682 -2.2511
35868SOL    HW219330   1.529   5.020  10.666 -1.0582  1.7228  2.1049
35869SOL     OW19331   6.389  11.399   4.609  0.1394 -0.0330  0.2828
35869SOL    HW119332   6.469  11.426   4.564  0.0068 -0.5684 -0.2846
35869SOL    HW219333   6.420  11.347   4.683  0.3822  1.4099  1.2298
35870SOL     OW19334   6.722   1.090   9.318  0.1368 -0.6033 -0.0324
35870SOL    HW119335   6.710   1.032   9.243 -0.5415  0.9485 -1.1735
35870SOL    HW219336   6.634   1.118   9.341  0.4645  0.1315  0.3601
35871SOL     OW19337   3.922   9.076  12.939  0.1871  0.7309  0.6146
35871SOL    HW119338   3.919   9.003  13.001 -1.9404 -0.1290 -0.4313
35871SOL    HW219339   3.994   9.053  12.880  1.7187  1.1708  2.1925
35872SOL     OW19340   3.489   3.865  10.530  0.0208  0.7789 -0.0567
35872SOL    HW119341   3.534   3.866  10.446  0.4595 -0.3419  0.1411
35872SOL    HW219342   3.404   3.824  10.512 -0.1258  1.0815 -0.0614
35873SOL     OW19343   6.327  10.470  11.805  0.7837  0.1025 -0.2315
35873SOL    HW119344   6.353  10.383  11.774  0.1658  0.5858 -2.2742
35873SOL    HW219345   6.349  10.471  11.898 -2.9075 -3.7268  0.9888
35874SOL     OW19346   1.498   3.338   3.580 -0.3291 -0.1443 -0.4375
35874SOL    HW119347   1.449   3.292   3.648  0.6591 -1.5146 -0.6161
35874SOL    HW219348   1.432   3.359   3.514 -0.8993 -0.8295 -0.1072
35875SOL     OW19349  11.275   0.200   5.484 -0.1015 -0.0243 -0.1680
35875SOL    HW119350  11.256   0.256   5.559 -2.4169 -1.6312  0.5659
35875SOL    HW219351  11.336   0.134   5.518 -0.0967  0.0198 -0.0904
35876SOL     OW19352   4.688   3.180   3.191 -0.3988 -0.3566  0.0839
35876SOL    HW119353   4.748   3.234   3.242  0.6500 -1.5858  0.2181
35876SOL    HW219354   4.602   3.217   3.207  0.2779  1.2682  0.1408
35877SOL     OW19355  13.394  11.940   4.560  0.0744  0.4817 -0.4495
35877SOL    HW119356  13.374  11.860   4.512  0.3033  0.8058 -1.0978
35877SOL    HW219357  13.484  11.928   4.590 -0.3913 -0.1375  0.7651
35878SOL     OW19358  12.931  10.002   1.791 -0.2574 -0.1530 -0.3769
35878SOL    HW119359  12.946  10.057   1.867 -0.9531 -0.1182 -0.2560
35878SOL    HW219360  12.899  10.062   1.723  0.9398 -0.0880 -0.8932
35879SOL     OW19361  13.527  11.375   9.781  0.4026  0.2675 -0.3464
35879SOL    HW119362  13.611  11.345   9.816 -0.5754 -0.6125  1.3859
35879SOL    HW219363  13.507  11.314   9.710 -0.7572 -2.3221  2.0295
35880SOL     OW19364  12.821   9.842   7.286  0.0284  0.0941 -0.4492
35880SOL    HW119365  12.816   9.898   7.363 -0.1929  1.0323 -1.1403
35880SOL    HW219366  12.874   9.768   7.314 -1.4331 -0.4275  1.1205
35881SOL     OW19367   7.778   7.457   7.991  0.0466 -0.2126  0.2239
35881SOL    HW119368   7.780   7.459   7.895 -1.7820  1.9293  0.1276
35881SOL    HW219369   7.774   7.549   8.017 -0.0919 -0.7529  2.3420
35882SOL     OW19370  12.641   6.163   7.439 -0.1451  0.0828 -0.1424
35882SOL    HW119371  12.683   6.078   7.424 -0.7508 -0.1382 -0.6467
35882SOL    HW219372  12.699   6.208   7.500  0.0493 -0.7973  0.3426
35883SOL     OW19373  10.365   6.730   3.587 -0.2846 -0.4332 -0.0354
35883SOL    HW119374  10.438   6.735   3.648  0.8950 -2.4973 -1.1705
35883SOL    HW219375  10.400   6.766   3.505 -1.3323  0.7943  0.0204
35884SOL     OW19376   9.016   8.302   1.982  0.2400  0.2639 -0.0396
35884SOL    HW119377   9.098   8.349   1.971  1.3559 -1.4081  0.7286
35884SOL    HW219378   9.033   8.241   2.054 -1.1252 -1.2935 -0.9666
35885SOL     OW19379   0.723  10.335  11.175  0.2055 -0.2130  0.0853
35885SOL    HW119380   0.721  10.375  11.088 -1.0553 -2.5582 -1.0558
35885SOL    HW219381   0.678  10.398  11.231  1.6055  1.6467 -0.7481
35886SOL     OW19382   1.722  10.760   2.047  0.4970  0.2187  0.7586
35886SOL    HW119383   1.650  10.697   2.042 -0.7277  1.6105 -0.2768
35886SOL    HW219384   1.776  10.741   1.970  1.0624 -0.6187  1.3565
35887SOL     OW19385   4.723   9.523   3.987  0.4175  0.0683  0.0695
35887SOL    HW119386   4.703   9.451   4.048  1.1370 -0.0075  0.2279
35887SOL    HW219387   4.662   9.510   3.915 -1.7682  1.2602  1.5928
35888SOL     OW19388  10.931   9.278   0.880 -0.3170 -0.8344 -0.1418
35888SOL    HW119389  10.975   9.226   0.947  0.6572 -0.6650 -0.6369
35888SOL    HW219390  10.855   9.316   0.925  0.2769 -0.7859  0.8456
35889SOL     OW19391  11.160   6.634  12.053 -0.0153 -0.1323 -0.0354
35889SOL    HW119392  11.084   6.619  12.109  1.0520  0.3165  1.6106
35889SOL    HW219393  11.148   6.723  12.020  0.2798  0.3209  1.0445
35890SOL     OW19394   4.923   0.330   5.873 -0.3668 -0.1859 -0.0697
35890SOL    HW119395   4.923   0.420   5.906  1.0676  0.7749 -2.4269
35890SOL    HW219396   5.014   0.300   5.885 -0.1475 -0.2909 -1.7373
35891SOL     OW19397   8.030   9.593   8.884  0.4658  0.2858  0.2147
35891SOL    HW119398   8.045   9.648   8.961 -0.2460  1.4328 -0.4391
35891SOL    HW219399   8.098   9.620   8.822 -1.5064  2.4964 -1.1598
35892SOL     OW19400   0.098   1.528   2.111 -0.7156 -0.8422  0.0826
35892SOL    HW119401   0.114   1.458   2.174  0.7073 -1.1596 -0.6054
35892SOL    HW219402   0.086   1.484   2.027 -1.7592 -0.3662 -0.0406
35893SOL     OW19403   6.933   1.769   3.780  0.1268  0.4403 -0.0667
35893SOL    HW119404   6.983   1.700   3.737 -0.7483 -0.1339 -0.1930
35893SOL    HW219405   6.843   1.755   3.751 -0.5533 -0.1210  2.1080
35894SOL     OW19406   0.092  10.779  12.448  0.3073 -0.1117  0.4026
35894SOL    HW119407   0.091  10.760  12.355  0.1802 -0.9142  0.5616
35894SOL    HW219408  -0.000  10.774  12.475  0.3376  0.1600  0.5645
35895SOL     OW19409   1.107   7.405   7.651  0.2542 -0.1478 -0.7279
35895SOL    HW119410   1.070   7.484   7.611  0.1646 -0.8397 -2.0850
35895SOL    HW219411   1.167   7.438   7.718 -1.1481  1.0341  0.0119
35896SOL     OW19412   3.227  11.362   5.952  0.6780  0.3257 -0.4058
35896SOL    HW119413   3.217  11.276   5.994  1.6282  0.4282  0.0702
35896SOL    HW219414   3.175  11.422   6.005  0.1993  0.0893 -0.6028
35897SOL     OW19415  12.756   3.878   7.905 -0.1683  0.1575 -0.0388
35897SOL    HW119416  12.707   3.944   7.954  1.6557  2.0753 -0.6271
35897SOL    HW219417  12.821   3.845   7.966  1.3367  1.6908 -0.7278
35898SOL     OW19418   6.814   5.697  12.814 -0.4970 -0.0264 -0.5715
35898SOL    HW119419   6.784   5.614  12.853 -1.5373  0.2681 -0.7024
35898SOL    HW219420   6.787   5.764  12.877  2.1594  0.1174  0.5598
35899SOL     OW19421  13.132  12.894   9.684  0.4019  0.2366  0.6018
35899SOL    HW119422  13.132  12.802   9.708  0.3194  0.0777  0.0198
35899SOL    HW219423  13.196  12.900   9.613  1.9216  1.0012  1.9654
35900SOL     OW19424  12.547   0.629   0.574 -0.1602 -0.1652 -0.0382
35900SOL    HW119425  12.574   0.585   0.655 -0.6600  1.0095  0.8032
35900SOL    HW219426  12.452   0.631   0.579 -0.1395  1.5171  0.2641
35901SOL     OW19427   4.435   4.510   6.122 -0.4083 -0.0759 -0.3131
35901SOL    HW119428   4.448   4.416   6.113 -0.4238 -0.0247 -0.8852
35901SOL    HW219429   4.426   4.542   6.032 -1.4297  0.3206 -0.0900
35902SOL     OW19430   1.145  12.178   4.718 -0.2166  0.4966  0.6310
35902SOL    HW119431   1.126  12.268   4.690 -0.9076  0.4122  0.8113
35902SOL    HW219432   1.182  12.136   4.640  0.6610  1.0887  0.7007
35903SOL     OW19433   1.649   5.767   2.407  0.0646  0.1243  0.1130
35903SOL    HW119434   1.582   5.808   2.353 -0.1669  1.4430  1.3294
35903SOL    HW219435   1.608   5.687   2.439  0.3652 -0.9195 -1.9489
35904SOL     OW19436   1.239   5.611   6.822  0.7269 -0.3735  0.3005
35904SOL    HW119437   1.273   5.647   6.904  0.7913  0.4363 -0.0769
35904SOL    HW219438   1.169   5.671   6.797  0.6242 -0.6900 -0.1787
35905SOL     OW19439   3.808   7.573  13.290  0.2288  0.1581  0.1430
35905SOL    HW119440   3.773   7.629  13.222 -1.2442 -0.1319  0.6332
35905SOL    HW219441   3.857   7.505  13.243 -2.3033 -1.1402 -0.8018
35906SOL     OW19442   2.798   7.140  11.547 -0.6692 -0.4819  0.0393
35906SOL    HW119443   2.835   7.227  11.558  1.2509 -1.4205  1.6222
35906SOL    HW219444   2.756   7.142  11.461  0.4255  1.6044 -0.5017
35907SOL     OW19445   6.743  13.735   8.038 -0.4696 -0.5337 -0.2351
35907SOL    HW119446   6.788  13.650   8.045 -0.3698 -0.4984 -0.4362
35907SOL    HW219447   6.801  13.789   7.985  0.7641  0.5452  2.0885
35908SOL     OW19448   6.438   1.367  13.523 -0.0483  0.3499  0.0132
35908SOL    HW119449   6.480   1.407  13.447  2.2190 -1.6200  0.1019
35908SOL    HW219450   6.511   1.339  13.579 -1.5964 -0.0772  1.9471
35909SOL     OW19451  10.988   8.366  11.557  0.5405  0.4393  0.4760
35909SOL    HW119452  10.935   8.439  11.525  1.3972 -0.1514 -2.7465
35909SOL    HW219453  11.078   8.389  11.533  1.2193 -0.3666  2.1182
35910SOL     OW19454   1.858   6.249   2.852  0.4405 -0.0558 -0.3290
35910SOL    HW119455   1.911   6.171   2.831 -0.9023 -1.1494  0.2173
35910SOL    HW219456   1.880   6.312   2.783 -0.2951 -1.8224 -2.2942
35911SOL     OW19457   5.734   9.765   7.070  0.9316 -0.0850 -0.0844
35911SOL    HW119458   5.710   9.692   7.013  0.1923  0.3555 -0.3428
35911SOL    HW219459   5.691   9.746   7.154  0.4546  0.2257 -0.2570
35912SOL     OW19460   1.118  13.599  10.350  0.6093  0.0228 -0.3128
35912SOL    HW119461   1.132  13.634  10.262  0.1814 -1.9982 -1.2464
35912SOL    HW219462   1.205  13.569  10.378  0.4947 -0.7274 -0.7183
35913SOL     OW19463   9.531   8.266   3.342  0.1532 -0.2670 -0.2102
35913SOL    HW119464   9.523   8.266   3.246  0.8540 -0.4761 -0.2750
35913SOL    HW219465   9.486   8.345   3.370  0.0104 -0.1626 -0.7226
35914SOL     OW19466   4.538  10.572   6.409  1.0826 -0.1048  0.4028
35914SOL    HW119467   4.497  10.607   6.488 -1.1910 -0.9489 -0.3129
35914SOL    HW219468   4.570  10.650   6.363  0.4338  0.5917  1.0911
35915SOL     OW19469   0.223  10.068   3.088  0.1393 -1.0089 -0.4293
35915SOL    HW119470   0.257  10.028   3.168  1.2385 -1.0041 -0.8760
35915SOL    HW219471   0.299  10.110   3.048 -0.5201 -0.4971 -1.1728
35916SOL     OW19472  10.639  10.477   8.265  0.1345 -0.4948 -0.0006
35916SOL    HW119473  10.622  10.384   8.283 -0.7586 -0.3559 -0.0954
35916SOL    HW219474  10.609  10.489   8.175  0.4960 -0.1716 -0.0779
35917SOL     OW19475   9.548  10.793   8.851 -0.1952  0.0601 -0.2280
35917SOL    HW119476   9.607  10.724   8.880 -0.9741 -0.7369 -0.4944
35917SOL    HW219477   9.603  10.853   8.801  0.6699  0.1334  0.7818
35918SOL     OW19478  10.975   2.223   9.245 -0.4217 -0.7833  0.6009
35918SOL    HW119479  10.990   2.268   9.162 -1.6653 -0.7847  0.3670
35918SOL    HW219480  11.020   2.139   9.235 -1.3594 -1.1859 -0.4551
35919SOL     OW19481   8.424   6.778   8.241 -0.5401 -0.0274 -0.2564
35919SOL    HW119482   8.484   6.848   8.269 -1.0896 -0.0519  1.0447
35919SOL    HW219483   8.407   6.796   8.149 -0.4672  1.4085 -0.0062
35920SOL     OW19484  10.832   2.324   3.846 -0.7375  0.3005  0.6869
35920SOL    HW119485  10.856   2.413   3.821  1.3678 -0.2401  0.5565
35920SOL    HW219486  10.766   2.298   3.781  0.7952  0.7477 -1.1601
35921SOL     OW19487   3.968   8.938   3.953 -0.3262  0.0760 -0.1638
35921SOL    HW119488   4.044   8.926   4.011 -1.7409  0.3133  1.8426
35921SOL    HW219489   3.931   8.851   3.944 -1.3309  0.3557  1.0825
35922SOL     OW19490   1.335  12.817   4.521 -0.0779 -0.1017  0.0915
35922SOL    HW119491   1.338  12.722   4.521  1.2822 -0.0934  1.2186
35922SOL    HW219492   1.398  12.843   4.454  0.5989 -0.0279  0.7276
35923SOL     OW19493   3.930   8.942  10.322 -0.6484  0.2185  0.1477
35923SOL    HW119494   4.002   8.994  10.357 -0.4134 -0.7892  1.2296
35923SOL    HW219495   3.879   9.003  10.269  0.1699  1.2909  0.5726
35924SOL     OW19496   3.740   9.188   6.166  0.7690 -0.3669  0.0418
35924SOL    HW119497   3.769   9.247   6.097  0.9732  0.3379  0.7172
35924SOL    HW219498   3.808   9.121   6.172  0.4218 -0.8170 -0.8833
35925SOL     OW19499   8.320   0.075  10.447 -0.5355 -0.4519 -0.5983
35925SOL    HW119500   8.331  -0.017  10.472 -2.0617 -0.2491  1.0661
35925SOL    HW219501   8.395   0.119  10.487 -0.9151 -0.7007  0.4260
35926SOL     OW19502   6.337   1.491   2.682 -1.0125  0.2763  0.0902
35926SOL    HW119503   6.366   1.404   2.709  0.2565  0.7660  0.3609
35926SOL    HW219504   6.241   1.485   2.682 -0.9559 -1.3850 -0.7898
35927SOL     OW19505   2.726  10.921  13.524 -0.4332 -0.2290 -0.0584
35927SOL    HW119506   2.694  10.983  13.589 -1.0948 -1.1527  0.5064
35927SOL    HW219507   2.677  10.943  13.444 -1.1783 -0.4766  0.3259
35928SOL     OW19508  12.318   0.567   0.106  0.0812 -0.8538  0.1094
35928SOL    HW119509  12.267   0.507   0.161  0.2295 -2.4348 -1.4046
35928SOL    HW219510  12.372   0.616   0.168 -2.5171  0.2008  1.6871
35929SOL     OW19511  11.854   1.870   7.442 -0.2365 -0.3021  0.3362
35929SOL    HW119512  11.946   1.845   7.448 -0.5219 -1.4040  0.3509
35929SOL    HW219513  11.806   1.791   7.463 -1.1984  0.2402  0.2555
35930SOL     OW19514   7.196   9.797  11.347  0.3057 -0.0428  0.4633
35930SOL    HW119515   7.209   9.884  11.386 -1.0795  0.2423  0.3493
35930SOL    HW219516   7.180   9.815  11.254 -0.6163 -0.3456  0.5481
35931SOL     OW19517  10.278   5.917   4.592 -0.1068 -0.2746 -0.1232
35931SOL    HW119518  10.204   5.879   4.641  1.2979  1.4486  3.6897
35931SOL    HW219519  10.239   5.990   4.543 -1.2967 -0.9704 -0.2760
35932SOL     OW19520  11.666   2.906  13.607 -0.0576 -0.5586 -0.0107
35932SOL    HW119521  11.721   2.923  13.683 -0.4519 -0.9874  0.3820
35932SOL    HW219522  11.727   2.897  13.534  0.3234 -0.1058  0.2462
35933SOL     OW19523   4.201   0.345   6.978  1.1405 -0.5756 -0.4704
35933SOL    HW119524   4.170   0.395   6.903  1.7331  1.1276  0.3567
35933SOL    HW219525   4.177   0.254   6.959 -2.9668  0.3552 -0.6043
35934SOL     OW19526   1.727  12.007   1.399 -0.0784  0.5113  0.3501
35934SOL    HW119527   1.774  11.937   1.444  1.6930  0.7918 -0.9851
35934SOL    HW219528   1.635  11.991   1.420  0.4323 -1.2134  1.4459
35935SOL     OW19529   7.073   4.627   0.085 -0.3602  0.4850 -0.0913
35935SOL    HW119530   7.017   4.609   0.010  1.4277 -1.1254 -1.1221
35935SOL    HW219531   7.101   4.718   0.073  1.5904 -0.3378 -2.6546
35936SOL     OW19532   6.370   9.360  13.680  0.7178 -0.2340 -0.1381
35936SOL    HW119533   6.322   9.339  13.600 -1.7314  2.9093  0.3047
35936SOL    HW219534   6.355   9.285  13.737 -0.6522 -0.9285 -1.3412
35937SOL     OW19535   1.691  12.579   7.603  0.5412 -0.2160  0.0769
35937SOL    HW119536   1.682  12.671   7.629  0.1499 -0.2167 -0.0495
35937SOL    HW219537   1.647  12.574   7.519 -0.4079 -0.7519  0.5911
35938SOL     OW19538   1.976  12.059   1.049  0.4866  0.0034 -0.2890
35938SOL    HW119539   1.984  12.093   1.138  1.0769 -0.1530 -0.2827
35938SOL    HW219540   2.064  12.032   1.024  0.2488 -0.3758 -0.7550
35939SOL     OW19541   2.910   3.458   4.247  0.1058  0.4745 -0.0622
35939SOL    HW119542   2.888   3.475   4.339 -0.2859  1.4682 -0.3348
35939SOL    HW219543   2.839   3.402   4.215  0.6851 -0.6003  0.4551
35940SOL     OW19544  10.315   2.497   5.454  0.4249  0.1360  0.3528
35940SOL    HW119545  10.321   2.412   5.410 -0.4749  2.1872 -4.2950
35940SOL    HW219546  10.402   2.535   5.444  0.5550  0.1805  1.5633
35941SOL     OW19547   5.811   4.330  11.690  0.6557 -0.1929 -0.5093
35941SOL    HW119548   5.860   4.263  11.739 -1.3250 -1.3139  0.0467
35941SOL    HW219549   5.862   4.410  11.702  1.8631 -1.1067  0.8037
35942SOL     OW19550   1.002   5.123   3.172  0.4108  0.2293 -0.1693
35942SOL    HW119551   1.095   5.140   3.189  0.2938  0.2682  0.4545
35942SOL    HW219552   0.956   5.160   3.248  0.1652 -2.9285  1.3791
35943SOL     OW19553   4.909   7.020   9.432 -0.0899  0.4033  0.1633
35943SOL    HW119554   4.836   7.016   9.371 -1.6012 -2.4091  1.9503
35943SOL    HW219555   4.898   7.104   9.477 -0.0398  1.6411 -1.9833
35944SOL     OW19556   5.354  12.700  11.026  0.1121 -0.3547  0.2111
35944SOL    HW119557   5.316  12.612  11.029 -1.8018  0.3649 -1.1302
35944SOL    HW219558   5.278  12.758  11.024  1.2798  1.2156 -1.9679
35945SOL     OW19559   6.897   1.514  11.878 -0.5596 -0.2387  0.4039
35945SOL    HW119560   6.826   1.573  11.904 -0.2941  0.2699 -0.0009
35945SOL    HW219561   6.973   1.545  11.926 -0.4505 -0.3373  0.2942
35946SOL     OW19562  12.928   8.593  11.440  0.4175 -0.2212 -0.0969
35946SOL    HW119563  12.884   8.604  11.524  0.6650 -1.0428  0.1510
35946SOL    HW219564  12.864   8.548  11.385  1.0440 -1.7295  0.3712
35947SOL     OW19565   8.653   8.738   4.883 -0.1958  0.2212 -0.3932
35947SOL    HW119566   8.675   8.729   4.791 -0.2815 -1.5711 -0.2772
35947SOL    HW219567   8.705   8.813   4.913  0.2069  0.5222 -1.7735
35948SOL     OW19568   0.548  12.273   6.872  0.0708 -0.4472  0.3527
35948SOL    HW119569   0.624  12.317   6.909  0.2772 -2.0641  2.0149
35948SOL    HW219570   0.473  12.312   6.916  0.1630 -0.8407  0.8707
35949SOL     OW19571   9.500  12.671   8.477 -0.1207  0.1528  0.3675
35949SOL    HW119572   9.470  12.724   8.550 -1.2918  0.9405 -0.6394
35949SOL    HW219573   9.427  12.613   8.458  0.2091 -0.1165 -0.1067
35950SOL     OW19574   9.576   9.341   3.686 -0.0579 -0.7246 -0.9301
35950SOL    HW119575   9.653   9.310   3.734 -0.8896 -0.0724  0.9331
35950SOL    HW219576   9.611   9.399   3.619  1.0156  1.3640  1.3044
35951SOL     OW19577   1.920   7.495   4.246  0.5898  0.3058 -0.0866
35951SOL    HW119578   1.928   7.556   4.319  2.2633  0.6127 -0.4946
35951SOL    HW219579   1.963   7.539   4.172 -0.6837 -0.1782 -1.1596
35952SOL     OW19580   2.839   2.442  11.437 -0.4742 -0.1960 -0.1862
35952SOL    HW119581   2.778   2.499  11.391 -0.2284  1.3245  1.2506
35952SOL    HW219582   2.853   2.368  11.378 -1.8612  0.5675 -1.5400
35953SOL     OW19583  12.022   4.277   9.121  0.3306 -0.3508 -0.1665
35953SOL    HW119584  12.079   4.265   9.045  1.0160 -0.6289  0.3737
35953SOL    HW219585  12.043   4.202   9.177  0.5723  0.3866  0.7451
35954SOL     OW19586  10.135   8.643   6.340  0.4530  0.2485  0.0651
35954SOL    HW119587  10.065   8.706   6.353  0.8410  0.4180  1.4364
35954SOL    HW219588  10.091   8.558   6.337  0.1208  0.4188  0.1238
35955SOL     OW19589  10.200   2.920   7.395  0.1307  0.2828  0.2169
35955SOL    HW119590  10.175   2.899   7.485 -2.2936  1.3070 -0.1434
35955SOL    HW219591  10.199   2.836   7.349 -2.7520  0.2160  0.2742
35956SOL     OW19592  11.904  12.726   1.377 -0.0762  0.4756 -0.2660
35956SOL    HW119593  11.869  12.809   1.345 -0.7055  0.1634 -0.4107
35956SOL    HW219594  11.888  12.728   1.471 -1.9447 -0.3162 -0.5194
35957SOL     OW19595   8.979   6.298   2.729 -0.3680  1.4977  0.5477
35957SOL    HW119596   8.967   6.250   2.811 -2.2754  1.0785  0.0819
35957SOL    HW219597   8.917   6.371   2.735 -1.4613  0.7560 -0.9937
35958SOL     OW19598   6.742   9.881   4.110 -0.6145 -0.2564  0.4426
35958SOL    HW119599   6.766   9.931   4.032  0.3591 -1.2989  0.0336
35958SOL    HW219600   6.802   9.913   4.178 -1.4136  0.6002  0.7582
35959SOL     OW19601  12.647   3.216   0.951  0.1610 -0.0707  0.3034
35959SOL    HW119602  12.653   3.153   0.879  3.4612 -0.7683  0.9845
35959SOL    HW219603  12.718   3.278   0.934 -1.2352  1.8456  1.1409
35960SOL     OW19604   5.695   4.893  12.363 -0.6448  0.0317 -0.2297
35960SOL    HW119605   5.677   4.987  12.367 -2.1884 -0.1070 -2.3570
35960SOL    HW219606   5.644   4.855  12.435 -0.4893  0.7418  0.2593
35961SOL     OW19607   3.054  11.516   4.589 -1.1136 -0.2578 -0.2437
35961SOL    HW119608   2.984  11.456   4.563  0.5522 -1.8512 -1.3298
35961SOL    HW219609   3.107  11.465   4.650 -0.2396  0.4882 -0.3637
35962SOL     OW19610   3.149   6.638  13.352 -0.9674 -0.2243 -0.0080
35962SOL    HW119611   3.066   6.652  13.305 -1.4917 -1.1040  0.6074
35962SOL    HW219612   3.175   6.725  13.381 -1.9636  0.0120  0.2353
35963SOL     OW19613   1.116   8.018   1.191  0.4240  0.6793  0.4278
35963SOL    HW119614   1.135   7.959   1.118 -3.1148 -1.1254  0.7694
35963SOL    HW219615   1.161   7.979   1.266  0.5506  0.0917  0.0521
35964SOL     OW19616   8.655   4.230   7.780  0.3023 -0.0820 -0.3080
35964SOL    HW119617   8.694   4.193   7.858 -1.6513 -0.8285  0.3824
35964SOL    HW219618   8.702   4.312   7.766  0.3797  0.3219  1.9513
35965SOL     OW19619   1.583   0.082   2.237  0.0539  0.0570  0.5557
35965SOL    HW119620   1.624   0.046   2.315 -0.0153 -0.6550  0.2682
35965SOL    HW219621   1.499   0.116   2.267 -1.6550 -3.4281  0.2459
35966SOL     OW19622   1.502   1.034  10.445  0.5944  0.2599 -0.1729
35966SOL    HW119623   1.557   0.969  10.489  1.0852  0.5748 -0.3103
35966SOL    HW219624   1.554   1.115  10.447  0.8364  0.1703 -1.7597
35967SOL     OW19625   0.809   6.736  12.463 -0.5210  0.4695  0.1577
35967SOL    HW119626   0.757   6.762  12.386  1.0250  1.0787 -0.7169
35967SOL    HW219627   0.818   6.641  12.455 -1.9649  0.2634  0.6502
35968SOL     OW19628   6.695   1.611  10.586  0.5045  0.4631  0.0706
35968SOL    HW119629   6.623   1.601  10.648 -0.0189 -1.8988 -0.7994
35968SOL    HW219630   6.667   1.684  10.529 -1.9845 -1.2508 -1.1129
35969SOL     OW19631   5.343   0.346  11.166 -0.9068  0.1674 -0.1413
35969SOL    HW119632   5.374   0.421  11.116 -0.0671  1.4076  2.1020
35969SOL    HW219633   5.421   0.312  11.210 -1.7520 -0.2009  1.1436
35970SOL     OW19634  13.207   9.198  10.006  0.3330 -0.0377  0.5276
35970SOL    HW119635  13.276   9.193  10.071  1.6455 -0.6741 -0.8551
35970SOL    HW219636  13.167   9.284  10.019  1.7827  0.5899  0.9795
35971SOL     OW19637   0.788   0.977   6.133 -0.6805  0.3064 -0.1923
35971SOL    HW119638   0.823   1.055   6.089 -1.7113  1.1227  0.3881
35971SOL    HW219639   0.734   1.012   6.204 -0.1286 -0.9719  0.8921
35972SOL     OW19640   6.602  12.701   4.461  0.2924  0.0872  0.1288
35972SOL    HW119641   6.580  12.613   4.430  2.0352 -0.1153 -0.6837
35972SOL    HW219642   6.553  12.711   4.543  1.0536 -2.1652  0.9443
35973SOL     OW19643   5.233   0.329   5.907  0.1099 -0.2584 -0.2948
35973SOL    HW119644   5.318   0.343   5.949  0.0224 -1.0172  0.1685
35973SOL    HW219645   5.191   0.261   5.961  0.2428 -1.7184 -1.9306
35974SOL     OW19646   1.977  11.910   9.033 -0.0795 -0.6320  0.3069
35974SOL    HW119647   1.966  12.004   9.015  1.2758 -0.5969 -0.4493
35974SOL    HW219648   1.906  11.889   9.093 -1.2971  0.5603 -0.6492
35975SOL     OW19649   0.143   0.974   1.841  0.3009 -0.2537 -0.0102
35975SOL    HW119650   0.234   0.988   1.864  0.4054 -0.6808 -0.1570
35975SOL    HW219651   0.094   1.028   1.903  0.6789  0.5990 -0.4332
35976SOL     OW19652  13.310   8.128   1.915 -0.0329  0.3999  0.1042
35976SOL    HW119653  13.292   8.185   1.840  1.8470  1.3001  0.2814
35976SOL    HW219654  13.295   8.040   1.882 -0.1612  0.8368 -1.0644
35977SOL     OW19655   4.002   7.721  12.945 -0.5709  0.4070  0.4000
35977SOL    HW119656   3.990   7.760  12.859  1.5699 -0.2012 -0.2240
35977SOL    HW219657   4.066   7.778  12.988 -0.2586 -0.3102  0.8923
35978SOL     OW19658   0.491   0.934  13.477  0.1234 -0.2090 -0.0606
35978SOL    HW119659   0.514   0.853  13.521 -0.4687 -1.1015 -1.3279
35978SOL    HW219660   0.397   0.944  13.491  0.3825  0.8621  1.0274
35979SOL     OW19661   0.874   1.381   5.296 -0.1289  0.2525 -0.0474
35979SOL    HW119662   0.905   1.472   5.292 -0.8278  0.4732 -0.6649
35979SOL    HW219663   0.784   1.388   5.330 -0.1112 -0.2311  0.1063
35980SOL     OW19664  12.398   1.138   2.159  0.3463  0.4046  0.2183
35980SOL    HW119665  12.414   1.075   2.230 -1.3003  0.5385  0.7518
35980SOL    HW219666  12.457   1.211   2.179  0.1235  0.3145  1.3033
35981SOL     OW19667   6.490   0.590  12.555 -0.2139  0.0735  0.5139
35981SOL    HW119668   6.572   0.548  12.581  0.4471  1.4334  0.7108
35981SOL    HW219669   6.421   0.532  12.588  0.6658 -0.5670  1.2477
35982SOL     OW19670   3.680   8.707   9.222  0.4548  0.4208  0.2398
35982SOL    HW119671   3.694   8.684   9.314 -0.2994  0.4655  0.3727
35982SOL    HW219672   3.585   8.699   9.210  0.6867 -0.9553 -0.9039
35983SOL     OW19673   6.971   2.196  13.521 -0.2630  0.5643  0.3498
35983SOL    HW119674   6.898   2.228  13.574 -0.3061  1.0376  0.0114
35983SOL    HW219675   6.955   2.233  13.435 -1.1270 -1.5373 -0.4871
35984SOL     OW19676   8.030   9.139   5.388  0.3874 -0.2730 -0.8603
35984SOL    HW119677   8.060   9.051   5.365 -0.7670 -0.8497 -0.2557
35984SOL    HW219678   8.039   9.143   5.483  1.0967  0.5349 -0.9473
35985SOL     OW19679   0.157   5.262   8.252  0.2842 -0.2818 -0.7332
35985SOL    HW119680   0.149   5.273   8.157  0.7627 -0.9496 -0.8613
35985SOL    HW219681   0.068   5.244   8.282  0.3852 -1.8694 -1.3160
35986SOL     OW19682  13.523   1.798   9.445 -0.5006 -0.2413  0.2439
35986SOL    HW119683  13.530   1.886   9.481  2.5472  0.1670 -0.9983
35986SOL    HW219684  13.589   1.748   9.493 -0.3500 -1.1422 -0.8606
35987SOL     OW19685   1.946   7.749   6.943 -0.2334 -0.0316 -0.5053
35987SOL    HW119686   2.003   7.731   6.867 -1.4637  1.1492 -1.7734
35987SOL    HW219687   1.895   7.669   6.954  1.9823 -1.3499  1.0347
35988SOL     OW19688   9.705   8.753   0.257  0.1156  0.0395 -0.2661
35988SOL    HW119689   9.619   8.723   0.228  0.2141  0.2924 -0.8455
35988SOL    HW219690   9.759   8.750   0.178  0.4744  0.4656 -0.0414
35989SOL     OW19691   4.349   8.662   5.620  0.0287 -0.1997 -0.7132
35989SOL    HW119692   4.442   8.653   5.641 -0.4437  0.7095  2.1984
35989SOL    HW219693   4.315   8.573   5.626 -0.1063 -0.0529  3.2638
35990SOL     OW19694   3.446   4.334   9.495 -0.2744 -0.0720 -0.6661
35990SOL    HW119695   3.455   4.424   9.524  1.5250 -0.5222  0.3939
35990SOL    HW219696   3.531   4.313   9.457 -0.9867 -1.0349 -1.7796
35991SOL     OW19697   6.545   3.434   8.970  0.7654  0.5182  0.4576
35991SOL    HW119698   6.514   3.362   9.025  1.2272  0.3215  0.4653
35991SOL    HW219699   6.618   3.396   8.921 -0.5640  0.2282 -1.4150
35992SOL     OW19700  12.894   0.405   2.800  0.3157 -0.2064 -0.1975
35992SOL    HW119701  12.956   0.373   2.865 -0.3685 -2.5124 -0.5924
35992SOL    HW219702  12.848   0.327   2.770 -0.7597  1.0480 -2.0336
35993SOL     OW19703   3.523  12.164   5.103  0.3735  0.1543 -0.0577
35993SOL    HW119704   3.551  12.146   5.013  1.9318  2.4150 -0.1226
35993SOL    HW219705   3.446  12.220   5.094 -0.1442 -0.5387  0.0370
35994SOL     OW19706   3.324   3.167   3.658  0.6115  0.1434  0.5554
35994SOL    HW119707   3.385   3.204   3.595 -1.2484  1.4912 -0.5202
35994SOL    HW219708   3.256   3.126   3.606  1.3473 -2.8487  1.7233
35995SOL     OW19709  12.375  12.728   8.938  0.6331 -0.2710  0.1371
35995SOL    HW119710  12.391  12.803   8.881 -0.8785 -0.2024 -0.2362
35995SOL    HW219711  12.369  12.654   8.879 -0.8049 -0.2222  0.2037
35996SOL     OW19712   1.968   4.412   4.085 -0.2066 -0.4040 -0.1154
35996SOL    HW119713   1.938   4.323   4.067  3.2459 -2.0256  1.1090
35996SOL    HW219714   1.938   4.430   4.174 -0.6875 -0.4494 -0.2678
35997SOL     OW19715  10.484   6.620  10.304 -0.4078 -0.0382  0.2976
35997SOL    HW119716  10.416   6.683  10.327  0.5738  0.5481  1.7325
35997SOL    HW219717  10.450   6.536  10.336 -1.4281 -0.1566 -1.0264
35998SOL     OW19718  13.463   0.010   0.834  0.9657  0.4992  0.2357
35998SOL    HW119719  13.456   0.054   0.919  0.2454  1.6604 -0.3960
35998SOL    HW219720  13.460   0.081   0.770  0.1466 -0.4457 -0.8156
35999SOL     OW19721  10.401   5.173   7.434  0.4802  0.3836  0.2657
35999SOL    HW119722  10.455   5.226   7.376  2.0842 -1.7620 -0.3368
35999SOL    HW219723  10.446   5.177   7.518  1.5506 -1.2399 -0.1859
36000SOL     OW19724   2.292   9.086   6.080 -0.1927 -0.0079 -0.2857
36000SOL    HW119725   2.271   9.152   6.146  1.7140 -0.9306  1.3623
36000SOL    HW219726   2.365   9.123   6.031  0.8971 -0.8619  0.6576
36001SOL     OW19727  11.052  11.000  11.791  0.3868  0.1017 -0.3657
36001SOL    HW119728  11.016  10.913  11.811  0.9290 -0.0489 -0.0195
36001SOL    HW219729  11.009  11.025  11.710 -1.1471  0.2868  0.4530
36002SOL     OW19730   7.266   7.531   4.900  0.1670 -0.3048 -1.0355
36002SOL    HW119731   7.313   7.560   4.822 -0.3974  2.5682 -0.4223
36002SOL    HW219732   7.215   7.607   4.927  0.2848 -1.1897  2.1086
36003SOL     OW19733  11.934   5.616   7.874 -0.7860  0.2321  0.3428
36003SOL    HW119734  11.934   5.695   7.819 -0.3003 -1.1128 -1.6886
36003SOL    HW219735  11.846   5.612   7.911 -1.0593  1.2940 -0.1446
36004SOL     OW19736   2.638  10.096   4.073 -0.2864 -0.0723 -0.0793
36004SOL    HW119737   2.558  10.148   4.065 -0.8425 -1.0163 -0.8192
36004SOL    HW219738   2.610  10.016   4.117  0.2260 -0.4835 -0.4987
36005SOL     OW19739   3.791   3.047  11.791  0.9702  0.0758 -0.2176
36005SOL    HW119740   3.716   3.090  11.832 -0.3447 -2.2837  0.0497
36005SOL    HW219741   3.810   3.100  11.714 -0.2807  1.3456  0.3023
36006SOL     OW19742  11.251   3.644   4.401  0.1127 -0.1988 -0.0306
36006SOL    HW119743  11.182   3.625   4.465 -1.3217 -2.1789 -2.0184
36006SOL    HW219744  11.205   3.650   4.318  2.0702  1.0476 -1.0821
36007SOL     OW19745   7.727  13.213   5.613  0.0545 -0.2870  0.1255
36007SOL    HW119746   7.710  13.271   5.539 -0.4608  0.0127  0.4746
36007SOL    HW219747   7.656  13.148   5.609  0.3047 -0.5604  0.0708
36008SOL     OW19748   9.721   4.929   7.938  0.4846 -0.5131 -0.3118
36008SOL    HW119749   9.677   5.009   7.968 -1.7419 -1.5320 -0.7113
36008SOL    HW219750   9.781   4.907   8.010  0.4144  0.9509  0.2300
36009SOL     OW19751  12.389   9.758  10.575  0.2857 -0.4209 -0.4666
36009SOL    HW119752  12.433   9.823  10.631  0.0445  0.2239 -1.0074
36009SOL    HW219753  12.372   9.806  10.494 -2.2328 -0.3625  0.0306
36010SOL     OW19754  12.827  12.171   2.333 -0.6902 -0.1511  0.1943
36010SOL    HW119755  12.776  12.222   2.270  0.2934 -0.3902 -0.8259
36010SOL    HW219756  12.894  12.231   2.364 -0.4024 -0.4055  0.0668
36011SOL     OW19757   8.759   4.800   2.934 -0.0405  0.5221  0.5258
36011SOL    HW119758   8.737   4.888   2.906 -0.3561 -0.0208 -0.9984
36011SOL    HW219759   8.688   4.745   2.901  2.5090 -1.0490 -3.0417
36012SOL     OW19760   9.396   6.218   0.918 -0.1612 -0.1785  0.1596
36012SOL    HW119761   9.440   6.239   0.836  1.7218 -0.2420  1.1010
36012SOL    HW219762   9.407   6.297   0.972  0.5541 -0.9031  1.1077
36013SOL     OW19763   1.859   7.510   5.140 -0.6731 -0.0202 -0.4505
36013SOL    HW119764   1.886   7.527   5.230  1.3568  1.0132 -1.1875
36013SOL    HW219765   1.941   7.505   5.091 -1.7560  0.7567 -2.4677
36014SOL     OW19766  10.671   4.075   7.871 -0.2134  0.2440  0.0647
36014SOL    HW119767  10.718   4.030   7.941  1.5186  0.4999 -0.8671
36014SOL    HW219768  10.740   4.114   7.817 -1.5141  0.6634 -1.3804
36015SOL     OW19769   1.827   1.333   3.640  0.0372  0.1147  0.0231
36015SOL    HW119770   1.832   1.263   3.574 -0.3201 -0.2134  0.3428
36015SOL    HW219771   1.842   1.413   3.590  0.7335 -0.2130 -0.2982
36016SOL     OW19772  10.785   2.739  12.347 -0.1997  0.1180 -0.1264
36016SOL    HW119773  10.700   2.730  12.390  0.4731 -0.2855  1.1862
36016SOL    HW219774  10.771   2.806  12.280 -1.6283 -0.1921 -0.1703
36017SOL     OW19775  12.667   5.519   9.943  0.0028 -0.1411  0.6622
36017SOL    HW119776  12.630   5.531  10.031  0.9174  0.8207  0.9315
36017SOL    HW219777  12.761   5.513   9.958  0.4271  2.6349 -0.4749
36018SOL     OW19778   5.688  13.100   8.330 -0.4694 -0.2096  0.6695
36018SOL    HW119779   5.722  13.103   8.241  1.2343 -0.5946  1.2602
36018SOL    HW219780   5.713  13.013   8.362 -2.0087 -0.4850  1.1729
36019SOL     OW19781   3.365  12.305   6.023 -0.2530 -0.1653  0.1962
36019SOL    HW119782   3.403  12.231   5.976  0.6975 -0.1166  0.8623
36019SOL    HW219783   3.290  12.267   6.071  0.6367 -0.8547  1.0810
36020SOL     OW19784   9.489  12.319  10.416  0.1883  0.7489 -0.5177
36020SOL    HW119785   9.437  12.346  10.492 -0.5725 -0.2028 -0.6813
36020SOL    HW219786   9.578  12.346  10.437 -0.2169  1.5839  0.1817
36021SOL     OW19787   8.193   4.341   0.093  0.1912  0.2102 -0.2465
36021SOL    HW119788   8.273   4.348   0.040  0.3288 -0.1993 -0.1013
36021SOL    HW219789   8.206   4.261   0.145 -0.5072 -0.1006 -0.5397
36022SOL     OW19790   6.551  13.257   2.856 -0.3268 -0.7192 -0.0803
36022SOL    HW119791   6.579  13.303   2.778 -1.3152  1.7993  0.9509
36022SOL    HW219792   6.601  13.297   2.927  0.4851 -2.8848  0.6423
36023SOL     OW19793   9.582  12.965  12.643  0.2605 -0.6343  0.6435
36023SOL    HW119794   9.497  13.009  12.645  0.2223 -0.6900  0.2835
36023SOL    HW219795   9.639  13.026  12.596 -0.2265 -1.7022 -1.4772
36024SOL     OW19796  12.515   1.745  10.846  0.1510 -0.6152  0.6056
36024SOL    HW119797  12.558   1.828  10.825  1.0807 -0.9113  1.2508
36024SOL    HW219798  12.467   1.721  10.767 -0.6127  0.8175  0.5975
36025SOL     OW19799   4.216   8.216   0.265  0.4126  0.5493 -0.3664
36025SOL    HW119800   4.266   8.197   0.186 -0.4920 -1.0335 -0.5888
36025SOL    HW219801   4.125   8.197   0.241 -0.4759  3.9086 -0.1780
36026SOL     OW19802   9.964   5.744   2.496  0.2069  0.0411 -0.0227
36026SOL    HW119803   9.982   5.711   2.584 -0.1243 -0.6016 -0.1905
36026SOL    HW219804  10.035   5.709   2.443 -0.2639 -0.5931 -0.2429
36027SOL     OW19805  11.962   2.545   8.793 -0.4789 -0.5179 -0.4316
36027SOL    HW119806  11.998   2.631   8.772  1.1885 -1.2529 -0.6937
36027SOL    HW219807  11.886   2.564   8.848 -0.0006  1.1100 -0.2835
36028SOL     OW19808   7.716   0.944   0.939  0.4287  0.1102 -0.0218
36028SOL    HW119809   7.686   0.857   0.967  1.4826  0.1069  1.2272
36028SOL    HW219810   7.670   1.005   0.998  2.4919  0.1217  1.7116
36029SOL     OW19811   5.481  12.483   0.802 -0.8181  0.0339  0.0840
36029SOL    HW119812   5.574  12.485   0.823 -0.8685  0.0744  0.3127
36029SOL    HW219813   5.464  12.393   0.773 -0.5912  0.1772 -0.5143
36030SOL     OW19814  12.811   7.354  13.237 -0.1141 -0.5420 -0.3690
36030SOL    HW119815  12.837   7.321  13.323 -1.2035  0.4196  0.3678
36030SOL    HW219816  12.877   7.419  13.214 -0.5129  0.1457  0.3687
36031SOL     OW19817   2.733   3.250   3.396 -0.2505 -0.0600 -0.3499
36031SOL    HW119818   2.681   3.184   3.440  0.6595  0.7459  2.0868
36031SOL    HW219819   2.728   3.327   3.454  1.7562  0.7668 -1.1973
36032SOL     OW19820  10.967   0.829   6.772  0.2179 -0.2181  0.3073
36032SOL    HW119821  11.003   0.917   6.780  0.4507 -0.0442 -1.9615
36032SOL    HW219822  11.032   0.773   6.815  1.2911  0.4793 -0.3700
36033SOL     OW19823   9.548  10.515   0.260 -0.3175  0.3935 -0.3156
36033SOL    HW119824   9.477  10.453   0.243 -1.0681  0.4326  2.2377
36033SOL    HW219825   9.600  10.475   0.329  1.1603  1.1620 -0.9197
36034SOL     OW19826   2.625  13.306   2.299  0.6920  0.0013  0.5713
36034SOL    HW119827   2.670  13.222   2.294 -2.4183 -1.9155  1.9543
36034SOL    HW219828   2.598  13.324   2.208 -0.1419 -1.4630  0.4948
36035SOL     OW19829   3.426   1.391  12.861  0.1311  0.4322 -0.5395
36035SOL    HW119830   3.445   1.462  12.800 -2.0331  0.7012 -1.0139
36035SOL    HW219831   3.494   1.326  12.845  2.4351  2.5024  0.2099
36036SOL     OW19832   3.954   6.606  10.364  0.1783 -0.1033  0.2644
36036SOL    HW119833   3.933   6.620  10.272  1.9981  0.7190 -0.0871
36036SOL    HW219834   3.987   6.516  10.368 -0.0352 -0.1875  0.1407
36037SOL     OW19835   9.664   2.873  10.544 -0.3259  0.4884 -0.1042
36037SOL    HW119836   9.732   2.891  10.479  0.2277 -0.2487  0.2561
36037SOL    HW219837   9.608   2.807  10.504 -0.8768  1.1401 -0.4248
36038SOL     OW19838   4.240   7.449   4.005 -0.3271 -0.0303  0.4706
36038SOL    HW119839   4.203   7.484   4.086  0.0268 -0.8821  1.0125
36038SOL    HW219840   4.164   7.431   3.949 -0.6953 -1.0013  1.2591
36039SOL     OW19841   0.283  11.082  11.545  0.2023  0.0679 -0.0201
36039SOL    HW119842   0.208  11.105  11.599 -0.0877  0.0313 -0.4056
36039SOL    HW219843   0.357  11.079  11.607 -0.2807 -0.8869  0.5413
36040SOL     OW19844   7.542   7.409   9.799  0.6123 -0.0239 -0.0411
36040SOL    HW119845   7.477   7.340   9.782  0.5290 -0.1812  0.8958
36040SOL    HW219846   7.522   7.477   9.734 -1.2629  0.4713  0.9722
36041SOL     OW19847   7.369  11.925  11.247  0.2679  0.0360  0.0027
36041SOL    HW119848   7.455  11.902  11.282  0.5320  0.6111 -0.2503
36041SOL    HW219849   7.313  11.933  11.325  0.6289  0.4104  0.2274
36042SOL     OW19850   0.146   2.932   8.748  0.0255  0.1909  0.0550
36042SOL    HW119851   0.184   2.865   8.803  1.4378  0.1711 -0.9032
36042SOL    HW219852   0.214   2.999   8.739  0.1512 -0.1594 -2.2334
36043SOL     OW19853   9.015   9.335   7.676 -0.0777 -0.0467  0.6404
36043SOL    HW119854   9.109   9.327   7.694 -0.4379 -1.1265  2.2963
36043SOL    HW219855   9.004   9.302   7.588  0.8535 -1.8497  1.1554
36044SOL     OW19856  12.631   0.781  10.535 -0.0330 -0.3516  0.4638
36044SOL    HW119857  12.671   0.815  10.456  0.5315 -0.4040  0.7227
36044SOL    HW219858  12.673   0.696  10.549 -1.6515 -1.3511 -0.3617
36045SOL     OW19859  11.138   0.044   7.711  0.2882  0.3595 -0.6226
36045SOL    HW119860  11.092  -0.026   7.665 -0.3615  0.0278  0.4714
36045SOL    HW219861  11.121   0.026   7.804 -0.1672  2.1421 -0.3199
36046SOL     OW19862   2.827   8.880   3.939 -0.2233  0.1569 -0.2937
36046SOL    HW119863   2.800   8.930   3.862 -1.3377  1.4938  0.9002
36046SOL    HW219864   2.791   8.929   4.013 -0.6993 -2.0057  1.0025
36047SOL     OW19865   4.017  12.791   3.282  0.3484  0.0290  0.0218
36047SOL    HW119866   3.945  12.785   3.345 -0.5646  0.7532 -0.9195
36047SOL    HW219867   4.036  12.700   3.258 -0.9415 -0.1207 -0.4689
36048SOL     OW19868   2.556  10.831   5.635  0.1983 -0.6668 -0.4718
36048SOL    HW119869   2.472  10.842   5.679  1.3859  1.2457  1.5455
36048SOL    HW219870   2.604  10.769   5.690  1.4703  1.2626  0.7346
36049SOL     OW19871  10.764   0.625  11.128  0.1107 -0.4877  0.2082
36049SOL    HW119872  10.830   0.694  11.126  0.8970 -1.2003  0.6461
36049SOL    HW219873  10.811   0.546  11.101 -0.2286 -1.2605  1.7581
36050SOL     OW19874  13.088   3.442   1.775  0.0981 -0.2242 -0.0488
36050SOL    HW119875  13.158   3.435   1.840  0.2570  1.5008  0.0116
36050SOL    HW219876  13.029   3.509   1.811 -0.4569 -0.1363 -1.0937
36051SOL     OW19877   7.467   3.530   4.990  0.2317 -0.7693 -0.0652
36051SOL    HW119878   7.426   3.505   5.074 -0.1598  0.8651  0.2554
36051SOL    HW219879   7.519   3.607   5.011  1.9231 -1.6248 -0.9040
36052SOL     OW19880  10.830   7.630   7.507  0.2351 -0.2255  0.8063
36052SOL    HW119881  10.905   7.573   7.492  0.0742 -0.3464  0.4682
36052SOL    HW219882  10.868   7.711   7.540  0.6298  0.1846 -0.5926
36053SOL     OW19883   2.983   1.873   6.543 -0.4731 -0.3092 -0.0708
36053SOL    HW119884   2.964   1.934   6.472 -0.8864  0.8341  0.9834
36053SOL    HW219885   3.052   1.816   6.509 -0.8258  0.0723 -1.4517
36054SOL     OW19886   4.654   9.022   7.688  0.1853 -0.1012 -0.6195
36054SOL    HW119887   4.620   9.090   7.746  1.4557 -0.5077  0.6730
36054SOL    HW219888   4.584   9.007   7.625 -1.6019 -0.1896  1.2748
36055SOL     OW19889  10.502   2.963  12.120  0.2665  0.1329  0.1730
36055SOL    HW119890  10.492   3.056  12.102  0.4254 -0.0300 -0.8667
36055SOL    HW219891  10.416   2.925  12.101 -0.2124  0.2456  1.9734
36056SOL     OW19892  12.218   3.210  11.039 -0.3743 -0.1199 -0.8360
36056SOL    HW119893  12.240   3.291  11.085 -1.7174  0.0784 -0.5203
36056SOL    HW219894  12.261   3.141  11.090 -2.6789 -0.0355  1.4132
36057SOL     OW19895   6.880   3.610   4.457  0.4949 -0.6840 -0.0721
36057SOL    HW119896   6.861   3.645   4.370 -0.5670 -0.3335  0.2905
36057SOL    HW219897   6.797   3.614   4.503  0.9236 -1.3964  0.7847
36058SOL     OW19898   1.686   0.188   3.148 -0.1414  0.4898  0.1476
36058SOL    HW119899   1.604   0.216   3.189 -0.4815  0.4012 -0.4553
36058SOL    HW219900   1.707   0.105   3.191 -0.2818  0.5914  0.4176
36059SOL     OW19901   9.299   5.236  10.141 -0.5894 -0.0994 -0.3218
36059SOL    HW119902   9.242   5.289  10.197 -1.1183  0.2304 -1.1537
36059SOL    HW219903   9.362   5.196  10.201  1.0759  2.9710  0.1922
36060SOL     OW19904  10.707   2.341  11.043  0.6921 -0.0186  0.5271
36060SOL    HW119905  10.687   2.366  11.133  0.3853  1.6244  0.0502
36060SOL    HW219906  10.627   2.363  10.994  1.2006  0.0611 -0.2841
36061SOL     OW19907  12.054   9.200  13.284  0.0823 -0.5795 -0.1179
36061SOL    HW119908  12.010   9.199  13.369  2.6722  0.7169  1.3718
36061SOL    HW219909  12.112   9.123  13.287  1.6338  0.5489  0.2054
36062SOL     OW19910   0.675   7.861   0.646  0.0774 -0.4618 -0.4236
36062SOL    HW119911   0.624   7.917   0.704  2.5349  0.0287  1.4469
36062SOL    HW219912   0.618   7.846   0.571 -2.6219  0.3053  1.3189
36063SOL     OW19913   1.211  10.494   2.728  0.1843  0.1963  0.0762
36063SOL    HW119914   1.230  10.411   2.771  1.0626  0.6230  0.5442
36063SOL    HW219915   1.116  10.494   2.716  0.2571 -1.2039 -0.6361
36064SOL     OW19916   1.310   8.689   6.858 -0.4987 -0.4079 -0.1363
36064SOL    HW119917   1.255   8.638   6.799 -0.5846  0.6217 -0.9939
36064SOL    HW219918   1.264   8.773   6.866  0.0307 -0.1767  0.6008
36065SOL     OW19919   2.987   8.727   5.414 -0.3656 -0.0367  0.1224
36065SOL    HW119920   2.978   8.815   5.450 -0.8614 -0.6114  1.4526
36065SOL    HW219921   2.913   8.718   5.353 -0.8498  0.1411  0.6788
36066SOL     OW19922  12.636   7.014  11.788 -0.1534  0.1697 -0.0520
36066SOL    HW119923  12.620   6.939  11.846  0.5965  0.1797  0.1803
36066SOL    HW219924  12.639   6.975  11.700 -0.7720  0.0805 -0.0398
36067SOL     OW19925   9.481   2.501   5.439 -0.3325  0.0221  0.4787
36067SOL    HW119926   9.573   2.482   5.460 -0.3612 -1.1274 -0.3687
36067SOL    HW219927   9.461   2.580   5.489  0.3452 -1.1412  2.6846
36068SOL     OW19928   0.284  10.431   0.401 -0.2440 -0.2870 -0.0224
36068SOL    HW119929   0.221  10.443   0.330 -1.4975 -1.5624  0.8314
36068SOL    HW219930   0.358  10.488   0.377 -0.8744 -0.2359 -2.0334
36069SOL     OW19931   4.023   2.219   9.395  0.2337  0.0308 -0.8869
36069SOL    HW119932   4.011   2.262   9.479 -0.0024 -1.0769 -0.3296
36069SOL    HW219933   3.936   2.187   9.371 -0.0579  1.7955 -2.4117
36070SOL     OW19934   7.704   7.931  11.326 -0.2875  0.5088 -0.2293
36070SOL    HW119935   7.778   7.899  11.378  0.1445  1.4161 -0.2645
36070SOL    HW219936   7.665   7.852  11.289  1.2705  0.0750 -1.0298
36071SOL     OW19937  11.776   8.134   0.209  0.3615 -0.0957  0.0056
36071SOL    HW119938  11.868   8.144   0.230  0.4665  0.4218 -0.6754
36071SOL    HW219939  11.730   8.158   0.289  0.7634  1.5858 -0.2425
36072SOL     OW19940   4.407   4.868   6.535  0.2028  0.2337  0.1094
36072SOL    HW119941   4.461   4.849   6.612 -2.3717 -1.3346  1.6919
36072SOL    HW219942   4.420   4.792   6.479 -0.5774 -0.3416  0.6765
36073SOL     OW19943   3.034   2.647   4.903 -0.2668 -0.4282 -0.0455
36073SOL    HW119944   3.066   2.562   4.874 -0.1408 -0.9898  1.6731
36073SOL    HW219945   2.970   2.672   4.836  1.9701 -0.3380 -2.3244
36074SOL     OW19946  13.163   4.851  12.693 -0.1935  0.1157 -0.3052
36074SOL    HW119947  13.256   4.834  12.679  0.5143  1.4557  2.2973
36074SOL    HW219948  13.150   4.940  12.661 -0.3618  0.2792  0.2157
36075SOL     OW19949   1.146   7.942   5.501  0.1912 -0.1152 -0.0109
36075SOL    HW119950   1.188   7.922   5.417  0.3141 -1.8453  0.4332
36075SOL    HW219951   1.207   8.002   5.544  0.1339  0.7795 -1.1242
36076SOL     OW19952  12.065   7.231  13.165 -0.5711  0.0855 -0.1940
36076SOL    HW119953  12.087   7.313  13.209 -0.7057  0.6297 -1.1195
36076SOL    HW219954  11.983   7.203  13.204  1.1778 -1.4999  2.6803
36077SOL     OW19955   8.455   6.271  12.074  0.0910 -0.1985  0.4455
36077SOL    HW119956   8.368   6.288  12.037 -0.1330 -2.0580  0.0177
36077SOL    HW219957   8.510   6.340  12.038 -0.6111 -0.6164 -1.5638
36078SOL     OW19958   8.332   6.914   1.030  0.2834  0.1304 -0.2680
36078SOL    HW119959   8.346   6.867   1.113 -0.2662  0.6748  0.1365
36078SOL    HW219960   8.375   6.999   1.044 -0.7528  0.6394 -0.1403
36079SOL     OW19961   8.674   2.921  11.429  0.4880  0.0649 -0.4957
36079SOL    HW119962   8.613   2.953  11.362  2.2578 -0.2124 -2.3608
36079SOL    HW219963   8.687   2.829  11.407  0.7826 -0.1361  0.5006
36080SOL     OW19964   1.971   8.811   4.313  0.1004 -0.2085 -0.3403
36080SOL    HW119965   2.024   8.782   4.238 -0.0855 -0.5263 -0.3511
36080SOL    HW219966   2.010   8.766   4.388  0.5749  0.4701 -0.1764
36081SOL     OW19967  13.236  11.076  13.643  0.3463 -0.7451 -0.2566
36081SOL    HW119968  13.149  11.114  13.652  0.9005  0.1858  1.7656
36081SOL    HW219969  13.227  11.012  13.573 -2.5973 -2.4042  1.4336
36082SOL     OW19970   3.774   3.978   1.467  0.2636 -0.3818  0.4368
36082SOL    HW119971   3.829   4.055   1.456 -0.7349  0.3497  0.3636
36082SOL    HW219972   3.835   3.907   1.485  1.2472  0.3124 -0.0543
36083SOL     OW19973   2.993   3.839   6.340  0.2411 -0.1768  0.3508
36083SOL    HW119974   3.019   3.914   6.286  0.1010  0.9870  1.8482
36083SOL    HW219975   3.061   3.831   6.406  0.0844 -1.1881  0.4072
36084SOL     OW19976   5.037   9.819   1.131  0.1333  0.1461  0.6362
36084SOL    HW119977   5.015   9.728   1.149 -0.0823 -0.0303 -0.4354
36084SOL    HW219978   5.122   9.814   1.087  0.4502  0.5158  1.2043
36085SOL     OW19979   2.302   9.366   8.961  0.9500  0.1515 -0.6113
36085SOL    HW119980   2.365   9.369   8.888 -0.0625 -0.8712 -1.5657
36085SOL    HW219981   2.321   9.283   9.004 -0.5920 -0.8445 -1.7405
36086SOL     OW19982  11.056   5.371   2.633 -0.4613  0.4094  0.1952
36086SOL    HW119983  11.137   5.383   2.683  0.1544  2.2962 -1.1479
36086SOL    HW219984  11.009   5.453   2.642 -2.4716 -0.7960  1.2586
36087SOL     OW19985   4.282   4.683   9.284  0.2070 -0.1320 -0.5549
36087SOL    HW119986   4.360   4.628   9.274  0.3630 -0.2835  1.2329
36087SOL    HW219987   4.212   4.622   9.307  0.2875  0.3266  1.0206
36088SOL     OW19988   3.413   7.801   5.412 -0.1007  0.5675  0.0285
36088SOL    HW119989   3.412   7.886   5.368 -0.6852 -0.2023 -1.5182
36088SOL    HW219990   3.437   7.821   5.502 -0.0575  2.3507 -0.3442
36089SOL     OW19991   4.445   3.613   8.633 -0.1257  0.0438  0.3920
36089SOL    HW119992   4.454   3.663   8.552 -1.4561  0.6593  0.6046
36089SOL    HW219993   4.523   3.557   8.635  0.5308  0.8762 -0.7045
36090SOL     OW19994   4.235  11.156   9.234 -0.0431  0.0575  0.5820
36090SOL    HW119995   4.151  11.137   9.277 -0.3173  0.2513  0.1445
36090SOL    HW219996   4.300  11.106   9.284 -0.4890 -0.4945  0.6190
36091SOL     OW19997  12.449  11.795   7.652 -0.0019  0.4147 -0.0756
36091SOL    HW119998  12.370  11.838   7.619 -1.7787 -2.2977  0.2912
36091SOL    HW219999  12.454  11.714   7.603  2.6319  0.5171 -0.0832
36092SOL     OW20000   3.671   1.961   6.898  0.2863  0.2063 -0.5844
36092SOL    HW120001   3.753   2.008   6.884  0.5098 -0.1954 -0.6422
36092SOL    HW220002   3.699   1.873   6.926 -0.1243  0.0846 -0.5595
36093SOL     OW20003   7.594   3.961   8.786  0.0215 -0.0075 -0.3965
36093SOL    HW120004   7.536   3.934   8.858 -0.5964  0.6752 -0.6328
36093SOL    HW220005   7.601   3.884   8.730  1.4018 -0.9264  0.9494
36094SOL     OW20006   0.362  11.077   1.226  0.2017  0.4540  0.1085
36094SOL    HW120007   0.272  11.096   1.253 -0.0779  0.5554 -0.8463
36094SOL    HW220008   0.354  11.051   1.135  1.1501  0.4966  0.0064
36095SOL     OW20009  13.423   8.143   2.158  0.1729  0.1554  0.1965
36095SOL    HW120010  13.382   8.218   2.201  0.8478 -0.0873  1.3018
36095SOL    HW220011  13.371   8.129   2.078  0.8304  2.6145 -0.7485
36096SOL     OW20012   3.797   8.203  10.768  0.3837  0.0675  0.0598
36096SOL    HW120013   3.862   8.245  10.713  0.8702 -1.2831 -0.4271
36096SOL    HW220014   3.809   8.110  10.753 -1.2221 -0.2358  0.4753
36097SOL     OW20015   6.692   3.399  11.298  0.2485 -0.2386  0.3008
36097SOL    HW120016   6.709   3.316  11.343 -0.1305 -1.1247 -1.1249
36097SOL    HW220017   6.776   3.422  11.258  0.5399  0.4553  1.2901
36098SOL     OW20018   3.496   2.997   9.697 -0.0388  0.1361 -0.1274
36098SOL    HW120019   3.472   3.045   9.618  1.5632  2.3493  0.6137
36098SOL    HW220020   3.555   2.928   9.666  0.0077  0.5299 -0.9557
36099SOL     OW20021   7.983  10.872  10.886 -0.5999  0.0164  0.1421
36099SOL    HW120022   7.898  10.917  10.879 -1.1555 -1.2072 -1.4739
36099SOL    HW220023   8.048  10.940  10.868 -1.2897  0.7076  0.2119
36100SOL     OW20024   6.441  10.427   9.362  0.2753 -0.1840 -0.0967
36100SOL    HW120025   6.483  10.512   9.375 -0.1246  0.2561 -1.5732
36100SOL    HW220026   6.456  10.406   9.270  0.1463 -1.6032  0.1797
36101SOL     OW20027   2.743  11.841  10.661  0.5267 -0.2199 -0.1351
36101SOL    HW120028   2.653  11.872  10.649  0.7082  0.0173 -0.9754
36101SOL    HW220029   2.778  11.835  10.572  2.0738  1.8867  0.2458
36102SOL     OW20030   2.239   3.431   7.731  0.4314 -0.1145 -0.0249
36102SOL    HW120031   2.332   3.407   7.729  0.3886 -0.2143 -0.8052
36102SOL    HW220032   2.204   3.383   7.806  1.0283 -0.0032  0.3335
36103SOL     OW20033  12.115  10.798   9.737  0.5089  0.4657 -0.6366
36103SOL    HW120034  12.082  10.748   9.811 -1.9704  1.1110 -1.1969
36103SOL    HW220035  12.135  10.732   9.670  0.6736  0.0161 -0.1475
36104SOL     OW20036  11.361   7.014   8.953 -0.0941  0.3628  0.1884
36104SOL    HW120037  11.319   6.929   8.963  0.9395 -0.1522  0.3977
36104SOL    HW220038  11.353   7.055   9.039 -0.9734  0.6653 -0.0354
36105SOL     OW20039   0.990   3.775   2.746  0.0111 -0.2683  0.1648
36105SOL    HW120040   0.997   3.804   2.837  0.2887  1.3251 -0.3293
36105SOL    HW220041   1.081   3.759   2.719 -0.0733 -0.7695  0.1619
36106SOL     OW20042  12.833  11.153   8.610  0.1539  0.2488 -0.2916
36106SOL    HW120043  12.908  11.211   8.597  0.7673  0.1696  2.3323
36106SOL    HW220044  12.860  11.070   8.573  0.2526  0.9187 -1.8061
36107SOL     OW20045  10.182  10.029   8.475 -0.2265 -0.1521 -0.3457
36107SOL    HW120046  10.163  10.116   8.441 -0.0668 -0.2394 -0.6637
36107SOL    HW220047  10.095   9.990   8.490 -0.3009  0.2682  0.3544
36108SOL     OW20048   2.549   3.214   0.482 -0.3365 -0.3018 -0.0028
36108SOL    HW120049   2.565   3.208   0.577 -2.1031  0.2210  0.3632
36108SOL    HW220050   2.500   3.134   0.461 -0.8257  0.0669 -0.2756
36109SOL     OW20051   8.809   8.131  10.722  0.0430 -0.2513  0.8013
36109SOL    HW120052   8.812   8.041  10.756 -0.5161 -1.0972 -1.2229
36109SOL    HW220053   8.749   8.126  10.648  0.4894  1.6768  0.2644
36110SOL     OW20054  13.602   8.872   8.736 -0.7269  0.5422  0.0660
36110SOL    HW120055  13.561   8.829   8.661  0.6865 -0.9575  0.0953
36110SOL    HW220056  13.621   8.801   8.798  0.3770  1.3936  0.7589
36111SOL     OW20057  13.042   4.904  11.781 -0.4300  0.4185  0.1281
36111SOL    HW120058  13.004   4.856  11.707  1.9286 -0.5711 -0.5600
36111SOL    HW220059  13.077   4.984  11.742 -0.1573  0.4261  0.3847
36112SOL     OW20060   7.721   0.816  13.734 -0.1303 -0.3767  0.0471
36112SOL    HW120061   7.799   0.787  13.782 -0.2299  0.0885  0.4987
36112SOL    HW220062   7.753   0.835  13.646 -0.0486 -1.7752 -0.2560
36113SOL     OW20063   3.188   1.521   2.077 -0.1708 -0.4505  0.2395
36113SOL    HW120064   3.145   1.509   1.992 -0.5995 -2.4067  0.6714
36113SOL    HW220065   3.265   1.464   2.073 -0.8591 -1.5218  1.5736
36114SOL     OW20066   1.467   6.596   6.975 -0.3684 -0.0520 -0.1216
36114SOL    HW120067   1.549   6.616   7.021 -0.6024  0.0219  0.2757
36114SOL    HW220068   1.476   6.504   6.949 -1.0267 -0.7169  1.8223
36115SOL     OW20069   0.053   3.104   1.330 -0.3783 -0.8457  0.0109
36115SOL    HW120070   0.093   3.066   1.409  1.0016  0.1339 -0.1682
36115SOL    HW220071   0.042   3.030   1.271 -1.2378 -1.5601  1.0268
36116SOL     OW20072   9.961   1.680  12.539  0.2860 -0.4120 -0.8268
36116SOL    HW120073  10.020   1.606  12.533  3.0641  1.5151  0.5966
36116SOL    HW220074   9.982   1.734  12.462  0.8311  0.5824  0.0080
36117SOL     OW20075   4.628   4.004  11.286 -0.5625  0.1255  0.2671
36117SOL    HW120076   4.614   3.909  11.282 -1.1333  0.2267 -0.5951
36117SOL    HW220077   4.713   4.018  11.244 -0.7604  0.0461 -0.1629
36118SOL     OW20078   3.910  11.316   2.488 -0.5391 -0.1854  0.4544
36118SOL    HW120079   3.990  11.280   2.449 -2.2214 -0.0539 -3.6416
36118SOL    HW220080   3.858  11.239   2.511 -0.7992 -0.3712 -0.6686
36119SOL     OW20081   1.871   3.536  13.446  0.0176 -0.3753 -0.2408
36119SOL    HW120082   1.896   3.628  13.437 -1.9344  0.1355 -1.0549
36119SOL    HW220083   1.860   3.505  13.356  0.7562 -1.4700  0.0157
36120SOL     OW20084   3.028  13.193  12.897  0.6677  0.0641  0.3763
36120SOL    HW120085   2.941  13.209  12.860  0.4142 -0.3089  0.7868
36120SOL    HW220086   3.063  13.120  12.846  1.5619  1.4705 -1.0772
36121SOL     OW20087   4.245   3.288   3.898 -0.4814  0.4358  0.0145
36121SOL    HW120088   4.236   3.305   3.992  1.3950  0.1456  0.2932
36121SOL    HW220089   4.183   3.218   3.880 -0.5363  0.1702  1.1538
36122SOL     OW20090  10.456   2.460   4.044 -0.1235 -0.1600 -0.0240
36122SOL    HW120091  10.365   2.489   4.031 -0.3338 -0.8119 -0.0398
36122SOL    HW220092  10.454   2.367   4.023  0.4960 -0.2380  0.2633
36123SOL     OW20093   2.959  12.774  10.172  0.0865 -0.4104 -0.5511
36123SOL    HW120094   3.049  12.743  10.163  0.3294  0.3736 -0.8500
36123SOL    HW220095   2.964  12.868  10.157 -0.4753 -0.0280  1.3475
36124SOL     OW20096  12.493   3.568  12.570 -0.8413 -0.1253  0.2952
36124SOL    HW120097  12.404   3.537  12.556 -0.6266 -0.5980 -0.0590
36124SOL    HW220098  12.493   3.599  12.661 -1.3640 -0.1158  0.2972
36125SOL     OW20099   2.202   3.049   8.937 -0.2392 -0.4721  0.2272
36125SOL    HW120100   2.222   2.996   8.859 -0.3649 -0.4281  0.1648
36125SOL    HW220101   2.239   3.135   8.918 -1.1180 -0.1775 -0.1998
36126SOL     OW20102   1.237  11.383  11.356  0.1699 -0.2934  0.2566
36126SOL    HW120103   1.290  11.303  11.351  1.2916  0.4019  0.5603
36126SOL    HW220104   1.173  11.366  11.425  1.8461 -0.1418  1.9395
36127SOL     OW20105   2.964   4.019   2.856  0.0811 -0.2132  0.3077
36127SOL    HW120106   3.044   3.999   2.904  0.8997 -0.1369 -0.9779
36127SOL    HW220107   2.975   4.110   2.828 -0.8752  0.0970  0.9128
36128SOL     OW20108  11.221   0.704   6.886 -0.5297 -0.0464 -0.2380
36128SOL    HW120109  11.167   0.679   6.961  1.7551 -1.8854  0.9058
36128SOL    HW220110  11.272   0.778   6.917 -0.9446  0.4249 -0.6596
36129SOL     OW20111  12.514   9.656   3.372 -0.8509  0.1815  0.2605
36129SOL    HW120112  12.540   9.676   3.282 -1.4038 -0.0237  0.0559
36129SOL    HW220113  12.470   9.572   3.366  0.6892 -0.7262  0.9970
36130SOL     OW20114  11.795   7.732   8.796 -0.0230  0.2524  0.1671
36130SOL    HW120115  11.705   7.720   8.825 -0.4308  1.4067 -0.5587
36130SOL    HW220116  11.798   7.821   8.761  1.5440  0.4596  0.7198
36131SOL     OW20117   7.537   3.676   7.415 -0.8223  0.6611  0.6059
36131SOL    HW120118   7.522   3.743   7.348 -2.5003  0.3651  0.6465
36131SOL    HW220119   7.562   3.598   7.365 -1.7875  0.5178  0.3365
36132SOL     OW20120  10.473   2.617   5.140 -0.0124  0.0159 -0.1151
36132SOL    HW120121  10.564   2.610   5.113 -0.0861  0.1288 -0.3938
36132SOL    HW220122  10.429   2.662   5.068 -0.6198 -1.4352 -0.7008
36133SOL     OW20123  11.528   4.350   9.434 -0.8242  0.1383 -0.4393
36133SOL    HW120124  11.614   4.313   9.416 -1.2045 -0.6262 -0.7127
36133SOL    HW220125  11.526   4.361   9.529  0.2048  1.7650 -0.5614
36134SOL     OW20126   5.859   4.159   8.297  0.4997  0.9992  0.2355
36134SOL    HW120127   5.866   4.242   8.343  0.1700  0.9785  0.3203
36134SOL    HW220128   5.766   4.147   8.281  0.5554  0.7012  0.1189
36135SOL     OW20129   0.667  11.570  11.326  0.0836 -0.3865  0.3244
36135SOL    HW120130   0.653  11.476  11.335 -2.0878  0.0437  2.4950
36135SOL    HW220131   0.748  11.587  11.374 -0.6209 -0.9255  1.7620
36136SOL     OW20132   8.569  11.364  12.476 -0.1508  0.3080  0.3208
36136SOL    HW120133   8.555  11.394  12.386  1.9987 -1.6950 -0.7875
36136SOL    HW220134   8.519  11.283  12.483  0.1951  0.1228  0.7227
36137SOL     OW20135   9.132  13.628   5.558  0.1378  0.5028 -0.0308
36137SOL    HW120136   9.214  13.590   5.526 -0.0731  1.1422 -1.4123
36137SOL    HW220137   9.070  13.615   5.487 -0.2226  2.4223 -0.1352
36138SOL     OW20138   2.788  10.136   5.371 -0.2276  0.6556 -0.7606
36138SOL    HW120139   2.840  10.144   5.450  0.3360  1.5220 -1.2075
36138SOL    HW220140   2.714  10.195   5.383 -1.4777 -0.9901  0.1159
36139SOL     OW20141  13.500   3.740  13.358  0.0670 -0.5938  0.0930
36139SOL    HW120142  13.446   3.754  13.280  1.1968 -0.6937 -0.7302
36139SOL    HW220143  13.474   3.810  13.418  0.3629  0.5241 -1.0354
36140SOL     OW20144   9.226   1.401  10.372 -0.2117 -0.2814  0.1891
36140SOL    HW120145   9.215   1.489  10.335 -0.1424 -1.1961 -2.1962
36140SOL    HW220146   9.303   1.366  10.327 -1.4894 -2.3198 -0.5127
36141SOL     OW20147  10.763   1.446  12.312 -0.0169 -0.4727  0.0609
36141SOL    HW120148  10.811   1.508  12.256  0.5593  0.5647  1.6292
36141SOL    HW220149  10.831   1.388  12.346 -0.0308  0.2279  1.3194
36142SOL     OW20150   3.472  13.026  10.454 -0.2558  0.1537 -0.2598
36142SOL    HW120151   3.539  12.958  10.456 -0.3380  0.0772 -0.1000
36142SOL    HW220152   3.517  13.103  10.421 -0.3889 -0.2260 -1.3726
36143SOL     OW20153   3.050   4.665   1.557 -0.6146  0.3723 -0.5220
36143SOL    HW120154   3.144   4.645   1.555 -0.4759  0.8412  0.5336
36143SOL    HW220155   3.045   4.760   1.562 -1.1337  0.3425 -0.3456
36144SOL     OW20156   1.823   5.294   4.326 -0.7123 -0.3428 -0.3058
36144SOL    HW120157   1.867   5.373   4.357  0.8718 -1.4803  0.5106
36144SOL    HW220158   1.750   5.282   4.388 -0.8468  0.3460 -0.3183
36145SOL     OW20159   6.658   2.731  11.862  0.2862  0.1910 -0.2054
36145SOL    HW120160   6.718   2.800  11.836  2.1125 -1.1658  0.2146
36145SOL    HW220161   6.652   2.738  11.958 -1.4522  1.2269 -0.3365
36146SOL     OW20162  12.492   0.520   1.380  0.1367 -0.0803 -0.9223
36146SOL    HW120163  12.549   0.455   1.339  0.6290 -0.3221  0.0972
36146SOL    HW220164  12.507   0.508   1.474  0.1109  1.4038 -0.7092
36147SOL     OW20165   0.646   0.861   1.468  0.1551 -0.0935  0.5264
36147SOL    HW120166   0.583   0.873   1.397  0.9883 -0.5780 -0.3170
36147SOL    HW220167   0.724   0.909   1.439  1.1729 -1.8788  0.2133
36148SOL     OW20168   6.851  13.520   4.446  0.3539  0.3166  0.1227
36148SOL    HW120169   6.833  13.515   4.539  0.3730  3.9178  0.4546
36148SOL    HW220170   6.947  13.527   4.440  0.2465  2.8456  0.1715
36149SOL     OW20171   2.549  12.999   1.475  0.8663  0.1130  0.1315
36149SOL    HW120172   2.534  12.905   1.486 -1.8793  0.5396  0.8454
36149SOL    HW220173   2.589  13.027   1.557  1.6730 -0.3989 -0.0733
36150SOL     OW20174   8.291   5.622   0.415  0.1228 -0.3505 -0.4229
36150SOL    HW120175   8.345   5.680   0.468  0.9906 -1.9647  0.5423
36150SOL    HW220176   8.216   5.601   0.471  1.1732 -2.2710  0.3437
36151SOL     OW20177   2.249   6.359   0.107  0.0918  0.3317 -0.5150
36151SOL    HW120178   2.170   6.364   0.053  0.2457  1.0159 -0.6857
36151SOL    HW220179   2.231   6.415   0.182  0.9432  1.6385 -1.2559
36152SOL     OW20180   4.463   2.023  13.639 -0.1597 -0.4546  0.1546
36152SOL    HW120181   4.438   2.060  13.724  0.8998  2.0737 -0.5409
36152SOL    HW220182   4.474   2.099  13.582 -1.5464 -2.0901 -2.5148
36153SOL     OW20183   4.668   6.578  10.256  0.4522 -0.2477 -0.3310
36153SOL    HW120184   4.686   6.654  10.312 -1.7091 -0.3016  0.5597
36153SOL    HW220185   4.622   6.615  10.180  0.5899 -0.5079 -0.5411
36154SOL     OW20186   9.146   4.338   5.544 -0.0657 -0.3570  0.0566
36154SOL    HW120187   9.207   4.375   5.608  0.8017  0.6582 -1.2930
36154SOL    HW220188   9.201   4.312   5.471 -1.0454 -1.4101 -0.3362
36155SOL     OW20189   1.341   1.620   7.872 -0.4348 -0.7664 -0.6216
36155SOL    HW120190   1.372   1.606   7.961 -0.5129 -0.6671 -0.5782
36155SOL    HW220191   1.419   1.646   7.822 -0.3751 -0.9060 -0.6018
36156SOL     OW20192   7.058   3.351   0.405  0.7157 -0.2874  0.5752
36156SOL    HW120193   7.101   3.293   0.341  0.6579  1.2880 -0.9836
36156SOL    HW220194   6.966   3.326   0.401  0.3795  1.0018 -1.4436
36157SOL     OW20195  10.450   0.927   6.980  0.5467 -0.0133 -0.1878
36157SOL    HW120196  10.503   0.901   6.904  0.0959 -0.7313 -0.2673
36157SOL    HW220197  10.359   0.913   6.951  0.3411  0.5054  0.1967
36158SOL     OW20198  10.234   9.119   4.689  0.3877 -0.3239 -0.1126
36158SOL    HW120199  10.176   9.070   4.748  0.1092 -2.2930 -1.8651
36158SOL    HW220200  10.269   9.190   4.742 -0.4775 -1.4926  2.1526
36159SOL     OW20201   7.915   6.321   7.344  0.4547 -0.0524  0.3580
36159SOL    HW120202   7.831   6.352   7.377  1.2210  3.6279 -0.7346
36159SOL    HW220203   7.972   6.321   7.421  0.6519  2.4503  0.3001
36160SOL     OW20204   4.547   4.591   4.953 -0.1072  0.5844 -0.5736
36160SOL    HW120205   4.526   4.602   5.046 -0.7001 -0.8140 -0.5120
36160SOL    HW220206   4.605   4.515   4.951 -0.9959 -0.0938 -1.4394
36161SOL     OW20207   3.777  12.837  12.851  0.2249 -0.5186  0.3652
36161SOL    HW120208   3.743  12.751  12.876 -0.1338 -0.5330 -0.1599
36161SOL    HW220209   3.699  12.887  12.825  0.3931  0.0675  0.9482
36162SOL     OW20210   8.607   2.792   4.807  0.1665 -0.1564 -0.1922
36162SOL    HW120211   8.620   2.867   4.864  1.8761 -0.1048 -0.6026
36162SOL    HW220212   8.693   2.775   4.768 -1.1573  0.7971 -4.0212
36163SOL     OW20213   1.718   1.368   0.400  0.3515  0.0876 -0.1584
36163SOL    HW120214   1.751   1.307   0.334  3.5746  1.4375  0.0150
36163SOL    HW220215   1.737   1.327   0.484 -0.7699 -0.1997 -0.0305
36164SOL     OW20216  12.633   7.849   1.047 -0.1483  0.2894  0.2123
36164SOL    HW120217  12.585   7.909   0.990  1.0520  0.0616 -1.0904
36164SOL    HW220218  12.695   7.905   1.094 -1.9176  0.6545  2.2445
36165SOL     OW20219   7.501   1.339  10.121  0.1576 -0.7760 -0.3095
36165SOL    HW120220   7.435   1.377  10.064 -0.7213 -1.7849  0.0051
36165SOL    HW220221   7.582   1.385  10.098 -0.0704 -1.4325 -2.6838
36166SOL     OW20222   2.171  11.577  10.618  0.5696  0.1543 -0.4592
36166SOL    HW120223   2.098  11.559  10.558  0.2937  0.5343 -0.2443
36166SOL    HW220224   2.232  11.629  10.566  0.4794  0.2119 -0.5088
36167SOL     OW20225  12.257  12.868   9.802  0.4449 -0.7567  0.1100
36167SOL    HW120226  12.272  12.785   9.758  0.4074 -0.5648 -0.2731
36167SOL    HW220227  12.325  12.926   9.768 -0.4327 -0.2025 -0.7690
36168SOL     OW20228   9.468   1.654  11.641  0.2170  0.5569 -0.6682
36168SOL    HW120229   9.525   1.642  11.565 -1.2853  0.2631 -1.7835
36168SOL    HW220230   9.382   1.676  11.604 -0.2148  1.8714  0.9799
36169SOL     OW20231   2.293   0.627   3.388 -0.2561 -0.1125 -0.1104
36169SOL    HW120232   2.255   0.619   3.301 -0.3107 -2.1542  0.0386
36169SOL    HW220233   2.218   0.623   3.447 -0.3046  2.1522  0.0596
36170SOL     OW20234   3.071  10.675   8.149  0.0501  0.0649  0.8110
36170SOL    HW120235   3.106  10.753   8.192 -1.3214  1.3999 -0.3772
36170SOL    HW220236   2.986  10.661   8.191 -0.2675 -0.0074  0.1632
36171SOL     OW20237   4.719  13.463   3.536  0.2180 -0.1505 -0.2066
36171SOL    HW120238   4.678  13.548   3.526  0.1133 -0.1433  0.2657
36171SOL    HW220239   4.741  13.436   3.446  1.8998  1.1702 -0.2467
36172SOL     OW20240   6.581   5.178   7.690 -0.4527 -0.2605 -0.1075
36172SOL    HW120241   6.615   5.262   7.658  0.3186 -0.4276  0.2572
36172SOL    HW220242   6.509   5.157   7.630  0.5651 -0.2743 -1.3824
36173SOL     OW20243   5.764  10.066   7.526 -0.1733 -0.7242 -0.0610
36173SOL    HW120244   5.788   9.981   7.563  1.9371 -2.1969 -4.2167
36173SOL    HW220245   5.683  10.049   7.478  0.4745 -0.5625 -1.2485
36174SOL     OW20246  12.659  12.840  13.382 -0.0961 -0.4611 -0.2531
36174SOL    HW120247  12.583  12.865  13.329 -0.5676 -1.0847  0.1230
36174SOL    HW220248  12.711  12.920  13.387 -0.0609 -0.3630 -1.6115
36175SOL     OW20249   7.974   9.123   1.020 -0.0605 -0.2265  0.1483
36175SOL    HW120250   7.977   9.179   1.098 -1.1171 -1.1560  0.8861
36175SOL    HW220251   7.882   9.103   1.009  0.2828 -1.7902 -0.1095
36176SOL     OW20252   9.627  11.684   8.880  0.1890 -0.2625  0.0363
36176SOL    HW120253   9.624  11.776   8.904  0.0751  0.0262 -1.0573
36176SOL    HW220254   9.677  11.642   8.951  0.5193  0.6760  0.3665
36177SOL     OW20255   4.606  13.272   2.047  0.1945  0.2216 -0.1912
36177SOL    HW120256   4.534  13.335   2.053 -0.4113 -0.2745 -1.6244
36177SOL    HW220257   4.678  13.321   2.008  0.8313  0.8406  1.6645
36178SOL     OW20258   1.646  10.139   5.378 -0.9948 -0.3608 -0.2852
36178SOL    HW120259   1.734  10.141   5.415 -1.0269 -0.0512 -0.2303
36178SOL    HW220260   1.598  10.207   5.424 -1.1042 -0.1396 -0.7219
36179SOL     OW20261   6.495  11.760   0.962 -0.1375  0.2565 -0.8023
36179SOL    HW120262   6.503  11.675   0.920 -1.6609  0.2262 -1.0783
36179SOL    HW220263   6.489  11.741   1.055  0.1476  0.1035 -0.8166
36180SOL     OW20264   7.256   0.442   7.708  0.1881  0.7887 -0.5210
36180SOL    HW120265   7.284   0.409   7.793  1.3824  0.7702 -0.9107
36180SOL    HW220266   7.226   0.532   7.726 -3.1809 -0.4036  0.5632
36181SOL     OW20267  13.739  10.707   1.606 -0.0064  0.4666  0.3867
36181SOL    HW120268  13.801  10.671   1.543 -2.1233 -2.3263 -0.3071
36181SOL    HW220269  13.769  10.676   1.691 -0.8694 -1.6948 -0.0448
36182SOL     OW20270   0.385  10.647  10.937 -0.0571 -0.7656 -0.3656
36182SOL    HW120271   0.353  10.715  10.996 -1.5401 -0.5389 -1.3821
36182SOL    HW220272   0.367  10.565  10.984  2.1577 -0.5202  1.0649
36183SOL     OW20273  13.002   4.028   2.710 -0.3239 -0.3320  0.3770
36183SOL    HW120274  12.997   4.063   2.799 -0.2252  3.1152 -0.7929
36183SOL    HW220275  13.093   4.002   2.699 -0.3877 -1.0057  1.3239
36184SOL     OW20276   9.624   7.559   8.912 -0.3423  0.5056  0.2166
36184SOL    HW120277   9.549   7.618   8.916  0.1653  1.1959 -0.0602
36184SOL    HW220278   9.698   7.617   8.890  0.5005  0.0540  1.7050
36185SOL     OW20279  12.285   1.078   4.907 -0.7539 -0.1535  0.2544
36185SOL    HW120280  12.198   1.097   4.874 -0.0525  0.9151 -1.0989
36185SOL    HW220281  12.323   1.020   4.841  0.0036  0.4455  0.1508
36186SOL     OW20282   3.555  11.498   9.919  0.1834  0.5720  0.3951
36186SOL    HW120283   3.596  11.415   9.895  0.8581  1.0387 -0.0821
36186SOL    HW220284   3.615  11.537   9.983 -0.5717  0.2975  1.2975
36187SOL     OW20285   3.344   5.343   4.129  0.2782 -0.3295  0.4147
36187SOL    HW120286   3.280   5.296   4.183  0.9593 -0.5754  1.0252
36187SOL    HW220287   3.388   5.274   4.079 -0.0145 -0.1470 -0.1113
36188SOL     OW20288  12.941   1.066   3.388 -0.2226  0.0391  0.2287
36188SOL    HW120289  12.995   1.145   3.386  0.1055 -0.1899  0.0099
36188SOL    HW220290  12.990   1.002   3.336 -0.6869 -0.1789  0.0538
36189SOL     OW20291  13.191   2.366   3.028  0.5123  0.0673  0.3413
36189SOL    HW120292  13.174   2.460   3.031  1.9564  0.3382  0.8933
36189SOL    HW220293  13.222   2.344   3.116 -2.1934 -1.4588  1.0262
36190SOL     OW20294  10.364  12.713   6.684 -0.0541 -0.1439  0.1694
36190SOL    HW120295  10.369  12.619   6.705  0.4780 -0.5047 -1.3902
36190SOL    HW220296  10.271  12.728   6.665  0.0950 -0.8041 -1.2723
36191SOL     OW20297   3.344   2.090   1.887  0.4963 -0.4153  0.0051
36191SOL    HW120298   3.330   2.021   1.952  0.3348  0.6366  1.1273
36191SOL    HW220299   3.303   2.167   1.925 -0.5448  0.0138 -1.8282
36192SOL     OW20300   9.113   6.582   7.365 -0.6314  0.2468 -0.4197
36192SOL    HW120301   9.072   6.650   7.311 -0.7960  0.9562  0.5683
36192SOL    HW220302   9.189   6.625   7.403 -0.5857 -0.2098  0.0069
36193SOL     OW20303   5.834   9.438   0.111 -0.1214 -0.2410  0.7783
36193SOL    HW120304   5.785   9.458   0.190  0.2833  3.3786  0.2788
36193SOL    HW220305   5.778   9.467   0.039 -0.5207 -3.5036 -0.4320
36194SOL     OW20306  12.926   5.979  10.558  0.1702 -0.0933 -0.1351
36194SOL    HW120307  13.014   5.954  10.583  0.3872  0.0796 -0.7095
36194SOL    HW220308  12.878   5.986  10.641  0.3426 -1.4685  0.1013
36195SOL     OW20309   7.689   3.906   5.005 -0.1825 -0.1324  0.7716
36195SOL    HW120310   7.604   3.863   5.011  0.1850 -0.9797  0.0469
36195SOL    HW220311   7.750   3.843   5.042  0.1428  0.4640  1.2655
36196SOL     OW20312  10.587   2.891   9.052  0.2199 -1.1428  0.0749
36196SOL    HW120313  10.647   2.855   8.987  2.8755  1.6429  0.7624
36196SOL    HW220314  10.623   2.864   9.137  1.0930  1.1651  0.5238
36197SOL     OW20315  12.640  12.284   0.041 -0.5946 -0.8154 -0.2142
36197SOL    HW120316  12.549  12.265   0.019 -0.6868 -1.1085  0.3908
36197SOL    HW220317  12.649  12.379   0.027 -1.0708 -0.7350  0.0088
36198SOL     OW20318   3.565   2.456   2.598 -0.1353 -0.4429 -0.2179
36198SOL    HW120319   3.656   2.478   2.618 -0.6375  0.5482  1.1810
36198SOL    HW220320   3.569   2.411   2.514  1.5968 -0.0141 -0.4109
36199SOL     OW20321  11.984   4.446   8.278  0.0831 -0.1427 -0.0339
36199SOL    HW120322  11.916   4.385   8.250  0.6313 -2.2050  2.8081
36199SOL    HW220323  12.062   4.418   8.230 -0.6427  1.5255 -2.4283
36200SOL     OW20324  10.698   4.286  12.302  0.3315  0.6535 -0.4179
36200SOL    HW120325  10.625   4.338  12.336  1.0011  1.4890 -0.2259
36200SOL    HW220326  10.709   4.315  12.212 -0.4115 -0.4297 -0.8886
36201SOL     OW20327  12.474   2.429  11.288  0.2004 -0.0159 -0.0054
36201SOL    HW120328  12.398   2.460  11.239 -0.3203 -0.3947  0.5516
36201SOL    HW220329  12.543   2.492  11.266 -0.6713  1.2325  0.6633
36202SOL     OW20330   2.700   9.223  12.271  0.2586  0.4016 -0.2489
36202SOL    HW120331   2.745   9.285  12.328 -2.8071  1.8221  0.8465
36202SOL    HW220332   2.672   9.275  12.196  0.4168 -0.4452 -0.9119
36203SOL     OW20333   6.938   6.348  12.425  0.0849 -0.1629  0.3038
36203SOL    HW120334   6.869   6.334  12.490 -0.9812  0.3291 -0.6723
36203SOL    HW220335   6.988   6.421  12.459 -0.8614  0.5200  0.2816
36204SOL     OW20336   3.934   6.992  12.064 -0.2317  0.2828  0.2179
36204SOL    HW120337   3.862   6.953  12.113 -0.6989  1.2612  0.3293
36204SOL    HW220338   3.917   6.967  11.973 -0.1566 -0.3271  0.3688
36205SOL     OW20339   6.924   9.997   4.281 -0.4048 -0.2888 -0.0982
36205SOL    HW120340   6.882  10.027   4.362 -0.1654 -0.8329  0.2320
36205SOL    HW220341   6.993  10.062   4.264 -0.5367 -0.1048  0.0670
36206SOL     OW20342  12.459   1.616   9.342  0.4646 -0.4844  0.1177
36206SOL    HW120343  12.533   1.620   9.281  0.4499 -0.6233  0.0899
36206SOL    HW220344  12.460   1.701   9.387 -0.7194  0.4048 -1.4479
36207SOL     OW20345  10.985   9.727  12.658  0.3352 -0.3017  0.5700
36207SOL    HW120346  11.007   9.799  12.717  0.6191 -0.6495  0.8923
36207SOL    HW220347  10.939   9.664  12.713 -0.3878 -0.1306  0.1665
36208SOL     OW20348   2.871   8.174   8.536 -0.3075 -0.7651  0.2647
36208SOL    HW120349   2.850   8.161   8.629 -4.8932  3.1289  0.1637
36208SOL    HW220350   2.895   8.267   8.530 -0.0243 -0.9388 -2.4525
36209SOL     OW20351  11.995   8.816   0.960 -0.3120  0.5291  0.0732
36209SOL    HW120352  12.065   8.765   1.000  0.4037  0.1617 -1.5620
36209SOL    HW220353  12.013   8.812   0.866 -1.4273  2.0569 -0.2472
36210SOL     OW20354  12.192   1.675  12.613  0.1130 -0.4302  0.2343
36210SOL    HW120355  12.167   1.752  12.664  0.2869  1.4736 -2.3263
36210SOL    HW220356  12.280   1.653  12.642  1.0002  1.8628 -0.5497
36211SOL     OW20357   1.390   5.284   3.968 -0.7917 -0.1376 -0.1829
36211SOL    HW120358   1.434   5.368   3.982 -0.3856 -0.3657 -0.0606
36211SOL    HW220359   1.458   5.219   3.985 -1.5199 -0.5409  1.3115
36212SOL     OW20360   9.519   7.572   4.502 -0.0144 -0.0963 -0.4156
36212SOL    HW120361   9.517   7.596   4.409  0.6711  1.9316  0.0378
36212SOL    HW220362   9.478   7.486   4.505  1.8452 -1.2109 -2.8730
36213SOL     OW20363   6.676  10.268  12.651 -0.6343 -0.2355 -0.7328
36213SOL    HW120364   6.587  10.261  12.617 -0.4895 -0.7622 -1.0357
36213SOL    HW220365   6.722  10.320  12.585 -0.4536 -0.9108 -1.1580
36214SOL     OW20366  13.511   4.787   8.230 -0.4631 -0.4478 -0.4858
36214SOL    HW120367  13.585   4.727   8.220  0.9098  1.1331 -0.2131
36214SOL    HW220368  13.502   4.829   8.144 -0.1282  0.3719 -0.1265
36215SOL     OW20369  12.499   1.624   5.288 -0.4290 -0.8210  0.5982
36215SOL    HW120370  12.556   1.700   5.302  1.7520 -2.5192  1.6463
36215SOL    HW220371  12.460   1.638   5.202  1.4427  0.5803 -0.0825
36216SOL     OW20372   6.638  10.888   3.264 -0.3148  0.2633  0.2487
36216SOL    HW120373   6.595  10.906   3.180  0.8893  0.5682 -0.3255
36216SOL    HW220374   6.644  10.973   3.307  2.5948  0.9070 -1.1236
36217SOL     OW20375   9.815   5.911   8.948 -0.0504  0.3128  0.1785
36217SOL    HW120376   9.865   5.940   9.025 -1.8775  2.7596  0.5499
36217SOL    HW220377   9.878   5.912   8.877  0.9112  1.3809  1.0018
36218SOL     OW20378  13.744   8.065   7.633 -0.2237  0.1317 -0.3131
36218SOL    HW120379  13.682   8.043   7.564  1.4169 -1.0274 -1.5133
36218SOL    HW220380  13.763   7.981   7.677 -0.3975  0.6644  0.8211
36219SOL     OW20381   5.295   0.857   2.787  0.8527 -0.2615 -0.0835
36219SOL    HW120382   5.391   0.857   2.792  0.7867  0.0093  2.4738
36219SOL    HW220383   5.269   0.947   2.808  0.0210 -0.0393 -1.8699
36220SOL     OW20384   0.948   1.703  12.285 -0.1193  0.1642  0.3097
36220SOL    HW120385   1.006   1.778  12.275 -0.3321  0.4347  0.9825
36220SOL    HW220386   0.873   1.722  12.229  0.1704  0.0976 -0.0978
36221SOL     OW20387  10.337   0.086   4.831 -0.4110  0.4627  0.5441
36221SOL    HW120388  10.354   0.149   4.901  0.9003 -0.4474  1.1034
36221SOL    HW220389  10.382   0.122   4.755  0.4642  0.1653  0.9011
36222SOL     OW20390   0.915  10.173  13.014 -0.4069 -0.2400 -0.1964
36222SOL    HW120391   0.980  10.232  13.051 -0.5328  0.8057 -1.5909
36222SOL    HW220392   0.943  10.086  13.042  0.7430  0.3239  0.4514
36223SOL     OW20393   0.276   1.748   2.074 -0.2407  0.1763 -0.2390
36223SOL    HW120394   0.246   1.658   2.067 -1.5263  0.5373  0.3713
36223SOL    HW220395   0.302   1.758   2.166 -1.5857  0.8344  0.1055
36224SOL     OW20396  13.271   7.622   7.362 -0.1213 -0.4255  0.2575
36224SOL    HW120397  13.351   7.610   7.311 -0.8049 -0.9185 -0.7345
36224SOL    HW220398  13.286   7.572   7.442  0.9696  0.3633  0.5728
36225SOL     OW20399   2.005   1.625   5.646  0.8560 -0.3398 -0.1799
36225SOL    HW120400   1.941   1.556   5.666  0.4797 -0.5468 -1.9059
36225SOL    HW220401   1.952   1.704   5.634  1.3004  0.3453  1.9219
36226SOL     OW20402   6.223   7.424   9.005  0.2568  0.1967  0.2656
36226SOL    HW120403   6.163   7.443   8.932 -0.6542  0.8946  1.1657
36226SOL    HW220404   6.246   7.509   9.040  3.0604  0.0482 -0.9937
36227SOL     OW20405   0.429   3.979  10.734 -0.2711 -0.0887  0.3809
36227SOL    HW120406   0.444   3.885  10.728 -1.1478 -0.2570  0.7037
36227SOL    HW220407   0.451   4.001  10.825  0.2237  0.0756  0.2243
36228SOL     OW20408   3.099   1.385  13.634 -0.0653  0.4367 -0.5203
36228SOL    HW120409   3.090   1.466  13.685 -0.9737  0.4963 -0.7592
36228SOL    HW220410   3.027   1.329  13.663  1.2461 -0.7866  0.4937
36229SOL     OW20411   3.321   2.542   6.367  0.7163 -0.6059  0.5421
36229SOL    HW120412   3.413   2.563   6.385  0.4136 -1.0961  2.9808
36229SOL    HW220413   3.322   2.448   6.347  0.8188 -0.4416 -0.2731
36230SOL     OW20414   1.825   4.314   0.855  0.1030 -0.3335  0.1175
36230SOL    HW120415   1.832   4.400   0.897 -0.1563 -0.4484  0.3952
36230SOL    HW220416   1.861   4.328   0.767 -0.8429  0.2910 -0.1797
36231SOL     OW20417   6.110   0.746   2.728  0.5717  0.4413  0.2566
36231SOL    HW120418   6.037   0.762   2.669 -0.1294  0.5191  1.1178
36231SOL    HW220419   6.074   0.688   2.795  1.3739  0.2743  0.5494
36232SOL     OW20420  12.902   8.685   5.733 -0.4883 -0.0929  0.7957
36232SOL    HW120421  12.906   8.612   5.795 -0.4933  0.6394  1.6894
36232SOL    HW220422  12.994   8.706   5.715 -0.4804  0.0385  0.9827
36233SOL     OW20423  12.491   4.550  12.270  0.0265  0.0443 -0.1044
36233SOL    HW120424  12.444   4.615  12.323 -1.4546 -0.4093 -0.7948
36233SOL    HW220425  12.484   4.469  12.320 -1.8451 -0.5091 -1.1657
36234SOL     OW20426   2.113   6.759  10.502 -0.3300 -0.1087  0.1458
36234SOL    HW120427   2.044   6.801  10.451 -0.2921 -1.5659 -1.1735
36234SOL    HW220428   2.067   6.697  10.560 -0.2669  0.5230  0.8908
36235SOL     OW20429   8.407   8.630   9.975  0.1192 -0.1086  0.3039
36235SOL    HW120430   8.382   8.679  10.053 -1.7476 -1.7898  0.8178
36235SOL    HW220431   8.458   8.556  10.008  0.3956 -0.1506 -0.1995
36236SOL     OW20432   3.235   7.391   6.640  0.1912  0.2604 -0.2185
36236SOL    HW120433   3.167   7.451   6.672  1.2351  1.3780 -0.0228
36236SOL    HW220434   3.286   7.368   6.717 -0.6018 -1.4699 -0.1712
36237SOL     OW20435   5.093   7.144  11.831  0.3971 -0.1427  0.0510
36237SOL    HW120436   5.099   7.183  11.743 -0.6636  0.5745  0.2764
36237SOL    HW220437   5.072   7.052  11.815  0.6137 -0.1097 -0.4529
36238SOL     OW20438   8.543   7.332  10.381  0.2047  0.4980  0.7776
36238SOL    HW120439   8.589   7.273  10.441  0.5605  1.4106  1.4223
36238SOL    HW220440   8.600   7.408  10.375 -0.7384  1.2173  0.7762
36239SOL     OW20441   8.312   7.231  10.589  0.0983 -0.6696  1.0907
36239SOL    HW120442   8.285   7.277  10.669  0.6761 -0.7070  1.3166
36239SOL    HW220443   8.344   7.300  10.531 -1.7943 -0.4508  0.2460
36240SOL     OW20444  11.188   2.765  12.771  0.1706 -0.1778 -0.3443
36240SOL    HW120445  11.122   2.698  12.754 -0.2731  0.0608  0.3662
36240SOL    HW220446  11.256   2.719  12.820 -1.6760  0.5019  3.2144
36241SOL     OW20447   2.511   5.334   9.458  0.3771 -0.4020 -0.0150
36241SOL    HW120448   2.499   5.258   9.514  1.8642 -0.0547  0.8176
36241SOL    HW220449   2.601   5.362   9.473  0.4107  0.5032 -1.6006
36242SOL     OW20450   6.129   8.815  11.294 -0.6952  0.2078 -0.0429
36242SOL    HW120451   6.129   8.727  11.255  0.4191  0.1442  0.0755
36242SOL    HW220452   6.213   8.822  11.338 -0.4823  1.5920 -0.6222
36243SOL     OW20453  11.287   7.100  10.566  0.2799  0.3283  0.6028
36243SOL    HW120454  11.282   7.004  10.565 -1.7609  0.3568  2.3073
36243SOL    HW220455  11.235   7.128  10.491  1.9323  0.1353 -0.6695
36244SOL     OW20456  12.663  12.027   9.112  0.3361 -0.2722 -0.2507
36244SOL    HW120457  12.717  12.098   9.078 -0.5358 -0.8301 -3.1039
36244SOL    HW220458  12.576  12.066   9.123  0.5159 -0.1995  1.1195
36245SOL     OW20459   4.184   5.113   8.083  0.6319  0.1607 -0.0850
36245SOL    HW120460   4.241   5.041   8.110  1.0074  0.6199  0.3790
36245SOL    HW220461   4.096   5.075   8.080  0.8062 -0.2798  0.3004
36246SOL     OW20462   8.611   7.549   9.833 -0.0776 -0.2547 -0.5407
36246SOL    HW120463   8.593   7.458   9.810  1.0307 -0.9221  1.0646
36246SOL    HW220464   8.691   7.571   9.784 -0.5523 -0.0181 -1.2139
36247SOL     OW20465  10.943  12.913  12.626 -1.2426  0.2012 -0.0690
36247SOL    HW120466  10.972  12.999  12.656  1.8078 -1.0785  1.0468
36247SOL    HW220467  10.938  12.860  12.706 -0.0385 -1.4348 -1.0212
36248SOL     OW20468  10.255   7.987   0.460  0.0794  0.0995  0.4035
36248SOL    HW120469  10.217   8.053   0.402 -1.7646  0.8473  2.3035
36248SOL    HW220470  10.223   7.904   0.427 -0.1752  0.4310 -0.1968
36249SOL     OW20471   1.544   3.974   1.340 -0.4434  0.4654  0.0746
36249SOL    HW120472   1.504   3.945   1.422 -0.2044  0.0692  0.0542
36249SOL    HW220473   1.548   4.069   1.347  1.4317  0.3384  1.3942
36250SOL     OW20474   5.468   3.994  10.677 -0.1132  0.0555 -0.1042
36250SOL    HW120475   5.420   4.077  10.674  0.5979  0.4656 -0.2922
36250SOL    HW220476   5.400   3.927  10.687 -0.7967  0.5601 -1.1985
36251SOL     OW20477  12.459   9.921   0.650 -0.1511 -0.7201 -0.1760
36251SOL    HW120478  12.432  10.008   0.681 -1.0286 -1.4363  1.2051
36251SOL    HW220479  12.539   9.901   0.699  0.0475 -0.6935 -0.4879
36252SOL     OW20480   6.169  11.574  13.391  0.0623 -0.5867  0.4782
36252SOL    HW120481   6.094  11.599  13.445  0.5165 -0.1736  0.9241
36252SOL    HW220482   6.186  11.651  13.336  0.8209 -0.2666  1.1323
36253SOL     OW20483   5.269   2.609   7.752  0.1763 -0.0481  0.1465
36253SOL    HW120484   5.293   2.554   7.827  0.8960 -0.3960 -0.3184
36253SOL    HW220485   5.194   2.660   7.782 -0.1770 -0.9018  0.7716
36254SOL     OW20486   1.377   7.404   0.587  0.3582  0.0653 -0.2376
36254SOL    HW120487   1.282   7.400   0.577  0.4079 -0.8621 -0.4382
36254SOL    HW220488   1.409   7.436   0.503  0.1949  0.9435  0.0236
36255SOL     OW20489   7.020   6.439  11.799  0.4065  0.2358 -0.2607
36255SOL    HW120490   7.049   6.522  11.761 -0.0338 -0.1261 -1.4619
36255SOL    HW220491   7.040   6.374  11.731  0.0609 -0.5202  0.3465
36256SOL     OW20492   1.179   1.946   8.338  0.0906  0.1625 -0.6204
36256SOL    HW120493   1.231   1.869   8.314 -1.4922 -0.4310 -2.3490
36256SOL    HW220494   1.091   1.911   8.354 -0.3954  1.4828 -0.3188
36257SOL     OW20495   0.409  13.459   1.039 -0.2765 -0.0525 -0.0622
36257SOL    HW120496   0.487  13.404   1.044 -0.1130  0.2447  0.7661
36257SOL    HW220497   0.337  13.401   1.067  0.0200  0.3770  1.6894
36258SOL     OW20498  11.777   1.756  12.727  0.6521 -0.2570  0.3779
36258SOL    HW120499  11.789   1.816  12.653 -1.7147  1.3732  1.1819
36258SOL    HW220500  11.727   1.683  12.692 -1.4256  1.0291  0.4843
36259SOL     OW20501   7.814  11.377   3.232 -0.0769 -0.5918 -0.0582
36259SOL    HW120502   7.757  11.302   3.216 -0.3172 -0.4424  0.1006
36259SOL    HW220503   7.755  11.451   3.244  0.1476 -0.4317  0.0850
36260SOL     OW20504   3.286   8.144   2.761  0.1335  0.1366 -0.3685
36260SOL    HW120505   3.375   8.179   2.767 -0.5071  1.6921  1.3224
36260SOL    HW220506   3.294   8.065   2.708  2.4600  0.4083 -0.5235
36261SOL     OW20507   6.953  10.961  10.002 -0.1665  0.4118  0.5817
36261SOL    HW120508   7.011  10.893  10.038  0.2689  0.6466  0.3316
36261SOL    HW220509   6.911  10.998  10.079 -0.3947 -0.1268  0.7253
36262SOL     OW20510   9.311   7.919   9.973  0.3170 -0.4878  0.0558
36262SOL    HW120511   9.364   7.840   9.980  1.6011  0.2215 -1.0910
36262SOL    HW220512   9.225   7.887   9.945  0.4562 -1.5654  0.7955
36263SOL     OW20513   3.786  10.156   7.858 -0.0162 -0.4878 -0.0529
36263SOL    HW120514   3.746  10.071   7.843  0.0759 -0.3075 -1.4989
36263SOL    HW220515   3.754  10.211   7.786  3.2816 -0.5328 -1.7612
36264SOL     OW20516   1.778   3.630   3.697  0.3530  0.1555  0.1244
36264SOL    HW120517   1.696   3.674   3.720  0.7758  1.3650 -0.5871
36264SOL    HW220518   1.833   3.641   3.775 -0.0769 -0.4604  0.5186
36265SOL     OW20519   9.298   0.925   6.681  0.1821  0.0358  0.0036
36265SOL    HW120520   9.383   0.935   6.724 -0.3131  0.6677  0.8690
36265SOL    HW220521   9.316   0.940   6.588  1.0940 -0.3292  0.1119
36266SOL     OW20522  13.166   2.447   7.526  0.2199  0.4893  0.4161
36266SOL    HW120523  13.121   2.451   7.442  0.3176 -0.7983  0.2852
36266SOL    HW220524  13.255   2.420   7.505 -0.0368 -0.9026  1.0017
36267SOL     OW20525  10.652   5.960   4.095 -0.0361  0.0042  0.2487
36267SOL    HW120526  10.596   5.945   4.171 -0.0511  0.2191  0.2802
36267SOL    HW220527  10.591   5.981   4.023  0.0044  0.3130  0.3010
36268SOL     OW20528   9.734  13.074   3.218  0.1600  0.5833  0.3393
36268SOL    HW120529   9.730  12.979   3.210  0.8693  0.6246 -0.7621
36268SOL    HW220530   9.645  13.104   3.199 -0.3828  0.0859  1.9433
36269SOL     OW20531   9.537  11.416   2.095 -0.2287  0.6517  0.1109
36269SOL    HW120532   9.450  11.454   2.081 -1.0369 -1.2976 -0.4625
36269SOL    HW220533   9.520  11.325   2.118  1.6377  0.5886  1.4473
36270SOL     OW20534   4.310   3.294   8.733  0.1300  1.0313 -0.1433
36270SOL    HW120535   4.286   3.292   8.826  0.2873  0.8291 -0.1052
36270SOL    HW220536   4.258   3.365   8.696  1.3624  2.3019  0.4682
36271SOL     OW20537   4.392   2.955   1.457 -0.3168  0.0778  0.0744
36271SOL    HW120538   4.439   2.876   1.432  0.1448  0.0114  1.1081
36271SOL    HW220539   4.360   2.937   1.546 -0.7097  0.8276  0.0948
36272SOL     OW20540   4.193   3.949  12.276 -0.2812  0.3877 -0.0725
36272SOL    HW120541   4.258   3.879  12.271  0.3686  1.0427 -1.6721
36272SOL    HW220542   4.121   3.920  12.220 -0.8126  0.2322  0.6769
36273SOL     OW20543   4.727   3.945   9.994 -0.2416  0.5790 -0.4349
36273SOL    HW120544   4.733   4.041   9.989  1.2005  0.5158 -0.2229
36273SOL    HW220545   4.687   3.920   9.911  0.0824  1.3160 -0.8285
36274SOL     OW20546   2.347  13.404   9.979 -0.2034 -0.4411 -0.3554
36274SOL    HW120547   2.405  13.328   9.969 -2.1278 -1.9715 -0.4343
36274SOL    HW220548   2.283  13.395   9.909 -1.8860 -0.0848  1.0821
36275SOL     OW20549   1.909  10.029   5.828  0.0241 -0.6354 -0.2627
36275SOL    HW120550   1.960  10.019   5.908  0.0076 -1.8051 -0.3866
36275SOL    HW220551   1.951   9.970   5.765 -0.6377 -0.5690 -0.7795
36276SOL     OW20552   1.414   8.593   2.316  0.0626 -0.5254  0.6120
36276SOL    HW120553   1.323   8.612   2.292  0.7959  2.2772 -0.4314
36276SOL    HW220554   1.447   8.539   2.245  0.1244  1.4777 -0.9897
36277SOL     OW20555   9.911   3.436   8.094 -0.0987  0.5207 -0.3750
36277SOL    HW120556  10.006   3.446   8.089  0.1144 -0.8243  0.4256
36277SOL    HW220557   9.889   3.458   8.184 -0.5947  1.0557 -0.6175
36278SOL     OW20558   6.568  10.634   2.853  0.8775  0.4129  0.1640
36278SOL    HW120559   6.647  10.651   2.801 -0.2657 -1.6359 -2.4792
36278SOL    HW220560   6.511  10.708   2.835  0.9303  0.2657 -0.6368
36279SOL     OW20561   5.895   0.295  10.239  0.3727  0.3099 -0.1572
36279SOL    HW120562   5.937   0.376  10.265 -0.8079  1.1821 -0.8695
36279SOL    HW220563   5.839   0.319  10.165 -1.6945 -0.6927  0.9877
36280SOL     OW20564   8.736  10.573   4.401  0.5875  0.4591 -0.5045
36280SOL    HW120565   8.789  10.519   4.342 -0.4599 -0.3730 -0.7127
36280SOL    HW220566   8.676  10.620   4.343 -2.0163 -2.0655 -0.0743
36281SOL     OW20567   3.705  10.919   4.427 -0.0724 -0.2979  0.2354
36281SOL    HW120568   3.657  10.879   4.354  0.5001 -0.6438  0.0422
36281SOL    HW220569   3.733  10.845   4.481 -0.2325 -0.0632  0.6513
36282SOL     OW20570   2.274   0.435   5.862  0.2745  0.5635  0.7552
36282SOL    HW120571   2.347   0.460   5.918 -0.9749  2.7233  1.5470
36282SOL    HW220572   2.196   0.450   5.917 -0.8035 -1.5826 -0.0741
36283SOL     OW20573   8.792   5.541   2.142 -0.5084 -0.3249  0.0507
36283SOL    HW120574   8.873   5.578   2.107 -0.2880 -0.9018 -0.0605
36283SOL    HW220575   8.819   5.494   2.221 -1.0230  1.0925  1.1150
36284SOL     OW20576  10.758   7.960   4.657  0.2873  0.0816 -0.4378
36284SOL    HW120577  10.833   7.930   4.709 -0.8884 -1.4636  0.4611
36284SOL    HW220578  10.749   8.052   4.679  0.7388 -0.1818  0.9639
36285SOL     OW20579   5.628   6.340  12.958 -0.0688  0.2564 -0.1741
36285SOL    HW120580   5.561   6.356  13.025  0.3100  0.0148  0.2695
36285SOL    HW220581   5.707   6.380  12.994  0.1735 -0.0128 -0.4106
36286SOL     OW20582  13.084   6.853   0.468 -0.0681  0.2558 -0.4367
36286SOL    HW120583  13.064   6.824   0.557 -0.5533  1.4148 -0.1354
36286SOL    HW220584  13.009   6.909   0.445  0.2168  0.2303 -1.4439
36287SOL     OW20585   9.141   1.141   1.050  0.3183  0.7122 -0.2074
36287SOL    HW120586   9.167   1.168   1.138 -1.1565  1.5016  0.0317
36287SOL    HW220587   9.178   1.208   0.993  0.3418  0.8141 -0.0737
36288SOL     OW20588   7.205   6.093   0.217 -0.3240  0.4930 -0.0795
36288SOL    HW120589   7.249   6.115   0.299 -1.6675  0.3848  0.7130
36288SOL    HW220590   7.232   6.161   0.156  2.0017 -0.3348 -0.0644
36289SOL     OW20591   7.773   5.695   5.888  0.6760 -0.1342  0.5822
36289SOL    HW120592   7.792   5.611   5.929  1.1318 -1.1960 -1.6404
36289SOL    HW220593   7.725   5.673   5.809 -1.8423  1.9425  1.3884
36290SOL     OW20594   9.375   2.658   4.027 -0.1778  0.4287 -0.1595
36290SOL    HW120595   9.422   2.662   3.944 -0.9965  2.2775 -0.5880
36290SOL    HW220596   9.332   2.572   4.026  0.4330  0.1176 -1.2956
36291SOL     OW20597   6.692   7.231   6.915  0.4046  0.3020 -0.4780
36291SOL    HW120598   6.690   7.146   6.871 -1.4954  0.6522 -1.1583
36291SOL    HW220599   6.729   7.212   7.001 -1.1645 -1.5052 -0.1156
36292SOL     OW20600   4.126  12.188  12.967  0.1350 -0.6439  0.2345
36292SOL    HW120601   4.059  12.181  13.035  0.2712  1.3951  0.6405
36292SOL    HW220602   4.181  12.261  12.995  1.7528 -1.4307 -0.7690
36293SOL     OW20603   4.040   1.972  10.212  0.4501  0.0851 -0.3262
36293SOL    HW120604   4.024   2.031  10.286 -0.8665  1.1113 -1.3899
36293SOL    HW220605   3.957   1.966  10.167  1.2070 -0.6084 -1.6890
36294SOL     OW20606   5.008   2.057   8.373 -0.8532 -0.2700 -0.2419
36294SOL    HW120607   5.023   2.028   8.463 -1.8414  0.6554  0.2483
36294SOL    HW220608   4.930   2.113   8.379 -0.4931  0.4028 -1.5579
36295SOL     OW20609   2.112   5.706  12.901  1.2187  0.0259  0.4545
36295SOL    HW120610   2.202   5.677  12.915  1.3740 -0.4184 -1.3135
36295SOL    HW220611   2.105   5.720  12.807 -0.5898 -0.0108  0.5495
36296SOL     OW20612   2.337  12.683   6.673 -0.1137 -0.2612  0.4655
36296SOL    HW120613   2.423  12.642   6.690 -0.0277  0.6654  2.6611
36296SOL    HW220614   2.277  12.634   6.730 -0.5505  0.7055  0.8491
36297SOL     OW20615   5.824  10.415   1.880  0.0255  0.0118  0.1961
36297SOL    HW120616   5.829  10.325   1.912  0.4975  0.0196  0.1587
36297SOL    HW220617   5.878  10.415   1.801  0.8126  0.5413  0.7147
36298SOL     OW20618  10.518  12.741  10.218  0.0996 -0.3029  0.4799
36298SOL    HW120619  10.483  12.808  10.159  0.2936 -0.1046  0.5888
36298SOL    HW220620  10.518  12.784  10.304  1.5311  0.0347  0.3248
36299SOL     OW20621   3.222   5.325   8.017 -0.1547 -0.0135  0.0317
36299SOL    HW120622   3.247   5.265   8.086 -0.9644 -0.1663  0.2067
36299SOL    HW220623   3.138   5.291   7.984  0.3290 -0.0857 -1.1945
36300SOL     OW20624  10.067   9.577   7.223 -0.1885 -0.0237 -0.0822
36300SOL    HW120625  10.075   9.554   7.131 -0.0632  1.4172 -0.4561
36300SOL    HW220626   9.990   9.528   7.253 -1.3605  0.8968 -1.4420
36301SOL     OW20627  11.827   4.472   0.259 -0.0702 -0.1324  0.1627
36301SOL    HW120628  11.915   4.436   0.248 -1.0129 -2.2915 -0.9311
36301SOL    HW220629  11.809   4.516   0.176 -0.0818  0.1460  0.3136
36302SOL     OW20630   2.972   8.980   0.630 -0.4552 -0.3221  0.9884
36302SOL    HW120631   2.896   9.015   0.584 -1.2351 -2.0088  0.9586
36302SOL    HW220632   2.941   8.902   0.675  1.8712 -3.0528 -1.6862
36303SOL     OW20633  13.027  10.730  11.767 -0.0123  0.0225  0.6485
36303SOL    HW120634  12.940  10.704  11.799  0.2993 -1.3893  0.3879
36303SOL    HW220635  13.031  10.824  11.785 -0.6658 -0.3135  2.8497
36304SOL     OW20636  13.201  11.514   4.302 -0.4351 -0.6114 -0.3917
36304SOL    HW120637  13.203  11.483   4.392  0.6181  1.0708  0.2009
36304SOL    HW220638  13.173  11.605   4.307  1.7121  0.1815 -1.5133
36305SOL     OW20639   1.850   8.937   8.500 -0.4448  0.5570 -0.6154
36305SOL    HW120640   1.828   8.878   8.572 -2.2920  0.8457 -0.8777
36305SOL    HW220641   1.889   8.880   8.434 -0.2101  0.0123 -0.0162
36306SOL     OW20642   0.026   3.863   1.896 -0.0084  0.0298 -0.5257
36306SOL    HW120643   0.049   3.931   1.959 -0.6745  0.6615 -0.9354
36306SOL    HW220644   0.013   3.911   1.813  0.0852 -0.6745 -0.9574
36307SOL     OW20645   2.669   9.174   9.363 -0.2264  0.2495  0.1567
36307SOL    HW120646   2.759   9.188   9.394 -1.0144 -0.4670  3.1138
36307SOL    HW220647   2.625   9.257   9.381 -0.3928  0.3003 -0.4577
36308SOL     OW20648   5.862   1.925  12.107 -0.0067  0.7780 -0.1801
36308SOL    HW120649   5.868   1.859  12.175 -0.8335  0.5753 -0.2918
36308SOL    HW220650   5.948   1.925  12.065  0.8102  1.5528  1.4350
36309SOL     OW20651  13.289   8.411   1.447  0.3687 -0.6570 -0.3617
36309SOL    HW120652  13.202   8.451   1.456  0.9514  0.8447 -1.1322
36309SOL    HW220653  13.274   8.334   1.391 -0.6902 -1.3326  0.7734
36310SOL     OW20654   4.538   2.927  12.102 -0.2256 -0.2750 -0.0370
36310SOL    HW120655   4.474   2.928  12.031 -0.9207  0.2436  0.5857
36310SOL    HW220656   4.608   2.985  12.073  0.7470 -2.0181 -1.3983
36311SOL     OW20657   1.883   2.560  12.391 -0.2489  0.0668 -0.7949
36311SOL    HW120658   1.875   2.580  12.484 -3.2562 -1.4011 -0.6093
36311SOL    HW220659   1.881   2.645  12.347  1.9848  0.8222  0.4424
36312SOL     OW20660   1.648   8.865   2.785  0.2448  0.2460  0.6349
36312SOL    HW120661   1.607   8.906   2.709  0.4694  3.2002  1.9302
36312SOL    HW220662   1.577   8.859   2.850  0.5894  0.0401  0.9978
36313SOL     OW20663   8.885   8.831   2.221  0.4206  0.2534  0.6350
36313SOL    HW120664   8.917   8.765   2.159 -0.0013 -1.4288  2.1379
36313SOL    HW220665   8.942   8.907   2.207  1.5617 -0.7654 -0.4566
36314SOL     OW20666   8.422   0.636   0.954  0.2322  0.2605  0.2775
36314SOL    HW120667   8.516   0.652   0.966  0.4850 -1.7617  1.5226
36314SOL    HW220668   8.401   0.677   0.871  2.0986  1.2488  0.2468
36315SOL     OW20669   7.610   3.462   9.278  0.1849  0.5082  0.0630
36315SOL    HW120670   7.694   3.500   9.305 -0.2735 -0.1048  2.6676
36315SOL    HW220671   7.633   3.401   9.209  1.4648  2.4328 -1.3310
36316SOL     OW20672   8.825   8.673   6.691 -0.6011 -0.3555  0.2294
36316SOL    HW120673   8.744   8.709   6.726 -0.9852  0.7860 -1.6870
36316SOL    HW220674   8.805   8.582   6.671 -0.5171 -0.8978  2.3809
36317SOL     OW20675   6.539   3.174   1.920  0.1109  0.1284 -0.2510
36317SOL    HW120676   6.469   3.219   1.871  0.0978  2.7837  1.9894
36317SOL    HW220677   6.620   3.204   1.880  0.0715 -0.7186 -1.0125
36318SOL     OW20678   6.179   4.928   3.254 -0.7810  0.6393 -0.4216
36318SOL    HW120679   6.210   5.011   3.290  1.2454  0.0357 -0.6680
36318SOL    HW220680   6.144   4.951   3.168 -1.7111  1.4527  0.1590
36319SOL     OW20681  13.283   3.450  11.420  0.2858  0.0696 -0.0705
36319SOL    HW120682  13.289   3.382  11.487 -1.0931 -0.4117 -0.3942
36319SOL    HW220683  13.190   3.451  11.396  0.8713 -0.3935 -2.6119
36320SOL     OW20684  12.875   6.209   0.243 -0.0198 -0.3359 -0.1509
36320SOL    HW120685  12.801   6.271   0.246 -1.1425 -1.6670  1.9962
36320SOL    HW220686  12.847   6.142   0.181 -0.5760 -0.7679  0.5578
36321SOL     OW20687   6.270   5.892   7.348 -0.9582  0.0789  0.1573
36321SOL    HW120688   6.349   5.855   7.309 -0.6267 -0.9718  1.7206
36321SOL    HW220689   6.297   5.975   7.386 -0.8851  0.2768 -0.3237
36322SOL     OW20690  10.364   1.212   8.508 -0.2463 -0.9566 -0.2967
36322SOL    HW120691  10.326   1.290   8.467  0.5251 -0.9930 -1.1064
36322SOL    HW220692  10.455   1.213   8.480  0.6952 -0.2572  2.4854
36323SOL     OW20693   9.095  13.699   2.210  0.7357  0.0492 -0.1224
36323SOL    HW120694   9.036  13.756   2.259 -1.2087 -1.3237 -0.7617
36323SOL    HW220695   9.119  13.750   2.133 -1.2497 -0.0767 -0.8684
36324SOL     OW20696   6.661  10.744   4.430  0.9623 -0.0718 -0.7086
36324SOL    HW120697   6.692  10.795   4.354  0.4080  0.5093 -0.5571
36324SOL    HW220698   6.726  10.675   4.440  1.3891  0.2213 -1.3267
36325SOL     OW20699   4.435  10.463  11.171  0.4477 -0.2029  0.7553
36325SOL    HW120700   4.450  10.546  11.125 -1.3814 -0.2604 -0.0281
36325SOL    HW220701   4.520  10.443  11.211  1.9811  0.2113 -1.9990
36326SOL     OW20702  13.231   3.435   2.895 -0.5267  0.6305  0.0580
36326SOL    HW120703  13.221   3.406   2.986 -1.9023 -2.0198 -0.8580
36326SOL    HW220704  13.147   3.476   2.874 -0.9665 -0.5634 -0.5863
36327SOL     OW20705   3.470   2.751   0.324 -0.9131 -0.5023 -0.5163
36327SOL    HW120706   3.378   2.727   0.315 -0.6751 -0.9504 -2.0543
36327SOL    HW220707   3.500   2.763   0.234  0.9959 -2.1181 -0.1549
36328SOL     OW20708   6.459  10.679   8.459  0.0890 -0.0024 -0.2415
36328SOL    HW120709   6.443  10.650   8.548 -0.0395 -0.1721 -0.3202
36328SOL    HW220710   6.487  10.601   8.412  1.2237  0.3027 -0.0917
36329SOL     OW20711   0.847   5.083   6.649 -0.2974 -0.4778 -0.6975
36329SOL    HW120712   0.784   5.035   6.596 -0.3554  0.2377 -1.2810
36329SOL    HW220713   0.897   5.136   6.587  0.3866 -0.4729 -0.1630
36330SOL     OW20714   8.450   7.148  11.513 -0.1070 -0.3298 -0.0362
36330SOL    HW120715   8.469   7.180  11.425  0.5407  1.7210  0.7832
36330SOL    HW220716   8.434   7.228  11.564 -1.4472 -1.5181  1.4899
36331SOL     OW20717   0.829  13.156  11.177  0.0947 -0.2885 -0.4675
36331SOL    HW120718   0.744  13.190  11.205 -0.5776 -1.1913 -1.3276
36331SOL    HW220719   0.818  13.061  11.176  1.0844 -0.4158 -0.7122
36332SOL     OW20720   3.666   9.508  12.538 -0.2467 -0.7682  0.7717
36332SOL    HW120721   3.671   9.414  12.518 -1.6044 -0.5431 -0.7864
36332SOL    HW220722   3.754   9.540  12.520  0.0452 -1.6177  0.6243
36333SOL     OW20723   4.173   8.488   2.052 -0.4522  0.0392 -0.3192
36333SOL    HW120724   4.192   8.394   2.051  1.9313  0.4495  0.0219
36333SOL    HW220725   4.203   8.520   1.967 -0.3287  0.6536 -0.0507
36334SOL     OW20726   5.531   7.204  12.987 -0.3465  0.4855  0.0641
36334SOL    HW120727   5.517   7.178  12.896 -0.0993  1.2574 -0.2022
36334SOL    HW220728   5.563   7.295  12.981  0.0362  0.4126  0.8960
36335SOL     OW20729   2.849   3.720   0.834 -0.4787 -0.4970 -0.0477
36335SOL    HW120730   2.805   3.798   0.869  0.9691 -0.0306  0.8293
36335SOL    HW220731   2.916   3.754   0.776  0.6712 -1.0184  0.9254
36336SOL     OW20732  13.006   6.787  12.598  0.2019  0.1889  0.1171
36336SOL    HW120733  13.075   6.727  12.628 -0.1639 -0.4005 -0.2135
36336SOL    HW220734  13.053   6.868  12.577  0.7703 -0.1367  0.1084
36337SOL     OW20735  11.069   1.057   4.714 -0.0184  0.0735 -0.0185
36337SOL    HW120736  11.066   0.965   4.690  0.7002 -0.2541  1.0415
36337SOL    HW220737  10.978   1.086   4.715 -0.3221 -0.8781  0.5507
36338SOL     OW20738   9.193   0.134  12.640  0.3049  0.3599  0.2656
36338SOL    HW120739   9.104   0.099  12.652  0.9177 -1.1327  0.6767
36338SOL    HW220740   9.205   0.193  12.714 -0.4179  0.7403  0.0899
36339SOL     OW20741  11.132   3.405  11.934  0.4569  0.5266 -0.3894
36339SOL    HW120742  11.214   3.368  11.966  0.6123 -0.1334 -1.5112
36339SOL    HW220743  11.065   3.364  11.989  0.7994  0.2874 -0.1395
36340SOL     OW20744  10.235  13.660   3.009  0.2847  0.1288 -0.4222
36340SOL    HW120745  10.294  13.735   3.002  2.3162 -1.3754 -0.3253
36340SOL    HW220746  10.293  13.584   3.011 -1.6395 -1.3978  0.7499
36341SOL     OW20747  10.598  12.538  13.713  0.4654 -0.8444  0.1514
36341SOL    HW120748  10.545  12.506  13.786 -0.3717 -0.6833 -0.3650
36341SOL    HW220749  10.669  12.475  13.705  1.0419 -0.4083  1.6263
36342SOL     OW20750   9.392   9.958  10.380  0.1877 -0.5062 -0.5175
36342SOL    HW120751   9.358   9.898  10.313  0.6598 -1.3709 -0.0071
36342SOL    HW220752   9.482   9.977  10.350  0.5619 -1.2644  0.0973
36343SOL     OW20753   4.211   1.317   2.287  0.2748  0.3096 -0.0271
36343SOL    HW120754   4.301   1.288   2.273 -0.3554 -1.1116 -1.5922
36343SOL    HW220755   4.215   1.376   2.362  2.3521 -0.4558  0.5213
36344SOL     OW20756  11.430   4.630   7.094  0.3731  0.4972  0.3049
36344SOL    HW120757  11.478   4.562   7.142  0.1855 -0.0295 -0.2435
36344SOL    HW220758  11.369   4.582   7.039 -1.1162  1.1548  1.3159
36345SOL     OW20759   6.193  11.659   8.514 -0.7081 -0.1552 -0.1977
36345SOL    HW120760   6.194  11.688   8.423 -1.6690  0.1140 -0.1311
36345SOL    HW220761   6.154  11.572   8.511  1.8657 -1.3820 -0.3588
36346SOL     OW20762   9.484   0.976  10.993 -0.2894  0.4207  0.0140
36346SOL    HW120763   9.561   0.991  11.047 -0.4301 -1.6845  0.9119
36346SOL    HW220764   9.421   1.042  11.022 -0.4537 -0.7765  2.7013
36347SOL     OW20765   3.381  13.229  12.556  0.0923 -0.5565 -0.0997
36347SOL    HW120766   3.372  13.148  12.506 -1.8003 -0.4665  0.0118
36347SOL    HW220767   3.298  13.236  12.603  0.4937  1.1189  0.3958
36348SOL     OW20768  13.621   4.291   3.691  0.0032  0.0994  0.1703
36348SOL    HW120769  13.604   4.317   3.601 -1.3189 -1.7569 -0.1576
36348SOL    HW220770  13.535   4.273   3.728  0.6217 -0.3803  1.4371
36349SOL     OW20771   1.331   3.802   2.996 -0.1197  0.1027 -0.2840
36349SOL    HW120772   1.236   3.793   2.982 -0.3657  1.9788 -0.1118
36349SOL    HW220773   1.339   3.879   3.052  1.4688 -0.7378  0.6989
36350SOL     OW20774   5.556   2.561  13.538 -0.3352 -0.5329 -0.5528
36350SOL    HW120775   5.468   2.581  13.571 -0.3040  0.0189 -0.8019
36350SOL    HW220776   5.540   2.497  13.468 -0.5516 -0.2801 -0.7345
36351SOL     OW20777   1.238   1.651   9.147  0.8402 -0.0356  0.6370
36351SOL    HW120778   1.278   1.606   9.072 -2.2868 -1.5451 -0.2753
36351SOL    HW220779   1.270   1.603   9.223 -0.2616 -2.1344 -0.1461
36352SOL     OW20780  11.128   9.124   4.246  0.0582 -0.6059 -0.0014
36352SOL    HW120781  11.071   9.049   4.230  1.1552 -1.0808 -1.9660
36352SOL    HW220782  11.211   9.100   4.205  1.3318  0.5474  1.7695
36353SOL     OW20783   2.586  10.104   7.414 -0.5531 -0.3632  0.8000
36353SOL    HW120784   2.578  10.183   7.467  0.5459  0.2849  0.0392
36353SOL    HW220785   2.548  10.128   7.329  0.4135 -0.4094  0.3401
36354SOL     OW20786  12.123  12.906   2.623 -0.3073 -0.0685 -0.5601
36354SOL    HW120787  12.200  12.854   2.648 -0.5602 -0.8885 -1.4432
36354SOL    HW220788  12.138  12.930   2.532  0.8633  3.3633  0.3589
36355SOL     OW20789   2.428   1.014   9.143 -0.3474 -0.3139 -0.2447
36355SOL    HW120790   2.415   0.933   9.194  0.5747  0.6820  1.6797
36355SOL    HW220791   2.501   0.993   9.084  0.6074 -0.6254  0.9802
36356SOL     OW20792   1.847  13.453  10.935  0.0805 -0.2883  0.2772
36356SOL    HW120793   1.848  13.522  10.868 -0.6823 -0.1388  0.4154
36356SOL    HW220794   1.893  13.380  10.894 -0.3365 -0.1848 -0.3973
36357SOL     OW20795  12.305   4.768   7.870 -0.8086 -0.3189 -0.2036
36357SOL    HW120796  12.229   4.760   7.928  1.0288 -1.5598  2.2224
36357SOL    HW220797  12.320   4.678   7.839  0.2741 -0.2952  0.2214
36358SOL     OW20798   3.375  13.738   9.655 -0.2297  0.5101 -0.2187
36358SOL    HW120799   3.330  13.771   9.577 -0.8502 -0.0069 -0.0838
36358SOL    HW220800   3.447  13.685   9.620 -0.2143  0.6744 -0.4396
36359SOL     OW20801   1.752   1.271   5.854  0.2009 -0.0749 -0.0545
36359SOL    HW120802   1.748   1.269   5.759  1.6484 -1.8980 -0.1313
36359SOL    HW220803   1.745   1.364   5.877  0.1975  0.4163 -1.9419
36360SOL     OW20804   4.642   1.048   7.801 -0.2949  0.1224  0.1669
36360SOL    HW120805   4.647   1.112   7.872  2.3621  0.2618 -0.0622
36360SOL    HW220806   4.621   1.101   7.723  0.0617  0.4464  0.2890
36361SOL     OW20807   6.856   4.415  11.163  0.2653  0.2757  0.0444
36361SOL    HW120808   6.804   4.353  11.113  0.3264  0.2351  0.0311
36361SOL    HW220809   6.873   4.371  11.247  0.6869  0.0952 -0.1373
36362SOL     OW20810  13.337   4.837   6.096 -0.5062  0.3392 -0.4044
36362SOL    HW120811  13.410   4.840   6.157 -2.1241 -0.8038  1.7587
36362SOL    HW220812  13.323   4.928   6.070  1.0521  0.6825 -0.1329
36363SOL     OW20813   5.303   5.434  10.967 -0.0775  0.0701  0.2927
36363SOL    HW120814   5.325   5.471  10.882  0.6728 -0.4113  0.2655
36363SOL    HW220815   5.374   5.462  11.025  0.1487 -0.7424  0.4314
36364SOL     OW20816   5.781   1.210   5.151  0.1141 -0.4488 -0.0576
36364SOL    HW120817   5.733   1.154   5.212 -0.3719 -1.3399 -1.2077
36364SOL    HW220818   5.723   1.285   5.137 -0.6225 -1.1269 -0.8038
36365SOL     OW20819   9.944   9.743  10.617 -0.0539  0.3614 -0.0900
36365SOL    HW120820  10.034   9.709  10.619  0.2188  0.8961  3.3884
36365SOL    HW220821   9.951   9.831  10.655 -1.9428  0.7075 -0.4737
36366SOL     OW20822   1.327   2.442   4.411 -0.5948 -0.2240  0.5114
36366SOL    HW120823   1.416   2.440   4.447 -0.5343  0.2014  0.3874
36366SOL    HW220824   1.295   2.352   4.421 -0.5209 -0.1506  1.4918
36367SOL     OW20825   2.067   2.998  12.900 -0.1095 -0.2367  0.2527
36367SOL    HW120826   2.072   3.017  12.806 -1.4974 -0.1599  0.1816
36367SOL    HW220827   2.136   2.933  12.914  0.0254 -0.3558 -0.8479
36368SOL     OW20828  10.005  13.575  11.009  0.1869 -0.4946  0.2204
36368SOL    HW120829   9.999  13.619  10.923  0.7941 -0.9824 -0.0794
36368SOL    HW220830   9.957  13.633  11.068  2.1007  1.3255  0.1201
36369SOL     OW20831   6.238   2.474  12.922 -0.3803  0.6527 -0.0084
36369SOL    HW120832   6.147   2.454  12.902  0.0767  0.2190 -1.9049
36369SOL    HW220833   6.235   2.555  12.972 -1.7781  1.1354 -0.8257
36370SOL     OW20834   5.061   2.648   8.873 -0.2914 -0.2048 -0.2013
36370SOL    HW120835   5.099   2.596   8.802 -1.0225 -0.1203 -0.6686
36370SOL    HW220836   5.126   2.716   8.891 -0.1284 -0.1765 -0.8566
36371SOL     OW20837   8.826  11.263   6.928  0.1918 -0.1040 -0.3456
36371SOL    HW120838   8.806  11.353   6.953  2.1332  0.0720  0.7610
36371SOL    HW220839   8.871  11.270   6.844  0.8455  0.0254  0.0099
36372SOL     OW20840  12.767   0.669   0.258  0.0639  0.3481  0.6103
36372SOL    HW120841  12.831   0.603   0.231  0.2126  0.4692  0.6646
36372SOL    HW220842  12.787   0.745   0.203 -3.0581 -1.0619 -2.9200
36373SOL     OW20843   0.969   4.190  10.831  0.3560  0.2157 -0.2119
36373SOL    HW120844   1.012   4.266  10.790  1.3970 -0.5138 -0.5141
36373SOL    HW220845   1.012   4.183  10.917  0.8078 -0.4703 -0.4845
36374SOL     OW20846   5.983  10.863   2.263  0.6526 -0.4616 -0.1373
36374SOL    HW120847   5.920  10.852   2.191  1.2584  0.7489 -0.8788
36374SOL    HW220848   5.994  10.958   2.271 -0.4678 -0.4645  2.5200
36375SOL     OW20849  11.220   7.229   8.687 -0.8039 -0.1790  0.9231
36375SOL    HW120850  11.150   7.168   8.711 -0.4005 -0.8825  0.3525
36375SOL    HW220851  11.230   7.218   8.592 -0.8932  0.9668  0.7664
36376SOL     OW20852   9.291   2.800   5.241  0.8260  0.6374 -0.5091
36376SOL    HW120853   9.362   2.825   5.300  1.6210  1.9606 -1.9447
36376SOL    HW220854   9.289   2.870   5.175 -1.2937  0.2147 -0.9662
36377SOL     OW20855   5.320  12.963   4.377  0.5207  0.1252 -0.2162
36377SOL    HW120856   5.301  12.872   4.354  1.1703 -0.2420  0.6488
36377SOL    HW220857   5.415  12.971   4.372  0.4954  0.6661  0.0410
36378SOL     OW20858  12.800  11.941   1.841  0.2031 -0.4858 -0.0340
36378SOL    HW120859  12.847  11.864   1.810 -1.5796 -1.9851  0.8089
36378SOL    HW220860  12.727  11.906   1.893  0.4424  1.8040  2.0287
36379SOL     OW20861   3.045   9.849   0.139 -0.4623 -0.2774  0.1743
36379SOL    HW120862   3.002   9.867   0.055 -1.1842  3.8389  1.2015
36379SOL    HW220863   3.116   9.913   0.144  0.8872 -1.8175  1.8645
36380SOL     OW20864  12.051  10.783  13.534 -0.8120  0.0540  0.4093
36380SOL    HW120865  12.089  10.813  13.452  0.0144 -1.3142  0.2582
36380SOL    HW220866  12.021  10.694  13.515 -0.3653 -0.3830  1.6592
36381SOL     OW20867  11.496   9.474   0.313  0.2257  0.0373  0.2974
36381SOL    HW120868  11.523   9.433   0.395  1.2356  0.0710 -0.0086
36381SOL    HW220869  11.558   9.440   0.248 -0.3970  0.2217 -0.3988
36382SOL     OW20870  11.485  13.014   5.843  0.4175 -0.1671 -0.2195
36382SOL    HW120871  11.480  13.036   5.936  0.7445  2.0263 -0.6737
36382SOL    HW220872  11.395  13.016   5.813  0.5259  2.2138 -0.5533
36383SOL     OW20873   6.946   8.599   5.473 -0.0730 -0.6833 -0.2240
36383SOL    HW120874   6.927   8.587   5.566 -0.0967 -1.6097 -0.3413
36383SOL    HW220875   6.862   8.621   5.434 -0.4499 -2.1786 -0.3183
36384SOL     OW20876   4.585   2.338   3.997 -0.3268 -0.0677  0.1621
36384SOL    HW120877   4.642   2.274   4.039  0.8444  0.6680 -0.2766
36384SOL    HW220878   4.526   2.286   3.943  0.5369 -0.7810 -0.1051
36385SOL     OW20879   1.781  11.988   7.801  0.1321 -0.2584 -0.0097
36385SOL    HW120880   1.701  11.979   7.749  0.5026  1.0256 -0.8510
36385SOL    HW220881   1.750  12.003   7.890 -0.6577  2.0018 -0.5981
36386SOL     OW20882  10.734  13.268   9.911  0.5632  0.2844 -0.1000
36386SOL    HW120883  10.704  13.355   9.886  0.6126  0.5941  0.8796
36386SOL    HW220884  10.665  13.234   9.967 -0.2869 -1.0284 -1.8249
36387SOL     OW20885  13.386   0.368   2.585  0.1386  0.2153  0.0482
36387SOL    HW120886  13.438   0.427   2.639  0.2585 -1.0013  1.3286
36387SOL    HW220887  13.296   0.398   2.597  0.0612 -0.5577  1.6817
36388SOL     OW20888   7.976  11.528  10.358 -0.0059  0.0192 -0.2852
36388SOL    HW120889   7.957  11.555  10.448  1.0371  0.6417 -0.2348
36388SOL    HW220890   7.959  11.434  10.357  1.4091 -0.2871  0.9884
36389SOL     OW20891   6.362   4.774  13.223 -0.1143 -0.3053 -0.2171
36389SOL    HW120892   6.449   4.806  13.247 -0.5183  0.9691 -0.3467
36389SOL    HW220893   6.376   4.725  13.142  0.4153  0.3138 -0.5116
36390SOL     OW20894   2.517   0.454   4.250 -0.1273  0.1225 -0.3575
36390SOL    HW120895   2.597   0.506   4.240  1.5671 -2.0623  0.6811
36390SOL    HW220896   2.495   0.463   4.343 -0.5761  0.0407 -0.4574
36391SOL     OW20897   1.275   6.202   0.512 -0.9584  0.2728 -0.4575
36391SOL    HW120898   1.187   6.222   0.480 -0.5204  0.7246 -1.4433
36391SOL    HW220899   1.267   6.203   0.607 -1.7951  1.3653 -0.5185
36392SOL     OW20900  11.068  11.412  12.592 -0.3262  0.1970 -0.2534
36392SOL    HW120901  10.977  11.436  12.611 -0.5864 -0.6599 -0.3648
36392SOL    HW220902  11.067  11.316  12.587  0.2118  0.2493 -2.0897
36393SOL     OW20903   8.532   7.668  13.425 -0.0119 -0.3498 -0.4956
36393SOL    HW120904   8.521   7.727  13.351 -1.7412  0.1841  0.1509
36393SOL    HW220905   8.446   7.662  13.465  0.9434 -0.3412  1.7095
36394SOL     OW20906   5.797   1.013   6.346  0.1552  0.2965 -0.1845
36394SOL    HW120907   5.765   0.975   6.428  0.3262  0.8944  0.1626
36394SOL    HW220908   5.892   1.010   6.354  0.1771  1.5225  0.1931
36395SOL     OW20909   1.705   8.734  10.831 -0.2192 -0.0230 -0.0732
36395SOL    HW120910   1.761   8.680  10.774  2.6455  1.7581  0.8718
36395SOL    HW220911   1.721   8.700  10.919 -0.9323  0.2912  0.1820
36396SOL     OW20912   7.716   6.260  11.831  0.0046 -0.1680  0.1682
36396SOL    HW120913   7.654   6.256  11.758 -0.5346 -0.4763  0.6280
36396SOL    HW220914   7.737   6.168  11.849  1.0852 -0.0469 -0.3777
36397SOL     OW20915   1.348   2.338   7.903 -0.5888 -0.5457  0.1566
36397SOL    HW120916   1.273   2.319   7.959 -0.8351 -2.5549 -0.7724
36397SOL    HW220917   1.323   2.419   7.857 -1.8451 -0.7505  0.4292
36398SOL     OW20918   1.904   9.824   4.258 -0.6683  0.1895 -0.2934
36398SOL    HW120919   1.894   9.810   4.163 -1.8229 -0.2805 -0.1276
36398SOL    HW220920   1.938   9.913   4.266  0.9691 -0.3136 -1.1987
36399SOL     OW20921   1.863   3.415  13.705 -0.0433  0.0435 -0.1601
36399SOL    HW120922   1.897   3.454  13.625  0.8010 -0.4862 -0.0661
36399SOL    HW220923   1.849   3.490  13.763  0.4413  0.3217 -0.3973
36400SOL     OW20924   7.125   9.880   3.396  0.1281 -0.3605  0.5945
36400SOL    HW120925   7.041   9.836   3.402 -0.0064 -0.1364  0.3790
36400SOL    HW220926   7.121   9.929   3.314  1.5323 -2.5575 -0.8924
36401SOL     OW20927   9.775   0.786   4.020 -0.2259  0.6498 -0.1501
36401SOL    HW120928   9.713   0.829   3.962  2.1712  4.7186 -0.1081
36401SOL    HW220929   9.839   0.744   3.962 -0.3797  0.6611 -0.3258
36402SOL     OW20930  11.264   2.353   6.306 -0.5249  0.1148  0.5683
36402SOL    HW120931  11.349   2.326   6.271 -0.6303 -0.6919  0.9044
36402SOL    HW220932  11.201   2.296   6.263 -1.0301  1.4309 -0.4881
36403SOL     OW20933  11.551  12.560   9.377  0.6679 -0.1248  0.2464
36403SOL    HW120934  11.642  12.556   9.347  0.7627  1.3732  0.2347
36403SOL    HW220935  11.548  12.640   9.430 -0.9484  0.5685 -0.8301
36404SOL     OW20936  13.589   9.334   5.877 -0.1845 -0.5348  0.0329
36404SOL    HW120937  13.540   9.340   5.960 -0.8404 -2.3677 -0.1585
36404SOL    HW220938  13.599   9.240   5.863  1.0080 -0.2278 -1.3580
36405SOL     OW20939   6.119   7.280  13.716 -0.7134 -0.1534 -0.3834
36405SOL    HW120940   6.176   7.241  13.650 -1.6003 -1.7554 -0.2621
36405SOL    HW220941   6.171   7.351  13.754  0.7466 -0.8142 -1.0738
36406SOL     OW20942   7.984   2.468   7.411 -0.3495 -0.4905  0.3428
36406SOL    HW120943   7.997   2.430   7.325  0.4653  1.4934 -0.4833
36406SOL    HW220944   8.007   2.398   7.473 -1.8491 -2.2331 -1.0007
36407SOL     OW20945   8.247   1.900   8.175  0.1792 -0.1751 -0.3064
36407SOL    HW120946   8.332   1.861   8.159  0.3651  1.0019 -2.6546
36407SOL    HW220947   8.188   1.826   8.191  1.1830 -1.1814 -1.1385
36408SOL     OW20948   0.090   7.395  10.622  0.1316  0.0882 -0.0761
36408SOL    HW120949   0.050   7.353  10.698 -1.6355  0.9272 -0.4938
36408SOL    HW220950   0.027   7.383  10.552  2.0772 -1.3731 -1.6931
36409SOL     OW20951   9.545   1.106  12.247  0.4311  0.3706  0.5208
36409SOL    HW120952   9.556   1.034  12.184 -1.4592  0.1282  0.4073
36409SOL    HW220953   9.515   1.063  12.327 -1.9772  1.0730  0.0772
36410SOL     OW20954   3.975   2.601   7.615 -0.3517 -0.4948  0.2832
36410SOL    HW120955   4.029   2.525   7.593  0.6104 -0.2474  1.6683
36410SOL    HW220956   3.888   2.564   7.631 -0.1469 -1.1667 -0.1058
36411SOL     OW20957   1.670   7.989  12.584 -0.0503 -0.8356 -0.1970
36411SOL    HW120958   1.652   7.946  12.501 -0.3278 -1.3290  0.1134
36411SOL    HW220959   1.585   8.026  12.610  0.6533  2.1644 -1.6948
36412SOL     OW20960   3.140   7.067   8.967 -0.4822  0.5016 -0.1474
36412SOL    HW120961   3.062   7.118   8.948 -1.2174 -0.7317 -0.5452
36412SOL    HW220962   3.107   6.986   9.007  0.7867  1.4927  3.2732
36413SOL     OW20963   4.043   3.067   6.143 -0.7434  0.1644 -0.3052
36413SOL    HW120964   4.071   2.980   6.172  0.2486  0.5669 -0.0012
36413SOL    HW220965   4.068   3.071   6.051  0.4967  0.6150  0.0289
36414SOL     OW20966   2.411   3.927  11.499  0.0880 -0.0646  0.1171
36414SOL    HW120967   2.379   3.908  11.411  3.1107 -2.0453 -0.7336
36414SOL    HW220968   2.433   4.020  11.497 -0.6010  0.0925 -0.9600
36415SOL     OW20969  10.564   7.842   4.300  0.1028 -0.3911 -0.0355
36415SOL    HW120970  10.562   7.912   4.366  1.0189 -0.3140 -0.0793
36415SOL    HW220971  10.656   7.833   4.277 -0.2615  0.0423 -1.8063
36416SOL     OW20972  10.049  10.629   9.168  0.0725  0.5775 -0.7337
36416SOL    HW120973  10.081  10.698   9.226 -1.9570  2.3751 -1.6248
36416SOL    HW220974  10.127  10.601   9.120  1.6392 -0.3253  2.0675
36417SOL     OW20975   9.993  11.936  12.206  0.0876  0.2487 -0.1780
36417SOL    HW120976   9.934  12.010  12.190 -0.8629 -0.2535  0.8597
36417SOL    HW220977  10.074  11.976  12.237 -0.1001  0.8957 -0.4995
36418SOL     OW20978  12.271   4.533   6.643 -0.6071  0.0895 -0.1051
36418SOL    HW120979  12.353   4.485   6.636 -0.5376 -0.3677  2.7060
36418SOL    HW220980  12.296   4.625   6.629  0.0496 -0.2262 -1.0501
36419SOL     OW20981  11.542   2.357   7.605 -0.1220 -0.0905  0.1774
36419SOL    HW120982  11.521   2.303   7.529 -1.2616  0.9476 -0.2971
36419SOL    HW220983  11.475   2.426   7.604  1.7413  1.8187  0.2573
36420SOL     OW20984   6.653   8.389   1.741  0.5284 -0.0136 -0.0136
36420SOL    HW120985   6.690   8.413   1.657  0.7005 -1.0950 -0.2603
36420SOL    HW220986   6.729   8.372   1.797  0.4143  0.1719  0.1983
36421SOL     OW20987   4.051  10.698   2.399 -0.5116 -0.9104  0.2557
36421SOL    HW120988   4.126  10.733   2.448  0.3516 -0.4971 -1.2914
36421SOL    HW220989   4.089  10.630   2.344 -0.8751  0.5385 -1.8955
36422SOL     OW20990   5.895   8.950   8.851  0.1150 -0.2281 -0.5213
36422SOL    HW120991   5.966   8.891   8.874  1.7553  1.2944 -1.4680
36422SOL    HW220992   5.858   8.977   8.936  0.3991 -1.2956 -0.0397
36423SOL     OW20993  12.485   3.938  11.794 -0.1258 -0.1322 -0.0404
36423SOL    HW120994  12.553   4.005  11.791 -0.3279  0.0567 -0.4915
36423SOL    HW220995  12.523   3.864  11.747 -0.5297  0.2552 -0.9923
36424SOL     OW20996   7.373   6.319  11.692  0.7197 -0.1700 -0.3878
36424SOL    HW120997   7.419   6.254  11.638  1.8721  1.1365 -1.0637
36424SOL    HW220998   7.435   6.392  11.699 -0.2386  0.5560  0.9728
36425SOL     OW20999   2.881   0.086   4.560 -0.2225  0.8449  0.3545
36425SOL    HW121000   2.966   0.042   4.561 -0.9414 -0.6995 -1.3579
36425SOL    HW221001   2.828   0.038   4.625 -0.5207  0.1866 -0.3640
36426SOL     OW21002   9.771   8.565   8.800  0.3320 -0.2230  0.5559
36426SOL    HW121003   9.806   8.646   8.762 -3.2915 -0.3899 -4.0437
36426SOL    HW221004   9.698   8.593   8.854 -1.8111 -0.2158 -2.1365
36427SOL     OW21005  13.446  11.250   6.650  0.3296 -0.0800 -0.2744
36427SOL    HW121006  13.415  11.179   6.595 -2.7216  0.5062  0.4861
36427SOL    HW221007  13.512  11.210   6.707 -1.6729 -2.5133  0.5257
36428SOL     OW21008   0.603   7.670  10.368  0.0650 -0.4735  0.0159
36428SOL    HW121009   0.684   7.717  10.387  0.2211 -0.3980 -0.7998
36428SOL    HW221010   0.630   7.599  10.310 -0.7518  0.9122 -2.1770
36429SOL     OW21011  13.587   8.591   4.733  0.0153  0.1122 -1.4134
36429SOL    HW121012  13.514   8.637   4.692 -1.2301 -1.2318 -0.7870
36429SOL    HW221013  13.615   8.650   4.804 -2.0606 -0.3700 -0.1172
36430SOL     OW21014  11.264   0.036  12.005  0.2653  0.2294  0.3838
36430SOL    HW121015  11.170   0.037  12.021  0.5161 -0.6366  2.1385
36430SOL    HW221016  11.278   0.105  11.941 -1.7817 -0.7558 -1.2618
36431SOL     OW21017   8.282   5.004   6.441  0.3158 -0.3192  0.1606
36431SOL    HW121018   8.235   5.061   6.502  0.5697 -0.5360  0.5668
36431SOL    HW221019   8.251   4.916   6.461 -1.3460 -0.1997 -1.6100
36432SOL     OW21020   9.580  12.424   3.743 -0.3120  0.4527  0.5677
36432SOL    HW121021   9.543  12.512   3.737  0.5757  0.7405 -2.1791
36432SOL    HW221022   9.528  12.372   3.683 -0.7334 -0.9008  2.0629
36433SOL     OW21023   0.082   4.951  13.118 -0.3481  0.6105  0.0194
36433SOL    HW121024   0.016   5.016  13.139 -0.8238 -0.2423  1.3087
36433SOL    HW221025   0.110   4.972  13.029 -1.8881  1.3754 -0.3081
36434SOL     OW21026   5.766  11.967   4.884  0.3203 -0.1438 -0.2253
36434SOL    HW121027   5.672  11.986   4.881  0.6423  1.6477 -0.2044
36434SOL    HW221028   5.789  11.943   4.794  0.1418  1.1833 -0.6544
36435SOL     OW21029   6.319   0.262   0.656  0.5004 -0.0847  0.2518
36435SOL    HW121030   6.370   0.183   0.641  1.4938  0.6790 -0.5786
36435SOL    HW221031   6.348   0.294   0.741 -0.8607 -1.2863  1.2064
36436SOL     OW21032  10.592   6.742   2.749 -0.0465 -0.3408 -0.0601
36436SOL    HW121033  10.513   6.692   2.730 -0.7638  0.0588  1.6766
36436SOL    HW221034  10.591   6.753   2.844  2.0504 -0.2261 -0.0099
36437SOL     OW21035   4.225  13.357   7.912  0.1177  0.6472  0.4056
36437SOL    HW121036   4.168  13.345   7.836 -0.8821 -1.1832  1.3836
36437SOL    HW221037   4.266  13.271   7.924  0.0565  0.8266  2.0734
36438SOL     OW21038   5.870   6.449  13.016  0.3633  0.1291  0.4092
36438SOL    HW121039   5.924   6.517  13.056 -0.2160  0.4000  0.7590
36438SOL    HW221040   5.931   6.379  12.993  1.0088  0.8952 -0.2362
36439SOL     OW21041  12.237   9.786  12.918  0.5386  0.0495 -0.4011
36439SOL    HW121042  12.292   9.864  12.920  1.6200 -0.6918  2.1524
36439SOL    HW221043  12.230   9.759  13.009 -1.6826 -1.5807 -0.9690
36440SOL     OW21044   7.128   0.724  13.273 -0.0595 -0.3152 -0.5268
36440SOL    HW121045   7.133   0.763  13.186  0.8853 -0.9135 -0.7506
36440SOL    HW221046   7.114   0.798  13.332 -1.1762  0.0566 -1.2095
36441SOL     OW21047  11.116   2.960   8.799  0.6234  0.6524  0.2886
36441SOL    HW121048  11.099   3.004   8.716  2.4527  2.2692  0.6886
36441SOL    HW221049  11.076   3.016   8.865 -1.0386 -0.7480  0.5379
36442SOL     OW21050   2.087  12.910  13.610 -0.2957  0.6536  0.2552
36442SOL    HW121051   2.013  12.921  13.550  0.5146  2.2215 -0.5213
36442SOL    HW221052   2.151  12.860  13.559 -0.8797 -0.9707  1.0313
36443SOL     OW21053  12.855   5.862   7.213 -0.3860 -0.4240  0.4766
36443SOL    HW121054  12.844   5.847   7.119  0.0975  0.0582  0.3400
36443SOL    HW221055  12.946   5.837   7.231 -0.5467 -0.7433  0.8651
36444SOL     OW21056   6.995   7.630   5.899 -0.6343 -0.3068 -0.2337
36444SOL    HW121057   6.990   7.661   5.989 -0.4350  0.4103 -0.4619
36444SOL    HW221058   7.053   7.554   5.902 -0.7211 -0.3547  0.2550
36445SOL     OW21059   9.130   2.724   9.521  0.5834  0.4184 -0.6596
36445SOL    HW121060   9.184   2.645   9.524 -0.6428 -0.4471 -0.8976
36445SOL    HW221061   9.169   2.782   9.587  1.6378 -0.2804 -0.6471
36446SOL     OW21062  11.342  11.614   8.367  0.0937 -0.2371  0.1108
36446SOL    HW121063  11.408  11.628   8.434  1.8049  1.7273 -1.8497
36446SOL    HW221064  11.365  11.529   8.328  1.3909  0.3472 -0.4328
36447SOL     OW21065  10.751   8.227  12.343  0.4604  0.2012  0.0590
36447SOL    HW121066  10.841   8.193  12.349  0.0269 -0.8275  0.8518
36447SOL    HW221067  10.762   8.322  12.347  1.4030  0.0469  1.8932
36448SOL     OW21068   4.380   3.116   1.257 -0.2267  0.0438  0.4655
36448SOL    HW121069   4.395   3.064   1.336 -0.9904 -0.2117  0.4421
36448SOL    HW221070   4.423   3.066   1.187  0.7060  0.4176  0.7558
36449SOL     OW21071   4.999   8.290  10.318 -0.2984  0.0426 -0.5945
36449SOL    HW121072   4.961   8.239  10.247  1.3698 -0.5073 -1.1390
36449SOL    HW221073   5.020   8.225  10.386 -0.2235  0.3210 -0.3458
36450SOL     OW21074   2.647  11.109  12.551  0.3551 -0.9085 -1.0002
36450SOL    HW121075   2.609  11.042  12.493 -0.8256  0.3080 -1.6806
36450SOL    HW221076   2.718  11.148  12.500 -1.3411  0.8753 -2.1269
36451SOL     OW21077   3.662  12.209   7.101 -0.0156  0.0858 -0.4217
36451SOL    HW121078   3.649  12.144   7.032 -2.0147  0.1514 -0.1529
36451SOL    HW221079   3.591  12.193   7.163  0.5566  1.3359  0.5970
36452SOL     OW21080   2.636   1.985  12.739 -0.3488 -0.4448 -0.4435
36452SOL    HW121081   2.558   2.038  12.728 -0.6341 -1.0673 -1.5943
36452SOL    HW221082   2.671   2.010  12.824 -0.7132  1.2605 -0.7639
36453SOL     OW21083   0.021  11.095  13.166  0.1877  0.2017  0.0348
36453SOL    HW121084   0.089  11.137  13.113 -0.8483  2.0068  0.0557
36453SOL    HW221085  -0.032  11.046  13.102  0.7028 -0.1136 -0.1583
36454SOL     OW21086  13.281   8.669   4.337 -0.2900 -1.5312  0.7726
36454SOL    HW121087  13.359   8.676   4.391  0.0511 -2.4742  0.4058
36454SOL    HW221088  13.212   8.643   4.398 -0.6918  0.7203  1.3896
36455SOL     OW21089   3.446  13.473   3.759  0.0675  0.2354 -0.4542
36455SOL    HW121090   3.355  13.447   3.749 -0.2311  1.2600 -0.5083
36455SOL    HW221091   3.448  13.565   3.731  1.0527  0.3102 -0.1678
36456SOL     OW21092   8.919   4.957   7.255  0.3618  0.1502  0.6966
36456SOL    HW121093   8.957   4.882   7.209 -0.8589  0.4162 -0.8243
36456SOL    HW221094   8.939   5.032   7.198 -0.5336  0.6095  0.9708
36457SOL     OW21095  13.268   8.092   2.857 -0.1131 -0.2795  0.8259
36457SOL    HW121096  13.312   8.021   2.903 -0.2557 -1.5235 -0.8609
36457SOL    HW221097  13.333   8.161   2.851  1.6220 -1.9605 -1.3572
36458SOL     OW21098   4.816  13.468   2.255 -0.1377  0.2637 -0.4961
36458SOL    HW121099   4.810  13.456   2.160  1.2251 -1.5230 -0.3985
36458SOL    HW221100   4.730  13.441   2.288 -0.1819 -0.3798 -1.1222
36459SOL     OW21101   4.730   0.143   9.563 -0.4298 -0.1956  0.1180
36459SOL    HW121102   4.639   0.142   9.533 -0.6014  0.3053  0.6124
36459SOL    HW221103   4.725   0.163   9.656  0.3005  2.6388 -0.3594
36460SOL     OW21104  11.671   8.194  11.206 -0.2028 -0.0369  0.0913
36460SOL    HW121105  11.734   8.182  11.276  2.0064 -0.1187 -1.7965
36460SOL    HW221106  11.655   8.289  11.205  1.2909  0.2427 -0.4895
36461SOL     OW21107  10.691  10.794   9.307  0.9511 -0.0140  0.2114
36461SOL    HW121108  10.726  10.749   9.230  0.7375 -0.7387  0.5342
36461SOL    HW221109  10.596  10.797   9.293  0.8207 -0.8974  0.8312
36462SOL     OW21110  13.277   9.764  11.375  0.3780 -0.1004  0.1656
36462SOL    HW121111  13.312   9.808  11.298 -0.5265 -0.9548 -0.7532
36462SOL    HW221112  13.278   9.831  11.443  0.8520  0.7710 -0.6799
36463SOL     OW21113   8.558   8.367  10.707 -0.2589 -0.5833 -0.0555
36463SOL    HW121114   8.495   8.425  10.751  2.7587  0.6578  3.1430
36463SOL    HW221115   8.534   8.279  10.735 -1.0006 -0.2012  0.5293
36464SOL     OW21116   6.870  11.190   4.483 -0.2536 -0.3464  0.0259
36464SOL    HW121117   6.883  11.259   4.549 -0.6408  0.6220 -0.8874
36464SOL    HW221118   6.958  11.157   4.466  0.1346  0.9159 -0.5530
36465SOL     OW21119  11.502  13.410   3.736  0.2493  0.1738  1.0802
36465SOL    HW121120  11.533  13.496   3.709  2.0595 -0.7072  0.2062
36465SOL    HW221121  11.446  13.382   3.663 -0.0508  0.4329  1.2037
36466SOL     OW21122   6.116   2.999   9.207 -0.2788  0.1004  0.0824
36466SOL    HW121123   6.046   2.990   9.271  0.4396  0.1855  0.9003
36466SOL    HW221124   6.126   3.094   9.196 -0.3576  0.0867 -0.1081
36467SOL     OW21125   3.047  13.371  10.149  0.1990  0.0735 -0.3134
36467SOL    HW121126   3.030  13.339  10.061 -1.1525 -1.0328  0.3016
36467SOL    HW221127   2.961  13.384  10.187  0.7540  0.1987  0.9652
36468SOL     OW21128   1.479   0.195   0.845  0.0592 -0.0361  0.4245
36468SOL    HW121129   1.389   0.179   0.876 -0.0112 -1.3700 -0.4075
36468SOL    HW221130   1.513   0.108   0.824  0.8636  0.6225 -1.1621
36469SOL     OW21131  13.500   9.052   1.266  0.1101  0.5890 -0.1999
36469SOL    HW121132  13.572   9.085   1.213  0.5129  0.0026 -0.0228
36469SOL    HW221133  13.540   9.026   1.349 -0.4760  1.2908  0.3240
36470SOL     OW21134   7.045  11.663   4.014  1.0842 -0.1395  0.4419
36470SOL    HW121135   6.981  11.734   4.009  2.7908  1.5214  0.8850
36470SOL    HW221136   7.095  11.670   3.933 -1.2989 -3.6035 -1.5897
36471SOL     OW21137  12.228   5.253  13.239  0.1598  0.1482 -0.2017
36471SOL    HW121138  12.148   5.271  13.288  1.3015 -2.4304  2.9598
36471SOL    HW221139  12.198   5.222  13.153 -2.2633 -1.2011  1.0435
36472SOL     OW21140   8.787   2.221   4.178  0.9577  0.1320 -0.2139
36472SOL    HW121141   8.860   2.197   4.235  1.7063  2.1579 -0.2531
36472SOL    HW221142   8.721   2.257   4.237  1.0752  0.7383 -0.4467
36473SOL     OW21143  10.329   7.217   0.199  0.1242 -0.2512 -0.3687
36473SOL    HW121144  10.340   7.282   0.268 -1.0635  0.5877 -0.9387
36473SOL    HW221145  10.357   7.262   0.119  0.5837 -0.9024 -0.5834
36474SOL     OW21146  10.018   6.467  11.149  0.7271  0.0216  0.3924
36474SOL    HW121147  10.072   6.485  11.226 -1.2011  1.2860  1.5501
36474SOL    HW221148  10.057   6.519  11.079  1.1230  0.7564  1.1430
36475SOL     OW21149   9.071   1.282   9.151  0.3655  0.4122 -0.5194
36475SOL    HW121150   9.104   1.361   9.110  0.1888  0.5302 -0.4368
36475SOL    HW221151   8.980   1.303   9.174 -0.1427 -0.3012 -1.8095
36476SOL     OW21152   8.425   7.773   0.941 -0.0643  0.0165 -0.2777
36476SOL    HW121153   8.446   7.701   0.881 -0.7463  0.2798 -0.8421
36476SOL    HW221154   8.369   7.832   0.890  1.0735  1.3364 -0.0629
36477SOL     OW21155   3.992   2.130   4.160  0.5042 -0.4922 -0.2473
36477SOL    HW121156   3.943   2.212   4.159 -0.3932 -0.9501  1.6611
36477SOL    HW221157   3.928   2.063   4.137  1.0781 -0.7389 -1.1632
36478SOL     OW21158   1.608   2.059   3.353  0.0257  0.2199  0.1735
36478SOL    HW121159   1.616   1.974   3.395 -0.7441  0.4157  0.7494
36478SOL    HW221160   1.611   2.040   3.259  1.6938 -0.2261  0.2956
36479SOL     OW21161   5.514   8.999   7.260 -0.4621  0.6789 -0.3518
36479SOL    HW121162   5.609   8.986   7.257 -0.7278 -1.8486 -0.5880
36479SOL    HW221163   5.496   9.061   7.190  0.9579  0.6281 -0.7998
36480SOL     OW21164   8.345  12.141   6.482  0.7284 -0.0852 -0.5821
36480SOL    HW121165   8.348  12.224   6.434 -0.4357  0.6316  0.4966
36480SOL    HW221166   8.418  12.146   6.544 -0.3121  0.9327  0.6332
36481SOL     OW21167   2.788  13.613   3.127  0.1013 -0.6309  0.4141
36481SOL    HW121168   2.856  13.547   3.139  0.1014 -0.4141  1.7482
36481SOL    HW221169   2.798  13.671   3.202 -0.4252  0.4275 -0.3095
36482SOL     OW21170   0.183   4.447  10.447 -0.4400  0.1292  0.4642
36482SOL    HW121171   0.109   4.507  10.441 -2.2552 -1.9628  0.7501
36482SOL    HW221172   0.175   4.390  10.371  1.1130  0.1016  0.2936
36483SOL     OW21173  12.828   3.366  13.365  0.2518  0.2074  0.0249
36483SOL    HW121174  12.764   3.299  13.388  0.0279  0.7399  0.9774
36483SOL    HW221175  12.826   3.368  13.269  0.3797 -1.2504 -0.0391
36484SOL     OW21176  13.653   4.693  13.667  0.1581  0.5265  0.2482
36484SOL    HW121177  13.572   4.744  13.666  0.3653  0.8584 -0.1721
36484SOL    HW221178  13.637   4.624  13.731 -0.1943  1.0127  0.6917
36485SOL     OW21179  10.898   0.680  13.282 -0.2192 -0.3965 -0.0550
36485SOL    HW121180  10.806   0.706  13.293  0.1711  2.7155 -2.5445
36485SOL    HW221181  10.947   0.748  13.329  0.8566 -0.9445 -0.3674
36486SOL     OW21182   3.195   1.533   2.376  0.0280  0.2344  0.8863
36486SOL    HW121183   3.130   1.471   2.407  2.3415 -2.6130  0.4676
36486SOL    HW221184   3.203   1.515   2.282 -0.9625  2.9588  0.1898
36487SOL     OW21185  10.490   1.409   8.966  0.4364 -0.6153  0.5179
36487SOL    HW121186  10.524   1.416   9.056  2.4974 -0.7893 -0.1785
36487SOL    HW221187  10.398   1.432   8.973  0.6971  0.0305  2.5818
36488SOL     OW21188   1.376  10.326   1.734  0.4249  0.2851 -0.1265
36488SOL    HW121189   1.282  10.311   1.739  0.7560 -1.7511  0.7496
36488SOL    HW221190   1.404  10.278   1.656  0.8390  0.3452 -0.0174
36489SOL     OW21191   6.619   0.492  10.752  0.5832 -0.3158 -0.7273
36489SOL    HW121192   6.564   0.512  10.827  0.7071  1.3397 -1.0464
36489SOL    HW221193   6.671   0.416  10.780 -1.4420 -1.5864 -0.2470
36490SOL     OW21194  11.005  10.580   5.421  0.1649  0.3148  0.1187
36490SOL    HW121195  11.040  10.590   5.333 -0.9707  0.8292 -0.2901
36490SOL    HW221196  11.038  10.656   5.469  2.5354 -1.0226  0.7832
36491SOL     OW21197   4.438   9.557   9.444  0.0781  0.2926  0.2637
36491SOL    HW121198   4.423   9.633   9.500 -2.8804 -0.1242  0.2227
36491SOL    HW221199   4.353   9.542   9.402  0.7172 -2.6625 -0.1803
36492SOL     OW21200   1.015   9.961   4.972 -0.3654  0.2605  0.0262
36492SOL    HW121201   1.012   9.884   4.915 -2.0652  1.7533 -2.0876
36492SOL    HW221202   0.923   9.975   4.997  0.0427  1.0920  1.1436
36493SOL     OW21203   6.636   4.116  13.562  0.5595  0.1886  0.0564
36493SOL    HW121204   6.638   4.101  13.656 -1.1017 -0.3944  0.0249
36493SOL    HW221205   6.544   4.106  13.537  1.1848 -1.4119 -1.8920
36494SOL     OW21206  10.739   7.260   6.208  0.4250  0.4159 -0.1976
36494SOL    HW121207  10.672   7.196   6.231  0.3373  0.5067 -0.1992
36494SOL    HW221208  10.729   7.330   6.273  0.2526  0.6181 -0.4421
36495SOL     OW21209   8.826   3.323   8.567  0.1517  0.4517 -0.7761
36495SOL    HW121210   8.754   3.313   8.504 -0.0103  0.7033 -0.6320
36495SOL    HW221211   8.881   3.246   8.552  0.2434  0.6321 -1.3883
36496SOL     OW21212  13.602   7.383   1.463  0.2867  0.1856 -0.0841
36496SOL    HW121213  13.587   7.412   1.373 -1.9023  0.4160  0.3098
36496SOL    HW221214  13.592   7.288   1.460  1.4064  0.0642 -0.2797
36497SOL     OW21215   1.835   9.875  12.602  0.6089  0.5320  0.4243
36497SOL    HW121216   1.802   9.790  12.574 -1.8238  1.4078  0.4116
36497SOL    HW221217   1.808   9.883  12.693  0.1455  1.5778  0.2096
36498SOL     OW21218   6.337  12.769   7.095  0.3776  0.1109 -0.0704
36498SOL    HW121219   6.278  12.834   7.057  0.0958 -1.3552 -2.3153
36498SOL    HW221220   6.280  12.699   7.127  0.7741  0.0212  0.4604
36499SOL     OW21221   2.520   8.545   8.913  0.0026 -0.6152  0.5507
36499SOL    HW121222   2.438   8.576   8.874 -0.0343 -0.2975  0.8756
36499SOL    HW221223   2.580   8.536   8.839  0.3662  1.3344  0.5622
36500SOL     OW21224  12.391   2.112   9.475 -0.3329  0.1504  0.0349
36500SOL    HW121225  12.295   2.108   9.472 -0.3214  0.2413 -0.9161
36500SOL    HW221226  12.419   2.020   9.479 -0.4467  0.0914 -0.4969
36501SOL     OW21227  11.949   6.023   2.720  0.0991 -0.1679 -0.0516
36501SOL    HW121228  11.890   5.997   2.791  1.4411  1.4336  1.7563
36501SOL    HW221229  12.030   6.046   2.765  1.7525 -1.1763 -2.3524
36502SOL     OW21230  12.605  11.899   8.859  0.3046  0.0055 -0.5154
36502SOL    HW121231  12.559  11.849   8.926  0.5856 -1.1716 -1.1809
36502SOL    HW221232  12.697  11.874   8.869  0.7945  1.9662  0.4846
36503SOL     OW21233   0.385  10.739   7.136 -0.8658 -0.0083  0.1903
36503SOL    HW121234   0.306  10.716   7.088 -0.8219 -2.1382  0.9999
36503SOL    HW221235   0.381  10.685   7.215  0.4169  1.3304  1.2201
36504SOL     OW21236  13.735   7.653   4.847 -0.1557 -0.1276  0.5445
36504SOL    HW121237  13.762   7.561   4.846 -0.0552 -0.1423  2.0498
36504SOL    HW221238  13.816   7.701   4.832 -0.0298 -0.2635  0.7793
36505SOL     OW21239   8.923   1.395   1.416  0.1886 -0.1845  0.1908
36505SOL    HW121240   8.987   1.460   1.443 -0.6822  0.1045  1.6874
36505SOL    HW221241   8.926   1.395   1.320  0.7911  1.4410  0.1922
36506SOL     OW21242   3.164  12.875  10.521  0.0924  0.5807  0.3006
36506SOL    HW121243   3.222  12.878  10.445  0.6983 -0.7294  0.6823
36506SOL    HW221244   3.204  12.935  10.584  1.4617 -0.8258  0.8248
36507SOL     OW21245   2.112   7.150   6.005  0.2265  0.4325 -0.4530
36507SOL    HW121246   2.123   7.149   5.910 -0.5985 -0.4245 -0.5634
36507SOL    HW221247   2.138   7.062   6.033 -0.0720  0.4931  0.0409
36508SOL     OW21248   7.652   0.242   6.026 -0.5129 -0.1062 -0.1971
36508SOL    HW121249   7.563   0.206   6.020 -0.4679  0.0016 -2.9319
36508SOL    HW221250   7.638   0.335   6.043 -0.9272 -0.1176 -0.4487
36509SOL     OW21251  13.389  11.146   8.140  0.4197  0.2951  0.6706
36509SOL    HW121252  13.391  11.153   8.236  0.1331 -0.8483  0.7708
36509SOL    HW221253  13.378  11.236   8.110 -2.3524  0.4536  1.8149
36510SOL     OW21254  13.550   6.831   6.708 -0.1894 -0.2696  0.5188
36510SOL    HW121255  13.640   6.862   6.707 -0.1616 -0.2648  1.7096
36510SOL    HW221256  13.540   6.787   6.792 -0.5880 -2.4586 -0.5812
36511SOL     OW21257   5.220   7.981   3.460  0.3733  0.1050  0.1883
36511SOL    HW121258   5.136   7.963   3.418  0.9203 -2.4740  0.0151
36511SOL    HW221259   5.244   7.898   3.501  2.7623  0.8120  0.3622
36512SOL     OW21260  10.305   1.590   5.036  0.4156 -0.0229 -0.2964
36512SOL    HW121261  10.370   1.529   5.001  0.0420 -0.7394  0.2263
36512SOL    HW221262  10.355   1.666   5.064  0.9060 -0.1392 -0.8447
36513SOL     OW21263   6.973  12.512  10.383  0.2491  0.4606 -0.2227
36513SOL    HW121264   7.031  12.447  10.344  1.9285  0.4296  2.1379
36513SOL    HW221265   7.009  12.596  10.355  0.5965  0.4234  0.1114
36514SOL     OW21266   8.459   6.017   9.229  0.1931 -0.1026  0.1401
36514SOL    HW121267   8.478   6.089   9.289 -2.0411 -0.5976  1.5510
36514SOL    HW221268   8.445   6.060   9.144  0.0174  1.0010  0.7103
36515SOL     OW21269  13.325   5.853  12.669  0.1186  0.3256 -0.0021
36515SOL    HW121270  13.280   5.938  12.666 -0.6407 -0.0583  0.2919
36515SOL    HW221271  13.325   5.823  12.578 -2.0261 -0.5732  0.2258
36516SOL     OW21272   2.522  11.843   9.433  0.0805 -0.2215 -0.3111
36516SOL    HW121273   2.446  11.856   9.491 -1.6810 -0.9017 -2.3546
36516SOL    HW221274   2.544  11.931   9.403 -0.9586 -0.1476 -0.9214
36517SOL     OW21275   5.886  13.575   6.437 -0.3700 -0.4063  0.5726
36517SOL    HW121276   5.886  13.626   6.518 -1.0509  1.1039 -0.3337
36517SOL    HW221277   5.939  13.627   6.377 -0.2693 -1.2660 -0.0936
36518SOL     OW21278   3.887   1.425  13.324 -0.5272  0.1446 -0.7451
36518SOL    HW121279   3.888   1.331  13.344 -1.6881  0.2827  0.0628
36518SOL    HW221280   3.979   1.449  13.317 -0.1929 -0.8874 -0.1082
36519SOL     OW21281   1.020   8.316   3.212  0.7991 -0.0742 -0.3654
36519SOL    HW121282   1.014   8.249   3.143  1.2918  1.4148 -1.9272
36519SOL    HW221283   1.106   8.302   3.251  2.6536  1.9326 -3.3098
36520SOL     OW21284   5.972  11.823  12.043 -0.4624 -0.5189 -0.2120
36520SOL    HW121285   6.024  11.745  12.063 -0.9860 -0.5731  1.0695
36520SOL    HW221286   6.031  11.880  11.995  0.2720 -1.2558 -0.2009
36521SOL     OW21287   4.122   2.852  10.780 -0.0974 -0.3219 -0.0453
36521SOL    HW121288   4.084   2.924  10.730  1.5634 -0.0246 -0.9443
36521SOL    HW221289   4.082   2.774  10.743 -1.5639  0.0764  0.6250
36522SOL     OW21290   5.619  10.286   4.235  0.3361 -0.5670 -0.1606
36522SOL    HW121291   5.579  10.237   4.307  1.5122 -0.5558  0.5252
36522SOL    HW221292   5.710  10.258   4.235  1.2266  2.0330  0.6446
36523SOL     OW21293   2.622   2.545   9.162 -0.4707  0.9305  0.2043
36523SOL    HW121294   2.559   2.596   9.212 -0.8035 -0.0607  0.8235
36523SOL    HW221295   2.673   2.498   9.228  0.4861  1.2131 -0.3100
36524SOL     OW21296  10.823  12.515  12.384  0.0410 -0.2857 -0.3698
36524SOL    HW121297  10.729  12.512  12.399 -0.1612 -0.6594 -1.6192
36524SOL    HW221298  10.833  12.505  12.290  1.3736 -1.0569 -0.1754
36525SOL     OW21299  12.474   7.393   9.415  0.7731  0.0381 -0.2123
36525SOL    HW121300  12.564   7.363   9.402  0.5646 -0.9290  0.4819
36525SOL    HW221301  12.467   7.471   9.360  1.3292 -1.1962 -2.1455
36526SOL     OW21302   8.857   1.736  12.502  0.6792  0.7660 -0.2465
36526SOL    HW121303   8.835   1.647  12.475  0.5584  1.0411 -1.0983
36526SOL    HW221304   8.933   1.726  12.559  1.0524  0.1672 -0.8381
36527SOL     OW21305   2.284   2.274   8.552  0.5282  0.4595 -0.0367
36527SOL    HW121306   2.223   2.329   8.503 -0.1415 -0.1749  0.0733
36527SOL    HW221307   2.298   2.322   8.634 -1.5880 -0.4129  0.9095
36528SOL     OW21308  13.240   4.276   2.702 -0.0936  0.8007  0.1884
36528SOL    HW121309  13.168   4.274   2.639  0.5509  0.8846 -0.5747
36528SOL    HW221310  13.248   4.185   2.731  0.1565  0.5895 -0.5138
36529SOL     OW21311   8.074   2.215   7.532  0.0990  0.1804 -0.0596
36529SOL    HW121312   8.006   2.182   7.591  0.2046  2.1753  1.3028
36529SOL    HW221313   8.041   2.196   7.444 -2.1941  0.9767  0.5488
36530SOL     OW21314   7.706  11.282   1.742  0.0084 -0.1668 -0.7091
36530SOL    HW121315   7.737  11.220   1.807 -1.9130 -1.4617 -0.9175
36530SOL    HW221316   7.781  11.337   1.722  1.2573 -1.2135  0.8931
36531SOL     OW21317  10.481   1.834   1.633 -0.4753  0.4861 -0.4792
36531SOL    HW121318  10.541   1.897   1.673  0.9541  0.1299 -1.9581
36531SOL    HW221319  10.522   1.749   1.646 -2.0739 -0.1401  0.9334
36532SOL     OW21320   1.247   1.183   3.696  0.2897  0.7012  0.5266
36532SOL    HW121321   1.184   1.197   3.767 -1.1616 -2.6742  0.0755
36532SOL    HW221322   1.326   1.154   3.740 -0.7412 -1.8092  0.8634
36533SOL     OW21323   3.309  12.059  11.187  0.0206  0.4659 -0.0634
36533SOL    HW121324   3.315  11.971  11.224 -2.5342  0.9610  1.7816
36533SOL    HW221325   3.400  12.086  11.174  0.8738 -2.1783 -0.1131
36534SOL     OW21326  11.447   9.771   2.785  0.0613 -0.0373  0.4785
36534SOL    HW121327  11.471   9.864   2.785 -3.1167  0.9867  2.6397
36534SOL    HW221328  11.475   9.739   2.870 -2.3994  0.1756  1.4589
36535SOL     OW21329   6.346   1.229   0.319  0.1411  0.1325  0.1951
36535SOL    HW121330   6.268   1.204   0.270  0.4964  1.4495 -1.1012
36535SOL    HW221331   6.418   1.182   0.277  0.4765  1.4247 -0.7149
36536SOL     OW21332   9.526   2.183   7.099  0.9866 -0.8968  0.5527
36536SOL    HW121333   9.447   2.237   7.094  1.0297 -0.9106 -0.4401
36536SOL    HW221334   9.548   2.182   7.192  0.1850 -0.3627  0.7608
36537SOL     OW21335   2.529   2.427   4.996  0.6854  0.2014 -0.4065
36537SOL    HW121336   2.513   2.519   4.976  0.9579 -0.0561 -1.9311
36537SOL    HW221337   2.495   2.380   4.920 -0.7508 -1.0810  0.9648
36538SOL     OW21338   6.900   6.681  10.581 -0.2709 -0.1236 -0.2011
36538SOL    HW121339   6.900   6.750  10.514 -1.2069 -0.6002 -0.7167
36538SOL    HW221340   6.970   6.706  10.641  2.0458 -0.7314 -2.4432
36539SOL     OW21341  10.231   0.053  10.457 -0.3915  0.0257  0.1229
36539SOL    HW121342  10.137   0.034  10.464 -0.7638  1.8786  0.5025
36539SOL    HW221343  10.257   0.014  10.373 -1.3706 -0.9531  0.2546
36540SOL     OW21344   9.380   0.367   0.004 -0.0874  0.3498 -0.5389
36540SOL    HW121345   9.337   0.413  -0.068  1.0777  1.8636 -0.3277
36540SOL    HW221346   9.447   0.429   0.035  1.1574 -1.2782  0.1604
36541SOL     OW21347  11.908   5.270  10.259  0.7492 -0.1155 -0.1969
36541SOL    HW121348  11.833   5.328  10.270 -1.7772 -3.2405  0.1510
36541SOL    HW221349  11.881   5.207  10.193  3.6052 -0.6845 -0.9943
36542SOL     OW21350   9.049  13.475   8.452 -0.3210  0.7552  0.3981
36542SOL    HW121351   9.042  13.458   8.358  0.7995  1.5711  0.1456
36542SOL    HW221352   8.988  13.413   8.492  0.0583 -0.4259 -0.7793
36543SOL     OW21353   8.539   1.807  12.185  0.1155 -0.0133 -0.1236
36543SOL    HW121354   8.486   1.886  12.175 -1.1622 -0.8509 -0.2188
36543SOL    HW221355   8.565   1.807  12.277  1.3979  1.2561 -0.4362
36544SOL     OW21356  13.193  10.594   7.645  0.3727 -0.3310 -0.0629
36544SOL    HW121357  13.242  10.530   7.592  0.6834  0.9166 -1.3281
36544SOL    HW221358  13.101  10.573   7.627  0.4706 -0.0158 -1.0244
36545SOL     OW21359  12.099   5.045   1.027  0.3660  0.2482  0.4307
36545SOL    HW121360  12.135   5.114   1.082  1.9413 -0.9541  0.9661
36545SOL    HW221361  12.175   5.001   0.989 -0.5849 -1.1703  0.0670
36546SOL     OW21362   6.330   2.780   9.969 -0.2341 -0.6912 -0.0492
36546SOL    HW121363   6.408   2.738   9.932 -0.1085 -0.5012 -0.0089
36546SOL    HW221364   6.311   2.852   9.908 -0.9795 -1.3520 -0.5995
36547SOL     OW21365   5.430   2.557   7.296  0.1935 -0.9493 -0.3534
36547SOL    HW121366   5.464   2.624   7.356  1.0788 -1.2090 -0.5422
36547SOL    HW221367   5.406   2.606   7.217 -1.2828 -0.5637  0.3113
36548SOL     OW21368  12.607  11.617   4.721  0.7122 -0.1829  0.2472
36548SOL    HW121369  12.615  11.689   4.658 -2.5599 -0.4405 -0.6334
36548SOL    HW221370  12.568  11.546   4.671 -0.1431 -1.0863  2.0980
36549SOL     OW21371   8.826   1.981   9.669 -0.1693  0.3295 -0.2495
36549SOL    HW121372   8.769   2.034   9.614  0.2112  0.3722 -0.6147
36549SOL    HW221373   8.771   1.951   9.741 -0.1796  1.9779  0.4695
36550SOL     OW21374   0.683   2.305   1.365 -0.1767  0.2119 -0.2068
36550SOL    HW121375   0.740   2.343   1.432  0.9032 -0.2063 -0.8787
36550SOL    HW221376   0.692   2.211   1.377  0.0464  0.1342 -0.9678
36551SOL     OW21377   9.776   2.685   7.762  0.1396  0.1903 -0.3586
36551SOL    HW121378   9.809   2.718   7.845 -0.3774  0.5511 -0.2919
36551SOL    HW221379   9.853   2.648   7.718  0.4289  0.0615  0.2455
36552SOL     OW21380   7.924  10.179   4.898 -0.4414 -0.0458  0.5240
36552SOL    HW121381   7.839  10.222   4.885  0.4082  2.1517  1.8054
36552SOL    HW221382   7.985  10.231   4.846  0.8350  1.1850  3.0940
36553SOL     OW21383  12.433  12.774   6.434 -0.0343 -0.2646  0.3258
36553SOL    HW121384  12.510  12.815   6.473 -0.8389  0.8769  0.7932
36553SOL    HW221385  12.452  12.771   6.340  1.0334 -1.0567  0.5508
36554SOL     OW21386   3.362  12.676  10.826  0.0682  0.1651  0.0956
36554SOL    HW121387   3.380  12.764  10.790  3.1611 -0.0923  0.7355
36554SOL    HW221388   3.342  12.623  10.749 -1.1208  1.2503 -0.3788
36555SOL     OW21389  10.260  12.754  11.613 -0.3725 -0.2026 -0.9868
36555SOL    HW121390  10.190  12.729  11.672  1.1906 -0.4060  0.8763
36555SOL    HW221391  10.221  12.821  11.556 -2.1239 -0.5198 -0.2048
36556SOL     OW21392  13.271  12.469   1.976  0.2509  0.2828  0.0428
36556SOL    HW121393  13.182  12.435   1.982  0.4705 -0.2082  0.5191
36556SOL    HW221394  13.276  12.535   2.045  0.2729  0.2858  0.0383
36557SOL     OW21395   0.316   7.656   0.207  0.2256  0.2499  0.2521
36557SOL    HW121396   0.333   7.726   0.143  1.7235  1.2344  1.6570
36557SOL    HW221397   0.257   7.696   0.271 -0.2965 -0.3385  0.1420
36558SOL     OW21398   0.131   8.640  10.438  0.3516  0.3442 -0.7433
36558SOL    HW121399   0.081   8.704  10.388  2.7835  3.5406  0.5306
36558SOL    HW221400   0.218   8.640  10.398  1.0265 -0.5657  0.6353
36559SOL     OW21401  11.139   4.404   7.561  0.3817 -0.2383 -0.3270
36559SOL    HW121402  11.165   4.493   7.585 -0.2056 -0.1500  0.0193
36559SOL    HW221403  11.215   4.350   7.582  0.3281  0.0200  0.6003
36560SOL     OW21404  12.126   6.252   4.529  0.2004 -0.1352  0.5046
36560SOL    HW121405  12.190   6.265   4.599 -0.2641 -0.3054  0.9669
36560SOL    HW221406  12.150   6.315   4.462  0.2512  0.4934  1.1074
36561SOL     OW21407   8.092   0.910   8.522  0.0503  0.1023  0.2611
36561SOL    HW121408   8.136   0.878   8.444  0.7913 -0.7490  1.0128
36561SOL    HW221409   8.141   0.989   8.547 -0.6899  0.8473 -0.5814
36562SOL     OW21410   3.515   4.778  10.702 -0.4488 -0.1661 -0.8976
36562SOL    HW121411   3.447   4.810  10.642 -2.0472 -2.3207 -0.3757
36562SOL    HW221412   3.470   4.771  10.786  1.0162  0.2419 -0.0556
36563SOL     OW21413   1.589   2.257   3.864 -0.0858 -0.8701 -0.0366
36563SOL    HW121414   1.613   2.300   3.782  0.4583 -2.5164 -0.7882
36563SOL    HW221415   1.647   2.181   3.869  0.7857 -0.1142  2.5564
36564SOL     OW21416   9.038   3.766   9.160  0.4951  0.2356 -0.1321
36564SOL    HW121417   9.104   3.703   9.132  0.9413  1.2666 -1.4690
36564SOL    HW221418   8.969   3.760   9.095  0.7067  1.3633 -0.4824
36565SOL     OW21419   7.378   7.806   9.625  0.1239 -0.1652 -0.2070
36565SOL    HW121420   7.360   7.840   9.538  0.1576 -1.9139 -0.9455
36565SOL    HW221421   7.300   7.755   9.648 -0.3523  1.1475  1.2794
36566SOL     OW21422   2.297  10.818   3.553  0.4855 -0.3579  0.2824
36566SOL    HW121423   2.219  10.846   3.601 -0.2746 -1.5568 -0.1888
36566SOL    HW221424   2.274  10.830   3.461  2.0933  2.3394  0.1346
36567SOL     OW21425  12.960   6.495   9.476  0.2668 -0.1494  0.5550
36567SOL    HW121426  12.866   6.477   9.482 -0.2134  2.1958  0.9902
36567SOL    HW221427  12.990   6.441   9.402 -1.4267 -0.8554  0.3312
36568SOL     OW21428   8.792  10.277   5.741  0.7552  0.9220  0.3517
36568SOL    HW121429   8.757  10.193   5.773 -0.2152  1.3618  0.4561
36568SOL    HW221430   8.884  10.276   5.769  0.8481 -0.2496  0.0605
36569SOL     OW21431   4.021  11.566   8.437 -0.4200  0.1337 -0.3004
36569SOL    HW121432   3.931  11.572   8.405 -0.6772 -0.6915  0.2112
36569SOL    HW221433   4.013  11.523   8.523  0.4217  0.4471 -0.0494
36570SOL     OW21434   9.987  12.891   5.153  0.3401  0.3296 -0.2388
36570SOL    HW121435   9.970  12.830   5.225  1.5410  0.4880  0.2085
36570SOL    HW221436  10.052  12.847   5.099  2.2008  1.6558  0.7804
36571SOL     OW21437   6.085  12.654   6.886 -0.2213  0.3231  0.1196
36571SOL    HW121438   6.170  12.611   6.897 -0.3213  0.3617  1.0969
36571SOL    HW221439   6.024  12.582   6.867  0.0267  0.2999 -0.6163
36572SOL     OW21440   8.178  11.230   8.321 -0.1494  0.1947  0.1983
36572SOL    HW121441   8.121  11.158   8.295  1.1339 -0.2146 -1.6791
36572SOL    HW221442   8.187  11.220   8.416 -1.9337 -0.6235  0.3247
36573SOL     OW21443  10.404   1.709   9.963 -0.4539  0.7155 -0.1655
36573SOL    HW121444  10.434   1.644  10.027  0.2207  2.6290  1.5726
36573SOL    HW221445  10.478   1.769   9.953 -0.9539  1.0870 -1.9484
36574SOL     OW21446   3.442  11.737   2.562  0.1934  0.6642  0.7545
36574SOL    HW121447   3.485  11.815   2.597  1.2136 -0.0398  1.1272
36574SOL    HW221448   3.469  11.734   2.470  1.4635 -0.0769  1.1197
36575SOL     OW21449   7.542  11.638   5.049 -0.3734 -0.3310  0.1132
36575SOL    HW121450   7.489  11.693   5.107  2.7017  0.9555  1.9237
36575SOL    HW221451   7.590  11.699   4.994  1.7315 -1.1988  0.8763
36576SOL     OW21452   7.386   2.922  13.540  0.6737  0.0097  0.2503
36576SOL    HW121453   7.472   2.944  13.575  1.0094 -1.6532  0.5292
36576SOL    HW221454   7.325   2.975  13.591  1.4727  0.7216  0.4835
36577SOL     OW21455  12.425   6.031   3.826 -0.2573  0.7375  0.0398
36577SOL    HW121456  12.390   5.957   3.777 -1.1886  0.7449  0.6749
36577SOL    HW221457  12.348   6.073   3.864  0.2940  1.8026  0.0154
36578SOL     OW21458   5.406   1.491   2.879 -0.1736 -0.3236 -0.3182
36578SOL    HW121459   5.340   1.426   2.856  1.1457 -1.6334 -0.5096
36578SOL    HW221460   5.437   1.464   2.966 -0.3704  0.6954  0.0838
36579SOL     OW21461   3.513  13.131   8.378  0.0421 -0.5656  0.0351
36579SOL    HW121462   3.462  13.202   8.338  0.2855 -0.6161 -0.3792
36579SOL    HW221463   3.457  13.054   8.371  0.1936 -0.6353 -0.4810
36580SOL     OW21464   9.002   3.917  10.899 -0.9323  0.7345  0.5008
36580SOL    HW121465   8.928   3.965  10.861 -0.1566  1.8194  0.3393
36580SOL    HW221466   8.961   3.854  10.959 -2.0364  0.6743 -0.2827
36581SOL     OW21467  12.116   9.869   9.040  0.2301  0.1503  0.0102
36581SOL    HW121468  12.134   9.836   8.952  3.0156 -1.7543  1.1543
36581SOL    HW221469  12.186   9.933   9.055 -0.1665  0.3832  0.8933
36582SOL     OW21470   5.967   5.019   8.827 -0.4416  0.5787 -0.3770
36582SOL    HW121471   5.995   5.058   8.909 -2.0044  0.9751  0.0127
36582SOL    HW221472   6.012   5.070   8.759 -1.7304  2.5343  0.1475
36583SOL     OW21473  10.808  12.565   7.458 -0.4273  0.4403 -0.2002
36583SOL    HW121474  10.775  12.596   7.373 -1.8614  1.3420  0.6455
36583SOL    HW221475  10.787  12.472   7.460  0.1069  0.2901 -1.0381
36584SOL     OW21476   2.682   2.222   3.967  0.0952 -0.0233  0.2058
36584SOL    HW121477   2.669   2.273   3.887 -0.3731  0.8278  0.8033
36584SOL    HW221478   2.604   2.167   3.973  0.2519 -0.2765 -0.0535
36585SOL     OW21479   6.079  13.672   9.407 -0.1442  0.1563 -0.5373
36585SOL    HW121480   6.138  13.602   9.434  0.0765  0.3955 -0.3867
36585SOL    HW221481   5.994  13.646   9.440 -0.0458  0.0044 -0.4011
36586SOL     OW21482   7.048   0.243  11.043 -0.3189 -0.1846 -0.1130
36586SOL    HW121483   7.072   0.298  11.118  0.5266 -0.1959 -0.3648
36586SOL    HW221484   6.959   0.271  11.021 -1.1898 -1.2576  1.8427
36587SOL     OW21485   2.533   2.967   6.526 -0.3809 -0.3393  0.4551
36587SOL    HW121486   2.451   2.997   6.566  0.6004  1.7206  1.0460
36587SOL    HW221487   2.602   3.004   6.581  1.0042 -2.9951  0.6685
36588SOL     OW21488  12.204   8.099   6.933  0.1857  0.0348  0.2125
36588SOL    HW121489  12.158   8.063   7.008  1.2375  2.3501  2.0776
36588SOL    HW221490  12.151   8.173   6.905  0.4203 -0.0864 -0.6033
36589SOL     OW21491   9.714   9.989   6.399  0.2519 -0.6553  0.2065
36589SOL    HW121492   9.648   9.920   6.410 -1.2296  0.6414 -0.2804
36589SOL    HW221493   9.684  10.040   6.325  1.2171  0.6577  0.6765
36590SOL     OW21494   5.281   6.956   6.663 -0.2255  0.3947 -0.0058
36590SOL    HW121495   5.201   6.960   6.610  0.0438 -1.8700 -0.6647
36590SOL    HW221496   5.318   6.870   6.645  2.7798  1.6211 -0.2707
36591SOL     OW21497   9.611   9.306   5.512 -0.4306  0.4667 -0.4304
36591SOL    HW121498   9.632   9.228   5.461  0.2296  0.2235  0.1939
36591SOL    HW221499   9.569   9.271   5.591 -1.5496  0.8428 -0.8381
36592SOL     OW21500   4.907   8.890   4.421  0.1154  0.1069  0.4976
36592SOL    HW121501   4.863   8.924   4.343 -0.4288 -1.1677  0.2331
36592SOL    HW221502   4.989   8.940   4.425 -1.1928  2.3810  0.8912
36593SOL     OW21503  11.204  11.968   8.781 -0.0193 -0.3075  0.0468
36593SOL    HW121504  11.291  12.007   8.777 -0.3601  0.4904  0.2533
36593SOL    HW221505  11.159  12.000   8.703  0.0839 -1.2629 -0.4199
36594SOL     OW21506   8.106   7.021  10.357  0.3002  0.1157 -0.1121
36594SOL    HW121507   8.066   7.102  10.389  0.9374  0.1122  0.7547
36594SOL    HW221508   8.090   7.022  10.263  0.3271  1.2792 -0.1284
36595SOL     OW21509  10.080   2.013  13.539 -0.4617  0.1131 -0.1330
36595SOL    HW121510  10.060   1.954  13.611  2.2601 -1.6771 -0.6762
36595SOL    HW221511  10.003   2.009  13.482 -0.9294 -1.8469  0.5658
36596SOL     OW21512   9.904  10.209  11.865  0.3980 -1.0042 -0.1050
36596SOL    HW121513   9.928  10.286  11.813  0.7401 -1.8593 -1.2671
36596SOL    HW221514   9.974  10.146  11.848  0.0641 -1.6152  0.7372
36597SOL     OW21515   8.520  13.425   8.158  0.1314 -0.0520 -0.0293
36597SOL    HW121516   8.453  13.435   8.090 -0.2479  0.9116  0.4743
36597SOL    HW221517   8.494  13.346   8.206 -0.8491  0.5010  0.3750
36598SOL     OW21518   9.580   9.661   3.237 -0.3977 -0.2697 -0.1614
36598SOL    HW121519   9.536   9.686   3.156 -0.5117  1.2066  0.3314
36598SOL    HW221520   9.587   9.743   3.287 -0.2441 -1.1344  1.2810
36599SOL     OW21521   4.527  10.408  11.684 -0.1174 -0.0575 -0.0470
36599SOL    HW121522   4.599  10.468  11.706 -0.4621 -0.3329  1.9553
36599SOL    HW221523   4.516  10.354  11.762 -0.3029 -2.2876 -1.5355
36600SOL     OW21524   9.439   1.234   8.047  0.1760 -0.1603 -0.0199
36600SOL    HW121525   9.353   1.275   8.041 -1.1700 -2.8954 -1.0688
36600SOL    HW221526   9.429   1.167   8.115  1.4033 -0.7086 -0.3455
36601SOL     OW21527  13.471  12.819   5.794  0.6195 -0.3957 -0.7568
36601SOL    HW121528  13.451  12.731   5.765  0.7136 -0.6898  0.0404
36601SOL    HW221529  13.526  12.807   5.872 -0.5188  0.3186  0.2035
36602SOL     OW21530   9.102  13.675   0.376 -0.0339  0.5643  0.1663
36602SOL    HW121531   9.142  13.761   0.391 -1.1283  0.9429  1.0469
36602SOL    HW221532   9.062  13.652   0.460  0.1096 -0.7348 -0.1127
36603SOL     OW21533   5.439   7.411   5.826 -0.0723  0.9273  0.1786
36603SOL    HW121534   5.504   7.376   5.765 -1.4266  0.6131 -1.1560
36603SOL    HW221535   5.445   7.506   5.815 -0.2318  0.8763 -0.3855
36604SOL     OW21536   8.834  10.465   3.040  1.0611 -0.0085  0.3831
36604SOL    HW121537   8.907  10.476   3.101  0.4278  0.4960  1.0613
36604SOL    HW221538   8.861  10.512   2.962  1.5360  0.0264  0.5629
36605SOL     OW21539  12.006  12.921   9.130 -0.0779 -0.2806 -0.3627
36605SOL    HW121540  12.097  12.907   9.156  0.7955  0.2866 -2.8267
36605SOL    HW221541  12.006  13.009   9.091 -1.7380 -0.1895 -0.2307
36606SOL     OW21542   1.182   0.819   5.715  0.0663 -0.3030  0.0826
36606SOL    HW121543   1.230   0.782   5.788 -2.1355 -0.7372  1.3872
36606SOL    HW221544   1.130   0.890   5.753  1.7563  2.1441 -1.7912
36607SOL     OW21545   3.936   5.003   7.137  0.5060  0.2453 -0.5089
36607SOL    HW121546   4.009   4.977   7.081 -0.6183  0.4547 -2.1514
36607SOL    HW221547   3.864   4.945   7.111 -0.1920  0.6896  0.3861
36608SOL     OW21548  11.659   8.203   7.081  0.3152 -0.1505  0.1529
36608SOL    HW121549  11.736   8.260   7.080  0.0163  0.3433  2.0772
36608SOL    HW221550  11.642   8.187   7.174 -1.9029 -0.2413 -0.2160
36609SOL     OW21551  10.239   6.259  12.761  0.0783  0.4140  0.1375
36609SOL    HW121552  10.159   6.264  12.813  0.4153 -1.4125  0.9417
36609SOL    HW221553  10.303   6.221  12.822  0.6889 -1.1262 -1.4020
36610SOL     OW21554   7.918   2.352   1.698  0.2567  0.3784 -0.4283
36610SOL    HW121555   7.892   2.309   1.617 -0.9774  0.0737  0.1162
36610SOL    HW221556   7.863   2.430   1.703  2.5033  2.1811 -1.4422
36611SOL     OW21557   3.550   9.127   9.260 -0.1123  0.5363  0.2463
36611SOL    HW121558   3.529   9.219   9.277 -0.2149  0.3154  1.4690
36611SOL    HW221559   3.571   9.092   9.347 -3.2141 -1.3635  0.4027
36612SOL     OW21560   8.399   1.622   6.741  0.3038 -0.4268 -0.3761
36612SOL    HW121561   8.393   1.684   6.813 -0.6299 -0.7136 -0.1963
36612SOL    HW221562   8.406   1.677   6.662 -1.1071 -0.0713 -0.2731
36613SOL     OW21563  10.352   9.178   3.333 -0.0068 -0.3186 -0.1159
36613SOL    HW121564  10.408   9.209   3.404  0.3116 -1.0859 -0.0246
36613SOL    HW221565  10.409   9.125   3.278  0.0708  1.3044 -1.6763
36614SOL     OW21566  12.098   3.053   7.926  0.3959  0.1571  0.5248
36614SOL    HW121567  12.129   3.109   7.997  0.6244 -1.1385  1.4804
36614SOL    HW221568  12.169   3.054   7.862  0.6562  0.4779  0.8110
36615SOL     OW21569   7.463   1.748  11.417 -0.0202 -0.4997 -0.5815
36615SOL    HW121570   7.546   1.713  11.384  0.6136  0.7321 -0.3426
36615SOL    HW221571   7.411   1.765  11.339  1.3445  2.0946 -1.0252
36616SOL     OW21572   0.700   4.658  11.993  0.2174 -0.3184 -0.6151
36616SOL    HW121573   0.662   4.646  11.906  0.7712  1.6812 -1.1665
36616SOL    HW221574   0.625   4.657  12.052 -0.3053 -0.2816 -1.2646
36617SOL     OW21575   4.772   7.912   5.943 -0.7619  0.6429  0.4361
36617SOL    HW121576   4.679   7.937   5.949 -1.3681 -0.6872 -2.0653
36617SOL    HW221577   4.819   7.993   5.958 -2.2832  1.2767  2.2345
36618SOL     OW21578   4.012   6.180   9.565  0.4839 -0.1584 -0.0433
36618SOL    HW121579   4.055   6.131   9.634  1.7360 -1.4190 -1.6330
36618SOL    HW221580   4.047   6.144   9.484 -0.9154  1.2517 -1.3645
36619SOL     OW21581  10.198  10.920  10.889  0.1241  0.0042 -0.0920
36619SOL    HW121582  10.142  10.973  10.833  0.0084 -1.0082 -0.9763
36619SOL    HW221583  10.287  10.952  10.871  0.1019 -0.3811 -0.9664
36620SOL     OW21584   6.431   9.551   3.419  0.1648 -0.1858  0.5663
36620SOL    HW121585   6.386   9.517   3.342  0.6551  1.8006 -0.6862
36620SOL    HW221586   6.382   9.517   3.493 -1.2100 -0.9870 -0.6569
36621SOL     OW21587   8.733  10.727   3.202 -0.1802  0.1749 -0.4684
36621SOL    HW121588   8.657  10.715   3.144  0.3871 -0.6219 -1.0797
36621SOL    HW221589   8.745  10.642   3.244 -0.8856  0.8699  1.2454
36622SOL     OW21590  10.991   8.373   9.489  0.0106  0.0942 -0.2657
36622SOL    HW121591  10.940   8.438   9.538 -2.1488 -0.7949 -1.2098
36622SOL    HW221592  10.987   8.294   9.543 -1.7645 -0.6796 -1.4391
36623SOL     OW21593  10.152   3.409   1.894  0.1569 -0.3867 -0.4976
36623SOL    HW121594  10.239   3.396   1.856  0.4945 -0.9380  0.4219
36623SOL    HW221595  10.122   3.492   1.857  0.7832 -0.5303 -1.3596
36624SOL     OW21596  12.449   3.385   5.196  0.0149  0.3829 -0.8052
36624SOL    HW121597  12.372   3.354   5.148 -0.5404  0.6765 -0.1205
36624SOL    HW221598  12.485   3.454   5.140  0.0393 -0.0521 -1.3355
36625SOL     OW21599   7.971   3.228   7.334 -0.0040  0.1652 -0.1537
36625SOL    HW121600   8.051   3.221   7.386  0.7079 -1.2234 -1.3634
36625SOL    HW221601   7.996   3.282   7.259 -0.3878  0.2891 -0.1933
36626SOL     OW21602  10.952  13.624   6.196 -0.5800  0.3886 -0.0238
36626SOL    HW121603  10.947  13.572   6.115  2.9862  1.0012 -0.8432
36626SOL    HW221604  10.862  13.649   6.215 -1.7294 -1.0189 -2.9970
36627SOL     OW21605  12.141  10.524   1.683  0.0354 -0.0761 -0.2521
36627SOL    HW121606  12.211  10.459   1.670 -0.4979 -0.9085  0.8093
36627SOL    HW221607  12.117  10.514   1.775 -1.0998  0.5929 -0.4622
36628SOL     OW21608   0.716   5.674  13.058 -0.2035 -0.1602 -0.3233
36628SOL    HW121609   0.801   5.717  13.067 -0.5002  0.4892 -0.5571
36628SOL    HW221610   0.663   5.736  13.008 -0.6547 -0.7848 -0.6355
36629SOL     OW21611   2.195   0.422   6.794 -0.0001  0.6960  0.1278
36629SOL    HW121612   2.103   0.427   6.820 -0.4377  0.9421 -1.4021
36629SOL    HW221613   2.199   0.350   6.732  1.3030 -0.8107  1.8631
36630SOL     OW21614   1.821   8.901   1.030 -0.0089  0.2928  0.1020
36630SOL    HW121615   1.818   8.897   0.935 -0.4297 -1.9132  0.1404
36630SOL    HW221616   1.914   8.902   1.052  0.0873  0.7389 -0.3358
36631SOL     OW21617   7.864  12.156   6.872  0.1881  0.3347  0.3984
36631SOL    HW121618   7.876  12.218   6.944  1.9178  1.5275 -0.8343
36631SOL    HW221619   7.950  12.153   6.828 -0.7524 -0.4531 -1.5154
36632SOL     OW21620   8.753  11.841   9.643  0.2270 -0.5157  0.7916
36632SOL    HW121621   8.688  11.814   9.578 -0.6035 -0.1987  1.4713
36632SOL    HW221622   8.728  11.794   9.723 -0.4869  1.2431  1.6479
36633SOL     OW21623   3.275  10.060  10.152 -0.2255  0.2937 -0.2866
36633SOL    HW121624   3.335  10.000  10.195  0.0475 -1.3404 -2.8113
36633SOL    HW221625   3.322  10.092  10.076 -0.8306  2.8345  0.3045
36634SOL     OW21626   2.542   5.802   7.973 -0.1039  0.3380 -0.4959
36634SOL    HW121627   2.550   5.897   7.963 -1.1097  0.6739  1.3713
36634SOL    HW221628   2.521   5.771   7.886 -0.8168  1.9798 -0.9595
36635SOL     OW21629   4.431   5.252   6.765  0.3520 -0.6541  0.0358
36635SOL    HW121630   4.336   5.247   6.753  0.1790 -0.7125  1.2786
36635SOL    HW221631   4.443   5.314   6.837  1.3358  0.3386 -0.9292
36636SOL     OW21632  13.438  11.741  11.601  0.4324 -0.1838 -0.3385
36636SOL    HW121633  13.512  11.680  11.596  0.9982  0.3915  0.7614
36636SOL    HW221634  13.461  11.811  11.541  0.3894 -0.4119 -0.6233
36637SOL     OW21635   9.685  12.598   6.020  0.2102  0.0256  0.5676
36637SOL    HW121636   9.771  12.639   6.018 -0.1455  0.7562 -0.1220
36637SOL    HW221637   9.628  12.664   6.061 -0.1174 -0.2657  0.5883
36638SOL     OW21638   8.214   9.394   2.981 -0.5199  0.2772 -0.3147
36638SOL    HW121639   8.236   9.359   2.895  2.6838  0.3712  0.3359
36638SOL    HW221640   8.278   9.354   3.040 -2.3924  0.4757  2.0016
36639SOL     OW21641  12.764   9.691   0.075  0.0542 -0.0946 -0.2555
36639SOL    HW121642  12.712   9.739   0.139 -0.3318 -0.1876 -0.4958
36639SOL    HW221643  12.750   9.599   0.098 -0.7586 -0.1609 -0.9857
36640SOL     OW21644   2.171   5.605   1.968  0.3827  0.5073 -0.1815
36640SOL    HW121645   2.086   5.565   1.988  1.4507 -2.1451 -0.4782
36640SOL    HW221646   2.150   5.676   1.908 -1.6348 -0.1189 -0.2989
36641SOL     OW21647  10.480   3.328   4.328 -0.1811  0.5387 -0.3736
36641SOL    HW121648  10.510   3.283   4.249 -1.0266  1.2898 -1.1492
36641SOL    HW221649  10.522   3.280   4.400  1.3387  0.3957 -1.2967
36642SOL     OW21650   2.528   8.078   2.987 -0.8795 -0.2643  0.0207
36642SOL    HW121651   2.597   8.015   2.966 -1.7780 -0.6603 -1.9597
36642SOL    HW221652   2.454   8.050   2.934 -1.5342  2.0519 -0.3621
36643SOL     OW21653  10.581   4.029   5.591  0.2611 -0.0402  0.4775
36643SOL    HW121654  10.553   3.961   5.653  2.4197 -0.9854  0.4958
36643SOL    HW221655  10.530   4.011   5.512 -0.4748 -0.5704  1.0506
36644SOL     OW21656   0.599   1.401   8.417  0.8086 -0.2723  0.0506
36644SOL    HW121657   0.544   1.361   8.350  1.5596  0.4051 -1.0070
36644SOL    HW221658   0.689   1.383   8.389  1.1402 -0.1282  0.9752
36645SOL     OW21659   3.871   8.800   9.070 -0.4173 -0.3179  0.1351
36645SOL    HW121660   3.792   8.788   9.122  0.2646 -0.4354  1.1792
36645SOL    HW221661   3.849   8.765   8.983 -1.7691  0.4219  0.1535
36646SOL     OW21662  11.083  12.482  11.269  0.3548  0.6714 -0.3465
36646SOL    HW121663  11.116  12.510  11.183  0.6468  0.6249 -0.2529
36646SOL    HW221664  11.063  12.563  11.315 -1.1769  0.6741 -0.9730
36647SOL     OW21665   5.284   4.954   3.107  0.3267 -0.0320 -0.0301
36647SOL    HW121666   5.259   5.046   3.095  0.7015  0.0360 -0.3124
36647SOL    HW221667   5.204   4.905   3.089 -0.5854  0.3432  2.5545
36648SOL     OW21668   0.185   2.511   6.613  0.3978  0.4484 -0.0012
36648SOL    HW121669   0.163   2.589   6.664  0.0551  0.2713  0.1267
36648SOL    HW221670   0.146   2.526   6.528  0.0313  0.2645  0.1327
36649SOL     OW21671  11.203  12.542   7.065  0.3549 -0.2790 -0.0793
36649SOL    HW121672  11.145  12.466   7.060 -0.0112  0.0589 -1.1861
36649SOL    HW221673  11.167  12.595   7.136 -1.2141  0.3185 -1.2449
36650SOL     OW21674   9.215  10.688   6.012  0.0660 -0.7541 -0.4664
36650SOL    HW121675   9.213  10.592   6.015  0.3107 -0.7544 -0.3402
36650SOL    HW221676   9.251  10.714   6.096  0.8403 -0.5797 -0.8490
36651SOL     OW21677   3.580   8.795   5.405  0.0281 -0.0457  0.0496
36651SOL    HW121678   3.491   8.796   5.441 -0.0629  0.0275 -0.1709
36651SOL    HW221679   3.572   8.845   5.323  0.0906 -0.7612 -0.3948
36652SOL     OW21680   0.729   4.899   7.457 -0.2858 -0.3075  0.2771
36652SOL    HW121681   0.674   4.948   7.397  0.1408 -1.6065 -1.2424
36652SOL    HW221682   0.802   4.958   7.478 -0.2763  0.0621 -0.7406
36653SOL     OW21683   1.258   9.524   6.870  0.4453  0.1174 -0.1324
36653SOL    HW121684   1.264   9.617   6.894 -0.3079  0.1146  0.0812
36653SOL    HW221685   1.212   9.524   6.786  0.5072 -0.0636 -0.1664
36654SOL     OW21686  10.619   9.796  13.454  0.2761  0.2524  0.8268
36654SOL    HW121687  10.663   9.717  13.423  1.5021  0.8106  1.0677
36654SOL    HW221688  10.529   9.787  13.425  0.7267 -0.5761 -0.3873
36655SOL     OW21689  13.382   6.385   7.398  0.3566  0.2765 -0.2166
36655SOL    HW121690  13.380   6.470   7.440  2.1253  1.7519 -2.8491
36655SOL    HW221691  13.337   6.398   7.314  1.1803 -1.1744 -0.9386
36656SOL     OW21692   4.371   1.741   7.701 -0.2249  0.7597 -0.1577
36656SOL    HW121693   4.287   1.772   7.667 -0.5835  0.5960  0.5576
36656SOL    HW221694   4.426   1.733   7.624 -1.1767 -0.0887 -0.7859
36657SOL     OW21695   4.752  10.294   9.010 -0.2188 -0.6740  0.2986
36657SOL    HW121696   4.841  10.328   9.024 -0.2009 -0.9399  0.8533
36657SOL    HW221697   4.710  10.300   9.095 -0.5128 -1.1912  0.1953
36658SOL     OW21698   3.089   1.616   0.059 -0.2989 -0.0266  0.6542
36658SOL    HW121699   3.137   1.642   0.138 -0.2398  3.0875 -0.2729
36658SOL    HW221700   2.997   1.626   0.083 -0.2834  0.7925  0.4117
36659SOL     OW21701   1.173   0.110  10.952 -0.0302 -0.3536  0.4264
36659SOL    HW121702   1.097   0.158  10.985 -0.0711  0.7489 -1.1229
36659SOL    HW221703   1.227   0.178  10.912  1.9904 -1.0627  1.8194
36660SOL     OW21704  13.002  13.380  12.014  0.3489  0.0110  0.1000
36660SOL    HW121705  12.924  13.427  11.986  0.6044  0.0013 -0.6502
36660SOL    HW221706  13.001  13.387  12.109 -0.6193 -0.0830  0.1065
36661SOL     OW21707  13.503   7.186   3.758  0.6663 -0.3006  0.2806
36661SOL    HW121708  13.587   7.164   3.799  0.9936  0.5243  0.0788
36661SOL    HW221709  13.512   7.279   3.734  0.5083 -0.7454 -1.6976
36662SOL     OW21710   9.619  12.460   0.916  0.2715  0.0106 -0.5223
36662SOL    HW121711   9.667  12.478   0.835  0.8233  0.1754 -0.1716
36662SOL    HW221712   9.528  12.481   0.896  0.1999 -1.1488 -1.4715
36663SOL     OW21713   5.619  12.721   4.739  0.1634  0.2708 -0.2327
36663SOL    HW121714   5.539  12.699   4.690 -0.0386 -1.7178  0.8812
36663SOL    HW221715   5.611  12.815   4.756 -1.8222  0.1785 -0.3805
36664SOL     OW21716  13.241   0.439   8.694  0.2337  0.2452 -0.3198
36664SOL    HW121717  13.155   0.481   8.696  0.0137 -0.2184  1.0158
36664SOL    HW221718  13.222   0.347   8.678  0.7707  0.6507 -4.3336
36665SOL     OW21719   3.016   3.838   0.633  0.0172  0.5592  0.0873
36665SOL    HW121720   3.056   3.812   0.551  1.8882 -0.7168  1.3488
36665SOL    HW221721   3.087   3.874   0.686 -0.3582 -1.7898  2.4178
36666SOL     OW21722   8.660   5.699  11.623 -0.6306 -0.1377  0.0329
36666SOL    HW121723   8.600   5.630  11.594 -0.1446 -0.2137 -0.8415
36666SOL    HW221724   8.702   5.663  11.702 -1.3814 -0.2694  0.3786
36667SOL     OW21725  10.518   8.506   7.032  0.1621  0.1840 -0.4182
36667SOL    HW121726  10.560   8.444   7.091  2.5536  1.1160 -1.0054
36667SOL    HW221727  10.540   8.592   7.068  0.5342  0.7488 -1.8937
36668SOL     OW21728   4.279   1.978   1.867  0.3369  0.3159 -0.3561
36668SOL    HW121729   4.252   2.043   1.933 -1.3268 -1.2550  0.5985
36668SOL    HW221730   4.231   2.003   1.788  2.1306  2.0442 -1.0086
36669SOL     OW21731  11.556  13.281   5.964 -0.3275 -0.3469  0.1393
36669SOL    HW121732  11.631  13.224   5.950  0.5186  0.8462 -0.4018
36669SOL    HW221733  11.559  13.343   5.891 -0.3827  1.2289  1.3909
36670SOL     OW21734   5.280  11.404   5.314 -0.0224  0.3121 -0.2254
36670SOL    HW121735   5.306  11.483   5.361  2.5082 -0.1851 -0.6391
36670SOL    HW221736   5.363  11.359   5.295 -1.1458 -0.9377 -2.6213
36671SOL     OW21737   7.895   6.099  12.223  0.3281  0.1265 -0.1529
36671SOL    HW121738   7.803   6.082  12.243  0.8049  0.2556  2.4614
36671SOL    HW221739   7.930   6.012  12.200 -0.3326  0.0047 -0.7355
36672SOL     OW21740  10.185   3.252  12.246  0.4863 -0.2776  0.5247
36672SOL    HW121741  10.281   3.247  12.250  0.5483  0.3840  0.0197
36672SOL    HW221742  10.157   3.161  12.250  1.1796 -0.5297  0.0030
36673SOL     OW21743   1.357  12.777   9.733  0.5600 -0.0076  0.1347
36673SOL    HW121744   1.388  12.815   9.651 -2.1827  3.1400  0.3461
36673SOL    HW221745   1.421  12.708   9.754  3.0376  1.1133 -3.0134
36674SOL     OW21746   6.752   2.234   1.821  0.0888 -0.0326  0.1686
36674SOL    HW121747   6.679   2.185   1.783  0.4022  1.3968 -2.6014
36674SOL    HW221748   6.777   2.185   1.899  0.0037 -3.9315 -1.9988
36675SOL     OW21749   8.514   9.131   2.474 -0.5896 -0.0133  0.2283
36675SOL    HW121750   8.497   9.046   2.514  0.0228 -0.5107 -0.5250
36675SOL    HW221751   8.608   9.130   2.456 -0.5433  0.8993  0.3672
36676SOL     OW21752   3.098   2.793   3.678 -1.0948  0.0476 -0.9829
36676SOL    HW121753   3.103   2.875   3.630  1.0446  0.3229 -0.4128
36676SOL    HW221754   3.145   2.811   3.760 -2.1702 -1.2191 -0.0550
36677SOL     OW21755   0.642   3.320  10.052  0.3799  0.1628 -0.2429
36677SOL    HW121756   0.727   3.331  10.094  1.0289  1.3141 -1.7828
36677SOL    HW221757   0.578   3.338  10.122  1.4032  0.6238  0.5989
36678SOL     OW21758   0.213   1.320   7.048  0.5579 -0.5578 -0.4601
36678SOL    HW121759   0.183   1.378   6.979  0.3629 -0.0227  0.0614
36678SOL    HW221760   0.139   1.264   7.068  0.6022 -0.6861 -0.6579
36679SOL     OW21761   0.739  12.151   2.138  0.4217 -0.0059 -0.4347
36679SOL    HW121762   0.754  12.129   2.046  1.9858 -1.2128  0.0594
36679SOL    HW221763   0.812  12.110   2.185 -0.1055  0.9324  1.3066
36680SOL     OW21764   7.374   1.485  13.200  0.6720 -0.9549 -0.0851
36680SOL    HW121765   7.468   1.503  13.208  0.6515 -0.7487 -0.3209
36680SOL    HW221766   7.369   1.390  13.190  0.7171 -1.2630  2.2076
36681SOL     OW21767   3.715   5.960   7.625 -0.8873 -0.1030  0.2750
36681SOL    HW121768   3.639   6.018   7.626  1.2810  2.9562  0.6623
36681SOL    HW221769   3.709   5.913   7.542 -2.1549  1.5389 -0.6060
36682SOL     OW21770   5.231   5.081   6.241 -0.2430 -0.3094  0.2197
36682SOL    HW121771   5.256   5.053   6.153 -0.5577 -0.7897  0.2822
36682SOL    HW221772   5.314   5.083   6.289 -0.0126  0.3395 -0.1864
36683SOL     OW21773  11.496   8.215   5.908  0.5106  0.2659  0.5268
36683SOL    HW121774  11.581   8.201   5.949 -0.8507 -1.7668  3.0019
36683SOL    HW221775  11.436   8.231   5.982 -1.6064 -0.5769 -0.8994
36684SOL     OW21776  13.387   6.620   7.628 -0.5562 -0.3221  0.3250
36684SOL    HW121777  13.344   6.689   7.679  0.5505  0.9694 -0.4074
36684SOL    HW221778  13.474   6.613   7.667  0.2984  0.6741 -1.3313
36685SOL     OW21779   0.515  12.092   7.871  0.1725 -0.0097  0.4826
36685SOL    HW121780   0.550  12.061   7.955 -1.6343 -3.4340  0.1604
36685SOL    HW221781   0.439  12.144   7.894 -0.4630 -1.1417  1.0584
36686SOL     OW21782  12.444  11.002  11.564 -0.0748 -0.1335 -0.9943
36686SOL    HW121783  12.398  10.939  11.618 -0.5711  0.2755 -0.9305
36686SOL    HW221784  12.457  10.957  11.480 -0.8428 -0.1656 -1.1075
36687SOL     OW21785   5.064   8.549   7.492  0.1903 -0.4246  0.1434
36687SOL    HW121786   5.015   8.567   7.412  0.4618 -2.3707 -0.4945
36687SOL    HW221787   5.123   8.624   7.501 -0.5536  0.3140 -0.9054
36688SOL     OW21788   9.197   1.022   5.541  0.6509 -0.3557  0.1293
36688SOL    HW121789   9.119   1.063   5.578 -0.7259 -0.9989 -1.8774
36688SOL    HW221790   9.177   0.928   5.540  1.2523 -0.4947 -0.7712
36689SOL     OW21791   2.147   4.348  12.163 -0.6243  0.1985  1.0916
36689SOL    HW121792   2.210   4.313  12.226  0.0009  0.0584  0.3993
36689SOL    HW221793   2.114   4.272  12.116  4.1424  0.4808 -3.6868
36690SOL     OW21794  13.111   9.127   4.354  0.1245  0.2063 -0.4444
36690SOL    HW121795  13.021   9.105   4.381  1.1091 -0.0372  3.1403
36690SOL    HW221796  13.134   9.202   4.409  2.3506 -0.1826 -0.7717
36691SOL     OW21797   7.633   3.132   3.020 -0.3560  0.2498 -0.1955
36691SOL    HW121798   7.699   3.185   2.975  0.6328 -0.8691 -0.1103
36691SOL    HW221799   7.645   3.044   2.986 -1.1346 -0.1677  0.5698
36692SOL     OW21800   8.516   5.871   6.953  0.1043  0.2431  0.2975
36692SOL    HW121801   8.560   5.932   6.894  1.6756 -0.5173  0.6215
36692SOL    HW221802   8.578   5.858   7.025  0.5466 -2.8300 -0.4813
36693SOL     OW21803   1.283  12.725   7.778 -0.0586  0.3435 -0.3153
36693SOL    HW121804   1.312  12.633   7.785 -1.6284 -0.2802 -1.5036
36693SOL    HW221805   1.241  12.743   7.862  0.9368  0.2467  0.2212
36694SOL     OW21806   7.806   3.100  13.460  0.3637 -0.2400 -0.7997
36694SOL    HW121807   7.855   3.025  13.426 -1.7757 -1.3044 -1.6971
36694SOL    HW221808   7.791   3.156  13.384  1.0090  0.5889 -0.3392
36695SOL     OW21809   5.253   7.751  12.965  0.2256  0.1681  0.0304
36695SOL    HW121810   5.179   7.810  12.953  0.3742  0.2056 -0.8127
36695SOL    HW221811   5.250   7.693  12.889  0.2886 -0.6891  0.6757
36696SOL     OW21812   5.230  11.642  11.953  0.3124  0.1437  0.0623
36696SOL    HW121813   5.313  11.690  11.956  0.7246 -0.3410 -2.2596
36696SOL    HW221814   5.188  11.670  11.872 -0.8018 -1.2199  0.1275
36697SOL     OW21815   3.930   0.492   5.426 -0.9276  0.4716  0.1572
36697SOL    HW121816   3.899   0.418   5.373 -1.1820  1.1985 -0.7424
36697SOL    HW221817   3.983   0.452   5.494 -1.2885 -0.5634 -0.1469
36698SOL     OW21818   9.651  12.202   6.477  0.0410 -0.4973 -0.5345
36698SOL    HW121819   9.697  12.266   6.531 -3.1058  1.8951 -0.4083
36698SOL    HW221820   9.595  12.155   6.539 -0.2513 -0.9368 -1.1204
36699SOL     OW21821   8.068   3.106  12.399 -0.1385  0.3664  0.4197
36699SOL    HW121822   8.029   3.184  12.439  0.2797 -0.0282  1.6307
36699SOL    HW221823   8.000   3.072  12.341 -0.8737  0.7862  1.0196
36700SOL     OW21824   7.551   8.332   9.047  0.3192  0.3689  0.3668
36700SOL    HW121825   7.464   8.373   9.046  0.2785  0.3230 -1.4315
36700SOL    HW221826   7.568   8.315   9.139 -0.8383  1.9493  0.9270
36701SOL     OW21827   5.397  13.586   1.280  0.5502 -0.1500 -0.3109
36701SOL    HW121828   5.355  13.672   1.274 -1.5203 -0.7629  2.8077
36701SOL    HW221829   5.491  13.604   1.278  0.2150  2.4429  1.9077
36702SOL     OW21830  11.870   6.070   8.404 -0.0033  0.4677 -0.2056
36702SOL    HW121831  11.817   5.998   8.437  1.3841 -0.6183 -0.2449
36702SOL    HW221832  11.917   6.103   8.481 -0.3834  1.1245 -0.2464
36703SOL     OW21833  11.165   3.139   3.835 -0.2175 -0.6146 -0.2412
36703SOL    HW121834  11.163   3.187   3.752 -0.3909  0.9834  0.6601
36703SOL    HW221835  11.227   3.067   3.819  0.5427  0.2718 -1.4450
36704SOL     OW21836   9.793   1.293   5.310  0.2118 -0.2478  0.9587
36704SOL    HW121837   9.795   1.253   5.223 -2.0352  1.5780 -0.0598
36704SOL    HW221838   9.874   1.344   5.315  0.8421 -1.1662  0.3592
36705SOL     OW21839   7.441   4.198   5.563  0.2471  0.0631 -0.1984
36705SOL    HW121840   7.532   4.200   5.594  0.3046  0.5178 -0.3923
36705SOL    HW221841   7.448   4.204   5.467 -0.0754  4.6707 -0.1552
36706SOL     OW21842   1.107   6.029   9.754 -0.1405  0.0388 -0.0638
36706SOL    HW121843   1.190   6.055   9.794 -0.0363 -0.5658  0.1310
36706SOL    HW221844   1.069   6.110   9.722 -0.4748  0.6062  1.6963
36707SOL     OW21845   0.857  10.348  12.793  0.4507 -0.0526 -0.5338
36707SOL    HW121846   0.856  10.437  12.828 -0.4528  0.0532 -0.8192
36707SOL    HW221847   0.866  10.292  12.870 -0.0539  0.2388 -0.2630
36708SOL     OW21848   0.497   1.901   3.067 -0.5877 -0.2584  0.9149
36708SOL    HW121849   0.517   1.876   3.157 -4.1842  0.0893  1.9480
36708SOL    HW221850   0.463   1.820   3.027 -0.3833 -0.0483  0.3063
36709SOL     OW21851   1.979   7.064   0.453  0.3144 -0.0288 -0.0015
36709SOL    HW121852   1.971   7.148   0.408 -0.4671  0.3325  0.8002
36709SOL    HW221853   1.907   7.011   0.418  0.6345 -0.2785 -0.2955
36710SOL     OW21854   7.374  12.821   3.600 -0.4598 -0.0855 -0.1741
36710SOL    HW121855   7.449  12.763   3.617 -0.5135  0.0248  0.4917
36710SOL    HW221856   7.300  12.775   3.640 -0.2918  0.9969  1.4617
36711SOL     OW21857   7.386   6.174   8.954 -0.3214 -0.3465 -0.3617
36711SOL    HW121858   7.467   6.179   8.902  0.6220  0.3095  1.1138
36711SOL    HW221859   7.317   6.197   8.892  0.6678 -0.3671 -1.5259
36712SOL     OW21860  11.598  13.141   3.943  0.3831 -0.3377  0.4758
36712SOL    HW121861  11.513  13.178   3.967  0.2858  0.1852 -0.6075
36712SOL    HW221862  11.604  13.060   3.992 -0.7562 -0.3829  0.5616
36713SOL     OW21863   9.817   8.195  11.221  0.5022  0.4505  0.2560
36713SOL    HW121864   9.841   8.118  11.272  0.9288  0.2250 -0.2624
36713SOL    HW221865   9.842   8.172  11.131  2.3111  1.8401  0.3299
36714SOL     OW21866  12.515   2.017   8.394 -0.3933  0.1288  0.3181
36714SOL    HW121867  12.480   2.096   8.353 -1.3782 -0.7739 -0.6549
36714SOL    HW221868  12.554   1.968   8.322 -0.5152 -0.6447  0.7636
36715SOL     OW21869   1.763   7.805  12.043  0.0064  0.0222  0.4790
36715SOL    HW121870   1.705   7.729  12.039  0.6332 -0.5647  1.8459
36715SOL    HW221871   1.850   7.770  12.023  0.2514  0.4315  0.8068
36716SOL     OW21872   9.026  11.430   9.603  0.5581  0.3875  0.2176
36716SOL    HW121873   8.951  11.419   9.543 -0.1115  1.2088  0.8762
36716SOL    HW221874   9.062  11.342   9.612  0.5489  0.2090 -1.2287
36717SOL     OW21875   1.637  11.994   1.092 -0.4164  0.1179 -0.3534
36717SOL    HW121876   1.678  11.908   1.091 -0.2853  0.1531  0.5280
36717SOL    HW221877   1.707  12.053   1.120  0.2781  0.9833 -3.4939
36718SOL     OW21878   5.810  12.829   9.753 -0.0514  0.5646 -0.1801
36718SOL    HW121879   5.819  12.830   9.849 -0.8319  2.9767 -0.0599
36718SOL    HW221880   5.898  12.846   9.721  0.4240 -1.2828  0.0195
36719SOL     OW21881   0.939   0.933  12.750  0.4011 -0.4034  0.3092
36719SOL    HW121882   0.890   0.891  12.820  1.4011 -1.3223  0.4846
36719SOL    HW221883   0.929   0.874  12.675 -0.5949  0.5286 -0.3249
36720SOL     OW21884   6.114  13.175  11.920  0.0471 -0.9300 -0.1404
36720SOL    HW121885   6.051  13.247  11.922  0.4453 -0.5701 -0.2270
36720SOL    HW221886   6.084  13.114  11.987  1.2472  0.6617  1.9665
36721SOL     OW21887   3.422   8.381   5.408  0.0038 -0.1932  0.4999
36721SOL    HW121888   3.478   8.386   5.485  1.8116  0.9493 -0.8050
36721SOL    HW221889   3.359   8.453   5.420  1.2173  0.9542  0.2645
36722SOL     OW21890   7.892  12.684  12.219  0.0175 -0.3818  0.2027
36722SOL    HW121891   7.808  12.710  12.258  0.5604 -0.0891  1.2112
36722SOL    HW221892   7.869  12.619  12.153 -1.1101  0.4999 -0.3128
36723SOL     OW21893   3.800   6.585  13.467  0.1199 -0.2059 -0.4357
36723SOL    HW121894   3.870   6.631  13.420  0.0835  1.4617  1.0412
36723SOL    HW221895   3.720   6.608  13.419 -0.1939  3.1096  1.3406
36724SOL     OW21896  11.167  13.511   7.346 -0.2896 -0.4415 -0.1413
36724SOL    HW121897  11.113  13.556   7.411  0.7903  0.4138  0.1913
36724SOL    HW221898  11.130  13.536   7.262 -0.8586 -0.4675  0.0930
36725SOL     OW21899  13.010   8.844   7.697  0.0277  0.0032 -0.2010
36725SOL    HW121900  13.066   8.909   7.654  1.0959 -2.1809 -2.4066
36725SOL    HW221901  13.070   8.794   7.753 -0.3912 -0.2622  0.0153
36726SOL     OW21902   5.908   4.106   4.102  0.2562  0.0925  0.1726
36726SOL    HW121903   5.844   4.164   4.142 -0.0076 -0.7000  0.9318
36726SOL    HW221904   5.948   4.060   4.175  0.8896 -0.2439 -0.3731
36727SOL     OW21905  13.011   9.092   6.608 -0.4650 -0.1323  0.1274
36727SOL    HW121906  13.106   9.078   6.605 -0.5883 -1.0756  0.1750
36727SOL    HW221907  12.982   9.079   6.518 -0.3121  2.2004 -0.3085
36728SOL     OW21908   7.368   3.096   0.676 -0.0511  0.1514  0.1049
36728SOL    HW121909   7.314   3.018   0.684  0.1654 -0.2582 -1.7672
36728SOL    HW221910   7.433   3.088   0.746 -0.9281 -0.5882  0.8546
36729SOL     OW21911   9.951   2.453   1.769  0.4828  0.0088 -0.0584
36729SOL    HW121912   9.975   2.389   1.836 -0.3418 -0.8062 -0.5181
36729SOL    HW221913  10.000   2.427   1.692 -1.0883 -1.0907 -0.7251
36730SOL     OW21914   6.645  10.408   8.892 -0.5880 -0.0860 -0.4218
36730SOL    HW121915   6.566  10.420   8.841  0.0825  1.6424 -1.1376
36730SOL    HW221916   6.716  10.439   8.835  0.3830  0.1625  0.8654
36731SOL     OW21917   8.528  13.438  12.528 -0.1715 -0.0834 -0.5877
36731SOL    HW121918   8.587  13.512  12.516  0.5579 -0.5429  0.0184
36731SOL    HW221919   8.570  13.367  12.479  0.8840 -0.9606  1.4495
36732SOL     OW21920   3.492  13.412   7.706  0.4393  0.0341  0.1109
36732SOL    HW121921   3.535  13.472   7.644  0.1903  0.2714  0.1643
36732SOL    HW221922   3.421  13.373   7.656  2.7108 -2.9933 -1.0850
36733SOL     OW21923   6.438  12.796   8.659 -0.5000 -0.1157 -0.7278
36733SOL    HW121924   6.424  12.862   8.591  0.3514 -0.4656 -1.2550
36733SOL    HW221925   6.416  12.841   8.741  0.1439  0.8518 -1.0692
36734SOL     OW21926   5.763   9.093   9.644  0.0167  0.1243 -0.3469
36734SOL    HW121927   5.851   9.127   9.628  0.0817  0.1634  0.1028
36734SOL    HW221928   5.776   9.016   9.699 -0.2400  0.2264 -0.1398
36735SOL     OW21929  13.161   1.010   2.415 -0.4432  0.1207  0.2553
36735SOL    HW121930  13.093   0.980   2.475  0.3824 -1.8381  0.2878
36735SOL    HW221931  13.123   0.998   2.328  0.0704 -1.6586  0.2446
36736SOL     OW21932  10.601   3.154   0.848  0.6976  0.2622  0.0994
36736SOL    HW121933  10.615   3.059   0.850 -1.2014 -0.0688  0.7139
36736SOL    HW221934  10.685   3.192   0.874  1.9993 -1.1521 -1.8168
36737SOL     OW21935  10.326   2.882  10.646 -0.6758 -0.0733 -0.0181
36737SOL    HW121936  10.236   2.901  10.620 -0.6028 -0.5681 -0.6796
36737SOL    HW221937  10.318   2.830  10.726 -0.9843 -0.2312 -0.1498
36738SOL     OW21938   1.967   2.800  10.622 -1.0788  0.2445  0.6272
36738SOL    HW121939   1.877   2.831  10.612 -1.0989  0.5407  1.5893
36738SOL    HW221940   1.988   2.817  10.714 -0.3164 -0.5703  0.6173
36739SOL     OW21941   7.619   5.091   1.916 -0.5855  0.0042  0.0581
36739SOL    HW121942   7.597   5.045   1.998  1.2460  2.5558  2.1411
36739SOL    HW221943   7.701   5.050   1.888 -0.5746 -0.0591  0.1775
36740SOL     OW21944   0.105   2.705  12.754 -0.3336  0.5751  0.1719
36740SOL    HW121945   0.038   2.648  12.717  0.0793 -0.1850  0.5680
36740SOL    HW221946   0.061   2.753  12.824 -0.5411  0.3173  0.2181
36741SOL     OW21947   9.410   8.403   9.298  0.5962 -0.2781 -0.5923
36741SOL    HW121948   9.423   8.308   9.293  0.4064 -0.3129 -0.4575
36741SOL    HW221949   9.324   8.417   9.257 -0.3773 -0.4120  1.2821
36742SOL     OW21950   2.235  12.302   8.655  0.7102  0.0196  0.0638
36742SOL    HW121951   2.279  12.345   8.729  0.3437 -0.1474  0.3853
36742SOL    HW221952   2.192  12.226   8.694 -0.4790  0.5921 -0.1023
36743SOL     OW21953   0.795   3.564   5.100  0.2756  0.1663 -0.1978
36743SOL    HW121954   0.879   3.606   5.118  0.4696 -1.3681  3.3900
36743SOL    HW221955   0.808   3.522   5.015  2.8106  0.7553 -0.2025
36744SOL     OW21956   3.362  10.446   0.072 -0.5214  0.2722  0.2076
36744SOL    HW121957   3.399  10.501   0.142 -0.0539  1.2584 -0.7862
36744SOL    HW221958   3.392  10.358   0.093  1.3248  0.8479  0.1755
36745SOL     OW21959   1.264   2.168   0.836 -0.4819 -0.2866  0.4317
36745SOL    HW121960   1.310   2.096   0.794 -0.2985 -0.1617  0.4215
36745SOL    HW221961   1.288   2.246   0.787  0.2656 -0.0378  1.1709
36746SOL     OW21962   2.887   4.655  13.387 -0.3190  0.1112 -0.3832
36746SOL    HW121963   2.815   4.638  13.447 -1.6886 -1.6612 -2.3609
36746SOL    HW221964   2.952   4.702  13.439 -1.0440 -1.9848  2.6736
36747SOL     OW21965  13.306  13.343   5.107  0.3423 -0.1924 -0.6062
36747SOL    HW121966  13.381  13.298   5.069  0.3172  0.0301 -0.9228
36747SOL    HW221967  13.321  13.340   5.202  0.4776 -0.6211 -0.6428
36748SOL     OW21968  13.489   9.550  12.720 -0.3923 -0.7381  0.4170
36748SOL    HW121969  13.455   9.472  12.764  0.9072 -1.1905  0.6784
36748SOL    HW221970  13.509   9.520  12.631 -0.7914 -0.4450  0.2273
36749SOL     OW21971   6.880   4.931   8.885 -0.0611  0.1613 -0.2435
36749SOL    HW121972   6.794   4.903   8.855 -0.9498  0.8174  1.5338
36749SOL    HW221973   6.906   5.000   8.824 -1.2154  0.5684 -0.2941
36750SOL     OW21974   6.056   8.132   5.757 -0.2333  0.0742 -0.1079
36750SOL    HW121975   6.039   8.038   5.752 -2.0963  0.2152  1.8285
36750SOL    HW221976   5.990   8.171   5.700 -0.4554  0.2521  0.2678
36751SOL     OW21977   2.789   1.486  10.564  0.2406 -0.5551 -0.6676
36751SOL    HW121978   2.768   1.513  10.654  1.7888 -0.2757 -0.3607
36751SOL    HW221979   2.727   1.415  10.546 -1.3136  0.5877 -0.0695
36752SOL     OW21980  13.057  10.999   6.172  0.5857  0.0955 -1.0453
36752SOL    HW121981  13.007  10.918   6.169  1.6443 -0.5591 -2.4226
36752SOL    HW221982  13.020  11.054   6.103  0.7579  0.2271 -1.0372
36753SOL     OW21983   2.464   4.473   8.490  0.0033 -0.7357  0.0586
36753SOL    HW121984   2.446   4.403   8.553 -0.7489 -1.4887 -0.9573
36753SOL    HW221985   2.399   4.461   8.421  1.6376 -0.8111 -1.5712
36754SOL     OW21986   6.863   0.532   9.848 -0.3094  0.1146 -0.5004
36754SOL    HW121987   6.886   0.592   9.919  0.6590 -2.0122  1.0868
36754SOL    HW221988   6.768   0.531   9.847 -0.4577 -1.6235  2.5575
36755SOL     OW21989  13.458   6.723   4.092 -0.3111  0.2075 -0.0263
36755SOL    HW121990  13.480   6.670   4.169 -1.9727 -0.4831  0.0004
36755SOL    HW221991  13.412   6.663   4.033  0.4681  0.8568 -1.3545
36756SOL     OW21992  11.195   0.359   6.993  0.4003 -0.1630  0.3608
36756SOL    HW121993  11.147   0.311   7.061  0.1100 -0.2802  0.0784
36756SOL    HW221994  11.152   0.333   6.911 -0.3112  1.2187  0.2652
36757SOL     OW21995   6.308   7.300  10.233 -0.1410  0.1766  0.0423
36757SOL    HW121996   6.290   7.213  10.269 -1.6358 -0.2185 -1.5474
36757SOL    HW221997   6.329   7.285  10.141 -2.8987  1.6073 -0.9458
36758SOL     OW21998   7.684  10.780  11.777 -0.5271  0.3076  0.0006
36758SOL    HW121999   7.615  10.757  11.716  0.2340 -0.9550 -0.4212
36758SOL    HW222000   7.761  10.731  11.747 -0.5851 -2.0174  3.0399
36759SOL     OW22001  11.536  12.361   6.311  0.3354 -0.0008  0.2702
36759SOL    HW122002  11.463  12.414   6.344  0.3575 -0.0541  0.4020
36759SOL    HW222003  11.557  12.402   6.226  0.2418  0.0980  0.2930
36760SOL     OW22004   8.253  13.618   6.535  0.0498 -0.0437  0.0034
36760SOL    HW122005   8.285  13.704   6.561  0.0651  0.1977 -0.7839
36760SOL    HW222006   8.332  13.564   6.529 -0.1476 -0.7904  2.7895
36761SOL     OW22007   1.148  13.209   5.816  0.6191  0.0597 -0.0197
36761SOL    HW122008   1.183  13.298   5.808  0.3106  0.2569  0.7440
36761SOL    HW222009   1.174  13.181   5.904 -0.3848 -0.1174  0.2349
36762SOL     OW22010   5.841   0.445   2.549  0.1772  0.0056  0.1766
36762SOL    HW122011   5.802   0.516   2.600 -0.2936  0.7034 -1.1094
36762SOL    HW222012   5.862   0.485   2.465 -1.3918 -1.6774 -1.0933
36763SOL     OW22013  10.908  12.292   4.300  0.6176  0.1364 -1.0860
36763SOL    HW122014  10.827  12.342   4.308  0.1756 -0.8237  1.3271
36763SOL    HW222015  10.912  12.265   4.208 -1.1821  1.1634 -1.5000
36764SOL     OW22016  12.833   6.817   8.487  0.2066  0.6988 -0.2153
36764SOL    HW122017  12.926   6.823   8.467  0.1559  0.6346 -0.4787
36764SOL    HW222018  12.790   6.867   8.417  0.0841  1.2814  0.2690
36765SOL     OW22019   1.324   4.760   8.944 -0.1092 -0.3766 -0.0084
36765SOL    HW122020   1.417   4.775   8.928  0.3108  0.9093  2.8938
36765SOL    HW222021   1.304   4.677   8.901  2.8303 -1.5891  0.7659
36766SOL     OW22022   1.490  11.520  10.316  0.0708  0.2952 -0.1166
36766SOL    HW122023   1.443  11.461  10.257 -0.0338  0.0717  0.1877
36766SOL    HW222024   1.580  11.520  10.284 -0.3170  1.5138 -1.3263
36767SOL     OW22025   0.952  11.904   0.949  0.0906 -0.4367  0.3995
36767SOL    HW122026   0.923  11.873   1.034 -0.3978 -1.1237 -0.0036
36767SOL    HW222027   0.977  11.824   0.902 -1.8314 -0.3548 -0.9082
36768SOL     OW22028   2.723   6.903   1.153  0.6269 -0.2457  0.2859
36768SOL    HW122029   2.726   6.854   1.071 -3.8501 -2.0574  0.8832
36768SOL    HW222030   2.654   6.968   1.140  1.1767  0.7546  2.0055
36769SOL     OW22031   9.606   4.341   8.118 -0.1233 -0.1967  0.8656
36769SOL    HW122032   9.688   4.297   8.138 -0.0313  0.0839  1.1099
36769SOL    HW222033   9.568   4.363   8.203  0.4476  1.3160  0.7573
36770SOL     OW22034  10.679   5.792   3.698  0.1629  0.0157  0.0192
36770SOL    HW122035  10.654   5.793   3.606 -2.0195 -1.8969  0.5059
36770SOL    HW222036  10.613   5.846   3.741  1.1321  0.8439  0.5186
36771SOL     OW22037   0.746   2.684   3.480 -0.2466 -0.5018  0.3491
36771SOL    HW122038   0.752   2.589   3.495 -0.5034 -0.3106  1.8135
36771SOL    HW222039   0.665   2.709   3.523  1.2093  0.8116  2.5094
36772SOL     OW22040   9.829  10.063   4.042  0.4347  0.1515 -0.7019
36772SOL    HW122041   9.835   9.992   3.978 -2.6079 -0.0603 -0.8668
36772SOL    HW222042   9.775  10.028   4.113  0.8777  1.5305  0.3744
36773SOL     OW22043   1.195   5.543   8.544  0.8264  0.1713  0.2980
36773SOL    HW122044   1.148   5.463   8.568  1.7013 -1.4110 -2.7524
36773SOL    HW222045   1.255   5.558   8.617 -1.0297 -0.4797  2.0600
36774SOL     OW22046   2.240  13.660  10.838  0.0046 -0.2123 -0.4790
36774SOL    HW122047   2.169  13.681  10.778  0.7677 -0.4663 -1.5024
36774SOL    HW222048   2.204  13.676  10.925 -1.0826  0.2990 -1.0082
36775SOL     OW22049  12.984  13.237   9.091 -0.6673 -0.2746  0.5826
36775SOL    HW122050  12.964  13.254   9.183  0.8646  0.7924  0.7454
36775SOL    HW222051  12.910  13.185   9.060 -0.9368 -1.1679  2.5669
36776SOL     OW22052   5.769   9.584   7.456 -0.1750  0.2732 -0.0222
36776SOL    HW122053   5.718   9.621   7.385 -0.4820  0.0653  0.0881
36776SOL    HW222054   5.705   9.537   7.510 -0.4334  2.5034  1.8132
36777SOL     OW22055  13.288   1.155  10.437  0.0653 -0.3120 -0.3948
36777SOL    HW122056  13.351   1.225  10.421  0.5679  0.0651  2.6204
36777SOL    HW222057  13.307   1.089  10.371  2.7626  0.3779 -0.3924
36778SOL     OW22058   1.029   9.669   9.004 -0.7880  0.5838  0.5303
36778SOL    HW122059   1.108   9.723   9.001 -1.8196  2.4230  3.1473
36778SOL    HW222060   1.006   9.655   8.912  1.6420  1.3713 -0.2729
36779SOL     OW22061   4.537  12.948  11.899 -0.7200  0.3160 -0.5278
36779SOL    HW122062   4.494  13.019  11.947 -2.2749  0.0328 -1.4131
36779SOL    HW222063   4.614  12.989  11.860  0.2409  0.6910  1.6247
36780SOL     OW22064   9.313   8.154   3.913 -0.5747 -0.2842 -0.5013
36780SOL    HW122065   9.389   8.131   3.967 -0.2185 -2.5056 -1.8258
36780SOL    HW222066   9.350   8.187   3.832 -1.1067  1.8431  0.0589
36781SOL     OW22067  12.622   7.836   7.483 -0.4588  0.5958  0.3319
36781SOL    HW122068  12.674   7.756   7.486  1.7302  1.9737  1.3247
36781SOL    HW222069  12.629   7.866   7.392 -0.4358  0.2087  0.2045
36782SOL     OW22070   0.631  13.659  13.531 -0.1103 -0.1611  0.8449
36782SOL    HW122071   0.707  13.663  13.588  0.2794 -0.3020  0.3403
36782SOL    HW222072   0.587  13.578  13.554  0.4827 -0.6180  0.4032
36783SOL     OW22073   5.318   9.239  11.974  0.4650  0.3495 -0.3904
36783SOL    HW122074   5.406   9.275  11.980  0.6543 -0.3280  2.0560
36783SOL    HW222075   5.275   9.267  12.055 -0.6388 -1.6010 -0.2274
36784SOL     OW22076   4.818  13.355  11.933 -0.3253 -0.2921 -0.4998
36784SOL    HW122077   4.905  13.319  11.949  0.3139  0.4025 -2.2345
36784SOL    HW222078   4.770  13.338  12.015  0.7179 -2.6879 -0.2981
36785SOL     OW22079   8.207   1.155   3.680  0.6683 -0.1008 -0.1970
36785SOL    HW122080   8.136   1.180   3.739  0.2913  0.4208 -0.8681
36785SOL    HW222081   8.285   1.196   3.717  0.3472  0.6372 -0.3418
36786SOL     OW22082   0.050   1.482   0.114 -0.8834  0.0969 -0.0063
36786SOL    HW122083   0.037   1.543   0.041 -1.8283 -1.4397 -1.1826
36786SOL    HW222084   0.107   1.529   0.175 -0.4191  1.6008 -1.5273
36787SOL     OW22085   2.367  10.560   9.339 -0.5555  0.3020 -0.1111
36787SOL    HW122086   2.447  10.507   9.338 -0.3046  0.4664  2.9366
36787SOL    HW222087   2.300  10.502   9.305  0.5932 -0.2664 -1.5278
36788SOL     OW22088   3.444   9.107   3.456  0.0257  0.5229 -0.4505
36788SOL    HW122089   3.538   9.122   3.447 -0.1177  1.4294 -0.6145
36788SOL    HW222090   3.418   9.163   3.530 -0.6324  1.5025 -1.3854
36789SOL     OW22091  12.027   9.449   6.604 -0.1278 -0.4143 -0.1209
36789SOL    HW122092  12.105   9.405   6.638  0.2365 -0.4514 -0.9681
36789SOL    HW222093  12.010   9.520   6.665  0.7903 -0.1816 -0.1158
36790SOL     OW22094   6.373  10.939  13.408 -1.0047  0.2659 -0.2412
36790SOL    HW122095   6.284  10.963  13.435 -0.5784  0.5887  0.9701
36790SOL    HW222096   6.424  10.943  13.489 -0.0039 -0.4882 -0.8104
36791SOL     OW22097   1.904   1.557   9.505 -1.1270 -0.3564  0.1977
36791SOL    HW122098   1.965   1.616   9.460 -1.7428  0.1145 -0.0291
36791SOL    HW222099   1.955   1.477   9.519  0.1235  0.6216  1.6047
36792SOL     OW22100   6.230  10.396   5.468  0.8251  0.5922  0.1718
36792SOL    HW122101   6.258  10.306   5.481 -0.1173  0.1320 -0.8078
36792SOL    HW222102   6.287  10.430   5.399  0.1407  0.2080 -0.6034
36793SOL     OW22103  11.213   4.391   4.104 -0.3161  0.3527 -0.5554
36793SOL    HW122104  11.122   4.421   4.097  0.4024  3.2775  1.0537
36793SOL    HW222105  11.231   4.393   4.198  0.8861 -2.1089 -0.6648
36794SOL     OW22106   5.925  11.806   5.084  0.0208  0.3289  0.3839
36794SOL    HW122107   5.928  11.850   4.999  0.4641 -1.1183 -0.3790
36794SOL    HW222108   5.832  11.791   5.100 -0.0704  0.6840  0.2024
36795SOL     OW22109  11.527  13.075  12.996  0.7047 -0.0400  0.3775
36795SOL    HW122110  11.530  12.983  13.022  0.7331 -0.4097 -0.8451
36795SOL    HW222111  11.608  13.088  12.946  0.2008  0.3392 -0.3678
36796SOL     OW22112   4.723  13.208   1.354 -0.8242  0.5184  0.2398
36796SOL    HW122113   4.777  13.138   1.317 -0.1502  0.4184  1.3682
36796SOL    HW222114   4.644  13.208   1.301 -0.8498 -1.1140  0.2333
36797SOL     OW22115   2.908   2.207   1.137  0.0498  0.4301  0.3104
36797SOL    HW122116   2.929   2.114   1.146 -0.2467  0.5081  2.1981
36797SOL    HW222117   2.839   2.210   1.071  1.1648 -0.5015 -0.9487
36798SOL     OW22118   5.055   5.435   7.528  0.4611 -0.1437  0.1227
36798SOL    HW122119   5.013   5.461   7.446  0.9342  0.3753  0.0381
36798SOL    HW222120   5.029   5.344   7.540  1.9864 -0.8729 -1.6420
36799SOL     OW22121   4.386   7.555   8.840 -0.1304 -0.1619 -0.0786
36799SOL    HW122122   4.358   7.466   8.817  0.0997 -0.2175 -0.1446
36799SOL    HW222123   4.311   7.611   8.815  0.6096 -0.0487 -2.2828
36800SOL     OW22124  12.230  13.554   9.972 -0.1233 -0.3694  0.8385
36800SOL    HW122125  12.193  13.466   9.979  0.5228 -0.7160  0.1069
36800SOL    HW222126  12.321  13.543  10.001  1.6868 -1.1771 -4.1910
36801SOL     OW22127   2.568   6.515  12.417  0.2957 -0.2788 -0.0266
36801SOL    HW122128   2.543   6.465  12.340  1.3519  0.2506 -0.7297
36801SOL    HW222129   2.664   6.511  12.419  0.3364  0.6736  0.6114
36802SOL     OW22130   2.572   8.648   0.022  0.4852  0.2622 -0.0866
36802SOL    HW122131   2.536   8.685   0.103  1.1406  2.9335 -0.9506
36802SOL    HW222132   2.496   8.635  -0.034  0.2861  0.6617  0.0877
36803SOL     OW22133   5.328   1.842  13.601  0.1196  0.6115  0.1461
36803SOL    HW122134   5.311   1.908  13.533  0.0102 -0.1855 -0.6186
36803SOL    HW222135   5.312   1.758  13.557 -1.5874  0.1088  1.5827
36804SOL     OW22136  10.443   0.645  10.151 -0.5148 -0.7007 -0.6323
36804SOL    HW122137  10.361   0.683  10.184  0.4614  2.1325 -1.1555
36804SOL    HW222138  10.417   0.560  10.116 -2.9770 -0.4725  0.3878
36805SOL     OW22139   9.502  11.793  12.630 -0.3975  0.4467 -0.0404
36805SOL    HW122140   9.433  11.773  12.693 -0.1289 -0.6202 -0.0610
36805SOL    HW222141   9.488  11.730  12.559  1.7107 -1.1146  0.8279
36806SOL     OW22142   5.851  10.449   6.385 -0.1073  0.1688  0.0702
36806SOL    HW122143   5.789  10.521   6.382 -0.2935 -0.0247 -1.0299
36806SOL    HW222144   5.802  10.374   6.351  0.6634 -0.0271 -0.6326
36807SOL     OW22145   0.904   3.103   7.728  0.2403 -0.3122 -0.4578
36807SOL    HW122146   0.825   3.133   7.682  0.9429 -0.1575 -1.5995
36807SOL    HW222147   0.936   3.029   7.677  0.5049 -0.7657  0.3434
36808SOL     OW22148  13.688   9.522   6.685  0.0375  0.3439  0.4637
36808SOL    HW122149  13.678   9.566   6.601 -0.0666 -1.4622 -0.5357
36808SOL    HW222150  13.599   9.507   6.716 -0.1088 -1.8747 -0.7750
36809SOL     OW22151   0.400   3.588   8.411  0.3166  0.3060  0.2780
36809SOL    HW122152   0.356   3.552   8.334  1.3564 -0.2201 -0.0991
36809SOL    HW222153   0.386   3.523   8.480 -0.8516  0.9075  0.6366
36810SOL     OW22154   9.369  12.034   4.802 -0.2305 -0.2590 -0.0031
36810SOL    HW122155   9.321  11.975   4.859 -0.0824  0.0308  0.4230
36810SOL    HW222156   9.315  12.113   4.800  0.3366  0.1540  0.6612
36811SOL     OW22157  10.187   7.323  11.183  0.1492 -0.3923  0.1632
36811SOL    HW122158  10.211   7.242  11.228  2.3489  0.2254  0.2153
36811SOL    HW222159  10.208   7.307  11.091  1.4130  0.3626  0.2938
36812SOL     OW22160  11.486  13.103  12.539 -0.4765  0.2029 -1.0763
36812SOL    HW122161  11.456  13.190  12.515 -2.3746 -0.4172 -1.0849
36812SOL    HW222162  11.430  13.077  12.612  3.0875  0.7894  2.2522
36813SOL     OW22163  10.216   8.522  11.553  0.1441  0.3161 -0.0574
36813SOL    HW122164  10.174   8.483  11.630 -0.3498  2.0089  0.5798
36813SOL    HW222165  10.308   8.496  11.561  0.8215  2.8849  2.9050
36814SOL     OW22166  10.518   9.040   0.603 -0.2752  0.7224 -0.1099
36814SOL    HW122167  10.463   9.022   0.679 -0.1341  0.7514  0.0004
36814SOL    HW222168  10.460   9.086   0.542 -0.9941 -1.2232 -0.9407
36815SOL     OW22169   8.695   7.634   2.894  0.1242  0.0644 -0.3389
36815SOL    HW122170   8.777   7.644   2.943 -0.3943  0.2951  0.4972
36815SOL    HW222171   8.644   7.571   2.945 -0.9732  1.3049  0.1496
36816SOL     OW22172   0.410   0.388  13.210 -0.3020 -0.2726  0.5021
36816SOL    HW122173   0.452   0.460  13.164 -1.6700  0.6019  0.5487
36816SOL    HW222174   0.441   0.395  13.300  1.0676 -0.9579  0.1141
36817SOL     OW22175   2.322   7.103   0.482 -0.2883  0.1007 -0.3402
36817SOL    HW122176   2.285   7.101   0.394  1.7450 -1.5156 -1.2289
36817SOL    HW222177   2.320   7.196   0.507 -0.3383  0.6744 -2.3413
36818SOL     OW22178   7.058  12.491   1.780  0.5984 -0.2968 -0.3894
36818SOL    HW122179   7.069  12.429   1.707 -1.2904  0.3237 -1.2643
36818SOL    HW222180   7.140  12.539   1.783  0.4272  0.3059 -2.7778
36819SOL     OW22181   4.110   5.718   5.021  0.8360  0.8268  0.1608
36819SOL    HW122182   4.038   5.692   4.963  1.4665 -0.2006 -0.1919
36819SOL    HW222183   4.125   5.810   5.001  0.5524  0.6746 -0.7887
36820SOL     OW22184   4.121   3.057   1.228  0.2382 -0.2927 -0.6364
36820SOL    HW122185   4.206   3.101   1.241 -0.5366  1.0580  0.1302
36820SOL    HW222186   4.139   2.965   1.245  1.2083  0.2108  1.3683
36821SOL     OW22187   5.375   8.810   6.614  0.0641 -0.3526 -0.2761
36821SOL    HW122188   5.287   8.848   6.609 -0.1459 -0.9025 -0.8231
36821SOL    HW222189   5.374   8.739   6.550  0.9996 -0.1835 -0.4854
36822SOL     OW22190   9.519   6.024   9.392  0.6479 -0.7217 -0.4968
36822SOL    HW122191   9.547   6.112   9.367 -0.0160 -0.3311  0.0910
36822SOL    HW222192   9.552   6.014   9.482  1.3391 -1.3570 -0.8146
36823SOL     OW22193   3.896  11.475   9.096  0.1786  0.2260  0.4862
36823SOL    HW122194   3.909  11.483   9.191  0.6092  0.9437  0.3750
36823SOL    HW222195   3.889  11.565   9.065 -1.8427 -0.0210  0.0712
36824SOL     OW22196   3.208   0.960   2.174  0.4857 -0.1973 -0.2260
36824SOL    HW122197   3.284   0.923   2.130  0.4916  0.1162 -0.4814
36824SOL    HW222198   3.178   1.030   2.116  0.2474 -0.0502  0.0716
36825SOL     OW22199  11.454   1.250   7.319 -0.3678  0.7002  0.3715
36825SOL    HW122200  11.359   1.246   7.327 -0.2340  0.3856  2.2469
36825SOL    HW222201  11.483   1.300   7.395  0.9406  1.3145 -0.4928
36826SOL     OW22202  11.538   4.098   7.755 -0.2579  0.0427 -0.3082
36826SOL    HW122203  11.585   4.149   7.821  0.8371 -0.4300 -0.7014
36826SOL    HW222204  11.510   4.019   7.800 -1.1388  0.5387  0.0536
36827SOL     OW22205   2.964   4.722   7.973  0.2691  0.2354  0.0738
36827SOL    HW122206   2.949   4.639   7.928  2.6158  0.8072 -2.0295
36827SOL    HW222207   2.880   4.767   7.969 -0.0891 -0.5053 -2.2762
36828SOL     OW22208   1.196   0.255  12.545 -0.3251 -0.4883 -0.3349
36828SOL    HW122209   1.110   0.224  12.572 -0.1578 -1.2236 -0.6465
36828SOL    HW222210   1.214   0.210  12.463  0.1358  0.0573 -0.5428
36829SOL     OW22211   3.869   8.895   5.971 -0.1509  0.8171  0.0910
36829SOL    HW122212   3.857   8.987   5.946 -1.2978  0.9661  1.1133
36829SOL    HW222213   3.894   8.899   6.063 -0.4197  0.0932  0.2001
36830SOL     OW22214   7.259   5.963   1.976  0.2882  0.1416  0.1732
36830SOL    HW122215   7.173   5.983   2.013 -0.2171  0.9690 -1.3536
36830SOL    HW222216   7.250   5.984   1.883  1.8922 -0.5877 -0.1730
36831SOL     OW22217   9.463  10.153   0.378  0.7384 -0.3443  0.2660
36831SOL    HW122218   9.448  10.106   0.296  1.1722 -1.1761  0.6501
36831SOL    HW222219   9.403  10.227   0.374  0.4240 -0.6271 -0.5969
36832SOL     OW22220   4.544  12.340   0.440 -0.1546  0.1245 -0.3148
36832SOL    HW122221   4.510  12.352   0.351  1.2328 -1.2198 -1.0899
36832SOL    HW222222   4.575  12.250   0.441 -0.5558 -0.0309  1.7185
36833SOL     OW22223   6.042   7.570  10.860  0.3241  0.8562 -0.5764
36833SOL    HW122224   6.070   7.567  10.951 -2.4295  3.4454  0.5318
36833SOL    HW222225   5.973   7.503  10.854  0.5479  0.6437 -0.7815
36834SOL     OW22226   7.914  11.236   0.795 -0.7450  0.0628 -0.0990
36834SOL    HW122227   7.967  11.158   0.806 -0.4681  0.3032  0.2890
36834SOL    HW222228   7.829  11.203   0.765 -1.1017 -0.5265  1.4655
36835SOL     OW22229   7.744   9.933   6.358  0.0163 -0.6745 -0.1851
36835SOL    HW122230   7.769   9.922   6.450 -0.5646 -1.1870 -0.0835
36835SOL    HW222231   7.654   9.964   6.361 -0.2662 -1.4424 -0.5957
36836SOL     OW22232   0.946   2.532   4.543  0.0665  0.3807  0.7335
36836SOL    HW122233   0.908   2.466   4.601 -0.7056 -1.1154 -1.3637
36836SOL    HW222234   1.040   2.521   4.551 -0.0456 -1.6404 -0.2155
36837SOL     OW22235   8.508  12.558  13.058  0.2527 -0.0559 -0.0043
36837SOL    HW122236   8.595  12.525  13.083  0.5610 -0.3896 -1.4041
36837SOL    HW222237   8.497  12.528  12.967 -1.0529  0.5468 -0.0581
36838SOL     OW22238   1.531  12.670  11.170 -0.3022  0.2509 -0.0346
36838SOL    HW122239   1.547  12.576  11.162  3.8256  0.7786 -0.5257
36838SOL    HW222240   1.441  12.677  11.200 -0.7202 -3.8478  0.2197
36839SOL     OW22241  10.825   1.152   0.422 -0.0955 -0.0936  0.4722
36839SOL    HW122242  10.828   1.107   0.506 -0.3644  0.6011  0.8564
36839SOL    HW222243  10.832   1.244   0.443 -3.3348  0.3906  0.0448
36840SOL     OW22244   6.948   1.807  10.598  0.4512  0.5669  0.1680
36840SOL    HW122245   6.878   1.742  10.606  1.4426 -0.3925  1.6884
36840SOL    HW222246   6.987   1.811  10.685  3.8887 -0.8387 -1.1061
36841SOL     OW22247  10.805   4.067   6.179 -0.1552 -0.0024  0.1679
36841SOL    HW122248  10.726   4.054   6.127 -0.4149 -1.7619  0.9559
36841SOL    HW222249  10.783   4.034   6.266  0.9146  1.0530  0.8693
36842SOL     OW22250   7.655   2.079   6.912 -0.1586  0.1210  0.5123
36842SOL    HW122251   7.636   1.997   6.868 -2.8616  1.9070 -2.0464
36842SOL    HW222252   7.594   2.142   6.873  1.8477  3.4020  2.1826
36843SOL     OW22253   0.219  12.486  10.916  0.1340  0.3049  0.0568
36843SOL    HW122254   0.311  12.458  10.920  0.4510  1.0513 -1.2924
36843SOL    HW222255   0.213  12.557  10.980  0.6284  0.5879 -0.2026
36844SOL     OW22256   2.934   1.220   9.540  0.0442  0.2802  0.3977
36844SOL    HW122257   3.020   1.188   9.513 -1.6372 -2.1770 -2.7985
36844SOL    HW222258   2.905   1.158   9.608  0.6681  1.0121  1.3553
36845SOL     OW22259  11.883   8.311  10.444  0.1505 -0.2300 -0.1854
36845SOL    HW122260  11.842   8.396  10.431 -1.2279 -1.0008 -1.1598
36845SOL    HW222261  11.845   8.255  10.376  0.7220 -1.7278  0.6658
36846SOL     OW22262  13.585   6.054  11.922  0.1827 -0.4870  0.6355
36846SOL    HW122263  13.531   6.018  11.852 -1.8083  0.9342  1.3364
36846SOL    HW222264  13.673   6.020  11.905 -0.3977 -0.8513 -2.0574
36847SOL     OW22265   9.381  10.317   4.086 -0.0915  0.4564  0.3205
36847SOL    HW122266   9.318  10.337   4.155 -1.4093 -0.1869 -0.6554
36847SOL    HW222267   9.373  10.389   4.024 -1.1358 -0.4596 -0.6501
36848SOL     OW22268   4.468   1.128   1.297  0.2889 -0.7403  0.3508
36848SOL    HW122269   4.396   1.065   1.285 -0.7630  0.3653  0.6085
36848SOL    HW222270   4.540   1.092   1.246 -1.1945 -0.7303 -1.8888
36849SOL     OW22271   3.320  12.262   1.898 -0.7507 -0.3539  0.6556
36849SOL    HW122272   3.353  12.324   1.962 -1.6176  1.0714 -0.2319
36849SOL    HW222273   3.275  12.316   1.833 -0.7732 -1.8315 -0.6196
36850SOL     OW22274   5.447  12.069   1.633  0.2435 -0.4405 -0.3612
36850SOL    HW122275   5.456  12.161   1.607  1.8117 -0.8736 -1.5358
36850SOL    HW222276   5.420  12.024   1.553 -2.9066 -0.7516  0.7335
36851SOL     OW22277   7.182  13.603   6.199  0.2096 -0.6254 -0.1762
36851SOL    HW122278   7.191  13.583   6.106 -1.1800  0.9941 -0.7168
36851SOL    HW222279   7.261  13.652   6.221 -0.0693  0.1704 -0.8851
36852SOL     OW22280   4.383  12.316   7.567  0.0232 -0.5482 -0.4729
36852SOL    HW122281   4.469  12.274   7.577 -0.1419 -1.1566 -1.4958
36852SOL    HW222282   4.334  12.288   7.644  0.7499 -0.1463  0.1583
36853SOL     OW22283   5.974   9.091   6.232 -0.3213 -0.3758  1.2926
36853SOL    HW122284   5.885   9.055   6.226 -0.3667 -0.7525  3.4013
36853SOL    HW222285   6.030   9.015   6.247  0.6094 -0.2950 -1.2429
36854SOL     OW22286  10.411   6.398   4.121  0.1217  0.2952 -0.0418
36854SOL    HW122287  10.495   6.432   4.090 -0.0071  1.1129  0.4858
36854SOL    HW222288  10.429   6.365   4.209  0.0901 -0.3790 -0.2835
36855SOL     OW22289  12.979   6.750   9.337 -0.1644 -0.2146 -0.4385
36855SOL    HW122290  12.974   6.676   9.398 -0.3514 -1.1081 -1.4954
36855SOL    HW222291  12.964   6.827   9.391  1.7076 -0.7887  0.9976
36856SOL     OW22292   0.215   3.572   2.347 -0.0626 -0.2561 -0.3145
36856SOL    HW122293   0.306   3.583   2.376 -0.6762  0.0314  1.6417
36856SOL    HW222294   0.206   3.478   2.332  0.2307 -0.4387  0.6302
36857SOL     OW22295   3.105   3.024  11.097  0.2870  0.0407  0.1614
36857SOL    HW122296   3.025   3.006  11.047  0.3349  0.6539 -0.1467
36857SOL    HW222297   3.176   3.008  11.036  0.3722  0.1297  0.2359
36858SOL     OW22298   9.243   1.643  10.255 -0.0491 -0.0263 -0.2980
36858SOL    HW122299   9.205   1.604  10.177 -2.4064  0.7976  0.3458
36858SOL    HW222300   9.319   1.692  10.223  0.1449 -1.2115 -1.7637
36859SOL     OW22301   1.013   5.983   8.802 -0.2230 -0.2775  0.1760
36859SOL    HW122302   0.926   5.957   8.832  0.7911 -1.3411  2.4348
36859SOL    HW222303   1.038   5.915   8.739 -0.9256 -0.0672 -0.3439
36860SOL     OW22304   2.451   8.062   8.230  0.5208 -0.5043  1.0195
36860SOL    HW122305   2.501   8.088   8.307 -0.9089  0.7942  1.5636
36860SOL    HW222306   2.474   7.970   8.215  0.5711 -0.8865  3.2098
36861SOL     OW22307   8.286   8.881   8.978 -0.1160  0.5361  0.3498
36861SOL    HW122308   8.223   8.809   8.974  1.8414 -1.1996 -1.9815
36861SOL    HW222309   8.320   8.878   9.068 -0.1657 -1.3797  0.3348
36862SOL     OW22310   6.968   3.960  13.053  0.0860 -0.2384 -0.3391
36862SOL    HW122311   7.024   4.021  13.005  0.5594 -0.0735  0.4059
36862SOL    HW222312   6.998   3.966  13.144 -1.5122  0.2837  0.1919
36863SOL     OW22313   5.488   7.792   7.795 -0.0875 -0.3779  0.6757
36863SOL    HW122314   5.454   7.802   7.707 -2.5795 -1.0823  1.4806
36863SOL    HW222315   5.498   7.697   7.806 -0.3990 -0.3370  1.3592
36864SOL     OW22316   0.142   1.942  11.398 -0.1560  0.1011 -0.4207
36864SOL    HW122317   0.235   1.952  11.379  0.1334 -1.8917 -0.2010
36864SOL    HW222318   0.137   1.931  11.493 -0.7635  1.4393 -0.2707
36865SOL     OW22319   7.991   0.732  13.282 -0.1608 -0.1282  0.5674
36865SOL    HW122320   8.033   0.647  13.295  1.2251  0.5005  0.3214
36865SOL    HW222321   7.936   0.719  13.204 -0.4639 -0.9691  0.9074
36866SOL     OW22322   4.257   8.465  10.002 -0.2498  0.5549  0.1658
36866SOL    HW122323   4.276   8.532   9.936  0.2373 -0.5282 -0.8513
36866SOL    HW222324   4.343   8.429  10.025 -0.5548 -0.2859  0.0415
36867SOL     OW22325   7.803   9.619   0.843 -0.3500 -0.1998 -0.2955
36867SOL    HW122326   7.767   9.657   0.923 -2.1613  1.6985 -1.9041
36867SOL    HW222327   7.881   9.671   0.824  0.4699 -1.0816  0.5210
36868SOL     OW22328  12.165   8.583   3.733  0.0162  0.0824 -0.0193
36868SOL    HW122329  12.125   8.658   3.689 -1.0709 -0.8048 -0.5827
36868SOL    HW222330  12.093   8.520   3.743  1.0008 -1.0597  0.0536
36869SOL     OW22331   9.357   8.362  13.275  0.5767 -0.0017  0.7209
36869SOL    HW122332   9.266   8.350  13.247  1.3829  0.3814 -2.3594
36869SOL    HW222333   9.407   8.299  13.224  2.0789 -0.5063  2.6675
36870SOL     OW22334  11.463  10.865   5.061 -0.1449  0.5587  0.1391
36870SOL    HW122335  11.525  10.863   4.989 -0.1074 -2.7390  0.1254
36870SOL    HW222336  11.389  10.813   5.031 -0.3003 -0.5726  2.2829
36871SOL     OW22337   0.816  12.793   5.229  0.5415  0.8992  0.5535
36871SOL    HW122338   0.817  12.787   5.133  1.0396  0.3222  0.5869
36871SOL    HW222339   0.905  12.769   5.255 -0.0168 -0.5157  1.2385
36872SOL     OW22340  12.732   4.093  10.510  0.0783  0.3946 -0.4581
36872SOL    HW122341  12.663   4.102  10.445  0.1465  0.4612 -0.5211
36872SOL    HW222342  12.687   4.095  10.594  0.2360  3.3848 -0.3271
36873SOL     OW22343   0.480  13.055   9.518 -0.0656  0.0831  0.4674
36873SOL    HW122344   0.423  13.082   9.447 -0.1518  0.8706  0.8246
36873SOL    HW222345   0.427  13.064   9.597  0.2222 -0.1802  0.6942
36874SOL     OW22346   7.424   5.732   8.362 -0.0934 -0.2388 -0.0492
36874SOL    HW122347   7.474   5.745   8.443 -1.6593  0.6135  0.8227
36874SOL    HW222348   7.491   5.724   8.294  1.2599 -0.7929  1.2827
36875SOL     OW22349   1.509  12.738   1.155 -0.1570  0.8544 -0.0882
36875SOL    HW122350   1.516  12.729   1.250  0.2324  0.5270 -0.1443
36875SOL    HW222351   1.422  12.705   1.134  0.1327 -0.0288  0.0482
36876SOL     OW22352   7.328   9.003   7.273 -0.4547 -0.2241  0.1356
36876SOL    HW122353   7.368   9.089   7.265  1.2009 -0.5917  3.2764
36876SOL    HW222354   7.248   9.018   7.323 -0.7516 -0.4129 -0.2674
36877SOL     OW22355   4.095   1.179  10.568  0.3182  0.2153 -0.1954
36877SOL    HW122356   4.137   1.199  10.485  0.0211 -0.0593 -0.4148
36877SOL    HW222357   4.041   1.256  10.587 -0.1500 -0.0140 -0.6015
36878SOL     OW22358   1.737   1.629   7.420  0.2566 -0.0180 -0.5230
36878SOL    HW122359   1.641   1.626   7.417  0.2526 -0.5252  0.0115
36878SOL    HW222360   1.757   1.721   7.439 -0.1392  0.0299 -0.3274
36879SOL     OW22361   4.292  11.445  12.008 -0.4445 -0.2393 -0.2153
36879SOL    HW122362   4.362  11.394  11.968 -0.0360 -0.0397  0.2353
36879SOL    HW222363   4.334  11.488  12.083 -0.9470  0.2114 -0.1913
36880SOL     OW22364   6.841   3.046  12.036 -0.0301 -0.3717 -0.1309
36880SOL    HW122365   6.842   3.142  12.037 -0.4946 -0.3698  0.8625
36880SOL    HW222366   6.748   3.023  12.044  0.0869 -0.9109 -0.2803
36881SOL     OW22367   8.801   2.395  11.344 -0.2973 -0.5447  0.1222
36881SOL    HW122368   8.865   2.369  11.278 -1.5467 -0.3926 -1.1777
36881SOL    HW222369   8.761   2.475  11.310  0.1125  0.4526  1.8180
36882SOL     OW22370   6.507  11.431  12.381 -0.6374  0.5655  0.2406
36882SOL    HW122371   6.437  11.448  12.445  0.1559  0.3799  1.1838
36882SOL    HW222372   6.583  11.475  12.418 -0.2146  0.6334 -0.7023
36883SOL     OW22373   2.814   7.880   5.343  0.1151  0.2056  0.1303
36883SOL    HW122374   2.853   7.949   5.397 -0.0238  1.0460 -0.8165
36883SOL    HW222375   2.721   7.900   5.341  0.3005  1.0398 -1.5806
36884SOL     OW22376   4.016   4.609   3.631 -0.0335  0.1646  0.3925
36884SOL    HW122377   4.031   4.566   3.546 -0.8348  0.2376  0.2036
36884SOL    HW222378   4.080   4.680   3.633 -0.2195  0.3601 -0.2972
36885SOL     OW22379  12.015  11.375  10.759 -0.6402  0.3777  0.2899
36885SOL    HW122380  11.945  11.326  10.715  0.2141 -0.4075 -0.2209
36885SOL    HW222381  12.043  11.319  10.831 -0.5731  0.7208  0.5348
36886SOL     OW22382   9.483  11.370   3.127 -0.3045 -0.1487  0.6222
36886SOL    HW122383   9.527  11.286   3.138 -2.3195 -0.9889  3.6147
36886SOL    HW222384   9.534  11.430   3.181  0.9330  0.5812 -1.2449
36887SOL     OW22385  12.755   1.743   1.554  0.1116  0.9648 -0.6102
36887SOL    HW122386  12.673   1.703   1.583 -0.4756  2.5312  0.0072
36887SOL    HW222387  12.824   1.688   1.590 -0.6553 -0.1570 -0.8119
36888SOL     OW22388   6.303   2.097   3.006 -0.3780  0.3323  0.9659
36888SOL    HW122389   6.241   2.077   3.075 -0.5353 -1.0813  0.4315
36888SOL    HW222390   6.338   2.012   2.979 -0.0241  0.8901 -0.4124
36889SOL     OW22391   6.575   2.231  12.635  0.0022 -0.0617  0.1430
36889SOL    HW122392   6.541   2.143  12.650  0.0116  0.2643  2.5806
36889SOL    HW222393   6.502   2.289  12.657  0.4235  0.5633 -0.0682
36890SOL     OW22394  12.169   4.975  11.072 -0.2735  0.0092 -0.7656
36890SOL    HW122395  12.089   4.979  11.125  1.1536  0.5998  1.4762
36890SOL    HW222396  12.214   4.896  11.102  0.1877 -0.0952 -1.7051
36891SOL     OW22397   9.464   3.030   8.345  0.6291  0.2050  0.2324
36891SOL    HW122398   9.491   3.112   8.387 -0.2096  0.5859  0.0515
36891SOL    HW222399   9.540   2.972   8.354  0.5996  0.3885  1.9282
36892SOL     OW22400   8.286   3.079   8.443 -0.5324  0.4466  0.5788
36892SOL    HW122401   8.208   3.095   8.496 -0.9035 -0.5273  0.3324
36892SOL    HW222402   8.254   3.078   8.352 -0.2860 -0.2322  0.4957
36893SOL     OW22403  12.135   2.006   7.490 -0.6634 -0.4815 -0.0124
36893SOL    HW122404  12.134   2.071   7.420 -1.0242  0.8535  1.1821
36893SOL    HW222405  12.098   2.051   7.566  0.2357 -1.6892  1.2116
36894SOL     OW22406  11.924   9.143   4.550  0.1901 -0.2567  0.7405
36894SOL    HW122407  11.906   9.171   4.460 -0.4776 -0.3555  0.8409
36894SOL    HW222408  11.997   9.198   4.578 -0.4985  0.7469  0.6132
36895SOL     OW22409   8.190   9.346   0.161  0.1416  0.0017  0.4518
36895SOL    HW122410   8.242   9.422   0.189  0.2241 -0.8679  2.9356
36895SOL    HW222411   8.149   9.374   0.079  0.3948  2.6299  1.1232
36896SOL     OW22412   9.512  10.358   1.122 -0.1335  0.0355  0.6739
36896SOL    HW122413   9.562  10.431   1.156 -2.1115  1.6084  0.3925
36896SOL    HW222414   9.547  10.342   1.035  2.2158 -1.3190  1.7801
36897SOL     OW22415   0.976   4.906   4.867  0.1799  0.4314 -0.1244
36897SOL    HW122416   0.896   4.959   4.865 -1.2312 -1.6370 -1.0010
36897SOL    HW222417   1.014   4.917   4.780  0.9650  1.5238  0.3369
36898SOL     OW22418  11.003  12.564   2.128  0.3197  0.3100 -0.4251
36898SOL    HW122419  10.962  12.600   2.207 -2.9163  0.6651 -2.0888
36898SOL    HW222420  11.040  12.640   2.084 -1.8246  0.9038 -1.3351
36899SOL     OW22421  10.208   1.162   8.712  0.2389  0.4436 -0.3539
36899SOL    HW122422  10.278   1.163   8.647  0.2973 -0.9953 -0.3428
36899SOL    HW222423  10.131   1.194   8.665  0.4825  0.2493 -0.8868
36900SOL     OW22424   8.376   6.412  10.109  0.0604  0.1201  0.1313
36900SOL    HW122425   8.356   6.446  10.197  1.6036 -0.4652  0.7555
36900SOL    HW222426   8.337   6.476  10.049  1.2694  2.0276  1.2591
36901SOL     OW22427  10.027   4.108   8.342  0.3623 -0.2432  0.2404
36901SOL    HW122428  10.086   4.183   8.354 -1.1416  0.5671  3.9411
36901SOL    HW222429  10.084   4.031   8.345  1.6959  0.6100 -1.5057
36902SOL     OW22430   3.184   2.459  12.063 -0.9630 -0.3576 -0.0362
36902SOL    HW122431   3.174   2.461  11.968 -0.6918 -0.7619 -0.0752
36902SOL    HW222432   3.257   2.398  12.078 -0.2183  0.5995  0.3556
36903SOL     OW22433   3.625   3.207   5.450  0.1766  0.1247  0.5027
36903SOL    HW122434   3.651   3.124   5.410  3.1294  1.5865 -0.9275
36903SOL    HW222435   3.658   3.203   5.539  0.6766 -0.0885  0.3098
36904SOL     OW22436  13.173   7.500   8.918  0.1977  0.3913  0.4286
36904SOL    HW122437  13.098   7.559   8.914  0.5036  0.7412 -0.7999
36904SOL    HW222438  13.241   7.551   8.961  0.9812  1.6277 -2.0475
36905SOL     OW22439   5.352   0.693  12.128  0.2564 -0.0893 -0.2900
36905SOL    HW122440   5.294   0.654  12.063 -1.0203 -0.7049  1.1698
36905SOL    HW222441   5.438   0.692  12.086 -0.7471  1.0004 -2.5806
36906SOL     OW22442   5.153   4.146  12.198 -0.0706  0.6754  0.6907
36906SOL    HW122443   5.130   4.112  12.284  0.4869 -1.7880 -0.0665
36906SOL    HW222444   5.133   4.075  12.137  2.3212  1.1952 -0.8688
36907SOL     OW22445   9.197  10.852   4.483  0.5713 -0.2700  0.1351
36907SOL    HW122446   9.260  10.832   4.414 -0.3541  0.8655 -1.0931
36907SOL    HW222447   9.237  10.924   4.532 -0.5579  1.9022 -1.9255
36908SOL     OW22448   3.857   3.908  13.289  0.0145 -0.2919  0.1189
36908SOL    HW122449   3.885   3.976  13.351 -2.2051  2.7549 -1.9192
36908SOL    HW222450   3.820   3.839  13.344 -0.0686  1.3543  2.2677
36909SOL     OW22451   9.488   3.484   4.996 -0.4271  0.2403 -0.2340
36909SOL    HW122452   9.559   3.450   4.942 -1.6243 -1.6944 -0.6816
36909SOL    HW222453   9.430   3.529   4.935 -1.5391 -1.5432 -0.5563
36910SOL     OW22454   3.749  13.201   5.883 -0.3950 -0.0579 -0.5101
36910SOL    HW122455   3.766  13.295   5.894 -0.9111  0.0418 -0.5059
36910SOL    HW222456   3.731  13.170   5.972  0.0145 -0.2136 -0.4800
36911SOL     OW22457   3.834   3.265  13.167 -0.1847 -0.2675 -0.4410
36911SOL    HW122458   3.832   3.169  13.170 -0.9051 -0.2352  0.4604
36911SOL    HW222459   3.751   3.292  13.206 -0.6717  0.7138 -2.0367
36912SOL     OW22460   0.610   4.073   7.007  0.1088 -0.2472  0.0962
36912SOL    HW122461   0.661   4.054   6.928 -0.7413 -0.7686 -0.3294
36912SOL    HW222462   0.640   4.160   7.034 -0.6320  0.5841 -1.6290
36913SOL     OW22463  12.381  12.070   9.797 -0.6361  0.0442  0.0540
36913SOL    HW122464  12.399  12.142   9.858  1.5148 -1.3542  1.1497
36913SOL    HW222465  12.452  12.008   9.810 -0.6384 -0.8268 -3.1777
36914SOL     OW22466   2.611   1.818   8.162  0.1240 -0.7857 -0.1240
36914SOL    HW122467   2.517   1.831   8.160  0.2265 -0.0393 -0.4114
36914SOL    HW222468   2.633   1.813   8.255 -0.1030 -0.2367 -0.0425
36915SOL     OW22469   3.686  10.616   9.258  0.4202 -0.2919  0.2044
36915SOL    HW122470   3.631  10.555   9.307 -0.2088  0.6019  0.6370
36915SOL    HW222471   3.758  10.636   9.318  0.3930 -0.2662  0.2284
36916SOL     OW22472   0.287   4.389  12.928 -0.4891  0.6598  0.1420
36916SOL    HW122473   0.214   4.329  12.944  0.5479 -0.3603  1.1912
36916SOL    HW222474   0.275   4.459  12.993 -1.1380  1.0927 -0.4272
36917SOL     OW22475   6.069  12.576  13.636  0.0119 -0.1279 -0.0558
36917SOL    HW122476   6.152  12.591  13.680 -0.6289  0.1712  1.0854
36917SOL    HW222477   6.014  12.650  13.662 -0.3907  0.0661 -1.3841
36918SOL     OW22478   1.699   5.333   9.742 -0.5198  0.2497  0.0007
36918SOL    HW122479   1.693   5.420   9.702  0.1684 -0.3155 -1.3806
36918SOL    HW222480   1.778   5.295   9.705 -1.0584 -1.1426  0.2316
36919SOL     OW22481  10.990   4.966  12.687 -0.3063 -0.2809 -0.1656
36919SOL    HW122482  10.971   4.883  12.730 -0.2440 -0.3328 -0.2374
36919SOL    HW222483  11.016   4.942  12.598  0.2276 -0.2263 -0.0301
36920SOL     OW22484   2.995  11.549   7.171  0.1452  0.1560 -0.0362
36920SOL    HW122485   2.951  11.546   7.256  0.4140  1.8698  0.2006
36920SOL    HW222486   3.077  11.596   7.189  1.2140 -1.3128 -0.8398
36921SOL     OW22487   6.696   7.370   7.636 -0.0600  1.0936  0.2540
36921SOL    HW122488   6.601   7.354   7.641  0.2265 -1.0072 -0.3032
36921SOL    HW222489   6.724   7.327   7.556  1.3497  1.9752  0.2330
36922SOL     OW22490   4.519   7.052   6.462 -0.2570 -0.6166 -0.0603
36922SOL    HW122491   4.579   6.983   6.490  0.3032  0.0901  0.5320
36922SOL    HW222492   4.450   7.006   6.414  0.2723 -1.5453  0.0449
36923SOL     OW22493   9.159   5.452  13.447 -0.2714  0.3013  0.0297
36923SOL    HW122494   9.207   5.530  13.418 -3.8468  2.3075 -1.0431
36923SOL    HW222495   9.160   5.459  13.543  1.9919 -0.0910  0.0895
36924SOL     OW22496  12.492  13.633  10.577  0.4198  0.3241 -0.1047
36924SOL    HW122497  12.570  13.588  10.545  0.0262  0.5017 -1.3523
36924SOL    HW222498  12.452  13.572  10.639  1.8978  0.5004  1.0846
36925SOL     OW22499  10.030   0.702   3.822  0.2443 -0.7396 -0.0971
36925SOL    HW122500   9.944   0.695   3.780 -0.1107 -0.3656  0.5426
36925SOL    HW222501  10.076   0.769   3.772 -0.0051 -0.6260 -0.1743
36926SOL     OW22502   9.486  12.601   5.648 -0.1025  0.2911  0.0198
36926SOL    HW122503   9.405  12.607   5.700 -0.8996  0.4509 -1.1966
36926SOL    HW222504   9.553  12.639   5.705 -1.4449  3.1124 -0.0799
36927SOL     OW22505   5.527  11.393   6.535 -0.2414  0.2783  0.8912
36927SOL    HW122506   5.503  11.473   6.581  0.1702  1.0102 -0.1447
36927SOL    HW222507   5.456  11.378   6.473 -0.8939 -0.8177  1.8469
36928SOL     OW22508   6.282  10.469   2.635  0.1091 -0.2454  0.1441
36928SOL    HW122509   6.238  10.448   2.718  0.9895  1.6366  1.1566
36928SOL    HW222510   6.259  10.397   2.577 -2.0065 -0.7396  1.4712
36929SOL     OW22511   9.854   4.481   1.252 -0.4450 -0.1024  0.1021
36929SOL    HW122512   9.838   4.526   1.169  0.7867  1.0947  0.4793
36929SOL    HW222513   9.949   4.484   1.263 -0.6715  1.0310  2.2228
36930SOL     OW22514   0.312   7.876   3.389  0.2310 -0.2166  0.6925
36930SOL    HW122515   0.356   7.949   3.432 -0.2100 -0.0683  0.9042
36930SOL    HW222516   0.310   7.807   3.455 -0.6591  0.0933  1.0046
36931SOL     OW22517   4.524   3.889   6.196 -0.0281 -0.4666 -0.2593
36931SOL    HW122518   4.488   3.915   6.281 -0.2270 -0.6481 -0.2853
36931SOL    HW222519   4.607   3.936   6.189 -0.0247 -0.4296  0.0238
36932SOL     OW22520  11.323   8.094   1.998 -0.2352  0.1756  0.0844
36932SOL    HW122521  11.318   8.189   2.008 -1.6229  0.0641  0.6259
36932SOL    HW222522  11.384   8.081   1.925 -1.7864  1.5696 -1.5435
36933SOL     OW22523   4.643  10.181   5.986 -0.5194  0.1806  0.3246
36933SOL    HW122524   4.551  10.171   6.012 -1.0180 -1.1728 -1.7018
36933SOL    HW222525   4.643  10.254   5.924 -0.3538 -0.1618 -0.0905
36934SOL     OW22526   2.811   2.827   5.579 -0.3425 -0.3739 -0.1174
36934SOL    HW122527   2.726   2.840   5.537 -0.2939 -0.4410 -0.2373
36934SOL    HW222528   2.858   2.909   5.565  0.2788 -0.9559 -1.6067
36935SOL     OW22529  12.758  10.105   6.250  0.5887 -0.0005  0.1552
36935SOL    HW122530  12.752  10.094   6.155  0.5688  1.2810 -0.0085
36935SOL    HW222531  12.669  10.125   6.277  0.5103 -0.7882  0.5248
36936SOL     OW22532   0.644  12.020   3.856 -0.2364 -0.1868 -0.5600
36936SOL    HW122533   0.616  12.098   3.904  0.5431  0.2952 -0.8640
36936SOL    HW222534   0.648  12.048   3.765  0.7246 -0.3662 -0.5879
36937SOL     OW22535   7.702  12.278   5.055 -0.1527 -0.0577  0.3011
36937SOL    HW122536   7.681  12.364   5.017 -0.0640 -0.4182 -0.6045
36937SOL    HW222537   7.620  12.230   5.054  0.1262 -0.5507 -0.7689
36938SOL     OW22538   5.200   8.689   4.097  0.5158 -0.5859  0.0490
36938SOL    HW122539   5.281   8.700   4.046  0.0641 -0.9541 -0.7716
36938SOL    HW222540   5.215   8.609   4.148  0.3084 -1.2000 -0.8312
36939SOL     OW22541   8.658   9.599   3.301 -0.2727 -0.5714 -0.4227
36939SOL    HW122542   8.565   9.620   3.305  0.0749  1.0172  0.3081
36939SOL    HW222543   8.669   9.553   3.218 -1.7251 -0.9593 -0.4271
36940SOL     OW22544   4.094   0.682   9.062  0.1926  0.1666 -0.3380
36940SOL    HW122545   4.086   0.589   9.081  1.1413  0.0223 -0.5961
36940SOL    HW222546   4.170   0.710   9.112  1.2172  0.3283 -1.9089
36941SOL     OW22547   5.787  11.199   7.195 -0.3429 -0.2417 -0.3518
36941SOL    HW122548   5.794  11.263   7.265  1.1270  1.0844 -1.6368
36941SOL    HW222549   5.873  11.156   7.192  0.5603  1.4985 -2.8725
36942SOL     OW22550  12.974   6.779   1.096  0.0624 -0.7492  0.3693
36942SOL    HW122551  12.930   6.694   1.090 -2.1599  0.3229  0.5087
36942SOL    HW222552  12.903   6.843   1.097  1.6028  1.0684  1.6798
36943SOL     OW22553  10.007   4.636   9.908 -0.6035 -0.8137 -0.0363
36943SOL    HW122554  10.048   4.554   9.879 -0.9529 -0.2707 -2.3226
36943SOL    HW222555   9.927   4.608   9.951  0.5241 -1.7464  1.5506
36944SOL     OW22556   2.598   9.612   5.556  0.3548  0.0497  0.2736
36944SOL    HW122557   2.573   9.520   5.548  0.6366  0.0801 -1.3916
36944SOL    HW222558   2.638   9.633   5.472  0.9316  1.5135  0.8819
36945SOL     OW22559   2.175  11.864   5.774  0.4909 -0.5837 -0.2569
36945SOL    HW122560   2.166  11.945   5.824  0.6281 -0.3592 -0.5957
36945SOL    HW222561   2.218  11.803   5.834 -0.2084 -0.6158  0.2251
36946SOL     OW22562   9.115   7.826   2.858  0.1307 -0.0845 -0.0059
36946SOL    HW122563   9.107   7.820   2.763  0.9932  2.0596 -0.2755
36946SOL    HW222564   9.047   7.888   2.884  1.2548  0.9903  0.4758
36947SOL     OW22565   2.575  10.910   7.883  0.9168 -0.0678  0.0676
36947SOL    HW122566   2.598  10.985   7.937 -0.2498 -1.2051  2.2753
36947SOL    HW222567   2.655  10.891   7.833  1.9179  1.2832  1.0840
36948SOL     OW22568   1.416   7.727  12.105 -0.1963  0.1644  0.0923
36948SOL    HW122569   1.389   7.789  12.037 -0.6256 -0.6768 -0.5282
36948SOL    HW222570   1.502   7.697  12.078 -0.3175 -0.0841 -0.0187
36949SOL     OW22571   5.717   7.670  10.270  0.2084  0.3106  0.2473
36949SOL    HW122572   5.775   7.658  10.344  2.9188 -0.4755 -1.8342
36949SOL    HW222573   5.711   7.765  10.259  1.9449  0.4167 -0.0392
36950SOL     OW22574   1.815  11.061   7.408  0.1286 -0.4197 -0.1454
36950SOL    HW122575   1.868  10.985   7.382  1.2903  0.2772  0.0825
36950SOL    HW222576   1.879  11.122   7.446 -0.9945  0.0919  0.9664
36951SOL     OW22577   7.806   9.318   0.210  0.4140  0.0115  0.2450
36951SOL    HW122578   7.712   9.302   0.216  0.4240  0.3578  2.1687
36951SOL    HW222579   7.813   9.412   0.193  0.4309 -0.2410 -1.2719
36952SOL     OW22580   8.292  10.858   2.180 -0.7699  0.5397 -0.3341
36952SOL    HW122581   8.378  10.829   2.209 -1.6380 -2.1816 -0.2250
36952SOL    HW222582   8.291  10.952   2.198  1.5357  0.3362  1.2480
36953SOL     OW22583  10.030   4.265   7.874 -0.4023  0.4835  0.2479
36953SOL    HW122584  10.075   4.193   7.829  0.6169  0.2318  1.5864
36953SOL    HW222585   9.952   4.282   7.821  0.6274  0.0837 -1.4703
36954SOL     OW22586   2.933   0.570  11.536 -0.0539  0.3206 -0.4507
36954SOL    HW122587   3.006   0.532  11.585 -0.6783 -2.2816 -1.3887
36954SOL    HW222588   2.874   0.604  11.603  0.8679  0.2659  0.4204
36955SOL     OW22589   4.560   6.118  12.339  0.4205 -0.1329 -0.3738
36955SOL    HW122590   4.521   6.031  12.322 -0.6628  0.3919 -0.7035
36955SOL    HW222591   4.501   6.158  12.402  1.9066 -0.2900  1.1727
36956SOL     OW22592   2.516  11.325   6.977 -0.2951  0.7628  0.2544
36956SOL    HW122593   2.528  11.230   6.988  0.1256  0.7028 -0.6367
36956SOL    HW222594   2.603  11.362   6.990 -0.6750  1.1686  1.8241
36957SOL     OW22595   5.877   1.316   6.250  0.5922 -0.8398  0.1681
36957SOL    HW122596   5.919   1.357   6.326  0.1447 -0.0978  0.0147
36957SOL    HW222597   5.884   1.222   6.267  2.7675 -0.7867 -0.0719
36958SOL     OW22598   8.524  11.974   5.780 -0.2387 -0.4280 -0.6517
36958SOL    HW122599   8.429  11.987   5.785 -0.0760  0.7013 -0.1353
36958SOL    HW222600   8.535  11.905   5.715 -1.3909 -0.2201 -1.1018
36959SOL     OW22601  11.767   0.611   7.357 -0.2452 -0.3180  0.1395
36959SOL    HW122602  11.748   0.520   7.380 -0.0982 -0.1749  0.8404
36959SOL    HW222603  11.841   0.605   7.297 -0.9545 -0.7269 -0.7275
36960SOL     OW22604  13.292   2.825   4.919  0.2638  0.1068  0.9784
36960SOL    HW122605  13.210   2.790   4.954  0.6131  0.4461  2.1871
36960SOL    HW222606  13.359   2.764   4.948  0.4929  0.0576  0.3499
36961SOL     OW22607   2.786   5.695   4.991 -0.3091  0.0857 -0.8542
36961SOL    HW122608   2.866   5.678   5.041  0.1901 -0.3631 -1.7793
36961SOL    HW222609   2.749   5.774   5.031  0.6190  0.3297 -0.4484
36962SOL     OW22610   9.386   2.004   3.807 -0.3322 -0.0090  0.0986
36962SOL    HW122611   9.296   1.975   3.822  0.0822 -1.7172 -0.5079
36962SOL    HW222612   9.440   1.939   3.852  0.6393 -0.0397 -1.0792
36963SOL     OW22613   6.499  10.050   4.433  0.1407  0.3801  0.0304
36963SOL    HW122614   6.460   9.983   4.490 -0.0568  0.4994  0.0362
36963SOL    HW222615   6.470  10.026   4.345 -0.4922  0.8445  0.1051
36964SOL     OW22616   1.324   4.050   5.563 -0.5896 -0.0571  0.7012
36964SOL    HW122617   1.251   4.111   5.574 -0.2880  0.1152  1.9329
36964SOL    HW222618   1.302   3.976   5.620 -0.5787 -0.7516 -0.1865
36965SOL     OW22619   9.911   8.894   7.334  0.5067 -0.5885 -0.0326
36965SOL    HW122620   9.980   8.924   7.392  1.7350 -2.3570 -0.5062
36965SOL    HW222621   9.858   8.835   7.387  0.2300 -0.3912 -0.0837
36966SOL     OW22622   3.400   2.140   4.819 -0.1288 -0.2052 -0.2214
36966SOL    HW122623   3.337   2.084   4.864  0.1728 -0.4489 -0.0952
36966SOL    HW222624   3.458   2.172   4.888  0.5076 -0.8088 -0.4585
36967SOL     OW22625  11.844   1.144   1.648  0.1816 -0.5319  0.4556
36967SOL    HW122626  11.913   1.102   1.700 -0.9666 -0.1505  2.4141
36967SOL    HW222627  11.783   1.074   1.627  0.7780 -0.7374 -0.6818
36968SOL     OW22628  13.613  10.640  12.788  0.5942 -0.5331  0.4108
36968SOL    HW122629  13.706  10.652  12.769  0.4895 -1.5708 -0.9535
36968SOL    HW222630  13.611  10.565  12.848  0.6588 -0.0800  0.9933
36969SOL     OW22631   5.334  11.666   1.001 -0.1768  0.0201  0.2131
36969SOL    HW122632   5.265  11.621   1.050 -0.7699  1.6239  0.9323
36969SOL    HW222633   5.414  11.650   1.051 -0.4421  0.0619  0.6497
36970SOL     OW22634   3.307   4.917   0.740 -0.4035 -0.1277 -0.6052
36970SOL    HW122635   3.352   5.000   0.759 -0.7865 -0.2516  0.9616
36970SOL    HW222636   3.358   4.851   0.788 -0.3295 -0.7558 -1.5287
36971SOL     OW22637   2.268   7.743  10.283  0.5590  0.4166 -0.0252
36971SOL    HW122638   2.291   7.650  10.280 -0.3022  0.1966 -0.1826
36971SOL    HW222639   2.351   7.788  10.273  0.8896 -0.3419 -0.9008
36972SOL     OW22640   9.721  12.603   8.261  0.4046 -0.2978 -1.0520
36972SOL    HW122641   9.800  12.549   8.251 -0.3194 -1.5721 -0.1770
36972SOL    HW222642   9.658  12.565   8.200  0.2144  0.2359 -1.1962
36973SOL     OW22643   4.721   1.351   7.569 -0.2351 -0.6586  0.0045
36973SOL    HW122644   4.678   1.436   7.574  2.3982  0.7356  1.6219
36973SOL    HW222645   4.654   1.288   7.594 -1.5696  1.2728  1.6028
36974SOL     OW22646   0.965  10.620  12.185  0.0508  0.4555  0.3429
36974SOL    HW122647   1.033  10.553  12.178  0.1053  0.5785 -0.4210
36974SOL    HW222648   0.992  10.676  12.257  0.1976 -0.1250  0.7464
36975SOL     OW22649   5.002  12.563   3.062 -0.8483  0.3870  0.3453
36975SOL    HW122650   4.966  12.487   3.108  0.3440 -0.3753  0.0710
36975SOL    HW222651   5.051  12.611   3.128  2.6250 -1.8104 -0.3626
36976SOL     OW22652  11.649   2.568  10.985  0.5436  0.2689 -0.0719
36976SOL    HW122653  11.559   2.540  10.975  0.1162  0.9637  1.5155
36976SOL    HW222654  11.654   2.604  11.073  2.3516  0.3416 -0.1474
36977SOL     OW22655   9.289   1.373   0.901 -0.5568 -0.1313 -0.0118
36977SOL    HW122656   9.236   1.435   0.952 -1.7067 -1.5635  0.6023
36977SOL    HW222657   9.379   1.403   0.912 -1.0815  1.3882  0.3086
36978SOL     OW22658  11.843   9.130   7.652  0.2918  0.0802  0.1059
36978SOL    HW122659  11.848   9.179   7.734  2.5497 -0.2619  0.2272
36978SOL    HW222660  11.868   9.194   7.584  0.3087 -0.1415 -0.0972
36979SOL     OW22661   8.890   5.351   6.152  0.0430  0.1870  0.3441
36979SOL    HW122662   8.846   5.282   6.103  0.3346  1.0668 -1.2074
36979SOL    HW222663   8.971   5.311   6.183 -0.8379 -0.8172  1.4447
36980SOL     OW22664   5.565   9.404  11.146  0.1825 -0.1499 -0.2224
36980SOL    HW122665   5.491   9.356  11.110  0.5579 -1.4419  0.6766
36980SOL    HW222666   5.630   9.403  11.075 -0.2786  0.1507 -0.6596
36981SOL     OW22667   2.817   3.344   5.491  0.1557  0.6750  0.1801
36981SOL    HW122668   2.753   3.378   5.553 -0.5347  0.8305 -0.6070
36981SOL    HW222669   2.862   3.422   5.457  1.3662  0.5228  1.3400
36982SOL     OW22670   0.869  13.732   3.310 -0.1652  0.0230  0.5472
36982SOL    HW122671   0.876  13.639   3.330 -1.6974 -0.3951 -0.6788
36982SOL    HW222672   0.928  13.746   3.236 -1.4129 -0.4668 -0.6008
36983SOL     OW22673  12.999  13.493   7.721 -0.7514  0.3847 -0.1509
36983SOL    HW122674  12.903  13.488   7.720 -0.7437  0.2459 -0.2600
36983SOL    HW222675  13.022  13.487   7.813 -0.8359  0.1186 -0.1437
36984SOL     OW22676   3.782   4.285   8.261 -0.4406 -0.2942 -0.1498
36984SOL    HW122677   3.721   4.237   8.204  0.4281 -0.0770 -1.2910
36984SOL    HW222678   3.738   4.368   8.278  0.0504  0.3627 -1.9825
36985SOL     OW22679   4.708   4.371   8.322 -0.0166 -0.3034 -0.2677
36985SOL    HW122680   4.653   4.317   8.265  1.1671 -0.2107 -1.5255
36985SOL    HW222681   4.753   4.431   8.263 -0.5406  1.4290  1.0006
36986SOL     OW22682   6.062  12.013   9.263 -0.3654 -0.0699 -0.1527
36986SOL    HW122683   6.095  11.965   9.187  1.5981  1.2515 -0.2084
36986SOL    HW222684   5.997  12.073   9.227  1.4855  1.4859 -1.1096
36987SOL     OW22685   3.740   2.739   7.364 -0.1504 -0.3861  0.1661
36987SOL    HW122686   3.728   2.721   7.457 -0.7016  3.1390  0.9050
36987SOL    HW222687   3.663   2.699   7.322 -1.3667  0.3407  1.6199
36988SOL     OW22688   5.766   9.328   4.794 -0.2637 -0.5712  0.1806
36988SOL    HW122689   5.819   9.258   4.832  1.0166 -0.4707 -1.2875
36988SOL    HW222690   5.680   9.290   4.782  0.7507 -2.4669 -1.9054
36989SOL     OW22691   2.509   0.284   1.239  0.6144  0.5112 -0.1785
36989SOL    HW122692   2.497   0.212   1.301 -1.7892  1.4407  0.5282
36989SOL    HW222693   2.518   0.241   1.154  2.0868 -0.6969  0.5237
36990SOL     OW22694  12.980   3.456   8.128  0.4992  0.3127 -0.5958
36990SOL    HW122695  12.940   3.471   8.214  1.3653  1.8297 -0.4290
36990SOL    HW222696  13.061   3.507   8.130  0.3428  0.6977 -2.4632
36991SOL     OW22697   6.877   5.830  11.617  0.7290 -0.4694 -0.1630
36991SOL    HW122698   6.866   5.741  11.650 -0.5244 -0.2690 -0.0152
36991SOL    HW222699   6.923   5.876  11.688  2.2751 -1.2126 -0.6276
36992SOL     OW22700   2.891   8.210   8.186  0.3823  0.5650 -1.1723
36992SOL    HW122701   2.825   8.257   8.237  0.1018 -0.6035 -0.4457
36992SOL    HW222702   2.840   8.158   8.124  0.6760  0.6758 -1.5101
36993SOL     OW22703   8.105  13.614   8.995 -0.0514 -0.2208  0.5623
36993SOL    HW122704   8.102  13.614   9.091  1.3427  0.3027  0.6231
36993SOL    HW222705   8.131  13.703   8.972 -0.6898 -0.2504 -0.3319
36994SOL     OW22706   0.513   9.799   3.518  0.5090 -0.1623 -0.1466
36994SOL    HW122707   0.423   9.820   3.543  0.5485 -1.8174  1.6623
36994SOL    HW222708   0.516   9.815   3.424 -1.7591 -0.3197 -0.3105
36995SOL     OW22709   8.060   2.784   3.451 -0.7096  0.6055  0.4247
36995SOL    HW122710   8.056   2.768   3.357 -1.6762 -0.0404  0.5658
36995SOL    HW222711   8.039   2.876   3.461 -0.9467  0.5970  0.0284
36996SOL     OW22712   7.461   4.302   8.858  0.1678  0.5218  0.0083
36996SOL    HW122713   7.390   4.262   8.908 -0.0537  0.0959 -0.6323
36996SOL    HW222714   7.461   4.394   8.885  0.5096  0.1650  1.3090
36997SOL     OW22715   4.075   7.459  11.293 -0.1954 -0.4367 -0.3133
36997SOL    HW122716   4.142   7.397  11.262 -0.2214 -1.0479  0.8000
36997SOL    HW222717   4.006   7.403  11.330 -1.6538  0.1427 -1.9824
36998SOL     OW22718   6.042  10.277  11.782  0.2536  0.4648  0.8698
36998SOL    HW122719   5.985  10.316  11.716 -0.7893 -0.7650  1.0002
36998SOL    HW222720   6.122  10.256  11.735 -0.4532 -0.3425 -0.0244
36999SOL     OW22721   3.525   0.576   6.931  0.2513  0.3181 -0.3291
36999SOL    HW122722   3.458   0.617   6.986 -0.3263 -0.9710 -0.0207
36999SOL    HW222723   3.480   0.555   6.850  0.7143  0.8713 -0.7376
37000SOL     OW22724  13.443   1.469   8.539  0.1794 -0.4816  0.5867
37000SOL    HW122725  13.511   1.459   8.472  0.7024  0.5411  0.9392
37000SOL    HW222726  13.414   1.380   8.558  1.1635 -0.9035  0.1581
37001SOL     OW22727   6.499   0.079   3.935  0.7400 -0.1486 -1.0925
37001SOL    HW122728   6.476   0.025   3.860  0.4204 -0.7033 -0.5991
37001SOL    HW222729   6.457   0.036   4.010  1.1603  0.3226 -0.5780
37002SOL     OW22730   7.521  10.165   9.134 -0.3033  0.1136 -0.0284
37002SOL    HW122731   7.541  10.122   9.217 -1.2474  0.1712  0.2374
37002SOL    HW222732   7.596  10.145   9.078  1.1300  1.4125  1.3283
37003SOL     OW22733  10.655   5.290   5.548 -0.0553  0.0600  0.0226
37003SOL    HW122734  10.686   5.287   5.457 -0.3655  1.2036 -0.1473
37003SOL    HW222735  10.567   5.328   5.542 -0.3984 -0.5885  0.7406
37004SOL     OW22736  11.381   7.848  11.914 -0.1635  0.0158  0.3713
37004SOL    HW122737  11.304   7.832  11.860  0.0419  3.0770 -1.0250
37004SOL    HW222738  11.408   7.761  11.944 -1.4143 -1.6394 -2.8601
37005SOL     OW22739   0.878  10.607   3.730 -0.4229  0.2143  0.5434
37005SOL    HW122740   0.902  10.530   3.678  0.4544  0.2652  0.8596
37005SOL    HW222741   0.834  10.571   3.808  0.1685  0.0168  0.7887
37006SOL     OW22742   9.400   2.544  10.809 -0.0802  0.4113 -0.3787
37006SOL    HW122743   9.384   2.452  10.785 -2.5876  0.7846 -0.4442
37006SOL    HW222744   9.491   2.560  10.784  0.5669 -2.1488  0.0065
37007SOL     OW22745  12.958   0.660   3.472  0.2345 -0.1348  0.2058
37007SOL    HW122746  13.002   0.686   3.553  1.2877 -1.1089 -0.0143
37007SOL    HW222747  13.005   0.708   3.403  0.4693 -0.5895  0.0398
37008SOL     OW22748   7.930   2.364   2.849  0.3765  0.3027  0.3704
37008SOL    HW122749   7.916   2.282   2.800 -0.6201  0.6843 -0.0192
37008SOL    HW222750   7.973   2.337   2.930  0.0851 -0.6021  0.2334
37009SOL     OW22751   0.403   2.481   9.974 -0.3426 -0.0645  0.1978
37009SOL    HW122752   0.403   2.501  10.068  1.5136 -0.1630  0.2577
37009SOL    HW222753   0.446   2.396   9.967  0.5012  0.4243 -0.8150
37010SOL     OW22754   7.747  11.731  10.799  0.2082 -0.2758 -0.0773
37010SOL    HW122755   7.793  11.747  10.881 -0.4362 -0.3519  0.3028
37010SOL    HW222756   7.776  11.802  10.741 -0.0816  0.3440  0.5259
37011SOL     OW22757  12.311   8.026   1.062  0.2232  0.2526  0.0941
37011SOL    HW122758  12.344   7.995   1.146  0.4446 -0.1135 -0.1269
37011SOL    HW222759  12.298   8.120   1.075 -1.4428 -0.0780  1.0927
37012SOL     OW22760   0.570   2.886   8.394  0.3591 -0.3833  0.3705
37012SOL    HW122761   0.519   2.911   8.317 -0.3381  0.0727  0.9611
37012SOL    HW222762   0.539   2.798   8.415 -1.5807  0.5802  1.8126
37013SOL     OW22763  13.639  11.164   3.584  0.7272 -0.2928  0.2315
37013SOL    HW122764  13.607  11.148   3.673  1.4625 -2.2254  0.1885
37013SOL    HW222765  13.644  11.078   3.544 -1.7335  0.6645 -2.5246
37014SOL     OW22766   0.543   0.404   8.811  0.0619 -0.4302 -0.1849
37014SOL    HW122767   0.602   0.412   8.886 -1.6329  0.9940  1.0898
37014SOL    HW222768   0.535   0.494   8.778 -0.7080 -0.7360 -0.8671
37015SOL     OW22769  10.598   9.292  13.286  0.3329  0.0449 -0.1721
37015SOL    HW122770  10.628   9.234  13.356 -2.0889  0.8880  1.6737
37015SOL    HW222771  10.517   9.251  13.254  0.2301  0.8368 -0.9715
37016SOL     OW22772  11.599   3.564   6.839  0.4851  0.0546 -0.0970
37016SOL    HW122773  11.664   3.521   6.895  1.2376 -0.6420 -1.4564
37016SOL    HW222774  11.635   3.651   6.823 -0.1236  0.5504  1.1245
37017SOL     OW22775   9.771  10.689  11.234 -0.1506  0.0052  0.2322
37017SOL    HW122776   9.724  10.757  11.282  0.4527  0.0457  0.7758
37017SOL    HW222777   9.858  10.725  11.220  0.8763 -1.4360  2.3912
37018SOL     OW22778   0.681  12.781   7.367 -0.3449  0.0459 -0.2795
37018SOL    HW122779   0.606  12.726   7.390 -1.3456  1.7018  0.6134
37018SOL    HW222780   0.743  12.721   7.325 -1.7063 -1.5791 -0.0679
37019SOL     OW22781   2.597  11.526   1.151  0.0471  0.1499 -0.2811
37019SOL    HW122782   2.630  11.577   1.225 -3.5733 -1.1939  2.5964
37019SOL    HW222783   2.648  11.556   1.076  1.8351  3.9376  2.1438
37020SOL     OW22784  10.454   0.625   4.480  0.3241  0.0184 -0.1973
37020SOL    HW122785  10.539   0.637   4.521  1.0516 -0.2409 -1.5696
37020SOL    HW222786  10.394   0.609   4.553  1.5299 -0.2981  0.7542
37021SOL     OW22787   9.734  10.160   9.709 -0.0388  0.4779 -0.2093
37021SOL    HW122788   9.651  10.138   9.668 -0.0578  0.6489 -0.2618
37021SOL    HW222789   9.726  10.252   9.732 -0.8405 -0.0868  2.0600
37022SOL     OW22790  11.865  12.928   3.069  0.1715 -0.5895  0.1988
37022SOL    HW122791  11.895  12.983   2.996 -0.0425 -1.3676 -0.4888
37022SOL    HW222792  11.874  12.839   3.037  2.3975 -1.1167  1.9867
37023SOL     OW22793   7.975   5.949   1.890 -0.2427 -0.4225 -0.2657
37023SOL    HW122794   7.972   5.899   1.971 -0.7775  1.3809  0.8644
37023SOL    HW222795   8.056   6.000   1.896  0.5190 -1.4080 -1.5998
37024SOL     OW22796   5.702   4.763   6.445  0.1464  0.2396  0.3849
37024SOL    HW122797   5.750   4.769   6.527 -1.8877  0.7143  1.6199
37024SOL    HW222798   5.716   4.847   6.402  1.6670 -0.2112 -0.0649
37025SOL     OW22799   7.560  13.369  10.839  0.3027 -0.6844 -0.2425
37025SOL    HW122800   7.486  13.330  10.885 -0.0739 -0.3353 -0.5398
37025SOL    HW222801   7.535  13.367  10.747  0.8906 -1.0404 -0.4027
37026SOL     OW22802   8.433  11.765   3.230  0.1080  0.0135  0.4939
37026SOL    HW122803   8.338  11.757   3.241  0.0494 -1.3826 -0.6575
37026SOL    HW222804   8.445  11.853   3.195 -0.7890  0.1323  0.4468
37027SOL     OW22805   4.254   1.751  11.784  0.7332  0.0590  0.0241
37027SOL    HW122806   4.310   1.674  11.784  2.3674  1.1795 -0.8276
37027SOL    HW222807   4.247   1.776  11.692  2.8897  2.6880  0.4581
37028SOL     OW22808   6.234   7.099   7.172  0.0386  0.3288 -0.4899
37028SOL    HW122809   6.195   7.154   7.240  1.0070  0.7211 -0.2326
37028SOL    HW222810   6.191   7.014   7.183  0.5964  0.2104  1.0168
37029SOL     OW22811   2.710  11.100   9.580  0.6668 -0.0278  0.0381
37029SOL    HW122812   2.620  11.132   9.576  1.2719  2.0370  1.1230
37029SOL    HW222813   2.749  11.129   9.497  0.7451  0.5282  0.2642
37030SOL     OW22814  12.783  11.348  11.080  0.2026 -0.4934  0.4773
37030SOL    HW122815  12.786  11.429  11.029 -0.4739  0.5684  2.0226
37030SOL    HW222816  12.874  11.323  11.093  0.4522  0.5269  0.7250
37031SOL     OW22817   2.389   1.298   4.400 -0.2045 -0.2669 -0.3163
37031SOL    HW122818   2.358   1.359   4.467  0.3200  1.0286 -1.2153
37031SOL    HW222819   2.470   1.263   4.436 -0.6386 -0.6623  0.3165
37032SOL     OW22820   1.555  10.289   8.266 -0.1796 -0.0681 -0.1873
37032SOL    HW122821   1.601  10.233   8.203  0.6543  0.3645  0.0295
37032SOL    HW222822   1.479  10.321   8.218 -1.3301 -2.2653  0.0179
37033SOL     OW22823   3.030  12.484   8.489 -0.1787 -0.5030 -0.2290
37033SOL    HW122824   2.964  12.454   8.425  0.4940 -0.3137 -1.0299
37033SOL    HW222825   3.061  12.568   8.454 -0.4826  0.0812  0.8584
37034SOL     OW22826   5.029  10.345   9.113  0.2854 -0.5198  0.2623
37034SOL    HW122827   5.031  10.402   9.190  0.0466 -0.5695  0.3048
37034SOL    HW222828   5.043  10.257   9.149 -0.7049 -0.6514  0.3530
37035SOL     OW22829   2.697   0.082   5.764 -0.7088  0.3440  0.3576
37035SOL    HW122830   2.634   0.154   5.776 -0.7911  0.2819  0.3043
37035SOL    HW222831   2.648   0.003   5.791 -0.9852  0.1688 -0.6315
37036SOL     OW22832  11.908   4.135   4.603  0.0909 -0.2753  0.4843
37036SOL    HW122833  11.949   4.049   4.610  0.6623 -0.1102 -0.6847
37036SOL    HW222834  11.907   4.154   4.509  0.4063  1.2042  0.7608
37037SOL     OW22835   5.078  10.174   0.634  0.3190 -0.3604  0.1075
37037SOL    HW122836   5.100  10.267   0.643  1.0817 -0.6066  0.9551
37037SOL    HW222837   5.031  10.153   0.715  2.3721 -1.2920  1.1397
37038SOL     OW22838   4.174   5.717   9.727  0.4682  0.4259  0.1314
37038SOL    HW122839   4.249   5.659   9.720 -0.5175 -1.0245  1.1301
37038SOL    HW222840   4.172   5.745   9.818 -1.5438 -1.5030  0.7486
37039SOL     OW22841   6.837   2.189   5.904 -0.0479  0.1835  0.7522
37039SOL    HW122842   6.891   2.132   5.849 -0.4621 -0.2634  0.8020
37039SOL    HW222843   6.776   2.129   5.948 -2.4033  0.8761 -1.2990
37040SOL     OW22844  13.635  12.024   3.807 -0.1710  0.2578  0.3133
37040SOL    HW122845  13.573  12.017   3.880 -0.9940  0.3613 -0.3546
37040SOL    HW222846  13.607  11.956   3.745 -1.6239  2.2845 -1.4254
37041SOL     OW22847   3.255   6.043   8.733 -0.4621  0.0964  0.3415
37041SOL    HW122848   3.290   5.957   8.708 -0.0092  0.1225  0.8622
37041SOL    HW222849   3.179   6.055   8.677 -0.3032 -0.4778 -0.0066
37042SOL     OW22850   6.522  12.083   5.032  0.2904 -0.4693  0.2927
37042SOL    HW122851   6.434  12.049   5.019  0.5758 -0.6718 -1.2532
37042SOL    HW222852   6.562  12.083   4.945  1.2186  1.2984  0.6516
37043SOL     OW22853  11.234   3.457   0.797 -0.5808 -0.2311  0.3593
37043SOL    HW122854  11.231   3.493   0.886 -0.0434 -0.9499  0.6704
37043SOL    HW222855  11.323   3.474   0.767 -0.3766 -1.1497  0.4421
37044SOL     OW22856   2.041   2.644   5.853 -0.0852 -0.6366  0.1440
37044SOL    HW122857   2.006   2.598   5.929 -1.5106  0.0552 -0.0575
37044SOL    HW222858   2.007   2.734   5.861  0.6400 -0.2644 -0.7311
37045SOL     OW22859   5.085  12.048  11.794 -0.3144 -0.5687  0.2945
37045SOL    HW122860   5.040  12.125  11.757  0.0406 -0.2668  0.4861
37045SOL    HW222861   5.145  12.021  11.725  1.0610  0.5891  0.9859
37046SOL     OW22862   2.236  12.687   3.201 -0.1423  0.1366  0.6170
37046SOL    HW122863   2.241  12.611   3.258  2.4308 -0.4076 -0.1762
37046SOL    HW222864   2.184  12.657   3.126  0.0973 -0.5555  0.7197
37047SOL     OW22865   5.462   3.718   8.216 -0.3565  0.0859 -0.9041
37047SOL    HW122866   5.499   3.632   8.236 -0.1417  0.3451 -0.1553
37047SOL    HW222867   5.492   3.775   8.288 -1.2916  0.5612 -0.8760
37048SOL     OW22868   2.103  12.599   7.796  0.7120  0.3861 -0.2567
37048SOL    HW122869   2.125  12.572   7.707  1.3908  0.4346 -0.1079
37048SOL    HW222870   2.011  12.574   7.807  0.8148 -0.2164 -0.7398
37049SOL     OW22871   9.080  10.213   3.243 -0.2005  0.0818 -0.0422
37049SOL    HW122872   9.100  10.295   3.197  2.0427 -0.7372 -0.6171
37049SOL    HW222873   9.165  10.177   3.268 -1.1491 -1.9046  0.5344
37050SOL     OW22874  11.223   6.835   3.827 -0.1797  0.6843  0.2633
37050SOL    HW122875  11.254   6.850   3.917  1.1212  1.9920 -0.3716
37050SOL    HW222876  11.291   6.780   3.787 -1.3768 -0.9866  0.4079
37051SOL     OW22877   3.399   5.239   0.464 -0.9517 -0.2625 -0.3755
37051SOL    HW122878   3.486   5.217   0.432 -0.5796 -0.2168  0.5849
37051SOL    HW222879   3.363   5.298   0.397  0.4990  1.2763  0.1278
37052SOL     OW22880   3.245   0.359  12.255 -0.0278 -0.2141  0.4638
37052SOL    HW122881   3.313   0.365  12.188 -2.6208 -2.0590 -2.6428
37052SOL    HW222882   3.253   0.270  12.289 -1.1846 -0.7024 -0.4424
37053SOL     OW22883   8.029   3.042   3.527  0.1211  0.6807  0.9100
37053SOL    HW122884   8.121   3.018   3.512 -0.3243 -0.7619  0.2841
37053SOL    HW222885   8.028   3.078   3.615  0.9789 -1.2382  1.7766
37054SOL     OW22886   3.456   6.287   2.435 -0.0690 -0.3148  0.2893
37054SOL    HW122887   3.373   6.273   2.390 -0.1606 -1.2665  0.7261
37054SOL    HW222888   3.431   6.317   2.522  0.0551 -0.3723  0.3442
37055SOL     OW22889   3.218   2.491  12.453  0.0283 -0.4126 -0.2689
37055SOL    HW122890   3.142   2.497  12.396  0.4309 -1.3021 -0.9379
37055SOL    HW222891   3.197   2.420  12.514 -0.0219 -0.0886  0.0941
37056SOL     OW22892   1.598   4.780  13.147 -0.0092 -0.8794 -0.5098
37056SOL    HW122893   1.504   4.787  13.164 -0.1859  0.8567 -1.8928
37056SOL    HW222894   1.609   4.690  13.116 -1.0277 -1.4069  0.5354
37057SOL     OW22895  10.314  10.527  11.420  0.5573 -0.1513 -0.4332
37057SOL    HW122896  10.241  10.584  11.394  0.6024  0.5450  0.8781
37057SOL    HW222897  10.378  10.587  11.459  1.2447 -0.9323 -0.3448
37058SOL     OW22898  12.704  10.952   8.268  0.0996 -0.0592  0.7740
37058SOL    HW122899  12.663  11.018   8.323  1.3780  1.9638 -0.5795
37058SOL    HW222900  12.658  10.958   8.184  0.7300 -0.3417  0.3969
37059SOL     OW22901   5.306   2.323  11.347 -0.0880 -0.4549 -0.3331
37059SOL    HW122902   5.355   2.243  11.327 -0.1165 -0.9409  1.4425
37059SOL    HW222903   5.215   2.295  11.351 -0.2784 -0.0047 -1.2855
37060SOL     OW22904  13.584  10.018   1.144 -0.2488 -0.0714 -0.1457
37060SOL    HW122905  13.621  10.002   1.231  0.1176  0.8008 -0.1280
37060SOL    HW222906  13.629  10.097   1.113 -0.4423 -0.3227 -1.0896
37061SOL     OW22907   8.985  13.484   5.346 -0.5261 -0.0561 -0.3700
37061SOL    HW122908   8.972  13.389   5.340  1.1877 -0.3388  0.0538
37061SOL    HW222909   8.897  13.519   5.364 -0.9105 -1.7311  1.2745
37062SOL     OW22910   0.623   6.955   6.552 -0.0110 -0.5754 -0.4506
37062SOL    HW122911   0.572   6.950   6.633 -1.8798  0.5154 -1.4898
37062SOL    HW222912   0.608   7.043   6.520  2.8213 -0.0981 -0.7101
37063SOL     OW22913  12.653   2.914   2.933  0.3618  0.7180 -0.4362
37063SOL    HW122914  12.601   2.926   2.854  0.1526  0.6766 -0.3048
37063SOL    HW222915  12.659   2.819   2.944  2.3082  0.6478 -1.6675
37064SOL     OW22916   0.693  11.993   0.130  0.0574  0.0645 -0.4169
37064SOL    HW122917   0.635  12.039   0.191 -0.1018  1.1103 -1.3227
37064SOL    HW222918   0.654  12.009   0.044  0.1987 -1.4972 -0.7999
37065SOL     OW22919  10.946   9.334   0.247  0.3999  0.2556 -0.2619
37065SOL    HW122920  10.950   9.427   0.227  0.1380  0.9322  2.3881
37065SOL    HW222921  11.034   9.301   0.230  0.9365  1.3752  0.2580
37066SOL     OW22922   9.659   0.042   8.259 -0.3379 -0.5387 -0.1786
37066SOL    HW122923   9.685  -0.010   8.183 -1.3238 -1.3141 -0.0000
37066SOL    HW222924   9.735   0.039   8.317 -0.0234 -0.9592 -0.6042
37067SOL     OW22925   0.737   4.406   9.910  0.0486  0.6373 -0.0228
37067SOL    HW122926   0.823   4.448   9.915 -0.8973  2.9076 -1.1553
37067SOL    HW222927   0.744   4.346   9.835  1.0652 -0.3595  0.8448
37068SOL     OW22928   0.718  11.505   0.614  0.4674 -0.3129 -0.3118
37068SOL    HW122929   0.673  11.491   0.531 -2.3005  0.7080  0.8787
37068SOL    HW222930   0.702  11.425   0.664 -0.1406  0.0669  0.1274
37069SOL     OW22931   7.356   5.764  10.672  0.5277 -0.3001  0.4930
37069SOL    HW122932   7.294   5.829  10.706  0.6594 -0.0507  0.2652
37069SOL    HW222933   7.318   5.680  10.696 -0.8716 -0.2289 -1.2568
37070SOL     OW22934  11.425  10.473  12.996  0.8101  0.5906  0.5136
37070SOL    HW122935  11.426  10.464  12.900  1.4426  0.0576  0.5588
37070SOL    HW222936  11.473  10.396  13.027 -1.2354 -0.3881  1.3747
37071SOL     OW22937   8.068  12.110   4.479 -0.0300 -0.5122  0.0559
37071SOL    HW122938   8.084  12.181   4.541 -2.9702  1.2237 -0.9700
37071SOL    HW222939   7.992  12.063   4.516  1.9544 -3.3905  0.8143
37072SOL     OW22940  12.075   4.441   1.338  0.1428 -0.2472 -0.8235
37072SOL    HW122941  12.161   4.434   1.297  1.3763  1.4446  1.2556
37072SOL    HW222942  12.056   4.352   1.369  1.7845 -0.4237 -0.1979
37073SOL     OW22943   2.177  12.964  10.438 -0.2573 -0.0858  0.1093
37073SOL    HW122944   2.157  13.043  10.488 -1.3177 -0.6152  0.5449
37073SOL    HW222945   2.094  12.916  10.434  0.1849 -0.8036 -0.8181
37074SOL     OW22946  12.524  12.957   7.788 -0.3180 -0.5935  0.2800
37074SOL    HW122947  12.540  12.915   7.703 -0.9877  1.8963 -1.1746
37074SOL    HW222948  12.611  12.981   7.820  0.0674 -2.7893  1.0719
37075SOL     OW22949   2.660   4.792   3.707  0.3984 -0.4178  0.3929
37075SOL    HW122950   2.676   4.714   3.655  0.0028  0.5166 -1.1923
37075SOL    HW222951   2.744   4.812   3.748  0.4857 -1.6871  0.8658
37076SOL     OW22952   3.165  10.969   8.521 -0.4072  0.2982 -0.2000
37076SOL    HW122953   3.241  10.944   8.573 -1.7638 -1.8347  0.9224
37076SOL    HW222954   3.168  10.911   8.445 -0.9083  0.1382 -0.1064
37077SOL     OW22955   2.578   7.658  11.002  0.0582  0.4589 -0.0188
37077SOL    HW122956   2.585   7.659  11.097  1.2998  1.8063 -0.0872
37077SOL    HW222957   2.531   7.738  10.981 -2.8337 -1.2246 -0.4464
37078SOL     OW22958   9.671  13.573   0.652  0.3541  0.4989  0.8801
37078SOL    HW122959   9.673  13.535   0.740 -0.0141 -0.1949  0.5975
37078SOL    HW222960   9.762  13.572   0.622  0.4980  0.8524  1.2949
37079SOL     OW22961   9.856   6.037   1.587  0.7226  0.3417  0.2514
37079SOL    HW122962   9.850   6.115   1.643  0.2423  0.8254 -0.4621
37079SOL    HW222963   9.838   5.964   1.646 -1.4013  0.9552  0.4503
37080SOL     OW22964   1.054  10.727   7.491 -0.3987  0.7000 -0.2600
37080SOL    HW122965   0.984  10.696   7.434 -0.9414  2.8375 -0.8468
37080SOL    HW222966   1.118  10.656   7.492 -2.0163 -0.8172 -0.6614
37081SOL     OW22967   3.333   8.876   7.585 -0.2579 -0.2189  0.1469
37081SOL    HW122968   3.272   8.945   7.560  2.7913  2.3583 -0.8133
37081SOL    HW222969   3.392   8.868   7.510  2.7859  0.1449  2.3100
37082SOL     OW22970   8.925  11.913   0.543  0.6794  0.2913  0.3242
37082SOL    HW122971   8.833  11.894   0.524  0.8570  0.8180 -1.1965
37082SOL    HW222972   8.971  11.887   0.464  1.8763 -0.0830  1.1233
37083SOL     OW22973  10.500   0.116  11.211 -0.6564  0.6968  0.4334
37083SOL    HW122974  10.425   0.060  11.196  0.3711 -0.4693 -0.6730
37083SOL    HW222975  10.575   0.056  11.210  0.2572  1.7486  2.0128
37084SOL     OW22976   9.022   4.652   0.052  0.1788  0.3531 -0.3153
37084SOL    HW122977   8.956   4.721   0.052  0.2569  0.4377  0.5728
37084SOL    HW222978   9.101   4.695   0.086 -0.2842 -0.6215  2.2501
37085SOL     OW22979   7.705  11.235   8.441 -0.2019 -0.3876  0.6408
37085SOL    HW122980   7.685  11.143   8.428 -3.0896  0.1634  0.4839
37085SOL    HW222981   7.665  11.279   8.366  0.4470  1.0485  1.1030
37086SOL     OW22982  13.706   1.781   2.241 -0.0205  0.0651  0.1047
37086SOL    HW122983  13.746   1.696   2.219  2.2830  1.1770 -0.3210
37086SOL    HW222984  13.663   1.809   2.160 -0.8682 -0.6897  0.2691
37087SOL     OW22985   1.712   1.058  10.098  0.1845  0.2028 -0.2474
37087SOL    HW122986   1.689   1.070  10.006  0.9068  0.3549 -0.4163
37087SOL    HW222987   1.673   0.974  10.122 -0.2072  0.2760 -0.6283
37088SOL     OW22988  13.125   0.298  13.036 -0.0879 -0.2418 -0.2170
37088SOL    HW122989  13.191   0.367  13.047  0.1794 -0.2017 -1.7667
37088SOL    HW222990  13.130   0.276  12.943 -0.3691 -2.1729  0.1999
37089SOL     OW22991   8.513  11.820  13.254  0.5175  0.3426  0.4743
37089SOL    HW122992   8.483  11.863  13.174 -1.0607 -1.0933  0.2067
37089SOL    HW222993   8.570  11.750  13.223 -0.9557 -0.9098  0.4504
37090SOL     OW22994  10.757   5.352  10.998  0.3929  0.0620 -0.2616
37090SOL    HW122995  10.840   5.368  10.954  1.3251  1.1157  1.7664
37090SOL    HW222996  10.697   5.416  10.960  1.0544  0.6427 -0.3399
37091SOL     OW22997   2.864  11.635  13.725 -0.4255 -0.3478 -0.4477
37091SOL    HW122998   2.809  11.712  13.706 -0.0490  0.4983  1.5754
37091SOL    HW222999   2.877  11.593  13.640 -1.2713  1.4061 -1.5070
37092SOL     OW23000   1.328   6.307   9.644 -0.0778  0.4700 -0.1543
37092SOL    HW123001   1.295   6.287   9.557  0.8983  0.4758 -0.5449
37092SOL    HW223002   1.386   6.383   9.631  0.2874  0.3021  0.4426
37093SOL     OW23003  12.215  11.574   0.680 -0.0289  0.4605 -0.2844
37093SOL    HW123004  12.256  11.515   0.744 -2.1098 -1.8535 -0.9141
37093SOL    HW223005  12.209  11.658   0.725  2.2133 -0.0137  1.0262
37094SOL     OW23006   2.914  10.254   4.712  0.4576 -0.0959  0.1956
37094SOL    HW123007   2.860  10.183   4.746 -1.8327  1.0707 -0.7749
37094SOL    HW223008   2.901  10.252   4.618  2.6394 -0.0880 -0.1763
37095SOL     OW23009   8.037  12.614   2.072 -0.3784 -0.3507 -0.6408
37095SOL    HW123010   8.067  12.622   1.982  1.9277  1.8770  0.2145
37095SOL    HW223011   7.991  12.696   2.089  0.0605 -0.3265  0.4874
37096SOL     OW23012   4.990  11.265   6.434 -0.2954 -0.4926  0.5589
37096SOL    HW123013   5.019  11.351   6.464  0.3253 -0.7351  0.6634
37096SOL    HW223014   4.933  11.234   6.504  0.2578 -0.5779  0.9767
37097SOL     OW23015  12.234   1.979  11.361  0.6899 -0.4601 -0.8033
37097SOL    HW123016  12.228   1.895  11.408  1.2385 -0.3239 -0.4851
37097SOL    HW223017  12.314   1.972  11.310  1.4424  0.3563  0.2092
37098SOL     OW23018   8.871  13.252   6.536 -0.8190  0.1554  0.1136
37098SOL    HW123019   8.917  13.270   6.455 -0.4823 -0.3366  0.1911
37098SOL    HW223020   8.916  13.176   6.573 -1.6185 -0.2685  0.2468
37099SOL     OW23021   3.389   7.395   0.948  0.3173  0.2384  0.4226
37099SOL    HW123022   3.301   7.430   0.941  0.3253 -0.0471 -1.8789
37099SOL    HW223023   3.444   7.470   0.969 -0.2024  0.8488 -0.3396
37100SOL     OW23024   9.524   2.142  10.469 -0.3138 -0.4070  0.1965
37100SOL    HW123025   9.515   2.192  10.549  2.1320  0.1957  0.1708
37100SOL    HW223026   9.565   2.202  10.407 -3.0347 -0.5074 -1.9411
37101SOL     OW23027  12.263   7.449  11.331 -0.6714  0.0053  0.2753
37101SOL    HW123028  12.301   7.471  11.416 -1.8043 -1.2187  1.1512
37101SOL    HW223029  12.188   7.508  11.321  0.9381  1.9279 -1.1210
37102SOL     OW23030  11.481  12.658  10.965 -0.2649 -0.0895  0.2745
37102SOL    HW123031  11.444  12.570  10.967  0.0521 -0.2111  2.7304
37102SOL    HW223032  11.413  12.714  11.002  0.2704  0.3866  0.5604
37103SOL     OW23033   1.308   2.630   6.587 -0.1564  0.2728  0.4132
37103SOL    HW123034   1.357   2.652   6.508 -2.6864  0.9117 -1.1247
37103SOL    HW223035   1.346   2.547   6.616  0.0287 -0.7368 -2.3272
37104SOL     OW23036  12.266   4.230  12.263 -0.1345  0.2969 -0.3946
37104SOL    HW123037  12.223   4.258  12.344 -1.5745  0.6407 -1.2526
37104SOL    HW223038  12.238   4.139  12.252  2.6488 -0.8742  1.1407
37105SOL     OW23039   5.457   0.077   6.936 -0.5299 -0.3229 -0.0700
37105SOL    HW123040   5.538   0.097   6.889  0.0450 -0.2209  0.9379
37105SOL    HW223041   5.476  -0.002   6.986 -0.6237  0.4159  1.1719
37106SOL     OW23042   0.781   5.149   2.460  0.0156  0.0584 -0.5096
37106SOL    HW123043   0.768   5.221   2.522  0.7105  0.0006 -0.2954
37106SOL    HW223044   0.866   5.165   2.421  0.8067 -1.3775  0.5311
37107SOL     OW23045   4.581  12.238   6.101 -0.2188  0.0458  0.6523
37107SOL    HW123046   4.654  12.181   6.124  0.0351  1.0395  2.5287
37107SOL    HW223047   4.515  12.221   6.168 -0.6851  0.9334  0.4408
37108SOL     OW23048   6.233   8.543   6.670 -0.2127 -0.3434  0.7758
37108SOL    HW123049   6.305   8.587   6.625 -1.9242  0.5408 -1.3057
37108SOL    HW223050   6.241   8.571   6.761  1.1307  1.0495  0.2718
37109SOL     OW23051   3.399  10.017   3.149 -0.1935 -0.3374 -0.1980
37109SOL    HW123052   3.328  10.075   3.121 -0.2160 -0.0424  0.4411
37109SOL    HW223053   3.368   9.929   3.129 -0.7257 -0.2076  0.0293
37110SOL     OW23054  10.138   6.817   5.879  0.3353 -0.4700  0.9107
37110SOL    HW123055  10.064   6.870   5.849 -0.1154 -0.5232  1.8575
37110SOL    HW223056  10.211   6.843   5.823 -0.4695 -0.6355 -0.2430
37111SOL     OW23057   7.823   9.308   4.057 -0.1332  0.3904  0.1007
37111SOL    HW123058   7.856   9.222   4.082 -0.8570 -0.0084 -0.2866
37111SOL    HW223059   7.846   9.365   4.131 -1.0082 -0.4593  1.0531
37112SOL     OW23060   6.599   2.043   1.648  0.3302 -0.2090  0.1386
37112SOL    HW123061   6.609   2.091   1.566  0.6178 -1.6902 -0.7352
37112SOL    HW223062   6.522   2.083   1.690  0.1389  0.5375 -0.8708
37113SOL     OW23063   1.487   1.799   6.606 -0.2004 -0.5252 -0.0609
37113SOL    HW123064   1.428   1.853   6.658  0.2234  0.0540 -0.1707
37113SOL    HW223065   1.499   1.719   6.658  1.3875  0.6432  1.4680
37114SOL     OW23066   0.321   1.285   2.968 -0.3860  0.3589 -0.1190
37114SOL    HW123067   0.353   1.290   3.058  0.1508  0.0623 -0.2919
37114SOL    HW223068   0.274   1.368   2.955 -0.1365  0.5700  0.3045
37115SOL     OW23069   7.846   5.343  10.672  0.1415 -0.0749  0.4017
37115SOL    HW123070   7.935   5.318  10.645  0.0242  0.4365 -0.4862
37115SOL    HW223071   7.789   5.278  10.632 -0.0855  1.0318 -1.1487
37116SOL     OW23072  12.858   1.677  13.244  0.5794 -0.3410 -0.2617
37116SOL    HW123073  12.857   1.623  13.165 -1.3362  0.2495 -0.7062
37116SOL    HW223074  12.861   1.615  13.316 -1.1348 -1.0648 -0.7649
37117SOL     OW23075  12.918   0.922   0.889 -0.9794 -0.0970 -0.2273
37117SOL    HW123076  12.928   0.945   0.796 -0.4686 -1.3538 -0.4936
37117SOL    HW223077  12.827   0.894   0.896 -0.2428 -3.0406 -1.0861
37118SOL     OW23078  10.066   5.901   3.675  0.5565  0.2425 -0.0135
37118SOL    HW123079  10.054   5.966   3.745  0.7953  0.8084 -0.4898
37118SOL    HW223080  10.153   5.919   3.640  0.3054  0.1925 -0.6855
37119SOL     OW23081   0.864  10.010   2.245 -0.0762  0.8764  0.0062
37119SOL    HW123082   0.898   9.979   2.161 -1.0475 -3.0383  0.8803
37119SOL    HW223083   0.770   9.990   2.242  0.3465 -2.4599  3.0742
37120SOL     OW23084   1.008   1.137  13.697 -0.0476  0.1378 -0.6589
37120SOL    HW123085   0.958   1.120  13.617  0.2305 -0.7085 -0.6662
37120SOL    HW223086   1.034   1.229  13.690 -0.8875  0.3579 -1.0477
37121SOL     OW23087  10.290   2.384   1.697  0.7747  0.4296 -0.1155
37121SOL    HW123088  10.378   2.377   1.660  1.6699 -0.1658  1.9438
37121SOL    HW223089  10.255   2.466   1.663  2.0810  0.6296 -1.0432
37122SOL     OW23090  13.063  11.525   2.301  0.9011 -0.1723 -0.1126
37122SOL    HW123091  13.098  11.487   2.382  0.2431 -0.7039 -0.0710
37122SOL    HW223092  13.079  11.458   2.234  0.7832 -0.0427 -0.2715
37123SOL     OW23093   0.416  12.027  12.138 -0.7307 -0.4960  0.1439
37123SOL    HW123094   0.372  12.111  12.125 -0.6139 -0.3269  0.8328
37123SOL    HW223095   0.368  11.966  12.081 -1.8383 -0.3097  0.8542
37124SOL     OW23096   2.208   7.281   3.913  0.1033  0.0022  0.1013
37124SOL    HW123097   2.248   7.282   4.000 -0.8348  2.0033  0.5728
37124SOL    HW223098   2.148   7.356   3.913 -1.6495 -1.2960 -1.4875
37125SOL     OW23099   9.676   3.623   3.724 -0.2191 -0.1562  0.0985
37125SOL    HW123100   9.719   3.707   3.705  1.1203 -0.6894  0.6371
37125SOL    HW223101   9.672   3.619   3.819  0.0330 -0.8475  0.0824
37126SOL     OW23102   4.728   1.602   1.668 -0.1999  0.1286  0.2085
37126SOL    HW123103   4.658   1.551   1.628  0.1926 -0.3983  0.1803
37126SOL    HW223104   4.712   1.595   1.762  0.2466 -0.6375  0.2381
37127SOL     OW23105  12.219   0.761  13.473 -0.4514  0.0724  0.7546
37127SOL    HW123106  12.265   0.682  13.501 -0.5105 -0.1411  0.2596
37127SOL    HW223107  12.134   0.730  13.442 -0.0133  0.1753 -0.6046
37128SOL     OW23108   7.040   3.355   5.126 -0.2596  0.9563  0.6325
37128SOL    HW123109   7.065   3.335   5.036 -0.3845  0.0510  0.7901
37128SOL    HW223110   7.038   3.270   5.170 -2.6708  1.0635  0.8725
37129SOL     OW23111  10.742  11.638   5.693  0.3014  0.2466 -0.7135
37129SOL    HW123112  10.816  11.579   5.706  0.6040  0.8426  0.4871
37129SOL    HW223113  10.755  11.707   5.759 -1.9722 -0.2917  0.4195
37130SOL     OW23114   5.526  12.895   1.354  0.0524  0.5856 -0.5421
37130SOL    HW123115   5.620  12.909   1.349  0.0245  0.6639 -0.8848
37130SOL    HW223116   5.502  12.924   1.442  0.6468 -1.2279  0.2591
37131SOL     OW23117  10.370  11.609   0.572 -0.0391  0.6756 -0.1166
37131SOL    HW123118  10.297  11.669   0.587 -0.6289  0.2747 -1.2899
37131SOL    HW223119  10.444  11.651   0.616  0.0105  3.2001 -2.3358
37132SOL     OW23120   0.982  11.584  10.798  0.0162 -0.5015  0.7067
37132SOL    HW123121   0.900  11.536  10.811 -0.4369  0.6042  2.1422
37132SOL    HW223122   1.049  11.516  10.790 -1.1069 -1.4701 -1.4066
37133SOL     OW23123   4.092   8.509   7.234 -0.3854  0.4044  0.6537
37133SOL    HW123124   4.039   8.452   7.179 -0.2884  0.3722  0.5927
37133SOL    HW223125   4.169   8.530   7.180 -0.3991  0.5550  0.6926
37134SOL     OW23126   1.307   5.299   8.836  0.4592 -0.7383 -0.1559
37134SOL    HW123127   1.295   5.205   8.831 -1.1330 -0.5326 -0.9533
37134SOL    HW223128   1.341   5.315   8.924 -1.5806 -1.8404  0.8944
37135SOL     OW23129   2.673  11.021   8.847  0.1829 -0.5998 -0.1589
37135SOL    HW123130   2.670  11.100   8.901  2.3660 -0.2943 -0.3730
37135SOL    HW223131   2.718  11.049   8.767  0.0546 -1.8196 -0.6747
37136SOL     OW23132  13.608   9.686  12.031  0.5949  0.5327 -0.4174
37136SOL    HW123133  13.657   9.734  11.965  0.7938 -0.3374 -0.9159
37136SOL    HW223134  13.648   9.599  12.033 -1.1603 -0.3612 -1.1508
37137SOL     OW23135   4.052   7.007   9.999  0.2146  0.3063 -0.0822
37137SOL    HW123136   4.032   6.975  10.087  0.7923  1.7611  0.6145
37137SOL    HW223137   3.968   7.035   9.963 -0.2602 -1.6920 -0.6162
37138SOL     OW23138   2.836   9.541   8.025  0.3447 -0.0529 -0.0196
37138SOL    HW123139   2.848   9.577   8.112 -2.4428 -0.0471  0.4338
37138SOL    HW223140   2.873   9.606   7.966  1.6173  0.2633  1.0933
37139SOL     OW23141   9.715  12.131   6.871 -0.3263  0.7623 -0.5663
37139SOL    HW123142   9.803  12.165   6.855 -0.3882  1.0805 -0.2428
37139SOL    HW223143   9.656  12.204   6.851 -0.5485  0.4086 -1.2287
37140SOL     OW23144   7.275   3.575   5.320 -0.0896 -0.4620  0.2244
37140SOL    HW123145   7.316   3.496   5.286 -1.0677 -1.0348  0.3477
37140SOL    HW223146   7.244   3.621   5.241  1.2244  0.2457  0.0894
37141SOL     OW23147   2.132   5.535   5.985  0.1381  1.0808 -0.6129
37141SOL    HW123148   2.123   5.576   5.899 -1.2934  1.2545 -0.4116
37141SOL    HW223149   2.061   5.573   6.037  0.8703  0.8455  0.6009
37142SOL     OW23150   6.561   8.080   5.710  0.2562  0.1710  0.6065
37142SOL    HW123151   6.482   8.130   5.690  1.2326  1.7688  0.5558
37142SOL    HW223152   6.631   8.128   5.667  1.2311 -1.4720  0.2461
37143SOL     OW23153   4.611   3.913   5.934 -0.1473 -0.0304 -0.3989
37143SOL    HW123154   4.692   3.865   5.919 -0.2624  0.1096 -1.5571
37143SOL    HW223155   4.577   3.879   6.017  1.1609  0.0135  0.1774
37144SOL     OW23156   1.698   2.791   3.122  0.0210  0.1884 -0.1431
37144SOL    HW123157   1.652   2.708   3.110  2.5058 -1.2080 -0.6168
37144SOL    HW223158   1.682   2.814   3.214  1.8240 -2.5192  0.9702
37145SOL     OW23159   5.000  10.308   1.323 -0.2941 -0.3230  0.0893
37145SOL    HW123160   4.955  10.291   1.406 -2.8623 -1.0962 -1.3574
37145SOL    HW223161   4.979  10.232   1.269  2.8136 -0.7084 -0.7605
37146SOL     OW23162   2.311   7.848   6.063  0.1707  0.2567 -0.6588
37146SOL    HW123163   2.276   7.783   6.124 -1.2208  1.6370  0.0753
37146SOL    HW223164   2.404   7.828   6.058 -0.0690 -1.2402  0.2142
37147SOL     OW23165   6.161   0.916   0.231  0.5761 -0.1736  0.3250
37147SOL    HW123166   6.099   0.846   0.210  0.5084 -0.3119  0.9762
37147SOL    HW223167   6.152   0.929   0.325 -0.1360  1.4080  0.0669
37148SOL     OW23168   7.832   0.626   6.918  0.3336 -0.0262 -0.0480
37148SOL    HW123169   7.824   0.655   7.009 -0.1625  1.2031 -0.4629
37148SOL    HW223170   7.764   0.559   6.909 -0.8380  1.1122  0.0180
37149SOL     OW23171   8.654   9.101   2.211 -0.3250 -0.0595  0.2165
37149SOL    HW123172   8.730   9.090   2.153 -0.4834  0.3648 -0.0758
37149SOL    HW223173   8.687   9.079   2.298  0.3340  0.7947  0.2029
37150SOL     OW23174   0.535   6.161   2.624 -0.2130 -0.4386  0.2133
37150SOL    HW123175   0.561   6.244   2.664  0.0123 -0.2026 -0.4095
37150SOL    HW223176   0.445   6.176   2.596 -1.3315 -1.4500  2.9078
37151SOL     OW23177   0.049   8.228   2.734 -0.5135 -0.5353  0.2231
37151SOL    HW123178   0.018   8.241   2.645  0.7321 -0.7114 -0.2661
37151SOL    HW223179   0.132   8.181   2.724 -0.5161 -0.8619  1.4917
37152SOL     OW23180   5.809   6.827   9.013 -0.3194 -0.2226 -0.2549
37152SOL    HW123181   5.804   6.757   8.948  1.4460 -0.3320 -0.3260
37152SOL    HW223182   5.866   6.893   8.974  0.1253  0.0734  0.8437
37153SOL     OW23183  12.545   3.614  11.409 -0.2799 -0.0691  0.5586
37153SOL    HW123184  12.585   3.673  11.345 -0.9080  0.0755  0.2926
37153SOL    HW223185  12.451   3.630  11.401 -0.4487 -0.9697  0.6164
37154SOL     OW23186  11.327   1.112   0.413 -0.5093  0.0619 -0.0803
37154SOL    HW123187  11.261   1.180   0.425  0.2593  0.7594  0.3047
37154SOL    HW223188  11.298   1.064   0.335 -1.8419 -0.1049  0.5026
37155SOL     OW23189  11.461   7.977   4.471  0.2766 -0.0250 -0.1136
37155SOL    HW123190  11.467   7.957   4.377 -0.8845 -1.6327  0.1142
37155SOL    HW223191  11.508   7.906   4.514  1.1639  0.9309  0.5335
37156SOL     OW23192  10.886   1.497  11.896 -0.0479 -0.4837  0.3886
37156SOL    HW123193  10.877   1.533  11.984  0.7827 -1.2123  0.7823
37156SOL    HW223194  10.977   1.513  11.872  0.2985 -2.1412  0.5011
37157SOL     OW23195   5.374  12.249  11.015 -0.3147 -0.0106  0.6047
37157SOL    HW123196   5.322  12.312  10.965 -2.5033 -0.6297  1.9448
37157SOL    HW223197   5.367  12.167  10.965 -0.0057  0.0754  0.4176
37158SOL     OW23198   7.161   3.882   9.354  0.0747 -0.1809 -0.1335
37158SOL    HW123199   7.102   3.818   9.316  0.5988 -0.3641 -0.6592
37158SOL    HW223200   7.128   3.897   9.442  0.8087 -2.2986  0.5504
37159SOL     OW23201   8.237   3.133  13.086 -0.0999  0.6056  0.1043
37159SOL    HW123202   8.267   3.208  13.137  1.4459  0.6163 -0.7511
37159SOL    HW223203   8.230   3.166  12.996  2.2738 -0.6008 -0.6259
37160SOL     OW23204   8.659   4.696   6.988  0.0016  0.2833  0.7582
37160SOL    HW123205   8.614   4.702   7.072  0.5606 -1.5966  1.2414
37160SOL    HW223206   8.713   4.775   6.984 -0.6740  0.8104  1.7658
37161SOL     OW23207   0.369  13.387   4.196  0.5135 -0.8837 -0.5832
37161SOL    HW123208   0.358  13.401   4.102 -0.0235 -3.5160 -1.0094
37161SOL    HW223209   0.436  13.318   4.202  3.7185  2.0783  1.2354
37162SOL     OW23210  10.785   8.348   8.989 -0.1208 -0.5045 -0.1807
37162SOL    HW123211  10.881   8.340   8.992 -0.2822 -3.9462 -0.7100
37162SOL    HW223212  10.754   8.260   8.971 -3.4779  0.4180  0.4342
37163SOL     OW23213   2.197  13.157   7.111 -0.4674 -0.3677 -0.4456
37163SOL    HW123214   2.286  13.191   7.125 -1.1284  1.5072 -0.3966
37163SOL    HW223215   2.158  13.156   7.199 -0.8166 -0.1275 -0.5928
37164SOL     OW23216   5.598   3.576   7.310  0.1641  0.3690  0.2070
37164SOL    HW123217   5.577   3.654   7.259  0.3311  0.4075  0.1984
37164SOL    HW223218   5.545   3.507   7.269  1.7714 -0.0456 -1.3050
37165SOL     OW23219  11.390   1.247   6.170 -0.0400 -0.0153 -0.4413
37165SOL    HW123220  11.394   1.253   6.074  0.1370 -3.1494 -0.7353
37165SOL    HW223221  11.322   1.183   6.187  1.2253 -0.9484  1.4354
37166SOL     OW23222   3.373   8.992  13.663 -0.0230 -0.1799  0.0326
37166SOL    HW123223   3.421   9.062  13.708  0.1606 -0.4413  0.2485
37166SOL    HW223224   3.403   8.911  13.705 -2.7061 -0.2241  2.1258
37167SOL     OW23225   7.013  10.420   7.527 -0.4553  0.1596  0.0267
37167SOL    HW123226   6.982  10.338   7.567 -2.3941 -0.0491 -1.7023
37167SOL    HW223227   7.070  10.391   7.455  1.4436  0.4734  1.3472
37168SOL     OW23228   2.533   3.511   7.479 -0.3174 -0.1950  0.3899
37168SOL    HW123229   2.536   3.597   7.522 -0.2586 -0.3830  0.7711
37168SOL    HW223230   2.520   3.530   7.386 -1.8023  0.1931  0.6578
37169SOL     OW23231   0.559   1.494   2.505 -0.3931  0.3270 -0.0262
37169SOL    HW123232   0.477   1.448   2.492 -0.1810  0.1928 -0.9626
37169SOL    HW223233   0.535   1.573   2.554 -1.6436  2.0016 -3.0832
37170SOL     OW23234   1.394   2.872   9.279  0.1819  0.1190  0.2122
37170SOL    HW123235   1.312   2.919   9.295  1.3679  2.3570  0.0989
37170SOL    HW223236   1.440   2.875   9.363  0.8935  0.4712 -0.1762
37171SOL     OW23237   8.021  11.269  11.896 -0.0855 -0.3555 -0.1096
37171SOL    HW123238   7.978  11.232  11.819  0.6604 -0.5941 -0.4138
37171SOL    HW223239   8.060  11.193  11.940  0.6438 -0.0497 -0.2286
37172SOL     OW23240   4.859   4.699   7.214 -0.0666  0.4458  0.0135
37172SOL    HW123241   4.907   4.628   7.258 -0.3669  0.9524  1.1943
37172SOL    HW223242   4.851   4.767   7.281 -1.2695  0.9086 -0.5820
37173SOL     OW23243   6.513   3.088  10.368 -0.3976 -0.0629 -0.2053
37173SOL    HW123244   6.606   3.068  10.379 -0.5863 -0.4796  0.7365
37173SOL    HW223245   6.494   3.062  10.278  0.6845  1.2424 -0.8521
37174SOL     OW23246  10.753   3.549   4.640 -0.2510  0.6274 -0.1349
37174SOL    HW123247  10.801   3.516   4.564 -0.0965 -1.5598  0.8634
37174SOL    HW223248  10.702   3.623   4.605  0.4293  0.2003 -2.1730
37175SOL     OW23249   5.101   4.230  10.412 -0.2993  0.0316  0.1009
37175SOL    HW123250   5.110   4.260  10.502 -0.6246  2.2699 -0.5514
37175SOL    HW223251   5.190   4.218  10.381 -0.1257  0.8556  0.2527
37176SOL     OW23252   1.097   6.147   7.812  0.3371  0.3243  0.4371
37176SOL    HW123253   1.191   6.161   7.806  0.7406 -2.0020  0.3765
37176SOL    HW223254   1.062   6.230   7.845  2.0578  2.1252 -1.9116
37177SOL     OW23255   3.768  12.080  10.928  0.1676 -0.3811  0.3713
37177SOL    HW123256   3.860  12.062  10.905  0.3392 -0.5642  1.1777
37177SOL    HW223257   3.722  12.077  10.844  0.9533  0.0605 -0.0880
37178SOL     OW23258  12.074  10.709   8.497  0.0971 -0.3081  0.4538
37178SOL    HW123259  12.002  10.771   8.486  0.3196  0.0456  0.9598
37178SOL    HW223260  12.110  10.698   8.408 -1.7015 -1.8985 -0.1443
37179SOL     OW23261  12.142  13.355  12.407  0.5691  0.3161  0.0408
37179SOL    HW123262  12.155  13.449  12.416  0.7095  0.3140 -0.1292
37179SOL    HW223263  12.204  13.315  12.468  1.5039  0.3004 -0.8822
37180SOL     OW23264   7.450   8.640   3.593 -0.6845 -0.0948  0.2444
37180SOL    HW123265   7.400   8.652   3.674  0.3938  0.7107  0.8148
37180SOL    HW223266   7.454   8.727   3.554 -0.3335 -0.2907 -0.1610
37181SOL     OW23267  13.256   0.697  10.844 -0.2659 -0.1564 -0.6687
37181SOL    HW123268  13.203   0.710  10.765 -1.0583 -0.6169 -0.2253
37181SOL    HW223269  13.247   0.604  10.864  0.9078 -0.2936 -0.7085
37182SOL     OW23270   4.825   1.037  12.520 -0.0612 -1.3137 -0.1057
37182SOL    HW123271   4.768   0.979  12.469 -0.9554 -1.4167  0.9865
37182SOL    HW223272   4.901   0.983  12.541 -0.6025 -1.9191  0.3684
37183SOL     OW23273  13.001  13.251   0.684 -0.5573  0.1873  0.1473
37183SOL    HW123274  13.060  13.305   0.630  1.0581 -0.6391  1.0120
37183SOL    HW223275  12.941  13.314   0.724  0.6046  1.2355  0.3009
37184SOL     OW23276   8.694   4.522   8.023 -0.4711  0.2776  0.0032
37184SOL    HW123277   8.634   4.449   8.038  0.3753 -0.9167 -2.0589
37184SOL    HW223278   8.780   4.482   8.017  0.2100  1.6330  0.2026
37185SOL     OW23279   0.629   0.692   6.009  0.5293 -0.0383 -0.1490
37185SOL    HW123280   0.624   0.655   5.921 -0.1454  2.3595 -1.2078
37185SOL    HW223281   0.537   0.698   6.037  0.7565 -1.1163  0.9048
37186SOL     OW23282   8.236  10.253  10.823 -0.0194  0.3135  0.0640
37186SOL    HW123283   8.300  10.183  10.836 -0.2770  0.0002 -0.3222
37186SOL    HW223284   8.157  10.222  10.868 -0.3270  0.0718 -0.6303
37187SOL     OW23285   5.024  13.292   6.848 -0.2600  0.2082  0.5634
37187SOL    HW123286   5.051  13.375   6.808 -1.3871 -0.2115 -1.1863
37187SOL    HW223287   5.100  13.235   6.839 -0.1938  0.4045 -0.1944
37188SOL     OW23288   3.823   4.167  13.076  0.5139 -0.4722  0.8567
37188SOL    HW123289   3.780   4.233  13.130  2.7797  1.6123  0.2627
37188SOL    HW223290   3.881   4.121  13.137  1.3612  0.3334  0.6797
37189SOL     OW23291   7.698   8.635   6.577 -0.1730 -0.5442 -0.1843
37189SOL    HW123292   7.663   8.559   6.624  0.9758 -0.6413  0.5678
37189SOL    HW223293   7.687   8.614   6.484  0.5200 -1.8417  0.0078
37190SOL     OW23294  10.912   8.200  11.908 -0.4259  0.7362  0.5199
37190SOL    HW123295  10.847   8.253  11.861 -0.6102 -1.2386 -1.6408
37190SOL    HW223296  10.861   8.136  11.957 -0.1697  0.4328  0.3955
37191SOL     OW23297   3.733  11.366   0.042  0.0840  0.4297 -0.0424
37191SOL    HW123298   3.731  11.270   0.039  1.6339  0.3526  0.7144
37191SOL    HW223299   3.698  11.388   0.128  2.2699  0.3833  0.9161
37192SOL     OW23300   0.090  11.529   2.857  0.0262  0.6617  0.4975
37192SOL    HW123301   0.018  11.581   2.891 -0.6447  0.9639 -1.2549
37192SOL    HW223302   0.115  11.573   2.776  0.5720 -0.7906 -0.1652
37193SOL     OW23303   1.546  12.791   0.739  0.3472  0.7642  0.1570
37193SOL    HW123304   1.487  12.848   0.787 -0.2288 -0.9054  1.5338
37193SOL    HW223305   1.629  12.797   0.785  0.0249 -0.1900  0.9010
37194SOL     OW23306   0.680   3.484   6.446 -0.6584  0.1721 -0.4969
37194SOL    HW123307   0.628   3.417   6.401 -0.0501  0.8384 -2.2776
37194SOL    HW223308   0.756   3.497   6.390  0.5820  0.4733  1.1762
37195SOL     OW23309   1.551   8.365   1.283 -0.5688  0.3087 -0.4419
37195SOL    HW123310   1.484   8.432   1.270 -2.1218 -0.4108  2.8207
37195SOL    HW223311   1.502   8.282   1.280  1.0903 -0.6745 -3.0747
37196SOL     OW23312   7.323   6.656   6.014  0.2865  0.3097  0.6016
37196SOL    HW123313   7.283   6.569   6.014  0.5145  0.1846 -0.5602
37196SOL    HW223314   7.413   6.641   6.041  0.3589  0.1628  0.2827
37197SOL     OW23315  11.499   0.883  11.160 -0.1707  0.1784  0.4609
37197SOL    HW123316  11.485   0.892  11.066 -2.3195 -1.6861  0.5056
37197SOL    HW223317  11.593   0.866  11.169  0.2255  1.2258 -1.2309
37198SOL     OW23318   2.476   6.971  11.084 -0.1296  0.1638 -0.5647
37198SOL    HW123319   2.395   6.931  11.053  0.1058  1.1619 -2.6864
37198SOL    HW223320   2.534   6.970  11.008  1.7775 -0.2492  0.8112
37199SOL     OW23321   7.312   6.123  12.425 -0.1017  0.0853 -0.2807
37199SOL    HW123322   7.305   6.056  12.357 -1.7771 -1.4649  1.2820
37199SOL    HW223323   7.262   6.197  12.391 -2.1011 -1.1703 -0.2607
37200SOL     OW23324  12.244  12.015   3.642 -0.6178 -0.2739  0.1609
37200SOL    HW123325  12.154  12.047   3.643 -0.5289 -0.0261  0.9687
37200SOL    HW223326  12.259  11.989   3.552 -1.2950  0.2672 -0.1183
37201SOL     OW23327   9.865  13.131  11.013 -0.0090  0.1928 -0.1714
37201SOL    HW123328   9.806  13.109  11.084 -0.7388  0.7603 -0.5945
37201SOL    HW223329   9.817  13.193  10.959  1.4961  1.7873  0.2316
37202SOL     OW23330  11.506  10.527  10.995 -0.2423  0.0940  0.3325
37202SOL    HW123331  11.517  10.542  10.901  0.0611  0.6268  0.4519
37202SOL    HW223332  11.441  10.457  11.000  0.7246 -0.8862 -0.3050
37203SOL     OW23333   9.906   8.978  10.798  0.1399  0.3306  0.1862
37203SOL    HW123334   9.888   9.069  10.819  1.8729  0.8625 -0.3891
37203SOL    HW223335   9.884   8.970  10.705  3.6882  1.3652 -0.9134
37204SOL     OW23336   9.841   9.245   0.940  0.0681 -0.2670 -0.2548
37204SOL    HW123337   9.900   9.291   0.999  0.5010 -0.9827 -0.1119
37204SOL    HW223338   9.896   9.176   0.901 -0.1684  0.2758 -1.5985
37205SOL     OW23339  13.223  10.721  10.802 -0.2581 -0.4000 -0.1857
37205SOL    HW123340  13.231  10.643  10.746  0.0691  0.3012 -1.1523
37205SOL    HW223341  13.299  10.716  10.860  0.3798 -0.2373 -0.9894
37206SOL     OW23342   2.127   6.535   0.281  0.0181  0.0918  0.3442
37206SOL    HW123343   2.050   6.564   0.330 -0.2960  1.6621 -1.0055
37206SOL    HW223344   2.141   6.602   0.215  0.6794 -1.7191 -1.4659
37207SOL     OW23345   7.777  12.700  13.438 -0.0617  0.6235  0.4094
37207SOL    HW123346   7.827  12.649  13.374 -0.3081  0.9291 -0.0336
37207SOL    HW223347   7.689  12.662  13.437 -1.1499  2.8388 -2.1183
37208SOL     OW23348  13.537   7.947   7.484  0.0879 -0.4547 -0.3344
37208SOL    HW123349  13.577   7.860   7.484  2.5600  0.5745  0.5851
37208SOL    HW223350  13.453   7.935   7.527  0.6954 -2.2826  0.4332
37209SOL     OW23351   4.405   3.406   1.339 -0.2375  0.2118 -0.7032
37209SOL    HW123352   4.385   3.318   1.306  2.3553 -0.3770 -0.9823
37209SOL    HW223353   4.408   3.461   1.260  0.9777 -0.1224 -0.9222
37210SOL     OW23354   6.596  11.477   0.477 -0.0598  0.0801 -0.0858
37210SOL    HW123355   6.585  11.501   0.385 -0.3110  0.0981 -0.0499
37210SOL    HW223356   6.684  11.438   0.481  0.2148  0.6716 -0.2137
37211SOL     OW23357   9.975  11.008   0.193 -0.9145  0.2455 -0.1851
37211SOL    HW123358   9.907  11.067   0.225 -0.2931  0.1255  1.4913
37211SOL    HW223359  10.047  11.020   0.254  0.1642 -0.4321 -1.2824
37212SOL     OW23360   9.955  13.717  10.454  0.0443 -0.4906  0.3051
37212SOL    HW123361   9.916  13.804  10.458  0.5388 -0.1927 -0.9438
37212SOL    HW223362   9.886  13.662  10.416 -0.2595 -0.6627  1.0708
37213SOL     OW23363   4.171   4.465   7.762 -0.0252  0.4103 -0.2520
37213SOL    HW123364   4.263   4.485   7.746 -0.0162 -0.3896 -1.3383
37213SOL    HW223365   4.130   4.468   7.675 -0.9479  0.3953  0.1671
37214SOL     OW23366  12.352   9.137   0.563  0.7373  0.1241 -0.6399
37214SOL    HW123367  12.323   9.066   0.506 -0.3626  0.0562 -0.0200
37214SOL    HW223368  12.391   9.201   0.504  1.4323 -0.8390 -1.2400
37215SOL     OW23369  11.273   1.698   6.130  0.3199 -0.1390 -0.4609
37215SOL    HW123370  11.286   1.785   6.094 -0.8709  1.5513  2.7589
37215SOL    HW223371  11.344   1.687   6.193 -0.7367 -0.4954  0.7300
37216SOL     OW23372   0.947  13.083   9.227  0.3148  0.1805  0.3630
37216SOL    HW123373   0.994  13.067   9.309  1.1412  0.6407 -0.0067
37216SOL    HW223374   0.870  13.027   9.232  0.6135 -0.1679  1.2378
37217SOL     OW23375   0.925   8.462   4.945  0.5579  0.3306  0.0931
37217SOL    HW123376   1.003   8.488   4.896  0.0125 -0.5934 -1.3065
37217SOL    HW223377   0.858   8.524   4.916 -0.0599 -0.9170 -1.2386
37218SOL     OW23378   5.317  13.432  13.290  0.2235  0.1013  0.2632
37218SOL    HW123379   5.398  13.384  13.272  0.1688  0.5639 -1.3487
37218SOL    HW223380   5.250  13.383  13.241  0.1153  1.5925 -1.1544
37219SOL     OW23381   7.598   6.972  10.340  0.0000 -0.0390 -0.2852
37219SOL    HW123382   7.610   6.948  10.432  1.4091  0.1877 -0.3945
37219SOL    HW223383   7.632   7.061  10.333  0.5305 -0.2938 -1.1532
37220SOL     OW23384   6.235   3.323  11.617  0.1249  0.1488  0.6828
37220SOL    HW123385   6.256   3.321  11.711 -0.5876  0.1493  0.8526
37220SOL    HW223386   6.213   3.232  11.596 -0.6379  0.3105  0.7467
37221SOL     OW23387   9.255  11.815   3.257  0.0747  0.1833  0.0074
37221SOL    HW123388   9.215  11.732   3.232 -0.6814  0.5510 -0.0483
37221SOL    HW223389   9.340  11.816   3.212  1.3462 -1.7642  2.1733
37222SOL     OW23390   9.004   5.002   5.039  0.1885 -0.0838 -0.1808
37222SOL    HW123391   9.082   4.951   5.015 -0.5654 -1.6170  0.4633
37222SOL    HW223392   8.931   4.943   5.023 -0.8867  1.3857 -0.9194
37223SOL     OW23393   8.695   1.826   6.200 -0.2615 -0.8981 -0.0417
37223SOL    HW123394   8.782   1.835   6.162  1.1070 -0.8512  2.8644
37223SOL    HW223395   8.636   1.862   6.133  2.0565  0.3546 -1.5362
37224SOL     OW23396   7.237  10.519  11.223  0.6016 -0.2791 -0.6406
37224SOL    HW123397   7.205  10.469  11.298  0.9078  0.5772  0.0878
37224SOL    HW223398   7.159  10.550  11.179  0.3897  0.7929  0.4308
37225SOL     OW23399   2.796   9.145   7.155 -0.3556 -0.3233 -0.5862
37225SOL    HW123400   2.856   9.179   7.088  1.2054 -1.1731  0.3320
37225SOL    HW223401   2.712   9.137   7.109  0.0182  1.5931 -1.7171
37226SOL     OW23402   2.085   0.511   7.248  0.1748  0.3090  0.1897
37226SOL    HW123403   2.009   0.545   7.201 -0.7436 -0.4306  1.0832
37226SOL    HW223404   2.088   0.563   7.328  0.0515 -0.2530  0.5691
37227SOL     OW23405   9.035  11.215   7.952  0.1436  0.8055 -0.0962
37227SOL    HW123406   9.016  11.302   7.916  0.0327  0.1934 -1.5982
37227SOL    HW223407   8.983  11.155   7.899 -0.8660 -0.0904  1.8135
37228SOL     OW23408   7.745   5.100   6.832  0.2345  0.0733  0.1639
37228SOL    HW123409   7.814   5.072   6.892 -1.0183 -1.5468  0.9190
37228SOL    HW223410   7.746   5.035   6.762  0.4323  0.8915 -0.6114
37229SOL     OW23411   0.531   5.272  13.721  0.9956 -0.5788 -0.0135
37229SOL    HW123412   0.507   5.364  13.722 -1.1842 -1.0957 -0.1942
37229SOL    HW223413   0.520   5.246  13.629 -2.4050 -1.9089  0.6425
37230SOL     OW23414   0.600   5.294   6.380  0.2969  0.1449  0.0168
37230SOL    HW123415   0.593   5.378   6.335 -0.5455  0.2781  0.3643
37230SOL    HW223416   0.618   5.318   6.471 -2.6441  0.1124  0.6979
37231SOL     OW23417  10.106   2.564  13.411 -0.0450 -0.0843  0.0367
37231SOL    HW123418  10.157   2.500  13.460 -1.1691 -1.0652 -0.0457
37231SOL    HW223419  10.126   2.648  13.453  1.1367 -0.5202  0.3934
37232SOL     OW23420   2.774  11.229   6.841 -0.2293 -0.1938 -0.4643
37232SOL    HW123421   2.706  11.162   6.854 -1.5414  0.8677 -1.5116
37232SOL    HW223422   2.784  11.270   6.927 -0.7174 -0.5381 -0.2372
37233SOL     OW23423   4.409   1.102   0.010  0.1493  0.7568 -0.5307
37233SOL    HW123424   4.359   1.158  -0.050  0.3541  0.0729 -1.3635
37233SOL    HW223425   4.344   1.068   0.071 -0.2077  0.7883 -0.8919
37234SOL     OW23426  11.109   9.607   4.510  0.6177 -0.0189 -0.1278
37234SOL    HW123427  11.131   9.592   4.418  0.0463  1.1647 -0.4847
37234SOL    HW223428  11.172   9.556   4.559  2.2761  0.9602 -1.1531
37235SOL     OW23429  12.455   1.683   5.021  0.1432  0.2247  0.5659
37235SOL    HW123430  12.411   1.766   5.039 -2.4366 -1.0133  0.3280
37235SOL    HW223431  12.452   1.675   4.925 -2.5157 -1.5064  0.6857
37236SOL     OW23432  10.819   8.367   8.012 -0.2025  0.4224 -0.3629
37236SOL    HW123433  10.890   8.315   7.975 -0.5034 -0.1245 -0.1865
37236SOL    HW223434  10.740   8.329   7.975 -0.4201  0.8484 -0.3408
37237SOL     OW23435  12.825   7.995   8.994 -0.1417 -0.6505  0.2737
37237SOL    HW123436  12.768   7.920   8.975  0.2441 -1.3109  1.5780
37237SOL    HW223437  12.878   7.966   9.069 -0.9134  1.3865  1.6938
37238SOL     OW23438   9.542   5.167   0.541  0.1915  0.8527  0.0702
37238SOL    HW123439   9.495   5.103   0.594  3.2402  0.4579  2.6339
37238SOL    HW223440   9.588   5.114   0.475  0.1521  0.7715  0.1073
37239SOL     OW23441   0.938  10.346   1.902  0.1332  0.1187  0.1110
37239SOL    HW123442   0.884  10.267   1.898  0.6182 -0.2339  0.5444
37239SOL    HW223443   1.014  10.322   1.955  0.8900  0.5127 -0.7531
37240SOL     OW23444   8.795   1.802   4.872 -0.3961  0.2897  0.5270
37240SOL    HW123445   8.733   1.779   4.803  1.9002 -0.4490 -1.4468
37240SOL    HW223446   8.773   1.893   4.895 -0.9120  0.7621 -1.5901
37241SOL     OW23447   9.930   9.439  10.335  0.5864  0.0338  0.6656
37241SOL    HW123448  10.020   9.466  10.317  0.3979  0.5037  0.3918
37241SOL    HW223449   9.894   9.419  10.248  0.5181 -0.4381  0.8049
37242SOL     OW23450   0.654  13.459   3.909 -0.3229 -0.0199  0.1554
37242SOL    HW123451   0.652  13.540   3.859 -1.6829 -0.7902 -1.1209
37242SOL    HW223452   0.734  13.465   3.962 -0.9956  2.6476  1.0011
37243SOL     OW23453   4.122   7.175  12.369 -0.3187  0.3607 -0.5815
37243SOL    HW123454   4.207   7.215  12.389  0.5626 -1.9973  0.8488
37243SOL    HW223455   4.088   7.227  12.296  1.8019  2.1178 -0.4381
37244SOL     OW23456   1.273   3.450   5.768  0.2545  0.2207  0.2036
37244SOL    HW123457   1.311   3.363   5.778  0.4832  0.2163 -0.6300
37244SOL    HW223458   1.245   3.454   5.676 -0.8515  0.5911  0.5348
37245SOL     OW23459  10.452   5.904  10.172  0.6452  0.3361  0.7139
37245SOL    HW123460  10.451   5.894  10.076  0.3268  0.4804  0.6988
37245SOL    HW223461  10.363   5.931  10.193  0.8893  0.9473  0.9792
37246SOL     OW23462   8.725  13.736  11.667 -0.3373 -0.5109  0.5532
37246SOL    HW123463   8.761  13.772  11.748  1.2279  4.2074 -1.8811
37246SOL    HW223464   8.796  13.682  11.631 -0.2118 -0.8044  1.2236
37247SOL     OW23465   1.676   1.240   0.885 -0.0883 -0.6802  0.2123
37247SOL    HW123466   1.692   1.145   0.892  1.5445 -0.2983  4.0178
37247SOL    HW223467   1.611   1.258   0.953  2.7664  1.3893  2.6239
37248SOL     OW23468   8.301  10.397  10.462  0.1108 -0.1942 -0.2238
37248SOL    HW123469   8.298  10.319  10.406 -0.8910  0.1441 -0.6659
37248SOL    HW223470   8.209  10.419  10.478  0.3797  0.1787  0.9263
37249SOL     OW23471  11.857   6.620   5.592  0.0273  0.0766  0.0051
37249SOL    HW123472  11.848   6.526   5.577 -1.0923  0.1335  0.2293
37249SOL    HW223473  11.812   6.660   5.517  0.8488  0.4543 -0.3073
37250SOL     OW23474   2.405   4.809   3.674 -0.5065  0.1252  0.1525
37250SOL    HW123475   2.379   4.898   3.699  0.3708  0.1838  0.9190
37250SOL    HW223476   2.499   4.806   3.692 -0.3217 -0.6256 -0.8824
37251SOL     OW23477  11.160   3.603   3.607  0.3676  0.0366 -0.1359
37251SOL    HW123478  11.192   3.538   3.545 -1.2305 -0.5648 -0.3678
37251SOL    HW223479  11.090   3.649   3.560 -0.5134 -0.0761  1.0141
37252SOL     OW23480   9.284  10.586   0.015  0.7468  0.2070 -0.1611
37252SOL    HW123481   9.278  10.533  -0.064 -1.0008 -1.1411  0.8028
37252SOL    HW223482   9.304  10.674  -0.016  0.6404 -0.3994 -2.0501
37253SOL     OW23483   3.091   7.846   9.545 -0.2130 -1.1212  0.1040
37253SOL    HW123484   3.019   7.806   9.594 -0.3444 -1.2916 -0.2198
37253SOL    HW223485   3.165   7.846   9.605 -0.4857 -0.9477  0.4408
37254SOL     OW23486   8.455   8.993   8.797 -0.4468  0.2086 -0.7350
37254SOL    HW123487   8.406   8.947   8.864 -0.6954  2.3323  0.6413
37254SOL    HW223488   8.391   9.052   8.756  0.3266  1.0444 -0.7880
37255SOL     OW23489  10.777   2.677   4.453 -0.0526 -0.1346  0.3200
37255SOL    HW123490  10.766   2.719   4.367  1.8577  1.8469  0.9467
37255SOL    HW223491  10.777   2.583   4.434  0.3216  0.2561 -1.8635
37256SOL     OW23492   5.018   0.063   1.442  0.1697 -0.2916 -0.1982
37256SOL    HW123493   5.062   0.024   1.366  0.0455 -0.0760 -0.3824
37256SOL    HW223494   5.030   0.158   1.430 -0.5748 -0.2178 -0.3898
37257SOL     OW23495  12.046  13.628   0.400 -0.7318 -0.2466  0.4973
37257SOL    HW123496  11.974  13.602   0.458 -1.6262  1.4484  0.1964
37257SOL    HW223497  12.035  13.722   0.388  1.6038  0.0978  0.5188
37258SOL     OW23498  13.473  11.646   5.822 -0.0175  0.1724 -0.1166
37258SOL    HW123499  13.382  11.674   5.819 -0.4878 -1.2068  0.4460
37258SOL    HW223500  13.518  11.713   5.874 -0.8448  0.5208  0.1546
37259SOL     OW23501   4.711  11.678   3.384  0.3326 -0.0073 -1.5933
37259SOL    HW123502   4.648  11.736   3.426  1.2757 -0.7075  0.9884
37259SOL    HW223503   4.677  11.590   3.400  0.4614 -0.2871 -2.7982
37260SOL     OW23504   6.359  11.417   1.724 -0.3237 -0.1965 -0.2901
37260SOL    HW123505   6.354  11.511   1.740  0.1985  0.0369 -1.3523
37260SOL    HW223506   6.436  11.389   1.773  0.0554  0.1118 -0.6940
37261SOL     OW23507   8.037   9.642   1.404 -0.6831 -0.3405  0.2315
37261SOL    HW123508   7.960   9.644   1.460 -1.5668 -1.6339 -0.8623
37261SOL    HW223509   8.014   9.695   1.328  0.4537  1.2882  0.9764
37262SOL     OW23510   1.274  13.037   9.814 -0.3102 -0.2266  0.1642
37262SOL    HW123511   1.324  12.988   9.879 -1.4447 -0.2954  1.0266
37262SOL    HW223512   1.220  12.970   9.771 -1.6935  0.1982  1.1859
37263SOL     OW23513   7.245  11.024  11.726  0.0820 -0.2950  0.4007
37263SOL    HW123514   7.240  11.118  11.708 -2.3240 -0.2133  1.1972
37263SOL    HW223515   7.307  10.991  11.661 -0.8008  1.4734 -1.4641
37264SOL     OW23516   7.003  11.008   4.221 -0.1806 -0.2888  0.3558
37264SOL    HW123517   6.913  10.978   4.232 -0.4147  0.7413  1.5058
37264SOL    HW223518   6.996  11.087   4.168  0.1331 -0.6527 -0.2311
37265SOL     OW23519   5.093  12.310   0.592 -0.8066 -0.2585 -0.8657
37265SOL    HW123520   5.176  12.270   0.566 -0.7792  0.3427 -1.7485
37265SOL    HW223521   5.120  12.386   0.644 -0.7755  0.3309 -1.7280
37266SOL     OW23522   2.218   4.078   5.629 -0.0939 -0.5914  0.6553
37266SOL    HW123523   2.235   4.166   5.662 -0.1672 -0.4198  0.2429
37266SOL    HW223524   2.264   4.074   5.545 -2.9994  0.3319 -1.1269
37267SOL     OW23525   3.169   6.866   1.745 -0.2699  0.0922  0.0028
37267SOL    HW123526   3.080   6.877   1.711 -0.7105 -0.3766  0.9764
37267SOL    HW223527   3.167   6.906   1.832  0.0745 -1.1471  0.6032
37268SOL     OW23528  13.112   5.040  10.331  0.0839 -0.0306  0.6817
37268SOL    HW123529  13.100   5.036  10.236 -0.8721 -0.1058  0.7921
37268SOL    HW223530  13.053   5.110  10.359  1.8978  1.4181  1.0023
37269SOL     OW23531  11.601   4.116   5.383 -0.1480  0.2231  0.1921
37269SOL    HW123532  11.539   4.088   5.451  0.3762  1.6130  1.3089
37269SOL    HW223533  11.561   4.087   5.301 -1.3262 -0.6018  1.0125
37270SOL     OW23534   8.101  12.020   1.827 -0.2974  0.1425  0.0860
37270SOL    HW123535   8.067  11.932   1.842 -0.1349  0.3194  1.5852
37270SOL    HW223536   8.182  12.007   1.778  0.8365 -0.7035  2.0979
37271SOL     OW23537   7.992   2.754   3.176  0.0347  0.8301 -0.8489
37271SOL    HW123538   7.972   2.696   3.102  2.5371 -0.5715 -0.5169
37271SOL    HW223539   7.965   2.841   3.146  1.1174  0.3379 -3.5044
37272SOL     OW23540   4.065  11.403   3.238 -0.6443 -0.8594 -0.2796
37272SOL    HW123541   4.138  11.459   3.211 -1.8903  0.5399 -0.8822
37272SOL    HW223542   4.106  11.319   3.259  1.5376  0.6498  2.1147
37273SOL     OW23543  12.751   9.430   7.783  0.0314 -0.2658 -0.4484
37273SOL    HW123544  12.802   9.470   7.713 -0.8129  0.7851 -0.4786
37273SOL    HW223545  12.682   9.382   7.737  0.9980 -1.7683 -0.4112
37274SOL     OW23546   3.219   8.364   3.491  0.5108 -0.2294  0.8805
37274SOL    HW123547   3.312   8.381   3.507  0.9630 -2.3612  0.7300
37274SOL    HW223548   3.203   8.278   3.528 -1.2074 -0.2936  0.0916
37275SOL     OW23549   9.294   5.785  11.990 -0.0464  0.0246  0.3475
37275SOL    HW123550   9.389   5.775  11.988  0.0281  0.7760 -0.4559
37275SOL    HW223551   9.279   5.872  12.026 -0.4284  0.0011  0.2560
37276SOL     OW23552  10.758   8.514  12.780 -0.2030  0.2091 -0.0372
37276SOL    HW123553  10.709   8.433  12.798 -2.1059  1.5466  1.1525
37276SOL    HW223554  10.847   8.484  12.759 -0.4229 -2.1082  1.9203
37277SOL     OW23555   7.152  12.258  10.659  0.4571 -0.4058 -0.3643
37277SOL    HW123556   7.065  12.220  10.668  0.0830  0.8713  2.1824
37277SOL    HW223557   7.212  12.185  10.675 -0.2175 -0.7026  0.9490
37278SOL     OW23558   3.843   0.453   0.688  0.4722 -0.1072 -0.3373
37278SOL    HW123559   3.871   0.374   0.734 -1.8031  0.5362  2.4724
37278SOL    HW223560   3.764   0.427   0.641  1.2570 -0.0912 -1.7175
37279SOL     OW23561  13.401   0.873   5.339  0.3814 -0.5014  0.3973
37279SOL    HW123562  13.486   0.914   5.319  0.9739 -0.5761  2.5523
37279SOL    HW223563  13.419   0.779   5.336  0.4972 -0.5134  1.2649
37280SOL     OW23564   8.959   4.624   6.876  0.3905 -0.5901 -0.0839
37280SOL    HW123565   9.005   4.579   6.805 -0.1791 -1.0467 -0.1710
37280SOL    HW223566   8.928   4.705   6.836  0.1616 -0.7985 -0.3330
37281SOL     OW23567   6.936   4.912   7.867 -0.1566  0.1887  0.0955
37281SOL    HW123568   6.965   4.835   7.916  0.9543  0.5378  0.0096
37281SOL    HW223569   6.841   4.914   7.879 -0.1995 -1.1880  0.0942
37282SOL     OW23570   4.783   3.960  11.614 -0.1085  0.8599  0.2042
37282SOL    HW123571   4.849   3.916  11.667 -0.1765  0.5153  0.0117
37282SOL    HW223572   4.779   3.908  11.534 -2.5815 -0.8527  1.2923
37283SOL     OW23573   1.317   7.934   0.953 -0.1038  0.4705 -0.1356
37283SOL    HW123574   1.337   7.928   0.860  0.3853  1.1400 -0.0823
37283SOL    HW223575   1.253   7.865   0.968 -0.5773  0.6910 -1.0699
37284SOL     OW23576   6.498  12.202   8.343  0.1693 -0.4892  0.3094
37284SOL    HW123577   6.436  12.233   8.409 -0.1796  0.5725 -0.4827
37284SOL    HW223578   6.569  12.162   8.392  0.6359  1.5737  1.4016
37285SOL     OW23579   2.485   9.306   4.542 -0.1026  0.3329  0.0491
37285SOL    HW123580   2.562   9.260   4.509  0.5509  1.3982  0.0563
37285SOL    HW223581   2.466   9.263   4.625  1.3723  0.9831  0.7553
37286SOL     OW23582   8.829   5.020  12.269 -0.4663  0.4041 -0.2560
37286SOL    HW123583   8.881   5.090  12.229  0.0512  0.5575  0.6509
37286SOL    HW223584   8.822   4.953  12.201  1.0363  0.3210 -0.3692
37287SOL     OW23585   1.104   2.987  11.498 -0.4215 -0.6593  0.2623
37287SOL    HW123586   1.113   2.896  11.526 -0.4966 -0.8661 -0.3899
37287SOL    HW223587   1.021   2.989  11.450 -0.0494 -0.4155 -0.3806
37288SOL     OW23588   3.987   8.512   5.502  0.4336  0.1683  0.0481
37288SOL    HW123589   3.922   8.583   5.496  1.9507  1.5980 -0.1872
37288SOL    HW223590   3.934   8.433   5.516 -1.3953  1.1513 -0.8751
37289SOL     OW23591   0.537  10.425  10.029 -0.3230  0.1438  0.4635
37289SOL    HW123592   0.522  10.435   9.935 -1.8628 -0.8936  0.5629
37289SOL    HW223593   0.501  10.505  10.068 -0.9316 -0.0330  0.2726
37290SOL     OW23594   9.744   8.210   4.256  0.1852 -0.1178  0.2311
37290SOL    HW123595   9.825   8.227   4.208  0.7349  0.8002  1.4036
37290SOL    HW223596   9.682   8.179   4.190  1.9131 -2.3896 -0.4685
37291SOL     OW23597   4.129   4.553   0.507  0.7974  0.0114  0.3241
37291SOL    HW123598   4.090   4.496   0.573  0.0595 -0.4934 -0.5273
37291SOL    HW223599   4.223   4.541   0.518  0.6602 -1.1914  0.3163
37292SOL     OW23600  12.247   3.254  13.304  0.3523  1.0561 -0.0154
37292SOL    HW123601  12.278   3.191  13.370 -2.7443 -0.0480  0.5586
37292SOL    HW223602  12.208   3.325  13.354 -0.6424  0.9611 -0.6189
37293SOL     OW23603   1.295   6.744   1.628 -0.4479  0.1518  0.0257
37293SOL    HW123604   1.290   6.695   1.546 -0.1014 -0.8644  0.5885
37293SOL    HW223605   1.204   6.766   1.649 -0.7125 -1.0048  0.1802
37294SOL     OW23606   2.371   5.323  10.904 -0.6920 -0.3060  0.0558
37294SOL    HW123607   2.438   5.375  10.949 -0.8477  2.7942 -2.8996
37294SOL    HW223608   2.301   5.314  10.968  1.2238 -0.9890  2.2059
37295SOL     OW23609   8.702  12.156   5.478  0.3044 -0.0780 -0.1842
37295SOL    HW123610   8.745  12.156   5.564  0.5016  2.3911 -0.1947
37295SOL    HW223611   8.657  12.072   5.473  1.7945 -1.0521  1.5557
37296SOL     OW23612   2.477   6.420   4.498  0.2866  0.2453 -0.3199
37296SOL    HW123613   2.432   6.451   4.419 -0.8056  1.7504  0.8442
37296SOL    HW223614   2.523   6.496   4.532  0.8335 -0.4051  0.4487
37297SOL     OW23615   5.157   2.203   9.950  0.0975  0.0328  0.2667
37297SOL    HW123616   5.064   2.203   9.930  0.1264  1.1422  0.0892
37297SOL    HW223617   5.194   2.137   9.892 -0.3756  0.5623 -0.6587
37298SOL     OW23618   5.177  10.822   7.560 -0.1448  0.2841 -0.4058
37298SOL    HW123619   5.255  10.873   7.538 -0.2391  0.4840 -0.2702
37298SOL    HW223620   5.196  10.735   7.525 -0.1537  0.5144 -1.0007
37299SOL     OW23621   3.339   1.423   6.334  0.1453 -0.0317  0.0860
37299SOL    HW123622   3.413   1.384   6.289 -0.3087 -0.3293 -0.4218
37299SOL    HW223623   3.369   1.510   6.361  0.0577  0.6483 -1.8474
37300SOL     OW23624   3.247   9.908  13.141  0.2252 -0.3997 -0.2366
37300SOL    HW123625   3.228   9.964  13.065 -0.9385  1.4230  1.3142
37300SOL    HW223626   3.331   9.939  13.174 -0.9776  1.3876  1.3435
37301SOL     OW23627   5.936   8.439   8.604 -0.1439  0.4741  0.7842
37301SOL    HW123628   5.873   8.511   8.612 -1.4812 -0.4365 -0.7804
37301SOL    HW223629   5.911   8.379   8.674 -1.6159 -0.2505 -0.2962
37302SOL     OW23630  10.479   1.593   1.995  0.5197 -0.3714 -0.1375
37302SOL    HW123631  10.452   1.681   1.969  0.3618 -0.6394 -0.9299
37302SOL    HW223632  10.398   1.544   2.005  0.5860 -0.2977  0.8135
37303SOL     OW23633   3.186  11.075   8.019  0.1045  0.1108  0.3561
37303SOL    HW123634   3.270  11.060   7.975  0.1894 -1.4052  0.9577
37303SOL    HW223635   3.208  11.125   8.097  0.2841  0.7133 -0.0764
37304SOL     OW23636   6.942  10.783   1.128 -0.0416  0.0611 -0.2536
37304SOL    HW123637   6.853  10.779   1.092 -0.6316  0.5054  1.0793
37304SOL    HW223638   6.929  10.787   1.223  1.4090  0.2510 -0.0395
37305SOL     OW23639   0.374   6.969   1.800 -0.7949  0.3410  0.2490
37305SOL    HW123640   0.414   6.915   1.732 -1.0046 -0.1838  0.5310
37305SOL    HW223641   0.393   6.922   1.881 -1.9907  0.0589  0.3895
37306SOL     OW23642   9.031   4.143   2.635  0.2929 -0.0177  0.2055
37306SOL    HW123643   8.981   4.116   2.558  0.0084 -0.8684  0.6685
37306SOL    HW223644   9.111   4.181   2.600 -0.1933  0.3485 -0.5238
37307SOL     OW23645  11.857   4.041   8.074  0.3977 -0.2917 -0.3763
37307SOL    HW123646  11.898   4.020   8.158  1.9100  0.7344 -0.8216
37307SOL    HW223647  11.928   4.076   8.021 -0.8706  0.6381 -1.5299
37308SOL     OW23648   7.309  10.715   6.466  0.6415 -0.2404 -0.5364
37308SOL    HW123649   7.401  10.736   6.483  0.7023 -1.1283  0.3236
37308SOL    HW223650   7.283  10.661   6.540 -1.0342  1.2517  0.0253
37309SOL     OW23651   6.442   9.462   0.756 -0.0162 -1.0463  0.0780
37309SOL    HW123652   6.423   9.511   0.837 -1.5452  2.7573 -2.3005
37309SOL    HW223653   6.358   9.421   0.733 -0.2237 -0.2344 -0.6656
37310SOL     OW23654   3.371   2.216   7.682  0.2612  0.6209  0.0847
37310SOL    HW123655   3.455   2.197   7.723 -0.0226 -1.3193 -0.1216
37310SOL    HW223656   3.307   2.169   7.736 -0.5280  1.0148 -0.4924
37311SOL     OW23657   8.529   5.132  10.947 -0.2399  0.1347  0.7919
37311SOL    HW123658   8.447   5.095  10.980 -0.8977  1.6617  0.9594
37311SOL    HW223659   8.558   5.192  11.015  0.0814  0.9273 -0.0128
37312SOL     OW23660   8.079  11.877  10.515  0.5972 -0.0580  0.0623
37312SOL    HW123661   8.164  11.906  10.483 -0.1443 -0.5357 -2.5459
37312SOL    HW223662   8.084  11.782  10.516 -0.0400 -0.0979 -0.4935
37313SOL     OW23663   2.804   6.777   7.635  0.5285  0.4930 -0.4171
37313SOL    HW123664   2.780   6.685   7.639  0.3585  0.5130 -0.9368
37313SOL    HW223665   2.729   6.823   7.675 -0.5055  0.5829 -2.3371
37314SOL     OW23666   2.513   3.234   1.016 -0.0662  0.6049  0.8485
37314SOL    HW123667   2.582   3.297   1.033  0.6370  0.1518 -0.1782
37314SOL    HW223668   2.530   3.163   1.078  2.6806 -1.1994 -1.6712
37315SOL     OW23669   1.280   0.225   8.331 -0.3140 -0.4768 -0.1571
37315SOL    HW123670   1.368   0.255   8.352 -1.4475  2.7004  0.5572
37315SOL    HW223671   1.278   0.220   8.236  0.2656  0.7534 -0.2514
37316SOL     OW23672   0.967  11.134  13.465  0.1054 -0.1369 -0.3412
37316SOL    HW123673   1.015  11.139  13.547  2.8509 -1.1835 -1.7701
37316SOL    HW223674   0.934  11.223  13.451  2.1483  0.8120  0.4766
37317SOL     OW23675   3.228   7.392  10.292  0.3700 -0.0960  0.1729
37317SOL    HW123676   3.291   7.334  10.248  1.0444  0.9711 -0.3208
37317SOL    HW223677   3.278   7.472  10.311 -0.8099  0.7655 -0.1796
37318SOL     OW23678   9.178   2.695   0.221  0.0682  0.4653  0.9856
37318SOL    HW123679   9.270   2.711   0.203  0.0047  2.6764  2.2805
37318SOL    HW223680   9.133   2.771   0.184 -1.0732  0.1128  1.6159
37319SOL     OW23681   0.314   8.295  12.897  0.1913  0.1066  0.6151
37319SOL    HW123682   0.379   8.235  12.860 -1.5052 -1.2397 -0.3210
37319SOL    HW223683   0.311   8.367  12.834 -0.4325 -0.6621 -0.2640
37320SOL     OW23684   8.068  10.273   8.720  0.5545  0.0314  0.4143
37320SOL    HW123685   8.037  10.345   8.775  0.4641  1.0355 -0.8996
37320SOL    HW223686   8.049  10.301   8.630  1.8616 -0.9789 -0.2187
37321SOL     OW23687  13.392   7.842   6.607  0.4031  0.2726  0.1903
37321SOL    HW123688  13.368   7.904   6.538 -0.8377  0.9143  1.1500
37321SOL    HW223689  13.484   7.859   6.625  0.5974  0.4600 -0.9273
37322SOL     OW23690   3.524  10.223  11.811 -0.2897  0.4857 -0.3265
37322SOL    HW123691   3.597  10.164  11.793  0.7582  1.6782 -0.1063
37322SOL    HW223692   3.563  10.311  11.811 -1.4150  1.0424  1.4050
37323SOL     OW23693  13.466   2.210   2.264  0.1919  0.0571  0.1713
37323SOL    HW123694  13.449   2.303   2.272  1.2537  0.3897 -1.0773
37323SOL    HW223695  13.460   2.176   2.353  0.1408  1.3696  0.6869
37324SOL     OW23696   0.546   0.399  10.929 -0.0784 -0.8861 -0.1766
37324SOL    HW123697   0.472   0.459  10.933  1.3951  1.0214  0.2210
37324SOL    HW223698   0.531   0.336  10.999 -1.4037 -0.6507 -0.2273
37325SOL     OW23699   6.397   5.252   9.256  0.2238 -0.5915  0.9469
37325SOL    HW123700   6.490   5.230   9.248  0.4059 -0.0448  1.4025
37325SOL    HW223701   6.363   5.247   9.167  1.3705  2.0175  0.2609
37326SOL     OW23702   0.439   4.486   1.365 -0.1136 -0.0174  0.1010
37326SOL    HW123703   0.427   4.502   1.271 -1.3424 -3.0446 -0.3823
37326SOL    HW223704   0.495   4.408   1.369  0.0318  0.1369  1.9106
37327SOL     OW23705   9.009   9.454   3.369 -0.3126 -0.0897 -0.2532
37327SOL    HW123706   8.996   9.549   3.376  0.4833 -0.1280  3.3289
37327SOL    HW223707   9.104   9.443   3.376 -0.4437 -1.1996 -0.1556
37328SOL     OW23708  13.524  11.964   8.627  0.2578 -0.4353 -0.6036
37328SOL    HW123709  13.510  12.045   8.579 -1.3405  0.3172  1.0494
37328SOL    HW223710  13.453  11.907   8.599 -0.1524 -0.3163  0.1918
37329SOL     OW23711   6.240   8.577   8.153  0.0369  0.0283 -0.3097
37329SOL    HW123712   6.169   8.542   8.099 -1.8007  0.3305  1.7927
37329SOL    HW223713   6.245   8.517   8.227  0.9568  0.8969  0.3543
37330SOL     OW23714   8.240  13.079  11.987  0.0273 -0.0466  0.0794
37330SOL    HW123715   8.286  12.999  11.963 -1.1292 -0.4113 -1.0596
37330SOL    HW223716   8.238  13.080  12.082  0.0644 -1.3739  0.0994
37331SOL     OW23717  11.659  10.070   1.178  0.3129  0.4528  0.2215
37331SOL    HW123718  11.581  10.124   1.187  0.2771  1.2241 -3.3037
37331SOL    HW223719  11.719  10.102   1.245 -0.8962  2.6642  0.3103
37332SOL     OW23720  12.969   6.313   1.625  0.0233 -0.3103  0.6097
37332SOL    HW123721  12.880   6.294   1.596 -0.1487 -1.0830  1.5987
37332SOL    HW223722  13.024   6.251   1.577  0.3260  1.5331 -1.6041
37333SOL     OW23723   7.212   6.200   1.073 -0.1489  0.1390 -0.1252
37333SOL    HW123724   7.270   6.128   1.097  0.2253  0.7235  0.7479
37333SOL    HW223725   7.172   6.172   0.990 -0.3709 -1.2776  0.4382
37334SOL     OW23726  11.167  11.251   4.289 -0.7203 -0.1461 -0.1797
37334SOL    HW123727  11.227  11.240   4.216  2.1841  0.7980  1.9106
37334SOL    HW223728  11.207  11.202   4.361 -2.0737  1.0903  1.5028
37335SOL     OW23729   9.193  10.063  13.199 -0.0773 -0.1210  0.1312
37335SOL    HW123730   9.109  10.067  13.152  1.3266 -1.2923 -2.7437
37335SOL    HW223731   9.207   9.969  13.214  0.9349  0.0241  0.1143
37336SOL     OW23732   4.497   5.814   4.978 -0.3360  0.2387 -0.0486
37336SOL    HW123733   4.409   5.801   5.012  0.3885 -1.2487  1.3877
37336SOL    HW223734   4.544   5.859   5.048  0.4432 -0.3129 -0.2027
37337SOL     OW23735   0.932   1.587   3.786  0.0869 -0.3805  0.8097
37337SOL    HW123736   0.892   1.668   3.755 -1.3239 -0.8194  1.4224
37337SOL    HW223737   0.953   1.538   3.707  1.3652  0.7283  0.4048
37338SOL     OW23738  11.217   2.942   8.522 -0.5254  0.1907  0.5258
37338SOL    HW123739  11.259   3.023   8.550  0.2262 -0.1234  0.3179
37338SOL    HW223740  11.288   2.878   8.515 -0.9577 -0.2156 -0.3254
37339SOL     OW23741   2.645   4.469  10.770  0.5133  0.2333  0.4488
37339SOL    HW123742   2.567   4.524  10.764  0.3502  0.0185  0.5779
37339SOL    HW223743   2.654   4.432  10.682  0.5998  0.4363  0.3737
37340SOL     OW23744   7.720   1.053  10.105 -0.8594 -0.4708 -0.3402
37340SOL    HW123745   7.751   1.134  10.146 -0.2400 -1.7131  1.7987
37340SOL    HW223746   7.655   1.082  10.041  0.4506  1.7992 -0.7647
37341SOL     OW23747   7.392   5.855   9.673 -0.5783  0.3252 -0.0787
37341SOL    HW123748   7.361   5.921   9.611 -0.4111 -0.8927 -1.5087
37341SOL    HW223749   7.450   5.799   9.622  1.9867  0.9687  1.8843
37342SOL     OW23750   6.466   6.404   9.566 -0.4409  0.2495  0.3131
37342SOL    HW123751   6.412   6.449   9.501  2.4454 -0.6013 -2.9615
37342SOL    HW223752   6.458   6.311   9.544  2.4398  0.1082 -0.5086
37343SOL     OW23753   0.654  10.150   2.600  0.0817  0.0418  0.3758
37343SOL    HW123754   0.735  10.181   2.560 -0.2947  0.0558 -0.3983
37343SOL    HW223755   0.612  10.228   2.634 -0.4028  0.2690 -0.7138
37344SOL     OW23756   8.696   9.613   8.392 -0.0958 -0.8118  0.4175
37344SOL    HW123757   8.710   9.569   8.476  1.0303 -1.9850 -0.3441
37344SOL    HW223758   8.627   9.562   8.349  1.3640 -2.0373 -0.5583
37345SOL     OW23759   0.484  11.502   9.328  0.1561  0.2517 -0.2172
37345SOL    HW123760   0.467  11.528   9.419  2.2981 -2.2945  1.0440
37345SOL    HW223761   0.408  11.450   9.303  0.6832 -1.2478  1.1310
37346SOL     OW23762  10.255  12.042  12.289 -0.3230  0.2829  0.1277
37346SOL    HW123763  10.243  12.134  12.312 -1.6987 -0.3636  2.3096
37346SOL    HW223764  10.345  12.023  12.315 -0.3815  0.7554  0.7096
37347SOL     OW23765   2.448  13.737   0.078  0.5068  0.2907 -0.0091
37347SOL    HW123766   2.381  13.770   0.019  1.1964 -0.4042 -1.2091
37347SOL    HW223767   2.518  13.704   0.021  0.8474 -1.1368  1.1485
37348SOL     OW23768  10.565   0.477  11.811 -0.2016  0.6603  0.5916
37348SOL    HW123769  10.538   0.442  11.727  0.6585  0.2518  0.4736
37348SOL    HW223770  10.583   0.570  11.794 -1.4312  0.9311  0.6653
37349SOL     OW23771   4.087   7.325   6.688  0.1230 -0.3068 -0.1434
37349SOL    HW123772   4.143   7.270   6.743 -1.7765 -1.6793  0.5115
37349SOL    HW223773   4.101   7.414   6.722  0.4379 -0.8754  1.2985
37350SOL     OW23774   8.400   1.793   3.597 -0.3017 -0.3117  0.0956
37350SOL    HW123775   8.307   1.810   3.581  0.4702  2.3184 -2.4479
37350SOL    HW223776   8.414   1.704   3.566 -1.6596 -0.1219 -1.1559
37351SOL     OW23777   6.071   7.767   8.352 -0.9099  0.1343  0.0635
37351SOL    HW123778   6.122   7.686   8.344 -1.0660 -0.1150  1.4204
37351SOL    HW223779   5.985   7.738   8.381 -1.1803  0.7390 -0.1169
37352SOL     OW23780  11.816   0.705  10.456  0.6205  0.4159  0.2030
37352SOL    HW123781  11.790   0.776  10.398  0.2923 -0.2419 -0.4795
37352SOL    HW223782  11.901   0.677  10.423  0.2151 -0.2830 -0.2977
37353SOL     OW23783   1.278   5.071   8.562 -0.3991  0.4506 -0.0031
37353SOL    HW123784   1.276   5.043   8.653 -0.2355 -0.9782 -0.4040
37353SOL    HW223785   1.348   5.136   8.558  0.7884 -0.7388  0.5906
37354SOL     OW23786   1.730   1.371   7.321  0.0862  0.1151 -0.0057
37354SOL    HW123787   1.750   1.448   7.375  1.7940  0.3382 -0.8732
37354SOL    HW223788   1.732   1.298   7.384 -1.0471  0.6953  0.7363
37355SOL     OW23789  12.104   9.354  12.461  0.3195  0.6729 -0.0062
37355SOL    HW123790  12.115   9.429  12.403 -2.7744  0.3856 -1.1324
37355SOL    HW223791  12.153   9.283  12.418  0.8844  1.3098 -0.4303
37356SOL     OW23792  13.086  11.914  12.387 -0.5980  0.6288 -0.2563
37356SOL    HW123793  13.061  11.823  12.403  3.8282 -0.7336  0.3262
37356SOL    HW223794  13.107  11.916  12.293  0.4988  0.6027 -0.0325
37357SOL     OW23795   7.587   4.092  13.025  0.3524 -0.4405 -0.2634
37357SOL    HW123796   7.550   4.005  13.009 -0.4664 -0.0631 -0.5091
37357SOL    HW223797   7.575   4.139  12.942 -2.4533  1.0228  0.8024
37358SOL     OW23798   3.012  11.866  10.332  0.5185  0.0430 -0.7202
37358SOL    HW123799   2.936  11.810  10.348 -0.2905  1.0990 -0.7673
37358SOL    HW223800   3.086  11.817  10.368 -0.2809 -0.7122 -0.0579
37359SOL     OW23801  13.699   5.724  11.480 -0.0908 -0.2234 -0.0980
37359SOL    HW123802  13.731   5.680  11.401  0.8991 -0.0503  0.2065
37359SOL    HW223803  13.698   5.817  11.457  1.9319  0.0291  0.6581
37360SOL     OW23804   7.377   9.745   0.863  0.2250  0.0839 -0.0123
37360SOL    HW123805   7.438   9.782   0.799 -0.5789  0.2033 -0.7219
37360SOL    HW223806   7.411   9.775   0.948  1.0489  0.2957 -0.4068
37361SOL     OW23807   8.879   7.958   6.020  0.1667  0.4395  0.1496
37361SOL    HW123808   8.839   7.973   6.105 -0.8487  1.8246 -0.5249
37361SOL    HW223809   8.929   8.038   6.003 -0.5378  0.6542 -1.0086
37362SOL     OW23810   4.699  10.002   3.154  0.1147  0.0480  0.0026
37362SOL    HW123811   4.766  10.068   3.133  0.8873 -0.6013  0.3697
37362SOL    HW223812   4.667  10.028   3.240  1.0784 -0.5541  0.5637
37363SOL     OW23813  13.086   8.487  10.880 -0.0873  0.8970  0.3144
37363SOL    HW123814  13.054   8.431  10.809 -0.2927  1.0199  0.3095
37363SOL    HW223815  13.181   8.487  10.869  0.0251 -0.4496  1.0699
37364SOL     OW23816   3.036   5.512   2.530  0.1319 -0.0180  0.0692
37364SOL    HW123817   2.994   5.439   2.485 -2.4615  0.5172  1.4192
37364SOL    HW223818   3.062   5.477   2.615 -0.4914  0.4098  0.4502
37365SOL     OW23819  12.145   1.118   3.488  0.5722 -0.4994 -0.0056
37365SOL    HW123820  12.103   1.035   3.512 -0.5735  0.1065  0.1861
37365SOL    HW223821  12.126   1.176   3.562 -0.4853  0.5423 -1.0500
37366SOL     OW23822   9.211   1.852   3.365 -0.2583  0.4247  0.2484
37366SOL    HW123823   9.199   1.800   3.445  1.7289  0.5212  0.6780
37366SOL    HW223824   9.161   1.807   3.298  0.0562 -1.0993  1.0039
37367SOL     OW23825  10.801   0.590   9.302  0.0690  0.6436  0.0372
37367SOL    HW123826  10.817   0.678   9.337 -0.4494  0.8229 -0.1739
37367SOL    HW223827  10.776   0.604   9.211  0.3628  0.2503 -0.1038
37368SOL     OW23828   8.921  12.795   2.576 -0.0441  0.5188  0.1118
37368SOL    HW123829   9.011  12.803   2.607 -0.0434  2.6600 -0.2425
37368SOL    HW223830   8.872  12.766   2.652  0.8746 -0.3410  0.3994
37369SOL     OW23831  11.182   0.019  10.948 -0.0369 -0.2004  0.1980
37369SOL    HW123832  11.167   0.101  10.997  0.2320 -0.2031  0.2845
37369SOL    HW223833  11.254   0.039  10.889 -0.3495 -0.2054 -0.1875
37370SOL     OW23834   1.878   9.791  10.886 -0.6607 -0.4039  0.3323
37370SOL    HW123835   1.974   9.782  10.885 -0.7077 -1.7557  2.3000
37370SOL    HW223836   1.860   9.849  10.960 -1.3884 -0.7008  0.3917
37371SOL     OW23837   2.666   8.803   9.391  0.3976 -0.0920 -0.5237
37371SOL    HW123838   2.682   8.743   9.319  0.9190 -0.7643  0.1419
37371SOL    HW223839   2.587   8.851   9.366 -0.2926 -1.3756 -0.8572
37372SOL     OW23840  11.227   8.401  13.420 -0.3913 -0.2352 -0.3468
37372SOL    HW123841  11.268   8.315  13.429 -0.3260 -0.2969 -1.1862
37372SOL    HW223842  11.225   8.436  13.510  2.4559  0.1988 -0.3350
37373SOL     OW23843   8.286   1.830  10.367  0.0041 -0.6634 -0.2647
37373SOL    HW123844   8.232   1.873  10.433  1.6671  1.6063 -0.2512
37373SOL    HW223845   8.367   1.881  10.365  0.0354 -0.5228 -4.0654
37374SOL     OW23846   1.876   9.666   5.063 -0.5416 -0.1012  0.1861
37374SOL    HW123847   1.872   9.760   5.078 -0.2844  0.5470 -3.0556
37374SOL    HW223848   1.786   9.636   5.080 -0.6473  0.7038  1.1711
37375SOL     OW23849   3.824   7.732  10.516  0.2904  0.1379  0.0758
37375SOL    HW123850   3.767   7.730  10.439 -1.0793  2.1393  0.9785
37375SOL    HW223851   3.906   7.694  10.485 -0.5236  0.0100 -2.1001
37376SOL     OW23852   3.715  10.916   3.959  0.5450 -0.0134 -0.2430
37376SOL    HW123853   3.644  10.954   3.906 -0.2745 -0.6727  0.3430
37376SOL    HW223854   3.722  10.974   4.035  0.5522 -0.0049 -0.2500
37377SOL     OW23855   2.377  10.811   6.091 -0.5615 -0.3447  0.3968
37377SOL    HW123856   2.453  10.789   6.145 -0.2103 -2.5639 -0.8873
37377SOL    HW223857   2.303  10.809   6.152 -0.0657 -1.9080  0.9874
37378SOL     OW23858  10.319   2.478   7.422 -0.2923  0.0673 -0.0683
37378SOL    HW123859  10.326   2.387   7.451 -0.4235  0.2096  0.4118
37378SOL    HW223860  10.405   2.497   7.384  0.0227  0.0117  0.6099
37379SOL     OW23861   2.681  11.989   6.491  0.5265 -0.2630  0.3076
37379SOL    HW123862   2.597  11.972   6.448  0.7391  0.2493 -0.3271
37379SOL    HW223863   2.665  11.969   6.583  0.0017 -1.1746  0.0316
37380SOL     OW23864   3.925  10.362   3.281  0.0802  0.0808  0.6492
37380SOL    HW123865   3.994  10.295   3.282 -0.8183 -0.9714 -1.8285
37380SOL    HW223866   3.846  10.316   3.311 -0.1903  0.4908  0.5787
37381SOL     OW23867  12.948   9.885   3.412  0.2589 -0.0809 -0.0538
37381SOL    HW123868  12.867   9.900   3.364  0.2336  0.9125  0.2660
37381SOL    HW223869  12.984   9.804   3.375 -1.5158 -1.2698  0.6824
37382SOL     OW23870   2.113   8.618   3.553 -0.0712  0.1276  0.0223
37382SOL    HW123871   2.208   8.622   3.547 -0.0718  1.2046  0.4427
37382SOL    HW223872   2.095   8.531   3.590  0.6101 -0.9264 -2.0088
37383SOL     OW23873   7.033   6.741  11.872  0.2936 -0.3250 -0.7666
37383SOL    HW123874   7.075   6.731  11.787  0.2530 -0.7540 -0.7389
37383SOL    HW223875   7.055   6.830  11.899  0.1409 -0.1153 -1.3119
37384SOL     OW23876   0.477   1.971   5.614 -0.6360  0.2444  0.8047
37384SOL    HW123877   0.419   2.026   5.560 -0.0156  1.6434  1.5071
37384SOL    HW223878   0.446   1.882   5.599 -1.5990  0.7592 -0.4900
37385SOL     OW23879  13.515   6.350   7.035 -0.1099  0.0960 -0.6251
37385SOL    HW123880  13.533   6.369   6.943 -0.5661  1.8554 -0.3899
37385SOL    HW223881  13.456   6.421   7.062 -0.4508 -0.7304  0.8625
37386SOL     OW23882  11.757   1.652   1.763 -0.0968 -0.3311 -0.2421
37386SOL    HW123883  11.769   1.586   1.696 -2.1815 -0.5151 -0.4824
37386SOL    HW223884  11.767   1.605   1.846  4.3154  0.2036 -0.1885
37387SOL     OW23885   4.437   8.921   2.034 -0.0606  0.5322 -0.1841
37387SOL    HW123886   4.476   8.834   2.046 -0.6770 -0.1243 -2.5328
37387SOL    HW223887   4.350   8.913   2.072 -0.3236 -0.0849 -0.8870
37388SOL     OW23888   3.380   8.591   4.650  0.5789 -0.1809 -0.3164
37388SOL    HW123889   3.449   8.653   4.626 -0.3799  0.2322 -2.1775
37388SOL    HW223890   3.414   8.506   4.624  1.0103 -0.1822  0.2328
37389SOL     OW23891   0.724  11.302   5.319 -0.2040  0.5290  0.7120
37389SOL    HW123892   0.736  11.301   5.224  2.1536  1.4420  0.9572
37389SOL    HW223893   0.649  11.360   5.333 -0.0804  1.0141 -0.5313
37390SOL     OW23894  10.028   2.597   4.991  0.3360 -0.0102 -0.2529
37390SOL    HW123895   9.964   2.550   4.937  0.7464 -1.0131  0.1169
37390SOL    HW223896  10.057   2.533   5.056  0.0354  1.1128  1.0199
37391SOL     OW23897   6.650   1.417   9.694 -0.0033 -0.3240  0.0954
37391SOL    HW123898   6.587   1.473   9.648 -2.6035 -1.7863  1.6575
37391SOL    HW223899   6.697   1.477   9.752 -1.5447  0.5362  0.5135
37392SOL     OW23900   8.642   2.874   1.530  0.1692  0.2255 -0.0818
37392SOL    HW123901   8.658   2.949   1.474 -0.7977  1.0940  0.7605
37392SOL    HW223902   8.704   2.807   1.500  0.4117  1.0362 -1.4361
37393SOL     OW23903   9.806  10.121   7.910  0.8911 -0.2650  0.0416
37393SOL    HW123904   9.787  10.114   8.003  0.2568 -3.1703 -0.2166
37393SOL    HW223905   9.836  10.211   7.898  0.4731  0.3386  2.9300
37394SOL     OW23906  12.081   1.929  12.683  0.6566  0.6697 -0.1705
37394SOL    HW123907  12.020   1.990  12.642 -0.0958  0.9075  1.2481
37394SOL    HW223908  12.081   1.953  12.775 -1.1891 -2.6717  0.8492
37395SOL     OW23909   7.778  10.684   0.149 -0.3008 -0.1140  0.2415
37395SOL    HW123910   7.871  10.709   0.156 -0.8129  2.3069 -0.6285
37395SOL    HW223911   7.776  10.617   0.081  0.6197  1.1265 -1.0464
37396SOL     OW23912   6.149  11.066   1.151  0.1549 -0.1393 -0.1289
37396SOL    HW123913   6.221  11.125   1.170 -0.0313  0.0536 -0.0119
37396SOL    HW223914   6.081  11.090   1.215 -0.8864  1.2102 -1.6645
37397SOL     OW23915   2.597  12.504  11.882  0.0608  0.3780  0.8334
37397SOL    HW123916   2.530  12.457  11.832 -0.1369  1.9121 -0.4443
37397SOL    HW223917   2.597  12.462  11.968 -0.8869 -1.1639  0.1228
37398SOL     OW23918  13.003  13.032   6.190  0.1017 -0.0899  0.9320
37398SOL    HW123919  12.945  12.967   6.151  0.5668  0.6841 -1.1732
37398SOL    HW223920  13.090  12.994   6.182  0.1097 -0.4905  2.5113
37399SOL     OW23921  12.712   9.875   1.611  0.1329  0.4557  0.2099
37399SOL    HW123922  12.775   9.891   1.681 -1.1276  0.3872  1.3992
37399SOL    HW223923  12.638   9.832   1.654 -0.6894  0.4250 -1.1638
37400SOL     OW23924   1.525   2.983  12.503 -0.1961  0.5777  0.5256
37400SOL    HW123925   1.542   2.958  12.594  0.2887 -0.9360  0.0605
37400SOL    HW223926   1.610   3.008  12.469 -0.3090  0.7590  0.3775
37401SOL     OW23927   2.214   7.246  12.367 -0.0158  0.4388 -0.0159
37401SOL    HW123928   2.160   7.203  12.434 -0.1470 -0.2528 -0.5584
37401SOL    HW223929   2.230   7.333  12.403  0.2359 -0.0411  1.0947
37402SOL     OW23930  12.014   9.322   7.265  0.2443  0.2267 -0.0959
37402SOL    HW123931  12.022   9.227   7.273  1.3117  0.4413  1.9825
37402SOL    HW223932  11.939   9.345   7.321 -1.0859  0.4897 -1.9002
37403SOL     OW23933   2.682   1.804   5.990  0.4562  0.2104 -0.3246
37403SOL    HW123934   2.624   1.833   5.920  1.1204 -1.3689 -1.5868
37403SOL    HW223935   2.769   1.835   5.964  0.9650 -1.6583 -1.0594
37404SOL     OW23936   5.417  10.889   4.762 -0.2855  0.0900 -0.4606
37404SOL    HW123937   5.398  10.812   4.708  0.1395  1.3987 -2.5683
37404SOL    HW223938   5.332  10.930   4.776 -0.5999 -1.0347  1.1896
37405SOL     OW23939   2.826   4.272   8.990  0.5880  0.1826  0.0649
37405SOL    HW123940   2.825   4.232   9.077  0.7707  0.8817  0.3923
37405SOL    HW223941   2.886   4.346   8.998  1.3364 -0.2912 -0.8959
37406SOL     OW23942   3.094   1.141   5.579  0.6575  0.0455  0.4112
37406SOL    HW123943   3.111   1.220   5.528 -0.7066 -0.3012 -0.6475
37406SOL    HW223944   3.064   1.174   5.664  0.0978  0.6857 -0.0198
37407SOL     OW23945  11.230   3.606  10.949  0.0867  0.2747 -0.0575
37407SOL    HW123946  11.249   3.534  11.008 -2.3609 -1.8190 -1.6155
37407SOL    HW223947  11.295   3.597  10.879 -1.3568 -1.7547 -1.2382
37408SOL     OW23948   8.490  10.543  13.591 -0.2511  0.3783 -0.9755
37408SOL    HW123949   8.465  10.634  13.609 -0.5639 -0.0955  1.2820
37408SOL    HW223950   8.574  10.533  13.636  1.2594  0.3061 -3.6218
37409SOL     OW23951   6.021  10.195   3.109  0.0141  0.1902  0.3365
37409SOL    HW123952   6.096  10.137   3.099  0.4862  0.9648 -0.8098
37409SOL    HW223953   5.959  10.166   3.042 -1.2514 -1.1963  2.0262
37410SOL     OW23954   8.161   2.673   5.403  0.2317 -0.3216  0.2028
37410SOL    HW123955   8.117   2.700   5.485 -1.6845 -0.2214 -0.7932
37410SOL    HW223956   8.167   2.578   5.410 -1.3073 -0.4660 -0.1561
37411SOL     OW23957   1.097  11.744   5.798 -0.3351 -0.1932  0.3153
37411SOL    HW123958   1.105  11.653   5.767 -2.5088  0.7924 -3.9158
37411SOL    HW223959   1.005  11.752   5.824 -0.4290  1.0200 -0.3473
37412SOL     OW23960   8.405   0.817   1.897 -0.3595  0.1660  1.0742
37412SOL    HW123961   8.372   0.791   1.983  0.2247 -0.7211  1.0517
37412SOL    HW223962   8.452   0.898   1.913 -1.0025  0.4819  1.4237
37413SOL     OW23963  12.490  10.629   8.016  0.0251  0.1583  0.1514
37413SOL    HW123964  12.536  10.617   8.099 -0.6714  3.3151  1.1234
37413SOL    HW223965  12.560  10.643   7.951  0.5318  1.0582  0.8716
37414SOL     OW23966   7.115  11.239  11.466  0.7083 -0.1206 -0.4122
37414SOL    HW123967   7.041  11.209  11.519 -0.1031  2.2995 -0.0612
37414SOL    HW223968   7.135  11.165  11.409 -0.4834 -1.6463  1.0508
37415SOL     OW23969   3.776  13.576   8.074 -0.3377 -0.1071  0.2595
37415SOL    HW123970   3.764  13.642   8.142  1.7571 -0.1180  0.7302
37415SOL    HW223971   3.869  13.552   8.081 -0.3944 -1.0898 -1.7303
37416SOL     OW23972  12.833  11.653   6.259 -0.5673  0.0937  0.4352
37416SOL    HW123973  12.870  11.565   6.259  2.4499  1.1885 -1.9072
37416SOL    HW223974  12.867  11.694   6.339 -0.0617 -0.1714  0.3552
37417SOL     OW23975   8.896   3.366   5.420 -0.2513  0.2511 -0.7634
37417SOL    HW123976   8.903   3.309   5.343 -1.6652 -1.1898  0.1034
37417SOL    HW223977   8.805   3.355   5.449  0.0657  1.2872  0.7197
37418SOL     OW23978  10.119  10.318  11.512 -0.2321 -0.2520 -0.5223
37418SOL    HW123979  10.165  10.342  11.593 -2.0822 -0.5244  0.6514
37418SOL    HW223980  10.116  10.400  11.462 -1.2317  0.5693  0.8044
37419SOL     OW23981   0.937   4.250   2.498 -0.4575  0.0623  0.4466
37419SOL    HW123982   0.845   4.271   2.485 -0.8794 -2.0910 -0.3959
37419SOL    HW223983   0.956   4.180   2.436  1.6564  0.1696  0.8684
37420SOL     OW23984  11.877  10.969   4.498 -0.3442 -0.4004  0.7652
37420SOL    HW123985  11.932  10.964   4.420 -1.7281 -0.0836 -0.2576
37420SOL    HW223986  11.910  10.899   4.555  1.4263  0.0892  0.4207
37421SOL     OW23987   9.115   0.457   4.016  0.7171  0.5846 -0.7030
37421SOL    HW123988   9.161   0.487   4.095  0.0776  0.0554 -0.1127
37421SOL    HW223989   9.089   0.367   4.036  0.0571  0.6305 -1.3024
37422SOL     OW23990  11.594  11.328  13.401  0.4803  0.0457 -0.7755
37422SOL    HW123991  11.554  11.395  13.455  0.8626 -0.9967  0.8910
37422SOL    HW223992  11.682  11.316  13.438  0.1653 -1.8571 -0.5107
37423SOL     OW23993   8.667   4.593   0.812  0.4568 -0.1083 -0.2568
37423SOL    HW123994   8.690   4.640   0.893 -0.1868  0.7355 -0.5470
37423SOL    HW223995   8.719   4.636   0.744 -0.5449  0.5797 -0.6145
37424SOL     OW23996   3.719  10.512   8.035 -0.4897  0.2932  0.7977
37424SOL    HW123997   3.657  10.574   7.998  0.0640  0.2715 -0.2165
37424SOL    HW223998   3.784  10.498   7.965  2.4968  2.7185  2.8315
37425SOL     OW23999   6.913   1.184  10.280 -0.4272  0.1546  0.0740
37425SOL    HW124000   6.875   1.096  10.278 -0.8681  0.3566 -0.6290
37425SOL    HW224001   6.883   1.221  10.363  0.0962 -0.4958  0.5708
37426SOL     OW24002   0.445   9.362  11.114  0.2670  0.6852  0.1189
37426SOL    HW124003   0.531   9.325  11.092 -0.0138  0.8309 -1.3543
37426SOL    HW224004   0.433   9.341  11.206  2.3704  1.6417  0.6695
37427SOL     OW24005  12.136   7.333  12.693  0.1911 -0.4787 -0.2604
37427SOL    HW124006  12.189   7.329  12.773 -0.7422  0.9829  0.4737
37427SOL    HW224007  12.055   7.290  12.716 -0.1049 -0.0014 -0.3889
37428SOL     OW24008   0.871   0.811   6.556 -0.0829  0.3440  0.6492
37428SOL    HW124009   0.785   0.801   6.597 -0.1748 -0.6915  0.2204
37428SOL    HW224010   0.859   0.884   6.494 -0.6875  0.1268  0.5019
37429SOL     OW24011   5.292   4.552  11.876  0.1456  0.2072 -0.0175
37429SOL    HW124012   5.238   4.499  11.933 -1.6017  0.2541 -1.5414
37429SOL    HW224013   5.365   4.495  11.852  0.0828 -0.3224  0.9849
37430SOL     OW24014   9.768  10.906   5.003 -0.1140 -0.5095  0.1323
37430SOL    HW124015   9.718  10.982   5.033  0.4516  1.2980 -3.0986
37430SOL    HW224016   9.736  10.889   4.915  1.3031 -2.6750 -0.0373
37431SOL     OW24017   2.591  12.684   0.952  0.1270 -0.0166 -0.1716
37431SOL    HW124018   2.606  12.590   0.952  2.6381  0.2469  2.8315
37431SOL    HW224019   2.508  12.695   0.998  0.5535 -0.7315  0.8079
37432SOL     OW24020   0.890   3.935   3.106  0.6123 -0.4147 -0.1287
37432SOL    HW124021   0.870   4.022   3.140  1.9331 -0.5565  1.1334
37432SOL    HW224022   0.808   3.887   3.114  0.2205  0.3241  0.4686
37433SOL     OW24023   1.749   4.925  12.952 -0.1123 -0.1317  0.2218
37433SOL    HW124024   1.784   4.842  12.919 -1.3165 -0.2613 -0.8205
37433SOL    HW224025   1.686   4.900  13.019  1.0733  0.0600  1.4399
37434SOL     OW24026   8.996  10.830  13.585  0.9073  0.1317  0.1033
37434SOL    HW124027   9.055  10.773  13.537  0.6519 -0.7806  0.8405
37434SOL    HW224028   9.053  10.897  13.624  1.3204 -0.1266 -0.0592
37435SOL     OW24029   2.537   0.992  13.716 -0.3601 -0.0572  0.3322
37435SOL    HW124030   2.616   0.938  13.724  0.1903  0.9524  2.1357
37435SOL    HW224031   2.474   0.951  13.776 -0.6870  0.0469  0.0623
37436SOL     OW24032  11.083  11.136  12.548  0.0989  0.0184 -0.5644
37436SOL    HW124033  11.099  11.135  12.642 -0.9068 -1.3951 -0.3764
37436SOL    HW224034  11.168  11.119  12.508  0.2546 -1.0083  0.1664
37437SOL     OW24035  12.840   6.626   8.224  0.4301  0.1803 -0.1950
37437SOL    HW124036  12.773   6.558   8.233  0.4793  0.0383 -0.8397
37437SOL    HW224037  12.920   6.585   8.258  0.6713 -0.4356 -1.4318
37438SOL     OW24038  11.743   7.206   2.527 -0.1254 -0.1719 -0.6066
37438SOL    HW124039  11.827   7.237   2.494  1.5060 -0.7254  2.6154
37438SOL    HW224040  11.690   7.286   2.535  1.1345  0.6507 -0.0682
37439SOL     OW24041   0.130   9.201   9.205  0.2138  0.0210 -0.0839
37439SOL    HW124042   0.162   9.255   9.133 -2.5050  1.1908 -0.5261
37439SOL    HW224043   0.209   9.160   9.241  1.7471 -0.0117 -3.2032
37440SOL     OW24044   5.922  13.063  10.441  0.1231  0.9700 -0.4560
37440SOL    HW124045   6.005  13.068  10.393  1.0974  0.1256  1.0887
37440SOL    HW224046   5.901  12.970  10.442 -0.5965  1.1295 -0.4078
37441SOL     OW24047  10.476  11.625   4.717  0.0306  0.3584  0.0124
37441SOL    HW124048  10.472  11.674   4.799 -0.6223 -0.5307  0.5197
37441SOL    HW224049  10.446  11.537   4.740 -1.6506  0.4929 -1.4781
37442SOL     OW24050  12.485   0.692   0.302 -0.0532 -0.1910  0.0164
37442SOL    HW124051  12.490   0.636   0.380 -0.1792 -3.6760 -2.2353
37442SOL    HW224052  12.577   0.710   0.280 -0.0144  2.3910  1.8294
37443SOL     OW24053  11.157   8.926   8.594  0.4850  0.2245 -0.3832
37443SOL    HW124054  11.087   8.974   8.549  1.3687  0.0578 -2.0013
37443SOL    HW224055  11.110   8.863   8.649 -0.6565  0.3979 -1.1064
37444SOL     OW24056   3.223   6.624   7.059 -0.0752  0.0704  0.2017
37444SOL    HW124057   3.255   6.713   7.075  0.3140 -0.1585  0.7325
37444SOL    HW224058   3.253   6.574   7.135  0.3340 -0.6711 -0.4326
37445SOL     OW24059  12.061   3.492   3.897 -0.0491 -0.5272  0.3930
37445SOL    HW124060  12.150   3.502   3.931  1.1082 -0.0256 -2.4563
37445SOL    HW224061  12.056   3.400   3.868 -0.6823 -0.7072  1.0395
37446SOL     OW24062  11.080   0.334  12.976 -0.1208 -0.4784  0.2536
37446SOL    HW124063  11.165   0.374  12.957 -0.7866  1.4914  1.1293
37446SOL    HW224064  11.100   0.261  13.035  1.0514 -0.8281 -0.5332
37447SOL     OW24065   6.415   5.615  12.030 -0.1720  0.0703 -0.3592
37447SOL    HW124066   6.462   5.618  11.946 -0.9616  1.1202 -0.7938
37447SOL    HW224067   6.479   5.645  12.094 -0.0329  0.8631 -0.8463
37448SOL     OW24068  11.979   7.513   4.064  0.3921  0.2249  0.2595
37448SOL    HW124069  12.002   7.420   4.069  0.8187  0.2843 -0.4282
37448SOL    HW224070  12.024   7.545   3.985 -3.0329  0.0548 -1.9714
37449SOL     OW24071   1.834   6.493  13.584 -0.5005 -1.0283 -0.1667
37449SOL    HW124072   1.891   6.475  13.509  0.9083  2.0337  0.0223
37449SOL    HW224073   1.778   6.564  13.554  1.3887  1.6111  2.1410
37450SOL     OW24074   6.867   4.624  12.187  0.7070 -0.0472 -0.3692
37450SOL    HW124075   6.815   4.696  12.152  1.3540  1.6050  1.7930
37450SOL    HW224076   6.820   4.545  12.160  0.2039  1.1007 -3.2126
37451SOL     OW24077   3.045   4.641   4.289 -0.2290  0.2026  0.2077
37451SOL    HW124078   3.047   4.548   4.264  1.8904  0.4979 -0.9671
37451SOL    HW224079   2.982   4.680   4.228  2.8515  0.4102 -3.1562
37452SOL     OW24080   5.972   0.555   9.470  0.2237  0.1773  0.4011
37452SOL    HW124081   6.066   0.572   9.464 -0.1055  1.5797 -2.5375
37452SOL    HW224082   5.957   0.484   9.408 -0.5693 -0.6117  1.4711
37453SOL     OW24083   0.061   9.316   9.904 -0.3791 -0.1736 -0.0400
37453SOL    HW124084   0.084   9.363   9.984  1.4974  3.7781 -2.6079
37453SOL    HW224085   0.144   9.286   9.868 -0.6310  1.6129 -2.3453
37454SOL     OW24086   1.678   5.020   0.576  0.7916 -0.2245 -0.5584
37454SOL    HW124087   1.690   5.001   0.670 -0.8492 -1.2090 -0.5149
37454SOL    HW224088   1.657   5.113   0.573  1.0238 -0.1458  0.0369
37455SOL     OW24089   7.785  13.424   0.196  0.0450  0.6625  0.0556
37455SOL    HW124090   7.720  13.463   0.255  0.3188  0.4614  0.4963
37455SOL    HW224091   7.782  13.479   0.118  1.0953  2.1803  1.0308
37456SOL     OW24092  12.821   5.977   0.707 -0.1086 -0.5378  0.3523
37456SOL    HW124093  12.837   6.062   0.665 -0.2322 -0.1049  1.1526
37456SOL    HW224094  12.907   5.936   0.713  0.3044  0.4302  1.8028
37457SOL     OW24095  13.372   9.318   7.183  0.0681 -0.2696  0.3342
37457SOL    HW124096  13.370   9.411   7.159  1.5533 -0.0976  0.7597
37457SOL    HW224097  13.343   9.272   7.105 -0.9875  0.5574  0.2138
37458SOL     OW24098  11.365   3.669   7.939 -0.1936 -0.2835  0.4379
37458SOL    HW124099  11.455   3.641   7.954 -0.9850 -1.9631  2.6048
37458SOL    HW224100  11.344   3.723   8.016 -0.4471  1.8747 -1.0449
37459SOL     OW24101   7.158   3.869   1.543 -0.5534 -0.2135 -0.5868
37459SOL    HW124102   7.253   3.870   1.532 -0.4437  1.2464  0.2489
37459SOL    HW224103   7.129   3.792   1.494  1.1268 -1.1110 -0.2458
37460SOL     OW24104   5.542  12.348   4.932 -0.4640  0.1049 -0.2057
37460SOL    HW124105   5.585  12.388   4.856  0.7181 -1.8713 -0.6484
37460SOL    HW224106   5.609  12.348   5.000 -0.0418 -1.9485 -0.5384
37461SOL     OW24107   8.936   2.078   7.688  0.3242 -0.1746 -0.2354
37461SOL    HW124108   8.925   2.084   7.593 -1.0163 -1.5810 -0.2184
37461SOL    HW224109   8.879   2.005   7.714 -1.1513  1.6261  1.9444
37462SOL     OW24110   5.118   0.821   3.071 -0.5334 -0.5881  0.3028
37462SOL    HW124111   5.096   0.756   3.005  1.0243  0.6681 -1.5588
37462SOL    HW224112   5.183   0.779   3.126 -0.0418 -0.8591 -0.4746
37463SOL     OW24113  10.555   2.575  11.789  0.0899 -0.2934 -0.3406
37463SOL    HW124114  10.468   2.547  11.764  0.2819 -1.3769  0.1626
37463SOL    HW224115  10.610   2.497  11.778  0.9576  0.3219 -0.4781
37464SOL     OW24116   9.257   9.890  11.414  0.0708  0.5541  0.0567
37464SOL    HW124117   9.336   9.943  11.425  0.1100  0.8921 -1.5472
37464SOL    HW224118   9.211   9.932  11.341 -1.2649 -0.0356  0.5368
37465SOL     OW24119   2.893   0.443   8.612  0.0237  0.5133 -0.4082
37465SOL    HW124120   2.969   0.385   8.604  0.0510  0.5439 -0.3697
37465SOL    HW224121   2.872   0.468   8.522 -1.1996 -1.1245 -0.6359
37466SOL     OW24122   8.260   8.967  11.651  0.8474 -0.2358 -0.2237
37466SOL    HW124123   8.354   8.975  11.666  0.5362 -0.5587  2.3025
37466SOL    HW224124   8.231   8.898  11.710 -0.9622 -0.3589 -1.1527
37467SOL     OW24125   4.779   4.821   1.059  0.6407 -0.3104  0.8941
37467SOL    HW124126   4.851   4.758   1.064  1.0691  0.0717 -0.1253
37467SOL    HW224127   4.822   4.906   1.047  0.0345 -0.2695 -1.4785
37468SOL     OW24128   4.098   9.321  11.398 -0.7426  0.0570  0.0414
37468SOL    HW124129   4.135   9.274  11.474 -1.5452  1.6486  1.4855
37468SOL    HW224130   4.168   9.318  11.333  1.3964  1.5282  2.0788
37469SOL     OW24131   8.716   3.126   6.980  0.1354  0.1287 -0.0434
37469SOL    HW124132   8.702   3.219   6.997  1.6337  0.5337 -0.8485
37469SOL    HW224133   8.739   3.088   7.064 -2.9219 -0.0722  0.8223
37470SOL     OW24134   9.850   0.195   2.448 -0.2154  0.2907  0.2482
37470SOL    HW124135   9.803   0.188   2.365 -0.3284  0.1574  0.3236
37470SOL    HW224136   9.878   0.286   2.452 -1.0665  0.5510  0.5285
37471SOL     OW24137   6.200  10.214  13.248  0.0195 -0.1954 -0.3474
37471SOL    HW124138   6.155  10.285  13.293 -1.3070 -1.1385 -0.0978
37471SOL    HW224139   6.256  10.175  13.315  1.7060  1.3267 -0.7997
37472SOL     OW24140   3.945  12.630   7.971  0.1346  0.4301 -0.1725
37472SOL    HW124141   3.861  12.672   7.950  0.0055  0.8241  1.0252
37472SOL    HW224142   3.943  12.620   8.067  2.5200  2.8064  0.2344
37473SOL     OW24143   2.570   1.847  13.403 -0.0188  0.2557 -0.0975
37473SOL    HW124144   2.518   1.852  13.484 -1.6312  0.8590 -1.1236
37473SOL    HW224145   2.652   1.891  13.425  0.1263 -0.7770  1.6012
37474SOL     OW24146   9.316   3.774   8.069 -0.0487  0.0795  0.4280
37474SOL    HW124147   9.245   3.796   8.129 -0.6261  2.4257 -0.9721
37474SOL    HW224148   9.388   3.832   8.096  1.1139 -1.6441  1.2660
37475SOL     OW24149   2.920   8.390   0.359  0.5465  0.5580  0.0322
37475SOL    HW124150   2.940   8.297   0.367 -0.1269  0.2837 -1.2415
37475SOL    HW224151   2.983   8.433   0.418  0.1181 -0.7547  1.5291
37476SOL     OW24152  13.121   2.904   0.226  0.1420  0.1880  0.0315
37476SOL    HW124153  13.053   2.837   0.226  0.1540  0.1695 -0.4554
37476SOL    HW224154  13.189   2.871   0.285  1.1094 -1.2360 -1.7657
37477SOL     OW24155   8.705   4.551   9.533 -0.8894  0.1063  0.6744
37477SOL    HW124156   8.665   4.467   9.556  1.1252 -0.6579  1.6408
37477SOL    HW224157   8.774   4.563   9.598 -0.3607  1.9562 -0.1652
37478SOL     OW24158   9.059   4.495  12.954 -0.0197  0.1868  0.2675
37478SOL    HW124159   9.026   4.451  12.875 -1.7230  1.3145  0.3084
37478SOL    HW224160   9.066   4.424  13.019  0.1043 -0.5234 -0.4975
37479SOL     OW24161  13.278   1.525   9.207 -0.1619  0.3886  0.0810
37479SOL    HW124162  13.236   1.539   9.122  1.7171  0.4080 -0.8888
37479SOL    HW224163  13.262   1.433   9.227 -2.0449  0.7753  0.5588
37480SOL     OW24164  12.128  13.618   3.458 -0.0557  0.1465 -0.6699
37480SOL    HW124165  12.142  13.712   3.468 -0.2640 -0.0634  2.1929
37480SOL    HW224166  12.216  13.580   3.459 -0.0298  0.2104 -0.5664
37481SOL     OW24167   2.159  10.572   6.283  0.1366  0.0750  0.1883
37481SOL    HW124168   2.121  10.498   6.234  0.0251  0.3193 -0.0959
37481SOL    HW224169   2.108  10.648   6.255  0.8225  0.4075 -0.1813
37482SOL     OW24170  13.278  11.164   3.688  0.0233  0.2238  0.2963
37482SOL    HW124171  13.369  11.133   3.688 -0.1561 -0.3663 -1.2353
37482SOL    HW224172  13.230  11.100   3.740  0.5691  0.8881  1.6696
37483SOL     OW24173  13.063   0.567   4.341  0.1397 -0.2214 -0.2904
37483SOL    HW124174  13.148   0.555   4.382  0.2288  0.0537 -0.3973
37483SOL    HW224175  13.039   0.479   4.310  0.8649 -0.1107 -1.2002
37484SOL     OW24176   7.296  11.063   9.414  0.0496  0.1327  0.4921
37484SOL    HW124177   7.249  11.104   9.487  0.7244 -0.2656  1.1589
37484SOL    HW224178   7.377  11.029   9.453  0.8471  0.6969 -0.6130
37485SOL     OW24179   4.086   2.303   2.940  0.2021 -0.7379  0.7450
37485SOL    HW124180   4.063   2.213   2.963 -1.5436 -0.3389  0.6862
37485SOL    HW224181   4.146   2.330   3.010 -0.1985 -1.5485  1.4206
37486SOL     OW24182   5.695   6.332   2.714 -0.4662 -0.1772  0.7240
37486SOL    HW124183   5.620   6.319   2.657  0.6638  0.8085 -1.0736
37486SOL    HW224184   5.730   6.244   2.729 -1.7814 -0.6178  1.3874
37487SOL     OW24185  13.674  12.377   7.571  0.5872  0.6754 -0.8694
37487SOL    HW124186  13.637  12.341   7.651  0.9939 -1.1547 -1.4461
37487SOL    HW224187  13.649  12.314   7.503  0.0775  2.2787 -2.2315
37488SOL     OW24188   1.768   5.596  10.942  0.5320 -0.0597 -0.6396
37488SOL    HW124189   1.726   5.665  10.891 -0.3801  0.0288  0.2076
37488SOL    HW224190   1.824   5.643  11.004 -0.0601 -0.0753 -0.0881
37489SOL     OW24191  11.889   2.983   1.802 -0.7462 -0.3069 -0.3782
37489SOL    HW124192  11.850   2.986   1.715 -1.0380  0.0022 -0.2375
37489SOL    HW224193  11.815   2.981   1.862 -0.5530  0.2789 -0.1124
37490SOL     OW24194   6.398  12.143  12.250  0.0321 -0.1078 -0.5783
37490SOL    HW124195   6.391  12.069  12.190  0.9159 -0.5079 -0.2095
37490SOL    HW224196   6.480  12.186  12.226 -0.7944  1.1741 -1.2322
37491SOL     OW24197   7.936  12.316   1.705 -0.3425 -0.4403 -0.5131
37491SOL    HW124198   7.989  12.387   1.669  0.5438 -1.5607 -1.5041
37491SOL    HW224199   7.999  12.254   1.740 -1.0450 -1.2673 -0.6677
37492SOL     OW24200  13.160   5.456  13.627 -0.0489  0.0303 -0.8229
37492SOL    HW124201  13.066   5.472  13.638 -0.0770 -1.6408  3.0076
37492SOL    HW224202  13.165   5.383  13.566 -1.4276 -0.9768  0.1918
37493SOL     OW24203   9.407   1.171   8.774  0.3132 -0.2424 -0.3723
37493SOL    HW124204   9.388   1.077   8.773  1.8070 -0.5891  0.5737
37493SOL    HW224205   9.398   1.197   8.866  1.7511  0.1133 -0.3100
37494SOL     OW24206   9.306   1.079  12.758  0.1754  0.2074  0.4354
37494SOL    HW124207   9.222   1.102  12.798  0.2976  0.3735  0.5956
37494SOL    HW224208   9.322   0.990  12.786 -0.1258  0.0449  0.1052
37495SOL     OW24209   8.110   4.269   0.800 -0.5121  0.0984 -0.4854
37495SOL    HW124210   8.124   4.241   0.891 -0.5463 -2.4300 -1.1664
37495SOL    HW224211   8.019   4.247   0.782 -1.0470  2.2455 -0.6531
37496SOL     OW24212   3.115   4.197   5.896 -0.6790 -0.1173 -0.2997
37496SOL    HW124213   3.205   4.165   5.888 -0.0995  1.6630 -1.2952
37496SOL    HW224214   3.063   4.118   5.914  0.9743 -1.2687 -0.3808
37497SOL     OW24215   6.240  12.431   1.633 -0.3096 -0.7920  0.3820
37497SOL    HW124216   6.183  12.385   1.572 -0.8207  0.8863 -0.4719
37497SOL    HW224217   6.190  12.433   1.715  0.3935 -3.0784  0.9552
37498SOL     OW24218   4.951   9.719   2.395 -0.3964  0.3206 -0.1592
37498SOL    HW124219   4.891   9.655   2.432 -0.4818  0.3315 -0.2772
37498SOL    HW224220   4.927   9.802   2.437  0.8777 -0.0111  1.3503
37499SOL     OW24221  13.294   0.118  12.368  0.5519 -0.3168  0.3835
37499SOL    HW124222  13.213   0.123  12.318 -0.1154 -0.2650  1.4470
37499SOL    HW224223  13.320   0.210  12.380 -0.3550 -0.2056  1.7863
37500SOL     OW24224  10.706   5.881   0.371 -0.0377 -0.1487 -0.9329
37500SOL    HW124225  10.739   5.793   0.387  0.5131  0.4195  1.5348
37500SOL    HW224226  10.776   5.925   0.322  0.6966 -0.4242 -0.1431
37501SOL     OW24227  12.690   2.396   7.263  0.0215 -0.2028 -0.1229
37501SOL    HW124228  12.622   2.451   7.221 -1.5926 -2.2949 -0.4103
37501SOL    HW224229  12.650   2.309   7.268  2.3428 -1.2856  0.6720
37502SOL     OW24230  12.350   9.360  11.781  0.0676  0.3824 -0.3615
37502SOL    HW124231  12.309   9.422  11.721 -2.0119  0.9551  1.5102
37502SOL    HW224232  12.441   9.387  11.786 -0.5738  2.7075 -0.3619
37503SOL     OW24233   4.831   8.307  13.284  0.2999 -0.4270 -0.4323
37503SOL    HW124234   4.813   8.348  13.199  2.8985  0.4203 -0.6452
37503SOL    HW224235   4.822   8.378  13.347  2.6813  0.0633 -0.5595
37504SOL     OW24236   3.684  12.670   4.349  0.3634  0.0058  0.2363
37504SOL    HW124237   3.773  12.697   4.328  0.8541 -1.1071  0.8252
37504SOL    HW224238   3.692  12.621   4.431 -1.2065  2.3415  1.8970
37505SOL     OW24239   1.487   6.712   7.926  0.0202 -0.1724 -0.1831
37505SOL    HW124240   1.470   6.640   7.986 -1.5329 -0.6723 -1.1401
37505SOL    HW224241   1.540   6.774   7.976 -1.4542 -0.4273  1.8135
37506SOL     OW24242   0.712   7.554   1.469  0.3353  0.1552  0.1766
37506SOL    HW124243   0.656   7.623   1.505  0.1077 -0.3071  0.7239
37506SOL    HW224244   0.778   7.600   1.417  1.4035  0.9292  2.1383
37507SOL     OW24245   8.698   1.606   0.412  0.4310 -0.5385  0.1801
37507SOL    HW124246   8.722   1.523   0.372 -0.8703 -1.6825  1.6536
37507SOL    HW224247   8.775   1.631   0.464  0.6899 -0.9897  0.0176
37508SOL     OW24248   1.267   6.902   2.404 -0.1658 -0.3480  0.2850
37508SOL    HW124249   1.259   6.975   2.342 -0.2468 -0.5478  0.0592
37508SOL    HW224250   1.343   6.925   2.458  0.0867 -0.3142 -0.0781
37509SOL     OW24251  11.441  10.010   7.205  0.1200  0.6854 -0.6316
37509SOL    HW124252  11.474   9.923   7.180 -0.2077  0.0047  1.1354
37509SOL    HW224253  11.346  10.000   7.205  0.0452  1.3120 -1.2170
37510SOL     OW24254   1.830  13.733   8.590 -0.3394  0.0634 -0.9321
37510SOL    HW124255   1.923  13.725   8.607 -0.7043 -0.9764  0.7204
37510SOL    HW224256   1.825  13.769   8.501  1.6186  0.8661 -0.7643
37511SOL     OW24257  10.868   7.506   2.015  0.4142 -0.1762  0.1272
37511SOL    HW124258  10.815   7.440   2.060 -1.8475  0.1225 -1.8540
37511SOL    HW224259  10.941   7.524   2.075 -1.5036 -0.9045  2.8713
37512SOL     OW24260   4.343   9.469   5.135  0.0665  0.7658 -0.1379
37512SOL    HW124261   4.364   9.376   5.132  2.3521  1.2368 -0.9095
37512SOL    HW224262   4.323   9.491   5.044  0.8870  1.2771 -0.2039
37513SOL     OW24263   9.619   1.003   0.328 -0.2742 -0.6850  0.1007
37513SOL    HW124264   9.551   0.940   0.304  0.1374 -0.8402 -0.7040
37513SOL    HW224265   9.571   1.083   0.351 -0.7402 -0.8267 -0.3578
37514SOL     OW24266   6.470  11.352   5.824 -0.1498  1.0872 -0.0653
37514SOL    HW124267   6.377  11.371   5.831 -0.0983  1.5072 -0.4347
37514SOL    HW224268   6.492  11.371   5.733  0.3806  1.3986  0.1206
37515SOL     OW24269   0.745  10.295   0.166  0.2803  0.0768  0.0847
37515SOL    HW124270   0.657  10.329   0.183 -0.0557 -2.0165  3.3106
37515SOL    HW224271   0.803  10.363   0.198 -0.3358 -0.7999  3.3671
37516SOL     OW24272   0.296   1.484  11.142  0.2434 -0.3314 -0.2184
37516SOL    HW124273   0.317   1.461  11.233  2.7751 -1.5666 -1.0108
37516SOL    HW224274   0.332   1.572  11.131 -0.3967 -0.0311  0.0680
37517SOL     OW24275   6.435   7.768   3.689  0.1991 -0.0484  0.1924
37517SOL    HW124276   6.352   7.808   3.716 -0.9692 -2.1674 -0.0980
37517SOL    HW224277   6.439   7.784   3.595 -0.4220 -0.8413  0.0203
37518SOL     OW24278   6.593   2.685  11.414  0.0457 -0.2549 -0.0127
37518SOL    HW124279   6.566   2.678  11.506  0.7792 -0.5833  0.1828
37518SOL    HW224280   6.545   2.616  11.369 -0.8565  0.3501 -0.0192
37519SOL     OW24281   5.636   0.902   8.132  0.2827 -0.0240  0.1084
37519SOL    HW124282   5.663   0.940   8.048  2.1959  1.1820  1.1957
37519SOL    HW224283   5.713   0.911   8.188 -1.3383  0.4678  2.4049
37520SOL     OW24284   8.469  10.878  12.276  0.4992  0.4166 -0.8693
37520SOL    HW124285   8.398  10.832  12.320  0.1045  2.8072  1.2000
37520SOL    HW224286   8.536  10.811  12.262 -0.1707 -0.9215  1.6630
37521SOL     OW24287  11.348   0.367   5.269  0.0407 -0.0366 -0.2122
37521SOL    HW124288  11.321   0.324   5.350 -2.4518 -0.3478 -1.1227
37521SOL    HW224289  11.434   0.329   5.250 -0.0095 -1.1170  1.4379
37522SOL     OW24290  10.562   8.798   9.627 -0.0953  0.3671 -0.2158
37522SOL    HW124291  10.495   8.729   9.624 -0.1098  0.3853 -0.3143
37522SOL    HW224292  10.644   8.753   9.611 -0.0461  0.2954  0.2369
37523SOL     OW24293   6.891   1.724  11.481 -0.2026  0.4627 -0.4959
37523SOL    HW124294   6.906   1.818  11.467  0.8546  0.0213 -2.9908
37523SOL    HW224295   6.861   1.692  11.396  0.0613 -1.5766  0.1255
37524SOL     OW24296   3.819  12.601   1.510  0.3377  0.4676  0.1589
37524SOL    HW124297   3.851  12.539   1.576  1.2095  1.8103  1.0478
37524SOL    HW224298   3.895  12.656   1.489 -0.6366  1.8963  0.1850
37525SOL     OW24299   2.731   4.361   0.149  0.0011  0.2237  0.0006
37525SOL    HW124300   2.680   4.440   0.170 -0.2322  0.0173  0.2113
37525SOL    HW224301   2.739   4.314   0.232 -1.6360 -1.0095 -0.4912
37526SOL     OW24302   8.074   1.174   7.902 -0.2738 -0.0024  0.2564
37526SOL    HW124303   8.108   1.084   7.907 -0.8721 -0.3847 -1.6433
37526SOL    HW224304   8.132   1.218   7.841  0.1100  0.9702  1.3087
37527SOL     OW24305   5.649   1.232   3.645 -0.5225  0.0185  0.4821
37527SOL    HW124306   5.670   1.141   3.668  1.8847  0.4875  0.4300
37527SOL    HW224307   5.676   1.239   3.554 -1.3676  0.6259  0.2709
37528SOL     OW24308  11.067   8.866   8.304 -0.3468  0.1824 -0.3310
37528SOL    HW124309  11.081   8.775   8.279 -1.7873 -0.1876  0.0994
37528SOL    HW224310  10.997   8.897   8.247 -1.1525  0.4318  0.7507
37529SOL     OW24311   9.220  11.591   5.387  0.8853 -0.4356 -0.4571
37529SOL    HW124312   9.185  11.608   5.474  2.1003 -2.3967  0.4635
37529SOL    HW224313   9.182  11.660   5.333 -0.3360  0.5106  1.4888
37530SOL     OW24314  10.176   3.153  11.963  0.0857  0.1858 -0.2976
37530SOL    HW124315  10.252   3.110  11.924 -0.1596 -0.3310 -0.2138
37530SOL    HW224316  10.119   3.172  11.889  0.2284  0.4338 -0.3436
37531SOL     OW24317   3.095   2.767   8.619 -0.7115  0.3372 -0.1755
37531SOL    HW124318   3.116   2.710   8.693  1.0095 -0.1610 -0.9952
37531SOL    HW224319   3.003   2.788   8.631 -1.0572 -1.5351  0.8892
37532SOL     OW24320   0.418   0.528  10.651 -0.4238 -1.3191  0.8419
37532SOL    HW124321   0.376   0.516  10.736  0.2990  0.2869  1.4751
37532SOL    HW224322   0.445   0.620  10.650  0.7129 -1.6192 -0.6083
37533SOL     OW24323  10.331  12.668   9.010  0.4601 -0.0037  0.1571
37533SOL    HW124324  10.426  12.675   9.006  0.3411  2.8013 -0.2894
37533SOL    HW224325  10.305  12.643   8.921  0.7557  0.0528  0.0525
37534SOL     OW24326   6.973  13.346   2.369  0.2318 -0.5368 -0.3896
37534SOL    HW124327   7.030  13.278   2.404 -0.7180 -2.5075 -2.4234
37534SOL    HW224328   7.033  13.411   2.331  1.1598  0.1135  2.0070
37535SOL     OW24329   7.778   0.235   7.353  0.6429  0.0616  0.3463
37535SOL    HW124330   7.732   0.151   7.358  0.2944  0.3385  2.4832
37535SOL    HW224331   7.838   0.224   7.279 -1.4782 -0.9688 -1.3412
37536SOL     OW24332   0.139  10.652   6.098  0.1929 -0.6776  0.4369
37536SOL    HW124333   0.046  10.653   6.076  0.3914 -1.9866 -0.6353
37536SOL    HW224334   0.183  10.636   6.014  1.2363 -2.2233  1.2222
37537SOL     OW24335   5.976  13.338   6.262  0.3756 -0.8153 -0.0302
37537SOL    HW124336   5.901  13.324   6.205  0.2724 -2.4080  0.4473
37537SOL    HW224337   6.021  13.413   6.225 -0.3256 -1.1007 -1.5237
37538SOL     OW24338   6.762   8.743   4.848 -0.1822 -0.5090 -0.3729
37538SOL    HW124339   6.780   8.833   4.876  0.0189 -0.1845 -1.4950
37538SOL    HW224340   6.846   8.711   4.816  0.0549 -1.5589  1.1868
37539SOL     OW24341  10.554   0.279   9.159 -0.1693 -0.4192  0.4074
37539SOL    HW124342  10.505   0.198   9.144 -1.7160  0.1581  2.0022
37539SOL    HW224343  10.533   0.334   9.083  0.4007 -1.2496 -0.3767
37540SOL     OW24344   4.682   6.206   8.811 -0.2279 -0.1183  0.2604
37540SOL    HW124345   4.607   6.233   8.757 -0.3479  0.9642  0.9372
37540SOL    HW224346   4.725   6.289   8.835  0.8438 -0.6875  0.3780
37541SOL     OW24347   5.549   4.020  12.384 -0.2145 -0.0269 -0.1650
37541SOL    HW124348   5.549   4.095  12.326 -0.5201 -1.1368 -1.6510
37541SOL    HW224349   5.620   4.037  12.446  0.0630  1.2187 -0.8037
37542SOL     OW24350  12.209   2.387   0.116  0.6613 -0.4708  0.0461
37542SOL    HW124351  12.272   2.330   0.072 -0.3816 -1.1260 -0.6429
37542SOL    HW224352  12.206   2.356   0.206  2.9653  1.0057  0.7038
37543SOL     OW24353   9.779   1.590  10.860 -0.6522 -0.4891  0.1606
37543SOL    HW124354   9.735   1.613  10.942 -0.3946  1.1877 -0.1313
37543SOL    HW224355   9.846   1.527  10.885  0.6219  1.3129  1.5682
37544SOL     OW24356   0.330   5.264   4.942  0.2944 -0.2726  0.2936
37544SOL    HW124357   0.246   5.234   4.976  0.8904 -0.0684  2.0503
37544SOL    HW224358   0.327   5.243   4.848 -0.8395 -2.2452  0.7136
37545SOL     OW24359   6.539   2.214   7.132  0.6562  0.3229  0.1906
37545SOL    HW124360   6.578   2.142   7.181 -0.9903 -2.6061 -2.3845
37545SOL    HW224361   6.481   2.171   7.069 -0.7684  3.9872 -1.2885
37546SOL     OW24362  12.032   9.505   8.702  0.6214  0.7239 -0.3835
37546SOL    HW124363  12.021   9.475   8.792 -0.7148 -1.1722 -1.1088
37546SOL    HW224364  12.098   9.447   8.665  1.7633  2.0187 -0.4303
37547SOL     OW24365   8.545  12.861   4.380  0.3777  0.1270  0.0851
37547SOL    HW124366   8.537  12.770   4.409 -1.6926  0.0963 -0.4168
37547SOL    HW224367   8.598  12.855   4.300 -0.1183 -0.6885 -0.1943
37548SOL     OW24368  12.194  13.694  13.301  0.3521  0.3777  0.4066
37548SOL    HW124369  12.111  13.672  13.257  0.9907  0.5543 -0.9598
37548SOL    HW224370  12.202  13.789  13.290  0.9087  0.3100  0.1780
37549SOL     OW24371  11.224   0.005  11.661  0.6225  0.0536  0.2118
37549SOL    HW124372  11.140  -0.036  11.681  0.5276  0.9508  1.7949
37549SOL    HW224373  11.286  -0.068  11.659  0.3288 -0.3324  2.2401
37550SOL     OW24374  10.888   2.159  11.883  0.2198 -0.1049 -0.6871
37550SOL    HW124375  10.860   2.091  11.945 -0.7887 -0.5604 -1.6166
37550SOL    HW224376  10.970   2.191  11.919  1.9446 -3.3421 -1.3292
37551SOL     OW24377   4.842   2.513   8.117 -0.3996 -1.0499  0.2006
37551SOL    HW124378   4.811   2.505   8.027 -0.5019  0.1173  0.1282
37551SOL    HW224379   4.772   2.476   8.170 -1.0926 -0.1580 -0.0868
37552SOL     OW24380   0.028   5.657   2.954  0.6115 -0.4026 -0.1428
37552SOL    HW124381  -0.010   5.726   3.009 -0.5563  0.1430 -1.5649
37552SOL    HW224382   0.052   5.588   3.016 -0.3341  0.3159  1.0882
37553SOL     OW24383   9.471  11.917  10.059 -0.2026  0.4672  0.2597
37553SOL    HW124384   9.427  11.929  10.143 -0.1057  1.8946  0.1328
37553SOL    HW224385   9.556  11.960  10.069 -0.3868  1.1035 -0.7039
37554SOL     OW24386   0.437   9.291   3.559  0.4403  0.3653 -0.1119
37554SOL    HW124387   0.485   9.261   3.481  0.9978  0.0867  0.3291
37554SOL    HW224388   0.365   9.228   3.568 -1.6251  2.2032 -2.2461
37555SOL     OW24389   2.483  13.586   2.000 -0.3051 -0.1789  0.1572
37555SOL    HW124390   2.518  13.635   1.926 -0.2356  1.0795  0.9787
37555SOL    HW224391   2.431  13.651   2.049 -2.2376 -1.5260  0.0011
37556SOL     OW24392   6.546   6.794  10.308 -0.8270  0.1583 -0.6685
37556SOL    HW124393   6.524   6.877  10.350  0.5910  0.1244  0.2020
37556SOL    HW224394   6.534   6.810  10.214 -0.9792  1.2073 -0.4818
37557SOL     OW24395   3.947  12.746   2.134  0.2445 -0.0517 -0.1602
37557SOL    HW124396   3.928  12.829   2.090  0.6281 -0.0626 -0.3484
37557SOL    HW224397   3.953  12.768   2.227  1.6390  0.3757 -0.3243
37558SOL     OW24398   2.888   2.015  13.187  0.1452  0.1438  0.8716
37558SOL    HW124399   2.879   1.925  13.154 -0.9872  0.3677  0.5176
37558SOL    HW224400   2.869   2.008  13.280 -2.0552  0.2881  0.4934
37559SOL     OW24401  10.589   6.756   5.889 -0.3913  0.2663 -0.1496
37559SOL    HW124402  10.628   6.742   5.803 -1.5209  2.4591 -1.0972
37559SOL    HW224403  10.528   6.683   5.899  1.0059 -0.9835 -0.3927
37560SOL     OW24404  10.114   1.922   5.730 -0.2911 -0.0904  0.0449
37560SOL    HW124405  10.028   1.885   5.709 -0.4751  0.4963 -0.2577
37560SOL    HW224406  10.094   2.004   5.775  0.1097  0.0612 -0.0519
37561SOL     OW24407  12.047   5.903   8.563 -0.1135  0.0688  0.1772
37561SOL    HW124408  11.988   5.838   8.526  0.5594 -0.8186  0.6440
37561SOL    HW224409  12.097   5.935   8.488 -0.1227 -0.2879  0.0172
37562SOL     OW24410   2.441   6.499   7.811  0.3299  0.0739 -0.6008
37562SOL    HW124411   2.427   6.520   7.719 -0.9177  0.5997 -0.3144
37562SOL    HW224412   2.374   6.548   7.858  1.2107  0.1623  0.6419
37563SOL     OW24413   9.969  10.793   9.748 -0.1105 -0.3535  0.6506
37563SOL    HW124414   9.923  10.766   9.828  1.2101 -0.4784  1.3909
37563SOL    HW224415  10.045  10.842   9.779  0.1991 -0.0417 -0.5494
37564SOL     OW24416   1.189   1.446   7.566 -0.0078 -0.0690 -0.3243
37564SOL    HW124417   1.105   1.473   7.603  1.0887  2.4435  0.5564
37564SOL    HW224418   1.246   1.432   7.642  1.3374  1.8371 -0.9144
37565SOL     OW24419   1.191   7.009   7.922  0.1959  0.2958  0.1917
37565SOL    HW124420   1.123   7.067   7.888  0.3257  1.8289  2.3089
37565SOL    HW224421   1.208   6.947   7.851 -2.0593  1.0192 -1.0779
37566SOL     OW24422   0.250   5.814   8.017 -0.2994  0.3016 -0.6918
37566SOL    HW124423   0.164   5.813   8.059  0.0596  0.4370  0.0604
37566SOL    HW224424   0.286   5.901   8.038 -1.0962  1.3686 -3.3271
37567SOL     OW24425   6.827   1.431   4.936  0.1725 -0.5756  0.1865
37567SOL    HW124426   6.914   1.391   4.927 -0.2911 -1.5222 -0.2447
37567SOL    HW224427   6.777   1.368   4.988 -0.7637 -0.8943 -1.0495
37568SOL     OW24428   6.155   3.180   0.913 -0.4737  0.1714 -0.4407
37568SOL    HW124429   6.131   3.247   0.849 -0.4815 -0.0304 -0.6539
37568SOL    HW224430   6.142   3.097   0.866  0.1500  0.0430 -0.4005
37569SOL     OW24431  12.867  10.925   8.488  0.0082  0.0642  0.3789
37569SOL    HW124432  12.819  10.925   8.405  0.3271 -1.3807  0.1729
37569SOL    HW224433  12.957  10.906   8.463  0.1113 -0.3640  1.0558
37570SOL     OW24434  13.521   9.240   6.706 -0.7455 -0.5263 -0.3979
37570SOL    HW124435  13.595   9.232   6.647 -1.8411 -2.5681 -1.6055
37570SOL    HW224436  13.544   9.313   6.764  2.0877 -1.0063 -0.8098
37571SOL     OW24437  10.237   6.729   1.450  0.1023 -0.1881 -0.3993
37571SOL    HW124438  10.215   6.640   1.423 -1.4060  0.1223 -0.2373
37571SOL    HW224439  10.319   6.748   1.404 -0.8016 -0.7786 -2.3229
37572SOL     OW24440  11.328  11.096  12.943  0.2442 -1.0955 -0.1046
37572SOL    HW124441  11.410  11.116  12.898 -0.2006 -2.7760 -1.7740
37572SOL    HW224442  11.356  11.060  13.028  1.3221 -2.8006 -1.1256
37573SOL     OW24443   8.121   2.920   9.614 -0.5015 -0.5626  0.1029
37573SOL    HW124444   8.034   2.895   9.644 -0.0073 -0.6097  1.6303
37573SOL    HW224445   8.166   2.948   9.694  1.1840 -1.4172 -0.4985
37574SOL     OW24446   5.330   1.324   8.778 -0.3459 -0.1098 -0.5813
37574SOL    HW124447   5.286   1.401   8.813  1.0858  0.3039  0.3920
37574SOL    HW224448   5.261   1.258   8.771 -1.7099  1.4086 -1.9938
37575SOL     OW24449  11.030   4.216   4.456  0.2187  0.4597  0.2768
37575SOL    HW124450  10.950   4.213   4.403 -0.9369  0.2690  1.9638
37575SOL    HW224451  11.073   4.132   4.439  1.0303  1.2672 -2.0050
37576SOL     OW24452   3.741   7.186   8.540 -0.5445 -0.1603  0.2129
37576SOL    HW124453   3.667   7.220   8.491 -0.0196  1.1134  0.2776
37576SOL    HW224454   3.800   7.151   8.473 -0.9357 -0.6627  0.1243
37577SOL     OW24455   3.252   5.308   8.937  0.7541 -0.4621 -0.1208
37577SOL    HW124456   3.297   5.232   8.972  0.8196  0.0545  0.9433
37577SOL    HW224457   3.273   5.379   8.997 -1.4528 -0.1972  0.4071
37578SOL     OW24458   1.505   3.476   8.648  0.0376 -0.0086 -0.0254
37578SOL    HW124459   1.473   3.548   8.594 -0.5183  0.2845  0.6797
37578SOL    HW224460   1.518   3.404   8.586 -0.4837  0.3513 -0.5689
37579SOL     OW24461  10.259  10.870   5.405 -0.1834 -0.1640 -0.7407
37579SOL    HW124462  10.236  10.960   5.382  1.0935  1.2313  2.7056
37579SOL    HW224463  10.176  10.829   5.428 -0.6216  0.6806 -0.7688
37580SOL     OW24464   0.038  13.327   3.149 -0.0168  0.1699 -0.1076
37580SOL    HW124465   0.044  13.343   3.243 -0.2568  1.3596 -0.2783
37580SOL    HW224466   0.097  13.253   3.133 -1.6302 -1.4934  1.2964
37581SOL     OW24467   0.525   9.675   7.330  0.0948 -0.3354  0.3397
37581SOL    HW124468   0.581   9.753   7.332 -0.0842 -0.1989 -0.0223
37581SOL    HW224469   0.461   9.689   7.400  0.8102 -0.7198  1.0986
37582SOL     OW24470   8.915  10.724   2.535  0.1240  0.2553 -0.6091
37582SOL    HW124471   8.964  10.800   2.567 -0.6321  0.2983  0.4694
37582SOL    HW224472   8.870  10.690   2.612 -0.1659 -0.8315 -1.2407
37583SOL     OW24473   7.553   9.035   3.941  0.5751 -0.0708  0.2454
37583SOL    HW124474   7.598   8.966   3.893  0.7967 -0.5381  1.1086
37583SOL    HW224475   7.610   9.054   4.015  0.3111  0.7452  0.2499
37584SOL     OW24476   8.317   8.669  11.572 -0.1304 -0.0177  0.1108
37584SOL    HW124477   8.362   8.588  11.594 -1.1892 -0.3302  1.2402
37584SOL    HW224478   8.337   8.729  11.644 -2.0086 -0.3938  1.0213
37585SOL     OW24479   9.439   1.125   3.468 -0.0115  0.4707  0.6830
37585SOL    HW124480   9.522   1.155   3.505  0.6494 -0.4254 -0.0351
37585SOL    HW224481   9.459   1.041   3.427 -0.9304  0.9314 -0.8107
37586SOL     OW24482   5.692   2.311   6.553 -0.0633  0.0581 -0.1662
37586SOL    HW124483   5.617   2.255   6.571  0.4420 -0.3920  0.5551
37586SOL    HW224484   5.658   2.377   6.491 -0.6057 -1.1383 -1.1895
37587SOL     OW24485  12.457   6.226   3.643 -0.4690 -0.1556 -0.6845
37587SOL    HW124486  12.452   6.179   3.726  2.2787 -0.3239 -0.5266
37587SOL    HW224487  12.446   6.158   3.576  2.3531 -0.9548 -0.4465
37588SOL     OW24488   2.492   2.021   0.276 -0.0741 -0.2502 -0.4701
37588SOL    HW124489   2.505   2.067   0.193  1.5422 -0.5890 -0.4427
37588SOL    HW224490   2.458   2.088   0.336  1.3131  0.6979 -0.6896
37589SOL     OW24491   1.688  12.330  10.636 -0.0949  1.1645 -0.0435
37589SOL    HW124492   1.690  12.277  10.716  1.5087 -0.2398 -0.9322
37589SOL    HW224493   1.708  12.419  10.666  1.7108  0.4688  1.0317
37590SOL     OW24494   2.469  11.585  12.347 -0.0674 -1.0831  0.2760
37590SOL    HW124495   2.515  11.527  12.409  2.1546  0.8752  0.6371
37590SOL    HW224496   2.462  11.668  12.394  1.9290  0.5580 -2.0857
37591SOL     OW24497   3.990   3.626   0.371 -0.5937 -0.2171  0.1603
37591SOL    HW124498   4.041   3.640   0.291 -1.4239 -1.2978 -0.5790
37591SOL    HW224499   4.015   3.540   0.401 -1.7762 -0.6755 -0.0892
37592SOL     OW24500   4.343  10.474  13.647 -0.4172  0.4980  0.0012
37592SOL    HW124501   4.375  10.418  13.576 -0.7240 -0.3470  0.5268
37592SOL    HW224502   4.305  10.550  13.602 -1.1017 -0.2864 -0.7682
37593SOL     OW24503   9.310   5.443  11.856  0.3277  0.1526 -0.4157
37593SOL    HW124504   9.297   5.349  11.867  1.4535 -0.0036 -0.2693
37593SOL    HW224505   9.382   5.450  11.793  1.2367  0.8895  0.6789
37594SOL     OW24506   0.070   9.589   1.833  0.1798  0.3638  0.3914
37594SOL    HW124507  -0.023   9.604   1.850  0.3747  1.3697  0.6446
37594SOL    HW224508   0.111   9.589   1.920  0.6709  1.8896  0.1940
37595SOL     OW24509  12.639   0.943  11.161  0.3799  0.2294 -0.0938
37595SOL    HW124510  12.706   0.921  11.226  0.4687 -1.0079 -0.5867
37595SOL    HW224511  12.571   0.988  11.212  1.2352  0.8390  0.5413
37596SOL     OW24512   1.672   5.353   9.254 -0.2251  0.0676  0.1525
37596SOL    HW124513   1.649   5.434   9.208 -0.6429 -0.3335 -0.3633
37596SOL    HW224514   1.754   5.325   9.214 -2.3237 -2.1855 -2.9830
37597SOL     OW24515  11.730  12.794  10.875  0.6364  0.1371 -0.3920
37597SOL    HW124516  11.792  12.721  10.887 -0.1104 -0.5034 -0.3586
37597SOL    HW224517  11.649  12.764  10.916  0.8736  1.7922  1.4669
37598SOL     OW24518   6.026   9.452   1.396 -0.0480  0.3261 -0.3438
37598SOL    HW124519   6.005   9.522   1.334  1.2529  0.9464 -0.1267
37598SOL    HW224520   6.063   9.382   1.342 -0.6873  0.0877 -0.4784
37599SOL     OW24521   7.411   4.409   6.029 -0.0815 -0.1069  0.4713
37599SOL    HW124522   7.384   4.349   6.099 -0.3968 -1.9335 -1.1160
37599SOL    HW224523   7.360   4.380   5.952  0.1427  1.9010 -0.4957
37600SOL     OW24524  12.220   8.039  10.166 -0.4010  0.3262 -0.7915
37600SOL    HW124525  12.288   8.094  10.126 -0.1468  0.7892  0.2172
37600SOL    HW224526  12.161   8.102  10.209 -1.4018 -0.0836 -1.5461
37601SOL     OW24527   3.259  11.808  12.521  0.3696  0.2097  0.3680
37601SOL    HW124528   3.273  11.901  12.539  0.7198 -0.0618  1.5835
37601SOL    HW224529   3.336  11.765  12.559  0.1348 -0.5956 -0.0521
37602SOL     OW24530   4.610   0.054   4.244 -0.2665 -0.2247  0.2117
37602SOL    HW124531   4.552   0.006   4.185  0.9631 -0.2549 -1.0450
37602SOL    HW224532   4.556   0.075   4.319 -2.3164  0.9627 -1.4782
37603SOL     OW24533   2.068   6.152   5.603 -0.1904  0.3038 -0.0079
37603SOL    HW124534   2.033   6.181   5.519 -1.9469  2.8224  1.4762
37603SOL    HW224535   2.026   6.068   5.619  0.4439 -0.3894 -1.7378
37604SOL     OW24536   1.467   5.215   9.783 -0.7644  0.1439  0.1180
37604SOL    HW124537   1.403   5.263   9.732 -0.3199  0.9056  0.2592
37604SOL    HW224538   1.549   5.264   9.771 -0.5118 -0.0395  1.0208
37605SOL     OW24539   4.696   5.560   7.014  1.3942  0.3474  0.6732
37605SOL    HW124540   4.681   5.594   7.102  1.3953  2.0732  0.0326
37605SOL    HW224541   4.618   5.508   6.994  1.7781 -0.7854  2.0007
37606SOL     OW24542   0.292   7.165   8.216 -0.1135  0.0094  0.2847
37606SOL    HW124543   0.350   7.216   8.273  0.5791  0.3534 -0.7119
37606SOL    HW224544   0.273   7.086   8.267  1.3024 -0.1587  0.6048
37607SOL     OW24545   7.089   1.848   0.947  0.2681 -0.1252  0.4742
37607SOL    HW124546   7.013   1.854   1.005 -0.6466  1.0752 -0.7838
37607SOL    HW224547   7.052   1.849   0.858  1.6461 -1.5436 -0.1663
37608SOL     OW24548   2.102   7.889   2.536  0.5127 -0.4572  0.3527
37608SOL    HW124549   2.065   7.838   2.608  1.2534  0.1908  1.2215
37608SOL    HW224550   2.031   7.948   2.510 -0.4944 -2.1504 -0.9438
37609SOL     OW24551   1.007   9.544   0.794  0.7406  0.3981  0.0665
37609SOL    HW124552   1.023   9.469   0.737  1.3805  1.2967 -0.9674
37609SOL    HW224553   1.013   9.620   0.736 -0.0736  1.2495  1.0573
37610SOL     OW24554   2.470  10.227   1.691 -0.1417  0.1802  0.2760
37610SOL    HW124555   2.515  10.220   1.607  0.8687 -0.5114  0.8557
37610SOL    HW224556   2.459  10.321   1.705 -0.5133  0.2965 -0.7151
37611SOL     OW24557   4.210   0.909   4.131  0.0568  0.2565  0.0821
37611SOL    HW124558   4.153   0.948   4.064  0.4657 -0.5221 -0.7335
37611SOL    HW224559   4.150   0.860   4.187 -0.5574  2.4764  1.4921
37612SOL     OW24560   9.290   8.447   9.765  0.6803 -0.2788 -0.3025
37612SOL    HW124561   9.330   8.367   9.800  3.2410  1.2466  0.5020
37612SOL    HW224562   9.206   8.454   9.812 -0.2677 -3.1252 -1.3712
37613SOL     OW24563   5.667  11.051  12.852 -0.4744 -0.3731 -0.1363
37613SOL    HW124564   5.639  10.961  12.833 -1.3998  0.0380 -0.8384
37613SOL    HW224565   5.605  11.105  12.803 -0.1249  0.6548  0.5355
37614SOL     OW24566   0.258   1.543   7.418  0.2486  0.2309 -0.1492
37614SOL    HW124567   0.169   1.555   7.385  0.1857  0.7588  0.2038
37614SOL    HW224568   0.289   1.631   7.437  0.8728  0.0579 -0.3237
37615SOL     OW24569   7.428   6.625  12.316 -0.1170  0.5346  0.9603
37615SOL    HW124570   7.407   6.559  12.249 -0.0014  1.7892 -0.3469
37615SOL    HW224571   7.508   6.593  12.357 -0.7479 -0.7756  1.2316
37616SOL     OW24572   2.130   5.330   0.224  0.2281 -0.5223 -0.0370
37616SOL    HW124573   2.152   5.270   0.153  0.0200 -1.3492  0.5785
37616SOL    HW224574   2.204   5.322   0.285  1.4567  1.7502 -1.0968
37617SOL     OW24575   8.814  11.549   0.568 -0.1640  0.1725  0.0332
37617SOL    HW124576   8.820  11.640   0.537 -2.9385  0.0157 -1.3056
37617SOL    HW224577   8.753  11.554   0.642 -1.1457 -0.6906 -0.6972
37618SOL     OW24578   8.966   2.515   2.132 -0.1455 -0.1760  0.3250
37618SOL    HW124579   8.960   2.446   2.066 -1.0664  0.5877 -0.4160
37618SOL    HW224580   9.028   2.481   2.197  0.4891 -1.1036 -0.7281
37619SOL     OW24581   7.199   7.253   7.626  0.1507 -1.1756 -0.3356
37619SOL    HW124582   7.227   7.191   7.559  2.6897  0.7218 -1.2207
37619SOL    HW224583   7.280   7.284   7.665 -0.8788  1.9233 -0.3379
37620SOL     OW24584   3.098  11.857   5.296  0.0903 -0.1680  0.3383
37620SOL    HW124585   3.180  11.897   5.266 -0.0330 -0.7701 -0.8675
37620SOL    HW224586   3.062  11.919   5.359  0.0812  1.4761 -1.2178
37621SOL     OW24587   2.965  13.007   0.540  0.1301 -0.5597 -0.5327
37621SOL    HW124588   2.981  13.081   0.481 -1.3576  0.2206 -0.0072
37621SOL    HW224589   3.015  13.028   0.618 -0.3177 -0.0599 -0.3687
37622SOL     OW24590   2.022  10.298  10.444  0.4551  0.0160  0.0753
37622SOL    HW124591   1.997  10.329  10.357 -0.7013  0.7987  0.6553
37622SOL    HW224592   2.043  10.377  10.493  0.2971 -0.3458  0.7427
37623SOL     OW24593   7.824  11.695   3.561 -0.2629 -0.4582  0.6024
37623SOL    HW124594   7.917  11.717   3.556 -0.5462  0.6222 -2.9898
37623SOL    HW224595   7.781  11.777   3.583 -0.4794 -0.5049  0.3580
37624SOL     OW24596   8.382   0.987  12.742  0.1223  0.4940 -0.9780
37624SOL    HW124597   8.355   1.077  12.758  0.0156  0.6551 -1.9988
37624SOL    HW224598   8.301   0.941  12.719  0.0588 -0.0469  0.2722
37625SOL     OW24599   7.853   6.973  11.134 -0.1804 -0.2162 -0.1577
37625SOL    HW124600   7.825   6.886  11.161 -3.7996 -0.0504 -2.5846
37625SOL    HW224601   7.896   6.960  11.049 -0.9529  0.3112 -0.6514
37626SOL     OW24602   9.479  10.653  10.366 -0.5550  0.0034 -0.7125
37626SOL    HW124603   9.512  10.611  10.446  0.9329  1.8046 -0.3197
37626SOL    HW224604   9.385  10.636  10.368 -0.1009 -2.9721 -0.4337
37627SOL     OW24605   3.207  13.158  10.457 -0.6734 -0.3701  0.1191
37627SOL    HW124606   3.250  13.230  10.503  0.5340 -0.6198 -0.5720
37627SOL    HW224607   3.253  13.080  10.486 -2.4804 -0.9832  1.4449
37628SOL     OW24608  12.289   5.046   1.477  0.9862 -0.1498  0.2835
37628SOL    HW124609  12.280   5.047   1.572  1.3334  0.0320  0.3186
37628SOL    HW224610  12.383   5.061   1.462  0.9782 -0.4494 -0.0791
37629SOL     OW24611  13.364  10.852  11.859  0.5689 -0.1010 -0.8127
37629SOL    HW124612  13.384  10.832  11.951 -0.0288 -0.0255 -0.6671
37629SOL    HW224613  13.387  10.771  11.813  1.5572  0.1008 -0.7038
37630SOL     OW24614  13.353   3.840   8.396 -0.1209 -0.3679 -0.7151
37630SOL    HW124615  13.262   3.815   8.382  0.2985 -2.2306 -0.4067
37630SOL    HW224616  13.401   3.757   8.399  1.0669  0.2519  2.9146
37631SOL     OW24617   2.644   3.171   0.101 -0.2255 -0.3950  0.4873
37631SOL    HW124618   2.636   3.218   0.184 -0.1560  1.2286 -0.3836
37631SOL    HW224619   2.728   3.126   0.107 -0.2245 -0.2865  1.3065
37632SOL     OW24620  12.409   5.303   8.378 -0.8332  0.4458 -0.7497
37632SOL    HW124621  12.370   5.390   8.386 -1.0779  0.1952  1.5354
37632SOL    HW224622  12.400   5.265   8.465  0.1780 -1.4998 -1.4357
37633SOL     OW24623  10.507   9.784   9.204 -0.4147 -0.2888  0.0058
37633SOL    HW124624  10.448   9.829   9.144 -0.0578 -0.1680 -0.2564
37633SOL    HW224625  10.450   9.722   9.251 -0.6102 -0.7921 -0.8529
37634SOL     OW24626  12.875   8.251   3.542 -0.3242  0.1596 -0.2534
37634SOL    HW124627  12.835   8.213   3.620 -0.0070  1.8033  0.7538
37634SOL    HW224628  12.902   8.175   3.490  0.7270 -1.0158  1.8728
37635SOL     OW24629   6.044   1.913   1.737 -0.3363 -0.1389 -0.5523
37635SOL    HW124630   5.974   1.976   1.716 -1.2101 -0.6082  0.7826
37635SOL    HW224631   5.997   1.832   1.755  0.8555 -1.6718 -3.6662
37636SOL     OW24632   8.165  12.270  11.947  0.4434 -0.1783  0.0920
37636SOL    HW124633   8.084  12.224  11.926 -0.9006  1.7946  0.6740
37636SOL    HW224634   8.234  12.217  11.906 -1.2016 -1.4477 -1.1842
37637SOL     OW24635   5.112  10.150   8.056 -0.1340 -0.3313  0.1306
37637SOL    HW124636   5.051  10.200   8.000 -0.0687  0.8796  1.0888
37637SOL    HW224637   5.068  10.066   8.070 -0.7869 -0.1250 -0.6027
37638SOL     OW24638  12.277  12.887   6.754  0.1932  0.2002 -0.2585
37638SOL    HW124639  12.247  12.856   6.669  0.2238  0.4995 -0.3789
37638SOL    HW224640  12.295  12.980   6.741  1.1101  0.0389 -0.1692
37639SOL     OW24641   1.656   3.669   8.823  0.1332 -0.3867 -0.3878
37639SOL    HW124642   1.591   3.640   8.758 -1.6858  0.9915  0.7172
37639SOL    HW224643   1.717   3.723   8.773 -0.0805 -0.9637 -1.2955
37640SOL     OW24644   2.635   9.573  10.231  0.0347  0.6091 -0.0107
37640SOL    HW124645   2.663   9.636  10.165  0.0448  0.5138 -0.0975
37640SOL    HW224646   2.712   9.558  10.285  0.3521 -0.1939 -0.6771
37641SOL     OW24647   6.502  11.308   0.231 -0.3240  0.1989 -0.3769
37641SOL    HW124648   6.435  11.295   0.299 -0.4840  1.1675 -0.3339
37641SOL    HW224649   6.478  11.247   0.162 -1.3926  0.6769 -0.4507
37642SOL     OW24650   2.157   9.758  10.956 -0.1832 -0.0570 -0.1933
37642SOL    HW124651   2.126   9.670  10.974  0.9977 -0.2351  1.1362
37642SOL    HW224652   2.239   9.745  10.908  1.3699  0.1890  2.2395
37643SOL     OW24653   5.230   1.209  10.654 -0.1822  0.2866  0.1124
37643SOL    HW124654   5.185   1.234  10.574  0.9127 -0.5153 -0.7815
37643SOL    HW224655   5.177   1.138  10.691 -0.1578 -0.0287 -0.4478
37644SOL     OW24656   8.911   6.105  10.767  0.2491  0.1502  0.4435
37644SOL    HW124657   8.822   6.138  10.774  0.3041  0.2166  0.9067
37644SOL    HW224658   8.930   6.071  10.855  0.1447 -1.2370 -0.0411
37645SOL     OW24659   2.266  13.468   7.870  0.1180 -0.4241  0.3641
37645SOL    HW124660   2.257  13.393   7.929 -0.2503 -0.1669  0.6367
37645SOL    HW224661   2.186  13.519   7.883 -0.3112 -0.7329 -0.8770
37646SOL     OW24662   9.344   7.470  11.918  0.1711 -0.1847  0.4841
37646SOL    HW124663   9.393   7.428  11.848 -1.7428  0.3420 -1.2505
37646SOL    HW224664   9.410   7.488  11.986  1.8455 -1.8307 -0.6112
37647SOL     OW24665  12.420  13.161   4.263 -0.1065  0.0447 -0.1421
37647SOL    HW124666  12.374  13.236   4.224  0.6678 -0.3347 -1.9143
37647SOL    HW224667  12.511  13.191   4.271  0.2382 -0.7117 -0.9989
37648SOL     OW24668  10.801   0.973  11.801 -0.4365  0.3778  0.2421
37648SOL    HW124669  10.867   0.942  11.863 -0.2061 -1.4946 -0.8735
37648SOL    HW224670  10.762   1.049  11.844 -0.0654 -0.6453  2.5371
37649SOL     OW24671   9.104   1.062   5.217 -0.9375 -0.3035  0.0750
37649SOL    HW124672   9.088   0.969   5.237 -2.3819 -0.0482  0.2530
37649SOL    HW224673   9.196   1.065   5.190  0.0814 -1.2893  3.0106
37650SOL     OW24674  10.114   8.167   6.724  0.1235 -0.0954  0.0240
37650SOL    HW124675  10.093   8.194   6.813 -0.7991 -1.3667  0.2199
37650SOL    HW224676  10.029   8.145   6.685  0.5674 -0.0578 -1.0034
37651SOL     OW24677   3.203  12.293  13.177 -0.1504 -0.3276  0.1606
37651SOL    HW124678   3.126  12.252  13.137  0.0925  0.2888 -0.9878
37651SOL    HW224679   3.179  12.306  13.269 -1.1863 -0.6734 -0.0512
37652SOL     OW24680   3.544  10.420   6.098  0.3632  0.3585  0.0993
37652SOL    HW124681   3.637  10.427   6.079  0.0112  1.2632 -1.4494
37652SOL    HW224682   3.527  10.325   6.103  1.6599  0.1631  2.2651
37653SOL     OW24683   8.807  12.545  13.059  0.3463 -0.4865  0.1918
37653SOL    HW124684   8.873  12.592  13.009 -0.3553 -1.8609 -2.1511
37653SOL    HW224685   8.853  12.470  13.096  0.7759  0.3247  1.3786
37654SOL     OW24686  12.680   8.154   7.944  0.0543  0.2429  0.3498
37654SOL    HW124687  12.670   8.086   7.879 -0.7681 -0.3952  1.1150
37654SOL    HW224688  12.765   8.194   7.925 -0.2199  0.1470 -1.1507
37655SOL     OW24689   7.135   8.584  10.220 -0.0700  0.0791  0.9162
37655SOL    HW124690   7.174   8.670  10.232 -0.5905  0.2205  1.6266
37655SOL    HW224691   7.100   8.561  10.306 -0.0499 -0.7839  0.7033
37656SOL     OW24692   5.050   6.142   2.880 -0.3875 -0.0793 -0.3603
37656SOL    HW124693   4.986   6.214   2.884  0.1907  0.4297 -0.1440
37656SOL    HW224694   5.027   6.087   2.955  1.4199  1.8423  1.7947
37657SOL     OW24695   2.988   0.852   7.119  0.0898 -0.0428  0.0141
37657SOL    HW124696   2.909   0.825   7.166  0.6436 -1.1077  0.3682
37657SOL    HW224697   2.994   0.792   7.045  1.0578 -0.5924  0.5122
37658SOL     OW24698   3.704  10.363   3.833  0.2895  0.3677 -0.2197
37658SOL    HW124699   3.622  10.395   3.871  1.3466  1.2179  1.4241
37658SOL    HW224700   3.734  10.435   3.777  0.0844  0.1616 -0.6061
37659SOL     OW24701  12.452   0.051  10.319 -0.2630  0.2219 -0.2263
37659SOL    HW124702  12.420   0.090  10.237  2.3681 -0.0295 -1.4682
37659SOL    HW224703  12.378   0.059  10.379 -1.7738  1.8580 -2.1405
37660SOL     OW24704   9.229   2.090  11.014 -0.5615 -0.0013 -0.3725
37660SOL    HW124705   9.236   1.997  11.036  1.0557  0.4223  1.0793
37660SOL    HW224706   9.304   2.107  10.957  1.6307  1.2287  2.6574
37661SOL     OW24707   6.715   0.888   8.057 -0.1499 -0.5831 -0.1840
37661SOL    HW124708   6.677   0.975   8.069 -1.6967 -1.3480  0.9797
37661SOL    HW224709   6.802   0.893   8.095  0.4750  0.8781 -1.6828
37662SOL     OW24710   8.513  10.074  11.836  0.0441 -0.0724  0.4972
37662SOL    HW124711   8.534  10.051  11.745  1.1375  0.8391  0.4925
37662SOL    HW224712   8.598  10.073  11.881 -0.1071  1.8880  0.9258
37663SOL     OW24713   5.095  10.180  11.175  0.3836 -0.0964 -0.0599
37663SOL    HW124714   5.028  10.131  11.224  1.3598 -2.0677 -0.5940
37663SOL    HW224715   5.131  10.241  11.239 -0.7772 -0.1764  0.6978
37664SOL     OW24716   9.966   8.500  13.375  0.1072 -0.3143  0.5782
37664SOL    HW124717  10.010   8.575  13.336 -1.1300 -0.5767 -1.4562
37664SOL    HW224718   9.967   8.518  13.469  0.1997  2.0425  0.1807
37665SOL     OW24719   4.458   1.821  12.287  0.6573  0.3802 -0.0884
37665SOL    HW124720   4.417   1.762  12.351 -1.4875 -0.4983 -2.1503
37665SOL    HW224721   4.506   1.762  12.228 -1.7332  0.5052 -2.3358
37666SOL     OW24722  12.650   8.837   9.032 -0.4329 -0.2601  0.3403
37666SOL    HW124723  12.742   8.839   9.007  0.2736  0.4118  2.7092
37666SOL    HW224724  12.639   8.912   9.091 -2.5483 -0.2244 -0.0148
37667SOL     OW24725   6.557   9.747   1.090 -0.1673 -0.2138  0.3356
37667SOL    HW124726   6.529   9.834   1.060  0.0549 -0.6738 -1.3189
37667SOL    HW224727   6.627   9.764   1.152  0.6460  0.7973 -0.8032
37668SOL     OW24728   3.018  10.932   2.255  0.5681 -0.5127  0.8288
37668SOL    HW124729   2.999  10.914   2.163  0.4478 -2.7556  1.2436
37668SOL    HW224730   2.936  10.968   2.290  0.2266 -0.8093  0.3460
37669SOL     OW24731  12.162   2.471   9.644  0.2375  0.4279  0.0735
37669SOL    HW124732  12.069   2.489   9.633  0.0703 -0.6524 -0.3689
37669SOL    HW224733  12.200   2.556   9.666 -0.8051  0.9319 -0.0088
37670SOL     OW24734   5.722   2.810   4.705 -0.0220 -0.3472 -0.6093
37670SOL    HW124735   5.707   2.755   4.628 -2.7542  0.7795 -1.0033
37670SOL    HW224736   5.658   2.779   4.769  1.1731 -0.2477  0.6705
37671SOL     OW24737   2.866  10.224  12.855  0.0907 -0.1364  0.5635
37671SOL    HW124738   2.852  10.229  12.950 -0.5058 -2.2183  0.6224
37671SOL    HW224739   2.803  10.286  12.819  0.0725  0.4083  1.4998
37672SOL     OW24740  13.198   3.308  10.101  0.3113 -0.0004 -0.1577
37672SOL    HW124741  13.282   3.263  10.116  0.1937  0.0279  0.6631
37672SOL    HW224742  13.142   3.278  10.172 -0.6329 -0.5992 -1.1338
37673SOL     OW24743  11.187  10.610   9.959 -0.1489 -0.1169  0.7423
37673SOL    HW124744  11.254  10.552   9.923  0.5609 -1.2140  3.5463
37673SOL    HW224745  11.107  10.557   9.958 -0.4082  0.2766 -0.2445
37674SOL     OW24746  10.553   1.075   2.389 -0.0011 -0.4078  0.0262
37674SOL    HW124747  10.534   1.120   2.471 -0.0402  0.7428 -0.5948
37674SOL    HW224748  10.635   1.113   2.359 -0.7868  0.3478 -1.2626
37675SOL     OW24749  11.933   2.032  11.689 -0.1616  0.1921 -0.9143
37675SOL    HW124750  12.005   1.971  11.701 -1.7092 -1.8524 -1.3821
37675SOL    HW224751  11.922   2.037  11.594 -0.9259  0.0675 -0.8406
37676SOL     OW24752   9.522   0.596   6.714  0.1555  0.0823 -0.0240
37676SOL    HW124753   9.514   0.617   6.621 -2.9883 -2.2739 -0.4666
37676SOL    HW224754   9.602   0.544   6.720  1.0739  1.3130 -1.1243
37677SOL     OW24755   9.124   4.938  12.030 -0.1818 -0.0540 -0.1344
37677SOL    HW124756   9.029   4.941  12.028 -0.2932 -0.4810  2.0691
37677SOL    HW224757   9.150   5.014  12.082  0.7101  0.2498 -0.9914
37678SOL     OW24758  11.557   0.423  11.972  0.3228 -0.2150  0.2702
37678SOL    HW124759  11.613   0.453  12.044  0.5381 -0.0859  0.0526
37678SOL    HW224760  11.516   0.343  12.005  1.6836 -1.0745 -0.0492
37679SOL     OW24761   8.989   2.572  10.081  0.2605  0.1831 -0.2860
37679SOL    HW124762   9.026   2.494  10.039  0.3495  0.1238 -0.0993
37679SOL    HW224763   8.894   2.561  10.073  0.1380 -1.4588  2.3916
37680SOL     OW24764   9.792   6.235   8.786 -0.8267  0.3425 -0.1366
37680SOL    HW124765   9.716   6.182   8.811 -2.1668  1.9545 -0.5951
37680SOL    HW224766   9.792   6.307   8.848  1.8540 -0.8803  1.4195
37681SOL     OW24767  11.883   7.738   4.191  0.0765 -0.2761 -0.2797
37681SOL    HW124768  11.878   7.645   4.166 -0.5262  0.1302 -1.7760
37681SOL    HW224769  11.976   7.759   4.186  0.0493 -0.3508 -1.8159
37682SOL     OW24770  11.481   5.000   6.493 -0.1324 -0.0085  0.3876
37682SOL    HW124771  11.436   5.071   6.448 -1.0590 -0.4824  0.5469
37682SOL    HW224772  11.508   4.941   6.422  0.4926  0.4105  0.2694
37683SOL     OW24773   2.898   5.683  13.669  0.2315  0.4517  0.0428
37683SOL    HW124774   2.899   5.676  13.573  0.2735 -0.3667  0.0931
37683SOL    HW224775   2.988   5.705  13.692  0.4196 -0.1942 -0.0589
37684SOL     OW24776   3.951  10.999  11.657  0.2114  0.0239 -0.3256
37684SOL    HW124777   3.935  10.987  11.751 -0.4452 -0.0588 -0.4395
37684SOL    HW224778   4.022  10.938  11.637  0.7112  0.4121  0.2159
37685SOL     OW24779   8.356  10.840   5.923  0.3407  0.1427 -0.0535
37685SOL    HW124780   8.372  10.932   5.945 -0.8419  0.5874 -0.9069
37685SOL    HW224781   8.344  10.840   5.828  1.9370 -1.1757 -0.2983
37686SOL     OW24782   6.632   2.519  13.126  0.2011  0.2003 -0.0865
37686SOL    HW124783   6.649   2.550  13.037 -1.5139  1.2191 -0.1094
37686SOL    HW224784   6.707   2.550  13.176  1.7003 -1.2367 -1.3077
37687SOL     OW24785   1.050  12.738   8.959 -0.1648  0.7751  0.1091
37687SOL    HW124786   0.966  12.735   9.003 -0.6365  0.2483 -0.7973
37687SOL    HW224787   1.078  12.646   8.954  1.1376  1.0451  1.6320
37688SOL     OW24788   5.466   5.584  11.609 -0.2130  0.1477 -0.0213
37688SOL    HW124789   5.416   5.566  11.530 -0.7610 -1.5670  0.6577
37688SOL    HW224790   5.514   5.502  11.626 -0.6295  0.2303  1.7640
37689SOL     OW24791   9.753   4.487  12.679  0.4221  0.2811 -0.8848
37689SOL    HW124792   9.754   4.577  12.647 -0.1845  0.5142 -0.2466
37689SOL    HW224793   9.715   4.437  12.607 -1.8828  0.9498 -0.2128
37690SOL     OW24794   3.759  12.647   5.630 -0.0884  0.3871 -0.2661
37690SOL    HW124795   3.666  12.626   5.637  0.3406 -2.4638 -1.4694
37690SOL    HW224796   3.762  12.740   5.609 -2.4949  1.2089  2.4630
37691SOL     OW24797   7.124   6.036   0.874 -0.3513  0.2777 -0.0074
37691SOL    HW124798   7.056   5.996   0.928  1.0454 -1.5841  0.4887
37691SOL    HW224799   7.115   5.993   0.789  0.5655 -0.4631  0.2493
37692SOL     OW24800  10.879   2.485   2.938  0.1199  0.9316  0.4304
37692SOL    HW124801  10.803   2.428   2.949  0.1649  0.9022  0.5900
37692SOL    HW224802  10.845   2.561   2.891 -0.2241  1.3583  1.3438
37693SOL     OW24803   1.302  10.568   8.995 -0.3668 -1.0261 -0.0907
37693SOL    HW124804   1.346  10.484   8.992  0.4896 -0.5783 -0.2663
37693SOL    HW224805   1.339  10.618   8.922  0.5778  0.1896  1.1618
37694SOL     OW24806   9.931  13.318  13.432  0.0259 -0.1209 -0.2081
37694SOL    HW124807   9.924  13.321  13.336 -0.8168  2.2058 -0.1344
37694SOL    HW224808   9.906  13.406  13.461  2.2734 -0.0962  2.0484
37695SOL     OW24809  12.502   1.105   5.084 -0.4147  1.0821 -0.0323
37695SOL    HW124810  12.436   1.110   5.014  0.9653  2.3946 -1.3058
37695SOL    HW224811  12.476   1.173   5.146 -1.3294  0.2809  0.5028
37696SOL     OW24812   6.810   5.742  11.208  0.0285  0.1418  0.5630
37696SOL    HW124813   6.771   5.797  11.276 -1.6979  0.1078 -0.3591
37696SOL    HW224814   6.736   5.711  11.156  1.2260 -0.6146 -0.7660
37697SOL     OW24815   9.870   2.175   6.888 -0.2844 -0.1435  0.4916
37697SOL    HW124816   9.794   2.232   6.877  0.4444  0.6888 -0.4957
37697SOL    HW224817   9.834   2.091   6.917 -1.7059 -0.1444 -1.1048
37698SOL     OW24818   2.797  10.008   8.075 -0.5897 -0.4766  0.3353
37698SOL    HW124819   2.866   9.941   8.076  0.1898  0.3087  2.0412
37698SOL    HW224820   2.739   9.980   8.004 -0.4162 -3.0991  1.1025
37699SOL     OW24821   8.480  13.011   6.914  0.4278 -0.0127 -0.5075
37699SOL    HW124822   8.412  13.060   6.868  1.1282  1.1279 -0.3624
37699SOL    HW224823   8.467  13.032   7.006 -0.2823 -1.4252 -0.2566
37700SOL     OW24824  11.064   8.383   8.798  0.0498 -0.2297 -0.3134
37700SOL    HW124825  11.103   8.419   8.878  0.3086  1.0678 -1.0057
37700SOL    HW224826  11.091   8.291   8.798 -1.8303 -0.8848  2.2420
37701SOL     OW24827  12.696   8.470   1.141  0.5286 -0.0078 -0.3882
37701SOL    HW124828  12.765   8.411   1.168  0.3563  0.2050  0.5324
37701SOL    HW224829  12.741   8.551   1.116  0.6323  0.0379 -0.0498
37702SOL     OW24830   1.306   2.663   8.097 -0.3394  0.6511 -0.4047
37702SOL    HW124831   1.335   2.614   8.174 -2.4794 -1.6238 -0.9372
37702SOL    HW224832   1.337   2.753   8.113  3.5201 -0.6963  0.7545
37703SOL     OW24833  11.228   9.978   3.829  0.7336  0.6097  0.8238
37703SOL    HW124834  11.235  10.054   3.887 -0.7361 -0.4575  2.5141
37703SOL    HW224835  11.277   9.909   3.874 -2.1031 -0.8197  1.9624
37704SOL     OW24836  10.413   9.203   9.140 -0.4549  0.0378 -0.2833
37704SOL    HW124837  10.462   9.126   9.168  0.0741  0.4384 -0.0945
37704SOL    HW224838  10.479   9.271   9.128 -0.6842 -0.0223 -2.2541
37705SOL     OW24839  11.944   6.686  11.321  0.0735 -1.0634 -0.1647
37705SOL    HW124840  11.949   6.637  11.403  1.8550 -2.2923 -0.9371
37705SOL    HW224841  11.898   6.627  11.261 -1.7310  0.0564  0.0485
37706SOL     OW24842  12.772   7.289   0.893  0.6188  0.0751  0.4508
37706SOL    HW124843  12.768   7.210   0.839  0.9569  1.1283 -1.1651
37706SOL    HW224844  12.865   7.309   0.899  0.4731  0.9555 -0.0806
37707SOL     OW24845   1.930  10.390   3.544  0.0646 -0.2936 -0.0305
37707SOL    HW124846   1.878  10.412   3.468 -1.6343  2.3280  1.7622
37707SOL    HW224847   1.966  10.303   3.523 -0.3473  0.2481 -3.7049
37708SOL     OW24848   3.125   8.625   1.408 -0.0720 -0.0860 -0.2079
37708SOL    HW124849   3.071   8.579   1.472 -1.2896 -1.1958 -1.9454
37708SOL    HW224850   3.215   8.606   1.434 -0.5383 -1.3328  0.5779
37709SOL     OW24851  13.292   8.899   9.596 -0.5937 -0.0322 -0.4762
37709SOL    HW124852  13.258   8.932   9.679  2.4693  0.6562  0.6652
37709SOL    HW224853  13.290   8.974   9.537 -0.2151  0.2628 -0.1203
37710SOL     OW24854   3.674  12.540   4.121  0.1881 -0.5125 -0.5522
37710SOL    HW124855   3.703  12.449   4.122 -1.6969 -1.1494  0.5440
37710SOL    HW224856   3.674  12.567   4.213  1.5300  0.9149 -0.9140
37711SOL     OW24857  10.053   3.865   1.386  0.1378 -0.1293 -0.0585
37711SOL    HW124858   9.997   3.839   1.312  0.0951  2.5956 -1.1003
37711SOL    HW224859  10.117   3.794   1.393 -0.0281 -0.6353 -2.5389
37712SOL     OW24860  12.528   5.312   9.477 -0.1674 -0.2606 -0.2274
37712SOL    HW124861  12.553   5.224   9.503  3.8032  0.2883 -1.5410
37712SOL    HW224862  12.554   5.368   9.550 -3.1248 -0.0590  0.8202
37713SOL     OW24863   7.235   2.029   8.044  0.0946 -0.4721 -0.5762
37713SOL    HW124864   7.195   1.976   7.975 -0.3753 -0.3068 -0.4315
37713SOL    HW224865   7.162   2.057   8.099  0.1409  1.4552 -1.4126
37714SOL     OW24866  12.245   2.267  11.463 -0.6602  0.2254 -0.1536
37714SOL    HW124867  12.330   2.266  11.419 -1.4092  0.3148 -1.6560
37714SOL    HW224868  12.199   2.190  11.429 -1.0584 -0.0352  0.9224
37715SOL     OW24869   6.462   2.944  12.236 -0.0083 -0.1714 -0.0561
37715SOL    HW124870   6.383   2.999  12.231 -0.9814 -1.5217 -0.2121
37715SOL    HW224871   6.452   2.898  12.320 -1.0947 -2.7512 -1.4826
37716SOL     OW24872   7.702  12.637   4.031 -0.1298 -0.0389 -0.3874
37716SOL    HW124873   7.743  12.597   4.107 -1.8147 -1.8746 -0.3726
37716SOL    HW224874   7.702  12.567   3.964 -2.3411  0.1483 -0.6693
37717SOL     OW24875   3.903   8.205   8.225 -0.0908 -0.2571  0.1814
37717SOL    HW124876   3.830   8.266   8.238 -1.7801 -2.2316  0.3237
37717SOL    HW224877   3.941   8.231   8.141 -1.1588  0.6143 -0.0547
37718SOL     OW24878   9.976  10.434   3.247 -0.4287  0.0578 -0.1589
37718SOL    HW124879  10.068  10.415   3.226  0.3079  1.7376  1.2545
37718SOL    HW224880   9.938  10.460   3.163  0.6573  0.3095 -0.5992
37719SOL     OW24881   5.177   6.949  12.181 -0.6144 -0.0956  0.0969
37719SOL    HW124882   5.247   7.004  12.148  0.1233 -0.6475  0.6973
37719SOL    HW224883   5.097   6.996  12.159 -0.0582  0.5686 -0.5537
37720SOL     OW24884   7.264   3.336   2.177  0.0336  0.2621 -0.0893
37720SOL    HW124885   7.279   3.408   2.116  1.7774  0.0325  0.0249
37720SOL    HW224886   7.234   3.264   2.122  1.1048  0.2095 -0.6383
37721SOL     OW24887   8.037   2.404   5.286 -0.0417 -0.4126 -0.3377
37721SOL    HW124888   8.100   2.405   5.214 -0.7135  0.8658 -0.9252
37721SOL    HW224889   7.952   2.393   5.243 -0.4785  0.6756  0.2275
37722SOL     OW24890   1.151   7.742   1.044 -0.0291 -0.2037 -0.1831
37722SOL    HW124891   1.056   7.732   1.052  0.1688 -1.0142  1.4962
37722SOL    HW224892   1.187   7.697   1.120  1.7451 -0.3867 -1.0661
37723SOL     OW24893   1.810  11.730   7.549 -0.4222 -0.4419 -0.5076
37723SOL    HW124894   1.766  11.645   7.548  0.6301 -1.0193 -2.7263
37723SOL    HW224895   1.761  11.783   7.486 -1.0669  0.6456  0.8558
37724SOL     OW24896   2.505  12.799   9.894 -0.3298 -0.3762 -0.4330
37724SOL    HW124897   2.410  12.808   9.899 -0.2731  0.6317 -0.8833
37724SOL    HW224898   2.536  12.884   9.862  0.6908 -0.8083 -0.6568
37725SOL     OW24899  13.588  12.083   2.389 -0.3636  0.2449 -0.2274
37725SOL    HW124900  13.537  12.156   2.426  0.8746  0.7526  0.5443
37725SOL    HW224901  13.558  12.077   2.298  0.5867  2.7829 -0.7995
37726SOL     OW24902  10.168   8.735   8.622  0.2328  0.4417  0.0685
37726SOL    HW124903  10.258   8.735   8.654  0.3629 -0.0115 -0.2977
37726SOL    HW224904  10.132   8.651   8.650 -0.3158  0.9393  0.8785
37727SOL     OW24905   8.090  13.508   9.628  0.1764 -0.0922 -0.0424
37727SOL    HW124906   8.009  13.494   9.577 -0.1439 -0.1339  0.4749
37727SOL    HW224907   8.144  13.562   9.571 -0.1322 -0.2319 -0.4824
37728SOL     OW24908  12.671   2.121   5.204 -0.0164 -0.4318  0.1022
37728SOL    HW124909  12.694   2.202   5.250 -2.3549 -0.1716  0.9209
37728SOL    HW224910  12.644   2.149   5.117  1.5973 -0.6431 -0.5103
37729SOL     OW24911   1.664  10.128   8.056 -0.2381 -0.2709  0.1311
37729SOL    HW124912   1.700  10.115   7.969 -0.1793  0.2914  0.0723
37729SOL    HW224913   1.589  10.187   8.044  0.1393  0.3053  0.5321
37730SOL     OW24914  12.447   8.438   0.341 -0.1254  0.4471 -0.0506
37730SOL    HW124915  12.401   8.453   0.259  0.5431  0.3799 -0.4490
37730SOL    HW224916  12.538   8.424   0.315 -0.0845 -0.6500  0.6027
37731SOL     OW24917   7.624  12.602   0.886 -0.0208  0.4855  0.3283
37731SOL    HW124918   7.699  12.565   0.839 -2.3398 -2.0580 -1.7176
37731SOL    HW224919   7.596  12.533   0.945 -1.5561  0.8058  0.0266
37732SOL     OW24920  11.145   9.897   5.234  0.1238 -0.0704 -0.1745
37732SOL    HW124921  11.117   9.947   5.311 -2.0241 -3.0913  1.2034
37732SOL    HW224922  11.234   9.870   5.254  0.8397  2.0151 -0.3674
37733SOL     OW24923   8.196   0.100   8.902  0.3114 -0.2868  0.4120
37733SOL    HW124924   8.272   0.146   8.939  0.0978 -0.2764  0.8442
37733SOL    HW224925   8.215   0.094   8.809 -0.2891  1.9608  0.0804
37734SOL     OW24926   1.918   3.808  13.403 -0.0891 -0.6089 -0.3557
37734SOL    HW124927   1.978   3.860  13.457 -0.0675 -0.3872 -0.5901
37734SOL    HW224928   1.831   3.827  13.439 -0.1777  0.3113 -1.0113
37735SOL     OW24929   4.366   7.718  10.434  0.1531  0.0558 -0.2315
37735SOL    HW124930   4.377   7.797  10.381 -2.0898  0.9940  0.5993
37735SOL    HW224931   4.358   7.647  10.370  0.5232  0.7162 -1.0336
37736SOL     OW24932   8.517  10.740   5.673  0.1729  0.2728 -0.8463
37736SOL    HW124933   8.556  10.653   5.686 -0.7854 -0.4475 -2.4414
37736SOL    HW224934   8.582  10.801   5.707  0.6594 -1.0825  0.7620
37737SOL     OW24935   5.118  10.919   2.226  0.8255  0.3813 -0.3028
37737SOL    HW124936   5.052  10.867   2.180  0.4331 -1.1366  1.8190
37737SOL    HW224937   5.196  10.865   2.226  1.3125  1.0722 -0.6019
37738SOL     OW24938  11.433   5.884   4.155  0.7160 -0.0112  0.1956
37738SOL    HW124939  11.376   5.808   4.156  0.1056  0.4071 -0.8053
37738SOL    HW224940  11.430   5.915   4.064  0.2588  1.6970  0.7382
37739SOL     OW24941  11.055   8.014   1.438  0.2832 -0.3050  0.2525
37739SOL    HW124942  11.059   7.918   1.436  0.1416 -0.3429  1.3807
37739SOL    HW224943  11.134   8.042   1.391  0.5279 -0.9719  0.2531
37740SOL     OW24944   7.250   9.334  12.147 -0.7092  0.0234 -0.4007
37740SOL    HW124945   7.297   9.377  12.075  0.2654 -0.6875 -0.2159
37740SOL    HW224946   7.213   9.406  12.197  2.5541  0.9045  1.0467
37741SOL     OW24947   8.685  11.867  10.819 -0.2215  0.1823 -0.0237
37741SOL    HW124948   8.700  11.774  10.808 -1.4680 -0.1114  0.6178
37741SOL    HW224949   8.641  11.875  10.904  0.3911  1.4124  0.2177
37742SOL     OW24950   3.508   3.767  10.233 -0.2101  0.3032 -0.2228
37742SOL    HW124951   3.446   3.826  10.191  1.4862  1.0211 -1.8993
37742SOL    HW224952   3.588   3.819  10.242  1.5387 -1.7712 -2.2967
37743SOL     OW24953   0.411  12.800   5.435 -0.0072 -0.3928  0.1111
37743SOL    HW124954   0.392  12.719   5.482 -0.9254 -0.4325 -0.3089
37743SOL    HW224955   0.371  12.788   5.349  1.0590 -0.0447 -0.4609
37744SOL     OW24956   5.447  10.720   4.381 -0.4992 -0.6184 -0.1892
37744SOL    HW124957   5.542  10.722   4.389 -0.6496 -0.5516  3.1675
37744SOL    HW224958   5.427  10.774   4.305  2.0389  1.5914  0.5845
37745SOL     OW24959   8.652   1.918   8.650 -0.1712  0.0325  0.0728
37745SOL    HW124960   8.718   1.849   8.647  1.0220  0.9830  2.1015
37745SOL    HW224961   8.622   1.919   8.741 -0.8666  1.5468 -0.1382
37746SOL     OW24962   0.863   7.130   6.070 -0.1865 -0.2982  0.1143
37746SOL    HW124963   0.853   7.084   6.153 -1.8577 -0.1239  0.0379
37746SOL    HW224964   0.943   7.182   6.081  0.1603 -1.0384  1.2308
37747SOL     OW24965   0.383   4.315   7.510 -0.1040 -0.0261 -0.0711
37747SOL    HW124966   0.413   4.297   7.599 -1.4357 -0.2805  0.3432
37747SOL    HW224967   0.411   4.405   7.493 -0.5320  0.3044  0.9202
37748SOL     OW24968  12.889   4.120   1.837 -0.7110 -0.0148  0.3351
37748SOL    HW124969  12.813   4.167   1.872 -0.0165  0.6419  0.9896
37748SOL    HW224970  12.906   4.161   1.753 -1.8763 -1.0445 -0.4384
37749SOL     OW24971  12.267   3.239   4.967  0.0474  0.1602 -0.1123
37749SOL    HW124972  12.232   3.178   4.902  0.4826 -0.8116  0.5487
37749SOL    HW224973  12.222   3.216   5.048  1.7613 -0.7485  0.6294
37750SOL     OW24974  13.026   8.296   0.454  0.1479  0.7326  0.3188
37750SOL    HW124975  13.119   8.309   0.476 -0.0817 -1.4047  3.0353
37750SOL    HW224976  12.979   8.352   0.516 -0.4164  0.6637 -0.0396
37751SOL     OW24977   6.645   3.340  12.626 -0.0826 -0.2460  0.0594
37751SOL    HW124978   6.612   3.408  12.567  0.9997  0.6373  0.4285
37751SOL    HW224979   6.740   3.355  12.628  0.1362 -1.5654  0.4182
37752SOL     OW24980  13.621  11.204   5.044  0.4660 -0.0764  0.0490
37752SOL    HW124981  13.654  11.120   5.077  1.1490 -0.0276 -0.4821
37752SOL    HW224982  13.528  11.203   5.065  0.9621  0.2035  2.5094
37753SOL     OW24983  11.676   8.834   7.213  0.1454  0.4742 -0.0902
37753SOL    HW124984  11.655   8.890   7.288  1.2361 -2.1343  2.3332
37753SOL    HW224985  11.746   8.777   7.244 -0.1038 -1.4897 -2.7727
37754SOL     OW24986   2.675   2.904  10.583 -0.2007 -0.1752 -0.4511
37754SOL    HW124987   2.645   2.839  10.647  2.2632 -0.4125  0.5873
37754SOL    HW224988   2.599   2.919  10.526 -1.6796 -1.8997  0.9433
37755SOL     OW24989   5.529   9.173   8.494  0.2473 -0.1911 -0.0671
37755SOL    HW124990   5.444   9.211   8.472  0.1119  0.6679  1.7355
37755SOL    HW224991   5.527   9.163   8.589  1.7529 -1.1809 -0.1023
37756SOL     OW24992  13.591  10.541   1.804  0.5295  0.1546  0.1945
37756SOL    HW124993  13.576  10.573   1.715  0.5827 -1.4895 -0.4415
37756SOL    HW224994  13.686  10.540   1.813  0.5102  1.4674  0.7321
37757SOL     OW24995   9.934   0.781   6.236  0.0228 -0.8047  0.9126
37757SOL    HW124996   9.903   0.740   6.155 -0.2432 -0.1614  0.6832
37757SOL    HW224997  10.028   0.765   6.237  0.3702  0.8905 -0.5352
37758SOL     OW24998  11.612   2.726  13.363  0.2179 -0.0878  0.4546
37758SOL    HW124999  11.657   2.643  13.378 -1.0241 -1.0166 -0.7174
37758SOL    HW225000  11.678   2.793  13.379  1.7853 -1.3608 -0.4915
37759SOL     OW25001   5.826   8.697   9.952 -0.5088 -0.0619  0.4123
37759SOL    HW125002   5.811   8.646  10.032  0.4161 -0.4064  0.3845
37759SOL    HW225003   5.917   8.679   9.930 -0.5744  0.5374 -0.3697
37760SOL     OW25004   9.531   5.389   1.166 -0.1235  0.2307 -0.3193
37760SOL    HW125005   9.501   5.320   1.107 -1.2980 -0.1860  0.7061
37760SOL    HW225006   9.580   5.343   1.235 -0.7929  0.4077  0.2941
37761SOL     OW25007  11.585   4.793   0.158 -0.1110 -0.2954  0.1322
37761SOL    HW125008  11.550   4.706   0.139  0.6527 -1.0917  2.1943
37761SOL    HW225009  11.530   4.852   0.105 -1.9056 -1.8446  0.1542
37762SOL     OW25010   7.497   7.989   6.182  0.5892  0.3291  0.1846
37762SOL    HW125011   7.531   8.047   6.115  0.0725 -0.1056 -0.4777
37762SOL    HW225012   7.424   7.944   6.140  1.9222 -1.9625  0.1258
37763SOL     OW25013   0.011   4.383   2.866  0.2778 -0.0901 -0.2621
37763SOL    HW125014   0.017   4.296   2.906  2.5407  0.5911  1.0487
37763SOL    HW225015   0.005   4.443   2.940  0.0787  0.9861 -1.1164
37764SOL     OW25016   2.720   3.596   8.397 -0.4945  0.5664  0.2882
37764SOL    HW125017   2.807   3.619   8.432  0.4787 -1.5791 -0.5881
37764SOL    HW225018   2.680   3.545   8.467 -0.4788  0.3262  0.1187
37765SOL     OW25019  13.162   0.068   7.876 -0.5091  0.3005  0.1251
37765SOL    HW125020  13.226   0.021   7.930 -2.0244  0.8748  2.5861
37765SOL    HW225021  13.212   0.096   7.799  1.4048 -1.8308  0.4847
37766SOL     OW25022   1.176  12.190   6.413 -0.3770 -0.5068 -0.0860
37766SOL    HW125023   1.192  12.245   6.336  0.5346  0.1442  0.5578
37766SOL    HW225024   1.174  12.101   6.378  0.1329 -0.2259 -0.8589
37767SOL     OW25025  12.761  11.519   2.905  0.4733 -0.0294 -0.2077
37767SOL    HW125026  12.798  11.433   2.885  1.9249  0.3657  0.6697
37767SOL    HW225027  12.755  11.521   3.000  0.3074  0.7867 -0.2289
37768SOL     OW25028   7.982  11.905  13.074  0.2721  0.8177  0.1699
37768SOL    HW125029   8.061  11.954  13.098  1.5177 -0.7478 -0.5102
37768SOL    HW225030   8.008  11.813  13.082 -1.9421  0.2264  1.3035
37769SOL     OW25031   7.831   1.850   3.366 -0.4107  0.1789 -0.6140
37769SOL    HW125032   7.835   1.768   3.414  3.4796  1.7529  2.2505
37769SOL    HW225033   7.787   1.911   3.425  0.3051  1.0608 -0.9541
37770SOL     OW25034  10.673  10.639   2.529 -0.1662 -0.0113 -0.4564
37770SOL    HW125035  10.604  10.654   2.464 -1.2215 -0.4833  0.5158
37770SOL    HW225036  10.640  10.566   2.582  1.4852 -0.8305 -0.4967
37771SOL     OW25037  11.753   6.332  12.087  0.1847 -0.2065  0.7757
37771SOL    HW125038  11.814   6.389  12.135 -0.6540  1.7676 -0.3993
37771SOL    HW225039  11.704   6.391  12.030 -0.8850 -2.1034 -0.3850
37772SOL     OW25040   9.450  12.827   8.770 -0.3834 -0.0924 -0.1070
37772SOL    HW125041   9.418  12.917   8.768 -1.5821 -0.4618  1.2848
37772SOL    HW225042   9.444  12.801   8.861 -0.5994 -1.7898 -0.5742
37773SOL     OW25043   8.230   5.908   5.501 -0.2705  0.1953 -0.0085
37773SOL    HW125044   8.217   5.814   5.516  0.5356 -0.2072 -1.6014
37773SOL    HW225045   8.224   5.918   5.406  1.4900  1.4396 -0.0292
37774SOL     OW25046   8.763   4.630  11.093 -0.3108 -0.3763  0.2226
37774SOL    HW125047   8.769   4.618  10.999 -1.9364  1.7240 -0.2316
37774SOL    HW225048   8.674   4.665  11.107 -0.2044 -0.8902  2.5552
37775SOL     OW25049  12.419   4.929   2.174 -0.1070 -0.4165 -0.9793
37775SOL    HW125050  12.353   4.872   2.212  1.3592 -0.1277  2.3981
37775SOL    HW225051  12.485   4.870   2.139 -0.4673 -0.7388 -1.1110
37776SOL     OW25052   0.140   3.212   3.233 -0.2571  0.1042  0.1266
37776SOL    HW125053   0.167   3.229   3.324 -0.6488 -2.1314  0.7454
37776SOL    HW225054   0.189   3.133   3.209 -0.0959  0.7268 -1.6639
37777SOL     OW25055  10.697  13.212  11.272  0.0721 -0.3585 -0.2027
37777SOL    HW125056  10.628  13.271  11.300 -0.5015 -1.1084  0.0027
37777SOL    HW225057  10.663  13.124  11.292  1.3880 -0.7044  0.6057
37778SOL     OW25058   6.861   5.479   7.235  0.2299 -0.4914  0.0700
37778SOL    HW125059   6.830   5.395   7.269 -0.1743 -0.9540 -1.3781
37778SOL    HW225060   6.949   5.460   7.203  0.5956 -0.0633  0.7879
37779SOL     OW25061   2.177   6.941   1.356 -0.8152  0.0299 -0.9552
37779SOL    HW125062   2.162   6.942   1.262 -2.2578 -1.5579 -0.7731
37779SOL    HW225063   2.126   6.867   1.388 -0.0297  0.2949  1.0307
37780SOL     OW25064   6.610   2.993   0.538  0.2755  0.0839  0.2327
37780SOL    HW125065   6.628   2.917   0.482  0.3939 -0.6790  1.2662
37780SOL    HW225066   6.679   2.991   0.604 -0.4128  0.3605  0.9882
37781SOL     OW25067   5.025  11.433   6.871 -0.1143 -0.6040  0.5060
37781SOL    HW125068   5.116  11.455   6.894  1.0388 -0.9822 -3.0789
37781SOL    HW225069   5.022  11.338   6.873  0.4407 -0.7357 -1.8656
37782SOL     OW25070   1.625   0.306   5.096  0.8164 -0.5318  0.0004
37782SOL    HW125071   1.623   0.362   5.019 -1.3047  0.6018  0.7792
37782SOL    HW225072   1.708   0.325   5.139  1.0434  0.4513 -0.8597
37783SOL     OW25073   1.357   2.855  11.066 -0.1916 -0.7217 -0.1046
37783SOL    HW125074   1.377   2.943  11.097 -2.1949 -0.8421  1.7732
37783SOL    HW225075   1.290   2.868  10.999  0.3303 -0.7926 -0.6567
37784SOL     OW25076  11.509   8.868  11.165  0.9334 -0.2190  0.2119
37784SOL    HW125077  11.599   8.897  11.153  0.4790  0.5853 -1.6191
37784SOL    HW225078  11.506   8.781  11.127  0.8925 -0.1702  0.1030
37785SOL     OW25079   3.374   7.295   6.316 -0.0782 -0.1291 -0.3232
37785SOL    HW125080   3.280   7.277   6.309 -0.2041  0.7053 -0.8924
37785SOL    HW225081   3.379   7.380   6.358  0.4913 -1.0038  1.4781
37786SOL     OW25082   6.392  12.710  13.486  0.3018 -0.4060  0.2984
37786SOL    HW125083   6.359  12.792  13.449  0.2923 -0.4085  0.3017
37786SOL    HW225084   6.481  12.731  13.513  0.7257 -0.7106 -0.7870
37787SOL     OW25085  10.063   5.831  13.742 -0.1162 -0.0714 -0.5033
37787SOL    HW125086  10.067   5.810  13.648 -2.8521 -0.1526 -0.6766
37787SOL    HW225087   9.978   5.797  13.770 -0.5488  2.3262  1.3910
37788SOL     OW25088  10.039   1.218   0.102  0.7028  0.3225  0.2424
37788SOL    HW125089  10.131   1.214   0.126  0.7000 -0.3705  0.1365
37788SOL    HW225090   9.993   1.171   0.171  0.7019 -1.7055 -1.0473
37789SOL     OW25091   0.141  12.136   9.810  0.1744  0.3549  0.0264
37789SOL    HW125092   0.226  12.167   9.777  0.6423  0.2176  1.0429
37789SOL    HW225093   0.139  12.043   9.787 -0.6618  0.8042 -1.8838
37790SOL     OW25094   8.999   3.454   4.288 -0.6621  0.1230 -0.4358
37790SOL    HW125095   8.957   3.389   4.345 -1.5395  0.1202 -1.0713
37790SOL    HW225096   8.975   3.538   4.325 -0.6774  0.1094 -0.4154
37791SOL     OW25097   3.135   4.839  10.174  0.1638  0.0231 -0.5565
37791SOL    HW125098   3.130   4.865  10.082  0.6805  0.7540 -0.3831
37791SOL    HW225099   3.223   4.804  10.184  0.4287  0.8089 -0.1178
37792SOL     OW25100   8.579   9.108   2.790  0.4692  0.2792 -0.1375
37792SOL    HW125101   8.594   9.192   2.746  1.2887 -0.1077 -0.6190
37792SOL    HW225102   8.626   9.044   2.737  1.1333 -0.2676  1.0774
37793SOL     OW25103  10.720   6.928   0.076  0.1302  0.5987 -0.1332
37793SOL    HW125104  10.688   6.965   0.158  0.0907  1.2496 -0.4369
37793SOL    HW225105  10.655   6.953   0.011 -0.8446 -1.5440 -0.0515
37794SOL     OW25106   7.139  12.566   2.491  0.3149 -0.0348  0.4083
37794SOL    HW125107   7.232  12.579   2.510  0.6960 -0.5829 -0.9953
37794SOL    HW225108   7.125  12.608   2.407 -0.7448  0.1361  0.6522
37795SOL     OW25109   6.846  12.038   3.559  0.1539  1.1413 -0.2933
37795SOL    HW125110   6.864  11.963   3.502  3.1817  1.9684 -0.5925
37795SOL    HW225111   6.782  12.004   3.623 -0.7443 -0.8032 -2.0817
37796SOL     OW25112   3.472  11.728   8.406 -0.1977 -0.4348 -1.5434
37796SOL    HW125113   3.425  11.665   8.350 -2.0038  0.7887 -1.5058
37796SOL    HW225114   3.477  11.684   8.491  0.3104 -1.2880 -1.9960
37797SOL     OW25115   0.532   3.531  10.452 -0.3729  0.1917 -0.4036
37797SOL    HW125116   0.535   3.530  10.356 -1.7748 -2.0916 -0.4924
37797SOL    HW225117   0.602   3.472  10.478  0.8140  1.7510  0.0773
37798SOL     OW25118   3.353   0.580   9.432  0.5881  0.0148  0.2396
37798SOL    HW125119   3.383   0.505   9.381  3.5302  0.8127  0.6258
37798SOL    HW225120   3.285   0.620   9.379  1.2407 -1.0969 -1.4977
37799SOL     OW25121   5.057   3.253   4.026  0.2968  0.1501 -0.2638
37799SOL    HW125122   5.129   3.200   4.060 -0.4757 -1.8504 -1.6046
37799SOL    HW225123   5.099   3.317   3.968  1.2381  1.1027  1.3961
37800SOL     OW25124   2.280   8.577   7.652 -0.0726  0.6012 -0.1225
37800SOL    HW125125   2.302   8.669   7.669  1.1827  0.1064  1.1294
37800SOL    HW225126   2.363   8.530   7.664 -0.6855 -0.6980 -0.7875
37801SOL     OW25127   7.692   4.652  13.357 -0.0104 -0.0690  0.4022
37801SOL    HW125128   7.682   4.674  13.449 -0.4532  0.3311  0.2620
37801SOL    HW225129   7.602   4.649  13.323  0.0468 -1.6069  0.2969
37802SOL     OW25130   6.774   3.315   8.872  0.0223 -0.2269  0.3423
37802SOL    HW125131   6.847   3.260   8.901 -0.7999 -2.1392 -1.0281
37802SOL    HW225132   6.791   3.331   8.780 -0.1402  1.2604  0.5495
37803SOL     OW25133   7.155  11.854  12.269 -0.1521 -0.6354  0.1968
37803SOL    HW125134   7.132  11.773  12.314  0.1642 -0.1437  1.2701
37803SOL    HW225135   7.100  11.921  12.310 -0.1498 -0.2415 -0.4293
37804SOL     OW25136  12.296  12.358  11.613  0.4751  0.1704  0.4405
37804SOL    HW125137  12.273  12.439  11.566  1.4152  0.4724  0.4937
37804SOL    HW225138  12.212  12.324  11.643  0.1152  1.5223  1.0586
37805SOL     OW25139   2.898   6.806  13.494 -0.7081 -0.2516 -0.3928
37805SOL    HW125140   2.957   6.803  13.418 -0.7168  0.1961 -0.4206
37805SOL    HW225141   2.955   6.823  13.568 -0.9128  1.3400 -0.5683
37806SOL     OW25142   8.675   0.896   8.198 -0.8253 -0.1360  0.2164
37806SOL    HW125143   8.736   0.923   8.267 -0.8907  0.8913 -0.1108
37806SOL    HW225144   8.730   0.854   8.133 -0.5441  0.2175  0.2195
37807SOL     OW25145   5.027  10.286   0.335  0.0953 -0.3002  0.5597
37807SOL    HW125146   4.959  10.349   0.358  0.0744  0.4818 -1.4632
37807SOL    HW225147   5.010  10.211   0.392 -0.7107  0.9671  2.0688
37808SOL     OW25148   5.670   1.668  10.083 -0.2858 -0.3570 -0.1204
37808SOL    HW125149   5.630   1.701  10.163  1.1298 -1.4708  1.0777
37808SOL    HW225150   5.764   1.673  10.098  0.0041 -1.1142 -1.4933
37809SOL     OW25151   3.228   9.449   2.667  0.2437 -0.8248 -0.1852
37809SOL    HW125152   3.306   9.496   2.635  0.5789 -0.3756  1.2085
37809SOL    HW225153   3.243   9.440   2.761 -1.1763 -1.1678  0.0255
37810SOL     OW25154   8.263   2.157   7.276  0.5839 -0.0146 -0.5054
37810SOL    HW125155   8.222   2.087   7.326 -0.3732  0.7421 -0.1982
37810SOL    HW225156   8.349   2.123   7.252  1.2673 -0.2380  2.0119
37811SOL     OW25157   8.241   1.032   0.209 -0.2452 -0.1095  0.0572
37811SOL    HW125158   8.165   1.057   0.157 -0.0816  0.9497  0.3070
37811SOL    HW225159   8.296   0.982   0.149 -0.6287  0.0544 -0.4385
37812SOL     OW25160  10.691   1.786   8.023  0.2421 -0.0467  0.1178
37812SOL    HW125161  10.726   1.867   7.985  0.8510 -0.4021 -0.0837
37812SOL    HW225162  10.761   1.722   8.013 -0.6151 -0.8883 -0.6780
37813SOL     OW25163   9.049   3.667   1.593  0.0192  0.0148 -0.1486
37813SOL    HW125164   9.061   3.744   1.538 -1.2396  0.9727  0.8565
37813SOL    HW225165   8.963   3.633   1.568  0.0426 -0.3547  0.2552
37814SOL     OW25166   7.241   1.514   3.460 -0.0267  0.4732 -0.0912
37814SOL    HW125167   7.220   1.445   3.523  0.3488  0.1785 -0.2846
37814SOL    HW225168   7.331   1.539   3.482 -0.5090  1.6600  0.6772
37815SOL     OW25169   3.257   5.068   9.143 -0.2683  0.6011 -0.1218
37815SOL    HW125170   3.301   4.983   9.139 -0.3609  0.5250  0.3408
37815SOL    HW225171   3.165   5.048   9.131 -0.2280  0.7040 -0.5953
37816SOL     OW25172   3.825   8.633  13.515  0.1288  0.3789 -0.0841
37816SOL    HW125173   3.819   8.612  13.421  0.6486  1.7649 -0.4545
37816SOL    HW225174   3.750   8.589  13.554  0.0089 -0.3848 -1.1247
37817SOL     OW25175   2.770   6.477   7.608  0.3433 -0.5091  0.2275
37817SOL    HW125176   2.826   6.399   7.599  1.9705  0.4555  1.3653
37817SOL    HW225177   2.757   6.506   7.518  1.0480 -1.2065 -0.1221
37818SOL     OW25178  13.035  11.094   7.713  0.3531  0.0415 -0.2138
37818SOL    HW125179  13.076  11.179   7.696  1.5398 -0.6147 -0.7051
37818SOL    HW225180  13.049  11.044   7.632  0.5797 -0.9793  0.4389
37819SOL     OW25181  11.926   5.060   9.591 -0.0002  0.2988 -0.2347
37819SOL    HW125182  12.012   5.085   9.625  0.5387  0.6647 -1.7597
37819SOL    HW225183  11.935   5.069   9.496 -1.2704 -1.1404 -0.5244
37820SOL     OW25184   7.150  12.324   8.730 -0.2559 -0.1872  0.4240
37820SOL    HW125185   7.217  12.359   8.788 -0.4482  2.4620 -0.7869
37820SOL    HW225186   7.198  12.282   8.659  0.0983  0.3202  0.3595
37821SOL     OW25187   9.861  13.355  10.785 -0.1405 -0.0387 -0.2455
37821SOL    HW125188   9.914  13.398  10.851 -1.3722  2.6614 -0.8731
37821SOL    HW225189   9.921  13.338  10.713  0.3082  1.1170 -0.1634
37822SOL     OW25190   8.702   0.227   1.062  0.9682 -0.3112 -0.1093
37822SOL    HW125191   8.795   0.217   1.078  0.8272 -0.1015  0.8933
37822SOL    HW225192   8.690   0.199   0.971  1.7209 -2.1190  0.3005
37823SOL     OW25193   3.111   8.621   5.911 -0.1145 -0.4013  0.0765
37823SOL    HW125194   3.117   8.529   5.886 -0.8959 -0.8725  1.4826
37823SOL    HW225195   3.043   8.658   5.854  0.2524 -0.6690 -0.5388
37824SOL     OW25196   5.078   5.479  12.295 -0.8448 -0.1475 -0.2300
37824SOL    HW125197   5.117   5.557  12.257 -0.2779 -1.0227 -1.5160
37824SOL    HW225198   5.149   5.437  12.344 -0.9955 -0.1714 -0.0264
37825SOL     OW25199  10.818  10.820  12.656 -0.0270  0.2762  0.1448
37825SOL    HW125200  10.886  10.827  12.589  0.6420  0.7358  0.8513
37825SOL    HW225201  10.852  10.871  12.730 -0.9364  0.1295  0.6808
37826SOL     OW25202   6.977   8.027   5.176  0.0397  0.2481  0.6866
37826SOL    HW125203   6.978   8.034   5.080 -1.3425 -1.3013  0.5088
37826SOL    HW225204   6.914   8.092   5.204 -0.0122  0.2834  0.4930
37827SOL     OW25205   9.779  10.875  12.933  0.2710 -0.2422  0.1385
37827SOL    HW125206   9.779  10.950  12.874 -0.7394  0.4103  0.9412
37827SOL    HW225207   9.697  10.830  12.914  0.1387 -0.2654  0.7385
37828SOL     OW25208  10.587   6.904  10.049 -0.4094  0.1120 -0.2905
37828SOL    HW125209  10.575   6.838   9.981 -0.8485  1.1422 -1.2592
37828SOL    HW225210  10.643   6.862  10.114  2.1069 -0.1708 -2.4567
37829SOL     OW25211  10.521   3.540   1.733  0.1780  0.1779  0.7651
37829SOL    HW125212  10.543   3.481   1.661  0.4312  0.8727  0.2594
37829SOL    HW225213  10.431   3.518   1.756  0.2182 -0.3008  0.4809
37830SOL     OW25214   5.485   0.157   7.779 -0.2458  0.8905  0.5203
37830SOL    HW125215   5.406   0.211   7.774 -0.6572  0.2261 -0.5298
37830SOL    HW225216   5.463   0.078   7.731  1.2355  0.9046 -0.2497
37831SOL     OW25217   1.282   0.596  11.591  0.0193 -0.3986 -0.1197
37831SOL    HW125218   1.241   0.518  11.553 -1.3479  0.9641 -1.5737
37831SOL    HW225219   1.321   0.565  11.672  1.0182 -2.9542 -1.4598
37832SOL     OW25220  10.938   7.611   7.210 -0.1846 -0.6729 -0.4063
37832SOL    HW125221  10.886   7.533   7.188 -2.7743  0.2756  1.7440
37832SOL    HW225222  10.982   7.589   7.292 -1.8795  0.3978  0.8703
37833SOL     OW25223   5.904   3.262   8.573 -0.3704 -0.3531 -0.4688
37833SOL    HW125224   5.903   3.191   8.637 -0.9268  0.4585  0.4611
37833SOL    HW225225   5.949   3.226   8.497  0.1884 -1.3918  0.3299
37834SOL     OW25226   4.467   0.181   9.463  0.3142 -0.4752 -0.3126
37834SOL    HW125227   4.446   0.107   9.406 -1.1565 -1.1516  1.0346
37834SOL    HW225228   4.408   0.251   9.435 -0.9896 -1.0681  0.8408
37835SOL     OW25229   9.769   0.709   6.432  0.2844  0.5523 -0.3205
37835SOL    HW125230   9.821   0.727   6.511  2.4257 -0.4350 -1.4063
37835SOL    HW225231   9.808   0.765   6.365  0.2609 -0.5274 -1.2693
37836SOL     OW25232  12.776   0.066   7.662 -0.4697  0.1361  0.0014
37836SOL    HW125233  12.774  -0.012   7.716 -2.5354 -0.1645 -0.4490
37836SOL    HW225234  12.792   0.034   7.573 -2.4777  0.0534 -0.3721
37837SOL     OW25235   7.794   9.987   3.585  0.1554  0.2122 -0.0969
37837SOL    HW125236   7.783  10.077   3.615  0.1907 -0.1505  1.0308
37837SOL    HW225237   7.839   9.942   3.657  0.0623 -0.7338 -0.6034
37838SOL     OW25238  12.902  13.340   3.526  0.2237 -0.0567 -0.0751
37838SOL    HW125239  12.855  13.398   3.586 -0.7072 -1.3037  0.4404
37838SOL    HW225240  12.990  13.333   3.565 -0.8975 -2.3858  2.3483
37839SOL     OW25241  13.358   9.235   6.009  0.6492  0.4061 -0.1976
37839SOL    HW125242  13.349   9.155   6.059  0.6291  0.5725  0.0642
37839SOL    HW225243  13.268   9.254   5.979  0.3032  1.3855  1.3733
37840SOL     OW25244   0.755   6.139   7.340 -0.1788 -1.0219 -0.1817
37840SOL    HW125245   0.832   6.114   7.390  0.4229 -0.2454 -0.7050
37840SOL    HW225246   0.681   6.121   7.399  0.2804 -2.9970 -0.1455
37841SOL     OW25247   4.192   8.404   9.592 -0.4170 -0.3028 -0.6291
37841SOL    HW125248   4.134   8.477   9.572 -1.3206 -1.3210 -1.9609
37841SOL    HW225249   4.133   8.334   9.620  0.2658 -1.0199 -0.9434
37842SOL     OW25250   4.675  12.905   4.411 -0.7410  0.1194  0.0145
37842SOL    HW125251   4.762  12.889   4.448 -0.7227 -0.1164 -0.1273
37842SOL    HW225252   4.635  12.969   4.470 -0.5109  0.1492  0.1390
37843SOL     OW25253   9.590   6.366  12.520  0.0018 -0.3900  0.1294
37843SOL    HW125254   9.624   6.333  12.436  0.9172  1.0846 -0.1002
37843SOL    HW225255   9.507   6.408  12.497  0.5328  0.5301 -0.1555
37844SOL     OW25256   6.890   9.037   6.738  0.0276  0.0592  0.0182
37844SOL    HW125257   6.954   9.022   6.808 -0.8319 -1.0150  0.6165
37844SOL    HW225258   6.938   9.022   6.657  0.4675 -1.1273  0.4737
37845SOL     OW25259   6.933  11.700   8.553 -0.3073 -0.4036  0.0197
37845SOL    HW125260   7.019  11.713   8.593 -0.4047  1.6262 -0.3499
37845SOL    HW225261   6.953  11.672   8.464 -0.0698 -1.7725  0.4800
37846SOL     OW25262  13.383   6.032   3.470  0.1966 -0.4006 -0.1580
37846SOL    HW125263  13.430   5.949   3.456 -1.4460 -1.5158  0.6117
37846SOL    HW225264  13.365   6.065   3.383  0.3917 -1.1308 -0.4825
37847SOL     OW25265   2.610   4.408  12.990 -0.7401  0.6176  0.1999
37847SOL    HW125266   2.605   4.480  12.928 -0.8147  0.0605 -0.4495
37847SOL    HW225267   2.670   4.439  13.058  0.4201  0.7305 -0.8404
37848SOL     OW25268   1.745   7.942   9.380 -0.4294 -0.0233  0.3848
37848SOL    HW125269   1.705   8.014   9.428 -0.5078  0.3547 -0.2382
37848SOL    HW225270   1.837   7.943   9.406 -0.5432 -0.0580  0.8020
37849SOL     OW25271  11.801   9.807   3.577 -0.4043 -0.2177 -0.1826
37849SOL    HW125272  11.727   9.833   3.522 -0.9003 -1.3633 -0.0756
37849SOL    HW225273  11.762   9.751   3.644  0.8032 -2.5404 -1.3158
37850SOL     OW25274   4.660  10.127  13.160 -0.2988 -0.1560 -0.2104
37850SOL    HW125275   4.702  10.212  13.142 -0.0393 -0.3550 -0.5657
37850SOL    HW225276   4.589  10.122  13.096  0.1944 -0.5622 -0.7353
37851SOL     OW25277   2.514  13.404  13.408 -0.3604 -1.1099  0.1635
37851SOL    HW125278   2.606  13.411  13.385  0.0171  3.4421  2.1127
37851SOL    HW225279   2.513  13.352  13.488  1.0942  1.4773  2.0035
37852SOL     OW25280   0.728  13.390  10.104  0.1700 -0.0436  0.0984
37852SOL    HW125281   0.684  13.463  10.060 -1.1480 -1.8730 -1.8777
37852SOL    HW225282   0.820  13.399  10.080 -0.0537  0.7283 -0.5056
37853SOL     OW25283   5.001   1.537   6.744 -0.0144  0.5022  0.1556
37853SOL    HW125284   5.093   1.560   6.760 -0.0958  0.4893  0.6437
37853SOL    HW225285   4.952   1.617   6.763  0.0263  1.0197 -1.6791
37854SOL     OW25286   8.350   4.536   8.698 -0.0819 -0.0469 -0.3734
37854SOL    HW125287   8.278   4.476   8.718  0.5719 -0.4698  0.8060
37854SOL    HW225288   8.372   4.517   8.606  0.0013 -1.5055 -0.0790
37855SOL     OW25289   9.242  12.252   0.384  0.7169  0.2163 -0.0830
37855SOL    HW125290   9.223  12.220   0.472  0.0076  2.3252  0.5742
37855SOL    HW225291   9.255  12.346   0.394  1.2340  0.4195 -2.1558
37856SOL     OW25292   3.002   9.486  13.330 -0.2791 -0.6619 -0.3581
37856SOL    HW125293   2.997   9.485  13.234 -0.2684 -0.2819 -0.3653
37856SOL    HW225294   3.080   9.538  13.350 -0.7843  0.0286 -0.1357
37857SOL     OW25295  11.020  10.351  12.278 -0.0448 -0.0425 -0.5067
37857SOL    HW125296  10.973  10.273  12.307 -0.5621  0.0825 -1.0010
37857SOL    HW225297  10.990  10.421  12.337  1.7483 -0.5571  1.1041
37858SOL     OW25298   1.551   1.946  10.930 -0.1238 -0.7579  0.3819
37858SOL    HW125299   1.582   1.992  10.852 -0.5191  0.5472  0.9500
37858SOL    HW225300   1.627   1.941  10.988 -0.0044 -1.0971  0.1970
37859SOL     OW25301   5.603   8.522  11.720 -0.0208  0.0638  0.3566
37859SOL    HW125302   5.589   8.586  11.790  1.8238 -1.1324  1.9507
37859SOL    HW225303   5.697   8.504  11.724 -0.2506 -1.6574 -1.0176
37860SOL     OW25304  10.397  12.959   9.731  0.2884 -0.2428  0.0806
37860SOL    HW125305  10.384  12.997   9.644  0.9437 -0.4277 -0.0973
37860SOL    HW225306  10.402  13.035   9.789 -1.9745 -0.1397  0.2385
37861SOL     OW25307  11.605   2.067   2.949 -0.0054  0.0085  0.0060
37861SOL    HW125308  11.602   2.139   2.886  0.3114  0.1456  0.1504
37861SOL    HW225309  11.611   2.109   3.034  2.7141 -0.1809 -0.0278
37862SOL     OW25310  11.094   4.256   1.982  0.0630  0.0319  0.4523
37862SOL    HW125311  11.085   4.164   1.958 -2.0256  0.4764 -0.6953
37862SOL    HW225312  11.186   4.276   1.965  0.2380 -1.4733 -0.6461
37863SOL     OW25313  11.506   0.146   8.930  0.1060  0.1088  0.0938
37863SOL    HW125314  11.413   0.164   8.946 -0.0937 -1.8707  1.5513
37863SOL    HW225315  11.549   0.230   8.948 -1.3721  1.1093 -0.7360
37864SOL     OW25316   0.739   7.339   5.186 -0.5000  0.5239 -0.3017
37864SOL    HW125317   0.712   7.250   5.210  0.1178  0.9779  2.4102
37864SOL    HW225318   0.761   7.333   5.093 -2.8456 -1.5416 -0.8296
37865SOL     OW25319   7.493   6.586   8.902  0.5509 -0.3837  0.1498
37865SOL    HW125320   7.547   6.535   8.841  0.6063  0.3544 -0.4286
37865SOL    HW225321   7.434   6.521   8.942  0.7269 -0.9251 -0.4517
37866SOL     OW25322   9.369  10.740   7.508  0.3143 -0.6843  0.2326
37866SOL    HW125323   9.290  10.690   7.485  0.0794 -0.0236 -0.4494
37866SOL    HW225324   9.385  10.718   7.600 -1.2360 -0.1138  0.6893
37867SOL     OW25325   9.914  11.719   4.146 -0.2103 -0.1965  0.4127
37867SOL    HW125326   9.960  11.635   4.155  0.1622 -0.0807 -0.3362
37867SOL    HW225327   9.822  11.698   4.163  0.1940 -0.2643  2.8598
37868SOL     OW25328   5.382   0.516   8.816 -0.4463  0.1288  0.1117
37868SOL    HW125329   5.469   0.498   8.851 -0.7134  0.8466  1.1780
37868SOL    HW225330   5.323   0.461   8.868 -0.8368  1.1365  0.7565
37869SOL     OW25331   2.801   0.236  12.580  0.0315  0.5174 -0.5742
37869SOL    HW125332   2.786   0.143  12.562 -0.7516  0.5037  0.1546
37869SOL    HW225333   2.866   0.237  12.650  1.0890  0.5556 -1.5063
37870SOL     OW25334   5.002   1.612  13.505  0.2495 -0.5961  0.5897
37870SOL    HW125335   5.088   1.653  13.515 -0.9353  1.9735  1.0129
37870SOL    HW225336   5.004   1.573  13.418  1.2977  0.8656 -0.0898
37871SOL     OW25337   9.017  12.847   6.147 -0.1893 -0.6347 -0.0855
37871SOL    HW125338   9.090  12.830   6.087 -0.6578 -2.2020 -0.2638
37871SOL    HW225339   8.993  12.938   6.131  3.3255  0.8115  1.7460
37872SOL     OW25340  12.586   4.518   8.667 -1.0261 -0.0224 -0.0855
37872SOL    HW125341  12.604   4.589   8.604  2.0338  0.8325  1.5251
37872SOL    HW225342  12.570   4.441   8.613 -0.6130  1.1149 -1.9107
37873SOL     OW25343  13.589   5.452  12.113  0.6004  0.0654 -0.1235
37873SOL    HW125344  13.673   5.472  12.073 -0.4202 -0.9123 -2.9540
37873SOL    HW225345  13.536   5.531  12.101  1.0344  0.6758  1.6414
37874SOL     OW25346   8.033   8.350   2.657 -0.4183  0.2125 -0.0741
37874SOL    HW125347   7.978   8.363   2.579 -0.2089  0.5880 -0.1652
37874SOL    HW225348   8.094   8.424   2.655  1.5379 -1.3066 -1.1838
37875SOL     OW25349  11.329   4.520   3.859  0.0844  0.1884 -0.2475
37875SOL    HW125350  11.245   4.493   3.895 -0.4531  1.5850 -0.3831
37875SOL    HW225351  11.394   4.487   3.922 -0.6751  0.4672  0.7045
37876SOL     OW25352   5.668   1.612   8.159  0.2884 -0.1846  0.4114
37876SOL    HW125353   5.676   1.602   8.254  0.7348  0.2371  0.4224
37876SOL    HW225354   5.668   1.523   8.125  0.9705 -0.3205  0.7442
37877SOL     OW25355   0.673  12.928   8.381  0.4814  0.5587  0.2197
37877SOL    HW125356   0.714  12.844   8.399  0.3975  0.6485  0.8464
37877SOL    HW225357   0.586  12.906   8.347  0.5334  0.3890  0.1988
37878SOL     OW25358   6.152   0.338   4.775  0.0832  0.1869 -0.4966
37878SOL    HW125359   6.194   0.312   4.856 -0.8262 -0.1859 -0.1339
37878SOL    HW225360   6.066   0.371   4.801  0.0782  0.7876 -1.2310
37879SOL     OW25361  10.866  13.304   7.036 -0.5297  0.4317  0.0717
37879SOL    HW125362  10.859  13.358   6.957  1.7332 -0.6583 -0.9506
37879SOL    HW225363  10.956  13.317   7.066 -0.7715 -0.6874  1.3761
37880SOL     OW25364  13.019  12.428   2.033 -0.3213  0.1024 -0.2600
37880SOL    HW125365  13.017  12.360   2.100 -1.4257  0.0159 -0.3560
37880SOL    HW225366  13.002  12.381   1.951  3.1174 -0.1446 -0.9770
37881SOL     OW25367   7.683  10.609   6.461 -0.0858 -0.1323 -0.1839
37881SOL    HW125368   7.696  10.644   6.373 -1.3773 -0.5302 -0.5570
37881SOL    HW225369   7.642  10.681   6.509 -0.7766 -0.3963 -0.3543
37882SOL     OW25370   1.688  10.896   3.288  0.2148  0.1677  0.4318
37882SOL    HW125371   1.629  10.917   3.361  0.0682  0.2683  0.2863
37882SOL    HW225372   1.630  10.893   3.211  0.3673  0.0567  0.3207
37883SOL     OW25373  13.408   5.359   7.305 -0.0996  0.0000  0.2326
37883SOL    HW125374  13.416   5.278   7.254  0.2682 -0.7042  1.3702
37883SOL    HW225375  13.354   5.416   7.251  0.5651 -0.5860 -1.1041
37884SOL     OW25376   6.183   2.971  11.125  0.3627  0.1668  0.3784
37884SOL    HW125377   6.206   2.970  11.218 -0.4616 -0.2746  0.5853
37884SOL    HW225378   6.260   2.936  11.081  0.9449  0.8258  0.8431
37885SOL     OW25379  10.723  12.100   9.524  0.0637 -0.0975  0.4273
37885SOL    HW125380  10.686  12.032   9.469  0.9227  0.0166 -0.3055
37885SOL    HW225381  10.769  12.053   9.593 -0.8592 -0.2381  0.9732
37886SOL     OW25382   7.606   3.897  13.727 -0.2743  0.0982  0.0436
37886SOL    HW125383   7.642   3.808  13.724 -0.9227 -0.1599 -0.2898
37886SOL    HW225384   7.676   3.950  13.764  1.3808  0.0313 -2.6972
37887SOL     OW25385   0.439  11.108   5.480 -0.0800  0.3860  0.3029
37887SOL    HW125386   0.387  11.135   5.556 -1.9264  0.3569 -0.9002
37887SOL    HW225387   0.402  11.157   5.407 -0.0902 -1.5067 -1.0300
37888SOL     OW25388  12.509   5.286  13.496 -0.1021  0.3151  0.1468
37888SOL    HW125389  12.416   5.309  13.493  0.0411  0.9049  0.1149
37888SOL    HW225390  12.550   5.360  13.542  0.3726  0.1325  0.0184
37889SOL     OW25391  12.367   0.419   0.409 -0.0780  0.1139 -0.2515
37889SOL    HW125392  12.457   0.387   0.409  0.0339  0.3572  1.2867
37889SOL    HW225393  12.314   0.345   0.437 -0.3819 -0.0246 -1.1376
37890SOL     OW25394   5.340   5.456   7.676 -0.1938 -0.4238  0.0709
37890SOL    HW125395   5.323   5.550   7.682 -1.0146 -0.6512  2.1339
37890SOL    HW225396   5.295   5.429   7.596  0.7037  1.0204 -0.9952
37891SOL     OW25397   6.226   3.741   4.794 -0.2592  0.1670  0.3630
37891SOL    HW125398   6.172   3.761   4.870  0.0751  0.8020  0.4376
37891SOL    HW225399   6.236   3.824   4.748  2.1295  0.5100  1.3198
37892SOL     OW25400   2.860   2.268   0.757  0.4755  0.0889 -0.4947
37892SOL    HW125401   2.933   2.312   0.800  0.1537  2.1991 -1.9463
37892SOL    HW225402   2.879   2.175   0.766  1.4402  0.4831  2.3105
37893SOL     OW25403  10.816   9.761  11.598  0.5755  0.0606 -0.0317
37893SOL    HW125404  10.909   9.770  11.579  0.8592  0.0117  1.2782
37893SOL    HW225405  10.811   9.752  11.693 -0.8288  0.7809 -0.0129
37894SOL     OW25406  11.408   8.833  11.432 -0.7070  0.2816  0.1776
37894SOL    HW125407  11.315   8.817  11.418 -0.7616  1.2057 -0.6607
37894SOL    HW225408  11.440   8.866  11.348 -0.0100  1.6105  0.9241
37895SOL     OW25409   6.472   8.592   6.256 -0.5403 -0.8871 -0.0113
37895SOL    HW125410   6.436   8.552   6.335 -1.0438  0.8115  0.6590
37895SOL    HW225411   6.400   8.591   6.193 -0.1603 -2.1749 -0.4708
37896SOL     OW25412  11.412   7.237  11.019  0.0838  0.3317  0.1868
37896SOL    HW125413  11.432   7.275  10.933 -1.2541  0.9018  0.1018
37896SOL    HW225414  11.350   7.166  11.000  0.7009 -0.3236  0.5802
37897SOL     OW25415   8.786   9.654   9.145  0.2916 -0.1574  0.1269
37897SOL    HW125416   8.804   9.578   9.201 -1.5479 -0.8806 -0.1933
37897SOL    HW225417   8.846   9.644   9.071  1.8228  0.0966  1.2738
37898SOL     OW25418   0.116   7.351   1.252 -0.1416  0.3281  0.2658
37898SOL    HW125419   0.097   7.258   1.250  0.2749  0.2575 -1.2106
37898SOL    HW225420   0.177   7.365   1.180  2.0104  1.2723  2.1349
37899SOL     OW25421   2.376   9.664   5.268  0.2453 -0.0697  0.3355
37899SOL    HW125422   2.379   9.698   5.179 -0.2787  1.6489  0.9502
37899SOL    HW225423   2.334   9.732   5.319  0.5493 -1.0166  1.9221
37900SOL     OW25424   7.141   4.888   0.142  0.4939  0.0259  0.4702
37900SOL    HW125425   7.112   4.954   0.078  1.7481  0.6673  0.5242
37900SOL    HW225426   7.178   4.939   0.214  0.3536 -0.7258  1.0900
37901SOL     OW25427   5.437   9.814   9.493 -0.3462 -0.5789  0.1400
37901SOL    HW125428   5.412   9.816   9.585 -1.3084 -1.8538 -0.0512
37901SOL    HW225429   5.383   9.744   9.456 -2.4614  2.0163 -2.1082
37902SOL     OW25430  12.314  10.840   5.812 -0.0501 -0.2696 -0.0239
37902SOL    HW125431  12.397  10.826   5.856  0.6352 -0.2503 -1.2646
37902SOL    HW225432  12.337  10.854   5.720 -1.5006 -1.6800 -0.6763
37903SOL     OW25433   8.318   8.278   7.162  0.3752  0.1243  0.1559
37903SOL    HW125434   8.405   8.311   7.183  1.1864  0.1436 -2.7046
37903SOL    HW225435   8.280   8.344   7.104 -1.1722 -0.3227  0.5953
37904SOL     OW25436   7.526   0.993   9.601  0.6246  0.2978 -0.2449
37904SOL    HW125437   7.462   1.062   9.585  2.4084  1.6094 -2.2246
37904SOL    HW225438   7.475   0.922   9.640 -1.4127  2.4328  1.2828
37905SOL     OW25439   3.935  11.488  10.292  0.2394  0.4360  0.1747
37905SOL    HW125440   3.969  11.418  10.235  0.9726  2.6249 -2.3008
37905SOL    HW225441   4.006  11.552  10.295 -1.3824  2.3338  0.0257
37906SOL     OW25442  10.404  12.362   0.785 -0.6189 -0.0191 -0.5894
37906SOL    HW125443  10.496  12.364   0.811 -0.5802  1.3200 -0.7430
37906SOL    HW225444  10.358  12.338   0.865 -0.0583 -2.2702 -0.8805
37907SOL     OW25445   0.608  11.768   0.400 -0.9112 -0.2887  0.0098
37907SOL    HW125446   0.552  11.708   0.351 -1.3091  0.4034 -0.3925
37907SOL    HW225447   0.617  11.844   0.344 -1.1065  0.3893  0.8808
37908SOL     OW25448  10.120  12.222   8.511  0.1286 -0.0799  0.4720
37908SOL    HW125449  10.070  12.186   8.437 -1.5846  3.0721 -0.0711
37908SOL    HW225450  10.177  12.150   8.538  0.9463 -1.4446 -3.9462
37909SOL     OW25451  12.470   0.558   4.012 -0.1613 -0.2668 -0.0585
37909SOL    HW125452  12.504   0.643   3.985  0.0662 -0.8724 -1.8754
37909SOL    HW225453  12.540   0.496   3.989 -0.3829 -0.9680  1.0856
37910SOL     OW25454   5.421   2.297  12.274 -0.2443 -0.3325 -0.0132
37910SOL    HW125455   5.346   2.353  12.252  0.4200  1.0002  0.9401
37910SOL    HW225456   5.384   2.227  12.327 -0.7929  0.4152  0.6075
37911SOL     OW25457  11.290   6.861   7.608 -0.3243 -0.5133  0.0971
37911SOL    HW125458  11.368   6.816   7.576  0.1188 -1.1936  1.9953
37911SOL    HW225459  11.295   6.853   7.703 -2.4597 -0.1343  0.2934
37912SOL     OW25460  10.369  11.128   3.854 -0.2580  0.3375  0.5750
37912SOL    HW125461  10.309  11.053   3.856 -2.5389  2.0123 -0.3934
37912SOL    HW225462  10.359  11.168   3.941  0.6027 -0.1907  0.9269
37913SOL     OW25463   4.534   5.797   4.178 -0.6262 -0.3255  0.0694
37913SOL    HW125464   4.524   5.889   4.153  1.2744 -0.2212 -0.4246
37913SOL    HW225465   4.580   5.757   4.104  1.0061 -1.0408  1.4054
37914SOL     OW25466   7.493  12.681  12.019  0.0366 -0.0475 -0.3895
37914SOL    HW125467   7.475  12.735  12.096 -0.0078  0.5284 -0.8010
37914SOL    HW225468   7.528  12.742  11.954 -0.8095 -0.3474 -1.1519
37915SOL     OW25469   7.772   5.443   0.542 -0.3862  0.1844  0.3037
37915SOL    HW125470   7.725   5.366   0.575 -0.1628 -0.1628 -0.1727
37915SOL    HW225471   7.764   5.436   0.447  1.0479 -0.1632  0.1826
37916SOL     OW25472   8.500   4.284   4.340 -0.1303 -0.0553 -0.6762
37916SOL    HW125473   8.410   4.315   4.336  0.3117  1.3421 -0.2648
37916SOL    HW225474   8.492   4.189   4.348 -1.6083  0.1414  0.7519
37917SOL     OW25475   9.841   4.780   8.701 -0.3173 -0.1425 -0.4547
37917SOL    HW125476   9.834   4.765   8.795 -1.1362  0.9367 -0.3297
37917SOL    HW225477   9.924   4.827   8.690  0.7576 -1.9458 -0.5201
37918SOL     OW25478  11.873  11.411   7.864  0.2339  0.4543 -0.2606
37918SOL    HW125479  11.939  11.391   7.930  0.1980 -0.6771 -0.5371
37918SOL    HW225480  11.789  11.401   7.909  0.2299  1.1507 -0.1036
37919SOL     OW25481  13.305   7.731   0.823 -0.6143 -0.2807  0.0032
37919SOL    HW125482  13.365   7.803   0.841  1.5056 -1.8642 -0.3701
37919SOL    HW225483  13.284   7.739   0.730  3.2989 -2.5808 -1.3032
37920SOL     OW25484   0.379   6.576   6.678 -0.1378 -0.1172 -0.6163
37920SOL    HW125485   0.334   6.613   6.602  0.3630  0.0232 -0.8513
37920SOL    HW225486   0.455   6.530   6.640 -0.1023 -0.3741 -0.2331
37921SOL     OW25487   8.739   6.589  10.828  0.0583  0.1220  0.4031
37921SOL    HW125488   8.651   6.556  10.811 -0.0602  1.2669 -1.5026
37921SOL    HW225489   8.762   6.553  10.914 -1.2111 -2.3231 -0.1881
37922SOL     OW25490   3.846   9.623   4.500 -0.5369 -0.0910 -0.1874
37922SOL    HW125491   3.809   9.590   4.418 -1.5546  2.1254 -0.7196
37922SOL    HW225492   3.939   9.603   4.494 -1.0202 -2.4550 -0.5696
37923SOL     OW25493   6.251   9.382  10.457  0.3787 -0.4514 -0.4546
37923SOL    HW125494   6.288   9.337  10.532 -0.1669  0.3426  0.3166
37923SOL    HW225495   6.229   9.313  10.395 -0.2010 -1.2181  0.5864
37924SOL     OW25496   2.851  10.600  11.757  0.1092 -0.1573  0.0414
37924SOL    HW125497   2.932  10.575  11.801  0.6404  1.3675 -0.0285
37924SOL    HW225498   2.812  10.666  11.814  0.9520  2.0774 -1.8104
37925SOL     OW25499  11.029   0.568   8.871  0.0805 -0.4091  0.0944
37925SOL    HW125500  10.983   0.609   8.797 -1.2348 -2.2729 -0.1831
37925SOL    HW225501  11.096   0.632   8.895  0.0019  0.6239 -2.1540
37926SOL     OW25502   8.957  12.515   9.215  0.1245  0.3629  0.8400
37926SOL    HW125503   9.041  12.535   9.256  0.1811 -0.1954  0.9987
37926SOL    HW225504   8.957  12.420   9.206 -0.2289  0.4174  0.2767
37927SOL     OW25505   0.603   6.189   1.702 -0.0509 -0.5109  0.2932
37927SOL    HW125506   0.644   6.106   1.676  1.5728 -0.0216  1.1407
37927SOL    HW225507   0.652   6.256   1.655 -1.3643  0.0034 -0.3946
37928SOL     OW25508  12.079   4.375   0.925  0.3732 -0.3242 -0.2527
37928SOL    HW125509  12.117   4.448   0.876  1.4680 -0.5882  0.1654
37928SOL    HW225510  11.998   4.410   0.961 -0.3935 -0.0856 -2.0995
37929SOL     OW25511   8.076   8.977   6.635  0.1675 -0.4486 -0.0847
37929SOL    HW125512   8.103   8.998   6.725 -0.4487  1.0037 -0.1997
37929SOL    HW225513   7.981   8.993   6.634 -0.4727 -3.6185 -0.1727
37930SOL     OW25514   6.585   7.124  10.311  0.0170  1.0061  0.5745
37930SOL    HW125515   6.578   7.080  10.396 -1.5605 -0.8204 -0.4298
37930SOL    HW225516   6.677   7.150  10.306  0.2658  0.7355  2.6205
37931SOL     OW25517   9.842   0.619   4.671 -0.3068  0.0112 -0.2835
37931SOL    HW125518   9.851   0.563   4.593 -0.9139  1.0222 -1.1093
37931SOL    HW225519   9.813   0.703   4.636 -0.3813  0.5484  1.0344
37932SOL     OW25520   1.577   2.617   1.362 -0.1206 -0.3625  0.2325
37932SOL    HW125521   1.492   2.598   1.322 -0.6011 -1.5496  1.7026
37932SOL    HW225522   1.561   2.693   1.417  0.3557  0.8003 -1.1711
37933SOL     OW25523  13.389   0.089   4.470  0.0385 -0.1855  0.1709
37933SOL    HW125524  13.359   0.155   4.408  2.0879  1.0795  0.4535
37933SOL    HW225525  13.439   0.027   4.416  0.9609  0.3652  0.3642
37934SOL     OW25526  10.256   1.032   5.083 -0.0410 -0.0473  0.0189
37934SOL    HW125527  10.250   0.971   5.156 -0.5224  2.0307  1.8037
37934SOL    HW225528  10.350   1.036   5.062  0.0784 -0.7722  0.3778
37935SOL     OW25529   6.328   9.186   9.456 -0.0957 -0.1117 -0.0046
37935SOL    HW125530   6.258   9.168   9.393 -0.5739  0.6349  0.3061
37935SOL    HW225531   6.319   9.118   9.523 -0.7646  0.2120  0.2361
37936SOL     OW25532   4.114  12.161   0.450 -0.6338 -0.1320  0.0170
37936SOL    HW125533   4.116  12.214   0.530  0.3730 -1.9070  1.2405
37936SOL    HW225534   4.022  12.135   0.440 -0.8663  0.5801  0.2585
37937SOL     OW25535   2.210   3.601   8.830 -0.1712 -0.6117  0.6107
37937SOL    HW125536   2.208   3.588   8.925 -0.4525 -2.5534  0.3834
37937SOL    HW225537   2.175   3.519   8.795 -3.2629  1.2479 -1.0931
37938SOL     OW25538   7.654   7.760  12.461 -0.6480  0.3310  0.6431
37938SOL    HW125539   7.655   7.719  12.375 -0.2937 -0.6001  1.0717
37938SOL    HW225540   7.713   7.835  12.453  0.6971 -0.6959  0.4932
37939SOL     OW25541   3.898  13.232   7.527 -0.0349 -0.0092 -0.0443
37939SOL    HW125542   3.828  13.201   7.584 -1.2072 -0.4257 -1.6270
37939SOL    HW225543   3.865  13.316   7.494  0.3432 -0.0731 -0.5829
37940SOL     OW25544  11.258  10.145   4.920 -0.4432 -0.0401  0.2868
37940SOL    HW125545  11.198  10.172   4.850  0.5665 -0.7209 -0.8811
37940SOL    HW225546  11.240  10.051   4.932 -0.6505  0.0845  0.9888
37941SOL     OW25547   2.476   0.825  11.765 -0.0593 -0.3723  0.0593
37941SOL    HW125548   2.396   0.836  11.817 -1.2730 -0.1930 -1.7479
37941SOL    HW225549   2.511   0.740  11.793 -2.2754 -1.6610 -0.8286
37942SOL     OW25550   2.372  11.137   3.127 -0.1103 -0.1634  0.2271
37942SOL    HW125551   2.454  11.153   3.081  0.0382 -1.1990  0.1031
37942SOL    HW225552   2.377  11.045   3.155 -1.3121 -0.3191  0.0229
37943SOL     OW25553  10.295   4.977  13.474 -0.1839  1.0171 -0.2074
37943SOL    HW125554  10.352   4.900  13.469 -0.1615  1.0963 -1.9234
37943SOL    HW225555  10.250   4.979  13.389  0.6678  3.5084 -0.6900
37944SOL     OW25556   9.179   2.885  11.015  0.3173  0.0068 -1.1314
37944SOL    HW125557   9.149   2.921  10.931 -0.1166 -0.6430 -1.2669
37944SOL    HW225558   9.265   2.849  10.996 -0.2277 -1.1127 -1.5866
37945SOL     OW25559   1.367   6.176   8.493 -0.0194 -0.7916 -0.3067
37945SOL    HW125560   1.279   6.150   8.465  0.3671 -2.2420 -0.2845
37945SOL    HW225561   1.365   6.166   8.589 -0.5323  1.5597 -0.0116
37946SOL     OW25562  11.896   2.560   9.682 -0.4054  0.3877 -0.0337
37946SOL    HW125563  11.888   2.610   9.601 -1.4727 -0.1259 -0.2617
37946SOL    HW225564  11.807   2.531   9.701 -0.3072  1.1110  1.7133
37947SOL     OW25565   9.657  13.540   2.985  0.3823  0.0627  0.4351
37947SOL    HW125566   9.710  13.460   2.982  0.7183  0.3079 -0.0891
37947SOL    HW225567   9.625  13.552   2.896  2.2356  1.7959 -0.0607
37948SOL     OW25568  11.633   7.718   0.100 -0.4472 -0.9281  0.7809
37948SOL    HW125569  11.555   7.750   0.056 -0.0249  0.1749  0.8177
37948SOL    HW225570  11.706   7.747   0.045 -0.0294 -1.4505  1.0477
37949SOL     OW25571   3.758   7.949   0.768 -0.0392 -0.0148 -0.7022
37949SOL    HW125572   3.715   8.012   0.710 -0.5217 -0.4332 -0.8169
37949SOL    HW225573   3.814   7.897   0.710 -1.7752 -1.5260 -1.1256
37950SOL     OW25574   6.323  11.631   9.734 -0.2170  0.2496 -0.0251
37950SOL    HW125575   6.392  11.653   9.797 -0.2741  0.7582 -0.1357
37950SOL    HW225576   6.265  11.573   9.782  0.9211 -1.1620 -0.2926
37951SOL     OW25577  10.861  10.550   6.917  0.5128  0.4155 -0.3542
37951SOL    HW125578  10.889  10.628   6.965 -0.7513  1.2525 -0.9021
37951SOL    HW225579  10.863  10.480   6.981 -0.4542  1.3577  0.7674
37952SOL     OW25580   0.773   8.316  13.532 -0.0980 -0.7153 -0.9160
37952SOL    HW125581   0.781   8.408  13.557 -1.9259 -0.3188 -1.6758
37952SOL    HW225582   0.856   8.296  13.488  0.8302  0.1763  0.3482
37953SOL     OW25583   8.938  12.282  10.077 -0.0077 -0.7629  0.5925
37953SOL    HW125584   8.925  12.187  10.089 -0.8444 -0.5574  1.4191
37953SOL    HW225585   8.895  12.321  10.153  1.2549  0.2365  0.8175
37954SOL     OW25586  11.722  11.163   4.378  1.3277  0.1248 -0.2251
37954SOL    HW125587  11.799  11.106   4.376  1.3555  0.1745 -1.8946
37954SOL    HW225588  11.752  11.244   4.338  0.7530  0.6359  0.3635
37955SOL     OW25589   3.558   2.914   7.564  0.1584  0.1151 -0.2082
37955SOL    HW125590   3.563   2.820   7.582 -0.2234 -0.2425 -1.8366
37955SOL    HW225591   3.635   2.951   7.607  0.2027 -0.8928  0.6279
37956SOL     OW25592  11.008   6.274   5.301  0.0184  0.1383 -0.7422
37956SOL    HW125593  11.005   6.180   5.286  2.6385 -0.3757  1.2452
37956SOL    HW225594  11.099   6.298   5.287 -0.4026  2.2133 -0.2512
37957SOL     OW25595  10.738   2.056   8.229  0.2617  0.0923 -0.6081
37957SOL    HW125596  10.644   2.074   8.236  0.2704 -0.2281  0.4085
37957SOL    HW225597  10.777   2.142   8.215  0.0239  0.5464  1.3206
37958SOL     OW25598  11.926   8.657  12.677  0.3056 -0.0022  0.2084
37958SOL    HW125599  11.916   8.675  12.770 -1.0438  1.3833 -0.1700
37958SOL    HW225600  12.018   8.629  12.668  0.3569 -0.5108  1.9753
37959SOL     OW25601  13.481   1.821   2.386 -0.2117  0.3143 -0.4319
37959SOL    HW125602  13.568   1.818   2.347 -0.2839  2.0629 -0.8100
37959SOL    HW225603  13.422   1.797   2.315 -0.2007  1.5755 -0.8821
37960SOL     OW25604   9.222   9.204  12.271 -0.8287  0.0934  0.1151
37960SOL    HW125605   9.314   9.229  12.268 -1.0403  1.0641  1.0797
37960SOL    HW225606   9.191   9.236  12.356 -1.2940 -2.8957  1.1895
37961SOL     OW25607  12.994   6.074   1.782  0.1325 -0.2125 -0.0228
37961SOL    HW125608  12.916   6.046   1.735 -2.1038  0.1818  3.1539
37961SOL    HW225609  13.003   6.167   1.762 -0.2451 -0.2550 -0.3849
37962SOL     OW25610  10.104   2.592   6.728  0.4160  0.2795  0.2559
37962SOL    HW125611  10.106   2.680   6.764  0.4688  0.1090  0.6669
37962SOL    HW225612  10.033   2.548   6.775 -0.0505  0.3030 -0.4126
37963SOL     OW25613   7.150   2.267   5.092 -0.1681  0.1081  0.0103
37963SOL    HW125614   7.055   2.266   5.104  0.0061 -0.5743  1.7639
37963SOL    HW225615   7.180   2.339   5.147  0.4011 -0.4332  0.4344
37964SOL     OW25616   4.951   8.240  13.532  0.8544  0.0287 -0.1029
37964SOL    HW125617   4.905   8.239  13.448  0.5827 -0.9811  0.0469
37964SOL    HW225618   5.039   8.210  13.511 -0.0337 -3.4004  0.3737
37965SOL     OW25619   1.673   8.126   0.701 -0.0685  0.1555  0.6570
37965SOL    HW125620   1.645   8.174   0.780 -0.1679  0.7841  0.2506
37965SOL    HW225621   1.768   8.119   0.710 -0.0202  0.6741  0.5954
37966SOL     OW25622   3.226   2.626  13.075  0.2482 -0.8283  0.5375
37966SOL    HW125623   3.226   2.626  12.979  1.8679  0.4415  0.4997
37966SOL    HW225624   3.260   2.540  13.099 -0.6422 -1.3440 -0.0106
37967SOL     OW25625   7.793  12.604   9.331  0.4134  0.5349  0.4376
37967SOL    HW125626   7.877  12.649   9.327 -0.3572  1.9561 -2.2447
37967SOL    HW225627   7.748  12.629   9.250 -0.9481 -3.4909 -0.3049
37968SOL     OW25628   8.611   5.224   0.027  0.3457  0.4267  0.1179
37968SOL    HW125629   8.587   5.271  -0.052  0.1553 -0.8146 -0.6012
37968SOL    HW225630   8.529   5.212   0.075  0.5836  1.8907  0.9331
37969SOL     OW25631   9.169   8.453   1.163 -0.2893 -0.5957 -0.5560
37969SOL    HW125632   9.075   8.471   1.155 -0.7138 -2.4380  0.0504
37969SOL    HW225633   9.186   8.454   1.257  0.5378  0.6777 -0.6842
37970SOL     OW25634   7.766  10.074  12.165  0.7786 -0.3249 -0.6294
37970SOL    HW125635   7.854  10.093  12.197  0.3706  0.2221  0.1779
37970SOL    HW225636   7.770   9.983  12.134  1.6693 -0.2376 -0.7748
37971SOL     OW25637   8.236   8.515  13.382  0.5557  0.3366 -0.5203
37971SOL    HW125638   8.186   8.434  13.368  0.7177  0.2985 -0.8976
37971SOL    HW225639   8.327   8.490  13.368  0.6170  0.5582 -0.5190
37972SOL     OW25640   7.029   4.190   7.178  0.3000  0.1990  0.2929
37972SOL    HW125641   7.094   4.121   7.164 -1.4316 -1.3717 -0.4243
37972SOL    HW225642   6.992   4.172   7.264 -0.5514 -0.1382 -0.1292
37973SOL     OW25643   4.781   6.508   6.127 -0.4760 -0.0551  0.3245
37973SOL    HW125644   4.710   6.571   6.139  0.7933  1.4955  0.0218
37973SOL    HW225645   4.739   6.431   6.091 -2.4031 -0.1743  2.6053
37974SOL     OW25646   4.166  12.779  13.655 -0.6394  0.4539 -0.3025
37974SOL    HW125647   4.187  12.731  13.575  0.1812  0.4942 -0.1139
37974SOL    HW225648   4.248  12.782  13.703  0.4785  5.3951 -1.9977
37975SOL     OW25649   9.939  10.644  10.280  0.3110  0.4158  0.1293
37975SOL    HW125650   9.951  10.632  10.186 -0.1527 -0.6069  0.1837
37975SOL    HW225651  10.027  10.631  10.317 -0.0243 -2.7196  0.1283
37976SOL     OW25652  10.657  11.413   1.353 -0.0188  0.4893  0.8317
37976SOL    HW125653  10.627  11.503   1.366 -1.0201  0.2331  0.3629
37976SOL    HW225654  10.587  11.359   1.388  0.0806 -0.1261  0.1084
37977SOL     OW25655  10.472   6.650   2.979 -0.1042  0.1679  0.6612
37977SOL    HW125656  10.399   6.607   3.024  1.7472 -2.3740  1.4990
37977SOL    HW225657  10.523   6.691   3.049  0.3724  0.1094  0.3544
37978SOL     OW25658  12.455   1.985   2.577  0.1863 -0.1662 -0.0061
37978SOL    HW125659  12.454   1.926   2.652 -0.3861 -0.4280 -0.2138
37978SOL    HW225660  12.456   1.928   2.500 -2.5017  0.0095 -0.2555
37979SOL     OW25661   8.977  11.027   9.603 -0.3313  0.0219  0.3418
37979SOL    HW125662   8.962  11.093   9.536  1.3439 -1.8351 -2.0362
37979SOL    HW225663   9.018  11.075   9.675  0.0114  1.7330 -0.9343
37980SOL     OW25664   4.110   2.343   0.471 -0.6953  0.8087 -0.1989
37980SOL    HW125665   4.158   2.425   0.460 -0.2002  0.5239 -0.1998
37980SOL    HW225666   4.169   2.275   0.436 -1.1983  0.4798 -0.4186
37981SOL     OW25667   6.441  11.243  13.698  0.2672 -0.9226 -0.5230
37981SOL    HW125668   6.386  11.309  13.656 -0.8695 -1.5167  0.0005
37981SOL    HW225669   6.508  11.222  13.632  0.2018  0.1930 -0.9666
37982SOL     OW25670   6.513  11.540   4.341  0.0100  0.2422 -0.5995
37982SOL    HW125671   6.480  11.627   4.316 -0.5041  0.9014  2.0552
37982SOL    HW225672   6.556  11.554   4.426  3.8147 -1.3512 -2.0541
37983SOL     OW25673   7.066  10.254  11.197  0.8940  0.1678  0.0356
37983SOL    HW125674   7.106  10.297  11.121  1.0520  0.2642  0.1743
37983SOL    HW225675   7.140  10.234  11.255  0.5089  2.9201  1.6392
37984SOL     OW25676   4.482  12.842  11.104  0.2392 -0.3296 -0.0543
37984SOL    HW125677   4.543  12.902  11.060 -2.6787  2.1875 -1.0476
37984SOL    HW225678   4.494  12.860  11.197  0.8177  0.3515 -0.2500
37985SOL     OW25679   1.768   3.073  12.422 -0.0415  0.9123 -0.3906
37985SOL    HW125680   1.835   3.018  12.383  0.6780  1.4364  0.0923
37985SOL    HW225681   1.778   3.158  12.378 -2.1846  0.2985 -2.3133
37986SOL     OW25682   0.630   9.748   2.445 -0.1700 -0.3008 -0.2114
37986SOL    HW125683   0.601   9.754   2.354 -2.4207 -1.3952  0.3502
37986SOL    HW225684   0.615   9.656   2.469 -2.3057  0.5248  2.0287
37987SOL     OW25685   4.888   9.758   0.393 -0.4768  0.0018 -0.1804
37987SOL    HW125686   4.834   9.680   0.379 -0.1580 -0.0858 -0.9431
37987SOL    HW225687   4.976   9.724   0.404 -0.6055  0.1158  1.4296
37988SOL     OW25688   1.966   9.829  12.098 -0.3930  0.5280  0.4602
37988SOL    HW125689   1.996   9.863  12.183  0.1069  0.6742  0.2344
37988SOL    HW225690   1.957   9.735  12.112  2.4574  0.0745 -0.0462
37989SOL     OW25691  12.597   7.326  10.828 -0.3292  0.4286 -0.3414
37989SOL    HW125692  12.656   7.251  10.821  0.2386  0.8335 -0.0317
37989SOL    HW225693  12.539   7.318  10.753 -0.5830 -0.5748 -0.0492
37990SOL     OW25694   4.220   4.699  11.123 -0.8313  0.0341  0.1169
37990SOL    HW125695   4.194   4.728  11.210  0.7576 -0.0810  0.6734
37990SOL    HW225696   4.316   4.696  11.126 -0.6873  0.8187 -1.8974
37991SOL     OW25697   4.217   2.829   6.270  0.0893 -0.3204  0.1247
37991SOL    HW125698   4.124   2.823   6.290  0.2429 -0.1787  0.9262
37991SOL    HW225699   4.260   2.783   6.342  0.8684  3.2390  2.1683
37992SOL     OW25700   9.864   6.971   1.510 -0.0543  0.6447 -0.1701
37992SOL    HW125701   9.850   7.000   1.420  1.4093  1.1033 -0.2867
37992SOL    HW225702   9.959   6.967   1.519 -0.0701 -3.6158  0.0285
37993SOL     OW25703   5.439  13.366   3.223 -0.3673 -0.5382 -0.0492
37993SOL    HW125704   5.354  13.359   3.266  0.1422 -0.3911  1.0105
37993SOL    HW225705   5.503  13.343   3.291  0.6247  2.1204  0.0594
37994SOL     OW25706   4.828   6.151  12.575  0.1399 -0.2403  0.4212
37994SOL    HW125707   4.777   6.127  12.652 -0.2776  1.1623  0.6160
37994SOL    HW225708   4.834   6.247  12.579  0.2869 -0.1489 -1.1774
37995SOL     OW25709   6.042   0.550   6.642  0.4789  0.0528  0.1177
37995SOL    HW125710   6.010   0.603   6.569 -0.9030 -1.1330 -0.1958
37995SOL    HW225711   5.963   0.530   6.693  0.9309 -1.6688  0.2220
37996SOL     OW25712   4.826  13.664   6.555  0.3152 -0.3468 -0.5828
37996SOL    HW125713   4.877  13.673   6.635  0.7243  0.0236 -0.8784
37996SOL    HW225714   4.863  13.730   6.496 -1.6760  1.1680 -0.2162
37997SOL     OW25715  11.577   4.802   3.585  0.2825  0.1095 -0.2563
37997SOL    HW125716  11.494   4.775   3.545 -0.6682  2.6010 -0.1185
37997SOL    HW225717  11.554   4.827   3.674  1.3853 -0.0595  0.0885
37998SOL     OW25718   1.512   0.414   2.066  0.0749 -0.0951 -0.4054
37998SOL    HW125719   1.448   0.482   2.087 -0.7746 -1.1505  0.5450
37998SOL    HW225720   1.460   0.337   2.044  1.0199 -0.7294 -0.4959
37999SOL     OW25721  10.270  13.162   1.395  0.0851  0.3398  0.2270
37999SOL    HW125722  10.282  13.247   1.353  0.2369  0.4218  0.4274
37999SOL    HW225723  10.310  13.174   1.482  0.4760 -0.0616  0.1023
38000SOL     OW25724  10.772  12.415   9.144 -0.4798  0.6579 -0.1233
38000SOL    HW125725  10.813  12.342   9.190  0.9319  1.1656 -0.5256
38000SOL    HW225726  10.679  12.391   9.138 -0.0358 -1.1452 -0.3316
38001SOL     OW25727   0.258   2.864  10.891  0.7511 -0.7795  0.1786
38001SOL    HW125728   0.202   2.796  10.927 -0.5852  0.1812 -0.0421
38001SOL    HW225729   0.347   2.830  10.904  0.1640 -2.1022  0.9771
38002SOL     OW25730   0.265  12.105  13.632 -0.2208  0.3526  0.6345
38002SOL    HW125731   0.242  12.038  13.696 -0.6188  0.4075  0.5499
38002SOL    HW225732   0.274  12.058  13.550  2.3424 -0.0774  1.0675
38003SOL     OW25733   6.200  12.536   8.317 -0.3826  0.0597 -0.2306
38003SOL    HW125734   6.268  12.591   8.355 -0.0620 -1.3570  1.3706
38003SOL    HW225735   6.148  12.595   8.263  1.9744  1.2417 -1.3605
38004SOL     OW25736  11.785  10.571   1.722 -0.1933 -0.1235 -0.1872
38004SOL    HW125737  11.829  10.488   1.739  0.7313  0.1978 -0.9175
38004SOL    HW225738  11.790  10.619   1.804  2.6948  0.7236 -0.7468
38005SOL     OW25739  12.255   6.447   4.689  0.0236 -0.0927  0.0598
38005SOL    HW125740  12.309   6.489   4.622  2.4994 -1.0895  1.2939
38005SOL    HW225741  12.180   6.506   4.700  0.5669  1.1016 -2.1249
38006SOL     OW25742   7.283   7.274   9.771 -0.4363 -0.2365  0.7728
38006SOL    HW125743   7.251   7.185   9.760 -3.1247  0.5486  1.5104
38006SOL    HW225744   7.277   7.313   9.683 -2.7422  0.2059  1.0651
38007SOL     OW25745  11.685   9.840   7.082  0.6301  0.0297 -0.7878
38007SOL    HW125746  11.717   9.829   7.171 -0.9138  4.0739  0.4618
38007SOL    HW225747  11.741   9.908   7.044  1.0306 -1.3570 -2.8371
38008SOL     OW25748   7.851   4.392   9.915 -0.2780 -0.2232 -0.3224
38008SOL    HW125749   7.795   4.360   9.986  1.5441 -0.6013  1.0169
38008SOL    HW225750   7.830   4.336   9.840 -0.5591 -1.4087  0.6170
38009SOL     OW25751   2.696   9.585   2.653 -0.5570 -0.0400  0.0341
38009SOL    HW125752   2.632   9.537   2.601 -0.7955  2.1955 -1.9240
38009SOL    HW225753   2.772   9.594   2.595 -0.1467  1.0285  0.7057
38010SOL     OW25754   5.241   5.488   9.766  0.4571 -0.6250 -0.5302
38010SOL    HW125755   5.159   5.510   9.722  1.2442 -1.1637 -2.3308
38010SOL    HW225756   5.256   5.561   9.827 -2.4672 -1.5752  1.5401
38011SOL     OW25757  11.534  13.467  11.153 -0.3786 -0.3111 -0.0133
38011SOL    HW125758  11.588  13.492  11.078 -0.6146 -1.0545 -0.4376
38011SOL    HW225759  11.475  13.542  11.165  1.1643  0.8297  0.9041
38012SOL     OW25760   7.158  11.320   6.650  0.1031  0.4434 -0.1780
38012SOL    HW125761   7.167  11.335   6.745  1.4352  2.2335 -0.5362
38012SOL    HW225762   7.195  11.398   6.610 -1.1349  0.0638 -2.2025
38013SOL     OW25763   4.171  10.115  12.336  0.4053 -0.3745 -0.0840
38013SOL    HW125764   4.231  10.146  12.268  1.0492 -1.6212 -0.1046
38013SOL    HW225765   4.223  10.115  12.416 -0.4236  1.3362  0.5133
38014SOL     OW25766   6.434   1.134   8.599 -0.3371  0.4738 -0.3526
38014SOL    HW125767   6.471   1.209   8.646 -0.6469  0.1975  0.3490
38014SOL    HW225768   6.369   1.097   8.659  0.8402 -1.2432 -0.0521
38015SOL     OW25769   2.923   1.331  12.390  0.9242 -0.4210  0.3733
38015SOL    HW125770   2.908   1.416  12.349  0.9801 -0.2308  0.7516
38015SOL    HW225771   2.954   1.275  12.318  1.9286  0.1648  0.3351
38016SOL     OW25772  12.031   9.510   8.164 -0.3063 -0.3836  0.7063
38016SOL    HW125773  12.097   9.460   8.212  0.4035 -0.7117 -0.5762
38016SOL    HW225774  11.951   9.500   8.216 -0.3358 -3.3174  0.2730
38017SOL     OW25775  12.395   7.599   0.470 -0.1037  0.2391 -0.2667
38017SOL    HW125776  12.455   7.615   0.397  0.2803 -1.2591 -0.3081
38017SOL    HW225777  12.386   7.684   0.513  4.0509  0.1423  1.2755
38018SOL     OW25778   2.225   4.904   0.703 -0.3279 -0.5828  0.2843
38018SOL    HW125779   2.248   4.878   0.792 -0.6791  0.9362  0.8511
38018SOL    HW225780   2.247   4.997   0.699 -0.6429 -0.5430 -1.1118
38019SOL     OW25781  12.555   2.623   7.153  0.0089  0.6173  0.5119
38019SOL    HW125782  12.619   2.663   7.094  0.8413 -1.3331  0.0163
38019SOL    HW225783  12.519   2.697   7.202  1.2328  1.9950 -0.5472
38020SOL     OW25784   8.497  11.800   9.093 -0.0464 -0.3852  0.2478
38020SOL    HW125785   8.464  11.805   9.183  1.6707  2.3526  0.8480
38020SOL    HW225786   8.449  11.869   9.047 -0.6974 -1.5720 -0.9002
38021SOL     OW25787   9.315   2.436  13.637 -0.1761  0.4784  0.2138
38021SOL    HW125788   9.359   2.427  13.721  1.7237  0.2983 -0.7221
38021SOL    HW225789   9.222   2.444  13.658  0.1560 -0.4765  2.2485
38022SOL     OW25790   8.442  10.638   5.422  0.0522  0.1518 -0.0686
38022SOL    HW125791   8.427  10.653   5.515  0.1515  0.7667 -0.1484
38022SOL    HW225792   8.491  10.555   5.419  0.4767  0.3743  0.4567
38023SOL     OW25793   7.786   4.038   1.402  0.2949 -0.1002 -0.2222
38023SOL    HW125794   7.692   4.049   1.417  0.0513 -2.1573  0.0053
38023SOL    HW225795   7.807   4.103   1.335 -1.3263  0.2648 -0.4201
38024SOL     OW25796   1.819  13.535   8.944 -0.1968  0.8878  0.2995
38024SOL    HW125797   1.749  13.488   8.990  1.4877 -3.3130 -0.9336
38024SOL    HW225798   1.801  13.521   8.851  2.1940 -0.4123 -0.0523
38025SOL     OW25799  13.440   6.235   8.156  0.2405  0.4258  0.2764
38025SOL    HW125800  13.388   6.295   8.209 -0.7743  1.1163 -1.3836
38025SOL    HW225801  13.472   6.290   8.084 -0.3798 -0.9094 -1.0638
38026SOL     OW25802   3.288  12.790   4.678 -0.5533 -0.3054 -0.4659
38026SOL    HW125803   3.261  12.860   4.619  0.7066 -0.4941 -1.3013
38026SOL    HW225804   3.283  12.829   4.766 -1.0886  0.4230 -0.8141
38027SOL     OW25805   0.439  10.813   3.590 -0.4317 -0.5794 -0.4749
38027SOL    HW125806   0.392  10.734   3.563 -0.4360 -1.3824  1.6736
38027SOL    HW225807   0.375  10.883   3.580 -0.4641 -0.8153 -2.3164
38028SOL     OW25808   6.800   1.471   4.050  0.2648 -0.9637  0.2442
38028SOL    HW125809   6.766   1.390   4.090 -0.8784 -0.4758  0.2917
38028SOL    HW225810   6.807   1.451   3.957  1.4326 -1.5972  0.4540
38029SOL     OW25811   0.646  11.618   0.056  0.0136  0.5838 -0.7343
38029SOL    HW125812   0.598  11.677  -0.002  0.8666  1.3067 -0.7322
38029SOL    HW225813   0.733  11.658   0.063  0.0643  0.2653  0.6777
38030SOL     OW25814   7.566  12.595   7.703 -0.3050  0.5230 -0.1415
38030SOL    HW125815   7.635  12.657   7.727 -0.6891  1.1091 -0.5220
38030SOL    HW225816   7.488  12.627   7.748  0.1134 -1.4255  2.1808
38031SOL     OW25817   4.590   9.500  10.962  0.4181 -0.0859  0.6744
38031SOL    HW125818   4.653   9.548  10.907 -0.8475 -0.9894 -1.7107
38031SOL    HW225819   4.531   9.459  10.900 -1.0371 -1.3475  2.7738
38032SOL     OW25820   4.054   5.733  11.596 -0.3423 -0.3463  0.0452
38032SOL    HW125821   4.043   5.656  11.540 -3.0956  0.8823 -1.2610
38032SOL    HW225822   3.970   5.742  11.641  0.0512  1.6740  0.4707
38033SOL     OW25823  11.368   5.208  12.317 -0.6854 -0.0747 -0.9292
38033SOL    HW125824  11.354   5.116  12.296  0.3763 -0.5923  0.5561
38033SOL    HW225825  11.340   5.217  12.408  0.8406  0.6854 -0.5142
38034SOL     OW25826   4.571   9.798   8.476 -0.7687 -0.3725 -0.7040
38034SOL    HW125827   4.619   9.783   8.557 -0.5929  1.9918 -0.3017
38034SOL    HW225828   4.481   9.812   8.504 -0.8322 -0.2277 -0.9787
38035SOL     OW25829   3.871   9.191   2.543  0.7459  1.0371 -0.3060
38035SOL    HW125830   3.879   9.240   2.624  1.2160 -0.4064  0.5663
38035SOL    HW225831   3.776   9.181   2.530  0.6729  0.6017  0.5049
38036SOL     OW25832   4.129   1.799  12.796  0.3511  0.1840 -0.0628
38036SOL    HW125833   4.110   1.846  12.715 -1.8827  0.5623  0.6257
38036SOL    HW225834   4.141   1.867  12.861  0.1309 -0.1463  0.3261
38037SOL     OW25835   0.976   6.722   0.371  0.0679 -0.1831 -0.4707
38037SOL    HW125836   1.052   6.775   0.395  0.4984 -1.3211  0.8319
38037SOL    HW225837   0.986   6.642   0.422  0.2902 -2.2538 -3.4997
38038SOL     OW25838   6.853   5.397  11.356 -0.1219  0.0678  0.0101
38038SOL    HW125839   6.932   5.447  11.374  1.0823 -1.5649 -0.4699
38038SOL    HW225840   6.881   5.329  11.295 -1.9691 -0.3835 -0.4002
38039SOL     OW25841   7.882  10.863  10.439 -0.1994  0.0164 -0.3473
38039SOL    HW125842   7.862  10.892  10.528 -0.6375  1.2207 -0.8168
38039SOL    HW225843   7.849  10.773  10.434  1.9004 -0.9483  1.4118
38040SOL     OW25844   1.677   3.956   8.046 -0.6708  0.0683 -0.1096
38040SOL    HW125845   1.651   4.042   8.077  0.1004  0.7757 -1.3121
38040SOL    HW225846   1.604   3.926   7.992 -1.3176 -0.4487  1.0167
38041SOL     OW25847  13.701   5.929   2.217 -0.0985  0.1672 -0.3040
38041SOL    HW125848  13.782   5.970   2.248  0.2594 -0.1012 -0.8520
38041SOL    HW225849  13.639   5.940   2.289  0.5262  0.0842  0.2568
38042SOL     OW25850   7.121   5.548   1.887 -0.2049  0.5672  0.0661
38042SOL    HW125851   7.117   5.464   1.932 -0.3781  2.0905  3.2345
38042SOL    HW225852   7.196   5.592   1.928 -1.0584  2.5133 -0.3702
38043SOL     OW25853   0.436   6.456  10.079  0.3914  0.2597  0.2590
38043SOL    HW125854   0.485   6.526  10.122 -0.7746  0.7637  0.7910
38043SOL    HW225855   0.460   6.377  10.127 -0.6595  0.7716  1.6769
38044SOL     OW25856   6.179   0.806   1.009  0.1051 -0.0868  0.0466
38044SOL    HW125857   6.185   0.723   0.963 -1.1316 -1.2257  1.7901
38044SOL    HW225858   6.097   0.845   0.980 -0.1555 -0.2998  0.4918
38045SOL     OW25859  11.323   3.441   3.468 -0.8185  0.2002 -0.4708
38045SOL    HW125860  11.393   3.479   3.521 -1.6068  2.3108 -0.8404
38045SOL    HW225861  11.369   3.398   3.395  0.1898 -1.4307  1.0542
38046SOL     OW25862  13.465  11.344   7.391  0.3004 -0.1546  0.4493
38046SOL    HW125863  13.429  11.257   7.371  0.7075 -0.2771  0.2423
38046SOL    HW225864  13.462  11.350   7.486  0.4363 -0.4677  0.4753
38047SOL     OW25865  12.084   4.032  10.176  0.0533 -0.0895 -0.4702
38047SOL    HW125866  12.042   4.118  10.175 -0.6224 -0.3449  1.1439
38047SOL    HW225867  12.104   4.013  10.085 -0.2410  1.5560 -0.9057
38048SOL     OW25868   0.530  11.724   6.838 -0.9965 -0.4925  0.5999
38048SOL    HW125869   0.610  11.766   6.869 -0.8625  0.8005 -1.3190
38048SOL    HW225870   0.482  11.702   6.917 -0.9331  3.0690  1.7981
38049SOL     OW25871   6.989  11.500   4.794 -0.1652  0.1891  0.5392
38049SOL    HW125872   7.013  11.589   4.822 -1.5516  1.1986 -1.2910
38049SOL    HW225873   6.956  11.511   4.705  0.7032 -2.3513 -0.1768
38050SOL     OW25874  11.408   2.340   2.337 -0.2388  0.8229  0.4358
38050SOL    HW125875  11.456   2.362   2.258  0.5647  0.2659  0.7577
38050SOL    HW225876  11.322   2.382   2.326  0.5230  2.3884  0.1374
38051SOL     OW25877  13.199  11.027   0.628 -0.0793 -0.0769 -0.1566
38051SOL    HW125878  13.180  10.936   0.650  0.3833  0.3542  2.2295
38051SOL    HW225879  13.294  11.029   0.616  0.2193  0.4457  1.9295
38052SOL     OW25880   9.765   4.165   7.068 -0.2579  0.1976 -0.1646
38052SOL    HW125881   9.858   4.170   7.050  0.1562 -1.3342  1.3224
38052SOL    HW225882   9.726   4.139   6.984  0.6833  0.4955 -0.7073
38053SOL     OW25883   5.284   8.811   3.460  0.1763 -0.4957 -0.7042
38053SOL    HW125884   5.196   8.807   3.499 -0.1721  1.4436 -1.1425
38053SOL    HW225885   5.268   8.833   3.368  1.1159  1.5487 -0.4324
38054SOL     OW25886   8.630   9.414   7.496  0.8175  0.1672  0.3049
38054SOL    HW125887   8.657   9.488   7.552  0.1259  0.0841  0.7651
38054SOL    HW225888   8.542   9.393   7.526  0.7680 -0.4427 -0.2543
38055SOL     OW25889  13.530   8.438   6.125 -0.2694 -0.3468 -0.0901
38055SOL    HW125890  13.610   8.435   6.178 -0.8493 -2.5302  0.7860
38055SOL    HW225891  13.547   8.506   6.060  1.3461  0.9232  1.5432
38056SOL     OW25892   0.515   8.436   3.277 -0.0403 -0.4097 -0.1740
38056SOL    HW125893   0.462   8.365   3.314 -0.4327  0.6817  1.4809
38056SOL    HW225894   0.587   8.447   3.339 -0.9161  1.7313  0.5468
38057SOL     OW25895  11.182   7.092   4.043  0.2161  0.0710 -0.2849
38057SOL    HW125896  11.229   7.009   4.052  0.3273  0.0562 -0.8904
38057SOL    HW225897  11.249   7.153   4.010  0.4333  0.7132  1.2708
38058SOL     OW25898  13.544   3.556   1.603  0.2293 -0.0591 -0.5943
38058SOL    HW125899  13.543   3.623   1.671  0.1153 -1.0157  0.3816
38058SOL    HW225900  13.452   3.542   1.583  0.2037 -0.5103 -0.1838
38059SOL     OW25901  12.879   1.301   1.384  0.5357  0.5905  0.1644
38059SOL    HW125902  12.927   1.220   1.402  0.2543  0.4154  0.1259
38059SOL    HW225903  12.829   1.282   1.305 -0.9852  0.1749  1.1886
38060SOL     OW25904  12.287   8.543   8.841 -0.4424  0.1053 -0.1034
38060SOL    HW125905  12.252   8.477   8.902 -0.9818  0.6984  0.2484
38060SOL    HW225906  12.256   8.514   8.755  0.0109 -0.5365 -0.0595
38061SOL     OW25907   0.044   3.028   4.350 -0.0067 -0.3334 -0.3381
38061SOL    HW125908   0.054   3.114   4.391  1.6105 -0.4442 -0.4518
38061SOL    HW225909   0.111   3.025   4.282 -1.3018 -0.9544 -1.6518
38062SOL     OW25910   1.005  13.395  12.128 -0.0482 -0.2227 -0.3054
38062SOL    HW125911   1.050  13.317  12.159  0.0722 -0.3673 -0.8217
38062SOL    HW225912   0.949  13.422  12.201  0.4179 -0.3949  0.1189
38063SOL     OW25913   8.873   9.775   8.130  0.5195 -0.0170 -0.1299
38063SOL    HW125914   8.909   9.856   8.165  0.7540 -0.1987  0.0448
38063SOL    HW225915   8.792   9.761   8.180  0.6948 -0.1121  0.1280
38064SOL     OW25916   2.172  10.340   6.483  0.4616 -0.3970 -0.1403
38064SOL    HW125917   2.182  10.343   6.387  0.7373  0.7626 -0.0887
38064SOL    HW225918   2.194  10.428   6.512 -0.1377 -0.5927  0.9557
38065SOL     OW25919  12.996  10.243   0.568  0.2320  0.0646  0.8423
38065SOL    HW125920  13.045  10.160   0.575 -0.4173 -0.5369 -1.1678
38065SOL    HW225921  12.915  10.227   0.615 -0.5560 -1.0352 -0.7868
38066SOL     OW25922   6.238   9.919   5.642 -0.1059  0.2857 -0.6389
38066SOL    HW125923   6.197   9.835   5.664 -0.0880  0.7512  1.4178
38066SOL    HW225924   6.181   9.956   5.575 -1.0918 -0.6142 -0.3344
38067SOL     OW25925  10.877   1.187   6.982 -0.2124 -1.0720 -0.1263
38067SOL    HW125926  10.788   1.215   7.007 -0.2412 -0.1891 -1.1547
38067SOL    HW225927  10.931   1.265   6.996 -0.4253 -0.0831 -3.8292
38068SOL     OW25928   0.323   0.380  10.188  0.1948 -0.1690 -0.1284
38068SOL    HW125929   0.246   0.357  10.136  0.2355 -0.6437  0.0196
38068SOL    HW225930   0.291   0.446  10.249  0.2687  0.7926 -1.1010
38069SOL     OW25931  12.591   2.350   1.499 -0.0162  0.0138 -0.5163
38069SOL    HW125932  12.524   2.379   1.560 -0.7463 -0.4267 -1.0942
38069SOL    HW225933  12.663   2.320   1.554  0.4598  2.1412  0.1058
38070SOL     OW25934  12.640   0.388  10.849 -0.0791 -0.0350 -0.4325
38070SOL    HW125935  12.545   0.397  10.847 -0.1323 -0.0281  0.8725
38070SOL    HW225936  12.672   0.478  10.859  0.1437  0.0897 -2.0186
38071SOL     OW25937   0.335   4.848   5.315  0.0157 -0.1632 -0.2261
38071SOL    HW125938   0.248   4.888   5.309  0.6986  1.2091 -1.4663
38071SOL    HW225939   0.395   4.922   5.320  1.1443 -1.0953  0.5086
38072SOL     OW25940  10.287   4.212   1.544 -0.0452  0.1516  0.0088
38072SOL    HW125941  10.344   4.228   1.468 -1.4699  2.3041 -0.6991
38072SOL    HW225942  10.301   4.120   1.565  2.9734  0.3251 -0.6957
38073SOL     OW25943   7.759   8.427   0.099  0.1242 -0.4395 -0.5946
38073SOL    HW125944   7.827   8.440   0.165 -0.5899 -0.4498  0.1508
38073SOL    HW225945   7.680   8.407   0.149 -1.1277  2.3314 -1.3086
38074SOL     OW25946   8.349   7.673   5.863 -0.3392 -0.3449  0.4019
38074SOL    HW125947   8.422   7.643   5.917  1.5868  1.4631 -1.0219
38074SOL    HW225948   8.344   7.610   5.791 -1.1606 -1.2621  1.2360
38075SOL     OW25949   8.706  12.190  10.949 -0.3664 -0.4129  0.1970
38075SOL    HW125950   8.770  12.138  10.998  0.8243 -1.3133 -2.1729
38075SOL    HW225951   8.621  12.166  10.987  0.4559 -1.4281  1.4579
38076SOL     OW25952  10.670   2.324   9.138 -0.0511  0.3009 -0.4295
38076SOL    HW125953  10.687   2.261   9.208 -2.5985  0.2663  0.2319
38076SOL    HW225954  10.642   2.271   9.064  0.9644  0.4755 -0.9692
38077SOL     OW25955   3.729   0.725   8.370 -0.1239  0.5186 -0.3655
38077SOL    HW125956   3.744   0.699   8.279  0.2262 -1.6777  0.2472
38077SOL    HW225957   3.752   0.818   8.372  2.7410 -0.0044 -1.9317
38078SOL     OW25958   0.092   7.913   1.674 -0.3421 -0.5061 -0.1507
38078SOL    HW125959   0.091   7.912   1.769  3.1081  1.1338  0.0707
38078SOL    HW225960   0.160   7.850   1.650 -1.1748 -0.9168 -1.5551
38079SOL     OW25961  10.933   8.611   4.605 -0.3623 -0.4379 -0.1365
38079SOL    HW125962  10.923   8.567   4.689 -2.5216  0.5182  0.1847
38079SOL    HW225963  10.867   8.572   4.548  0.6977 -0.6877 -1.2374
38080SOL     OW25964  13.432   8.030   9.611  0.0480  0.0800  0.5064
38080SOL    HW125965  13.475   7.961   9.662  1.6756 -0.3908 -1.3946
38080SOL    HW225966  13.439   8.108   9.666 -1.3264 -1.0726  2.4549
38081SOL     OW25967   3.808   2.397   3.908 -0.2061  0.1106 -0.5259
38081SOL    HW125968   3.782   2.438   3.825  1.5841 -2.4039 -2.5030
38081SOL    HW225969   3.904   2.391   3.902 -0.1189 -0.8977  1.3409
38082SOL     OW25970  11.450  11.918   4.861 -0.0142 -0.3482 -0.1516
38082SOL    HW125971  11.533  11.874   4.841 -0.7043 -3.3213  2.7015
38082SOL    HW225972  11.383  11.852   4.842 -1.3029  0.1650  2.2616
38083SOL     OW25973  13.011   9.068   4.988 -0.1929 -0.0752  0.1048
38083SOL    HW125974  12.927   9.111   5.005 -0.0725  0.3150 -0.2727
38083SOL    HW225975  13.000   9.029   4.901  0.5673  1.3700 -0.6717
38084SOL     OW25976   3.493   0.942  12.473  0.1874  0.2095  0.4817
38084SOL    HW125977   3.529   0.910  12.556  0.2181  0.3684  0.5313
38084SOL    HW225978   3.413   0.891  12.460  1.0921 -1.0714 -0.2831
38085SOL     OW25979  11.355  12.984  11.833 -0.0440 -0.2268 -0.3029
38085SOL    HW125980  11.380  13.019  11.918 -2.0709 -1.7314  1.0003
38085SOL    HW225981  11.301  13.053  11.793  2.6640  1.3853 -1.4215
38086SOL     OW25982   5.899   3.427  12.683 -1.0309  0.1451 -0.3830
38086SOL    HW125983   5.935   3.344  12.713  0.4202  0.8304 -0.1496
38086SOL    HW225984   5.808   3.426  12.711 -0.7222 -0.8747  0.6275
38087SOL     OW25985   1.685   7.193   7.927 -0.0338 -0.2547  0.4148
38087SOL    HW125986   1.720   7.142   7.854 -4.8456 -0.5218 -2.1771
38087SOL    HW225987   1.701   7.284   7.904 -0.7584 -0.3744 -0.6530
38088SOL     OW25988   6.981  10.913   6.912  0.2555  0.2274  0.6869
38088SOL    HW125989   6.913  10.875   6.968 -0.4863 -0.2127 -0.4691
38088SOL    HW225990   7.060  10.862   6.932 -0.2763 -0.6837  0.5127
38089SOL     OW25991  11.180   1.808   6.797 -0.2188 -0.2548 -0.4597
38089SOL    HW125992  11.116   1.798   6.727 -0.8051  0.5782 -0.0601
38089SOL    HW225993  11.215   1.720   6.810 -0.6905 -0.5663 -1.2375
38090SOL     OW25994   8.653   0.992   1.724 -0.1173 -0.2560  0.5659
38090SOL    HW125995   8.626   0.974   1.634 -0.2606 -0.7576  0.7030
38090SOL    HW225996   8.573   1.022   1.768 -0.3735 -1.3408  0.8672
38091SOL     OW25997   5.349   7.386  10.795 -0.7093 -0.1706 -0.2032
38091SOL    HW125998   5.261   7.409  10.766  0.3191  1.0665 -2.6945
38091SOL    HW225999   5.368   7.446  10.867 -1.7237 -0.1542  0.0603
38092SOL     OW26000  10.061   7.117   2.824 -0.5423  0.2877 -0.2907
38092SOL    HW126001  10.008   7.041   2.800  0.0876 -0.4893  0.6712
38092SOL    HW226002  10.003   7.172   2.876 -0.2645 -0.8891  1.3408
38093SOL     OW26003  10.005   2.958   5.592  0.2948  0.5688  0.4088
38093SOL    HW126004  10.059   2.879   5.587  0.3375  0.6437 -0.6006
38093SOL    HW226005  10.069   3.030   5.594  0.2674  0.5740  1.8334
38094SOL     OW26006   0.992  12.053   5.170  0.1028  0.0873  0.5715
38094SOL    HW126007   0.951  12.044   5.084  0.7406  0.5214  0.2073
38094SOL    HW226008   1.005  11.963   5.201  0.3907 -0.0925 -0.0485
38095SOL     OW26009  10.179  12.947   6.540  0.5651  0.3233 -0.1427
38095SOL    HW126010  10.106  12.941   6.602  0.7646 -0.0852  0.0520
38095SOL    HW226011  10.248  12.992   6.588  0.0920  1.6626 -0.6609
38096SOL     OW26012   9.975   8.428   4.427 -0.4820 -0.3589  0.0700
38096SOL    HW126013   9.912   8.501   4.431  0.7603  0.7021  0.9519
38096SOL    HW226014   9.969   8.397   4.337  1.4469  3.1747 -1.4868
38097SOL     OW26015  13.417   0.507   7.517 -0.0924 -0.0658 -0.3027
38097SOL    HW126016  13.484   0.469   7.574  0.0227  0.0427 -0.3640
38097SOL    HW226017  13.355   0.549   7.577  0.5358  0.8856 -0.2894
38098SOL     OW26018   3.559   4.369  10.658  0.1554  0.3430  0.2793
38098SOL    HW126019   3.547   4.286  10.703 -1.1728  0.6039  0.4524
38098SOL    HW226020   3.478   4.418  10.675  0.0243  0.8404 -1.5520
38099SOL     OW26021   8.554  11.339   6.359 -0.1404 -0.4201  0.3210
38099SOL    HW126022   8.624  11.337   6.294  0.2943 -1.4874  0.7917
38099SOL    HW226023   8.581  11.406   6.422  0.1207 -0.3560  0.1419
38100SOL     OW26024   4.588   5.063  13.608 -0.7127 -0.3829  0.1721
38100SOL    HW126025   4.625   5.151  13.600 -0.3851 -0.4813  0.5898
38100SOL    HW226026   4.500   5.077  13.642 -1.4267 -0.0828 -1.6740
38101SOL     OW26027   9.260   9.098   6.713  0.4921 -0.6604  0.2357
38101SOL    HW126028   9.356   9.099   6.723  0.3700  0.0393  1.6373
38101SOL    HW226029   9.228   9.137   6.795 -0.9852 -0.7048 -0.3070
38102SOL     OW26030   5.607   6.972   6.539 -0.0373  0.1970  0.0939
38102SOL    HW126031   5.653   6.917   6.602 -0.6839  1.1036  1.3982
38102SOL    HW226032   5.559   7.036   6.593 -1.1758  0.5564 -1.2872
38103SOL     OW26033   0.420  11.351  12.466  0.7917  0.0446  0.2614
38103SOL    HW126034   0.340  11.395  12.496 -0.2243 -0.6329 -1.3182
38103SOL    HW226035   0.390  11.291  12.397  2.4846 -1.2634  0.6005
38104SOL     OW26036   6.533   4.058   8.408 -0.1492  0.1280  0.4037
38104SOL    HW126037   6.462   3.995   8.401  1.2592 -1.4834 -0.2004
38104SOL    HW226038   6.508   4.115   8.481 -0.1034 -3.0983  3.2503
38105SOL     OW26039   2.203  10.841   6.641 -0.1482  0.0908  0.7693
38105SOL    HW126040   2.183  10.915   6.699  1.6332  1.7559 -0.6208
38105SOL    HW226041   2.174  10.871   6.554 -0.4602 -1.3374  0.3629
38106SOL     OW26042   6.032   3.267   6.808 -0.2444 -0.1779 -0.3681
38106SOL    HW126043   6.105   3.329   6.816 -0.3466 -0.3509  3.6783
38106SOL    HW226044   6.074   3.181   6.806 -0.2239 -0.2407  1.2626
38107SOL     OW26045   2.907  13.061   5.855 -0.0758  0.2516  0.2482
38107SOL    HW126046   2.907  13.154   5.831  1.9537  0.0191 -0.8263
38107SOL    HW226047   2.925  13.016   5.772  2.0122 -0.8903  1.2591
38108SOL     OW26048  12.624   6.189   8.476 -0.7098  0.0952 -0.3476
38108SOL    HW126049  12.674   6.124   8.427  0.0824 -0.6124  1.3032
38108SOL    HW226050  12.533   6.175   8.450 -0.1901  0.8735 -2.8134
38109SOL     OW26051   5.342   6.766   8.497  0.4496  0.0845 -0.2941
38109SOL    HW126052   5.320   6.835   8.435  0.5819 -0.6371 -1.1512
38109SOL    HW226053   5.418   6.800   8.544  1.4443 -0.0888 -1.7402
38110SOL     OW26054  11.201   8.518   0.199 -0.8668 -0.4389  0.1585
38110SOL    HW126055  11.140   8.589   0.215 -0.2856  0.0795  0.1227
38110SOL    HW226056  11.211   8.476   0.284  1.5961  1.8112  1.1287
38111SOL     OW26057  11.362   7.531   1.962 -0.0828  0.1541  0.1550
38111SOL    HW126058  11.362   7.505   2.054  2.8820 -0.6507  0.0365
38111SOL    HW226059  11.388   7.452   1.915  0.6001  1.0952 -1.1212
38112SOL     OW26060   6.230   9.002   8.477  0.1126  0.6937  0.0116
38112SOL    HW126061   6.219   8.909   8.459  0.7736  0.8554 -1.4253
38112SOL    HW226062   6.212   9.011   8.570  0.0659 -0.8750  0.1859
38113SOL     OW26063  13.265   0.461  11.179 -0.3233 -0.0916 -0.3251
38113SOL    HW126064  13.234   0.548  11.203 -1.4551 -0.0616 -1.7328
38113SOL    HW226065  13.358   0.460  11.201 -0.5438  1.0940  0.6946
38114SOL     OW26066  10.562  10.698   6.705 -0.4029  0.2695 -0.4377
38114SOL    HW126067  10.518  10.623   6.665 -0.4568  0.1275 -0.1116
38114SOL    HW226068  10.528  10.702   6.794  0.8145 -0.3186  0.0784
38115SOL     OW26069   8.734  13.075   9.792  0.3892  0.5289  0.3866
38115SOL    HW126070   8.809  13.045   9.843  0.8708 -3.2057 -2.1441
38115SOL    HW226071   8.660  13.022   9.822 -0.2393  1.0890 -0.1039
38116SOL     OW26072   8.589   9.797   7.809 -0.1850  0.4992 -0.1736
38116SOL    HW126073   8.527   9.869   7.814  0.5321  1.0783  0.8041
38116SOL    HW226074   8.674   9.839   7.794  0.3871 -0.0471  1.3408
38117SOL     OW26075  10.170   5.035   5.185  0.5478 -0.2989  0.3313
38117SOL    HW126076  10.090   5.024   5.237 -1.2777  1.7777 -1.8001
38117SOL    HW226077  10.234   5.071   5.247 -1.2204  1.1294  1.4470
38118SOL     OW26078  10.556  11.995   1.642 -0.3329 -0.0646  0.2685
38118SOL    HW126079  10.493  11.928   1.668  0.9929 -0.9878  1.2967
38118SOL    HW226080  10.634  11.974   1.694  0.7380  1.1511 -0.8061
38119SOL     OW26081  12.493   9.994   8.584  0.1944  0.1581 -0.1410
38119SOL    HW126082  12.462   9.990   8.675  1.7780  1.8871  0.5405
38119SOL    HW226083  12.583  10.024   8.591  0.8473 -1.0915 -2.2481
38120SOL     OW26084   3.112   2.346   1.613  0.4499 -0.1002  0.6321
38120SOL    HW126085   3.131   2.269   1.558 -1.2190 -0.1590  0.0807
38120SOL    HW226086   3.191   2.399   1.607  0.2743  0.0291 -2.1175
38121SOL     OW26087   7.006  12.863   8.315  0.2747 -0.1341 -0.1266
38121SOL    HW126088   6.919  12.825   8.300  0.5213 -0.4082 -0.9428
38121SOL    HW226089   7.053  12.847   8.233  1.2663 -0.4490  0.4896
38122SOL     OW26090   4.747   2.656  10.058 -0.3143 -0.2323  0.0733
38122SOL    HW126091   4.794   2.681   9.979  0.0555  2.2050  0.9979
38122SOL    HW226092   4.659   2.691  10.045  0.3459  2.2071  1.5972
38123SOL     OW26093   1.193  12.759  11.018  0.4766  0.4246  0.3571
38123SOL    HW126094   1.116  12.702  11.023  0.8367 -0.1506 -0.3196
38123SOL    HW226095   1.224  12.766  11.108 -0.2969  0.5780  0.6239
38124SOL     OW26096  10.770   0.144   8.928  0.2555 -0.5896 -0.8096
38124SOL    HW126097  10.771   0.084   9.002 -0.0552  0.8478  0.4171
38124SOL    HW226098  10.816   0.222   8.959 -0.3537  0.2679 -1.9457
38125SOL     OW26099   9.369   9.220   3.542  0.3201  0.1640  0.2812
38125SOL    HW126100   9.459   9.243   3.563  0.8511  0.6078 -2.1771
38125SOL    HW226101   9.374   9.134   3.501 -0.1407  0.8701 -1.3190
38126SOL     OW26102   5.927   0.063   7.474  0.0664 -0.0303 -0.1119
38126SOL    HW126103   5.847   0.090   7.519  1.1660 -0.7062  2.4813
38126SOL    HW226104   5.922  -0.033   7.472  0.0760 -0.0177 -1.4484
38127SOL     OW26105   9.197   4.989  12.843  0.0805 -0.0756 -0.6913
38127SOL    HW126106   9.187   4.897  12.819 -0.5041 -0.5925  1.3420
38127SOL    HW226107   9.109   5.026  12.835  0.2401  0.2264 -1.1183
38128SOL     OW26108   9.679   8.075   5.158  0.3365 -0.2859 -0.3671
38128SOL    HW126109   9.716   8.080   5.070  0.7813  2.6242 -0.1083
38128SOL    HW226110   9.703   7.988   5.190  1.9491 -0.6225 -2.3470
38129SOL     OW26111   1.463   1.676  10.517  0.2355 -0.3729  0.2607
38129SOL    HW126112   1.381   1.627  10.532  0.3530 -0.7101 -0.1981
38129SOL    HW226113   1.527   1.633  10.574  0.0128  0.1058  0.8743
38130SOL     OW26114   5.610   9.950   4.852  0.5549 -0.3660  0.9375
38130SOL    HW126115   5.581   9.883   4.914 -0.7872 -0.0897  0.6426
38130SOL    HW226116   5.531   9.975   4.805  1.2779  0.4941  0.1301
38131SOL     OW26117   4.687   3.785   7.437 -0.0161  0.1863  0.8209
38131SOL    HW126118   4.647   3.772   7.351  0.2787  1.2528  0.4967
38131SOL    HW226119   4.616   3.816   7.492 -0.1575 -0.2830  0.9054
38132SOL     OW26120   8.732  12.617   0.480  0.0502 -0.1763 -0.3080
38132SOL    HW126121   8.652  12.564   0.473 -1.0669  1.5783 -1.5735
38132SOL    HW226122   8.701  12.707   0.491  1.8735  0.4475  0.1289
38133SOL     OW26123   3.049   2.681   7.783  0.4045  0.0507 -0.5962
38133SOL    HW126124   3.105   2.669   7.706  0.0809  0.0676 -0.8364
38133SOL    HW226125   3.102   2.649   7.856  0.8237  0.3050 -0.7867
38134SOL     OW26126  10.147   5.813   7.437 -0.6072 -0.5346  0.7110
38134SOL    HW126127  10.100   5.757   7.375  1.3191 -1.6135  0.1283
38134SOL    HW226128  10.110   5.900   7.424 -0.1811 -0.6571 -2.1651
38135SOL     OW26129   7.366  12.142   4.653 -0.2037  0.2172 -0.6292
38135SOL    HW126130   7.412  12.066   4.688 -0.5487  0.1286 -0.3606
38135SOL    HW226131   7.337  12.190   4.730 -1.6631 -0.4042 -0.7493
38136SOL     OW26132  10.949   2.698   0.533  0.1871  0.0490 -0.0568
38136SOL    HW126133  10.948   2.643   0.611 -1.1783 -0.4597 -0.4091
38136SOL    HW226134  11.022   2.759   0.548 -0.2110  0.1582  1.7425
38137SOL     OW26135  11.085  12.791   2.804  0.0489  0.1857  0.3882
38137SOL    HW126136  11.036  12.716   2.838  0.4574 -0.8906 -1.2852
38137SOL    HW226137  11.034  12.867   2.831 -1.4064 -0.7996  0.5098
38138SOL     OW26138   0.880   5.691   9.005 -0.2719  0.1172 -0.3429
38138SOL    HW126139   0.964   5.704   9.050 -1.1869  1.2614  1.1381
38138SOL    HW226140   0.896   5.720   8.915  0.8032  0.7032  0.0168
38139SOL     OW26141   0.570  11.776  13.587  0.1272  0.1407  0.2158
38139SOL    HW126142   0.534  11.864  13.581  0.9109  0.4394 -0.2038
38139SOL    HW226143   0.629  11.769  13.512 -0.4377 -0.9778 -0.1446
38140SOL     OW26144  13.590   2.389   2.703  0.3082  0.6122 -0.5115
38140SOL    HW126145  13.552   2.305   2.731 -2.2391  1.1227 -2.0701
38140SOL    HW226146  13.673   2.395   2.749 -1.4890 -0.6552  3.2614
38141SOL     OW26147   1.301  11.705   8.426 -0.4151  0.3567 -0.4094
38141SOL    HW126148   1.295  11.714   8.331  0.0204  0.9311 -0.3864
38141SOL    HW226149   1.380  11.753   8.450 -0.1028 -0.4130  0.1636
38142SOL     OW26150   1.578  11.075   0.396  0.0695  0.4129  0.6809
38142SOL    HW126151   1.592  11.020   0.473  4.2360  0.9496  0.5727
38142SOL    HW226152   1.588  11.016   0.322  0.1999  0.5699  0.5715
38143SOL     OW26153  12.926   8.919   6.378  0.3178  0.5903  0.3020
38143SOL    HW126154  12.999   8.870   6.418 -0.6826 -1.3629 -0.1365
38143SOL    HW226155  12.872   8.852   6.337 -1.8918  1.9526  0.8260
38144SOL     OW26156  11.481   0.230   8.004  0.0367  0.9003  0.5860
38144SOL    HW126157  11.525   0.274   7.931  0.0268 -0.7819 -0.4872
38144SOL    HW226158  11.551   0.215   8.069  0.4855  0.6297  0.0477
38145SOL     OW26159   6.485  11.465  11.004  0.5446 -0.4618  0.0102
38145SOL    HW126160   6.491  11.503  10.916  0.9127  0.1616  0.2909
38145SOL    HW226161   6.466  11.373  10.990  1.5797 -0.5808 -0.7615
38146SOL     OW26162   7.743   0.983   1.971 -0.4429 -0.2379 -0.8815
38146SOL    HW126163   7.762   1.037   2.048  0.2996 -1.5648 -0.1126
38146SOL    HW226164   7.825   0.982   1.922 -1.0894  1.1322 -2.0779
38147SOL     OW26165   8.581   8.756   8.765 -0.4610  0.6176 -0.2712
38147SOL    HW126166   8.559   8.847   8.749 -1.8889  0.2265 -0.7010
38147SOL    HW226167   8.643   8.733   8.695  0.0536  1.3009 -0.0407
38148SOL     OW26168   1.960   1.006   1.839  0.3113 -0.0985  0.2017
38148SOL    HW126169   1.914   0.940   1.891  0.1371 -0.7721 -0.7679
38148SOL    HW226170   1.894   1.039   1.778 -0.3542  2.9271  2.3419
38149SOL     OW26171  13.391   9.895  11.162  0.5115 -0.1479  0.7459
38149SOL    HW126172  13.475   9.850  11.155 -0.1983 -1.4268 -0.3003
38149SOL    HW226173  13.412   9.988  11.156  2.0725 -0.2692  3.3252
38150SOL     OW26174   0.641   1.652  10.640 -0.3603  0.4036 -0.2542
38150SOL    HW126175   0.708   1.690  10.697  0.3328 -0.7239 -0.2891
38150SOL    HW226176   0.568   1.632  10.699 -1.1806  2.6877 -0.3929
38151SOL     OW26177   5.681  13.396   8.002  0.1863 -0.7601 -0.7252
38151SOL    HW126178   5.718  13.409   7.914  2.3089  0.1561  0.2392
38151SOL    HW226179   5.588  13.379   7.986  0.2023  0.8725 -3.0656
38152SOL     OW26180  12.459   5.428  13.193 -0.2139  0.3359 -0.2401
38152SOL    HW126181  12.424   5.345  13.227  0.3578 -0.0025 -0.4565
38152SOL    HW226182  12.500   5.469  13.269 -1.8181  1.1619  0.2297
38153SOL     OW26183   5.250   2.348  12.891 -0.0060  0.4152  0.5808
38153SOL    HW126184   5.290   2.269  12.927 -1.8462  0.1610  2.1993
38153SOL    HW226185   5.325   2.402  12.864  1.3096 -1.4511  0.2782
38154SOL     OW26186   2.120   8.596   1.138  0.4585 -0.0643 -0.2140
38154SOL    HW126187   2.154   8.597   1.228 -1.5143  1.3644  0.5728
38154SOL    HW226188   2.091   8.686   1.122  2.4776  0.2362 -3.0280
38155SOL     OW26189  10.259   4.114   3.819 -0.0574  0.3636  0.1295
38155SOL    HW126190  10.346   4.102   3.856 -0.0275 -0.3281 -0.1604
38155SOL    HW226191  10.242   4.208   3.828  0.8479  0.5551 -0.1245
38156SOL     OW26192   9.729  11.422   6.303 -0.4828  0.0607 -0.2286
38156SOL    HW126193   9.662  11.417   6.234 -0.4557 -0.1700 -0.2395
38156SOL    HW226194   9.708  11.349   6.361 -0.3537  0.1045 -0.1277
38157SOL     OW26195   3.989  10.253  13.319 -0.6401  0.1781  0.5630
38157SOL    HW126196   3.943  10.189  13.373  0.0429  0.3724  1.4150
38157SOL    HW226197   4.070  10.270  13.367 -0.1922  0.6635 -0.3399
38158SOL     OW26198  12.260   1.630   8.957  0.6413  0.3512 -0.0455
38158SOL    HW126199  12.274   1.592   8.870  0.2386 -0.3606  0.2015
38158SOL    HW226200  12.277   1.559   9.018 -0.3932  0.4820  0.4121
38159SOL     OW26201   0.560   7.856   9.882 -0.0103 -0.4272 -0.4033
38159SOL    HW126202   0.573   7.761   9.881 -1.4375 -0.7153  1.7362
38159SOL    HW226203   0.646   7.892   9.901  0.1084 -1.4722  1.2159
38160SOL     OW26204   8.482  13.265   7.788  0.1462 -0.6301  0.3994
38160SOL    HW126205   8.430  13.225   7.719  1.2532 -0.9202 -0.2749
38160SOL    HW226206   8.561  13.296   7.745  0.8446 -0.7801  1.5291
38161SOL     OW26207  10.654  13.129  13.448  0.1675  0.1863  0.2017
38161SOL    HW126208  10.680  13.116  13.357  0.0810  2.2439 -0.1528
38161SOL    HW226209  10.732  13.105  13.498  0.3336 -0.6133 -0.4164
38162SOL     OW26210   8.258   2.134   4.759 -0.1864 -0.0532 -0.7712
38162SOL    HW126211   8.179   2.125   4.812 -0.0723 -0.9342 -0.7339
38162SOL    HW226212   8.324   2.082   4.805  0.3551  0.5014 -0.9174
38163SOL     OW26213   0.637   4.876   8.985 -0.4885  0.3220 -0.3572
38163SOL    HW126214   0.554   4.912   8.953 -0.9419 -0.7702 -0.4509
38163SOL    HW226215   0.626   4.870   9.079 -0.3480  0.5858 -0.3240
38164SOL     OW26216   9.448   1.311   8.416  0.1866  0.5047 -0.1136
38164SOL    HW126217   9.393   1.373   8.368 -0.3429 -0.6280 -1.0293
38164SOL    HW226218   9.421   1.225   8.384  1.3371 -0.1773  0.6540
38165SOL     OW26219   2.283  10.618   0.020  0.3958  0.5286 -0.8712
38165SOL    HW126220   2.203  10.669   0.026 -0.4458 -0.8029 -0.2243
38165SOL    HW226221   2.265  10.552  -0.047  1.1296  0.5065 -1.0624
38166SOL     OW26222   6.093   0.689   3.152 -0.1121  0.2852  0.3769
38166SOL    HW126223   6.030   0.652   3.090  0.2524 -0.7012  0.5732
38166SOL    HW226224   6.058   0.776   3.173 -1.5404 -0.3454  0.6796
38167SOL     OW26225   0.543   0.467   7.096  0.3378 -0.2338  0.4383
38167SOL    HW126226   0.553   0.491   7.188  1.5773 -1.7729  0.7507
38167SOL    HW226227   0.525   0.373   7.097 -2.8701  0.2620 -0.7866
38168SOL     OW26228   7.260   2.171  12.002  0.1864 -0.2447  0.7678
38168SOL    HW126229   7.305   2.167  12.087  3.4793  1.8947 -0.6377
38168SOL    HW226230   7.330   2.193  11.940 -2.6355  1.7809 -1.9718
38169SOL     OW26231  12.901   2.091  12.526 -0.0489 -0.5158  0.0879
38169SOL    HW126232  12.990   2.125  12.540 -0.4131  0.6078 -0.1715
38169SOL    HW226233  12.855   2.110  12.608 -0.6628  1.0385 -0.5637
38170SOL     OW26234  12.968  11.253   8.275  0.3092  0.4923  0.3151
38170SOL    HW126235  13.046  11.206   8.245 -0.9090 -1.7755  0.4420
38170SOL    HW226236  12.982  11.264   8.369 -0.0848 -1.2202  0.6141
38171SOL     OW26237   9.820   2.554   2.553 -0.5184  0.9248  0.0387
38171SOL    HW126238   9.817   2.484   2.619 -0.2191  0.3552 -0.5455
38171SOL    HW226239   9.737   2.601   2.565 -0.7289  0.4677  0.4262
38172SOL     OW26240   8.763   0.371   9.404 -0.3153 -0.1534  0.2115
38172SOL    HW126241   8.706   0.375   9.327 -0.5536 -2.2153  0.2359
38172SOL    HW226242   8.850   0.394   9.371 -0.4758 -0.7121 -0.6210
38173SOL     OW26243   2.411   8.498  11.880  0.0227 -0.6750  0.0968
38173SOL    HW126244   2.462   8.523  11.803  0.5781  0.2977  0.7634
38173SOL    HW226245   2.371   8.415  11.856 -0.9123  0.2523 -1.7610
38174SOL     OW26246  12.625   9.471   9.353  0.6839 -0.7689  0.0568
38174SOL    HW126247  12.534   9.453   9.330  0.8999 -1.1339 -0.5130
38174SOL    HW226248  12.656   9.532   9.286  0.8298 -0.5601  0.3123
38175SOL     OW26249   3.963  12.995   4.476  0.6613  0.6512  0.7427
38175SOL    HW126250   3.934  13.086   4.472 -0.0354  0.5339  2.4415
38175SOL    HW226251   3.984  12.973   4.385 -3.0998  1.2810 -0.4698
38176SOL     OW26252   7.776  12.476  10.440  0.5753  0.2367 -0.6036
38176SOL    HW126253   7.686  12.492  10.470  0.4056  0.3180 -1.1405
38176SOL    HW226254   7.779  12.514  10.353  1.8423  2.5186  0.3318
38177SOL     OW26255   9.365   1.462  12.582 -0.4711  0.7828 -0.5310
38177SOL    HW126256   9.411   1.426  12.506  0.7655  1.3741 -0.0856
38177SOL    HW226257   9.410   1.545  12.600 -2.7168  2.2020 -1.0368
38178SOL     OW26258   8.076   3.968   6.862 -0.1125  0.3306 -0.7578
38178SOL    HW126259   8.039   3.980   6.950 -1.3793  0.5224 -1.2851
38178SOL    HW226260   8.144   3.902   6.873  0.5515  1.1946  0.5625
38179SOL     OW26261   9.307  10.508   4.481 -0.1598  0.1684  0.0336
38179SOL    HW126262   9.315  10.438   4.416  1.1446 -0.2115  0.5640
38179SOL    HW226263   9.225  10.553   4.458 -1.6371 -2.1935  0.3275
38180SOL     OW26264   7.470   9.653   7.685 -0.0062  0.0953 -0.0211
38180SOL    HW126265   7.438   9.623   7.600  2.3388 -1.5303 -0.4186
38180SOL    HW226266   7.442   9.584   7.746 -0.0809  0.3214  0.2015
38181SOL     OW26267   2.448   1.493   2.909 -0.2159  0.0534  0.0113
38181SOL    HW126268   2.400   1.546   2.973  0.9544  0.6442  0.4377
38181SOL    HW226269   2.465   1.410   2.955 -0.1805  0.1329  0.1438
38182SOL     OW26270   3.907   7.228  10.626 -0.1773 -0.6430  0.4608
38182SOL    HW126271   3.935   7.272  10.707 -1.1554  0.9637 -0.0275
38182SOL    HW226272   3.854   7.154  10.657 -0.8035  0.1302  1.3154
38183SOL     OW26273   9.005   9.433   8.048 -0.0947 -0.1008 -0.0966
38183SOL    HW126274   9.079   9.378   8.019  0.8373  1.0050  0.1315
38183SOL    HW226275   8.951   9.442   7.969  0.2775 -0.4948 -0.4083
38184SOL     OW26276   3.983  12.880   6.185 -0.1891  0.0672  0.0885
38184SOL    HW126277   4.062  12.851   6.139 -0.9400  0.5974 -1.6214
38184SOL    HW226278   3.956  12.960   6.139 -1.0300  0.5869  1.4316
38185SOL     OW26279   4.733   8.588  11.962 -0.2421 -0.5012  0.1854
38185SOL    HW126280   4.821   8.618  11.986 -0.7062  0.5961  0.5473
38185SOL    HW226281   4.724   8.612  11.870 -0.9348  1.3337  0.6925
38186SOL     OW26282   7.881  12.714  10.591 -0.2718 -0.2962 -0.4452
38186SOL    HW126283   7.844  12.629  10.566 -1.0907  0.1434 -0.7657
38186SOL    HW226284   7.855  12.726  10.682  0.1832 -0.5588 -0.2752
38187SOL     OW26285  13.359  11.516  13.254  0.0852  0.3815  0.2352
38187SOL    HW126286  13.397  11.433  13.224  0.0774  0.9007 -1.2810
38187SOL    HW226287  13.308  11.492  13.331  1.8541 -0.6699  1.1599
38188SOL     OW26288   7.845   3.560   2.788  0.1785 -0.7778  0.3993
38188SOL    HW126289   7.915   3.622   2.768 -0.0638 -1.0097 -1.2675
38188SOL    HW226290   7.765   3.612   2.785  0.0600 -0.9871 -0.0682
38189SOL     OW26291   3.163  13.369  10.850 -0.4172 -0.1923  0.4188
38189SOL    HW126292   3.256  13.369  10.826 -0.6147  1.0089 -0.4257
38189SOL    HW226293   3.131  13.284  10.821  0.3647 -0.5450  0.5471
38190SOL     OW26294  12.782   2.452   0.988 -0.8270 -0.4302 -0.0544
38190SOL    HW126295  12.751   2.386   1.050 -1.1849  1.0688  1.4299
38190SOL    HW226296  12.728   2.438   0.910 -1.5509 -1.2744  0.5701
38191SOL     OW26297  12.153   3.518   7.451  0.1857  0.0292  0.3184
38191SOL    HW126298  12.166   3.424   7.465 -1.7035 -0.1374  1.2298
38191SOL    HW226299  12.195   3.535   7.366 -0.9974 -2.0233 -0.7794
38192SOL     OW26300   1.354   4.237   7.608  0.5614  0.9321  0.0362
38192SOL    HW126301   1.398   4.154   7.589  0.5649  1.1502 -0.9896
38192SOL    HW226302   1.402   4.274   7.681  0.7658  0.1800  0.2876
38193SOL     OW26303   9.024   9.473   3.817  0.4663 -0.4248 -0.2248
38193SOL    HW126304   8.929   9.475   3.812  0.4180 -0.1051  0.6608
38193SOL    HW226305   9.047   9.384   3.790 -0.0670 -0.4712 -0.5514
38194SOL     OW26306  13.708  11.635   9.792  0.2054  0.0805 -0.3678
38194SOL    HW126307  13.699  11.543   9.817 -0.6338  0.2344 -0.0764
38194SOL    HW226308  13.742  11.631   9.702 -0.5923 -0.5277 -0.6571
38195SOL     OW26309   4.064   6.817   7.434 -0.0933 -0.7400 -0.7024
38195SOL    HW126310   4.042   6.839   7.524  3.9915  0.9971  0.1008
38195SOL    HW226311   4.058   6.900   7.386  2.3010 -0.5548 -0.8198
38196SOL     OW26312   8.409   0.788   0.710 -0.4815 -0.1839  0.4737
38196SOL    HW126313   8.481   0.837   0.751  0.1058 -1.5899  1.1736
38196SOL    HW226314   8.442   0.767   0.623 -0.8509  0.8805  0.0598
38197SOL     OW26315  12.648   5.684   9.239 -0.4404  0.3621 -0.0987
38197SOL    HW126316  12.657   5.589   9.233  1.3210  0.5777 -3.0577
38197SOL    HW226317  12.612   5.710   9.154  0.9536  2.4605 -0.1324
38198SOL     OW26318   7.018   1.602   6.561 -0.5608  0.0254  0.1453
38198SOL    HW126319   7.010   1.541   6.634 -0.1190 -1.0227 -0.6481
38198SOL    HW226320   7.030   1.546   6.484  1.0689  1.1280 -0.4589
38199SOL     OW26321   2.438   1.307   2.310  0.6200  0.8844 -0.1213
38199SOL    HW126322   2.469   1.397   2.312  1.3634  0.6304 -0.0562
38199SOL    HW226323   2.372   1.303   2.379  0.3828  1.4455 -0.3087
38200SOL     OW26324   7.531   9.722   2.219 -0.1405  0.0721 -0.1280
38200SOL    HW126325   7.454   9.707   2.274 -0.5457  1.6244 -0.2320
38200SOL    HW226326   7.587   9.646   2.235 -0.1791  0.5257  2.5730
38201SOL     OW26327   5.655   0.572  13.343  0.7038 -0.1846 -0.7251
38201SOL    HW126328   5.640   0.619  13.261 -2.4450  0.0165 -0.1420
38201SOL    HW226329   5.631   0.481  13.324  1.9874 -0.5758 -0.5494
38202SOL     OW26330   2.960  11.320   8.855 -0.1414  0.1050  0.3397
38202SOL    HW126331   2.962  11.396   8.914 -0.2701  0.1639  0.2689
38202SOL    HW226332   2.925  11.249   8.909  0.8053 -0.1285  0.6624
38203SOL     OW26333   8.855  12.702  10.581  0.6086  0.2700 -0.2463
38203SOL    HW126334   8.793  12.723  10.511 -0.9655 -1.9203  0.3891
38203SOL    HW226335   8.897  12.621  10.552  1.3869  0.4011  0.4734
38204SOL     OW26336   2.926   1.121   2.643  0.1034  0.0568 -0.2812
38204SOL    HW126337   2.880   1.089   2.565 -1.7582  0.4993  0.5768
38204SOL    HW226338   2.863   1.111   2.714  0.8856  1.8777  0.7379
38205SOL     OW26339   5.884  11.626   0.149  0.3468 -0.2691  0.7654
38205SOL    HW126340   5.802  11.605   0.194 -0.1022  0.3708  0.2510
38205SOL    HW226341   5.909  11.711   0.184  0.3736 -0.0989  0.3302
38206SOL     OW26342   2.096  12.361   6.407 -0.6047 -0.2714 -0.0432
38206SOL    HW126343   2.045  12.437   6.434 -0.9170 -0.8052  0.8846
38206SOL    HW226344   2.186  12.393   6.404 -0.9791  0.7885 -2.1071
38207SOL     OW26345   7.375  12.858  12.562  0.1980 -0.0589  0.2280
38207SOL    HW126346   7.458  12.840  12.519 -0.0785  3.8169 -2.4610
38207SOL    HW226347   7.399  12.900  12.645  0.8627 -0.8867  0.4590
38208SOL     OW26348  12.250   7.802  12.108 -0.5817 -0.2333  0.1480
38208SOL    HW126349  12.189   7.735  12.078 -0.1152 -0.4154 -0.4148
38208SOL    HW226350  12.320   7.801  12.043 -2.0398  3.0015 -1.6919
38209SOL     OW26351  12.843  11.826   2.988 -0.2707 -0.3888 -0.1083
38209SOL    HW126352  12.792  11.777   3.053 -0.4869 -0.3085 -0.2137
38209SOL    HW226353  12.788  11.826   2.910 -0.0357 -0.4379 -0.2754
38210SOL     OW26354   4.879   3.180   8.676 -0.0805  0.0192  0.3001
38210SOL    HW126355   4.890   3.190   8.582  0.3952 -1.7877  0.1114
38210SOL    HW226356   4.788   3.204   8.693 -0.3234 -0.1502 -0.7019
38211SOL     OW26357   0.702   3.251   2.070  0.0902  0.0323  0.3501
38211SOL    HW126358   0.768   3.307   2.111 -0.9329  0.9834  0.7425
38211SOL    HW226359   0.659   3.207   2.143 -0.5648  0.3986  0.1909
38212SOL     OW26360  12.535   8.830   8.253  0.1156 -0.2265 -0.2984
38212SOL    HW126361  12.587   8.765   8.300 -2.1521 -3.7239 -2.1604
38212SOL    HW226362  12.578   8.839   8.169  0.7875  1.2899  0.1851
38213SOL     OW26363   8.814   5.494  10.065  0.2601  0.5695  0.1216
38213SOL    HW126364   8.778   5.501  10.153  1.4668 -1.8120  0.9204
38213SOL    HW226365   8.845   5.582  10.044 -0.6814  1.3434  1.7786
38214SOL     OW26366  11.054   5.322   9.615 -0.0858  0.0671  0.2413
38214SOL    HW126367  11.118   5.358   9.677 -0.3860  0.2746  0.4372
38214SOL    HW226368  11.022   5.243   9.657  0.9770 -0.7381 -0.4388
38215SOL     OW26369   2.796  11.290   1.811  0.2867  0.2341  0.1764
38215SOL    HW126370   2.792  11.269   1.904 -1.2669  1.6079  0.4769
38215SOL    HW226371   2.752  11.375   1.804  1.3398  0.6800 -1.6659
38216SOL     OW26372   1.789   0.332   5.604 -0.1850  0.0908 -0.3159
38216SOL    HW126373   1.848   0.258   5.619  0.8798  0.5326 -1.9830
38216SOL    HW226374   1.772   0.367   5.692  2.1912  0.0315  0.2545
38217SOL     OW26375  13.386   4.338  13.475 -0.1797  0.0639  0.1852
38217SOL    HW126376  13.294   4.312  13.475  0.0209 -0.6799  0.3258
38217SOL    HW226377  13.418   4.315  13.388  0.7425 -2.9955  1.2217
38218SOL     OW26378  12.667  12.004   3.704  0.4469  0.2669 -0.6097
38218SOL    HW126379  12.631  11.993   3.616 -0.0600 -2.1806 -0.1689
38218SOL    HW226380  12.691  11.916   3.732  0.6498  0.9743  1.6950
38219SOL     OW26381   6.296  10.186   3.864 -0.0013 -0.5447  0.6661
38219SOL    HW126382   6.241  10.122   3.909 -1.0975  1.1751  1.8810
38219SOL    HW226383   6.270  10.181   3.773 -0.3113 -1.5674  0.7956
38220SOL     OW26384   1.318   5.799   2.544  0.6632 -0.3265 -0.1236
38220SOL    HW126385   1.271   5.765   2.468  1.8115 -0.9845 -0.5634
38220SOL    HW226386   1.280   5.752   2.618 -0.6903  0.5614 -0.2306
38221SOL     OW26387   6.222  12.171   5.157 -0.2196  0.0786 -0.7384
38221SOL    HW126388   6.240  12.085   5.119 -2.3589 -0.5116 -0.5816
38221SOL    HW226389   6.238  12.160   5.250  0.9164  0.2914 -0.8984
38222SOL     OW26390   8.312   2.331   4.116  0.1368  0.2682 -0.0827
38222SOL    HW126391   8.351   2.285   4.041 -1.5735 -0.1476 -0.7647
38222SOL    HW226392   8.385   2.378   4.156  1.1721  0.1827 -1.7860
38223SOL     OW26393   0.024  10.163   6.130 -0.5957 -0.3383  0.0896
38223SOL    HW126394  -0.020  10.220   6.193  1.7434  0.8044  0.8116
38223SOL    HW226395   0.066  10.223   6.068 -2.7196 -1.4209 -2.6087
38224SOL     OW26396   8.101  10.834   3.704 -0.3885  0.7039 -0.0439
38224SOL    HW126397   8.193  10.809   3.713 -0.0173  1.1878 -2.0388
38224SOL    HW226398   8.102  10.929   3.693 -1.2556  0.8778  1.1395
38225SOL     OW26399   9.201   5.550   3.315  0.0041  0.1432  0.3952
38225SOL    HW126400   9.262   5.605   3.364 -0.1163  0.5634  0.0734
38225SOL    HW226401   9.169   5.606   3.245 -1.6819  0.3420  1.2655
38226SOL     OW26402  10.479  12.803  12.378  1.2172  0.2586 -0.0369
38226SOL    HW126403  10.508  12.792  12.287 -1.7691 -0.5366 -0.9878
38226SOL    HW226404  10.547  12.759  12.430  1.9673 -1.0725 -2.0295
38227SOL     OW26405   1.174  12.047   0.084  0.1868 -0.1445  0.3785
38227SOL    HW126406   1.088  12.022   0.118 -0.2708  1.4828  0.5157
38227SOL    HW226407   1.233  12.036   0.158 -0.7441  3.0542  1.7682
38228SOL     OW26408   6.979   4.086  13.463  0.1225 -0.0004  0.2337
38228SOL    HW126409   6.902   4.125  13.422 -0.2420 -0.8399  0.0951
38228SOL    HW226410   6.943   4.028  13.530  0.4202 -2.9984 -2.0067
38229SOL     OW26411   2.063   2.521   5.619 -0.4185 -0.0506  0.0938
38229SOL    HW126412   2.067   2.553   5.709  0.5207  0.7748 -0.2166
38229SOL    HW226413   2.143   2.555   5.578 -1.0774  0.0242 -1.1852
38230SOL     OW26414   3.370   8.462   9.989 -0.1471  0.4191 -0.3112
38230SOL    HW126415   3.458   8.498   9.977 -0.2487  1.4444  1.6595
38230SOL    HW226416   3.313   8.524   9.944 -0.0504  1.0783  0.4492
38231SOL     OW26417   7.634  12.742  12.491 -0.5340  0.2439  0.0834
38231SOL    HW126418   7.658  12.652  12.511  0.5274  0.2640 -0.9916
38231SOL    HW226419   7.715  12.792  12.504 -0.7180  0.7909 -0.7877
38232SOL     OW26420   7.641   3.776   6.980 -0.0798  0.5320 -0.2744
38232SOL    HW126421   7.654   3.859   6.934  0.2413  1.2126  1.0071
38232SOL    HW226422   7.729   3.741   6.991 -0.1057  0.6394  0.2934
38233SOL     OW26423  11.711   4.168   3.168 -0.8153  0.1131  0.5207
38233SOL    HW126424  11.664   4.135   3.245 -1.8131  1.9993  0.7811
38233SOL    HW226425  11.803   4.146   3.185 -1.3231 -1.9533  0.9116
38234SOL     OW26426   8.162   9.075   0.228  0.3470  0.3458  0.4168
38234SOL    HW126427   8.216   9.045   0.154  0.1665 -0.2429  0.5200
38234SOL    HW226428   8.171   9.171   0.226  1.4439  0.2635  0.4609
38235SOL     OW26429  12.520  10.983   1.814 -0.0627  0.0718  0.0521
38235SOL    HW126430  12.543  10.940   1.896 -1.0513 -2.6992 -1.0296
38235SOL    HW226431  12.426  10.970   1.805 -0.2926  1.8999 -0.7233
38236SOL     OW26432   5.501   8.053   3.629 -0.5414 -0.1498 -0.0175
38236SOL    HW126433   5.448   8.121   3.588 -1.5601 -0.2725  1.0505
38236SOL    HW226434   5.491   8.068   3.723  0.6592 -0.6916  0.2172
38237SOL     OW26435   0.295   7.331  11.660  0.1087  0.0408 -0.0650
38237SOL    HW126436   0.379   7.376  11.673 -0.5763  1.2848  0.1770
38237SOL    HW226437   0.274   7.345  11.568  0.0680 -0.1232 -0.0821
38238SOL     OW26438  12.336  10.593   4.453  0.3587  0.1094 -0.2033
38238SOL    HW126439  12.252  10.626   4.485  1.2583  3.5842 -0.9475
38238SOL    HW226440  12.327  10.597   4.357  1.1588 -0.0653 -0.2883
38239SOL     OW26441   5.901   0.502   5.626  0.2800 -0.2943 -0.3693
38239SOL    HW126442   5.868   0.420   5.590 -0.4924  0.0737 -0.5277
38239SOL    HW226443   5.916   0.558   5.550  1.8728 -0.6540 -0.3421
38240SOL     OW26444   4.734   9.066   1.926  0.5631  0.2554 -0.0473
38240SOL    HW126445   4.702   9.070   2.016  1.6029  2.5246  0.2875
38240SOL    HW226446   4.723   8.974   1.901  1.7286 -0.8406  2.9412
38241SOL     OW26447  13.391   6.462   3.710 -0.3872 -0.0857  0.0664
38241SOL    HW126448  13.335   6.414   3.771 -0.0509 -1.7987 -0.9183
38241SOL    HW226449  13.441   6.522   3.766 -0.8152 -0.8746  1.3511
38242SOL     OW26450   4.785   6.488   9.882 -0.3450  0.4685 -0.2147
38242SOL    HW126451   4.816   6.426   9.816 -0.6948  1.1993 -1.0789
38242SOL    HW226452   4.808   6.447   9.966 -0.2670 -0.6635 -0.7740
38243SOL     OW26453  11.361   3.741  10.419 -0.2237 -0.3845  0.9456
38243SOL    HW126454  11.336   3.823  10.375  0.3285 -0.5457  0.3306
38243SOL    HW226455  11.377   3.767  10.509  0.0687  0.2152  0.7280
38244SOL     OW26456   8.056   9.653  10.041  0.0619 -0.5355  0.2282
38244SOL    HW126457   8.020   9.565  10.033 -0.5445 -0.3212  0.4756
38244SOL    HW226458   8.114   9.663   9.966  0.2268 -1.1845  0.2635
38245SOL     OW26459   4.630   8.645   9.969 -0.8080 -0.2197 -0.4300
38245SOL    HW126460   4.721   8.657   9.995 -0.5667  0.5763 -1.5732
38245SOL    HW226461   4.622   8.551   9.951  0.5268  0.0469 -2.8280
38246SOL     OW26462   7.175   1.264   6.833 -0.5381 -0.7502 -0.1942
38246SOL    HW126463   7.227   1.336   6.869  2.3848 -0.6800 -3.9784
38246SOL    HW226464   7.087   1.299   6.826 -0.0662  1.0039  1.7077
38247SOL     OW26465  12.124   4.452  10.002  0.2818  0.0894  0.1030
38247SOL    HW126466  12.180   4.410   9.936  0.7549  0.7728  0.0693
38247SOL    HW226467  12.036   4.419   9.982  0.5160 -0.2172 -0.4594
38248SOL     OW26468   3.371  12.210  10.073 -0.5271 -0.0895 -0.1699
38248SOL    HW126469   3.455  12.255  10.085 -0.1567 -0.8999  0.3761
38248SOL    HW226470   3.365  12.151  10.148 -2.2691  0.9694  0.6147
38249SOL     OW26471  11.302  11.234   9.052 -0.1998  0.5638 -0.0033
38249SOL    HW126472  11.241  11.170   9.015  0.7082 -0.8585  0.8415
38249SOL    HW226473  11.289  11.227   9.147  0.8176  0.6886  0.1569
38250SOL     OW26474   4.497   7.341  11.487 -0.1857  0.9072 -0.6719
38250SOL    HW126475   4.511   7.251  11.460 -0.5078  0.4853  0.5201
38250SOL    HW226476   4.566   7.358  11.551 -1.4229  0.7842  0.7229
38251SOL     OW26477  10.953  12.052   3.341  0.1401 -0.1233 -0.0950
38251SOL    HW126478  10.866  12.022   3.369 -0.2095  1.3222  0.4290
38251SOL    HW226479  11.013  11.995   3.389 -0.4974 -0.5754  0.1945
38252SOL     OW26480   4.375  12.884   0.977 -0.0414  0.0379  0.2020
38252SOL    HW126481   4.295  12.841   0.947 -0.9451  0.4680  1.8866
38252SOL    HW226482   4.434  12.813   0.999 -0.7640 -0.3450  0.9799
38253SOL     OW26483   8.229   4.403  11.939 -0.0590  0.1036 -0.1784
38253SOL    HW126484   8.181   4.332  11.982  1.2115 -0.5300  0.2406
38253SOL    HW226485   8.285   4.359  11.875  1.0092  0.6735  0.3359
38254SOL     OW26486   9.541   1.321  11.238 -0.4203  0.3870 -0.2592
38254SOL    HW126487   9.606   1.338  11.307  1.1596 -0.7819 -1.3864
38254SOL    HW226488   9.593   1.294  11.163 -2.2386 -0.5559 -1.2388
38255SOL     OW26489  10.143   5.839  10.844  0.3830  0.1838 -0.1073
38255SOL    HW126490  10.239   5.840  10.845  0.3814  0.7272  0.1010
38255SOL    HW226491  10.119   5.793  10.925  0.4616 -2.2132 -1.3713
38256SOL     OW26492   9.665   3.775   9.880  0.0307 -0.1227 -0.2336
38256SOL    HW126493   9.746   3.819   9.852 -0.0270 -0.3783 -0.8201
38256SOL    HW226494   9.653   3.802   9.971  0.0403  0.9965 -0.5566
38257SOL     OW26495   1.352  10.673   7.838 -0.5265 -0.3340 -0.8975
38257SOL    HW126496   1.371  10.642   7.750  1.7110  1.0956 -0.9867
38257SOL    HW226497   1.407  10.620   7.896 -0.8213 -0.2236 -0.5095
38258SOL     OW26498   3.831  13.228  12.987  0.1387  0.0436 -0.2983
38258SOL    HW126499   3.745  13.269  12.977 -0.0312  0.0245  0.9572
38258SOL    HW226500   3.893  13.297  12.961 -0.2523 -0.3750 -2.5652
38259SOL     OW26501   8.573   4.045   2.973  0.3750 -0.3957  0.1966
38259SOL    HW126502   8.621   3.991   3.036  0.0266  1.1827  1.8803
38259SOL    HW226503   8.638   4.109   2.942 -0.5988  2.1121  2.9047
38260SOL     OW26504  12.001   0.933  10.854  0.0194 -0.0822 -0.1516
38260SOL    HW126505  11.955   0.863  10.807 -1.5232 -0.4366  1.7657
38260SOL    HW226506  12.083   0.894  10.882  0.9764  0.1315 -2.4452
38261SOL     OW26507   4.091   8.454   8.587  0.2081  0.0244  0.2533
38261SOL    HW126508   4.117   8.472   8.497 -1.6860 -0.8589 -0.5215
38261SOL    HW226509   4.128   8.527   8.638 -0.2442  1.5368 -1.5076
38262SOL     OW26510   1.003  11.701   8.208  0.0886  0.3183 -0.4039
38262SOL    HW126511   0.975  11.638   8.274 -0.1765  0.1385 -0.6897
38262SOL    HW226512   1.094  11.721   8.232 -0.1550  0.6367  0.3128
38263SOL     OW26513   0.174  12.366   9.109  0.5431 -0.7210 -0.1796
38263SOL    HW126514   0.156  12.283   9.066 -0.5130  0.4603 -2.2027
38263SOL    HW226515   0.249  12.402   9.061  1.7839 -1.0151  1.4732
38264SOL     OW26516   6.592   4.317   9.177  0.3626  0.3965 -0.6875
38264SOL    HW126517   6.530   4.296   9.106  1.2379 -0.1205 -1.3207
38264SOL    HW226518   6.571   4.408   9.200 -1.2938 -0.0649 -0.1790
38265SOL     OW26519   9.583   7.690   6.398 -0.2639 -1.2057  0.3476
38265SOL    HW126520   9.660   7.747   6.394 -0.7232 -0.6409 -0.8377
38265SOL    HW226521   9.593   7.630   6.323 -2.1927  0.5167 -1.4064
38266SOL     OW26522   4.676  11.283   1.577 -0.2057  0.4756 -0.7322
38266SOL    HW126523   4.613  11.334   1.527 -1.1120  0.6236  0.5077
38266SOL    HW226524   4.752  11.340   1.585 -1.3923  1.9065  1.0710
38267SOL     OW26525   2.940  13.274   0.256  0.6129  0.0298  0.9599
38267SOL    HW126526   3.031  13.263   0.285  1.2350 -1.6755 -1.2924
38267SOL    HW226527   2.927  13.204   0.192 -1.3601  1.9788 -0.9497
38268SOL     OW26528   1.612   6.059   8.374 -0.2320 -0.1161 -0.0757
38268SOL    HW126529   1.535   6.063   8.430 -0.5206  1.4937 -0.5325
38268SOL    HW226530   1.577   6.046   8.286  0.1980 -2.2287  0.0091
38269SOL     OW26531   9.268   5.480   5.472 -0.2321  0.4727  0.3433
38269SOL    HW126532   9.234   5.569   5.471  1.4273  1.1493  0.2333
38269SOL    HW226533   9.200   5.427   5.430 -0.8105  1.8550 -0.5165
38270SOL     OW26534   7.405   3.247   7.089 -0.3069  0.4035 -0.2852
38270SOL    HW126535   7.309   3.243   7.095 -0.2694  0.2924  0.2984
38270SOL    HW226536   7.429   3.170   7.038 -0.4920  0.1282  0.0403
38271SOL     OW26537   7.355   8.703   2.641 -0.4135 -0.5895 -0.3920
38271SOL    HW126538   7.293   8.660   2.582 -0.9073  0.3732 -0.5933
38271SOL    HW226539   7.344   8.797   2.624 -0.7227 -0.2583  1.3667
38272SOL     OW26540  12.697   8.910   2.905 -0.1399  0.0847  0.2584
38272SOL    HW126541  12.740   8.993   2.884  0.0380 -0.2357 -0.7040
38272SOL    HW226542  12.699   8.905   3.001  2.6385 -0.2587  0.2632
38273SOL     OW26543   4.793   0.733  12.855 -0.5471 -0.4216 -0.6535
38273SOL    HW126544   4.718   0.781  12.821 -0.9094 -1.6245 -1.6216
38273SOL    HW226545   4.869   0.772  12.812 -0.7331 -0.0091 -0.6094
38274SOL     OW26546   1.269   5.009   8.826  0.3865  0.3003 -0.0405
38274SOL    HW126547   1.202   5.046   8.884  0.9956  0.0290  0.8518
38274SOL    HW226548   1.286   4.922   8.862  1.4156  0.4687 -0.0969
38275SOL     OW26549   1.520   0.438   7.836  0.1670  0.5221 -0.2835
38275SOL    HW126550   1.600   0.460   7.789  0.7319 -1.5819 -0.4317
38275SOL    HW226551   1.543   0.446   7.928  0.8311 -0.8121 -0.3086
38276SOL     OW26552   8.336   6.568   9.612 -0.2600 -0.5624 -0.0744
38276SOL    HW126553   8.382   6.543   9.532  0.5887 -0.4312  0.3507
38276SOL    HW226554   8.406   6.578   9.677 -0.5832  2.1655 -0.0188
38277SOL     OW26555   2.326   5.033  13.729  0.4973 -0.6796  0.2397
38277SOL    HW126556   2.330   5.011  13.822 -0.0288 -0.7621  0.2459
38277SOL    HW226557   2.396   5.096  13.716 -0.4028  0.5232  1.0212
38278SOL     OW26558  11.358   9.386   7.508  0.5038  0.2132 -0.2287
38278SOL    HW126559  11.337   9.449   7.577  1.7572  1.0700 -0.5881
38278SOL    HW226560  11.277   9.336   7.495  0.3756 -0.3411  2.2128
38279SOL     OW26561  12.343   6.409   3.231  0.4888 -0.3061 -0.9780
38279SOL    HW126562  12.284   6.451   3.169 -1.4898  0.4960  1.2899
38279SOL    HW226563  12.311   6.319   3.237  0.9358 -0.4985 -1.3771
38280SOL     OW26564   0.642  10.994   8.274  0.1053 -0.2208  0.1460
38280SOL    HW126565   0.666  10.907   8.241 -2.1547 -1.4561  1.4865
38280SOL    HW226566   0.546  10.993   8.277 -0.2106  3.3825 -2.4105
38281SOL     OW26567   0.326  10.945   2.490  0.2195  0.0261  0.2607
38281SOL    HW126568   0.289  11.013   2.434  1.7139  0.4472 -0.2686
38281SOL    HW226569   0.362  10.880   2.430  0.4609 -0.2930  0.7365
38282SOL     OW26570   3.733   4.647   7.830  0.5858  0.0367  0.1600
38282SOL    HW126571   3.643   4.629   7.800  0.8154  0.6486 -0.9397
38282SOL    HW226572   3.724   4.726   7.884  0.3362 -0.4212  0.7991
38283SOL     OW26573  10.469   9.657   8.674 -0.5249 -0.1204  0.2275
38283SOL    HW126574  10.454   9.563   8.685  0.3489 -0.4431 -1.1045
38283SOL    HW226575  10.409   9.683   8.604 -0.5423  0.2438  0.3748
38284SOL     OW26576  11.803   1.539   1.346 -0.7197  0.4317 -0.2406
38284SOL    HW126577  11.786   1.526   1.439 -2.3791  0.3443 -0.5229
38284SOL    HW226578  11.795   1.452   1.307  0.7130  0.3408 -0.3844
38285SOL     OW26579  10.059   4.064   0.921 -0.2189 -0.0386 -0.3275
38285SOL    HW126580  10.135   4.036   0.970 -1.0200 -0.7808  0.5281
38285SOL    HW226581  10.008   3.984   0.907 -1.8694  0.7220  0.9421
38286SOL     OW26582  10.749  12.619   7.204 -0.4002 -0.3691  0.4373
38286SOL    HW126583  10.712  12.706   7.188  1.0661 -0.1117 -1.9948
38286SOL    HW226584  10.701  12.561   7.145  1.1804 -0.4924 -0.7884
38287SOL     OW26585  13.177   3.551  10.319 -0.2341  0.6921  0.4051
38287SOL    HW126586  13.115   3.495  10.273 -0.2789  0.4100  0.8087
38287SOL    HW226587  13.248   3.493  10.345 -1.2750  0.3333  2.7217
38288SOL     OW26588  10.443  10.706   5.008 -0.4183  0.0991 -0.0255
38288SOL    HW126589  10.512  10.642   5.025 -1.7760 -1.5016 -0.3256
38288SOL    HW226590  10.415  10.689   4.918 -2.3477 -0.4593  0.6343
38289SOL     OW26591  10.730  13.462   1.670  0.5034 -0.1859 -0.0567
38289SOL    HW126592  10.673  13.494   1.740  1.4474 -2.0840  1.7406
38289SOL    HW226593  10.678  13.467   1.591 -0.8827  1.4096  0.9067
38290SOL     OW26594   2.738   2.282   4.396  0.2160 -0.2003 -0.0978
38290SOL    HW126595   2.705   2.216   4.458 -1.0402 -1.3378 -1.8980
38290SOL    HW226596   2.814   2.240   4.356 -0.8550 -0.8316 -1.5799
38291SOL     OW26597   2.987   1.175   1.415 -0.3796  0.5745 -0.1421
38291SOL    HW126598   3.078   1.154   1.395 -0.2078  0.3946  0.7908
38291SOL    HW226599   2.992   1.250   1.474 -0.7130 -0.7102  1.6300
38292SOL     OW26600  13.038  10.190   8.161  0.2803 -0.7075 -0.3471
38292SOL    HW126601  12.945  10.206   8.143  0.4394 -0.4106 -0.9518
38292SOL    HW226602  13.052  10.222   8.250 -0.1940 -0.7532 -0.2546
38293SOL     OW26603   2.529   4.329   8.943 -0.0638  0.1154 -0.2522
38293SOL    HW126604   2.560   4.417   8.963 -0.8462 -0.2404  3.0481
38293SOL    HW226605   2.599   4.271   8.976 -0.0801 -0.5550 -1.3334
38294SOL     OW26606   0.425  10.154   2.158  0.4228 -0.3572 -0.9105
38294SOL    HW126607   0.430  10.248   2.146  0.9891 -0.1253  0.8913
38294SOL    HW226608   0.358  10.125   2.095  0.2378  1.2242 -1.4729
38295SOL     OW26609  10.885  10.643  12.983  0.1859  0.6346 -0.5861
38295SOL    HW126610  10.822  10.639  13.055  1.0814  3.6451  0.5077
38295SOL    HW226611  10.831  10.631  12.904 -0.8448 -2.4784  0.4197
38296SOL     OW26612   8.687   7.394  12.080 -0.4823 -0.5390  0.4546
38296SOL    HW126613   8.746   7.376  12.153  0.3260 -2.3160 -0.5748
38296SOL    HW226614   8.614   7.443  12.119  0.5599 -0.3019  2.1790
38297SOL     OW26615   2.212  11.016   6.907 -0.1619 -0.1575 -0.0069
38297SOL    HW126616   2.300  11.052   6.912 -0.4388  0.7947 -1.4737
38297SOL    HW226617   2.216  10.935   6.959  1.9791 -0.9106 -1.2156
38298SOL     OW26618   7.896   4.456   3.581 -0.1878 -0.2061  0.4569
38298SOL    HW126619   7.871   4.542   3.615  1.0661  0.0707  0.7138
38298SOL    HW226620   7.852   4.394   3.638  0.5139  0.2570  1.5172
38299SOL     OW26621  10.773  11.303   2.717  0.4962  0.0870  0.2156
38299SOL    HW126622  10.786  11.397   2.728  0.6382  0.0523  0.3484
38299SOL    HW226623  10.761  11.291   2.623 -1.0194  0.4314  0.3308
38300SOL     OW26624   7.192   9.903   7.168 -0.6158  0.1652  0.6055
38300SOL    HW126625   7.113   9.907   7.223 -0.3206 -0.8527  1.1123
38300SOL    HW226626   7.229   9.817   7.185  1.2960  1.0662  1.3024
38301SOL     OW26627   6.586  11.537  13.460 -0.1034  0.2827 -0.3503
38301SOL    HW126628   6.554  11.552  13.371  0.4439 -2.0011 -1.0046
38301SOL    HW226629   6.594  11.442  13.466  1.7792  0.4994  1.4803
38302SOL     OW26630   6.103   1.197   1.131  0.7916  0.1670  0.1248
38302SOL    HW126631   6.072   1.156   1.212  0.0652  0.0879 -0.1825
38302SOL    HW226632   6.033   1.257   1.107  1.6533  1.2747  0.3271
38303SOL     OW26633   0.041  10.017   9.688 -0.6249 -0.2503  0.2242
38303SOL    HW126634  -0.006   9.944   9.729  0.0181 -1.4367 -1.0638
38303SOL    HW226635  -0.024  10.086   9.679 -1.7702 -1.3752 -0.2927
38304SOL     OW26636   9.520   5.035  11.652 -0.0705 -0.4964 -0.0364
38304SOL    HW126637   9.496   5.095  11.723 -3.0732  1.8007 -2.6914
38304SOL    HW226638   9.613   5.051  11.637  0.4064 -0.3299  2.6263
38305SOL     OW26639   1.995   5.844   0.032 -0.3445 -0.2021 -0.1995
38305SOL    HW126640   1.966   5.756   0.058  0.5105 -0.5657 -0.4406
38305SOL    HW226641   2.066   5.864   0.092  2.1365 -1.3332 -2.5619
38306SOL     OW26642   1.514  11.301  10.762  0.4107  0.1310 -0.4945
38306SOL    HW126643   1.581  11.251  10.808  0.0449  0.4124  0.3843
38306SOL    HW226644   1.448  11.236  10.738  0.4885  0.0150 -0.3949
38307SOL     OW26645   5.908  12.109   8.834  0.5331  0.1232 -0.0797
38307SOL    HW126646   5.882  12.105   8.742 -1.6159  1.3453  0.4085
38307SOL    HW226647   5.948  12.195   8.844  1.8234 -0.4499 -0.0762
38308SOL     OW26648   6.585   0.658   4.326  0.4129 -0.5033  0.0285
38308SOL    HW126649   6.668   0.689   4.363  0.7333 -0.9351 -0.3093
38308SOL    HW226650   6.538   0.620   4.400  0.0721  0.6389  0.4204
38309SOL     OW26651   3.294  11.280   3.078 -0.1379 -0.2950  0.0606
38309SOL    HW126652   3.328  11.221   3.011  0.7614  0.7886 -0.4747
38309SOL    HW226653   3.260  11.222   3.146 -0.6023 -1.4218 -1.0820
38310SOL     OW26654   9.249  13.702   5.885  0.3861  0.0922  0.4736
38310SOL    HW126655   9.187  13.726   5.954 -0.2217 -0.6104  0.1870
38310SOL    HW226656   9.203  13.722   5.803  0.5211 -0.4785  0.2581
38311SOL     OW26657   0.203   8.637   8.175 -0.3823  0.4878 -0.3034
38311SOL    HW126658   0.241   8.646   8.262  0.2122 -1.6838 -0.2979
38311SOL    HW226659   0.109   8.646   8.189 -0.2713  0.4236  0.5159
38312SOL     OW26660   4.486  13.090   9.493  0.1872 -0.5954  0.1258
38312SOL    HW126661   4.436  13.087   9.412  1.2257 -3.1876 -0.5040
38312SOL    HW226662   4.436  13.035   9.554 -0.4757  1.1575  1.2746
38313SOL     OW26663   5.072  13.443  10.884 -0.0765  0.3097 -0.0551
38313SOL    HW126664   5.084  13.532  10.851 -2.3687  0.2644 -1.1604
38313SOL    HW226665   5.021  13.454  10.965 -1.1725 -0.0301 -0.6886
38314SOL     OW26666   3.547  10.060   0.321  0.0053  0.0314 -0.0352
38314SOL    HW126667   3.503  10.137   0.357  2.0846  1.2429  0.0934
38314SOL    HW226668   3.566  10.006   0.398 -1.4342 -0.6339 -0.1231
38315SOL     OW26669   5.215   1.783   6.526  0.3415 -0.1638  0.0348
38315SOL    HW126670   5.237   1.814   6.614  1.3469  0.8999 -0.5780
38315SOL    HW226671   5.294   1.797   6.474 -0.7851  0.8987 -1.4875
38316SOL     OW26672   4.541   7.832  13.365 -0.4703 -0.1149  0.6304
38316SOL    HW126673   4.466   7.858  13.311 -0.4845  0.7679  1.0459
38316SOL    HW226674   4.612   7.819  13.303 -0.7311 -0.0431  0.3135
38317SOL     OW26675  10.911   3.639   6.373  0.2105  0.3427 -0.3256
38317SOL    HW126676  10.833   3.587   6.349 -0.1066  0.9434 -0.6193
38317SOL    HW226677  10.926   3.618   6.465 -0.6939  0.7069 -0.0818
38318SOL     OW26678  12.339   2.566   8.956  0.1589 -0.1563 -0.7396
38318SOL    HW126679  12.284   2.490   8.940 -0.3942 -0.0274  0.4916
38318SOL    HW226680  12.414   2.553   8.898  0.4016 -1.9879 -0.0905
38319SOL     OW26681   0.497   0.117   7.672 -0.1012  0.9773 -0.7418
38319SOL    HW126682   0.590   0.102   7.690 -0.3733 -0.4975 -0.5155
38319SOL    HW226683   0.485   0.089   7.581 -0.5643  0.0162 -0.3957
38320SOL     OW26684   5.470   0.467   9.853 -0.5314  0.1318 -0.1599
38320SOL    HW126685   5.541   0.484   9.915  0.7060 -0.1651 -1.4315
38320SOL    HW226686   5.442   0.555   9.824 -0.2300  0.2385 -0.1308
38321SOL     OW26687   4.099  10.915  12.992  0.2088  0.1970 -0.5589
38321SOL    HW126688   4.101  10.839  12.934 -1.4409 -0.9436  0.7980
38321SOL    HW226689   4.144  10.885  13.072  0.3672  0.9638 -0.3522
38322SOL     OW26690   6.378   0.427   8.414 -0.5475 -0.1441  0.3335
38322SOL    HW126691   6.330   0.468   8.342 -0.4198 -1.0048 -0.2427
38322SOL    HW226692   6.310   0.406   8.479 -0.7903 -0.2857  0.0327
38323SOL     OW26693  10.917   4.870  10.705 -0.4599 -0.0751  0.2948
38323SOL    HW126694  10.871   4.948  10.737  2.6153  1.3774  1.5971
38323SOL    HW226695  10.891   4.863  10.613 -2.4476  1.2035  0.6950
38324SOL     OW26696  12.264  13.182   0.035  0.6868  0.3625 -0.2250
38324SOL    HW126697  12.293  13.175   0.126  0.7406 -0.5799 -0.3073
38324SOL    HW226698  12.188  13.125   0.029  1.2565 -0.3388 -0.9999
38325SOL     OW26699   8.418   0.306   2.618 -0.2057 -0.1334  0.2400
38325SOL    HW126700   8.407   0.365   2.692 -0.7371 -1.6108  1.3838
38325SOL    HW226701   8.504   0.329   2.581 -0.2534  1.1044  0.8520
38326SOL     OW26702   2.644   4.071  10.891  0.1515  0.4141  0.6621
38326SOL    HW126703   2.585   4.075  10.816  0.6026  0.4169  0.3037
38326SOL    HW226704   2.723   4.117  10.862  0.3436  0.3872  1.1258
38327SOL     OW26705   8.263   8.807   2.445 -0.3581 -0.4311  0.0798
38327SOL    HW126706   8.320   8.832   2.519 -1.4414 -0.0861  0.8207
38327SOL    HW226707   8.319   8.815   2.368  0.5620  0.0380  0.7785
38328SOL     OW26708   7.264   0.052   7.649 -0.1645 -0.5012 -0.7802
38328SOL    HW126709   7.336   0.021   7.704 -0.4307  0.2743  0.0125
38328SOL    HW226710   7.308   0.084   7.570  0.3095 -0.5793 -0.5542
38329SOL     OW26711  10.744   8.640   5.855  0.3491  0.1302 -0.5850
38329SOL    HW126712  10.727   8.656   5.762 -0.7228  0.2784 -0.3811
38329SOL    HW226713  10.799   8.713   5.882 -0.4085  0.8053 -0.8133
38330SOL     OW26714   9.488  13.242   3.291 -0.2935 -0.0454  0.3798
38330SOL    HW126715   9.437  13.303   3.344  0.6093 -0.2983  1.5896
38330SOL    HW226716   9.567  13.225   3.343  1.5229  1.0687 -1.8174
38331SOL     OW26717   8.228   0.215   3.404 -0.4587  0.2909  0.2332
38331SOL    HW126718   8.255   0.186   3.491 -0.4728  2.8241  1.1800
38331SOL    HW226719   8.200   0.306   3.417  0.0260  0.9232 -2.5128
38332SOL     OW26720   6.380   2.072  11.428  0.1494  0.3687 -0.7797
38332SOL    HW126721   6.418   2.155  11.458  1.7225 -0.6698  0.2467
38332SOL    HW226722   6.337   2.037  11.505  0.7908 -0.4570 -0.7856
38333SOL     OW26723  13.103   3.190  12.571 -0.5210 -0.3621 -0.4547
38333SOL    HW126724  13.058   3.155  12.648 -1.1416  1.0744 -0.1332
38333SOL    HW226725  13.074   3.281  12.566 -0.0530 -0.2740 -2.0682
38334SOL     OW26726   2.524   8.401  12.161 -0.2007  0.6279 -0.5740
38334SOL    HW126727   2.459   8.442  12.219  0.1062  1.2101 -0.6310
38334SOL    HW226728   2.530   8.461  12.087  0.4271  0.5930 -0.5538
38335SOL     OW26729   6.761   1.685  10.970 -0.0332  0.5396  0.6156
38335SOL    HW126730   6.824   1.742  10.926 -2.6431  2.3433 -1.0441
38335SOL    HW226731   6.676   1.723  10.950 -1.8408 -2.9242  1.0239
38336SOL     OW26732   4.248  10.163  13.135  0.0535  0.1007  0.4138
38336SOL    HW126733   4.262  10.084  13.187 -0.4207 -0.1968  0.1040
38336SOL    HW226734   4.153  10.166  13.122  0.0355  0.8903  0.6826
38337SOL     OW26735  12.116   6.833  13.686  0.2433  0.3820 -0.2841
38337SOL    HW126736  12.108   6.899  13.617  2.6551  0.1042 -0.9324
38337SOL    HW226737  12.047   6.854  13.749 -0.3436  2.2423 -1.4825
38338SOL     OW26738  12.139   3.780   7.691 -0.1876  0.3131  0.2191
38338SOL    HW126739  12.164   3.771   7.598 -0.9034  0.9604 -0.0433
38338SOL    HW226740  12.068   3.717   7.702 -0.1070  0.2420  0.3300
38339SOL     OW26741   9.822  13.093   9.048 -0.6170 -0.1234  0.3840
38339SOL    HW126742   9.827  13.159   9.117  2.2200  1.2922 -1.0160
38339SOL    HW226743   9.906  13.047   9.052  0.1364  0.7286 -2.7273
38340SOL     OW26744  11.816   7.279   4.469  0.5072  0.1686  0.1293
38340SOL    HW126745  11.849   7.337   4.537  2.2156  0.2710 -0.7422
38340SOL    HW226746  11.769   7.210   4.517  1.0560  0.6231  1.3597
38341SOL     OW26747  12.310  11.145   5.848  0.7032 -0.3428  0.5302
38341SOL    HW126748  12.257  11.070   5.872 -0.9288  0.7917  0.5853
38341SOL    HW226749  12.302  11.151   5.753  0.4845  0.0231  0.5726
38342SOL     OW26750   9.985   3.415  10.385  0.0523 -0.0954  0.1424
38342SOL    HW126751   9.985   3.322  10.406  1.2579 -0.3218 -0.7670
38342SOL    HW226752   9.921   3.453  10.445 -0.8244 -1.5709  0.1815
38343SOL     OW26753   9.551   7.023   8.278  0.5181 -0.2779 -0.1668
38343SOL    HW126754   9.599   7.050   8.357  0.2758  1.4866 -0.6036
38343SOL    HW226755   9.510   7.103   8.246 -0.4702 -1.2341 -1.3602
38344SOL     OW26756   0.349   0.641  11.944  0.0950 -0.7365  0.0769
38344SOL    HW126757   0.299   0.688  11.877  2.5704 -0.3520 -1.6942
38344SOL    HW226758   0.360   0.704  12.015  0.6124  0.2676 -0.8545
38345SOL     OW26759   9.032   7.789   3.170 -0.0332  0.5124 -0.3981
38345SOL    HW126760   8.985   7.722   3.119 -0.6461  0.5538  0.0927
38345SOL    HW226761   9.123   7.778   3.145 -0.1721 -0.2675 -0.6044
38346SOL     OW26762   7.708   7.840   4.119  0.2168 -0.2802 -0.9834
38346SOL    HW126763   7.624   7.852   4.164  0.1870  2.5919 -1.5943
38346SOL    HW226764   7.711   7.746   4.100 -1.8675 -0.8354  0.8803
38347SOL     OW26765  13.213   1.629   8.453  0.1434  0.0133  0.3630
38347SOL    HW126766  13.260   1.585   8.524  0.1773 -0.4130  0.0797
38347SOL    HW226767  13.271   1.699   8.425  0.5477 -0.4192  0.1133
38348SOL     OW26768   0.357   9.602   4.655 -0.8259  0.2863 -0.0417
38348SOL    HW126769   0.372   9.532   4.592  2.8493  0.1090  0.8287
38348SOL    HW226770   0.295   9.564   4.718 -0.4434 -1.4833 -0.6603
38349SOL     OW26771   0.988   2.663   3.625 -0.3679  0.1970 -0.2062
38349SOL    HW126772   0.933   2.740   3.642  1.9169  1.7146  0.7324
38349SOL    HW226773   1.036   2.684   3.546  1.8850  0.7868  1.2192
38350SOL     OW26774  11.088   9.866   9.511  0.6372 -0.2033 -0.1162
38350SOL    HW126775  11.136   9.897   9.588 -0.6896  0.9641  0.2972
38350SOL    HW226776  11.140   9.896   9.437  0.9414  0.3687  0.3147
38351SOL     OW26777   7.555   2.216   8.814 -0.2339 -0.0623 -0.1922
38351SOL    HW126778   7.593   2.289   8.764  0.6433  0.1271  0.7031
38351SOL    HW226779   7.474   2.252   8.850 -2.1385 -0.9147 -3.3134
38352SOL     OW26780  11.263   5.211   5.180  0.0890 -0.0056 -0.0808
38352SOL    HW126781  11.296   5.160   5.106  1.4074  0.6814 -0.0060
38352SOL    HW226782  11.309   5.295   5.174  0.5607 -0.0874  1.7380
38353SOL     OW26783   2.103   3.487   1.829  0.0740  0.7849 -0.7887
38353SOL    HW126784   2.093   3.582   1.825 -0.7670  1.1043  3.6338
38353SOL    HW226785   2.015   3.454   1.842  0.6363 -0.2205  0.7934
38354SOL     OW26786  13.365  12.555   8.057 -0.0258  0.0654 -0.0405
38354SOL    HW126787  13.399  12.642   8.037  2.8805 -0.9748 -0.1294
38354SOL    HW226788  13.434  12.495   8.029  0.5309 -2.0126  4.8038
38355SOL     OW26789   6.567  11.963   4.565  0.3872 -0.1593  0.2825
38355SOL    HW126790   6.479  11.928   4.552 -0.9879  2.7998  0.8259
38355SOL    HW226791   6.616  11.932   4.489 -1.9914  0.5869 -1.7155
38356SOL     OW26792   5.393   0.207   4.070  0.3269  0.3827  0.6406
38356SOL    HW126793   5.405   0.112   4.083 -0.5506  0.5168  2.7979
38356SOL    HW226794   5.441   0.247   4.142 -0.0825  1.5578  0.2842
38357SOL     OW26795   0.486   2.701   6.302 -0.3523 -1.2612 -0.1845
38357SOL    HW126796   0.536   2.721   6.381 -1.4138  2.4652 -0.2477
38357SOL    HW226797   0.551   2.696   6.232  0.2446  2.4252 -0.0882
38358SOL     OW26798   2.687   3.755  12.056  0.0017 -0.1562  0.5383
38358SOL    HW126799   2.754   3.692  12.082 -1.1063 -1.6402 -0.0909
38358SOL    HW226800   2.629   3.707  11.998 -1.6486  1.0598  1.0842
38359SOL     OW26801   9.434   7.873   6.535  0.6560  0.3152 -0.4773
38359SOL    HW126802   9.340   7.864   6.520  0.5299 -0.0590  0.4773
38359SOL    HW226803   9.474   7.812   6.473  0.1943 -0.6449  0.1579
38360SOL     OW26804   1.443  11.982   5.776 -0.0187 -0.3999 -0.1543
38360SOL    HW126805   1.511  11.919   5.798  0.5287 -0.0830 -0.8990
38360SOL    HW226806   1.413  11.954   5.689 -0.4736 -0.2216 -0.0573
38361SOL     OW26807   3.965  10.350   5.215  0.5958 -0.0950  0.0425
38361SOL    HW126808   4.017  10.430   5.221  0.8878 -0.2580 -0.3061
38361SOL    HW226809   3.970  10.312   5.303  0.3601  0.3248  0.2422
38362SOL     OW26810   8.823   7.988   4.629 -0.0365 -0.0907  0.1480
38362SOL    HW126811   8.879   8.032   4.564  0.8540 -0.5726  0.5727
38362SOL    HW226812   8.789   7.912   4.582 -0.6057  0.3746 -0.2106
38363SOL     OW26813  10.078  11.673   8.945  0.4475 -0.3103  0.0725
38363SOL    HW126814  10.089  11.608   8.875  1.1016  0.0444 -0.1672
38363SOL    HW226815  10.166  11.685   8.979  0.0927 -0.6612  1.1406
38364SOL     OW26816   0.572   6.676   5.952 -0.3036  0.6241  0.0371
38364SOL    HW126817   0.553   6.596   6.002 -0.1582  0.1695 -0.6257
38364SOL    HW226818   0.569   6.649   5.860  2.5707  0.7415 -0.1677
38365SOL     OW26819   6.738   2.041   0.876 -0.2075  0.1572  0.2430
38365SOL    HW126820   6.734   2.064   0.969 -2.6060 -1.7518  0.7183
38365SOL    HW226821   6.674   2.098   0.834 -0.1193  0.0785 -0.0038
38366SOL     OW26822   2.675   3.230   6.424  0.4791 -0.7197  0.1969
38366SOL    HW126823   2.649   3.140   6.404  0.0217 -0.4371 -0.4974
38366SOL    HW226824   2.632   3.283   6.357  1.1971 -0.0350  0.2702
38367SOL     OW26825   1.532   2.260  10.742 -0.4994  0.3858  0.7819
38367SOL    HW126826   1.556   2.172  10.713 -0.3886  0.7001 -0.1165
38367SOL    HW226827   1.585   2.275  10.820  1.1687  0.4864 -0.3075
38368SOL     OW26828  12.964  11.719   0.798 -0.7806 -0.6308 -0.0128
38368SOL    HW126829  12.913  11.795   0.769 -1.9001 -1.8524 -1.3877
38368SOL    HW226830  13.051  11.733   0.763 -0.9125  0.1349 -0.0410
38369SOL     OW26831   6.296   9.831   6.025  0.5070  0.1634  0.2884
38369SOL    HW126832   6.316   9.766   5.958 -0.1289 -0.0119  0.2638
38369SOL    HW226833   6.360   9.901   6.010  0.2058  0.2541 -0.6845
38370SOL     OW26834  10.314  13.224  12.543 -0.3332  0.4457 -0.0800
38370SOL    HW126835  10.237  13.275  12.568 -0.5084  0.2495 -0.2179
38370SOL    HW226836  10.384  13.289  12.535 -0.1406  0.4536  1.4158
38371SOL     OW26837   4.215   1.817   3.581 -0.2110 -0.9852 -0.0180
38371SOL    HW126838   4.252   1.902   3.558  3.5430 -2.4096  0.1094
38371SOL    HW226839   4.159   1.835   3.656  0.4630  1.3643  0.0131
38372SOL     OW26840   2.686   1.120   6.899  0.3764 -0.1839  0.1291
38372SOL    HW126841   2.775   1.152   6.911  0.5262 -0.5110 -0.1117
38372SOL    HW226842   2.635   1.198   6.878  0.0722  0.4946  2.9203
38373SOL     OW26843  11.958   3.642   4.897 -0.6309 -0.3770 -0.7750
38373SOL    HW126844  11.906   3.718   4.922 -1.5708 -1.5191  0.9770
38373SOL    HW226845  12.031   3.641   4.959 -0.4430 -0.7264 -0.9943
38374SOL     OW26846  10.087   7.407  12.389 -0.2544  0.2935 -0.1029
38374SOL    HW126847  10.101   7.475  12.455  0.5241 -0.2179  0.2731
38374SOL    HW226848  10.008   7.361  12.418  1.1689 -1.2241  1.6395
38375SOL     OW26849   9.441  12.699   9.013  0.1954 -0.2575  0.1200
38375SOL    HW126850   9.531  12.716   9.041  0.3164 -1.0835  0.2621
38375SOL    HW226851   9.388  12.716   9.091  0.0600  1.5271 -0.3132
38376SOL     OW26852   2.499   6.630   1.393  0.0491  0.1086 -0.0830
38376SOL    HW126853   2.552   6.591   1.324  0.2249 -0.3976  0.3263
38376SOL    HW226854   2.560   6.646   1.465  0.0219  1.3613 -0.3173
38377SOL     OW26855   3.668   1.931  10.629 -0.4117  0.0779 -0.1711
38377SOL    HW126856   3.683   1.882  10.548  0.5046  1.3700 -0.8061
38377SOL    HW226857   3.591   1.889  10.668 -0.9682 -0.4694 -1.7756
38378SOL     OW26858   2.549  11.678  10.204  0.0224 -0.1484 -0.4078
38378SOL    HW126859   2.622  11.710  10.151  0.6874  0.8847  1.0491
38378SOL    HW226860   2.484  11.648  10.140  0.9339  0.6820 -1.7826
38379SOL     OW26861   4.763  11.940   4.012 -0.3205  0.2055  0.2296
38379SOL    HW126862   4.697  11.879   3.980  0.1823 -0.4858  0.4793
38379SOL    HW226863   4.786  11.908   4.099 -1.2149  1.7008  1.0609
38380SOL     OW26864  12.979   6.825   7.576  0.1723  0.0436  0.4072
38380SOL    HW126865  12.927   6.797   7.651 -0.5089 -1.4082 -0.5533
38380SOL    HW226866  12.917   6.825   7.503  1.1787 -0.2424 -0.4758
38381SOL     OW26867   9.727  11.500   8.098 -0.4042  0.4714  0.0489
38381SOL    HW126868   9.705  11.541   8.014 -0.6436 -0.6598 -0.4654
38381SOL    HW226869   9.807  11.545   8.126  0.1653  0.3018 -1.2203
38382SOL     OW26870   5.718  13.709   8.009 -0.2250  0.2553  0.1709
38382SOL    HW126871   5.777  13.697   8.083 -0.6470  0.3296  0.5273
38382SOL    HW226872   5.758  13.660   7.937  0.3491  0.4489  0.3614
38383SOL     OW26873   4.032   0.045  10.405  0.2377 -0.2257 -0.1332
38383SOL    HW126874   3.947   0.044  10.361  0.3396 -2.1280 -0.3643
38383SOL    HW226875   4.090   0.090  10.343 -0.8569  2.4592  0.6661
38384SOL     OW26876  13.489   2.193   0.970  0.2329 -0.5865 -0.4261
38384SOL    HW126877  13.451   2.262   0.915 -1.0332 -1.3283 -0.5357
38384SOL    HW226878  13.417   2.167   1.028  1.3060 -0.3699  1.0618
38385SOL     OW26879   8.487   6.698   6.049  0.5574 -0.0989 -0.3137
38385SOL    HW126880   8.528   6.782   6.028 -0.5455  0.8024  0.9506
38385SOL    HW226881   8.550   6.632   6.020  1.9620  1.1795 -0.2911
38386SOL     OW26882   5.318   0.738  13.509  0.2045 -0.1581  0.3844
38386SOL    HW126883   5.409   0.710  13.516 -0.1849 -1.3524  1.0471
38386SOL    HW226884   5.319   0.830  13.535  1.4003  0.2359 -0.9352
38387SOL     OW26885  12.508   3.141   9.362  0.2085 -0.3466 -0.4013
38387SOL    HW126886  12.545   3.178   9.441 -0.5541 -2.0344  0.8145
38387SOL    HW226887  12.521   3.046   9.371 -1.1065 -0.6888 -1.6335
38388SOL     OW26888   8.116   3.878  12.823  0.2773 -0.1826  0.2189
38388SOL    HW126889   8.049   3.945  12.837  0.7939  0.1507  1.1711
38388SOL    HW226890   8.115   3.825  12.903  1.7206  0.3460  0.6210
38389SOL     OW26891  12.077   7.283  13.518  0.3765 -0.2408  0.1383
38389SOL    HW126892  12.132   7.343  13.468  0.8680  0.4551  1.4456
38389SOL    HW226893  12.006   7.338  13.552 -1.4199 -1.2003 -1.8552
38390SOL     OW26894  13.312   6.880  12.913  0.2961  0.2647  0.4149
38390SOL    HW126895  13.340   6.972  12.920 -0.5628  0.5513  0.1139
38390SOL    HW226896  13.257   6.878  12.836  1.4399 -0.8070 -0.4075
38391SOL     OW26897  13.451   0.625   0.505  0.4927  0.0070 -0.1502
38391SOL    HW126898  13.401   0.588   0.577 -1.6674  0.8848 -1.0695
38391SOL    HW226899  13.491   0.704   0.541 -0.6690  0.5040  0.0985
38392SOL     OW26900   7.464   4.849   1.614 -0.1051 -0.0407 -0.1729
38392SOL    HW126901   7.488   4.800   1.535  0.7287  1.1106 -0.6480
38392SOL    HW226902   7.497   4.795   1.686 -0.2682 -0.7631 -0.6260
38393SOL     OW26903  13.237   0.880   8.753 -0.2674  0.2951  0.5493
38393SOL    HW126904  13.205   0.905   8.666  0.6806 -0.9521 -0.1891
38393SOL    HW226905  13.261   0.788   8.744 -1.5959 -0.3152  2.5662
38394SOL     OW26906   8.930   2.774   3.122 -0.0240 -0.0425  0.9576
38394SOL    HW126907   8.846   2.738   3.091  0.1744 -0.1361  0.5223
38394SOL    HW226908   8.928   2.760   3.216 -1.2862  1.5928  1.2259
38395SOL     OW26909   8.859   3.187   6.423  0.3402 -0.1723  0.8128
38395SOL    HW126910   8.887   3.166   6.512 -0.1765  0.2349  1.0775
38395SOL    HW226911   8.800   3.261   6.434 -0.4037 -0.6695  0.2165
38396SOL     OW26912   3.667   4.626   1.071 -0.6757  0.1547  0.4510
38396SOL    HW126913   3.597   4.622   1.007 -0.0850  2.8144 -0.5170
38396SOL    HW226914   3.627   4.668   1.148 -0.2738  1.3984  0.0066
38397SOL     OW26915   3.947   3.757  10.374  0.4294  0.3631 -0.1279
38397SOL    HW126916   3.960   3.783  10.465  1.5476 -1.5705  0.3039
38397SOL    HW226917   3.854   3.775  10.357  0.5125  1.9821  0.9487
38398SOL     OW26918   1.845   7.870   7.724 -0.4491 -0.0729 -0.2997
38398SOL    HW126919   1.783   7.837   7.789  2.2344 -1.5889  1.7144
38398SOL    HW226920   1.826   7.819   7.645 -1.1257 -1.2332  0.5764
38399SOL     OW26921   2.306   9.227   5.448 -0.2988 -0.0139  0.5320
38399SOL    HW126922   2.249   9.302   5.465 -1.3199 -0.9431  1.3519
38399SOL    HW226923   2.253   9.166   5.397  0.2602 -0.5022  0.5135
38400SOL     OW26924  11.044   0.657   7.097  0.1386 -0.7176 -0.2828
38400SOL    HW126925  11.073   0.598   7.167 -2.6172  0.4179  2.0210
38400SOL    HW226926  10.970   0.612   7.057  0.3239 -0.3908 -1.0122
38401SOL     OW26927  12.902   0.841  13.217  0.0577 -0.1448 -0.3056
38401SOL    HW126928  12.830   0.862  13.157  0.4348  1.4819 -0.2255
38401SOL    HW226929  12.903   0.746  13.220 -1.8134 -0.2202 -0.6548
38402SOL     OW26930  11.330   4.895   7.162 -0.4007 -0.4802  0.0093
38402SOL    HW126931  11.358   4.804   7.152  0.5249 -0.0309 -1.7484
38402SOL    HW226932  11.246   4.888   7.208  0.6511 -2.0702  1.8392
38403SOL     OW26933  12.490  12.728   5.038 -0.6464  0.5143 -0.3099
38403SOL    HW126934  12.404  12.686   5.044 -2.3686  3.7859  0.8650
38403SOL    HW226935  12.497  12.754   4.946  0.4096 -2.0142 -1.0343
38404SOL     OW26936   8.952   6.304   0.117  0.5649  0.1404 -0.0474
38404SOL    HW126937   8.977   6.361   0.045 -0.0194  1.3653  0.6769
38404SOL    HW226938   8.928   6.222   0.076 -1.0569  1.2277 -1.4030
38405SOL     OW26939  12.746   4.818   3.817  0.0190  0.0042 -0.2369
38405SOL    HW126940  12.820   4.819   3.756  1.0300 -2.3454  0.8224
38405SOL    HW226941  12.728   4.726   3.831 -0.7674  0.4682  2.2925
38406SOL     OW26942   3.991   6.623   1.195 -0.5623  0.1897 -0.1856
38406SOL    HW126943   3.980   6.696   1.256 -0.9637  0.1280 -0.1798
38406SOL    HW226944   4.083   6.600   1.202 -0.5189  0.4417  0.1049
38407SOL     OW26945   7.787  11.035  12.834  0.3590  0.0464 -0.5761
38407SOL    HW126946   7.756  11.110  12.783 -1.4320 -0.1136  0.2433
38407SOL    HW226947   7.746  10.959  12.793 -1.8430 -0.0159  1.5569
38408SOL     OW26948   3.705   0.138   2.037  0.4450  0.1866  0.0186
38408SOL    HW126949   3.732   0.213   2.090  2.5205 -0.2067 -0.3825
38408SOL    HW226950   3.611   0.130   2.052  0.8130  0.4569  3.1634
38409SOL     OW26951   9.381  10.375  13.199 -0.0249 -0.3176 -0.1410
38409SOL    HW126952   9.370  10.304  13.262 -0.6767 -2.5764 -2.5879
38409SOL    HW226953   9.455  10.348  13.145  0.9978  1.9108  0.0330
38410SOL     OW26954   3.561   1.481   1.609  0.9602 -0.0702  0.3040
38410SOL    HW126955   3.517   1.474   1.694  1.1498 -1.0020  0.3358
38410SOL    HW226956   3.535   1.402   1.562  1.6838 -0.0698 -0.1155
38411SOL     OW26957   7.290   6.912   7.448  0.3371  0.0397  0.2330
38411SOL    HW126958   7.293   6.995   7.401  1.7660  0.7507  1.4826
38411SOL    HW226959   7.218   6.923   7.511  0.2204  0.1441  0.0825
38412SOL     OW26960  11.355   4.543   6.113 -0.0444 -0.2456 -0.1998
38412SOL    HW126961  11.306   4.500   6.043  0.7359  0.3207 -1.1200
38412SOL    HW226962  11.447   4.519   6.097  0.6616  2.9045 -1.7094
38413SOL     OW26963   1.243   4.292  10.458  0.2179  0.3705 -0.1119
38413SOL    HW126964   1.153   4.263  10.467  0.3904 -0.8830 -1.8626
38413SOL    HW226965   1.288   4.256  10.535 -0.8549  1.6047  1.1465
38414SOL     OW26966   4.967  11.234   3.923 -0.3422  0.1210  0.0349
38414SOL    HW126967   5.053  11.272   3.940  0.0574 -0.8631  0.3174
38414SOL    HW226968   4.948  11.257   3.832  0.8790 -0.8255 -0.4959
38415SOL     OW26969   4.343  10.163   2.610  0.0345 -0.0359  0.0750
38415SOL    HW126970   4.402  10.104   2.658  0.7443  0.7427  0.1831
38415SOL    HW226971   4.260  10.115   2.605  0.9895 -1.6953 -1.1433
38416SOL     OW26972   5.909   2.327   1.918 -0.3309  0.7472 -0.5343
38416SOL    HW126973   5.863   2.370   1.846 -0.0423 -0.4480 -1.4470
38416SOL    HW226974   5.839   2.296   1.976 -0.6128  0.4416 -1.0393
38417SOL     OW26975  12.192  11.976   9.630 -0.2949  0.9583 -0.1174
38417SOL    HW126976  12.263  12.015   9.682 -0.0174  0.9463 -0.4849
38417SOL    HW226977  12.148  11.917   9.691  1.4094 -0.7810 -0.4610
38418SOL     OW26978   9.584   1.366   5.510  0.1036 -0.3326  0.6733
38418SOL    HW126979   9.501   1.340   5.470 -1.6509  3.9334  0.9948
38418SOL    HW226980   9.647   1.365   5.438 -1.5634  1.3520 -0.9120
38419SOL     OW26981  13.102   6.853   8.384  0.0390  0.1566 -0.4659
38419SOL    HW126982  13.123   6.947   8.389  0.7783  0.1219 -2.2372
38419SOL    HW226983  13.128   6.828   8.296 -0.7601 -1.5920 -0.2316
38420SOL     OW26984   2.256   8.942  13.372 -0.3417  0.2168  0.3447
38420SOL    HW126985   2.188   8.971  13.312  0.0826  1.3094  0.3738
38420SOL    HW226986   2.249   9.001  13.447  1.2836  1.0368 -0.0986
38421SOL     OW26987   0.908   1.868   4.354  0.2708 -0.3387  0.0834
38421SOL    HW126988   0.828   1.919   4.343  0.5316  0.0825  0.1048
38421SOL    HW226989   0.881   1.791   4.404 -0.1797 -0.3581 -0.1809
38422SOL     OW26990   1.111   0.746  13.237 -0.1638 -0.0667  0.4073
38422SOL    HW126991   1.051   0.816  13.214 -0.5836 -0.5332  0.0512
38422SOL    HW226992   1.195   0.773  13.202 -0.2393  0.4219  0.5896
38423SOL     OW26993   2.536   2.161  12.037 -0.4476 -0.0354  0.0668
38423SOL    HW126994   2.628   2.149  12.015 -0.9295 -1.9611 -1.1807
38423SOL    HW226995   2.536   2.187  12.129  1.3477  0.4960 -0.0591
38424SOL     OW26996   4.496   3.810  11.479  0.1848  0.3100  0.2936
38424SOL    HW126997   4.509   3.794  11.573 -0.4238  1.6190  0.6354
38424SOL    HW226998   4.482   3.905  11.473 -1.2025  0.0663 -0.9409
38425SOL     OW26999   7.215   9.113   2.285  0.0334 -0.2285  0.3635
38425SOL    HW127000   7.153   9.139   2.353 -0.3993 -2.0360  0.7354
38425SOL    HW227001   7.262   9.193   2.262 -0.7314  0.6856  1.8489
38426SOL     OW27002   7.668  13.511  10.504 -0.6032  0.1563  0.4718
38426SOL    HW127003   7.702  13.571  10.438 -0.6403 -0.2060  0.1157
38426SOL    HW227004   7.601  13.461  10.458 -0.3840 -0.3424  0.6887
38427SOL     OW27005  10.291   8.451   0.655  0.3679 -0.8217 -0.4969
38427SOL    HW127006  10.347   8.437   0.579  3.1357  0.9167  1.0644
38427SOL    HW227007  10.285   8.546   0.664 -3.0235 -0.8826 -0.5943
38428SOL     OW27008   6.512   9.178  11.828  0.0816 -0.1594 -0.2181
38428SOL    HW127009   6.418   9.177  11.807 -0.8275  1.4812  3.1288
38428SOL    HW227010   6.535   9.271  11.831  1.6392 -0.5249 -0.2524
38429SOL     OW27011   2.890   5.865  11.443  0.6654 -0.0628 -0.5119
38429SOL    HW127012   2.880   5.798  11.375  1.5172 -1.2115  0.4403
38429SOL    HW227013   2.811   5.857  11.496  0.9100 -0.5281 -0.2183
38430SOL     OW27014  13.235  12.285   7.717 -0.4941  0.2058 -0.4413
38430SOL    HW127015  13.184  12.219   7.669 -1.6272  0.3820  0.4732
38430SOL    HW227016  13.290  12.235   7.777  1.0223 -0.0235 -1.9452
38431SOL     OW27017   9.876  13.558  12.065 -0.0254  0.1784 -0.3234
38431SOL    HW127018   9.954  13.527  12.112 -0.1145 -0.8162 -0.7940
38431SOL    HW227019   9.810  13.491  12.083  0.5165 -1.4280 -3.4963
38432SOL     OW27020   2.160   1.471   2.057  0.1198 -0.3565  0.2249
38432SOL    HW127021   2.255   1.462   2.058  0.1187 -0.5421 -0.6809
38432SOL    HW227022   2.127   1.381   2.061 -0.0011 -0.3396 -0.3343
38433SOL     OW27023   6.930   5.434   6.898 -0.6350 -0.1834 -0.1933
38433SOL    HW127024   6.922   5.518   6.944  0.4468  1.6863 -3.1051
38433SOL    HW227025   6.842   5.416   6.866 -0.5355  0.9058 -1.1526
38434SOL     OW27026   1.604   2.466   7.062 -0.5632  0.1397 -0.1977
38434SOL    HW127027   1.618   2.510   6.978 -1.1628  1.4705  0.3772
38434SOL    HW227028   1.511   2.444   7.062 -0.0683 -2.2234 -0.9557
38435SOL     OW27029   1.338   1.441   1.884 -0.3313  0.8146 -0.1494
38435SOL    HW127030   1.270   1.377   1.908  0.4278  0.5501  1.4767
38435SOL    HW227031   1.308   1.523   1.925 -0.9339  1.3505 -1.6126
38436SOL     OW27032   6.041  12.160  10.307 -0.8010  0.0691 -0.7189
38436SOL    HW127033   6.105  12.101  10.346 -2.1061  0.2007  1.8220
38436SOL    HW227034   6.019  12.119  10.223  1.4441 -0.7391 -0.9836
38437SOL     OW27035   5.200  13.253   7.315 -0.3626 -0.2033  0.0665
38437SOL    HW127036   5.112  13.289   7.308  0.5861  2.0715 -1.2037
38437SOL    HW227037   5.190  13.160   7.294 -2.1667  0.4551 -2.5087
38438SOL     OW27038   3.911  10.275   9.249  0.2687  0.4883  0.2394
38438SOL    HW127039   3.831  10.247   9.294  0.2845  1.2126  0.7292
38438SOL    HW227040   3.937  10.198   9.197  0.4195 -0.4742  1.6730
38439SOL     OW27041   7.824  12.704  10.887  0.0954 -0.3078  0.2282
38439SOL    HW127042   7.733  12.711  10.858  0.0204  0.4011  0.6101
38439SOL    HW227043   7.843  12.788  10.929  0.1873 -1.2689  2.2289
38440SOL     OW27044   8.362  11.538   9.958  0.2416  0.7823 -0.2794
38440SOL    HW127045   8.325  11.522  10.045 -1.5805  1.3495 -0.9074
38440SOL    HW227046   8.421  11.612   9.970 -0.1099  0.9552  0.4465
38441SOL     OW27047  13.312  12.981   7.885  0.1623 -0.0070  0.0678
38441SOL    HW127048  13.367  12.948   7.813  0.0059  1.3173 -0.6851
38441SOL    HW227049  13.226  12.943   7.868 -0.0219  0.7743 -0.7982
38442SOL     OW27050   7.809   2.087   2.094 -0.7153 -0.3730  0.4390
38442SOL    HW127051   7.750   2.101   2.020 -0.4922 -2.2299 -0.1447
38442SOL    HW227052   7.779   2.149   2.161 -0.9044  1.3668 -1.1892
38443SOL     OW27053  11.509  12.180   4.885  0.0476  0.0962  0.0871
38443SOL    HW127054  11.488  12.089   4.868  1.2370 -0.4381  1.2144
38443SOL    HW227055  11.596  12.192   4.846 -0.6250  1.1316 -1.1561
38444SOL     OW27056  10.142   4.374   4.993  0.0928 -0.0946  0.0607
38444SOL    HW127057  10.167   4.445   4.935  0.2504 -0.2530 -0.0646
38444SOL    HW227058  10.223   4.327   5.010 -0.2320 -1.0548 -0.9390
38445SOL     OW27059   3.461   8.582  13.001  0.1881 -0.3315 -0.0566
38445SOL    HW127060   3.406   8.506  12.982 -0.2317  0.0039 -0.2238
38445SOL    HW227061   3.500   8.605  12.916 -1.4783  1.0070 -0.5329
38446SOL     OW27062   5.294   0.993   3.467 -0.3496  0.3471 -0.0350
38446SOL    HW127063   5.208   0.952   3.455 -0.1771  0.4748 -2.1001
38446SOL    HW227064   5.356   0.929   3.433  0.3460  0.4356  1.0492
38447SOL     OW27065   0.384   5.321  12.427 -0.1013 -0.3124 -0.0479
38447SOL    HW127066   0.466   5.337  12.380  0.4358 -0.1136  0.9165
38447SOL    HW227067   0.397   5.236  12.469 -1.1667 -1.2011 -1.4583
38448SOL     OW27068  11.782  12.578  11.938 -0.0371 -0.2826  0.4824
38448SOL    HW127069  11.702  12.594  11.988  0.0275  3.5761 -0.3202
38448SOL    HW227070  11.756  12.590  11.847  0.8160 -2.4941 -0.1197
38449SOL     OW27071   9.813  13.078   6.912 -0.1938  0.0591 -0.0364
38449SOL    HW127072   9.759  13.029   6.974 -1.7089  1.7072  0.0139
38449SOL    HW227073   9.752  13.136   6.866  1.3053  0.8964 -1.0807
38450SOL     OW27074   3.069   6.981  12.613  0.1400 -0.0144  0.3836
38450SOL    HW127075   2.988   7.021  12.645  0.0255 -0.2329  0.3671
38450SOL    HW227076   3.055   6.969  12.519 -0.0375 -0.5967  0.4826
38451SOL     OW27077   1.442  12.772  12.308  0.3499  0.2861  0.1425
38451SOL    HW127078   1.349  12.769  12.288  0.6611 -0.7339 -1.3536
38451SOL    HW227079   1.458  12.695  12.363  0.5166 -0.2817 -0.6841
38452SOL     OW27080   5.010  11.664  13.094  0.2587 -0.3274  0.0169
38452SOL    HW127081   4.981  11.734  13.036 -2.0674 -0.0304  1.4142
38452SOL    HW227082   5.047  11.598  13.036  0.2874  0.9956 -1.5428
38453SOL     OW27083   1.393   8.755  13.639  0.4304  0.2034 -0.3373
38453SOL    HW127084   1.317   8.703  13.616  1.1690  0.4584 -3.8653
38453SOL    HW227085   1.359   8.820  13.701 -2.2142  0.2507 -1.6989
38454SOL     OW27086   6.950   5.320   8.665 -0.3647 -0.3877 -0.3475
38454SOL    HW127087   6.883   5.297   8.601  0.2595 -1.5185 -0.6340
38454SOL    HW227088   7.001   5.239   8.675  0.1040  0.0469  0.8919
38455SOL     OW27089  11.181   8.194   6.835 -0.3903  0.0334 -0.2856
38455SOL    HW127090  11.201   8.286   6.855 -0.9298  0.2010 -0.4762
38455SOL    HW227091  11.224   8.144   6.904  0.0117  0.4241 -0.2489
38456SOL     OW27092   8.070   4.393   9.700 -0.4574  0.0592  0.0477
38456SOL    HW127093   8.017   4.315   9.682 -1.1496  0.5251 -0.0025
38456SOL    HW227094   8.055   4.411   9.793 -0.2704  0.1054  0.0679
38457SOL     OW27095   1.172  11.033   5.386  0.2732  0.1470 -0.4216
38457SOL    HW127096   1.199  11.080   5.464 -2.6443 -2.2991  2.3495
38457SOL    HW227097   1.087  11.071   5.363  1.5918  1.6678 -3.3572
38458SOL     OW27098   1.912   7.614   5.425 -0.1510  0.0907  0.1367
38458SOL    HW127099   1.863   7.557   5.484  0.5198 -0.3086  0.3273
38458SOL    HW227100   1.854   7.688   5.409 -1.4389 -1.0604 -0.8453
38459SOL     OW27101  11.684  13.626   3.480  0.4749 -0.1383  0.4295
38459SOL    HW127102  11.604  13.624   3.428  1.4308  1.7577 -1.2307
38459SOL    HW227103  11.659  13.671   3.561 -0.1216  0.5022 -0.1007
38460SOL     OW27104  10.909   9.601   2.461  0.7583  0.5033 -0.2952
38460SOL    HW127105  10.968   9.673   2.438  0.2528  0.5610 -1.4567
38460SOL    HW227106  10.853   9.590   2.385  2.2604 -2.5980 -1.1034
38461SOL     OW27107   7.705   5.361   0.250 -0.3579  0.1745 -0.3550
38461SOL    HW127108   7.761   5.387   0.177  2.5131 -0.1347  1.5853
38461SOL    HW227109   7.729   5.270   0.267 -2.5112 -0.4411 -0.2859
38462SOL     OW27110   7.336  11.563   9.329  0.3156 -0.6024 -0.0249
38462SOL    HW127111   7.242  11.548   9.343  0.4755  0.0135  2.0773
38462SOL    HW227112   7.378  11.484   9.361  0.5343 -1.0059 -1.2501
38463SOL     OW27113  11.291  10.916   1.188 -0.0737  0.1920  0.0557
38463SOL    HW127114  11.233  10.986   1.158  1.1601  1.3336  0.2624
38463SOL    HW227115  11.288  10.923   1.284  1.0240  0.8069  0.0584
38464SOL     OW27116   2.699   0.913   5.866  0.1611  0.5222  0.1804
38464SOL    HW127117   2.636   0.940   5.799  0.9285  0.9484 -0.3792
38464SOL    HW227118   2.687   0.975   5.937  0.6771  1.2607 -0.3656
38465SOL     OW27119  10.762   4.103  10.615 -0.7213 -0.2402 -0.2271
38465SOL    HW127120  10.748   4.032  10.678  0.6541 -0.9806 -0.7156
38465SOL    HW227121  10.856   4.102  10.598 -1.1829 -0.9829 -3.3142
38466SOL     OW27122  10.846  10.125  10.016 -0.1403  0.1258 -0.4480
38466SOL    HW127123  10.865  10.206   9.968 -1.0087 -0.5949 -2.0983
38466SOL    HW227124  10.799  10.070   9.953 -0.0623 -1.4584  0.7994
38467SOL     OW27125   4.922   8.853   1.778 -0.1292 -0.0040  0.2435
38467SOL    HW127126   4.926   8.949   1.767 -0.7069  0.0605  0.5811
38467SOL    HW227127   5.007   8.830   1.815  0.8333  0.1080 -1.7580
38468SOL     OW27128   2.409   7.099  11.315  0.5777  0.4095  0.3115
38468SOL    HW127129   2.328   7.146  11.295 -0.5294 -1.1226  1.0394
38468SOL    HW227130   2.422   7.040  11.241  0.0499 -0.5791  0.9793
38469SOL     OW27131   5.883   6.297   5.925  0.0170  0.3706  0.0262
38469SOL    HW127132   5.941   6.228   5.893  1.8701  0.8878  2.0003
38469SOL    HW227133   5.802   6.251   5.950  1.0602 -1.0590  0.9488
38470SOL     OW27134  11.936   7.173  12.824  0.0424  0.3173  0.3411
38470SOL    HW127135  11.984   7.134  12.896 -0.0107  0.2664  0.3491
38470SOL    HW227136  11.926   7.102  12.760 -0.8175  0.0619  0.7347
38471SOL     OW27137   7.505   6.436   6.556  0.7460 -0.2645  0.0215
38471SOL    HW127138   7.574   6.491   6.519 -0.2770  0.0894 -1.4714
38471SOL    HW227139   7.439   6.499   6.587  0.7503 -0.6094  0.7386
38472SOL     OW27140   5.776  10.006   9.839 -0.3957  0.3859  0.5575
38472SOL    HW127141   5.791   9.994   9.933 -0.2003 -0.4295  0.4316
38472SOL    HW227142   5.857  10.044   9.806 -0.6547  1.1649  0.8008
38473SOL     OW27143   1.733   1.182   7.867 -0.5311  0.0573 -0.3365
38473SOL    HW127144   1.652   1.168   7.818 -2.1555 -0.1949  2.1934
38473SOL    HW227145   1.714   1.144   7.953  2.2520  0.1475  0.3875
38474SOL     OW27146   2.880   3.327  10.033 -0.0898  0.1336 -0.0611
38474SOL    HW127147   2.824   3.351   9.959 -0.5837 -3.2494 -0.9350
38474SOL    HW227148   2.820   3.314  10.106  0.0571  0.5394  0.1357
38475SOL     OW27149  11.449   7.081   4.211 -0.4053 -0.0002 -0.1838
38475SOL    HW127150  11.529   7.030   4.208 -1.3174 -1.5649  0.5709
38475SOL    HW227151  11.379   7.016   4.211 -1.7222  1.3348 -1.5569
38476SOL     OW27152   1.390  10.565  12.331  0.4620 -0.6249 -0.1583
38476SOL    HW127153   1.408  10.476  12.300 -1.3329 -0.7472 -0.9768
38476SOL    HW227154   1.397  10.560  12.426  2.7517 -1.0470 -0.2985
38477SOL     OW27155  11.453  13.614   3.299 -0.1161 -0.2178 -0.1015
38477SOL    HW127156  11.491  13.535   3.260  1.4200  0.5682 -0.2682
38477SOL    HW227157  11.367  13.586   3.330  0.1665 -1.8153 -0.6588
38478SOL     OW27158   6.485   6.764   1.161 -0.5355  0.0258 -0.2181
38478SOL    HW127159   6.476   6.727   1.249  0.3487  0.0583 -0.1002
38478SOL    HW227160   6.412   6.727   1.112 -0.0702 -1.3571  0.0817
38479SOL     OW27161   0.732   0.163   0.091 -0.3605 -0.4805  0.6277
38479SOL    HW127162   0.806   0.204   0.047 -0.3313 -1.0857  0.1031
38479SOL    HW227163   0.685   0.236   0.132 -0.1040  0.0340  0.0261
38480SOL     OW27164   0.697   3.996   6.055 -0.1556  0.2065  0.0058
38480SOL    HW127165   0.744   3.985   6.137  0.9176 -0.6413 -0.6961
38480SOL    HW227166   0.691   4.091   6.043 -1.1611  0.3571  1.4937
38481SOL     OW27167   4.731   1.420  10.885  0.1696 -0.2003 -0.0082
38481SOL    HW127168   4.804   1.481  10.878 -2.2816  3.0526  0.4099
38481SOL    HW227169   4.770   1.341  10.924  3.6967  0.6761 -1.3517
38482SOL     OW27170   4.859   1.993   1.883  0.4395 -0.2779 -0.3626
38482SOL    HW127171   4.942   2.038   1.868 -0.9794  2.1972 -1.1909
38482SOL    HW227172   4.863   1.917   1.824  2.2054 -0.4102 -0.1425
38483SOL     OW27173   9.263   2.657  12.519 -0.5334  0.6508 -0.2196
38483SOL    HW127174   9.300   2.653  12.431  0.2146  0.8330  0.0797
38483SOL    HW227175   9.219   2.743  12.522  1.1099  1.5177  0.2160
38484SOL     OW27176   2.725  10.190   9.305  0.0507  0.1685 -0.6103
38484SOL    HW127177   2.815  10.220   9.293  0.2284  0.9767  2.1042
38484SOL    HW227178   2.734  10.103   9.344 -0.3990 -0.3200 -1.5575
38485SOL     OW27179   7.945   0.342  10.515  0.2799 -0.6358 -0.2427
38485SOL    HW127180   8.011   0.333  10.583  0.0848  0.2406  0.0791
38485SOL    HW227181   7.947   0.259  10.468  2.1117 -0.3730 -0.7089
38486SOL     OW27182  13.499   8.091   0.556 -0.3123  0.0455  0.0557
38486SOL    HW127183  13.489   8.024   0.623  0.1123 -0.3726 -0.2918
38486SOL    HW227184  13.499   8.042   0.473  2.0658  0.2515 -0.1156
38487SOL     OW27185   8.992   4.483   2.140 -0.1085  0.3106  0.0288
38487SOL    HW127186   9.082   4.513   2.134 -0.4097  1.7919  1.8977
38487SOL    HW227187   8.943   4.541   2.082 -0.2029  1.3394  1.0908
38488SOL     OW27188  11.428   6.338  12.362 -0.0510 -0.8986 -0.1171
38488SOL    HW127189  11.380   6.257  12.351 -0.4170 -0.7019  0.0235
38488SOL    HW227190  11.456   6.361  12.273 -2.3649  0.2883 -0.6324
38489SOL     OW27191   6.037   0.846  11.197 -0.2551 -0.1216 -0.1690
38489SOL    HW127192   5.954   0.879  11.230 -0.4281  0.8503 -1.4787
38489SOL    HW227193   6.094   0.843  11.274 -0.9791  0.9291  0.4382
38490SOL     OW27194   6.829  12.369   4.279 -0.3145 -0.3217 -0.1317
38490SOL    HW127195   6.845  12.464   4.278  0.5262 -0.4010  1.7226
38490SOL    HW227196   6.862  12.340   4.364  1.1803 -2.6006 -1.3972
38491SOL     OW27197   5.285  12.640  11.355  0.2178  0.2101 -0.2591
38491SOL    HW127198   5.211  12.696  11.378 -0.3611 -0.3933 -0.6328
38491SOL    HW227199   5.250  12.579  11.290  0.7406 -0.8245  0.4012
38492SOL     OW27200   3.632  11.973  12.457  0.4819 -0.1964  0.2152
38492SOL    HW127201   3.711  12.026  12.468  0.2929  0.0119  0.5714
38492SOL    HW227202   3.563  12.036  12.436  0.3833 -0.3657  0.0228
38493SOL     OW27203   8.992   0.968   0.271 -0.3073 -0.0805  0.6737
38493SOL    HW127204   8.909   1.008   0.296 -0.7799  0.1953 -1.1891
38493SOL    HW227205   9.057   1.037   0.283 -0.6156  0.2294  0.5797
38494SOL     OW27206   7.810   7.653  12.054  0.0938  0.0044  0.1175
38494SOL    HW127207   7.753   7.624  12.125  0.0482  1.0127  0.4970
38494SOL    HW227208   7.806   7.581  11.991 -2.7177  0.5740 -0.5260
38495SOL     OW27209   9.580   7.185   7.384  0.1505  0.1012 -0.2099
38495SOL    HW127210   9.628   7.105   7.365 -1.0900 -0.9812  0.9587
38495SOL    HW227211   9.646   7.246   7.417  1.1042 -0.4462 -1.0743
38496SOL     OW27212   1.770   4.596   8.416 -0.4205 -0.3116  0.3781
38496SOL    HW127213   1.719   4.622   8.340 -0.2832 -0.8776  0.0908
38496SOL    HW227214   1.716   4.532   8.462  0.4217 -1.6962 -0.4801
38497SOL     OW27215   2.570   4.748   5.616  0.0123  0.1265 -0.0310
38497SOL    HW127216   2.601   4.726   5.703 -1.2471  1.2012  0.7199
38497SOL    HW227217   2.631   4.705   5.557 -0.2014 -2.2078  1.3525
38498SOL     OW27218  12.108   6.841   3.322  0.5683  0.0356 -0.0970
38498SOL    HW127219  12.185   6.828   3.266  1.1530  1.4071  0.3336
38498SOL    HW227220  12.070   6.754   3.332  1.7867 -0.5920 -0.7303
38499SOL     OW27221   2.180   7.888   3.043 -0.0222  0.1318 -0.5180
38499SOL    HW127222   2.086   7.910   3.042 -0.0892 -0.1517 -0.5412
38499SOL    HW227223   2.222   7.966   3.080 -0.2332  0.3825 -0.8063
38500SOL     OW27224  10.791   7.814   1.562 -0.2769 -0.4360 -0.3957
38500SOL    HW127225  10.854   7.755   1.521 -0.7358 -1.9126  0.9284
38500SOL    HW227226  10.843   7.887   1.594  0.6655 -1.2400 -0.0512
38501SOL     OW27227   8.550   7.994   0.311  0.1007 -0.2667  0.3969
38501SOL    HW127228   8.586   7.991   0.223 -0.4624 -0.6489  0.1734
38501SOL    HW227229   8.575   8.079   0.345 -0.7634  0.4138 -0.6038
38502SOL     OW27230   7.095   6.497   6.507  0.1102 -0.2572  0.5226
38502SOL    HW127231   7.167   6.533   6.456  1.1120 -0.7762  1.5338
38502SOL    HW227232   7.135   6.465   6.588 -1.0678 -1.5640  0.6516
38503SOL     OW27233   3.289   8.961   2.510 -0.3656 -0.3575  0.3496
38503SOL    HW127234   3.276   9.024   2.581 -1.2940  0.9481 -0.9177
38503SOL    HW227235   3.334   8.888   2.552  0.3652  0.9373  1.9815
38504SOL     OW27236  12.069   4.387   0.198 -0.5538  0.1130  0.0333
38504SOL    HW127237  12.094   4.406   0.107  2.1981  0.2315  0.7290
38504SOL    HW227238  12.119   4.449   0.250  0.4433 -1.9873  1.7748
38505SOL     OW27239  10.126   9.405   9.504 -0.4780  0.0412  0.0598
38505SOL    HW127240  10.124   9.309   9.494  1.3973  0.0490 -0.9194
38505SOL    HW227241  10.165   9.436   9.423  1.9000  1.3575  1.5856
38506SOL     OW27242   9.448   1.951   0.186  0.0957  0.4012  0.1678
38506SOL    HW127243   9.502   2.029   0.175 -1.2461  1.2945 -0.2953
38506SOL    HW227244   9.441   1.941   0.281 -0.9656  1.7538  0.2568
38507SOL     OW27245  11.856   8.875   8.675 -0.3239 -0.0757 -0.2114
38507SOL    HW127246  11.933   8.932   8.672  0.7095 -1.3879  0.5861
38507SOL    HW227247  11.877   8.803   8.616 -1.9746  0.7067 -1.8758
38508SOL     OW27248   1.740   1.398  11.049 -0.1370 -0.3138 -0.5460
38508SOL    HW127249   1.745   1.302  11.046 -0.3528 -0.3447  0.0119
38508SOL    HW227250   1.741   1.425  10.957 -3.8890 -1.0444 -0.9427
38509SOL     OW27251  13.701   2.351  12.731 -0.1058  0.6150 -0.7617
38509SOL    HW127252  13.751   2.324  12.653 -2.1005 -0.7564 -1.6410
38509SOL    HW227253  13.689   2.269  12.780 -2.3316  0.6720 -1.1204
38510SOL     OW27254   1.840  13.563   7.027 -0.1560  0.0457  0.0844
38510SOL    HW127255   1.825  13.521   7.111  1.0642  1.7586  1.2317
38510SOL    HW227256   1.755  13.600   7.002  0.1288  2.5841  2.4096
38511SOL     OW27257   8.147   6.089   3.297 -0.3286  0.2238 -0.5307
38511SOL    HW127258   8.138   6.175   3.339 -0.6400 -0.0410 -0.0376
38511SOL    HW227259   8.100   6.097   3.215 -0.6557  0.4224 -0.3261
38512SOL     OW27260   9.691   9.881   7.929  0.2636  0.0547 -0.6465
38512SOL    HW127261   9.748   9.947   7.890 -1.2318  1.5599 -0.3771
38512SOL    HW227262   9.634   9.852   7.858 -0.0291  0.1105 -0.4379
38513SOL     OW27263  11.589   6.254  11.338  0.2849  0.1037  0.3428
38513SOL    HW127264  11.672   6.287  11.304  1.6164 -1.6159  1.7615
38513SOL    HW227265  11.609   6.167  11.371 -2.0297 -0.2448  1.0138
38514SOL     OW27266   1.112  12.349   5.367 -0.0273  0.2216  0.0264
38514SOL    HW127267   1.192  12.339   5.419  0.2029 -0.0786 -0.3814
38514SOL    HW227268   1.043  12.366   5.431  0.0169 -1.4033  0.5505
38515SOL     OW27269   3.366   6.942   8.348 -0.8326  0.3847  0.2057
38515SOL    HW127270   3.429   6.885   8.393 -0.7124  0.9510  0.7654
38515SOL    HW227271   3.316   6.883   8.293 -2.2759 -0.6619  2.4874
38516SOL     OW27272   1.521   1.633   8.070 -0.2427  0.7923  0.0745
38516SOL    HW127273   1.608   1.593   8.077 -0.3833  0.6571  1.1961
38516SOL    HW227274   1.539   1.726   8.056  0.1239  1.1150  2.3572
38517SOL     OW27275   9.806   3.813   4.578 -0.5321 -0.3634  0.7847
38517SOL    HW127276   9.873   3.878   4.597 -0.4915 -0.3303  0.5292
38517SOL    HW227277   9.723   3.859   4.590 -0.5042 -0.2814  0.6648
38518SOL     OW27278   2.686   8.340   1.174  0.2940  0.0151 -0.0804
38518SOL    HW127279   2.703   8.302   1.087 -1.7101  0.1413 -0.5623
38518SOL    HW227280   2.594   8.367   1.171  0.5149  1.0948  1.7001
38519SOL     OW27281   9.273   7.081   3.197  0.7093  0.1929 -0.2505
38519SOL    HW127282   9.255   7.124   3.281 -1.0051 -1.6161  0.3788
38519SOL    HW227283   9.333   7.141   3.152  4.0419 -0.0401  3.3782
38520SOL     OW27284  12.292  13.323   8.899 -0.0714 -0.0766  0.2931
38520SOL    HW127285  12.333  13.408   8.914 -0.8639  0.2686  0.5327
38520SOL    HW227286  12.333  13.264   8.963 -0.8661  0.5568  1.4029
38521SOL     OW27287   2.813   2.651  10.551 -0.4734 -0.1168 -0.2908
38521SOL    HW127288   2.859   2.695  10.622  0.3972 -1.4193 -0.0156
38521SOL    HW227289   2.726   2.632  10.586  0.0164 -0.9290  0.5182
38522SOL     OW27290   2.019  10.852  12.406 -0.5976 -0.2204 -0.0770
38522SOL    HW127291   2.113  10.851  12.426 -0.8870 -1.2809  1.4185
38522SOL    HW227292   1.997  10.945  12.400  0.5672  0.0395 -0.5769
38523SOL     OW27293  10.063   1.576   7.743  0.5708  0.0265 -0.1045
38523SOL    HW127294  10.049   1.567   7.838 -1.7453 -0.5976 -0.4520
38523SOL    HW227295  10.146   1.531   7.727  0.8992 -0.0424  1.5854
38524SOL     OW27296  11.513   4.266  10.867  0.1874 -0.4067  0.4331
38524SOL    HW127297  11.491   4.174  10.878  3.6713 -1.4320  0.0766
38524SOL    HW227298  11.533   4.274  10.773 -0.9285  0.9744  0.2830
38525SOL     OW27299  12.423   4.587   2.210 -0.7589  0.1853 -0.2880
38525SOL    HW127300  12.479   4.624   2.142  0.5848  0.5277  0.9558
38525SOL    HW227301  12.438   4.642   2.287 -0.9978 -1.1394  0.7577
38526SOL     OW27302   7.837   4.439   0.985 -0.0845  0.0633 -0.2211
38526SOL    HW127303   7.778   4.435   0.909  0.7214 -1.0938 -0.8169
38526SOL    HW227304   7.921   4.466   0.949  0.4870 -1.1893  0.1200
38527SOL     OW27305   2.374   9.549   8.294  0.1269 -0.5009 -0.2623
38527SOL    HW127306   2.331   9.536   8.209  0.1480  1.0099 -0.5258
38527SOL    HW227307   2.333   9.483   8.351  0.0471 -1.4746 -1.4010
38528SOL     OW27308   0.710   3.334  11.745  0.0504  0.0191 -0.4769
38528SOL    HW127309   0.640   3.334  11.810 -0.9358 -0.6505 -1.4981
38528SOL    HW227310   0.680   3.272  11.678  0.4933  1.5175 -2.1290
38529SOL     OW27311  12.422   4.400   5.811 -0.6161  0.6184  0.3262
38529SOL    HW127312  12.458   4.381   5.897 -1.5249  0.0065  0.5876
38529SOL    HW227313  12.491   4.449   5.766  0.9796 -1.4164  0.4046
38530SOL     OW27314  10.117  12.840   1.699 -0.2353  0.2348  0.0783
38530SOL    HW127315  10.179  12.901   1.658 -0.5229  1.0340  0.7981
38530SOL    HW227316  10.140  12.842   1.792 -0.7737 -0.1520  0.2250
38531SOL     OW27317  10.467   8.207   2.815  0.1499  0.4724 -0.0337
38531SOL    HW127318  10.482   8.141   2.883 -0.4019 -0.8300 -1.1435
38531SOL    HW227319  10.502   8.168   2.735 -1.2940  1.0034 -0.9590
38532SOL     OW27320  13.653   0.663   7.358 -0.8367  0.2245  0.4229
38532SOL    HW127321  13.596   0.601   7.405 -1.1338 -0.8977 -1.3376
38532SOL    HW227322  13.699   0.610   7.294  0.8291  1.4414  0.5286
38533SOL     OW27323  11.883   5.057   0.838 -0.0227 -0.2443  0.1462
38533SOL    HW127324  11.951   5.027   0.898 -0.4612 -1.8112 -0.0830
38533SOL    HW227325  11.814   5.093   0.895  0.8881  1.1766  0.3857
38534SOL     OW27326   6.587   2.275  11.732 -0.0385 -0.2037 -0.1007
38534SOL    HW127327   6.644   2.345  11.764 -0.5926  0.2149 -0.0049
38534SOL    HW227328   6.635   2.194  11.749  0.3883  0.1234  0.2632
38535SOL     OW27329   5.949  11.049   8.652  0.2651  0.7197  0.6132
38535SOL    HW127330   5.905  11.036   8.568 -1.2685  1.9341  1.1731
38535SOL    HW227331   6.017  11.113   8.634 -1.9006  3.2544  0.7452
38536SOL     OW27332   1.467   5.403   6.355 -0.2863  0.2815  0.1852
38536SOL    HW127333   1.464   5.436   6.265  0.7204  0.5608  0.2419
38536SOL    HW227334   1.450   5.480   6.409  0.7172  0.4528  0.2746
38537SOL     OW27335  10.799  13.056   0.440  0.6010  0.1393  0.1539
38537SOL    HW127336  10.842  12.988   0.493  0.3718  0.5913  0.9403
38537SOL    HW227337  10.795  13.019   0.352 -0.1798 -1.1929  0.7134
38538SOL     OW27338   4.810  13.254   0.804  0.0972 -0.0386 -0.0235
38538SOL    HW127339   4.760  13.334   0.789 -0.9768 -0.7603 -0.4957
38538SOL    HW227340   4.893  13.283   0.840 -0.3846  1.2624  0.0858
38539SOL     OW27341  11.455   7.889   9.861  0.3950 -0.0473 -0.3168
38539SOL    HW127342  11.550   7.879   9.856  0.1791 -2.2738 -1.4157
38539SOL    HW227343  11.436   7.883   9.955  1.2414 -1.3126 -0.1927
38540SOL     OW27344   3.635   9.914  11.973 -0.0096 -0.5313 -0.0883
38540SOL    HW127345   3.689   9.990  11.956  1.0706 -1.2948 -0.1424
38540SOL    HW227346   3.685   9.862  12.036 -0.7354 -1.1925 -0.0356
38541SOL     OW27347   1.845   2.201   5.246  0.2194  0.1651  0.2494
38541SOL    HW127348   1.816   2.206   5.337 -1.5813  1.9245 -0.3740
38541SOL    HW227349   1.905   2.274   5.236  0.2077  0.1326 -0.0577
38542SOL     OW27350   8.405   5.814   9.425 -0.4657 -0.0990 -0.3268
38542SOL    HW127351   8.400   5.887   9.364  0.4109 -0.3270 -0.6818
38542SOL    HW227352   8.335   5.831   9.489 -0.1559  1.1378 -0.2979
38543SOL     OW27353  10.607  12.981   5.048  0.5774 -0.0818 -0.1078
38543SOL    HW127354  10.685  12.935   5.079  0.1627 -0.8063 -0.1331
38543SOL    HW227355  10.640  13.041   4.981  1.0890 -0.5155 -0.2538
38544SOL     OW27356   2.829   9.720   0.802  0.1366 -0.5915 -0.4160
38544SOL    HW127357   2.759   9.784   0.812 -0.9121 -1.9566  1.5566
38544SOL    HW227358   2.902   9.770   0.765 -1.4723  1.1207 -1.4512
38545SOL     OW27359   5.620   8.733  10.878 -0.4473 -0.4761  0.3168
38545SOL    HW127360   5.553   8.666  10.861 -0.7590  0.1123 -0.9145
38545SOL    HW227361   5.589   8.778  10.956 -1.5353 -0.1984 -0.2412
38546SOL     OW27362  13.381   5.960  10.162  0.2311  0.3729  0.0091
38546SOL    HW127363  13.445   6.000  10.221 -0.1158  1.8709 -0.5737
38546SOL    HW227364  13.318   6.031  10.144 -0.9131 -0.7102 -0.3828
38547SOL     OW27365   0.584  11.730  11.682  0.5562  0.3783 -0.5660
38547SOL    HW127366   0.625  11.777  11.610  0.6993 -0.0039 -0.7359
38547SOL    HW227367   0.498  11.772  11.693  1.4100  1.9389  0.5492
38548SOL     OW27368   4.087   5.958   2.575  0.2215 -0.1994  0.3146
38548SOL    HW127369   4.032   6.021   2.621  0.7030  1.1911 -0.9715
38548SOL    HW227370   4.152   5.931   2.640 -0.8088 -0.4504  1.2820
38549SOL     OW27371  10.575   8.176  11.020 -0.8499 -0.2858  0.3027
38549SOL    HW127372  10.624   8.257  11.012 -2.2466  0.5686  0.0011
38549SOL    HW227373  10.626   8.122  11.081  1.1638 -0.0388 -1.0830
38550SOL     OW27374   4.795   5.020  11.135 -0.3633 -0.2559 -0.4123
38550SOL    HW127375   4.761   4.990  11.051  0.1853  0.3734 -0.8754
38550SOL    HW227376   4.859   4.952  11.160 -0.8900 -0.6976 -0.2516
38551SOL     OW27377   9.438   4.006   3.105 -0.1608 -0.0747  0.0343
38551SOL    HW127378   9.412   4.088   3.063 -0.7103 -0.8583 -1.1975
38551SOL    HW227379   9.511   3.974   3.053  0.9912  0.3179  1.3610
38552SOL     OW27380   5.494  10.557   9.092 -0.3770 -0.0835 -0.1022
38552SOL    HW127381   5.545  10.591   9.018  0.8268  1.6430  1.4047
38552SOL    HW227382   5.406  10.545   9.058  0.1986  0.4017 -1.8682
38553SOL     OW27383   2.021   3.326   5.527 -0.4258 -0.9959  0.5052
38553SOL    HW127384   1.930   3.353   5.511 -0.3371 -0.7446  0.4348
38553SOL    HW227385   2.074   3.385   5.475 -0.3103 -2.3094 -0.9431
38554SOL     OW27386  12.175   1.431  10.185  0.4367 -0.0133  0.0091
38554SOL    HW127387  12.218   1.446  10.269 -0.6938  0.0097  0.5962
38554SOL    HW227388  12.167   1.336  10.178  1.2158 -0.0591 -0.4445
38555SOL     OW27389   3.893   5.021  12.706  0.3404 -0.4362  0.0887
38555SOL    HW127390   3.967   5.076  12.683 -0.6011  0.0565 -1.9198
38555SOL    HW227391   3.821   5.082  12.725 -0.6750 -0.9004 -2.0353
38556SOL     OW27392  10.385  12.985   0.630 -0.1950  0.2217 -0.0611
38556SOL    HW127393  10.450  12.981   0.700  0.8898  1.2933 -0.9441
38556SOL    HW227394  10.384  12.897   0.593  0.8619  0.2122 -0.1043
38557SOL     OW27395   2.297   1.305   5.141  0.2142  0.0265 -0.0784
38557SOL    HW127396   2.336   1.391   5.121 -0.3142  0.3544  0.2568
38557SOL    HW227397   2.296   1.302   5.237  2.8365 -1.5687  0.0097
38558SOL     OW27398   1.082   2.470   3.239 -0.2032  0.1100  0.5584
38558SOL    HW127399   1.088   2.413   3.161  0.3601 -0.3591  0.9390
38558SOL    HW227400   1.152   2.534   3.227 -1.2818  1.2042 -0.2253
38559SOL     OW27401   6.494  11.264  10.589  0.4473  0.0944 -1.0369
38559SOL    HW127402   6.451  11.179  10.593  0.7593 -0.0710 -1.1666
38559SOL    HW227403   6.587  11.244  10.587  0.6056  0.4961  0.6419
38560SOL     OW27404   6.571   1.857  10.828  0.0263  0.7693 -0.4511
38560SOL    HW127405   6.629   1.931  10.845  0.0941  0.5716  0.2328
38560SOL    HW227406   6.547   1.865  10.736  0.1760  1.5344 -0.4246
38561SOL     OW27407  12.223   1.680   4.842 -0.2917 -0.3409 -0.0778
38561SOL    HW127408  12.247   1.589   4.859 -3.0213 -1.5100 -1.7835
38561SOL    HW227409  12.152   1.674   4.778 -0.7353  3.0031 -0.0509
38562SOL     OW27410  12.447   2.469   5.095  0.2703  0.0981 -0.3074
38562SOL    HW127411  12.513   2.539   5.102 -1.4947  1.8235  0.0179
38562SOL    HW227412  12.398   2.473   5.177  0.6410 -2.1519  0.0831
38563SOL     OW27413   2.271   1.130   8.928  0.1638 -0.6980  0.1121
38563SOL    HW127414   2.276   1.052   8.873 -1.0604 -0.9592  0.3470
38563SOL    HW227415   2.283   1.097   9.018  0.7681 -0.4592  0.1228
38564SOL     OW27416  10.889   0.452  10.440  0.4277 -0.4388 -0.2600
38564SOL    HW127417  10.885   0.374  10.384  0.2466 -0.5269 -0.1250
38564SOL    HW227418  10.905   0.418  10.528 -0.2389 -0.3604 -0.1071
38565SOL     OW27419   2.146   9.426   6.775 -0.4905 -0.2505 -0.4509
38565SOL    HW127420   2.101   9.352   6.733 -1.8940  1.3294 -1.8824
38565SOL    HW227421   2.189   9.387   6.851 -0.4566 -2.6830 -1.5998
38566SOL     OW27422   7.348  11.217   5.539  0.2260  0.3456 -0.3627
38566SOL    HW127423   7.441  11.228   5.559  0.0886  0.5745  0.1795
38566SOL    HW227424   7.345  11.202   5.445  0.8070  0.4156 -0.3964
38567SOL     OW27425   8.911  10.712   8.090 -0.4784 -0.5102 -0.2067
38567SOL    HW127426   8.874  10.753   8.169 -0.1185  0.4961 -0.5490
38567SOL    HW227427   8.835  10.674   8.045 -0.7206 -0.8645  0.4858
38568SOL     OW27428   9.254  12.843   7.816  0.2057 -0.7746  0.0201
38568SOL    HW127429   9.255  12.915   7.752 -0.5921 -1.0287 -0.2991
38568SOL    HW227430   9.341  12.805   7.810 -0.3963 -2.0466 -2.4238
38569SOL     OW27431   1.343   6.610  11.853 -0.1931  0.3016  0.1092
38569SOL    HW127432   1.354   6.697  11.814 -2.2532  1.2248  1.3937
38569SOL    HW227433   1.295   6.560  11.787  0.4611  0.3093 -0.3856
38570SOL     OW27434   9.102   7.486  10.018  0.3061  0.4575 -0.2116
38570SOL    HW127435   9.013   7.454  10.037  0.8367  0.0560  1.8025
38570SOL    HW227436   9.144   7.414   9.972 -0.8046  1.1916 -2.5615
38571SOL     OW27437   2.869   2.394   5.811  0.2530  0.3040 -0.0657
38571SOL    HW127438   2.923   2.397   5.890 -0.7730  0.3637  0.6610
38571SOL    HW227439   2.825   2.480   5.809  2.1487  1.3376 -2.1079
38572SOL     OW27440   8.162   5.972   2.297  0.5634 -0.4147  0.2941
38572SOL    HW127441   8.161   6.031   2.373 -1.2654  1.5930 -1.1407
38572SOL    HW227442   8.217   6.018   2.233 -0.9458 -0.1586 -0.8748
38573SOL     OW27443   9.353  11.103   8.936  0.2348  0.4293 -0.3172
38573SOL    HW127444   9.322  11.053   8.860  1.1163  0.5434 -0.7739
38573SOL    HW227445   9.447  11.113   8.920  0.4327  0.4480  0.8065
38574SOL     OW27446   1.634   2.429   3.654  0.0760  0.0284 -0.0095
38574SOL    HW127447   1.699   2.499   3.648 -0.5845  0.6258 -0.3012
38574SOL    HW227448   1.645   2.379   3.573  1.5906 -1.1656  0.8645
38575SOL     OW27449  10.109  10.848   6.060 -0.1485 -0.7432 -0.0854
38575SOL    HW127450  10.168  10.810   6.124  1.3791  2.0327  0.3130
38575SOL    HW227451  10.023  10.847   6.103  0.4236 -0.9781  1.0936
38576SOL     OW27452   5.402  12.829   8.964 -0.4682 -0.2885 -0.1639
38576SOL    HW127453   5.426  12.736   8.961 -2.3290 -0.9035  1.4905
38576SOL    HW227454   5.481  12.873   8.996 -0.0799 -1.5517  0.6812
38577SOL     OW27455   9.712   1.695   7.878  0.1969  0.3758  0.0135
38577SOL    HW127456   9.627   1.689   7.836 -0.7223  2.0690  1.4935
38577SOL    HW227457   9.701   1.649   7.961  1.0357 -0.2386 -0.2004
38578SOL     OW27458   0.749   1.530  13.667 -0.0158  0.2889 -0.7154
38578SOL    HW127459   0.735   1.497  13.578  0.7449  0.4031 -0.8891
38578SOL    HW227460   0.812   1.468  13.705 -0.3859  0.2052 -0.2310
38579SOL     OW27461   0.866  11.875   8.995  0.2037 -0.6942  0.1277
38579SOL    HW127462   0.774  11.880   8.971 -0.1131 -1.0718  1.2217
38579SOL    HW227463   0.906  11.822   8.925 -0.5978 -1.3847  0.1840
38580SOL     OW27464   9.733   4.679   1.667  0.3199  0.2953 -0.9403
38580SOL    HW127465   9.717   4.679   1.573 -0.7488 -1.1996 -0.8019
38580SOL    HW227466   9.646   4.677   1.706  0.6455  3.2072  0.1878
38581SOL     OW27467  13.419   4.637   8.877 -0.3632 -0.3755  0.0481
38581SOL    HW127468  13.434   4.722   8.836  1.0831 -0.1381  1.0224
38581SOL    HW227469  13.504   4.611   8.911 -0.5594 -2.6666 -1.0354
38582SOL     OW27470  10.012   7.583   3.388 -0.0178  0.2589 -0.0372
38582SOL    HW127471   9.953   7.653   3.362 -0.1213 -0.1151 -0.8606
38582SOL    HW227472   9.982   7.557   3.476 -0.1555  1.0389  0.1508
38583SOL     OW27473   3.685   0.399   1.470 -0.3713  0.4394 -0.1359
38583SOL    HW127474   3.627   0.346   1.416 -0.8071  0.1665  0.5788
38583SOL    HW227475   3.746   0.439   1.408 -1.6419  1.1624 -0.9763
38584SOL     OW27476   7.344  10.095  13.105 -0.3611  0.0645  0.3874
38584SOL    HW127477   7.360  10.041  13.028 -1.8020  1.3152 -0.8649
38584SOL    HW227478   7.262  10.062  13.142  0.0311 -0.1643  1.0846
38585SOL     OW27479  10.103  10.496   2.975  0.4980  0.1963  0.0203
38585SOL    HW127480  10.068  10.407   2.988  1.1700 -0.3069 -1.3965
38585SOL    HW227481  10.166  10.507   3.046 -0.7142  0.1807  1.1576
38586SOL     OW27482   4.222   2.579   4.759 -0.4809 -0.8234 -0.3433
38586SOL    HW127483   4.301   2.574   4.812 -0.5295  1.9786  0.1547
38586SOL    HW227484   4.238   2.520   4.685  1.7029 -0.9493  0.1890
38587SOL     OW27485   7.022   5.133   1.167 -0.7434 -0.3227 -0.6283
38587SOL    HW127486   7.044   5.215   1.212 -1.5551  0.9196 -2.3564
38587SOL    HW227487   6.928   5.123   1.179 -0.9576 -0.0113 -1.9344
38588SOL     OW27488   4.916   2.025  11.853 -0.0055  0.2767  0.0951
38588SOL    HW127489   4.979   2.014  11.781  0.4398  0.6416  0.4193
38588SOL    HW227490   4.839   2.062  11.811  0.0198 -0.1097 -0.2991
38589SOL     OW27491   5.794   6.468   8.946  0.2447  0.0090 -0.5692
38589SOL    HW127492   5.848   6.508   9.015  0.1254 -2.1918  0.9212
38589SOL    HW227493   5.726   6.420   8.994 -0.7616 -0.3885 -2.3045
38590SOL     OW27494  11.886   1.576  13.262 -0.2101  0.0019  0.6402
38590SOL    HW127495  11.822   1.561  13.193  0.6307  0.0338 -0.1736
38590SOL    HW227496  11.920   1.664  13.245 -1.1394  0.6633  2.0664
38591SOL     OW27497   8.360  10.819  10.223 -0.1753  0.5963  0.1073
38591SOL    HW127498   8.302  10.859  10.158 -0.7467  1.3949  1.0660
38591SOL    HW227499   8.329  10.729  10.231 -1.4320  1.0484  0.7226
38592SOL     OW27500   2.808   0.497   9.791  0.2798  0.7607 -0.2521
38592SOL    HW127501   2.787   0.588   9.767 -0.1755  0.3466 -1.4818
38592SOL    HW227502   2.879   0.505   9.855 -0.8159  2.0461  0.8828
38593SOL     OW27503   8.328   3.348   3.341  0.1085  0.3900  0.1768
38593SOL    HW127504   8.294   3.368   3.428  0.6232  0.8181  0.2826
38593SOL    HW227505   8.298   3.421   3.287 -0.3513  0.0418 -0.0465
38594SOL     OW27506  10.888   6.173   2.104  0.0485  0.3068 -0.0623
38594SOL    HW127507  10.794   6.178   2.090  0.3740  2.5717 -2.0464
38594SOL    HW227508  10.923   6.138   2.022  0.9941  0.0671  0.4251
38595SOL     OW27509   9.403   0.565   0.871 -0.1367 -0.0933 -0.2252
38595SOL    HW127510   9.312   0.569   0.898  0.0086  1.0188  0.1491
38595SOL    HW227511   9.430   0.475   0.891 -1.2357 -0.5437 -0.6890
38596SOL     OW27512   9.628  12.873   9.432  0.3319  0.5692  0.1083
38596SOL    HW127513   9.571  12.947   9.450  1.5742  1.5865 -0.0209
38596SOL    HW227514   9.704  12.886   9.489  1.6969  0.7404 -1.6642
38597SOL     OW27515   2.516   4.689   1.952 -0.6997  0.2058 -0.0486
38597SOL    HW127516   2.544   4.600   1.930 -1.6099  0.2085 -1.2933
38597SOL    HW227517   2.596   4.741   1.944  0.0165 -0.5892  1.4506
38598SOL     OW27518   8.564  11.948   3.915 -0.1585 -0.0013 -0.0154
38598SOL    HW127519   8.601  12.036   3.917 -0.0699 -0.0024 -0.8698
38598SOL    HW227520   8.488  11.955   3.857  0.2582 -0.6191 -0.6707
38599SOL     OW27521   9.656  12.825   5.441 -0.2976 -0.1122 -0.1318
38599SOL    HW127522   9.683  12.836   5.532 -0.2898 -1.5387  0.0566
38599SOL    HW227523   9.728  12.778   5.400 -0.4426  0.2375 -0.8037
38600SOL     OW27524   9.924   3.903   9.875  0.1745 -0.2105 -0.6070
38600SOL    HW127525   9.942   3.987   9.833 -1.6151  0.1202 -0.7911
38600SOL    HW227526  10.004   3.852   9.862  1.6908  1.7676  0.3572
38601SOL     OW27527   3.300   7.058   9.363  0.1214  0.0357  0.3343
38601SOL    HW127528   3.291   7.090   9.453 -1.0151  1.8014 -0.3374
38601SOL    HW227529   3.330   6.968   9.372 -0.9357 -0.1700  2.5104
38602SOL     OW27530   8.125   9.627   3.692  0.2198 -0.5946  0.0697
38602SOL    HW127531   8.164   9.596   3.774 -1.8411 -0.2047  1.2525
38602SOL    HW227532   8.185   9.695   3.661  1.2764 -1.0833  0.9789
38603SOL     OW27533   8.579   6.186   3.762  0.2005  0.0286 -0.1414
38603SOL    HW127534   8.648   6.157   3.704  0.2272 -0.8239  0.3080
38603SOL    HW227535   8.529   6.107   3.783 -0.8847  0.6181 -0.4229
38604SOL     OW27536   7.497   8.152  12.638  0.9101 -0.3660  0.1128
38604SOL    HW127537   7.403   8.153  12.623  0.9190 -1.8041 -0.1714
38604SOL    HW227538   7.532   8.217  12.577  0.1579 -0.2309 -0.1809
38605SOL     OW27539   2.735   1.237   7.579  0.5140  0.2963 -0.1277
38605SOL    HW127540   2.674   1.164   7.589  0.3570  0.3377 -0.7658
38605SOL    HW227541   2.806   1.217   7.641  0.5855 -0.5197 -0.4596
38606SOL     OW27542  12.055  12.523   9.187  0.0871 -0.2116 -0.1077
38606SOL    HW127543  12.082  12.615   9.185  0.7851 -0.4095  0.1685
38606SOL    HW227544  12.020  12.507   9.100  1.7628 -0.2175 -0.8136
38607SOL     OW27545   8.708   4.097   8.547 -0.0233  0.7787  1.7806
38607SOL    HW127546   8.624   4.084   8.503  1.0562  0.2816 -0.2327
38607SOL    HW227547   8.737   4.184   8.519  1.4872 -0.2346 -0.0144
38608SOL     OW27548  12.760   9.020  13.473  0.9150  0.2995 -0.2947
38608SOL    HW127549  12.765   9.048  13.381  2.4829  2.0413  0.2819
38608SOL    HW227550  12.798   9.092  13.523 -0.6735 -0.2295  1.8429
38609SOL     OW27551   5.602   6.723  12.646 -0.6236 -0.1208 -0.3293
38609SOL    HW127552   5.622   6.737  12.553  0.6620 -0.7784 -0.1764
38609SOL    HW227553   5.563   6.636  12.649 -2.9420  0.8556 -0.5269
38610SOL     OW27554  12.867   9.714  13.078  0.0553  0.5745 -0.1378
38610SOL    HW127555  12.904   9.728  12.990 -1.2942  0.5545 -0.7294
38610SOL    HW227556  12.944   9.711  13.135  1.0613 -0.4306 -1.4418
38611SOL     OW27557   7.175   7.630  11.588 -0.7542  0.5900 -0.3255
38611SOL    HW127558   7.130   7.549  11.610 -1.5259  1.6108  2.1267
38611SOL    HW227559   7.111   7.681  11.538 -0.5515  0.0582 -1.1488
38612SOL     OW27560  11.114   5.357   8.184 -0.1814 -0.3477 -0.6527
38612SOL    HW127561  11.034   5.315   8.217 -0.2388  0.2260 -0.0608
38612SOL    HW227562  11.159   5.388   8.262  0.9646 -1.2456 -0.9209
38613SOL     OW27563   1.287   0.409   9.691 -1.1846 -0.4000  0.0368
38613SOL    HW127564   1.275   0.329   9.640 -1.8117  0.2244 -0.8445
38613SOL    HW227565   1.308   0.379   9.779 -0.8481 -1.5206 -0.4097
38614SOL     OW27566   8.416   9.741  12.898 -0.1937  0.5669  0.1538
38614SOL    HW127567   8.509   9.731  12.915 -0.4375 -0.5238  0.9814
38614SOL    HW227568   8.402   9.699  12.813 -0.1196 -0.3978  0.6023
38615SOL     OW27569   3.569   0.258   7.173  0.0988 -0.4085 -0.1300
38615SOL    HW127570   3.475   0.249   7.158 -0.0358  1.4618 -0.7366
38615SOL    HW227571   3.590   0.345   7.138  2.3150 -1.3286 -1.2339
38616SOL     OW27572  12.495   0.193   2.722 -0.3853 -0.3617  0.0427
38616SOL    HW127573  12.520   0.235   2.804 -1.3444  1.5186 -0.5473
38616SOL    HW227574  12.572   0.201   2.666 -1.1310  2.7281 -0.7783
38617SOL     OW27575   8.897   3.889   6.018 -0.2153  0.0302  0.5150
38617SOL    HW127576   8.964   3.843   6.068 -0.1447  0.6241  0.9785
38617SOL    HW227577   8.944   3.929   5.945 -0.3196 -0.8398 -0.0487
38618SOL     OW27578   3.582  13.177   0.332 -0.2134 -0.3471 -0.2521
38618SOL    HW127579   3.617  13.229   0.404  0.2491  0.0361 -0.7441
38618SOL    HW227580   3.579  13.238   0.258  0.2487 -0.9935 -0.8170
38619SOL     OW27581  13.280  12.646  11.633 -0.0607 -0.0339  0.5566
38619SOL    HW127582  13.220  12.713  11.665 -0.7650 -0.9027  1.0914
38619SOL    HW227583  13.363  12.666  11.676  0.0769  1.2393 -0.2734
38620SOL     OW27584   9.477   2.291   4.281 -0.2972  0.1357  0.3539
38620SOL    HW127585   9.450   2.363   4.338 -1.3951 -0.9633  1.2787
38620SOL    HW227586   9.409   2.225   4.292  0.2402 -0.7160 -1.1191
38621SOL     OW27587   0.648   5.493   5.215  0.6536 -0.2583 -0.0136
38621SOL    HW127588   0.617   5.497   5.124 -0.2048  1.2562  0.3226
38621SOL    HW227589   0.574   5.523   5.267  1.6361  0.3556  1.0729
38622SOL     OW27590  10.194   4.345   0.149 -0.0780 -0.4475  0.0013
38622SOL    HW127591  10.173   4.353   0.056  0.5816  0.7051 -0.0614
38622SOL    HW227592  10.199   4.250   0.164 -1.1244 -0.6740 -0.9082
38623SOL     OW27593   7.951   7.800   6.014 -0.3479 -0.2177 -0.3748
38623SOL    HW127594   7.990   7.885   6.036  0.7769 -0.3865 -1.6371
38623SOL    HW227595   7.966   7.746   6.092  0.9450  0.0835 -0.3839
38624SOL     OW27596  10.800   4.229  11.068  0.5051 -0.3101  0.6255
38624SOL    HW127597  10.864   4.162  11.043 -0.3429 -0.7188 -0.5808
38624SOL    HW227598  10.715   4.184  11.062 -0.0971  0.8820 -0.3751
38625SOL     OW27599   4.071   8.301   4.974 -0.4039  0.1985 -0.4324
38625SOL    HW127600   4.133   8.299   4.901 -1.7715 -0.4973 -1.6379
38625SOL    HW227601   4.110   8.243   5.040  0.7442  0.6572 -0.6824
38626SOL     OW27602  11.325   6.560   5.766  0.0449  0.1651 -0.0144
38626SOL    HW127603  11.331   6.473   5.805  0.0625  0.8740  1.6641
38626SOL    HW227604  11.400   6.564   5.706  0.9235 -0.4675  0.9962
38627SOL     OW27605   6.379   3.663   6.748 -0.5197  0.2077 -0.2408
38627SOL    HW127606   6.421   3.695   6.668 -0.9420 -0.1599 -0.6119
38627SOL    HW227607   6.422   3.712   6.818  0.7248 -0.3649 -0.5845
38628SOL     OW27608   3.245   2.362   9.296  0.1142 -0.2070 -0.0419
38628SOL    HW127609   3.340   2.350   9.296  0.1555  0.1086 -0.1802
38628SOL    HW227610   3.215   2.322   9.378  0.5834  1.3580  0.9541
38629SOL     OW27611   2.627   2.411   3.776 -0.0305  0.0744 -0.0171
38629SOL    HW127612   2.582   2.478   3.724 -1.3541 -0.5275  0.2939
38629SOL    HW227613   2.705   2.455   3.809 -0.4730  1.2413 -0.4441
38630SOL     OW27614   6.691  11.985  10.743 -0.4275  0.4368 -0.2591
38630SOL    HW127615   6.729  11.902  10.769  0.0558  0.8048  0.2308
38630SOL    HW227616   6.699  12.041  10.821 -1.4694  0.6944 -0.3186
38631SOL     OW27617   2.794   1.602   0.575 -0.3712  0.4047 -0.6554
38631SOL    HW127618   2.713   1.604   0.525 -0.8342 -1.6740 -0.0604
38631SOL    HW227619   2.766   1.613   0.666 -0.0529 -0.6809 -0.4123
38632SOL     OW27620   8.015  12.484  11.717  0.3213 -0.3985  0.2596
38632SOL    HW127621   7.929  12.445  11.734  1.2005 -2.7522 -0.2581
38632SOL    HW227622   8.050  12.503  11.804  0.1557 -1.5276  0.5888
38633SOL     OW27623  11.796  10.900   0.817 -0.4208  0.2267  0.3256
38633SOL    HW127624  11.834  10.985   0.840  0.1439  0.2634 -0.6801
38633SOL    HW227625  11.715  10.896   0.867 -0.0482  0.9996  1.0213
38634SOL     OW27626  10.663   9.877   0.635  0.1403 -0.1685  0.4499
38634SOL    HW127627  10.690   9.846   0.721  0.4732 -0.2871  0.3046
38634SOL    HW227628  10.685   9.970   0.635  1.3974 -0.4435  0.0130
38635SOL     OW27629   3.499   0.604  13.693 -0.1974  0.4679 -0.0686
38635SOL    HW127630   3.421   0.604  13.748 -0.4748  0.8282 -0.4556
38635SOL    HW227631   3.484   0.533  13.631 -0.3546  0.7305 -0.3322
38636SOL     OW27632  11.770   0.800  11.297 -0.6618  0.1023 -0.1508
38636SOL    HW127633  11.825   0.737  11.251  2.6065  1.4430  1.5940
38636SOL    HW227634  11.760   0.764  11.385  1.0698  1.7708  0.8029
38637SOL     OW27635  12.798   5.769   3.911  0.1947  0.0765  0.3261
38637SOL    HW127636  12.842   5.848   3.878  1.8256 -1.4330 -1.3664
38637SOL    HW227637  12.851   5.742   3.985  0.5840 -0.2896 -0.0810
38638SOL     OW27638   5.554  13.351  11.807  0.3943  0.3058  0.5265
38638SOL    HW127639   5.484  13.393  11.757  1.7417  0.3734 -1.3871
38638SOL    HW227640   5.544  13.257  11.789 -0.1029  0.1547  1.4962
38639SOL     OW27641   8.426   7.994   7.578 -0.0730 -0.1179 -0.0041
38639SOL    HW127642   8.445   8.073   7.528 -2.2433  3.8339  4.5455
38639SOL    HW227643   8.511   7.970   7.617  0.4021  0.8051 -0.4319
38640SOL     OW27644  10.608   0.803  12.203 -0.3680  0.2130 -0.5456
38640SOL    HW127645  10.539   0.824  12.139 -0.4847 -0.2630 -0.5801
38640SOL    HW227646  10.630   0.888  12.242 -2.2816  0.1687  0.7820
38641SOL     OW27647   4.234   5.844   7.079 -0.2361  0.5978 -0.0594
38641SOL    HW127648   4.233   5.840   6.984  2.5033  1.6460 -0.2391
38641SOL    HW227649   4.255   5.935   7.099  1.0327  0.0233  1.4443
38642SOL     OW27650  13.736  12.556   4.429 -0.6806  0.4118 -0.2283
38642SOL    HW127651  13.733  12.462   4.412  0.4448  0.2526  0.3663
38642SOL    HW227652  13.765  12.563   4.520 -1.8082  1.3229  0.0849
38643SOL     OW27653  12.577   2.359   5.659  0.1045 -0.6576 -0.5621
38643SOL    HW127654  12.618   2.351   5.573  0.8104  0.4617 -0.3471
38643SOL    HW227655  12.571   2.453   5.674 -0.6640 -0.8340  0.3167
38644SOL     OW27656   9.116   3.837  11.393 -0.2235 -0.0577  0.5148
38644SOL    HW127657   9.126   3.841  11.488  1.1207  1.1062  0.3671
38644SOL    HW227658   9.114   3.929  11.366 -0.3440 -0.3767 -0.6046
38645SOL     OW27659   6.395   2.145   0.239 -0.0423  0.3004 -0.4884
38645SOL    HW127660   6.321   2.085   0.245 -2.6308  3.3260  0.9840
38645SOL    HW227661   6.356   2.232   0.243  3.6209  2.1358  0.0637
38646SOL     OW27662   6.522   0.916   1.879  0.3088  0.0674  0.1547
38646SOL    HW127663   6.613   0.888   1.892 -0.1274 -0.8814  1.3026
38646SOL    HW227664   6.488   0.928   1.968 -0.3189  1.7083 -0.2727
38647SOL     OW27665   3.742   5.282  12.756 -0.1398 -0.1256 -0.1994
38647SOL    HW127666   3.808   5.349  12.774 -1.0373  1.0090 -1.0130
38647SOL    HW227667   3.685   5.284  12.833  0.3378 -0.5965  0.1764
38648SOL     OW27668   9.802  10.170   0.189  0.4297 -0.3088 -0.3816
38648SOL    HW127669   9.813  10.251   0.139  0.2469 -0.5495 -0.8190
38648SOL    HW227670   9.824  10.194   0.279 -1.5759  0.7456 -0.1116
38649SOL     OW27671   2.977   0.747   0.172  0.3076 -0.0310 -0.2084
38649SOL    HW127672   3.049   0.730   0.233 -1.1142 -0.1604  1.5245
38649SOL    HW227673   2.902   0.702   0.211 -0.5901 -0.4491 -2.2954
38650SOL     OW27674   8.846   8.830   6.447 -0.3108 -0.3106 -0.3481
38650SOL    HW127675   8.837   8.757   6.507 -3.0652 -0.3575 -0.6696
38650SOL    HW227676   8.877   8.903   6.501  1.2447 -1.3639  0.2198
38651SOL     OW27677   2.841  12.658  12.594 -0.1170  0.4199  0.1847
38651SOL    HW127678   2.836  12.686  12.685 -0.9913  0.2929  0.1870
38651SOL    HW227679   2.757  12.615  12.578 -1.0009  2.5254 -1.3687
38652SOL     OW27680   2.808   9.714  13.503  0.4684 -0.2950 -0.4470
38652SOL    HW127681   2.780   9.758  13.423  3.1359  2.1524 -0.1861
38652SOL    HW227682   2.856   9.637  13.474 -0.3607 -0.5915 -1.0758
38653SOL     OW27683   6.461   8.436  10.314 -0.0781  0.2718  0.4379
38653SOL    HW127684   6.505   8.520  10.303 -0.3031  0.2161 -1.1402
38653SOL    HW227685   6.529   8.379  10.351  0.1244  1.0863  1.3536
38654SOL     OW27686   3.566  10.785  10.021 -0.2033 -0.0501  0.1730
38654SOL    HW127687   3.545  10.697   9.991 -0.4046 -0.1688  0.6552
38654SOL    HW227688   3.584  10.775  10.114 -0.4179  0.4471  0.2726
38655SOL     OW27689   5.990   6.668  12.682  0.1297  0.0562 -0.7936
38655SOL    HW127690   5.981   6.572  12.676 -0.2513  0.1737 -2.8375
38655SOL    HW227691   5.976   6.687  12.775  2.5672 -2.0721  0.1505
38656SOL     OW27692   0.231   3.214   1.142 -0.0435  0.0923 -0.6366
38656SOL    HW127693   0.311   3.212   1.194  0.1587  1.1035 -0.8712
38656SOL    HW227694   0.160   3.199   1.204  0.1549  1.7866  0.0512
38657SOL     OW27695  13.315   9.098  11.239 -0.2984 -0.2180  0.0441
38657SOL    HW127696  13.262   9.170  11.272  0.2137 -0.5356  1.6260
38657SOL    HW227697  13.300   9.099  11.144  0.3900  2.5153 -0.1174
38658SOL     OW27698   5.903   7.990  11.534  0.2547 -0.2851  0.2990
38658SOL    HW127699   5.953   8.022  11.609 -0.6456  0.8563  0.4339
38658SOL    HW227700   5.947   8.029  11.458 -1.2525  1.9513  0.5004
38659SOL     OW27701   1.545   6.285  13.712 -0.2854 -0.1037  0.2544
38659SOL    HW127702   1.632   6.252  13.689 -0.4552 -0.5159  0.1845
38659SOL    HW227703   1.556   6.324  13.799 -0.7453 -3.3496  1.9370
38660SOL     OW27704   9.411   2.037   6.147 -0.1924  0.9601  0.1154
38660SOL    HW127705   9.399   2.072   6.059 -0.6343  0.9927  0.1897
38660SOL    HW227706   9.401   2.113   6.204  1.6539  1.2596  0.1157
38661SOL     OW27707  11.999   6.218   6.606 -0.0654 -0.3545 -0.1549
38661SOL    HW127708  11.979   6.181   6.520 -0.6814  0.4204 -0.3619
38661SOL    HW227709  12.069   6.163   6.640 -1.5650 -2.2822 -0.0486
38662SOL     OW27710  12.029   3.511   1.421  0.0862 -0.0861  0.2608
38662SOL    HW127711  11.977   3.455   1.478  0.5487 -2.1012 -1.1746
38662SOL    HW227712  12.053   3.455   1.348  1.9242  1.5779 -0.5085
38663SOL     OW27713  12.503   5.236   0.551 -0.1646  0.1987 -0.3342
38663SOL    HW127714  12.544   5.308   0.503  2.3565  0.1502  1.5423
38663SOL    HW227715  12.550   5.158   0.521 -0.2303 -0.1366  0.4269
38664SOL     OW27716  11.787  13.029  10.102  0.1110  0.3405  0.0013
38664SOL    HW127717  11.716  13.029  10.037  0.0632  0.4311  0.0523
38664SOL    HW227718  11.792  12.938  10.131  1.0019  0.0385 -1.0646
38665SOL     OW27719  11.485   7.959  10.653  0.3099  0.5921 -0.1447
38665SOL    HW127720  11.529   7.884  10.613 -1.2554 -0.2502 -0.3326
38665SOL    HW227721  11.514   8.034  10.600  0.6133 -0.1008 -0.9937
38666SOL     OW27722   8.162   8.869   1.015 -0.1480  0.4272 -0.4033
38666SOL    HW127723   8.110   8.942   0.982 -0.4215  0.4161 -0.0023
38666SOL    HW227724   8.241   8.869   0.961  0.9653  2.4727  1.1104
38667SOL     OW27725   6.409  13.341   9.683 -0.1580  0.9148 -0.4140
38667SOL    HW127726   6.463  13.302   9.751 -0.1106  1.8021  0.0643
38667SOL    HW227727   6.338  13.278   9.670  0.7690 -0.0906 -0.7897
38668SOL     OW27728   7.363   9.005   9.521 -0.2923  0.0863  0.7381
38668SOL    HW127729   7.362   8.950   9.442  0.2094 -0.3107  1.0058
38668SOL    HW227730   7.295   8.967   9.577  1.0737 -1.2356  1.5680
38669SOL     OW27731   5.602   0.084   3.192 -0.1447  0.1754 -0.4907
38669SOL    HW127732   5.682   0.039   3.219 -0.1915  0.9697  1.0871
38669SOL    HW227733   5.627   0.177   3.191 -1.3177  0.5569  1.2154
38670SOL     OW27734   3.210   7.654   5.372  0.1300 -0.6435 -0.0474
38670SOL    HW127735   3.287   7.708   5.386  0.4140 -0.4564 -1.9634
38670SOL    HW227736   3.245   7.569   5.344 -0.3458 -0.7427 -0.3493
38671SOL     OW27737   8.011  12.094   0.546  0.2115 -0.1192 -0.0777
38671SOL    HW127738   8.095  12.120   0.507  0.1196  0.7471  0.2742
38671SOL    HW227739   8.032  12.018   0.601  1.2157  1.4181  1.7691
38672SOL     OW27740   5.292  11.613  10.093  0.1141  0.5124  0.2834
38672SOL    HW127741   5.268  11.703  10.113 -0.6799  0.1881  0.8347
38672SOL    HW227742   5.365  11.621  10.032  0.0577  1.5265  0.3287
38673SOL     OW27743   4.682   7.263   9.752  0.3183 -0.3863 -0.2904
38673SOL    HW127744   4.678   7.356   9.729 -1.2234 -0.7657 -1.7996
38673SOL    HW227745   4.616   7.252   9.820 -0.0498 -0.5049 -0.6634
38674SOL     OW27746   3.988  12.090   3.727 -0.0427 -0.4244  0.1341
38674SOL    HW127747   3.904  12.133   3.745 -0.8882 -1.4300 -1.2348
38674SOL    HW227748   4.047  12.162   3.704 -0.6709  0.2532  0.5999
38675SOL     OW27749   8.884   0.735  11.689  0.3872  0.5313 -0.4093
38675SOL    HW127750   8.872   0.754  11.782 -1.5060  1.8492 -0.8863
38675SOL    HW227751   8.808   0.682  11.665  1.8222 -1.4577 -0.8282
38676SOL     OW27752   9.234   2.854  12.754  0.5707  0.0405  0.2519
38676SOL    HW127753   9.313   2.864  12.701  1.5867  0.3202  1.7491
38676SOL    HW227754   9.237   2.764  12.785  0.0671 -0.0754 -0.0243
38677SOL     OW27755   4.309   2.170  11.997  0.0755  0.0806  0.5134
38677SOL    HW127756   4.386   2.220  11.969 -0.3261  0.6484  0.4108
38677SOL    HW227757   4.345   2.096  12.045  0.7761 -0.7596 -1.2156
38678SOL     OW27758   3.293  10.873   0.557 -0.3001  0.2626  0.3502
38678SOL    HW127759   3.241  10.948   0.586 -1.3691 -0.4991  0.4521
38678SOL    HW227760   3.231  10.817   0.512  0.9102  0.3941 -1.5712
38679SOL     OW27761  12.094   8.148  11.149 -0.2541  0.2211 -0.7373
38679SOL    HW127762  12.145   8.202  11.209 -0.2193  0.9729 -1.4257
38679SOL    HW227763  12.158   8.086  11.113 -0.3509 -0.4759  0.2616
38680SOL     OW27764   2.791   5.818   1.347  0.4349  0.3111  0.2227
38680SOL    HW127765   2.703   5.856   1.350  0.1254 -0.3768  0.1535
38680SOL    HW227766   2.782   5.741   1.292  0.9067 -0.1971  0.8363
38681SOL     OW27767   8.703   1.362   5.049  0.4389  0.0893  0.4589
38681SOL    HW127768   8.610   1.355   5.027  0.1297  1.5557  1.2128
38681SOL    HW227769   8.742   1.409   4.976  0.4828 -0.0084  0.4189
38682SOL     OW27770   8.924  11.393   0.910  0.4955 -0.1684  0.6958
38682SOL    HW127771   8.990  11.412   0.977 -0.1053  1.0181  0.9790
38682SOL    HW227772   8.964  11.324   0.856  1.6284 -0.0441  1.3361
38683SOL     OW27773   5.493   3.990   2.201 -0.3139  0.5849 -0.9600
38683SOL    HW127774   5.586   4.011   2.190 -0.2685  0.6356 -0.4997
38683SOL    HW227775   5.447   4.060   2.155 -0.1513  1.4469  0.1382
38684SOL     OW27776  10.816   1.616   6.024  0.2065  0.8148  0.3825
38684SOL    HW127777  10.800   1.572   6.108 -0.7665  0.8971  0.2428
38684SOL    HW227778  10.752   1.578   5.964  0.2920  1.4170 -0.0983
38685SOL     OW27779   8.966   8.502  10.955  0.0585  0.4762 -0.4260
38685SOL    HW127780   8.924   8.416  10.964 -0.3604  0.6084 -1.1076
38685SOL    HW227781   8.977   8.515  10.861 -0.7750  1.5933 -0.3918
38686SOL     OW27782   0.990   2.267   7.511 -0.4430 -0.0471 -0.5783
38686SOL    HW127783   0.988   2.333   7.580  0.2972 -1.4381  0.8446
38686SOL    HW227784   0.955   2.188   7.553  0.1470 -0.9609 -1.7580
38687SOL     OW27785   2.820   1.272  12.625  0.1361  0.1964  0.0747
38687SOL    HW127786   2.793   1.183  12.603 -0.7490  0.5219 -0.1771
38687SOL    HW227787   2.877   1.298  12.553  0.0505 -0.0081 -0.0688
38688SOL     OW27788   8.092   8.773   8.561 -0.3863 -0.0935  0.1585
38688SOL    HW127789   8.109   8.829   8.485  0.4565 -1.1012 -0.4210
38688SOL    HW227790   8.132   8.820   8.634  0.5250 -0.0314 -0.3600
38689SOL     OW27791   8.865   7.473   3.859 -0.0478 -0.2730  0.4391
38689SOL    HW127792   8.849   7.524   3.780  0.8851 -1.1104 -0.3137
38689SOL    HW227793   8.808   7.396   3.849  1.1758 -1.1373 -0.1884
38690SOL     OW27794  13.198   9.304  10.355  0.3890 -0.5894  0.3659
38690SOL    HW127795  13.205   9.212  10.332 -0.8601 -0.4651 -0.6647
38690SOL    HW227796  13.130   9.338  10.297  1.4389  1.1909  0.0710
38691SOL     OW27797   4.586   0.676   7.256  0.2750  0.3529  0.4136
38691SOL    HW127798   4.525   0.681   7.182  1.6391  0.0689 -0.7820
38691SOL    HW227799   4.646   0.605   7.232  1.5877  1.1767  1.1443
38692SOL     OW27800   7.732   0.696   0.488  0.3456 -0.2485 -0.1221
38692SOL    HW127801   7.674   0.684   0.564  0.1636 -0.0637 -0.2312
38692SOL    HW227802   7.803   0.752   0.521  0.7148 -0.8657  0.1398
38693SOL     OW27803  12.329  13.277   0.773  0.4768 -0.6700  0.5585
38693SOL    HW127804  12.397  13.226   0.817  1.6189  0.5394  0.2724
38693SOL    HW227805  12.371  13.362   0.756  0.0448 -0.9866 -2.6546
38694SOL     OW27806  11.315   6.591   5.449  0.0186  0.4517 -0.3780
38694SOL    HW127807  11.395   6.558   5.491 -0.9515  0.5246  1.6369
38694SOL    HW227808  11.281   6.516   5.400 -0.9357 -1.0031  2.2920
38695SOL     OW27809  12.450  12.117   8.803  0.2081 -0.5449 -0.1866
38695SOL    HW127810  12.411  12.081   8.723  1.1847 -0.6333 -0.6391
38695SOL    HW227811  12.526  12.062   8.820  0.6084  0.1085  0.2183
38696SOL     OW27812   2.467   3.056   4.773 -0.1912 -0.4407 -0.4174
38696SOL    HW127813   2.405   3.062   4.846 -0.5163  0.7039 -0.7698
38696SOL    HW227814   2.455   3.137   4.724  2.0810  0.1800 -0.0983
38697SOL     OW27815   5.069   8.477   4.833  0.0541 -0.3043  0.2106
38697SOL    HW127816   5.118   8.449   4.756 -0.6591 -1.6205  0.1975
38697SOL    HW227817   5.062   8.572   4.824 -2.6383 -0.6155 -3.0085
38698SOL     OW27818   4.777   1.921  11.541 -0.4081 -0.4136 -0.3179
38698SOL    HW127819   4.835   1.867  11.596 -0.9541  0.3520  1.0433
38698SOL    HW227820   4.706   1.947  11.599 -0.7773  0.7978 -1.2744
38699SOL     OW27821   2.014   4.411   2.452  0.2626  0.2646 -0.6543
38699SOL    HW127822   2.033   4.353   2.526 -1.2288  0.1978 -0.2855
38699SOL    HW227823   2.094   4.462   2.440  0.8191 -0.3031  0.4742
38700SOL     OW27824  13.425  12.893   5.390  0.4657  0.6782 -0.1312
38700SOL    HW127825  13.471  12.934   5.463  2.1465 -0.8667 -0.2749
38700SOL    HW227826  13.352  12.847   5.431  0.6055  0.9352  0.4168
38701SOL     OW27827  10.777  11.154   8.508  0.2733  0.0746  0.2624
38701SOL    HW127828  10.835  11.114   8.573  1.6345  0.7483 -0.5133
38701SOL    HW227829  10.726  11.081   8.474 -0.6452 -0.2695  2.2237
38702SOL     OW27830   1.614   3.665   9.788 -0.3098  0.1868  0.6274
38702SOL    HW127831   1.636   3.582   9.746 -2.0485 -0.1722  0.3605
38702SOL    HW227832   1.697   3.714   9.789  0.8243 -1.6354  1.0542
38703SOL     OW27833   1.301  13.633   7.393  0.1359 -0.1551  0.0472
38703SOL    HW127834   1.357  13.701   7.356 -0.8624  0.3466 -0.6026
38703SOL    HW227835   1.223  13.633   7.337 -0.6210 -0.6511  1.0609
38704SOL     OW27836  10.654   3.962   2.233 -1.2097 -0.2241 -0.0693
38704SOL    HW127837  10.669   4.036   2.291  0.7434  0.7230 -1.6499
38704SOL    HW227838  10.565   3.974   2.201 -0.6916  1.9337 -0.8676
38705SOL     OW27839  10.272   3.517   7.883  0.4164 -0.2924 -0.1502
38705SOL    HW127840  10.328   3.487   7.954  0.5661  0.2870 -0.0140
38705SOL    HW227841  10.332   3.533   7.810  0.4479  0.4081  0.0214
38706SOL     OW27842  10.681  10.941   2.269 -0.4659 -0.0710  0.1212
38706SOL    HW127843  10.616  10.901   2.327 -0.0533  0.2167  0.7920
38706SOL    HW227844  10.748  10.873   2.258  0.0961  0.3227  1.0351
38707SOL     OW27845   8.895  10.399   2.204 -0.2045  0.5144  0.9144
38707SOL    HW127846   8.962  10.355   2.256  0.1118  0.0805  0.1479
38707SOL    HW227847   8.915  10.493   2.216  0.6951  0.3909  0.5044
38708SOL     OW27848   9.372   2.097   1.802 -0.0207  0.7455  0.2420
38708SOL    HW127849   9.402   2.162   1.865  2.8825  0.6776 -0.9257
38708SOL    HW227850   9.391   2.013   1.843 -0.7943  0.6450  0.4164
38709SOL     OW27851  10.682  13.335   2.811 -0.2124 -0.2098  0.3142
38709SOL    HW127852  10.706  13.291   2.893  0.2716 -0.0810  0.2452
38709SOL    HW227853  10.586  13.341   2.814 -0.3052 -1.4563  0.2222
38710SOL     OW27854   5.470   9.095   0.129  0.3781 -0.2842 -0.1432
38710SOL    HW127855   5.526   9.053   0.195  0.5772  0.4564  0.1821
38710SOL    HW227856   5.446   9.025   0.069  0.2255 -0.9799  0.6957
38711SOL     OW27857   3.401   3.595   8.352  0.1534  0.0004 -0.7263
38711SOL    HW127858   3.396   3.529   8.283 -0.6628  0.6863 -1.3563
38711SOL    HW227859   3.310   3.624   8.364  0.0310 -1.1963  1.7465
38712SOL     OW27860   1.677   5.890  11.768  0.3008  0.1310 -0.3957
38712SOL    HW127861   1.674   5.916  11.676  0.0235  2.6043  0.2409
38712SOL    HW227862   1.588   5.858  11.787  0.6751 -1.5152 -1.2273
38713SOL     OW27863   4.731   9.678   8.660  0.5844 -0.4195  0.1768
38713SOL    HW127864   4.761   9.630   8.583  0.6534  0.6918 -0.5134
38713SOL    HW227865   4.795   9.657   8.728  0.9771 -0.7777 -0.3014
38714SOL     OW27866  11.423   7.290   6.640 -0.5195 -0.7627 -0.2094
38714SOL    HW127867  11.474   7.214   6.669  0.2549 -0.3201 -0.3780
38714SOL    HW227868  11.332   7.268   6.662 -0.2007 -1.3594  0.5613
38715SOL     OW27869  12.617   0.034   4.483  0.1331  0.4651 -0.6603
38715SOL    HW127870  12.636  -0.053   4.449  0.9840  0.7330 -0.9215
38715SOL    HW227871  12.530   0.055   4.448 -0.0058 -0.2047 -0.7327
38716SOL     OW27872  13.364  10.460  11.597  0.1667 -0.3047  0.4886
38716SOL    HW127873  13.397  10.510  11.671  2.7218 -0.2402 -0.6010
38716SOL    HW227874  13.288  10.510  11.566  0.7987  1.2035  1.2952
38717SOL     OW27875  10.284   8.059   6.048 -0.3340 -0.2279 -0.3417
38717SOL    HW127876  10.342   8.121   6.092 -0.4026 -1.2069  1.1644
38717SOL    HW227877  10.331   8.034   5.969  1.8050 -1.8039  1.3412
38718SOL     OW27878   2.355   0.356  10.214 -0.0520  0.3428 -0.6443
38718SOL    HW127879   2.392   0.362  10.302 -0.9458  1.5443 -0.3364
38718SOL    HW227880   2.415   0.407  10.160 -0.8709  1.7681 -0.2544
38719SOL     OW27881   0.530   7.769   4.134 -0.3010 -0.4375  0.1380
38719SOL    HW127882   0.436   7.777   4.115 -0.3911 -0.7115  0.4687
38719SOL    HW227883   0.562   7.859   4.134 -0.6206 -0.3230  0.2951
38720SOL     OW27884  11.464  11.462   1.515 -0.2868 -0.2410  0.2633
38720SOL    HW127885  11.437  11.380   1.475  0.4415  0.3423 -1.5527
38720SOL    HW227886  11.384  11.499   1.552 -1.0080 -0.8599 -0.6320
38721SOL     OW27887   2.211   3.238   7.516  0.7557 -0.1854 -0.0692
38721SOL    HW127888   2.254   3.275   7.439 -0.0868  2.2561  0.5476
38721SOL    HW227889   2.267   3.262   7.589  0.8359 -1.2894  0.2543
38722SOL     OW27890   7.818   0.844  10.421  0.3726 -0.2830 -0.5745
38722SOL    HW127891   7.893   0.847  10.362  1.0425 -1.8453  0.1467
38722SOL    HW227892   7.850   0.797  10.498 -0.8076  0.6918  0.5660
38723SOL     OW27893   2.675   0.356   8.062  0.0506 -0.0596  0.3403
38723SOL    HW127894   2.670   0.415   7.987  0.7013 -0.1088  0.2468
38723SOL    HW227895   2.586   0.324   8.074  0.2507 -1.5274 -1.6158
38724SOL     OW27896  10.864   3.531  11.629 -0.0550  0.3998 -0.0129
38724SOL    HW127897  10.849   3.564  11.717  2.4413  1.1913  0.2035
38724SOL    HW227898  10.795   3.467  11.615 -0.5071  0.2378  2.5209
38725SOL     OW27899   0.201  11.654   6.230 -0.4401  0.1068  0.3065
38725SOL    HW127900   0.111  11.659   6.197  0.1928 -1.1731 -1.8080
38725SOL    HW227901   0.228  11.564   6.211  1.1079  0.2937  1.4626
38726SOL     OW27902   4.079  13.131  12.636 -0.1300 -0.1461 -0.0791
38726SOL    HW127903   4.084  13.122  12.541  0.8607 -1.3030  0.0535
38726SOL    HW227904   4.064  13.043  12.668 -1.8624  0.4340  0.7934
38727SOL     OW27905  11.734   8.758   4.236 -0.7709 -0.4081 -0.5952
38727SOL    HW127906  11.817   8.804   4.241  0.3837 -2.3928 -0.1426
38727SOL    HW227907  11.710   8.741   4.327 -1.7127  0.2017 -0.7210
38728SOL     OW27908  12.240   0.807  10.922 -0.4788  0.1256  0.5052
38728SOL    HW127909  12.282   0.864  10.987 -1.5610  1.4144  0.1142
38728SOL    HW227910  12.290   0.821  10.842 -2.6774  3.1983 -0.5084
38729SOL     OW27911   8.682   5.961   5.115 -0.0548  0.7777  0.5480
38729SOL    HW127912   8.744   5.920   5.176  1.1775  0.4731 -0.8509
38729SOL    HW227913   8.603   5.908   5.122  0.1939  0.5281  1.6132
38730SOL     OW27914   2.836   9.811  12.682  0.2400 -0.1182 -0.2479
38730SOL    HW127915   2.891   9.889  12.693  0.5365 -0.5380  1.4933
38730SOL    HW227916   2.755   9.845  12.644  0.3519  1.0487  0.4980
38731SOL     OW27917   2.404  12.405   1.037 -0.0875  0.0298 -0.2514
38731SOL    HW127918   2.400  12.393   0.942  0.0809  2.1898 -0.5733
38731SOL    HW227919   2.350  12.482   1.054 -0.6373 -0.6826  1.5141
38732SOL     OW27920   1.082  12.682   5.450  0.4527  0.2795 -0.0641
38732SOL    HW127921   1.165  12.655   5.491  0.5700 -1.0829 -1.1352
38732SOL    HW227922   1.069  12.772   5.481  0.7370 -0.5147  2.6263
38733SOL     OW27923   7.359   1.154  12.564  0.6007 -0.0923  0.4460
38733SOL    HW127924   7.270   1.122  12.578  1.1820 -1.1813  1.8567
38733SOL    HW227925   7.354   1.204  12.483 -1.8307  1.9365  1.7019
38734SOL     OW27926   1.527   2.337  13.705  0.1274 -0.0286 -0.8803
38734SOL    HW127927   1.493   2.303  13.788  2.0812 -0.8240 -0.3631
38734SOL    HW227928   1.573   2.417  13.728  0.8788 -0.3746 -1.1612
38735SOL     OW27929   2.901   4.748   5.012 -0.0295  0.2697  0.1115
38735SOL    HW127930   2.879   4.733   4.920  0.9523  1.3464 -0.3312
38735SOL    HW227931   2.893   4.843   5.023 -1.2929  0.0375  1.4704
38736SOL     OW27932   0.161   7.963   6.973 -0.4143 -0.2544 -0.2754
38736SOL    HW127933   0.240   8.004   6.938  1.1394 -2.1929  0.8014
38736SOL    HW227934   0.102   8.037   6.990  1.2661  1.2894 -0.8259
38737SOL     OW27935   1.683   5.774   8.200  0.0554 -0.0700 -0.1279
38737SOL    HW127936   1.706   5.751   8.290  3.0132 -0.3276 -0.8330
38737SOL    HW227937   1.588   5.768   8.197 -0.2397  0.8480  3.1897
38738SOL     OW27938   7.685   3.718   6.478  0.2758 -0.0212  0.5662
38738SOL    HW127939   7.735   3.638   6.496  0.9735  0.4838  0.9093
38738SOL    HW227940   7.604   3.687   6.437  0.5444 -0.9015  0.6853
38739SOL     OW27941   6.922   3.787   7.664 -0.0104 -0.0319 -0.5143
38739SOL    HW127942   6.950   3.710   7.616 -1.5645 -0.9722  0.0156
38739SOL    HW227943   6.943   3.768   7.755 -3.0091 -1.1844  0.0445
38740SOL     OW27944   5.930   3.108  12.147 -0.5737  0.4103 -0.0312
38740SOL    HW127945   5.917   3.066  12.232 -2.3034 -0.8325 -0.8366
38740SOL    HW227946   5.842   3.137  12.122  0.1708  2.1847 -0.6972
38741SOL     OW27947   8.343   8.243   2.654 -0.1405 -0.4889 -1.0077
38741SOL    HW127948   8.307   8.330   2.636 -1.0012 -1.0660 -2.3096
38741SOL    HW227949   8.267   8.191   2.679  0.1222 -1.2146 -1.6889
38742SOL     OW27950   1.206   9.259   4.238  0.3776  0.4868 -0.5247
38742SOL    HW127951   1.245   9.196   4.299  0.6185 -0.2705 -1.4298
38742SOL    HW227952   1.125   9.287   4.281 -0.8857 -2.0962 -0.9886
38743SOL     OW27953  11.591  13.712   3.711 -0.6699  0.2015 -0.1130
38743SOL    HW127954  11.669  13.752   3.749 -0.7347 -2.1280  2.7971
38743SOL    HW227955  11.524  13.780   3.716  0.6332  1.5732 -0.7829
38744SOL     OW27956   7.984   6.966   5.551  0.6573  0.0918  0.4734
38744SOL    HW127957   7.998   6.954   5.457  3.1676  1.1725  0.6152
38744SOL    HW227958   7.954   7.057   5.559 -1.0004 -0.4453  0.6494
38745SOL     OW27959  12.845   0.096   2.914  0.7673 -0.7027 -0.9207
38745SOL    HW127960  12.882   0.028   2.858  1.8748 -0.2291 -0.8052
38745SOL    HW227961  12.832   0.053   2.999 -0.3710 -1.2654 -1.3644
38746SOL     OW27962  12.592   0.099  12.165  0.5801  0.0594  0.3892
38746SOL    HW127963  12.618   0.110  12.074  2.5682 -0.4801  0.8455
38746SOL    HW227964  12.543   0.178  12.186  0.0025  0.1499 -1.1517
38747SOL     OW27965   4.464   5.139  10.827  0.6063 -0.0987 -0.3733
38747SOL    HW127966   4.478   5.066  10.767 -1.6812 -0.5571 -0.4400
38747SOL    HW227967   4.471   5.101  10.914  0.2185 -0.2337 -0.3996
38748SOL     OW27968   8.432   9.573   6.476  0.0876  0.1437 -0.7213
38748SOL    HW127969   8.479   9.498   6.438  0.1514 -0.6351  0.7817
38748SOL    HW227970   8.479   9.590   6.558 -2.0287 -0.4954  0.7261
38749SOL     OW27971  10.591  13.710   4.620  0.4515 -0.0316  0.5089
38749SOL    HW127972  10.567  13.674   4.706 -0.4959 -0.3668  0.1204
38749SOL    HW227973  10.519  13.769   4.599  0.9858  0.5184  0.2155
38750SOL     OW27974  12.957  11.132   0.611 -0.4390 -0.0713 -0.0330
38750SOL    HW127975  12.916  11.046   0.601 -1.5080  0.3600  0.4457
38750SOL    HW227976  13.051  11.114   0.611 -0.6492 -1.4491  1.6359
38751SOL     OW27977  11.201  13.009   8.801 -0.2798 -0.2182 -0.0938
38751SOL    HW127978  11.169  12.976   8.885  1.6348  0.7878  1.1041
38751SOL    HW227979  11.123  13.044   8.759 -1.2898 -0.6776  1.2992
38752SOL     OW27980   7.859   9.240   7.351  0.1088 -0.6471 -0.0233
38752SOL    HW127981   7.853   9.195   7.435  1.8887 -0.8514  0.0303
38752SOL    HW227982   7.838   9.331   7.372  0.0601 -0.7839  0.5455
38753SOL     OW27983   5.589  12.858   0.396 -0.5313 -0.6713 -0.2606
38753SOL    HW127984   5.592  12.884   0.488 -1.1210 -1.6053  0.0282
38753SOL    HW227985   5.556  12.936   0.351  0.6163  0.1080  0.1740
38754SOL     OW27986  10.949   3.283  10.040 -0.3776 -0.0285 -0.0450
38754SOL    HW127987  10.909   3.368  10.020  0.1999 -0.4426 -3.5282
38754SOL    HW227988  11.035   3.305  10.077 -0.2867  0.9177 -0.7850
38755SOL     OW27989  13.482  12.490   4.119  0.2434 -0.5816 -0.6454
38755SOL    HW127990  13.461  12.536   4.038 -1.7064 -1.1617 -0.5188
38755SOL    HW227991  13.555  12.540   4.157  0.9021 -0.0404 -2.4990
38756SOL     OW27992   3.681   9.521   5.489 -0.0805  0.5860  0.4272
38756SOL    HW127993   3.746   9.580   5.453 -0.1987 -0.3066 -1.3858
38756SOL    HW227994   3.603   9.575   5.501  0.3586  1.1892  0.6037
38757SOL     OW27995  13.715  13.081   1.521 -0.3469  0.2632  0.2606
38757SOL    HW127996  13.774  13.126   1.581 -1.1286  0.7695  0.6794
38757SOL    HW227997  13.768  13.063   1.444 -0.0772  2.1941 -0.0522
38758SOL     OW27998   4.714   4.248  10.387 -0.4480 -0.2710  0.1003
38758SOL    HW127999   4.619   4.250  10.384 -0.5205 -0.3863 -4.0533
38758SOL    HW228000   4.741   4.335  10.358  0.7897 -0.0461  1.7628
38759SOL     OW28001   7.172   3.943   5.741 -0.1127  0.2234  0.0977
38759SOL    HW128002   7.078   3.932   5.727 -0.1174 -0.8512  0.8227
38759SOL    HW228003   7.181   3.949   5.836  0.4312  1.7286 -0.0261
38760SOL     OW28004  12.554   3.831   0.217 -0.1007  0.4325  0.4852
38760SOL    HW128005  12.557   3.910   0.271 -2.5930  2.1837 -1.6266
38760SOL    HW228006  12.469   3.792   0.236  0.2498 -0.6085  0.0012
38761SOL     OW28007   2.681   0.424   7.019 -0.3501  0.1475 -0.1124
38761SOL    HW128008   2.622   0.496   6.997 -0.3966 -0.2253 -1.2641
38761SOL    HW228009   2.669   0.361   6.949  0.0903 -0.7494  0.5963
38762SOL     OW28010   3.943   7.700   8.655 -0.1461  0.7459  0.9444
38762SOL    HW128011   3.862   7.747   8.671 -0.5851  0.1707  0.4486
38762SOL    HW228012   3.946   7.690   8.560 -1.1983 -2.1644  1.1343
38763SOL     OW28013   0.970   6.373   7.860  0.6991  0.2051 -0.0108
38763SOL    HW128014   1.051   6.424   7.867  1.7296 -1.3903  0.2470
38763SOL    HW228015   0.928   6.381   7.946 -0.4552  2.5915 -0.7093
38764SOL     OW28016   2.543   6.608   8.712 -0.0439  1.0456 -0.3366
38764SOL    HW128017   2.591   6.583   8.633 -0.0740 -0.0884 -0.0135
38764SOL    HW228018   2.582   6.555   8.782 -0.8232  1.1314  0.1838
38765SOL     OW28019   5.564   1.083  10.206  0.3948 -0.0457 -0.1631
38765SOL    HW128020   5.511   1.151  10.248  0.5763 -0.7156  1.2277
38765SOL    HW228021   5.576   1.018  10.275  1.0663 -1.0070 -1.1711
38766SOL     OW28022   6.715   8.750   6.978  0.5263 -0.4071 -0.5405
38766SOL    HW128023   6.697   8.794   6.895 -0.3440  0.0946 -0.0987
38766SOL    HW228024   6.810   8.759   6.989  0.4857  0.6215 -0.8820
38767SOL     OW28025  11.651   4.794   1.818 -0.1503 -0.1273 -0.0913
38767SOL    HW128026  11.590   4.865   1.802  1.4425  1.1437 -0.8732
38767SOL    HW228027  11.643   4.775   1.912 -2.4639 -0.7715 -0.3575
38768SOL     OW28028   0.372   9.537   4.179  0.6544  0.0476 -0.2286
38768SOL    HW128029   0.356   9.541   4.273  1.9011 -1.1276  0.0685
38768SOL    HW228030   0.297   9.489   4.144  0.3015  0.2841  0.1944
38769SOL     OW28031   1.290   5.446  10.383  0.2768  0.2175 -0.4862
38769SOL    HW128032   1.344   5.384  10.334 -0.7671 -1.7805  0.7399
38769SOL    HW228033   1.346   5.476  10.455  1.0509  1.3868 -1.5331
38770SOL     OW28034   7.430   9.487  13.734 -0.4978  0.5051 -0.0756
38770SOL    HW128035   7.350   9.478  13.682 -1.3617 -0.2325  1.3273
38770SOL    HW228036   7.409   9.444  13.817  1.5530 -0.1961  0.1212
38771SOL     OW28037   3.452   1.175   2.124 -0.1938  0.3803 -0.0031
38771SOL    HW128038   3.405   1.164   2.041  0.8481  0.7871 -0.6692
38771SOL    HW228039   3.462   1.086   2.157 -0.6000  0.2110 -0.3261
38772SOL     OW28040   3.198   8.550   9.748 -0.0689  0.1481 -0.2023
38772SOL    HW128041   3.119   8.521   9.793  0.0213 -1.7203 -1.1324
38772SOL    HW228042   3.167   8.578   9.662  0.2852 -0.8891 -0.6843
38773SOL     OW28043   7.049   1.675   1.712  0.4027  0.2508  0.1257
38773SOL    HW128044   7.057   1.680   1.617 -3.0250 -1.4574 -0.4118
38773SOL    HW228045   7.058   1.582   1.732  0.5126  0.5130  1.4074
38774SOL     OW28046   2.914   1.938   9.504  0.8965  0.1846  0.0454
38774SOL    HW128047   2.840   1.981   9.461  1.8862  2.0831  0.1448
38774SOL    HW228048   2.947   1.875   9.440 -0.4892 -0.3552 -0.1712
38775SOL     OW28049   2.097   8.785   6.453 -0.5478  0.1861  0.3011
38775SOL    HW128050   2.111   8.877   6.432 -2.0129  0.6061  1.0082
38775SOL    HW228051   2.035   8.786   6.526 -2.1313 -1.3739 -0.9346
38776SOL     OW28052   2.029  10.409   6.746  0.4635 -0.0181  0.3001
38776SOL    HW128053   2.044  10.477   6.812  2.4537 -1.0802  0.9898
38776SOL    HW228054   1.954  10.442   6.696  0.6637  2.1559  1.2987
38777SOL     OW28055   4.552   9.975   8.032  0.7938 -0.5428  0.3520
38777SOL    HW128056   4.469   9.973   7.984  0.7966  1.0722  0.2291
38777SOL    HW228057   4.614   9.932   7.973 -0.0447 -2.3457  0.7067
38778SOL     OW28058   6.868   3.350  10.827  0.3399  0.1115  0.3014
38778SOL    HW128059   6.888   3.414  10.896  0.1002  1.0872 -0.5065
38778SOL    HW228060   6.774   3.333  10.837  0.2424  0.4858  0.0250
38779SOL     OW28061   1.807   4.739   9.077 -0.0173 -0.5041 -0.0620
38779SOL    HW128062   1.899   4.745   9.049  0.4117  0.0240  1.3654
38779SOL    HW228063   1.802   4.657   9.125 -0.3859 -0.7015 -0.4351
38780SOL     OW28064   1.897   5.675   0.654  0.1225 -0.4951 -0.7893
38780SOL    HW128065   1.802   5.681   0.648  0.1476 -0.3026 -1.0102
38780SOL    HW228066   1.928   5.701   0.567  0.4092  0.0833 -0.5127
38781SOL     OW28067   3.911  13.590  13.706  0.5094  0.1248 -0.0254
38781SOL    HW128068   3.919  13.575  13.800  0.7870  2.5340  0.4085
38781SOL    HW228069   3.981  13.653  13.686  0.1759  0.0048 -1.7534
38782SOL     OW28070   4.202  12.955   8.972 -0.1000  0.0284  1.1351
38782SOL    HW128071   4.116  12.913   8.964  0.9369 -2.0293 -0.2008
38782SOL    HW228072   4.254  12.916   8.901  1.8574  1.4098  1.7381
38783SOL     OW28073   6.462  13.586  10.983 -0.2543  0.1850 -0.1990
38783SOL    HW128074   6.388  13.591  10.922 -0.3589  0.8812 -0.0181
38783SOL    HW228075   6.428  13.537  11.058 -0.1125 -0.7198 -0.7117
38784SOL     OW28076   2.158   6.816   1.920 -0.5886  0.1918 -0.1701
38784SOL    HW128077   2.129   6.725   1.916  1.0908 -0.4616  1.3035
38784SOL    HW228078   2.235   6.820   1.863 -1.0275  0.8613 -0.7296
38785SOL     OW28079  10.987   6.441  11.521 -0.4606  0.2178  0.0892
38785SOL    HW128080  10.952   6.507  11.461 -0.4597  0.7213  0.6353
38785SOL    HW228081  11.079   6.464  11.531 -0.6440  0.6173  0.9111
38786SOL     OW28082   8.579   9.853  12.224  0.4090  0.8297 -0.6677
38786SOL    HW128083   8.550   9.825  12.137 -0.8565  2.0310 -0.6823
38786SOL    HW228084   8.501   9.844  12.279  1.6736 -1.7036  0.8504
38787SOL     OW28085   0.746   8.910   8.980 -1.1355  0.0435  0.3319
38787SOL    HW128086   0.799   8.990   8.978 -1.2481  0.1830  1.6543
38787SOL    HW228087   0.686   8.919   8.906 -0.7157  0.8835  0.0840
38788SOL     OW28088  10.081  12.120   0.592  0.0838  0.1739  0.0684
38788SOL    HW128089  10.169  12.157   0.597 -0.1061  1.6216 -3.8729
38788SOL    HW228090  10.024  12.187   0.630  0.4915  0.0160  0.9808
38789SOL     OW28091  13.666   3.339  13.050 -0.3030  0.9519  0.5850
38789SOL    HW128092  13.670   3.323  12.956 -0.5574 -0.2551  0.7607
38789SOL    HW228093  13.602   3.410  13.060 -0.5701  0.8113 -0.1236
38790SOL     OW28094  10.606  10.785  12.799  0.5262  0.5673  0.1905
38790SOL    HW128095  10.663  10.786  12.723  1.6890  0.0936  1.0257
38790SOL    HW228096  10.520  10.813  12.766  1.0902  0.7023 -1.2021
38791SOL     OW28097   0.042  11.366   9.868 -0.6376  0.4432  0.3449
38791SOL    HW128098   0.112  11.428   9.849 -0.4913  0.1994  0.0846
38791SOL    HW228099   0.069  11.322   9.949 -0.5117  0.3843  0.2715
38792SOL     OW28100   9.419   4.329   2.158 -0.5889  0.0463  0.2607
38792SOL    HW128101   9.389   4.413   2.123  1.1414  0.8049  0.4720
38792SOL    HW228102   9.442   4.278   2.080 -0.4314  0.2597  0.1668
38793SOL     OW28103   7.802   9.110  12.410  0.3364 -0.5541  0.0367
38793SOL    HW128104   7.814   9.153  12.494 -0.2840 -1.7984  0.7885
38793SOL    HW228105   7.875   9.141  12.357 -0.1801  1.5465  0.4532
38794SOL     OW28106   8.785   1.680  12.093 -0.1516  0.4635  0.3153
38794SOL    HW128107   8.847   1.623  12.140 -0.2553 -0.0050 -0.1069
38794SOL    HW228108   8.729   1.716  12.162 -0.3144 -0.2343  0.5599
38795SOL     OW28109  10.765   4.886   1.291  0.7925 -0.0797  0.2257
38795SOL    HW128110  10.840   4.837   1.325 -0.5844 -2.1014  0.5211
38795SOL    HW228111  10.701   4.819   1.267 -1.5362  1.5800  1.3900
38796SOL     OW28112   6.661   5.854   8.376 -0.3320  1.0616  0.7660
38796SOL    HW128113   6.711   5.890   8.302  1.8144  0.4968  1.8334
38796SOL    HW228114   6.681   5.760   8.373 -2.2266  0.6292  0.6464
38797SOL     OW28115   4.022   2.001   6.471  0.8589  0.1643 -0.1279
38797SOL    HW128116   4.059   2.088   6.457 -0.8266  0.9578  0.1115
38797SOL    HW228117   3.934   2.017   6.506  0.7736 -1.6420  0.6191
38798SOL     OW28118   3.103   7.552  10.849 -0.0841 -0.2874 -0.2824
38798SOL    HW128119   3.035   7.566  10.916 -0.1112  2.8412 -0.7754
38798SOL    HW228120   3.103   7.634  10.800  2.4482 -1.1337 -1.8248
38799SOL     OW28121   6.216   6.883  11.500  0.3301 -1.1554 -0.0235
38799SOL    HW128122   6.282   6.832  11.546  0.9636  0.5310  1.0413
38799SOL    HW228123   6.201   6.959  11.556  1.6726  1.4405 -2.8580
38800SOL     OW28124  10.332   1.952  13.488  0.0541  0.6478  0.2494
38800SOL    HW128125  10.240   1.978  13.494 -0.2204  0.3879 -2.0673
38800SOL    HW228126  10.356   1.965  13.396  2.7220  1.8573  1.0124
38801SOL     OW28127   2.350   2.499  12.983 -0.6764 -0.3498 -0.2416
38801SOL    HW128128   2.289   2.471  13.051 -0.7377 -0.8814 -0.5101
38801SOL    HW228129   2.437   2.488  13.022 -0.7229 -0.3879 -0.1490
38802SOL     OW28130  12.499   2.768   3.664  0.4631 -0.0346  0.3064
38802SOL    HW128131  12.570   2.833   3.663  1.0811 -0.7066 -0.1714
38802SOL    HW228132  12.541   2.685   3.641 -0.1161 -0.8330  1.9710
38803SOL     OW28133  11.531   9.118   9.160  0.1424 -0.1577  0.4993
38803SOL    HW128134  11.557   9.202   9.197 -1.3395  0.6638 -0.2311
38803SOL    HW228135  11.438   9.128   9.141 -0.8056 -2.9116  2.9820
38804SOL     OW28136   8.679   9.338   9.568 -0.3072  0.8833 -0.1406
38804SOL    HW128137   8.762   9.290   9.568 -0.0455  1.2814 -1.7474
38804SOL    HW228138   8.620   9.283   9.620  0.2579 -0.7245 -1.1165
38805SOL     OW28139   0.871   3.446   3.314  0.1448 -0.3189 -0.5195
38805SOL    HW128140   0.957   3.486   3.299  0.2659 -1.0251 -1.8436
38805SOL    HW228141   0.814   3.520   3.336  1.2832  0.0389  1.3698
38806SOL     OW28142   4.169  12.258   7.725  0.4208  0.5444  0.8741
38806SOL    HW128143   4.090  12.226   7.683  0.8433 -1.7265  1.6711
38806SOL    HW228144   4.137  12.312   7.798 -0.4065 -0.3770  1.2128
38807SOL     OW28145   7.899  10.361   0.132  0.7828  0.5806 -0.3213
38807SOL    HW128146   7.916  10.369   0.038  3.1284 -3.4142 -0.4594
38807SOL    HW228147   7.810  10.326   0.138  0.3644  1.5055 -0.9810
38808SOL     OW28148  12.718   6.928  10.366 -0.0992 -0.3395 -0.4738
38808SOL    HW128149  12.809   6.952  10.381 -0.2000  0.5509 -1.2205
38808SOL    HW228150  12.700   6.862  10.433 -0.2616  2.6925  2.7667
38809SOL     OW28151   9.760   6.226   7.652  0.0211  0.1394 -0.1497
38809SOL    HW128152   9.739   6.222   7.558  0.0871 -2.7269 -0.1096
38809SOL    HW228153   9.845   6.183   7.659 -1.4775 -2.8474  1.5619
38810SOL     OW28154  11.079  10.727   1.345 -0.6399  0.0129  0.9122
38810SOL    HW128155  11.130  10.657   1.304  0.7048  1.8951 -0.8183
38810SOL    HW228156  10.991  10.716   1.309  0.1184  0.5998 -1.2970
38811SOL     OW28157   8.135   6.293   9.671 -0.3076  0.1595  0.2509
38811SOL    HW128158   8.163   6.360   9.609 -0.9553 -0.4694 -0.7590
38811SOL    HW228159   8.095   6.341   9.743 -0.0365  0.8868 -0.0781
38812SOL     OW28160   6.030  13.212  12.960 -0.8077  0.7574  0.0394
38812SOL    HW128161   6.105  13.188  12.906 -0.2037 -0.1867  1.2288
38812SOL    HW228162   5.964  13.145  12.940 -0.5570  0.3649  0.5188
38813SOL     OW28163   1.056   2.860   6.873 -0.2843 -0.4484 -0.6925
38813SOL    HW128164   1.033   2.816   6.791 -0.4721 -0.2840 -0.7291
38813SOL    HW228165   1.127   2.807   6.910 -0.3091 -0.6137 -0.8814
38814SOL     OW28166  11.698  10.756  13.502 -0.0105  0.6722  0.0266
38814SOL    HW128167  11.739  10.692  13.560 -1.8754 -0.4027  0.2499
38814SOL    HW228168  11.688  10.835  13.556 -0.4400  0.1403  0.7422
38815SOL     OW28169  12.967   1.968  10.350  0.4327  0.4629 -0.4148
38815SOL    HW128170  12.943   1.925  10.432  0.3837  0.0534 -0.6424
38815SOL    HW228171  13.037   2.029  10.374  2.4579 -1.6783 -0.5350
38816SOL     OW28172   3.317   9.063  13.157 -0.1307  0.1032  0.1081
38816SOL    HW128173   3.333   8.969  13.166 -0.6115 -0.0575 -0.5636
38816SOL    HW228174   3.233   9.068  13.110  0.3229  0.8497 -0.6600
38817SOL     OW28175  11.263   3.874   9.202  0.3316 -0.6690  0.2715
38817SOL    HW128176  11.329   3.880   9.270 -0.8818  0.3865  1.4130
38817SOL    HW228177  11.250   3.964   9.172 -1.6816 -0.5825  1.2115
38818SOL     OW28178  11.873   1.642  10.437 -0.2606  0.2750  0.1338
38818SOL    HW128179  11.831   1.721  10.471 -0.5740  0.0576  0.2553
38818SOL    HW228180  11.915   1.670  10.356 -0.1525  0.6256  0.3123
38819SOL     OW28181   3.525   0.059   7.638  0.5382  0.0390 -0.9156
38819SOL    HW128182   3.537   0.132   7.577 -3.4201  1.0289 -0.7667
38819SOL    HW228183   3.459   0.004   7.597  1.8199 -2.3385  0.0278
38820SOL     OW28184   2.635   8.695  13.058 -0.6634 -0.0560  0.2013
38820SOL    HW128185   2.663   8.626  13.118 -0.8793  0.4342  0.8823
38820SOL    HW228186   2.543   8.709  13.080 -0.5012  0.7650  0.3965
38821SOL     OW28187  12.980   3.320  13.062  0.4533 -0.2546  0.4489
38821SOL    HW128188  13.016   3.236  13.032  1.8381  0.0250  1.2203
38821SOL    HW228189  13.019   3.332  13.149 -0.6318  0.6500  0.8297
38822SOL     OW28190   6.338   0.829   8.381  0.2817 -0.5305 -0.3267
38822SOL    HW128191   6.355   0.793   8.294  1.5691  1.4907 -0.9760
38822SOL    HW228192   6.365   0.920   8.375 -1.9966  0.3680  1.4811
38823SOL     OW28193   7.966   9.424   1.703  0.2743  0.2763  0.7006
38823SOL    HW128194   7.930   9.506   1.669  1.6437  0.7956  0.4347
38823SOL    HW228195   8.007   9.383   1.626 -1.4924 -1.3065  0.5382
38824SOL     OW28196   7.979   1.186   2.494  0.3074 -0.3562 -0.1474
38824SOL    HW128197   7.957   1.246   2.565 -0.4449  0.3677 -0.9598
38824SOL    HW228198   7.981   1.241   2.416 -0.6841 -1.4237 -0.9635
38825SOL     OW28199   7.834   6.853  12.311  0.0762  0.0114 -0.4369
38825SOL    HW128200   7.849   6.922  12.246  0.3802  0.6987  0.3449
38825SOL    HW228201   7.910   6.858  12.369 -0.7164  0.1379  0.6102
38826SOL     OW28202   3.042   1.582  12.778  0.4551 -0.0269 -0.4328
38826SOL    HW128203   3.043   1.675  12.755 -0.3341 -0.0860 -0.7274
38826SOL    HW228204   3.017   1.538  12.697 -0.8342 -0.3574  0.1208
38827SOL     OW28205  12.157  11.203   2.714 -0.1700  0.2497  0.0041
38827SOL    HW128206  12.192  11.115   2.698  1.8399  1.0613 -0.4028
38827SOL    HW228207  12.140  11.206   2.808  0.2414 -0.4191  0.1029
38828SOL     OW28208   3.883   4.368   7.834  0.0540  0.0545  0.0367
38828SOL    HW128209   3.911   4.364   7.743 -1.2164 -2.4045 -0.3352
38828SOL    HW228210   3.788   4.371   7.831 -0.0334 -0.5669  1.2826
38829SOL     OW28211   2.189   5.260   9.295 -0.4230  0.3863  0.0956
38829SOL    HW128212   2.206   5.288   9.385 -2.3207  1.3126  0.2123
38829SOL    HW228213   2.272   5.273   9.250 -0.1389  2.5173  1.1007
38830SOL     OW28214   3.355   6.329   8.724 -0.2076 -0.0813 -0.7737
38830SOL    HW128215   3.322   6.252   8.770  0.6254  0.3034  0.4980
38830SOL    HW228216   3.418   6.294   8.661 -2.5654 -0.7842 -2.9224
38831SOL     OW28217   4.600   5.664   8.367  0.3194 -0.6580 -0.3740
38831SOL    HW128218   4.604   5.740   8.424 -2.1922 -1.7363  1.4185
38831SOL    HW228219   4.511   5.666   8.331  0.6119 -2.0878 -1.2544
38832SOL     OW28220   0.099   5.168   0.540 -0.2255  0.5963  0.1764
38832SOL    HW128221   0.092   5.098   0.476 -0.4744  1.4164 -0.7149
38832SOL    HW228222   0.133   5.126   0.619  2.2858 -0.0456 -1.1686
38833SOL     OW28223   0.404   1.277  13.199 -0.3288 -0.9385  0.2507
38833SOL    HW128224   0.431   1.195  13.242 -1.4594 -1.1344  0.6281
38833SOL    HW228225   0.485   1.315  13.168  0.3726 -1.5459  1.2596
38834SOL     OW28226   5.335  13.387   1.449  0.0271  0.0684  0.2076
38834SOL    HW128227   5.325  13.462   1.390 -1.1675 -0.3887 -0.2055
38834SOL    HW228228   5.429  13.366   1.445 -0.1056 -0.3556 -2.0690
38835SOL     OW28229   7.600   7.747  11.170  0.2956  0.1136  0.2470
38835SOL    HW128230   7.648   7.702  11.101  1.6867  0.6758  0.8057
38835SOL    HW228231   7.509   7.744  11.142  0.6810 -0.7254 -1.0023
38836SOL     OW28232   3.886   4.540   3.855 -0.6055  0.3766 -0.2009
38836SOL    HW128233   3.942   4.569   3.783  0.5251  0.4448  0.6578
38836SOL    HW228234   3.816   4.605   3.859 -0.7241  0.3252 -1.2787
38837SOL     OW28235   6.807  10.455   6.246 -0.1740  0.0826  0.0082
38837SOL    HW128236   6.827  10.548   6.250 -0.2502  0.3691 -3.2423
38837SOL    HW228237   6.712  10.452   6.235 -0.0971 -0.3022 -0.6166
38838SOL     OW28238   6.857  11.761   2.535 -1.0058  0.6729 -0.3365
38838SOL    HW128239   6.836  11.799   2.449  0.0932  0.1235 -0.8646
38838SOL    HW228240   6.802  11.811   2.596 -1.0908  1.7454 -1.2384
38839SOL     OW28241   7.514  13.389   2.227  0.1294 -0.4352  0.2365
38839SOL    HW128242   7.570  13.439   2.168  0.5809  0.4646  1.3882
38839SOL    HW228243   7.456  13.339   2.169  1.3619 -0.5282 -0.9599
38840SOL     OW28244   5.082   5.989   7.240 -0.4492  0.0876 -0.2102
38840SOL    HW128245   5.024   5.918   7.264  0.6266  0.0294  2.5534
38840SOL    HW228246   5.065   6.058   7.305  1.8706  0.4015  0.1596
38841SOL     OW28247   8.722  11.556   8.357 -0.3211  0.1467  0.3463
38841SOL    HW128248   8.717  11.561   8.453 -1.0598  1.0131  0.2715
38841SOL    HW228249   8.794  11.614   8.333  0.3946 -0.6938  0.4195
38842SOL     OW28250  10.495   7.093   3.674  0.1213 -0.1213 -0.0721
38842SOL    HW128251  10.441   7.068   3.749 -0.7207 -0.6591 -0.8236
38842SOL    HW228252  10.552   7.018   3.658 -1.9054 -1.4123 -1.8819
38843SOL     OW28253  13.031   0.153   2.287  0.2698 -0.4315 -0.0974
38843SOL    HW128254  12.987   0.115   2.362 -0.7308 -0.4343 -0.6733
38843SOL    HW228255  12.967   0.150   2.216  0.9994  0.0783 -0.8120
38844SOL     OW28256  13.202   3.086   1.724 -0.0962  0.0226 -0.9868
38844SOL    HW128257  13.257   3.112   1.650 -0.0603  1.8201 -0.3785
38844SOL    HW228258  13.263   3.074   1.797 -0.2327 -0.7678 -0.9961
38845SOL     OW28259   7.472   2.941  11.126 -0.4023 -0.0470 -0.0027
38845SOL    HW128260   7.443   2.969  11.213  0.6260  1.1880 -0.0267
38845SOL    HW228261   7.485   2.847  11.134 -2.4247 -0.3224  0.5461
38846SOL     OW28262  12.892   0.623   6.884 -0.1328  0.7525 -0.3347
38846SOL    HW128263  12.859   0.594   6.969 -1.4786  1.9946 -0.3814
38846SOL    HW228264  12.948   0.698   6.904  2.1240 -0.8754 -0.3262
38847SOL     OW28265  12.595   1.002   9.026  0.2532  0.2691  0.4911
38847SOL    HW128266  12.547   1.029   9.104  0.2884 -0.4791  0.7772
38847SOL    HW228267  12.624   1.084   8.986 -0.4928  0.6923  0.7987
38848SOL     OW28268   3.080   3.646   2.709 -0.1170  0.2063 -0.1415
38848SOL    HW128269   3.003   3.663   2.763  0.6466  3.2337  0.1619
38848SOL    HW228270   3.054   3.671   2.620  0.6064  1.6391  0.0337
38849SOL     OW28271  10.486  13.116  10.183  0.8091  0.0422 -0.3270
38849SOL    HW128272  10.465  13.199  10.141 -1.2314 -0.1517  0.2091
38849SOL    HW228273  10.423  13.054  10.147  0.4711 -0.6250  1.3174
38850SOL     OW28274   8.376  10.131   7.225  0.4525 -0.4650 -0.4409
38850SOL    HW128275   8.437  10.123   7.297  0.2292  0.9919 -0.0512
38850SOL    HW228276   8.427  10.172   7.155  0.1135  0.1076 -0.3560
38851SOL     OW28277   2.310   5.864   2.726 -0.1450 -0.6568  0.1234
38851SOL    HW128278   2.358   5.939   2.761  1.7947  0.5780 -4.3937
38851SOL    HW228279   2.378   5.799   2.706 -1.5503 -2.8158  1.8917
38852SOL     OW28280  10.258  10.693   3.691 -0.7355  0.6205 -0.4121
38852SOL    HW128281  10.177  10.651   3.666 -0.6116  0.1985 -0.1073
38852SOL    HW228282  10.275  10.756   3.620 -1.9833  1.6249  0.1492
38853SOL     OW28283  11.622   8.031  12.929 -0.0771 -0.2355  0.5991
38853SOL    HW128284  11.600   8.093  12.998 -1.1869 -0.9181  0.8791
38853SOL    HW228285  11.715   8.010  12.944  0.1252  0.8192  0.9054
38854SOL     OW28286   4.392   2.478  13.269 -0.5913  0.3587  0.3619
38854SOL    HW128287   4.350   2.557  13.234 -3.2720 -0.4795  1.4257
38854SOL    HW228288   4.347   2.462  13.352  0.7648 -1.6015  0.7851
38855SOL     OW28289  12.529  11.992   2.935 -0.2285  0.0871  0.6144
38855SOL    HW128290  12.523  11.960   2.845  2.5905 -1.0994  0.7501
38855SOL    HW228291  12.565  11.918   2.984  0.4973  1.4655  2.2484
38856SOL     OW28292   3.901  12.592   6.361 -0.4057 -0.2383 -0.0532
38856SOL    HW128293   3.880  12.685   6.349 -1.6041 -0.0784  2.6095
38856SOL    HW228294   3.851  12.547   6.293 -0.5116  1.0046 -0.8115
38857SOL     OW28295   0.219  13.717   7.378 -0.0856 -0.7200  0.0288
38857SOL    HW128296   0.171  13.743   7.457  0.4962 -1.1522  0.5370
38857SOL    HW228297   0.209  13.622   7.375 -1.2389 -0.5912 -1.1790
38858SOL     OW28298   0.441   6.970   6.836  0.8485  0.3385  0.0586
38858SOL    HW128299   0.468   7.061   6.829  1.6332  0.1704  0.7468
38858SOL    HW228300   0.346   6.973   6.843  0.9751  1.2384  1.8875
38859SOL     OW28301   2.909   8.372  11.730  0.1522  0.4677 -0.3028
38859SOL    HW128302   2.982   8.378  11.791 -0.4174 -0.0081  0.4411
38859SOL    HW228303   2.845   8.437  11.762 -0.1237  0.2605 -0.4283
38860SOL     OW28304   3.787   4.823   7.374  0.3702  0.2168 -0.3038
38860SOL    HW128305   3.860   4.778   7.332  1.8232  1.0635  1.2003
38860SOL    HW228306   3.791   4.797   7.466 -1.5168 -0.0526 -0.2535
38861SOL     OW28307  13.560   5.753  10.092 -0.4473  0.2133 -0.0995
38861SOL    HW128308  13.630   5.780  10.032 -0.4532  0.2227 -0.1023
38861SOL    HW228309  13.512   5.833  10.111 -0.6763  0.1439 -0.3772
38862SOL     OW28310   8.689   1.450   8.116 -0.5108 -0.3022  0.0722
38862SOL    HW128311   8.630   1.387   8.076 -0.5283 -1.7928  2.2729
38862SOL    HW228312   8.694   1.423   8.208  3.1653  0.0951  0.1266
38863SOL     OW28313  11.404   6.431  13.724  0.3671 -0.5320  0.1676
38863SOL    HW128314  11.491   6.459  13.693  0.0533 -0.6558 -0.8729
38863SOL    HW228315  11.408   6.336  13.724  0.7852 -0.5408  1.8069
38864SOL     OW28316   3.380   4.481  10.994 -0.5301  0.4781  0.5120
38864SOL    HW128317   3.372   4.572  10.966 -1.4279  0.2423 -0.0540
38864SOL    HW228318   3.311   4.435  10.946 -0.4707 -0.3955  1.2316
38865SOL     OW28319  11.778   8.654   0.905 -0.0028  0.5915  0.2276
38865SOL    HW128320  11.816   8.569   0.927 -1.5380 -0.1005  0.3244
38865SOL    HW228321  11.853   8.713   0.902  1.0155 -0.6057  0.8907
38866SOL     OW28322   2.035   3.257   7.138  0.2337  0.2264  0.3039
38866SOL    HW128323   2.040   3.162   7.153  1.8488  0.4358  1.2237
38866SOL    HW228324   2.120   3.291   7.165 -0.2249  1.9250 -0.2564
38867SOL     OW28325  13.655   9.228   7.030 -0.5171 -0.0685 -0.4284
38867SOL    HW128326  13.697   9.284   7.096  0.2078 -0.2810 -0.6912
38867SOL    HW228327  13.621   9.289   6.965  0.6717  0.0786 -0.9498
38868SOL     OW28328   4.725   1.788  10.804 -0.1716  0.2034  0.1136
38868SOL    HW128329   4.715   1.780  10.709  1.7652  0.6713 -0.1655
38868SOL    HW228330   4.741   1.698  10.834 -1.1998 -0.0050  0.0749
38869SOL     OW28331  13.566   9.039   5.738 -0.1650 -0.2414  0.0167
38869SOL    HW128332  13.563   8.987   5.818 -0.2255  2.2277  1.7191
38869SOL    HW228333  13.513   8.990   5.675  0.5838 -2.6680  1.1809
38870SOL     OW28334   0.635   9.946   5.931 -0.5254 -0.5709 -0.2728
38870SOL    HW128335   0.672  10.032   5.953 -2.1976  0.1865 -0.2981
38870SOL    HW228336   0.676   9.886   5.994  1.9146 -0.0999 -1.3018
38871SOL     OW28337   4.418   2.864   3.515 -0.4967 -0.5450  0.2052
38871SOL    HW128338   4.479   2.791   3.509  0.0742 -0.1872  1.3608
38871SOL    HW228339   4.433   2.901   3.603  1.1822  2.6626 -1.2562
38872SOL     OW28340   8.539   2.984   6.783 -0.6277  0.2323  0.2545
38872SOL    HW128341   8.526   2.916   6.849 -0.9563  0.8896  0.8788
38872SOL    HW228342   8.603   3.044   6.822  0.0301  0.0294 -0.4910
38873SOL     OW28343  10.139  12.486   8.482 -0.3856  0.4105  0.1187
38873SOL    HW128344  10.227  12.495   8.520 -1.1620  0.5446  1.9948
38873SOL    HW228345  10.124  12.391   8.480  0.0920  0.3474 -0.9539
38874SOL     OW28346  10.023  10.710   6.946  0.3025  0.0183 -0.4088
38874SOL    HW128347  10.057  10.776   7.007 -2.6303 -0.6237  2.1616
38874SOL    HW228348   9.931  10.703   6.968 -0.2140 -2.5828 -2.9025
38875SOL     OW28349   8.330   8.484   2.328 -0.3260 -0.1623  0.3721
38875SOL    HW128350   8.330   8.523   2.416 -0.3775  0.4819  0.0937
38875SOL    HW228351   8.238   8.487   2.301 -0.8175 -2.9831  1.4118
38876SOL     OW28352   0.059   5.117  11.024 -0.9204  0.1308  0.5439
38876SOL    HW128353   0.006   5.059  10.971 -1.0640  1.1413 -0.4521
38876SOL    HW228354   0.010   5.128  11.106 -1.3741 -0.3369  0.3334
38877SOL     OW28355   0.848  12.402   4.358 -0.2087  0.3287 -0.1965
38877SOL    HW128356   0.923  12.345   4.375  0.4159  0.9697 -0.7850
38877SOL    HW228357   0.774  12.341   4.352  0.3424 -0.3603 -0.1781
38878SOL     OW28358   0.790  12.512   8.739  0.5511 -0.1253 -0.6775
38878SOL    HW128359   0.876  12.498   8.699  1.4587  2.4861  0.1911
38878SOL    HW228360   0.761  12.597   8.706 -1.5300 -0.7359 -0.5830
38879SOL     OW28361   9.519  10.229   3.113  0.5371 -0.4920  0.0350
38879SOL    HW128362   9.429  10.231   3.146 -0.1137 -0.1166 -1.6985
38879SOL    HW228363   9.527  10.144   3.070  1.1653 -0.7067  0.5619
38880SOL     OW28364   7.778   4.839   5.911  0.2421  0.0643 -0.8371
38880SOL    HW128365   7.709   4.906   5.908  1.0113  0.9388  0.1858
38880SOL    HW228366   7.736   4.760   5.877 -1.3354  0.5143 -0.0226
38881SOL     OW28367   1.550   7.368   3.770  0.2624 -0.0769 -0.2001
38881SOL    HW128368   1.605   7.322   3.707 -1.4156 -0.7957 -1.2030
38881SOL    HW228369   1.603   7.442   3.798  1.1611  0.1434 -2.2884
38882SOL     OW28370   7.406   1.753   9.296 -0.5205 -0.1506 -0.0087
38882SOL    HW128371   7.411   1.847   9.317 -1.7131  0.1276 -0.8451
38882SOL    HW228372   7.358   1.750   9.214 -2.6481 -1.6079  1.1859
38883SOL     OW28373   1.793   0.340  12.434  0.3354 -0.0284  0.2148
38883SOL    HW128374   1.724   0.277  12.414  0.5221 -0.2639  0.3040
38883SOL    HW228375   1.840   0.350  12.351 -0.0586  0.4492  0.0464
38884SOL     OW28376  12.019  13.007   9.435 -0.1326  0.1719 -0.1097
38884SOL    HW128377  12.059  13.026   9.520 -3.4943 -0.1271  1.6903
38884SOL    HW228378  12.017  12.912   9.430  0.9997  0.1802 -1.0689
38885SOL     OW28379   3.492   0.997   6.781 -0.7758 -0.4213  0.2859
38885SOL    HW128380   3.563   0.933   6.783 -0.3343 -0.2941 -3.3792
38885SOL    HW228381   3.535   1.082   6.786 -0.8270 -0.3653 -0.1822
38886SOL     OW28382   2.628  10.311   4.873 -0.7957 -0.0010 -0.0694
38886SOL    HW128383   2.677  10.392   4.890  0.3283 -0.4867 -0.8544
38886SOL    HW228384   2.599  10.282   4.959  1.2213 -0.2444  0.5776
38887SOL     OW28385   6.008   2.280  10.709 -0.6456  0.4449 -0.0074
38887SOL    HW128386   6.001   2.311  10.618 -2.3176  0.9485  0.2668
38887SOL    HW228387   6.070   2.341  10.750  0.1440  0.1998 -0.7861
38888SOL     OW28388  12.422   5.739  12.314  0.4155 -0.1437 -0.0391
38888SOL    HW128389  12.350   5.708  12.260 -0.6062  0.6226  0.8420
38888SOL    HW228390  12.465   5.660  12.346 -0.5765 -0.6229  0.1322
38889SOL     OW28391   1.358   8.007   7.637  0.2797 -0.0192 -0.0129
38889SOL    HW128392   1.423   7.938   7.653  0.3695  0.3676  1.3698
38889SOL    HW228393   1.342   8.046   7.723 -1.2652  0.3650 -0.4447
38890SOL     OW28394   8.784  10.175  10.765 -0.0838 -0.2127 -0.1896
38890SOL    HW128395   8.820  10.253  10.808  1.0525 -0.2150 -1.0973
38890SOL    HW228396   8.754  10.206  10.679 -1.8220 -0.3217  0.3306
38891SOL     OW28397   8.609   8.148   6.239  0.0843 -0.6652 -0.2853
38891SOL    HW128398   8.524   8.109   6.217 -0.2463  0.3093 -0.7825
38891SOL    HW228399   8.590   8.241   6.251  1.1072 -0.4262 -0.5010
38892SOL     OW28400  11.165  12.387  10.238  0.0896  0.3547  0.4407
38892SOL    HW128401  11.152  12.372  10.332 -2.6522  1.6434  0.3622
38892SOL    HW228402  11.212  12.470  10.233  1.7035 -0.4947  0.6234
38893SOL     OW28403   0.168   3.140   7.105 -0.1295  0.3859 -0.0099
38893SOL    HW128404   0.092   3.198   7.108 -0.2709  0.3400 -1.7869
38893SOL    HW228405   0.234   3.182   7.160 -0.7419  1.4835 -0.1125
38894SOL     OW28406   3.083   5.450   1.099  0.3134 -0.3467 -0.4871
38894SOL    HW128407   3.107   5.371   1.148  0.3383  0.2710  0.5301
38894SOL    HW228408   3.154   5.512   1.116 -0.0487  0.1371 -0.7002
38895SOL     OW28409  12.894   1.417   0.083  0.1014  0.0839  0.9302
38895SOL    HW128410  12.902   1.510   0.104  0.7461  0.1112  0.6063
38895SOL    HW228411  12.807   1.409   0.042  1.2707  1.1803 -2.0472
38896SOL     OW28412   8.848   6.888   1.413  0.0025 -0.4346 -0.1053
38896SOL    HW128413   8.838   6.797   1.440  2.6548 -0.6089  0.4598
38896SOL    HW228414   8.826   6.887   1.320 -1.2764 -1.3580  0.1696
38897SOL     OW28415   5.273   1.280  13.683  0.0449 -0.5420 -0.2967
38897SOL    HW128416   5.201   1.310  13.627 -0.3726  1.6768  1.3139
38897SOL    HW228417   5.352   1.310  13.638 -0.2096 -0.1361 -0.4805
38898SOL     OW28418   2.640   3.692   2.685  0.1514 -0.2924  0.7502
38898SOL    HW128419   2.685   3.671   2.767 -0.9318 -0.7052  1.2578
38898SOL    HW228420   2.691   3.764   2.648  1.6469 -1.2336  0.9233
38899SOL     OW28421   4.834  12.047   9.818  0.1838  0.8108  0.1072
38899SOL    HW128422   4.837  12.141   9.832  1.3024  0.6173  1.4016
38899SOL    HW228423   4.742  12.023   9.829 -0.1814  1.7869 -0.6683
38900SOL     OW28424   1.818  10.372   7.243 -0.6571  0.0327  0.0280
38900SOL    HW128425   1.729  10.350   7.217  0.2846  0.2477 -3.8690
38900SOL    HW228426   1.817  10.467   7.256 -1.7429 -0.3258  4.0999
38901SOL     OW28427   9.771  10.933   2.605 -0.3148 -0.4530  0.0193
38901SOL    HW128428   9.804  10.851   2.641 -1.2096 -0.6461  0.4405
38901SOL    HW228429   9.792  10.928   2.512 -0.6895 -1.3379 -0.0345
38902SOL     OW28430   8.064   7.490   1.586  0.2097 -0.3740  0.0416
38902SOL    HW128431   8.107   7.483   1.500  1.6032  1.3471  0.5447
38902SOL    HW228432   8.136   7.507   1.647 -0.5895 -2.9232  1.8144
38903SOL     OW28433   6.574   9.828   6.801  0.2229 -0.2211 -0.1504
38903SOL    HW128434   6.631   9.904   6.812  0.6629  0.0743 -3.5613
38903SOL    HW228435   6.512   9.854   6.733 -2.3810 -1.4838  1.5902
38904SOL     OW28436  11.675   6.105   2.171  0.0784  0.0652  0.2751
38904SOL    HW128437  11.623   6.177   2.137 -0.5801 -0.1532  0.8134
38904SOL    HW228438  11.644   6.092   2.261  0.7291 -0.3755  0.4458
38905SOL     OW28439   7.726   7.406   0.266  0.6145 -0.4470  0.0263
38905SOL    HW128440   7.795   7.388   0.202 -0.8097 -1.8444 -1.1842
38905SOL    HW228441   7.702   7.320   0.300  0.2713  0.1421  1.3345
38906SOL     OW28442   1.723   8.176  12.880  0.3057  0.2587  0.4663
38906SOL    HW128443   1.657   8.168  12.811 -0.3550  1.2385  0.9715
38906SOL    HW228444   1.673   8.191  12.960  1.1322  0.9328  0.8759
38907SOL     OW28445   7.075   1.869   6.667 -0.3865 -0.6021 -0.5102
38907SOL    HW128446   7.071   1.780   6.632  0.0048 -0.7196 -0.2601
38907SOL    HW228447   7.017   1.868   6.743  1.5708 -1.3719  1.0663
38908SOL     OW28448  12.580   1.088  13.621  0.1130 -0.0465  0.0571
38908SOL    HW128449  12.632   1.070  13.543 -1.4574  2.8267 -1.8608
38908SOL    HW228450  12.491   1.062  13.597 -0.2015 -0.1731  1.3246
38909SOL     OW28451   0.410   2.352   6.609  0.6672  0.5646 -0.4053
38909SOL    HW128452   0.419   2.320   6.520 -0.2525 -1.2327  0.0965
38909SOL    HW228453   0.331   2.407   6.608 -1.9653 -2.8366  0.0448
38910SOL     OW28454   3.052   4.274   8.639  0.4702 -0.2340 -0.0264
38910SOL    HW128455   3.077   4.358   8.677 -0.2557  0.5384 -1.2030
38910SOL    HW228456   2.967   4.254   8.680  0.8099 -0.5943  0.5241
38911SOL     OW28457   4.380   0.078   7.102  0.0437  0.0835 -0.2605
38911SOL    HW128458   4.429   0.142   7.155  2.1608 -0.1304 -1.8221
38911SOL    HW228459   4.340   0.019   7.166  1.3594  0.6452  1.1428
38912SOL     OW28460  11.478   9.627   7.240  0.1210 -0.3329  0.1666
38912SOL    HW128461  11.480   9.532   7.250  1.5622 -0.3444 -0.0427
38912SOL    HW228462  11.545   9.659   7.301  0.4774  0.4554 -0.6215
38913SOL     OW28463  12.728   8.484   3.725  0.2444 -0.6995 -0.0402
38913SOL    HW128464  12.705   8.466   3.634 -0.2311 -1.5011  0.2225
38913SOL    HW228465  12.701   8.405   3.772  1.6873 -0.8482  0.6037
38914SOL     OW28466   9.954  10.836   0.625  0.3560 -0.3018  0.8065
38914SOL    HW128467  10.002  10.837   0.542 -1.0203  2.2370 -0.0401
38914SOL    HW228468  10.023  10.838   0.691  1.4573 -0.4031 -0.2843
38915SOL     OW28469   3.887  11.530  13.365 -0.3802  0.0310  0.1647
38915SOL    HW128470   3.823  11.485  13.422 -0.0878 -0.8023 -0.1518
38915SOL    HW228471   3.941  11.460  13.329 -0.2930  0.5846 -0.8271
38916SOL     OW28472   6.409   0.287  13.416 -0.2950 -0.5632  0.5368
38916SOL    HW128473   6.464   0.335  13.478  1.7969 -1.1556 -0.7506
38916SOL    HW228474   6.322   0.325  13.427  0.5188  1.0009  2.1160
38917SOL     OW28475   4.699  13.095  10.033  0.2552 -0.2299  0.0010
38917SOL    HW128476   4.678  13.189  10.033  0.0147 -0.2646  1.1420
38917SOL    HW228477   4.738  13.079   9.947 -0.8051  0.6657 -0.6801
38918SOL     OW28478   4.897  13.742   2.743 -0.0187 -0.0563 -0.3394
38918SOL    HW128479   4.953  13.675   2.704  1.4569 -0.1558  1.7752
38918SOL    HW228480   4.864  13.702   2.824 -1.5470  0.7296 -0.5412
38919SOL     OW28481   2.737   3.238   1.321 -0.1795  0.0833  0.0156
38919SOL    HW128482   2.669   3.253   1.387 -1.7414 -1.9287 -1.0143
38919SOL    HW228483   2.710   3.294   1.248 -0.9664 -0.9521 -0.5132
38920SOL     OW28484   9.828  11.765  10.184 -0.3019  0.0749  0.3365
38920SOL    HW128485   9.786  11.807  10.259 -1.0853  0.4675 -0.3010
38920SOL    HW228486   9.803  11.819  10.109  1.4579  0.3938 -0.0745
38921SOL     OW28487   5.205   5.428   4.813  0.6426 -0.0087 -0.3263
38921SOL    HW128488   5.258   5.448   4.736  2.0439 -1.5458  0.1578
38921SOL    HW228489   5.115   5.424   4.780  0.6741  3.2153 -1.0761
38922SOL     OW28490   1.616  12.684   1.407 -0.1631 -0.4481 -0.0838
38922SOL    HW128491   1.708  12.698   1.382 -0.7607 -0.7631 -2.7286
38922SOL    HW228492   1.611  12.591   1.426  0.3206 -0.1850  1.5708
38923SOL     OW28493   6.341   8.907  12.597  0.1588 -0.6699 -0.1090
38923SOL    HW128494   6.388   8.989  12.583  0.8089 -1.3985 -2.5419
38923SOL    HW228495   6.402   8.853  12.647  0.2157 -0.1503  0.4047
38924SOL     OW28496   0.466   3.411   2.642 -0.7308  0.1639 -0.0715
38924SOL    HW128497   0.527   3.474   2.604  0.1047 -1.7183 -2.0555
38924SOL    HW228498   0.382   3.457   2.644  0.2766  2.0687  0.7185
38925SOL     OW28499  12.182   2.291   0.654 -0.2408 -0.1436 -0.2795
38925SOL    HW128500  12.201   2.208   0.697 -1.7745 -0.7395 -0.6954
38925SOL    HW228501  12.255   2.348   0.679  1.2213 -1.7919 -0.5545
38926SOL     OW28502  11.409   9.688   6.979  0.2004 -0.4280  0.9275
38926SOL    HW128503  11.361   9.769   6.997  3.0651  1.4028  1.0069
38926SOL    HW228504  11.427   9.652   7.066 -0.5678 -0.8776  0.9127
38927SOL     OW28505  12.263  10.166   3.306  0.4294  0.2489 -0.4732
38927SOL    HW128506  12.355  10.174   3.281  0.7028 -0.3929  0.2854
38927SOL    HW228507  12.253  10.075   3.334 -0.1209  0.6285  0.6506
38928SOL     OW28508   0.950   8.506   0.208  0.5279  0.2040 -0.0635
38928SOL    HW128509   1.024   8.450   0.232 -0.3912 -0.0737  2.4758
38928SOL    HW228510   0.988   8.575   0.153  2.7223  0.1656  1.2939
38929SOL     OW28511   1.158   7.296   6.369 -0.2705  0.1057 -0.1264
38929SOL    HW128512   1.143   7.364   6.435 -2.0746  0.7821 -1.1494
38929SOL    HW228513   1.242   7.257   6.393  0.8174  2.6627  0.5164
38930SOL     OW28514  12.378   3.894   1.961 -0.2104 -0.1483 -0.4558
38930SOL    HW128515  12.354   3.951   2.035 -0.4056 -1.5762  0.6282
38930SOL    HW228516  12.473   3.899   1.958 -0.2729  1.1477 -1.1556
38931SOL     OW28517   4.421   9.344  12.472 -0.4996  0.6878 -0.0612
38931SOL    HW128518   4.336   9.307  12.449  0.3988 -1.0194 -0.8130
38931SOL    HW228519   4.473   9.336  12.392  0.9571 -0.1114  0.9264
38932SOL     OW28520   0.868   0.810  13.621  0.2057  0.3823 -0.0150
38932SOL    HW128521   0.779   0.782  13.602  0.7017 -2.7263  1.5292
38932SOL    HW228522   0.924   0.748  13.574  1.4624  0.0342  1.8079
38933SOL     OW28523  11.272   3.227   2.091  0.8719  0.9484  0.2124
38933SOL    HW128524  11.365   3.205   2.092  0.5495 -0.5091  0.8282
38933SOL    HW228525  11.238   3.186   2.011  0.3992 -0.2900  1.0105
38934SOL     OW28526   0.164   7.422  12.577  0.1629  0.3197  0.1018
38934SOL    HW128527   0.140   7.365  12.650  0.3456 -0.3617 -0.3525
38934SOL    HW228528   0.256   7.399  12.559  0.1406  0.5397 -0.2853
38935SOL     OW28529   7.596   9.698  13.720  0.1826 -0.0097  0.0673
38935SOL    HW128530   7.551   9.773  13.681  0.3415 -0.5493 -1.2144
38935SOL    HW228531   7.525   9.636  13.741  0.2603 -1.0841 -2.4365
38936SOL     OW28532   9.559   4.053  10.015 -0.3791 -0.3038 -0.0398
38936SOL    HW128533   9.559   3.973  10.068  1.0860  0.0949  0.6092
38936SOL    HW228534   9.485   4.042   9.955 -0.8962 -1.6326  0.7935
38937SOL     OW28535  12.763  10.222   3.054 -0.5990 -0.3429 -0.6419
38937SOL    HW128536  12.670  10.222   3.078 -0.9374  2.2598 -1.6752
38937SOL    HW228537  12.797  10.303   3.090  0.8879 -0.4606 -1.7221
38938SOL     OW28538   4.335   1.137   9.392  0.2622 -0.6212  0.1377
38938SOL    HW128539   4.270   1.137   9.462 -0.5607 -1.1158 -0.6022
38938SOL    HW228540   4.370   1.048   9.390  0.4088 -0.5624  0.0432
38939SOL     OW28541   7.713   5.303  10.899  0.5093  0.1515 -0.2929
38939SOL    HW128542   7.762   5.322  10.819  0.8674  0.1948 -0.0653
38939SOL    HW228543   7.696   5.209  10.895 -0.1215  0.2855 -0.7797
38940SOL     OW28544   2.926   3.976  13.175  0.0023  0.2725  0.2310
38940SOL    HW128545   3.011   3.961  13.135 -0.0821  0.2348  0.0632
38940SOL    HW228546   2.869   3.910  13.136 -0.3085  0.8503 -0.3222
38941SOL     OW28547   2.320   4.871   1.895  0.4525  0.3102  0.3075
38941SOL    HW128548   2.251   4.854   1.959  0.7811  0.5635  0.7364
38941SOL    HW228549   2.377   4.795   1.900 -1.2295 -1.2413 -2.0140
38942SOL     OW28550   2.206   3.205   9.500 -0.4783  0.2140 -0.1771
38942SOL    HW128551   2.119   3.217   9.462  0.0389 -0.5846 -1.7230
38942SOL    HW228552   2.219   3.110   9.498  1.5367  0.4260 -2.7576
38943SOL     OW28553   7.969   5.226  13.229  0.0320  0.1693  0.7622
38943SOL    HW128554   8.013   5.156  13.277  0.7093 -0.6987 -1.0414
38943SOL    HW228555   7.887   5.186  13.198  0.5541  0.0521 -0.5170
38944SOL     OW28556   0.478  11.055  12.474 -0.7606 -0.0913 -0.1776
38944SOL    HW128557   0.507  10.964  12.465  0.5703  0.2632  0.2651
38944SOL    HW228558   0.448  11.062  12.564 -0.1361  0.1004  0.0165
38945SOL     OW28559   1.500  10.469   4.175  0.0706 -0.4166 -0.2911
38945SOL    HW128560   1.492  10.548   4.230  0.0285 -0.7465  0.1864
38945SOL    HW228561   1.584  10.431   4.201 -0.1185 -0.7699 -0.1948
38946SOL     OW28562   2.712   4.778   7.887 -0.0671 -0.5242 -1.0247
38946SOL    HW128563   2.672   4.729   7.815 -0.9127 -1.3918  0.0019
38946SOL    HW228564   2.744   4.859   7.846 -0.6168 -0.9437 -2.3404
38947SOL     OW28565   8.569   2.109  12.446 -0.0094 -0.3706 -0.3487
38947SOL    HW128566   8.494   2.049  12.446 -0.7210  0.4646  0.7895
38947SOL    HW228567   8.645   2.053  12.435 -0.6176 -1.5575  1.1004
38948SOL     OW28568   5.771   1.065   0.333 -0.1525  0.1415  0.3821
38948SOL    HW128569   5.829   1.139   0.352  0.7569 -0.4820  0.1392
38948SOL    HW228570   5.700   1.073   0.396 -0.8635  2.0503 -0.5880
38949SOL     OW28571   7.190   7.404  10.336  0.2815 -0.0099  0.1861
38949SOL    HW128572   7.166   7.491  10.305 -1.5842 -0.8380 -0.8430
38949SOL    HW228573   7.204   7.415  10.430  0.9037  1.5408 -0.0695
38950SOL     OW28574   5.686  12.760   3.398 -0.4102 -0.4409 -0.0087
38950SOL    HW128575   5.668  12.841   3.350 -3.0165 -1.1850 -0.4621
38950SOL    HW228576   5.750  12.714   3.345  0.3392  0.8612 -0.2711
38951SOL     OW28577   0.142  10.326   7.642  0.3989 -0.2913 -0.7864
38951SOL    HW128578   0.142  10.246   7.695  0.9274 -0.7105 -1.4065
38951SOL    HW228579   0.228  10.327   7.600  0.1628  0.2820 -1.2737
38952SOL     OW28580   1.055  11.975   0.641 -0.2950 -0.4337 -0.2717
38952SOL    HW128581   1.073  12.042   0.575 -0.3405  0.4719  0.6167
38952SOL    HW228582   0.989  11.919   0.600  0.1284 -0.2463 -1.2316
38953SOL     OW28583  10.905  12.880   0.623 -0.3477 -0.2645  0.6873
38953SOL    HW128584  10.969  12.809   0.622  0.2861  0.2293 -2.4437
38953SOL    HW228585  10.951  12.953   0.664  0.6300 -0.3220 -0.2756
38954SOL     OW28586   5.365  12.180   8.321 -0.3243 -0.6510  0.0240
38954SOL    HW128587   5.381  12.160   8.413  0.5405 -1.5677 -0.3038
38954SOL    HW228588   5.448  12.215   8.289 -0.7260  0.0004 -0.3248
38955SOL     OW28589  11.662   6.107   4.992  0.6225 -0.4696  0.0069
38955SOL    HW128590  11.661   6.033   5.052 -1.3934 -1.6174 -1.3380
38955SOL    HW228591  11.718   6.078   4.920  0.2334 -0.4898 -0.2881
38956SOL     OW28592   3.673   1.060   1.362 -0.3970 -0.0028  0.4280
38956SOL    HW128593   3.706   1.150   1.357 -2.7339  1.0797  2.3093
38956SOL    HW228594   3.663   1.033   1.271 -0.6505  2.0723 -0.2167
38957SOL     OW28595   5.149   1.528   9.247  0.3136 -0.2945 -0.2734
38957SOL    HW128596   5.180   1.581   9.320 -0.7446 -0.2988  0.1965
38957SOL    HW228597   5.229   1.490   9.210  1.3474  2.8776 -1.6767
38958SOL     OW28598  10.242   5.886   0.460 -0.3230  0.4529  0.1323
38958SOL    HW128599  10.288   5.960   0.501  1.3674  1.2977 -2.9561
38958SOL    HW228600  10.149   5.901   0.480 -0.0630  3.5744 -0.5384
38959SOL     OW28601  11.761   4.806   2.660  0.1927  0.0155 -1.0206
38959SOL    HW128602  11.824   4.876   2.673  0.1774 -0.2108  0.4304
38959SOL    HW228603  11.814   4.727   2.645  0.3089 -0.2383  0.5221
38960SOL     OW28604  12.040   4.339   2.830 -0.0422 -0.2858  0.0114
38960SOL    HW128605  12.091   4.335   2.911 -1.9233 -0.8045  1.2091
38960SOL    HW228606  11.949   4.334   2.858 -0.7308 -3.0786 -2.2678
38961SOL     OW28607  11.330   6.493   7.014  0.1233 -0.4142 -0.1036
38961SOL    HW128608  11.422   6.517   7.001  0.7633 -3.2569 -1.6219
38961SOL    HW228609  11.332   6.421   7.076 -0.8588 -1.6618 -1.4414
38962SOL     OW28610   4.283  11.216   5.475  0.3413 -0.1152 -0.1575
38962SOL    HW128611   4.270  11.132   5.431 -0.7223 -0.3406  0.5469
38962SOL    HW228612   4.293  11.194   5.568 -0.3141  0.5541  0.0850
38963SOL     OW28613   9.858   2.013  13.401 -0.1961  0.4665 -0.5311
38963SOL    HW128614   9.881   1.982  13.314  1.0182 -1.0585  0.2774
38963SOL    HW228615   9.762   2.014  13.402 -0.2185  0.4124 -1.8492
38964SOL     OW28616   7.100   6.098  10.566  0.3095  0.0813 -0.2750
38964SOL    HW128617   7.172   6.110  10.628  0.5643 -0.9843 -0.3396
38964SOL    HW228618   7.139   6.048  10.494 -0.3614 -0.0574 -0.5501
38965SOL     OW28619   7.496   7.512   6.777 -0.2266 -0.0330  0.3213
38965SOL    HW128620   7.521   7.443   6.838  0.9896 -1.6760 -1.8793
38965SOL    HW228621   7.441   7.467   6.712 -1.2831  1.5897  0.0190
38966SOL     OW28622   3.973   6.085   4.252 -0.3306  0.5089  0.2483
38966SOL    HW128623   4.019   6.057   4.331  0.4611  2.2514  0.4552
38966SOL    HW228624   4.040   6.088   4.184 -0.5198  1.1746  0.0750
38967SOL     OW28625   1.456  10.022   6.306  0.1832 -0.3966 -0.6155
38967SOL    HW128626   1.421  10.036   6.394  0.6761 -1.5884 -0.2103
38967SOL    HW228627   1.383   9.983   6.258  0.1869 -0.5793 -0.4755
38968SOL     OW28628   3.180  12.894   3.172 -0.5931  0.1162  0.4767
38968SOL    HW128629   3.260  12.927   3.133  0.3492 -1.0692  1.3310
38968SOL    HW228630   3.116  12.965   3.161  0.3735  0.8132 -0.7993
38969SOL     OW28631   4.543   6.826  10.816 -0.1521  0.2362  0.5822
38969SOL    HW128632   4.548   6.746  10.868  1.4504  0.5290  0.9182
38969SOL    HW228633   4.449   6.842  10.806 -0.5210 -1.8647  0.2011
38970SOL     OW28634  12.068   6.356   9.611 -0.0318 -0.2353  0.0133
38970SOL    HW128635  12.142   6.316   9.566 -0.3775 -1.3322  0.3957
38970SOL    HW228636  12.024   6.408   9.544 -1.7143 -3.3840 -1.5561
38971SOL     OW28637   1.564   4.839   5.915 -0.0305 -0.9473 -0.3239
38971SOL    HW128638   1.494   4.890   5.875  0.3037  0.3018  0.6443
38971SOL    HW228639   1.574   4.875   6.003  0.7035 -2.2151  0.1474
38972SOL     OW28640   3.601   8.752   9.876  0.0308  0.5899 -0.2166
38972SOL    HW128641   3.525   8.806   9.851  0.6553  1.1125 -1.0614
38972SOL    HW228642   3.618   8.776   9.967 -1.4957 -0.3747  0.3678
38973SOL     OW28643   3.104   4.655  10.574 -0.0372  0.2656  0.1284
38973SOL    HW128644   3.118   4.750  10.573  1.2871  0.1077 -0.7027
38973SOL    HW228645   3.036   4.640  10.508 -1.5802  0.7595  1.5428
38974SOL     OW28646   4.293  11.332   0.958 -0.0572  0.2651  0.5620
38974SOL    HW128647   4.258  11.394   1.023 -1.6986 -1.0871  1.0259
38974SOL    HW228648   4.220  11.274   0.938  1.3797 -1.4181 -0.0137
38975SOL     OW28649   1.218  11.832   5.285  0.5517  0.0318 -0.2092
38975SOL    HW128650   1.217  11.812   5.191  0.6098  0.0308 -0.2095
38975SOL    HW228651   1.204  11.927   5.289 -0.9471 -0.1692 -0.1581
38976SOL     OW28652   6.594  12.782   4.160  0.3032 -0.0691  0.7014
38976SOL    HW128653   6.597  12.785   4.256  1.2541 -0.1592  0.6811
38976SOL    HW228654   6.587  12.874   4.134 -0.6972 -0.0921  0.8732
38977SOL     OW28655   6.089  13.721   0.986  0.0293  0.8691 -0.4130
38977SOL    HW128656   6.050  13.750   1.068 -0.9893  1.6946 -1.1658
38977SOL    HW228657   6.183  13.717   1.005 -0.2795 -0.0230  1.0876
38978SOL     OW28658   0.473  12.283  13.695  0.0354  0.0950  0.1512
38978SOL    HW128659   0.393  12.233  13.681 -0.7087  1.0082  0.9870
38978SOL    HW228660   0.467  12.356  13.634  1.8017 -1.4854 -2.1248
38979SOL     OW28661  10.866  12.264   9.364 -0.1030 -0.9697 -0.1915
38979SOL    HW128662  10.915  12.291   9.441 -1.9628  0.8168  0.4677
38979SOL    HW228663  10.807  12.196   9.396 -0.7583 -0.3438 -0.0239
38980SOL     OW28664   2.733   9.563  11.762  0.2286 -0.2166  0.1792
38980SOL    HW128665   2.778   9.642  11.731 -2.0998  1.1919  0.1075
38980SOL    HW228666   2.765   9.493  11.706  1.0807  1.0116 -0.9251
38981SOL     OW28667   5.809   9.159   5.227 -0.0670  0.3075 -0.3689
38981SOL    HW128668   5.740   9.222   5.250 -0.3870 -0.9646  2.6376
38981SOL    HW228669   5.886   9.213   5.211 -1.2438  1.6397 -2.0053
38982SOL     OW28670   8.012   9.673  10.345  0.3665 -0.0078 -0.2297
38982SOL    HW128671   7.965   9.593  10.321  2.2706 -0.9162 -1.1404
38982SOL    HW228672   8.012   9.725  10.264 -0.1028  0.5490  0.1151
38983SOL     OW28673   3.182  12.623   6.657 -0.0209 -0.4823 -0.2203
38983SOL    HW128674   3.157  12.713   6.639  2.0663  0.1274 -0.3016
38983SOL    HW228675   3.191  12.619   6.752 -0.6065 -0.7750 -0.1676
38984SOL     OW28676   4.509  11.428   0.476  0.3373  0.0213 -0.0884
38984SOL    HW128677   4.512  11.430   0.572  2.2434  1.2283 -0.1106
38984SOL    HW228678   4.474  11.342   0.454 -1.8254  0.3763  1.6858
38985SOL     OW28679   1.406   8.248  11.799 -0.0304 -0.3020  0.5689
38985SOL    HW128680   1.446   8.330  11.771 -0.0642  0.0339  1.4566
38985SOL    HW228681   1.375   8.207  11.718 -1.4367  1.3152  0.2374
38986SOL     OW28682  13.062   8.117   7.383  0.1449  0.2065 -0.3256
38986SOL    HW128683  13.009   8.154   7.313  0.5255  0.8228 -0.2978
38986SOL    HW228684  13.105   8.041   7.343 -2.2167 -1.5174  0.1736
38987SOL     OW28685   4.663  10.563   2.243 -0.1161 -0.1551  0.5802
38987SOL    HW128686   4.709  10.599   2.319 -0.2501 -0.0542  0.6137
38987SOL    HW228687   4.714  10.486   2.219  0.9331  0.7802 -0.3120
38988SOL     OW28688  10.605   9.382   7.516  0.0954  0.0103  0.4872
38988SOL    HW128689  10.552   9.355   7.591 -0.7515 -1.2383 -0.5085
38988SOL    HW228690  10.558   9.347   7.440  1.0522  1.0262 -0.6111
38989SOL     OW28691   3.233   5.123   4.944 -0.7791  0.4859  0.6304
38989SOL    HW128692   3.177   5.098   5.018 -1.5458  1.2995  0.3501
38989SOL    HW228693   3.194   5.204   4.912 -1.8736 -0.9868 -2.0881
38990SOL     OW28694   6.335  12.007   7.833  0.0728 -0.0902  0.4792
38990SOL    HW128695   6.327  12.066   7.908  1.3320 -0.0029  0.5646
38990SOL    HW228696   6.388  12.055   7.770  0.2173 -0.7224  0.1077
38991SOL     OW28697   0.311  13.689   0.522  0.4270  0.1854  0.0699
38991SOL    HW128698   0.262  13.624   0.471  0.0985 -1.7374  2.6439
38991SOL    HW228699   0.403  13.670   0.502  0.2942  1.2069 -1.7362
38992SOL     OW28700   1.281   4.011   4.794  0.0623 -0.1845  0.3131
38992SOL    HW128701   1.205   3.992   4.848  0.7791 -1.5146  0.8924
38992SOL    HW228702   1.256   3.983   4.706 -0.9421  1.5720 -0.0152
38993SOL     OW28703   4.152   3.690   0.150  0.2997 -0.5632  0.1760
38993SOL    HW128704   4.116   3.768   0.107  0.4214 -0.5707  0.0618
38993SOL    HW228705   4.188   3.638   0.079  2.6781  0.5268  0.4819
38994SOL     OW28706   9.652   8.680   3.317 -0.3564  0.4930 -0.5835
38994SOL    HW128707   9.634   8.638   3.402 -0.6373  2.0938  0.1848
38994SOL    HW228708   9.659   8.773   3.338 -1.6526  1.0798 -2.5036
38995SOL     OW28709   6.715   7.703   8.443  0.1058 -0.3348  0.0291
38995SOL    HW128710   6.681   7.770   8.384  0.8980 -0.5721 -0.7236
38995SOL    HW228711   6.799   7.738   8.474 -0.2511 -0.2637  0.9242
38996SOL     OW28712   8.186   9.650   5.056  0.0925 -0.0510 -0.2115
38996SOL    HW128713   8.196   9.743   5.074 -1.9569 -0.0039  0.8897
38996SOL    HW228714   8.145   9.614   5.134  0.7111 -1.8743 -0.6699
38997SOL     OW28715   6.140   7.838  11.714  0.1894 -0.4146 -0.0389
38997SOL    HW128716   6.215   7.884  11.752  1.0150 -2.3115  0.7954
38997SOL    HW228717   6.172   7.804  11.631 -0.3726  0.3655 -0.5896
38998SOL     OW28718  13.726  12.341   1.852  0.2396 -0.2563  0.2244
38998SOL    HW128719  13.657  12.359   1.917 -0.6798 -0.2656 -0.7305
38998SOL    HW228720  13.793  12.295   1.902 -0.5174 -0.4048  1.1487
38999SOL     OW28721   7.465   3.547   4.309  0.0495  0.5732  0.1008
38999SOL    HW128722   7.449   3.613   4.241  0.1837  0.1238 -0.3731
38999SOL    HW228723   7.544   3.502   4.280  1.9266  2.3388  2.0819
39000SOL     OW28724   3.809   0.393  10.407 -0.2394  0.3129 -0.4950
39000SOL    HW128725   3.787   0.444  10.329  0.7049 -0.3987 -1.2703
39000SOL    HW228726   3.779   0.446  10.480 -0.7814  1.1991 -1.3323
39001SOL     OW28727   8.335   5.365  13.316 -0.5316  0.5315  0.0466
39001SOL    HW128728   8.394   5.428  13.275 -1.6025  2.3060  1.0761
39001SOL    HW228729   8.298   5.316  13.243  2.9463 -1.4848 -0.6049
39002SOL     OW28730   6.762  12.881   8.099 -0.1691 -0.1984  0.1567
39002SOL    HW128731   6.702  12.862   8.172  0.3610  2.2065  1.3131
39002SOL    HW228732   6.705  12.888   8.022 -0.8204 -2.0991  0.4102
39003SOL     OW28733   6.217   8.763   7.404 -0.0045 -0.1319 -0.3412
39003SOL    HW128734   6.147   8.700   7.391  1.6957 -2.2612  0.3446
39003SOL    HW228735   6.232   8.764   7.498  2.7002 -1.8967 -0.6483
39004SOL     OW28736   5.921   6.132  10.062  0.3535  0.1393 -0.2930
39004SOL    HW128737   5.851   6.078  10.098  0.0781 -1.3642 -2.8396
39004SOL    HW228738   5.908   6.219  10.101 -2.4351 -0.3016 -0.0728
39005SOL     OW28739  13.378   5.122   6.104  0.1034  0.5909  0.3179
39005SOL    HW128740  13.469   5.144   6.120  0.4834 -1.0390  0.5909
39005SOL    HW228741  13.343   5.195   6.053  2.4159 -0.1884 -2.6404
39006SOL     OW28742   8.698   2.248   4.627 -0.1338 -0.5615 -0.2768
39006SOL    HW128743   8.662   2.197   4.554 -1.2157  1.1488 -1.0021
39006SOL    HW228744   8.620   2.280   4.673  0.4445  1.4425 -0.5970
39007SOL     OW28745  11.745  11.460  12.636  0.1875  0.9401  0.3384
39007SOL    HW128746  11.650  11.469  12.628  0.1538  2.1256  1.7225
39007SOL    HW228747  11.774  11.544  12.671  1.8963  1.0021 -1.0996
39008SOL     OW28748  13.691   7.992   9.391 -0.0343 -0.1492 -0.2287
39008SOL    HW128749  13.746   8.048   9.446 -1.0738  0.5255  0.1591
39008SOL    HW228750  13.675   7.915   9.445 -0.1517  0.0250 -0.0115
39009SOL     OW28751   1.395   1.379  10.991  0.0505  0.2118  0.6067
39009SOL    HW128752   1.391   1.291  11.029  0.0656 -0.2750 -0.4763
39009SOL    HW228753   1.488   1.399  10.986  0.2269 -0.8490 -1.5866
39010SOL     OW28754   3.015   6.829   9.044  0.0855 -0.1631 -0.4696
39010SOL    HW128755   2.940   6.770   9.058 -0.3783  1.1112  3.5995
39010SOL    HW228756   3.092   6.772   9.049 -0.4284 -0.7402  1.5650
39011SOL     OW28757   2.710   2.218  10.173 -0.3033  0.0546  0.1001
39011SOL    HW128758   2.749   2.305  10.173 -2.9548  1.3414 -1.7792
39011SOL    HW228759   2.650   2.219  10.248  0.0881 -0.4220  0.4330
39012SOL     OW28760   0.608  10.365  13.522  0.3261 -0.2668 -0.1736
39012SOL    HW128761   0.606  10.374  13.427  1.8102  1.8947 -0.0518
39012SOL    HW228762   0.517  10.380  13.549  0.0132 -0.2750 -1.1667
39013SOL     OW28763  12.712  10.227  12.015  0.1705 -0.0661 -0.3075
39013SOL    HW128764  12.627  10.264  12.039 -0.1093  1.0235 -2.6911
39013SOL    HW228765  12.775  10.296  12.033  0.6484 -0.9428  1.6471
39014SOL     OW28766   1.473   8.679   6.550 -0.1805 -0.2821  0.5103
39014SOL    HW128767   1.403   8.618   6.576 -1.2613  0.1765 -1.1642
39014SOL    HW228768   1.534   8.625   6.500 -1.1708 -0.0284 -1.0272
39015SOL     OW28769   3.682   0.566   5.481 -0.0090 -0.1471 -0.4746
39015SOL    HW128770   3.617   0.508   5.521 -0.6113  0.7469 -0.1293
39015SOL    HW228771   3.756   0.508   5.461 -1.6010 -1.6033 -2.6449
39016SOL     OW28772   8.759  11.308   9.596  0.1173  0.2147 -0.0122
39016SOL    HW128773   8.691  11.343   9.653 -0.1878  1.8359 -1.2715
39016SOL    HW228774   8.821  11.267   9.655 -1.2063 -0.0098  1.2956
39017SOL     OW28775   3.936   1.062  11.916  0.1111  0.4308  0.0085
39017SOL    HW128776   3.842   1.049  11.929  0.1424  0.7957  0.6272
39017SOL    HW228777   3.977   1.015  11.988  0.2963  2.3854  1.2295
39018SOL     OW28778   5.849  13.290   8.463  0.3625 -0.1595  0.4321
39018SOL    HW128779   5.899  13.326   8.390  0.0916 -1.0145 -0.1864
39018SOL    HW228780   5.816  13.206   8.431  0.5910 -0.7439  1.6838
39019SOL     OW28781  11.729  12.070   7.824  0.6507 -0.0882  0.4132
39019SOL    HW128782  11.674  12.146   7.806  0.1251 -0.5457  0.0576
39019SOL    HW228783  11.819  12.102   7.812  0.4055  0.2614 -0.5415
39020SOL     OW28784  10.965   1.688   0.416  0.2150  0.6223  0.3599
39020SOL    HW128785  10.928   1.696   0.328  1.2422  1.4519 -0.0133
39020SOL    HW228786  10.938   1.769   0.461 -0.9791 -0.1444  1.0996
39021SOL     OW28787   0.801  11.183  12.606  0.2642 -0.1389  0.2861
39021SOL    HW128788   0.858  11.181  12.529 -1.3899  2.3685 -1.1291
39021SOL    HW228789   0.852  11.228  12.673  0.1792  1.6547 -0.8074
39022SOL     OW28790   9.500   9.739   8.797  0.3565 -0.1746  0.0063
39022SOL    HW128791   9.427   9.795   8.771 -0.3980 -1.9156 -1.8940
39022SOL    HW228792   9.460   9.671   8.851  0.0861 -2.1813 -2.4913
39023SOL     OW28793   0.385  13.489   8.830  0.9482  0.0264  0.4574
39023SOL    HW128794   0.418  13.537   8.755  1.6647 -0.2906  0.5619
39023SOL    HW228795   0.315  13.435   8.794  2.8618 -1.9736 -0.5282
39024SOL     OW28796  11.731   5.889   1.113  0.1224  0.0605 -0.4068
39024SOL    HW128797  11.710   5.839   1.034  2.1494  0.8773 -1.5500
39024SOL    HW228798  11.674   5.966   1.110  0.3281  0.1906 -1.2111
39025SOL     OW28799   1.868  10.456   9.982 -0.0525 -0.0001  0.0390
39025SOL    HW128800   1.910  10.425  10.063  1.1346 -0.0871 -0.5823
39025SOL    HW228801   1.917  10.413   9.912 -1.4418 -0.3881 -0.7316
39026SOL     OW28802   2.242  11.146   4.099  0.2021  0.4935  0.2172
39026SOL    HW128803   2.294  11.077   4.140 -1.8563 -1.8288 -0.8062
39026SOL    HW228804   2.279  11.155   4.011 -0.3691 -0.3544 -0.1251
39027SOL     OW28805  12.775   5.404   9.088 -0.5444 -0.2863  0.4803
39027SOL    HW128806  12.800   5.464   9.018 -0.6272  1.3490  1.7968
39027SOL    HW228807  12.731   5.332   9.043 -2.5123  1.7113 -1.0078
39028SOL     OW28808   6.561   8.963  11.527 -0.0456 -0.1554  0.0821
39028SOL    HW128809   6.573   8.926  11.614  0.5072  0.0156  0.0806
39028SOL    HW228810   6.534   8.889  11.473 -0.0482 -0.3296  0.3223
39029SOL     OW28811  11.007   3.214   1.413 -0.5410  0.1160 -0.1249
39029SOL    HW128812  11.013   3.270   1.335 -2.8425 -0.9601 -1.1773
39029SOL    HW228813  10.999   3.275   1.486  1.3645  1.1532 -0.7123
39030SOL     OW28814   7.184   1.635   1.173 -0.0464 -0.5022  0.3490
39030SOL    HW128815   7.169   1.669   1.085  0.8301 -1.8048 -0.3254
39030SOL    HW228816   7.274   1.602   1.172 -0.1085 -0.7745  1.6572
39031SOL     OW28817   4.582   0.445  11.142  0.1500  0.4105 -0.9635
39031SOL    HW128818   4.512   0.434  11.206  2.1891  0.4389  1.4305
39031SOL    HW228819   4.600   0.539  11.141  2.9798  0.0424  1.8575
39032SOL     OW28820   1.092   5.786  11.939  0.2916 -0.2267 -0.5003
39032SOL    HW128821   1.056   5.736  11.866  1.4903  1.7898 -2.5902
39032SOL    HW228822   1.017   5.831  11.977 -0.2288 -0.6116 -1.0528
39033SOL     OW28823   2.603   5.672   6.049  0.0367  0.3656  0.2722
39033SOL    HW128824   2.611   5.756   6.005  0.5052 -1.3460 -3.3442
39033SOL    HW228825   2.679   5.668   6.107  0.4602  2.1077 -0.0993
39034SOL     OW28826   6.638   4.621   6.932 -0.4244 -0.2830 -0.2508
39034SOL    HW128827   6.583   4.646   7.006 -0.0228  2.0817 -0.6987
39034SOL    HW228828   6.727   4.637   6.961 -0.0663 -1.8277 -0.3812
39035SOL     OW28829   8.190   6.858  12.867 -0.2222  0.5008  0.1262
39035SOL    HW128830   8.116   6.837  12.810  1.0318 -2.0534 -0.7241
39035SOL    HW228831   8.232   6.933  12.824  1.5200 -2.1589 -3.4237
39036SOL     OW28832   1.103   9.521  10.811  0.4630  1.0474 -0.2174
39036SOL    HW128833   1.016   9.498  10.778  0.5139  1.0405 -0.3465
39036SOL    HW228834   1.162   9.461  10.766  0.6223  1.5663 -0.7161
39037SOL     OW28835   2.528   1.347   6.848 -0.1137  0.0669  0.1899
39037SOL    HW128836   2.436   1.329   6.832  0.0174  0.4504 -1.1276
39037SOL    HW228837   2.539   1.439   6.824  0.9976 -0.4833 -1.7123
39038SOL     OW28838  13.252   0.125   5.411 -0.2802  0.0429 -0.0341
39038SOL    HW128839  13.257   0.181   5.489  0.3149 -0.4869  0.3129
39038SOL    HW228840  13.220   0.183   5.342 -0.8671  0.5069  0.6168
39039SOL     OW28841   7.765   4.283  11.233  0.4431 -0.1400 -0.1045
39039SOL    HW128842   7.707   4.328  11.172  0.5074  1.0415  0.6887
39039SOL    HW228843   7.849   4.277  11.186  0.9904  2.2630  0.4374
39040SOL     OW28844  12.010   5.559   0.777  0.1165 -0.6799  0.3813
39040SOL    HW128845  12.023   5.643   0.735 -0.7899 -0.2576  0.9234
39040SOL    HW228846  11.916   5.540   0.766  0.1197 -1.1534  1.0982
39041SOL     OW28847   1.409   5.719   1.606 -0.2701 -0.1665  0.4845
39041SOL    HW128848   1.426   5.703   1.513 -0.3961  0.4632  0.3453
39041SOL    HW228849   1.489   5.759   1.638  0.1664 -1.3382  0.9048
39042SOL     OW28850   2.718   8.723   4.154 -0.3566  0.0077 -0.1489
39042SOL    HW128851   2.766   8.712   4.072  0.1167  0.1578  0.1027
39042SOL    HW228852   2.679   8.810   4.148  0.4546  0.3977  0.1780
39043SOL     OW28853   8.227   1.247  12.693  0.0992  0.6020  0.3968
39043SOL    HW128854   8.190   1.315  12.749  1.7017  1.2461  0.7195
39043SOL    HW228855   8.322   1.258  12.701  0.3736 -0.2095 -1.3580
39044SOL     OW28856   2.381   4.762   2.778  0.1268 -0.1478 -0.1945
39044SOL    HW128857   2.369   4.822   2.704 -0.0590 -1.7229 -1.5111
39044SOL    HW228858   2.336   4.805   2.851  0.4518  1.5315 -0.9245
39045SOL     OW28859   8.087   0.764  10.304 -0.5276  0.0510  0.0565
39045SOL    HW128860   8.161   0.768  10.365  0.2632 -0.9395 -0.7845
39045SOL    HW228861   8.128   0.765  10.217 -1.4970 -0.6180 -0.4238
39046SOL     OW28862   5.729   1.209  10.925  0.2844  0.0913  0.0769
39046SOL    HW128863   5.786   1.281  10.898 -0.1944 -0.8291 -4.2079
39046SOL    HW228864   5.787   1.133  10.930 -0.0863 -0.4024 -2.0621
39047SOL     OW28865  13.245   2.511   9.698 -0.3837  0.0368  0.3474
39047SOL    HW128866  13.205   2.587   9.655 -0.4794  0.9886  2.0213
39047SOL    HW228867  13.278   2.457   9.626 -3.0770  0.0737 -1.0298
39048SOL     OW28868   3.950   8.876   8.172 -0.5386 -0.5451  0.0459
39048SOL    HW128869   3.873   8.915   8.131 -0.1721 -0.3048 -0.4177
39048SOL    HW228870   3.914   8.815   8.237 -1.1165 -0.3624 -0.0954
39049SOL     OW28871   3.011  11.655   9.434  0.3054  0.1998 -0.1210
39049SOL    HW128872   2.948  11.585   9.451 -2.1208  1.6869 -2.2473
39049SOL    HW228873   2.994  11.719   9.503  0.0199  0.2959 -0.2841
39050SOL     OW28874   1.127   0.384  11.562 -0.0915  0.3905 -0.5541
39050SOL    HW128875   1.105   0.332  11.485 -1.6020 -0.2894  0.2989
39050SOL    HW228876   1.129   0.321  11.634  0.2999  1.1647  0.1270
39051SOL     OW28877   7.503   1.635   5.257 -0.2525 -0.0108 -0.0720
39051SOL    HW128878   7.470   1.579   5.187 -0.0454 -0.0879 -0.1084
39051SOL    HW228879   7.561   1.578   5.308  0.8282  0.4570 -0.7499
39052SOL     OW28880   2.928   4.118  11.327 -0.1899  0.0570 -0.1886
39052SOL    HW128881   2.966   4.051  11.384 -1.0601  0.7029  1.1948
39052SOL    HW228882   2.976   4.198  11.350  0.3311  0.0761 -1.2996
39053SOL     OW28883   9.895   0.778   0.985  0.1208 -0.4343  0.1323
39053SOL    HW128884   9.874   0.869   1.001  0.6105 -0.3857  0.5352
39053SOL    HW228885   9.958   0.780   0.912 -1.4958 -0.6035 -1.3486
39054SOL     OW28886   8.047   7.616  10.779  0.6354 -0.0905 -0.2540
39054SOL    HW128887   8.001   7.684  10.829  0.5561 -1.2788  1.4028
39054SOL    HW228888   8.048   7.648  10.689 -2.3453  0.5970 -0.1499
39055SOL     OW28889  12.210  10.284  10.738  0.5827 -0.1334 -0.7449
39055SOL    HW128890  12.194  10.215  10.674 -0.1502 -0.6013 -0.0788
39055SOL    HW228891  12.254  10.353  10.688 -0.4243 -0.2699 -1.8822
39056SOL     OW28892   7.359   4.131   3.256  0.0689  0.0391 -0.0174
39056SOL    HW128893   7.341   4.196   3.325  0.1516 -1.1582  1.1758
39056SOL    HW228894   7.453   4.116   3.261  0.1227  0.1501 -0.6009
39057SOL     OW28895  10.539   7.063   3.335  0.3838 -0.0199 -0.0016
39057SOL    HW128896  10.476   7.115   3.284 -0.9896 -0.6196  1.0126
39057SOL    HW228897  10.586   7.128   3.387 -0.7688  0.3047  0.6702
39058SOL     OW28898  10.369   0.326   0.438 -0.2770  0.3520 -0.0687
39058SOL    HW128899  10.457   0.313   0.473 -1.3000 -1.9429  1.8450
39058SOL    HW228900  10.340   0.239   0.412 -2.6748  0.7375  1.0894
39059SOL     OW28901   9.608  13.095   1.578 -0.4832  0.0128  0.3217
39059SOL    HW128902   9.604  13.163   1.646 -0.1430 -0.0136  0.3688
39059SOL    HW228903   9.663  13.026   1.617  0.5914  0.4472 -0.3828
39060SOL     OW28904   4.626   1.314   9.045  0.0995  0.4913 -0.2042
39060SOL    HW128905   4.642   1.354   8.959 -0.5781  1.9184  0.3013
39060SOL    HW228906   4.713   1.292   9.078  0.3202 -1.0671 -1.6672
39061SOL     OW28907   9.352  11.622   6.223 -0.4952 -0.4881  0.0520
39061SOL    HW128908   9.385  11.707   6.194  1.2909 -0.6822  1.3690
39061SOL    HW228909   9.258  11.636   6.236 -0.3472  1.0755 -0.3958
39062SOL     OW28910   7.993   6.627  10.945  0.5535  0.0758 -0.1893
39062SOL    HW128911   7.915   6.577  10.922  0.7666 -0.2793 -0.1350
39062SOL    HW228912   7.998   6.621  11.041  0.3284  0.5769 -0.1388
39063SOL     OW28913   8.227   3.095   8.169  0.3717 -0.1287  0.3554
39063SOL    HW128914   8.293   3.133   8.111  1.2592  0.1693  1.5108
39063SOL    HW228915   8.236   3.000   8.158 -1.1910 -0.0890 -1.8227
39064SOL     OW28916   0.901   0.469   1.613 -0.1636  0.0362 -0.4907
39064SOL    HW128917   0.860   0.473   1.527  0.2546 -1.1249 -0.7604
39064SOL    HW228918   0.909   0.376   1.631 -0.2832  0.2698  0.8334
39065SOL     OW28919   8.468  10.636   8.830  0.7497  0.2038 -0.0688
39065SOL    HW128920   8.438  10.561   8.882 -0.0427 -1.0697 -2.2215
39065SOL    HW228921   8.563  10.636   8.840  0.6042  0.0764  1.4456
39066SOL     OW28922   2.238   5.860   4.588  0.0053 -0.8211  0.4822
39066SOL    HW128923   2.303   5.893   4.649  0.1972 -0.1592 -0.0737
39066SOL    HW228924   2.187   5.797   4.639  1.6025 -1.9774  0.6969
39067SOL     OW28925   4.708   2.855  12.426 -0.3336  0.1899 -0.4271
39067SOL    HW128926   4.653   2.777  12.415  2.5585 -1.7650 -2.8485
39067SOL    HW228927   4.739   2.850  12.517 -2.0636 -0.0970  0.1760
39068SOL     OW28928   0.938   8.722   8.253 -0.2491 -0.2436  0.9050
39068SOL    HW128929   0.860   8.681   8.217 -0.1975  0.1673  0.3138
39068SOL    HW228930   0.917   8.739   8.345 -0.4457 -1.1378  1.0336
39069SOL     OW28931   2.189   2.191   9.751  0.2357  0.2421  0.5608
39069SOL    HW128932   2.237   2.113   9.722 -1.4634 -0.6957  0.1225
39069SOL    HW228933   2.170   2.174   9.843  0.2313  0.3355  0.5773
39070SOL     OW28934   0.220  12.127  10.760 -0.4583 -1.0771  0.1893
39070SOL    HW128935   0.198  12.117  10.852  1.7149 -1.3064  0.7309
39070SOL    HW228936   0.308  12.165  10.760  0.1130 -2.2633 -1.7768
39071SOL     OW28937   6.013  10.166   5.936  0.4621  0.3211  0.2883
39071SOL    HW128938   6.085  10.228   5.930 -0.3759  1.7163  3.0097
39071SOL    HW228939   6.038  10.107   6.006 -0.4759  0.0126  0.3795
39072SOL     OW28940   4.887   7.866  12.095  0.0345  0.7475  0.7361
39072SOL    HW128941   4.827   7.918  12.149  0.2420  1.5159  0.2345
39072SOL    HW228942   4.937   7.815  12.158 -1.9827 -0.8774  1.1368
39073SOL     OW28943   2.330   7.777   5.289  1.0275  0.5196  0.1972
39073SOL    HW128944   2.416   7.741   5.269  0.8446 -1.5089  2.6237
39073SOL    HW228945   2.348   7.850   5.348  1.0853 -0.2701  1.1726
39074SOL     OW28946  10.982   0.228   4.139  0.4303 -0.1206  0.3776
39074SOL    HW128947  10.892   0.225   4.171 -0.1179 -1.0871 -1.1456
39074SOL    HW228948  10.974   0.251   4.047  1.9205  1.9918  0.7050
39075SOL     OW28949   8.089   8.315  13.258  0.4087  0.3599  0.1405
39075SOL    HW128950   8.106   8.230  13.217 -0.4849  0.6964 -0.9433
39075SOL    HW228951   8.110   8.379  13.191  0.5886  0.9933  0.7869
39076SOL     OW28952   9.126  13.599   9.351  0.1402 -0.2782 -0.2048
39076SOL    HW128953   9.182  13.609   9.428  0.1719 -0.8938 -0.1476
39076SOL    HW228954   9.187  13.603   9.277  0.1236  0.1889 -0.1992
39077SOL     OW28955  13.343   4.960   7.717 -0.3862  0.4071  0.4451
39077SOL    HW128956  13.396   4.990   7.643 -2.1812  2.1598 -0.2012
39077SOL    HW228957  13.323   5.039   7.766 -1.8500 -0.2978  1.0404
39078SOL     OW28958  11.792   6.081  11.882  0.6022 -0.0362 -0.2632
39078SOL    HW128959  11.778   6.069  11.976  1.2271  0.8447 -0.0488
39078SOL    HW228960  11.783   6.175  11.868 -0.4952 -0.2631 -1.2709
39079SOL     OW28961   8.793   2.339  12.165 -0.4697 -0.0638 -0.0289
39079SOL    HW128962   8.717   2.341  12.222  1.4697  0.2255  2.7425
39079SOL    HW228963   8.795   2.251  12.129 -0.9797 -0.7358  1.5373
39080SOL     OW28964  10.204   7.742  12.309  0.6433 -0.2246 -0.8408
39080SOL    HW128965  10.229   7.828  12.341 -0.5353 -0.1094 -0.1877
39080SOL    HW228966  10.180   7.693  12.387 -0.0326 -0.6993 -1.3352
39081SOL     OW28967  13.695   0.308   1.017 -0.0204  0.3056 -0.5594
39081SOL    HW128968  13.743   0.227   0.999 -0.5149 -0.1206  0.0458
39081SOL    HW228969  13.603   0.283   1.014 -0.1667  0.4053  1.5822
39082SOL     OW28970   8.840   0.914   2.278 -0.2098  0.1802  0.7300
39082SOL    HW128971   8.866   0.879   2.363 -0.5213  0.1498  0.8153
39082SOL    HW228972   8.921   0.920   2.228  0.0672  0.7730  1.2407
39083SOL     OW28973   8.451   2.231   9.962  0.6104 -0.4530  0.4397
39083SOL    HW128974   8.477   2.284  10.036  1.0304 -0.1501  0.0814
39083SOL    HW228975   8.484   2.278   9.885  0.5186 -0.9536  0.0849
39084SOL     OW28976   6.353   2.837   8.086 -0.3416  0.2325 -0.0001
39084SOL    HW128977   6.331   2.747   8.063 -0.6313  0.6454 -1.4310
39084SOL    HW228978   6.292   2.891   8.036  0.0030  1.2450  0.6285
39085SOL     OW28979   6.247   5.360  11.348 -0.1462  0.0082 -0.3868
39085SOL    HW128980   6.266   5.310  11.269 -0.1157  0.9626 -0.9871
39085SOL    HW228981   6.152   5.353  11.359 -0.1259 -0.2861 -0.3872
39086SOL     OW28982  10.999  12.368   9.621  0.1126 -0.1543  1.0384
39086SOL    HW128983  10.962  12.315   9.692  1.7961 -2.7091  0.1371
39086SOL    HW228984  11.093  12.370   9.639  0.6628 -1.2996 -1.2849
39087SOL     OW28985  13.530  12.349   2.055 -0.1457  0.1175 -0.1383
39087SOL    HW128986  13.527  12.358   2.150  0.4212 -0.3775 -0.0685
39087SOL    HW228987  13.444  12.378   2.025 -0.3873  0.1045  0.5395
39088SOL     OW28988   2.312   9.292  11.950 -0.5656 -0.4977 -0.0631
39088SOL    HW128989   2.311   9.372  11.897 -0.6518 -0.8703 -0.6296
39088SOL    HW228990   2.357   9.227  11.895  1.2379 -0.3366  1.1360
39089SOL     OW28991  11.404   0.888   1.375 -0.0893  0.3952  0.3683
39089SOL    HW128992  11.340   0.959   1.370 -2.0748 -1.2638  0.8841
39089SOL    HW228993  11.399   0.845   1.290  1.2197  0.9215  0.0009
39090SOL     OW28994   2.754  13.185  12.741 -0.2867  0.0461 -0.4475
39090SOL    HW128995   2.735  13.217  12.829  0.0381  0.3888 -0.4968
39090SOL    HW228996   2.687  13.120  12.724 -0.4147  0.0527  0.0143
39091SOL     OW28997  11.654  10.819  10.791 -0.5173 -0.9870 -0.4096
39091SOL    HW128998  11.710  10.808  10.867 -0.8687 -1.0124 -0.1526
39091SOL    HW228999  11.685  10.752  10.729 -0.0488 -0.7810 -0.4036
39092SOL     OW29000  13.719   2.422   7.155 -0.2317  0.1119 -0.5043
39092SOL    HW129001  13.721   2.425   7.251 -0.1460  0.8191 -0.5204
39092SOL    HW229002  13.749   2.509   7.128 -2.9164  0.9502 -1.1366
39093SOL     OW29003  10.940   8.821   4.925 -0.7413 -0.0635  0.0735
39093SOL    HW129004  10.907   8.837   4.837 -1.2390  0.5410  0.3587
39093SOL    HW229005  11.033   8.844   4.920 -0.7805  0.0265 -0.2819
39094SOL     OW29006   2.475  10.964   1.307 -0.3693  0.2449 -0.0476
39094SOL    HW129007   2.557  10.914   1.305 -0.9377 -0.6987 -0.5381
39094SOL    HW229008   2.502  11.055   1.296  0.5742 -0.1145 -0.8218
39095SOL     OW29009   6.488  13.029   4.063 -0.0093 -0.4605 -0.0388
39095SOL    HW129010   6.409  13.026   4.118 -1.1309 -0.3418 -1.5588
39095SOL    HW229011   6.462  12.981   3.983  1.9223 -1.6069 -0.0308
39096SOL     OW29012   0.006   9.635  10.363 -0.7908  0.1143  0.4972
39096SOL    HW129013  -0.025   9.579  10.291  2.8470  0.3822 -1.4855
39096SOL    HW229014   0.032   9.573  10.432  0.9117 -0.5964 -0.7126
39097SOL     OW29015   1.678   5.211   1.021 -0.4145 -0.0344 -0.2850
39097SOL    HW129016   1.678   5.294   0.973 -1.2918  0.8738  1.2097
39097SOL    HW229017   1.718   5.148   0.960 -0.0260  1.3955 -1.5733
39098SOL     OW29018   3.297  11.895   5.647 -0.0162  0.2925  0.4675
39098SOL    HW129019   3.241  11.928   5.577  1.3743  2.6997  0.3750
39098SOL    HW229020   3.257  11.929   5.727  1.3567  2.2226  0.3840
39099SOL     OW29021   3.514   5.605   6.284 -0.0628 -0.3168 -0.5476
39099SOL    HW129022   3.577   5.535   6.297  1.1679  1.0130  1.0051
39099SOL    HW229023   3.462   5.576   6.208  0.3895 -2.8614 -0.0008
39100SOL     OW29024  12.818   7.310  13.508 -0.2167 -0.5934  0.3762
39100SOL    HW129025  12.905   7.351  13.511 -0.9839  1.3886 -1.3535
39100SOL    HW229026  12.788   7.310  13.599 -0.0349  2.6373  0.5698
39101SOL     OW29027  13.415   8.883  10.133  0.6053  0.2567  0.0810
39101SOL    HW129028  13.320   8.885  10.118  0.1388  1.3030  2.5973
39101SOL    HW229029  13.425   8.831  10.213  2.2211 -0.1963 -0.3780
39102SOL     OW29030   7.390   0.387   6.238  0.0880 -0.1407 -0.1128
39102SOL    HW129031   7.327   0.451   6.272  1.2900  1.2213 -0.3354
39102SOL    HW229032   7.338   0.327   6.185 -1.1538  0.3486  0.5170
39103SOL     OW29033   3.371   9.364  10.345 -0.7657  0.2658  0.5561
39103SOL    HW129034   3.353   9.277  10.380 -0.9992  0.0308 -0.1347
39103SOL    HW229035   3.328   9.366  10.260 -1.6906  1.4510  1.0246
39104SOL     OW29036   8.211   5.374   9.559 -0.1690  1.1029 -0.3358
39104SOL    HW129037   8.258   5.454   9.582  0.6469  0.8778 -1.1189
39104SOL    HW229038   8.237   5.357   9.468 -1.5243  0.7735 -0.6833
39105SOL     OW29039   1.049   0.152  10.049 -0.0161  0.4335 -0.0174
39105SOL    HW129040   1.125   0.097  10.069 -0.7999 -0.4606  0.6076
39105SOL    HW229041   1.065   0.233  10.096  0.3701  0.1016  0.4287
39106SOL     OW29042   2.267   6.471  10.447 -0.3126 -0.2294  0.3641
39106SOL    HW129043   2.260   6.404  10.515  2.2246 -0.7810  0.2061
39106SOL    HW229044   2.270   6.422  10.365  3.3927 -0.2479  0.3417
39107SOL     OW29045   2.357   0.745   1.664 -0.4219 -0.5907 -0.1728
39107SOL    HW129046   2.270   0.716   1.690 -1.1118 -0.2366 -1.9203
39107SOL    HW229047   2.413   0.668   1.674 -0.6055 -0.4653  2.2336
39108SOL     OW29048   6.525   8.723  12.714 -0.0645  0.6372 -0.8064
39108SOL    HW129049   6.486   8.654  12.767 -1.7525  1.2597 -1.1909
39108SOL    HW229050   6.588   8.678  12.657 -0.4589 -0.4378 -0.4093
39109SOL     OW29051   2.686   7.453   1.169 -0.2789  0.1279  0.2258
39109SOL    HW129052   2.764   7.467   1.116  1.3193 -0.9672  2.1487
39109SOL    HW229053   2.617   7.502   1.124  1.5841  1.4734 -1.3196
39110SOL     OW29054  10.915   5.239   9.083 -0.6081  0.3424 -0.4334
39110SOL    HW129055  10.886   5.211   9.170  1.2972  0.2057  0.1947
39110SOL    HW229056  11.010   5.246   9.091 -0.3877  0.1932 -2.5520
39111SOL     OW29057   5.816   1.238   9.620  0.1001  0.8269  0.0755
39111SOL    HW129058   5.780   1.158   9.657 -0.0578  0.6907 -0.3606
39111SOL    HW229059   5.848   1.288   9.695 -1.1657  1.0391  0.5045
39112SOL     OW29060  13.602   4.968   9.521  0.0989  0.4090 -0.2902
39112SOL    HW129061  13.622   5.057   9.490 -1.6135  0.5363 -1.1881
39112SOL    HW229062  13.653   4.959   9.601 -0.2141  2.4713  0.2173
39113SOL     OW29063   7.881  10.589   4.028  0.3802 -0.1412  0.1318
39113SOL    HW129064   7.819  10.571   4.098 -0.0508 -1.1839 -0.4987
39113SOL    HW229065   7.958  10.536   4.049  0.4758 -0.0052  0.1257
39114SOL     OW29066   0.177   0.073   1.543  0.2097 -0.3863 -0.0257
39114SOL    HW129067   0.100   0.034   1.503  0.3686 -1.2759  0.4949
39114SOL    HW229068   0.211   0.134   1.478  0.2563 -1.5165 -1.0998
39115SOL     OW29069   7.815  13.418  12.860  0.2290  0.0024 -0.2439
39115SOL    HW129070   7.902  13.408  12.898 -0.7054  0.8761  2.3253
39115SOL    HW229071   7.830  13.418  12.765  2.7523 -1.9212  0.0377
39116SOL     OW29072  11.085   6.654  10.103  0.3965  0.6966  0.1314
39116SOL    HW129073  11.143   6.613  10.040  0.0387  1.0762 -0.4639
39116SOL    HW229074  11.017   6.695  10.049 -1.2757 -0.9861  0.8482
39117SOL     OW29075   4.524  13.022   4.628  0.1946 -0.2952 -0.3357
39117SOL    HW129076   4.429  13.021   4.630  0.1745 -2.0411  0.1084
39117SOL    HW229077   4.549  13.095   4.685 -0.8488  0.9436 -1.4028
39118SOL     OW29078   9.508   7.417  11.630  0.1334  0.3380 -0.2098
39118SOL    HW129079   9.591   7.447  11.593  1.1369 -0.9154  0.8997
39118SOL    HW229080   9.482   7.343  11.574  0.6317 -0.2983  0.3738
39119SOL     OW29081   7.942   2.476   8.613 -0.3647  0.2177 -0.0234
39119SOL    HW129082   7.978   2.387   8.611 -1.7355 -0.3596 -0.2944
39119SOL    HW229083   7.944   2.500   8.706  1.8993  0.7483 -0.1535
39120SOL     OW29084   3.655   2.160  10.884 -0.2407 -0.6849 -0.3068
39120SOL    HW129085   3.705   2.121  10.812 -1.0989 -0.5975 -0.9598
39120SOL    HW229086   3.637   2.087  10.943  0.0545 -0.8475 -0.4144
39121SOL     OW29087   6.745   0.210   2.610  0.3358 -0.2213 -0.0191
39121SOL    HW129088   6.783   0.166   2.686  0.3241  0.5181  0.4303
39121SOL    HW229089   6.821   0.244   2.562  0.2949  1.7645  1.1889
39122SOL     OW29090  13.488  11.817   8.052 -0.0200  0.7504 -0.2744
39122SOL    HW129091  13.576  11.832   8.018  0.3136 -1.9284 -0.8200
39122SOL    HW229092  13.495  11.831   8.146  1.2835 -0.4315 -0.1679
39123SOL     OW29093   0.445   3.861   1.054 -0.9486 -0.3033  0.1523
39123SOL    HW129094   0.532   3.871   1.094 -1.1380 -0.6220  0.6633
39123SOL    HW229095   0.452   3.781   1.003 -0.6219  0.2557 -0.6931
39124SOL     OW29096  11.538   9.501   1.270 -0.6225  0.2055 -0.1698
39124SOL    HW129097  11.587   9.576   1.237 -2.3887  0.3555 -2.7173
39124SOL    HW229098  11.479   9.537   1.336  1.9511  0.1424  2.3473
39125SOL     OW29099   6.872  10.434   0.086 -0.4027  0.0778 -0.1736
39125SOL    HW129100   6.943  10.434   0.150 -0.0866 -1.4728 -0.4985
39125SOL    HW229101   6.842  10.343   0.083 -1.4755  0.4417 -1.0688
39126SOL     OW29102   1.635   4.966   8.164 -0.6692  0.0432 -0.1888
39126SOL    HW129103   1.583   5.032   8.210 -0.7311 -0.1912  0.0779
39126SOL    HW229104   1.672   4.912   8.234 -2.2475 -1.4426 -0.4524
39127SOL     OW29105  12.117   7.644   3.895 -0.3669 -0.2534 -0.2451
39127SOL    HW129106  12.201   7.611   3.864  0.3861  1.8898 -0.6422
39127SOL    HW229107  12.133   7.735   3.917 -3.0950  1.0037 -2.7387
39128SOL     OW29108   3.472   3.442  11.788  0.0736  0.0632 -0.4852
39128SOL    HW129109   3.542   3.384  11.758  2.2048  2.9048 -1.4901
39128SOL    HW229110   3.418   3.456  11.709  0.4644  0.6271 -0.6545
39129SOL     OW29111   8.736   2.818  12.992 -0.6517  0.4710 -0.4431
39129SOL    HW129112   8.663   2.795  13.049 -1.0463 -1.6617 -1.6948
39129SOL    HW229113   8.810   2.831  13.051 -1.6342  0.9311  0.7248
39130SOL     OW29114   3.534   0.603   2.454  0.4230 -0.1670 -0.3716
39130SOL    HW129115   3.579   0.530   2.498 -0.5483 -0.0924  0.8087
39130SOL    HW229116   3.513   0.569   2.367  0.8782 -0.9296 -0.2018
39131SOL     OW29117   7.987   4.260  11.122  0.5585 -0.0440 -0.2890
39131SOL    HW129118   7.987   4.194  11.053 -2.7827 -0.6310  0.1112
39131SOL    HW229119   8.022   4.339  11.080  2.6490 -1.4489 -1.3617
39132SOL     OW29120   6.119  12.361   4.659  0.4162  0.2196  0.1957
39132SOL    HW129121   6.040  12.405   4.629  0.9932  0.1902 -1.4567
39132SOL    HW229122   6.107  12.270   4.635  0.6751  0.0964  0.5261
39133SOL     OW29123   4.990   8.199   6.990 -0.7564 -0.2838 -0.0931
39133SOL    HW129124   4.926   8.238   7.050 -0.1109  1.1331 -0.3029
39133SOL    HW229125   5.063   8.174   7.047 -0.3143  0.6925 -0.2173
39134SOL     OW29126   9.073   0.776   6.622  0.2561 -0.3605 -0.7111
39134SOL    HW129127   8.989   0.781   6.666  0.1716 -1.3281 -0.7541
39134SOL    HW229128   9.136   0.812   6.685  0.5726 -4.0367  1.3673
39135SOL     OW29129   4.875   4.798   9.419  0.0918  0.4570 -0.3685
39135SOL    HW129130   4.879   4.893   9.428 -0.7500  0.3481  1.8802
39135SOL    HW229131   4.871   4.766   9.509  0.2471 -1.7177 -1.0741
39136SOL     OW29132   2.893  13.537   8.630 -0.1018  0.0309  0.4529
39136SOL    HW129133   2.980  13.577   8.626  1.0229 -2.3508 -1.5932
39136SOL    HW229134   2.841  13.586   8.566  0.6305 -0.4000 -0.4899
39137SOL     OW29135   8.434  12.817  11.209  0.2655  0.6176  0.0725
39137SOL    HW129136   8.459  12.725  11.213 -0.1792  0.5410  2.3173
39137SOL    HW229137   8.380  12.824  11.130 -0.5905 -1.2892  0.4452
39138SOL     OW29138   9.551   5.881  10.101 -0.3517  0.3381  0.6047
39138SOL    HW129139   9.570   5.970  10.072 -0.1728  0.1772  0.2291
39138SOL    HW229140   9.636   5.839  10.107 -0.3694  0.3964  1.4690
39139SOL     OW29141   0.237   3.180   5.400  0.6723  0.0910 -0.6041
39139SOL    HW129142   0.261   3.225   5.481  0.5724  0.1033 -0.5803
39139SOL    HW229143   0.163   3.124   5.424 -0.6021  1.4900 -1.0703
39140SOL     OW29144   8.435   0.115   3.247 -0.2773 -0.1649 -0.2633
39140SOL    HW129145   8.372   0.165   3.299 -0.0461  0.3317 -0.4560
39140SOL    HW229146   8.519   0.130   3.290 -0.2870 -0.8378  0.0016
39141SOL     OW29147   5.561   0.303  13.375  0.1819 -0.7550 -0.2081
39141SOL    HW129148   5.548   0.276  13.284  0.7228  0.3652 -0.6464
39141SOL    HW229149   5.473   0.307  13.412 -0.1830  0.2492 -1.1451
39142SOL     OW29150  13.152  11.018  13.181  0.3663  0.3188  0.1455
39142SOL    HW129151  13.147  10.945  13.119  0.5062 -0.2699  0.8160
39142SOL    HW229152  13.067  11.061  13.173  0.0926 -0.2170  0.0964
39143SOL     OW29153   4.760   1.903   6.538  0.2407  0.3876 -0.1057
39143SOL    HW129154   4.741   1.812   6.518  0.3484 -0.1063  1.7897
39143SOL    HW229155   4.836   1.925   6.484 -0.9811  0.0088 -2.0493
39144SOL     OW29156   7.969   2.865   4.031 -0.3537 -0.3072 -0.5165
39144SOL    HW129157   7.894   2.828   4.080 -1.0493  1.6667 -0.0022
39144SOL    HW229158   7.959   2.959   4.041  2.6540  0.0087  0.1769
39145SOL     OW29159   2.485   0.169   2.472 -0.6711 -0.4653  0.1154
39145SOL    HW129160   2.427   0.094   2.485 -0.5136 -0.3679  1.5351
39145SOL    HW229161   2.445   0.240   2.523 -0.1963  0.0884 -0.2612
39146SOL     OW29162   8.117   4.411   9.996  0.5760  0.3043  0.2130
39146SOL    HW129163   8.127   4.321  10.026  0.5689  0.2481  0.0503
39146SOL    HW229164   8.022   4.426   9.995  0.5954  1.5175  3.7459
39147SOL     OW29165   3.742  11.206   8.424  0.7996  0.2397 -0.2923
39147SOL    HW129166   3.707  11.296   8.421  3.4526  1.3692 -0.1010
39147SOL    HW229167   3.797  11.205   8.503  0.7494 -1.6226 -0.2408
39148SOL     OW29168  11.366  11.484   6.337 -0.8077  0.3656 -0.0352
39148SOL    HW129169  11.425  11.555   6.315 -0.3259  0.1622  0.5714
39148SOL    HW229170  11.343  11.445   6.252  0.9665 -0.3737 -0.2157
39149SOL     OW29171   4.859   1.847   7.440 -0.2470 -0.1511  0.3690
39149SOL    HW129172   4.882   1.754   7.444  1.0406  0.1280 -0.1539
39149SOL    HW229173   4.923   1.890   7.496 -0.4506  0.4982  0.1091
39150SOL     OW29174  10.775  10.193  12.670 -0.1843  0.3247  0.2815
39150SOL    HW129175  10.869  10.178  12.660 -0.2485  0.3433 -0.3795
39150SOL    HW229176  10.756  10.265  12.609 -0.4347  1.0462  1.1827
39151SOL     OW29177   8.787   8.849  11.658  0.1688  0.2926  0.2621
39151SOL    HW129178   8.820   8.773  11.705 -0.5314 -0.4986 -0.4898
39151SOL    HW229179   8.865   8.903  11.642  0.9196 -0.9544 -0.4365
39152SOL     OW29180   8.598   7.912   4.357 -0.3850 -0.0561  0.2182
39152SOL    HW129181   8.636   7.851   4.421 -1.6991 -1.2762 -0.1053
39152SOL    HW229182   8.645   7.994   4.370  1.4068 -1.1271  0.7121
39153SOL     OW29183   0.196   7.600  12.371 -0.2195 -0.0987 -0.2012
39153SOL    HW129184   0.289   7.619  12.376  0.0397 -1.5134  0.9623
39153SOL    HW229185   0.171   7.578  12.461 -1.5455 -0.2914 -0.5961
39154SOL     OW29186   6.455   0.042   2.300  0.8847 -0.3321  0.2040
39154SOL    HW129187   6.548   0.051   2.282  1.5786  0.6770  3.6432
39154SOL    HW229188   6.412   0.090   2.229  3.0852  1.1302 -0.2265
39155SOL     OW29189  12.446   4.770  12.986  0.0459 -0.0674  0.2368
39155SOL    HW129190  12.419   4.861  12.976 -0.0808 -0.0303  0.8776
39155SOL    HW229191  12.455   4.738  12.896 -0.4365  0.4184  0.0075
39156SOL     OW29192   1.158  10.392   3.280  0.2866 -0.0198 -0.9512
39156SOL    HW129193   1.245  10.368   3.313  0.3390  0.1533 -0.9615
39156SOL    HW229194   1.141  10.330   3.210  0.7469  0.4458 -1.4858
39157SOL     OW29195   5.893   7.877  10.747 -0.5692 -0.5265  0.3697
39157SOL    HW129196   5.815   7.854  10.798  0.2277 -0.7686  1.4911
39157SOL    HW229197   5.965   7.875  10.809  0.3871 -0.5171 -0.7002
39158SOL     OW29198   2.930   8.134  12.319  0.0271  0.5073 -0.1341
39158SOL    HW129199   2.844   8.160  12.354 -2.0971 -1.2504 -3.5418
39158SOL    HW229200   2.936   8.177  12.234  1.7861 -0.7339 -0.7026
39159SOL     OW29201   4.649   9.934   6.423  0.5992 -0.3864  0.3449
39159SOL    HW129202   4.631   9.842   6.441 -1.4688  0.0957  0.9363
39159SOL    HW229203   4.728   9.953   6.473 -0.9973 -0.9289  3.3144
39160SOL     OW29204  13.726   6.606   3.609 -0.1590 -0.0618  0.0086
39160SOL    HW129205  13.706   6.664   3.536  1.0280  2.2218  1.3733
39160SOL    HW229206  13.816   6.627   3.633 -0.2190 -1.3635  1.5863
39161SOL     OW29207   6.613  10.563   3.433 -0.2297  0.0191 -0.0972
39161SOL    HW129208   6.592  10.486   3.379 -0.1652 -1.3426  1.7257
39161SOL    HW229209   6.699  10.592   3.402  1.3558 -2.7564  1.3361
39162SOL     OW29210   9.947   4.215   5.614 -0.2703  0.2394  0.0427
39162SOL    HW129211   9.921   4.234   5.705 -0.9357  2.5245 -0.5623
39162SOL    HW229212   9.926   4.295   5.566  1.3624 -0.4173 -1.8855
39163SOL     OW29213   8.537   0.675   3.946  0.2046  0.0076 -0.1572
39163SOL    HW129214   8.509   0.585   3.930  1.5334 -1.0815  2.7639
39163SOL    HW229215   8.478   0.707   4.013 -0.2511  1.3582 -1.1703
39164SOL     OW29216  12.973   0.746   8.989 -0.5243  0.4119  0.1039
39164SOL    HW129217  12.906   0.742   8.920 -0.4180 -1.2609  0.0635
39164SOL    HW229218  12.926   0.779   9.065 -1.3234 -0.3677 -0.0329
39165SOL     OW29219  12.698  13.668   8.556  0.1865 -0.1227  0.0406
39165SOL    HW129220  12.628  13.654   8.492  0.4265  0.2210 -0.2991
39165SOL    HW229221  12.779  13.662   8.505  0.4804 -1.7327  0.6258
39166SOL     OW29222  10.167   6.534  10.086  0.3577 -0.0353 -0.8442
39166SOL    HW129223  10.133   6.551  10.174 -0.6065  0.7070 -1.3400
39166SOL    HW229224  10.171   6.620  10.045  0.3045 -0.4364 -1.7060
39167SOL     OW29225   9.755   0.547  10.208  0.0903  0.0072  0.2544
39167SOL    HW129226   9.670   0.587  10.188  1.2407  3.3339  1.2720
39167SOL    HW229227   9.817   0.596  10.154  1.6541 -0.3006  1.7051
39168SOL     OW29228   7.670   2.444   1.472 -0.2100 -0.4828  0.4132
39168SOL    HW129229   7.692   2.506   1.402  0.1451  0.5418  1.4015
39168SOL    HW229230   7.617   2.495   1.534  3.0177 -0.0360  3.0682
39169SOL     OW29231  13.487  13.510   4.388 -0.3468  0.3882 -0.5876
39169SOL    HW129232  13.401  13.474   4.407 -0.3776  0.3581 -0.7821
39169SOL    HW229233  13.524  13.530   4.474 -0.1428 -0.5282 -0.4509
39170SOL     OW29234   6.928   8.108   5.947 -0.9267 -0.3400  0.3025
39170SOL    HW129235   6.944   8.016   5.927 -0.1643 -0.3801  1.0304
39170SOL    HW229236   6.921   8.151   5.861 -0.3659 -0.9202 -0.0403
39171SOL     OW29237   2.926   2.349   8.601  0.0887 -0.0282  0.0607
39171SOL    HW129238   2.893   2.317   8.517  1.9014  1.4258 -1.2837
39171SOL    HW229239   2.903   2.280   8.664 -1.2954 -1.1647 -1.6041
39172SOL     OW29240   2.776   3.227  11.391  0.2409 -0.3556  0.3965
39172SOL    HW129241   2.689   3.196  11.363  1.3260 -1.8336 -1.5604
39172SOL    HW229242   2.799   3.293  11.327 -0.4322  1.9637  2.3909
39173SOL     OW29243   3.971   3.177   7.362  0.1005 -0.3162  0.0767
39173SOL    HW129244   4.024   3.233   7.305 -0.6346  2.2506  1.7438
39173SOL    HW229245   3.889   3.225   7.373 -0.5079 -1.6593  1.7476
39174SOL     OW29246  10.381   2.606   6.680  0.0230  0.0367  0.1903
39174SOL    HW129247  10.388   2.642   6.592 -3.2208  1.0225  0.1863
39174SOL    HW229248  10.287   2.593   6.693  0.5101 -1.6286  2.9331
39175SOL     OW29249   3.024   2.564   8.103  0.3235 -0.0106  0.4968
39175SOL    HW129250   3.093   2.566   8.169  1.8502  0.7297 -1.0564
39175SOL    HW229251   3.056   2.505   8.036  0.1965  1.5336 -0.9924
39176SOL     OW29252   1.094   7.684  11.785  0.2645 -0.9832 -0.1446
39176SOL    HW129253   1.053   7.685  11.699 -2.7805  0.9023  1.1338
39176SOL    HW229254   1.052   7.611  11.831  0.5746 -0.9038  0.2758
39177SOL     OW29255  11.122   1.949   6.390  0.8538  0.5394 -0.6119
39177SOL    HW129256  11.076   1.886   6.446  0.6915  0.7709 -0.4808
39177SOL    HW229257  11.214   1.939   6.412  0.9152 -0.2264 -1.1745
39178SOL     OW29258   8.550   5.399   0.948  0.6009 -0.4277  0.3177
39178SOL    HW129259   8.474   5.368   0.899 -0.1864  0.8866  0.6539
39178SOL    HW229260   8.580   5.476   0.900 -0.3458  1.0471  1.9652
39179SOL     OW29261  10.086   8.590   6.708  0.0621 -1.0650  0.5063
39179SOL    HW129262  10.132   8.673   6.719 -0.0005 -0.0612 -4.3661
39179SOL    HW229263  10.146   8.536   6.658 -2.0339 -1.6158 -1.6019
39180SOL     OW29264   3.077   0.661   7.434 -0.0007 -0.3100  0.6040
39180SOL    HW129265   3.153   0.699   7.390  0.3309 -1.0315  0.5269
39180SOL    HW229266   3.024   0.736   7.462 -0.1050  0.1773 -0.8222
39181SOL     OW29267  11.550   4.287  11.368  0.4641 -0.1526  0.2181
39181SOL    HW129268  11.633   4.244  11.346  0.7104 -0.0610  0.9467
39181SOL    HW229269  11.483   4.227  11.333  0.8161 -0.8422  0.7018
39182SOL     OW29270  12.233   5.258  12.823  0.2108  0.2854  0.9435
39182SOL    HW129271  12.283   5.291  12.748  1.2809 -2.5764  0.2574
39182SOL    HW229272  12.153   5.309  12.823  0.3850  0.7453 -1.8840
39183SOL     OW29273   0.256  11.161   9.431 -0.6731 -0.7458 -0.0670
39183SOL    HW129274   0.215  11.100   9.370 -1.0541  0.2323 -0.8068
39183SOL    HW229275   0.257  11.244   9.385  1.3045 -0.5243  0.3068
39184SOL     OW29276   1.026   0.956  10.218  1.2295  0.3636  0.5208
39184SOL    HW129277   0.931   0.964  10.207  1.2123  0.8831  0.9905
39184SOL    HW229278   1.063   0.985  10.135  0.9556 -0.8936 -0.0698
39185SOL     OW29279   6.578   9.993   7.654  0.0943 -0.0073 -0.0395
39185SOL    HW129280   6.521   9.967   7.582  1.6298 -1.5942 -0.7530
39185SOL    HW229281   6.522  10.045   7.712 -2.5694 -2.7616  0.1269
39186SOL     OW29282  13.700  13.694   1.126 -0.2963  0.0156 -0.4641
39186SOL    HW129283  13.786  13.658   1.145 -0.0813  0.8051  0.0687
39186SOL    HW229284  13.713  13.753   1.052 -0.4505 -0.1410 -0.6196
39187SOL     OW29285   7.822   5.386  12.555  0.6239 -0.1005 -0.0261
39187SOL    HW129286   7.898   5.374  12.610  1.0165  1.7213 -0.1064
39187SOL    HW229287   7.830   5.318  12.488  0.8733 -1.4473  1.3056
39188SOL     OW29288  11.014   5.990   5.312  0.3109  0.5558 -0.1862
39188SOL    HW129289  11.098   5.958   5.343  0.1646  0.2723 -0.0838
39188SOL    HW229290  10.950   5.950   5.371  0.0633  0.3124 -0.6165
39189SOL     OW29291   4.789   4.791  13.565  0.2415  0.1655  0.8932
39189SOL    HW129292   4.827   4.720  13.514  1.8739  1.5323  0.1183
39189SOL    HW229293   4.821   4.777  13.654  4.7185  2.4533 -0.0578
39190SOL     OW29294   5.790   1.937   7.670  0.0836  0.0444  0.4159
39190SOL    HW129295   5.814   2.029   7.675 -1.1893  0.5189 -1.0887
39190SOL    HW229296   5.770   1.923   7.577  0.5010 -1.8247  0.5632
39191SOL     OW29297   0.301   5.499  11.688  0.2181 -0.0317  0.3938
39191SOL    HW129298   0.385   5.506  11.643  1.0911 -1.8890  1.6246
39191SOL    HW229299   0.308   5.559  11.761  0.3690  0.0300  0.3292
39192SOL     OW29300   7.836  11.659   8.230  0.9421 -0.2614 -0.5371
39192SOL    HW129301   7.841  11.593   8.299  1.6238 -0.8863 -1.1731
39192SOL    HW229302   7.899  11.631   8.165  0.2432  0.2699 -1.4743
39193SOL     OW29303  12.506   4.790   1.089 -0.5724  0.0034 -0.0032
39193SOL    HW129304  12.467   4.859   1.144  0.8641  1.0420 -0.2226
39193SOL    HW229305  12.597   4.785   1.118  1.2593  2.8865 -4.2614
39194SOL     OW29306   7.923   0.452   5.955 -0.0015  0.0919 -0.1349
39194SOL    HW129307   7.947   0.429   6.044 -1.1341  0.2344  0.2208
39194SOL    HW229308   7.886   0.372   5.918  1.6719 -0.3480 -0.9336
39195SOL     OW29309   6.604  12.759   1.682  0.0243 -0.3470 -0.1572
39195SOL    HW129310   6.511  12.766   1.661  0.2837 -0.2236 -1.3675
39195SOL    HW229311   6.617  12.667   1.704 -0.6572 -0.0642  1.5218
39196SOL     OW29312  10.284   7.452   7.757 -0.4205 -0.4016 -0.0168
39196SOL    HW129313  10.244   7.440   7.843 -0.4023 -1.3929 -0.1319
39196SOL    HW229314  10.310   7.544   7.755 -0.4026 -0.3704  1.0465
39197SOL     OW29315   7.543   5.240  12.142 -0.0617  0.2135 -0.0273
39197SOL    HW129316   7.495   5.192  12.208  0.3683 -0.5227 -0.2342
39197SOL    HW229317   7.484   5.244  12.066 -0.0133 -0.1964 -0.0886
39198SOL     OW29318   7.863   8.773   0.504  0.4239  0.3120 -0.6124
39198SOL    HW129319   7.953   8.801   0.485  0.4672 -0.4825 -1.7004
39198SOL    HW229320   7.872   8.704   0.569  0.6819 -0.2691 -1.2472
39199SOL     OW29321   7.828  11.441   3.650  0.1027  0.7843 -0.0541
39199SOL    HW129322   7.812  11.535   3.640 -0.3757  0.6829 -0.3010
39199SOL    HW229323   7.741  11.402   3.643  0.4076  0.2396 -0.9163
39200SOL     OW29324   2.778  12.258  10.055 -0.0773  0.3065  0.0242
39200SOL    HW129325   2.860  12.248  10.104  0.6210 -0.7235 -1.2725
39200SOL    HW229326   2.807  12.270   9.964 -1.3554  1.1308 -0.2904
39201SOL     OW29327  13.024   8.154   0.807 -0.2120 -0.1961 -0.7083
39201SOL    HW129328  13.010   8.071   0.762  0.9207 -0.9715  0.2876
39201SOL    HW229329  12.937   8.191   0.817 -0.7043 -1.0977 -1.4802
39202SOL     OW29330   8.905   0.600   2.252  0.0594  0.1922 -0.0209
39202SOL    HW129331   8.901   0.668   2.319 -3.6083  0.9069 -0.7437
39202SOL    HW229332   8.963   0.636   2.185  0.4245  1.3244  0.8683
39203SOL     OW29333   9.681   2.781   1.302  0.0948  0.7870 -0.3417
39203SOL    HW129334   9.695   2.767   1.396 -1.1250 -0.1955 -0.2888
39203SOL    HW229335   9.763   2.752   1.262 -0.1291 -0.8259  0.2766
39204SOL     OW29336  11.167  10.626  11.361  0.3250  0.5082 -0.7134
39204SOL    HW129337  11.254  10.639  11.323  0.5403  0.1516 -0.3521
39204SOL    HW229338  11.107  10.665  11.297  0.6116 -0.8059 -1.8426
39205SOL     OW29339  13.178   0.130   9.839  0.7020  0.1005  0.2086
39205SOL    HW129340  13.203   0.206   9.786 -1.3171  0.3058 -0.5435
39205SOL    HW229341  13.083   0.123   9.828  0.2373 -0.1911  3.3649
39206SOL     OW29342  12.735   9.486   2.975  0.4097  0.2280 -0.6247
39206SOL    HW129343  12.756   9.479   3.068  1.9315  0.5961 -0.9114
39206SOL    HW229344  12.640   9.501   2.973  0.7063  2.8736  0.9776
39207SOL     OW29345   4.555   8.530  10.813  0.0095 -0.5709  0.2215
39207SOL    HW129346   4.557   8.436  10.800  1.0333 -0.7587  1.6056
39207SOL    HW229347   4.533   8.542  10.905 -0.1363  0.5479  0.0637
39208SOL     OW29348   1.459  11.896   6.348 -0.3803  0.0624 -0.6783
39208SOL    HW129349   1.545  11.872   6.314  0.0940 -2.0396  1.6838
39208SOL    HW229350   1.476  11.921   6.439 -2.2441 -0.3265 -0.1883
39209SOL     OW29351  13.709   0.687   5.584 -0.7036  0.0517  0.4617
39209SOL    HW129352  13.616   0.693   5.561 -0.6987 -0.3199  0.3509
39209SOL    HW229353  13.710   0.657   5.675 -0.6688 -2.1032 -0.1980
39210SOL     OW29354   2.876   0.976  12.553 -0.0362  0.0211  0.0129
39210SOL    HW129355   2.956   0.924  12.555  0.5220  0.8169 -0.4876
39210SOL    HW229356   2.838   0.959  12.467  1.3699  2.1257 -1.1231
39211SOL     OW29357   9.398   4.791   7.562  0.3597  0.1418 -0.1683
39211SOL    HW129358   9.439   4.876   7.543 -0.7863  0.6343 -0.5362
39211SOL    HW229359   9.374   4.757   7.475  0.6771 -0.5003 -0.0103
39212SOL     OW29360  11.927   3.939   9.867  0.1924  0.7279  0.2172
39212SOL    HW129361  11.990   3.872   9.893  1.1422  0.1867 -2.9858
39212SOL    HW229362  11.844   3.910   9.902  1.2232  0.0069  2.2226
39213SOL     OW29363   1.550   3.989  10.994  0.5699  0.0630  0.4749
39213SOL    HW129364   1.474   3.931  10.998 -0.3733  1.1199 -1.0774
39213SOL    HW229365   1.537   4.050  11.066  0.0015  0.1543  0.3031
39214SOL     OW29366   3.389  12.996   1.570  0.1831 -0.3440 -0.0299
39214SOL    HW129367   3.307  13.033   1.539  1.6870  2.8429 -0.6152
39214SOL    HW229368   3.365  12.946   1.648 -2.4112 -0.5565 -0.8769
39215SOL     OW29369   1.041   6.027  10.730  0.6339  0.3937 -0.2255
39215SOL    HW129370   0.948   6.048  10.731  0.4493 -0.2289  2.5483
39215SOL    HW229371   1.084   6.112  10.717 -0.3029  1.0799  0.9623
39216SOL     OW29372   2.640   7.680   5.473 -0.1623  0.5451 -0.2105
39216SOL    HW129373   2.718   7.732   5.456 -0.0198 -0.0201 -1.3247
39216SOL    HW229374   2.667   7.589   5.458 -0.4172  0.1098  1.6379
39217SOL     OW29375   0.105   0.497   2.030  0.0409 -0.4500 -0.4352
39217SOL    HW129376   0.134   0.582   2.063  1.2978 -1.2641  0.6365
39217SOL    HW229377   0.057   0.518   1.949  3.0898  1.1051 -2.0287
39218SOL     OW29378   8.570   8.641   6.181 -0.2000  0.4561 -0.5194
39218SOL    HW129379   8.629   8.715   6.176 -0.1424  0.3128 -2.6791
39218SOL    HW229380   8.482   8.679   6.172 -0.2399  0.3609 -0.5410
39219SOL     OW29381   3.272   2.037  13.049 -0.4149  0.2652 -0.2840
39219SOL    HW129382   3.353   2.062  13.094  0.5753 -0.5222 -1.5559
39219SOL    HW229383   3.214   2.007  13.119  0.6700  0.1048  0.5762
39220SOL     OW29384   3.303   0.222  12.930 -0.2590 -0.3463  0.1550
39220SOL    HW129385   3.270   0.152  12.987 -1.9386 -0.4034 -0.8207
39220SOL    HW229386   3.282   0.303  12.977 -0.1820 -0.4355  0.3453
39221SOL     OW29387  13.714   0.588   4.402 -0.3319  0.1481 -0.2796
39221SOL    HW129388  13.800   0.630   4.404 -0.8502  1.2501 -0.5829
39221SOL    HW229389  13.673   0.611   4.485 -0.9107  0.8801 -0.7624
39222SOL     OW29390   6.221   4.515  10.851 -0.5471 -0.8568  0.5896
39222SOL    HW129391   6.302   4.551  10.886 -0.4343 -1.1658  0.6450
39222SOL    HW229392   6.185   4.585  10.797  0.0186 -0.9042  0.1464
39223SOL     OW29393   3.235  12.994   4.524 -0.1496  0.1230  0.1226
39223SOL    HW129394   3.277  13.036   4.449  1.2244  1.1687  1.4146
39223SOL    HW229395   3.182  13.064   4.564  2.4889  0.9440  2.5443
39224SOL     OW29396  12.180   0.949   4.332 -0.2969  0.3983 -0.7190
39224SOL    HW129397  12.091   0.973   4.359  0.9306  1.4277  3.0179
39224SOL    HW229398  12.228   1.031   4.336  1.2635 -0.4943 -0.6643
39225SOL     OW29399   3.686  11.802  10.952  0.0325 -0.1351  0.1671
39225SOL    HW129400   3.720  11.891  10.946 -0.9266  0.3742  1.6636
39225SOL    HW229401   3.641  11.787  10.869  0.1085  0.8291 -0.0584
39226SOL     OW29402   4.603   8.122   1.540 -0.1908 -0.7421  0.2934
39226SOL    HW129403   4.534   8.055   1.538  0.8737 -1.9553  2.0593
39226SOL    HW229404   4.605   8.152   1.630  0.7280  0.2235 -0.0339
39227SOL     OW29405   6.375   5.484   7.088  0.0131 -0.4367 -0.1755
39227SOL    HW129406   6.304   5.420   7.087 -1.0014  0.6401 -1.7081
39227SOL    HW229407   6.389   5.502   7.181 -1.7462 -0.6750  0.1791
39228SOL     OW29408   1.246   8.880   3.328  0.1323  0.0486 -0.0599
39228SOL    HW129409   1.261   8.812   3.394  2.4338  0.1237 -0.4036
39228SOL    HW229410   1.199   8.835   3.258  1.7233 -1.3027 -0.3362
39229SOL     OW29411   4.393  12.488  10.070  0.2306 -0.2408  0.1079
39229SOL    HW129412   4.319  12.544  10.047  1.2324  1.2697  0.3405
39229SOL    HW229413   4.403  12.499  10.165  1.1588  0.1455 -0.0184
39230SOL     OW29414   6.871   7.958   3.739 -0.7112 -0.4998 -0.0030
39230SOL    HW129415   6.941   8.022   3.755 -1.2245  0.0571  0.0439
39230SOL    HW229416   6.793   7.997   3.778 -1.2614 -0.6820 -0.8993
39231SOL     OW29417  11.474  12.900   4.939  0.2472 -0.4274 -0.2405
39231SOL    HW129418  11.477  12.805   4.949 -0.3473 -0.3496  0.8705
39231SOL    HW229419  11.566  12.926   4.927  0.4227 -1.1303 -0.4295
39232SOL     OW29420   0.530   8.775  10.010  0.0115  0.5301  0.6997
39232SOL    HW129421   0.594   8.715   9.971  1.7597  3.1012 -0.6352
39232SOL    HW229422   0.445   8.743   9.978  0.8045 -1.4053  0.3748
39233SOL     OW29423   5.938   6.860   9.938  0.3846 -0.0840  0.1396
39233SOL    HW129424   5.962   6.859  10.030 -0.9486  1.1396  0.5446
39233SOL    HW229425   6.022   6.868   9.891  0.9668  3.0432  1.4276
39234SOL     OW29426   7.385  13.653   9.050 -0.6576  0.3870  0.2287
39234SOL    HW129427   7.473  13.641   9.015 -0.3206  1.0741  0.8182
39234SOL    HW229428   7.354  13.734   9.011 -0.1467  1.3466  1.7145
39235SOL     OW29429  11.857   0.137  12.469  0.9793  0.4071  0.4818
39235SOL    HW129430  11.794   0.206  12.450  0.2697 -0.5673 -0.8925
39235SOL    HW229431  11.943   0.180  12.461  0.5370  1.3697  0.7846
39236SOL     OW29432   9.946   3.492  13.744  0.1937  0.3228  0.1112
39236SOL    HW129433   9.855   3.495  13.776  0.0268  1.5666 -0.4237
39236SOL    HW229434   9.986   3.422  13.795 -1.0033 -0.0955  0.5316
39237SOL     OW29435   5.966  11.142   2.252  0.3110  0.4815 -0.1363
39237SOL    HW129436   5.964  11.171   2.343 -0.1024 -0.0603  0.0355
39237SOL    HW229437   5.889  11.181   2.212  0.6821  1.0045 -0.3469
39238SOL     OW29438   8.629   0.707   9.558 -0.5034 -0.4203 -0.3273
39238SOL    HW129439   8.639   0.643   9.488  0.0781  0.0765 -0.7097
39238SOL    HW229440   8.700   0.770   9.544 -1.8551  1.0768 -0.7657
39239SOL     OW29441  12.643  10.148   6.695 -0.4501  0.2129  0.0201
39239SOL    HW129442  12.718  10.170   6.638 -0.9430  0.7409 -0.4368
39239SOL    HW229443  12.574  10.122   6.634 -0.4099 -1.0256  0.4784
39240SOL     OW29444   8.752   4.486   7.699  0.5606  0.2716  0.0725
39240SOL    HW129445   8.764   4.576   7.732  0.5312 -0.1312  1.2383
39240SOL    HW229446   8.837   4.464   7.662  1.8613 -0.5172  3.1798
39241SOL     OW29447  11.336   0.343   7.366  0.0009  0.3627  0.3794
39241SOL    HW129448  11.421   0.312   7.334  0.0993 -0.6702  1.5641
39241SOL    HW229449  11.275   0.273   7.344 -0.3956  0.7571  0.2180
39242SOL     OW29450  10.836   5.838   5.915 -0.3510 -0.1162 -0.2532
39242SOL    HW129451  10.782   5.909   5.881 -0.5445 -0.2744 -0.2794
39242SOL    HW229452  10.790   5.808   5.993  0.4555  0.7135  0.5664
39243SOL     OW29453   3.491  10.703   8.049  0.7056  0.3292 -0.0941
39243SOL    HW129454   3.432  10.641   8.092  1.0563  0.0383 -0.0249
39243SOL    HW229455   3.492  10.779   8.107  1.1970 -0.0719  0.4410
39244SOL     OW29456   3.282  10.563   5.473  0.4012  0.0280 -0.4331
39244SOL    HW129457   3.260  10.651   5.445 -2.7896 -0.3876  0.4265
39244SOL    HW229458   3.341  10.576   5.548  0.2122  1.3978 -0.4977
39245SOL     OW29459  13.669  10.117   1.849 -0.7895  0.2409 -0.3100
39245SOL    HW129460  13.694  10.034   1.808 -0.9965  0.3704 -0.6989
39245SOL    HW229461  13.652  10.094   1.940  0.4727  0.0892 -0.0849
39246SOL     OW29462  10.663   1.850   2.184  0.2566  0.5660  0.2596
39246SOL    HW129463  10.749   1.837   2.225  0.1203 -0.2676  0.3094
39246SOL    HW229464  10.655   1.777   2.122 -0.4018  0.6495  0.2420
39247SOL     OW29465   3.984   0.981   2.235  0.4252  0.4140  0.0381
39247SOL    HW129466   4.064   0.935   2.260 -0.8863 -2.1357 -0.0826
39247SOL    HW229467   3.923   0.911   2.210 -1.6685  2.2756 -0.4083
39248SOL     OW29468  11.155   5.544   2.293 -0.0404  0.1677 -0.0923
39248SOL    HW129469  11.157   5.455   2.258  2.4743  0.1742 -0.0898
39248SOL    HW229470  11.164   5.600   2.216 -0.9942  0.4341 -0.0288
39249SOL     OW29471   8.101   6.050   8.841  0.1298  0.5223  0.0247
39249SOL    HW129472   8.185   6.008   8.822 -1.0549 -2.0391 -0.0785
39249SOL    HW229473   8.124   6.138   8.870  2.7186  0.4879 -1.5996
39250SOL     OW29474   4.046   3.791   9.841  0.1570 -0.1924  0.4223
39250SOL    HW129475   4.068   3.699   9.823 -1.0074 -0.1981 -1.1880
39250SOL    HW229476   3.950   3.792   9.845  0.1669  0.9307  0.6287
39251SOL     OW29477   0.342   0.846   9.510  0.4864  0.4604 -0.0127
39251SOL    HW129478   0.430   0.826   9.543  0.7276  0.7613 -0.4729
39251SOL    HW229479   0.331   0.940   9.524 -0.3025  0.2020  1.3079
39252SOL     OW29480   4.290  13.080   1.899 -0.0378  0.3469  0.4426
39252SOL    HW129481   4.366  13.095   1.955 -0.6882  0.6271  1.2656
39252SOL    HW229482   4.271  12.987   1.909  0.1713  0.2865  0.2734
39253SOL     OW29483   5.377  11.411   8.095 -0.5376 -0.1200 -0.4099
39253SOL    HW129484   5.383  11.356   8.174 -1.9435 -1.9733 -1.5113
39253SOL    HW229485   5.398  11.351   8.023  1.2917  1.6660 -1.4574
39254SOL     OW29486  12.337  11.695   6.192  0.3014  0.1481 -0.0317
39254SOL    HW129487  12.399  11.739   6.251  1.0059 -0.6282 -0.1791
39254SOL    HW229488  12.325  11.757   6.120  0.5728  0.4794  0.2014
39255SOL     OW29489  11.493   5.047   2.640 -0.3995 -0.1969  0.0490
39255SOL    HW129490  11.498   5.036   2.545 -0.4823 -1.6602  0.1944
39255SOL    HW229491  11.422   4.988   2.667 -1.2623  1.1784  0.8769
39256SOL     OW29492   7.365  13.067  11.446  0.0714 -0.1060  0.3382
39256SOL    HW129493   7.419  12.990  11.462 -0.0884 -0.3181 -0.1306
39256SOL    HW229494   7.419  13.125  11.393 -0.0517 -0.1862  0.1251
39257SOL     OW29495  13.267   0.920   4.747 -0.0128  0.5912 -0.1753
39257SOL    HW129496  13.264   0.951   4.656  2.0380  0.3629 -0.3733
39257SOL    HW229497  13.326   0.981   4.791 -0.7746  0.5426  0.9590
39258SOL     OW29498   2.388  13.340  13.692 -0.2152 -0.3811  0.4850
39258SOL    HW129499   2.444  13.299  13.759  0.8078 -0.6069 -0.4682
39258SOL    HW229500   2.309  13.287  13.691  0.3691 -1.2705  0.4956
39259SOL     OW29501  11.420  11.421   6.619 -0.0761  0.2702  0.1947
39259SOL    HW129502  11.513  11.400   6.611 -0.4566 -1.0662 -1.2610
39259SOL    HW229503  11.393  11.446   6.530 -1.3863 -0.7005  0.2791
39260SOL     OW29504  13.575   7.940   3.794 -0.6059 -0.3121 -0.4900
39260SOL    HW129505  13.619   8.018   3.761  0.2825 -0.9714 -0.8991
39260SOL    HW229506  13.482   7.954   3.773 -0.1783 -0.4234 -2.7898
39261SOL     OW29507  10.309   2.060   1.626 -0.1785  0.0530  0.0970
39261SOL    HW129508  10.358   1.979   1.610  1.0931  0.8574 -0.2259
39261SOL    HW229509  10.275   2.085   1.540  2.8637  1.9758 -0.6840
39262SOL     OW29510  12.759  10.923   6.976 -0.5210  0.4811  0.6743
39262SOL    HW129511  12.797  10.942   6.890 -0.4751  3.3206  1.2181
39262SOL    HW229512  12.823  10.957   7.039 -1.3022 -0.0335  1.7845
39263SOL     OW29513   9.199   3.990   3.608 -0.1933  0.4787 -0.2275
39263SOL    HW129514   9.177   3.981   3.515  2.3135  0.3058 -0.8766
39263SOL    HW229515   9.294   3.978   3.611 -0.2620  0.0423  2.4309
39264SOL     OW29516  12.778   2.324  12.020  0.0276  0.2193  0.0950
39264SOL    HW129517  12.692   2.350  11.986 -1.5029 -2.9023  1.1631
39264SOL    HW229518  12.829   2.302  11.942 -0.7748  0.3948 -0.4922
39265SOL     OW29519   5.104   0.233  13.179 -0.8725  0.3831 -0.2435
39265SOL    HW129520   5.036   0.180  13.221 -0.7090 -0.0850 -0.5569
39265SOL    HW229521   5.075   0.323  13.190 -0.8609  0.2692  0.8274
39266SOL     OW29522   0.675   4.304   2.797  0.0275 -0.4393  0.3278
39266SOL    HW129523   0.689   4.392   2.831  2.4796  0.0749 -1.7201
39266SOL    HW229524   0.741   4.250   2.841  0.7831 -0.5141 -0.8579
39267SOL     OW29525   0.904   2.028   4.003  0.0542 -0.0322 -0.3172
39267SOL    HW129526   0.951   2.107   4.029  0.9551 -0.4905 -0.5144
39267SOL    HW229527   0.923   2.019   3.909 -2.3040  1.0324 -0.9655
39268SOL     OW29528  11.767   2.697  13.051 -0.1153  0.2860 -0.0420
39268SOL    HW129529  11.715   2.768  13.014 -0.5030 -1.0420 -2.1982
39268SOL    HW229530  11.703   2.635  13.084  0.2257  1.2378  2.6625
39269SOL     OW29531   7.295   9.434   9.163  1.0633  0.4326  0.1308
39269SOL    HW129532   7.372   9.451   9.218  1.1053 -0.9956  0.5673
39269SOL    HW229533   7.286   9.338   9.164 -0.7684  0.5676  0.1448
39270SOL     OW29534  10.169   0.007   1.296 -0.4485  0.3464  0.3451
39270SOL    HW129535  10.094  -0.010   1.354 -0.7408  0.9216  0.1422
39270SOL    HW229536  10.135   0.068   1.230  0.2632  0.7961  0.3890
39271SOL     OW29537   2.444   7.551   4.235  0.2232 -0.2819 -0.6626
39271SOL    HW129538   2.461   7.611   4.163  0.1942  0.6535  0.0780
39271SOL    HW229539   2.458   7.604   4.314 -0.5796 -1.0287  0.0126
39272SOL     OW29540   9.102   1.991   9.697  0.6122  0.2367 -0.5362
39272SOL    HW129541   9.010   1.974   9.718  0.9287  1.1248  1.8685
39272SOL    HW229542   9.129   1.916   9.644 -1.2772 -0.4409 -0.6083
39273SOL     OW29543   2.139   0.230  11.840  0.3185 -0.4440 -0.0204
39273SOL    HW129544   2.221   0.261  11.879 -0.3528  0.8084  0.4573
39273SOL    HW229545   2.086   0.309  11.830 -0.7396 -1.1966 -0.5660
39274SOL     OW29546  10.880   0.438   2.174 -0.0702  0.0098  0.3289
39274SOL    HW129547  10.940   0.381   2.126  1.5510  3.2984 -1.9130
39274SOL    HW229548  10.795   0.424   2.132  0.6475  0.4202 -1.3191
39275SOL     OW29549  12.926   0.486   3.150 -0.1678  0.2593  0.2309
39275SOL    HW129550  12.869   0.509   3.077  1.4770 -0.6732 -1.4262
39275SOL    HW229551  12.989   0.425   3.113  1.6888  0.9428  2.0815
39276SOL     OW29552   6.175   3.178   0.391 -0.0428 -0.3858 -0.2532
39276SOL    HW129553   6.095   3.216   0.355 -0.7275 -1.1931  0.3809
39276SOL    HW229554   6.217   3.136   0.317 -0.2203  0.0062 -0.5834
39277SOL     OW29555   3.077   3.662  13.428  0.0252 -0.2495 -0.2254
39277SOL    HW129556   3.027   3.742  13.415 -2.0206 -1.3091  0.6484
39277SOL    HW229557   3.011   3.594  13.439  1.6877 -1.8897  0.1683
39278SOL     OW29558  11.497   3.590   7.143 -1.2060 -0.8205  0.5984
39278SOL    HW129559  11.567   3.543   7.097 -1.9864 -1.0844 -0.3475
39278SOL    HW229560  11.417   3.547   7.116 -1.8110  0.0007  1.0354
39279SOL     OW29561  11.097   3.495   4.574  0.2014  0.4644 -0.5758
39279SOL    HW129562  11.145   3.486   4.656  1.2738  0.8196 -1.1527
39279SOL    HW229563  11.019   3.441   4.586  0.3692  0.4764  0.6550
39280SOL     OW29564   8.589  11.177   7.073 -0.0254 -0.2758  0.1990
39280SOL    HW129565   8.571  11.210   7.161 -1.1098  1.8691 -0.7574
39280SOL    HW229566   8.684  11.182   7.064  0.0110  0.4897  0.8955
39281SOL     OW29567   8.489  13.388   1.164 -0.2028  0.0045  0.1734
39281SOL    HW129568   8.439  13.357   1.088 -1.0753 -0.7493  1.0292
39281SOL    HW229569   8.580  13.387   1.134 -0.4808 -0.7526 -0.7133
39282SOL     OW29570   4.996   5.462  12.668 -0.0583 -0.3214  0.3395
39282SOL    HW129571   5.027   5.415  12.746  1.3312  0.9239  0.5971
39282SOL    HW229572   5.067   5.450  12.604 -0.4977 -0.0567 -0.2025
39283SOL     OW29573  12.391   3.900   8.071 -0.2705  0.2933 -0.2319
39283SOL    HW129574  12.481   3.923   8.050 -0.5109 -0.0153 -1.6988
39283SOL    HW229575  12.373   3.823   8.016 -0.9330 -0.6116  1.1891
39284SOL     OW29576  10.851   2.901   2.366  0.0612  0.3522  0.0637
39284SOL    HW129577  10.778   2.892   2.305 -0.0361  1.4373  0.0102
39284SOL    HW229578  10.866   2.812   2.397 -2.6924  0.3682  1.7554
39285SOL     OW29579   2.141   3.929   1.255 -0.2777  0.0706  0.3439
39285SOL    HW129580   2.195   3.996   1.212  0.5406 -0.3080  0.7748
39285SOL    HW229581   2.138   3.857   1.192 -0.8624  0.3523  0.0329
39286SOL     OW29582   1.135   8.332   2.836 -0.5950 -0.2187 -0.2707
39286SOL    HW129583   1.116   8.300   2.924  0.0171  0.8343  0.2583
39286SOL    HW229584   1.067   8.397   2.818 -0.6180 -0.3062 -0.5068
39287SOL     OW29585  11.535   4.877  13.601  0.4183 -0.3323 -0.3281
39287SOL    HW129586  11.490   4.835  13.528 -0.6061 -1.3971  0.8567
39287SOL    HW229587  11.621   4.834  13.604  0.1039 -0.9825 -0.3333
39288SOL     OW29588  13.091   8.438   5.486  0.4589 -0.5838 -0.1834
39288SOL    HW129589  13.037   8.409   5.413  0.7656 -0.2053 -0.5679
39288SOL    HW229590  13.181   8.415   5.460  0.9298  2.0758 -1.2413
39289SOL     OW29591   9.070   7.810  12.552  0.5047 -0.5051  0.2661
39289SOL    HW129592   9.010   7.756  12.604 -1.5889 -0.0875 -1.5318
39289SOL    HW229593   9.070   7.895  12.597 -2.5598  0.3582 -1.0975
39290SOL     OW29594  10.477   4.996  12.115 -0.1979 -0.0015 -0.2397
39290SOL    HW129595  10.452   5.037  12.198  0.5450  0.4863 -0.2423
39290SOL    HW229596  10.400   4.947  12.088  0.1250 -1.7703  1.7157
39291SOL     OW29597  10.891  13.602   7.941  0.6612 -0.2674  0.0704
39291SOL    HW129598  10.954  13.670   7.964  1.2668 -0.2436 -1.5713
39291SOL    HW229599  10.824  13.647   7.890 -0.7272 -0.3028  1.7590
39292SOL     OW29600  11.776   7.189  10.949  0.0260  0.0081  0.6293
39292SOL    HW129601  11.770   7.106  10.902  2.0916  0.4408 -0.5050
39292SOL    HW229602  11.685   7.218  10.958 -0.6005 -1.3696 -0.7634
39293SOL     OW29603   0.541   6.291   0.706  0.1729 -0.1462  0.4211
39293SOL    HW129604   0.606   6.294   0.636 -0.7873 -3.3725 -0.8255
39293SOL    HW229605   0.462   6.330   0.667 -0.2552 -1.6125 -0.2854
39294SOL     OW29606   0.885  12.319  10.780  0.1545 -0.1728  0.2203
39294SOL    HW129607   0.862  12.359  10.696  0.8473 -0.4874 -0.1155
39294SOL    HW229608   0.851  12.230  10.774 -3.8151  0.9592  1.9586
39295SOL     OW29609  10.822   7.757   0.133  0.5364 -0.3420 -0.0749
39295SOL    HW129610  10.913   7.778   0.155  0.2627  0.7788  0.0245
39295SOL    HW229611  10.808   7.794   0.046  0.2999 -0.8852 -0.2710
39296SOL     OW29612   2.241   6.252   1.789 -0.1601 -0.4861 -0.0749
39296SOL    HW129613   2.255   6.346   1.772  0.4607 -0.5338  0.1515
39296SOL    HW229614   2.264   6.209   1.707 -0.0286 -0.4726 -0.0458
39297SOL     OW29615   8.259  12.373   5.260 -0.3577 -0.4242 -0.0725
39297SOL    HW129616   8.254  12.291   5.309  0.2326 -0.2102  0.3467
39297SOL    HW229617   8.224  12.439   5.319 -0.8710 -0.3713 -0.4249
39298SOL     OW29618   0.932   6.451  11.474 -0.1015 -0.2941  0.1428
39298SOL    HW129619   0.992   6.379  11.456  1.3260  1.0415 -0.6713
39298SOL    HW229620   0.891   6.469  11.390  0.4286  0.5899  0.0634
39299SOL     OW29621   4.813   3.903   6.726  0.2146  0.1413 -0.1010
39299SOL    HW129622   4.729   3.865   6.753  0.0597 -0.5514 -1.4791
39299SOL    HW229623   4.813   3.991   6.764 -0.7729 -0.1469  0.5942
39300SOL     OW29624  10.585   5.704   2.547  0.1550 -0.2265  0.1679
39300SOL    HW129625  10.545   5.617   2.547 -1.2681  0.4025  0.5809
39300SOL    HW229626  10.679   5.687   2.540  0.0179 -1.8402  1.6789
39301SOL     OW29627   3.122   4.896  11.481  0.3473  0.4430  0.2003
39301SOL    HW129628   3.099   4.969  11.538  1.5400  0.8855  0.1364
39301SOL    HW229629   3.038   4.858  11.456 -0.2224  0.4478  1.9665
39302SOL     OW29630  10.415   6.461   9.914  0.1783 -0.1846 -0.0195
39302SOL    HW129631  10.365   6.446   9.835 -0.6363 -1.9668  0.7807
39302SOL    HW229632  10.357   6.514   9.970  0.5252  0.5827 -0.3780
39303SOL     OW29633  11.106   3.737   7.893  0.5973  0.2184  0.2550
39303SOL    HW129634  11.075   3.725   7.803 -0.2471  0.4293  0.5097
39303SOL    HW229635  11.198   3.710   7.890  1.3144  2.4434 -1.2324
39304SOL     OW29636   9.541   9.100   1.569 -0.3427  0.0710 -0.3113
39304SOL    HW129637   9.464   9.105   1.513 -0.1367  1.5698 -0.5123
39304SOL    HW229638   9.545   9.185   1.613  0.8454 -0.1910  0.1425
39305SOL     OW29639   9.765  12.194   4.522 -0.0787  0.5610 -0.4215
39305SOL    HW129640   9.758  12.210   4.616 -0.9332  0.7472 -0.5016
39305SOL    HW229641   9.818  12.114   4.514  0.8325  1.0984  0.1608
39306SOL     OW29642  12.754   1.604  13.526 -0.3025 -0.2437  0.4518
39306SOL    HW129643  12.826   1.542  13.521  1.8767  2.1989 -1.2178
39306SOL    HW229644  12.789   1.677  13.577 -1.9848  0.6093  0.4700
39307SOL     OW29645   8.740   4.514  12.740  0.5748 -0.0185  0.2507
39307SOL    HW129646   8.801   4.506  12.813 -0.3775  1.5280  1.2981
39307SOL    HW229647   8.674   4.446  12.756  0.6632 -0.0397  0.5286
39308SOL     OW29648   4.146   8.899   6.202  0.5493  0.4399 -0.6399
39308SOL    HW129649   4.125   8.976   6.254  1.7418  1.6529 -1.8536
39308SOL    HW229650   4.208   8.931   6.136  3.4205 -2.1333  0.5829
39309SOL     OW29651   6.322   9.515   3.135  0.0476  0.3429 -0.7794
39309SOL    HW129652   6.296   9.423   3.130 -0.3340  0.3606  0.5267
39309SOL    HW229653   6.381   9.527   3.061 -0.5290 -0.7403 -1.4421
39310SOL     OW29654   8.076   8.757   3.329 -0.4671  0.0616  0.3135
39310SOL    HW129655   8.050   8.807   3.406 -0.2505  0.8022 -0.0870
39310SOL    HW229656   8.071   8.820   3.257 -0.6367 -0.6176 -0.2729
39311SOL     OW29657  13.245   8.024   8.489 -0.3784 -0.1651 -0.4919
39311SOL    HW129658  13.211   7.941   8.523  0.0982  0.5962  2.0883
39311SOL    HW229659  13.203   8.034   8.404 -0.7500 -2.8400 -0.7243
39312SOL     OW29660  12.248   2.524   7.256  0.4213 -0.3237  0.4227
39312SOL    HW129661  12.217   2.476   7.179  0.2972  0.5321 -0.0626
39312SOL    HW229662  12.344   2.525   7.246  0.2978  2.7295 -1.5588
39313SOL     OW29663  10.342   9.238   0.495  0.1581 -0.5546  0.7610
39313SOL    HW129664  10.308   9.272   0.412  1.9218 -0.3936  0.0517
39313SOL    HW229665  10.363   9.316   0.546 -0.9537 -0.6549  1.3871
39314SOL     OW29666  10.067   0.833   0.772 -0.0731 -0.6803 -0.2799
39314SOL    HW129667  10.037   0.876   0.693  1.5250 -0.0169 -0.5728
39314SOL    HW229668  10.100   0.749   0.742  0.4545 -0.4631 -0.3206
39315SOL     OW29669  10.955   6.552  12.505  0.3896 -0.3431  0.7290
39315SOL    HW129670  10.873   6.549  12.455 -0.0098 -1.0022  1.4127
39315SOL    HW229671  10.970   6.646  12.521  1.3456  0.0309 -1.9102
39316SOL     OW29672   5.764  11.770   2.544  0.3923 -0.6117 -0.5898
39316SOL    HW129673   5.749  11.832   2.615  2.3046  0.0943 -0.7166
39316SOL    HW229674   5.725  11.688   2.573  1.1030 -0.3342  1.2815
39317SOL     OW29675  11.411   0.538  11.623 -0.6841  0.2535 -0.4025
39317SOL    HW129676  11.351   0.606  11.653  0.9268  1.2911  0.6039
39317SOL    HW229677  11.496   0.581  11.619 -0.0245 -1.0800 -2.1241
39318SOL     OW29678  12.704   6.221   4.596  0.1190  0.1313  0.6377
39318SOL    HW129679  12.641   6.266   4.652  0.2895 -0.8143  1.6390
39318SOL    HW229680  12.691   6.259   4.509 -2.2948 -0.4880  0.6514
39319SOL     OW29681  11.879   2.455  10.649 -0.1668  0.2906  0.1396
39319SOL    HW129682  11.879   2.550  10.637  2.5688  0.4345  0.6821
39319SOL    HW229683  11.870   2.443  10.743  0.3552  0.0630  0.1629
39320SOL     OW29684  10.885   4.288   7.978 -0.3307 -0.2545  0.4303
39320SOL    HW129685  10.953   4.351   8.003  0.0162 -0.8598  1.0577
39320SOL    HW229686  10.812   4.306   8.038  0.6002 -1.8816  2.1461
39321SOL     OW29687   6.665   9.282  11.181 -0.4706  0.8503 -0.0674
39321SOL    HW129688   6.716   9.206  11.154 -1.1303 -0.2999  1.7467
39321SOL    HW229689   6.604   9.248  11.247 -1.4818  2.7613  0.0557
39322SOL     OW29690   8.211   5.045  12.489  0.0011 -0.0312 -0.2187
39322SOL    HW129691   8.251   4.967  12.451 -0.9364 -0.3399 -0.6113
39322SOL    HW229692   8.285   5.097  12.521  0.6022 -1.6150  1.1195
39323SOL     OW29693   8.993   6.771   9.302 -0.3470 -0.3474 -0.1048
39323SOL    HW129694   8.968   6.808   9.217 -0.2441  0.3465  0.1626
39323SOL    HW229695   9.078   6.810   9.321  0.7709 -2.3298 -0.7837
39324SOL     OW29696  12.915   7.469   6.259  0.4083 -0.2638  0.2506
39324SOL    HW129697  12.823   7.447   6.274  0.4973 -0.2652  0.8189
39324SOL    HW229698  12.963   7.394   6.295  0.6697  0.2614  1.0300
39325SOL     OW29699   7.023   1.374   5.225  0.1032 -0.2848  0.0746
39325SOL    HW129700   6.951   1.311   5.235 -1.3182  1.3376  0.6942
39325SOL    HW229701   7.053   1.363   5.135 -0.8073 -1.1415 -0.1389
39326SOL     OW29702   0.114   5.284  13.653  0.1422  0.1152  0.3353
39326SOL    HW129703   0.064   5.338  13.592 -1.7765 -0.0113  1.7052
39326SOL    HW229704   0.126   5.340  13.730  0.9246 -0.3463  0.5593
39327SOL     OW29705  13.149   4.567  11.932 -0.8194  0.1860 -0.3236
39327SOL    HW129706  13.234   4.600  11.961 -0.1641 -1.6858  0.0627
39327SOL    HW229707  13.086   4.630  11.965  0.1377 -0.2365  2.5894
39328SOL     OW29708  10.419  11.563   8.312 -0.1469  0.1706 -0.9426
39328SOL    HW129709  10.468  11.491   8.352  0.4105  0.2166 -1.5273
39328SOL    HW229710  10.387  11.527   8.229  0.5891  0.7504 -1.4920
39329SOL     OW29711  13.573   9.884   0.651 -0.1850  0.6039  0.4100
39329SOL    HW129712  13.527   9.956   0.609 -0.5121 -0.0438 -0.3709
39329SOL    HW229713  13.562   9.899   0.745 -0.3448  1.4955  0.2548
39330SOL     OW29714  10.503   6.547  11.089  0.4166  0.0204  0.4121
39330SOL    HW129715  10.575   6.600  11.057 -0.3080 -0.4597 -2.2729
39330SOL    HW229716  10.424   6.596  11.067 -0.2116 -1.4830 -0.9279
39331SOL     OW29717  12.321   7.590   2.345 -0.2898 -0.8715  0.6500
39331SOL    HW129718  12.350   7.582   2.436 -0.0577 -0.9088  0.5729
39331SOL    HW229719  12.280   7.506   2.325  0.6906 -1.2861  0.3555
39332SOL     OW29720   6.435  12.256   5.915  0.7053  0.4968  0.3577
39332SOL    HW129721   6.354  12.206   5.905 -0.0956  2.1281 -2.4652
39332SOL    HW229722   6.505  12.191   5.904 -0.2925 -0.1977 -3.1368
39333SOL     OW29723   9.184   5.933   0.773 -0.0686  0.2910  0.4410
39333SOL    HW129724   9.191   5.871   0.846  0.4003 -3.2709 -2.3210
39333SOL    HW229725   9.090   5.937   0.755 -0.0467 -0.2440  0.1817
39334SOL     OW29726   8.945   3.662   1.190 -0.1726  0.1685 -0.0172
39334SOL    HW129727   8.873   3.709   1.146  1.1836  1.0167 -1.4317
39334SOL    HW229728   9.019   3.671   1.130  0.8404 -1.6128  0.8991
39335SOL     OW29729   0.126  13.165   9.463 -0.0318 -0.1661 -0.3536
39335SOL    HW129730   0.156  13.233   9.523 -0.7282 -0.7568  0.6981
39335SOL    HW229731   0.172  13.182   9.382  1.2754  0.3956  0.4861
39336SOL     OW29732   2.463   0.800   5.397  0.4055 -0.2800 -0.1197
39336SOL    HW129733   2.466   0.767   5.307  0.4982 -1.1323  0.1861
39336SOL    HW229734   2.487   0.893   5.389 -2.1380  0.3731 -1.2926
39337SOL     OW29735   9.295   9.861   3.346  0.3229 -0.0506  0.5561
39337SOL    HW129736   9.335   9.807   3.414 -1.3352 -1.2360  0.6612
39337SOL    HW229737   9.266   9.798   3.279  1.0286  0.9993 -0.7817
39338SOL     OW29738   0.714  12.718   3.059 -0.4429  0.4196 -0.3986
39338SOL    HW129739   0.676  12.644   3.011  0.2296  0.1339 -0.5047
39338SOL    HW229740   0.670  12.715   3.144  1.5510 -1.9127  0.7001
39339SOL     OW29741   1.199  11.631   9.168  0.2484  0.6614 -0.6520
39339SOL    HW129742   1.127  11.693   9.181 -0.2709 -0.5409  3.2968
39339SOL    HW229743   1.272  11.669   9.218  0.0542 -1.5400  1.4625
39340SOL     OW29744  10.444  10.108  10.061 -0.4272 -0.9024 -0.0381
39340SOL    HW129745  10.455  10.080  10.152  1.6451  0.2856  0.1404
39340SOL    HW229746  10.361  10.156  10.061 -0.2147 -0.4895  1.3367
39341SOL     OW29747   1.959   8.023  12.933  0.7072  0.3919 -0.1096
39341SOL    HW129748   1.911   8.102  12.908  0.1284  1.0461  2.7931
39341SOL    HW229749   1.911   7.952  12.889  0.8162  1.5149 -2.1963
39342SOL     OW29750   0.045   8.177   3.218  0.4961  0.2891 -0.0366
39342SOL    HW129751   0.057   8.236   3.143 -1.2736  0.3108 -0.3452
39342SOL    HW229752   0.055   8.234   3.294  2.0906  0.3114 -0.2432
39343SOL     OW29753  13.239   4.053  13.183 -0.1850  0.1526  0.3053
39343SOL    HW129754  13.293   4.105  13.124  1.1156 -1.9203 -0.4343
39343SOL    HW229755  13.149   4.077  13.160  0.3339  2.7082  0.6673
39344SOL     OW29756   7.392   9.281   9.768 -0.3552  0.6456  0.5490
39344SOL    HW129757   7.332   9.349   9.798  0.7450  1.6046  0.6801
39344SOL    HW229758   7.475   9.302   9.811  0.4502  0.2035 -0.7349
39345SOL     OW29759   1.121   5.559   1.724 -0.0828 -0.6306 -0.2789
39345SOL    HW129760   1.194   5.609   1.689 -0.8641 -0.4391 -1.7130
39345SOL    HW229761   1.157   5.513   1.800  0.8152  1.5859  0.7230
39346SOL     OW29762  13.132  10.232  10.514 -0.5136  0.1595  0.0846
39346SOL    HW129763  13.144  10.229  10.609 -1.2205  0.0154  0.1697
39346SOL    HW229764  13.157  10.145  10.484 -0.2245  0.2253  0.1244
39347SOL     OW29765   4.192  12.644   6.544 -0.1807 -0.6770 -0.4463
39347SOL    HW129766   4.175  12.737   6.529 -0.6085 -0.7611 -0.4878
39347SOL    HW229767   4.254  12.620   6.475  3.4236  0.5979  2.0658
39348SOL     OW29768  11.082   7.073   0.755 -0.3728 -0.2031 -0.3324
39348SOL    HW129769  11.109   6.988   0.722 -0.2396  0.1601 -1.1976
39348SOL    HW229770  11.162   7.126   0.754  0.2151 -0.8193  2.8798
39349SOL     OW29771   4.725  11.974  12.845  0.1047 -0.3981 -0.2815
39349SOL    HW129772   4.752  12.029  12.771 -0.1527 -1.0623 -0.8839
39349SOL    HW229773   4.630  11.968  12.836  0.1837 -1.3547 -0.5230
39350SOL     OW29774  13.288   8.615  10.534  0.0716  0.6041 -0.4285
39350SOL    HW129775  13.312   8.677  10.603 -0.8722  1.3548 -0.7678
39350SOL    HW229776  13.309   8.529  10.572  2.0175  1.1223 -0.2045
39351SOL     OW29777   4.987   0.651   2.874 -0.4164 -0.5607 -0.0872
39351SOL    HW129778   4.907   0.620   2.830 -0.4300 -0.3297 -0.2276
39351SOL    HW229779   5.050   0.662   2.803 -0.8621  1.2022 -0.2635
39352SOL     OW29780  10.333  11.898  10.350 -0.0630 -0.0534 -0.3362
39352SOL    HW129781  10.331  11.956  10.274  0.7912  0.0152 -0.3140
39352SOL    HW229782  10.424  11.873  10.359 -0.5621 -2.2567 -0.9553
39353SOL     OW29783  11.480   4.149   2.996  0.8229  0.5919  0.3896
39353SOL    HW129784  11.480   4.060   2.960  0.0054  0.5332  0.5031
39353SOL    HW229785  11.542   4.146   3.068  0.5535  0.0216  0.5992
39354SOL     OW29786   0.821   3.883  12.368 -0.2555  0.5403  0.0621
39354SOL    HW129787   0.764   3.830  12.424  0.6675 -0.0699  0.4609
39354SOL    HW229788   0.856   3.820  12.305  1.0739  0.5866  0.7173
39355SOL     OW29789   4.224   2.332   3.169  0.2675  0.0951  0.0254
39355SOL    HW129790   4.203   2.248   3.208 -1.3822  0.7860  0.7196
39355SOL    HW229791   4.165   2.394   3.212  1.3349  1.5858 -0.5695
39356SOL     OW29792   6.925   5.474   9.088 -0.1958  0.4441  1.2269
39356SOL    HW129793   6.988   5.409   9.057  0.0174 -0.5487  3.5604
39356SOL    HW229794   6.968   5.558   9.074  0.6759 -0.0815  0.6698
39357SOL     OW29795   7.007   8.025   9.604 -0.1239 -0.6249 -0.0892
39357SOL    HW129796   6.959   7.994   9.681 -1.0208  0.1407 -0.3130
39357SOL    HW229797   7.049   7.947   9.568 -0.2008 -1.0939  0.8314
39358SOL     OW29798   1.397   8.640  10.785 -0.2238  0.1178 -0.3461
39358SOL    HW129799   1.449   8.677  10.715 -1.3259  2.8777  0.1559
39358SOL    HW229800   1.461   8.606  10.848  0.8355  0.3211 -1.2981
39359SOL     OW29801   2.058  10.810   4.526  0.0682  0.4406  0.0512
39359SOL    HW129802   2.088  10.900   4.536  2.5397 -0.3928  0.9754
39359SOL    HW229803   2.126  10.757   4.569 -2.3630 -1.7553  1.4606
39360SOL     OW29804   3.446   2.221   4.513  0.0818 -0.4996 -0.0916
39360SOL    HW129805   3.532   2.245   4.478  0.1255 -1.0418 -0.3635
39360SOL    HW229806   3.461   2.211   4.607  1.0151 -3.4668 -0.4668
39361SOL     OW29807  13.634   9.909  13.089  0.1072 -0.3339  0.3930
39361SOL    HW129808  13.625   9.828  13.140 -2.1847  0.5307  1.5284
39361SOL    HW229809  13.605   9.885  13.001 -1.9293 -0.4946  1.0573
39362SOL     OW29810  11.716   5.193   0.240 -0.3646 -0.2230  0.0060
39362SOL    HW129811  11.622   5.206   0.230 -0.5446 -0.1140  1.6843
39362SOL    HW229812  11.753   5.231   0.160 -1.5526  2.3109  0.5455
39363SOL     OW29813   6.485   9.546   6.817  0.1756  0.0888 -0.3539
39363SOL    HW129814   6.393   9.551   6.790  0.0215 -1.3473 -0.1827
39363SOL    HW229815   6.522   9.631   6.792 -1.2042  0.7123 -0.3781
39364SOL     OW29816   4.347   1.690   9.875  0.7817 -0.1927  0.1576
39364SOL    HW129817   4.354   1.748   9.799  1.2553 -0.0357  0.3159
39364SOL    HW229818   4.277   1.729   9.928  1.2941  0.4038  0.4061
39365SOL     OW29819   5.717   1.019  13.098  0.5365 -0.2685  0.0531
39365SOL    HW129820   5.702   1.031  13.192 -1.3969 -2.2535  0.0834
39365SOL    HW229821   5.812   1.026  13.087  0.7900  0.0178  2.1322
39366SOL     OW29822  12.642   1.740   7.926  0.5646  0.0239  0.1745
39366SOL    HW129823  12.556   1.700   7.941  0.7639 -0.3114  0.4230
39366SOL    HW229824  12.681   1.686   7.857 -0.0783  1.1561 -1.1502
39367SOL     OW29825  13.654  12.514   6.721  0.4584 -0.1568 -0.3780
39367SOL    HW129826  13.749  12.514   6.710  0.4684  0.3340 -0.3019
39367SOL    HW229827  13.638  12.450   6.789  0.5614 -1.8263 -1.8559
39368SOL     OW29828   3.419  13.735   3.665 -0.4273  0.1483 -0.4223
39368SOL    HW129829   3.377  13.816   3.694 -1.4668 -0.5745  0.1631
39368SOL    HW229830   3.506  13.762   3.635 -0.2194  1.2803  1.1019
39369SOL     OW29831   9.588   9.218   1.298 -0.4395 -0.4181  0.0734
39369SOL    HW129832   9.509   9.173   1.270 -0.6191  0.1783 -0.3816
39369SOL    HW229833   9.635   9.153   1.351 -1.0501 -0.8913  0.0401
39370SOL     OW29834  11.057   2.375   0.172  0.5564 -0.2981  0.2220
39370SOL    HW129835  11.069   2.448   0.232  0.4326 -0.9437  1.0483
39370SOL    HW229836  11.059   2.415   0.085 -0.1388  0.7753  0.6788
39371SOL     OW29837   8.691   9.891   4.356 -0.1950 -0.0440 -0.2878
39371SOL    HW129838   8.618   9.901   4.418  0.3406 -0.2799  0.3910
39371SOL    HW229839   8.655   9.840   4.284 -1.1459  1.1757 -0.7107
39372SOL     OW29840   7.803   2.805   4.253  0.1866  0.1799 -0.0912
39372SOL    HW129841   7.708   2.817   4.245  0.1260  0.7151  1.1810
39372SOL    HW229842   7.826   2.850   4.335  0.8620 -3.5479  2.0013
39373SOL     OW29843  11.640  12.539   5.590  0.0387  0.5306  0.0833
39373SOL    HW129844  11.709  12.581   5.641 -0.6367  0.6221  0.9513
39373SOL    HW229845  11.568  12.602   5.591  0.2292  0.8227 -1.5627
39374SOL     OW29846   8.420   4.530  13.503  0.3821  0.2208  0.7670
39374SOL    HW129847   8.371   4.591  13.558 -0.8394 -0.3940  0.4056
39374SOL    HW229848   8.390   4.443  13.531  0.2288 -0.1258 -0.3957
39375SOL     OW29849   6.755   8.453   6.373  0.3313 -0.4408 -0.4766
39375SOL    HW129850   6.801   8.370   6.386  0.4685 -0.0735  1.8669
39375SOL    HW229851   6.670   8.439   6.416  0.9272  1.0565  1.3049
39376SOL     OW29852   4.787   7.608   9.255  0.2617 -0.0553 -0.1805
39376SOL    HW129853   4.821   7.522   9.230  0.6077  0.0087  0.0576
39376SOL    HW229854   4.789   7.607   9.351  2.3162  1.0034 -0.1594
39377SOL     OW29855   4.684  11.622   3.696  0.1584 -0.8426  0.1350
39377SOL    HW129856   4.670  11.717   3.696 -0.0723 -0.7988 -2.5594
39377SOL    HW229857   4.596  11.585   3.686  0.4447 -1.1875 -1.4180
39378SOL     OW29858   6.809  12.629   5.064  0.2185 -0.0550 -0.2209
39378SOL    HW129859   6.835  12.582   5.143 -1.3607 -3.5065 -1.5533
39378SOL    HW229860   6.740  12.688   5.092  1.8882  1.2424  1.4389
39379SOL     OW29861   5.391   8.585   9.863  0.2085 -0.3653 -0.3393
39379SOL    HW129862   5.415   8.670   9.901  2.0250 -0.7846 -0.4255
39379SOL    HW229863   5.462   8.526   9.890 -1.5764 -2.1673  0.6699
39380SOL     OW29864   6.543   3.787  12.757 -0.3331  0.2944  0.0091
39380SOL    HW129865   6.617   3.846  12.747 -0.1333 -0.0138 -0.3071
39380SOL    HW229866   6.581   3.701  12.772 -0.5993  0.4990  2.2398
39381SOL     OW29867   1.503  13.615   9.669 -0.2421  0.0438  0.0465
39381SOL    HW129868   1.530  13.698   9.708 -1.3053 -0.1740  1.3085
39381SOL    HW229869   1.563  13.550   9.706  0.2530  0.1672 -0.5307
39382SOL     OW29870  13.582  11.492   1.104  0.0103 -0.0089  0.0398
39382SOL    HW129871  13.518  11.451   1.046 -0.9885  2.0014 -0.3493
39382SOL    HW229872  13.649  11.528   1.045  0.1167  0.1964  0.2837
39383SOL     OW29873   2.040   6.720   1.432 -0.1525 -0.0917  0.0465
39383SOL    HW129874   1.967   6.680   1.479  2.0209 -1.7318  2.3593
39383SOL    HW229875   2.066   6.655   1.367 -0.9632  0.6474 -1.0272
39384SOL     OW29876   4.652   1.995   1.535  0.3512  0.2556  0.1405
39384SOL    HW129877   4.739   2.028   1.558 -0.2504  0.4534  2.3867
39384SOL    HW229878   4.668   1.931   1.466  2.1346  1.1485 -0.3383
39385SOL     OW29879   9.701  11.434   2.728  0.5677  0.4607  0.5397
39385SOL    HW129880   9.684  11.527   2.742  0.3925  0.5421 -0.1633
39385SOL    HW229881   9.643  11.410   2.655 -0.4000 -0.5233  1.5917
39386SOL     OW29882   0.563   5.058   5.322  0.2491  0.1931 -0.3486
39386SOL    HW129883   0.615   4.986   5.286 -0.1736  0.3133 -1.2346
39386SOL    HW229884   0.613   5.136   5.301  0.3758  0.2102  0.0123
39387SOL     OW29885   1.039  10.899   2.568 -0.4220  0.0417  0.0045
39387SOL    HW129886   0.962  10.955   2.572 -0.1692  0.3830  0.1075
39387SOL    HW229887   1.111  10.958   2.546 -0.2790 -0.3552 -0.6608
39388SOL     OW29888   5.139   1.579   9.597  0.6445 -0.3674 -0.3613
39388SOL    HW129889   5.081   1.655   9.589  2.0206  0.5854 -1.8265
39388SOL    HW229890   5.201   1.603   9.664  0.1632 -0.8540  0.2719
39389SOL     OW29891   9.186   0.438  13.013 -0.0893  0.4285 -0.0649
39389SOL    HW129892   9.199   0.360  13.066 -1.3287  0.6092  0.5503
39389SOL    HW229893   9.218   0.415  12.926 -0.9654 -0.9670 -0.0424
39390SOL     OW29894   1.392  11.700  12.893  0.7978  0.3389 -0.0505
39390SOL    HW129895   1.438  11.687  12.810  1.2756  1.5243  0.0074
39390SOL    HW229896   1.308  11.739  12.869 -1.0302 -3.2962 -0.3026
39391SOL     OW29897   2.787  13.052  12.039  0.1810  0.2548  0.3087
39391SOL    HW129898   2.804  13.002  11.959  0.6048 -1.7221  1.5586
39391SOL    HW229899   2.870  13.096  12.058  0.5142 -0.3971  0.3985
39392SOL     OW29900   6.119   5.611   8.224  0.0197 -0.1520  0.2861
39392SOL    HW129901   6.073   5.527   8.214 -1.6996  0.5546  1.6446
39392SOL    HW229902   6.092   5.642   8.311  2.2742  0.8533  0.6821
39393SOL     OW29903   6.370  11.667  11.177  0.0228 -0.5744  0.0277
39393SOL    HW129904   6.336  11.625  11.256 -3.4351  0.7315 -0.6140
39393SOL    HW229905   6.387  11.594  11.117 -1.7302 -1.3611  0.4196
39394SOL     OW29906   7.304   3.028   1.117 -0.3184  0.0280 -0.2974
39394SOL    HW129907   7.316   3.117   1.150  0.7905 -0.1794 -0.0884
39394SOL    HW229908   7.276   3.038   1.027  0.1437  0.5993 -0.3815
39395SOL     OW29909   8.893   6.791  11.347 -0.2017  0.6588 -0.1376
39395SOL    HW129910   8.892   6.706  11.391 -1.1654 -0.0201 -1.4081
39395SOL    HW229911   8.874   6.855  11.416 -2.8178 -0.4687  0.2918
39396SOL     OW29912   0.169   6.520  10.678  0.6181  0.0789 -0.1554
39396SOL    HW129913   0.249   6.467  10.680  1.0680  0.7560  0.4218
39396SOL    HW229914   0.102   6.460  10.646  1.4113 -0.4275 -0.9508
39397SOL     OW29915   7.453   0.416   3.949  0.4825 -0.3817  0.3872
39397SOL    HW129916   7.470   0.433   3.857 -1.0640 -1.1100 -0.0703
39397SOL    HW229917   7.438   0.321   3.954  3.0072 -0.7977  1.8388
39398SOL     OW29918   0.020   7.979  12.151 -0.3294  0.6885  0.5581
39398SOL    HW129919  -0.023   8.064  12.145  0.3239  1.1522  2.0183
39398SOL    HW229920   0.086   7.990  12.220  0.0388 -0.8845  0.4965
39399SOL     OW29921   5.465  12.387   2.091  0.4087  0.1865 -0.2185
39399SOL    HW129922   5.439  12.323   2.025 -1.0107  0.7625 -0.2422
39399SOL    HW229923   5.460  12.339   2.174 -0.5682  0.2344 -0.2435
39400SOL     OW29924   3.361   3.031   6.833 -0.3850 -0.2985  0.2945
39400SOL    HW129925   3.334   3.033   6.924 -0.1546  0.4850  0.3610
39400SOL    HW229926   3.296   2.977   6.789 -2.1767  1.6281  0.4211
39401SOL     OW29927   6.877  11.426   0.430 -0.3410  0.1387 -0.3744
39401SOL    HW129928   6.940  11.475   0.483  0.9885 -0.4379 -1.3625
39401SOL    HW229929   6.846  11.489   0.365 -1.5829  0.7004  0.7100
39402SOL     OW29930   2.161  13.300  12.649 -0.0063 -0.1387 -0.2067
39402SOL    HW129931   2.110  13.232  12.692 -1.8166  0.0875 -1.8678
39402SOL    HW229932   2.174  13.367  12.716  0.2620 -1.3067  0.9375
39403SOL     OW29933  10.034   3.070  10.919 -0.2181  0.3977 -0.1793
39403SOL    HW129934  10.016   2.977  10.908 -1.9125  0.4710  1.4512
39403SOL    HW229935  10.018   3.109  10.833 -1.9506 -0.4910 -0.2914
39404SOL     OW29936   1.155  10.419   3.739 -0.3041 -0.6589 -0.0815
39404SOL    HW129937   1.117  10.497   3.698  1.5384 -0.4331 -1.5201
39404SOL    HW229938   1.129  10.347   3.681  2.2319 -0.3518 -1.7693
39405SOL     OW29939   4.041  10.472   0.410  0.9967  0.1218  0.3087
39405SOL    HW129940   4.044  10.433   0.322  0.2927 -0.1306  0.3881
39405SOL    HW229941   3.962  10.526   0.409  2.0963  1.7873  0.1145
39406SOL     OW29942   9.392   8.987   3.427  0.0722 -0.3395 -0.1834
39406SOL    HW129943   9.353   8.928   3.362 -0.7962  0.4550 -0.3866
39406SOL    HW229944   9.466   8.936   3.462 -0.5068 -1.4599 -0.5227
39407SOL     OW29945   3.388  10.625  12.003 -0.1901 -1.0453 -0.1421
39407SOL    HW129946   3.317  10.679  12.038  0.1777 -0.6427 -0.0168
39407SOL    HW229947   3.373  10.539  12.041 -0.0999 -0.7422  0.5914
39408SOL     OW29948  11.384   8.117   7.024  0.1087 -0.9470  0.1203
39408SOL    HW129949  11.344   8.075   7.100 -0.0398  0.8284  1.0757
39408SOL    HW229950  11.477   8.125   7.048  0.2825 -1.3930 -0.3809
39409SOL     OW29951   2.536   0.716   2.667  0.1568  0.1619  0.5001
39409SOL    HW129952   2.506   0.625   2.664 -0.8540  0.5085 -1.1609
39409SOL    HW229953   2.611   0.719   2.608 -0.0633  0.4909  0.2355
39410SOL     OW29954   7.673   3.743   9.044 -0.0998  0.4624 -0.8797
39410SOL    HW129955   7.583   3.777   9.047 -0.7820 -1.2778  0.1445
39410SOL    HW229956   7.665   3.661   8.995  0.9401  0.2908 -0.7775
39411SOL     OW29957   8.640   8.920   9.591 -0.1676 -0.0566 -0.2980
39411SOL    HW129958   8.611   8.867   9.517  2.5474 -0.4063 -1.2087
39411SOL    HW229959   8.709   8.868   9.633  0.3383  1.3593  0.7315
39412SOL     OW29960   2.403  12.408   1.655 -0.2323 -0.0891  0.1648
39412SOL    HW129961   2.488  12.399   1.697  0.6502  0.5031 -1.3892
39412SOL    HW229962   2.391  12.325   1.609 -0.8512 -0.4530  0.9630
39413SOL     OW29963  13.667   5.103  12.591  0.5437 -0.1820  0.2927
39413SOL    HW129964  13.684   5.162  12.664 -1.6265  0.4297  0.3791
39413SOL    HW229965  13.688   5.155  12.513  0.7663 -0.0843  0.4157
39414SOL     OW29966   6.592   5.528   1.746  0.0455  0.3175  0.1051
39414SOL    HW129967   6.688   5.529   1.739  0.1155  0.4808  0.9853
39414SOL    HW229968   6.571   5.437   1.767  0.0851  0.4641  0.8058
39415SOL     OW29969   3.974   9.172   2.899 -0.5396 -0.0001 -0.2266
39415SOL    HW129970   4.017   9.140   2.819 -0.0366  1.2067 -0.4565
39415SOL    HW229971   3.926   9.250   2.871  0.2146  0.8483  0.7888
39416SOL     OW29972   8.073   0.654   3.191 -0.5022  0.7006  0.4172
39416SOL    HW129973   8.028   0.681   3.272 -3.0971  0.3952 -0.8157
39416SOL    HW229974   8.044   0.718   3.126 -0.9297 -0.8044 -0.9341
39417SOL     OW29975   8.452   8.039   2.041 -0.3146  0.4067 -0.1945
39417SOL    HW129976   8.434   7.946   2.050  0.3192  0.2914 -0.0702
39417SOL    HW229977   8.485   8.065   2.127 -0.6297  0.7752 -0.1845
39418SOL     OW29978  12.308   2.822   0.878 -0.2217 -0.6601  0.0088
39418SOL    HW129979  12.355   2.896   0.838 -0.7548 -0.3072  0.0266
39418SOL    HW229980  12.222   2.822   0.835 -0.4568 -0.8661  0.4739
39419SOL     OW29981   6.487   1.503   5.121  0.0936 -0.5148 -0.5097
39419SOL    HW129982   6.527   1.445   5.056  2.8598  0.4137  0.2207
39419SOL    HW229983   6.550   1.506   5.193 -1.3375  1.0779  0.7573
39420SOL     OW29984   2.445   3.813   8.522 -0.1233 -0.6181 -0.1059
39420SOL    HW129985   2.438   3.817   8.618  0.1709  1.2877 -0.1161
39420SOL    HW229986   2.530   3.853   8.503  0.2888 -1.8990 -1.1413
39421SOL     OW29987   0.351  13.231   4.924 -0.3745 -0.6197 -1.3471
39421SOL    HW129988   0.422  13.177   4.958 -1.8046 -1.8640 -0.2022
39421SOL    HW229989   0.376  13.250   4.833  1.1111 -1.5090 -1.1484
39422SOL     OW29990   2.730   7.797  11.844 -0.3229 -0.3340  0.1089
39422SOL    HW129991   2.758   7.888  11.841 -1.2055 -0.0652 -0.7476
39422SOL    HW229992   2.810   7.746  11.833  0.3429  0.2865  1.7349
39423SOL     OW29993   9.670   3.646  13.309  0.2140 -0.3791 -0.7607
39423SOL    HW129994   9.690   3.581  13.242  0.4976 -0.2468 -0.8067
39423SOL    HW229995   9.753   3.692  13.323 -0.3537  1.0419 -1.8553
39424SOL     OW29996  11.285   8.346   6.097 -0.1528  0.0618 -0.4768
39424SOL    HW129997  11.301   8.433   6.134 -0.3615 -1.3288  3.3874
39424SOL    HW229998  11.191   8.343   6.082 -0.2918  0.2612  0.2813
39425SOL     OW29999   2.460  12.453  11.370 -0.2838  0.1710  0.7539
39425SOL    HW130000   2.535  12.413  11.414  1.2737  0.3574 -1.5649
39425SOL    HW230001   2.451  12.539  11.411  1.0894  0.3395  0.7401
39426SOL     OW30002   0.343  11.716   3.023  0.4523 -0.7003  0.2806
39426SOL    HW130003   0.336  11.753   3.112  0.6601 -0.6057  0.2585
39426SOL    HW230004   0.284  11.641   3.024  1.0035 -1.1416  0.7272
39427SOL     OW30005   8.354   8.616   8.011 -0.0914  0.0435  0.0056
39427SOL    HW130006   8.414   8.542   8.013  0.4375  0.4851  0.9643
39427SOL    HW230007   8.283   8.591   8.070  1.3370  1.2987  2.3935
39428SOL     OW30008   6.678   4.929  10.676  0.7234 -0.3479 -0.2951
39428SOL    HW130009   6.671   4.977  10.594  1.8216 -0.4132 -0.4347
39428SOL    HW230010   6.626   4.980  10.739  2.0064  1.1416 -0.3915
39429SOL     OW30011   8.714   0.031   6.358 -0.2749  0.3744  0.4075
39429SOL    HW130012   8.778   0.022   6.429  1.8350  0.1490 -1.3949
39429SOL    HW230013   8.660  -0.047   6.365  0.4580 -0.0879  1.2412
39430SOL     OW30014   3.315   6.234   5.463  0.7321 -0.2147  0.2565
39430SOL    HW130015   3.375   6.308   5.474  0.2762  0.6871 -2.5269
39430SOL    HW230016   3.228   6.273   5.464  0.4818 -0.6711 -1.1802
39431SOL     OW30017  12.750  12.388   3.976  0.0835  0.2468  0.0715
39431SOL    HW130018  12.714  12.328   4.040  2.0624 -1.0913  0.0135
39431SOL    HW230019  12.688  12.386   3.903  0.1049 -1.7406  0.0734
39432SOL     OW30020   7.460   2.946  11.679  0.0691 -0.5196  0.4468
39432SOL    HW130021   7.415   2.871  11.717  0.0134 -1.7031 -1.8107
39432SOL    HW230022   7.390   3.009  11.662 -0.5464 -1.6549 -1.4411
39433SOL     OW30023   5.358   6.991   8.159  0.0843  0.2013  0.1537
39433SOL    HW130024   5.292   6.988   8.228  1.1678  0.7779  1.2390
39433SOL    HW230025   5.353   6.904   8.118 -2.2426  0.6557 -0.6847
39434SOL     OW30026   4.549   8.978   9.577  0.1500  0.2586 -0.2009
39434SOL    HW130027   4.619   9.018   9.526  0.4530  1.5217  1.1291
39434SOL    HW230028   4.585   8.970   9.665 -1.0987  0.1622  0.3214
39435SOL     OW30029   1.127   1.251   2.000 -0.5717  0.5681 -0.0828
39435SOL    HW130030   1.122   1.260   2.096  0.4970  2.4828 -0.1460
39435SOL    HW230031   1.041   1.217   1.975 -1.2778  1.0944  1.4577
39436SOL     OW30032  10.258  11.095   7.218 -0.3022 -0.2034  0.5143
39436SOL    HW130033  10.253  11.167   7.155  1.7503 -0.8004 -0.4354
39436SOL    HW230034  10.295  11.134   7.297 -0.9347  0.1455  0.6386
39437SOL     OW30035   6.757  12.938   4.767 -0.0997  0.3550 -0.4638
39437SOL    HW130036   6.744  12.852   4.807  0.9390  0.8370  0.9986
39437SOL    HW230037   6.836  12.972   4.808  0.4561  1.3376 -2.2315
39438SOL     OW30038   1.359   5.683   4.969 -0.5065 -0.0750 -0.2057
39438SOL    HW130039   1.295   5.635   5.021  0.8646 -1.0458  0.6420
39438SOL    HW230040   1.372   5.765   5.018 -0.2742 -0.3710  0.2396
39439SOL     OW30041  12.946  10.634   7.096  0.1815 -0.4127 -0.0624
39439SOL    HW130042  12.971  10.587   7.016 -2.2636  0.4848 -1.4860
39439SOL    HW230043  12.985  10.721   7.085 -0.6347 -0.1001 -0.6211
39440SOL     OW30044   7.248   5.553  13.238 -0.3696 -0.0644  0.6688
39440SOL    HW130045   7.168   5.569  13.188 -0.1145 -0.1017  0.2409
39440SOL    HW230046   7.222   5.560  13.329 -1.0037 -0.7715  0.5447
39441SOL     OW30047   7.312  12.010   1.824 -0.2743  0.3383 -0.9019
39441SOL    HW130048   7.234  12.063   1.806 -0.4809  0.5478  0.4959
39441SOL    HW230049   7.285  11.920   1.805 -1.0774  0.3360  0.1509
39442SOL     OW30050   2.660   1.313  11.122 -0.3817 -0.0474 -0.0981
39442SOL    HW130051   2.619   1.353  11.199 -1.7311 -0.4592 -0.5910
39442SOL    HW230052   2.705   1.235  11.157 -0.5599  0.0421  0.3414
39443SOL     OW30053   4.738   8.550   8.688 -0.4502 -0.1045 -0.3909
39443SOL    HW130054   4.738   8.459   8.657 -0.3828 -0.4022  0.4302
39443SOL    HW230055   4.797   8.596   8.629 -0.5450 -0.5839 -0.8602
39444SOL     OW30056   2.225   1.602   7.500  0.0300 -0.0646  0.2144
39444SOL    HW130057   2.237   1.508   7.517 -1.0990 -0.3045 -0.2351
39444SOL    HW230058   2.136   1.609   7.467 -0.4420  1.3783  1.6921
39445SOL     OW30059   6.764   4.211   5.119  0.1086  0.4246 -0.1937
39445SOL    HW130060   6.727   4.135   5.074 -1.3346  0.6688  0.5196
39445SOL    HW230061   6.691   4.272   5.128  0.6069  0.8329  1.4766
39446SOL     OW30062   9.600   0.829   9.351 -0.4911  0.0735 -0.7662
39446SOL    HW130063   9.572   0.893   9.285 -3.1282  1.6448  1.6582
39446SOL    HW230064   9.660   0.877   9.407  0.0390 -0.6085 -0.7302
39447SOL     OW30065   8.250  11.259  10.789  0.3956 -0.4855 -0.0954
39447SOL    HW130066   8.328  11.215  10.822 -0.7854 -3.0907 -0.5432
39447SOL    HW230067   8.221  11.204  10.716 -0.3044  1.9655 -1.7766
39448SOL     OW30068   7.918   0.255   2.975  0.2427 -0.7406  0.8496
39448SOL    HW130069   7.875   0.280   3.056 -1.8536 -1.4017 -0.0014
39448SOL    HW230070   7.914   0.159   2.974 -0.7879 -0.7194 -0.5163
39449SOL     OW30071   3.823   0.540  11.398 -0.1269  0.1191  0.0989
39449SOL    HW130072   3.885   0.466  11.397 -0.6857 -0.3595 -0.4237
39449SOL    HW230073   3.850   0.593  11.473  1.0295  0.0207 -0.2235
39450SOL     OW30074  13.508   3.644   5.738  0.6172 -0.0722  0.3762
39450SOL    HW130075  13.469   3.573   5.790 -0.6205 -0.1871 -0.6762
39450SOL    HW230076  13.587   3.668   5.787 -1.0983  0.6428  2.9794
39451SOL     OW30077   1.036   1.815   0.425  0.4606  0.2318 -0.2647
39451SOL    HW130078   1.054   1.822   0.519 -0.6278  1.1922 -0.1112
39451SOL    HW230079   0.982   1.736   0.417  0.6615  0.0743 -0.1184
39452SOL     OW30080  13.418   2.712   2.265 -0.5229  0.2003  0.5261
39452SOL    HW130081  13.379   2.799   2.251 -0.6100  0.4673  2.2294
39452SOL    HW230082  13.488   2.707   2.200 -1.0613  1.1877 -0.1668
39453SOL     OW30083  10.344   6.856   3.313  0.2683  0.0619 -0.2418
39453SOL    HW130084  10.414   6.868   3.248 -0.7082  1.1746 -1.1407
39453SOL    HW230085  10.266   6.893   3.272 -0.0184  2.6190  2.2436
39454SOL     OW30086  13.136   5.069   4.638 -0.0483  0.0113 -0.1240
39454SOL    HW130087  13.168   5.120   4.563 -1.3850 -0.9243 -1.4040
39454SOL    HW230088  13.214   5.043   4.685  1.2255 -2.1467 -3.0654
39455SOL     OW30089   4.125   9.367   5.843 -0.1031 -0.4264  0.1168
39455SOL    HW130090   4.214   9.334   5.858 -0.1735 -1.3206 -1.2136
39455SOL    HW230091   4.133   9.462   5.853  1.4125 -0.3078 -1.5788
39456SOL     OW30092   1.434   4.734   3.305  0.8478 -0.6657 -0.0264
39456SOL    HW130093   1.459   4.802   3.242  1.0205 -1.1644 -0.5082
39456SOL    HW230094   1.508   4.673   3.304  0.8479 -0.6866  0.6581
39457SOL     OW30095   5.150   3.293  12.598 -0.6460 -0.1935  0.9907
39457SOL    HW130096   5.204   3.345  12.658  0.1504  0.7091 -0.4479
39457SOL    HW230097   5.183   3.203  12.607  0.2122  0.1258  1.1006
39458SOL     OW30098   7.163   9.911  13.587 -0.3471  0.0187  0.4561
39458SOL    HW130099   7.235   9.901  13.649  0.9489  0.1322 -0.9659
39458SOL    HW230100   7.198   9.876  13.504 -1.7652  0.4979 -0.3733
39459SOL     OW30101   9.739   1.888   0.342 -0.0928  0.8575 -0.3847
39459SOL    HW130102   9.696   1.951   0.400 -1.5652 -0.4414  0.0112
39459SOL    HW230103   9.676   1.816   0.334  1.2888 -0.3098 -1.2760
39460SOL     OW30104   0.920  11.422  11.864 -0.0906 -0.1917 -0.1606
39460SOL    HW130105   0.997  11.447  11.813  0.2949  0.7550  0.8516
39460SOL    HW230106   0.887  11.504  11.900 -0.8503 -0.7362  0.4232
39461SOL     OW30107  13.315  10.998  12.732 -0.4918 -0.0345 -0.3546
39461SOL    HW130108  13.406  11.005  12.763 -0.0482 -0.4563 -1.4909
39461SOL    HW230109  13.291  10.908  12.749 -0.6974  0.0780 -0.0526
39462SOL     OW30110  10.726   2.199   0.033  0.2374  0.4971 -1.0378
39462SOL    HW130111  10.758   2.153   0.110  0.7279  0.6232 -1.1634
39462SOL    HW230112  10.703   2.130  -0.029  1.2944  0.4135 -1.3565
39463SOL     OW30113   9.529   0.289   3.780  0.1064 -0.0351 -0.2387
39463SOL    HW130114   9.614   0.246   3.787 -0.2933 -0.9762 -0.9666
39463SOL    HW230115   9.535   0.364   3.840  1.5385  0.0782 -0.4832
39464SOL     OW30116   6.005   3.541   8.645  0.0628 -0.1073  0.5015
39464SOL    HW130117   5.987   3.447   8.641  2.6118 -0.8699  3.3470
39464SOL    HW230118   5.919   3.582   8.630 -1.5195 -2.9239  1.0752
39465SOL     OW30119   1.144   6.841   9.560  0.6621 -0.4543 -0.4697
39465SOL    HW130120   1.114   6.868   9.646 -1.2186 -0.2495 -1.1328
39465SOL    HW230121   1.227   6.797   9.576  2.2741  2.8360  0.9963
39466SOL     OW30122   9.187   5.281   6.099 -0.2040 -0.0019  0.0468
39466SOL    HW130123   9.265   5.226   6.099 -0.5076 -0.4469  0.4583
39466SOL    HW230124   9.195   5.334   6.020  0.2918 -0.3579 -0.1498
39467SOL     OW30125   8.901   8.478   6.224  0.4164 -0.4621  0.1067
39467SOL    HW130126   8.974   8.458   6.283 -0.8622 -0.7507  1.6744
39467SOL    HW230127   8.856   8.551   6.266  0.0677  0.0179 -1.0763
39468SOL     OW30128  12.850   9.248   1.487  0.0492 -0.2703  0.3391
39468SOL    HW130129  12.869   9.331   1.531  0.5915 -0.0337 -0.3237
39468SOL    HW230130  12.890   9.257   1.400  2.2224 -2.1295  1.0444
39469SOL     OW30131  11.160   2.909   9.292 -0.7584 -0.3158  0.2306
39469SOL    HW130132  11.095   2.877   9.229  1.0523  1.1622 -2.5405
39469SOL    HW230133  11.223   2.838   9.299  0.0019  0.1970 -1.1157
39470SOL     OW30134  13.316   1.898   5.596  0.4675 -0.9643 -0.0291
39470SOL    HW130135  13.397   1.946   5.613  0.2656 -0.6552  0.0502
39470SOL    HW230136  13.287   1.930   5.511 -0.1629 -0.2600  0.4419
39471SOL     OW30137   7.822   7.850   1.244  0.1819 -0.1179 -0.4857
39471SOL    HW130138   7.801   7.823   1.155  0.9868 -1.7560 -0.2100
39471SOL    HW230139   7.760   7.921   1.263  0.3932  0.6614 -2.5355
39472SOL     OW30140   3.462  13.386   4.572 -0.1728 -0.3346  0.4242
39472SOL    HW130141   3.461  13.436   4.653 -0.5459 -0.7573  0.6826
39472SOL    HW230142   3.526  13.316   4.587  2.3640  1.5085 -0.8457
39473SOL     OW30143  12.062   6.660   2.173  0.8063 -0.0988  0.5467
39473SOL    HW130144  12.011   6.727   2.129  2.4207  0.6767 -0.2502
39473SOL    HW230145  11.998   6.598   2.207 -0.5708 -0.3549 -2.2834
39474SOL     OW30146   2.099   4.860   6.913  0.0505  0.2455 -0.5729
39474SOL    HW130147   2.044   4.911   6.853  1.3297  1.9597 -0.3861
39474SOL    HW230148   2.109   4.917   6.989  2.0834  0.0128 -0.6236
39475SOL     OW30149  10.928   0.183  10.005 -0.6210  0.4120  0.1697
39475SOL    HW130150  11.014   0.150   9.976 -0.9466 -0.7990  0.5317
39475SOL    HW230151  10.949   0.245  10.075 -0.0622 -0.5270  0.8613
39476SOL     OW30152  10.430  11.288  10.120 -0.0992  0.0450 -0.0239
39476SOL    HW130153  10.510  11.247  10.087  0.4886  0.4335  0.8588
39476SOL    HW230154  10.366  11.217  10.123 -0.0922 -0.0534 -1.6818
39477SOL     OW30155   3.832  13.166   2.419  0.8023  0.0291  0.0175
39477SOL    HW130156   3.917  13.170   2.462  0.7749 -0.2493  0.0985
39477SOL    HW230157   3.804  13.258   2.413  1.9884  0.3127 -1.8230
39478SOL     OW30158  12.337   1.789  11.507  0.3672  0.1089  0.4379
39478SOL    HW130159  12.416   1.735  11.497  1.2282  1.3362  0.3274
39478SOL    HW230160  12.371   1.878  11.517 -0.9419  0.4603  2.1879
39479SOL     OW30161   1.458   7.697  12.966 -0.1668  0.0361 -0.5709
39479SOL    HW130162   1.489   7.606  12.971 -1.0391 -0.2019  1.2267
39479SOL    HW230163   1.523   7.741  12.912  1.9765 -0.9837  1.0185
39480SOL     OW30164  11.727   2.582   5.738 -0.8835  0.0171 -0.3003
39480SOL    HW130165  11.734   2.487   5.732 -1.7812 -0.0804  0.1269
39480SOL    HW230166  11.663   2.606   5.671 -0.8959  0.2907 -0.1916
39481SOL     OW30167   4.151   6.386  11.046 -0.0840 -0.0215  0.3185
39481SOL    HW130168   4.171   6.433  10.965 -0.2810 -0.5505 -0.0359
39481SOL    HW230169   4.056   6.386  11.051 -0.0740 -0.0375  0.5242
39482SOL     OW30170   5.065  11.663   0.179 -0.1355 -0.0145 -0.0210
39482SOL    HW130171   5.082  11.669   0.085  1.0317  0.5982  0.2093
39482SOL    HW230172   4.996  11.727   0.195  1.8784  2.3079  0.0047
39483SOL     OW30173   4.975   0.844   4.870  0.3333  0.0805 -0.0459
39483SOL    HW130174   4.912   0.803   4.811  0.0140 -1.9340  1.5803
39483SOL    HW230175   5.054   0.791   4.861 -0.2560 -1.3853  2.5006
39484SOL     OW30176   1.490  12.168  13.716 -0.6116 -0.3143 -0.3033
39484SOL    HW130177   1.495  12.077  13.745 -0.8019 -0.1047  0.4062
39484SOL    HW230178   1.441  12.164  13.633  0.0286 -0.9316 -0.6560
39485SOL     OW30179   7.614  13.022  10.547 -0.2529 -0.0630 -0.5832
39485SOL    HW130180   7.707  13.027  10.568  0.0698 -2.3149 -1.1842
39485SOL    HW230181   7.610  12.963  10.472 -2.0337  1.4809 -1.7865
39486SOL     OW30182   6.284  10.921  13.102  0.3479  0.0699  0.4232
39486SOL    HW130183   6.283  10.887  13.192 -1.1643 -1.5156 -0.1428
39486SOL    HW230184   6.221  10.993  13.103  1.5332  1.1493  0.9733
39487SOL     OW30185   0.024   4.657   4.027  0.0133  0.4748  0.3871
39487SOL    HW130186  -0.049   4.674   4.087  0.6274  1.7606  0.8171
39487SOL    HW230187   0.099   4.641   4.084  0.2669  0.1064 -0.0440
39488SOL     OW30188   8.893   8.407   7.814  0.1561  0.1919  0.2828
39488SOL    HW130189   8.801   8.434   7.816  0.1288  0.0603  1.0327
39488SOL    HW230190   8.914   8.387   7.905  0.9176  0.1720  0.1065
39489SOL     OW30191  11.574   2.425   6.870 -0.2903 -0.2600 -0.4581
39489SOL    HW130192  11.602   2.458   6.955 -1.4787 -3.5863  1.4235
39489SOL    HW230193  11.555   2.503   6.819 -1.0547  1.9251  2.8531
39490SOL     OW30194   9.624   9.232  12.967  0.1528 -0.3990  0.4965
39490SOL    HW130195   9.661   9.194  13.047  1.4335 -0.2213  0.0187
39490SOL    HW230196   9.588   9.158  12.920 -0.8046 -0.4789  1.3212
39491SOL     OW30197  11.899   9.881   7.975 -0.0512 -0.1429  0.3727
39491SOL    HW130198  11.812   9.877   8.015  0.1600 -0.1413  0.8352
39491SOL    HW230199  11.887   9.842   7.888 -0.3892 -0.7008  0.6628
39492SOL     OW30200   2.315   3.672   0.488 -0.2918  0.1667 -0.7479
39492SOL    HW130201   2.343   3.763   0.499  1.0423 -0.3319  0.2994
39492SOL    HW230202   2.295   3.664   0.395  0.6899  1.2484 -1.0762
39493SOL     OW30203  11.667   5.760  12.061  0.0212 -0.1435 -0.1915
39493SOL    HW130204  11.587   5.785  12.108  0.9833  1.1754  0.8427
39493SOL    HW230205  11.669   5.664  12.066 -1.8819 -0.2645 -0.9613
39494SOL     OW30206   9.100  11.711   9.995 -0.5350  0.1507 -0.3278
39494SOL    HW130207   9.104  11.711  10.090 -0.2913 -2.1209 -0.3025
39494SOL    HW230208   9.132  11.798   9.970 -2.4831  1.5579  1.6812
39495SOL     OW30209   6.854   7.944   0.353 -0.7074 -0.2026  0.3605
39495SOL    HW130210   6.842   8.039   0.346 -1.0117 -0.2467  0.2324
39495SOL    HW230211   6.938   7.933   0.398 -0.3426  0.1256 -0.2251
39496SOL     OW30212   4.920   9.058  11.598 -0.0622  0.2648  0.4956
39496SOL    HW130213   4.995   8.999  11.593 -1.0510 -0.8998 -2.3426
39496SOL    HW230214   4.959   9.144  11.613  1.6890 -0.5229  0.7926
39497SOL     OW30215  11.798   9.983   0.236 -0.2074  0.3779 -0.2764
39497SOL    HW130216  11.783  10.057   0.178 -0.0756  1.9040  1.5356
39497SOL    HW230217  11.887   9.954   0.217  0.1565  1.4318 -0.2069
39498SOL     OW30218  10.171   8.743   3.287 -0.5948 -0.1495 -0.3060
39498SOL    HW130219  10.257   8.767   3.320 -0.8062 -1.9912  1.8744
39498SOL    HW230220  10.179   8.746   3.191  2.2186 -1.2847 -0.1834
39499SOL     OW30221   6.061   2.267  10.461  0.1041 -0.2308 -0.0383
39499SOL    HW130222   6.025   2.314  10.385 -1.7212  0.1430  0.9746
39499SOL    HW230223   6.072   2.177  10.431  0.4579  0.1370 -1.0512
39500SOL     OW30224   1.896  10.036   6.296  0.0312  0.1800 -0.0331
39500SOL    HW130225   1.959  10.000   6.233  1.2200  0.9087  0.7015
39500SOL    HW230226   1.823   9.973   6.296  1.1730 -1.1837 -0.2053
39501SOL     OW30227   3.817   3.324   5.187 -0.5617  0.5155  0.4030
39501SOL    HW130228   3.816   3.329   5.283  1.4508 -1.0452  0.5719
39501SOL    HW230229   3.846   3.410   5.158 -3.6406  1.8954  0.9764
39502SOL     OW30230   6.835   2.128   1.120 -0.6453  0.1185 -0.4176
39502SOL    HW130231   6.843   2.198   1.185 -1.1883  0.3200 -0.5582
39502SOL    HW230232   6.875   2.163   1.041 -1.3007  0.4488 -0.6147
39503SOL     OW30233  12.061   7.676   6.945 -0.1665  0.4648 -0.0766
39503SOL    HW130234  11.988   7.625   6.981 -0.1768  0.8344  0.4293
39503SOL    HW230235  12.022   7.759   6.920  0.5295  1.7829  2.7680
39504SOL     OW30236   0.959  12.453   3.549  0.4261 -0.3923 -0.0655
39504SOL    HW130237   0.901  12.378   3.564 -0.1032  0.1285  0.5520
39504SOL    HW230238   0.953  12.504   3.630  2.2074 -0.6289  0.2532
39505SOL     OW30239   4.987  13.741   1.142 -0.2096  0.3438  0.3779
39505SOL    HW130240   5.003  13.667   1.199 -0.4017  0.4214  0.5320
39505SOL    HW230241   4.909  13.717   1.092  0.0632  0.1989  0.0193
39506SOL     OW30242  13.169   2.058   7.709 -0.1230 -0.2458  0.1814
39506SOL    HW130243  13.091   2.113   7.719 -0.6390 -0.4352 -2.2024
39506SOL    HW230244  13.137   1.969   7.726 -0.1679 -0.2017  0.3280
39507SOL     OW30245   8.972  11.193   4.527  0.4748  0.0030 -0.3506
39507SOL    HW130246   8.902  11.258   4.521 -0.0264 -0.6059 -1.2792
39507SOL    HW230247   8.940  11.118   4.477  1.1110 -0.9084  0.5589
39508SOL     OW30248   6.489   9.928   5.753  0.1317  0.6712 -0.0699
39508SOL    HW130249   6.400   9.938   5.719 -0.2372 -0.5687  0.4696
39508SOL    HW230250   6.527   9.857   5.700  0.2831  0.1968  0.6562
39509SOL     OW30251   3.131   2.967  10.277  0.2580  0.2954  0.1790
39509SOL    HW130252   3.057   2.994  10.332  0.1780  2.6546 -0.9904
39509SOL    HW230253   3.094   2.899  10.221 -0.4623 -0.0093  0.9916
39510SOL     OW30254   0.022   2.253  10.967  0.4268 -0.1835  0.6118
39510SOL    HW130255   0.111   2.237  10.999  0.3253  1.4497  1.8774
39510SOL    HW230256   0.033   2.320  10.900  0.2791 -1.0464 -0.2837
39511SOL     OW30257  13.254   6.646   7.394  0.3856 -0.3853 -0.4907
39511SOL    HW130258  13.322   6.672   7.333  0.6885  0.2585  0.1079
39511SOL    HW230259  13.274   6.694   7.474  0.7787 -2.2110  0.5672
39512SOL     OW30260   5.663   3.402   9.867  0.2614  0.2202 -0.3337
39512SOL    HW130261   5.618   3.465   9.810  1.9086  1.8920  0.1238
39512SOL    HW230262   5.741   3.376   9.818  0.6992  0.2005  0.3653
39513SOL     OW30263  10.575   2.837   2.165 -0.3593  0.3801  0.4253
39513SOL    HW130264  10.575   2.766   2.100  1.2029  0.9719 -0.2808
39513SOL    HW230265  10.502   2.817   2.222 -0.8173 -1.0389 -0.5905
39514SOL     OW30266   4.440   0.131  10.689 -0.3265 -0.0620 -0.0737
39514SOL    HW130267   4.397   0.217  10.686 -1.0092 -0.3491  0.8906
39514SOL    HW230268   4.526   0.148  10.728 -1.8827 -0.2733  3.9405
39515SOL     OW30269   7.962   9.981   2.420 -0.2293 -0.0240  0.0477
39515SOL    HW130270   7.989   9.900   2.376 -0.4910  1.0352 -2.2032
39515SOL    HW230271   7.877   9.959   2.459  0.2115 -1.1355  0.4347
39516SOL     OW30272   5.821   0.878   3.917 -0.8143 -0.3734 -0.1907
39516SOL    HW130273   5.915   0.859   3.910 -0.5520  1.3162 -2.3159
39516SOL    HW230274   5.814   0.933   3.995  0.1585  0.3695 -0.6012
39517SOL     OW30275   1.185  10.922   3.585 -0.2192 -0.4208 -0.0349
39517SOL    HW130276   1.202  10.832   3.558 -1.3337 -0.5067 -0.5007
39517SOL    HW230277   1.094  10.922   3.612 -0.6243  0.8454 -1.2645
39518SOL     OW30278   4.824   2.454   0.708 -0.3660  0.2925 -1.1189
39518SOL    HW130279   4.784   2.476   0.624 -0.3680 -0.1716 -1.2408
39518SOL    HW230280   4.815   2.359   0.715  1.6209  0.0204 -1.6355
39519SOL     OW30281  11.803   4.983   6.336  0.4109  0.5062  0.5086
39519SOL    HW130282  11.781   4.964   6.245 -1.0688 -1.8951  1.2834
39519SOL    HW230283  11.859   5.061   6.331  0.0415  0.7037 -2.3890
39520SOL     OW30284   9.908   4.487  12.346  0.3174 -0.3691 -1.0488
39520SOL    HW130285   9.893   4.399  12.381 -0.5197 -0.0161 -0.5060
39520SOL    HW230286   9.824   4.514  12.311  0.6392  0.1125 -1.4684
39521SOL     OW30287   5.758   5.704   8.973  0.8310 -0.1703  0.3098
39521SOL    HW130288   5.772   5.623   9.021 -0.2098 -0.1760  0.6254
39521SOL    HW230289   5.818   5.767   9.014  1.2534 -0.6294  0.4143
39522SOL     OW30290   7.078  11.156  12.784  0.1718  0.2116  0.0904
39522SOL    HW130291   7.113  11.209  12.712 -0.4321 -0.1049 -0.4506
39522SOL    HW230292   7.056  11.072  12.744  1.1307 -0.4740  0.9407
39523SOL     OW30293   7.221   6.633   9.712 -0.0549 -0.5010  0.1696
39523SOL    HW130294   7.256   6.545   9.724 -1.0273 -1.0497 -0.8399
39523SOL    HW230295   7.291   6.680   9.666  1.1155 -0.2298  2.1073
39524SOL     OW30296   9.900   3.457   9.558  0.2052 -0.0688 -0.0063
39524SOL    HW130297   9.913   3.415   9.643  1.7012 -1.0365 -0.6725
39524SOL    HW230298   9.855   3.391   9.505  1.7101 -0.5273 -0.7683
39525SOL     OW30299   7.242   6.393   9.911 -0.0560  0.0778 -0.3384
39525SOL    HW130300   7.161   6.420   9.956  0.2777 -0.2227  0.4559
39525SOL    HW230301   7.312   6.419   9.970  0.3677 -0.7843 -0.4513
39526SOL     OW30302   3.888  12.602   4.901 -0.1154  0.1078 -0.3830
39526SOL    HW130303   3.868  12.520   4.946 -0.3486  0.0091 -0.6644
39526SOL    HW230304   3.811  12.619   4.847  0.0903  0.3150 -0.6132
39527SOL     OW30305   1.689   1.053   9.159  0.1790 -0.4238  0.7007
39527SOL    HW130306   1.754   1.014   9.101 -0.0174  0.9980 -0.5319
39527SOL    HW230307   1.731   1.053   9.245  1.0379 -1.3081  0.2970
39528SOL     OW30308   4.109   5.813   7.382 -0.3073  0.3937  0.6597
39528SOL    HW130309   4.110   5.898   7.338 -1.9666  0.8160  1.3441
39528SOL    HW230310   4.178   5.763   7.339  0.7440  2.0893  0.2623
39529SOL     OW30311   1.086   2.548  10.762 -0.0405  0.2173  0.2228
39529SOL    HW130312   1.039   2.467  10.741  1.3375 -1.0338  1.6340
39529SOL    HW230313   1.019   2.616  10.764 -2.1101 -1.6466  3.2851
39530SOL     OW30314   8.619   4.728   9.915  0.0149 -0.5806  0.1643
39530SOL    HW130315   8.627   4.823   9.919  1.6941 -0.4592 -2.7575
39530SOL    HW230316   8.540   4.714   9.862 -0.6038 -0.8679  1.1416
39531SOL     OW30317   7.337   3.964  12.057 -1.1034  0.7112 -0.4153
39531SOL    HW130318   7.272   4.020  12.100 -0.8220  0.9030 -0.2414
39531SOL    HW230319   7.366   4.016  11.982  0.1040  1.3377  0.4674
39532SOL     OW30320   7.951  10.867   6.462 -0.3954  0.4013 -0.4958
39532SOL    HW130321   7.914  10.857   6.549 -1.3994 -0.9860 -1.0422
39532SOL    HW230322   8.008  10.790   6.451  0.0385  0.7724 -0.9094
39533SOL     OW30323   8.263   0.499   6.185  0.6065  0.5782  0.0190
39533SOL    HW130324   8.203   0.521   6.257 -0.3044  1.3672 -0.9597
39533SOL    HW230325   8.226   0.420   6.146 -0.5440  1.7441 -1.3582
39534SOL     OW30326  13.261   0.336   9.690  0.0710 -0.0046 -0.4605
39534SOL    HW130327  13.293   0.288   9.613  0.1405 -0.1316 -0.3536
39534SOL    HW230328  13.216   0.412   9.654 -0.6887 -0.5367 -0.6629
39535SOL     OW30329   2.756   8.230   2.862  0.0396  0.1496 -0.1983
39535SOL    HW130330   2.851   8.225   2.860  0.0838 -0.1225  1.4623
39535SOL    HW230331   2.726   8.142   2.840  0.2092 -0.0388  0.3048
39536SOL     OW30332   3.010  11.596  11.882 -0.1628 -0.3495 -0.3126
39536SOL    HW130333   3.059  11.567  11.805 -1.4775 -0.6805 -1.0579
39536SOL    HW230334   3.050  11.548  11.955  3.0965  2.1822 -0.2269
39537SOL     OW30335   8.818   6.843   0.565 -0.7596  0.1394  0.0050
39537SOL    HW130336   8.880   6.835   0.638  0.2656  1.2538 -0.6986
39537SOL    HW230337   8.800   6.936   0.559 -1.6239 -0.0569 -0.5360
39538SOL     OW30338   5.031  12.367   9.408  0.0989 -0.0123 -0.3238
39538SOL    HW130339   4.980  12.448   9.404  1.0776  0.5687 -1.7490
39538SOL    HW230340   4.965  12.297   9.406 -0.6918  0.7293 -0.9351
39539SOL     OW30341   6.016   0.670   0.370  0.0006  0.0417  0.3129
39539SOL    HW130342   5.962   0.678   0.448  0.4328 -0.6979  0.7054
39539SOL    HW230343   5.968   0.718   0.302 -2.3237 -2.3947  0.0430
39540SOL     OW30344  13.061   7.002   7.115 -0.1422 -0.0049  0.3327
39540SOL    HW130345  13.115   6.952   7.053  0.8692  0.6636  0.6596
39540SOL    HW230346  13.052   7.088   7.074  0.4762  0.4200  1.0756
39541SOL     OW30347  13.055   9.291  12.115 -0.0892 -0.1892 -0.2582
39541SOL    HW130348  13.083   9.357  12.052 -1.7050  0.0470 -0.7774
39541SOL    HW230349  13.063   9.334  12.201  1.6242 -0.3372 -0.3088
39542SOL     OW30350  12.067   0.406   8.379 -0.0530  0.4068  0.3128
39542SOL    HW130351  12.024   0.333   8.335 -1.9580  0.5630  1.7874
39542SOL    HW230352  12.037   0.401   8.470 -0.5891  3.2568  0.3850
39543SOL     OW30353  10.290  13.354   6.838  0.0516 -0.2245  0.6670
39543SOL    HW130354  10.361  13.369   6.900 -0.7844 -1.0413  1.8567
39543SOL    HW230355  10.262  13.441   6.811 -0.4564  0.2030  2.4657
39544SOL     OW30356   3.294   5.310  10.381 -0.0039  0.6218  0.0813
39544SOL    HW130357   3.332   5.398  10.378  0.9583  0.1908 -1.0195
39544SOL    HW230358   3.224   5.312  10.315  0.9094  0.1992 -0.9463
39545SOL     OW30359   5.770   3.419   9.398 -1.2115 -0.1066  0.4239
39545SOL    HW130360   5.865   3.407   9.403 -1.3506 -1.9157 -0.2082
39545SOL    HW230361   5.750   3.484   9.465  0.5466  0.8152  0.0988
39546SOL     OW30362   8.763   9.026   8.077  0.1532  0.0743  0.3635
39546SOL    HW130363   8.786   9.112   8.110  1.8830 -1.4089  3.5317
39546SOL    HW230364   8.847   8.986   8.053  0.0275 -2.0627  2.9251
39547SOL     OW30365   8.978   9.674   0.809  0.6944  0.1692  0.1502
39547SOL    HW130366   9.015   9.662   0.722 -0.1649 -0.0419 -0.1938
39547SOL    HW230367   9.028   9.615   0.865  1.3651  0.4319 -0.1548
39548SOL     OW30368   7.661   2.707  12.943 -0.0370  0.3788  0.1273
39548SOL    HW130369   7.755   2.717  12.930  0.0190 -0.0304  0.1852
39548SOL    HW230370   7.626   2.690  12.855  0.0271 -0.0722  0.1864
39549SOL     OW30371   9.027   4.032   7.852  0.2389 -0.0124  0.3744
39549SOL    HW130372   9.036   4.120   7.888  0.3317  0.1502 -0.0449
39549SOL    HW230373   9.088   4.030   7.778 -0.0139 -0.3168  0.1718
39550SOL     OW30374  13.243   0.086   0.208  0.0577 -0.1464  0.2590
39550SOL    HW130375  13.246   0.134   0.125  0.1459 -0.6976 -0.0572
39550SOL    HW230376  13.172   0.127   0.258 -0.7849 -0.5893 -0.5587
39551SOL     OW30377   5.707   6.676   8.814  1.1901  0.5375 -0.4680
39551SOL    HW130378   5.736   6.601   8.865  0.1908  0.7169  0.3880
39551SOL    HW230379   5.733   6.656   8.724 -0.3959 -1.5228 -0.5148
39552SOL     OW30380   1.271   4.375  10.201 -0.2220  0.3128  0.6064
39552SOL    HW130381   1.266   4.369  10.296 -1.9133  0.1952  0.5348
39552SOL    HW230382   1.212   4.447  10.178  1.2886  1.3344 -0.2739
39553SOL     OW30383  12.102   0.638   4.423 -0.1225  0.2638 -0.1318
39553SOL    HW130384  12.035   0.582   4.383  1.9776 -1.7002 -1.1679
39553SOL    HW230385  12.164   0.654   4.352  0.6261  1.8924  0.8375
39554SOL     OW30386   3.692  13.051   1.214  0.1646  0.4416  0.3286
39554SOL    HW130387   3.623  13.086   1.159 -0.5032  1.2310  1.6249
39554SOL    HW230388   3.653  12.975   1.257  0.6021 -0.0277 -0.0871
39555SOL     OW30389   8.759   1.641  10.463  0.2815  0.2198  0.1307
39555SOL    HW130390   8.750   1.712  10.526  1.1104  1.0761 -0.6728
39555SOL    HW230391   8.796   1.568  10.513 -0.3101  0.4377  0.9023
39556SOL     OW30392  12.431   4.444  10.992 -0.1986 -0.4294 -0.2820
39556SOL    HW130393  12.381   4.525  10.988 -1.0081 -0.9338 -0.4584
39556SOL    HW230394  12.502   4.456  10.929  0.8840  0.9221  1.1054
39557SOL     OW30395   4.738   9.101   7.362  0.2262 -0.0150  0.0821
39557SOL    HW130396   4.772   9.036   7.424  0.2632 -0.1451 -0.0738
39557SOL    HW230397   4.651   9.069   7.339  0.2392 -0.0024  0.0156
39558SOL     OW30398  10.739   2.779   8.272 -0.1949 -0.0151 -0.6018
39558SOL    HW130399  10.828   2.808   8.292 -0.2015 -1.8503  2.8629
39558SOL    HW230400  10.684   2.856   8.289  0.5782  0.6747 -1.1863
39559SOL     OW30401   7.808   9.814  10.004 -0.3157 -0.6791 -0.5773
39559SOL    HW130402   7.744   9.779  10.066 -0.9998  2.7594  0.8945
39559SOL    HW230403   7.892   9.779  10.034 -0.9379 -1.1880  0.6292
39560SOL     OW30404   1.113   4.194   7.730  0.4029 -0.5462  0.6593
39560SOL    HW130405   1.061   4.274   7.737 -0.1960 -0.9221  0.5352
39560SOL    HW230406   1.176   4.213   7.660 -2.9768 -1.9041 -3.1027
39561SOL     OW30407   9.413   9.048   9.159  0.2249 -0.0075 -0.4598
39561SOL    HW130408   9.356   8.977   9.190  0.8101  0.1458  1.0697
39561SOL    HW230409   9.466   9.071   9.236 -0.3009  2.4425 -0.7496
39562SOL     OW30410   2.780   6.466   6.148 -0.0309  0.5987  0.4677
39562SOL    HW130411   2.759   6.550   6.190 -1.0792 -0.0447  1.2843
39562SOL    HW230412   2.826   6.416   6.215  0.5152  0.4747  0.0117
39563SOL     OW30413   1.320  12.857   9.369 -0.3176 -0.0980 -0.2525
39563SOL    HW130414   1.242  12.914   9.367 -0.3935 -0.0265  1.9816
39563SOL    HW230415   1.391  12.914   9.341 -0.7584  0.4537 -0.2760
39564SOL     OW30416   8.296   3.868   1.813 -0.5326  0.5286  0.2600
39564SOL    HW130417   8.379   3.914   1.805 -0.5892  0.3415 -2.4048
39564SOL    HW230418   8.315   3.794   1.870  0.5416  1.6833  1.4542
39565SOL     OW30419  12.848   6.301   7.563  0.2285  0.0688  0.1523
39565SOL    HW130420  12.929   6.325   7.519  1.0643 -2.1258  0.3513
39565SOL    HW230421  12.866   6.314   7.656  0.5474 -0.9214  0.2330
39566SOL     OW30422   8.754   1.250  10.195 -0.1476  0.0366  0.1100
39566SOL    HW130423   8.775   1.248  10.102  1.8057 -1.0124  0.5090
39566SOL    HW230424   8.833   1.284  10.237 -1.0481  0.6471  1.3836
39567SOL     OW30425  11.158   5.714  11.876  0.1305 -0.0143 -0.2048
39567SOL    HW130426  11.079   5.765  11.857  1.0595  1.5133 -0.1822
39567SOL    HW230427  11.208   5.769  11.937  0.7323 -1.4238  0.6125
39568SOL     OW30428   9.580   5.886  12.521  0.2335 -0.3944  0.0525
39568SOL    HW130429   9.602   5.947  12.591  0.0363  0.4107 -0.5699
39568SOL    HW230430   9.490   5.908  12.497  0.8184  0.4225 -1.5174
39569SOL     OW30431   7.432   1.854   7.477 -0.3073  0.4120  0.0749
39569SOL    HW130432   7.360   1.805   7.436 -0.8265  0.4004  0.9735
39569SOL    HW230433   7.399   1.876   7.564  0.8260  0.3146  0.5480
39570SOL     OW30434   8.694  13.386   0.957 -0.1440  0.1527 -0.1141
39570SOL    HW130435   8.621  13.434   0.918 -1.0906  0.9763  2.5248
39570SOL    HW230436   8.768  13.446   0.950 -0.4629  0.5564 -0.0544
39571SOL     OW30437   0.098   3.728   7.961 -0.4120 -0.5862  0.5767
39571SOL    HW130438   0.013   3.689   7.982 -0.5127 -1.8287 -1.8554
39571SOL    HW230439   0.123   3.690   7.877  2.4381 -0.0268  1.0508
39572SOL     OW30440   3.645  12.680  10.020  0.9462 -0.4202 -0.0485
39572SOL    HW130441   3.690  12.653   9.941  0.6140 -0.4794 -0.2199
39572SOL    HW230442   3.681  12.766  10.041 -0.4856  0.5902 -1.4782
39573SOL     OW30443  13.549   5.339   7.797  0.2079  0.2260 -0.6695
39573SOL    HW130444  13.600   5.266   7.832  0.1691  0.6178  0.2337
39573SOL    HW230445  13.460   5.305   7.790  0.0075  0.4149  0.5721
39574SOL     OW30446   1.425   1.103   0.287  0.0960  0.1459  0.0761
39574SOL    HW130447   1.500   1.059   0.327  0.0327 -0.7426 -0.7298
39574SOL    HW230448   1.419   1.187   0.333  0.7930 -0.2995  1.0314
39575SOL     OW30449   6.354   4.503   8.732 -0.1535 -0.2762  0.3203
39575SOL    HW130450   6.328   4.584   8.774 -0.9178 -1.1142  1.5408
39575SOL    HW230451   6.421   4.466   8.791  0.7338 -0.1921 -0.6027
39576SOL     OW30452  13.720  11.255  12.206  0.2500 -0.1026  0.3169
39576SOL    HW130453  13.758  11.172  12.234 -0.0705  0.0726  1.2959
39576SOL    HW230454  13.679  11.235  12.122  0.0643 -0.9649  0.6074
39577SOL     OW30455   3.883   8.690   8.390 -0.1741 -0.2019 -0.1452
39577SOL    HW130456   3.975   8.704   8.410 -0.1794 -0.6576  0.2174
39577SOL    HW230457   3.843   8.669   8.475 -0.2726 -1.7643 -0.5393
39578SOL     OW30458   5.470   7.679  11.797  1.0338  0.4922  0.7394
39578SOL    HW130459   5.543   7.694  11.737 -1.1632 -0.8743 -2.6186
39578SOL    HW230460   5.413   7.756  11.786 -0.1956 -0.5194 -0.3530
39579SOL     OW30461   5.582   5.146   8.111 -0.4995  0.3128 -0.4376
39579SOL    HW130462   5.677   5.159   8.115 -0.4460  0.1347 -0.9801
39579SOL    HW230463   5.569   5.058   8.147 -0.5833  0.7766  0.7047
39580SOL     OW30464   7.349   9.025  12.766 -0.1771 -0.5390 -0.7592
39580SOL    HW130465   7.272   9.061  12.723  0.3379  0.5042 -0.8324
39580SOL    HW230466   7.353   8.934  12.737 -1.4099 -0.6206 -0.7017
39581SOL     OW30467  13.177  12.456   2.762 -0.3664 -0.5168  0.2602
39581SOL    HW130468  13.226  12.530   2.727 -0.3174 -1.4242 -1.7387
39581SOL    HW230469  13.179  12.468   2.856 -0.2252  1.9203 -0.0075
39582SOL     OW30470   2.133   2.477   8.451  0.6181  0.0582  0.4929
39582SOL    HW130471   2.065   2.514   8.507  1.2307 -0.1987  1.4277
39582SOL    HW230472   2.173   2.553   8.409  0.7275  0.3303  1.0733
39583SOL     OW30473  12.774   4.760   7.815  0.1786 -0.1464 -0.7773
39583SOL    HW130474  12.778   4.786   7.723 -0.8646  1.2849 -0.4661
39583SOL    HW230475  12.807   4.836   7.863 -0.2404 -0.4781  0.0701
39584SOL     OW30476   7.987  11.200   6.693  0.1331  0.2733  0.1714
39584SOL    HW130477   7.972  11.180   6.601  0.9228 -0.1004  0.1116
39584SOL    HW230478   8.043  11.128   6.724 -0.1118  0.4020  0.9374
39585SOL     OW30479  10.845  12.308   1.293  0.0806 -0.5515 -0.4735
39585SOL    HW130480  10.809  12.360   1.220 -0.5849  0.7419  0.7263
39585SOL    HW230481  10.894  12.371   1.345  0.3156 -1.4067  0.3535
39586SOL     OW30482   2.858   9.051   4.151  0.0165 -0.1468  0.2441
39586SOL    HW130483   2.913   9.042   4.229  2.2507 -2.4684 -1.4214
39586SOL    HW230484   2.913   9.101   4.090 -0.3927 -1.0286 -0.8745
39587SOL     OW30485   2.741  10.343   7.280 -0.2679 -0.3947  0.2904
39587SOL    HW130486   2.781  10.312   7.361 -0.3906 -0.9051  0.1591
39587SOL    HW230487   2.756  10.273   7.217  3.1761  1.4688 -1.2421
39588SOL     OW30488   3.762   8.375  11.159  0.1213 -0.2532  0.0898
39588SOL    HW130489   3.807   8.295  11.132  0.2833 -0.1757  0.1278
39588SOL    HW230490   3.832   8.432  11.191 -0.3098 -1.7364  4.3439
39589SOL     OW30491   8.983   1.039   6.159  0.4594  0.1179 -0.0065
39589SOL    HW130492   8.978   1.004   6.248  0.8329  0.0113 -0.0290
39589SOL    HW230493   8.929   1.119   6.162 -1.4858 -1.1157 -0.2913
39590SOL     OW30494  13.145   5.130   7.059 -0.3803 -0.0362 -0.0949
39590SOL    HW130495  13.061   5.085   7.067  0.0433 -1.0211 -0.9134
39590SOL    HW230496  13.131   5.195   6.990 -0.2794 -0.6890 -0.7369
39591SOL     OW30497   4.763  13.541   1.316  0.6312  0.4467  0.2761
39591SOL    HW130498   4.716  13.468   1.357 -1.2040  0.7206 -1.1904
39591SOL    HW230499   4.825  13.499   1.256  1.2976  0.0963  1.1873
39592SOL     OW30500   2.542   4.629   6.129  0.6248 -0.1937  0.4027
39592SOL    HW130501   2.606   4.660   6.194 -0.0783 -0.7284  1.3796
39592SOL    HW230502   2.491   4.563   6.176 -0.7883  0.3708 -0.2891
39593SOL     OW30503   7.653  12.570   2.892 -0.4687  0.5183 -0.2602
39593SOL    HW130504   7.723  12.520   2.850 -0.6123  0.3835 -0.3392
39593SOL    HW230505   7.651  12.653   2.844 -0.9179  0.1996 -0.8034
39594SOL     OW30506  13.075   6.518   5.575 -0.2578  0.5778  0.5279
39594SOL    HW130507  13.022   6.460   5.629 -0.9034 -1.0474 -1.6694
39594SOL    HW230508  13.143   6.461   5.538  0.7644  1.8329  0.4053
39595SOL     OW30509  12.952   8.117   5.134 -0.2024  0.4417  0.4674
39595SOL    HW130510  12.980   8.206   5.156  1.1623  0.1387  0.0172
39595SOL    HW230511  13.004   8.060   5.191  0.3797 -0.1558 -0.6257
39596SOL     OW30512   5.591  12.588   1.258 -0.2882  0.3242  0.5606
39596SOL    HW130513   5.511  12.536   1.264  0.2741 -0.8703 -1.5210
39596SOL    HW230514   5.608  12.615   1.348 -1.4923 -1.7568  1.4898
39597SOL     OW30515  13.026   2.385  13.629 -0.0309 -0.9785 -0.2960
39597SOL    HW130516  13.007   2.336  13.549 -0.1564 -1.4300  0.0040
39597SOL    HW230517  12.942   2.392  13.674  0.2992 -2.0885  0.5400
39598SOL     OW30518   1.070   7.277   2.070 -0.1898  0.1732  0.2793
39598SOL    HW130519   0.982   7.248   2.095 -0.0164 -0.9556 -0.3372
39598SOL    HW230520   1.083   7.240   1.983  1.5003 -1.0946  1.0083
39599SOL     OW30521   1.555  11.777  11.985 -0.6338 -0.3757 -0.2297
39599SOL    HW130522   1.507  11.859  11.999 -1.3460 -0.7821 -0.2491
39599SOL    HW230523   1.615  11.771  12.059  0.1131  0.6398 -0.7315
39600SOL     OW30524  12.396  10.775  10.613  0.0721  0.1061  0.1070
39600SOL    HW130525  12.469  10.829  10.584 -1.4891  1.1818 -2.0844
39600SOL    HW230526  12.363  10.733  10.533 -1.7915 -0.2199  0.9781
39601SOL     OW30527  12.139   9.722   5.907 -1.1186  0.2818 -0.0626
39601SOL    HW130528  12.224   9.742   5.945 -2.1927  0.4169  2.4709
39601SOL    HW230529  12.086   9.801   5.922 -2.1322 -0.3460 -0.2016
39602SOL     OW30530   3.927   9.620   4.045 -0.2751 -0.4448  0.2905
39602SOL    HW130531   3.941   9.527   4.064 -0.7972 -0.3611  1.1312
39602SOL    HW230532   3.863   9.649   4.111 -0.7082  0.3227 -0.4425
39603SOL     OW30533  13.344   9.128   0.594  0.2403  0.8623 -0.2825
39603SOL    HW130534  13.352   9.217   0.627 -0.7624  0.2448  1.7719
39603SOL    HW230535  13.252   9.120   0.568  0.6565  0.8426 -1.8695
39604SOL     OW30536   8.630   5.233   6.292  0.7413  0.2848  0.2272
39604SOL    HW130537   8.534   5.230   6.294  0.7150  0.5909 -0.5240
39604SOL    HW230538   8.651   5.323   6.269  1.2474  0.7328  2.2232
39605SOL     OW30539  11.033   5.324   5.255  0.3860  0.0318  0.2692
39605SOL    HW130540  11.112   5.273   5.236  0.8743 -0.1086  2.4841
39605SOL    HW230541  11.065   5.413   5.270 -0.3858  0.9702 -2.7869
39606SOL     OW30542  10.205   6.107   4.410 -0.2004  0.2586 -0.1296
39606SOL    HW130543  10.168   6.108   4.321 -0.7464  1.2170  0.0932
39606SOL    HW230544  10.223   6.199   4.429 -0.4716  0.1035  0.9167
39607SOL     OW30545   4.961  12.893   9.392 -0.0443  0.6656 -0.0153
39607SOL    HW130546   4.870  12.901   9.364 -0.1538 -2.9116 -1.0716
39607SOL    HW230547   4.956  12.883   9.487 -0.7251  0.5365 -0.0613
39608SOL     OW30548   4.367  12.458   8.553  0.0479 -0.2347 -0.5779
39608SOL    HW130549   4.460  12.433   8.557 -0.2316 -1.9561 -2.6525
39608SOL    HW230550   4.323  12.391   8.605 -0.1583 -0.2410 -0.7643
39609SOL     OW30551  10.396   7.171  10.438 -0.4864 -0.0791 -0.0053
39609SOL    HW130552  10.368   7.116  10.510  0.1334 -0.6276 -0.1707
39609SOL    HW230553  10.492   7.176  10.447 -0.4037 -0.1470 -0.7748
39610SOL     OW30554  10.818   8.734   0.108  0.2471 -0.2512 -0.2446
39610SOL    HW130555  10.746   8.794   0.124  1.0892  1.1615 -1.4551
39610SOL    HW230556  10.872   8.740   0.187 -0.9860 -1.4475  0.7405
39611SOL     OW30557  12.854   5.250  11.166 -0.2493  0.0858  0.2121
39611SOL    HW130558  12.773   5.300  11.164  0.8250  1.9169 -0.3012
39611SOL    HW230559  12.837   5.173  11.113 -1.3723  0.9179 -0.6762
39612SOL     OW30560   0.327   7.449   0.567  0.3588 -0.3953 -0.3060
39612SOL    HW130561   0.417   7.474   0.590  0.2475  0.2660 -0.5911
39612SOL    HW230562   0.333   7.415   0.478  0.0265  1.4647 -1.0769
39613SOL     OW30563   9.144   6.874   1.538  0.5051 -0.4429  0.0807
39613SOL    HW130564   9.121   6.940   1.473 -0.3575 -2.3717 -1.6848
39613SOL    HW230565   9.065   6.823   1.550  1.0482 -0.9731  1.6728
39614SOL     OW30566  11.983   2.507  11.246 -0.0838 -0.2402  0.0961
39614SOL    HW130567  11.914   2.560  11.207  0.5517  0.0347 -0.6833
39614SOL    HW230568  11.989   2.538  11.336 -0.3469  0.3737 -0.0899
39615SOL     OW30569   3.021  13.118   3.217  0.1059  0.2361 -0.6616
39615SOL    HW130570   3.092  13.152   3.272  0.3746  1.1720 -1.5613
39615SOL    HW230571   2.946  13.174   3.238 -0.2144 -0.3541 -0.1755
39616SOL     OW30572   4.533   9.849  10.216  0.5578  0.3260 -0.2778
39616SOL    HW130573   4.450   9.861  10.170  0.4199  0.9326  0.1232
39616SOL    HW230574   4.514   9.781  10.282  0.3848  0.4445 -0.2041
39617SOL     OW30575  10.426   3.115   3.396  0.0960 -0.1414  0.0063
39617SOL    HW130576  10.475   3.036   3.420  0.2537  0.0897  0.4506
39617SOL    HW230577  10.348   3.082   3.351 -0.4164 -0.6026  1.2014
39618SOL     OW30578   4.755   9.243  10.332  0.0067  0.0649 -0.9743
39618SOL    HW130579   4.818   9.309  10.303  0.3359 -0.2572 -0.9950
39618SOL    HW230580   4.806   9.182  10.385 -0.7834  1.3131  1.4220
39619SOL     OW30581   5.856   2.258   8.538 -0.0481 -0.2310  0.3992
39619SOL    HW130582   5.836   2.168   8.512 -1.6367  0.2684 -0.2213
39619SOL    HW230583   5.939   2.251   8.585  0.4091 -1.8666 -0.5601
39620SOL     OW30584   1.610   2.903   8.997 -0.4842 -0.2645 -0.2596
39620SOL    HW130585   1.604   2.993   9.029 -1.9816 -0.1813 -0.6767
39620SOL    HW230586   1.601   2.849   9.075 -1.1670 -0.0439 -0.1740
39621SOL     OW30587  10.210  12.142   2.757 -0.7256  0.1654  0.6737
39621SOL    HW130588  10.137  12.196   2.789 -0.0088  2.0099 -0.6076
39621SOL    HW230589  10.277  12.206   2.730 -0.7805 -1.1356 -3.3020
39622SOL     OW30590   1.222   7.731   3.266 -0.4176 -0.3554 -0.1536
39622SOL    HW130591   1.307   7.772   3.250 -1.6340  2.1660 -0.5818
39622SOL    HW230592   1.204   7.747   3.359 -1.3134  1.0445 -0.5308
39623SOL     OW30593   2.481   3.255   1.850 -0.0770 -0.3245 -0.1525
39623SOL    HW130594   2.555   3.250   1.790  1.0148 -3.1172  1.2400
39623SOL    HW230595   2.404   3.261   1.793  1.0339 -0.6878 -1.7624
39624SOL     OW30596   0.938  11.187   6.340  0.2168 -0.5367  0.1048
39624SOL    HW130597   0.894  11.237   6.409 -0.8582  0.0634 -0.9792
39624SOL    HW230598   0.898  11.218   6.259  0.5292 -2.1600 -0.7050
39625SOL     OW30599   6.860   0.938   9.827 -0.2736  0.1003  0.4536
39625SOL    HW130600   6.878   0.957   9.735 -2.6088  3.8661  0.5783
39625SOL    HW230601   6.767   0.920   9.829  0.1377 -2.2419  1.8962
39626SOL     OW30602   2.800   6.588   0.985 -0.0111  0.4067  0.1225
39626SOL    HW130603   2.888   6.625   0.978 -0.0389  0.5033  0.2763
39626SOL    HW230604   2.813   6.493   0.981  0.1873  0.3835  1.0664
39627SOL     OW30605   0.472   3.609   2.415  0.4490 -0.8370  0.3208
39627SOL    HW130606   0.472   3.705   2.413  1.7756 -0.7415  2.2324
39627SOL    HW230607   0.563   3.585   2.432  0.3338 -2.5108 -1.1648
39628SOL     OW30608   3.242  13.272   9.241 -0.0008 -0.0938 -0.1110
39628SOL    HW130609   3.156  13.308   9.217 -1.7011 -3.2215  0.8062
39628SOL    HW230610   3.302  13.307   9.175 -2.2292  1.1304 -1.5889
39629SOL     OW30611  13.624  10.901   2.903  0.4192  0.7779 -0.1169
39629SOL    HW130612  13.693  10.840   2.931 -0.1924  0.8024  1.5982
39629SOL    HW230613  13.586  10.860   2.825  2.0117  0.5133 -0.7939
39630SOL     OW30614   9.254   6.084   9.756 -0.2195  0.1462 -0.4384
39630SOL    HW130615   9.234   6.021   9.687  2.3119  0.2672 -1.3690
39630SOL    HW230616   9.252   6.032   9.837  0.7889 -0.9499 -1.0767
39631SOL     OW30617   3.942  11.037   6.728  0.4236 -0.3704  0.1516
39631SOL    HW130618   3.849  11.021   6.745 -0.8193  2.1377 -3.2587
39631SOL    HW230619   3.967  11.106   6.790 -0.4596  0.1042 -0.0172
39632SOL     OW30620   6.957   8.955   5.512  0.2971  0.3590  0.0074
39632SOL    HW130621   7.001   8.945   5.597  2.5566 -1.1425 -1.2165
39632SOL    HW230622   6.904   9.034   5.522 -1.6920 -1.1757  3.6379
39633SOL     OW30623   5.641  11.315   4.233 -0.0626  0.1400 -0.8902
39633SOL    HW130624   5.650  11.341   4.142  1.3469  0.8029 -0.5949
39633SOL    HW230625   5.698  11.239   4.242  0.9739  0.9591 -0.2555
39634SOL     OW30626   8.268  12.052   1.014  0.6396 -0.1981 -0.0942
39634SOL    HW130627   8.251  12.099   0.932  1.0889  1.1797  0.5754
39634SOL    HW230628   8.296  11.965   0.986  0.2571  0.0713 -1.3889
39635SOL     OW30629   9.339   0.321   4.334  0.0584  0.0080 -0.2707
39635SOL    HW130630   9.304   0.410   4.339  2.0916  1.3998 -5.2169
39635SOL    HW230631   9.400   0.316   4.408 -2.7941  1.1749  2.3683
39636SOL     OW30632  13.359   0.663   2.712 -0.4602 -0.6082 -0.5103
39636SOL    HW130633  13.327   0.591   2.766 -3.2917 -0.0604 -1.2777
39636SOL    HW230634  13.293   0.731   2.721  1.7960  1.7242 -0.3090
39637SOL     OW30635   1.380   2.065   5.845  0.4336  0.0172 -0.1037
39637SOL    HW130636   1.396   1.981   5.888  0.6487 -1.1045 -2.2368
39637SOL    HW230637   1.296   2.094   5.881  0.4786 -0.9752  0.8770
39638SOL     OW30638   2.231   9.999   6.274 -0.2480 -0.2740  0.4029
39638SOL    HW130639   2.204   9.960   6.357  1.8387  0.3395  1.4150
39638SOL    HW230640   2.309   9.951   6.248  1.0803  1.6946  0.5328
39639SOL     OW30641   9.819   8.926   6.039  0.0988  0.1823 -0.4466
39639SOL    HW130642   9.836   8.832   6.044 -3.1614 -0.4469  1.4953
39639SOL    HW230643   9.799   8.941   5.946 -1.2632 -1.5119 -0.4873
39640SOL     OW30644   5.922   7.185  10.650  0.1831 -0.3964  0.5748
39640SOL    HW130645   5.986   7.145  10.592 -1.5909 -1.7607 -0.5319
39640SOL    HW230646   5.870   7.242  10.594  0.6534  1.0403  1.5410
39641SOL     OW30647   2.765   0.855   1.442  0.4619 -0.4362 -0.3684
39641SOL    HW130648   2.725   0.839   1.356 -0.8122  1.5944 -0.2078
39641SOL    HW230649   2.766   0.769   1.484  2.2246 -1.7495 -2.7962
39642SOL     OW30650   9.902   7.692  12.901 -0.4331  0.0208  0.0264
39642SOL    HW130651   9.901   7.787  12.907  1.3509  0.0323  0.8024
39642SOL    HW230652   9.974   7.673  12.840 -1.1327 -0.8308 -0.5641
39643SOL     OW30653   1.167   8.680   6.550  0.0135 -0.6128  0.3043
39643SOL    HW130654   1.233   8.750   6.552  1.2385 -1.6566 -1.0188
39643SOL    HW230655   1.131   8.685   6.461 -0.5753 -1.0726  0.5127
39644SOL     OW30656  12.420   0.999  11.640  0.2900 -0.2623  0.2294
39644SOL    HW130657  12.507   1.027  11.670 -0.3305  0.9361  0.9667
39644SOL    HW230658  12.421   1.015  11.545  1.8013 -2.8315 -0.2805
39645SOL     OW30659   2.896   3.020  10.429 -0.4073  0.5264 -0.0028
39645SOL    HW130660   2.836   2.974  10.488 -0.2968 -1.9325 -1.6669
39645SOL    HW230661   2.840   3.082  10.382 -1.7866 -1.7270 -1.5422
39646SOL     OW30662  13.621   7.647   2.781 -0.1408  0.0826  0.3177
39646SOL    HW130663  13.540   7.699   2.778 -0.2059 -0.0209 -2.9588
39646SOL    HW230664  13.691   7.712   2.778 -0.1473  0.0905  0.3425
39647SOL     OW30665  10.626  12.869   8.190  0.3502 -0.0773  0.1827
39647SOL    HW130666  10.625  12.776   8.168  1.1575 -0.2489  0.8156
39647SOL    HW230667  10.556  12.907   8.137  0.3096 -0.9648 -0.4286
39648SOL     OW30668   0.680   6.391   7.530  0.4126 -0.1105  0.2107
39648SOL    HW130669   0.708   6.441   7.606  0.9232  0.5433 -0.3882
39648SOL    HW230670   0.586   6.404   7.526  0.3787 -0.1746  0.7447
39649SOL     OW30671   0.245  12.117   3.088  0.3749 -0.0925  0.3015
39649SOL    HW130672   0.155  12.105   3.056  0.3333 -0.1949  0.4559
39649SOL    HW230673   0.237  12.188   3.153 -0.4720 -3.1014  3.8695
39650SOL     OW30674  12.314   1.298   0.878  0.2207 -0.1060 -0.2461
39650SOL    HW130675  12.342   1.389   0.872  0.8203 -0.1179  1.6538
39650SOL    HW230676  12.218   1.302   0.880  0.2466  0.5982  0.7836
39651SOL     OW30677   6.207   0.506   8.193  0.1979  0.3712 -0.8908
39651SOL    HW130678   6.126   0.558   8.194  0.2645  0.4662 -0.3633
39651SOL    HW230679   6.242   0.519   8.105  0.3687  1.4712 -0.6776
39652SOL     OW30680   1.726   5.577   8.405  0.1252  0.2133 -0.0472
39652SOL    HW130681   1.793   5.572   8.473 -0.1316 -2.3994  0.1238
39652SOL    HW230682   1.643   5.572   8.453 -0.1857  1.8475 -0.3653
39653SOL     OW30683   5.189   0.093  12.682  0.3981  0.0918 -0.2384
39653SOL    HW130684   5.223   0.121  12.767  2.8081  0.0592 -1.1254
39653SOL    HW230685   5.202  -0.002  12.682 -0.9325 -0.1142 -0.1272
39654SOL     OW30686  12.013  13.475   2.430 -0.1585 -0.0706 -0.4018
39654SOL    HW130687  12.044  13.384   2.436 -0.8299 -0.4411 -2.0181
39654SOL    HW230688  12.008  13.505   2.521  3.5820 -0.4091  0.0489
39655SOL     OW30689   1.569   5.582   9.632 -0.5911 -0.5702  0.2463
39655SOL    HW130690   1.474   5.592   9.620 -0.3302 -0.1662 -1.9697
39655SOL    HW230691   1.591   5.645   9.701 -1.7797  0.2348 -0.0638
39656SOL     OW30692  13.735   4.242   5.612  0.3570  0.0068  0.2420
39656SOL    HW130693  13.789   4.168   5.640 -0.8703 -0.6982  0.8653
39656SOL    HW230694  13.676   4.205   5.545 -2.2300 -0.4055  2.5512
39657SOL     OW30695  12.093   1.121  13.462  0.1990 -0.0105 -0.2147
39657SOL    HW130696  12.127   1.198  13.417 -0.3854 -0.0440 -0.7358
39657SOL    HW230697  12.017   1.095  13.410 -0.5920  0.0351  0.8975
39658SOL     OW30698   5.441   4.414  12.219  0.2225 -0.4085  0.0760
39658SOL    HW130699   5.431   4.485  12.155  1.4417  1.0894  1.4624
39658SOL    HW230700   5.498   4.351  12.176  0.3147  0.1466 -0.6426
39659SOL     OW30701  11.985  11.491   2.636  0.4825 -0.0946 -0.5831
39659SOL    HW130702  11.915  11.499   2.570 -0.6263  1.3922  0.6988
39659SOL    HW230703  11.956  11.420   2.693 -2.0970  2.9195  2.2130
39660SOL     OW30704   6.131   1.327  10.670  0.3740 -0.5438 -0.0771
39660SOL    HW130705   6.078   1.386  10.615 -0.2374 -1.5516 -0.5849
39660SOL    HW230706   6.094   1.336  10.757  0.8719  0.5076  0.0430
39661SOL     OW30707   3.297   4.786   8.824  0.1879 -0.1679  0.2713
39661SOL    HW130708   3.215   4.834   8.835  1.3375  1.7875  0.8002
39661SOL    HW230709   3.270   4.696   8.808 -2.0650  0.5062 -0.0786
39662SOL     OW30710  10.144   1.648   2.759  0.0575 -0.1087 -0.3324
39662SOL    HW130711  10.153   1.651   2.855 -2.1039 -0.1905 -0.0844
39662SOL    HW230712  10.089   1.722   2.737  0.1804 -0.3403 -1.4881
39663SOL     OW30713  13.516   7.198   8.901 -0.2924 -0.2877  0.1319
39663SOL    HW130714  13.484   7.161   8.984 -0.6548 -0.2063  0.0309
39663SOL    HW230715  13.591   7.144   8.878  0.3038  0.1878  0.9234
39664SOL     OW30716  11.180   8.992   4.884 -0.1379  0.4065 -0.5422
39664SOL    HW130717  11.270   9.013   4.858  0.7990  0.6536  2.4975
39664SOL    HW230718  11.126   9.030   4.815  2.0504  0.9640 -2.0562
39665SOL     OW30719   0.958   4.932   3.447  0.3418  0.0481 -0.1578
39665SOL    HW130720   0.952   4.874   3.371 -0.6141 -2.8979  1.9535
39665SOL    HW230721   1.039   4.905   3.491  0.7852  1.5679  0.0192
39666SOL     OW30722  12.356   3.229   5.760 -0.0597  0.2928 -0.2149
39666SOL    HW130723  12.274   3.256   5.720  0.6831  1.6731 -0.8827
39666SOL    HW230724  12.420   3.235   5.689  0.7178 -0.2474  0.4267
39667SOL     OW30725  10.121   1.780   0.859  0.2640  0.3944  0.0422
39667SOL    HW130726  10.214   1.779   0.879  0.6130  0.6011 -1.4510
39667SOL    HW230727  10.115   1.827   0.776 -1.1050 -0.1850 -0.2121
39668SOL     OW30728   8.205   8.712   9.663  0.1411 -0.0953  0.4774
39668SOL    HW130729   8.229   8.685   9.574  0.0970 -1.1058  0.7557
39668SOL    HW230730   8.202   8.630   9.713 -0.6675  0.3571  1.2120
39669SOL     OW30731  13.515   8.220   2.858 -0.2004 -0.1839 -0.6697
39669SOL    HW130732  13.565   8.148   2.894  0.1337  0.1493 -0.4557
39669SOL    HW230733  13.573   8.262   2.794 -0.7674 -0.7368 -1.5732
39670SOL     OW30734  12.117   0.437   3.258  0.3804  0.2549 -0.0879
39670SOL    HW130735  12.058   0.512   3.264  0.9642  0.6235  1.6762
39670SOL    HW230736  12.060   0.361   3.265 -0.1766  0.4977 -1.5140
39671SOL     OW30737   1.080  13.036  13.683 -0.4000 -0.8487  0.7582
39671SOL    HW130738   1.046  13.120  13.651 -0.5641 -0.4353  1.9787
39671SOL    HW230739   1.008  12.998  13.733 -0.4127 -1.8452  0.0042
39672SOL     OW30740  10.339   9.034   5.547  0.0339 -0.2371  0.6616
39672SOL    HW130741  10.342   8.982   5.627  0.3098 -1.1643  0.0670
39672SOL    HW230742  10.349   9.124   5.577 -1.7413 -0.3760  1.8449
39673SOL     OW30743   1.834   8.666   4.784 -0.1369  0.1439  0.4507
39673SOL    HW130744   1.926   8.639   4.781  0.0855  0.7889  1.1525
39673SOL    HW230745   1.837   8.760   4.804 -0.9590  0.0510  1.0583
39674SOL     OW30746  13.040  12.574  13.546 -0.1525 -0.0803  0.0772
39674SOL    HW130747  12.953  12.608  13.569  0.9449  0.5824  3.8345
39674SOL    HW230748  13.025  12.480  13.531 -1.5311  0.0658  0.3498
39675SOL     OW30749   3.804   2.987  13.151  0.5998 -0.2068 -0.2532
39675SOL    HW130750   3.820   2.963  13.242  1.7307 -0.5743 -0.5333
39675SOL    HW230751   3.759   2.911  13.113  0.5960 -0.2656 -0.1297
39676SOL     OW30752   8.442   3.154   4.262  0.4439 -0.9380 -0.0540
39676SOL    HW130753   8.537   3.160   4.259  0.5734 -1.7966  1.3964
39676SOL    HW230754   8.417   3.207   4.337 -0.2801 -0.2294 -0.7871
39677SOL     OW30755   5.809  13.627   4.433  0.1992  0.3341 -0.7015
39677SOL    HW130756   5.891  13.665   4.403 -0.6877  2.8925 -0.0970
39677SOL    HW230757   5.779  13.573   4.360  1.5036  0.8600 -1.6489
39678SOL     OW30758   9.982  13.520   7.908  0.5502 -0.2395  0.3175
39678SOL    HW130759   9.936  13.437   7.895 -0.3528  0.3423 -0.3298
39678SOL    HW230760  10.069  13.495   7.938  0.9371 -1.5193 -1.6691
39679SOL     OW30761   0.601   3.057   6.893  0.0938  0.7467 -0.5166
39679SOL    HW130762   0.606   3.151   6.879 -0.2055  0.6541 -1.2816
39679SOL    HW230763   0.640   3.044   6.980  0.5195  1.5242 -0.5782
39680SOL     OW30764   3.011   2.840   9.547  0.1824  0.1819 -0.2016
39680SOL    HW130765   3.008   2.748   9.571  1.6535 -0.1870 -1.2951
39680SOL    HW230766   3.012   2.887   9.631  0.5852 -0.8405  0.3765
39681SOL     OW30767   7.946  12.763   1.027  0.1413  0.1725 -0.0611
39681SOL    HW130768   7.955  12.820   1.104  0.0875  0.8323 -0.5308
39681SOL    HW230769   8.026  12.779   0.977  0.7581 -1.1820  0.4517
39682SOL     OW30770   6.476  13.591   4.771 -0.1788  0.2389  0.2356
39682SOL    HW130771   6.451  13.678   4.740  1.0976  0.4532 -0.2655
39682SOL    HW230772   6.440  13.586   4.859 -1.6027  0.6579 -0.2900
39683SOL     OW30773  11.276   0.926  10.127  0.3147 -0.3442  0.4345
39683SOL    HW130774  11.299   1.019  10.128 -2.7636  0.5342 -0.4481
39683SOL    HW230775  11.199   0.920  10.185  0.0250 -2.2178 -0.0826
39684SOL     OW30776   1.610   2.200   2.372  0.1461  0.1502  0.0982
39684SOL    HW130777   1.562   2.268   2.324 -0.5230 -0.6837 -0.4374
39684SOL    HW230778   1.701   2.211   2.342 -0.3059 -0.5841 -1.7071
39685SOL     OW30779   1.895   5.645   2.359 -0.2717 -0.0320  0.1271
39685SOL    HW130780   1.810   5.686   2.347  0.6089  1.0938 -3.1915
39685SOL    HW230781   1.958   5.717   2.357  0.8509 -0.8868  1.9543
39686SOL     OW30782  10.201   8.970   5.323 -0.1969 -1.0846 -0.3799
39686SOL    HW130783  10.131   9.025   5.289 -1.2338 -1.5803  0.8580
39686SOL    HW230784  10.248   9.027   5.384 -0.4868 -1.1831 -0.0576
39687SOL     OW30785   7.660   0.008   2.400 -0.2975 -0.8017 -0.5471
39687SOL    HW130786   7.718   0.065   2.351 -1.3563 -1.4467 -2.6868
39687SOL    HW230787   7.703  -0.078   2.399  0.1472 -0.6076  0.5649
39688SOL     OW30788  13.071   0.970   2.178 -0.1502  0.8712 -0.0421
39688SOL    HW130789  13.101   0.903   2.116 -0.6526  0.2844  0.3417
39688SOL    HW230790  12.983   0.943   2.202  0.9955 -0.5531  3.1290
39689SOL     OW30791   0.001   7.068  12.911 -0.4430  0.7145  0.0991
39689SOL    HW130792  -0.006   7.156  12.874 -1.2940  0.7038  0.2230
39689SOL    HW230793  -0.075   7.060  12.968 -1.8495 -1.0353 -1.8886
39690SOL     OW30794   8.124  13.289  10.863 -0.4470 -0.7884  0.1554
39690SOL    HW130795   8.068  13.329  10.929 -2.4198 -1.8022 -0.8385
39690SOL    HW230796   8.127  13.197  10.887  0.1295 -0.8924 -0.2887
39691SOL     OW30797  13.002   5.738   6.041 -0.4647 -0.3228 -0.1277
39691SOL    HW130798  12.957   5.659   6.014  0.2424 -0.1810 -1.8581
39691SOL    HW230799  13.095   5.716   6.038 -0.2932  0.2922  0.2999
39692SOL     OW30800  12.426   3.963   1.574 -0.4366 -0.4059  0.3497
39692SOL    HW130801  12.506   4.011   1.554 -0.4891  0.2369  1.5631
39692SOL    HW230802  12.456   3.884   1.619 -0.3103 -1.8978 -2.1604
39693SOL     OW30803   2.445   8.154   6.965 -0.0067 -0.7021 -0.2449
39693SOL    HW130804   2.524   8.136   7.017  0.0234  3.3306  1.4531
39693SOL    HW230805   2.373   8.145   7.027 -0.1585  2.0346  0.1145
39694SOL     OW30806   5.530   1.735   7.428 -0.3119  0.2919 -0.2030
39694SOL    HW130807   5.494   1.687   7.502  1.6342 -0.3511  0.4118
39694SOL    HW230808   5.583   1.669   7.382  0.9626  1.4056 -0.3756
39695SOL     OW30809   6.082   2.280  12.058 -0.2040 -0.5912 -0.2603
39695SOL    HW130810   6.171   2.278  12.024 -0.6157 -2.3198 -1.3449
39695SOL    HW230811   6.026   2.284  11.981 -1.1127 -2.3257  0.2680
39696SOL     OW30812  10.101   0.116  13.483 -0.2985 -0.6332 -0.0190
39696SOL    HW130813  10.128   0.132  13.573 -2.2562  0.4938  0.4194
39696SOL    HW230814  10.027   0.055  13.490 -0.5562 -0.4386 -0.8513
39697SOL     OW30815   0.547   1.993  10.708 -0.1015 -0.1485 -0.0867
39697SOL    HW130816   0.497   2.075  10.701  0.4744  0.3480  1.2419
39697SOL    HW230817   0.619   2.014  10.768  1.7440 -0.8292 -1.9316
39698SOL     OW30818   7.521   5.503   3.685 -0.1771  0.2630  0.0102
39698SOL    HW130819   7.488   5.572   3.742  1.7477  0.7643  0.6092
39698SOL    HW230820   7.523   5.543   3.598 -0.5796  0.4147  0.0707
39699SOL     OW30821   2.363  11.506   8.872  0.1841  0.3146  0.1204
39699SOL    HW130822   2.336  11.472   8.957  0.5823  2.3811  1.1318
39699SOL    HW230823   2.286  11.496   8.816 -0.1487 -0.8813  0.7521
39700SOL     OW30824   0.090  11.331   3.463  0.1231 -0.1720  0.0169
39700SOL    HW130825   0.151  11.323   3.536 -1.1619  0.8372  1.2747
39700SOL    HW230826   0.009  11.292   3.496 -0.5579  0.5418 -0.7745
39701SOL     OW30827  12.124   5.637   8.401  0.5071  0.6499 -0.1653
39701SOL    HW130828  12.053   5.689   8.439  0.3987 -0.3376  1.0638
39701SOL    HW230829  12.097   5.621   8.311 -1.2552 -0.3745  0.4966
39702SOL     OW30830   7.655   5.473  12.738  0.8899 -0.4278  0.5238
39702SOL    HW130831   7.702   5.442  12.660 -1.0715 -0.6915 -0.6040
39702SOL    HW230832   7.580   5.414  12.746 -0.6463  1.4632  0.7946
39703SOL     OW30833   6.355  10.028  12.606 -0.5668  0.5094 -0.1061
39703SOL    HW130834   6.274   9.980  12.618 -1.0811  1.7082  1.4294
39703SOL    HW230835   6.328  10.114  12.574  0.3649 -0.2496 -3.3139
39704SOL     OW30836   2.170   4.707   0.396 -0.3955 -0.4499 -0.2114
39704SOL    HW130837   2.169   4.802   0.404  1.9194 -0.3499 -0.3329
39704SOL    HW230838   2.094   4.678   0.446 -2.6756  1.5293 -2.2702
39705SOL     OW30839   1.978   3.590   1.368  0.0992  0.4679  0.5358
39705SOL    HW130840   1.900   3.563   1.319 -1.8800  2.1053  2.5225
39705SOL    HW230841   2.041   3.520   1.353 -1.2382 -0.3085 -2.2402
39706SOL     OW30842   9.079  11.445   1.396  0.3030 -0.4019  0.0335
39706SOL    HW130843   9.037  11.361   1.377  0.6788 -0.3482 -1.1537
39706SOL    HW230844   9.062  11.498   1.317 -1.4319  1.2765  1.4300
39707SOL     OW30845  10.726   6.328  13.308 -0.5741  0.1028  0.5005
39707SOL    HW130846  10.778   6.386  13.252 -0.7666  0.5883  0.8304
39707SOL    HW230847  10.668   6.282  13.246 -1.1176  0.9786  0.3414
39708SOL     OW30848   9.067   8.171   5.988  0.3934 -0.2056 -0.0995
39708SOL    HW130849   9.119   8.233   6.039  1.2227 -0.2177 -0.9060
39708SOL    HW230850   9.011   8.225   5.932 -0.0344 -0.1929  0.3352
39709SOL     OW30851   8.770   4.651   0.191 -0.2313 -0.3776  0.0388
39709SOL    HW130852   8.730   4.626   0.275 -1.6119 -1.1302 -0.8163
39709SOL    HW230853   8.698   4.691   0.142 -0.4833 -3.2826 -2.1962
39710SOL     OW30854   5.528   0.227   0.526 -0.4296 -0.3254  0.5328
39710SOL    HW130855   5.564   0.316   0.533 -0.4034 -0.3102  0.1970
39710SOL    HW230856   5.501   0.206   0.615  0.5062 -0.3703  0.8160
39711SOL     OW30857  11.968   8.908   1.745  0.2343 -0.0645  0.3701
39711SOL    HW130858  11.904   8.888   1.676  2.2302 -0.3381 -1.4960
39711SOL    HW230859  11.921   8.968   1.804 -1.3788  0.6651 -1.5271
39712SOL     OW30860   8.611  10.897   0.997 -0.0152 -0.3950 -0.3310
39712SOL    HW130861   8.624  10.900   1.092  0.4559 -0.0875 -0.3969
39712SOL    HW230862   8.524  10.935   0.983 -0.7300 -1.8339  0.0796
39713SOL     OW30863   4.225  13.518   7.536 -0.0086  0.0864  0.0788
39713SOL    HW130864   4.234  13.587   7.602 -0.3239  0.3430 -0.1454
39713SOL    HW230865   4.203  13.564   7.455  0.8047 -0.1879 -0.3131
39714SOL     OW30866   8.241   0.905  13.328  0.1089 -0.0988 -0.1945
39714SOL    HW130867   8.242   0.810  13.340  0.9572 -0.3509 -1.9486
39714SOL    HW230868   8.317   0.936  13.377  0.9451 -0.5683 -1.1640
39715SOL     OW30869   1.923   5.775   4.334 -0.3835  0.3768 -0.3920
39715SOL    HW130870   1.828   5.784   4.323 -0.4349  0.7879  0.2893
39715SOL    HW230871   1.937   5.682   4.348 -0.8374  0.4529  0.6792
39716SOL     OW30872  12.945   5.665   8.581 -0.2775  0.5954  0.1715
39716SOL    HW130873  12.942   5.741   8.524  2.4795  1.7223  1.3677
39716SOL    HW230874  12.939   5.590   8.522  0.5798  1.7080 -1.3967
39717SOL     OW30875   6.257  12.860   5.551  0.0664  0.3721 -0.1636
39717SOL    HW130876   6.175  12.906   5.537  0.6879  1.4096 -0.4635
39717SOL    HW230877   6.235  12.767   5.542 -0.5888  0.7147 -2.8917
39718SOL     OW30878  13.131   6.537   0.535 -1.0591  0.0749 -0.1140
39718SOL    HW130879  13.197   6.468   0.533 -0.4002  0.6938 -0.4658
39718SOL    HW230880  13.182   6.618   0.524 -1.9549  0.5065 -1.2387
39719SOL     OW30881  12.341   2.818   9.043  0.7852  0.0284 -0.6770
39719SOL    HW130882  12.427   2.841   9.007  1.2603  1.6446  1.3295
39719SOL    HW230883  12.335   2.723   9.033  2.2147  0.0474 -2.0463
39720SOL     OW30884   1.930   2.922   8.894  0.2240  0.4692  0.2002
39720SOL    HW130885   1.880   2.850   8.856  0.8102  0.4811 -0.6220
39720SOL    HW230886   1.957   2.890   8.980 -1.6035  0.6587  0.8811
39721SOL     OW30887  13.504   0.814   7.999 -0.1431 -1.0572  0.2532
39721SOL    HW130888  13.441   0.884   7.978  2.1813  1.0907 -0.0381
39721SOL    HW230889  13.518   0.770   7.915  1.4889  0.9351 -0.6167
39722SOL     OW30890  11.100   8.198   4.226 -0.5672  0.1898 -0.0849
39722SOL    HW130891  11.007   8.217   4.217 -0.6057 -0.3878 -1.1395
39722SOL    HW230892  11.115   8.124   4.166  0.7213  0.7777 -0.5226
39723SOL     OW30893   8.608   9.239   4.227 -0.1986  0.3692  0.3205
39723SOL    HW130894   8.691   9.199   4.252  0.2221  1.6600  1.0898
39723SOL    HW230895   8.616   9.256   4.133  0.3259  0.2888  0.3475
39724SOL     OW30896  10.762  12.761   9.194  0.1105  0.5214 -0.3833
39724SOL    HW130897  10.785  12.854   9.199 -0.4003  0.5917  1.0280
39724SOL    HW230898  10.829  12.716   9.244  0.3511  0.1151 -1.0543
39725SOL     OW30899   8.934   1.795   6.554 -0.0375  0.2558  0.2108
39725SOL    HW130900   8.946   1.870   6.612  0.5401  1.5178 -1.4394
39725SOL    HW230901   8.842   1.801   6.527  0.5205  1.7623 -1.6154
39726SOL     OW30902   7.692   0.909   5.548 -0.1074  0.2379 -0.1491
39726SOL    HW130903   7.604   0.941   5.526 -0.4980 -1.1248 -0.6920
39726SOL    HW230904   7.732   0.888   5.464 -0.9043 -3.2382  0.1821
39727SOL     OW30905   9.041   4.071   7.297  0.2965 -0.5351  0.3105
39727SOL    HW130906   8.956   4.047   7.332  0.9830 -1.8679  1.1203
39727SOL    HW230907   9.039   4.167   7.293 -1.2984 -0.5607  0.1240
39728SOL     OW30908   6.194   2.902   9.531  0.1564  0.1466 -0.1447
39728SOL    HW130909   6.203   2.811   9.561 -1.4273  0.7775  2.5002
39728SOL    HW230910   6.276   2.944   9.557  1.1840 -0.6046 -1.9831
39729SOL     OW30911   0.536   1.024   5.959  0.4601  0.5780 -0.2110
39729SOL    HW130912   0.554   1.098   6.016 -0.0163  0.2798  0.3419
39729SOL    HW230913   0.606   0.962   5.977  0.4175  0.5655 -0.0853
39730SOL     OW30914  11.373   7.453   3.971 -0.1961  0.1501 -0.9070
39730SOL    HW130915  11.459   7.477   3.937  1.1574  1.0483  2.6596
39730SOL    HW230916  11.381   7.360   3.992  1.0343  0.7826  1.9320
39731SOL     OW30917   5.542   9.336   5.628  0.1850 -0.1269  0.2236
39731SOL    HW130918   5.570   9.364   5.541  1.1905  1.1647  0.9215
39731SOL    HW230919   5.554   9.241   5.627  0.6213 -0.0812 -0.8903
39732SOL     OW30920   4.987  11.678   5.623 -0.5061  0.2903  0.5161
39732SOL    HW130921   5.028  11.626   5.692  0.2559 -0.9207 -0.7876
39732SOL    HW230922   4.894  11.657   5.629 -0.4247  0.0795  1.0737
39733SOL     OW30923   3.015  10.265   1.043  0.0899 -0.5339  0.1362
39733SOL    HW130924   3.110  10.280   1.050  0.1364 -0.9162  0.3299
39733SOL    HW230925   2.976  10.349   1.067  0.3289 -0.9935  2.3998
39734SOL     OW30926   7.528   9.340   8.945  0.3958 -0.4646 -0.3093
39734SOL    HW130927   7.576   9.330   9.028 -1.3777  0.1102  0.8476
39734SOL    HW230928   7.512   9.434   8.938  0.2063 -0.5522 -1.1372
39735SOL     OW30929   9.183   6.981  13.222 -0.2184  0.2837 -1.0049
39735SOL    HW130930   9.124   6.907  13.209 -1.2009  0.8722 -0.0447
39735SOL    HW230931   9.242   6.952  13.292  1.4198 -0.7278 -2.7007
39736SOL     OW30932   9.456   9.422   2.217  0.2377  0.2295  0.0962
39736SOL    HW130933   9.423   9.503   2.177  0.9280  0.4565 -0.0284
39736SOL    HW230934   9.389   9.398   2.281 -1.0589 -0.3202 -1.4034
39737SOL     OW30935   1.521   7.112  11.999 -0.2744 -0.4242  0.3825
39737SOL    HW130936   1.610   7.078  11.990 -1.2840 -2.8118 -1.4713
39737SOL    HW230937   1.501   7.149  11.913 -1.1796 -0.1512  0.6991
39738SOL     OW30938   3.867   8.143   5.867 -0.3195  0.4345 -0.6532
39738SOL    HW130939   3.918   8.071   5.903  0.1103  1.8129  1.7925
39738SOL    HW230940   3.821   8.106   5.792  2.0823 -1.5805 -1.2445
39739SOL     OW30941   2.142   1.199   7.020 -0.0300  0.9136  0.1227
39739SOL    HW130942   2.156   1.215   7.113  1.7154  1.0662 -0.1185
39739SOL    HW230943   2.160   1.284   6.978  1.2048  0.3897 -0.4862
39740SOL     OW30944  11.727   6.331  13.670 -0.7328  0.5415  0.4205
39740SOL    HW130945  11.816   6.319  13.638 -1.3425 -1.0596 -0.7672
39740SOL    HW230946  11.738   6.374  13.755  1.0610  2.0289 -0.4871
39741SOL     OW30947  11.155   3.801  10.753  0.1049 -0.2183  0.2167
39741SOL    HW130948  11.136   3.727  10.810  1.0095 -0.5558  0.1063
39741SOL    HW230949  11.219   3.853  10.802  1.0087 -0.5935 -0.5295
39742SOL     OW30950  13.737  13.235   8.903  0.3593  0.0366  0.4975
39742SOL    HW130951  13.672  13.290   8.859 -1.8311 -2.0530  0.9110
39742SOL    HW230952  13.713  13.238   8.995  1.1590 -0.4132  0.7285
39743SOL     OW30953   1.882  12.044  13.322 -0.5957  0.5787 -0.3192
39743SOL    HW130954   1.893  12.016  13.412  1.3955 -0.6427 -0.8935
39743SOL    HW230955   1.815  12.113  13.326 -2.6643 -1.4006  1.6822
39744SOL     OW30956   1.424   4.236   4.477  0.3856 -0.2194  0.1925
39744SOL    HW130957   1.341   4.228   4.430  0.1784  2.5377 -0.0991
39744SOL    HW230958   1.490   4.210   4.414 -0.1915 -3.7901  0.8362
39745SOL     OW30959   1.727  11.205  12.826 -0.1526  0.3703 -0.6338
39745SOL    HW130960   1.819  11.179  12.833 -0.4632 -0.9233 -1.0868
39745SOL    HW230961   1.712  11.215  12.732 -0.3859  0.9615 -0.5391
39746SOL     OW30962  10.464   0.763  11.048  0.2891 -0.0536 -0.0181
39746SOL    HW130963  10.498   0.840  11.002  2.3381 -0.2280  1.0688
39746SOL    HW230964  10.533   0.697  11.037  0.3725 -0.4395  2.3157
39747SOL     OW30965   3.304  11.518   3.669 -0.8151 -0.8355  0.4443
39747SOL    HW130966   3.329  11.548   3.582 -3.2444 -1.4109 -0.5370
39747SOL    HW230967   3.387  11.510   3.717  0.5220  0.1026 -1.5931
39748SOL     OW30968   4.852   5.253   2.709  0.2027  0.6454 -0.0214
39748SOL    HW130969   4.792   5.243   2.783 -0.1413 -0.7946 -0.4780
39748SOL    HW230970   4.899   5.170   2.703  1.0748  1.1625 -0.7035
39749SOL     OW30971  10.461   9.541   4.882  0.1689  0.1553  0.7862
39749SOL    HW130972  10.515   9.549   4.960 -0.4112  1.0270  1.1127
39749SOL    HW230973  10.381   9.590   4.902 -0.0401  0.3005 -0.3076
39750SOL     OW30974   5.794   0.657   6.107  0.4076 -0.2970  0.0124
39750SOL    HW130975   5.801   0.586   6.043  0.0589  0.5431 -0.9697
39750SOL    HW230976   5.722   0.631   6.164  1.2489 -1.4494  0.6008
39751SOL     OW30977   4.961   0.108   6.410  0.2785  0.4619 -0.1452
39751SOL    HW130978   4.915   0.136   6.332  1.1386  0.0998 -0.8097
39751SOL    HW230979   4.963   0.185   6.467  1.8994  1.5703 -1.5817
39752SOL     OW30980   1.847   8.770   6.238  0.3640 -0.3095 -0.3946
39752SOL    HW130981   1.933   8.731   6.257  0.2032 -0.7504 -0.5724
39752SOL    HW230982   1.849   8.854   6.283  0.6905 -0.5480  0.0440
39753SOL     OW30983   1.098   2.834   6.426 -0.1482 -0.0224  0.0301
39753SOL    HW130984   1.137   2.747   6.435  2.4576  1.0520  0.1935
39753SOL    HW230985   1.010   2.825   6.463  0.5171 -2.2617  1.3000
39754SOL     OW30986   6.094   8.952   9.803  0.1392 -0.0131  0.5879
39754SOL    HW130987   6.125   8.909   9.883  0.4170 -1.0618 -0.0720
39754SOL    HW230988   6.174   8.971   9.754 -0.1159 -0.6393 -0.0779
39755SOL     OW30989  12.160  11.404   3.986 -0.0844 -0.3379  0.8426
39755SOL    HW130990  12.085  11.432   3.933  1.5187  1.4036 -0.6983
39755SOL    HW230991  12.136  11.426   4.076  0.0780  4.3531  0.0225
39756SOL     OW30992   1.059   4.667   1.391 -0.0245 -0.0661  0.1912
39756SOL    HW130993   1.095   4.692   1.476  0.0680 -1.0436  0.4482
39756SOL    HW230994   1.134   4.673   1.331 -0.1196  0.7524  0.1371
39757SOL     OW30995   2.143   0.885  12.351 -0.2891  0.1477 -0.0853
39757SOL    HW130996   2.171   0.826  12.281 -1.1764 -1.9403  1.2203
39757SOL    HW230997   2.177   0.845  12.431 -2.3730  0.4426  1.0115
39758SOL     OW30998  12.630   3.037   9.713 -0.4920 -0.1162 -0.4036
39758SOL    HW130999  12.614   3.061   9.805 -1.5501 -0.8189 -0.3870
39758SOL    HW231000  12.621   3.119   9.665  2.7674  0.8334  0.3627
39759SOL     OW31001   0.300   8.786   0.925  0.3046 -0.2616 -0.5791
39759SOL    HW131002   0.377   8.808   0.977  0.0934 -1.4662  0.2781
39759SOL    HW231003   0.312   8.836   0.843  0.6283  1.6838  0.5852
39760SOL     OW31004   0.740   7.022  10.913 -0.4671  0.3646  0.0355
39760SOL    HW131005   0.684   7.052  10.985  1.0803  2.3183  0.5106
39760SOL    HW231006   0.753   6.928  10.930  0.0677  0.8126  2.4935
39761SOL     OW31007   1.056   2.563   7.005  0.2772 -0.2026 -0.5790
39761SOL    HW131008   1.116   2.620   6.957  1.8669 -1.5958 -0.3246
39761SOL    HW231009   1.008   2.516   6.938 -0.4908  0.8232 -0.7825
39762SOL     OW31010  11.545  10.008  12.919 -0.0728  0.1250 -0.1445
39762SOL    HW131011  11.490   9.997  12.841  1.3144 -0.2810 -1.1114
39762SOL    HW231012  11.518  10.092  12.956 -0.1062  0.8215 -1.6510
39763SOL     OW31013  10.880   0.716   4.811  0.9897 -0.2181  0.0614
39763SOL    HW131014  10.849   0.654   4.877  3.8066 -1.2513  0.5187
39763SOL    HW231015  10.909   0.792   4.861 -1.4762  1.1506 -0.4296
39764SOL     OW31016   9.575   6.555   8.684  0.2368 -0.3310 -0.3191
39764SOL    HW131017   9.627   6.574   8.762  0.5002  2.6750 -1.0846
39764SOL    HW231018   9.486   6.582   8.707  0.4820  1.4831 -1.2267
39765SOL     OW31019   1.542   5.887   5.076 -0.0265  0.4734 -0.0598
39765SOL    HW131020   1.546   5.982   5.063  0.0679  0.3450 -1.0931
39765SOL    HW231021   1.607   5.852   5.015 -2.2981 -0.4269 -2.1182
39766SOL     OW31022   9.779   0.385   3.650 -1.1041  0.0559 -0.2081
39766SOL    HW131023   9.787   0.409   3.558  1.3005 -0.6475 -0.2658
39766SOL    HW231024   9.851   0.323   3.665 -2.4295 -1.1442  1.7596
39767SOL     OW31025  12.360   1.345   2.800 -0.0173 -0.2123 -0.3606
39767SOL    HW131026  12.273   1.332   2.837 -0.8354  1.1520 -1.6735
39767SOL    HW231027  12.354   1.312   2.710  0.5322  0.6945 -0.7515
39768SOL     OW31028  13.203   1.482   2.427  0.9297  0.3912  0.1593
39768SOL    HW131029  13.245   1.527   2.354 -1.0541  1.1298 -0.6034
39768SOL    HW231030  13.143   1.547   2.463 -1.4002 -1.3217 -0.4169
39769SOL     OW31031   4.187  11.713  13.586  0.0273 -0.2661  0.4136
39769SOL    HW131032   4.190  11.675  13.499  1.4199  0.3171  0.1798
39769SOL    HW231033   4.261  11.773  13.589 -1.9164  2.2631  0.8495
39770SOL     OW31034   0.193  12.922  12.787 -0.0556 -0.0687  0.0435
39770SOL    HW131035   0.282  12.958  12.781 -0.3267  0.4628 -0.9373
39770SOL    HW231036   0.136  12.998  12.779 -0.6192 -0.5802 -0.8462
39771SOL     OW31037   6.986   9.663   5.392  0.2706 -0.0252 -0.1972
39771SOL    HW131038   7.081   9.661   5.406  0.2832  1.1824  0.0036
39771SOL    HW231039   6.970   9.748   5.350 -0.5336 -0.8995 -1.7447
39772SOL     OW31040   3.579   3.361   8.996 -0.8916  0.4441  0.0290
39772SOL    HW131041   3.626   3.411   9.063 -2.6825  0.2366  1.5245
39772SOL    HW231042   3.642   3.295   8.967  0.8051  2.1819 -0.4421
39773SOL     OW31043  11.759  11.024   1.132 -1.0622  0.1039  0.1695
39773SOL    HW131044  11.738  11.114   1.156 -3.1031 -0.8709  2.5469
39773SOL    HW231045  11.686  10.997   1.075 -1.0358 -0.3450  0.3462
39774SOL     OW31046  11.671   4.107  12.455  0.9087 -0.0831  0.5348
39774SOL    HW131047  11.678   4.185  12.509 -0.9345  0.4089  0.1394
39774SOL    HW231048  11.615   4.048  12.506  1.1574 -0.5951  0.2255
39775SOL     OW31049   4.110  10.792  11.482  0.1092 -0.0728 -0.4220
39775SOL    HW131050   4.019  10.812  11.459  0.1590 -0.0763 -0.6209
39775SOL    HW231051   4.131  10.713  11.432 -0.6535 -1.7093  1.6563
39776SOL     OW31052  12.886  12.300   8.052 -0.2999  0.3175  0.2714
39776SOL    HW131053  12.801  12.305   8.009 -1.0431  1.0449  1.7539
39776SOL    HW231054  12.942  12.358   8.000 -1.1282  1.0499  0.1707
39777SOL     OW31055  13.584   7.514   2.235  0.4893 -0.5589  0.3843
39777SOL    HW131056  13.621   7.601   2.215 -1.6487  0.0096 -1.4921
39777SOL    HW231057  13.647   7.476   2.296  1.7526  2.1155  0.9336
39778SOL     OW31058  13.006  10.466   3.794  0.5880 -0.3938 -0.1445
39778SOL    HW131059  13.027  10.389   3.848 -0.9508 -1.0571 -0.4461
39778SOL    HW231060  13.076  10.469   3.729  0.6004 -1.6446 -0.2177
39779SOL     OW31061  12.088  12.634   8.670 -0.2862 -0.3099 -0.7486
39779SOL    HW131062  12.011  12.578   8.681 -0.8701  0.3401 -1.4312
39779SOL    HW231063  12.101  12.675   8.755 -0.9997 -0.0453 -0.7627
39780SOL     OW31064  12.710   2.147  13.673  0.8273  0.3670 -0.1845
39780SOL    HW131065  12.796   2.106  13.665  0.9930  0.1728  1.9120
39780SOL    HW231066  12.648   2.081  13.641  1.4715  0.8000 -2.4361
39781SOL     OW31067   6.628  13.400   4.186  0.4687  0.4369  0.8193
39781SOL    HW131068   6.692  13.447   4.133  1.3166 -0.1858  1.2668
39781SOL    HW231069   6.668  13.314   4.202  1.1372  1.1800  4.0086
39782SOL     OW31070   5.776   1.334  13.158 -0.1495  0.5818  0.3385
39782SOL    HW131071   5.811   1.409  13.108  1.3868  0.6251  1.4346
39782SOL    HW231072   5.800   1.258  13.106  0.3731  0.7070  0.3867
39783SOL     OW31073   4.717   1.387   3.977  0.2160 -0.7041 -0.2229
39783SOL    HW131074   4.627   1.418   3.970 -0.5171 -2.2901  1.3695
39783SOL    HW231075   4.735   1.345   3.893 -0.3506  0.0543 -0.7306
39784SOL     OW31076   4.999   2.161   3.615  0.0866  0.0117 -0.1304
39784SOL    HW131077   5.038   2.075   3.626 -0.5312 -0.5012 -1.6418
39784SOL    HW231078   4.926   2.163   3.677  1.7090  0.5395  1.8746
39785SOL     OW31079   3.310  11.174   6.383 -0.3472 -0.0140 -0.6254
39785SOL    HW131080   3.358  11.102   6.425  1.1899  2.0820  1.5203
39785SOL    HW231081   3.230  11.182   6.435  0.5644  1.2026  0.6964
39786SOL     OW31082   9.982  10.835  11.210 -0.0770  0.8207 -0.5628
39786SOL    HW131083  10.002  10.876  11.294 -0.5194  0.1425 -0.1194
39786SOL    HW231084  10.065  10.800  11.179 -0.1929 -0.3370  0.3723
39787SOL     OW31085   7.347  13.064  10.019 -0.0676 -0.4045  0.5128
39787SOL    HW131086   7.323  13.157  10.024 -0.0828 -0.4742  2.8243
39787SOL    HW231087   7.438  13.062  10.047 -0.4401 -1.1896  1.7517
39788SOL     OW31088  12.599   9.917   1.933  0.1910 -0.7700 -0.1770
39788SOL    HW131089  12.522   9.899   1.879  1.5002 -3.2057 -1.3809
39788SOL    HW231090  12.595   9.852   2.004 -0.4680  1.1407  1.6545
39789SOL     OW31091   5.094  12.702   4.619 -0.2749 -0.0343 -0.0998
39789SOL    HW131092   5.036  12.630   4.594  0.9391 -0.7545 -0.9483
39789SOL    HW231093   5.071  12.773   4.560  0.4552 -0.6994 -1.2173
39790SOL     OW31094   5.760   1.648   2.317  0.1446  0.8609  0.3296
39790SOL    HW131095   5.806   1.671   2.237 -0.5192 -0.0927 -0.3394
39790SOL    HW231096   5.821   1.591   2.365  0.3396  1.0145  0.2646
39791SOL     OW31097   7.651  11.250   6.217 -0.4955 -0.3225  0.1308
39791SOL    HW131098   7.661  11.172   6.163 -0.9173  0.0375 -0.4880
39791SOL    HW231099   7.678  11.322   6.160  1.1974 -0.1164  1.1247
39792SOL     OW31100  10.825   9.333   6.591 -0.0599 -0.2072 -0.0710
39792SOL    HW131101  10.824   9.407   6.652 -0.7208 -1.0679  1.0053
39792SOL    HW231102  10.900   9.350   6.534  0.7508  0.4998  1.1527
39793SOL     OW31103   5.502   3.577   8.892  0.5221 -0.0674 -1.1657
39793SOL    HW131104   5.586   3.618   8.874  0.3107  0.0118 -1.9683
39793SOL    HW231105   5.523   3.483   8.901  1.1144  0.2147  1.3500
39794SOL     OW31106  10.946   9.453   6.000  0.2160 -0.8145 -0.1431
39794SOL    HW131107  11.015   9.387   5.995  1.7016  0.7156 -1.9513
39794SOL    HW231108  10.948   9.495   5.914 -3.2489 -0.8904 -0.3923
39795SOL     OW31109   1.877   0.874   7.229  0.9118  0.0550 -0.5867
39795SOL    HW131110   1.945   0.909   7.171  1.1170  0.9537  0.1790
39795SOL    HW231111   1.804   0.934   7.219  0.9649  0.2438  0.1128
39796SOL     OW31112   0.884   9.366  10.655  0.0569 -0.4204 -0.4753
39796SOL    HW131113   0.954   9.310  10.621  0.0644 -0.2240 -0.7895
39796SOL    HW231114   0.818   9.305  10.688  0.4788 -0.6076  0.0430
39797SOL     OW31115   1.394   1.375   3.552  0.4693 -0.5061 -0.4957
39797SOL    HW131116   1.479   1.331   3.544  0.6057 -0.3335 -0.0127
39797SOL    HW231117   1.333   1.305   3.576  0.8380 -0.3208  1.1182
39798SOL     OW31118   0.699   6.455  12.287  0.2116 -0.0293  1.0175
39798SOL    HW131119   0.626   6.515  12.273  1.2246  1.1752  0.7536
39798SOL    HW231120   0.669   6.372  12.251 -0.1209  1.0712 -1.4068
39799SOL     OW31121   6.984  13.016  12.506  0.2467  0.0066 -0.1431
39799SOL    HW131122   6.935  13.080  12.454  0.8872  1.3711  0.8922
39799SOL    HW231123   6.976  13.047  12.596  0.3576 -1.5372  0.4251
39800SOL     OW31124   1.727  13.049   8.931  0.5790 -0.3190 -0.2221
39800SOL    HW131125   1.733  12.976   8.992  0.1891  1.3285  1.9107
39800SOL    HW231126   1.798  13.034   8.868 -1.1747 -3.9319 -1.6235
39801SOL     OW31127   7.700   2.190   7.184 -0.1673 -0.3399  0.1115
39801SOL    HW131128   7.640   2.125   7.220 -0.7550 -0.3730 -0.8975
39801SOL    HW231129   7.701   2.172   7.090  0.9246  0.0783  0.0287
39802SOL     OW31130   9.362   8.220   9.942 -0.0355 -0.1544 -0.3489
39802SOL    HW131131   9.344   8.151  10.005  1.3719 -0.6323 -0.4421
39802SOL    HW231132   9.455   8.237   9.950 -0.1588  0.9878 -1.0913
39803SOL     OW31133   2.168   3.852  12.034  0.3233  0.1503 -0.4884
39803SOL    HW131134   2.163   3.932  12.087  1.4127  0.4983 -0.8931
39803SOL    HW231135   2.077   3.832  12.012  0.0016  0.9801  0.0576
39804SOL     OW31136   5.955   5.434   0.282 -0.4062  0.6182  0.2783
39804SOL    HW131137   5.866   5.437   0.316 -0.5527  1.5073 -0.1554
39804SOL    HW231138   5.955   5.497   0.210  0.6202  0.7569  0.3909
39805SOL     OW31139   3.442   0.427  12.606  0.0204  0.3096  0.1891
39805SOL    HW131140   3.512   0.362  12.616 -0.9143 -0.5908  0.9589
39805SOL    HW231141   3.456   0.489  12.677  0.2586  0.3581  0.1024
39806SOL     OW31142  12.167   8.791   4.347  0.8115 -0.2374 -0.2297
39806SOL    HW131143  12.184   8.733   4.272 -1.4205  0.3936 -1.3149
39806SOL    HW231144  12.192   8.739   4.423  0.7784 -1.8692 -1.2740
39807SOL     OW31145   3.814   6.932  13.014 -0.0765  0.4072  0.0817
39807SOL    HW131146   3.753   6.879  12.963  0.0173  0.4229 -0.0453
39807SOL    HW231147   3.769   6.945  13.098  0.4199 -0.9418  0.5934
39808SOL     OW31148   3.217  10.475   3.036 -0.0088  0.7839  0.5494
39808SOL    HW131149   3.307  10.503   3.054  0.1169  0.8600 -0.1820
39808SOL    HW231150   3.192  10.524   2.957  0.9935 -2.7201 -2.1819
39809SOL     OW31151  12.468   8.011   8.056 -0.2255 -0.3765 -0.0001
39809SOL    HW131152  12.389   8.021   8.003 -1.1303  0.3007  1.4317
39809SOL    HW231153  12.532   8.069   8.015 -1.4113  1.3853  0.5682
39810SOL     OW31154  10.659   7.001  11.309 -0.0103 -0.3298 -0.3208
39810SOL    HW131155  10.677   6.994  11.403 -0.3270  0.0221 -0.2321
39810SOL    HW231156  10.734   6.960  11.267 -0.2726 -1.2835  0.1102
39811SOL     OW31157   5.642   1.748   3.821  0.0064 -0.2745 -0.2943
39811SOL    HW131158   5.611   1.738   3.911 -2.3016 -1.0706 -1.1146
39811SOL    HW231159   5.693   1.668   3.805  1.3791  0.3753  0.6011
39812SOL     OW31160   9.039   7.412   2.448 -0.4253 -0.1049 -0.1163
39812SOL    HW131161   9.087   7.362   2.513 -1.7253  0.0261  0.9730
39812SOL    HW231162   8.948   7.386   2.459 -0.7658  0.4411 -1.4231
39813SOL     OW31163  11.029   6.894   1.722  0.1899 -0.2972 -0.0186
39813SOL    HW131164  11.082   6.814   1.724  1.2081  0.3586  2.2511
39813SOL    HW231165  10.977   6.890   1.803 -0.1576  1.0786 -0.1543
39814SOL     OW31166  12.584   6.878   1.424 -0.0879  0.2378  0.2629
39814SOL    HW131167  12.667   6.898   1.466  2.1491  1.0705 -3.9910
39814SOL    HW231168  12.588   6.783   1.407  0.0600  0.3063 -0.0823
39815SOL     OW31169   5.009   2.767   0.519  0.6247  0.2094  0.0837
39815SOL    HW131170   5.066   2.837   0.550  0.6255  0.0634  0.4207
39815SOL    HW231171   4.968   2.732   0.599 -1.3438  1.5071 -0.2872
39816SOL     OW31172  12.133   0.008   4.386 -0.0398 -0.1423  0.7264
39816SOL    HW131173  12.132  -0.085   4.365  0.2515  0.0092  0.0008
39816SOL    HW231174  12.042   0.031   4.403 -0.3302 -0.2271 -0.6349
39817SOL     OW31175   0.576   2.716  11.702  0.2608 -0.1334 -0.0233
39817SOL    HW131176   0.663   2.754  11.693  0.1376 -0.1474 -1.5665
39817SOL    HW231177   0.516   2.788  11.680 -0.0155 -0.7439 -1.4205
39818SOL     OW31178   4.994   2.939   6.705 -0.8389 -0.0392  0.1114
39818SOL    HW131179   4.912   2.987   6.704 -0.1414  1.2078  0.4863
39818SOL    HW231180   4.987   2.879   6.779 -1.7476 -0.5822 -0.4047
39819SOL     OW31181   5.246   0.679   6.232 -0.0787 -0.6034  0.1689
39819SOL    HW131182   5.170   0.737   6.229  0.1862 -0.2721 -1.6154
39819SOL    HW231183   5.218   0.605   6.285 -1.3676 -0.1249  0.1903
39820SOL     OW31184   7.463  13.617   1.937  0.1010  0.1511 -0.5543
39820SOL    HW131185   7.503  13.697   1.970  0.8575 -0.3877 -0.1300
39820SOL    HW231186   7.373  13.620   1.969  0.2583  0.6162 -0.1558
39821SOL     OW31187   8.482  10.750   0.086  0.3034 -0.1703  0.5735
39821SOL    HW131188   8.534  10.791   0.016  0.3733 -0.7393  0.2860
39821SOL    HW231189   8.505  10.657   0.081 -0.9882 -0.4868  0.2285
39822SOL     OW31190   3.972  10.977   2.314 -0.2168 -0.3962  0.0643
39822SOL    HW131191   3.993  10.892   2.353  0.1484 -0.1710  0.3666
39822SOL    HW231192   3.876  10.979   2.312 -0.2292 -1.1640 -0.7234
39823SOL     OW31193  11.817   1.007   7.449 -0.6659 -0.0436 -0.2325
39823SOL    HW131194  11.778   1.058   7.378 -1.2635  0.3336  0.3568
39823SOL    HW231195  11.908   1.038   7.453 -1.5341  2.6278  1.5348
39824SOL     OW31196   2.876  10.522   9.673  0.2378  0.2718 -0.1676
39824SOL    HW131197   2.866  10.608   9.715  1.6589  0.2378  0.3004
39824SOL    HW231198   2.958  10.529   9.624  2.5490 -1.9596  2.9691
39825SOL     OW31199  12.542   0.890  12.445  0.4771  0.0516 -0.1826
39825SOL    HW131200  12.508   0.846  12.523 -2.4703  1.0663 -0.7630
39825SOL    HW231201  12.578   0.820  12.391 -2.5056 -1.5466 -0.3040
39826SOL     OW31202   9.236   1.046   3.643  0.2177  0.0713  0.0176
39826SOL    HW131203   9.270   1.071   3.557  1.8058  0.2243  0.6552
39826SOL    HW231204   9.151   1.006   3.624  0.3777  0.3948 -1.5847
39827SOL     OW31205  11.344   2.662   1.059 -0.4896  0.1645  0.3416
39827SOL    HW131206  11.341   2.573   1.023  0.2767 -0.1566  1.0390
39827SOL    HW231207  11.396   2.653   1.139  0.9255  1.5229 -0.3928
39828SOL     OW31208   0.689  11.650   8.560 -0.7056 -0.2289  0.3329
39828SOL    HW131209   0.710  11.668   8.651 -0.7317 -1.4469  0.5971
39828SOL    HW231210   0.653  11.732   8.527  1.5784  0.9979  0.7006
39829SOL     OW31211  10.047   1.873  12.211  0.2690 -0.3351 -0.1198
39829SOL    HW131212  10.138   1.870  12.182  0.4172 -1.4147  0.4091
39829SOL    HW231213  10.038   1.957  12.255 -0.1103  1.7172 -3.6769
39830SOL     OW31214   7.980  13.202   2.955 -0.3393  0.0297  0.6368
39830SOL    HW131215   8.064  13.247   2.961 -0.5810  0.5860  0.0178
39830SOL    HW231216   8.000  13.118   2.914 -0.0819  0.1621  0.4880
39831SOL     OW31217   3.645   0.367  11.109  0.4542 -0.1176 -0.1339
39831SOL    HW131218   3.565   0.414  11.132  0.4613  0.8502 -1.9448
39831SOL    HW231219   3.713   0.409  11.161  0.2142  0.9316 -0.6358
39832SOL     OW31220   5.648   3.061   4.337  0.3558 -0.5405  0.3062
39832SOL    HW131221   5.609   2.974   4.335  1.3147 -0.9694 -0.8584
39832SOL    HW231222   5.578   3.119   4.367 -0.0952 -1.8001  1.8107
39833SOL     OW31223   6.015  12.035  12.939 -0.4306  0.1106 -0.0053
39833SOL    HW131224   5.961  12.096  12.888  0.6493 -0.0159 -1.3489
39833SOL    HW231225   6.064  11.986  12.873  1.8907  0.7337  1.1695
39834SOL     OW31226  12.458  11.094   5.361 -0.6017  0.2180 -0.2329
39834SOL    HW131227  12.403  11.047   5.299  0.8725  0.4300 -1.7731
39834SOL    HW231228  12.425  11.184   5.358  0.4193  0.5706 -1.9255
39835SOL     OW31229   0.155   2.010  10.106  0.7418 -0.0908 -0.2806
39835SOL    HW131230   0.090   1.996  10.037  0.4932 -0.5780  0.0429
39835SOL    HW231231   0.175   2.104  10.102 -2.5311  0.8553  1.8210
39836SOL     OW31232   8.838   0.854   7.269 -0.1363  0.3859 -0.3789
39836SOL    HW131233   8.772   0.814   7.212  1.3293 -0.6342 -1.4215
39836SOL    HW231234   8.842   0.795   7.345 -1.7811  1.5127  0.6389
39837SOL     OW31235   8.881  13.101   3.782 -0.5149  0.1480 -0.1575
39837SOL    HW131236   8.973  13.122   3.769 -0.8080  2.0263  0.3874
39837SOL    HW231237   8.858  13.043   3.710  0.2237  2.5347 -2.4759
39838SOL     OW31238  12.392  10.194   9.736  0.2738 -0.6645 -0.0892
39838SOL    HW131239  12.477  10.237   9.723  0.5390 -1.4062 -0.9284
39838SOL    HW231240  12.399  10.154   9.823  0.3565  0.2221  0.3174
39839SOL     OW31241   7.199  13.739  11.003 -0.3758  0.3887  0.3359
39839SOL    HW131242   7.256  13.710  11.075 -0.1111 -2.8709 -1.0099
39839SOL    HW231243   7.116  13.694  11.018 -1.2085  1.7222 -0.0513
39840SOL     OW31244   7.032   3.231   0.649 -0.1204 -0.0078 -0.3258
39840SOL    HW131245   6.958   3.290   0.665  1.3504  1.4654  1.3934
39840SOL    HW231246   7.091   3.280   0.592  0.6281 -0.2395  0.2357
39841SOL     OW31247  10.519   4.077  12.290  0.3539  0.1935 -0.4310
39841SOL    HW131248  10.605   4.111  12.265  0.6021  0.1366  0.3174
39841SOL    HW231249  10.516   4.085  12.386 -0.2444 -0.3342 -0.3907
39842SOL     OW31250   5.045   9.735   6.360 -0.0166 -0.1441  0.0238
39842SOL    HW131251   4.969   9.744   6.303 -1.1255 -1.5806  1.2027
39842SOL    HW231252   5.114   9.702   6.304  0.0047  1.8388 -1.2252
39843SOL     OW31253  12.945   4.903   2.816  0.2817 -0.1918  0.5153
39843SOL    HW131254  12.915   4.967   2.752  0.4413  0.4953  1.1175
39843SOL    HW231255  12.866   4.856   2.841 -0.0155  0.4500  0.8084
39844SOL     OW31256   9.082   8.378  11.316  0.1704  0.2160  0.2423
39844SOL    HW131257   9.147   8.371  11.245  0.3350 -1.2478  0.5163
39844SOL    HW231258   9.056   8.470  11.315  1.1623  0.5091 -0.8448
39845SOL     OW31259  13.715   5.582   0.292  1.0430 -0.8687  0.0239
39845SOL    HW131260  13.716   5.661   0.346 -2.2940  0.3569 -1.4152
39845SOL    HW231261  13.687   5.513   0.352 -1.1364  0.1730  0.3057
39846SOL     OW31262  13.111   0.175   8.646  0.2835  0.3071 -0.6224
39846SOL    HW131263  13.095   0.085   8.619  0.0983  0.3448 -0.6397
39846SOL    HW231264  13.082   0.228   8.571 -1.4020  0.4798  0.1200
39847SOL     OW31265   8.943   3.364   2.734  0.2005  0.2629  0.4154
39847SOL    HW131266   8.929   3.269   2.732  0.5870  0.1553  1.7223
39847SOL    HW231267   8.944   3.386   2.827 -0.0752  1.5895  0.1230
39848SOL     OW31268  11.753   4.195   9.302 -0.3141  0.1483  0.4611
39848SOL    HW131269  11.837   4.189   9.257  0.1293  3.2149  0.6812
39848SOL    HW231270  11.688   4.189   9.232  0.1836  0.4180 -0.0318
39849SOL     OW31271   9.562   4.554   7.094 -0.0231 -0.4981 -0.6413
39849SOL    HW131272   9.612   4.526   7.018  0.4596  1.0397 -0.9287
39849SOL    HW231273   9.488   4.494   7.098  1.7161 -2.7469 -0.2975
39850SOL     OW31274  11.183   9.475   5.747  0.2316 -0.4511 -0.3251
39850SOL    HW131275  11.156   9.518   5.666 -0.6690  0.6838  0.5312
39850SOL    HW231276  11.104   9.431   5.779  0.7710 -1.5264 -0.4385
39851SOL     OW31277   4.548   6.663   6.190 -0.3129  0.4303 -0.5466
39851SOL    HW131278   4.472   6.634   6.141 -1.6794  1.2061  1.0171
39851SOL    HW231279   4.517   6.736   6.243  1.5662  0.8795  0.0315
39852SOL     OW31280   9.066   1.972  11.659  0.3211  0.0690  0.0105
39852SOL    HW131281   9.158   1.983  11.638  0.4215  0.5079  0.6507
39852SOL    HW231282   9.065   1.949  11.752 -0.3285  2.6518  0.7233
39853SOL     OW31283   7.671   0.757   8.073  0.4575 -0.4299  0.0790
39853SOL    HW131284   7.605   0.688   8.082  0.6799 -0.5940  0.5363
39853SOL    HW231285   7.715   0.737   7.991 -0.7519  0.3006 -0.7708
39854SOL     OW31286   1.928   6.375   4.088  0.1275 -0.2180 -0.1970
39854SOL    HW131287   1.906   6.372   3.995  0.3689  2.3642 -0.4095
39854SOL    HW231288   1.883   6.452   4.121  1.0364 -0.3838  1.5544
39855SOL     OW31289  11.659  10.486   3.834  0.1834 -0.5992  0.1039
39855SOL    HW131290  11.699  10.529   3.910 -0.1252 -0.1601  0.0256
39855SOL    HW231291  11.565  10.482   3.855 -0.1740  1.1118 -0.9698
39856SOL     OW31292   1.564   5.221   7.318 -0.4490  0.1729 -0.3152
39856SOL    HW131293   1.620   5.289   7.282  1.7399 -0.9138  0.8632
39856SOL    HW231294   1.485   5.269   7.347 -0.2583  1.7138 -2.1591
39857SOL     OW31295   6.756   1.483  11.576 -0.3095 -0.1973 -0.3275
39857SOL    HW131296   6.823   1.550  11.559  0.0099  0.1067  1.8791
39857SOL    HW231297   6.698   1.524  11.640 -0.7310 -1.6620  0.2477
39858SOL     OW31298   4.823  10.903   0.692  0.1693  0.2057 -0.0095
39858SOL    HW131299   4.774  10.876   0.614 -0.4651  1.3350 -0.0260
39858SOL    HW231300   4.798  10.994   0.705  0.4261  0.0930  1.3994
39859SOL     OW31301  11.852   7.151   9.819 -0.8113  0.3897  0.0407
39859SOL    HW131302  11.871   7.195   9.736  0.2238 -0.1979 -0.0417
39859SOL    HW231303  11.861   7.220   9.885 -1.9564  0.9411 -0.3311
39860SOL     OW31304   1.254   1.616   8.481  0.2934  0.1573  0.1215
39860SOL    HW131305   1.265   1.652   8.393  0.8953 -0.7937 -0.2068
39860SOL    HW231306   1.160   1.601   8.489  0.4737 -3.0148 -1.7632
39861SOL     OW31307   5.002   4.192   7.774  0.0964  0.0928 -0.2657
39861SOL    HW131308   4.927   4.139   7.749  0.2310 -0.2479  0.0321
39861SOL    HW231309   5.074   4.129   7.781  0.5239  0.4757 -1.0025
39862SOL     OW31310   2.665   1.286   1.143 -1.1388  0.3280 -0.5730
39862SOL    HW131311   2.680   1.212   1.202 -0.7232  0.5336 -0.4156
39862SOL    HW231312   2.738   1.346   1.161  0.2139 -0.5281 -2.7363
39863SOL     OW31313  13.134   9.353  11.378  0.3386 -0.2921 -0.0842
39863SOL    HW131314  13.115   9.427  11.320  0.8316 -0.0396  0.0669
39863SOL    HW231315  13.083   9.281  11.342 -0.9798  0.3811  0.3794
39864SOL     OW31316  10.909  12.586   0.504  0.2863 -0.2852 -0.2100
39864SOL    HW131317  10.841  12.613   0.566 -1.5538 -0.0136 -2.2092
39864SOL    HW231318  10.904  12.490   0.504 -0.8459 -0.2467 -1.0695
39865SOL     OW31319   2.938  12.639   3.004 -1.0437  0.5728 -0.6475
39865SOL    HW131320   2.879  12.664   2.933 -0.9186 -0.3380 -1.0785
39865SOL    HW231321   2.956  12.722   3.050  0.5270  1.5820 -2.9086
39866SOL     OW31322   4.153  13.556   9.914 -0.2734  0.1504  0.0901
39866SOL    HW131323   4.175  13.490   9.849  2.9826  1.6523 -0.5467
39866SOL    HW231324   4.144  13.638   9.865  2.1867  1.3117  1.3597
39867SOL     OW31325  10.724  13.531   5.265 -0.2855  0.6149 -0.3509
39867SOL    HW131326  10.688  13.593   5.202  0.8291  1.2363 -0.3895
39867SOL    HW231327  10.752  13.456   5.213  1.3481  1.4464 -0.7299
39868SOL     OW31328  10.447  11.953   6.841  0.4838 -0.5804 -0.3392
39868SOL    HW131329  10.373  12.009   6.865  1.0982  0.3633 -0.6081
39868SOL    HW231330  10.523  11.996   6.880  1.4016  0.4979 -3.1217
39869SOL     OW31331   0.798   7.777  13.008  0.0421 -0.0981  0.1032
39869SOL    HW131332   0.840   7.698  13.043 -1.6242 -2.2568 -2.4061
39869SOL    HW231333   0.808   7.769  12.913  0.2521  3.0329 -0.2111
39870SOL     OW31334   1.770  12.680   3.738  0.2235 -0.5212 -0.0760
39870SOL    HW131335   1.751  12.587   3.754 -0.0361 -0.8628 -2.0487
39870SOL    HW231336   1.753  12.723   3.822  0.5146 -2.2681  0.9321
39871SOL     OW31337   7.292   3.158  13.070 -0.1008  1.1508 -0.2361
39871SOL    HW131338   7.330   3.159  13.158 -1.6388  2.2571  0.4527
39871SOL    HW231339   7.226   3.227  13.071 -1.0295  0.3433 -1.8772
39872SOL     OW31340  11.738   7.106   6.083 -0.0306  0.0062 -0.2383
39872SOL    HW131341  11.650   7.084   6.111  0.2953  0.0854  0.8767
39872SOL    HW231342  11.793   7.093   6.160  0.8973  0.2117 -0.8367
39873SOL     OW31343   3.861  11.531   3.360  0.1263  0.0914 -0.1963
39873SOL    HW131344   3.915  11.465   3.316 -0.0544 -0.1872 -0.0019
39873SOL    HW231345   3.775  11.524   3.317  0.1152  0.2217 -0.1964
39874SOL     OW31346   6.168   9.649   3.748  0.1845  0.0235 -0.2905
39874SOL    HW131347   6.115   9.577   3.784 -1.0559  1.3256  0.6189
39874SOL    HW231348   6.193   9.620   3.661 -0.3510 -1.4671  0.0252
39875SOL     OW31349  10.899   4.635  10.507  0.4123  0.1898  0.1952
39875SOL    HW131350  10.885   4.541  10.492 -0.6286  0.3101  0.3105
39875SOL    HW231351  10.820   4.676  10.471  0.3836  0.9320  1.0920
39876SOL     OW31352   2.210  11.603   9.477 -0.3536  0.5710  0.3540
39876SOL    HW131353   2.179  11.563   9.558  1.0481  0.1402  0.6920
39876SOL    HW231354   2.239  11.690   9.503 -3.0226  1.7774 -0.3107
39877SOL     OW31355   7.449  12.544   1.360 -0.4190  0.2781 -0.2568
39877SOL    HW131356   7.373  12.599   1.339  1.1250  3.5681  1.9720
39877SOL    HW231357   7.426  12.500   1.442 -0.4530  0.0900 -0.3658
39878SOL     OW31358  11.164  10.711   4.416 -0.2724  0.1296  0.0725
39878SOL    HW131359  11.126  10.700   4.328 -2.1028 -0.0754  0.8463
39878SOL    HW231360  11.257  10.728   4.400 -0.5742  0.1450 -1.9053
39879SOL     OW31361  13.419  11.193  10.608  0.3878  0.5794  0.3388
39879SOL    HW131362  13.454  11.122  10.554 -2.1868  0.5223 -1.3962
39879SOL    HW231363  13.475  11.268  10.588  1.1332 -0.1243 -0.3073
39880SOL     OW31364   0.139  10.681   8.283 -0.2227  0.5384  0.6132
39880SOL    HW131365   0.093  10.611   8.330 -0.3166  1.1354  1.4457
39880SOL    HW231366   0.077  10.710   8.216 -0.5719  0.4925  0.9154
39881SOL     OW31367  12.785   8.012   3.087 -0.2510  0.0834  0.1656
39881SOL    HW131368  12.811   8.012   3.179 -0.9043  1.4120  0.3831
39881SOL    HW231369  12.837   8.081   3.047  1.9833 -2.1940 -1.1223
39882SOL     OW31370   0.155   4.998  12.853  0.0773  0.5715  0.0074
39882SOL    HW131371   0.172   5.087  12.883  2.7394 -0.4132  1.7560
39882SOL    HW231372   0.178   4.999  12.760  1.3023  1.4405  0.2947
39883SOL     OW31373   9.541   0.118  11.439  0.6374 -0.3202  0.7263
39883SOL    HW131374   9.626   0.149  11.411  0.5662 -1.3585 -0.7439
39883SOL    HW231375   9.559   0.061  11.514  1.1034  0.4335  1.1888
39884SOL     OW31376  13.417   5.683   5.818  0.1853 -0.3316  0.2594
39884SOL    HW131377  13.398   5.593   5.791  0.0352 -0.4897  0.8939
39884SOL    HW231378  13.488   5.711   5.759 -0.5907 -0.4364 -0.7609
39885SOL     OW31379   1.650   2.389   6.409  0.2408  0.6470  0.7223
39885SOL    HW131380   1.727   2.422   6.361 -0.1222  1.9960  1.0163
39885SOL    HW231381   1.576   2.414   6.353  0.0302 -1.5974 -0.0991
39886SOL     OW31382   3.483   9.083   2.712 -0.1889 -0.4843 -0.5048
39886SOL    HW131383   3.446   9.094   2.799 -0.2235 -1.1621 -0.4250
39886SOL    HW231384   3.543   9.009   2.721  0.7525  0.2287 -0.7671
39887SOL     OW31385   5.753   4.912  11.711  0.1767  0.2153  0.2013
39887SOL    HW131386   5.732   4.828  11.750 -0.4590 -0.2457 -1.0806
39887SOL    HW231387   5.816   4.952  11.771  1.0047 -1.4556  0.4866
39888SOL     OW31388   1.964  12.300  13.619 -0.7125  0.0793  0.4184
39888SOL    HW131389   1.897  12.247  13.661 -0.9129 -0.4027 -0.4793
39888SOL    HW231390   1.977  12.375  13.677 -1.1338 -0.4580  1.2085
39889SOL     OW31391   3.985   1.867  12.044 -0.6030 -0.5828 -0.6444
39889SOL    HW131392   4.020   1.950  12.012 -2.1541  0.4374  0.1616
39889SOL    HW231393   3.920   1.842  11.978 -1.4720 -0.1645  0.0381
39890SOL     OW31394   8.591  13.574   2.791  0.3220  0.1009 -0.0985
39890SOL    HW131395   8.601  13.602   2.882  0.6779 -0.7250  0.1247
39890SOL    HW231396   8.664  13.616   2.745 -0.1437  0.9196 -0.1101
39891SOL     OW31397   0.995   3.030  11.898 -0.2625 -0.1507  0.5220
39891SOL    HW131398   0.972   3.042  11.990  1.2749 -0.5144  0.9832
39891SOL    HW231399   1.058   2.958  11.898 -0.1945 -0.1194 -0.8162
39892SOL     OW31400   1.665   2.883  13.052  0.0647 -0.1479  0.0950
39892SOL    HW131401   1.758   2.867  13.064 -0.1679 -1.3282  0.5153
39892SOL    HW231402   1.633   2.903  13.140 -0.1554 -0.1909  0.0244
39893SOL     OW31403  13.324  11.452   8.150 -0.3822  0.4512 -0.2274
39893SOL    HW131404  13.245  11.494   8.185 -0.6279 -0.4604  0.3341
39893SOL    HW231405  13.394  11.479   8.210 -0.5144  0.1675  0.0550
39894SOL     OW31406   2.083   2.215   0.890  0.7166  0.0584 -0.4352
39894SOL    HW131407   2.096   2.237   0.982 -2.6293 -0.5962  0.3463
39894SOL    HW231408   2.029   2.287   0.855  0.9266 -0.3028 -1.5670
39895SOL     OW31409   6.241   6.056   6.702 -0.3692 -0.2966  0.2060
39895SOL    HW131410   6.263   6.048   6.609 -1.2245 -0.4582  0.0121
39895SOL    HW231411   6.304   6.000   6.747  1.6468  1.6080 -0.0326
39896SOL     OW31412   4.941   2.138   0.256  0.6994  0.4904  0.1654
39896SOL    HW131413   4.972   2.048   0.244 -1.1364 -0.1445 -0.0491
39896SOL    HW231414   4.941   2.151   0.350  1.2785  0.3931  0.1835
39897SOL     OW31415   5.998   2.719   9.405 -0.1591 -0.1638  0.2018
39897SOL    HW131416   6.030   2.783   9.469 -0.9185  1.6217 -1.1163
39897SOL    HW231417   5.915   2.689   9.442  0.2550 -0.5033  0.8868
39898SOL     OW31418  10.407   1.267   5.842  0.5770  0.2292 -0.3891
39898SOL    HW131419  10.454   1.307   5.915  0.6944  1.1879 -0.9656
39898SOL    HW231420  10.343   1.333   5.815 -1.3415 -1.1679  0.5572
39899SOL     OW31421   3.591  10.228   8.376  0.3062  0.2696  0.4349
39899SOL    HW131422   3.573  10.321   8.368 -1.8521 -0.1777 -0.7016
39899SOL    HW231423   3.631  10.204   8.292 -0.7910 -0.1221  0.0036
39900SOL     OW31424   5.372  10.648   6.093  0.3472  0.6660  0.3592
39900SOL    HW131425   5.289  10.675   6.133  0.9467  2.9338  0.2180
39900SOL    HW231426   5.437  10.707   6.131  1.8587 -0.8039  0.1653
39901SOL     OW31427   4.567   1.107   6.288  0.0233  0.4717 -0.2236
39901SOL    HW131428   4.579   1.132   6.197  1.3866  1.4593  0.1945
39901SOL    HW231429   4.525   1.184   6.328 -0.9259 -0.1057 -0.0881
39902SOL     OW31430   2.467  11.498  12.723 -0.5692 -0.2240 -0.0500
39902SOL    HW131431   2.483  11.432  12.791 -1.5833 -1.6525 -1.1251
39902SOL    HW231432   2.465  11.581  12.770  0.2235 -1.0045  1.4368
39903SOL     OW31433   2.524  10.249  13.627 -0.1165 -0.4545  0.6564
39903SOL    HW131434   2.568  10.320  13.674  1.0206 -1.1061  0.6020
39903SOL    HW231435   2.465  10.294  13.566  1.5996  0.4986 -0.3819
39904SOL     OW31436   5.759  10.673  10.624  0.2089  0.7305 -0.0178
39904SOL    HW131437   5.729  10.599  10.572  1.1690 -0.2240  0.7517
39904SOL    HW231438   5.714  10.749  10.586 -1.2591 -0.3122 -0.4201
39905SOL     OW31439   0.030   6.245  11.079 -0.1050  0.6525 -0.0720
39905SOL    HW131440   0.021   6.297  11.159  0.0508 -1.0848  1.1489
39905SOL    HW231441   0.121   6.256  11.054  0.9865 -1.7508  2.2835
39906SOL     OW31442   1.015  13.242   3.496  0.3807 -0.3203 -0.4787
39906SOL    HW131443   1.110  13.229   3.506  0.3474  0.1155  0.4956
39906SOL    HW231444   0.983  13.158   3.461  1.1030 -0.5148 -0.6942
39907SOL     OW31445   5.893   3.898   0.382 -0.0930  0.1808  0.1889
39907SOL    HW131446   5.971   3.848   0.408 -0.5376 -0.7982 -0.3069
39907SOL    HW231447   5.908   3.986   0.418  0.1556 -0.6141  2.1595
39908SOL     OW31448   2.148   3.384  12.700 -1.0137 -0.2115  0.2266
39908SOL    HW131449   2.188   3.346  12.622 -1.0947  0.5831 -0.2136
39908SOL    HW231450   2.162   3.319  12.769 -0.2503 -0.5733 -0.2633
39909SOL     OW31451  11.706   3.924   7.625 -0.4052 -0.2063  0.0472
39909SOL    HW131452  11.723   3.856   7.690 -0.9913 -1.0070 -0.6175
39909SOL    HW231453  11.663   3.994   7.674  0.8230  0.0070  0.8799
39910SOL     OW31454  12.130   0.838   3.086  0.1137 -0.2195  0.4577
39910SOL    HW131455  12.225   0.835   3.094  0.0244 -1.2540  1.3787
39910SOL    HW231456  12.105   0.920   3.130  0.6308  0.5378 -0.6267
39911SOL     OW31457   5.359  12.118   4.205 -0.0149 -0.3736  0.2933
39911SOL    HW131458   5.376  12.024   4.216 -0.9616 -0.7018 -0.7919
39911SOL    HW231459   5.391  12.158   4.286 -1.5312 -1.8844  1.7136
39912SOL     OW31460   8.246  10.284   5.014 -0.0272 -0.1393  0.1708
39912SOL    HW131461   8.258  10.192   4.993  0.0639 -0.0516 -0.1628
39912SOL    HW231462   8.205  10.284   5.101 -1.0339 -0.5212 -0.2827
39913SOL     OW31463   2.502  11.188  10.646 -0.3707 -0.1373 -0.5018
39913SOL    HW131464   2.433  11.153  10.703 -0.4239  0.7361 -0.0148
39913SOL    HW231465   2.465  11.269  10.612  0.7877  0.8732  0.5538
39914SOL     OW31466  11.238   2.740   7.377 -0.3250  0.2017  0.2310
39914SOL    HW131467  11.193   2.684   7.313  0.8132 -0.2257 -0.2099
39914SOL    HW231468  11.173   2.754   7.446 -0.3380 -2.5662  0.9179
39915SOL     OW31469   5.812   2.775  11.915 -0.0077  0.5690 -0.0091
39915SOL    HW131470   5.838   2.707  11.977  1.2497  0.1145 -0.9922
39915SOL    HW231471   5.723   2.751  11.889 -0.9579  1.3065  2.2841
39916SOL     OW31472   7.918   0.142   2.025 -0.2757 -0.2620 -0.2437
39916SOL    HW131473   7.909   0.180   2.112 -1.7562 -1.0894 -0.0108
39916SOL    HW231474   7.904   0.215   1.965 -0.9710 -0.0175  0.2107
39917SOL     OW31475   2.148  12.977  13.332 -0.0590  0.0014  0.6321
39917SOL    HW131476   2.084  12.998  13.264  0.6644  2.2659  0.5748
39917SOL    HW231477   2.183  12.892  13.306  0.9369  1.2231 -2.4691
39918SOL     OW31478   2.220   8.520   5.059  0.3223 -0.6176  0.2304
39918SOL    HW131479   2.162   8.468   5.114 -0.5224  0.3813  0.3214
39918SOL    HW231480   2.299   8.467   5.051 -1.3943 -3.1188 -1.8006
39919SOL     OW31481   1.185   4.186   4.394 -0.3425  0.1795 -0.1891
39919SOL    HW131482   1.156   4.096   4.384 -0.9038  0.1258  1.5925
39919SOL    HW231483   1.113   4.230   4.440  1.3404  0.6263  2.1872
39920SOL     OW31484   8.327  12.098  11.726  0.2800  0.5173  0.7383
39920SOL    HW131485   8.274  12.164  11.681 -0.4993 -0.4071  0.2693
39920SOL    HW231486   8.417  12.120  11.704  0.0414  1.5105  0.7131
39921SOL     OW31487  13.194   8.273   9.543 -0.1507  0.0407  0.9484
39921SOL    HW131488  13.106   8.309   9.548  0.6912  2.0941  2.7218
39921SOL    HW231489  13.251   8.350   9.531  1.6018 -0.8583  2.8290
39922SOL     OW31490  13.659   8.328   5.098  0.0766  0.4236 -0.0220
39922SOL    HW131491  13.566   8.331   5.121 -0.0440 -1.1216 -0.2331
39922SOL    HW231492  13.695   8.256   5.149  1.0535  0.6470 -0.3578
39923SOL     OW31493   5.019   8.025   7.625 -0.1574 -0.1549 -0.3848
39923SOL    HW131494   5.030   8.115   7.596 -0.5289  0.0096 -0.0308
39923SOL    HW231495   4.924   8.013   7.630 -0.1115 -0.5772 -0.4603
39924SOL     OW31496   7.266   6.279  11.365  0.1936 -0.5199  0.4824
39924SOL    HW131497   7.327   6.232  11.309 -0.3940  2.1126 -2.7214
39924SOL    HW231498   7.184   6.279  11.316 -0.0250  3.0551  0.5701
39925SOL     OW31499  10.817   0.167   8.476 -1.2476 -0.3711  0.1176
39925SOL    HW131500  10.769   0.116   8.541 -0.4895 -1.4213 -0.1239
39925SOL    HW231501  10.830   0.106   8.403  0.0679  0.0170  0.0068
39926SOL     OW31502  12.523   7.927  11.769  0.0159  0.1475  0.5685
39926SOL    HW131503  12.569   7.976  11.700  1.3349 -0.0850  1.2506
39926SOL    HW231504  12.540   7.835  11.748  0.6048  0.0763  1.2910
39927SOL     OW31505   8.897   4.081   9.281 -0.0024 -0.5321 -0.8086
39927SOL    HW131506   8.962   4.061   9.213  0.0217 -1.3092 -0.5665
39927SOL    HW231507   8.835   4.139   9.237  0.8388  0.2154 -1.0471
39928SOL     OW31508  11.858   4.078  12.245 -0.0900 -0.2331  0.3223
39928SOL    HW131509  11.791   4.076  12.314  0.7169  1.1587  1.1938
39928SOL    HW231510  11.894   4.166  12.250  1.0151 -0.5917 -0.9215
39929SOL     OW31511  12.600  13.394  10.281 -0.5886 -0.3216 -0.4036
39929SOL    HW131512  12.637  13.401  10.369 -1.4264 -2.0568  0.1345
39929SOL    HW231513  12.573  13.302  10.273 -0.9144 -0.1110 -2.3265
39930SOL     OW31514   7.879  12.217  12.599  0.4123 -0.5372 -0.1345
39930SOL    HW131515   7.900  12.304  12.634 -1.0488 -1.0490  2.3248
39930SOL    HW231516   7.818  12.234  12.528 -1.8862  0.4995  1.9253
39931SOL     OW31517   2.801   9.088   0.093 -0.3196 -0.1219 -0.0752
39931SOL    HW131518   2.738   9.154   0.063 -0.0456  0.1791  0.0009
39931SOL    HW231519   2.747   9.016   0.125 -0.6284 -0.5130 -1.4097
39932SOL     OW31520   3.460   8.354   2.675 -0.2590 -0.4051  0.0902
39932SOL    HW131521   3.406   8.387   2.747  0.0386 -0.8797  0.5397
39932SOL    HW231522   3.451   8.419   2.606  0.2280  0.5523  0.9028
39933SOL     OW31523   1.923  12.532   0.250 -0.0741  0.0402  0.0812
39933SOL    HW131524   1.987  12.495   0.311 -1.5189 -0.3840  1.3946
39933SOL    HW231525   1.845  12.478   0.262 -0.9136  0.9759 -0.9899
39934SOL     OW31526  13.670  10.446   1.211  0.0040  0.3525 -0.1061
39934SOL    HW131527  13.701  10.404   1.291 -2.2172 -1.0746  0.0988
39934SOL    HW231528  13.590  10.491   1.237 -0.1011  0.8661 -1.2805
39935SOL     OW31529   7.564   0.664   3.801  0.2913  0.4132  0.0290
39935SOL    HW131530   7.521   0.750   3.804 -0.4797  0.0621 -0.6058
39935SOL    HW231531   7.501   0.607   3.758  1.0176 -0.3517 -0.0526
39936SOL     OW31532  13.369   1.549   7.113 -0.1462  0.1189  0.5774
39936SOL    HW131533  13.398   1.477   7.058 -0.7674  0.9087 -0.8423
39936SOL    HW231534  13.412   1.626   7.076 -0.2999  0.6252  1.4278
39937SOL     OW31535  12.801   7.059   7.757 -0.2509  0.1344  0.5382
39937SOL    HW131536  12.814   7.148   7.790  1.7697  0.8287 -1.8215
39937SOL    HW231537  12.878   7.011   7.789  0.2089  0.0594 -0.6437
39938SOL     OW31538   7.345   3.904   0.775  0.4124 -0.5299 -0.5294
39938SOL    HW131539   7.363   3.864   0.860  0.9952 -0.0932 -0.4425
39938SOL    HW231540   7.322   3.995   0.796 -1.2386 -0.8785 -0.6965
39939SOL     OW31541   7.413  13.152   9.733 -0.1271 -0.5824  0.2746
39939SOL    HW131542   7.365  13.234   9.719  0.7734 -0.1423 -0.3085
39939SOL    HW231543   7.355  13.099   9.788 -0.8435  0.3285  0.4111
39940SOL     OW31544  10.576   5.520   6.139 -0.0841  0.1734  0.0750
39940SOL    HW131545  10.571   5.456   6.210  0.7051 -0.3290 -0.3099
39940SOL    HW231546  10.495   5.507   6.090 -0.6296  0.5162  0.8707
39941SOL     OW31547   1.458   0.530  11.788 -0.1984 -0.1300 -0.4559
39941SOL    HW131548   1.445   0.447  11.743  1.4867 -0.5099 -0.3156
39941SOL    HW231549   1.475   0.506  11.879  0.0779  0.3763 -0.3672
39942SOL     OW31550   7.784   3.805   2.115  0.6479 -0.0906  0.2062
39942SOL    HW131551   7.803   3.829   2.024 -2.0171 -0.6543 -0.5977
39942SOL    HW231552   7.697   3.842   2.131  0.4872 -1.1718  2.0710
39943SOL     OW31553   6.992   1.740   2.940  0.0727  0.2924 -0.4816
39943SOL    HW131554   6.912   1.788   2.919 -0.3994 -0.2036  0.1162
39943SOL    HW231555   7.019   1.700   2.858  0.7140  1.8849 -1.0945
39944SOL     OW31556  11.662   2.145   9.336  0.0995  0.1765  0.2589
39944SOL    HW131557  11.718   2.106   9.403 -0.3793 -4.5192 -1.6851
39944SOL    HW231558  11.721   2.201   9.285  2.1782 -1.6232  0.5307
39945SOL     OW31559   0.591   8.566   6.009 -0.0002 -0.0352 -0.1052
39945SOL    HW131560   0.590   8.626   5.935 -0.6141 -0.9661 -0.8832
39945SOL    HW231561   0.670   8.514   5.996 -0.3958 -0.5696 -0.4346
39946SOL     OW31562   7.924  11.021  13.389  0.6739  0.0571  0.2285
39946SOL    HW131563   7.985  11.078  13.343 -0.8934  2.3392  0.8308
39946SOL    HW231564   7.840  11.066  13.385 -0.4762 -1.7929  1.5368
39947SOL     OW31565   0.621   2.318   2.656 -0.1707  0.0145  0.2400
39947SOL    HW131566   0.655   2.304   2.744  0.6676  1.3085  0.1536
39947SOL    HW231567   0.526   2.310   2.665  0.0294 -2.6305  0.6959
39948SOL     OW31568  11.447   3.013   6.856 -0.2467 -0.0456 -0.1118
39948SOL    HW131569  11.429   2.964   6.936  2.8707 -1.7824 -0.2873
39948SOL    HW231570  11.420   3.103   6.875  0.4049 -0.3906  2.9190
39949SOL     OW31571  13.319   7.165  12.866  0.1730 -0.3093 -0.4345
39949SOL    HW131572  13.238   7.167  12.918  0.6972  1.5678  0.3865
39949SOL    HW231573  13.289   7.177  12.776 -0.5632 -1.3399 -0.3542
39950SOL     OW31574   5.658  12.145   9.257  0.5666 -0.1488  0.2232
39950SOL    HW131575   5.602  12.112   9.327 -0.0623 -0.0394 -0.2243
39950SOL    HW231576   5.597  12.180   9.192  1.1601  0.1404 -0.1834
39951SOL     OW31577   8.756   0.166   4.703 -0.0973 -0.2132  0.7087
39951SOL    HW131578   8.668   0.128   4.700  0.0912 -0.6220  0.0919
39951SOL    HW231579   8.804   0.112   4.765  0.4926 -1.7369 -0.9952
39952SOL     OW31580  12.016   9.138  11.490  0.0392  0.2484  0.3731
39952SOL    HW131581  11.985   9.207  11.549  2.5173  1.2835  0.5694
39952SOL    HW231582  12.106   9.121  11.518 -0.3788 -2.9775  0.1827
39953SOL     OW31583  10.488  11.902   5.509  0.0506  0.3785 -0.3955
39953SOL    HW131584  10.555  11.970   5.507 -0.1346  0.6133  0.6567
39953SOL    HW231585  10.435  11.923   5.586 -0.2020 -0.7723 -0.2420
39954SOL     OW31586   7.455   9.669   5.107 -0.1109  0.2314  0.3360
39954SOL    HW131587   7.379   9.620   5.139 -0.9463  1.9363  1.0957
39954SOL    HW231588   7.530   9.628   5.151 -0.4710 -1.8300 -0.8451
39955SOL     OW31589  11.461   6.481  11.430 -0.7239  0.1506 -0.5149
39955SOL    HW131590  11.388   6.456  11.486 -0.0915 -0.2234  0.1604
39955SOL    HW231591  11.485   6.401  11.384  0.3892 -0.1790  0.5922
39956SOL     OW31592  10.540   2.449   3.509 -0.2519  0.2956 -0.0523
39956SOL    HW131593  10.627   2.481   3.534  0.4471 -2.1191  0.9069
39956SOL    HW231594  10.489   2.457   3.589  0.0357 -1.2071  0.3060
39957SOL     OW31595   7.195  10.915   9.807 -0.3156  0.4557  0.4212
39957SOL    HW131596   7.178  10.846   9.742  1.6659 -0.4517  0.7822
39957SOL    HW231597   7.135  10.896   9.879 -2.6622  1.5616 -1.1070
39958SOL     OW31598   6.529   8.663  12.394  0.0006  0.0451  0.1280
39958SOL    HW131599   6.616   8.653  12.431  0.1546 -0.4596 -0.3528
39958SOL    HW231600   6.509   8.756  12.401 -0.1590 -0.1020  1.8748
39959SOL     OW31601   7.070  11.681   3.540  0.0965  0.1220 -0.2720
39959SOL    HW131602   7.077  11.589   3.516  0.0337 -0.6047  2.2175
39959SOL    HW231603   6.978  11.703   3.525  0.1918 -0.0950 -1.2143
39960SOL     OW31604   1.218   1.256  10.670 -0.4048 -0.1230 -0.3512
39960SOL    HW131605   1.191   1.325  10.730  0.4202 -0.6642  0.6675
39960SOL    HW231606   1.293   1.293  10.623  0.8020 -0.7187  1.0461
39961SOL     OW31607   2.361   5.721   0.316  0.3900  0.1555  0.3619
39961SOL    HW131608   2.456   5.729   0.326  0.2246  0.1179  2.3445
39961SOL    HW231609   2.350   5.678   0.231  2.1029  0.6456 -0.1658
39962SOL     OW31610   0.129   1.814   2.478  0.1248 -0.9177  0.2799
39962SOL    HW131611   0.085   1.788   2.396  0.1057 -2.0852  0.6468
39962SOL    HW231612   0.088   1.898   2.500 -1.3787 -1.5795  0.1850
39963SOL     OW31613   0.098  10.847   9.034  0.0852  0.1288 -0.0719
39963SOL    HW131614   0.100  10.870   8.942  0.0466  1.8548  0.3279
39963SOL    HW231615   0.189  10.826   9.056 -0.0206 -0.9990 -0.6491
39964SOL     OW31616   9.628   8.413   8.595 -0.0046 -0.6807 -0.4242
39964SOL    HW131617   9.684   8.448   8.663 -1.0345  1.7127 -0.6983
39964SOL    HW231618   9.687   8.367   8.536  1.6933  1.4659 -0.5350
39965SOL     OW31619   8.433   7.757   7.968  0.2356 -0.1974  0.8928
39965SOL    HW131620   8.396   7.695   7.906 -0.1691  0.4984  0.4233
39965SOL    HW231621   8.358   7.808   7.999  0.1669 -1.6137  3.2337
39966SOL     OW31622  10.191   1.671  10.338  0.1656  0.3686 -0.2998
39966SOL    HW131623  10.280   1.692  10.366 -0.0019 -0.7940  1.2669
39966SOL    HW231624  10.203   1.607  10.267  0.6088 -0.8669  0.8421
39967SOL     OW31625   4.023   9.933   4.788  0.0034  0.2675 -0.7292
39967SOL    HW131626   3.934   9.899   4.788 -0.4449  1.1572  2.2977
39967SOL    HW231627   4.077   9.860   4.818 -0.0723  0.4245 -0.2026
39968SOL     OW31628   0.589   1.894   1.716 -0.5259  0.1442 -0.6925
39968SOL    HW131629   0.535   1.816   1.707 -0.0905 -0.0390 -2.0019
39968SOL    HW231630   0.661   1.867   1.773 -0.1410 -0.5752 -1.4865
39969SOL     OW31631   3.242   6.809  11.628 -0.1298 -0.2825  1.0602
39969SOL    HW131632   3.234   6.739  11.563 -2.6962  2.2374 -1.6436
39969SOL    HW231633   3.184   6.783  11.700 -0.8877 -1.0420  0.1844
39970SOL     OW31634   8.719   2.655  11.390  0.0952 -0.3099 -0.2402
39970SOL    HW131635   8.813   2.653  11.411 -0.0680  0.7038  0.6711
39970SOL    HW231636   8.677   2.620  11.469 -0.4689  2.5526  0.8550
39971SOL     OW31637   6.476   5.676  10.702  0.4815  0.1807  0.0122
39971SOL    HW131638   6.498   5.597  10.652  0.1378  0.8955 -1.3001
39971SOL    HW231639   6.386   5.696  10.677  0.7715  1.3403 -0.1574
39972SOL     OW31640   2.906   0.271  13.512  0.1714 -0.0101  0.3897
39972SOL    HW131641   2.831   0.211  13.514 -0.8174  1.1131 -0.7640
39972SOL    HW231642   2.870   0.353  13.479  1.9163  0.5810 -0.1639
39973SOL     OW31643   0.583  10.777   9.796  0.4580  0.0479  0.2244
39973SOL    HW131644   0.585  10.826   9.878 -1.8403  1.1680 -0.3363
39973SOL    HW231645   0.505  10.807   9.751 -0.3568 -3.1389 -0.7844
39974SOL     OW31646   7.722   8.171   0.424  0.2115  0.0489 -0.4414
39974SOL    HW131647   7.726   8.076   0.437 -0.8340 -0.1718 -1.5411
39974SOL    HW231648   7.811   8.196   0.402  0.8462 -0.4087  1.4270
39975SOL     OW31649   0.406   9.241   5.291  0.1519  0.5291 -0.3747
39975SOL    HW131650   0.364   9.155   5.294  0.4922  0.3513 -0.6956
39975SOL    HW231651   0.344   9.299   5.335 -0.4500  0.2776 -0.8754
39976SOL     OW31652   1.122   8.305   6.763  0.4850  0.5153  0.1713
39976SOL    HW131653   1.078   8.389   6.777  0.2407  0.2923  0.8029
39976SOL    HW231654   1.148   8.306   6.671 -0.4765  0.8263 -0.1059
39977SOL     OW31655  11.658   4.766   6.387  0.9547 -0.0638  0.5592
39977SOL    HW131656  11.717   4.693   6.367  1.3672  0.8398 -1.8859
39977SOL    HW231657  11.713   4.844   6.377 -0.7088  0.8853 -2.8619
39978SOL     OW31658   5.179   7.035  12.480 -0.1299 -0.5379  0.0283
39978SOL    HW131659   5.268   7.028  12.514 -0.0054  0.2025 -0.1214
39978SOL    HW231660   5.155   6.945  12.457  0.2857 -0.8517  0.7841
39979SOL     OW31661   0.243   8.728  10.703 -0.5404  0.2940  0.2295
39979SOL    HW131662   0.182   8.745  10.775 -1.4826 -0.6717 -0.3111
39979SOL    HW231663   0.188   8.695  10.632  0.3440  1.3853 -1.0138
39980SOL     OW31664  10.082   6.983   3.285  0.0533  0.8059  0.5262
39980SOL    HW131665  10.136   6.938   3.350 -0.4003 -0.8875 -0.2009
39980SOL    HW231666  10.062   6.915   3.220 -1.4093  1.8527 -0.1716
39981SOL     OW31667   5.533   4.444  12.949  0.3303 -0.5572 -0.1480
39981SOL    HW131668   5.508   4.464  12.859 -0.2083 -2.2398 -0.4071
39981SOL    HW231669   5.454   4.407  12.989  0.4697  0.4276  1.1275
39982SOL     OW31670   8.026   9.190  12.894 -0.0158 -0.0987  0.4219
39982SOL    HW131671   8.051   9.106  12.856  0.8797 -0.0907  0.9708
39982SOL    HW231672   7.984   9.167  12.976  1.3061  0.0238  1.1511
39983SOL     OW31673  13.707   1.622   6.883 -0.2085 -0.2167 -0.1940
39983SOL    HW131674  13.747   1.659   6.804  1.0874  1.1097  1.0270
39983SOL    HW231675  13.732   1.530   6.882  2.6140  0.4570  0.2832
39984SOL     OW31676   6.177  13.728   8.617 -0.1982  0.2327  0.1894
39984SOL    HW131677   6.139  13.790   8.679 -3.3122 -1.2681 -0.0255
39984SOL    HW231678   6.142  13.753   8.532 -1.4847 -1.6665  0.0866
39985SOL     OW31679   4.137   5.834   6.779  0.0823  0.5612 -0.4380
39985SOL    HW131680   4.118   5.877   6.695  1.9892 -0.6188 -1.5501
39985SOL    HW231681   4.230   5.852   6.794 -0.1915  0.6142  1.3784
39986SOL     OW31682   8.682  11.999   1.568  0.3321  0.0442  0.3353
39986SOL    HW131683   8.670  11.965   1.656  0.2815  0.3730  0.4553
39986SOL    HW231684   8.705  12.091   1.580 -1.1872  0.5017 -0.0302
39987SOL     OW31685   1.534   7.375   5.103 -0.2423 -0.1833  0.8467
39987SOL    HW131686   1.483   7.326   5.167 -0.8963  1.2197  1.4460
39987SOL    HW231687   1.615   7.398   5.149 -0.5613  0.5233  1.0701
39988SOL     OW31688   2.359   1.310   4.821  0.3467 -0.6919  0.0647
39988SOL    HW131689   2.360   1.239   4.885 -1.0528  1.1577  2.3044
39988SOL    HW231690   2.369   1.389   4.873  0.1640  0.8759 -2.1425
39989SOL     OW31691   9.474  12.172   3.516 -0.0344  0.1273  0.6311
39989SOL    HW131692   9.402  12.232   3.496 -1.7266 -1.6702  1.0327
39989SOL    HW231693   9.444  12.087   3.484  2.0466 -0.6503  0.5871
39990SOL     OW31694  11.572   5.923  10.749 -0.3996  0.0871  0.1422
39990SOL    HW131695  11.562   5.981  10.674  2.8090 -0.0007 -0.5047
39990SOL    HW231696  11.663   5.936  10.778 -0.5219 -2.2755  1.9610
39991SOL     OW31697   3.457   6.589   0.705  0.5140  0.3448  0.1459
39991SOL    HW131698   3.535   6.644   0.702  1.2135 -0.6646 -0.8276
39991SOL    HW231699   3.385   6.649   0.681  1.2351  0.8718 -0.7597
39992SOL     OW31700  13.589  11.174   5.423  0.1765 -0.2207 -0.0340
39992SOL    HW131701  13.528  11.186   5.496  1.1852  3.1576  0.4661
39992SOL    HW231702  13.570  11.087   5.389 -2.6494 -0.5895  2.1217
39993SOL     OW31703   2.729   9.829  10.121  0.1299  0.0499  0.4973
39993SOL    HW131704   2.774   9.885  10.184 -0.2008  0.5652  0.2787
39993SOL    HW231705   2.649   9.876  10.100  1.1062  0.8254 -1.7581
39994SOL     OW31706   9.038   9.871   2.201  0.2094 -0.2011 -0.5101
39994SOL    HW131707   8.982   9.940   2.165 -1.3960 -1.0755  0.2189
39994SOL    HW231708   8.989   9.837   2.276  1.7572 -0.9767  0.1963
39995SOL     OW31709   5.418  11.862   4.178  0.6229  0.0860  0.6021
39995SOL    HW131710   5.410  11.804   4.254  1.3077 -0.0811  0.5482
39995SOL    HW231711   5.346  11.835   4.120  0.3816 -0.0974  0.9796
39996SOL     OW31712   4.673   2.711   6.302 -0.1526 -0.3443  0.5568
39996SOL    HW131713   4.718   2.634   6.336 -0.0490 -1.5926 -2.1633
39996SOL    HW231714   4.668   2.697   6.208 -0.4229  2.8547 -0.0286
39997SOL     OW31715   9.066   7.074   2.605 -0.3389  0.0662 -0.0283
39997SOL    HW131716   9.083   7.022   2.526  0.8576  1.9728 -1.0937
39997SOL    HW231717   8.975   7.055   2.627 -0.5028 -0.9787 -1.4985
39998SOL     OW31718  11.420   7.220  12.976 -0.3880  0.2104 -0.4331
39998SOL    HW131719  11.375   7.145  12.936 -2.5947  1.7567 -1.0477
39998SOL    HW231720  11.414   7.204  13.070 -1.4232 -0.0820 -0.5387
39999SOL     OW31721   5.531   9.599   8.287  0.2710 -0.0972  0.2008
39999SOL    HW131722   5.619   9.610   8.325  0.7529 -0.1605 -0.8690
39999SOL    HW231723   5.547   9.567   8.199 -0.7506  1.6693 -0.6765
40000SOL     OW31724   3.898   3.305  11.252 -0.5535  0.3031 -0.2484
40000SOL    HW131725   3.952   3.229  11.275 -0.0709  0.5424 -0.5650
40000SOL    HW231726   3.829   3.269  11.196 -0.2951  0.1057 -0.4417
40001SOL     OW31727   3.376   9.550   6.369 -0.4601 -0.2357 -0.7482
40001SOL    HW131728   3.376   9.593   6.284  0.3151  0.1334 -0.5745
40001SOL    HW231729   3.295   9.499   6.371 -1.9500  1.9856 -0.5788
40002SOL     OW31730   6.119  11.285  12.089 -0.5239 -0.0998  0.3015
40002SOL    HW131731   6.202  11.316  12.125 -0.9657  0.3168  0.9965
40002SOL    HW231732   6.143  11.224  12.020  0.3598  0.7265 -0.1323
40003SOL     OW31733  12.751   7.025  12.575 -0.1031  0.8204  0.1506
40003SOL    HW131734  12.659   7.052  12.577 -0.2234  0.5269  2.7996
40003SOL    HW231735  12.794   7.083  12.638  1.5546  0.9320 -1.0303
40004SOL     OW31736   4.989   9.478  12.622 -0.2912 -0.3740  0.1085
40004SOL    HW131737   4.961   9.427  12.546  0.6298 -0.2898 -0.3032
40004SOL    HW231738   5.077   9.509  12.599 -0.5571  0.8268  0.6359
40005SOL     OW31739   6.833   9.568   2.378  0.3846  0.4909  0.3176
40005SOL    HW131740   6.798   9.547   2.464 -1.6512 -1.7301 -0.9213
40005SOL    HW231741   6.779   9.641   2.347  0.5884  0.7539  0.5700
40006SOL     OW31742  12.874   6.320   8.108  0.0359  0.2875 -0.3032
40006SOL    HW131743  12.801   6.306   8.167 -0.8024  0.7544 -1.1984
40006SOL    HW231744  12.858   6.261   8.034  1.2296 -0.5150  0.0423
40007SOL     OW31745   3.956   5.100  11.834 -0.2996  0.0913 -0.3314
40007SOL    HW131746   3.923   5.186  11.809 -0.0930 -0.1708 -1.5659
40007SOL    HW231747   3.997   5.114  11.919 -1.8060  0.8361  0.3027
40008SOL     OW31748   8.656   6.018  12.109  0.4721 -0.8751 -0.2337
40008SOL    HW131749   8.625   6.100  12.071  1.7977 -0.6316 -0.8398
40008SOL    HW231750   8.576   5.974  12.140 -0.1663  1.1611  1.2109
40009SOL     OW31751   7.840   4.623  12.884  0.8354  0.6116  0.3314
40009SOL    HW131752   7.835   4.574  12.802 -0.4588  0.1428  0.6631
40009SOL    HW231753   7.766   4.591  12.936 -0.2852  3.1228  0.4188
40010SOL     OW31754   2.756   0.223  11.848  0.0010  0.7770 -0.0526
40010SOL    HW131755   2.719   0.246  11.763 -1.0234 -1.2570 -0.2180
40010SOL    HW231756   2.812   0.147  11.830 -0.3884  0.1977  1.1045
40011SOL     OW31757   1.607   8.431   6.828 -0.1977  0.3494 -0.0139
40011SOL    HW131758   1.552   8.383   6.767 -1.6121  1.1939  0.5537
40011SOL    HW231759   1.665   8.365   6.866  0.2387 -0.3024 -1.7226
40012SOL     OW31760   9.356   1.368   2.179  0.1784 -0.0054  0.2362
40012SOL    HW131761   9.410   1.325   2.112 -0.2406  0.2100 -0.2466
40012SOL    HW231762   9.361   1.461   2.156 -1.2653 -0.0827 -0.4596
40013SOL     OW31763   1.824   8.393   9.792 -0.0956 -0.2857  0.4596
40013SOL    HW131764   1.861   8.334   9.727 -0.2594  1.0620 -0.9111
40013SOL    HW231765   1.832   8.346   9.875  1.5542 -1.4058 -0.2977
40014SOL     OW31766   5.429   3.988   6.474  0.0291  0.6398  0.3256
40014SOL    HW131767   5.343   3.947   6.477  0.1196  0.3514 -0.5687
40014SOL    HW231768   5.482   3.937   6.535  0.1647 -0.6670 -0.8233
40015SOL     OW31769   0.555  12.089   7.326 -0.1056 -0.4426 -0.0860
40015SOL    HW131770   0.622  12.032   7.288  0.2280 -1.5141  1.9596
40015SOL    HW231771   0.503  12.118   7.251  1.1381 -1.5716 -1.4519
40016SOL     OW31772   3.133   7.538   7.090 -0.8421  0.3741  0.4102
40016SOL    HW131773   3.083   7.593   7.031 -0.0322  1.1339  0.3999
40016SOL    HW231774   3.072   7.516   7.161 -1.6595 -0.1119 -0.4238
40017SOL     OW31775   7.727  13.143   2.865 -0.2810 -0.2040  0.4724
40017SOL    HW131776   7.810  13.178   2.898 -0.0557 -0.7639  0.5165
40017SOL    HW231777   7.733  13.153   2.770 -1.5443  2.7847  0.6027
40018SOL     OW31778  11.478  10.862   3.521 -0.2446 -0.1755 -0.1092
40018SOL    HW131779  11.385  10.857   3.496 -0.1968 -0.6157 -0.2062
40018SOL    HW231780  11.477  10.887   3.613 -0.4319  1.1737 -0.4581
40019SOL     OW31781  13.018   9.058  12.866  0.1935 -0.3731 -0.5381
40019SOL    HW131782  12.965   9.133  12.838 -0.2997 -0.1390  0.9507
40019SOL    HW231783  13.099   9.066  12.816  0.4934  1.6420  0.1910
40020SOL     OW31784   7.073   2.516   4.854 -0.0195 -0.1154  0.3569
40020SOL    HW131785   7.146   2.482   4.803 -0.1123  0.6334 -0.3041
40020SOL    HW231786   7.090   2.610   4.860 -0.3414 -0.1043  1.1748
40021SOL     OW31787   4.424  12.568   0.501  0.1095  0.0070 -0.1175
40021SOL    HW131788   4.336  12.531   0.507 -0.2109  0.2299 -2.4233
40021SOL    HW231789   4.482  12.493   0.493 -0.0672 -0.1058 -0.3485
40022SOL     OW31790  11.777   4.545   5.401 -0.3945  1.1933 -0.4429
40022SOL    HW131791  11.693   4.501   5.386  0.8916 -0.7221 -2.6456
40022SOL    HW231792  11.793   4.594   5.320  1.2089  0.4626 -0.5989
40023SOL     OW31793   7.078  10.296   2.214 -0.1067  0.3328 -0.0439
40023SOL    HW131794   7.161  10.339   2.236  0.2396 -0.6387  0.6393
40023SOL    HW231795   7.084  10.280   2.120 -0.1595  1.5627 -0.2782
40024SOL     OW31796   3.889   7.780   6.426  0.2945  0.5565  0.6756
40024SOL    HW131797   3.854   7.746   6.509 -1.2800  2.6244  0.9527
40024SOL    HW231798   3.833   7.740   6.360 -0.6617  1.4873  0.8962
40025SOL     OW31799   7.529   8.053  11.066 -0.2730  0.5637 -0.2394
40025SOL    HW131800   7.496   7.987  11.127 -0.9522  1.1577  0.0506
40025SOL    HW231801   7.532   8.134  11.117  2.5256  0.3966  0.0157
40026SOL     OW31802   7.178   6.737  12.735 -0.0000  0.3448  0.7413
40026SOL    HW131803   7.133   6.728  12.651  1.0811 -0.3228  0.2094
40026SOL    HW231804   7.112   6.712  12.800 -0.2341 -1.3241 -0.0634
40027SOL     OW31805  10.627   8.064  12.538 -0.3250  0.0051  0.3461
40027SOL    HW131806  10.675   7.982  12.540 -0.4163 -0.0816 -0.5263
40027SOL    HW231807  10.678   8.120  12.478 -0.4427  0.4686  0.6706
40028SOL     OW31808   8.324  13.203   1.617  0.1959 -0.8920 -0.0446
40028SOL    HW131809   8.380  13.271   1.581 -1.0375  0.6814  0.8701
40028SOL    HW231810   8.354  13.193   1.707  0.9155 -2.2060 -0.4051
40029SOL     OW31811   0.472   4.290  12.085 -0.3317  0.1790  0.4670
40029SOL    HW131812   0.417   4.260  12.013  0.8322 -1.4741  0.2129
40029SOL    HW231813   0.471   4.218  12.148 -0.4783  1.1698  1.6323
40030SOL     OW31814   6.300   8.418   7.632  0.2675  0.0129 -0.2295
40030SOL    HW131815   6.358   8.387   7.701 -0.1938 -0.1421  0.0932
40030SOL    HW231816   6.316   8.513   7.628 -0.5758  0.2247  0.9353
40031SOL     OW31817  11.244  12.933   2.225  0.2875  0.5910 -0.2786
40031SOL    HW131818  11.159  12.927   2.269  0.8811  1.6863  1.0852
40031SOL    HW231819  11.226  12.984   2.145 -0.5573 -0.2993 -0.6831
40032SOL     OW31820   0.663   7.352  10.401  0.0422  0.6593 -0.0768
40032SOL    HW131821   0.577   7.390  10.418  0.1468  0.6466  0.5006
40032SOL    HW231822   0.709   7.357  10.485  0.6179  0.6948 -0.3862
40033SOL     OW31823   9.266   6.353   8.821 -0.3084 -0.0805  0.1951
40033SOL    HW131824   9.281   6.447   8.830  0.8137 -0.1703 -0.4815
40033SOL    HW231825   9.259   6.320   8.910 -0.6287  0.6352  0.4360
40034SOL     OW31826   8.462   8.139  11.205 -0.3225  0.2421  0.4273
40034SOL    HW131827   8.456   8.125  11.111  0.6426  1.4900  0.1586
40034SOL    HW231828   8.439   8.232  11.217  1.2241  0.5569  1.2111
40035SOL     OW31829   0.915  12.150   7.898  0.3225  0.5795  0.0762
40035SOL    HW131830   0.897  12.165   7.991  0.1584  1.7373 -0.1175
40035SOL    HW231831   0.839  12.187   7.853 -1.4591 -3.3142 -0.4487
40036SOL     OW31832  12.819  12.033  10.905  0.4067  0.4421  0.3413
40036SOL    HW131833  12.883  11.970  10.873  0.1795  0.6708 -0.5977
40036SOL    HW231834  12.801  12.005  10.995  1.4344  0.0790  0.4515
40037SOL     OW31835   9.712   5.241   1.325  0.2249  0.2850 -1.0621
40037SOL    HW131836   9.743   5.162   1.281 -1.6400 -0.2233 -1.5638
40037SOL    HW231837   9.761   5.243   1.408 -0.3120 -1.9294 -0.6089
40038SOL     OW31838   4.479  11.009   3.861 -0.4127  0.3536  0.2850
40038SOL    HW131839   4.422  10.942   3.823  0.8089 -0.7228  0.2884
40038SOL    HW231840   4.518  10.968   3.937  0.9724  0.7828 -0.1633
40039SOL     OW31841  13.119  11.946   1.378  0.0706 -0.5707 -0.1842
40039SOL    HW131842  13.101  12.035   1.410 -2.4067 -0.3041 -1.9915
40039SOL    HW231843  13.167  11.958   1.296  0.3335 -0.9236 -0.0846
40040SOL     OW31844   3.035  11.091   0.327 -0.3852  0.1139  0.5328
40040SOL    HW131845   2.978  11.165   0.346 -1.3301  0.0498 -1.7771
40040SOL    HW231846   3.113  11.131   0.288 -0.8760 -0.0626 -0.6710
40041SOL     OW31847   1.405  12.988   0.885 -0.2205  0.1336 -0.5739
40041SOL    HW131848   1.429  13.077   0.912 -1.5457  0.7680 -1.3389
40041SOL    HW231849   1.336  12.963   0.946  0.3781 -0.5113 -0.1572
40042SOL     OW31850   5.505  13.277   0.027  0.1501 -0.5594  0.0915
40042SOL    HW131851   5.475  13.212   0.091  1.4007 -0.2780  0.9973
40042SOL    HW231852   5.589  13.308   0.061 -0.3110  1.3903 -0.4224
40043SOL     OW31853   8.205   0.504  12.782 -0.1206 -0.1576 -0.0142
40043SOL    HW131854   8.262   0.504  12.706 -0.2900 -0.4807 -0.1414
40043SOL    HW231855   8.118   0.485  12.747 -0.2735  0.1164  0.2057
40044SOL     OW31856   4.634   3.698  10.392 -0.2213 -0.3919 -0.1058
40044SOL    HW131857   4.691   3.745  10.330 -0.0503 -1.2840 -0.6413
40044SOL    HW231858   4.547   3.734  10.375  0.0783  0.6014  0.3482
40045SOL     OW31859   3.155   4.330   7.467 -0.2584 -0.8192  0.9720
40045SOL    HW131860   3.201   4.406   7.502  0.2891  0.2344 -1.8290
40045SOL    HW231861   3.064   4.341   7.497 -0.1509  0.8446  0.7636
40046SOL     OW31862  11.471   9.768   4.373 -0.6648 -0.1417  0.3469
40046SOL    HW131863  11.499   9.698   4.432  0.1552 -1.2024 -1.2261
40046SOL    HW231864  11.518   9.845   4.404 -2.5086  0.0866  2.8619
40047SOL     OW31865   7.082   4.851  12.895  0.1613  0.4147  0.0716
40047SOL    HW131866   7.144   4.808  12.837  0.8993 -0.0917  1.2190
40047SOL    HW231867   7.132   4.873  12.973 -0.6696  1.6225  0.2981
40048SOL     OW31868   8.985  12.562   9.586  0.2320  0.0607 -0.4285
40048SOL    HW131869   8.977  12.510   9.666  2.5096 -0.4776 -0.4838
40048SOL    HW231870   8.926  12.519   9.524  0.2573 -1.0077  0.2535
40049SOL     OW31871   2.275   4.706   0.143  0.2061  0.6364  0.1219
40049SOL    HW131872   2.188   4.729   0.109  0.1123 -0.6265 -0.5387
40049SOL    HW231873   2.264   4.708   0.238 -0.5764  0.3699  0.0427
40050SOL     OW31874   9.956   5.627   7.279 -0.1336  0.0217  0.3517
40050SOL    HW131875  10.012   5.566   7.328  0.0933 -0.2855 -0.2821
40050SOL    HW231876   9.874   5.580   7.268 -0.1447  0.0461  0.3299
40051SOL     OW31877   1.085   7.324  10.880 -0.2873 -0.5045  0.1029
40051SOL    HW131878   1.006   7.325  10.826 -0.4846  0.0836  0.3980
40051SOL    HW231879   1.053   7.321  10.970  0.0176  0.0374  0.2360
40052SOL     OW31880   4.201   7.654   8.073 -0.0425  0.3523  0.0677
40052SOL    HW131881   4.228   7.675   8.162  0.7674 -1.4160  0.2900
40052SOL    HW231882   4.274   7.604   8.037 -1.1186 -0.5835 -0.9204
40053SOL     OW31883   3.898   3.555   5.080 -0.3309  0.0591  0.3931
40053SOL    HW131884   3.971   3.606   5.117 -0.3077  0.3733 -0.0740
40053SOL    HW231885   3.821   3.589   5.125 -0.4048  1.0328 -0.4300
40054SOL     OW31886   3.207   7.580   3.441 -0.2096 -0.4258  0.0903
40054SOL    HW131887   3.285   7.620   3.404  2.2322 -1.6971  3.3501
40054SOL    HW231888   3.170   7.646   3.500 -0.8266 -0.3063 -0.4159
40055SOL     OW31889   6.040  12.136   7.348 -0.9548 -0.3654 -0.6973
40055SOL    HW131890   6.110  12.080   7.316 -0.1911  0.5806 -0.7204
40055SOL    HW231891   5.987  12.079   7.404 -0.4083 -1.1920 -1.0065
40056SOL     OW31892   5.337   7.137   6.321 -0.1863 -0.3105  0.1292
40056SOL    HW131893   5.417   7.159   6.274 -0.7536 -1.1040 -1.2568
40056SOL    HW231894   5.347   7.044   6.343 -1.1891 -0.7095 -1.0421
40057SOL     OW31895   9.043   0.311   8.889 -0.2597  0.0576 -0.1157
40057SOL    HW131896   9.090   0.231   8.865 -0.4621 -0.2980  0.6506
40057SOL    HW231897   9.111   0.374   8.912 -0.1327 -0.2503  0.3591
40058SOL     OW31898   5.816   1.258   9.252 -0.1244 -0.2570 -0.3814
40058SOL    HW131899   5.854   1.171   9.247 -1.1742 -0.8423  1.2278
40058SOL    HW231900   5.873   1.305   9.314 -0.5595 -0.3556  0.0993
40059SOL     OW31901   1.331   5.014   6.740  0.3072  0.0341  0.0352
40059SOL    HW131902   1.378   5.017   6.823  0.3425 -0.4579  0.0367
40059SOL    HW231903   1.362   4.933   6.698  0.6913  0.5510 -0.6941
40060SOL     OW31904   6.633   4.713  13.063 -0.2237  0.1469  0.3281
40060SOL    HW131905   6.694   4.736  12.993 -1.5671  0.0584 -0.9168
40060SOL    HW231906   6.638   4.787  13.124  0.1485  0.7665 -0.4271
40061SOL     OW31907   2.344   2.798   1.189 -0.9383  0.6723  0.2011
40061SOL    HW131908   2.292   2.862   1.142 -0.3062  0.4898 -0.7564
40061SOL    HW231909   2.302   2.714   1.169 -1.1332  0.6718  0.6000
40062SOL     OW31910   9.224   3.116   2.668 -0.3064  0.3809  0.0164
40062SOL    HW131911   9.275   3.179   2.718 -0.4305 -1.3551  2.5342
40062SOL    HW231912   9.260   3.031   2.692 -3.4070 -0.8470  0.8726
40063SOL     OW31913  13.598  10.755  12.542  0.1925 -0.4254 -0.4900
40063SOL    HW131914  13.585  10.704  12.622 -0.6935  0.3124 -0.1448
40063SOL    HW231915  13.516  10.743  12.493  0.6552 -0.7296 -1.2215
40064SOL     OW31916   0.836   9.539   2.783  0.0004  0.4373 -0.3316
40064SOL    HW131917   0.889   9.614   2.811  1.8203 -0.2325 -1.8224
40064SOL    HW231918   0.874   9.464   2.828 -0.3196  0.0914 -0.6285
40065SOL     OW31919   0.824  11.687   0.796 -0.1038 -0.1243  0.0403
40065SOL    HW131920   0.798  11.624   0.729 -0.0572 -1.3456  1.1246
40065SOL    HW231921   0.759  11.676   0.865  0.8130 -0.1064  0.9251
40066SOL     OW31922  11.585   6.982   1.822  0.7891 -0.0575 -0.1609
40066SOL    HW131923  11.622   6.895   1.832  1.0834  0.0586 -0.2234
40066SOL    HW231924  11.547   7.002   1.908  2.9186  0.7557  0.6444
40067SOL     OW31925   2.102  10.864   9.511  0.5533 -0.2787  0.1947
40067SOL    HW131926   2.138  10.949   9.536 -0.3949  0.1884  0.0550
40067SOL    HW231927   2.014  10.864   9.549  0.1277 -0.7269 -0.7415
40068SOL     OW31928   9.013  13.249   1.287  0.1025  0.9869 -0.0845
40068SOL    HW131929   9.091  13.198   1.265 -0.2395  0.9468 -1.2527
40068SOL    HW231930   8.944  13.212   1.232 -0.7227  1.1193  0.8293
40069SOL     OW31931   6.399   0.991   2.850 -0.3919  0.4128 -0.2967
40069SOL    HW131932   6.433   0.927   2.913 -0.1072  0.2102 -0.6543
40069SOL    HW231933   6.305   0.997   2.871 -0.7658 -1.3086 -1.2725
40070SOL     OW31934   7.278   7.171   7.359 -0.8448 -0.1422  0.1981
40070SOL    HW131935   7.348   7.164   7.294 -0.6915  0.3890  0.3079
40070SOL    HW231936   7.244   7.260   7.348 -0.8985 -0.0934  0.7686
40071SOL     OW31937   6.021   6.180   8.246 -0.1793  0.4310  0.8637
40071SOL    HW131938   6.036   6.171   8.151 -3.6097  2.3201 -0.0449
40071SOL    HW231939   6.041   6.094   8.282  0.6515 -0.5422 -1.6807
40072SOL     OW31940  11.226   7.341   2.331  0.3186  0.1479  0.0811
40072SOL    HW131941  11.204   7.385   2.413  1.5404  1.4065 -0.2105
40072SOL    HW231942  11.283   7.404   2.286 -0.4341 -0.4620 -1.7918
40073SOL     OW31943   9.523   0.595   0.626  0.1797  0.0105  0.1217
40073SOL    HW131944   9.476   0.575   0.707  1.6422  2.1653  1.6030
40073SOL    HW231945   9.455   0.618   0.563 -0.9013 -0.2928  1.1554
40074SOL     OW31946  11.745   0.793   4.397 -0.0752 -0.0920 -0.1220
40074SOL    HW131947  11.741   0.747   4.313 -2.2813 -0.1871 -0.0198
40074SOL    HW231948  11.730   0.885   4.374  1.1712  0.1645  0.0077
40075SOL     OW31949   1.576   2.612   7.290 -0.3957  0.1081  0.6577
40075SOL    HW131950   1.583   2.539   7.228 -1.3830  0.7292 -0.2232
40075SOL    HW231951   1.528   2.576   7.365 -0.3318 -0.3097  0.4993
40076SOL     OW31952   9.206  10.091   3.956  0.1075  0.5882 -0.3938
40076SOL    HW131953   9.160  10.045   4.026  1.8275 -0.3264  0.1894
40076SOL    HW231954   9.278  10.136   4.000  0.4592  1.0458 -1.4115
40077SOL     OW31955   6.993   0.256   5.545 -0.0271 -0.0751 -0.3475
40077SOL    HW131956   7.048   0.216   5.613 -1.3264 -0.5926  0.4271
40077SOL    HW231957   6.926   0.305   5.593  0.2807  1.3475 -1.2806
40078SOL     OW31958   0.626   2.275   0.200  0.2403  0.0225 -0.1912
40078SOL    HW131959   0.534   2.285   0.222  0.1901  1.2551 -0.8246
40078SOL    HW231960   0.657   2.203   0.255 -0.8958  0.1221  0.6155
40079SOL     OW31961   0.369  13.664  11.132 -0.5153  0.0984  0.2673
40079SOL    HW131962   0.450  13.624  11.163 -0.0129 -0.4040 -1.5965
40079SOL    HW231963   0.344  13.725  11.202  0.4739 -1.0607  1.6793
40080SOL     OW31964   4.566   5.353   9.957 -0.0296 -0.2473  0.3849
40080SOL    HW131965   4.527   5.364  10.043 -1.8689 -0.7821 -0.3230
40080SOL    HW231966   4.658   5.377   9.968 -0.4818  0.8082  2.2158
40081SOL     OW31967  11.876  13.173  13.581  0.4507  0.5716 -0.3439
40081SOL    HW131968  11.934  13.100  13.603 -0.1559  0.6651  1.8436
40081SOL    HW231969  11.902  13.242  13.642  0.9630  2.1885 -2.3305
40082SOL     OW31970  11.630  12.092  10.552 -0.1976  0.1276  0.2372
40082SOL    HW131971  11.687  12.165  10.576 -1.8060  2.0198 -1.3035
40082SOL    HW231972  11.583  12.123  10.474 -3.2194 -1.3128  1.3270
40083SOL     OW31973   6.505   5.364   0.840  0.0176  0.0825 -0.1726
40083SOL    HW131974   6.446   5.424   0.886  0.4428 -0.3020  0.9327
40083SOL    HW231975   6.582   5.360   0.897  0.3944 -0.7465 -0.7317
40084SOL     OW31976   2.690   6.087   3.978  0.7990  0.3400 -0.4052
40084SOL    HW131977   2.698   6.106   3.885 -2.3884 -0.0388 -0.8683
40084SOL    HW231978   2.620   6.144   4.009  0.5594 -0.7972  1.3242
40085SOL     OW31979   3.888   1.800   4.928 -0.0236 -0.0783 -1.0396
40085SOL    HW131980   3.827   1.796   4.854  0.5917  0.6121 -1.6011
40085SOL    HW231981   3.941   1.878   4.911 -0.1377  0.3366  0.3450
40086SOL     OW31982  13.526  12.082   5.021 -0.6743  0.0524 -0.6315
40086SOL    HW131983  13.466  12.017   4.986 -1.7397  1.7876 -2.2749
40086SOL    HW231984  13.613  12.042   5.014 -1.1850 -0.8552 -2.5303
40087SOL     OW31985   6.488   9.865   4.903  0.1628 -0.4267 -0.3133
40087SOL    HW131986   6.482   9.772   4.927  0.1844 -0.2033  0.5748
40087SOL    HW231987   6.568   9.896   4.946  0.9918 -0.3420 -1.8238
40088SOL     OW31988   2.548   9.355   7.063 -0.2239  0.3116  0.0543
40088SOL    HW131989   2.584   9.332   6.977 -0.7416 -0.8534  0.1197
40088SOL    HW231990   2.589   9.438   7.085  2.4480 -0.9209  0.1305
40089SOL     OW31991   3.522   6.315   8.497 -0.1717 -0.0715 -0.0816
40089SOL    HW131992   3.566   6.396   8.472  0.9293 -0.0552  1.7381
40089SOL    HW231993   3.436   6.320   8.454  0.2649  1.5662 -0.8325
40090SOL     OW31994   8.122  10.493   4.908 -0.4292  0.1614 -0.0909
40090SOL    HW131995   8.166  10.412   4.937 -2.9335 -1.6190 -0.9428
40090SOL    HW231996   8.090  10.473   4.820 -2.6234  1.4289  0.3492
40091SOL     OW31997   0.702   5.873   9.135  0.2821 -0.0326  0.0788
40091SOL    HW131998   0.786   5.918   9.150  0.1534  0.9033 -1.7614
40091SOL    HW231999   0.727   5.790   9.094  0.4762 -1.4813  2.8836
40092SOL     OW32000   4.728  10.871   6.554 -0.2549  0.0932 -0.0101
40092SOL    HW132001   4.695  10.782   6.561 -0.0518 -0.0449 -0.7540
40092SOL    HW232002   4.805  10.873   6.612  0.5478 -0.6104 -1.0264
40093SOL     OW32003   3.952   1.736   5.629  0.2642 -0.3062  0.2702
40093SOL    HW132004   3.896   1.795   5.577 -0.1110  0.5130  1.5555
40093SOL    HW232005   3.923   1.648   5.604 -0.0022  0.0659 -0.7943
40094SOL     OW32006   1.694  10.538  12.418  0.5703 -0.3322 -0.3010
40094SOL    HW132007   1.740  10.456  12.402  0.2722 -0.3944 -0.8455
40094SOL    HW232008   1.653  10.559  12.335 -0.2718 -0.2087  0.1383
40095SOL     OW32009  11.623   8.250  13.125  0.1632  0.3689 -0.4164
40095SOL    HW132010  11.633   8.243  13.220  0.4791 -0.3743 -0.4990
40095SOL    HW232011  11.528   8.247  13.111  0.1124  0.5400 -0.1179
40096SOL     OW32012   4.222  11.537   1.127 -0.3296  0.7789  0.5039
40096SOL    HW132013   4.223  11.626   1.092  1.0466  1.2251  1.5971
40096SOL    HW232014   4.157  11.539   1.197 -1.1522  0.5915 -0.2394
40097SOL     OW32015   8.050  12.755   4.007  0.0468  0.0516 -0.1232
40097SOL    HW132016   8.127  12.795   4.047  0.9137  1.0463 -2.5687
40097SOL    HW232017   8.079  12.667   3.983  0.6773  0.5873 -1.4871
40098SOL     OW32018   4.408  13.443   1.433 -0.1031  0.1520 -0.7124
40098SOL    HW132019   4.467  13.376   1.465 -1.5502 -0.9961 -0.3074
40098SOL    HW232020   4.391  13.499   1.508  0.0198  0.1383 -0.6755
40099SOL     OW32021   5.265   5.716   7.675 -0.3953 -0.1367 -0.1287
40099SOL    HW132022   5.185   5.686   7.632  0.2163 -0.1989 -1.2484
40099SOL    HW232023   5.235   5.755   7.757 -1.6016  0.0971 -0.6650
40100SOL     OW32024   0.171   7.227   9.377  0.1558  0.4424  0.1714
40100SOL    HW132025   0.150   7.141   9.341  1.3595  0.0695  0.3336
40100SOL    HW232026   0.190   7.211   9.470  0.6695  0.8358  0.1393
40101SOL     OW32027   9.546   7.643   1.724 -0.3684  0.5873  0.3029
40101SOL    HW132028   9.479   7.625   1.659 -0.0598 -1.9667  0.6023
40101SOL    HW232029   9.622   7.592   1.696  0.6845  1.5531  1.2423
40102SOL     OW32030   4.255   6.546   1.235 -0.4010 -0.4844 -0.3441
40102SOL    HW132031   4.318   6.555   1.306 -1.2644  0.1372  0.3650
40102SOL    HW232032   4.240   6.452   1.228  0.8479 -0.6719 -0.7581
40103SOL     OW32033   1.240   4.912   9.740  0.4632 -0.0551  0.2956
40103SOL    HW132034   1.280   4.906   9.827 -0.8179 -0.0042  0.9240
40103SOL    HW232035   1.210   5.003   9.733  0.2851 -0.1378 -0.0621
40104SOL     OW32036  12.782   8.702  13.519  0.0290 -0.2922  0.5224
40104SOL    HW132037  12.792   8.682  13.426  0.2674  0.2422  0.4280
40104SOL    HW232038  12.790   8.798  13.524 -0.2807 -0.2916  1.0540
40105SOL     OW32039   2.431   9.852   3.298  0.1211 -0.5946 -0.0109
40105SOL    HW132040   2.465   9.766   3.274  0.7036 -0.3323 -0.1327
40105SOL    HW232041   2.504   9.912   3.283 -0.8393  0.2066 -1.7610
40106SOL     OW32042  10.056   5.275   6.006 -0.2983 -0.1890  0.1137
40106SOL    HW132043   9.974   5.226   6.010 -1.4508  1.6823  0.3066
40106SOL    HW232044  10.037   5.359   6.048  2.0296 -0.0964  1.1546
40107SOL     OW32045   1.580   0.643  10.474  0.2663 -0.2994 -0.1034
40107SOL    HW132046   1.625   0.570  10.432  0.5113 -0.6552  0.7368
40107SOL    HW232047   1.487   0.621  10.466  0.3674 -1.4770  1.4120
40108SOL     OW32048   9.157   6.541  12.246 -0.2767  0.4217 -0.3074
40108SOL    HW132049   9.095   6.468  12.245  0.0605  0.1330 -1.1285
40108SOL    HW232050   9.192   6.543  12.157 -0.7145  1.9616 -0.4719
40109SOL     OW32051   2.756   2.462   1.200 -0.1516 -0.9063 -0.1819
40109SOL    HW132052   2.789   2.469   1.290 -1.2167 -1.5039  0.2773
40109SOL    HW232053   2.776   2.372   1.174  1.6428 -0.2530 -1.1757
40110SOL     OW32054   8.460   9.273  10.317 -0.1068  0.4077  0.1136
40110SOL    HW132055   8.459   9.178  10.305 -1.5062  0.4672 -0.3069
40110SOL    HW232056   8.551   9.298  10.298 -0.0039 -0.6959 -0.9526
40111SOL     OW32057   0.688   2.126   3.253  0.0149  0.4831  0.3239
40111SOL    HW132058   0.742   2.190   3.207 -0.6972  1.6931  1.0996
40111SOL    HW232059   0.601   2.164   3.254 -0.0564  0.4114  2.4193
40112SOL     OW32060   4.280   4.623   8.545 -0.1712 -0.1263 -0.2145
40112SOL    HW132061   4.345   4.598   8.611 -0.5342 -0.8859 -0.1375
40112SOL    HW232062   4.226   4.689   8.588 -0.5445 -0.7763  0.3352
40113SOL     OW32063   7.505   4.830   3.918  0.0148 -0.0667  0.0493
40113SOL    HW132064   7.600   4.836   3.915 -0.0394  0.5350 -0.6912
40113SOL    HW232065   7.476   4.870   3.836 -0.9388  0.9119  0.8387
40114SOL     OW32066   2.685   4.963  10.477 -0.3641  0.4492  0.3938
40114SOL    HW132067   2.762   4.937  10.428  0.0882 -0.5121  1.5756
40114SOL    HW232068   2.629   5.006  10.412  1.7219  2.4233 -0.2052
40115SOL     OW32069   0.686  12.531   6.323  0.3389  0.1761  0.3718
40115SOL    HW132070   0.757  12.467   6.334  1.3019  1.3683  1.3821
40115SOL    HW232071   0.731  12.615   6.315 -0.9111  0.7794 -0.7248
40116SOL     OW32072   2.300   3.113   7.819 -0.2850  0.3664 -0.2400
40116SOL    HW132073   2.391   3.135   7.835  0.2303 -1.8970  0.3458
40116SOL    HW232074   2.254   3.145   7.897  0.2534  0.3036  0.1124
40117SOL     OW32075   3.777   4.027   7.418 -0.5517  0.3197 -0.6594
40117SOL    HW132076   3.776   3.958   7.485 -0.3093  0.9616  0.0231
40117SOL    HW232077   3.693   4.072   7.429  0.6354  2.2553  1.2034
40118SOL     OW32078   2.126  13.106  12.255 -0.2036 -0.2471  0.1708
40118SOL    HW132079   2.079  13.157  12.189  2.5752  0.3763 -1.4882
40118SOL    HW232080   2.106  13.014  12.234 -0.8667  0.0043 -0.3059
40119SOL     OW32081   3.239   3.402  13.434  0.0555  0.2001 -0.2063
40119SOL    HW132082   3.170   3.385  13.371  0.7382  1.7066 -1.4387
40119SOL    HW232083   3.288   3.476  13.397  2.1170 -0.5857  0.7784
40120SOL     OW32084   8.849   8.188   3.403  0.1127 -0.1146  0.0308
40120SOL    HW132085   8.850   8.157   3.313  1.8387 -0.6472  0.2025
40120SOL    HW232086   8.939   8.217   3.420 -0.4534  1.0825  1.2183
40121SOL     OW32087   7.397  10.674   1.711 -1.0006 -0.0855 -0.2750
40121SOL    HW132088   7.306  10.706   1.703 -0.9335  0.2129  0.0970
40121SOL    HW232089   7.392  10.606   1.778 -0.7281  0.8871  0.7693
40122SOL     OW32090  12.712   0.190   8.168  0.3719 -0.1601  0.4391
40122SOL    HW132091  12.798   0.161   8.138 -0.1764 -2.3780  0.8689
40122SOL    HW232092  12.671   0.112   8.203 -1.3228  1.1330  1.5029
40123SOL     OW32093   5.705  11.245   8.110  0.5309  0.0293 -0.5043
40123SOL    HW132094   5.741  11.159   8.131 -0.1939 -0.3231 -0.6947
40123SOL    HW232095   5.615  11.228   8.083  0.1320  0.9214  0.2000
40124SOL     OW32096  11.862  11.151   0.546 -0.0086  0.2526  0.2202
40124SOL    HW132097  11.827  11.201   0.620  0.3133  1.6889 -0.5624
40124SOL    HW232098  11.947  11.191   0.527 -0.8105  1.0939 -1.9876
40125SOL     OW32099  10.541  11.616  10.666  0.0083 -0.2108  0.7101
40125SOL    HW132100  10.620  11.664  10.690  1.0610 -0.6959 -1.5535
40125SOL    HW232101  10.471  11.681  10.670  0.6177  0.3944  2.0207
40126SOL     OW32102   2.743   9.350   1.241 -0.2350 -0.7545  0.2340
40126SOL    HW132103   2.833   9.359   1.209  0.0449 -0.9244  0.9498
40126SOL    HW232104   2.743   9.268   1.289 -0.3245  0.0557  1.6709
40127SOL     OW32105   9.603  10.369   1.800 -0.2584 -0.5795  0.6800
40127SOL    HW132106   9.590  10.463   1.791  1.3023 -0.5058 -2.2569
40127SOL    HW232107   9.698  10.358   1.796 -0.4566 -2.3314 -0.5493
40128SOL     OW32108   4.198   9.804  11.371  0.0685  0.5764  0.2885
40128SOL    HW132109   4.210   9.888  11.326  1.2842  0.5488  0.5361
40128SOL    HW232110   4.122   9.765  11.327  0.7403  0.8944 -1.2491
40129SOL     OW32111   5.846   4.373  12.385  0.5729  0.0482 -0.3589
40129SOL    HW132112   5.839   4.335  12.297  0.9853 -2.8000  0.7530
40129SOL    HW232113   5.906   4.315  12.431 -0.6949  0.6596  2.2253
40130SOL     OW32114   5.314  10.051   0.637 -0.8172 -0.0618  0.1304
40130SOL    HW132115   5.363  10.079   0.714 -1.2599 -0.3274  0.5149
40130SOL    HW232116   5.226  10.089   0.650 -1.2869 -1.2287  0.4247
40131SOL     OW32117   6.938   2.705   2.015 -0.4018 -0.2897 -0.1516
40131SOL    HW132118   6.869   2.753   1.968  0.1569  1.8477  1.0665
40131SOL    HW232119   7.017   2.722   1.964 -0.2683 -0.2859  0.0575
40132SOL     OW32120   8.709   9.998   0.995  0.0769  0.7530 -0.3904
40132SOL    HW132121   8.757   9.937   1.051  1.1501  1.3451 -0.6527
40132SOL    HW232122   8.776  10.040   0.941 -0.7632  1.4054 -0.9558
40133SOL     OW32123   6.598   2.350   0.346  0.5975  0.0095 -0.0240
40133SOL    HW132124   6.660   2.325   0.278  1.1447  0.5805  0.2525
40133SOL    HW232125   6.577   2.441   0.327  0.2793 -0.0106  0.2176
40134SOL     OW32126   5.636  13.074  12.549 -0.2157  1.1447  0.2484
40134SOL    HW132127   5.541  13.060  12.545  0.0350 -0.4890 -0.9775
40134SOL    HW232128   5.653  13.138  12.480 -0.0878 -1.0299 -1.8440
40135SOL     OW32129   8.254   7.617   1.820 -0.3886 -0.2683 -0.2175
40135SOL    HW132130   8.315   7.549   1.790 -0.2188 -0.9144  1.4307
40135SOL    HW232131   8.265   7.689   1.758  0.9142 -0.9778 -0.8566
40136SOL     OW32132   1.035   7.546   3.324  0.3323  0.2435  0.5880
40136SOL    HW132133   1.091   7.620   3.298  0.3290 -0.6438 -2.3206
40136SOL    HW232134   1.044   7.484   3.252 -1.0337 -1.8524  2.1376
40137SOL     OW32135   1.878  12.123   7.480  0.1715 -0.3929  0.0755
40137SOL    HW132136   1.915  12.205   7.449 -0.1828 -0.4238 -0.4564
40137SOL    HW232137   1.882  12.129   7.576 -1.7153  1.1410  0.1245
40138SOL     OW32138   1.650  11.807   5.798 -0.0454 -0.4642  0.5835
40138SOL    HW132139   1.743  11.828   5.796 -0.0929 -0.2550  0.5665
40138SOL    HW232140   1.647  11.712   5.803  0.1692 -0.4846  0.3421
40139SOL     OW32141   9.261  11.440   3.923  1.0549  0.3979  0.1118
40139SOL    HW132142   9.341  11.459   3.875  1.5694  0.1059  0.8425
40139SOL    HW232143   9.242  11.348   3.903  2.1890 -0.2219  1.7610
40140SOL     OW32144   5.668   2.860  11.104  0.3637 -0.1390  0.4642
40140SOL    HW132145   5.742   2.883  11.048  0.9236 -0.1823  1.1694
40140SOL    HW232146   5.651   2.939  11.155 -0.4606  0.0599 -0.1042
40141SOL     OW32147  13.011   6.449  10.893 -0.1681 -0.5797 -0.4021
40141SOL    HW132148  12.959   6.506  10.836  0.5585  1.6929  1.0870
40141SOL    HW232149  13.089   6.428  10.841 -0.9833 -1.2590 -1.4019
40142SOL     OW32150   9.909  11.723   3.219 -0.4232  0.0917  0.0554
40142SOL    HW132151   9.923  11.669   3.141  0.8244  2.5004 -1.5187
40142SOL    HW232152   9.865  11.801   3.187 -0.0809  1.0667  1.7989
40143SOL     OW32153   6.446   5.927  10.272 -0.0570  0.4385 -0.0723
40143SOL    HW132154   6.386   5.917  10.346 -0.0525  1.1302  0.0310
40143SOL    HW232155   6.510   5.991  10.301  1.1802 -0.8164  0.0868
40144SOL     OW32156   9.658   4.135   0.204 -0.3283  0.2667 -0.2314
40144SOL    HW132157   9.576   4.182   0.187 -0.2018  0.1215 -1.3598
40144SOL    HW232158   9.655   4.061   0.143 -0.1321 -0.7119  0.9126
40145SOL     OW32159   0.694  10.972  12.732  0.0981  0.0478 -0.1470
40145SOL    HW132160   0.702  11.056  12.686  0.3191  0.7240  1.0952
40145SOL    HW232161   0.771  10.922  12.703  0.3596  0.5498 -0.3364
40146SOL     OW32162   4.836   5.644  10.154  0.8732 -0.5497 -0.2077
40146SOL    HW132163   4.774   5.636  10.226  0.5354 -0.8041 -0.5247
40146SOL    HW232164   4.820   5.567  10.100 -0.0390  0.4657 -1.4632
40147SOL     OW32165   9.506  11.718   9.705 -0.1738 -0.1451 -0.4472
40147SOL    HW132166   9.475  11.629   9.720 -0.1340 -0.1959 -0.6649
40147SOL    HW232167   9.492  11.733   9.611 -1.4290  0.5498 -0.1688
40148SOL     OW32168   3.630   3.129  10.827 -0.0954  0.0444  0.2506
40148SOL    HW132169   3.603   3.038  10.828 -0.9316  0.2569  2.8315
40148SOL    HW232170   3.629   3.156  10.919  2.7625  1.9123 -0.1260
40149SOL     OW32171  11.932   8.534   0.121 -0.0828 -0.4075 -0.1875
40149SOL    HW132172  11.876   8.523   0.045 -0.3893 -1.0634  0.1258
40149SOL    HW232173  11.873   8.564   0.190  0.3513  1.1146 -0.4306
40150SOL     OW32174   5.015   2.535  11.661  0.0378  0.4420 -0.4836
40150SOL    HW132175   5.049   2.596  11.595  0.1204  0.1054 -0.7573
40150SOL    HW232176   4.920   2.547  11.658  0.0647  0.6773 -0.4181
40151SOL     OW32177  13.437   8.064   8.762  0.7599  0.4297 -0.0848
40151SOL    HW132178  13.455   8.083   8.854 -2.0456  1.9189  0.2582
40151SOL    HW232179  13.434   7.968   8.758 -3.3492  0.1925  2.5034
40152SOL     OW32180  12.855  11.815   1.385 -0.1106  0.1901 -0.6346
40152SOL    HW132181  12.799  11.877   1.339  1.0330  0.5977 -1.5091
40152SOL    HW232182  12.944  11.846   1.370  0.4934 -1.5957 -1.0117
40153SOL     OW32183   1.300   4.600   3.065  0.0074 -0.0812  0.4624
40153SOL    HW132184   1.225   4.563   3.018 -0.4410 -1.0240  1.8782
40153SOL    HW232185   1.345   4.525   3.102  0.8230  0.5894  0.8709
40154SOL     OW32186   3.288   5.934   9.946 -0.2622  0.1304 -0.0978
40154SOL    HW132187   3.280   5.996  10.019  0.5529 -2.0225  1.9536
40154SOL    HW232188   3.382   5.918   9.938 -0.5112 -2.2789  0.8398
40155SOL     OW32189   4.140   1.947   9.752  0.4798  0.0462 -0.0450
40155SOL    HW132190   4.149   1.896   9.671  2.4383  1.2007 -0.6143
40155SOL    HW232191   4.229   1.977   9.771 -0.0908  0.5308  2.0851
40156SOL     OW32192   1.141  10.194   2.074 -0.3608  0.0050 -0.2739
40156SOL    HW132193   1.140  10.169   2.166  1.2444 -1.5394 -0.6263
40156SOL    HW232194   1.229  10.227   2.058 -0.7705  0.7464 -1.1590
40157SOL     OW32195  11.512  11.828   0.576  0.7804  0.0738 -0.5856
40157SOL    HW132196  11.538  11.789   0.492  0.3156 -0.7595 -0.3453
40157SOL    HW232197  11.594  11.861   0.613  1.1423 -0.4289 -0.9232
40158SOL     OW32198  12.602  11.001   2.948 -0.5463 -0.1029 -0.3001
40158SOL    HW132199  12.599  11.003   2.853 -1.2295 -0.2498 -0.2841
40158SOL    HW232200  12.510  11.000   2.975 -0.3935  1.1775  0.3823
40159SOL     OW32201   1.989   9.715  11.585  0.1810 -0.3375 -0.1224
40159SOL    HW132202   1.920   9.763  11.630  1.2489  0.1931  1.0297
40159SOL    HW232203   1.971   9.623  11.604 -0.2835 -0.2166  0.0406
40160SOL     OW32204  13.663   6.391   0.070 -0.4313 -0.4849 -0.7000
40160SOL    HW132205  13.665   6.338   0.151 -0.2174 -1.4875 -1.3417
40160SOL    HW232206  13.579   6.437   0.074 -1.1044 -1.6717 -0.5947
40161SOL     OW32207   9.127   5.342  13.734 -0.5943 -0.5376 -0.3850
40161SOL    HW132208   9.036   5.372  13.744 -1.3857 -2.6007 -1.0724
40161SOL    HW232209   9.140   5.280  13.806  0.8173  0.8232  0.6233
40162SOL     OW32210   2.428  10.888   3.222 -0.5424  0.0588  0.2732
40162SOL    HW132211   2.376  10.808   3.215  0.3776 -0.4338 -1.4873
40162SOL    HW232212   2.397  10.930   3.302  0.1734 -2.9372  2.3130
40163SOL     OW32213   2.705   6.521  11.453  0.3860  0.0842 -0.5526
40163SOL    HW132214   2.629   6.565  11.414  0.8553  0.6600 -0.8403
40163SOL    HW232215   2.723   6.448  11.394  1.1221  0.9762 -1.4846
40164SOL     OW32216  10.956  13.651   1.979  0.7292 -0.6058 -0.4162
40164SOL    HW132217  10.958  13.584   2.047  0.6261  0.6381  0.8515
40164SOL    HW232218  11.048  13.664   1.956  0.9874  0.6110  1.1830
40165SOL     OW32219   2.768   9.679   8.773 -0.1260  0.1916  0.1708
40165SOL    HW132220   2.803   9.766   8.793 -0.5373  0.2011  0.8838
40165SOL    HW232221   2.681   9.697   8.737 -0.7020  0.0475  1.4192
40166SOL     OW32222  12.203  11.365   0.910 -0.0793  0.1752 -0.0350
40166SOL    HW132223  12.215  11.271   0.896  2.4090  0.2590  0.9840
40166SOL    HW232224  12.209  11.376   1.005 -0.2153  1.3933 -0.1465
40167SOL     OW32225   5.122  13.504   6.693 -0.0079  0.0174  0.2464
40167SOL    HW132226   5.214  13.478   6.694  0.0477  0.1799 -0.3226
40167SOL    HW232227   5.122  13.592   6.656 -0.3357  0.2657  0.8153
40168SOL     OW32228   1.482   1.766  11.233  0.0394 -0.4025  0.3664
40168SOL    HW132229   1.573   1.791  11.221  0.0214  0.5092  1.9241
40168SOL    HW232230   1.483   1.705  11.307 -0.6141 -0.4495  0.3421
40169SOL     OW32231   8.288   4.749   5.786  0.2015  0.1557 -0.0154
40169SOL    HW132232   8.336   4.771   5.865  0.2197 -0.9602  0.2967
40169SOL    HW232233   8.332   4.671   5.752 -1.1599 -0.6863  0.0863
40170SOL     OW32234  10.542   6.175   1.530 -0.4837  0.4987  0.2647
40170SOL    HW132235  10.561   6.090   1.492 -1.3792  0.6657 -0.6104
40170SOL    HW232236  10.447   6.186   1.518 -0.1230  2.4159 -1.3924
40171SOL     OW32237   8.622  10.979   1.803 -0.2701  0.0527 -0.0914
40171SOL    HW132238   8.571  11.001   1.726 -1.9110 -1.5600  0.4670
40171SOL    HW232239   8.575  11.019   1.876  0.7460  0.7650  0.1994
40172SOL     OW32240   4.351   2.712   1.874 -0.0861  0.1386  0.4894
40172SOL    HW132241   4.424   2.658   1.845 -0.9232 -1.0864  0.5724
40172SOL    HW232242   4.291   2.651   1.916 -0.1645  1.4362  2.4051
40173SOL     OW32243   7.998   8.443   6.089  0.1105  0.7826 -0.1484
40173SOL    HW132244   8.074   8.384   6.095 -0.3412  0.1494 -0.5740
40173SOL    HW232245   8.019   8.502   6.017  0.8925  1.6438  0.7426
40174SOL     OW32246   0.599   9.223   3.353 -0.2959 -0.4771 -0.2657
40174SOL    HW132247   0.597   9.129   3.335 -0.3371 -0.8268  1.3592
40174SOL    HW232248   0.689   9.249   3.333  0.5447 -1.4869  1.8924
40175SOL     OW32249  12.722   2.569   2.262 -0.4857 -0.3150  0.5764
40175SOL    HW132250  12.718   2.664   2.251 -2.8759 -0.0996  2.5385
40175SOL    HW232251  12.814   2.550   2.279 -0.0716  1.7457  0.8366
40176SOL     OW32252   4.140   4.451   6.940  0.3874 -0.1593 -0.6531
40176SOL    HW132253   4.089   4.480   7.016 -0.5764 -0.8873 -1.0076
40176SOL    HW232254   4.167   4.362   6.962  0.5406 -0.1858 -0.9485
40177SOL     OW32255   3.092   2.173  12.017  0.0461  0.5374  0.4630
40177SOL    HW132256   3.179   2.139  12.036 -0.2851 -0.1191  0.8470
40177SOL    HW232257   3.108   2.253  11.967  1.0184  2.5166  3.6157
40178SOL     OW32258   6.562  11.695   3.727 -0.6371 -0.2181  0.6021
40178SOL    HW132259   6.592  11.624   3.784 -1.3177 -2.2822 -1.4547
40178SOL    HW232260   6.467  11.693   3.734 -0.7294 -0.4828 -0.5382
40179SOL     OW32261   5.094   2.589  12.259 -0.1015  0.3966  0.4587
40179SOL    HW132262   5.111   2.504  12.299 -1.5496  1.0068  2.5130
40179SOL    HW232263   5.131   2.652  12.320 -0.4037  1.3121 -0.2799
40180SOL     OW32264   4.448   7.854  12.178 -0.1406 -0.3420  0.5584
40180SOL    HW132265   4.531   7.865  12.225  1.2418 -1.0602 -1.5695
40180SOL    HW232266   4.461   7.903  12.096 -0.9315 -2.3220 -0.8054
40181SOL     OW32267   6.677  12.467   7.132 -0.1182 -0.0724  0.8765
40181SOL    HW132268   6.770  12.447   7.121  0.7342  3.3531  0.7032
40181SOL    HW232269   6.643  12.473   7.043 -0.6913 -1.8095  0.9454
40182SOL     OW32270   6.198   4.854   9.517  0.3517 -0.0028 -0.3309
40182SOL    HW132271   6.222   4.907   9.593  0.8909  0.2577 -0.6819
40182SOL    HW232272   6.109   4.883   9.496  0.6409  0.7902 -0.5281
40183SOL     OW32273   2.790  13.674  10.581  0.5647 -0.0701 -0.5076
40183SOL    HW132274   2.832  13.743  10.531 -0.5643  0.0133 -1.3787
40183SOL    HW232275   2.718  13.644  10.525 -1.6994  1.0333  1.6443
40184SOL     OW32276   1.117   6.261   5.316  0.2380  0.5805 -0.0340
40184SOL    HW132277   1.039   6.221   5.278 -0.9213 -0.3291  2.9607
40184SOL    HW232278   1.145   6.326   5.252 -2.5405  0.4079 -1.5566
40185SOL     OW32279   4.530   1.350   0.154 -0.1066 -0.0851  0.1551
40185SOL    HW132280   4.467   1.281   0.136 -0.8700  0.1640  1.7265
40185SOL    HW232281   4.615   1.307   0.151 -0.5558 -1.0386  0.8167
40186SOL     OW32282   2.427   1.137   1.019 -0.2042 -0.1371  0.3296
40186SOL    HW132283   2.496   1.198   1.044 -0.4263  0.4931 -0.5123
40186SOL    HW232284   2.417   1.150   0.924 -0.9302 -0.7778  0.3049
40187SOL     OW32285   1.823   7.351   3.487  0.7242 -0.0734 -0.1287
40187SOL    HW132286   1.872   7.408   3.546  0.4945 -0.8373  0.8377
40187SOL    HW232287   1.828   7.264   3.528 -2.6799  0.0410  0.8993
40188SOL     OW32288   0.479   3.058   1.222 -0.4011  0.0697  0.5116
40188SOL    HW132289   0.545   3.000   1.260  2.0585  0.4308 -2.8068
40188SOL    HW232290   0.399   3.006   1.221  0.7594 -1.8317  1.1771
40189SOL     OW32291   9.267   6.886   7.409 -0.0501 -0.4305 -0.0237
40189SOL    HW132292   9.276   6.837   7.491 -1.1693  0.1892  0.4862
40189SOL    HW232293   9.182   6.858   7.374  0.1984 -0.3239 -0.7312
40190SOL     OW32294   2.217   4.211   8.331  0.7689  0.3471  0.9032
40190SOL    HW132295   2.237   4.235   8.421 -0.6914  2.2630  0.7791
40190SOL    HW232296   2.138   4.158   8.336  0.2626  1.0674  0.7251
40191SOL     OW32297   7.905   7.977   0.145  0.2458 -0.4916 -0.1775
40191SOL    HW132298   7.920   8.015   0.232 -0.5713 -1.7105  0.5211
40191SOL    HW232299   7.940   8.043   0.084 -1.6870  1.7439  0.9299
40192SOL     OW32300   2.824  10.890   4.308 -0.0296 -0.0290 -0.1693
40192SOL    HW132301   2.762  10.845   4.366  0.8608 -0.6750  0.3114
40192SOL    HW232302   2.772  10.915   4.232 -0.6629 -1.4960 -0.2575
40193SOL     OW32303   9.452   7.490   2.766  0.2475  0.1623  0.7219
40193SOL    HW132304   9.394   7.419   2.740  1.4826 -0.7081  0.2922
40193SOL    HW232305   9.392   7.560   2.795 -0.9705 -1.2865  1.8542
40194SOL     OW32306   0.064   9.679   9.619 -0.1326 -0.3841 -0.1332
40194SOL    HW132307   0.018   9.596   9.635 -0.7928  0.1407  0.7718
40194SOL    HW232308   0.109   9.665   9.536  0.7433 -2.0653  0.5843
40195SOL     OW32309   1.197  13.720   0.255 -0.0936  0.2446 -0.1836
40195SOL    HW132310   1.246  13.791   0.215  0.2239  0.8902  1.2852
40195SOL    HW232311   1.163  13.757   0.337 -0.6805 -1.0181  0.1725
40196SOL     OW32312   4.359   0.205  12.069 -0.0834 -0.1878 -0.7330
40196SOL    HW132313   4.267   0.208  12.045  0.2519  1.3103 -1.9275
40196SOL    HW232314   4.398   0.142  12.008  0.1704  1.2352 -2.0859
40197SOL     OW32315   7.320   8.420   9.165 -0.2303 -0.2819 -0.2704
40197SOL    HW132316   7.271   8.376   9.096  1.0156 -2.6444  0.2366
40197SOL    HW232317   7.284   8.384   9.246 -1.2670  2.0095  0.3647
40198SOL     OW32318  12.151  11.931   5.784 -0.2350  0.1179 -0.2457
40198SOL    HW132319  12.164  11.859   5.723  0.8692  0.9714 -1.0585
40198SOL    HW232320  12.189  12.008   5.740  1.0802  0.6584  1.6943
40199SOL     OW32321  12.227   6.309   1.370 -0.2860  0.3332  0.4596
40199SOL    HW132322  12.261   6.243   1.309 -1.1047  0.8343 -0.5775
40199SOL    HW232323  12.220   6.263   1.453  1.4112 -0.2015  0.3261
40200SOL     OW32324   7.175  13.685   2.027  0.1672 -0.0620  0.2240
40200SOL    HW132325   7.131  13.768   2.009 -1.3059 -1.2219 -1.9542
40200SOL    HW232326   7.129  13.621   1.973 -0.8237 -2.9508  4.0243
40201SOL     OW32327   5.776  11.008   4.954 -0.0733  0.0020 -0.1292
40201SOL    HW132328   5.865  10.971   4.958  0.1055  0.3166 -0.9757
40201SOL    HW232329   5.757  11.015   4.861 -0.8625  0.2572  0.0423
40202SOL     OW32330   1.196  10.117  10.716 -0.1123 -0.0453 -0.2590
40202SOL    HW132331   1.105  10.086  10.711  0.3102 -1.6094  0.9135
40202SOL    HW232332   1.213  10.126  10.810  0.3934  2.0793 -0.5043
40203SOL     OW32333  12.372   0.116   8.106  0.0719 -0.0160 -0.2618
40203SOL    HW132334  12.332   0.203   8.103 -0.6777 -0.1847  2.1696
40203SOL    HW232335  12.466   0.132   8.102 -0.0983  0.7502 -1.6033
40204SOL     OW32336   6.018   4.410  13.353  0.4909 -0.3322 -0.1318
40204SOL    HW132337   6.048   4.336  13.300 -1.1459 -0.2436 -1.2490
40204SOL    HW232338   5.922   4.405  13.350  0.3409  0.3439  1.9299
40205SOL     OW32339   7.732   5.226   4.095  0.0310 -0.6819 -0.1976
40205SOL    HW132340   7.783   5.180   4.028  0.6550  0.3902 -0.4719
40205SOL    HW232341   7.681   5.157   4.137 -1.5303 -1.2302 -2.7553
40206SOL     OW32342   9.767   2.624  10.419 -0.0500  0.1353  0.5354
40206SOL    HW132343   9.677   2.641  10.389  0.3316  2.5003  0.5041
40206SOL    HW232344   9.814   2.599  10.340 -0.5973 -0.8280  0.4992
40207SOL     OW32345   8.682  10.459   9.783 -0.1507  0.5482  0.0037
40207SOL    HW132346   8.610  10.404   9.753  1.2319 -1.0678 -0.4796
40207SOL    HW232347   8.744  10.459   9.711  0.8577  0.9583  0.8512
40208SOL     OW32348   8.851   9.305   3.990  0.1501 -0.2897 -0.7992
40208SOL    HW132349   8.779   9.316   3.928 -0.3089 -0.2178 -0.2590
40208SOL    HW232350   8.829   9.363   4.064  0.2667 -0.9894 -0.2022
40209SOL     OW32351   7.632   9.629   7.062  0.1649 -0.3026 -0.3835
40209SOL    HW132352   7.581   9.571   7.119  1.0700 -0.1838  0.5608
40209SOL    HW232353   7.723   9.611   7.083  0.5239 -0.1226 -1.6766
40210SOL     OW32354   9.869  10.401   1.073  0.0855 -0.5038  0.1388
40210SOL    HW132355   9.962  10.421   1.058  0.2368 -0.3975  1.1207
40210SOL    HW232356   9.863  10.307   1.059  0.2956 -0.4761 -0.1548
40211SOL     OW32357  13.537  11.728   1.920  0.0224  0.3472 -0.9462
40211SOL    HW132358  13.462  11.732   1.979  0.0277  1.9905 -0.9854
40211SOL    HW232359  13.519  11.654   1.862 -0.0530 -1.2122  0.9760
40212SOL     OW32360   9.502  10.445   1.430 -0.1810 -0.0891 -0.3634
40212SOL    HW132361   9.430  10.432   1.492  0.1517 -0.4004 -0.0367
40212SOL    HW232362   9.494  10.537   1.404 -0.4089  0.0097  0.0384
40213SOL     OW32363  13.657   7.175   3.260 -0.4588 -0.4479  0.4103
40213SOL    HW132364  13.614   7.249   3.302  1.2313  0.3120  0.9257
40213SOL    HW232365  13.727   7.151   3.320 -0.2103 -1.6764 -0.3300
40214SOL     OW32366   2.439   9.862   6.204  0.1203 -0.0055 -0.5869
40214SOL    HW132367   2.502   9.933   6.222 -0.6666  0.3836  0.7515
40214SOL    HW232368   2.439   9.855   6.109  0.6514  1.4036 -0.7279
40215SOL     OW32369  12.399   5.194   0.795 -0.4921 -0.5386 -0.1612
40215SOL    HW132370  12.432   5.214   0.708 -0.5864 -1.3651 -0.3997
40215SOL    HW232371  12.436   5.108   0.816 -1.1090 -0.7106  0.2772
40216SOL     OW32372   6.021   1.941   0.402  0.4429  0.7431  0.4652
40216SOL    HW132373   5.974   1.869   0.361  3.9797 -0.9519 -1.0474
40216SOL    HW232374   5.959   1.977   0.466 -2.2360 -2.2262 -0.2029
40217SOL     OW32375   9.654   9.793  12.739 -0.2561  0.1441  0.3712
40217SOL    HW132376   9.746   9.794  12.766  0.1758 -0.0987 -1.0077
40217SOL    HW232377   9.605   9.813  12.818  0.9360 -0.6056  1.3293
40218SOL     OW32378   2.135   0.948   2.761  0.2056 -0.4570  0.5110
40218SOL    HW132379   2.210   0.947   2.701  0.1575 -0.6632  0.4525
40218SOL    HW232380   2.146   1.028   2.812  1.3043 -1.2239  1.5436
40219SOL     OW32381  11.636   7.400   7.658 -0.2997 -0.2080  0.2864
40219SOL    HW132382  11.691   7.364   7.589 -0.9951 -1.1332  0.1946
40219SOL    HW232383  11.590   7.324   7.694  0.2129  0.2202  1.9261
40220SOL     OW32384  11.550  12.561   4.570  0.2301  0.1161  0.2662
40220SOL    HW132385  11.502  12.600   4.497  1.8428  0.7708 -0.5040
40220SOL    HW232386  11.569  12.635   4.627 -0.3018 -0.2615  0.9474
40221SOL     OW32387  12.262   1.570   1.350 -0.2068 -0.0101 -0.2344
40221SOL    HW132388  12.223   1.498   1.399 -0.3736  0.6663  0.6425
40221SOL    HW232389  12.198   1.590   1.281 -0.9355  0.3817  0.5371
40222SOL     OW32390  13.457   3.407   0.115  0.2062  0.1395 -0.2462
40222SOL    HW132391  13.386   3.412   0.052 -0.5962 -0.8724  0.5435
40222SOL    HW232392  13.537   3.416   0.063 -0.4738  0.9907 -1.1789
40223SOL     OW32393   4.639  12.793   3.145 -0.0319  0.3855 -0.0253
40223SOL    HW132394   4.602  12.881   3.155 -2.3448 -0.6000  0.7793
40223SOL    HW232395   4.606  12.763   3.061 -0.1477 -0.0901  0.1864
40224SOL     OW32396  12.607   1.393   5.831 -0.4257 -0.3699  0.5345
40224SOL    HW132397  12.641   1.439   5.754 -2.0643  0.4141  0.2443
40224SOL    HW232398  12.670   1.322   5.846  0.3838 -0.0167 -1.0092
40225SOL     OW32399   6.768   2.965   9.475 -0.7512 -0.1041 -0.1607
40225SOL    HW132400   6.774   2.892   9.537 -0.4577  0.3237  0.3258
40225SOL    HW232401   6.696   2.941   9.417 -0.1891 -1.1264 -0.4651
40226SOL     OW32402   1.559   0.995   3.142  0.1940 -0.2003 -0.2161
40226SOL    HW132403   1.551   1.075   3.196  0.8687 -0.5838  0.4726
40226SOL    HW232404   1.482   0.943   3.165  0.0418  0.0093 -0.2509
40227SOL     OW32405   7.691   5.828  13.566  0.3019  0.1897  0.2431
40227SOL    HW132406   7.752   5.901  13.551  0.7316 -0.2277 -0.0896
40227SOL    HW232407   7.643   5.852  13.645  0.2333  0.9715 -0.0276
40228SOL     OW32408   0.062  10.213  10.858  0.3500 -0.4040  0.0820
40228SOL    HW132409   0.152  10.210  10.825  0.4964 -0.6289  0.4986
40228SOL    HW232410   0.014  10.259  10.789  1.1192  1.3076  0.6288
40229SOL     OW32411   8.759   2.562  12.561 -0.0682 -0.3554  0.1065
40229SOL    HW132412   8.851   2.557  12.587 -0.2453 -1.7412  0.6086
40229SOL    HW232413   8.727   2.472  12.573 -1.9456  0.4473  1.7093
40230SOL     OW32414   5.231   1.974  10.301 -0.1398 -0.8415 -0.1489
40230SOL    HW132415   5.152   1.925  10.325 -0.9040  1.3305  2.2581
40230SOL    HW232416   5.201   2.033  10.232 -0.3826 -0.6739  0.0965
40231SOL     OW32417   2.866   9.711   3.001 -0.4268 -0.3458  0.1578
40231SOL    HW132418   2.845   9.691   3.092 -0.0542 -0.6038  0.1885
40231SOL    HW232419   2.846   9.630   2.953 -0.1338 -0.3787  0.0892
40232SOL     OW32420   9.066   6.212   7.843 -0.2001  0.7472  0.3171
40232SOL    HW132421   9.051   6.189   7.751 -2.2122  3.2516 -0.0824
40232SOL    HW232422   9.146   6.264   7.842 -0.3809  1.0218 -0.0825
40233SOL     OW32423  11.624   0.451   8.691 -0.3243  0.4290 -0.0991
40233SOL    HW132424  11.629   0.501   8.772  0.0865 -0.2374  0.3010
40233SOL    HW232425  11.662   0.365   8.713 -1.0934 -0.0924 -0.7325
40234SOL     OW32426   8.099   9.330  10.377  0.3847  0.3411  0.1267
40234SOL    HW132427   8.152   9.368  10.308 -0.8838 -0.2091 -1.2008
40234SOL    HW232428   8.014   9.373  10.370  0.0411 -0.1624  0.9496
40235SOL     OW32429  11.536   1.652  13.009  0.1032 -0.3645  0.2028
40235SOL    HW132430  11.476   1.707  13.058  0.2439  1.3689 -1.4354
40235SOL    HW232431  11.500   1.650  12.920  1.4502 -0.8782 -0.3624
40236SOL     OW32432   4.984   2.369  10.369 -0.1934  0.1946 -0.6821
40236SOL    HW132433   4.902   2.381  10.321 -1.7561 -1.6353  1.3040
40236SOL    HW232434   5.052   2.366  10.302 -1.6251  2.3227 -2.3772
40237SOL     OW32435   2.690  10.607   2.075  0.3644  0.0576  0.4275
40237SOL    HW132436   2.617  10.668   2.063 -0.5762 -0.8538  1.3465
40237SOL    HW232437   2.717  10.586   1.985 -1.8223 -1.0967 -0.0433
40238SOL     OW32438   7.189  12.409   3.589  0.0787 -0.0501 -0.4282
40238SOL    HW132439   7.120  12.358   3.632 -0.6950  0.0399 -1.5257
40238SOL    HW232440   7.143  12.457   3.520  1.4862 -1.2167 -2.2504
40239SOL     OW32441   2.357  10.597   3.709  0.1357  0.1966  0.0974
40239SOL    HW132442   2.353  10.688   3.680 -0.8528 -0.3382 -1.6085
40239SOL    HW232443   2.450  10.582   3.726  0.1801  1.8497  1.6908
40240SOL     OW32444  10.983  10.525   9.646  0.3208  0.5806 -0.2646
40240SOL    HW132445  10.921  10.594   9.622  0.8790  1.2359  0.1475
40240SOL    HW232446  11.069  10.561   9.626  0.6687  0.3034  0.6800
40241SOL     OW32447   2.324  10.545   1.646  0.2783  0.3147 -0.2439
40241SOL    HW132448   2.267  10.571   1.572 -0.7930  0.1431  0.4988
40241SOL    HW232449   2.403  10.598   1.634 -0.1954  0.8747 -1.0785
40242SOL     OW32450   6.137  11.772   8.274 -0.1819  0.0721  0.1073
40242SOL    HW132451   6.097  11.856   8.255 -0.2425 -0.2624 -1.3766
40242SOL    HW232452   6.084  11.708   8.226 -0.1066 -0.8155  1.1565
40243SOL     OW32453  11.397   2.778  10.055 -0.0550  0.6298 -0.2179
40243SOL    HW132454  11.386   2.871  10.071 -1.2035  0.4087  0.3920
40243SOL    HW232455  11.389   2.768   9.960 -1.7719  0.9390 -0.1253
40244SOL     OW32456   4.903   7.715  10.354 -0.4035 -0.2919 -0.0244
40244SOL    HW132457   4.832   7.779  10.354 -1.1750 -1.0423 -2.2487
40244SOL    HW232458   4.861   7.633  10.382 -0.1442 -0.4678 -0.1499
40245SOL     OW32459  12.025  11.766   8.253  0.2766 -0.1651 -0.2249
40245SOL    HW132460  11.937  11.736   8.274  0.1480 -1.6850 -2.5958
40245SOL    HW232461  12.014  11.820   8.175  1.3503  0.5390  0.0859
40246SOL     OW32462   7.749   7.448   7.706  0.0535  0.1272  0.0569
40246SOL    HW132463   7.683   7.379   7.695  1.5420 -1.4227  0.5180
40246SOL    HW232464   7.815   7.429   7.640  0.8804  0.6370  0.7119
40247SOL     OW32465   8.679  13.165   4.640 -0.7337 -0.0074  0.2304
40247SOL    HW132466   8.769  13.189   4.620 -1.0067  0.3629 -0.6098
40247SOL    HW232467   8.663  13.088   4.586 -0.6370 -0.6372  1.0778
40248SOL     OW32468  11.084   7.526   2.177  0.2017 -0.0131  0.5597
40248SOL    HW132469  11.099   7.458   2.242  0.9751  0.0371  0.4377
40248SOL    HW232470  11.127   7.604   2.212  0.0596  0.1868  0.2973
40249SOL     OW32471  11.077   5.525   3.036 -0.5686  0.4889  0.0653
40249SOL    HW132472  11.124   5.558   2.959  0.1263 -0.5598  0.0201
40249SOL    HW232473  11.142   5.525   3.106 -0.0141 -2.3194 -0.3369
40250SOL     OW32474   4.717   6.009   9.202 -0.0629 -0.3839 -0.0204
40250SOL    HW132475   4.779   6.077   9.177 -0.7624 -0.3712 -1.8996
40250SOL    HW232476   4.670   5.989   9.121 -2.1469 -0.7656  1.2063
40251SOL     OW32477   3.213   9.341   4.359 -0.2595 -0.6092  0.0284
40251SOL    HW132478   3.286   9.279   4.354 -0.7023 -1.0666 -1.5063
40251SOL    HW232479   3.243   9.417   4.309 -0.6971 -0.6585 -0.3148
40252SOL     OW32480   6.858   0.676   4.087  0.4653 -0.1897  0.2282
40252SOL    HW132481   6.832   0.609   4.150  0.5556 -0.2608  0.1889
40252SOL    HW232482   6.873   0.629   4.005 -2.1706  0.1794 -0.5776
40253SOL     OW32483   9.023  12.497   8.231  0.1627  0.0559 -0.5891
40253SOL    HW132484   9.058  12.465   8.314  2.2157 -0.0305 -1.3996
40253SOL    HW232485   9.095  12.549   8.194 -1.6909  2.4219 -1.0785
40254SOL     OW32486   3.368   0.712   7.335  0.1340  0.1525 -0.5339
40254SOL    HW132487   3.340   0.704   7.244  0.4296  0.4693 -0.6543
40254SOL    HW232488   3.369   0.807   7.351  0.7829  0.1308 -0.4219
40255SOL     OW32489  11.987  12.484   6.311 -0.0591  0.7470 -0.1115
40255SOL    HW132490  11.925  12.545   6.271 -3.2862  0.6041  4.0073
40255SOL    HW232491  12.038  12.538   6.372  1.1395  0.1888 -0.5799
40256SOL     OW32492   7.921  12.459   2.827 -0.1697  0.2268  0.0288
40256SOL    HW132493   7.984  12.443   2.897 -0.4245 -0.2580  0.1500
40256SOL    HW232494   7.974  12.459   2.747  0.0197  0.0769  0.1544
40257SOL     OW32495  10.983   4.505   4.043  0.5434 -0.2783  0.0025
40257SOL    HW132496  10.895   4.513   4.080  1.0850 -1.9760  1.8938
40257SOL    HW232497  10.972   4.520   3.950 -1.3120  2.0261  0.4923
40258SOL     OW32498   1.930  11.282   7.952 -0.3118 -0.0131  0.2973
40258SOL    HW132499   1.925  11.368   7.911 -1.1023 -0.2405 -0.0865
40258SOL    HW232500   1.896  11.222   7.886 -0.7605 -0.4910  0.9608
40259SOL     OW32501   9.447  13.340   4.091 -0.1603  0.1290 -0.0589
40259SOL    HW132502   9.528  13.366   4.136 -0.0990 -1.2274  0.6600
40259SOL    HW232503   9.411  13.269   4.145 -0.9643 -0.4035 -1.2560
40260SOL     OW32504   4.097   9.115  10.473 -0.3856  0.0294 -0.2765
40260SOL    HW132505   4.192   9.105  10.477 -0.4767 -1.5941 -1.3701
40260SOL    HW232506   4.074   9.155  10.557  1.1795 -0.1992  0.2950
40261SOL     OW32507   3.824   5.255   6.636 -0.1439  0.8982 -0.1048
40261SOL    HW132508   3.736   5.278   6.667 -0.7303  1.0019 -1.7247
40261SOL    HW232509   3.883   5.307   6.690 -1.1346  1.5194  0.4157
40262SOL     OW32510   4.666   5.144   6.656 -0.4519 -0.1628 -0.0296
40262SOL    HW132511   4.583   5.191   6.666  0.2671  1.0250  0.5533
40262SOL    HW232512   4.675   5.094   6.737 -0.2307  0.3469  0.2716
40263SOL     OW32513   9.661   2.255   9.498 -0.3126  0.5877 -0.0709
40263SOL    HW132514   9.675   2.274   9.405 -2.1237  0.6346 -0.3601
40263SOL    HW232515   9.744   2.280   9.540  0.1037  1.7370 -1.4942
40264SOL     OW32516   6.702  13.390   3.047 -0.1014  0.0768  0.7723
40264SOL    HW132517   6.653  13.463   3.085 -0.6448  1.0692 -1.6818
40264SOL    HW232518   6.789  13.426   3.027 -0.5697  0.2951 -1.0349
40265SOL     OW32519   7.825  10.404   4.264 -0.8197 -0.2694 -0.7190
40265SOL    HW132520   7.844  10.368   4.350  0.0317  0.4841 -0.5869
40265SOL    HW232521   7.890  10.363   4.206 -1.2576 -0.6160 -0.9783
40266SOL     OW32522   6.946  12.379  13.045  0.5418  0.3844  0.0795
40266SOL    HW132523   6.904  12.341  13.122 -0.2694  0.5034 -0.2933
40266SOL    HW232524   6.950  12.473  13.063  2.1572  0.2052  0.8157
40267SOL     OW32525  11.516   2.484  12.134 -0.4010 -0.0801 -0.0621
40267SOL    HW132526  11.550   2.560  12.087  0.1955  0.1358  0.6887
40267SOL    HW232527  11.497   2.517  12.222 -1.7497 -0.4021 -0.1982
40268SOL     OW32528   6.201  13.168   9.103 -0.0540  0.0572  0.0183
40268SOL    HW132529   6.173  13.260   9.107 -1.8461 -0.4356 -0.3782
40268SOL    HW232530   6.180  13.140   9.014 -2.4967 -1.5816  1.0122
40269SOL     OW32531  12.566  12.648   9.620 -0.1241  0.3303 -0.1515
40269SOL    HW132532  12.481  12.664   9.661  1.3100  2.1101  2.3944
40269SOL    HW232533  12.550  12.575   9.560 -3.4770  0.7956 -0.0122
40270SOL     OW32534   8.977   0.970   6.419 -0.3586 -0.5701  0.4513
40270SOL    HW132535   8.942   0.981   6.507 -2.3819 -0.5965 -0.2922
40270SOL    HW232536   8.971   0.875   6.403  0.5247 -0.6390  0.4648
40271SOL     OW32537   4.879   9.545  12.874 -0.0179  0.2267 -0.1927
40271SOL    HW132538   4.921   9.524  12.791 -0.4607  2.1485 -0.9688
40271SOL    HW232539   4.953   9.562  12.934  0.2973 -0.4022 -0.3922
40272SOL     OW32540   7.407   1.227   2.930 -0.1307 -0.0645  0.8672
40272SOL    HW132541   7.389   1.251   3.021  0.7487  3.9472  0.1971
40272SOL    HW232542   7.493   1.265   2.912  0.3859 -2.0299 -1.2816
40273SOL     OW32543  11.771   9.483   8.546 -0.1990 -0.2666  0.6324
40273SOL    HW132544  11.854   9.439   8.564  0.1905  0.0465 -0.3451
40273SOL    HW232545  11.781   9.570   8.585  0.1829 -0.0126 -0.0104
40274SOL     OW32546  13.131  11.672   8.849  0.7159  0.0467 -0.1591
40274SOL    HW132547  13.170  11.643   8.932  0.8231  0.7776  0.0519
40274SOL    HW232548  13.166  11.611   8.784  1.3480  0.0180  0.1984
40275SOL     OW32549   8.870   7.654   1.292  0.6567 -0.7617 -0.0127
40275SOL    HW132550   8.848   7.707   1.215 -1.2681 -0.9238  0.3748
40275SOL    HW232551   8.818   7.692   1.363  2.2987 -0.7005  1.2057
40276SOL     OW32552   4.365   1.987  11.159  0.3658 -0.1993 -0.2718
40276SOL    HW132553   4.272   1.965  11.155  0.3836 -0.1863 -0.9622
40276SOL    HW232554   4.403   1.922  11.218 -0.1337  0.0025  0.2851
40277SOL     OW32555   7.823  10.600   2.887 -0.3427 -0.2294  0.5540
40277SOL    HW132556   7.870  10.681   2.905  2.2494 -1.0342 -1.9646
40277SOL    HW232557   7.779  10.579   2.970  0.9732  2.3802  2.0297
40278SOL     OW32558   3.157   2.767   5.792 -0.1546  0.0620 -0.2597
40278SOL    HW132559   3.202   2.685   5.772 -0.9691 -0.6623  0.7468
40278SOL    HW232560   3.084   2.771   5.730 -0.8008 -0.5869  0.4272
40279SOL     OW32561  12.669   5.558  13.345 -0.9187 -0.6519  0.1588
40279SOL    HW132562  12.684   5.580  13.253 -0.9562 -0.5900  0.1678
40279SOL    HW232563  12.729   5.486  13.363 -2.0002 -1.7133 -0.3382
40280SOL     OW32564   6.527   1.630  11.468 -0.1012  0.5485  0.1196
40280SOL    HW132565   6.605   1.599  11.514 -0.2393  0.0395  0.0164
40280SOL    HW232566   6.453   1.601  11.521 -0.2161  1.4678  0.4851
40281SOL     OW32567  11.380  10.542   9.244 -0.3466 -0.1518 -0.3243
40281SOL    HW132568  11.457  10.513   9.194 -0.9856  1.5445 -2.4657
40281SOL    HW232569  11.309  10.486   9.212 -0.2533 -0.9371  0.7960
40282SOL     OW32570  13.597   1.026   6.981 -0.0125 -0.9044  0.6451
40282SOL    HW132571  13.663   0.973   6.937 -0.1131 -0.5909  0.1175
40282SOL    HW232572  13.514   0.995   6.946 -0.0942 -0.6774  0.6419
40283SOL     OW32573   1.575  13.175   7.433  0.4892  0.1559  0.4754
40283SOL    HW132574   1.526  13.095   7.453  0.9846  0.3791  2.8006
40283SOL    HW232575   1.513  13.246   7.448  1.3871  0.4449  3.4947
40284SOL     OW32576  11.030   8.788   7.372  0.1002  0.0713 -0.1956
40284SOL    HW132577  10.994   8.825   7.292 -1.2143  0.1690  0.4071
40284SOL    HW232578  11.117   8.757   7.348  1.2853  3.4355 -0.7724
40285SOL     OW32579  10.225   3.207   0.350 -0.3635  0.0937  0.1008
40285SOL    HW132580  10.170   3.128   0.350 -0.4803  0.1451  1.4307
40285SOL    HW232581  10.245   3.221   0.442  2.8118 -0.5413 -0.3697
40286SOL     OW32582   5.549   1.591   3.309 -0.2271  0.6871 -0.1077
40286SOL    HW132583   5.519   1.627   3.392 -2.0530  0.3749 -0.5846
40286SOL    HW232584   5.484   1.524   3.287  1.6076 -1.0445 -0.5520
40287SOL     OW32585   5.675   6.222   7.239  0.0758  0.7568 -0.2406
40287SOL    HW132586   5.642   6.196   7.325  2.8258  0.0230  0.6957
40287SOL    HW232587   5.624   6.300   7.216 -1.5580  0.2657  1.4704
40288SOL     OW32588   2.886   6.628  11.121 -0.6793  0.7988  0.4626
40288SOL    HW132589   2.854   6.654  11.207 -1.4125 -0.4409  0.5905
40288SOL    HW232590   2.810   6.590  11.078 -0.2573  1.1771 -0.6483
40289SOL     OW32591   4.770  13.519   5.066 -0.2083 -0.4419 -0.1127
40289SOL    HW132592   4.684  13.484   5.088  0.0217 -0.4437  0.8343
40289SOL    HW232593   4.817  13.445   5.027  0.3768 -1.3435  2.1483
40290SOL     OW32594   5.093  12.313   5.155  0.1956  0.6202 -0.3717
40290SOL    HW132595   5.172  12.355   5.119  0.5733 -0.2301 -0.5533
40290SOL    HW232596   5.110  12.219   5.147 -1.3331  0.4165 -1.4936
40291SOL     OW32597   5.233   0.367   9.021 -0.2533  0.7077  0.4419
40291SOL    HW132598   5.299   0.342   9.086  0.7478  0.6072 -0.5818
40291SOL    HW232599   5.171   0.294   9.021  0.4407  0.0967  0.3735
40292SOL     OW32600   7.949   2.827   8.701  0.0120 -0.0397 -0.3335
40292SOL    HW132601   8.028   2.821   8.755  0.0550  1.1567 -0.2341
40292SOL    HW232602   7.973   2.786   8.618  0.8139  0.4967 -0.3800
40293SOL     OW32603   5.278   0.657   9.199 -0.0284 -0.6401  0.2394
40293SOL    HW132604   5.355   0.607   9.171 -0.5958 -0.7980 -1.1412
40293SOL    HW232605   5.274   0.644   9.293  0.5241 -2.2243  0.0744
40294SOL     OW32606  10.351   1.713   1.034  1.0276  0.4616 -0.5076
40294SOL    HW132607  10.390   1.655   0.969 -2.1515  0.5918 -2.8109
40294SOL    HW232608  10.301   1.655   1.091  0.6382  0.6318 -0.6691
40295SOL     OW32609   1.521   7.166  10.648 -0.2772  0.2645 -0.6313
40295SOL    HW132610   1.441   7.113  10.651 -0.8062  0.9929 -1.2532
40295SOL    HW232611   1.578   7.118  10.588 -1.0420  0.7464 -1.7894
40296SOL     OW32612  12.610   2.266   5.911  0.3062  0.3149 -0.1040
40296SOL    HW132613  12.612   2.277   5.816  0.3652 -2.0685 -0.4277
40296SOL    HW232614  12.534   2.318   5.940 -0.2424  0.3493 -1.5457
40297SOL     OW32615   3.018   0.351  10.214 -0.2987  0.3154 -0.3165
40297SOL    HW132616   2.959   0.307  10.153  2.1974  0.1662 -2.8187
40297SOL    HW232617   3.038   0.284  10.280 -1.3598 -0.2387 -0.5328
40298SOL     OW32618   0.336   1.417   4.406 -0.4553  0.6775  0.4618
40298SOL    HW132619   0.241   1.403   4.414 -0.4712  1.2748  1.5512
40298SOL    HW232620   0.369   1.337   4.365 -1.3400  0.1571  0.7397
40299SOL     OW32621   9.707   4.085   7.368  0.5303 -0.1968  0.5098
40299SOL    HW132622   9.748   4.150   7.311 -1.2048  1.2014  0.7669
40299SOL    HW232623   9.710   4.123   7.455  1.6697 -1.5908  1.1246
40300SOL     OW32624   1.547  13.086   8.273  0.0861  0.4034  0.1431
40300SOL    HW132625   1.543  13.172   8.232  2.2661 -0.1135 -1.3531
40300SOL    HW232626   1.513  13.026   8.207  0.5992 -0.0984  0.3278
40301SOL     OW32627  11.333   5.221  10.454  0.2006 -0.0710  0.0958
40301SOL    HW132628  11.362   5.202  10.544 -0.3195  0.0076  0.2843
40301SOL    HW232629  11.413   5.247  10.409  0.7699 -1.6986  0.0891
40302SOL     OW32630  11.029   3.828   5.374 -0.0122  0.4577 -0.1517
40302SOL    HW132631  11.082   3.907   5.376  0.1133  0.3521  1.7303
40302SOL    HW232632  11.027   3.803   5.281 -0.3015  2.7922 -0.8233
40303SOL     OW32633   5.839   5.617   6.672  0.0166 -0.6667  0.0820
40303SOL    HW132634   5.904   5.629   6.741 -0.5492 -0.6977  0.6305
40303SOL    HW232635   5.839   5.522   6.656  1.3577 -0.4878 -1.1707
40304SOL     OW32636  12.101   6.410   7.935  0.1698 -0.6220  0.0440
40304SOL    HW132637  12.050   6.491   7.945  0.8927 -0.2664  1.0753
40304SOL    HW232638  12.159   6.427   7.861 -0.6963 -0.7599 -0.6793
40305SOL     OW32639   4.055   8.544   6.852 -0.1736  0.0554 -0.2681
40305SOL    HW132640   4.141   8.570   6.818 -0.1881  1.3477  0.6103
40305SOL    HW232641   4.067   8.455   6.884  1.0366  0.4640  0.4799
40306SOL     OW32642   5.296   0.997   5.936  0.7831 -0.0060  0.2941
40306SOL    HW132643   5.375   1.029   5.891  0.2254  0.0481 -0.6755
40306SOL    HW232644   5.288   0.906   5.907  0.3604  0.0587  0.2052
40307SOL     OW32645   8.722   7.460   1.100 -0.3102  0.2889 -0.7241
40307SOL    HW132646   8.650   7.513   1.133  0.4837  0.5977  0.5630
40307SOL    HW232647   8.788   7.523   1.073 -0.5788  0.0153 -2.1372
40308SOL     OW32648   7.195   0.609   1.397  0.5357  0.2228 -0.3381
40308SOL    HW132649   7.274   0.643   1.440  0.0324  0.3277  0.5205
40308SOL    HW232650   7.151   0.686   1.362  0.2819  0.2749  0.0937
40309SOL     OW32651   7.490  13.352   7.472  0.1349 -0.4720 -0.0459
40309SOL    HW132652   7.579  13.325   7.449  0.2672 -0.5853  0.5812
40309SOL    HW232653   7.491  13.361   7.567  0.9443  4.5355 -0.2505
40310SOL     OW32654   4.983   9.203   1.495 -0.4782  0.5661  0.3962
40310SOL    HW132655   5.039   9.250   1.432 -0.6953  2.0548  1.2867
40310SOL    HW232656   4.896   9.203   1.454 -0.2144 -0.2331 -0.1959
40311SOL     OW32657  10.460   4.708   6.121 -0.2325 -0.1981  0.3967
40311SOL    HW132658  10.375   4.729   6.082 -1.1883 -0.0974  2.4372
40311SOL    HW232659  10.448   4.719   6.215  1.9161 -0.6727  0.7959
40312SOL     OW32660  12.745  13.453   7.676  0.4380  0.5365 -0.1410
40312SOL    HW132661  12.679  13.431   7.742  1.4350 -0.6899  0.4944
40312SOL    HW232662  12.697  13.453   7.594 -0.6862  1.3865  0.4933
40313SOL     OW32663   3.488   9.476  10.072  0.6930  0.5201  0.4413
40313SOL    HW132664   3.396   9.449  10.068  0.9569 -0.2024 -2.2527
40313SOL    HW232665   3.491   9.561  10.028  1.3485  0.4049  0.2446
40314SOL     OW32666  10.685   9.877  10.482  0.6720 -0.0543 -0.1092
40314SOL    HW132667  10.747   9.940  10.445 -1.4312  2.1421 -0.1537
40314SOL    HW232668  10.738   9.801  10.504  2.8563  0.5267 -2.8726
40315SOL     OW32669  13.015   6.175  11.146 -0.1879  0.8101 -0.4776
40315SOL    HW132670  13.081   6.161  11.213 -0.1694  1.3330 -0.3812
40315SOL    HW232671  12.971   6.256  11.172  0.4715  1.5623 -1.6106
40316SOL     OW32672   7.180   8.086   7.836  0.0025 -0.0520 -0.1761
40316SOL    HW132673   7.201   8.041   7.754 -1.8605 -0.3329 -0.5411
40316SOL    HW232674   7.089   8.111   7.826  0.0097  0.7104  1.4688
40317SOL     OW32675  11.567   4.799   3.848  0.3063  0.8713  0.2138
40317SOL    HW132676  11.629   4.861   3.887  0.3701 -0.4926  2.5241
40317SOL    HW232677  11.481   4.830   3.876  0.3672 -0.2561  1.8183
40318SOL     OW32678   2.349   6.075   5.301  0.4232  0.3430  0.0197
40318SOL    HW132679   2.288   6.031   5.242 -2.2390  1.8821  1.4445
40318SOL    HW232680   2.351   6.166   5.269  1.4772  0.4602  0.4053
40319SOL     OW32681  13.030  11.857   8.655  0.1665 -0.1316 -0.1287
40319SOL    HW132682  12.938  11.880   8.646  0.0140 -1.1351 -1.3821
40319SOL    HW232683  13.037  11.821   8.744 -0.7901 -0.6582 -0.2509
40320SOL     OW32684   9.345   0.689   2.036 -0.3365 -0.3035  0.1000
40320SOL    HW132685   9.394   0.606   2.032  0.8561  0.4324 -1.5622
40320SOL    HW232686   9.327   0.710   1.944  0.7343  2.0594  0.3823
40321SOL     OW32687  10.266   3.672  12.808 -0.4443 -0.2268  0.3872
40321SOL    HW132688  10.258   3.711  12.721  0.7606 -1.2784 -0.2352
40321SOL    HW232689  10.244   3.579  12.795  0.2403 -0.5023  1.0996
40322SOL     OW32690   0.121   0.087   0.080 -0.1018 -0.5045  0.3209
40322SOL    HW132691   0.111  -0.007   0.068  2.6666 -0.8044 -0.2628
40322SOL    HW232692   0.080   0.126   0.002 -0.8534 -1.2083  0.3461
40323SOL     OW32693  10.606   7.204   7.492  0.1492 -0.2413  0.5114
40323SOL    HW132694  10.585   7.124   7.540  0.3638  0.2801  1.5123
40323SOL    HW232695  10.695   7.190   7.460  0.1969 -0.3953  0.7096
40324SOL     OW32696  13.517   8.843  10.879  0.3215  0.8986 -0.8214
40324SOL    HW132697  13.535   8.916  10.821  1.4259  2.0768  0.9072
40324SOL    HW232698  13.455   8.878  10.943 -1.2699 -0.5164 -1.5112
40325SOL     OW32699   7.821  11.171   4.526 -0.2904  0.7441 -0.1943
40325SOL    HW132700   7.765  11.205   4.457 -0.4625  0.6862 -0.0837
40325SOL    HW232701   7.909  11.198   4.501 -0.4042  1.1139 -0.2014
40326SOL     OW32702   7.782  12.010   4.844 -0.1758 -0.2991 -0.7088
40326SOL    HW132703   7.767  12.104   4.835 -1.5815 -0.5352 -1.0741
40326SOL    HW232704   7.800  11.997   4.937 -0.9310  0.2125 -0.4850
40327SOL     OW32705  12.306  12.690  12.487  0.7012  0.0362 -0.3075
40327SOL    HW132706  12.319  12.698  12.392  0.1633  1.3486 -0.2913
40327SOL    HW232707  12.327  12.776  12.521 -0.3617 -0.0486  0.6190
40328SOL     OW32708  10.118   6.719  11.987 -0.0951  0.3047 -0.5170
40328SOL    HW132709  10.142   6.652  12.051  0.1788  0.5989 -0.3100
40328SOL    HW232710  10.038   6.758  12.022  1.3111  2.0623  0.8668
40329SOL     OW32711   4.536  12.541   5.613 -0.3414  0.2756 -0.0939
40329SOL    HW132712   4.447  12.570   5.593  0.1284  1.1792 -0.9671
40329SOL    HW232713   4.588  12.571   5.539  0.9336  0.9669  1.0372
40330SOL     OW32714  11.500  13.072   1.272  0.6863 -0.3224  0.4672
40330SOL    HW132715  11.494  13.148   1.330 -0.1712  1.5432 -1.9033
40330SOL    HW232716  11.447  13.005   1.315  1.3102  0.4447  2.5401
40331SOL     OW32717   1.510   3.894   7.849  0.4517 -0.1912 -0.2061
40331SOL    HW132718   1.441   3.951   7.883  0.7970 -0.5182  1.1143
40331SOL    HW232719   1.526   3.926   7.761 -1.3141 -0.0536 -0.5166
40332SOL     OW32720   0.070  12.955   5.915  0.0906 -0.2040  0.6117
40332SOL    HW132721   0.098  13.043   5.936  0.6331 -0.1334 -0.3417
40332SOL    HW232722   0.143  12.917   5.866 -0.4556 -0.8996  0.3141
40333SOL     OW32723  11.418   9.434   5.850 -0.4368  0.9576 -0.3481
40333SOL    HW132724  11.475   9.492   5.801 -0.0806  1.0378  0.1551
40333SOL    HW232725  11.333   9.442   5.807  0.2479 -0.2972 -2.0628
40334SOL     OW32726   9.884   1.966   9.833  0.5162 -0.1985  0.1085
40334SOL    HW132727   9.792   1.949   9.812 -0.0061  0.7065  1.5037
40334SOL    HW232728   9.886   2.058   9.857  1.7169 -0.3190  0.5098
40335SOL     OW32729   8.479   6.169   9.450 -0.1819 -0.3277 -0.0942
40335SOL    HW132730   8.401   6.121   9.479 -0.4022 -0.4584 -0.8678
40335SOL    HW232731   8.551   6.109   9.466 -0.3056 -0.4269  0.1000
40336SOL     OW32732   1.154  13.610   3.437  0.1368 -0.1942 -0.7119
40336SOL    HW132733   1.098  13.581   3.365 -2.7369  2.3559  0.2443
40336SOL    HW232734   1.126  13.557   3.512  1.2723 -1.0517 -0.8773
40337SOL     OW32735  12.160   3.557   8.256  0.1641 -0.3673 -0.1951
40337SOL    HW132736  12.139   3.509   8.176  1.1567  0.4745 -0.9936
40337SOL    HW232737  12.104   3.518   8.323 -0.8110 -0.9773 -1.3319
40338SOL     OW32738  12.053   5.523   3.878  0.1199  0.2299 -0.1393
40338SOL    HW132739  12.055   5.555   3.969 -2.2286  2.0349 -0.6175
40338SOL    HW232740  11.980   5.462   3.876  1.4871 -1.4701 -0.3993
40339SOL     OW32741   1.633  10.476   9.273 -0.0087  0.6728  0.2093
40339SOL    HW132742   1.632  10.435   9.186 -0.2767 -0.8208  0.8804
40339SOL    HW232743   1.707  10.536   9.270 -0.3425  1.0589 -1.2202
40340SOL     OW32744   4.665   0.416   5.320  0.0177 -0.8686 -0.0657
40340SOL    HW132745   4.587   0.362   5.330 -0.8405  0.5704  1.5360
40340SOL    HW232746   4.715   0.401   5.401 -0.2934  0.7669  0.4576
40341SOL     OW32747   4.187   1.091  12.204  0.1423 -0.3539 -0.4491
40341SOL    HW132748   4.126   1.155  12.167 -0.4297 -1.0031 -0.6622
40341SOL    HW232749   4.273   1.127  12.186 -0.1187  1.9293  2.2101
40342SOL     OW32750   5.087   4.117  12.978 -0.0915 -0.6635  0.4574
40342SOL    HW132751   5.047   4.048  13.032 -1.5920  0.6759  1.1549
40342SOL    HW232752   5.106   4.187  13.040  0.4816 -0.0617 -0.3824
40343SOL     OW32753   1.171   2.390  13.104  0.1653 -0.1698  0.1580
40343SOL    HW132754   1.184   2.392  13.009 -0.1384 -0.1148  0.1147
40343SOL    HW232755   1.089   2.341  13.116 -0.4315  0.8314  0.3149
40344SOL     OW32756  10.087   0.397   2.958  0.7230 -0.1967  0.2393
40344SOL    HW132757  10.178   0.422   2.973  1.1677 -1.6813  0.1173
40344SOL    HW232758  10.088   0.302   2.957 -0.6372 -0.2253 -1.0294
40345SOL     OW32759  12.249  12.397   8.290  0.2492 -0.1972  0.6771
40345SOL    HW132760  12.311  12.397   8.217 -0.4014  1.5055  0.0573
40345SOL    HW232761  12.189  12.325   8.271 -0.0810  0.3907 -0.6635
40346SOL     OW32762   5.350  11.085   5.123  0.4250  0.5040  1.0206
40346SOL    HW132763   5.403  11.163   5.142  1.8442 -0.3256  0.6323
40346SOL    HW232764   5.405  11.033   5.064  0.0624 -1.3791  2.2690
40347SOL     OW32765  10.178  10.932   9.865  0.4206 -0.1061  0.4941
40347SOL    HW132766  10.252  10.966   9.815  0.0075 -1.0277 -0.7998
40347SOL    HW232767  10.139  11.009   9.906 -0.0168  0.9252 -1.6993
40348SOL     OW32768  10.948   9.643   4.774  0.6248  0.1610 -0.1056
40348SOL    HW132769  11.006   9.647   4.698  0.9827 -0.0330  0.1595
40348SOL    HW232770  10.861   9.663   4.738  0.8096  0.1861 -0.5457
40349SOL     OW32771  12.787  11.519   0.304  0.5407  0.2314 -0.6019
40349SOL    HW132772  12.793  11.571   0.384 -0.7769 -1.2104  0.5174
40349SOL    HW232773  12.874  11.523   0.266  1.8583 -0.7279  2.0413
40350SOL     OW32774   3.532   7.622   4.047 -0.0637  0.4052 -0.3282
40350SOL    HW132775   3.623   7.632   4.073 -0.0248 -0.7533  0.0195
40350SOL    HW232776   3.487   7.593   4.126 -0.4524 -0.4622 -0.8497
40351SOL     OW32777  11.051   9.161   3.666 -0.3104  0.1691  0.4033
40351SOL    HW132778  11.079   9.213   3.590  0.3910  1.1253  1.2893
40351SOL    HW232779  10.956   9.156   3.657 -0.2151 -0.0757 -0.7411
40352SOL     OW32780  10.604  12.698  11.896  0.2183 -0.2147 -0.6332
40352SOL    HW132781  10.575  12.721  11.808 -2.1380  0.3723  0.2097
40352SOL    HW232782  10.609  12.603  11.896 -0.7704 -0.2834 -1.1506
40353SOL     OW32783   2.270  10.591   4.965  0.1411  0.3270  0.1935
40353SOL    HW132784   2.337  10.656   4.944 -0.0729  0.2952 -0.6215
40353SOL    HW232785   2.208  10.638   5.022 -0.6154  1.2074 -1.2765
40354SOL     OW32786  12.936   7.692   2.039 -0.4297 -0.5228  0.1261
40354SOL    HW132787  13.012   7.661   2.089  1.6560  0.0314 -2.4858
40354SOL    HW232788  12.890   7.612   2.015  0.8281 -1.1170 -0.4343
40355SOL     OW32789   7.636   3.448  10.646 -0.0384  0.0775 -0.4438
40355SOL    HW132790   7.652   3.367  10.694  1.1039 -0.0913 -1.0819
40355SOL    HW232791   7.541   3.459  10.649 -0.0195  0.2035  2.0520
40356SOL     OW32792   3.658   9.956  10.523  0.5231  0.2707 -0.2449
40356SOL    HW132793   3.645   9.989  10.612  0.6443  0.8074 -0.4246
40356SOL    HW232794   3.570   9.934  10.492  0.4971 -0.0745  0.0634
40357SOL     OW32795   6.431   2.689   6.641  0.6425  0.1026 -0.0089
40357SOL    HW132796   6.422   2.607   6.690 -0.3662  0.1208 -0.1604
40357SOL    HW232797   6.478   2.747   6.702  0.0014 -0.0907  0.6876
40358SOL     OW32798   0.661   7.856  11.811 -0.2235  0.1408 -0.2313
40358SOL    HW132799   0.722   7.786  11.837  0.0935  0.7165  0.6381
40358SOL    HW232800   0.618   7.822  11.732  1.2227 -0.2881 -0.8741
40359SOL     OW32801   0.924   2.518   9.308 -0.1554 -0.4359  0.1068
40359SOL    HW132802   0.829   2.527   9.312 -0.1219  0.1734 -0.2843
40359SOL    HW232803   0.942   2.435   9.350 -0.9315 -0.9447 -0.5271
40360SOL     OW32804   1.588   8.247   0.961  0.5170  0.2650  0.0137
40360SOL    HW132805   1.496   8.243   0.986  0.0728  1.7497 -1.2831
40360SOL    HW232806   1.596   8.325   0.907  2.2742 -0.5332 -0.9885
40361SOL     OW32807   1.047   0.199   7.038 -0.1625  0.7193  0.0048
40361SOL    HW132808   1.091   0.203   7.123  1.0542 -0.0577 -0.5690
40361SOL    HW232809   1.112   0.229   6.975 -0.6677  0.1856 -0.7969
40362SOL     OW32810  13.242   3.724  13.665 -0.6053  0.0602 -0.3310
40362SOL    HW132811  13.147   3.735  13.665 -0.4882  1.2627  0.6426
40362SOL    HW232812  13.275   3.801  13.711  0.8627 -0.2057 -0.8803
40363SOL     OW32813   4.170   0.009   6.652 -0.4946  0.4142 -0.1071
40363SOL    HW132814   4.115  -0.069   6.659  0.1101 -0.1723 -1.4754
40363SOL    HW232815   4.152   0.043   6.564  0.7082  0.6659 -0.2757
40364SOL     OW32816   5.184   4.976   6.652 -0.2524 -0.0040 -0.0792
40364SOL    HW132817   5.166   4.883   6.658  0.1054 -0.0307  0.9195
40364SOL    HW232818   5.101   5.016   6.627 -0.6673 -0.4981  0.4940
40365SOL     OW32819   6.232  11.812   0.936  0.1081 -0.2791  0.0850
40365SOL    HW132820   6.207  11.743   0.998  0.1579  1.1674  1.7879
40365SOL    HW232821   6.327  11.809   0.933  0.1332  0.0277  0.5396
40366SOL     OW32822  12.409   8.313  10.527 -0.1149  0.2764  0.6235
40366SOL    HW132823  12.345   8.265  10.579  0.9558 -0.8013  1.0211
40366SOL    HW232824  12.461   8.244  10.485  0.6058  1.1136  0.1209
40367SOL     OW32825   9.806   2.234   5.643 -0.4693  0.5614 -0.1234
40367SOL    HW132826   9.842   2.298   5.582  1.9015  0.4197  1.0293
40367SOL    HW232827   9.867   2.234   5.717 -2.4647 -0.2738  1.6525
40368SOL     OW32828   3.307   1.273   2.998  0.1369 -0.1781  0.3367
40368SOL    HW132829   3.381   1.334   2.999  1.3360 -1.5657  1.6965
40368SOL    HW232830   3.243   1.314   2.940  1.9491  1.0892 -0.8803
40369SOL     OW32831   0.850   8.941   0.838 -0.1957 -0.3542 -0.3647
40369SOL    HW132832   0.898   8.984   0.767 -0.1338 -2.2833 -1.5748
40369SOL    HW232833   0.910   8.876   0.872 -0.2545  0.5007  1.4860
40370SOL     OW32834   9.603   5.709   8.990 -0.1222 -0.1393  0.0476
40370SOL    HW132835   9.685   5.758   8.992 -1.4982  2.3304 -0.3490
40370SOL    HW232836   9.574   5.708   9.082 -0.3432  0.2706 -0.0147
40371SOL     OW32837   2.713  12.118   0.176 -0.0881  0.0383 -0.3032
40371SOL    HW132838   2.776  12.181   0.211  0.3848 -0.4824 -0.2039
40371SOL    HW232839   2.635  12.171   0.157  0.0023  0.5070  0.5600
40372SOL     OW32840   6.183   2.129   0.582  0.0588 -0.0047  0.1504
40372SOL    HW132841   6.233   2.084   0.515 -1.9018  1.1378 -2.2494
40372SOL    HW232842   6.094   2.095   0.573 -0.7405  1.8234  0.5522
40373SOL     OW32843   5.584   0.933   4.184 -0.2474 -0.3275 -0.1038
40373SOL    HW132844   5.530   0.876   4.239 -0.6858 -0.2652 -0.4600
40373SOL    HW232845   5.600   0.881   4.105  1.3513 -0.8660  0.5377
40374SOL     OW32846   3.760   6.471  12.297 -0.1044 -0.1955  0.3230
40374SOL    HW132847   3.819   6.481  12.372  0.0393  1.3553  0.0387
40374SOL    HW232848   3.672   6.472  12.335 -0.0602  1.2570  0.4526
40375SOL     OW32849  10.923  12.852   6.682 -0.0477  0.4685 -0.2912
40375SOL    HW132850  10.954  12.942   6.697 -1.9719  1.3172 -1.0378
40375SOL    HW232851  10.988  12.814   6.622  0.2033  1.7787 -0.8963
40376SOL     OW32852   2.539   6.823   7.979  0.0385  0.6279 -0.4468
40376SOL    HW132853   2.543   6.729   7.957  2.2583  0.8370 -1.1612
40376SOL    HW232854   2.511   6.825   8.070 -2.0921 -0.6096 -1.0024
40377SOL     OW32855   3.296  13.161   3.598  0.1360  0.1810  0.3505
40377SOL    HW132856   3.387  13.189   3.605 -0.2709  1.2765  1.8569
40377SOL    HW232857   3.268  13.147   3.689 -0.9176 -1.1210 -0.1400
40378SOL     OW32858   1.004   3.578   7.937 -0.0208 -0.5877 -0.2723
40378SOL    HW132859   1.071   3.644   7.955  0.2867 -0.3610 -2.0879
40378SOL    HW232860   0.921   3.624   7.952  0.1921 -0.6085  1.0978
40379SOL     OW32861   7.771   7.482   9.073 -0.4246 -0.0396 -0.3516
40379SOL    HW132862   7.744   7.521   8.990  2.9335  0.5224 -1.3176
40379SOL    HW232863   7.809   7.398   9.049 -2.7022 -1.6169  1.1429
40380SOL     OW32864   2.988  10.379   4.166  0.2328 -0.4528  0.2739
40380SOL    HW132865   3.028  10.376   4.253  0.8688  1.8077  0.1257
40380SOL    HW232866   3.054  10.421   4.111 -0.8487 -0.2404 -0.8956
40381SOL     OW32867   5.111  10.124   9.262 -0.5161 -0.3182  0.6438
40381SOL    HW132868   5.068  10.050   9.305 -0.5585  0.0710  1.2682
40381SOL    HW232869   5.173  10.157   9.326 -0.9182  0.5636  0.5955
40382SOL     OW32870   9.989   6.213   0.670 -0.3490 -0.1443 -0.4951
40382SOL    HW132871  10.080   6.187   0.655 -0.2593  0.1181 -0.4102
40382SOL    HW232872   9.995   6.304   0.698 -0.5994 -0.2847  0.0278
40383SOL     OW32873   5.899  13.019   7.078 -0.2540 -0.0083  0.0683
40383SOL    HW132874   5.841  12.945   7.098  0.9622 -1.7223 -2.2085
40383SOL    HW232875   5.987  12.985   7.092  0.3193  1.3732 -0.0170
40384SOL     OW32876   0.196   9.828   7.102  0.3918  0.2232  0.0238
40384SOL    HW132877   0.291   9.818   7.089  0.3967  0.8379 -0.4276
40384SOL    HW232878   0.161   9.739   7.089  0.7829  0.1901 -0.9066
40385SOL     OW32879   9.856   2.031   8.256 -0.4167 -0.0342  0.2299
40385SOL    HW132880   9.939   2.045   8.302  0.2201  0.0895 -0.9096
40385SOL    HW232881   9.815   1.957   8.301  0.1362  0.1426  1.0396
40386SOL     OW32882   5.517   9.583   4.705 -0.0593  0.1104  0.5116
40386SOL    HW132883   5.464   9.638   4.647  0.2420  0.2271  0.3455
40386SOL    HW232884   5.499   9.493   4.677 -1.5234  0.0201  1.5827
40387SOL     OW32885   3.123   5.095   0.123 -0.2123 -0.0109 -0.3209
40387SOL    HW132886   3.099   5.043   0.046  1.7907 -0.5590 -0.6351
40387SOL    HW232887   3.089   5.045   0.197 -0.3758 -0.5421 -0.7467
40388SOL     OW32888  11.869   8.670  11.257  0.2126 -0.4141 -0.0962
40388SOL    HW132889  11.958   8.702  11.267  0.4739 -0.6096 -1.5642
40388SOL    HW232890  11.849   8.627  11.341  0.6199  1.6286  1.1090
40389SOL     OW32891   9.757   8.095   4.906 -0.4731  0.0763  0.1111
40389SOL    HW132892   9.730   8.027   4.845  0.1906  1.0422 -1.3247
40389SOL    HW232893   9.794   8.164   4.851 -0.4189  1.2775  1.5624
40390SOL     OW32894   5.114  10.871   3.821  0.3002  0.5510  1.0712
40390SOL    HW132895   5.043  10.877   3.885  1.4921  2.2033  2.3248
40390SOL    HW232896   5.166  10.950   3.835  1.3343  0.3346 -1.1118
40391SOL     OW32897  10.435  10.167   4.599  0.6483  0.6597  0.2043
40391SOL    HW132898  10.434  10.262   4.583  1.7623  0.7591  0.5970
40391SOL    HW232899  10.419  10.159   4.693  1.9544  0.5621  0.4377
40392SOL     OW32900   1.085   9.982   3.422 -0.6119 -0.1229 -0.1802
40392SOL    HW132901   1.145  10.025   3.361  0.0494 -0.8050 -0.0223
40392SOL    HW232902   1.139   9.919   3.469 -0.9843  0.7509  1.5052
40393SOL     OW32903   7.905   4.912   2.807 -0.3271 -0.6873 -0.0213
40393SOL    HW132904   7.813   4.923   2.832 -0.3384  2.6385 -1.1086
40393SOL    HW232905   7.950   4.983   2.852  1.1208 -0.1334 -2.2533
40394SOL     OW32906   7.389   5.173   3.965  0.0521  0.0578 -0.5466
40394SOL    HW132907   7.474   5.214   3.948  1.0188 -0.4671  2.3242
40394SOL    HW232908   7.408   5.106   4.031 -2.6857  0.3582  0.6932
40395SOL     OW32909   4.946  13.338   7.342 -0.1731  0.4149 -0.6266
40395SOL    HW132910   4.993  13.389   7.408 -0.1942  1.9765 -1.7611
40395SOL    HW232911   4.866  13.309   7.386  0.8457 -0.5113  0.6904
40396SOL     OW32912  13.700   9.877   7.404 -0.3671  0.3881  0.5928
40396SOL    HW132913  13.693   9.858   7.311 -0.8323  1.7123  0.3415
40396SOL    HW232914  13.778   9.932   7.412 -1.7190  2.4033  0.5979
40397SOL     OW32915  11.698   5.568   8.093 -0.3280 -0.0261  0.5908
40397SOL    HW132916  11.615   5.574   8.141 -1.2841 -1.5108 -0.8218
40397SOL    HW232917  11.707   5.476   8.070  0.8535  0.3928 -0.7932
40398SOL     OW32918  11.486  10.382  12.006  0.0531 -0.1894 -0.0865
40398SOL    HW132919  11.430  10.403  12.080  2.5064  4.2840  0.8650
40398SOL    HW232920  11.439  10.417  11.930 -0.7409 -1.3280 -0.1449
40399SOL     OW32921   7.203  12.348   9.169 -0.2791 -0.0657 -0.0187
40399SOL    HW132922   7.213  12.411   9.098 -0.0426 -1.6875 -1.4810
40399SOL    HW232923   7.170  12.269   9.127  1.9249 -1.8012  1.2723
40400SOL     OW32924   3.323  11.527   6.850 -0.7729 -0.0594 -0.5502
40400SOL    HW132925   3.332  11.452   6.909  1.8562  0.6183  0.0191
40400SOL    HW232926   3.371  11.501   6.771  1.9588  1.6612  0.4097
40401SOL     OW32927  13.214   5.046  13.729  0.5901  0.3050 -0.2768
40401SOL    HW132928  13.173   5.088  13.653 -0.2832 -0.7893 -0.4259
40401SOL    HW232929  13.180   5.094  13.804 -2.1448 -1.4447 -0.2933
40402SOL     OW32930  10.477   9.321   4.545 -0.3841  0.2216 -0.1504
40402SOL    HW132931  10.489   9.416   4.543  0.6765  0.0988 -0.2438
40402SOL    HW232932  10.539   9.288   4.480 -2.2935 -0.3983 -1.7791
40403SOL     OW32933  11.079   5.724   6.096 -0.0799 -0.1948 -0.1296
40403SOL    HW132934  11.145   5.658   6.076  0.7595  0.9447 -1.2635
40403SOL    HW232935  10.997   5.685   6.066  0.6079 -0.1547 -2.2648
40404SOL     OW32936  10.410   9.850   7.898  0.0594 -0.2996 -0.2887
40404SOL    HW132937  10.448   9.900   7.970 -0.0052 -1.3330  0.4877
40404SOL    HW232938  10.469   9.866   7.824 -0.1645  1.1969 -0.1726
40405SOL     OW32939   2.977   0.561  11.179  0.7295 -0.8234  0.0581
40405SOL    HW132940   2.943   0.495  11.119  0.1351 -1.2393  0.8283
40405SOL    HW232941   2.914   0.563  11.251  0.3014  1.1442 -0.2994
40406SOL     OW32942   7.729   6.566   8.188 -0.0016  0.1610 -0.1164
40406SOL    HW132943   7.730   6.633   8.119 -0.5483  0.3190  0.0219
40406SOL    HW232944   7.756   6.486   8.143 -0.1840  0.2983 -0.4765
40407SOL     OW32945   7.330  11.182   5.269  0.9201  0.0330  0.7720
40407SOL    HW132946   7.352  11.128   5.193 -0.1565  1.0400 -0.3016
40407SOL    HW232947   7.346  11.272   5.240 -0.9404  0.5441  1.1824
40408SOL     OW32948   2.377  10.111   2.064 -0.3847 -0.1282 -0.6108
40408SOL    HW132949   2.319  10.130   2.138  0.6576 -1.2427  0.5709
40408SOL    HW232950   2.341  10.160   1.991 -1.1509  1.4842  0.7798
40409SOL     OW32951  11.325   2.949   6.147 -0.3602 -0.0924  0.2540
40409SOL    HW132952  11.243   2.993   6.130 -0.6674 -1.3299 -1.7962
40409SOL    HW232953  11.386   2.985   6.083  0.1423 -0.5996  0.4327
40410SOL     OW32954   2.650   9.747   9.659  0.1362 -0.2710 -0.2758
40410SOL    HW132955   2.602   9.827   9.675  0.8114 -0.2075  1.7756
40410SOL    HW232956   2.714   9.742   9.730  0.5363 -2.3105 -0.6876
40411SOL     OW32957   4.970  12.062  10.173  0.0343 -0.3385  0.0301
40411SOL    HW132958   4.879  12.032  10.167 -0.9922  1.7611  2.9570
40411SOL    HW232959   4.968  12.154  10.148  0.9820  0.1885  1.6796
40412SOL     OW32960   1.377   6.001   6.830  0.1542  0.5034  0.0934
40412SOL    HW132961   1.378   5.925   6.888 -0.7764  0.8678  0.6160
40412SOL    HW232962   1.293   6.043   6.847 -0.0750  0.7069 -1.4317
40413SOL     OW32963   3.686   0.274   9.402  0.4094  0.0602 -0.6376
40413SOL    HW132964   3.772   0.291   9.441 -0.2644 -1.7237  1.9137
40413SOL    HW232965   3.698   0.193   9.352  0.3836  0.2384 -0.9340
40414SOL     OW32966   4.245   3.273   9.793  0.1463  0.6286  0.0976
40414SOL    HW132967   4.186   3.204   9.822  1.4892 -0.6074  0.0194
40414SOL    HW232968   4.226   3.347   9.850  0.1262 -0.5029  1.6232
40415SOL     OW32969  11.093   4.893   2.389 -0.3310  0.0889 -0.2531
40415SOL    HW132970  11.090   4.978   2.432 -0.2859  0.1793 -0.4270
40415SOL    HW232971  11.128   4.911   2.302  0.0183 -0.1590 -0.1675
40416SOL     OW32972   5.358   9.759   3.020  0.4809  0.3177 -0.2014
40416SOL    HW132973   5.315   9.719   2.945  1.0682  2.6647 -1.9036
40416SOL    HW232974   5.303   9.833   3.043  1.6036  1.0998  0.0609
40417SOL     OW32975   1.624   9.635  11.380  0.0843  0.6886  0.0819
40417SOL    HW132976   1.621   9.706  11.315  1.5352  1.4327  0.7743
40417SOL    HW232977   1.646   9.679  11.462  2.8369 -0.6836  0.2269
40418SOL     OW32978   6.396   7.026   8.083  0.1951 -0.2020  0.3839
40418SOL    HW132979   6.371   6.936   8.105  0.0894 -0.6097 -1.2896
40418SOL    HW232980   6.336   7.051   8.013  0.2114  1.2001  0.8377
40419SOL     OW32981   3.429  13.563  12.281  0.3701  0.1799 -0.2669
40419SOL    HW132982   3.467  13.482  12.246 -1.2185  0.0730 -1.9110
40419SOL    HW232983   3.346  13.535  12.319  0.0928  0.9558 -0.2987
40420SOL     OW32984  10.361   6.009   1.164  0.1996 -0.1383  1.0828
40420SOL    HW132985  10.304   5.962   1.103  0.1105 -1.4002  2.0883
40420SOL    HW232986  10.449   5.996   1.128  0.1473 -0.8697  1.1936
40421SOL     OW32987   6.655   5.601   7.419 -0.7865  0.2064 -0.1416
40421SOL    HW132988   6.744   5.567   7.410 -0.7879  0.5759 -2.0544
40421SOL    HW232989   6.600   5.534   7.379 -1.2979  0.3291  0.3391
40422SOL     OW32990  11.049   6.988   7.784  0.0621  0.3770 -0.5778
40422SOL    HW132991  11.093   6.921   7.731 -0.0871 -1.2619  1.2446
40422SOL    HW232992  11.083   6.975   7.872 -1.6257  1.2323  0.2535
40423SOL     OW32993  10.348   0.245   9.883  0.1633  0.0393 -0.7432
40423SOL    HW132994  10.389   0.332   9.880 -1.9400  1.0857 -1.2814
40423SOL    HW232995  10.260   0.259   9.848 -1.0499 -1.8527  1.3129
40424SOL     OW32996  13.606   5.142   8.993  0.0506 -0.4547 -0.2746
40424SOL    HW132997  13.574   5.213   8.938 -0.1865 -0.4519 -0.1354
40424SOL    HW232998  13.608   5.066   8.935  1.6467 -0.0443 -0.8111
40425SOL     OW32999   2.064   6.305  13.659  0.3991  0.5383  0.0454
40425SOL    HW133000   2.070   6.241  13.588  1.7642  0.3978  0.2481
40425SOL    HW233001   1.971   6.326  13.665  0.1015 -0.3935 -0.9397
40426SOL     OW33002   5.907   2.644   9.168 -0.0479  0.5175  0.5350
40426SOL    HW133003   5.964   2.703   9.119  0.8876 -1.3489 -0.7519
40426SOL    HW233004   5.935   2.654   9.259 -0.4674  2.5965  0.4810
40427SOL     OW33005   3.949   2.671   8.710  0.4357 -0.9546 -0.0499
40427SOL    HW133006   3.948   2.762   8.738 -0.6487 -1.4078  1.5171
40427SOL    HW233007   3.896   2.625   8.775  1.3336 -2.7827 -0.5276
40428SOL     OW33008   7.238   8.671  12.991 -0.2438  0.1661 -0.3887
40428SOL    HW133009   7.188   8.694  12.912  0.1559  0.5899 -0.5229
40428SOL    HW233010   7.171   8.651  13.056 -0.5737 -0.6194 -0.9591
40429SOL     OW33011   5.731   7.187   6.878 -0.1971 -0.0928  0.3154
40429SOL    HW133012   5.728   7.104   6.924 -0.6420  0.0839  0.6149
40429SOL    HW233013   5.666   7.179   6.808 -0.0162 -0.1100  0.1472
40430SOL     OW33014   0.047   8.076   5.211 -0.8332  0.5185 -0.1610
40430SOL    HW133015  -0.026   8.014   5.208 -1.5752  1.2765  1.0692
40430SOL    HW233016   0.087   8.062   5.297 -0.9562  1.6516  0.1031
40431SOL     OW33017  13.448  12.691   2.948  0.0656 -0.3131  0.5538
40431SOL    HW133018  13.484  12.724   2.865 -1.8018 -1.3616 -0.7519
40431SOL    HW233019  13.490  12.605   2.960  0.2772 -0.1951  0.6696
40432SOL     OW33020   3.718   7.079  10.192 -0.3280  1.0650 -0.0638
40432SOL    HW133021   3.734   7.173  10.193  1.2412  0.8199  0.3581
40432SOL    HW233022   3.723   7.055  10.099 -2.8967  1.6771 -0.4526
40433SOL     OW33023   9.373   7.784   1.888  0.6405 -0.0493  0.2444
40433SOL    HW133024   9.294   7.772   1.834  0.4968  0.7084  0.2723
40433SOL    HW233025   9.441   7.736   1.841 -0.1383 -2.0056  1.0018
40434SOL     OW33026  10.380  13.706  12.443  0.0377 -0.2989 -0.5733
40434SOL    HW133027  10.337  13.742  12.521  1.7044 -1.4306  0.9419
40434SOL    HW233028  10.452  13.766  12.426  0.7290 -1.0088 -0.1679
40435SOL     OW33029   7.570   5.688   8.581  0.6034 -0.0405 -0.4649
40435SOL    HW133030   7.586   5.737   8.662  1.7738 -0.8048 -0.2117
40435SOL    HW233031   7.576   5.596   8.607  1.3558 -0.3004 -1.4814
40436SOL     OW33032  12.662   2.677   8.380 -1.1788  0.5352  0.2548
40436SOL    HW133033  12.611   2.624   8.318  1.8875 -2.0373 -0.3064
40436SOL    HW233034  12.730   2.717   8.326 -0.1955  0.6497  1.5408
40437SOL     OW33035   9.104  11.094  11.884 -0.7614 -0.0731  0.2744
40437SOL    HW133036   9.013  11.120  11.899 -1.6017 -1.0846 -2.5065
40437SOL    HW233037   9.117  11.104  11.790  2.4239  1.1489  0.7126
40438SOL     OW33038   8.210  13.394   6.093 -0.6334 -0.2969 -0.0434
40438SOL    HW133039   8.153  13.317   6.101 -0.7434 -0.2565 -0.4233
40438SOL    HW233040   8.173  13.444   6.020  0.5013 -0.7824 -0.9701
40439SOL     OW33041   5.354   4.330   1.812 -0.2381 -0.1786  0.3298
40439SOL    HW133042   5.267   4.317   1.849  0.0148 -0.1909  0.9242
40439SOL    HW233043   5.396   4.245   1.817 -0.9014 -0.7107 -1.8869
40440SOL     OW33044   2.482  13.346  13.085  0.0770 -0.1129  0.2991
40440SOL    HW133045   2.395  13.316  13.109  0.3319 -1.3018 -0.1792
40440SOL    HW233046   2.492  13.430  13.129 -1.6945  0.5427 -0.4510
40441SOL     OW33047   8.570  12.144  10.693  0.4368  0.5037  0.0269
40441SOL    HW133048   8.518  12.067  10.718 -0.7159  1.3280  0.3075
40441SOL    HW233049   8.617  12.168  10.773 -0.7598  1.2391  0.5472
40442SOL     OW33050   6.007   3.459   9.007  0.1121 -0.2259 -0.0331
40442SOL    HW133051   5.935   3.466   8.945  1.0370 -1.9635 -1.3768
40442SOL    HW233052   6.078   3.509   8.967  0.1513  0.2336  0.5803
40443SOL     OW33053   1.632   9.346   3.977  0.2152 -0.0147  0.5702
40443SOL    HW133054   1.650   9.395   3.897  1.1466 -1.0783  0.0897
40443SOL    HW233055   1.668   9.400   4.048 -0.8763  1.0716  0.3273
40444SOL     OW33056   8.125  10.049   4.534  0.4959  0.0533  0.1962
40444SOL    HW133057   8.213  10.082   4.550  0.7721 -0.5983  0.0600
40444SOL    HW233058   8.086  10.041   4.621  0.6705  0.0746  0.2765
40445SOL     OW33059   2.397   6.496   4.782 -0.0198 -0.5352  0.8207
40445SOL    HW133060   2.343   6.555   4.731 -0.0421 -0.9699  0.3326
40445SOL    HW233061   2.436   6.437   4.717  2.0505  0.5521  1.0029
40446SOL     OW33062   7.168   0.101  12.581 -0.1775 -0.8015  0.1610
40446SOL    HW133063   7.146   0.192  12.604 -1.5801 -1.4243  1.4889
40446SOL    HW233064   7.185   0.104  12.486 -1.5128  0.6304 -0.0831
40447SOL     OW33065  13.069  10.014  11.680  0.8111 -0.1915 -0.2361
40447SOL    HW133066  12.995  10.016  11.741  0.5849 -0.1304 -0.5093
40447SOL    HW233067  13.147  10.023  11.735  0.6518 -0.9600  0.1267
40448SOL     OW33068   0.599   9.334   4.173 -0.3906 -0.7490 -0.2287
40448SOL    HW133069   0.590   9.388   4.095  1.5801 -1.5335 -1.0600
40448SOL    HW233070   0.569   9.390   4.245 -1.3180  0.3234 -1.4103
40449SOL     OW33071   3.026   4.912  12.302 -0.8476  0.5878 -0.1366
40449SOL    HW133072   2.977   4.898  12.221  0.1825 -0.4132 -0.6348
40449SOL    HW233073   3.010   5.003  12.325 -0.3435  1.2099 -2.0527
40450SOL     OW33074   9.663  13.085   9.960  0.7400  0.2649 -0.1651
40450SOL    HW133075   9.657  13.170   9.917  0.5965  1.1538  1.5025
40450SOL    HW233076   9.604  13.028   9.911 -0.7299  1.6813 -0.0963
40451SOL     OW33077   9.435   1.940  12.758 -0.1400 -0.1850 -0.3491
40451SOL    HW133078   9.510   1.995  12.734  0.4543 -1.7833 -2.4295
40451SOL    HW233079   9.367   2.003  12.784  1.3801  1.3706  0.0198
40452SOL     OW33080   2.566   6.661   4.610  0.4038  0.2763  0.0125
40452SOL    HW133081   2.489   6.703   4.650 -0.7256 -0.7249 -1.0190
40452SOL    HW233082   2.613   6.622   4.683 -1.9937 -2.1242  0.4131
40453SOL     OW33083   8.018   9.272   9.975 -0.1141  0.0070 -0.3422
40453SOL    HW133084   7.978   9.319   9.902  2.3359 -1.0106 -2.4799
40453SOL    HW233085   8.112   9.289   9.968  0.3464 -1.0669  1.9081
40454SOL     OW33086   6.455   9.697   9.754  0.3912  0.4065 -0.1148
40454SOL    HW133087   6.468   9.636   9.681 -0.4937  0.0554  0.0030
40454SOL    HW233088   6.369   9.735   9.738 -0.9186 -1.4525  1.9726
40455SOL     OW33089  12.179   6.030  11.541  0.2680 -0.0414  0.1834
40455SOL    HW133090  12.133   6.032  11.624  0.0219  2.0933  0.0455
40455SOL    HW233091  12.145   6.104  11.492  2.0765  0.1492 -0.9006
40456SOL     OW33092   7.510   8.541   4.326 -0.2864  0.0309  0.2017
40456SOL    HW133093   7.518   8.459   4.374 -0.8658  0.0593  0.3660
40456SOL    HW233094   7.563   8.603   4.376 -0.3151 -0.1098  0.4117
40457SOL     OW33095   0.449   3.848   8.052  0.0618  0.7896  0.0367
40457SOL    HW133096   0.503   3.926   8.049 -0.7487  1.3433 -0.8620
40457SOL    HW233097   0.395   3.853   7.973  0.6994 -1.1959 -0.5754
40458SOL     OW33098   8.547   4.113  13.455  0.6421  0.0924 -0.4179
40458SOL    HW133099   8.545   4.103  13.550  1.6593  0.1195 -0.3815
40458SOL    HW233100   8.590   4.033  13.423 -1.1068 -0.6652 -0.9949
40459SOL     OW33101  12.533  12.200   2.272  0.5723  0.7948 -0.4865
40459SOL    HW133102  12.451  12.246   2.291  1.2958  2.5954 -1.4217
40459SOL    HW233103  12.516  12.155   2.189 -0.0043 -0.2721  0.2043
40460SOL     OW33104   5.410   8.023  10.239  0.0688 -1.1221  0.5276
40460SOL    HW133105   5.453   7.966  10.176  2.9115  0.3018  1.0202
40460SOL    HW233106   5.360   8.084  10.186 -1.8425 -3.0811 -0.0541
40461SOL     OW33107   4.365   6.087   9.958  0.4102  0.1586  0.1931
40461SOL    HW133108   4.421   6.138   9.899 -0.8942 -0.5748 -1.7733
40461SOL    HW233109   4.398   5.997   9.950 -1.6008 -0.4887 -1.8448
40462SOL     OW33110   7.775   5.547   6.306 -0.1634 -0.1721 -0.0680
40462SOL    HW133111   7.738   5.582   6.387  0.0781  0.3072 -0.1650
40462SOL    HW233112   7.800   5.457   6.328  0.5415  0.1770  0.5882
40463SOL     OW33113   9.784  12.729   1.379  0.4659  0.0473  0.2170
40463SOL    HW133114   9.697  12.697   1.352  1.2394 -1.5328 -0.5583
40463SOL    HW233115   9.803  12.682   1.460  0.5336  0.5169  0.4757
40464SOL     OW33116   2.622   4.542   7.752 -0.0256 -0.3456 -0.1741
40464SOL    HW133117   2.628   4.476   7.682  1.1411  1.2833 -1.6969
40464SOL    HW233118   2.604   4.491   7.831  0.2282 -2.4267 -1.3732
40465SOL     OW33119   0.405   1.093  11.746  0.0757  0.5111  0.7628
40465SOL    HW133120   0.323   1.117  11.788  0.6745  0.7748  1.8094
40465SOL    HW233121   0.465   1.072  11.818  0.8545  0.0604  0.0180
40466SOL     OW33122   3.988   2.353   0.040  0.2906  0.3667 -0.1467
40466SOL    HW133123   3.967   2.300  -0.037 -0.5559  1.4487 -0.6936
40466SOL    HW233124   3.915   2.339   0.099  0.2255  0.6584 -0.1560
40467SOL     OW33125  12.690   4.879   0.066  0.6292 -0.0852 -0.0001
40467SOL    HW133126  12.734   4.794   0.069  0.5382 -0.2295 -1.7340
40467SOL    HW233127  12.605   4.864   0.108  1.5000 -0.2297  1.8252
40468SOL     OW33128   8.448   6.200   0.513 -0.3875  0.0788  0.7555
40468SOL    HW133129   8.542   6.205   0.496 -0.5725  1.3383  0.0223
40468SOL    HW233130   8.441   6.143   0.590  0.8423 -1.3630 -0.1404
40469SOL     OW33131  11.601   7.673   4.404  0.5816 -0.8371  0.3654
40469SOL    HW133132  11.600   7.623   4.486  0.4899 -0.5193  0.5593
40469SOL    HW233133  11.630   7.609   4.338  0.1564 -1.2257  0.5507
40470SOL     OW33134   1.510   7.308   2.905  0.1321  0.0694  0.0894
40470SOL    HW133135   1.524   7.365   2.981  0.3682  0.4289 -0.2218
40470SOL    HW233136   1.572   7.340   2.839 -0.3607  0.0157 -0.4028
40471SOL     OW33137   0.435  12.339   7.703  0.2815  0.1125  0.3934
40471SOL    HW133138   0.470  12.425   7.726  0.2081  0.3031 -0.2002
40471SOL    HW233139   0.341  12.346   7.716 -0.0553  0.9053 -1.9823
40472SOL     OW33140   5.191   9.342  13.678  0.0466 -0.6206 -0.0483
40472SOL    HW133141   5.148   9.420  13.644 -0.0764  0.8557  3.1215
40472SOL    HW233142   5.141   9.269  13.641 -1.5261  0.8642 -1.0212
40473SOL     OW33143  12.646  12.200   0.299 -0.4294  0.7919  0.6976
40473SOL    HW133144  12.700  12.124   0.282 -1.0705  0.2642  0.9895
40473SOL    HW233145  12.636  12.242   0.213 -5.7498 -3.2082 -1.2047
40474SOL     OW33146   2.169   4.493  10.801 -0.1037  0.3936 -0.5534
40474SOL    HW133147   2.130   4.575  10.771  0.6053  0.5764 -1.0078
40474SOL    HW233148   2.167   4.436  10.724 -1.7882 -0.4916  0.1074
40475SOL     OW33149   1.241   2.555  11.313 -0.0583 -0.3102  0.4232
40475SOL    HW133150   1.263   2.503  11.235 -1.4117 -0.2220 -0.0657
40475SOL    HW233151   1.229   2.490  11.382  3.8293 -0.2399  1.3709
40476SOL     OW33152   6.338   1.118   7.457  0.0910 -0.2043 -0.0971
40476SOL    HW133153   6.310   1.071   7.378  1.1699 -1.3961  0.1977
40476SOL    HW233154   6.276   1.191   7.465 -0.6544 -0.6561 -1.4663
40477SOL     OW33155   6.903   4.306  11.674  0.4058 -0.0971 -0.5088
40477SOL    HW133156   6.844   4.355  11.732 -0.3622 -0.8672 -0.6145
40477SOL    HW233157   6.965   4.371  11.641  0.4622  0.4754  0.6791
40478SOL     OW33158   9.049  10.393   0.888  0.0338  0.3780  0.1532
40478SOL    HW133159   9.125  10.404   0.945  0.5072 -1.4856 -0.0320
40478SOL    HW233160   8.986  10.459   0.917  1.4554  1.5213  0.7520
40479SOL     OW33161   2.351   4.474   4.064 -0.4269 -0.2794 -0.3407
40479SOL    HW133162   2.335   4.473   4.158  2.7436  1.6395  0.3818
40479SOL    HW233163   2.331   4.564   4.037 -0.4679 -0.5674 -1.3263
40480SOL     OW33164   2.956   7.304   7.699  0.4873 -0.4343 -0.0537
40480SOL    HW133165   2.990   7.319   7.611  0.2976  0.3989  0.0067
40480SOL    HW233166   2.871   7.349   7.699  0.3081 -0.7748  0.4261
40481SOL     OW33167  11.283  11.519   2.913  0.1714 -0.8771  0.3793
40481SOL    HW133168  11.204  11.573   2.913  1.3187  0.9034 -0.3199
40481SOL    HW233169  11.323  11.535   2.998  1.6199  1.2311 -0.5904
40482SOL     OW33170   7.801   4.379   8.148 -0.3742 -0.4201 -0.1232
40482SOL    HW133171   7.807   4.442   8.219  1.5373  0.2853 -0.8635
40482SOL    HW233172   7.780   4.431   8.070 -1.3345 -1.0404 -0.2976
40483SOL     OW33173   2.408   6.295   0.617 -0.4715 -0.0133 -0.0251
40483SOL    HW133174   2.450   6.219   0.577 -0.1796  0.8474 -1.4585
40483SOL    HW233175   2.332   6.260   0.663  0.0286 -1.2365 -0.0943
40484SOL     OW33176  10.414   5.779   9.483 -0.4486  0.1370  0.3291
40484SOL    HW133177  10.355   5.716   9.443 -0.2064  0.1570 -0.0624
40484SOL    HW233178  10.478   5.725   9.530 -0.7193  0.1136  0.6790
40485SOL     OW33179   8.271   2.034   1.328 -0.5397 -0.2072  0.4553
40485SOL    HW133180   8.195   2.083   1.356 -0.8093 -0.1352 -0.3849
40485SOL    HW233181   8.241   1.943   1.321 -0.3326 -0.3153  0.9147
40486SOL     OW33182   7.708   6.456  13.205 -0.3268 -0.0954 -0.3486
40486SOL    HW133183   7.725   6.381  13.149  0.0225  0.9347 -1.6930
40486SOL    HW233184   7.789   6.508  13.200 -1.6318  1.9616 -2.1050
40487SOL     OW33185   9.837   9.134   2.062 -0.4837  0.0866  0.1758
40487SOL    HW133186   9.817   9.204   1.999  0.6887  1.3251  1.1269
40487SOL    HW233187   9.780   9.151   2.136  0.0896  0.2838  0.5759
40488SOL     OW33188   4.237   0.323   9.431  0.2459  0.6603  0.0941
40488SOL    HW133189   4.245   0.351   9.340 -2.0804  0.0533 -0.3636
40488SOL    HW233190   4.256   0.402   9.482  0.7256  1.2327 -0.9405
40489SOL     OW33191   5.953   7.269   9.413  0.4164 -0.4520  0.1991
40489SOL    HW133192   6.013   7.321   9.360  0.2506  0.8462  1.2392
40489SOL    HW233193   5.867   7.284   9.375  0.4492 -0.4614  0.1219
40490SOL     OW33194   0.437   2.088  10.397  0.5276  0.1721 -0.0575
40490SOL    HW133195   0.532   2.084  10.387  0.5189 -0.0036 -0.0870
40490SOL    HW233196   0.422   2.151  10.467  0.7121 -0.3973  0.5058
40491SOL     OW33197  10.537   6.966   1.526  0.6627  0.4423 -0.4534
40491SOL    HW133198  10.545   7.054   1.561  0.2907  0.0799  0.5769
40491SOL    HW233199  10.519   6.911   1.602  1.3176 -0.5903 -1.0077
40492SOL     OW33200   7.698   9.382   3.227 -0.2914  0.0251 -0.6029
40492SOL    HW133201   7.720   9.465   3.186 -1.1512 -0.1128 -1.3635
40492SOL    HW233202   7.738   9.316   3.171  0.5243 -0.0884  0.0844
40493SOL     OW33203  11.754   9.270   2.086 -0.4035  0.5749 -0.0943
40493SOL    HW133204  11.667   9.264   2.046 -1.5637  0.2159  2.2519
40493SOL    HW233205  11.737   9.311   2.171  1.3404 -1.6710  1.4423
40494SOL     OW33206  12.427   7.355   6.724 -0.1114  0.2264 -0.4088
40494SOL    HW133207  12.401   7.440   6.689  0.1569  0.4515 -0.0653
40494SOL    HW233208  12.363   7.335   6.792 -0.5107 -0.1166 -0.8765
40495SOL     OW33209   6.436   7.364  11.964 -0.7166  0.2290 -0.5309
40495SOL    HW133210   6.419   7.309  11.887 -1.8769  1.8921 -1.5551
40495SOL    HW233211   6.360   7.423  11.967  1.6336  3.5788 -1.1948
40496SOL     OW33212  11.019   0.915   7.432 -0.5435 -0.0678  0.3993
40496SOL    HW133213  10.993   0.995   7.477 -0.7765 -1.0067  2.0031
40496SOL    HW233214  10.992   0.844   7.491 -0.1867 -1.3261 -0.8928
40497SOL     OW33215  11.464  12.234   1.867 -0.7873  0.5741  0.1036
40497SOL    HW133216  11.392  12.251   1.928 -0.4163  1.3472  0.3408
40497SOL    HW233217  11.517  12.167   1.910 -0.2337  1.4938  0.8932
40498SOL     OW33218  12.294  11.218  12.261  0.1154 -0.1145 -0.4332
40498SOL    HW133219  12.381  11.247  12.235  0.1724 -1.4668 -1.8624
40498SOL    HW233220  12.307  11.173  12.345  0.8875 -0.7980 -0.9095
40499SOL     OW33221  10.943   1.400  11.577  0.1646 -0.0095 -0.3048
40499SOL    HW133222  10.856   1.417  11.540  0.2376  0.2484 -0.3540
40499SOL    HW233223  10.927   1.334  11.645 -0.2447  0.9405  0.5387
40500SOL     OW33224  13.077   4.402  13.147  0.3641  0.7490  0.2993
40500SOL    HW133225  13.021   4.377  13.074 -0.7652 -0.1196  1.4148
40500SOL    HW233226  13.166   4.402  13.111 -0.3791  3.4946 -1.8696
40501SOL     OW33227   2.864   2.453   9.897  0.3406  0.1492 -0.0777
40501SOL    HW133228   2.843   2.534   9.849 -4.1639 -1.3185 -1.1031
40501SOL    HW233229   2.944   2.421   9.855  0.1739  2.1977 -2.2134
40502SOL     OW33230   6.604   9.564   4.642 -0.5927 -0.0384  0.4796
40502SOL    HW133231   6.586   9.499   4.709  0.8384 -0.4111  0.5297
40502SOL    HW233232   6.517   9.596   4.616 -1.1913 -0.0549  2.3135
40503SOL     OW33233   9.521   7.473   3.706  0.4560  0.1952 -0.1473
40503SOL    HW133234   9.542   7.538   3.640 -0.5165 -0.0859 -0.7445
40503SOL    HW233235   9.596   7.413   3.706  0.7656  0.5796 -0.4982
40504SOL     OW33236   1.348   2.934  11.719 -0.3292 -0.6744 -0.1606
40504SOL    HW133237   1.375   3.012  11.768 -1.0459 -0.2391 -0.4465
40504SOL    HW233238   1.290   2.887  11.780 -1.4820  0.0314 -0.6748
40505SOL     OW33239  13.067   1.241   6.504  0.6970 -0.7607  0.0375
40505SOL    HW133240  13.141   1.302   6.499  0.5967 -0.6358  0.0740
40505SOL    HW233241  12.990   1.297   6.499  0.5267 -1.0610 -3.4885
40506SOL     OW33242   0.740   2.850   7.465  0.8378  0.8872 -0.0037
40506SOL    HW133243   0.814   2.843   7.405 -0.3295  0.2061 -1.4080
40506SOL    HW233244   0.756   2.781   7.530  0.3006 -0.8262 -1.6165
40507SOL     OW33245   0.123   9.959   7.990 -0.1448 -0.2669  0.2348
40507SOL    HW133246   0.028   9.966   8.000 -0.1788 -1.8267  1.4201
40507SOL    HW233247   0.151   9.904   8.064  1.6922  0.1795 -0.0693
40508SOL     OW33248  12.704   9.250  13.184  0.0090  0.2808  0.0660
40508SOL    HW133249  12.637   9.265  13.117  0.2667 -0.4932 -0.3887
40508SOL    HW233250  12.716   9.155  13.184 -1.4311  0.0270  2.6373
40509SOL     OW33251   3.142   4.096   9.301 -0.0797  0.4875 -0.2980
40509SOL    HW133252   3.075   4.109   9.367  0.7139 -1.0752  0.8892
40509SOL    HW233253   3.118   4.014   9.257 -0.7895  1.6668 -2.2694
40510SOL     OW33254   0.031  11.249   0.508  0.2176  0.4288 -0.3363
40510SOL    HW133255  -0.056  11.211   0.516  0.1587  0.8302  1.6585
40510SOL    HW233256   0.086  11.178   0.477 -0.7175  0.0375 -1.1519
40511SOL     OW33257   3.478   6.449   5.487  0.3890 -0.4574 -0.2068
40511SOL    HW133258   3.514   6.500   5.415 -0.2696  0.4860  0.1180
40511SOL    HW233259   3.477   6.509   5.561  0.3834 -1.1992  0.4028
40512SOL     OW33260  13.101   9.111   7.897 -0.4417 -0.2016 -0.3258
40512SOL    HW133261  13.072   9.026   7.864 -0.5788 -0.1468 -0.3445
40512SOL    HW233262  13.194   9.098   7.917 -0.6996 -0.6564  0.6501
40513SOL     OW33263   9.272   1.563   4.900 -0.6555 -0.0110  0.2724
40513SOL    HW133264   9.306   1.477   4.923  0.1441 -0.0015 -0.7974
40513SOL    HW233265   9.204   1.544   4.835 -0.2958  0.1687 -0.1625
40514SOL     OW33266   3.505   4.928  10.288  0.1481 -0.0438  0.3475
40514SOL    HW133267   3.503   4.992  10.217 -0.0965 -1.5497 -1.0675
40514SOL    HW233268   3.599   4.911  10.302  0.3933  2.5297  2.6191
40515SOL     OW33269   2.420   6.699  12.984  0.6061 -0.2556  0.2179
40515SOL    HW133270   2.393   6.746  13.062  0.7154  0.8130 -0.3727
40515SOL    HW233271   2.339   6.661  12.949 -0.0383  1.9278 -0.8825
40516SOL     OW33272   8.793  10.912   2.817 -0.3802 -0.4001  0.6164
40516SOL    HW133273   8.875  10.942   2.778 -0.3137 -1.7411 -0.3734
40516SOL    HW233274   8.786  10.959   2.900  1.0441  0.2414  0.3906
40517SOL     OW33275   9.845   2.914   7.397  0.1631 -0.3331 -0.7525
40517SOL    HW133276   9.871   2.991   7.346  2.0654  0.6290  1.4638
40517SOL    HW233277   9.909   2.847   7.373  0.8034 -0.0096 -0.0005
40518SOL     OW33278   1.192   3.064   1.224  0.2411  0.0158  0.0698
40518SOL    HW133279   1.247   3.087   1.299 -0.2251  0.3419  0.3158
40518SOL    HW233280   1.126   3.004   1.259 -0.9445  1.3848  0.2865
40519SOL     OW33281  13.014  10.833   1.147  0.6603 -0.0038 -0.1681
40519SOL    HW133282  13.043  10.748   1.114  0.9530 -0.6217  1.6242
40519SOL    HW233283  13.094  10.884   1.156  1.0328 -0.9291  2.5590
40520SOL     OW33284   1.585   4.281   0.733 -0.3757  0.4590  0.2066
40520SOL    HW133285   1.668   4.292   0.779  0.3566 -0.5832 -0.8204
40520SOL    HW233286   1.551   4.198   0.765 -0.0836 -0.0470 -0.7694
40521SOL     OW33287  10.552   4.463   6.889  0.4010  0.7966 -0.2611
40521SOL    HW133288  10.482   4.398   6.900  1.8296 -0.7212  0.2091
40521SOL    HW233289  10.579   4.485   6.979 -2.6478  5.1395 -0.0953
40522SOL     OW33290  12.468   7.319   8.773  0.3895  0.3027  0.2819
40522SOL    HW133291  12.526   7.242   8.775 -1.5063 -1.3830 -2.7320
40522SOL    HW233292  12.485   7.360   8.688 -1.6527  0.7133  0.0276
40523SOL     OW33293   1.620   2.265   0.653  1.0457 -0.2823  0.0213
40523SOL    HW133294   1.698   2.321   0.651 -0.7961  2.5774  1.6204
40523SOL    HW233295   1.608   2.245   0.745  0.1250 -1.0497 -0.2529
40524SOL     OW33296   1.527   7.548  13.610  0.2868 -0.1768  0.4557
40524SOL    HW133297   1.500   7.468  13.566 -0.7806  0.0465  0.6689
40524SOL    HW233298   1.620   7.557  13.590  0.2147 -1.0025 -0.2892
40525SOL     OW33299  11.469  11.917   0.876  0.5691 -0.1404 -0.1310
40525SOL    HW133300  11.539  11.884   0.820 -0.8708  1.1519 -2.8624
40525SOL    HW233301  11.509  11.993   0.921  1.7493 -1.2226  0.7359
40526SOL     OW33302  10.360   2.210   7.516  0.4788  0.9195  0.6011
40526SOL    HW133303  10.390   2.164   7.437  1.6924  0.3191  1.3660
40526SOL    HW233304  10.293   2.153   7.553  2.2119 -0.5139  1.7256
40527SOL     OW33305  12.984  10.312   8.714  0.0731  0.4470  0.4320
40527SOL    HW133306  13.066  10.319   8.665  0.5870  0.0791  1.2280
40527SOL    HW233307  12.945  10.399   8.707  1.8074  1.4530  2.2175
40528SOL     OW33308   1.858   6.401   7.147 -0.4096 -0.8732  0.3569
40528SOL    HW133309   1.812   6.469   7.098  2.7198  2.4067  1.5413
40528SOL    HW233310   1.813   6.396   7.231 -0.1998  0.4308  0.5629
40529SOL     OW33311   5.569   9.351  12.042 -0.4796  0.3639  0.4670
40529SOL    HW133312   5.581   9.324  12.133 -0.4065  1.3810  0.7759
40529SOL    HW233313   5.526   9.437  12.048 -0.0951  0.6312 -0.4479
40530SOL     OW33314   7.512   5.478   5.865 -0.5252 -0.1018  0.1595
40530SOL    HW133315   7.524   5.510   5.955  0.8708  0.1701 -0.0883
40530SOL    HW233316   7.601   5.468   5.831 -1.0158  0.9323 -1.5863
40531SOL     OW33317   2.314   3.295   6.019 -0.2433  0.4131 -0.0391
40531SOL    HW133318   2.265   3.228   5.972 -0.9813  0.6876  0.3149
40531SOL    HW233319   2.351   3.250   6.095  0.1205  0.1887 -0.3472
40532SOL     OW33320   5.592   9.142   9.250  0.0120 -0.1978 -0.0041
40532SOL    HW133321   5.585   9.089   9.330 -0.7069 -0.0181  0.0637
40532SOL    HW233322   5.502   9.147   9.218  0.6153 -3.0543 -2.6446
40533SOL     OW33323  13.589   0.218   3.292  0.6198  0.1077 -0.7151
40533SOL    HW133324  13.670   0.267   3.278  1.1921 -0.7479 -0.4940
40533SOL    HW233325  13.575   0.171   3.209  2.1152 -2.2344  0.2649
40534SOL     OW33326   7.527   7.875   5.805 -0.0098  0.2875 -0.3124
40534SOL    HW133327   7.580   7.812   5.854  0.3017  0.2064 -0.7462
40534SOL    HW233328   7.442   7.832   5.796  0.6828 -0.8346 -2.0654
40535SOL     OW33329  10.327   9.622   4.328 -0.3185 -0.5598 -0.4647
40535SOL    HW133330  10.312   9.536   4.290 -0.9401 -0.5520 -0.2379
40535SOL    HW233331  10.385   9.606   4.402 -0.5216 -0.7932 -0.3578
40536SOL     OW33332  10.196   2.301   5.151  0.0353 -0.7132  0.5152
40536SOL    HW133333  10.287   2.280   5.133 -0.0424 -0.2468 -0.5213
40536SOL    HW233334  10.171   2.243   5.222  0.9198 -1.3775  0.3000
40537SOL     OW33335   2.632  11.252   9.000 -0.4593  0.3431 -0.5193
40537SOL    HW133336   2.674  11.321   9.050 -0.7716  0.5550 -0.5470
40537SOL    HW233337   2.541  11.252   9.029 -0.4650 -0.0553 -0.5214
40538SOL     OW33338   7.692  13.103  12.585  0.0642 -0.0042  0.5389
40538SOL    HW133339   7.772  13.053  12.573  0.7511  1.4942 -1.8054
40538SOL    HW233340   7.659  13.076  12.671  1.0821 -3.3800 -0.0022
40539SOL     OW33341   6.747   6.419   6.143  0.1152 -0.0075  0.5145
40539SOL    HW133342   6.742   6.423   6.047  1.5226 -2.2054  0.2553
40539SOL    HW233343   6.841   6.420   6.162 -0.1458  0.7555  1.9237
40540SOL     OW33344  12.359   3.345   2.625  0.1065  0.2256 -0.4813
40540SOL    HW133345  12.395   3.370   2.710  0.7951  1.8859 -1.2214
40540SOL    HW233346  12.269   3.377   2.627  0.2673  0.6924 -0.5432
40541SOL     OW33347  10.733   6.727   5.658  0.2976  0.2645 -0.2603
40541SOL    HW133348  10.676   6.732   5.581  2.5007  1.3920 -1.9637
40541SOL    HW233349  10.766   6.636   5.658 -2.5669 -0.8998  1.6980
40542SOL     OW33350  11.090   1.949   7.297 -0.8225  0.0011  0.5370
40542SOL    HW133351  11.036   1.985   7.228 -0.9108 -0.0800  0.5634
40542SOL    HW233352  11.042   1.966   7.378 -0.3458  0.8111  0.6615
40543SOL     OW33353   8.738   8.666  13.389 -0.3958 -0.0821 -0.6576
40543SOL    HW133354   8.728   8.632  13.478  0.0558 -0.8318 -0.8836
40543SOL    HW233355   8.818   8.625  13.356 -1.4483 -1.1658 -2.0171
40544SOL     OW33356   6.367   8.124  12.614  0.5494  0.7891  0.1365
40544SOL    HW133357   6.457   8.092  12.605  0.8188  1.3527  0.7828
40544SOL    HW233358   6.323   8.092  12.535  0.8932 -0.8409  0.5548
40545SOL     OW33359   8.680   3.050   1.341 -0.2184  0.1215 -0.5939
40545SOL    HW133360   8.765   3.054   1.298  0.4826 -0.2935  0.7046
40545SOL    HW233361   8.627   2.992   1.286  0.4626  0.0806 -1.2063
40546SOL     OW33362   8.093  12.944   7.804  0.9534 -0.1944 -0.8233
40546SOL    HW133363   8.029  12.908   7.866  0.3669 -1.3243 -2.0362
40546SOL    HW233364   8.178  12.912   7.837  0.7306 -0.1454 -0.1810
40547SOL     OW33365   2.804   4.881  12.925  0.1881 -0.2790  0.9405
40547SOL    HW133366   2.891   4.842  12.915  0.0053 -0.4482 -0.0541
40547SOL    HW233367   2.746   4.825  12.873 -0.4121  0.2020  1.0728
40548SOL     OW33368   8.679   7.752   5.642 -0.6249  0.5341  0.0671
40548SOL    HW133369   8.588   7.766   5.667 -0.7776 -0.4560  0.1146
40548SOL    HW233370   8.710   7.838   5.615 -1.6142  0.8612 -0.0709
40549SOL     OW33371   8.206   1.330   0.690 -0.2168  0.3368 -0.0707
40549SOL    HW133372   8.236   1.241   0.706  0.6226  0.2197 -1.9848
40549SOL    HW233373   8.160   1.324   0.606 -1.4640  1.4435  0.5000
40550SOL     OW33374   1.843   4.037   9.723 -0.6244  0.8848 -0.4443
40550SOL    HW133375   1.884   3.951   9.717  0.2754  1.3634 -1.5690
40550SOL    HW233376   1.888   4.090   9.657 -1.6297  2.0314 -0.2554
40551SOL     OW33377  11.801   1.729  10.770 -0.5523  0.3385 -0.0072
40551SOL    HW133378  11.720   1.693  10.805 -0.4688 -0.9699 -1.0584
40551SOL    HW233379  11.777   1.766  10.685  0.1275 -1.2363 -0.9403
40552SOL     OW33380   8.362   7.448  13.177 -0.0405 -0.1453  1.0652
40552SOL    HW133381   8.455   7.425  13.180 -0.2991 -1.2305  1.1009
40552SOL    HW233382   8.356   7.527  13.231  0.9554  0.3146  0.5345
40553SOL     OW33383   6.707   2.186   8.762  0.3886 -0.3855 -0.6543
40553SOL    HW133384   6.800   2.184   8.741  0.4407  2.3770 -1.0308
40553SOL    HW233385   6.704   2.197   8.858  0.5137  0.8307 -0.7769
40554SOL     OW33386   3.545  10.434  13.596  0.0130  0.0760 -0.7147
40554SOL    HW133387   3.553  10.345  13.564  0.3648 -0.1799  0.0502
40554SOL    HW233388   3.454  10.441  13.625  0.0790 -0.1644 -0.4365
40555SOL     OW33389   2.766   6.167   7.709 -0.2214  0.2614  0.2825
40555SOL    HW133390   2.754   6.076   7.735  0.8821 -0.0463 -0.2506
40555SOL    HW233391   2.700   6.181   7.642  0.0197 -0.3432 -0.0914
40556SOL     OW33392   8.686  11.040   7.394  0.2930  0.0324  0.0610
40556SOL    HW133393   8.755  11.021   7.329  0.1144 -0.1526 -0.0751
40556SOL    HW233394   8.639  10.958   7.404 -0.8036  0.5114 -0.9125
40557SOL     OW33395  11.779   2.055   6.685 -0.3460  0.1149  0.6103
40557SOL    HW133396  11.813   2.083   6.770 -2.0474  0.7189  1.1318
40557SOL    HW233397  11.717   1.985   6.705 -0.9485  0.4230 -0.0966
40558SOL     OW33398   1.984   1.532   3.525  0.6679 -0.4873  0.4593
40558SOL    HW133399   2.017   1.597   3.463  1.6852 -0.0266  1.4527
40558SOL    HW233400   1.968   1.581   3.605 -2.7223 -0.6461  0.0159
40559SOL     OW33401  10.758   7.685   3.897  0.4406 -0.0662 -0.1533
40559SOL    HW133402  10.759   7.780   3.890  0.9659 -0.0156  0.5323
40559SOL    HW233403  10.848   7.661   3.915  0.3173 -0.7025 -0.3625
40560SOL     OW33404   9.077   8.220   4.028  0.4639  0.3047 -0.4164
40560SOL    HW133405   9.017   8.261   3.965  0.6242  1.4408  0.1487
40560SOL    HW233406   9.147   8.183   3.974 -0.6707 -0.9665 -1.0794
40561SOL     OW33407   9.275   3.874   7.339 -0.0870 -0.3041  0.0693
40561SOL    HW133408   9.206   3.940   7.338  1.5281  1.4720  0.6693
40561SOL    HW233409   9.343   3.911   7.395  0.4782 -2.9372  1.2973
40562SOL     OW33410   6.595   9.363  10.798  0.3423  0.3877  0.4458
40562SOL    HW133411   6.520   9.315  10.832  1.1249  0.7602  2.8706
40562SOL    HW233412   6.559   9.447  10.768 -0.5028 -0.3132 -0.5434
40563SOL     OW33413   5.875   2.132   1.622  0.0982 -0.0803 -0.1472
40563SOL    HW133414   5.868   2.193   1.549  1.6881 -1.1438 -1.2448
40563SOL    HW233415   5.949   2.164   1.674 -0.7624  0.4328  0.7991
40564SOL     OW33416   3.537   0.104   4.659  0.5438 -0.7780  0.2996
40564SOL    HW133417   3.500   0.167   4.720 -0.1461  2.3255 -2.9717
40564SOL    HW233418   3.632   0.110   4.672  0.4329  0.2950  0.7199
40565SOL     OW33419   3.271  10.851   9.895 -0.2675  0.2899  0.0514
40565SOL    HW133420   3.304  10.763   9.879  0.3742  0.3662  0.8672
40565SOL    HW233421   3.293  10.900   9.816  2.1997  0.4874  0.7747
40566SOL     OW33422  12.777   8.718   0.069 -0.3736 -0.1430 -0.0519
40566SOL    HW133423  12.859   8.669   0.071  0.6797  1.4674 -0.9209
40566SOL    HW233424  12.758   8.727  -0.024 -1.2800 -0.0717  0.1349
40567SOL     OW33425   7.387   0.700  11.527  0.0257  0.9152 -0.0276
40567SOL    HW133426   7.327   0.625  11.527  0.2760  0.6670 -1.8897
40567SOL    HW233427   7.465   0.668  11.573 -0.3324  0.4495  0.2733
40568SOL     OW33428  12.302   7.549   4.524  0.1079 -0.1266 -0.1182
40568SOL    HW133429  12.360   7.614   4.565 -1.3741  1.8504 -0.9715
40568SOL    HW233430  12.251   7.600   4.461 -1.6927 -2.0042 -0.2609
40569SOL     OW33431   8.259   8.479   0.330  0.1983 -0.6741  0.3742
40569SOL    HW133432   8.266   8.478   0.234 -1.0361 -0.1821  0.2657
40569SOL    HW233433   8.238   8.389   0.353  2.0861 -1.1675  0.3443
40570SOL     OW33434  10.952   2.715  12.025  0.0470 -0.3212 -0.0635
40570SOL    HW133435  10.921   2.720  11.934  2.0062  0.0381 -0.7690
40570SOL    HW233436  10.918   2.794  12.066  1.3139  0.9058 -1.2573
40571SOL     OW33437   9.661  10.800   8.490  0.2741 -0.3748 -0.3559
40571SOL    HW133438   9.566  10.798   8.501  0.3849  1.1332  1.1200
40571SOL    HW233439   9.677  10.748   8.410 -1.5324 -2.8594  0.7691
40572SOL     OW33440   0.321   2.872   2.847 -0.9547 -0.3072  0.2877
40572SOL    HW133441   0.272   2.801   2.806  0.2829 -0.6695 -0.6474
40572SOL    HW233442   0.289   2.875   2.937 -1.6055 -1.5065  0.1135
40573SOL     OW33443   8.125   1.798  13.736  0.0008 -0.5664  0.3519
40573SOL    HW133444   8.209   1.842  13.736  0.2598 -1.0329  1.3497
40573SOL    HW233445   8.086   1.819  13.651  0.7969  0.2560  0.1865
40574SOL     OW33446  12.475   1.638   2.124  0.0969  0.5682 -0.0871
40574SOL    HW133447  12.536   1.688   2.070  0.6927 -0.0900 -0.0435
40574SOL    HW233448  12.510   1.549   2.124  0.4968  0.6689  1.8945
40575SOL     OW33449  11.860   9.792  13.569  0.1862 -0.3879  0.2055
40575SOL    HW133450  11.801   9.772  13.642  0.1613 -1.5384 -0.1025
40575SOL    HW233451  11.932   9.729  13.579  1.1491  0.6985  0.3152
40576SOL     OW33452   9.445   9.723   3.698  0.3635  0.2491  0.2187
40576SOL    HW133453   9.419   9.813   3.721  0.7109  1.4508 -3.4644
40576SOL    HW233454   9.363   9.680   3.675  0.5203  1.0082 -1.9969
40577SOL     OW33455  10.606   4.184  10.837 -0.3635  0.0079  0.0132
40577SOL    HW133456  10.517   4.196  10.805 -0.1085  1.0782 -0.3054
40577SOL    HW233457  10.662   4.199  10.760  0.4298  5.0819  1.2298
40578SOL     OW33458   9.148   0.303   6.019 -0.3085  0.2159 -0.2569
40578SOL    HW133459   9.092   0.379   6.035  0.0321  0.2982  0.6441
40578SOL    HW233460   9.154   0.297   5.924 -1.7117  0.3006 -0.3798
40579SOL     OW33461  12.324   5.011  13.271  0.8224 -0.3609 -0.1170
40579SOL    HW133462  12.292   5.101  13.273  1.5034 -0.1200  1.1949
40579SOL    HW233463  12.270   4.965  13.336  1.0040 -0.6976 -0.2002
40580SOL     OW33464   3.166   0.199   6.804 -0.2462 -0.5055  0.4515
40580SOL    HW133465   3.079   0.188   6.842 -0.4305 -0.3225  0.0920
40580SOL    HW233466   3.227   0.183   6.876 -0.5752 -0.8019  0.6622
40581SOL     OW33467   1.636  13.717   9.399 -0.5588  0.7349 -0.0080
40581SOL    HW133468   1.586  13.643   9.365  2.2846 -0.1970 -2.6289
40581SOL    HW233469   1.572  13.769   9.448 -3.7548 -0.9213 -2.0970
40582SOL     OW33470   2.026   2.081   8.067  0.0491 -0.2461 -0.1398
40582SOL    HW133471   1.958   2.099   8.132  0.1483  0.2712 -0.1803
40582SOL    HW233472   2.093   2.032   8.116 -0.3600 -0.7909 -0.1076
40583SOL     OW33473   8.116  11.261   4.148  0.6273  0.0755 -0.1072
40583SOL    HW133474   8.031  11.216   4.145  0.0791  1.0681  0.0076
40583SOL    HW233475   8.169  11.208   4.208  0.3602 -0.9814 -0.7676
40584SOL     OW33476   9.336   3.811  12.839 -0.2406  0.2112  0.1905
40584SOL    HW133477   9.247   3.844  12.852 -0.3659 -0.3613  0.7985
40584SOL    HW233478   9.357   3.765  12.920 -0.4256 -2.0651 -0.9750
40585SOL     OW33479   1.655   9.123   4.699  0.4262  0.9487 -0.4664
40585SOL    HW133480   1.627   9.145   4.610 -0.2969 -1.2353 -0.8256
40585SOL    HW233481   1.745   9.095   4.690  1.0675  2.7432 -0.1330
40586SOL     OW33482  10.018   8.399   6.304 -0.0799  0.4927  0.0474
40586SOL    HW133483  10.024   8.360   6.217  1.4624 -1.9045  1.1131
40586SOL    HW233484   9.934   8.369   6.338  0.1051 -0.0675  0.0234
40587SOL     OW33485  11.709   2.897   9.460 -0.3201  0.3006 -0.2742
40587SOL    HW133486  11.792   2.913   9.505  0.8292  0.1950 -2.2515
40587SOL    HW233487  11.643   2.900   9.529  1.4107 -0.4820  1.4917
40588SOL     OW33488   3.123   6.925   5.872 -0.1899 -0.3720  0.0406
40588SOL    HW133489   3.140   6.940   5.965  0.8865  2.1169 -0.4628
40588SOL    HW233490   3.194   6.869   5.843  1.5736  1.6924  0.0824
40589SOL     OW33491  12.473   0.087   7.103  0.0580 -0.0131  0.0791
40589SOL    HW133492  12.465   0.183   7.108  1.4949  0.1624 -0.5228
40589SOL    HW233493  12.497   0.069   7.012  1.9150 -0.7254  0.6455
40590SOL     OW33494   9.987   1.766   7.554  0.9249  0.0821 -0.5493
40590SOL    HW133495   9.971   1.710   7.478 -0.0048  1.3550 -1.3271
40590SOL    HW233496  10.043   1.714   7.611  0.4613 -1.4543 -1.4509
40591SOL     OW33497   3.704   0.035   1.688 -0.2846 -0.4620  0.0949
40591SOL    HW133498   3.774   0.100   1.684 -1.7539  1.1324 -0.9275
40591SOL    HW233499   3.742  -0.038   1.737  1.8731  0.5869  0.1018
40592SOL     OW33500   9.207  10.054   4.396 -0.1697 -0.1067  0.3615
40592SOL    HW133501   9.166  10.139   4.407  0.1350  0.0414  0.3577
40592SOL    HW233502   9.157  10.012   4.326  0.5648  0.6248 -0.6331
40593SOL     OW33503   4.056   8.811   7.308 -0.7493 -0.1878 -0.0684
40593SOL    HW133504   4.012   8.872   7.248 -1.1514 -0.5028 -0.0973
40593SOL    HW233505   4.068   8.732   7.256 -0.3739 -0.1893  0.0211
40594SOL     OW33506  10.898   3.987   4.623 -0.0161 -0.4653  0.1965
40594SOL    HW133507  10.957   3.919   4.590 -0.1670 -0.6032  0.2099
40594SOL    HW233508  10.855   4.021   4.545  0.3948 -0.0671  0.1396
40595SOL     OW33509  13.340   0.388   1.433 -0.5738  0.4332 -0.0201
40595SOL    HW133510  13.280   0.322   1.469  0.5242 -0.9897 -0.6896
40595SOL    HW233511  13.283   0.457   1.401 -1.7176  0.3358  1.6864
40596SOL     OW33512   9.461   5.326   5.028  0.2768 -0.7579  0.1231
40596SOL    HW133513   9.495   5.324   5.118  1.0725 -1.6561 -0.1749
40596SOL    HW233514   9.453   5.419   5.006  1.0310 -0.5376  0.7712
40597SOL     OW33515   7.601   9.709  13.206  0.1209  0.3673  0.2842
40597SOL    HW133516   7.614   9.803  13.217  2.0549  0.3057 -1.0203
40597SOL    HW233517   7.614   9.694  13.112 -1.6695 -1.0077  0.2111
40598SOL     OW33518   5.511  12.845   6.829  0.3504  0.1306  0.2587
40598SOL    HW133519   5.498  12.782   6.758 -1.7176  0.1390  0.5468
40598SOL    HW233520   5.605  12.861   6.830  0.3865  0.8274 -3.0702
40599SOL     OW33521   1.413   1.701   1.342 -0.0199 -0.4687  0.3094
40599SOL    HW133522   1.473   1.739   1.406  0.5821 -0.4532 -0.2540
40599SOL    HW233523   1.338   1.761   1.341  1.3792  1.4019 -1.3722
40600SOL     OW33524   5.497  12.163   7.426 -0.1646  0.2205 -0.0549
40600SOL    HW133525   5.517  12.084   7.476 -1.6395  0.4525  0.9413
40600SOL    HW233526   5.511  12.234   7.487 -0.6567  0.6054 -0.3816
40601SOL     OW33527   1.755  13.475   3.448 -0.1009  0.0607 -0.6041
40601SOL    HW133528   1.771  13.550   3.506 -0.9532  0.0994 -0.4097
40601SOL    HW233529   1.815  13.408   3.478 -0.9510 -0.1328  0.7302
40602SOL     OW33530  10.499   5.635   7.636  0.0393 -0.1804  0.9842
40602SOL    HW133531  10.533   5.555   7.675 -3.4328 -0.8892  3.0930
40602SOL    HW233532  10.406   5.635   7.661 -1.0223  2.5687 -2.2536
40603SOL     OW33533   0.567   1.066  13.243 -0.8246  0.1230  0.6902
40603SOL    HW133534   0.525   1.000  13.188 -0.8594 -0.6173  1.5849
40603SOL    HW233535   0.561   1.031  13.332  2.7421 -0.6675  0.8084
40604SOL     OW33536   5.565  11.429   4.454  0.2643  0.5700  0.0323
40604SOL    HW133537   5.579  11.394   4.366  0.4359 -0.8123  0.5819
40604SOL    HW233538   5.537  11.353   4.506 -0.2979  1.4528  1.0698
40605SOL     OW33539   1.334   0.939   9.439  0.1185 -0.4611  0.1897
40605SOL    HW133540   1.357   1.030   9.456  1.1653 -0.5998 -0.3852
40605SOL    HW233541   1.385   0.889   9.503 -1.4886 -0.5904  1.4169
40606SOL     OW33542   2.542  11.071   3.651 -0.1489  0.1005  0.0880
40606SOL    HW133543   2.486  11.092   3.726  0.8205 -1.2206  1.2366
40606SOL    HW233544   2.489  11.093   3.574 -1.6438  0.3246  1.1498
40607SOL     OW33545   5.988   4.735  10.458 -0.1070  0.5197 -0.7458
40607SOL    HW133546   5.999   4.640  10.457  0.3330  0.5281  0.7472
40607SOL    HW233547   5.953   4.756  10.371 -0.1459 -0.9858 -1.1253
40608SOL     OW33548   3.684   7.120   5.987  0.3665  0.4925 -0.3164
40608SOL    HW133549   3.770   7.144   5.954 -0.5094  0.6478 -2.7185
40608SOL    HW233550   3.678   7.160   6.074  2.8792  0.0019  0.1497
40609SOL     OW33551  11.720  13.718   1.802  0.5173 -0.6014 -0.3092
40609SOL    HW133552  11.738  13.677   1.887  0.1436  1.2180  0.6880
40609SOL    HW233553  11.625  13.736   1.804  0.7208  0.5719 -0.5699
40610SOL     OW33554   9.067   4.017   5.841 -0.3311  0.4866 -0.1273
40610SOL    HW133555   9.016   4.097   5.845  0.5213  0.9962  1.1652
40610SOL    HW233556   9.157   4.046   5.823 -0.2094 -0.2696 -0.8073
40611SOL     OW33557   7.915  12.518   4.196  0.1647  0.4051  0.8516
40611SOL    HW133558   7.996  12.565   4.213 -0.8919  1.9713  1.7914
40611SOL    HW233559   7.891  12.481   4.281 -1.5906  2.4664  1.3404
40612SOL     OW33560   1.586   5.478  13.301 -0.3498  0.0893  0.1762
40612SOL    HW133561   1.553   5.558  13.343 -0.8230 -0.2138  0.3928
40612SOL    HW233562   1.663   5.454  13.352 -0.9851 -0.3429  0.9662
40613SOL     OW33563   4.778   6.259  13.372  0.1181 -0.5013  0.2409
40613SOL    HW133564   4.853   6.274  13.313  0.6320  0.8776  1.1933
40613SOL    HW233565   4.796   6.174  13.413  0.0183 -1.2328 -1.1479
40614SOL     OW33566  13.370   9.502  11.167  0.1643 -0.2856 -0.3506
40614SOL    HW133567  13.454   9.472  11.201  1.1594  0.5240 -2.0061
40614SOL    HW233568  13.334   9.556  11.237  2.0474  1.1541 -0.4317
40615SOL     OW33569  11.488   8.951   6.527 -0.2212  0.4659  0.0673
40615SOL    HW133570  11.490   8.897   6.606  0.7502  2.1475  1.2581
40615SOL    HW233571  11.517   8.892   6.457  0.4878 -0.6467  1.2471
40616SOL     OW33572   4.362  11.138  13.614  0.0990  0.1193  0.0638
40616SOL    HW133573   4.271  11.157  13.635  0.5924  0.3064  2.3366
40616SOL    HW233574   4.395  11.220  13.576 -0.4472  0.3614  0.1038
40617SOL     OW33575   3.555   3.885   5.178  0.2799  0.1328 -0.7430
40617SOL    HW133576   3.631   3.931   5.143 -0.1757  1.5127  0.0042
40617SOL    HW233577   3.480   3.938   5.151 -0.2371  0.0409  0.4403
40618SOL     OW33578  10.479   1.893   4.856 -0.1707 -0.7243  0.1717
40618SOL    HW133579  10.469   1.920   4.765  1.5720  1.4886  0.5353
40618SOL    HW233580  10.549   1.828   4.855  1.9525  1.3984  0.1123
40619SOL     OW33581   5.888   3.541  11.392 -0.0095  0.5689 -0.1161
40619SOL    HW133582   5.929   3.492  11.320  0.6770  1.3161 -0.2457
40619SOL    HW233583   5.962   3.575  11.442 -0.4584 -1.0524  1.7361
40620SOL     OW33584   7.584  12.589   0.546  0.3628  0.1977 -0.0710
40620SOL    HW133585   7.636  12.669   0.553 -0.1176  0.5468 -0.3790
40620SOL    HW233586   7.648  12.518   0.548  0.7171  0.5388  1.1596
40621SOL     OW33587  11.744  11.223   1.677  0.5055  0.0915  0.5165
40621SOL    HW133588  11.712  11.170   1.603  0.5621  0.0749  0.5037
40621SOL    HW233589  11.835  11.196   1.688  0.3619 -0.2597  0.9023
40622SOL     OW33590   9.633  13.613   8.026  0.6415 -0.0417  0.1770
40622SOL    HW133591   9.662  13.525   8.050 -0.5125 -0.8213 -1.1469
40622SOL    HW233592   9.576  13.600   7.951  0.1529  1.8230  0.1732
40623SOL     OW33593   8.032   0.122  10.360 -0.1099  0.5681 -0.3899
40623SOL    HW133594   8.048   0.140  10.267  1.9672  0.2555 -0.1413
40623SOL    HW233595   8.118   0.130  10.401 -1.0291  1.0114  1.5874
40624SOL     OW33596   4.037   4.455  13.349  0.0772 -0.3621  0.2308
40624SOL    HW133597   4.041   4.368  13.388 -0.1379 -0.2052  0.6131
40624SOL    HW233598   4.063   4.442  13.258  1.1177 -0.6560  0.5569
40625SOL     OW33599   4.801   0.156   3.553 -0.1791  0.1765  0.2276
40625SOL    HW133600   4.846   0.177   3.471  1.5150 -0.8516  0.8423
40625SOL    HW233601   4.871   0.132   3.613 -1.4318  0.3086  1.8141
40626SOL     OW33602  10.407   7.581   8.938  0.0816 -0.1955  0.1352
40626SOL    HW133603  10.469   7.601   8.868 -0.4675  1.7637  0.1489
40626SOL    HW233604  10.457   7.527   8.999  0.9798 -0.8025 -1.0863
40627SOL     OW33605   3.775   3.458  12.630 -0.1427  0.0888  0.6150
40627SOL    HW133606   3.847   3.510  12.595 -1.2551  0.9636 -0.4373
40627SOL    HW233607   3.795   3.449  12.723  1.4009  0.1612  0.3155
40628SOL     OW33608   3.623   5.203   9.476  0.0591 -0.0344 -0.1194
40628SOL    HW133609   3.623   5.299   9.476  0.1886  0.0979 -3.6963
40628SOL    HW233610   3.641   5.179   9.385  2.4228 -3.5090  1.0441
40629SOL     OW33611   7.423  10.428   6.564 -0.0575  0.2327 -0.3442
40629SOL    HW133612   7.505  10.441   6.517  1.0342 -0.9415  1.1178
40629SOL    HW233613   7.391  10.343   6.534  2.0130 -1.8453  2.7060
40630SOL     OW33614   4.474   9.521   3.383 -0.2090 -0.1688 -0.2281
40630SOL    HW133615   4.477   9.453   3.451 -2.0433 -0.7794 -0.6839
40630SOL    HW233616   4.446   9.600   3.430  0.6606 -0.0312  0.0781
40631SOL     OW33617   5.103   1.621   3.005 -0.4965 -0.0093  0.0214
40631SOL    HW133618   5.021   1.666   3.027  0.8152  1.8114  1.5327
40631SOL    HW233619   5.160   1.689   2.971  0.4101 -1.2604 -1.0812
40632SOL     OW33620   2.839   3.359   7.682  0.3036  0.3691 -0.2646
40632SOL    HW133621   2.820   3.419   7.754  0.9326 -1.5543  1.6068
40632SOL    HW233622   2.933   3.341   7.691  0.0865 -1.0453 -0.6245
40633SOL     OW33623   7.549   8.449   2.762  0.3911  0.3769 -0.2930
40633SOL    HW133624   7.463   8.437   2.802  0.2856  1.5583 -0.1449
40633SOL    HW233625   7.577   8.536   2.789  2.2189 -0.4779  0.7376
40634SOL     OW33626   5.928   8.862   3.402 -0.0289  1.0430  0.7004
40634SOL    HW133627   5.946   8.772   3.427  0.0775  1.4613  2.1955
40634SOL    HW233628   5.961   8.869   3.312 -2.1102 -1.0189 -0.3145
40635SOL     OW33629   2.454   4.691  10.134 -0.1397 -0.5080  0.2424
40635SOL    HW133630   2.440   4.777  10.094 -0.7132 -0.9028 -0.4292
40635SOL    HW233631   2.367   4.650  10.136  0.0324 -0.8642  1.0571
40636SOL     OW33632  12.994   1.536   4.418 -0.1110 -0.5220 -0.3371
40636SOL    HW133633  12.968   1.490   4.338  2.1790  0.7960 -1.9401
40636SOL    HW233634  12.957   1.624   4.409 -1.3508 -0.8596  0.9698
40637SOL     OW33635   9.866   0.325   0.139 -0.0390  0.1245  0.2681
40637SOL    HW133636   9.789   0.287   0.095 -0.6999  1.2113  0.4531
40637SOL    HW233637   9.888   0.401   0.086  3.3581 -2.2081 -2.0978
40638SOL     OW33638   3.261   3.264   1.846 -0.4992 -0.0349  0.2753
40638SOL    HW133639   3.253   3.170   1.833 -1.2726 -0.1426  1.3640
40638SOL    HW233640   3.326   3.273   1.915 -0.1041  0.2555 -0.1320
40639SOL     OW33641  10.709   4.113   1.190  0.4590 -0.3410 -0.7563
40639SOL    HW133642  10.800   4.141   1.181  0.0319  0.6617 -2.1132
40639SOL    HW233643  10.670   4.127   1.104 -0.9213 -1.0186 -0.2714
40640SOL     OW33644   0.418   0.835   9.155  0.5706  0.0911 -0.0955
40640SOL    HW133645   0.429   0.759   9.099 -1.8675 -0.0195 -0.5206
40640SOL    HW233646   0.422   0.800   9.244 -0.5909 -0.6041 -0.2872
40641SOL     OW33647   0.325   1.551   1.591 -0.1915  0.0254  0.9596
40641SOL    HW133648   0.411   1.512   1.575  0.6270  1.9496  0.3600
40641SOL    HW233649   0.341   1.620   1.656 -1.4952 -0.2809  1.6583
40642SOL     OW33650  13.099  10.594   1.071  0.0166 -0.0908  0.3472
40642SOL    HW133651  13.102  10.554   1.158  0.7375 -0.6476  0.0802
40642SOL    HW233652  13.190  10.590   1.040 -0.1612  0.4687 -0.2660
40643SOL     OW33653   5.511   3.193   9.777 -0.0905  0.1654  0.0021
40643SOL    HW133654   5.539   3.281   9.803  1.1103 -0.1155 -0.2858
40643SOL    HW233655   5.443   3.169   9.841 -0.2935  1.2196  0.1944
40644SOL     OW33656   7.413   5.044   7.245 -0.2049 -0.3333  0.4688
40644SOL    HW133657   7.447   5.132   7.261 -3.0394  0.8401  0.4758
40644SOL    HW233658   7.329   5.058   7.202 -1.2116 -3.0165  1.3683
40645SOL     OW33659   9.089  12.169   9.562  0.2269 -0.3480 -0.4607
40645SOL    HW133660   9.022  12.235   9.543 -0.2151 -0.5055  0.4824
40645SOL    HW233661   9.153  12.179   9.492  0.3741  1.3548 -0.1291
40646SOL     OW33662  13.295   1.867   1.493  0.2744  0.0059 -0.3780
40646SOL    HW133663  13.269   1.896   1.405 -0.7696  2.6372  0.6833
40646SOL    HW233664  13.217   1.881   1.547  1.0787 -0.9601  1.1043
40647SOL     OW33665  10.837  10.740   9.526 -0.1802 -0.2886 -0.3852
40647SOL    HW133666  10.794  10.773   9.447  0.3329 -1.7618 -1.3145
40647SOL    HW233667  10.926  10.775   9.522 -0.7547  1.4414  0.7161
40648SOL     OW33668  10.619  12.272   8.920  0.3107 -0.0681 -0.5906
40648SOL    HW133669  10.580  12.343   8.971  0.9901 -0.1345  0.0421
40648SOL    HW233670  10.617  12.196   8.979  1.1682 -0.1258 -0.6237
40649SOL     OW33671   4.498   3.919  13.505  0.0593  0.2696 -0.6245
40649SOL    HW133672   4.554   3.844  13.523  0.3230  0.8777  1.3765
40649SOL    HW233673   4.409   3.883  13.500 -0.2328  0.0117  3.1753
40650SOL     OW33674   7.454   4.475   9.712 -0.3570  0.5593  0.4558
40650SOL    HW133675   7.471   4.384   9.732  0.1057  0.7939  1.1665
40650SOL    HW233676   7.457   4.480   9.617  2.0142  0.2716  0.4560
40651SOL     OW33677  13.583   2.419   5.934 -0.1727 -0.3905  0.0552
40651SOL    HW133678  13.668   2.374   5.932  0.5141  0.6482  2.4990
40651SOL    HW233679  13.529   2.370   5.872  1.7437 -2.0223 -0.4443
40652SOL     OW33680   0.812   2.258  13.311  0.1078  0.0728  0.3319
40652SOL    HW133681   0.792   2.351  13.317  2.2735  0.5249  1.8586
40652SOL    HW233682   0.856   2.248  13.226 -0.8586  0.2502 -0.2046
40653SOL     OW33683  12.252   1.698   7.124  0.3522  0.6557  0.5355
40653SOL    HW133684  12.221   1.725   7.211  0.0387  0.9842  0.3219
40653SOL    HW233685  12.209   1.758   7.063  1.1555  0.9088  0.2092
40654SOL     OW33686   9.826  11.009   4.566 -0.0460  0.0698  0.1748
40654SOL    HW133687   9.788  11.045   4.486 -0.9321 -0.4394  0.3581
40654SOL    HW233688   9.919  10.997   4.544 -0.0386  1.0216 -0.3826
40655SOL     OW33689  10.582   3.860  13.703 -0.5573 -0.3718  0.5104
40655SOL    HW133690  10.520   3.823  13.766 -0.6458  0.8663  1.1713
40655SOL    HW233691  10.648   3.791  13.692 -1.7793 -1.5203  0.1587
40656SOL     OW33692  12.626   6.779   9.800 -0.3791 -0.6198 -1.0148
40656SOL    HW133693  12.547   6.766   9.852 -1.5216  0.0808 -2.4839
40656SOL    HW233694  12.643   6.874   9.804  0.3086 -0.7383 -0.8537
40657SOL     OW33695   0.458  11.578  12.210  0.6637 -0.4565  0.1583
40657SOL    HW133696   0.498  11.597  12.295  0.1203  2.6799 -0.1928
40657SOL    HW233697   0.375  11.535  12.233  0.5231  0.3358  1.2239
40658SOL     OW33698   6.266  13.185  11.326  0.2159  0.3021 -0.0747
40658SOL    HW133699   6.180  13.163  11.292 -0.2519 -0.0802  1.2996
40658SOL    HW233700   6.252  13.205  11.418  1.0505  3.6954 -0.5523
40659SOL     OW33701   0.204  11.542   9.985 -0.2552  0.3148 -0.5629
40659SOL    HW133702   0.240  11.541  10.073  1.1123 -0.9097 -1.0897
40659SOL    HW233703   0.152  11.622   9.981 -2.0799 -0.6097  1.9872
40660SOL     OW33704   9.255   4.054   1.290 -0.6775  0.0882 -0.4100
40660SOL    HW133705   9.304   4.022   1.215 -1.3309 -2.0519  0.0089
40660SOL    HW233706   9.307   4.028   1.366 -1.7992 -1.0962 -0.0082
40661SOL     OW33707   4.332   4.962  11.078  1.3570 -0.0127  0.6081
40661SOL    HW133708   4.300   5.051  11.092  1.9967  0.1796  0.8751
40661SOL    HW233709   4.272   4.907  11.128 -0.7411 -0.0257 -1.7684
40662SOL     OW33710  11.384   9.914   5.383  0.3540 -0.1144 -0.1555
40662SOL    HW133711  11.377   9.915   5.479 -3.1357 -1.3032 -0.2313
40662SOL    HW233712  11.396  10.006   5.360 -0.5246  0.4553  1.4310
40663SOL     OW33713  13.570   5.318   6.202  0.1972 -0.5075  0.1438
40663SOL    HW133714  13.586   5.372   6.279  3.0480 -0.3730 -0.4314
40663SOL    HW233715  13.563   5.381   6.130 -0.5459 -0.7286  0.0161
40664SOL     OW33716   0.699   0.140   2.066  0.0349  0.3469  0.0493
40664SOL    HW133717   0.664   0.229   2.074 -0.3381  0.0323  3.0082
40664SOL    HW233718   0.633   0.084   2.108  0.1906 -1.4226 -1.8628
40665SOL     OW33719   5.113   4.361   1.972 -0.4449  0.0487  0.1292
40665SOL    HW133720   5.169   4.421   2.021  0.6460 -0.2000 -0.7931
40665SOL    HW233721   5.059   4.319   2.039  1.2193 -0.5035  1.1809
40666SOL     OW33722   3.022   0.936   9.375 -0.1491  0.2311 -0.4396
40666SOL    HW133723   2.967   0.926   9.453 -1.2572 -1.5322 -1.3699
40666SOL    HW233724   2.999   1.023   9.341 -0.5497  0.5145  0.5273
40667SOL     OW33725   1.991   2.203   2.589  0.4158 -0.6676  0.4936
40667SOL    HW133726   2.029   2.117   2.572  0.5555 -0.3399 -1.0399
40667SOL    HW233727   1.935   2.220   2.513 -3.4551 -1.4086  2.9396
40668SOL     OW33728  13.093   4.281   8.395  0.6330 -0.3836  0.0184
40668SOL    HW133729  13.120   4.259   8.485  1.1471 -0.4126 -0.1376
40668SOL    HW233730  13.022   4.343   8.406  1.0035 -0.0276  0.4478
40669SOL     OW33731   2.184   9.191   9.633 -0.0442  0.1194 -0.5214
40669SOL    HW133732   2.228   9.221   9.712 -0.3997 -0.2944 -0.1618
40669SOL    HW233733   2.250   9.138   9.587  0.3532  0.8481 -0.8034
40670SOL     OW33734  11.646   9.972   2.011  0.1891  0.0927  0.1400
40670SOL    HW133735  11.665   9.882   2.039 -1.2526 -0.1057  0.5690
40670SOL    HW233736  11.575   9.963   1.948 -1.2011  1.0298  1.5006
40671SOL     OW33737  10.290   1.707  12.192 -0.2889 -0.1026 -0.3811
40671SOL    HW133738  10.373   1.664  12.214 -0.4979 -1.4201 -1.9352
40671SOL    HW233739  10.226   1.668  12.252 -0.1301 -0.5582 -0.5048
40672SOL     OW33740   5.066   0.826   2.192  0.0115  0.7633 -0.0573
40672SOL    HW133741   5.147   0.844   2.144  1.3898 -1.5249  1.1976
40672SOL    HW233742   5.074   0.734   2.219 -1.4760  1.3809  2.9504
40673SOL     OW33743   9.672   8.809  11.602 -0.0310 -0.3044 -0.4488
40673SOL    HW133744   9.610   8.739  11.583  1.0833 -1.6367  0.5866
40673SOL    HW233745   9.731   8.810  11.526 -0.4752  0.0104 -0.7927
40674SOL     OW33746   0.197   0.900   1.078 -0.3086  0.4039  0.0533
40674SOL    HW133747   0.254   0.937   1.010 -0.1578 -1.3573 -0.8415
40674SOL    HW233748   0.190   0.969   1.143  2.3482  0.9591 -0.1126
40675SOL     OW33749   8.748   3.140   4.072  0.3387 -0.0122  0.2671
40675SOL    HW133750   8.732   3.045   4.071  1.6688 -0.3197 -2.3054
40675SOL    HW233751   8.771   3.160   4.162 -2.6356 -1.5915  1.5058
40676SOL     OW33752   9.651   9.192   2.246  0.1776 -0.6221  0.3032
40676SOL    HW133753   9.644   9.135   2.322 -1.8104 -3.6903 -1.9038
40676SOL    HW233754   9.570   9.244   2.247  0.5783 -0.0033  0.7442
40677SOL     OW33755   6.917   2.341   7.376 -0.4456  0.6370  0.0661
40677SOL    HW133756   6.982   2.271   7.386 -1.4669 -0.1615  1.5410
40677SOL    HW233757   6.890   2.336   7.284  0.9926  0.4794 -0.3689
40678SOL     OW33758   1.119   1.532   3.414  0.0599  0.0716  0.0827
40678SOL    HW133759   1.135   1.589   3.338  1.3681 -0.6275 -0.2004
40678SOL    HW233760   1.127   1.443   3.379  0.8088 -0.2608  1.0510
40679SOL     OW33761   4.920  12.162   0.463  0.2149  0.3585 -0.0541
40679SOL    HW133762   4.988  12.199   0.519 -0.3903  0.6224  0.5199
40679SOL    HW233763   4.968  12.123   0.390  0.9937  0.3488  0.4504
40680SOL     OW33764   4.494  12.660   7.977 -0.9121 -0.1564  0.0162
40680SOL    HW133765   4.501  12.574   8.019 -1.7857  0.4534  1.4991
40680SOL    HW233766   4.461  12.642   7.889 -0.9660 -1.3494  0.2684
40681SOL     OW33767   3.331   6.942   5.237  0.1041  0.4206  0.7409
40681SOL    HW133768   3.285   7.017   5.273  2.4601  2.3933 -0.0780
40681SOL    HW233769   3.418   6.975   5.214  0.7018 -2.1400 -1.2714
40682SOL     OW33770   6.350   0.923  10.030  0.5510  0.3143 -0.9835
40682SOL    HW133771   6.430   0.896   9.985  0.6876 -1.3875  0.1730
40682SOL    HW233772   6.380   0.976  10.104  0.5402  0.6039 -1.1891
40683SOL     OW33773   8.441  11.005   2.445 -0.0633  0.3432 -0.2255
40683SOL    HW133774   8.438  11.072   2.512 -0.4213  0.8607 -0.7516
40683SOL    HW233775   8.507  10.942   2.476  0.0425  0.7725  0.4170
40684SOL     OW33776   4.104   8.189   6.398 -0.4624  0.7874  0.4991
40684SOL    HW133777   4.186   8.152   6.364 -0.8256  0.7686 -0.3583
40684SOL    HW233778   4.087   8.139   6.478  0.3806  0.8185  0.7115
40685SOL     OW33779   1.947   5.343   1.489 -0.0607 -0.1127 -0.2111
40685SOL    HW133780   1.996   5.334   1.407  0.4307 -2.2008  0.2565
40685SOL    HW233781   1.990   5.283   1.550 -0.7357  1.0087  1.4434
40686SOL     OW33782   5.634   2.461   4.658  0.4122  0.0817 -0.2385
40686SOL    HW133783   5.699   2.411   4.609 -0.3773 -0.7660 -0.4572
40686SOL    HW233784   5.684   2.500   4.730  0.5986 -4.1989  2.3689
40687SOL     OW33785   6.798   7.536   5.770 -0.1789  0.7110 -0.3272
40687SOL    HW133786   6.866   7.592   5.807 -0.3570  0.4604  0.4118
40687SOL    HW233787   6.829   7.447   5.789 -0.8213  0.6017  0.2260
40688SOL     OW33788   2.291  10.110   8.070 -0.2220  0.4039  0.6247
40688SOL    HW133789   2.299  10.089   8.163 -0.9039  0.6001  0.7306
40688SOL    HW233790   2.373  10.155   8.049  0.1746 -0.1335  0.9935
40689SOL     OW33791   4.557  10.282  12.471  0.0893 -0.5515  0.5327
40689SOL    HW133792   4.623  10.351  12.475 -1.4689  1.0650 -0.2145
40689SOL    HW233793   4.567  10.243  12.384 -0.5085  0.3469  0.0386
40690SOL     OW33794   2.828  10.271   4.458 -0.0694  0.4599  0.5822
40690SOL    HW133795   2.801  10.356   4.422 -0.9943  0.0757  0.3284
40690SOL    HW233796   2.789  10.207   4.398 -2.0764 -0.2305  2.4956
40691SOL     OW33797   5.069  11.024   9.660  0.1271 -0.3021 -0.4080
40691SOL    HW133798   4.988  11.020   9.710 -0.1863  0.2071 -0.8654
40691SOL    HW233799   5.138  11.033   9.726 -0.2613  0.1649 -0.0595
40692SOL     OW33800   5.812  10.014   6.585  0.0654 -0.1629 -0.1560
40692SOL    HW133801   5.859  10.090   6.619 -0.9807  0.6186 -0.3958
40692SOL    HW233802   5.751  10.050   6.521 -0.2582 -1.2435 -0.4834
40693SOL     OW33803   4.096   5.468   1.774  0.1353  0.2151  0.2475
40693SOL    HW133804   4.170   5.528   1.790  0.9400 -0.1534 -1.8497
40693SOL    HW233805   4.025   5.525   1.744  0.7318  0.2194 -1.2278
40694SOL     OW33806  10.671   5.597   0.454 -0.1769  0.8101  0.2468
40694SOL    HW133807  10.663   5.586   0.549  1.3382  1.6254  0.4878
40694SOL    HW233808  10.592   5.646   0.429 -1.6104 -1.1154  0.7391
40695SOL     OW33809  12.930   1.677   3.365 -0.2300 -0.2800 -0.0157
40695SOL    HW133810  12.878   1.756   3.381  1.6968  0.5867  2.6699
40695SOL    HW233811  12.991   1.702   3.295  0.6302  0.8033  1.0836
40696SOL     OW33812   0.669   8.886   0.500  0.5196  0.2682 -0.1670
40696SOL    HW133813   0.693   8.908   0.411 -0.1685  0.7255 -0.2476
40696SOL    HW233814   0.697   8.795   0.511 -1.1978 -0.4892 -1.5332
40697SOL     OW33815   7.711  11.092   2.117 -0.0859 -0.5494  0.8131
40697SOL    HW133816   7.773  11.163   2.097 -1.8284  0.8938  0.3118
40697SOL    HW233817   7.752  11.014   2.080  1.1140  0.4763 -0.1164
40698SOL     OW33818   5.118   0.343   9.315 -0.3033  0.2187 -0.3782
40698SOL    HW133819   5.099   0.381   9.401 -1.2056 -0.4085 -0.2805
40698SOL    HW233820   5.212   0.351   9.305 -0.2585  0.8447  0.4086
40699SOL     OW33821   3.310   2.237  10.478 -0.2693 -0.0987 -0.2500
40699SOL    HW133822   3.285   2.147  10.498  0.8532 -0.6881 -1.3473
40699SOL    HW233823   3.318   2.280  10.563  0.1365 -1.3152  0.3466
40700SOL     OW33824   8.544  10.751  12.627  0.2289  0.8003 -0.0345
40700SOL    HW133825   8.505  10.821  12.680 -0.8108  0.7420 -0.6852
40700SOL    HW233826   8.530  10.672  12.679 -0.2344  0.8298 -0.1074
40701SOL     OW33827  12.391  12.904  10.264 -0.3283 -0.0454  0.3158
40701SOL    HW133828  12.352  12.920  10.179 -1.7690  1.7564  1.2386
40701SOL    HW233829  12.331  12.844  10.308  0.4758 -1.0730  0.0629
40702SOL     OW33830   1.188   1.793  10.280 -0.3398 -0.3228 -0.1612
40702SOL    HW133831   1.222   1.722  10.335 -1.0136  0.4285  1.2904
40702SOL    HW233832   1.094   1.793  10.297 -0.4609  0.4101 -0.7621
40703SOL     OW33833  12.434  12.381   3.937 -0.5550  0.2471  0.2143
40703SOL    HW133834  12.343  12.386   3.966 -1.0093 -0.6636 -0.9810
40703SOL    HW233835  12.435  12.311   3.871  0.8713  0.7099 -0.3003
40704SOL     OW33836  10.150  12.868   7.044  0.1393 -0.0465 -0.2343
40704SOL    HW133837  10.134  12.961   7.029 -1.2879  0.0061  1.2913
40704SOL    HW233838  10.119  12.853   7.134  1.4384 -1.7500 -0.0278
40705SOL     OW33839   9.426   1.918   4.578 -0.5141  0.0713  0.3248
40705SOL    HW133840   9.399   1.898   4.668  2.0734 -1.5752  0.8586
40705SOL    HW233841   9.507   1.968   4.588  0.4326 -1.1068 -1.0479
40706SOL     OW33842   2.242  10.919   1.905 -0.0062  0.1773  0.3582
40706SOL    HW133843   2.206  10.831   1.896 -0.3964  0.3580  0.1086
40706SOL    HW233844   2.305  10.926   1.832 -0.8752  0.5318 -0.3775
40707SOL     OW33845   3.687   9.593   0.380  0.1118  0.4560  0.6449
40707SOL    HW133846   3.763   9.600   0.323 -0.7841 -2.5115 -1.1324
40707SOL    HW233847   3.618   9.641   0.334 -0.0322 -0.0246  0.3548
40708SOL     OW33848   4.767   3.148   9.090 -0.0476  0.2320  0.0961
40708SOL    HW133849   4.717   3.137   9.009 -0.8531 -1.5736  0.7813
40708SOL    HW233850   4.852   3.108   9.071  0.0985  0.6450 -0.1348
40709SOL     OW33851  12.294   8.221  11.330 -0.5328  0.1830 -0.0167
40709SOL    HW133852  12.341   8.305  11.329 -0.4487  0.2343  2.4445
40709SOL    HW233853  12.330   8.174  11.405 -2.1077 -1.1702 -0.0448
40710SOL     OW33854   0.045   0.472   6.271  0.6690  0.3279 -0.0797
40710SOL    HW133855   0.125   0.523   6.285  2.9642 -2.5136 -1.6556
40710SOL    HW233856   0.046   0.450   6.178 -1.2276 -0.9633  0.1347
40711SOL     OW33857   7.398  12.836   4.948 -0.7607  0.1747  0.2286
40711SOL    HW133858   7.473  12.872   4.901 -0.2354  1.1659  1.7841
40711SOL    HW233859   7.338  12.809   4.878  0.4982  0.4956 -1.0255
40712SOL     OW33860   6.970   7.886   5.769 -0.9282  0.5525 -0.8577
40712SOL    HW133861   6.934   7.925   5.689 -0.1194 -1.9203 -2.5497
40712SOL    HW233862   6.923   7.803   5.778  0.8023 -0.4118 -0.2619
40713SOL     OW33863   6.629   1.245   5.042  0.2037 -0.3219  0.1008
40713SOL    HW133864   6.572   1.235   5.119  0.6377  1.2458  0.6832
40713SOL    HW233865   6.707   1.194   5.063  1.5650  2.2771  2.0893
40714SOL     OW33866   6.347   4.561  10.077 -0.5011  0.6053 -0.1240
40714SOL    HW133867   6.400   4.638  10.054 -2.0086  1.4994 -0.6971
40714SOL    HW233868   6.272   4.597  10.125 -1.1505 -0.5271 -0.2627
40715SOL     OW33869   4.902   7.622   6.625 -0.0335  0.4721  0.1780
40715SOL    HW133870   4.814   7.587   6.609  0.0033  0.3778  0.1819
40715SOL    HW233871   4.959   7.571   6.567  0.1993 -0.3373  1.0905
40716SOL     OW33872   4.910  12.408   6.076  0.2771 -0.3289  0.0986
40716SOL    HW133873   4.978  12.404   6.144  0.6322 -1.2952 -0.2927
40716SOL    HW233874   4.828  12.410   6.124  0.5757  2.0968  0.6148
40717SOL     OW33875   1.943   0.229   3.053  0.6915  0.0287  0.2122
40717SOL    HW133876   1.857   0.211   3.092  0.8712 -0.2629  0.4714
40717SOL    HW233877   1.984   0.293   3.112  1.3162 -1.0613  0.9899
40718SOL     OW33878   4.072  12.734   0.603  0.1471 -0.4591 -0.3164
40718SOL    HW133879   4.144  12.740   0.666 -0.5341  0.4117  0.3824
40718SOL    HW233880   4.001  12.785   0.641 -1.2615 -2.1884 -0.4582
40719SOL     OW33881   0.597   0.594   1.539 -0.1566 -0.2472  0.3592
40719SOL    HW133882   0.671   0.545   1.503 -0.3575  0.1539 -0.6306
40719SOL    HW233883   0.617   0.685   1.521  1.0098  0.2624  3.6652
40720SOL     OW33884  10.100  10.042  11.398  0.5874  1.1188 -0.1649
40720SOL    HW133885  10.022  10.000  11.434  1.4746 -1.6545 -1.2296
40720SOL    HW233886  10.093  10.134  11.425 -2.2394  0.6322  1.0400
40721SOL     OW33887  11.928  10.559   3.633  0.5437 -0.4551  0.1837
40721SOL    HW133888  11.920  10.463   3.631 -2.2709 -0.3315  1.2687
40721SOL    HW233889  11.901  10.588   3.546 -0.1847 -0.5917  0.3597
40722SOL     OW33890   3.997   7.645   7.670 -0.2557  0.2260  0.0127
40722SOL    HW133891   3.980   7.726   7.718  0.5191  0.3523  0.0933
40722SOL    HW233892   4.091   7.649   7.650 -0.7612  0.7995 -2.5993
40723SOL     OW33893   4.227   1.140   5.001 -0.0895  0.5357 -0.9710
40723SOL    HW133894   4.226   1.046   4.987 -1.2374  0.5106 -0.8220
40723SOL    HW233895   4.134   1.165   5.003  0.1953  1.6265 -0.7783
40724SOL     OW33896   7.297   8.457   5.046  0.0840  0.3681 -0.1203
40724SOL    HW133897   7.227   8.518   5.023 -0.6741  0.2144  1.5884
40724SOL    HW233898   7.304   8.398   4.971 -1.0128  0.9344 -0.6859
40725SOL     OW33899   4.269   1.023  11.444  1.1382 -0.1921  0.1360
40725SOL    HW133900   4.314   1.095  11.401  1.7010  0.4810  1.7543
40725SOL    HW233901   4.277   1.043  11.538  0.1475 -1.6730  0.5690
40726SOL     OW33902   9.136  12.147  10.519  0.3529  0.0790  0.0587
40726SOL    HW133903   9.111  12.212  10.453 -2.6939 -1.9634 -0.9818
40726SOL    HW233904   9.078  12.164  10.593  1.5949  0.3487  1.0133
40727SOL     OW33905  13.332   2.399   7.938  0.1137 -0.1216  0.4594
40727SOL    HW133906  13.265   2.404   7.870  0.7752 -0.2309 -0.2165
40727SOL    HW233907  13.358   2.307   7.940  0.6238  0.0171  0.3435
40728SOL     OW33908   4.708   2.882  11.776  0.0221  0.2846  0.3042
40728SOL    HW133909   4.742   2.943  11.842  0.7826  0.6287 -0.3797
40728SOL    HW233910   4.688   2.937  11.701 -1.3893 -0.0225  0.4213
40729SOL     OW33911   7.558  12.500  10.141 -0.3076 -0.1125  0.3641
40729SOL    HW133912   7.512  12.424  10.106  0.1257 -1.4390  2.5020
40729SOL    HW233913   7.646  12.467  10.162  0.7578  1.6629 -1.0562
40730SOL     OW33914  11.818  12.924   8.893  0.2736 -0.2290 -0.3152
40730SOL    HW133915  11.862  12.972   8.963 -0.2619 -1.0243  0.5916
40730SOL    HW233916  11.729  12.911   8.925 -0.3128  0.3780 -1.6383
40731SOL     OW33917  13.692  13.165   6.242  0.6097  0.0681 -0.2424
40731SOL    HW133918  13.764  13.205   6.194  0.2153  0.4081 -0.5589
40731SOL    HW233919  13.671  13.086   6.191 -0.3328  0.8462 -1.0960
40732SOL     OW33920   8.909  10.971  12.302 -0.1379 -0.3763  0.2727
40732SOL    HW133921   8.945  10.892  12.263 -2.8279 -1.3989 -0.3027
40732SOL    HW233922   8.823  10.945  12.336 -0.2957  1.8509  1.8082
40733SOL     OW33923   6.287   7.896  11.178 -0.0432  0.3339 -0.3799
40733SOL    HW133924   6.342   7.975  11.170 -0.8566  0.8078 -1.6180
40733SOL    HW233925   6.350   7.824  11.180  0.6728  0.8544 -1.8931
40734SOL     OW33926   7.737   2.094   3.049  0.6307 -0.0998 -0.2298
40734SOL    HW133927   7.748   2.187   3.069  0.6223 -0.1718  0.1110
40734SOL    HW233928   7.801   2.050   3.106 -0.0979 -0.3845  0.3827
40735SOL     OW33929   0.785   9.693  13.713  0.0472  0.1216  0.2641
40735SOL    HW133930   0.878   9.675  13.707  0.1796  0.5889  0.8572
40735SOL    HW233931   0.773   9.730  13.800 -0.6381  0.3785  0.0668
40736SOL     OW33932   8.352   4.406   2.645 -0.3125 -0.6549 -0.2679
40736SOL    HW133933   8.419   4.339   2.627  0.0197 -0.3917 -0.0311
40736SOL    HW233934   8.306   4.418   2.562  1.1126  0.4639 -0.9348
40737SOL     OW33935   4.922   7.136   5.548 -0.0406 -0.2531 -0.3714
40737SOL    HW133936   4.941   7.198   5.618  0.1744  1.0302 -1.5211
40737SOL    HW233937   4.852   7.081   5.583 -0.0041  0.4082  0.7981
40738SOL     OW33938   6.693  11.285   9.315  0.3391 -0.0302 -0.4305
40738SOL    HW133939   6.717  11.297   9.224 -0.4842 -0.3578 -0.7062
40738SOL    HW233940   6.619  11.223   9.312  1.4005 -1.4099  0.5744
40739SOL     OW33941   5.696  13.023   0.919  0.0476 -0.1520 -0.3969
40739SOL    HW133942   5.759  12.951   0.912  1.8858  1.4020 -0.5912
40739SOL    HW233943   5.740  13.098   0.879 -0.7644  1.7534  2.0014
40740SOL     OW33944  12.585   7.072   3.536  0.0304  0.4358  0.6332
40740SOL    HW133945  12.579   7.165   3.554 -1.2606  0.9204 -1.8149
40740SOL    HW233946  12.667   7.062   3.489 -0.9771  0.8448 -1.3187
40741SOL     OW33947  11.948  10.992   4.244  0.6821 -0.3906 -0.5076
40741SOL    HW133948  11.923  10.982   4.152 -0.9226 -0.0586 -0.1343
40741SOL    HW233949  11.950  11.087   4.258 -1.2255 -0.4250  0.3106
40742SOL     OW33950   9.749  10.285   3.951 -0.0798 -0.1312 -0.0730
40742SOL    HW133951   9.781  10.201   3.982  0.0951  0.3243  1.0029
40742SOL    HW233952   9.827  10.342   3.949 -0.2763  0.1379 -0.3725
40743SOL     OW33953  10.804  12.118   5.997  0.1426 -0.1997 -0.5375
40743SOL    HW133954  10.827  12.105   6.088 -0.4299  1.5044 -0.1124
40743SOL    HW233955  10.846  12.200   5.973  0.0417 -0.4735 -1.7219
40744SOL     OW33956  10.891   5.947   8.173  0.6087  0.5976 -0.0094
40744SOL    HW133957  10.872   5.907   8.258 -0.2165  1.7090  0.3694
40744SOL    HW233958  10.836   5.899   8.111  2.1690 -1.0754 -0.1750
40745SOL     OW33959  12.626   0.293   7.745 -0.4198  0.1682  0.6080
40745SOL    HW133960  12.656   0.214   7.700  1.2967  0.9440  0.3404
40745SOL    HW233961  12.687   0.303   7.818 -0.0408  1.7534  0.0984
40746SOL     OW33962   7.504  11.547   5.590  0.0917  0.3628  0.3413
40746SOL    HW133963   7.422  11.587   5.562  0.8423  2.0536  0.4152
40746SOL    HW233964   7.557  11.620   5.621  0.7456 -0.9483  2.5794
40747SOL     OW33965   0.827   2.359   2.428 -0.3832 -0.4071  0.0503
40747SOL    HW133966   0.752   2.402   2.388 -0.6956 -0.2673  0.7739
40747SOL    HW233967   0.791   2.312   2.503  0.2190 -0.4937  0.2908
40748SOL     OW33968   2.782  10.512  12.161  0.4459 -0.1530 -0.1613
40748SOL    HW133969   2.703  10.457  12.171 -0.7433  1.3248 -1.0085
40748SOL    HW233970   2.831  10.469  12.091  0.8308 -1.5376  0.9113
40749SOL     OW33971  11.366   7.308   5.694  0.2776 -0.2640  0.7908
40749SOL    HW133972  11.368   7.388   5.747 -2.2465 -0.3006  1.0503
40749SOL    HW233973  11.367   7.237   5.758 -0.1346 -0.3663  0.6876
40750SOL     OW33974   7.112  10.822   3.367 -0.2500 -0.1740  0.4850
40750SOL    HW133975   7.114  10.894   3.303 -0.3863 -1.5345 -1.1232
40750SOL    HW233976   7.019  10.808   3.384 -0.5633 -2.3960 -2.2133
40751SOL     OW33977  10.657  11.869  11.529  0.1070 -0.0800 -0.2509
40751SOL    HW133978  10.655  11.931  11.456 -0.2134  0.1670 -0.0361
40751SOL    HW233979  10.585  11.896  11.585 -1.3750 -1.8962 -1.1630
40752SOL     OW33980   1.649   4.487  12.231  0.4945 -0.1760  0.3630
40752SOL    HW133981   1.630   4.421  12.164 -2.2676 -0.6628  1.4738
40752SOL    HW233982   1.674   4.565  12.182 -0.9233 -0.6630 -1.2204
40753SOL     OW33983   5.603   7.165   7.933  0.4073 -0.7443 -0.0110
40753SOL    HW133984   5.511   7.176   7.957 -0.4785  2.0802 -3.6539
40753SOL    HW233985   5.606   7.081   7.889 -0.3127 -1.0873  0.5620
40754SOL     OW33986   5.511   0.602   6.962  0.2143  0.1705 -0.0833
40754SOL    HW133987   5.589   0.548   6.958 -0.9800 -1.5909 -0.8104
40754SOL    HW233988   5.440   0.541   6.981 -0.8711  1.8737  1.8356
40755SOL     OW33989   9.085   3.577   1.851  0.7157 -0.3473 -0.6066
40755SOL    HW133990   9.002   3.545   1.887  0.4129  0.1435 -0.8496
40755SOL    HW233991   9.062   3.610   1.764  1.0395  0.3868 -0.4229
40756SOL     OW33992   0.562   2.053  12.107  0.0883 -0.1834 -0.2147
40756SOL    HW133993   0.593   2.135  12.069 -0.5844 -0.6722 -1.8919
40756SOL    HW233994   0.590   2.058  12.199  1.6849  1.0926 -0.7074
40757SOL     OW33995   1.461   2.323   0.446  0.3183  0.3162 -0.0419
40757SOL    HW133996   1.527   2.305   0.513  1.0781 -1.3466 -1.1731
40757SOL    HW233997   1.476   2.415   0.421  0.5937  0.6850  1.4113
40758SOL     OW33998   2.012   4.624   6.196 -0.1595 -0.3600 -0.2232
40758SOL    HW133999   2.012   4.568   6.274 -0.7857 -0.5199 -0.3249
40758SOL    HW234000   2.054   4.705   6.224 -0.8680 -0.2070  0.4490
40759SOL     OW34001  10.396   4.146   5.887 -0.0625  0.3960  0.3040
40759SOL    HW134002  10.391   4.175   5.796  1.4855  1.1592  0.4203
40759SOL    HW234003  10.315   4.098   5.902  0.2763 -1.0306 -1.9235
40760SOL     OW34004   1.466   8.329   0.599 -0.3716  0.0390  0.8084
40760SOL    HW134005   1.532   8.270   0.563 -1.0339  0.2793 -0.9456
40760SOL    HW234006   1.513   8.381   0.664  1.4289  0.7871 -0.9621
40761SOL     OW34007   2.828   2.051   5.700 -0.1296  0.1920  0.4577
40761SOL    HW134008   2.785   1.980   5.748 -0.8216  1.4984  1.8609
40761SOL    HW234009   2.758   2.114   5.683  0.4928  0.6017 -0.6456
40762SOL     OW34010  10.341   1.799   5.691 -0.1577  0.1900 -0.1061
40762SOL    HW134011  10.407   1.862   5.664 -0.0424  0.1017 -0.0346
40762SOL    HW234012  10.270   1.852   5.727  0.0333  0.2687  0.1606
40763SOL     OW34013   6.536  12.892   0.059  0.1243 -0.3327 -0.4610
40763SOL    HW134014   6.568  12.863   0.145  1.8341  0.2570 -0.8632
40763SOL    HW234015   6.568  12.827  -0.002 -0.8235 -0.5791 -0.7087
40764SOL     OW34016  10.535   6.799   7.255  0.2575 -0.4867 -0.0715
40764SOL    HW134017  10.595   6.752   7.312  0.3580 -0.3855 -0.0923
40764SOL    HW234018  10.578   6.884   7.241  0.1094 -0.4146 -0.0866
40765SOL     OW34019  13.461   3.660   2.436 -0.0298  0.2648 -0.0068
40765SOL    HW134020  13.439   3.574   2.471 -0.1055 -0.4676 -1.7291
40765SOL    HW234021  13.488   3.643   2.346  0.2380  2.0208 -0.3016
40766SOL     OW34022   6.311   3.552  12.182 -0.0732 -0.2377  0.4094
40766SOL    HW134023   6.402   3.582  12.180  0.4049 -1.4905 -2.6095
40766SOL    HW234024   6.317   3.462  12.213 -0.4354  0.0339  1.2738
40767SOL     OW34025  12.543   2.857  13.173  0.0835 -0.0256  0.2889
40767SOL    HW134026  12.510   2.947  13.170  3.4947  1.3641 -1.7788
40767SOL    HW234027  12.520   2.821  13.087 -0.5195 -0.8643  0.7937
40768SOL     OW34028   7.425   0.944   5.107 -0.6638 -0.2422 -0.1152
40768SOL    HW134029   7.413   0.963   5.200 -1.6705  0.9125 -0.4649
40768SOL    HW234030   7.505   0.891   5.104 -2.0433 -2.6388  1.6758
40769SOL     OW34031   5.253   3.602   3.705  0.4307 -0.1290  0.0915
40769SOL    HW134032   5.293   3.628   3.622  1.5195  0.6980  0.8547
40769SOL    HW234033   5.310   3.640   3.772  0.0309 -1.4540  1.2303
40770SOL     OW34034   5.636   1.923   6.187 -0.1854 -0.6405 -0.1344
40770SOL    HW134035   5.607   1.992   6.247  1.3579 -0.2831  0.2242
40770SOL    HW234036   5.701   1.874   6.236  2.5058  0.7567 -2.0126
40771SOL     OW34037   6.201   9.439   8.519  0.1549  0.2244  0.1984
40771SOL    HW134038   6.292   9.413   8.499 -0.3766 -2.2263  0.6461
40771SOL    HW234039   6.194   9.432   8.614 -0.6668 -0.1775  0.1144
40772SOL     OW34040   0.272   8.551   8.508  0.1923  0.8160  0.2461
40772SOL    HW134041   0.197   8.542   8.566  1.0310 -1.2832  1.1396
40772SOL    HW234042   0.265   8.476   8.448  1.4274  0.6926  0.2200
40773SOL     OW34043   8.022  13.236  10.139 -0.7197  0.4924  0.3282
40773SOL    HW134044   7.962  13.199  10.203  0.0230  1.8119  1.8682
40773SOL    HW234045   7.970  13.244  10.059 -1.4424 -1.9494  0.4857
40774SOL     OW34046   7.085  11.372   2.857  0.4790 -0.3127  0.3648
40774SOL    HW134047   7.042  11.456   2.876 -0.8536 -1.1688  1.3495
40774SOL    HW234048   7.086  11.327   2.941  1.7119 -1.0685 -0.0330
40775SOL     OW34049   8.614   7.871   5.324 -0.2074 -1.0094  0.7662
40775SOL    HW134050   8.656   7.788   5.348  0.3570 -0.5131  1.5345
40775SOL    HW234051   8.604   7.865   5.228 -0.6404 -2.1683  0.8616
40776SOL     OW34052   5.167  13.569  12.702  0.3950 -0.4194  0.3126
40776SOL    HW134053   5.126  13.520  12.631  0.1779 -0.8401  0.7179
40776SOL    HW234054   5.116  13.544  12.780  1.2440 -0.7279  0.7790
40777SOL     OW34055   1.047   2.472  13.683 -0.1534 -0.4016 -0.2483
40777SOL    HW134056   1.076   2.430  13.764 -0.8059 -2.3794 -0.9970
40777SOL    HW234057   1.113   2.448  13.618  0.3394  1.1348 -0.3636
40778SOL     OW34058   3.015   1.363   8.383 -0.0575  0.0245 -0.5460
40778SOL    HW134059   2.999   1.358   8.477 -1.0933 -0.9944 -0.7631
40778SOL    HW234060   3.054   1.279   8.360  0.6685  0.4596 -0.9524
40779SOL     OW34061  10.280   1.405  11.152 -0.5123 -0.2736  0.1431
40779SOL    HW134062  10.319   1.454  11.079 -1.6028  0.7089  0.1992
40779SOL    HW234063  10.275   1.315  11.120 -0.4548  0.0414 -0.7906
40780SOL     OW34064   6.636   9.163   5.854 -0.5151  0.1977  0.1845
40780SOL    HW134065   6.659   9.111   5.778 -0.3136 -2.8145  2.1394
40780SOL    HW234066   6.707   9.148   5.916 -1.1252  1.7875  1.3238
40781SOL     OW34067   6.119   7.570  12.424  0.1620  0.1279 -0.5741
40781SOL    HW134068   6.127   7.493  12.367 -0.5815 -1.5731  1.4625
40781SOL    HW234069   6.041   7.615  12.393 -2.4036 -2.7565  1.1298
40782SOL     OW34070   2.645   8.998   8.467 -0.2504 -0.2691  0.1703
40782SOL    HW134071   2.627   9.088   8.441  0.0702 -0.4730 -0.7790
40782SOL    HW234072   2.621   8.945   8.391  0.2865 -0.9214  0.4428
40783SOL     OW34073   6.036  12.669   8.163  0.2569  0.4768  0.1543
40783SOL    HW134074   6.080  12.721   8.096 -0.9892  1.2040 -0.1367
40783SOL    HW234075   5.949  12.653   8.128 -0.0663 -0.0504  1.1483
40784SOL     OW34076   9.647   5.453  11.701 -0.2393  0.1277  0.8086
40784SOL    HW134077   9.733   5.490  11.683  0.0794  0.6255  3.0653
40784SOL    HW234078   9.666   5.371  11.747 -0.9678  0.4671  1.7226
40785SOL     OW34079  10.083   4.860   5.412 -0.3511  0.1762  0.4278
40785SOL    HW134080  10.038   4.945   5.407  0.4031  0.7100  2.0148
40785SOL    HW234081  10.023   4.799   5.369 -0.7140  1.5542 -1.1538
40786SOL     OW34082   0.839   9.211   1.146 -0.0723  0.1557 -0.3265
40786SOL    HW134083   0.800   9.168   1.069  0.5986 -0.5359 -0.2993
40786SOL    HW234084   0.773   9.274   1.174 -1.0195 -0.7281 -0.4941
40787SOL     OW34085   1.973  12.565  13.710 -0.3246  0.0747 -0.0647
40787SOL    HW134086   1.966  12.593  13.801 -3.2363 -0.0627 -0.1419
40787SOL    HW234087   1.883  12.567  13.677  0.3635 -1.7287 -2.3806
40788SOL     OW34088   5.609   2.722   3.014  0.1647  0.1781  0.1148
40788SOL    HW134089   5.695   2.710   3.055  0.0359  0.4837  0.4807
40788SOL    HW234090   5.558   2.772   3.078  0.1319  1.1489 -0.6385
40789SOL     OW34091  13.268   7.739  12.827 -0.0408 -0.2371 -0.2803
40789SOL    HW134092  13.317   7.692  12.895 -1.3214  0.3337  1.0929
40789SOL    HW234093  13.201   7.677  12.799 -1.6517  0.6003  1.4437
40790SOL     OW34094   7.531   8.743   2.338 -0.0317 -0.1835 -0.0129
40790SOL    HW134095   7.549   8.824   2.291 -0.8666  0.3235  0.5219
40790SOL    HW234096   7.553   8.674   2.275 -0.1062  0.4641 -0.7687
40791SOL     OW34097   8.097   4.783   9.600  0.0856 -0.3822 -0.4935
40791SOL    HW134098   8.022   4.842   9.589 -0.0955 -0.8094 -1.7065
40791SOL    HW234099   8.090   4.753   9.691 -0.8954  0.0168 -0.4192
40792SOL     OW34100   7.464  10.619  11.100  0.0620 -0.1053 -0.1576
40792SOL    HW134101   7.505  10.538  11.069  0.2178  0.2705 -0.9372
40792SOL    HW234102   7.385  10.590  11.147  1.1240 -0.8284  1.2542
40793SOL     OW34103  12.360  11.663   7.082 -0.1961 -0.1758 -0.1314
40793SOL    HW134104  12.409  11.722   7.139  0.7838 -0.3473 -0.7726
40793SOL    HW234105  12.270  11.667   7.114 -0.0697  1.3487  0.0904
40794SOL     OW34106   5.434   2.841   0.879  0.2205 -0.3255 -0.3841
40794SOL    HW134107   5.342   2.834   0.906  0.3905  2.0168  1.0616
40794SOL    HW234108   5.482   2.787   0.942  0.0112 -0.0312  0.0284
40795SOL     OW34109   5.578   8.183   4.119  0.5138 -0.5979  0.1454
40795SOL    HW134110   5.619   8.197   4.205  0.0948 -0.3613  0.3121
40795SOL    HW234111   5.603   8.260   4.068  1.8900 -1.3857 -0.3964
40796SOL     OW34112  12.730   1.555   8.852 -0.2786  0.0296  0.2777
40796SOL    HW134113  12.643   1.594   8.855 -1.0548 -1.6712  1.6713
40796SOL    HW234114  12.752   1.552   8.759 -1.7982  0.2861 -0.1164
40797SOL     OW34115   0.623   4.516   6.105 -0.2883 -0.5616 -0.2558
40797SOL    HW134116   0.609   4.536   6.198  1.0638 -1.6243  0.2152
40797SOL    HW234117   0.688   4.446   6.106 -0.6806 -0.9791 -2.0025
40798SOL     OW34118  12.457   2.406   9.863  0.2759 -0.3098 -0.0457
40798SOL    HW134119  12.427   2.336   9.921  2.5006 -2.3784 -1.1897
40798SOL    HW234120  12.423   2.382   9.777  0.4628  0.4084 -0.3275
40799SOL     OW34121   9.527   3.306   1.328  0.0943 -0.3661  0.1767
40799SOL    HW134122   9.469   3.254   1.273 -0.0330 -2.9456  2.5458
40799SOL    HW234123   9.545   3.251   1.404  2.8352  1.7242  1.2397
40800SOL     OW34124   9.606   2.728   2.386 -1.0568  0.1982 -0.2075
40800SOL    HW134125   9.586   2.751   2.295  0.0899 -1.9388 -1.0708
40800SOL    HW234126   9.541   2.776   2.438 -1.6721  1.5561 -2.1211
40801SOL     OW34127  12.423  10.112   8.347 -0.0755  0.3176  0.1935
40801SOL    HW134128  12.350  10.158   8.390 -1.5762 -0.2055 -1.6460
40801SOL    HW234129  12.458  10.054   8.414 -1.7002  0.2236  1.0079
40802SOL     OW34130   5.199   2.544   0.342 -0.0615  0.0014  0.3494
40802SOL    HW134131   5.288   2.555   0.374 -0.1828  2.1205  0.0926
40802SOL    HW234132   5.171   2.632   0.318 -1.6547 -0.8476 -1.1202
40803SOL     OW34133  12.201   4.901  12.594  0.6750 -0.2400  0.5520
40803SOL    HW134134  12.153   4.863  12.521 -0.0978  1.1490  0.2918
40803SOL    HW234135  12.293   4.898  12.567  0.5786 -1.4325  0.3413
40804SOL     OW34136   2.775   2.891  11.964  0.0439  0.3313 -0.3857
40804SOL    HW134137   2.737   2.862  12.047 -0.7925  2.6806  0.1164
40804SOL    HW234138   2.847   2.829  11.948  0.0157 -0.3878  1.8851
40805SOL     OW34139   5.152   9.315   9.477  0.3232  0.0598 -0.2738
40805SOL    HW134140   5.112   9.376   9.539  0.8648 -1.6321  1.8784
40805SOL    HW234141   5.219   9.366   9.432 -0.3839  1.4643  0.2262
40806SOL     OW34142   2.406   7.326   2.906 -0.0907 -0.3273  0.3837
40806SOL    HW134143   2.400   7.322   3.001  0.3445 -1.9773  0.3613
40806SOL    HW234144   2.405   7.235   2.877  0.9551  0.0915 -1.1196
40807SOL     OW34145   4.037  13.282   8.660  0.0447  0.3657  0.2574
40807SOL    HW134146   4.023  13.257   8.751 -1.9238  1.3800  0.2872
40807SOL    HW234147   4.071  13.203   8.618 -0.3180 -0.5316  1.5818
40808SOL     OW34148  10.514   5.099   7.672 -0.6599  0.1017 -0.2824
40808SOL    HW134149  10.447   5.033   7.657  0.9273 -1.8714  0.8146
40808SOL    HW234150  10.508   5.118   7.766  0.2025 -0.0329 -0.1842
40809SOL     OW34151   2.778   6.058   4.283  0.1379 -0.0712  0.3369
40809SOL    HW134152   2.732   6.107   4.215  0.3928 -1.7346 -1.1149
40809SOL    HW234153   2.733   6.081   4.364 -0.9397  1.0700 -0.5486
40810SOL     OW34154   7.911   1.106   2.166  0.5893 -0.2426 -0.1980
40810SOL    HW134155   7.891   1.049   2.240  0.7558 -0.4619 -0.3189
40810SOL    HW234156   8.003   1.129   2.178  0.1988  1.0189  0.5317
40811SOL     OW34157  12.530   5.877   2.579  0.2650 -0.0862  0.4067
40811SOL    HW134158  12.505   5.805   2.520  0.5897 -0.0953  0.2801
40811SOL    HW234159  12.609   5.913   2.540 -0.5552  1.1197 -0.2081
40812SOL     OW34160  12.299   6.432   1.051  0.5645  0.0396 -0.3559
40812SOL    HW134161  12.251   6.461   1.128  0.4905  1.6708 -0.9738
40812SOL    HW234162  12.241   6.454   0.977  1.1356 -0.4251 -0.9573
40813SOL     OW34163  11.618   4.742  10.785 -0.3759  0.1822  0.6330
40813SOL    HW134164  11.614   4.763  10.692 -0.8295 -0.5954  0.4725
40813SOL    HW234165  11.710   4.756  10.808 -0.2799  0.4744  0.0946
40814SOL     OW34166  12.261   2.002   9.865  0.2023 -0.0652 -0.2283
40814SOL    HW134167  12.227   2.077   9.817 -0.7712 -0.5727 -0.3598
40814SOL    HW234168  12.277   1.936   9.797 -2.0462 -1.1150  0.1746
40815SOL     OW34169   5.080  13.607  10.469 -0.2351 -0.5345 -0.0917
40815SOL    HW134170   5.132  13.530  10.447 -0.6391 -0.5037 -1.2032
40815SOL    HW234171   5.145  13.671  10.500  0.0481 -1.4617  1.3369
40816SOL     OW34172   8.728  12.194   2.567 -0.2024  0.2131  0.2419
40816SOL    HW134173   8.759  12.103   2.571 -1.9162 -0.4159  0.2605
40816SOL    HW234174   8.638  12.189   2.600 -0.6418  1.7682 -0.6478
40817SOL     OW34175  10.941   4.957  10.240 -0.4796  0.1054  0.0701
40817SOL    HW134176  10.954   4.946  10.146  0.1992  1.2492  0.0144
40817SOL    HW234177  10.846   4.963  10.250 -0.5720 -0.3530 -0.5019
40818SOL     OW34178   6.187  10.095   0.168  0.1697 -0.5676 -0.3025
40818SOL    HW134179   6.135  10.017   0.147 -0.9490  0.6912 -2.5567
40818SOL    HW234180   6.274  10.077   0.132 -0.6183 -0.0825 -2.6100
40819SOL     OW34181   5.801  12.050  11.163  0.2401  0.0121 -0.3290
40819SOL    HW134182   5.812  11.991  11.238 -0.7325 -1.3074 -1.1688
40819SOL    HW234183   5.792  12.137  11.201  1.4914 -0.3851  0.9785
40820SOL     OW34184   2.117   5.001   0.428 -0.1290 -0.4285  0.8273
40820SOL    HW134185   2.136   5.054   0.506  2.9858 -0.8838  0.5146
40820SOL    HW234186   2.027   5.023   0.405  0.4616  3.5987  1.6005
40821SOL     OW34187   4.549   9.987  12.013 -0.2443  0.1698  0.1399
40821SOL    HW134188   4.505   9.931  12.078  2.0841 -1.6098  0.3579
40821SOL    HW234189   4.640   9.955  12.013  0.7295  2.6880 -1.2419
40822SOL     OW34190  12.411   5.608   5.649  0.3202  0.0034 -0.0718
40822SOL    HW134191  12.506   5.605   5.661  0.3191  0.0978 -0.0408
40822SOL    HW234192  12.389   5.523   5.611  0.3847 -0.1181  0.1619
40823SOL     OW34193   4.580   7.526  10.950 -0.1542 -0.1863 -0.4389
40823SOL    HW134194   4.654   7.466  10.956 -1.3589 -1.9614 -2.1196
40823SOL    HW234195   4.613   7.599  10.897  1.3719  0.8026  1.7544
40824SOL     OW34196  12.573   3.168  10.851  0.4582  0.4554 -0.5273
40824SOL    HW134197  12.522   3.247  10.833 -0.9970 -0.7219 -1.7698
40824SOL    HW234198  12.546   3.142  10.939 -0.3255  0.4179 -0.7703
40825SOL     OW34199  13.441   5.605   0.485 -0.0659 -0.4365  0.4713
40825SOL    HW134200  13.478   5.524   0.520 -0.0311 -0.6586 -0.0686
40825SOL    HW234201  13.409   5.651   0.562  1.1376 -0.3308  0.9449
40826SOL     OW34202   7.879   7.973   5.822 -0.3882  0.1760 -0.0567
40826SOL    HW134203   7.945   8.030   5.862 -0.0818  0.3181 -0.7601
40826SOL    HW234204   7.884   7.892   5.873 -2.6103  1.5657  2.6728
40827SOL     OW34205  13.328   9.945   0.244  0.4834  0.0342  0.2140
40827SOL    HW134206  13.423   9.961   0.244  0.7398 -1.1408  2.1691
40827SOL    HW234207  13.293  10.011   0.184  2.1308  3.2681  2.4509
40828SOL     OW34208  12.400   8.808   5.523  0.7051  0.3532 -0.1527
40828SOL    HW134209  12.484   8.777   5.559  0.7528  0.7437  0.0840
40828SOL    HW234210  12.389   8.895   5.562  0.1178  0.2447 -0.0692
40829SOL     OW34211   9.360  10.720   5.144  0.4155 -0.1505  0.1588
40829SOL    HW134212   9.283  10.744   5.092  0.8331  0.0466 -0.3811
40829SOL    HW234213   9.412  10.665   5.086 -0.2790 -1.9736  1.2021
40830SOL     OW34214   9.047   9.727   8.714  0.1005  0.2336  0.1147
40830SOL    HW134215   8.970   9.707   8.767  0.8467 -1.7198  0.5420
40830SOL    HW234216   9.091   9.643   8.703  3.4380  1.5889  1.8181
40831SOL     OW34217  11.619   9.222  12.521 -0.4106  0.4357  0.2227
40831SOL    HW134218  11.701   9.246  12.478  0.9613  0.7441  2.8318
40831SOL    HW234219  11.627   9.128  12.536 -0.2423  0.5782  1.0412
40832SOL     OW34220   0.919   6.003   3.307  0.1660  0.9100  0.2258
40832SOL    HW134221   0.870   6.062   3.248  0.7992  0.9927 -0.2277
40832SOL    HW234222   0.939   5.927   3.253  1.5118  1.3577  0.0538
40833SOL     OW34223  12.468  11.959  11.725  0.1288  0.2076  0.2174
40833SOL    HW134224  12.377  11.945  11.755  0.5199 -0.9757  0.9351
40833SOL    HW234225  12.460  12.019  11.651 -1.1565  0.9033  0.8816
40834SOL     OW34226   8.547   2.026   7.398  0.7306 -0.6919  0.1386
40834SOL    HW134227   8.466   1.975   7.402  0.6899 -1.0001 -2.7017
40834SOL    HW234228   8.616   1.961   7.382  1.2722 -0.2529  0.6373
40835SOL     OW34229  12.086   6.582  13.575 -0.0450  0.2154 -1.0375
40835SOL    HW134230  12.097   6.658  13.632 -0.2950 -0.2857 -0.3097
40835SOL    HW234231  12.137   6.603  13.496  2.8244 -0.3103  0.5302
40836SOL     OW34232   0.095   2.078   9.137 -0.0895 -0.3219 -0.2773
40836SOL    HW134233   0.003   2.054   9.146  0.2973 -2.2959 -0.9395
40836SOL    HW234234   0.094   2.171   9.116 -1.9044 -0.2052  0.1601
40837SOL     OW34235   6.654  12.377   5.494  0.3879 -0.5507 -0.6460
40837SOL    HW134236   6.658  12.282   5.504 -2.1885 -0.8292 -1.5836
40837SOL    HW234237   6.597  12.407   5.565  1.7333  0.4209  0.0716
40838SOL     OW34238   5.783   1.508   7.016  0.1458 -0.2343  0.1260
40838SOL    HW134239   5.738   1.513   7.101  1.9392 -1.3658  1.2030
40838SOL    HW234240   5.770   1.417   6.988  1.1338 -0.3824  0.1151
40839SOL     OW34241   2.005   3.202   0.112 -0.5681  0.7306 -0.0736
40839SOL    HW134242   2.046   3.262   0.174 -0.2999 -0.2310  0.7014
40839SOL    HW234243   1.956   3.259   0.053 -1.3220  1.6513  1.3738
40840SOL     OW34244  10.876   0.895  12.389  0.1168  0.1431 -0.2450
40840SOL    HW134245  10.894   0.896  12.483 -1.5705 -0.5810  0.1104
40840SOL    HW234246  10.910   0.979  12.358  2.7801 -0.5505  0.5624
40841SOL     OW34247  12.076  11.047   9.698  0.5767 -0.4325 -0.1129
40841SOL    HW134248  12.131  11.104   9.751  1.8537 -0.0410 -1.7521
40841SOL    HW234249  12.103  10.958   9.722  2.3131 -0.2478 -1.1890
40842SOL     OW34250   3.809   2.885   3.846 -0.2438  0.2093  0.6050
40842SOL    HW134251   3.868   2.958   3.862 -1.2452  0.7738  1.8642
40842SOL    HW234252   3.785   2.854   3.933 -2.0155  0.1792  0.1415
40843SOL     OW34253   8.139   1.811   3.578  0.3392  0.0459  0.3444
40843SOL    HW134254   8.060   1.843   3.535  0.0577 -0.7609  0.2529
40843SOL    HW234255   8.128   1.838   3.670 -0.2878 -0.4935  0.4391
40844SOL     OW34256   9.544  13.511  13.265  0.4233 -0.1225 -0.2517
40844SOL    HW134257   9.490  13.578  13.223  1.8327  0.8045 -0.6381
40844SOL    HW234258   9.564  13.547  13.351 -1.0266 -1.2652  0.6134
40845SOL     OW34259   7.968   7.296  10.145 -0.0591 -0.0513 -0.2521
40845SOL    HW134260   7.986   7.207  10.114  0.0891  0.1639 -0.7953
40845SOL    HW234261   7.875   7.293  10.172 -0.2081 -0.2243 -0.7772
40846SOL     OW34262   2.604   1.040   0.282 -0.0410 -0.2788 -0.3562
40846SOL    HW134263   2.657   1.120   0.281  0.9648 -0.8430  2.0112
40846SOL    HW234264   2.590   1.020   0.189 -1.1844  3.1375 -1.0732
40847SOL     OW34265   8.908  12.568   5.532 -0.0639 -0.0638 -0.1751
40847SOL    HW134266   8.817  12.560   5.558  0.0556 -0.2903  0.1841
40847SOL    HW234267   8.909  12.543   5.439 -0.3581 -0.0997 -0.1692
40848SOL     OW34268  12.483  11.592  11.387 -0.4504 -0.5093  0.2814
40848SOL    HW134269  12.419  11.554  11.447  0.9048 -0.3871  1.8792
40848SOL    HW234270  12.493  11.526  11.318 -0.1686 -1.8386  1.5432
40849SOL     OW34271   1.497   2.481   7.516  0.2181  0.8084 -0.0794
40849SOL    HW134272   1.420   2.428   7.536  1.5870 -1.0721  0.4757
40849SOL    HW234273   1.545   2.486   7.599  1.0108  1.4387 -0.5590
40850SOL     OW34274   7.527   2.027   0.518  0.3282  0.2036 -0.2931
40850SOL    HW134275   7.506   2.035   0.425 -0.2647  1.2543 -0.0799
40850SOL    HW234276   7.495   1.940   0.542 -2.0350  0.9799 -0.4483
40851SOL     OW34277   2.706   1.154   2.838 -0.3058 -0.4820 -0.2801
40851SOL    HW134278   2.695   1.193   2.924  1.8302 -0.1695 -0.0767
40851SOL    HW234279   2.703   1.060   2.853 -2.4137 -0.4539 -0.2911
40852SOL     OW34280   8.923   6.975   8.667 -0.1829 -0.1241  0.1652
40852SOL    HW134281   8.869   6.944   8.740 -1.5810  0.3624 -0.6302
40852SOL    HW234282   8.945   7.065   8.690 -2.6459  0.8679 -1.0514
40853SOL     OW34283   4.952   0.296  10.374 -0.1490  0.6563 -0.4118
40853SOL    HW134284   4.956   0.329  10.464 -0.0651 -0.6175  0.0793
40853SOL    HW234285   5.012   0.352  10.325 -0.1955  1.3715  0.3234
40854SOL     OW34286   0.730   3.534   4.022  0.3059 -0.4877  0.6405
40854SOL    HW134287   0.691   3.618   3.999  1.4859 -0.4831 -1.5460
40854SOL    HW234288   0.665   3.469   3.996  0.4280 -0.3460 -0.0348
40855SOL     OW34289   0.306   9.327   3.245 -0.0674  0.0597 -0.8659
40855SOL    HW134290   0.382   9.386   3.251 -0.5056  0.6039 -0.4719
40855SOL    HW234291   0.333   9.259   3.184  0.7614  0.2120 -0.6873
40856SOL     OW34292  12.942   1.245   2.432 -1.6593 -0.6033  0.1484
40856SOL    HW134293  12.877   1.277   2.369 -1.9499 -1.4420  0.0060
40856SOL    HW234294  12.936   1.307   2.505  0.5847  2.0318 -1.6841
40857SOL     OW34295   8.858   9.004   1.402 -0.0808  0.4477 -0.3025
40857SOL    HW134296   8.874   9.097   1.418  0.3944  0.7330 -2.1915
40857SOL    HW234297   8.823   8.971   1.485  0.8333  2.0391  0.7596
40858SOL     OW34298   9.493  11.435   5.818 -0.2258  0.8720 -0.7555
40858SOL    HW134299   9.401  11.462   5.811 -1.8937 -3.9126 -1.4248
40858SOL    HW234300   9.508  11.423   5.912  0.1852  2.7164 -0.5488
40859SOL     OW34301  11.587   4.831   1.001  0.2456  0.2945  0.2947
40859SOL    HW134302  11.592   4.735   1.004 -0.0226  0.2398 -0.5255
40859SOL    HW234303  11.493   4.849   1.004  0.3450  0.6365  2.3700
40860SOL     OW34304  12.220  11.904  11.838 -0.1949 -0.4650  0.0211
40860SOL    HW134305  12.143  11.952  11.868  0.8431  1.0719  0.3062
40860SOL    HW234306  12.185  11.836  11.780 -1.8869 -0.8565  1.4392
40861SOL     OW34307   2.580   3.373   4.467  0.3731 -0.0980 -0.0288
40861SOL    HW134308   2.666   3.402   4.498  0.1183  1.2752 -0.5592
40861SOL    HW234309   2.597   3.337   4.380  0.3744  0.4725 -0.2688
40862SOL     OW34310   7.496   3.990   9.683  0.3418 -0.5584  0.0917
40862SOL    HW134311   7.450   4.005   9.766  2.1086  2.3414  0.6618
40862SOL    HW234312   7.456   4.051   9.621  1.9477  0.4701  0.0269
40863SOL     OW34313   4.487   2.843  10.676  0.5878 -0.0323 -0.1303
40863SOL    HW134314   4.418   2.809  10.732  0.5852 -0.0659 -0.1541
40863SOL    HW234315   4.565   2.791  10.700  1.0219  1.1128  1.0867
40864SOL     OW34316   6.014   7.514   8.091 -0.1718  0.2115 -0.0961
40864SOL    HW134317   6.052   7.442   8.041 -0.6600 -1.1276  1.3913
40864SOL    HW234318   6.023   7.590   8.033 -0.9366 -1.2814 -2.3179
40865SOL     OW34319   8.089   2.445   7.743 -0.1330 -0.1969  0.0413
40865SOL    HW134320   8.062   2.365   7.698 -0.1402 -0.2431  0.1276
40865SOL    HW234321   8.049   2.439   7.830  1.1745 -0.8516  0.6188
40866SOL     OW34322  11.174   5.311   9.165  0.5540  0.4161  0.3839
40866SOL    HW134323  11.255   5.326   9.115 -0.6305  2.6671 -0.9860
40866SOL    HW234324  11.182   5.368   9.241  0.2976  0.6047  0.2711
40867SOL     OW34325   5.490   1.932   3.419  0.4443 -0.5589 -0.7440
40867SOL    HW134326   5.564   1.893   3.372  0.8795 -1.4262  0.6292
40867SOL    HW234327   5.518   2.022   3.436  1.2181 -0.9017 -0.1685
40868SOL     OW34328   8.301  10.864   5.132 -0.2640 -0.7923 -0.1018
40868SOL    HW134329   8.225  10.812   5.159  0.5528 -2.0443 -0.1422
40868SOL    HW234330   8.371  10.837   5.191  0.2822 -0.0066 -0.3747
40869SOL     OW34331  10.331   8.521   6.551 -0.2711  0.4444  0.7704
40869SOL    HW134332  10.422   8.545   6.532 -0.0841 -0.4660  0.4433
40869SOL    HW234333  10.280   8.566   6.484  0.0971 -0.2821 -0.0250
40870SOL     OW34334   5.953  13.714   2.795  0.0094 -0.5294 -0.0729
40870SOL    HW134335   5.909  13.796   2.820  0.3940 -0.6357  1.0200
40870SOL    HW234336   5.899  13.645   2.833  1.8702 -0.6269  2.7750
40871SOL     OW34337   8.843   2.333   9.288 -0.2426  0.3230 -0.4101
40871SOL    HW134338   8.793   2.264   9.245  1.2489 -0.4023 -1.0247
40871SOL    HW234339   8.776   2.396   9.317 -2.0557 -2.6568  2.7532
40872SOL     OW34340  11.889   0.153   3.169  0.1558  0.4640 -0.4360
40872SOL    HW134341  11.900   0.184   3.259 -1.0160  1.7890 -0.7063
40872SOL    HW234342  11.974   0.118   3.145  0.0800 -1.3483  1.6950
40873SOL     OW34343   3.224  13.423   3.041 -0.6565  0.9085 -0.5015
40873SOL    HW134344   3.291  13.378   3.091 -1.3461  1.2552  0.7635
40873SOL    HW234345   3.185  13.354   2.986  0.4751  0.6416 -0.9920
40874SOL     OW34346   7.175   3.986  13.715  0.2891 -0.4772 -0.2630
40874SOL    HW134347   7.147   4.072  13.682 -0.9939 -0.6942  0.1759
40874SOL    HW234348   7.093   3.937  13.724  0.9978 -1.7128 -0.3935
40875SOL     OW34349  13.129   2.293   2.254 -0.0428  0.0879  0.4862
40875SOL    HW134350  13.075   2.248   2.189 -0.0841  0.6533  0.1239
40875SOL    HW234351  13.169   2.366   2.206 -2.2722  2.2421  1.6888
40876SOL     OW34352  11.759  11.128   5.540  0.4764  0.4209 -0.3032
40876SOL    HW134353  11.759  11.146   5.634 -1.4497  1.4586 -0.4405
40876SOL    HW234354  11.716  11.204   5.501  0.0028 -0.5957 -1.8689
40877SOL     OW34355   9.586   9.006   7.571 -0.2320  0.2340 -0.2804
40877SOL    HW134356   9.512   9.032   7.626 -0.8150 -0.3110 -0.7884
40877SOL    HW234357   9.551   8.937   7.515  1.0329 -1.0563  0.4470
40878SOL     OW34358   0.843  10.925   9.785  0.2867  0.1067 -0.3998
40878SOL    HW134359   0.850  11.010   9.829  3.2410 -0.6269  0.8038
40878SOL    HW234360   0.763  10.886   9.821 -0.1498  1.6480  0.3867
40879SOL     OW34361   4.557   5.471  11.046 -0.2722  0.0067 -0.1294
40879SOL    HW134362   4.527   5.408  10.981 -0.9267 -0.2341  0.3868
40879SOL    HW234363   4.552   5.556  11.002 -1.8594 -0.0082 -0.0376
40880SOL     OW34364  12.994   2.275  13.384  0.0808  0.0084  0.7827
40880SOL    HW134365  12.972   2.186  13.359  0.0763  0.0575  0.6070
40880SOL    HW234366  12.917   2.327  13.359  1.3839  0.6445 -2.4341
40881SOL     OW34367   2.306  13.279   8.996  0.0222 -0.5667 -0.2514
40881SOL    HW134368   2.223  13.312   9.031  0.5121  0.0201  0.3868
40881SOL    HW234369   2.301  13.298   8.902 -0.2406  0.1923 -0.0918
40882SOL     OW34370  10.124   0.922   8.152 -0.4023  0.2583  0.3513
40882SOL    HW134371  10.157   1.010   8.133 -0.2403 -0.1271 -1.2385
40882SOL    HW234372  10.031   0.926   8.130 -0.8141  0.4899  1.9597
40883SOL     OW34373  12.667   1.570   4.333 -0.2762  0.5289 -0.2210
40883SOL    HW134374  12.692   1.662   4.343  0.0774  0.3532  0.5412
40883SOL    HW234375  12.701   1.546   4.246  1.9709  0.3946  0.6145
40884SOL     OW34376   6.911   8.860  11.050  0.2804  0.1254  0.5845
40884SOL    HW134377   6.993   8.862  11.000 -1.0105 -0.4891 -1.6875
40884SOL    HW234378   6.886   8.952  11.058  0.2574  0.2162 -0.3781
40885SOL     OW34379  12.430   0.232   9.348  0.1215  0.8573 -0.1937
40885SOL    HW134380  12.523   0.253   9.352  0.5044 -0.7912  0.2085
40885SOL    HW234381  12.406   0.212   9.439 -0.4624  0.6341 -0.3904
40886SOL     OW34382  11.696   1.797   6.371 -0.1406 -0.2182  0.1166
40886SOL    HW134383  11.759   1.787   6.443 -1.1797  1.5932  1.3635
40886SOL    HW234384  11.708   1.887   6.342  0.4736 -1.0018 -2.2809
40887SOL     OW34385  11.271   5.618   7.055  0.0843  0.7303 -0.4149
40887SOL    HW134386  11.204   5.678   7.024 -0.6665  0.3239  0.3692
40887SOL    HW234387  11.231   5.531   7.045 -0.2590  0.5838  1.7488
40888SOL     OW34388   5.722  12.299   3.344 -0.3383  0.1636  0.2077
40888SOL    HW134389   5.650  12.238   3.357 -0.4592  0.3160  0.2501
40888SOL    HW234390   5.695  12.353   3.270  0.2833 -0.6018 -0.5965
40889SOL     OW34391   3.453   8.531   2.433 -0.4198 -0.0111 -0.3588
40889SOL    HW134392   3.482   8.611   2.478  0.8779 -1.0724  0.7755
40889SOL    HW234393   3.510   8.525   2.356 -1.8538  1.1769 -1.5681
40890SOL     OW34394   8.477  10.268  13.520  0.7007  0.2109  0.0676
40890SOL    HW134395   8.476  10.363  13.528  1.2385  0.1091  1.6446
40890SOL    HW234396   8.411  10.237  13.582  0.7125 -0.4557 -0.2377
40891SOL     OW34397   4.549   2.546   1.746  0.3109 -0.5664 -0.5832
40891SOL    HW134398   4.586   2.460   1.764  0.8591 -0.3502 -0.6535
40891SOL    HW234399   4.529   2.545   1.652  3.5718  0.5460 -1.4522
40892SOL     OW34400   2.743   6.499  13.257  0.5353 -0.0359  0.1160
40892SOL    HW134401   2.737   6.543  13.341  3.0419 -0.3713  0.5708
40892SOL    HW234402   2.832   6.463  13.256 -0.3756 -2.4839 -1.4867
40893SOL     OW34403   0.618   5.328   4.371  0.4132 -0.0749  0.4356
40893SOL    HW134404   0.533   5.289   4.393 -0.1162  1.6247  1.6455
40893SOL    HW234405   0.596   5.409   4.324  1.2692  1.0628  1.9000
40894SOL     OW34406   1.721   1.998   3.857 -0.2369 -0.0607  0.5513
40894SOL    HW134407   1.666   1.941   3.804 -0.5031 -0.0581  0.8192
40894SOL    HW234408   1.809   1.987   3.821 -0.4478  0.1035 -0.0238
40895SOL     OW34409   4.899   3.575   7.841  0.2624  0.0576 -0.0004
40895SOL    HW134410   4.848   3.537   7.769 -1.4218 -0.3531  1.3478
40895SOL    HW234411   4.960   3.505   7.866 -2.3595 -1.7215  2.0127
40896SOL     OW34412   9.128   3.426  12.305  0.5099  0.0452 -0.3789
40896SOL    HW134413   9.092   3.455  12.389  2.2683 -0.9943  0.7955
40896SOL    HW234414   9.061   3.368  12.269 -0.6588  1.1966 -0.1630
40897SOL     OW34415   3.476  13.712   0.024 -0.6523 -0.1968 -0.3591
40897SOL    HW134416   3.421  13.777  -0.021 -1.7807 -1.6643 -1.2106
40897SOL    HW234417   3.535  13.680  -0.044  1.2233  1.2422  0.5107
40898SOL     OW34418  13.328   8.366   2.245  0.1464  0.2424  0.6899
40898SOL    HW134419  13.289   8.446   2.209  0.3694 -0.1182 -0.3628
40898SOL    HW234420  13.260   8.331   2.303 -1.6079 -0.9301 -1.9031
40899SOL     OW34421  11.644   9.113   3.666 -0.0691 -0.1993 -0.2587
40899SOL    HW134422  11.600   9.198   3.666  0.7286  0.3930  3.7552
40899SOL    HW234423  11.578   9.052   3.698 -0.0091 -0.7118 -1.0879
40900SOL     OW34424   9.589  12.437   9.497  0.6378  0.4703 -0.1376
40900SOL    HW134425   9.517  12.497   9.516 -0.8543 -1.3203  0.1450
40900SOL    HW234426   9.593  12.380   9.573  1.3396 -0.4255 -0.8247
40901SOL     OW34427   5.918  13.393   2.732  0.1378  0.8454  0.0381
40901SOL    HW134428   6.004  13.354   2.744  0.3427  1.9493  2.6783
40901SOL    HW234429   5.935  13.471   2.679  0.7011  0.8428  0.2043
40902SOL     OW34430   0.349   4.299   9.737  0.4366  0.4978  0.0063
40902SOL    HW134431   0.421   4.363   9.735  0.7864  0.0954 -1.2096
40902SOL    HW234432   0.393   4.214   9.742  0.0299  0.2646 -0.3625
40903SOL     OW34433   4.745   2.308  12.970 -0.1935  0.3866 -0.7395
40903SOL    HW134434   4.824   2.361  12.964 -0.5012  1.1045  0.9810
40903SOL    HW234435   4.777   2.220  12.987  0.2878  1.0801  2.5959
40904SOL     OW34436   3.543  11.132   9.033  0.5592  0.4540 -0.5927
40904SOL    HW134437   3.632  11.159   9.056  0.6284 -1.1788  1.2692
40904SOL    HW234438   3.554  11.050   8.985  0.0326 -0.3782  0.6741
40905SOL     OW34439   7.727  11.254   2.650 -0.0687 -0.0672  1.0378
40905SOL    HW134440   7.738  11.332   2.596 -0.2754 -0.8893 -0.2306
40905SOL    HW234441   7.798  11.196   2.624 -1.3424 -1.2982  0.1234
40906SOL     OW34442   3.738  13.719   9.071  0.0129  0.0380  0.5308
40906SOL    HW134443   3.803  13.691   9.006 -0.2494 -0.8956  0.6487
40906SOL    HW234444   3.654  13.713   9.025  0.0859  2.7106 -0.1074
40907SOL     OW34445   3.061   0.192   6.330  0.2759 -0.2787  0.3466
40907SOL    HW134446   3.062   0.129   6.402 -0.9658 -0.4297  0.2542
40907SOL    HW234447   3.113   0.266   6.362 -0.8249 -0.0431  1.7018
40908SOL     OW34448   8.426   1.254   8.903  0.2079 -0.3271 -0.0200
40908SOL    HW134449   8.397   1.214   8.985  0.0178 -0.0038  0.0716
40908SOL    HW234450   8.522   1.248   8.907  0.3674  1.8874  1.3891
40909SOL     OW34451   9.845   8.678  12.886 -0.2269 -0.7132  0.6850
40909SOL    HW134452   9.935   8.647  12.890 -0.1508 -0.4011  1.8762
40909SOL    HW234453   9.846   8.760  12.935 -1.3446 -1.2118  1.6022
40910SOL     OW34454   6.213   9.885   1.926 -0.5494 -0.5241 -0.3186
40910SOL    HW134455   6.192   9.965   1.973 -0.5285 -0.3695 -0.5658
40910SOL    HW234456   6.197   9.906   1.834 -1.2891 -1.0446 -0.3180
40911SOL     OW34457   7.564  12.433  13.153 -0.1996  0.4485 -0.2596
40911SOL    HW134458   7.561  12.423  13.248 -2.5712  0.6320 -0.2520
40911SOL    HW234459   7.646  12.480  13.136  1.0528 -0.9695  1.5101
40912SOL     OW34460   1.765  10.728   9.912  0.0756 -0.1287  0.1795
40912SOL    HW134461   1.822  10.673   9.966  1.3667  1.9901  1.1130
40912SOL    HW234462   1.814  10.741   9.831  0.5966  1.0370  0.6626
40913SOL     OW34463   7.832   2.186   4.183 -0.2206 -0.0534  0.4090
40913SOL    HW134464   7.897   2.223   4.242  3.2241 -2.5620 -1.4508
40913SOL    HW234465   7.763   2.252   4.179  2.0132  2.6950  2.7814
40914SOL     OW34466   4.491  10.793   5.913  0.1236  0.6132  0.2113
40914SOL    HW134467   4.542  10.718   5.942  0.9496  1.3031  0.6016
40914SOL    HW234468   4.427  10.808   5.983  0.0243  0.3409  0.1795
40915SOL     OW34469   9.209   0.195   9.755 -0.4799 -0.0599 -0.1434
40915SOL    HW134470   9.285   0.242   9.722 -0.3210  0.0041  0.3069
40915SOL    HW234471   9.168   0.158   9.676 -1.1673  1.6176 -0.6248
40916SOL     OW34472   5.119   8.859   8.658  0.3691 -0.3485 -0.5963
40916SOL    HW134473   5.213   8.862   8.644 -0.0301 -1.3988 -5.1876
40916SOL    HW234474   5.095   8.948   8.684  2.4152  0.5735 -1.6398
40917SOL     OW34475   9.659   8.976   9.786  1.0776  0.0125 -0.0980
40917SOL    HW134476   9.663   8.954   9.879  2.4504  0.8576  0.0828
40917SOL    HW234477   9.750   8.969   9.757  1.4280  3.7559 -0.3577
40918SOL     OW34478   0.891   2.521  11.610 -0.2582  0.1902  0.3470
40918SOL    HW134479   0.948   2.597  11.619  1.6446 -1.2814  1.4901
40918SOL    HW234480   0.938   2.463  11.550 -0.5182 -1.0658  1.3220
40919SOL     OW34481   6.437   2.841   7.279  0.3755  0.0302 -0.0135
40919SOL    HW134482   6.452   2.912   7.218  1.5110 -0.9127 -0.8641
40919SOL    HW234483   6.470   2.763   7.235  0.3531 -0.8317  1.4105
40920SOL     OW34484   6.577   4.785   7.213 -0.0596  0.1496  0.4785
40920SOL    HW134485   6.583   4.711   7.274 -0.8257 -0.0047  0.3761
40920SOL    HW234486   6.667   4.816   7.204  0.2384 -0.6208  0.7144
40921SOL     OW34487   3.712   4.235  12.445 -0.3244 -0.2035  0.0491
40921SOL    HW134488   3.709   4.297  12.517 -0.0417 -0.0179 -0.0994
40921SOL    HW234489   3.622   4.229  12.414 -1.0843 -2.5661  2.3596
40922SOL     OW34490   7.704   9.709  12.911  0.5304  0.2884 -0.1336
40922SOL    HW134491   7.767   9.649  12.952 -0.7250  0.3749  2.0736
40922SOL    HW234492   7.754   9.790  12.898  1.2008  0.0029  0.5469
40923SOL     OW34493   9.513  13.279   8.137  0.6559  0.7235 -0.3294
40923SOL    HW134494   9.540  13.195   8.099  0.6531  0.2699  0.6429
40923SOL    HW234495   9.438  13.306   8.083  0.4821 -0.0376 -0.4852
40924SOL     OW34496  12.929  12.362   7.394  0.1341 -0.2683  0.6506
40924SOL    HW134497  12.953  12.272   7.419  2.7694  0.3499  0.6559
40924SOL    HW234498  12.914  12.407   7.477 -3.3506 -1.1305  0.6156
40925SOL     OW34499   7.912   7.507  13.405  0.0052  0.9689 -0.1993
40925SOL    HW134500   7.951   7.456  13.476 -0.9213 -1.0300 -1.0319
40925SOL    HW234501   7.983   7.518  13.342  0.6053  2.0200  0.6342
40926SOL     OW34502   2.109   4.434  10.534 -0.4422 -0.2026  0.3699
40926SOL    HW134503   2.053   4.503  10.570  0.3325  0.3640  0.5143
40926SOL    HW234504   2.049   4.378  10.485 -1.0152  0.8730 -0.1887
40927SOL     OW34505   9.509  11.895   3.164 -0.1660 -0.0946  0.2986
40927SOL    HW134506   9.542  11.969   3.113  1.3247  0.7316  2.2744
40927SOL    HW234507   9.572  11.887   3.237 -1.3712 -2.0812  1.2156
40928SOL     OW34508  11.283   4.126   4.058 -0.2301  0.0348  0.1351
40928SOL    HW134509  11.286   4.220   4.074 -3.0704 -0.1305  2.3416
40928SOL    HW234510  11.281   4.118   3.962 -0.5572  2.2383 -0.0966
40929SOL     OW34511   1.405  11.456   8.458  0.2453  0.1624 -0.6752
40929SOL    HW134512   1.361  11.462   8.543 -1.4780 -2.4076 -1.2524
40929SOL    HW234513   1.355  11.514   8.401  0.5910  0.8857 -0.2498
40930SOL     OW34514   7.005   9.838  12.948 -0.0078 -0.4077  0.1204
40930SOL    HW134515   6.910   9.831  12.952 -0.0973 -0.2951 -1.2328
40930SOL    HW234516   7.037   9.748  12.952 -0.0308 -0.3680  2.5188
40931SOL     OW34517   1.378  10.396  10.430 -0.1663 -0.3098 -0.1696
40931SOL    HW134518   1.346  10.428  10.345 -0.3037 -0.8843 -0.3379
40931SOL    HW234519   1.453  10.453  10.450 -1.2414  1.0214  0.2109
40932SOL     OW34520   7.042   4.194   1.690 -0.4070 -0.2940  0.2200
40932SOL    HW134521   7.110   4.261   1.691 -2.2865  1.7242  1.5688
40932SOL    HW234522   7.060   4.139   1.766 -0.6719  0.6792  0.9960
40933SOL     OW34523   7.028   6.521  10.044 -0.1942  0.5279 -0.0840
40933SOL    HW134524   7.099   6.566  10.090  0.0735  2.3090 -2.0812
40933SOL    HW234525   6.953   6.529  10.102  0.7063  0.4306  1.1534
40934SOL     OW34526   9.681  13.071   8.162 -0.7490 -0.2023 -0.2347
40934SOL    HW134527   9.742  13.058   8.089 -1.4661  0.7796 -1.0437
40934SOL    HW234528   9.737  13.086   8.238  0.0494  0.7511 -0.9752
40935SOL     OW34529   9.718   0.269   1.753  0.2729 -0.0560 -0.2249
40935SOL    HW134530   9.647   0.328   1.730  0.1444  1.1624  2.8233
40935SOL    HW234531   9.797   0.312   1.722  0.0688  1.1813  0.9001
40936SOL     OW34532   0.144   5.263   7.608 -0.0897 -0.7059 -0.1778
40936SOL    HW134533   0.152   5.175   7.644  1.6316 -0.9558 -1.0741
40936SOL    HW234534   0.091   5.252   7.529  1.4488 -1.2487 -1.1750
40937SOL     OW34535   7.755   2.898   6.426 -0.2774  0.2331 -0.1272
40937SOL    HW134536   7.807   2.881   6.347 -0.0729  0.4256 -0.0337
40937SOL    HW234537   7.752   2.814   6.471  1.4396  0.6135  0.7581
40938SOL     OW34538  11.377   8.661   0.845 -0.2148  0.0272 -0.0202
40938SOL    HW134539  11.437   8.689   0.914 -0.7711  0.0744  0.4537
40938SOL    HW234540  11.295   8.705   0.866 -0.0957  0.9174 -1.3437
40939SOL     OW34541  12.756   1.483  13.036 -0.1802 -0.0854 -0.3082
40939SOL    HW134542  12.671   1.481  13.078 -0.1178  0.1778 -0.1695
40939SOL    HW234543  12.737   1.483  12.942 -0.3173 -0.7245 -0.2823
40940SOL     OW34544   1.295  11.526   2.021 -0.1987 -0.1608 -0.6138
40940SOL    HW134545   1.238  11.505   2.094 -0.5219  2.0788 -0.1250
40940SOL    HW234546   1.235  11.551   1.950  0.1382 -1.2280 -1.3015
40941SOL     OW34547  11.761   9.076   2.734 -0.1515 -0.1670 -0.1363
40941SOL    HW134548  11.741   9.041   2.821  0.1227  0.2403  0.0953
40941SOL    HW234549  11.689   9.135   2.715  0.5370  0.9074  0.4770
40942SOL     OW34550   8.836   5.638  11.366 -0.2627 -0.3379  0.7581
40942SOL    HW134551   8.767   5.619  11.302  0.7142 -1.2250 -0.0588
40942SOL    HW234552   8.792   5.631  11.451 -1.2924 -0.3791  0.2383
40943SOL     OW34553   3.383  11.117  11.433  0.3467 -0.3045 -0.3061
40943SOL    HW134554   3.354  11.043  11.486 -0.0427 -0.1404 -0.2833
40943SOL    HW234555   3.303  11.166  11.415  0.4559 -0.3990 -1.1047
40944SOL     OW34556   7.812   1.665   0.381 -0.1269 -0.1799  0.1157
40944SOL    HW134557   7.716   1.668   0.377 -0.1060  1.5941  0.2629
40944SOL    HW234558   7.836   1.731   0.445  1.1605 -2.0199  1.6683
40945SOL     OW34559   6.826  10.707   1.836 -0.3191 -0.3348  0.0484
40945SOL    HW134560   6.915  10.674   1.831 -0.0581 -0.3680  3.0442
40945SOL    HW234561   6.772  10.631   1.857 -1.0128 -0.2121 -1.1622
40946SOL     OW34562   4.499   8.257   1.155  0.4732  0.7877  0.3162
40946SOL    HW134563   4.569   8.259   1.220  1.0897  0.8625 -0.3403
40946SOL    HW234564   4.437   8.324   1.185  1.3513  1.6853  0.1795
40947SOL     OW34565   0.513   4.881   9.806 -0.3320 -0.0824  0.1492
40947SOL    HW134566   0.587   4.865   9.747  1.8876  1.1682  2.4099
40947SOL    HW234567   0.488   4.793   9.836  1.0837 -0.4640  0.2906
40948SOL     OW34568   7.004   7.190  10.566  0.3804 -0.3546 -0.6675
40948SOL    HW134569   6.971   7.140  10.491 -0.5832  0.3199 -0.7169
40948SOL    HW234570   6.925   7.214  10.615  0.9323 -0.0490  0.0948
40949SOL     OW34571   8.471   3.766   5.214 -0.1304  0.0744  0.0695
40949SOL    HW134572   8.541   3.729   5.160 -0.8532 -4.6047  1.8353
40949SOL    HW234573   8.514   3.788   5.297 -0.0427  1.5793 -0.3530
40950SOL     OW34574   0.660   0.776   5.500  0.7115 -0.5960 -0.1399
40950SOL    HW134575   0.646   0.703   5.439  3.0153  0.6550 -2.3668
40950SOL    HW234576   0.752   0.769   5.525 -0.1943 -1.2264  3.6335
40951SOL     OW34577   6.217   8.307  11.043  0.5111 -0.0030  0.1268
40951SOL    HW134578   6.274   8.284  10.970 -0.3365 -0.6986 -0.3394
40951SOL    HW234579   6.176   8.389  11.017 -0.1257 -0.4740 -0.4013
40952SOL     OW34580   2.275   9.459   7.185 -0.9250  0.9145 -0.3793
40952SOL    HW134581   2.193   9.421   7.217 -1.0581  1.2865 -0.2639
40952SOL    HW234582   2.303   9.400   7.115 -0.3215 -0.2411  0.8021
40953SOL     OW34583  12.977   2.465   1.598 -0.2326  0.6263  0.0336
40953SOL    HW134584  12.958   2.518   1.675  3.4734  2.7392 -0.2456
40953SOL    HW234585  12.953   2.522   1.524 -0.6760 -0.0433 -0.3430
40954SOL     OW34586   4.621   8.634   5.983  0.0210 -0.1025  0.8879
40954SOL    HW134587   4.678   8.558   5.991  2.7820  1.6663 -0.3988
40954SOL    HW234588   4.567   8.633   6.062  1.2750 -2.3337  1.7975
40955SOL     OW34589  11.140  11.628   8.586 -0.0310  0.1093  0.1340
40955SOL    HW134590  11.189  11.600   8.508 -1.3235  2.1181 -1.4969
40955SOL    HW234591  11.066  11.678   8.551 -1.0410  0.5178  2.6588
40956SOL     OW34592   3.785   3.566  13.189 -0.5619 -0.2212 -0.7654
40956SOL    HW134593   3.703   3.518  13.202 -1.9957  2.1678 -0.2425
40956SOL    HW234594   3.765   3.627  13.117  0.6080  0.7152 -0.3313
40957SOL     OW34595   5.114  13.238  10.669  0.6519  0.6360  0.2195
40957SOL    HW134596   5.158  13.265  10.588  1.4725 -1.2684 -0.0135
40957SOL    HW234597   5.182  13.243  10.735  0.2443  1.1800  0.6082
40958SOL     OW34598   8.388   0.429  10.541  0.3805 -0.8152 -0.2048
40958SOL    HW134599   8.449   0.360  10.566  1.0077 -0.8486 -1.7096
40958SOL    HW234600   8.302   0.398  10.571  0.9050 -1.3881  0.7389
40959SOL     OW34601   0.807   6.746   2.644  0.2431 -0.5215  0.6392
40959SOL    HW134602   0.821   6.695   2.723 -0.6726  0.3242  1.3696
40959SOL    HW234603   0.801   6.680   2.574 -1.6967 -1.5243  1.6575
40960SOL     OW34604  12.011  11.447   9.745 -0.0397 -0.5190 -0.0575
40960SOL    HW134605  11.989  11.372   9.801  0.7490 -1.7778 -1.3480
40960SOL    HW234606  12.042  11.407   9.664  2.4630  1.1726 -0.0361
40961SOL     OW34607   5.015   0.257   0.990 -0.5337  0.8108 -0.2046
40961SOL    HW134608   4.973   0.223   1.069  0.3575  0.7833  0.2724
40961SOL    HW234609   5.053   0.180   0.947  0.4464  1.0197  0.2482
40962SOL     OW34610  12.214   3.811   8.955  0.1452 -0.4052 -0.0604
40962SOL    HW134611  12.185   3.727   8.920  0.1063 -1.0389  1.4274
40962SOL    HW234612  12.144   3.872   8.931 -0.0953 -0.9022 -0.6613
40963SOL     OW34613   3.136   8.629   1.146 -0.1186 -0.3384  0.1147
40963SOL    HW134614   3.131   8.647   1.240 -1.2093 -0.9681  0.1979
40963SOL    HW234615   3.075   8.555   1.132 -1.7156  1.1594 -1.4166
40964SOL     OW34616  10.525   5.251  11.477 -0.2024 -0.0121  0.1414
40964SOL    HW134617  10.519   5.156  11.488  0.7826 -0.0972 -0.0014
40964SOL    HW234618  10.554   5.284  11.561  0.3610  0.0649 -0.0801
40965SOL     OW34619  11.160   3.223  11.470  0.4090  0.4281 -0.9297
40965SOL    HW134620  11.208   3.306  11.467 -0.6655  1.0730 -0.6259
40965SOL    HW234621  11.102   3.232  11.546  0.8288 -0.9112 -0.4323
40966SOL     OW34622   3.087   3.153   8.576  0.4791 -0.2701 -0.7150
40966SOL    HW134623   3.016   3.095   8.549  0.7710 -1.2056  0.4622
40966SOL    HW234624   3.160   3.130   8.518  1.2493 -2.5962  0.9949
40967SOL     OW34625   2.706  12.215  12.824  0.6500 -0.5908 -0.0879
40967SOL    HW134626   2.738  12.301  12.849 -0.4586  0.0351 -0.7314
40967SOL    HW234627   2.617  12.211  12.860  1.0124 -1.8479  0.7473
40968SOL     OW34628   9.742  11.629   7.621 -0.5444 -0.7138 -0.0216
40968SOL    HW134629   9.690  11.554   7.594 -0.0707 -1.0298 -0.0555
40968SOL    HW234630   9.730  11.634   7.716 -1.9724  0.2220 -0.2065
40969SOL     OW34631   6.169  11.023   7.645  0.1073  0.8157 -0.5741
40969SOL    HW134632   6.264  11.032   7.646  0.1658  0.2252 -0.3088
40969SOL    HW234633   6.143  11.044   7.555  0.7171 -1.1732 -1.2758
40970SOL     OW34634   0.071   3.034   6.361 -0.3530 -0.5010  0.3445
40970SOL    HW134635   0.127   3.020   6.436 -0.6955 -2.3252  0.3064
40970SOL    HW234636   0.091   3.123   6.331  1.4386 -0.5962  1.1863
40971SOL     OW34637  10.129   3.491  11.761  0.3243  0.5747 -0.4050
40971SOL    HW134638  10.218   3.519  11.779 -0.3379  1.8620  1.0716
40971SOL    HW234639  10.099   3.549  11.690  1.1822 -1.0129 -2.1548
40972SOL     OW34640   4.110  11.949   2.767 -0.6404  0.3715  0.1615
40972SOL    HW134641   4.199  11.981   2.784  0.4815 -2.4421  0.2120
40972SOL    HW234642   4.062  11.965   2.848  1.0540 -1.6466  1.6935
40973SOL     OW34643   9.582   1.872   1.125  0.5118 -0.0117 -0.3876
40973SOL    HW134644   9.659   1.868   1.069  0.1588  0.2035 -0.8948
40973SOL    HW234645   9.556   1.780   1.136  1.3976 -0.1608  0.5796
40974SOL     OW34646   8.380   4.767  10.736 -0.4522 -0.0652  0.1676
40974SOL    HW134647   8.292   4.806  10.740  0.3271  1.9190 -0.6208
40974SOL    HW234648   8.382   4.704  10.808 -2.7540 -0.7067 -0.2585
40975SOL     OW34649   3.915   2.488   3.376 -0.4472  0.1829 -0.1543
40975SOL    HW134650   3.989   2.538   3.342 -0.3634  0.7028  0.7537
40975SOL    HW234651   3.955   2.416   3.424 -0.5099  0.7108  0.7061
40976SOL     OW34652   2.428   3.376  10.520  0.3510 -0.0425  0.7003
40976SOL    HW134653   2.351   3.431  10.532  0.2832 -0.4024  2.0463
40976SOL    HW234654   2.502   3.434  10.539  0.4081  0.1788 -0.1427
40977SOL     OW34655   0.929   7.675  11.284  0.4048 -0.2497 -0.1338
40977SOL    HW134656   0.885   7.760  11.279 -0.5487 -0.6299  1.2099
40977SOL    HW234657   0.935   7.657  11.378 -1.4745 -2.6710 -0.3788
40978SOL     OW34658   2.435   7.068   2.887 -0.0442 -0.0559  0.3717
40978SOL    HW134659   2.406   6.984   2.851  0.8695  0.5961 -2.0610
40978SOL    HW234660   2.530   7.059   2.892  0.1948  1.2224 -1.1451
40979SOL     OW34661   8.586   3.423   7.871 -0.1000 -0.5672 -0.1465
40979SOL    HW134662   8.662   3.481   7.882  0.0329 -0.9386  1.0329
40979SOL    HW234663   8.534   3.438   7.950 -0.2267 -1.8174  0.0250
40980SOL     OW34664   0.392   9.841   5.314 -0.0197  0.6626  0.3436
40980SOL    HW134665   0.345   9.765   5.280  0.5880  0.5516 -0.2615
40980SOL    HW234666   0.345   9.916   5.277 -0.6276  0.5920  0.9520
40981SOL     OW34667   4.787   8.886   0.256 -0.0951 -0.0088  0.0149
40981SOL    HW134668   4.864   8.835   0.230 -1.2848 -1.9243  0.0460
40981SOL    HW234669   4.716   8.853   0.201 -1.3319  0.2241  1.3993
40982SOL     OW34670  11.228  10.930   1.452 -0.2296  0.0962  0.0393
40982SOL    HW134671  11.166  10.876   1.404  0.0894 -1.0986  0.9216
40982SOL    HW234672  11.176  10.976   1.517 -0.3934  0.2475 -0.1981
40983SOL     OW34673   4.538   6.104   8.159  0.0714 -0.2198 -0.1064
40983SOL    HW134674   4.493   6.050   8.094  0.0789  0.7869 -1.0001
40983SOL    HW234675   4.582   6.042   8.217 -0.2434 -1.1603 -0.8473
40984SOL     OW34676   0.828   2.309   8.640  0.4677 -0.0049 -0.1014
40984SOL    HW134677   0.862   2.224   8.668 -0.6622 -0.0815  1.1363
40984SOL    HW234678   0.877   2.373   8.691  0.1195 -0.0149  0.2515
40985SOL     OW34679   1.222   0.637   8.467  0.1705  0.0843 -0.2054
40985SOL    HW134680   1.140   0.612   8.509 -0.3972  1.5493 -0.3899
40985SOL    HW234681   1.234   0.729   8.490  1.5311  0.0314 -0.5730
40986SOL     OW34682   2.788  12.699  11.199  0.0316 -0.3045 -0.2225
40986SOL    HW134683   2.816  12.684  11.290 -0.9681  0.9619  0.3182
40986SOL    HW234684   2.870  12.705  11.150  0.5978 -0.4872  0.6727
40987SOL     OW34685   0.267   3.437   0.650  0.4621  0.0951 -0.2057
40987SOL    HW134686   0.173   3.426   0.665  0.3433  1.5393  0.2830
40987SOL    HW234687   0.308   3.392   0.724  0.0787  0.9695  0.5640
40988SOL     OW34688  10.120   4.547   8.957  0.0195  0.1645 -0.4729
40988SOL    HW134689  10.175   4.552   8.879  0.4562 -0.3594 -0.2131
40988SOL    HW234690  10.169   4.596   9.024  0.3511 -0.6044 -0.1435
40989SOL     OW34691  11.967   5.668  13.546 -0.1813 -0.4840  0.0267
40989SOL    HW134692  11.966   5.572  13.539 -1.2535 -0.5263  0.5558
40989SOL    HW234693  12.060   5.690  13.551  0.0571 -1.7025  2.2444
40990SOL     OW34694  12.589   2.461   7.959  0.9284 -0.2127  0.2970
40990SOL    HW134695  12.586   2.504   8.044  0.7894  1.4720 -0.5215
40990SOL    HW234696  12.497   2.441   7.939  0.9093 -0.1224  0.2967
40991SOL     OW34697   9.081   3.118  12.219  0.2146 -0.2703 -0.1605
40991SOL    HW134698   9.007   3.179  12.215  0.3035 -0.1691 -0.2684
40991SOL    HW234699   9.041   3.032  12.217  0.0940 -0.2157 -0.1372
40992SOL     OW34700   9.799   2.346   7.252  0.2220 -1.2046  0.4486
40992SOL    HW134701   9.759   2.266   7.287  0.0012 -1.0148  0.6414
40992SOL    HW234702   9.876   2.360   7.307 -0.2114 -0.8202  0.9771
40993SOL     OW34703   0.366   0.924   6.405  0.6911  0.3728  0.8396
40993SOL    HW134704   0.312   0.939   6.482  0.3281  1.5610  0.3777
40993SOL    HW234705   0.414   0.843   6.424  0.7887  0.7718  2.4092
40994SOL     OW34706  12.820   4.224   0.883  0.4704 -0.2374  0.2616
40994SOL    HW134707  12.811   4.130   0.892  2.6059 -0.6168 -1.0236
40994SOL    HW234708  12.913   4.242   0.897  0.5514  1.3455 -1.7471
40995SOL     OW34709   2.767   0.564   1.543  0.1239 -0.5710 -0.4291
40995SOL    HW134710   2.806   0.486   1.582  1.1063  0.5066  0.8465
40995SOL    HW234711   2.673   0.556   1.562  0.2505 -1.3040 -0.0669
40996SOL     OW34712  10.571   8.517   9.623 -0.2918  0.2210 -0.2769
40996SOL    HW134713  10.557   8.432   9.664 -0.7757 -0.0923 -1.0627
40996SOL    HW234714  10.663   8.537   9.639 -0.4124  0.0239  0.7730
40997SOL     OW34715   0.094   1.361   6.777  0.7578  0.3516 -0.2510
40997SOL    HW134716   0.048   1.285   6.742  1.3144 -0.3879  0.5876
40997SOL    HW234717   0.148   1.393   6.704  1.1350 -0.5503 -0.3735
40998SOL     OW34718   9.689  11.681   7.877 -0.1739 -0.4480 -0.0505
40998SOL    HW134719   9.594  11.669   7.880 -0.3829  1.1434  1.0361
40998SOL    HW234720   9.707  11.749   7.942  1.5604  0.2304 -1.1546
40999SOL     OW34721   2.747   6.607   2.397 -0.6256 -0.1419 -0.5769
40999SOL    HW134722   2.813   6.660   2.352 -0.7873  1.0581  0.5318
40999SOL    HW234723   2.669   6.615   2.342 -0.1580 -0.7076 -1.3435
41000SOL     OW34724   4.377  13.637   0.045 -0.7092  0.1039  0.9011
41000SOL    HW134725   4.447  13.701   0.059  0.3906 -1.2552  1.8720
41000SOL    HW234726   4.420  13.552   0.051 -1.7394 -0.8013 -2.3337
41001SOL     OW34727   2.719   8.715   5.277 -0.1322  0.2568  0.2636
41001SOL    HW134728   2.752   8.741   5.191  0.6454 -0.0122  0.4686
41001SOL    HW234729   2.701   8.797   5.322 -0.6391  0.3979 -0.1890
41002SOL     OW34730   0.800  12.351  12.284 -0.3309 -0.2346 -0.1498
41002SOL    HW134731   0.869  12.408  12.251 -0.5134  1.4777  2.1771
41002SOL    HW234732   0.838  12.263  12.285  1.9483  0.6970  1.3255
41003SOL     OW34733   3.990   4.837   9.071 -0.0418  0.4560  0.1036
41003SOL    HW134734   4.035   4.788   9.139 -0.2731  1.0255  0.6761
41003SOL    HW234735   4.013   4.928   9.088  1.4065  0.4697 -1.6985
41004SOL     OW34736   1.979   7.249   1.416 -0.1145 -0.1355 -0.3884
41004SOL    HW134737   2.044   7.257   1.346 -0.9196  0.3308 -1.1074
41004SOL    HW234738   1.907   7.200   1.376 -1.1883  1.3371 -0.3426
41005SOL     OW34739   5.377  13.664   7.712 -0.0392 -0.0950  0.0879
41005SOL    HW134740   5.430  13.633   7.639  0.2983 -0.7937  0.6163
41005SOL    HW234741   5.352  13.584   7.759  0.0277  0.3663  0.9238
41006SOL     OW34742   9.858   6.946   6.821  0.1335  0.1405 -0.3093
41006SOL    HW134743   9.784   6.903   6.864  0.5615 -0.0311  0.2703
41006SOL    HW234744   9.818   7.013   6.766 -0.3774  1.4033  1.5233
41007SOL     OW34745   0.111   3.389   6.985  0.4066 -0.0542 -0.1991
41007SOL    HW134746   0.142   3.373   6.896 -0.6048 -0.8975 -0.4122
41007SOL    HW234747   0.160   3.467   7.013  0.7617  0.2129 -1.4719
41008SOL     OW34748   7.522   0.573  10.974  0.1025  0.1394  0.1814
41008SOL    HW134749   7.523   0.664  11.004  1.3456 -0.2631  1.4818
41008SOL    HW234750   7.531   0.579  10.879  2.3400  1.3729  0.4084
41009SOL     OW34751   5.726   7.210   1.981 -0.6447  0.0474  0.0045
41009SOL    HW134752   5.677   7.292   1.975 -2.0356 -0.6510  1.0154
41009SOL    HW234753   5.659   7.142   1.977  0.5559 -1.1121 -1.8000
41010SOL     OW34754   5.915   2.294   6.335  0.1055  0.0124 -0.3750
41010SOL    HW134755   5.879   2.298   6.246  1.8591 -0.1519 -1.1217
41010SOL    HW234756   5.942   2.384   6.354  0.7381 -0.1557 -0.4535
41011SOL     OW34757   2.331   9.228  11.084  0.0556 -0.2354 -0.4769
41011SOL    HW134758   2.279   9.150  11.105 -0.9770  0.3411 -0.8257
41011SOL    HW234759   2.343   9.224  10.989  0.6313 -0.3448 -0.4028
41012SOL     OW34760   4.925  10.928   4.930 -0.0076 -0.2100  0.7180
41012SOL    HW134761   4.887  11.016   4.933 -1.1809 -0.6690  0.1036
41012SOL    HW234762   4.855  10.870   4.962 -0.2217 -1.1734 -1.3111
41013SOL     OW34763   9.093  12.220   4.477  0.4644  0.5867  0.2272
41013SOL    HW134764   9.105  12.129   4.504  1.0937  0.6581  0.2045
41013SOL    HW234765   9.171  12.240   4.425  0.8434  1.4613  1.1020
41014SOL     OW34766   9.440   6.882  10.106 -0.3074  0.1858  0.2821
41014SOL    HW134767   9.413   6.957  10.054  1.1443  1.0230  0.6632
41014SOL    HW234768   9.481   6.822  10.043  1.1426  1.0466  0.3519
41015SOL     OW34769  10.560   2.628   9.460 -0.7089 -0.2072  0.2026
41015SOL    HW134770  10.533   2.628   9.552 -2.5550  0.8827 -0.2693
41015SOL    HW234771  10.488   2.583   9.415 -0.5024  0.4903 -0.8549
41016SOL     OW34772   9.858   1.403  13.546  0.0976  0.0922 -0.0859
41016SOL    HW134773   9.815   1.416  13.462 -0.7360  0.2991  0.3634
41016SOL    HW234774   9.855   1.309  13.561 -0.4291  0.1309  0.0597
41017SOL     OW34775  10.315  13.042   7.908 -0.2269 -0.7955 -0.5383
41017SOL    HW134776  10.406  13.012   7.910  0.0251 -0.0941 -1.0855
41017SOL    HW234777  10.282  13.012   7.823  0.5373  1.8460 -1.8596
41018SOL     OW34778   9.292  13.322   5.623 -0.3572 -0.3761  0.1537
41018SOL    HW134779   9.359  13.254   5.612  1.0095  1.0683 -0.9021
41018SOL    HW234780   9.306  13.355   5.712 -1.8071 -2.1883  1.1346
41019SOL     OW34781   0.212   7.402  10.389  0.3354  0.1915  0.5653
41019SOL    HW134782   0.195   7.402  10.483  1.9867 -0.1253  0.8813
41019SOL    HW234783   0.201   7.494  10.363  2.0841  0.7076  1.5131
41020SOL     OW34784   7.435   9.547   8.402  0.1179  0.2898 -0.0509
41020SOL    HW134785   7.464   9.556   8.492  0.1359 -0.3536  0.0072
41020SOL    HW234786   7.387   9.628   8.385  0.5489  0.6367  0.3683
41021SOL     OW34787   9.698  11.903   5.624  0.5842 -0.7840  0.7406
41021SOL    HW134788   9.765  11.941   5.682 -0.6614 -0.3527  1.9540
41021SOL    HW234789   9.668  11.975   5.570 -1.1713 -0.1232  2.4578
41022SOL     OW34790   6.059   9.238  12.858  0.3547  0.1074 -0.1396
41022SOL    HW134791   6.116   9.313  12.839  0.3400  0.3233  0.6298
41022SOL    HW234792   6.118   9.162  12.852  0.1604  0.0515 -1.9175
41023SOL     OW34793   4.362   8.549   8.342 -0.0233  0.6488 -0.0169
41023SOL    HW134794   4.456   8.533   8.337  0.3882  2.2814  1.6000
41023SOL    HW234795   4.329   8.520   8.257  1.8553 -0.3181 -0.4802
41024SOL     OW34796   3.421   8.465   6.484  0.0248  0.3583  0.0099
41024SOL    HW134797   3.427   8.404   6.558  1.4577  1.7849  1.1533
41024SOL    HW234798   3.491   8.438   6.425  0.5426  0.7591  0.4292
41025SOL     OW34799   9.345  11.266   6.047 -0.0246  0.2151 -0.2822
41025SOL    HW134800   9.408  11.331   6.078  1.1216 -0.3972 -1.2395
41025SOL    HW234801   9.290  11.315   5.985  0.7638  0.3359 -0.9177
41026SOL     OW34802   2.182  12.857   7.085  0.2082  0.0144  0.4139
41026SOL    HW134803   2.176  12.951   7.100 -2.9747  0.2627 -1.5401
41026SOL    HW234804   2.243  12.849   7.012  1.3490  0.3972  1.2860
41027SOL     OW34805   3.394   0.554   6.215  0.2059  0.3202 -0.3743
41027SOL    HW134806   3.366   0.617   6.149 -1.0548 -0.6656 -0.8366
41027SOL    HW234807   3.402   0.472   6.167  0.5758 -0.1338  0.4454
41028SOL     OW34808   5.843   0.766   1.829 -0.2140 -0.5570  0.6661
41028SOL    HW134809   5.891   0.715   1.894  0.4760 -1.6504 -0.6509
41028SOL    HW234810   5.826   0.704   1.757 -0.9401  0.6064 -0.2038
41029SOL     OW34811  13.594   6.683   1.643 -0.2599  0.1447 -0.8467
41029SOL    HW134812  13.620   6.614   1.581 -0.3442  0.7834 -1.6015
41029SOL    HW234813  13.516   6.647   1.686  0.5563 -0.8550 -0.1471
41030SOL     OW34814  11.762   4.723   6.652 -0.4775 -0.2605  0.5264
41030SOL    HW134815  11.698   4.670   6.701  0.5179 -2.3564 -0.2900
41030SOL    HW234816  11.718   4.742   6.569 -0.8417  0.1888  0.8204
41031SOL     OW34817   7.170  12.381  12.869  0.0608  0.8121 -0.0728
41031SOL    HW134818   7.099  12.352  12.925  0.4165  0.5995  0.2689
41031SOL    HW234819   7.249  12.375  12.923  0.4863  0.1109 -0.7490
41032SOL     OW34820   6.523   2.178  11.106  0.1690  0.5503  0.2085
41032SOL    HW134821   6.453   2.113  11.103  0.2294  0.5212 -1.8260
41032SOL    HW234822   6.592   2.142  11.050  1.1691  1.3099  0.9130
41033SOL     OW34823   8.750   2.959   2.228 -0.2217  0.1551 -0.4157
41033SOL    HW134824   8.711   3.044   2.208 -0.0468  0.3888  0.2480
41033SOL    HW234825   8.749   2.913   2.144  0.1552  0.9947 -0.8921
41034SOL     OW34826   0.854   6.471   0.896 -0.3659 -0.0790 -0.0912
41034SOL    HW134827   0.791   6.535   0.861 -0.3950 -0.4389 -0.7177
41034SOL    HW234828   0.799   6.400   0.929 -0.3266  0.1254  0.4101
41035SOL     OW34829   1.735   8.428   1.484  0.0331 -0.0658  0.4607
41035SOL    HW134830   1.675   8.389   1.420  1.2310  1.5533 -1.8122
41035SOL    HW234831   1.679   8.460   1.554 -1.8777  1.5551 -1.6459
41036SOL     OW34832   8.872   1.415   7.133 -0.2316 -0.0741  0.1665
41036SOL    HW134833   8.906   1.391   7.219 -0.6686  0.0691  0.3785
41036SOL    HW234834   8.848   1.508   7.141  0.6172  0.2086 -0.3869
41037SOL     OW34835  13.628   2.717   8.153  0.2459 -0.2144  0.1958
41037SOL    HW134836  13.610   2.624   8.143  0.2263 -0.0222 -2.2492
41037SOL    HW234837  13.723   2.723   8.164  0.3249 -0.5105 -0.2881
41038SOL     OW34838   6.992   0.020   9.947  0.4464 -0.5745  0.5855
41038SOL    HW134839   6.899   0.011   9.967  0.5199 -0.3732  1.0193
41038SOL    HW234840   7.032  -0.058   9.986  0.3322 -1.1708 -0.4532
41039SOL     OW34841   0.017   7.826   0.790  0.8010  0.1541  0.1938
41039SOL    HW134842   0.065   7.779   0.722  1.6944  0.6467  0.4577
41039SOL    HW234843   0.085   7.855   0.851 -0.1187 -1.6747  2.2078
41040SOL     OW34844   1.095   3.096   9.807  0.1509  0.3695 -0.3822
41040SOL    HW134845   1.042   3.115   9.730  0.0367  0.2478 -0.3345
41040SOL    HW234846   1.053   3.020   9.847 -0.4665  1.1076  0.4340
41041SOL     OW34847  10.582   2.479   6.824 -0.3972 -0.0400  0.0291
41041SOL    HW134848  10.534   2.545   6.775  0.9869  2.7049  2.0789
41041SOL    HW234849  10.517   2.410   6.841 -1.9946  0.8510 -1.9812
41042SOL     OW34850  11.670   1.069  11.531  0.4678  0.0823  0.3901
41042SOL    HW134851  11.677   0.974  11.539 -0.4517  0.1385  2.4439
41042SOL    HW234852  11.605   1.082  11.462 -0.4696 -0.8380  1.0587
41043SOL     OW34853   6.551  12.344   7.346 -0.4170  0.4683 -0.0070
41043SOL    HW134854   6.625  12.311   7.397 -0.4418 -1.4055 -1.0865
41043SOL    HW234855   6.592  12.391   7.273 -0.3785  2.3965  1.1773
41044SOL     OW34856   3.230  10.631   5.098  0.2822 -0.2463 -0.2755
41044SOL    HW134857   3.226  10.690   5.173 -1.1534 -3.2006  2.1844
41044SOL    HW234858   3.323  10.620   5.081  0.6066  1.3226  0.3418
41045SOL     OW34859   1.969  13.005   0.903  0.0047 -0.7552 -0.0773
41045SOL    HW134860   1.881  12.979   0.929  0.1509 -1.1474  0.0419
41045SOL    HW234861   1.964  13.015   0.808 -0.3567 -0.0170  0.0121
41046SOL     OW34862  11.157   1.535  12.365  0.1934 -0.5390 -0.4393
41046SOL    HW134863  11.082   1.573  12.411  0.8962 -2.0689  2.2246
41046SOL    HW234864  11.202   1.610  12.326 -0.5933  0.8813  1.2419
41047SOL     OW34865  11.162   8.927  10.148  0.2217 -0.2437 -0.2021
41047SOL    HW134866  11.188   8.905  10.058 -0.4170 -1.3821 -0.1326
41047SOL    HW234867  11.082   8.876  10.163  0.1372  0.1818  0.9071
41048SOL     OW34868   6.578   6.840  12.647 -0.1247 -0.2324  0.4544
41048SOL    HW134869   6.513   6.907  12.664  0.8759  1.0843 -0.6327
41048SOL    HW234870   6.582   6.833  12.551  0.8955 -0.7036  0.5062
41049SOL     OW34871   2.362   7.851   3.305  0.2819 -0.1069 -0.1850
41049SOL    HW134872   2.455   7.871   3.315  0.5917 -1.7169  0.2485
41049SOL    HW234873   2.358   7.787   3.234 -0.5413  0.1819 -0.4226
41050SOL     OW34874   1.243  10.689  10.607  0.1068  0.3166 -0.1378
41050SOL    HW134875   1.304  10.749  10.648 -0.9151  1.2632  0.0495
41050SOL    HW234876   1.289  10.657  10.529  0.3556  2.0500 -0.7481
41051SOL     OW34877  12.585   1.795  10.395 -0.2863  0.4687  0.3741
41051SOL    HW134878  12.614   1.756  10.312  0.6637  0.7514  0.5535
41051SOL    HW234879  12.502   1.753  10.414 -1.3410  1.5386 -1.5429
41052SOL     OW34880   4.896   6.082  11.537  0.1989 -0.5380 -0.3582
41052SOL    HW134881   4.831   6.091  11.468  0.2190  0.4329 -0.2612
41052SOL    HW234882   4.968   6.139  11.510  0.1309  0.0044  0.5418
41053SOL     OW34883   0.000  10.511   3.492  0.2581 -0.6384 -0.7649
41053SOL    HW134884   0.053  10.552   3.560  0.3884  0.0884 -1.2882
41053SOL    HW234885  -0.027  10.428   3.529 -0.7501  0.2959  0.6538
41054SOL     OW34886   1.386   6.702   3.876  0.2587  0.9312 -0.9313
41054SOL    HW134887   1.463   6.662   3.917 -0.9020  0.3906  0.8110
41054SOL    HW234888   1.418   6.786   3.842  1.4996  0.9831  0.2728
41055SOL     OW34889  11.571  11.023   8.738  0.2882  0.4269 -0.2643
41055SOL    HW134890  11.601  11.044   8.650 -2.0959  0.2185 -1.1921
41055SOL    HW234891  11.477  11.037   8.736 -0.0594 -1.0686  1.8159
41056SOL     OW34892  12.405   0.292   7.570  0.3058  0.3166  0.0430
41056SOL    HW134893  12.471   0.286   7.640  0.0268  0.4791  0.3201
41056SOL    HW234894  12.436   0.230   7.504  1.5455  1.4563 -0.5068
41057SOL     OW34895   4.811   3.166  13.488 -0.4003  0.4103 -0.0350
41057SOL    HW134896   4.854   3.128  13.565  0.0724  0.9583 -0.0180
41057SOL    HW234897   4.733   3.209  13.522  0.2463  1.3749  0.2724
41058SOL     OW34898  13.217   9.594   5.845  0.0205 -0.1882  0.0927
41058SOL    HW134899  13.133   9.554   5.869  0.6644 -2.1702 -0.7656
41058SOL    HW234900  13.269   9.521   5.811  1.4741  1.3109 -1.0317
41059SOL     OW34901  11.463   0.592  13.324  0.4895 -0.5819 -0.3961
41059SOL    HW134902  11.428   0.645  13.253  2.1524 -2.7871 -3.0630
41059SOL    HW234903  11.433   0.503  13.305  1.6538 -1.3825  1.2325
41060SOL     OW34904  13.649  13.632  11.081  0.3869 -0.1895  0.0396
41060SOL    HW134905  13.707  13.643  11.005  0.4290  0.5102  0.1674
41060SOL    HW234906  13.565  13.607  11.043  0.5462 -0.3493 -0.2092
41061SOL     OW34907   2.537   9.600   3.168  0.1422  0.7118 -0.5072
41061SOL    HW134908   2.518   9.510   3.193  0.9706  0.7699  0.3695
41061SOL    HW234909   2.630   9.612   3.189 -0.0150  1.8304 -0.3997
41062SOL     OW34910  10.196   7.701  11.120 -0.7704  0.3627  0.1621
41062SOL    HW134911  10.146   7.678  11.199  0.1067 -0.7943  0.3983
41062SOL    HW234912  10.281   7.660  11.133  0.1294  2.0044 -0.4092
41063SOL     OW34913   5.862   2.995  11.770 -0.2812 -0.2080  0.1560
41063SOL    HW134914   5.843   2.919  11.825 -2.6663  0.0340 -0.2106
41063SOL    HW234915   5.778   3.040  11.761  1.1646  3.0284  1.1057
41064SOL     OW34916  12.525  11.640  13.403 -0.2713 -0.2345  0.2356
41064SOL    HW134917  12.461  11.595  13.457  0.3507 -0.0947  1.1147
41064SOL    HW234918  12.561  11.708  13.460 -0.5608  0.8116 -0.7839
41065SOL     OW34919   9.438   3.993   3.445 -0.1145  0.0338 -0.2677
41065SOL    HW134920   9.513   3.937   3.460 -0.3430 -0.2552 -0.2001
41065SOL    HW234921   9.430   3.997   3.350  0.1447  0.2789 -0.2809
41066SOL     OW34922   4.001   4.848  13.136 -0.0613  0.1008 -0.0548
41066SOL    HW134923   4.016   4.771  13.082  1.0492 -1.1834  1.9518
41066SOL    HW234924   4.055   4.833  13.214 -1.1320  2.1242  1.1489
41067SOL     OW34925  11.647   9.498   9.741 -0.4628  0.3338 -0.1155
41067SOL    HW134926  11.733   9.534   9.719 -0.4991  1.3004  1.1561
41067SOL    HW234927  11.641   9.417   9.691  1.3747  0.0097  0.0927
41068SOL     OW34928  13.419   8.083  13.225 -0.7780 -0.1316  0.3616
41068SOL    HW134929  13.493   8.025  13.205  0.1944  1.3043 -0.3421
41068SOL    HW234930  13.366   8.080  13.146 -0.7237 -0.0511  0.3223
41069SOL     OW34931  12.233   1.215   6.769 -0.0595 -0.4114  0.1406
41069SOL    HW134932  12.228   1.243   6.860  1.6372  0.7129 -0.0753
41069SOL    HW234933  12.157   1.257   6.727  0.7704  1.5090  0.4606
41070SOL     OW34934   9.276   1.025   9.351 -0.3234 -0.7240  0.3535
41070SOL    HW134935   9.324   0.943   9.366  0.0740 -0.6053 -0.2491
41070SOL    HW234936   9.279   1.037   9.256 -1.6313 -0.7657  0.2906
41071SOL     OW34937  12.506  11.831   1.693  0.0739  0.7724 -0.6581
41071SOL    HW134938  12.491  11.921   1.665 -0.9024  0.3706 -1.5044
41071SOL    HW234939  12.418  11.793   1.698  0.1590  0.7183  2.7662
41072SOL     OW34940  12.753   2.409   9.217  0.4530  0.0297  0.5837
41072SOL    HW134941  12.744   2.351   9.292  2.8190 -0.0555  0.8874
41072SOL    HW234942  12.732   2.355   9.141  0.1863 -0.5002  1.0304
41073SOL     OW34943   3.593   8.134   0.658 -0.5853 -0.3682  0.1459
41073SOL    HW134944   3.508   8.130   0.702 -1.6973  0.9582 -1.7372
41073SOL    HW234945   3.607   8.227   0.641  0.4616 -0.7089 -0.9886
41074SOL     OW34946  12.481   0.123  11.688 -0.0983 -0.3795 -0.5877
41074SOL    HW134947  12.499   0.106  11.596  1.8580 -0.7087 -0.2065
41074SOL    HW234948  12.478   0.035  11.728  0.9111 -0.1948 -0.0686
41075SOL     OW34949   4.300   4.273   1.629 -0.7697 -0.3812  0.8337
41075SOL    HW134950   4.305   4.239   1.718  0.3929 -1.7303  0.2903
41075SOL    HW234951   4.354   4.213   1.577  0.5174  1.6915 -0.3744
41076SOL     OW34952   6.814  11.382   7.753  0.3035  0.1277 -0.0897
41076SOL    HW134953   6.771  11.302   7.725  1.4332 -0.4912 -0.1053
41076SOL    HW234954   6.747  11.430   7.802 -0.5616 -0.5227 -0.6222
41077SOL     OW34955   0.922   8.313   3.478  0.2184  0.4735 -0.1009
41077SOL    HW134956   0.946   8.308   3.386  2.1313 -0.2002  0.3906
41077SOL    HW234957   1.001   8.347   3.522 -0.9501  1.6735  1.1905
41078SOL     OW34958   6.342   1.209   7.885  0.2254  0.0832  0.3894
41078SOL    HW134959   6.372   1.300   7.888 -1.0545  0.5665 -0.5769
41078SOL    HW234960   6.396   1.164   7.950  1.7734  1.2624 -0.0067
41079SOL     OW34961   0.611   9.295  10.191  0.4115 -0.8982 -0.0258
41079SOL    HW134962   0.567   9.265  10.111 -0.4555  1.0358 -0.3189
41079SOL    HW234963   0.702   9.309  10.164  0.3937 -1.3915 -0.3594
41080SOL     OW34964   4.330   8.845   7.872  0.4723  0.0732 -0.6086
41080SOL    HW134965   4.258   8.783   7.887  0.9296 -0.3388 -0.0739
41080SOL    HW234966   4.325   8.905   7.947  1.4532 -0.7171  0.1201
41081SOL     OW34967   7.173   9.224   1.521 -0.0143 -0.5546 -0.2723
41081SOL    HW134968   7.190   9.288   1.452  1.7125 -0.7004 -0.0205
41081SOL    HW234969   7.101   9.171   1.487 -0.8384  0.8996 -0.8828
41082SOL     OW34970  10.754   0.584  10.752 -0.2124 -0.0234 -0.3465
41082SOL    HW134971  10.817   0.654  10.767  0.4227 -0.7043  0.2228
41082SOL    HW234972  10.699   0.616  10.680 -0.2829  1.2777  0.2633
41083SOL     OW34973  10.289   3.638   3.127  0.0154  0.3701  0.4540
41083SOL    HW134974  10.228   3.627   3.053 -1.3807  1.7666  1.3403
41083SOL    HW234975  10.320   3.550   3.145 -1.4883 -0.3568 -0.2840
41084SOL     OW34976  11.252   6.021  12.654  0.0762 -0.0503 -0.2793
41084SOL    HW134977  11.338   6.007  12.616 -0.4835 -0.2698 -1.5088
41084SOL    HW234978  11.191   5.979  12.593 -0.8969  0.0193  0.6084
41085SOL     OW34979   5.903   2.328   2.285 -0.4029 -0.1012 -0.1038
41085SOL    HW134980   5.939   2.269   2.350  1.6035  1.1716  0.0189
41085SOL    HW234981   5.824   2.365   2.326  0.3141 -0.0126  1.2297
41086SOL     OW34982   4.061   8.527   2.578  0.4804  0.9657 -0.2759
41086SOL    HW134983   3.977   8.562   2.608  1.1249  0.5740  2.2211
41086SOL    HW234984   4.126   8.588   2.614  1.3383  0.2105 -0.5147
41087SOL     OW34985  12.290  11.326   1.196  0.6312 -0.5641 -0.0373
41087SOL    HW134986  12.385  11.325   1.203  0.5917  0.2723  0.8083
41087SOL    HW234987  12.260  11.367   1.277 -0.4835 -1.4514  0.0301
41088SOL     OW34988   1.634   4.179   4.327 -0.9657  0.0168  0.5595
41088SOL    HW134989   1.679   4.096   4.342 -1.6100 -0.5324 -0.4138
41088SOL    HW234990   1.701   4.235   4.286 -0.8507 -0.4159  0.1447
41089SOL     OW34991   7.876   3.938  11.410  0.1970  0.0281  0.1152
41089SOL    HW134992   7.853   3.872  11.476  1.2744  1.6588  2.2526
41089SOL    HW234993   7.814   4.010  11.425 -0.1092  0.0944 -1.2887
41090SOL     OW34994   9.791   3.444  12.775  0.3357 -0.0937 -0.2665
41090SOL    HW134995   9.856   3.422  12.843 -0.5485 -2.5986 -0.1508
41090SOL    HW234996   9.784   3.539  12.780  1.2922 -0.0700  2.2519
41091SOL     OW34997   1.604  10.683   9.663 -0.4196 -1.3847 -0.2866
41091SOL    HW134998   1.516  10.704   9.695 -0.3420 -1.4367 -0.0429
41091SOL    HW234999   1.601  10.589   9.645 -0.5572 -1.2984 -0.7299
41092SOL     OW35000   0.249   6.701   0.714 -0.3714 -0.2751 -0.2374
41092SOL    HW135001   0.305   6.715   0.790  0.5538 -0.4598 -0.8644
41092SOL    HW235002   0.269   6.613   0.684  0.3696  0.3002 -1.5502
41093SOL     OW35003   3.113   7.358   6.285 -0.6166  0.2904 -0.1084
41093SOL    HW135004   3.057   7.306   6.228 -0.5041 -2.1766  1.8699
41093SOL    HW235005   3.056   7.384   6.358  0.6667 -2.3761  2.0142
41094SOL     OW35006   7.321  11.130   8.399  0.3240  0.1792  0.0925
41094SOL    HW135007   7.370  11.048   8.406  0.2556  0.2801  2.7288
41094SOL    HW235008   7.229  11.104   8.410  0.3738  0.6411  1.9791
41095SOL     OW35009   9.642   6.241   1.315 -0.0092 -0.2321 -0.6552
41095SOL    HW135010   9.651   6.150   1.341  0.0608  0.3530  1.6088
41095SOL    HW235011   9.732   6.272   1.301  0.0829 -0.1322  0.1055
41096SOL     OW35012   4.627   5.815   5.520 -0.7723 -0.0662 -0.0692
41096SOL    HW135013   4.556   5.785   5.576 -1.9379 -0.0884 -1.5083
41096SOL    HW235014   4.671   5.884   5.570 -1.0306 -0.8812  1.3260
41097SOL     OW35015   7.570  13.118  13.177  0.2236  0.3541  0.8685
41097SOL    HW135016   7.630  13.149  13.110 -0.6102  0.2138  0.0348
41097SOL    HW235017   7.615  13.043  13.216  0.9720  0.8014  0.8904
41098SOL     OW35018   9.835   1.175   2.917 -0.0103 -0.0736  0.0432
41098SOL    HW135019   9.860   1.086   2.940 -0.0917 -0.1884 -0.2990
41098SOL    HW235020   9.748   1.187   2.956 -0.4561 -0.5123 -0.7828
41099SOL     OW35021   0.852   6.559   2.830 -0.0375  0.1860 -0.0288
41099SOL    HW135022   0.944   6.555   2.855  0.1233  0.6719 -0.5157
41099SOL    HW235023   0.826   6.468   2.815  0.8657  0.1742 -1.6528
41100SOL     OW35024  10.013   8.401   6.871  0.0186  0.1120 -0.2968
41100SOL    HW135025  10.041   8.459   6.801  0.3836 -0.4578 -0.6355
41100SOL    HW235026  10.081   8.408   6.938  0.1119  0.0104 -0.3792
41101SOL     OW35027   0.264   2.137   4.259 -0.0646  0.0236 -0.0838
41101SOL    HW135028   0.170   2.136   4.279  0.1908 -2.1641  1.4560
41101SOL    HW235029   0.268   2.126   4.164 -1.4504 -2.3412  0.0260
41102SOL     OW35030   9.986   2.972  12.395  0.2737 -0.5598  0.5439
41102SOL    HW135031   9.924   3.013  12.335 -0.6469 -1.6104  0.7509
41102SOL    HW235032  10.021   2.897  12.348  2.0574  0.4955  0.1193
41103SOL     OW35033  10.270   7.361   9.806 -0.3820  0.1162 -0.0171
41103SOL    HW135034  10.348   7.417   9.808 -0.0253 -0.2807 -1.5194
41103SOL    HW235035  10.305   7.272   9.803 -0.9446 -0.2338  2.0217
41104SOL     OW35036   2.939  10.905   3.479  0.4264  0.6704 -0.3965
41104SOL    HW135037   2.870  10.838   3.480 -0.2034  1.2905  1.3519
41104SOL    HW235038   2.894  10.986   3.505  1.4751  1.4645 -1.0116
41105SOL     OW35039  10.198   2.522   3.980  0.1685  0.5133 -0.5905
41105SOL    HW135040  10.194   2.594   3.918 -0.7748  2.4040  1.4979
41105SOL    HW235041  10.109   2.517   4.017  0.2678 -1.5922 -0.4846
41106SOL     OW35042  12.302  10.401  11.693  0.4516 -0.1249  0.0602
41106SOL    HW135043  12.252  10.415  11.613  1.2098 -0.2569 -0.4454
41106SOL    HW235044  12.265  10.322  11.732 -0.3543  0.3100  0.1896
41107SOL     OW35045   9.567   7.474   3.012 -0.2558  0.0595 -0.2173
41107SOL    HW135046   9.556   7.474   2.917  1.8278 -2.6687 -0.6122
41107SOL    HW235047   9.607   7.558   3.032 -1.3571  0.9583 -1.6303
41108SOL     OW35048   4.256  11.154   3.999 -0.0974  0.1356  0.2578
41108SOL    HW135049   4.304  11.101   3.936 -3.0410 -2.5538  0.0011
41108SOL    HW235050   4.198  11.208   3.946  0.0004  0.6184  0.6270
41109SOL     OW35051   2.169   1.015   6.676  0.2808 -0.3101  0.4157
41109SOL    HW135052   2.093   0.959   6.693 -0.6480  0.5032 -0.8228
41109SOL    HW235053   2.135   1.104   6.683  1.6064  0.1180  1.8058
41110SOL     OW35054   9.758  12.563   3.504 -0.2619  0.1671  0.0072
41110SOL    HW135055   9.684  12.529   3.554 -0.6895  0.8635 -0.1472
41110SOL    HW235056   9.719  12.621   3.439  0.3849  0.1921 -0.3662
41111SOL     OW35057   8.109  11.081   3.911  0.4876 -0.1366 -0.0816
41111SOL    HW135058   8.115  11.088   4.006  1.9216  0.8011 -0.2214
41111SOL    HW235059   8.100  11.171   3.881  0.8941 -0.3622 -0.8945
41112SOL     OW35060  10.275   5.660   9.273  0.2809 -0.1933 -0.3462
41112SOL    HW135061  10.180   5.650   9.281  0.1491  0.8339 -0.4616
41112SOL    HW235062  10.286   5.728   9.206  1.0601  0.7630  0.7150
41113SOL     OW35063   6.853   0.580   1.877  0.4175 -0.3991 -0.0565
41113SOL    HW135064   6.770   0.550   1.841  0.2916  1.0550 -1.0788
41113SOL    HW235065   6.847   0.562   1.971 -1.1767 -0.0751 -0.0671
41114SOL     OW35066  13.514   7.858   0.705 -0.0284  0.4050 -0.0951
41114SOL    HW135067  13.603   7.854   0.740 -0.4519  0.9340  1.0797
41114SOL    HW235068  13.517   7.801   0.628  0.9356 -0.7871  0.7756
41115SOL     OW35069  11.139   3.832   6.883 -0.1326  0.3651 -0.5039
41115SOL    HW135070  11.110   3.853   6.795 -1.0108  0.0022 -0.3145
41115SOL    HW235071  11.232   3.812   6.874  0.1909  1.9923 -1.0638
41116SOL     OW35072  13.735   8.626   7.740 -0.3019 -0.1311  0.0946
41116SOL    HW135073  13.643   8.653   7.742 -0.5754 -1.0367  0.2379
41116SOL    HW235074  13.732   8.534   7.714  0.5872 -0.0942 -0.1522
41117SOL     OW35075  11.737   4.686   3.397  0.1442 -0.2625  0.4120
41117SOL    HW135076  11.687   4.726   3.468  0.3086 -1.4455  1.2195
41117SOL    HW235077  11.708   4.595   3.395  0.4480 -0.3529 -0.7800
41118SOL     OW35078  13.172   0.957   8.505  0.2540  0.2927  0.1064
41118SOL    HW135079  13.112   1.027   8.481  1.6583  1.2005 -0.9521
41118SOL    HW235080  13.164   0.893   8.435  0.4985  0.4080 -0.0290
41119SOL     OW35081   4.221   7.715   8.697  0.2619 -0.6655 -0.2130
41119SOL    HW135082   4.130   7.715   8.668  0.7079 -1.8630 -1.7519
41119SOL    HW235083   4.268   7.762   8.629  0.8377 -0.2956  0.4313
41120SOL     OW35084   3.109   6.558   5.950  0.1385  0.1123  0.4476
41120SOL    HW135085   3.016   6.539   5.960  0.0864  0.5692  0.8890
41120SOL    HW235086   3.121   6.570   5.856 -0.1841 -0.2472  0.3555
41121SOL     OW35087  11.005   4.247  11.789 -0.1485  0.0165  0.2728
41121SOL    HW135088  10.914   4.279  11.792 -0.1419  0.4222 -2.1238
41121SOL    HW235089  11.058   4.325  11.806 -0.2310  0.2286 -0.4047
41122SOL     OW35090   1.297   6.556   4.265 -0.0725 -0.2904 -0.0955
41122SOL    HW135091   1.334   6.634   4.306  0.0247  0.2252 -1.1347
41122SOL    HW235092   1.207   6.580   4.243 -0.2461 -0.6948  0.1566
41123SOL     OW35093   0.912  11.168   7.514 -0.2376 -0.1433  0.1582
41123SOL    HW135094   0.963  11.105   7.565 -0.2216  0.8058  1.3489
41123SOL    HW235095   0.822  11.135   7.518  0.1149 -1.4427 -1.3684
41124SOL     OW35096   5.412   0.188   6.424  0.5411  0.4567 -0.3052
41124SOL    HW135097   5.317   0.198   6.417 -0.5837 -2.8080  4.9029
41124SOL    HW235098   5.436   0.139   6.345 -2.4874 -0.4098 -0.8313
41125SOL     OW35099   9.743   7.039   6.314  0.5743 -0.4504 -0.3353
41125SOL    HW135100   9.662   6.991   6.297 -0.1252  1.0691 -1.5238
41125SOL    HW235101   9.716   7.129   6.327  2.1094  0.1971 -1.3182
41126SOL     OW35102   2.264   3.526   6.650 -0.0799  0.0358 -0.8152
41126SOL    HW135103   2.195   3.579   6.690 -0.1457 -0.1376 -0.6991
41126SOL    HW235104   2.337   3.587   6.639 -0.0872  0.1036 -0.4964
41127SOL     OW35105   5.543  11.053   2.522 -0.2510 -0.6952  0.0507
41127SOL    HW135106   5.592  10.975   2.498  0.3236  0.1292 -1.5688
41127SOL    HW235107   5.521  11.095   2.439  0.2711  1.3682  0.8823
41128SOL     OW35108   7.004   0.622   9.236 -0.8265  0.0842 -0.5359
41128SOL    HW135109   7.013   0.717   9.238 -0.3500  0.0337  1.7979
41128SOL    HW235110   7.049   0.596   9.156 -0.8312  1.7869 -1.1384
41129SOL     OW35111  12.102   6.520   8.465  0.0389  0.2723  0.0211
41129SOL    HW135112  12.011   6.495   8.449  0.5321 -1.5038 -0.2496
41129SOL    HW235113  12.135   6.546   8.379 -0.1371  0.6803  0.0748
41130SOL     OW35114   8.752   6.323  11.826 -0.2907 -0.4935 -0.1030
41130SOL    HW135115   8.683   6.372  11.872  0.0289 -1.2124  1.1858
41130SOL    HW235116   8.827   6.382  11.827 -0.3285 -0.4488  0.1709
41131SOL     OW35117  11.050  10.465   3.055  0.0166 -0.0099  0.8044
41131SOL    HW135118  10.957  10.441   3.060  0.1901 -0.5601  1.7281
41131SOL    HW235119  11.096  10.383   3.074  0.6692  0.4704  1.3457
41132SOL     OW35120   4.397   8.617   9.524 -0.1442 -0.1192 -0.9131
41132SOL    HW135121   4.312   8.657   9.507 -0.3933 -0.5704 -0.7558
41132SOL    HW235122   4.400   8.605   9.619  0.7520  1.3194 -0.7270
41133SOL     OW35123   5.770  10.123   5.388  0.7030  0.1527  0.4802
41133SOL    HW135124   5.706  10.145   5.321  0.6914 -1.1685  0.0296
41133SOL    HW235125   5.746  10.178   5.463 -0.1839  0.5803 -0.1011
41134SOL     OW35126   4.289   7.548   7.452 -0.1681  0.0169 -0.0472
41134SOL    HW135127   4.194   7.543   7.462  0.0265  0.4445  2.4949
41134SOL    HW235128   4.323   7.471   7.497  0.7897  1.3561  1.6237
41135SOL     OW35129   8.060   6.251   7.591  0.4013 -0.4357  0.3888
41135SOL    HW135130   8.131   6.314   7.598 -0.5165  0.6646 -0.0359
41135SOL    HW235131   8.019   6.250   7.678  1.3154 -1.5763  0.8422
41136SOL     OW35132   9.282   0.112   4.690 -0.2182  0.4634 -0.0386
41136SOL    HW135133   9.281   0.206   4.669 -1.8369  0.6712  0.7653
41136SOL    HW235134   9.273   0.109   4.786 -0.0358 -0.5201 -0.0404
41137SOL     OW35135   0.131   0.638   1.178  0.3256  0.0398 -0.4628
41137SOL    HW135136   0.188   0.685   1.118  0.9378  1.9000  1.4688
41137SOL    HW235137   0.043   0.672   1.159  0.7125  1.7654  0.6574
41138SOL     OW35138   5.473   8.271  12.022 -0.3432  0.5025  0.3909
41138SOL    HW135139   5.544   8.332  12.042  1.3686 -1.3649  0.4116
41138SOL    HW235140   5.456   8.227  12.105  0.0738 -0.5975 -0.0813
41139SOL     OW35141  13.371   4.250   0.575  0.1165 -0.0463  0.2844
41139SOL    HW135142  13.394   4.242   0.482 -1.1662 -1.3018  0.0340
41139SOL    HW235143  13.395   4.166   0.613 -0.6477 -0.0545  0.7797
41140SOL     OW35144   7.532  12.178  10.671 -0.5959  0.2736 -0.4406
41140SOL    HW135145   7.602  12.129  10.627 -0.1544  0.7142 -0.2322
41140SOL    HW235146   7.498  12.117  10.737  0.1564  0.3483  0.0260
41141SOL     OW35147   7.524   8.735  11.811 -0.1320  0.1403 -0.2568
41141SOL    HW135148   7.488   8.651  11.840 -0.3905  0.4357  0.3151
41141SOL    HW235149   7.590   8.756  11.877 -0.4511  0.6373 -0.0889
41142SOL     OW35150   7.222   5.511   8.932 -0.0840  0.4982  0.0108
41142SOL    HW135151   7.144   5.555   8.899 -0.9107 -0.6281  0.4242
41142SOL    HW235152   7.194   5.421   8.949  0.9177  0.4482  1.5860
41143SOL     OW35153  10.579  13.708   0.070 -0.1867  0.4553  0.0780
41143SOL    HW135154  10.510  13.657   0.114 -0.5296  1.4497  0.7313
41143SOL    HW235155  10.532  13.779   0.028  0.3925  0.8063  0.0192
41144SOL     OW35156   1.683   7.961   9.883 -0.3957 -0.0868  0.2073
41144SOL    HW135157   1.597   8.002   9.877 -0.8477 -1.1512 -1.0695
41144SOL    HW235158   1.671   7.889   9.945 -0.0120  0.6832  1.2043
41145SOL     OW35159  11.276  12.970  10.783 -0.0591 -0.7483 -0.6915
41145SOL    HW135160  11.311  13.019  10.708  1.7807 -1.3533 -0.2688
41145SOL    HW235161  11.340  12.983  10.853 -2.4959  1.1143  1.3693
41146SOL     OW35162   5.171  11.668   9.758 -0.2651  0.2722 -0.1221
41146SOL    HW135163   5.124  11.745   9.728 -0.7705  0.0654  0.1219
41146SOL    HW235164   5.251  11.702   9.798 -0.7837  0.7228  0.5695
41147SOL     OW35165   5.757   3.915   7.578 -0.8750  0.7705 -0.0843
41147SOL    HW135166   5.783   3.900   7.487 -0.5134  0.0445  0.1347
41147SOL    HW235167   5.793   4.001   7.600 -0.0734  0.5043 -0.3125
41148SOL     OW35168  11.285   3.820   8.178  0.0147 -0.2507 -0.0506
41148SOL    HW135169  11.248   3.908   8.175 -1.2312 -0.7698 -1.6291
41148SOL    HW235170  11.380   3.833   8.174  0.0086  1.0602  2.2767
41149SOL     OW35171  12.860   2.965   2.738 -0.0966 -0.2253  0.0352
41149SOL    HW135172  12.779   2.915   2.732 -0.3589  0.3022 -1.0265
41149SOL    HW235173  12.874   3.000   2.650  0.3281  1.1545  0.6117
41150SOL     OW35174   4.317  10.437   3.930  0.6782 -0.1730  0.4797
41150SOL    HW135175   4.253  10.508   3.929  1.0709  0.2924  2.6720
41150SOL    HW235176   4.265  10.357   3.937  0.2882  0.1360  1.1919
41151SOL     OW35177   3.302   3.144   0.008  0.2164 -0.1529 -0.7008
41151SOL    HW135178   3.248   3.181   0.078 -0.0800  0.1954 -1.1095
41151SOL    HW235179   3.261   3.061  -0.013  0.6114 -0.5051 -0.1012
41152SOL     OW35180   2.446   3.093   2.756 -0.0046 -0.0558 -0.5747
41152SOL    HW135181   2.468   3.063   2.668  1.2128  0.8279 -0.5910
41152SOL    HW235182   2.385   3.027   2.789  0.2758 -0.9130 -1.7168
41153SOL     OW35183   2.014   9.242   6.603  0.1379 -0.1276  0.2492
41153SOL    HW135184   2.090   9.191   6.574  0.5243  0.7999 -0.3876
41153SOL    HW235185   1.970   9.184   6.665 -0.1227 -1.7585 -1.3546
41154SOL     OW35186  13.066  11.657   7.744  0.0087  0.5867  0.1729
41154SOL    HW135187  13.052  11.572   7.787 -0.6044  1.2555  1.3591
41154SOL    HW235188  13.139  11.696   7.793  0.8766  0.4038 -0.9304
41155SOL     OW35189   8.118   1.115   4.109 -0.1912 -0.0713  0.0393
41155SOL    HW135190   8.039   1.114   4.164 -0.6703  0.2754 -0.6355
41155SOL    HW235191   8.085   1.111   4.019  0.5936 -0.8940 -0.2287
41156SOL     OW35192   1.882   7.140   4.258  0.0291 -0.3317  0.4456
41156SOL    HW135193   1.885   7.170   4.349 -1.2588 -1.1020  0.7692
41156SOL    HW235194   1.821   7.199   4.215 -0.2842 -0.6998  0.3809
41157SOL     OW35195   7.303  11.616  12.904  0.2645  0.3011 -0.0805
41157SOL    HW135196   7.370  11.548  12.916  0.2687  0.2219 -0.5257
41157SOL    HW235197   7.264  11.596  12.818 -1.0111 -0.2404  0.5981
41158SOL     OW35198  11.433  10.699  12.317  0.1822 -0.7374  0.3553
41158SOL    HW135199  11.393  10.638  12.255  1.4635 -0.0304 -1.2542
41158SOL    HW235200  11.512  10.654  12.348 -1.0116 -1.5368  2.3869
41159SOL     OW35201  13.632   1.890   1.784 -0.2549  0.6032 -0.2234
41159SOL    HW135202  13.626   1.983   1.761  1.8529  0.3776 -1.9973
41159SOL    HW235203  13.565   1.848   1.730 -0.1458  0.9065 -0.5958
41160SOL     OW35204   7.229   1.792   0.488 -0.3981  0.4756 -0.7369
41160SOL    HW135205   7.201   1.880   0.514 -0.6649  0.7174 -1.7769
41160SOL    HW235206   7.318   1.784   0.522  0.5312  2.0873 -2.6271
41161SOL     OW35207   1.522   3.711   9.369 -0.8029  0.4756 -0.1296
41161SOL    HW135208   1.504   3.621   9.395  0.7613  0.2504  0.2710
41161SOL    HW235209   1.509   3.711   9.274 -3.9166  0.6476  0.2156
41162SOL     OW35210   4.714  10.423   9.952  0.2284 -0.2407 -0.3273
41162SOL    HW135211   4.747  10.496   9.899 -2.9484  2.7349  1.3370
41162SOL    HW235212   4.759  10.433  10.036  0.6079 -0.9280 -0.4471
41163SOL     OW35213   0.467   7.653  12.413  0.2843  0.0430  0.0683
41163SOL    HW135214   0.475   7.720  12.346  0.3131 -0.6733 -0.6627
41163SOL    HW235215   0.541   7.594  12.396  0.2779 -0.1572  0.7171
41164SOL     OW35216   1.369   6.729   4.868 -0.3319  0.6275  0.0704
41164SOL    HW135217   1.287   6.680   4.870  0.3138 -0.4625  0.8100
41164SOL    HW235218   1.358   6.790   4.795 -2.5850  1.8980  1.3549
41165SOL     OW35219  10.682   7.986   3.373 -0.0221 -0.3986  0.3787
41165SOL    HW135220  10.704   7.941   3.455  1.8136 -1.3923 -0.5910
41165SOL    HW235221  10.729   7.937   3.306 -0.3960  1.1924 -1.1131
41166SOL     OW35222   7.573   1.313  11.399 -0.1487 -0.5646  0.4887
41166SOL    HW135223   7.595   1.355  11.482  0.5671  1.1022 -0.4922
41166SOL    HW235224   7.562   1.385  11.338 -0.9810 -1.7363 -0.8153
41167SOL     OW35225   2.611   6.968   9.483 -0.5424  0.0535  0.5587
41167SOL    HW135226   2.616   6.941   9.391 -0.3480  0.9874  0.2867
41167SOL    HW235227   2.522   6.945   9.509 -0.4077 -0.7701  0.3201
41168SOL     OW35228   4.822  10.274   3.731  0.5626  0.1948 -0.1840
41168SOL    HW135229   4.767  10.249   3.657  0.2346 -0.2598  0.2063
41168SOL    HW235230   4.845  10.366   3.715  1.3105 -0.1764 -1.3455
41169SOL     OW35231   6.299   1.465   2.065 -0.6742  0.4946 -0.3823
41169SOL    HW135232   6.265   1.391   2.014 -0.1947  0.4407 -0.6265
41169SOL    HW235233   6.307   1.536   2.002 -0.5678  0.5794 -0.2749
41170SOL     OW35234   0.097  12.371   5.872  0.0411 -0.2622  0.5724
41170SOL    HW135235   0.003  12.373   5.855  0.0536 -1.3074  0.3778
41170SOL    HW235236   0.136  12.412   5.795 -0.3015  1.3218  1.1860
41171SOL     OW35237  13.520  11.657   5.360 -0.2840 -0.0774  0.3296
41171SOL    HW135238  13.535  11.738   5.407  0.1389  0.1955 -0.2611
41171SOL    HW235239  13.599  11.605   5.377 -0.8275 -0.6308  1.2285
41172SOL     OW35240  10.574   2.009   6.841  0.4976  0.4067 -0.1275
41172SOL    HW135241  10.507   2.065   6.803 -0.0969 -0.0767  0.1807
41172SOL    HW235242  10.592   2.047   6.927 -0.9272 -0.6381  0.6725
41173SOL     OW35243   9.987  11.995   8.127  0.3443  0.1617  0.3605
41173SOL    HW135244  10.017  11.907   8.153  0.3583 -0.1528 -0.6818
41173SOL    HW235245   9.950  11.983   8.040 -1.8103  0.7701  1.1437
41174SOL     OW35246   7.068  11.556   3.229  0.2872  0.2172  0.3309
41174SOL    HW135247   7.138  11.511   3.182  1.9748  1.2014  1.7831
41174SOL    HW235248   7.048  11.499   3.304  1.5050  1.1669  1.4339
41175SOL     OW35249   2.654   2.625  11.312 -0.3399 -0.2898  0.0397
41175SOL    HW135250   2.717   2.691  11.283 -0.1233 -0.5412 -0.0684
41175SOL    HW235251   2.617   2.660  11.393 -0.4672  0.1154 -0.1919
41176SOL     OW35252   3.513   2.929   6.185 -0.1168  0.2803  0.2419
41176SOL    HW135253   3.497   3.023   6.196 -0.2017  0.4083 -0.8313
41176SOL    HW235254   3.582   2.908   6.249 -1.2033  0.7225  1.6086
41177SOL     OW35255  13.053   2.940   7.199 -0.5688  0.3184  0.1476
41177SOL    HW135256  13.068   2.989   7.118 -0.0015 -2.3179 -1.4894
41177SOL    HW235257  13.115   2.867   7.194  0.0607  0.4994  3.4208
41178SOL     OW35258   5.269   1.498   6.484  0.1292  0.0194 -0.1756
41178SOL    HW135259   5.223   1.446   6.417 -0.8083 -0.0902  0.5471
41178SOL    HW235260   5.225   1.582   6.484  0.0546 -0.0210  0.3941
41179SOL     OW35261  12.357   0.079   6.592  0.3036  0.8641  0.0885
41179SOL    HW135262  12.389   0.131   6.665 -1.4419 -0.1503  1.6681
41179SOL    HW235263  12.423   0.011   6.580  0.6382  1.0840  0.6560
41180SOL     OW35264   6.475   3.015   8.298 -0.3725 -0.6909 -0.2334
41180SOL    HW135265   6.567   2.989   8.292 -0.4192 -0.9225  0.0136
41180SOL    HW235266   6.427   2.945   8.253 -0.5873 -1.6095  1.3215
41181SOL     OW35267  10.239   0.460  11.366 -0.2063 -0.0556  0.2717
41181SOL    HW135268  10.307   0.506  11.416  0.8937  0.7342 -1.8415
41181SOL    HW235269  10.167   0.523  11.362  0.0971  0.2737 -0.0138
41182SOL     OW35270   8.428   9.376   2.570 -0.0385  0.0285  0.3840
41182SOL    HW135271   8.352   9.347   2.621  1.8110 -0.8610  2.8928
41182SOL    HW235272   8.451   9.301   2.516 -1.0187  0.3576 -0.4985
41183SOL     OW35273   5.870   1.420   8.786 -0.3204 -0.4873 -0.1362
41183SOL    HW135274   5.842   1.401   8.875 -0.8383 -0.3434 -0.2605
41183SOL    HW235275   5.965   1.408   8.787 -0.3582 -0.7771  0.3569
41184SOL     OW35276   2.413   0.457   5.164  0.3954 -0.3945  0.1514
41184SOL    HW135277   2.460   0.502   5.234 -0.2055  0.7867 -0.1793
41184SOL    HW235278   2.387   0.527   5.103 -1.6197 -0.9899  0.2436
41185SOL     OW35279  11.765   3.158   4.376  0.4486 -0.0479  0.2570
41185SOL    HW135280  11.756   3.253   4.367  0.6179 -0.0980 -0.4875
41185SOL    HW235281  11.704   3.121   4.313  1.6854 -0.4110 -0.7768
41186SOL     OW35282   9.699  11.022   3.368  0.0540 -0.0603 -0.5531
41186SOL    HW135283   9.653  11.039   3.286  0.5777  0.0642 -0.8321
41186SOL    HW235284   9.715  11.109   3.404 -2.4900 -0.1669  1.0303
41187SOL     OW35285  13.116  11.954  12.945 -0.4663  0.4068 -0.2147
41187SOL    HW135286  13.111  12.049  12.933  0.0046  0.2979 -1.4218
41187SOL    HW235287  13.096  11.918  12.858 -0.6543 -0.6004  0.2346
41188SOL     OW35288  13.161   7.577   4.945  0.2761 -0.5081 -0.1296
41188SOL    HW135289  13.117   7.584   4.860  1.0915  0.4872 -0.4972
41188SOL    HW235290  13.239   7.524   4.929  0.5354 -0.1554 -0.0482
41189SOL     OW35291  13.241   2.974   0.895 -0.5796  0.6288  0.0716
41189SOL    HW135292  13.268   2.903   0.837 -0.7294  0.7843 -0.1918
41189SOL    HW235293  13.196   2.930   0.967  3.3022 -0.0053  2.4120
41190SOL     OW35294  10.727   1.403  11.242  0.3433  0.6668 -0.1052
41190SOL    HW135295  10.681   1.437  11.320 -0.0705 -1.5796  0.7167
41190SOL    HW235296  10.742   1.480  11.188 -3.5021  1.7367  0.0512
41191SOL     OW35297   5.330  10.166   0.392  0.1956  0.0065  0.2558
41191SOL    HW135298   5.330  10.131   0.481 -0.9227 -0.5098  0.0679
41191SOL    HW235299   5.422  10.169   0.367  0.6044  0.9374  1.7230
41192SOL     OW35300  12.660   1.157   8.487 -1.1563 -0.3867  0.4613
41192SOL    HW135301  12.572   1.140   8.520 -0.4364 -1.6703  1.7993
41192SOL    HW235302  12.654   1.244   8.447 -3.4232 -1.1303 -1.0057
41193SOL     OW35303   7.279   7.882   8.559 -0.0881  0.2040 -0.6113
41193SOL    HW135304   7.243   7.962   8.520 -0.6437 -0.2779 -1.0831
41193SOL    HW235305   7.374   7.894   8.554 -0.1673  0.8818 -0.5854
41194SOL     OW35306   4.309   5.689  11.600 -0.7064 -0.1892  0.9487
41194SOL    HW135307   4.338   5.660  11.513  0.6756 -0.8855  1.6100
41194SOL    HW235308   4.216   5.707  11.589 -0.7853 -1.2587 -0.4244
41195SOL     OW35309   8.573   1.862   4.244 -0.1710  0.6527  0.2261
41195SOL    HW135310   8.490   1.901   4.218 -1.0071  0.0440  1.8285
41195SOL    HW235311   8.548   1.786   4.296  1.4022 -1.2534 -1.6390
41196SOL     OW35312   2.842   4.443   9.312  0.4298 -0.4720 -0.1197
41196SOL    HW135313   2.772   4.462   9.374  0.4619  0.2860 -0.3057
41196SOL    HW235314   2.906   4.513   9.325 -0.0572  0.3336 -1.7303
41197SOL     OW35315   8.177   4.767  10.287  0.4016  0.7920 -0.3951
41197SOL    HW135316   8.154   4.700  10.223  1.7475  0.8142 -0.9111
41197SOL    HW235317   8.108   4.834  10.277  0.5365  0.7543 -1.7488
41198SOL     OW35318   4.194  12.309   3.090 -0.9633 -0.6180 -0.7156
41198SOL    HW135319   4.105  12.276   3.077 -1.0438 -0.9624  0.5844
41198SOL    HW235320   4.184  12.383   3.149 -0.2975 -1.3387  0.3385
41199SOL     OW35321   8.248   1.882  11.263 -0.1204 -0.0418  0.3783
41199SOL    HW135322   8.192   1.805  11.281  0.2338 -0.0628  1.4621
41199SOL    HW235323   8.324   1.846  11.217  0.2393 -0.4062  1.2496
41200SOL     OW35324  11.707   3.639   9.883 -0.6296  0.5513 -0.3414
41200SOL    HW135325  11.720   3.733   9.869  0.1916  0.3389 -1.0642
41200SOL    HW235326  11.634   3.616   9.826 -1.6996  0.9758  0.7919
41201SOL     OW35327   1.238   0.826   2.531 -0.4854  0.2146 -0.9558
41201SOL    HW135328   1.144   0.815   2.544 -0.4814  0.6032 -0.5939
41201SOL    HW235329   1.256   0.784   2.447 -1.1775  1.1443 -1.5791
41202SOL     OW35330   6.241  13.237   2.623  0.3070  0.5933 -0.4504
41202SOL    HW135331   6.241  13.287   2.542  0.1693  1.5814  0.1470
41202SOL    HW235332   6.327  13.195   2.626  0.1460  0.1745 -1.3163
41203SOL     OW35333  13.157  10.926  10.640  0.3048 -0.4326 -0.3540
41203SOL    HW135334  13.209  10.919  10.560 -0.3681  0.5786 -0.8885
41203SOL    HW235335  13.197  10.861  10.699  3.3232  1.4364 -0.1132
41204SOL     OW35336   7.766   4.212   8.738  0.0250  0.0371  0.6524
41204SOL    HW135337   7.799   4.204   8.649 -0.7888 -0.8892  0.4175
41204SOL    HW235338   7.839   4.248   8.788  0.5466  0.3882 -0.3430
41205SOL     OW35339  11.826   4.205  11.792  0.0833 -0.1595  0.3327
41205SOL    HW135340  11.862   4.116  11.798 -1.5223 -0.9039 -0.4529
41205SOL    HW235341  11.810   4.218  11.699 -1.9056  0.0240  0.6720
41206SOL     OW35342   6.672   8.300   9.981 -0.0395  0.3296 -0.3258
41206SOL    HW135343   6.659   8.328   9.890  1.9618  1.8083 -0.2157
41206SOL    HW235344   6.752   8.344  10.008 -0.0165 -0.9366  1.8403
41207SOL     OW35345   8.643  12.480   6.239 -0.6007  0.1338  0.4630
41207SOL    HW135346   8.664  12.454   6.328 -0.9176  0.0133  0.5038
41207SOL    HW235347   8.727  12.501   6.199 -0.4931  0.5347  0.8965
41208SOL     OW35348   1.253   3.840   1.808 -0.2088  0.4668 -0.3456
41208SOL    HW135349   1.260   3.745   1.818 -1.2569  0.3280 -0.7818
41208SOL    HW235350   1.159   3.858   1.810 -0.0128  1.8206  2.5819
41209SOL     OW35351   4.150  12.395   4.527  0.1830  0.0237 -0.8017
41209SOL    HW135352   4.144  12.423   4.435 -1.1077 -0.6166 -0.9279
41209SOL    HW235353   4.142  12.476   4.577 -0.5572  0.2307 -1.2330
41210SOL     OW35354   7.744   1.743  12.202 -0.5146  0.1962 -0.7129
41210SOL    HW135355   7.809   1.722  12.134 -0.8510  0.2668 -1.0581
41210SOL    HW235356   7.774   1.826  12.238 -0.1627  0.0053 -0.5614
41211SOL     OW35357   0.035  12.077   0.175  0.1222 -0.4187  0.2528
41211SOL    HW135358  -0.032  12.033   0.227  0.0979  0.3910  0.9097
41211SOL    HW235359  -0.003  12.161   0.152  0.7191 -0.1554  0.2028
41212SOL     OW35360   1.975   1.162  11.882  0.6342  0.1276 -0.2010
41212SOL    HW135361   1.975   1.135  11.974  0.6130 -0.2723 -0.3135
41212SOL    HW235362   1.902   1.113  11.843 -0.7041  1.8695  0.0108
41213SOL     OW35363   4.490  10.039  12.957  0.2169 -0.0128  0.2442
41213SOL    HW135364   4.452   9.953  12.977  1.7222 -0.5922  0.7764
41213SOL    HW235365   4.553  10.021  12.886  1.5193  0.3801  1.2620
41214SOL     OW35366  13.150  10.121   3.196 -0.0799  0.1565 -0.0739
41214SOL    HW135367  13.162  10.037   3.240  0.2620  0.3065  0.1234
41214SOL    HW235368  13.238  10.159   3.192 -0.2123  0.4460 -0.2802
41215SOL     OW35369   4.290   2.320   1.644 -0.4567 -0.2448  0.1007
41215SOL    HW135370   4.336   2.399   1.617 -0.5017  0.1798  1.2406
41215SOL    HW235371   4.359   2.253   1.648 -0.3807 -0.2257 -0.6280
41216SOL     OW35372   6.264   8.330   2.844 -0.0273  0.0918  0.3744
41216SOL    HW135373   6.357   8.329   2.869 -0.2736 -1.5533  1.3721
41216SOL    HW235374   6.239   8.237   2.844 -1.3152  0.3924 -1.3356
41217SOL     OW35375   0.386   3.880  11.699 -0.2754 -0.1013 -0.0807
41217SOL    HW135376   0.441   3.955  11.675 -0.0394  0.2365  1.4026
41217SOL    HW235377   0.448   3.807  11.704 -0.3104 -0.1538 -0.4009
41218SOL     OW35378   1.265   2.573  11.697 -0.2326  0.1672  0.3082
41218SOL    HW135379   1.239   2.481  11.696 -0.8980  0.3594 -0.7753
41218SOL    HW235380   1.358   2.570  11.721  0.1025 -0.8808 -0.9990
41219SOL     OW35381   1.907  12.801   6.624 -0.4117  0.0022  0.0708
41219SOL    HW135382   1.850  12.864   6.581  1.8058  1.0829 -1.5035
41219SOL    HW235383   1.933  12.844   6.706 -2.0229 -0.6468  0.9735
41220SOL     OW35384  10.690   7.627  10.617 -0.1357 -0.8838 -0.4515
41220SOL    HW135385  10.660   7.653  10.704  1.9350  0.5709 -0.0964
41220SOL    HW235386  10.661   7.537  10.607 -3.1319 -0.1335  0.4424
41221SOL     OW35387   4.266   1.569   2.111 -0.2825  0.1703  0.2928
41221SOL    HW135388   4.293   1.494   2.163 -0.8248 -0.6320 -0.5547
41221SOL    HW235389   4.170   1.562   2.106 -0.3381  0.8906  0.1673
41222SOL     OW35390   6.655   7.528  13.571  0.3882 -0.1040  0.1421
41222SOL    HW135391   6.597   7.569  13.636 -0.0915  0.6019 -0.7140
41222SOL    HW235392   6.597   7.473  13.519  0.9148 -1.3610  0.8301
41223SOL     OW35393  11.121   0.381   8.656  0.2030  0.1417  0.4587
41223SOL    HW135394  11.090   0.395   8.746 -0.9997 -1.6041  0.3716
41223SOL    HW235395  11.126   0.286   8.647  2.5193  0.2985 -0.6423
41224SOL     OW35396  12.815   3.417   6.748 -0.0884 -0.1374 -0.1386
41224SOL    HW135397  12.763   3.337   6.737  0.0770 -0.1284 -1.0378
41224SOL    HW235398  12.823   3.453   6.660  2.0844 -0.5570 -0.1853
41225SOL     OW35399   9.407  11.918   5.175 -0.3285  0.2879  0.3346
41225SOL    HW135400   9.462  11.852   5.217 -2.4748 -1.0687  1.1834
41225SOL    HW235401   9.469  11.979   5.135  1.7539 -1.3649  0.8668
41226SOL     OW35402  11.419   1.618   2.538  0.0594  0.5090  0.3113
41226SOL    HW135403  11.513   1.603   2.554 -0.0629 -0.9403 -0.2348
41226SOL    HW235404  11.379   1.532   2.550 -1.1856  1.0761  0.3167
41227SOL     OW35405   8.902  10.307   9.000 -0.0884  0.3934  0.1510
41227SOL    HW135406   8.943  10.355   9.072  0.7523 -1.5557  1.0405
41227SOL    HW235407   8.851  10.238   9.043 -0.7550  0.0778 -1.1001
41228SOL     OW35408   8.964   0.528   5.704  0.0540 -0.6724 -0.1879
41228SOL    HW135409   9.019   0.593   5.748  0.5019  0.2479 -1.9971
41228SOL    HW235410   9.014   0.446   5.711  1.9115  0.2045 -2.0776
41229SOL     OW35411   8.067   6.694   6.859 -0.1948 -0.0703  0.3014
41229SOL    HW135412   8.029   6.607   6.864 -0.1875 -0.1992 -1.3438
41229SOL    HW235413   7.995   6.750   6.827 -0.1679  0.5067  1.2292
41230SOL     OW35414   6.857   8.385  12.096  0.6283  0.0651 -0.1881
41230SOL    HW135415   6.795   8.314  12.078  2.5591 -2.3953  1.9925
41230SOL    HW235416   6.803   8.458  12.125 -1.4958 -0.1900 -3.1048
41231SOL     OW35417  11.488   5.475   9.462  0.2916 -0.0456 -0.1151
41231SOL    HW135418  11.393   5.466   9.474  0.0018  0.5242 -1.7470
41231SOL    HW235419  11.520   5.506   9.546 -0.7248 -1.8433  0.9972
41232SOL     OW35420   5.796   0.457   8.007 -0.0396  0.0737  0.9795
41232SOL    HW135421   5.861   0.396   7.973 -0.0324 -0.0219  1.1667
41232SOL    HW235422   5.717   0.405   8.020 -1.7051  0.9629 -3.5971
41233SOL     OW35423   2.369   4.890   5.923  0.5163 -0.3166 -0.3824
41233SOL    HW135424   2.319   4.817   5.885 -0.4735 -0.7770  1.6634
41233SOL    HW235425   2.328   4.905   6.008  1.8748  1.4466  0.0120
41234SOL     OW35426   5.359   8.085   7.640  0.3753  0.1021 -0.3491
41234SOL    HW135427   5.327   7.998   7.616 -1.9680  0.6171  0.5733
41234SOL    HW235428   5.440   8.096   7.591 -0.2248 -1.8757 -1.8936
41235SOL     OW35429  13.287   2.994   4.643 -0.5811 -0.0518 -0.0167
41235SOL    HW135430  13.342   3.068   4.668 -0.5916  0.1134 -0.4726
41235SOL    HW235431  13.333   2.918   4.677  0.7718 -0.0674 -1.7387
41236SOL     OW35432  12.677   2.978  11.767 -0.6576  0.2906  0.0950
41236SOL    HW135433  12.612   2.945  11.829  0.5096  0.2712  1.3513
41236SOL    HW235434  12.758   2.931  11.790 -0.1672  0.3785 -1.3733
41237SOL     OW35435  13.698  13.382   4.292  0.3996 -0.0102 -0.2027
41237SOL    HW135436  13.749  13.441   4.235 -0.2318  1.6614  0.8760
41237SOL    HW235437  13.621  13.434   4.317 -1.4374 -2.1524 -1.0753
41238SOL     OW35438   4.782   0.209   0.349 -0.4618  0.3004 -0.2658
41238SOL    HW135439   4.821   0.177   0.431  0.1011  1.6728  0.0424
41238SOL    HW235440   4.737   0.133   0.312  2.0504 -1.2637 -0.3696
41239SOL     OW35441   1.601   8.631   7.465  0.1810  0.1901 -0.2961
41239SOL    HW135442   1.576   8.545   7.432 -0.3675 -0.0106  0.6441
41239SOL    HW235443   1.609   8.685   7.386 -1.4306 -0.2012 -0.7605
41240SOL     OW35444   0.143   8.867   8.641 -0.8661 -0.2766  0.9705
41240SOL    HW135445   0.069   8.889   8.698  0.3181  1.8134  1.8227
41240SOL    HW235446   0.117   8.899   8.555  0.0630  3.1622  1.8217
41241SOL     OW35447  10.756   5.198   2.201 -0.5773  0.2439  0.0160
41241SOL    HW135448  10.699   5.135   2.246 -1.8355  0.8631 -0.6611
41241SOL    HW235449  10.822   5.221   2.267 -0.2945 -1.4752  0.4019
41242SOL     OW35450   8.535  12.436   1.178  0.9308 -0.1821  1.0304
41242SOL    HW135451   8.558  12.512   1.231 -0.0205  1.6252 -0.9823
41242SOL    HW235452   8.502  12.473   1.096  1.9502 -2.8112 -0.6969
41243SOL     OW35453   2.355   3.757   0.119  0.3205 -0.2764  0.0475
41243SOL    HW135454   2.312   3.676   0.145  0.2892 -0.1039  0.5402
41243SOL    HW235455   2.447   3.744   0.144  0.6495 -0.7833 -1.3160
41244SOL     OW35456   7.363   8.526  12.643 -0.7628  0.7731  0.0357
41244SOL    HW135457   7.291   8.514  12.704  1.3212 -1.7562  2.2655
41244SOL    HW235458   7.409   8.604  12.674 -1.2059  1.0218  0.0626
41245SOL     OW35459   4.605   4.903   8.723 -0.0306 -0.4933 -0.2111
41245SOL    HW135460   4.575   4.812   8.724 -0.4561 -0.3774  1.7360
41245SOL    HW235461   4.616   4.926   8.815  0.4039  1.3348 -0.6715
41246SOL     OW35462   1.761   3.052   9.218  0.3148  0.1905  0.3455
41246SOL    HW135463   1.840   3.094   9.183  0.2803  0.1576  0.2280
41246SOL    HW235464   1.689   3.091   9.168  0.3516 -0.6852 -0.4190
41247SOL     OW35465  10.036   8.412   1.520 -0.2025  0.3125  0.4644
41247SOL    HW135466  10.098   8.394   1.591 -0.9671  1.0815  1.3469
41247SOL    HW235467  10.085   8.469   1.460  0.4211 -0.2778  0.3904
41248SOL     OW35468   1.558   7.428   7.740  0.0674 -0.6025 -0.4157
41248SOL    HW135469   1.508   7.508   7.726 -1.9154 -1.5156  0.9862
41248SOL    HW235470   1.627   7.453   7.802  0.4697  0.3230 -1.1984
41249SOL     OW35471   7.628  13.529   0.398 -0.2602 -0.4454  0.1591
41249SOL    HW135472   7.688  13.494   0.463  0.1444  0.4325  0.2773
41249SOL    HW235473   7.553  13.470   0.399  0.4282 -1.3285  0.2910
41250SOL     OW35474   7.614   9.680  10.857  0.0212  0.2913 -0.1469
41250SOL    HW135475   7.609   9.670  10.762  1.6531 -1.9069 -0.0710
41250SOL    HW235476   7.563   9.606  10.891 -0.1832  0.8073  0.6905
41251SOL     OW35477   4.052   5.230   1.892 -0.5038 -0.0789  0.2674
41251SOL    HW135478   4.074   5.300   1.832 -0.8904  1.2680  1.6320
41251SOL    HW235479   4.054   5.271   1.979 -0.8871 -1.7168  1.1011
41252SOL     OW35480   3.653   0.180   6.722  0.3214  0.5191  0.9611
41252SOL    HW135481   3.620   0.151   6.807 -0.3701 -0.3347  0.4241
41252SOL    HW235482   3.747   0.190   6.735  0.1755  0.7257  1.9125
41253SOL     OW35483   7.273   7.903  13.534 -0.2283 -0.4297  0.7534
41253SOL    HW135484   7.281   7.952  13.453 -1.4105 -0.0108  0.8764
41253SOL    HW235485   7.302   7.964  13.602  0.9880 -0.8565  0.6546
41254SOL     OW35486   8.416  12.412   3.209 -0.2307 -0.2401  0.2041
41254SOL    HW135487   8.430  12.429   3.116  2.8437  2.3560  0.9753
41254SOL    HW235488   8.344  12.471   3.233  0.8439  1.2484 -0.0569
41255SOL     OW35489  10.781  10.648   0.497 -0.5649  0.5543 -0.2839
41255SOL    HW135490  10.707  10.593   0.521 -0.6952  0.5506 -0.6795
41255SOL    HW235491  10.801  10.622   0.407  0.0257  0.4348 -0.1221
41256SOL     OW35492   8.672  12.988  12.503  0.1663  0.3917 -0.3160
41256SOL    HW135493   8.639  13.054  12.442  1.4077 -0.1769 -1.6442
41256SOL    HW235494   8.593  12.944  12.536 -0.5283  0.7899 -1.4116
41257SOL     OW35495  11.811   0.362   6.821  0.4032 -0.1358  0.1721
41257SOL    HW135496  11.755   0.286   6.804 -1.6353  1.4375 -0.6057
41257SOL    HW235497  11.888   0.348   6.766 -1.2112 -0.3148 -2.1783
41258SOL     OW35498   7.282   9.766   9.094  0.3870 -0.0171  0.5292
41258SOL    HW135499   7.322   9.681   9.114 -1.5983 -0.8069  1.4174
41258SOL    HW235500   7.235   9.790   9.174 -0.8867  0.8401 -0.4388
41259SOL     OW35501   1.432  10.249   3.351 -0.5443 -0.0884  0.2999
41259SOL    HW135502   1.462  10.182   3.412  2.9830  0.9282 -0.0644
41259SOL    HW235503   1.435  10.331   3.401 -1.1823  0.2758 -0.2362
41260SOL     OW35504   2.374   3.137   2.273  0.6623 -0.1901  0.0561
41260SOL    HW135505   2.377   3.073   2.202 -0.5665  1.7667 -1.8787
41260SOL    HW235506   2.431   3.209   2.243  0.8273  0.3044  1.4734
41261SOL     OW35507   5.427  10.240   4.439 -0.1923  0.9534 -0.4843
41261SOL    HW135508   5.450  10.149   4.458  1.1047  0.8422 -2.2614
41261SOL    HW235509   5.334  10.238   4.420 -0.0052 -0.2185 -1.4091
41262SOL     OW35510  11.459  12.071   2.421  0.0409  0.0525 -0.0308
41262SOL    HW135511  11.430  12.049   2.333 -0.6592 -0.6041  0.3565
41262SOL    HW235512  11.398  12.138   2.451  0.1450  0.1155  0.0451
41263SOL     OW35513  12.042   3.105  10.219  0.1849 -0.4477 -0.0124
41263SOL    HW135514  11.975   3.149  10.271  0.2222  0.4352 -0.6648
41263SOL    HW235515  12.125   3.137  10.255  0.2357 -0.7227  0.1176
41264SOL     OW35516  11.416   7.722  13.262 -1.0187  0.2245 -0.2295
41264SOL    HW135517  11.364   7.668  13.202 -0.3626 -1.8759  1.0083
41264SOL    HW235518  11.501   7.731  13.219 -0.5375 -1.3109  0.3306
41265SOL     OW35519   1.599   5.129   1.283  1.0703 -0.3493 -0.4372
41265SOL    HW135520   1.646   5.050   1.310  0.8674 -0.0002  1.0562
41265SOL    HW235521   1.629   5.146   1.194  1.1436 -2.0754 -0.7679
41266SOL     OW35522  13.111   1.352   7.809 -0.1628  0.0355 -0.2526
41266SOL    HW135523  13.169   1.400   7.869 -1.9015  1.3176  0.5191
41266SOL    HW235524  13.155   1.269   7.793  1.0437  0.2439  1.6944
41267SOL     OW35525  12.183   7.923   5.071 -0.7756  0.0629  0.1284
41267SOL    HW135526  12.246   7.857   5.041  0.3567  1.2432 -0.2005
41267SOL    HW235527  12.116   7.925   5.003 -0.3942 -0.1904 -0.2634
41268SOL     OW35528   0.840   5.184  11.029 -0.5465  0.1328 -0.4372
41268SOL    HW135529   0.806   5.187  10.939 -1.0114 -0.2628 -0.2803
41268SOL    HW235530   0.761   5.182  11.083 -0.3595 -3.1678 -0.1253
41269SOL     OW35531  10.201   3.984  12.236 -0.2139 -0.3669  0.4167
41269SOL    HW135532  10.233   3.984  12.146 -0.6766 -0.2111  0.2480
41269SOL    HW235533  10.229   4.068  12.272  0.5472 -0.7049  0.6329
41270SOL     OW35534  11.893   5.894  11.111  0.5188 -0.3538  0.1913
41270SOL    HW135535  11.934   5.811  11.136  1.2037 -0.1217 -0.1154
41270SOL    HW235536  11.909   5.952  11.186  0.1383 -0.4668  0.3595
41271SOL     OW35537   2.543  10.899  11.212  0.0115  0.1152 -0.2473
41271SOL    HW135538   2.617  10.872  11.266  0.9661  1.0539 -1.0292
41271SOL    HW235539   2.466  10.888  11.268  0.8402 -0.0456  0.8883
41272SOL     OW35540  11.828  12.029  11.751 -0.1815  0.4218  0.6197
41272SOL    HW135541  11.912  12.072  11.762  1.0822 -1.5452 -0.7118
41272SOL    HW235542  11.841  11.941  11.786 -1.5623 -0.0553  0.0279
41273SOL     OW35543  13.555   9.097   3.373  0.6655  0.1111 -0.2893
41273SOL    HW135544  13.641   9.055   3.366  1.8502  2.3287  0.1957
41273SOL    HW235545  13.565   9.179   3.325 -1.0983  0.5431  0.0434
41274SOL     OW35546   2.372   6.203  13.111  0.0682  0.4996 -0.4299
41274SOL    HW135547   2.425   6.254  13.173 -1.0556 -0.6536  1.5698
41274SOL    HW235548   2.432   6.185  13.039  2.2665 -0.2282  1.4402
41275SOL     OW35549  12.184   4.422   9.575  0.0831 -0.5212  0.0541
41275SOL    HW135550  12.252   4.369   9.534  0.3670 -1.0817  1.2091
41275SOL    HW235551  12.190   4.507   9.531  1.0918 -0.7640 -0.3042
41276SOL     OW35552   4.169   5.643   4.239 -0.3578 -0.1185  0.3940
41276SOL    HW135553   4.240   5.594   4.282  0.0215  0.4252  0.4003
41276SOL    HW235554   4.091   5.591   4.255 -0.2637  0.1419  1.8835
41277SOL     OW35555  12.711   0.774   4.724 -0.3188 -0.5388 -0.0660
41277SOL    HW135556  12.667   0.771   4.639  1.3158 -1.8642 -0.9118
41277SOL    HW235557  12.792   0.822   4.708 -0.4080  0.0162  0.9879
41278SOL     OW35558   2.527  13.744   9.506  0.6377  0.1872  0.0226
41278SOL    HW135559   2.538  13.768   9.599  1.3098 -1.0271  0.2686
41278SOL    HW235560   2.616  13.742   9.471  0.4646 -0.3680 -0.3947
41279SOL     OW35561   6.380   8.628  11.911  0.4456  0.1883 -0.1125
41279SOL    HW135562   6.366   8.721  11.930  0.9780  0.3716 -0.6112
41279SOL    HW235563   6.426   8.626  11.828  1.4982 -0.4791  0.4638
41280SOL     OW35564   3.165   1.838  13.233 -0.3449  0.3270 -0.0689
41280SOL    HW135565   3.077   1.833  13.195  0.1426  2.8921 -1.8166
41280SOL    HW235566   3.203   1.752  13.215 -1.8137 -0.1484 -1.1457
41281SOL     OW35567   4.414   7.406  13.414  0.5213  0.0577 -0.0005
41281SOL    HW135568   4.484   7.370  13.360  1.6520  1.8176  0.2001
41281SOL    HW235569   4.362   7.460  13.354  0.4984  0.2950  0.2282
41282SOL     OW35570   9.708   9.870   6.726  0.3312 -0.4477  0.1929
41282SOL    HW135571   9.788   9.900   6.769  1.2268  0.1241 -1.7372
41282SOL    HW235572   9.648   9.945   6.731 -0.1873 -0.9393  1.8005
41283SOL     OW35573  12.616   1.240   9.934  0.2108  0.5648 -0.7423
41283SOL    HW135574  12.583   1.329   9.933  0.1294  0.5838  0.7807
41283SOL    HW235575  12.594   1.207  10.021 -0.0645 -1.0633 -1.3901
41284SOL     OW35576   9.214   0.642  10.120  0.4571 -0.2983  0.7098
41284SOL    HW135577   9.183   0.555  10.093 -1.2337  0.0565  1.4285
41284SOL    HW235578   9.146   0.675  10.178  2.1297  0.6152  2.2451
41285SOL     OW35579   6.196   0.969   7.259  0.6999 -0.2953 -0.4260
41285SOL    HW135580   6.187   0.881   7.296  1.0352 -0.5048 -0.8305
41285SOL    HW235581   6.142   0.968   7.180 -1.0559  0.5616  0.7199
41286SOL     OW35582   6.123   3.908  12.617 -0.1394 -0.1405  0.1557
41286SOL    HW135583   6.140   3.967  12.690 -1.3940 -0.0848  0.4270
41286SOL    HW235584   6.045   3.945  12.574  0.9857  0.2457 -1.6722
41287SOL     OW35585  13.692  10.725   7.322  0.2906 -0.9362 -0.6310
41287SOL    HW135586  13.600  10.747   7.336  0.5219 -1.0003  1.3896
41287SOL    HW235587  13.719  10.683   7.404  1.9136 -1.6482 -1.4798
41288SOL     OW35588   7.088  11.959  13.471 -0.3254 -0.3063  0.3836
41288SOL    HW135589   7.058  11.893  13.535  0.8412 -1.8936 -0.6315
41288SOL    HW235590   7.031  12.035  13.487 -1.5268 -1.4305  1.8109
41289SOL     OW35591   2.032   4.949  13.311  0.0273  0.1518  0.9055
41289SOL    HW135592   1.987   4.930  13.393 -0.6145  0.5081  0.6451
41289SOL    HW235593   2.070   4.866  13.284 -0.2129 -0.0841  1.2911
41290SOL     OW35594   0.363  12.787   9.755  0.2911  0.0714 -0.4248
41290SOL    HW135595   0.437  12.746   9.708 -1.0766 -0.7062 -2.0206
41290SOL    HW235596   0.373  12.880   9.738  0.2107 -0.1358 -1.7614
41291SOL     OW35597   9.462  12.772  11.817  0.6159  0.0073  0.0410
41291SOL    HW135598   9.513  12.759  11.897  1.3694  1.2268 -0.2269
41291SOL    HW235599   9.384  12.819  11.846  0.7441  0.1831  0.0985
41292SOL     OW35600   5.376   5.214   8.328 -0.0936 -0.0850 -0.1370
41292SOL    HW135601   5.412   5.129   8.301 -0.8816 -0.1236 -1.1362
41292SOL    HW235602   5.452   5.273   8.329  0.1066 -0.2321 -1.9187
41293SOL     OW35603  13.596  11.822   2.425 -0.5446 -0.3475  0.1351
41293SOL    HW135604  13.646  11.797   2.347  0.6867 -0.6420  0.9967
41293SOL    HW235605  13.600  11.918   2.426  2.1845 -0.3970  1.5183
41294SOL     OW35606   1.823  11.533  11.655  0.5142  0.1152  0.6485
41294SOL    HW135607   1.882  11.547  11.581  0.5862 -1.0938  0.4582
41294SOL    HW235608   1.735  11.539  11.616  0.4944  1.6644  0.8863
41295SOL     OW35609  12.022   0.114   8.666  0.1631 -0.2384  0.3003
41295SOL    HW135610  12.112   0.117   8.634  0.2985 -0.6665  0.6294
41295SOL    HW235611  12.012   0.025   8.700 -0.6948 -0.5157 -0.6353
41296SOL     OW35612   7.375   5.767   7.642 -0.1305 -0.3347 -0.2357
41296SOL    HW135613   7.410   5.823   7.573 -1.3514 -1.1315 -1.5399
41296SOL    HW235614   7.407   5.679   7.620  1.4022 -0.2970  1.5475
41297SOL     OW35615   7.004   0.128   3.242 -0.4047  0.3477 -0.0779
41297SOL    HW135616   6.925   0.149   3.192 -0.5261  0.0989  0.0038
41297SOL    HW235617   7.052   0.067   3.186 -2.9630 -4.1844  2.0077
41298SOL     OW35618  13.709  12.377  11.060  0.0094  0.0727 -0.0361
41298SOL    HW135619  13.759  12.388  10.979  0.2891  0.5319  0.1967
41298SOL    HW235620  13.746  12.441  11.120 -1.2976  0.9085 -0.0712
41299SOL     OW35621   0.507  11.064   1.633 -0.2049  0.1072 -0.7135
41299SOL    HW135622   0.583  11.082   1.578  1.1577  0.5249  1.1811
41299SOL    HW235623   0.536  11.088   1.721 -2.3700 -0.2587  0.1540
41300SOL     OW35624   2.155   6.456   9.610  0.2073  0.0014 -0.9418
41300SOL    HW135625   2.133   6.398   9.682 -2.2783 -1.6678 -2.8708
41300SOL    HW235626   2.104   6.535   9.626  1.2680  0.5117  0.1176
41301SOL     OW35627   4.414   0.734  11.523  0.1273  0.1160  0.0232
41301SOL    HW135628   4.396   0.711  11.614  1.0690  0.1341  0.2250
41301SOL    HW235629   4.452   0.822  11.527 -0.3390  0.3466 -0.4411
41302SOL     OW35630   9.493   1.690  12.721  0.4202  0.0016  0.0415
41302SOL    HW135631   9.479   1.781  12.747  0.3937 -0.4387  1.7276
41302SOL    HW235632   9.523   1.647  12.801  0.9726 -1.3673 -0.8565
41303SOL     OW35633   5.602   0.403  11.984  0.3659 -0.1925  0.0033
41303SOL    HW135634   5.693   0.433  11.987  0.1613  0.4328  0.0168
41303SOL    HW235635   5.579   0.388  12.075 -0.2894  1.9492  0.2345
41304SOL     OW35636   0.390   5.578   1.128 -0.4515 -0.4740 -0.2604
41304SOL    HW135637   0.324   5.637   1.092 -0.2403 -0.0738 -0.0029
41304SOL    HW235638   0.454   5.569   1.057  1.0511  1.9783  0.6506
41305SOL     OW35639   6.888  11.227   6.993  0.2448 -0.3875 -0.0497
41305SOL    HW135640   6.881  11.167   7.067 -2.4966 -1.1113 -0.7864
41305SOL    HW235641   6.919  11.173   6.920 -1.7175 -0.8665 -0.5806
41306SOL     OW35642  12.328  13.312   8.450  0.1157 -0.2538  0.2575
41306SOL    HW135643  12.413  13.354   8.458  0.4305 -1.0756  1.6158
41306SOL    HW235644  12.343  13.237   8.393  0.5142 -0.8430  1.1041
41307SOL     OW35645   6.319   8.637  10.080  0.0160 -0.4831 -0.4560
41307SOL    HW135646   6.381   8.661  10.011  1.0446  0.4480  0.7506
41307SOL    HW235647   6.374   8.617  10.156 -1.1503 -0.0152  0.5413
41308SOL     OW35648   9.546   9.538   8.576 -0.4868  0.0579  0.1582
41308SOL    HW135649   9.590   9.457   8.600 -0.3145 -0.1951 -0.9597
41308SOL    HW235650   9.535   9.585   8.658 -1.4180 -1.4972  0.9660
41309SOL     OW35651  12.071   8.927   5.798 -0.5703 -0.3646  0.0831
41309SOL    HW135652  12.080   8.915   5.703 -1.9404 -0.3708 -0.0753
41309SOL    HW235653  12.099   9.017   5.814 -0.0209 -0.4640 -0.2690
41310SOL     OW35654   1.098   7.152   1.820  0.1913 -0.0590 -0.0637
41310SOL    HW135655   1.117   7.186   1.732  1.0143  0.4153  0.2862
41310SOL    HW235656   1.024   7.093   1.807 -0.6393  1.1086 -0.8618
41311SOL     OW35657   1.869   5.470   0.894 -0.3837  0.0643  0.1657
41311SOL    HW135658   1.925   5.507   0.961 -0.4063  1.0140 -0.3200
41311SOL    HW235659   1.888   5.522   0.815 -1.1285 -0.3181 -0.2813
41312SOL     OW35660   9.167   1.028   1.707  0.7401  0.5239  0.0073
41312SOL    HW135661   9.257   0.995   1.704  0.6586  0.3752 -2.1413
41312SOL    HW235662   9.154   1.069   1.622 -1.0798  0.9577  0.4683
41313SOL     OW35663  13.452   2.943   5.343  0.2020 -1.1659 -1.0732
41313SOL    HW135664  13.407   3.005   5.285  0.4483 -0.9649 -1.0512
41313SOL    HW235665  13.443   2.858   5.299 -0.8990 -1.2665 -0.6731
41314SOL     OW35666   0.619   3.117  13.460  0.2717  0.0274 -0.3142
41314SOL    HW135667   0.529   3.085  13.460 -0.1645  1.0828 -2.2088
41314SOL    HW235668   0.654   3.091  13.544 -2.5224  1.5369  1.4746
41315SOL     OW35669   7.499   8.035   9.710  0.0441  0.4300 -0.0574
41315SOL    HW135670   7.468   8.059   9.797 -1.2581  0.8049 -0.5914
41315SOL    HW235671   7.469   7.945   9.698 -0.8329  0.7806 -0.5647
41316SOL     OW35672   8.007   9.807   0.773 -0.2659  0.1466 -0.3559
41316SOL    HW135673   8.082   9.860   0.801  0.4967 -0.1814 -1.7195
41316SOL    HW235674   8.046   9.731   0.731 -1.3640 -1.1846  0.9280
41317SOL     OW35675   3.944  13.247  13.689 -0.1472 -0.1935  0.3829
41317SOL    HW135676   3.962  13.186  13.761  0.3993  0.7602  1.0794
41317SOL    HW235677   4.028  13.291  13.673 -0.2458 -0.4416 -0.8994
41318SOL     OW35678   4.798   0.172   6.173 -0.0682 -0.2441  0.5524
41318SOL    HW135679   4.772   0.138   6.087  0.1213 -0.6785  0.6634
41318SOL    HW235680   4.746   0.251   6.184 -0.1154 -0.2009  0.0486
41319SOL     OW35681   2.827   7.083  11.893 -0.3850  0.3989 -0.2020
41319SOL    HW135682   2.752   7.045  11.849  0.9589  0.2957 -2.5532
41319SOL    HW235683   2.836   7.171  11.855  1.0486  0.1620 -0.4836
41320SOL     OW35684   8.302   7.851   9.857  0.6429  0.4054  0.1814
41320SOL    HW135685   8.329   7.829   9.768  0.4179  0.1591  0.1732
41320SOL    HW235686   8.231   7.791   9.876 -0.7714  1.8699 -0.2656
41321SOL     OW35687  12.910  10.782   6.270 -0.0340 -0.8345 -0.4688
41321SOL    HW135688  12.826  10.770   6.225 -0.1460 -0.0113 -0.4903
41321SOL    HW235689  12.895  10.745   6.358 -0.3972 -0.7474 -0.4922
41322SOL     OW35690   1.614   3.645   7.730  0.3953 -0.6979  0.0714
41322SOL    HW135691   1.592   3.738   7.740  0.5084 -0.6997  0.3789
41322SOL    HW235692   1.538   3.598   7.766  1.0584 -0.6991  1.5506
41323SOL     OW35693  11.775   4.341   9.921  0.0257 -0.1551 -0.5649
41323SOL    HW135694  11.760   4.435   9.916  3.0548  0.3769 -2.2574
41323SOL    HW235695  11.705   4.308   9.979 -0.2338  3.3062  1.3621
41324SOL     OW35696   0.845   0.496   2.482 -0.6104 -0.2712 -0.2747
41324SOL    HW135697   0.772   0.522   2.426 -0.8349  2.0557  0.9603
41324SOL    HW235698   0.804   0.442   2.550 -1.3209  1.3070  0.6130
41325SOL     OW35699  13.216   0.778   2.042  0.5723 -0.3104 -0.7268
41325SOL    HW135700  13.179   0.729   2.116  1.1434  0.2841 -0.0219
41325SOL    HW235701  13.310   0.776   2.057  0.6943 -0.1600 -1.4340
41326SOL     OW35702   0.564   8.173   5.130 -0.2094  0.4724 -0.0529
41326SOL    HW135703   0.589   8.082   5.142  1.1909  1.1269  3.0391
41326SOL    HW235704   0.557   8.184   5.035 -0.7915 -2.8767 -0.5322
41327SOL     OW35705  12.625  13.646   1.014 -0.7389 -0.3073 -0.0207
41327SOL    HW135706  12.619  13.614   1.104  0.7181 -0.8241 -0.0890
41327SOL    HW235707  12.628  13.742   1.023 -0.2827 -0.3650  0.5011
41328SOL     OW35708   6.947  13.637  11.065 -0.4291  0.2011 -0.1560
41328SOL    HW135709   6.967  13.563  11.008 -0.5905  0.4332 -0.5223
41328SOL    HW235710   6.907  13.598  11.143 -3.7921  0.0690 -1.7723
41329SOL     OW35711   1.684   0.692   2.901  0.4656 -0.7469  0.0521
41329SOL    HW135712   1.695   0.701   2.996  0.1909  1.5701 -0.0596
41329SOL    HW235713   1.769   0.718   2.865  0.0320  0.1579 -0.3527
41330SOL     OW35714   7.357  10.800   3.477 -0.4200  0.2446  0.2676
41330SOL    HW135715   7.265  10.787   3.452  0.2090  0.3441 -2.3974
41330SOL    HW235716   7.376  10.890   3.450  0.1876  0.6362  1.8748
41331SOL     OW35717  11.561   0.161   3.915 -0.3129  0.1913  0.0140
41331SOL    HW135718  11.640   0.214   3.919 -0.9898  1.2500 -0.1302
41331SOL    HW235719  11.490   0.225   3.904 -1.1066 -0.7737 -0.6920
41332SOL     OW35720  12.748   7.579   7.413 -0.3040 -0.2183  0.3071
41332SOL    HW135721  12.707   7.510   7.466 -3.1904  2.1265  1.3991
41332SOL    HW235722  12.684   7.598   7.344 -0.8994  3.0097  1.5605
41333SOL     OW35723   6.691   4.709   8.154 -0.1433 -0.2127 -0.1520
41333SOL    HW135724   6.763   4.723   8.215  0.4641 -0.7232 -0.7276
41333SOL    HW235725   6.662   4.619   8.172  1.2441 -1.0499 -1.8007
41334SOL     OW35726   2.906   4.446  13.719  0.4975 -0.0961 -0.5063
41334SOL    HW135727   2.846   4.408  13.783  1.0744 -0.3428 -0.1006
41334SOL    HW235728   2.973   4.489  13.772  1.1541 -0.5756 -0.9340
41335SOL     OW35729   0.515  13.581   0.802  0.2815  0.0529  0.4880
41335SOL    HW135730   0.445  13.552   0.860 -0.3858 -1.0405 -0.8072
41335SOL    HW235731   0.480  13.568   0.714  1.4908  1.0900 -0.1751
41336SOL     OW35732   5.902   8.379   9.908 -0.3282 -0.4187 -0.0176
41336SOL    HW135733   5.979   8.426   9.938 -0.8398  0.0959  0.5201
41336SOL    HW235734   5.878   8.322   9.981  0.7601 -2.1597 -0.9553
41337SOL     OW35735  10.075  12.433   7.135  0.5566  0.0599 -0.1226
41337SOL    HW135736  10.133  12.500   7.172  1.5937 -2.0027  2.2587
41337SOL    HW235737  10.085  12.358   7.193 -3.7723 -0.8060 -0.1713
41338SOL     OW35738   5.997   9.522   7.629 -0.0149 -0.7637  0.0310
41338SOL    HW135739   6.002   9.426   7.627 -2.7838 -1.0393  1.0735
41338SOL    HW235740   6.088   9.551   7.638  0.9262 -3.2552 -0.6580
41339SOL     OW35741   3.777  11.161   9.462  0.2176 -0.1372  0.3836
41339SOL    HW135742   3.773  11.253   9.437  0.9232  0.1115  1.1521
41339SOL    HW235743   3.688  11.129   9.449 -0.1515  0.7784  0.5565
41340SOL     OW35744   0.493   7.786   6.988  0.4685  0.2228  0.4448
41340SOL    HW135745   0.546   7.707   6.980  0.9884  0.5219  0.9151
41340SOL    HW235746   0.552   7.858   6.965 -0.1415  0.4424 -0.4853
41341SOL     OW35747   7.853  12.793  11.415  0.7901 -1.1624 -0.4695
41341SOL    HW135748   7.796  12.726  11.452  1.0383 -0.1505  1.9557
41341SOL    HW235749   7.937  12.748  11.402  0.9156 -1.3859  0.9929
41342SOL     OW35750   9.233   2.750   4.444 -0.1503  0.5500  0.5016
41342SOL    HW135751   9.304   2.717   4.500  0.0671 -1.1495 -0.6950
41342SOL    HW235752   9.276   2.816   4.389  0.3235  0.1141  0.3382
41343SOL     OW35753   9.148   9.316   2.621  0.6280  0.4230 -0.5042
41343SOL    HW135754   9.204   9.240   2.633 -1.0642 -0.7971  0.0999
41343SOL    HW235755   9.133   9.349   2.710  1.4842  1.6113 -0.7686
41344SOL     OW35756   3.970   5.948  12.977  0.1962 -0.1803  0.0877
41344SOL    HW135757   3.959   5.895  13.056 -0.5032 -1.3328 -0.7407
41344SOL    HW235758   3.881   5.973  12.952  0.0879 -2.2066 -1.8600
41345SOL     OW35759   6.796   9.456  11.792  0.6205 -0.1778  0.0839
41345SOL    HW135760   6.735   9.524  11.820  0.7712  0.0169 -0.0549
41345SOL    HW235761   6.774   9.440  11.700  1.5781  0.7778 -0.3332
41346SOL     OW35762   9.407   2.539   2.248  0.4602 -0.5455  0.0221
41346SOL    HW135763   9.417   2.629   2.217 -1.5941 -0.6383 -1.0177
41346SOL    HW235764   9.486   2.524   2.300  1.9027  1.1197 -1.5248
41347SOL     OW35765  12.534   7.561  10.944  0.2220  0.0586 -0.3319
41347SOL    HW135766  12.550   7.480  10.894  1.6078  1.9134 -3.1592
41347SOL    HW235767  12.622   7.595  10.963 -0.3416  1.4128 -0.0694
41348SOL     OW35768   5.295   5.266  12.296  0.4216  0.7732  0.1710
41348SOL    HW135769   5.248   5.195  12.252  0.3139  0.6572  0.4751
41348SOL    HW235770   5.303   5.237  12.387  0.5232  1.0770  0.2598
41349SOL     OW35771   8.930   0.294   6.320  0.1512 -0.3229  0.0624
41349SOL    HW135772   8.909   0.387   6.330  0.3649 -0.3186  0.5129
41349SOL    HW235773   8.853   0.248   6.354 -1.0926 -0.3549 -2.5151
41350SOL     OW35774   1.281   6.164   5.560  0.0763  0.5524 -0.0515
41350SOL    HW135775   1.213   6.106   5.593 -1.2223  2.3353  0.6060
41350SOL    HW235776   1.246   6.198   5.478  0.3436  1.1591  0.0757
41351SOL     OW35777   4.391   8.226   4.623  0.1303  0.7740  0.1929
41351SOL    HW135778   4.414   8.248   4.533  1.1164 -2.2109 -0.3820
41351SOL    HW235779   4.304   8.263   4.635 -1.1342 -0.8259 -2.8943
41352SOL     OW35780   0.233   5.390   2.745 -0.7361 -0.1714  0.3369
41352SOL    HW135781   0.150   5.359   2.709 -0.2711 -2.5623  1.0986
41352SOL    HW235782   0.211   5.424   2.831 -0.9029 -1.1971  0.7146
41353SOL     OW35783  11.015  11.599   2.872  0.2503 -0.3754 -0.0089
41353SOL    HW135784  11.006  11.671   2.935 -1.5479 -0.1077 -0.5054
41353SOL    HW235785  10.975  11.524   2.916 -4.4059  0.6175 -1.9573
41354SOL     OW35786   8.253  13.200   3.386  0.8769  0.3186  0.0210
41354SOL    HW135787   8.263  13.257   3.309 -1.1814  0.7235 -0.0141
41354SOL    HW235788   8.297  13.118   3.361  1.2830  0.8550 -1.1075
41355SOL     OW35789   9.663   5.198  10.224 -0.1383 -0.7750  0.0669
41355SOL    HW135790   9.643   5.133  10.292 -0.9020 -0.6130  0.0029
41355SOL    HW235791   9.660   5.282  10.270  1.9305 -0.8280  0.3937
41356SOL     OW35792  11.189   8.461   9.329  0.0435  0.3140 -0.0700
41356SOL    HW135793  11.211   8.530   9.392 -1.3825 -0.1200  0.9542
41356SOL    HW235794  11.130   8.403   9.377  1.1594 -1.6241 -0.9116
41357SOL     OW35795   6.775  11.078   8.425  0.0185  0.3190  0.2858
41357SOL    HW135796   6.711  11.132   8.472  0.4690 -0.9235  2.4501
41357SOL    HW235797   6.722  11.019   8.372 -0.5852  0.4046  0.7820
41358SOL     OW35798   0.425   9.607   8.088  0.1577  0.6149 -0.2674
41358SOL    HW135799   0.341   9.565   8.071  0.3752  0.3164 -0.6270
41358SOL    HW235800   0.468   9.610   8.002  0.5647  0.6537 -0.0651
41359SOL     OW35801  10.318   7.623   2.386  0.4886 -0.1459 -0.5521
41359SOL    HW135802  10.358   7.651   2.304 -1.3669  1.1445 -1.1044
41359SOL    HW235803  10.383   7.645   2.453  1.2918  0.5124 -1.5107
41360SOL     OW35804   3.758   0.228   3.297 -0.6652 -0.1701 -0.2329
41360SOL    HW135805   3.729   0.171   3.226  0.4788  1.3224 -1.9788
41360SOL    HW235806   3.814   0.172   3.351 -2.4771 -1.6417  0.2217
41361SOL     OW35807   4.087   5.974   0.625  0.3658  0.0463  0.1005
41361SOL    HW135808   4.012   6.030   0.647  0.1852 -0.7418  1.7049
41361SOL    HW235809   4.051   5.909   0.564 -0.2617 -0.2702  0.7876
41362SOL     OW35810   9.552   1.089  10.612  0.4144  0.0028 -0.5151
41362SOL    HW135811   9.554   1.000  10.648 -2.0481 -0.5592 -1.5438
41362SOL    HW235812   9.610   1.140  10.669  2.9500 -2.4695 -0.6523
41363SOL     OW35813   2.299   5.226  11.635  0.4258  0.2632 -0.8590
41363SOL    HW135814   2.263   5.291  11.575 -1.2011 -0.3209 -0.5521
41363SOL    HW235815   2.393   5.230  11.620  0.2376  1.6461 -1.8919
41364SOL     OW35816   3.391   3.513  11.228 -0.2158 -0.1218 -0.4114
41364SOL    HW135817   3.452   3.516  11.154 -1.8119  1.7868 -1.7902
41364SOL    HW235818   3.338   3.435  11.212  0.3253 -0.4777 -0.5050
41365SOL     OW35819   2.963   7.314   6.954  0.5071 -0.7122  0.0505
41365SOL    HW135820   2.877   7.349   6.932 -0.1110 -2.1039  0.1264
41365SOL    HW235821   3.019   7.339   6.881 -1.4251 -5.0391 -3.3665
41366SOL     OW35822   8.084   6.550   9.065 -0.2881 -0.5048 -0.4435
41366SOL    HW135823   8.043   6.609   9.002  0.0829 -0.2451 -0.4428
41366SOL    HW235824   8.050   6.578   9.150  0.6005  0.3123 -0.3480
41367SOL     OW35825   9.695  13.725  10.804  0.3102 -0.2170  0.2200
41367SOL    HW135826   9.667  13.769  10.884 -0.6944 -0.6639  0.1280
41367SOL    HW235827   9.790  13.716  10.813 -0.0496 -2.8904  2.7425
41368SOL     OW35828   1.168   9.256   0.139  0.2057  0.0079  0.3926
41368SOL    HW135829   1.234   9.288   0.199  1.0818 -0.9223 -0.0498
41368SOL    HW235830   1.158   9.163   0.160 -0.5799  0.0183  0.1120
41369SOL     OW35831   4.114   1.128   7.364 -0.0523 -0.1883  0.0208
41369SOL    HW135832   4.183   1.088   7.416 -0.1170 -0.3316 -0.0025
41369SOL    HW235833   4.060   1.175   7.428 -1.0654 -1.6927  0.3179
41370SOL     OW35834  11.391   4.452  13.580  0.0429 -0.3773  0.1431
41370SOL    HW135835  11.336   4.395  13.632 -0.4887  0.2014  0.2279
41370SOL    HW235836  11.427   4.396  13.511 -1.1643 -0.6256 -0.3053
41371SOL     OW35837   5.078  12.359   0.953  0.1302  0.1965  0.2618
41371SOL    HW135838   5.121  12.444   0.962 -0.4083  0.4482  0.4882
41371SOL    HW235839   4.997  12.378   0.905  0.3157 -0.2905 -0.2616
41372SOL     OW35840   3.349  12.334   4.648  0.1301 -0.9929  0.0630
41372SOL    HW135841   3.390  12.388   4.581  0.0295 -0.1290  0.6642
41372SOL    HW235842   3.292  12.274   4.600  0.7826 -1.0411 -0.6688
41373SOL     OW35843   3.815   9.574  10.003  0.4324 -0.5342 -0.5083
41373SOL    HW135844   3.885   9.594  10.064  0.1919 -1.9570  0.2750
41373SOL    HW235845   3.746   9.535  10.057 -0.8711  0.5917 -1.2913
41374SOL     OW35846   2.294   8.918   9.923 -0.0395  0.1232  0.0545
41374SOL    HW135847   2.313   8.859   9.996 -1.3453  1.0839  1.2567
41374SOL    HW235848   2.219   8.879   9.879 -0.1603  0.2686  0.1278
41375SOL     OW35849   6.465  11.974  13.093 -0.3356 -0.1193 -0.0234
41375SOL    HW135850   6.559  11.969  13.074 -0.5889 -0.5119 -1.2396
41375SOL    HW235851   6.429  11.893  13.056 -0.7468 -1.5088  3.0716
41376SOL     OW35852   9.232   1.023  12.072 -0.3908  0.3382 -0.5079
41376SOL    HW135853   9.168   0.965  12.032 -0.3117 -2.2623  2.7256
41376SOL    HW235854   9.291   1.047  12.000 -0.4371 -3.6685 -2.1402
41377SOL     OW35855   7.818   0.221   0.166 -0.0934 -0.1664 -0.1192
41377SOL    HW135856   7.775   0.201   0.084  0.6235  2.0766 -1.1315
41377SOL    HW235857   7.757   0.280   0.211  0.2529 -0.0179  0.1636
41378SOL     OW35858  11.985   1.232  12.447 -0.5677  0.7030 -0.0805
41378SOL    HW135859  11.947   1.222  12.359  0.1561  0.9056 -0.4283
41378SOL    HW235860  11.914   1.207  12.507 -1.1291  0.7304 -0.7146
41379SOL     OW35861   1.877   9.648   8.011  0.2042 -0.2139  0.1951
41379SOL    HW135862   1.794   9.616   8.047 -1.0841  2.6079 -0.0359
41379SOL    HW235863   1.944   9.609   8.068 -1.1833 -2.7576  0.2415
41380SOL     OW35864  11.607  12.763   3.508 -0.4414  0.1387 -0.1553
41380SOL    HW135865  11.606  12.853   3.477  1.5956  0.2506 -0.0830
41380SOL    HW235866  11.577  12.769   3.599 -2.1705  0.4406 -0.7251
41381SOL     OW35867   2.234  13.410  13.237  0.2813  0.3479 -0.2467
41381SOL    HW135868   2.263  13.495  13.272 -0.9915  0.9466 -0.5811
41381SOL    HW235869   2.143  13.403  13.264  0.3216 -0.8438 -0.3855
41382SOL     OW35870   2.800   0.210   4.241 -0.2157 -0.2996 -0.0529
41382SOL    HW135871   2.729   0.191   4.180  0.8956 -0.8951 -1.2151
41382SOL    HW235872   2.865   0.143   4.224  0.1684 -0.4523  1.7929
41383SOL     OW35873   6.181   6.891   8.808 -0.2339  0.1422  0.3030
41383SOL    HW135874   6.174   6.821   8.873 -1.3957  0.0061  0.0570
41383SOL    HW235875   6.210   6.967   8.857 -0.1434 -0.2096  0.8034
41384SOL     OW35876   4.170   2.556   0.003 -0.1690 -0.3907 -0.3127
41384SOL    HW135877   4.112   2.483   0.022 -1.0123  0.1553 -0.7070
41384SOL    HW235878   4.256   2.527   0.032 -0.7533 -0.9600  0.9110
41385SOL     OW35879  10.149  10.112  12.255  0.4263 -0.8829 -0.9719
41385SOL    HW135880  10.077  10.100  12.192  1.0586 -1.0540 -1.6709
41385SOL    HW235881  10.216  10.159  12.206  0.9532 -1.0762 -0.4387
41386SOL     OW35882  12.751   5.246   6.953 -0.1077  0.0643  0.0292
41386SOL    HW135883  12.726   5.263   7.044 -1.5091 -2.0364  0.0971
41386SOL    HW235884  12.763   5.151   6.948 -1.5271 -0.0806 -2.2842
41387SOL     OW35885   1.845   8.369  12.731 -0.0030 -0.0546  0.2844
41387SOL    HW135886   1.824   8.343  12.641  0.7768 -1.0255  0.3623
41387SOL    HW235887   1.804   8.302  12.786  0.7441 -0.2918  0.5691
41388SOL     OW35888   6.036   3.874  11.801  0.2643 -0.1771 -0.3989
41388SOL    HW135889   5.966   3.819  11.765 -1.2086 -0.4995  2.6412
41388SOL    HW235890   5.994   3.959  11.817  0.6964 -0.1805  0.8877
41389SOL     OW35891  12.656  10.181  10.638  0.3022 -0.0238 -0.4798
41389SOL    HW135892  12.598  10.190  10.562  0.1550 -0.0701 -0.3729
41389SOL    HW235893  12.635  10.257  10.693  1.5594  0.9094 -1.2523
41390SOL     OW35894   3.069  11.821   7.994 -0.0812 -0.7134  0.0304
41390SOL    HW135895   3.109  11.907   8.010 -0.1976 -0.8312  0.9848
41390SOL    HW235896   3.092  11.769   8.070 -1.2290 -1.0947  0.1371
41391SOL     OW35897  10.557   1.717   8.632 -0.5115  0.5370  0.4796
41391SOL    HW135898  10.615   1.794   8.630 -0.0647  0.1937 -0.2453
41391SOL    HW235899  10.560   1.687   8.723  0.4586  0.5208  0.4564
41392SOL     OW35900   6.742   5.341   9.234 -0.3500 -0.0417 -0.4864
41392SOL    HW135901   6.796   5.270   9.271 -0.2787  0.0408 -0.4333
41392SOL    HW235902   6.803   5.394   9.184  0.1191  1.4488  1.5235
41393SOL     OW35903   0.239   1.303   3.572  0.7565 -0.1167 -0.1934
41393SOL    HW135904   0.229   1.292   3.477 -1.1248  0.9722 -0.1754
41393SOL    HW235905   0.216   1.394   3.588 -0.3162 -0.6443  1.4646
41394SOL     OW35906   0.031  11.420   8.662  0.1540 -0.1510 -0.3482
41394SOL    HW135907   0.008  11.513   8.670  0.7755 -0.1035  1.0293
41394SOL    HW235908  -0.041  11.374   8.704  0.5517 -0.2016  0.2975
41395SOL     OW35909   5.440   9.624  13.501 -0.2892  0.2671 -0.0824
41395SOL    HW135910   5.459   9.568  13.577 -0.4734 -2.4040 -1.8859
41395SOL    HW235911   5.346   9.637  13.504 -0.2646  0.3909  0.2727
41396SOL     OW35912   7.557  12.311  13.404 -0.0813  0.1777 -0.4559
41396SOL    HW135913   7.520  12.277  13.485  0.8241 -0.7862 -0.4198
41396SOL    HW235914   7.561  12.235  13.346  1.1771  0.3894 -0.6783
41397SOL     OW35915  10.422   6.366   6.762  0.4687 -0.6114 -0.7154
41397SOL    HW135916  10.439   6.416   6.682  0.8874 -1.3743 -1.1123
41397SOL    HW235917  10.327   6.366   6.771  0.2437 -2.4341 -2.4795
41398SOL     OW35918  11.780   4.296   8.221  0.1576  0.3909  0.1657
41398SOL    HW135919  11.718   4.282   8.293 -1.8801 -0.7245 -1.6858
41398SOL    HW235920  11.786   4.211   8.178 -0.3971  1.5082 -2.2661
41399SOL     OW35921   4.687  12.169  11.942  0.6147 -0.3340 -0.2110
41399SOL    HW135922   4.654  12.172  11.852  0.5282 -1.0788 -0.2110
41399SOL    HW235923   4.751  12.240  11.947 -0.3668  0.5871 -0.4568
41400SOL     OW35924  13.374  13.284   6.551 -0.4959 -0.2344 -0.3399
41400SOL    HW135925  13.332  13.211   6.506 -0.1844 -1.2183  0.8896
41400SOL    HW235926  13.309  13.314   6.614 -0.1187 -0.4011  0.1375
41401SOL     OW35927   7.116  11.967   1.460  0.4512  0.4671 -0.7454
41401SOL    HW135928   7.052  12.033   1.433  1.3594  1.7145  0.0192
41401SOL    HW235929   7.064  11.895   1.495 -0.5372  1.7112  0.4506
41402SOL     OW35930   1.234   9.830   9.019 -0.1641 -0.0812 -0.5424
41402SOL    HW135931   1.302   9.774   8.983 -0.9486 -0.4113 -1.5565
41402SOL    HW235932   1.269   9.860   9.103  0.8793 -0.8943 -0.6733
41403SOL     OW35933   9.381   3.316   9.495  0.6453 -0.0060  0.0177
41403SOL    HW135934   9.329   3.240   9.521 -0.4975  0.1525 -1.6688
41403SOL    HW235935   9.365   3.326   9.401 -0.0952  2.9487  0.3604
41404SOL     OW35936   9.629   5.679   1.456 -0.2093 -0.3534  0.1396
41404SOL    HW135937   9.690   5.619   1.500  1.6386  0.4718 -1.1424
41404SOL    HW235938   9.686   5.740   1.409 -2.0453  0.0421 -1.7269
41405SOL     OW35939  12.349   6.139   1.204 -0.4408  0.2920 -0.4961
41405SOL    HW135940  12.328   6.052   1.170  1.1607 -0.8303  1.1980
41405SOL    HW235941  12.419   6.171   1.147 -1.3644  0.7161 -1.4217
41406SOL     OW35942   0.781   5.387   4.073  0.7002  0.2133 -0.2241
41406SOL    HW135943   0.720   5.447   4.030  1.7013  0.3972 -1.4418
41406SOL    HW235944   0.851   5.443   4.106  0.4817 -0.0491  0.7207
41407SOL     OW35945   3.461   9.078   9.001 -0.0205 -0.1173 -0.5477
41407SOL    HW135946   3.516   9.101   9.076 -1.0462  0.1261  0.1448
41407SOL    HW235947   3.466   9.154   8.943  0.3957 -0.1128 -0.5087
41408SOL     OW35948   6.857   9.630   1.140  0.0235 -0.2895  0.2962
41408SOL    HW135949   6.809   9.553   1.111 -0.4232  0.5194 -1.1917
41408SOL    HW235950   6.924   9.645   1.073  0.8080 -0.0017  1.1168
41409SOL     OW35951   1.401   7.196   9.128 -0.4527  0.2070 -0.0851
41409SOL    HW135952   1.340   7.266   9.152  0.3957  1.0395 -0.2734
41409SOL    HW235953   1.487   7.234   9.143  0.0300 -0.6552 -0.6187
41410SOL     OW35954   1.670   6.622   8.789 -0.2018 -0.2448 -0.5296
41410SOL    HW135955   1.758   6.624   8.826 -0.0583 -0.8109 -0.8272
41410SOL    HW235956   1.662   6.534   8.752 -0.4355  0.2065 -1.6035
41411SOL     OW35957   3.283  12.511   5.856 -0.1072  0.1193  0.5022
41411SOL    HW135958   3.252  12.575   5.920 -0.9781  0.7690 -0.5259
41411SOL    HW235959   3.317  12.439   5.909 -1.0089  0.5247  1.6968
41412SOL     OW35960   0.836  13.585   2.146 -0.3586 -0.7065 -0.0986
41412SOL    HW135961   0.813  13.645   2.218 -1.1452  0.3375 -1.1774
41412SOL    HW235962   0.778  13.510   2.158  0.4841 -1.1885  1.1452
41413SOL     OW35963  12.908   1.072   1.791 -0.7627 -0.6033  0.1295
41413SOL    HW135964  12.932   1.141   1.729  1.1745  1.6705  3.1232
41413SOL    HW235965  12.841   1.111   1.846 -0.2532 -1.3866  1.3578
41414SOL     OW35966  13.475  12.111   5.324  0.3467  0.1457  0.1329
41414SOL    HW135967  13.448  12.064   5.245 -0.8246  1.2639 -0.1502
41414SOL    HW235968  13.399  12.165   5.348  0.3039 -0.8459  2.5670
41415SOL     OW35969   1.768   1.370   1.959 -0.3219  1.0529  0.3765
41415SOL    HW135970   1.690   1.316   1.940 -0.7556  1.7394  0.1746
41415SOL    HW235971   1.733   1.456   1.979  0.4619  1.8588 -1.4769
41416SOL     OW35972   2.109   6.714   5.055 -0.2074 -0.3547  0.0884
41416SOL    HW135973   2.143   6.634   5.014 -1.6126 -1.2683  0.6388
41416SOL    HW235974   2.028   6.733   5.008  0.3134  1.0008 -0.2996
41417SOL     OW35975  13.057   0.847  10.718  0.1951  0.2865 -0.3909
41417SOL    HW135976  13.001   0.911  10.762  0.4784 -0.8897  1.7894
41417SOL    HW235977  13.132   0.898  10.687 -0.2513  1.2382  0.0467
41418SOL     OW35978   6.490  13.623   5.568 -0.3550 -0.1847  0.1836
41418SOL    HW135979   6.519  13.708   5.535 -0.8550  0.6300  1.7514
41418SOL    HW235980   6.512  13.561   5.498  0.4574  1.1533 -0.7846
41419SOL     OW35981   6.839  11.618   0.240  0.1047 -1.1935  0.2798
41419SOL    HW135982   6.752  11.657   0.230 -0.4255 -1.9882  1.5924
41419SOL    HW235983   6.867  11.600   0.151 -0.7048 -0.1576 -0.2127
41420SOL     OW35984  10.160   9.459  12.260 -0.5290  0.2458  0.3756
41420SOL    HW135985  10.206   9.527  12.211 -0.9882 -0.5163 -1.2178
41420SOL    HW235986  10.224   9.388  12.267 -1.5126 -1.0990 -2.4690
41421SOL     OW35987   1.094  13.025   6.600 -0.1970  0.0948  0.4842
41421SOL    HW135988   1.160  13.088   6.629  0.3057  0.6631 -1.6536
41421SOL    HW235989   1.138  12.977   6.529 -1.5411 -0.6720  0.1484
41422SOL     OW35990  13.017   4.235   4.325 -0.3937 -0.0139 -0.3632
41422SOL    HW135991  12.973   4.314   4.293 -1.1311 -0.0583  0.5282
41422SOL    HW235992  13.104   4.265   4.351 -0.3181  0.3080 -0.9553
41423SOL     OW35993   6.985   4.912   6.690 -0.1457 -0.1886 -0.1276
41423SOL    HW135994   6.974   4.917   6.785 -0.4766 -0.8249 -0.1223
41423SOL    HW235995   7.076   4.888   6.677  0.3400  1.4907 -0.0353
41424SOL     OW35996   1.307   7.559   7.017 -1.0331  0.6056  1.0491
41424SOL    HW135997   1.263   7.475   7.006 -1.6893  1.0250  0.3662
41424SOL    HW235998   1.243   7.624   6.989 -0.1145  1.2562  0.3808
41425SOL     OW35999  13.566  10.529   5.445 -0.4308 -0.0316  0.5303
41425SOL    HW136000  13.621  10.451   5.440  0.7236  0.3992  4.0727
41425SOL    HW236001  13.514  10.517   5.524 -1.9614  1.7703 -0.1285
41426SOL     OW36002   6.486   7.851   1.212 -0.0593  0.4126 -0.0507
41426SOL    HW136003   6.413   7.813   1.260  0.3332 -1.6536 -0.9968
41426SOL    HW236004   6.539   7.776   1.185  1.7619  1.7696 -0.4541
41427SOL     OW36005   2.250   6.923   6.626 -0.1198  0.1625  0.5160
41427SOL    HW136006   2.188   6.850   6.635  1.2048 -0.9046  1.2781
41427SOL    HW236007   2.303   6.920   6.706  0.2919  1.6708  0.3367
41428SOL     OW36008   6.063  13.711   1.570  0.3838 -0.2199  0.2758
41428SOL    HW136009   5.982  13.675   1.533  1.0709 -0.6376 -0.8652
41428SOL    HW236010   6.034  13.789   1.618 -0.7592 -0.6471  0.3149
41429SOL     OW36011   4.418   9.178   9.734  0.3881 -0.1903  0.1263
41429SOL    HW136012   4.460   9.240   9.795 -1.2248 -1.4349  2.6686
41429SOL    HW236013   4.491   9.142   9.683  1.5339  2.7562 -0.5457
41430SOL     OW36014   1.910   1.323   7.672  0.3948  0.3770 -1.1359
41430SOL    HW136015   1.896   1.251   7.609  0.0760 -0.1933 -0.4287
41430SOL    HW236016   1.834   1.319   7.730  1.8008 -0.6493  0.7532
41431SOL     OW36017  11.252   5.696   7.941  0.5823  0.1494 -0.1451
41431SOL    HW136018  11.238   5.743   8.023 -0.6026  0.3841 -0.4649
41431SOL    HW236019  11.340   5.658   7.950  1.0696  1.3922  0.6169
41432SOL     OW36020   8.649   2.387   3.066 -0.3139  0.3943  0.2277
41432SOL    HW136021   8.623   2.455   3.004  0.7820  1.1056  0.5217
41432SOL    HW236022   8.710   2.431   3.126 -0.2288 -0.6397  0.9212
41433SOL     OW36023   8.896   6.422  12.590  0.2801 -0.3045  0.3803
41433SOL    HW136024   8.815   6.459  12.555 -0.9980 -2.1177  1.2400
41433SOL    HW236025   8.934   6.493  12.643  0.6333  1.4130 -2.0170
41434SOL     OW36026  11.779   6.501   9.774  0.4132  0.3568 -0.4141
41434SOL    HW136027  11.782   6.596   9.757 -0.4232  0.3343 -0.7253
41434SOL    HW236028  11.686   6.481   9.780  0.6020 -0.3372  0.3492
41435SOL     OW36029   1.950   7.977  13.496  0.4309  0.2907  0.4980
41435SOL    HW136030   1.929   8.043  13.430 -0.6763 -2.2018 -1.8745
41435SOL    HW236031   1.876   7.979  13.557 -0.2219  0.4220 -0.2771
41436SOL     OW36032   5.909  13.264   9.239 -0.6609 -0.1209  1.0645
41436SOL    HW136033   5.824  13.295   9.272  0.1750  2.5187  0.9693
41436SOL    HW236034   5.973  13.325   9.276  1.5988 -3.4050  3.1115
41437SOL     OW36035   3.763   1.424   8.645  0.0599  0.1698 -0.7845
41437SOL    HW136036   3.853   1.457   8.655  0.7900 -1.9588  0.5596
41437SOL    HW236037   3.761   1.346   8.701 -2.9041  0.6107 -0.1153
41438SOL     OW36038  13.440   8.477  12.247  0.3892  0.2128  0.3204
41438SOL    HW136039  13.381   8.539  12.204 -0.4926  0.3409  1.6487
41438SOL    HW236040  13.403   8.391  12.227  0.6843  0.2004 -0.1813
41439SOL     OW36041   8.546  10.052  10.022 -0.5306  0.6476  0.0174
41439SOL    HW136042   8.626  10.102  10.040 -0.6043  0.5555  0.6187
41439SOL    HW236043   8.515  10.087   9.938  1.5427 -1.1119 -1.6087
41440SOL     OW36044   1.097  12.197  12.800  0.3344  0.1539  0.1479
41440SOL    HW136045   1.066  12.191  12.890  0.0253 -0.1376  0.0233
41440SOL    HW236046   1.168  12.132  12.795 -1.3488 -1.7263 -0.5091
41441SOL     OW36047   9.249   5.815   0.499  0.3918  0.3962  0.5260
41441SOL    HW136048   9.293   5.735   0.526 -3.2338 -2.0141 -0.0209
41441SOL    HW236049   9.206   5.846   0.579  2.7141  2.6423  1.0325
41442SOL     OW36050   4.302  10.878  12.096  0.2964  0.3302  0.3362
41442SOL    HW136051   4.246  10.809  12.132 -0.2815  1.6663  2.1704
41442SOL    HW236052   4.388  10.837  12.087 -0.3868 -1.0641 -0.1632
41443SOL     OW36053   3.151   3.293   5.112 -0.1312  0.1334 -0.1165
41443SOL    HW136054   3.238   3.323   5.138 -0.0882 -0.1601  0.0894
41443SOL    HW236055   3.128   3.228   5.179 -1.4882  1.8665  1.1914
41444SOL     OW36056   2.610   4.352   1.134 -0.0129 -0.5572  0.0651
41444SOL    HW136057   2.590   4.327   1.224  1.0498 -0.1913  0.4099
41444SOL    HW236058   2.538   4.410   1.110 -0.2084 -0.5087  0.7384
41445SOL     OW36059   5.275   2.118   8.145 -0.5908 -0.3875 -0.2801
41445SOL    HW136060   5.347   2.073   8.191  0.4673  0.2041 -1.2978
41445SOL    HW236061   5.237   2.176   8.211 -0.7351 -1.3651  0.5238
41446SOL     OW36062   6.562   6.793  12.972  0.0311 -0.0552 -0.0426
41446SOL    HW136063   6.653   6.804  12.999  0.3714  0.7165 -1.4086
41446SOL    HW236064   6.551   6.699  12.960  0.9431 -0.0856 -0.7829
41447SOL     OW36065   1.659  11.390   8.401  0.0846 -0.5779  0.2092
41447SOL    HW136066   1.566  11.403   8.421 -0.0894 -0.4807 -0.6344
41447SOL    HW236067   1.688  11.475   8.367  0.8294 -0.1964  1.7125
41448SOL     OW36068   4.969   0.018   9.574  0.1319 -0.5290  0.1983
41448SOL    HW136069   5.004   0.053   9.656 -0.2742 -0.5340  0.3734
41448SOL    HW236070   4.896   0.076   9.552  1.6600  0.9147 -1.3930
41449SOL     OW36071   8.481  11.156   2.687  0.1897  0.5479  0.3168
41449SOL    HW136072   8.572  11.186   2.692  0.1631  0.7573 -0.3053
41449SOL    HW236073   8.431  11.225   2.731  0.3193  0.4810  0.5734
41450SOL     OW36074  13.373   1.034   7.816 -0.2525  0.1267  0.2917
41450SOL    HW136075  13.393   1.098   7.884  0.1615  0.3157 -0.0052
41450SOL    HW236076  13.441   1.047   7.750 -1.3783  0.8194 -0.7709
41451SOL     OW36077   6.826   3.393   0.651 -0.1715  0.1030 -0.0437
41451SOL    HW136078   6.848   3.486   0.649 -1.8204  0.5106 -0.2486
41451SOL    HW236079   6.767   3.380   0.577 -0.0258 -1.1009  0.0219
41452SOL     OW36080  11.336   8.415   1.182 -0.3733 -0.2900  0.3402
41452SOL    HW136081  11.274   8.484   1.160 -1.3416 -1.3039 -0.2168
41452SOL    HW236082  11.362   8.379   1.097 -0.8714 -1.4524  0.6720
41453SOL     OW36083   5.143   8.216   7.305  0.3188  0.2571  0.0716
41453SOL    HW136084   5.230   8.255   7.305  0.3674  0.1542 -0.2748
41453SOL    HW236085   5.111   8.226   7.395  0.6612  0.3533  0.1809
41454SOL     OW36086   8.035   8.766  10.994  0.4756 -0.8189 -0.1771
41454SOL    HW136087   7.999   8.806  11.073  2.4331 -2.3078  1.5668
41454SOL    HW236088   7.958   8.739  10.943 -0.8269  0.2635  1.1337
41455SOL     OW36089   0.518  12.781   6.103  0.0307  0.1552  0.0105
41455SOL    HW136090   0.492  12.865   6.142  0.1435 -0.1495  0.7566
41455SOL    HW236091   0.535  12.802   6.011  1.3382  1.2249  0.4645
41456SOL     OW36092  13.542   1.384  12.734  0.1812 -0.6817  0.3803
41456SOL    HW136093  13.615   1.389  12.672 -0.7832 -0.1964 -0.7621
41456SOL    HW236094  13.486   1.458  12.711  0.0796 -0.1385  2.2482
41457SOL     OW36095   5.797   3.086   3.022 -0.1333  0.0672  1.4081
41457SOL    HW136096   5.749   3.029   3.082 -1.4081 -1.3700 -0.8343
41457SOL    HW236097   5.878   3.039   3.003  0.3756  0.6266  2.1013
41458SOL     OW36098   6.295  10.667  12.329 -0.2287 -0.2224  0.1026
41458SOL    HW136099   6.307  10.698  12.239  0.8717 -0.8601  0.0174
41458SOL    HW236100   6.375  10.694  12.374 -1.3029  1.2107  1.2337
41459SOL     OW36101  12.423   2.485   8.627 -0.0210 -0.9018 -0.2599
41459SOL    HW136102  12.444   2.394   8.608  0.2616 -1.0136  0.5628
41459SOL    HW236103  12.466   2.503   8.711 -0.1979 -0.0591 -0.3434
41460SOL     OW36104  12.457   4.378  10.579 -0.1999  0.0401 -0.8447
41460SOL    HW136105  12.551   4.359  10.577 -0.2619 -0.9474  1.7196
41460SOL    HW236106  12.440   4.402  10.670 -2.5758 -0.5415 -1.0902
41461SOL     OW36107   2.773   2.970   8.246  0.0530  0.1742  0.1871
41461SOL    HW136108   2.760   3.000   8.336  0.8141  0.0877  0.3389
41461SOL    HW236109   2.856   2.922   8.249  0.1547  0.2838 -0.5923
41462SOL     OW36110   9.928   6.924   5.320 -0.6297  0.5159 -0.0453
41462SOL    HW136111  10.013   6.889   5.346 -1.0448  0.3999  1.1924
41462SOL    HW236112   9.920   7.006   5.367 -1.9927 -0.3674  1.3671
41463SOL     OW36113   7.693   1.275   6.681 -0.2025 -0.0594  0.3232
41463SOL    HW136114   7.774   1.323   6.697 -0.1010  0.1823 -0.8064
41463SOL    HW236115   7.694   1.203   6.744  0.6332  0.2493  0.6721
41464SOL     OW36116   4.822  11.514   5.871  0.6153  0.2523 -0.1563
41464SOL    HW136117   4.825  11.446   5.939 -0.4978  0.8061  0.4872
41464SOL    HW236118   4.913  11.536   5.854  0.9573 -0.8514  0.1952
41465SOL     OW36119   8.919   5.485  13.324  0.3886 -0.0006  0.2086
41465SOL    HW136120   8.927   5.533  13.242 -1.0362 -0.5788 -0.2879
41465SOL    HW236121   9.009   5.464  13.348  0.8726  0.8615 -0.7907
41466SOL     OW36122   0.727   8.548   8.176  0.0394  0.4341  0.0513
41466SOL    HW136123   0.698   8.503   8.255  0.6064  1.1560  0.6795
41466SOL    HW236124   0.719   8.482   8.107  2.2206 -1.1292  1.1613
41467SOL     OW36125   6.367  10.325  12.849 -0.2062 -0.3645 -0.1595
41467SOL    HW136126   6.293  10.269  12.869 -1.2150  0.7848 -0.5519
41467SOL    HW236127   6.335  10.414  12.863  1.2034  0.1445 -0.0086
41468SOL     OW36128   6.236   6.931   6.813 -0.2642 -0.5009  0.0720
41468SOL    HW136129   6.285   7.009   6.838  0.4024 -1.0258  0.4358
41468SOL    HW236130   6.144   6.958   6.817 -0.1397 -0.2134  1.9240
41469SOL     OW36131   6.116   6.785  11.977  0.1077 -0.2700 -0.4723
41469SOL    HW136132   6.085   6.721  12.041 -0.8721  0.5222 -0.1295
41469SOL    HW236133   6.047   6.790  11.911 -0.5767  1.5090  0.2988
41470SOL     OW36134   7.926   2.686   5.243  0.1570  0.1195 -0.3797
41470SOL    HW136135   7.992   2.666   5.310 -1.9621  1.6402  2.4059
41470SOL    HW236136   7.885   2.602   5.225 -0.0727 -0.1683  1.2908
41471SOL     OW36137  11.613   8.555   2.799 -0.0453  0.4382  0.3205
41471SOL    HW136138  11.533   8.515   2.764 -0.7257  0.5494  1.6846
41471SOL    HW236139  11.642   8.614   2.730 -1.0338  0.2459 -0.2862
41472SOL     OW36140   3.973  10.266  11.664 -0.7146  0.3333  0.1006
41472SOL    HW136141   4.061  10.278  11.699 -0.5717 -1.5080  0.4540
41472SOL    HW236142   3.929  10.211  11.728 -1.2265 -1.0703 -1.3886
41473SOL     OW36143   4.284   0.784   7.201  0.2698  0.4822 -0.3039
41473SOL    HW136144   4.234   0.712   7.162  0.5608  0.6938 -1.0958
41473SOL    HW236145   4.222   0.826   7.260 -0.4184  0.5655 -1.0567
41474SOL     OW36146   4.436   3.335  10.790 -0.0166 -0.2370 -0.4904
41474SOL    HW136147   4.455   3.300  10.703 -0.2206 -0.0606 -0.6076
41474SOL    HW236148   4.500   3.405  10.803 -1.4561  1.3418 -1.4857
41475SOL     OW36149   7.528   4.729   9.600 -0.0458 -0.2834  0.2184
41475SOL    HW136150   7.619   4.730   9.570 -0.7666 -1.8880 -2.3286
41475SOL    HW236151   7.524   4.657   9.663  0.3093 -0.5608 -0.0770
41476SOL     OW36152  11.834   8.548   0.377 -0.3099  0.1958  0.1088
41476SOL    HW136153  11.822   8.523   0.468  0.0851 -0.5809 -0.0414
41476SOL    HW236154  11.841   8.644   0.378  1.0900  0.1023  1.0652
41477SOL     OW36155  11.882   2.057   7.716  0.1925  0.9103  0.1855
41477SOL    HW136156  11.861   2.145   7.749 -0.0129  1.4015 -1.1918
41477SOL    HW236157  11.813   2.038   7.653  1.1090  0.4261 -0.6993
41478SOL     OW36158   3.002   2.160   4.967 -0.3423 -0.4515  0.0054
41478SOL    HW136159   3.067   2.093   4.948 -0.8715 -0.0571 -4.1189
41478SOL    HW236160   3.045   2.242   4.944 -2.2159 -0.2041 -3.1667
41479SOL     OW36161   3.533  12.090   4.837  0.1187  0.3456  0.0897
41479SOL    HW136162   3.447  12.117   4.803 -0.5181 -2.2526 -0.5933
41479SOL    HW236163   3.595  12.149   4.794 -1.1194  0.5126 -1.5880
41480SOL     OW36164   9.014   3.488   6.157 -0.1868  0.3510 -0.1900
41480SOL    HW136165   8.974   3.499   6.071  0.2309 -1.6591 -0.6944
41480SOL    HW236166   9.108   3.502   6.141 -0.3526  2.6062  0.5042
41481SOL     OW36167   6.579  11.169   5.276 -0.4299  0.0413 -0.5108
41481SOL    HW136168   6.588  11.190   5.369  0.8121 -0.4995 -0.4927
41481SOL    HW236169   6.626  11.087   5.265  2.2310  1.6140 -2.1618
41482SOL     OW36170   7.687   1.351   0.547  0.2824  0.1510  0.1108
41482SOL    HW136171   7.672   1.321   0.457 -0.2883  0.6046  0.0512
41482SOL    HW236172   7.727   1.276   0.591 -1.5095 -0.8807  0.0911
41483SOL     OW36173  12.152  13.745   9.317  0.1172 -0.2257 -0.0910
41483SOL    HW136174  12.172  13.737   9.224  1.0954  1.1975 -0.0450
41483SOL    HW236175  12.132  13.838   9.329 -1.0532 -0.5879  0.9417
41484SOL     OW36176  11.302   6.754   0.090 -0.2939  0.1863 -0.1081
41484SOL    HW136177  11.208   6.743   0.105 -0.3899  1.2286  0.1398
41484SOL    HW236178  11.312   6.752  -0.005 -0.3543 -1.4697 -0.0943
41485SOL     OW36179   5.904   1.172  12.201 -0.0928  0.0977  0.2094
41485SOL    HW136180   5.939   1.146  12.286 -2.0144 -1.8007  0.5228
41485SOL    HW236181   5.819   1.212  12.220 -1.0552 -1.3347 -0.8127
41486SOL     OW36182   2.139  12.996   4.985  0.4811  0.2928  0.6303
41486SOL    HW136183   2.208  13.040   5.035  0.9759 -0.8473  0.9921
41486SOL    HW236184   2.119  12.918   5.037 -0.9213  0.4770  0.4015
41487SOL     OW36185   5.848   1.536   9.385 -0.0108  0.2769 -0.2216
41487SOL    HW136186   5.808   1.582   9.460 -1.2243 -0.0170 -0.6590
41487SOL    HW236187   5.851   1.602   9.316  3.6870  1.4130  0.8007
41488SOL     OW36188  11.198   0.412   4.882  0.2836  0.3599 -0.2759
41488SOL    HW136189  11.288   0.403   4.850  0.4969  1.7833 -0.1516
41488SOL    HW236190  11.180   0.506   4.877 -1.2503  0.0930 -0.4170
41489SOL     OW36191  13.572   9.334  13.278  0.1747  0.6447 -0.4284
41489SOL    HW136192  13.501   9.329  13.342 -0.0177  1.5711 -0.5509
41489SOL    HW236193  13.559   9.258  13.221 -0.0550  0.1923  0.2176
41490SOL     OW36194   6.727  12.192  10.962 -0.3121  0.6580 -0.4898
41490SOL    HW136195   6.758  12.278  10.990  2.3815 -0.3410 -0.0390
41490SOL    HW236196   6.804  12.135  10.971 -2.1941 -1.9995  0.0808
41491SOL     OW36197  13.372   9.638  13.302  0.1425  0.4439  0.5141
41491SOL    HW136198  13.458   9.665  13.272 -0.6495  3.6970  0.7980
41491SOL    HW236199  13.382   9.624  13.396  0.3598  0.7691  0.5374
41492SOL     OW36200   4.613   1.123   5.002 -0.6416 -0.3447  0.3845
41492SOL    HW136201   4.688   1.152   4.949  0.0079  0.0746  1.4954
41492SOL    HW236202   4.583   1.043   4.959 -0.7858  0.5377 -1.2030
41493SOL     OW36203   2.992   9.167   4.648 -0.5454  0.3507 -0.2488
41493SOL    HW136204   2.989   9.248   4.699 -0.9575  0.6336 -0.7148
41493SOL    HW236205   3.050   9.109   4.698  0.3377  1.1825 -0.2750
41494SOL     OW36206   7.936  10.050   5.130 -0.2367  0.1582 -0.0781
41494SOL    HW136207   7.875   9.979   5.111  1.3352 -0.9507 -1.3419
41494SOL    HW236208   7.940  10.100   5.048  0.1597  0.5161  0.1582
41495SOL     OW36209  11.241   2.004   5.061  0.5284 -0.5588 -0.1306
41495SOL    HW136210  11.324   1.990   5.015  1.1108 -1.1095  1.0583
41495SOL    HW236211  11.265   2.013   5.153 -0.4915  1.6994 -0.0027
41496SOL     OW36212  13.290   4.287   6.602 -0.3345  0.1787 -0.4238
41496SOL    HW136213  13.351   4.224   6.641 -0.1395  0.2374 -0.6341
41496SOL    HW236214  13.257   4.242   6.524 -0.8808 -0.0220 -0.0831
41497SOL     OW36215  10.636  10.640  10.507 -0.0685  0.1905 -0.0780
41497SOL    HW136216  10.678  10.726  10.518 -0.5273  0.2075  1.7964
41497SOL    HW236217  10.709  10.579  10.502  0.2446  0.4687  0.8412
41498SOL     OW36218  11.449   3.527  13.448  0.1829  0.2113 -0.3313
41498SOL    HW136219  11.465   3.602  13.505 -0.2892 -0.6937  1.0310
41498SOL    HW236220  11.372   3.552  13.397 -0.7941  0.1439  1.0679
41499SOL     OW36221  12.987   6.500   2.099 -0.1783  0.1581 -0.2871
41499SOL    HW136222  12.950   6.417   2.130  0.2552 -0.1594 -0.6010
41499SOL    HW236223  13.076   6.500   2.135  0.2443 -0.0915 -1.2863
41500SOL     OW36224  11.385   5.874   8.698 -0.3077  0.5600 -0.4688
41500SOL    HW136225  11.456   5.911   8.750 -0.4999  1.3395 -0.7547
41500SOL    HW236226  11.354   5.800   8.750  0.5376  0.3747 -0.2208
41501SOL     OW36227  11.776  11.977   7.016  0.0103 -0.8011  0.1225
41501SOL    HW136228  11.719  12.053   7.028  0.2809 -0.2902 -1.5702
41501SOL    HW236229  11.726  11.904   7.053 -2.1952 -0.5389 -2.0935
41502SOL     OW36230  13.723   1.251  11.634  0.5854 -0.1231  0.3396
41502SOL    HW136231  13.804   1.253  11.584  0.4165  1.1740  0.0738
41502SOL    HW236232  13.692   1.161  11.627  0.5473  0.0183 -1.9364
41503SOL     OW36233   8.759   4.438   6.273 -0.2308 -0.0975  0.1329
41503SOL    HW136234   8.730   4.461   6.361  0.1682 -1.7013  0.7178
41503SOL    HW236235   8.707   4.361   6.250 -1.1863  0.9786 -1.5482
41504SOL     OW36236   6.342   9.347   5.214  0.1466 -0.1637 -0.0884
41504SOL    HW136237   6.407   9.370   5.281 -0.2047  0.1118  0.1611
41504SOL    HW236238   6.276   9.297   5.261 -1.4542  2.2183  0.3674
41505SOL     OW36239   5.164   4.449   6.257  0.2013 -0.0955 -0.0292
41505SOL    HW136240   5.174   4.525   6.200 -1.7205  0.1924 -0.0666
41505SOL    HW236241   5.198   4.477   6.342 -1.4881  1.2396  0.2572
41506SOL     OW36242   1.477   3.522  11.895 -0.4290 -0.5811  0.3179
41506SOL    HW136243   1.502   3.486  11.980  0.5949  0.2236  0.3835
41506SOL    HW236244   1.521   3.465  11.832  0.3679 -0.0574  0.3915
41507SOL     OW36245   8.915  11.671   6.784  0.1372  0.0543 -0.5368
41507SOL    HW136246   8.935  11.760   6.814 -0.2787 -0.1253  0.3338
41507SOL    HW236247   8.819  11.670   6.778  0.0855 -0.5461  0.2010
41508SOL     OW36248   4.012   0.812   4.279  0.2365 -0.2947  0.0625
41508SOL    HW136249   4.059   0.870   4.339  0.9595  0.0130 -0.7746
41508SOL    HW236250   3.931   0.860   4.259  0.0702 -0.3224  0.6423
41509SOL     OW36251   0.118   3.636  13.001  0.0700  0.2048  0.1876
41509SOL    HW136252   0.062   3.677  13.066  0.0262 -1.1450  1.0560
41509SOL    HW236253   0.059   3.609  12.931 -0.0397  0.7292  0.0796
41510SOL     OW36254   9.009  13.012   7.800  0.2117  0.3531  0.3485
41510SOL    HW136255   9.081  13.074   7.813 -1.3816  1.9582  2.0556
41510SOL    HW236256   9.032  12.937   7.854  0.8586  0.5841  0.4084
41511SOL     OW36257   4.327   8.591  12.819 -0.1801  0.4477 -0.2657
41511SOL    HW136258   4.346   8.661  12.756 -0.4087 -0.1688 -1.0290
41511SOL    HW236259   4.295   8.519  12.766  3.7035 -1.7309 -0.0153
41512SOL     OW36260   9.641  13.396   1.488  0.9921 -0.3830 -0.2625
41512SOL    HW136261   9.657  13.469   1.548  1.4465 -0.2209 -0.5820
41512SOL    HW236262   9.569  13.348   1.529  0.7507  0.1852  0.0017
41513SOL     OW36263   5.242   3.509  11.257  0.4623  0.1927 -0.1559
41513SOL    HW136264   5.306   3.460  11.206 -0.0270  2.2217 -2.9143
41513SOL    HW236265   5.295   3.565  11.314  1.2137  1.2494 -1.8143
41514SOL     OW36266   8.975   5.248   1.563 -0.2640  0.0060  0.4795
41514SOL    HW136267   9.028   5.296   1.499  0.2936 -2.1576 -0.7664
41514SOL    HW236268   8.894   5.228   1.516 -0.0906 -1.0817  0.6263
41515SOL     OW36269   0.489  12.378   9.592 -0.0938 -0.0607  0.1164
41515SOL    HW136270   0.499  12.419   9.506  0.3263  0.0898  0.2343
41515SOL    HW236271   0.464  12.449   9.650  0.6398  0.0343  0.3219
41516SOL     OW36272   8.698  10.955   5.749 -0.0409  0.3000 -0.5522
41516SOL    HW136273   8.710  11.022   5.682  2.5808 -0.7691 -1.2626
41516SOL    HW236274   8.754  10.983   5.822 -0.6979  0.0217  0.0783
41517SOL     OW36275   7.957  13.580  10.066  0.2920  0.2427  0.5614
41517SOL    HW136276   8.013  13.524  10.121  0.0011  0.2918  0.9067
41517SOL    HW236277   7.888  13.522  10.035  0.6427  0.1353 -0.0300
41518SOL     OW36278   9.095   0.889  12.852  0.2138  0.3618  0.5768
41518SOL    HW136279   9.018   0.936  12.884  0.6283  0.4731  1.4459
41518SOL    HW236280   9.089   0.803  12.893  0.3713  0.2501  0.3668
41519SOL     OW36281   9.937   0.364   7.226 -0.2300 -0.1522 -0.2438
41519SOL    HW136282   9.873   0.416   7.274 -1.9405 -0.9476 -1.5384
41519SOL    HW236283  10.004   0.340   7.291  0.1528  2.8143  0.5924
41520SOL     OW36284   1.871   1.270  10.755 -0.0767 -0.1490 -0.3477
41520SOL    HW136285   1.877   1.272  10.659  0.6087  0.2241 -0.3046
41520SOL    HW236286   1.962   1.260  10.784 -0.1582  0.8570  0.2921
41521SOL     OW36287   0.853   7.886   6.266  1.0692  0.1765 -0.0975
41521SOL    HW136288   0.793   7.879   6.340 -0.0861  0.9724 -0.9195
41521SOL    HW236289   0.862   7.980   6.251 -0.5528  0.0540 -2.3519
41522SOL     OW36290  13.657  12.666  12.352 -0.0356 -0.8720 -0.1074
41522SOL    HW136291  13.717  12.730  12.312 -2.6587  1.2764 -0.8936
41522SOL    HW236292  13.630  12.610  12.279 -2.0480  0.7904 -0.7465
41523SOL     OW36293  13.346  11.743   2.366  0.2815  0.3721  0.3182
41523SOL    HW136294  13.429  11.764   2.409  1.5607 -1.5326 -1.0604
41523SOL    HW236295  13.331  11.651   2.386 -0.1366 -0.0119 -1.5595
41524SOL     OW36296   5.647  11.754   6.697  0.1446  0.5495  0.1968
41524SOL    HW136297   5.629  11.775   6.605  1.8600 -1.0496 -0.5711
41524SOL    HW236298   5.590  11.679   6.716  0.9592 -0.1530 -0.0901
41525SOL     OW36299   0.220   1.401  10.570 -0.5719  0.2656 -0.1267
41525SOL    HW136300   0.264   1.417  10.653  0.4740  1.2819 -0.8442
41525SOL    HW236301   0.130   1.431  10.584 -0.3968  0.4612  0.6147
41526SOL     OW36302   6.745  12.230   8.000 -0.4055 -0.4654  0.2288
41526SOL    HW136303   6.830  12.270   7.983 -0.7696  0.3243  0.2482
41526SOL    HW236304   6.757  12.138   7.977  0.6923 -0.5426  1.0335
41527SOL     OW36305  11.846   6.219   8.191 -0.3375 -0.4524  0.2608
41527SOL    HW136306  11.870   6.172   8.271 -2.3683  0.4819  1.5151
41527SOL    HW236307  11.894   6.174   8.121  1.0724 -1.6541  1.9176
41528SOL     OW36308   2.375   7.415   1.420 -0.2122  0.3469 -0.1504
41528SOL    HW136309   2.373   7.415   1.324  0.9240  0.9671 -0.1887
41528SOL    HW236310   2.315   7.487   1.444 -0.2326  0.4164 -0.4017
41529SOL     OW36311  11.414   9.267   2.032  0.1560  0.1898 -0.0226
41529SOL    HW136312  11.406   9.174   2.009  1.2953  0.1335 -0.2534
41529SOL    HW236313  11.330   9.305   2.007 -1.1836 -1.1561  2.0690
41530SOL     OW36314   8.697  10.986  12.756  0.5158 -1.1890 -0.3290
41530SOL    HW136315   8.753  11.039  12.699 -0.8936  0.9902  0.1990
41530SOL    HW236316   8.608  11.003  12.724 -0.3109 -0.0536  2.3317
41531SOL     OW36317  13.139   7.601   5.514  0.3016 -0.2152 -0.3814
41531SOL    HW136318  13.169   7.692   5.523  0.9296 -0.4747  0.2549
41531SOL    HW236319  13.053   7.608   5.473  0.9075  0.6039 -1.5912
41532SOL     OW36320   7.901   6.347   9.396  0.5681 -0.4906 -0.3085
41532SOL    HW136321   7.822   6.365   9.346  0.0717  1.0265  0.9467
41532SOL    HW236322   7.871   6.297   9.472  1.0618 -1.2639 -0.6081
41533SOL     OW36323  11.475   3.875  10.111 -0.2818 -0.0656  0.5431
41533SOL    HW136324  11.502   3.794  10.156  2.0655  0.6661  0.5681
41533SOL    HW236325  11.409   3.913  10.168  0.4707 -0.6790  1.8818
41534SOL     OW36326   0.772   7.356   9.512  0.3689  0.0541 -0.0360
41534SOL    HW136327   0.723   7.393   9.438 -0.4332  1.1819  1.0052
41534SOL    HW236328   0.780   7.263   9.492 -0.7634  0.1453 -1.0504
41535SOL     OW36329   2.341  12.167   3.635  0.1629  0.2856  0.4499
41535SOL    HW136330   2.363  12.209   3.552 -1.3996  1.4015  0.5558
41535SOL    HW236331   2.344  12.238   3.700  2.4450 -0.7590  1.6107
41536SOL     OW36332   4.342   3.492   2.792 -0.1594  0.1854 -0.0432
41536SOL    HW136333   4.363   3.571   2.742  1.3180  1.1856  1.9982
41536SOL    HW236334   4.248   3.497   2.807 -0.2771  0.9146 -0.9604
41537SOL     OW36335   2.014  11.450   9.640  0.6507 -0.1561  1.1988
41537SOL    HW136336   1.950  11.491   9.698  3.0273  2.6143  2.1046
41537SOL    HW236337   1.963  11.426   9.562 -1.6744  0.7356  2.3278
41538SOL     OW36338   1.876   6.261   2.415  0.2331  0.2250 -0.6888
41538SOL    HW136339   1.814   6.193   2.388 -0.1079  1.0543 -2.1452
41538SOL    HW236340   1.833   6.306   2.488 -0.2380 -0.1356 -0.7417
41539SOL     OW36341  13.326  11.519   7.850  0.3772  0.1126 -0.4014
41539SOL    HW136342  13.273  11.467   7.911 -0.6546  0.2862 -1.1107
41539SOL    HW236343  13.322  11.608   7.885 -0.7678  0.3362 -1.0494
41540SOL     OW36344   2.204  11.225   7.980  0.0131  0.6527 -0.9598
41540SOL    HW136345   2.175  11.142   7.942  0.7008  0.1495 -0.4040
41540SOL    HW236346   2.172  11.292   7.919 -2.1422  0.1244 -0.4870
41541SOL     OW36347   7.899   2.124   0.073 -0.2794  0.3958  0.0155
41541SOL    HW136348   7.921   2.217   0.069  0.9745  0.1844  1.2157
41541SOL    HW236349   7.870   2.103  -0.016  1.6552  1.4048 -0.9187
41542SOL     OW36350   3.219   5.787   9.303 -0.0430 -0.4551  0.0749
41542SOL    HW136351   3.249   5.761   9.390 -1.6627  0.8665  1.0824
41542SOL    HW236352   3.298   5.820   9.260  0.2572  2.2768  2.3894
41543SOL     OW36353   0.496   1.318   8.154 -0.1799 -0.2061 -0.0023
41543SOL    HW136354   0.562   1.386   8.137 -1.6072  0.9337 -1.2764
41543SOL    HW236355   0.503   1.259   8.079 -0.7087  0.0109 -0.2249
41544SOL     OW36356   0.626   8.994  10.942 -0.2621  0.1870 -0.4695
41544SOL    HW136357   0.579   9.022  11.020 -1.3696 -0.8312 -0.7229
41544SOL    HW236358   0.636   8.899  10.953 -0.1871  0.0738 -1.4112
41545SOL     OW36359   1.848   5.187  11.062  0.3441 -0.0592  0.0814
41545SOL    HW136360   1.771   5.245  11.052  0.5555  0.3344  0.7130
41545SOL    HW236361   1.834   5.143  11.145 -0.7894 -2.4194 -1.2564
41546SOL     OW36362   9.900   6.109  12.373  0.4357 -0.0620 -0.2450
41546SOL    HW136363   9.907   6.073  12.461  1.1749 -0.1969 -0.3479
41546SOL    HW236364   9.808   6.100  12.350  0.3405 -0.5355  0.3008
41547SOL     OW36365   2.723   8.442   0.727  0.2229 -0.5484  0.2813
41547SOL    HW136366   2.702   8.381   0.798  1.3146 -0.2379  0.8914
41547SOL    HW236367   2.799   8.490   0.758 -0.4601  0.9812 -0.2847
41548SOL     OW36368  10.089   2.701  12.267 -0.0455  0.1402 -0.1209
41548SOL    HW136369   9.994   2.691  12.279 -0.0330  0.3015  0.1159
41548SOL    HW236370  10.118   2.613  12.242 -0.0059 -0.3781  1.5703
41549SOL     OW36371  11.111   4.299   3.375 -0.4449  0.1058  0.3669
41549SOL    HW136372  11.130   4.378   3.326 -1.2978  1.3405  1.9428
41549SOL    HW236373  11.052   4.249   3.319 -2.0774  1.8663  0.4506
41550SOL     OW36374  12.138   5.497   5.784 -1.0390 -0.0155 -0.0601
41550SOL    HW136375  12.057   5.454   5.756 -1.1428 -0.0706  0.3060
41550SOL    HW236376  12.208   5.447   5.742 -1.2208  0.5607 -1.0736
41551SOL     OW36377   3.394  12.251   7.248  0.0814 -0.7888  0.2562
41551SOL    HW136378   3.349  12.239   7.331  0.7636  0.8407  0.9092
41551SOL    HW236379   3.327  12.281   7.187 -0.2061 -0.8618  0.5390
41552SOL     OW36380   7.464  10.281   6.149 -0.1536 -0.6083  0.2223
41552SOL    HW136381   7.477  10.276   6.244 -0.5266 -0.0543  0.3047
41552SOL    HW236382   7.372  10.258   6.137 -0.9452  2.2549  0.2807
41553SOL     OW36383   8.092   3.584   9.169 -0.0477 -0.3060 -0.3331
41553SOL    HW136384   8.093   3.666   9.217 -1.0536 -1.6775  2.1994
41553SOL    HW236385   8.173   3.541   9.193 -0.0375 -0.5392 -0.7748
41554SOL     OW36386   3.194  12.181   6.199 -0.3186 -0.1006 -0.1189
41554SOL    HW136387   3.155  12.260   6.163  0.3792 -0.1634 -1.0486
41554SOL    HW236388   3.202  12.198   6.292 -0.4701  0.7967 -0.2663
41555SOL     OW36389   2.141   0.857  11.792  0.3273 -0.0180 -0.2581
41555SOL    HW136390   2.133   0.946  11.758 -1.9982  0.3086  0.9211
41555SOL    HW236391   2.099   0.861  11.878  0.3480 -2.2367 -0.0971
41556SOL     OW36392  12.126   1.982  12.965  0.2944  0.7471 -0.1729
41556SOL    HW136393  12.186   2.056  12.960  1.1404  0.0591 -0.6021
41556SOL    HW236394  12.110   1.969  13.058  0.8715  0.8987 -0.0492
41557SOL     OW36395  10.517   1.862  11.870  0.3775  0.0112 -0.0297
41557SOL    HW136396  10.564   1.834  11.949  0.7759 -0.3666 -0.3949
41557SOL    HW236397  10.429   1.826  11.881  0.8483 -1.3565 -0.4400
41558SOL     OW36398  11.928   1.220   0.161 -0.1396  0.1814  0.0061
41558SOL    HW136399  11.865   1.281   0.122 -1.5581 -0.1350  1.6610
41558SOL    HW236400  11.957   1.165   0.087 -1.3722  0.7170 -0.9205
41559SOL     OW36401   2.201  13.029   6.087  0.5026 -0.2085 -0.2666
41559SOL    HW136402   2.245  13.100   6.040 -0.5711  0.7699  0.1454
41559SOL    HW236403   2.267  12.960   6.095  1.4895  0.6383 -0.9217
41560SOL     OW36404   3.250   1.478   1.510  0.4462  0.1914 -0.5287
41560SOL    HW136405   3.239   1.545   1.443 -0.2322 -3.0489 -4.0460
41560SOL    HW236406   3.329   1.431   1.483  0.3088 -1.0596  1.1280
41561SOL     OW36407   4.987  10.962  13.181  0.4263 -0.1579 -0.0980
41561SOL    HW136408   5.082  10.955  13.196  0.9415  0.6104 -2.6108
41561SOL    HW236409   4.955  11.008  13.258  2.2053  0.1449  0.5232
41562SOL     OW36410   2.678   0.575   1.040 -0.1730  0.1711  0.0781
41562SOL    HW136411   2.585   0.557   1.055 -0.2947  0.0890 -0.7296
41562SOL    HW236412   2.716   0.578   1.128 -0.9859  0.4784  0.4336
41563SOL     OW36413   2.825  11.881   5.256 -0.0467 -0.1893 -0.4123
41563SOL    HW136414   2.908  11.883   5.303 -0.1469 -2.5655 -0.0189
41563SOL    HW236415   2.848  11.855   5.167 -0.3994 -1.5032 -0.1360
41564SOL     OW36416   3.410  12.724   2.011  0.5511  0.5613 -0.5537
41564SOL    HW136417   3.403  12.819   2.019  0.5254  0.5227 -0.0997
41564SOL    HW236418   3.472  12.710   1.939  2.3473  0.9345  0.8479
41565SOL     OW36419   5.956   7.227   7.561 -0.1949  0.4511  0.1141
41565SOL    HW136420   5.999   7.241   7.646 -1.1593  0.6703  0.5833
41565SOL    HW236421   5.893   7.157   7.578  1.5850 -1.5902 -1.1468
41566SOL     OW36422  10.529   1.979   5.620  0.4626  0.0336  0.4313
41566SOL    HW136423  10.520   2.002   5.527 -0.6391  0.8815  0.7199
41566SOL    HW236424  10.589   2.044   5.655 -1.1162  1.3390  0.8275
41567SOL     OW36425   9.154   8.495   6.080 -0.0623  0.0007 -0.0292
41567SOL    HW136426   9.063   8.503   6.107  0.1334  0.3275  0.5533
41567SOL    HW236427   9.179   8.584   6.053  0.2428  0.0336  0.3475
41568SOL     OW36428   3.364  10.848   8.689 -0.2644 -0.0787 -0.7126
41568SOL    HW136429   3.391  10.797   8.612 -0.1869 -1.7737  0.3937
41568SOL    HW236430   3.443  10.894   8.717  0.0956 -0.6823 -0.7321
41569SOL     OW36431  12.624   9.228   2.344 -0.6689 -0.4898 -0.2990
41569SOL    HW136432  12.568   9.153   2.366 -0.3240 -0.1548  2.0483
41569SOL    HW236433  12.683   9.237   2.419  0.3323  1.1876 -1.2161
41570SOL     OW36434   4.980   8.930  10.788  1.1735 -0.1429 -0.2607
41570SOL    HW136435   4.992   9.019  10.753  1.9142 -0.0497  0.1914
41570SOL    HW236436   4.926   8.885  10.723 -2.0857  1.5923  1.0499
41571SOL     OW36437  13.401  11.081  13.203  0.0095 -0.2127 -0.2048
41571SOL    HW136438  13.438  11.144  13.141  0.3583 -0.4362 -0.2291
41571SOL    HW236439  13.310  11.070  13.176  0.2878 -0.6849 -0.9937
41572SOL     OW36440  11.344  10.492  11.816  0.0920 -0.8811 -0.0654
41572SOL    HW136441  11.351  10.559  11.748  1.9454 -0.5411  0.4132
41572SOL    HW236442  11.266  10.517  11.866 -0.4917 -0.3534 -1.2092
41573SOL     OW36443   9.584   8.766   5.606  0.2748 -0.1135 -0.0950
41573SOL    HW136444   9.546   8.693   5.655  0.6520 -1.0232 -1.1157
41573SOL    HW236445   9.521   8.837   5.616 -0.9245 -1.0875 -0.4104
41574SOL     OW36446   0.913   2.360  10.092  0.2996  0.9253 -0.2401
41574SOL    HW136447   0.950   2.292  10.036 -0.5005  0.3845 -0.1162
41574SOL    HW236448   0.952   2.345  10.178 -0.5642  0.0354  0.0170
41575SOL     OW36449  10.229  13.152   1.789  0.0795  0.1134  0.2672
41575SOL    HW136450  10.317  13.162   1.826  0.3442  2.7958 -0.8293
41575SOL    HW236451  10.177  13.116   1.860  1.4605  1.1337  1.8683
41576SOL     OW36452   6.281   5.556   8.955  0.6740  0.2284  0.2554
41576SOL    HW136453   6.238   5.507   8.886 -0.1093  2.4866 -0.9613
41576SOL    HW236454   6.369   5.519   8.960  0.8084  0.1040 -2.1053
41577SOL     OW36455   1.617  13.719   1.852  0.3590  0.0583 -0.8366
41577SOL    HW136456   1.591  13.637   1.894 -0.0127  0.6364  0.1033
41577SOL    HW236457   1.537  13.749   1.808 -0.1584  0.9871  0.6471
41578SOL     OW36458   1.856   2.510  10.521 -0.0584 -0.3598  0.7674
41578SOL    HW136459   1.841   2.551  10.606  2.5109 -2.0786  2.1686
41578SOL    HW236460   1.823   2.421  10.531  1.4841 -0.9971  0.4778
41579SOL     OW36461   1.797   8.069   2.184 -0.0061 -0.1515  0.0689
41579SOL    HW136462   1.793   8.159   2.152  0.4774 -0.3010 -0.4237
41579SOL    HW236463   1.887   8.041   2.168 -0.4642 -1.1368 -0.9573
41580SOL     OW36464   9.733   0.129   5.550  0.3603  0.2275  0.3639
41580SOL    HW136465   9.658   0.102   5.603 -0.3542 -3.2120 -1.9979
41580SOL    HW236466   9.710   0.216   5.518 -1.0310  0.6543  2.3462
41581SOL     OW36467   0.545  12.562   2.107  0.0271  0.2662  0.1720
41581SOL    HW136468   0.570  12.654   2.116  0.3048  0.5130 -2.4387
41581SOL    HW236469   0.451  12.564   2.090  0.3610  0.2870 -1.9212
41582SOL     OW36470  11.182   2.339   8.075  0.1636  0.0995  0.1551
41582SOL    HW136471  11.273   2.367   8.084  0.1101 -0.0994  1.5750
41582SOL    HW236472  11.148   2.339   8.165 -1.1633 -0.0865 -0.3183
41583SOL     OW36473  10.504  10.742  10.934 -0.5801  0.5753 -0.2100
41583SOL    HW136474  10.533  10.787  10.855 -1.9391  0.7570 -0.6325
41583SOL    HW236475  10.422  10.699  10.909  0.2109 -1.4492  0.4228
41584SOL     OW36476   7.106   8.558  10.503  0.3669  0.3173 -0.6102
41584SOL    HW136477   7.168   8.497  10.543 -2.0672 -0.1186  3.0533
41584SOL    HW236478   7.117   8.639  10.553 -2.2697  0.0185  0.6541
41585SOL     OW36479   0.782  12.681   0.134  0.6361 -0.0044 -0.2353
41585SOL    HW136480   0.740  12.631   0.064 -0.3813  1.4516 -0.7060
41585SOL    HW236481   0.764  12.631   0.214 -1.4486  0.2107 -0.5214
41586SOL     OW36482   3.366   0.971   7.629 -0.6787  0.8111  0.3048
41586SOL    HW136483   3.386   0.970   7.535 -2.4875 -3.6816 -0.2723
41586SOL    HW236484   3.286   1.023   7.635 -2.0015 -0.9207 -1.1652
41587SOL     OW36485   7.680   1.584  13.698 -0.4208  0.6759 -0.7568
41587SOL    HW136486   7.655   1.631  13.778 -1.1931  1.1747 -1.2704
41587SOL    HW236487   7.738   1.644  13.652 -0.8449  0.8513 -1.0765
41588SOL     OW36488   4.315   0.426  11.036  0.0986  0.3429  0.0264
41588SOL    HW136489   4.395   0.408  10.988 -0.3117  0.3735 -0.6868
41588SOL    HW236490   4.302   0.521  11.027 -1.2344  0.0364 -1.8652
41589SOL     OW36491   8.068   5.216  11.319  0.3927 -0.0937  0.4172
41589SOL    HW136492   8.056   5.230  11.225  1.8986  0.3910  0.2663
41589SOL    HW236493   8.159   5.189  11.328 -0.3356 -2.4611  1.5236
41590SOL     OW36494   8.022  11.097   1.657  0.0671  0.2968  0.1462
41590SOL    HW136495   7.947  11.039   1.641 -0.8932  0.3660  3.5088
41590SOL    HW236496   8.098  11.039   1.653 -0.6971 -0.8873  1.5651
41591SOL     OW36497   0.553   7.552   7.643 -0.0331  0.1103 -0.2029
41591SOL    HW136498   0.645   7.555   7.618 -0.0162  1.9803 -0.0154
41591SOL    HW236499   0.517   7.480   7.591  1.5815 -0.8823 -0.0187
41592SOL     OW36500  11.237   3.469  12.981 -0.5851  0.5846 -0.1947
41592SOL    HW136501  11.266   3.544  12.928  0.1036  0.6381  0.2425
41592SOL    HW236502  11.150   3.448  12.948 -0.9271  1.7887 -0.0962
41593SOL     OW36503  11.595  13.405   3.205 -0.0152 -0.5088  0.0435
41593SOL    HW136504  11.686  13.419   3.179  0.5573 -0.3907  2.0012
41593SOL    HW236505  11.599  13.380   3.297 -1.9741 -0.4156  0.2005
41594SOL     OW36506   7.491  11.590   1.629 -0.0593  0.2877  0.6480
41594SOL    HW136507   7.529  11.639   1.702 -0.4502  0.9349  0.4277
41594SOL    HW236508   7.447  11.657   1.576  0.4772 -0.1228 -0.3437
41595SOL     OW36509   8.097   6.945   7.420  0.1163  0.1209  0.2058
41595SOL    HW136510   8.082   6.893   7.341 -2.0035  0.7531  0.1404
41595SOL    HW236511   8.081   7.035   7.394 -0.6082  0.3455  1.3307
41596SOL     OW36512  11.345  11.090   5.375  0.3656  0.1693  0.4585
41596SOL    HW136513  11.346  11.012   5.319 -0.1432  0.4693  0.0186
41596SOL    HW236514  11.381  11.160   5.319 -0.3639  0.5228  0.4172
41597SOL     OW36515   9.996   2.681  11.744 -0.5855 -0.2415 -0.9173
41597SOL    HW136516   9.941   2.610  11.712 -1.5991 -0.0911  0.4163
41597SOL    HW236517   9.956   2.707  11.826  0.0371  1.5794 -1.1509
41598SOL     OW36518   3.247   2.884  13.651 -0.0332  0.1827  0.4646
41598SOL    HW136519   3.286   2.915  13.569 -2.5421  1.6089 -0.3096
41598SOL    HW236520   3.185   2.816  13.623 -0.4025  0.1850  1.2564
41599SOL     OW36521   0.160   3.239   9.611  0.4403 -0.5127  0.1897
41599SOL    HW136522   0.095   3.296   9.652  0.2599  1.9494 -3.1170
41599SOL    HW236523   0.244   3.278   9.634  0.6999 -1.9222  1.9226
41600SOL     OW36524  12.560   9.897  11.435 -0.3838 -0.3851  0.4435
41600SOL    HW136525  12.475   9.860  11.410 -0.9936  0.7389  0.7814
41600SOL    HW236526  12.559   9.899  11.530  0.8616 -2.2037  0.5530
41601SOL     OW36527   0.720   1.717   5.418  0.5628 -0.5065 -0.4299
41601SOL    HW136528   0.748   1.707   5.327  0.2008  0.5278 -0.6698
41601SOL    HW236529   0.647   1.779   5.414  0.2426 -0.8039  0.5191
41602SOL     OW36530   9.626   3.248   8.929  0.3772 -0.5053 -0.1026
41602SOL    HW136531   9.640   3.153   8.923  1.2799 -0.2625 -2.9351
41602SOL    HW236532   9.712   3.284   8.949 -0.3421 -0.3207  3.2334
41603SOL     OW36533  11.697   9.320   5.346 -0.0772 -0.7354  0.1578
41603SOL    HW136534  11.701   9.383   5.275  0.1215 -1.5119 -0.5413
41603SOL    HW236535  11.637   9.252   5.314  0.1159 -1.1538  0.6722
41604SOL     OW36536  12.833   3.060   6.532  0.0569 -0.0614  0.5031
41604SOL    HW136537  12.865   3.143   6.496  0.8899  0.8518  3.1725
41604SOL    HW236538  12.909   3.002   6.529 -0.4300 -0.6928 -1.0163
41605SOL     OW36539   3.265   2.340   6.824  0.0106  0.4226 -0.1306
41605SOL    HW136540   3.336   2.304   6.878 -0.0092  1.8999  0.9357
41605SOL    HW236541   3.283   2.306   6.736  1.5128  0.0244  0.2921
41606SOL     OW36542   5.443  11.517   3.442 -0.7776  0.0789  0.2559
41606SOL    HW136543   5.511  11.488   3.382  0.0839  0.5680  0.9636
41606SOL    HW236544   5.449  11.455   3.516  1.5840  2.3060  2.1343
41607SOL     OW36545  13.385   8.209  11.272  0.1024  0.0888  0.8126
41607SOL    HW136546  13.441   8.182  11.200 -1.3706 -0.5040 -0.1352
41607SOL    HW236547  13.342   8.129  11.301 -0.8563  0.6617  1.0047
41608SOL     OW36548  13.094  10.677  12.482  0.3620  0.0617  0.4724
41608SOL    HW136549  13.080  10.771  12.496 -0.3579  0.3600 -1.7848
41608SOL    HW236550  13.020  10.650  12.428  1.8328 -1.2568 -0.9836
41609SOL     OW36551   2.918  10.173   6.724 -0.1301  0.3639 -0.3349
41609SOL    HW136552   2.923  10.249   6.782 -1.6513  1.2023 -1.2468
41609SOL    HW236553   3.009  10.161   6.694  0.0123  2.5168 -0.9906
41610SOL     OW36554   2.349  10.395   8.246 -0.2023 -0.3703  0.1860
41610SOL    HW136555   2.327  10.468   8.188 -0.8527  0.3410  1.2997
41610SOL    HW236556   2.344  10.431   8.334  0.2755 -1.5597  0.7296
41611SOL     OW36557  13.683   5.709   8.119 -0.4700 -0.3948 -0.0076
41611SOL    HW136558  13.617   5.750   8.175 -0.5619 -0.4512 -0.0734
41611SOL    HW236559  13.745   5.669   8.179  2.5418  4.1346  0.3371
41612SOL     OW36560   3.801   8.743   4.474 -0.7121  0.1596  0.3275
41612SOL    HW136561   3.843   8.815   4.522 -0.3392 -0.4131  0.8755
41612SOL    HW236562   3.861   8.723   4.403  0.5135 -1.3429  1.6997
41613SOL     OW36563   2.621   1.720  12.564  0.3243 -1.2547  0.5445
41613SOL    HW136564   2.535   1.712  12.522  0.5826 -0.3070 -0.1953
41613SOL    HW236565   2.617   1.804  12.611  2.1306  0.8550 -2.7073
41614SOL     OW36566   3.664   9.376   3.188 -0.3576 -0.5185 -0.0658
41614SOL    HW136567   3.597   9.385   3.255  0.8211  1.1957  0.9786
41614SOL    HW236568   3.641   9.442   3.122 -1.9222 -2.6829 -1.8110
41615SOL     OW36569   2.141   0.140   0.352  0.3700  0.0611 -0.2221
41615SOL    HW136570   2.218   0.085   0.366 -0.4572 -0.5824  2.5140
41615SOL    HW236571   2.174   0.230   0.360  1.0790 -0.1519 -0.6615
41616SOL     OW36572   3.176  13.609   7.315 -0.2149 -0.1635  0.0574
41616SOL    HW136573   3.087  13.608   7.280 -0.2200  0.5441  0.0270
41616SOL    HW236574   3.220  13.537   7.270 -1.3863 -2.0575  1.7848
41617SOL     OW36575   6.294  11.507   7.638  0.1661  0.3125 -0.3705
41617SOL    HW136576   6.207  11.496   7.599  0.2998 -0.1130 -0.5524
41617SOL    HW236577   6.354  11.465   7.576  0.5926  1.2648 -0.6220
41618SOL     OW36578   6.356   0.812   3.064 -0.8890  0.1021  0.3624
41618SOL    HW136579   6.263   0.788   3.062 -1.2594  1.4397  0.3128
41618SOL    HW236580   6.401   0.739   3.020 -2.0620  0.0526 -0.7996
41619SOL     OW36581  10.281   7.032   6.312  0.4819  0.1648  0.0825
41619SOL    HW136582  10.274   6.990   6.226 -1.9897  0.0417  0.2721
41619SOL    HW236583  10.308   6.961   6.370 -0.5570 -0.4293 -0.1375
41620SOL     OW36584   6.106   6.378   5.732  0.0083  0.3101  0.1618
41620SOL    HW136585   6.105   6.378   5.828  1.1000 -1.2005  0.2031
41620SOL    HW236586   6.160   6.454   5.708 -0.3086  0.7238  0.7223
41621SOL     OW36587   7.019   8.647   6.716  0.1926  0.8232 -0.0466
41621SOL    HW136588   6.962   8.675   6.644  3.1247  0.6124 -2.6919
41621SOL    HW236589   7.097   8.702   6.708  2.0066 -1.4261  0.8128
41622SOL     OW36590  11.855  10.314   3.199  0.2516  0.4475  0.0001
41622SOL    HW136591  11.841  10.223   3.172  0.8661 -0.0928  1.3867
41622SOL    HW236592  11.778  10.335   3.252  0.1324  0.7180 -0.2800
41623SOL     OW36593  10.082   0.246   7.595  0.2533 -0.5503  0.2015
41623SOL    HW136594  10.148   0.179   7.611 -1.1908 -2.3995 -1.1842
41623SOL    HW236595   9.999   0.199   7.593 -1.0258  1.5230  0.7000
41624SOL     OW36596   9.455   2.870  13.579  0.5711  0.5442  0.5628
41624SOL    HW136597   9.493   2.939  13.525  1.1641  0.0577  0.3485
41624SOL    HW236598   9.396   2.823  13.520  2.1876 -0.7983 -0.0658
41625SOL     OW36599   8.199   7.107   8.832  0.6676 -0.1134 -0.3404
41625SOL    HW136600   8.140   7.112   8.757  1.9323 -2.8450 -1.6499
41625SOL    HW236601   8.234   7.196   8.841 -0.9313  0.7229 -1.7594
41626SOL     OW36602   5.251  11.118   1.314 -0.2691 -0.1965 -0.5028
41626SOL    HW136603   5.338  11.088   1.288 -0.9144 -1.3733 -1.3746
41626SOL    HW236604   5.238  11.081   1.402  0.2386  0.2872 -0.2169
41627SOL     OW36605   1.833   1.984  12.427  0.0947 -0.0824 -0.0546
41627SOL    HW136606   1.850   2.063  12.479  1.2898  0.4105 -1.1212
41627SOL    HW236607   1.787   2.017  12.350  1.1455 -0.3140 -0.8006
41628SOL     OW36608   8.178   5.693   7.233  0.4564 -0.7116  0.4560
41628SOL    HW136609   8.204   5.603   7.213 -0.1587 -0.9662  0.7659
41628SOL    HW236610   8.091   5.702   7.194  0.3755 -0.3571  0.7148
41629SOL     OW36611  10.618   9.413  12.949  0.2208 -0.0579  0.2144
41629SOL    HW136612  10.690   9.408  13.012 -0.0296  1.1629  0.6097
41629SOL    HW236613  10.541   9.385  12.999  0.2292 -0.3183  0.0866
41630SOL     OW36614   5.369   0.027   3.048 -0.5193  0.0660  0.4824
41630SOL    HW136615   5.440   0.044   3.109  0.3778  0.7934 -0.7406
41630SOL    HW236616   5.391   0.076   2.969 -1.5501 -0.9927 -0.5202
41631SOL     OW36617  11.038  11.381  10.480  0.4981 -0.1371  0.7667
41631SOL    HW136618  10.982  11.382  10.558 -0.3301 -1.1711  0.2192
41631SOL    HW236619  11.095  11.306  10.493  0.0134 -0.6193  0.1637
41632SOL     OW36620   3.313   2.550  11.465 -0.3376  0.0892 -0.4821
41632SOL    HW136621   3.337   2.476  11.520 -0.8879 -0.0592 -0.4354
41632SOL    HW236622   3.396   2.594  11.446  0.1765 -1.2750 -1.6018
41633SOL     OW36623   9.978   5.908   0.577 -0.1494  0.2709  0.2683
41633SOL    HW136624   9.894   5.896   0.533 -0.2229 -0.5839  0.6174
41633SOL    HW236625   9.961   5.974   0.645 -0.6097 -0.1084  0.5247
41634SOL     OW36626   4.883   3.854   8.466  0.0594 -0.0718 -0.0590
41634SOL    HW136627   4.793   3.880   8.449 -0.1359 -0.4605  0.3481
41634SOL    HW236628   4.935   3.930   8.440 -0.4291  0.3760  0.2331
41635SOL     OW36629   5.969   2.264   1.073  0.9059  0.2274  0.2085
41635SOL    HW136630   6.010   2.259   0.987  0.2109 -1.1395 -0.0749
41635SOL    HW236631   6.009   2.341   1.114  0.2039  1.8133 -1.8695
41636SOL     OW36632  13.683   1.082  10.564 -0.1428  0.2263 -0.4774
41636SOL    HW136633  13.743   1.133  10.509  0.1699 -0.2387 -0.5763
41636SOL    HW236634  13.599   1.128  10.557 -0.8335 -1.2288 -3.4868
41637SOL     OW36635   4.280   5.147   9.450 -0.2081 -0.0554  0.7994
41637SOL    HW136636   4.331   5.213   9.403  0.2664  0.3887  1.9223
41637SOL    HW236637   4.190   5.160   9.420  0.0982  0.1031 -0.1039
41638SOL     OW36638   5.129   1.658   4.704 -0.5137 -0.2231 -0.1698
41638SOL    HW136639   5.075   1.625   4.775 -1.9323 -0.2480 -1.2181
41638SOL    HW236640   5.092   1.744   4.683  1.0476  0.6089  0.3220
41639SOL     OW36641  10.312   9.202   8.674 -0.1459 -0.2980  0.1735
41639SOL    HW136642  10.386   9.189   8.615 -0.5030 -3.5209  0.2148
41639SOL    HW236643  10.252   9.131   8.652 -2.5241  1.2757  1.2133
41640SOL     OW36644  13.662   1.938   0.376 -0.6056  0.7758 -0.2416
41640SOL    HW136645  13.577   1.947   0.419 -1.5841 -2.3229 -1.2559
41640SOL    HW236646  13.695   1.853   0.405 -0.2232 -0.4005 -3.6323
41641SOL     OW36647  11.768  13.110  12.550 -0.1075 -0.0210 -0.2429
41641SOL    HW136648  11.817  13.072  12.477  0.1009  1.4407 -0.9006
41641SOL    HW236649  11.679  13.075  12.541 -0.2799  0.7435 -1.6717
41642SOL     OW36650  13.183   4.713   4.255 -0.5232 -0.3720 -0.4068
41642SOL    HW136651  13.133   4.791   4.234 -0.0097  0.0206 -0.1741
41642SOL    HW236652  13.274   4.737   4.240 -0.4548 -1.5084 -2.2258
41643SOL     OW36653   9.274  13.108   7.732 -0.3335  0.4501  0.3284
41643SOL    HW136654   9.222  13.166   7.677  0.1164 -1.0415 -1.7907
41643SOL    HW236655   9.361  13.148   7.734  0.7871 -1.3066 -3.4433
41644SOL     OW36656   2.845   7.913   1.661 -0.4948 -0.6064  0.1221
41644SOL    HW136657   2.809   7.836   1.703  0.5464 -1.5647 -0.6626
41644SOL    HW236658   2.937   7.891   1.645 -0.4806  0.2834 -1.2547
41645SOL     OW36659  11.104  12.301   1.768 -0.0095 -0.2556 -0.2134
41645SOL    HW136660  11.072  12.216   1.739 -0.5416 -0.2246  0.2590
41645SOL    HW236661  11.175  12.281   1.828 -0.7730 -0.4150  0.6698
41646SOL     OW36662   0.594   9.876   0.407  0.1721  0.1099  0.0426
41646SOL    HW136663   0.629   9.937   0.342 -0.6135  3.5545  2.5607
41646SOL    HW236664   0.499   9.878   0.392  0.0727  0.1853  0.6630
41647SOL     OW36665   4.827  12.571  10.742  0.4266  0.8958  0.1730
41647SOL    HW136666   4.807  12.483  10.774 -0.7752  0.8556 -0.6014
41647SOL    HW236667   4.918  12.586  10.767  0.6202 -0.5237  0.4113
41648SOL     OW36668   3.650  10.690   4.637  0.1857  0.0639  0.6797
41648SOL    HW136669   3.655  10.705   4.731 -1.4038  0.3250  0.7620
41648SOL    HW236670   3.559  10.710   4.615  0.2012 -1.2240 -0.7051
41649SOL     OW36671  10.737  12.317   7.445  0.3354  0.5485 -0.1526
41649SOL    HW136672  10.749  12.287   7.355 -0.3475  1.7353 -0.6722
41649SOL    HW236673  10.648  12.289   7.468 -0.1082  1.6396 -0.4560
41650SOL     OW36674   2.998   1.797   1.565  0.0449 -0.2308 -0.2319
41650SOL    HW136675   3.072   1.827   1.617  0.5092 -1.1972 -0.3030
41650SOL    HW236676   3.034   1.785   1.477 -0.2282 -0.5743 -0.2991
41651SOL     OW36677   0.712  13.030   5.738  0.6700 -0.1581  0.1533
41651SOL    HW136678   0.677  12.941   5.732 -0.6587  0.4171 -1.4318
41651SOL    HW236679   0.638  13.083   5.768  0.9313  0.6610 -0.5995
41652SOL     OW36680   9.494  10.868  11.967  0.1131  0.3408 -0.2046
41652SOL    HW136681   9.418  10.921  11.993  0.6313  0.9225  0.1438
41652SOL    HW236682   9.555  10.930  11.928  0.4670 -0.1009 -0.3580
41653SOL     OW36683  11.432   3.923   4.144 -0.3174 -0.2721 -0.2727
41653SOL    HW136684  11.498   3.965   4.198 -0.1923  0.8058 -1.2440
41653SOL    HW236685  11.367   3.991   4.127 -2.6560 -1.7056  2.0776
41654SOL     OW36686   7.527   5.584   6.117 -0.4098  0.1403  0.8045
41654SOL    HW136687   7.454   5.620   6.167  0.3662  0.4077  1.7698
41654SOL    HW236688   7.603   5.594   6.174  0.8818  2.1591 -1.1159
41655SOL     OW36689  10.381   9.332  12.307  0.4182  0.0270  0.2123
41655SOL    HW136690  10.414   9.374  12.387 -0.6928  0.6718  0.3659
41655SOL    HW236691  10.420   9.383  12.236 -0.9848  1.4613  0.3984
41656SOL     OW36692   3.745   8.055  12.126 -0.1840 -0.3564 -0.4420
41656SOL    HW136693   3.740   8.146  12.157 -0.5153 -0.5180 -0.0093
41656SOL    HW236694   3.828   8.023  12.161  0.0227 -0.1638 -0.7540
41657SOL     OW36695   6.630   7.575  11.019  0.4463  0.1864  0.8991
41657SOL    HW136696   6.565   7.624  11.069 -1.0713  1.0704 -1.7401
41657SOL    HW236697   6.649   7.630  10.943  1.0687 -1.9230 -0.5764
41658SOL     OW36698   8.335   6.540  11.740 -0.3389 -0.0158  0.5122
41658SOL    HW136699   8.296   6.498  11.663 -0.4513  0.0036  0.5593
41658SOL    HW236700   8.376   6.619  11.705  0.3493 -0.4414  0.3322
41659SOL     OW36701   8.471   5.647  13.542  0.7295  0.4679  0.4545
41659SOL    HW136702   8.512   5.729  13.515  0.0034  0.8353  0.4602
41659SOL    HW236703   8.378   5.667  13.547  0.0392 -1.1683 -2.8748
41660SOL     OW36704   5.817  13.227   6.716  0.1919 -0.3714  0.0202
41660SOL    HW136705   5.750  13.285   6.751 -0.2735  1.5921 -3.6204
41660SOL    HW236706   5.891  13.284   6.697  0.9546 -1.5595 -0.7295
41661SOL     OW36707  10.323  13.124   2.117  0.3543  0.0859 -0.1497
41661SOL    HW136708  10.241  13.172   2.108 -0.1132 -0.5371  0.6954
41661SOL    HW236709  10.357  13.149   2.202  1.6235  1.1951 -0.9588
41662SOL     OW36710  11.895   4.796   5.222 -0.1718  0.2795 -0.1398
41662SOL    HW136711  11.958   4.852   5.177 -0.3285  0.8840  0.3776
41662SOL    HW236712  11.814   4.807   5.172  0.1376 -0.5895 -0.8757
41663SOL     OW36713  12.219  10.824   3.909 -0.0950  0.1639 -0.2367
41663SOL    HW136714  12.232  10.919   3.907 -0.7269  0.2580 -0.0313
41663SOL    HW236715  12.296  10.789   3.863 -0.0451  0.7886 -0.6495
41664SOL     OW36716  13.033   6.110   8.611 -0.9882  0.0380 -0.0257
41664SOL    HW136717  12.983   6.034   8.580 -1.5103  0.8241 -1.1662
41664SOL    HW236718  13.116   6.106   8.564  0.6228 -1.8951  2.6786
41665SOL     OW36719   0.188  11.207  10.484  0.1930 -0.4507  0.0064
41665SOL    HW136720   0.145  11.172  10.561  1.2791 -0.8463  0.4606
41665SOL    HW236721   0.124  11.267  10.445 -0.2668 -0.0216  1.3711
41666SOL     OW36722   2.212  13.627   1.055  0.4965  0.5480  0.1682
41666SOL    HW136723   2.174  13.630   0.967 -0.2015  0.4001  0.4609
41666SOL    HW236724   2.234  13.719   1.075 -1.1395  0.8696  0.6027
41667SOL     OW36725   1.580   5.551  10.429 -0.0582  0.0906  0.2509
41667SOL    HW136726   1.652   5.526  10.486  0.4726 -2.0753 -1.2639
41667SOL    HW236727   1.562   5.473  10.376 -2.5880  1.0089 -0.3999
41668SOL     OW36728  13.051   7.134   2.698 -0.0534  0.6879  0.3013
41668SOL    HW136729  13.041   7.049   2.742 -3.0242  1.5533  1.5494
41668SOL    HW236730  12.999   7.126   2.619  2.4080  0.3328 -1.3935
41669SOL     OW36731   3.011  11.864  12.686 -0.4985 -0.1033 -0.2864
41669SOL    HW136732   2.980  11.949  12.656 -0.8055  0.3254  1.1710
41669SOL    HW236733   3.071  11.835  12.618 -0.8951  0.9688 -1.1248
41670SOL     OW36734  12.475   1.417   7.914  0.0297  0.1695  0.0181
41670SOL    HW136735  12.408   1.352   7.897  1.4627 -1.6563  0.9781
41670SOL    HW236736  12.446   1.462   7.993  0.1409 -0.9626  0.7287
41671SOL     OW36737   9.190   1.782   7.735  0.0455  0.3865 -0.5075
41671SOL    HW136738   9.285   1.783   7.750 -0.0651  0.1626  0.2241
41671SOL    HW236739   9.176   1.851   7.670  0.9606 -0.9439 -2.2022
41672SOL     OW36740  10.305   9.780   6.725  0.2861 -0.2268  0.9731
41672SOL    HW136741  10.387   9.734   6.746 -0.3270 -1.0089  1.6928
41672SOL    HW236742  10.272   9.737   6.646 -1.5042 -2.7305  2.9281
41673SOL     OW36743  10.726   4.587  12.978 -0.8954  0.3893 -0.5807
41673SOL    HW136744  10.759   4.569  13.066  1.0433  2.7023 -0.7260
41673SOL    HW236745  10.661   4.656  12.990 -1.4733 -0.0886 -0.8863
41674SOL     OW36746   3.859  12.119  12.495 -0.2500  0.2946  0.2355
41674SOL    HW136747   3.867  12.189  12.430 -0.6428  0.4871  0.3973
41674SOL    HW236748   3.919  12.145  12.565  0.9057 -0.3842 -0.4574
41675SOL     OW36749   7.630   7.198   0.425  0.1859 -0.6530 -0.0254
41675SOL    HW136750   7.589   7.230   0.505  1.8997  0.6911  0.3810
41675SOL    HW236751   7.574   7.126   0.396 -2.5049  1.1695  0.3504
41676SOL     OW36752   3.447  12.500   3.869 -0.3204  0.2112 -0.5777
41676SOL    HW136753   3.517  12.526   3.808 -0.7452  0.7722 -0.8328
41676SOL    HW236754   3.493  12.480   3.950 -0.0094  2.5579 -0.1081
41677SOL     OW36755   1.761   7.092   9.198 -0.1862 -0.0197 -0.2659
41677SOL    HW136756   1.764   7.024   9.265  0.1272 -0.6137 -0.8634
41677SOL    HW236757   1.681   7.142   9.217 -1.0663 -1.2935 -0.5006
41678SOL     OW36758  12.939   2.758  13.084 -0.2216  0.3007 -0.1051
41678SOL    HW136759  12.915   2.665  13.081  0.1646  0.2110 -0.4991
41678SOL    HW236760  12.861   2.803  13.052 -1.0271  0.2360  1.6734
41679SOL     OW36761   4.970   2.570  12.620  0.7609 -0.1111  0.4192
41679SOL    HW136762   5.065   2.577  12.630  1.0045  1.8715 -2.4174
41679SOL    HW236763   4.935   2.649  12.661  0.2210 -1.0767  1.9123
41680SOL     OW36764   6.276   6.169   9.889 -0.2285  0.6658  0.2114
41680SOL    HW136765   6.325   6.244   9.856 -0.7750  1.4901  1.2115
41680SOL    HW236766   6.256   6.191   9.980 -1.3909 -0.1796  0.1904
41681SOL     OW36767  12.338  11.254   7.073 -0.0729 -0.5274 -0.4481
41681SOL    HW136768  12.404  11.323   7.061  0.7993 -1.3305 -0.4276
41681SOL    HW236769  12.277  11.290   7.136  0.5332  0.1183 -0.2105
41682SOL     OW36770  13.325  11.892   5.678 -0.5258 -0.3408 -0.0388
41682SOL    HW136771  13.334  11.985   5.695 -2.5427  0.0548 -0.8860
41682SOL    HW236772  13.288  11.856   5.759 -0.5127 -0.2659  0.0007
41683SOL     OW36773  11.097  10.222   2.245  0.3665  0.8313  0.3153
41683SOL    HW136774  11.110  10.305   2.291 -0.6764  1.0105  0.3254
41683SOL    HW236775  11.099  10.245   2.152  0.4206  0.8115  0.3115
41684SOL     OW36776   4.043  10.615   3.247  0.6423 -0.8311 -0.9841
41684SOL    HW136777   4.005  10.530   3.269  1.0493 -0.9358 -0.6739
41684SOL    HW236778   4.104  10.596   3.176 -0.7168 -0.4837 -2.2971
41685SOL     OW36779   4.256  12.544   5.852  0.1636  0.5841 -0.3337
41685SOL    HW136780   4.343  12.504   5.851 -0.6031 -1.1755  0.0774
41685SOL    HW236781   4.247  12.584   5.766 -0.1481 -2.7055 -1.9641
41686SOL     OW36782  11.052  10.147   8.914  0.1381 -0.2345  0.4973
41686SOL    HW136783  11.138  10.121   8.882  0.8492  0.1289  2.0538
41686SOL    HW236784  11.006  10.064   8.927 -0.4060 -0.3893 -1.9390
41687SOL     OW36785  10.563   2.937   4.848 -0.5350 -0.2861 -0.1386
41687SOL    HW136786  10.493   2.941   4.914 -1.5111  0.8231 -1.2010
41687SOL    HW236787  10.547   2.855   4.801 -0.8754 -0.2454 -0.0977
41688SOL     OW36788   2.528   4.789  13.662 -0.3054  0.3387 -0.4161
41688SOL    HW136789   2.587   4.715  13.648 -1.5716 -0.3434 -2.6721
41688SOL    HW236790   2.457   4.754  13.716 -0.2834  0.2326 -0.4549
41689SOL     OW36791   7.712   8.854  12.025 -0.2743  0.0414  0.0404
41689SOL    HW136792   7.746   8.820  12.108  0.1888  0.7481  0.1482
41689SOL    HW236793   7.658   8.929  12.050  0.2556  0.5504 -0.3290
41690SOL     OW36794  11.531   6.660   4.032 -0.4372  0.1346 -0.2521
41690SOL    HW136795  11.564   6.597   4.096  0.1163  0.2985 -0.3740
41690SOL    HW236796  11.595   6.658   3.961 -1.2083 -0.2910 -0.9681
41691SOL     OW36797   4.773   9.387   0.878 -0.1866 -0.2226 -0.2097
41691SOL    HW136798   4.790   9.380   0.784  0.3061  0.5283 -0.1844
41691SOL    HW236799   4.705   9.321   0.895 -2.3453  1.5016 -1.6155
41692SOL     OW36800   1.799  12.274   7.997  0.4477 -0.3986 -0.2683
41692SOL    HW136801   1.713  12.243   8.024  1.1681 -2.0018  0.2929
41692SOL    HW236802   1.859  12.243   8.065  1.7833 -1.3455 -1.7814
41693SOL     OW36803  11.012   4.155  10.562  0.0198 -0.1375  0.1230
41693SOL    HW136804  11.071   4.171  10.636  0.8978 -0.5375 -0.4875
41693SOL    HW236805  11.058   4.093  10.506 -0.9739 -0.4526 -0.3783
41694SOL     OW36806  13.118   7.646   9.575  0.1773 -0.0348 -0.3608
41694SOL    HW136807  13.049   7.681   9.518 -1.4194 -0.6417  1.1125
41694SOL    HW236808  13.111   7.698   9.655  0.4211 -1.0937  0.3685
41695SOL     OW36809   7.201   3.879  13.405 -0.0534 -0.4175 -0.4698
41695SOL    HW136810   7.148   3.817  13.454 -0.0769  0.6286  0.8713
41695SOL    HW236811   7.150   3.960  13.405  0.4623 -0.0798 -1.2560
41696SOL     OW36812   9.947  10.042   6.505  0.5616  0.4546  0.0075
41696SOL    HW136813   9.963  10.126   6.463  0.0392  0.5598  0.0071
41696SOL    HW236814   9.856  10.020   6.481 -0.3411  1.2950  2.3742
41697SOL     OW36815   7.824   7.969  13.442  0.2120  0.2463  0.3027
41697SOL    HW136816   7.830   8.062  13.465 -3.1103  0.7851 -0.5727
41697SOL    HW236817   7.771   7.930  13.512 -0.8861 -0.3430 -0.8249
41698SOL     OW36818   2.116   7.276   5.263 -0.3842 -0.1556 -0.8229
41698SOL    HW136819   2.128   7.338   5.334  0.9423 -0.7943 -0.4600
41698SOL    HW236820   2.027   7.292   5.232 -1.1146 -0.1038  1.1942
41699SOL     OW36821   3.169   7.576  11.625  0.4057 -0.0804  0.4108
41699SOL    HW136822   3.133   7.656  11.587  0.0618 -0.4211  0.0110
41699SOL    HW236823   3.223   7.607  11.698 -0.9299  0.4159  1.2153
41700SOL     OW36824   2.047   7.185  13.692  0.3792 -0.4092  0.3553
41700SOL    HW136825   2.070   7.276  13.710 -0.7662 -0.1799  0.7350
41700SOL    HW236826   1.982   7.163  13.759  1.0898 -1.7070  0.6517
41701SOL     OW36827   6.660   1.289   4.226 -0.5083 -0.1021  0.2699
41701SOL    HW136828   6.576   1.289   4.180 -0.7103  1.4156  0.5777
41701SOL    HW236829   6.641   1.330   4.311  0.4436 -0.1936  0.5356
41702SOL     OW36830  13.052   6.985   3.968  0.0706 -0.0392 -0.1666
41702SOL    HW136831  13.144   7.011   3.957  0.0912  0.4246  0.9164
41702SOL    HW236832  13.003   7.054   3.923  0.2480 -0.3124 -0.7893
41703SOL     OW36833   4.932   0.259   2.664 -0.2947  0.5550 -0.1958
41703SOL    HW136834   4.953   0.229   2.575 -1.9675 -0.7318 -0.2017
41703SOL    HW236835   4.928   0.178   2.716  2.6914  1.3980  1.5935
41704SOL     OW36836  10.213  12.381   8.989 -0.2496 -0.5791 -0.4612
41704SOL    HW136837  10.126  12.392   9.027  0.1166  2.6872 -0.2650
41704SOL    HW236838  10.202  12.312   8.924 -2.9226 -0.4179 -0.2952
41705SOL     OW36839   0.215   1.092  12.230 -0.2421  1.0357 -0.2257
41705SOL    HW136840   0.143   1.148  12.257 -0.5090  0.4378  0.3255
41705SOL    HW236841   0.259   1.141  12.160 -1.2589  1.3433 -0.6655
41706SOL     OW36842   8.238   1.340   4.761  0.2667  0.1568 -0.6385
41706SOL    HW136843   8.143   1.339   4.768  0.2441 -2.3502 -0.4596
41706SOL    HW236844   8.258   1.274   4.695  1.9146  0.6082 -0.6509
41707SOL     OW36845   9.345  12.638   4.234 -0.1341  0.0922  0.1600
41707SOL    HW136846   9.391  12.697   4.293  1.0231 -0.1065 -0.5153
41707SOL    HW236847   9.350  12.553   4.278 -0.9047  0.2799  0.6402
41708SOL     OW36848   2.065  11.889  11.262  0.0930  0.4284  0.5281
41708SOL    HW136849   1.990  11.830  11.259  0.8621 -0.5892  0.7332
41708SOL    HW236850   2.127  11.846  11.321  0.8693  1.2106  0.3066
41709SOL     OW36851  12.064  12.931  11.471 -0.2088  0.3104  0.4069
41709SOL    HW136852  12.027  12.843  11.470 -0.5719  0.4212  1.5988
41709SOL    HW236853  11.991  12.989  11.451 -0.0705  0.3709  0.0707
41710SOL     OW36854   7.787   2.647   9.520  0.1450 -0.0235 -0.7133
41710SOL    HW136855   7.777   2.655   9.425  1.0703  0.2303 -0.8101
41710SOL    HW236856   7.703   2.674   9.556 -0.3726 -0.5918 -1.4789
41711SOL     OW36857   5.961   1.438  13.381 -0.4123  0.2179 -0.2193
41711SOL    HW136858   5.921   1.383  13.313 -1.2711  0.4589  0.0886
41711SOL    HW236859   5.994   1.514  13.333  0.6081 -0.4476 -0.6209
41712SOL     OW36860   7.056   9.022  11.974 -0.4622  0.2113  0.5648
41712SOL    HW136861   7.043   9.116  11.977  0.7066  0.5081 -1.8236
41712SOL    HW236862   7.014   8.994  11.893 -0.4549 -1.2845  1.0453
41713SOL     OW36863   2.883   1.835   9.237 -0.3456  0.2341 -0.2880
41713SOL    HW136864   2.823   1.895   9.192 -0.3741 -0.0410 -0.6161
41713SOL    HW236865   2.903   1.768   9.173 -2.1190 -1.4135  0.7464
41714SOL     OW36866   0.797   6.077  13.266  0.1818 -0.1713  0.0613
41714SOL    HW136867   0.857   6.095  13.193  0.0074  0.5391  0.0907
41714SOL    HW236868   0.854   6.066  13.342  0.4271 -1.7402 -0.3195
41715SOL     OW36869   6.794  13.699   6.619 -0.1961  0.5104 -0.1559
41715SOL    HW136870   6.830  13.640   6.685  0.6043  0.0368 -0.9909
41715SOL    HW236871   6.764  13.641   6.549 -0.3883  1.0388 -0.5183
41716SOL     OW36872   6.493   1.625   0.179  0.7813 -0.4256 -0.4602
41716SOL    HW136873   6.583   1.607   0.207  0.1263 -0.5530  1.7333
41716SOL    HW236874   6.445   1.545   0.200 -0.2223  0.3373  0.2513
41717SOL     OW36875  10.373   5.111   1.189 -0.6135  0.1610  0.0262
41717SOL    HW136876  10.416   5.082   1.108  0.7142  0.8850  0.4424
41717SOL    HW236877  10.352   5.203   1.173  0.1136  0.4424  0.6890
41718SOL     OW36878  12.998   5.745   4.754 -0.3659 -0.1642  0.1115
41718SOL    HW136879  12.964   5.788   4.675 -3.2592 -1.2685  0.6572
41718SOL    HW236880  12.941   5.774   4.824  1.2435 -0.3880  1.5859
41719SOL     OW36881  12.780   3.267   8.429 -0.6468  0.0520 -0.4384
41719SOL    HW136882  12.769   3.317   8.510  0.9901  1.3671 -0.9550
41719SOL    HW236883  12.732   3.318   8.363 -0.9771 -0.3640 -0.5206
41720SOL     OW36884   7.583   7.297   4.341  0.5698 -0.2139  0.0503
41720SOL    HW136885   7.677   7.314   4.338  0.5933 -0.3895 -0.2588
41720SOL    HW236886   7.570   7.249   4.423  1.0329 -1.8027 -0.7525
41721SOL     OW36887   9.562   0.739   5.231  0.0822 -0.0490  0.2773
41721SOL    HW136888   9.478   0.723   5.274 -0.1621 -2.9457 -1.0652
41721SOL    HW236889   9.624   0.753   5.303 -1.2939  1.0146  1.3145
41722SOL     OW36890  12.455  13.454   2.651  0.3073 -0.2298  0.3148
41722SOL    HW136891  12.525  13.422   2.709 -1.2309 -0.9499  1.8540
41722SOL    HW236892  12.411  13.522   2.702 -2.0657 -1.9672  0.7243
41723SOL     OW36893  11.523   4.187  12.829 -0.3237  0.0008 -0.1652
41723SOL    HW136894  11.456   4.121  12.812 -0.1319  0.3044 -2.4224
41723SOL    HW236895  11.601   4.136  12.851 -0.8989 -0.4016  1.0217
41724SOL     OW36896   0.965   2.050   7.750  0.5351 -0.1321 -0.1874
41724SOL    HW136897   1.057   2.052   7.776  0.4909 -0.7771  0.0176
41724SOL    HW236898   0.917   2.077   7.828  0.5235 -0.2055 -0.1690
41725SOL     OW36899  13.601  10.170  12.359 -0.1978 -0.3927  0.0692
41725SOL    HW136900  13.636  10.205  12.278  0.0920 -0.5028  0.1422
41725SOL    HW236901  13.592  10.246  12.417  0.3259 -0.4139  0.1923
41726SOL     OW36902   5.251  11.990   7.942  0.4813 -0.1623  0.2281
41726SOL    HW136903   5.270  11.971   7.850 -1.0384  1.4601 -0.4693
41726SOL    HW236904   5.333  12.027   7.976  1.2604 -1.3590 -0.2548
41727SOL     OW36905   5.304   0.219  11.572 -0.0296  0.0885  0.5277
41727SOL    HW136906   5.283   0.263  11.654 -1.4427 -0.7478  0.6443
41727SOL    HW236907   5.224   0.227  11.519  0.5516 -0.1683 -0.4157
41728SOL     OW36908   7.867  11.535   2.166 -0.1069  0.3664 -0.1365
41728SOL    HW136909   7.870  11.539   2.071 -1.0721 -0.3534 -0.2158
41728SOL    HW236910   7.777  11.508   2.186 -0.1947  1.4209  1.0178
41729SOL     OW36911   2.643  12.855   9.465  0.2063 -0.0350 -0.2011
41729SOL    HW136912   2.656  12.844   9.371  0.4837  1.4780 -0.3761
41729SOL    HW236913   2.592  12.936   9.472  1.4189  0.6654  0.9959
41730SOL     OW36914   3.456  12.564   6.303  0.2556 -0.3319 -0.4251
41730SOL    HW136915   3.483  12.481   6.341 -0.7612 -0.5209 -0.0746
41730SOL    HW236916   3.468  12.553   6.209  0.6711 -0.6609 -0.3356
41731SOL     OW36917   3.512   2.335  13.682 -0.4712  0.3873  0.0819
41731SOL    HW136918   3.588   2.387  13.710  0.0731 -1.6361  2.7596
41731SOL    HW236919   3.548   2.275  13.617 -0.8498  2.3826 -2.1020
41732SOL     OW36920   4.764   5.292   0.488 -0.2209 -0.1451  0.0359
41732SOL    HW136921   4.677   5.259   0.513 -0.1000 -0.5227 -0.0364
41732SOL    HW236922   4.807   5.311   0.571 -0.5026  0.3966  0.0662
41733SOL     OW36923   8.417   7.686   5.497 -0.1997  0.5173  0.1291
41733SOL    HW136924   8.385   7.699   5.408  0.2015  3.1331  0.2819
41733SOL    HW236925   8.403   7.593   5.514 -2.6464  0.4319 -1.7450
41734SOL     OW36926   7.522   8.500  13.565  0.2371 -0.3790 -0.2329
41734SOL    HW136927   7.442   8.496  13.513  0.3198 -1.2537 -0.3107
41734SOL    HW236928   7.551   8.409  13.571  0.6120 -0.2045  0.7548
41735SOL     OW36929  13.312   7.643   9.962  0.0238  0.4261 -0.2571
41735SOL    HW136930  13.351   7.646   9.874 -0.3918 -1.8115 -0.6047
41735SOL    HW236931  13.384   7.665  10.021  1.5221 -2.0417 -0.9705
41736SOL     OW36932   4.244   4.055   9.158  0.0801 -0.3139  0.9998
41736SOL    HW136933   4.328   4.026   9.122  0.3795  0.2458  1.2233
41736SOL    HW236934   4.255   4.048   9.253 -0.0690 -0.1048  1.0346
41737SOL     OW36935  11.818   9.195   4.052 -0.0984  0.0794  0.2827
41737SOL    HW136936  11.800   9.193   4.146  2.3789 -1.5206  0.8031
41737SOL    HW236937  11.781   9.113   4.018  1.0129 -0.4394  0.3032
41738SOL     OW36938   0.865   0.780   2.982 -0.1057 -0.5390 -0.0697
41738SOL    HW136939   0.898   0.691   2.970 -0.0455 -0.4338 -0.6996
41738SOL    HW236940   0.787   0.785   2.927  1.2480  0.5468 -2.0001
41739SOL     OW36941   1.446   2.497   1.835  0.0269  0.1076  0.2433
41739SOL    HW136942   1.502   2.421   1.820  0.7322  0.9372 -1.6239
41739SOL    HW236943   1.363   2.474   1.794  0.7384  0.8883 -1.7569
41740SOL     OW36944   2.382   6.861   4.726  1.0350 -0.1967 -0.4585
41740SOL    HW136945   2.302   6.846   4.675  1.2695 -1.9738 -0.3664
41740SOL    HW236946   2.357   6.844   4.816  1.4968 -0.7394 -0.4256
41741SOL     OW36947  10.024  10.951  11.484  0.1490  0.4969 -0.3599
41741SOL    HW136948   9.950  10.967  11.543  1.5070 -0.1933  1.6248
41741SOL    HW236949  10.036  11.034  11.438 -1.2706  0.8990 -0.0660
41742SOL     OW36950  12.959   5.290   3.867  0.5906  0.0094  0.2571
41742SOL    HW136951  12.889   5.333   3.818  1.2740 -0.4887 -1.1992
41742SOL    HW236952  12.920   5.210   3.901 -0.4000  1.2281  2.1141
41743SOL     OW36953   8.481  11.777  10.105  0.1514  0.0475 -0.0934
41743SOL    HW136954   8.494  11.809  10.194 -2.1248  1.3273 -0.1465
41743SOL    HW236955   8.452  11.854  10.056  0.6644 -0.7923 -1.7988
41744SOL     OW36956   4.138  12.486   6.771  0.5795 -0.0190  0.0323
41744SOL    HW136957   4.113  12.395   6.752 -0.0812  0.5789 -2.2992
41744SOL    HW236958   4.166  12.521   6.687 -2.1985  2.8253  0.1022
41745SOL     OW36959   4.094   2.383   4.920 -0.2292  0.5304  0.0420
41745SOL    HW136960   4.078   2.432   5.002  0.5036  0.1359  0.4274
41745SOL    HW236961   4.148   2.442   4.867  1.4294 -0.1821  0.8748
41746SOL     OW36962   5.300   4.630   9.798 -0.4815 -0.2906  0.0096
41746SOL    HW136963   5.257   4.552   9.763  0.6311 -1.0780  0.3252
41746SOL    HW236964   5.243   4.702   9.772 -0.8058 -1.0492 -1.5378
41747SOL     OW36965  11.491   7.422  11.215 -0.2032 -0.5308 -0.0110
41747SOL    HW136966  11.429   7.351  11.200 -0.2886 -0.4324 -0.1290
41747SOL    HW236967  11.469   7.487  11.148  0.1757 -0.5929 -0.1941
41748SOL     OW36968   4.405   2.757   6.871 -0.1217  0.0314  0.4875
41748SOL    HW136969   4.386   2.725   6.959 -1.4651 -2.2371 -0.5033
41748SOL    HW236970   4.319   2.766   6.830  0.5178 -0.5127 -1.0596
41749SOL     OW36971  11.818  12.839   8.628  0.0833  0.0354  0.2565
41749SOL    HW136972  11.816  12.872   8.717 -0.5137 -0.9559  0.6287
41749SOL    HW236973  11.730  12.805   8.612  0.7846 -1.9083  0.1523
41750SOL     OW36974   1.800   9.216  12.354  0.2747  0.4508 -0.0896
41750SOL    HW136975   1.830   9.307  12.362  0.2601  0.6402 -1.7592
41750SOL    HW236976   1.878   9.167  12.328 -0.2575  0.4931 -1.8995
41751SOL     OW36977  10.989   3.965   1.788  0.1586 -0.2293  0.1456
41751SOL    HW136978  11.003   3.912   1.710 -1.0587 -1.1476  0.5099
41751SOL    HW236979  10.921   3.918   1.837 -0.7361  1.4921  0.6553
41752SOL     OW36980   4.225  13.505   8.753  0.3507 -0.5391  0.0213
41752SOL    HW136981   4.270  13.562   8.815 -0.5045 -0.5256  0.6489
41752SOL    HW236982   4.244  13.543   8.667  0.4684  0.2051  0.3702
41753SOL     OW36983   1.093   3.428   6.722  0.5773 -0.2321 -0.3589
41753SOL    HW136984   1.169   3.369   6.725 -0.3542 -1.4277  0.7463
41753SOL    HW236985   1.035   3.388   6.657  0.0848 -0.3673  0.1568
41754SOL     OW36986   9.713   2.202  12.603 -0.3229  0.0563 -0.1269
41754SOL    HW136987   9.691   2.117  12.565 -1.2629  0.0242  0.4476
41754SOL    HW236988   9.794   2.187  12.651 -0.9674 -0.7644  0.7450
41755SOL     OW36989  10.955   3.197   6.381  0.1741  0.2812 -0.1616
41755SOL    HW136990  11.015   3.266   6.353 -1.2409  1.7664  0.3271
41755SOL    HW236991  11.012   3.124   6.407  1.6494  0.4063 -2.7743
41756SOL     OW36992   3.553   5.051   6.938  0.6363 -0.2266  0.4910
41756SOL    HW136993   3.516   5.075   6.853  1.7034 -2.4451 -0.7221
41756SOL    HW236994   3.578   5.134   6.978 -1.7002  1.0185 -0.4689
41757SOL     OW36995  12.945   9.099   3.558 -0.6017 -0.0775  0.0536
41757SOL    HW136996  12.985   9.173   3.604 -0.7701  0.2879 -0.3787
41757SOL    HW236997  12.853   9.102   3.584 -0.5325 -0.3712  0.3388
41758SOL     OW36998   4.817  12.342   9.836 -0.1638  0.2041 -0.4576
41758SOL    HW136999   4.868  12.375   9.762  2.1856  1.8998  1.7167
41758SOL    HW237000   4.738  12.395   9.837  0.1613  0.7191 -1.2985
41759SOL     OW37001  11.628  12.603   8.732 -0.0263  0.3124  0.3005
41759SOL    HW137002  11.551  12.617   8.786  1.0012  2.4458  1.3229
41759SOL    HW237003  11.702  12.609   8.793  1.1659  2.6686 -1.2314
41760SOL     OW37004   9.774   0.111   6.258 -0.6307  0.2502 -0.0317
41760SOL    HW137005   9.795   0.115   6.352  0.3751 -0.4468 -0.2097
41760SOL    HW237006   9.826   0.181   6.219 -1.1176  0.5965 -0.0557
41761SOL     OW37007   6.269  10.442   8.954  0.1819 -0.3687  0.0789
41761SOL    HW137008   6.222  10.362   8.932  0.2916 -0.8417  1.4612
41761SOL    HW237009   6.224  10.511   8.905 -0.7960 -1.0749 -0.0329
41762SOL     OW37010   9.301   3.264   5.077 -0.6231 -0.1333 -0.1335
41762SOL    HW137011   9.284   3.265   4.983 -3.4595  1.6542  0.2848
41762SOL    HW237012   9.363   3.336   5.091 -0.6621 -0.0133 -0.5648
41763SOL     OW37013  10.644   8.332  13.358  0.3878  0.3896  0.2100
41763SOL    HW137014  10.595   8.252  13.379 -0.9423  1.4246  1.1990
41763SOL    HW237015  10.725   8.324  13.408  2.1566 -2.1001 -2.6729
41764SOL     OW37016   2.670   1.379   7.840  0.7622 -0.0609  0.7991
41764SOL    HW137017   2.723   1.326   7.900 -1.7313 -2.9315  0.6993
41764SOL    HW237018   2.677   1.334   7.756 -1.4802 -0.3976  0.7230
41765SOL     OW37019   2.357   4.526   9.834  0.4089  0.6506  0.3411
41765SOL    HW137020   2.414   4.583   9.885 -0.0310  0.2283  1.3215
41765SOL    HW237021   2.312   4.472   9.899  0.0766 -0.1253 -0.5070
41766SOL     OW37022  12.629  12.698  10.042 -0.1615  0.4867 -0.5648
41766SOL    HW137023  12.648  12.781  10.086  1.2091 -0.3706  0.5631
41766SOL    HW237024  12.672  12.706   9.957 -0.3185  1.0665 -0.5900
41767SOL     OW37025   3.102   6.801   9.644 -0.2494  0.6126  0.0780
41767SOL    HW137026   3.074   6.822   9.554  1.6541  1.6940 -0.3105
41767SOL    HW237027   3.106   6.886   9.688  0.6337  0.2934  0.6314
41768SOL     OW37028   4.075  11.899   1.985  0.5932 -0.8025 -0.6513
41768SOL    HW137029   4.133  11.835   1.944  0.4762 -0.5188 -1.2739
41768SOL    HW237030   4.018  11.847   2.042  0.5928 -1.2317 -1.0433
41769SOL     OW37031  10.031   1.498  13.072 -0.3049  0.0410  0.4702
41769SOL    HW137032  10.054   1.588  13.049  0.0667 -0.4324 -1.1479
41769SOL    HW237033   9.961   1.507  13.136 -0.0562  1.4814  0.5715
41770SOL     OW37034   2.615   9.360  12.028 -0.8927  0.0909 -0.5427
41770SOL    HW137035   2.614   9.455  12.042  1.3679  0.0716  0.2187
41770SOL    HW237036   2.580   9.348  11.939  0.8361  1.8628 -1.5388
41771SOL     OW37037   1.021   4.209  13.024 -0.0555  0.3406  0.1916
41771SOL    HW137038   1.034   4.270  12.951  1.8203 -1.8274 -1.4551
41771SOL    HW237039   0.933   4.175  13.011  0.5346 -0.6119 -1.6449
41772SOL     OW37040   9.145  11.565  12.264  0.0769 -0.3663  0.0616
41772SOL    HW137041   9.189  11.501  12.208  0.9569 -0.1988  0.5427
41772SOL    HW237042   9.147  11.525  12.351  1.3558  0.6456  0.5251
41773SOL     OW37043   2.754  11.572   9.495  0.4018 -0.0454 -0.4793
41773SOL    HW137044   2.692  11.514   9.538  1.9439 -1.1204  0.4176
41773SOL    HW237045   2.767  11.644   9.556  2.1262 -1.2622  0.6878
41774SOL     OW37046   6.566  12.496   0.129 -0.7285 -0.1087 -0.7300
41774SOL    HW137047   6.619  12.469   0.054  0.9127  1.5515 -0.2430
41774SOL    HW237048   6.562  12.419   0.185  0.5908 -0.4786 -1.1146
41775SOL     OW37049   4.327   5.724   5.190 -0.6859  0.0402  0.4789
41775SOL    HW137050   4.281   5.707   5.272 -0.4618 -1.0934  0.3975
41775SOL    HW237051   4.259   5.722   5.123 -0.6100 -1.2301  0.4059
41776SOL     OW37052  13.620   9.761   1.568  0.4037 -0.0396  0.2364
41776SOL    HW137053  13.712   9.778   1.549  0.4144 -0.2285  0.1227
41776SOL    HW237054  13.579   9.847   1.561  0.6533  0.1269  0.7677
41777SOL     OW37055  13.045   5.316   6.906  0.5850 -0.3273 -0.1813
41777SOL    HW137056  13.057   5.410   6.894  0.4205  0.4667  4.0381
41777SOL    HW237057  12.953   5.301   6.888  0.7205  0.1609 -1.3961
41778SOL     OW37058   0.619   7.768   2.199 -0.0000  0.0339  0.2855
41778SOL    HW137059   0.603   7.820   2.278  3.4025  0.2210  0.9984
41778SOL    HW237060   0.545   7.788   2.141 -1.4277  1.6388  2.5226
41779SOL     OW37061   2.458   5.112   9.805  0.1842  0.3494 -0.1286
41779SOL    HW137062   2.501   5.050   9.746 -0.7052 -0.3968 -0.0162
41779SOL    HW237063   2.480   5.198   9.770  1.9034  0.0042  0.0282
41780SOL     OW37064  13.485  10.708   1.507  0.1429 -0.0463  0.0272
41780SOL    HW137065  13.567  10.721   1.554  2.0558 -2.2293 -2.3864
41780SOL    HW237066  13.499  10.751   1.423 -1.5198  0.1786 -0.1624
41781SOL     OW37067   1.636   7.916  12.334 -0.5202 -0.0342 -0.4524
41781SOL    HW137068   1.684   7.932  12.253 -1.2386  2.4284 -0.4789
41781SOL    HW237069   1.545   7.908  12.307 -0.4830 -1.9846 -0.1244
41782SOL     OW37070   8.854   4.816  11.307 -0.1536 -0.2246  0.5002
41782SOL    HW137071   8.788   4.885  11.318 -0.6956 -0.4311 -1.1632
41782SOL    HW237072   8.905   4.819  11.388 -1.1980  1.0159  1.1597
41783SOL     OW37073   8.138   0.547   5.323  0.0758  0.6793  0.0668
41783SOL    HW137074   8.046   0.567   5.340 -0.0742 -0.5758  0.8747
41783SOL    HW237075   8.153   0.462   5.366  1.8361  1.2616  0.6984
41784SOL     OW37076  13.570   7.859  10.970  0.4110 -0.3251  0.3531
41784SOL    HW137077  13.501   7.884  10.908 -0.4159 -2.1522  0.4663
41784SOL    HW237078  13.631   7.932  10.969 -1.5229  1.3852  0.2388
41785SOL     OW37079   8.876  10.708   5.696  0.0687  0.2824 -0.2265
41785SOL    HW137080   8.830  10.785   5.662 -0.3116  0.5765  0.8951
41785SOL    HW237081   8.963  10.712   5.657 -0.3201  0.6479 -1.0702
41786SOL     OW37082   9.111  12.084   8.695 -0.7027 -0.1107 -0.1538
41786SOL    HW137083   9.089  12.030   8.619 -1.7826  0.7576 -0.4888
41786SOL    HW237084   9.062  12.165   8.681  0.3696  0.7023  0.6556
41787SOL     OW37085   9.083   1.827  13.358  0.3026 -0.0232 -0.4577
41787SOL    HW137086   9.066   1.878  13.437  1.6289  0.5225 -0.4984
41787SOL    HW237087   9.055   1.883  13.286 -0.0326 -0.1372 -0.4164
41788SOL     OW37088   6.661   8.273  10.904 -0.0223  0.8077 -0.1412
41788SOL    HW137089   6.667   8.205  10.971 -0.8874  0.4496 -0.4132
41788SOL    HW237090   6.731   8.253  10.843  1.4266  1.7164  1.1531
41789SOL     OW37091   3.011   3.022   7.333  0.2353 -0.1214 -0.0223
41789SOL    HW137092   3.096   2.980   7.316 -0.3922 -0.6749 -1.9979
41789SOL    HW237093   3.005   3.091   7.267 -0.1827  0.9881  1.1353
41790SOL     OW37094   1.720   2.213  13.493  0.4269  0.4174 -0.2995
41790SOL    HW137095   1.684   2.163  13.567  0.4961  0.0914 -0.4824
41790SOL    HW237096   1.651   2.276  13.471 -0.8213 -1.3616 -1.7904
41791SOL     OW37097   1.312   9.779  10.111 -0.0374 -0.3331 -0.1146
41791SOL    HW137098   1.265   9.846  10.061  0.3636 -0.6328 -0.9182
41791SOL    HW237099   1.397   9.773  10.068  0.3691 -0.5128  0.6923
41792SOL     OW37100   3.140   9.759   0.687 -0.1012  0.5168 -0.2409
41792SOL    HW137101   3.199   9.760   0.763 -1.0075  0.4355  0.4858
41792SOL    HW237102   3.132   9.667   0.664 -0.4100  0.4673  0.0479
41793SOL     OW37103   8.367   9.018  10.192  0.1005 -0.5223  0.0040
41793SOL    HW137104   8.425   9.042  10.120 -0.7396  1.0862 -0.1761
41793SOL    HW237105   8.333   8.932  10.167  1.7743 -1.1420 -0.2568
41794SOL     OW37106   8.698   8.876   6.196  0.3840 -0.1585 -0.2223
41794SOL    HW137107   8.777   8.889   6.249 -1.3241  1.8693  2.0111
41794SOL    HW237108   8.625   8.896   6.254 -1.8271 -1.4150 -2.3552
41795SOL     OW37109  12.984   2.253  10.946 -0.1176 -0.2919 -0.4982
41795SOL    HW137110  12.988   2.158  10.941  1.4324 -0.2359 -0.8546
41795SOL    HW237111  13.075   2.281  10.936 -0.6297  1.2582 -1.0951
41796SOL     OW37112  11.276   0.227  11.805 -0.1021  0.6174  0.4008
41796SOL    HW137113  11.266   0.153  11.746  0.5155  2.3264 -2.0022
41796SOL    HW237114  11.190   0.270  11.804 -1.1034 -1.0149  3.3556
41797SOL     OW37115   0.296   3.917   4.684  0.2938  0.1517  0.0033
41797SOL    HW137116   0.330   3.993   4.637  1.1951  0.9149  1.7711
41797SOL    HW237117   0.374   3.873   4.718 -0.1867 -1.7814 -1.2084
41798SOL     OW37118  12.856   8.499  12.403  0.3442 -0.6534 -0.0449
41798SOL    HW137119  12.869   8.471  12.493  0.4029  0.4705  0.3062
41798SOL    HW237120  12.887   8.425  12.350  0.5266 -1.2254  0.8432
41799SOL     OW37121   8.250   3.898   5.929  0.6501 -0.2049 -0.2898
41799SOL    HW137122   8.183   3.876   5.865 -0.0802  0.6441  0.1527
41799SOL    HW237123   8.330   3.856   5.897 -0.3214 -2.1619 -0.2543
41800SOL     OW37124  11.695  11.831   0.185  0.0783  0.3014 -0.5713
41800SOL    HW137125  11.605  11.858   0.204 -0.1631  0.0737 -1.3611
41800SOL    HW237126  11.687  11.773   0.109  0.9580  0.7873 -1.0508
41801SOL     OW37127   2.326  10.284   6.729  0.5434 -0.1321 -0.2042
41801SOL    HW137128   2.384  10.361   6.724  1.8577 -1.1712 -2.4648
41801SOL    HW237129   2.323  10.263   6.822  2.0764  1.2496  0.2110
41802SOL     OW37130   7.759   0.242   6.314 -0.0448  0.2900  0.9266
41802SOL    HW137131   7.797   0.295   6.244  0.9941 -3.1686 -1.4062
41802SOL    HW237132   7.834   0.204   6.360 -0.5486 -2.0392  0.0113
41803SOL     OW37133  10.165   0.648   6.438 -0.0049  0.5604  0.1014
41803SOL    HW137134  10.096   0.656   6.504  0.4353 -0.5775  0.7198
41803SOL    HW237135  10.151   0.723   6.380  0.1438  2.1359  1.9797
41804SOL     OW37136   6.999   5.968  11.805  0.2971 -0.3825  0.0281
41804SOL    HW137137   7.060   5.992  11.874 -0.9361 -0.6875  1.2852
41804SOL    HW237138   6.929   6.033  11.811  1.1765  0.9157 -2.4168
41805SOL     OW37139  13.534   7.144   6.586 -0.2781  0.8585  0.4461
41805SOL    HW137140  13.530   7.106   6.498 -2.3437 -0.5000  1.0540
41805SOL    HW237141  13.618   7.190   6.588  1.7736 -2.4638 -0.8711
41806SOL     OW37142   2.138  12.973   4.707  0.2062  0.1103 -0.0590
41806SOL    HW137143   2.165  12.881   4.705  0.9224  0.3180 -0.5509
41806SOL    HW237144   2.128  12.993   4.800 -0.1873 -0.5292  0.0408
41807SOL     OW37145   4.972   4.792  11.189 -0.2922 -0.2421  0.2855
41807SOL    HW137146   5.062   4.780  11.219  0.7699  1.5347 -1.8279
41807SOL    HW237147   4.919   4.743  11.251  2.0001 -0.1844  2.4543
41808SOL     OW37148  11.194  11.346   0.619  0.4079 -0.2845 -0.7101
41808SOL    HW137149  11.121  11.391   0.662  1.8448  1.2412  0.2267
41808SOL    HW237150  11.231  11.412   0.560  1.6441 -0.7158 -0.4346
41809SOL     OW37151   2.473   0.519   4.819 -0.0733 -0.1874 -0.0222
41809SOL    HW137152   2.501   0.428   4.828  1.4267  0.2651  0.0998
41809SOL    HW237153   2.548   0.571   4.849 -1.1084  1.0889  0.4731
41810SOL     OW37154  10.081   7.074  12.279  0.0457  0.0385  0.2108
41810SOL    HW137155  10.110   7.152  12.232 -0.7501  0.7434  0.8386
41810SOL    HW237156  10.022   7.029  12.218 -1.4413  1.2480  0.6687
41811SOL     OW37157  10.235   4.896   6.454  0.6459 -0.5238  0.1936
41811SOL    HW137158  10.254   4.879   6.546 -0.4913  0.4562  0.6317
41811SOL    HW237159  10.311   4.944   6.422  1.6614 -2.0290  0.2311
41812SOL     OW37160   2.504   1.701   3.584  0.1404 -0.0487 -0.0918
41812SOL    HW137161   2.437   1.639   3.555 -0.0775  0.7287 -1.3227
41812SOL    HW237162   2.586   1.662   3.555  0.0404  0.0205 -0.4716
41813SOL     OW37163   4.087   6.046   7.250 -0.0583 -0.2182  0.0348
41813SOL    HW137164   4.002   6.088   7.239 -0.9649 -1.2647  2.2349
41813SOL    HW237165   4.151   6.117   7.242 -1.4624  1.5312  2.7903
41814SOL     OW37166   0.721   4.741   1.109 -0.4139  0.4101  0.1177
41814SOL    HW137167   0.704   4.777   1.022 -0.7522 -0.6220 -0.2649
41814SOL    HW237168   0.635   4.719   1.144 -0.1637 -2.3566 -0.7329
41815SOL     OW37169   2.313   8.495   5.399 -0.1031  0.5259  0.2072
41815SOL    HW137170   2.341   8.462   5.485 -1.2314  0.8449  0.7177
41815SOL    HW237171   2.257   8.570   5.419  0.7431  1.4760 -0.8747
41816SOL     OW37172   9.500   4.393  10.216  0.1815  0.0111 -0.1079
41816SOL    HW137173   9.587   4.357  10.198  0.4899 -0.9332  2.7193
41816SOL    HW237174   9.467   4.340  10.288 -1.8956  1.6804  0.2696
41817SOL     OW37175  11.265   2.724  12.478  0.0135 -0.6129 -0.0805
41817SOL    HW137176  11.190   2.674  12.448  0.1712 -0.8499 -0.0902
41817SOL    HW237177  11.229   2.787  12.540 -0.0240 -1.6245  0.9548
41818SOL     OW37178   3.247   0.283  11.448 -0.3528  0.1291  0.2583
41818SOL    HW137179   3.152   0.281  11.438 -0.4754  3.2841 -0.0600
41818SOL    HW237180   3.280   0.285  11.358  0.1473 -2.1393  0.3342
41819SOL     OW37181   3.940   6.690   0.416  0.4295  0.2810 -0.1979
41819SOL    HW137182   4.022   6.643   0.432  0.0484 -0.3089  0.0806
41819SOL    HW237183   3.960   6.782   0.435  0.5119 -0.1128  1.8785
41820SOL     OW37184   8.872   7.178   1.476 -0.1189  0.5573  0.1946
41820SOL    HW137185   8.872   7.090   1.438  0.8182  0.7015 -0.1625
41820SOL    HW237186   8.904   7.165   1.565 -0.6099  0.4556  0.3594
41821SOL     OW37187   3.569   0.917   8.631 -0.5787  0.7407  0.3434
41821SOL    HW137188   3.580   1.008   8.659 -0.1847  1.0654 -0.8289
41821SOL    HW237189   3.585   0.919   8.537 -2.0763 -0.2878  0.0304
41822SOL     OW37190   6.552  12.771   4.947 -0.4804 -0.2105  0.6200
41822SOL    HW137191   6.478  12.718   4.977 -2.4053  1.5064 -0.8501
41822SOL    HW237192   6.535  12.787   4.855  0.3495  2.3714  0.8242
41823SOL     OW37193  13.745  10.841   8.585  0.4163  0.4890 -0.5467
41823SOL    HW137194  13.703  10.769   8.537 -0.1971  0.5542 -0.1175
41823SOL    HW237195  13.810  10.875   8.524  2.1898 -1.7251 -0.0614
41824SOL     OW37196   0.664   5.697   1.828 -0.0158 -0.2201  0.0501
41824SOL    HW137197   0.746   5.701   1.778 -1.2598  0.3999 -2.0635
41824SOL    HW237198   0.639   5.605   1.826  0.7674 -0.4797  1.0292
41825SOL     OW37199   7.984   2.464   9.623  0.4847  0.3028 -0.0337
41825SOL    HW137200   8.008   2.517   9.699  0.5725 -1.5597  1.3059
41825SOL    HW237201   7.918   2.517   9.577 -0.1369  1.1643  1.7497
41826SOL     OW37202  10.589   7.050  13.583 -0.1393 -0.0050  0.1322
41826SOL    HW137203  10.658   7.113  13.561 -0.2623  0.0905  0.0199
41826SOL    HW237204  10.539   7.094  13.652  0.7232 -0.6264  1.1926
41827SOL     OW37205   4.873   2.559   4.070  0.3653  0.2886 -0.1607
41827SOL    HW137206   4.913   2.618   4.134 -0.5901  0.8200 -0.0317
41827SOL    HW237207   4.788   2.538   4.108 -0.5457  1.2182 -1.5943
41828SOL     OW37208   4.278   3.733  11.876  0.1115  0.4782 -0.6929
41828SOL    HW137209   4.258   3.801  11.812 -1.0203  0.7580 -0.0642
41828SOL    HW237210   4.257   3.650  11.832  1.0174  0.5501 -1.2837
41829SOL     OW37211   1.547   7.959  13.050  0.2850 -0.0284  0.2498
41829SOL    HW137212   1.469   8.008  13.023 -2.0802 -2.2309  2.4740
41829SOL    HW237213   1.592   7.938  12.968 -0.1635  3.2036 -0.9544
41830SOL     OW37214  11.930   6.700  12.577 -0.8776 -0.3315  0.3744
41830SOL    HW137215  12.010   6.656  12.547 -2.1748 -1.1354 -2.1557
41830SOL    HW237216  11.882   6.633  12.624 -0.5441 -0.1163  1.0415
41831SOL     OW37217   6.202   1.084  10.889 -0.1001  0.0222 -0.1014
41831SOL    HW137218   6.274   1.027  10.916  0.8057  0.2525 -1.9210
41831SOL    HW237219   6.168   1.044  10.809 -0.8408  0.8963 -0.2399
41832SOL     OW37220   6.531   7.010  11.814  0.3077 -0.5016 -0.4175
41832SOL    HW137221   6.549   7.002  11.720 -0.1226  0.7865 -0.6256
41832SOL    HW237222   6.617   7.021  11.854  0.3513  1.3899 -0.9468
41833SOL     OW37223  13.510   7.909   8.422  0.3935  0.0241  0.0174
41833SOL    HW137224  13.577   7.878   8.483  1.2067  1.9748  0.1768
41833SOL    HW237225  13.433   7.924   8.476  0.6338  0.2756  0.2909
41834SOL     OW37226  12.856   5.891   4.340 -0.5646  0.8637  0.3802
41834SOL    HW137227  12.808   5.810   4.357  1.9301 -1.1267 -1.3919
41834SOL    HW237228  12.859   5.935   4.425 -1.7646 -1.0023  1.4582
41835SOL     OW37229  13.479  11.715  10.314  0.2150 -0.0205 -0.7662
41835SOL    HW137230  13.567  11.743  10.337  0.7594 -1.7683 -0.5150
41835SOL    HW237231  13.436  11.793  10.281  1.4620  1.1417  0.2592
41836SOL     OW37232  13.535  12.834   6.275 -0.1138 -0.5804  0.4583
41836SOL    HW137233  13.608  12.773   6.285  0.6466  0.3626  0.7694
41836SOL    HW237234  13.525  12.875   6.361  0.0731  0.4923 -0.0172
41837SOL     OW37235   9.210   6.545   1.137 -0.3399 -0.7182  0.0179
41837SOL    HW137236   9.227   6.610   1.204  0.3077  0.3087 -1.1060
41837SOL    HW237237   9.281   6.482   1.145  0.5321  0.1670 -0.6024
41838SOL     OW37238   9.049  12.322  13.559  0.3410  0.1699  0.1374
41838SOL    HW137239   8.959  12.291  13.552  0.1756  0.6704 -0.0390
41838SOL    HW237240   9.075  12.301  13.649 -0.8782  2.3712  1.0990
41839SOL     OW37241   7.891  12.066   7.803  0.1119 -0.0866  0.7739
41839SOL    HW137242   7.873  12.151   7.763 -1.1699  0.1807  1.8320
41839SOL    HW237243   7.822  12.056   7.869  0.4173 -1.8169  0.8717
41840SOL     OW37244   4.621   8.528  12.830  0.1649  0.2953  0.3799
41840SOL    HW137245   4.646   8.612  12.793 -1.0067  0.8501  0.8200
41840SOL    HW237246   4.542   8.502  12.782  0.4398 -0.4920  0.3308
41841SOL     OW37247  11.038   0.264   2.039 -0.2471  0.0609 -0.3990
41841SOL    HW137248  11.029   0.202   1.967  1.0355 -0.1827 -0.3640
41841SOL    HW237249  11.048   0.210   2.117  2.4529  0.2198 -0.5531
41842SOL     OW37250   5.701  11.363   3.981 -0.1205 -0.4023 -0.5092
41842SOL    HW137251   5.689  11.449   3.941 -0.2754  0.5419  1.4517
41842SOL    HW237252   5.771  11.323   3.931 -0.5150  0.5774 -1.9054
41843SOL     OW37253  13.555   3.959   0.442 -0.4875  0.6519  0.1444
41843SOL    HW137254  13.558   3.966   0.537  0.9392  0.2192  0.1440
41843SOL    HW237255  13.639   3.994   0.412 -0.3215 -0.5368 -0.8622
41844SOL     OW37256   9.165   3.558   9.011  0.8955  0.1916 -0.0561
41844SOL    HW137257   9.170   3.501   8.935  0.9642 -2.1810  1.6336
41844SOL    HW237258   9.170   3.499   9.087 -0.0036  2.3412  1.8131
41845SOL     OW37259   2.577   8.162  10.398 -0.0634 -0.0035 -0.5123
41845SOL    HW137260   2.633   8.085  10.388 -0.0780 -0.0931  0.1009
41845SOL    HW237261   2.638   8.235  10.405  0.0879 -0.2861  2.0602
41846SOL     OW37262   0.596   6.000   4.899  0.3798  0.2289  0.1900
41846SOL    HW137263   0.665   5.943   4.867  1.6002  1.5769  0.2903
41846SOL    HW237264   0.526   5.995   4.834 -0.8590 -3.5330  1.5566
41847SOL     OW37265   6.128   6.657   8.937  0.1941  0.1979  0.2587
41847SOL    HW137266   6.194   6.590   8.953  0.0620 -0.7109 -2.4119
41847SOL    HW237267   6.063   6.644   9.006  1.5892 -0.4749  1.4984
41848SOL     OW37268   3.780  11.595   4.832 -0.1366  0.2747 -0.0733
41848SOL    HW137269   3.746  11.594   4.743 -0.6509  0.3592  0.1167
41848SOL    HW237270   3.705  11.619   4.886  0.4250  1.2886  0.2811
41849SOL     OW37271  10.631  10.193   8.306 -0.2580  0.3275 -0.4893
41849SOL    HW137272  10.535  10.194   8.307 -0.3485  1.2426  3.5867
41849SOL    HW237273  10.655  10.136   8.379  2.3257  0.8673 -0.8397
41850SOL     OW37274   1.027   5.164  13.060 -1.0863  0.2671 -0.1947
41850SOL    HW137275   1.046   5.191  12.970 -2.6148  0.0797 -0.6155
41850SOL    HW237276   0.992   5.076  13.051  0.6366 -0.5567  0.8181
41851SOL     OW37277   4.527  12.113   8.355  0.2446 -0.2931  0.2933
41851SOL    HW137278   4.448  12.115   8.409  0.0802 -0.1612  0.0449
41851SOL    HW237279   4.592  12.161   8.406 -0.6672  2.3096 -0.8455
41852SOL     OW37280   5.792  10.995   8.161 -0.3553 -0.4206  0.0527
41852SOL    HW137281   5.753  10.908   8.163 -1.3632  0.0208  0.1066
41852SOL    HW237282   5.870  10.985   8.107 -0.1002 -1.4974  0.5922
41853SOL     OW37283   5.095  11.568   5.885  0.0984  1.1137 -0.6580
41853SOL    HW137284   5.190  11.556   5.883 -0.1136 -0.8119 -1.0222
41853SOL    HW237285   5.080  11.626   5.960  1.3400 -1.3697  1.6924
41854SOL     OW37286  12.687   7.450   4.919 -0.1382  0.4941  0.1303
41854SOL    HW137287  12.672   7.530   4.869 -0.2680  1.1196  1.1430
41854SOL    HW237288  12.620   7.389   4.887  1.9544 -0.3783 -2.9695
41855SOL     OW37289   4.530   6.060   4.141 -0.4267  0.5078 -0.2303
41855SOL    HW137290   4.510   6.151   4.118 -2.5699  0.8547  2.4136
41855SOL    HW237291   4.524   6.058   4.237 -0.3262 -2.4115 -0.1945
41856SOL     OW37292   5.358   5.512   2.729 -0.3027  0.7034 -0.2669
41856SOL    HW137293   5.361   5.463   2.812  1.4877  2.0092  0.4851
41856SOL    HW237294   5.361   5.444   2.662  0.5066 -0.2963  0.7378
41857SOL     OW37295   8.260  11.453   6.482 -0.0679 -1.0390 -0.4528
41857SOL    HW137296   8.168  11.458   6.455 -0.0530 -0.9703 -0.4897
41857SOL    HW237297   8.300  11.532   6.446  0.1029 -1.2855 -0.8085
41858SOL     OW37298   8.761   3.212   2.084  0.1589  0.5976  0.0182
41858SOL    HW137299   8.839   3.157   2.080 -1.4941 -2.1803  2.1342
41858SOL    HW237300   8.700   3.173   2.021 -0.9527  0.0418  1.3703
41859SOL     OW37301   4.401  12.309  13.625 -0.2538 -0.5171 -0.0217
41859SOL    HW137302   4.399  12.373  13.554 -0.2546 -0.6485 -0.1422
41859SOL    HW237303   4.314  12.269  13.624 -0.1657 -0.7051 -0.1175
41860SOL     OW37304   8.938   8.516   7.528  0.3512  0.2110 -0.0464
41860SOL    HW137305   8.993   8.591   7.506  0.0971  0.0830 -1.1751
41860SOL    HW237306   8.967   8.491   7.616  2.6934 -0.3601 -0.8896
41861SOL     OW37307   7.560   6.477   0.472  0.5425  0.5669  0.3442
41861SOL    HW137308   7.536   6.437   0.388 -0.8815 -0.1225  1.0525
41861SOL    HW237309   7.614   6.552   0.447 -0.3761  0.7622 -1.2274
41862SOL     OW37310  12.395   7.218  13.355  0.1182  0.4470 -0.3020
41862SOL    HW137311  12.466   7.154  13.354 -0.9644 -0.8040 -0.1750
41862SOL    HW237312  12.393   7.251  13.445 -0.1442 -0.3110 -0.0281
41863SOL     OW37313  10.365   1.586  12.900 -0.0169 -0.0539  0.1163
41863SOL    HW137314  10.356   1.493  12.922  0.2020 -0.1164 -0.0512
41863SOL    HW237315  10.312   1.632  12.965 -0.2260 -0.3041  0.1227
41864SOL     OW37316   3.815   4.512   4.172 -0.4457  0.2199 -0.0852
41864SOL    HW137317   3.874   4.586   4.155 -0.2288  0.0129 -0.2483
41864SOL    HW237318   3.811   4.465   4.088  0.8268 -0.9471  0.4583
41865SOL     OW37319  10.234  12.144   6.940  0.4211 -0.5451 -0.2815
41865SOL    HW137320  10.225  12.190   6.856  1.4913 -0.8140 -0.5600
41865SOL    HW237321  10.297  12.196   6.989  1.4404 -1.5421 -0.4977
41866SOL     OW37322  11.505   6.652   4.509  0.1437 -0.4296  0.3849
41866SOL    HW137323  11.449   6.708   4.564  0.5183 -1.1945  1.5963
41866SOL    HW237324  11.443   6.594   4.463 -0.3367  1.6846 -1.8003
41867SOL     OW37325  10.949   5.905   5.573  0.4158 -0.0206 -0.1078
41867SOL    HW137326  10.968   5.815   5.599  1.0909  0.0533 -0.3351
41867SOL    HW237327  11.010   5.959   5.624 -0.2990  0.3547  0.3808
41868SOL     OW37328  13.289   3.246   7.465  0.4398  0.2790 -1.0365
41868SOL    HW137329  13.296   3.233   7.560 -0.7816  0.5246 -0.8847
41868SOL    HW237330  13.298   3.158   7.428  0.8127  0.1649 -0.6825
41869SOL     OW37331  12.873   5.988   4.618 -0.1110  0.0945  0.1386
41869SOL    HW137332  12.956   6.035   4.625 -0.5514  0.9447 -0.2892
41869SOL    HW237333  12.807   6.056   4.607 -0.9527 -0.5324  1.1294
41870SOL     OW37334  11.433   2.604   5.745 -0.5797  0.3677  0.4148
41870SOL    HW137335  11.462   2.611   5.654  1.0732  0.9634  0.9530
41870SOL    HW237336  11.444   2.511   5.767  0.4406  0.4939  0.4473
41871SOL     OW37337  13.068  11.583  10.934  0.0081 -0.2853  0.2740
41871SOL    HW137338  13.100  11.589  10.844  0.8573 -1.7181  0.4473
41871SOL    HW237339  12.989  11.530  10.928  1.6872 -3.0455  0.6430
41872SOL     OW37340   6.824   4.221   0.662  0.1930 -0.1074 -0.4049
41872SOL    HW137341   6.824   4.188   0.573  0.5173 -0.5530 -0.2415
41872SOL    HW237342   6.746   4.183   0.702  1.0314 -1.4315  0.0488
41873SOL     OW37343  12.063   7.317   7.622 -0.1674  0.1644 -0.2421
41873SOL    HW137344  12.042   7.407   7.595  0.1031  0.0970 -0.6807
41873SOL    HW237345  11.979   7.280   7.649 -0.2942  0.5174 -0.1447
41874SOL     OW37346  12.479   8.819   0.966 -0.1832 -0.0249 -0.0996
41874SOL    HW137347  12.542   8.875   1.012 -0.4428  0.7862 -0.7117
41874SOL    HW237348  12.508   8.820   0.875 -0.7529 -0.0989 -0.2846
41875SOL     OW37349   4.165   8.158   7.118 -0.5510 -0.1614 -0.8140
41875SOL    HW137350   4.152   8.098   7.045 -1.8640 -0.2920 -0.4943
41875SOL    HW237351   4.078   8.189   7.140 -0.3761 -1.1155  1.5355
41876SOL     OW37352   1.391   4.248   8.302  0.7406 -0.1901 -0.4695
41876SOL    HW137353   1.315   4.263   8.246 -0.1428  2.8533  1.2949
41876SOL    HW237354   1.459   4.219   8.243 -1.3354 -1.5109 -2.3705
41877SOL     OW37355   8.498   1.343  11.790 -0.4195  0.2788  0.2670
41877SOL    HW137356   8.517   1.434  11.813 -0.7473 -0.0652  2.0573
41877SOL    HW237357   8.407   1.330  11.817 -0.5644 -0.4257 -0.5148
41878SOL     OW37358  12.128  10.267   2.908  0.5213  0.0278  0.3374
41878SOL    HW137359  12.148  10.360   2.900  0.5571 -0.0037  0.0451
41878SOL    HW237360  12.046  10.263   2.956  1.0611  0.1705  1.2852
41879SOL     OW37361  10.941   0.339   9.062  0.0380 -0.1815 -0.5373
41879SOL    HW137362  10.961   0.368   9.151 -1.4743 -0.3863 -0.1145
41879SOL    HW237363  10.944   0.419   9.009  0.3976  0.0187 -0.2205
41880SOL     OW37364   9.613   1.452   0.639  0.0905 -0.1115 -0.6969
41880SOL    HW137365   9.698   1.491   0.619  0.7664 -0.5363  1.1237
41880SOL    HW237366   9.575   1.509   0.705 -2.0864  1.2873 -2.9510
41881SOL     OW37367   5.277   6.853  10.489  0.0895 -0.5188 -0.5161
41881SOL    HW137368   5.345   6.895  10.437  0.4633 -1.7146 -1.0256
41881SOL    HW237369   5.197   6.864  10.438  0.1755 -0.3879 -0.6230
41882SOL     OW37370   0.435  13.141   1.733 -0.1315 -0.0036 -0.7436
41882SOL    HW137371   0.447  13.070   1.670 -1.8370 -0.1246 -0.9831
41882SOL    HW237372   0.468  13.219   1.688  2.0364 -0.6169 -0.3692
41883SOL     OW37373   2.413   6.761   0.704  0.5927 -0.7417  0.0963
41883SOL    HW137374   2.440   6.808   0.625  2.2076 -2.1304 -0.2328
41883SOL    HW237375   2.488   6.767   0.763  1.0373 -3.1989 -0.1187
41884SOL     OW37376  11.466  12.916  12.122  0.1388  0.4380  0.2029
41884SOL    HW137377  11.494  12.989  12.178 -0.4221  0.7168  0.1240
41884SOL    HW237378  11.488  12.838  12.173  2.3920  0.5657 -0.4351
41885SOL     OW37379   6.890  10.090  13.259 -0.4103 -0.1193 -0.5016
41885SOL    HW137380   6.866  10.182  13.273 -2.1613 -1.0542  5.5380
41885SOL    HW237381   6.810  10.050  13.224 -0.8502  0.1505  0.1682
41886SOL     OW37382   2.246   8.164   2.302 -0.0860 -0.8925 -0.4035
41886SOL    HW137383   2.326   8.164   2.355  0.3319  3.7657 -0.6076
41886SOL    HW237384   2.176   8.183   2.364 -0.0736  1.0499 -0.9048
41887SOL     OW37385   6.985   9.227   4.114  0.2369 -0.2392  0.3522
41887SOL    HW137386   6.916   9.216   4.180 -1.2314 -1.9481 -1.3510
41887SOL    HW237387   6.944   9.280   4.046  1.2461  0.2390  0.0978
41888SOL     OW37388   4.889   4.638   2.857  0.0591  0.0304  1.1590
41888SOL    HW137389   4.900   4.550   2.894  0.1867 -1.0171 -1.2233
41888SOL    HW237390   4.795   4.647   2.842  0.2241 -0.4815 -0.3186
41889SOL     OW37391   8.696   2.790   0.239 -0.0017  0.3968 -0.0950
41889SOL    HW137392   8.731   2.794   0.328  2.6275 -0.7051 -0.9770
41889SOL    HW237393   8.636   2.864   0.234 -0.6300  0.2102  2.7143
41890SOL     OW37394   8.540  13.255  12.019  0.0397  0.5225  0.1654
41890SOL    HW137395   8.530  13.350  12.014  0.1285  0.5969  1.1585
41890SOL    HW237396   8.561  13.228  11.929  1.0626  1.5643  0.0599
41891SOL     OW37397  11.483   2.552   0.052 -0.0614 -0.2514  0.2886
41891SOL    HW137398  11.412   2.591   0.002 -1.2164 -2.7455 -0.1862
41891SOL    HW237399  11.458   2.564   0.144  0.2104  1.1114  0.1935
41892SOL     OW37400   9.766   0.450   4.181  0.2555  0.3954 -0.1428
41892SOL    HW137401   9.825   0.452   4.106 -1.0969 -0.2342 -1.2744
41892SOL    HW237402   9.733   0.360   4.182  0.6016  0.2581  1.5211
41893SOL     OW37403   4.886  12.587   7.292  0.0872 -0.3192  0.4355
41893SOL    HW137404   4.835  12.612   7.215  1.5033  1.4816  0.0382
41893SOL    HW237405   4.820  12.565   7.358 -1.1795  0.4853 -0.5199
41894SOL     OW37406   7.853  12.356   4.420 -0.0097  0.3201 -0.5024
41894SOL    HW137407   7.830  12.269   4.453 -3.5813  0.6363 -1.7044
41894SOL    HW237408   7.880  12.404   4.498 -1.8561 -0.7837  0.9115
41895SOL     OW37409  11.780   9.531  13.210 -0.4198  0.3647 -0.1734
41895SOL    HW137410  11.827   9.452  13.182 -0.0041  1.0882 -1.5989
41895SOL    HW237411  11.841   9.603  13.195 -1.3416  1.1299 -0.3638
41896SOL     OW37412  10.979   8.004   5.161 -0.4401 -0.7783  0.0220
41896SOL    HW137413  11.030   7.946   5.104  0.3063 -0.2422  0.1157
41896SOL    HW237414  10.962   8.081   5.107  0.3121 -0.2470  0.5263
41897SOL     OW37415  10.050   6.052  12.924  0.1026  0.5130 -0.0965
41897SOL    HW137416  10.063   5.964  12.960  0.2802 -0.5037 -2.4841
41897SOL    HW237417   9.967   6.082  12.963  0.6660 -0.1362  1.7162
41898SOL     OW37418   9.685   5.976   0.536  0.5863 -0.6034  0.0380
41898SOL    HW137419   9.610   6.035   0.545 -0.3417 -1.9788  2.3069
41898SOL    HW237420   9.660   5.916   0.466 -1.8831 -2.8172  2.5602
41899SOL     OW37421   0.216   9.634   5.617  0.4025 -0.2421  0.3929
41899SOL    HW137422   0.142   9.626   5.677 -1.1840 -0.6543 -1.5159
41899SOL    HW237423   0.204   9.720   5.576  1.0257 -0.2764  0.1378
41900SOL     OW37424   6.217  10.015   4.243  0.0538  0.4734 -0.2988
41900SOL    HW137425   6.173   9.958   4.307 -1.4390  0.8572 -0.9215
41900SOL    HW237426   6.281   9.958   4.201 -1.3065 -0.7715 -0.8147
41901SOL     OW37427   3.883  10.560  12.964  0.0806  0.1466  0.1245
41901SOL    HW137428   3.952  10.572  13.029  0.1483 -0.6520  0.2095
41901SOL    HW237429   3.896  10.471  12.931  0.0875  0.5732 -1.0371
41902SOL     OW37430  13.360   7.766   8.216 -0.1702 -0.8319 -0.3997
41902SOL    HW137431  13.283   7.730   8.261  0.1962  1.1790  2.0661
41902SOL    HW237432  13.414   7.802   8.286  1.4990  0.6423 -2.3248
41903SOL     OW37433   4.336   0.753   9.163  0.3445 -0.1432 -0.3707
41903SOL    HW137434   4.395   0.680   9.142  0.7450 -0.0144  0.2641
41903SOL    HW237435   4.391   0.813   9.213  0.6375  1.6310 -2.6646
41904SOL     OW37436   9.650  13.260   1.797  0.1130 -0.0009 -0.2933
41904SOL    HW137437   9.725  13.231   1.849 -0.3550  0.5675  0.7205
41904SOL    HW237438   9.679  13.341   1.755  1.0795 -1.3354 -2.3353
41905SOL     OW37439   7.517   6.129   7.652  0.0670 -0.1483  0.2582
41905SOL    HW137440   7.498   6.037   7.671  2.5253 -1.0072 -0.9760
41905SOL    HW237441   7.500   6.138   7.558  0.2404  0.5735  0.2882
41906SOL     OW37442  10.619   0.108   6.710  0.0124  0.6814 -0.1276
41906SOL    HW137443  10.595   0.017   6.727 -0.6130  0.8214 -0.2375
41906SOL    HW237444  10.559   0.136   6.641  0.4419  1.0700 -0.3498
41907SOL     OW37445   4.953  13.412   8.818  0.1231  0.0641 -0.2269
41907SOL    HW137446   4.974  13.323   8.792 -0.2324  0.0321 -0.4105
41907SOL    HW237447   4.911  13.404   8.903  1.3391  0.1737  0.4177
41908SOL     OW37448   0.923   4.646   7.703  0.0325  0.2603 -0.1310
41908SOL    HW137449   0.927   4.559   7.743  2.5977  0.6738  0.6954
41908SOL    HW237450   0.989   4.643   7.633  2.1054  2.2393  1.5894
41909SOL     OW37451   2.698   4.587   4.402 -0.6386  0.1789  0.0367
41909SOL    HW137452   2.750   4.665   4.419  0.3152 -0.2969 -0.6103
41909SOL    HW237453   2.607   4.618   4.403 -0.3967  0.9369  1.6388
41910SOL     OW37454  12.429   0.989   2.370 -0.1423 -0.0601 -0.3132
41910SOL    HW137455  12.516   0.952   2.389 -0.4789 -0.2743  0.8753
41910SOL    HW237456  12.373   0.913   2.359 -0.3685  0.0812 -0.1452
41911SOL     OW37457   3.134   8.984   6.684  0.3270  0.0191 -0.4816
41911SOL    HW137458   3.069   8.915   6.695 -0.2909  0.4845 -1.1550
41911SOL    HW237459   3.092   9.048   6.628  1.5223  0.1304 -1.2788
41912SOL     OW37460   3.697   8.168   3.484 -0.0356  0.4562 -0.2037
41912SOL    HW137461   3.707   8.170   3.579 -1.8797  3.4187  0.0602
41912SOL    HW237462   3.605   8.143   3.470  0.7012 -1.8954 -1.3620
41913SOL     OW37463  10.609   0.947   3.074  0.4312  0.0585 -0.0465
41913SOL    HW137464  10.601   0.975   3.165  1.6321  1.7693 -0.4213
41913SOL    HW237465  10.519   0.943   3.041 -0.0130 -0.5666  1.1792
41914SOL     OW37466  12.927   9.332   2.515  0.1955 -0.0598 -0.2602
41914SOL    HW137467  12.953   9.265   2.452 -0.6727 -0.3445 -0.3160
41914SOL    HW237468  12.927   9.287   2.600  0.3161  0.0572 -0.1955
41915SOL     OW37469   2.888   9.542   0.589 -0.2385  0.0969 -0.6741
41915SOL    HW137470   2.862   9.578   0.674 -1.9420 -1.3644 -0.5156
41915SOL    HW237471   2.808   9.545   0.537 -0.0982 -2.0636 -1.1087
41916SOL     OW37472   6.379   3.313  10.328 -0.3344 -0.4291 -0.0642
41916SOL    HW137473   6.310   3.305  10.394 -1.2648 -0.4528 -1.0140
41916SOL    HW237474   6.433   3.235  10.341 -0.8074 -0.7032  0.3384
41917SOL     OW37475  11.242   6.201  10.540 -0.2961 -0.0526 -0.3234
41917SOL    HW137476  11.245   6.108  10.520  3.1309 -0.0918 -0.2795
41917SOL    HW237477  11.245   6.206  10.635 -1.8263  0.1415 -0.2669
41918SOL     OW37478   8.954   0.323  10.944 -0.3814  0.7105  0.3647
41918SOL    HW137479   9.015   0.281  10.884 -0.3669 -0.9573  1.5075
41918SOL    HW237480   9.009   0.362  11.012 -0.5202  0.2543  0.7437
41919SOL     OW37481   7.978   4.074   6.140  0.1640  0.3113 -0.3626
41919SOL    HW137482   8.068   4.086   6.110 -0.1274  0.8773 -1.0518
41919SOL    HW237483   7.985   4.013   6.213  1.1783  0.8812  0.0388
41920SOL     OW37484  13.144  10.907  13.451  0.6233  0.2739 -0.2969
41920SOL    HW137485  13.065  10.854  13.459  1.1773 -0.5962 -0.4711
41920SOL    HW237486  13.133  10.954  13.368  0.2423  0.2503 -0.2619
41921SOL     OW37487   7.784  11.215  12.602 -0.4509 -0.0952 -0.0207
41921SOL    HW137488   7.838  11.290  12.576 -1.0860  0.6219  0.6593
41921SOL    HW237489   7.816  11.142  12.549  1.4351  0.2078  0.6157
41922SOL     OW37490   4.333   1.042   2.434  0.4899  0.6024  0.1211
41922SOL    HW137491   4.288   0.969   2.476 -1.3118  1.2524 -0.5992
41922SOL    HW237492   4.352   1.010   2.345  0.4486  0.7245  0.0688
41923SOL     OW37493   5.141  13.478   4.453 -0.2561 -0.0987 -0.2012
41923SOL    HW137494   5.083  13.550   4.480  0.0031  0.6978 -1.6767
41923SOL    HW237495   5.107  13.402   4.500  0.2441  1.1756  2.4461
41924SOL     OW37496  11.275   9.070   7.481 -0.5499  0.5825 -0.3043
41924SOL    HW137497  11.313   9.119   7.408 -0.1998 -0.0272 -0.5343
41924SOL    HW237498  11.223   9.001   7.440  1.3688 -1.1101 -0.0076
41925SOL     OW37499  10.259   6.192   0.579 -0.2811 -0.2776  0.3915
41925SOL    HW137500  10.318   6.149   0.641  1.4714  0.4955 -0.6932
41925SOL    HW237501  10.293   6.281   0.571 -2.2706  0.5474  0.5665
41926SOL     OW37502   9.002   0.792   7.696 -0.3208 -0.3198 -0.0342
41926SOL    HW137503   8.916   0.749   7.694  0.0518 -1.0525 -1.7019
41926SOL    HW237504   9.065   0.722   7.677  0.5566  0.4158  0.0910
41927SOL     OW37505   2.086   8.689   1.879 -0.3479 -0.3059 -0.9144
41927SOL    HW137506   2.067   8.644   1.961  1.0003 -0.7629 -0.8365
41927SOL    HW237507   2.102   8.619   1.816 -1.2104  0.0461 -1.5550
41928SOL     OW37508   4.731   9.655   9.699 -0.4651 -0.0116 -0.0422
41928SOL    HW137509   4.643   9.684   9.722 -0.9275 -1.5773  0.2983
41928SOL    HW237510   4.784   9.734   9.702 -1.3414  0.5735  2.3748
41929SOL     OW37511  11.722  13.048   6.859  0.0003  0.2323 -0.0233
41929SOL    HW137512  11.649  13.041   6.921  0.7495  0.4820  0.9270
41929SOL    HW237513  11.748  12.957   6.844  0.5782  0.2052  1.0079
41930SOL     OW37514   8.837   7.609   4.082  0.5766 -0.2792 -0.1745
41930SOL    HW137515   8.910   7.671   4.081  1.3247 -1.1423 -0.5213
41930SOL    HW237516   8.824   7.587   3.990 -0.7993  0.6253 -0.2217
41931SOL     OW37517   1.911   1.914  11.374  0.0053 -0.0536  0.3744
41931SOL    HW137518   1.856   1.855  11.321  1.6887 -0.9097 -0.5137
41931SOL    HW237519   1.891   2.002  11.341 -0.6617 -0.3662 -0.0744
41932SOL     OW37520   4.289  12.234   4.919 -0.0411  0.1353 -0.2371
41932SOL    HW137521   4.341  12.156   4.940 -1.1232 -0.6448 -0.3941
41932SOL    HW237522   4.209  12.200   4.879 -0.7374  1.3042  0.1086
41933SOL     OW37523   7.967   1.009  12.564  0.0582  0.4976  0.3623
41933SOL    HW137524   7.889   0.970  12.605 -0.3312  0.0523 -0.7627
41933SOL    HW237525   8.040   0.956  12.596 -0.2354  0.1657  0.4902
41934SOL     OW37526  11.443   2.737   7.715 -0.0927  0.1277  0.7033
41934SOL    HW137527  11.406   2.656   7.681 -3.0987  1.7747 -0.3622
41934SOL    HW237528  11.537   2.730   7.696 -0.5061 -2.3161 -0.9790
41935SOL     OW37529   6.419   9.692  11.108 -0.2326 -0.2836  0.0003
41935SOL    HW137530   6.492   9.639  11.076 -0.5782 -0.9476  0.3113
41935SOL    HW237531   6.458   9.745  11.179 -0.1484 -0.9460  0.4534
41936SOL     OW37532   7.884   1.108   0.463  0.2488 -0.2295 -0.2609
41936SOL    HW137533   7.839   1.066   0.537 -0.6529 -0.4408 -0.9244
41936SOL    HW237534   7.821   1.106   0.392  1.8529 -2.0557 -1.7532
41937SOL     OW37535  12.674  13.364  13.708 -0.3638 -0.6005 -0.0049
41937SOL    HW137536  12.722  13.383  13.628  0.4120  1.8820  0.9359
41937SOL    HW237537  12.582  13.370  13.683 -0.1341  0.3545 -0.7025
41938SOL     OW37538   5.044  11.580   3.137  0.1730 -0.1233  0.3400
41938SOL    HW137539   5.061  11.536   3.221  0.6275 -2.9969 -1.1150
41938SOL    HW237540   4.974  11.528   3.098  1.6357 -0.4089 -2.0630
41939SOL     OW37541   7.694   0.466   9.119 -0.1549 -0.0567  0.6094
41939SOL    HW137542   7.599   0.451   9.120 -0.3697  1.2408  0.8044
41939SOL    HW237543   7.707   0.532   9.051  0.6944 -0.6535  0.1705
41940SOL     OW37544  12.957   1.729  11.948  0.3918 -0.4945 -0.3780
41940SOL    HW137545  12.887   1.682  11.903  2.0086 -2.8936 -0.5656
41940SOL    HW237546  12.914   1.808  11.982 -2.2953 -1.6398 -0.8050
41941SOL     OW37547   6.046  10.294   5.279 -0.1428 -0.2463  0.4176
41941SOL    HW137548   6.072  10.357   5.212  1.6042 -1.1535  0.1752
41941SOL    HW237549   6.084  10.329   5.360  0.6554 -0.8569  0.3179
41942SOL     OW37550  12.239  13.094  11.589  0.3190 -0.2349 -0.7384
41942SOL    HW137551  12.176  13.038  11.544 -0.7375  1.5060 -1.5587
41942SOL    HW237552  12.324  13.067  11.556 -0.3047 -0.1334 -2.5308
41943SOL     OW37553   4.774  13.601   4.687 -0.1445 -0.2422  0.3671
41943SOL    HW137554   4.806  13.682   4.649 -2.6846  0.0318 -1.4875
41943SOL    HW237555   4.680  13.615   4.698 -0.6495 -2.8280  0.1373
41944SOL     OW37556   0.579   7.524   2.372 -0.1040 -0.3770 -0.2402
41944SOL    HW137557   0.539   7.450   2.327  1.1955 -1.1335 -0.2225
41944SOL    HW237558   0.602   7.585   2.302 -0.9324 -0.1057 -0.2817
41945SOL     OW37559  10.823   4.482   1.431 -0.6213  0.0374 -0.1859
41945SOL    HW137560  10.912   4.499   1.462  0.0109  1.0884 -2.4087
41945SOL    HW237561  10.795   4.406   1.481  0.8201  0.7543  1.8759
41946SOL     OW37562   7.853   0.811  10.863 -0.0787 -0.6061 -0.0171
41946SOL    HW137563   7.888   0.877  10.923 -1.9627 -0.2973  0.8185
41946SOL    HW237564   7.770   0.847  10.833  0.1396 -1.4106 -1.7035
41947SOL     OW37565  11.937   0.705   1.289  0.0992 -0.3634 -0.2248
41947SOL    HW137566  11.904   0.623   1.254  0.9638  0.2037 -2.5302
41947SOL    HW237567  12.031   0.691   1.301 -0.0999 -0.3976  1.5514
41948SOL     OW37568   1.825   9.527  13.451  0.7549  0.3946  0.2637
41948SOL    HW137569   1.791   9.595  13.392 -0.1905 -0.6372 -0.4126
41948SOL    HW237570   1.903   9.567  13.489  0.3078  1.8192 -0.2092
41949SOL     OW37571  13.057   3.350  10.680  0.5938 -0.0037  0.6194
41949SOL    HW137572  13.021   3.434  10.709  0.9867 -0.0461  1.2373
41949SOL    HW237573  13.146   3.369  10.652  1.1611 -0.4198  2.0200
41950SOL     OW37574   6.854   4.693  12.631 -0.2086  0.5068  0.2043
41950SOL    HW137575   6.923   4.699  12.564  0.5734 -2.3922  0.6386
41950SOL    HW237576   6.775   4.726  12.587  0.9190  1.6676 -1.0583
41951SOL     OW37577   2.900  10.588  11.495 -0.1229 -0.3130 -0.1064
41951SOL    HW137578   2.845  10.528  11.445 -3.1898  2.2119 -0.0357
41951SOL    HW237579   2.873  10.576  11.586  2.7634 -2.1660  0.6646
41952SOL     OW37580   3.375   8.364   4.982 -0.0088  0.2892  0.3131
41952SOL    HW137581   3.452   8.309   4.969  0.3885 -0.0941  3.4401
41952SOL    HW237582   3.409   8.453   4.989 -0.1818  0.4540 -0.8121
41953SOL     OW37583   0.804   5.454  13.685 -0.1097 -0.2113 -0.0958
41953SOL    HW137584   0.796   5.372  13.636 -2.9951  0.0281 -0.1625
41953SOL    HW237585   0.797   5.523  13.619 -1.0226  0.0852  0.2923
41954SOL     OW37586   9.009   9.756   3.475 -0.2191 -0.2016  0.1837
41954SOL    HW137587   9.032   9.847   3.497 -1.4629  0.5126 -1.2837
41954SOL    HW237588   9.055   9.740   3.393 -1.3170 -0.3083 -0.4248
41955SOL     OW37589   1.214   4.622   3.620  0.0307 -0.4208  0.1397
41955SOL    HW137590   1.290   4.676   3.598  1.1601 -1.3965  1.5262
41955SOL    HW237591   1.229   4.539   3.575  0.0512 -0.7877  0.8038
41956SOL     OW37592   0.002  12.089  11.233 -0.1868 -0.3735  0.1752
41956SOL    HW137593  -0.023  12.151  11.302 -1.0403  0.3596 -0.7648
41956SOL    HW237594  -0.062  12.105  11.163  1.5904  0.0069 -1.4265
41957SOL     OW37595   6.704  13.358  13.744 -0.2528  0.5994  0.5285
41957SOL    HW137596   6.658  13.330  13.665  2.7301  0.9937 -1.5100
41957SOL    HW237597   6.734  13.277  13.784 -0.3184  0.4620  0.3009
41958SOL     OW37598  12.142   0.957  10.319 -0.3671  0.2042 -0.6678
41958SOL    HW137599  12.047   0.947  10.310 -0.5644 -0.5742  1.5088
41958SOL    HW237600  12.153   0.989  10.409  1.4531 -0.5934 -0.5699
41959SOL     OW37601   8.633  12.298   9.928 -0.0172 -0.1056  0.2190
41959SOL    HW137602   8.596  12.241   9.860  1.3079  0.3331 -0.9068
41959SOL    HW237603   8.727  12.280   9.925  0.9425  4.0092 -2.1166
41960SOL     OW37604   2.572   2.988  12.234 -0.2448  0.3225 -0.3115
41960SOL    HW137605   2.614   3.008  12.318  2.5879 -1.9840 -1.0171
41960SOL    HW237606   2.486   2.953  12.259 -0.1687  1.3087  1.5006
41961SOL     OW37607   8.035   1.757  10.935 -0.0689  0.1438  0.0710
41961SOL    HW137608   8.075   1.675  10.964 -1.0560  0.1688  1.5944
41961SOL    HW237609   8.057   1.763  10.842 -0.1851 -1.9862 -0.1393
41962SOL     OW37610   8.453   6.813   4.811 -0.4205 -0.3887  0.0780
41962SOL    HW137611   8.366   6.784   4.783 -1.7932  2.8020  0.5653
41962SOL    HW237612   8.438   6.852   4.897  1.4294  0.4898  0.0315
41963SOL     OW37613   9.836   7.536   4.141  0.1753  0.9618 -0.7966
41963SOL    HW137614   9.832   7.587   4.222  0.8921 -0.0413 -0.1032
41963SOL    HW237615   9.914   7.481   4.151  0.6595  1.2774 -2.4551
41964SOL     OW37616   8.854   4.891   3.173  0.0801 -0.0653  0.2696
41964SOL    HW137617   8.853   4.815   3.231  1.1338 -0.1406  0.2056
41964SOL    HW237618   8.829   4.856   3.088 -0.1072 -0.2102  0.3821
41965SOL     OW37619   2.012   4.123  12.420  0.3167 -0.3963 -0.2246
41965SOL    HW137620   2.090   4.177  12.432  0.0986 -0.2452  0.5675
41965SOL    HW237621   1.951   4.181  12.374  0.7851 -0.6270 -1.1476
41966SOL     OW37622  12.551   2.148  12.501  0.5464 -0.2714  0.3046
41966SOL    HW137623  12.518   2.067  12.540  0.7607 -0.8202 -0.6170
41966SOL    HW237624  12.630   2.169  12.551  1.2843 -1.4201 -0.3458
41967SOL     OW37625   8.888   9.301   8.567  0.3330 -0.3541 -0.2906
41967SOL    HW137626   8.891   9.350   8.485 -2.3950 -0.1821 -0.3643
41967SOL    HW237627   8.819   9.343   8.618  1.5564 -0.8430  1.8803
41968SOL     OW37628  10.856   6.617   1.481  0.4138  0.3665 -0.8149
41968SOL    HW137629  10.901   6.544   1.524 -3.6201 -1.5818  0.6640
41968SOL    HW237630  10.810   6.578   1.407 -0.5728  1.7324 -0.9754
41969SOL     OW37631   4.508   5.081  12.981  0.5131  0.1084  0.0047
41969SOL    HW137632   4.451   5.104  12.907 -0.6630  0.2792  0.9260
41969SOL    HW237633   4.489   4.988  12.996 -1.7112  0.8150  2.0860
41970SOL     OW37634   5.012   4.502  10.470  0.0654 -0.3456  0.1389
41970SOL    HW137635   5.044   4.439  10.535  0.6209 -0.0332  0.1764
41970SOL    HW237636   4.975   4.448  10.400  1.4596 -0.7585 -0.3191
41971SOL     OW37637   7.668   5.934   8.275 -0.0928  0.1544 -0.5974
41971SOL    HW137638   7.648   5.852   8.230 -0.5089 -0.4581  0.6673
41971SOL    HW237639   7.712   5.907   8.356 -0.9396  1.1383  0.2114
41972SOL     OW37640   4.197   3.263  13.390  0.2313 -0.1919 -0.0337
41972SOL    HW137641   4.147   3.340  13.417  1.9121  0.9265  0.0452
41972SOL    HW237642   4.211   3.214  13.471 -1.3065 -0.8916 -0.1689
41973SOL     OW37643   3.587   6.116   9.917 -0.2797 -0.0151 -0.3624
41973SOL    HW137644   3.623   6.065   9.844 -0.9770  0.5525 -1.1152
41973SOL    HW237645   3.662   6.163   9.952 -0.0459  0.2008 -1.1262
41974SOL     OW37646   9.305   5.438   7.808  0.0666 -0.0605 -0.2103
41974SOL    HW137647   9.331   5.386   7.732 -0.3090  0.1433 -0.4792
41974SOL    HW237648   9.387   5.450   7.858  0.1630 -0.8540 -0.1713
41975SOL     OW37649   1.683   1.924   0.633 -0.0989 -0.8516 -0.0237
41975SOL    HW137650   1.697   1.998   0.692 -0.4557 -0.9050  0.1272
41975SOL    HW237651   1.758   1.927   0.573  0.9180 -1.5062  1.1737
41976SOL     OW37652  10.128   7.714  10.084  0.6837 -0.6194  0.6456
41976SOL    HW137653  10.134   7.623  10.055 -0.5408 -0.3051 -0.7776
41976SOL    HW237654  10.112   7.763  10.003  1.9224  0.9456  1.3060
41977SOL     OW37655  11.143   6.610   6.553  0.4081 -0.1645  0.2550
41977SOL    HW137656  11.207   6.544   6.525 -0.4935 -0.7399 -0.4934
41977SOL    HW237657  11.144   6.605   6.649  0.6292 -0.9905  0.2170
41978SOL     OW37658   4.915  12.529   3.852  0.0005 -0.5253  0.6925
41978SOL    HW137659   4.982  12.488   3.906  0.0089 -1.0887  0.2689
41978SOL    HW237660   4.942  12.510   3.762 -0.2229  0.0607  0.4976
41979SOL     OW37661   9.926   6.276   1.238  0.1550 -0.3208 -0.5695
41979SOL    HW137662  10.008   6.245   1.200  0.1984 -0.3832 -0.4287
41979SOL    HW237663   9.937   6.371   1.244  0.1694 -0.3169 -0.6637
41980SOL     OW37664   7.587  12.351   1.991 -0.4546  0.3668 -0.7540
41980SOL    HW137665   7.547  12.403   1.921 -0.8421  0.3220 -0.5678
41980SOL    HW237666   7.539  12.376   2.070  2.1894  3.0825  0.2216
41981SOL     OW37667  10.099  11.947   9.524 -0.9776  0.0417  0.3283
41981SOL    HW137668  10.034  11.902   9.578 -1.8374  1.9148  0.9306
41981SOL    HW237669  10.120  12.027   9.572  2.2872 -0.7547  0.4548
41982SOL     OW37670  13.205   9.250   7.458  0.8824  0.1999 -0.3246
41982SOL    HW137671  13.179   9.166   7.422 -0.4290  1.3736 -2.3186
41982SOL    HW237672  13.201   9.239   7.553 -1.5204 -1.3287 -0.5521
41983SOL     OW37673   9.829   5.201   3.957  0.6548 -0.4612  0.1840
41983SOL    HW137674   9.918   5.183   3.988 -0.2481 -1.4850  2.4506
41983SOL    HW237675   9.791   5.259   4.024  0.1252  1.4013 -1.6421
41984SOL     OW37676   4.336   1.736   4.678  0.4582  0.2608 -0.0498
41984SOL    HW137677   4.383   1.745   4.761  0.2203 -0.5680  0.1897
41984SOL    HW237678   4.320   1.826   4.650 -2.5636  0.7317  2.5677
41985SOL     OW37679  11.907  12.128   8.963 -0.1302  0.4306  0.1922
41985SOL    HW137680  11.967  12.060   8.932  1.1227  1.3688  0.5020
41985SOL    HW237681  11.964  12.200   8.991 -1.4141  1.4604  0.2456
41986SOL     OW37682  10.384   8.458  13.350 -0.0327  0.0154  0.2780
41986SOL    HW137683  10.470   8.419  13.365 -0.0740 -0.0350  0.3862
41986SOL    HW237684  10.333   8.389  13.308 -0.5448 -0.5438  1.7473
41987SOL     OW37685  11.621   1.049  13.491 -0.4994 -0.9882  0.1410
41987SOL    HW137686  11.638   1.130  13.538  1.0963 -1.5257  0.5584
41987SOL    HW237687  11.671   0.983  13.539 -0.9897 -2.0455 -0.7526
41988SOL     OW37688   7.988   3.475  10.246 -0.2093  0.5021  0.2684
41988SOL    HW137689   8.017   3.384  10.248 -2.2847 -0.1977  1.4290
41988SOL    HW237690   7.911   3.477  10.303 -1.0323  2.6970 -0.7947
41989SOL     OW37691   4.953   2.829   5.724  0.7097  0.6372  0.0818
41989SOL    HW137692   4.946   2.918   5.689  0.6743  0.9353  0.8283
41989SOL    HW237693   5.045   2.821   5.749  0.7753  0.3605 -0.2409
41990SOL     OW37694   6.004  13.591   2.568 -0.1477  0.6288 -0.3180
41990SOL    HW137695   6.047  13.655   2.511  0.2773  0.7716  0.1639
41990SOL    HW237696   5.992  13.636   2.651 -0.0332  0.1519 -0.0424
41991SOL     OW37697   2.138   8.872   4.623 -0.5657  0.1244 -0.4618
41991SOL    HW137698   2.219   8.906   4.585 -1.4562  1.2907 -1.3804
41991SOL    HW237699   2.121   8.791   4.574 -0.9864  0.9087 -1.6376
41992SOL     OW37700   0.806  10.056  11.235  0.0573 -0.0825  0.2514
41992SOL    HW137701   0.783  10.149  11.227  1.4279  0.3319  0.7779
41992SOL    HW237702   0.742  10.021  11.297 -0.5286  0.4770 -0.0186
41993SOL     OW37703   7.070   3.083  10.594 -0.5021  0.1206 -0.6647
41993SOL    HW137704   7.063   3.175  10.618  0.4004 -0.0495  0.3222
41993SOL    HW237705   7.164   3.064  10.597 -0.5778 -0.5799 -1.8574
41994SOL     OW37706   0.010  12.723   2.187 -0.0935 -0.7790 -0.0117
41994SOL    HW137707  -0.050  12.733   2.262 -0.9839 -0.1848 -0.7832
41994SOL    HW237708   0.063  12.802   2.189 -0.5760 -0.4413 -0.3995
41995SOL     OW37709   9.098   6.686   3.073  0.1272 -0.7700  0.4824
41995SOL    HW137710   9.015   6.702   3.119 -1.3784 -1.1167 -1.9441
41995SOL    HW237711   9.088   6.599   3.036  0.1700  0.4018 -2.5381
41996SOL     OW37712   6.698   0.649  13.181  0.0865 -0.1440 -0.1494
41996SOL    HW137713   6.703   0.599  13.262 -0.3419 -1.6173 -1.0122
41996SOL    HW237714   6.771   0.616  13.128  1.5566  2.1146  0.2904
41997SOL     OW37715   1.256  13.178   3.568  0.0457 -0.3656 -0.2031
41997SOL    HW137716   1.347  13.168   3.539  0.6036  0.2932  1.1957
41997SOL    HW237717   1.255  13.141   3.657 -0.8754  0.2660  0.0615
41998SOL     OW37718   0.240  12.180   1.875 -0.1826  0.4053 -0.3838
41998SOL    HW137719   0.189  12.135   1.808  0.1414 -0.4568 -0.0727
41998SOL    HW237720   0.323  12.201   1.832  0.9500 -2.1873  0.3186
41999SOL     OW37721   9.717   8.201   3.970 -0.6316  0.3404  0.7449
41999SOL    HW137722   9.625   8.197   3.995 -1.0935 -0.0826 -0.9289
41999SOL    HW237723   9.723   8.150   3.890  0.8870  1.1149  0.3224
42000SOL     OW37724  11.134  10.438   3.341  0.1108  0.1024 -0.4588
42000SOL    HW137725  11.040  10.455   3.333 -0.0000 -0.1716  0.2560
42000SOL    HW237726  11.140  10.351   3.380  0.6808 -1.5211 -3.8147
42001SOL     OW37727   1.846   3.052   3.346 -0.4539  0.3245 -0.7630
42001SOL    HW137728   1.756   3.019   3.357 -0.9094  1.2989 -1.4025
42001SOL    HW237729   1.898   3.001   3.408 -1.3322 -0.7397 -0.8665
42002SOL     OW37730   4.646  11.412   3.441 -0.5867  0.2268  0.6367
42002SOL    HW137731   4.692  11.392   3.359 -1.5355  1.2715 -0.1826
42002SOL    HW237732   4.554  11.394   3.422 -0.6407 -1.2189  2.0552
42003SOL     OW37733   1.537   1.239   1.876  0.1788  0.2185  0.0759
42003SOL    HW137734   1.488   1.280   1.947  0.5984 -0.1535  0.5871
42003SOL    HW237735   1.472   1.224   1.808 -0.2618  0.4295  0.4421
42004SOL     OW37736   8.230  10.557   7.355 -0.2407 -0.5984 -0.0722
42004SOL    HW137737   8.252  10.478   7.405 -0.6042 -0.8138 -0.2496
42004SOL    HW237738   8.313  10.604   7.347  0.0952 -1.2410 -0.4536
42005SOL     OW37739   8.370   4.594   8.206  0.1670  0.3639  0.1440
42005SOL    HW137740   8.309   4.652   8.159 -2.2881 -0.8721  1.5639
42005SOL    HW237741   8.405   4.536   8.139 -0.4007  0.9903 -0.7100
42006SOL     OW37742   7.848   9.162  12.684  0.1870 -0.0543  0.0993
42006SOL    HW137743   7.754   9.148  12.698  0.3483 -2.2079 -0.7211
42006SOL    HW237744   7.879   9.199  12.767 -1.3543  0.6239  0.4064
42007SOL     OW37745  10.793   6.584   5.178 -0.4483 -0.1440 -0.8014
42007SOL    HW137746  10.878   6.580   5.223 -0.1290  2.1239 -1.0994
42007SOL    HW237747  10.732   6.544   5.239  0.8966 -2.4676 -0.8531
42008SOL     OW37748   9.064   0.968   8.539  0.6081  0.3327  0.4897
42008SOL    HW137749   9.076   0.876   8.562  0.5281  0.3150  0.4588
42008SOL    HW237750   9.050   0.967   8.444  1.5683  0.4570  0.3273
42009SOL     OW37751   7.299   9.012  10.221  0.3505 -0.3008  0.7844
42009SOL    HW137752   7.275   8.979  10.134 -0.0198 -1.8072  1.4328
42009SOL    HW237753   7.313   9.106  10.207 -2.9902  0.1906 -0.2618
42010SOL     OW37754  11.952  12.749   7.561  0.1623  0.0212  0.1792
42010SOL    HW137755  11.936  12.766   7.468  0.6525  0.3493  0.1478
42010SOL    HW237756  12.026  12.688   7.562 -0.1347 -0.3377  0.3447
42011SOL     OW37757   0.831  13.663  13.696 -0.1530 -0.5958 -0.3667
42011SOL    HW137758   0.814  13.745  13.743  0.0616 -0.2490 -0.8804
42011SOL    HW237759   0.889  13.614  13.754  0.7295  0.1504 -0.5760
42012SOL     OW37760   3.905   6.808  10.543 -0.6700  0.3631 -0.1775
42012SOL    HW137761   3.823   6.840  10.508 -0.7012  0.7553  0.2418
42012SOL    HW237762   3.929   6.735  10.486 -1.4514  0.0596 -0.1276
42013SOL     OW37763   9.760   6.691  11.791 -0.4710 -0.1212  0.1842
42013SOL    HW137764   9.764   6.783  11.816  1.7212  0.5475 -2.1012
42013SOL    HW237765   9.802   6.645  11.863 -2.4544  0.4721  1.8049
42014SOL     OW37766   7.710  10.770   6.938  0.1609 -0.1733  0.3428
42014SOL    HW137767   7.658  10.738   7.012  0.4287  0.2250  0.7056
42014SOL    HW237768   7.797  10.734   6.953 -0.0166 -0.8923 -0.2991
42015SOL     OW37769   8.937  10.631   0.540  0.5315 -0.4929  0.7042
42015SOL    HW137770   8.865  10.661   0.595  0.2909  1.6786 -0.6726
42015SOL    HW237771   9.012  10.626   0.599 -0.3595 -1.2245  1.8224
42016SOL     OW37772   1.865  12.197   3.146 -0.1460 -0.0903  0.2466
42016SOL    HW137773   1.786  12.156   3.112 -0.7444  1.5990 -0.5129
42016SOL    HW237774   1.840  12.288   3.162  1.1107  0.0179  1.8909
42017SOL     OW37775   0.204  11.434  12.223  0.5607 -0.3883  0.5087
42017SOL    HW137776   0.117  11.449  12.259 -0.5532 -0.3144 -2.0090
42017SOL    HW237777   0.201  11.346  12.186  1.4975 -0.3190  0.2225
42018SOL     OW37778   0.947  10.889   3.683 -0.2537 -0.1564 -0.0660
42018SOL    HW137779   0.933  10.794   3.687 -0.6381 -0.0732  0.6750
42018SOL    HW237780   0.862  10.924   3.656 -0.0290 -0.0426 -0.6302
42019SOL     OW37781  12.610   7.400   6.025 -0.3109  0.2424  1.0735
42019SOL    HW137782  12.545   7.336   6.057 -0.6057  0.9854  2.0164
42019SOL    HW237783  12.688   7.382   6.078  1.0088 -1.9796 -1.4039
42020SOL     OW37784   6.406   8.270  11.856  0.2871 -0.3379 -0.8096
42020SOL    HW137785   6.361   8.324  11.791  1.4535  0.1366 -1.2594
42020SOL    HW237786   6.389   8.180  11.828  1.5578 -0.1512 -2.3996
42021SOL     OW37787   2.548   1.382   8.709 -0.0061 -0.0309  0.1806
42021SOL    HW137788   2.556   1.363   8.616  0.5014  2.3026 -0.3375
42021SOL    HW237789   2.634   1.362   8.745 -0.6993 -2.6186  0.5684
42022SOL     OW37790  10.873   2.214   6.867  0.3183  0.3634  0.0472
42022SOL    HW137791  10.905   2.147   6.807 -0.2683 -0.1590  0.3081
42022SOL    HW237792  10.877   2.295   6.817  1.1115  0.1541 -0.2502
42023SOL     OW37793  11.719   9.824   2.470  0.4269 -0.2391 -0.4243
42023SOL    HW137794  11.682   9.752   2.419 -0.4293 -0.6576  0.7387
42023SOL    HW237795  11.800   9.788   2.505  2.8453  1.1075 -4.0675
42024SOL     OW37796   7.999   0.397  12.651  0.3815 -0.2833 -0.6341
42024SOL    HW137797   7.987   0.350  12.569 -1.0539 -0.0595 -0.5837
42024SOL    HW237798   7.962   0.338  12.718 -0.5821  0.4987 -0.4557
42025SOL     OW37799   0.104  12.776   2.867 -0.0502  0.2247  0.5487
42025SOL    HW137800   0.044  12.849   2.885 -0.1520  0.1408  0.5516
42025SOL    HW237801   0.114  12.732   2.952 -2.0294 -1.3090  0.0817
42026SOL     OW37802   9.245   2.166   2.207 -0.2251  0.1013  0.5125
42026SOL    HW137803   9.207   2.253   2.219 -0.2932  0.1953 -0.2855
42026SOL    HW237804   9.324   2.166   2.261 -0.0215  0.8050  0.2274
42027SOL     OW37805  11.748   7.220   0.209 -0.2557  0.1909 -0.0102
42027SOL    HW137806  11.740   7.288   0.276 -1.1709 -0.4757  0.5838
42027SOL    HW237807  11.657   7.198   0.187  0.0303 -0.7236 -0.3138
42028SOL     OW37808   7.562   1.709   1.786 -0.0672 -0.5356  0.1446
42028SOL    HW137809   7.635   1.672   1.736  0.1352  0.2576 -0.1714
42028SOL    HW237810   7.542   1.643   1.852  0.9421 -0.7654  0.2360
42029SOL     OW37811   9.829   9.485   7.328 -0.8273 -0.4324 -0.0262
42029SOL    HW137812   9.813   9.406   7.379 -1.7845 -0.3898 -0.2515
42029SOL    HW237813   9.742   9.518   7.306 -0.4361 -0.5662 -1.8871
42030SOL     OW37814   9.465   7.575   4.008 -0.2456  0.0146  0.3768
42030SOL    HW137815   9.479   7.506   3.942  0.4770 -0.7566  1.3192
42030SOL    HW237816   9.495   7.537   4.090  1.0578  1.7854  0.7821
42031SOL     OW37817   3.818   8.706   5.497  0.3356 -0.0467 -0.1426
42031SOL    HW137818   3.842   8.752   5.577  0.4105 -0.8266  0.2946
42031SOL    HW237819   3.726   8.729   5.483  0.1115 -0.4828  0.5735
42032SOL     OW37820   2.024   8.041   4.961 -0.4990  0.1902  0.1495
42032SOL    HW137821   2.042   7.969   4.900  0.7581  0.6896 -0.1031
42032SOL    HW237822   2.025   8.000   5.047 -0.9180 -0.2909 -0.0719
42033SOL     OW37823   5.708  10.570   1.133  0.2020 -0.2063 -0.5409
42033SOL    HW137824   5.688  10.627   1.059 -0.1708 -0.1990 -0.4357
42033SOL    HW237825   5.624  10.560   1.179  0.6340  0.5763  0.4359
42034SOL     OW37826  13.601   5.751  11.046  0.0514 -0.1554  0.1032
42034SOL    HW137827  13.684   5.716  11.012 -1.8483 -3.3122 -1.9054
42034SOL    HW237828  13.572   5.685  11.109 -1.7710 -0.1370 -0.6597
42035SOL     OW37829   5.422   4.912   9.150 -0.6153 -0.0128 -0.2738
42035SOL    HW137830   5.469   4.908   9.233  0.6405 -0.9871 -1.0048
42035SOL    HW237831   5.331   4.895   9.174  0.0591 -2.8629  0.6568
42036SOL     OW37832   1.844   7.351  10.106  0.1124  0.0741 -0.2236
42036SOL    HW137833   1.830   7.392  10.191 -2.1691  0.4783 -0.7085
42036SOL    HW237834   1.920   7.396  10.069 -0.6754  2.0081  0.3938
42037SOL     OW37835  10.647   6.363   5.067 -0.0659  0.1066 -0.1624
42037SOL    HW137836  10.659   6.330   4.978  1.1803 -2.3602  0.8338
42037SOL    HW237837  10.728   6.410   5.086  0.4399 -0.8987  0.2462
42038SOL     OW37838   3.646   1.401   6.873  0.1973  0.0685  0.0161
42038SOL    HW137839   3.659   1.380   6.966  1.9146 -0.9165 -0.4132
42038SOL    HW237840   3.606   1.322   6.836 -2.7579  1.2694  0.2897
42039SOL     OW37841   8.561   9.696   0.401 -0.1806 -0.1047  0.3731
42039SOL    HW137842   8.479   9.694   0.450 -0.5629  2.6149 -0.0060
42039SOL    HW237843   8.627   9.666   0.463 -1.1147  0.0961  1.4878
42040SOL     OW37844   0.604   6.170   1.986 -0.3205  0.1656  0.1773
42040SOL    HW137845   0.607   6.186   1.891 -1.4134  0.7476  0.2272
42040SOL    HW237846   0.578   6.078   1.994  0.3025 -0.0398 -0.0794
42041SOL     OW37847   9.337  10.424   8.754 -0.0699 -0.3633  0.2709
42041SOL    HW137848   9.301  10.390   8.836  1.0719 -1.1795  0.4608
42041SOL    HW237849   9.352  10.517   8.772  0.5172 -0.6092  1.1407
42042SOL     OW37850   9.228   0.949   8.806  0.1954 -0.3903  0.0806
42042SOL    HW137851   9.274   0.865   8.809  0.3974 -0.2770  0.1705
42042SOL    HW237852   9.145   0.929   8.763 -0.3267 -0.8936  1.2805
42043SOL     OW37853   5.405  11.101   8.114 -0.3038  0.0226  0.1047
42043SOL    HW137854   5.395  11.007   8.098 -0.4653  0.2948 -1.4690
42043SOL    HW237855   5.323  11.127   8.157 -1.4770 -0.0387 -1.9889
42044SOL     OW37856   1.634   9.825   7.094 -0.1085  0.4186 -0.4347
42044SOL    HW137857   1.562   9.887   7.083 -0.1409  0.2163 -1.3994
42044SOL    HW237858   1.684   9.859   7.168 -1.2409  0.5133  0.3201
42045SOL     OW37859   0.068   8.756  11.185  0.6363  0.0618 -0.1967
42045SOL    HW137860   0.057   8.820  11.115  2.0576  0.2898 -0.2403
42045SOL    HW237861   0.159   8.766  11.213  0.4509 -0.8939  0.8332
42046SOL     OW37862   9.508   9.183  12.491  0.4574 -0.1545 -0.7003
42046SOL    HW137863   9.495   9.091  12.470  0.1963  0.1265 -1.8620
42046SOL    HW237864   9.568   9.215  12.423  1.0236  0.4028  0.0366
42047SOL     OW37865   6.349   0.863   5.217  0.3511 -0.6181  0.4650
42047SOL    HW137866   6.421   0.859   5.154 -0.8078  0.4322 -0.9755
42047SOL    HW237867   6.272   0.887   5.166 -0.5529  0.8233  2.3647
42048SOL     OW37868   7.106   2.710   6.219  1.1162  0.4154 -0.3153
42048SOL    HW137869   7.117   2.776   6.287  0.9399  0.2189 -0.0935
42048SOL    HW237870   7.104   2.760   6.138  1.4241  0.6443 -0.1866
42049SOL     OW37871  11.424   8.919   9.451 -0.0206 -0.1371 -0.0546
42049SOL    HW137872  11.367   8.973   9.396 -1.6003 -0.2644  1.4069
42049SOL    HW237873  11.423   8.962   9.536 -1.2385 -2.3389  1.1260
42050SOL     OW37874  11.281   2.814   7.916  0.1118 -0.1662 -0.3245
42050SOL    HW137875  11.353   2.789   7.859 -0.0112 -2.5570  0.4788
42050SOL    HW237876  11.222   2.739   7.914 -0.2856  0.0110  2.2920
42051SOL     OW37877  13.029   4.723   3.701 -0.1872 -0.1444  0.3589
42051SOL    HW137878  13.030   4.676   3.617  2.4245  0.1434  0.1397
42051SOL    HW237879  13.014   4.814   3.678  0.8504 -0.0188  0.1494
42052SOL     OW37880   3.388   0.385   1.055 -0.1820  0.0777  0.3920
42052SOL    HW137881   3.443   0.463   1.043 -1.0438  0.4873 -1.1740
42052SOL    HW237882   3.303   0.410   1.019 -0.9410 -1.0859  1.3142
42053SOL     OW37883   7.293   0.248  11.424  0.4030 -0.4367 -0.6351
42053SOL    HW137884   7.209   0.287  11.401 -0.6897 -2.1801  0.1502
42053SOL    HW237885   7.346   0.321  11.455 -0.3302  0.9104 -2.4027
42054SOL     OW37886   5.801   8.920   5.119 -0.4466  0.1163 -0.2885
42054SOL    HW137887   5.801   9.013   5.141 -0.5682  0.0234  0.1078
42054SOL    HW237888   5.726   8.884   5.166  1.5147 -0.8347  2.3255
42055SOL     OW37889   5.137  12.630  12.725 -0.1873 -0.7103  0.0660
42055SOL    HW137890   5.167  12.677  12.647 -0.1594 -0.3202  0.3042
42055SOL    HW237891   5.214  12.626  12.781 -0.2932 -0.6858  0.2136
42056SOL     OW37892  10.077   1.829   0.059  0.6152  0.0358 -0.2489
42056SOL    HW137893  10.142   1.805   0.124 -0.6301 -2.0787  0.3251
42056SOL    HW237894  10.100   1.779  -0.019 -0.9497 -1.7289  0.3532
42057SOL     OW37895   2.998  10.270   9.295 -0.0884 -0.0752  0.7032
42057SOL    HW137896   2.989  10.363   9.273 -0.1108 -0.4606 -1.1073
42057SOL    HW237897   3.050  10.233   9.224 -0.0017 -1.4430  1.4365
42058SOL     OW37898   1.571   2.843   0.373  0.3483 -0.3226 -0.0227
42058SOL    HW137899   1.480   2.848   0.403 -0.4536 -1.4278 -2.0359
42058SOL    HW237900   1.613   2.785   0.436 -0.7951 -1.0924  0.0863
42059SOL     OW37901   7.610  12.678   3.652 -0.4592  0.0046 -0.4763
42059SOL    HW137902   7.639  12.600   3.699  1.2319 -0.1705 -1.7113
42059SOL    HW237903   7.620  12.750   3.715 -2.3071 -0.7319  0.7707
42060SOL     OW37904   9.153   1.733   9.597  0.5575  0.1290  0.3805
42060SOL    HW137905   9.166   1.679   9.520  1.3891  2.1679 -0.9883
42060SOL    HW237906   9.236   1.728   9.645  0.1356 -0.9110  1.0486
42061SOL     OW37907   1.284   9.474   8.061 -0.5111  0.2102 -0.3711
42061SOL    HW137908   1.264   9.388   8.097  1.9819 -0.1714  0.2288
42061SOL    HW237909   1.217   9.487   7.994 -0.7712 -2.3295 -0.7127
42062SOL     OW37910   9.557   1.348   1.172  0.6178  0.2130  0.6388
42062SOL    HW137911   9.549   1.435   1.133 -0.2434  0.3876  1.1833
42062SOL    HW237912   9.622   1.358   1.241  0.4108  0.4657  0.7991
42063SOL     OW37913   8.231   0.251  11.246 -0.3337 -0.2672 -0.4606
42063SOL    HW137914   8.179   0.186  11.199 -0.1059  0.2190 -1.4071
42063SOL    HW237915   8.320   0.217  11.243 -0.2588 -0.0451 -0.7144
42064SOL     OW37916   6.866   8.300   9.227 -0.4694 -0.4035 -0.2467
42064SOL    HW137917   6.797   8.339   9.280 -0.4679 -1.4595  0.5746
42064SOL    HW237918   6.894   8.370   9.168  1.4525  1.7315  2.9260
42065SOL     OW37919  12.635   4.666  10.291 -0.6153  0.5512  0.0222
42065SOL    HW137920  12.599   4.642  10.206 -0.8037 -1.5286  0.6420
42065SOL    HW237921  12.698   4.596  10.311 -0.3075  1.1955  1.4331
42066SOL     OW37922   7.660  10.985   5.611  0.1180  0.1932 -0.0307
42066SOL    HW137923   7.590  10.970   5.674  0.0827 -1.3378 -0.3759
42066SOL    HW237924   7.715  10.907   5.619  1.0771  0.7935 -0.6598
42067SOL     OW37925   6.894   5.845   1.849 -0.1961  0.1298  0.1005
42067SOL    HW137926   6.970   5.901   1.870  0.8152 -1.5173  1.0921
42067SOL    HW237927   6.928   5.780   1.788 -0.1948 -1.8352  2.0470
42068SOL     OW37928   2.193   0.399   2.740 -0.1608 -0.4884 -0.0980
42068SOL    HW137929   2.185   0.364   2.652 -0.6268  0.5584 -0.4859
42068SOL    HW237930   2.119   0.459   2.749  0.6514  0.4514  0.5094
42069SOL     OW37931   9.756   8.332  13.082  0.1141 -0.0887  0.2155
42069SOL    HW137932   9.686   8.369  13.136 -0.0330  1.4349 -0.9384
42069SOL    HW237933   9.741   8.370  12.996  1.2113 -1.3105 -0.5421
42070SOL     OW37934   1.022  11.021   5.067  0.2446 -0.6136  0.1900
42070SOL    HW137935   1.058  11.101   5.105  0.8821 -1.0086  0.4385
42070SOL    HW237936   1.089  10.991   5.006 -0.9496  0.2367 -1.6040
42071SOL     OW37937   9.903   3.773  13.236  0.3251  0.5339  0.6626
42071SOL    HW137938   9.955   3.695  13.219 -0.0944  0.2467  0.6786
42071SOL    HW237939   9.898   3.817  13.151  0.5350  0.5223  0.6450
42072SOL     OW37940   0.819   3.940  13.352  0.0052 -0.5453  0.0282
42072SOL    HW137941   0.761   3.931  13.276 -0.8666 -0.0315  0.6109
42072SOL    HW237942   0.850   4.030  13.348  0.7021 -0.7878 -0.2187
42073SOL     OW37943   8.196  13.632   2.828  0.0428  0.1846 -0.6340
42073SOL    HW137944   8.252  13.610   2.903 -3.0900  2.1888  2.5869
42073SOL    HW237945   8.210  13.726   2.814 -0.9779  0.2803 -1.1164
42074SOL     OW37946   7.180   3.429   6.955  0.2592 -0.1167  0.0315
42074SOL    HW137947   7.097   3.404   6.994  0.6464 -1.5267  0.0062
42074SOL    HW237948   7.188   3.372   6.878  0.2691  1.4757 -1.1929
42075SOL     OW37949  10.878  10.146   6.401  0.2207  0.0391 -0.2445
42075SOL    HW137950  10.921  10.061   6.401 -0.8462 -0.5189 -0.6935
42075SOL    HW237951  10.862  10.165   6.308 -1.1108 -0.1074 -0.0668
42076SOL     OW37952  12.326   8.711   7.831  0.0063 -0.7703  0.1600
42076SOL    HW137953  12.231   8.704   7.827 -0.1116 -0.9202  2.3210
42076SOL    HW237954  12.343   8.804   7.842  0.1070 -0.7851  0.1325
42077SOL     OW37955   8.993   5.395   7.489  0.3963  0.1763 -0.0793
42077SOL    HW137956   9.003   5.305   7.520 -1.7428  0.3585  1.3523
42077SOL    HW237957   9.021   5.449   7.563  0.4647  0.6901 -0.4749
42078SOL     OW37958   6.522   1.002   2.619 -0.1067  0.2127 -0.2104
42078SOL    HW137959   6.475   1.005   2.702 -1.0318 -0.2176 -0.7088
42078SOL    HW237960   6.569   1.086   2.615 -1.5619  1.0521 -0.1242
42079SOL     OW37961   9.895  10.508  12.045  0.2077  0.0829 -0.5068
42079SOL    HW137962   9.927  10.525  11.957 -1.5699  1.0368 -1.0244
42079SOL    HW237963   9.968  10.531  12.102  1.0600  0.3877 -1.6853
42080SOL     OW37964   0.623   1.555   1.984  0.1582 -0.3398  0.2330
42080SOL    HW137965   0.658   1.557   2.073  0.5423 -0.2927  0.0821
42080SOL    HW237966   0.684   1.608   1.933 -0.5912  0.4635  0.1338
42081SOL     OW37967   9.587  13.282  11.166 -0.1456  0.0105  0.2433
42081SOL    HW137968   9.543  13.246  11.089 -0.5334 -0.3116  0.6077
42081SOL    HW237969   9.641  13.210  11.199  0.5110  0.3449 -0.0889
42082SOL     OW37970   0.061   6.896   2.122  0.2864  0.2997 -0.8234
42082SOL    HW137971   0.098   6.915   2.208  0.2298  0.4136 -0.8243
42082SOL    HW237972   0.043   6.982   2.084  1.5971  0.3147 -1.5072
42083SOL     OW37973   3.629  13.028   2.301  0.3153 -0.3543 -0.1260
42083SOL    HW137974   3.695  13.062   2.362 -0.1145 -0.8128  0.6111
42083SOL    HW237975   3.593  13.106   2.259 -0.5100  0.1066  1.3848
42084SOL     OW37976   7.172   9.559   2.901  0.0995 -0.0342 -0.0172
42084SOL    HW137977   7.108   9.548   2.972  1.1699 -2.5980  0.6947
42084SOL    HW237978   7.224   9.635   2.927 -1.5115  1.0268  0.2667
42085SOL     OW37979   1.596   9.750  13.171  0.2612  0.2520  0.0153
42085SOL    HW137980   1.660   9.738  13.241 -2.5533  0.0909  2.7993
42085SOL    HW237981   1.560   9.837  13.186  0.0452  0.4771 -1.6831
42086SOL     OW37982   2.522   8.776   1.895 -0.3179 -0.1030  0.0071
42086SOL    HW137983   2.543   8.784   1.988  0.3374 -0.6205 -0.0858
42086SOL    HW237984   2.480   8.690   1.887  1.4182 -0.9684 -0.4507
42087SOL     OW37985   1.531  11.974   7.697 -0.3140 -0.1014 -0.7828
42087SOL    HW137986   1.541  12.065   7.667 -1.9272  0.6028  0.6366
42087SOL    HW237987   1.448  11.945   7.660 -2.9675  1.1702  3.4675
42088SOL     OW37988   1.308   4.757   6.569 -0.0664  0.2367  0.1129
42088SOL    HW137989   1.331   4.798   6.485  0.9359 -1.1871 -0.3421
42088SOL    HW237990   1.215   4.735   6.561  0.5788 -2.2390 -1.7203
42089SOL     OW37991  11.364   5.607  12.507 -0.3539 -0.2092  0.5314
42089SOL    HW137992  11.333   5.518  12.496  1.2936 -0.5983 -1.6593
42089SOL    HW237993  11.422   5.604  12.583  0.3912 -1.2427 -0.0536
42090SOL     OW37994  13.060   7.190  10.940  0.4112 -0.0396 -0.1082
42090SOL    HW137995  13.021   7.257  10.884  0.5016  0.6619  0.6538
42090SOL    HW237996  13.151   7.218  10.951 -0.2470  1.3608  2.5958
42091SOL     OW37997   2.582   8.037   0.024 -0.5721 -0.2159 -0.0040
42091SOL    HW137998   2.672   8.061   0.048 -0.7389  0.2535  0.1619
42091SOL    HW237999   2.528   8.070   0.096 -0.9031 -0.2664 -0.2254
42092SOL     OW38000   1.132   0.065  12.902 -0.4869  0.1819  0.1549
42092SOL    HW138001   1.134  -0.025  12.936 -0.7373  0.4649  0.9456
42092SOL    HW238002   1.068   0.110  12.958 -0.7852  0.7122 -0.5997
42093SOL     OW38003   2.009  12.943   0.117  0.3045 -0.3532 -0.2708
42093SOL    HW138004   1.928  12.910   0.079  0.1203 -0.4874  0.2262
42093SOL    HW238005   2.062  12.970   0.042 -0.5046  0.4556 -0.5628
42094SOL     OW38006   0.980  11.785   8.656 -0.4676 -0.7319 -0.0528
42094SOL    HW138007   0.907  11.724   8.659 -0.0785 -1.1713  0.8411
42094SOL    HW238008   1.058  11.730   8.665 -0.0824 -0.1819  0.0170
42095SOL     OW38009   5.330   2.572   6.155  0.0697 -0.4782  0.3656
42095SOL    HW138010   5.276   2.578   6.234  0.7820  1.9954  0.7503
42095SOL    HW238011   5.418   2.554   6.188  0.3020  0.2093  0.1500
42096SOL     OW38012   8.866   0.651   7.445  0.8740 -0.5082  0.2479
42096SOL    HW138013   8.928   0.579   7.462 -0.4692 -1.5977  0.7794
42096SOL    HW238014   8.816   0.658   7.527  1.9673  2.1159  0.7939
42097SOL     OW38015   0.914   5.981   6.281  0.1850 -0.2214 -0.4542
42097SOL    HW138016   0.840   5.924   6.259  0.4514 -1.9564  2.6291
42097SOL    HW238017   0.978   5.964   6.211 -1.6212  0.0614 -2.2676
42098SOL     OW38018   2.226   4.433   3.567  0.5741 -0.3659  0.0633
42098SOL    HW138019   2.227   4.365   3.634  0.6873 -0.1888  0.2431
42098SOL    HW238020   2.243   4.387   3.486  1.8572 -0.3937  0.3362
42099SOL     OW38021   4.626  12.844   5.644  0.2270 -0.5609  0.3593
42099SOL    HW138022   4.633  12.923   5.696 -0.3542 -0.5720  0.4670
42099SOL    HW238023   4.557  12.863   5.580  1.2078 -0.3941 -0.6923
42100SOL     OW38024   7.171  12.426   1.252 -0.1779 -0.2898  0.1719
42100SOL    HW138025   7.252  12.457   1.294  1.0846 -3.2362  0.1050
42100SOL    HW238026   7.103  12.482   1.290  1.7885  2.1355  0.4367
42101SOL     OW38027   9.899   5.658   3.695  0.2926  0.1424 -0.7464
42101SOL    HW138028   9.950   5.739   3.702 -0.2564  0.4115  0.3183
42101SOL    HW238029   9.822   5.683   3.644 -0.2708  0.5083  0.2564
42102SOL     OW38030   7.260   4.640  13.449 -0.0738  0.3165  0.0227
42102SOL    HW138031   7.308   4.579  13.505 -1.5733 -1.2026 -0.2692
42102SOL    HW238032   7.195   4.585  13.404  1.2126  1.3900 -3.4290
42103SOL     OW38033  11.928   0.702   2.260 -0.2543  0.3025  0.6093
42103SOL    HW138034  11.953   0.728   2.171 -0.7243  1.8323  0.8961
42103SOL    HW238035  11.987   0.629   2.281  2.1022  1.9552  0.2117
42104SOL     OW38036   7.780  13.729   4.461 -0.0770  0.9015  0.0966
42104SOL    HW138037   7.836  13.712   4.384 -1.0195  0.0860 -0.4333
42104SOL    HW238038   7.774  13.824   4.466 -0.9332  0.9696 -1.5640
42105SOL     OW38039  13.471   6.321  11.278  0.1096 -0.1769 -0.1992
42105SOL    HW138040  13.561   6.353  11.277  0.7431 -1.8765 -0.8244
42105SOL    HW238041  13.479   6.226  11.280 -1.6862 -0.3587  0.4912
42106SOL     OW38042  10.449   2.897   5.471  0.2948  0.4173  0.3702
42106SOL    HW138043  10.387   2.871   5.539 -0.7369  0.2028 -0.6297
42106SOL    HW238044  10.398   2.952   5.412  0.4238 -1.5332 -1.6846
42107SOL     OW38045   4.073   0.863  11.364 -0.1927 -0.2001 -0.2927
42107SOL    HW138046   4.135   0.922  11.407  0.6721 -1.3180  0.0408
42107SOL    HW238047   4.035   0.915  11.294  0.3945  0.8140  0.1230
42108SOL     OW38048   7.771  13.299   7.498 -0.3782  0.0832 -0.0552
42108SOL    HW138049   7.780  13.381   7.547  2.9668  1.5235 -2.7152
42108SOL    HW238050   7.794  13.231   7.561  2.8718  1.7646  0.7601
42109SOL     OW38051  11.539   1.837   0.887 -0.3021 -0.2349  0.1320
42109SOL    HW138052  11.450   1.858   0.917 -0.7754 -1.5374 -0.2788
42109SOL    HW238053  11.593   1.846   0.966 -0.5518  1.8035  0.1203
42110SOL     OW38054   1.880   6.942   5.699 -0.5130  0.7166 -0.1496
42110SOL    HW138055   1.874   6.849   5.721 -1.1825  0.7267 -0.2875
42110SOL    HW238056   1.792   6.976   5.714 -0.5921  1.0674 -1.3169
42111SOL     OW38057   7.320  11.741  11.054 -0.2265 -0.1368 -0.1321
42111SOL    HW138058   7.388  11.690  11.011 -0.5183  0.8137 -1.8259
42111SOL    HW238059   7.367  11.794  11.119  0.6650  0.4550 -1.2291
42112SOL     OW38060  11.022   4.822   1.401 -0.2777  0.2848  0.2129
42112SOL    HW138061  11.072   4.873   1.465  1.2598 -0.2919 -0.4716
42112SOL    HW238062  11.033   4.731   1.430 -1.4930  0.1791  0.4014
42113SOL     OW38063   1.166   5.872   2.796  0.6719 -0.1416  0.5864
42113SOL    HW138064   1.086   5.832   2.761  0.8812  0.5439 -0.7466
42113SOL    HW238065   1.224   5.798   2.812 -0.7232 -0.8118  3.0706
42114SOL     OW38066   8.936   2.725   4.496  0.2205 -0.1966 -1.0162
42114SOL    HW138067   9.017   2.723   4.445  0.2274 -1.6498 -1.0070
42114SOL    HW238068   8.926   2.635   4.527  0.2703  0.6064  1.6267
42115SOL     OW38069   6.217   3.799   9.752 -0.6748 -0.7533 -0.1084
42115SOL    HW138070   6.298   3.826   9.795 -0.7693 -0.8348  0.1176
42115SOL    HW238071   6.244   3.729   9.692 -0.9157 -2.3735  1.5877
42116SOL     OW38072   8.260   3.590   5.967  0.4992 -0.2618 -0.2540
42116SOL    HW138073   8.321   3.649   5.923  1.9908  0.0892  2.1080
42116SOL    HW238074   8.176   3.637   5.966  0.9666  0.5792 -0.9650
42117SOL     OW38075  12.665   1.682   0.614 -0.1078 -0.4296  0.4059
42117SOL    HW138076  12.722   1.748   0.572  0.6793 -0.3875  1.4842
42117SOL    HW238077  12.705   1.668   0.700 -0.0599 -2.5897  0.0683
42118SOL     OW38078   2.157  13.424   5.428 -0.0150 -0.4538 -0.5008
42118SOL    HW138079   2.204  13.474   5.495 -0.0722 -0.0112 -0.7899
42118SOL    HW238080   2.225  13.372   5.385  0.2685  0.4536 -1.1587
42119SOL     OW38081  13.525  12.462  12.207  0.0185 -0.3770 -0.7484
42119SOL    HW138082  13.505  12.462  12.300  1.6466 -0.3759 -0.3713
42119SOL    HW238083  13.440  12.464  12.164 -0.7627  1.1523  0.7395
42120SOL     OW38084   6.041  13.382   6.628  0.1028  0.0095 -0.7346
42120SOL    HW138085   6.014  13.418   6.543  0.4559  1.1726 -0.3681
42120SOL    HW238086   6.105  13.314   6.606  1.3389  1.3172 -1.3636
42121SOL     OW38087   1.664  12.537   0.717 -0.3001 -0.3698 -0.4209
42121SOL    HW138088   1.615  12.619   0.706  0.9030  0.6016  1.0113
42121SOL    HW238089   1.755  12.560   0.700 -0.0498 -1.6603 -0.9642
42122SOL     OW38090   7.698   2.884   2.377  0.0049 -0.1674  0.6254
42122SOL    HW138091   7.785   2.847   2.396  0.5337  0.7020 -0.0337
42122SOL    HW238092   7.691   2.881   2.282  0.8281  3.0174  0.3758
42123SOL     OW38093   8.177  11.059  12.037  0.3813 -0.5542  0.0827
42123SOL    HW138094   8.267  11.032  12.017  0.9993 -1.0337  3.0036
42123SOL    HW238095   8.130  10.977  12.051  1.2695 -0.5467  5.0051
42124SOL     OW38096   1.083   1.450  11.267  0.0325  0.7488  0.0921
42124SOL    HW138097   1.017   1.510  11.302 -1.2267 -0.4717 -0.0836
42124SOL    HW238098   1.068   1.450  11.172  1.2522  1.5393 -0.1185
42125SOL     OW38099  13.312   9.029   8.144  0.2203 -0.1895 -0.4810
42125SOL    HW138100  13.248   8.961   8.167  1.2839 -1.1025 -0.1264
42125SOL    HW238101  13.266   9.111   8.160 -0.5099 -0.8157  0.8189
42126SOL     OW38102   4.896   8.606   4.343 -0.0226 -0.4791 -0.2547
42126SOL    HW138103   4.918   8.697   4.359 -1.4573  0.0029 -0.8808
42126SOL    HW238104   4.945   8.557   4.410 -0.4914  0.8840  1.1441
42127SOL     OW38105   9.998   7.072   3.928  0.3411  0.2187 -0.0090
42127SOL    HW138106  10.034   7.126   3.857  1.6909 -2.1161 -1.2210
42127SOL    HW238107   9.928   7.021   3.886  0.1401 -0.1157  0.7233
42128SOL     OW38108   7.982   9.714   4.542 -0.6195  0.2625 -0.2427
42128SOL    HW138109   7.943   9.785   4.594  1.1167  0.0875  1.3890
42128SOL    HW238110   7.958   9.634   4.589  0.8128  0.0888  0.2263
42129SOL     OW38111  11.771  12.739   2.429  0.2842  0.3877 -0.1438
42129SOL    HW138112  11.863  12.763   2.418  0.2067  0.4722 -0.6360
42129SOL    HW238113  11.725  12.823   2.436  0.1910  0.3542 -0.3557
42130SOL     OW38114   6.249   5.527  12.652 -0.2863 -0.1362 -0.1406
42130SOL    HW138115   6.290   5.503  12.736 -2.1715 -1.6453  0.4158
42130SOL    HW238116   6.282   5.461  12.591 -1.2514 -0.9095  0.1442
42131SOL     OW38117   6.916   9.975  10.105 -0.0761  0.2362  0.0222
42131SOL    HW138118   6.898   9.967  10.199 -0.6347  0.7262 -0.0411
42131SOL    HW238119   6.867   9.903  10.065  1.0189 -0.6370  0.1991
42132SOL     OW38120   4.270   2.522   2.276  0.6480 -0.3208 -0.3221
42132SOL    HW138121   4.349   2.575   2.274 -0.4309  1.3357 -0.9747
42132SOL    HW238122   4.255   2.497   2.185 -0.8654  1.4226 -0.5984
42133SOL     OW38123  12.522  11.412   7.674 -0.3105 -0.2490  0.1419
42133SOL    HW138124  12.510  11.399   7.768 -0.1704 -1.1114  0.0471
42133SOL    HW238125  12.572  11.494   7.668  1.5913 -1.2798  0.9478
42134SOL     OW38126   8.072   5.254  10.309  0.1530 -0.0415  0.3839
42134SOL    HW138127   8.142   5.289  10.255 -0.2957 -0.7070 -0.6725
42134SOL    HW238128   7.995   5.306  10.286 -0.1064 -0.5133  0.1598
42135SOL     OW38129   2.356   5.136   3.341 -0.2413  0.2300  0.0062
42135SOL    HW138130   2.392   5.105   3.424 -1.4803 -1.2670  0.0240
42135SOL    HW238131   2.417   5.203   3.312  0.9397 -0.1688  1.4616
42136SOL     OW38132   0.569   4.548   2.439  0.0775  0.4534 -0.0132
42136SOL    HW138133   0.531   4.512   2.358  1.2025  0.4711 -0.5689
42136SOL    HW238134   0.593   4.470   2.490 -0.3251  0.4393  0.1551
42137SOL     OW38135   2.297   9.753   3.007 -0.2879  0.3553  0.4842
42137SOL    HW138136   2.358   9.694   3.051 -1.9998 -2.6976 -0.9037
42137SOL    HW238137   2.352   9.809   2.953  1.4290 -0.1460  1.6232
42138SOL     OW38138  12.463  11.308   5.654  0.0897  0.2004  0.4914
42138SOL    HW138139  12.401  11.361   5.705  0.9968  2.4990 -0.6330
42138SOL    HW238140  12.415  11.287   5.573  0.2737  0.7162  0.2460
42139SOL     OW38141  10.888   2.882  13.202  0.0284 -0.6930  0.2711
42139SOL    HW138142  10.975   2.901  13.166 -0.7977  0.5010 -1.2147
42139SOL    HW238143  10.862   2.801  13.159 -0.8299  0.5732 -1.7731
42140SOL     OW38144   9.150   9.426  13.382 -0.1294  0.5287 -0.1775
42140SOL    HW138145   9.217   9.493  13.389 -0.4965  0.9517 -0.6386
42140SOL    HW238146   9.181   9.368  13.312 -1.2476  1.9425 -1.9444
42141SOL     OW38147   7.942   7.212   0.829  0.2319 -0.4773  0.0140
42141SOL    HW138148   7.861   7.193   0.877  0.3595 -2.2963 -0.4177
42141SOL    HW238149   7.912   7.233   0.740  0.2227 -0.8120 -0.0605
42142SOL     OW38150   2.587   1.725   9.618 -0.1354 -0.3671 -0.7218
42142SOL    HW138151   2.631   1.807   9.641  1.0751 -1.3654  0.7327
42142SOL    HW238152   2.644   1.686   9.551 -0.7684  0.0134 -1.4928
42143SOL     OW38153  10.369   6.858   4.390  0.5935  0.1067  0.8245
42143SOL    HW138154  10.306   6.826   4.455 -0.9660  1.2525 -0.0474
42143SOL    HW238155  10.315   6.894   4.320  2.2080 -0.8935 -1.0465
42144SOL     OW38156   3.879   6.448  11.138 -0.0841 -0.0781  0.2999
42144SOL    HW138157   3.792   6.476  11.108 -0.0485 -0.8177 -0.5360
42144SOL    HW238158   3.896   6.501  11.216 -1.9881 -1.0601  1.4643
42145SOL     OW38159   3.030   9.574   1.549  0.2149 -0.5165 -0.0404
42145SOL    HW138160   3.045   9.562   1.456  0.3226 -2.0809  0.1506
42145SOL    HW238161   2.936   9.559   1.560 -0.3689  2.3809 -0.2403
42146SOL     OW38162   8.515  10.683   3.042  0.2064  0.3797 -0.3709
42146SOL    HW138163   8.544  10.593   3.057 -1.1299  0.0798  0.5825
42146SOL    HW238164   8.448  10.676   2.974  0.5184  0.7392 -0.7219
42147SOL     OW38165   3.125   8.931   7.795  0.3157 -0.4540  0.5270
42147SOL    HW138166   3.107   8.874   7.870 -0.3119 -2.5484 -1.1003
42147SOL    HW238167   3.219   8.946   7.799  0.1464  0.3944  2.3043
42148SOL     OW38168  12.355   2.975   9.634  0.1063  0.1016  0.1079
42148SOL    HW138169  12.319   2.929   9.558  0.8329  0.9950 -0.8271
42148SOL    HW238170  12.441   2.934   9.648 -0.1476 -0.2542  0.6379
42149SOL     OW38171   5.245  12.776   5.159  0.3770 -0.1732 -0.1314
42149SOL    HW138172   5.278  12.857   5.196 -0.4445  0.5694 -0.9902
42149SOL    HW238173   5.294  12.707   5.206  1.8068  0.8147 -0.0939
42150SOL     OW38174   2.042  11.161   9.187 -0.5557  0.4710  0.0820
42150SOL    HW138175   2.117  11.118   9.147  0.0716  0.8176  0.8658
42150SOL    HW238176   2.041  11.249   9.149 -1.3430  0.0620 -0.8917
42151SOL     OW38177  10.150  11.111  12.284  0.0923 -0.6400 -0.1923
42151SOL    HW138178  10.179  11.118  12.193 -1.5538 -1.5801 -0.8155
42151SOL    HW238179  10.056  11.128  12.281  0.0162 -0.6238  1.3602
42152SOL     OW38180  12.867  12.445   8.302  0.2021  0.7912 -0.4002
42152SOL    HW138181  12.895  12.390   8.228  0.3882 -0.0214  0.2636
42152SOL    HW238182  12.772  12.437   8.303  0.1495  1.2662 -0.8956
42153SOL     OW38183   2.135   7.788   0.683 -0.1365 -0.0887 -0.1964
42153SOL    HW138184   2.063   7.802   0.744  1.1589  1.3455  1.0766
42153SOL    HW238185   2.193   7.727   0.727  0.5744  0.5948 -0.1541
42154SOL     OW38186   5.516   6.701  10.519 -0.0652  0.5569  0.4851
42154SOL    HW138187   5.427   6.736  10.525  0.3983  1.8698  0.1921
42154SOL    HW238188   5.546   6.729  10.432  0.8824  0.7567  0.8662
42155SOL     OW38189   8.204   3.970   6.599  0.1460 -0.4494  0.1734
42155SOL    HW138190   8.171   3.966   6.689 -2.3561  0.3922 -0.6279
42155SOL    HW238191   8.250   3.887   6.588 -0.1500 -0.9175  1.9826
42156SOL     OW38192   1.419   5.465   7.920  0.1677  0.2798 -0.2268
42156SOL    HW138193   1.443   5.470   7.828  1.3223  0.4845  0.0635
42156SOL    HW238194   1.337   5.515   7.927  0.9116  1.6436 -0.8745
42157SOL     OW38195   9.187   4.666   9.588  0.0825 -0.2813  0.1705
42157SOL    HW138196   9.118   4.620   9.541 -0.7103  1.2493 -0.2541
42157SOL    HW238197   9.257   4.677   9.523  0.8069 -1.9248  0.6312
42158SOL     OW38198   1.709  10.033   6.638 -0.3845 -0.6543  0.2242
42158SOL    HW138199   1.718   9.952   6.688 -0.4803 -0.7154  0.1439
42158SOL    HW238200   1.626  10.023   6.592 -0.2729 -0.6194  0.0138
42159SOL     OW38201   1.687  11.937   5.377 -0.1484  0.3476 -0.0142
42159SOL    HW138202   1.700  12.003   5.445 -1.1217  1.3117 -0.7267
42159SOL    HW238203   1.619  11.879   5.412 -2.1763  2.0286 -0.9094
42160SOL     OW38204   9.631  11.805   5.902 -0.8945 -0.2158 -0.1894
42160SOL    HW138205   9.611  11.823   5.810 -0.2718 -0.0148 -0.2894
42160SOL    HW238206   9.718  11.843   5.915 -0.6055 -1.0186  0.2530
42161SOL     OW38207   2.637   8.663  12.104  0.0790 -0.3284 -0.0474
42161SOL    HW138208   2.554   8.677  12.149  0.3081  2.1601 -0.2362
42161SOL    HW238209   2.701   8.709  12.158  1.3605 -2.1561  0.0634
42162SOL     OW38210   6.820   1.992   6.125 -0.0188  0.8957 -0.6725
42162SOL    HW138211   6.730   1.961   6.124  0.0068  0.5561  1.6159
42162SOL    HW238212   6.873   1.912   6.114  0.0549  1.2139 -3.0793
42163SOL     OW38213   8.520   8.844   0.138  0.3054  0.1617 -0.4406
42163SOL    HW138214   8.575   8.923   0.134 -1.0372  1.1267 -0.6810
42163SOL    HW238215   8.520   8.810   0.049 -0.2414  0.7216 -0.6643
42164SOL     OW38216   3.206   3.705   6.063 -0.3044 -0.1748  0.4716
42164SOL    HW138217   3.266   3.764   6.017 -0.1568  0.7099  1.7327
42164SOL    HW238218   3.126   3.707   6.010  0.0375  0.3819 -0.0439
42165SOL     OW38219   3.734   8.938   5.057 -0.2632 -0.0272 -0.4053
42165SOL    HW138220   3.732   9.010   5.120  1.6850 -0.4654  0.2312
42165SOL    HW238221   3.826   8.912   5.053 -0.8362 -2.1900 -0.9525
42166SOL     OW38222  10.221   1.623   1.265 -0.6329  0.0383 -1.1594
42166SOL    HW138223  10.273   1.619   1.345 -1.0240  0.6899 -0.8619
42166SOL    HW238224  10.168   1.544   1.267 -0.5540 -0.0089 -0.8353
42167SOL     OW38225   0.218   0.129   3.604 -0.1708 -0.1381  0.0993
42167SOL    HW138226   0.170   0.051   3.631  0.5169 -0.1017  1.4970
42167SOL    HW238227   0.172   0.159   3.526 -0.5364 -1.8472 -0.3900
42168SOL     OW38228  12.514  11.467  11.831 -0.5033 -0.5552 -0.0309
42168SOL    HW138229  12.493  11.543  11.777  0.1285 -0.4117 -0.0765
42168SOL    HW238230  12.605  11.447  11.810 -0.1639 -0.3398  1.1662
42169SOL     OW38231   1.837  11.382   6.779 -0.2826 -0.3472  0.0220
42169SOL    HW138232   1.851  11.458   6.835 -0.3130 -1.5149  1.6775
42169SOL    HW238233   1.880  11.310   6.825 -2.9767 -1.9841  0.1558
42170SOL     OW38234   0.455  11.150   9.026  0.6273 -0.1261 -0.1148
42170SOL    HW138235   0.433  11.059   9.004  2.0464 -0.8777  1.3598
42170SOL    HW238236   0.460  11.194   8.941 -1.9076 -0.9335 -0.7644
42171SOL     OW38237  13.605   4.392   1.264  0.2246 -0.2916 -0.3546
42171SOL    HW138238  13.687   4.401   1.217  1.1755  0.9845  1.4228
42171SOL    HW238239  13.617   4.317   1.321 -0.0493 -0.4301 -0.4756
42172SOL     OW38240  11.009   4.895   9.547  0.1382  0.0396  0.2798
42172SOL    HW138241  11.078   4.935   9.601  0.8355  0.2696 -0.7586
42172SOL    HW238242  10.962   4.969   9.509 -0.8924 -0.1108  1.1967
42173SOL     OW38243   0.736   7.606  11.113 -0.4263 -0.3445  0.2665
42173SOL    HW138244   0.774   7.569  11.032  0.0208 -0.3946  0.4948
42173SOL    HW238245   0.812   7.634  11.164 -0.7102 -0.2990  0.6645
42174SOL     OW38246   2.304  10.548   9.602 -0.4831 -0.1200  0.1159
42174SOL    HW138247   2.388  10.509   9.627 -0.6945 -0.5249  0.2141
42174SOL    HW238248   2.309  10.557   9.507 -0.6213 -0.8641  0.0281
42175SOL     OW38249  12.301  11.890   0.546  0.5745 -0.0933 -0.5153
42175SOL    HW138250  12.317  11.935   0.464  1.3827  0.1271 -0.2435
42175SOL    HW238251  12.215  11.921   0.574  0.2719 -0.2095 -1.2942
42176SOL     OW38252   3.476   2.819   0.588  0.5295 -0.4258  0.0820
42176SOL    HW138253   3.453   2.812   0.496  0.0384  1.0343  0.0613
42176SOL    HW238254   3.571   2.813   0.590  0.5917  0.2642 -0.6087
42177SOL     OW38255   1.913   1.004  12.669 -1.0809 -0.0387  0.1586
42177SOL    HW138256   1.915   1.065  12.743  2.0754  0.5806 -0.2950
42177SOL    HW238257   1.951   0.923  12.703 -0.7706 -0.1676 -0.4841
42178SOL     OW38258  11.505  11.008   1.407  0.1969  0.8879 -0.0673
42178SOL    HW138259  11.451  10.961   1.471  0.4121  0.9399  0.1548
42178SOL    HW238260  11.451  11.082   1.380 -0.9057 -0.4857 -1.8093
42179SOL     OW38261   8.775  13.347   7.787 -0.1972  0.1703  0.0058
42179SOL    HW138262   8.793  13.308   7.701  0.1769 -0.3318  0.3056
42179SOL    HW238263   8.781  13.441   7.771 -1.0350  0.1172 -0.7115
42180SOL     OW38264   1.744  10.104   8.617  0.3763 -0.3808 -0.2789
42180SOL    HW138265   1.686  10.152   8.558 -0.4480 -0.5459  0.3755
42180SOL    HW238266   1.687  10.072   8.686  1.2379 -0.6408  0.3351
42181SOL     OW38267   2.174   6.431  12.692 -0.1185 -0.5338 -0.4719
42181SOL    HW138268   2.142   6.477  12.769  0.2634  0.5030 -0.9040
42181SOL    HW238269   2.228   6.360  12.726 -1.3582 -1.1625  0.2269
42182SOL     OW38270   0.418   3.784   5.380 -0.1649 -0.5315 -0.0380
42182SOL    HW138271   0.376   3.704   5.410  1.7124 -1.4492  0.3237
42182SOL    HW238272   0.409   3.845   5.454 -2.1224 -0.1584 -0.5420
42183SOL     OW38273   9.815  12.423  12.676  0.0886  0.8490  0.7048
42183SOL    HW138274   9.821  12.465  12.762  0.7444  1.5248  0.3435
42183SOL    HW238275   9.802  12.330  12.696  2.0655  0.6977  1.5978
42184SOL     OW38276   3.051   4.434   2.863  0.4134 -0.2223  0.1692
42184SOL    HW138277   3.073   4.497   2.795  3.1403 -0.4728  0.7110
42184SOL    HW238278   2.957   4.446   2.877  0.5285  2.6973 -0.7781
42185SOL     OW38279   2.238   7.615   3.070 -0.0718  0.1615 -0.5561
42185SOL    HW138280   2.210   7.563   3.146 -2.5565  0.0358 -1.4877
42185SOL    HW238281   2.204   7.702   3.087  0.1604  0.3630 -1.1061
42186SOL     OW38282   1.790   9.907   3.932  0.4295  0.2762 -0.1138
42186SOL    HW138283   1.731   9.954   3.874  0.7966 -0.1551 -0.8608
42186SOL    HW238284   1.840   9.975   3.976  0.8761  0.5997 -1.0914
42187SOL     OW38285   8.960   8.943   9.656 -0.4551 -0.0411 -0.4424
42187SOL    HW138286   8.971   8.944   9.751  0.9245  0.0106 -0.5928
42187SOL    HW238287   9.007   8.865   9.627  2.0023  1.6566 -1.3791
42188SOL     OW38288  13.369   9.065   7.885  0.0703  0.6997 -0.2001
42188SOL    HW138289  13.461   9.047   7.865 -0.3674 -0.6986 -1.0582
42188SOL    HW238290  13.359   9.036   7.976 -0.3460 -2.7616 -1.2004
42189SOL     OW38291   4.201   5.396   4.440 -0.7740  0.0640  0.1669
42189SOL    HW138292   4.194   5.334   4.513 -0.5818  1.3324  1.3007
42189SOL    HW238293   4.293   5.393   4.416 -0.9725 -0.8977 -0.5429
42190SOL     OW38294  13.537   9.831   6.203  0.2611 -0.0996 -0.4708
42190SOL    HW138295  13.624   9.816   6.167 -0.3299 -1.5123 -1.3897
42190SOL    HW238296  13.478   9.826   6.128 -1.0788 -3.8017  0.5975
42191SOL     OW38297   7.190  12.417   6.785 -0.0001 -0.3989 -0.1364
42191SOL    HW138298   7.261  12.388   6.728 -0.5645 -0.7260 -0.7002
42191SOL    HW238299   7.169  12.341   6.839  0.3288 -0.1841  0.2995
42192SOL     OW38300   4.138   0.622  10.454 -0.8215  0.3115 -0.3302
42192SOL    HW138301   4.218   0.644  10.408  0.7225  0.4876  2.2360
42192SOL    HW238302   4.116   0.701  10.503  0.3885 -1.1703  2.8997
42193SOL     OW38303   8.105   9.792   0.031  0.1572  0.5506  0.0545
42193SOL    HW138304   8.106   9.697   0.037  3.3197  0.4757 -0.0978
42193SOL    HW238305   8.156   9.822   0.106 -1.6841  2.2528  0.7271
42194SOL     OW38306   2.186   5.472   0.664 -0.1815 -0.3145  0.2787
42194SOL    HW138307   2.114   5.443   0.609 -0.8194 -0.2922  1.0815
42194SOL    HW238308   2.205   5.561   0.633 -2.0190  0.5612  1.5085
42195SOL     OW38309   1.417   8.320  10.552 -0.0189 -0.1538  0.8768
42195SOL    HW138310   1.340   8.332  10.608 -0.9413  1.2284 -0.5958
42195SOL    HW238311   1.430   8.225  10.551 -1.7091 -0.4317  1.1892
42196SOL     OW38312   6.417  11.081   7.383  0.0727 -0.7374  0.3047
42196SOL    HW138313   6.460  11.094   7.468  0.3922 -0.4108  0.0951
42196SOL    HW238314   6.417  10.986   7.371 -0.1433 -0.7985  0.7553
42197SOL     OW38315   0.910  11.155   4.800 -0.0924 -0.1571 -0.4843
42197SOL    HW138316   0.816  11.167   4.816 -0.0531 -1.3508  0.8594
42197SOL    HW238317   0.948  11.151   4.888  1.0125 -1.2089 -0.9912
42198SOL     OW38318   2.335   8.282   5.217  0.7490  0.0371 -0.1670
42198SOL    HW138319   2.320   8.351   5.281  0.5029 -0.8755  0.7965
42198SOL    HW238320   2.429   8.284   5.202  0.4854  2.0841 -1.9354
42199SOL     OW38321   7.882   3.523   7.946 -0.0569 -0.0160 -0.1355
42199SOL    HW138322   7.805   3.467   7.940 -0.1471  0.1622 -0.6596
42199SOL    HW238323   7.876   3.561   8.034 -1.3701  1.1212 -0.6668
42200SOL     OW38324   2.037   3.539  12.306 -0.1701 -0.2788 -0.8697
42200SOL    HW138325   1.961   3.571  12.256 -1.2721  0.5012  1.1777
42200SOL    HW238326   2.010   3.547  12.398  1.1965 -3.0451 -0.1238
42201SOL     OW38327  12.888   3.550   4.441  0.3055 -0.0971 -0.1163
42201SOL    HW138328  12.905   3.605   4.517 -0.3177 -1.9188  1.4275
42201SOL    HW238329  12.965   3.493   4.435 -0.1297 -0.6946 -0.1390
42202SOL     OW38330   5.354   1.044   9.990 -0.4572  0.2527 -0.2119
42202SOL    HW138331   5.330   0.983  10.060 -0.0903  1.0554  0.6313
42202SOL    HW238332   5.335   1.130  10.026 -1.0823  0.6511 -1.4338
42203SOL     OW38333   4.735  11.993   9.486  0.8476 -0.6995 -0.3257
42203SOL    HW138334   4.692  11.982   9.571  0.4097  2.2254 -0.0664
42203SOL    HW238335   4.678  11.947   9.425 -3.5336  3.6727 -0.1391
42204SOL     OW38336   5.163   4.269   3.415  0.3311 -0.2232 -0.1962
42204SOL    HW138337   5.218   4.289   3.491 -1.1511 -1.2335  1.2162
42204SOL    HW238338   5.150   4.174   3.419 -1.8531  0.0316 -0.1987
42205SOL     OW38339   7.402  10.793   7.398 -0.4761  0.2230 -0.8662
42205SOL    HW138340   7.405  10.700   7.377  0.1187 -0.4007  1.6523
42205SOL    HW238341   7.312  10.808   7.427 -0.2945  0.1720 -0.2660
42206SOL     OW38342   8.779  11.947  11.181 -0.7705  0.2210  0.7275
42206SOL    HW138343   8.769  11.864  11.227 -1.2447  0.7720  1.6631
42206SOL    HW238344   8.787  12.012  11.251  0.4541  0.8756  0.0149
42207SOL     OW38345   0.137   8.386   5.906 -0.1988  0.3596 -0.2638
42207SOL    HW138346   0.168   8.465   5.862 -0.7051  1.8532  1.9588
42207SOL    HW238347   0.215   8.351   5.950 -0.1480  0.0110 -0.6147
42208SOL     OW38348   6.528   2.635   1.098  0.0399  0.1556  0.2380
42208SOL    HW138349   6.557   2.547   1.121 -1.1021  0.2323  2.2378
42208SOL    HW238350   6.454   2.621   1.039 -0.0855 -0.2344  0.4833
42209SOL     OW38351   2.596   0.455   8.372  0.0472 -0.3281 -0.6462
42209SOL    HW138352   2.549   0.534   8.399  0.4745  0.4814 -2.1631
42209SOL    HW238353   2.528   0.395   8.343 -0.1437  0.4536 -1.8703
42210SOL     OW38354  10.665  11.148  13.186 -0.1337  0.5730  0.3396
42210SOL    HW138355  10.731  11.209  13.218  0.0998  0.2652  0.4456
42210SOL    HW238356  10.678  11.145  13.091  1.4812 -1.1800  0.5655
42211SOL     OW38357  12.720  11.849   6.976 -0.2766  0.1579  0.3028
42211SOL    HW138358  12.650  11.867   6.913 -0.9544 -0.1158  0.9735
42211SOL    HW238359  12.752  11.936   7.001 -2.5247  0.4796  2.3906
42212SOL     OW38360   3.321   2.810  10.389  0.3315  0.0075 -0.2558
42212SOL    HW138361   3.407   2.807  10.347  1.5538  0.7347  2.0106
42212SOL    HW238362   3.261   2.833  10.318  1.8817 -1.0868 -2.0393
42213SOL     OW38363   6.987   0.595   2.259  0.1979 -0.2026 -0.2920
42213SOL    HW138364   6.942   0.627   2.337  1.5988 -1.2553  1.0110
42213SOL    HW238365   6.926   0.532   2.220  0.7165 -2.1147  1.8175
42214SOL     OW38366   5.838   4.421   8.396  0.5184  0.3876  0.1854
42214SOL    HW138367   5.919   4.468   8.377  1.1782 -0.6702  0.3222
42214SOL    HW238368   5.781   4.439   8.321 -0.0805  3.1349  1.1796
42215SOL     OW38369   6.954   7.821   7.365  0.2259  0.1718 -0.3898
42215SOL    HW138370   6.874   7.875   7.372  0.9722  1.1615  0.9333
42215SOL    HW238371   6.966   7.809   7.271 -0.2646  1.9263 -0.7240
42216SOL     OW38372   1.312  13.208   4.811 -0.3291 -0.0772  0.3564
42216SOL    HW138373   1.328  13.115   4.828  0.4178  0.1438  0.9001
42216SOL    HW238374   1.327  13.219   4.717 -0.8831 -0.5943  0.2018
42217SOL     OW38375   1.250   9.793   6.938 -0.7224  0.1763 -0.1605
42217SOL    HW138376   1.237   9.879   6.980 -1.1266 -0.2094  0.5251
42217SOL    HW238377   1.178   9.787   6.876 -0.3385  0.5935 -0.6507
42218SOL     OW38378   4.464   1.484   3.302 -0.4016 -0.4201  0.1856
42218SOL    HW138379   4.500   1.572   3.315  2.2088 -1.5714  1.4667
42218SOL    HW238380   4.438   1.483   3.210  1.0663  1.1971 -0.3118
42219SOL     OW38381   8.480  10.713  11.784  0.9174 -0.4181 -0.5338
42219SOL    HW138382   8.554  10.659  11.757  1.2904  0.5724 -1.5657
42219SOL    HW238383   8.404  10.656  11.776  1.2699 -0.7290 -1.8135
42220SOL     OW38384   6.181  13.577   2.915 -0.5773 -0.8886  0.1304
42220SOL    HW138385   6.116  13.635   2.875 -0.9622 -0.8358  0.8144
42220SOL    HW238386   6.223  13.630   2.982  0.7550 -0.6739 -0.8343
42221SOL     OW38387   0.757   7.131   9.360 -0.4992  0.7011 -0.2618
42221SOL    HW138388   0.666   7.119   9.332 -0.0304 -2.3421 -0.8907
42221SOL    HW238389   0.779   7.048   9.403  2.2895  0.8948 -1.1369
42222SOL     OW38390  12.387   6.167   8.637  0.5225 -0.3084  0.3509
42222SOL    HW138391  12.426   6.198   8.719 -0.1462  1.6913 -0.0102
42222SOL    HW238392  12.302   6.211   8.634 -1.0753 -3.1601  0.2806
42223SOL     OW38393  12.969  12.628   7.211 -0.1058  0.2722 -0.7041
42223SOL    HW138394  12.971  12.540   7.250 -0.2393 -0.1285 -1.5943
42223SOL    HW238395  13.047  12.672   7.247 -0.8017  0.2939  0.8714
42224SOL     OW38396   2.095   0.095  12.919 -0.2605 -0.2536  0.4837
42224SOL    HW138397   2.146   0.141  12.853  3.0505 -0.4896  2.6624
42224SOL    HW238398   2.081   0.160  12.988 -1.2189 -0.7726  0.7992
42225SOL     OW38399   7.924   0.477  11.465 -0.6548  0.4094 -0.1051
42225SOL    HW138400   8.014   0.482  11.497 -0.2000  4.1152 -1.4643
42225SOL    HW238401   7.933   0.453  11.373 -1.2394 -1.0137  0.1908
42226SOL     OW38402   9.413  11.271   4.497  0.1522  0.1739 -0.7747
42226SOL    HW138403   9.337  11.272   4.440 -1.4417  1.4777  1.2128
42226SOL    HW238404   9.395  11.202   4.561  0.5045  0.6700 -0.1213
42227SOL     OW38405   8.707   3.985   8.210  0.3320  0.1752 -0.1799
42227SOL    HW138406   8.614   3.967   8.224 -0.1300  1.6265 -1.1344
42227SOL    HW238407   8.753   3.922   8.266 -1.2267 -0.2238  0.7047
42228SOL     OW38408  12.401   5.239   6.542  0.5895  0.2781 -0.3000
42228SOL    HW138409  12.474   5.214   6.598 -1.2169 -1.0201  1.6331
42228SOL    HW238410  12.323   5.222   6.595 -1.2538 -0.5868 -3.0631
42229SOL     OW38411   7.915   1.398   6.744  0.0402  0.5352  0.5235
42229SOL    HW138412   8.006   1.397   6.714 -0.4759  4.3283 -1.8733
42229SOL    HW238413   7.913   1.461   6.815 -0.6752  0.3738  0.6547
42230SOL     OW38414   2.638  13.607   7.744 -0.1269  0.4603  0.2956
42230SOL    HW138415   2.731  13.623   7.728 -0.2344 -0.2069 -1.1113
42230SOL    HW238416   2.593  13.681   7.703 -0.2388  0.5552  0.5874
42231SOL     OW38417   4.948   8.116  10.107 -0.2602 -0.4432  0.1977
42231SOL    HW138418   5.029   8.095  10.060 -0.1893 -0.3724  0.2899
42231SOL    HW238419   4.889   8.148  10.038  0.0477  0.2406  0.2440
42232SOL     OW38420   9.396   0.107   2.886  0.2948 -0.4365  0.1007
42232SOL    HW138421   9.440   0.096   2.802 -2.4166  1.9340 -1.8063
42232SOL    HW238422   9.314   0.059   2.876 -1.5149  2.4390  0.0485
42233SOL     OW38423   3.675   9.819   0.180  0.1609  0.3997  0.1456
42233SOL    HW138424   3.653   9.812   0.087 -0.9394  0.3282  0.4007
42233SOL    HW238425   3.616   9.887   0.213  1.0100  0.8969  0.6589
42234SOL     OW38426   0.369   0.777   1.339  0.0202  0.0382  0.1714
42234SOL    HW138427   0.356   0.682   1.341 -1.3044  0.2115  1.6428
42234SOL    HW238428   0.311   0.808   1.269  1.2822 -0.3001 -1.0792
42235SOL     OW38429   9.015   2.985   6.924 -0.3810 -0.1585  0.3914
42235SOL    HW138430   9.037   2.904   6.969 -2.5339 -0.9054  0.2159
42235SOL    HW238431   9.009   3.050   6.994  1.8665  0.0284  0.4782
42236SOL     OW38432  10.619   9.893   3.179 -0.3205  0.4132 -0.3212
42236SOL    HW138433  10.637   9.912   3.087 -1.6660 -0.9444 -0.9222
42236SOL    HW238434  10.632   9.798   3.187 -0.9910  0.3866  0.6793
42237SOL     OW38435  11.368  11.995  12.843  0.6153  0.2963 -0.2468
42237SOL    HW138436  11.385  11.937  12.768 -3.2037  0.6048 -1.6110
42237SOL    HW238437  11.333  11.938  12.911 -0.0349  0.5489 -0.3598
42238SOL     OW38438   2.508  10.820  10.962 -0.0988  0.0714  0.3193
42238SOL    HW138439   2.512  10.724  10.957 -0.6360  0.0418  0.3900
42238SOL    HW238440   2.537  10.841  11.051  2.3958  0.1401 -0.4403
42239SOL     OW38441   3.504   5.594   9.493  0.3041  0.2743 -0.2962
42239SOL    HW138442   3.431   5.620   9.549 -0.3178 -1.7440 -0.0909
42239SOL    HW238443   3.582   5.613   9.545 -0.2511 -1.3608  1.2291
42240SOL     OW38444   3.026  12.737   0.879  0.0215  0.1250  0.2441
42240SOL    HW138445   2.970  12.730   0.957  1.2872 -1.0947  1.0732
42240SOL    HW238446   3.111  12.704   0.906  0.9884  1.2607 -1.2028
42241SOL     OW38447   6.994  10.436   3.036  0.2805 -0.2541 -0.0308
42241SOL    HW138448   7.054  10.388   2.979 -0.0567 -0.2579 -0.3848
42241SOL    HW238449   6.908  10.422   2.997  0.0495 -0.2310  0.4610
42242SOL     OW38450  12.960   6.407  11.966  0.3278  0.1157  0.5926
42242SOL    HW138451  12.929   6.401  12.056 -0.6353 -2.6147  0.1705
42242SOL    HW238452  12.888   6.449  11.918 -0.2066 -0.6666  0.6916
42243SOL     OW38453  13.218   0.579   6.195  0.1091 -0.3151  0.3406
42243SOL    HW138454  13.126   0.552   6.189 -0.5716  1.6962  1.1194
42243SOL    HW238455  13.245   0.593   6.104 -0.3461 -0.9037  0.1090
42244SOL     OW38456   4.929   0.386  12.209  0.1130  0.2496 -0.5227
42244SOL    HW138457   4.905   0.294  12.208 -1.0588  0.4338  2.1252
42244SOL    HW238458   4.999   0.392  12.273 -1.1196  1.4150  0.7817
42245SOL     OW38459   3.757  10.039   1.261  0.5371  0.2036  0.3951
42245SOL    HW138460   3.713  10.115   1.300  1.6674  0.8329  0.4877
42245SOL    HW238461   3.688   9.993   1.213 -0.0755  1.5785 -0.0957
42246SOL     OW38462   7.641   5.294   3.838 -0.3073 -0.3010  0.3968
42246SOL    HW138463   7.584   5.334   3.772  2.1061 -1.5872 -2.7677
42246SOL    HW238464   7.681   5.368   3.884 -0.6242  0.7492 -0.9579
42247SOL     OW38465  12.715   7.727   3.184 -0.0760  0.0528  0.1189
42247SOL    HW138466  12.640   7.746   3.241  0.2796  0.0059  0.6081
42247SOL    HW238467  12.782   7.694   3.243  0.3310  0.0861 -0.3201
42248SOL     OW38468   7.422  10.626   1.022 -0.4960 -0.5236  0.2381
42248SOL    HW138469   7.447  10.704   1.072 -0.5929  0.5374 -1.2960
42248SOL    HW238470   7.330  10.612   1.044 -0.9658  0.8336 -0.7425
42249SOL     OW38471   2.716   5.040   6.697 -0.8427 -0.1349 -0.1005
42249SOL    HW138472   2.788   4.999   6.745 -0.5918  0.6613  0.2177
42249SOL    HW238473   2.655   4.968   6.678 -0.1793 -0.7331  0.0136
42250SOL     OW38474   1.142   5.057   0.511 -0.8416  0.5179 -0.0811
42250SOL    HW138475   1.066   5.058   0.569 -0.2920  0.4379  0.6744
42250SOL    HW238476   1.185   4.974   0.530  0.3505  1.2798  0.7891
42251SOL     OW38477   9.488   5.334  10.649 -0.0065  0.0305  0.6951
42251SOL    HW138478   9.437   5.372  10.720  1.0123 -0.6795  1.8569
42251SOL    HW238479   9.515   5.249  10.682  0.0734 -0.5384 -0.7618
42252SOL     OW38480   5.526   5.604   9.857 -0.0943 -0.7194 -0.0303
42252SOL    HW138481   5.444   5.652   9.869 -1.1842 -2.8941  1.8888
42252SOL    HW238482   5.590   5.653   9.908 -0.8964 -0.5560  0.8557
42253SOL     OW38483  10.990   7.736   8.858 -0.4579 -0.0354  0.0640
42253SOL    HW138484  11.065   7.743   8.799  0.6220  1.0936  1.4972
42253SOL    HW238485  10.944   7.657   8.829  0.5814 -0.0745 -1.6167
42254SOL     OW38486   3.508  13.193   6.299  0.1354  0.4593 -0.7203
42254SOL    HW138487   3.491  13.155   6.386 -1.4966 -0.3725 -1.3607
42254SOL    HW238488   3.469  13.280   6.303 -1.2551 -0.1167 -1.0382
42255SOL     OW38489   0.454  10.813  13.510  0.1492  0.3488  0.2257
42255SOL    HW138490   0.380  10.864  13.543 -1.0150 -0.0510 -1.6180
42255SOL    HW238491   0.467  10.745  13.576 -1.7430 -0.1082  0.2097
42256SOL     OW38492   6.398   8.267   9.118 -0.2579 -0.1422 -0.1258
42256SOL    HW138493   6.400   8.183   9.073 -1.2286  0.1578 -0.7638
42256SOL    HW238494   6.363   8.328   9.054  0.4549  0.7686  0.3169
42257SOL     OW38495  13.295   1.583   2.181 -0.2753  0.4373  0.1929
42257SOL    HW138496  13.288   1.548   2.093 -1.3885 -0.6723  0.6990
42257SOL    HW238497  13.222   1.645   2.189  1.2164  2.4028 -0.4270
42258SOL     OW38498  11.900   5.979   5.533  0.0106  0.3467  0.1150
42258SOL    HW138499  11.906   6.066   5.573 -0.0207  0.2793  0.2648
42258SOL    HW238500  11.961   5.925   5.584  0.6895  0.4899 -0.5297
42259SOL     OW38501   2.826   5.452   7.863 -0.3667 -0.1588  0.1448
42259SOL    HW138502   2.833   5.547   7.858  1.1511 -0.2819 -0.4040
42259SOL    HW238503   2.763   5.437   7.934 -0.9992  1.2440 -0.0782
42260SOL     OW38504  10.131   7.780  11.726  0.5194  0.5624  0.3013
42260SOL    HW138505  10.155   7.842  11.795  0.5466  0.6412  0.2217
42260SOL    HW238506  10.144   7.694  11.765 -1.3772  0.5821  1.0925
42261SOL     OW38507   1.545   1.015   8.035  0.0682 -0.3151 -0.0216
42261SOL    HW138508   1.456   0.994   8.006 -0.1187 -0.3955  0.6016
42261SOL    HW238509   1.533   1.059   8.119  0.4640  1.8744 -1.0214
42262SOL     OW38510  13.305   1.073   3.528  0.2855 -0.6491 -0.3440
42262SOL    HW138511  13.315   1.143   3.463  1.5770 -0.7092 -0.2362
42262SOL    HW238512  13.242   1.108   3.591  0.7442  0.3423 -0.4134
42263SOL     OW38513   3.065   8.868  10.048  0.2338 -0.3735 -0.0232
42263SOL    HW138514   3.023   8.873   9.962 -0.4753  1.1008  0.3739
42263SOL    HW238515   3.067   8.774  10.068 -1.9126 -0.5815 -0.5417
42264SOL     OW38516   6.050   3.000   8.806 -0.2604  0.5188 -0.0220
42264SOL    HW138517   6.109   3.075   8.810 -0.4156  0.5817  1.6622
42264SOL    HW238518   6.089   2.937   8.867 -1.5293  0.2661  0.5462
42265SOL     OW38519   8.080   8.919   8.282  0.2769  0.1198 -0.3796
42265SOL    HW138520   8.145   8.897   8.215  0.8771  0.3293  0.1259
42265SOL    HW238521   7.996   8.916   8.236  0.4686 -1.7183 -0.7010
42266SOL     OW38522   7.816   0.226   3.866 -0.1038  0.2795  0.1809
42266SOL    HW138523   7.802   0.281   3.789 -0.0438  0.2173  0.1253
42266SOL    HW238524   7.794   0.282   3.940  1.8751  1.0494  0.2512
42267SOL     OW38525   8.294  11.574   0.915 -0.3488 -0.2729  0.2769
42267SOL    HW138526   8.226  11.509   0.901  0.5623 -0.7544 -2.7031
42267SOL    HW238527   8.247  11.652   0.943 -1.7074 -1.4983  1.6178
42268SOL     OW38528   8.788  11.131   2.599 -0.0360 -0.5745 -0.2298
42268SOL    HW138529   8.779  11.167   2.511 -0.4747 -0.3862 -0.1106
42268SOL    HW238530   8.833  11.047   2.587  0.7567 -0.1125 -0.5380
42269SOL     OW38531   6.046   1.872   8.321 -0.3343 -0.5475  0.7565
42269SOL    HW138532   6.070   1.783   8.295 -0.4939 -0.3294 -0.2013
42269SOL    HW238533   6.085   1.884   8.407  1.7850 -0.7071 -0.1229
42270SOL     OW38534  10.212   6.815   0.387  0.2256  0.2287  0.3370
42270SOL    HW138535  10.226   6.904   0.421  0.9627  0.0010  0.6527
42270SOL    HW238536  10.289   6.766   0.416 -0.0822 -0.4679 -0.0032
42271SOL     OW38537   7.561   7.639  10.150 -0.0908  0.1927 -0.2537
42271SOL    HW138538   7.503   7.569  10.181  0.3802 -0.3691 -0.6165
42271SOL    HW238539   7.505   7.717  10.145 -0.8323 -0.3561 -0.6638
42272SOL     OW38540   5.941   0.521  10.889 -0.2324 -0.5805 -0.0595
42272SOL    HW138541   5.961   0.500  10.797 -2.2865 -0.2477 -0.6423
42272SOL    HW238542   6.008   0.584  10.914  1.4576 -2.0487 -0.7248
42273SOL     OW38543  10.440  12.409  11.535  0.1674 -0.4823 -0.1927
42273SOL    HW138544  10.382  12.342  11.497 -0.7092  0.0894  0.1068
42273SOL    HW238545  10.428  12.485  11.478 -0.4334  0.0773  0.6469
42274SOL     OW38546   3.324   2.548   8.980 -0.1203  0.2245  0.8737
42274SOL    HW138547   3.250   2.603   8.955 -0.1267 -0.0712  0.2392
42274SOL    HW238548   3.324   2.477   8.917  0.0262 -0.3948  1.5576
42275SOL     OW38549  10.855  11.872   7.649 -0.2551 -0.1876  0.6218
42275SOL    HW138550  10.774  11.856   7.601 -0.1749  0.2454  0.3335
42275SOL    HW238551  10.860  11.968   7.656 -0.0514 -0.2324  1.1232
42276SOL     OW38552  13.515  11.968  10.175  0.1196  0.1430 -0.0825
42276SOL    HW138553  13.584  12.032  10.191 -0.3077  0.1022  2.3680
42276SOL    HW238554  13.550  11.912  10.106  2.4140  0.3156  0.8491
42277SOL     OW38555  11.496   5.845   9.012  0.1225  0.0877 -0.2108
42277SOL    HW138556  11.419   5.790   9.026 -0.1076  0.1218 -1.2175
42277SOL    HW238557  11.571   5.786   9.018 -0.1416 -0.4368 -1.6203
42278SOL     OW38558  12.068   1.539   0.664 -0.3035 -0.1450  0.3724
42278SOL    HW138559  12.039   1.617   0.617  1.5789  1.1464  1.2103
42278SOL    HW238560  12.094   1.478   0.595 -0.7144  0.4007 -0.2860
42279SOL     OW38561   9.944   9.143  11.702 -0.2998 -0.0106 -0.4096
42279SOL    HW138562   9.854   9.169  11.681 -0.2562  0.5385  0.0547
42279SOL    HW238563   9.951   9.157  11.796  0.2193 -0.2251 -0.4171
42280SOL     OW38564   8.990   6.972  12.947  0.1956  0.2163  0.3038
42280SOL    HW138565   9.073   6.941  12.910  0.0168 -0.4071  0.4104
42280SOL    HW238566   9.007   7.063  12.970  0.2598  0.6903 -1.4766
42281SOL     OW38567   5.615   9.156  12.274 -0.0927 -0.2257 -0.3337
42281SOL    HW138568   5.559   9.138  12.350 -0.1000  0.1582 -0.2453
42281SOL    HW238569   5.627   9.071  12.232 -1.5368 -0.1642 -0.9007
42282SOL     OW38570   4.538   3.129  13.326  0.5086 -0.2100  0.4551
42282SOL    HW138571   4.617   3.086  13.358  0.5056  0.7737  1.8928
42282SOL    HW238572   4.468   3.064  13.335  0.9381 -0.6995  0.2569
42283SOL     OW38573   9.447   4.422   1.610  0.5283  0.2281 -0.0177
42283SOL    HW138574   9.352   4.405   1.612  0.2750  1.2847  3.8141
42283SOL    HW238575   9.484   4.341   1.575 -1.6949 -0.7098 -0.4302
42284SOL     OW38576   3.164   7.102   0.836 -0.0084 -0.0857  0.1844
42284SOL    HW138577   3.111   7.067   0.907 -0.3794  0.5594  0.2316
42284SOL    HW238578   3.249   7.059   0.845  0.0211  0.1709  1.1602
42285SOL     OW38579   4.161   5.081  11.513 -0.1954  0.7373 -0.8905
42285SOL    HW138580   4.099   5.090  11.440 -0.2010  3.2358 -0.6696
42285SOL    HW238581   4.247   5.078  11.470 -0.2965  0.0824 -1.0648
42286SOL     OW38582  11.897   7.476   8.384 -0.7389 -0.3386 -0.4707
42286SOL    HW138583  11.866   7.550   8.437 -2.0307 -1.4420  0.3742
42286SOL    HW238584  11.970   7.512   8.334 -0.7343  1.2695  0.6051
42287SOL     OW38585   5.148   4.128  11.820 -0.1860 -0.3358 -0.3176
42287SOL    HW138586   5.186   4.201  11.869  1.2848 -0.6942 -0.8830
42287SOL    HW238587   5.075   4.168  11.771  0.4894  0.7382 -0.4888
42288SOL     OW38588   9.185   8.349   3.540  0.0565 -0.0421 -0.4329
42288SOL    HW138589   9.257   8.309   3.589  0.7719  0.6909 -0.8633
42288SOL    HW238590   9.195   8.315   3.451 -0.8262 -0.8300 -0.2457
42289SOL     OW38591   0.038   1.633   8.140 -0.5647  0.0276  1.0038
42289SOL    HW138592   0.133   1.628   8.148 -0.5039  0.9497  1.0497
42289SOL    HW238593   0.010   1.683   8.216 -0.7894  2.0718 -0.3335
42290SOL     OW38594   7.141   2.117   7.394 -0.3407 -0.4326  0.3552
42290SOL    HW138595   7.096   2.089   7.315 -0.9906 -0.6298  0.7916
42290SOL    HW238596   7.146   2.039   7.450 -0.0213 -0.2612  0.5774
42291SOL     OW38597   4.111   0.226  13.298  0.9031 -0.1195  0.5841
42291SOL    HW138598   4.054   0.258  13.368 -0.3180 -0.6897 -0.1013
42291SOL    HW238599   4.134   0.137  13.325 -0.7013 -0.8671 -0.3192
42292SOL     OW38600  10.149   8.333   8.418 -0.2240  0.0469  0.0845
42292SOL    HW138601  10.231   8.381   8.403  0.0085 -0.5419 -0.5700
42292SOL    HW238602  10.141   8.276   8.342 -1.3912  0.2949  0.0149
42293SOL     OW38603   6.526   8.819  13.374  0.6675 -0.1304 -0.0406
42293SOL    HW138604   6.546   8.730  13.405  0.5087  0.3956  1.7020
42293SOL    HW238605   6.485   8.806  13.289  1.7644 -1.6456 -0.3758
42294SOL     OW38606   8.562   6.948   6.009 -0.7083 -0.0033  0.1338
42294SOL    HW138607   8.512   7.026   5.985  0.5083  1.5556  2.3481
42294SOL    HW238608   8.653   6.970   5.988 -0.3634 -0.8686  0.6832
42295SOL     OW38609   2.492   0.002   3.945 -0.2127 -0.4524 -0.0802
42295SOL    HW138610   2.505   0.078   3.888 -0.4988 -0.6248 -0.3824
42295SOL    HW238611   2.480   0.039   4.033 -2.1364 -0.0100 -0.4789
42296SOL     OW38612   0.665   3.851  11.957  0.3970  0.5861 -0.0690
42296SOL    HW138613   0.694   3.938  11.932 -0.4238  0.5375 -1.2611
42296SOL    HW238614   0.710   3.792  11.897 -1.1455  0.4188 -1.1046
42297SOL     OW38615   3.440   8.731   2.617 -0.1360 -0.8804  0.0740
42297SOL    HW138616   3.491   8.771   2.688  0.1959  0.7184 -1.0229
42297SOL    HW238617   3.356   8.708   2.658 -0.1990  0.6183  0.8705
42298SOL     OW38618   4.927  11.522   9.748  0.6887  0.3134 -0.4118
42298SOL    HW138619   5.015  11.486   9.748  0.8079  0.5808 -1.4078
42298SOL    HW238620   4.877  11.463   9.805  0.6214 -2.1150 -2.7390
42299SOL     OW38621  13.003   7.655   0.953  0.1296 -0.0912 -0.0788
42299SOL    HW138622  13.096   7.640   0.970  0.3219  0.2163 -0.8100
42299SOL    HW238623  12.959   7.580   0.992  0.6811 -0.2271  0.2937
42300SOL     OW38624   8.574   2.077   4.440 -0.1579  0.2774  0.2069
42300SOL    HW138625   8.596   2.017   4.369 -0.2710 -0.6811  0.9604
42300SOL    HW238626   8.486   2.109   4.419  0.3387  1.0680 -0.7700
42301SOL     OW38627  12.707  12.272   8.713 -0.0533 -0.3529  0.4284
42301SOL    HW138628  12.732  12.336   8.780 -2.5499 -1.2387  2.3868
42301SOL    HW238629  12.632  12.312   8.669 -0.7426 -1.2839  0.7159
42302SOL     OW38630   9.594  12.099   5.443 -0.0341 -0.2228 -0.2442
42302SOL    HW138631   9.581  12.192   5.458  0.2227 -0.2195 -0.0343
42302SOL    HW238632   9.506  12.065   5.422 -0.0582  0.1404 -0.7536
42303SOL     OW38633   8.150   8.290   9.554  0.6028 -0.0759  0.0100
42303SOL    HW138634   8.159   8.293   9.650  0.2272 -0.0414  0.0462
42303SOL    HW238635   8.231   8.249   9.524  0.0641 -1.5486  0.4590
42304SOL     OW38636  10.243   0.621   5.779  0.2409 -0.3107  0.0047
42304SOL    HW138637  10.307   0.570   5.730  0.7471 -0.3713  0.7124
42304SOL    HW238638  10.283   0.708   5.785  0.3568 -0.4064  0.6319
42305SOL     OW38639   3.633   2.547  11.704 -0.5836  0.4040  0.1616
42305SOL    HW138640   3.675   2.602  11.638  0.0990 -0.5281 -0.1974
42305SOL    HW238641   3.543   2.535  11.673 -0.2251 -0.1549 -0.6890
42306SOL     OW38642  13.381  10.458   3.376  0.5742 -0.0650  0.3849
42306SOL    HW138643  13.468  10.445   3.339 -0.2834 -1.3337 -1.2826
42306SOL    HW238644  13.359  10.548   3.354  0.9794 -0.1110 -0.2200
42307SOL     OW38645   7.981  12.722   2.952 -0.1508  0.0653 -0.2382
42307SOL    HW138646   8.023  12.666   2.887  0.9029  0.2288  0.2786
42307SOL    HW238647   7.911  12.668   2.989  1.1592 -1.1082  0.6042
42308SOL     OW38648  10.520   0.958   6.007 -0.4063  0.2192 -0.0845
42308SOL    HW138649  10.575   1.034   6.028  0.2627  0.2429 -1.7321
42308SOL    HW238650  10.430   0.993   6.009 -0.4142  0.2144  2.4771
42309SOL     OW38651   0.144   0.551   7.724 -0.3770 -0.0917  0.0351
42309SOL    HW138652   0.170   0.474   7.774 -1.2111 -0.3527  0.0898
42309SOL    HW238653   0.169   0.625   7.778 -0.6078 -0.3572  0.5108
42310SOL     OW38654   0.265   6.034   6.895 -0.2880  0.0106  0.1733
42310SOL    HW138655   0.257   6.001   6.984  1.4708 -1.7773 -0.2519
42310SOL    HW238656   0.191   6.094   6.884 -0.5464  0.2604  2.7922
42311SOL     OW38657  11.693   3.210   3.839  0.1109  0.1509  0.0267
42311SOL    HW138658  11.632   3.231   3.768  0.5784  1.5476  0.0040
42311SOL    HW238659  11.756   3.150   3.798  0.9801  1.7372 -1.0908
42312SOL     OW38660   6.920   4.211   7.454  0.0464 -0.2740 -0.1522
42312SOL    HW138661   6.878   4.285   7.498 -1.8522 -1.8704  0.8837
42312SOL    HW238662   7.008   4.207   7.493  0.6819  2.0720 -1.1022
42313SOL     OW38663  10.172   2.498   7.833 -0.2611 -0.1524 -0.4688
42313SOL    HW138664  10.190   2.543   7.916 -0.2548  0.0558 -0.5818
42313SOL    HW238665  10.246   2.438   7.822 -0.8539 -1.0373  0.2565
42314SOL     OW38666   3.579   8.319   0.148 -0.1606  0.9376 -0.3845
42314SOL    HW138667   3.600   8.350   0.060  0.4795  0.4741 -0.4017
42314SOL    HW238668   3.651   8.260   0.170 -0.2128  1.1988  0.5259
42315SOL     OW38669   9.186   9.819   4.881  0.3963  0.6862 -0.1046
42315SOL    HW138670   9.115   9.805   4.817  0.7404  0.2913 -0.4041
42315SOL    HW238671   9.140   9.831   4.964  0.0017 -1.2414  0.0170
42316SOL     OW38672  13.461   0.673   5.550 -0.0825 -0.4356 -0.2400
42316SOL    HW138673  13.438   0.596   5.498 -1.2937 -0.6281  0.5379
42316SOL    HW238674  13.400   0.671   5.624  1.5833 -0.1699  1.1980
42317SOL     OW38675   6.873  11.511   4.128  0.3245  0.4354  0.1487
42317SOL    HW138676   6.865  11.542   4.218 -0.6633 -0.4305  0.3878
42317SOL    HW238677   6.946  11.560   4.092  0.2821  1.3186  1.2011
42318SOL     OW38678   9.790   1.182  10.405  0.0311 -0.0220 -0.1609
42318SOL    HW138679   9.786   1.268  10.365  0.4649  1.0364  1.9645
42318SOL    HW238680   9.714   1.179  10.464 -0.3314 -1.3574 -0.6313
42319SOL     OW38681   0.299   0.286   0.321 -0.1487  0.0508  0.1446
42319SOL    HW138682   0.272   0.337   0.244  0.0569  1.6743  1.0903
42319SOL    HW238683   0.222   0.286   0.378 -0.2673 -1.0576 -0.0015
42320SOL     OW38684   3.651   7.281   6.227  0.5679 -0.0228 -0.6863
42320SOL    HW138685   3.686   7.369   6.233  1.5750 -0.1461 -3.4670
42320SOL    HW238686   3.558   7.290   6.250  0.6869  1.7167 -0.8097
42321SOL     OW38687  10.406   5.043   0.343 -0.1107  0.4943 -0.6053
42321SOL    HW138688  10.417   5.009   0.432 -0.5906 -1.1973 -1.1548
42321SOL    HW238689  10.426   5.136   0.350  1.0030  0.1688  1.0406
42322SOL     OW38690  13.272   1.122   8.878  0.8143  0.3195 -0.3034
42322SOL    HW138691  13.247   1.041   8.833 -0.3999 -0.6709  1.9606
42322SOL    HW238692  13.364   1.110   8.901  0.6441 -0.4564  0.0187
42323SOL     OW38693   8.092   5.931  13.459  0.2651  0.2023  0.2237
42323SOL    HW138694   8.186   5.943  13.444  0.5312 -3.5701 -2.6940
42323SOL    HW238695   8.050   5.965  13.380 -0.3149 -1.7722 -0.3963
42324SOL     OW38696   7.197   9.319   4.813 -0.7602  0.1214  0.3473
42324SOL    HW138697   7.165   9.286   4.897 -1.0383 -2.5675 -0.7034
42324SOL    HW238698   7.235   9.405   4.833  0.5331 -1.0501  3.4815
42325SOL     OW38699  11.333   6.852   4.076 -0.4244 -0.5843  0.4272
42325SOL    HW138700  11.397   6.781   4.070 -1.0023 -1.0748 -0.0637
42325SOL    HW238701  11.289   6.837   4.160 -0.2659 -0.5583  0.5163
42326SOL     OW38702   9.502   6.727   0.963  0.1330 -0.6006 -0.2168
42326SOL    HW138703   9.446   6.745   1.039 -0.3716 -0.1791 -0.6766
42326SOL    HW238704   9.566   6.799   0.963 -1.3724  0.8307 -1.5740
42327SOL     OW38705   7.591  11.165  12.028 -0.0546  0.5969  0.5747
42327SOL    HW138706   7.509  11.211  12.010  0.3158  1.6026  1.3866
42327SOL    HW238707   7.563  11.078  12.057 -0.7991  0.6745  0.1274
42328SOL     OW38708   2.244  12.576  12.194 -0.4040 -0.0805  0.4858
42328SOL    HW138709   2.230  12.515  12.121 -1.9196  0.6553  0.1151
42328SOL    HW238710   2.334  12.561  12.221  0.1601 -0.4934 -1.4523
42329SOL     OW38711  13.068   1.147   0.460 -0.2224  0.7112  0.2108
42329SOL    HW138712  13.110   1.081   0.405 -0.7782  0.2685  0.3065
42329SOL    HW238713  13.067   1.226   0.406 -1.9633 -0.0491 -0.9981
42330SOL     OW38714   9.795   3.300   2.375  0.8095  0.4639  0.2021
42330SOL    HW138715   9.866   3.330   2.431  2.9415  0.3010 -2.2289
42330SOL    HW238716   9.758   3.380   2.337  1.6749  0.4439 -0.7329
42331SOL     OW38717   1.763  13.520   6.433 -0.0698 -0.5998 -0.1239
42331SOL    HW138718   1.675  13.548   6.459  0.1956  0.2495 -0.1062
42331SOL    HW238719   1.771  13.548   6.342  0.7812  0.8820  0.3621
42332SOL     OW38720   3.168   8.503   7.378  0.2080 -0.0898  0.4867
42332SOL    HW138721   3.175   8.550   7.461 -1.3053  0.1660  0.5086
42332SOL    HW238722   3.087   8.537   7.339  0.5145 -0.7296 -0.7608
42333SOL     OW38723   8.045   1.994   9.532 -0.7663  0.5216  0.1249
42333SOL    HW138724   8.043   2.054   9.458 -2.2317 -0.3105 -0.5589
42333SOL    HW238725   8.006   2.043   9.604 -2.3567  0.2753 -0.5423
42334SOL     OW38726  12.555  12.912  10.810 -0.0467 -0.2199  0.8163
42334SOL    HW138727  12.519  12.857  10.741  0.8024  0.3680 -0.1070
42334SOL    HW238728  12.483  12.920  10.874 -0.6159 -1.2927  0.3302
42335SOL     OW38729  13.393  12.550  12.707 -0.0019 -0.1894 -0.1642
42335SOL    HW138730  13.463  12.609  12.677 -0.4811  0.9541  0.8952
42335SOL    HW238731  13.439  12.479  12.752  0.4854  0.9932  1.2836
42336SOL     OW38732  10.954  13.455   9.146 -0.6482  0.3299  0.4006
42336SOL    HW138733  11.008  13.415   9.078 -3.3151 -1.3857 -0.8772
42336SOL    HW238734  10.978  13.408   9.226 -1.2772 -1.5228 -0.4395
42337SOL     OW38735  10.299   2.843   0.279 -0.9216 -0.5012 -0.1744
42337SOL    HW138736  10.328   2.816   0.366  0.0240 -1.6247 -0.8111
42337SOL    HW238737  10.365   2.906   0.250 -1.0494 -0.3860 -0.2151
42338SOL     OW38738   3.117  10.124   3.032 -0.8814  0.4610  0.3956
42338SOL    HW138739   3.167  10.157   2.958  1.0325 -0.6038  1.1450
42338SOL    HW238740   3.075  10.202   3.069 -0.5909  1.2391 -0.8492
42339SOL     OW38741   3.229  11.296  13.636 -0.9528 -0.2597  0.5492
42339SOL    HW138742   3.226  11.206  13.668  1.2858 -0.6264 -0.1103
42339SOL    HW238743   3.249  11.348  13.713  1.6056 -0.8201  0.3382
42340SOL     OW38744  10.924   0.606   7.884 -0.2624 -0.4844 -0.3366
42340SOL    HW138745  10.993   0.558   7.839  0.2554  1.1800 -1.4137
42340SOL    HW238746  10.843   0.568   7.850  0.1237  0.1447 -2.0969
42341SOL     OW38747   7.659   9.528   1.427  0.7885  0.5927 -0.4024
42341SOL    HW138748   7.647   9.596   1.493 -0.5469 -0.4683  0.4729
42341SOL    HW238749   7.599   9.553   1.356 -0.7742 -0.3833  0.5251
42342SOL     OW38750  10.089   8.443   9.405 -0.1355 -0.1225  0.4897
42342SOL    HW138751  10.172   8.470   9.444 -0.7171  0.9827  1.0294
42342SOL    HW238752  10.060   8.520   9.356 -0.8333 -0.4944  0.3161
42343SOL     OW38753   4.957  12.028   9.272  0.2116 -0.4111 -0.4701
42343SOL    HW138754   4.916  12.027   9.358 -0.1786  0.7907 -0.6232
42343SOL    HW238755   5.051  12.018   9.290  0.0864 -0.6668  0.0512
42344SOL     OW38756   4.999   7.985  10.931  0.8638  0.1411 -0.0428
42344SOL    HW138757   4.972   7.894  10.919 -3.6406  1.4628 -2.0110
42344SOL    HW238758   4.957   8.012  11.012  0.6438  0.9420 -0.4154
42345SOL     OW38759   8.024   3.052   5.844 -0.2745  0.3964 -0.1386
42345SOL    HW138760   8.088   3.077   5.910  1.8962  0.2416 -2.0526
42345SOL    HW238761   7.968   2.988   5.888  0.3972  1.0810  1.8255
42346SOL     OW38762  10.030   2.589   0.790  0.1212 -0.2898 -0.2303
42346SOL    HW138763  10.115   2.580   0.832 -0.1663 -2.9594 -0.0012
42346SOL    HW238764  10.002   2.679   0.809  2.6736  0.5123  0.0159
42347SOL     OW38765   9.964   3.731   1.874 -0.0231  0.6807 -0.2493
42347SOL    HW138766   9.901   3.659   1.869  0.4756  0.0183  2.0394
42347SOL    HW238767   9.922   3.796   1.931  0.2463  1.4744 -0.9267
42348SOL     OW38768  10.616   8.583   0.603  0.6106  0.0469 -0.5627
42348SOL    HW138769  10.656   8.533   0.532 -0.8823 -0.8551 -0.8208
42348SOL    HW238770  10.618   8.524   0.679 -0.0792  0.0305 -0.5470
42349SOL     OW38771   0.212   3.815  13.666 -0.3528 -0.0915  0.0231
42349SOL    HW138772   0.190   3.893  13.717  0.9337  1.7133 -2.0350
42349SOL    HW238773   0.306   3.804  13.678 -0.4318 -1.0537 -0.1277
42350SOL     OW38774   3.098  13.656  11.808  0.1446 -0.3068 -0.2103
42350SOL    HW138775   3.124  13.704  11.729  0.2368  0.1743  0.1073
42350SOL    HW238776   3.132  13.709  11.880 -1.1523 -0.0108  0.2020
42351SOL     OW38777  11.787   2.742  10.792  0.0462  0.4039 -0.1014
42351SOL    HW138778  11.737   2.684  10.849  1.8199 -2.5238 -1.2658
42351SOL    HW238779  11.858   2.775  10.848 -0.4590  0.7658  0.3397
42352SOL     OW38780   4.363   9.062   0.828  0.1035 -0.7512 -0.0974
42352SOL    HW138781   4.283   9.114   0.817 -0.4431 -1.5510  0.0008
42352SOL    HW238782   4.399   9.056   0.740 -0.0884 -0.6158 -0.1870
42353SOL     OW38783   1.887   8.220   9.312  0.1087 -0.7450 -0.4242
42353SOL    HW138784   1.961   8.276   9.333 -1.2028 -0.0707  3.0357
42353SOL    HW238785   1.904   8.138   9.360 -1.1786 -0.7045  0.1510
42354SOL     OW38786   0.992   4.480  10.214  0.2018  0.5349  0.0835
42354SOL    HW138787   0.930   4.418  10.251  1.7660 -0.2843  1.4777
42354SOL    HW238788   0.978   4.474  10.119 -0.4867 -1.1000  0.2542
42355SOL     OW38789  13.061   0.624   1.021 -0.8550 -0.6865  0.5222
42355SOL    HW138790  13.127   0.563   0.987  1.4797  2.3214 -0.8692
42355SOL    HW238791  12.998   0.634   0.949  0.0885  0.2214 -0.2227
42356SOL     OW38792   5.680   7.298  10.095  0.0733 -0.9007  0.4288
42356SOL    HW138793   5.710   7.283  10.005 -3.0099  2.1769 -1.3885
42356SOL    HW238794   5.730   7.373  10.125 -2.2550  1.3461 -0.8747
42357SOL     OW38795   8.309   9.723   0.559 -0.3321  0.5734 -0.1299
42357SOL    HW138796   8.294   9.788   0.627  0.6013 -0.2332  0.8750
42357SOL    HW238797   8.224   9.680   0.548 -0.4243  0.5148  0.7443
42358SOL     OW38798   1.233   6.155  11.533 -0.2650 -0.4625 -0.0715
42358SOL    HW138799   1.175   6.187  11.463  0.9374  0.7143 -0.5710
42358SOL    HW238800   1.174   6.115  11.597 -2.0315  3.2085  0.8688
42359SOL     OW38801  13.342   2.705   0.303  0.0483  0.5404 -0.3262
42359SOL    HW138802  13.250   2.678   0.293 -0.0994  1.4668 -1.6538
42359SOL    HW238803  13.391   2.623   0.293 -0.5042  0.3958 -2.4619
42360SOL     OW38804   5.598  10.346   2.338 -0.0627 -0.5938 -0.1435
42360SOL    HW138805   5.570  10.348   2.247 -1.0443 -0.2100  0.1452
42360SOL    HW238806   5.640  10.261   2.349 -1.7607 -1.5137 -0.4462
42361SOL     OW38807  11.397   0.799   7.208 -0.2931  0.3643  0.3185
42361SOL    HW138808  11.474   0.832   7.254  0.3207  0.0801 -0.4922
42361SOL    HW238809  11.379   0.865   7.141  0.0147 -0.1886 -0.3142
42362SOL     OW38810   3.038   8.521   8.195 -0.5687  0.0400  0.1118
42362SOL    HW138811   3.059   8.605   8.155 -0.0231  0.3386  0.9947
42362SOL    HW238812   3.123   8.480   8.209 -0.8603 -1.1387 -1.2579
42363SOL     OW38813   2.567  11.321   4.629 -0.0426 -0.5141  0.2154
42363SOL    HW138814   2.474  11.325   4.652 -0.1821 -1.2339 -0.2036
42363SOL    HW238815   2.606  11.269   4.699  0.0974 -0.0093  0.5216
42364SOL     OW38816   4.855   0.227   8.145  0.5678 -0.1689  0.1388
42364SOL    HW138817   4.821   0.246   8.232 -1.0086  0.7705 -0.6299
42364SOL    HW238818   4.929   0.168   8.160 -1.8099 -3.0132  1.9460
42365SOL     OW38819   0.799  12.752   3.478  0.0216  0.4050  0.1817
42365SOL    HW138820   0.868  12.685   3.480 -0.3946 -0.0693 -0.8442
42365SOL    HW238821   0.753  12.741   3.561  0.4817 -0.0237  0.3868
42366SOL     OW38822  13.141  11.409  13.436 -0.2427  0.6401 -0.3544
42366SOL    HW138823  13.105  11.419  13.348  1.1420 -0.9784 -1.1538
42366SOL    HW238824  13.067  11.382  13.490 -0.4591 -2.0364 -1.8314
42367SOL     OW38825   3.658  13.728  12.385 -0.5359  0.0268 -0.3793
42367SOL    HW138826   3.582  13.672  12.369 -0.0509 -1.2109  1.3110
42367SOL    HW238827   3.732  13.667  12.386  0.3218  1.0338 -0.7094
42368SOL     OW38828   0.829   1.434   0.669  0.4658  0.0580  0.5373
42368SOL    HW138829   0.843   1.528   0.680  1.7791  0.0933 -1.0239
42368SOL    HW238830   0.887   1.409   0.597  2.4874 -2.5231  2.8119
42369SOL     OW38831  10.758   0.676   1.815  0.6022  0.6929 -0.2033
42369SOL    HW138832  10.777   0.705   1.904 -1.4196 -2.6929  1.5484
42369SOL    HW238833  10.797   0.589   1.810 -1.3410 -0.1561 -1.7314
42370SOL     OW38834   7.599  12.090   7.902 -0.3485 -0.2525  0.3981
42370SOL    HW138835   7.553  12.073   7.820 -1.2415  0.8062  0.6631
42370SOL    HW238836   7.612  12.185   7.903  0.9040 -0.4101  0.8408
42371SOL     OW38837   9.509   7.240  12.017 -0.0621  0.8560 -0.2931
42371SOL    HW138838   9.565   7.318  12.023  0.9592  0.0780  0.5901
42371SOL    HW238839   9.438   7.257  12.079  1.6651 -0.0683  2.0868
42372SOL     OW38840   8.035   8.637   7.834 -0.0598  0.2168 -0.2741
42372SOL    HW138841   8.018   8.641   7.928  1.4203  1.6177 -0.0278
42372SOL    HW238842   8.049   8.728   7.808 -1.7080  0.0079 -2.1352
42373SOL     OW38843   1.287   0.991   0.510 -0.3605 -0.4081  0.0215
42373SOL    HW138844   1.296   1.015   0.418 -1.6800 -0.2190 -0.0799
42373SOL    HW238845   1.206   0.939   0.514  0.8669 -2.3863  0.7207
42374SOL     OW38846   9.255   9.154  13.034 -0.2270 -0.0957 -0.1991
42374SOL    HW138847   9.247   9.239  12.991  1.1805 -0.1543 -0.6329
42374SOL    HW238848   9.335   9.160  13.085  0.6282 -1.5851 -1.2834
42375SOL     OW38849   7.959   7.776  12.720 -0.1630  0.3326 -0.0415
42375SOL    HW138850   7.907   7.842  12.765 -0.1054 -0.4882  1.3059
42375SOL    HW238851   7.895   7.711  12.691 -0.0356  0.0296  0.3501
42376SOL     OW38852   3.300   6.006  11.298 -0.6047 -0.5546 -0.2679
42376SOL    HW138853   3.292   5.914  11.323  0.6891 -0.4191  0.7449
42376SOL    HW238854   3.395   6.021  11.293 -0.6983 -0.1353 -3.7228
42377SOL     OW38855  11.777  12.604  12.414  0.0166  0.5425  0.0338
42377SOL    HW138856  11.735  12.542  12.473  0.0448 -2.5014 -2.8743
42377SOL    HW238857  11.870  12.592  12.427  0.0304 -0.5254 -0.9316
42378SOL     OW38858  10.227   4.684   1.986  0.5936  0.2277  0.7224
42378SOL    HW138859  10.269   4.611   1.941 -1.1295 -0.8723  0.8383
42378SOL    HW238860  10.286   4.758   1.970  0.2309 -0.1273 -3.2058
42379SOL     OW38861   6.537   7.686   5.941  0.2010  0.0110  0.2496
42379SOL    HW138862   6.624   7.665   5.976  0.5463  0.6297 -0.2077
42379SOL    HW238863   6.537   7.648   5.853  0.5629  1.2303 -0.3077
42380SOL     OW38864  12.688  10.856  13.329 -0.2129 -0.4475  0.5868
42380SOL    HW138865  12.646  10.849  13.414 -0.3268 -0.3275  0.5412
42380SOL    HW238866  12.637  10.923  13.283  0.8737  0.7239  1.0376
42381SOL     OW38867   9.753   2.532   0.875 -0.1531 -0.1425 -0.4736
42381SOL    HW138868   9.836   2.566   0.841  0.5343 -1.0793  0.2199
42381SOL    HW238869   9.700   2.610   0.891  0.1905  0.4160 -1.9047
42382SOL     OW38870  11.813   0.959   8.913 -0.1262 -0.1051 -0.4334
42382SOL    HW138871  11.841   1.050   8.915 -0.1833 -0.0917 -0.1263
42382SOL    HW238872  11.717   0.964   8.909 -0.1179 -0.1513 -0.7117
42383SOL     OW38873   9.114  10.262  13.414  0.0198 -0.1738 -0.7039
42383SOL    HW138874   9.023  10.250  13.387 -0.2698  3.1133 -1.5714
42383SOL    HW238875   9.164  10.208  13.352 -1.2565 -1.5856 -0.5689
42384SOL     OW38876   7.292  11.965   2.630  0.3123 -0.3200 -0.5865
42384SOL    HW138877   7.232  11.898   2.598 -1.1687  0.0535  1.2172
42384SOL    HW238878   7.249  12.048   2.609  0.7982 -0.0124 -0.3894
42385SOL     OW38879   7.949   3.540   7.410  0.5118 -0.4833  0.5861
42385SOL    HW138880   8.039   3.528   7.382  0.4112 -1.4321  0.6437
42385SOL    HW238881   7.944   3.497   7.495 -0.1874 -1.1204  0.2360
42386SOL     OW38882   1.650   1.585   2.105  0.6138  0.5075  0.0965
42386SOL    HW138883   1.738   1.618   2.121 -0.1317  2.7392  0.0768
42386SOL    HW238884   1.636   1.518   2.171  2.3132  0.1172  0.0962
42387SOL     OW38885   5.821  12.577   8.460  0.2547 -0.1355 -0.2651
42387SOL    HW138886   5.782  12.502   8.414  1.8067 -0.7697 -0.6197
42387SOL    HW238887   5.837  12.641   8.391 -0.2056  0.1528 -0.1085
42388SOL     OW38888   6.007   2.247   5.958 -0.3255 -0.0984  0.1619
42388SOL    HW138889   6.057   2.298   6.022 -0.9631 -1.0790  1.4878
42388SOL    HW238890   5.973   2.173   6.008  1.3400 -2.4045 -1.8468
42389SOL     OW38891   9.375  13.030   5.674  0.4428  0.0156 -0.4724
42389SOL    HW138892   9.360  12.955   5.617  0.1948 -0.8818  0.7160
42389SOL    HW238893   9.438  12.998   5.739 -0.5486  0.4281  0.7494
42390SOL     OW38894   7.020  11.361   2.436  0.1706 -0.7226  0.2596
42390SOL    HW138895   6.935  11.389   2.471 -0.0851 -0.2667 -0.6787
42390SOL    HW238896   6.998  11.291   2.375  0.5404 -1.0587  0.5084
42391SOL     OW38897   8.110   8.590   2.888 -0.0113  0.1933 -0.4046
42391SOL    HW138898   8.148   8.648   2.954 -0.3241 -0.4680  0.3805
42391SOL    HW238899   8.027   8.632   2.865 -1.7753 -1.3888  2.4456
42392SOL     OW38900   5.599   3.216   0.282  0.0092 -0.2886 -0.3934
42392SOL    HW138901   5.579   3.202   0.190 -2.0579  0.9261 -0.1820
42392SOL    HW238902   5.619   3.309   0.289 -1.4404 -0.0125  0.5912
42393SOL     OW38903   7.306   4.358   3.434  0.3320  0.0702  0.1619
42393SOL    HW138904   7.318   4.453   3.429  4.9133 -0.3128 -3.9294
42393SOL    HW238905   7.361   4.331   3.507  1.7884  0.3987 -0.7855
42394SOL     OW38906   7.667   9.287   9.811  0.1400  0.3086 -0.1014
42394SOL    HW138907   7.671   9.201   9.768  0.1944  0.0810  0.3545
42394SOL    HW238908   7.684   9.350   9.740 -1.1392  0.0223 -0.6870
42395SOL     OW38909   8.546   4.784   2.059  0.1628 -0.2213 -0.0439
42395SOL    HW138910   8.518   4.863   2.012 -2.0807 -1.2331 -0.5616
42395SOL    HW238911   8.623   4.811   2.108 -0.0299  2.0559 -0.8760
42396SOL     OW38912  13.458  13.744   5.969 -0.1961 -0.1473 -0.0086
42396SOL    HW138913  13.487  13.763   6.058 -0.6656  0.8698 -0.0497
42396SOL    HW238914  13.394  13.813   5.950  2.0807  1.5517 -2.2243
42397SOL     OW38915   8.142  13.043  10.954 -0.8282 -0.3763  0.4296
42397SOL    HW138916   8.138  13.014  11.045  2.4366  1.3893  1.2901
42397SOL    HW238917   8.165  12.964  10.905 -0.0545 -0.8633  1.5360
42398SOL     OW38918   8.158   9.476  13.212  0.0459  0.0871  0.0800
42398SOL    HW138919   8.070   9.439  13.202  0.8391 -1.3714 -2.2492
42398SOL    HW238920   8.166   9.538  13.140  1.4209 -0.9322 -0.6985
42399SOL     OW38921   2.416  10.497   9.942 -0.5145 -0.4756 -0.5094
42399SOL    HW138922   2.397  10.577   9.992 -1.2710  0.5461 -2.3115
42399SOL    HW238923   2.504  10.472   9.971 -0.2575  1.0039  0.1352
42400SOL     OW38924   3.254   4.135   0.649  0.4244  0.7469 -0.0802
42400SOL    HW138925   3.338   4.143   0.603  1.2110 -2.1841  0.6565
42400SOL    HW238926   3.265   4.184   0.730  1.2282  0.8650 -0.2608
42401SOL     OW38927   9.781   4.901   1.311  0.3653 -0.4938  0.1135
42401SOL    HW138928   9.742   4.835   1.368 -0.6482 -0.4388 -0.4905
42401SOL    HW238929   9.875   4.888   1.320  0.2404 -0.4954  1.7880
42402SOL     OW38930  11.966   9.019  13.692  0.1355  0.4291  0.8184
42402SOL    HW138931  12.035   9.084  13.705 -1.1389  1.6138  1.7329
42402SOL    HW238932  11.911   9.025  13.769 -1.7186  0.3831 -0.4386
42403SOL     OW38933   2.955  10.863   3.142 -0.2517 -0.3182 -0.1863
42403SOL    HW138934   2.960  10.841   3.049 -1.6411 -1.4268 -0.0415
42403SOL    HW238935   3.015  10.802   3.184  0.7661  0.5250 -0.3833
42404SOL     OW38936   5.862   9.105   0.130 -0.2021  0.4137 -0.4876
42404SOL    HW138937   5.807   9.183   0.130  0.9250  1.2429 -1.2002
42404SOL    HW238938   5.809   9.038   0.173 -0.5917  1.9889  1.6279
42405SOL     OW38939  10.704   8.474   4.113  0.0467 -0.0319  0.1090
42405SOL    HW138940  10.629   8.449   4.059 -0.2918  0.7542  0.2157
42405SOL    HW238941  10.721   8.565   4.091  2.1571 -0.6910 -1.3133
42406SOL     OW38942   4.327   8.780  10.872  0.1169 -0.0118  0.0562
42406SOL    HW138943   4.324   8.811  10.781  0.1494  0.5525  0.2470
42406SOL    HW238944   4.410   8.814  10.906 -1.3170  2.4995  1.2671
42407SOL     OW38945   2.934   1.477   4.105  0.4419  0.2740 -0.1216
42407SOL    HW138946   2.862   1.531   4.137  1.0165 -0.1113  1.9686
42407SOL    HW238947   2.892   1.408   4.054 -0.7832 -0.4083  1.7148
42408SOL     OW38948   7.037  11.348  13.364 -0.2408  0.0909  0.0788
42408SOL    HW138949   6.979  11.307  13.301 -1.0585  0.9210  0.2687
42408SOL    HW238950   7.103  11.393  13.311  1.4009 -2.3627 -0.1419
42409SOL     OW38951   2.422   7.593   9.639  0.1164 -0.2458 -0.1494
42409SOL    HW138952   2.474   7.624   9.713  1.2048 -2.4374  0.0815
42409SOL    HW238953   2.480   7.600   9.564 -0.0066 -0.6680 -0.2884
42410SOL     OW38954   1.820  13.263   9.704  0.6473 -0.1063 -0.8945
42410SOL    HW138955   1.811  13.354   9.733 -0.3074 -0.5838  0.3992
42410SOL    HW238956   1.888  13.227   9.762  2.4077  0.2497 -2.6472
42411SOL     OW38957   8.329   7.686   7.585  0.0326  0.5583 -0.4127
42411SOL    HW138958   8.238   7.692   7.615  0.4644 -0.0137  1.0793
42411SOL    HW238959   8.365   7.774   7.600  0.2511  0.2721  0.8423
42412SOL     OW38960   5.794   7.723   6.231  0.2176 -0.1543  0.1322
42412SOL    HW138961   5.828   7.635   6.216 -1.4856 -0.5739 -1.6139
42412SOL    HW238962   5.873   7.778   6.237  1.2698 -1.5038 -0.7286
42413SOL     OW38963   8.071  12.011   1.196  0.2259  0.5413 -0.0252
42413SOL    HW138964   8.024  12.084   1.156  1.1064  0.3625 -1.4823
42413SOL    HW238965   8.147  11.997   1.139 -0.8372 -2.6538 -0.8857
42414SOL     OW38966   3.636   1.071   5.249  1.0151 -0.0582 -0.3146
42414SOL    HW138967   3.668   0.984   5.224 -0.4363 -1.0342  1.0166
42414SOL    HW238968   3.686   1.093   5.327 -1.0085 -1.3869  1.5007
42415SOL     OW38969   1.336  10.250  13.208  0.2256 -0.3698  0.7039
42415SOL    HW138970   1.369  10.292  13.288 -0.5224  1.2884  0.1806
42415SOL    HW238971   1.243  10.269  13.208  0.2944  0.0520 -0.7871
42416SOL     OW38972   7.562   3.320   6.460 -0.4723  0.0786  0.0297
42416SOL    HW138973   7.571   3.405   6.416 -1.4254  0.1019 -0.1521
42416SOL    HW238974   7.521   3.341   6.544 -0.0289 -0.1274  0.2992
42417SOL     OW38975   7.566   9.895   4.946  0.1376  0.2079 -0.7254
42417SOL    HW138976   7.572   9.905   4.851  1.3830 -0.9082 -0.7975
42417SOL    HW238977   7.499   9.828   4.958 -0.1175  0.4462 -0.8016
42418SOL     OW38978  11.674   5.462  11.512  0.8779  0.7333  0.0462
42418SOL    HW138979  11.700   5.526  11.446 -1.6629 -0.2417 -2.0857
42418SOL    HW238980  11.608   5.506  11.564 -0.4495  0.1032 -1.0535
42419SOL     OW38981   0.686   1.968   8.427 -0.5283  0.4488 -1.2390
42419SOL    HW138982   0.628   1.927   8.362 -1.2950 -3.1134  1.3485
42419SOL    HW238983   0.627   2.015   8.485 -0.7286 -1.4479  0.2029
42420SOL     OW38984   6.758  11.525  12.500  0.5167 -0.5621  0.3162
42420SOL    HW138985   6.798  11.589  12.559  0.0276  0.9495 -0.9235
42420SOL    HW238986   6.809  11.532  12.419  0.7682 -2.1331  0.3053
42421SOL     OW38987  12.340   0.834  11.825  0.0538 -0.1697 -0.2708
42421SOL    HW138988  12.353   0.893  11.750 -0.5928  1.6013  0.9454
42421SOL    HW238989  12.248   0.808  11.820 -0.2920  0.8556  0.5057
42422SOL     OW38990  12.197   0.637  12.120 -0.2084  0.2104 -0.1461
42422SOL    HW138991  12.148   0.713  12.088  2.3275  1.0939 -2.2905
42422SOL    HW238992  12.236   0.599  12.041  0.6571 -1.8293  1.1919
42423SOL     OW38993   3.277   3.168   7.477 -0.0282 -0.2429  0.0252
42423SOL    HW138994   3.215   3.095   7.472  2.6653 -2.6650 -1.8743
42423SOL    HW238995   3.293   3.179   7.571 -1.8477 -0.8374  0.4465
42424SOL     OW38996  13.707   0.753   2.246 -0.3731 -0.0978 -0.6271
42424SOL    HW138997  13.765   0.687   2.285  0.3389  0.6421 -0.4010
42424SOL    HW238998  13.685   0.718   2.160 -2.7222 -2.2336  0.6761
42425SOL     OW38999  13.411   0.472   3.701 -0.0495 -0.1426  0.1815
42425SOL    HW139000  13.441   0.397   3.649 -0.3359 -1.1344  1.4038
42425SOL    HW239001  13.317   0.456   3.714  0.2913 -0.7813  2.3037
42426SOL     OW39002   8.592  11.001   6.706  0.5326 -0.4428  0.3917
42426SOL    HW139003   8.646  11.053   6.646  1.4171 -0.3412  1.2500
42426SOL    HW239004   8.535  11.064   6.748  0.7620 -0.3301  0.5394
42427SOL     OW39005   7.058  10.254   5.162 -0.5317 -0.7734 -0.1351
42427SOL    HW139006   7.065  10.279   5.070  0.2669 -2.0510 -0.4329
42427SOL    HW239007   7.068  10.337   5.210  2.9992 -0.5275 -1.0402
42428SOL     OW39008   4.645   9.267   8.410  0.2489 -0.5683  0.3904
42428SOL    HW139009   4.695   9.189   8.385  2.0847  0.1425  1.6610
42428SOL    HW239010   4.709   9.337   8.415 -1.1830  0.8146  0.3530
42429SOL     OW39011   7.960   9.858  10.876  0.6050  0.3102  0.3605
42429SOL    HW139012   7.892   9.803  10.915  0.4218  0.6865  0.5719
42429SOL    HW239013   8.038   9.804  10.879  0.2773 -0.1995 -0.0541
42430SOL     OW39014   8.269   9.377  10.124 -0.1077  0.1381  0.3956
42430SOL    HW139015   8.332   9.323  10.173 -0.2863 -1.9042 -1.4499
42430SOL    HW239016   8.324   9.434  10.070  0.1292  0.1146  0.6086
42431SOL     OW39017  11.467   0.573   5.935  0.2919 -0.7158  0.1606
42431SOL    HW139018  11.471   0.485   5.899 -1.0022 -1.0914  0.8844
42431SOL    HW239019  11.516   0.568   6.017 -0.2498 -0.9148  0.4770
42432SOL     OW39020   9.568  13.062   4.148  0.1081  0.0504  0.1480
42432SOL    HW139021   9.562  13.047   4.053  0.5784 -2.9954  0.4844
42432SOL    HW239022   9.650  13.109   4.160 -0.4915  1.4544 -1.0074
42433SOL     OW39023   1.641   6.231   5.773  0.4005  0.2203 -0.4341
42433SOL    HW139024   1.554   6.229   5.812 -0.2688  0.2515 -1.8633
42433SOL    HW239025   1.691   6.165   5.820 -0.0469  0.9709  1.1547
42434SOL     OW39026   5.831   1.770  11.421  0.3482 -0.6537  0.1974
42434SOL    HW139027   5.925   1.755  11.434  0.9520  2.9190  0.9864
42434SOL    HW239028   5.791   1.751  11.506  1.1509  2.1842  1.3253
42435SOL     OW39029   7.675   8.575   5.898 -0.6578  0.0165 -0.0893
42435SOL    HW139030   7.596   8.565   5.845 -1.5794 -0.2636  1.2781
42435SOL    HW239031   7.717   8.488   5.895 -0.0162  0.3471 -1.3596
42436SOL     OW39032  13.401   4.270   6.182 -0.2862  0.3860 -0.0162
42436SOL    HW139033  13.400   4.337   6.114 -0.3094 -0.5851 -1.0139
42436SOL    HW239034  13.478   4.216   6.161 -1.5772 -1.2956 -0.6866
42437SOL     OW39035   2.648  12.047  12.074  0.1491 -0.3220 -0.1340
42437SOL    HW139036   2.650  11.967  12.126  0.2470 -0.8684 -0.9594
42437SOL    HW239037   2.703  12.027  11.998  0.4584  0.6518 -0.1727
42438SOL     OW39038   4.873   6.190   7.826 -0.2184  0.2178 -0.0408
42438SOL    HW139039   4.800   6.139   7.790 -1.7983  2.2100  0.1481
42438SOL    HW239040   4.895   6.253   7.756  1.7002 -0.6680 -0.2905
42439SOL     OW39041   9.329   6.476  12.523  0.1403 -0.7897 -0.2912
42439SOL    HW139042   9.288   6.391  12.543  0.9230 -1.0782  0.1455
42439SOL    HW239043   9.260   6.526  12.480 -0.4288 -1.5428 -0.2855
42440SOL     OW39044  11.330   3.107   7.570 -0.0294  0.1852  0.4262
42440SOL    HW139045  11.276   3.184   7.555 -0.5830 -0.4219 -0.8209
42440SOL    HW239046  11.419   3.135   7.550 -0.3457  0.2754 -0.9587
42441SOL     OW39047   1.998   8.450   1.428 -0.3016  0.8439 -0.2339
42441SOL    HW139048   1.904   8.466   1.432 -0.5305 -0.4062 -0.1776
42441SOL    HW239049   2.009   8.387   1.357  0.5268  1.1662 -0.4027
42442SOL     OW39050  11.564   8.377   3.310 -0.2178 -0.1064  0.0700
42442SOL    HW139051  11.622   8.311   3.272  1.0530  0.5573  0.7541
42442SOL    HW239052  11.484   8.373   3.257  0.8017 -0.4277 -1.5239
42443SOL     OW39053  11.506   5.173  13.697 -0.0128  0.0294 -0.3224
42443SOL    HW139054  11.590   5.219  13.695 -0.0018  0.0007 -2.4874
42443SOL    HW239055  11.527   5.083  13.675 -0.4498 -0.2890  0.5452
42444SOL     OW39056   9.002   2.075   6.635 -0.5984  0.1584 -0.1615
42444SOL    HW139057   9.004   2.163   6.597  0.1803 -1.0037 -3.0874
42444SOL    HW239058   9.094   2.048   6.637 -0.9213 -1.0419 -0.5603
42445SOL     OW39059  11.210   9.516   0.474  0.1821  0.0748 -0.4739
42445SOL    HW139060  11.172   9.484   0.392  2.4064 -1.5510 -0.9883
42445SOL    HW239061  11.178   9.455   0.540  2.3429 -1.8192 -1.0376
42446SOL     OW39062  10.830   5.483   7.740  0.5658 -0.6956  0.0428
42446SOL    HW139063  10.844   5.542   7.813  2.9054 -0.3139 -0.6085
42446SOL    HW239064  10.842   5.537   7.662 -1.2723 -1.2189 -0.6492
42447SOL     OW39065  11.089   3.850   0.454  0.2403 -0.3028  0.1637
42447SOL    HW139066  11.167   3.812   0.494  0.1896 -1.5988 -0.9202
42447SOL    HW239067  11.065   3.789   0.384 -0.4165  1.2480 -1.0135
42448SOL     OW39068   9.441   1.151  13.265 -0.0046  0.6076 -0.2590
42448SOL    HW139069   9.381   1.210  13.309 -2.5798 -1.3840 -0.8220
42448SOL    HW239070   9.482   1.204  13.196  1.2931  2.7897  2.0354
42449SOL     OW39071   7.521   1.158   5.880  0.2557  0.8323  0.7592
42449SOL    HW139072   7.546   1.218   5.950 -1.5518 -0.0462  2.2393
42449SOL    HW239073   7.560   1.074   5.905  1.3136  0.9534 -0.3940
42450SOL     OW39074   7.256  13.239   2.580 -0.4340 -0.0350  0.3624
42450SOL    HW139075   7.249  13.171   2.513 -1.3002  0.3998 -0.0020
42450SOL    HW239076   7.196  13.209   2.649  0.0411 -0.2070  0.7017
42451SOL     OW39077   0.385   3.408   5.019  0.1896  0.2823  0.5177
42451SOL    HW139078   0.342   3.488   4.990 -0.5143 -0.3942 -0.3766
42451SOL    HW239079   0.475   3.416   4.986  0.3073  0.9620  0.9724
42452SOL     OW39080   6.099   6.173  11.959 -0.3205 -0.2524 -0.8043
42452SOL    HW139081   6.180   6.218  11.937 -0.1165 -0.1593  0.1034
42452SOL    HW239082   6.039   6.196  11.888  0.9247 -1.6861 -2.3892
42453SOL     OW39083   8.923   7.318   3.143  0.8369 -0.0639 -0.8656
42453SOL    HW139084   8.963   7.347   3.225  1.1321 -1.2512 -0.5756
42453SOL    HW239085   8.907   7.224   3.155 -2.4232  0.3737 -0.8160
42454SOL     OW39086  10.936   2.370   1.692 -0.0108  0.4626 -0.3041
42454SOL    HW139087  10.989   2.418   1.628  0.7635  0.0644  0.0288
42454SOL    HW239088  10.997   2.351   1.764 -0.7979  0.6527  0.4197
42455SOL     OW39089   0.701   6.965  11.638 -0.0410 -0.1337 -0.0489
42455SOL    HW139090   0.684   6.901  11.707 -2.5500 -2.2304 -2.3789
42455SOL    HW239091   0.633   7.031  11.649 -1.5219 -1.3593 -1.3819
42456SOL     OW39092   0.880   9.095   9.983 -0.1110  0.3948  0.4853
42456SOL    HW139093   0.868   9.190   9.982  0.4823  0.5068  1.7706
42456SOL    HW239094   0.793   9.060  10.002 -0.1743  0.7388  0.8547
42457SOL     OW39095   4.470   1.095  12.782 -0.4005 -0.0976 -0.4393
42457SOL    HW139096   4.528   1.125  12.852  0.6063 -1.5640 -0.6130
42457SOL    HW239097   4.487   1.001  12.775 -2.2640 -0.4224 -1.0138
42458SOL     OW39098   9.231   1.223   7.240  0.3871  0.1044 -0.0775
42458SOL    HW139099   9.175   1.298   7.260 -0.0761 -0.4490  0.7502
42458SOL    HW239100   9.175   1.147   7.251  0.8634 -0.3784 -0.8911
42459SOL     OW39101   7.488  10.390  12.702 -0.4205 -0.2986  0.0532
42459SOL    HW139102   7.432  10.315  12.682 -1.9532 -0.5127  4.1176
42459SOL    HW239103   7.565  10.351  12.743 -0.9125  0.2322  1.5481
42460SOL     OW39104   2.678   0.672  10.499 -0.1047 -0.2639 -0.6035
42460SOL    HW139105   2.749   0.621  10.538  1.0760 -0.0762 -2.4209
42460SOL    HW239106   2.701   0.763  10.516 -0.7442 -0.2352  0.1638
42461SOL     OW39107  10.702   4.825   4.493  0.0130 -0.3832  0.3728
42461SOL    HW139108  10.776   4.885   4.498 -0.2396  0.0641 -0.9025
42461SOL    HW239109  10.695   4.788   4.581  1.6195 -0.2810  0.5750
42462SOL     OW39110  10.595   3.997   2.651 -0.2010 -0.0312  0.3679
42462SOL    HW139111  10.579   3.920   2.596  0.0688  0.7060 -0.7684
42462SOL    HW239112  10.605   4.069   2.589  1.0554  0.6652  1.3334
42463SOL     OW39113  13.339   3.218   0.780  0.2776  0.1347 -0.0213
42463SOL    HW139114  13.276   3.263   0.724  2.3297 -1.3157 -3.8514
42463SOL    HW239115  13.285   3.162   0.836 -1.9545  0.2498 -1.8967
42464SOL     OW39116   6.377   3.828   9.280 -0.6643 -0.1668  0.2426
42464SOL    HW139117   6.439   3.758   9.261  0.1295  0.7934 -0.8733
42464SOL    HW239118   6.306   3.815   9.218 -0.9427 -0.4785  0.6205
42465SOL     OW39119   5.489  11.522  13.372 -0.0372  0.2753  0.5509
42465SOL    HW139120   5.454  11.524  13.462  0.6192 -0.4972  0.8280
42465SOL    HW239121   5.445  11.448  13.331 -3.2494  2.7774 -1.0223
42466SOL     OW39122   2.869   4.346   6.882 -0.2007  0.2242  0.3049
42466SOL    HW139123   2.774   4.341   6.891 -0.1290 -0.8861  0.5032
42466SOL    HW239124   2.901   4.261   6.912  0.8519  0.5513  0.1502
42467SOL     OW39125   5.138   9.427   7.725 -1.0119 -0.4827  0.3650
42467SOL    HW139126   5.191   9.358   7.684 -0.4799  0.2926 -0.2661
42467SOL    HW239127   5.083   9.461   7.654 -1.5236 -0.4836  0.7551
42468SOL     OW39128  13.394   6.437  12.000 -0.5838  0.2789  0.0784
42468SOL    HW139129  13.331   6.395  11.942  0.4342 -0.3486 -0.6270
42468SOL    HW239130  13.349   6.444  12.084 -2.3343  1.8328 -0.9297
42469SOL     OW39131   1.643   6.800   4.289  0.2816 -0.7683 -0.2836
42469SOL    HW139132   1.623   6.839   4.203  0.5546  2.8737  1.1458
42469SOL    HW239133   1.572   6.831   4.346  1.2079 -1.3729  1.2449
42470SOL     OW39134   6.224  11.864   5.769  0.1985  0.0565  0.5040
42470SOL    HW139135   6.300  11.820   5.731 -0.7678 -1.1383 -0.0779
42470SOL    HW239136   6.177  11.900   5.694  0.7218  1.7377  0.9316
42471SOL     OW39137   8.544   4.616   0.420  0.3474  0.3537 -0.1310
42471SOL    HW139138   8.487   4.681   0.461 -0.8850  0.7399 -2.3181
42471SOL    HW239139   8.488   4.539   0.409  0.7869  0.1122 -0.6850
42472SOL     OW39140  10.754   6.992  13.159 -0.1606 -0.0496 -0.1620
42472SOL    HW139141  10.709   7.045  13.224 -0.5336 -1.9784  1.2221
42472SOL    HW239142  10.776   6.911  13.204  0.9737 -0.8453 -2.0085
42473SOL     OW39143  12.089   1.318   2.869 -0.5180 -0.5151 -0.0661
42473SOL    HW139144  12.068   1.292   2.959  0.6116 -1.2819  0.0001
42473SOL    HW239145  12.026   1.270   2.816 -0.2442 -1.2363  0.2417
42474SOL     OW39146   5.210   1.096   7.820  0.5832  0.2838 -0.8699
42474SOL    HW139147   5.266   1.159   7.774  2.4355 -0.0354  0.7924
42474SOL    HW239148   5.272   1.032   7.856 -0.8133  0.0652  1.3101
42475SOL     OW39149  10.113  12.376   9.681  0.1987  0.6773  0.3055
42475SOL    HW139150  10.120  12.448   9.617 -0.0517 -0.4903 -1.0945
42475SOL    HW239151  10.191  12.322   9.664 -0.9530 -0.7861 -0.4949
42476SOL     OW39152  12.662   2.940   9.171 -0.1640  0.7419 -0.1249
42476SOL    HW139153  12.635   2.899   9.089  0.5444 -0.2022  0.1130
42476SOL    HW239154  12.630   3.030   9.163  0.2808  0.7970 -1.6280
42477SOL     OW39155   0.362   8.300   0.652  0.2061  0.0664 -0.3377
42477SOL    HW139156   0.457   8.315   0.649  0.2303  0.1560  0.6345
42477SOL    HW239157   0.327   8.377   0.696 -0.3808  0.2422 -1.0858
42478SOL     OW39158   8.604   1.321   6.453  0.1975 -0.1134  0.2108
42478SOL    HW139159   8.515   1.293   6.430 -0.0766  0.3305  0.6868
42478SOL    HW239160   8.624   1.392   6.392 -0.7219  1.4019  1.5630
42479SOL     OW39161   7.477  13.374  12.849 -0.1645  0.4095 -0.2111
42479SOL    HW139162   7.482  13.410  12.760 -0.7517 -1.0579 -0.8593
42479SOL    HW239163   7.563  13.393  12.886  0.5765 -0.1178 -1.5663
42480SOL     OW39164   6.526   2.368   5.127 -0.0052 -0.2905  0.0221
42480SOL    HW139165   6.580   2.327   5.193  1.7492 -0.3015 -1.3495
42480SOL    HW239166   6.436   2.343   5.150  0.6548 -1.3276  1.6264
42481SOL     OW39167   5.967  11.455   8.502 -0.6214 -0.0764 -0.4963
42481SOL    HW139168   5.931  11.500   8.426 -2.2057  0.5900  0.5848
42481SOL    HW239169   5.900  11.392   8.527 -1.4269  1.5472  1.8869
42482SOL     OW39170   2.073   4.938  10.477 -0.1009  0.0805 -0.6669
42482SOL    HW139171   2.089   5.002  10.547 -0.0252 -0.0828 -0.5343
42482SOL    HW239172   1.979   4.919  10.483 -0.1443  0.2583 -0.7745
42483SOL     OW39173  10.141   6.087   0.085  0.0887 -0.4778 -0.4286
42483SOL    HW139174  10.060   6.116   0.127  0.5109 -1.3325  1.0366
42483SOL    HW239175  10.126   5.994   0.067  0.3402 -0.3799 -1.1704
42484SOL     OW39176   9.138  10.227   3.713  0.1414  0.3272 -0.6524
42484SOL    HW139177   9.138  10.181   3.797 -1.0005 -1.1095 -1.3783
42484SOL    HW239178   9.209  10.290   3.720  0.3237 -0.0132  1.2431
42485SOL     OW39179   1.037   0.475   3.255  0.8374  0.2938 -0.0188
42485SOL    HW139180   0.955   0.438   3.221  0.8328  0.9780 -0.7654
42485SOL    HW239181   1.054   0.425   3.335  0.6168 -1.0444 -0.7827
42486SOL     OW39182  11.886  11.210   6.648 -0.1739  0.3592  0.5200
42486SOL    HW139183  11.918  11.122   6.666  0.2136  0.3435 -0.1926
42486SOL    HW239184  11.953  11.268   6.686 -0.4217  0.3445  0.9762
42487SOL     OW39185   9.877   9.894   0.477  0.2937 -0.2628 -0.4472
42487SOL    HW139186   9.838   9.896   0.565 -0.5285 -0.3495 -0.8114
42487SOL    HW239187   9.803   9.894   0.417  0.8201  2.1965 -1.2135
42488SOL     OW39188  12.612   4.674   4.970 -0.0358 -0.0184  0.0165
42488SOL    HW139189  12.568   4.709   5.048 -0.2213  0.1747 -0.1761
42488SOL    HW239190  12.654   4.750   4.930  0.2404 -0.1545  0.0441
42489SOL     OW39191   9.079  10.014   2.656  0.3778 -0.1438 -0.5127
42489SOL    HW139192   9.003   9.974   2.613  0.0842  0.8859 -0.9776
42489SOL    HW239193   9.149   9.949   2.644 -0.1793 -0.6937 -0.8993
42490SOL     OW39194  13.476   2.186   9.071 -0.4753 -0.4714  0.2010
42490SOL    HW139195  13.507   2.098   9.049 -2.2589 -0.8883 -0.8657
42490SOL    HW239196  13.409   2.173   9.138  1.7322  0.4429  2.7509
42491SOL     OW39197   4.287   6.983  13.288 -0.1286  0.2045 -0.1339
42491SOL    HW139198   4.202   6.942  13.273  0.2007  0.1849 -2.1895
42491SOL    HW239199   4.309   6.960  13.379 -0.9107 -2.3930 -0.5214
42492SOL     OW39200  12.178  11.852   9.397 -0.1327 -0.1360 -0.3514
42492SOL    HW139201  12.143  11.890   9.478 -5.0025 -0.1457 -2.1541
42492SOL    HW239202  12.156  11.915   9.329  1.4196 -1.3381 -2.0726
42493SOL     OW39203  13.446   0.659   2.417 -1.3789 -0.0501 -0.1084
42493SOL    HW139204  13.507   0.590   2.390  1.6185  2.9694 -1.8838
42493SOL    HW239205  13.457   0.666   2.512  1.4281  0.5400 -0.3878
42494SOL     OW39206  12.910   7.214   8.372 -0.4045 -0.2435 -0.1465
42494SOL    HW139207  12.906   7.308   8.387  1.4734 -0.3064  1.0836
42494SOL    HW239208  12.881   7.202   8.281 -3.1131  1.2136  0.4333
42495SOL     OW39209  10.264   1.213   2.884 -0.0509 -0.7375  0.2822
42495SOL    HW139210  10.212   1.180   2.811  1.8058 -2.2170 -0.4634
42495SOL    HW239211  10.297   1.298   2.854 -0.4150 -0.7055 -0.0346
42496SOL     OW39212  10.050   2.168   5.805 -0.3937 -0.3055  0.2073
42496SOL    HW139213  10.071   2.242   5.748  0.2003 -1.0183 -0.5337
42496SOL    HW239214  10.073   2.198   5.893  2.1579 -0.3982 -0.3493
42497SOL     OW39215  12.249   6.055   8.919 -0.0765  0.0744  0.1694
42497SOL    HW139216  12.155   6.036   8.911 -0.0764 -0.3246  0.9995
42497SOL    HW239217  12.281   6.053   8.829 -0.7723 -0.2812 -0.0829
42498SOL     OW39218   9.901   3.263   0.376  0.7132 -0.3767 -0.2282
42498SOL    HW139219   9.903   3.197   0.445  0.3013 -0.5994 -0.4245
42498SOL    HW239220   9.841   3.228   0.311  2.3636 -0.9266 -1.4983
42499SOL     OW39221   9.187   3.767  10.779 -0.3181 -0.8574  0.3538
42499SOL    HW139222   9.110   3.817  10.805 -1.1256 -0.9942 -1.5969
42499SOL    HW239223   9.158   3.675  10.784 -0.9949 -0.8654 -2.1921
42500SOL     OW39224   7.035   5.930  13.517  0.7235  0.0353  0.1989
42500SOL    HW139225   6.941   5.923  13.502  0.5445  0.2222  1.1772
42500SOL    HW239226   7.071   5.960  13.433 -0.0081 -0.5819 -0.3489
42501SOL     OW39227  12.583   2.227  13.089 -0.4184  0.0790 -0.3602
42501SOL    HW139228  12.587   2.298  13.024 -0.3425 -0.6212 -1.1347
42501SOL    HW239229  12.602   2.148  13.039  0.6170 -0.3686  0.7057
42502SOL     OW39230  13.215   2.899   6.102  0.0348 -0.0546 -0.6803
42502SOL    HW139231  13.148   2.940   6.047 -0.2806 -1.2713 -1.2527
42502SOL    HW239232  13.213   2.948   6.184 -0.8654  0.5643 -1.0570
42503SOL     OW39233   0.374  13.440  13.418 -0.2110 -0.6113  0.6141
42503SOL    HW139234   0.285  13.403  13.421  0.3382 -2.0780 -0.0317
42503SOL    HW239235   0.425  13.383  13.476  0.1883  0.6550  1.5534
42504SOL     OW39236   0.788   4.539   8.102  0.1513  0.0520  0.1489
42504SOL    HW139237   0.809   4.621   8.057  0.6329  0.5150  1.1635
42504SOL    HW239238   0.855   4.477   8.072 -1.5246 -0.6883 -2.3680
42505SOL     OW39239  12.954  12.914   2.521  0.5806 -0.2967  0.2735
42505SOL    HW139240  13.033  12.917   2.575  1.4321 -1.6080 -0.8380
42505SOL    HW239241  12.959  12.994   2.468  0.7878 -0.0312  0.6823
42506SOL     OW39242   2.260   5.461   1.544  0.4376  0.0110 -0.2815
42506SOL    HW139243   2.255   5.402   1.469  0.7475 -1.1943  0.6222
42506SOL    HW239244   2.353   5.480   1.554  0.2550  1.5628 -1.2289
42507SOL     OW39245   0.693   3.970  10.485 -0.2008 -0.5499  0.4427
42507SOL    HW139246   0.620   3.908  10.494  0.1679 -0.8941  1.2158
42507SOL    HW239247   0.672   4.040  10.547 -0.6011  0.1046 -0.4065
42508SOL     OW39248  12.079   5.438   6.409  1.0640 -0.3265  0.2296
42508SOL    HW139249  12.058   5.426   6.501 -0.2882  0.6006  0.0717
42508SOL    HW239250  12.140   5.512   6.407  2.3246 -1.3179  0.4720
42509SOL     OW39251   8.360   4.250   1.479  0.3297  0.2073 -0.4916
42509SOL    HW139252   8.377   4.251   1.385 -1.1386  1.3283 -0.7838
42509SOL    HW239253   8.283   4.306   1.490  1.4623  1.4865  1.5739
42510SOL     OW39254  10.224   6.768   5.326 -0.6449  0.2335 -0.4882
42510SOL    HW139255  10.220   6.682   5.286 -0.8134  0.8372 -1.8286
42510SOL    HW239256  10.252   6.826   5.255  1.3321  0.9995  0.8290
42511SOL     OW39257   2.233  10.659  13.257 -0.6485 -0.1768 -0.0253
42511SOL    HW139258   2.165  10.599  13.290 -0.0156 -0.3392  1.0204
42511SOL    HW239259   2.315  10.617  13.280 -0.1637 -0.0549 -1.4261
42512SOL     OW39260  12.533   5.027  11.171 -0.1086  0.0062  0.6135
42512SOL    HW139261  12.623   5.039  11.143 -0.4838  2.7326  0.3427
42512SOL    HW239262  12.483   5.019  11.089 -0.1102 -2.1995  0.7601
42513SOL     OW39263   4.098  10.399   1.406  0.9545  0.5003 -0.1942
42513SOL    HW139264   4.067  10.324   1.355  0.0100  0.8411 -0.1351
42513SOL    HW239265   4.133  10.460   1.341  0.6413  0.5148 -0.3497
42514SOL     OW39266   4.216  11.877   2.485  0.5458 -0.5678 -0.5591
42514SOL    HW139267   4.150  11.875   2.554  0.2960 -1.0766 -0.8053
42514SOL    HW239268   4.255  11.790   2.486  0.3613 -0.6651 -1.2217
42515SOL     OW39269  12.422   0.064  12.699 -0.7190 -0.1676 -0.3116
42515SOL    HW139270  12.503   0.071  12.749 -0.0586 -1.3504 -1.1586
42515SOL    HW239271  12.431   0.128  12.628  0.2415 -1.4487 -1.3828
42516SOL     OW39272  10.385  10.132   1.502 -0.3773  0.1248  0.3999
42516SOL    HW139273  10.378  10.051   1.551  1.0121 -0.2399  0.0300
42516SOL    HW239274  10.417  10.106   1.416 -0.6937  0.9892 -0.0010
42517SOL     OW39275   5.189  10.494   1.880 -0.2218  0.0811  0.0264
42517SOL    HW139276   5.194  10.518   1.973 -0.8547  0.4669 -0.0351
42517SOL    HW239277   5.267  10.534   1.841 -0.1136  0.1777  0.3403
42518SOL     OW39278  10.555   5.543  12.433  0.8023  0.0187  0.1277
42518SOL    HW139279  10.482   5.594  12.468 -1.4723 -1.6669 -1.7927
42518SOL    HW239280  10.568   5.473  12.497  0.3365  0.0086  0.2182
42519SOL     OW39281  10.266   3.741   5.296  0.0785  0.4270  0.2416
42519SOL    HW139282  10.220   3.778   5.372 -0.1245  1.0612 -0.1825
42519SOL    HW239283  10.346   3.794   5.288  0.3653  0.0154  0.3331
42520SOL     OW39284   0.996  10.021  12.256 -0.2400 -0.2828  0.1245
42520SOL    HW139285   0.955   9.971  12.327  2.1842  0.3441  2.1032
42520SOL    HW239286   0.927  10.078  12.224 -1.7507 -1.4594  1.1356
42521SOL     OW39287  12.164  13.490   8.307 -0.2409 -0.1657  0.0146
42521SOL    HW139288  12.229  13.560   8.307  0.0473 -0.3354 -2.6527
42521SOL    HW239289  12.206  13.417   8.352  0.4929  0.4996  0.4220
42522SOL     OW39290   7.260   5.419   0.134  0.1780 -0.0293  0.6012
42522SOL    HW139291   7.348   5.453   0.120 -0.1965  0.5302 -0.5565
42522SOL    HW239292   7.218   5.484   0.191  0.4548 -0.1965  0.9955
42523SOL     OW39293  12.423   8.802   4.890  0.1532  0.0431 -0.0631
42523SOL    HW139294  12.361   8.729   4.897  0.3381 -0.2049 -0.9407
42523SOL    HW239295  12.374   8.878   4.921 -0.1233 -0.3991  0.6168
42524SOL     OW39296   4.948   7.215  12.597 -0.9733  0.0281  0.4665
42524SOL    HW139297   4.926   7.146  12.535  0.8866  0.1583 -0.3912
42524SOL    HW239298   4.899   7.192  12.676 -2.4783 -0.7775 -0.6577
42525SOL     OW39299   6.750  12.459   9.074 -0.7037  0.0003 -0.3270
42525SOL    HW139300   6.668  12.483   9.116 -0.6665  0.8263 -0.6996
42525SOL    HW239301   6.793  12.401   9.137 -1.4495 -0.2358 -0.0200
42526SOL     OW39302   1.864   6.093  10.319 -0.2208  0.2227 -0.0643
42526SOL    HW139303   1.770   6.077  10.312 -0.6742  2.8700 -1.1363
42526SOL    HW239304   1.875   6.183  10.290  2.5946  0.1966  0.6567
42527SOL     OW39305   8.995  11.754  12.151  0.2210  0.5389  0.6748
42527SOL    HW139306   8.938  11.758  12.228  0.9682 -0.6111  1.3231
42527SOL    HW239307   9.069  11.701  12.179  1.0764  1.0668 -0.4999
42528SOL     OW39308   8.587   5.240   0.676  0.1195  0.0084 -0.2434
42528SOL    HW139309   8.669   5.274   0.710 -0.4440  0.0901  1.1276
42528SOL    HW239310   8.528   5.316   0.673 -0.5611 -0.4308  0.9854
42529SOL     OW39311   2.365   2.387   3.558 -0.7961  0.0108  0.2402
42529SOL    HW139312   2.329   2.413   3.642 -0.9122  1.1495 -0.1436
42529SOL    HW239313   2.288   2.364   3.505 -0.6345 -2.7624  1.0458
42530SOL     OW39314  10.339   2.304   2.914 -0.3591  0.1679  0.2518
42530SOL    HW139315  10.358   2.345   2.829  0.2413  0.1259  0.3651
42530SOL    HW239316  10.375   2.216   2.906 -0.0387  0.2645  0.6645
42531SOL     OW39317   8.797   7.689   0.732  0.2317  0.3334 -0.6429
42531SOL    HW139318   8.746   7.770   0.741  2.1576  1.5079  0.3764
42531SOL    HW239319   8.853   7.705   0.656  0.7727  0.0466 -0.3067
42532SOL     OW39320   7.109  10.792   7.830  0.0443  0.0582  0.3434
42532SOL    HW139321   7.120  10.712   7.880 -1.2384 -1.2622 -1.3598
42532SOL    HW239322   7.068  10.764   7.748 -0.8517  2.5074 -0.1395
42533SOL     OW39323   2.356  13.445   4.919 -0.1181  0.1771  0.0119
42533SOL    HW139324   2.307  13.410   4.844  0.6606  1.9980 -1.4160
42533SOL    HW239325   2.292  13.446   4.990 -0.8441 -1.7205 -0.5517
42534SOL     OW39326   0.315  10.130   6.300  0.5413 -0.0955 -0.6372
42534SOL    HW139327   0.299  10.122   6.206  0.8074  0.5650 -0.7431
42534SOL    HW239328   0.368  10.209   6.309 -1.1070  0.9601  0.2516
42535SOL     OW39329   8.166  10.776   9.342  0.0691  0.0490 -0.0403
42535SOL    HW139330   8.159  10.830   9.264 -0.3034  0.5120  0.3116
42535SOL    HW239331   8.077  10.745   9.359  0.2846 -0.7261 -0.2684
42536SOL     OW39332   2.030  12.950   1.452  0.0905 -0.0031 -0.4409
42536SOL    HW139333   2.031  13.039   1.415 -0.6539 -0.0542 -0.6001
42536SOL    HW239334   2.076  12.958   1.535 -1.3088  0.8836  0.2993
42537SOL     OW39335   9.649   9.874   0.315 -0.0653 -0.1645 -0.8376
42537SOL    HW139336   9.619   9.960   0.341  0.2458 -0.5114  0.7937
42537SOL    HW239337   9.569   9.826   0.292 -0.4452 -0.0519  0.2057
42538SOL     OW39338  11.847   8.006  11.982 -0.3317 -0.1162  0.0449
42538SOL    HW139339  11.776   8.034  11.924 -0.6823 -2.2751 -0.6556
42538SOL    HW239340  11.803   7.952  12.048  0.2984  0.9381  1.3658
42539SOL     OW39341   4.148  11.007   4.244 -0.1004 -0.6589  0.0301
42539SOL    HW139342   4.174  11.050   4.163  1.0027 -1.6283 -0.1453
42539SOL    HW239343   4.130  11.079   4.305  1.9804  0.0697 -0.1649
42540SOL     OW39344  13.599   9.701   5.032  0.3977 -0.0190 -0.2375
42540SOL    HW139345  13.533   9.632   5.036 -0.3931  0.6830 -0.7791
42540SOL    HW239346  13.673   9.667   5.081 -1.0059 -0.1039  1.9267
42541SOL     OW39347   1.466   1.144   3.858 -0.1141 -0.2442  0.2970
42541SOL    HW139348   1.497   1.218   3.910 -0.6147  1.0213 -1.1338
42541SOL    HW239349   1.535   1.078   3.866  0.7298  0.6911  0.9424
42542SOL     OW39350  12.194   2.780   7.734  0.2726 -0.2272 -0.4576
42542SOL    HW139351  12.245   2.705   7.703  1.7130  0.5484 -0.0879
42542SOL    HW239352  12.195   2.772   7.829  1.3774  0.8130 -0.3561
42543SOL     OW39353   3.838  13.373   3.505 -0.2167 -0.0051  0.4583
42543SOL    HW139354   3.755  13.327   3.499 -0.8728  1.2996 -1.9770
42543SOL    HW239355   3.814  13.466   3.500  1.3800  0.3813 -1.9439
42544SOL     OW39356   2.721   7.864  13.429 -0.3158 -0.2864  0.2446
42544SOL    HW139357   2.646   7.913  13.464 -0.8326 -2.3978  2.3528
42544SOL    HW239358   2.796   7.922  13.444 -1.0154  0.2496  1.8623
42545SOL     OW39359  12.145   5.374   9.190  0.2776 -0.1509 -0.1104
42545SOL    HW139360  12.192   5.457   9.204  2.7628 -1.1638 -1.7221
42545SOL    HW239361  12.206   5.307   9.219 -1.2280 -1.5043  0.0473
42546SOL     OW39362   9.150   3.426   5.536 -0.2420 -0.2083 -0.0087
42546SOL    HW139363   9.142   3.433   5.631  0.0000 -0.0176 -0.0017
42546SOL    HW239364   9.061   3.416   5.505 -0.3407 -0.0580  0.2241
42547SOL     OW39365   9.751   0.654   9.702  0.6611  0.3389 -0.1141
42547SOL    HW139366   9.842   0.682   9.716  1.8434 -3.0272 -0.0892
42547SOL    HW239367   9.717   0.637   9.790  2.6495 -5.2753 -0.0240
42548SOL     OW39368   3.120   5.982   9.704 -0.5261 -0.2227  0.0869
42548SOL    HW139369   3.177   6.023   9.639 -0.4621 -0.5670 -0.0734
42548SOL    HW239370   3.174   5.977   9.783 -0.9552  1.2141  0.5121
42549SOL     OW39371   2.259   3.043   1.100 -0.0124 -0.0528  0.8193
42549SOL    HW139372   2.191   3.093   1.146 -1.9888 -1.1640 -0.6989
42549SOL    HW239373   2.256   3.076   1.010 -0.4026 -1.8476  0.1204
42550SOL     OW39374  12.889  10.725   3.447 -0.1985  0.3800  0.0802
42550SOL    HW139375  12.927  10.787   3.509 -0.0649  0.8807 -0.4931
42550SOL    HW239376  12.946  10.648   3.451  1.7294  1.6010 -1.7385
42551SOL     OW39377   7.887   6.026  13.621 -0.0701 -0.2648 -0.2993
42551SOL    HW139378   7.905   5.981  13.703  1.7339 -0.9335 -0.9926
42551SOL    HW239379   7.960   6.002  13.564 -1.1761  0.2993 -2.0574
42552SOL     OW39380   8.679   0.418  10.739  0.4195  0.7621  0.2173
42552SOL    HW139381   8.735   0.392  10.812  1.2224  0.9519 -0.3137
42552SOL    HW239382   8.637   0.499  10.769 -0.0750  0.2784  0.8645
42553SOL     OW39383   8.530   4.092  12.341  0.3026 -0.1622  0.2997
42553SOL    HW139384   8.441   4.063  12.360  1.3473 -2.6396  1.8621
42553SOL    HW239385   8.535   4.091  12.245 -1.9902  2.4655  0.0103
42554SOL     OW39386  10.989   7.458   4.422  0.5037 -0.4636  0.4841
42554SOL    HW139387  10.987   7.508   4.341  0.9543 -1.0993  0.0716
42554SOL    HW239388  11.012   7.369   4.395 -0.8016 -1.0323  1.1268
42555SOL     OW39389   4.294   2.280   4.082 -0.3730  0.4125  0.3445
42555SOL    HW139390   4.307   2.329   4.001 -1.1104 -0.5148 -0.3633
42555SOL    HW239391   4.209   2.238   4.071  0.7147 -1.9674  0.3722
42556SOL     OW39392   1.949   1.241   6.419 -0.4608 -0.1130 -0.0838
42556SOL    HW139393   1.906   1.326   6.419 -1.8130 -0.7476 -1.2458
42556SOL    HW239394   1.989   1.234   6.332  0.3927 -0.3258  0.3109
42557SOL     OW39395  13.216  12.605  12.322  0.4081  0.0422  0.2636
42557SOL    HW139396  13.250  12.578  12.237  0.6539  0.4597  0.2243
42557SOL    HW239397  13.189  12.524  12.365  0.5115 -0.1917 -0.1146
42558SOL     OW39398   9.389   9.274   9.451  0.0325 -0.3550  0.1624
42558SOL    HW139399   9.463   9.214   9.453  0.2446 -0.0780  1.1645
42558SOL    HW239400   9.424   9.356   9.485 -1.1690 -0.7396  2.5443
42559SOL     OW39401  10.857   6.475  11.057  0.2166 -0.4670 -0.4322
42559SOL    HW139402  10.845   6.440  11.145 -0.8344  0.8098 -0.0265
42559SOL    HW239403  10.843   6.569  11.066 -0.2076 -0.3379 -2.0086
42560SOL     OW39404   8.565   9.955  11.593  0.1519  0.2217  0.2117
42560SOL    HW139405   8.647   9.910  11.572  1.2470  1.6769  1.0829
42560SOL    HW239406   8.530   9.983  11.509  0.8724  0.0975 -0.1367
42561SOL     OW39407   9.303  13.061   0.156 -0.1338  0.3545  0.3426
42561SOL    HW139408   9.227  13.045   0.213  1.6565  0.0640  2.8199
42561SOL    HW239409   9.336  12.973   0.135  1.4229  0.4449  2.1310
42562SOL     OW39410  12.002   9.496   7.049  0.6752  0.0511  0.1985
42562SOL    HW139411  12.054   9.548   7.110  1.6854  0.3625 -0.8966
42562SOL    HW239412  11.992   9.411   7.093 -1.2277  1.1805  2.1211
42563SOL     OW39413   2.980   2.136   9.826 -0.0263  0.7857  0.5124
42563SOL    HW139414   3.046   2.204   9.810  0.6370 -0.2830 -1.6787
42563SOL    HW239415   3.013   2.087   9.901  0.8699  1.2294  0.4181
42564SOL     OW39416   4.068   0.625   6.518 -0.0495 -0.0651  0.6128
42564SOL    HW139417   4.064   0.633   6.422 -2.4168  0.5488  0.6992
42564SOL    HW239418   4.123   0.698   6.545 -0.9427  0.9468 -0.1946
42565SOL     OW39419  12.941   6.964  11.544  0.2139  0.3006 -0.4813
42565SOL    HW139420  12.979   6.888  11.589  0.8451  1.1816  0.5038
42565SOL    HW239421  12.850   6.966  11.574  0.3266  0.2127 -0.1288
42566SOL     OW39422   0.803   0.346   3.160 -0.4360  0.4716 -0.3697
42566SOL    HW139423   0.782   0.294   3.083  0.9491 -1.3204  0.3892
42566SOL    HW239424   0.767   0.296   3.233 -0.0366  1.1433  0.2966
42567SOL     OW39425   5.572   4.859  11.066 -0.1968 -0.4213  0.4204
42567SOL    HW139426   5.658   4.898  11.077 -0.2525 -0.7318  2.2118
42567SOL    HW239427   5.548   4.880  10.976  0.6150  1.9607  0.6757
42568SOL     OW39428   8.709   6.325   6.186  0.1788 -0.3535  0.2179
42568SOL    HW139429   8.630   6.272   6.180  0.2979 -0.5742  0.5585
42568SOL    HW239430   8.703   6.386   6.113  0.1500 -0.9842 -0.3141
42569SOL     OW39431   3.485  12.751   9.588  0.6125  0.0444 -0.0649
42569SOL    HW139432   3.445  12.720   9.669  1.1451 -1.0908 -0.2188
42569SOL    HW239433   3.412  12.784   9.536  0.2157  0.4167  0.7043
42570SOL     OW39434   4.758   7.387   8.556  0.4804 -0.8342  0.0061
42570SOL    HW139435   4.762   7.423   8.644  0.5599 -0.2317 -0.2383
42570SOL    HW239436   4.747   7.463   8.499 -2.6599 -1.4168 -0.3204
42571SOL     OW39437  11.683   1.273  13.663  0.0367  0.8168  0.3847
42571SOL    HW139438  11.624   1.348  13.660  1.6179  2.1002 -0.5127
42571SOL    HW239439  11.754   1.295  13.603  0.5373 -1.4499  0.0275
42572SOL     OW39440  11.892   3.241  12.534 -0.0932 -0.2024  0.2840
42572SOL    HW139441  11.800   3.228  12.514  0.4758 -0.1593 -2.7789
42572SOL    HW239442  11.912   3.329  12.503  1.3957 -0.9406 -1.0178
42573SOL     OW39443  12.701  12.424   2.239 -0.1958  0.3606  0.2541
42573SOL    HW139444  12.636  12.353   2.238  1.4347 -1.2326 -1.7982
42573SOL    HW239445  12.674  12.481   2.166  1.6679 -1.3969 -1.9689
42574SOL     OW39446  11.210  10.549  12.836 -0.3922 -0.4432 -0.3195
42574SOL    HW139447  11.262  10.481  12.794 -2.0960 -0.4164 -2.6948
42574SOL    HW239448  11.255  10.631  12.814  0.6821 -0.6328  1.0404
42575SOL     OW39449   6.501  13.364   8.035 -0.7601  0.2276 -0.0991
42575SOL    HW139450   6.513  13.292   8.097 -0.0604 -0.1186 -0.6167
42575SOL    HW239451   6.514  13.323   7.949 -1.2556  0.7914 -0.4473
42576SOL     OW39452  12.218   6.886   7.687  0.2072  0.3460 -0.1526
42576SOL    HW139453  12.221   6.857   7.596 -2.3627 -1.1992  0.1700
42576SOL    HW239454  12.130   6.921   7.698  0.0346 -0.6601  2.0554
42577SOL     OW39455   8.958   0.888   3.909 -0.2403 -0.0759 -0.3279
42577SOL    HW139456   8.889   0.940   3.867  0.9821  0.4451 -1.7878
42577SOL    HW239457   8.940   0.798   3.882 -0.0737  0.1258 -1.1384
42578SOL     OW39458   3.428   1.900  10.822  0.2580 -0.1319 -0.4383
42578SOL    HW139459   3.418   1.855  10.906 -0.9486 -0.1202 -0.5509
42578SOL    HW239460   3.447   1.991  10.845  0.1830 -0.1825 -0.1816
42579SOL     OW39461   3.379   5.223   8.301 -0.2146  0.0447  0.7181
42579SOL    HW139462   3.472   5.237   8.285 -0.4961 -0.6639 -2.0270
42579SOL    HW239463   3.346   5.309   8.328  0.8859  0.7673 -0.1652
42580SOL     OW39464  10.737   3.058  13.721 -0.4738 -0.3734 -0.0595
42580SOL    HW139465  10.687   3.139  13.715 -0.8332 -0.5401  0.6306
42580SOL    HW239466  10.672   2.988  13.715 -0.1980 -0.6135 -0.3650
42581SOL     OW39467   0.572   4.011   2.666  0.2417 -0.5719 -0.9345
42581SOL    HW139468   0.664   4.018   2.691  0.2098 -0.6126 -0.8034
42581SOL    HW239469   0.537   3.945   2.725 -0.1703  0.3376 -0.1352
42582SOL     OW39470   4.648   0.219   1.813 -0.4522  0.6987 -0.0670
42582SOL    HW139471   4.608   0.281   1.873 -0.2018  0.2580  0.5737
42582SOL    HW239472   4.739   0.214   1.840 -0.7821 -1.0738  0.9058
42583SOL     OW39473  10.175   0.688   4.969  0.4341  0.0940 -0.0757
42583SOL    HW139474  10.114   0.716   4.901  0.5667 -2.1145 -1.1708
42583SOL    HW239475  10.137   0.722   5.050 -0.7187  1.1842 -1.0367
42584SOL     OW39476  12.600   4.527   5.639  0.0098  0.0870 -0.6265
42584SOL    HW139477  12.518   4.528   5.588  0.7812 -0.2268 -1.9147
42584SOL    HW239478  12.617   4.618   5.660 -0.5631  0.1715 -0.5116
42585SOL     OW39479  11.655  10.321   3.389 -0.4145 -0.9806 -0.4513
42585SOL    HW139480  11.627  10.399   3.438  0.6954 -0.3922 -0.7333
42585SOL    HW239481  11.623  10.248   3.442 -0.5741 -0.3411  0.3628
42586SOL     OW39482   3.906   2.111   6.863  0.0342 -0.5965  0.5506
42586SOL    HW139483   3.862   2.168   6.926 -1.3996 -1.0205 -0.0274
42586SOL    HW239484   3.912   2.162   6.783  0.2412 -0.6878  0.5047
42587SOL     OW39485   9.773   8.805  13.258  0.2891  0.0051  0.5216
42587SOL    HW139486   9.717   8.727  13.263 -1.0679  0.9557  0.5627
42587SOL    HW239487   9.862   8.770  13.256 -0.3073 -1.5736 -0.0059
42588SOL     OW39488  11.513   0.699  13.023 -0.2778  0.1492  0.6424
42588SOL    HW139489  11.510   0.711  12.928 -1.7145 -2.5228  0.2639
42588SOL    HW239490  11.438   0.644  13.043 -0.6367  1.4808  3.5250
42589SOL     OW39491  11.672  12.934  11.611 -0.0518 -0.7392 -0.0141
42589SOL    HW139492  11.578  12.921  11.598 -0.2634  0.6697 -0.0525
42589SOL    HW239493  11.681  13.028  11.627  1.4193 -0.7518 -0.6348
42590SOL     OW39494   9.228   9.256   1.981 -0.0498  0.3562  0.0962
42590SOL    HW139495   9.203   9.165   2.000 -2.4025  1.1181  1.0786
42590SOL    HW239496   9.210   9.266   1.887  1.1209 -0.4209 -0.2298
42591SOL     OW39497  10.614  10.532   3.732  0.5563  0.1574  0.0456
42591SOL    HW139498  10.621  10.627   3.722 -1.9309  0.4811  0.7065
42591SOL    HW239499  10.616  10.518   3.827 -1.9159 -0.0894  0.1172
42592SOL     OW39500   4.848  12.627  13.227  0.0105 -0.1279 -0.0755
42592SOL    HW139501   4.900  12.655  13.302 -0.1130  0.7692 -0.3110
42592SOL    HW239502   4.908  12.635  13.152 -0.3066  0.4154 -0.2755
42593SOL     OW39503  11.697  13.692   9.416  0.3352 -0.3599  0.0866
42593SOL    HW139504  11.632  13.624   9.432  0.7655 -0.9277 -0.5425
42593SOL    HW239505  11.647  13.774   9.422 -0.3807 -0.7721 -0.0913
42594SOL     OW39506  11.298  10.427   4.728  0.1947 -0.0862 -0.0025
42594SOL    HW139507  11.244  10.351   4.751 -0.1667  0.1666  0.0067
42594SOL    HW239508  11.355  10.397   4.658 -0.8601 -0.0094 -0.9226
42595SOL     OW39509   6.984   8.342   6.079 -0.2508 -0.1118 -0.3615
42595SOL    HW139510   6.950   8.259   6.044  0.1075 -0.8132  0.9113
42595SOL    HW239511   7.008   8.392   6.001 -2.0407 -0.5017 -1.2277
42596SOL     OW39512   1.620  10.936  13.591 -0.0760  0.0673 -0.1039
42596SOL    HW139513   1.699  10.935  13.537 -0.2306 -0.7024 -0.3232
42596SOL    HW239514   1.551  10.967  13.533  0.0295  0.5963  0.0460
42597SOL     OW39515   0.634   4.632  10.004 -0.2535 -0.2750  0.3027
42597SOL    HW139516   0.544   4.657   9.983 -0.1779 -0.4607 -0.2794
42597SOL    HW239517   0.645   4.545   9.964  0.4519  0.1222 -0.4076
42598SOL     OW39518   9.491   6.959   3.589 -0.5059 -0.2691 -0.0329
42598SOL    HW139519   9.562   6.990   3.645 -0.5879  0.3194 -0.2455
42598SOL    HW239520   9.492   7.019   3.514 -0.8131 -0.6509 -0.3469
42599SOL     OW39521   6.706   9.448   4.428  0.1309  0.8352  0.2700
42599SOL    HW139522   6.660   9.505   4.489 -2.3132 -0.0413 -0.6315
42599SOL    HW239523   6.697   9.360   4.465  0.5699  0.5605 -0.2433
42600SOL     OW39524   5.717   5.659   2.316  0.3770 -0.0530  0.3896
42600SOL    HW139525   5.715   5.704   2.232 -0.0024 -0.8957 -0.0651
42600SOL    HW239526   5.808   5.662   2.344  0.6147 -0.2845 -0.3472
42601SOL     OW39527   4.470   0.264   5.374 -0.5535  0.3977 -0.4392
42601SOL    HW139528   4.415   0.195   5.336 -0.8584 -0.7871  1.9675
42601SOL    HW239529   4.430   0.283   5.459  0.0118  3.0018 -0.6410
42602SOL     OW39530   5.112  13.547   2.182 -0.0562 -0.2493  0.0776
42602SOL    HW139531   5.094  13.472   2.125 -0.4865  0.3982 -0.6537
42602SOL    HW239532   5.027  13.589   2.195  0.5421  1.6987 -1.7827
42603SOL     OW39533  11.122   0.451   6.237 -0.5921 -0.0326  0.0379
42603SOL    HW139534  11.116   0.361   6.205 -2.1622 -0.6735  1.9607
42603SOL    HW239535  11.101   0.505   6.161  1.1702 -1.1909 -1.3676
42604SOL     OW39536   6.565   3.639   9.125 -0.0840  0.0165 -0.5237
42604SOL    HW139537   6.544   3.719   9.076  1.0617  0.4800 -0.2949
42604SOL    HW239538   6.552   3.568   9.062 -2.6058  0.2013 -0.3107
42605SOL     OW39539  11.789   1.861   1.089 -0.2900  0.4976 -0.2466
42605SOL    HW139540  11.731   1.820   1.153 -0.0232  1.2888  0.5117
42605SOL    HW239541  11.855   1.906   1.141 -0.6192  1.9701 -1.0511
42606SOL     OW39542   9.186   6.401   0.303 -0.3267 -0.6342  0.5896
42606SOL    HW139543   9.095   6.399   0.274 -0.6573 -0.9735  1.5976
42606SOL    HW239544   9.183   6.365   0.392  0.5224  0.9629  1.3116
42607SOL     OW39545   2.939   0.147   6.967  0.4691  0.1463  0.1208
42607SOL    HW139546   2.955   0.237   6.995  1.4884 -0.6135  2.2109
42607SOL    HW239547   2.861   0.120   7.014 -0.6168  0.3071 -1.5136
42608SOL     OW39548   8.472   5.954   6.335  0.2058 -0.7503  0.6577
42608SOL    HW139549   8.497   5.864   6.354  0.9617 -0.9341 -1.0583
42608SOL    HW239550   8.534   5.984   6.269 -1.4417  0.2453 -0.5458
42609SOL     OW39551  11.334   7.281   0.290 -0.0760 -0.0279  0.1335
42609SOL    HW139552  11.362   7.346   0.355  0.3937  0.0538 -0.1488
42609SOL    HW239553  11.367   7.314   0.207  1.3829 -1.3228  0.1584
42610SOL     OW39554   9.363   3.368  10.077 -0.1344  0.5008 -0.1535
42610SOL    HW139555   9.413   3.428  10.023  0.9954 -0.8883 -0.7197
42610SOL    HW239556   9.426   3.302  10.105 -0.9719  0.4787  1.8392
42611SOL     OW39557  10.469  11.044  10.923 -0.4566  0.2291  0.3407
42611SOL    HW139558  10.465  11.097  11.002  0.5621  0.3160  0.3487
42611SOL    HW239559  10.552  11.068  10.882 -0.6013 -0.3933 -0.3388
42612SOL     OW39560  11.519  10.685   7.176  0.0128 -0.8152 -0.2847
42612SOL    HW139561  11.455  10.688   7.105  0.6690  0.4133 -0.8540
42612SOL    HW239562  11.574  10.763   7.163  1.7220 -1.8967  0.0939
42613SOL     OW39563   7.800  13.176  13.029  0.4519 -0.7680  0.3944
42613SOL    HW139564   7.873  13.238  13.029 -2.2830  2.8216  1.5515
42613SOL    HW239565   7.780  13.163  12.936  0.8732  0.4746  0.0999
42614SOL     OW39566   9.532   4.711  13.459 -0.6208  1.0684  0.2294
42614SOL    HW139567   9.447   4.751  13.440 -0.0368  1.2918 -2.3044
42614SOL    HW239568   9.591   4.748  13.393  0.4791 -2.1313 -0.7928
42615SOL     OW39569  11.089   1.357   3.638  0.0180 -0.1624 -0.6034
42615SOL    HW139570  11.148   1.430   3.618 -1.3678  1.6389  1.3914
42615SOL    HW239571  11.133   1.309   3.708 -0.8427  1.2632  0.9845
42616SOL     OW39572  11.267   1.365   9.269  0.1964 -0.0700 -0.9082
42616SOL    HW139573  11.237   1.387   9.181 -0.0575 -0.2256 -0.8630
42616SOL    HW239574  11.264   1.269   9.271  0.6441 -0.0816 -0.8831
42617SOL     OW39575   1.868   6.920   7.378 -0.9385 -0.0793 -0.1061
42617SOL    HW139576   1.930   6.988   7.350 -0.7480  0.4971  1.6380
42617SOL    HW239577   1.920   6.840   7.379 -0.3622  0.2892  0.7107
42618SOL     OW39578  12.566   8.821   8.648  0.9946  0.2986  0.1012
42618SOL    HW139579  12.610   8.848   8.567 -0.4626  1.9063 -0.2271
42618SOL    HW239580  12.622   8.752   8.684  2.0587  0.0239 -1.9017
42619SOL     OW39581   1.430   8.589   4.793  0.2533 -0.4089  0.0554
42619SOL    HW139582   1.373   8.659   4.826  0.3830 -0.2586 -0.0392
42619SOL    HW239583   1.413   8.586   4.699  0.7034 -0.0849 -0.0390
42620SOL     OW39584   2.326   3.192  12.531 -0.2851 -0.0615 -0.1410
42620SOL    HW139585   2.311   3.189  12.437  0.0469  1.1710 -0.2552
42620SOL    HW239586   2.307   3.104  12.562  0.7949 -0.8129 -1.5321
42621SOL     OW39587   8.478   4.873   8.161 -0.1225  0.0894  0.2454
42621SOL    HW139588   8.450   4.965   8.167 -1.1934 -0.2177  0.1526
42621SOL    HW239589   8.398   4.825   8.139  0.0007 -1.1318  2.2935
42622SOL     OW39590   8.930   7.401  13.401 -0.2266  0.2640 -0.3374
42622SOL    HW139591   8.979   7.416  13.320 -1.7939  0.4984 -1.2818
42622SOL    HW239592   8.937   7.483  13.450  1.1037 -0.0293  0.0031
42623SOL     OW39593  12.665   7.032   6.490 -0.9740  0.2005  0.3725
42623SOL    HW139594  12.626   7.117   6.468 -1.4045  0.0354  0.4950
42623SOL    HW239595  12.726   7.051   6.561 -0.9873  0.4269  0.3224
42624SOL     OW39596   1.850   6.753   8.532  0.4067 -0.2443  0.1069
42624SOL    HW139597   1.895   6.834   8.508  0.9549 -0.3816  0.6518
42624SOL    HW239598   1.913   6.705   8.586  0.0356 -0.9726 -0.0916
42625SOL     OW39599   5.613   7.463  12.188  0.0599 -0.2791  0.4231
42625SOL    HW139600   5.653   7.385  12.150  0.8443  0.5311 -0.4395
42625SOL    HW239601   5.665   7.536  12.156  0.0373  0.5425  2.1098
42626SOL     OW39602   5.428   2.002   2.282 -0.1769 -0.9146  0.2743
42626SOL    HW139603   5.461   1.915   2.306 -1.6861 -1.3302  0.9827
42626SOL    HW239604   5.343   1.984   2.242 -0.7964  0.2964  1.0165
42627SOL     OW39605  12.238  13.670   2.500 -0.4057 -0.2388 -0.1932
42627SOL    HW139606  12.269  13.752   2.462  1.4326 -0.8273 -0.0621
42627SOL    HW239607  12.259  13.603   2.434  1.5630 -1.0820  1.2024
42628SOL     OW39608   1.506  11.330  11.601 -0.0671 -0.4093 -0.2877
42628SOL    HW139609   1.521  11.399  11.537  1.9293  0.4278  0.9833
42628SOL    HW239610   1.484  11.253  11.548  0.0167  0.6084 -1.8697
42629SOL     OW39611   6.319   1.375   1.466 -0.7401 -0.3191  0.0994
42629SOL    HW139612   6.354   1.413   1.546 -0.5952  0.1528 -0.1845
42629SOL    HW239613   6.266   1.301   1.495 -1.3552  0.3444  0.6923
42630SOL     OW39614   6.087   7.496   9.980 -0.5480 -0.0655 -0.0764
42630SOL    HW139615   6.116   7.405   9.986 -0.9197 -0.1328  1.0591
42630SOL    HW239616   6.102   7.521   9.889  2.9310 -0.1308  0.3530
42631SOL     OW39617  11.019   8.198  13.691  0.0123  0.4243  0.2059
42631SOL    HW139618  11.058   8.118  13.656  0.1833 -0.1187  1.5688
42631SOL    HW239619  11.086   8.233  13.750  1.3346  3.3942 -2.7051
42632SOL     OW39620   9.571   3.409   7.622  0.0571  0.2208  0.0699
42632SOL    HW139621   9.483   3.373   7.613  0.3463 -0.4334 -0.1602
42632SOL    HW239622   9.578   3.434   7.714 -0.1011 -0.4165  0.2545
42633SOL     OW39623   7.590   0.558   6.070  0.2883 -0.1382 -0.2434
42633SOL    HW139624   7.496   0.546   6.056  0.4604 -0.8271 -0.8552
42633SOL    HW239625   7.597   0.584   6.162 -0.5987  1.2347 -0.5259
42634SOL     OW39626   9.682   8.307   4.524  0.1325 -0.0991  0.4384
42634SOL    HW139627   9.647   8.238   4.579  0.3659 -1.7884 -1.3897
42634SOL    HW239628   9.710   8.261   4.444 -0.0793  2.1702 -1.0267
42635SOL     OW39629  13.500   8.917  12.327  0.6763  0.4079  0.1433
42635SOL    HW139630  13.473   8.838  12.374  0.8914  0.2512  0.0030
42635SOL    HW239631  13.535   8.885  12.243  1.4197  0.5984  0.3720
42636SOL     OW39632   4.474   4.555   0.264  0.0058 -0.5871 -0.0495
42636SOL    HW139633   4.445   4.528   0.351  0.6866 -2.9989 -0.4733
42636SOL    HW239634   4.570   4.550   0.269  0.1100  0.7765 -0.5094
42637SOL     OW39635   2.167   5.652   5.744  0.2225  0.0448 -0.2542
42637SOL    HW139636   2.204   5.717   5.803  1.9291 -0.8304 -0.3105
42637SOL    HW239637   2.185   5.687   5.656  0.7808 -0.2986 -0.2800
42638SOL     OW39638   8.248  10.443  13.241  0.0712  0.2987  0.2068
42638SOL    HW139639   8.227  10.454  13.334 -0.2786  2.0345 -0.0412
42638SOL    HW239640   8.341  10.463  13.235  0.5769 -1.7085  0.4234
42639SOL     OW39641   3.141  12.310   7.996  0.0106 -0.5669 -0.0099
42639SOL    HW139642   3.171  12.294   8.086 -0.0957 -2.8073 -0.3303
42639SOL    HW239643   3.046  12.300   8.001 -0.0878  0.1784 -0.2345
42640SOL     OW39644   4.713  10.484   4.006 -0.2639  0.2363 -0.0131
42640SOL    HW139645   4.800  10.507   4.037 -0.4451  1.3479 -0.2674
42640SOL    HW239646   4.711  10.514   3.915 -0.5891 -0.6628 -0.3106
42641SOL     OW39647  10.555   5.219   3.161 -0.4106 -0.2034 -0.2399
42641SOL    HW139648  10.460   5.213   3.158 -0.4410 -0.1381  0.5384
42641SOL    HW239649  10.585   5.132   3.187 -0.2493 -0.2486 -0.5644
42642SOL     OW39650   1.687   5.215   8.697  0.5492  0.0050  0.3773
42642SOL    HW139651   1.717   5.125   8.712  0.5370 -0.2948 -1.1826
42642SOL    HW239652   1.746   5.249   8.630  0.1571  0.9515  0.5028
42643SOL     OW39653   8.031   5.118   7.381 -0.2867 -0.3329  0.0680
42643SOL    HW139654   8.088   5.189   7.409 -0.9451  0.8422 -1.4093
42643SOL    HW239655   7.972   5.104   7.455  1.1458 -0.8150  1.1829
42644SOL     OW39656   3.737   9.885   8.636 -0.0654  0.5528  0.6633
42644SOL    HW139657   3.824   9.880   8.674 -0.5833  0.5369  1.8891
42644SOL    HW239658   3.682   9.834   8.696 -0.8089  0.0642 -0.4092
42645SOL     OW39659   9.272  12.983   2.056 -0.4325 -0.1975  0.3315
42645SOL    HW139660   9.265  13.029   1.972  1.6633  0.6077  0.5427
42645SOL    HW239661   9.226  13.040   2.118 -1.3805 -0.4454 -0.1286
42646SOL     OW39662   9.546   6.924   8.686 -0.6327  0.2837 -0.1726
42646SOL    HW139663   9.610   6.965   8.745  0.3722  0.6173 -1.4244
42646SOL    HW239664   9.462   6.961   8.711 -0.1966  0.5763  0.8963
42647SOL     OW39665   3.474   1.811   1.594  0.0355 -0.4019 -0.1944
42647SOL    HW139666   3.519   1.730   1.617 -0.8568 -1.1463 -0.9876
42647SOL    HW239667   3.417   1.787   1.520 -1.5772  0.5068  0.6930
42648SOL     OW39668   1.338   0.623   8.227 -0.2071  0.0305  0.5126
42648SOL    HW139669   1.321   0.715   8.205 -0.2556 -0.1903 -0.3882
42648SOL    HW239670   1.292   0.611   8.311 -0.7974  0.6389  0.2932
42649SOL     OW39671   3.244   2.281   0.003  0.1983  0.4897 -0.0534
42649SOL    HW139672   3.340   2.285   0.004  0.2256  0.7361  2.5339
42649SOL    HW239673   3.221   2.223   0.075 -1.6231  0.5500 -0.5339
42650SOL     OW39674   9.630   8.221   9.021  0.4474  0.0266  0.2278
42650SOL    HW139675   9.636   8.149   9.083 -2.9200  0.0070  0.7142
42650SOL    HW239676   9.687   8.195   8.948  1.1412 -1.9709  1.3961
42651SOL     OW39677   4.108   2.998   0.583  0.1282  0.0596  0.1396
42651SOL    HW139678   4.140   3.035   0.501 -1.5738  1.9527  0.2388
42651SOL    HW239679   4.039   3.058   0.611  0.2518 -0.8453  2.6688
42652SOL     OW39680   3.818  11.191   9.050 -0.0888  0.2742  0.5971
42652SOL    HW139681   3.868  11.138   9.111 -0.5004 -1.7909 -0.7419
42652SOL    HW239682   3.843  11.281   9.069 -0.0507 -0.2791  3.6160
42653SOL     OW39683  10.472   5.779   2.776 -0.0845 -0.4525  0.6834
42653SOL    HW139684  10.400   5.722   2.804 -2.4447  1.8065 -0.3732
42653SOL    HW239685  10.494   5.749   2.688  1.0094 -1.7464  1.3570
42654SOL     OW39686  10.673   0.463   1.238  0.2206 -0.1004 -0.0240
42654SOL    HW139687  10.641   0.524   1.172 -1.3647 -0.3750  0.4506
42654SOL    HW239688  10.679   0.379   1.193 -0.6224 -0.2351  0.0888
42655SOL     OW39689   4.131  13.616   3.669 -0.6992  0.5625  0.1691
42655SOL    HW139690   4.173  13.694   3.632 -1.4339  0.8301 -0.1250
42655SOL    HW239691   4.126  13.634   3.763  0.6323  0.1443  0.3288
42656SOL     OW39692  11.989  12.585  12.962  0.1826  0.1242  0.2121
42656SOL    HW139693  12.064  12.595  13.020 -0.0625  1.9665  0.2550
42656SOL    HW239694  12.005  12.646  12.890 -0.6499 -0.4207 -0.4581
42657SOL     OW39695  10.394   4.931  10.034 -0.1426 -0.3530 -0.4471
42657SOL    HW139696  10.370   4.906  10.123 -1.0752 -2.8508 -1.3121
42657SOL    HW239697  10.356   5.018  10.022 -0.6303 -0.2822  1.3507
42658SOL     OW39698   2.810   9.442   0.905 -0.1072  0.3115 -0.5834
42658SOL    HW139699   2.830   9.534   0.891  0.6668 -0.0445 -2.0870
42658SOL    HW239700   2.896   9.401   0.920 -0.5989  0.1047  2.2155
42659SOL     OW39701   2.297   9.249   9.356 -0.0261 -0.3804 -0.1013
42659SOL    HW139702   2.331   9.203   9.279  0.4693  0.9044 -0.6912
42659SOL    HW239703   2.367   9.309   9.380  0.7984 -2.3182  2.8082
42660SOL     OW39704  13.728   0.994   2.472 -0.0854 -0.4954  0.1657
42660SOL    HW139705  13.659   0.942   2.431 -1.2467  0.0591  1.3285
42660SOL    HW239706  13.752   0.944   2.550  2.2419 -1.6452 -1.2127
42661SOL     OW39707   2.191   5.316   7.918  0.0114  0.4201  0.0239
42661SOL    HW139708   2.158   5.268   7.842 -0.4285  0.2952  0.2891
42661SOL    HW239709   2.154   5.404   7.909 -1.2357 -0.0066  0.8548
42662SOL     OW39710   9.162   0.178   8.591  0.1784  0.3188 -0.2512
42662SOL    HW139711   9.151   0.128   8.672  0.1682 -1.6361 -1.3948
42662SOL    HW239712   9.254   0.204   8.592  1.0589 -2.3952 -0.9820
42663SOL     OW39713   4.995   8.834   9.230 -0.1385  0.3815  0.4573
42663SOL    HW139714   5.001   8.883   9.312 -2.9258  1.6405  0.0367
42663SOL    HW239715   4.988   8.742   9.258 -1.0685  0.7894  1.6631
42664SOL     OW39716  11.615   8.488   9.022 -0.4948  0.4162 -0.1016
42664SOL    HW139717  11.651   8.561   8.972  0.4477  0.6902  0.9242
42664SOL    HW239718  11.520   8.497   9.014 -0.3976  1.7612  0.0174
42665SOL     OW39719   0.244   2.319   9.349  0.2874 -0.6493  0.6147
42665SOL    HW139720   0.203   2.327   9.263  1.3598 -0.9663  0.0521
42665SOL    HW239721   0.233   2.226   9.372 -1.9723 -0.1429  1.8759
42666SOL     OW39722   1.987   4.063   6.441 -0.4933 -0.3903 -0.1566
42666SOL    HW139723   2.057   4.129   6.440 -1.5976  0.9117  2.2064
42666SOL    HW239724   2.032   3.980   6.455  0.7046  0.1593 -0.6090
42667SOL     OW39725   6.606  10.285   7.685  0.0658  0.3803 -0.4649
42667SOL    HW139726   6.596  10.225   7.759  0.9040  0.7497 -0.0282
42667SOL    HW239727   6.569  10.238   7.610 -0.0959 -0.3120  0.0379
42668SOL     OW39728  13.387   4.306   1.131 -0.4268 -0.0434 -0.2553
42668SOL    HW139729  13.406   4.331   1.041 -1.2550 -0.2302 -0.4973
42668SOL    HW239730  13.450   4.355   1.184 -0.6418  0.9243 -0.8637
42669SOL     OW39731  11.278   6.935  10.983 -0.5424  0.2934  0.1187
42669SOL    HW139732  11.364   6.956  10.946  0.1818 -1.7279  0.5543
42669SOL    HW239733  11.250   6.856  10.937 -1.5172  0.0975  1.0020
42670SOL     OW39734   8.252   4.435   7.742  0.0347  0.5227  0.2237
42670SOL    HW139735   8.306   4.512   7.759 -0.5423  1.2944 -1.2678
42670SOL    HW239736   8.227   4.404   7.829  1.5402  1.0877  0.8952
42671SOL     OW39737   6.835   4.271   9.092  0.0800 -0.2980  0.1142
42671SOL    HW139738   6.749   4.298   9.124  0.5908  1.0267  0.4414
42671SOL    HW239739   6.831   4.176   9.089 -0.8940 -0.3322  1.5730
42672SOL     OW39740   0.796  13.667   6.182 -0.0718  0.1755  0.4411
42672SOL    HW139741   0.860  13.707   6.240  1.0946 -0.8313 -0.1236
42672SOL    HW239742   0.713  13.710   6.205  1.1486  3.2883 -0.4566
42673SOL     OW39743  12.124  11.429   8.639  0.5034 -0.1546 -0.6835
42673SOL    HW139744  12.199  11.371   8.623  1.2744  0.2795  1.1097
42673SOL    HW239745  12.056  11.372   8.674  0.7351 -0.2265 -0.3453
42674SOL     OW39746   1.086   5.400  13.682 -0.3806  0.1415 -0.2670
42674SOL    HW139747   1.094   5.379  13.775 -0.2493 -0.2207 -0.3594
42674SOL    HW239748   1.003   5.448  13.675 -0.5315 -0.0830 -0.0057
42675SOL     OW39749  10.848  10.263   6.165  0.0549  0.2689 -0.1644
42675SOL    HW139750  10.839  10.341   6.219  0.3425  0.0464  0.2104
42675SOL    HW239751  10.797  10.282   6.086 -1.7846 -0.0662  0.8919
42676SOL     OW39752   7.778   9.175  10.422  0.4724 -0.3718  0.5913
42676SOL    HW139753   7.690   9.139  10.413  0.1812  0.4671 -0.1067
42676SOL    HW239754   7.825   9.142  10.345 -0.1775  1.7256 -0.7837
42677SOL     OW39755   6.301  11.839   0.167  0.1018 -0.0452  0.0521
42677SOL    HW139756   6.285  11.932   0.156  0.7659 -0.0077 -0.6667
42677SOL    HW239757   6.217  11.797   0.149  0.0415  0.3468 -0.5888
42678SOL     OW39758  10.225   6.376   4.443 -0.0395  0.1497 -0.1527
42678SOL    HW139759  10.318   6.394   4.430  0.0234  1.2991  1.5981
42678SOL    HW239760  10.211   6.391   4.537 -1.6475 -1.6359 -0.0533
42679SOL     OW39761  10.373  13.378  11.729 -0.2233  0.1339 -0.2053
42679SOL    HW139762  10.402  13.447  11.669  0.7954 -0.0299  0.0890
42679SOL    HW239763  10.453  13.347  11.771 -0.4497 -2.1445 -1.2884
42680SOL     OW39764   8.724   2.354   6.150 -0.1496  0.1452  0.3672
42680SOL    HW139765   8.699   2.263   6.132 -2.9689  0.8484  0.4046
42680SOL    HW239766   8.749   2.353   6.243 -0.0530 -0.5785  0.3463
42681SOL     OW39767  12.490   8.756   2.800 -0.6874 -0.4906 -0.2144
42681SOL    HW139768  12.417   8.737   2.859  0.2473 -1.5027  0.6614
42681SOL    HW239769  12.542   8.822   2.846 -0.7240 -0.2001 -0.5786
42682SOL     OW39770   8.582  10.172   6.302 -0.0283  0.2534 -0.4400
42682SOL    HW139771   8.647  10.225   6.257 -0.0237  0.7930  0.1990
42682SOL    HW239772   8.559  10.222   6.380 -0.3470 -0.4753 -0.0542
42683SOL     OW39773   1.999   9.967   6.977  0.2862  0.4875 -0.7107
42683SOL    HW139774   1.952   9.887   7.001  1.1880  0.2135  0.2347
42683SOL    HW239775   1.933  10.036   6.983  0.3395  0.4248  2.5222
42684SOL     OW39776  11.835   5.646   6.424 -0.3867 -0.0788 -0.1416
42684SOL    HW139777  11.813   5.570   6.370 -1.7258 -0.4669  0.8730
42684SOL    HW239778  11.918   5.624   6.464 -1.6842 -1.9827  1.7132
42685SOL     OW39779   9.272   3.771  11.156 -0.0784  0.4429  0.1955
42685SOL    HW139780   9.359   3.806  11.136 -0.3128  0.9529  0.0452
42685SOL    HW239781   9.249   3.810  11.240  0.2103 -0.3983  0.6730
42686SOL     OW39782   1.124   0.855   8.914 -0.5879 -0.1124  0.1016
42686SOL    HW139783   1.084   0.932   8.954  1.5181  2.2424 -2.0029
42686SOL    HW239784   1.190   0.827   8.977  0.5499  1.5969 -0.2790
42687SOL     OW39785   2.727   5.900   7.280 -0.1638  0.0187 -0.9730
42687SOL    HW139786   2.682   5.934   7.202  0.5395  1.4614 -0.7835
42687SOL    HW239787   2.818   5.891   7.253 -0.0460 -0.1341 -0.5293
42688SOL     OW39788  10.331   5.152   5.377 -0.3241  0.0549  0.2835
42688SOL    HW139789  10.267   5.162   5.447 -0.3425  0.4154  0.2188
42688SOL    HW239790  10.334   5.238   5.335 -0.3941 -0.1868 -0.2270
42689SOL     OW39791   2.619   1.254   0.569 -0.3283 -0.3410  0.3740
42689SOL    HW139792   2.684   1.184   0.571  1.9319  1.5486 -1.3118
42689SOL    HW239793   2.583   1.250   0.480 -1.6736 -0.5822  0.9054
42690SOL     OW39794   8.274  10.561  12.516  0.3473 -0.3178 -0.2844
42690SOL    HW139795   8.264  10.586  12.608  1.5785 -0.8266  0.0115
42690SOL    HW239796   8.266  10.643  12.468 -1.1564 -0.1527  0.1818
42691SOL     OW39797   7.956   2.333   7.952  0.5620  0.5583 -0.2356
42691SOL    HW139798   7.871   2.290   7.963  0.3268  0.7527 -1.2108
42691SOL    HW239799   8.012   2.292   8.018 -0.2994  0.4702  0.4591
42692SOL     OW39800   0.724   1.950  10.484  0.5681 -0.1165 -0.9530
42692SOL    HW139801   0.646   1.974  10.535 -0.0411 -0.2829 -1.7812
42692SOL    HW239802   0.779   2.028  10.486  0.3853  0.0012 -0.3567
42693SOL     OW39803   0.468  10.438   4.018 -0.5152 -0.8397  0.4099
42693SOL    HW139804   0.405  10.478   3.958 -0.9518 -0.9193  0.8048
42693SOL    HW239805   0.441  10.469   4.105  0.0344 -0.8223  0.5785
42694SOL     OW39806   7.903   7.692  12.398  0.0555 -0.3969 -0.9371
42694SOL    HW139807   7.864   7.654  12.319 -3.0340 -0.3375  0.4192
42694SOL    HW239808   7.836   7.681  12.465  2.8554 -1.1646  1.9599
42695SOL     OW39809   9.249   0.835   4.053  0.8591  0.3789 -0.2934
42695SOL    HW139810   9.279   0.911   4.004 -1.0251  1.0313 -0.4947
42695SOL    HW239811   9.176   0.800   4.002  1.1900 -1.1263  0.1894
42696SOL     OW39812   2.377  10.034   0.033 -0.0381 -0.1545  0.5835
42696SOL    HW139813   2.297  10.088   0.034 -0.3531 -0.4253 -1.8846
42696SOL    HW239814   2.442  10.090  -0.010  0.8775 -0.2602  1.7971
42697SOL     OW39815  13.693   1.954   0.728 -0.2636 -0.5198 -0.7295
42697SOL    HW139816  13.759   1.892   0.697  0.2491 -0.0582 -0.5588
42697SOL    HW239817  13.741   2.019   0.778 -0.6297  0.6300 -1.7988
42698SOL     OW39818  13.624   5.136  11.722  0.5282  0.1510 -0.5058
42698SOL    HW139819  13.692   5.189  11.765  0.8764  0.3921 -1.3321
42698SOL    HW239820  13.645   5.141  11.629 -0.5010  0.0453 -0.7573
42699SOL     OW39821   3.900   3.710   0.617 -0.3819  0.4145  0.2562
42699SOL    HW139822   3.916   3.631   0.669 -0.1866  0.0491 -0.3491
42699SOL    HW239823   3.906   3.680   0.526 -2.2402  0.7286 -0.0029
42700SOL     OW39824   3.495  13.068   4.911  0.0103 -0.2461  0.5919
42700SOL    HW139825   3.431  13.025   4.969  0.1869 -1.8751 -0.3572
42700SOL    HW239826   3.527  12.998   4.855  1.8772  0.7455  0.3385
42701SOL     OW39827  13.743   4.348   2.596 -0.3289  0.5186 -0.6748
42701SOL    HW139828  13.746   4.352   2.691  0.4754  0.9142 -0.7062
42701SOL    HW239829  13.825   4.389   2.567  0.0484 -0.7419 -1.5053
42702SOL     OW39830   7.271  12.689   1.211  0.1226  0.0980 -0.1507
42702SOL    HW139831   7.230  12.644   1.138 -1.9557  0.6374  0.6096
42702SOL    HW239832   7.233  12.777   1.210  2.0579  0.9897  0.0195
42703SOL     OW39833   0.531   1.676   7.016 -0.5267  0.0409  0.1623
42703SOL    HW139834   0.471   1.687   7.090  0.3881  2.2168  0.6649
42703SOL    HW239835   0.575   1.760   7.008  1.6867 -1.1182 -0.8808
42704SOL     OW39836   0.111   8.697  12.023 -0.4013  0.1314  0.2385
42704SOL    HW139837   0.158   8.775  12.052 -1.1921 -0.0202  2.0955
42704SOL    HW239838   0.166   8.624  12.052  0.2503 -0.0497 -1.3377
42705SOL     OW39839   5.677   4.759   3.254  0.1424  0.7093  0.4839
42705SOL    HW139840   5.609   4.699   3.225  0.7225 -0.0884  0.7287
42705SOL    HW239841   5.637   4.846   3.248 -0.7127  0.3038  0.1296
42706SOL     OW39842  13.111   2.041   0.781  0.0601  0.0479 -0.1902
42706SOL    HW139843  13.105   2.136   0.770  0.7504  0.5126  2.6153
42706SOL    HW239844  13.191   2.016   0.734  1.2819  1.3189  1.1148
42707SOL     OW39845   5.344   2.585   8.836 -0.2248  0.6129 -0.1909
42707SOL    HW139846   5.339   2.679   8.823  0.4061  0.4486 -1.9643
42707SOL    HW239847   5.438   2.566   8.837 -0.3084  0.1283  1.4442
42708SOL     OW39848   8.600   0.366  12.669  0.3812  0.4467 -0.2991
42708SOL    HW139849   8.591   0.327  12.756  1.4365  0.8493  0.0050
42708SOL    HW239850   8.543   0.442  12.671 -1.9216 -1.1467 -0.9898
42709SOL     OW39851  11.396   9.483   6.336  0.2791  0.2672  0.1502
42709SOL    HW139852  11.474   9.480   6.392 -1.1065 -1.9090  2.1726
42709SOL    HW239853  11.429   9.461   6.249  2.0185 -0.0764  0.8426
42710SOL     OW39854  11.274  11.239   4.034 -0.0375 -0.6636 -0.0160
42710SOL    HW139855  11.302  11.206   3.948 -1.5182  0.2835 -0.8894
42710SOL    HW239856  11.298  11.331   4.034 -0.1892 -0.6197  0.5383
42711SOL     OW39857   7.786   1.585   1.767 -0.2089  0.3461 -0.1166
42711SOL    HW139858   7.817   1.625   1.849 -2.7392  1.8258  0.2561
42711SOL    HW239859   7.859   1.592   1.707  1.6535 -0.5538  1.9197
42712SOL     OW39860   5.270   7.129   7.961 -0.1698  0.0836 -0.2287
42712SOL    HW139861   5.296   7.047   8.001  0.3960  0.0226 -0.7134
42712SOL    HW239862   5.273   7.193   8.033 -1.1893 -0.4237  0.2781
42713SOL     OW39863   6.566   1.756   5.554 -0.7993  0.0104 -0.1781
42713SOL    HW139864   6.494   1.697   5.533  1.4146 -2.3914 -1.6864
42713SOL    HW239865   6.577   1.810   5.477 -1.7019  1.2345  0.5224
42714SOL     OW39866  10.515  10.391  10.876  0.1386  0.4094 -0.8479
42714SOL    HW139867  10.590  10.429  10.831  0.2266 -0.4019 -1.4184
42714SOL    HW239868  10.439  10.427  10.830  0.2191  0.0311 -1.2912
42715SOL     OW39869  13.419   2.851   7.770 -0.0065 -0.6276  0.3731
42715SOL    HW139870  13.478   2.794   7.721  0.4054  0.3982 -0.3663
42715SOL    HW239871  13.333   2.837   7.730  0.6722  1.9296 -2.4416
42716SOL     OW39872   0.014   8.884  13.353  0.6335  0.3209 -0.0523
42716SOL    HW139873  -0.024   8.825  13.418 -0.4980  0.6513 -0.3904
42716SOL    HW239874   0.013   8.970  13.395  1.2974  0.2924  0.0407
42717SOL     OW39875  10.138   0.829  10.729  0.5735 -0.2218  0.5557
42717SOL    HW139876  10.212   0.771  10.746  0.5533  0.0836  1.7459
42717SOL    HW239877  10.176   0.906  10.688  0.9268 -0.0320  1.2363
42718SOL     OW39878   2.791  12.085  11.812  0.1442  0.6233 -0.3928
42718SOL    HW139879   2.805  11.991  11.822 -0.1307  0.5421 -0.7156
42718SOL    HW239880   2.793  12.100  11.717  1.5895  1.1748 -0.2962
42719SOL     OW39881   7.940   9.883  10.579  0.1710 -0.0507  0.4520
42719SOL    HW139882   7.958   9.810  10.520 -0.5936  0.5878 -0.5952
42719SOL    HW239883   7.943   9.844  10.667 -1.1097 -1.5325 -0.1333
42720SOL     OW39884   0.389  11.390   1.877  0.1343  0.1267  0.4894
42720SOL    HW139885   0.427  11.308   1.908  0.8445  0.8504  1.6074
42720SOL    HW239886   0.457  11.430   1.823 -0.1500  0.0641  0.0779
42721SOL     OW39887   3.873   0.794  12.274  0.2364  0.2129 -0.0854
42721SOL    HW139888   3.883   0.856  12.346 -1.7753  0.6962 -0.1630
42721SOL    HW239889   3.950   0.810  12.218  1.7115 -0.0146  1.7638
42722SOL     OW39890   4.629   9.903  12.739  0.2212  0.1596 -0.0265
42722SOL    HW139891   4.644   9.819  12.783 -2.0732 -0.4987 -0.3539
42722SOL    HW239892   4.708   9.917  12.686  1.3876 -0.9147  1.3433
42723SOL     OW39893   0.975  12.876  12.766  0.2687 -0.2866 -0.4684
42723SOL    HW139894   0.972  12.803  12.828  0.3934  0.2092  0.1378
42723SOL    HW239895   0.884  12.892  12.743  0.3002 -1.1502 -1.2334
42724SOL     OW39896   0.974   4.838   7.059 -0.4358  0.2450 -0.0083
42724SOL    HW139897   0.912   4.840   6.987 -0.7479 -0.7899  0.2055
42724SOL    HW239898   1.060   4.850   7.017 -0.5268 -1.1826 -0.6997
42725SOL     OW39899   9.212   3.288  11.089  0.3183  0.2724  0.1815
42725SOL    HW139900   9.267   3.223  11.046 -0.7943 -1.0101  0.6484
42725SOL    HW239901   9.274   3.356  11.118  1.5969 -0.8719  0.2602
42726SOL     OW39902   1.205   1.665   7.334 -0.6516  0.5312  0.3327
42726SOL    HW139903   1.204   1.570   7.318  0.6186  0.2722  1.6312
42726SOL    HW239904   1.115   1.685   7.362 -0.8268 -0.3722  0.4483
42727SOL     OW39905   4.228  10.948  11.837 -0.2982  0.6999  0.4045
42727SOL    HW139906   4.276  11.028  11.815  0.5245  0.1817  0.2640
42727SOL    HW239907   4.248  10.933  11.930 -3.4407  2.6679  1.5741
42728SOL     OW39908   5.811  13.564  12.104  0.5263 -0.2285  0.3338
42728SOL    HW139909   5.756  13.625  12.154  1.9155  0.4565  1.0999
42728SOL    HW239910   5.832  13.611  12.023  1.9217  0.5476  1.0931
42729SOL     OW39911   5.466   4.593   1.768 -0.7598 -0.0637  0.1154
42729SOL    HW139912   5.398   4.656   1.743  0.9316  1.2894 -1.2741
42729SOL    HW239913   5.420   4.509   1.772 -3.0588  1.1334  1.8217
42730SOL     OW39914   2.581  13.492   6.246  0.4166 -0.0799 -0.2195
42730SOL    HW139915   2.537  13.408   6.255  2.2569 -1.1212 -0.5008
42730SOL    HW239916   2.609  13.515   6.335  0.5484 -0.1387 -0.2448
42731SOL     OW39917   4.943   5.042   1.011  0.6689  0.2383 -0.1900
42731SOL    HW139918   4.997   5.026   1.088  0.5281  1.2786  0.1358
42731SOL    HW239919   4.958   5.133   0.989 -0.6874  0.4646 -0.2929
42732SOL     OW39920  12.660   2.282   1.165 -0.7092  0.2512  0.3143
42732SOL    HW139921  12.602   2.227   1.218 -2.6716  2.9281  1.1423
42732SOL    HW239922  12.610   2.302   1.086  0.6152 -0.4091 -0.7316
42733SOL     OW39923   2.969   8.136   5.131  0.0810 -0.2980 -1.1649
42733SOL    HW139924   2.914   8.164   5.058 -0.3570  0.6143 -0.5012
42733SOL    HW239925   3.022   8.213   5.152 -1.8295  0.4878  1.3203
42734SOL     OW39926   3.081   8.295   2.528 -0.2971  0.1379 -0.0883
42734SOL    HW139927   3.100   8.331   2.615 -0.7814 -2.0953  1.0263
42734SOL    HW239928   3.116   8.359   2.467 -1.0301  2.3965  1.7158
42735SOL     OW39929   8.933   9.342   9.924  0.2272 -0.3135 -0.1556
42735SOL    HW139930   8.963   9.252   9.927  1.6158  0.1551  0.9690
42735SOL    HW239931   8.887   9.349   9.840 -1.2167 -2.4342  0.3801
42736SOL     OW39932  11.132   1.615  10.556 -0.5150  0.1663 -0.2038
42736SOL    HW139933  11.079   1.585  10.630 -1.0598  0.4156 -0.4790
42736SOL    HW239934  11.122   1.711  10.557  1.1030  0.3571  0.5904
42737SOL     OW39935  12.981  11.695   3.799 -0.2541 -0.5386 -0.4385
42737SOL    HW139936  13.046  11.660   3.739  0.5941 -0.8784  0.6339
42737SOL    HW239937  12.998  11.789   3.801 -0.2665 -0.5301 -0.7080
42738SOL     OW39938   8.901   0.407  12.704  0.3181  0.0445  0.5381
42738SOL    HW139939   8.816   0.417  12.746 -0.0322 -1.4625  0.2577
42738SOL    HW239940   8.894   0.458  12.623 -0.7938 -1.0535 -0.1025
42739SOL     OW39941  11.039   1.159   2.955 -0.2486 -0.3011 -0.2613
42739SOL    HW139942  11.045   1.130   3.046  1.2917 -0.6351 -0.4317
42739SOL    HW239943  10.992   1.242   2.959  2.1032  1.0709  1.1967
42740SOL     OW39944   0.696  11.563  11.047  0.0978 -0.7031  0.0547
42740SOL    HW139945   0.664  11.577  11.136  0.0112  1.9392 -0.3364
42740SOL    HW239946   0.624  11.591  10.991  0.5862 -1.2380 -0.8647
42741SOL     OW39947  10.355   7.235   9.231 -0.5229  0.0463 -0.0540
42741SOL    HW139948  10.435   7.267   9.188 -0.0987 -1.1483 -0.1741
42741SOL    HW239949  10.328   7.160   9.179  0.6760 -2.2231  2.3581
42742SOL     OW39950  10.608   5.860   0.642 -0.2173 -0.4111 -0.7368
42742SOL    HW139951  10.692   5.833   0.679 -0.5318 -1.7339 -0.9201
42742SOL    HW239952  10.630   5.892   0.554  0.3127  1.0995 -0.0859
42743SOL     OW39953  11.877   5.134   2.465  0.3542 -0.1370  0.0697
42743SOL    HW139954  11.924   5.212   2.496 -1.4222  0.8296  0.4864
42743SOL    HW239955  11.930   5.060   2.496  2.2213  0.8711 -0.5533
42744SOL     OW39956  13.698   6.882   3.654  0.3358 -0.0366 -0.3319
42744SOL    HW139957  13.784   6.921   3.671  1.8575 -3.0761 -0.4068
42744SOL    HW239958  13.652   6.888   3.738  1.4808 -0.3610  0.3428
42745SOL     OW39959  13.505   7.323  12.984  0.4905 -0.6105  0.2337
42745SOL    HW139960  13.490   7.319  13.078  0.3376  0.2477  0.2567
42745SOL    HW239961  13.448   7.256  12.947 -0.9490  0.3715  0.5940
42746SOL     OW39962   9.837  10.205  12.375  0.0873  0.2376 -1.0170
42746SOL    HW139963   9.807  10.218  12.285  1.3124 -1.5635 -1.7585
42746SOL    HW239964   9.810  10.115  12.396  0.2310  0.4702  0.2541
42747SOL     OW39965   9.062   7.923   8.229  0.4180 -0.2563 -0.1507
42747SOL    HW139966   9.091   7.952   8.143 -0.0413  1.4481  0.2276
42747SOL    HW239967   8.986   7.978   8.249  0.8251 -0.2273  1.5429
42748SOL     OW39968  13.592   1.902   4.420  0.5540 -0.6834  0.8285
42748SOL    HW139969  13.586   1.977   4.479 -0.4976 -2.1201  2.6821
42748SOL    HW239970  13.537   1.925   4.345  2.2068  1.3360  0.1329
42749SOL     OW39971   3.730  11.095   2.502 -0.1432  1.0753  0.2989
42749SOL    HW139972   3.723  11.000   2.488  0.2290  0.8449  1.4986
42749SOL    HW239973   3.639  11.124   2.510 -0.2361  0.5847  1.2186
42750SOL     OW39974   0.719   0.112   4.506 -0.6053  0.2159 -0.1561
42750SOL    HW139975   0.746   0.197   4.541 -2.1463  0.4962  0.4375
42750SOL    HW239976   0.779   0.049   4.547  1.4689  1.0858 -1.6537
42751SOL     OW39977   6.168   7.619  10.529 -0.1449 -0.2811  0.0200
42751SOL    HW139978   6.173   7.612  10.434  2.6411  2.4582 -0.1791
42751SOL    HW239979   6.183   7.530  10.561 -1.8582 -1.3895 -2.0365
42752SOL     OW39980   9.492   3.710   9.168  0.1250  0.1113 -0.0317
42752SOL    HW139981   9.432   3.761   9.114  1.9543  1.8927 -0.5348
42752SOL    HW239982   9.488   3.621   9.133 -1.4578  0.4030 -0.6512
42753SOL     OW39983  12.980   7.879  11.131  0.3411 -0.9409  0.3292
42753SOL    HW139984  13.010   7.822  11.060  1.3161 -0.8164  0.6255
42753SOL    HW239985  12.922   7.942  11.089  1.1004 -0.7196 -0.3923
42754SOL     OW39986   8.342   5.114  12.072  0.2192  0.5380  0.0920
42754SOL    HW139987   8.400   5.045  12.103 -1.2377 -0.7011  0.1889
42754SOL    HW239988   8.400   5.180  12.035  1.7368 -0.0693  1.2889
42755SOL     OW39989  13.435   3.727   3.177 -0.4080  0.0818 -0.4903
42755SOL    HW139990  13.427   3.631   3.176  1.6425 -0.1286 -0.6850
42755SOL    HW239991  13.345   3.758   3.182 -1.2756 -1.8239 -2.3472
42756SOL     OW39992  12.804   3.569   2.057  0.2750 -0.3101 -0.1671
42756SOL    HW139993  12.765   3.503   2.000 -4.0059  1.9730 -0.2416
42756SOL    HW239994  12.747   3.571   2.134  1.9352  1.3910  1.1071
42757SOL     OW39995   9.115  10.603   8.275  0.3721 -0.3506 -0.2830
42757SOL    HW139996   9.080  10.519   8.306 -0.4276  0.1103  0.0969
42757SOL    HW239997   9.089  10.666   8.343  2.4075 -0.0684  0.2885
42758SOL     OW39998  12.591   1.882   8.173 -0.5225  0.4922 -0.2791
42758SOL    HW139999  12.652   1.812   8.148 -1.8071 -0.3918 -1.0392
42758SOL    HW240000  12.604   1.950   8.107  1.2371  1.3390  0.8610
42759SOL     OW40001   3.689   1.682  12.627 -0.4735  0.1561  0.4412
42759SOL    HW140002   3.720   1.702  12.715  0.3179 -0.6374  0.3566
42759SOL    HW240003   3.745   1.734  12.569 -1.5913  1.3810  0.4350
42760SOL     OW40004   0.737   9.618  10.554 -0.1486 -0.4519  0.1078
42760SOL    HW140005   0.695   9.618  10.468  1.0850  0.2143 -0.5394
42760SOL    HW240006   0.768   9.529  10.566  0.1737 -0.4141 -0.4118
42761SOL     OW40007   7.974  10.441   8.922 -0.0176 -0.1954 -0.5595
42761SOL    HW140008   7.879  10.451   8.931  0.1147  0.5550  0.1902
42761SOL    HW240009   8.003  10.522   8.879  0.2964 -0.3597 -0.6630
42762SOL     OW40010  11.185   4.065   8.214 -0.0723  0.6836  0.1918
42762SOL    HW140011  11.155   4.069   8.123  1.9906  1.5476 -0.5168
42762SOL    HW240012  11.188   4.156   8.242  0.9396  0.5713  0.5098
42763SOL     OW40013   1.869   8.389   1.973  0.4229 -0.0955 -0.2269
42763SOL    HW140014   1.937   8.324   1.993  0.6044  0.0668 -0.3162
42763SOL    HW240015   1.860   8.385   1.878  0.7259  0.3035 -0.2725
42764SOL     OW40016   9.782   4.713  11.654 -0.2089 -1.0786 -0.9456
42764SOL    HW140017   9.791   4.774  11.727  0.8936 -1.3729 -0.8224
42764SOL    HW240018   9.871   4.684  11.635 -0.6089 -1.9151 -1.6348
42765SOL     OW40019  10.052   3.432   6.523  0.2396 -0.0742 -0.9213
42765SOL    HW140020  10.084   3.397   6.606  0.1308  0.0979 -0.8085
42765SOL    HW240021   9.984   3.494   6.547 -0.6523 -0.9173 -1.1799
42766SOL     OW40022   5.067  11.522   5.072  0.2122 -0.0813  0.6300
42766SOL    HW140023   5.132  11.550   5.008 -0.1164 -0.4909  0.1086
42766SOL    HW240024   5.118  11.498   5.149  0.5869  0.7336  0.6494
42767SOL     OW40025   2.075   2.347   3.859 -0.5600 -0.2378 -0.1782
42767SOL    HW140026   2.011   2.396   3.909 -0.4944  0.4481 -0.7450
42767SOL    HW240027   2.134   2.311   3.924  0.4443  1.9263  0.2225
42768SOL     OW40028  13.108   8.546   8.201 -0.1646 -0.4718  0.4112
42768SOL    HW140029  13.137   8.487   8.270  1.0586 -0.4890 -0.0856
42768SOL    HW240030  13.015   8.527   8.190  0.0814 -1.9042  0.6447
42769SOL     OW40031   1.472  12.116   8.777  0.3453 -0.2235 -0.2470
42769SOL    HW140032   1.509  12.055   8.841 -1.7825 -0.2668  1.0545
42769SOL    HW240033   1.524  12.103   8.698  0.6205 -3.0030  0.2911
42770SOL     OW40034   1.003  10.364   6.661 -0.1422  0.4581 -0.0250
42770SOL    HW140035   0.915  10.399   6.678  0.8183  2.4942  1.2065
42770SOL    HW240036   1.047  10.433   6.612  0.1444 -1.4723 -2.6741
42771SOL     OW40037  11.495   1.917   5.676 -0.1216  0.1525 -0.1577
42771SOL    HW140038  11.558   1.907   5.748 -0.6532 -0.2910  0.2570
42771SOL    HW240039  11.410   1.920   5.719 -0.4395  0.0040 -0.7611
42772SOL     OW40040  11.521   2.217   5.820 -0.2847 -0.2749 -0.0374
42772SOL    HW140041  11.533   2.170   5.902 -0.4621 -2.5901 -1.2583
42772SOL    HW240042  11.609   2.244   5.795  0.0530 -1.3141 -0.0294
42773SOL     OW40043   6.779   0.518   8.999  0.5903  0.0642  0.9716
42773SOL    HW140044   6.781   0.423   8.995 -0.9034 -0.0091  1.3436
42773SOL    HW240045   6.869   0.545   8.981  0.1928 -1.1639 -4.4185
42774SOL     OW40046   2.806  13.108   2.377  0.0155  0.0600  0.1043
42774SOL    HW140047   2.797  13.066   2.291 -0.9335  0.3807  0.0400
42774SOL    HW240048   2.792  13.038   2.440 -0.2983  0.0291 -0.0001
42775SOL     OW40049  11.419   6.350  13.271 -0.3654  0.5185  0.0658
42775SOL    HW140050  11.452   6.380  13.186  0.6383  0.5427  0.4524
42775SOL    HW240051  11.354   6.283  13.249  1.6599 -1.2927 -0.7102
42776SOL     OW40052   5.285   2.934  13.291  0.2479 -0.0669 -0.2697
42776SOL    HW140053   5.216   2.917  13.355 -1.0744  3.7103 -0.4356
42776SOL    HW240054   5.363   2.948  13.345  0.1853 -1.1736  0.1474
42777SOL     OW40055   2.405   7.149   9.846  0.1818 -0.2571  0.4415
42777SOL    HW140056   2.370   7.228   9.805  0.0152 -1.2646 -1.4714
42777SOL    HW240057   2.404   7.168   9.940 -1.7487  1.2484  0.1762
42778SOL     OW40058  11.815   0.218   2.746  0.1834 -0.3690  0.4397
42778SOL    HW140059  11.791   0.271   2.823  0.2971  0.4372 -0.0700
42778SOL    HW240060  11.851   0.137   2.783 -1.5545 -0.8183  1.2270
42779SOL     OW40061   3.180  12.281  13.436 -0.1226 -0.2729  0.4086
42779SOL    HW140062   3.093  12.272  13.476  0.5152  0.9338  2.2173
42779SOL    HW240063   3.229  12.206  13.470 -0.1030 -0.2821  0.3597
42780SOL     OW40064   5.367   4.674   8.401  0.7555 -0.8138 -0.0378
42780SOL    HW140065   5.272   4.689   8.406  0.3919 -2.5445 -0.8844
42780SOL    HW240066   5.400   4.700   8.487 -0.4719 -0.0777  0.2391
42781SOL     OW40067  13.371   9.112   9.412  0.2980  0.0794  0.1439
42781SOL    HW140068  13.361   9.207   9.410 -0.4616 -0.0129 -1.1013
42781SOL    HW240069  13.422   9.092   9.334  0.5715 -0.5344  0.4760
42782SOL     OW40070   2.185  11.299   9.805 -0.5590 -0.1113 -0.5397
42782SOL    HW140071   2.200  11.235   9.735 -0.0252  0.4469 -0.9448
42782SOL    HW240072   2.137  11.370   9.763 -2.9325 -1.0896  0.3482
42783SOL     OW40073   9.119   2.945   0.100  0.1960  0.1352  0.4919
42783SOL    HW140074   9.060   3.018   0.119 -0.9733 -1.0861  1.7698
42783SOL    HW240075   9.191   2.985   0.050 -1.8365  1.6456 -1.4413
42784SOL     OW40076   1.444   0.038   3.877 -0.3341  0.0999 -0.3677
42784SOL    HW140077   1.432   0.020   3.784 -2.2279 -1.1244  0.0429
42784SOL    HW240078   1.364   0.004   3.918  1.5851 -1.9320  1.9991
42785SOL     OW40079   8.906   4.328   6.943  0.0155  0.0835 -0.5213
42785SOL    HW140080   8.966   4.319   7.018  0.9406  0.6336 -1.1706
42785SOL    HW240081   8.893   4.423   6.935 -0.5802 -0.0118 -0.6760
42786SOL     OW40082  13.254   8.315  11.586 -0.6307 -0.2939 -0.2857
42786SOL    HW140083  13.204   8.350  11.512 -0.6156 -0.6548 -0.4683
42786SOL    HW240084  13.336   8.365  11.585 -0.9461  0.2356 -0.0413
42787SOL     OW40085   5.484   8.808  11.158  0.2400  0.2051 -0.1368
42787SOL    HW140086   5.430   8.732  11.139  1.3592 -1.0604  1.4738
42787SOL    HW240087   5.440   8.851  11.231  0.5013  0.1621  0.0455
42788SOL     OW40088   2.368  11.076   3.855  0.2788 -0.2432 -0.1819
42788SOL    HW140089   2.350  10.982   3.852 -1.8296  0.1010  0.4072
42788SOL    HW240090   2.284  11.117   3.838  1.3039  1.5670 -1.0969
42789SOL     OW40091  12.586   2.598  12.675  0.6864 -0.2705  0.1171
42789SOL    HW140092  12.493   2.621  12.665  0.6956  0.1498  0.8901
42789SOL    HW240093  12.621   2.602  12.587  0.3903  1.4927  0.0413
42790SOL     OW40094  11.381  10.737  10.475 -0.3688 -0.2935 -0.2243
42790SOL    HW140095  11.302  10.684  10.468 -1.5158  1.1051  1.3125
42790SOL    HW240096  11.417  10.740  10.386 -0.4031 -3.3038 -0.4386
42791SOL     OW40097  10.017   0.685   3.310  0.3343  0.1177 -0.3561
42791SOL    HW140098  10.085   0.619   3.321  0.1626 -0.0134 -0.0568
42791SOL    HW240099  10.007   0.694   3.215 -1.6497 -2.3886 -0.5029
42792SOL     OW40100  11.259  11.181  11.160  0.2472 -0.1732 -0.3468
42792SOL    HW140101  11.311  11.122  11.104  0.5332  1.2168 -1.5907
42792SOL    HW240102  11.187  11.210  11.104  0.0254  0.5477  0.3041
42793SOL     OW40103   1.650   5.374   8.940  0.6774  0.3739  0.1823
42793SOL    HW140104   1.665   5.303   8.878  2.4312 -0.2261  1.2073
42793SOL    HW240105   1.730   5.427   8.937 -0.7100  2.5853 -0.8102
42794SOL     OW40106  11.137   8.797   4.513 -0.4190  0.2951 -0.0042
42794SOL    HW140107  11.077   8.851   4.461 -0.5488  2.0966  1.8748
42794SOL    HW240108  11.079   8.733   4.556 -0.6164  0.2517 -0.3300
42795SOL     OW40109  10.007   5.482  13.705 -0.4965  0.5002  0.6223
42795SOL    HW140110  10.095   5.470  13.738 -0.1484  0.7934 -0.1743
42795SOL    HW240111   9.983   5.396  13.670  0.3150  0.9387 -1.1074
42796SOL     OW40112  13.526   4.492   4.613 -0.1083  0.0595  0.0431
42796SOL    HW140113  13.535   4.586   4.627  0.5616  0.3687 -2.1062
42796SOL    HW240114  13.612   4.457   4.637  0.4204  0.3323 -1.3939
42797SOL     OW40115   5.340   3.438  12.738 -0.4002 -0.2285  0.0573
42797SOL    HW140116   5.337   3.497  12.662  0.6196  1.9467  1.6018
42797SOL    HW240117   5.330   3.496  12.813 -1.5341 -2.3438  1.6128
42798SOL     OW40118   4.118  13.407   3.504 -0.4749 -0.0230 -0.0273
42798SOL    HW140119   4.029  13.378   3.487 -0.4761 -0.6925  1.0144
42798SOL    HW240120   4.109  13.474   3.572 -0.1389 -0.6225  0.6202
42799SOL     OW40121   6.565   7.781   7.748 -0.3405 -0.2203  0.0008
42799SOL    HW140122   6.541   7.732   7.826 -1.9705  0.0350 -0.3073
42799SOL    HW240123   6.638   7.732   7.710 -0.4144 -1.0867  0.9513
42800SOL     OW40124  10.098  11.451   5.720  0.0962 -0.4782 -0.3736
42800SOL    HW140125  10.099  11.377   5.781 -2.7395  0.4075  0.9268
42800SOL    HW240126  10.102  11.528   5.777 -0.2257  0.3824 -1.4842
42801SOL     OW40127   2.304   5.161  13.089 -0.5475 -0.0028  0.0952
42801SOL    HW140128   2.337   5.231  13.145  2.3836 -1.3978  0.2880
42801SOL    HW240129   2.216   5.142  13.124  0.0532  1.0455  2.3937
42802SOL     OW40130   9.974   4.253   2.346  0.1462 -0.3314 -0.6088
42802SOL    HW140131   9.879   4.252   2.344 -0.0532 -1.0807  3.1836
42802SOL    HW240132   9.997   4.341   2.313 -1.7885 -0.0663 -1.4094
42803SOL     OW40133   8.291  12.422  11.337 -0.2988  0.4423  0.7297
42803SOL    HW140134   8.255  12.447  11.252 -0.6554 -0.5999  0.5592
42803SOL    HW240135   8.374  12.378  11.316 -0.9863 -0.9452  0.8073
42804SOL     OW40136  11.425   6.907  12.858  0.0754  0.1186 -0.0125
42804SOL    HW140137  11.345   6.914  12.805  0.1884 -1.6423 -0.4759
42804SOL    HW240138  11.403   6.842  12.925  0.5751  0.9042  0.9350
42805SOL     OW40139   0.506  12.848   2.168  0.0240  0.2820  0.1036
42805SOL    HW140140   0.485  12.929   2.214 -0.4661 -0.8730  2.0538
42805SOL    HW240141   0.458  12.780   2.216 -0.1355 -1.0885 -1.8845
42806SOL     OW40142   0.609  12.284   0.171  0.3137  0.2368 -0.6448
42806SOL    HW140143   0.538  12.265   0.232  0.2969  1.1494 -0.3712
42806SOL    HW240144   0.567  12.297   0.087  0.2695 -0.3112 -0.7129
42807SOL     OW40145   8.838   1.200   0.030  0.1146 -0.0956  0.1899
42807SOL    HW140146   8.748   1.189   0.061  0.0061  1.7117  0.6504
42807SOL    HW240147   8.837   1.284  -0.017  1.0374 -1.1597 -1.8892
42808SOL     OW40148   7.407   0.103   3.254 -0.3573 -0.2140  0.4535
42808SOL    HW140149   7.407   0.118   3.349  0.1405 -2.0597  0.7873
42808SOL    HW240150   7.450   0.018   3.243  1.8975  1.0697 -1.6408
42809SOL     OW40151   8.236  11.525   5.076 -0.5844  0.3678 -0.3178
42809SOL    HW140152   8.284  11.519   5.158 -0.4489  1.8529 -0.2635
42809SOL    HW240153   8.188  11.442   5.069  1.1608 -0.7155  0.1302
42810SOL     OW40154   0.461   6.078   8.668  0.0523  0.1031 -0.0614
42810SOL    HW140155   0.440   5.994   8.709  2.6264  0.2055  1.6808
42810SOL    HW240156   0.413   6.077   8.585 -0.5321 -2.7780  0.2209
42811SOL     OW40157  12.017   6.669   7.966  0.3035  0.4703 -0.0936
42811SOL    HW140158  12.041   6.667   8.058 -2.2353  0.1707  0.6483
42811SOL    HW240159  12.047   6.755   7.935  0.8472  0.7367  1.1156
42812SOL     OW40160  13.245  13.620   0.501  0.4487 -0.5947  0.3629
42812SOL    HW140161  13.162  13.577   0.522 -0.7760  1.7198  0.6400
42812SOL    HW240162  13.247  13.624   0.405 -1.2924  1.8986  0.3321
42813SOL     OW40163   6.052   9.287   7.923  0.0284  0.6920 -0.0389
42813SOL    HW140164   6.030   9.242   7.841  1.0509  1.4589 -0.7665
42813SOL    HW240165   6.063   9.379   7.897  0.0453  0.9999  1.0261
42814SOL     OW40166   5.803   3.727   1.210  0.2561 -0.1798 -0.2085
42814SOL    HW140167   5.795   3.657   1.276  2.5270  0.3888  0.7648
42814SOL    HW240168   5.860   3.792   1.251 -0.5989  1.5838 -1.6667
42815SOL     OW40169   6.906   9.940   1.425  0.0624  0.6114  0.4454
42815SOL    HW140170   6.959   9.906   1.497  1.4307  2.0383  0.1597
42815SOL    HW240171   6.914  10.035   1.432 -1.4603  0.8354 -0.3790
42816SOL     OW40172   4.086  13.465  13.195  0.0208 -0.0829 -0.6154
42816SOL    HW140173   4.036  13.462  13.277  0.7833 -0.4813 -0.1531
42816SOL    HW240174   4.166  13.415  13.214  0.8211  0.9405 -1.1832
42817SOL     OW40175   8.678   8.644   2.111 -0.0571  0.1106 -0.4562
42817SOL    HW140176   8.640   8.601   2.188 -1.5406 -0.6394 -1.5597
42817SOL    HW240177   8.768   8.611   2.107  0.4560  1.0689  1.5839
42818SOL     OW40178   8.490   2.355  11.205  0.2892 -1.0056 -0.0462
42818SOL    HW140179   8.426   2.382  11.271  0.8394 -0.3978  0.2497
42818SOL    HW240180   8.518   2.268  11.233 -0.2875 -1.2096 -0.0907
42819SOL     OW40181   8.009  11.120   6.425 -0.0753 -0.3846  0.5726
42819SOL    HW140182   7.989  11.027   6.437 -1.0288 -0.1186  1.1295
42819SOL    HW240183   8.091  11.121   6.374  0.6080 -1.5292  1.6015
42820SOL     OW40184   9.898   2.439   0.555 -0.2815  0.3466  0.1160
42820SOL    HW140185   9.883   2.524   0.512  0.3286  0.2915 -0.2138
42820SOL    HW240186   9.929   2.463   0.643  0.9627  0.4972 -0.3339
42821SOL     OW40187   2.094   0.833   1.399 -0.0907 -0.3415  0.0018
42821SOL    HW140188   2.054   0.874   1.322 -2.5474 -1.0095  0.8180
42821SOL    HW240189   2.049   0.872   1.473  1.7399 -0.2261  1.1162
42822SOL     OW40190   0.911   7.532  13.005  0.2976  0.1367  0.1380
42822SOL    HW140191   0.863   7.451  13.020 -0.6913  0.2919 -1.8335
42822SOL    HW240192   0.992   7.505  12.962 -0.3863  0.2014 -1.2486
42823SOL     OW40193  10.051   5.816   6.459  0.5515  0.3684  0.5773
42823SOL    HW140194  10.028   5.724   6.477 -0.8701  1.0088  2.3481
42823SOL    HW240195  10.141   5.824   6.489  1.3419 -0.8644 -1.3051
42824SOL     OW40196   9.232  12.809   4.522  0.3082  0.1149  0.0679
42824SOL    HW140197   9.147  12.766   4.521  1.6240 -2.7370 -1.4394
42824SOL    HW240198   9.212  12.902   4.510 -2.5397 -0.6538 -2.5398
42825SOL     OW40199   4.192  12.156   3.933 -0.1568  0.0078 -0.1316
42825SOL    HW140200   4.211  12.086   3.996  0.4028 -0.7383 -1.0924
42825SOL    HW240201   4.233  12.126   3.851 -1.7785  0.4278 -1.1463
42826SOL     OW40202  13.337   6.544  13.620  0.0614  0.1900  0.2076
42826SOL    HW140203  13.295   6.508  13.542  0.4601  0.8551 -0.3224
42826SOL    HW240204  13.430   6.548  13.598  0.4257 -1.1706  1.3306
42827SOL     OW40205   3.343  12.321   8.815  0.1220  0.4704  0.1809
42827SOL    HW140206   3.353  12.297   8.723 -3.3632 -1.1355  0.0493
42827SOL    HW240207   3.387  12.406   8.823  0.8600  0.4708 -2.8483
42828SOL     OW40208  11.652  10.285   4.915 -0.2903  0.5223 -0.0399
42828SOL    HW140209  11.725  10.236   4.952 -1.7430 -1.5754  0.2102
42828SOL    HW240210  11.644  10.254   4.825 -2.2792 -1.0784  0.6156
42829SOL     OW40211   3.757   8.267  11.442  0.7469 -0.1316 -0.1207
42829SOL    HW140212   3.820   8.321  11.393 -0.5805  0.6837 -0.9928
42829SOL    HW240213   3.757   8.183  11.397  0.1745  0.3336 -1.0144
42830SOL     OW40214   8.381   9.784   1.341  0.2855 -0.1957 -0.3495
42830SOL    HW140215   8.334   9.755   1.419 -1.2556  0.2761 -1.0542
42830SOL    HW240216   8.388   9.879   1.350 -1.3851  0.0827 -1.5078
42831SOL     OW40217   7.028   3.439  13.667 -0.4239  0.5756  0.8960
42831SOL    HW140218   7.010   3.368  13.606  2.6260  0.5013 -0.0734
42831SOL    HW240219   7.024   3.518  13.613 -0.1504  0.7629  1.1480
42832SOL     OW40220   9.356   4.074  10.364 -0.3286 -0.0335 -0.2312
42832SOL    HW140221   9.446   4.095  10.388 -0.6701  0.7780  0.3784
42832SOL    HW240222   9.304   4.100  10.441 -0.8229 -2.8897  0.5071
42833SOL     OW40223  10.295   9.010  11.644 -0.1959 -0.1454  0.2717
42833SOL    HW140224  10.210   8.968  11.646  0.6613 -1.9510  1.5478
42833SOL    HW240225  10.342   8.967  11.572 -0.5557  1.3608 -0.9241
42834SOL     OW40226  13.496  12.148   3.312 -0.2931 -0.0658  0.3517
42834SOL    HW140227  13.581  12.169   3.351  0.0366  0.1962 -0.4979
42834SOL    HW240228  13.467  12.070   3.360  2.0813 -2.3861 -1.6446
42835SOL     OW40229   2.544   5.886  11.310 -0.2488  0.6334  0.7284
42835SOL    HW140230   2.517   5.889  11.402 -1.0341 -0.5809  0.5708
42835SOL    HW240231   2.622   5.940  11.306 -0.3184  0.8751  2.0762
42836SOL     OW40232   1.604   6.453   5.362 -0.1977 -0.0452 -0.0403
42836SOL    HW140233   1.528   6.485   5.314 -0.5896 -1.2615 -0.2857
42836SOL    HW240234   1.584   6.361   5.379  0.3500  0.1130  1.6490
42837SOL     OW40235  10.943   3.745   2.525  0.5106 -0.2683  1.1462
42837SOL    HW140236  10.896   3.794   2.592  1.1635  1.8498  0.1438
42837SOL    HW240237  10.919   3.788   2.443  0.8397 -1.8897  0.1513
42838SOL     OW40238   3.185   8.712   4.792 -0.0093  0.3226  0.2895
42838SOL    HW140239   3.211   8.698   4.883 -0.6490 -0.8100  0.3134
42838SOL    HW240240   3.255   8.672   4.741  0.6892  1.5426  0.2435
42839SOL     OW40241  11.832   8.343   8.218 -0.3213  0.4055  0.5277
42839SOL    HW140242  11.774   8.269   8.204 -0.3383  0.8259 -2.1051
42839SOL    HW240243  11.777   8.420   8.205  0.3426  0.8285  0.1416
42840SOL     OW40244   6.397  11.985   1.615  0.3960 -0.0808 -0.1307
42840SOL    HW140245   6.349  12.049   1.668 -3.2714 -1.8491 -0.9627
42840SOL    HW240246   6.421  11.917   1.678  1.6779  0.7074  0.2556
42841SOL     OW40247   9.883  10.343   4.343  0.3828  0.1523  0.0901
42841SOL    HW140248   9.958  10.333   4.284  0.9476 -0.9057  0.9570
42841SOL    HW240249   9.814  10.380   4.288  0.7080 -1.3568 -1.3926
42842SOL     OW40250  10.975  12.186  12.039 -0.3054  0.1196  0.4383
42842SOL    HW140251  11.053  12.236  12.013 -1.2894  1.7250  0.4013
42842SOL    HW240252  10.914  12.198  11.966 -0.9808 -0.1871  0.9377
42843SOL     OW40253   8.144   1.102   6.868  0.5511  0.2049  0.1587
42843SOL    HW140254   8.201   1.035   6.829 -1.3574 -0.9008 -0.8424
42843SOL    HW240255   8.202   1.178   6.878  2.5581 -1.2697  0.5089
42844SOL     OW40256   9.117  10.040   7.470  0.1339 -0.4550 -0.1336
42844SOL    HW140257   9.192  10.081   7.427 -0.5600  0.2884 -0.6559
42844SOL    HW240258   9.116   9.950   7.437  0.3851 -0.2700 -0.6470
42845SOL     OW40259  13.505   6.855  10.465 -0.2268  0.0944  0.3289
42845SOL    HW140260  13.475   6.795  10.534 -0.0494 -1.4297 -0.8582
42845SOL    HW240261  13.545   6.928  10.513  1.5065 -1.7355  1.8933
42846SOL     OW40262   9.828   0.911   5.008  0.3544  0.0271  0.1269
42846SOL    HW140263   9.826   0.953   5.094  0.7365  0.6702 -0.1667
42846SOL    HW240264   9.753   0.948   4.962  1.0478  0.8917 -0.3493
42847SOL     OW40265   0.231   2.149  12.304 -0.1764 -0.1358 -0.4181
42847SOL    HW140266   0.271   2.229  12.270  1.6107 -0.9788 -0.4193
42847SOL    HW240267   0.253   2.082  12.239 -0.3846 -0.9162  0.3059
42848SOL     OW40268  13.549   4.118   4.198  0.0213 -0.0752 -0.2650
42848SOL    HW140269  13.588   4.206   4.190  0.6653 -0.1309  1.8090
42848SOL    HW240270  13.620   4.058   4.176 -0.1225 -0.1201 -0.6262
42849SOL     OW40271   4.009   5.338   5.502 -0.8128 -0.1352 -0.0367
42849SOL    HW140272   3.991   5.252   5.540 -4.5567  0.3972 -0.2598
42849SOL    HW240273   3.973   5.400   5.565  3.7580  1.6043  1.2374
42850SOL     OW40274   5.033   8.908   9.466  0.0115 -0.1325 -0.2184
42850SOL    HW140275   4.994   8.968   9.529  0.5849 -2.7514  2.8905
42850SOL    HW240276   5.128   8.917   9.481  0.2439  0.0696 -1.6510
42851SOL     OW40277  11.673   4.918   0.754 -0.5071 -0.2602 -0.2997
42851SOL    HW140278  11.656   4.886   0.842 -1.9006 -1.3284 -0.9082
42851SOL    HW240279  11.759   4.960   0.759 -0.6048 -0.2198  1.5614
42852SOL     OW40280   4.907  10.757   0.116 -0.0016 -0.5163  0.0405
42852SOL    HW140281   4.957  10.794   0.189  0.7006 -2.0401  0.3715
42852SOL    HW240282   4.907  10.663   0.132  0.7759 -0.9871 -2.2977
42853SOL     OW40283   6.357   7.569   3.400  0.1348  0.5745 -0.5825
42853SOL    HW140284   6.390   7.529   3.480  1.8185 -0.3023 -1.6529
42853SOL    HW240285   6.418   7.642   3.383 -1.1517  1.7702 -0.2391
42854SOL     OW40286   9.376  13.508  11.681  0.1931  0.2519 -0.3829
42854SOL    HW140287   9.449  13.561  11.650  1.0749 -0.0930  1.0007
42854SOL    HW240288   9.306  13.571  11.697  1.0027  0.9389  0.5820
42855SOL     OW40289   2.001   5.082  12.236  0.2291  0.2459 -0.0148
42855SOL    HW140290   2.005   5.160  12.292  1.6147  1.0264 -1.1616
42855SOL    HW240291   1.943   5.107  12.164  0.5097  0.1339 -0.2785
42856SOL     OW40292   5.579  11.843   3.797  0.0344 -0.4837  0.1951
42856SOL    HW140293   5.648  11.888   3.845  0.2584  0.0854 -0.6502
42856SOL    HW240294   5.536  11.912   3.746  1.0540 -1.3329 -1.9536
42857SOL     OW40295   1.750   9.511  10.228  0.1260 -0.0174 -0.0849
42857SOL    HW140296   1.658   9.520  10.254  0.5270  2.1593  0.8276
42857SOL    HW240297   1.751   9.537  10.136 -0.0265  1.1928  0.2358
42858SOL     OW40298  11.904   1.235   8.575  0.2672 -0.1829 -0.5048
42858SOL    HW140299  11.843   1.221   8.502 -0.4935  0.5628 -0.0408
42858SOL    HW240300  11.893   1.328   8.597  0.1075 -0.5138  0.8921
42859SOL     OW40301   8.144  13.496  12.316  0.1904 -0.2775  0.2032
42859SOL    HW140302   8.067  13.519  12.264  0.0183 -2.1297 -0.4535
42859SOL    HW240303   8.156  13.402  12.300  3.4736  0.1897 -0.9023
42860SOL     OW40304  13.269   1.692  12.046 -0.3770 -0.0347  0.0659
42860SOL    HW140305  13.316   1.766  12.009 -2.2201  0.5046 -1.3021
42860SOL    HW240306  13.218   1.729  12.118  0.3030 -0.4011  0.7589
42861SOL     OW40307  10.000   4.946  12.265 -0.1691 -0.3671 -0.0192
42861SOL    HW140308  10.025   4.866  12.217  1.0891 -0.1373  0.2085
42861SOL    HW240309  10.045   4.938  12.349  1.9458  1.6266 -0.8421
42862SOL     OW40310  10.852  11.351  13.210  0.1322  0.4328  0.5443
42862SOL    HW140311  10.781  11.415  13.212  0.3037  0.6126  1.4058
42862SOL    HW240312  10.892  11.362  13.124  0.4036  1.7728  0.8261
42863SOL     OW40313   4.806  11.296   9.841 -0.4475 -0.2369 -0.1810
42863SOL    HW140314   4.784  11.294   9.748  0.6671  0.6609 -0.4953
42863SOL    HW240315   4.825  11.205   9.864  0.7714 -0.2752 -1.2312
42864SOL     OW40316  11.433   7.428  13.212 -0.4985  0.4259  0.1675
42864SOL    HW140317  11.513   7.473  13.186 -0.8900  1.3516  0.5217
42864SOL    HW240318  11.450   7.398  13.301 -1.0751  1.9912  0.8422
42865SOL     OW40319   4.076   0.968  12.890  0.3792  0.0866  0.0406
42865SOL    HW140320   4.052   1.033  12.956  0.6317 -1.2129  1.4768
42865SOL    HW240321   4.124   1.018  12.824  1.0840  1.2767  1.3888
42866SOL     OW40322   2.301   3.967   1.870  0.1776  0.3545  0.5516
42866SOL    HW140323   2.245   3.901   1.830 -0.6279  1.0176  0.5387
42866SOL    HW240324   2.307   4.037   1.805  0.8182  0.4070  0.6583
42867SOL     OW40325  11.418   3.051   0.259  0.0673  0.3872  0.4563
42867SOL    HW140326  11.387   3.137   0.289  0.7460  0.4675  0.9618
42867SOL    HW240327  11.498   3.071   0.210  0.8020 -0.0214  1.4392
42868SOL     OW40328   2.008  10.556  12.963 -0.4377  0.2762 -0.2372
42868SOL    HW140329   2.088  10.505  12.975 -1.3436 -1.1151  0.0552
42868SOL    HW240330   1.976  10.531  12.876 -0.6300  0.7397 -0.3035
42869SOL     OW40331   7.696   3.329   0.828  0.2104 -0.4126 -0.1456
42869SOL    HW140332   7.716   3.348   0.737 -0.2755  2.7161  0.2837
42869SOL    HW240333   7.697   3.414   0.871 -2.6714 -1.3548  2.1611
42870SOL     OW40334  11.533   8.524   8.720  0.6130 -0.2790  0.6211
42870SOL    HW140335  11.460   8.562   8.770 -1.5144 -2.1884 -0.8045
42870SOL    HW240336  11.517   8.430   8.722  2.1368 -0.6306 -1.1148
42871SOL     OW40337  12.674  11.248   9.202 -0.3888  0.0461  0.8222
42871SOL    HW140338  12.616  11.257   9.278 -0.8968  0.0712  0.4316
42871SOL    HW240339  12.631  11.183   9.147 -1.2304  1.6844 -0.5514
42872SOL     OW40340  12.198  10.014   2.798 -0.0176  0.0256  0.2242
42872SOL    HW140341  12.154  10.081   2.850 -0.2500 -1.3830  1.9258
42872SOL    HW240342  12.131   9.946   2.784  1.1247 -1.4349  1.5177
42873SOL     OW40343   3.847   9.889  11.498  0.2158 -0.4484  0.1526
42873SOL    HW140344   3.924   9.937  11.467 -0.1964  0.1920  0.1006
42873SOL    HW240345   3.879   9.840  11.573  0.5191  0.3892  0.5897
42874SOL     OW40346   2.046   0.301   7.435 -0.0780 -0.1470  0.5485
42874SOL    HW140347   2.130   0.324   7.474 -0.3968  0.7209  0.7445
42874SOL    HW240348   2.020   0.379   7.387 -1.4777  0.1541  1.7240
42875SOL     OW40349   3.481   1.452  11.662  0.5717 -0.5859  0.0994
42875SOL    HW140350   3.551   1.487  11.607 -0.7655 -0.2219 -1.4535
42875SOL    HW240351   3.466   1.364  11.628 -1.1239  0.0906 -1.0625
42876SOL     OW40352   3.695   3.485   9.215 -0.1220  0.6608 -0.0328
42876SOL    HW140353   3.644   3.486   9.296 -0.9566  0.9458 -0.5533
42876SOL    HW240354   3.775   3.533   9.237 -0.6786  1.4016  0.4081
42877SOL     OW40355   1.341   4.448   9.463  0.2751  0.2729 -0.5559
42877SOL    HW140356   1.313   4.359   9.439 -0.1784  0.2364  0.0906
42877SOL    HW240357   1.411   4.434   9.527 -1.7216  0.3416  1.7795
42878SOL     OW40358   0.666   3.222   8.358 -0.7059 -0.0539 -0.4672
42878SOL    HW140359   0.618   3.289   8.407 -0.0774 -1.6180  2.5554
42878SOL    HW240360   0.713   3.271   8.290 -1.2038  2.4146  0.8465
42879SOL     OW40361   7.538   9.067  12.014 -0.4661 -0.1622 -0.3576
42879SOL    HW140362   7.493   9.092  12.095  1.5895  1.0438  0.4845
42879SOL    HW240363   7.470   9.073  11.946 -1.8719  0.2725  1.0173
42880SOL     OW40364   0.191   6.353   6.261 -0.2553  0.0552  0.3437
42880SOL    HW140365   0.103   6.365   6.224 -0.1571  1.9708  0.6206
42880SOL    HW240366   0.249   6.392   6.196 -0.0781  3.5166  2.3583
42881SOL     OW40367   1.900  13.538   2.814 -0.1013  0.3308  0.7513
42881SOL    HW140368   1.968  13.579   2.867  0.6252  0.4548 -0.2523
42881SOL    HW240369   1.819  13.579   2.844  0.5625  2.3389 -0.0185
42882SOL     OW40370   9.957   1.461   9.473  0.0625 -0.1305 -0.1436
42882SOL    HW140371  10.022   1.518   9.513  0.6989  0.2792 -1.6587
42882SOL    HW240372   9.888   1.520   9.442 -1.1794 -0.5805  1.6241
42883SOL     OW40373   9.457  10.988   1.400 -0.3255  0.3009  0.4059
42883SOL    HW140374   9.521  10.961   1.334  1.2253  0.0358  1.9316
42883SOL    HW240375   9.461  11.083   1.400 -0.3102  0.3006  0.1302
42884SOL     OW40376   5.721  10.947  10.224  0.7138 -0.3677  0.1329
42884SOL    HW140377   5.743  10.860  10.256 -0.4144  0.1741  2.6293
42884SOL    HW240378   5.779  11.006  10.273 -0.9736  0.4938  1.1884
42885SOL     OW40379   7.748   0.097   3.404 -0.2041 -0.0686 -0.4481
42885SOL    HW140380   7.743   0.011   3.447  0.6451  0.6815  1.2211
42885SOL    HW240381   7.835   0.100   3.366  0.9970  1.2239  2.2025
42886SOL     OW40382   1.478   4.672   5.386 -1.1736  0.3376 -0.1743
42886SOL    HW140383   1.529   4.713   5.457 -2.9226  4.0551 -0.8069
42886SOL    HW240384   1.406   4.628   5.431  0.0856 -1.1557  0.4808
42887SOL     OW40385  11.386   9.727   9.381  0.3154 -0.2031  0.0014
42887SOL    HW140386  11.342   9.786   9.319  0.2436  1.2363  1.3553
42887SOL    HW240387  11.448   9.783   9.427 -0.6676 -0.8412  2.2553
42888SOL     OW40388  11.733  13.460  11.400  0.2386  0.3233 -0.1348
42888SOL    HW140389  11.688  13.500  11.326  1.2978  0.5070 -0.6932
42888SOL    HW240390  11.825  13.456  11.374  0.4058 -0.9945  0.5616
42889SOL     OW40391   6.241  13.341   1.394  0.7273 -0.3270  0.3436
42889SOL    HW140392   6.218  13.378   1.480 -1.7872 -0.3448 -0.2564
42889SOL    HW240393   6.170  13.280   1.375  1.8861 -1.2248 -1.2387
42890SOL     OW40394   7.393  12.085   6.891 -0.3864 -0.3420  0.2222
42890SOL    HW140395   7.326  12.139   6.933 -1.9991 -0.2445 -2.2265
42890SOL    HW240396   7.441  12.146   6.835 -0.4909 -0.9619 -0.5669
42891SOL     OW40397   8.788   6.308   1.383 -0.0689 -0.1881 -0.0109
42891SOL    HW140398   8.710   6.348   1.345 -0.3664  0.9906  1.7468
42891SOL    HW240399   8.755   6.240   1.441  0.1855  0.2945  0.7192
42892SOL     OW40400   3.579   7.844   8.404  0.3000  0.7348 -0.0201
42892SOL    HW140401   3.611   7.796   8.480  1.6292  0.0676 -0.9794
42892SOL    HW240402   3.511   7.902   8.440 -0.2755 -0.7434  1.4023
42893SOL     OW40403   4.469  12.731   8.544 -0.1463 -0.2905 -0.2271
42893SOL    HW140404   4.426  12.646   8.544 -1.1512  0.1728  1.2536
42893SOL    HW240405   4.491  12.747   8.452 -0.4722 -1.8680 -0.6104
42894SOL     OW40406   2.746   7.946  10.749  0.7733  0.1119 -0.1162
42894SOL    HW140407   2.679   7.957  10.817  1.3405 -0.8916  0.6315
42894SOL    HW240408   2.815   8.009  10.773  0.0439  1.2836 -0.9958
42895SOL     OW40409   7.553   5.031   9.735  0.0455 -0.5636  0.3094
42895SOL    HW140410   7.559   5.127   9.739  2.4157 -0.6563  0.2376
42895SOL    HW240411   7.634   5.004   9.692 -0.3077 -2.6612  0.8755
42896SOL     OW40412  12.845  11.108  13.489 -0.9959  0.0020 -0.1433
42896SOL    HW140413  12.770  11.167  13.479 -0.3377  0.5534 -2.4256
42896SOL    HW240414  12.906  11.156  13.546 -0.6569  1.3863 -1.6234
42897SOL     OW40415   5.019   1.084   3.617 -0.4164 -0.5577 -0.5156
42897SOL    HW140416   5.012   1.042   3.531  1.1494 -1.4582 -0.2390
42897SOL    HW240417   5.104   1.127   3.616 -0.9917  0.6522  0.0938
42898SOL     OW40418   6.274  12.176   3.626 -0.4564 -0.6283 -0.0170
42898SOL    HW140419   6.364  12.144   3.616 -0.5317 -0.7375 -0.3721
42898SOL    HW240420   6.276  12.265   3.591  0.1516  0.4721  2.5333
42899SOL     OW40421   2.805   7.456   5.491 -0.3340 -0.1757  0.1132
42899SOL    HW140422   2.826   7.390   5.557 -0.3635 -0.4497 -0.1494
42899SOL    HW240423   2.880   7.516   5.492 -0.0687 -0.5044 -0.0103
42900SOL     OW40424   9.759   7.665   3.346  0.1362  0.2633 -0.2988
42900SOL    HW140425   9.725   7.682   3.258  0.5356 -0.5900 -0.6292
42900SOL    HW240426   9.686   7.686   3.405 -0.8964 -1.2215 -0.9689
42901SOL     OW40427  11.806   3.215   0.145 -0.2359  0.2401 -0.1251
42901SOL    HW140428  11.829   3.249   0.232  0.2852 -0.3357 -0.0237
42901SOL    HW240429  11.711   3.220   0.142 -0.2531  0.3758  0.4409
42902SOL     OW40430   4.099   1.049   5.873  0.5185 -0.5234 -0.2545
42902SOL    HW140431   4.090   1.143   5.885  2.3452 -0.3272 -0.2034
42902SOL    HW240432   4.099   1.037   5.778  0.6406 -0.4359 -0.2650
42903SOL     OW40433   6.479  11.907   5.260 -0.4295 -0.3170  0.1299
42903SOL    HW140434   6.497  11.956   5.340 -3.6232  1.2287  0.0426
42903SOL    HW240435   6.490  11.971   5.189  1.1069 -1.3358 -0.6035
42904SOL     OW40436  11.444   2.072   8.135  0.0611 -0.4961  0.1838
42904SOL    HW140437  11.478   2.059   8.224 -2.2173 -0.5489  1.0988
42904SOL    HW240438  11.511   2.125   8.091  0.3257  1.2598  2.5475
42905SOL     OW40439  11.630  10.607   9.969  0.4645  0.0438 -0.3157
42905SOL    HW140440  11.705  10.563   9.929  1.9611 -0.4115  2.6536
42905SOL    HW240441  11.592  10.542  10.029  0.7683  1.6770  1.7966
42906SOL     OW40442   0.661  13.443   4.988 -0.1163 -0.1860 -0.1539
42906SOL    HW140443   0.744  13.455   4.942 -0.0484 -0.8940 -0.2289
42906SOL    HW240444   0.601  13.411   4.921 -0.5274  0.5738 -0.1578
42907SOL     OW40445  12.924   4.947   2.202  0.8590 -0.0892 -0.0619
42907SOL    HW140446  12.946   4.944   2.295 -1.4092 -1.3523  0.5068
42907SOL    HW240447  12.830   4.967   2.200  0.7562 -0.5608 -2.0557
42908SOL     OW40448   5.179  12.673  12.424 -0.2016 -0.5001 -0.0641
42908SOL    HW140449   5.132  12.752  12.399  1.8076  0.4369 -1.0962
42908SOL    HW240450   5.162  12.611  12.352  0.1581 -0.1441 -0.4637
42909SOL     OW40451   1.305   1.274  12.621 -0.1123  0.0097 -0.3466
42909SOL    HW140452   1.341   1.247  12.536  0.0636  1.2140 -0.6880
42909SOL    HW240453   1.328   1.204  12.681  2.7497  0.6417 -0.5621
42910SOL     OW40454  11.218   5.826  13.337  0.6039  0.2647 -0.4389
42910SOL    HW140455  11.245   5.904  13.384  1.0185 -0.7775  1.0987
42910SOL    HW240456  11.299   5.790  13.301  0.1970  1.5635 -2.8829
42911SOL     OW40457   3.732   4.494  13.312  0.1673 -0.3388 -0.0149
42911SOL    HW140458   3.759   4.573  13.358 -0.2542 -1.4153  2.2151
42911SOL    HW240459   3.813   4.445  13.298  0.1081 -0.9076  1.4453
42912SOL     OW40460   5.621   1.794  10.572 -0.6239  0.0192 -0.3447
42912SOL    HW140461   5.574   1.740  10.636  0.5680  0.2933  0.7896
42912SOL    HW240462   5.555   1.814  10.505 -2.1148  0.3428  1.1672
42913SOL     OW40463   5.700  13.537  11.144  0.2561 -0.3820  0.1340
42913SOL    HW140464   5.768  13.513  11.207  0.0690  0.3754  0.6436
42913SOL    HW240465   5.618  13.525  11.192  0.1790  2.8308  1.0735
42914SOL     OW40466   9.515  10.268   4.569 -0.3921 -0.3487 -0.7280
42914SOL    HW140467   9.461  10.345   4.585  0.5738  0.3734 -0.8293
42914SOL    HW240468   9.534  10.271   4.475  0.8679  0.1306 -0.4697
42915SOL     OW40469  12.025   1.388   0.418 -0.4004 -0.1080  0.4873
42915SOL    HW140470  12.090   1.361   0.353  0.7308  0.5592  1.2935
42915SOL    HW240471  11.943   1.391   0.370  0.1213 -1.1620 -0.5246
42916SOL     OW40472   0.739   0.815   7.100 -0.2489  0.4379 -0.2705
42916SOL    HW140473   0.743   0.731   7.054  0.0790 -0.0841  0.6980
42916SOL    HW240474   0.671   0.864   7.054 -1.4230 -0.8686  0.0220
42917SOL     OW40475   8.026   0.730  10.653 -0.1705  0.2612 -0.2903
42917SOL    HW140476   8.093   0.694  10.712  0.8896  1.4493 -0.7266
42917SOL    HW240477   7.951   0.747  10.710  0.6700  0.9514  0.6388
42918SOL     OW40478  10.172  12.239   3.384  0.5012 -0.3477 -0.1434
42918SOL    HW140479  10.146  12.207   3.471  0.0033 -1.8993 -0.8146
42918SOL    HW240480  10.125  12.322   3.374 -0.7905 -0.9682  0.4265
42919SOL     OW40481   7.381   0.564   0.297 -0.0924 -0.3662 -0.1374
42919SOL    HW140482   7.396   0.635   0.235 -1.1977 -0.6314 -0.7486
42919SOL    HW240483   7.380   0.606   0.383  0.3833  0.1730 -0.3909
42920SOL     OW40484  10.226   2.439   7.098  0.1590 -0.5708  0.3422
42920SOL    HW140485  10.153   2.388   7.064  0.8475 -1.5815  0.3241
42920SOL    HW240486  10.289   2.374   7.129  1.9122  0.1770 -1.3882
42921SOL     OW40487  13.657   2.719   2.140 -0.6593  0.0615 -0.1163
42921SOL    HW140488  13.723   2.652   2.159  0.3814  0.8249 -0.9345
42921SOL    HW240489  13.708   2.799   2.126 -1.8003  0.7606 -0.3345
42922SOL     OW40490   8.958   0.863   1.776 -0.2340  0.6886 -0.4932
42922SOL    HW140491   9.028   0.928   1.774  0.5326 -0.1235 -1.3151
42922SOL    HW240492   8.933   0.851   1.685 -1.3334  0.8357 -0.2195
42923SOL     OW40493   7.050  12.319   2.391 -0.0845 -0.0251 -0.0489
42923SOL    HW140494   7.077  12.411   2.389  0.8506 -0.2646  0.7052
42923SOL    HW240495   6.988  12.310   2.319 -0.2758  1.2255 -0.0537
42924SOL     OW40496   3.858  12.222   2.860 -0.2244 -0.1777 -0.6898
42924SOL    HW140497   3.776  12.239   2.813 -1.0912 -0.9975  0.4670
42924SOL    HW240498   3.835  12.156   2.925  1.0402  0.5768  0.5690
42925SOL     OW40499   9.391   3.796   6.594 -0.2245 -0.7298 -1.0621
42925SOL    HW140500   9.325   3.862   6.574 -1.0083 -1.5131 -1.0714
42925SOL    HW240501   9.381   3.730   6.526  0.0992 -1.1982 -0.6606
42926SOL     OW40502  10.894  13.461   2.188  0.4358  0.2780  0.0227
42926SOL    HW140503  10.869  13.381   2.143  0.9918  0.2212 -0.1870
42926SOL    HW240504  10.935  13.432   2.269  1.5865  0.3044 -0.5232
42927SOL     OW40505   2.145   5.730   2.882  0.0323 -0.1642 -0.2916
42927SOL    HW140506   2.189   5.768   2.806  2.0297 -1.1162  0.3149
42927SOL    HW240507   2.103   5.804   2.926 -1.7669  0.3050 -2.6414
42928SOL     OW40508  10.627  10.858  11.687  0.2399 -0.1361  0.0227
42928SOL    HW140509  10.699  10.911  11.653 -0.0219  0.8621  0.9341
42928SOL    HW240510  10.585  10.915  11.752 -0.3097 -1.3362  0.7516
42929SOL     OW40511   5.553   3.493   4.652 -0.2514 -0.0272 -0.1716
42929SOL    HW140512   5.597   3.408   4.643 -1.3670 -0.9157  2.0428
42929SOL    HW240513   5.463   3.477   4.623 -0.1348  0.8048 -1.0627
42930SOL     OW40514  11.810   5.872   5.815  0.4907 -0.0963  0.2687
42930SOL    HW140515  11.778   5.877   5.725  2.1655  0.7622 -0.3121
42930SOL    HW240516  11.853   5.786   5.820 -2.1455 -1.4770  1.1994
42931SOL     OW40517  11.359   3.374  12.608  0.6735  0.5547  0.4372
42931SOL    HW140518  11.400   3.381  12.522  2.0973  2.8554  1.2097
42931SOL    HW240519  11.402   3.299  12.649 -0.6532 -1.1397 -1.0956
42932SOL     OW40520   0.767   2.004   0.812 -0.6728  0.5829  0.2260
42932SOL    HW140521   0.738   2.094   0.800  2.2206  1.6089  0.1702
42932SOL    HW240522   0.848   2.011   0.863 -0.0756 -1.9397 -0.2101
42933SOL     OW40523  10.021   6.158   7.691 -0.2048  0.7241  0.4156
42933SOL    HW140524   9.980   6.100   7.754 -0.5024  1.0668  0.5372
42933SOL    HW240525  10.090   6.203   7.741  0.1270  0.3645  0.2840
42934SOL     OW40526  10.934   4.811   6.380  0.0652  0.1650  0.4892
42934SOL    HW140527  10.855   4.772   6.419 -0.1600  1.2435  1.1549
42934SOL    HW240528  10.909   4.902   6.361  0.3125 -0.1739 -1.7930
42935SOL     OW40529  10.005  12.866   4.105  0.5007 -0.0098 -0.0216
42935SOL    HW140530   9.980  12.780   4.137  0.8454 -0.1915 -0.2436
42935SOL    HW240531  10.034  12.852   4.015  0.9053  0.2779  0.0596
42936SOL     OW40532   9.735  13.416  11.862 -0.0588 -0.3987  0.1097
42936SOL    HW140533   9.646  13.394  11.888  0.3900 -1.2502  0.9868
42936SOL    HW240534   9.772  13.461  11.937 -0.4454  2.0762 -1.0771
42937SOL     OW40535   0.825   5.890  13.700 -0.5379  0.1475  0.0482
42937SOL    HW140536   0.889   5.853  13.761 -0.0797  0.3666 -0.2946
42937SOL    HW240537   0.801   5.818  13.643 -0.2133  0.1949 -0.1450
42938SOL     OW40538   8.713   9.999  12.514  0.1945  0.4888 -0.2970
42938SOL    HW140539   8.763  10.001  12.595  0.3157 -1.2271 -0.3106
42938SOL    HW240540   8.756  10.064  12.458  0.6955  0.9999  0.6534
42939SOL     OW40541   9.589   9.862   1.538  0.4817 -0.0688  0.0871
42939SOL    HW140542   9.657   9.926   1.560  1.7575 -1.3372  0.0147
42939SOL    HW240543   9.583   9.865   1.443  1.1391 -0.6175  0.0202
42940SOL     OW40544   6.365   9.007   5.631 -0.2761  0.8994 -0.4509
42940SOL    HW140545   6.379   9.077   5.694 -0.4838  0.7103 -0.1890
42940SOL    HW240546   6.335   9.051   5.551 -2.3917  1.0023  0.3183
42941SOL     OW40547   6.883   4.796   7.149  0.1610 -0.0800 -0.5592
42941SOL    HW140548   6.950   4.813   7.215  0.5518  0.0890 -0.9965
42941SOL    HW240549   6.852   4.883   7.124 -2.1698 -0.1620  1.5760
42942SOL     OW40550   8.947  11.991  10.125  0.5387  0.2197  0.0826
42942SOL    HW140551   8.893  11.955  10.055  0.9739  1.3732 -0.8887
42942SOL    HW240552   8.958  11.919  10.187 -0.8150 -0.4810 -0.4596
42943SOL     OW40553   2.299  10.916  10.093 -0.0809 -1.2158 -0.0594
42943SOL    HW140554   2.273  11.005  10.114 -0.1609 -1.2687  0.0605
42943SOL    HW240555   2.393  10.912  10.114  0.5102 -0.4545 -2.2871
42944SOL     OW40556   2.942   7.525   1.082 -0.3689  0.1334  0.5814
42944SOL    HW140557   2.971   7.610   1.049 -1.3919 -0.0602 -0.9161
42944SOL    HW240558   2.994   7.511   1.161  0.3496  1.8030  0.4464
42945SOL     OW40559  13.327   2.057   2.075  0.2105 -0.6540 -0.0596
42945SOL    HW140560  13.362   2.108   2.147  0.1248 -1.8768  0.8690
42945SOL    HW240561  13.234   2.078   2.074  0.0494 -1.3003  0.7608
42946SOL     OW40562   5.482   9.838   8.451  0.1574 -0.0409  0.4858
42946SOL    HW140563   5.417   9.888   8.401 -0.2224 -0.1655  0.8453
42946SOL    HW240564   5.479   9.750   8.413  2.0786  0.5932 -1.3311
42947SOL     OW40565   9.712   1.639   9.670  0.1710  0.0308  0.4341
42947SOL    HW140566   9.719   1.672   9.581 -0.3922 -1.2103 -0.0983
42947SOL    HW240567   9.619   1.615   9.679  0.1000  0.6625  1.5516
42948SOL     OW40568  12.880   3.004   7.588 -0.2611 -0.3718  0.0451
42948SOL    HW140569  12.795   2.965   7.606 -1.4116  1.1266 -1.8403
42948SOL    HW240570  12.932   2.932   7.551  0.5503 -2.2079  4.1455
42949SOL     OW40571   5.947  13.431  12.719  0.3308  0.2756  0.1373
42949SOL    HW140572   6.003  13.430  12.642 -0.1916 -2.1175 -0.2927
42949SOL    HW240573   5.981  13.362  12.776  0.1259  1.3518  1.6503
42950SOL     OW40574   2.003   7.829   3.845  0.1114  0.1966  0.4049
42950SOL    HW140575   1.921   7.835   3.894 -0.0634 -1.1814  0.3490
42950SOL    HW240576   2.013   7.735   3.829  1.1361  0.4526 -0.5515
42951SOL     OW40577   4.082   0.613   7.107 -0.3178 -0.1440 -0.0696
42951SOL    HW140578   4.130   0.549   7.055  0.9735  0.7500 -0.0412
42951SOL    HW240579   4.065   0.569   7.190 -1.6311 -1.2781 -0.8894
42952SOL     OW40580   6.885   3.586   2.091  0.0588  0.6658 -0.3380
42952SOL    HW140581   6.979   3.594   2.106  0.0775 -0.8002  0.4251
42952SOL    HW240582   6.873   3.499   2.054 -1.3812 -0.9121  3.3927
42953SOL     OW40583   4.193  10.770   7.660  0.1089  0.1042  0.8120
42953SOL    HW140584   4.104  10.778   7.695 -0.3400 -2.3350  0.4361
42953SOL    HW240585   4.236  10.706   7.717  0.4371 -1.3857 -0.9849
42954SOL     OW40586   4.533  13.724  11.044  0.1569 -0.1186 -0.0636
42954SOL    HW140587   4.585  13.801  11.070 -1.3767  0.4997  1.3803
42954SOL    HW240588   4.495  13.692  11.126  0.4769 -2.2535 -0.6826
42955SOL     OW40589   1.073   5.036   6.239 -0.2556  0.1763  0.3228
42955SOL    HW140590   1.115   5.037   6.325 -0.9842  1.2229  0.6818
42955SOL    HW240591   0.998   5.095   6.248 -0.4157  0.2040 -0.9945
42956SOL     OW40592   9.062   1.913   1.009 -0.1745  0.0388  0.6683
42956SOL    HW140593   9.025   1.850   1.071  0.6792 -0.7107  0.4223
42956SOL    HW240594   8.991   1.930   0.947 -0.1916 -1.2093  0.3320
42957SOL     OW40595  11.441   3.919  12.849  0.0261  0.0193 -0.4996
42957SOL    HW140596  11.388   3.963  12.915 -0.2781 -0.0633 -0.6890
42957SOL    HW240597  11.512   3.878  12.899  0.3861  0.8191 -0.3353
42958SOL     OW40598  12.618  12.504   1.619  0.4855  0.0531  0.2253
42958SOL    HW140599  12.616  12.471   1.530  0.7050 -2.1333  0.9830
42958SOL    HW240600  12.527  12.503   1.647  0.6585 -1.8534  0.8701
42959SOL     OW40601  10.650   9.616   3.150 -0.1218 -0.1226 -0.3211
42959SOL    HW140602  10.558   9.589   3.160  0.4024 -1.3902  1.6504
42959SOL    HW240603  10.658   9.638   3.058 -2.7250  1.2555 -0.3171
42960SOL     OW40604   3.409  13.431   9.094  0.3252  0.3092 -0.2592
42960SOL    HW140605   3.337  13.492   9.075  0.2019  0.6618  1.2498
42960SOL    HW240606   3.483  13.466   9.044  0.4532  2.1493  1.1228
42961SOL     OW40607  10.652   7.688   2.357 -0.0659 -0.0098  0.0047
42961SOL    HW140608  10.643   7.705   2.450 -3.1462 -2.2531  0.2892
42961SOL    HW240609  10.745   7.700   2.338  0.7571 -0.0950  3.4793
42962SOL     OW40610   0.450   9.332   4.789 -0.1168  0.4892  0.5950
42962SOL    HW140611   0.513   9.354   4.720 -0.0531 -0.2024  0.4284
42962SOL    HW240612   0.482   9.378   4.866 -0.6654  1.9956 -0.0269
42963SOL     OW40613  13.008   3.119   6.194  0.2476  0.5039  0.1912
42963SOL    HW140614  12.958   3.039   6.207  0.0346  0.7103  0.6789
42963SOL    HW240615  12.989   3.172   6.271  1.6735  0.3568  0.6714
42964SOL     OW40616   6.702   3.277   0.462  0.4191 -0.2595  0.3668
42964SOL    HW140617   6.677   3.203   0.517 -0.7058  0.2847  0.6106
42964SOL    HW240618   6.657   3.262   0.379 -2.6531  1.8010  1.4892
42965SOL     OW40619  12.827   0.870  11.377 -0.1182 -0.3165  0.0507
42965SOL    HW140620  12.911   0.823  11.371  1.2635  2.0377 -0.2932
42965SOL    HW240621  12.771   0.812  11.429  2.1644 -1.3899  1.4749
42966SOL     OW40622  10.906   0.108   4.837  0.4530  0.0027 -0.2719
42966SOL    HW140623  10.967   0.076   4.903 -0.9324 -0.7035  0.7296
42966SOL    HW240624  10.959   0.123   4.759  1.9840  0.0248  0.7421
42967SOL     OW40625  12.048   2.711   3.407  0.6197  0.0080  0.1313
42967SOL    HW140626  12.005   2.636   3.450 -0.9509  0.2496 -0.9129
42967SOL    HW240627  12.060   2.682   3.316 -0.7046  1.2369 -0.4869
42968SOL     OW40628   1.735   0.288   7.470  0.0595  0.0340 -0.2707
42968SOL    HW140629   1.661   0.227   7.466 -0.7485  0.9219  0.4178
42968SOL    HW240630   1.812   0.232   7.475 -0.5248 -0.9257 -1.4671
42969SOL     OW40631   6.801   0.134   0.769  0.4779  0.2925 -0.6130
42969SOL    HW140632   6.802   0.140   0.674 -1.3933 -1.3047 -0.7957
42969SOL    HW240633   6.836   0.047   0.788  0.0639  0.2790  0.1172
42970SOL     OW40634  11.091   6.970   6.710 -0.1639  0.3515 -0.7281
42970SOL    HW140635  11.038   6.898   6.675  1.6641 -1.3719 -0.1478
42970SOL    HW240636  11.168   6.974   6.654  0.9335  0.1621  0.7030
42971SOL     OW40637   5.444   2.962   7.181  0.1451 -0.1018 -0.3935
42971SOL    HW140638   5.366   2.994   7.137 -0.3571  1.6398  1.6190
42971SOL    HW240639   5.468   3.032   7.242  1.2683 -1.9909  1.4686
42972SOL     OW40640  13.139   7.315   3.791  0.5585  0.0622  0.3916
42972SOL    HW140641  13.068   7.322   3.727  0.3275 -1.4581  0.4345
42972SOL    HW240642  13.172   7.404   3.801  2.4111  0.0908 -3.9042
42973SOL     OW40643   6.228  11.239   7.946  0.0811 -0.6860  0.1549
42973SOL    HW140644   6.314  11.268   7.917 -0.2381  0.8929  0.7246
42973SOL    HW240645   6.241  11.210   8.036  0.1174 -0.9807  0.0569
42974SOL     OW40646   5.149  12.916  11.088 -0.1302 -0.0459  0.1420
42974SOL    HW140647   5.077  12.951  11.140  0.3218  0.4527  0.4496
42974SOL    HW240648   5.225  12.970  11.113  0.5243 -1.0638  0.4133
42975SOL     OW40649  11.359   7.714   3.738 -0.0347 -0.2714 -0.2659
42975SOL    HW140650  11.430   7.672   3.690  0.1699  1.3467 -1.4403
42975SOL    HW240651  11.402   7.752   3.815  0.1543 -0.3738 -0.3200
42976SOL     OW40652  11.904   4.082  10.784  0.0164  0.1060 -0.6312
42976SOL    HW140653  12.000   4.081  10.777 -0.0191  0.6738 -1.3263
42976SOL    HW240654  11.876   4.148  10.720 -0.8372 -0.0097 -0.3887
42977SOL     OW40655   5.735  12.294   5.840 -0.1784 -0.7739  0.2876
42977SOL    HW140656   5.768  12.379   5.813 -3.1954  0.6500  0.6426
42977SOL    HW240657   5.809  12.234   5.828  1.9579  1.7916 -0.2812
42978SOL     OW40658   6.245   3.239   7.801 -0.2049  0.1754  0.3992
42978SOL    HW140659   6.211   3.192   7.877  0.7481 -0.8219  0.2388
42978SOL    HW240660   6.209   3.328   7.809 -2.2892 -0.6311  0.5542
42979SOL     OW40661  10.848  12.138   3.640 -0.1949  0.5696  0.1219
42979SOL    HW140662  10.764  12.098   3.660 -0.1838  0.4357 -0.0942
42979SOL    HW240663  10.913  12.081   3.682 -0.2111  0.6693  0.2814
42980SOL     OW40664   2.297   1.722   5.700  0.0938 -0.1552 -0.5064
42980SOL    HW140665   2.349   1.643   5.686 -0.1630 -0.3712 -0.2676
42980SOL    HW240666   2.209   1.689   5.717  0.6382 -0.0978  3.4106
42981SOL     OW40667  11.649   0.693  11.977 -0.8687 -0.0160 -0.3466
42981SOL    HW140668  11.648   0.666  12.069 -1.5181 -1.9587 -0.8711
42981SOL    HW240669  11.598   0.625  11.932  0.0621  0.4930 -2.2531
42982SOL     OW40670  11.145   0.277   5.908  0.4886 -0.1131 -0.2169
42982SOL    HW140671  11.070   0.337   5.905 -0.2598 -0.9856 -3.2724
42982SOL    HW240672  11.107   0.191   5.892  1.6302 -1.4489  3.3688
42983SOL     OW40673   4.794   0.122   4.586 -0.3274  1.2264 -0.6575
42983SOL    HW140674   4.745   0.170   4.653 -0.8231  1.1393 -0.9544
42983SOL    HW240675   4.836   0.191   4.534  0.8558  1.2754  0.3188
42984SOL     OW40676   7.859   0.198   5.838  0.2021  0.0317 -0.2387
42984SOL    HW140677   7.832   0.175   5.749 -0.4812 -0.0084 -0.0217
42984SOL    HW240678   7.779   0.195   5.890  0.4909  0.6554  0.2595
42985SOL     OW40679   5.940   3.514   5.586  0.0093 -0.1009  0.5551
42985SOL    HW140680   5.860   3.566   5.576  1.1519  1.4010 -1.3091
42985SOL    HW240681   5.953   3.473   5.501  1.4691  0.0480  0.6808
42986SOL     OW40682  13.195   1.221   2.615 -0.0021 -0.2849  0.1653
42986SOL    HW140683  13.110   1.257   2.642 -0.2427 -0.7562  0.0426
42986SOL    HW240684  13.259   1.268   2.669 -0.1915  1.2517 -0.8841
42987SOL     OW40685   2.466   0.952   5.732  0.2714  0.3625 -0.6556
42987SOL    HW140686   2.418   1.033   5.754 -1.5903 -0.6017 -0.9583
42987SOL    HW240687   2.400   0.895   5.694  1.7427 -1.0088 -1.2515
42988SOL     OW40688   7.426  13.687  13.170  0.1923  0.5760 -0.1864
42988SOL    HW140689   7.361  13.623  13.141  1.7778 -1.4149  0.4362
42988SOL    HW240690   7.425  13.681  13.265  1.5786  0.1900 -0.1801
42989SOL     OW40691   7.039   7.816   9.914 -0.0708  0.6362 -0.1604
42989SOL    HW140692   6.965   7.867   9.882  0.7206  2.3918  0.6398
42989SOL    HW240693   7.046   7.839  10.006 -0.9813 -2.6565  0.8687
42990SOL     OW40694   9.780  11.460   9.885  0.0061  0.2605 -0.1599
42990SOL    HW140695   9.741  11.509   9.957  0.1842  0.5581 -0.2617
42990SOL    HW240696   9.706  11.420   9.840 -0.0008 -1.1161  1.0300
42991SOL     OW40697   0.980   0.462   6.912  0.4032  0.6266  0.4800
42991SOL    HW140698   1.072   0.473   6.887  0.7950 -1.8853  0.5267
42991SOL    HW240699   0.982   0.399   6.983 -1.4874 -2.0412 -1.6260
42992SOL     OW40700   7.314   0.489   6.686  0.1861  0.4734 -0.4944
42992SOL    HW140701   7.316   0.570   6.738  1.3502 -0.6911  1.3964
42992SOL    HW240702   7.336   0.420   6.748 -0.3761 -1.2789 -2.1425
42993SOL     OW40703   8.847   6.047   3.846  0.0378 -0.0388  0.4707
42993SOL    HW140704   8.930   6.043   3.893 -0.0607 -1.1152  0.5877
42993SOL    HW240705   8.797   6.116   3.891  0.3329 -0.3493  1.3014
42994SOL     OW40706   5.002   4.884   1.568 -0.1410 -0.4818 -0.0121
42994SOL    HW140707   4.921   4.882   1.619  0.7719 -1.2757  1.4811
42994SOL    HW240708   4.996   4.965   1.517 -2.0473 -0.7404 -0.2544
42995SOL     OW40709   2.707   7.629  10.163 -0.8502  0.6107 -0.1434
42995SOL    HW140710   2.686   7.550  10.213  0.8664  0.3796  0.2727
42995SOL    HW240711   2.684   7.606  10.073  1.5818 -1.2136 -0.3995
42996SOL     OW40712   5.810   9.517   2.742  0.1177  0.5145 -1.1442
42996SOL    HW140713   5.800   9.548   2.652  0.2406  1.8623 -0.7193
42996SOL    HW240714   5.895   9.550   2.770  0.1456 -0.0144 -0.5712
42997SOL     OW40715   4.053  11.667  10.076 -0.2029  0.3453  0.1006
42997SOL    HW140716   4.123  11.693  10.136 -1.2512 -0.9880  2.0123
42997SOL    HW240717   4.083  11.583  10.040 -1.4316 -1.0790  2.1917
42998SOL     OW40718   3.587   4.810   4.315 -0.0412  0.1669 -0.1177
42998SOL    HW140719   3.618   4.897   4.338  0.6598  0.8271 -3.0471
42998SOL    HW240720   3.493   4.812   4.333  0.4446  0.3603  2.8206
42999SOL     OW40721   2.631   0.742   9.742 -0.5556 -0.2611 -0.5829
42999SOL    HW140722   2.550   0.758   9.790  0.0607  0.8394  0.1300
42999SOL    HW240723   2.700   0.744   9.809  0.1722 -0.0484 -1.3165
43000SOL     OW40724   4.312  13.130   8.003  0.2075 -0.4924 -0.0875
43000SOL    HW140725   4.390  13.147   7.949  0.8149  0.6061  1.0887
43000SOL    HW240726   4.333  13.048   8.048  0.7388 -0.1596  0.2874
43001SOL     OW40727   1.311   0.633   1.788  0.2400 -0.1162 -0.1768
43001SOL    HW140728   1.393   0.675   1.813  0.2502  0.1099 -0.5800
43001SOL    HW240729   1.336   0.542   1.771 -0.1788 -0.9429  2.9694
43002SOL     OW40730   7.987   5.704   8.362 -0.0182 -0.2893  0.4860
43002SOL    HW140731   7.985   5.667   8.274  0.2969 -0.8958  0.7275
43002SOL    HW240732   8.080   5.722   8.378 -0.0690 -0.2279  0.7152
43003SOL     OW40733   8.035   3.114   6.686  0.8121 -0.1195  0.0236
43003SOL    HW140734   7.955   3.132   6.636 -0.9316 -1.9441  1.9641
43003SOL    HW240735   8.090   3.065   6.626  0.7571  1.5854 -1.5213
43004SOL     OW40736   9.743   7.316   7.566  0.0615 -0.0279 -0.3789
43004SOL    HW140737   9.818   7.326   7.625 -0.5408  0.9820  0.2422
43004SOL    HW240738   9.681   7.382   7.595 -0.8581 -0.4964 -1.2304
43005SOL     OW40739   0.483  11.849   9.708 -0.1332  0.4709 -0.2592
43005SOL    HW140740   0.452  11.939   9.694 -0.9342  0.2574  0.1099
43005SOL    HW240741   0.495  11.814   9.620  2.6202  1.7310 -0.4764
43006SOL     OW40742   4.117   2.554   5.125  0.9726  0.6773  0.1835
43006SOL    HW140743   4.182   2.621   5.141 -0.3816  2.3826 -1.0776
43006SOL    HW240744   4.033   2.600   5.130 -0.0719 -1.1438  0.3537
43007SOL     OW40745   9.110   0.034   9.575  0.2117 -0.3507 -0.1787
43007SOL    HW140746   9.194   0.048   9.532  1.8380  0.1781  2.8560
43007SOL    HW240747   9.122  -0.046   9.626 -1.0246 -0.1261  0.4941
43008SOL     OW40748   3.003  11.581   4.224  0.2607  0.7699  0.2974
43008SOL    HW140749   2.949  11.621   4.292  0.0571 -1.2083  1.3849
43008SOL    HW240750   3.077  11.641   4.214 -0.6845  2.0757  0.8386
43009SOL     OW40751  13.253   4.306  11.110  0.3944  0.3167  0.1869
43009SOL    HW140752  13.213   4.248  11.045 -2.3398  1.3485  0.8171
43009SOL    HW240753  13.292   4.246  11.174  1.7694 -0.7173 -1.5270
43010SOL     OW40754  10.999  13.359   1.920 -0.0049 -0.2447 -0.3709
43010SOL    HW140755  11.052  13.433   1.890  0.8254 -0.1227  1.2665
43010SOL    HW240756  10.909  13.389   1.911  0.3338  1.4887  1.4327
43011SOL     OW40757   2.979   6.351  13.285  0.5887  0.2436  0.3039
43011SOL    HW140758   2.931   6.321  13.361 -0.1222  1.3637  0.3295
43011SOL    HW240759   3.071   6.335  13.306  0.3891  0.3906  1.3340
43012SOL     OW40760   7.595   6.002  12.797 -0.3838  0.4524  0.5979
43012SOL    HW140761   7.524   5.945  12.825 -0.1130  0.5002  1.4204
43012SOL    HW240762   7.552   6.077  12.756 -0.7427 -0.3372 -0.5199
43013SOL     OW40763  13.571   6.832   0.956 -0.4506 -0.2971  0.3871
43013SOL    HW140764  13.606   6.868   1.037  2.1961 -1.4776 -0.1200
43013SOL    HW240765  13.645   6.833   0.895 -1.9250 -0.9103 -1.5292
43014SOL     OW40766  12.154   9.092   0.760  0.1687  0.2489 -0.1378
43014SOL    HW140767  12.216   9.124   0.695  0.7016 -0.4663  0.0029
43014SOL    HW240768  12.206   9.086   0.841  0.0214 -0.7321 -0.1088
43015SOL     OW40769   3.547   1.013   3.574  0.1561  0.2140 -0.1159
43015SOL    HW140770   3.496   0.967   3.508 -0.1520  0.0783  0.2155
43015SOL    HW240771   3.637   1.011   3.541 -0.0278  0.3351 -0.6340
43016SOL     OW40772   9.930   9.763   9.057  0.3949  0.5562 -0.2511
43016SOL    HW140773   9.867   9.829   9.028 -1.2250 -1.1762 -0.9142
43016SOL    HW240774   9.946   9.709   8.980  0.4419 -0.7549  0.6482
43017SOL     OW40775   5.479   0.004  11.145  0.1031  0.0769  0.7602
43017SOL    HW140776   5.394   0.006  11.188 -0.7197 -0.3461 -0.7900
43017SOL    HW240777   5.542  -0.008  11.217 -1.2825 -1.6161  1.7770
43018SOL     OW40778   2.410   2.466  12.442 -0.3272  0.2718  0.5000
43018SOL    HW140779   2.482   2.503  12.390  0.2178 -0.3398  0.8022
43018SOL    HW240780   2.332   2.511  12.410  0.2213  1.1321  0.3438
43019SOL     OW40781   4.160   8.584  13.374 -0.7601  0.4827 -0.5178
43019SOL    HW140782   4.073   8.577  13.336 -0.6561 -0.3662 -0.6253
43019SOL    HW240783   4.216   8.610  13.301 -0.6936 -0.3840 -0.7976
43020SOL     OW40784   1.777   3.658  10.621 -0.4417 -0.2296 -0.1448
43020SOL    HW140785   1.813   3.675  10.534  3.0557 -0.7927  1.0345
43020SOL    HW240786   1.740   3.570  10.616 -1.2073  0.1453 -1.2931
43021SOL     OW40787   3.586  12.171   7.574 -0.3310  0.2827 -0.4069
43021SOL    HW140788   3.566  12.116   7.649 -2.1863 -0.8532 -1.6564
43021SOL    HW240789   3.553  12.258   7.598  0.0708  0.2019  0.4746
43022SOL     OW40790   9.438   9.490  11.354  0.7975  0.4096  0.2708
43022SOL    HW140791   9.476   9.578  11.348  0.5502  0.4274 -1.5081
43022SOL    HW240792   9.497   9.435  11.302  0.1281 -0.1903  0.1345
43023SOL     OW40793   2.808   8.662   0.995  0.0358  1.2909 -0.4503
43023SOL    HW140794   2.854   8.647   1.077 -2.0014  0.9240  0.6837
43023SOL    HW240795   2.747   8.733   1.014 -1.9629 -0.1875 -0.9687
43024SOL     OW40796   7.110   1.136   8.774 -0.5252 -0.3369  0.0312
43024SOL    HW140797   7.062   1.167   8.697  1.1691  1.2809 -0.4707
43024SOL    HW240798   7.191   1.100   8.738 -0.4482 -1.1541  0.9707
43025SOL     OW40799   1.814   3.807  12.354  0.0398 -0.0358  0.1502
43025SOL    HW140800   1.739   3.782  12.300 -0.5101  0.9455  0.4338
43025SOL    HW240801   1.844   3.889  12.316 -0.0334  0.3969  1.0070
43026SOL     OW40802  13.631   3.951   4.594  0.6013  0.2745  0.3273
43026SOL    HW140803  13.571   3.956   4.520 -0.9873  0.7036  1.5726
43026SOL    HW240804  13.591   4.008   4.661  2.9493  1.3929  0.8667
43027SOL     OW40805   6.281   4.902   9.066 -0.5470 -0.8082 -0.1936
43027SOL    HW140806   6.190   4.929   9.065 -0.9780 -2.1736 -0.2045
43027SOL    HW240807   6.284   4.830   9.129  0.7440 -0.0938  0.6233
43028SOL     OW40808   2.352  12.434   5.449 -0.2961  0.3090  0.4852
43028SOL    HW140809   2.391  12.364   5.501 -0.5076 -0.1250  0.0617
43028SOL    HW240810   2.416  12.506   5.454  0.6331 -0.4337 -0.3004
43029SOL     OW40811  10.486   4.789   3.702  0.2578 -0.2367 -0.1026
43029SOL    HW140812  10.511   4.780   3.794  0.2153 -2.0228 -0.2200
43029SOL    HW240813  10.447   4.704   3.680 -1.3755  0.7542 -1.2826
43030SOL     OW40814  10.944   8.892  11.636  0.4820  0.2348 -0.0262
43030SOL    HW140815  10.915   8.822  11.694  1.3310 -1.2015 -1.2502
43030SOL    HW240816  10.865   8.922  11.593  0.1459 -0.1712  0.3001
43031SOL     OW40817   6.754   2.895  10.171  0.2353  0.0963 -0.6722
43031SOL    HW140818   6.825   2.899  10.107  1.2304  0.9970  0.4399
43031SOL    HW240819   6.701   2.820  10.144  2.7188 -1.8922 -0.4060
43032SOL     OW40820  13.027   1.562  10.133 -0.5117 -0.8065 -0.4321
43032SOL    HW140821  13.074   1.639  10.163  0.0640 -1.5428  0.6278
43032SOL    HW240822  12.937   1.592  10.118 -0.5743 -0.1734  1.0772
43033SOL     OW40823  11.764   6.806   6.860  0.0276 -0.1602 -0.0057
43033SOL    HW140824  11.790   6.826   6.770  0.6739  0.4600  0.3116
43033SOL    HW240825  11.669   6.812   6.859  0.0759  0.7352 -0.4530
43034SOL     OW40826   4.005  10.111  11.438 -0.0795 -0.5825 -0.4281
43034SOL    HW140827   4.097  10.126  11.459 -0.1810  0.3956 -0.6484
43034SOL    HW240828   3.956  10.157  11.505 -0.3979  0.4314 -1.3259
43035SOL     OW40829   0.872   2.105   8.242  0.2936  0.6960 -0.4469
43035SOL    HW140830   0.784   2.131   8.268  0.1073 -0.5658  0.2512
43035SOL    HW240831   0.865   2.012   8.221  1.7723  0.1527  1.1973
43036SOL     OW40832   0.920   3.989   1.078  0.1616 -0.2019 -0.3666
43036SOL    HW140833   0.993   4.040   1.114  1.0140 -1.8378  0.3540
43036SOL    HW240834   0.842   4.030   1.113  0.6171  2.2654 -2.0090
43037SOL     OW40835   2.490  11.229   1.860  0.5109 -0.0316 -0.4305
43037SOL    HW140836   2.417  11.232   1.921 -0.7886 -1.2315 -1.8703
43037SOL    HW240837   2.564  11.198   1.913  0.1061  1.5203  1.1200
43038SOL     OW40838   7.142   8.100   7.181 -0.3435  0.1384 -0.3754
43038SOL    HW140839   7.072   8.161   7.203 -0.8886 -0.2940 -0.8809
43038SOL    HW240840   7.166   8.059   7.264  0.2007  1.2137  0.0109
43039SOL     OW40841   9.748   6.385  11.133  0.2865  0.5833 -0.3051
43039SOL    HW140842   9.843   6.386  11.136  0.2867  1.4446 -0.1353
43039SOL    HW240843   9.721   6.444  11.204 -0.3049  2.2399 -1.8259
43040SOL     OW40844   3.508   3.090   3.451 -0.0648 -0.7850  0.1253
43040SOL    HW140845   3.569   3.161   3.434 -1.6153  0.7227  0.5792
43040SOL    HW240846   3.553   3.034   3.514  2.1757 -1.6097 -2.0350
43041SOL     OW40847  13.407  10.999   4.433  0.2641 -0.1317  0.8221
43041SOL    HW140848  13.408  10.905   4.416  2.1618  0.1243 -0.8024
43041SOL    HW240849  13.330  11.031   4.385 -0.0678 -0.7651  0.9269
43042SOL     OW40850  13.136   7.522   0.055 -0.0118 -0.2788 -0.3627
43042SOL    HW140851  13.047   7.550   0.078  0.3075 -0.6422  1.4483
43042SOL    HW240852  13.189   7.601   0.065  0.2259 -0.5716  0.7929
43043SOL     OW40853  13.565   7.812   5.787  0.9268 -0.0971 -0.2921
43043SOL    HW140854  13.536   7.766   5.708  0.2713  0.8239 -0.5934
43043SOL    HW240855  13.536   7.902   5.775 -0.9252 -0.3115  1.8570
43044SOL     OW40856   0.194   2.612  10.980  0.2169 -0.2928  0.1829
43044SOL    HW140857   0.277   2.567  10.962 -0.2082 -0.7870 -0.6008
43044SOL    HW240858   0.190   2.616  11.076  1.0577 -0.4185  0.2374
43045SOL     OW40859   5.951  11.153  12.289  0.1225  0.0167 -0.5024
43045SOL    HW140860   6.020  11.201  12.243 -0.9224  1.4491 -0.6462
43045SOL    HW240861   5.887  11.132  12.220  0.3555 -1.2124 -0.3577
43046SOL     OW40862  11.709  10.632  10.398 -0.7198 -0.0198 -0.1066
43046SOL    HW140863  11.629  10.679  10.376 -1.1852 -0.7390  0.0084
43046SOL    HW240864  11.712  10.559  10.337  0.0312  0.1875 -0.3306
43047SOL     OW40865   3.527  10.258   7.496  0.1418  0.2746  0.4837
43047SOL    HW140866   3.478  10.297   7.423 -0.1480 -0.3254  0.3547
43047SOL    HW240867   3.571  10.183   7.457  0.0483 -0.0017  0.9147
43048SOL     OW40868  10.148   6.791   4.168  0.2432 -0.6032 -0.1714
43048SOL    HW140869  10.177   6.883   4.162  0.9938 -0.5105  2.8615
43048SOL    HW240870  10.194   6.747   4.097  0.6503  1.1949 -1.0908
43049SOL     OW40871   3.165  13.576   8.603  0.0718  0.2793 -0.1361
43049SOL    HW140872   3.204  13.637   8.664  0.1454  1.5078 -1.3734
43049SOL    HW240873   3.233  13.510   8.587  1.3124  1.8119 -1.4625
43050SOL     OW40874   7.870  12.966  10.564  0.6527  0.2561 -0.7561
43050SOL    HW140875   7.876  12.870  10.564 -0.6884  0.1457  0.6955
43050SOL    HW240876   7.959  12.995  10.586  0.6259 -0.7308  0.7996
43051SOL     OW40877   1.356  10.848   8.878  0.2229  0.4261 -0.3244
43051SOL    HW140878   1.362  10.785   8.806  0.0830  0.1512 -0.0968
43051SOL    HW240879   1.445  10.850   8.914 -0.4966 -2.3413  1.9406
43052SOL     OW40880   3.110   1.373   3.371 -0.2656 -0.4862 -0.3809
43052SOL    HW140881   3.206   1.371   3.373 -0.1303 -0.3091 -3.0023
43052SOL    HW240882   3.086   1.452   3.420  0.8731 -0.7976  0.7267
43053SOL     OW40883   1.884   1.225   8.220  0.0799  0.2395 -0.0192
43053SOL    HW140884   1.860   1.243   8.311 -0.6043 -0.1384 -0.1150
43053SOL    HW240885   1.865   1.132   8.208 -0.9491  0.5369 -0.8689
43054SOL     OW40886   9.448   2.289   9.651 -0.6829 -0.1069  0.2095
43054SOL    HW140887   9.408   2.203   9.650 -2.5042  0.6639 -2.0937
43054SOL    HW240888   9.541   2.273   9.636 -0.9293 -1.6899  0.2810
43055SOL     OW40889   6.259   5.063   7.899 -0.0130  0.1914 -0.0733
43055SOL    HW140890   6.211   5.093   7.822  0.1399  0.1696 -0.1795
43055SOL    HW240891   6.295   5.144   7.937 -0.2891  0.2279  0.1142
43056SOL     OW40892   4.826   9.430   8.146 -0.5119 -0.0732 -0.5237
43056SOL    HW140893   4.865   9.431   8.234 -0.8222  0.9351 -0.3794
43056SOL    HW240894   4.828   9.338   8.120  1.7354 -0.0906 -0.4393
43057SOL     OW40895  10.799   4.385  10.525 -0.2237  0.5118  0.2981
43057SOL    HW140896  10.719   4.333  10.536  0.6955 -0.7517  1.3112
43057SOL    HW240897  10.867   4.335  10.570  1.0147  1.8947  0.0589
43058SOL     OW40898   6.763   3.305   6.089 -0.0717 -0.5895  0.2389
43058SOL    HW140899   6.793   3.215   6.095  2.3921  0.2097  0.7532
43058SOL    HW240900   6.780   3.342   6.176  0.0516  0.6808 -0.3075
43059SOL     OW40901   6.647   8.213  10.254 -0.1526 -0.0526  0.3885
43059SOL    HW140902   6.635   8.227  10.160  1.5468 -0.1832  0.1133
43059SOL    HW240903   6.586   8.143  10.277  0.5543 -1.1519 -0.9684
43060SOL     OW40904  10.872   5.764   3.362  0.5657 -0.0912  0.0066
43060SOL    HW140905  10.889   5.734   3.273 -1.0672 -0.5931 -0.1546
43060SOL    HW240906  10.780   5.743   3.378  1.0027 -0.6649  2.0683
43061SOL     OW40907   9.241   1.117  12.349  0.1144  0.1380 -0.1411
43061SOL    HW140908   9.320   1.131  12.402  0.2838  0.6833 -0.5290
43061SOL    HW240909   9.273   1.074  12.270 -0.4074 -2.7303  1.0759
43062SOL     OW40910   4.196   3.566  12.143 -0.3414 -0.1363  0.4161
43062SOL    HW140911   4.242   3.586  12.224  2.2469 -0.3257 -0.8873
43062SOL    HW240912   4.200   3.647  12.092  0.8680 -0.8511 -0.7075
43063SOL     OW40913   0.689  13.476   2.666 -0.4522 -0.3961 -0.1268
43063SOL    HW140914   0.627  13.532   2.620  0.0648 -0.2491 -0.6531
43063SOL    HW240915   0.772  13.489   2.620  0.3688  0.6431  1.5421
43064SOL     OW40916   8.737  13.300   0.366 -1.0110 -0.0740 -0.7147
43064SOL    HW140917   8.733  13.211   0.329 -1.1659  0.3334 -1.7331
43064SOL    HW240918   8.646  13.327   0.373 -1.0203 -0.3788  0.6225
43065SOL     OW40919  13.051   0.828   8.295 -0.3538 -0.2363  0.1975
43065SOL    HW140920  13.016   0.905   8.252  2.1523  1.2533  0.6044
43065SOL    HW240921  13.102   0.783   8.227  0.5158  0.0564  0.6362
43066SOL     OW40922   7.206  10.783   8.910 -0.1228  0.0256 -0.3968
43066SOL    HW140923   7.179  10.765   8.820  2.5371  1.7657 -1.7093
43066SOL    HW240924   7.207  10.879   8.916  0.1129 -0.0481  1.3668
43067SOL     OW40925  12.308   8.531   2.322  0.2116 -0.3245  0.1977
43067SOL    HW140926  12.328   8.488   2.239  0.0047  0.1888 -0.1212
43067SOL    HW240927  12.245   8.599   2.299  0.3514 -0.0091  0.7382
43068SOL     OW40928  12.704   8.408   6.499  0.0190  0.1577  0.0956
43068SOL    HW140929  12.745   8.494   6.499  1.4811 -0.5166  0.0675
43068SOL    HW240930  12.658   8.403   6.583 -0.6209  1.1897 -0.1753
43069SOL     OW40931   5.210   7.732   2.291  0.4468 -0.3039  0.5812
43069SOL    HW140932   5.163   7.814   2.274  1.6717  0.3056  0.0137
43069SOL    HW240933   5.142   7.672   2.322 -0.7027  0.5510 -0.1605
43070SOL     OW40934  12.490   0.800   1.402  0.1401  0.3280  0.0291
43070SOL    HW140935  12.506   0.706   1.407 -1.0634  0.1462  0.8549
43070SOL    HW240936  12.574   0.840   1.427  1.1200 -0.4692 -1.7977
43071SOL     OW40937   5.760   9.994   1.747  0.7285  0.2291  0.1195
43071SOL    HW140938   5.781  10.062   1.810  1.2647  0.2335 -0.0550
43071SOL    HW240939   5.816   9.921   1.772  1.2685  0.3843 -0.6136
43072SOL     OW40940   9.267   5.119  11.521 -0.3469 -0.0971  0.1951
43072SOL    HW140941   9.314   5.086  11.598  1.2328  0.3781 -0.5131
43072SOL    HW240942   9.325   5.187  11.485 -0.3945 -1.2163 -2.1819
43073SOL     OW40943   3.602   6.486   8.236 -0.1186 -0.4817 -0.0993
43073SOL    HW140944   3.594   6.467   8.142 -0.4579  1.3241 -0.4721
43073SOL    HW240945   3.696   6.503   8.248 -0.3170  1.0745 -0.5218
43074SOL     OW40946   9.276   7.048  12.637  0.3484 -0.7074  0.2327
43074SOL    HW140947   9.236   7.073  12.553  1.6403 -0.2858 -0.2902
43074SOL    HW240948   9.241   7.112  12.699  0.5725 -0.0355 -0.3111
43075SOL     OW40949   0.141   9.169   3.506 -0.0484  0.4019  0.2975
43075SOL    HW140950   0.059   9.144   3.464  0.0474  1.6871 -0.7310
43075SOL    HW240951   0.196   9.199   3.434  1.4562 -0.7101  0.9247
43076SOL     OW40952   2.378  12.829   5.826  0.2156 -0.2400  0.1967
43076SOL    HW140953   2.341  12.741   5.818 -2.0035  0.5000  1.3419
43076SOL    HW240954   2.387  12.843   5.920 -0.4881  1.1024  0.0995
43077SOL     OW40955  12.200  11.423   0.169 -0.0465 -0.1377 -0.0192
43077SOL    HW140956  12.227  11.468   0.249 -1.5533  1.3659 -0.3180
43077SOL    HW240957  12.112  11.455   0.152  0.1542 -0.6217 -2.1705
43078SOL     OW40958   0.823   9.269  11.539 -0.1123 -0.0690 -0.1766
43078SOL    HW140959   0.748   9.232  11.585  0.2064 -0.4938  0.0142
43078SOL    HW240960   0.872   9.193  11.509  0.9288  0.1793  0.8227
43079SOL     OW40961   0.298   1.059  11.378 -0.4194  0.4420  0.3075
43079SOL    HW140962   0.293   0.996  11.449 -2.9665  0.5615  0.3464
43079SOL    HW240963   0.277   1.009  11.299 -0.5670  0.8703  0.0661
43080SOL     OW40964   7.785   2.148  13.546 -0.0598  0.8441 -0.0847
43080SOL    HW140965   7.789   2.242  13.530 -1.6207  0.8374 -0.7338
43080SOL    HW240966   7.714   2.117  13.490 -0.9584 -0.3777  1.6287
43081SOL     OW40967   5.929   9.644   0.494  0.3268 -0.3549  0.1763
43081SOL    HW140968   5.967   9.654   0.407  2.2912  1.3044  1.1153
43081SOL    HW240969   5.862   9.713   0.499  0.2930 -0.3753  0.0081
43082SOL     OW40970   4.828  12.928   7.470 -0.1145 -0.0704  0.6162
43082SOL    HW140971   4.796  13.013   7.441  0.9460 -0.0228 -0.4910
43082SOL    HW240972   4.751  12.871   7.467 -0.4778  0.4480 -0.2834
43083SOL     OW40973  11.606   2.216   9.641  0.3681 -0.2364  0.2297
43083SOL    HW140974  11.539   2.165   9.688  1.3240 -1.9389 -0.1838
43083SOL    HW240975  11.685   2.161   9.645  1.2543  0.9150 -0.8501
43084SOL     OW40976   3.579   6.115   8.722  0.8424  0.0146  0.2684
43084SOL    HW140977   3.574   6.164   8.804 -1.1466 -0.1363  0.2833
43084SOL    HW240978   3.576   6.023   8.749  0.4078 -0.0369  0.0546
43085SOL     OW40979  13.392  10.769  12.114 -0.2195 -0.7190  0.0470
43085SOL    HW140980  13.462  10.708  12.091  0.7379  0.5574 -0.5453
43085SOL    HW240981  13.422  10.811  12.194 -1.4420 -1.8518  1.1562
43086SOL     OW40982   5.339   3.153   7.439  0.0601  0.4593 -0.4300
43086SOL    HW140983   5.268   3.133   7.378  0.0108  1.3248 -0.6683
43086SOL    HW240984   5.296   3.193   7.514  0.1228 -0.5963  0.1865
43087SOL     OW40985   6.723   1.501   0.241 -0.4397 -0.2638 -0.4537
43087SOL    HW140986   6.798   1.505   0.300 -0.3596  0.7508 -0.6088
43087SOL    HW240987   6.761   1.513   0.154 -0.6969 -0.5498 -0.6081
43088SOL     OW40988   6.253   9.829  13.252  0.4563  0.6483  0.2128
43088SOL    HW140989   6.315   9.784  13.309  1.7901  2.1706  0.0292
43088SOL    HW240990   6.307   9.888  13.199 -1.0435  1.2825 -0.6773
43089SOL     OW40991   1.198   0.297   1.765  0.2230 -0.2142 -0.3403
43089SOL    HW140992   1.130   0.363   1.780 -0.6714 -0.2729 -3.3184
43089SOL    HW240993   1.158   0.215   1.793 -1.1173 -0.2683 -2.1961
43090SOL     OW40994   9.999   0.815  11.604  0.0438  0.2711  0.3894
43090SOL    HW140995   9.964   0.903  11.587 -0.1388  0.1290  0.0193
43090SOL    HW240996  10.048   0.824  11.686  3.3246  1.6622 -1.5427
43091SOL     OW40997   4.754   8.715   3.377 -0.0890 -0.3997 -0.3340
43091SOL    HW140998   4.732   8.633   3.333 -0.0771  0.7291 -2.6539
43091SOL    HW240999   4.766   8.692   3.469  0.5024 -3.0662 -1.0061
43092SOL     OW41000   7.813   6.272   5.017 -0.9362  0.2558 -0.0820
43092SOL    HW141001   7.833   6.310   5.103 -1.6228 -1.8296  1.0574
43092SOL    HW241002   7.899   6.260   4.977 -0.3966 -0.9888  1.3538
43093SOL     OW41003   2.312   8.434   0.523  0.0619 -0.3659  0.3354
43093SOL    HW141004   2.293   8.387   0.604  1.4182 -1.3282  0.1274
43093SOL    HW241005   2.341   8.520   0.552 -2.5318  0.4641  0.7171
43094SOL     OW41006   1.756   3.476   8.979  0.1519  0.2538  0.1320
43094SOL    HW141007   1.734   3.533   8.905 -0.0196  0.3375  0.2482
43094SOL    HW241008   1.687   3.409   8.977 -0.8639  1.2225  1.2688
43095SOL     OW41009   5.407   0.835   1.607  0.2765 -0.2138 -0.6892
43095SOL    HW141010   5.484   0.785   1.636  2.2214  2.3616 -1.0784
43095SOL    HW241011   5.358   0.852   1.688  0.6574 -0.9728 -0.2813
43096SOL     OW41012   5.772   6.336   5.105  0.4960 -0.3117  0.0600
43096SOL    HW141013   5.687   6.379   5.096  0.9829  0.4037 -1.3809
43096SOL    HW241014   5.754   6.257   5.155 -1.2167 -0.7488 -1.1810
43097SOL     OW41015   3.374  13.021   0.467 -0.3275 -0.7471  0.4625
43097SOL    HW141016   3.364  12.925   0.471 -2.2991 -0.6036  0.0747
43097SOL    HW241017   3.465  13.034   0.439  0.6594 -2.4339  2.5639
43098SOL     OW41018   9.305   7.236   5.479 -0.6159  0.2176  0.4267
43098SOL    HW141019   9.335   7.148   5.458  0.8697  0.0501  2.8283
43098SOL    HW241020   9.216   7.241   5.444 -0.9210 -2.4272  0.6542
43099SOL     OW41021   4.841   9.854  12.281 -0.0824  0.4075 -0.5966
43099SOL    HW141022   4.760   9.803  12.293  1.2489 -1.5110  0.7813
43099SOL    HW241023   4.866   9.838  12.191 -0.4817 -0.1604 -0.6153
43100SOL     OW41024   8.770  11.058   0.613  0.2321 -0.0642  0.7580
43100SOL    HW141025   8.863  11.051   0.595  0.3299 -1.9614  1.8031
43100SOL    HW241026   8.742  10.969   0.634 -2.0056  0.2908 -0.3652
43101SOL     OW41027   9.615   4.520   5.998 -0.2302 -0.2131 -0.9749
43101SOL    HW141028   9.576   4.434   6.012 -0.0154  0.0655  1.8363
43101SOL    HW241029   9.696   4.520   6.049 -1.9946  2.7506  2.2819
43102SOL     OW41030   9.124  10.016   8.932  0.0526  0.2326  0.2923
43102SOL    HW141031   9.072   9.976   9.002 -0.2107  2.0451  1.2014
43102SOL    HW241032   9.062  10.029   8.861 -1.1239  3.2214  1.6952
43103SOL     OW41033   7.981   1.313  11.417  0.3877 -0.1355 -0.0412
43103SOL    HW141034   7.932   1.391  11.441  0.7606  0.3006 -0.6823
43103SOL    HW241035   8.070   1.344  11.400  0.9567 -0.9390  1.2579
43104SOL     OW41036   6.979  12.307   4.826 -0.1112 -0.1888 -0.2653
43104SOL    HW141037   6.958  12.251   4.752 -0.2886  1.1286 -1.2369
43104SOL    HW241038   6.906  12.294   4.887 -0.2998 -0.7721 -0.6076
43105SOL     OW41039   1.930   4.594   7.001  0.3667  0.6295 -0.3203
43105SOL    HW141040   1.972   4.594   7.087  2.2566  1.6615 -1.1969
43105SOL    HW241041   1.993   4.552   6.943 -0.7798  0.1648 -1.2743
43106SOL     OW41042   5.300   5.410   1.391  0.0955  0.0002 -0.4359
43106SOL    HW141043   5.363   5.477   1.419 -0.9012  0.0762  1.7831
43106SOL    HW241044   5.249   5.391   1.469 -0.9187 -1.9869 -1.5210
43107SOL     OW41045   0.421  13.285  10.569  0.0628  0.0244  0.0817
43107SOL    HW141046   0.355  13.309  10.504  0.8481 -0.0178 -0.7402
43107SOL    HW241047   0.498  13.338  10.546  0.0581  0.7174  1.5517
43108SOL     OW41048   9.868  10.881   9.521 -0.8171 -0.2663  0.1861
43108SOL    HW141049   9.787  10.928   9.545  0.6188  1.8881  1.1252
43108SOL    HW241050   9.895  10.838   9.602 -0.5662 -0.2154  0.1316
43109SOL     OW41051   4.549   3.185   0.820  0.5354  0.3256  0.0150
43109SOL    HW141052   4.486   3.173   0.749 -0.5432 -0.0447  0.9883
43109SOL    HW241053   4.600   3.262   0.795 -0.8155  1.1096 -0.4613
43110SOL     OW41054   2.920   2.876  12.574  0.3466  0.2666 -0.6368
43110SOL    HW141055   2.990   2.835  12.524  0.3140  0.0102 -0.4764
43110SOL    HW241056   2.964   2.937  12.632  0.3528  0.8731 -1.2662
43111SOL     OW41057  10.021   2.225   3.303  0.7212 -0.1907  0.4449
43111SOL    HW141058  10.012   2.176   3.385 -0.3583  1.1776  1.1881
43111SOL    HW241059  10.099   2.188   3.261  0.2796 -2.1266  1.2314
43112SOL     OW41060  12.627   2.199   2.419  0.1401 -0.3869 -0.0464
43112SOL    HW141061  12.722   2.189   2.425  0.0783 -1.3302 -0.4206
43112SOL    HW241062  12.592   2.151   2.494 -0.0862 -1.0766 -0.5840
43113SOL     OW41063   4.446  13.038  10.506  0.2402 -0.4266 -0.7563
43113SOL    HW141064   4.485  13.091  10.437  0.9020  0.5528  0.3285
43113SOL    HW241065   4.364  13.083  10.528  1.0853  0.5287  0.5677
43114SOL     OW41066  10.971   1.093   3.241 -0.1427 -0.0188 -0.3992
43114SOL    HW141067  11.003   1.184   3.243  1.4227 -0.5204  2.1756
43114SOL    HW241068  10.905   1.090   3.310 -1.1057 -0.5847 -1.3202
43115SOL     OW41069   4.024   8.810  10.905 -0.3145 -0.1048  0.1637
43115SOL    HW141070   3.938   8.830  10.941 -0.1853 -0.2276  0.5547
43115SOL    HW241071   4.007   8.758  10.827 -0.5741 -0.7436  0.6376
43116SOL     OW41072   8.201  10.650   3.390  0.5532  0.4393 -0.1821
43116SOL    HW141073   8.132  10.652   3.324  1.2435 -0.4799 -0.9590
43116SOL    HW241074   8.269  10.594   3.353  1.3762  0.6655  0.9084
43117SOL     OW41075   2.048   5.557   7.930  0.1092  0.3109  0.1810
43117SOL    HW141076   2.026   5.544   7.837  0.1520 -1.6679  0.3995
43117SOL    HW241077   2.067   5.650   7.937 -1.7118  0.8852 -1.4174
43118SOL     OW41078   9.520   6.841   6.167  0.3043  0.5125  0.0559
43118SOL    HW141079   9.490   6.894   6.240 -0.1844  0.1367  0.1280
43118SOL    HW241080   9.473   6.758   6.175 -1.5711  1.2637 -1.9918
43119SOL     OW41081   2.938   0.992   3.182 -0.4597 -0.0173 -0.6471
43119SOL    HW141082   3.001   0.980   3.111  1.5025 -0.7908  1.1162
43119SOL    HW241083   2.941   1.086   3.200 -1.2437  0.2498 -1.7621
43120SOL     OW41084   3.093  11.293   3.505  0.1961  0.0116 -0.9800
43120SOL    HW141085   3.001  11.321   3.501  0.2624  0.2413 -0.8969
43120SOL    HW241086   3.117  11.305   3.596  0.5026  0.5736 -1.1293
43121SOL     OW41087   3.109   1.683   4.857  0.0886  0.5124 -0.0331
43121SOL    HW141088   3.146   1.683   4.769  2.2619  1.0892  0.7853
43121SOL    HW241089   3.175   1.637   4.910 -0.7110  0.9710  1.4239
43122SOL     OW41090   0.984   6.521   4.622  0.4183 -0.4183  0.2490
43122SOL    HW141091   0.939   6.437   4.613 -2.3166  0.5796  2.7533
43122SOL    HW241092   0.930   6.583   4.573  0.4715  0.3783  1.1501
43123SOL     OW41093   7.729   9.600   6.453 -0.4674  0.1609  0.3323
43123SOL    HW141094   7.713   9.536   6.523 -4.9511  0.0087 -0.5705
43123SOL    HW241095   7.694   9.682   6.488  1.7651  1.3340  0.0076
43124SOL     OW41096   2.708  10.079   6.996  0.0880 -0.5115  0.0768
43124SOL    HW141097   2.692  10.148   6.931  0.3484 -0.1509  0.3960
43124SOL    HW241098   2.801  10.086   7.016  0.0081 -0.6226  0.4915
43125SOL     OW41099   9.403  10.864   0.015  0.6982  0.3149  0.3606
43125SOL    HW141100   9.477  10.856  -0.045  1.1681  2.7387  0.5293
43125SOL    HW241101   9.435  10.921   0.084 -1.5081  1.9710  0.0951
43126SOL     OW41102   3.485   6.557   2.301  0.0613 -0.2358 -0.0701
43126SOL    HW141103   3.502   6.464   2.318 -0.3714 -0.1356  0.9871
43126SOL    HW241104   3.410   6.578   2.357  0.9939  1.0892  0.7310
43127SOL     OW41105   8.506   0.371   1.467 -0.0259  0.2863  0.0990
43127SOL    HW141106   8.429   0.329   1.428 -0.5673  0.5843  0.8219
43127SOL    HW241107   8.570   0.300   1.477  0.7930  0.4840 -2.8590
43128SOL     OW41108  12.152   0.935   6.100  0.5469 -0.0175  0.1769
43128SOL    HW141109  12.209   0.947   6.025  1.9515  0.1264  1.2303
43128SOL    HW241110  12.078   0.883   6.066  1.2655 -0.1707 -1.2183
43129SOL     OW41111  12.119  10.301   1.398 -0.4070 -0.2822 -0.4694
43129SOL    HW141112  12.101  10.216   1.438 -1.1795 -0.0244 -0.2540
43129SOL    HW241113  12.212  10.315   1.413  0.2571 -2.0753 -2.4219
43130SOL     OW41114   2.423  10.882  13.499  0.5819  0.5789  0.0222
43130SOL    HW141115   2.415  10.868  13.405  1.8210  0.0593 -0.0214
43130SOL    HW241116   2.346  10.839  13.536  1.6106 -1.9013 -0.5361
43131SOL     OW41117   0.629  10.915   7.222  0.5089  0.3074 -0.1030
43131SOL    HW141118   0.724  10.927   7.216  0.3447  2.2665  0.4150
43131SOL    HW241119   0.611  10.840   7.165  2.2726  0.3656 -0.8187
43132SOL     OW41120   9.123   8.620   3.423 -0.0135  0.5518 -0.6436
43132SOL    HW141121   9.137   8.537   3.467  2.0649  1.0872 -0.1908
43132SOL    HW241122   9.061   8.667   3.479 -0.3188 -0.2373 -0.3096
43133SOL     OW41123   6.925   2.229  13.258 -0.0731  0.0020  0.1994
43133SOL    HW141124   6.963   2.167  13.197 -0.0555 -0.2193  0.4354
43133SOL    HW241125   6.832   2.232  13.236  0.1499  0.8945 -0.6862
43134SOL     OW41126   2.189   5.406   4.264 -0.5400  0.8364  0.2273
43134SOL    HW141127   2.203   5.472   4.196 -0.9060  1.2086  0.5114
43134SOL    HW241128   2.276   5.394   4.304  0.2799 -1.2234 -1.9389
43135SOL     OW41129   8.761  11.049   9.012  0.1985 -0.4122 -0.5804
43135SOL    HW141130   8.807  11.074   9.092  1.5097  0.5575 -1.5681
43135SOL    HW241131   8.678  11.096   9.016 -0.8100 -2.2171  1.2592
43136SOL     OW41132  10.376  13.376   1.255  0.6135 -0.1367  0.0471
43136SOL    HW141133  10.466  13.359   1.229  0.8802  3.3951 -1.9333
43136SOL    HW241134  10.324  13.363   1.176 -0.5216 -1.2479  0.9339
43137SOL     OW41135  11.645   7.406  11.626  0.4563  0.4973 -0.1167
43137SOL    HW141136  11.657   7.332  11.566 -0.7868 -0.0347  0.2749
43137SOL    HW241137  11.625   7.480  11.569  0.4756  0.2638 -0.4287
43138SOL     OW41138   0.245   0.734  13.295  0.6453 -0.1943 -0.7573
43138SOL    HW141139   0.250   0.828  13.312 -0.8890  0.0174 -1.3446
43138SOL    HW241140   0.193   0.699  13.368  0.0755 -0.3714 -1.2429
43139SOL     OW41141  10.040  11.485   6.954 -0.3979  0.1265  0.0921
43139SOL    HW141142   9.999  11.559   6.999  0.0010  0.4742 -0.1042
43139SOL    HW241143  10.092  11.525   6.885  0.6904 -0.2632  0.6633
43140SOL     OW41144   8.253   2.419   8.038 -0.5125  0.3740  0.1132
43140SOL    HW141145   8.220   2.505   8.010 -0.6114  0.5342  0.7025
43140SOL    HW241146   8.280   2.376   7.957 -0.2477  1.0512 -0.1643
43141SOL     OW41147  13.607   4.392  12.304 -0.2743  0.5321 -0.1462
43141SOL    HW141148  13.673   4.350  12.360 -0.0867 -0.0423 -0.7819
43141SOL    HW241149  13.646   4.475  12.279 -0.6256  1.0931  1.0891
43142SOL     OW41150   3.375   7.579   9.050  0.5599 -0.0773 -0.0773
43142SOL    HW141151   3.400   7.487   9.043  0.3291 -0.2325  0.9782
43142SOL    HW241152   3.380   7.598   9.144 -0.5709  0.6472 -0.1464
43143SOL     OW41153   0.864   6.507   4.930  0.5283  0.3106 -0.5566
43143SOL    HW141154   0.802   6.524   4.859 -1.7301  1.5227  1.5585
43143SOL    HW241155   0.877   6.412   4.928 -1.3473  0.0244 -1.1497
43144SOL     OW41156   0.698   6.594   0.246 -0.3572  0.0199  0.4622
43144SOL    HW141157   0.703   6.501   0.267  0.6695 -0.4867 -1.7489
43144SOL    HW241158   0.631   6.600   0.178  1.1757  0.4630 -1.1113
43145SOL     OW41159   2.739   7.667  12.225  0.1641  0.2169  0.0355
43145SOL    HW141160   2.698   7.644  12.141 -0.5282  0.3425  0.3360
43145SOL    HW241161   2.751   7.583  12.269 -0.3844  0.2371  0.2267
43146SOL     OW41162   5.952  11.446   7.869 -0.4394  0.2528  0.1120
43146SOL    HW141163   5.991  11.491   7.795 -0.2044  1.0160  0.6828
43146SOL    HW241164   5.945  11.355   7.841  0.7240  0.3052 -0.4114
43147SOL     OW41165   5.959   4.822  12.301 -0.0232  0.4035  0.5618
43147SOL    HW141166   6.000   4.906  12.322  0.7395  0.1956 -0.0709
43147SOL    HW241167   5.870   4.830  12.337  0.6938  0.6800  2.3960
43148SOL     OW41168   8.305   0.460   3.840 -0.1114 -0.1785 -0.1231
43148SOL    HW141169   8.235   0.402   3.811  0.3144 -1.1606  0.7812
43148SOL    HW241170   8.309   0.448   3.935  1.5543 -0.4589 -0.2038
43149SOL     OW41171  13.722   4.128   6.728  0.0242 -0.0198  0.1052
43149SOL    HW141172  13.710   4.202   6.788 -1.1413  0.1624 -0.3273
43149SOL    HW241173  13.668   4.150   6.652  1.3396 -0.3271 -0.9546
43150SOL     OW41174   4.713   2.008  11.009  0.0756  0.0253 -0.4652
43150SOL    HW141175   4.727   1.989  11.102  1.7517 -0.3384 -0.7553
43150SOL    HW241176   4.745   1.930  10.963  0.6118  0.7743 -1.3957
43151SOL     OW41177  12.601   2.801   8.943 -0.3059 -0.8187  0.2183
43151SOL    HW141178  12.613   2.729   9.005  0.4586 -1.6953 -0.9167
43151SOL    HW241179  12.690   2.831   8.923 -0.6144  0.6808  0.9065
43152SOL     OW41180   5.410   3.010   4.899  0.1706 -0.6659  1.2683
43152SOL    HW141181   5.362   2.927   4.899 -0.7759 -0.1576  2.8458
43152SOL    HW241182   5.401   3.043   4.988 -1.7549  2.4437  0.0920
43153SOL     OW41183  12.430   7.734   2.139 -0.2800 -0.0980 -0.1654
43153SOL    HW141184  12.502   7.777   2.185  0.7446 -1.1625 -0.7029
43153SOL    HW241185  12.379   7.692   2.209  0.0626  0.0226  0.1621
43154SOL     OW41186   5.687   3.665   7.864 -0.1835  0.3104  0.4493
43154SOL    HW141187   5.652   3.682   7.777  0.2260 -0.0898  0.2059
43154SOL    HW241188   5.731   3.747   7.889  0.7884  0.0169 -0.2431
43155SOL     OW41189   3.294   5.446   6.103  0.6452  0.3945  0.1712
43155SOL    HW141190   3.233   5.461   6.175  0.7358  0.9860  0.1307
43155SOL    HW241191   3.252   5.488   6.027  0.6735  0.0065 -0.0613
43156SOL     OW41192  13.647  11.409  11.113 -0.1173  0.1430 -0.0133
43156SOL    HW141193  13.628  11.424  11.206  1.5802  2.1049  0.0625
43156SOL    HW241194  13.734  11.446  11.099  0.5391 -1.8892 -1.9806
43157SOL     OW41195   1.647  11.891   2.524  0.4744  0.0132 -0.7125
43157SOL    HW141196   1.613  11.918   2.439  0.8024 -0.8639 -1.1322
43157SOL    HW241197   1.582  11.923   2.587 -0.5902 -0.6935 -1.4234
43158SOL     OW41198   1.274   0.954   1.237  0.8576 -0.3710 -0.1021
43158SOL    HW141199   1.214   0.975   1.308 -0.2390  1.5742 -1.4858
43158SOL    HW241200   1.219   0.913   1.170  1.7695 -1.7000 -0.0794
43159SOL     OW41201   1.017   5.561   3.905 -0.1895  0.0975 -0.0943
43159SOL    HW141202   0.945   5.609   3.946 -0.2849 -1.2952  1.5189
43159SOL    HW241203   1.094   5.584   3.957  0.1551  0.0789 -0.5901
43160SOL     OW41204  11.232   9.464   2.435 -0.2740  0.0828  0.0448
43160SOL    HW141205  11.179   9.502   2.365 -0.6046 -0.3384  0.0615
43160SOL    HW241206  11.300   9.414   2.389  0.6581  1.3200  0.0090
43161SOL     OW41207  10.902  12.625   1.126  0.0324  0.0805 -0.3327
43161SOL    HW141208  10.970  12.563   1.151 -0.9212 -0.8149  0.0999
43161SOL    HW241209  10.909  12.696   1.190 -0.2597 -0.6224  0.4934
43162SOL     OW41210   2.157   6.113   8.485  0.4343 -0.0330 -0.5233
43162SOL    HW141211   2.180   6.177   8.553 -0.2745  0.0562 -0.3625
43162SOL    HW241212   2.161   6.028   8.529  0.8042 -0.0553 -0.5920
43163SOL     OW41213   9.519   0.799   3.966  0.0671 -0.1645 -0.1489
43163SOL    HW141214   9.511   0.823   4.058  1.5889  2.7464 -0.6651
43163SOL    HW241215   9.445   0.842   3.923  0.2060 -0.2690 -0.5024
43164SOL     OW41216   3.952  10.835   6.013 -0.6965 -0.4539 -0.1008
43164SOL    HW141217   3.869  10.802   6.046 -0.8072  0.2156  0.3050
43164SOL    HW241218   3.982  10.768   5.952 -0.9247 -1.2950  0.6957
43165SOL     OW41219  10.408   5.680  12.613  0.3866 -0.0152 -0.4783
43165SOL    HW141220  10.380   5.614  12.677 -2.8024  0.3214 -1.3363
43165SOL    HW241221  10.455   5.745  12.665  0.4475 -1.1701  1.0009
43166SOL     OW41222   0.980   7.006   2.140 -0.2337  1.0244  0.1403
43166SOL    HW141223   0.903   6.971   2.096  0.0710  0.5567 -0.0245
43166SOL    HW241224   1.053   6.956   2.105  0.0445  0.8072  0.9982
43167SOL     OW41225  10.142   9.075   7.992  0.4898 -0.2713 -0.5236
43167SOL    HW141226  10.227   9.065   8.035  0.8057  1.6864 -0.5917
43167SOL    HW241227  10.158   9.140   7.923 -0.8342 -0.6529 -1.2166
43168SOL     OW41228   8.857  10.321   8.520  0.5997 -0.0082 -0.1684
43168SOL    HW141229   8.926  10.263   8.554  0.4604 -0.4147 -0.5806
43168SOL    HW241230   8.894  10.409   8.529  0.7356 -0.1400  0.6463
43169SOL     OW41231  11.194   7.506  12.598 -0.4358  0.1915 -0.3846
43169SOL    HW141232  11.259   7.576  12.588  0.5844 -0.6438  0.2878
43169SOL    HW241233  11.245   7.425  12.596 -1.2364 -0.4213  1.9028
43170SOL     OW41234   0.076   7.653   5.428  0.1948  0.0027  0.1145
43170SOL    HW141235   0.092   7.730   5.482 -0.6349 -0.1820  0.6432
43170SOL    HW241236   0.042   7.587   5.489  0.5490 -0.6683 -0.3940
43171SOL     OW41237   1.774  11.517  10.983  0.5469  0.3649  0.2250
43171SOL    HW141238   1.831  11.559  10.918  0.6794  3.4382  2.1335
43171SOL    HW241239   1.692  11.567  10.978  0.4422  0.4291  2.1286
43172SOL     OW41240   3.738   0.666  12.484  0.4821 -0.1576 -0.1510
43172SOL    HW141241   3.716   0.588  12.433 -1.9153  0.6386 -0.4605
43172SOL    HW241242   3.786   0.722  12.422  0.7023 -0.6498 -0.4355
43173SOL     OW41243   2.504  11.155  10.099 -0.1152  0.1250  0.8732
43173SOL    HW141244   2.583  11.209  10.111  0.1050  0.1703 -0.5850
43173SOL    HW241245   2.530  11.069  10.132  0.4749  0.1973  0.6226
43174SOL     OW41246   0.259   5.920   9.508 -0.0811  0.0174 -0.1578
43174SOL    HW141247   0.180   5.929   9.562 -0.4348 -0.3936 -0.6060
43174SOL    HW241248   0.248   5.837   9.462 -1.2285  1.6748 -3.1872
43175SOL     OW41249   6.857  12.377   3.225  0.3228 -0.2474 -0.0503
43175SOL    HW141250   6.880  12.295   3.182 -1.2593 -1.7485  1.7499
43175SOL    HW241251   6.765  12.391   3.203  0.3056  0.5112  0.4501
43176SOL     OW41252  13.580   3.379  10.200  0.4350 -0.2425 -0.4249
43176SOL    HW141253  13.651   3.416  10.252 -0.1622  0.9315 -0.4101
43176SOL    HW241254  13.517   3.348  10.265  0.7865 -1.0277 -0.4428
43177SOL     OW41255   7.687   4.306   5.662  0.0865 -0.2611 -0.3698
43177SOL    HW141256   7.696   4.401   5.660  1.8409 -0.4050 -1.3423
43177SOL    HW241257   7.776   4.274   5.678 -0.8355 -1.7286  2.6709
43178SOL     OW41258   1.554  10.579   2.933 -0.1855  0.1773  0.2564
43178SOL    HW141259   1.641  10.553   2.904 -0.3459 -0.0393 -0.0386
43178SOL    HW241260   1.531  10.654   2.878 -1.1147 -1.1709 -1.2715
43179SOL     OW41261   1.335   6.671  10.624  0.5218 -0.4565 -0.0161
43179SOL    HW141262   1.415   6.722  10.637  0.4391 -0.2243 -0.4177
43179SOL    HW241263   1.264   6.734  10.639  0.4150 -0.5687 -0.0470
43180SOL     OW41264   6.608   1.463   8.932 -0.2608  0.6938 -0.2120
43180SOL    HW141265   6.626   1.412   9.011 -0.7006  0.4520 -0.2640
43180SOL    HW241266   6.687   1.516   8.919 -0.5855  1.5191  0.9827
43181SOL     OW41267   6.426  10.989  11.209 -0.0836 -0.7409 -0.5611
43181SOL    HW141268   6.514  10.997  11.247  0.0886 -0.1241 -1.0762
43181SOL    HW241269   6.441  10.977  11.116 -0.5598  0.9504 -0.8955
43182SOL     OW41270   0.590   8.273   3.062  0.1869  0.2860 -0.3116
43182SOL    HW141271   0.574   8.340   3.128  0.3481 -0.0180  0.0418
43182SOL    HW241272   0.530   8.202   3.085  0.5828 -0.0190 -0.2025
43183SOL     OW41273   7.880   9.446  10.288  0.2938 -0.2636 -0.4555
43183SOL    HW141274   7.869   9.447  10.192 -0.3559  0.9869 -0.3889
43183SOL    HW241275   7.793   9.423  10.321 -0.9980  4.0542 -0.0944
43184SOL     OW41276   7.450  10.672  13.596 -0.4246  0.0365  0.0940
43184SOL    HW141277   7.466  10.766  13.592  0.2121  0.0053  1.3008
43184SOL    HW241278   7.533  10.632  13.569 -0.9335 -0.2074 -1.1919
43185SOL     OW41279   5.777   2.277  11.511  0.2774  0.1035  0.2931
43185SOL    HW141280   5.793   2.351  11.454 -0.4555  1.3757  1.6538
43185SOL    HW241281   5.863   2.252  11.545  0.4485  0.7756  0.3527
43186SOL     OW41282  11.431   4.584  10.109 -0.1936 -0.2838  0.3282
43186SOL    HW141283  11.501   4.646  10.093  0.4404 -0.7544  1.2081
43186SOL    HW241284  11.353   4.637  10.120 -0.3485  0.1882 -2.3075
43187SOL     OW41285  10.598  10.332   1.981 -0.6918 -0.8634  0.1884
43187SOL    HW141286  10.518  10.380   2.003 -1.3260 -1.7795 -0.0258
43187SOL    HW241287  10.669  10.384   2.017 -1.3238  0.4366 -0.4053
43188SOL     OW41288  12.540   1.287   4.079 -0.1014 -0.6067  0.3358
43188SOL    HW141289  12.550   1.268   4.173 -1.4393  1.1561  0.8942
43188SOL    HW241290  12.628   1.314   4.051  0.1666 -0.4477  1.2674
43189SOL     OW41291   2.698  12.919  13.650  0.4401 -0.5490  0.3118
43189SOL    HW141292   2.669  12.884  13.734 -0.0478  0.1361  0.4342
43189SOL    HW241293   2.618  12.950  13.607  0.3989 -2.4919 -1.2017
43190SOL     OW41294   2.135  13.517   2.267 -0.3817 -0.1697 -0.3217
43190SOL    HW141295   2.052  13.552   2.300 -1.8495 -2.7790 -0.9876
43190SOL    HW241296   2.152  13.568   2.188 -2.1229 -0.4622 -0.9420
43191SOL     OW41297   7.766  10.164   5.528 -0.0893 -0.2822 -0.3318
43191SOL    HW141298   7.682  10.148   5.486 -0.2005 -0.7310  0.0553
43191SOL    HW241299   7.743  10.189   5.618  0.1594  0.3459 -0.4316
43192SOL     OW41300  11.473   1.690  10.310 -0.3598  0.6152  0.1449
43192SOL    HW141301  11.538   1.761  10.310 -1.5058  1.7205 -0.3446
43192SOL    HW241302  11.490   1.642  10.229 -2.5146  3.3165 -2.1895
43193SOL     OW41303   9.096   6.929   4.009 -0.4456  0.2367 -0.2795
43193SOL    HW141304   9.178   6.961   3.972 -1.1098  1.3683 -0.8447
43193SOL    HW241305   9.061   7.004   4.059 -2.1442  0.5405 -1.8097
43194SOL     OW41306   5.275   8.025   8.102  0.0768 -0.0478  0.2460
43194SOL    HW141307   5.254   8.117   8.086  1.1391  0.0620 -0.7010
43194SOL    HW241308   5.240   7.978   8.026 -0.8935 -0.5106  0.9583
43195SOL     OW41309   3.787   6.817   7.131  0.4953  0.3905 -0.4116
43195SOL    HW141310   3.718   6.775   7.183  0.2422 -0.1200 -1.1478
43195SOL    HW241311   3.791   6.906   7.164 -1.6009  0.9042 -1.3790
43196SOL     OW41312   0.472  11.477   8.569  0.0352 -0.2214  0.1005
43196SOL    HW141313   0.486  11.409   8.502 -0.1052  0.7407 -0.9286
43196SOL    HW241314   0.553  11.527   8.569 -0.0147 -0.1395  0.5741
43197SOL     OW41315   3.247   8.838   2.779 -0.5280 -0.2337  0.0025
43197SOL    HW141316   3.163   8.881   2.764 -0.3209  0.1953  0.0386
43197SOL    HW241317   3.279   8.876   2.861 -0.0024  0.0876 -0.3420
43198SOL     OW41318   9.686   8.274  12.055 -0.1354 -0.4257 -0.0141
43198SOL    HW141319   9.722   8.279  12.144  1.9363 -0.4539 -0.7898
43198SOL    HW241320   9.696   8.362  12.020  0.9212 -0.8586 -0.8617
43199SOL     OW41321  12.508   6.025  12.772  0.2061 -0.0522 -0.3738
43199SOL    HW141322  12.436   6.087  12.785 -0.3345 -0.8310  0.4471
43199SOL    HW241323  12.539   6.043  12.683 -0.6628  0.6388 -0.5541
43200SOL     OW41324   5.393  10.181   3.587  0.4393  0.5316 -0.2185
43200SOL    HW141325   5.407  10.164   3.494  0.9667  1.0152 -0.2318
43200SOL    HW241326   5.299  10.167   3.601  0.4390  0.0254 -0.7288
43201SOL     OW41327   8.165  10.455  13.493  0.0528  0.6298  0.1323
43201SOL    HW141328   8.202  10.456  13.581 -0.5404  0.1502  0.3959
43201SOL    HW241329   8.122  10.370  13.486 -0.1666  0.7890 -0.5102
43202SOL     OW41330  13.498   2.057   6.575  0.0368  0.3762 -0.0292
43202SOL    HW141331  13.564   1.993   6.547  0.7633  1.2340 -0.3340
43202SOL    HW241332  13.443   2.071   6.498 -1.1102 -1.0181  0.4802
43203SOL     OW41333   9.304   2.566  11.719 -0.3698 -0.3340  0.0366
43203SOL    HW141334   9.343   2.497  11.772  0.9329 -0.4345 -1.0050
43203SOL    HW241335   9.369   2.636  11.718 -0.4722 -0.2332 -1.2043
43204SOL     OW41336   0.384   4.024  10.298 -0.2591 -0.2346  0.1213
43204SOL    HW141337   0.296   4.015  10.261  0.0991 -1.1060 -0.5702
43204SOL    HW241338   0.370   4.028  10.392 -1.1538  1.3894 -0.0427
43205SOL     OW41339   9.994  11.555  10.733  0.1834  0.1013 -0.1698
43205SOL    HW141340  10.047  11.575  10.656  0.2406  1.1283  0.1168
43205SOL    HW241341   9.930  11.626  10.738 -0.4352 -0.4658  0.1909
43206SOL     OW41342   7.873   2.395   0.730  0.0092  0.4010 -0.0229
43206SOL    HW141343   7.846   2.304   0.714 -0.6880  0.3593  1.3036
43206SOL    HW241344   7.791   2.444   0.735  0.2497  0.6959  1.5678
43207SOL     OW41345  12.327   0.407   3.751 -0.1446 -0.0092  0.1700
43207SOL    HW141346  12.323   0.498   3.781  1.2628 -0.2482  1.1287
43207SOL    HW241347  12.284   0.409   3.665 -2.2652  1.1000  1.1624
43208SOL     OW41348  12.964   2.886   5.466  0.1732 -0.1638 -0.1705
43208SOL    HW141349  13.037   2.892   5.528 -0.2822  1.6874  0.2477
43208SOL    HW241350  13.002   2.845   5.388  1.8860  1.4689 -0.2560
43209SOL     OW41351  10.733   8.088   8.982 -0.0552 -0.4593  0.3379
43209SOL    HW141352  10.701   8.037   8.908 -2.1079  0.0920  0.7596
43209SOL    HW241353  10.728   8.027   9.056 -1.6756  0.0243  0.6783
43210SOL     OW41354   0.387  13.123   2.029  0.2765 -0.0987  0.1473
43210SOL    HW141355   0.321  13.191   2.013 -0.7168 -0.9930  0.2987
43210SOL    HW241356   0.426  13.107   1.943 -1.4752 -1.2893 -0.4981
43211SOL     OW41357   2.611  10.282   3.727 -0.5083  0.0867  0.0105
43211SOL    HW141358   2.662  10.362   3.740  0.4360 -0.3570 -0.8465
43211SOL    HW241359   2.542  10.287   3.793  0.8878  0.5074  1.5210
43212SOL     OW41360   5.265   5.770  11.321  0.4626 -0.1881 -0.5378
43212SOL    HW141361   5.174   5.801  11.328  0.8483  1.1782 -1.2010
43212SOL    HW241362   5.271   5.700  11.386 -0.8467  0.2487  0.0992
43213SOL     OW41363   3.706   1.527  11.537  0.3136  0.7393 -0.5408
43213SOL    HW141364   3.760   1.459  11.495  1.0604  1.3620 -0.6129
43213SOL    HW241365   3.753   1.547  11.619 -0.6932  0.1178  0.2169
43214SOL     OW41366   0.966  12.584   7.886 -0.2424  0.4109 -0.1486
43214SOL    HW141367   1.025  12.513   7.912 -0.0640 -0.0880 -1.8048
43214SOL    HW241368   1.000  12.661   7.932 -2.0993 -0.9584  3.9870
43215SOL     OW41369   2.636   3.738   6.290 -0.6340  0.3742 -0.1478
43215SOL    HW141370   2.659   3.829   6.309 -0.3000  0.7586 -2.1749
43215SOL    HW241371   2.549   3.743   6.252  0.0984  0.0953 -1.9466
43216SOL     OW41372  12.736   8.104   1.144  0.7172  0.3223 -0.4431
43216SOL    HW141373  12.729   8.125   1.051  0.0689  0.6120 -0.3382
43216SOL    HW241374  12.799   8.167   1.179 -0.1908  1.2198 -0.3964
43217SOL     OW41375   4.208   0.136   1.885 -0.0277  0.0003 -0.5465
43217SOL    HW141376   4.173   0.048   1.898  0.5806 -0.3624 -1.3086
43217SOL    HW241377   4.199   0.152   1.791  2.8620 -0.5742 -0.9990
43218SOL     OW41378  11.669   8.293   9.693  0.0027  0.5931 -0.0528
43218SOL    HW141379  11.627   8.243   9.624  0.3802  2.0208 -1.3796
43218SOL    HW241380  11.611   8.369   9.706  0.6739  1.0807  0.1579
43219SOL     OW41381   5.333   8.730  10.528 -0.9068 -0.4996 -0.4028
43219SOL    HW141382   5.324   8.774  10.612 -1.7936 -0.5806 -0.4510
43219SOL    HW241383   5.302   8.794  10.464 -1.5028 -0.9207 -0.5389
43220SOL     OW41384   6.351   0.407   3.179  0.4820 -0.2804 -0.2078
43220SOL    HW141385   6.288   0.393   3.107  2.4030 -1.6619 -1.7332
43220SOL    HW241386   6.412   0.472   3.145  0.3642  0.4718  0.9597
43221SOL     OW41387   6.578  10.180  11.352  0.4091 -0.2902 -1.2026
43221SOL    HW141388   6.551  10.214  11.267 -1.2131  1.5235 -0.0487
43221SOL    HW241389   6.673  10.189  11.353  0.3833  0.3787 -2.5093
43222SOL     OW41390  11.786   5.182   6.901  0.6017  0.2847 -0.0736
43222SOL    HW141391  11.861   5.233   6.871  0.7495 -0.1979 -0.5362
43222SOL    HW241392  11.745   5.150   6.821  0.0073  0.3915  0.1819
43223SOL     OW41393   0.763   7.522  10.600  0.0394  0.2605  0.3972
43223SOL    HW141394   0.839   7.541  10.545 -0.3135  1.6593  0.3512
43223SOL    HW241395   0.777   7.573  10.679 -0.8893  0.6225  0.3454
43224SOL     OW41396   1.280   7.971   1.873 -0.4268 -0.1512 -0.0636
43224SOL    HW141397   1.349   8.036   1.890 -1.3972  0.8393  0.2048
43224SOL    HW241398   1.320   7.887   1.897  0.7750  0.3626 -0.1807
43225SOL     OW41399   9.565  13.659   5.190 -0.3741 -0.4856  0.1910
43225SOL    HW141400   9.636  13.718   5.166 -0.7024 -0.9640 -2.2020
43225SOL    HW241401   9.595  13.616   5.271  1.9016 -0.4354 -0.5679
43226SOL     OW41402   3.004   4.252  13.222 -0.4923 -0.0361  0.5652
43226SOL    HW141403   3.097   4.263  13.202 -0.3073 -1.2987  0.6907
43226SOL    HW241404   2.964   4.334  13.191  0.3320 -0.3714 -1.5466
43227SOL     OW41405   0.276   0.327   5.009  0.6091 -0.0555 -0.1293
43227SOL    HW141406   0.314   0.396   5.063 -0.3205 -0.6109  1.2964
43227SOL    HW241407   0.186   0.355   4.994  0.8535  0.1092 -1.4921
43228SOL     OW41408  13.119  12.300   5.921  0.4039  0.4241  0.5426
43228SOL    HW141409  13.036  12.325   5.961  0.7363  0.3729  1.2805
43228SOL    HW241410  13.099  12.221   5.871  0.0418  0.3143  0.8552
43229SOL     OW41411   0.453   8.275   2.023 -0.1373  0.3558 -0.1803
43229SOL    HW141412   0.541   8.242   2.040 -0.2833 -0.3393 -0.7069
43229SOL    HW241413   0.465   8.358   1.979  0.2953  2.7547  3.9408
43230SOL     OW41414   1.583  11.534  10.596  0.1785 -0.4852  0.5654
43230SOL    HW141415   1.523  11.524  10.522  1.8321 -0.7138 -0.8209
43230SOL    HW241416   1.545  11.479  10.665 -2.5964  1.4409  0.7500
43231SOL     OW41417   0.762   9.060   6.316 -0.3227  0.0361  0.2864
43231SOL    HW141418   0.703   8.997   6.274  1.1621 -1.5967  0.5247
43231SOL    HW241419   0.783   9.020   6.401  1.3594  0.3903  0.0708
43232SOL     OW41420   8.857   9.702   6.738  0.3551 -0.3016 -0.0196
43232SOL    HW141421   8.888   9.786   6.706  1.0687 -0.6350 -0.2244
43232SOL    HW241422   8.886   9.699   6.829  0.9700 -0.6289 -0.2217
43233SOL     OW41423   7.402   8.133   4.265 -0.1490 -0.0495  0.2664
43233SOL    HW141424   7.340   8.204   4.282 -0.3210  0.2259 -1.2953
43233SOL    HW241425   7.481   8.177   4.234 -0.5633 -0.5267 -1.6005
43234SOL     OW41426   8.011  13.364  13.055 -0.3930  0.1108  0.7232
43234SOL    HW141427   8.089  13.372  12.999 -1.7617 -0.5487 -1.3900
43234SOL    HW241428   8.019  13.437  13.117  1.4212  0.6352 -0.0464
43235SOL     OW41429   8.002   4.581   6.667  0.1285  0.1695 -0.4328
43235SOL    HW141430   8.025   4.642   6.737 -0.2518  0.9382 -0.9659
43235SOL    HW241431   7.970   4.503   6.713  0.2825  0.5051  0.2545
43236SOL     OW41432  12.191   3.461   1.947 -0.1209 -0.1461 -0.2527
43236SOL    HW141433  12.124   3.524   1.920 -3.0174 -2.2131  1.5218
43236SOL    HW241434  12.210   3.411   1.867 -0.2570  0.8098 -0.9079
43237SOL     OW41435  13.221  12.532  10.705 -0.0494 -0.2409 -0.7074
43237SOL    HW141436  13.166  12.454  10.704  0.5239 -0.6515 -0.7090
43237SOL    HW241437  13.190  12.585  10.630 -0.3859 -0.4989 -0.7505
43238SOL     OW41438   5.741   9.447   5.887 -0.1298  0.1364 -0.0942
43238SOL    HW141439   5.808   9.473   5.951 -1.6767  1.2423  1.1319
43238SOL    HW241440   5.744   9.351   5.888  1.4437  0.1503 -0.1100
43239SOL     OW41441   7.470   0.910  12.617 -0.0028  0.3358  0.1268
43239SOL    HW141442   7.401   0.851  12.647  0.6350  0.0447  1.0633
43239SOL    HW241443   7.426   0.996  12.610 -0.5392  0.0895  0.3708
43240SOL     OW41444   1.371   2.761  12.419 -0.5597  0.1961  0.4148
43240SOL    HW141445   1.401   2.707  12.492  2.0554 -1.6288 -1.7753
43240SOL    HW241446   1.431   2.835  12.417  0.4479 -0.5936 -0.7059
43241SOL     OW41447   4.442   8.602  12.097 -0.1994  0.3130  0.0827
43241SOL    HW141448   4.378   8.673  12.103 -1.5937 -0.6891 -1.8344
43241SOL    HW241449   4.509   8.635  12.037  1.2871  1.4205  2.2056
43242SOL     OW41450   3.433   6.907   0.258  0.3333  0.1027 -0.3293
43242SOL    HW141451   3.338   6.902   0.253  0.2754  0.7278  0.0845
43242SOL    HW241452   3.452   7.000   0.271  1.0163  0.0352 -0.7714
43243SOL     OW41453   6.685  11.590  11.128  0.1829  0.6703  0.1244
43243SOL    HW141454   6.651  11.605  11.216 -0.7517  2.9683 -0.5639
43243SOL    HW241455   6.617  11.538  11.085  0.8871 -0.9366  0.8592
43244SOL     OW41456   0.567   1.958   4.811  0.0652  0.6005 -0.0985
43244SOL    HW141457   0.655   1.945   4.846 -0.7771 -2.5610  1.2693
43244SOL    HW241458   0.562   1.896   4.737 -0.6238  1.6790 -0.9840
43245SOL     OW41459   9.620   5.173   5.647  0.2964 -0.2949  0.3377
43245SOL    HW141460   9.613   5.092   5.699 -0.8751  0.0901  0.8101
43245SOL    HW241461   9.531   5.190   5.617  0.9572 -0.5481 -1.9086
43246SOL     OW41462   4.819   1.064   2.789  0.9245 -0.3382 -0.5927
43246SOL    HW141463   4.840   1.019   2.871  0.6150  0.1415 -0.2462
43246SOL    HW241464   4.725   1.081   2.794  0.6336 -1.5469 -1.6717
43247SOL     OW41465   9.929   7.699  10.271  0.6761 -0.3425 -0.5540
43247SOL    HW141466   9.982   7.730  10.197  0.5900 -1.4788 -1.1173
43247SOL    HW241467   9.840   7.697  10.238  0.1722  1.9471  0.5220
43248SOL     OW41468   9.125   2.039   5.193 -0.0714  0.0921  0.1999
43248SOL    HW141469   9.116   2.002   5.105  2.2746  1.6991 -0.7965
43248SOL    HW241470   9.104   2.132   5.182  2.6311  0.8466  0.7307
43249SOL     OW41471  10.406  11.138   1.738  0.5312 -0.2354  0.5229
43249SOL    HW141472  10.321  11.104   1.767 -0.5236  0.3278 -1.6584
43249SOL    HW241473  10.464  11.061   1.737 -0.9367 -1.4274 -1.2518
43250SOL     OW41474  11.679  13.505   9.011 -0.0996 -0.1568  0.2950
43250SOL    HW141475  11.752  13.547   9.056 -0.0912  0.3289 -0.1569
43250SOL    HW241476  11.719  13.446   8.948 -0.0969 -0.0620  0.2066
43251SOL     OW41477   6.825   4.471   4.817  0.5860 -0.0208 -0.2763
43251SOL    HW141478   6.806   4.556   4.856  0.0081 -0.7004  0.9767
43251SOL    HW241479   6.920   4.468   4.813  0.6807 -0.0101  1.3282
43252SOL     OW41480   1.147   6.016  13.293 -0.2574 -0.1360 -0.6607
43252SOL    HW141481   1.082   5.992  13.359  0.2795  1.0504  0.3477
43252SOL    HW241482   1.106   6.088  13.244 -0.5802 -0.8869 -1.5095
43253SOL     OW41483   8.963   1.598   5.448 -0.1619 -0.0420 -0.2739
43253SOL    HW141484   9.000   1.565   5.366  1.3849  0.8933 -0.0042
43253SOL    HW241485   8.906   1.669   5.422  0.2720  0.2071 -0.5504
43254SOL     OW41486   5.356  13.395   7.743  0.1491  0.1522 -0.3153
43254SOL    HW141487   5.435  13.369   7.694  0.3777  0.4433 -0.1077
43254SOL    HW241488   5.289  13.408   7.676  0.5100  0.7292 -0.5745
43255SOL     OW41489   8.446   0.862   9.924  0.4579  0.3959 -0.3321
43255SOL    HW141490   8.462   0.887   9.834  1.2953  1.5982  0.1336
43255SOL    HW241491   8.505   0.916   9.976  1.7851 -1.9629  0.8028
43256SOL     OW41492   1.933  13.015   7.650 -0.3865 -0.1300  1.2457
43256SOL    HW141493   1.872  13.063   7.705 -0.9415 -0.6227  1.0736
43256SOL    HW241494   2.014  13.011   7.701 -1.1648 -1.3985  2.4760
43257SOL     OW41495   2.510   9.685   4.614 -0.0878  0.2931  0.1873
43257SOL    HW141496   2.445   9.717   4.552 -0.2302  2.5121  1.3783
43257SOL    HW241497   2.489   9.593   4.627 -2.0671  0.6046 -0.5788
43258SOL     OW41498   0.964  11.861  10.795 -0.1405  0.2601 -0.4125
43258SOL    HW141499   0.950  11.774  10.756 -2.0079  0.2814  0.1013
43258SOL    HW241500   0.916  11.858  10.878  0.7078  1.4286  0.1445
43259SOL     OW41501   8.733   4.628  13.026  0.1803  0.0176 -0.2187
43259SOL    HW141502   8.644   4.635  13.059 -0.1700  0.6821 -1.3003
43259SOL    HW241503   8.755   4.535  13.038 -1.1082 -0.4272 -1.1065
43260SOL     OW41504   9.576   8.415  13.714  0.0605  0.1036 -0.3080
43260SOL    HW141505   9.601   8.332  13.754  0.8250  0.7400  0.5823
43260SOL    HW241506   9.538   8.391  13.630 -1.1370 -1.2636  0.5630
43261SOL     OW41507   2.720   9.965  12.163 -0.3210  0.0515  0.3853
43261SOL    HW141508   2.652   9.918  12.114 -0.1166  0.8594 -0.7293
43261SOL    HW241509   2.797   9.961  12.106 -0.8990  3.6360 -0.8789
43262SOL     OW41510   7.559   8.133   6.653  0.0012  0.0381 -0.6838
43262SOL    HW141511   7.617   8.065   6.620 -1.3300 -0.2054 -2.6969
43262SOL    HW241512   7.495   8.087   6.707 -0.6202 -0.2880 -1.6675
43263SOL     OW41513   3.280   4.770   8.176  0.0441 -0.3221  0.1399
43263SOL    HW141514   3.209   4.707   8.161  0.9331 -0.9340 -1.7490
43263SOL    HW241515   3.358   4.715   8.189  0.1175  0.3030  3.1043
43264SOL     OW41516  12.602   6.568   9.625  0.0775 -0.0403  0.4196
43264SOL    HW141517  12.606   6.650   9.675  0.4473 -0.2990  0.8240
43264SOL    HW241518  12.523   6.524   9.657 -0.9476  0.8254 -0.8618
43265SOL     OW41519   7.589   0.286   8.520  0.6171 -0.3121 -0.2293
43265SOL    HW141520   7.646   0.254   8.590  0.1231  0.7504  0.6752
43265SOL    HW241521   7.580   0.379   8.537 -0.0907 -0.1693 -1.3075
43266SOL     OW41522   2.202   8.969   2.296  0.5234  0.2702 -0.1688
43266SOL    HW141523   2.181   8.877   2.314 -0.2097  0.5551  0.4647
43266SOL    HW241524   2.231   9.005   2.380  0.5087  0.6984 -0.3435
43267SOL     OW41525   6.439  11.256  11.613  0.9404  0.1332 -0.2763
43267SOL    HW141526   6.511  11.302  11.571  0.2721  1.3701 -0.1076
43267SOL    HW241527   6.444  11.281  11.705  0.8879 -0.5737 -0.0725
43268SOL     OW41528   5.511  12.580   4.209 -0.0914  0.5789  0.4209
43268SOL    HW141529   5.600  12.546   4.208  0.1348  1.1546  0.6657
43268SOL    HW241530   5.472  12.549   4.127  0.4667  0.6749  0.1157
43269SOL     OW41531   6.160  13.379   2.112  0.3461  0.0107 -0.1119
43269SOL    HW141532   6.174  13.295   2.070  1.9569 -0.3928  1.1125
43269SOL    HW241533   6.065  13.391   2.112  0.1368 -1.4626 -0.9309
43270SOL     OW41534  13.474   6.686   5.242  0.0769 -0.0328 -0.3388
43270SOL    HW141535  13.380   6.699   5.255  0.1736 -0.5573  1.0091
43270SOL    HW241536  13.490   6.719   5.153 -1.3784  0.0251 -0.6118
43271SOL     OW41537   3.563   9.841   9.684 -0.2630 -0.0309 -0.0784
43271SOL    HW141538   3.533   9.912   9.628 -1.4968  0.0159  0.5942
43271SOL    HW241539   3.616   9.883   9.751 -1.0422  0.2888  0.3556
43272SOL     OW41540  12.643   6.051   7.066 -0.4714  0.2577 -0.3729
43272SOL    HW141541  12.734   6.056   7.097 -0.3630  0.6107 -0.7362
43272SOL    HW241542  12.598   6.120   7.114 -0.7663 -0.5035  0.4929
43273SOL     OW41543   7.999   6.496   7.888  0.2483 -0.0782 -0.1787
43273SOL    HW141544   7.930   6.560   7.872  0.7678  0.6359  0.3501
43273SOL    HW241545   8.052   6.497   7.809 -0.0800 -0.2998 -0.4067
43274SOL     OW41546   5.831  12.686  12.293 -0.6530 -0.2233  0.5776
43274SOL    HW141547   5.855  12.670  12.202 -1.0001  3.0765 -0.2267
43274SOL    HW241548   5.737  12.702  12.291 -0.9351 -1.4909  1.8092
43275SOL     OW41549   0.375   1.141   3.244 -0.3784 -0.2140 -0.8822
43275SOL    HW141550   0.282   1.141   3.270  0.0899 -0.2527  0.9885
43275SOL    HW241551   0.403   1.232   3.256  0.5588 -0.7500  1.7397
43276SOL     OW41552  10.592   8.721   2.907 -0.1297 -0.3539  0.0420
43276SOL    HW141553  10.592   8.659   2.979  0.3654  0.0423  0.3922
43276SOL    HW241554  10.678   8.764   2.913  0.1209 -0.6651 -1.0794
43277SOL     OW41555   1.547   7.773   8.511 -0.1266  0.1090 -0.4645
43277SOL    HW141556   1.495   7.694   8.498 -0.8966  0.3580  0.8946
43277SOL    HW241557   1.550   7.783   8.606 -0.6123  2.0986 -0.6333
43278SOL     OW41558   2.237   5.692   6.750 -0.8279  0.6742  0.0104
43278SOL    HW141559   2.245   5.622   6.685  0.3137  0.8778 -0.0803
43278SOL    HW241560   2.219   5.771   6.698 -2.5339  0.4041  0.1399
43279SOL     OW41561  13.200   1.873   2.855  0.3247 -0.0545  0.3431
43279SOL    HW141562  13.124   1.887   2.910  0.9566  1.6449  0.8522
43279SOL    HW241563  13.244   1.796   2.893 -0.1573  0.0668  1.1627
43280SOL     OW41564   5.933   7.922   0.909  0.2906  0.5033 -0.2342
43280SOL    HW141565   5.915   7.874   0.990  1.0843 -1.6651 -1.2483
43280SOL    HW241566   6.000   7.986   0.933  2.4656 -1.8300  0.4054
43281SOL     OW41567  13.442   4.704   6.356  0.4212  0.6679  0.1384
43281SOL    HW141568  13.461   4.785   6.403  0.6858 -0.0649  1.3388
43281SOL    HW241569  13.350   4.685   6.375  0.2051  0.9517 -0.5808
43282SOL     OW41570   9.874   1.483   6.179 -0.1662  0.0705  0.5058
43282SOL    HW141571   9.792   1.459   6.223 -0.5705 -1.0953 -0.8145
43282SOL    HW241572   9.863   1.575   6.157 -0.2414  0.4955  2.1674
43283SOL     OW41573   6.388   5.148  10.221  0.1076 -0.1075  0.5990
43283SOL    HW141574   6.391   5.187  10.308 -0.8086 -0.5601  0.8512
43283SOL    HW241575   6.317   5.195  10.176  1.1451  0.7287 -0.2228
43284SOL     OW41576   7.802   3.550   3.269 -0.0939 -0.1944  0.1752
43284SOL    HW141577   7.883   3.543   3.320 -0.5507  0.0408  0.9371
43284SOL    HW241578   7.757   3.467   3.284 -0.2327 -0.1211  0.1664
43285SOL     OW41579  12.805   7.816   5.886 -0.5057 -0.4695  0.3715
43285SOL    HW141580  12.775   7.728   5.860 -0.7189 -0.3371  0.1649
43285SOL    HW241581  12.770   7.874   5.818 -0.4522 -0.2121  0.5636
43286SOL     OW41582  12.574   2.463   2.468 -0.1556  0.5460 -0.0527
43286SOL    HW141583  12.624   2.492   2.391  0.2362  1.1820  0.4310
43286SOL    HW241584  12.590   2.369   2.473 -2.1567 -0.0102 -2.1751
43287SOL     OW41585  13.698  13.349  10.480 -0.0202 -0.4675 -0.6066
43287SOL    HW141586  13.768  13.297  10.441  0.1617 -0.5293 -0.2048
43287SOL    HW241587  13.732  13.374  10.566 -0.4620 -0.4290 -0.4438
43288SOL     OW41588   9.972   9.676   5.936 -0.2540  0.3709  0.1737
43288SOL    HW141589  10.040   9.612   5.956  0.6468  1.0693 -0.5682
43288SOL    HW241590   9.904   9.626   5.892  0.5882 -0.0221 -0.7105
43289SOL     OW41591  11.887   1.066   4.376 -0.3942 -0.5631  0.1318
43289SOL    HW141592  11.819   1.115   4.422  2.0556  1.9945  1.2779
43289SOL    HW241593  11.881   1.096   4.285 -0.2907  0.2600  0.3916
43290SOL     OW41594   7.486   2.332  10.663 -0.1390 -0.6255  0.0585
43290SOL    HW141595   7.550   2.378  10.717  0.0934  0.3604 -1.0207
43290SOL    HW241596   7.433   2.282  10.725 -0.4248  1.1322  1.2936
43291SOL     OW41597  12.378   5.842  13.730 -0.6799 -0.6875  0.2766
43291SOL    HW141598  12.306   5.876  13.677 -1.4328 -2.7798 -0.1338
43291SOL    HW241599  12.372   5.891  13.813 -1.6881  0.1380 -0.2583
43292SOL     OW41600  11.451   0.979   0.047  0.2019 -0.3006 -0.1328
43292SOL    HW141601  11.389   0.945   0.111  0.5859 -0.2333  0.2740
43292SOL    HW241602  11.396   1.009  -0.026 -0.2541 -0.0791  0.2979
43293SOL     OW41603  12.414  10.732   0.609 -0.3594 -0.0263  0.4679
43293SOL    HW141604  12.321  10.752   0.608  0.1283  2.6686  1.0282
43293SOL    HW241605  12.442  10.744   0.518 -0.3069  0.7242  0.5747
43294SOL     OW41606  10.324   7.779   4.475  0.5666 -0.7530 -0.2797
43294SOL    HW141607  10.255   7.799   4.412  0.3966  1.1035  0.4520
43294SOL    HW241608  10.403   7.770   4.422  0.0515 -1.3711 -0.9611
43295SOL     OW41609   7.974   8.239   7.520  0.0049 -0.3757 -0.0102
43295SOL    HW141610   8.018   8.250   7.605 -1.4851 -0.0067  0.7468
43295SOL    HW241611   7.980   8.326   7.479  1.7345 -0.8297 -0.8457
43296SOL     OW41612  10.496   9.035   5.335 -0.2216 -0.0923  0.2453
43296SOL    HW141613  10.461   9.039   5.424 -1.4511  0.8457 -0.2555
43296SOL    HW241614  10.507   8.941   5.319 -1.4236 -0.3611  0.8585
43297SOL     OW41615   2.215  12.946   2.693 -0.2227  0.2237  0.2993
43297SOL    HW141616   2.199  12.860   2.656 -3.1708  0.9816 -0.4116
43297SOL    HW241617   2.216  13.005   2.618  1.6564  0.8789  0.7840
43298SOL     OW41618   1.014  12.718   4.686 -0.0754 -0.2573 -0.3696
43298SOL    HW141619   1.066  12.686   4.760 -0.5110 -0.4180 -0.1235
43298SOL    HW241620   0.923  12.703   4.713 -0.2966  1.0722 -0.2969
43299SOL     OW41621  11.941   9.387   8.949 -0.7621  0.5987 -0.4568
43299SOL    HW141622  11.958   9.300   8.912 -0.0062  0.6435 -0.2327
43299SOL    HW241623  11.851   9.407   8.923 -2.7142 -2.1676  3.2794
43300SOL     OW41624  12.514  10.110   3.437  0.4187  0.0775 -0.2413
43300SOL    HW141625  12.573  10.041   3.406 -0.5415 -0.4882 -0.8468
43300SOL    HW241626  12.437  10.062   3.470  0.6412  0.7506  1.3455
43301SOL     OW41627   7.871  12.593   0.767  0.8735  0.2502 -0.0371
43301SOL    HW141628   7.895  12.666   0.824  0.9256  0.8009 -0.7458
43301SOL    HW241629   7.936  12.595   0.697 -0.2932  0.8178 -1.1614
43302SOL     OW41630   4.493   1.679  12.035  0.0731 -0.1118  0.2843
43302SOL    HW141631   4.498   1.608  11.972  0.4708 -1.8198  2.1250
43302SOL    HW241632   4.534   1.754  11.991  1.4402 -1.5684 -1.0439
43303SOL     OW41633   5.959   8.877  12.658  0.0252 -0.0055  0.3853
43303SOL    HW141634   5.883   8.845  12.706  0.2890 -2.1632 -0.5327
43303SOL    HW241635   6.023   8.900  12.725 -0.3595 -1.0094  1.1040
43304SOL     OW41636   4.500   7.474   7.960  0.2968 -0.3893 -0.3992
43304SOL    HW141637   4.593   7.466   7.936  0.5432  2.2727 -0.6406
43304SOL    HW241638   4.473   7.557   7.922 -1.7851 -0.3468  1.0194
43305SOL     OW41639   0.291  10.642  12.138  0.2968 -0.2919  0.1483
43305SOL    HW141640   0.326  10.554  12.144  0.0753 -0.6129 -2.2888
43305SOL    HW241641   0.219  10.635  12.075 -0.1385  1.5037  0.3882
43306SOL     OW41642   0.991   9.524   5.503 -0.7232  0.4022  0.0744
43306SOL    HW141643   1.039   9.570   5.572 -0.7849 -0.6300  0.8272
43306SOL    HW241644   1.055   9.511   5.433  0.2566 -1.2909  1.2155
43307SOL     OW41645   4.164   4.311  11.988  0.4210  0.2776 -0.0099
43307SOL    HW141646   4.119   4.394  11.973 -1.5367 -0.9704 -1.5014
43307SOL    HW241647   4.141   4.286  12.077 -0.5579  0.4479 -0.2065
43308SOL     OW41648  10.033   3.236  11.748  0.2572  0.3311  0.0668
43308SOL    HW141649  10.051   3.330  11.758 -0.2481  0.7071 -2.2031
43308SOL    HW241650   9.970   3.230  11.677 -0.8499 -1.6767  1.1186
43309SOL     OW41651  13.474   2.650  10.933  0.5309  0.3172  0.0256
43309SOL    HW141652  13.506   2.599  10.858  2.8061  0.1138  1.0488
43309SOL    HW241653  13.390   2.609  10.956  0.0775  0.0000 -1.9929
43310SOL     OW41654  13.361  13.532   0.710 -0.3418 -0.1268 -0.4424
43310SOL    HW141655  13.409  13.590   0.769 -0.3289 -0.0915 -0.4878
43310SOL    HW241656  13.342  13.586   0.633  0.5148 -0.4645 -0.9038
43311SOL     OW41657   1.061   4.084   5.710 -0.1733  0.4354  0.3195
43311SOL    HW141658   1.069   4.171   5.669  1.4942  0.0715 -0.2169
43311SOL    HW241659   1.083   4.099   5.802  3.3688  0.1716 -0.3381
43312SOL     OW41660  11.852   7.050  12.002  0.1465 -0.1237  0.2172
43312SOL    HW141661  11.873   7.134  11.961  0.0211  0.1752  0.7644
43312SOL    HW241662  11.759   7.057  12.024  0.2677 -0.2048  0.7483
43313SOL     OW41663   6.876  10.166   8.487  0.1849 -0.0632  0.4283
43313SOL    HW141664   6.805  10.229   8.498  0.4183  0.5866 -1.3325
43313SOL    HW241665   6.834  10.080   8.490 -0.8480  0.3210 -1.2463
43314SOL     OW41666  10.439  12.288   4.642 -0.1714  0.0981  0.3267
43314SOL    HW141667  10.428  12.351   4.713  0.8325  0.3418  0.2916
43314SOL    HW241668  10.534  12.279   4.634 -0.3031 -1.3116  0.2256
43315SOL     OW41669   7.676  10.854   3.097  0.5187 -0.0639  0.0874
43315SOL    HW141670   7.627  10.934   3.114 -0.5231 -0.7672  0.4461
43315SOL    HW241671   7.675  10.846   3.001  0.2043  0.0900  0.0768
43316SOL     OW41672   9.278  10.188   9.977 -0.7283 -0.2559 -0.1598
43316SOL    HW141673   9.338  10.247  10.023  1.0593 -1.4804 -0.8365
43316SOL    HW241674   9.311  10.101   9.995 -1.0200 -0.8627 -2.3074
43317SOL     OW41675  11.658   9.249   2.355  0.0376 -0.3009  0.1590
43317SOL    HW141676  11.702   9.165   2.342 -1.4896 -1.4397  1.7593
43317SOL    HW241677  11.713   9.295   2.418  1.7170  0.6455 -1.8850
43318SOL     OW41678   9.904   5.665   3.062 -0.0876  0.1066 -0.2814
43318SOL    HW141679   9.957   5.640   3.137  1.1930  0.9445 -0.8717
43318SOL    HW241680   9.857   5.744   3.090  0.8366  0.7607 -0.5286
43319SOL     OW41681   5.320   7.959   9.327 -0.0129  0.0000 -0.1969
43319SOL    HW141682   5.255   7.921   9.386  0.2882  0.0765  0.1902
43319SOL    HW241683   5.268   8.006   9.262 -0.4009 -1.3103 -0.8689
43320SOL     OW41684   5.460  13.132   6.814  0.1851  0.0474 -0.5678
43320SOL    HW141685   5.436  13.118   6.906 -1.4796  1.2496 -0.7707
43320SOL    HW241686   5.494  13.048   6.784  0.4114 -0.4652  1.0375
43321SOL     OW41687   5.792   9.111   6.690 -0.0539 -0.5800  0.0786
43321SOL    HW141688   5.859   9.061   6.644  0.8892 -1.0743  1.9147
43321SOL    HW241689   5.713   9.099   6.638  1.1662 -0.2457 -1.9746
43322SOL     OW41690   5.894  12.055  12.469  0.5064 -0.1182 -0.4173
43322SOL    HW141691   5.966  12.091  12.417  0.0838  1.4156 -0.0043
43322SOL    HW241692   5.871  12.126  12.531 -0.3184 -1.1476  0.5015
43323SOL     OW41693   4.833   6.337  11.251 -0.3708 -0.5472 -0.1250
43323SOL    HW141694   4.924   6.328  11.224 -0.6520 -0.0442 -1.2991
43323SOL    HW241695   4.785   6.352  11.169 -1.3103  0.6460  0.6127
43324SOL     OW41696  12.470   1.788   2.743 -0.4868  0.7057  0.1477
43324SOL    HW141697  12.387   1.784   2.790 -0.1165  0.1426  0.7741
43324SOL    HW241698  12.508   1.701   2.753  0.3671  1.0724  0.2356
43325SOL     OW41699  12.588   7.471  11.231 -0.2708  0.4604  0.6723
43325SOL    HW141700  12.674   7.481  11.190 -0.4011 -0.0828  0.2437
43325SOL    HW241701  12.527   7.510  11.168 -0.4176  0.1211  0.6016
43326SOL     OW41702   1.444   1.184   7.159  0.5459  0.9218  0.1092
43326SOL    HW141703   1.499   1.157   7.233 -1.1406  0.3672  1.1997
43326SOL    HW241704   1.410   1.102   7.123 -0.1810  1.2942 -0.0725
43327SOL     OW41705  10.966  11.780  13.063  0.0637  0.1345  0.2653
43327SOL    HW141706  10.891  11.818  13.017 -0.2485  1.7149  1.9423
43327SOL    HW241707  10.951  11.686  13.059 -1.0738  0.3409 -0.9616
43328SOL     OW41708   8.216   5.041   6.062 -0.5745  0.6330  0.3931
43328SOL    HW141709   8.237   5.117   6.117  0.9609 -0.5857  1.5590
43328SOL    HW241710   8.133   5.008   6.098 -0.9865  1.4115  0.2065
43329SOL     OW41711   6.029   4.619   9.960  0.2527 -0.5875  0.7779
43329SOL    HW141712   5.960   4.557   9.936  1.6764 -1.9619  0.0658
43329SOL    HW241713   6.079   4.631   9.880 -0.3406  2.0262  0.7333
43330SOL     OW41714   3.361   6.225  10.032 -0.2370  0.2553  0.3902
43330SOL    HW141715   3.449   6.190  10.021 -0.3138  0.2980 -0.3876
43330SOL    HW241716   3.368   6.285  10.106  0.0196 -0.9651  1.3791
43331SOL     OW41717   5.969  10.635   3.332  0.0564 -0.2147 -0.3294
43331SOL    HW141718   5.877  10.606   3.327 -0.0082  0.0259 -0.5472
43331SOL    HW241719   5.983  10.654   3.425 -0.6271  1.3917 -0.5260
43332SOL     OW41720   5.158  10.205   3.149 -0.2205 -0.1381  0.3966
43332SOL    HW141721   5.237  10.253   3.127  0.6215 -1.5883  0.0878
43332SOL    HW241722   5.129  10.243   3.232  0.9770  0.2203  0.6760
43333SOL     OW41723  10.406  10.260  10.577 -0.4281  0.2102  0.0433
43333SOL    HW141724  10.500  10.245  10.581 -0.2548  0.7051 -1.5131
43333SOL    HW241725  10.397  10.343  10.531 -1.6513 -0.6586 -1.3832
43334SOL     OW41726  11.036   0.946  10.268  0.4814  0.5568  0.2020
43334SOL    HW141727  10.990   0.990  10.197  0.1515  1.3502  0.8954
43334SOL    HW241728  10.980   0.871  10.290  0.7867  0.0694 -0.6302
43335SOL     OW41729   3.889  12.228   9.899 -0.2135 -0.1879  0.5612
43335SOL    HW141730   3.890  12.141   9.937  0.3291 -0.9164 -1.0517
43335SOL    HW241731   3.810  12.230   9.845  0.9665 -0.5215 -1.2282
43336SOL     OW41732  12.074   6.623   3.802  0.6835 -0.4963 -0.2067
43336SOL    HW141733  12.130   6.647   3.876  0.1280  1.4948 -0.3787
43336SOL    HW241734  12.130   6.634   3.725  0.4696  0.1466 -0.2753
43337SOL     OW41735   9.669   4.985  12.168  0.2253 -0.1409  0.2851
43337SOL    HW141736   9.601   4.937  12.121  0.3550  0.9641 -1.0890
43337SOL    HW241737   9.749   4.970  12.118  0.6719 -0.1021  0.9705
43338SOL     OW41738   3.134  11.638   0.257  0.1682  0.8714  0.4611
43338SOL    HW141739   3.191  11.587   0.315 -1.8449 -2.0380  0.0621
43338SOL    HW241740   3.178  11.634   0.172 -0.2126 -0.7611  0.3091
43339SOL     OW41741   8.770   6.536   8.033 -0.0156  0.1640 -0.5850
43339SOL    HW141742   8.787   6.456   7.981  0.7980 -0.1181  0.0933
43339SOL    HW241743   8.701   6.510   8.094 -0.5531  0.3209 -1.1134
43340SOL     OW41744   5.904   6.809  10.472  0.1425 -0.2218  0.8858
43340SOL    HW141745   5.899   6.719  10.503 -0.3364 -0.6844 -0.4789
43340SOL    HW241746   5.882   6.862  10.549 -0.5883 -1.2989  1.4368
43341SOL     OW41747   9.200   5.535  12.843  0.5203 -0.1945  0.3499
43341SOL    HW141748   9.196   5.440  12.857 -2.1776 -0.0313  1.3096
43341SOL    HW241749   9.181   5.546  12.749  2.0621 -0.6206 -0.0316
43342SOL     OW41750  11.670   0.589   8.933 -0.7038 -0.6426 -0.0377
43342SOL    HW141751  11.759   0.623   8.918  0.0753 -2.3895  0.4293
43342SOL    HW241752  11.623   0.664   8.970  1.2034 -0.2428  1.8456
43343SOL     OW41753   4.833  12.876   6.095 -0.3576 -0.3125  0.1525
43343SOL    HW141754   4.871  12.861   6.182 -2.3094 -0.2035  1.0858
43343SOL    HW241755   4.852  12.796   6.046 -0.4193 -0.9458  1.1352
43344SOL     OW41756   1.171  11.314   3.581  0.0255  0.0260  0.2898
43344SOL    HW141757   1.223  11.290   3.504  0.1738  0.6545  0.1916
43344SOL    HW241758   1.212  11.265   3.653  1.2738  1.1200  0.3566
43345SOL     OW41759  13.190   0.128   2.650  0.0262  0.5207 -0.0106
43345SOL    HW141760  13.100   0.141   2.620  0.0803 -1.2028 -1.0057
43345SOL    HW241761  13.244   0.138   2.571  0.4449 -1.1409  0.0361
43346SOL     OW41762   9.694   7.986   2.933  0.4773  0.0864 -0.5231
43346SOL    HW141763   9.701   8.072   2.973  1.3408 -0.5200  0.6671
43346SOL    HW241764   9.769   7.980   2.875  0.1849  0.2881 -0.9271
43347SOL     OW41765   5.354  11.358   7.570  0.3169  0.3438 -0.1132
43347SOL    HW141766   5.288  11.320   7.512 -1.2686  1.7088  0.7096
43347SOL    HW241767   5.411  11.409   7.513 -1.0463  1.4321 -0.5615
43348SOL     OW41768  13.372   8.013  12.940  0.2957  0.1984  0.3591
43348SOL    HW141769  13.465   7.990  12.934  0.5313  1.2930 -0.4630
43348SOL    HW241770  13.350   8.047  12.853 -0.7268  0.5042  0.7260
43349SOL     OW41771  12.165   5.765   4.822  0.3156  0.5449  0.1336
43349SOL    HW141772  12.106   5.689   4.822 -0.6561  1.2605 -0.6831
43349SOL    HW241773  12.136   5.818   4.897  0.0602  0.7866 -0.1331
43350SOL     OW41774  10.429  10.866   9.225 -0.4545 -0.4725  0.0065
43350SOL    HW141775  10.424  10.960   9.241 -0.8824 -0.7405  1.6167
43350SOL    HW241776  10.342  10.841   9.193 -0.2408 -0.2840 -0.7455
43351SOL     OW41777   4.502   1.524  12.695 -0.8454 -0.5863 -0.8081
43351SOL    HW141778   4.433   1.548  12.756 -0.9868 -1.9371 -0.3992
43351SOL    HW241779   4.491   1.429  12.682  1.7849 -1.1423  0.3714
43352SOL     OW41780   8.251   2.947   7.454 -0.3487  0.2435 -0.2639
43352SOL    HW141781   8.338   2.977   7.427  0.3250  1.8586  3.0883
43352SOL    HW241782   8.263   2.855   7.475  0.9346  0.6568  1.0791
43353SOL     OW41783  12.581   8.690   4.559  0.6614  0.1331 -0.3386
43353SOL    HW141784  12.661   8.639   4.549  0.3592 -0.4754  0.2366
43353SOL    HW241785  12.516   8.644   4.506  0.8588  1.0543 -1.4251
43354SOL     OW41786  11.837   2.402   8.325  0.0550 -0.4102  0.6470
43354SOL    HW141787  11.754   2.355   8.331  0.2236 -0.9192 -0.6701
43354SOL    HW241788  11.897   2.339   8.284  0.5910  0.5626 -0.1062
43355SOL     OW41789   1.340  10.806   5.086  0.1995 -0.6442  0.2414
43355SOL    HW141790   1.290  10.729   5.113  0.0682 -0.1300  1.5107
43355SOL    HW241791   1.280  10.855   5.030  0.4202 -1.6404 -0.9124
43356SOL     OW41792   6.458   7.746   8.789  0.7789  0.3321  0.2636
43356SOL    HW141793   6.389   7.716   8.730  0.5545 -2.6152  1.8352
43356SOL    HW241794   6.438   7.838   8.803 -0.1770  0.7139 -2.7726
43357SOL     OW41795   0.517  11.781  13.101 -0.2075  0.0837  0.3316
43357SOL    HW141796   0.562  11.773  13.017 -0.6112  1.1507 -0.0160
43357SOL    HW241797   0.476  11.696  13.115  1.1768 -0.6162  0.2354
43358SOL     OW41798   6.109   9.092  11.305 -0.0533 -0.4191  0.2186
43358SOL    HW141799   6.022   9.096  11.344 -0.8470 -2.2943 -1.1823
43358SOL    HW241800   6.149   9.013  11.343 -0.3559 -1.5536 -1.7034
43359SOL     OW41801   5.058  10.188  10.878  0.0139  0.1008  0.1588
43359SOL    HW141802   4.972  10.156  10.848 -0.1004  0.0101  0.5790
43359SOL    HW241803   5.049  10.194  10.973  0.2797  0.6676  0.1537
43360SOL     OW41804   0.601  13.234   9.258  0.3569 -0.0045 -0.3717
43360SOL    HW141805   0.518  13.194   9.230 -0.1422  0.6614  0.1123
43360SOL    HW241806   0.618  13.302   9.193  0.8098 -0.4936 -0.7705
43361SOL     OW41807   5.164   5.735  12.135  0.1363  0.5344 -0.3076
43361SOL    HW141808   5.185   5.733  12.042 -1.1577 -0.2590 -0.6117
43361SOL    HW241809   5.073   5.764  12.138  0.0303  0.1405  0.6798
43362SOL     OW41810   2.588   4.060  11.925  0.5211 -0.1878  0.0145
43362SOL    HW141811   2.526   4.011  11.871 -0.7235  0.8591  0.4233
43362SOL    HW241812   2.645   3.994  11.964 -1.0631 -1.3137  0.5107
43363SOL     OW41813   9.899   4.133  12.447 -0.1483  0.3005  0.0793
43363SOL    HW141814   9.908   4.096  12.359  2.6258 -1.1179  0.8252
43363SOL    HW241815   9.805   4.132  12.465 -0.7655  0.3792 -2.7297
43364SOL     OW41816   0.990  13.443  10.073 -0.1838  0.8060  0.0046
43364SOL    HW141817   1.046  13.391  10.131  0.2969  1.0448 -0.2427
43364SOL    HW241818   1.017  13.419   9.985 -1.5175 -0.2299 -0.1647
43365SOL     OW41819   3.435   5.260  12.224 -0.2326  0.2827 -0.0504
43365SOL    HW141820   3.396   5.334  12.177 -0.3893  1.1945  1.4566
43365SOL    HW241821   3.517   5.243  12.178  0.0567  1.7287 -0.1014
43366SOL     OW41822   9.618   3.298   5.846 -0.1460 -0.6232  0.6335
43366SOL    HW141823   9.712   3.310   5.846  0.0891 -2.1801 -0.1070
43366SOL    HW241824   9.599   3.247   5.924 -0.3840 -0.3480  0.7614
43367SOL     OW41825   3.293  13.068   0.936 -0.8039  0.4753 -0.0020
43367SOL    HW141826   3.375  13.117   0.939 -0.9799  0.7268  1.1638
43367SOL    HW241827   3.254  13.081   1.022 -1.0237 -1.4425  0.2395
43368SOL     OW41828  13.070   4.237   9.113  0.9867 -0.0364  0.1023
43368SOL    HW141829  13.106   4.302   9.173  1.1460  1.0504 -1.1146
43368SOL    HW241830  13.003   4.284   9.063 -0.0003 -1.2376  0.2501
43369SOL     OW41831   9.984  11.462   1.554 -0.5819  0.1207 -0.0327
43369SOL    HW141832   9.967  11.529   1.488  0.4674 -1.9988 -2.6423
43369SOL    HW241833  10.079  11.448   1.551 -0.6828 -1.0064  0.9432
43370SOL     OW41834  13.293   8.240   1.243  0.0981  0.3371  0.0424
43370SOL    HW141835  13.312   8.167   1.185  0.9245  1.0798 -0.6527
43370SOL    HW241836  13.244   8.302   1.190  0.7737  0.9790  0.1407
43371SOL     OW41837   6.828   9.358  13.588  0.5787 -0.5474  0.2667
43371SOL    HW141838   6.767   9.340  13.660 -1.5435  0.1346 -1.2726
43371SOL    HW241839   6.821   9.282  13.530  1.4386 -0.5941  0.2106
43372SOL     OW41840   5.512   9.122  12.516 -0.0224 -0.3357  0.3912
43372SOL    HW141841   5.517   9.134  12.611  0.2740  1.0577  0.2300
43372SOL    HW241842   5.420   9.109  12.498  0.0427 -1.7916  0.9753
43373SOL     OW41843  10.573   3.598   5.304 -0.9078 -0.3201 -0.1281
43373SOL    HW141844  10.591   3.571   5.214  1.1855 -0.3771  0.2534
43373SOL    HW241845  10.543   3.519   5.348  0.4870 -0.9169 -0.2003
43374SOL     OW41846  10.129  13.055  11.006  0.2284 -0.1602  0.0780
43374SOL    HW141847  10.179  13.134  10.985  1.2688 -0.6436  0.6152
43374SOL    HW241848  10.038  13.083  11.004  0.5794  1.1086  0.4259
43375SOL     OW41849   0.907  13.642   8.797  0.7863 -0.3282  0.2779
43375SOL    HW141850   1.002  13.654   8.794  0.8751 -1.0338 -0.0885
43375SOL    HW241851   0.891  13.568   8.738  0.1553 -1.0233  1.2845
43376SOL     OW41852  12.267   1.574   1.733 -0.5150  0.0623  0.2258
43376SOL    HW141853  12.234   1.506   1.675  0.1609 -2.8694  3.0234
43376SOL    HW241854  12.191   1.631   1.749 -1.7885 -1.4191 -0.3331
43377SOL     OW41855   2.401   4.509  12.708 -0.5845  0.7666 -0.3190
43377SOL    HW141856   2.478   4.549  12.748 -0.4671 -0.5028  0.7992
43377SOL    HW241857   2.404   4.417  12.735 -1.4642  0.2348 -1.8316
43378SOL     OW41858   0.975   2.642   9.667 -0.0017  0.6863 -0.2482
43378SOL    HW141859   1.018   2.666   9.585 -0.5906  2.2880 -0.1308
43378SOL    HW241860   1.009   2.555   9.688 -0.7115 -0.2997 -2.8060
43379SOL     OW41861   0.850   6.305  11.999 -0.8225  0.1145  1.1854
43379SOL    HW141862   0.893   6.267  12.075  2.7259  1.8352  0.2520
43379SOL    HW241863   0.841   6.398  12.020  0.2171  0.6240 -0.3950
43380SOL     OW41864   0.177   0.869   5.536  1.0970 -0.2868  0.0985
43380SOL    HW141865   0.202   0.853   5.627 -0.4865  1.4448  0.8983
43380SOL    HW241866   0.089   0.833   5.529  0.9950  0.0875 -0.5818
43381SOL     OW41867   0.903   5.554   4.250 -0.3168 -0.2249 -0.2740
43381SOL    HW141868   0.847   5.571   4.326  0.2852  0.9105 -0.0611
43381SOL    HW241869   0.988   5.531   4.287  0.5863  2.3565 -0.5255
43382SOL     OW41870   2.868   6.396  12.666 -0.6168 -0.3261  0.1108
43382SOL    HW141871   2.846   6.471  12.721 -0.8702 -0.0701 -0.3395
43382SOL    HW241872   2.957   6.372  12.692  0.3593  1.5327 -1.3331
43383SOL     OW41873  10.193   6.775   9.963  0.4000  0.2659 -0.0301
43383SOL    HW141874  10.123   6.835   9.935  0.2285 -0.1822 -0.5780
43383SOL    HW241875  10.274   6.824   9.948  0.3201  0.0030 -1.4372
43384SOL     OW41876  12.704   2.594  12.421  0.2223  0.1079  0.1508
43384SOL    HW141877  12.759   2.610  12.344 -0.3622  0.5485 -0.1867
43384SOL    HW241878  12.623   2.557  12.386  1.2014 -3.0127  0.8346
43385SOL     OW41879   1.750   9.148   7.598  0.2316 -0.4540  0.1401
43385SOL    HW141880   1.794   9.225   7.634  0.1988  0.1573 -1.0827
43385SOL    HW241881   1.659   9.156   7.625 -0.4387  1.4923 -2.2892
43386SOL     OW41882  11.648   9.971   4.396  0.4203 -0.1900  0.6842
43386SOL    HW141883  11.639  10.030   4.471  2.3657  0.8412  0.1638
43386SOL    HW241884  11.736   9.988   4.362 -0.4410 -0.4999 -1.9323
43387SOL     OW41885   1.722  10.465   8.943 -0.2050 -1.3549 -0.4041
43387SOL    HW141886   1.713  10.468   8.848 -2.5206  0.4280 -0.2113
43387SOL    HW241887   1.816  10.453   8.958  0.3776 -0.4410 -2.8913
43388SOL     OW41888   3.870  13.016   1.027  0.7160 -0.1708 -0.4215
43388SOL    HW141889   3.941  13.078   1.042  1.1340 -0.8377  0.3954
43388SOL    HW241890   3.802  13.041   1.089  0.0056  0.7722 -1.5273
43389SOL     OW41891   0.928   2.396   3.466 -0.5186  0.0759  0.2047
43389SOL    HW141892   0.942   2.488   3.490 -0.6327 -0.2390  1.5167
43389SOL    HW241893   0.990   2.381   3.394 -2.4420  1.9422 -1.9942
43390SOL     OW41894  10.009  12.989  13.111  0.4639 -0.1548  0.0515
43390SOL    HW141895   9.940  13.054  13.125 -0.2039 -0.9049  0.3482
43390SOL    HW241896  10.030  12.996  13.018  0.2266  0.3121  0.0301
43391SOL     OW41897   4.406   4.084  11.477  0.0591  0.3925 -0.3542
43391SOL    HW141898   4.481   4.116  11.427  1.1434 -2.0429 -0.4198
43391SOL    HW241899   4.443   4.058  11.562 -0.5059 -1.5833 -0.6622
43392SOL     OW41900   5.987  10.781  10.741  0.6518  0.3688  0.0540
43392SOL    HW141901   5.921  10.715  10.759  0.3521  0.7766  0.4828
43392SOL    HW241902   5.940  10.852  10.699  0.9533  0.3531 -0.3139
43393SOL     OW41903   7.587   2.135   4.498 -0.2154  0.1230  0.5242
43393SOL    HW141904   7.679   2.126   4.523 -0.0977 -1.2282 -0.3041
43393SOL    HW241905   7.557   2.045   4.484 -0.6956  0.6580 -2.5063
43394SOL     OW41906   8.377   2.717   9.591 -0.1679  0.2906  0.6285
43394SOL    HW141907   8.423   2.758   9.665  0.4077  0.5058  0.1599
43394SOL    HW241908   8.285   2.743   9.603  0.1535  1.6083  0.4289
43395SOL     OW41909  12.160   2.801   9.460  0.1829 -0.0657  0.2979
43395SOL    HW141910  12.156   2.723   9.404  0.2054 -0.7044  1.1761
43395SOL    HW241911  12.128   2.872   9.404  1.7222 -0.3852 -1.0634
43396SOL     OW41912   0.224   5.985   3.575  0.9236  0.2313  0.4697
43396SOL    HW141913   0.317   5.993   3.596  0.9713 -0.7699  0.6717
43396SOL    HW241914   0.184   6.060   3.619  1.7968  1.4961 -0.7882
43397SOL     OW41915  10.117   3.471   9.951 -0.2561  0.1539 -0.0379
43397SOL    HW141916  10.184   3.406   9.930  0.1517  0.8456 -0.9519
43397SOL    HW241917  10.125   3.484  10.045  0.1997 -0.5326  0.0228
43398SOL     OW41918   2.624   2.737   5.241 -0.1071  0.1027  0.3176
43398SOL    HW141919   2.702   2.681   5.234  0.8825  1.4491  0.1733
43398SOL    HW241920   2.577   2.722   5.159  0.5547  0.0693 -0.0639
43399SOL     OW41921   1.419  10.201   3.077 -0.0086 -0.5625  0.4212
43399SOL    HW141922   1.502  10.154   3.087  0.1920 -1.1633 -3.0593
43399SOL    HW241923   1.394  10.223   3.167  4.0430 -0.0564  1.6445
43400SOL     OW41924   4.428   6.802  13.083 -0.4694  0.1213 -0.2130
43400SOL    HW141925   4.420   6.757  12.999 -1.1315  1.9892 -1.2131
43400SOL    HW241926   4.511   6.769  13.120  0.1664 -0.2683 -1.8915
43401SOL     OW41927   3.987   7.423  10.391  0.3404  0.8537  0.2935
43401SOL    HW141928   4.036   7.484  10.446  1.2411  0.2972  0.1360
43401SOL    HW241929   3.941   7.366  10.452 -1.9806  2.7407  0.4792
43402SOL     OW41930  10.920   6.856   4.627  0.1139 -0.0710 -0.0547
43402SOL    HW141931  10.963   6.770   4.629  0.2054 -0.0382 -0.4836
43402SOL    HW241932  10.826   6.835   4.621 -0.0700 -0.1586  2.2666
43403SOL     OW41933  11.282   4.592   1.616  0.4317 -0.2694  0.0003
43403SOL    HW141934  11.264   4.686   1.619 -1.7232 -0.6588  1.9053
43403SOL    HW241935  11.376   4.587   1.600  0.3535  2.1523 -1.7941
43404SOL     OW41936  13.110   6.973  11.907 -0.1845  0.6627 -0.3282
43404SOL    HW141937  13.171   7.043  11.930  1.0979 -0.5711  0.1646
43404SOL    HW241938  13.058   6.959  11.986  0.0805  0.5559 -0.1697
43405SOL     OW41939   7.999  11.743  11.803  0.7046  0.0735 -0.0644
43405SOL    HW141940   8.057  11.808  11.764  0.5804  1.2791  1.6659
43405SOL    HW241941   7.990  11.675  11.736  2.4279  0.8735 -1.1572
43406SOL     OW41942  13.336   6.780   1.085  0.0810  0.0318 -0.5435
43406SOL    HW141943  13.366   6.733   1.163 -0.8799 -1.7729 -1.2171
43406SOL    HW241944  13.414   6.787   1.030  0.4535  0.1086 -0.0161
43407SOL     OW41945   2.875   9.272  13.427 -0.1878  0.3102  0.3960
43407SOL    HW141946   2.924   9.339  13.380  1.3120 -1.6753 -1.0499
43407SOL    HW241947   2.785   9.283  13.398  0.4977 -0.0785 -2.1004
43408SOL     OW41948   7.278   9.155   6.994  0.2448 -0.0709  0.2115
43408SOL    HW141949   7.355   9.188   6.947  0.3148  0.1954  0.5143
43408SOL    HW241950   7.277   9.203   7.077 -0.6831  0.4681 -0.1045
43409SOL     OW41951   1.152   7.982   3.711  0.4255 -0.2363  0.3587
43409SOL    HW141952   1.196   7.902   3.740 -1.0147 -1.0161  0.5120
43409SOL    HW241953   1.146   7.972   3.616  1.5364  0.4023  0.2041
43410SOL     OW41954  11.854  11.156  11.304 -0.1421  0.0597  0.4634
43410SOL    HW141955  11.872  11.157  11.398  0.7353 -1.7858  0.3617
43410SOL    HW241956  11.910  11.086  11.270  0.4865  1.5028 -1.6380
43411SOL     OW41957   5.631  12.886   2.836 -0.0245  0.5192  0.0663
43411SOL    HW141958   5.695  12.911   2.769  0.6408  1.6136  1.0603
43411SOL    HW241959   5.568  12.958   2.837 -0.6212 -0.0045 -0.1194
43412SOL     OW41960  13.059   7.595   1.344 -0.0266 -0.0324 -0.5030
43412SOL    HW141961  12.998   7.567   1.276  0.6703  2.6715 -2.4401
43412SOL    HW241962  13.141   7.550   1.323  0.0365  0.3831 -1.1928
43413SOL     OW41963   8.809   5.300   6.783  0.6697  0.1275 -0.1255
43413SOL    HW141964   8.796   5.290   6.689  0.3270  1.4954 -0.2457
43413SOL    HW241965   8.869   5.374   6.791 -0.3909  0.9226  0.7523
43414SOL     OW41966   7.602   4.369   7.392  0.1226 -0.1745 -0.5380
43414SOL    HW141967   7.692   4.376   7.361  0.0419 -0.4557 -0.8418
43414SOL    HW241968   7.571   4.284   7.360  0.0890 -0.5566  0.4712
43415SOL     OW41969   6.283   7.731  12.926 -0.1217  0.2055  0.3483
43415SOL    HW141970   6.310   7.672  12.996 -1.2930  1.0445  1.5607
43415SOL    HW241971   6.268   7.815  12.970 -1.8564  0.5022 -0.7258
43416SOL     OW41972   6.679   2.238   4.953 -0.0792 -0.8474 -0.3780
43416SOL    HW141973   6.641   2.150   4.959  0.5542 -1.0588  1.0610
43416SOL    HW241974   6.605   2.297   4.965 -0.2816 -1.2226  0.2851
43417SOL     OW41975   8.014   6.876   1.538 -0.3436  0.0452  0.1119
43417SOL    HW141976   7.977   6.820   1.469  0.6349  1.1938 -1.4233
43417SOL    HW241977   7.949   6.873   1.608 -1.2962 -1.3401 -0.7557
43418SOL     OW41978  10.958   3.077   2.012  0.0550 -0.3320 -0.1414
43418SOL    HW141979  10.892   3.134   1.974  0.2188 -0.4486 -0.6037
43418SOL    HW241980  11.009   3.134   2.070 -0.3521 -0.2102  0.0993
43419SOL     OW41981  12.061   0.170   0.316 -0.2213 -0.1372 -0.3962
43419SOL    HW141982  11.976   0.210   0.334  0.2429  0.9061 -0.4068
43419SOL    HW241983  12.072   0.178   0.221 -0.1271 -0.2971 -0.4002
43420SOL     OW41984   3.047   8.804   0.088 -0.1179  0.5521  0.1940
43420SOL    HW141985   3.095   8.819   0.007  0.5579  1.1308  0.6868
43420SOL    HW241986   3.115   8.797   0.155 -0.5989 -1.0023  0.5629
43421SOL     OW41987   5.454  12.142   4.468  0.3002  0.3291 -0.8201
43421SOL    HW141988   5.484  12.233   4.476  0.4755  0.2385 -0.4319
43421SOL    HW241989   5.415  12.122   4.554  0.6380 -0.0993 -0.7634
43422SOL     OW41990   5.884   5.295   9.680  0.5626 -1.0287  0.1906
43422SOL    HW141991   5.876   5.322   9.589  2.5470  0.9155  0.5018
43422SOL    HW241992   5.794   5.297   9.714 -0.0191 -0.2696 -1.3230
43423SOL     OW41993   0.050   0.256   0.548  0.3414 -0.1900  0.2335
43423SOL    HW141994   0.042   0.349   0.529 -3.3417 -0.5363 -0.6335
43423SOL    HW241995   0.016   0.212   0.470  0.4503 -2.2049  1.2410
43424SOL     OW41996   3.891   6.188  10.972  0.3404  0.1006  0.3190
43424SOL    HW141997   3.874   6.208  10.880 -0.7585  1.8954  0.8608
43424SOL    HW241998   3.857   6.264  11.020  1.3590 -0.5500  2.1796
43425SOL     OW41999   6.602   5.732   8.891 -0.1784 -0.4165  0.2671
43425SOL    HW142000   6.645   5.722   8.806 -0.9748 -3.7647  0.1094
43425SOL    HW242001   6.597   5.643   8.926 -1.0154  0.6940  3.2863
43426SOL     OW42002  12.711   3.900   4.326 -0.0160  0.1894 -0.1588
43426SOL    HW142003  12.804   3.917   4.333  0.3243 -1.2567 -0.7669
43426SOL    HW242004  12.685   3.869   4.413 -0.1035  1.3268  0.2261
43427SOL     OW42005  11.981   1.656  11.743 -0.1229 -0.1845  0.1975
43427SOL    HW142006  12.001   1.592  11.812  1.4339 -1.6022 -1.4619
43427SOL    HW242007  12.052   1.719  11.748  0.9388 -1.2096 -1.0844
43428SOL     OW42008   2.475  13.617   4.584 -0.1015 -0.1180  0.1666
43428SOL    HW142009   2.497  13.667   4.505 -1.8115  2.8894  1.4009
43428SOL    HW242010   2.544  13.640   4.646  1.7834 -3.2296 -0.5626
43429SOL     OW42011  10.189  12.743   4.968 -0.1567 -0.3767  0.1283
43429SOL    HW142012  10.202  12.814   4.906 -0.4838 -0.1644  0.2958
43429SOL    HW242013  10.189  12.663   4.915 -0.7823 -0.1690 -0.1919
43430SOL     OW42014  10.535   3.792   3.129  0.2851  0.1639 -0.7410
43430SOL    HW142015  10.459   3.741   3.158  0.6161 -0.1247 -0.3776
43430SOL    HW242016  10.508   3.828   3.044 -0.0656 -0.3660 -0.8615
43431SOL     OW42017   9.670   7.558   0.551  0.5110  0.3919  0.0066
43431SOL    HW142018   9.654   7.626   0.616  0.7273  0.2924  0.1637
43431SOL    HW242019   9.615   7.583   0.477  0.7405  0.8538 -0.0169
43432SOL     OW42020   9.759  12.308   9.111  0.3119 -0.0351 -0.4227
43432SOL    HW142021   9.787  12.243   9.047  1.0142  1.1361 -1.3464
43432SOL    HW242022   9.840  12.346   9.144 -0.0665 -0.2796  0.8073
43433SOL     OW42023  11.527   5.634   3.600  0.1549 -0.2773  0.0358
43433SOL    HW142024  11.505   5.727   3.593  0.3354 -0.1985  0.4689
43433SOL    HW242025  11.468   5.600   3.668 -0.3598 -0.6254 -0.5808
43434SOL     OW42026   1.759   6.962   1.357 -0.0328  0.0538  0.3581
43434SOL    HW142027   1.751   6.897   1.287  0.9671  0.0156  0.2673
43434SOL    HW242028   1.675   6.959   1.403 -1.2125  0.9714 -1.6031
43435SOL     OW42029   3.342   2.811   8.267  0.4640  0.5641  0.1442
43435SOL    HW142030   3.390   2.778   8.191 -1.6746 -0.3266 -0.9252
43435SOL    HW242031   3.351   2.742   8.333  1.1489  0.6814  0.1755
43436SOL     OW42032  10.777   6.489   0.633  0.0867 -0.0965 -0.0249
43436SOL    HW142033  10.721   6.484   0.710  1.3622  1.2683  1.0599
43436SOL    HW242034  10.752   6.413   0.580 -1.1352 -0.8252  1.5085
43437SOL     OW42035   7.820   7.477   0.660  0.1123 -0.0386  0.2059
43437SOL    HW142036   7.750   7.412   0.656 -0.6331  0.7219  0.5682
43437SOL    HW242037   7.891   7.438   0.609 -0.5035 -0.9020 -0.0274
43438SOL     OW42038  13.059   0.959  11.607 -0.3406  0.0898 -0.5704
43438SOL    HW142039  13.115   0.909  11.667  1.5563  1.7793 -0.8350
43438SOL    HW242040  13.097   0.944  11.520  0.2034  1.8013 -0.6747
43439SOL     OW42041  12.340   5.441  10.037  0.1089  0.0282  0.2420
43439SOL    HW142042  12.309   5.511   9.979  2.2205 -1.0264 -2.3736
43439SOL    HW242043  12.410   5.483  10.088 -1.0931  0.7088  1.3834
43440SOL     OW42044   0.159   0.807   7.891 -0.4015 -0.4835  0.1763
43440SOL    HW142045   0.246   0.845   7.897 -0.1991 -0.3849 -2.4592
43440SOL    HW242046   0.099   0.882   7.890 -0.2392 -0.3418 -1.4737
43441SOL     OW42047   7.779  11.633   0.729  0.3807 -0.1179 -0.1922
43441SOL    HW142048   7.796  11.694   0.657  0.7129  1.1459  0.9120
43441SOL    HW242049   7.719  11.568   0.692  0.4853  0.5365 -1.5796
43442SOL     OW42050   4.612  12.545   2.115  0.5681  0.5348 -0.7982
43442SOL    HW142051   4.562  12.618   2.152 -0.4894  0.6763 -2.3797
43442SOL    HW242052   4.675  12.586   2.056  0.3849  0.2229 -1.2229
43443SOL     OW42053  12.502   6.617  13.732  0.1754 -0.9367 -0.6831
43443SOL    HW142054  12.432   6.632  13.796 -0.4210 -0.5388 -1.4227
43443SOL    HW242055  12.581   6.651  13.775  0.0810 -2.0958  0.4762
43444SOL     OW42056   9.786   3.325   7.446  0.6033  0.4577 -0.0856
43444SOL    HW142057   9.730   3.362   7.513 -0.5510 -0.8300 -0.2960
43444SOL    HW242058   9.734   3.256   7.406  2.4727 -1.0880 -0.0078
43445SOL     OW42059   7.989  11.157  10.957 -0.3461  0.5509 -0.0161
43445SOL    HW142060   7.908  11.204  10.981 -1.1857 -1.0658  0.4775
43445SOL    HW242061   8.016  11.114  11.038  0.1944 -0.1101 -0.5403
43446SOL     OW42062   4.032  12.128   6.322  0.3097  0.4453  0.4172
43446SOL    HW142063   3.986  12.206   6.292 -1.9381 -0.8253  0.4044
43446SOL    HW242064   3.965  12.061   6.331  2.1293 -1.4789  0.6210
43447SOL     OW42065   7.972  10.065  11.798  0.5770 -0.2770 -0.5226
43447SOL    HW142066   8.046  10.111  11.760  1.2187 -0.0587  0.9235
43447SOL    HW242067   7.962  10.104  11.885 -1.0087 -0.5549 -0.5521
43448SOL     OW42068   5.853   1.506   5.181  0.2130  0.4262  0.7906
43448SOL    HW142069   5.803   1.473   5.106  0.9895  0.6261  0.1683
43448SOL    HW242070   5.795   1.569   5.223  0.5394  1.9636 -0.9410
43449SOL     OW42071   7.583   4.201  12.771 -0.3126  0.6499  0.0501
43449SOL    HW142072   7.678   4.210  12.783 -0.2282 -0.0185 -0.0663
43449SOL    HW242073   7.572   4.178  12.679 -0.5731  0.5762  0.0989
43450SOL     OW42074   4.233   5.469   5.039  0.0494  0.6178  0.2645
43450SOL    HW142075   4.194   5.556   5.037 -0.0440  0.5654 -0.7659
43450SOL    HW242076   4.201   5.426   4.959  0.8403 -0.0283  0.2749
43451SOL     OW42077  10.217   8.302  11.148 -0.6929 -0.6120 -0.3788
43451SOL    HW142078  10.246   8.248  11.222 -3.2986 -0.0457  1.1841
43451SOL    HW242079  10.197   8.387  11.187 -1.7976 -0.1852 -1.7944
43452SOL     OW42080  13.356   6.173   2.650 -0.0261  0.4230 -0.4010
43452SOL    HW142081  13.406   6.108   2.699 -0.1815  1.2852  0.9693
43452SOL    HW242082  13.264   6.152   2.668 -0.0807  1.8307  1.2660
43453SOL     OW42083   8.204   2.009   1.826  0.0930 -0.4156  0.0599
43453SOL    HW142084   8.242   2.012   1.914 -0.7301 -1.0709  0.4500
43453SOL    HW242085   8.255   1.943   1.780 -0.2335 -0.9268  0.4206
43454SOL     OW42086   9.624   9.990   4.202 -0.0524  0.0746 -0.4860
43454SOL    HW142087   9.592   9.959   4.287  0.3281  1.1335  0.0765
43454SOL    HW242088   9.558   9.963   4.139 -1.2947  0.8770  0.4231
43455SOL     OW42089   5.692   1.389   2.751 -0.0347 -0.3481 -0.7189
43455SOL    HW142090   5.733   1.474   2.733 -0.1461  0.0303  0.6550
43455SOL    HW242091   5.722   1.366   2.839 -1.6587 -0.7046 -0.2215
43456SOL     OW42092  10.573   4.954   0.147  0.0805  0.1904 -0.7299
43456SOL    HW142093  10.491   4.975   0.190  0.3288 -1.8760  0.8886
43456SOL    HW242094  10.639   5.006   0.194  0.0128 -0.0465 -0.3732
43457SOL     OW42095   3.640   4.325  11.384 -0.1457 -0.3179  0.1954
43457SOL    HW142096   3.604   4.257  11.328  0.8526  0.1860 -1.1156
43457SOL    HW242097   3.734   4.305  11.389 -0.0838  0.1147  1.0145
43458SOL     OW42098  13.484  13.324   4.670  0.1791 -0.1672  0.4941
43458SOL    HW142099  13.568  13.370   4.670 -1.0366  2.2146  1.2477
43458SOL    HW242100  13.422  13.387   4.708 -1.6431 -2.4409  1.5542
43459SOL     OW42101  11.323   0.471   9.914  0.0856 -0.2315 -0.1335
43459SOL    HW142102  11.364   0.540   9.966  1.1401 -2.3562  2.0951
43459SOL    HW242103  11.231   0.473   9.939  0.1105  0.3253 -0.0741
43460SOL     OW42104   2.334   7.457   7.055  0.6812  0.0701  0.1286
43460SOL    HW142105   2.327   7.399   6.978 -0.5991  0.0812  0.2089
43460SOL    HW242106   2.426   7.453   7.080  1.5540  1.5004 -2.5042
43461SOL     OW42107  11.265   1.763  13.646 -0.5507 -0.0627 -0.5287
43461SOL    HW142108  11.316   1.710  13.585  0.7121  0.1009  0.3281
43461SOL    HW242109  11.308   1.750  13.731 -0.2227  2.2342 -0.2717
43462SOL     OW42110   3.331  10.031   9.860  0.0992 -0.0547  0.1065
43462SOL    HW142111   3.318   9.938   9.839  0.3212 -0.3481  1.2075
43462SOL    HW242112   3.246  10.072   9.843 -0.5617 -0.8234  1.4509
43463SOL     OW42113   3.022   8.942   3.222  0.2168  0.0235 -0.3611
43463SOL    HW142114   2.950   8.895   3.262 -1.0739 -0.5142 -3.1038
43463SOL    HW242115   3.071   8.876   3.174  0.9836  0.8224 -0.7117
43464SOL     OW42116  11.887   3.805   8.347  0.3381 -0.1696 -0.0601
43464SOL    HW142117  11.893   3.747   8.271  0.9521  1.5611 -1.4117
43464SOL    HW242118  11.857   3.749   8.418 -2.8312 -1.3657 -2.1505
43465SOL     OW42119   5.412   2.861   3.189 -0.0011 -0.2645  0.0515
43465SOL    HW142120   5.390   2.787   3.246  1.0805 -0.5762  0.0812
43465SOL    HW242121   5.376   2.937   3.234 -1.4379 -0.7902 -0.1531
43466SOL     OW42122   8.461  13.095   2.574 -0.5811  0.0194 -0.8443
43466SOL    HW142123   8.538  13.043   2.554 -0.9382 -0.7778 -0.2142
43466SOL    HW242124   8.491  13.161   2.637 -0.1297  0.5825 -1.6395
43467SOL     OW42125   0.501  13.255  10.134  0.6337  0.6410 -0.0063
43467SOL    HW142126   0.436  13.321  10.157 -0.8464 -0.2615 -1.4312
43467SOL    HW242127   0.582  13.305  10.122 -0.4998  2.2905 -1.3693
43468SOL     OW42128  10.941   6.685  13.171 -0.0409 -0.3991  0.1627
43468SOL    HW142129  10.966   6.598  13.140 -3.1297 -0.9318 -1.1348
43468SOL    HW242130  10.876   6.669  13.240 -1.1717  0.8430 -0.5729
43469SOL     OW42131   6.281   1.357  13.095 -0.4500  0.2509 -0.0061
43469SOL    HW142132   6.270   1.361  13.000 -4.6949 -2.6610  0.0962
43469SOL    HW242133   6.303   1.266  13.114 -0.5436  0.5661  1.8804
43470SOL     OW42134   7.654  13.496   9.626 -0.1875  0.2953 -0.0101
43470SOL    HW142135   7.608  13.522   9.706  1.3135  1.5926  0.5023
43470SOL    HW242136   7.723  13.437   9.656 -1.2799 -1.3989 -0.7271
43471SOL     OW42137   6.514  10.054  12.833  0.0544  0.0263 -0.0971
43471SOL    HW142138   6.574  10.128  12.819 -1.3298  1.0628 -0.8197
43471SOL    HW242139   6.486  10.030  12.745 -1.3129  0.1964  0.2711
43472SOL     OW42140   2.965   3.507   9.373  0.4568  0.5020 -0.5929
43472SOL    HW142141   2.903   3.574   9.344  0.9535  1.6806  0.8783
43472SOL    HW242142   3.051   3.547   9.360  0.7341  0.6058  1.2253
43473SOL     OW42143   0.813   0.072   4.969  0.3350 -0.4698  0.1726
43473SOL    HW142144   0.766   0.154   4.953  1.0298 -0.2515 -0.8218
43473SOL    HW242145   0.822   0.068   5.065 -0.2382  0.2999  0.2715
43474SOL     OW42146   2.940   9.367  12.087  0.6216 -0.2963  0.3381
43474SOL    HW142147   3.010   9.386  12.149  0.2662 -0.0898  0.6769
43474SOL    HW242148   2.875   9.435  12.102 -0.1820 -1.1571  0.8290
43475SOL     OW42149  10.569   0.475   2.407 -0.7233 -0.3630 -0.0559
43475SOL    HW142150  10.577   0.478   2.311  0.6451  1.0583  0.0611
43475SOL    HW242151  10.547   0.565   2.431  2.0370  0.0805  1.1557
43476SOL     OW42152  13.736  12.485   0.933  0.2191 -0.3651  0.2228
43476SOL    HW142153  13.681  12.423   0.981 -0.6370 -0.7867 -1.2356
43476SOL    HW242154  13.796  12.520   0.998 -0.7861 -1.0387  1.5468
43477SOL     OW42155   4.732  11.969   0.427 -0.1890  0.3477  0.0263
43477SOL    HW142156   4.743  11.927   0.513  0.5014  0.6156  0.0758
43477SOL    HW242157   4.789  12.045   0.430 -0.8495  0.8658 -0.3512
43478SOL     OW42158   7.625  10.486   9.355  0.7033 -0.3884  0.2415
43478SOL    HW142159   7.532  10.496   9.375  0.7711 -0.3322  0.5291
43478SOL    HW242160   7.663  10.448   9.434  1.0391  0.1879  0.3622
43479SOL     OW42161  11.819   1.493  12.089 -0.4704 -0.1313 -0.4706
43479SOL    HW142162  11.785   1.506  12.177  0.0479  0.9846 -0.4267
43479SOL    HW242163  11.760   1.428  12.050 -0.4462 -0.9726  0.8347
43480SOL     OW42164  10.534  13.475   6.903 -0.6352  0.1858  0.1641
43480SOL    HW142165  10.503  13.440   6.820 -0.8597 -1.7337  1.0127
43480SOL    HW242166  10.544  13.569   6.887 -0.5973 -0.1438 -2.0317
43481SOL     OW42167  12.108   1.205   3.760 -0.3881  0.4942  0.1440
43481SOL    HW142168  12.143   1.118   3.781 -1.3129 -0.3147 -1.5164
43481SOL    HW242169  12.120   1.255   3.841  2.1460 -0.5043  0.4627
43482SOL     OW42170  11.114   3.117   6.674 -0.6224 -0.0008  0.5604
43482SOL    HW142171  11.136   3.050   6.738  0.6025 -0.4179 -0.2747
43482SOL    HW242172  11.127   3.076   6.589 -2.1886  0.5590  0.0069
43483SOL     OW42173   8.389   7.077   0.332 -0.4051  0.0568  0.1246
43483SOL    HW142174   8.330   7.030   0.391  0.2572 -0.7146  0.2000
43483SOL    HW242175   8.405   7.015   0.260  2.5919 -0.9734  1.5167
43484SOL     OW42176  11.952  12.092   1.093 -0.2155 -0.5099 -0.0125
43484SOL    HW142177  12.039  12.067   1.127  1.2630  5.3211  1.6597
43484SOL    HW242178  11.896  12.093   1.171 -0.7258 -0.5914 -0.3804
43485SOL     OW42179  10.392   6.892   0.035 -0.4588  0.2824  0.2273
43485SOL    HW142180  10.318   6.940   0.072  0.5088  2.2733 -0.2854
43485SOL    HW242181  10.352   6.829  -0.025 -1.7529  2.2074 -1.0599
43486SOL     OW42182   7.338  10.187   5.066 -0.5588  0.0790  1.1705
43486SOL    HW142183   7.261  10.153   5.111 -0.8491 -1.3385 -0.3079
43486SOL    HW242184   7.339  10.141   4.982  1.8489  0.0947  1.1103
43487SOL     OW42185   8.080   3.843   5.725 -0.1073 -0.1887 -0.3163
43487SOL    HW142186   7.988   3.847   5.750 -0.0399 -0.2505 -0.0487
43487SOL    HW242187   8.093   3.754   5.693 -0.2160 -0.0815 -0.6640
43488SOL     OW42188   2.513   2.422  10.358 -0.0004 -0.1423 -0.1541
43488SOL    HW142189   2.493   2.454  10.270  1.0432 -1.0683 -0.7420
43488SOL    HW242190   2.533   2.502  10.408  0.6054  0.2948 -1.0724
43489SOL     OW42191  13.046   3.481  11.907 -0.1867  0.6152 -0.3523
43489SOL    HW142192  12.958   3.483  11.870 -0.0266  0.1401 -0.7698
43489SOL    HW242193  13.100   3.527  11.843  0.0165  0.1597 -0.5143
43490SOL     OW42194  11.292   1.929   5.992 -0.4280  0.3381  0.2759
43490SOL    HW142195  11.219   1.990   5.984  0.0705  0.8269 -0.6351
43490SOL    HW242196  11.289   1.877   5.913  0.3806  0.5621  0.0852
43491SOL     OW42197   7.185  12.168   6.546 -0.2251  0.4834  0.1575
43491SOL    HW142198   7.194  12.073   6.535 -2.0062  0.5877 -3.1140
43491SOL    HW242199   7.105  12.179   6.598 -0.1794  0.2275  0.2830
43492SOL     OW42200   0.902   7.131  13.643 -0.1529 -0.3134  0.1396
43492SOL    HW142201   0.983   7.117  13.593  0.3527 -2.5655  1.4609
43492SOL    HW242202   0.894   7.054  13.698 -3.3370 -0.2595 -0.0577
43493SOL     OW42203   3.947   0.994   9.934 -0.4167  0.2822  0.2344
43493SOL    HW142204   3.869   1.042   9.906 -1.2312 -1.5886 -0.8625
43493SOL    HW242205   3.915   0.936  10.003 -0.7536 -2.5958 -2.1541
43494SOL     OW42206  12.770   2.530   2.785 -0.2824 -0.3980 -0.3435
43494SOL    HW142207  12.809   2.544   2.872  0.3824  0.2685 -0.7453
43494SOL    HW242208  12.757   2.435   2.781  3.4871 -1.0469 -1.0728
43495SOL     OW42209   9.914   3.244   3.507 -0.1022  0.1637  0.2375
43495SOL    HW142210   9.919   3.300   3.585  0.7659  1.9021 -1.0262
43495SOL    HW242211  10.004   3.217   3.491 -0.4788 -1.4738  0.6943
43496SOL     OW42212   8.641  10.627   1.529  0.4094  0.2929 -0.0491
43496SOL    HW142213   8.721  10.574   1.533 -0.9657 -1.8646  1.5463
43496SOL    HW242214   8.632  10.664   1.617 -0.4820  0.2472 -0.1105
43497SOL     OW42215   2.155   1.683  13.552 -0.2568  0.3560  0.7606
43497SOL    HW142216   2.069   1.706  13.515  0.1079  1.5452  0.6185
43497SOL    HW242217   2.210   1.759  13.535  1.5752 -1.2958 -1.3600
43498SOL     OW42218  12.398   7.682   7.560 -0.3623  0.0352 -0.1575
43498SOL    HW142219  12.480   7.719   7.528 -0.3421  0.4472  0.3670
43498SOL    HW242220  12.417   7.654   7.650  0.1388 -2.8769 -1.0675
43499SOL     OW42221   8.398   0.566  12.061 -0.5969 -0.0737 -0.2724
43499SOL    HW142222   8.398   0.471  12.047  0.4704 -0.7616  3.2886
43499SOL    HW242223   8.313   0.584  12.100 -0.6270  0.3661 -0.5375
43500SOL     OW42224   3.695  12.555   6.610 -0.5867  0.7417 -0.0022
43500SOL    HW142225   3.700  12.472   6.561 -0.6317  0.1211  1.0253
43500SOL    HW242226   3.759  12.545   6.680  0.1849  2.0206 -0.4925
43501SOL     OW42227   0.162   3.910   1.051  0.3183  0.2584  0.1945
43501SOL    HW142228   0.117   3.878   1.129  1.3862  0.8248  1.0697
43501SOL    HW242229   0.250   3.873   1.057  0.7124  1.0958 -0.2319
43502SOL     OW42230   3.741   4.869  13.626  0.4514  1.1236 -0.4168
43502SOL    HW142231   3.742   4.775  13.610  2.5286  1.2395 -1.3070
43502SOL    HW242232   3.702   4.906  13.547 -0.5867  1.0151  0.0339
43503SOL     OW42233   2.886   4.060   0.051 -0.0706 -0.3082 -0.1317
43503SOL    HW142234   2.887   4.083  -0.042  0.2945  0.3702  0.0325
43503SOL    HW242235   2.968   4.095   0.085 -1.7140  2.6716  1.1740
43504SOL     OW42236   6.278   1.431   0.059  0.2699 -0.2394  0.0931
43504SOL    HW142237   6.325   1.411  -0.022  1.9139  1.3094  0.5947
43504SOL    HW242238   6.222   1.355   0.074 -0.1258 -0.5366 -2.4974
43505SOL     OW42239  11.390   5.825   9.440  0.1992 -0.1064  1.0592
43505SOL    HW142240  11.327   5.753   9.446  0.2762 -0.3120 -0.2620
43505SOL    HW242241  11.396   5.859   9.529 -1.9980  0.1005  1.2038
43506SOL     OW42242   7.816   6.701   1.955 -0.1117  0.2332  0.4324
43506SOL    HW142243   7.796   6.795   1.950 -0.7636  0.0641 -0.2209
43506SOL    HW242244   7.781   6.674   2.040 -1.5420  0.2222 -0.1308
43507SOL     OW42245   7.112   0.145   8.587 -0.4565  0.5180  0.4640
43507SOL    HW142246   7.059   0.213   8.545 -0.3951 -0.2216 -0.8745
43507SOL    HW242247   7.201   0.161   8.556 -0.2883  0.3758  0.8702
43508SOL     OW42248   2.902  12.820   4.838 -0.0914 -0.1073  0.5460
43508SOL    HW142249   2.942  12.905   4.820  0.8485 -0.5362  0.5268
43508SOL    HW242250   2.919  12.805   4.930 -2.2938  0.7416  1.1612
43509SOL     OW42251   7.524  10.915   9.509  0.3676 -0.1109  0.1953
43509SOL    HW142252   7.527  10.855   9.584 -0.7361  0.2173  0.5274
43509SOL    HW242253   7.576  10.872   9.441  1.2181 -0.5071  1.0760
43510SOL     OW42254   7.752   3.390   2.969 -0.1629  0.3393  0.5458
43510SOL    HW142255   7.786   3.440   2.895 -1.9526  2.2322  0.9229
43510SOL    HW242256   7.720   3.456   3.031 -3.4996 -1.1744  0.6690
43511SOL     OW42257   8.968   1.840   2.162  0.0114 -0.1670  0.4094
43511SOL    HW142258   8.873   1.834   2.154 -0.0485 -0.3193  1.1813
43511SOL    HW242259   8.996   1.749   2.176  0.5475 -0.5328 -2.4380
43512SOL     OW42260   6.053   9.409  10.756 -0.7691  0.3894  0.2966
43512SOL    HW142261   6.077   9.438  10.844  1.5540  1.3963 -0.5651
43512SOL    HW242262   6.097   9.471  10.698  0.1501 -1.8827 -1.5982
43513SOL     OW42263  10.394   2.957   3.034 -0.1497 -0.1355 -0.4149
43513SOL    HW142264  10.425   2.914   2.954  0.7380 -0.6867  0.2107
43513SOL    HW242265  10.443   3.039   3.037  3.6086 -2.2082  2.0323
43514SOL     OW42266  12.928  13.044   7.847  0.4453 -0.3762 -0.3619
43514SOL    HW142267  12.915  13.089   7.763 -1.3312  2.3657  1.2316
43514SOL    HW242268  12.850  13.066   7.898  0.9903 -2.7971  1.7031
43515SOL     OW42269  10.522  11.810   8.057 -0.3566  0.1275 -0.2608
43515SOL    HW142270  10.537  11.718   8.039 -0.5528  0.0645 -0.1017
43515SOL    HW242271  10.435  11.828   8.021 -0.7259  0.0174  0.5741
43516SOL     OW42272  11.268  10.338  11.374  0.2352  0.0031  0.3266
43516SOL    HW142273  11.319  10.312  11.297 -0.9568  0.6843 -0.7455
43516SOL    HW242274  11.247  10.431  11.358 -0.3266  0.0547  1.2964
43517SOL     OW42275   4.690  13.710  11.500  0.5162 -0.4214 -0.2782
43517SOL    HW142276   4.704  13.769  11.574 -0.7400 -0.1145 -0.2621
43517SOL    HW242277   4.628  13.645  11.533  1.1266 -1.1788 -0.6000
43518SOL     OW42278   9.710   9.609  12.396 -0.0026 -0.4184  0.5714
43518SOL    HW142279   9.713   9.514  12.389 -2.1848 -0.6298  1.6741
43518SOL    HW242280   9.704   9.627  12.490 -1.0075  0.6868  0.3320
43519SOL     OW42281   4.813   4.977  10.460 -0.2660  0.3201 -0.5959
43519SOL    HW142282   4.744   5.041  10.441 -0.5331 -0.1498 -1.2199
43519SOL    HW242283   4.880   5.028  10.506 -0.9811  0.8001 -0.0600
43520SOL     OW42284  11.832   4.380   5.804 -0.5571 -0.1323 -0.2872
43520SOL    HW142285  11.898   4.388   5.873 -1.4084  2.2080  0.3532
43520SOL    HW242286  11.882   4.381   5.723  0.2897  0.0177  0.2246
43521SOL     OW42287   4.063   3.847   0.906  0.3905  0.7328  0.9749
43521SOL    HW142288   4.068   3.762   0.861  1.0688  1.1147  0.3037
43521SOL    HW242289   4.078   3.827   0.998 -0.1734  0.0361  0.9272
43522SOL     OW42290   0.345   1.290   5.960  0.4028 -0.3653 -0.5278
43522SOL    HW142291   0.440   1.300   5.965  0.3421  0.4081 -0.9403
43522SOL    HW242292   0.324   1.303   5.868  0.1068 -2.4968 -0.8111
43523SOL     OW42293  10.072   9.954  12.487 -0.1842  0.2794 -0.3621
43523SOL    HW142294  10.120  10.022  12.535  1.0281 -0.2843 -0.7314
43523SOL    HW242295  10.076   9.982  12.396  1.6209 -0.9782 -0.7241
43524SOL     OW42296   8.171   3.977  12.247  0.0320 -0.1641 -0.7487
43524SOL    HW142297   8.077   3.960  12.242  0.1548 -1.0346 -0.3561
43524SOL    HW242298   8.208   3.895  12.281  1.1781 -0.6249 -2.9273
43525SOL     OW42299   2.087   3.936   4.179  0.4247 -0.1651  0.1415
43525SOL    HW142300   2.052   3.978   4.100  1.6889 -0.0881 -0.3924
43525SOL    HW242301   2.039   3.977   4.251 -1.2570 -0.7212 -0.5912
43526SOL     OW42302  12.303   0.782  12.340 -0.3033 -0.2997  0.2417
43526SOL    HW142303  12.248   0.733  12.280  0.4296 -0.2452 -0.4951
43526SOL    HW242304  12.370   0.822  12.284  0.3354 -0.1621  1.0810
43527SOL     OW42305   5.978   7.333  13.375  0.1990 -0.1036 -0.2722
43527SOL    HW142306   5.976   7.366  13.285  0.4067  0.9695  0.1070
43527SOL    HW242307   5.970   7.238  13.366 -0.7163  0.0660 -1.3749
43528SOL     OW42308   6.914  13.001   5.764 -0.4919 -0.4413 -0.1293
43528SOL    HW142309   6.883  12.932   5.823 -4.5758  0.7725 -0.5219
43528SOL    HW242310   6.869  12.983   5.681  1.7421  0.3314 -1.5850
43529SOL     OW42311  11.319  13.528   9.266  0.2016 -0.2460  0.3496
43529SOL    HW142312  11.352  13.444   9.234  1.0031 -0.2002  1.0364
43529SOL    HW242313  11.386  13.591   9.239 -0.9832  0.4063 -1.2896
43530SOL     OW42314   3.117   9.003  11.362 -0.5463  0.3806  0.1174
43530SOL    HW142315   3.195   9.005  11.418 -0.7070  1.1454  0.3278
43530SOL    HW242316   3.146   8.958  11.282 -0.0155  0.2547  0.3765
43531SOL     OW42317  11.820  13.261   4.068 -0.5046 -0.6983  0.0611
43531SOL    HW142318  11.779  13.334   4.022 -2.4805 -1.6407  0.2014
43531SOL    HW242319  11.746  13.212   4.105  0.8134 -2.2137  0.8063
43532SOL     OW42320   7.960   6.632   3.171 -0.6758  0.3756 -0.1154
43532SOL    HW142321   7.906   6.704   3.201 -1.5353  0.4907 -1.7916
43532SOL    HW242322   8.047   6.650   3.206 -0.7649  2.4732 -0.8613
43533SOL     OW42323  10.782   0.376  10.916 -0.2554 -0.2095 -0.6329
43533SOL    HW142324  10.714   0.376  10.984  0.0187  0.0025 -0.3509
43533SOL    HW242325  10.759   0.450  10.860 -0.0662  0.0837 -0.3329
43534SOL     OW42326  10.645   2.769   3.088  0.0522 -0.4272 -0.2698
43534SOL    HW142327  10.691   2.834   3.035 -1.2907 -0.6398 -1.7670
43534SOL    HW242328  10.660   2.686   3.043 -0.4808 -0.7384  0.1117
43535SOL     OW42329  13.444   6.772   2.610  0.3472  0.1278  0.0021
43535SOL    HW142330  13.501   6.811   2.677 -0.1488  0.4675  0.2320
43535SOL    HW242331  13.486   6.795   2.527  1.3257 -0.8577  0.2043
43536SOL     OW42332   2.786   9.559   6.211  0.0263  0.6618 -0.3336
43536SOL    HW142333   2.808   9.572   6.303  1.4686  0.2798 -0.6003
43536SOL    HW242334   2.801   9.466   6.196 -1.3545  0.4671 -0.6857
43537SOL     OW42335   5.895   6.139   9.217  0.6592  0.4139  0.0376
43537SOL    HW142336   5.883   6.045   9.234  0.4417  0.2090 -1.1399
43537SOL    HW242337   5.844   6.183   9.284  0.1319 -0.3328  0.1326
43538SOL     OW42338   8.333   2.162  10.502 -0.1776  0.4428 -0.6442
43538SOL    HW142339   8.243   2.162  10.472 -0.5995  0.6500  0.5515
43538SOL    HW242340   8.329   2.119  10.588  1.0571 -0.6902 -1.1096
43539SOL     OW42341   0.747   9.673   5.134 -0.5585 -0.1043 -0.0289
43539SOL    HW142342   0.668   9.724   5.149 -1.1063 -0.7569 -0.6049
43539SOL    HW242343   0.806   9.733   5.089 -0.5359  0.5320  0.8231
43540SOL     OW42344  13.543   0.278  10.139 -0.7249 -0.5898  0.1885
43540SOL    HW142345  13.512   0.260  10.228  0.7320  1.1669  1.1260
43540SOL    HW242346  13.466   0.266  10.084 -1.6887 -1.6266  1.6999
43541SOL     OW42347   3.568   4.489   4.285  0.1581  0.3655 -0.2896
43541SOL    HW142348   3.652   4.517   4.248  0.1693 -0.0355 -0.5735
43541SOL    HW242349   3.593   4.436   4.361  0.1681  0.0872 -0.4859
43542SOL     OW42350   5.914   1.708   0.226  0.0090  0.1928  0.2481
43542SOL    HW142351   5.981   1.640   0.235  0.2534  0.4608  0.4819
43542SOL    HW242352   5.837   1.672   0.271  0.5048  0.5622  1.4152
43543SOL     OW42353   7.064   3.395  10.637  0.0191  0.1697  0.2801
43543SOL    HW142354   7.049   3.456  10.565 -1.6957 -0.1164  0.3392
43543SOL    HW242355   6.976   3.376  10.671  0.7972  0.8008  2.8741
43544SOL     OW42356   3.029  12.557   4.477  0.2167  0.0435 -0.5317
43544SOL    HW142357   3.039  12.551   4.572 -2.8522  1.6993  0.0491
43544SOL    HW242358   2.966  12.488   4.455  0.7798 -0.2208 -1.3460
43545SOL     OW42359   2.436   0.157   0.298 -0.0002 -0.1279  0.0942
43545SOL    HW142360   2.495   0.108   0.355 -0.5547 -0.6445  0.2371
43545SOL    HW242361   2.431   0.106   0.218  0.8974  0.6772 -0.4942
43546SOL     OW42362   7.748  10.953   2.844  0.1945 -0.7781  0.1625
43546SOL    HW142363   7.793  10.956   2.759 -1.0984  0.3461 -0.5219
43546SOL    HW242364   7.659  10.924   2.822 -0.0839 -0.7146  1.1758
43547SOL     OW42365   5.965   0.884  12.481  0.5152  0.3809 -0.4485
43547SOL    HW142366   6.055   0.913  12.493  1.5020 -2.1760 -1.0080
43547SOL    HW242367   5.927   0.886  12.569  1.4067  0.6405 -0.0608
43548SOL     OW42368   1.813  11.344   9.108  0.3662 -0.4026 -0.2296
43548SOL    HW142369   1.858  11.381   9.184  1.2611 -1.2219 -0.3472
43548SOL    HW242370   1.840  11.400   9.035 -0.6059  0.4733  0.0547
43549SOL     OW42371  11.320   3.244  10.376 -0.4065 -0.5474 -0.3448
43549SOL    HW142372  11.415   3.246  10.392 -0.4294  2.5561 -0.1422
43549SOL    HW242373  11.281   3.258  10.462 -1.0866 -1.5887 -0.4633
43550SOL     OW42374   3.066  12.936  13.393 -0.1063  0.7294 -0.9626
43550SOL    HW142375   2.983  12.897  13.418  0.6329 -0.5467 -0.3957
43550SOL    HW242376   3.129  12.903  13.457  0.7886  1.9177 -1.1821
43551SOL     OW42377   4.872  13.438   0.138 -0.2631 -0.2176 -0.4847
43551SOL    HW142378   4.964  13.445   0.113  0.1677  1.7139  1.4162
43551SOL    HW242379   4.842  13.359   0.093  2.1469 -0.6027 -1.6114
43552SOL     OW42380   7.163  13.535   0.372  0.0052  0.1833  0.0947
43552SOL    HW142381   7.248  13.491   0.370  0.4871  1.1063 -1.4265
43552SOL    HW242382   7.161  13.579   0.457  0.7041 -0.4575  0.4626
43553SOL     OW42383   8.391   0.702   9.070 -0.6663  0.1760 -0.2232
43553SOL    HW142384   8.411   0.665   8.984 -0.8360 -0.3388 -0.0474
43553SOL    HW242385   8.303   0.671   9.090 -0.7652  0.5801 -0.0146
43554SOL     OW42386   9.188  11.886   6.326  0.0822  0.9188  0.1902
43554SOL    HW142387   9.151  11.974   6.319 -1.6397  0.3070  0.9163
43554SOL    HW242388   9.129  11.840   6.386 -0.0085 -1.1969 -1.4043
43555SOL     OW42389  10.899   4.364   6.240  0.1674 -0.0254  0.5065
43555SOL    HW142390  10.868   4.281   6.205 -1.7509  0.3723  1.1425
43555SOL    HW242391  10.846   4.379   6.319 -0.2383  2.2219 -0.1005
43556SOL     OW42392  13.351   4.390   0.819  0.2110  0.6076 -0.3549
43556SOL    HW142393  13.270   4.415   0.775  0.2940  0.8027 -0.3972
43556SOL    HW242394  13.395   4.332   0.757  0.4451  1.0791 -0.6327
43557SOL     OW42395   0.567   6.701   9.505 -0.3078  0.9703 -0.0862
43557SOL    HW142396   0.639   6.684   9.444  0.0599  0.8319  0.3785
43557SOL    HW242397   0.512   6.766   9.460  0.4701  1.5914 -0.1680
43558SOL     OW42398  10.862  12.469   4.860  0.5341 -0.6567  0.2401
43558SOL    HW142399  10.933  12.464   4.796  0.2548 -0.7776 -0.0617
43558SOL    HW242400  10.896  12.421   4.936  0.7389 -0.7963  0.0631
43559SOL     OW42401   2.279   4.472   8.769  0.1367 -0.0212  0.9086
43559SOL    HW142402   2.272   4.402   8.834  1.5038  0.4186  1.5708
43559SOL    HW242403   2.222   4.445   8.698 -2.9742  0.3888  3.0647
43560SOL     OW42404   3.532  11.306   8.228 -0.1133  0.5505  0.1266
43560SOL    HW142405   3.550  11.215   8.205 -1.7213  0.6914 -2.0672
43560SOL    HW242406   3.440  11.306   8.257  0.1076  1.3713  0.9059
43561SOL     OW42407   6.147  10.979   2.851 -0.1299 -0.3127 -0.2760
43561SOL    HW142408   6.085  10.914   2.820 -1.1998 -0.5195  2.1055
43561SOL    HW242409   6.094  11.054   2.877  0.5841 -0.3429  1.4550
43562SOL     OW42410   3.218   0.201   1.460 -0.1279 -0.3693  0.1959
43562SOL    HW142411   3.212   0.295   1.476 -0.2576 -0.5504  1.3282
43562SOL    HW242412   3.145   0.164   1.510 -0.3376 -1.0392 -0.5798
43563SOL     OW42413   4.412  10.747   1.706  0.3786 -0.3813 -0.2378
43563SOL    HW142414   4.406  10.831   1.662  1.6952 -0.1139  0.0458
43563SOL    HW242415   4.443  10.768   1.794  1.1222 -1.1900 -0.2958
43564SOL     OW42416  10.474   0.605   1.901 -0.2716 -0.0556 -0.4193
43564SOL    HW142417  10.455   0.698   1.908  1.3035  0.2967 -0.3170
43564SOL    HW242418  10.534   0.598   1.827  0.3451 -0.8518  0.1348
43565SOL     OW42419   1.039   5.080   4.014  0.3470 -0.2395 -0.4156
43565SOL    HW142420   1.034   5.128   3.932 -1.8747 -0.0888 -0.2494
43565SOL    HW242421   1.068   5.145   4.078 -0.9091  0.4667 -0.5288
43566SOL     OW42422   2.542   5.174   0.711 -0.0854  0.7124  0.5398
43566SOL    HW142423   2.589   5.143   0.634 -1.8890 -0.1497 -0.2429
43566SOL    HW242424   2.525   5.095   0.762 -0.5083  1.0450  0.9181
43567SOL     OW42425   9.967   1.003   5.338 -0.6979 -0.6400 -0.2494
43567SOL    HW142426  10.059   0.997   5.312 -0.9575 -0.5285 -1.2166
43567SOL    HW242427   9.968   1.059   5.416 -0.3836  3.5382 -2.9577
43568SOL     OW42428  10.052  13.350   1.643 -0.0089  0.1380 -0.2374
43568SOL    HW142429  10.116  13.304   1.697  0.6898  1.3400 -0.0108
43568SOL    HW242430  10.104  13.396   1.577 -0.7993 -0.6813 -1.4919
43569SOL     OW42431   0.893  12.780  12.497  0.0022  0.4136 -0.4503
43569SOL    HW142432   0.949  12.705  12.516 -2.0242 -1.2197 -0.6490
43569SOL    HW242433   0.860  12.809  12.582  0.6359  1.0086 -0.3922
43570SOL     OW42434   5.650   6.128   6.397  0.0179  0.5719  0.0797
43570SOL    HW142435   5.637   6.221   6.414  0.6288  0.3402  2.0365
43570SOL    HW242436   5.743   6.119   6.378  0.7477  0.0093  3.2578
43571SOL     OW42437   1.533  11.119   2.564  0.3033  0.1862  0.1913
43571SOL    HW142438   1.507  11.115   2.472  0.9552 -1.1079  0.0496
43571SOL    HW242439   1.462  11.167   2.606 -0.5613 -0.1907 -0.7885
43572SOL     OW42440   5.397   0.470  10.480 -0.1064  0.1201  0.8738
43572SOL    HW142441   5.412   0.563  10.496 -1.2585  0.7376 -1.1243
43572SOL    HW242442   5.326   0.469  10.415  0.4758 -2.1238  0.1810
43573SOL     OW42443   7.196   9.591  12.951 -0.4512  0.2928  0.3498
43573SOL    HW142444   7.200   9.502  12.985 -0.0042 -0.8098 -2.3087
43573SOL    HW242445   7.286   9.622  12.953 -0.4530  0.2977  0.3519
43574SOL     OW42446   8.531   0.762   0.472 -0.0750  0.7112 -0.7833
43574SOL    HW142447   8.607   0.786   0.420  1.3343 -0.2683  0.6947
43574SOL    HW242448   8.472   0.720   0.410  1.2682  0.1368 -1.7340
43575SOL     OW42449   5.664   3.881   4.703  0.2462  0.4900 -0.2801
43575SOL    HW142450   5.711   3.800   4.685  1.3467  1.2132 -0.7096
43575SOL    HW242451   5.606   3.893   4.628 -2.5931 -1.6888  1.3213
43576SOL     OW42452   8.398   7.265  12.807  0.3464 -0.4451 -0.1315
43576SOL    HW142453   8.467   7.320  12.846  0.0714 -0.8069  0.9081
43576SOL    HW242454   8.363   7.317  12.735 -1.0486  1.5142  1.8279
43577SOL     OW42455  10.669   7.782   8.993  0.0337  0.4345  0.1710
43577SOL    HW142456  10.763   7.775   9.006  0.2831  2.0603 -0.5112
43577SOL    HW242457  10.648   7.712   8.931  0.9040  0.4492 -0.1524
43578SOL     OW42458   1.269   9.610   3.761 -0.5924  0.0396  0.1251
43578SOL    HW142459   1.344   9.661   3.791  0.5815 -0.9348 -1.0200
43578SOL    HW242460   1.241   9.560   3.837 -0.2926  0.6707  0.6512
43579SOL     OW42461   1.434  11.423   7.156  0.4832  0.9927 -0.2497
43579SOL    HW142462   1.467  11.344   7.113 -1.3667 -0.0897  0.2093
43579SOL    HW242463   1.439  11.403   7.250 -1.7319  0.6162 -0.1594
43580SOL     OW42464   2.761   0.970   2.469  0.6530 -0.0722  0.0871
43580SOL    HW142465   2.753   0.875   2.475 -1.3290 -0.3338 -3.5330
43580SOL    HW242466   2.674   1.001   2.444  1.2975  2.7088  0.8395
43581SOL     OW42467   2.006   6.995   9.860 -0.1540  0.3086  0.1645
43581SOL    HW142468   2.090   6.957   9.884 -0.1484  0.6533  0.7104
43581SOL    HW242469   1.941   6.935   9.898 -0.1724 -0.2844 -0.7652
43582SOL     OW42470   3.232   4.129  11.434  0.1307 -0.6966 -0.3006
43582SOL    HW142471   3.225   4.046  11.388  1.2083 -1.2630  0.4905
43582SOL    HW242472   3.267   4.190  11.369  1.5964 -1.4730 -0.2795
43583SOL     OW42473   8.443   8.334   0.924 -0.0938 -0.5706  0.2501
43583SOL    HW142474   8.492   8.326   0.843 -1.7721 -0.2501 -0.8486
43583SOL    HW242475   8.352   8.349   0.896 -0.9045 -1.5389  2.1767
43584SOL     OW42476   0.048   8.814  12.447  0.1004  0.2398 -0.2707
43584SOL    HW142477   0.106   8.825  12.371  0.2134  2.3040  0.0624
43584SOL    HW242478  -0.010   8.743  12.422 -0.9047  1.8637 -2.9881
43585SOL     OW42479   4.270   3.950   0.509 -0.0697 -0.5126  0.5406
43585SOL    HW142480   4.227   3.943   0.424 -0.2794  0.5461  0.5467
43585SOL    HW242481   4.200   3.973   0.569  0.4257  0.9457  0.6004
43586SOL     OW42482  10.102  10.287   4.138 -0.0955 -0.2447 -0.1000
43586SOL    HW142483  10.101  10.192   4.126 -1.1688 -0.1364 -1.0430
43586SOL    HW242484  10.064  10.322   4.058  1.5190  1.0788 -0.3417
43587SOL     OW42485   5.456  10.693   7.520  0.0607  0.1985 -0.0918
43587SOL    HW142486   5.545  10.706   7.487  0.6117 -1.3943  0.6213
43587SOL    HW242487   5.452  10.599   7.539 -1.2815  0.4933  1.2803
43588SOL     OW42488   0.522   8.505   1.909 -0.2935  0.1628 -0.3932
43588SOL    HW142489   0.600   8.502   1.855  1.4946  0.3650  2.0191
43588SOL    HW242490   0.539   8.575   1.973 -1.3429 -1.4152  1.7511
43589SOL     OW42491   9.428  10.958   5.557 -0.0710  0.2810 -0.7288
43589SOL    HW142492   9.389  11.019   5.619 -1.2506 -0.7861 -0.3737
43589SOL    HW242493   9.515  10.939   5.593  0.3416  1.7501 -0.8785
43590SOL     OW42494   9.926   6.017   9.167 -0.5127 -0.3275  0.3621
43590SOL    HW142495   9.854   6.073   9.193 -1.3805 -1.5897  0.7576
43590SOL    HW242496   9.992   6.029   9.235 -0.9416 -0.2451  0.7682
43591SOL     OW42497   8.863  10.177   0.860 -0.3431  0.1372 -0.0078
43591SOL    HW142498   8.923  10.244   0.892 -0.5316  0.6092 -0.6300
43591SOL    HW242499   8.822  10.215   0.782 -0.7545 -0.5397 -0.1384
43592SOL     OW42500  12.998  13.259   7.384  0.6052 -0.8776  0.2627
43592SOL    HW142501  13.093  13.250   7.375  0.5358  0.1974 -2.6737
43592SOL    HW242502  12.963  13.227   7.301 -1.5790 -0.5436  0.9926
43593SOL     OW42503   7.670  10.144   9.716  0.3387 -0.0353 -0.2313
43593SOL    HW142504   7.709  10.184   9.639 -0.6596  0.8651 -0.2887
43593SOL    HW242505   7.609  10.210   9.750  1.3499 -0.0671  1.8075
43594SOL     OW42506   1.527   1.580  13.621  0.1667 -0.3591 -0.3069
43594SOL    HW142507   1.582   1.592  13.543  0.3267  1.1623  0.0239
43594SOL    HW242508   1.554   1.650  13.680  1.6315 -2.7291  2.0825
43595SOL     OW42509   0.220   4.277  10.006  0.0126  0.6519 -0.1009
43595SOL    HW142510   0.251   4.366   9.993  0.7770  0.1534 -1.9740
43595SOL    HW242511   0.297   4.222   9.994 -0.5430 -0.3035  0.5521
43596SOL     OW42512  10.785   4.175  13.517  0.1013 -0.4190 -0.1405
43596SOL    HW142513  10.691   4.155  13.515  0.0854 -0.4814  0.8408
43596SOL    HW242514  10.811   4.158  13.607  1.0550 -0.3667 -0.4000
43597SOL     OW42515   6.662  12.177   1.634  0.1797  0.3765  0.8638
43597SOL    HW142516   6.689  12.250   1.577 -0.2913 -0.4207 -0.4152
43597SOL    HW242517   6.615  12.118   1.576 -1.3558  0.0891  2.3579
43598SOL     OW42518   7.352   0.850  13.088 -0.3888  0.0408 -1.0094
43598SOL    HW142519   7.406   0.816  13.159 -0.9293 -1.1969 -1.1586
43598SOL    HW242520   7.394   0.932  13.063  0.5475 -0.1470 -0.1251
43599SOL     OW42521  10.584   5.643   1.455  0.5449  0.1973 -0.4746
43599SOL    HW142522  10.536   5.575   1.408 -0.3348  1.8012 -2.0385
43599SOL    HW242523  10.617   5.600   1.534 -0.9598 -1.7046 -0.8212
43600SOL     OW42524  11.314  11.892   9.102 -0.3886  0.3493 -0.0901
43600SOL    HW142525  11.227  11.913   9.135 -0.0318  0.9662  0.4836
43600SOL    HW242526  11.351  11.832   9.167 -0.1954  0.5022 -0.0561
43601SOL     OW42527   1.014   9.749  10.667  0.0634 -0.1243 -0.1889
43601SOL    HW142528   0.972   9.706  10.593  0.0234  1.0067 -0.8436
43601SOL    HW242529   1.099   9.704  10.676 -0.0948 -0.5260 -0.6569
43602SOL     OW42530   5.702  10.737   8.186 -0.2454 -0.2503  0.3297
43602SOL    HW142531   5.643  10.689   8.128 -1.0774  2.3901 -1.1436
43602SOL    HW242532   5.760  10.669   8.222 -0.8929 -2.2550 -2.1250
43603SOL     OW42533  10.362  10.091  11.324 -0.3345 -0.3923 -0.6644
43603SOL    HW142534  10.407  10.157  11.377  1.5102 -2.0620 -0.0487
43603SOL    HW242535  10.272  10.091  11.357  0.5945 -0.9682  2.1221
43604SOL     OW42536   2.183   9.698   7.063 -0.5451 -0.1163 -0.7954
43604SOL    HW142537   2.204   9.618   7.110 -1.5805 -0.1675 -0.3895
43604SOL    HW242538   2.088   9.705   7.068 -0.4357  1.5028 -0.2176
43605SOL     OW42539  10.180   0.533   0.748  0.2350  0.2518 -0.0491
43605SOL    HW142540  10.103   0.565   0.700 -0.3947  0.9681  1.3794
43605SOL    HW242541  10.154   0.447   0.779  1.1280 -0.7926 -2.0429
43606SOL     OW42542   3.954  12.979  11.907 -0.2626  0.0391  0.7924
43606SOL    HW142543   3.905  12.903  11.939  0.5308 -0.5232  0.7123
43606SOL    HW242544   3.995  13.015  11.985  0.6957 -0.6122  0.6059
43607SOL     OW42545   1.261   4.531   8.804  0.3856 -0.4665  0.4654
43607SOL    HW142546   1.347   4.524   8.763  0.4373 -1.4975  0.7238
43607SOL    HW242547   1.205   4.472   8.754 -0.1203 -0.0085  0.4716
43608SOL     OW42548   7.969  12.650   5.505  1.1512 -0.4065  0.1458
43608SOL    HW142549   8.046  12.614   5.460  1.5806 -0.5145  0.9545
43608SOL    HW242550   8.004  12.686   5.587  0.3594 -0.3305  0.4539
43609SOL     OW42551   6.769   7.444  11.438  0.1993  0.3058 -0.6029
43609SOL    HW142552   6.844   7.407  11.391 -0.2381 -0.2597 -0.8613
43609SOL    HW242553   6.738   7.515  11.382 -0.6488 -0.7031 -1.4539
43610SOL     OW42554  10.178  12.687   6.331  0.2881  0.0977 -0.4097
43610SOL    HW142555  10.181  12.770   6.284  0.9378  1.1397  1.3613
43610SOL    HW242556  10.120  12.704   6.405  0.4166 -1.0487 -0.0290
43611SOL     OW42557  12.855   9.238   4.597 -0.0572 -0.2105  0.5101
43611SOL    HW142558  12.935   9.250   4.648 -0.0644 -0.7061  0.6416
43611SOL    HW242559  12.847   9.143   4.587 -0.4099 -0.1442  0.1497
43612SOL     OW42560  10.166  13.476   1.448 -0.2091 -0.2357 -0.4384
43612SOL    HW142561  10.122  13.435   1.374  0.6284  1.4004 -1.9362
43612SOL    HW242562  10.221  13.544   1.408 -0.3110  1.2321  1.7555
43613SOL     OW42563   9.716   6.379   7.914  0.0440 -0.3415  0.1988
43613SOL    HW142564   9.663   6.343   7.985 -2.2015 -1.0495 -1.6749
43613SOL    HW242565   9.679   6.339   7.835  2.1740  0.6802 -1.3991
43614SOL     OW42566   8.332   3.234   1.160 -0.1430 -0.3403  0.0950
43614SOL    HW142567   8.341   3.198   1.249 -1.7120 -0.9439  0.0604
43614SOL    HW242568   8.328   3.156   1.104 -2.6241 -0.1826 -0.0880
43615SOL     OW42569   2.159   5.729  12.308 -0.1118  0.2455 -0.4979
43615SOL    HW142570   2.191   5.660  12.367 -2.1146 -0.2393  0.0916
43615SOL    HW242571   2.187   5.811  12.349  0.2624 -0.1447  0.0400
43616SOL     OW42572   9.532   1.367  10.950 -0.6214  0.4146 -0.1841
43616SOL    HW142573   9.560   1.403  10.866 -2.3285 -0.2334 -1.0656
43616SOL    HW242574   9.481   1.437  10.990  0.3218  0.7812  0.4185
43617SOL     OW42575   6.260   0.575   6.784 -0.0015  0.8012  0.2053
43617SOL    HW142576   6.248   0.534   6.870 -0.7959  0.3007 -0.1390
43617SOL    HW242577   6.171   0.591   6.753  0.2885  2.2165  0.0524
43618SOL     OW42578   3.201   1.249   7.189 -0.2045 -0.2434  0.4654
43618SOL    HW142579   3.153   1.169   7.209 -2.9850  1.2240  0.1277
43618SOL    HW242580   3.180   1.308   7.261  2.7457 -0.0980  1.3195
43619SOL     OW42581  12.942   9.001   3.280 -0.3276 -0.0192 -0.3569
43619SOL    HW142582  13.036   8.982   3.274 -0.8450 -2.5905 -1.8905
43619SOL    HW242583  12.926   9.015   3.374  1.5823  0.6394 -0.0916
43620SOL     OW42584  10.528  10.825   4.434 -0.1345  0.1521 -0.3334
43620SOL    HW142585  10.618  10.794   4.445  0.9789  2.9934 -0.6604
43620SOL    HW242586  10.475  10.745   4.438  2.2177 -1.4712  1.5190
43621SOL     OW42587  13.601   8.491  13.303 -0.0576 -0.2456 -0.4096
43621SOL    HW142588  13.615   8.399  13.324  0.6879  0.0428  0.4387
43621SOL    HW242589  13.556   8.490  13.219  0.4909 -1.3636 -0.7078
43622SOL     OW42590   1.791  11.538  12.851 -0.1679 -0.5910  0.2960
43622SOL    HW142591   1.730  11.612  12.851  0.0614 -0.3987  0.8147
43622SOL    HW242592   1.751  11.474  12.791 -1.9637 -1.3597  2.1976
43623SOL     OW42593   4.006   7.839   3.518 -0.0145  0.4656  0.3505
43623SOL    HW142594   4.087   7.795   3.544 -0.7222 -0.8263  0.4528
43623SOL    HW242595   3.988   7.901   3.589  0.6784  0.5047  0.4978
43624SOL     OW42596   8.958   8.503   5.413  0.1891 -0.2582 -0.2162
43624SOL    HW142597   8.912   8.522   5.495 -0.6196  0.3749 -0.7978
43624SOL    HW242598   9.036   8.559   5.416  0.3290 -0.4672  0.2464
43625SOL     OW42599   1.973   8.762  13.665  0.1722 -0.4588 -0.1948
43625SOL    HW142600   1.997   8.854  13.652 -2.1332  0.5578  1.9595
43625SOL    HW242601   2.032   8.732  13.734 -1.0928  0.4401  1.3519
43626SOL     OW42602   2.506  10.463   3.025  0.1045 -0.4695 -0.4203
43626SOL    HW142603   2.582  10.492   2.974  1.4961 -1.2683  1.0994
43626SOL    HW242604   2.485  10.377   2.989  0.5380 -0.6602 -0.2253
43627SOL     OW42605   2.050   4.789  11.693  0.4751 -0.1478  0.2380
43627SOL    HW142606   2.052   4.840  11.612 -2.3590 -0.0666  0.1323
43627SOL    HW242607   1.958   4.788  11.719  1.1074 -1.3178  2.7582
43628SOL     OW42608  12.494   1.969   5.524  0.2972 -0.3185 -0.2613
43628SOL    HW142609  12.459   2.008   5.444 -0.0094  0.7185  0.3525
43628SOL    HW242610  12.423   1.914   5.557  1.0434 -2.2244 -1.6072
43629SOL     OW42611   2.795  10.308   5.740  0.4682 -0.6482 -0.1838
43629SOL    HW142612   2.863  10.365   5.704  0.0023  0.1695  0.1982
43629SOL    HW242613   2.820  10.220   5.712  1.2592 -0.2712 -0.6993
43630SOL     OW42614   3.868   9.163   5.193 -0.5244  0.3431 -0.0554
43630SOL    HW142615   3.809   9.238   5.180 -0.6147  0.1081 -1.1370
43630SOL    HW242616   3.949   9.188   5.148  0.6387  1.0963  2.2934
43631SOL     OW42617  12.308   4.961   9.352 -0.2663 -0.2210 -0.3027
43631SOL    HW142618  12.306   4.923   9.264 -3.2437 -1.5459  0.2115
43631SOL    HW242619  12.366   4.904   9.401  0.5070 -0.1464 -1.0909
43632SOL     OW42620   4.259  12.578   5.514 -0.3052 -0.0026  0.8768
43632SOL    HW142621   4.165  12.575   5.493 -0.3176 -2.0894  0.9767
43632SOL    HW242622   4.293  12.650   5.462 -1.7442 -0.0990 -0.2645
43633SOL     OW42623  10.036   1.182   6.820 -0.5878 -0.2048 -0.2450
43633SOL    HW142624   9.956   1.156   6.775  0.8399 -1.1054 -2.4364
43633SOL    HW242625  10.018   1.270   6.852 -2.4143 -0.3642 -0.7258
43634SOL     OW42626   2.084   2.053   3.953  0.0891 -0.5833 -0.2445
43634SOL    HW142627   2.132   2.130   3.923 -0.7772  0.4498  0.9245
43634SOL    HW242628   2.056   2.009   3.872  1.6569 -0.3835 -0.9312
43635SOL     OW42629  11.196   0.838   2.572 -0.5155 -0.5149 -0.6800
43635SOL    HW142630  11.250   0.768   2.610 -0.7119 -0.4308 -0.2426
43635SOL    HW242631  11.143   0.869   2.645 -1.2722 -0.7035 -1.1416
43636SOL     OW42632   9.877   1.634   2.071  0.0792 -0.2949  0.9865
43636SOL    HW142633   9.852   1.578   1.997 -0.1510  0.0101  0.8269
43636SOL    HW242634   9.887   1.574   2.145 -2.0462 -0.3552  1.2981
43637SOL     OW42635  12.982  12.845   2.924 -0.4931  0.5933 -0.1999
43637SOL    HW142636  12.974  12.776   2.990  0.8244  0.6216  0.0003
43637SOL    HW242637  13.060  12.822   2.875 -1.4368  0.5877 -1.7637
43638SOL     OW42638   5.899  11.657   9.886 -0.0644  0.1269 -0.0446
43638SOL    HW142639   5.894  11.700   9.971 -0.7210  0.1302 -0.0828
43638SOL    HW242640   5.808  11.638   9.862  0.1382 -0.2468 -0.5558
43639SOL     OW42641  11.863  11.692   7.824 -0.1731 -0.7866  0.0809
43639SOL    HW142642  11.863  11.697   7.728  2.5418  2.3602  0.0301
43639SOL    HW242643  11.867  11.598   7.843  0.9116 -1.5048 -2.9888
43640SOL     OW42644  12.762  10.913   3.626  0.4454 -0.1582 -0.7507
43640SOL    HW142645  12.704  10.837   3.615 -2.0820  1.3147  1.2115
43640SOL    HW242646  12.721  10.981   3.572  0.5794  0.7755  0.2923
43641SOL     OW42647   2.583   5.953   7.041 -0.1447 -0.8736  0.0080
43641SOL    HW142648   2.540   5.883   6.991 -0.0486 -0.1847 -1.0740
43641SOL    HW242649   2.666   5.966   6.996  1.2202 -2.1112  2.0084
43642SOL     OW42650   7.283  11.548   0.063 -0.1535 -0.7279  0.3380
43642SOL    HW142651   7.220  11.479   0.043 -0.1172 -0.6201 -0.1592
43642SOL    HW242652   7.365  11.518   0.025  0.1769 -1.0051  1.2454
43643SOL     OW42653   3.350   6.690   8.253  0.3852  0.2693  0.0524
43643SOL    HW142654   3.294   6.693   8.175  0.7143  3.2149 -0.1785
43643SOL    HW242655   3.428   6.642   8.225  0.2713  0.8279 -1.3176
43644SOL     OW42656   6.802   6.536   2.286 -0.1073 -0.1232 -0.3437
43644SOL    HW142657   6.885   6.488   2.277  1.0045  1.1549  2.2310
43644SOL    HW242658   6.814   6.614   2.231  0.2787 -0.0826 -0.2049
43645SOL     OW42659   0.547   4.533  12.206 -0.1264  0.0064 -0.1592
43645SOL    HW142660   0.505   4.472  12.145 -1.5713  0.2958  0.5003
43645SOL    HW242661   0.488   4.537  12.281  0.8654  0.8126  0.6177
43646SOL     OW42662  12.676   8.735   3.464 -0.2598  0.4826  0.0713
43646SOL    HW142663  12.726   8.656   3.446  0.3187  0.8567 -0.0190
43646SOL    HW242664  12.588   8.717   3.432 -0.8862 -1.1286  2.5054
43647SOL     OW42665   6.840   2.053  10.276  0.3054 -0.0099  0.1819
43647SOL    HW142666   6.935   2.065  10.278  0.1343  2.6032 -1.7194
43647SOL    HW242667   6.807   2.106  10.348  0.2524 -0.6414  0.6289
43648SOL     OW42668   4.134   0.784  12.469  0.5222  0.0535 -0.1987
43648SOL    HW142669   4.113   0.720  12.402 -0.0694 -0.4161  0.4303
43648SOL    HW242670   4.062   0.780  12.531  0.8638  0.7639  0.2663
43649SOL     OW42671  10.149   5.436   8.530 -0.2193  0.0656  0.0287
43649SOL    HW142672  10.232   5.456   8.487  0.4809 -0.6726  0.9767
43649SOL    HW242673  10.148   5.340   8.537  0.0265  0.1672  2.1951
43650SOL     OW42674  12.949   7.841   7.130 -0.4044  0.0593  0.1523
43650SOL    HW142675  12.911   7.925   7.104  1.1598  1.0787  0.9579
43650SOL    HW242676  13.039   7.845   7.099 -0.5408 -1.7353 -0.5939
43651SOL     OW42677   5.886   9.635   3.053 -0.4715 -0.0503 -0.4965
43651SOL    HW142678   5.944   9.589   2.993  0.7284 -0.3428  0.8345
43651SOL    HW242679   5.915   9.608   3.140 -0.4987  2.2892  0.2994
43652SOL     OW42680   0.415   1.239  12.079 -0.3776  0.0084  0.2167
43652SOL    HW142681   0.475   1.186  12.026 -0.7393  0.8410 -1.0632
43652SOL    HW242682   0.455   1.239  12.166  0.3553 -1.2051 -0.0819
43653SOL     OW42683   0.413  10.414  11.542 -0.8568  0.3402  0.5623
43653SOL    HW142684   0.452  10.346  11.598 -0.8559 -0.3984 -0.3188
43653SOL    HW242685   0.319  10.395  11.542 -0.9679  0.8531  0.9848
43654SOL     OW42686   0.878  11.747   1.177  0.0338  0.1824 -0.3655
43654SOL    HW142687   0.925  11.774   1.256 -1.5092  0.1500  0.6023
43654SOL    HW242688   0.905  11.657   1.163  0.2820  0.1712  0.1517
43655SOL     OW42689   1.994   5.969  11.640 -0.2995  0.5966 -0.7011
43655SOL    HW142690   2.043   6.033  11.589  0.9914  1.3274  1.3296
43655SOL    HW242691   1.926   6.020  11.685 -0.1945  0.3107 -0.2043
43656SOL     OW42692  13.333   3.038  10.807  0.1390 -0.4217  0.7531
43656SOL    HW142693  13.402   3.084  10.760 -1.7842  2.0851  0.1145
43656SOL    HW242694  13.327   2.952  10.764 -2.4465  2.1001 -5.0839
43657SOL     OW42695   0.838   3.150   4.975  0.1103  0.1192  0.6203
43657SOL    HW142696   0.810   3.081   4.915  1.0769  1.2034 -1.1759
43657SOL    HW242697   0.756   3.193   5.002 -0.5647 -2.0368  2.2721
43658SOL     OW42698  11.787   5.079  12.393 -0.1187  0.3622 -0.1083
43658SOL    HW142699  11.773   4.990  12.361  0.3354  0.9833 -2.2385
43658SOL    HW242700  11.813   5.068  12.484 -0.7553 -1.6318 -0.1195
43659SOL     OW42701   9.449  13.683   6.527  0.5656 -0.3247 -0.4745
43659SOL    HW142702   9.479  13.772   6.510 -1.4449  0.4813 -0.1377
43659SOL    HW242703   9.404  13.657   6.447 -0.0718 -0.4859 -0.0698
43660SOL     OW42704  10.105   7.735   7.080 -0.4697 -0.1142  0.1407
43660SOL    HW142705  10.017   7.712   7.112  0.0358 -0.7241  1.1347
43660SOL    HW242706  10.152   7.652   7.078  0.8856  0.5192  2.1699
43661SOL     OW42707  12.595   9.910   3.858 -0.1956  0.8585 -0.0940
43661SOL    HW142708  12.567   9.828   3.818  1.5459 -1.2961  2.7301
43661SOL    HW242709  12.684   9.924   3.825 -0.1320  1.0955  0.1736
43662SOL     OW42710  11.273   8.803   6.975  0.1000  0.7587 -0.8773
43662SOL    HW142711  11.344   8.769   7.029 -0.1424  1.9959  0.2818
43662SOL    HW242712  11.318   8.846   6.901  0.4621 -0.2244 -1.2447
43663SOL     OW42713   5.354  10.900   4.188 -0.2744 -0.5313  0.5103
43663SOL    HW142714   5.321  10.957   4.258  1.2426 -1.4445  2.0391
43663SOL    HW242715   5.372  10.960   4.115 -1.5590  0.4883  0.9801
43664SOL     OW42716   4.956  11.874   8.553 -0.1157  0.4080  0.0504
43664SOL    HW142717   4.921  11.837   8.635  0.1356  1.1842  0.5127
43664SOL    HW242718   4.938  11.968   8.559 -0.5790  0.4031 -1.0317
43665SOL     OW42719   1.845   8.726   3.912  0.3472 -0.0709 -0.7154
43665SOL    HW142720   1.925   8.775   3.893 -0.0328  0.4286 -1.0830
43665SOL    HW242721   1.828   8.674   3.834  0.0991  0.1336 -0.8019
43666SOL     OW42722   3.622   9.127   2.466  0.9113  0.0883 -0.0128
43666SOL    HW142723   3.562   9.121   2.393  2.3788 -1.3932 -1.1603
43666SOL    HW242724   3.568   9.112   2.544 -0.4620  0.5486 -0.8556
43667SOL     OW42725   7.806  12.084   6.121  0.2850  0.1532 -0.3570
43667SOL    HW142726   7.798  12.113   6.030  1.7837  1.2383 -0.1667
43667SOL    HW242727   7.808  12.164   6.173  1.2485 -0.3770  0.4736
43668SOL     OW42728  13.070   4.592   6.769 -0.5687 -0.2443 -0.0640
43668SOL    HW142729  12.986   4.613   6.809 -1.0480 -1.8721 -0.1245
43668SOL    HW242730  13.100   4.513   6.815  0.7107  0.0422 -0.3569
43669SOL     OW42731   4.022   4.666   7.338  0.4127  0.2606 -0.2137
43669SOL    HW142732   4.029   4.616   7.257  1.4903  2.2024 -1.3751
43669SOL    HW242733   4.107   4.709   7.348  0.2681  0.1366  1.9145
43670SOL     OW42734   7.866   8.423   2.897  0.2450  0.0305 -0.5079
43670SOL    HW142735   7.882   8.501   2.844  1.0385  0.4565  0.3158
43670SOL    HW242736   7.930   8.360   2.867  0.4472  0.1416 -0.3094
43671SOL     OW42737   8.908   6.026   8.466 -0.5401 -0.3574 -0.0370
43671SOL    HW142738   8.998   6.055   8.484  0.3839 -2.6739 -0.6008
43671SOL    HW242739   8.858   6.107   8.462  1.0818  0.8972  2.4690
43672SOL     OW42740   3.070  10.351   6.548 -0.3286  0.4233  0.0585
43672SOL    HW142741   3.073  10.440   6.513  0.0833  0.4957  0.2685
43672SOL    HW242742   3.109  10.358   6.635  0.3654 -0.0867 -0.1969
43673SOL     OW42743   0.144   6.690   1.156 -0.0350  0.4599 -0.4018
43673SOL    HW142744   0.081   6.715   1.224  0.8443  1.2551  0.1500
43673SOL    HW242745   0.215   6.753   1.166  1.7460 -1.5540  0.2700
43674SOL     OW42746   3.716   2.853   5.122  0.8830 -0.2170 -0.4732
43674SOL    HW142747   3.685   2.845   5.212  1.1613  2.4330 -0.0477
43674SOL    HW242748   3.637   2.868   5.070  0.9291  1.1572 -0.1903
43675SOL     OW42749  10.199  11.371   9.789 -0.4364 -0.3334  0.1672
43675SOL    HW142750  10.112  11.371   9.827 -0.1631 -0.5699  0.8199
43675SOL    HW242751  10.243  11.447   9.828 -0.1994 -0.4924  0.2182
43676SOL     OW42752   5.854  13.288   1.545  0.4617  0.1276 -0.2435
43676SOL    HW142753   5.833  13.239   1.624  1.2060  0.3901  0.1327
43676SOL    HW242754   5.922  13.236   1.501  1.6920  1.0807  0.4645
43677SOL     OW42755   2.996   6.907   2.987  1.1162  0.0563 -0.0552
43677SOL    HW142756   2.971   6.978   3.045 -0.0801  0.8611 -1.4923
43677SOL    HW242757   3.036   6.842   3.044  1.2746  1.4201  1.4405
43678SOL     OW42758   9.412   8.197   4.821 -0.5400  0.7576 -0.6896
43678SOL    HW142759   9.429   8.120   4.876 -1.4011 -0.7906 -2.4756
43678SOL    HW242760   9.481   8.259   4.844  0.5800 -0.7966  0.3628
43679SOL     OW42761   6.332   5.954  10.505 -0.3775  0.4512 -0.7364
43679SOL    HW142762   6.336   6.048  10.522 -2.3910  0.4935 -0.1722
43679SOL    HW242763   6.315   5.916  10.591 -1.6860 -0.1940 -1.2476
43680SOL     OW42764  11.014  13.338  10.474 -0.2607 -0.0424  0.0394
43680SOL    HW142765  11.099  13.363  10.437  0.5138 -3.0879 -0.4924
43680SOL    HW242766  11.028  13.339  10.569  0.1926  0.0188 -0.0249
43681SOL     OW42767  11.294   3.180   0.802 -0.1107 -0.0146 -0.2084
43681SOL    HW142768  11.257   3.261   0.838 -0.3839 -0.2452  0.0364
43681SOL    HW242769  11.281   3.188   0.707 -2.4110 -0.8442 -0.0392
43682SOL     OW42770   9.157   3.105  11.954  0.0025  0.6847  0.3572
43682SOL    HW142771   9.146   3.102  12.049  2.0221  1.2504  0.6498
43682SOL    HW242772   9.132   3.194  11.930  0.0123  0.7062  0.4267
43683SOL     OW42773   7.200  12.893   2.810  0.9008 -0.0236 -0.5118
43683SOL    HW142774   7.277  12.860   2.763  1.5347  0.1343  0.3689
43683SOL    HW242775   7.234  12.963   2.865  0.0002  0.4648 -0.5624
43684SOL     OW42776   0.610   9.636   4.738  0.4745  0.4246 -0.5140
43684SOL    HW142777   0.516   9.633   4.721  0.6845  0.3955 -1.7615
43684SOL    HW242778   0.649   9.665   4.656  1.5550  0.5271  0.0115
43685SOL     OW42779   8.533   1.074   6.150  0.1844  0.0355 -0.7732
43685SOL    HW142780   8.511   1.027   6.070  1.2542  0.5218 -1.3692
43685SOL    HW242781   8.448   1.093   6.191 -0.2934 -2.2877 -0.5513
43686SOL     OW42782   0.575   5.549   0.075 -0.3494  0.0359 -0.3969
43686SOL    HW142783   0.607   5.622   0.128 -1.7691 -0.1548  0.8015
43686SOL    HW242784   0.653   5.503   0.047  0.5383  1.4834 -0.4058
43687SOL     OW42785  10.962   0.875  12.662  0.2886  0.2420  0.1332
43687SOL    HW142786  10.881   0.907  12.702 -0.0552  0.1240 -0.4585
43687SOL    HW242787  10.999   0.816  12.727 -0.9269 -0.9570 -0.2288
43688SOL     OW42788   8.384   2.292   5.206 -0.3110  0.1185 -0.2390
43688SOL    HW142789   8.449   2.296   5.136 -0.3740 -3.4446 -0.6833
43688SOL    HW242790   8.308   2.338   5.171  0.4330  0.3589 -1.5896
43689SOL     OW42791   0.776   8.870   6.517 -0.1420  0.1210  0.5407
43689SOL    HW142792   0.846   8.806   6.500  1.1848  1.7412 -0.3831
43689SOL    HW242793   0.698   8.830   6.479  1.4249  0.6901 -3.8765
43690SOL     OW42794   2.047   9.709   9.591 -0.1533  0.2404  0.4478
43690SOL    HW142795   2.006   9.634   9.549 -0.1483  0.6294 -0.2792
43690SOL    HW242796   2.083   9.760   9.518  0.0332  0.8292  0.9439
43691SOL     OW42797  11.939   4.676   1.321 -0.0835  0.0433 -0.8372
43691SOL    HW142798  11.938   4.676   1.225  0.1222 -1.3687 -0.8615
43691SOL    HW242799  11.994   4.601   1.344  0.8240  1.0427  0.3933
43692SOL     OW42800  12.191   2.306   9.270  0.5303 -0.0079 -0.3351
43692SOL    HW142801  12.101   2.299   9.302  0.5381  0.0197 -0.3081
43692SOL    HW242802  12.243   2.262   9.337  0.7951  1.9643  0.8137
43693SOL     OW42803   6.294  13.067   4.278 -0.3398 -0.0922 -0.6209
43693SOL    HW142804   6.213  13.074   4.328  0.0772  0.5368 -0.0108
43693SOL    HW242805   6.333  13.154   4.283  0.7746 -0.5834 -0.1953
43694SOL     OW42806   8.846   8.384  12.515 -0.1734 -0.2584 -0.0172
43694SOL    HW142807   8.756   8.415  12.528 -0.7404 -2.7829  3.5922
43694SOL    HW242808   8.900   8.450  12.559 -0.5937 -0.3926  0.7187
43695SOL     OW42809   2.218   8.214   1.535  0.1073 -0.2083  0.5559
43695SOL    HW142810   2.155   8.269   1.489 -1.0529 -1.9625 -0.0430
43695SOL    HW242811   2.208   8.128   1.495  1.3156 -1.0424  1.9762
43696SOL     OW42812   9.625   0.390   5.006  0.2878  0.1237  0.2730
43696SOL    HW142813   9.693   0.457   5.008  1.2330 -0.5393 -3.3769
43696SOL    HW242814   9.669   0.312   4.972 -2.2114 -0.3234 -2.2939
43697SOL     OW42815  12.646  10.280  12.637  0.1217 -0.3753 -0.1408
43697SOL    HW142816  12.730  10.321  12.656 -0.1638 -0.4295  1.3836
43697SOL    HW242817  12.668  10.190  12.612  0.5167 -0.3521  0.1233
43698SOL     OW42818   4.943   2.380  13.210  0.1003  0.1170 -0.0806
43698SOL    HW142819   4.966   2.417  13.125  1.7630 -1.5058 -0.3866
43698SOL    HW242820   4.921   2.289  13.191 -1.6901  0.2671  0.9680
43699SOL     OW42821   9.603   6.670   9.953  0.3432  0.0432 -0.3396
43699SOL    HW142822   9.596   6.575   9.942  0.3772  0.0021 -0.0378
43699SOL    HW242823   9.692   6.691   9.926  0.5738 -0.1167  0.2764
43700SOL     OW42824   6.209  11.995  10.451  0.2367  0.1840  0.0786
43700SOL    HW142825   6.232  12.066  10.511 -0.7206  0.3840  0.2186
43700SOL    HW242826   6.200  11.918  10.507  1.5743 -0.1432 -0.1092
43701SOL     OW42827   7.607  12.952   8.559  0.4384 -0.1000  0.0673
43701SOL    HW142828   7.618  12.955   8.464 -1.6677  0.3586 -0.2169
43701SOL    HW242829   7.694  12.935   8.593  1.4053  0.6152 -1.9080
43702SOL     OW42830  10.361  12.591   7.897 -0.3460 -0.3285 -0.4853
43702SOL    HW142831  10.348  12.498   7.881 -0.3683 -0.1100 -1.8790
43702SOL    HW242832  10.299  12.634   7.837  1.2722  0.5914 -1.5655
43703SOL     OW42833  10.515   5.498   3.290  0.7000  0.0534 -0.5088
43703SOL    HW142834  10.479   5.439   3.356  3.1507 -0.7915  0.1740
43703SOL    HW242835  10.442   5.512   3.229 -0.3655 -2.6386 -0.0127
43704SOL     OW42836  10.622  13.635  10.524  0.4769  0.0236  0.3608
43704SOL    HW142837  10.594  13.661  10.612  2.3427  0.7210  0.7988
43704SOL    HW242838  10.696  13.693  10.504 -0.4044  0.4517 -2.0212
43705SOL     OW42839   2.986   6.094  11.553 -0.0200 -0.0512  0.1758
43705SOL    HW142840   2.976   6.011  11.506  1.1252  0.0560 -0.2848
43705SOL    HW242841   2.902   6.138  11.542  0.2671  0.0707 -2.0039
43706SOL     OW42842   6.354   7.054  12.320  0.3638 -0.2255  0.6395
43706SOL    HW142843   6.383   7.056  12.229 -0.4057 -2.0332  0.2978
43706SOL    HW242844   6.267   7.015  12.316  0.0914  0.1821  2.1131
43707SOL     OW42845   4.969   1.844   9.090 -0.6426 -0.2494  0.3059
43707SOL    HW142846   4.960   1.749   9.085  0.5909 -0.4155  0.7566
43707SOL    HW242847   4.910   1.870   9.161 -0.1496 -0.8300  0.9475
43708SOL     OW42848   0.012   2.511   7.424  0.1854  0.2698 -0.1397
43708SOL    HW142849   0.034   2.586   7.369  0.6405 -1.2112 -2.1162
43708SOL    HW242850   0.085   2.504   7.486  0.6722  0.8179 -0.6449
43709SOL     OW42851   4.655   2.868   1.159  0.2600  0.0842 -0.1781
43709SOL    HW142852   4.587   2.887   1.095 -1.1548  0.7708  1.4388
43709SOL    HW242853   4.699   2.952   1.173  0.7800 -0.1339 -0.4686
43710SOL     OW42854  12.593   6.405   5.537 -0.0754 -0.2930  0.5398
43710SOL    HW142855  12.570   6.472   5.473  1.6318 -0.2780 -0.1113
43710SOL    HW242856  12.562   6.323   5.499  2.3325 -0.5162 -1.1907
43711SOL     OW42857   4.727   0.080   2.514 -0.3283 -0.4513 -0.5226
43711SOL    HW142858   4.654   0.021   2.494 -0.4191 -0.4541 -0.1799
43711SOL    HW242859   4.764   0.046   2.595 -0.7945  0.3623  0.0364
43712SOL     OW42860   6.296   6.603   2.062  0.2198  0.6228 -0.6898
43712SOL    HW142861   6.387   6.633   2.071  0.6166 -0.7861  0.3244
43712SOL    HW242862   6.294   6.518   2.106 -1.3334  0.0853 -1.7201
43713SOL     OW42863   6.788  10.815   8.596 -0.1621  0.9022 -0.2366
43713SOL    HW142864   6.880  10.829   8.616 -0.1864  0.0227  0.5712
43713SOL    HW242865   6.756  10.900   8.565  1.0402  1.0797 -1.0543
43714SOL     OW42866   8.548   9.794  10.008  0.5192 -0.1963 -0.0011
43714SOL    HW142867   8.591   9.764  10.088 -0.8938 -2.0972  0.0956
43714SOL    HW242868   8.551   9.890  10.015  1.8080 -0.2908  1.5365
43715SOL     OW42869   5.191   9.936   5.677 -0.9331  0.1699 -0.4713
43715SOL    HW142870   5.256   9.880   5.635 -0.1671  0.0518  0.8326
43715SOL    HW242871   5.225  10.025   5.667  0.5793 -0.0400  2.0399
43716SOL     OW42872   9.072  10.855   8.393  0.4728  0.8022  0.4837
43716SOL    HW142873   9.054  10.920   8.461 -0.2312  1.2567 -0.1206
43716SOL    HW242874   9.115  10.905   8.323 -0.9013  0.8349 -0.3735
43717SOL     OW42875   8.623   0.728   3.250 -0.0819 -0.4996  0.4602
43717SOL    HW142876   8.653   0.692   3.333  0.5392 -0.0247  0.4455
43717SOL    HW242877   8.691   0.790   3.224 -1.1869  0.8093  0.5604
43718SOL     OW42878   7.635  10.726   3.395 -0.3723 -0.0635 -0.6951
43718SOL    HW142879   7.540  10.730   3.406 -0.3143  0.4303 -0.3140
43718SOL    HW242880   7.661  10.645   3.439 -0.5393  0.1656 -0.1663
43719SOL     OW42881   4.174   0.338   4.534 -0.3449  0.1823 -0.0151
43719SOL    HW142882   4.145   0.426   4.560 -0.7100 -0.6415  2.7222
43719SOL    HW242883   4.250   0.321   4.589  0.0005 -1.0456 -0.8446
43720SOL     OW42884   0.034   9.599   4.492  0.5971 -0.1944 -0.3845
43720SOL    HW142885   0.029   9.679   4.440 -1.5276 -0.6131 -0.9070
43720SOL    HW242886   0.046   9.630   4.582 -1.4669  0.8053 -0.4057
43721SOL     OW42887   4.045   7.087   9.195 -0.9796 -0.8278 -0.8857
43721SOL    HW142888   3.978   7.155   9.189 -0.6446 -0.3075  0.6958
43721SOL    HW242889   3.998   7.009   9.225 -1.1195 -0.8884 -1.2585
43722SOL     OW42890   6.084   6.036   9.697 -0.3636 -0.3378  0.5306
43722SOL    HW142891   6.065   6.111   9.640  0.4650 -0.5856 -0.0994
43722SOL    HW242892   6.138   6.072   9.767  0.9002 -0.4936 -0.3203
43723SOL     OW42893   7.108   5.906   1.324 -0.4362  0.1628 -0.1326
43723SOL    HW142894   7.052   5.929   1.249 -0.0610  0.5410 -0.3043
43723SOL    HW242895   7.149   5.823   1.299 -0.0388  0.4661 -0.5050
43724SOL     OW42896   7.300   4.570   8.772 -0.1989  0.3380 -0.0272
43724SOL    HW142897   7.253   4.489   8.753 -0.3826  0.3879  0.2024
43724SOL    HW242898   7.387   4.556   8.736 -0.6413  0.5783 -1.2520
43725SOL     OW42899   3.700   5.051  13.042  0.0775  0.2606  0.2849
43725SOL    HW142900   3.720   4.991  12.970 -0.9030  0.4751 -0.1762
43725SOL    HW242901   3.634   5.006  13.094 -0.8231  1.0087 -0.1848
43726SOL     OW42902  12.552   1.585   1.650 -0.2390  0.1698 -0.5455
43726SOL    HW142903  12.467   1.580   1.693 -1.2731  2.2811 -2.1591
43726SOL    HW242904  12.532   1.586   1.556  1.6181  0.1518 -0.9912
43727SOL     OW42905   9.322   6.529   9.837 -0.3693 -0.0602  0.1493
43727SOL    HW142906   9.325   6.625   9.829  1.9773 -0.1728 -1.2478
43727SOL    HW242907   9.261   6.501   9.768 -0.9100  0.3944  0.4308
43728SOL     OW42908   5.968   4.689  13.307  0.0266  0.4198 -0.2643
43728SOL    HW142909   5.974   4.593  13.305 -0.3298  0.3961 -0.1730
43728SOL    HW242910   5.882   4.707  13.345  0.1726  0.7779 -0.0976
43729SOL     OW42911   7.580  12.050  12.665  0.2945  0.1451 -0.2097
43729SOL    HW142912   7.600  12.105  12.740  0.0460  0.0372 -0.0613
43729SOL    HW242913   7.664  12.032  12.624  0.3842  0.5508 -0.1988
43730SOL     OW42914  12.309   8.618   8.265 -0.1715  0.0505  0.5860
43730SOL    HW142915  12.380   8.676   8.293  2.6248 -1.6101 -2.3185
43730SOL    HW242916  12.254   8.673   8.209  1.4360  0.4391 -0.7049
43731SOL     OW42917   7.991   6.777  10.239 -0.3509 -0.4595  0.9217
43731SOL    HW142918   8.080   6.754  10.212  0.1257  1.4529  0.6984
43731SOL    HW242919   8.003   6.851  10.299 -1.8134  0.5677  0.0235
43732SOL     OW42920   4.730   8.043   4.130  0.3559  0.1318  0.1738
43732SOL    HW142921   4.639   8.075   4.131  1.1709  2.7582 -1.0368
43732SOL    HW242922   4.769   8.081   4.209  0.7758  0.3349 -0.1258
43733SOL     OW42923   5.085  11.834   5.991 -0.6108  0.1026  0.3142
43733SOL    HW142924   5.070  11.918   6.033 -1.4693 -0.4214  1.0958
43733SOL    HW242925   5.038  11.771   6.046  0.3995 -0.9505  0.0048
43734SOL     OW42926   1.898  12.692   1.426  0.2983  0.3671  0.2821
43734SOL    HW142927   1.947  12.771   1.406  1.7232 -0.4652  0.3622
43734SOL    HW242928   1.946  12.651   1.498  0.1126 -1.0173 -0.3456
43735SOL     OW42929  12.037   7.523  10.229 -0.0665  0.0551 -0.0018
43735SOL    HW142930  12.068   7.610  10.206  0.9463  0.1013  1.3700
43735SOL    HW242931  12.081   7.465  10.167 -0.8639  0.5154 -1.0180
43736SOL     OW42932   9.396   5.229   3.754 -0.3990  0.1620  0.1042
43736SOL    HW142933   9.391   5.324   3.760 -1.4177  0.2678 -1.7707
43736SOL    HW242934   9.359   5.198   3.837  0.1346  1.3664  0.8272
43737SOL     OW42935   3.941   7.426   1.010 -0.1020  0.5192 -0.3801
43737SOL    HW142936   4.036   7.438   1.005  0.1789 -0.0662  2.0804
43737SOL    HW242937   3.906   7.476   0.937  2.1221  0.3875 -1.6060
43738SOL     OW42938  13.593   3.232   4.098  0.6357  0.1233  0.0937
43738SOL    HW142939  13.529   3.222   4.168  1.3717  0.8019  0.8955
43738SOL    HW242940  13.644   3.309   4.123  0.5333  0.7607 -1.5061
43739SOL     OW42941   5.327   3.293   1.680 -0.1397 -0.5502 -0.1944
43739SOL    HW142942   5.416   3.258   1.673 -0.0704 -0.5247  0.5282
43739SOL    HW242943   5.333   3.380   1.641  1.0080  0.9121  2.9055
43740SOL     OW42944  12.143   9.188  10.110 -0.0563  0.5793 -0.3222
43740SOL    HW142945  12.093   9.126  10.056  0.6307  1.7294 -2.3776
43740SOL    HW242946  12.132   9.155  10.199 -0.4592 -1.9939 -1.2140
43741SOL     OW42947   9.951   9.706   7.849 -0.2123 -0.6031 -0.0303
43741SOL    HW142948   9.939   9.763   7.773  0.9949 -0.5303 -0.1880
43741SOL    HW242949   9.921   9.759   7.923  0.1421 -0.0517 -0.2735
43742SOL     OW42950   2.690   6.141   9.431 -0.1499  0.8340 -0.0319
43742SOL    HW142951   2.637   6.191   9.494  1.5645  1.8250  0.7011
43742SOL    HW242952   2.724   6.067   9.481 -0.6384  0.3307 -0.4347
43743SOL     OW42953   9.551  11.754   3.877  0.1423  0.1438  0.4250
43743SOL    HW142954   9.480  11.766   3.939 -2.5562 -1.0706 -2.2138
43743SOL    HW242955   9.558  11.838   3.831 -1.2782 -0.4340 -0.9040
43744SOL     OW42956   5.594  10.380   0.414  0.3757 -0.2910  0.2884
43744SOL    HW142957   5.617  10.466   0.380  0.3418 -0.8822 -1.3226
43744SOL    HW242958   5.513  10.356   0.367  0.5218 -1.3006  0.5164
43745SOL     OW42959   9.539   4.469   0.454  0.2777  0.6593 -0.0250
43745SOL    HW142960   9.515   4.542   0.398 -0.5726  0.3840 -0.0376
43745SOL    HW242961   9.496   4.393   0.414  2.4391 -0.1569 -0.9251
43746SOL     OW42962   0.197   0.858   0.687  0.4642 -0.2450 -0.4163
43746SOL    HW142963   0.251   0.782   0.711  0.9369  0.5455  1.1403
43746SOL    HW242964   0.197   0.858   0.592 -0.5742 -2.9125 -0.5095
43747SOL     OW42965   8.919   1.991   1.375 -0.4349 -0.3000  0.1165
43747SOL    HW142966   8.955   1.914   1.417 -0.1883  0.1722  0.7856
43747SOL    HW242967   8.890   2.047   1.447  1.0452  1.0407 -0.2671
43748SOL     OW42968   4.429   4.532   6.793  0.0198 -0.0477 -0.0991
43748SOL    HW142969   4.361   4.526   6.726  1.3040  0.2361 -1.4898
43748SOL    HW242970   4.449   4.442   6.816  0.0456 -0.1801 -0.6212
43749SOL     OW42971   5.418  12.953   0.974 -0.1214  0.3378  0.2380
43749SOL    HW142972   5.434  12.861   0.995  0.5052  0.5583  0.7757
43749SOL    HW242973   5.498  12.981   0.929  0.1849  0.9165  1.1169
43750SOL     OW42974   2.185  13.386   0.649 -0.1423 -0.3947  0.5397
43750SOL    HW142975   2.262  13.388   0.593  0.3969  4.0990  1.0795
43750SOL    HW242976   2.218  13.361   0.736  0.3766 -0.3235  0.3643
43751SOL     OW42977  10.873   4.104   3.311 -0.2222 -0.0520 -0.0981
43751SOL    HW142978  10.828   4.174   3.358  0.5416  0.7232 -0.4877
43751SOL    HW242979  10.805   4.038   3.294 -0.6541 -0.0783  1.5242
43752SOL     OW42980  11.627   4.332   8.467  0.3218  0.0019  0.2276
43752SOL    HW142981  11.654   4.315   8.557 -0.3894 -0.6402  0.3264
43752SOL    HW242982  11.644   4.426   8.455 -0.4978  0.3140  1.3451
43753SOL     OW42983   2.868   6.450   6.452 -0.0694 -0.0749 -0.3717
43753SOL    HW142984   2.904   6.390   6.517  1.6006  0.9937 -0.2576
43753SOL    HW242985   2.935   6.455   6.383 -1.1395 -0.0152 -1.4505
43754SOL     OW42986  13.510  13.212   7.037 -0.1914  0.3625  0.2678
43754SOL    HW142987  13.563  13.258   6.971 -0.2452 -0.8170 -0.6194
43754SOL    HW242988  13.476  13.135   6.991 -0.4741 -0.3262  1.5996
43755SOL     OW42989  11.572   7.067  12.341  0.3517 -0.2649 -0.1501
43755SOL    HW142990  11.480   7.083  12.360 -0.2247  0.2937 -2.9635
43755SOL    HW242991  11.591   6.983  12.382 -0.9204  0.3242  1.8107
43756SOL     OW42992   8.334  12.303   1.927  0.2012 -0.3385 -0.0138
43756SOL    HW142993   8.240  12.295   1.943  0.3599  1.1394  2.1860
43756SOL    HW242994   8.373  12.298   2.015  2.1065 -0.1048 -0.8042
43757SOL     OW42995  11.217   1.080   1.358 -0.1336 -0.5624  0.5628
43757SOL    HW142996  11.172   1.096   1.441 -0.8789  2.5156 -0.3175
43757SOL    HW242997  11.151   1.098   1.291  1.9305  2.9169 -0.7691
43758SOL     OW42998   7.663   6.870  11.757  0.4652  1.2283  0.0223
43758SOL    HW142999   7.693   6.841  11.843  2.2053  1.2338 -0.5332
43758SOL    HW243000   7.676   6.965  11.758 -0.2242  1.3273  0.0022
43759SOL     OW43001   9.887   5.318   6.865  0.5712 -0.0901  0.1812
43759SOL    HW143002   9.797   5.296   6.889  0.5052  0.0122  0.0254
43759SOL    HW243003   9.924   5.235   6.833  0.3545  0.0002 -0.3056
43760SOL     OW43004   5.100  11.657  11.295 -0.1330 -0.3033 -0.4295
43760SOL    HW143005   5.058  11.675  11.210 -0.4850 -1.0192 -0.4103
43760SOL    HW243006   5.039  11.599  11.340 -1.3207  2.2307  1.4741
43761SOL     OW43007  10.741   1.853   6.687  0.0395 -0.3400 -0.6969
43761SOL    HW143008  10.701   1.937   6.707  0.4112 -0.3689  0.1794
43761SOL    HW243009  10.680   1.788   6.721  0.0094 -0.4152 -0.8930
43762SOL     OW43010  11.058  10.243   5.125  0.0725  0.2947 -0.1650
43762SOL    HW143011  11.102  10.191   5.058 -0.8333  1.8787 -2.1114
43762SOL    HW243012  11.112  10.323   5.132 -1.6886  1.7010 -1.6682
43763SOL     OW43013   8.820   3.058   9.466  0.0670 -0.6453  0.5121
43763SOL    HW143014   8.766   3.134   9.447  0.7215 -0.1624  0.5518
43763SOL    HW243015   8.812   3.046   9.561  0.6044 -0.1265  0.6273
43764SOL     OW43016   4.675   0.288   3.190 -0.1849  0.8510 -0.3482
43764SOL    HW143017   4.647   0.230   3.119  0.1029  1.0382 -0.6219
43764SOL    HW243018   4.594   0.325   3.224 -0.3508  0.4900 -0.3482
43765SOL     OW43019   0.014   6.676   6.520 -0.7543  0.1370  0.4490
43765SOL    HW143020   0.042   6.746   6.461 -1.1582 -0.5337 -0.5548
43765SOL    HW243021  -0.080   6.689   6.530 -0.8113 -0.1975  0.3553
43766SOL     OW43022   8.302   2.895   4.988 -0.0681 -0.3175  0.7530
43766SOL    HW143023   8.322   2.875   5.080  0.6529 -1.5124  0.3578
43766SOL    HW243024   8.313   2.811   4.943  2.2184  0.7654 -0.8648
43767SOL     OW43025   5.176  12.391  10.293  0.4793 -0.3887 -0.3072
43767SOL    HW143026   5.089  12.372  10.256  0.5929  0.7938 -1.2438
43767SOL    HW243027   5.238  12.357  10.229  0.7459 -1.7689  0.6405
43768SOL     OW43028   1.026  13.247   8.358 -0.0806  0.4322  0.2915
43768SOL    HW143029   0.942  13.266   8.316 -0.6653  0.3976  1.4003
43768SOL    HW243030   1.004  13.187   8.429  1.4099 -2.7679 -1.7534
43769SOL     OW43031   8.015  11.518   7.058  0.0283  0.4093 -0.1294
43769SOL    HW143032   8.050  11.579   7.123 -0.4080  0.3997  0.1210
43769SOL    HW243033   7.928  11.552   7.038 -0.5858 -0.5943  0.6683
43770SOL     OW43034   6.081  11.458   0.421 -0.1861  0.0945  0.5750
43770SOL    HW143035   6.075  11.425   0.331  0.5038  1.4733 -0.0071
43770SOL    HW243036   6.150  11.405   0.461  0.2376  0.1585 -0.0441
43771SOL     OW43037   4.655  11.448   8.164 -0.3994  0.0158 -0.3080
43771SOL    HW143038   4.747  11.432   8.146  0.0584 -3.3414  3.5220
43771SOL    HW243039   4.654  11.518   8.228 -0.3546 -0.6114  0.3972
43772SOL     OW43040   8.250   0.167   2.762 -0.0368  0.0705  0.4709
43772SOL    HW143041   8.173   0.204   2.719  0.1102 -0.1605  0.0132
43772SOL    HW243042   8.322   0.182   2.701  0.0409 -0.8984  0.2984
43773SOL     OW43043  13.281   6.919   8.589  0.2090  0.7171  0.2049
43773SOL    HW143044  13.213   6.855   8.611 -0.3488  0.3673 -2.2286
43773SOL    HW243045  13.233   6.990   8.545  1.1920  1.3295  0.1005
43774SOL     OW43046  10.060   0.623   2.289  0.6153  0.7338 -0.5322
43774SOL    HW143047  10.039   0.714   2.309  0.1958  0.6152 -0.4191
43774SOL    HW243048  10.136   0.603   2.344 -0.9772  0.1712  1.5948
43775SOL     OW43049   3.142   8.788   8.428 -0.1048 -0.3819  0.3774
43775SOL    HW143050   3.123   8.856   8.364 -0.8085 -1.7273 -0.9319
43775SOL    HW243051   3.205   8.731   8.384 -0.2335 -1.0775  1.0652
43776SOL     OW43052   2.701   1.689   7.939 -0.3951 -0.2199 -0.2899
43776SOL    HW143053   2.651   1.724   8.012  1.5750 -0.1807  1.1230
43776SOL    HW243054   2.644   1.623   7.900 -1.7943  0.3132  0.7725
43777SOL     OW43055   2.252   9.329  10.833  0.5642  0.3407 -0.0860
43777SOL    HW143056   2.256   9.350  10.739 -0.4852 -0.7824 -0.4086
43777SOL    HW243057   2.238   9.413  10.876  1.4224  0.9233 -0.8992
43778SOL     OW43058   7.554   0.514   5.672 -0.0030 -0.1544  0.2562
43778SOL    HW143059   7.623   0.459   5.635 -0.6994 -0.1773 -1.0845
43778SOL    HW243060   7.596   0.599   5.687  0.3402 -0.1755 -0.5185
43779SOL     OW43061   1.098   6.490  12.286 -0.3152 -0.3801 -0.4763
43779SOL    HW143062   1.171   6.443  12.246  0.0142 -0.8949  0.6633
43779SOL    HW243063   1.108   6.581  12.256 -0.1821 -0.7650 -1.6352
43780SOL     OW43064   6.406  12.928   3.832  0.7833  0.2317  1.2200
43780SOL    HW143065   6.344  12.866   3.795 -1.5471  2.4418  1.1165
43780SOL    HW243066   6.482  12.925   3.773  0.3111 -1.6666  0.6396
43781SOL     OW43067   7.476   3.804   4.452  0.8191  0.6358  0.2140
43781SOL    HW143068   7.518   3.849   4.379  1.1863 -2.3967 -1.5968
43781SOL    HW243069   7.399   3.761   4.413  1.3188 -1.5175  1.4326
43782SOL     OW43070   2.798   2.172   7.077 -0.0390 -0.0130  0.0342
43782SOL    HW143071   2.751   2.133   7.152 -0.3987 -0.2098 -0.2890
43782SOL    HW243072   2.734   2.170   7.006  0.1277  0.6552 -0.1394
43783SOL     OW43073   2.528   9.479   9.089  0.7256  0.0768 -0.3775
43783SOL    HW143074   2.601   9.520   9.042  0.9614 -1.9007 -1.8669
43783SOL    HW243075   2.450   9.509   9.043  0.7890  0.1997 -0.4050
43784SOL     OW43076  12.127  11.826  10.192 -0.0078 -0.0424  0.1757
43784SOL    HW143077  12.057  11.781  10.240 -1.0572  0.4636 -0.8386
43784SOL    HW243078  12.202  11.768  10.200 -0.8902 -1.2170  0.2331
43785SOL     OW43079   2.510   7.825   2.764  0.4865  0.4126 -0.2510
43785SOL    HW143080   2.473   7.751   2.811 -1.2109  1.3963  0.0497
43785SOL    HW243081   2.438   7.888   2.757  0.8701  0.6679 -3.4513
43786SOL     OW43082   1.258   5.466   4.688 -1.0145  0.1096  0.1345
43786SOL    HW143083   1.352   5.478   4.683 -0.9503  0.2971  1.5178
43786SOL    HW243084   1.234   5.431   4.602  0.3767 -0.4271 -0.0633
43787SOL     OW43085  11.301   4.134  11.438  0.4581  0.0419  0.1288
43787SOL    HW143086  11.376   4.076  11.429  0.8599  0.8359 -2.5496
43787SOL    HW243087  11.271   4.149  11.348 -1.6559  1.3828  0.9640
43788SOL     OW43088   1.687   3.476   0.674 -0.2576 -0.2136 -0.0110
43788SOL    HW143089   1.712   3.437   0.758  2.2266  2.4856  0.6739
43788SOL    HW243090   1.754   3.445   0.613 -0.4323  0.0343 -0.3288
43789SOL     OW43091   8.286  11.765   0.322 -0.2136  0.1782 -0.0286
43789SOL    HW143092   8.279  11.738   0.230 -0.3999  0.0280  0.0311
43789SOL    HW243093   8.201  11.745   0.360  0.1875 -0.7052  0.4338
43790SOL     OW43094   1.172  11.386  10.840 -0.0573 -0.5555  0.3127
43790SOL    HW143095   1.202  11.318  10.779 -0.0301 -0.9896  0.8040
43790SOL    HW243096   1.146  11.338  10.919 -0.4480 -0.0336  0.5103
43791SOL     OW43097   5.643  12.563  11.040 -0.0915  0.3959 -0.1435
43791SOL    HW143098   5.628  12.581  10.948 -0.7309  0.3667 -0.0513
43791SOL    HW243099   5.570  12.605  11.085 -0.1766 -0.1879  0.2872
43792SOL     OW43100  12.153   6.849  12.677 -0.3068  0.1745  0.8538
43792SOL    HW143101  12.207   6.787  12.728  0.0967  0.8632  1.2761
43792SOL    HW243102  12.071   6.802  12.662 -0.5493  0.0430  2.3806
43793SOL     OW43103  12.079  12.251  10.436  0.2789  0.0824  0.0197
43793SOL    HW143104  12.173  12.236  10.441  0.2016 -0.1264  1.1071
43793SOL    HW243105  12.043  12.204  10.512 -0.8112 -0.6583 -0.9245
43794SOL     OW43106   9.062   2.536   0.015 -0.0433  0.1067 -0.7855
43794SOL    HW143107   9.024   2.620  -0.011 -0.7676 -0.1873 -0.6942
43794SOL    HW243108   9.072   2.543   0.110  0.0646  0.1562 -0.8003
43795SOL     OW43109   8.172   4.545  10.700 -0.3643  0.3079 -0.1255
43795SOL    HW143110   8.244   4.484  10.715 -1.5476 -0.9320  0.6645
43795SOL    HW243111   8.183   4.612  10.769 -0.3174 -0.2130  0.3802
43796SOL     OW43112   3.231   4.102  13.592  0.0653 -0.0126 -0.1448
43796SOL    HW143113   3.214   4.128  13.682  0.1362 -0.8956  0.1307
43796SOL    HW243114   3.162   4.145  13.541 -0.0329  0.4108  0.3365
43797SOL     OW43115   6.591   0.481   3.384 -0.1330 -0.1252  0.1768
43797SOL    HW143116   6.616   0.447   3.470  0.7986 -0.2771 -0.1386
43797SOL    HW243117   6.497   0.497   3.390 -0.3602 -1.5421  0.7493
43798SOL     OW43118   8.144   8.041   9.177  0.7766  0.0167 -0.5686
43798SOL    HW143119   8.132   7.953   9.141  2.5203 -0.6469  0.3611
43798SOL    HW243120   8.055   8.078   9.179 -0.4450 -2.6542  1.3147
43799SOL     OW43121   1.499   0.129  12.141  0.0812 -0.0837  0.5037
43799SOL    HW143122   1.419   0.171  12.173  0.5852  1.6181 -0.3522
43799SOL    HW243123   1.564   0.143  12.210  0.2155  0.4632  0.2710
43800SOL     OW43124  13.070   8.047   9.429 -0.5053  0.2311 -0.0511
43800SOL    HW143125  13.099   8.119   9.485  0.7019 -1.0340  1.0437
43800SOL    HW243126  12.994   8.010   9.476 -1.1187  0.7723 -0.6070
43801SOL     OW43127  11.123   2.600  10.216  0.7575 -0.5917  0.1648
43801SOL    HW143128  11.116   2.530  10.282  2.2721 -0.2472  0.7517
43801SOL    HW243129  11.049   2.586  10.157  0.5163 -2.1450  0.7913
43802SOL     OW43130   1.820  12.195   2.470 -0.3515 -0.0483  0.4993
43802SOL    HW143131   1.866  12.127   2.421  0.9559  0.5905  0.8004
43802SOL    HW243132   1.793  12.153   2.551  0.8688 -0.0956  0.8934
43803SOL     OW43133  12.218   3.324  12.334  0.6054 -0.0926  0.1240
43803SOL    HW143134  12.283   3.357  12.396  0.9149 -0.8145  0.1900
43803SOL    HW243135  12.197   3.236  12.365 -1.7690  0.7597  1.1668
43804SOL     OW43136   8.323   1.840   4.520  0.4984  0.1658 -0.2148
43804SOL    HW143137   8.293   1.790   4.444 -3.0820  1.7683 -0.0587
43804SOL    HW243138   8.325   1.776   4.591 -3.2757 -0.0578 -0.1584
43805SOL     OW43139   8.206   6.693  11.330  0.2467  0.1941  0.9991
43805SOL    HW143140   8.204   6.788  11.323  0.7959  0.1709  0.4273
43805SOL    HW243141   8.267   6.665  11.262  0.1507 -0.5633  1.2115
43806SOL     OW43142   2.540  10.452  11.976 -0.1915  0.0914 -0.7407
43806SOL    HW143143   2.560  10.371  11.929  0.2159  0.5822 -1.4482
43806SOL    HW243144   2.477  10.427  12.042  0.0405 -0.8337 -0.8540
43807SOL     OW43145   0.464   7.795   5.386  0.5414 -0.3477  0.2560
43807SOL    HW143146   0.451   7.711   5.431  0.6603 -0.1580  0.6469
43807SOL    HW243147   0.558   7.812   5.395  0.8872 -1.0933 -1.4607
43808SOL     OW43148   3.659   0.832   2.313  0.0368 -0.0134  0.1258
43808SOL    HW143149   3.718   0.778   2.260  1.6279 -0.4544  2.2166
43808SOL    HW243150   3.629   0.774   2.382 -2.0063  0.5432 -0.2364
43809SOL     OW43151   1.943   1.408  13.121 -0.1312  0.2319  0.3637
43809SOL    HW143152   1.945   1.502  13.103  1.4615  0.1444 -0.0950
43809SOL    HW243153   1.942   1.367  13.035  0.7319 -0.1674  0.5385
43810SOL     OW43154   6.279   8.447   1.193 -0.2390  0.0628 -0.0812
43810SOL    HW143155   6.276   8.432   1.287  2.1632  2.3829  0.4733
43810SOL    HW243156   6.358   8.401   1.163 -0.5037  0.0640 -0.8222
43811SOL     OW43157  13.661   3.333   9.933  0.0612  0.0089  0.2568
43811SOL    HW143158  13.732   3.281   9.971 -0.2207 -0.0856  0.6665
43811SOL    HW243159  13.608   3.359  10.008 -0.6309 -0.3628 -0.0907
43812SOL     OW43160   9.123   9.736   4.382  0.7383 -0.6044 -0.1431
43812SOL    HW143161   9.052   9.678   4.411  0.6663  0.2914  1.6898
43812SOL    HW243162   9.177   9.747   4.460  1.8501  0.2151 -1.0063
43813SOL     OW43163   7.635   9.973  13.192  0.7058 -0.2473 -0.1874
43813SOL    HW143164   7.615   9.984  13.099 -0.4179  0.1195  0.0846
43813SOL    HW243165   7.682  10.053  13.215 -0.2304  0.3126 -0.1385
43814SOL     OW43166  11.040   3.828   6.576 -0.2946 -0.2770  1.0179
43814SOL    HW143167  11.121   3.811   6.528 -1.8587 -0.7554 -1.6917
43814SOL    HW243168  11.003   3.741   6.591 -0.3054 -0.0637  2.2778
43815SOL     OW43169   0.881   3.773   2.434  0.4445  0.4755 -0.2220
43815SOL    HW143170   0.899   3.842   2.499 -1.0365  1.6577 -1.0258
43815SOL    HW243171   0.822   3.814   2.371 -0.1919 -1.4391 -0.9273
43816SOL     OW43172   4.325  10.568   9.189  0.1110  0.2371 -0.0028
43816SOL    HW143173   4.257  10.540   9.250 -0.4779  0.1901 -0.6612
43816SOL    HW243174   4.373  10.488   9.168  0.5277  0.3133  0.6520
43817SOL     OW43175   5.693   8.786  13.596 -0.4354 -0.6659 -0.1948
43817SOL    HW143176   5.784   8.818  13.593 -1.0998  1.3064 -0.4596
43817SOL    HW243177   5.701   8.693  13.575  1.2846  0.0146 -3.3779
43818SOL     OW43178  12.104   7.509   2.670 -0.3503  0.4838 -0.5380
43818SOL    HW143179  12.139   7.579   2.725 -1.4588  1.5321 -1.1150
43818SOL    HW243180  12.070   7.444   2.731  3.9155 -1.4474  0.1564
43819SOL     OW43181   7.982   4.889   6.084 -0.8182 -0.2375 -0.3389
43819SOL    HW143182   7.914   4.870   6.019 -1.0446  1.2088 -0.5429
43819SOL    HW243183   8.008   4.803   6.117  0.2373 -1.1722 -3.2735
43820SOL     OW43184   6.157  12.607   3.903 -0.8079  0.6965 -0.4525
43820SOL    HW143185   6.241  12.608   3.950 -0.2880  0.5689 -1.3454
43820SOL    HW243186   6.144  12.515   3.880 -0.4078  0.9184 -1.6480
43821SOL     OW43187   2.142   2.375   6.008  0.1269  0.2814  0.6212
43821SOL    HW143188   2.087   2.362   5.930  0.3792  0.8351  0.3512
43821SOL    HW243189   2.166   2.286   6.034  0.5296  0.1140 -0.2822
43822SOL     OW43190   0.156   5.374  12.298  0.1044  0.0978 -0.1103
43822SOL    HW143191   0.244   5.380  12.335  2.0695  0.2426 -4.2463
43822SOL    HW243192   0.132   5.465  12.279  1.5472 -0.1137 -3.7522
43823SOL     OW43193  12.005   0.728   8.338  0.7120  0.0235  0.3238
43823SOL    HW143194  11.982   0.804   8.392  0.5421  2.0759 -2.4024
43823SOL    HW243195  12.080   0.757   8.287  0.5847 -1.6150 -0.8811
43824SOL     OW43196  12.043   9.390   5.663  0.4371 -0.2915  0.3319
43824SOL    HW143197  12.069   9.308   5.620  1.0388 -0.2143  0.5336
43824SOL    HW243198  12.113   9.451   5.641  0.4752 -0.0978  0.9653
43825SOL     OW43199   5.181  12.047   3.509 -0.6533 -0.1900 -0.0271
43825SOL    HW143200   5.201  12.004   3.425 -0.5087  1.0714 -0.6692
43825SOL    HW243201   5.116  12.113   3.486  0.8561  1.5431  0.4511
43826SOL     OW43202  13.400   4.003   0.743  0.1656  0.2045  0.1582
43826SOL    HW143203  13.463   4.026   0.811 -0.0969  0.2718  0.3792
43826SOL    HW243204  13.408   3.908   0.733  0.7953  0.3033 -0.3048
43827SOL     OW43205  10.518   1.169  12.591 -0.5826 -0.0500  0.1371
43827SOL    HW143206  10.474   1.178  12.676 -0.5370 -0.3215  0.1889
43827SOL    HW243207  10.603   1.211  12.604 -1.7953  2.9872 -0.7326
43828SOL     OW43208  11.882   6.192   1.279 -0.3063 -0.4270  0.0222
43828SOL    HW143209  11.917   6.224   1.196 -1.2989  2.2093  0.5377
43828SOL    HW243210  11.809   6.136   1.253 -1.0146  0.8649 -0.9329
43829SOL     OW43211   2.624  12.850   0.143  0.0995 -0.5225 -0.3491
43829SOL    HW143212   2.657  12.824   0.229  1.9225 -0.5113 -1.0070
43829SOL    HW243213   2.557  12.784   0.123  0.2153 -0.9877  0.7207
43830SOL     OW43214   8.590  13.125  12.271  0.0673 -0.2752  0.1299
43830SOL    HW143215   8.603  13.170  12.187 -0.1987  0.6089  0.5492
43830SOL    HW243216   8.533  13.052  12.250 -1.8318  1.1897 -0.1081
43831SOL     OW43217   3.324   2.610   7.846 -0.1062 -0.0061 -0.1103
43831SOL    HW143218   3.373   2.580   7.922 -1.1637  0.4481  0.7761
43831SOL    HW243219   3.374   2.576   7.771  0.0418 -1.9179  0.7806
43832SOL     OW43220   1.436  13.260   0.722  0.5861 -0.4582 -0.3412
43832SOL    HW143221   1.468  13.214   0.644  2.5013  0.4642 -0.1531
43832SOL    HW243222   1.386  13.333   0.687 -0.7006 -1.4629 -0.6600
43833SOL     OW43223   5.755   0.061  11.095  1.1854 -0.4443 -0.3592
43833SOL    HW143224   5.842   0.027  11.116  0.4729 -2.1611 -0.0758
43833SOL    HW243225   5.702  -0.016  11.077 -0.3218  0.5644 -0.4439
43834SOL     OW43226   1.889   0.947   6.811  0.2710  0.0819 -0.0514
43834SOL    HW143227   1.855   1.008   6.746 -0.5997  1.3190  1.4935
43834SOL    HW243228   1.828   0.874   6.810 -0.6307  0.8066  0.4203
43835SOL     OW43229   9.835   4.420   4.278  0.2122  0.4602 -0.2870
43835SOL    HW143230   9.829   4.356   4.208  0.6038  0.2589 -0.1399
43835SOL    HW243231   9.896   4.381   4.341 -1.9161 -0.4540  1.3112
43836SOL     OW43232   5.436   3.239   5.415  0.5147  0.7796  0.1463
43836SOL    HW143233   5.384   3.165   5.447 -0.1061  1.2145  0.1554
43836SOL    HW243234   5.438   3.300   5.488  1.3645  0.6078  0.2797
43837SOL     OW43235   8.774   5.694   6.741  0.5257  0.0486 -0.5040
43837SOL    HW143236   8.725   5.640   6.802 -0.1610 -0.5471 -1.5476
43837SOL    HW243237   8.834   5.633   6.697 -0.2364  0.1004 -1.6759
43838SOL     OW43238   7.835  10.861   2.002  0.4098 -0.1803 -0.5351
43838SOL    HW143239   7.799  10.799   1.938 -1.7301 -0.4311  0.8181
43838SOL    HW243240   7.905  10.813   2.046  1.7154 -0.1045 -2.4203
43839SOL     OW43241   8.739   0.838   4.584 -0.5322 -0.1276  0.0826
43839SOL    HW143242   8.763   0.797   4.667 -2.2353 -0.2225  0.5654
43839SOL    HW243243   8.757   0.771   4.517  0.0837 -0.3357  0.4441
43840SOL     OW43244   2.093   0.264  10.129 -0.0262  0.0010  0.0352
43840SOL    HW143245   2.091   0.179  10.174 -0.5387 -0.4614 -0.8395
43840SOL    HW243246   2.170   0.308  10.166 -0.1058 -0.5886  0.9473
43841SOL     OW43247   2.406   6.982   6.443  0.7517 -0.2731 -0.3631
43841SOL    HW143248   2.435   7.059   6.491  2.2863 -1.0377  0.0325
43841SOL    HW243249   2.339   6.942   6.498  1.0340 -0.0273  0.1638
43842SOL     OW43250   3.466  10.390  11.108  0.4148  0.4845  0.5406
43842SOL    HW143251   3.504  10.470  11.073  0.7253 -0.5737 -1.7488
43842SOL    HW243252   3.396  10.368  11.047  0.0266 -0.7482  1.3814
43843SOL     OW43253   6.142   8.844  10.065 -0.1485  0.2317  0.2525
43843SOL    HW143254   6.218   8.787  10.075 -0.0868  0.4034  0.7830
43843SOL    HW243255   6.122   8.873  10.154 -0.8163  0.2126  0.1117
43844SOL     OW43256   9.939   6.025   2.923 -0.1072 -0.2854 -0.1643
43844SOL    HW143257  10.000   6.030   2.850 -0.3852  1.0528 -0.3466
43844SOL    HW243258   9.857   5.996   2.884 -0.6215  1.6846 -0.6960
43845SOL     OW43259   1.186  10.046   3.088 -0.5152 -0.1474 -0.9872
43845SOL    HW143260   1.165   9.979   3.022  1.5514 -0.6760 -1.1742
43845SOL    HW243261   1.258  10.095   3.050  0.5937 -0.3242  0.7779
43846SOL     OW43262   1.448   0.456   0.254  0.1480 -0.0068  0.1215
43846SOL    HW143263   1.394   0.446   0.333  0.0436  1.0744  0.2136
43846SOL    HW243264   1.419   0.540   0.217  0.6229 -0.2127 -0.7377
43847SOL     OW43265   3.966   0.590   6.110  0.4035  0.7705  0.0445
43847SOL    HW143266   3.968   0.668   6.055 -3.1057  1.2932  0.4771
43847SOL    HW243267   3.941   0.519   6.051 -0.3215  0.7454  0.3741
43848SOL     OW43268   6.051  12.684  10.251  0.3873 -0.3316 -0.1823
43848SOL    HW143269   6.131  12.734  10.236 -0.2152  1.8805  2.8995
43848SOL    HW243270   6.013  12.672  10.164  2.6428  1.0553 -1.4369
43849SOL     OW43271   9.925   9.197   1.695  0.1341  0.6497 -0.1366
43849SOL    HW143272   9.865   9.267   1.722 -0.9087  0.3167 -1.4924
43849SOL    HW243273   9.868   9.128   1.661  1.3164  0.7256 -2.4395
43850SOL     OW43274   9.455  11.092  11.717 -0.1704  0.0209  0.6207
43850SOL    HW143275   9.404  11.135  11.648 -0.0107 -0.2785  0.3146
43850SOL    HW243276   9.435  10.999  11.707  2.2853 -0.4216 -1.0859
43851SOL     OW43277   2.245   6.875  10.799  0.2940 -0.3036 -1.0182
43851SOL    HW143278   2.242   6.840  10.888 -1.5994  1.5822 -0.2661
43851SOL    HW243279   2.154   6.879  10.771  0.8066 -0.2349 -2.8100
43852SOL     OW43280   6.602   5.214   4.915  0.2474 -0.3026 -0.0917
43852SOL    HW143281   6.634   5.256   4.835  1.3913  1.2433  1.1012
43852SOL    HW243282   6.511   5.243   4.922  0.7854  1.4256  0.2845
43853SOL     OW43283   5.400   4.866  12.399  0.4114  0.6805 -0.0704
43853SOL    HW143284   5.363   4.884  12.313  1.9623  1.4852 -0.6161
43853SOL    HW243285   5.376   4.942  12.452  0.2468  0.6249 -0.0650
43854SOL     OW43286   7.649   9.607   0.422 -0.3315 -0.0803 -0.2322
43854SOL    HW143287   7.719   9.594   0.358 -0.9555  0.6709 -1.0822
43854SOL    HW243288   7.671   9.547   0.493  0.5357 -0.7143 -1.0071
43855SOL     OW43289   8.062  10.403  11.149  0.6560 -0.4626  0.0020
43855SOL    HW143290   8.097  10.460  11.217  0.4483 -1.8225  1.3004
43855SOL    HW243291   8.057  10.459  11.071 -0.9119  1.7058  1.5352
43856SOL     OW43292   7.335  12.169   2.266  0.0127 -0.2647 -0.4222
43856SOL    HW143293   7.389  12.243   2.237 -0.0654  0.5482  1.3655
43856SOL    HW243294   7.255  12.209   2.299 -0.6882 -1.2794 -0.8566
43857SOL     OW43295   3.319   4.072   6.103  0.3427  0.0355  0.6259
43857SOL    HW143296   3.224   4.064   6.109  0.3298 -0.2196  0.1176
43857SOL    HW243297   3.353   4.011   6.168  0.1626 -0.0185  0.6693
43858SOL     OW43298  11.046   8.173   1.684 -0.0500  0.2514 -0.2681
43858SOL    HW143299  11.140   8.190   1.690  0.1527 -0.3124 -1.5815
43858SOL    HW243300  11.037   8.111   1.612 -1.4948  0.8048 -0.6074
43859SOL     OW43301  13.595  10.002   3.679  0.1211 -0.6332  0.2051
43859SOL    HW143302  13.633   9.922   3.642 -2.1181 -1.6448 -0.1316
43859SOL    HW243303  13.569   9.977   3.768 -1.4697 -0.6382 -0.2269
43860SOL     OW43304   2.034  12.614   6.958 -0.1996  0.3357  0.0424
43860SOL    HW143305   2.098  12.671   7.001  0.7083  1.1663 -2.2645
43860SOL    HW243306   2.074  12.592   6.875 -2.1263 -0.7156 -0.6660
43861SOL     OW43307   1.022  10.581  11.028 -0.0097  0.1581 -0.3412
43861SOL    HW143308   0.981  10.500  11.060  0.1391  0.8000  1.5781
43861SOL    HW243309   1.098  10.551  10.979 -0.2348 -0.8905 -0.0772
43862SOL     OW43310   4.194   9.725   8.157 -0.1872  0.2262 -0.1887
43862SOL    HW143311   4.290   9.720   8.159 -0.0680  1.6902 -0.8609
43862SOL    HW243312   4.174   9.812   8.192 -1.2403  0.1542 -0.5828
43863SOL     OW43313   0.795  12.409   2.231  0.2991 -0.3510  0.6095
43863SOL    HW143314   0.757  12.454   2.156 -0.3491 -0.0599  1.1021
43863SOL    HW243315   0.781  12.316   2.213 -1.5368 -0.2359  1.2062
43864SOL     OW43316   7.600   6.820  12.881 -0.5733 -0.4502 -0.0896
43864SOL    HW143317   7.509   6.844  12.863 -0.9993 -1.7103  0.2656
43864SOL    HW243318   7.633   6.787  12.798 -0.1082  0.9330 -0.4789
43865SOL     OW43319   8.755   7.510   4.331  0.5534 -0.3019  0.5120
43865SOL    HW143320   8.745   7.564   4.410  0.2265  0.1532  0.1638
43865SOL    HW243321   8.807   7.564   4.272 -0.3924 -0.0649 -0.1161
43866SOL     OW43322   7.445  12.591   8.291  0.5653  0.2859 -0.2726
43866SOL    HW143323   7.475  12.525   8.353  1.3664 -0.0375 -0.9963
43866SOL    HW243324   7.349  12.590   8.299  0.5784 -0.8544 -0.1759
43867SOL     OW43325   9.437   1.916   8.180 -0.1642 -0.4504  0.6037
43867SOL    HW143326   9.447   1.940   8.272 -1.3646  1.3293  0.3022
43867SOL    HW243327   9.373   1.844   8.180 -0.1111 -0.5005  1.1471
43868SOL     OW43328   0.698   8.231  11.774  0.4686  0.2148  0.7358
43868SOL    HW143329   0.731   8.146  11.802 -1.0726 -0.4946  0.5423
43868SOL    HW243330   0.682   8.279  11.855  2.1822  0.7019  0.8279
43869SOL     OW43331  11.067   0.581   1.918  0.2120  0.0631 -0.4043
43869SOL    HW143332  11.000   0.524   1.881 -0.1037  0.8144 -1.0303
43869SOL    HW243333  11.147   0.558   1.871  0.7020 -1.7246  1.2377
43870SOL     OW43334  13.351   2.648   1.140  0.4630  0.6342  0.5125
43870SOL    HW143335  13.284   2.716   1.140 -0.1851  0.0060  0.4631
43870SOL    HW243336  13.340   2.603   1.057 -0.3684 -0.7383  1.3434
43871SOL     OW43337   4.558   5.428  13.725 -0.8332 -0.1669  0.0512
43871SOL    HW143338   4.545   5.517  13.692  1.2367  0.1303 -0.0474
43871SOL    HW243339   4.589   5.378  13.649 -1.0479 -0.7569  0.3428
43872SOL     OW43340   5.456   1.020  12.059  0.5280 -0.3671 -0.0689
43872SOL    HW143341   5.529   1.067  12.020 -0.8446  0.9475 -1.2100
43872SOL    HW243342   5.471   0.929  12.037  2.7819 -0.4163  1.3923
43873SOL     OW43343   3.209   1.074  12.320  0.2146  0.2167  0.3240
43873SOL    HW143344   3.165   1.102  12.400 -2.7103  1.3401 -1.4991
43873SOL    HW243345   3.208   0.979  12.324 -1.3757  0.2235  0.9320
43874SOL     OW43346   7.967   9.143   0.749  0.7262 -0.6693 -0.6955
43874SOL    HW143347   7.945   9.140   0.843  0.4434  1.3773 -0.6379
43874SOL    HW243348   7.921   9.069   0.711 -0.3602 -0.6935  0.5815
43875SOL     OW43349   9.109   4.475   2.922 -0.4844 -0.1207  0.5117
43875SOL    HW143350   9.079   4.397   2.969 -0.5398 -0.4818 -0.1219
43875SOL    HW243351   9.039   4.496   2.861  0.3786 -0.7766 -0.7426
43876SOL     OW43352   6.298   2.641   7.739  0.0287  0.5239  0.3251
43876SOL    HW143353   6.331   2.646   7.650  0.5835  1.9092  0.5818
43876SOL    HW243354   6.202   2.645   7.729  0.1040  1.5679 -0.1904
43877SOL     OW43355   9.829  11.121   6.196  0.0980 -0.2916  0.8362
43877SOL    HW143356   9.822  11.180   6.121 -0.2067 -0.2045  0.9345
43877SOL    HW243357   9.828  11.033   6.157  0.9330 -0.2288  0.6576
43878SOL     OW43358   3.020   5.308   5.987  0.2297 -0.4493  0.5376
43878SOL    HW143359   3.035   5.403   5.984  1.8085 -0.6875 -1.9485
43878SOL    HW243360   2.932   5.297   5.950 -0.5682  0.1019  2.2001
43879SOL     OW43361  10.693  13.075   1.209  0.1870  0.1139  0.0900
43879SOL    HW143362  10.721  12.996   1.257  0.2298  0.7295  1.1035
43879SOL    HW243363  10.611  13.049   1.167  0.9011 -0.8980 -0.7560
43880SOL     OW43364  10.303   3.467   2.798  0.0983 -0.1267 -0.4196
43880SOL    HW143365  10.268   3.384   2.767  0.8823 -0.5262 -0.2734
43880SOL    HW243366  10.232   3.506   2.849  0.4975 -1.8526  1.5859
43881SOL     OW43367  11.576   7.547   8.072  0.1280 -0.1041  0.0473
43881SOL    HW143368  11.655   7.584   8.112  1.3997 -1.7513 -0.8467
43881SOL    HW243369  11.586   7.453   8.081 -2.7688 -0.3827  1.7852
43882SOL     OW43370  10.426  13.483  10.843 -0.0174 -0.4430  0.5012
43882SOL    HW143371  10.477  13.563  10.856  0.5992 -0.3636 -1.9804
43882SOL    HW243372  10.476  13.415  10.889  1.5675 -0.0794 -0.6133
43883SOL     OW43373   7.096  10.912  12.978 -0.0341 -0.5639 -0.2090
43883SOL    HW143374   7.163  10.958  12.929  0.3222 -0.0602  0.7180
43883SOL    HW243375   7.025  10.899  12.916 -0.2042  1.3660 -0.4782
43884SOL     OW43376   5.697   2.890   1.020  0.2953  0.1140 -0.0056
43884SOL    HW143377   5.700   2.891   1.115  0.2351 -0.8500  0.0173
43884SOL    HW243378   5.699   2.797   0.997 -1.9143  0.2058 -0.8519
43885SOL     OW43379   3.460  10.563   3.081 -0.5972 -0.0489  0.4828
43885SOL    HW143380   3.491  10.646   3.045 -1.1961  0.3974  0.9773
43885SOL    HW243381   3.497  10.560   3.169  0.5391 -0.9493 -0.0038
43886SOL     OW43382  11.960   1.187  11.942 -0.4204 -0.2227 -1.2089
43886SOL    HW143383  11.883   1.143  11.907 -1.2584 -0.7152  1.0968
43886SOL    HW243384  11.935   1.213  12.030  2.1501 -0.6067 -0.2841
43887SOL     OW43385  13.590   2.589  11.912  0.1509  0.8000 -0.6128
43887SOL    HW143386  13.643   2.578  11.991 -0.5366 -0.9081 -0.3513
43887SOL    HW243387  13.502   2.608  11.945 -0.5502 -1.6833 -0.8379
43888SOL     OW43388  12.642   4.521  13.337  0.2581 -0.3262  0.4086
43888SOL    HW143389  12.627   4.615  13.336 -0.2438 -0.3602  1.9495
43888SOL    HW243390  12.585   4.487  13.268 -0.2331  0.4109  0.4415
43889SOL     OW43391   2.871  12.330   0.261  0.2630 -0.0469 -0.0013
43889SOL    HW143392   2.929  12.361   0.331  1.5757  0.1118 -1.1141
43889SOL    HW243393   2.808  12.401   0.250  0.1870  0.0260  0.8612
43890SOL     OW43394  10.077   8.128   8.261  0.7400 -0.5608 -0.0665
43890SOL    HW143395  10.166   8.093   8.259  1.6159  1.5481 -0.3309
43890SOL    HW243396  10.021   8.051   8.265  2.5912 -1.9247  0.8431
43891SOL     OW43397   4.218   0.140   3.073 -0.1568 -0.4225  0.1119
43891SOL    HW143398   4.192   0.049   3.091  0.4840 -0.5405  0.4832
43891SOL    HW243399   4.181   0.158   2.986 -0.1484 -1.0970 -0.0411
43892SOL     OW43400   3.190  10.620   0.730 -0.1708  0.3847  0.2763
43892SOL    HW143401   3.167  10.713   0.738 -1.5087  0.1162 -0.3196
43892SOL    HW243402   3.255  10.606   0.799  2.3819  2.4726 -1.4555
43893SOL     OW43403  12.462  10.271   2.537 -0.0216  0.2013  0.4229
43893SOL    HW143404  12.467  10.317   2.621  0.0484  0.3257  0.3516
43893SOL    HW243405  12.519  10.322   2.479 -0.7104  0.5933  0.0835
43894SOL     OW43406   7.134   7.954   8.118 -0.3445  0.8763  0.0032
43894SOL    HW143407   7.144   7.984   8.027 -0.4977  0.9692  0.0160
43894SOL    HW243408   7.223   7.937   8.147 -0.3825 -0.3776 -0.5671
43895SOL     OW43409  11.971   6.983   1.783  0.0379 -0.3311  0.2674
43895SOL    HW143410  11.992   6.895   1.750 -1.5323 -0.7142  0.2210
43895SOL    HW243411  11.936   6.967   1.871 -2.1519  0.0066 -0.4810
43896SOL     OW43412  11.710   9.023   9.588  0.4266  0.0338  0.4252
43896SOL    HW143413  11.793   9.027   9.636  1.4502  1.6013 -1.3536
43896SOL    HW243414  11.729   8.971   9.510 -0.4023  0.0006  0.2340
43897SOL     OW43415   3.358   8.143  12.324 -0.5286  0.5192  0.3035
43897SOL    HW143416   3.273   8.153  12.367 -1.3383 -1.1557 -0.8507
43897SOL    HW243417   3.341   8.091  12.246  1.5683  0.1118  0.0463
43898SOL     OW43418   8.973   9.994  12.285  0.5082 -0.0749  0.0683
43898SOL    HW143419   8.947  10.070  12.336 -0.0625  0.4273 -0.9516
43898SOL    HW243420   8.903   9.982  12.221  0.9699 -0.9874 -0.2863
43899SOL     OW43421   5.768   9.030  10.916 -0.1689 -0.5461  0.2770
43899SOL    HW143422   5.858   9.021  10.885 -0.4508 -1.7232 -0.2588
43899SOL    HW243423   5.772   9.007  11.009 -0.0563 -1.4943  0.0464
43900SOL     OW43424   4.419   8.157   5.212  0.2620  0.9714 -0.1874
43900SOL    HW143425   4.477   8.087   5.244 -0.6767  0.7441  1.1086
43900SOL    HW243426   4.473   8.207   5.151  0.0621 -2.7166 -3.7681
43901SOL     OW43427  13.284   7.184   2.911 -0.6233 -0.1203  0.1383
43901SOL    HW143428  13.283   7.212   3.003 -2.6497 -0.5854  0.2973
43901SOL    HW243429  13.253   7.260   2.863 -2.8910 -0.9196  0.2315
43902SOL     OW43430  10.316   2.995   1.862 -0.3109 -0.0135  0.0815
43902SOL    HW143431  10.232   3.021   1.898  0.6267  0.5509  1.9824
43902SOL    HW243432  10.324   2.902   1.884 -0.8679 -0.3443 -1.0406
43903SOL     OW43433  11.776   3.824   1.294  0.3330 -0.2993 -0.0963
43903SOL    HW143434  11.766   3.856   1.383 -0.8266 -2.5275  0.6477
43903SOL    HW243435  11.793   3.902   1.242  0.3452  1.1345  1.9590
43904SOL     OW43436  13.202  11.868   1.785 -0.2140  0.2651 -0.3404
43904SOL    HW143437  13.256  11.846   1.709  1.1921 -0.7651  0.9040
43904SOL    HW243438  13.152  11.788   1.803 -0.1332  0.3254  0.1540
43905SOL     OW43439   8.005   3.702  13.495 -0.5112  0.3660 -0.4300
43905SOL    HW143440   8.041   3.663  13.575 -0.8804  1.3707  0.2419
43905SOL    HW243441   8.055   3.782  13.482 -1.0456  0.6619 -0.7070
43906SOL     OW43442   7.286   6.474   1.154  0.3150  0.2632 -0.4615
43906SOL    HW143443   7.366   6.434   1.189 -0.4565 -1.4192 -0.5276
43906SOL    HW243444   7.239   6.401   1.113 -1.2063  1.2468 -0.5254
43907SOL     OW43445   6.496   8.220   7.349 -0.1513  0.2223 -0.3017
43907SOL    HW143446   6.577   8.263   7.376  0.9979 -1.7127 -0.5626
43907SOL    HW243447   6.444   8.291   7.309  1.1087  1.6216  0.4431
43908SOL     OW43448   9.149   1.425  12.747 -0.5074 -0.3002  0.1480
43908SOL    HW143449   9.171   1.399  12.837  0.9488 -2.0100 -0.6581
43908SOL    HW243450   9.232   1.418  12.699 -1.0617  1.4819 -1.1610
43909SOL     OW43451  12.385   9.518   7.018 -0.0017  0.9472 -0.0845
43909SOL    HW143452  12.374   9.539   7.111  0.8618  0.0148  0.2530
43909SOL    HW243453  12.459   9.458   7.016 -1.3011 -0.7252 -1.1427
43910SOL     OW43454   9.671   7.968   1.594 -0.3154 -0.2146 -0.0629
43910SOL    HW143455   9.746   8.017   1.628 -0.5235 -0.4733  0.8044
43910SOL    HW243456   9.688   7.877   1.619 -0.2884 -0.4825 -1.0210
43911SOL     OW43457  10.568   1.436   2.890 -0.8024 -0.3838 -0.4769
43911SOL    HW143458  10.520   1.434   2.973 -0.3658  1.4655 -0.1372
43911SOL    HW243459  10.611   1.522   2.889  0.8621 -1.1750 -1.6935
43912SOL     OW43460  11.163   9.445   6.465  0.0563 -0.3433 -0.2671
43912SOL    HW143461  11.224   9.455   6.392 -1.2436 -0.8434 -1.4581
43912SOL    HW243462  11.219   9.440   6.543  1.6224 -2.0145 -1.4181
43913SOL     OW43463   4.194   4.884  10.534  0.3265 -0.3738  0.0130
43913SOL    HW143464   4.198   4.803  10.484  1.4519 -0.6525  0.5101
43913SOL    HW243465   4.270   4.934  10.504  0.3018 -0.0135  0.5333
43914SOL     OW43466   9.514  11.411   3.800 -0.4818 -0.5548  0.0060
43914SOL    HW143467   9.540  11.323   3.827 -3.7646 -1.0584  2.0625
43914SOL    HW243468   9.593  11.464   3.813  0.9875 -2.7594  0.7902
43915SOL     OW43469   6.102   4.775  13.074 -0.1814 -0.2545  0.1637
43915SOL    HW143470   6.180   4.801  13.123  0.5986 -0.1877 -1.0765
43915SOL    HW243471   6.047   4.731  13.139  1.4763 -1.5078  0.7942
43916SOL     OW43472  11.236  13.422  12.813  0.4683 -0.4735  0.1631
43916SOL    HW143473  11.296  13.356  12.848  2.1166  0.0042 -1.5765
43916SOL    HW243474  11.199  13.464  12.891  1.9842 -1.1575  1.3200
43917SOL     OW43475   8.607   9.006   7.070 -0.7189 -0.2963 -0.5687
43917SOL    HW143476   8.512   9.017   7.064 -1.0620 -2.8530 -1.0399
43917SOL    HW243477   8.619   8.921   7.113  1.4057  0.6061  0.7675
43918SOL     OW43478   4.818  10.964   9.750  0.2130 -0.1341 -0.0947
43918SOL    HW143479   4.806  10.870   9.735  0.8263 -0.1808 -0.3541
43918SOL    HW243480   4.826  10.972   9.845  1.6746 -0.5576 -0.1470
43919SOL     OW43481  11.916   3.665   6.401  0.1648 -0.3146 -0.4299
43919SOL    HW143482  11.961   3.682   6.483  1.2987 -0.2768 -1.0319
43919SOL    HW243483  11.929   3.572   6.385 -0.3064 -0.3836 -0.4290
43920SOL     OW43484   1.785   4.868   0.231  0.0243 -0.0298 -0.3714
43920SOL    HW143485   1.804   4.916   0.311  2.8111  2.0246 -2.0864
43920SOL    HW243486   1.691   4.848   0.236 -0.0819  0.7694  2.9148
43921SOL     OW43487   5.948  12.341  13.522 -0.5580  0.2619  0.1091
43921SOL    HW143488   6.015  12.404  13.549 -0.2800  0.5791 -1.2764
43921SOL    HW243489   5.980  12.305  13.439 -0.6530 -1.7992  0.9006
43922SOL     OW43490   1.699   6.426   7.372  0.1743  0.1026  0.3080
43922SOL    HW143491   1.729   6.458   7.457 -0.0810 -3.9618  2.1954
43922SOL    HW243492   1.611   6.464   7.362  0.2451  0.7490  1.8088
43923SOL     OW43493   8.205  10.395   7.867 -0.4876 -0.2132  0.0499
43923SOL    HW143494   8.267  10.443   7.814 -0.1958 -0.4268  0.1951
43923SOL    HW243495   8.237  10.405   7.957 -1.4945  0.9401  0.3147
43924SOL     OW43496  13.169   2.329  11.842  0.1486 -0.2652  0.4591
43924SOL    HW143497  13.196   2.250  11.888  0.3082 -0.2173  0.4467
43924SOL    HW243498  13.241   2.348  11.782 -1.1934 -1.8782 -1.8098
43925SOL     OW43499   9.047  10.358  10.075 -0.1708  0.1084 -0.0325
43925SOL    HW143500   9.125  10.306  10.052 -0.9332 -1.5818  1.0051
43925SOL    HW243501   9.047  10.361  10.170 -1.2399  0.3074 -0.0265
43926SOL     OW43502   8.769   0.133   5.341  0.2830  0.7085 -0.5854
43926SOL    HW143503   8.760   0.162   5.250 -2.3768  0.0813 -0.6098
43926SOL    HW243504   8.738   0.042   5.340  1.3638  0.2963  0.7549
43927SOL     OW43505  11.779   7.857   5.043 -0.4012  0.6444 -0.4921
43927SOL    HW143506  11.823   7.779   5.077 -0.5132  1.8287  2.7574
43927SOL    HW243507  11.821   7.874   4.959  1.0442 -1.7308 -0.3340
43928SOL     OW43508   3.296   6.407   4.252  0.2719 -0.0225  0.0240
43928SOL    HW143509   3.332   6.320   4.234 -0.9964 -0.4547 -0.5209
43928SOL    HW243510   3.305   6.418   4.347 -1.2053 -1.5323  0.3843
43929SOL     OW43511   0.003  12.195   2.958  0.5822 -0.4677 -0.6817
43929SOL    HW143512   0.012  12.216   2.865 -1.2661  1.0367 -0.5638
43929SOL    HW243513   0.008  12.279   3.003 -1.7810 -0.7375  0.2576
43930SOL     OW43514   0.133  10.114   7.234 -0.1663 -0.2062  0.2306
43930SOL    HW143515   0.150  10.035   7.183  2.8108  0.6724 -0.3197
43930SOL    HW243516   0.058  10.155   7.190  0.6941 -0.7818 -1.8665
43931SOL     OW43517  10.675   1.578   4.489  0.6091  0.1766  0.2582
43931SOL    HW143518  10.580   1.587   4.496  0.4038 -1.2989 -0.3960
43931SOL    HW243519  10.705   1.665   4.465 -0.6717  0.4514 -0.4432
43932SOL     OW43520   8.331  11.386   7.599 -0.2643  0.5661  0.2473
43932SOL    HW143521   8.239  11.385   7.626 -0.1977  0.0790  0.4733
43932SOL    HW243522   8.329  11.410   7.506 -0.5684  1.2331  0.4174
43933SOL     OW43523   9.614   1.159   7.336  0.1433  0.2299 -0.1648
43933SOL    HW143524   9.594   1.067   7.316 -1.1431 -0.1774  2.5587
43933SOL    HW243525   9.683   1.182   7.274 -1.1025 -1.8295 -2.5105
43934SOL     OW43526   2.099   8.388   0.305  0.5692 -0.0002 -0.0602
43934SOL    HW143527   2.191   8.362   0.303  0.7918  0.6635  0.6546
43934SOL    HW243528   2.076   8.387   0.398 -0.3677 -0.8556 -0.2815
43935SOL     OW43529   4.029   8.490  12.435 -0.2588 -0.4495 -0.0007
43935SOL    HW143530   3.943   8.465  12.468  0.6119 -1.6382  1.5200
43935SOL    HW243531   4.017   8.498  12.341 -2.4017  1.0913  0.3403
43936SOL     OW43532   8.498   7.603   1.204  0.0141  0.1168 -0.2272
43936SOL    HW143533   8.438   7.585   1.132 -0.7027  3.3934 -0.5963
43936SOL    HW243534   8.445   7.594   1.283 -0.2955  0.5062 -0.3888
43937SOL     OW43535  11.199  12.415   4.082  0.3975 -0.4298 -0.7191
43937SOL    HW143536  11.122  12.396   4.030 -2.2946  1.3952  2.2469
43937SOL    HW243537  11.221  12.506   4.060 -1.0317  0.5121  1.3974
43938SOL     OW43538   5.737   8.787   7.133  0.2160  0.1130 -0.3930
43938SOL    HW143539   5.709   8.861   7.078  1.9934 -0.1050 -1.6808
43938SOL    HW243540   5.757   8.826   7.218 -0.5406  0.8185 -0.5329
43939SOL     OW43541  11.255   2.742   6.957  0.0034  0.2656  0.4741
43939SOL    HW143542  11.263   2.680   7.029 -3.9120  0.5395  1.3908
43939SOL    HW243543  11.249   2.827   7.000 -1.7601  0.4961 -0.1446
43940SOL     OW43544   2.214  12.292   7.610  0.1325  0.1408 -0.2742
43940SOL    HW143545   2.185  12.368   7.560 -0.8787  0.3367  0.5744
43940SOL    HW243546   2.133  12.253   7.644  0.7829  0.3517  1.6566
43941SOL     OW43547  13.311   7.922   3.699  0.3217 -0.0594  0.4270
43941SOL    HW143548  13.246   7.960   3.758  0.6737 -1.7572  1.9788
43941SOL    HW243549  13.264   7.852   3.654  0.5674 -0.0272  0.1189
43942SOL     OW43550  11.642   5.784   3.195 -0.5430 -0.4155 -0.5719
43942SOL    HW143551  11.587   5.848   3.241  0.1783 -0.2264  0.0369
43942SOL    HW243552  11.592   5.702   3.201 -0.0872 -0.6063  1.3346
43943SOL     OW43553  11.358   7.430   6.387 -0.1563  0.1682  0.1988
43943SOL    HW143554  11.396   7.390   6.465  0.6923  0.9305  0.1868
43943SOL    HW243555  11.280   7.476   6.419 -0.7261 -0.8474  0.3249
43944SOL     OW43556  10.280   9.657   0.475 -0.0989 -0.1616 -0.0310
43944SOL    HW143557  10.349   9.642   0.540  0.7447 -0.0065 -0.8797
43944SOL    HW243558  10.323   9.704   0.404 -1.0486 -0.1917 -0.6474
43945SOL     OW43559  12.117   3.828   7.136 -0.2382 -0.0645  0.1075
43945SOL    HW143560  12.067   3.829   7.218 -4.8837  0.2315 -2.3604
43945SOL    HW243561  12.169   3.908   7.138  0.4759 -0.4900  3.0247
43946SOL     OW43562   7.911  10.705  13.066 -0.1480 -0.0896  0.1681
43946SOL    HW143563   7.934  10.798  13.079  0.9027 -0.3099  0.0103
43946SOL    HW243564   7.869  10.702  12.980 -0.1120  0.2295  0.1384
43947SOL     OW43565   6.272   4.779   6.958  0.2812 -0.7122  0.0034
43947SOL    HW143566   6.214   4.829   6.902  0.2223 -0.8168 -0.0284
43947SOL    HW243567   6.221   4.702   6.983  0.5553 -1.0109 -0.3622
43948SOL     OW43568   0.729   5.787   9.615  0.0623 -0.4513 -0.2409
43948SOL    HW143569   0.776   5.837   9.548 -0.1452 -0.7179 -0.5872
43948SOL    HW243570   0.728   5.844   9.691 -0.3832  0.1676 -0.7064
43949SOL     OW43571  10.616  12.868   3.565 -0.0684  0.8344  0.5739
43949SOL    HW143572  10.653  12.917   3.492  1.1374  0.1611  0.7110
43949SOL    HW243573  10.586  12.786   3.526 -0.0495  0.7580  0.7187
43950SOL     OW43574   9.926   9.785  11.017 -0.3438 -0.0847 -0.2080
43950SOL    HW143575   9.843   9.786  10.969 -0.4390  2.5760 -0.1546
43950SOL    HW243576   9.937   9.876  11.046  2.7096 -0.3043 -0.3965
43951SOL     OW43577   1.279   7.341   3.691  0.2114 -0.5281  0.2150
43951SOL    HW143578   1.372   7.350   3.668 -0.4353  0.4703 -2.2646
43951SOL    HW243579   1.264   7.246   3.688  0.8409 -0.6157 -0.7965
43952SOL     OW43580   1.978   9.400   5.730  0.0617 -0.2025  0.1460
43952SOL    HW143581   2.015   9.318   5.763 -1.4274 -1.6165 -1.4837
43952SOL    HW243582   1.884   9.384   5.725 -0.1731  1.2858 -1.0703
43953SOL     OW43583  10.164   3.075   1.581  0.4652  0.0350 -0.0415
43953SOL    HW143584  10.197   3.026   1.656  0.7778 -0.9771 -0.8169
43953SOL    HW243585  10.122   3.153   1.620 -1.9043 -1.8194  1.4349
43954SOL     OW43586  11.025   2.569   2.051 -0.3265 -1.2177 -0.2796
43954SOL    HW143587  10.963   2.640   2.031 -1.3392 -1.8812  0.4344
43954SOL    HW243588  11.099   2.585   1.992 -0.4223  0.5644  0.0233
43955SOL     OW43589  12.652   8.480  11.490 -0.6266  0.0396 -0.6232
43955SOL    HW143590  12.722   8.426  11.525 -0.7725  1.0048  1.3019
43955SOL    HW243591  12.618   8.527  11.566 -2.5664  0.4942 -1.7137
43956SOL     OW43592  13.205  12.947   6.762 -0.3429 -0.9557 -0.5807
43956SOL    HW143593  13.228  13.008   6.832  0.8214  0.7714 -2.3620
43956SOL    HW243594  13.221  12.860   6.799  1.4685 -0.0619  0.8907
43957SOL     OW43595   5.201   7.679   8.709 -0.4770  0.5400  0.5437
43957SOL    HW143596   5.134   7.615   8.684 -0.7003  1.8084 -2.6650
43957SOL    HW243597   5.280   7.627   8.721 -0.5066 -0.4581 -2.5304
43958SOL     OW43598  10.265   0.935   1.481  0.9158  0.4963  0.3732
43958SOL    HW143599  10.321   0.857   1.488  0.6138  0.2923  0.5057
43958SOL    HW243600  10.195   0.909   1.422  0.8827  0.7122  0.3156
43959SOL     OW43601   9.077  13.722   4.534  0.0948  0.4437 -0.3403
43959SOL    HW143602   9.135  13.767   4.597 -0.9890 -0.2833  1.2578
43959SOL    HW243603   9.123  13.642   4.512 -0.3777 -0.2919  1.1861
43960SOL     OW43604   2.904  12.295   5.854 -0.7107 -0.2221 -0.2937
43960SOL    HW143605   2.942  12.366   5.907  0.8584 -1.3000  0.1114
43960SOL    HW243606   2.912  12.217   5.910 -3.8544 -0.4975 -0.0890
43961SOL     OW43607   4.163   3.794  10.124 -0.0412  0.1749 -0.5408
43961SOL    HW143608   4.170   3.715  10.071  1.8044 -0.5564  0.6941
43961SOL    HW243609   4.242   3.844  10.103 -1.2880  1.8484 -1.4720
43962SOL     OW43610   2.228  11.436  12.004  0.2143  0.7039  0.4937
43962SOL    HW143611   2.165  11.364  12.012  0.8035  0.2672  1.4484
43962SOL    HW243612   2.215  11.470  11.916  1.1624 -1.7324 -0.6740
43963SOL     OW43613   5.857  11.134   1.638  0.3640 -0.1628  0.4416
43963SOL    HW143614   5.886  11.055   1.594 -0.5591 -0.3791  0.1961
43963SOL    HW243615   5.780  11.162   1.589 -0.3625 -0.1039  1.5685
43964SOL     OW43616   9.051   5.745   9.637 -0.2289  0.0308  0.0203
43964SOL    HW143617   8.964   5.726   9.670 -0.6905 -0.3185 -1.3236
43964SOL    HW243618   9.103   5.667   9.657 -0.6978 -0.4775 -0.7069
43965SOL     OW43619  11.913  12.824   4.990 -0.1572 -0.2745  0.3065
43965SOL    HW143620  11.987  12.850   5.045  1.9177  1.2493 -2.8736
43965SOL    HW243621  11.925  12.730   4.978  2.2935  0.1278 -1.2819
43966SOL     OW43622   0.371   3.132  10.953 -0.1428  0.2023 -0.0698
43966SOL    HW143623   0.380   3.132  11.048  0.7178 -0.9102 -0.1389
43966SOL    HW243624   0.318   3.055  10.934  1.9005 -1.1125 -0.6553
43967SOL     OW43625   0.310   9.151   0.493  0.3750 -0.3659 -0.4079
43967SOL    HW143626   0.391   9.143   0.544  1.6183  1.4090 -1.9305
43967SOL    HW243627   0.265   9.227   0.531  0.0077 -0.6194 -0.3283
43968SOL     OW43628   2.106   3.319   4.989  0.9602 -0.1666 -0.7911
43968SOL    HW143629   2.031   3.306   5.048 -0.1921  1.5247 -1.8055
43968SOL    HW243630   2.181   3.288   5.039 -0.2600 -0.7959  0.7353
43969SOL     OW43631   1.441   9.098   4.914  0.1809 -0.2513  0.0626
43969SOL    HW143632   1.374   9.121   4.850 -1.1258  1.0440  1.7783
43969SOL    HW243633   1.523   9.101   4.865 -0.9114 -1.2231 -1.9499
43970SOL     OW43634   9.108   4.320   0.443  0.0203 -0.5804  0.5015
43970SOL    HW143635   9.128   4.373   0.366 -0.1463 -1.2586 -0.0191
43970SOL    HW243636   9.185   4.264   0.455 -0.4130 -1.2720  0.1357
43971SOL     OW43637   5.207   2.303  10.222  0.9193  0.0065 -0.6309
43971SOL    HW143638   5.174   2.270  10.138 -1.4027  2.5437 -0.8915
43971SOL    HW243639   5.282   2.357  10.199  1.6861 -1.0955 -0.7708
43972SOL     OW43640   0.770   0.669  11.801  0.0505 -0.6518 -0.5917
43972SOL    HW143641   0.844   0.650  11.743  2.0609 -0.0918  1.6549
43972SOL    HW243642   0.801   0.645  11.888 -2.4949 -0.5043  0.4208
43973SOL     OW43643  11.905   7.952   7.045  0.0770  0.5544  0.4693
43973SOL    HW143644  11.986   7.963   7.095  1.2142  2.8708 -1.6467
43973SOL    HW243645  11.854   8.031   7.063 -0.3397  0.5362 -0.5146
43974SOL     OW43646   6.684  13.584  11.643  0.5048  0.3253 -0.1461
43974SOL    HW143647   6.610  13.540  11.685  1.6145 -0.3123  1.2248
43974SOL    HW243648   6.743  13.513  11.618  0.1732  0.7461 -2.2615
43975SOL     OW43649  13.159   1.357   8.832  0.0804  0.3917 -0.2042
43975SOL    HW143650  13.106   1.342   8.754  0.3022  0.0489 -0.2928
43975SOL    HW243651  13.213   1.278   8.840 -0.0471  0.3599  0.3841
43976SOL     OW43652   0.874  10.422  13.398 -0.0874  0.7030 -0.0388
43976SOL    HW143653   0.827  10.376  13.468  1.3450 -0.0010  0.4970
43976SOL    HW243654   0.897  10.506  13.437 -1.1588  1.1914 -0.4192
43977SOL     OW43655   9.432  11.156   2.131  0.3740 -0.0381  0.3506
43977SOL    HW143656   9.409  11.115   2.215  1.2184 -0.4538  0.3836
43977SOL    HW243657   9.350  11.157   2.082  0.2253 -1.3939  0.5157
43978SOL     OW43658   3.324  11.240   6.971 -0.2286 -0.0266  0.4464
43978SOL    HW143659   3.340  11.226   6.877  0.7391  1.8223  0.2953
43978SOL    HW243660   3.233  11.270   6.976  0.3336  1.8882 -0.1694
43979SOL     OW43661   0.358  12.561  12.807  0.3336 -0.6609  0.1530
43979SOL    HW143662   0.387  12.523  12.724  0.2971 -0.1968 -0.0765
43979SOL    HW243663   0.350  12.487  12.866  5.6324 -0.6158  1.4234
43980SOL     OW43664   7.062  10.323   6.378  0.5351 -0.5278  0.0452
43980SOL    HW143665   6.984  10.351   6.330  1.3548  0.4096 -0.7744
43980SOL    HW243666   7.070  10.387   6.449  2.1193  1.1383 -1.5298
43981SOL     OW43667   2.442  12.687   2.418  0.1540 -0.4171 -0.0818
43981SOL    HW143668   2.426  12.602   2.377  0.2359 -1.2749  1.5937
43981SOL    HW243669   2.537  12.693   2.425  0.1604 -0.0583 -0.4296
43982SOL     OW43670   1.174   7.557   9.963 -0.3239  0.0174 -0.4291
43982SOL    HW143671   1.181   7.590   9.873  0.5195 -1.1240 -0.7998
43982SOL    HW243672   1.257   7.584  10.005  0.0144 -0.8964 -0.4969
43983SOL     OW43673   6.884   2.205   3.909  0.2380  0.2321 -0.7887
43983SOL    HW143674   6.798   2.164   3.915  1.1664 -1.5894  1.6085
43983SOL    HW243675   6.934   2.147   3.851  0.4496  0.0940 -0.4712
43984SOL     OW43676   5.934   6.222  11.725  0.5481 -0.5491  0.6478
43984SOL    HW143677   5.864   6.254  11.782  0.9332 -0.3731  1.0268
43984SOL    HW243678   5.896   6.222  11.637  0.1613 -0.1963  0.8163
43985SOL     OW43679   6.170  11.964  11.639 -0.2260 -0.3143 -0.0558
43985SOL    HW143680   6.084  11.928  11.620  0.1376 -1.0556 -0.3598
43985SOL    HW243681   6.208  11.981  11.553  1.0081 -2.6490 -0.0371
43986SOL     OW43682   3.544   7.889   0.490  0.1107 -0.4619 -0.3462
43986SOL    HW143683   3.603   7.956   0.523 -0.6843  0.3123 -0.4690
43986SOL    HW243684   3.563   7.883   0.396  0.3366 -0.5768 -0.2944
43987SOL     OW43685   0.753   1.147   8.588 -0.1813 -0.8074 -0.5596
43987SOL    HW143686   0.764   1.082   8.658 -0.8573 -0.1461  0.1789
43987SOL    HW243687   0.659   1.154   8.576 -0.2154  1.1128  0.4352
43988SOL     OW43688  11.243   7.933   4.735 -0.1573  0.7075 -0.2474
43988SOL    HW143689  11.200   7.888   4.663 -0.1726  0.7892 -0.2898
43988SOL    HW243690  11.297   8.000   4.693  0.7204  0.0230 -0.2430
43989SOL     OW43691  11.632   2.314   2.655  0.0565 -0.1745  0.0595
43989SOL    HW143692  11.558   2.262   2.684  0.3926 -0.8782 -0.3189
43989SOL    HW243693  11.685   2.254   2.602 -0.2507  0.9065 -1.5540
43990SOL     OW43694   0.045  13.029  10.160  0.3580 -0.0153  0.1335
43990SOL    HW143695  -0.004  13.072  10.231 -1.5140  0.9982 -1.6543
43990SOL    HW243696   0.028  12.936  10.172 -1.7998  0.2858 -0.2147
43991SOL     OW43697  13.313   5.536  10.898  0.2263 -0.0700 -0.2482
43991SOL    HW143698  13.271   5.612  10.939  1.9059  1.2176 -0.7988
43991SOL    HW243699  13.322   5.473  10.969  0.4486  0.9838  0.6940
43992SOL     OW43700   0.455   7.669   3.787 -0.1045 -0.4655  0.5148
43992SOL    HW143701   0.441   7.635   3.875  0.5843 -1.6772  0.1836
43992SOL    HW243702   0.547   7.697   3.786 -0.2444  0.0009  0.3268
43993SOL     OW43703   4.720   1.193   8.061  0.1360 -0.7380  0.6455
43993SOL    HW143704   4.745   1.125   8.123  2.7831  0.5281  1.0987
43993SOL    HW243705   4.661   1.250   8.112 -1.7178 -2.3567  0.3975
43994SOL     OW43706   2.617  12.320   5.795 -0.5286  0.1659 -0.1130
43994SOL    HW143707   2.575  12.404   5.776  1.1889  0.6382 -2.1636
43994SOL    HW243708   2.687  12.342   5.857 -0.4845  0.1313 -0.1508
43995SOL     OW43709   0.193   8.535  12.721 -0.0354  0.1447  0.3306
43995SOL    HW143710   0.250   8.609  12.743  0.4955 -0.5643  1.4202
43995SOL    HW243711   0.106   8.562  12.749  0.2477  0.1600  1.2232
43996SOL     OW43712   0.960   0.531   5.385 -0.1405  0.2798 -0.3646
43996SOL    HW143713   0.969   0.616   5.428 -0.8845  0.6911 -0.9940
43996SOL    HW243714   0.881   0.493   5.423  1.4649 -1.2203  1.6712
43997SOL     OW43715   3.363   7.415  13.278 -0.0870  0.2670 -0.2155
43997SOL    HW143716   3.422   7.385  13.348  0.6759 -1.8209 -1.6797
43997SOL    HW243717   3.400   7.500  13.252  0.1094  0.6931  1.3014
43998SOL     OW43718   2.400   6.877   1.498  0.3823 -0.6318  0.1611
43998SOL    HW143719   2.452   6.812   1.450 -2.9696 -3.8397  0.3988
43998SOL    HW243720   2.323   6.891   1.442  0.6280  2.7085  0.4956
43999SOL     OW43721  12.234   9.076   6.179  0.5025 -0.2704  0.6193
43999SOL    HW143722  12.150   9.048   6.216 -0.8677  1.8222 -0.7192
43999SOL    HW243723  12.273   9.131   6.247  0.4514 -0.6494  0.9602
44000SOL     OW43724   7.090  11.437   9.483  0.1439 -0.0409  0.0745
44000SOL    HW143725   7.015  11.495   9.469 -0.0822 -0.3444  0.0147
44000SOL    HW243726   7.058  11.371   9.545  0.5152  0.1121  0.4397
44001SOL     OW43727  11.821   8.477  13.377  0.8352  0.1908 -0.6396
44001SOL    HW143728  11.860   8.512  13.297 -0.0612 -0.0109 -1.1799
44001SOL    HW243729  11.727   8.490  13.366  0.7352  0.8621  0.7247
44002SOL     OW43730  10.268   6.308   5.361 -0.3261 -0.4565  0.2819
44002SOL    HW143731  10.178   6.334   5.340  0.0257  0.2917 -0.3336
44002SOL    HW243732  10.258   6.244   5.432 -1.4829 -2.2517 -1.3889
44003SOL     OW43733   4.878   4.744   0.086 -0.4822 -0.3829 -0.4367
44003SOL    HW143734   4.938   4.674   0.112 -1.3236 -0.8988  0.1730
44003SOL    HW243735   4.907   4.819   0.138 -0.2495 -0.5776 -0.2772
44004SOL     OW43736   4.246  12.507   8.178  0.2468 -0.3192 -0.4548
44004SOL    HW143737   4.229  12.600   8.163  0.3584 -0.2589 -0.2173
44004SOL    HW243738   4.164  12.475   8.216  0.0347 -0.4274 -0.9896
44005SOL     OW43739  12.764   0.268   6.240 -0.4528  0.1380 -0.4624
44005SOL    HW143740  12.808   0.249   6.157  1.2418 -0.2098  0.4625
44005SOL    HW243741  12.721   0.353   6.225 -0.2649  0.0397 -1.7104
44006SOL     OW43742   9.213   7.422   9.411  0.3099  0.1820  0.5328
44006SOL    HW143743   9.307   7.415   9.421  0.3652  1.2334  0.8738
44006SOL    HW243744   9.198   7.514   9.388 -0.6130 -0.0162  0.2843
44007SOL     OW43745   9.644   5.206   6.640 -0.3860 -0.8712 -0.2832
44007SOL    HW143746   9.680   5.279   6.590  0.2919  0.5150  2.0654
44007SOL    HW243747   9.570   5.175   6.588  0.1762  0.5593 -2.0248
44008SOL     OW43748  13.228   2.603   9.234 -0.2960  0.5816 -0.4799
44008SOL    HW143749  13.159   2.542   9.258 -0.9694  1.1247 -1.0217
44008SOL    HW243750  13.282   2.610   9.313 -1.1142  0.5033  0.0959
44009SOL     OW43751   8.590   8.394   3.879 -0.2147 -0.0387  0.8887
44009SOL    HW143752   8.618   8.428   3.793 -2.9573 -0.5893 -0.3240
44009SOL    HW243753   8.586   8.472   3.935 -1.4163  0.8736 -0.4016
44010SOL     OW43754   1.685   0.111  13.356 -0.2340 -0.4963 -0.2188
44010SOL    HW143755   1.640   0.194  13.376  0.9632  0.1885 -0.2420
44010SOL    HW243756   1.699   0.070  13.441  1.0002  0.3429  0.0178
44011SOL     OW43757  11.973   1.605   6.343  0.5609  0.1875 -0.0770
44011SOL    HW143758  11.956   1.649   6.260  1.2413  0.5739 -0.0178
44011SOL    HW243759  11.915   1.647   6.406  0.8439  0.6661 -0.1283
44012SOL     OW43760   9.584   5.126  13.034  0.0848  0.3426  0.1015
44012SOL    HW143761   9.544   5.043  13.007 -2.4609  1.7833 -0.9287
44012SOL    HW243762   9.558   5.136  13.125 -2.3099  1.3447 -0.5973
44013SOL     OW43763  11.517  13.244  13.312 -0.0439  0.6334 -0.5684
44013SOL    HW143764  11.575  13.292  13.253  1.1025 -1.4091 -1.2214
44013SOL    HW243765  11.561  13.160  13.325 -2.3926 -0.6305 -0.2723
44014SOL     OW43766   7.745  12.081   0.503 -0.6092  0.1119 -0.1391
44014SOL    HW143767   7.834  12.111   0.521  1.0797 -5.1544  2.3021
44014SOL    HW243768   7.700  12.086   0.587 -1.5722 -0.2497 -0.6105
44015SOL     OW43769   6.453   2.870  12.498  0.3494 -0.4666 -0.2944
44015SOL    HW143770   6.377   2.904  12.546  0.5384  0.5031 -0.6583
44015SOL    HW243771   6.523   2.867  12.563  0.4959  0.4626 -0.3909
44016SOL     OW43772   7.808  10.397   5.157 -0.0605 -0.0037 -0.0355
44016SOL    HW143773   7.782  10.460   5.090 -1.4985 -0.2188  0.2931
44016SOL    HW243774   7.726  10.358   5.186  0.6940 -1.0634  0.7209
44017SOL     OW43775   6.482   1.721   5.995  0.1990 -0.1103  0.7595
44017SOL    HW143776   6.496   1.629   6.017 -3.2383 -0.6473  1.3005
44017SOL    HW243777   6.413   1.719   5.929  0.4094  2.0798  0.4088
44018SOL     OW43778   0.302   7.807   5.125 -0.6808 -0.0096  0.1375
44018SOL    HW143779   0.381   7.804   5.178  0.7138  2.7341 -1.5180
44018SOL    HW243780   0.253   7.881   5.161 -0.9093  0.3159 -0.8196
44019SOL     OW43781   4.652   9.526  13.739 -0.2524  0.4617 -0.4690
44019SOL    HW143782   4.651   9.489  13.651  0.6325  0.9952 -0.7184
44019SOL    HW243783   4.590   9.599  13.735  1.9105  2.3610 -1.5417
44020SOL     OW43784   8.303   0.134   3.665  0.0292  0.6504  0.2378
44020SOL    HW143785   8.394   0.127   3.693  0.4186  0.6584 -0.9714
44020SOL    HW243786   8.273   0.044   3.656 -0.2689  0.6442  1.1627
44021SOL     OW43787   6.502   3.834   9.708  0.1080  0.7314  0.2469
44021SOL    HW143788   6.558   3.762   9.680 -0.0362 -0.0556  1.8557
44021SOL    HW243789   6.552   3.914   9.687  0.3929  0.1890 -1.2811
44022SOL     OW43790   5.164  12.445   8.984  0.4525  0.2768 -0.5148
44022SOL    HW143791   5.071  12.450   9.008  0.9080  0.2418  1.3961
44022SOL    HW243792   5.199  12.531   9.007  1.3125 -0.3865  0.7154
44023SOL     OW43793   1.172   3.389  10.500  0.1854 -0.7652  0.2798
44023SOL    HW143794   1.156   3.299  10.530 -0.8660 -0.3662  0.9845
44023SOL    HW243795   1.187   3.380  10.406  2.0242 -1.8758  0.6185
44024SOL     OW43796   4.127   7.685  12.013 -0.0664  0.4652  0.2108
44024SOL    HW143797   4.205   7.630  12.026  0.0746  0.1356 -1.8023
44024SOL    HW243798   4.092   7.658  11.929 -1.4583  1.7385  0.3392
44025SOL     OW43799   0.245   8.900   0.617  0.4427 -0.3458 -0.7958
44025SOL    HW143800   0.310   8.856   0.562  2.7097  0.9052  0.7102
44025SOL    HW243801   0.227   8.982   0.571  1.0352 -0.0584 -0.5205
44026SOL     OW43802  10.965  13.241   8.035 -0.5382  0.1218 -0.1813
44026SOL    HW143803  11.034  13.265   8.097 -1.0768  0.9833  0.1017
44026SOL    HW243804  11.009  13.239   7.950 -0.1160  0.4290  0.0263
44027SOL     OW43805   1.700  12.218  12.627  0.1385 -0.5043 -0.0779
44027SOL    HW143806   1.604  12.221  12.626  0.0931 -1.0956  0.8708
44027SOL    HW243807   1.727  12.303  12.592 -0.7231 -0.5558 -0.9090
44028SOL     OW43808   6.769  13.580   4.035 -0.3168  0.0181  0.0592
44028SOL    HW143809   6.775  13.675   4.044 -0.7439  0.0310  0.2231
44028SOL    HW243810   6.770  13.564   3.940  0.6440  0.1198  0.0412
44029SOL     OW43811   1.561   0.753   1.778  0.4837 -0.2232  0.5294
44029SOL    HW143812   1.517   0.810   1.714  0.1057 -0.8974  0.1827
44029SOL    HW243813   1.643   0.728   1.735  0.1412 -0.8337  0.2168
44030SOL     OW43814  11.912  11.104  12.271 -0.1240 -0.2320 -0.0194
44030SOL    HW143815  11.922  11.015  12.306  0.2347 -0.4455 -0.6594
44030SOL    HW243816  11.909  11.159  12.349 -0.4819 -0.8157  0.3892
44031SOL     OW43817  12.538   6.941  13.355 -0.2321  0.6397  0.0766
44031SOL    HW143818  12.514   6.923  13.446  0.6824  1.1960  0.4405
44031SOL    HW243819  12.497   6.870  13.305  1.0539 -0.9364  1.1555
44032SOL     OW43820   8.841   9.550   6.434  0.1365 -0.9721  0.3892
44032SOL    HW143821   8.843   9.486   6.505  0.6995 -1.6604 -0.2268
44032SOL    HW243822   8.751   9.547   6.402  0.6137 -3.0067 -0.9671
44033SOL     OW43823   0.678  10.427   8.019  0.6126  0.5691 -0.3244
44033SOL    HW143824   0.674  10.510   7.972  0.4144  0.7075 -0.0685
44033SOL    HW243825   0.642  10.363   7.959  0.0594  0.7972 -0.2381
44034SOL     OW43826   5.922   8.331   6.678  0.3943 -0.4166 -0.0718
44034SOL    HW143827   5.990   8.349   6.613 -0.1183  0.3955 -0.4010
44034SOL    HW243828   5.877   8.414   6.688 -0.9460 -1.0882 -0.3130
44035SOL     OW43829   2.429   9.550   4.256  0.6628  0.2619  0.9951
44035SOL    HW143830   2.487   9.531   4.183 -0.3755 -0.6669  0.3857
44035SOL    HW243831   2.484   9.597   4.319  1.2315  2.4329 -0.9839
44036SOL     OW43832   8.323  13.440   1.364  0.4106  0.4428 -0.0190
44036SOL    HW143833   8.377  13.432   1.286  1.3678  0.3982  0.6300
44036SOL    HW243834   8.312  13.534   1.376 -1.0307  0.4419 -1.0490
44037SOL     OW43835   2.360   7.411   5.570 -0.2608  0.1422  0.0221
44037SOL    HW143836   2.415   7.466   5.627 -0.8724 -0.3117  1.0755
44037SOL    HW243837   2.314   7.473   5.514  1.7155  0.5252 -1.3090
44038SOL     OW43838  10.927   5.524   9.007  0.1068 -0.3407  0.4621
44038SOL    HW143839  10.834   5.503   9.018 -0.6088  2.3191  0.1656
44038SOL    HW243840  10.973   5.449   9.045 -2.1232 -2.0672 -0.0504
44039SOL     OW43841   2.090   2.384   7.165 -0.1061  0.1640  0.2894
44039SOL    HW143842   2.114   2.344   7.249 -0.5195 -0.9371 -0.0965
44039SOL    HW243843   1.994   2.376   7.161 -0.3174  2.0232  0.5874
44040SOL     OW43844   4.287   2.433   4.537  0.1440 -0.5981  0.2856
44040SOL    HW143845   4.195   2.413   4.521 -0.4899  1.3321  1.2503
44040SOL    HW243846   4.333   2.396   4.461 -1.8891  1.7707 -2.3596
44041SOL     OW43847   0.360   4.216   5.688  0.1950 -0.2290 -0.2979
44041SOL    HW143848   0.314   4.296   5.664  1.3049  0.1978 -1.0844
44041SOL    HW243849   0.407   4.238   5.769 -3.0875 -1.4987  2.2321
44042SOL     OW43850   8.878  12.621   0.703  0.3002  0.5266 -0.1789
44042SOL    HW143851   8.821  12.608   0.627 -0.0253 -1.2193  0.3018
44042SOL    HW243852   8.874  12.537   0.749  3.6418  0.1402 -0.3815
44043SOL     OW43853  12.775  13.114   8.964  0.1207 -0.1673  0.2829
44043SOL    HW143854  12.752  13.022   8.982 -1.4533  0.2278  0.4622
44043SOL    HW243855  12.697  13.163   8.988  0.3295  1.0654 -1.3891
44044SOL     OW43856   3.410  12.251   1.520 -0.5676 -0.1721 -0.2789
44044SOL    HW143857   3.316  12.263   1.535 -0.5960 -0.7775  0.0864
44044SOL    HW243858   3.419  12.157   1.502 -0.1291  0.0141 -1.0670
44045SOL     OW43859   1.035   6.784   3.941  0.2817 -0.0796  0.0559
44045SOL    HW143860   0.979   6.790   3.864  1.6670  0.5592 -0.9420
44045SOL    HW243861   1.079   6.868   3.945  0.9318 -0.4507  1.0094
44046SOL     OW43862  12.489   7.014   2.219 -0.1847 -0.2682  0.1521
44046SOL    HW143863  12.444   7.082   2.269  0.8730 -0.1546  1.0036
44046SOL    HW243864  12.505   6.944   2.283  1.1138 -0.1573 -0.0143
44047SOL     OW43865   8.292  10.034  13.182 -0.1384 -0.4952  0.3275
44047SOL    HW143866   8.378  10.067  13.155 -0.3898 -0.6823 -0.7749
44047SOL    HW243867   8.310   9.947  13.218  0.6215  0.9788  3.9053
44048SOL     OW43868  10.661   2.439   9.742 -0.6403 -0.3721 -0.0751
44048SOL    HW143869  10.732   2.444   9.677 -2.4956 -0.5995 -2.2496
44048SOL    HW243870  10.650   2.530   9.771 -0.3568 -0.1061 -0.7617
44049SOL     OW43871   1.909   6.053   0.951 -0.4085 -0.3110  0.4246
44049SOL    HW143872   1.938   6.123   0.893 -0.5214 -1.8811 -1.6132
44049SOL    HW243873   1.968   5.980   0.932 -2.4688 -1.9207 -0.1239
44050SOL     OW43874   5.123   3.125   7.260 -0.0145 -0.0093  0.6455
44050SOL    HW143875   5.084   3.212   7.265  1.5403  0.7430  0.2020
44050SOL    HW243876   5.048   3.066   7.250 -1.0543  1.3337  0.1849
44051SOL     OW43877   5.757   3.027   5.098  0.2007  0.0389  0.1010
44051SOL    HW143878   5.750   3.048   5.191  1.8916  0.6527  0.1259
44051SOL    HW243879   5.731   2.935   5.093 -0.5409  0.1798  1.0748
44052SOL     OW43880   2.175  12.438   8.345  0.7130  0.9262  0.2362
44052SOL    HW143881   2.250  12.379   8.350 -0.6548 -0.8487  1.1377
44052SOL    HW243882   2.162  12.467   8.435 -0.8459 -0.4104  0.4945
44053SOL     OW43883   2.584   1.131  13.389 -0.2355  0.0439  0.1151
44053SOL    HW143884   2.673   1.151  13.361 -0.5366  0.7866 -0.3113
44053SOL    HW243885   2.562   1.200  13.452 -0.8600  0.4214 -0.5074
44054SOL     OW43886   2.680  12.985   4.051  0.5217 -0.0870  1.0296
44054SOL    HW143887   2.712  12.895   4.058  0.6746 -0.4252 -2.3518
44054SOL    HW243888   2.585  12.977   4.053  0.5413 -0.2791  1.1693
44055SOL     OW43889   5.378   1.779   5.571  0.1836  0.1703 -0.2125
44055SOL    HW143890   5.352   1.703   5.520 -1.3757  1.3753 -1.2922
44055SOL    HW243891   5.369   1.751   5.662  0.6744 -1.2387 -0.5717
44056SOL     OW43892   4.434   0.318   4.945 -0.4016 -0.2046  0.9026
44056SOL    HW143893   4.467   0.242   4.991 -2.5660 -0.8133  1.5736
44056SOL    HW243894   4.388   0.369   5.012 -2.3357 -0.3581 -0.2085
44057SOL     OW43895   1.387  10.772  13.172 -0.3890  0.4085 -0.2858
44057SOL    HW143896   1.347  10.790  13.257 -0.5978  2.0399 -0.7016
44057SOL    HW243897   1.481  10.772  13.189 -0.4424  0.2685  0.0237
44058SOL     OW43898  10.234  13.497   8.009 -0.2808  0.0198  0.2466
44058SOL    HW143899  10.273  13.472   8.093  0.4910  0.2859 -0.0225
44058SOL    HW243900  10.297  13.559   7.972 -0.5559 -0.1958 -0.5852
44059SOL     OW43901  12.204  13.365   5.350 -0.2818  0.2177  0.1009
44059SOL    HW143902  12.186  13.412   5.431  0.2543  0.2769  0.1900
44059SOL    HW243903  12.204  13.273   5.375  0.9260  0.2796  0.3933
44060SOL     OW43904   6.432   0.598   2.928  0.5641  0.0887  0.8243
44060SOL    HW143905   6.432   0.513   2.884  1.5147 -0.1908  1.3354
44060SOL    HW243906   6.479   0.657   2.868  3.0858 -0.6138  1.9876
44061SOL     OW43907  11.583   0.231   5.562  0.3546  0.1907  0.3678
44061SOL    HW143908  11.587   0.246   5.657 -0.6264 -0.3000  0.4984
44061SOL    HW243909  11.523   0.297   5.530  0.1519 -0.0803  0.1877
44062SOL     OW43910   3.863  10.957   3.424  0.1763 -0.1554 -0.4459
44062SOL    HW143911   3.935  10.894   3.419  0.9792  0.7427 -0.5216
44062SOL    HW243912   3.814  10.931   3.501  0.7148 -0.6523 -0.2608
44063SOL     OW43913   1.672   1.306  12.479 -0.0903  0.3484  0.1797
44063SOL    HW143914   1.699   1.261  12.400 -0.6967 -1.2151  0.8218
44063SOL    HW243915   1.639   1.237  12.536 -1.2788  1.6337  1.1311
44064SOL     OW43916   8.223   5.634   1.032  0.0135 -0.2613  0.0957
44064SOL    HW143917   8.216   5.598   1.121  2.4093 -2.1113 -0.3593
44064SOL    HW243918   8.178   5.570   0.977  0.3516 -0.1963 -0.2556
44065SOL     OW43919  12.573   8.280  11.937 -0.2076 -0.1947 -0.1177
44065SOL    HW143920  12.632   8.278  11.862 -0.0810 -1.1398 -0.0058
44065SOL    HW243921  12.629   8.306  12.011 -0.0133 -0.7159 -0.0811
44066SOL     OW43922  11.722   4.619   3.929  0.3891  0.2887  0.0943
44066SOL    HW143923  11.645   4.666   3.898  1.0486  1.4561  0.1745
44066SOL    HW243924  11.728   4.640   4.022  1.2531  0.8574 -0.0822
44067SOL     OW43925   8.035   7.759   7.342 -0.0193  0.3878 -0.4154
44067SOL    HW143926   7.971   7.818   7.302  0.7966  0.1134 -2.2105
44067SOL    HW243927   8.107   7.755   7.279  1.2512 -0.2437  1.0092
44068SOL     OW43928  13.354  11.400   3.233 -0.2627 -0.1166 -0.6490
44068SOL    HW143929  13.372  11.429   3.322 -2.0234  0.4067 -0.4202
44068SOL    HW243930  13.414  11.450   3.178  0.8055 -0.4026  0.2160
44069SOL     OW43931  12.227  10.570   1.255 -0.3573  0.1074 -0.4157
44069SOL    HW143932  12.181  10.503   1.305 -1.1947  1.5196  0.7907
44069SOL    HW243933  12.222  10.649   1.309 -2.0342  1.9625 -2.9935
44070SOL     OW43934   3.952  11.063   8.149  0.0629  0.1029 -0.0104
44070SOL    HW143935   4.013  11.112   8.204 -0.5524  1.1068 -0.2022
44070SOL    HW243936   3.896  11.129   8.109 -2.1159 -0.8504  1.2766
44071SOL     OW43937   5.408   3.663   9.216 -0.0802 -0.0198 -0.4448
44071SOL    HW143938   5.327   3.615   9.232 -0.3699  0.2608 -1.0469
44071SOL    HW243939   5.420   3.659   9.122  0.4118  0.2583 -0.3945
44072SOL     OW43940   0.859   1.059   4.714  0.1561  0.8290  0.4268
44072SOL    HW143941   0.908   1.013   4.782  0.8819  1.2004  0.1705
44072SOL    HW243942   0.769   1.059   4.745  0.6062  1.8372  1.8737
44073SOL     OW43943   1.555  13.613   7.042 -0.6934  1.0937 -0.3431
44073SOL    HW143944   1.536  13.653   7.126  2.1828 -1.9507  2.0637
44073SOL    HW243945   1.548  13.519   7.058  0.0009  0.3741 -3.5226
44074SOL     OW43946   3.673   0.069   0.558 -0.2434 -0.9105 -0.2230
44074SOL    HW143947   3.670   0.010   0.482 -1.9369 -1.6652  0.3612
44074SOL    HW243948   3.679   0.011   0.633 -0.5406 -0.2824  0.3010
44075SOL     OW43949   8.879  11.026   0.960 -0.0373  0.5482 -1.1576
44075SOL    HW143950   8.828  10.952   0.927  0.6904  0.0422 -1.1825
44075SOL    HW243951   8.836  11.051   1.041  0.0955 -0.3458 -0.7983
44076SOL     OW43952  12.593  10.698   6.931  0.1212 -0.6216  0.1751
44076SOL    HW143953  12.638  10.780   6.951  0.4955 -0.4485 -1.2361
44076SOL    HW243954  12.500  10.720   6.939  0.2304 -0.8119  2.4700
44077SOL     OW43955   7.327   0.077   7.379 -0.2751 -0.0169  0.1341
44077SOL    HW143956   7.394   0.144   7.398  0.4034  0.1548 -2.5089
44077SOL    HW243957   7.377   0.000   7.353 -1.1146 -0.7578  0.6418
44078SOL     OW43958   1.081  11.343  11.125  0.0990 -0.3022 -0.5870
44078SOL    HW143959   1.013  11.278  11.142 -1.8692  1.3571 -1.6255
44078SOL    HW243960   1.130  11.348  11.207 -2.3052 -0.1809  0.9462
44079SOL     OW43961  10.249   9.913   3.985 -0.7816  0.2353  0.0551
44079SOL    HW143962  10.302   9.855   4.039 -0.4916  1.0019  0.6187
44079SOL    HW243963  10.175   9.936   4.042  0.1854  2.0848  0.6677
44080SOL     OW43964  11.233   9.776   4.252 -0.1329 -0.3617  0.2701
44080SOL    HW143965  11.194   9.863   4.261 -1.2074 -0.9694  1.8228
44080SOL    HW243966  11.314   9.781   4.304  0.4529  0.0515 -0.6520
44081SOL     OW43967  12.316  13.299   7.935  0.0428  0.2923 -0.4661
44081SOL    HW143968  12.279  13.225   7.886 -1.8877  1.8593 -1.5279
44081SOL    HW243969  12.240  13.342   7.974  1.1777  1.4059  0.6112
44082SOL     OW43970   3.651   9.975   8.195  0.3207  0.1910 -0.4173
44082SOL    HW143971   3.556   9.977   8.208  0.4277  0.7524  0.4076
44082SOL    HW243972   3.673  10.063   8.164  0.7814  0.6964  1.2295
44083SOL     OW43973   8.904   6.462   5.874 -0.2791  0.0226 -0.4066
44083SOL    HW143974   8.904   6.408   5.794 -1.8234  0.0686 -0.4694
44083SOL    HW243975   8.993   6.454   5.908  0.1654 -0.7092 -1.6601
44084SOL     OW43976  13.743  13.042   4.595 -0.2372  0.6401  0.1695
44084SOL    HW143977  13.761  13.123   4.546  1.9333 -0.2307 -0.5758
44084SOL    HW243978  13.761  13.065   4.686 -1.8524  1.5857  0.2884
44085SOL     OW43979   6.626   8.579  12.130  0.0008  0.4029 -0.0417
44085SOL    HW143980   6.611   8.661  12.178  0.7312  1.0006 -0.8111
44085SOL    HW243981   6.606   8.600  12.039  1.5734  0.1351 -0.4733
44086SOL     OW43982   0.976   3.484  13.117 -0.1463 -0.0118  0.3621
44086SOL    HW143983   1.034   3.544  13.070  0.4786 -0.7623  0.1600
44086SOL    HW243984   1.031   3.443  13.183 -0.9660  0.8758  1.6477
44087SOL     OW43985   5.531   2.362  13.369 -0.1526 -0.1940 -0.4054
44087SOL    HW143986   5.554   2.377  13.277  0.8577  2.4233  0.1770
44087SOL    HW243987   5.590   2.293  13.398 -0.1412 -0.6959 -1.5747
44088SOL     OW43988   7.266   9.114   6.650  0.7010  0.0140  0.5337
44088SOL    HW143989   7.255   9.117   6.555 -2.0284 -2.9978  0.5582
44088SOL    HW243990   7.357   9.140   6.665  2.0101 -1.7217 -3.1651
44089SOL     OW43991   1.464  11.156   6.300 -0.1386  0.5021  0.3269
44089SOL    HW143992   1.387  11.213   6.307 -0.7235 -0.2864  0.3774
44089SOL    HW243993   1.483  11.131   6.390 -0.2425  0.1507  0.2529
44090SOL     OW43994   4.920   1.126   9.654  0.3095  0.5045  0.1144
44090SOL    HW143995   4.953   1.184   9.586  2.2019  1.7618  1.9626
44090SOL    HW243996   4.998   1.089   9.694 -0.7828 -1.1884  0.8076
44091SOL     OW43997  12.635  12.430  10.459 -0.5046  0.4245 -0.6895
44091SOL    HW143998  12.584  12.473  10.527  0.2708 -0.5604  0.5735
44091SOL    HW243999  12.619  12.337  10.472  2.8649 -0.1022  0.9655
44092SOL     OW44000   0.592   0.815   3.359  0.0114 -0.0661 -0.2617
44092SOL    HW144001   0.633   0.761   3.426 -0.7079  2.0402  2.0510
44092SOL    HW244002   0.664   0.866   3.322  0.1515  0.3444  0.5427
44093SOL     OW44003   6.341  13.448   0.383  0.1597 -0.5957  0.5194
44093SOL    HW144004   6.421  13.447   0.329  0.1110 -0.7917  0.4488
44093SOL    HW244005   6.341  13.363   0.426 -0.9815 -1.3842 -0.9275
44094SOL     OW44006  12.589  10.180   0.480  0.0663 -0.6982 -0.1787
44094SOL    HW144007  12.544  10.096   0.473 -0.4445 -0.3129 -1.7930
44094SOL    HW244008  12.682  10.158   0.482  0.0090 -1.2440 -2.1634
44095SOL     OW44009  13.225   6.798   5.828 -0.0781  0.1908  0.3856
44095SOL    HW144010  13.188   6.800   5.740  1.6249  1.0636 -0.3645
44095SOL    HW244011  13.156   6.762   5.882 -1.7767  1.1329 -1.0349
44096SOL     OW44012   9.439   3.247  12.568  0.3686 -0.0306 -0.7162
44096SOL    HW144013   9.440   3.342  12.583  1.7448 -0.0809 -0.3361
44096SOL    HW244014   9.405   3.210  12.649  1.5327  0.0689 -0.1498
44097SOL     OW44015   9.901   2.277  11.043 -0.6005  0.0602  0.0144
44097SOL    HW144016   9.931   2.336  10.974 -2.5011  0.6881 -0.3438
44097SOL    HW244017   9.872   2.199  10.997 -0.6130 -0.0624  0.2317
44098SOL     OW44018  10.357   0.112   5.245  0.5331 -0.1646  0.6333
44098SOL    HW144019  10.442   0.156   5.250 -0.2208  1.4294  0.1032
44098SOL    HW244020  10.311   0.156   5.173 -1.4475  0.3153  2.1006
44099SOL     OW44021  12.684   3.884   4.616  0.1414 -0.1177 -0.1281
44099SOL    HW144022  12.764   3.919   4.656 -0.1025 -0.6837  0.8987
44099SOL    HW244023  12.613   3.932   4.657 -0.0972 -0.4868 -0.1010
44100SOL     OW44024   9.286   1.310   1.276 -0.3049  0.3289 -0.4961
44100SOL    HW144025   9.273   1.405   1.284  0.7556  0.3646  1.7553
44100SOL    HW244026   9.377   1.302   1.247 -0.0445  0.0184  0.3773
44101SOL     OW44027   0.349   2.861   9.556 -0.2894 -0.0477 -0.2140
44101SOL    HW144028   0.433   2.888   9.592  0.0842 -0.5137 -0.7049
44101SOL    HW244029   0.332   2.924   9.485 -0.6090  0.3563  0.2178
44102SOL     OW44030   2.797   0.297   3.441  0.5574  0.3814 -0.3592
44102SOL    HW144031   2.758   0.384   3.438 -0.8054 -0.1460  1.0068
44102SOL    HW244032   2.803   0.276   3.534  0.1401 -1.2998 -0.6726
44103SOL     OW44033   7.191   1.385   8.669 -0.2601 -0.0383  0.2890
44103SOL    HW144034   7.141   1.346   8.597  0.8678 -0.1752 -0.4424
44103SOL    HW244035   7.209   1.311   8.728 -1.4448  0.1287  0.8986
44104SOL     OW44036   6.196   0.345   2.951  0.5072 -0.3486  0.1715
44104SOL    HW144037   6.132   0.362   2.882  0.7782  0.9174  0.2118
44104SOL    HW244038   6.276   0.322   2.905  0.6162  0.2371  0.0632
44105SOL     OW44039   2.891   0.922   5.498 -0.2161  0.0786 -0.0403
44105SOL    HW144040   2.976   0.948   5.532 -0.7860  0.7272  0.9511
44105SOL    HW244041   2.871   0.839   5.541 -0.4382  0.3337  0.3530
44106SOL     OW44042   2.155   3.012   9.994 -0.3474 -1.2018  0.3001
44106SOL    HW144043   2.099   3.081   9.958  0.3372 -0.7715  0.0215
44106SOL    HW244044   2.156   3.029  10.088  0.1616 -0.5434  0.1900
44107SOL     OW44045   4.021   0.358  11.381 -0.3865 -0.6511 -0.6113
44107SOL    HW144046   4.078   0.361  11.305 -0.0723  1.6311 -0.3597
44107SOL    HW244047   4.032   0.270  11.416  1.4808 -0.8970 -1.6947
44108SOL     OW44048   6.849   5.062   4.275  0.2666 -0.2159 -1.2494
44108SOL    HW144049   6.780   5.128   4.287  0.2977 -0.4721  0.5903
44108SOL    HW244050   6.866   5.063   4.181 -1.4843  0.6285 -1.6123
44109SOL     OW44051   4.847   4.014   0.036  0.0139 -0.6415  0.0503
44109SOL    HW144052   4.893   4.093   0.009  1.1072 -1.4664 -0.6154
44109SOL    HW244053   4.841   3.961  -0.044  0.9561 -2.0080  0.8418
44110SOL     OW44054   2.412  11.128   5.433 -0.1211 -0.1778  0.4798
44110SOL    HW144055   2.396  11.221   5.444  0.2864 -0.1428  0.8053
44110SOL    HW244056   2.498  11.113   5.473 -0.3440 -0.7597  0.7580
44111SOL     OW44057   3.458   6.619   5.735  0.3681  0.1189 -0.1605
44111SOL    HW144058   3.419   6.702   5.706  0.5917  0.2839 -0.0027
44111SOL    HW244059   3.412   6.598   5.816 -0.8465 -0.7871 -1.0635
44112SOL     OW44060  10.694   8.740   3.207 -0.1615 -0.1002 -0.0357
44112SOL    HW144061  10.782   8.774   3.193 -0.3136  0.9025  1.2368
44112SOL    HW244062  10.700   8.647   3.185  0.7768  0.2916 -1.5812
44113SOL     OW44063   9.965  11.535   6.108 -0.2702 -0.3908  0.4159
44113SOL    HW144064   9.926  11.481   6.177 -1.1727  2.3419  2.2210
44113SOL    HW244065  10.056  11.508   6.105  0.0564 -0.0142  3.4267
44114SOL     OW44066   7.824   2.591   8.213  0.2027 -0.1614 -0.2855
44114SOL    HW144067   7.828   2.683   8.241  0.5759 -0.0966 -0.5413
44114SOL    HW244068   7.849   2.541   8.291 -1.0863 -0.1085  0.1813
44115SOL     OW44069   1.721   1.169  12.990 -0.3649 -0.3474  0.1936
44115SOL    HW144070   1.793   1.216  12.948 -1.0100  1.4703  1.0240
44115SOL    HW244071   1.726   1.080  12.953  0.7814  0.3887 -1.5756
44116SOL     OW44072   8.864  13.645   2.400 -0.0183  0.6930 -0.2539
44116SOL    HW144073   8.874  13.553   2.424 -0.7764  0.3128 -1.2955
44116SOL    HW244074   8.822  13.643   2.314 -0.0802  2.0177 -0.2817
44117SOL     OW44075  11.263   3.637  13.285 -0.0828  0.3550  0.6185
44117SOL    HW144076  11.271   3.624  13.190  0.0618  1.9621  0.3782
44117SOL    HW244077  11.202   3.710  13.294 -1.3270 -0.7853  1.8549
44118SOL     OW44078   2.044   7.476  12.148 -0.4554 -0.6986 -0.4622
44118SOL    HW144079   2.050   7.526  12.230 -0.8173 -1.7515  0.2295
44118SOL    HW244080   2.039   7.543  12.080 -0.4180  0.2068  0.3926
44119SOL     OW44081  10.508   4.537   2.493  0.0581  0.2573 -0.1142
44119SOL    HW144082  10.478   4.503   2.409 -1.0312  1.8858 -0.4357
44119SOL    HW244083  10.604   4.531   2.488  0.0332  0.6680 -1.6415
44120SOL     OW44084  10.426   8.487   9.358  0.1609 -0.4134  0.7458
44120SOL    HW144085  10.479   8.532   9.424  1.1807 -2.1472  1.1594
44120SOL    HW244086  10.485   8.422   9.319 -0.8254 -0.3972 -0.8905
44121SOL     OW44087   9.180   7.958   1.556  0.1388  0.1467  0.1653
44121SOL    HW144088   9.088   7.963   1.532 -0.0476 -0.1469  0.7871
44121SOL    HW244089   9.183   7.888   1.622  1.1877 -1.6674 -1.6765
44122SOL     OW44090  12.411  11.918  12.668 -0.7069  0.1113  0.2342
44122SOL    HW144091  12.451  11.996  12.707 -0.4883 -0.3711  0.9954
44122SOL    HW244092  12.445  11.846  12.720 -0.7957 -0.5108 -0.5589
44123SOL     OW44093   3.223   8.360   1.661  0.4115  0.0991 -0.2040
44123SOL    HW144094   3.199   8.308   1.739 -0.5974  0.9901  0.0976
44123SOL    HW244095   3.215   8.451   1.690 -1.0504  0.4734 -1.6289
44124SOL     OW44096   5.743   2.661   9.463  0.3640 -0.1376 -0.4038
44124SOL    HW144097   5.681   2.679   9.393  1.6507  1.8968 -1.1432
44124SOL    HW244098   5.694   2.675   9.544 -0.4206  0.3607 -0.9573
44125SOL     OW44099   6.435   0.643  12.132 -0.2139 -0.3724 -0.1920
44125SOL    HW144100   6.458   0.583  12.203 -0.5611  0.7873  0.9363
44125SOL    HW244101   6.514   0.650  12.079  0.5255 -0.1601  0.9060
44126SOL     OW44102  13.314   9.732   0.045  0.2953  0.2125 -0.0156
44126SOL    HW144103  13.285   9.758  -0.043 -0.5572  0.5018  0.3340
44126SOL    HW244104  13.348   9.812   0.084  0.7037  0.0764 -0.0908
44127SOL     OW44105  10.364   1.037   2.194 -0.1478  0.3965  0.0958
44127SOL    HW144106  10.402   1.030   2.282 -1.1061  0.0489  0.4915
44127SOL    HW244107  10.388   1.124   2.164  1.2521  0.0739  0.1919
44128SOL     OW44108   9.438   5.146  10.421 -0.1160 -0.4277  0.2804
44128SOL    HW144109   9.509   5.082  10.424  0.8732  0.6659  1.9105
44128SOL    HW244110   9.464   5.214  10.483 -1.5159  1.1656 -0.7685
44129SOL     OW44111   5.855  12.503   7.027 -0.4900 -0.5871  0.1832
44129SOL    HW144112   5.768  12.488   7.062 -0.1834  1.0731  1.8445
44129SOL    HW244113   5.899  12.418   7.033 -1.3287 -0.9559  1.3881
44130SOL     OW44114  11.734  13.583   2.046  0.1500 -0.3495  0.0079
44130SOL    HW144115  11.783  13.599   2.126 -1.2868 -0.7456  1.0142
44130SOL    HW244116  11.654  13.540   2.076  0.2536 -1.8963 -1.7877
44131SOL     OW44117   4.101   9.430   0.170  0.5123 -0.4508  0.0382
44131SOL    HW144118   4.027   9.413   0.229 -0.5851 -1.0604 -1.4387
44131SOL    HW244119   4.107   9.525   0.166 -0.1570 -0.3947  0.2418
44132SOL     OW44120   1.480  10.088   9.484  0.1514 -0.0740 -0.4001
44132SOL    HW144121   1.395  10.043   9.481 -0.3130  0.5265  1.6135
44132SOL    HW244122   1.501  10.091   9.578  0.5103  3.1764 -0.4690
44133SOL     OW44123   7.155  10.505   8.217  0.2913  0.3140  0.2075
44133SOL    HW144124   7.154  10.463   8.302 -1.9892 -0.2182 -0.0262
44133SOL    HW244125   7.129  10.596   8.235  2.2216  0.8772  0.3381
44134SOL     OW44126   4.688   4.445   5.211  0.0976  0.1672  0.3569
44134SOL    HW144127   4.684   4.351   5.192  0.2390  0.4239 -1.1002
44134SOL    HW244128   4.659   4.453   5.302 -0.2594 -1.2504  0.3893
44135SOL     OW44129   8.272   7.142  11.106  0.2820 -0.2158 -0.3326
44135SOL    HW144130   8.332   7.137  11.031  1.0727 -0.6520  0.3107
44135SOL    HW244131   8.220   7.221  11.090  0.8773  0.0528 -1.0196
44136SOL     OW44132   7.687  13.490   8.457 -0.0453  0.5685 -0.6348
44136SOL    HW144133   7.691  13.395   8.445 -1.5795  0.2012  1.3698
44136SOL    HW244134   7.778  13.518   8.448  0.7834 -1.3968  0.8521
44137SOL     OW44135   6.879  11.189   5.048  0.1786 -0.3584  0.8081
44137SOL    HW144136   6.957  11.146   5.084 -0.3763 -2.2417 -0.1558
44137SOL    HW244137   6.825  11.118   5.016 -1.6809  0.9625  0.8828
44138SOL     OW44138   6.000   4.576   3.488  0.0207 -0.1219  0.3248
44138SOL    HW144139   5.974   4.562   3.579  0.5813  1.3444  0.7417
44138SOL    HW244140   6.017   4.670   3.482  0.9994 -0.3476 -1.0290
44139SOL     OW44141  13.005   0.383   7.887 -0.5455 -0.0989  0.5239
44139SOL    HW144142  12.920   0.387   7.932 -0.5961 -2.0729  0.6838
44139SOL    HW244143  13.064   0.347   7.953  0.0731 -0.2020 -0.0874
44140SOL     OW44144   5.458   4.938  10.824 -0.0575  0.2771  0.5470
44140SOL    HW144145   5.394   4.899  10.764 -1.1350 -0.6435  2.2103
44140SOL    HW244146   5.479   5.023  10.785 -2.9128  0.9801  0.3128
44141SOL     OW44147  12.322   4.177   0.943  0.2212 -0.3117 -0.0098
44141SOL    HW144148  12.409   4.213   0.959  0.6625 -0.9982 -0.8344
44141SOL    HW244149  12.285   4.232   0.874 -0.4658  0.6821  1.0913
44142SOL     OW44150   2.558   9.162  10.232  0.5013  0.3257 -0.3748
44142SOL    HW144151   2.513   9.155  10.148 -0.7589 -0.8755  0.3659
44142SOL    HW244152   2.493   9.200  10.292  1.1726  0.5712  0.2246
44143SOL     OW44153   0.142   4.447   5.432 -0.3493 -0.0726 -0.1527
44143SOL    HW144154   0.130   4.401   5.515  0.0797  0.5731  0.2770
44143SOL    HW244155   0.053   4.465   5.401 -0.5248 -1.1088 -0.2932
44144SOL     OW44156  10.657   6.010   9.676  0.4145  0.0380  0.3954
44144SOL    HW144157  10.676   5.945   9.609  1.8366 -1.0456  1.7622
44144SOL    HW244158  10.736   6.064   9.680 -0.6595  1.7692 -0.5601
44145SOL     OW44159   9.377   8.172   3.084  0.1395  0.7647 -0.4410
44145SOL    HW144160   9.467   8.192   3.056  0.0444  1.3671 -0.3357
44145SOL    HW244161   9.368   8.078   3.070  0.3486  0.9104 -1.6983
44146SOL     OW44162  12.999   4.906   2.476 -0.0625  0.0615 -0.1857
44146SOL    HW144163  12.952   4.823   2.473  1.2924 -0.7373  0.0283
44146SOL    HW244164  13.066   4.893   2.543  0.0137  1.4187  0.0328
44147SOL     OW44165   2.779   2.899   9.318 -0.4241  0.0783  0.1922
44147SOL    HW144166   2.852   2.898   9.380 -0.1332  0.9718 -0.1087
44147SOL    HW244167   2.811   2.851   9.242 -1.2742 -2.2376  1.2230
44148SOL     OW44168   9.432   5.597   4.918 -0.3981  0.1379 -0.2713
44148SOL    HW144169   9.411   5.684   4.884  0.8429 -0.3320 -2.4014
44148SOL    HW244170   9.485   5.615   4.997  2.4936  1.4822 -2.3210
44149SOL     OW44171  12.498   3.998   8.595  0.1380 -0.0773  0.1477
44149SOL    HW144172  12.468   3.961   8.512  0.5973  1.7850 -0.8833
44149SOL    HW244173  12.585   4.033   8.576 -0.0294  0.9973  1.2241
44150SOL     OW44174   2.212   4.467   6.095 -0.1217  0.3320  0.2563
44150SOL    HW144175   2.280   4.469   6.162  0.0254  0.2932  0.1067
44150SOL    HW244176   2.190   4.560   6.080  1.4240  0.4884 -1.2587
44151SOL     OW44177   7.695  13.388   5.912 -0.0624  0.3858 -0.6701
44151SOL    HW144178   7.738  13.469   5.885 -0.5073  0.1855 -2.0473
44151SOL    HW244179   7.679  13.341   5.830 -0.5593 -0.7181  0.0406
44152SOL     OW44180   9.090   8.743   9.183  0.5664  0.2475 -0.0352
44152SOL    HW144181   9.012   8.688   9.194 -0.2367  1.4898  0.8749
44152SOL    HW244182   9.145   8.723   9.259  1.2084 -0.7001 -0.7283
44153SOL     OW44183   6.660   4.618   8.619 -0.5747 -0.1838 -0.9491
44153SOL    HW144184   6.605   4.680   8.570 -0.0064 -0.5198 -2.0460
44153SOL    HW244185   6.745   4.623   8.576  0.1419 -0.0265  0.4342
44154SOL     OW44186  12.407   4.121  12.531 -0.1530 -0.3310  0.3158
44154SOL    HW144187  12.401   4.027  12.543  1.8825 -0.6133 -0.3989
44154SOL    HW244188  12.466   4.132  12.456 -0.7331  1.5014  0.0769
44155SOL     OW44189  10.119   8.650   7.514  0.1629  0.0472 -0.1212
44155SOL    HW144190  10.175   8.696   7.450 -1.1918  0.3570 -1.1309
44155SOL    HW244191  10.126   8.702   7.593  0.6773  0.5344 -0.4774
44156SOL     OW44192   9.400   7.858   8.577  0.0324 -0.5468  0.8442
44156SOL    HW144193   9.362   7.822   8.657 -1.2734 -1.7928 -0.2839
44156SOL    HW244194   9.430   7.782   8.528  0.7506  0.1849  0.1150
44157SOL     OW44195   4.186   5.469   5.907  0.0524  0.3797 -0.0907
44157SOL    HW144196   4.279   5.480   5.889  0.1011 -1.5819 -1.3974
44157SOL    HW244197   4.183   5.399   5.973 -0.4833 -1.6218 -2.1000
44158SOL     OW44198  12.397   1.537   8.175  0.3158  0.1488  0.1844
44158SOL    HW144199  12.319   1.593   8.177  0.4702  0.3551  0.8035
44158SOL    HW244200  12.461   1.584   8.229  1.1863  0.4355 -1.0498
44159SOL     OW44201   5.026  12.436   1.640 -0.1858 -0.0964 -0.5185
44159SOL    HW144202   4.978  12.364   1.681  0.7747 -0.2853  0.3066
44159SOL    HW244203   5.096  12.393   1.591 -0.4941  0.2058 -1.2315
44160SOL     OW44204  10.563   4.715  12.638  0.2766  0.4462  0.0451
44160SOL    HW144205  10.650   4.708  12.599  0.1655 -0.1101 -0.1098
44160SOL    HW244206  10.560   4.644  12.702 -0.1527  0.3151 -0.1180
44161SOL     OW44207   9.869  11.178  13.171 -0.1672  0.1077 -0.3536
44161SOL    HW144208   9.774  11.186  13.181  0.0343  0.7890  1.2898
44161SOL    HW244209   9.905  11.244  13.230  1.3418 -0.9434 -0.0483
44162SOL     OW44210  11.640   0.571   1.156  0.8437  0.2605 -0.1825
44162SOL    HW144211  11.690   0.531   1.227 -1.1306 -1.4688  0.3322
44162SOL    HW244212  11.609   0.497   1.103 -1.9110  1.1099  0.0853
44163SOL     OW44213   0.051   1.966   5.707 -0.1973  0.1078 -0.0655
44163SOL    HW144214   0.004   1.890   5.674 -0.1782 -0.0393  0.2443
44163SOL    HW244215   0.106   1.994   5.633  0.0299 -0.3694 -0.0822
44164SOL     OW44216   6.254   5.978   3.039 -0.1205 -0.5131  0.5972
44164SOL    HW144217   6.163   5.976   3.010 -0.2154  1.7186  0.5992
44164SOL    HW244218   6.254   5.933   3.123 -0.9898 -1.5475  0.0690
44165SOL     OW44219   9.032   6.703   8.327 -0.7447  0.2550 -0.5111
44165SOL    HW144220   9.101   6.732   8.267  0.5936 -1.6233  0.0418
44165SOL    HW244221   9.050   6.749   8.409  1.3320 -1.8981  0.3418
44166SOL     OW44222   0.667   9.241   5.202  0.6137 -0.0305 -0.1103
44166SOL    HW144223   0.575   9.247   5.226  0.4812  1.4006 -0.8769
44166SOL    HW244224   0.715   9.267   5.280  0.3667 -0.3450  0.1490
44167SOL     OW44225   8.885   2.314   2.453 -0.3092 -0.2460 -0.5086
44167SOL    HW144226   8.851   2.283   2.369 -0.1209  0.9642 -1.0440
44167SOL    HW244227   8.811   2.359   2.494  0.0111  0.4604 -0.6925
44168SOL     OW44228   2.075   9.503  11.013 -0.5242 -0.1384 -0.2366
44168SOL    HW144229   2.033   9.444  10.951  1.0854 -1.0120 -0.5500
44168SOL    HW244230   2.019   9.501  11.091 -1.5382 -0.5262 -0.9689
44169SOL     OW44231   9.339   9.714   4.575 -0.0862 -0.4189 -0.0335
44169SOL    HW144232   9.295   9.634   4.605 -1.1109  0.6848  1.5964
44169SOL    HW244233   9.425   9.712   4.619 -0.1338 -0.6103  0.0510
44170SOL     OW44234   4.742   3.122   3.582 -0.2041  0.4262 -0.3425
44170SOL    HW144235   4.738   3.108   3.676 -1.6490 -0.5218 -0.5235
44170SOL    HW244236   4.658   3.090   3.548  0.0224  1.3365 -1.8800
44171SOL     OW44237   1.221   9.905  13.416 -0.1488 -0.0741 -0.2607
44171SOL    HW144238   1.245   9.848  13.343 -0.6771  0.0632 -0.5487
44171SOL    HW244239   1.299   9.957  13.432 -0.1590  0.1857 -1.0073
44172SOL     OW44240   5.378   5.818  13.128 -0.1721  0.1267 -0.0407
44172SOL    HW144241   5.374   5.912  13.112  0.9018 -0.4114 -5.0209
44172SOL    HW244242   5.470   5.799  13.143 -0.0490 -0.2819 -1.1766
44173SOL     OW44243   7.429   4.068   5.146 -0.4468 -0.5202 -0.4988
44173SOL    HW144244   7.352   4.120   5.171 -0.3953 -0.3106 -0.7667
44173SOL    HW244245   7.459   4.108   5.064 -0.3152 -0.8820 -0.6274
44174SOL     OW44246  13.453   8.256   3.311 -0.1922 -0.0043 -0.5968
44174SOL    HW144247  13.478   8.309   3.235  0.0932  1.2849  0.3577
44174SOL    HW244248  13.419   8.319   3.374  1.7767 -0.6857  1.2560
44175SOL     OW44249  10.469   5.644   5.257  0.1493 -0.0135  0.4144
44175SOL    HW144250  10.410   5.716   5.234 -1.7419 -1.5592  0.1690
44175SOL    HW244251  10.536   5.645   5.189  0.0067  1.3235  0.2689
44176SOL     OW44252  13.483  11.451   4.605 -0.1866 -0.2026  0.0149
44176SOL    HW144253  13.520  11.404   4.530 -0.3065  0.1285 -0.2574
44176SOL    HW244254  13.545  11.434   4.676  0.8216  0.7851 -0.5768
44177SOL     OW44255   4.288   0.631  11.900 -0.2610 -0.2858  0.3378
44177SOL    HW144256   4.335   0.714  11.887  0.3008 -0.6626 -0.0969
44177SOL    HW244257   4.344   0.582  11.960 -1.0305 -0.0054  1.2891
44178SOL     OW44258   5.325  13.205   4.040  0.2860  0.4272 -0.1214
44178SOL    HW144259   5.281  13.281   4.079  1.6325  0.4195  1.5292
44178SOL    HW244260   5.377  13.168   4.111 -0.4069 -2.1429 -0.8573
44179SOL     OW44261   7.299  12.511   3.888 -0.1535  0.1692  0.2076
44179SOL    HW144262   7.354  12.445   3.930 -2.6532 -1.3438  1.3613
44179SOL    HW244263   7.303  12.490   3.795  0.6674 -0.3277  0.3389
44180SOL     OW44264   3.947  10.386   7.379 -0.0074 -0.6136 -0.2385
44180SOL    HW144265   3.963  10.409   7.471  4.0162 -2.0625 -0.3621
44180SOL    HW244266   3.967  10.292   7.375 -0.6511 -0.7052 -2.5086
44181SOL     OW44267   5.813   1.707   6.380  0.0467  0.1172 -0.0737
44181SOL    HW144268   5.860   1.648   6.322 -0.0810  0.6846 -0.7592
44181SOL    HW244269   5.731   1.662   6.400  0.1958 -0.1816 -0.1363
44182SOL     OW44270   7.127   4.238  10.082  0.7088  0.9543 -0.0404
44182SOL    HW144271   7.204   4.287  10.108  2.2041 -0.6684 -1.2031
44182SOL    HW244272   7.071   4.238  10.160  2.5557  0.9132  1.3485
44183SOL     OW44273   5.921  13.167   7.534  0.3226 -0.4492 -0.4116
44183SOL    HW144274   5.898  13.187   7.443  0.6645  1.5239 -0.1107
44183SOL    HW244275   5.863  13.094   7.558 -1.2555  0.3631 -1.5789
44184SOL     OW44276   5.993   1.301  12.924 -0.1178 -0.2173 -0.0697
44184SOL    HW144277   5.995   1.270  12.834  3.0408  0.0330 -0.1998
44184SOL    HW244278   5.968   1.394  12.917  1.3691  0.1478 -0.8585
44185SOL     OW44279  11.130   8.484   5.417  0.0016 -0.1565  0.7987
44185SOL    HW144280  11.058   8.503   5.357  0.1299 -1.5341  0.1575
44185SOL    HW244281  11.128   8.389   5.426  2.2144 -0.3146  0.1444
44186SOL     OW44282  10.235   3.700   1.904  0.1920  0.3301  0.3856
44186SOL    HW144283  10.220   3.651   1.985 -0.3083 -0.6114 -0.2523
44186SOL    HW244284  10.149   3.731   1.877  0.5187  1.7210  0.8499
44187SOL     OW44285   1.169   4.433   2.394 -0.2179 -0.3656  0.5098
44187SOL    HW144286   1.158   4.469   2.306  0.4712  0.4536  0.7471
44187SOL    HW244287   1.090   4.381   2.409 -1.3259  1.1564  0.1997
44188SOL     OW44288  10.107   3.622   0.578  0.0384 -0.1895 -0.1395
44188SOL    HW144289  10.174   3.688   0.590 -0.9880  1.0935 -1.0933
44188SOL    HW244290  10.140   3.544   0.623  3.6132 -0.6278 -3.0858
44189SOL     OW44291   6.365   6.572   9.860  0.2681  0.0085  0.4804
44189SOL    HW144292   6.402   6.516   9.792 -0.7388 -0.5761  0.3986
44189SOL    HW244293   6.425   6.562   9.934  0.2866 -0.9360  0.3539
44190SOL     OW44294   4.725   4.342  12.703 -0.2405  0.1605 -0.7773
44190SOL    HW144295   4.784   4.286  12.654  2.1900  1.4949  0.4470
44190SOL    HW244296   4.757   4.431  12.686 -0.4552  0.7741  1.7003
44191SOL     OW44297   2.194   1.305   6.677 -0.3288  0.0196  0.3518
44191SOL    HW144298   2.240   1.322   6.595 -1.6221 -0.0776 -0.4163
44191SOL    HW244299   2.128   1.374   6.682 -0.4301 -0.1301  1.1986
44192SOL     OW44300  12.386   0.894   6.280 -0.4474 -0.5065 -0.2505
44192SOL    HW144301  12.399   0.800   6.291 -1.9698 -0.7006  0.2020
44192SOL    HW244302  12.330   0.901   6.202 -0.0175  0.0520 -0.5129
44193SOL     OW44303  11.887   0.332   3.376  0.8820  0.6647  0.4541
44193SOL    HW144304  11.912   0.350   3.467  1.8816 -1.4700  0.6479
44193SOL    HW244305  11.792   0.321   3.379  0.9466  0.2543  1.3187
44194SOL     OW44306   8.453   0.809   8.524 -0.0533  0.2998  0.1192
44194SOL    HW144307   8.545   0.832   8.511 -0.1203  0.2639 -0.4400
44194SOL    HW244308   8.425   0.862   8.599 -0.8673  3.9899 -2.5445
44195SOL     OW44309   2.862  10.637   4.088  0.6471  0.1763  0.1644
44195SOL    HW144310   2.911  10.689   4.151  1.6135 -0.3340 -0.1432
44195SOL    HW244311   2.876  10.546   4.117 -1.7114  0.0690  1.2096
44196SOL     OW44312   2.944  13.059   0.063 -0.0834  0.7994  0.5985
44196SOL    HW144313   2.893  12.999   0.008  2.2968  2.0944 -3.4550
44196SOL    HW244314   3.026  13.012   0.080 -0.2354  0.9839  2.0220
44197SOL     OW44315  12.568   4.244   2.839  0.0425  0.2034  0.3371
44197SOL    HW144316  12.652   4.260   2.797  0.3738 -0.2643  0.8126
44197SOL    HW244317  12.550   4.152   2.822 -1.2236  0.6949 -1.2616
44198SOL     OW44318  11.192  13.691   4.495  0.0464  0.0370 -0.9342
44198SOL    HW144319  11.225  13.699   4.406  0.5583 -0.4140 -0.7880
44198SOL    HW244320  11.161  13.601   4.502 -0.0141  0.0767 -0.6653
44199SOL     OW44321   2.356  12.359   5.134  0.1989  0.5079 -0.4666
44199SOL    HW144322   2.446  12.370   5.102  0.2496 -1.5952 -1.1958
44199SOL    HW244323   2.357  12.400   5.221  2.0328  0.0351 -0.2089
44200SOL     OW44324   3.352  10.763   4.120 -0.2611 -0.1071 -0.4806
44200SOL    HW144325   3.428  10.771   4.178 -0.1772 -0.1571 -0.5846
44200SOL    HW244326   3.323  10.854   4.107 -0.3256 -0.1006 -0.3018
44201SOL     OW44327   2.148   6.608   6.106  0.2772  0.0457 -0.6516
44201SOL    HW144328   2.218   6.576   6.163 -1.3970 -2.8940 -0.0296
44201SOL    HW244329   2.143   6.545   6.035 -0.4459  1.3158 -1.7881
44202SOL     OW44330   3.102   3.279  11.180 -0.6849  0.4256 -0.3027
44202SOL    HW144331   3.113   3.184  11.182 -1.6328  0.1111 -3.9553
44202SOL    HW244332   3.007   3.293  11.179 -0.7088  1.7179  3.4854
44203SOL     OW44333   9.830   7.215  12.990  0.8780  0.0240 -0.3127
44203SOL    HW144334   9.900   7.209  13.055  1.4357  1.3705 -0.7513
44203SOL    HW244335   9.764   7.272  13.030  2.2102  2.7281 -1.6775
44204SOL     OW44336   6.648   2.193  10.629  0.0425 -0.2214 -0.3060
44204SOL    HW144337   6.663   2.160  10.717  1.3753 -0.3713 -0.5680
44204SOL    HW244338   6.568   2.149  10.600  1.0343 -2.2802 -0.1520
44205SOL     OW44339  11.470   6.931   7.811 -0.6345 -0.8543 -0.5242
44205SOL    HW144340  11.412   6.859   7.838 -0.8239 -0.3305  0.4957
44205SOL    HW244341  11.558   6.896   7.823 -0.7254 -0.9803 -0.1916
44206SOL     OW44342   4.376   1.280   5.702  0.4774 -0.1813 -0.0878
44206SOL    HW144343   4.363   1.191   5.669  1.4441 -0.0139 -0.9691
44206SOL    HW244344   4.469   1.284   5.723  0.5256  0.7367 -0.4372
44207SOL     OW44345  10.259   3.161  10.251 -0.4088 -0.0243  0.5042
44207SOL    HW144346  10.312   3.099  10.302 -2.3353 -1.3084  1.0284
44207SOL    HW244347  10.172   3.156  10.290 -1.5052  0.3569 -1.7502
44208SOL     OW44348  11.971  13.144  12.991 -0.0755  0.2498 -0.0436
44208SOL    HW144349  11.908  13.126  12.922  0.3349  0.0878 -0.3779
44208SOL    HW244350  12.038  13.077  12.982 -0.3189 -0.1428  0.8975
44209SOL     OW44351   9.304   3.846   5.366  0.0771  0.3841 -0.3182
44209SOL    HW144352   9.350   3.784   5.310  0.2055  0.6859 -0.5547
44209SOL    HW244353   9.224   3.867   5.318 -1.6059 -2.0602  1.2147
44210SOL     OW44354   1.100   1.782   6.808 -0.0173  0.8125 -0.6249
44210SOL    HW144355   1.145   1.701   6.833 -2.1172  0.1150  1.2072
44210SOL    HW244356   1.078   1.770   6.716  0.3499 -0.4041 -0.5651
44211SOL     OW44357   6.563   9.147   5.402  0.3584  0.5411  0.4342
44211SOL    HW144358   6.479   9.191   5.410  0.4701  0.9053 -0.2744
44211SOL    HW244359   6.600   9.182   5.321  0.7112 -0.4062  0.1726
44212SOL     OW44360  11.952  10.278   0.350  0.2231  0.1879 -0.4817
44212SOL    HW144361  11.999  10.222   0.412 -0.7988 -1.3248 -1.0161
44212SOL    HW244362  11.937  10.359   0.399  1.3589 -0.1416  0.4752
44213SOL     OW44363  13.066   8.286   4.160 -0.7314  0.3902 -0.6226
44213SOL    HW144364  13.144   8.248   4.201 -1.3626  1.5777  1.8348
44213SOL    HW244365  13.098   8.365   4.116 -0.6332  1.4871  1.3112
44214SOL     OW44366   9.901  13.415   9.569  0.6469 -0.0816  0.5557
44214SOL    HW144367   9.891  13.412   9.664 -1.1405 -1.5431  0.3735
44214SOL    HW244368   9.955  13.338   9.548 -0.9442 -1.1737  0.2468
44215SOL     OW44369  10.123  12.768  13.471  0.2428 -0.1549 -0.6809
44215SOL    HW144370  10.066  12.844  13.462  1.4496  0.9028  0.1767
44215SOL    HW244371  10.100  12.712  13.397 -1.1830  0.6942 -0.9195
44216SOL     OW44372   1.395   7.416   1.147  0.6894  0.2635  0.4403
44216SOL    HW144373   1.325   7.357   1.175  0.5972  1.4279  2.8269
44216SOL    HW244374   1.397   7.406   1.051 -1.7624 -0.8382  0.4276
44217SOL     OW44375   6.858   3.741  10.622  0.0875  0.1125  0.0416
44217SOL    HW144376   6.802   3.664  10.620 -0.3627  0.4425 -0.2608
44217SOL    HW244377   6.798   3.815  10.613  0.2566  0.6435  2.5928
44218SOL     OW44378  10.776   2.965   2.922  0.0015  0.1674  0.1459
44218SOL    HW144379  10.863   2.929   2.939  0.4750  1.7612  1.3537
44218SOL    HW244380  10.792   3.058   2.902 -1.3502  0.2784 -0.5364
44219SOL     OW44381   2.191   2.953   4.458 -0.0863  0.4318 -0.2580
44219SOL    HW144382   2.095   2.961   4.456 -0.1288  0.1204  0.2721
44219SOL    HW244383   2.216   2.949   4.366 -0.7267 -1.0297 -0.4019
44220SOL     OW44384   0.938   8.974   7.050 -0.5395  0.3407  0.5392
44220SOL    HW144385   0.958   8.978   7.144 -1.7881 -0.2149  0.8498
44220SOL    HW244386   1.004   9.030   7.009  0.5008 -0.0155  1.6664
44221SOL     OW44387   6.846   9.887   2.684 -0.3352  0.0007 -0.2186
44221SOL    HW144388   6.884   9.804   2.711  0.3282  0.4268  0.1732
44221SOL    HW244389   6.874   9.898   2.593 -0.2164 -0.0773 -0.1905
44222SOL     OW44390   9.210   9.390   0.702  0.1101  0.0997 -0.3590
44222SOL    HW144391   9.133   9.414   0.651 -0.3302  0.3122  0.3886
44222SOL    HW244392   9.275   9.458   0.682 -1.5768  2.9520  2.8310
44223SOL     OW44393   0.134   5.308  12.595  0.2247 -0.5186  0.3197
44223SOL    HW144394   0.196   5.279  12.527 -0.3641 -2.0984  0.4131
44223SOL    HW244395   0.134   5.404  12.588  1.9850 -0.5216 -0.2858
44224SOL     OW44396   8.127  10.967  10.380  0.1179  0.2955  0.9003
44224SOL    HW144397   8.034  10.959  10.404  0.2637 -0.3677  1.2846
44224SOL    HW244398   8.140  10.896  10.316  0.0177  1.3089 -0.2835
44225SOL     OW44399  12.785   1.930   5.584 -0.1434 -0.4300 -0.2013
44225SOL    HW144400  12.702   1.969   5.613 -0.2157 -0.6279 -0.1367
44225SOL    HW244401  12.796   1.854   5.640  0.9317  0.5247  0.9186
44226SOL     OW44402   8.817   0.945  11.898 -0.6873  0.5874 -0.1357
44226SOL    HW144403   8.909   0.932  11.874 -0.2130  2.6098  0.4377
44226SOL    HW244404   8.807   1.039  11.906 -2.6449  0.3645  0.5551
44227SOL     OW44405  11.850  11.591   6.860 -0.0472  0.2838  0.0633
44227SOL    HW144406  11.768  11.640   6.867  0.0908  0.3103  2.5507
44227SOL    HW244407  11.824  11.499   6.869  0.1324  0.2605  0.3749
44228SOL     OW44408  11.297   1.964   1.490 -0.0839  0.2501  0.1859
44228SOL    HW144409  11.294   1.966   1.394  2.0676  3.7090  0.0267
44228SOL    HW244410  11.223   2.019   1.517  0.2831  0.6344  0.4195
44229SOL     OW44411  10.048   6.298   8.667  0.0769  0.0849  0.2217
44229SOL    HW144412  10.036   6.331   8.578  0.7668  1.2721  0.5472
44229SOL    HW244413   9.968   6.249   8.686  0.1058 -0.5694 -1.2038
44230SOL     OW44414   6.378   7.098  10.742 -0.1409  0.3243 -0.5449
44230SOL    HW144415   6.411   7.100  10.832  1.0509 -1.2037 -0.9067
44230SOL    HW244416   6.418   7.173  10.699  0.2647  0.3554 -0.1172
44231SOL     OW44417   4.895  12.479   9.008 -0.3667 -0.2373 -0.0262
44231SOL    HW144418   4.889  12.384   9.007  2.3227 -0.4840  0.7685
44231SOL    HW244419   4.818  12.507   9.058 -0.2608 -2.0901  1.2557
44232SOL     OW44420   0.777   8.275   6.446 -0.1817 -0.1405  0.5839
44232SOL    HW144421   0.708   8.314   6.501 -0.2927  2.0236 -0.9657
44232SOL    HW244422   0.825   8.350   6.411 -0.2810 -1.3516 -2.4455
44233SOL     OW44423   3.885   5.563   4.217 -0.2413  0.0141 -0.1561
44233SOL    HW144424   3.847   5.635   4.267  1.2974  1.7791 -1.3797
44233SOL    HW244425   3.838   5.565   4.133  0.3042  0.0755 -0.4620
44234SOL     OW44426   9.074  12.461   5.735  0.3239  0.2347  0.1768
44234SOL    HW144427   9.007  12.470   5.803 -0.7246 -0.7682 -0.6790
44234SOL    HW244428   9.043  12.517   5.664  1.2757  1.0657  0.3988
44235SOL     OW44429   7.186   5.025  12.151  0.2831  0.3668  0.4431
44235SOL    HW144430   7.136   5.055  12.075 -0.2403 -1.5341 -0.0045
44235SOL    HW244431   7.121   5.011  12.219  0.0722 -2.2037 -0.1689
44236SOL     OW44432   1.286   8.962  12.122 -0.5214  0.0015 -0.3648
44236SOL    HW144433   1.365   8.935  12.168  0.0502  0.7163 -0.9126
44236SOL    HW244434   1.220   8.896  12.147 -0.6489  1.1064  2.5794
44237SOL     OW44435  10.686   1.676  11.140  0.1402 -0.5793  0.5262
44237SOL    HW144436  10.595   1.659  11.166 -0.3715 -3.1335 -2.4200
44237SOL    HW244437  10.681   1.754  11.085  0.4890  1.6697  3.3743
44238SOL     OW44438  11.456   5.002  10.835 -0.5204  0.6813 -0.1630
44238SOL    HW144439  11.392   4.941  10.872  0.5277  0.4719  1.4122
44238SOL    HW244440  11.527   4.946  10.805  0.6762  1.0615  1.7391
44239SOL     OW44441   6.053   7.480  11.135  0.5968  0.1777 -0.2021
44239SOL    HW144442   5.999   7.406  11.105  0.3292  0.4318 -0.3582
44239SOL    HW244443   6.006   7.516  11.210  2.1156 -1.5054  1.6786
44240SOL     OW44444   2.232  11.352  12.794 -0.5902  0.5373 -0.1178
44240SOL    HW144445   2.191  11.381  12.876  2.1010 -0.1747  1.6408
44240SOL    HW244446   2.263  11.433  12.754  1.2533  0.7364  1.5206
44241SOL     OW44447  12.927   3.665   6.325  0.3623  0.4125  0.1730
44241SOL    HW144448  12.928   3.584   6.274  2.2512  0.0248  0.7544
44241SOL    HW244449  13.012   3.705   6.309 -0.0118  1.6045  0.9846
44242SOL     OW44450   4.151   1.977  12.562 -0.4616 -0.0607 -0.2249
44242SOL    HW144451   4.165   2.027  12.482  0.2820 -0.1367 -0.1508
44242SOL    HW244452   4.239   1.960  12.596 -0.7688  0.2696  0.7889
44243SOL     OW44453   5.975   3.296  12.453 -0.3218 -0.1250  0.2463
44243SOL    HW144454   5.894   3.249  12.435 -0.9301  0.1928  1.9976
44243SOL    HW244455   5.949   3.368  12.511  0.8897  1.2567 -0.8367
44244SOL     OW44456   7.086   9.801  10.417 -0.1172 -0.4640 -0.3160
44244SOL    HW144457   7.093   9.843  10.502 -0.3977 -1.3895  0.1708
44244SOL    HW244458   6.999   9.824  10.386 -0.9045 -1.9894  0.6734
44245SOL     OW44459   0.580   7.191  11.334  0.9762 -0.2456  0.3153
44245SOL    HW144460   0.626   7.270  11.363 -0.0840  0.4696  0.0855
44245SOL    HW244461   0.494   7.197  11.374  0.7375 -1.0841 -0.0496
44246SOL     OW44462   0.087   9.261  12.251  0.1944 -0.0727 -0.2975
44246SOL    HW144463   0.059   9.218  12.332 -3.2815  0.1721 -1.2308
44246SOL    HW244464   0.076   9.354  12.269 -0.1600  0.0052 -0.8938
44247SOL     OW44465  11.077   0.775   4.623 -0.2474  0.3250  0.5016
44247SOL    HW144466  11.024   0.735   4.692 -0.7855 -0.6011 -0.4226
44247SOL    HW244467  11.100   0.702   4.566 -0.0686  1.1253 -0.4738
44248SOL     OW44468   4.646  13.686   1.780  0.2469  0.8549 -0.3430
44248SOL    HW144469   4.691  13.675   1.696 -0.0889 -1.1873 -0.2951
44248SOL    HW244470   4.643  13.781   1.793  1.1232  1.1772 -2.1874
44249SOL     OW44471  13.512   5.892  12.870 -0.1423  0.0826 -0.1267
44249SOL    HW144472  13.465   5.849  12.942 -0.8754  0.3719 -0.4266
44249SOL    HW244473  13.446   5.904  12.802  1.1004 -2.7850 -2.0382
44250SOL     OW44474   3.367  10.412  12.582 -0.0417  0.3376  0.1513
44250SOL    HW144475   3.339  10.454  12.500 -0.4322 -0.9957 -0.4249
44250SOL    HW244476   3.373  10.484  12.644  0.9501  1.4928 -1.2059
44251SOL     OW44477  13.561  11.398   7.773  0.2967 -0.4370 -0.1389
44251SOL    HW144478  13.566  11.316   7.821  0.1922 -0.3304  0.0596
44251SOL    HW244479  13.486  11.444   7.812  1.3854  0.4995  0.9523
44252SOL     OW44480   9.801   5.758  11.935  0.0939  0.0789  0.3143
44252SOL    HW144481   9.827   5.683  11.989  0.5884  0.3790  0.5026
44252SOL    HW244482   9.863   5.757  11.862 -0.6858 -0.4351 -0.3639
44253SOL     OW44483   1.870   3.824  11.415  0.3636  0.2022 -0.3227
44253SOL    HW144484   1.795   3.794  11.363  0.7463 -0.7451 -0.3528
44253SOL    HW244485   1.861   3.778  11.499  1.0962 -0.2199 -0.4591
44254SOL     OW44486  13.264   8.416   6.766 -0.1535 -0.3758 -0.1695
44254SOL    HW144487  13.215   8.416   6.684  0.9091 -1.2962 -0.8364
44254SOL    HW244488  13.326   8.489   6.757 -1.0016  0.4398  0.4417
44255SOL     OW44489   9.057  11.572   6.232 -0.5422  0.8819  0.3824
44255SOL    HW144490   8.981  11.625   6.256  0.5485  1.5203  2.6222
44255SOL    HW244491   9.083  11.529   6.313 -0.0651 -1.4215 -0.9109
44256SOL     OW44492   1.531  10.639   5.429 -0.6352  0.1116  0.5325
44256SOL    HW144493   1.537  10.672   5.340 -0.2801 -0.0859  0.4832
44256SOL    HW244494   1.496  10.713   5.479 -1.3667  0.0455  0.1362
44257SOL     OW44495  12.732   9.060   8.578 -0.1748  0.2700  0.4155
44257SOL    HW144496  12.659   9.054   8.639 -0.8487  0.2149 -0.3719
44257SOL    HW244497  12.747   9.155   8.569  1.0977  0.2648  1.9849
44258SOL     OW44498   6.498   7.473  10.322 -0.3830 -0.7080 -0.3593
44258SOL    HW144499   6.437   7.400  10.310 -0.0281 -1.0429 -0.1374
44258SOL    HW244500   6.585   7.433  10.318 -0.1471 -0.1244 -1.4300
44259SOL     OW44501   8.024   4.677   8.874  0.0335  0.8926  0.5592
44259SOL    HW144502   8.016   4.620   8.797 -0.3660 -0.9277  1.9001
44259SOL    HW244503   7.935   4.684   8.908  0.6014 -0.7066  2.4905
44260SOL     OW44504   2.352   8.262   5.928  0.0155  0.1164 -0.4748
44260SOL    HW144505   2.336   8.351   5.896  1.3666  1.1660  1.5859
44260SOL    HW244506   2.265   8.227   5.946 -0.4723  1.7229  0.4685
44261SOL     OW44507   3.274   5.786   5.080  0.2348 -0.2752 -0.2842
44261SOL    HW144508   3.185   5.803   5.048 -0.3903 -0.5210  1.2745
44261SOL    HW244509   3.320   5.869   5.066 -0.2482 -0.1211 -1.0317
44262SOL     OW44510   6.036   1.900   0.049 -0.4336  0.2798  0.1215
44262SOL    HW144511   6.082   1.818   0.031  2.0815  1.3309  1.2127
44262SOL    HW244512   5.987   1.883   0.129  0.2288 -0.1555  0.4456
44263SOL     OW44513  12.429   1.967   3.892 -0.1646  0.3130  0.4340
44263SOL    HW144514  12.465   1.888   3.932 -0.3527 -0.0438 -0.0860
44263SOL    HW244515  12.359   1.995   3.951  0.9603  1.0334  1.4779
44264SOL     OW44516  12.019   9.390  10.435 -0.0860 -0.4820  0.0184
44264SOL    HW144517  12.047   9.466  10.486 -0.6000 -1.1709  1.3740
44264SOL    HW244518  12.041   9.412  10.344 -1.3202  1.7810  0.2195
44265SOL     OW44519  11.669  12.385  12.556 -0.1484  0.5590 -0.2828
44265SOL    HW144520  11.644  12.292  12.551 -1.6611  0.8654  0.7883
44265SOL    HW244521  11.733  12.388  12.627  1.7983  0.0103 -1.9394
44266SOL     OW44522   4.048   6.274  12.808  0.3448  0.4278  0.6182
44266SOL    HW144523   3.970   6.298  12.758 -0.0099 -0.6653  0.6035
44266SOL    HW244524   4.101   6.222  12.747  0.2209 -0.3498  1.1517
44267SOL     OW44525   4.189  13.317   2.901  0.3702  0.2788 -0.2607
44267SOL    HW144526   4.181  13.222   2.894  0.9644  0.3388 -2.8404
44267SOL    HW244527   4.260  13.331   2.963 -0.0846 -0.9172  0.5768
44268SOL     OW44528   3.037   6.080   5.218 -0.4922  0.2768 -0.3894
44268SOL    HW144529   3.027   6.163   5.265 -2.2725  0.5371 -1.1612
44268SOL    HW244530   3.086   6.024   5.279 -0.0375  1.5905  0.5031
44269SOL     OW44531   4.241   3.496  13.724 -0.2911 -0.0447 -0.3404
44269SOL    HW144532   4.246   3.510  13.629 -2.2883 -1.0228 -0.6479
44269SOL    HW244533   4.307   3.428  13.741 -0.4500 -0.4231 -1.1711
44270SOL     OW44534   1.375   6.186   4.043 -0.2421  0.5837  0.0221
44270SOL    HW144535   1.289   6.227   4.052 -1.0603 -1.4219  2.5162
44270SOL    HW244536   1.356   6.098   4.009  1.0314  0.7379 -1.1513
44271SOL     OW44537   4.509   7.795   8.258 -0.1722 -0.3946 -0.2765
44271SOL    HW144538   4.551   7.745   8.188  1.4152  0.5136 -0.0170
44271SOL    HW244539   4.492   7.881   8.219 -0.4623 -0.2909  0.0673
44272SOL     OW44540   7.415   5.845   6.514  0.7498 -0.1000  0.4873
44272SOL    HW144541   7.397   5.936   6.540  0.6964  0.3518 -1.0160
44272SOL    HW244542   7.493   5.821   6.565  1.2282  1.0722  0.3524
44273SOL     OW44543   8.320   2.335  11.594  0.4431  0.1794 -0.1454
44273SOL    HW144544   8.372   2.326  11.674  0.7787  0.9715 -0.2624
44273SOL    HW244545   8.311   2.430  11.582 -0.1313  0.0583 -0.7079
44274SOL     OW44546   1.799   2.095   8.214 -0.1970 -0.3562  0.0319
44274SOL    HW144547   1.733   2.151   8.173  2.8838  3.6695 -0.1141
44274SOL    HW244548   1.809   2.131   8.302  2.6533  0.1632 -0.4099
44275SOL     OW44549  11.230   7.160   2.956  0.2012  0.0611  0.1905
44275SOL    HW144550  11.201   7.240   3.001 -0.6654 -0.2242  0.1595
44275SOL    HW244551  11.325   7.158   2.969 -0.0419 -0.1687  2.3026
44276SOL     OW44552   6.266  12.338   8.138  0.1945  0.1146 -0.4089
44276SOL    HW144553   6.310  12.272   8.192  0.0086 -0.5855 -1.0872
44276SOL    HW244554   6.238  12.405   8.200  0.5565 -0.3517  0.2759
44277SOL     OW44555   2.008   1.018   1.224 -0.0444  0.3471 -0.1634
44277SOL    HW144556   1.956   1.083   1.270  0.4430 -0.2487  1.2657
44277SOL    HW244557   2.098   1.045   1.237  0.1564 -0.5301  0.3460
44278SOL     OW44558   2.293   7.242   8.139 -0.6629 -0.4121  0.1348
44278SOL    HW144559   2.304   7.149   8.122 -1.3050 -0.4470 -0.1215
44278SOL    HW244560   2.313   7.253   8.232  0.5741 -0.6081 -0.1016
44279SOL     OW44561  12.698   0.903  13.041 -0.5722  0.1705 -0.2100
44279SOL    HW144562  12.610   0.901  13.004 -0.8550  1.1444  0.3688
44279SOL    HW244563  12.734   0.987  13.012 -0.2848  0.3213  0.5631
44280SOL     OW44564   3.051   0.783   1.431  0.6802 -0.1269  0.2648
44280SOL    HW144565   2.994   0.847   1.473 -0.8298 -1.8174  0.9041
44280SOL    HW244566   3.038   0.797   1.337 -1.4020 -0.9723  0.3898
44281SOL     OW44567   3.776  10.382  12.308  0.3216 -0.3231 -0.0057
44281SOL    HW144568   3.828  10.312  12.348 -0.7073 -0.8186  0.5018
44281SOL    HW244569   3.709  10.402  12.373  0.7784  1.3804  0.0071
44282SOL     OW44570   0.164   5.153   1.856  0.7251  0.1187 -0.2559
44282SOL    HW144571   0.078   5.170   1.818  0.5799 -0.8708 -0.3944
44282SOL    HW244572   0.226   5.176   1.786  0.6267  1.5367  0.0970
44283SOL     OW44573  12.955   2.713   5.795  0.5321 -0.3258  0.2183
44283SOL    HW144574  12.924   2.686   5.881  1.0212  0.4042  0.6302
44283SOL    HW244575  12.876   2.739   5.748  0.2544 -0.7982  0.4159
44284SOL     OW44576   9.166   2.085   1.616  0.4828 -0.2053  0.2864
44284SOL    HW144577   9.099   2.045   1.671  0.6423 -2.7428 -1.2495
44284SOL    HW244578   9.242   2.094   1.673 -0.3127  0.1669  1.3060
44285SOL     OW44579  12.842   0.257  12.240  0.1537  0.0982 -0.0844
44285SOL    HW144580  12.845   0.319  12.314 -1.8894  0.3513 -0.1657
44285SOL    HW244581  12.821   0.311  12.164 -2.7603 -0.7424  0.0155
44286SOL     OW44582   9.146  13.492   2.375  0.2926  0.1236  0.4936
44286SOL    HW144583   9.238  13.474   2.359  0.5474 -0.0258  1.9902
44286SOL    HW244584   9.129  13.574   2.329  1.1486  0.1130  0.1493
44287SOL     OW44585   8.188   6.965  13.571  0.1002 -0.0035 -0.2451
44287SOL    HW144586   8.125   7.033  13.546 -0.6252 -0.1988  0.9509
44287SOL    HW244587   8.179   6.898  13.504 -2.2423 -0.8104  0.7345
44288SOL     OW44588   1.542   9.079   6.473  0.5669  0.2252  0.1458
44288SOL    HW144589   1.554   9.039   6.387  0.8376  0.5389  0.0376
44288SOL    HW244590   1.587   9.163   6.467  2.6427 -0.7064  1.3188
44289SOL     OW44591   3.293   0.815  11.966  0.2670  0.0265 -0.0108
44289SOL    HW144592   3.291   0.791  12.058 -0.2625  0.8158  0.1961
44289SOL    HW244593   3.215   0.775  11.928 -0.2956  0.8957  0.2059
44290SOL     OW44594  11.294   8.917   7.697 -0.5238 -0.1149  0.4118
44290SOL    HW144595  11.259   8.987   7.643 -0.4982 -0.0342  0.4996
44290SOL    HW244596  11.389   8.930   7.694 -0.5215 -0.1176  0.4652
44291SOL     OW44597   0.993  13.515   6.059  0.0907 -0.2463 -0.3956
44291SOL    HW144598   0.934  13.573   6.107 -0.0128 -0.5724 -0.1229
44291SOL    HW244599   0.957  13.513   5.970  1.1123  1.5175 -0.9076
44292SOL     OW44600   4.721   2.309   2.338  0.0212 -0.2150 -0.4575
44292SOL    HW144601   4.726   2.399   2.305  0.0154 -0.0607 -0.0368
44292SOL    HW244602   4.749   2.255   2.263 -4.6279 -0.2663 -2.4698
44293SOL     OW44603   9.002   8.616  12.586  0.2592  0.1679 -0.0952
44293SOL    HW144604   9.076   8.633  12.644  0.7139 -2.5553  0.2505
44293SOL    HW244605   9.042   8.592  12.502 -0.1862 -1.0935  0.0282
44294SOL     OW44606   3.845  10.492   0.824  0.5367  0.2127 -0.6173
44294SOL    HW144607   3.794  10.481   0.743  0.4895 -0.5588 -0.4948
44294SOL    HW244608   3.815  10.575   0.860 -1.3914 -0.6648 -0.0354
44295SOL     OW44609   2.414  11.794  12.523 -0.0440 -0.2426 -0.5844
44295SOL    HW144610   2.485  11.790  12.587 -0.9672 -2.1520  0.4015
44295SOL    HW244611   2.390  11.886  12.519  1.0315  0.1145  0.6943
44296SOL     OW44612   6.015   2.169   7.402 -0.0236  0.1779 -0.1108
44296SOL    HW144613   5.934   2.206   7.437  0.6154  0.2416  1.3641
44296SOL    HW244614   6.004   2.172   7.307 -2.1501 -0.7376  0.0588
44297SOL     OW44615  12.022   6.292  10.190  0.7545  0.1827 -0.2196
44297SOL    HW144616  11.971   6.318  10.113 -0.3786  0.6431  0.6448
44297SOL    HW244617  12.044   6.375  10.232  2.6048  0.0103 -0.7877
44298SOL     OW44618  13.138   8.145  10.846 -0.4074 -0.3065  0.2467
44298SOL    HW144619  13.162   8.237  10.855 -1.2855  0.0511 -0.7763
44298SOL    HW244620  13.060   8.135  10.902  0.7422 -0.9075  1.8020
44299SOL     OW44621  12.244   5.889   7.185 -0.2911 -0.4560  0.4307
44299SOL    HW144622  12.236   5.841   7.267  1.6823 -1.8912 -0.1371
44299SOL    HW244623  12.338   5.896   7.170 -0.5462  1.7499 -0.6366
44300SOL     OW44624   7.556   1.656   6.852 -0.0967 -0.0662  0.4346
44300SOL    HW144625   7.596   1.682   6.769 -1.0068 -0.7302 -0.2282
44300SOL    HW244626   7.483   1.716   6.863 -1.0845 -1.1192 -0.1762
44301SOL     OW44627  13.558   2.886   8.354 -0.0533  0.3271  0.3742
44301SOL    HW144628  13.604   2.834   8.288  1.0901  0.1220  1.3000
44301SOL    HW244629  13.544   2.825   8.427  0.3986  1.0321  1.0665
44302SOL     OW44630   6.508   4.074  12.027 -0.0257  0.3858 -0.4143
44302SOL    HW144631   6.492   4.040  11.939 -0.3506 -0.9553  0.1309
44302SOL    HW244632   6.602   4.093  12.030 -0.0772  0.7719 -1.1516
44303SOL     OW44633  12.723   5.554   1.933 -0.0263 -0.0516  0.4199
44303SOL    HW144634  12.659   5.619   1.904  0.3863  0.2828  0.2386
44303SOL    HW244635  12.766   5.594   2.008 -0.0256 -0.2730  0.5396
44304SOL     OW44636   9.726  11.432   1.899  0.4121 -0.4233 -0.1194
44304SOL    HW144637   9.804  11.393   1.940 -0.7461 -1.9041  0.7771
44304SOL    HW244638   9.656  11.417   1.961 -1.0838 -1.2585 -1.9067
44305SOL     OW44639  10.840   8.048   9.902 -0.0692 -0.3246 -0.1612
44305SOL    HW144640  10.810   8.067   9.991  0.2696  0.1403 -0.1417
44305SOL    HW244641  10.773   8.086   9.846  0.7217  1.1856 -0.1254
44306SOL     OW44642   7.846  10.034   4.491 -0.6111 -0.9155  0.2991
44306SOL    HW144643   7.818   9.945   4.510 -0.0419 -1.0680  0.4425
44306SOL    HW244644   7.941  10.027   4.480 -0.8573 -0.8351 -2.5347
44307SOL     OW44645  10.727   1.857   5.975 -0.4103 -0.2802 -0.2057
44307SOL    HW144646  10.800   1.877   5.917  0.7811 -0.9467  1.0028
44307SOL    HW244647  10.742   1.766   6.003 -1.9690 -0.5944 -0.2942
44308SOL     OW44648  13.660   0.995  12.203  0.5900  0.2583 -0.9092
44308SOL    HW144649  13.579   1.040  12.182  1.1364  1.2569 -0.9358
44308SOL    HW244650  13.710   1.058  12.255  0.7393 -0.8741  0.3839
44309SOL     OW44651   1.591   4.732   5.651  0.3393  0.2069  0.2762
44309SOL    HW144652   1.561   4.775   5.731 -0.7586 -0.3743  0.1973
44309SOL    HW244653   1.602   4.640   5.676 -0.6238 -0.1048 -0.3759
44310SOL     OW44654   9.134   7.845   0.899 -0.4189 -0.0459  0.0495
44310SOL    HW144655   9.197   7.853   0.971 -0.1984  1.8910 -0.3098
44310SOL    HW244656   9.055   7.808   0.940 -0.0504  0.3314  1.1187
44311SOL     OW44657   8.833   7.432  12.522  0.4381  0.3229 -0.4707
44311SOL    HW144658   8.748   7.473  12.505  1.1567  1.6594 -0.9281
44311SOL    HW244659   8.881   7.441  12.439  1.5678  0.9073  0.2315
44312SOL     OW44660   5.162   3.518   3.242  0.2226  0.6058  0.0795
44312SOL    HW144661   5.191   3.610   3.242 -0.4446  0.8331 -0.6034
44312SOL    HW244662   5.102   3.513   3.168  0.8883 -0.6009 -0.3915
44313SOL     OW44663   5.407   1.151   2.875 -0.0719  0.2788  0.2848
44313SOL    HW144664   5.348   1.182   2.944  0.2028  1.3492  0.0579
44313SOL    HW244665   5.405   1.221   2.809  1.2262  0.1983  0.1415
44314SOL     OW44666  11.816   2.825   5.788  0.4538 -0.4828 -0.2615
44314SOL    HW144667  11.756   2.754   5.814 -2.0005  1.6257  0.2928
44314SOL    HW244668  11.776   2.861   5.709  0.6988  1.2780  0.3806
44315SOL     OW44669  12.327  10.617  12.002 -0.1251  0.3080 -0.0810
44315SOL    HW144670  12.310  10.523  12.006  1.4229 -0.0009 -0.2120
44315SOL    HW244671  12.422  10.625  12.004 -0.1721  1.8103 -1.4768
44316SOL     OW44672  11.017   3.436   6.973  0.4827  0.9177 -0.0972
44316SOL    HW144673  10.985   3.389   6.896 -0.9635  1.9970 -0.1841
44316SOL    HW244674  10.938   3.465   7.018  1.2851  0.3116  1.8260
44317SOL     OW44675  12.249   1.188   1.150  0.4009  0.1794 -0.4478
44317SOL    HW144676  12.284   1.110   1.194  0.2056 -0.0859 -0.7518
44317SOL    HW244677  12.292   1.188   1.064  0.3555  0.3748 -0.4711
44318SOL     OW44678   6.126  11.728   0.457  0.2135  0.4818  0.2707
44318SOL    HW144679   6.191  11.705   0.524  1.8047 -0.1572 -1.4297
44318SOL    HW244680   6.083  11.646   0.436  0.4790  0.4684 -0.2404
44319SOL     OW44681   3.909   7.341   9.256 -0.6052  0.1536  0.2671
44319SOL    HW144682   3.930   7.422   9.209 -0.0324  0.3419  0.8319
44319SOL    HW244683   3.949   7.352   9.342 -1.0122 -0.4958  0.5459
44320SOL     OW44684  13.314  12.293   8.932  0.1398 -0.3310  0.1241
44320SOL    HW144685  13.253  12.220   8.920  1.1816 -0.9712 -1.6734
44320SOL    HW244686  13.398  12.251   8.948 -0.0569  0.5127  4.5984
44321SOL     OW44687   4.517   6.241   9.791 -0.2715  0.9168 -0.3037
44321SOL    HW144688   4.557   6.317   9.833 -0.3681  1.3585 -0.9973
44321SOL    HW244689   4.558   6.236   9.704 -0.1445  0.0757 -0.2073
44322SOL     OW44690   7.980   8.763  12.687  0.1589 -0.3555  0.0126
44322SOL    HW144691   8.030   8.685  12.711 -1.0263 -1.1049  0.0888
44322SOL    HW244692   8.024   8.835  12.734 -0.3157 -1.3458  2.0822
44323SOL     OW44693  13.576   7.207   8.268 -0.3403  0.0646 -0.3536
44323SOL    HW144694  13.556   7.213   8.361 -1.8774  2.1605 -0.7543
44323SOL    HW244695  13.530   7.281   8.228  0.5543 -0.5633 -2.7441
44324SOL     OW44696   3.228  12.690  11.067  0.1252 -0.8495 -0.4155
44324SOL    HW144697   3.137  12.669  11.045  0.5076 -2.5481 -0.5177
44324SOL    HW244698   3.276  12.679  10.985  0.6958 -1.7720  0.0270
44325SOL     OW44699   5.633  13.065   3.509 -0.3279 -0.1879 -0.0047
44325SOL    HW144700   5.726  13.044   3.494 -0.2633  1.0922 -1.6042
44325SOL    HW244701   5.619  13.147   3.462 -1.7579  0.8011  2.0209
44326SOL     OW44702   5.118  10.386   4.890 -0.1984 -0.4059  0.5936
44326SOL    HW144703   5.089  10.449   4.956 -0.8668 -1.8589  1.7304
44326SOL    HW244704   5.086  10.302   4.921  1.1086 -1.3992 -0.6343
44327SOL     OW44705  12.569   3.567  13.255  0.0738 -0.0520  0.3169
44327SOL    HW144706  12.619   3.503  13.205  0.0083  0.8598 -0.9434
44327SOL    HW244707  12.632   3.635  13.278 -0.1561  0.1110  0.4776
44328SOL     OW44708   3.048   5.000   6.289  0.0592  0.0878 -0.3176
44328SOL    HW144709   2.995   4.955   6.223 -0.1337  0.7472 -0.6183
44328SOL    HW244710   3.103   5.060   6.239  0.0858  0.4166  0.0979
44329SOL     OW44711  11.005   9.978  11.822  0.1505  0.1931  0.1041
44329SOL    HW144712  11.097   9.967  11.802  0.4358  0.6830  1.0872
44329SOL    HW244713  10.971  10.034  11.751  0.9190  1.1304  0.4556
44330SOL     OW44714   1.873   7.734   2.853  0.3735 -0.1050 -0.1470
44330SOL    HW144715   1.967   7.747   2.854  0.5386 -1.1695 -0.7932
44330SOL    HW244716   1.857   7.675   2.779 -0.7095 -0.6327  0.4831
44331SOL     OW44717   2.904   6.166  13.501 -0.3516 -0.1234 -0.2715
44331SOL    HW144718   2.856   6.107  13.442  0.0980 -2.2300  1.3523
44331SOL    HW244719   2.909   6.118  13.584 -0.1022  2.3094  1.2177
44332SOL     OW44720   0.978   1.788   7.386 -0.5668 -0.1659 -0.2505
44332SOL    HW144721   0.891   1.780   7.425 -0.8533 -1.9153 -1.1195
44332SOL    HW244722   1.038   1.789   7.460 -1.3294  1.8796  0.3962
44333SOL     OW44723   2.777   1.691   4.188 -0.0391 -0.4148  0.2249
44333SOL    HW144724   2.836   1.755   4.228  1.8953 -1.8833 -0.1000
44333SOL    HW244725   2.700   1.690   4.244  0.7633  0.6991  1.3947
44334SOL     OW44726   6.090   1.028  11.569  0.2204  0.5709  0.4735
44334SOL    HW144727   6.045   1.035  11.653 -1.2175  3.0005 -0.4143
44334SOL    HW244728   6.022   1.002  11.507  0.8657  0.5868 -0.2578
44335SOL     OW44729   3.062   4.098   1.321  0.2055 -0.0582 -0.2308
44335SOL    HW144730   3.151   4.064   1.311  0.1174 -0.4765  0.3620
44335SOL    HW244731   3.065   4.185   1.281  0.7574 -0.2562 -0.6294
44336SOL     OW44732  11.448   7.295   5.389  0.2321  0.7600  0.0928
44336SOL    HW144733  11.437   7.297   5.484  1.7101 -1.4363  0.3893
44336SOL    HW244734  11.506   7.368   5.370  5.0361 -2.1026  1.8725
44337SOL     OW44735   9.181   0.971   7.582  0.3450  0.2630 -0.7158
44337SOL    HW144736   9.148   0.933   7.500  0.7470  0.8062 -1.1307
44337SOL    HW244737   9.131   0.926   7.651  0.6230 -0.8331 -1.2047
44338SOL     OW44738   0.839   4.059  11.882  0.3039 -0.2769  0.3228
44338SOL    HW144739   0.833   4.145  11.840 -0.7486 -1.5247 -2.3701
44338SOL    HW244740   0.907   4.068  11.948 -0.9701  3.0601  1.3932
44339SOL     OW44741   7.562   8.361   4.510 -1.2570 -0.3920  0.2539
44339SOL    HW144742   7.615   8.283   4.525 -1.3644 -0.7238 -1.0191
44339SOL    HW244743   7.621   8.434   4.533 -0.0662 -0.7369 -1.5095
44340SOL     OW44744   6.230   8.864  11.551 -0.0591 -0.6936 -0.1236
44340SOL    HW144745   6.145   8.871  11.595 -1.2277  0.0250 -2.2961
44340SOL    HW244746   6.273   8.790  11.593 -1.0534 -0.0900  2.1325
44341SOL     OW44747   5.079  11.271   0.122  0.1743 -0.5023 -0.1659
44341SOL    HW144748   5.148  11.304   0.065 -0.1830  0.2572 -0.1803
44341SOL    HW244749   5.051  11.348   0.172 -0.8980 -0.7034 -0.4143
44342SOL     OW44750   7.242   4.845   6.717  0.3027  0.2228  0.2293
44342SOL    HW144751   7.277   4.806   6.637 -0.4574 -1.0559  0.4899
44342SOL    HW244752   7.309   4.908   6.745  0.4729  0.8689 -1.5263
44343SOL     OW44753   8.113   4.417   1.538  0.0557  0.4152  0.5375
44343SOL    HW144754   8.046   4.485   1.540 -0.3807 -0.0082  0.5408
44343SOL    HW244755   8.083   4.355   1.471  0.4196  0.1990  0.5706
44344SOL     OW44756   0.701   5.575   3.685 -0.1870  0.2396  0.0578
44344SOL    HW144757   0.741   5.492   3.657  0.6475  0.9702 -0.9729
44344SOL    HW244758   0.717   5.635   3.613 -1.4476  1.1144  0.4791
44345SOL     OW44759   6.348   6.926   4.441  0.3030 -0.0798  0.2461
44345SOL    HW144760   6.381   6.947   4.529  0.1542 -0.0634  0.2995
44345SOL    HW244761   6.255   6.907   4.455  0.4115 -0.6859  0.1891
44346SOL     OW44762   8.514   3.156  12.853 -0.0191 -0.4873 -0.7945
44346SOL    HW144763   8.555   3.122  12.933  0.9891  0.6309 -0.7931
44346SOL    HW244764   8.476   3.080  12.811  1.6425 -1.5319 -0.5079
44347SOL     OW44765  11.706   8.478   4.458  0.4871 -0.1070  0.1254
44347SOL    HW144766  11.613   8.487   4.476  0.5041 -0.4126  0.3754
44347SOL    HW244767  11.714   8.493   4.364 -0.3384 -3.7191 -0.6861
44348SOL     OW44768   7.441   5.795   1.633  0.0497 -0.1735  0.0126
44348SOL    HW144769   7.483   5.744   1.702 -1.1413 -0.4017  0.5919
44348SOL    HW244770   7.352   5.760   1.628  0.7106 -1.7727 -3.2410
44349SOL     OW44771   6.260   9.949   9.942  0.1739  1.5447 -0.3827
44349SOL    HW144772   6.199   9.950   9.868  1.0906  2.4526 -1.1595
44349SOL    HW244773   6.219   9.891  10.005 -1.5991  2.2624 -0.7887
44350SOL     OW44774   0.763  12.064  10.705  0.5689 -0.1934  0.0284
44350SOL    HW144775   0.686  12.032  10.658  0.5945  0.0576 -0.1851
44350SOL    HW244776   0.830  11.997  10.690  0.2930 -0.5808  0.4965
44351SOL     OW44777  12.317  11.642  10.215 -0.4720  0.1219 -0.3242
44351SOL    HW144778  12.372  11.625  10.139 -0.9273  0.5139 -0.7522
44351SOL    HW244779  12.376  11.635  10.290  0.2331  0.8781 -0.7955
44352SOL     OW44780   5.970   1.920   0.867 -0.0546 -0.4946 -0.5407
44352SOL    HW144781   6.024   1.959   0.936 -1.2257  0.7760 -0.2845
44352SOL    HW244782   5.924   1.848   0.910 -2.1674  1.3920  0.6176
44353SOL     OW44783   9.096   7.037   0.011 -0.0039 -0.6122 -0.7628
44353SOL    HW144784   9.108   7.093   0.087 -0.2859  1.1219 -1.9330
44353SOL    HW244785   9.148   7.078  -0.058 -0.6986 -1.4537 -1.8216
44354SOL     OW44786   2.005   9.021  12.511  0.1145 -0.0149 -0.2161
44354SOL    HW144787   2.086   9.072  12.505 -0.0122  0.2311  0.1302
44354SOL    HW244788   1.945   9.077  12.561 -0.4645  0.0422 -0.9634
44355SOL     OW44789  10.966   3.270   8.570  0.4303 -0.1336 -0.1749
44355SOL    HW144790  11.039   3.211   8.551 -0.6072 -1.1698 -1.0433
44355SOL    HW244791  11.002   3.332   8.634  2.6016  0.5106 -1.8972
44356SOL     OW44792  12.532   3.382   9.142  0.5750 -0.1237  0.8335
44356SOL    HW144793  12.454   3.383   9.198 -1.6465 -1.5852 -1.9346
44356SOL    HW244794  12.546   3.290   9.123  1.8700  0.2624 -0.1887
44357SOL     OW44795   2.431   4.699   4.458  0.3107 -0.7791 -0.0999
44357SOL    HW144796   2.472   4.785   4.471  0.8855 -1.0484 -0.0929
44357SOL    HW244797   2.351   4.702   4.510 -1.1930  0.7927 -2.3324
44358SOL     OW44798  11.959  11.381  11.643  0.0983 -0.2887  0.2706
44358SOL    HW144799  11.986  11.396  11.734 -1.0873 -0.2990  0.6369
44358SOL    HW244800  11.980  11.463  11.598  2.3880 -0.8969  0.1087
44359SOL     OW44801   1.282   7.721   5.853  0.3388 -0.0216 -0.1129
44359SOL    HW144802   1.232   7.732   5.772  1.9287  1.2841 -0.9566
44359SOL    HW244803   1.250   7.791   5.911  0.3654  0.0651 -0.2039
44360SOL     OW44804   8.384   4.816  12.344 -0.0024  0.7431 -0.1608
44360SOL    HW144805   8.396   4.773  12.429 -0.1784  0.7412 -0.1348
44360SOL    HW244806   8.337   4.751  12.291 -1.3550  1.3389  0.2605
44361SOL     OW44807   5.913   0.743   7.528  0.1217 -0.0963  0.4802
44361SOL    HW144808   5.841   0.800   7.556  0.4037  0.3489  0.3084
44361SOL    HW244809   5.920   0.757   7.434  0.6802  0.1540  0.5558
44362SOL     OW44810   5.597   0.301  11.280  0.0621  0.6095  0.1938
44362SOL    HW144811   5.667   0.309  11.344 -1.0700 -0.9317  1.7228
44362SOL    HW244812   5.632   0.241  11.214 -0.1242 -0.9509  1.4685
44363SOL     OW44813   2.390   1.438   1.168 -0.4230  0.4525  0.8964
44363SOL    HW144814   2.413   1.529   1.186  2.0529  0.0860 -0.0249
44363SOL    HW244815   2.467   1.388   1.195 -1.0888 -1.1962 -0.1086
44364SOL     OW44816   0.405   5.590   3.786  0.3246 -0.0081 -0.1069
44364SOL    HW144817   0.362   5.505   3.785  0.9181 -0.3494  1.6404
44364SOL    HW244818   0.475   5.583   3.721 -2.1699  0.5963 -3.1162
44365SOL     OW44819   4.819   5.443   2.978  0.2633 -0.6901  0.5821
44365SOL    HW144820   4.845   5.400   3.059  0.3156  2.5476  2.4272
44365SOL    HW244821   4.879   5.407   2.912  0.8893 -2.6582  2.1269
44366SOL     OW44822   9.309  10.798  10.659 -0.5556  0.5018  0.1083
44366SOL    HW144823   9.357  10.716  10.674  0.4376  1.0210 -0.1940
44366SOL    HW244824   9.219  10.769  10.641  0.0973 -0.6593 -1.6237
44367SOL     OW44825   5.309  10.487  11.052  0.4614  0.1676 -0.4135
44367SOL    HW144826   5.231  10.508  11.002  0.6866  1.5307 -0.2340
44367SOL    HW244827   5.307  10.546  11.127  0.9761 -0.7060  0.3182
44368SOL     OW44828   1.893   5.947   0.351  0.3457 -0.1186 -0.3844
44368SOL    HW144829   1.913   5.856   0.373 -0.7057 -0.2548  0.0229
44368SOL    HW244830   1.858   5.985   0.431 -1.8812 -0.1447 -1.2811
44369SOL     OW44831   7.920   8.767   1.237 -0.2977  0.1016 -0.1758
44369SOL    HW144832   7.876   8.848   1.261 -1.0702 -0.4917  0.4896
44369SOL    HW244833   8.013   8.789   1.236 -0.2532  0.3550  2.7634
44370SOL     OW44834   7.657   6.066   1.939  0.2378  0.2923 -0.1038
44370SOL    HW144835   7.590   6.132   1.957 -0.6692 -0.8915  0.9673
44370SOL    HW244836   7.695   6.046   2.025 -0.4186 -1.5245 -0.1989
44371SOL     OW44837  12.169  11.956   4.956 -0.8203 -0.2305  0.3152
44371SOL    HW144838  12.247  11.957   4.900  0.6878 -0.9983  2.2653
44371SOL    HW244839  12.203  11.940   5.044 -3.2334 -0.9169  1.2116
44372SOL     OW44840   3.888   5.070  13.230 -0.4039 -0.3158  0.5216
44372SOL    HW144841   3.933   4.989  13.207 -0.6545 -0.1079 -0.7924
44372SOL    HW244842   3.823   5.082  13.160  1.0446  2.1069 -0.5460
44373SOL     OW44843   3.442  12.792   9.194  0.7094 -0.1703 -0.5183
44373SOL    HW144844   3.433  12.698   9.178 -0.2087 -0.4601  1.4678
44373SOL    HW244845   3.515  12.799   9.256 -0.4281  0.2287  0.8107
44374SOL     OW44846   7.524  11.193   2.272 -0.0266 -0.2934  0.2939
44374SOL    HW144847   7.605  11.148   2.246 -0.2777 -1.0143  0.7336
44374SOL    HW244848   7.482  11.217   2.190  0.7510  0.3187  0.0536
44375SOL     OW44849   4.318   9.951   7.872 -0.0090 -0.1685  0.4976
44375SOL    HW144850   4.323   9.868   7.824 -0.9015  0.8983 -1.5389
44375SOL    HW244851   4.253  10.002   7.825 -0.0800  1.3998  2.2099
44376SOL     OW44852   9.552   4.543   0.057  0.0732 -0.0142 -0.0575
44376SOL    HW144853   9.497   4.563   0.133 -0.9633  0.9437 -1.0299
44376SOL    HW244854   9.542   4.619  -0.000  1.8842 -0.1214 -0.5761
44377SOL     OW44855   7.949   8.699   4.985  0.2848 -0.0130  0.4587
44377SOL    HW144856   7.931   8.652   5.067  0.4246  0.1622  0.5921
44377SOL    HW244857   7.904   8.783   4.995 -0.7755 -0.4879 -0.1833
44378SOL     OW44858   3.191   7.083   5.423 -0.3031 -0.2545 -0.0337
44378SOL    HW144859   3.152   6.995   5.418 -2.8468  0.6497  1.8713
44378SOL    HW244860   3.198   7.101   5.517  0.5660  1.4281 -0.3877
44379SOL     OW44861   2.794  12.214   9.195  0.1346 -0.3164  0.2948
44379SOL    HW144862   2.871  12.204   9.251  0.3658  0.8812  0.2132
44379SOL    HW244863   2.804  12.300   9.155 -1.1202 -0.2556  0.0707
44380SOL     OW44864   9.312   9.078   8.637  1.0536  0.0743  0.0219
44380SOL    HW144865   9.299   8.996   8.684  1.9186  2.4139  4.9411
44380SOL    HW244866   9.224   9.112   8.624  0.7934 -0.5351  0.1274
44381SOL     OW44867   7.936   1.541   3.047  0.2568  0.2384  0.4202
44381SOL    HW144868   7.856   1.592   3.034  0.2477  0.1349  0.0523
44381SOL    HW244869   8.005   1.606   3.056  0.1047  0.3316  0.9209
44382SOL     OW44870   7.042   6.282  11.234  0.4567  0.4826 -0.3615
44382SOL    HW144871   7.001   6.364  11.207 -2.3411 -0.5419  0.4807
44382SOL    HW244872   7.040   6.227  11.156 -1.0253  0.0150 -0.0317
44383SOL     OW44873   0.013   5.949   3.119  0.6345  0.3090  0.3858
44383SOL    HW144874  -0.047   6.022   3.131  0.1181  0.5473 -2.8141
44383SOL    HW244875   0.096   5.989   3.092  0.6919 -0.2087 -0.2459
44384SOL     OW44876   8.250   6.077   9.535  1.1496 -0.2087 -0.3219
44384SOL    HW144877   8.223   6.161   9.573  0.9627  0.4408 -1.8139
44384SOL    HW244878   8.298   6.033   9.605  3.2965  2.1301 -0.1742
44385SOL     OW44879   3.734   0.760   9.287 -0.5912 -0.3801 -0.1151
44385SOL    HW144880   3.721   0.798   9.200 -0.5272 -1.6411 -0.6875
44385SOL    HW244881   3.811   0.704   9.278  0.9004  1.3026  1.3824
44386SOL     OW44882   9.782  11.204   0.063 -0.1526 -0.4851 -0.0977
44386SOL    HW144883   9.791  11.143  -0.011  3.3139 -1.3678  0.8566
44386SOL    HW244884   9.853  11.266   0.050 -0.3249  0.1541  1.7757
44387SOL     OW44885  13.256   0.573   9.492 -0.4025 -0.2996  0.6580
44387SOL    HW144886  13.254   0.642   9.559 -0.7785  0.1690  0.1757
44387SOL    HW244887  13.203   0.608   9.420  0.1688 -0.7123  0.0271
44388SOL     OW44888   9.549   2.060   0.470  0.2165  0.4624  0.2372
44388SOL    HW144889   9.603   2.135   0.497 -0.8101  1.1324  0.5246
44388SOL    HW244890   9.460   2.095   0.471 -0.6421 -1.4343  3.0182
44389SOL     OW44891   1.113   6.157   7.213  0.3749 -0.1765  0.0563
44389SOL    HW144892   1.125   6.249   7.192 -1.4314 -0.1505 -0.9691
44389SOL    HW244893   1.030   6.133   7.173 -0.2800 -1.6942  2.1664
44390SOL     OW44894   2.829   8.060   0.139 -0.1995  0.2151 -0.3655
44390SOL    HW144895   2.895   8.130   0.149  0.5824 -0.5621  0.0029
44390SOL    HW244896   2.809   8.033   0.228  1.9937 -2.2893 -0.4929
44391SOL     OW44897   2.545  10.743   0.087 -0.0320  0.0484  0.6500
44391SOL    HW144898   2.507  10.706   0.168 -1.1483 -1.6465 -0.5668
44391SOL    HW244899   2.469  10.763   0.033  0.7153  0.8043 -0.1334
44392SOL     OW44900   4.598   4.028  10.900  0.1602 -0.5193  0.1998
44392SOL    HW144901   4.522   3.989  10.857  1.5869 -2.1809 -1.0051
44392SOL    HW244902   4.629   4.095  10.838 -0.2663  0.0927  0.6460
44393SOL     OW44903  13.410   1.017   1.105  0.1973 -0.3532 -0.2287
44393SOL    HW144904  13.337   1.079   1.097  0.4053 -0.2148 -1.2251
44393SOL    HW244905  13.422   0.983   1.016 -0.2256 -2.1898  0.3678
44394SOL     OW44906   1.437   7.312   8.535 -0.0316  0.3537  0.1158
44394SOL    HW144907   1.369   7.251   8.561  0.5094 -0.0597  0.5981
44394SOL    HW244908   1.506   7.257   8.498 -0.0121  0.7779 -0.5072
44395SOL     OW44909   3.466   1.242   9.816 -0.2055  0.3228 -0.5314
44395SOL    HW144910   3.374   1.256   9.837 -0.0432 -0.8235  1.1213
44395SOL    HW244911   3.466   1.175   9.748 -0.5847  0.3855 -0.5958
44396SOL     OW44912  12.772   6.030  13.046  0.3398 -0.7413  0.7466
44396SOL    HW144913  12.714   6.054  13.117  0.8359 -0.7262  1.1529
44396SOL    HW244914  12.803   6.113  13.010 -2.5709 -0.5877 -1.7819
44397SOL     OW44915   3.854   3.633   1.757  0.3420 -0.1101 -0.4300
44397SOL    HW144916   3.860   3.614   1.851 -2.4425 -2.3861 -0.5467
44397SOL    HW244917   3.866   3.548   1.715 -1.8217  0.2013 -1.8498
44398SOL     OW44918   0.418  11.351   7.018 -0.2022 -0.1093 -0.1009
44398SOL    HW144919   0.328  11.325   6.998 -0.5488  0.1700  1.0412
44398SOL    HW244920   0.472  11.284   6.977 -0.8945  0.1220 -1.4453
44399SOL     OW44921   6.412   0.983   8.886  0.6509  0.4061  0.2527
44399SOL    HW144922   6.477   0.959   8.820 -0.1054 -0.0508 -0.3497
44399SOL    HW244923   6.447   0.949   8.969  1.6135  0.9928  0.0987
44400SOL     OW44924   0.997   7.164   6.751 -0.3920 -0.2292 -0.3209
44400SOL    HW144925   1.004   7.118   6.667  0.4942 -0.5249 -0.1053
44400SOL    HW244926   1.018   7.097   6.816  0.8109  0.4322  0.0113
44401SOL     OW44927   6.601   6.693   3.842 -0.9873  0.7919 -0.0204
44401SOL    HW144928   6.511   6.679   3.813 -0.4079  0.3076 -1.7296
44401SOL    HW244929   6.639   6.750   3.775 -0.0002  0.8984  0.6123
44402SOL     OW44930   9.148   5.748   7.260  0.6968 -0.3219 -0.6026
44402SOL    HW144931   9.184   5.769   7.347 -1.6906 -2.1440  0.9710
44402SOL    HW244932   9.179   5.660   7.243  0.1913 -0.4119 -1.0505
44403SOL     OW44933  13.099   5.549   3.934 -0.0219 -0.5337 -0.0863
44403SOL    HW144934  13.185   5.565   3.895  0.5405 -0.2244  1.1989
44403SOL    HW244935  13.056   5.487   3.875  0.0506  1.2542 -2.1128
44404SOL     OW44936   0.470   7.965   2.723  0.7298  0.2876  0.1553
44404SOL    HW144937   0.467   7.869   2.730  2.6728  0.0256 -1.7542
44404SOL    HW244938   0.559   7.988   2.750  0.9954  1.3133 -1.4919
44405SOL     OW44939  13.399   9.940   4.566 -0.6639  0.4498  0.1265
44405SOL    HW144940  13.454   9.934   4.644  0.2653  1.4834 -0.4269
44405SOL    HW244941  13.374   9.849   4.547 -0.1788  0.1023  1.1190
44406SOL     OW44942   1.317  10.002   5.067  0.1531 -0.1515  0.6423
44406SOL    HW144943   1.221  10.006   5.060  0.1597  0.0542  0.6681
44406SOL    HW244944   1.348  10.083   5.028  0.3132 -0.1774  0.7129
44407SOL     OW44945   6.423   6.518  12.971  0.1998 -0.2986 -0.2543
44407SOL    HW144946   6.404   6.556  13.057  1.3398  0.5409 -0.3456
44407SOL    HW244947   6.387   6.582  12.909  1.5822  0.3663 -0.4052
44408SOL     OW44948   2.689   5.362   7.651 -0.3890 -0.4665  0.0581
44408SOL    HW144949   2.763   5.376   7.709  0.8830 -1.5992 -1.2200
44408SOL    HW244950   2.635   5.441   7.660  2.1941  1.5282 -0.7709
44409SOL     OW44951   4.259   9.334  12.797 -0.2195  0.2340 -0.9569
44409SOL    HW144952   4.200   9.409  12.802 -0.2671  0.2985 -2.1187
44409SOL    HW244953   4.325   9.360  12.731 -0.4037 -0.8405 -1.5930
44410SOL     OW44954   0.770   8.046   3.012 -0.6455 -0.0380 -0.5017
44410SOL    HW144955   0.717   8.125   3.027 -1.0528 -0.5104  0.7097
44410SOL    HW244956   0.710   7.973   3.032 -0.4976 -0.7066 -2.2796
44411SOL     OW44957   5.919   4.751  10.177  0.2146  0.1057  0.2002
44411SOL    HW144958   5.831   4.746  10.140 -1.0053 -1.0555  2.9586
44411SOL    HW244959   5.976   4.718  10.107 -1.1430  2.9361 -2.4704
44412SOL     OW44960   4.391   2.088   8.421  0.3061 -0.7794 -0.3436
44412SOL    HW144961   4.462   2.044   8.467  0.6154 -0.0715 -0.1246
44412SOL    HW244962   4.432   2.165   8.381 -0.6222  0.6194  1.2325
44413SOL     OW44963   4.095   3.103  12.234 -0.0512 -0.4274 -0.2297
44413SOL    HW144964   4.069   3.016  12.205  0.9556 -0.1280 -2.2759
44413SOL    HW244965   4.138   3.141  12.157  1.3793  1.1053  1.2642
44414SOL     OW44966  11.194   0.282   3.645  0.1286  0.1835 -0.0181
44414SOL    HW144967  11.205   0.261   3.738 -1.1026 -0.5783 -0.0234
44414SOL    HW244968  11.257   0.225   3.600  0.3463  0.1635  0.3113
44415SOL     OW44969  10.740   8.941  11.485  0.1405  0.0463  0.3283
44415SOL    HW144970  10.681   8.961  11.558  1.6510  0.1467  1.5772
44415SOL    HW244971  10.738   9.020  11.431 -1.7923 -0.4092 -0.3704
44416SOL     OW44972   1.115   8.903   4.673 -0.0643  0.0244 -0.0593
44416SOL    HW144973   1.126   8.867   4.761 -1.7338 -0.2115  0.0715
44416SOL    HW244974   1.093   8.828   4.619 -1.2872  0.4942 -0.2318
44417SOL     OW44975   4.936   3.913   8.158  0.1900 -0.1393 -0.1908
44417SOL    HW144976   4.878   3.857   8.210  0.2409  0.9260  1.0850
44417SOL    HW244977   5.022   3.871   8.166 -0.0173 -0.6077 -0.3709
44418SOL     OW44978   2.643   6.780   0.900 -0.0049  0.0722  0.0203
44418SOL    HW144979   2.709   6.812   0.838  1.0907 -0.5450  0.8266
44418SOL    HW244980   2.674   6.693   0.925 -0.8915 -0.0462  0.7796
44419SOL     OW44981  12.319   4.493   7.782 -0.1182  0.4913  0.1158
44419SOL    HW144982  12.323   4.417   7.724 -0.9582  1.7177 -1.6526
44419SOL    HW244983  12.287   4.459   7.865  1.1573 -1.3396 -0.0752
44420SOL     OW44984   6.297   9.796   0.387  0.0185  0.1387  0.4405
44420SOL    HW144985   6.237   9.806   0.461 -0.1502 -1.1221  0.4911
44420SOL    HW244986   6.368   9.742   0.421  0.5654  0.5711  0.0146
44421SOL     OW44987   8.560   2.848   2.459 -0.0222 -0.6147  0.9742
44421SOL    HW144988   8.473   2.841   2.497  0.1099  1.4160  1.7843
44421SOL    HW244989   8.550   2.912   2.388  0.9208  0.2463  1.5811
44422SOL     OW44990   2.209   2.976   8.414 -0.6807  0.3292 -0.0359
44422SOL    HW144991   2.292   3.017   8.436 -0.1856 -0.7427  0.1428
44422SOL    HW244992   2.157   2.982   8.495 -0.1010 -0.6134  0.4159
44423SOL     OW44993   7.122   2.840  10.032  0.2895  0.5130  0.2069
44423SOL    HW144994   7.038   2.878  10.008  0.4249 -0.4165 -2.0023
44423SOL    HW244995   7.106   2.798  10.117 -1.2882  0.9097  0.1394
44424SOL     OW44996   9.474   8.558   0.513  0.2257  0.5179  0.1118
44424SOL    HW144997   9.471   8.654   0.507  0.2988  0.6066  1.3682
44424SOL    HW244998   9.435   8.537   0.597 -0.4634 -0.6250 -0.4647
44425SOL     OW44999   5.392  13.407   9.281 -0.2438 -0.2927 -0.2910
44425SOL    HW145000   5.329  13.425   9.351 -0.8936 -2.0651 -0.3867
44425SOL    HW245001   5.358  13.455   9.206 -1.1403 -0.7286 -0.1704
44426SOL     OW45002   5.995   4.271   3.836 -0.0539 -0.6100 -0.8747
44426SOL    HW145003   5.934   4.227   3.777 -3.4660  0.5090  1.4736
44426SOL    HW245004   5.996   4.216   3.914 -0.4231  0.8406  0.1993
44427SOL     OW45005   9.189   6.943   9.298 -0.5501  0.1929  0.8625
44427SOL    HW145006   9.212   7.003   9.227 -0.0536  0.8078  1.5262
44427SOL    HW245007   9.167   7.000   9.371 -1.7002 -0.4293  1.0231
44428SOL     OW45008   5.348  11.425   1.449  0.0173 -0.1968 -0.0302
44428SOL    HW145009   5.407  11.397   1.519  1.7802  2.5594 -0.2645
44428SOL    HW245010   5.267  11.450   1.494  0.5928  0.1249  0.8490
44429SOL     OW45011   1.958  12.144   1.933  0.0529 -0.1611  0.5331
44429SOL    HW145012   1.967  12.078   2.002  3.3745 -0.3493  0.0922
44429SOL    HW245013   2.026  12.209   1.953  0.3387  0.3810 -1.8761
44430SOL     OW45014  10.166  10.581   1.407  1.0604 -0.1839  0.0123
44430SOL    HW145015  10.208  10.503   1.444  1.6164  0.4887  0.8376
44430SOL    HW245016  10.074  10.571   1.430  0.8186 -1.3981 -1.3338
44431SOL     OW45017   6.701   6.680   7.604  0.3641  0.1196  0.2385
44431SOL    HW145018   6.640   6.673   7.677  1.0422 -0.1811  0.7895
44431SOL    HW245019   6.682   6.764   7.564 -1.2598 -0.5011 -0.3801
44432SOL     OW45020   9.151   6.724  10.113 -0.2704 -0.5082  0.0565
44432SOL    HW145021   9.176   6.754  10.025  0.6222  1.2800  0.8531
44432SOL    HW245022   9.204   6.645  10.127  1.8987  0.8546  0.0663
44433SOL     OW45023   7.309  11.650   8.469  0.0951  0.1423 -0.0580
44433SOL    HW145024   7.330  11.573   8.522 -0.2268  0.8599  1.1366
44433SOL    HW245025   7.225  11.628   8.427 -0.2485  0.0334  0.6727
44434SOL     OW45026  11.425   9.022   3.198  0.3111  0.2083  0.1853
44434SOL    HW145027  11.413   8.943   3.251 -2.5028  0.5627  0.2135
44434SOL    HW245028  11.465   9.085   3.257  0.4757 -0.4847  0.8335
44435SOL     OW45029   3.078   6.128   7.277 -0.1985 -0.1360  0.3084
44435SOL    HW145030   3.079   6.211   7.326  0.7303 -1.1691  2.1798
44435SOL    HW245031   3.108   6.151   7.189  1.6071  1.3206  1.2278
44436SOL     OW45032  10.675  11.242   6.645  0.1048  0.2316 -0.5236
44436SOL    HW145033  10.750  11.302   6.646 -0.4851  0.9772  0.0225
44436SOL    HW245034  10.684  11.194   6.563  2.5457 -1.4314  0.5843
44437SOL     OW45035  13.197  13.203  11.379 -0.5819 -0.5610  0.2536
44437SOL    HW145036  13.209  13.203  11.474  2.8675 -0.5248 -0.0329
44437SOL    HW245037  13.159  13.288  11.359 -0.8910 -0.3715  1.5518
44438SOL     OW45038   9.815   4.511  13.725  0.2383  0.1073  0.1471
44438SOL    HW145039   9.725   4.529  13.754  0.9571  2.2867  1.2959
44438SOL    HW245040   9.866   4.583  13.761  2.3806 -0.7625 -0.9693
44439SOL     OW45041  13.168   3.290   5.777  0.2792  0.2789 -0.7950
44439SOL    HW145042  13.150   3.379   5.744  0.0255  0.9935  1.1448
44439SOL    HW245043  13.247   3.263   5.731 -0.6238  0.7628 -2.7396
44440SOL     OW45044   5.031  13.614   0.758 -0.3114 -0.4005 -0.2179
44440SOL    HW145045   5.082  13.613   0.677  2.1577 -0.4115  1.2491
44440SOL    HW245046   5.070  13.684   0.810  0.7226 -2.7932  2.4547
44441SOL     OW45047   3.341   2.898   7.867 -0.1264  0.4459 -0.0289
44441SOL    HW145048   3.326   2.805   7.885 -0.3977  0.7788  1.6420
44441SOL    HW245049   3.424   2.918   7.910 -0.3177  1.0807  0.0583
44442SOL     OW45050   4.427   3.865  13.087  0.2001 -0.2189 -0.0521
44442SOL    HW145051   4.338   3.883  13.117  1.0142  0.3598  2.2016
44442SOL    HW245052   4.461   3.801  13.149  0.9331 -1.5061 -1.6968
44443SOL     OW45053   9.331   2.546  11.427  0.3578 -0.4706  0.1560
44443SOL    HW145054   9.346   2.640  11.416  1.9848 -0.8118 -0.9391
44443SOL    HW245055   9.320   2.534  11.521 -0.5310  0.8881  0.2512
44444SOL     OW45056   4.871   8.157   5.985  0.3958 -0.2141  0.4701
44444SOL    HW145057   4.965   8.154   6.002  0.7831 -0.7595 -1.4844
44444SOL    HW245058   4.863   8.216   5.910 -0.7891 -0.4347  0.4145
44445SOL     OW45059   2.085   0.531   8.727 -0.1730 -0.0887  0.1080
44445SOL    HW145060   1.990   0.518   8.729 -0.2251 -0.0436 -1.0878
44445SOL    HW245061   2.099   0.595   8.657  0.6152  1.2432  1.4397
44446SOL     OW45062   1.722   2.808   7.461  0.0437  0.3567 -0.0337
44446SOL    HW145063   1.670   2.747   7.410  1.0017 -1.2449  0.8469
44446SOL    HW245064   1.755   2.871   7.397  0.0796 -0.7819 -1.1521
44447SOL     OW45065  10.458   7.658   5.985  0.3414  0.8669 -0.2214
44447SOL    HW145066  10.524   7.719   6.019  1.0456  0.3394 -0.6072
44447SOL    HW245067  10.428   7.610   6.062  0.9441  0.6066 -0.1442
44448SOL     OW45068   4.557  13.377   2.343  0.5827  0.0417  0.7366
44448SOL    HW145069   4.569  13.307   2.408 -0.1580 -1.2007 -0.4093
44448SOL    HW245070   4.472  13.416   2.365 -2.1042 -3.5196 -2.1375
44449SOL     OW45071   8.914   0.318   1.325  0.0815 -0.2809  0.1184
44449SOL    HW145072   8.877   0.230   1.328 -2.2931  0.5933 -1.2886
44449SOL    HW245073   8.881   0.360   1.405  0.5128 -0.3714  0.3515
44450SOL     OW45074   5.082  11.876  12.511  0.1729  0.3495 -0.0241
44450SOL    HW145075   5.021  11.900  12.441 -0.1996 -1.3796 -0.3325
44450SOL    HW245076   5.169  11.887  12.471  0.1252  2.5245  0.3209
44451SOL     OW45077   0.369   2.279   0.842  0.4768 -0.5251  0.6316
44451SOL    HW145078   0.319   2.218   0.895  1.2529 -2.6383 -0.9461
44451SOL    HW245079   0.327   2.278   0.756  0.8514  0.7443  0.4019
44452SOL     OW45080   2.456  11.861  11.357 -0.3591  0.3001 -0.0252
44452SOL    HW145081   2.405  11.938  11.332  0.1572  0.8435  0.5863
44452SOL    HW245082   2.390  11.792  11.368 -1.1137  1.2454  1.7674
44453SOL     OW45083   3.953   6.730   2.108  0.3874  0.1606 -0.1109
44453SOL    HW145084   3.927   6.748   2.199 -1.9250  2.0354 -1.0110
44453SOL    HW245085   3.892   6.662   2.079  2.5539 -2.0971  0.2757
44454SOL     OW45086   9.941   1.779   3.927 -0.4130  0.3354 -0.0083
44454SOL    HW145087   9.968   1.812   4.013 -1.9823  0.8513  0.3239
44454SOL    HW245088   9.900   1.695   3.946 -0.8472  0.4947 -0.2369
44455SOL     OW45089  12.739  13.549  12.073 -0.3058  0.2586  0.4301
44455SOL    HW145090  12.647  13.540  12.100 -0.6963 -0.0146 -0.9133
44455SOL    HW245091  12.758  13.642  12.087 -0.5350  0.1693  1.4361
44456SOL     OW45092   7.959   3.208  11.364  0.4775 -0.2876 -0.2823
44456SOL    HW145093   7.931   3.204  11.456  0.1980  1.3076 -0.2792
44456SOL    HW245094   7.911   3.137  11.322 -2.2123  1.1514  0.1206
44457SOL     OW45095  11.679  13.728   4.096  0.0773  0.0493 -0.2698
44457SOL    HW145096  11.670  13.634   4.086  1.8533 -0.2263  0.3245
44457SOL    HW245097  11.649  13.765   4.013 -1.2557 -0.9652 -0.2683
44458SOL     OW45098   5.457   2.629   0.422 -0.2591  1.2232 -0.1130
44458SOL    HW145099   5.527   2.577   0.383 -1.1719 -0.3577  0.2574
44458SOL    HW245100   5.501   2.688   0.483  0.7037 -0.4443  0.8718
44459SOL     OW45101   2.739   9.736   4.768  0.4993  0.3487 -0.5581
44459SOL    HW145102   2.655   9.699   4.743 -0.7904  1.3156  1.9701
44459SOL    HW245103   2.797   9.718   4.694 -1.4152 -1.9960 -1.5974
44460SOL     OW45104   1.865   9.873   0.550  0.7926 -0.1221  0.3040
44460SOL    HW145105   1.934   9.938   0.538 -0.0121  0.4076 -1.8651
44460SOL    HW245106   1.808   9.911   0.617 -0.2238  1.9571 -1.6368
44461SOL     OW45107   6.507   1.254  12.616 -0.2872 -0.1649  0.4487
44461SOL    HW145108   6.578   1.315  12.634 -1.3398  1.3237 -0.2588
44461SOL    HW245109   6.546   1.187  12.561  0.3979  1.0728 -0.6198
44462SOL     OW45110   2.933   4.391   6.580  0.7611 -0.5170 -0.1912
44462SOL    HW145111   3.026   4.411   6.573  0.9916 -1.2038  0.7497
44462SOL    HW245112   2.923   4.353   6.667 -0.4032 -0.4517 -0.2800
44463SOL     OW45113   8.375  11.040   0.963 -0.0922  0.0247 -0.5018
44463SOL    HW145114   8.304  11.054   1.025 -0.0995 -1.2447 -0.1884
44463SOL    HW245115   8.389  11.125   0.922  0.2525  1.0415  1.5842
44464SOL     OW45116  11.065   4.107   5.329 -0.0493 -0.2463  0.1359
44464SOL    HW145117  11.079   4.132   5.238  0.6759 -1.5793 -0.1500
44464SOL    HW245118  10.980   4.144   5.351 -1.4106 -1.9130 -1.8710
44465SOL     OW45119   8.442   1.576  12.288  0.0437 -0.0910  0.5888
44465SOL    HW145120   8.484   1.500  12.249  1.1172  0.1280  1.2646
44465SOL    HW245121   8.460   1.647  12.227  1.0603  0.0870  1.0561
44466SOL     OW45122   9.426   0.451   8.379  0.3204 -0.2259  0.5780
44466SOL    HW145123   9.443   0.541   8.408 -0.9293 -0.1257  1.0294
44466SOL    HW245124   9.511   0.421   8.347  0.6543  1.3012 -0.0892
44467SOL     OW45125   9.295   7.579   3.125 -0.0995 -0.2958  0.0977
44467SOL    HW145126   9.262   7.511   3.067  2.1798 -1.0255 -0.4687
44467SOL    HW245127   9.342   7.639   3.067  1.1239 -0.3301  0.9990
44468SOL     OW45128   2.193   8.684   2.322 -0.3270 -0.5834  0.2216
44468SOL    HW145129   2.190   8.630   2.244 -0.8738 -0.0037 -0.1733
44468SOL    HW245130   2.216   8.624   2.393  1.3845 -0.8973 -0.5537
44469SOL     OW45131   9.299  13.465   5.302  0.1296  0.4266 -0.1482
44469SOL    HW145132   9.227  13.403   5.296  0.4946 -0.0137 -0.0730
44469SOL    HW245133   9.312  13.495   5.212 -0.4294  0.8370 -0.0928
44470SOL     OW45134   7.882  10.903   3.917  0.7361  0.5385  0.3530
44470SOL    HW145135   7.856  10.948   3.837 -0.7127  0.2574  0.6239
44470SOL    HW245136   7.977  10.896   3.911  0.7716  1.5767 -0.7669
44471SOL     OW45137  11.700   1.629   7.421  0.3659 -0.1650 -0.3771
44471SOL    HW145138  11.624   1.627   7.362  0.3960 -1.5422 -0.4088
44471SOL    HW245139  11.737   1.541   7.414  1.3637  0.1783  0.4270
44472SOL     OW45140   6.479  12.757   6.846  0.5023  0.2723 -0.1168
44472SOL    HW145141   6.441  12.788   6.928 -1.1026  1.8956 -1.4019
44472SOL    HW245142   6.441  12.670   6.833 -0.8972  0.8712 -0.1575
44473SOL     OW45143  13.385  11.583   4.107 -0.0278 -0.0434  0.4033
44473SOL    HW145144  13.468  11.544   4.132  0.0334  0.6901  1.4153
44473SOL    HW245145  13.320  11.535   4.158  0.0401  1.0662  1.5978
44474SOL     OW45146   0.829  12.164   8.181  1.0829  0.3241  0.1179
44474SOL    HW145147   0.915  12.170   8.224  0.5863 -3.1795  1.9222
44474SOL    HW245148   0.774  12.225   8.230  1.9465  0.8178  0.5092
44475SOL     OW45149   2.611   2.836   4.701 -0.1491 -0.2825  0.7209
44475SOL    HW145150   2.545   2.905   4.710 -1.0265 -1.1451  0.9260
44475SOL    HW245151   2.597   2.800   4.613  1.0228  0.5053  0.1785
44476SOL     OW45152  11.289  11.739   4.755 -0.0932  0.2588 -0.5184
44476SOL    HW145153  11.307  11.646   4.740  0.5786  0.2842  0.0935
44476SOL    HW245154  11.196  11.742   4.779 -0.0552 -0.2806 -0.2940
44477SOL     OW45155   8.304   3.994   9.147 -0.1993  0.1679  0.1879
44477SOL    HW145156   8.263   3.938   9.081  2.2615 -0.2313 -1.0867
44477SOL    HW245157   8.382   4.029   9.104 -0.2675  2.5657  1.8153
44478SOL     OW45158   5.094  10.018   7.252  0.5414  0.1146 -0.4826
44478SOL    HW145159   5.089  10.000   7.158 -1.3333 -1.7205 -0.1026
44478SOL    HW245160   5.006  10.049   7.275  0.4053 -1.2154  0.9579
44479SOL     OW45161  13.344  10.692   1.894 -0.4881 -0.3626  0.0484
44479SOL    HW145162  13.371  10.739   1.973  0.8281 -1.0523  0.0351
44479SOL    HW245163  13.426  10.661   1.855 -1.0439  0.6457 -2.0467
44480SOL     OW45164  12.581  13.237   5.856 -0.8603 -0.1016  0.0753
44480SOL    HW145165  12.568  13.330   5.835  0.3564  0.1009  0.1448
44480SOL    HW245166  12.661  13.235   5.909 -0.3703 -1.2838 -0.6666
44481SOL     OW45167   4.548   4.953  10.628  0.3662 -0.8033  0.5804
44481SOL    HW145168   4.495   4.980  10.554 -0.3397 -0.6781  1.1227
44481SOL    HW245169   4.573   4.863  10.609 -0.6136 -1.0961  0.6320
44482SOL     OW45170   3.233   4.026  10.711  0.2130 -0.3404  0.7458
44482SOL    HW145171   3.225   3.938  10.748  0.7446 -0.6660  0.1136
44482SOL    HW245172   3.319   4.057  10.741  0.1450 -0.1498  0.7448
44483SOL     OW45173   0.679  12.835  10.033  0.1941  0.2046  0.4591
44483SOL    HW145174   0.753  12.819  10.092 -0.7570 -1.8403  1.2085
44483SOL    HW245175   0.719  12.870   9.953  1.9552 -0.5615  0.9490
44484SOL     OW45176  12.597  12.171  11.168  0.2451 -0.2583 -0.1544
44484SOL    HW145177  12.685  12.160  11.204  0.6752 -0.2313 -1.1573
44484SOL    HW245178  12.538  12.153  11.241  1.0788 -0.8408  0.3867
44485SOL     OW45179   6.948   2.852   7.918  0.5016 -0.1191 -1.1508
44485SOL    HW145180   6.904   2.768   7.930 -0.7042  0.7668  1.2590
44485SOL    HW245181   6.884   2.906   7.870  0.7541 -0.1610 -1.5415
44486SOL     OW45182   3.785  13.357  11.196  0.0474  0.7734 -0.0807
44486SOL    HW145183   3.877  13.382  11.201 -0.1395  1.3249  0.7644
44486SOL    HW245184   3.750  13.376  11.283  0.0822 -3.1790  1.0327
44487SOL     OW45185   7.876   5.331   1.279  0.4439 -0.5151  0.0936
44487SOL    HW145186   7.927   5.394   1.330  0.3013 -0.9025  0.7294
44487SOL    HW245187   7.926   5.319   1.199 -0.1202  1.3215 -0.5972
44488SOL     OW45188   9.583  10.680   4.477 -0.0767  0.0374 -0.1796
44488SOL    HW145189   9.635  10.652   4.402  0.7358 -0.0477  0.4025
44488SOL    HW245190   9.576  10.775   4.467  0.4622  0.0905 -0.1065
44489SOL     OW45191  10.780   6.252   6.527  0.5179  0.1839  0.5035
44489SOL    HW145192  10.749   6.315   6.462  0.2365  0.2703  0.7225
44489SOL    HW245193  10.768   6.167   6.486  2.9501  0.3407 -0.7075
44490SOL     OW45194   6.505   6.322  12.462  0.6885 -0.1831 -0.3436
44490SOL    HW145195   6.465   6.365  12.387 -0.2074  0.7279  0.6227
44490SOL    HW245196   6.534   6.393  12.519 -1.4942 -0.7604  1.6467
44491SOL     OW45197  10.201   2.731   3.829  0.3229 -0.7460 -0.1921
44491SOL    HW145198  10.118   2.771   3.803  0.1111 -1.2079 -0.2334
44491SOL    HW245199  10.264   2.763   3.764  0.6759  1.3869  1.0767
44492SOL     OW45200   5.160   8.507  10.279  0.7816 -0.2068 -0.8152
44492SOL    HW145201   5.109   8.430  10.302 -0.6775  0.5478 -1.4356
44492SOL    HW245202   5.250   8.474  10.270  0.3474 -1.6347 -0.1363
44493SOL     OW45203  12.083   3.679   6.644  0.0236 -0.3063  0.2728
44493SOL    HW145204  12.088   3.584   6.645  0.2565 -0.3248 -1.2034
44493SOL    HW245205  12.103   3.705   6.734 -0.1989 -1.6449  0.7292
44494SOL     OW45206  13.506   9.917   0.908  0.2375 -0.1398 -0.0404
44494SOL    HW145207  13.526   9.983   0.975 -1.5005 -0.3575  0.7573
44494SOL    HW245208  13.412   9.929   0.891  0.2810 -1.2567 -1.1717
44495SOL     OW45209   7.343   7.069   6.875  0.0338  0.0683 -0.6108
44495SOL    HW145210   7.273   7.010   6.905 -0.9957  2.0102  1.0782
44495SOL    HW245211   7.305   7.114   6.800 -0.1433  0.3476 -0.3584
44496SOL     OW45212   0.301   0.929  11.114  0.0220  0.0313 -0.3158
44496SOL    HW145213   0.245   0.901  11.042 -0.9778 -0.3886  0.5939
44496SOL    HW245214   0.332   1.016  11.088 -0.1538 -0.2015 -1.3320
44497SOL     OW45215   2.611  11.383   5.500 -0.1141  0.1618 -0.2623
44497SOL    HW145216   2.663  11.310   5.534  0.4602 -0.4038 -2.2267
44497SOL    HW245217   2.605  11.444   5.573  2.3920 -0.2627  0.4056
44498SOL     OW45218   5.738  11.452  11.760  0.5392 -0.2180  0.3984
44498SOL    HW145219   5.656  11.405  11.745  1.2378 -0.5216 -3.5076
44498SOL    HW245220   5.804  11.384  11.773  0.5375 -0.0329  1.5008
44499SOL     OW45221  13.155   6.208  11.939 -0.0311 -0.0972 -0.3510
44499SOL    HW145222  13.122   6.160  11.863 -2.8671 -0.8449  1.2115
44499SOL    HW245223  13.095   6.282  11.949  0.2405 -0.0505  1.1717
44500SOL     OW45224   4.504   6.297   1.286  0.0608  0.2008  0.1714
44500SOL    HW145225   4.519   6.384   1.323  0.3365  0.0295  0.4701
44500SOL    HW245226   4.412   6.297   1.259  0.6739  1.4627 -2.1470
44501SOL     OW45227   2.263   3.759   1.468 -0.1629  0.2793 -0.1310
44501SOL    HW145228   2.341   3.751   1.413  1.0021 -0.3519  1.5352
44501SOL    HW245229   2.195   3.790   1.409  0.6901 -1.5489 -2.2026
44502SOL     OW45230   3.840   0.594   9.590  0.1938 -0.3441 -0.7685
44502SOL    HW145231   3.866   0.603   9.498 -0.9624  1.3107 -0.9727
44502SOL    HW245232   3.909   0.639   9.639 -0.6087  1.3047 -1.0803
44503SOL     OW45233   9.254  12.438   4.038 -0.0628  0.4170 -0.6243
44503SOL    HW145234   9.284  12.526   4.058  0.0580  0.1364  0.4831
44503SOL    HW245235   9.206  12.410   4.115  1.1327 -1.0173 -0.3453
44504SOL     OW45236   0.354  11.179   7.875  0.2732  0.4134 -0.4310
44504SOL    HW145237   0.437  11.133   7.865  0.1232  0.2522 -1.0295
44504SOL    HW245238   0.311  11.169   7.790 -0.6522 -0.0898  0.0741
44505SOL     OW45239  13.371   1.543  12.577 -0.7837  0.1243  0.4776
44505SOL    HW145240  13.386   1.627  12.533 -0.1397 -0.5108 -0.5565
44505SOL    HW245241  13.284   1.552  12.616 -1.2619  0.8459 -0.6839
44506SOL     OW45242   1.801   1.433  11.907  0.0070 -0.1772  0.0720
44506SOL    HW145243   1.831   1.356  11.858 -0.9654  0.7758 -2.1537
44506SOL    HW245244   1.736   1.474  11.850  1.7300  3.3261  0.3623
44507SOL     OW45245   5.470   7.148   6.678  0.4367 -0.0530 -0.2567
44507SOL    HW145246   5.427   7.206   6.615 -0.5494  1.8531  2.0184
44507SOL    HW245247   5.401   7.088   6.706 -0.0341  1.1140  1.2219
44508SOL     OW45248  12.405   7.325  13.591 -0.0186  0.5902 -0.1838
44508SOL    HW145249  12.314   7.352  13.609 -0.1385 -0.2809  0.5434
44508SOL    HW245250  12.428   7.268  13.664  1.1520  0.8621 -0.3295
44509SOL     OW45251   5.750   9.325  10.962  0.7125 -0.0534 -0.5384
44509SOL    HW145252   5.757   9.230  10.967 -1.4132 -0.3074 -1.6209
44509SOL    HW245253   5.793   9.348  10.879  0.6535 -0.1435 -0.5935
44510SOL     OW45254   5.920  13.401   3.687 -0.1937 -0.2333  0.3027
44510SOL    HW145255   5.878  13.316   3.706  1.4330 -2.2785 -4.0429
44510SOL    HW245256   5.860  13.444   3.627  0.8458 -0.2126 -0.7493
44511SOL     OW45257  11.567  13.695   0.074  0.6968  0.0094 -0.0420
44511SOL    HW145258  11.497  13.641   0.038 -1.4953  2.4068  0.3493
44511SOL    HW245259  11.644  13.671   0.023 -0.9401 -1.0134 -2.2099
44512SOL     OW45260   9.882   8.420   1.092 -0.7185 -0.2268 -0.5219
44512SOL    HW145261   9.973   8.396   1.080 -0.5727  0.0865 -0.0829
44512SOL    HW245262   9.833   8.338   1.083 -0.4333 -0.3261 -1.1707
44513SOL     OW45263   3.733   6.859   9.682  0.0286  0.5277  0.1471
44513SOL    HW145264   3.643   6.852   9.650 -0.2010  1.0322  0.6484
44513SOL    HW245265   3.764   6.943   9.649  0.6877 -0.0984 -0.8866
44514SOL     OW45266  10.038   0.769   7.149  0.2248  0.0792 -0.1085
44514SOL    HW145267  10.078   0.856   7.138  0.5017  0.2341  1.7638
44514SOL    HW245268  10.110   0.708   7.138  0.4856  0.2221  0.7255
44515SOL     OW45269   3.348   9.737   7.994  0.3314 -0.0586  0.5986
44515SOL    HW145270   3.319   9.656   8.036  1.7068 -0.6289  0.5254
44515SOL    HW245271   3.440   9.745   8.020  0.3153  1.3032  0.3129
44516SOL     OW45272   1.594   1.472   7.807 -0.0108  0.1986 -0.3981
44516SOL    HW145273   1.615   1.565   7.793 -0.1802  0.0441 -1.7254
44516SOL    HW245274   1.661   1.443   7.870 -2.2162  2.1197  3.1778
44517SOL     OW45275   1.009  10.636   1.355  0.0328  0.5770  0.2037
44517SOL    HW145276   0.969  10.549   1.367  2.1010 -0.5303 -0.4702
44517SOL    HW245277   0.961  10.674   1.281 -0.9681  0.0524  0.5695
44518SOL     OW45278   2.154   9.620   6.390 -0.7761  0.3018 -0.0250
44518SOL    HW145279   2.092   9.563   6.345 -1.6465  1.7536 -0.7138
44518SOL    HW245280   2.101   9.693   6.422  0.5906  1.6464 -0.7386
44519SOL     OW45281   0.288   7.429   1.072 -0.4257  0.7753  0.0836
44519SOL    HW145282   0.370   7.391   1.038 -1.0203 -1.1109  0.6325
44519SOL    HW245283   0.288   7.519   1.040  0.7542  0.1322 -1.8960
44520SOL     OW45284  10.721   1.998   8.964  0.6466  0.0435  0.0995
44520SOL    HW145285  10.715   1.907   8.994  0.1602  0.0007 -0.1278
44520SOL    HW245286  10.814   2.019   8.973  0.9612 -0.8356 -0.9078
44521SOL     OW45287   0.527   1.712  11.723  0.0714  0.6034 -0.2672
44521SOL    HW145288   0.585   1.642  11.694 -0.7744  0.1560 -0.9277
44521SOL    HW245289   0.545   1.785  11.664  0.2064  0.5859 -0.2475
44522SOL     OW45290   6.017   0.287   6.016  0.2877  0.3742 -0.3950
44522SOL    HW145291   6.086   0.226   6.045  0.0038 -0.2965 -1.0758
44522SOL    HW245292   6.058   0.336   5.944  0.4589  0.8783  0.0389
44523SOL     OW45293   3.726   4.896   6.790  0.1519  0.7194  0.0184
44523SOL    HW145294   3.707   4.952   6.866 -0.5995  1.2537 -0.5455
44523SOL    HW245295   3.664   4.925   6.724  0.8792  0.3355 -0.8436
44524SOL     OW45296   3.619   8.556   7.487 -0.4069  0.5904 -0.6407
44524SOL    HW145297   3.710   8.578   7.466  0.4472  0.6089  2.6263
44524SOL    HW245298   3.602   8.475   7.438  2.0764 -0.5024  0.1306
44525SOL     OW45299  11.083   5.025  11.443 -0.0372  0.6559 -0.0849
44525SOL    HW145300  11.087   5.109  11.397 -2.4353  1.0031  0.1951
44525SOL    HW245301  11.135   4.966  11.388 -0.4506  1.7295 -1.7251
44526SOL     OW45302   2.272   8.172   9.924 -0.1190 -0.0312  0.3912
44526SOL    HW145303   2.323   8.172   9.843 -0.9208 -0.0577 -0.1264
44526SOL    HW245304   2.292   8.087   9.964 -1.7806 -1.2053 -1.1392
44527SOL     OW45305   1.305   0.614   6.200 -0.1229  0.0515  0.3798
44527SOL    HW145306   1.215   0.586   6.214 -0.1221  0.9963  2.7530
44527SOL    HW245307   1.330   0.658   6.282  2.2581  0.4422 -0.4617
44528SOL     OW45308  10.519   9.467  11.150  0.3121 -0.3205  0.3526
44528SOL    HW145309  10.490   9.558  11.147  0.1509 -0.3800 -1.6946
44528SOL    HW245310  10.439   9.416  11.162  0.1267 -0.2595 -0.5359
44529SOL     OW45311  10.702  13.207   3.045 -0.5654 -0.3710  0.6026
44529SOL    HW145312  10.712  13.113   3.061  0.4437 -0.1838  1.1247
44529SOL    HW245313  10.737  13.249   3.123 -2.3592  0.4413  1.0236
44530SOL     OW45314   1.466   5.296   2.884 -0.1985 -0.0802  0.4157
44530SOL    HW145315   1.402   5.234   2.917  0.0025 -0.6323 -0.1980
44530SOL    HW245316   1.550   5.263   2.915 -0.1703  0.4105  0.8726
44531SOL     OW45317   4.909   7.924  11.609  0.6446  0.0927 -0.2537
44531SOL    HW145318   4.944   7.965  11.530  0.0421 -2.2390 -1.8605
44531SOL    HW245319   4.987   7.896  11.657  1.0203  1.3711 -0.0804
44532SOL     OW45320   9.151   5.092  11.788  0.1599 -0.7981 -0.0874
44532SOL    HW145321   9.145   5.021  11.852  0.3747 -0.8813 -0.1596
44532SOL    HW245322   9.065   5.093  11.745 -0.9620  0.9335  1.9710
44533SOL     OW45323   2.830   1.985  13.487  0.0640  0.1553 -0.3144
44533SOL    HW145324   2.847   2.074  13.518 -1.3797  0.0191  0.9711
44533SOL    HW245325   2.849   1.929  13.562 -0.2603 -0.5147 -0.7179
44534SOL     OW45326  11.232  11.924  12.562  0.5834 -0.1228 -0.0425
44534SOL    HW145327  11.268  11.990  12.503  2.0358 -1.9909 -1.3701
44534SOL    HW245328  11.183  11.865  12.504  1.3868 -1.5719  0.7086
44535SOL     OW45329  13.368  11.141   2.610 -0.5087  0.0027  0.4277
44535SOL    HW145330  13.343  11.124   2.700  0.3936  0.3370  0.7533
44535SOL    HW245331  13.457  11.178   2.616 -0.6631  0.5751 -0.5489
44536SOL     OW45332   5.433   1.733   0.115  0.2564 -0.1470  0.4195
44536SOL    HW145333   5.397   1.757   0.030 -0.5360 -2.9251 -0.1360
44536SOL    HW245334   5.523   1.706   0.097  0.0666 -0.8063  0.4302
44537SOL     OW45335  11.189  11.304  10.212  0.5212  0.5497 -0.2278
44537SOL    HW145336  11.212  11.253  10.289 -1.8776 -0.5939 -0.2014
44537SOL    HW245337  11.095  11.317  10.218  0.5066  1.8395 -2.1597
44538SOL     OW45338   4.473   8.950   6.854 -0.1547 -0.1015  0.5054
44538SOL    HW145339   4.429   8.897   6.921 -0.5128  0.5222  0.7783
44538SOL    HW245340   4.507   9.025   6.903 -0.8741  0.6275 -0.0973
44539SOL     OW45341  10.642   9.357   0.637 -0.3461  0.4626 -0.2131
44539SOL    HW145342  10.626   9.426   0.572  0.0685  0.5082 -0.2676
44539SOL    HW245343  10.731   9.328   0.620 -0.0223  0.8871  0.7246
44540SOL     OW45344   0.187  11.256   6.953  0.5843  0.4214  0.2497
44540SOL    HW145345   0.137  11.236   7.032 -1.2275 -1.1199 -1.2032
44540SOL    HW245346   0.191  11.173   6.906  1.0654  1.4386 -1.5641
44541SOL     OW45347   0.014   8.576  13.678 -0.1722 -0.4475 -0.4398
44541SOL    HW145348   0.088   8.539  13.629 -0.4059  0.4249 -1.4967
44541SOL    HW245349   0.033   8.670  13.683 -1.7899  0.0070 -1.8498
44542SOL     OW45350  13.118  11.481  10.188  0.6941 -0.0996 -0.1270
44542SOL    HW145351  13.120  11.576  10.196 -1.5835 -0.0828  0.8965
44542SOL    HW245352  13.099  11.449  10.276  0.7802 -1.4771 -0.5775
44543SOL     OW45353  11.761   5.048   4.262  0.2508 -0.2339  0.6558
44543SOL    HW145354  11.856   5.049   4.245 -0.0347 -0.4052 -1.2441
44543SOL    HW245355  11.753   5.036   4.356  2.1229 -0.1276  0.8658
44544SOL     OW45356   4.716   1.478   1.267  0.0765  0.1410  0.0831
44544SOL    HW145357   4.798   1.429   1.277 -0.2354 -0.0319  2.2377
44544SOL    HW245358   4.678   1.445   1.185  1.4579 -0.8243 -0.2002
44545SOL     OW45359  10.794  10.481   8.587 -0.2267  0.6897  0.1241
44545SOL    HW145360  10.825  10.391   8.600 -0.8644  0.5968  1.1276
44545SOL    HW245361  10.855  10.519   8.524  0.8505 -0.0300  0.7021
44546SOL     OW45362   9.655   3.225   3.608  0.0486  0.0303 -0.3971
44546SOL    HW145363   9.733   3.175   3.586  0.5731  0.7710 -0.2460
44546SOL    HW245364   9.666   3.309   3.563  0.5970  1.1368  1.6464
44547SOL     OW45365  11.414   0.124   3.529 -0.2572  0.4792 -0.2845
44547SOL    HW145366  11.453   0.211   3.525 -1.0604  0.8190 -1.0905
44547SOL    HW245367  11.462   0.073   3.464 -0.0183  0.4109 -0.0571
44548SOL     OW45368   6.334   7.761   0.619 -0.0513 -0.2054 -0.4682
44548SOL    HW145369   6.400   7.812   0.667 -0.1186  0.6531 -1.2630
44548SOL    HW245370   6.252   7.808   0.634 -0.1665 -0.2475 -0.9733
44549SOL     OW45371   0.652   1.042  11.537  0.3161 -0.0727  0.4355
44549SOL    HW145372   0.631   0.964  11.588 -0.6219  0.9375  1.6787
44549SOL    HW245373   0.615   1.024  11.450  0.7038 -1.2528  0.4902
44550SOL     OW45374   0.436  13.004   7.617 -0.0083  0.0325 -0.0002
44550SOL    HW145375   0.520  12.971   7.587 -0.7279  0.6744 -3.1632
44550SOL    HW245376   0.458  13.077   7.675  1.5769 -0.7941  0.4779
44551SOL     OW45377  11.564  10.257   6.563  0.4415  0.0942  0.5151
44551SOL    HW145378  11.570  10.343   6.603  0.4517 -0.2430  1.2565
44551SOL    HW245379  11.655  10.229   6.553  0.4825  0.6328 -0.7787
44552SOL     OW45380   3.055   5.562   5.975  0.3183 -0.0220  0.5210
44552SOL    HW145381   3.022   5.605   5.896  0.1514 -0.5024  0.3237
44552SOL    HW245382   3.133   5.613   5.999 -1.1856  1.8635  1.6813
44553SOL     OW45383   0.194  12.611   4.076 -0.1657 -0.0440 -0.0840
44553SOL    HW145384   0.198  12.684   4.137 -0.4136  0.4146 -0.6040
44553SOL    HW245385   0.143  12.544   4.121  1.4037 -0.5225  1.0276
44554SOL     OW45386   8.815   2.879   0.819 -0.5764 -0.0932 -0.4402
44554SOL    HW145387   8.794   2.953   0.761  1.0174 -0.3787 -1.4513
44554SOL    HW245388   8.788   2.802   0.769 -1.0521 -0.2634  0.0707
44555SOL     OW45389   9.233  12.330  12.178  0.5342  0.3804 -0.1718
44555SOL    HW145390   9.305  12.363  12.123  0.6505 -0.1744 -0.3631
44555SOL    HW245391   9.197  12.408  12.220  1.9382  0.5598  0.7718
44556SOL     OW45392  10.210   8.110   3.106 -0.1773 -0.4431  0.3101
44556SOL    HW145393  10.126   8.068   3.090  0.8830 -2.0306 -1.5057
44556SOL    HW245394  10.242   8.070   3.187 -0.7233 -0.5150  0.4950
44557SOL     OW45395   7.824   4.978   1.778 -0.0540  0.6517  0.1983
44557SOL    HW145396   7.910   4.975   1.738  0.3367  0.8822  1.0021
44557SOL    HW245397   7.765   5.003   1.707  0.0504 -2.4746 -1.1356
44558SOL     OW45398   9.777   7.535  10.730 -0.1222 -0.8294 -0.9226
44558SOL    HW145399   9.763   7.559  10.821  0.1917 -1.7382 -0.6251
44558SOL    HW245400   9.703   7.574  10.683 -0.3963 -0.5393 -0.2601
44559SOL     OW45401   5.956  10.562   8.805  0.2234  0.0036  0.0188
44559SOL    HW145402   5.918  10.619   8.871 -1.0517  0.7023 -1.2407
44559SOL    HW245403   5.913  10.477   8.820  0.4433 -0.0232  0.5017
44560SOL     OW45404   3.976  12.571  10.510 -0.0548  0.0569 -0.0934
44560SOL    HW145405   3.961  12.560  10.416 -1.0788 -2.7042  0.3023
44560SOL    HW245406   4.071  12.572  10.519  0.0677 -0.7432 -1.1022
44561SOL     OW45407   0.692   0.713  12.349 -0.1418 -0.1176  0.2281
44561SOL    HW145408   0.672   0.634  12.299  0.6629 -1.4028  1.8147
44561SOL    HW245409   0.767   0.751  12.304 -0.1271 -0.6208 -0.1852
44562SOL     OW45410   6.415   1.699   8.915 -0.3139  0.3590  0.1420
44562SOL    HW145411   6.457   1.617   8.942 -2.0063  0.2822  2.8728
44562SOL    HW245412   6.322   1.686   8.933 -0.7988  2.4341 -0.5589
44563SOL     OW45413  10.814   2.425   6.733  0.1159 -0.2300  0.2985
44563SOL    HW145414  10.726   2.445   6.766  0.3691  2.0834 -0.2805
44563SOL    HW245415  10.805   2.430   6.638  0.2138 -3.2418  0.0256
44564SOL     OW45416   0.203  12.988   5.269 -1.0738 -0.0886  0.8242
44564SOL    HW145417   0.184  13.056   5.205  0.5258  0.3077  0.7054
44564SOL    HW245418   0.224  13.036   5.349  3.2165 -0.0987 -0.0579
44565SOL     OW45419  10.181   9.406  13.357 -0.0442  0.2146  0.0549
44565SOL    HW145420  10.202   9.317  13.384 -1.8203 -0.4129 -0.5176
44565SOL    HW245421  10.147   9.448  13.436  0.5041  0.3082  0.2480
44566SOL     OW45422   4.840  12.427  11.989  0.1252  0.2168 -0.7118
44566SOL    HW145423   4.806  12.465  12.070 -0.8324 -2.2260  0.1191
44566SOL    HW245424   4.935  12.437  11.995  0.0992 -0.3008  0.9346
44567SOL     OW45425   6.948   8.491   9.058 -0.6964 -0.4709 -0.3487
44567SOL    HW145426   6.969   8.498   8.965  0.5888 -0.2061 -0.0696
44567SOL    HW245427   6.913   8.577   9.081  3.9038  1.5301  0.4673
44568SOL     OW45428   7.604   8.426   8.760  0.0747 -0.3084 -0.1184
44568SOL    HW145429   7.638   8.375   8.834  2.0087 -0.9171 -1.3348
44568SOL    HW245430   7.639   8.514   8.774  2.4902 -0.9595 -1.4277
44569SOL     OW45431   9.242  11.287  10.604  0.6802 -0.8176  0.0889
44569SOL    HW145432   9.284  11.201  10.605  3.3589  0.3736  0.0927
44569SOL    HW245433   9.265  11.324  10.518  0.5730  0.3273  0.5338
44570SOL     OW45434  10.694  11.530   6.981  0.0359 -0.5349 -0.4295
44570SOL    HW145435  10.644  11.502   7.057  0.8524  0.3351  0.4679
44570SOL    HW245436  10.643  11.501   6.906 -1.9781  0.5874  0.4235
44571SOL     OW45437   0.226   1.501   9.748  0.3205 -0.4148  0.6599
44571SOL    HW145438   0.196   1.521   9.837  0.9446  0.4637  0.6935
44571SOL    HW245439   0.298   1.562   9.733 -0.2125 -0.0780 -0.7041
44572SOL     OW45440   4.126  13.080   8.517 -1.0038 -0.0290  0.2521
44572SOL    HW145441   4.049  13.034   8.486 -0.9383 -0.8460  1.2837
44572SOL    HW245442   4.170  13.019   8.576  0.1203  0.6367  0.1488
44573SOL     OW45443  10.890  13.537   4.088 -0.1121  0.1872 -0.5083
44573SOL    HW145444  10.820  13.550   4.151  0.4468  1.1542 -0.0702
44573SOL    HW245445  10.883  13.613   4.029 -0.0765 -0.2504 -1.0873
44574SOL     OW45446   8.770   6.379   9.413  0.0570 -0.6307  0.1890
44574SOL    HW145447   8.761   6.288   9.442 -0.1949 -0.6932 -0.0840
44574SOL    HW245448   8.771   6.430   9.494 -1.5917 -0.7189  0.2845
44575SOL     OW45449   8.052   8.882   4.030 -0.3340 -0.1766  0.1079
44575SOL    HW145450   7.975   8.832   4.055  0.1442  0.2505  2.6990
44575SOL    HW245451   8.020   8.972   4.020 -0.5435 -0.3628 -1.0782
44576SOL     OW45452   4.493   4.215   7.719 -0.2788  0.2327 -0.1728
44576SOL    HW145453   4.426   4.147   7.709  0.3840 -0.5690  0.6199
44576SOL    HW245454   4.499   4.256   7.633 -0.7350 -0.6899 -0.6584
44577SOL     OW45455  11.597   2.616  11.280 -0.0925  0.3987 -0.4227
44577SOL    HW145456  11.514   2.662  11.278  0.3469  1.2062 -0.5171
44577SOL    HW245457  11.580   2.538  11.332 -0.9083  0.5509 -0.4490
44578SOL     OW45458  10.282  12.948   8.543  0.7207 -0.1826 -0.1554
44578SOL    HW145459  10.365  12.902   8.531  0.3656 -0.9692  0.3015
44578SOL    HW245460  10.221  12.904   8.483 -0.0718 -1.5468  1.5419
44579SOL     OW45461  11.544   1.040   1.061  0.1208  0.6056  0.5557
44579SOL    HW145462  11.636   1.033   1.086  0.8477  1.4890 -1.6066
44579SOL    HW245463  11.507   1.104   1.121  1.3582  1.5122  0.3906
44580SOL     OW45464  13.075   3.702  10.512  0.3101  0.5203 -0.3711
44580SOL    HW145465  12.995   3.730  10.467  1.3182  2.4809 -1.0657
44580SOL    HW245466  13.105   3.626  10.463  0.2243  1.3326 -1.7208
44581SOL     OW45467   2.225   6.488  12.145  0.3769 -0.1530 -0.1175
44581SOL    HW145468   2.197   6.506  12.055 -1.2028  0.4101  0.4465
44581SOL    HW245469   2.153   6.521  12.199  0.3917 -2.2687  1.2883
44582SOL     OW45470   1.234   4.433   9.051 -0.2793  0.0987  0.2182
44582SOL    HW145471   1.306   4.478   9.095 -1.3724  0.3002  1.9072
44582SOL    HW245472   1.232   4.470   8.963  2.3430 -0.6937 -0.2470
44583SOL     OW45473   1.654  10.221   1.077 -0.2372  0.2376 -0.2762
44583SOL    HW145474   1.559  10.214   1.064 -0.4638 -3.4480  1.9667
44583SOL    HW245475   1.663  10.262   1.163  0.2629  0.6702 -0.5277
44584SOL     OW45476   2.959  12.328   6.398  0.6137 -0.4616  0.1906
44584SOL    HW145477   3.012  12.401   6.431  0.2866 -0.5008  0.8222
44584SOL    HW245478   2.962  12.337   6.303  1.0688  0.0239  0.2476
44585SOL     OW45479  10.519   5.383  12.093 -0.0409 -0.4934  0.4579
44585SOL    HW145480  10.604   5.414  12.124 -0.1218  1.4805 -1.0874
44585SOL    HW245481  10.481   5.339  12.168  1.0263  1.3634  2.1853
44586SOL     OW45482   3.258   4.605   1.120 -0.0944 -0.5597  0.1087
44586SOL    HW145483   3.190   4.560   1.070 -0.9271 -0.1422  0.8388
44586SOL    HW245484   3.212   4.678   1.162  0.9084  0.0315  0.2149
44587SOL     OW45485  11.679   2.720   4.524 -0.3608 -0.4836  0.0013
44587SOL    HW145486  11.660   2.629   4.503  2.7473 -1.4183  0.7648
44587SOL    HW245487  11.757   2.741   4.472 -0.1237  1.2423  0.9816
44588SOL     OW45488   9.036   6.657  13.436  0.2201  0.0313 -0.3650
44588SOL    HW145489   9.066   6.671  13.346  0.3510 -1.2160 -0.5257
44588SOL    HW245490   8.979   6.732  13.453 -1.2592 -0.5999 -2.1448
44589SOL     OW45491   6.022  11.742   6.297  0.1369 -0.3318  0.6014
44589SOL    HW145492   6.021  11.652   6.329  1.6300  0.0657  1.8528
44589SOL    HW245493   6.027  11.733   6.201  1.3117 -1.5906  0.7556
44590SOL     OW45494   2.037  13.535   8.051 -0.0807 -0.1480 -0.5855
44590SOL    HW145495   2.013  13.594   8.123 -0.8477 -0.2825 -0.7209
44590SOL    HW245496   1.984  13.456   8.067  1.2850 -1.0077 -0.1252
44591SOL     OW45497  11.756   1.913   8.754  0.2436 -0.3245  0.5846
44591SOL    HW145498  11.668   1.885   8.733 -0.3776  0.1289  2.4065
44591SOL    HW245499  11.804   1.906   8.671 -2.1254  1.9095 -1.1296
44592SOL     OW45500   0.904   7.151   6.365 -0.0398  0.2444 -0.6192
44592SOL    HW145501   0.986   7.200   6.357  0.5694 -0.0826  2.4225
44592SOL    HW245502   0.928   7.070   6.411 -1.9880  0.0050  0.1039
44593SOL     OW45503   1.856   1.388   3.027  0.4123  0.6864 -0.0785
44593SOL    HW145504   1.950   1.373   3.023  0.0133 -4.1277  1.3931
44593SOL    HW245505   1.836   1.390   3.121 -1.0015  0.8774 -0.3548
44594SOL     OW45506   2.621  12.522   0.616 -0.2928  0.0066 -0.0365
44594SOL    HW145507   2.648  12.461   0.685 -1.4795 -0.7622 -0.2246
44594SOL    HW245508   2.635  12.609   0.654 -0.9917 -0.4083  1.2138
44595SOL     OW45509   0.613   3.273  11.075 -0.4933  0.2936  0.5335
44595SOL    HW145510   0.593   3.205  11.011  1.5710 -0.0419  0.1590
44595SOL    HW245511   0.589   3.355  11.031  0.3291  0.0263 -0.4540
44596SOL     OW45512   1.023   7.281   3.577 -0.1831  0.1396  0.5811
44596SOL    HW145513   1.102   7.268   3.525 -0.0446  0.1625  0.7851
44596SOL    HW245514   1.049   7.343   3.645  0.4047 -1.8911  2.3299
44597SOL     OW45515   1.548   7.633   6.033 -0.0775  0.5660  0.1238
44597SOL    HW145516   1.640   7.639   6.058 -0.0672  0.8659  0.0118
44597SOL    HW245517   1.537   7.542   6.006  0.1346  0.4743  0.3380
44598SOL     OW45518  12.612   9.353   3.385  0.0746 -0.3510 -0.2935
44598SOL    HW145519  12.610   9.291   3.458  2.0583 -1.2737 -0.9396
44598SOL    HW245520  12.520   9.368   3.363 -0.4962 -2.0060  0.7937
44599SOL     OW45521   8.773   5.378   3.219  0.7283  0.3610  0.1149
44599SOL    HW145522   8.793   5.294   3.261  0.5122 -0.0401 -0.5637
44599SOL    HW245523   8.709   5.356   3.151  0.1290  1.1918  0.4013
44600SOL     OW45524   3.259   5.611  13.634 -0.6494  0.0755  0.0676
44600SOL    HW145525   3.246   5.666  13.710 -1.6260  0.2377 -0.2034
44600SOL    HW245526   3.345   5.636  13.600  0.2753 -0.7293  1.6868
44601SOL     OW45527   0.288   1.421   2.459  0.3821 -0.1243  0.3739
44601SOL    HW145528   0.195   1.442   2.451  0.1001 -1.1126  0.9125
44601SOL    HW245529   0.305   1.357   2.389  0.8758  0.7215 -0.2967
44602SOL     OW45530  13.635  12.796   2.416 -0.1624 -0.2361 -0.3091
44602SOL    HW145531  13.561  12.826   2.364  0.8284  0.9628 -1.0927
44602SOL    HW245532  13.604  12.798   2.506 -1.5179 -1.1468 -0.7262
44603SOL     OW45533   6.943   0.159  12.821  0.6132  0.5938  0.2666
44603SOL    HW145534   6.876   0.214  12.860  0.8843 -0.4658  2.3498
44603SOL    HW245535   6.894   0.103  12.760 -0.1884  0.7707  0.7279
44604SOL     OW45536   3.684   1.629   4.203 -0.1866  0.8558  0.4726
44604SOL    HW145537   3.725   1.712   4.180  0.4862  0.0512 -1.4615
44604SOL    HW245538   3.606   1.625   4.147  1.0842 -0.8397 -1.2875
44605SOL     OW45539   7.978   5.518  11.733  0.1004 -0.0152 -1.0807
44605SOL    HW145540   8.004   5.439  11.781  0.2464  0.1691 -0.8589
44605SOL    HW245541   8.000   5.499  11.642 -0.8683 -0.6666 -1.1959
44606SOL     OW45542   6.160   8.442   1.443  0.0138 -0.5002 -0.0857
44606SOL    HW145543   6.184   8.444   1.535 -0.8019 -0.7322  0.1480
44606SOL    HW245544   6.065   8.458   1.443 -0.1762 -1.5068 -0.8016
44607SOL     OW45545  11.406  11.623   7.851  0.0915 -0.1691 -0.0207
44607SOL    HW145546  11.383  11.573   7.928 -0.6249 -1.0805 -0.8015
44607SOL    HW245547  11.481  11.677   7.878  1.0903 -1.8807  0.7625
44608SOL     OW45548   9.998   3.837  10.457  0.1908  0.0411  0.4493
44608SOL    HW145549  10.031   3.925  10.474  0.3796  0.1028 -0.2191
44608SOL    HW245550   9.903   3.848  10.446  0.3635  0.3526 -0.8465
44609SOL     OW45551   0.007  10.155  13.140  0.6417 -0.2488  0.8906
44609SOL    HW145552   0.095  10.130  13.169  1.0237 -1.3024 -1.0092
44609SOL    HW245553  -0.038  10.072  13.127 -0.2260  0.2567  0.6009
44610SOL     OW45554  11.466   0.440   4.816  0.4366  0.0462 -0.5212
44610SOL    HW145555  11.478   0.502   4.744  0.1540  0.2369 -0.4039
44610SOL    HW245556  11.525   0.471   4.885 -0.3857  0.7206 -0.1155
44611SOL     OW45557   8.975   2.716  11.425 -0.0817  0.2400 -0.5563
44611SOL    HW145558   8.989   2.788  11.486 -0.0660  0.7013 -1.0954
44611SOL    HW245559   9.047   2.724  11.362  0.0866 -0.4197 -0.4621
44612SOL     OW45560   4.663   8.652   4.000  0.1674  0.3669  0.2606
44612SOL    HW145561   4.723   8.578   4.010 -0.4369 -0.0204  1.1456
44612SOL    HW245562   4.606   8.647   4.076 -0.0797  1.5737  0.1795
44613SOL     OW45563   3.816   4.892   9.863 -0.2151  0.5083 -0.0252
44613SOL    HW145564   3.813   4.904   9.957 -0.7119  2.8945 -0.2866
44613SOL    HW245565   3.907   4.872   9.844  0.0260  0.7158  0.8863
44614SOL     OW45566   5.166   6.960   8.362 -0.0204 -0.3310 -0.2585
44614SOL    HW145567   5.071   6.955   8.370 -0.0869 -0.1302 -0.8608
44614SOL    HW245568   5.188   7.046   8.398 -0.1990  0.1134 -1.1765
44615SOL     OW45569   6.586   3.167  11.750  0.0651 -0.4498 -0.1148
44615SOL    HW145570   6.627   3.109  11.814 -0.6933 -1.1677 -0.2688
44615SOL    HW245571   6.569   3.111  11.674  0.2391  0.2109 -0.6492
44616SOL     OW45572  11.502  12.049  11.621  0.5090  0.1180  0.1900
44616SOL    HW145573  11.454  12.094  11.551 -0.0429 -1.0320 -0.2130
44616SOL    HW245574  11.499  12.109  11.695 -3.1145 -0.5458  0.7659
44617SOL     OW45575   4.243   0.135   5.267  0.3100  0.7223  0.0766
44617SOL    HW145576   4.189   0.100   5.338 -0.4329  2.6631  0.5311
44617SOL    HW245577   4.196   0.111   5.187  1.0807 -1.3631  0.2032
44618SOL     OW45578   4.048   8.239   8.791  0.0544  0.1547  0.1399
44618SOL    HW145579   4.088   8.259   8.875 -0.9074  0.2392  0.5920
44618SOL    HW245580   4.060   8.319   8.739  0.1423  0.3095  0.4006
44619SOL     OW45581   6.342   4.565   7.486  0.0998  0.0550  0.5283
44619SOL    HW145582   6.367   4.636   7.546  0.5228 -0.2557  0.7262
44619SOL    HW245583   6.370   4.485   7.530 -0.9193 -0.2909  0.5828
44620SOL     OW45584  10.968  12.586   3.166  0.0673 -0.0878 -0.4766
44620SOL    HW145585  10.930  12.501   3.191  0.3563 -0.1228 -0.1455
44620SOL    HW245586  10.952  12.642   3.243 -0.4371  0.2618 -0.8306
44621SOL     OW45587  10.963   5.772   2.207 -0.0926  0.7636 -0.2043
44621SOL    HW145588  10.961   5.749   2.300  1.5187  0.2226 -0.2773
44621SOL    HW245589  10.889   5.833   2.196  0.2787  1.6166  1.6271
44622SOL     OW45590   8.516   5.058   3.512 -0.9771 -0.0283  0.1013
44622SOL    HW145591   8.549   4.968   3.523 -1.5571 -0.1384  1.0005
44622SOL    HW245592   8.595   5.112   3.509 -0.6534 -0.4555  0.7057
44623SOL     OW45593   2.676   7.361   0.582 -0.2407  0.3677  0.0071
44623SOL    HW145594   2.678   7.307   0.502 -0.5267 -0.6143  0.6485
44623SOL    HW245595   2.766   7.360   0.614 -0.3584 -0.2495  0.3433
44624SOL     OW45596  11.906   3.530   7.547 -0.4021 -0.1230 -0.2168
44624SOL    HW145597  11.988   3.508   7.503  0.3114  0.3117  0.8480
44624SOL    HW245598  11.912   3.488   7.633 -1.6725 -0.7869 -0.4241
44625SOL     OW45599  12.098  12.264   3.035 -0.0981 -0.0604 -0.6314
44625SOL    HW145600  12.093  12.208   3.112  1.8499  0.6163  0.0525
44625SOL    HW245601  12.054  12.345   3.060  0.0345 -0.0528 -0.4225
44626SOL     OW45602   7.707  10.037  10.798 -0.4043 -0.4857  0.1852
44626SOL    HW145603   7.792   9.999  10.817  0.0196  0.1802 -0.3621
44626SOL    HW245604   7.723  10.131  10.789 -1.0906 -0.4219 -0.5057
44627SOL     OW45605  11.483   7.457   6.129  0.3310 -0.2609  0.2578
44627SOL    HW145606  11.529   7.532   6.166  1.1340  0.8695 -2.7397
44627SOL    HW245607  11.406   7.446   6.184  1.6693  0.9007  2.4959
44628SOL     OW45608   6.267   3.493  11.415 -0.4968  0.7303  0.2382
44628SOL    HW145609   6.283   3.441  11.336 -1.2226  1.5068 -0.4448
44628SOL    HW245610   6.261   3.429  11.486 -1.9506 -0.1831 -0.6642
44629SOL     OW45611   3.609  11.936  11.564 -0.4734  0.1589 -0.7068
44629SOL    HW145612   3.687  11.886  11.586 -0.7839  0.1068  0.3509
44629SOL    HW245613   3.562  11.882  11.500  0.4975  0.3377 -1.5923
44630SOL     OW45614   3.928   0.444  11.820  0.6593  0.1796  0.2281
44630SOL    HW145615   3.997   0.508  11.800 -0.7272  1.3407 -1.1664
44630SOL    HW245616   3.856   0.496  11.855 -0.4015 -0.6290 -0.6501
44631SOL     OW45617   7.371   5.508   8.209 -0.5264  0.3896  0.3202
44631SOL    HW145618   7.284   5.475   8.230  1.0167 -1.8879  4.5399
44631SOL    HW245619   7.385   5.580   8.271  0.3067  1.3018 -0.8901
44632SOL     OW45620  10.211   7.250   6.580  0.1428  0.9415  0.3482
44632SOL    HW145621  10.273   7.229   6.650 -1.0753  0.3934  1.3061
44632SOL    HW245622  10.137   7.291   6.625 -0.9320  0.0307 -0.5317
44633SOL     OW45623   8.352   5.420  12.991 -0.0428  0.1399  0.5936
44633SOL    HW145624   8.366   5.459  12.905 -1.3533  0.3573  0.4606
44633SOL    HW245625   8.303   5.486  13.039  1.1761  0.2574  1.7269
44634SOL     OW45626   5.163   8.994  12.713 -0.1192  0.0475  0.2066
44634SOL    HW145627   5.213   9.050  12.654  2.4709 -2.6906 -0.4363
44634SOL    HW245628   5.095   8.955  12.658  0.4137 -0.2286 -0.2607
44635SOL     OW45629  12.044   3.193   2.031  0.0452  0.3042  0.2269
44635SOL    HW145630  12.039   3.236   1.946 -1.4499 -0.8120 -0.2864
44635SOL    HW245631  11.962   3.145   2.039  0.2613  0.1687  2.1982
44636SOL     OW45632   7.301  12.154   8.578 -0.0199  0.2427 -0.6994
44636SOL    HW145633   7.307  12.109   8.494 -1.4719 -0.4602 -0.4669
44636SOL    HW245634   7.370  12.116   8.632 -0.8573 -1.3390 -0.6980
44637SOL     OW45635  10.180  11.842  10.946 -0.4939  0.6796 -0.5332
44637SOL    HW145636  10.266  11.818  10.980 -0.0628  2.9966  0.2265
44637SOL    HW245637  10.129  11.862  11.024 -2.4900 -2.6317 -0.8117
44638SOL     OW45638   1.594   6.749   2.065  0.0716  0.3756 -0.1389
44638SOL    HW145639   1.626   6.757   1.975  1.1003 -1.3176  0.0263
44638SOL    HW245640   1.673   6.756   2.119 -0.6644  2.6002  0.7770
44639SOL     OW45641  10.184   0.893   7.687  0.2504  0.1977  0.1495
44639SOL    HW145642  10.113   0.912   7.749  0.1590  1.3569 -0.2727
44639SOL    HW245643  10.264   0.900   7.739  0.0629 -2.0683  0.8536
44640SOL     OW45644   0.042   2.098   7.491 -0.0007  0.1822  0.3927
44640SOL    HW145645  -0.026   2.161   7.466 -0.9973 -1.0593 -0.1710
44640SOL    HW245646  -0.006   2.016   7.505  1.5650 -1.2253 -1.8363
44641SOL     OW45647  11.981   6.032   4.433  0.0766  0.7063 -0.2532
44641SOL    HW145648  12.025   5.961   4.480 -1.8126  0.8854  1.9736
44641SOL    HW245649  12.032   6.110   4.453  0.7473  0.3798 -0.6578
44642SOL     OW45650   1.608  11.929  10.471 -0.2251 -0.9611 -0.3510
44642SOL    HW145651   1.549  11.878  10.415  0.6736 -2.3884 -0.0473
44642SOL    HW245652   1.614  12.015  10.428 -1.8606 -1.0419 -0.8187
44643SOL     OW45653  10.177   7.828  10.398 -0.2549  0.0918  0.0084
44643SOL    HW145654  10.168   7.798  10.489  1.6751 -2.9399 -0.6570
44643SOL    HW245655  10.109   7.782  10.350  0.7590 -0.8717 -0.5484
44644SOL     OW45656   8.012   5.572   8.131 -0.3701  0.2900 -0.2538
44644SOL    HW145657   7.975   5.591   8.045 -0.4913  1.4213  0.0277
44644SOL    HW245658   8.105   5.596   8.123 -0.1467 -0.5804 -0.3591
44645SOL     OW45659   6.481   9.155   5.077  0.1887  0.2384 -0.2083
44645SOL    HW145660   6.552   9.204   5.119  1.2459  1.1638 -2.8595
44645SOL    HW245661   6.401   9.199   5.105  0.7706  0.4087  1.2761
44646SOL     OW45662   9.050   4.306   3.267  0.5563 -0.1052  0.0843
44646SOL    HW145663   9.061   4.310   3.362  0.9461 -0.9934  0.0924
44646SOL    HW245664   8.978   4.365   3.249  1.4567  1.2463  0.7480
44647SOL     OW45665   2.456   3.746  12.899 -0.3180 -0.1839  0.6277
44647SOL    HW145666   2.381   3.777  12.949  0.1522  0.1507  1.1331
44647SOL    HW245667   2.510   3.700  12.963  0.9364  1.3647  0.7389
44648SOL     OW45668   0.628   5.142   3.456 -0.6583 -0.2548  0.2547
44648SOL    HW145669   0.664   5.095   3.531 -0.4427  1.7493  1.4671
44648SOL    HW245670   0.602   5.227   3.491  2.1940  1.9526 -2.4778
44649SOL     OW45671   3.942  11.171   4.686  0.1205 -0.7225  0.1141
44649SOL    HW145672   3.928  11.266   4.675  0.0884 -0.8083 -0.6498
44649SOL    HW245673   3.988  11.163   4.769  0.8514  0.0353 -0.2045
44650SOL     OW45674  12.953   8.983   8.781  0.7939 -0.3669  0.5697
44650SOL    HW145675  13.002   9.065   8.791  0.3419  0.0161 -0.2387
44650SOL    HW245676  12.875   9.008   8.733  1.3657 -1.5344 -1.0550
44651SOL     OW45677   7.311  10.320  11.686 -0.1584 -0.1531 -0.1087
44651SOL    HW145678   7.402  10.347  11.676 -0.3837  1.2391  1.2677
44651SOL    HW245679   7.272  10.387  11.742 -1.4444 -2.0130  1.3274
44652SOL     OW45680   5.811   5.227   8.556 -0.0239 -0.0322 -0.2257
44652SOL    HW145681   5.901   5.236   8.589  0.4225  2.6622 -1.8196
44652SOL    HW245682   5.822   5.209   8.462 -1.1905 -0.7412 -0.2409
44653SOL     OW45683   9.476   2.189  11.166 -0.4232 -0.2075  0.0049
44653SOL    HW145684   9.480   2.105  11.211  1.5470 -1.4545 -2.2105
44653SOL    HW245685   9.549   2.240  11.203 -0.3594 -0.2650 -0.0414
44654SOL     OW45686   4.104  10.001  13.499 -0.3874  0.1814 -0.6228
44654SOL    HW145687   4.012  10.005  13.472 -0.9147 -1.8950  0.6956
44654SOL    HW245688   4.122  10.088  13.536 -1.6243  0.8072 -1.4249
44655SOL     OW45689   1.345  12.306   1.518 -0.4044  0.2499 -0.0323
44655SOL    HW145690   1.311  12.347   1.439 -0.1264  0.8009  0.1249
44655SOL    HW245691   1.279  12.241   1.542 -0.2661 -0.2553 -0.9775
44656SOL     OW45692  12.503   3.305  12.286 -0.3358 -0.4419  0.6342
44656SOL    HW145693  12.561   3.380  12.286 -0.5789 -0.2333 -0.5275
44656SOL    HW245694  12.480   3.292  12.194  1.1284 -3.0397  0.5356
44657SOL     OW45695   4.746   3.478  10.802  0.6037 -0.5232 -0.2008
44657SOL    HW145696   4.811   3.531  10.755 -0.4883 -0.2013 -1.4036
44657SOL    HW245697   4.747   3.393  10.756  1.2126 -1.0269  0.7170
44658SOL     OW45698  11.624  11.925   3.594  0.0793  0.4613 -0.1511
44658SOL    HW145699  11.557  11.966   3.649 -2.5192 -0.7446 -2.2108
44658SOL    HW245700  11.606  11.832   3.601 -0.5375  0.2620 -3.1060
44659SOL     OW45701   9.164   6.859   2.461  0.5413 -0.3542 -0.9709
44659SOL    HW145702   9.117   6.776   2.458 -1.3053  0.6199 -0.5385
44659SOL    HW245703   9.257   6.835   2.457  0.0340 -2.3794 -1.4302
44660SOL     OW45704  12.961   7.301   2.941  0.5052 -0.0240  0.0255
44660SOL    HW145705  13.006   7.253   2.872 -0.8404  0.8671 -1.5511
44660SOL    HW245706  13.031   7.334   2.998  1.5235 -3.1544  0.8021
44661SOL     OW45707  13.511  10.007   8.702 -0.2527 -0.0179  0.0747
44661SOL    HW145708  13.585   9.985   8.646 -1.2238 -0.0019 -1.2391
44661SOL    HW245709  13.545   9.993   8.791  0.5104 -2.7715 -0.5322
44662SOL     OW45710   2.018   8.868   8.088 -0.7440 -0.5184 -0.5225
44662SOL    HW145711   2.015   8.827   8.002 -0.9587  0.8118 -1.1870
44662SOL    HW245712   1.931   8.904   8.101 -1.4772 -2.7417  1.3540
44663SOL     OW45713  13.590   7.902   5.100  0.4321 -0.1909  0.1640
44663SOL    HW145714  13.511   7.853   5.076  0.0771  0.8523 -0.9235
44663SOL    HW245715  13.609   7.956   5.022  1.6535  0.2867  0.7702
44664SOL     OW45716   4.051   1.238  11.750  0.1383  0.0357  0.3068
44664SOL    HW145717   3.974   1.265  11.700  0.0638  2.6466  1.6291
44664SOL    HW245718   4.030   1.150  11.781 -0.1289 -1.4198 -3.4118
44665SOL     OW45719  12.273   2.947   1.990  0.1139 -0.8337  1.0709
44665SOL    HW145720  12.239   2.975   1.905  0.1473  1.0270  1.6293
44665SOL    HW245721  12.218   2.872   2.014 -0.8539 -0.4769  0.0663
44666SOL     OW45722   9.288   9.322   8.273 -0.0158  0.1774  1.0264
44666SOL    HW145723   9.346   9.280   8.336 -1.9632 -0.7351  2.2955
44666SOL    HW245724   9.212   9.350   8.324 -1.7859 -0.7923 -0.9081
44667SOL     OW45725   1.215   5.783   6.515 -0.4141 -0.1005 -0.7610
44667SOL    HW145726   1.256   5.853   6.465  0.6258 -0.4607 -0.4492
44667SOL    HW245727   1.277   5.710   6.510 -0.4456 -0.2676  0.7440
44668SOL     OW45728  11.963   1.871  13.196 -0.7492 -0.2063  0.0272
44668SOL    HW145729  11.920   1.849  13.113  0.3262 -1.5587 -0.2082
44668SOL    HW245730  11.892   1.901  13.252 -1.4591  1.1196 -1.4844
44669SOL     OW45731  10.724   1.013   7.575 -0.2302 -0.1662 -0.0776
44669SOL    HW145732  10.740   1.035   7.667 -2.2616  1.1408  0.0525
44669SOL    HW245733  10.789   1.064   7.526 -0.1834  0.4418  0.6000
44670SOL     OW45734   7.699   5.686  12.887 -0.4387  0.2071  1.0897
44670SOL    HW145735   7.675   5.602  12.848  0.4533 -1.2704  3.5028
44670SOL    HW245736   7.627   5.707  12.945 -1.7286  2.3623 -1.0878
44671SOL     OW45737   6.120   7.842  11.992  0.0459 -0.9652  0.0031
44671SOL    HW145738   6.121   7.823  11.898  1.2466 -2.0987  0.2057
44671SOL    HW245739   6.206   7.811  12.023  0.1098  0.3827  1.2834
44672SOL     OW45740   4.280   2.819  13.694  0.1484  0.0329  0.1079
44672SOL    HW145741   4.364   2.851  13.727  0.1946  0.6155 -0.5589
44672SOL    HW245742   4.267   2.735  13.739  1.0490 -0.0281  0.2725
44673SOL     OW45743   1.161   9.733   1.527  0.4012  0.1388  0.7229
44673SOL    HW145744   1.220   9.660   1.509  0.6229  0.2670  0.9208
44673SOL    HW245745   1.090   9.723   1.463  1.4816  0.9536 -0.6568
44674SOL     OW45746   3.596  13.495   6.170  0.3863 -0.0427 -0.1681
44674SOL    HW145747   3.642  13.520   6.090 -0.6143 -1.6261 -1.2891
44674SOL    HW245748   3.517  13.549   6.171 -0.0809 -0.7068 -0.7750
44675SOL     OW45749   0.732   4.311  10.934  0.5191 -0.2808 -0.1501
44675SOL    HW145750   0.779   4.303  10.851  1.0016 -0.1570  0.1016
44675SOL    HW245751   0.774   4.386  10.977 -1.0414  0.9127 -0.6360
44676SOL     OW45752   0.106   5.458   1.005  0.1544  0.3060 -0.3472
44676SOL    HW145753   0.030   5.481   1.058  1.0742  0.6561  0.8833
44676SOL    HW245754   0.164   5.412   1.066  1.5653  1.3543 -0.8495
44677SOL     OW45755  13.407   6.556  10.161  0.8573  0.4144  0.3359
44677SOL    HW145756  13.468   6.628  10.179 -0.0835  0.6748  2.8989
44677SOL    HW245757  13.452   6.478  10.192  0.6607  0.3332  0.4169
44678SOL     OW45758   6.881   9.754  11.944  0.1027  0.2791 -0.0173
44678SOL    HW145759   6.835   9.716  12.019  0.3181 -1.2577 -0.6225
44678SOL    HW245760   6.811   9.783  11.885 -0.0660  1.5649  0.7800
44679SOL     OW45761   2.180  13.133   8.228 -0.7890 -0.2454 -0.0664
44679SOL    HW145762   2.103  13.091   8.265 -0.6528 -0.2566  0.2037
44679SOL    HW245763   2.246  13.129   8.297 -1.2896  1.9504  0.6432
44680SOL     OW45764   4.221  11.026   7.911  0.4100  0.1590 -0.3965
44680SOL    HW145765   4.231  11.032   8.006  1.0589 -2.2797 -0.2314
44680SOL    HW245766   4.308  11.006   7.879  0.1765  0.8478 -1.5210
44681SOL     OW45767  11.997  12.292   0.134  0.0367  0.1080  0.2813
44681SOL    HW145768  11.949  12.209   0.135  1.4578 -0.7604 -0.1177
44681SOL    HW245769  12.038  12.295   0.047 -0.3616  1.4640  0.1123
44682SOL     OW45770   3.685   3.071  10.292 -0.0260 -0.2463 -0.1720
44682SOL    HW145771   3.625   2.998  10.281 -2.2082  1.2500  0.9306
44682SOL    HW245772   3.696   3.080  10.387  2.3528 -0.7162 -0.3306
44683SOL     OW45773   7.458   1.061   9.883 -0.5228  0.0551 -0.0899
44683SOL    HW145774   7.386   1.008   9.850 -0.6110  0.7020 -0.9897
44683SOL    HW245775   7.455   1.140   9.829  0.5800  0.2821  0.1641
44684SOL     OW45776  12.453  10.135   3.819 -0.1621 -0.7930 -0.1355
44684SOL    HW145777  12.508  10.062   3.847 -2.2982 -2.9500 -1.2346
44684SOL    HW245778  12.402  10.100   3.746  0.4677  2.5840 -2.4353
44685SOL     OW45779   7.722   8.865  12.523  0.0395  0.1353 -0.3545
44685SOL    HW145780   7.749   8.952  12.494 -1.2582  0.2052 -1.4940
44685SOL    HW245781   7.753   8.859  12.613  0.4566  1.6373 -0.3663
44686SOL     OW45782  13.147  10.206   4.908  0.2844  0.4443  0.0834
44686SOL    HW145783  13.072  10.149   4.893  0.0759  0.1252  2.0236
44686SOL    HW245784  13.191  10.211   4.823 -1.9738  0.7517 -1.1418
44687SOL     OW45785   9.302   6.579  10.445  0.4162  0.1368 -0.7441
44687SOL    HW145786   9.395   6.575  10.468  0.9006 -0.5026 -2.6239
44687SOL    HW245787   9.299   6.635  10.367 -0.7991  0.2251 -0.6558
44688SOL     OW45788   5.697  10.788   4.146  0.2268 -0.9362  0.2832
44688SOL    HW145789   5.610  10.828   4.149 -0.2943 -1.7042 -2.0285
44688SOL    HW245790   5.696  10.723   4.215 -1.5006 -1.7092 -0.4163
44689SOL     OW45791   8.699  13.022   6.747  0.3670  0.3920  0.2463
44689SOL    HW145792   8.660  13.059   6.667 -0.0881 -0.4604  0.0649
44689SOL    HW245793   8.627  13.023   6.810  0.3581 -0.1419  0.2475
44690SOL     OW45794  13.153  11.271  12.677  0.6399 -0.4382  0.2714
44690SOL    HW145795  13.222  11.312  12.624 -0.0674 -1.6104 -1.6430
44690SOL    HW245796  13.175  11.178  12.678 -0.8563 -0.8208 -0.2972
44691SOL     OW45797  11.515   8.916   2.545 -0.3386  0.3936 -0.0349
44691SOL    HW145798  11.501   8.894   2.453 -0.5081  1.6421 -0.3260
44691SOL    HW245799  11.484   9.006   2.554  0.6915  0.6760  0.9973
44692SOL     OW45800   3.153  12.564  13.571 -0.2327  0.0726 -0.1944
44692SOL    HW145801   3.172  12.474  13.542 -0.5097  0.2536 -0.9431
44692SOL    HW245802   3.066  12.583  13.536 -0.3914  0.4614  0.3867
44693SOL     OW45803   5.881   5.909   7.836  0.2600  0.3977 -0.3247
44693SOL    HW145804   5.960   5.856   7.821 -1.4817 -2.3296 -0.4760
44693SOL    HW245805   5.902   5.993   7.796  2.8505 -0.4282 -0.9502
44694SOL     OW45806   9.867   6.916  10.924 -0.0895 -0.2908  0.7377
44694SOL    HW145807   9.864   6.837  10.871 -2.9044 -0.4737  1.0146
44694SOL    HW245808   9.877   6.884  11.014  0.9572 -0.1979  0.6571
44695SOL     OW45809   7.493   5.533   0.185  0.8282 -0.6755 -0.4715
44695SOL    HW145810   7.563   5.469   0.201  1.3702  0.2103  0.8456
44695SOL    HW245811   7.538   5.617   0.181 -0.1826 -0.0737  0.5944
44696SOL     OW45812   9.233   7.111  10.389  0.0679  0.2444 -0.3670
44696SOL    HW145813   9.238   7.110  10.485  0.2579 -0.6764 -0.3773
44696SOL    HW245814   9.247   7.203  10.366  0.1630  0.4571  0.4825
44697SOL     OW45815   5.124  11.363   8.664  0.1790  0.0991  0.2109
44697SOL    HW145816   5.154  11.272   8.658  0.9662  0.4207 -1.9985
44697SOL    HW245817   5.203  11.414   8.678 -0.2694  0.4567  1.5280
44698SOL     OW45818   9.384   4.278  13.454 -0.3119  0.3250 -0.1779
44698SOL    HW145819   9.350   4.214  13.516 -0.3498  0.9296  0.4311
44698SOL    HW245820   9.361   4.242  13.368  0.3830 -0.8794  0.1219
44699SOL     OW45821  11.426   8.308   0.146  0.0165 -0.0618 -0.0393
44699SOL    HW145822  11.451   8.238   0.086  0.1775 -0.1790  0.1647
44699SOL    HW245823  11.332   8.318   0.133  0.0730 -0.0011 -0.4015
44700SOL     OW45824   8.025  12.435   6.850 -0.7411  0.0937  0.0849
44700SOL    HW145825   8.112  12.463   6.822  0.1751 -3.7689 -1.5978
44700SOL    HW245826   8.041  12.385   6.930 -1.1336 -1.6498 -0.8664
44701SOL     OW45827   9.028   3.120   3.010  0.7544  0.1962 -0.2970
44701SOL    HW145828   8.996   3.137   2.922 -0.8088 -0.7633  0.0403
44701SOL    HW245829   8.950   3.124   3.065  1.3205 -1.3773  0.7065
44702SOL     OW45830   5.525   3.746   0.209  0.0858 -0.6323 -0.0303
44702SOL    HW145831   5.519   3.807   0.283  3.0391 -2.2124  1.6874
44702SOL    HW245832   5.567   3.797   0.140  0.6498 -0.1513  0.6567
44703SOL     OW45833   6.454   7.960   7.290  0.4131 -0.1001  0.0109
44703SOL    HW145834   6.456   8.052   7.317  1.5206 -0.3700  0.9079
44703SOL    HW245835   6.375   7.924   7.330  0.3417  0.2874  0.2216
44704SOL     OW45836  13.588   6.168   3.148  0.5955 -0.2495  0.1425
44704SOL    HW145837  13.615   6.248   3.194  0.6607 -0.2182  0.0496
44704SOL    HW245838  13.616   6.182   3.057  0.6554 -0.4005  0.1380
44705SOL     OW45839   5.675   2.515   6.052  0.3759 -0.0951  0.3593
44705SOL    HW145840   5.673   2.421   6.074 -1.2199  0.0056  0.7172
44705SOL    HW245841   5.704   2.517   5.961  2.8494 -0.7630  1.0331
44706SOL     OW45842   1.456   9.474  11.098 -0.3704  0.1283 -0.4012
44706SOL    HW145843   1.520   9.403  11.087  1.1924  1.5812 -1.2751
44706SOL    HW245844   1.452   9.489  11.192  0.3073 -0.2342 -0.3079
44707SOL     OW45845   5.855   2.993  12.399  0.1230 -0.9115  0.7778
44707SOL    HW145846   5.885   2.982  12.489 -1.6427 -1.7865  1.3177
44707SOL    HW245847   5.775   2.940  12.394 -2.3894  2.5669  0.0502
44708SOL     OW45848  10.654   8.915   5.963  0.3128  0.5216  0.0547
44708SOL    HW145849  10.723   8.936   5.901  0.5931  0.3504  0.3038
44708SOL    HW245850  10.651   8.989   6.023  2.9373 -1.0795  2.3877
44709SOL     OW45851   0.465   5.760  11.428 -0.0978  0.2048 -0.0614
44709SOL    HW145852   0.378   5.745  11.390 -0.3754  0.1209  0.5989
44709SOL    HW245853   0.525   5.753  11.354 -0.2664 -3.1961 -0.0488
44710SOL     OW45854   2.001   0.422   1.122 -0.0322  0.2886  0.2713
44710SOL    HW145855   1.989   0.336   1.081 -1.5064  0.5265  0.1543
44710SOL    HW245856   2.012   0.482   1.048 -1.7557  0.5810  0.2197
44711SOL     OW45857  10.912   7.876   6.868 -0.2558  0.5829  0.0027
44711SOL    HW145858  10.863   7.819   6.809  0.5721  0.2046 -0.3378
44711SOL    HW245859  10.940   7.949   6.814  0.2890  0.3619 -0.0195
44712SOL     OW45860   5.296   5.454   9.326 -0.1702  0.7069 -0.2736
44712SOL    HW145861   5.239   5.459   9.249 -0.6084  0.4561  0.0290
44712SOL    HW245862   5.253   5.510   9.391  0.8438  1.9010 -0.6066
44713SOL     OW45863   7.190   1.763   5.970 -0.5185 -0.0659  0.8402
44713SOL    HW145864   7.222   1.786   6.057 -1.3433 -1.8049  1.6376
44713SOL    HW245865   7.107   1.810   5.962 -0.2272  0.4525  0.7895
44714SOL     OW45866  13.645  13.003   7.276 -0.0358  0.1469  0.1016
44714SOL    HW145867  13.739  13.003   7.292  0.2379 -1.5139 -1.2781
44714SOL    HW245868  13.629  13.084   7.226  1.1790 -0.9517 -2.1931
44715SOL     OW45869   3.557   2.817   0.073 -0.2259  0.0813 -0.4269
44715SOL    HW145870   3.608   2.751   0.025  1.3415  0.1694  1.0363
44715SOL    HW245871   3.565   2.896   0.021  0.0473 -0.2329 -0.8723
44716SOL     OW45872   6.658   8.126  11.416 -0.5609  0.2408 -0.2477
44716SOL    HW145873   6.684   8.045  11.459 -1.3572  0.5333  0.8279
44716SOL    HW245874   6.732   8.185  11.427 -0.7607  0.3170  0.7630
44717SOL     OW45875   0.389   9.021   4.248  0.7010 -0.0322  0.1351
44717SOL    HW145876   0.398   9.087   4.317 -0.7427  0.1939  0.1416
44717SOL    HW245877   0.335   9.063   4.181  0.3487 -0.9570 -0.1804
44718SOL     OW45878   7.769   7.964   9.633 -0.3135  0.9240  0.1118
44718SOL    HW145879   7.794   8.056   9.642  0.7848  0.3924  4.0853
44718SOL    HW245880   7.686   7.957   9.681 -1.8368  0.2274 -2.4193
44719SOL     OW45881   8.358   4.587  10.935 -0.3353 -0.5929  0.2269
44719SOL    HW145882   8.425   4.625  10.992  1.9313 -0.1332 -2.5331
44719SOL    HW245883   8.391   4.500  10.914 -0.2569 -0.1373 -1.6703
44720SOL     OW45884   9.576   4.574   7.996 -0.1193  0.1071 -0.0738
44720SOL    HW145885   9.571   4.633   8.071  2.6682 -0.0151  0.2847
44720SOL    HW245886   9.577   4.486   8.035 -1.8727 -0.1370 -0.4860
44721SOL     OW45887   7.925   2.866  13.313  0.0806  0.0599  0.6260
44721SOL    HW145888   7.852   2.812  13.281 -0.2373  0.8730 -0.0488
44721SOL    HW245889   7.987   2.869  13.240  0.6520 -0.3482  1.0808
44722SOL     OW45890   9.999   5.676   9.327  0.5252  0.0021 -0.2909
44722SOL    HW145891   9.940   5.623   9.273  0.5512 -1.8121  1.3382
44722SOL    HW245892   9.944   5.743   9.366 -0.1067 -0.5641 -0.1994
44723SOL     OW45893  10.430   9.819   6.109 -0.1827  0.0201 -0.3613
44723SOL    HW145894  10.353   9.864   6.146  0.2594  0.1947  0.3535
44723SOL    HW245895  10.497   9.828   6.176 -0.3196 -2.4487  0.1913
44724SOL     OW45896   8.784   5.163   3.430 -0.1359  0.1876  0.4131
44724SOL    HW145897   8.769   5.084   3.379 -0.4316 -1.1077  2.4006
44724SOL    HW245898   8.871   5.193   3.403  0.5476 -1.5706  0.5212
44725SOL     OW45899  10.319   1.487   7.689 -0.1921 -0.1481  0.1015
44725SOL    HW145900  10.329   1.484   7.594  0.2050 -3.4599  0.1366
44725SOL    HW245901  10.405   1.514   7.721  0.3982 -1.2784 -0.4539
44726SOL     OW45902   0.744   5.939   8.839  0.1099  0.7642 -0.5196
44726SOL    HW145903   0.672   5.909   8.895 -0.7936  2.0510 -0.9465
44726SOL    HW245904   0.708   5.939   8.751  1.3571 -0.7215 -1.0798
44727SOL     OW45905   1.342  11.316   9.558  0.4672 -0.3475 -0.1960
44727SOL    HW145906   1.436  11.316   9.575  0.5328  1.1587 -0.4763
44727SOL    HW245907   1.302  11.284   9.640  1.1192  0.7718  0.5722
44728SOL     OW45908   5.464   0.644   4.232  0.5484 -0.1716  0.0690
44728SOL    HW145909   5.426   0.725   4.266  2.5796  1.4815 -1.3581
44728SOL    HW245910   5.395   0.578   4.244 -2.3104  2.3283 -1.2252
44729SOL     OW45911   2.849  12.868   6.432 -0.7730 -0.1550  0.1635
44729SOL    HW145912   2.806  12.893   6.350  1.7650 -2.1810 -1.9781
44729SOL    HW245913   2.781  12.822   6.482 -2.0709  0.0613 -1.3187
44730SOL     OW45914   6.514   2.400  10.338  0.2351  0.2908 -0.2849
44730SOL    HW145915   6.446   2.394  10.271 -0.1149 -1.3934  0.1552
44730SOL    HW245916   6.466   2.397  10.421  0.7993 -0.2256  0.0300
44731SOL     OW45917  10.595   3.334   2.865  0.1218  0.1693  0.3791
44731SOL    HW145918  10.652   3.407   2.838  1.9044 -1.1378  0.3916
44731SOL    HW245919  10.553   3.306   2.783  0.5927  0.2700  0.0956
44732SOL     OW45920   5.711   9.234   7.242  0.3584  0.3995 -0.1392
44732SOL    HW145921   5.734   9.193   7.159  0.1218 -0.4845  0.2192
44732SOL    HW245922   5.639   9.292   7.221  0.5331  0.4468 -0.6160
44733SOL     OW45923  10.596  11.126  11.816 -0.2685  0.1846  0.4606
44733SOL    HW145924  10.643  11.210  11.811 -0.3617  0.2580  0.7494
44733SOL    HW245925  10.572  11.119  11.908  0.6783 -0.6845  0.6546
44734SOL     OW45926   2.955   6.923   7.439  0.2628  0.0762  0.1723
44734SOL    HW145927   2.900   6.998   7.420  0.7925  0.5721  0.5384
44734SOL    HW245928   2.908   6.875   7.508  0.4675  0.7099  0.7628
44735SOL     OW45929  11.118   8.613   6.226  0.0657 -0.2256 -0.0148
44735SOL    HW145930  11.056   8.685   6.221  0.6179  0.2466 -0.2482
44735SOL    HW245931  11.165   8.615   6.142  0.4783 -0.4836  0.2029
44736SOL     OW45932   1.201   5.315   0.555 -0.0654  0.1784  0.8027
44736SOL    HW145933   1.239   5.329   0.468  0.3662 -0.1436  0.9337
44736SOL    HW245934   1.181   5.222   0.558  1.9225 -0.2807  1.8077
44737SOL     OW45935   9.771   6.788   1.213  0.3490  0.2106 -0.3269
44737SOL    HW145936   9.787   6.765   1.121 -0.3150 -1.1771 -0.1172
44737SOL    HW245937   9.762   6.883   1.213  0.1263  0.2026 -1.7327
44738SOL     OW45938  10.646   4.094  11.643 -0.5839  0.4276 -0.5329
44738SOL    HW145939  10.629   4.029  11.575 -0.9062 -0.7994  0.6938
44738SOL    HW245940  10.711   4.053  11.700  0.5375  1.8893 -0.6895
44739SOL     OW45941  11.114  11.441   9.472 -0.2435 -0.0179  0.4769
44739SOL    HW145942  11.031  11.436   9.424 -1.5172  1.6567  2.3712
44739SOL    HW245943  11.099  11.507   9.540  2.4622 -0.1087  1.2724
44740SOL     OW45944   3.812  10.079  10.332 -0.3009 -0.5014  0.8403
44740SOL    HW145945   3.878  10.015  10.306 -0.9013 -0.5835 -0.5571
44740SOL    HW245946   3.762  10.036  10.401 -0.0129 -1.1132  0.6712
44741SOL     OW45947   0.929   0.824   5.239  0.0221  0.3653 -0.2630
44741SOL    HW145948   0.974   0.840   5.156  1.8304 -1.4882  0.2761
44741SOL    HW245949   0.996   0.838   5.306 -1.0157  0.4296  0.7987
44742SOL     OW45950   8.097   6.089   1.471 -0.1706 -0.4669  0.5454
44742SOL    HW145951   8.097   6.004   1.428  0.3861 -0.5489  0.6961
44742SOL    HW245952   8.189   6.114   1.474 -0.3597  0.2858  0.2273
44743SOL     OW45953   3.635   9.851   8.943  0.4614  0.0074  0.3364
44743SOL    HW145954   3.656   9.944   8.940 -1.0119  0.3666  0.2430
44743SOL    HW245955   3.553   9.844   8.894 -0.1949 -1.1093  1.5334
44744SOL     OW45956   3.167  12.488   1.826  0.5952 -0.6404 -0.3835
44744SOL    HW145957   3.076  12.514   1.843  1.1025  0.7320  0.4133
44744SOL    HW245958   3.185  12.517   1.737  0.7771  0.7265  0.0777
44745SOL     OW45959   7.425   0.122   5.948 -0.6511  0.4328 -0.5908
44745SOL    HW145960   7.346   0.147   5.995 -0.8146 -0.7271 -0.2218
44745SOL    HW245961   7.396   0.059   5.882 -0.3653  1.7781 -2.0401
44746SOL     OW45962   3.127   9.148  12.617 -0.0422 -0.1893  0.4655
44746SOL    HW145963   3.121   9.240  12.640 -0.4830 -0.2636  0.6793
44746SOL    HW245964   3.138   9.146  12.522  2.2318  0.1438  0.6716
44747SOL     OW45965  11.593   6.552   8.414 -1.3833 -0.2858  0.2187
44747SOL    HW145966  11.585   6.632   8.362 -0.6520 -1.0730 -1.1607
44747SOL    HW245967  11.630   6.581   8.498 -1.5793  0.8639 -0.0825
44748SOL     OW45968  12.982   4.843   1.399  0.3163 -0.1210 -0.0316
44748SOL    HW145969  13.039   4.825   1.325  0.1396 -2.1507  0.2843
44748SOL    HW245970  13.014   4.786   1.469  2.0537  3.4026  2.3812
44749SOL     OW45971  10.704   0.607   4.581 -0.2163  0.1628  0.1266
44749SOL    HW145972  10.731   0.516   4.572 -1.7455 -0.1285 -3.0046
44749SOL    HW245973  10.782   0.653   4.610  2.1758 -1.3986 -3.1991
44750SOL     OW45974   3.886   7.145   6.268 -0.2492  0.0661 -0.2365
44750SOL    HW145975   3.810   7.203   6.264 -1.0558 -1.0136 -1.2893
44750SOL    HW245976   3.946   7.180   6.203 -0.3702  0.2104 -0.2717
44751SOL     OW45977   5.182   0.499   2.519  0.1050 -0.3283 -0.2352
44751SOL    HW145978   5.093   0.470   2.497  0.2272 -0.9353  0.0599
44751SOL    HW245979   5.237   0.460   2.452  0.2620 -0.7367  0.1280
44752SOL     OW45980   2.371   1.884   5.177  0.9552  0.1855  0.6063
44752SOL    HW145981   2.329   1.846   5.254  3.7767  0.2508  2.2894
44752SOL    HW245982   2.364   1.815   5.110 -0.8168 -0.1750  1.1044
44753SOL     OW45983  12.539   5.922   9.966 -0.0650  0.1476 -0.0591
44753SOL    HW145984  12.472   5.985   9.940 -1.3064 -0.5765  1.2687
44753SOL    HW245985  12.547   5.864   9.891 -0.1609  0.8441 -0.6255
44754SOL     OW45986   1.356  11.185   8.871 -0.3610 -0.8212 -0.2306
44754SOL    HW145987   1.277  11.203   8.922 -0.7038 -0.9963 -0.6872
44754SOL    HW245988   1.410  11.132   8.929  0.1350  0.6104  0.6888
44755SOL     OW45989   6.981  11.292   9.715 -0.1655  0.5006  0.2806
44755SOL    HW145990   6.914  11.235   9.752 -0.7494  0.8316 -0.2484
44755SOL    HW245991   6.961  11.379   9.750  0.7044  0.4016  1.0663
44756SOL     OW45992  12.748  10.692   0.149  0.0773 -0.2774 -0.3015
44756SOL    HW145993  12.772  10.780   0.176 -0.6753 -0.0571 -0.3328
44756SOL    HW245994  12.727  10.646   0.230  0.2610 -0.3646 -0.3029
44757SOL     OW45995   5.390  10.182   8.521  0.7387 -0.7453  0.9427
44757SOL    HW145996   5.391  10.140   8.607  0.1001 -0.7989  0.9260
44757SOL    HW245997   5.331  10.129   8.468  0.1514 -0.0058  0.8371
44758SOL     OW45998  12.030  11.306   9.007  0.3154 -0.0221  0.1274
44758SOL    HW145999  12.093  11.355   9.059 -1.4814  0.0895  2.3501
44758SOL    HW246000  12.082  11.238   8.964  1.8025 -0.6953  2.7905
44759SOL     OW46001   2.118   6.778  12.488 -0.0336  0.3729  0.6249
44759SOL    HW146002   2.104   6.690  12.453  1.0055  1.1930 -2.0842
44759SOL    HW246003   2.213   6.787  12.495 -0.1249  1.2942  0.8840
44760SOL     OW46004   0.282   8.231   6.567  0.1062 -0.0887 -0.4913
44760SOL    HW146005   0.343   8.158   6.566  0.9549  0.6099 -1.0654
44760SOL    HW246006   0.220   8.212   6.496  1.2400  0.4711 -1.6837
44761SOL     OW46007   8.070   4.249  13.493 -0.9167 -0.2117 -0.6808
44761SOL    HW146008   8.008   4.304  13.541  0.5771  1.1134 -0.1730
44761SOL    HW246009   8.106   4.307  13.426  0.4240 -0.6808 -0.3864
44762SOL     OW46010   6.220   0.034   3.097 -0.3239 -0.1194  0.0796
44762SOL    HW146011   6.182   0.122   3.093  0.3519  0.1385 -0.8999
44762SOL    HW246012   6.224   0.014   3.191 -0.0212  1.0995  0.3413
44763SOL     OW46013  13.207  13.673   8.818  0.1500  0.4133  0.4019
44763SOL    HW146014  13.153  13.606   8.858 -0.4284 -0.7065 -2.0760
44763SOL    HW246015  13.156  13.754   8.828  0.1498  0.2482  2.0425
44764SOL     OW46016   4.169   4.821   3.563 -0.3879 -0.3825  0.7011
44764SOL    HW146017   4.131   4.907   3.582  0.5248  0.4465 -0.9847
44764SOL    HW246018   4.261   4.829   3.590  0.0626 -0.3132 -0.7648
44765SOL     OW46019   8.588   4.209   6.311  0.2386  0.1597  0.4097
44765SOL    HW146020   8.504   4.164   6.303  0.3199  0.4147 -3.1584
44765SOL    HW246021   8.642   4.149   6.362 -1.4401 -0.9536  0.9840
44766SOL     OW46022   4.459   4.346   7.118  0.5678  0.2729 -0.3102
44766SOL    HW146023   4.493   4.309   7.037  1.8890  1.5901 -0.4138
44766SOL    HW246024   4.378   4.299   7.135  0.5641 -0.4140 -2.0902
44767SOL     OW46025  12.406   7.653   9.900  0.2102 -0.5238  0.2419
44767SOL    HW146026  12.374   7.676   9.988  1.2677  1.0072  0.2623
44767SOL    HW246027  12.397   7.558   9.896 -1.6342 -0.4593  1.2835
44768SOL     OW46028   1.959  11.384   3.428  0.1476 -0.1132  0.2812
44768SOL    HW146029   1.945  11.378   3.522  0.5148 -0.4152  0.3182
44768SOL    HW246030   1.938  11.296   3.395  0.5278 -0.1549  0.1493
44769SOL     OW46031   6.402   8.651   6.986  0.1170  0.1807  0.1179
44769SOL    HW146032   6.364   8.578   7.035  0.9015  0.0308  0.5317
44769SOL    HW246033   6.328   8.705   6.960 -0.5364 -1.0310 -0.6424
44770SOL     OW46034  10.612   4.985   1.946 -0.1385  0.0163 -0.7736
44770SOL    HW146035  10.599   5.044   2.020 -0.8429  0.0192 -0.8895
44770SOL    HW246036  10.687   4.931   1.971 -1.0112 -0.6967  0.4094
44771SOL     OW46037   6.980   0.763  11.403 -0.0788  0.4291  0.4728
44771SOL    HW146038   6.922   0.834  11.431  0.5897  0.6414  1.3807
44771SOL    HW246039   7.037   0.804  11.338  1.3868  1.2329  2.1568
44772SOL     OW46040  12.648   5.383   5.476 -0.4188  0.2237 -0.2696
44772SOL    HW146041  12.669   5.404   5.385 -0.5069 -0.1878 -0.3853
44772SOL    HW246042  12.721   5.328   5.506  0.1494  1.2125  0.2385
44773SOL     OW46043  10.987   3.651   2.035 -0.5913  0.5871 -0.0666
44773SOL    HW146044  11.075   3.663   2.000 -0.5078 -1.6286 -0.7667
44773SOL    HW246045  10.928   3.671   1.962 -0.6360  0.9151  0.0558
44774SOL     OW46046   8.422  13.084   7.165 -0.0812  0.5930 -0.1024
44774SOL    HW146047   8.493  13.053   7.221  0.1978  0.7601 -0.3577
44774SOL    HW246048   8.399  13.170   7.200 -1.1070 -0.0496  0.8331
44775SOL     OW46049   6.488   8.544   5.588  0.2556  0.0317 -0.6575
44775SOL    HW146050   6.554   8.525   5.655 -0.9317 -0.0079  0.5501
44775SOL    HW246051   6.512   8.631   5.556 -0.3655  1.0276  1.4036
44776SOL     OW46052  12.060   7.430   0.793  0.2273 -0.3668 -0.0661
44776SOL    HW146053  12.040   7.343   0.759  1.4242 -0.8962  0.5323
44776SOL    HW246054  12.148   7.449   0.760  0.1669  0.4214  0.2007
44777SOL     OW46055   3.034   4.255   4.077 -0.0545  0.1550  0.5163
44777SOL    HW146056   3.034   4.288   4.167 -0.6078  0.0105  0.5704
44777SOL    HW246057   3.097   4.183   4.077 -0.4457 -0.1920  0.9169
44778SOL     OW46058   6.658   0.731  11.987 -0.2986  0.1438 -0.2197
44778SOL    HW146059   6.652   0.821  12.020 -3.1881 -0.6217  1.6410
44778SOL    HW246060   6.585   0.722  11.926 -0.8395 -1.3117  0.6074
44779SOL     OW46061   6.746  11.461   2.205 -0.3594 -0.2461 -0.5123
44779SOL    HW146062   6.834  11.498   2.194 -0.4706 -0.1498 -1.1776
44779SOL    HW246063   6.695  11.531   2.246 -0.1692 -0.2336 -0.2998
44780SOL     OW46064  11.872   7.512   6.782  0.0285 -0.6454 -0.5321
44780SOL    HW146065  11.871   7.603   6.809  1.1214  0.2647 -3.2773
44780SOL    HW246066  11.895   7.464   6.862 -2.2706  1.2177  1.3972
44781SOL     OW46067   9.281   1.990   4.835  0.0448  0.1105  0.5896
44781SOL    HW146068   9.198   2.037   4.829 -0.6835 -1.1217  0.7350
44781SOL    HW246069   9.332   2.039   4.900 -0.3028  1.2372  0.0528
44782SOL     OW46070   3.972   7.622   3.959 -0.4801 -0.1590 -0.4405
44782SOL    HW146071   3.989   7.560   3.888  1.5946  0.4243 -0.5184
44782SOL    HW246072   4.047   7.613   4.017 -2.2183 -0.7640  1.8470
44783SOL     OW46073   1.944   7.781   9.981 -0.2047  0.2094  0.4040
44783SOL    HW146074   1.867   7.727   9.999 -1.0077  0.9800 -0.5723
44783SOL    HW246075   1.936   7.803   9.888  0.5410  1.3156  0.5809
44784SOL     OW46076   0.784   5.846   0.693  0.0509 -0.6881  0.1968
44784SOL    HW146077   0.709   5.828   0.750 -0.9660  0.1643 -0.8334
44784SOL    HW246078   0.773   5.938   0.667 -0.1413 -1.3596 -2.2663
44785SOL     OW46079   3.174   2.953  10.673 -0.1105  0.2914  0.2250
44785SOL    HW146080   3.238   2.927  10.606  1.7524  0.0026  2.0099
44785SOL    HW246081   3.128   2.872  10.695 -0.2419  0.2441 -0.2201
44786SOL     OW46082  12.445  10.628   7.674 -0.1074  0.2655 -0.4835
44786SOL    HW146083  12.369  10.591   7.718 -1.1052  2.4003 -0.3076
44786SOL    HW246084  12.470  10.703   7.727  1.5448  0.1865 -1.0843
44787SOL     OW46085   9.118   6.472   9.655 -0.0260 -0.2023 -0.3531
44787SOL    HW146086   9.102   6.487   9.562  0.6013 -2.2470 -0.8285
44787SOL    HW246087   9.087   6.383   9.671  0.0467  0.0441  1.3650
44788SOL     OW46088   4.320   1.537  10.080  0.0661 -0.0094  0.1363
44788SOL    HW146089   4.234   1.513  10.044 -0.5098  0.3162  1.2274
44788SOL    HW246090   4.364   1.583  10.009 -1.1044  0.8009 -0.1015
44789SOL     OW46091   0.760   7.192   5.605 -0.2384  0.2812 -0.0462
44789SOL    HW146092   0.672   7.196   5.568 -1.0819 -1.2500  1.6120
44789SOL    HW246093   0.746   7.199   5.700  1.3563 -0.5938  0.2904
44790SOL     OW46094  12.104   7.803   7.694 -0.2556  0.2773  0.7613
44790SOL    HW146095  12.089   7.877   7.752 -1.4169 -0.8366  1.9176
44790SOL    HW246096  12.162   7.838   7.626 -0.6418  2.1881  1.3629
44791SOL     OW46097  13.685   2.920   6.120  0.2093 -0.0688  0.1871
44791SOL    HW146098  13.662   2.884   6.206 -0.5992  0.2153  0.1022
44791SOL    HW246099  13.615   2.889   6.062  0.2504  0.4975 -0.1737
44792SOL     OW46100  13.155  10.470   0.622 -0.4087  0.2249 -0.5369
44792SOL    HW146101  13.250  10.457   0.616 -0.3737 -0.7210  1.2827
44792SOL    HW246102  13.118  10.390   0.586 -0.4733  0.1200 -0.2436
44793SOL     OW46103   2.074   4.490   5.551 -0.0200  0.0238  0.4755
44793SOL    HW146104   1.988   4.464   5.519  0.9276 -1.3537 -1.0913
44793SOL    HW246105   2.061   4.503   5.645 -2.3138  1.6251  0.0286
44794SOL     OW46106  10.573   1.178   7.073  0.1610 -0.2479 -0.2725
44794SOL    HW146107  10.533   1.095   7.047  0.3037 -0.6372  0.6874
44794SOL    HW246108  10.513   1.245   7.042  0.0707 -0.7043 -1.1093
44795SOL     OW46109  13.460   2.935   1.118 -0.1456  0.8177  0.0841
44795SOL    HW146110  13.475   2.899   1.030 -1.0908  1.7087 -0.4654
44795SOL    HW246111  13.412   3.016   1.102  2.0941  2.4846  1.2563
44796SOL     OW46112   7.594   7.211  12.311  0.2222  0.1544  1.0902
44796SOL    HW146113   7.506   7.190  12.278  1.2469 -2.6927 -0.1181
44796SOL    HW246114   7.621   7.133  12.358  1.7701  1.3827  2.3485
44797SOL     OW46115   4.081  10.139   0.956  0.3349 -0.2245 -0.5557
44797SOL    HW146116   3.994  10.150   0.992  0.1244  0.3853 -1.2182
44797SOL    HW246117   4.138  10.191   1.013  0.0378  0.5580 -0.9448
44798SOL     OW46118   1.541   5.454   4.623 -0.0116 -0.0629 -0.0181
44798SOL    HW146119   1.619   5.495   4.662  1.2833 -0.1023 -2.3912
44798SOL    HW246120   1.549   5.361   4.647 -0.4336  0.2548  1.4255
44799SOL     OW46121  10.147  13.591   6.861 -0.3508 -0.1229  0.0237
44799SOL    HW146122  10.188  13.571   6.946 -1.0567 -1.2876  0.1182
44799SOL    HW246123  10.162  13.684   6.849 -0.5922  0.1671  1.6327
44800SOL     OW46124   5.845  13.684   7.182 -0.3416 -0.1785  0.8236
44800SOL    HW146125   5.845  13.597   7.142 -1.0200 -0.4455  1.3801
44800SOL    HW246126   5.928  13.689   7.229 -0.7947 -0.9868  1.7415
44801SOL     OW46127   1.470   0.476   2.472  0.0019 -0.1796 -0.0826
44801SOL    HW146128   1.377   0.460   2.456  0.1354  1.8992 -4.4250
44801SOL    HW246129   1.474   0.563   2.511  0.1494 -1.7957  3.9369
44802SOL     OW46130   0.406   3.715   3.301 -0.7511  0.0591  0.6388
44802SOL    HW146131   0.408   3.701   3.206  0.5640  2.0593  0.3161
44802SOL    HW246132   0.312   3.725   3.321 -1.1798 -1.8600 -0.1409
44803SOL     OW46133  11.389  10.345   2.059  0.0754  0.2209 -0.1638
44803SOL    HW146134  11.391  10.304   1.972  0.2381 -0.6811  0.2439
44803SOL    HW246135  11.428  10.279   2.117 -0.8811  0.4213  0.7434
44804SOL     OW46136   1.480  13.437   4.337  0.2796  0.2398  0.4458
44804SOL    HW146137   1.532  13.357   4.343 -1.5444 -0.9609  1.0587
44804SOL    HW246138   1.436  13.431   4.252 -0.6486  0.0667  0.9263
44805SOL     OW46139   9.826   6.929   9.783 -0.1695  0.0848  0.1139
44805SOL    HW146140   9.917   6.960   9.781  0.0212 -0.4929 -0.4380
44805SOL    HW246141   9.814   6.897   9.873 -0.4144  1.8395  0.7506
44806SOL     OW46142   7.537   4.807   1.084  0.3264 -0.1210  0.3194
44806SOL    HW146143   7.452   4.778   1.049  0.4237  0.8377 -0.7750
44806SOL    HW246144   7.550   4.753   1.162  0.5155 -3.0721 -1.5785
44807SOL     OW46145   9.803  11.003   8.990  0.0990 -0.1708  0.0462
44807SOL    HW146146   9.763  11.064   9.052  0.0408 -0.7484  0.5813
44807SOL    HW246147   9.758  10.920   9.005  0.8084 -0.5777 -0.0360
44808SOL     OW46148   5.339   9.716   0.594  0.6474 -0.5718 -0.2320
44808SOL    HW146149   5.399   9.791   0.602  0.2896 -0.2279 -0.7076
44808SOL    HW246150   5.298   9.728   0.508  1.7544 -2.1821 -1.0296
44809SOL     OW46151   7.678   6.801   5.669  0.6232 -0.2447 -0.0433
44809SOL    HW146152   7.644   6.715   5.645  1.2231 -0.0725 -1.6481
44809SOL    HW246153   7.758   6.811   5.617 -0.3418  1.9541 -1.2710
44810SOL     OW46154   7.250  12.357   3.188 -0.3585  0.2935 -0.0843
44810SOL    HW146155   7.313  12.367   3.259 -0.3853 -0.1045 -0.0074
44810SOL    HW246156   7.235  12.447   3.158 -0.3090  0.4576  0.3732
44811SOL     OW46157   1.110   8.380   7.350 -1.0982 -0.4996 -0.6111
44811SOL    HW146158   1.165   8.442   7.301 -1.0498 -0.7093 -0.8208
44811SOL    HW246159   1.171   8.314   7.382 -1.0568 -0.1095  0.1397
44812SOL     OW46160   7.364   2.430  12.846 -0.0477  0.1143  0.5483
44812SOL    HW146161   7.409   2.484  12.781 -1.4411 -0.1926 -0.7290
44812SOL    HW246162   7.430   2.411  12.912  1.4784  0.2460 -0.8910
44813SOL     OW46163   7.136  11.352   9.210 -0.3215  0.3494  0.1304
44813SOL    HW146164   7.128  11.371   9.304  0.6514 -0.6740  0.4492
44813SOL    HW246165   7.117  11.258   9.204  1.2677  0.0449 -0.4543
44814SOL     OW46166  12.273  10.876   0.846 -0.0176 -0.0236 -0.0893
44814SOL    HW146167  12.247  10.784   0.839  1.0776 -0.4895  1.3747
44814SOL    HW246168  12.345  10.875   0.910 -0.7779  1.9991  0.8715
44815SOL     OW46169   3.020   0.345   6.625  0.4156 -0.1668  0.5063
44815SOL    HW146170   3.094   0.303   6.669 -1.3873 -3.0962  0.9838
44815SOL    HW246171   2.987   0.278   6.564 -0.5414  1.8284 -1.3154
44816SOL     OW46172  11.364   4.401   8.480 -0.3622 -0.3922 -0.7056
44816SOL    HW146173  11.454   4.381   8.453 -0.1112 -0.0147 -0.1851
44816SOL    HW246174  11.359   4.496   8.478 -0.1617 -0.3148  1.0459
44817SOL     OW46175   2.671   9.537   3.441  0.1237 -0.1626 -1.0419
44817SOL    HW146176   2.714   9.477   3.380  0.6556  0.7625 -1.5973
44817SOL    HW246177   2.616   9.481   3.495 -0.4833 -0.9893 -2.4738
44818SOL     OW46178   0.672   0.353   2.732 -0.7162 -0.1285  0.0047
44818SOL    HW146179   0.700   0.292   2.800 -1.3224  0.5168  0.8635
44818SOL    HW246180   0.676   0.439   2.774  1.1439  0.5861 -1.4972
44819SOL     OW46181   4.837  11.103   6.825  0.3258 -0.0064 -0.4036
44819SOL    HW146182   4.756  11.117   6.874  1.1199  0.3081  0.8467
44819SOL    HW246183   4.830  11.013   6.793 -1.0878  0.4288 -1.4411
44820SOL     OW46184   2.282   4.811  10.663  0.2636  0.4856  0.4109
44820SOL    HW146185   2.289   4.887  10.721 -1.1222  0.2800  0.8848
44820SOL    HW246186   2.188   4.797  10.654  0.4954 -0.6083 -0.4243
44821SOL     OW46187   5.849   9.372   5.628  0.1190 -0.2101 -0.3229
44821SOL    HW146188   5.814   9.408   5.710  0.7018  2.7180 -1.2581
44821SOL    HW246189   5.826   9.279   5.632 -0.1830 -0.1341  2.9759
44822SOL     OW46190   3.883   3.181   8.213  0.3243 -0.1946  0.0157
44822SOL    HW146191   3.973   3.199   8.186  0.1065 -0.0699 -0.6446
44822SOL    HW246192   3.843   3.141   8.136  0.1586 -1.3999  0.7134
44823SOL     OW46193   4.843   9.191   6.522  0.6384 -0.0957  0.3090
44823SOL    HW146194   4.800   9.196   6.437 -0.5187  1.9742  0.9643
44823SOL    HW246195   4.781   9.144   6.578  0.9971 -0.6286  0.2715
44824SOL     OW46196   9.319   2.401   0.567 -0.6890 -0.2990  0.3744
44824SOL    HW146197   9.409   2.410   0.600  0.0089 -1.7052 -0.9785
44824SOL    HW246198   9.287   2.490   0.557  1.2838  0.3341 -0.9393
44825SOL     OW46199   3.094   3.655   6.683 -0.3060  0.0117  0.3337
44825SOL    HW146200   3.116   3.625   6.594  0.8508  0.6571  0.3943
44825SOL    HW246201   3.032   3.589   6.715 -0.0687 -0.7051 -0.6233
44826SOL     OW46202   9.124   0.446   0.713 -0.3484  0.3394 -0.2633
44826SOL    HW146203   9.104   0.353   0.702  1.5632 -0.1195 -0.1667
44826SOL    HW246204   9.057   0.479   0.772 -1.0058 -0.9919 -0.2451
44827SOL     OW46205  10.462   6.935  12.984 -0.0325  0.1743 -0.1960
44827SOL    HW146206  10.409   6.860  13.012 -0.9224  0.6282 -0.6324
44827SOL    HW246207  10.551   6.900  12.978 -0.6967 -1.3661 -2.2379
44828SOL     OW46208  10.998  11.166  11.331 -0.0272 -0.3353 -0.3545
44828SOL    HW146209  10.996  11.258  11.356 -0.1287 -0.1480 -1.0576
44828SOL    HW246210  11.082  11.154  11.288  0.1978 -0.6904  0.1645
44829SOL     OW46211   7.485  11.595  11.896 -0.6120  0.0419  0.2676
44829SOL    HW146212   7.566  11.553  11.925  0.2388  0.7564 -0.9700
44829SOL    HW246213   7.453  11.643  11.973 -0.4509 -1.1176  1.0695
44830SOL     OW46214  11.297  12.065  11.007 -0.6190 -0.2391  0.6481
44830SOL    HW146215  11.381  12.095  11.041  0.5777 -0.6869 -1.7161
44830SOL    HW246216  11.250  12.145  10.984 -1.2934  0.0542  2.8328
44831SOL     OW46217  11.681  12.995   2.508 -0.0644 -0.1595  1.0425
44831SOL    HW146218  11.688  13.048   2.587 -1.5996  0.6564  0.6699
44831SOL    HW246219  11.603  13.028   2.464  0.1477 -1.3289 -0.2750
44832SOL     OW46220   1.417   4.628  12.757  0.1098 -0.1208 -0.3654
44832SOL    HW146221   1.423   4.715  12.718 -2.4238  0.5281  0.4657
44832SOL    HW246222   1.489   4.624  12.820 -0.5664  1.9820  0.6176
44833SOL     OW46223   5.747   6.068   2.748 -0.1876 -0.5803  0.0466
44833SOL    HW146224   5.810   5.997   2.742 -0.5325 -0.9060  0.2454
44833SOL    HW246225   5.662   6.024   2.754 -0.5205 -0.1454 -1.1757
44834SOL     OW46226  11.079  11.853   7.478 -0.4534  0.1961  0.1828
44834SOL    HW146227  11.024  11.842   7.401 -1.2401 -1.1243  0.8835
44834SOL    HW246228  11.018  11.862   7.551  0.2651  0.2641  0.7987
44835SOL     OW46229  11.525  10.371  11.582 -0.1623  0.3336  0.5877
44835SOL    HW146230  11.449  10.428  11.591  0.5003  1.6599 -1.5117
44835SOL    HW246231  11.493  10.295  11.534 -0.1300  1.0287 -0.5577
44836SOL     OW46232  10.684   8.788   8.182  0.7368 -0.4997 -0.6214
44836SOL    HW146233  10.595   8.753   8.178  0.9871 -1.0784 -1.2026
44836SOL    HW246234  10.738   8.714   8.209  1.1639 -0.3783 -1.1291
44837SOL     OW46235   0.482   9.953   2.574 -0.4129  0.1314 -0.1131
44837SOL    HW146236   0.544  10.026   2.578 -1.0555  0.7325 -0.6795
44837SOL    HW246237   0.529   9.882   2.532 -0.0033  0.4594 -0.2089
44838SOL     OW46238   6.576  12.525  11.696  0.1047 -0.3287  0.0886
44838SOL    HW146239   6.564  12.506  11.788  1.7714  0.2082  0.4500
44838SOL    HW246240   6.564  12.620  11.689  0.9466 -0.2252 -0.0626
44839SOL     OW46241   8.051   3.330  11.831 -0.3073  0.8928  0.6398
44839SOL    HW146242   7.994   3.403  11.855 -2.6370 -0.8513  0.7623
44839SOL    HW246243   8.121   3.370  11.780 -1.5493  3.1951  0.6045
44840SOL     OW46244  11.655  13.049   8.276  0.3677  0.0254  0.0556
44840SOL    HW146245  11.615  12.987   8.216 -2.2030 -1.3710  2.9133
44840SOL    HW246246  11.748  13.028   8.274  0.2283 -0.6110 -2.5887
44841SOL     OW46247  10.651   4.236   3.743 -0.4573 -0.1022  0.0656
44841SOL    HW146248  10.623   4.290   3.670  0.3201  0.5620  0.2482
44841SOL    HW246249  10.721   4.181   3.708 -1.4643 -1.2676 -0.2081
44842SOL     OW46250   4.272   1.996   6.129  0.2831 -0.5483 -0.3572
44842SOL    HW146251   4.244   2.025   6.042 -1.2626 -0.0770  0.2542
44842SOL    HW246252   4.195   1.953   6.165  0.2051  1.0259  1.5291
44843SOL     OW46253   7.257   4.483  10.751 -0.3533 -0.2728 -0.0231
44843SOL    HW146254   7.170   4.524  10.749 -0.0023  0.5269 -2.9236
44843SOL    HW246255   7.302   4.526  10.824 -1.2446  1.8611 -0.6447
44844SOL     OW46256  11.703   6.805   6.449  0.5448  0.1414 -0.0758
44844SOL    HW146257  11.611   6.828   6.458  0.3819 -0.8881  1.0113
44844SOL    HW246258  11.705   6.710   6.452  1.8443  0.1701  2.2349
44845SOL     OW46259  10.118   1.679   6.181 -0.0405  0.2211  0.3704
44845SOL    HW146260  10.164   1.740   6.123  0.2723 -0.3289  0.0311
44845SOL    HW246261  10.026   1.704   6.174  0.2573  1.8541  1.6729
44846SOL     OW46262   7.152   7.325   8.880 -0.6077 -0.7375  0.6325
44846SOL    HW146263   7.064   7.314   8.918 -1.3962  1.1582 -0.4803
44846SOL    HW246264   7.194   7.388   8.938 -1.3232  1.1044 -0.7448
44847SOL     OW46265   1.973   0.207   0.949  0.0293 -0.0750  0.2090
44847SOL    HW146266   2.048   0.188   0.893  0.4403  2.1323 -0.0992
44847SOL    HW246267   1.900   0.218   0.889  0.0614  0.4385  0.2588
44848SOL     OW46268  13.045   3.894   8.364 -0.1070 -0.5216 -0.3410
44848SOL    HW146269  13.048   3.980   8.406  1.6461 -0.9404  0.4934
44848SOL    HW246270  12.987   3.842   8.420  0.6910 -0.5210  0.5162
44849SOL     OW46271   5.999   1.977   9.934  0.3643 -0.2392 -0.7079
44849SOL    HW146272   5.904   1.982   9.925  0.0415 -0.0388  1.9034
44849SOL    HW246273   6.023   1.892   9.897 -1.0505 -0.9154 -0.1260
44850SOL     OW46274   9.472   8.891   0.637 -0.6831 -0.3539  0.0133
44850SOL    HW146275   9.447   8.966   0.692  0.5927 -0.1163  0.2808
44850SOL    HW246276   9.485   8.819   0.699  0.3112 -0.2006 -0.0010
44851SOL     OW46277  13.292  13.017   6.497 -0.7561 -0.3568  0.0852
44851SOL    HW146278  13.386  12.998   6.494 -0.5391  0.7964 -2.0647
44851SOL    HW246279  13.262  12.976   6.578  1.5707 -0.8502  0.7649
44852SOL     OW46280   0.456  10.003   5.728 -0.3906  0.6397  0.4761
44852SOL    HW146281   0.501   9.978   5.809  1.1823  0.8955 -0.2737
44852SOL    HW246282   0.495   9.948   5.661  0.8603  2.7794 -0.6713
44853SOL     OW46283   6.903   5.182   1.785 -0.1748 -0.0445 -0.2442
44853SOL    HW146284   6.814   5.145   1.781 -0.0391 -0.5068  0.6241
44853SOL    HW246285   6.901   5.239   1.862  0.2073  0.1333 -0.3677
44854SOL     OW46286   1.279   2.943  13.471  0.3729 -0.7697 -0.5072
44854SOL    HW146287   1.183   2.949  13.468  0.2737 -0.7114  1.4897
44854SOL    HW246288   1.297   2.851  13.493  0.5162  0.0911  3.7149
44855SOL     OW46289   2.167   1.153   8.356 -0.1438  0.8334  0.1452
44855SOL    HW146290   2.120   1.214   8.414 -0.9771  0.9089 -0.5843
44855SOL    HW246291   2.180   1.202   8.275  0.2251  0.4295 -0.0465
44856SOL     OW46292   0.893   4.060  10.185 -0.0338  0.5965 -0.1862
44856SOL    HW146293   0.984   4.085  10.166 -0.0324  0.0728 -0.9060
44856SOL    HW246294   0.887   3.969  10.156 -1.0606  0.9259 -1.0686
44857SOL     OW46295   0.564   4.254   5.077  0.0551  0.1371  0.1294
44857SOL    HW146296   0.512   4.186   5.035 -0.6172  1.4316 -1.2172
44857SOL    HW246297   0.513   4.280   5.153 -0.2830  0.0175 -0.0573
44858SOL     OW46298   6.199   8.484   3.928 -0.0708 -0.0862 -0.9049
44858SOL    HW146299   6.163   8.406   3.971 -0.0582 -0.0597 -0.8457
44858SOL    HW246300   6.290   8.461   3.908 -0.4534 -0.5790 -2.1187
44859SOL     OW46301  13.387   6.484   6.471  0.1671  0.1294  0.1795
44859SOL    HW146302  13.333   6.427   6.527 -0.4097  0.1930 -0.3037
44859SOL    HW246303  13.362   6.573   6.495 -0.6230  0.1534 -0.6852
44860SOL     OW46304   1.440   8.075   9.877 -0.5066  0.1436  0.5337
44860SOL    HW146305   1.368   8.014   9.895  1.8102 -2.5753  1.3931
44860SOL    HW246306   1.436   8.139   9.948 -2.1600  0.1746  0.4370
44861SOL     OW46307  10.230   4.865   6.722  0.0323  0.4077  1.2666
44861SOL    HW146308  10.250   4.772   6.736 -0.1333  0.0134 -0.7411
44861SOL    HW246309  10.313   4.910   6.742  0.5343 -0.3358  0.9271
44862SOL     OW46310  13.276   0.904   2.974  0.5686 -0.3677 -0.2187
44862SOL    HW146311  13.352   0.963   2.972  0.4399 -0.2175 -1.3953
44862SOL    HW246312  13.244   0.903   2.884 -1.7976  0.8079  0.5221
44863SOL     OW46313   6.761  11.539   7.070 -0.7980  0.2259  0.4121
44863SOL    HW146314   6.794  11.472   7.010  2.3701  1.8837  0.1133
44863SOL    HW246315   6.768  11.621   7.021 -1.5743  1.1872  1.8273
44864SOL     OW46316   9.057   5.505   5.073  0.0658 -0.2661 -0.1063
44864SOL    HW146317   9.078   5.484   4.982 -0.9454 -0.0603 -0.3944
44864SOL    HW246318   9.101   5.588   5.089  0.2433 -0.2993 -0.4033
44865SOL     OW46319   6.986   3.779   9.697  0.4548 -0.7802 -0.3825
44865SOL    HW146320   7.077   3.750   9.693  1.2390  1.5750 -3.0574
44865SOL    HW246321   6.941   3.726   9.631  0.5585 -0.0274 -1.0709
44866SOL     OW46322  10.449   2.707   1.233 -0.1351  0.0950  0.3945
44866SOL    HW146323  10.464   2.749   1.318  0.8127 -0.2301  0.3929
44866SOL    HW246324  10.459   2.613   1.250 -3.5813 -0.3712  0.7077
44867SOL     OW46325   4.589  10.750  11.156  0.1726 -0.1321 -0.2204
44867SOL    HW146326   4.592  10.775  11.249  1.8418 -1.3393  0.0851
44867SOL    HW246327   4.496  10.747  11.136 -0.2513 -0.4646  1.5874
44868SOL     OW46328   3.948   5.953  12.076 -0.1773  0.4874 -0.1985
44868SOL    HW146329   3.907   5.989  12.155  0.1124  0.0592  0.1524
44868SOL    HW246330   3.928   6.017  12.007  0.9198  1.6870  0.5514
44869SOL     OW46331  10.202  11.451   3.023 -0.2463 -0.4031  0.3279
44869SOL    HW146332  10.142  11.417   3.090 -0.1865 -0.1980  0.4864
44869SOL    HW246333  10.225  11.538   3.054  0.9543 -0.8742  0.8131
44870SOL     OW46334  11.494   7.368  12.084  0.0618 -0.0660  0.2411
44870SOL    HW146335  11.548   7.315  12.026 -0.7279  0.6628 -1.2186
44870SOL    HW246336  11.414   7.385  12.034 -0.6215  0.6547  1.5215
44871SOL     OW46337   2.656   4.499   7.217  0.0666  0.0549  0.7467
44871SOL    HW146338   2.588   4.462   7.161 -0.4406  1.7074  0.2065
44871SOL    HW246339   2.738   4.466   7.181 -0.1566  1.9581 -1.7723
44872SOL     OW46340  10.442   0.644  13.290  0.0718 -0.0700  0.3225
44872SOL    HW146341  10.412   0.614  13.204 -1.7040 -0.4802  1.0495
44872SOL    HW246342  10.428   0.569  13.347 -2.8023  1.4580  1.8318
44873SOL     OW46343  11.400   9.181   0.918  0.0663 -0.0508  0.2823
44873SOL    HW146344  11.407   9.272   0.948  0.1997 -0.0501  0.2496
44873SOL    HW246345  11.396   9.129   0.998  1.1287 -0.1085  0.3125
44874SOL     OW46346   2.703  12.287   8.928 -0.2020  0.6106  0.2120
44874SOL    HW146347   2.752  12.344   8.988  0.7828  1.1858 -1.0985
44874SOL    HW246348   2.670  12.217   8.984 -0.7688  2.0202  1.7236
44875SOL     OW46349   8.002   5.119   9.189 -0.5333  0.3457 -0.0637
44875SOL    HW146350   8.062   5.045   9.198  0.9913  1.5400  0.0119
44875SOL    HW246351   7.954   5.101   9.108  0.1023 -0.5176 -0.2610
44876SOL     OW46352   5.037   8.818  11.183  0.1989  0.0113 -0.6210
44876SOL    HW146353   5.073   8.858  11.104 -1.9485  0.8891 -1.2303
44876SOL    HW246354   4.967   8.762  11.151 -1.4084  1.1769  0.6717
44877SOL     OW46355   4.561   2.693   5.294  0.0133  0.4082  0.0127
44877SOL    HW146356   4.529   2.734   5.375  0.4386 -1.2884  1.0964
44877SOL    HW246357   4.566   2.600   5.315  1.4205  0.0865 -1.5466
44878SOL     OW46358   5.773   1.006   2.601  0.1980 -0.1859 -0.5711
44878SOL    HW146359   5.708   1.044   2.542 -0.2718  0.6057  0.4212
44878SOL    HW246360   5.857   1.030   2.563 -0.0945  1.0223 -0.4972
44879SOL     OW46361   2.294   5.629   2.312 -0.3835 -0.0705  0.7835
44879SOL    HW146362   2.232   5.565   2.276 -1.2274  0.0631  1.9493
44879SOL    HW246363   2.377   5.609   2.268 -1.3085 -0.0084 -1.1067
44880SOL     OW46364   6.723   9.264   5.191 -0.6075  0.2287 -0.1716
44880SOL    HW146365   6.739   9.335   5.252 -0.7028  0.1067 -0.0038
44880SOL    HW246366   6.794   9.202   5.207 -0.3648  0.4154 -0.5131
44881SOL     OW46367   6.175   3.061   5.204 -0.4152  0.2916 -0.3580
44881SOL    HW146368   6.159   2.980   5.156  0.7346  0.3217 -0.8241
44881SOL    HW246369   6.147   3.130   5.143  1.3179  0.3444 -1.1772
44882SOL     OW46370  11.345  13.398  12.574  0.1034 -0.8669  0.3732
44882SOL    HW146371  11.321  13.416  12.665 -0.5270 -1.4564  0.3391
44882SOL    HW246372  11.381  13.480  12.541  1.5067 -0.9940  1.5172
44883SOL     OW46373  12.006   3.957   6.200 -0.1908 -0.0325  0.7521
44883SOL    HW146374  12.006   4.004   6.283 -0.8445  0.0878  0.6867
44883SOL    HW246375  11.938   3.891   6.210 -1.7201  1.3012 -0.4205
44884SOL     OW46376   7.322  13.437   1.629 -0.0925  1.0176 -0.4539
44884SOL    HW146377   7.281  13.360   1.667 -0.7493 -0.3917 -3.6879
44884SOL    HW246378   7.250  13.499   1.615 -0.1187  0.9406 -0.6751
44885SOL     OW46379  13.374  11.105   8.786 -0.0856  0.6344 -1.2610
44885SOL    HW146380  13.314  11.097   8.860  0.2007  0.8757 -1.0013
44885SOL    HW246381  13.388  11.015   8.757  1.7722  0.2516  0.5605
44886SOL     OW46382  13.024   7.131   4.374 -0.1490  0.0618  0.1113
44886SOL    HW146383  13.080   7.064   4.336  0.8794  1.2648 -0.5412
44886SOL    HW246384  13.067   7.155   4.456 -2.2083 -2.3246  2.0674
44887SOL     OW46385  10.874   3.454   4.905 -0.5264  0.5464 -0.4486
44887SOL    HW146386  10.925   3.421   4.979  1.9906  0.5278 -2.0688
44887SOL    HW246387  10.878   3.549   4.913  3.2368  0.7608 -2.5328
44888SOL     OW46388   1.985   2.697   4.712  0.3791  0.0575 -0.0250
44888SOL    HW146389   1.961   2.774   4.763  0.5214  1.0588 -1.4021
44888SOL    HW246390   2.080   2.690   4.722  0.4715  0.5318 -0.4863
44889SOL     OW46391   7.792   4.540   0.099 -0.0042  0.1289 -0.3308
44889SOL    HW146392   7.735   4.535   0.175 -0.8935 -1.2078 -1.0469
44889SOL    HW246393   7.881   4.530   0.135 -0.4694 -1.6373  0.4583
44890SOL     OW46394   4.560   7.708   8.671 -0.1480  0.5793 -0.4628
44890SOL    HW146395   4.547   7.803   8.679  0.6557  0.7168 -0.6956
44890SOL    HW246396   4.511   7.671   8.744  2.1642  1.3849  1.6156
44891SOL     OW46397   2.249  10.625   2.118 -0.1341 -0.3289  0.4215
44891SOL    HW146398   2.255  10.540   2.161  2.5431 -0.5266 -0.1854
44891SOL    HW246399   2.224  10.604   2.028 -0.9460 -0.3180  0.6349
44892SOL     OW46400  10.777   8.669   1.859 -0.3338  0.1184  0.0271
44892SOL    HW146401  10.743   8.648   1.946 -0.3950 -0.2906 -0.0909
44892SOL    HW246402  10.836   8.596   1.838  1.4369  1.3225  0.6560
44893SOL     OW46403   9.400  11.216   8.483 -0.4424  0.5310 -0.2722
44893SOL    HW146404   9.479  11.269   8.495  0.5172 -0.9900  0.5165
44893SOL    HW246405   9.342  11.242   8.555  0.5831 -0.3962  0.9492
44894SOL     OW46406   3.043   3.193   9.546  0.2015  0.1636 -0.5399
44894SOL    HW146407   2.950   3.171   9.546 -0.5920  2.9816  1.7668
44894SOL    HW246408   3.062   3.219   9.456 -1.5628  0.7570 -0.7687
44895SOL     OW46409   4.978   5.313   7.796 -0.0293  0.4428 -0.2460
44895SOL    HW146410   4.993   5.407   7.786  0.7240  0.4025  0.3282
44895SOL    HW246411   4.892   5.297   7.757  0.5179  1.0940 -1.7818
44896SOL     OW46412  11.589   3.398   0.179 -0.3106  0.2479 -0.2185
44896SOL    HW146413  11.620   3.440   0.259 -0.1882  0.9270 -0.6108
44896SOL    HW246414  11.496   3.382   0.195  0.1618 -1.6795  0.9148
44897SOL     OW46415   5.209   1.935  10.921  0.1423 -0.6527  0.1107
44897SOL    HW146416   5.176   2.022  10.946  0.2792 -0.8829  1.1559
44897SOL    HW246417   5.221   1.940  10.827  0.2744  0.5188  0.1742
44898SOL     OW46418  12.172  13.642  12.427 -0.6374  0.0395  0.2136
44898SOL    HW146419  12.155  13.696  12.350 -2.1207 -1.5845 -0.6676
44898SOL    HW246420  12.267  13.632  12.429 -0.6446 -1.3174 -2.4850
44899SOL     OW46421   4.753   1.547   6.991  0.4029 -0.4010 -0.0154
44899SOL    HW146422   4.717   1.562   6.904  1.6103 -3.2262 -1.1050
44899SOL    HW246423   4.760   1.452   6.998 -0.7689 -0.3723  3.6789
44900SOL     OW46424  10.487   1.625   0.114  0.6450 -0.6757  0.0434
44900SOL    HW146425  10.523   1.545   0.078 -1.1858 -1.5788  0.0840
44900SOL    HW246426  10.470   1.681   0.037 -1.2838 -1.7565 -0.3943
44901SOL     OW46427   8.971  10.898  11.252 -0.0835 -0.1683  0.2120
44901SOL    HW146428   8.968  10.809  11.287 -0.3269  0.4523  1.8518
44901SOL    HW246429   9.059  10.906  11.217  0.5125 -0.5382  1.5456
44902SOL     OW46430   9.714   2.987  11.563  0.1821 -0.2619  0.5269
44902SOL    HW146431   9.803   2.986  11.598  0.0067  0.0441  0.9896
44902SOL    HW246432   9.697   3.078  11.541 -0.4660 -0.0950  1.6272
44903SOL     OW46433   9.902   2.922  10.057  0.9193 -0.1477  0.2314
44903SOL    HW146434   9.882   2.829  10.050  3.6231 -0.7467 -1.2108
44903SOL    HW246435   9.845   2.963   9.992 -0.5770 -0.6826  1.1450
44904SOL     OW46436   2.281   4.161   5.373 -0.3394  1.0458  0.1017
44904SOL    HW146437   2.375   4.170   5.385 -0.3089  1.1429 -0.2018
44904SOL    HW246438   2.254   4.243   5.332 -0.1468  0.0522 -2.1289
44905SOL     OW46439  11.772  13.001   7.374 -0.6926  0.3382 -0.0009
44905SOL    HW146440  11.826  12.959   7.441 -1.3181  0.2323  0.4513
44905SOL    HW246441  11.682  12.982   7.401 -0.9629  0.8885 -0.4930
44906SOL     OW46442  12.967   6.641   4.254 -0.5955  0.0617  0.3816
44906SOL    HW146443  12.897   6.702   4.279 -1.0091  0.3280 -1.3160
44906SOL    HW246444  12.922   6.571   4.206  0.3597  0.7384 -1.6276
44907SOL     OW46445   9.509   5.189  13.335  0.5475 -0.0127 -0.0973
44907SOL    HW146446   9.515   5.166  13.428 -2.0370  0.0054  0.1285
44907SOL    HW246447   9.584   5.247  13.321  1.2978 -0.4093  1.8176
44908SOL     OW46448   1.205   7.252  11.986 -0.1026  0.0921 -0.0403
44908SOL    HW146449   1.280   7.274  11.930 -1.3191 -0.3340 -1.9401
44908SOL    HW246450   1.236   7.181  12.041  0.9314 -0.0037 -0.7202
44909SOL     OW46451  12.706   6.138   1.298  0.5287 -0.0790 -0.0374
44909SOL    HW146452  12.660   6.068   1.345  1.8346 -0.7499  0.3017
44909SOL    HW246453  12.641   6.172   1.237 -0.0307 -1.9135 -0.5413
44910SOL     OW46454   2.380   9.121   9.140 -0.3457  0.3121 -0.6450
44910SOL    HW146455   2.340   9.037   9.119 -2.2148  0.7452  0.9016
44910SOL    HW246456   2.473   9.108   9.122 -0.3461 -2.5638  0.8191
44911SOL     OW46457   6.090   4.293   8.523  0.0926 -0.1521  0.5954
44911SOL    HW146458   6.055   4.343   8.597  0.0097  0.9696 -0.1803
44911SOL    HW246459   6.108   4.359   8.456  0.4685 -1.1135 -0.2692
44912SOL     OW46460   2.399  10.121   9.557 -0.0639 -0.1131 -0.7515
44912SOL    HW146461   2.329  10.178   9.527 -0.9126 -0.4368  0.5522
44912SOL    HW246462   2.438  10.086   9.477 -2.3273 -1.0417 -1.5244
44913SOL     OW46463  12.427   3.013  11.041 -0.7229 -0.5829  0.0446
44913SOL    HW146464  12.452   2.964  10.962 -0.2399  0.1787 -0.2907
44913SOL    HW246465  12.450   2.956  11.114 -1.4949 -1.4449 -0.3719
44914SOL     OW46466  12.754   1.239  10.615  0.2511 -0.3770 -0.1432
44914SOL    HW146467  12.688   1.238  10.685  2.1108  0.7825  1.7378
44914SOL    HW246468  12.826   1.188  10.650  1.8998  1.6205 -0.4611
44915SOL     OW46469   4.562   9.177   5.898  0.4994  0.3673  0.1090
44915SOL    HW146470   4.468   9.192   5.885  0.0545  0.8494  3.1546
44915SOL    HW246471   4.569   9.082   5.908 -0.2113  0.4847  2.5785
44916SOL     OW46472   4.672   0.995   5.229 -0.2218  0.1591 -0.1748
44916SOL    HW146473   4.714   0.914   5.200  1.0830  0.4000  0.9590
44916SOL    HW246474   4.684   1.055   5.155  1.7258  0.3088  0.2308
44917SOL     OW46475   4.702   5.822   7.951  0.2283  0.1125  0.3962
44917SOL    HW146476   4.663   5.832   7.864  1.0584  0.9397  0.0996
44917SOL    HW246477   4.739   5.733   7.950 -0.1811 -0.0593  0.0810
44918SOL     OW46478   5.988  12.660   0.603  0.1240  0.1617 -0.5861
44918SOL    HW146479   5.954  12.695   0.520  0.8948 -1.6625 -1.7280
44918SOL    HW246480   6.049  12.591   0.577  1.6187  0.5949  1.4825
44919SOL     OW46481   2.944   4.655   2.096 -0.2195 -0.0267  0.8736
44919SOL    HW146482   2.964   4.734   2.146  1.7941  0.1780 -0.1674
44919SOL    HW246483   2.926   4.685   2.007 -0.9999 -0.6172  0.8202
44920SOL     OW46484   5.219   0.858   5.189 -0.3736 -0.0244  0.5095
44920SOL    HW146485   5.164   0.804   5.245 -1.5673  1.0049  0.3725
44920SOL    HW246486   5.309   0.838   5.217 -0.8111 -1.5809  0.8730
44921SOL     OW46487   7.028  12.091   8.791  0.2721 -0.4390 -0.4135
44921SOL    HW146488   7.011  12.063   8.701 -0.3368 -2.9113  0.4011
44921SOL    HW246489   7.038  12.186   8.785 -3.5075  0.0438 -2.5709
44922SOL     OW46490  12.982   4.785   8.057  0.0285 -0.6020 -0.4487
44922SOL    HW146491  13.035   4.860   8.028  1.1711 -1.1018  0.2929
44922SOL    HW246492  12.997   4.781   8.151 -0.1261 -1.6827 -0.4677
44923SOL     OW46493  13.140   9.562   2.400  0.4402  0.0194 -0.0642
44923SOL    HW146494  13.065   9.506   2.420 -0.0827  1.2393  1.6141
44923SOL    HW246495  13.111   9.618   2.329  0.3691 -0.6550 -0.5729
44924SOL     OW46496   4.739   9.770  10.461  0.8015  0.1472  0.5377
44924SOL    HW146497   4.669   9.714  10.428  0.8987  0.5263 -0.3462
44924SOL    HW246498   4.695   9.852  10.485  0.9112  0.3387  0.1037
44925SOL     OW46499  10.210   2.671   7.275  0.3057  0.2243  0.4416
44925SOL    HW146500  10.234   2.601   7.336  0.0344 -0.1266  0.1450
44925SOL    HW246501  10.203   2.628   7.190 -1.1777  0.3460  0.4801
44926SOL     OW46502   1.482  12.186   2.620 -0.1187  0.3660  0.0092
44926SOL    HW146503   1.464  12.113   2.679 -0.8750  0.5378 -0.0037
44926SOL    HW246504   1.578  12.190   2.615 -0.0440  0.3016  1.1671
44927SOL     OW46505   3.279   8.258   8.743 -0.6648 -0.1618 -0.0941
44927SOL    HW146506   3.275   8.312   8.664  2.8995  0.0868 -0.2926
44927SOL    HW246507   3.276   8.320   8.815 -1.1042 -0.1384 -0.1306
44928SOL     OW46508  12.564   4.182  12.097 -0.1015 -0.0645 -0.3295
44928SOL    HW146509  12.588   4.210  12.009 -0.1327  1.2410  0.0517
44928SOL    HW246510  12.471   4.204  12.104 -1.0054 -3.1693 -1.0698
44929SOL     OW46511   6.635   9.652   8.416  0.7295  0.1139 -0.1688
44929SOL    HW146512   6.660   9.742   8.437 -0.6354  0.1158  1.7478
44929SOL    HW246513   6.716   9.611   8.385  2.4429  0.9212  2.8082
44930SOL     OW46514   0.160   6.548   8.516  0.7228 -0.0954 -0.6606
44930SOL    HW146515   0.117   6.613   8.571  0.7847  0.8884 -1.7343
44930SOL    HW246516   0.130   6.568   8.427 -0.3175 -2.3961 -0.8912
44931SOL     OW46517  12.689  11.311   2.414 -0.1306 -0.1778 -0.4636
44931SOL    HW146518  12.656  11.239   2.361 -0.0760 -0.0737 -0.6391
44931SOL    HW246519  12.691  11.386   2.354 -0.8597  0.1395 -0.1040
44932SOL     OW46520  10.530  12.581   8.289 -0.0441 -0.1231  0.5921
44932SOL    HW146521  10.501  12.577   8.198 -2.7398  1.8706  1.2254
44932SOL    HW246522  10.470  12.523   8.335 -0.9917  1.5161  1.5103
44933SOL     OW46523  12.457   9.227   0.140  0.6859  0.4375  0.5629
44933SOL    HW146524  12.480   9.295   0.077 -0.2206  3.9653  3.6630
44933SOL    HW246525  12.449   9.148   0.088 -0.2973  3.0503 -3.7689
44934SOL     OW46526  12.994   2.374  12.447 -0.2050  0.2408  0.5352
44934SOL    HW146527  12.913   2.375  12.497 -0.7724 -2.1875 -0.1988
44934SOL    HW246528  12.975   2.322  12.370  1.6584  0.8473 -0.4112
44935SOL     OW46529   9.485   8.062   4.109  0.3890  0.1980 -0.2752
44935SOL    HW146530   9.439   8.100   4.184  0.6604  1.0673 -0.5336
44935SOL    HW246531   9.480   7.967   4.123  0.8168  0.3567  1.0699
44936SOL     OW46532   0.569   6.345   4.094 -0.8066 -0.0779 -0.1489
44936SOL    HW146533   0.651   6.367   4.051 -0.4712  0.1585  0.5996
44936SOL    HW246534   0.522   6.292   4.029 -0.0536 -0.2529 -0.5696
44937SOL     OW46535   5.343  13.052   3.236 -0.0495  0.4113 -0.2107
44937SOL    HW146536   5.388  13.132   3.210  1.2922 -1.1369 -3.1626
44937SOL    HW246537   5.260  13.054   3.189  0.0723 -0.0197 -0.4486
44938SOL     OW46538   3.597   0.617   9.713 -0.3045  0.3785 -0.0797
44938SOL    HW146539   3.687   0.602   9.686 -0.4330 -1.7630  0.4933
44938SOL    HW246540   3.549   0.631   9.631 -0.4215 -4.4510 -1.1678
44939SOL     OW46541   1.418  12.496   3.597 -0.4602  0.2842 -0.6856
44939SOL    HW146542   1.513  12.498   3.598 -0.4583  2.1645 -0.6363
44939SOL    HW246543   1.392  12.541   3.678 -1.4726 -3.3535  1.2589
44940SOL     OW46544   6.409   8.915  10.259 -0.7936  0.4551  0.5385
44940SOL    HW146545   6.431   8.947  10.171 -0.7847 -0.7593  0.0843
44940SOL    HW246546   6.485   8.864  10.286 -1.2039 -0.0037  0.8410
44941SOL     OW46547   9.593   4.548   4.327 -0.6856 -0.4457  0.0256
44941SOL    HW146548   9.629   4.627   4.287 -2.5154  1.2054  1.4518
44941SOL    HW246549   9.668   4.489   4.335  0.9508  1.4969 -0.2166
44942SOL     OW46550   9.880  10.704   4.313 -0.9435 -0.0803 -0.2659
44942SOL    HW146551   9.794  10.726   4.277 -0.4475  0.7844 -0.9584
44942SOL    HW246552   9.934  10.682   4.236 -0.3354  0.1280  0.0937
44943SOL     OW46553   4.019   5.116   9.757  0.0384 -0.2399 -0.5786
44943SOL    HW146554   4.042   5.041   9.812 -1.5935 -0.8200 -0.6181
44943SOL    HW246555   3.959   5.080   9.692 -1.4177  1.2241 -0.1221
44944SOL     OW46556   3.213  13.532   9.425 -0.0078 -0.3217 -0.2597
44944SOL    HW146557   3.306  13.521   9.404 -0.4096 -0.2217 -2.3596
44944SOL    HW246558   3.185  13.445   9.454  0.8939 -0.1492  1.2643
44945SOL     OW46559   0.469   0.936   2.586  0.3088  0.1664 -0.7025
44945SOL    HW146560   0.396   0.875   2.584  0.0292  0.4237  0.5308
44945SOL    HW246561   0.445   1.005   2.525 -1.2955  1.1018  0.8926
44946SOL     OW46562   8.660   5.449  12.412  0.1062  0.0502  0.5873
44946SOL    HW146563   8.684   5.357  12.418 -0.8282 -0.4171 -1.8669
44946SOL    HW246564   8.738   5.492  12.375  0.2714  0.1587  1.0404
44947SOL     OW46565   7.876   0.559   0.856  0.6120  0.3137 -0.2551
44947SOL    HW146566   7.870   0.496   0.928  0.1863  1.9511  1.2165
44947SOL    HW246567   7.966   0.553   0.826  0.1919 -2.1415 -1.3018
44948SOL     OW46568   8.117   0.788  12.923  0.0325  0.5843  0.5063
44948SOL    HW146569   8.047   0.727  12.948 -0.9095  2.1605  1.9430
44948SOL    HW246570   8.185   0.774  12.989 -0.0103  0.7793  0.5941
44949SOL     OW46571  10.894   9.824   5.143  0.0608  0.3924  0.1208
44949SOL    HW146572  10.963   9.864   5.195  0.6159  1.4302 -1.3662
44949SOL    HW246573  10.932   9.743   5.111 -0.2349 -0.1818  1.1478
44950SOL     OW46574   9.602   3.554   4.416 -0.8663  0.3651 -0.6846
44950SOL    HW146575   9.556   3.473   4.439 -0.0796  0.1773  0.2694
44950SOL    HW246576   9.652   3.531   4.338  1.6321 -0.9855  1.1818
44951SOL     OW46577  10.734   4.634   6.775 -0.1311  0.4496 -0.4158
44951SOL    HW146578  10.668   4.577   6.813  2.3277 -3.0350 -0.8800
44951SOL    HW246579  10.773   4.679   6.850 -1.5282  0.9049  0.0657
44952SOL     OW46580  13.385   6.693   6.124  0.3869  0.2730  0.0956
44952SOL    HW146581  13.303   6.741   6.135 -0.0447 -0.4455  0.0688
44952SOL    HW246582  13.363   6.620   6.066  0.5235 -1.1206  1.7157
44953SOL     OW46583   0.819  12.914   7.106  0.3818  0.0888 -0.5526
44953SOL    HW146584   0.825  12.824   7.137  1.6994 -0.4751 -2.3129
44953SOL    HW246585   0.733  12.944   7.138 -0.6854 -2.2097 -1.0439
44954SOL     OW46586   1.739   3.655   0.972 -0.2578 -0.0500 -0.1862
44954SOL    HW146587   1.692   3.657   0.889  0.8297 -1.6187 -0.9037
44954SOL    HW246588   1.816   3.711   0.958  0.1650 -0.6750 -0.4180
44955SOL     OW46589   7.125  11.074  13.717  0.3081  0.5308 -0.3660
44955SOL    HW146590   7.131  11.033  13.631  3.6132 -1.0719  0.4714
44955SOL    HW246591   7.154  11.164  13.703 -1.5816  1.0598 -1.2572
44956SOL     OW46592  11.334  10.239   1.407 -0.5321 -0.0436 -0.4389
44956SOL    HW146593  11.304  10.328   1.390  0.3103  0.0278 -1.7365
44956SOL    HW246594  11.429  10.242   1.392 -0.2122 -0.7918  1.1829
44957SOL     OW46595   0.082   0.476   4.780 -0.0955  0.4551  0.4789
44957SOL    HW146596   0.055   0.413   4.847 -0.0473  2.2716  2.2924
44957SOL    HW246597   0.001   0.504   4.738  0.0149 -2.3882 -1.9893
44958SOL     OW46598   3.653   0.970   3.188 -0.8645 -0.0722 -0.0484
44958SOL    HW146599   3.605   1.053   3.200 -0.3351 -0.0156  2.0573
44958SOL    HW246600   3.730   0.979   3.244  0.4479 -1.0958 -1.6046
44959SOL     OW46601  11.535   7.798   1.992  0.4766 -0.7577 -0.3742
44959SOL    HW146602  11.568   7.710   1.977 -0.7549 -1.2845 -0.0791
44959SOL    HW246603  11.563   7.820   2.081 -0.5776 -1.4954  0.1541
44960SOL     OW46604   8.757  10.549   8.839  0.4536 -0.6915  0.1124
44960SOL    HW146605   8.841  10.526   8.799  0.0802 -0.5440 -0.7989
44960SOL    HW246606   8.779  10.612   8.907  0.9332  0.8773 -1.4171
44961SOL     OW46607   1.991   8.385   2.316 -0.0263  0.2132 -0.2640
44961SOL    HW146608   1.998   8.348   2.404 -1.3096  1.0301  0.2031
44961SOL    HW246609   2.081   8.408   2.292  0.2750  0.4122  1.0164
44962SOL     OW46610   9.502   3.867  12.231  0.3211 -0.1977 -0.5204
44962SOL    HW146611   9.570   3.808  12.262  0.0451 -1.8939 -2.8491
44962SOL    HW246612   9.420   3.823  12.255  0.0952  0.0342 -0.8618
44963SOL     OW46613   4.726   1.457   4.847  0.0535 -0.3730  0.0246
44963SOL    HW146614   4.654   1.441   4.787 -0.1861 -1.8657  0.6810
44963SOL    HW246615   4.788   1.386   4.831  0.4811 -0.1898  0.7982
44964SOL     OW46616   8.583   0.870   2.334 -0.0337 -0.6406  0.0349
44964SOL    HW146617   8.577   0.776   2.315  1.3537 -0.5830 -0.7976
44964SOL    HW246618   8.670   0.895   2.305 -0.4942  0.9829 -0.0368
44965SOL     OW46619   2.144  11.419   5.278 -0.6500 -0.3180  0.2739
44965SOL    HW146620   2.238  11.413   5.293 -0.1978  0.7643 -1.7446
44965SOL    HW246621   2.123  11.511   5.294 -0.9021 -0.0599 -1.3299
44966SOL     OW46622  12.335   3.969   4.411  0.4231 -0.3433 -0.3745
44966SOL    HW146623  12.345   3.879   4.442 -0.5157 -0.6280 -0.8381
44966SOL    HW246624  12.280   3.961   4.333  1.1223  0.5414 -0.9777
44967SOL     OW46625   6.556  10.355   2.776  0.0660 -0.3482  0.5414
44967SOL    HW146626   6.472  10.308   2.785  0.1840 -0.6064  0.3156
44967SOL    HW246627   6.532  10.447   2.780 -0.5299 -0.3371 -1.7010
44968SOL     OW46628   7.568   7.722   6.961 -0.0843 -0.2629 -0.0677
44968SOL    HW146629   7.497   7.765   7.008 -1.0881 -3.4826  1.6085
44968SOL    HW246630   7.525   7.672   6.892  0.7622 -0.4761 -0.4557
44969SOL     OW46631  11.873  13.249  10.521  0.5474 -0.2691  0.2036
44969SOL    HW146632  11.908  13.225  10.607  1.1740 -1.1510 -0.2773
44969SOL    HW246633  11.911  13.184  10.461 -0.8772 -0.4294 -0.5503
44970SOL     OW46634   8.309   3.411   9.366  0.0558  0.0052  0.3351
44970SOL    HW146635   8.313   3.505   9.378  0.0270 -0.0467  0.7670
44970SOL    HW246636   8.222   3.386   9.397 -0.1696 -0.0891 -0.3357
44971SOL     OW46637   9.641   3.899  10.705  1.1698 -0.4416  0.1952
44971SOL    HW146638   9.688   3.927  10.784  0.6481  1.9310 -0.2506
44971SOL    HW246639   9.652   3.973  10.644 -0.0493 -1.4079 -1.2530
44972SOL     OW46640   9.007   0.259   5.365  1.0100  0.6072  0.4689
44972SOL    HW146641   8.932   0.200   5.365 -0.5834  2.4274 -2.6320
44972SOL    HW246642   9.067   0.221   5.300  1.2396  0.9724  0.4681
44973SOL     OW46643   1.049  12.425   2.114  0.4399 -0.4252  0.1836
44973SOL    HW146644   1.031  12.380   2.031 -0.1136  0.9682 -0.4676
44973SOL    HW246645   0.963  12.452   2.146  0.7464 -0.0127  0.6650
44974SOL     OW46646   4.713   1.327   6.627 -0.8473 -0.2965 -0.0242
44974SOL    HW146647   4.778   1.275   6.673  0.9454  2.0532  0.2778
44974SOL    HW246648   4.730   1.313   6.534 -0.2119 -0.0596  0.0570
44975SOL     OW46649   2.898   4.942   6.875 -0.6613  0.2348  0.1116
44975SOL    HW146650   2.857   4.858   6.895  0.6480 -0.5391 -0.3869
44975SOL    HW246651   2.919   4.979   6.961 -1.9140  0.4263  0.3620
44976SOL     OW46652   7.686   7.640  12.728 -0.0899  0.0615 -0.7668
44976SOL    HW146653   7.608   7.630  12.783 -0.7987 -0.8716 -1.8906
44976SOL    HW246654   7.659   7.697  12.656  0.5424  0.4760 -0.6917
44977SOL     OW46655  13.141   1.807   6.778  0.1771 -0.1791 -0.1151
44977SOL    HW146656  13.152   1.732   6.838  0.3841  0.2660  0.4114
44977SOL    HW246657  13.056   1.844   6.802  0.6573  0.5395  0.5272
44978SOL     OW46658   1.900   8.492   7.645 -0.2404  0.1134 -0.3488
44978SOL    HW146659   1.919   8.528   7.558 -0.8329  1.5714  0.0801
44978SOL    HW246660   1.837   8.422   7.628  0.6319 -0.4951 -1.1957
44979SOL     OW46661   3.486  11.197   2.494  0.4761  0.0265  0.1168
44979SOL    HW146662   3.440  11.204   2.577  0.0305  0.9231 -0.1979
44979SOL    HW246663   3.503  11.287   2.468  1.9090 -0.2736 -0.0582
44980SOL     OW46664   5.580   8.462   5.559 -0.7054 -0.4011  0.0009
44980SOL    HW146665   5.602   8.542   5.607  0.2570  0.6545 -2.0902
44980SOL    HW246666   5.494   8.480   5.520 -1.0087 -0.8456  0.4538
44981SOL     OW46667   5.914  10.313   9.116 -0.9582  0.1981  0.4278
44981SOL    HW146668   5.880  10.326   9.028 -1.0551 -1.2547  0.2174
44981SOL    HW246669   5.854  10.360   9.173 -1.3529  0.4797 -0.2137
44982SOL     OW46670   7.911   9.013   1.441  0.5275  0.1571 -0.0850
44982SOL    HW146671   7.906   9.076   1.513 -0.2569 -1.0418  0.9513
44982SOL    HW246672   7.975   8.948   1.470 -0.3970 -0.7796 -0.0820
44983SOL     OW46673   5.970   7.584  11.398  0.0292  0.0285 -0.4368
44983SOL    HW146674   5.913   7.658  11.418  0.2005  0.2009 -0.5706
44983SOL    HW246675   5.930   7.509  11.441  0.0495  0.2704  0.0078
44984SOL     OW46676   8.757   3.539   2.631  0.0169 -0.2106  0.1491
44984SOL    HW146677   8.815   3.472   2.669 -0.7668 -0.9011  0.1562
44984SOL    HW246678   8.751   3.606   2.699  2.4612  0.9313 -0.6343
44985SOL     OW46679  13.287   4.233   4.064 -0.9717  0.8621  0.2209
44985SOL    HW146680  13.250   4.319   4.083 -0.2984  0.8447  1.6840
44985SOL    HW246681  13.335   4.208   4.143  0.7601  0.1322 -0.9863
44986SOL     OW46682  11.827   8.576  11.927  0.3262  0.3977 -0.0734
44986SOL    HW146683  11.786   8.658  11.953 -1.7666 -0.7777  0.5645
44986SOL    HW246684  11.887   8.555  11.999  0.8942  1.3567 -0.2555
44987SOL     OW46685  11.120   8.952   3.866  0.1678 -0.4738 -0.2682
44987SOL    HW146686  11.125   9.044   3.837  0.4866  0.4064  2.2960
44987SOL    HW246687  11.206   8.916   3.847  1.2109  0.8115  1.7045
44988SOL     OW46688   9.641   3.123  11.913 -0.3629 -0.1514  0.0422
44988SOL    HW146689   9.709   3.179  11.952 -2.1121  2.6475 -0.5945
44988SOL    HW246690   9.608   3.175  11.839 -2.2267 -2.0219 -0.5175
44989SOL     OW46691   9.470   3.720   4.602  0.2056  0.5423 -0.2152
44989SOL    HW146692   9.526   3.656   4.557  0.1887 -0.0292  0.5601
44989SOL    HW246693   9.496   3.804   4.565 -2.4332 -0.1216 -4.2064
44990SOL     OW46694  11.835  11.553   2.409  0.1178 -0.6820 -0.7330
44990SOL    HW146695  11.814  11.596   2.492  2.0827 -0.0897 -0.5037
44990SOL    HW246696  11.754  11.507   2.385 -1.5500  1.7266 -0.1217
44991SOL     OW46697   4.271   5.916   8.210 -0.3336 -0.2283  0.3043
44991SOL    HW146698   4.211   5.959   8.271  0.7969  1.7985  0.0851
44991SOL    HW246699   4.271   5.824   8.237 -1.9350  0.1070  1.6025
44992SOL     OW46700   3.018   3.235   5.877 -0.3977 -0.0212  0.3375
44992SOL    HW146701   3.033   3.326   5.851  3.0881 -0.7495 -0.7564
44992SOL    HW246702   3.063   3.226   5.961 -1.0227 -0.7012  0.6150
44993SOL     OW46703   8.027   0.047   9.869 -0.3771 -0.5431 -0.3913
44993SOL    HW146704   7.944   0.088   9.844 -0.1950 -0.8701 -1.6266
44993SOL    HW246705   8.004  -0.010   9.942 -1.0373  0.1474 -0.0466
44994SOL     OW46706   5.634   9.983  11.299  0.9115  0.0274  0.1981
44994SOL    HW146707   5.582   9.937  11.233  1.0096  0.4414 -0.1771
44994SOL    HW246708   5.578   9.987  11.376  0.1052  1.1041 -0.4311
44995SOL     OW46709   8.764   0.087   1.344 -0.1253 -0.0133 -0.0343
44995SOL    HW146710   8.670   0.078   1.331 -0.5108 -3.1227  3.2205
44995SOL    HW246711   8.802   0.014   1.296  0.1562 -0.9633  1.5473
44996SOL     OW46712   2.183   7.469   2.029  0.1326 -0.2087 -0.4247
44996SOL    HW146713   2.165   7.381   2.063  0.9835  0.0569  0.7706
44996SOL    HW246714   2.200   7.455   1.936  2.7774 -1.7122  0.1866
44997SOL     OW46715   4.618  11.668   5.957  0.5312 -0.6611  0.1815
44997SOL    HW146716   4.681  11.673   5.885  0.7123 -0.1502  0.3665
44997SOL    HW246717   4.654  11.727   6.023 -0.7232  0.5075 -0.1538
44998SOL     OW46718   1.069   5.510  11.803  0.6310 -0.4344  0.2174
44998SOL    HW146719   1.087   5.550  11.718 -0.1782 -1.4851 -0.4910
44998SOL    HW246720   1.151   5.466  11.826  0.9430  0.0871  0.1168
44999SOL     OW46721  11.075   9.979   6.686 -0.2821  0.3866  0.7380
44999SOL    HW146722  11.127   9.982   6.606 -0.4948  0.2210  0.5944
44999SOL    HW246723  11.018  10.056   6.680  1.1525  1.5890  1.7218
45000SOL     OW46724   3.725  11.820   2.864 -0.1209 -0.0495  0.5297
45000SOL    HW146725   3.666  11.768   2.920 -1.2802 -1.1377 -1.5888
45000SOL    HW246726   3.775  11.755   2.815  0.9115  0.8762  0.3124
45001SOL     OW46727   7.894  11.813  11.008 -0.0542  0.2692 -0.7798
45001SOL    HW146728   7.916  11.902  10.983  1.4387 -0.3874 -1.9959
45001SOL    HW246729   7.897  11.813  11.104  0.6699  1.3523 -0.7939
45002SOL     OW46730   9.479   4.392  11.514  0.5527 -0.0556  0.4276
45002SOL    HW146731   9.432   4.430  11.588  3.3076  0.9969  1.7471
45002SOL    HW246732   9.484   4.463  11.450 -1.2949 -0.7819 -0.5999
45003SOL     OW46733   2.044   9.045  12.201 -0.0866 -0.6290  0.0213
45003SOL    HW146734   2.134   9.051  12.234  0.2582 -1.5592 -0.6772
45003SOL    HW246735   2.043   8.964  12.150 -1.2289 -0.4403 -0.2894
45004SOL     OW46736  10.322   9.174   1.268 -0.2305 -0.2185 -0.0411
45004SOL    HW146737  10.236   9.140   1.293 -0.7569  1.1031  0.0114
45004SOL    HW246738  10.378   9.096   1.264 -1.7568 -1.3225 -1.5714
45005SOL     OW46739   2.824   1.670   0.172  0.2463  0.3642 -0.3510
45005SOL    HW146740   2.790   1.746   0.220  1.0582  0.6861 -0.2629
45005SOL    HW246741   2.772   1.596   0.202 -2.2844  1.2225 -2.2542
45006SOL     OW46742   8.015   2.444  11.005 -0.0642  0.0715  0.3799
45006SOL    HW146743   8.060   2.526  10.986 -0.2421 -0.1459 -1.1279
45006SOL    HW246744   8.069   2.376  10.963 -2.1449 -0.1146 -2.3053
45007SOL     OW46745  10.062   6.564   5.963  0.5381  0.2014 -0.2121
45007SOL    HW146746  10.089   6.649   5.928 -2.1993  1.6234  0.8397
45007SOL    HW246747  10.053   6.509   5.885 -0.7754  1.8515 -1.3007
45008SOL     OW46748   6.105  11.300   8.720  0.1616 -0.1039 -0.0570
45008SOL    HW146749   6.057  11.353   8.657  0.5814  0.6802  0.2667
45008SOL    HW246750   6.197  11.321   8.703  0.2760  0.1963  0.8714
45009SOL     OW46751   8.256   0.261   9.561 -0.3790 -0.2706  0.1475
45009SOL    HW146752   8.266   0.269   9.466 -0.4697 -1.7260 -0.0112
45009SOL    HW246753   8.318   0.324   9.597  0.3932 -0.4109 -0.8851
45010SOL     OW46754  10.032   6.078  11.510 -0.2220  0.2305 -0.5072
45010SOL    HW146755  10.056   6.068  11.603 -0.1792  0.5220 -0.4841
45010SOL    HW246756   9.977   6.157  11.509  0.8193  0.9769 -0.9091
45011SOL     OW46757   7.632   2.471   2.734 -0.0189 -1.0166 -0.0835
45011SOL    HW146758   7.689   2.494   2.807 -1.5607 -1.7724  1.4473
45011SOL    HW246759   7.675   2.507   2.657  1.4588  0.2049  1.2456
45012SOL     OW46760   6.011   6.998   6.026 -0.4379  0.2530 -0.2714
45012SOL    HW146761   6.041   7.049   5.951  1.4130 -0.4417 -0.0459
45012SOL    HW246762   6.078   7.013   6.093 -2.1407  1.0079  1.3425
45013SOL     OW46763   2.352   2.437  10.611  0.1383  0.8522 -0.8272
45013SOL    HW146764   2.265   2.436  10.572  0.4807  0.5486 -1.5909
45013SOL    HW246765   2.344   2.497  10.686 -1.5069 -1.4730  1.0150
45014SOL     OW46766   2.849   7.993   4.781 -0.3904 -0.2064 -0.1579
45014SOL    HW146767   2.851   7.920   4.842 -0.4088 -0.7239 -0.7708
45014SOL    HW246768   2.836   8.070   4.837  0.2764 -0.5950  0.5493
45015SOL     OW46769   9.959  11.488   9.582 -0.0027  0.1137 -0.3963
45015SOL    HW146770   9.894  11.418   9.575  0.1472  0.0311 -1.0092
45015SOL    HW246771   9.933  11.551   9.515  1.8611 -1.0052 -2.2874
45016SOL     OW46772   1.382  11.109   7.883  0.0131  0.3876 -0.6611
45016SOL    HW146773   1.375  11.197   7.845 -2.1455  0.5026 -0.1369
45016SOL    HW246774   1.369  11.051   7.808 -4.2475  0.6156 -0.3508
45017SOL     OW46775   3.656   6.228   0.022  0.2433  0.0100 -0.1288
45017SOL    HW146776   3.641   6.145  -0.023 -1.3000  0.0404  0.2902
45017SOL    HW246777   3.587   6.286  -0.010  1.3036  1.1548 -0.4192
45018SOL     OW46778   2.968   2.692  11.889  0.4567 -0.1617 -0.1614
45018SOL    HW146779   2.973   2.656  11.801  0.0401 -0.4027 -0.0867
45018SOL    HW246780   3.058   2.717  11.910  0.4580  0.4887 -0.9015
45019SOL     OW46781  12.543   5.481  10.477 -0.0339 -0.6985 -0.3466
45019SOL    HW146782  12.460   5.434  10.466  0.4263 -1.0119 -3.2925
45019SOL    HW246783  12.519   5.561  10.524 -2.0996 -0.6349 -1.3889
45020SOL     OW46784  10.040  10.352   9.225 -0.0897 -0.3300 -0.2034
45020SOL    HW146785  10.052  10.445   9.203 -0.9382  0.0829  0.9553
45020SOL    HW246786  10.062  10.305   9.144  1.9660  0.7565 -0.3275
45021SOL     OW46787   8.592   4.613  10.251  0.3378 -0.3693  0.1199
45021SOL    HW146788   8.629   4.691  10.293  0.0004 -0.6650  0.9869
45021SOL    HW246789   8.668   4.569  10.211  1.2453 -1.6323  2.9200
45022SOL     OW46790   8.794   5.907   0.378 -0.3671 -0.9334 -0.0801
45022SOL    HW146791   8.822   5.978   0.435 -0.8877 -0.6916 -0.1163
45022SOL    HW246792   8.839   5.830   0.412 -0.7712 -0.8166  0.7452
45023SOL     OW46793   5.316   5.078  11.467  0.2155 -0.0235 -0.2170
45023SOL    HW146794   5.366   5.058  11.388  0.4788  0.5528 -0.2028
45023SOL    HW246795   5.228   5.098  11.435  0.7607  2.0520 -0.5929
45024SOL     OW46796  12.802   0.101   0.104 -0.2126  0.0839 -0.4596
45024SOL    HW146797  12.860   0.093   0.027  0.0675  0.0163 -0.2435
45024SOL    HW246798  12.731   0.040   0.086  0.6724 -1.1467  0.0613
45025SOL     OW46799   2.976   5.944   0.803 -0.2105 -0.0067 -0.3450
45025SOL    HW146800   3.046   6.000   0.837 -0.1912 -0.7064  0.8344
45025SOL    HW246801   2.930   5.998   0.740  0.7352  0.8266 -0.3471
45026SOL     OW46802  11.811   4.138   2.628 -0.3043  1.4376 -0.5719
45026SOL    HW146803  11.755   4.096   2.562 -0.8103 -0.5837  1.0520
45026SOL    HW246804  11.886   4.079   2.637 -1.4359  0.2234  2.3715
45027SOL     OW46805   5.257  12.250   9.333 -0.2748 -0.2057 -0.5721
45027SOL    HW146806   5.175  12.298   9.345 -0.6378 -0.3031 -2.3050
45027SOL    HW246807   5.238  12.189   9.261  1.4638  0.1811 -1.4052
45028SOL     OW46808  11.835   3.183   5.317  0.0161  0.2190  0.1326
45028SOL    HW146809  11.749   3.175   5.277 -0.8730  0.3678  1.8990
45028SOL    HW246810  11.839   3.274   5.346  0.1012 -0.1775  1.4361
45029SOL     OW46811   2.404   8.522  11.114  0.4168 -0.6130 -0.0566
45029SOL    HW146812   2.352   8.600  11.092 -1.4485 -1.3625  1.4108
45029SOL    HW246813   2.484   8.557  11.151 -0.6821  0.6643  1.2429
45030SOL     OW46814  12.988   2.126  13.057  0.3025 -0.1834 -0.3195
45030SOL    HW146815  12.952   2.209  13.089 -2.7840 -1.7222  0.6021
45030SOL    HW246816  13.069   2.151  13.012  0.1794  3.1428  0.9931
45031SOL     OW46817   1.034   6.947  13.258  0.4732 -0.4600  0.3684
45031SOL    HW146818   1.119   6.963  13.217  1.4370 -1.6646  1.7726
45031SOL    HW246819   1.040   6.990  13.344 -1.0375  0.9825 -0.1977
45032SOL     OW46820   5.784  10.909   8.797  0.6617 -0.1736 -0.2524
45032SOL    HW146821   5.863  10.952   8.764  1.0217 -0.4469  0.2357
45032SOL    HW246822   5.812  10.868   8.879 -0.1607  0.3073  0.2783
45033SOL     OW46823  10.028   7.810   7.805 -0.4134  0.4054 -0.5417
45033SOL    HW146824   9.940   7.773   7.793 -0.6357  0.2850  1.2142
45033SOL    HW246825  10.066   7.758   7.876  0.9532  0.7093 -1.0215
45034SOL     OW46826   6.907  11.858  13.226 -0.1243  0.4810  0.0752
45034SOL    HW146827   6.868  11.810  13.299 -0.1264  0.4226  0.0351
45034SOL    HW246828   6.999  11.870  13.252  0.0353 -0.1189 -0.2122
45035SOL     OW46829  11.366   3.387   7.461  0.0279  1.1021 -0.6282
45035SOL    HW146830  11.329   3.388   7.549  0.7520 -0.5299 -0.2656
45035SOL    HW246831  11.459   3.406   7.474 -0.1903  2.8152 -1.2860
45036SOL     OW46832   7.268   5.107   5.318  0.4121 -0.5515  0.7050
45036SOL    HW146833   7.214   5.027   5.321 -0.6413  0.1655  2.5032
45036SOL    HW246834   7.244   5.148   5.235 -1.2051 -0.6969  1.0556
45037SOL     OW46835  11.134   5.154   3.627 -0.5231  0.0890  0.0276
45037SOL    HW146836  11.162   5.127   3.539 -0.9591  0.1038 -0.1147
45037SOL    HW246837  11.053   5.106   3.642 -1.0588  0.9566 -0.0359
45038SOL     OW46838  12.359   1.696  11.057 -0.7409 -0.7364 -0.0677
45038SOL    HW146839  12.402   1.708  10.972 -1.6145 -2.6609 -0.8390
45038SOL    HW246840  12.269   1.726  11.043 -0.1965  1.6864  1.0656
45039SOL     OW46841   4.856   2.312   2.023  0.6287 -0.0359 -0.4148
45039SOL    HW146842   4.914   2.266   2.084 -0.4843 -1.5628 -0.4506
45039SOL    HW246843   4.913   2.374   1.978  1.1944  2.8343  3.6281
45040SOL     OW46844   5.511   8.359   4.507  0.0743 -0.1461  0.1229
45040SOL    HW146845   5.523   8.366   4.602  1.3162 -1.5742  0.1066
45040SOL    HW246846   5.441   8.294   4.497  1.0204 -1.2008  0.0821
45041SOL     OW46847   6.968  10.510   5.201 -0.3305 -0.5271 -0.0742
45041SOL    HW146848   7.000  10.600   5.209  1.5694 -1.1341 -0.3336
45041SOL    HW246849   6.919  10.508   5.119 -0.4429  0.2806 -0.0315
45042SOL     OW46850   7.503   0.072   4.472  0.4315 -0.1898 -0.1367
45042SOL    HW146851   7.462   0.111   4.395 -1.4848 -0.4778  0.6851
45042SOL    HW246852   7.593   0.053   4.444 -0.4470 -1.1039 -2.5941
45043SOL     OW46853  13.406   2.276   3.555  0.5273  0.1448  0.0769
45043SOL    HW146854  13.454   2.359   3.546 -0.1795  0.4923 -0.5678
45043SOL    HW246855  13.379   2.274   3.646  0.8407  0.4545  0.1807
45044SOL     OW46856   7.431   0.788  13.678 -0.0675  0.0675  0.1648
45044SOL    HW146857   7.457   0.717  13.619 -0.8363  0.5235 -0.7426
45044SOL    HW246858   7.514   0.832  13.699  0.0848  0.7675 -1.7359
45045SOL     OW46859   2.545   9.859  12.705 -0.0965  0.2509  0.1734
45045SOL    HW146860   2.546   9.934  12.765 -0.1522  0.4811 -0.1124
45045SOL    HW246861   2.452   9.847  12.684 -0.2287 -0.6921  1.1992
45046SOL     OW46862   8.195  13.194   2.294  0.3394  0.4319 -0.0170
45046SOL    HW146863   8.287  13.219   2.296  0.2670  0.6849  0.1868
45046SOL    HW246864   8.195  13.102   2.318  0.7631 -0.2393 -2.3268
45047SOL     OW46865  10.909  10.169   3.797 -0.3179 -0.2419  0.8709
45047SOL    HW146866  10.881  10.256   3.769 -2.2893 -1.2908 -0.6837
45047SOL    HW246867  10.945  10.182   3.885  0.9324  2.3425  0.0633
45048SOL     OW46868   4.529   5.380   8.727 -0.1024  0.2394 -0.1198
45048SOL    HW146869   4.501   5.380   8.819 -0.0113 -1.9432 -0.0242
45048SOL    HW246870   4.622   5.357   8.731 -0.2678 -0.5970 -0.7630
45049SOL     OW46871  11.417   3.392  10.091  0.0531  0.3834 -1.0221
45049SOL    HW146872  11.345   3.382  10.153  0.3613  0.4545 -0.6519
45049SOL    HW246873  11.386   3.459  10.030  0.8366  2.3823  0.6646
45050SOL     OW46874  12.265  12.179   9.469  0.1173 -0.1923 -0.3903
45050SOL    HW146875  12.266  12.228   9.551  1.5411 -1.1194  0.1766
45050SOL    HW246876  12.228  12.094   9.492  1.4671 -0.8202 -0.4660
45051SOL     OW46877   9.655  10.620   8.291 -0.4009  0.1880  0.1971
45051SOL    HW146878   9.671  10.531   8.320  0.9285 -0.1064 -1.2927
45051SOL    HW246879   9.566  10.618   8.255 -0.6256 -0.3487  0.7645
45052SOL     OW46880  10.283  10.393   7.894 -0.2136  0.5790 -0.0060
45052SOL    HW146881  10.273  10.486   7.876 -1.1753  0.6467  0.7902
45052SOL    HW246882  10.265  10.385   7.988  0.8644 -0.2712  0.1473
45053SOL     OW46883  13.438   2.423  11.411 -0.0968 -0.2105  0.1257
45053SOL    HW146884  13.488   2.404  11.331  0.7243 -0.9411  0.7958
45053SOL    HW246885  13.497   2.479  11.462 -0.8719  0.7910 -0.0363
45054SOL     OW46886   2.056  12.831   9.624 -0.2687 -0.2240  0.1461
45054SOL    HW146887   2.091  12.909   9.580 -0.1329 -1.1050 -1.3898
45054SOL    HW246888   2.133  12.787   9.660 -0.0186 -0.9480 -1.2102
45055SOL     OW46889  10.767   4.918   2.846  0.0115 -0.0031  0.3806
45055SOL    HW146890  10.726   4.848   2.896  2.5800 -2.4757 -0.6984
45055SOL    HW246891  10.851   4.933   2.891  0.7000  0.4019 -0.9819
45056SOL     OW46892  12.827   5.683   2.730 -0.7335  0.5226  0.3325
45056SOL    HW146893  12.857   5.614   2.670 -1.0962  0.3975  0.2915
45056SOL    HW246894  12.808   5.757   2.673  1.9156  1.4992  0.5763
45057SOL     OW46895   7.552   3.093   8.873 -0.1697  0.6945 -0.5305
45057SOL    HW146896   7.517   3.007   8.849 -1.1038  0.5821  1.1329
45057SOL    HW246897   7.533   3.148   8.797 -4.0863  0.6531  0.2482
45058SOL     OW46898   3.179   5.700   9.886 -0.2471  0.1276 -0.2633
45058SOL    HW146899   3.151   5.659   9.968  1.6279  0.5855  0.6577
45058SOL    HW246900   3.210   5.787   9.911 -1.9448  1.2857 -1.8495
45059SOL     OW46901   5.150   0.543   2.174  0.0094  0.0317  0.7075
45059SOL    HW146902   5.060   0.510   2.173 -0.2066  0.6432 -0.2318
45059SOL    HW246903   5.204   0.464   2.179 -0.4624 -0.6175 -2.4121
45060SOL     OW46904   8.124   1.650   6.427  0.0359 -0.0794  0.1008
45060SOL    HW146905   8.037   1.689   6.429 -0.0845 -0.3555  0.1802
45060SOL    HW246906   8.130   1.608   6.341  0.3808  0.5993 -0.2195
45061SOL     OW46907   7.556   7.360   0.687  0.1555  0.6211 -0.1592
45061SOL    HW146908   7.579   7.275   0.725  1.4311  1.2888  0.6236
45061SOL    HW246909   7.480   7.342   0.632  0.8588 -1.1610 -0.5949
45062SOL     OW46910   7.777  13.106   7.210  0.3940 -1.0013  0.2995
45062SOL    HW146911   7.715  13.168   7.172 -1.5376 -2.4976  0.7932
45062SOL    HW246912   7.782  13.131   7.303  4.4452  2.1209 -0.5246
45063SOL     OW46913   6.178   7.523  12.732 -0.1653  0.4214  0.6609
45063SOL    HW146914   6.145   7.548  12.645  0.4926  0.2072  0.3473
45063SOL    HW246915   6.183   7.606  12.780 -0.3941  0.5612  0.4499
45064SOL     OW46916  10.943   7.472   5.045  0.4725 -0.2572 -0.0906
45064SOL    HW146917  10.930   7.383   5.075  1.3208  0.0092  1.1338
45064SOL    HW246918  10.999   7.512   5.112  2.3072  0.4256 -1.9466
45065SOL     OW46919  13.385   2.817   9.121  0.1500  0.2946  0.3890
45065SOL    HW146920  13.335   2.751   9.170  1.5157  0.5845  2.2937
45065SOL    HW246921  13.467   2.826   9.170  0.3157  2.8652 -0.2113
45066SOL     OW46922   9.796   5.078   8.734  0.5937 -0.6725  0.3779
45066SOL    HW146923   9.728   5.039   8.789 -0.3821 -0.2144 -0.4579
45066SOL    HW246924   9.750   5.101   8.653  0.9495  2.8000  1.0263
45067SOL     OW46925  12.486  12.378   0.429 -0.0094 -0.1652 -0.3422
45067SOL    HW146926  12.477  12.358   0.523 -0.4818  0.1685 -0.3142
45067SOL    HW246927  12.503  12.293   0.388  1.0074 -0.2082  0.1407
45068SOL     OW46928  11.868  10.865   0.497  0.5838 -0.1312  0.0135
45068SOL    HW146929  11.794  10.847   0.554  0.1039  1.3087 -0.1209
45068SOL    HW246930  11.877  10.961   0.498  0.7434 -0.0645 -2.0796
45069SOL     OW46931  12.742   3.812  12.741 -0.2581 -0.2828 -0.4643
45069SOL    HW146932  12.662   3.763  12.725 -1.2515  1.5844 -1.5359
45069SOL    HW246933  12.813   3.750  12.721 -1.3471 -2.1074  0.9400
45070SOL     OW46934   0.037   5.009   6.373 -0.2445  0.2448  0.1949
45070SOL    HW146935   0.011   5.059   6.450  2.1823 -0.2451  1.4143
45070SOL    HW246936   0.069   4.926   6.408 -1.5183 -1.0813 -1.5774
45071SOL     OW46937   1.102   6.030  11.731  0.3294 -0.3943 -0.5946
45071SOL    HW146938   1.059   5.964  11.676  0.4288 -1.0136  0.0476
45071SOL    HW246939   1.092   5.996  11.820  0.6385  0.3218 -0.2838
45072SOL     OW46940   4.114   2.811   7.691  0.6034  0.7311 -0.1027
45072SOL    HW146941   4.064   2.730   7.683  0.9892  0.5624 -0.9454
45072SOL    HW246942   4.179   2.792   7.760 -0.0227  0.7163  0.4946
45073SOL     OW46943   4.701   3.906  13.132  0.3812 -0.3249  0.2852
45073SOL    HW146944   4.693   3.913  13.227  2.0435  0.1393  0.4284
45073SOL    HW246945   4.611   3.902  13.100 -0.3380  2.3999  1.6606
45074SOL     OW46946  13.222   0.901   9.120 -0.1169 -0.2156 -0.3775
45074SOL    HW146947  13.240   0.995   9.111  0.2533 -0.3065 -0.5788
45074SOL    HW246948  13.176   0.877   9.040 -1.6004  0.1155  0.3316
45075SOL     OW46949  10.506   1.863  12.834 -0.7541  0.5726 -0.0270
45075SOL    HW146950  10.447   1.847  12.760 -0.4122 -0.4494 -0.0905
45075SOL    HW246951  10.485   1.795  12.897  0.2832  0.2407 -0.0158
45076SOL     OW46952  11.689   0.906  12.506 -0.4693 -0.4699  0.4756
45076SOL    HW146953  11.661   0.814  12.504  0.8180 -0.9160  1.4360
45076SOL    HW246954  11.731   0.921  12.422  1.1199 -1.3898  1.0702
45077SOL     OW46955   4.142  13.099   2.315  0.3499  0.0817 -0.6446
45077SOL    HW146956   4.196  13.029   2.351 -0.7921 -1.2662 -1.4674
45077SOL    HW246957   4.067  13.054   2.276 -0.4971  1.7779 -1.0624
45078SOL     OW46958   4.552  12.331   9.158 -0.0023 -0.5504  0.0496
45078SOL    HW146959   4.634  12.380   9.154 -0.1820 -0.1541  0.9545
45078SOL    HW246960   4.570  12.257   9.215 -0.5490  0.1211  1.1297
45079SOL     OW46961  11.554  10.894   1.020 -0.2444  0.4568  0.3844
45079SOL    HW146962  11.483  10.930   1.073 -1.3111 -0.4429 -0.3823
45079SOL    HW246963  11.527  10.804   1.002  1.1028  0.0948  0.0733
45080SOL     OW46964   2.980  13.526  10.988  0.2267  0.2578  0.2016
45080SOL    HW146965   2.930  13.576  10.924  1.9814  1.9659  0.0603
45080SOL    HW246966   3.041  13.474  10.935  1.1134  1.0522  0.3911
45081SOL     OW46967   5.122   2.686   7.136 -0.1446 -0.1791 -0.1560
45081SOL    HW146968   5.201   2.705   7.086  0.2319 -0.4540  0.3270
45081SOL    HW246969   5.087   2.606   7.097 -0.5453  0.2880 -0.7858
45082SOL     OW46970   2.745   2.614   7.028  0.3322  0.1417 -0.0121
45082SOL    HW146971   2.726   2.598   6.936 -1.8353  0.1592  0.3683
45082SOL    HW246972   2.783   2.532   7.060  1.8162  0.3887 -1.0525
45083SOL     OW46973   5.570   6.724   6.753 -0.1908  0.3548 -0.4846
45083SOL    HW146974   5.653   6.766   6.774 -0.1929 -0.7763  2.1326
45083SOL    HW246975   5.593   6.632   6.742 -0.9404  0.2176 -0.9226
45084SOL     OW46976   7.309   3.522   2.892  0.2648 -0.2350 -0.3150
45084SOL    HW146977   7.326   3.574   2.970  0.2165  2.1426 -1.8089
45084SOL    HW246978   7.376   3.452   2.895  0.0097 -0.4395  1.9855
45085SOL     OW46979   8.272   6.910   5.060 -0.6743 -0.7128  0.2276
45085SOL    HW146980   8.248   7.000   5.078  2.1745  0.1670  0.1368
45085SOL    HW246981   8.199   6.875   5.008 -0.6293  2.4007 -2.2008
45086SOL     OW46982   1.997   6.722   2.432 -0.1859 -0.1217  0.3624
45086SOL    HW146983   2.052   6.780   2.484 -0.1573  1.0104 -0.8744
45086SOL    HW246984   2.056   6.652   2.403  0.8646  1.5109 -1.6348
45087SOL     OW46985  12.694   9.759  12.609 -0.2035 -0.0764 -0.2967
45087SOL    HW146986  12.658   9.737  12.523  1.0544  0.8677 -1.1140
45087SOL    HW246987  12.775   9.708  12.615  0.4827  0.9590 -0.3508
45088SOL     OW46988   1.500  11.651   6.088 -0.0638  0.3243 -0.0693
45088SOL    HW146989   1.425  11.677   6.142  0.2411  1.8056 -0.3040
45088SOL    HW246990   1.573  11.703   6.123 -0.2711  3.0633 -3.1845
45089SOL     OW46991  13.645  11.190   0.818 -0.1429 -0.0013 -0.0834
45089SOL    HW146992  13.720  11.200   0.760 -0.0326  1.4269  0.2788
45089SOL    HW246993  13.577  11.151   0.763  0.1532  0.7737 -1.0251
45090SOL     OW46994   5.618   1.793   5.434  0.1398  0.4622  0.0742
45090SOL    HW146995   5.536   1.811   5.478  0.3020  1.1573  0.0945
45090SOL    HW246996   5.592   1.762   5.347 -0.2320 -2.2313  1.0381
45091SOL     OW46997   4.892   8.892   7.104  0.2266 -0.0284 -0.5686
45091SOL    HW146998   4.845   8.839   7.040  2.6559 -1.5814 -1.1559
45091SOL    HW246999   4.882   8.844   7.187  0.0591  0.1169 -0.5025
45092SOL     OW47000   3.094   3.360  13.214 -0.4569  0.0041 -0.1083
45092SOL    HW147001   3.033   3.409  13.160  1.3461  1.6780 -0.7427
45092SOL    HW247002   3.155   3.321  13.152 -2.0370 -3.5535  0.3279
45093SOL     OW47003   5.685   5.330  10.950  0.2591  0.4487 -0.5281
45093SOL    HW147004   5.617   5.282  10.902  0.2942 -3.1136  2.4854
45093SOL    HW247005   5.637   5.390  11.007 -0.1735  0.0643 -0.4830
45094SOL     OW47006   6.525   0.465   1.295  0.2363  0.1364  0.4259
45094SOL    HW147007   6.533   0.472   1.390 -0.6399 -1.2090  0.6300
45094SOL    HW247008   6.498   0.552   1.267  0.4380  0.5365  1.4175
45095SOL     OW47009   6.973   7.522   9.300 -0.0372  0.3098 -0.1538
45095SOL    HW147010   6.997   7.574   9.224  1.0245 -1.0596 -0.8006
45095SOL    HW247011   7.021   7.440   9.289  0.1017  0.0521  1.9663
45096SOL     OW47012   3.525   7.157   5.293  0.4340 -0.8785  0.2524
45096SOL    HW147013   3.503   7.185   5.381  0.3671 -0.7742  0.2027
45096SOL    HW247014   3.621   7.152   5.292  0.5712  0.9925 -0.2286
45097SOL     OW47015  10.748  11.492   4.352 -0.3422  0.0870 -0.3018
45097SOL    HW147016  10.711  11.579   4.359  0.1970  0.2138  1.9081
45097SOL    HW247017  10.673  11.434   4.341 -1.1114  0.5190  2.0666
45098SOL     OW47018  13.601  12.708   4.235  0.4619 -0.1395 -0.4242
45098SOL    HW147019  13.682  12.670   4.270  1.2482  1.0859 -0.8505
45098SOL    HW247020  13.579  12.778   4.296 -0.9220 -1.1616  0.3029
45099SOL     OW47021   6.317   4.550   7.219 -0.0564 -0.1099  0.7152
45099SOL    HW147022   6.326   4.557   7.314 -0.0060  1.7483  0.6097
45099SOL    HW247023   6.390   4.601   7.184 -1.9618  2.1386 -0.2517
45100SOL     OW47024   8.421  12.484   5.851 -0.3212  0.5750  0.9026
45100SOL    HW147025   8.438  12.577   5.864 -1.0050  0.6209  1.5585
45100SOL    HW247026   8.340  12.467   5.899 -0.6952 -0.1727  0.0567
45101SOL     OW47027   8.852   9.146  12.072 -0.1686 -0.0359  0.1837
45101SOL    HW147028   8.876   9.236  12.094  0.9912 -0.4994  0.9000
45101SOL    HW247029   8.831   9.149  11.979  0.3632  0.8719  0.0792
45102SOL     OW47030   8.600  10.291   9.070  0.3453 -0.0684  0.2237
45102SOL    HW147031   8.597  10.315   8.977  1.7406 -0.6011  0.0164
45102SOL    HW247032   8.651  10.360   9.111 -2.5434  1.6510  1.1444
45103SOL     OW47033   7.711   3.140   1.723  0.0649  0.0984 -0.3817
45103SOL    HW147034   7.734   3.047   1.727  2.9620  0.6153 -2.3283
45103SOL    HW247035   7.771   3.182   1.786 -1.2899  0.7039  0.5647
45104SOL     OW47036   7.697   4.213   9.069 -0.4085 -0.8142 -0.1631
45104SOL    HW147037   7.707   4.127   9.110  0.8818 -0.4422  0.3662
45104SOL    HW247038   7.737   4.202   8.982  0.2150 -0.6280  0.0946
45105SOL     OW47039   3.326  12.945   8.355 -0.3580  0.2816  0.1402
45105SOL    HW147040   3.285  12.956   8.269  0.1965 -0.0744 -0.1765
45105SOL    HW247041   3.289  12.864   8.389 -2.1095  1.4386  1.1358
45106SOL     OW47042  11.316   9.122  13.247 -0.0740  0.2839  0.0884
45106SOL    HW147043  11.299   9.141  13.155 -2.2461  1.7839  0.7064
45106SOL    HW247044  11.283   9.034  13.260  0.5156 -0.0468 -0.6183
45107SOL     OW47045  12.428   2.837  10.804 -0.1855  0.3307 -0.0814
45107SOL    HW147046  12.388   2.782  10.871 -0.3652  0.8618  0.2620
45107SOL    HW247047  12.436   2.781  10.728 -4.3440  0.9070 -1.1870
45108SOL     OW47048  10.991  13.380  10.799 -0.2127  0.4796 -0.1013
45108SOL    HW147049  11.002  13.311  10.865 -0.7642  0.0455 -0.4479
45108SOL    HW247050  10.929  13.441  10.838 -0.5266  0.2309 -0.2037
45109SOL     OW47051  10.282   4.551   6.525  0.3201  0.1639 -0.1222
45109SOL    HW147052  10.294   4.456   6.521 -0.1327  0.0942  0.0938
45109SOL    HW247053  10.297   4.573   6.617  1.5730  0.4651 -0.3908
45110SOL     OW47054   4.400  11.866   3.785  0.5977  0.4960 -0.5189
45110SOL    HW147055   4.451  11.895   3.709  1.9842  0.7419  0.4631
45110SOL    HW247056   4.362  11.783   3.757  2.1117 -0.0512 -1.0879
45111SOL     OW47057  10.016   2.185   1.601  0.1942 -0.1383  0.5384
45111SOL    HW147058  10.096   2.157   1.644  1.8085  2.1179 -0.7571
45111SOL    HW247059  10.044   2.212   1.513 -1.7921  1.5631  0.3396
45112SOL     OW47060   9.959   3.878   0.508 -0.5959 -0.0657  0.0689
45112SOL    HW147061   9.986   3.798   0.553  2.8827 -0.0725 -1.6912
45112SOL    HW247062   9.893   3.917   0.565  1.0157 -1.7779  3.4064
45113SOL     OW47063  12.175   9.209   7.603  0.3306 -0.0993 -0.1369
45113SOL    HW147064  12.098   9.259   7.574 -0.7434 -1.4174  0.3309
45113SOL    HW247065  12.199   9.249   7.687 -0.1094  0.0539 -0.0775
45114SOL     OW47066   0.740   1.915   8.069  0.3752  0.0196  0.2470
45114SOL    HW147067   0.670   1.884   8.126  0.1685 -0.3148 -0.1779
45114SOL    HW247068   0.796   1.839   8.057  0.7673  0.2632  0.5139
45115SOL     OW47069  11.203  10.463   5.738 -0.3447 -0.1858  0.3144
45115SOL    HW147070  11.229  10.555   5.734  0.4310 -0.3292  1.5023
45115SOL    HW247071  11.148  10.457   5.816  0.0198 -0.8216  0.5279
45116SOL     OW47072   5.435   9.992   4.048 -0.6493  0.2264  0.0096
45116SOL    HW147073   5.498   9.933   4.006 -0.9380  0.8453 -1.3846
45116SOL    HW247074   5.482  10.076   4.055 -1.5415  0.9567 -1.9042
45117SOL     OW47075   7.626   5.710  10.646  0.2985 -0.4932  0.3655
45117SOL    HW147076   7.541   5.749  10.669 -0.7313 -1.4791 -1.5910
45117SOL    HW247077   7.624   5.623  10.687  0.6018 -0.3322  0.7334
45118SOL     OW47078   8.855   0.034   7.773 -0.1606  0.4860  0.2294
45118SOL    HW147079   8.760   0.036   7.755 -0.4806  0.4357  1.7699
45118SOL    HW247080   8.861   0.044   7.868  1.4011  0.5869  0.1365
45119SOL     OW47081   2.854   6.391   7.184 -0.3049 -0.4307 -0.1022
45119SOL    HW147082   2.813   6.460   7.235  0.0189  0.2897 -0.7943
45119SOL    HW247083   2.792   6.318   7.187 -0.4852 -0.2485  0.9377
45120SOL     OW47084   1.647  12.391  13.578  0.0053  0.4206 -0.0158
45120SOL    HW147085   1.664  12.312  13.629 -1.0601  0.1789  0.0044
45120SOL    HW247086   1.639  12.360  13.488 -1.5584  0.3010  0.1346
45121SOL     OW47087  13.008   7.986   1.788 -0.1843 -0.0125  0.5001
45121SOL    HW147088  12.966   7.935   1.719  0.5864 -1.1217  0.8088
45121SOL    HW247089  13.101   7.963   1.780  0.2657  1.7505  0.3348
45122SOL     OW47090  13.561   4.306  10.163  0.0856  0.2971 -0.0483
45122SOL    HW147091  13.550   4.224  10.115  3.1044  0.4256 -1.2109
45122SOL    HW247092  13.512   4.293  10.244 -0.0419 -2.4311 -0.4558
45123SOL     OW47093   6.724  12.777   0.929  0.1242  0.2842  0.0009
45123SOL    HW147094   6.796  12.818   0.881  1.6466 -2.7252 -0.5771
45123SOL    HW247095   6.741  12.800   1.021 -0.0885  2.2377 -0.4145
45124SOL     OW47096   6.606   3.666   0.901 -0.0882 -0.3722  0.1001
45124SOL    HW147097   6.589   3.580   0.938  1.6117 -0.0939  1.6846
45124SOL    HW247098   6.573   3.728   0.966  1.0862  0.1335  0.2548
45125SOL     OW47099   0.923  12.424   9.169 -0.2383  0.5029  0.0001
45125SOL    HW147100   0.908  12.330   9.177 -1.3696  0.8386  3.9098
45125SOL    HW247101   1.019  12.433   9.173 -0.1889 -0.4331  2.1414
45126SOL     OW47102   5.777  12.509   9.818  0.2948 -0.7306 -0.5711
45126SOL    HW147103   5.836  12.442   9.782  0.2586 -1.1799  0.1943
45126SOL    HW247104   5.787  12.584   9.759  2.5663 -0.3542  0.1837
45127SOL     OW47105   1.339   6.804   8.228 -0.0880  0.1707 -0.3078
45127SOL    HW147106   1.358   6.765   8.143 -3.3581 -3.0371  0.1981
45127SOL    HW247107   1.298   6.888   8.208  0.9811  0.3780 -1.7599
45128SOL     OW47108   1.364  13.564  12.050 -0.3951  0.2727 -0.1456
45128SOL    HW147109   1.396  13.646  12.013 -0.6546  0.7191  0.6182
45128SOL    HW247110   1.289  13.541  11.995 -0.4990  0.6955 -0.1843
45129SOL     OW47111   8.615   1.509   9.273  0.3443  0.4515 -0.1470
45129SOL    HW147112   8.524   1.482   9.258 -0.5806  1.1932  3.1217
45129SOL    HW247113   8.667   1.432   9.252 -1.4303 -1.2051  1.1977
45130SOL     OW47114  13.649   5.870   3.796  0.2652 -0.2510  0.1424
45130SOL    HW147115  13.642   5.937   3.728  1.3273 -0.3919 -0.1317
45130SOL    HW247116  13.732   5.888   3.840 -1.2835  1.0564  2.7852
45131SOL     OW47117   7.119   9.810   9.332 -0.0591 -0.3078  0.6039
45131SOL    HW147118   7.131   9.780   9.422  1.1381  0.6151  0.7838
45131SOL    HW247119   7.182   9.881   9.323  0.0761 -0.6147 -1.0799
45132SOL     OW47120   7.960  13.041   6.420 -0.0387 -0.1754 -0.1028
45132SOL    HW147121   7.940  13.065   6.330  0.7440 -1.0849 -0.5389
45132SOL    HW247122   7.875  13.032   6.463 -0.4190  0.0812 -0.7977
45133SOL     OW47123   2.490   0.297  12.679 -0.9980  0.0927  0.2330
45133SOL    HW147124   2.397   0.311  12.698 -0.5041  0.3878  2.7877
45133SOL    HW247125   2.524   0.254  12.758  1.3335  1.3968  0.0185
45134SOL     OW47126  10.409   4.638  13.073  0.1294 -0.1797 -0.1639
45134SOL    HW147127  10.488   4.682  13.105 -0.6274  2.4345 -1.6154
45134SOL    HW247128  10.339   4.701  13.088 -2.0117 -2.8152  2.0896
45135SOL     OW47129   1.456   2.935   3.766  0.0721 -0.2754 -0.5120
45135SOL    HW147130   1.474   2.870   3.833 -0.1617  0.9506  0.7740
45135SOL    HW247131   1.531   2.929   3.707  0.2109 -1.4624 -0.2494
45136SOL     OW47132   3.072   5.798   4.052 -0.6810  0.6101 -0.2991
45136SOL    HW147133   3.095   5.746   3.974  3.1696  1.1445  0.2509
45136SOL    HW247134   3.080   5.736   4.125  2.7866  1.4368  0.2339
45137SOL     OW47135   9.769   4.271   9.660 -0.0764  0.5369 -0.0559
45137SOL    HW147136   9.748   4.342   9.600 -0.6615  0.1475 -0.3208
45137SOL    HW247137   9.839   4.222   9.617 -0.1569  0.5427 -0.1930
45138SOL     OW47138   6.526   5.210   0.335 -0.1993 -0.2521 -0.0999
45138SOL    HW147139   6.499   5.250   0.418  0.3724 -0.6011  0.2580
45138SOL    HW247140   6.536   5.117   0.355  1.6569 -0.1016 -0.0919
45139SOL     OW47141  12.189  11.033  10.453  0.8817 -0.2833 -0.1682
45139SOL    HW147142  12.236  10.964  10.406 -1.0294 -0.5042 -1.8968
45139SOL    HW247143  12.153  11.089  10.384  1.3117  1.7476  1.1652
45140SOL     OW47144   2.635   6.073   0.964 -0.4392 -0.4408  0.0394
45140SOL    HW147145   2.617   6.054   0.872 -2.3246 -1.1334  0.4968
45140SOL    HW247146   2.619   5.990   1.008 -0.7137  0.1791  1.1341
45141SOL     OW47147   3.564  11.237  10.784 -0.2376 -0.4932 -0.0529
45141SOL    HW147148   3.575  11.222  10.878 -1.9040  0.3578  0.3135
45141SOL    HW247149   3.624  11.309  10.764  1.4734 -1.8437 -0.0692
45142SOL     OW47150   2.315  10.228  13.105  0.2148 -0.6613  0.2354
45142SOL    HW147151   2.251  10.231  13.176 -1.0058  0.7855 -0.8299
45142SOL    HW247152   2.315  10.137  13.076 -0.1982 -1.0021  1.2780
45143SOL     OW47153   3.575  10.588   0.652 -0.3960 -0.2510  0.5411
45143SOL    HW147154   3.631  10.666   0.659  2.1034 -1.9684  0.7396
45143SOL    HW247155   3.501  10.617   0.598  1.7004  1.6315 -1.5352
45144SOL     OW47156   0.203   8.738   7.604  0.1114  0.1035 -0.0354
45144SOL    HW147157   0.135   8.702   7.662 -0.6809  0.6057 -0.6302
45144SOL    HW247158   0.283   8.735   7.657 -0.5433  0.3315  1.0058
45145SOL     OW47159   6.426   7.694   7.494  0.3069  0.0073 -0.3729
45145SOL    HW147160   6.519   7.708   7.514  0.3645 -0.1554 -0.5252
45145SOL    HW247161   6.381   7.766   7.538  0.7090  1.4848 -2.2359
45146SOL     OW47162   4.406  10.117   7.570 -0.2865 -0.2590  0.1255
45146SOL    HW147163   4.337  10.147   7.629 -1.0094  0.2570 -0.9572
45146SOL    HW247164   4.371  10.131   7.482  0.3846 -1.8781 -0.4436
45147SOL     OW47165   1.353  10.072   4.338 -0.2134  0.8505 -0.1561
45147SOL    HW147166   1.287  10.016   4.298 -0.8932  2.0560 -0.7808
45147SOL    HW247167   1.358  10.149   4.281  0.2209  1.7229  0.9954
45148SOL     OW47168   9.710   7.072   8.505  0.2959 -0.1086  0.2410
45148SOL    HW147169   9.678   7.028   8.584 -0.1088 -2.0717 -0.9319
45148SOL    HW247170   9.793   7.028   8.485  0.6255  0.6757 -0.1787
45149SOL     OW47171   1.007  13.297  13.607  0.3596 -0.1196 -1.2704
45149SOL    HW147172   1.065  13.373  13.616  0.0767 -0.0257 -0.1080
45149SOL    HW247173   0.926  13.323  13.650  1.1233 -1.9494  1.6369
45150SOL     OW47174   9.773   4.806   2.228  0.1712 -0.2846  0.2255
45150SOL    HW147175   9.863   4.786   2.201  0.1602  1.8674 -1.6629
45150SOL    HW247176   9.718   4.765   2.161 -0.1801 -0.1138  0.4048
45151SOL     OW47177  13.211  12.882   0.653 -0.3726  0.1926  0.9966
45151SOL    HW147178  13.283  12.927   0.697  0.2621 -0.1747  0.3707
45151SOL    HW247179  13.220  12.790   0.679  1.2867 -0.4341 -1.4213
45152SOL     OW47180   5.148  10.549   7.491 -0.8472 -0.0380  0.0105
45152SOL    HW147181   5.079  10.510   7.543 -0.9754  0.3308  0.1207
45152SOL    HW247182   5.228  10.504   7.519 -1.2520 -1.6318 -1.2984
45153SOL     OW47183   3.433  11.528   8.607 -0.2373 -0.3812  0.1095
45153SOL    HW147184   3.467  11.451   8.653  1.3104 -0.2084 -0.6857
45153SOL    HW247185   3.343  11.537   8.639  0.0107 -1.6774  1.2725
45154SOL     OW47186   2.726   4.285  11.843  0.0075  0.1918 -0.3991
45154SOL    HW147187   2.683   4.201  11.860  0.0568  0.3748  0.7023
45154SOL    HW247188   2.807   4.281  11.893 -0.4767  1.2953  0.5163
45155SOL     OW47189   2.739   1.370   5.771 -0.4907  0.4603 -0.1518
45155SOL    HW147190   2.819   1.414   5.745 -1.2996  1.3621 -1.2140
45155SOL    HW247191   2.700   1.339   5.689 -0.9792 -0.4257  0.3922
45156SOL     OW47192   1.573   0.195   8.206  0.3795 -0.1553  0.1957
45156SOL    HW147193   1.575   0.227   8.116 -0.1112 -0.2778  0.1375
45156SOL    HW247194   1.570   0.274   8.260 -0.6840 -0.0890  0.0588
45157SOL     OW47195   0.730  10.864   3.229 -0.1920 -0.0264 -1.0091
45157SOL    HW147196   0.643  10.830   3.209 -0.0787  0.8399 -3.2610
45157SOL    HW247197   0.788  10.818   3.168  0.8221 -0.0358 -0.0572
45158SOL     OW47198   8.346   8.485  11.930  0.1006  0.1824  0.0910
45158SOL    HW147199   8.414   8.423  11.957  1.1829  1.2232 -0.1322
45158SOL    HW247200   8.329   8.538  12.008  0.6278  0.8628 -0.2392
45159SOL     OW47201  10.251   6.664   9.161 -0.3712  0.0995  0.2510
45159SOL    HW147202  10.320   6.703   9.108 -1.0191  1.3500  0.3010
45159SOL    HW247203  10.180   6.727   9.158 -1.8298 -1.4971 -0.4356
45160SOL     OW47204   6.813   9.778   0.380  0.4397  0.1854 -0.1896
45160SOL    HW147205   6.886   9.760   0.320  1.1533  1.0698  0.3765
45160SOL    HW247206   6.744   9.718   0.353  0.6506  0.6947 -2.0445
45161SOL     OW47207   9.892   9.258   2.419  0.0884  0.7660  0.0809
45161SOL    HW147208   9.851   9.176   2.443 -2.0104  1.0039 -2.2367
45161SOL    HW247209   9.819   9.317   2.399  1.4245  3.7533  2.9756
45162SOL     OW47210  13.655  10.443   7.749 -0.3122  0.1124  0.5104
45162SOL    HW147211  13.619  10.377   7.690 -0.2914 -0.2115  0.8596
45162SOL    HW247212  13.749  10.445   7.728 -0.6276  1.5762 -1.0087
45163SOL     OW47213  10.805   2.605  10.236  0.1114 -0.1045 -0.6024
45163SOL    HW147214  10.832   2.696  10.248  0.4677 -0.0982 -1.3950
45163SOL    HW247215  10.765   2.581  10.320 -0.9319  1.1016 -0.7227
45164SOL     OW47216   3.435   0.672   3.558 -0.2069 -0.3313 -0.3415
45164SOL    HW147217   3.406   0.591   3.515 -0.1964  0.6106 -2.2638
45164SOL    HW247218   3.430   0.738   3.489  0.9700  1.0595  0.8408
45165SOL     OW47219   6.502  11.210  12.946 -0.0660  0.1641 -0.3732
45165SOL    HW147220   6.423  11.201  12.999 -0.3397 -0.4423 -0.8738
45165SOL    HW247221   6.568  11.157  12.992  0.1484  0.9250  0.2165
45166SOL     OW47222   0.491   3.428  12.371  0.6453  0.7556 -0.2419
45166SOL    HW147223   0.584   3.425  12.348  0.6570  4.4410 -1.1974
45166SOL    HW247224   0.490   3.457  12.462  0.3922 -0.6388  0.2241
45167SOL     OW47225   3.616  11.100   1.318  0.4034  0.0434  0.4396
45167SOL    HW147226   3.672  11.172   1.348  0.2108  0.2907  0.2098
45167SOL    HW247227   3.648  11.024   1.366  0.5409  0.3020  0.7678
45168SOL     OW47228  11.057  12.910   4.541 -0.3371  0.2137 -0.0404
45168SOL    HW147229  11.028  12.819   4.546  0.0440  0.1364  0.9155
45168SOL    HW247230  11.150  12.907   4.563 -0.6142  0.9785  1.3517
45169SOL     OW47231   9.240  12.034   7.787 -0.4260  0.1461 -0.5184
45169SOL    HW147232   9.290  12.104   7.746  0.9859 -0.2109  0.5231
45169SOL    HW247233   9.162  12.078   7.823  0.5967  1.2677  0.4006
45170SOL     OW47234   2.226   4.149  11.756  0.1811  0.3601 -0.1636
45170SOL    HW147235   2.268   4.065  11.772  0.7707  0.4856 -1.0035
45170SOL    HW247236   2.298   4.212  11.749 -0.2101  0.8037 -0.2774
45171SOL     OW47237  13.354   8.514   5.750 -0.2804  0.3974  0.0287
45171SOL    HW147238  13.404   8.526   5.830 -0.7410  0.2224  0.3449
45171SOL    HW247239  13.415   8.471   5.690 -0.5525 -1.3594  0.9569
45172SOL     OW47240  10.362   7.093   2.940  0.1774 -0.2734 -0.7371
45172SOL    HW147241  10.309   7.171   2.957  0.2970 -0.1616 -0.8759
45172SOL    HW247242  10.346   7.036   3.015  2.5792  1.1994  1.0204
45173SOL     OW47243   2.647   3.426   1.134 -0.6583 -0.1452  0.0193
45173SOL    HW147244   2.682   3.471   1.058 -0.1183 -0.4310  0.0915
45173SOL    HW247245   2.623   3.497   1.195 -3.0521  0.1968 -1.1999
45174SOL     OW47246   1.857  10.824   0.691  0.6899  0.1535  0.8338
45174SOL    HW147247   1.943  10.782   0.679  0.5721 -0.3673  1.6860
45174SOL    HW247248   1.852  10.840   0.786  0.0096  0.5414  0.7361
45175SOL     OW47249   2.611   2.140   2.913  0.0668 -0.0798  0.3985
45175SOL    HW147250   2.624   2.050   2.943 -0.7171 -1.0658 -2.0003
45175SOL    HW247251   2.539   2.135   2.850 -1.1237  2.5245  1.3774
45176SOL     OW47252  11.720   7.084  10.043 -0.4766 -0.1706  0.3401
45176SOL    HW147253  11.753   7.167  10.078  2.3865 -0.7562 -0.6785
45176SOL    HW247254  11.774   7.068   9.966 -2.4058 -1.9725 -0.7338
45177SOL     OW47255   9.065   5.736   3.081 -0.0495 -0.2038 -0.2052
45177SOL    HW147256   9.042   5.678   3.008 -0.4481 -0.8756  0.4508
45177SOL    HW247257   9.001   5.717   3.149  0.7919 -0.1571  0.6254
45178SOL     OW47258   7.182  13.580  10.030  0.1519 -0.0043 -0.3728
45178SOL    HW147259   7.105  13.567  10.086  1.0312  1.0016  1.1628
45178SOL    HW247260   7.218  13.492  10.018 -0.3907 -0.3114  0.1703
45179SOL     OW47261   2.965   5.651   9.707  0.1930 -0.2495 -0.5831
45179SOL    HW147262   3.001   5.580   9.652 -0.5701 -0.5747 -0.6759
45179SOL    HW247263   3.025   5.655   9.781 -0.5225 -1.9794  0.1451
45180SOL     OW47264   8.515   7.213  11.265  0.3671  0.7493 -0.2469
45180SOL    HW147265   8.562   7.291  11.233  0.8483  0.2061 -0.8941
45180SOL    HW247266   8.440   7.205  11.207  0.1970  0.8607 -0.0416
45181SOL     OW47267   2.832   7.532   6.095 -0.2730 -0.4164  0.4440
45181SOL    HW147268   2.890   7.606   6.112 -1.0220  0.5975 -1.1406
45181SOL    HW247269   2.862   7.495   6.012 -2.6379  1.0177 -1.1848
45182SOL     OW47270   6.288  12.538  12.605 -0.4573  0.3081  0.0247
45182SOL    HW147271   6.349  12.464  12.603  1.4728  1.8502 -0.3762
45182SOL    HW247272   6.204  12.499  12.579  0.6626 -1.5831 -1.0539
45183SOL     OW47273   1.444   3.460   7.816  0.3109 -0.3975 -0.4903
45183SOL    HW147274   1.396   3.460   7.898 -0.5414  1.9932 -0.9001
45183SOL    HW247275   1.385   3.417   7.753  0.4444 -1.1089 -0.1378
45184SOL     OW47276   1.625   9.238  11.100 -0.9102  0.5986  0.5823
45184SOL    HW147277   1.669   9.225  11.184  0.8607  1.0830 -0.2069
45184SOL    HW247278   1.602   9.150  11.071  0.0249  0.2706  0.8084
45185SOL     OW47279  10.724   9.319   5.917 -0.1462  0.5652 -0.1653
45185SOL    HW147280  10.788   9.387   5.937 -0.0090  0.4476 -0.2074
45185SOL    HW247281  10.746   9.292   5.828  0.1766  0.0415  0.0736
45186SOL     OW47282  13.483   4.676  12.762  0.2508  0.5048  0.1800
45186SOL    HW147283  13.531   4.739  12.708 -0.4504  0.3544 -0.6589
45186SOL    HW247284  13.459   4.607  12.700 -2.4710  1.3624  0.1633
45187SOL     OW47285  12.889   1.733   9.022 -0.3260 -0.2702 -0.4417
45187SOL    HW147286  12.955   1.668   9.041  0.2505  0.2115 -0.7672
45187SOL    HW247287  12.856   1.710   8.934  1.7534  1.3681 -1.7513
45188SOL     OW47288  11.500   9.443   6.101 -0.0754 -0.0175 -0.3114
45188SOL    HW147289  11.584   9.488   6.095 -0.2007  0.0921 -1.4159
45188SOL    HW247290  11.472   9.432   6.010 -1.7167  0.8251  0.0556
45189SOL     OW47291   7.931   1.836   6.514  0.0190  0.4229 -0.2496
45189SOL    HW147292   7.856   1.891   6.492 -1.1926 -0.8788  0.4200
45189SOL    HW247293   7.947   1.854   6.607 -1.0693 -1.0382  0.2692
45190SOL     OW47294  11.281   5.377   0.557 -0.0078 -1.0528 -0.1388
45190SOL    HW147295  11.277   5.472   0.545 -0.7807 -1.1103 -0.3992
45190SOL    HW247296  11.374   5.358   0.565  0.3569 -0.5286 -2.4156
45191SOL     OW47297   4.368  12.872  12.598 -0.4374 -0.5002  0.5051
45191SOL    HW147298   4.450  12.919  12.609  0.5543 -2.5013  2.7636
45191SOL    HW247299   4.384  12.812  12.525  0.2952 -1.1503  1.1783
45192SOL     OW47300   2.617   8.526   8.668  0.2790  0.1895 -0.1865
45192SOL    HW147301   2.549   8.574   8.620  0.9993  2.1857  0.6606
45192SOL    HW247302   2.686   8.591   8.682  1.0778 -0.9656  1.5299
45193SOL     OW47303  11.537  10.160   7.576 -0.3833 -0.0210 -1.2648
45193SOL    HW147304  11.491  10.241   7.596 -2.7162 -1.1448 -1.7680
45193SOL    HW247305  11.571  10.172   7.488 -1.5050  0.1179 -1.6981
45194SOL     OW47306   0.827   5.817   0.378  0.6113 -0.5958  0.2858
45194SOL    HW147307   0.916   5.806   0.344  1.4821 -0.1346  2.3115
45194SOL    HW247308   0.826   5.770   0.461 -1.0725 -0.6331  0.2979
45195SOL     OW47309  11.262   9.972  11.705  0.2623 -0.4359  0.0627
45195SOL    HW147310  11.311   9.943  11.628 -0.3662 -1.8078  0.1567
45195SOL    HW247311  11.291  10.062  11.719 -0.1126  0.1037 -2.2000
45196SOL     OW47312   0.313  12.705   5.203 -0.1634  0.0478 -0.0450
45196SOL    HW147313   0.293  12.762   5.128 -2.3209  0.8061  1.0446
45196SOL    HW247314   0.380  12.645   5.169  0.4624  1.6826 -1.9424
45197SOL     OW47315   9.566  13.278   1.061  0.5454  0.0367 -0.3671
45197SOL    HW147316   9.573  13.253   1.153 -0.8299  0.3049 -0.1619
45197SOL    HW247317   9.626  13.219   1.015  2.0134  0.5723  0.7919
45198SOL     OW47318   3.021   9.753   5.371  0.3750 -0.4241  0.5942
45198SOL    HW147319   2.944   9.714   5.330 -1.2511  0.1722  2.8605
45198SOL    HW247320   3.026   9.841   5.333 -0.0812 -0.4609  0.4355
45199SOL     OW47321   6.439   8.997   7.873  0.4793 -0.5856  0.2274
45199SOL    HW147322   6.494   9.062   7.917  0.1827 -0.8172  0.9550
45199SOL    HW247323   6.422   8.930   7.940  0.9946 -1.5513 -0.5949
45200SOL     OW47324  12.453   9.989   7.861  0.2923  0.0521  0.5058
45200SOL    HW147325  12.400  10.013   7.785  0.1263 -1.0482  0.2541
45200SOL    HW247326  12.389   9.974   7.931  0.4480  1.1298  0.8972
45201SOL     OW47327   0.736  11.048  10.602  0.1018  0.0673 -0.5303
45201SOL    HW147328   0.765  10.956  10.600 -0.4801 -0.1165 -0.6700
45201SOL    HW247329   0.653  11.048  10.554  0.3690  0.7728 -0.9994
45202SOL     OW47330   7.441   9.524  13.329  0.7437  0.0707  0.2375
45202SOL    HW147331   7.489   9.604  13.307  0.5892 -0.1465 -0.9843
45202SOL    HW247332   7.455   9.467  13.253 -1.4081 -0.0162 -0.1589
45203SOL     OW47333   9.797   2.687  12.901  0.7576  0.4806  0.2902
45203SOL    HW147334   9.848   2.740  12.840 -1.5020  2.6555  0.1399
45203SOL    HW247335   9.733   2.642  12.846 -1.3534  2.5191  0.8835
45204SOL     OW47336   4.450   2.793   9.931  0.4305 -0.0027 -0.5699
45204SOL    HW147337   4.422   2.785  10.022  0.9200 -0.2692 -0.4401
45204SOL    HW247338   4.404   2.722   9.886 -2.5108  2.0948 -1.2346
45205SOL     OW47339   2.179   8.565   3.221  0.2420  0.4235 -0.4650
45205SOL    HW147340   2.249   8.592   3.280 -0.9383  0.5737  0.9028
45205SOL    HW247341   2.151   8.479   3.254 -1.6896  1.3296  0.4143
45206SOL     OW47342   1.042   4.541   4.500  0.7616  0.1994 -0.2973
45206SOL    HW147343   1.054   4.563   4.592 -2.1789 -1.4585  0.6009
45206SOL    HW247344   0.990   4.613   4.464 -1.0485 -0.7464  0.3032
45207SOL     OW47345   8.723   5.241   1.455  0.0515 -0.0670  0.0541
45207SOL    HW147346   8.718   5.324   1.408 -1.5873  0.1612  0.5601
45207SOL    HW247347   8.636   5.230   1.493  0.7693 -1.1463  1.4893
45208SOL     OW47348   1.706  12.406   0.382  0.1411 -0.0363 -0.2062
45208SOL    HW147349   1.625  12.419   0.431  0.2714  0.3728 -0.0949
45208SOL    HW247350   1.724  12.313   0.389 -0.6290 -0.2306 -0.7140
45209SOL     OW47351   4.307   4.085   6.700  0.1269 -0.7874 -0.5907
45209SOL    HW147352   4.305   4.131   6.784  2.2139  0.8661 -1.3525
45209SOL    HW247353   4.333   4.152   6.637 -3.6264 -1.3272 -3.0830
45210SOL     OW47354  12.739   7.646   6.808  0.4285 -0.0211 -0.1720
45210SOL    HW147355  12.766   7.596   6.730  0.4701 -1.2534  0.5934
45210SOL    HW247356  12.785   7.729   6.800  1.0655 -0.4303 -1.0629
45211SOL     OW47357   8.499   1.908   4.999  0.8702  1.0721  0.0718
45211SOL    HW147358   8.496   1.920   4.905  0.2168  0.8126  0.0598
45211SOL    HW247359   8.584   1.944   5.025  1.6019  0.0099 -0.7683
45212SOL     OW47360   5.001   6.663  11.112  0.4338  0.5439 -0.4607
45212SOL    HW147361   4.929   6.603  11.095  0.7526  0.5971 -2.1468
45212SOL    HW247362   5.079   6.616  11.081  1.0333  0.8064  0.5870
45213SOL     OW47363   1.426   5.295   9.276 -0.3070 -0.1607 -0.1633
45213SOL    HW147364   1.394   5.206   9.291  0.6501 -0.3331  0.9700
45213SOL    HW247365   1.517   5.284   9.250  0.7008  0.5514  2.7222
45214SOL     OW47366   7.924  11.582  10.620 -0.1437 -0.6443  0.2960
45214SOL    HW147367   8.013  11.573  10.654  0.4581  0.5517 -0.8684
45214SOL    HW247368   7.872  11.608  10.696  0.7482 -0.1059  0.7457
45215SOL     OW47369   4.341  12.672   5.261 -0.3288 -0.5689 -0.3710
45215SOL    HW147370   4.425  12.697   5.224  0.7634 -2.7895  0.4046
45215SOL    HW247371   4.329  12.581   5.233 -2.2435 -0.4554 -0.0601
45216SOL     OW47372   0.612   5.364   9.547 -0.1820 -0.3756 -0.3799
45216SOL    HW147373   0.693   5.407   9.573  0.6931 -1.4112 -1.2745
45216SOL    HW247374   0.590   5.306   9.620 -1.7063  1.9309  1.1045
45217SOL     OW47375   8.884  11.322   0.414  0.5677 -0.3619 -0.4055
45217SOL    HW147376   8.839  11.386   0.470 -0.8312  0.8990 -2.8232
45217SOL    HW247377   8.817  11.257   0.394  0.8281 -0.3900 -1.2011
45218SOL     OW47378  10.605  11.221   7.588 -0.1265 -0.5683  0.1556
45218SOL    HW147379  10.677  11.279   7.613 -1.0507  0.1835  1.2601
45218SOL    HW247380  10.616  11.144   7.643 -0.7692  0.0320  1.1651
45219SOL     OW47381   1.732   6.656   5.959  0.0151 -0.0374 -0.2882
45219SOL    HW147382   1.748   6.564   5.982  1.2098  0.2882  0.2326
45219SOL    HW247383   1.816   6.688   5.927 -0.5773  0.6816 -1.1847
45220SOL     OW47384   9.320  13.457   0.277 -0.0260  0.4912 -0.0553
45220SOL    HW147385   9.397  13.401   0.279 -0.0605  0.4422 -0.1180
45220SOL    HW247386   9.334  13.519   0.349  0.1689  0.6099 -0.1934
45221SOL     OW47387  10.303   5.914   2.189  0.1166  0.0323  0.5498
45221SOL    HW147388  10.389   5.907   2.230  0.0311 -2.6132  0.4290
45221SOL    HW247389  10.245   5.941   2.261  0.5686 -1.0058  1.3307
45222SOL     OW47390   3.745   6.305   9.991  0.5644  0.3033 -0.4305
45222SOL    HW147391   3.826   6.254   9.987 -0.6139 -1.6509 -0.2932
45222SOL    HW247392   3.749   6.349  10.076 -0.1324 -2.6911  1.2902
45223SOL     OW47393   8.092  10.889   7.407 -0.7113  0.3638 -0.3298
45223SOL    HW147394   8.108  10.979   7.380  2.9998  0.1683  0.6580
45223SOL    HW247395   8.142  10.836   7.346  0.1796 -0.7253  1.2864
45224SOL     OW47396  12.207   4.638   3.280 -0.5294  0.3259 -0.9001
45224SOL    HW147397  12.115   4.623   3.258 -0.8843 -0.6804  1.1008
45224SOL    HW247398  12.239   4.553   3.311  0.2772  1.3089  1.0871
45225SOL     OW47399  10.896  13.447   6.430 -0.6110  0.6334 -0.6045
45225SOL    HW147400  10.909  13.498   6.510 -1.6709  0.6774 -0.4434
45225SOL    HW247401  10.967  13.474   6.372  0.3335  0.4043  0.4054
45226SOL     OW47402  11.456   7.531   0.775  0.0436  0.5593  0.0225
45226SOL    HW147403  11.469   7.621   0.745 -0.2561  0.0202 -1.8860
45226SOL    HW247404  11.518   7.480   0.723 -0.0978 -0.3956  0.7715
45227SOL     OW47405   6.952   0.704   3.524 -0.5644 -0.4983 -0.5895
45227SOL    HW147406   6.931   0.777   3.465 -1.3639 -1.1161 -1.0870
45227SOL    HW247407   6.996   0.640   3.468  1.0509 -0.0026  0.0569
45228SOL     OW47408  12.231  10.707   8.275 -0.1865  0.3156  0.0547
45228SOL    HW147409  12.313  10.756   8.269  0.2029  0.0023  2.0379
45228SOL    HW247410  12.255  10.617   8.252 -0.5015  0.6211 -1.6463
45229SOL     OW47411  11.034   6.734  12.838 -0.0762  0.4043 -0.4007
45229SOL    HW147412  11.092   6.671  12.796 -0.4404  1.0324 -1.9369
45229SOL    HW247413  10.947   6.693  12.833 -0.1537  0.5746 -0.4609
45230SOL     OW47414   4.083  10.492   1.885 -0.1066  0.1344  0.1110
45230SOL    HW147415   4.120  10.484   1.797  0.6257  3.0504  0.0340
45230SOL    HW247416   4.156  10.472   1.944  0.3860  1.3763 -0.0278
45231SOL     OW47417   0.312   8.815   2.104 -0.5021 -0.5301  0.2163
45231SOL    HW147418   0.291   8.768   2.024 -1.5177  0.6987 -0.2651
45231SOL    HW247419   0.327   8.746   2.169 -0.8753 -1.5159 -0.7168
45232SOL     OW47420   4.902   8.625  13.164  0.2599  0.0280 -0.7899
45232SOL    HW147421   4.961   8.558  13.130 -0.1339 -0.8362  0.1451
45232SOL    HW247422   4.836   8.636  13.096  0.8180  0.1151 -1.3252
45233SOL     OW47423  12.569   0.346  13.343 -0.2452 -0.8181 -0.2744
45233SOL    HW147424  12.591   0.407  13.414 -3.0229 -1.8552  1.6587
45233SOL    HW247425  12.613   0.265  13.367  0.5106 -0.5960 -0.8905
45234SOL     OW47426  12.039   4.182   1.388 -0.2953 -0.0084 -0.4425
45234SOL    HW147427  12.104   4.182   1.459 -0.2612  1.3561 -0.4450
45234SOL    HW247428  12.075   4.122   1.323 -0.0695 -0.8774  0.4579
45235SOL     OW47429  10.311   6.812   7.503 -0.1781 -0.0783  0.0337
45235SOL    HW147430  10.231   6.808   7.556  0.1644  1.5928  0.7219
45235SOL    HW247431  10.372   6.754   7.547  0.0061  1.0668  1.3430
45236SOL     OW47432   9.433   2.311  10.192  0.2558  0.1428 -1.1255
45236SOL    HW147433   9.529   2.305  10.198  0.0777 -2.1829  1.3784
45236SOL    HW247434   9.415   2.404  10.208  2.0725  0.5955 -1.4053
45237SOL     OW47435  13.250  10.360   1.970  0.4711 -0.0249  0.0407
45237SOL    HW147436  13.234  10.388   1.880  0.3761 -0.5171 -0.1017
45237SOL    HW247437  13.313  10.423   2.004  1.7904 -0.7789 -0.9125
45238SOL     OW47438   7.352   3.719   0.584 -0.1594  0.4510 -0.3480
45238SOL    HW147439   7.334   3.770   0.663  2.1519  0.7329  0.0598
45238SOL    HW247440   7.273   3.667   0.570 -0.6085  0.3633  2.1816
45239SOL     OW47441   7.441  13.730   6.271  0.4801  0.0142 -0.0787
45239SOL    HW147442   7.516  13.692   6.227 -0.1796 -1.3681 -0.0539
45239SOL    HW247443   7.469  13.819   6.294  0.9188  0.8312 -3.1797
45240SOL     OW47444   9.848   8.469   6.572  0.1430  0.6015 -0.0640
45240SOL    HW147445   9.919   8.529   6.596  0.2829  0.5105 -0.2421
45240SOL    HW247446   9.803   8.450   6.655  1.2893 -0.5780  0.3192
45241SOL     OW47447   2.487   1.637  10.880 -0.0803  0.5264  0.5172
45241SOL    HW147448   2.479   1.692  10.959 -0.5369 -1.4380  1.9218
45241SOL    HW247449   2.411   1.661  10.826 -0.9570  0.4543  1.6671
45242SOL     OW47450   3.252   5.012   0.488  0.1317 -0.1023 -0.2020
45242SOL    HW147451   3.306   5.092   0.482  0.0306 -0.0519 -0.4642
45242SOL    HW247452   3.284   4.968   0.567 -1.2878  1.2816  1.2268
45243SOL     OW47453  13.171   7.441  12.052 -0.0752 -0.2476 -0.1752
45243SOL    HW147454  13.187   7.497  11.976 -1.4642  0.1301 -0.2085
45243SOL    HW247455  13.189   7.352  12.022 -1.5623 -0.2143 -1.2573
45244SOL     OW47456   8.047   2.239   4.336  0.0264 -0.0263 -0.2958
45244SOL    HW147457   8.089   2.155   4.318  0.2827  0.0770 -0.1862
45244SOL    HW247458   8.112   2.304   4.309 -0.0882  0.1342 -0.1841
45245SOL     OW47459   2.827   6.029   1.655 -0.0065 -0.0258 -0.4348
45245SOL    HW147460   2.834   5.935   1.636  1.5222 -0.1211  0.4418
45245SOL    HW247461   2.786   6.033   1.741  0.2785  0.0904 -0.3034
45246SOL     OW47462   0.015  12.718  10.839 -0.2518  0.1437 -0.0711
45246SOL    HW147463   0.095  12.752  10.880 -0.1668  0.0383 -0.1489
45246SOL    HW247464  -0.055  12.776  10.872 -0.1234  0.3259 -0.1164
45247SOL     OW47465   3.245   9.809   0.979  0.1451  0.6532  0.3777
45247SOL    HW147466   3.203   9.886   0.941 -0.6772 -0.7186 -1.6455
45247SOL    HW247467   3.217   9.810   1.071 -0.3734  2.3849  0.2342
45248SOL     OW47468  10.478   8.059  12.785 -0.5886 -0.1419  0.5615
45248SOL    HW147469  10.532   8.034  12.710 -2.6202 -0.9116 -0.7315
45248SOL    HW247470  10.428   8.135  12.756  1.2631  1.9650  2.4901
45249SOL     OW47471   8.778  11.387  11.395 -0.7318 -0.0356  0.0810
45249SOL    HW147472   8.788  11.331  11.472 -0.2987  1.1442  0.9127
45249SOL    HW247473   8.763  11.474  11.431  1.2873  0.8934 -1.1132
45250SOL     OW47474  11.958   3.280   5.941 -0.1640  0.3724 -0.1962
45250SOL    HW147475  12.002   3.221   6.002  0.6245 -0.1155 -1.2160
45250SOL    HW247476  11.866   3.251   5.941  0.1046 -0.5051 -0.2721
45251SOL     OW47477   9.224   9.490   4.277 -0.5350 -0.1043  0.0903
45251SOL    HW147478   9.214   9.492   4.182  1.6513  1.4281 -0.1591
45251SOL    HW247479   9.224   9.582   4.303  1.2832 -0.4050  1.2656
45252SOL     OW47480   1.501   3.176   2.288 -0.4095 -0.1429 -0.4992
45252SOL    HW147481   1.592   3.145   2.294  0.7494  2.6582 -1.7687
45252SOL    HW247482   1.451   3.099   2.261  1.5895 -1.7321  0.0680
45253SOL     OW47483  11.738   5.436   3.572 -0.5080 -0.9804 -0.2828
45253SOL    HW147484  11.738   5.426   3.476  0.5853  1.3122 -0.5843
45253SOL    HW247485  11.652   5.474   3.591 -0.3641 -0.5328 -0.4968
45254SOL     OW47486  10.923  11.288   6.129 -0.2779  0.0058 -0.2996
45254SOL    HW147487  11.003  11.275   6.079 -0.2680 -1.8004  0.1268
45254SOL    HW247488  10.876  11.205   6.122 -1.7803  0.7849  0.0598
45255SOL     OW47489   1.922   3.515  12.655  0.0589  0.0239  0.4805
45255SOL    HW147490   2.016   3.506  12.672  0.4056  0.4034 -1.0477
45255SOL    HW247491   1.885   3.429  12.674  1.4796 -1.6080 -3.2097
45256SOL     OW47492   6.518   9.286   7.248 -0.5215  0.6610  0.0536
45256SOL    HW147493   6.547   9.224   7.181 -0.3689 -0.8218  1.4362
45256SOL    HW247494   6.445   9.241   7.292 -0.5384  1.5402  0.9547
45257SOL     OW47495   5.134  11.084   0.713 -0.0651 -0.2065  0.3038
45257SOL    HW147496   5.055  11.065   0.663  0.3820 -0.8132 -0.1865
45257SOL    HW247497   5.150  11.178   0.700 -1.6319  0.3102  1.7709
45258SOL     OW47498   8.295   7.210   1.334  0.1376  0.3916 -0.1285
45258SOL    HW147499   8.267   7.187   1.246 -0.2098  2.2508 -0.5403
45258SOL    HW247500   8.218   7.196   1.389  0.2147 -0.3005 -0.1863
45259SOL     OW47501   2.016   4.846   4.979 -0.1066  0.0649  0.1513
45259SOL    HW147502   2.007   4.941   4.968 -0.5371 -0.1018 -1.0507
45259SOL    HW247503   2.055   4.836   5.066  1.6558  1.4274 -0.4291
45260SOL     OW47504  11.389   8.090   9.307  0.1352  0.5556  0.3071
45260SOL    HW147505  11.303   8.119   9.337  0.7544  2.3898  0.4141
45260SOL    HW247506  11.414   8.154   9.240  2.4188  1.5036  1.9477
45261SOL     OW47507  12.659   7.662  13.724  0.1403  0.2355 -0.1943
45261SOL    HW147508  12.628   7.619  13.644 -0.5825  0.4519 -0.0412
45261SOL    HW247509  12.615   7.748  13.723 -1.2596 -0.4119  1.2863
45262SOL     OW47510   8.140   0.976   9.000  0.1248  0.2502 -0.2017
45262SOL    HW147511   8.235   0.984   9.008  0.1588 -0.4470  0.1527
45262SOL    HW247512   8.119   0.892   9.041 -0.4796 -0.2723 -1.4967
45263SOL     OW47513   2.973   0.554  10.017 -0.1467  0.4174  0.2708
45263SOL    HW147514   3.065   0.575  10.005 -0.3233  0.5665 -0.9192
45263SOL    HW247515   2.969   0.510  10.102  0.7120  2.1324  1.2331
45264SOL     OW47516   1.392  12.982   8.993 -0.5201 -0.3665 -0.4003
45264SOL    HW147517   1.429  12.963   8.907  0.6795  0.8733 -0.1837
45264SOL    HW247518   1.304  13.015   8.974  0.0180  0.6430 -1.2144
45265SOL     OW47519   0.388   6.238   9.875 -0.0978 -0.0911 -0.9297
45265SOL    HW147520   0.379   6.309   9.939  2.0369  0.2121 -0.9015
45265SOL    HW247521   0.460   6.265   9.819 -2.0740 -0.2057 -3.7370
45266SOL     OW47522   5.839   0.976  10.042  0.2845 -0.5161 -0.6794
45266SOL    HW147523   5.744   0.979  10.030  0.2361 -0.5421 -0.2985
45266SOL    HW247524   5.874   0.978   9.953 -0.0984 -1.4579 -0.8567
45267SOL     OW47525   6.011   1.037   7.916 -0.0166 -0.0280  0.4157
45267SOL    HW147526   6.019   1.098   7.990 -1.9944 -0.1187  0.7573
45267SOL    HW247527   5.931   1.063   7.872 -0.0796 -1.4181 -0.3455
45268SOL     OW47528   0.858  12.388   0.840 -0.2518 -0.5615  0.1196
45268SOL    HW147529   0.836  12.299   0.812  0.6702 -0.3937 -1.2330
45268SOL    HW247530   0.784  12.415   0.894 -0.0037 -2.5949  1.6357
45269SOL     OW47531   0.123   8.595   9.387  0.2684 -0.9995 -0.8275
45269SOL    HW147532   0.114   8.691   9.385 -0.5764 -1.0811 -1.7284
45269SOL    HW247533   0.218   8.581   9.381  0.4312 -0.2165 -0.2923
45270SOL     OW47534   1.111   2.331   2.992  0.3285 -0.0914  0.1474
45270SOL    HW147535   1.057   2.252   2.991  0.1829  0.0084  0.0895
45270SOL    HW247536   1.198   2.301   2.968  0.4688 -0.3833  0.9644
45271SOL     OW47537  10.112   3.597   8.692  0.3515  1.2668 -0.0228
45271SOL    HW147538  10.135   3.525   8.750 -2.1671 -0.3788 -0.9166
45271SOL    HW247539  10.036   3.638   8.733 -2.3093 -0.7130 -2.5225
45272SOL     OW47540   0.017   4.717   4.871  0.2056 -0.6132 -0.4631
45272SOL    HW147541   0.077   4.735   4.944  0.0267  0.6973 -0.6169
45272SOL    HW247542  -0.054   4.667   4.911 -1.0486  1.9963  0.8405
45273SOL     OW47543   4.922   9.112   5.578  0.0447  0.3827  0.2154
45273SOL    HW147544   4.899   9.194   5.534 -0.9889  0.8179  1.5197
45273SOL    HW247545   4.905   9.128   5.670 -1.2819 -1.6319  0.3977
45274SOL     OW47546   0.847   6.797   7.489 -0.3475  0.0499  0.1419
45274SOL    HW147547   0.934   6.758   7.473 -0.9566 -0.8391 -1.1488
45274SOL    HW247548   0.785   6.733   7.453 -1.5325  0.8225  0.7581
45275SOL     OW47549  12.003  13.480   7.881  0.0744 -0.1868  0.5126
45275SOL    HW147550  12.072  13.539   7.852 -0.4822  0.2253 -0.0203
45275SOL    HW247551  11.924  13.535   7.883 -0.1800 -0.5717  1.3918
45276SOL     OW47552   2.566  12.148   9.329 -0.1127  0.3295 -0.1188
45276SOL    HW147553   2.512  12.144   9.250 -0.8374 -2.1371  0.3916
45276SOL    HW247554   2.656  12.153   9.298 -0.3903 -0.6897 -1.1175
45277SOL     OW47555   9.080   9.586  10.254 -0.4691 -0.3739  0.0515
45277SOL    HW147556   8.996   9.554  10.286 -1.8772  1.2707 -1.7166
45277SOL    HW247557   9.082   9.562  10.162  0.4227  0.6724 -0.2327
45278SOL     OW47558   0.336   0.143   1.069 -0.3266  0.6918  0.3629
45278SOL    HW147559   0.332   0.211   1.002 -0.6405 -0.2365 -0.5961
45278SOL    HW247560   0.427   0.116   1.071 -0.1038  1.4788  1.1050
45279SOL     OW47561  13.154   5.874   9.177 -0.2756  0.6487  0.6295
45279SOL    HW147562  13.140   5.955   9.129 -1.7314  0.0613  0.0203
45279SOL    HW247563  13.066   5.848   9.206 -0.1668 -1.7506 -0.9140
45280SOL     OW47564   0.904   7.680   2.276 -0.0609 -0.0958  0.0360
45280SOL    HW147565   0.820   7.721   2.258  0.7503  0.5725 -2.7270
45280SOL    HW247566   0.883   7.606   2.333 -2.3928  0.5266  0.0703
45281SOL     OW47567   4.126   6.023   9.736  0.1644  0.6316 -0.5133
45281SOL    HW147568   4.181   5.984   9.668 -0.1423  1.4492 -1.2573
45281SOL    HW247569   4.177   6.015   9.816  1.0843  0.7761 -1.0697
45282SOL     OW47570   1.139   2.563  13.306  0.5588  0.6420 -0.1440
45282SOL    HW147571   1.049   2.595  13.316  0.8121  0.9569  1.5272
45282SOL    HW247572   1.138   2.511  13.226 -1.3072  0.0231  0.2412
45283SOL     OW47573  11.704  10.585  12.798  0.1130 -0.4095  0.7934
45283SOL    HW147574  11.732  10.529  12.726 -0.5379 -0.0795  0.2784
45283SOL    HW247575  11.710  10.529  12.876 -0.8525 -1.3134  0.2479
45284SOL     OW47576  11.975  12.735   9.464  0.1219 -0.0764 -0.0860
45284SOL    HW147577  12.058  12.692   9.444 -0.5976 -0.7063 -1.8410
45284SOL    HW247578  11.920  12.666   9.501  0.0460  0.1058  0.1423
45285SOL     OW47579  12.864   9.679   1.147 -0.1104  0.1867  0.2367
45285SOL    HW147580  12.947   9.633   1.151 -0.5287 -0.5997  0.0581
45285SOL    HW247581  12.831   9.678   1.236 -1.0140 -1.5722 -0.0739
45286SOL     OW47582  11.840   2.373   9.247  0.2748  0.2463  0.1490
45286SOL    HW147583  11.803   2.443   9.194  1.0371  1.0607  0.6694
45286SOL    HW247584  11.859   2.414   9.332  2.5505 -0.0374 -0.1458
45287SOL     OW47585  10.868   7.396   9.281 -0.2802  0.3974 -0.0456
45287SOL    HW147586  10.789   7.437   9.314 -0.0613  0.2662  0.6582
45287SOL    HW247587  10.930   7.469   9.270 -0.0730  0.3397  0.6722
45288SOL     OW47588   8.261   3.277  12.279  0.3891  0.1434 -0.2222
45288SOL    HW147589   8.223   3.354  12.237 -0.0053  0.5604  0.8753
45288SOL    HW247590   8.185   3.226  12.307  0.6510  0.0759  0.3641
45289SOL     OW47591   1.076  12.931   0.849 -0.0604  0.5226  0.0253
45289SOL    HW147592   1.159  12.925   0.802  0.2220 -1.3028  0.6782
45289SOL    HW247593   1.100  12.969   0.934  0.9231 -3.3750  1.7349
45290SOL     OW47594   7.644   8.994   6.253  0.3999  0.0919  0.2988
45290SOL    HW147595   7.616   9.021   6.165  1.0538 -1.6786 -0.4933
45290SOL    HW247596   7.590   8.918   6.273  1.2583 -0.4074  0.7879
45291SOL     OW47597   0.063  12.056   1.697 -0.0445  0.8971  0.2436
45291SOL    HW147598  -0.011  12.099   1.655 -1.5773 -2.7451 -1.2075
45291SOL    HW247599   0.127  12.043   1.627 -1.0378 -1.9378 -0.2491
45292SOL     OW47600   4.902  10.009  11.308  0.0044 -0.5102 -0.3986
45292SOL    HW147601   4.923   9.962  11.389 -1.0232 -1.4202 -0.6410
45292SOL    HW247602   4.822  10.057  11.327  0.4331  0.2765 -0.5092
45293SOL     OW47603   7.410   6.683  12.586 -0.6986 -0.5602 -0.3268
45293SOL    HW147604   7.334   6.709  12.638 -1.4212 -0.8975 -1.2001
45293SOL    HW247605   7.376   6.672  12.497 -0.1838 -3.2360 -0.2605
45294SOL     OW47606  12.455   2.044   4.187 -0.4570 -0.1326 -0.3476
45294SOL    HW147607  12.547   2.071   4.184 -0.6765  0.8435  0.8929
45294SOL    HW247608  12.450   1.969   4.128  0.6668  1.1653 -2.2187
45295SOL     OW47609   4.354  10.584  12.015  0.4236  0.0100 -0.1633
45295SOL    HW147610   4.380  10.607  11.926  0.2804  0.9109  0.0168
45295SOL    HW247611   4.422  10.621  12.071  0.5024 -0.5320  0.1124
45296SOL     OW47612   8.021   8.128  10.439  0.0041  0.2917 -0.6101
45296SOL    HW147613   8.016   8.133  10.344 -1.0341 -0.0805 -0.5957
45296SOL    HW247614   7.974   8.206  10.469 -0.9909 -0.3667 -0.4141
45297SOL     OW47615   4.237  10.080  10.281  0.5505 -0.1082 -0.2955
45297SOL    HW147616   4.158  10.129  10.258  0.9083  0.3066 -0.6573
45297SOL    HW247617   4.250  10.019  10.209 -0.9459 -2.0925  1.0111
45298SOL     OW47618   4.158   6.485  12.464  0.0887 -0.1160 -0.2228
45298SOL    HW147619   4.109   6.548  12.411  0.5586  0.4873  0.0525
45298SOL    HW247620   4.240   6.529  12.485  1.0305 -1.3310 -1.1664
45299SOL     OW47621  11.478   7.362   4.911  0.2978  0.2023 -0.6963
45299SOL    HW147622  11.490   7.327   4.823  1.6817 -1.6308  0.1402
45299SOL    HW247623  11.550   7.324   4.962 -0.4165  1.2456  1.2213
45300SOL     OW47624   1.242   4.031  13.009  0.0634 -0.1697  0.4682
45300SOL    HW147625   1.146   4.036  13.018  0.2227  0.1815  2.5733
45300SOL    HW247626   1.260   4.072  12.925 -1.5515  0.9628  0.6191
45301SOL     OW47627  12.916   7.626  12.416 -0.1134  0.0431 -0.1874
45301SOL    HW147628  12.828   7.590  12.411 -0.3917  0.5425  0.8693
45301SOL    HW247629  12.936   7.652  12.326 -0.5784 -1.1255 -0.6553
45302SOL     OW47630   6.937   3.253   0.992  0.6579  0.2148  0.8903
45302SOL    HW147631   6.846   3.245   0.963  0.5988  0.0507  1.1200
45302SOL    HW247632   6.962   3.342   0.969  0.6759  0.0235  0.1438
45303SOL     OW47633  10.119   5.257   9.443  0.5068 -0.8565  0.0201
45303SOL    HW147634  10.052   5.197   9.476 -0.8272  0.2222 -0.6314
45303SOL    HW247635  10.098   5.341   9.484  2.0644 -0.6914  0.5526
45304SOL     OW47636   5.616   4.214   8.723 -0.0894  0.1362 -0.4554
45304SOL    HW147637   5.667   4.285   8.684 -0.8163  0.4477 -0.8689
45304SOL    HW247638   5.544   4.201   8.662 -0.0707 -0.8330 -0.2802
45305SOL     OW47639   1.828   4.019   9.447  0.4488 -0.4807  0.7431
45305SOL    HW147640   1.737   4.047   9.442  1.3308  2.4737 -1.2681
45305SOL    HW247641   1.828   3.931   9.409 -1.4555 -0.2764  0.1558
45306SOL     OW47642   8.876   7.572   8.429 -1.0073  0.1830 -0.4255
45306SOL    HW147643   8.879   7.591   8.522  1.7609  0.9555 -0.5627
45306SOL    HW247644   8.829   7.489   8.422  0.0316 -0.6829  1.8411
45307SOL     OW47645  11.506   7.123   8.756 -0.1705  0.1350 -0.2338
45307SOL    HW147646  11.464   7.078   8.683 -0.3683 -0.0193 -0.0261
45307SOL    HW247647  11.454   7.098   8.833 -1.1942  1.8983 -0.3166
45308SOL     OW47648   1.904  10.781   3.177 -0.0066  0.1198 -0.0348
45308SOL    HW147649   1.901  10.823   3.091  0.4619  1.6116  0.6458
45308SOL    HW247650   1.839  10.828   3.229 -0.3760 -0.8523  0.4117
45309SOL     OW47651   4.117   7.990   6.873 -0.5721 -0.0474 -0.6868
45309SOL    HW147652   4.194   7.944   6.839 -0.6001  0.0568 -0.8884
45309SOL    HW247653   4.059   7.920   6.902  0.0456 -0.1192  0.4619
45310SOL     OW47654   4.047   0.763   0.462  0.0902  0.4234  0.1459
45310SOL    HW147655   3.975   0.707   0.434  0.4932  0.3761 -0.8155
45310SOL    HW247656   4.056   0.744   0.556  0.8033 -1.8093 -0.3084
45311SOL     OW47657   3.704   8.479   9.955 -0.3451  0.6406 -0.2959
45311SOL    HW147658   3.791   8.460   9.918  0.7257 -0.2987  2.4275
45311SOL    HW247659   3.693   8.573   9.941  0.1347  0.4317 -2.5050
45312SOL     OW47660   7.160   0.170   2.900 -0.1131  0.1032  0.4614
45312SOL    HW147661   7.256   0.174   2.909 -0.1377  0.1851  0.6980
45312SOL    HW247662   7.132   0.115   2.974 -0.3286  0.8047  0.9132
45313SOL     OW47663   6.826  12.033   1.811 -0.5169  0.0225 -0.3318
45313SOL    HW147664   6.746  11.992   1.843 -1.4312 -0.6546 -3.1828
45313SOL    HW247665   6.803  12.067   1.724  2.3620 -0.5511 -1.4488
45314SOL     OW47666  12.881   6.710  12.350 -0.3273  0.8948 -0.3419
45314SOL    HW147667  12.942   6.747  12.286 -0.9357  1.0031 -0.8703
45314SOL    HW247668  12.922   6.727  12.435 -0.1793  2.0251 -0.6209
45315SOL     OW47669   3.693   5.744   8.516  0.1257 -0.5440  0.9000
45315SOL    HW147670   3.753   5.762   8.444  1.2191 -1.6073  1.4996
45315SOL    HW247671   3.614   5.711   8.474  0.0084  0.6642  0.1039
45316SOL     OW47672   0.718   3.730  12.748  0.2682 -0.4119  0.3670
45316SOL    HW147673   0.790   3.778  12.789  0.2482 -0.7929  0.8608
45316SOL    HW247674   0.648   3.795  12.737 -0.3241 -0.6390  2.4282
45317SOL     OW47675  11.634   7.325   2.119 -0.1628 -0.4485 -0.7411
45317SOL    HW147676  11.599   7.344   2.205  0.7203  1.1430 -0.6974
45317SOL    HW247677  11.560   7.291   2.069 -1.0839  0.2264  0.1426
45318SOL     OW47678  12.914  10.279   2.790  0.0312  0.2142 -0.0952
45318SOL    HW147679  12.867  10.229   2.856 -1.5871  1.4011 -0.3097
45318SOL    HW247680  12.993  10.310   2.835 -0.4265 -0.0464  0.9127
45319SOL     OW47681   7.977   0.016   1.806 -0.3649 -0.5868 -0.0660
45319SOL    HW147682   7.931   0.064   1.875  0.6224 -0.6370  0.6469
45319SOL    HW247683   8.055  -0.018   1.848  0.5570 -0.1464 -1.3451
45320SOL     OW47684   9.511   3.281  12.306  0.1118 -0.1215 -0.2040
45320SOL    HW147685   9.470   3.258  12.389  1.1050 -0.1431  0.2979
45320SOL    HW247686   9.472   3.221  12.242  0.0583 -0.7711  0.4294
45321SOL     OW47687  12.374   8.938  11.737 -0.2860 -0.1881 -0.5404
45321SOL    HW147688  12.426   8.940  11.817 -1.8303  1.1773  0.5217
45321SOL    HW247689  12.305   8.874  11.755 -1.0358  0.6160 -0.4723
45322SOL     OW47690   6.124  12.598  10.980 -0.3698  0.2041 -0.3331
45322SOL    HW147691   6.216  12.618  10.959  0.2182  0.2345  2.0161
45322SOL    HW247692   6.086  12.683  11.003 -1.3597  0.3719 -2.3211
45323SOL     OW47693   9.456   2.106   2.409  0.2390  0.0761  0.6894
45323SOL    HW147694   9.445   2.079   2.500  0.0876 -0.1477  0.6073
45323SOL    HW247695   9.497   2.030   2.367  0.6772  0.3272  0.6551
45324SOL     OW47696   9.444   3.270   4.359 -0.4529 -0.3518 -0.2008
45324SOL    HW147697   9.513   3.258   4.424  0.6518  0.1747 -1.2360
45324SOL    HW247698   9.459   3.201   4.295 -0.9131 -0.2539 -0.4177
45325SOL     OW47699   2.477   5.953   6.010  0.3787  0.1101  0.0010
45325SOL    HW147700   2.529   5.975   6.087  0.2721  0.8915 -0.1463
45325SOL    HW247701   2.520   5.998   5.938 -0.0274  0.0965 -0.2536
45326SOL     OW47702   2.725   5.230  12.349  0.2620  0.3045 -0.6063
45326SOL    HW147703   2.713   5.195  12.261  0.1278 -0.7111 -0.1994
45326SOL    HW247704   2.637   5.256  12.377  0.1080 -0.5076 -0.3175
45327SOL     OW47705   0.686   5.297  12.565 -0.0661 -0.2040 -0.1544
45327SOL    HW147706   0.666   5.384  12.597  1.0158 -0.5019  1.4622
45327SOL    HW247707   0.712   5.248  12.643 -0.3269 -1.8811 -1.0681
45328SOL     OW47708   8.915   4.562   9.751  0.2072  0.0861  0.2428
45328SOL    HW147709   9.010   4.567   9.739  0.0870  0.8526 -0.4725
45328SOL    HW247710   8.892   4.645   9.794 -0.1481 -0.0823  0.3847
45329SOL     OW47711   0.321   6.043   8.417  0.5875  0.2005  0.0013
45329SOL    HW147712   0.271   5.969   8.452 -0.1038  0.5422 -0.2430
45329SOL    HW247713   0.263   6.118   8.427 -0.5355  0.0149 -3.7252
45330SOL     OW47714   2.185   4.293   9.928  0.2077  0.1835 -0.0178
45330SOL    HW147715   2.110   4.343   9.960 -0.1401 -1.0942  1.2789
45330SOL    HW247716   2.208   4.236  10.001  0.4436 -1.7136 -1.5123
45331SOL     OW47717   2.168   5.363   2.513  0.5128  0.4585  0.2117
45331SOL    HW147718   2.210   5.375   2.429  2.0427  0.9976  1.0212
45331SOL    HW247719   2.152   5.451   2.545 -1.1140  0.2698  0.0136
45332SOL     OW47720   7.962   2.991   7.520  0.0760  0.0624  0.1953
45332SOL    HW147721   8.053   2.963   7.511  0.7866  1.5676  2.0497
45332SOL    HW247722   7.920   2.922   7.570 -0.1340 -1.1411 -1.5322
45333SOL     OW47723  12.411   7.287   8.356 -0.1664 -0.4332  0.2758
45333SOL    HW147724  12.482   7.276   8.420  0.2912  0.5259 -0.0419
45333SOL    HW247725  12.410   7.204   8.308  0.9704 -0.3619  0.0794
45334SOL     OW47726   6.921   4.969   1.464  0.2279 -0.2194  0.4277
45334SOL    HW147727   6.992   4.931   1.412  0.0189  0.3095 -0.2589
45334SOL    HW247728   6.879   5.032   1.406 -0.0328  0.3772  1.2374
45335SOL     OW47729   4.892   8.868   3.188  0.5876 -0.0548 -0.2571
45335SOL    HW147730   4.845   8.951   3.179  2.8087  1.2875 -0.2314
45335SOL    HW247731   4.847   8.824   3.261 -0.2429  1.4067  0.1731
45336SOL     OW47732   0.142   6.703   6.753 -0.2061  0.0193  0.4177
45336SOL    HW147733   0.094   6.690   6.671 -0.3437  1.1318  0.3017
45336SOL    HW247734   0.230   6.670   6.735  0.0777  1.2095 -0.5505
45337SOL     OW47735   0.562   7.769   4.435 -0.2239 -0.2229  0.3286
45337SOL    HW147736   0.631   7.825   4.468 -0.7744  0.5499  0.2025
45337SOL    HW247737   0.570   7.775   4.339  0.1404 -0.9015  0.3136
45338SOL     OW47738  12.160   2.655   0.097 -0.0737  0.0041 -0.7283
45338SOL    HW147739  12.116   2.706   0.166  1.7799  0.3316  0.2924
45338SOL    HW247740  12.160   2.565   0.130 -0.4000 -0.0677 -0.9342
45339SOL     OW47741   2.053   3.978   7.001 -0.0961  0.6840 -0.5246
45339SOL    HW147742   1.971   4.026   7.012 -0.3603  0.3570 -1.0038
45339SOL    HW247743   2.091   3.973   7.088 -0.9673  0.1597 -0.1768
45340SOL     OW47744   0.118   0.749   6.691 -0.0419 -0.0949 -0.6124
45340SOL    HW147745   0.063   0.673   6.710  1.4634 -1.4535 -1.4441
45340SOL    HW247746   0.139   0.741   6.598  0.2592  1.2704 -0.6781
45341SOL     OW47747   1.525   0.791   4.465 -0.3550 -0.0207 -0.1837
45341SOL    HW147748   1.604   0.784   4.519 -0.8122 -0.9456  0.3900
45341SOL    HW247749   1.545   0.861   4.403  1.0729 -0.5198 -0.3265
45342SOL     OW47750   0.759   8.534   6.369  0.1988 -0.7977 -0.1343
45342SOL    HW147751   0.684   8.584   6.399  0.6567  0.3569 -0.8396
45342SOL    HW247752   0.771   8.561   6.278  1.2855 -1.1714 -0.1184
45343SOL     OW47753   6.998   9.440  10.566  0.2521  0.2478 -0.6214
45343SOL    HW147754   6.981   9.353  10.530 -0.5671  0.2898 -0.3746
45343SOL    HW247755   6.926   9.494  10.533 -0.5529  0.2844  1.0663
45344SOL     OW47756  12.913   5.196  10.379  0.1950 -0.0179  0.3663
45344SOL    HW147757  12.883   5.286  10.365  0.9071  0.2349  0.4251
45344SOL    HW247758  12.859   5.164  10.451 -0.4082  0.1936  0.0155
45345SOL     OW47759   0.606   8.756  12.555  0.0874 -0.4252 -0.3206
45345SOL    HW147760   0.650   8.828  12.510  1.8626  0.5492  2.7029
45345SOL    HW247761   0.647   8.677  12.519  2.0831  0.3372  0.1614
45346SOL     OW47762   6.248   8.581   6.084  0.2028 -0.3877  0.1158
45346SOL    HW147763   6.255   8.494   6.046  0.8079 -0.9367  1.4178
45346SOL    HW247764   6.162   8.583   6.126  0.3400 -0.4885  0.4015
45347SOL     OW47765   6.795  11.494   2.558  0.2629  0.3952 -0.0294
45347SOL    HW147766   6.722  11.514   2.617 -0.1304  0.5362 -0.5590
45347SOL    HW247767   6.791  11.562   2.491  0.0322 -0.3960 -0.8333
45348SOL     OW47768  12.931   6.949   0.739 -0.2189 -0.2749  0.0021
45348SOL    HW147769  12.954   6.873   0.793  1.2069  0.0937 -0.0228
45348SOL    HW247770  12.981   7.021   0.779  1.1216 -0.0515 -1.9493
45349SOL     OW47771   1.841  12.124   4.414 -0.1537  0.7991  0.1869
45349SOL    HW147772   1.865  12.060   4.481 -0.0125 -0.1010 -0.7022
45349SOL    HW247773   1.900  12.197   4.429  0.5428  0.1991  0.4357
45350SOL     OW47774   9.055  12.608  12.937  0.0167 -0.4051 -0.3688
45350SOL    HW147775   9.107  12.655  13.002 -0.1109  0.0461 -0.5862
45350SOL    HW247776   9.075  12.515  12.952  2.4299 -0.2068 -1.6721
45351SOL     OW47777   2.997   4.687   7.158  0.3723  0.8846 -0.1482
45351SOL    HW147778   2.970   4.598   7.179 -0.0357  1.0216 -0.0852
45351SOL    HW247779   3.071   4.704   7.217  2.1053 -0.2816 -1.8668
45352SOL     OW47780   9.593   6.575   7.401 -0.2059  0.1227  0.4797
45352SOL    HW147781   9.635   6.570   7.487 -0.5943  2.5754  0.8929
45352SOL    HW247782   9.659   6.613   7.344 -0.7973  1.0581  0.3870
45353SOL     OW47783  12.486   9.743   0.118  0.1485 -0.0025  0.0209
45353SOL    HW147784  12.396   9.726   0.145  0.4307 -2.0935 -0.1592
45353SOL    HW247785  12.489   9.711   0.027  1.2831 -0.8631  0.3415
45354SOL     OW47786  12.759   6.104  12.147 -0.2679  0.6252  0.4316
45354SOL    HW147787  12.671   6.142  12.153 -0.2441  0.5088  2.6152
45354SOL    HW247788  12.755   6.027  12.205  0.7501 -0.5088 -0.9573
45355SOL     OW47789   6.314   0.480   5.252  0.2876 -0.4673  0.0549
45355SOL    HW147790   6.298   0.408   5.191  0.7756  0.3812 -1.1076
45355SOL    HW247791   6.242   0.541   5.238  1.5648  0.8031 -1.3441
45356SOL     OW47792   6.709   4.023  12.522 -0.2806 -0.1118 -0.3267
45356SOL    HW147793   6.646   4.093  12.504  0.7427  0.9617  0.1251
45356SOL    HW247794   6.710   4.015  12.618  0.8418  0.4610 -0.2718
45357SOL     OW47795   5.011   0.344   4.395  0.1900  0.1179  0.3321
45357SOL    HW147796   4.971   0.279   4.338 -0.0690 -0.2464  0.9222
45357SOL    HW247797   4.937   0.393   4.431  0.3961  0.9927 -0.3931
45358SOL     OW47798   2.591   5.827   7.514 -0.5402 -0.6399  0.2025
45358SOL    HW147799   2.501   5.798   7.495 -0.0298 -1.9262 -0.3200
45358SOL    HW247800   2.622   5.865   7.432 -0.6629  0.0082  0.4458
45359SOL     OW47801  11.936   1.153   0.544  0.2003  0.3787 -0.1910
45359SOL    HW147802  11.847   1.190   0.546  0.5226  1.2924 -1.6219
45359SOL    HW247803  11.984   1.209   0.483  1.4830 -0.7584 -0.2608
45360SOL     OW47804   5.544   7.928   5.923 -0.1161  0.6058  0.5249
45360SOL    HW147805   5.536   8.001   5.985 -0.5623  1.4232 -0.4614
45360SOL    HW247806   5.593   7.964   5.850  0.2765 -0.3056  0.3294
45361SOL     OW47807   4.819   9.180   5.817 -0.2415 -0.0065 -0.0385
45361SOL    HW147808   4.726   9.200   5.811 -0.2467 -0.2676 -1.1131
45361SOL    HW247809   4.825   9.111   5.883 -0.6181  1.0573  1.1426
45362SOL     OW47810   0.682   1.498   1.575 -0.3466  0.1256  0.1422
45362SOL    HW147811   0.769   1.499   1.616  1.2514 -0.1504 -2.9181
45362SOL    HW247812   0.652   1.408   1.585 -0.1684  0.1478  0.9735
45363SOL     OW47813   0.692   9.332  10.994 -0.6615 -0.3955 -0.6176
45363SOL    HW147814   0.720   9.255  10.944  1.5388 -1.1694  1.6359
45363SOL    HW247815   0.730   9.406  10.947  0.5629 -1.0178 -0.6441
45364SOL     OW47816   5.618   2.326  12.487 -0.1175 -0.1467  0.3736
45364SOL    HW147817   5.650   2.415  12.479  1.2350 -0.4819  1.5882
45364SOL    HW247818   5.551   2.318  12.419  0.7432  1.3371 -0.7047
45365SOL     OW47819  10.586  12.450   6.640  0.3664 -0.1417 -0.0630
45365SOL    HW147820  10.588  12.394   6.718 -0.6018  0.1210  0.1617
45365SOL    HW247821  10.628  12.531   6.668 -2.4757  1.0525  1.1119
45366SOL     OW47822  12.825   0.586   1.651 -0.1654 -0.8930 -0.4213
45366SOL    HW147823  12.835   0.492   1.640 -0.3161 -0.8461 -0.9961
45366SOL    HW247824  12.842   0.602   1.744 -0.1165 -1.4817 -0.3294
45367SOL     OW47825   6.100   4.023   8.217  0.1375 -0.1990  0.2013
45367SOL    HW147826   6.168   3.985   8.271  1.3356  1.3050 -0.1835
45367SOL    HW247827   6.031   4.049   8.278  0.3846 -0.7492  0.7144
45368SOL     OW47828   3.479  10.554  10.310  0.0899  0.0249 -0.0692
45368SOL    HW147829   3.394  10.593  10.326 -0.1040  0.0359 -1.0236
45368SOL    HW247830   3.518  10.543  10.396 -0.7426  0.3190  0.3523
45369SOL     OW47831   2.395   1.544  11.791 -0.4270 -0.2504  0.2945
45369SOL    HW147832   2.393   1.572  11.883 -3.0049 -1.9483  0.8218
45369SOL    HW247833   2.331   1.600  11.748  1.1344  0.8960 -0.6881
45370SOL     OW47834  11.084   7.416   1.347 -0.0584  0.1623 -0.3063
45370SOL    HW147835  11.053   7.349   1.407  0.2833 -0.9280 -1.2864
45370SOL    HW247836  11.047   7.391   1.262  2.4727 -0.5744 -1.3080
45371SOL     OW47837  12.646  12.010   5.949 -0.0422  0.3577  0.1428
45371SOL    HW147838  12.621  12.090   5.995  1.5355  0.4118  0.9609
45371SOL    HW247839  12.675  11.950   6.017 -0.0863 -0.4881 -0.5604
45372SOL     OW47840   3.931  13.591  11.578 -0.5566  0.2685 -0.0431
45372SOL    HW147841   3.963  13.567  11.665  1.7108 -1.0323 -1.1333
45372SOL    HW247842   3.844  13.552  11.572 -1.1777  1.2086  1.9277
45373SOL     OW47843   6.854   9.506   8.330 -0.2730 -0.3016  0.2027
45373SOL    HW147844   6.919   9.468   8.390 -0.0713 -0.9301 -0.3996
45373SOL    HW247845   6.791   9.436   8.316 -0.4750 -0.0645 -0.0886
45374SOL     OW47846   3.608  12.434   4.765 -0.2460 -0.1535  0.1713
45374SOL    HW147847   3.538  12.439   4.699  0.7174  1.0511 -0.8105
45374SOL    HW247848   3.669  12.370   4.730 -0.7657 -1.1014  0.9618
45375SOL     OW47849  10.052   3.410   7.088  0.2764  0.5616 -0.1676
45375SOL    HW147850   9.983   3.369   7.036 -1.2237  0.5289  1.7131
45375SOL    HW247851  10.078   3.343   7.151 -0.2930  1.5965  1.2140
45376SOL     OW47852   7.413   8.599   5.267  0.3483  0.6411 -0.9045
45376SOL    HW147853   7.374   8.538   5.331 -0.6338  0.8417 -1.2871
45376SOL    HW247854   7.389   8.563   5.182  2.6079 -0.2484 -1.2360
45377SOL     OW47855  11.331   9.861  10.375 -0.2882 -0.1044  0.1827
45377SOL    HW147856  11.423   9.841  10.387 -0.4398 -0.5795  0.6140
45377SOL    HW247857  11.305   9.906  10.455 -0.1052  1.3175 -0.5190
45378SOL     OW47858   5.272   1.886   6.135  0.3665 -0.0398  0.2142
45378SOL    HW147859   5.262   1.979   6.154  2.1188  0.6953 -2.0381
45378SOL    HW247860   5.216   1.871   6.059  4.0128  0.6048 -2.8933
45379SOL     OW47861   1.622   4.321   7.873  0.2492  0.5076  0.8278
45379SOL    HW147862   1.717   4.310   7.865  0.0708 -1.2716  0.7892
45379SOL    HW247863   1.594   4.353   7.787  0.3967 -2.4915 -0.4339
45380SOL     OW47864  11.067   0.017   5.830  0.0268  0.0189 -0.0545
45380SOL    HW147865  11.025  -0.069   5.839 -0.1008  0.0312 -0.5034
45380SOL    HW247866  11.070   0.032   5.735 -0.7486  0.8940  0.0445
45381SOL     OW47867   6.285  12.539   1.898 -0.5069  0.6804  0.5877
45381SOL    HW147868   6.228  12.501   1.965 -0.1470 -0.8109  0.0854
45381SOL    HW247869   6.373  12.512   1.923 -0.3856 -0.0334 -0.5400
45382SOL     OW47870  10.344  11.883   2.643 -0.2473  0.2331 -0.4831
45382SOL    HW147871  10.310  11.966   2.675 -0.6462  0.4476 -1.4161
45382SOL    HW247872  10.267  11.827   2.634  0.0988 -0.4865  0.8024
45383SOL     OW47873   5.192  12.001   2.164 -0.3202 -0.0524 -0.1711
45383SOL    HW147874   5.168  12.029   2.253  0.3219 -1.4331  0.4618
45383SOL    HW247875   5.147  11.917   2.153  0.2968 -0.2966 -0.8237
45384SOL     OW47876   5.930  11.744   0.750 -0.1056 -0.1186 -0.1067
45384SOL    HW147877   5.908  11.837   0.744 -0.1211  0.0232  1.6595
45384SOL    HW247878   5.862  11.706   0.805 -1.0445 -1.5592 -2.1284
45385SOL     OW47879   7.894   1.702   1.984  0.1090  0.1490  0.4049
45385SOL    HW147880   7.841   1.757   2.041 -0.6972 -0.0762 -0.1056
45385SOL    HW247881   7.966   1.671   2.039 -0.6498 -0.0652  1.2914
45386SOL     OW47882  10.467   4.636   9.602  0.4706 -0.0098  0.1194
45386SOL    HW147883  10.533   4.705   9.599  0.8963 -0.3181  1.6358
45386SOL    HW247884  10.419   4.651   9.683  2.5366 -3.1346  2.1914
45387SOL     OW47885   7.431  10.262  12.055 -0.0310 -0.0753 -0.6163
45387SOL    HW147886   7.508  10.226  12.011  0.7863  0.9209 -0.0670
45387SOL    HW247887   7.406  10.338  12.001 -1.5502 -1.2244 -1.6033
45388SOL     OW47888   9.896   6.928   5.798 -0.0642  0.2152 -0.1321
45388SOL    HW147889   9.822   6.926   5.858 -0.7202 -2.2230 -0.9022
45388SOL    HW247890   9.888   7.011   5.752 -1.4119  0.6854  0.8922
45389SOL     OW47891   7.361  13.709   9.325  0.4487 -0.3686 -0.7189
45389SOL    HW147892   7.437  13.674   9.371  1.5368  1.0341 -1.3770
45389SOL    HW247893   7.383  13.701   9.232 -0.3936 -0.3225 -0.9336
45390SOL     OW47894   7.678   3.984  12.098 -0.1544 -0.3743  0.1420
45390SOL    HW147895   7.657   4.036  12.019 -0.1855 -1.7742 -0.8077
45390SOL    HW247896   7.737   3.916  12.067 -1.8831 -2.2983  0.8479
45391SOL     OW47897   1.570  12.412   2.877  0.6156  0.2246  0.3201
45391SOL    HW147898   1.499  12.409   2.942 -0.5562  0.4204 -0.9225
45391SOL    HW247899   1.533  12.371   2.799  1.0561  2.3887 -1.1046
45392SOL     OW47900  13.199  10.378   0.307  0.1462  0.5109 -0.1168
45392SOL    HW147901  13.140  10.302   0.308  2.0054 -1.0229  0.0644
45392SOL    HW247902  13.147  10.448   0.269 -1.7266 -0.8026 -0.1302
45393SOL     OW47903  11.065   3.392   1.044 -0.3731 -0.2296 -0.2825
45393SOL    HW147904  11.144   3.338   1.053  0.5077  0.7453 -1.7284
45393SOL    HW247905  11.082   3.468   1.100 -1.5450 -1.3182  1.6301
45394SOL     OW47906   1.216  13.590   2.582 -0.4444  0.1773  0.1070
45394SOL    HW147907   1.156  13.593   2.507  0.9499 -0.1089 -1.0582
45394SOL    HW247908   1.187  13.514   2.632 -0.4084 -0.6067 -1.0206
45395SOL     OW47909  10.375   9.546   3.189  0.5404 -0.0528 -0.3739
45395SOL    HW147910  10.387   9.526   3.282  0.3712  0.4878 -0.2286
45395SOL    HW247911  10.289   9.511   3.167  0.0514  0.8722 -0.0079
45396SOL     OW47912  13.242   5.052   7.972 -0.1248  0.0532  0.4388
45396SOL    HW147913  13.280   5.134   7.941 -0.1071 -0.2505 -0.3481
45396SOL    HW247914  13.147   5.066   7.965 -0.1126 -0.3688 -0.7039
45397SOL     OW47915   1.745  13.547   3.779 -0.4190  0.7965 -0.3239
45397SOL    HW147916   1.726  13.519   3.869 -2.1952 -0.2166 -0.9752
45397SOL    HW247917   1.807  13.481   3.747  2.2688  2.5475  0.8896
45398SOL     OW47918   0.296   1.967  13.598  0.4982  0.0583  0.2300
45398SOL    HW147919   0.349   1.958  13.519  3.6164 -0.9307  2.2658
45398SOL    HW247920   0.285   2.062  13.608  1.0116  0.2405 -0.7755
45399SOL     OW47921   5.747   0.858   2.172  0.1497 -0.3008  0.7547
45399SOL    HW147922   5.778   0.825   2.088 -2.0955  1.4583 -0.8878
45399SOL    HW247923   5.814   0.920   2.200  1.3427 -1.5500  0.7480
45400SOL     OW47924   5.382   1.024   9.305 -0.3281  0.2057 -0.2356
45400SOL    HW147925   5.303   1.002   9.354 -0.7805 -0.7514 -1.3401
45400SOL    HW247926   5.375   0.974   9.224  0.5971  1.4049 -1.1061
45401SOL     OW47927   8.361   8.726   5.818  0.5344  0.0249  0.1895
45401SOL    HW147928   8.421   8.796   5.791 -0.5182  2.0019  2.5875
45401SOL    HW247929   8.378   8.715   5.911 -0.4712 -1.8388  0.1950
45402SOL     OW47930  12.818   9.534   6.635 -0.3062  0.3447 -0.3517
45402SOL    HW147931  12.780   9.454   6.673  0.4933  0.0732 -0.0756
45402SOL    HW247932  12.856   9.505   6.552 -1.5020  0.8075 -1.0764
45403SOL     OW47933   9.805  10.921   6.653 -0.3800 -0.2555 -0.4899
45403SOL    HW147934   9.847  10.931   6.738 -0.6270  0.8924 -0.4875
45403SOL    HW247935   9.712  10.915   6.672 -0.5991  1.6050 -0.7333
45404SOL     OW47936   3.703   1.042  13.172 -0.1399  0.2503  0.7735
45404SOL    HW147937   3.679   1.096  13.098 -1.4159  0.4925  1.3408
45404SOL    HW247938   3.671   0.954  13.150  0.7974 -0.0212  0.4141
45405SOL     OW47939   0.666   6.528   9.907  0.4664  0.2917 -0.1263
45405SOL    HW147940   0.572   6.543   9.901  0.2722  0.0075  1.5929
45405SOL    HW247941   0.702   6.614   9.931  0.2184 -0.2125  2.3709
45406SOL     OW47942   8.087  11.301   5.057 -0.8737  0.2236 -0.2853
45406SOL    HW147943   8.086  11.210   5.084 -1.8153  0.1896 -0.3844
45406SOL    HW247944   7.998  11.332   5.075 -1.4550  0.3156 -2.9306
45407SOL     OW47945  12.263  10.130   7.214 -0.3121 -0.2216  0.2590
45407SOL    HW147946  12.231  10.177   7.290 -1.3748 -1.0991  0.3818
45407SOL    HW247947  12.283  10.198   7.150  0.1069  0.4902  1.1224
45408SOL     OW47948   2.615   2.556   2.420 -0.3580  0.3348 -0.3008
45408SOL    HW147949   2.649   2.478   2.376  0.7732 -0.8437  2.4244
45408SOL    HW247950   2.689   2.590   2.470 -1.5186  1.6198  0.6185
45409SOL     OW47951   7.680   2.429  10.486  0.6535  0.1046  0.4741
45409SOL    HW147952   7.616   2.387  10.543 -0.6263  1.2644 -0.0522
45409SOL    HW247953   7.750   2.364  10.475 -0.2871 -1.0729  1.3072
45410SOL     OW47954   8.236  10.749   7.636 -0.0305  0.5611  0.1256
45410SOL    HW147955   8.157  10.698   7.619 -0.6230  1.4966 -0.0457
45410SOL    HW247956   8.212  10.838   7.611  0.3522  1.2920  2.1908
45411SOL     OW47957  11.822   8.201   9.361 -0.5249  0.0489  0.6797
45411SOL    HW147958  11.874   8.231   9.435 -1.2958  0.6601  0.9842
45411SOL    HW247959  11.815   8.106   9.374  0.4324 -0.0324  0.6715
45412SOL     OW47960   7.935   7.397  12.920 -0.2962  0.3172 -0.1680
45412SOL    HW147961   7.846   7.395  12.956 -0.3587 -1.2093 -0.3646
45412SOL    HW247962   7.950   7.309  12.886  1.6506  0.2645  0.6988
45413SOL     OW47963   9.618   5.608   5.119 -0.5172 -0.1157 -0.5989
45413SOL    HW147964   9.605   5.686   5.172 -1.8827 -0.6840 -0.0477
45413SOL    HW247965   9.702   5.622   5.075 -0.0239  0.9886  0.6351
45414SOL     OW47966   1.695   5.316  12.450  0.3195  0.4577 -0.7241
45414SOL    HW147967   1.656   5.246  12.502  0.6073 -0.0608 -1.2017
45414SOL    HW247968   1.695   5.392  12.508 -0.0157  0.0700 -0.2133
45415SOL     OW47969  10.546  10.108   6.913 -0.0922 -0.4786 -0.5083
45415SOL    HW147970  10.522  10.189   6.959  1.9360  0.1604 -0.4576
45415SOL    HW247971  10.543  10.132   6.820  0.2576 -0.4073 -0.5036
45416SOL     OW47972   1.574   9.778   4.927 -0.3693  0.1257  0.0219
45416SOL    HW147973   1.554   9.792   5.020  0.7455  1.1612  0.1349
45416SOL    HW247974   1.512   9.834   4.881 -0.4754  0.1360  0.1743
45417SOL     OW47975   6.727   8.648  13.661  0.4311  0.0777  0.2086
45417SOL    HW147976   6.798   8.656  13.725 -0.3622  0.4540  1.0674
45417SOL    HW247977   6.648   8.635  13.714  0.0457 -1.9509 -0.7694
45418SOL     OW47978  13.250  12.099  13.268 -0.4183  0.0471 -0.0271
45418SOL    HW147979  13.304  12.028  13.303  0.6286 -0.4656 -2.4457
45418SOL    HW247980  13.275  12.104  13.175 -3.7054  0.5973 -0.9978
45419SOL     OW47981   7.693   8.247   3.960 -0.6695 -0.4033  0.2770
45419SOL    HW147982   7.678   8.256   4.055  1.8308 -0.0154  0.7098
45419SOL    HW247983   7.741   8.164   3.952  1.0900  0.6340 -0.3425
45420SOL     OW47984   8.996   1.021   9.284 -0.1481  0.5060  0.6961
45420SOL    HW147985   8.969   1.102   9.242  0.1840  0.8205  1.0825
45420SOL    HW247986   9.086   1.038   9.312  1.0168 -0.9695 -1.8258
45421SOL     OW47987   7.095  10.921  12.647  0.3467  0.6476  0.7993
45421SOL    HW147988   7.118  10.953  12.560 -0.0440  2.5611  1.3408
45421SOL    HW247989   7.069  10.830  12.634 -1.5105  1.4104 -1.3998
45422SOL     OW47990  13.016   9.822   6.207 -0.1275  0.6879  0.1357
45422SOL    HW147991  13.092   9.879   6.203 -0.6834  1.4738  0.5471
45422SOL    HW247992  13.010   9.796   6.299  0.6933 -0.8514 -0.2081
45423SOL     OW47993  12.242   0.629   6.686  0.4070 -0.1373 -0.2403
45423SOL    HW147994  12.278   0.626   6.774 -0.0672  0.4378 -0.0149
45423SOL    HW247995  12.199   0.714   6.680  0.6074 -0.0800 -1.1002
45424SOL     OW47996   7.126   3.035   4.667 -0.3430 -0.3144 -0.0256
45424SOL    HW147997   7.101   2.949   4.634  0.7672 -0.3063 -0.9743
45424SOL    HW247998   7.060   3.095   4.633 -0.7205 -0.6842  0.0485
45425SOL     OW47999   1.257   9.329  10.723  0.3075 -0.1055 -0.5796
45425SOL    HW148000   1.189   9.273  10.685 -0.4116  0.4498 -0.1396
45425SOL    HW248001   1.308   9.269  10.778 -1.5898 -0.0559  1.4001
45426SOL     OW48002  11.925   6.992   8.449 -0.1871 -0.8928  0.0969
45426SOL    HW148003  11.872   7.066   8.479  0.8509 -0.3652  0.7276
45426SOL    HW248004  11.915   6.992   8.354 -1.2443 -0.7686  0.1958
45427SOL     OW48005  10.090   8.859   3.957 -0.2172 -0.5587 -0.1837
45427SOL    HW148006  10.111   8.780   3.908  1.2013  0.4621 -1.3071
45427SOL    HW248007  10.095   8.832   4.049  0.2818 -1.7428 -0.5406
45428SOL     OW48008   2.818  13.692   6.752  0.0451 -0.0219 -0.1110
45428SOL    HW148009   2.730  13.720   6.776 -1.0671 -1.7965 -1.8858
45428SOL    HW248010   2.811  13.598   6.737  2.0245 -0.0503 -1.2401
45429SOL     OW48011   6.784  10.245   5.211 -0.0786 -0.1453  0.4783
45429SOL    HW148012   6.758  10.337   5.216 -1.7009 -0.6356  2.2289
45429SOL    HW248013   6.877  10.248   5.189 -0.0385  1.9301  0.7282
45430SOL     OW48014   3.525  10.286   4.425 -0.4338  0.1409 -0.0271
45430SOL    HW148015   3.590  10.217   4.437 -1.4544 -1.0442 -1.1776
45430SOL    HW248016   3.578  10.366   4.417  1.0255 -0.9606 -2.4725
45431SOL     OW48017   2.487   8.833   2.793 -0.6729  0.2063  0.6530
45431SOL    HW148018   2.452   8.812   2.880 -0.5526  1.4966  1.0333
45431SOL    HW248019   2.572   8.871   2.811 -0.9635  1.1619  0.0153
45432SOL     OW48020   4.178   0.332   1.409 -0.0871  0.2378  0.9187
45432SOL    HW148021   4.262   0.294   1.384 -1.1459 -2.2433  0.8172
45432SOL    HW248022   4.133   0.349   1.325  0.2531  1.5468  0.9711
45433SOL     OW48023   7.830   2.684   7.363  0.9641 -0.1677 -0.4896
45433SOL    HW148024   7.751   2.630   7.356 -1.0974  2.1488  2.2718
45433SOL    HW248025   7.900   2.623   7.383 -1.1322 -1.9963  1.9165
45434SOL     OW48026   3.376   5.285   6.592  0.1960  0.4691 -0.1885
45434SOL    HW148027   3.370   5.258   6.501  1.6113  1.8613 -0.7361
45434SOL    HW248028   3.312   5.356   6.601 -0.0467  0.2347 -0.0556
45435SOL     OW48029  11.726  10.686   1.253 -0.1782 -0.3077 -0.1284
45435SOL    HW148030  11.655  10.715   1.310  0.0776  0.3949 -0.1576
45435SOL    HW248031  11.688  10.684   1.166 -0.0938  0.3218 -0.1816
45436SOL     OW48032   1.140   9.820   4.731  0.4908 -0.7282 -0.3678
45436SOL    HW148033   1.131   9.914   4.715 -1.2731 -0.7352  0.3843
45436SOL    HW248034   1.234   9.807   4.740  0.7469  1.0407 -0.0195
45437SOL     OW48035   8.005   5.446  11.464 -0.0773  0.0394  0.4678
45437SOL    HW148036   7.970   5.480  11.382  1.0930  0.4717  0.1313
45437SOL    HW248037   8.006   5.351  11.452 -0.0666  0.0923  0.0489
45438SOL     OW48038   2.709  12.042   2.493  0.2451  0.4562 -0.0782
45438SOL    HW148039   2.773  12.111   2.514  1.2785 -0.0223 -1.5070
45438SOL    HW248040   2.736  12.011   2.407  0.5611 -2.6026  1.0239
45439SOL     OW48041   1.320   3.197   1.445 -0.8711 -0.0180  0.1959
45439SOL    HW148042   1.400   3.160   1.484 -0.3400  2.1305  1.3243
45439SOL    HW248043   1.313   3.284   1.485 -2.7764  0.5616 -1.2896
45440SOL     OW48044   5.523   2.267   9.072  0.0528 -0.3798 -1.0721
45440SOL    HW148045   5.544   2.175   9.084  2.9652 -0.0042 -2.3872
45440SOL    HW248046   5.570   2.312   9.142 -0.5450  0.2022 -1.0331
45441SOL     OW48047   5.031  10.846   6.398 -0.0660  0.3401 -0.2673
45441SOL    HW148048   4.956  10.786   6.399 -0.3975  0.7575  0.4086
45441SOL    HW248049   5.077  10.828   6.480  0.4295  0.2804 -0.5492
45442SOL     OW48050  10.960   8.390   2.190  0.4870 -0.5071 -0.6780
45442SOL    HW148051  11.001   8.469   2.152 -1.5219  2.3878  2.6334
45442SOL    HW248052  10.881   8.378   2.138  0.2034  0.4077 -0.4749
45443SOL     OW48053   2.671  13.218   6.121 -0.1379  0.5133  0.6552
45443SOL    HW148054   2.717  13.301   6.129  0.9259  0.1449 -1.1212
45443SOL    HW248055   2.582  13.237   6.151  0.3517  2.0231  1.2348
45444SOL     OW48056   4.206   2.030   7.870  0.4491  0.2017  0.0672
45444SOL    HW148057   4.138   2.097   7.860  0.2323 -0.0210  0.0368
45444SOL    HW248058   4.157   1.949   7.887  0.6831 -0.0930 -0.6592
45445SOL     OW48059   4.682   5.527  13.420 -0.1172 -1.0913 -0.0314
45445SOL    HW148060   4.650   5.613  13.450  2.5510 -0.1598  0.4648
45445SOL    HW248061   4.704   5.541  13.328  1.2272 -0.9066  0.2961
45446SOL     OW48062   2.636   4.909   2.787 -0.2513  0.5719 -0.0906
45446SOL    HW148063   2.687   4.952   2.856 -0.6399 -0.3288  0.7742
45446SOL    HW248064   2.547   4.906   2.822  0.0367 -2.4127  0.6338
45447SOL     OW48065  11.664  11.274   0.692 -0.5122 -0.5147  0.4252
45447SOL    HW148066  11.727  11.275   0.764 -0.6658 -1.6204  0.5903
45447SOL    HW248067  11.581  11.252   0.733 -0.8360  0.0253  0.0734
45448SOL     OW48068  12.716   6.619   1.463  0.4011  0.1385  0.5422
45448SOL    HW148069  12.807   6.598   1.445  0.2339 -0.4305  0.3240
45448SOL    HW248070  12.706   6.609   1.557  0.6385  0.5161  0.6091
45449SOL     OW48071   7.126   0.391   8.270  0.3363  0.0370 -0.4700
45449SOL    HW148072   7.093   0.412   8.357  0.5748  0.1714 -0.4112
45449SOL    HW248073   7.134   0.476   8.226 -0.7722 -0.1101 -0.9804
45450SOL     OW48074   0.261   9.635   5.974 -0.0718  0.2093  0.5057
45450SOL    HW148075   0.171   9.609   5.957 -1.2820  2.8450  2.2961
45450SOL    HW248076   0.272   9.717   5.927  0.6462  1.0254  2.0334
45451SOL     OW48077   5.471   0.726   0.484 -0.0874  0.0459  0.0693
45451SOL    HW148078   5.407   0.659   0.458 -0.3182  0.1762  0.2996
45451SOL    HW248079   5.484   0.778   0.404 -1.1689  0.7439  0.3278
45452SOL     OW48080  10.260   6.487   8.792  0.2981 -0.4037 -0.1846
45452SOL    HW148081  10.201   6.518   8.861 -1.3689  0.4084 -1.8886
45452SOL    HW248082  10.213   6.416   8.749  0.9409 -0.3617 -0.9924
45453SOL     OW48083   0.569   1.172  13.613  0.2362  0.5832  0.1518
45453SOL    HW148084   0.556   1.087  13.571 -0.6296  0.3526  0.8500
45453SOL    HW248085   0.611   1.225  13.546 -1.5838  0.3942 -1.2268
45454SOL     OW48086   5.316  12.915   7.317 -0.1079  0.3731 -0.0300
45454SOL    HW148087   5.226  12.900   7.347 -0.6486  0.7126 -1.4304
45454SOL    HW248088   5.348  12.827   7.296 -0.5672  0.3602 -0.7306
45455SOL     OW48089   9.885   6.823   6.458  0.6469  0.6179  0.0486
45455SOL    HW148090   9.841   6.905   6.436  1.4393  0.4120 -2.7054
45455SOL    HW248091   9.830   6.755   6.419 -0.4260 -0.3458  2.9589
45456SOL     OW48092   3.450   1.602   6.864 -0.5340 -0.2569 -0.0313
45456SOL    HW148093   3.377   1.549   6.832 -0.7141 -0.4830  0.7152
45456SOL    HW248094   3.526   1.544   6.860  0.2604  0.8015 -3.4459
45457SOL     OW48095   4.734   6.590  11.764 -0.1958 -0.2231 -0.1293
45457SOL    HW148096   4.652   6.571  11.809  0.2403 -0.9290  0.3780
45457SOL    HW248097   4.753   6.510  11.714  1.8871 -1.4503  2.3663
45458SOL     OW48098  11.704   1.579   2.677  0.4532 -0.2236 -0.2605
45458SOL    HW148099  11.709   1.499   2.730  2.0095 -2.4667 -3.4109
45458SOL    HW248100  11.768   1.638   2.717  0.2130 -1.0306  1.4145
45459SOL     OW48101   6.809  10.324  12.326 -0.0683 -0.0592  0.2080
45459SOL    HW148102   6.754  10.246  12.338 -1.5088  0.6837 -1.1170
45459SOL    HW248103   6.832  10.351  12.415  1.2169 -2.4637  0.6791
45460SOL     OW48104   6.115  10.012   1.698 -0.1759 -0.3097  0.2538
45460SOL    HW148105   6.090  10.105   1.699  3.1650  0.7162  0.1080
45460SOL    HW248106   6.127   9.991   1.605  1.2976 -0.1707  0.3953
45461SOL     OW48107   4.937   0.589  13.694  0.8845  0.1453 -0.3190
45461SOL    HW148108   4.990   0.611  13.770  1.9406  1.6705 -1.4501
45461SOL    HW248109   4.854   0.635  13.708  0.2529 -1.2767  0.8744
45462SOL     OW48110   2.370   5.490  10.679 -0.7615  0.2160  0.8193
45462SOL    HW148111   2.370   5.422  10.747 -2.0457 -0.8499 -0.1929
45462SOL    HW248112   2.435   5.554  10.709  0.1669 -1.2264  2.0350
45463SOL     OW48113   2.099   0.241   8.462  0.0748  0.0199 -0.3428
45463SOL    HW148114   2.188   0.265   8.437 -0.0816  1.1646  0.1635
45463SOL    HW248115   2.107   0.217   8.555 -0.0037 -0.6693 -0.5104
45464SOL     OW48116   9.869   8.287   7.894 -0.4338 -0.2500 -0.6471
45464SOL    HW148117   9.921   8.340   7.955  0.6950  0.5640 -2.2528
45464SOL    HW248118   9.908   8.303   7.808 -2.9968 -0.0174 -1.8770
45465SOL     OW48119   3.063  12.982   5.578 -0.1632  0.3961  0.1396
45465SOL    HW148120   3.033  13.044   5.511  0.7363 -1.0276 -1.6963
45465SOL    HW248121   3.146  12.948   5.543  1.4391  1.0820  2.9769
45466SOL     OW48122   2.165   4.905   5.240 -0.0935 -0.1464 -0.6037
45466SOL    HW148123   2.244   4.956   5.256  0.3861 -0.3175 -2.2386
45466SOL    HW248124   2.183   4.820   5.279 -0.1727  0.3318  0.5241
45467SOL     OW48125   3.268   8.022  10.952 -0.4576  0.5143  0.0309
45467SOL    HW148126   3.263   7.927  10.965 -1.3672  0.6299  0.5885
45467SOL    HW248127   3.362   8.040  10.945 -0.1270 -0.1758  2.0294
45468SOL     OW48128   0.607   0.390   5.097  0.3090 -0.7235  0.1751
45468SOL    HW148129   0.606   0.350   5.009 -0.5337 -0.9200  0.2622
45468SOL    HW248130   0.622   0.483   5.081  2.1852 -1.0361 -0.0399
45469SOL     OW48131   7.735   0.925  12.669  0.2295  0.1143 -0.3163
45469SOL    HW148132   7.746   0.911  12.763 -0.3417  0.7024 -0.1554
45469SOL    HW248133   7.641   0.929  12.656  0.3227  0.8966 -0.7818
45470SOL     OW48134  12.597  11.808   1.953  0.2105  0.2111  0.2112
45470SOL    HW148135  12.573  11.725   1.995  3.2555 -0.2117  1.3776
45470SOL    HW248136  12.550  11.808   1.870 -0.5043 -2.3008  0.5358
45471SOL     OW48137  13.338   2.920   9.679 -0.3530 -0.0407  0.3905
45471SOL    HW148138  13.277   2.877   9.620  0.8859 -1.2366 -0.0808
45471SOL    HW248139  13.409   2.949   9.622 -0.2166  0.8326  0.9972
45472SOL     OW48140   2.257   8.766   6.882 -0.1563  0.3611  0.7883
45472SOL    HW148141   2.334   8.711   6.872 -1.2274 -1.1506  0.6159
45472SOL    HW248142   2.184   8.712   6.851 -0.9669  2.7262 -1.8382
45473SOL     OW48143   5.667   2.539   5.782  0.2984  0.0141  0.0488
45473SOL    HW148144   5.757   2.530   5.751 -0.4923 -0.1822 -2.4121
45473SOL    HW248145   5.620   2.578   5.708 -1.6885 -0.0764  1.1923
45474SOL     OW48146   8.398  13.057   4.479 -0.3301 -0.5538  0.2422
45474SOL    HW148147   8.468  13.001   4.445 -0.6075 -0.8994  0.2385
45474SOL    HW248148   8.378  13.021   4.565  0.5872  0.5184  0.9194
45475SOL     OW48149   0.736   1.104   9.657  0.1214  0.6178  0.0843
45475SOL    HW148150   0.676   1.096   9.583  0.0252 -0.2676  0.2433
45475SOL    HW248151   0.823   1.099   9.618  0.1255  2.0533 -0.1657
45476SOL     OW48152   9.091   4.100  12.382  0.5728 -0.7723 -0.7572
45476SOL    HW148153   9.013   4.110  12.327  0.6465  0.8444 -0.6186
45476SOL    HW248154   9.058   4.090  12.471  0.4924 -2.0038 -0.9106
45477SOL     OW48155   3.611  13.206   5.086  0.2274 -0.1458 -0.5736
45477SOL    HW148156   3.543  13.272   5.103 -0.1563 -0.2921 -1.4737
45477SOL    HW248157   3.572  13.149   5.020  0.1608 -1.8845  0.8719
45478SOL     OW48158  13.060  12.120  13.518 -0.3762  0.0332  0.4665
45478SOL    HW148159  12.978  12.085  13.485  0.4480 -1.1437 -0.4323
45478SOL    HW248160  13.121  12.112  13.444  0.3845  1.4709  0.9130
45479SOL     OW48161   6.811   8.596  11.179 -0.4776  0.0448 -0.0872
45479SOL    HW148162   6.753   8.595  11.102  1.5735 -0.5192 -1.6972
45479SOL    HW248163   6.851   8.683  11.177  0.9594 -0.5984 -0.7964
45480SOL     OW48164   7.734   1.310   2.929  1.1514  0.1078 -0.0489
45480SOL    HW148165   7.736   1.397   2.970 -1.3993  0.9472 -1.4827
45480SOL    HW248166   7.737   1.328   2.835  0.9605 -1.3831 -0.3635
45481SOL     OW48167   1.895   9.457  12.421 -0.7343  0.0867 -0.4889
45481SOL    HW148168   1.989   9.460  12.405 -0.9989 -0.3547 -2.3932
45481SOL    HW248169   1.886   9.434  12.513  1.0097  0.7207 -0.1282
45482SOL     OW48170   7.739  12.748   9.098  0.3148  0.2624 -0.1964
45482SOL    HW148171   7.660  12.785   9.059 -0.9164 -1.8418  0.1392
45482SOL    HW248172   7.786  12.709   9.024 -0.7865 -1.5678  0.0073
45483SOL     OW48173   6.853   5.104  12.989  0.4676 -0.0796  0.0771
45483SOL    HW148174   6.925   5.162  12.963 -0.9976  1.5630 -0.5485
45483SOL    HW248175   6.860   5.030  12.929  1.0270  0.5491 -0.6597
45484SOL     OW48176   7.686   3.334   7.984  0.0312  0.7247  0.0347
45484SOL    HW148177   7.704   3.304   8.073  0.7820 -0.6461 -0.5435
45484SOL    HW248178   7.678   3.253   7.933 -0.1556  1.4879 -1.1858
45485SOL     OW48179   4.809  12.488   1.177  0.3251  0.3436 -0.0746
45485SOL    HW148180   4.739  12.423   1.183  1.3864 -0.9653 -1.0483
45485SOL    HW248181   4.872  12.461   1.244  1.1296 -0.1078 -0.9968
45486SOL     OW48182   6.033  13.743   0.175 -0.8673  0.2011  0.1554
45486SOL    HW148183   6.062  13.731   0.085 -0.6794  0.7945  0.1331
45486SOL    HW248184   6.109  13.722   0.229 -0.5864  1.0930  0.1221
45487SOL     OW48185   2.554   8.355   4.297 -0.4192 -0.4336  0.0891
45487SOL    HW148186   2.501   8.287   4.339 -0.8131 -1.1923 -1.5714
45487SOL    HW248187   2.500   8.388   4.226  0.8848 -0.4263 -0.9464
45488SOL     OW48188  13.090  13.728   3.725  0.3945 -0.3946 -0.1462
45488SOL    HW148189  13.090  13.782   3.804 -2.8699 -1.4464  0.7396
45488SOL    HW248190  13.066  13.789   3.655 -0.1403 -0.0648  0.3092
45489SOL     OW48191  11.730   2.919   4.212 -0.2389 -0.0607  0.4491
45489SOL    HW148192  11.803   2.944   4.269  0.5069  1.3532 -1.0240
45489SOL    HW248193  11.692   3.003   4.183 -0.9478 -0.7286 -0.6635
45490SOL     OW48194   7.018   1.081   2.953  0.3452  0.2497 -0.0227
45490SOL    HW148195   7.102   1.043   2.979 -0.4414 -1.3103  0.3805
45490SOL    HW248196   7.016   1.071   2.858  0.7658  0.6611 -0.0819
45491SOL     OW48197   6.622  12.799   0.492  0.3824 -0.5609  0.2909
45491SOL    HW148198   6.529  12.795   0.473  0.4147 -3.6834  0.2163
45491SOL    HW248199   6.644  12.892   0.488 -2.2039  0.0672 -2.0576
45492SOL     OW48200   4.424  12.660   9.625  0.4587  0.1423  0.1371
45492SOL    HW148201   4.482  12.593   9.661  0.4188 -1.8625 -3.1177
45492SOL    HW248202   4.458  12.742   9.659  2.0102 -1.3169  2.3840
45493SOL     OW48203   7.479   9.643   1.248  0.0121 -0.7643  0.0791
45493SOL    HW148204   7.546   9.661   1.181  0.7503 -0.0931  0.9734
45493SOL    HW248205   7.396   9.646   1.200  0.1712  3.1509 -0.2750
45494SOL     OW48206   1.174  11.495  10.485  0.2527  0.2439  0.4174
45494SOL    HW148207   1.181  11.443  10.565  0.9131 -0.9168 -0.3674
45494SOL    HW248208   1.221  11.444  10.420  0.1572  1.4245 -0.5956
45495SOL     OW48209  13.085  12.697   0.987  0.3786  0.0632  0.3969
45495SOL    HW148210  13.119  12.632   0.926 -0.2869 -0.5085  0.6300
45495SOL    HW248211  13.022  12.747   0.936 -0.3112 -0.5311  0.6562
45496SOL     OW48212   1.857   6.979   7.839  0.0679 -0.5058  0.9303
45496SOL    HW148213   1.936   6.956   7.889  0.6805 -1.8060 -0.5618
45496SOL    HW248214   1.826   6.896   7.804 -0.6671  0.2988 -0.3977
45497SOL     OW48215   2.296  13.480  11.402 -0.2420  0.0685 -0.1803
45497SOL    HW148216   2.300  13.456  11.310 -0.6857  0.2988 -0.2584
45497SOL    HW248217   2.246  13.409  11.443 -0.1277  0.0153 -0.1311
45498SOL     OW48218  13.203   9.884  12.581  0.1725  0.2365 -0.0292
45498SOL    HW148219  13.145   9.957  12.605 -0.9856 -0.2969 -1.0636
45498SOL    HW248220  13.290   9.922  12.579 -0.5701  2.0166 -2.1093
45499SOL     OW48221   0.822   4.197   5.128  0.1498 -0.3712 -0.2416
45499SOL    HW148222   0.732   4.207   5.095  0.9722 -2.5351 -3.6845
45499SOL    HW248223   0.874   4.176   5.050  3.3303 -1.1527  1.8883
45500SOL     OW48224   5.283   0.100   0.258  0.1032  0.2055 -0.0165
45500SOL    HW148225   5.286   0.071   0.349  1.4442  0.3870  0.0147
45500SOL    HW248226   5.365   0.068   0.219 -0.5337 -0.0312 -1.2142
45501SOL     OW48227   5.660   4.652  11.220  0.1273 -0.1687  0.4107
45501SOL    HW148228   5.576   4.613  11.243  0.9053 -1.3462  1.3876
45501SOL    HW248229   5.639   4.719  11.155 -1.4208 -1.2997 -0.3053
45502SOL     OW48230   0.716  10.159  13.252  0.0002 -0.0313  0.6662
45502SOL    HW148231   0.800  10.114  13.261  0.0648  0.0392  0.4342
45502SOL    HW248232   0.655  10.108  13.304 -0.4047 -1.6333 -1.2693
45503SOL     OW48233  12.972   6.857   1.376  0.0175  0.3475  0.1820
45503SOL    HW148234  12.978   6.763   1.390 -0.0932  0.1045 -1.2147
45503SOL    HW248235  13.019   6.872   1.294  1.6611  1.7993  1.3032
45504SOL     OW48236   3.627  13.674   9.862  0.2502  0.1734 -0.2206
45504SOL    HW148237   3.550  13.638   9.818  0.2720  0.9593 -0.9262
45504SOL    HW248238   3.700  13.655   9.803  0.8470 -1.7301  1.0393
45505SOL     OW48239   3.703   6.537  10.488  0.0556 -0.3841  0.2073
45505SOL    HW148240   3.644   6.596  10.536 -1.2598 -2.3104  1.0874
45505SOL    HW248241   3.718   6.582  10.405 -1.3891  0.9315  0.5989
45506SOL     OW48242  11.454   6.327  11.851 -0.1219  0.1288 -0.2343
45506SOL    HW148243  11.457   6.369  11.937 -1.6027  1.3531 -0.7357
45506SOL    HW248244  11.361   6.330  11.827  0.2311 -0.4829 -1.7336
45507SOL     OW48245  11.539   2.748   8.688 -0.1437 -0.2015  0.1955
45507SOL    HW148246  11.458   2.725   8.733 -0.9080  1.8011 -0.0413
45507SOL    HW248247  11.555   2.675   8.628 -2.5948 -0.0401 -0.7916
45508SOL     OW48248  12.933  11.194   4.338 -0.0582 -0.1470 -0.1694
45508SOL    HW148249  13.000  11.164   4.400 -1.5976 -1.8502  0.7321
45508SOL    HW248250  12.970  11.174   4.252  0.7754 -0.6452  0.2870
45509SOL     OW48251   0.270   7.828  10.090  0.1015  0.5848 -0.0698
45509SOL    HW148252   0.327   7.850  10.017  0.7023  0.2940  0.2991
45509SOL    HW248253   0.312   7.869  10.166  1.2992 -1.7436  0.6578
45510SOL     OW48254   9.989  11.863  11.911  0.6072  0.3151  0.4695
45510SOL    HW148255  10.015  11.858  12.002  1.6699 -1.0665  0.1286
45510SOL    HW248256  10.052  11.808  11.865 -0.6943 -0.0880 -0.9165
45511SOL     OW48257   2.545   5.197  13.693 -0.0446 -0.4681 -0.4248
45511SOL    HW148258   2.562   5.275  13.641  1.7003 -1.3188 -1.2061
45511SOL    HW248259   2.614   5.197  13.760 -0.5038 -0.9167  0.0584
45512SOL     OW48260  13.330   7.006  13.294  0.3725  0.1846  0.1560
45512SOL    HW148261  13.387   7.030  13.221 -2.1468  2.7219 -1.2021
45512SOL    HW248262  13.291   6.923  13.268 -0.3736  0.9777 -1.4337
45513SOL     OW48263   4.597   4.357  11.912  0.1437  0.2651  0.4532
45513SOL    HW148264   4.639   4.271  11.919 -1.7767 -1.0255 -2.1324
45513SOL    HW248265   4.512   4.345  11.955 -0.3788  0.6696 -0.4493
45514SOL     OW48266   8.054  12.594   7.206  0.6683  0.1435  0.1709
45514SOL    HW148267   8.037  12.501   7.218  1.3088 -0.0513 -0.3849
45514SOL    HW248268   8.148  12.603   7.218  0.5305  0.8241  0.8342
45515SOL     OW48269   4.543   0.799   6.981  0.9162  0.9239  0.3473
45515SOL    HW148270   4.565   0.835   7.067 -1.8892  0.0500  1.5797
45515SOL    HW248271   4.524   0.876   6.927  2.0921  1.4685  0.6911
45516SOL     OW48272   0.728   9.110   3.933 -0.2341 -0.3738  0.2002
45516SOL    HW148273   0.744   9.198   3.967  0.5523  0.1991 -1.5297
45516SOL    HW248274   0.632   9.100   3.935 -0.4512  1.1459 -1.0070
45517SOL     OW48275   5.390  12.107   8.589  0.2586 -0.0257 -0.4152
45517SOL    HW148276   5.324  12.039   8.574 -0.9383  0.6645  1.3493
45517SOL    HW248277   5.427  12.086   8.675  1.4747  0.3261 -0.8210
45518SOL     OW48278   7.439   9.727   4.780  0.2670 -0.1090  0.0127
45518SOL    HW148279   7.358   9.704   4.827  0.5400  0.9847  1.0759
45518SOL    HW248280   7.414   9.800   4.724  0.1136 -0.9547 -1.0684
45519SOL     OW48281   1.403  13.493   1.436 -0.6285 -0.5052  0.3519
45519SOL    HW148282   1.332  13.428   1.433 -0.8855 -0.3727  2.1024
45519SOL    HW248283   1.358  13.577   1.444 -0.2775 -0.2908  0.0978
45520SOL     OW48284   7.754  12.835   7.265 -0.7683 -0.6477  0.1877
45520SOL    HW148285   7.761  12.822   7.170  1.4158  0.6963  0.1120
45520SOL    HW248286   7.762  12.929   7.278 -0.0345 -0.8919  1.7749
45521SOL     OW48287   3.012   1.612   3.476 -0.3805  0.0682 -0.0971
45521SOL    HW148288   3.023   1.618   3.571  0.2142  0.6129 -0.1931
45521SOL    HW248289   3.095   1.646   3.440  0.6109 -2.7968 -0.7907
45522SOL     OW48290   9.298   2.803   5.825 -0.3299  0.0508  0.8268
45522SOL    HW148291   9.385   2.830   5.855  0.1240 -0.1699 -0.2418
45522SOL    HW248292   9.238   2.837   5.892  0.5077  0.8748  1.1893
45523SOL     OW48293   9.558   8.003  12.844 -0.2581  0.6634 -0.2747
45523SOL    HW148294   9.508   7.922  12.842 -1.8781  1.6126 -0.1064
45523SOL    HW248295   9.523   8.055  12.772  1.5002  0.8166 -1.0552
45524SOL     OW48296   8.728  11.384   2.655  1.0524  0.2038 -0.0718
45524SOL    HW148297   8.763  11.298   2.631 -1.8823 -0.9378 -0.6528
45524SOL    HW248298   8.779  11.411   2.731  0.2093 -3.4225  1.9900
45525SOL     OW48299   1.444   7.258   9.691 -0.0849 -0.3763  0.1745
45525SOL    HW148300   1.412   7.342   9.658  0.2912 -0.3318 -0.0743
45525SOL    HW248301   1.387   7.193   9.649  0.5449 -0.3363 -0.7708
45526SOL     OW48302   5.863   1.627   4.789  0.2790  0.4668 -0.0999
45526SOL    HW148303   5.901   1.622   4.877  0.7004 -0.1542 -0.3080
45526SOL    HW248304   5.864   1.537   4.758 -1.0590  0.5013 -0.2595
45527SOL     OW48305  13.141  11.816  13.586  0.2893 -0.2510  0.3672
45527SOL    HW148306  13.110  11.779  13.503  0.6629  0.3269 -0.0394
45527SOL    HW248307  13.226  11.855  13.564  0.3273  0.0232  0.9901
45528SOL     OW48308   6.689   3.529   3.070  0.3689  0.0490  0.4357
45528SOL    HW148309   6.631   3.456   3.091 -1.7723  1.4497 -0.2622
45528SOL    HW248310   6.663   3.599   3.129  1.3254  0.7479  0.0607
45529SOL     OW48311  10.181   8.486   4.075  0.4481 -0.0508  0.2922
45529SOL    HW148312  10.175   8.567   4.125 -1.5525  0.9691 -1.4554
45529SOL    HW248313  10.147   8.508   3.988 -0.1581 -2.7355 -0.2572
45530SOL     OW48314   2.196   1.919   3.603  0.1861  0.2597  0.4914
45530SOL    HW148315   2.281   1.938   3.643  0.6465 -0.8676  0.0805
45530SOL    HW248316   2.213   1.919   3.509 -0.2969  0.1571  0.4003
45531SOL     OW48317   3.106  11.026  10.325  0.1732 -0.1553  0.0206
45531SOL    HW148318   3.178  11.073  10.283  0.2639  0.1874  0.5592
45531SOL    HW248319   3.087  10.953  10.265 -0.4737  0.9861 -1.2076
45532SOL     OW48320   9.900   7.310  12.528 -0.0094  0.1991  0.3977
45532SOL    HW148321   9.862   7.392  12.557  0.2213  0.2622  0.5215
45532SOL    HW248322   9.826   7.259  12.495 -0.0087  0.8924 -0.7277
45533SOL     OW48323   6.643  11.538   4.583 -0.0662  0.3650  0.1265
45533SOL    HW148324   6.731  11.509   4.559 -0.0622  1.4767 -1.4014
45533SOL    HW248325   6.657  11.610   4.644  0.1807  1.4915 -1.2045
45534SOL     OW48326  12.507   7.933  10.112 -0.1412  0.6774  0.0158
45534SOL    HW148327  12.544   7.921  10.024  1.4123  1.1937  0.5683
45534SOL    HW248328  12.488   8.027  10.116  1.4839  1.0114  0.8219
45535SOL     OW48329   2.243  11.668  12.134  0.6158 -0.0838  0.5996
45535SOL    HW148330   2.222  11.585  12.091  2.3204 -0.2716  0.0495
45535SOL    HW248331   2.242  11.647  12.228 -1.2546 -0.1274  0.6094
45536SOL     OW48332   9.548   1.341   5.776 -1.1030 -0.7720  0.1707
45536SOL    HW148333   9.553   1.340   5.681  2.1033 -0.1788  0.2444
45536SOL    HW248334   9.504   1.423   5.797  2.4590  1.6257 -0.8479
45537SOL     OW48335   7.494   3.964   4.693 -0.1919 -0.3694 -0.1322
45537SOL    HW148336   7.562   3.964   4.626  0.8250  2.2605  0.7718
45537SOL    HW248337   7.414   3.937   4.647  0.9299 -0.8899 -1.8287
45538SOL     OW48338   9.475   4.899  12.905 -0.5304  0.7454  0.3623
45538SOL    HW148339   9.387   4.870  12.929  0.1722 -1.2638  0.7372
45538SOL    HW248340   9.478   4.890  12.810  0.1952 -2.3623  0.5588
45539SOL     OW48341  12.417  13.563   7.173 -0.1643 -0.2337 -0.1689
45539SOL    HW148342  12.477  13.637   7.179  0.6291 -0.8881  0.1089
45539SOL    HW248343  12.330  13.603   7.172  0.2584  0.7082 -0.2325
45540SOL     OW48344   4.346  11.572  11.423  0.0794  0.2470  0.2600
45540SOL    HW148345   4.361  11.479  11.408  0.3467  0.3348 -0.0160
45540SOL    HW248346   4.374  11.586  11.513  1.9798  0.4697 -0.3342
45541SOL     OW48347   4.954   3.228   5.817 -0.2862 -0.3745  0.0154
45541SOL    HW148348   4.932   3.179   5.896  0.2098 -0.3050  0.2018
45541SOL    HW248349   5.006   3.302   5.849 -1.3875  0.5315 -0.2058
45542SOL     OW48350   1.327  12.576   8.148 -0.2068  0.3240  0.2417
45542SOL    HW148351   1.414  12.607   8.122 -0.1619  0.8422  0.9860
45542SOL    HW248352   1.296  12.641   8.211 -1.0698  0.0561  0.1098
45543SOL     OW48353   0.615   4.523   8.616  0.3008  0.0180 -0.6299
45543SOL    HW148354   0.603   4.571   8.534  0.3650 -0.1698 -0.7523
45543SOL    HW248355   0.707   4.498   8.615  0.5445  0.8782 -0.0148
45544SOL     OW48356  10.733   8.409   0.414 -0.5418  0.0978 -0.1065
45544SOL    HW148357  10.779   8.407   0.330 -0.6505 -0.8978 -0.1573
45544SOL    HW248358  10.764   8.331   0.460 -0.2558  0.7912  0.9118
45545SOL     OW48359  11.666   0.963   0.769  0.5293  0.3537 -0.2239
45545SOL    HW148360  11.675   0.912   0.849  0.4299 -0.1010 -0.5010
45545SOL    HW248361  11.579   0.941   0.735  0.5620  0.5588 -0.4479
45546SOL     OW48362   0.068  11.397   7.661 -0.1895 -0.4675 -0.3199
45546SOL    HW148363   0.092  11.486   7.690  0.7680 -0.5346 -0.8555
45546SOL    HW248364   0.006  11.366   7.727 -0.0487  0.3649  0.2177
45547SOL     OW48365   2.876   9.936   7.553  0.4009  0.4164 -0.0364
45547SOL    HW148366   2.936   9.943   7.479  0.2327 -0.5384 -0.2780
45547SOL    HW248367   2.895   9.850   7.591 -0.7924  0.1041 -0.1161
45548SOL     OW48368   7.542  12.309   2.631  0.7195 -0.7318  0.3089
45548SOL    HW148369   7.561  12.233   2.575  0.5187  0.5692 -1.6204
45548SOL    HW248370   7.564  12.384   2.576  1.1584  0.6188  2.2631
45549SOL     OW48371   1.218   3.823   0.763 -0.0985  0.0894  0.2220
45549SOL    HW148372   1.124   3.830   0.780 -0.8353 -1.1738 -2.6725
45549SOL    HW248373   1.251   3.912   0.774 -1.7401  0.6776  0.6935
45550SOL     OW48374   8.547   7.202   1.487 -0.2850 -0.2326  0.3974
45550SOL    HW148375   8.614   7.184   1.422  0.5980  0.0246  1.2174
45550SOL    HW248376   8.465   7.181   1.443  0.2829  0.0019 -0.8105
45551SOL     OW48377   5.213  12.784   4.830  0.2954 -0.0705  0.7214
45551SOL    HW148378   5.232  12.730   4.906  0.9110 -1.8573 -0.6613
45551SOL    HW248379   5.141  12.739   4.786 -1.0182  1.6940  0.9402
45552SOL     OW48380   9.818   6.991  11.901  0.2546  0.3265  0.1603
45552SOL    HW148381   9.723   6.990  11.896  0.2067  0.8427  0.8420
45552SOL    HW248382   9.842   7.082  11.882  0.4122  0.9249  2.8281
45553SOL     OW48383  11.105   4.487   1.431  0.1149  0.8371 -0.6385
45553SOL    HW148384  11.164   4.511   1.502 -0.2302 -1.7500  0.6395
45553SOL    HW248385  11.163   4.462   1.359  0.5342  0.5420 -0.1999
45554SOL     OW48386   8.389   9.974   7.837  0.6025  0.0165  0.1830
45554SOL    HW148387   8.387  10.011   7.925 -0.1817  0.2224  0.0862
45554SOL    HW248388   8.298   9.949   7.819 -0.4601  4.5767 -2.4525
45555SOL     OW48389   8.271   0.673  12.435  0.0692 -0.5084 -0.4767
45555SOL    HW148390   8.331   0.746  12.422  0.3751 -0.6984 -0.1427
45555SOL    HW248391   8.245   0.647  12.347 -0.2273  0.1573 -0.5870
45556SOL     OW48392   1.201   7.441  13.125 -0.7935  0.2364  0.8555
45556SOL    HW148393   1.289   7.406  13.139  0.3724  2.0175 -1.4175
45556SOL    HW248394   1.175   7.476  13.211  0.6785 -0.3408  1.5725
45557SOL     OW48395  12.485  12.102   8.482 -0.3178  0.0464 -0.6538
45557SOL    HW148396  12.412  12.050   8.516  0.2701 -0.5676 -0.2857
45557SOL    HW248397  12.551  12.037   8.458  0.0431  0.5823 -1.1407
45558SOL     OW48398   2.788   2.487  10.187  0.7456  0.0461  0.1407
45558SOL    HW148399   2.741   2.565  10.215 -0.7681 -0.9748  0.5348
45558SOL    HW248400   2.777   2.485  10.092  2.2015  1.1666 -0.0915
45559SOL     OW48401   9.408   3.148   1.160  0.2234  0.2194 -0.2672
45559SOL    HW148402   9.482   3.093   1.133 -0.4093 -0.7036 -0.1691
45559SOL    HW248403   9.332   3.091   1.151 -0.6373  1.5025 -1.4689
45560SOL     OW48404   5.037   4.811   8.837  0.4612 -0.1182  0.0322
45560SOL    HW148405   4.961   4.766   8.799 -0.4027  1.1109  0.2334
45560SOL    HW248406   5.109   4.749   8.827 -0.1313 -0.5616 -1.9393
45561SOL     OW48407   8.631  13.419  11.551 -0.2606 -0.2016  0.0533
45561SOL    HW148408   8.713  13.460  11.522 -0.0595 -1.1896 -0.8289
45561SOL    HW248409   8.567  13.490  11.549  0.5193  0.5340  0.5382
45562SOL     OW48410   6.460   9.138  11.360 -0.0532  0.0841  0.1613
45562SOL    HW148411   6.507   9.096  11.431  0.7199  1.3538  0.4242
45562SOL    HW248412   6.379   9.170  11.401  0.6035  1.2333  0.6194
45563SOL     OW48413   3.451   3.339   2.032  0.3448 -0.1829  0.0905
45563SOL    HW148414   3.456   3.398   2.107  0.6086 -1.4822  1.1280
45563SOL    HW248415   3.519   3.274   2.047  0.6284 -0.3020 -1.4550
45564SOL     OW48416   1.739   6.817   7.635 -0.2427 -0.4299 -0.2602
45564SOL    HW148417   1.645   6.838   7.632 -0.0956  0.4437  0.5759
45564SOL    HW248418   1.777   6.869   7.564 -0.0045  1.6894  1.2803
45565SOL     OW48419   2.480   0.567  10.058  0.4569 -0.4056  0.6669
45565SOL    HW148420   2.511   0.539   9.972 -0.1348 -0.5013  0.4805
45565SOL    HW248421   2.558   0.601  10.102  0.7558 -0.3290  0.0814
45566SOL     OW48422   2.205   4.109  13.076  0.4466 -0.4640  0.2687
45566SOL    HW148423   2.295   4.143  13.076 -0.0553  0.9403  1.0472
45566SOL    HW248424   2.214   4.019  13.044  2.4090 -1.0381  2.1486
45567SOL     OW48425   9.367   8.240  12.240  0.7020 -0.2108 -0.3910
45567SOL    HW148426   9.350   8.265  12.331  2.0652 -0.7325  0.0281
45567SOL    HW248427   9.282   8.210  12.207 -0.2033  1.6400  0.1445
45568SOL     OW48428   7.653  12.410   8.687 -0.1779  0.0096 -0.3635
45568SOL    HW148429   7.727  12.400   8.626  0.0202  0.3097 -0.1712
45568SOL    HW248430   7.635  12.504   8.688  1.1016  0.2809  1.5410
45569SOL     OW48431   2.456   2.143   3.660  0.0266 -0.0192 -0.0248
45569SOL    HW148432   2.432   2.165   3.750 -1.2429 -1.9669  0.1728
45569SOL    HW248433   2.428   2.219   3.609 -1.2123  0.2144  0.9607
45570SOL     OW48434   2.018   1.459   1.026 -0.4197 -0.1962 -0.2589
45570SOL    HW148435   2.077   1.458   0.951  0.2979  0.6181  0.2794
45570SOL    HW248436   1.984   1.548   1.029  0.1465 -0.0036  0.8247
45571SOL     OW48437   4.693  10.393  10.569 -0.4239  0.1312  0.1541
45571SOL    HW148438   4.755  10.398  10.642 -0.1591  0.8318 -0.1151
45571SOL    HW248439   4.617  10.347  10.605 -0.1805  0.2209  0.7904
45572SOL     OW48440  10.974   8.096  11.082  0.5872 -0.1140 -0.1694
45572SOL    HW148441  10.956   8.173  11.135  1.7911 -0.4973  0.8457
45572SOL    HW248442  10.906   8.032  11.108 -0.7356  0.7282 -1.3937
45573SOL     OW48443   0.171  11.646  11.513 -0.0700 -0.3001 -0.1463
45573SOL    HW148444   0.244  11.606  11.466  0.3293  1.0965 -0.7630
45573SOL    HW248445   0.115  11.682  11.444  0.8840  2.4135  0.3568
45574SOL     OW48446   6.112   2.659   5.932  0.7728 -0.7856  0.5474
45574SOL    HW148447   6.136   2.751   5.923  0.7576 -0.8049  0.2847
45574SOL    HW248448   6.040   2.658   5.995 -0.1945 -0.4610 -0.5314
45575SOL     OW48449   8.069   2.137  13.018  0.2329  0.5642 -0.0185
45575SOL    HW148450   8.032   2.050  13.036 -1.5982  0.9551 -1.5209
45575SOL    HW248451   8.110   2.163  13.100  1.5593 -2.0319  0.2441
45576SOL     OW48452   8.560   8.876  13.337  0.2744 -0.7692 -0.0555
45576SOL    HW148453   8.605   8.793  13.355  1.8598 -0.0669 -0.6343
45576SOL    HW248454   8.564   8.885  13.241 -4.6878 -2.6056 -0.7217
45577SOL     OW48455  13.494   3.881  10.874  0.7049  0.2090  0.4659
45577SOL    HW148456  13.505   3.790  10.846  3.2328  0.4991  0.2625
45577SOL    HW248457  13.438   3.876  10.951  0.0146 -1.4116 -0.1049
45578SOL     OW48458   4.040   4.541  11.972 -0.0847 -0.4028 -0.1125
45578SOL    HW148459   3.945   4.549  11.977  0.1003  1.9452  0.4900
45578SOL    HW248460   4.074   4.626  12.000  2.1541 -0.4630 -2.2523
45579SOL     OW48461   3.120   1.990   1.188 -0.6463 -0.3598  0.2085
45579SOL    HW148462   3.076   2.010   1.270  0.9701  0.0238  1.0223
45579SOL    HW248463   3.157   1.902   1.201 -0.7120 -0.4615 -0.2556
45580SOL     OW48464   1.531  12.161   8.144  0.1342  0.1336  1.0903
45580SOL    HW148465   1.454  12.148   8.088  0.1960  0.4807  0.9195
45580SOL    HW248466   1.570  12.074   8.152  0.4512  0.1758  0.1059
45581SOL     OW48467   1.023   0.518   9.672  0.1437 -0.1699  0.0813
45581SOL    HW148468   1.051   0.429   9.692  1.1301  0.1888  0.3839
45581SOL    HW248469   1.087   0.550   9.608  0.1480  0.5017  0.4036
45582SOL     OW48470   5.352   3.295   6.619 -0.5828  0.2019  0.2288
45582SOL    HW148471   5.422   3.230   6.615  0.4783  1.2422  1.0157
45582SOL    HW248472   5.284   3.254   6.672  0.8901  0.3965  2.4358
45583SOL     OW48473   4.986   1.989   6.076 -0.4010  0.1098 -0.3422
45583SOL    HW148474   4.918   1.967   6.012 -0.3170 -0.4790 -0.2296
45583SOL    HW248475   5.032   2.063   6.036 -0.2532 -0.3473 -1.0323
45584SOL     OW48476   0.923  13.307   7.046 -0.0357 -0.1509 -0.1325
45584SOL    HW148477   0.986  13.267   6.986 -0.0736 -0.1143 -0.1965
45584SOL    HW248478   0.869  13.234   7.076 -0.7935  0.0162 -1.0826
45585SOL     OW48479  11.115   5.684  12.537  0.0055  0.3178 -0.0453
45585SOL    HW148480  11.112   5.666  12.631 -0.1921 -1.0214 -0.2856
45585SOL    HW248481  11.206   5.670  12.513  0.1420  1.0652  0.0038
45586SOL     OW48482  10.674  12.342   0.859  0.2860 -0.5195 -0.1304
45586SOL    HW148483  10.756  12.337   0.811 -0.0084  1.0063 -0.8539
45586SOL    HW248484  10.699  12.368   0.947  0.4821  2.3952 -0.9460
45587SOL     OW48485   6.099   5.583   0.498 -0.1325  0.3326  0.3243
45587SOL    HW148486   6.026   5.540   0.453  0.8542 -0.4806 -0.5736
45587SOL    HW248487   6.151   5.621   0.428  1.4646 -0.9861  0.7126
45588SOL     OW48488  12.463   6.823   0.435 -0.3050  0.4953 -0.0262
45588SOL    HW148489  12.450   6.731   0.458  0.7976  0.0590 -1.0465
45588SOL    HW248490  12.515   6.858   0.507  2.4012 -0.6468 -1.2649
45589SOL     OW48491  10.106   5.746   4.192 -0.1272 -0.4841  0.2367
45589SOL    HW148492  10.139   5.657   4.201 -0.6295 -0.7110 -0.1152
45589SOL    HW248493  10.179   5.802   4.218 -0.3045 -1.0127  2.0574
45590SOL     OW48494   2.765  13.573   4.670  0.9027  0.0739  0.1214
45590SOL    HW148495   2.710  13.514   4.722  0.2661 -1.2323 -1.9081
45590SOL    HW248496   2.855  13.544   4.688  0.6729 -0.6149  0.2139
45591SOL     OW48497   3.904   8.239  11.935 -0.0211 -0.3709 -0.0635
45591SOL    HW148498   3.846   8.163  11.939  0.4311 -0.6898  1.0545
45591SOL    HW248499   3.847   8.314  11.948 -0.2795 -0.6435  0.4361
45592SOL     OW48500  12.068   5.779   2.126 -1.2965  0.3361 -0.1124
45592SOL    HW148501  12.163   5.778   2.132 -1.2131  2.5425 -0.2111
45592SOL    HW248502  12.038   5.768   2.216 -0.9317  0.4025  0.0160
45593SOL     OW48503   8.293   6.576   6.754  0.2121 -0.2524 -0.3798
45593SOL    HW148504   8.211   6.545   6.715 -0.1535  1.5206 -1.1416
45593SOL    HW248505   8.343   6.497   6.773 -0.9094 -1.2983 -1.6420
45594SOL     OW48506   4.002   3.158   9.800  0.5272  0.1963  0.0680
45594SOL    HW148507   3.913   3.160   9.764  1.0447 -1.0705 -1.4162
45594SOL    HW248508   3.998   3.093   9.870  0.5060 -0.6586 -0.7098
45595SOL     OW48509   7.744   4.017   5.543  0.0680  0.2174 -0.2605
45595SOL    HW148510   7.696   3.998   5.463  0.0855  1.2222 -0.5199
45595SOL    HW248511   7.830   4.046   5.513  0.6169 -0.8837  0.1789
45596SOL     OW48512   2.726   5.900  12.348  0.1395  0.6834 -0.5180
45596SOL    HW148513   2.793   5.835  12.368  0.0434  0.8824  0.5051
45596SOL    HW248514   2.769   5.985  12.363 -0.0406  0.8380 -0.8511
45597SOL     OW48515   4.974   9.691   7.166 -0.0360  0.7528 -0.7940
45597SOL    HW148516   4.905   9.675   7.231  0.3214  1.0294 -0.3407
45597SOL    HW248517   4.982   9.608   7.119 -1.0302  0.8723 -1.1944
45598SOL     OW48518  11.210   6.609   2.478 -0.5663  0.1955  0.5811
45598SOL    HW148519  11.118   6.633   2.483 -0.3046  1.1895  0.8692
45598SOL    HW248520  11.257   6.690   2.499  0.4178  0.3303 -1.7860
45599SOL     OW48521   1.655   3.732   6.387 -0.2653 -0.2029 -0.0975
45599SOL    HW148522   1.612   3.687   6.314  2.6607 -0.4995 -1.7746
45599SOL    HW248523   1.650   3.825   6.365 -0.8840 -0.1498  0.2358
45600SOL     OW48524  13.542   1.276  13.373  0.3163  0.0661  0.5984
45600SOL    HW148525  13.565   1.242  13.286 -1.4989  0.5437 -0.1028
45600SOL    HW248526  13.458   1.319  13.361  0.4415  0.9206  2.4267
45601SOL     OW48527   0.514   0.703   6.478  0.4282  0.2544 -0.1554
45601SOL    HW148528   0.573   0.702   6.554  1.6778  2.0794 -1.0281
45601SOL    HW248529   0.570   0.678   6.404 -0.5515 -0.5495 -0.6510
45602SOL     OW48530   0.637   4.563   3.199 -0.2039 -0.2751 -0.1144
45602SOL    HW148531   0.590   4.547   3.281 -1.5886  0.4088 -0.7502
45602SOL    HW248532   0.620   4.487   3.145  0.9058 -0.8361  0.2899
45603SOL     OW48533   3.072   1.110   3.522 -0.1776 -0.0564  0.5789
45603SOL    HW148534   3.072   1.041   3.455  0.7459 -0.1581  0.6731
45603SOL    HW248535   3.066   1.191   3.473 -1.6249 -0.1942  0.4803
45604SOL     OW48536   8.158   3.975   7.518 -0.9294 -0.4942 -0.5706
45604SOL    HW148537   8.225   3.934   7.463  0.6076  0.9422  0.1527
45604SOL    HW248538   8.207   4.027   7.581 -2.7518  1.1171 -0.4037
45605SOL     OW48539  10.399   9.121  11.889  0.5444 -0.3157 -0.1834
45605SOL    HW148540  10.341   9.185  11.929  1.2835  0.9750 -1.1088
45605SOL    HW248541  10.359   9.101  11.804  0.3385 -1.0671  0.0792
45606SOL     OW48542  10.860  10.609   7.214  0.0331  0.5137  0.7156
45606SOL    HW148543  10.825  10.616   7.303 -2.4929  0.9816 -0.2381
45606SOL    HW248544  10.786  10.631   7.157  1.9033  1.5158 -1.4935
45607SOL     OW48545   0.825   4.483   3.998  0.3348 -0.2802  0.3706
45607SOL    HW148546   0.781   4.565   3.980  0.9736  0.2374  1.1101
45607SOL    HW248547   0.778   4.418   3.946 -0.0220  0.5887 -0.4027
45608SOL     OW48548   1.515   7.944   1.150 -0.2432  0.3033  0.0786
45608SOL    HW148549   1.489   8.006   1.218  1.5270  0.0451  1.0560
45608SOL    HW248550   1.446   7.950   1.084 -1.1600  1.7821  1.1148
45609SOL     OW48551   4.872   1.857  12.091  0.9171  0.1216 -0.2573
45609SOL    HW148552   4.866   1.925  12.158 -0.2796  0.6406 -0.8711
45609SOL    HW248553   4.906   1.902  12.014  1.9050 -0.3907 -0.1425
45610SOL     OW48554  10.028  11.093   8.357 -0.1175 -0.0187  0.0561
45610SOL    HW148555  10.053  11.000   8.358  0.0556  0.0283  1.5302
45610SOL    HW248556   9.936  11.093   8.386 -0.8103  0.1174 -1.9659
45611SOL     OW48557   0.531   2.255   4.543 -0.0902 -0.3313 -0.3230
45611SOL    HW148558   0.501   2.300   4.463  2.0915  2.1934  0.1469
45611SOL    HW248559   0.472   2.181   4.551 -1.0810 -0.1096 -3.7035
45612SOL     OW48560   5.979  10.700   4.398 -0.3522 -0.6701  0.0087
45612SOL    HW148561   5.954  10.669   4.485 -3.3757 -0.7519 -0.7566
45612SOL    HW248562   6.005  10.791   4.412 -0.1841 -0.8632  1.0690
45613SOL     OW48563   4.974  12.459  11.267  0.1428 -1.0379  0.1101
45613SOL    HW148564   4.879  12.458  11.267  0.1262 -3.1275 -0.1169
45613SOL    HW248565   4.999  12.475  11.176 -0.0224 -1.8538 -0.0862
45614SOL     OW48566   3.375  11.124   1.503 -0.3166  0.3951  0.0237
45614SOL    HW148567   3.460  11.120   1.459 -0.4067  1.4534 -0.2647
45614SOL    HW248568   3.351  11.217   1.501 -1.6134  0.0745 -0.1542
45615SOL     OW48569  12.406   2.336   3.883  0.2194 -0.5670 -0.1490
45615SOL    HW148570  12.469   2.282   3.836 -0.7858 -0.6471 -1.4349
45615SOL    HW248571  12.321   2.310   3.849 -0.2997  2.0049 -1.0815
45616SOL     OW48572  12.645   0.083  13.421 -0.6397 -0.1342 -0.0245
45616SOL    HW148573  12.700   0.026  13.369 -2.9234 -1.9387 -0.6468
45616SOL    HW248574  12.698   0.105  13.497  1.2820 -0.8712 -1.0894
45617SOL     OW48575   3.483  10.032   4.169  0.4322 -0.5038  0.2788
45617SOL    HW148576   3.478   9.982   4.250 -1.8366  1.3565  1.4082
45617SOL    HW248577   3.391  10.050   4.146  1.0724  0.4766 -1.7703
45618SOL     OW48578  13.190  12.147   3.661 -0.5915  0.2171 -0.0078
45618SOL    HW148579  13.270  12.167   3.613  0.7300 -1.5616  1.2890
45618SOL    HW248580  13.123  12.136   3.594  0.5308  0.5061 -1.2161
45619SOL     OW48581  10.078   4.481  13.045  0.0970 -0.1892  0.2450
45619SOL    HW148582  10.108   4.409  12.989  0.8788  0.2864  0.0364
45619SOL    HW248583  10.085   4.447  13.134  0.0009 -0.5366  0.1198
45620SOL     OW48584  12.330   3.311   3.811  0.0804  0.5754  0.0354
45620SOL    HW148585  12.356   3.239   3.754  1.4001  0.5089  0.6823
45620SOL    HW248586  12.358   3.390   3.765  0.7435  0.5438  0.3723
45621SOL     OW48587   8.046   0.831  11.481  0.3261 -0.1219 -0.5104
45621SOL    HW148588   8.049   0.924  11.504  0.9646  0.5270 -2.8879
45621SOL    HW248589   7.986   0.827  11.406  1.1059 -1.4361 -1.0991
45622SOL     OW48590  13.240  11.885   9.972 -0.2559  0.2087 -0.5615
45622SOL    HW148591  13.326  11.883   9.930 -0.0628  0.1533 -0.1670
45622SOL    HW248592  13.185  11.830   9.916  0.2167 -0.5834 -0.2645
45623SOL     OW48593   8.834  11.534  12.065  1.3313 -0.1733  0.5078
45623SOL    HW148594   8.754  11.557  12.111  1.3256  1.5061 -0.2650
45623SOL    HW248595   8.899  11.598  12.096  2.1021 -0.8598  0.3623
45624SOL     OW48596  11.852   4.231   5.170 -0.1988  0.2811  0.9549
45624SOL    HW148597  11.793   4.284   5.116 -0.7158 -0.8670  0.3616
45624SOL    HW248598  11.859   4.148   5.123 -0.0586 -0.4829  2.2955
45625SOL     OW48599   1.979  10.474   9.056 -0.2183 -0.7198  0.7713
45625SOL    HW148600   2.037  10.523   8.998  1.1806 -1.6221  1.3855
45625SOL    HW248601   1.983  10.521   9.139 -1.1303 -0.2540  0.5800
45626SOL     OW48602  10.130   5.203   1.760 -0.8643 -0.4105 -0.0216
45626SOL    HW148603  10.170   5.151   1.830 -0.3811  0.4843  0.3858
45626SOL    HW248604  10.036   5.194   1.774 -0.7934 -1.3908 -0.1270
45627SOL     OW48605   3.208   5.656  12.388  0.6701 -0.1731 -1.4699
45627SOL    HW148606   3.245   5.568  12.393  2.1189  0.4595  0.0099
45627SOL    HW248607   3.277   5.713  12.424 -0.9381  1.3298 -0.5829
45628SOL     OW48608  10.808  12.494   6.255  0.3971  0.0836 -0.2337
45628SOL    HW148609  10.748  12.439   6.305  1.3392 -0.9236 -0.1783
45628SOL    HW248610  10.755  12.569   6.227 -1.4059 -1.7173 -1.8983
45629SOL     OW48611   6.702   8.049  11.030  0.1855  0.1275 -0.2571
45629SOL    HW148612   6.623   7.999  11.010  0.3405  0.2996 -1.3649
45629SOL    HW248613   6.756   7.989  11.082 -0.2025 -0.3793 -0.4332
45630SOL     OW48614   8.859   6.462   4.616 -0.3205 -0.6430 -0.3645
45630SOL    HW148615   8.777   6.439   4.660  0.6358 -0.5048  1.6242
45630SOL    HW248616   8.900   6.378   4.594 -0.4274 -0.7247 -0.2505
45631SOL     OW48617   0.770   1.234   4.273  0.1822  0.0414  0.1843
45631SOL    HW148618   0.844   1.294   4.277  0.5066 -0.4207  1.2947
45631SOL    HW248619   0.797   1.158   4.324 -1.3524  0.2004  1.2963
45632SOL     OW48620   3.865   7.407   6.496 -0.0648  0.1181 -0.1751
45632SOL    HW148621   3.890   7.339   6.558 -1.7368 -0.3571  0.0413
45632SOL    HW248622   3.942   7.420   6.441  0.1767 -2.2670 -0.5172
45633SOL     OW48623   2.088   1.708   9.369 -0.3655  0.3395 -0.4074
45633SOL    HW148624   2.173   1.730   9.409  0.7623 -0.9916 -1.9403
45633SOL    HW248625   2.103   1.716   9.275 -3.0963  3.9517 -0.7396
45634SOL     OW48626   5.059   0.977   0.638 -0.1260 -0.1716 -0.3716
45634SOL    HW148627   5.060   0.983   0.542  1.2811 -0.4087 -0.3833
45634SOL    HW248628   5.008   1.054   0.665 -2.8604 -1.4848 -1.3621
45635SOL     OW48629   6.410   3.579   6.143 -0.3099  0.0621 -0.3793
45635SOL    HW148630   6.424   3.498   6.093 -0.5316  0.2538 -0.7550
45635SOL    HW248631   6.485   3.583   6.202 -0.0710 -0.1976 -0.6568
45636SOL     OW48632   9.607  10.860   6.226 -0.5577 -0.5449 -0.1533
45636SOL    HW148633   9.560  10.829   6.304  0.3455  0.6149  0.8903
45636SOL    HW248634   9.548  10.922   6.185 -0.1468  0.6447  0.9634
45637SOL     OW48635   8.635   5.929   6.685  0.5482 -0.3068  0.0249
45637SOL    HW148636   8.701   5.981   6.640  0.8086 -0.5127  0.1637
45637SOL    HW248637   8.677   5.844   6.699  0.2727 -0.4231  0.1600
45638SOL     OW48638  10.671  12.486  10.946  0.3763 -0.1561  0.2816
45638SOL    HW148639  10.654  12.572  10.906 -0.8773 -0.2903  0.5081
45638SOL    HW248640  10.598  12.431  10.918  1.8286 -1.5689 -0.9746
45639SOL     OW48641  11.915   4.291   6.587  0.7110  0.2794  0.6418
45639SOL    HW148642  11.833   4.280   6.635  0.0963 -0.3528 -0.5176
45639SOL    HW248643  11.949   4.375   6.618  0.5845 -0.3077  2.4961
45640SOL     OW48644   3.566   8.783   1.543  0.4948  0.1007  0.6085
45640SOL    HW148645   3.482   8.826   1.564 -1.4872 -2.7860 -0.6983
45640SOL    HW248646   3.620   8.853   1.506 -1.2137  2.1578  1.7661
45641SOL     OW48647   7.697   4.857   9.065 -0.2205  0.3844  0.2380
45641SOL    HW148648   7.753   4.790   9.105 -0.9145  0.6341  1.7276
45641SOL    HW248649   7.619   4.808   9.038 -0.5344  0.4962  0.9123
45642SOL     OW48650   7.763  11.713   6.359  0.7609 -0.2627 -0.2112
45642SOL    HW148651   7.771  11.629   6.404 -1.1367 -0.2526  0.2204
45642SOL    HW248652   7.680  11.749   6.390  1.6694  1.9183 -0.1764
45643SOL     OW48653   5.843  11.287   0.009 -0.2909 -0.5922  0.0617
45643SOL    HW148654   5.755  11.253   0.026 -0.0916 -1.1238  0.0538
45643SOL    HW248655   5.901  11.226   0.055  0.0853 -0.3995 -0.1570
45644SOL     OW48656   9.943   6.489   4.727  0.0425  0.2990 -0.6380
45644SOL    HW148657   9.909   6.409   4.688  1.3446 -0.4320 -0.3296
45644SOL    HW248658   9.902   6.493   4.813  0.2511 -0.2482 -0.5083
45645SOL     OW48659   9.864  11.321   6.722 -0.4424  0.1615  0.0640
45645SOL    HW148660   9.809  11.384   6.767  0.6509  1.2241 -0.0331
45645SOL    HW248661   9.918  11.373   6.663 -1.3748 -1.1198 -2.0440
45646SOL     OW48662   0.313   9.609   5.171  0.0513 -0.4946 -0.2247
45646SOL    HW148663   0.271   9.568   5.247  0.6437  0.9363  0.9150
45646SOL    HW248664   0.368   9.539   5.134 -0.3504 -1.2544  0.5745
45647SOL     OW48665   9.783  12.082   8.891 -0.0690 -1.2398 -0.4809
45647SOL    HW148666   9.787  12.153   8.826 -1.6899 -0.1487  0.5322
45647SOL    HW248667   9.808  12.004   8.843  0.7595 -0.1441 -1.9082
45648SOL     OW48668   4.235   6.467   4.088  0.2613 -0.1159  0.5600
45648SOL    HW148669   4.243   6.555   4.052 -1.0792  0.3931  1.4308
45648SOL    HW248670   4.202   6.480   4.177  1.8741 -1.4117  1.4084
45649SOL     OW48671   8.171   4.852   7.353  0.4079 -0.0580 -0.3699
45649SOL    HW148672   8.196   4.854   7.446  2.9347  2.2938 -0.9557
45649SOL    HW248673   8.130   4.937   7.338  1.3737  0.2084 -1.6886
45650SOL     OW48674  13.001   7.747   6.170 -0.3536 -0.5545  0.8346
45650SOL    HW148675  13.007   7.824   6.227 -1.3619 -0.7421  1.2039
45650SOL    HW248676  12.948   7.685   6.218  0.0101 -1.2924  0.3066
45651SOL     OW48677  13.605   6.178   9.788  0.4063 -0.8539 -0.3038
45651SOL    HW148678  13.563   6.230   9.719  1.0418  0.0030 -0.0595
45651SOL    HW248679  13.647   6.106   9.741  3.9168  1.6401 -1.3414
45652SOL     OW48680   7.502   9.833   0.642 -0.5191 -0.4011 -0.0376
45652SOL    HW148681   7.546   9.773   0.582 -0.5371  0.3486 -0.8272
45652SOL    HW248682   7.432   9.871   0.589  0.0152  0.9359  0.1914
45653SOL     OW48683  12.385  12.115   4.737  0.6073  0.4530 -0.3222
45653SOL    HW148684  12.476  12.088   4.726  0.7210  0.2554  0.9438
45653SOL    HW248685  12.334  12.040   4.705  0.9132 -0.2108  0.6890
45654SOL     OW48686   2.477  11.819   6.051 -0.2086 -0.1532  0.3918
45654SOL    HW148687   2.519  11.760   6.113 -0.8187  0.3247  1.2703
45654SOL    HW248688   2.533  11.815   5.973  1.9443  1.0612  1.7872
45655SOL     OW48689   1.105   8.985   9.862  0.3374  0.1903 -0.0925
45655SOL    HW148690   1.014   9.012   9.860 -0.1309 -1.3325 -1.3414
45655SOL    HW248691   1.143   9.017   9.780  0.2935 -1.0908 -0.6470
45656SOL     OW48692  11.735   0.189  11.854  0.2868  0.5397  0.0289
45656SOL    HW148693  11.677   0.154  11.922  0.1098  1.6551  0.4872
45656SOL    HW248694  11.676   0.230  11.791  0.3697 -1.4650 -1.4493
45657SOL     OW48695  10.850  11.881  11.712  0.0124 -0.0132 -0.0308
45657SOL    HW148696  10.929  11.917  11.671 -0.0331 -1.9909 -2.0636
45657SOL    HW248697  10.790  11.865  11.639 -1.3072 -0.8575  1.1775
45658SOL     OW48698  11.370   9.352  11.674 -0.0428  0.0491 -0.1047
45658SOL    HW148699  11.317   9.432  11.669 -2.4818 -1.4181  0.6385
45658SOL    HW248700  11.378   9.322  11.584  0.1190  0.6219 -0.2864
45659SOL     OW48701   5.818  12.734   0.362 -0.0826 -0.1200  0.0147
45659SOL    HW148702   5.848  12.758   0.274 -0.1613  1.3405  0.3623
45659SOL    HW248703   5.740  12.787   0.376 -0.1770 -0.4794  0.8968
45660SOL     OW48704   2.542   3.878   2.463 -0.0411  0.4996 -0.4862
45660SOL    HW148705   2.564   3.955   2.410  1.7246 -0.0879 -0.6899
45660SOL    HW248706   2.541   3.806   2.400 -0.8778  0.2243 -0.1666
45661SOL     OW48707   5.642   2.626   9.072  0.0215  0.5072  0.1022
45661SOL    HW148708   5.736   2.619   9.085  0.1576  1.7076 -0.1423
45661SOL    HW248709   5.608   2.651   9.158 -0.0992  0.0031  0.2087
45662SOL     OW48710   7.693   2.166  11.714 -0.1590  0.4723  0.0074
45662SOL    HW148711   7.753   2.154  11.640 -0.0345  0.9008  0.0418
45662SOL    HW248712   7.746   2.147  11.791 -0.2492  0.1769 -0.0008
45663SOL     OW48713  13.487   0.220   2.153 -0.2198 -0.3204  0.4847
45663SOL    HW148714  13.423   0.165   2.197 -1.3026 -0.9591 -1.7100
45663SOL    HW248715  13.543   0.159   2.106 -0.5567  0.3585 -0.8578
45664SOL     OW48716  12.349   7.778  12.358 -0.9402 -0.6524  0.0430
45664SOL    HW148717  12.413   7.707  12.357 -1.9623 -1.6007 -0.2356
45664SOL    HW248718  12.310   7.776  12.270 -0.4563  0.7685 -0.2385
45665SOL     OW48719   1.711   0.485  11.946  0.1120  0.7693  0.0176
45665SOL    HW148720   1.625   0.477  11.988  0.9761  0.3242  1.8072
45665SOL    HW248721   1.745   0.569  11.977  0.8254  0.3690  0.3583
45666SOL     OW48722   0.268   7.072  11.741  0.5969  0.2991  0.0396
45666SOL    HW148723   0.284   7.166  11.740  1.1517  0.2294  0.9309
45666SOL    HW248724   0.225   7.054  11.657 -1.3614  1.6508  0.6605
45667SOL     OW48725   5.036   9.625   4.667 -0.1008  0.6670  0.0497
45667SOL    HW148726   4.974   9.689   4.702 -1.6808 -1.5656  1.6915
45667SOL    HW248727   5.018   9.545   4.718  2.9749 -0.5849 -0.6178
45668SOL     OW48728   5.286   3.974   2.524 -0.2067  0.4068 -0.1056
45668SOL    HW148729   5.376   3.945   2.542 -0.4745 -0.2647  0.2033
45668SOL    HW248730   5.236   3.945   2.601 -0.6791  0.8197 -0.2526
45669SOL     OW48731   9.491   5.772   9.771 -0.1359 -0.2076  0.4577
45669SOL    HW148732   9.442   5.690   9.781 -0.4594  0.0405  0.9497
45669SOL    HW248733   9.455   5.829   9.838  0.2253  0.2759  0.2423
45670SOL     OW48734   6.820  13.177  12.347 -0.2495  0.1486 -0.1282
45670SOL    HW148735   6.821  13.270  12.367 -2.2823  0.0457  0.6780
45670SOL    HW248736   6.747  13.142  12.398  0.3471 -1.8616 -0.5500
45671SOL     OW48737   9.117   9.178  10.615 -0.3477  0.2618  0.6228
45671SOL    HW148738   9.116   9.227  10.533 -1.0053  1.4570  1.3297
45671SOL    HW248739   9.036   9.126  10.613 -0.9560  1.1783  1.0299
45672SOL     OW48740   5.887   4.121   0.531  0.3069 -0.5446 -0.4071
45672SOL    HW148741   5.800   4.106   0.569  0.2065  0.4063 -0.2444
45672SOL    HW248742   5.920   4.198   0.577  1.3973 -1.1029 -0.2119
45673SOL     OW48743  11.081   6.334   6.723  0.3333 -0.3945  0.2466
45673SOL    HW148744  11.112   6.330   6.633 -1.3911  0.5149 -0.4299
45673SOL    HW248745  10.991   6.303   6.719  0.4418 -1.0168  1.7928
45674SOL     OW48746   9.736   2.906   5.590 -0.3501  0.3571 -0.4781
45674SOL    HW148747   9.720   2.866   5.505  1.0344 -0.7627 -0.2452
45674SOL    HW248748   9.824   2.942   5.584  0.2848 -0.8804  0.8831
45675SOL     OW48749   4.032  12.461   9.813 -0.3410 -0.4230  0.1300
45675SOL    HW148750   4.025  12.381   9.865  0.8196 -0.2145  0.6286
45675SOL    HW248751   3.943  12.475   9.780 -0.5891 -1.8573  0.1058
45676SOL     OW48752  11.424  11.489   3.390 -0.3022  0.9549 -0.1643
45676SOL    HW148753  11.458  11.560   3.335 -1.1584  1.1799 -0.4276
45676SOL    HW248754  11.340  11.465   3.349  0.2178 -0.5941 -0.4117
45677SOL     OW48755  13.164  12.656   8.499  0.4842  0.3450 -0.2421
45677SOL    HW148756  13.181  12.566   8.472  0.2927  0.1013  0.4258
45677SOL    HW248757  13.212  12.665   8.581 -2.2106 -0.2541  1.5266
45678SOL     OW48758  10.431  12.342   2.895  0.2785 -0.6804  0.5694
45678SOL    HW148759  10.414  12.415   2.836  2.0353 -1.2129 -0.6975
45678SOL    HW248760  10.382  12.363   2.974 -0.6581  0.9907 -0.3860
45679SOL     OW48761   5.986   9.406   3.762  0.0285 -0.1739  0.0452
45679SOL    HW148762   5.920   9.451   3.816 -0.5809  0.9184 -1.5449
45679SOL    HW248763   5.953   9.414   3.672  2.0211 -0.1583 -0.7289
45680SOL     OW48764  11.408   6.431   2.892 -0.0485 -0.4111 -0.4635
45680SOL    HW148765  11.331   6.478   2.860  0.7284  0.3616 -1.2321
45680SOL    HW248766  11.458   6.410   2.814  2.2379  2.0977  0.1979
45681SOL     OW48767   5.892  11.945   6.488  0.0749 -0.6200  0.3952
45681SOL    HW148768   5.938  11.864   6.511  1.2771 -0.2385 -0.5677
45681SOL    HW248769   5.831  11.919   6.419  0.8322 -0.6267 -0.2858
45682SOL     OW48770  10.708   2.903   1.764  0.5248  0.4007  0.0566
45682SOL    HW148771  10.777   2.841   1.743  0.9692 -0.0371  2.5189
45682SOL    HW248772  10.752   2.988   1.769  0.9115  0.1471  1.4517
45683SOL     OW48773  10.204  11.680   4.931  0.0975  0.7156 -0.6826
45683SOL    HW148774  10.224  11.736   4.856  0.5338  0.3725 -0.8227
45683SOL    HW248775  10.164  11.602   4.892  1.6868 -0.1269 -0.7006
45684SOL     OW48776   0.207   9.986   7.477 -0.6288  0.1780  0.4356
45684SOL    HW148777   0.189  10.040   7.554  0.7938  1.2609  0.0632
45684SOL    HW248778   0.192  10.044   7.403  1.2940  0.2484  0.0351
45685SOL     OW48779  11.776   3.858   3.087 -0.1915  0.3050  0.1015
45685SOL    HW148780  11.741   3.897   3.007 -0.3621  0.7957  0.4120
45685SOL    HW248781  11.699   3.831   3.137 -0.0842 -2.0533 -0.8629
45686SOL     OW48782   7.232   2.450   5.268  0.2614  0.0883  0.3001
45686SOL    HW148783   7.269   2.533   5.238 -1.5656  0.4939 -1.0492
45686SOL    HW248784   7.197   2.469   5.354  0.6151  0.4786  0.3631
45687SOL     OW48785   4.174   0.256   2.529  0.5856  0.6477 -0.0131
45687SOL    HW148786   4.268   0.265   2.544  0.5414 -0.5014  1.1510
45687SOL    HW248787   4.134   0.319   2.589  0.5737 -0.4520  1.1881
45688SOL     OW48788   7.854  12.991   9.208  0.1970 -0.6810 -0.1070
45688SOL    HW148789   7.914  13.017   9.138 -2.4471  0.5867 -2.0456
45688SOL    HW248790   7.821  12.905   9.181 -0.0625 -0.6589  0.1319
45689SOL     OW48791  13.662   1.713  11.996 -0.3086  0.1509 -0.4250
45689SOL    HW148792  13.737   1.685  11.944  0.2688  0.9597 -0.0263
45689SOL    HW248793  13.594   1.649  11.974  1.0880 -1.8606  0.7681
45690SOL     OW48794   6.334   6.603   9.386 -0.0821  0.1091  0.2319
45690SOL    HW148795   6.427   6.619   9.375  0.5104 -2.5953  0.4056
45690SOL    HW248796   6.300   6.681   9.429  2.0879  1.1509  0.1702
45691SOL     OW48797   1.215   2.213   8.449 -0.0798  0.2248 -0.5633
45691SOL    HW148798   1.147   2.265   8.407 -0.4616 -0.8297 -1.2801
45691SOL    HW248799   1.225   2.136   8.394  3.6181  1.5195 -2.0408
45692SOL     OW48800   1.226  12.256   9.400 -0.1660  0.0217  0.0411
45692SOL    HW148801   1.242  12.215   9.315  2.0307 -1.7497  1.1934
45692SOL    HW248802   1.296  12.320   9.410  0.3428 -0.6448  0.9682
45693SOL     OW48803   9.712   0.172   4.197  0.4895 -0.0416 -0.6782
45693SOL    HW148804   9.637   0.140   4.247 -1.2030  3.3962 -0.7584
45693SOL    HW248805   9.786   0.162   4.258 -0.2685 -1.9778  0.0081
45694SOL     OW48806   9.184  12.123  10.185  0.1804  0.1361  0.3517
45694SOL    HW148807   9.097  12.088  10.167 -0.9968  2.1418  1.7074
45694SOL    HW248808   9.224  12.059  10.243 -0.6502 -0.5137  0.2294
45695SOL     OW48809   7.799   3.483   6.518 -0.0854 -0.4147 -0.2658
45695SOL    HW148810   7.785   3.455   6.609  0.1206  2.0322  0.6201
45695SOL    HW248811   7.866   3.425   6.485  0.0738 -1.1646  1.2758
45696SOL     OW48812   6.500  12.331   1.210  0.3141 -0.2051  0.3494
45696SOL    HW148813   6.503  12.362   1.120 -2.6998  0.8883  0.5350
45696SOL    HW248814   6.523  12.408   1.263 -0.2532 -0.1828  0.5717
45697SOL     OW48815   9.858   4.668   2.442 -0.3588  0.4958  0.4788
45697SOL    HW148816   9.803   4.721   2.385  0.1223 -0.1702 -0.6419
45697SOL    HW248817   9.875   4.588   2.391  1.6004  0.6715  0.8006
45698SOL     OW48818  11.640   5.880   1.402  0.3021 -0.4745 -0.0501
45698SOL    HW148819  11.704   5.879   1.331 -0.2628 -2.2177 -0.5881
45698SOL    HW248820  11.693   5.875   1.482  0.9071  0.5454 -0.3715
45699SOL     OW48821   0.249   2.551   2.968 -0.7444 -0.7667 -0.3156
45699SOL    HW148822   0.226   2.611   2.897 -0.7956 -1.4106 -0.8522
45699SOL    HW248823   0.191   2.576   3.040  1.1202  1.7122  0.5024
45700SOL     OW48824  13.352   5.273   5.373 -0.0889 -0.1466  0.5233
45700SOL    HW148825  13.307   5.348   5.335  0.7212 -0.7120 -1.6903
45700SOL    HW248826  13.289   5.236   5.435 -1.3699  1.0042 -0.0339
45701SOL     OW48827   8.461  10.128   1.769  0.0066 -0.0615  0.9537
45701SOL    HW148828   8.439  10.047   1.815 -0.1970 -0.0490  0.8812
45701SOL    HW248829   8.447  10.197   1.833  0.5020 -0.1101  1.1175
45702SOL     OW48830   9.986   7.384   4.495  0.0315  0.0417  0.1315
45702SOL    HW148831   9.913   7.424   4.543 -0.4673 -0.7735  0.0805
45702SOL    HW248832  10.051   7.453   4.489 -0.1119  0.3331  1.5109
45703SOL     OW48833   2.390  11.590   5.073 -0.1564 -0.0421 -0.4352
45703SOL    HW148834   2.406  11.581   5.167  0.5003 -3.5274 -0.7336
45703SOL    HW248835   2.476  11.612   5.036 -0.4743  1.6261 -0.2480
45704SOL     OW48836   6.868   6.938   8.310 -0.4661  0.0035 -0.5310
45704SOL    HW148837   6.894   7.015   8.360 -0.2479 -0.1211 -0.4467
45704SOL    HW248838   6.854   6.870   8.376 -0.8243  0.0166 -0.5923
45705SOL     OW48839   6.515   0.982  13.687 -0.3616  0.3409 -0.0855
45705SOL    HW148840   6.446   0.931  13.727  0.1067 -0.5936 -0.4437
45705SOL    HW248841   6.562   1.022  13.761  0.9629 -1.9592  0.3953
45706SOL     OW48842   6.643   5.673   8.621  0.2120  0.0476  0.0592
45706SOL    HW148843   6.705   5.602   8.638  0.2684 -0.4342 -1.9458
45706SOL    HW248844   6.692   5.735   8.566 -0.1042  1.2584  1.0868
45707SOL     OW48845   0.237   8.456  11.521 -0.5992 -0.1275 -0.3745
45707SOL    HW148846   0.320   8.427  11.557 -0.6383  0.1821 -0.0152
45707SOL    HW248847   0.215   8.534  11.573 -1.5967 -0.7789  0.2115
45708SOL     OW48848   5.330   8.875   4.754  0.5162  0.5658 -0.1243
45708SOL    HW148849   5.288   8.927   4.823 -1.2989 -0.5660 -0.3008
45708SOL    HW248850   5.283   8.899   4.675 -2.4057 -3.2277  0.1861
45709SOL     OW48851   8.769   2.630   6.060 -0.0197  0.0790  0.1535
45709SOL    HW148852   8.838   2.658   6.119 -1.8194 -0.1798  2.5291
45709SOL    HW248853   8.734   2.550   6.100  0.0249 -1.3447 -2.4256
45710SOL     OW48854  13.240   8.971   7.622 -0.2854 -0.3262 -0.1592
45710SOL    HW148855  13.304   9.005   7.685 -0.7937 -1.0815  0.7942
45710SOL    HW248856  13.285   8.976   7.538  0.1908  1.2842  0.1455
45711SOL     OW48857  12.311   1.626   3.358 -0.4837  0.5493  0.2495
45711SOL    HW148858  12.285   1.536   3.338 -1.1827  0.7132  0.3918
45711SOL    HW248859  12.375   1.648   3.290  0.7709 -0.5254  1.0340
45712SOL     OW48860   9.792   4.510   7.789  0.5550  0.0046 -0.2908
45712SOL    HW148861   9.731   4.490   7.860 -1.8238  0.8090 -1.9925
45712SOL    HW248862   9.808   4.604   7.795  0.4981  0.0438 -0.7049
45713SOL     OW48863   7.314  13.429   9.652 -0.2097 -0.6115  0.0853
45713SOL    HW148864   7.397  13.464   9.686 -0.6732 -0.3860  1.0050
45713SOL    HW248865   7.250  13.497   9.670 -0.5395 -0.6398 -0.9466
45714SOL     OW48866   6.244   7.516   7.235 -0.2150 -0.4619 -0.1528
45714SOL    HW148867   6.325   7.523   7.286 -0.6630 -2.2604  0.8746
45714SOL    HW248868   6.179   7.560   7.289 -0.2899 -0.6520 -0.0868
45715SOL     OW48869   6.564   7.634   5.649  0.0110 -0.1684  0.2941
45715SOL    HW148870   6.519   7.559   5.613 -0.7376 -0.9713  2.6983
45715SOL    HW248871   6.648   7.599   5.681  0.4949  0.4248 -0.3063
45716SOL     OW48872   3.323   4.087   6.645 -0.7386  0.0871 -0.1060
45716SOL    HW148873   3.282   4.169   6.617  1.0046  0.9921 -0.1817
45716SOL    HW248874   3.252   4.023   6.645 -1.4933  0.7130 -3.6981
45717SOL     OW48875   4.908  11.496   8.540 -0.2509  0.0194 -0.6810
45717SOL    HW148876   4.979  11.463   8.595 -0.5157  1.0889  0.3466
45717SOL    HW248877   4.835  11.436   8.558 -0.5228  0.7005  0.6522
45718SOL     OW48878   9.849   9.833  10.055 -0.3823  0.1494  0.3257
45718SOL    HW148879   9.755   9.841  10.039 -0.4742 -1.7061 -0.3414
45718SOL    HW248880   9.863   9.739  10.068  1.5679  0.2046 -0.9973
45719SOL     OW48881   2.456   0.057  12.486 -0.3274  0.4101 -0.1123
45719SOL    HW148882   2.530   0.017  12.532  0.4326 -0.9794 -2.3226
45719SOL    HW248883   2.470   0.151  12.494  1.1581  0.1702  0.3464
45720SOL     OW48884   1.843   2.628  13.367 -0.0975  0.4136  0.3805
45720SOL    HW148885   1.896   2.616  13.446  1.1234  0.6798 -0.3669
45720SOL    HW248886   1.841   2.723  13.354 -0.5765  0.3911  0.2734
45721SOL     OW48887   7.690   8.025   7.690  0.5011  0.4743 -0.4045
45721SOL    HW148888   7.776   8.038   7.730  0.1495 -0.5296  0.7476
45721SOL    HW248889   7.645   8.108   7.701  1.0358  0.7541 -0.2961
45722SOL     OW48890   8.250   2.612   7.289  0.2114 -0.1253 -0.3453
45722SOL    HW148891   8.292   2.536   7.330  1.2536  1.1631  1.1041
45722SOL    HW248892   8.168   2.623   7.338 -1.2120 -1.7328 -2.1902
45723SOL     OW48893   5.877  11.947  13.453  0.3090  0.4415  0.4403
45723SOL    HW148894   5.807  12.008  13.425 -0.3185 -1.0758 -1.5688
45723SOL    HW248895   5.928  11.932  13.373  1.6717 -0.1228  1.3911
45724SOL     OW48896  12.617   4.247  11.811 -0.6501  0.1398 -0.3740
45724SOL    HW148897  12.615   4.225  11.718  1.8893  0.6388 -0.6043
45724SOL    HW248898  12.567   4.328  11.817  1.9722  2.0493 -1.9902
45725SOL     OW48899   6.350   0.792   0.072  0.5090 -0.0962  0.6331
45725SOL    HW148900   6.296   0.834   0.139  1.7256  0.3175  1.3827
45725SOL    HW248901   6.395   0.721   0.118 -0.1945 -1.1494 -0.2314
45726SOL     OW48902   0.698  10.007   3.348 -0.1231  0.6210  0.1724
45726SOL    HW148903   0.712   9.926   3.397 -0.6119  0.7707  0.5625
45726SOL    HW248904   0.636   9.983   3.279 -1.4450  0.9883  1.1910
45727SOL     OW48905   6.254  12.734   4.429 -0.0472 -0.0068 -0.3517
45727SOL    HW148906   6.199  12.700   4.359 -0.7356  2.3279 -1.0249
45727SOL    HW248907   6.339  12.693   4.414 -0.7067 -1.0735 -1.3325
45728SOL     OW48908   7.041  13.469   7.250  0.0892 -0.6183  0.0227
45728SOL    HW148909   6.983  13.399   7.278  1.8511 -2.0899  0.1544
45728SOL    HW248910   7.092  13.491   7.328 -0.8182  1.2828  0.1556
45729SOL     OW48911   7.558  11.860   3.230 -0.1394 -0.1623 -0.3574
45729SOL    HW148912   7.627  11.914   3.191 -0.5539 -0.5773 -1.7142
45729SOL    HW248913   7.477  11.892   3.190 -0.4392 -1.4571 -0.8528
45730SOL     OW48914  12.657  13.003   5.285  0.6501 -0.3792 -0.0401
45730SOL    HW148915  12.674  13.091   5.251  1.3226 -0.1442  0.8752
45730SOL    HW248916  12.681  13.007   5.377  2.6463 -2.0384 -0.3949
45731SOL     OW48917   1.094   6.572   0.851 -0.0570 -0.5654  0.5379
45731SOL    HW148918   1.121   6.591   0.941 -0.1982 -3.2741  1.2347
45731SOL    HW248919   1.011   6.526   0.860  0.1568 -1.3129 -0.9443
45732SOL     OW48920   9.341  12.079   3.914 -0.2742  0.5117 -0.0529
45732SOL    HW148921   9.285  12.097   3.838 -2.5053 -0.5993  1.2670
45732SOL    HW248922   9.423  12.047   3.876 -1.8513 -1.4516 -1.9990
45733SOL     OW48923   2.670  12.873   7.469 -0.0128  0.8237 -0.6465
45733SOL    HW148924   2.757  12.869   7.511 -0.3589  0.7964  0.0911
45733SOL    HW248925   2.683  12.834   7.383  0.5814  0.2620 -0.3108
45734SOL     OW48926   1.170  11.089  10.848  0.3589  0.4764  0.2505
45734SOL    HW148927   1.084  11.133  10.848 -0.8249 -1.6550  1.7050
45734SOL    HW248928   1.179  11.056  10.759  0.1888  1.6264 -0.2152
45735SOL     OW48929   0.723   8.287   8.994  0.6351  0.3426 -0.1381
45735SOL    HW148930   0.688   8.209   8.951  0.8734 -0.0242  0.3317
45735SOL    HW248931   0.697   8.359   8.936 -0.0441 -0.0264 -0.3017
45736SOL     OW48932   5.994  11.147   7.856  0.2746  0.1078  0.2263
45736SOL    HW148933   6.029  11.077   7.801  1.3211 -0.2491  1.2955
45736SOL    HW248934   6.070  11.180   7.904 -0.5535  0.5881  1.2569
45737SOL     OW48935   7.515   1.525   0.654 -0.7830  0.8491 -0.2586
45737SOL    HW148936   7.454   1.542   0.582  0.4593  0.5764 -1.4198
45737SOL    HW248937   7.579   1.465   0.616  0.0800  0.9639  0.9955
45738SOL     OW48938   8.856   1.683  11.731  0.8598 -0.1949  0.1422
45738SOL    HW148939   8.920   1.744  11.768  0.9847 -0.2813  0.0690
45738SOL    HW248940   8.864   1.693  11.636 -1.2213  1.8770  0.0994
45739SOL     OW48941   9.962   3.146   3.855  0.2080 -0.3598 -0.2997
45739SOL    HW148942  10.039   3.100   3.887  0.5243 -0.6524 -1.4479
45739SOL    HW248943   9.978   3.238   3.877  1.6063 -0.1936 -1.8701
45740SOL     OW48944   0.225   0.198  10.746  0.2262  0.4273 -0.1937
45740SOL    HW148945   0.283   0.234  10.813 -1.3344  1.1088  0.8461
45740SOL    HW248946   0.235   0.103  10.755  0.5579  0.5208  0.5205
45741SOL     OW48947   5.298   0.102   1.266 -0.7458  0.0396  0.4329
45741SOL    HW148948   5.219   0.153   1.247 -0.2790  0.3997 -0.7133
45741SOL    HW248949   5.356   0.164   1.310 -0.4096  0.3410 -0.4120
45742SOL     OW48950   6.803   1.037   5.027  0.3946 -0.0867 -0.5351
45742SOL    HW148951   6.898   1.027   5.031  0.4918  0.4411 -1.1758
45742SOL    HW248952   6.775   0.974   4.961  0.2672 -0.4146 -0.1704
45743SOL     OW48953   9.717  10.075  11.286  0.0071 -0.1043  0.4692
45743SOL    HW148954   9.743  10.108  11.201  0.1056 -0.3050  0.4206
45743SOL    HW248955   9.768  10.126  11.349 -0.5275  0.4791  0.4379
45744SOL     OW48956   8.182  13.668  13.630 -0.0649  0.3800 -0.2155
45744SOL    HW148957   8.132  13.604  13.580  0.6294 -0.3614  0.0005
45744SOL    HW248958   8.199  13.739  13.569 -1.2656  0.5839 -0.3169
45745SOL     OW48959  10.364   6.575  12.325 -0.3391 -0.0306 -0.5116
45745SOL    HW148960  10.391   6.506  12.385  1.4071 -0.0991 -1.3145
45745SOL    HW248961  10.307   6.632  12.378  0.5840 -0.4654  1.0073
45746SOL     OW48962   5.893   0.369  13.131  0.0519 -0.3390  0.1991
45746SOL    HW148963   5.814   0.405  13.172 -0.6608  2.0069 -2.8421
45746SOL    HW248964   5.961   0.435  13.148  0.3534 -0.4998 -0.3602
45747SOL     OW48965   9.853   7.156   7.194 -0.4270  0.4224  0.7404
45747SOL    HW148966   9.940   7.164   7.155  0.0073  0.1346  1.6220
45747SOL    HW248967   9.796   7.209   7.137  0.2174  0.1840 -0.1475
45748SOL     OW48968   4.528   2.340   0.778  0.1102  0.1875  0.1069
45748SOL    HW148969   4.476   2.334   0.857 -2.3833 -1.6720 -1.5168
45748SOL    HW248970   4.611   2.297   0.800 -0.6609 -0.5745  1.6138
45749SOL     OW48971   5.106   8.479   8.009 -0.9788  0.5561 -0.0784
45749SOL    HW148972   5.116   8.512   7.920 -1.8679 -0.3003 -0.5222
45749SOL    HW248973   5.078   8.555   8.060 -0.3685  1.0735 -0.5089
45750SOL     OW48974  12.315   2.801  12.687 -0.2345  0.0951  0.2440
45750SOL    HW148975  12.364   2.822  12.766 -0.2018  0.7286  0.0572
45750SOL    HW248976  12.229   2.773  12.719  0.3659 -1.4640  0.6006
45751SOL     OW48977  13.745   4.670  10.783  0.3193 -0.3466 -0.6072
45751SOL    HW148978  13.761   4.583  10.747 -3.7851 -1.5395 -0.0776
45751SOL    HW248979  13.760   4.660  10.877  0.1022 -0.4214 -0.5798
45752SOL     OW48980   7.146   3.069  12.394 -0.5732 -0.6204  0.2833
45752SOL    HW148981   7.200   3.011  12.341  2.6969  2.8399 -0.6220
45752SOL    HW248982   7.175   3.054  12.484 -0.2389 -0.8749  0.1334
45753SOL     OW48983   2.110   0.183   0.724  0.1661 -0.2181  0.2817
45753SOL    HW148984   2.152   0.213   0.643  1.7857 -0.5985  0.9369
45753SOL    HW248985   2.090   0.090   0.708 -0.4287 -0.0438 -0.0207
45754SOL     OW48986   5.859  13.312  10.410  0.4436  0.0739 -0.1654
45754SOL    HW148987   5.860  13.330  10.316  2.7277  0.5758 -0.0942
45754SOL    HW248988   5.873  13.218  10.417  2.5487  0.3357 -0.3382
45755SOL     OW48989   7.871   7.144   7.347 -0.4212 -0.3430 -0.2518
45755SOL    HW148990   7.836   7.088   7.277 -0.9096 -0.7011  0.2739
45755SOL    HW248991   7.955   7.175   7.313 -0.0377 -1.5560 -0.4690
45756SOL     OW48992  12.487  13.546   5.835 -0.1521  0.4380 -0.1693
45756SOL    HW148993  12.502  13.628   5.883 -0.0641 -0.1589  0.8480
45756SOL    HW248994  12.394  13.528   5.847  0.4911 -1.7573  3.2856
45757SOL     OW48995   3.484   1.209   1.804 -0.0340  0.2820 -0.0482
45757SOL    HW148996   3.489   1.298   1.840  0.5251  0.4667 -0.5706
45757SOL    HW248997   3.562   1.165   1.836 -1.2713 -0.6830  1.8711
45758SOL     OW48998   1.644   5.152   5.947  0.5043 -0.0825  0.3882
45758SOL    HW148999   1.701   5.098   5.892  0.8975  1.2005 -0.5141
45758SOL    HW249000   1.556   5.120   5.930  0.7508 -0.5836  0.0433
45759SOL     OW49001  12.162   1.862   2.403  0.2762  0.0991 -0.0592
45759SOL    HW149002  12.247   1.816   2.401  0.3883 -0.0164 -4.8560
45759SOL    HW249003  12.100   1.796   2.434  1.3512 -1.2737 -0.7179
45760SOL     OW49004   7.340   0.172  11.144 -0.3910  0.0351  0.0386
45760SOL    HW149005   7.335   0.221  11.226 -1.4761  1.8800 -1.0456
45760SOL    HW249006   7.400   0.100  11.162  2.6153  2.6142  1.3356
45761SOL     OW49007   2.264   3.689  11.851  0.7845  0.2466  0.1195
45761SOL    HW149008   2.224   3.765  11.894 -0.4667  0.6280 -1.6331
45761SOL    HW249009   2.206   3.616  11.874 -0.8331  0.7335 -2.1121
45762SOL     OW49010   4.406   0.289   1.244  0.3138 -0.1348  0.1730
45762SOL    HW149011   4.414   0.378   1.211  0.2968 -1.1884 -2.9967
45762SOL    HW249012   4.480   0.242   1.207 -1.2272 -2.0653 -0.6945
45763SOL     OW49013   0.678   2.571  12.170 -0.4960  0.4908  0.0755
45763SOL    HW149014   0.745   2.529  12.116 -1.1145 -2.0792  1.1934
45763SOL    HW249015   0.724   2.645  12.210  1.4997 -0.7809  0.2766
45764SOL     OW49016   4.140   2.291  13.093 -0.6474  0.4325 -0.2398
45764SOL    HW149017   4.199   2.348  13.045 -0.4247  0.4380  0.0385
45764SOL    HW249018   4.185   2.273  13.176 -1.1858  0.7249  0.1252
45765SOL     OW49019   4.852   5.360   6.698 -0.0873 -0.3367  1.0019
45765SOL    HW149020   4.759   5.349   6.719 -0.2615 -2.0008 -0.4064
45765SOL    HW249021   4.875   5.281   6.649  0.8212  2.2105 -3.0991
45766SOL     OW49022   5.250  12.947  13.296 -0.5788 -0.2481  0.0374
45766SOL    HW149023   5.302  12.984  13.225  0.9103 -1.7695  0.2794
45766SOL    HW249024   5.314  12.905  13.354 -1.9134 -0.5332  1.3696
45767SOL     OW49025   5.349  13.284   5.483  0.2253 -0.0322 -0.0390
45767SOL    HW149026   5.365  13.211   5.543 -1.7274 -0.0069  0.5764
45767SOL    HW249027   5.341  13.361   5.539  2.0265  0.6760 -0.6662
45768SOL     OW49028   2.869  13.451   4.931  0.4394 -0.6433  0.1496
45768SOL    HW149029   2.864  13.545   4.950  0.5387 -0.9422  1.7426
45768SOL    HW249030   2.782  13.430   4.898  0.5413  0.0748 -0.6333
45769SOL     OW49031   3.330  12.919   6.109 -0.4790  0.1109 -0.3681
45769SOL    HW149032   3.410  12.924   6.057 -0.2020  1.0841  0.1383
45769SOL    HW249033   3.286  13.003   6.093  0.0574  0.8269  1.6704
45770SOL     OW49034  12.927   0.288   7.167 -0.9382 -0.2499 -0.1319
45770SOL    HW149035  12.866   0.302   7.239  0.5034 -1.9511  1.5362
45770SOL    HW249036  12.982   0.366   7.166 -0.5809 -0.4626  1.0704
45771SOL     OW49037   4.691  12.358  11.099  0.2342  1.2653  0.2677
45771SOL    HW149038   4.633  12.434  11.091 -1.9841 -0.3441  0.1230
45771SOL    HW249039   4.659  12.310  11.175  1.3789  0.2785  0.1666
45772SOL     OW49040  10.263   9.030   2.786 -0.6079 -0.1274 -0.2047
45772SOL    HW149041  10.253   8.935   2.796  0.3692 -0.0776  1.7328
45772SOL    HW249042  10.286   9.043   2.694  0.8919 -1.9363 -0.1374
45773SOL     OW49043   3.182   0.617   8.481 -0.1275  0.0965  0.1574
45773SOL    HW149044   3.161   0.631   8.389 -0.0421  1.5321  0.3323
45773SOL    HW249045   3.275   0.596   8.481  0.1290  1.1563 -0.0221
45774SOL     OW49046  10.865  10.170   3.514  0.2731  0.4262 -0.0215
45774SOL    HW149047  10.887  10.143   3.603  0.7200 -1.0098 -0.5309
45774SOL    HW249048  10.777  10.135   3.500 -0.9613  3.0111  0.7586
45775SOL     OW49049  11.959  10.834   1.246  0.0780  0.5089  0.1783
45775SOL    HW149050  11.920  10.898   1.186 -0.7531 -1.6083 -1.6870
45775SOL    HW249051  11.885  10.781   1.276  1.1597 -2.6815 -2.2784
45776SOL     OW49052   7.040   2.107   6.522 -0.2456 -0.8247 -0.3719
45776SOL    HW149053   6.986   2.084   6.447 -1.4794 -1.1829  0.5783
45776SOL    HW249054   7.045   2.026   6.574  1.6837 -0.9634 -0.6801
45777SOL     OW49055   4.061   1.828   5.175  0.0163  0.0618  0.0905
45777SOL    HW149056   4.145   1.867   5.149  0.5202 -1.3135 -0.4239
45777SOL    HW249057   4.006   1.837   5.097  0.1393 -0.2598 -0.0351
45778SOL     OW49058   4.434   5.485   6.928  0.1500 -0.0366  0.1732
45778SOL    HW149059   4.410   5.543   7.000  0.8828  1.8566 -1.0302
45778SOL    HW249060   4.390   5.522   6.851  1.8037 -0.1574 -0.9031
45779SOL     OW49061  12.634  12.926   6.511 -0.1043 -0.1434  0.2370
45779SOL    HW149062  12.727  12.917   6.490  0.2646  0.1213  1.6803
45779SOL    HW249063  12.608  13.009   6.472  0.4416  0.1255  0.4472
45780SOL     OW49064   7.059   1.234  11.908  0.0582 -0.6739  0.6154
45780SOL    HW149065   7.031   1.238  11.817  1.9204 -0.4022  0.0104
45780SOL    HW249066   7.142   1.187  11.906  1.3122  1.3197  1.8458
45781SOL     OW49067   3.211   4.163   6.899  0.7449  0.3530  0.8046
45781SOL    HW149068   3.247   4.113   6.972 -0.2046 -0.7696  0.5472
45781SOL    HW249069   3.265   4.140   6.824 -0.4576 -1.3858  0.4022
45782SOL     OW49070   8.967  12.095  12.511 -0.1678 -0.0155  0.0680
45782SOL    HW149071   8.987  12.005  12.536  0.5397  0.5195  1.5723
45782SOL    HW249072   9.021  12.149  12.571  0.4749  1.3901 -1.6849
45783SOL     OW49073   2.019   8.122   8.113  0.2509  0.6358 -0.1699
45783SOL    HW149074   1.957   8.140   8.042 -0.6574  0.9260  0.6774
45783SOL    HW249075   1.975   8.058   8.168  1.2569 -0.1566 -0.2425
45784SOL     OW49076  11.146   0.848  12.302 -0.1080  0.4284 -0.3614
45784SOL    HW149077  11.116   0.875  12.389 -0.9359  0.3830 -0.6260
45784SOL    HW249078  11.069   0.857  12.246  0.7889  1.8706 -1.4176
45785SOL     OW49079   1.833   0.231   3.978  0.5005 -0.3698 -0.1911
45785SOL    HW149080   1.827   0.267   3.889 -0.7630  0.6915  0.2940
45785SOL    HW249081   1.770   0.160   3.980  0.5721 -0.4330 -0.1554
45786SOL     OW49082   9.009   9.426   6.853  0.3084 -0.3675  0.0602
45786SOL    HW149083   8.945   9.423   6.925 -1.6312  0.4978 -1.5199
45786SOL    HW249084   9.092   9.400   6.894 -0.9137 -1.0290  2.3423
45787SOL     OW49085   7.644  10.195   4.930 -0.0473 -0.0035  0.3579
45787SOL    HW149086   7.567  10.140   4.915 -0.2198 -0.0151  1.2334
45787SOL    HW249087   7.665  10.182   5.023  1.9225 -1.1991 -0.1749
45788SOL     OW49088   2.177  11.433   8.665 -0.3807  0.7174  0.3441
45788SOL    HW149089   2.239  11.362   8.649 -0.2346  0.7093  0.9344
45788SOL    HW249090   2.091  11.392   8.651 -0.2555  0.9481 -1.3532
45789SOL     OW49091  11.017  12.785  11.449 -0.3190  0.0201  0.4143
45789SOL    HW149092  10.921  12.793  11.443 -0.3158  0.6979  1.1153
45789SOL    HW249093  11.047  12.873  11.470  0.7133  0.4674 -2.5002
45790SOL     OW49094   3.933   2.581  12.436  0.1430 -0.0492  0.4218
45790SOL    HW149095   3.885   2.571  12.354 -0.6762  0.0276  0.8882
45790SOL    HW249096   3.881   2.641  12.488  0.9431  0.3420  0.7921
45791SOL     OW49097  13.663   6.880   1.801 -1.3161  0.3537  0.0418
45791SOL    HW149098  13.664   6.833   1.884 -1.1048  1.2822  0.5724
45791SOL    HW249099  13.635   6.814   1.737 -1.3550 -0.4022  0.8195
45792SOL     OW49100  11.943   3.172  13.640 -0.0403 -0.1596 -0.2046
45792SOL    HW149101  11.958   3.264  13.621  2.3245 -0.6923 -1.2939
45792SOL    HW249102  12.004   3.152  13.712  1.0186 -1.2952 -1.3536
45793SOL     OW49103  11.114   0.828   9.487  0.6023  0.1732  0.2069
45793SOL    HW149104  11.082   0.738   9.486  1.3783 -0.1193  0.6701
45793SOL    HW249105  11.191   0.827   9.430 -0.6504  1.0638 -1.6155
45794SOL     OW49106   0.164   3.232   8.648  0.3089 -0.2673 -0.3641
45794SOL    HW149107   0.126   3.317   8.671  0.1104 -0.6383  0.7394
45794SOL    HW249108   0.216   3.249   8.569  2.0187  1.3544  1.0187
45795SOL     OW49109  10.144   2.373   9.780  0.3221 -0.1728  0.5432
45795SOL    HW149110  10.127   2.286   9.742 -1.0194  0.1543  0.3485
45795SOL    HW249111  10.239   2.378   9.787  0.4588 -1.3183 -0.2616
45796SOL     OW49112  12.745   2.156  12.717 -0.1886 -0.0609 -0.2118
45796SOL    HW149113  12.751   2.252  12.714 -1.1801  0.0154 -0.1635
45796SOL    HW249114  12.702   2.138  12.801  0.3876 -0.5717 -0.0281
45797SOL     OW49115   0.056   2.254   5.208  0.9060  0.8514  0.2270
45797SOL    HW149116  -0.029   2.247   5.165  0.7721  1.3576  0.3877
45797SOL    HW249117   0.035   2.258   5.302  1.2566 -1.3572  0.4514
45798SOL     OW49118   6.958   6.020   8.523 -0.1867 -0.2064  0.5080
45798SOL    HW149119   6.872   6.056   8.504  0.2783  0.9650  0.5905
45798SOL    HW249120   7.006   6.028   8.441  0.4003  0.7808  0.9302
45799SOL     OW49121   6.641  10.773  10.306 -0.1583 -0.3394  0.6682
45799SOL    HW149122   6.667  10.809  10.391  1.3047  1.2852 -0.4016
45799SOL    HW249123   6.554  10.810  10.289 -0.4519 -0.6607  1.4309
45800SOL     OW49124   3.653   0.815   2.648  0.3151  0.2581 -0.0784
45800SOL    HW149125   3.621   0.783   2.563  2.2755  0.7676 -1.0782
45800SOL    HW249126   3.575   0.818   2.703 -0.8993 -0.8214 -1.6241
45801SOL     OW49127   6.262  10.984   9.802 -0.4408 -0.9084 -0.4027
45801SOL    HW149128   6.350  10.964   9.834 -0.2153 -1.6960 -1.4401
45801SOL    HW249129   6.232  10.902   9.764 -0.5369  0.0190 -2.4894
45802SOL     OW49130  10.635   5.400   2.038 -0.0619  0.5047 -0.1262
45802SOL    HW149131  10.640   5.355   2.122  0.2534  0.1828 -0.3164
45802SOL    HW249132  10.559   5.458   2.047 -1.7399 -1.5160 -0.6116
45803SOL     OW49133   6.722   2.684   8.607 -0.9052 -0.1954 -0.0007
45803SOL    HW149134   6.715   2.613   8.671 -0.1542 -1.6833 -1.5189
45803SOL    HW249135   6.689   2.647   8.525 -0.3819  1.1677 -0.8612
45804SOL     OW49136   1.034   1.364   9.451 -0.1536  0.2806  0.0013
45804SOL    HW149137   0.956   1.406   9.414  1.0590  1.0326 -1.8223
45804SOL    HW249138   1.057   1.419   9.526 -1.6792 -0.2888  0.9370
45805SOL     OW49139   4.598  10.185   4.365 -0.5873 -0.2943  0.0052
45805SOL    HW149140   4.617  10.193   4.272 -2.8425 -0.0646 -0.4714
45805SOL    HW249141   4.683  10.197   4.408  0.4194 -0.0347 -1.9824
45806SOL     OW49142  10.886  10.681   1.130  0.0560 -0.4524 -0.3029
45806SOL    HW149143  10.885  10.649   1.040  0.6406  0.2329 -0.5580
45806SOL    HW249144  10.825  10.754   1.130  0.7190  0.1123 -0.3650
45807SOL     OW49145   8.220   9.936   6.725 -0.3189  1.0161 -0.5652
45807SOL    HW149146   8.253   9.891   6.647 -2.0736 -0.5651 -0.4677
45807SOL    HW249147   8.164   9.871   6.768  0.1323  2.0420  1.7114
45808SOL     OW49148  11.607   6.355   1.811 -0.1500 -0.1106 -0.3528
45808SOL    HW149149  11.591   6.378   1.902 -1.0730  0.3125 -0.6084
45808SOL    HW249150  11.547   6.283   1.793 -1.4825  1.1331 -1.1729
45809SOL     OW49151   3.612   6.118  12.490 -0.0271  0.0506  0.3777
45809SOL    HW149152   3.567   6.080  12.566 -0.0726 -1.2848 -0.2883
45809SOL    HW249153   3.548   6.177  12.451 -0.0446  0.6622  1.2874
45810SOL     OW49154   4.756   5.748  11.651  0.1402  0.1353  0.4501
45810SOL    HW149155   4.723   5.693  11.722 -0.2009  0.5879  0.6449
45810SOL    HW249156   4.847   5.766  11.675  0.6369 -1.3329 -0.2187
45811SOL     OW49157   4.673   6.872   9.897 -0.2955  0.1046  0.5171
45811SOL    HW149158   4.597   6.921   9.865 -0.0865 -0.8631 -1.6419
45811SOL    HW249159   4.637   6.817   9.967 -1.9522 -1.3541 -1.3646
45812SOL     OW49160   9.310  11.151   5.738 -0.2557 -0.1707  0.1892
45812SOL    HW149161   9.262  11.073   5.767 -1.2496  0.9246  1.6048
45812SOL    HW249162   9.380  11.162   5.802 -0.4407  0.3975  0.2968
45813SOL     OW49163   2.439  10.169  12.318  0.4029 -0.1181  0.0402
45813SOL    HW149164   2.482  10.084  12.328  0.8567  0.1703  0.5784
45813SOL    HW249165   2.495  10.230  12.365 -0.2169  0.3884  0.1344
45814SOL     OW49166  11.452   1.166   8.019 -0.2075  0.1200 -0.2055
45814SOL    HW149167  11.360   1.139   8.024 -0.0414 -0.2951  1.6333
45814SOL    HW249168  11.480   1.169   8.111  2.1902 -1.7752 -0.7982
45815SOL     OW49169  12.895   4.948  10.705  0.6959 -0.7603 -0.0377
45815SOL    HW149170  12.967   4.986  10.756  0.7142 -0.4206 -0.3107
45815SOL    HW249171  12.827   5.015  10.706  1.1279 -0.2741 -1.3893
45816SOL     OW49172   3.701   8.342   4.765 -0.4576  0.4224  0.2315
45816SOL    HW149173   3.707   8.392   4.683  1.0086 -1.6162 -1.0053
45816SOL    HW249174   3.726   8.404   4.833  1.9082  1.2714 -1.2946
45817SOL     OW49175   3.129  10.936  12.375 -0.3674 -0.2378 -0.3933
45817SOL    HW149176   3.193  10.997  12.337 -1.6595  0.6251 -1.2894
45817SOL    HW249177   3.179  10.857  12.394  1.7870  1.5550  2.3410
45818SOL     OW49178   9.937   4.653   4.195 -0.3046  0.1735 -0.2507
45818SOL    HW149179   9.914   4.652   4.102  0.6173 -0.9720 -0.4848
45818SOL    HW249180   9.911   4.566   4.226 -0.4471  0.4922  0.5307
45819SOL     OW49181  10.975   2.765   6.502 -0.4028  0.0706  0.7326
45819SOL    HW149182  10.992   2.747   6.594 -0.3655  0.2305  0.7580
45819SOL    HW249183  10.964   2.679   6.461 -1.0133  0.0135  0.9969
45820SOL     OW49184   9.883   0.746   6.759 -0.0635 -0.3063  0.3340
45820SOL    HW149185   9.873   0.762   6.853 -3.5869  2.0990 -0.2410
45820SOL    HW249186   9.828   0.670   6.742  0.2422 -0.4836  0.1245
45821SOL     OW49187  13.010   0.861   5.679  0.1190 -0.1308 -0.6777
45821SOL    HW149188  13.035   0.873   5.587 -1.2795 -0.6099 -1.1510
45821SOL    HW249189  12.950   0.934   5.697 -0.7402 -0.8344 -0.6045
45822SOL     OW49190   7.357   9.178  13.196 -0.3888 -0.3490  0.4997
45822SOL    HW149191   7.330   9.118  13.126 -1.6444  1.2892 -0.4781
45822SOL    HW249192   7.453   9.172  13.197 -0.2087  0.7067 -2.4232
45823SOL     OW49193   9.855   7.049   1.250  0.3181  0.5558  0.2093
45823SOL    HW149194   9.794   7.117   1.221  0.4852 -0.3454 -2.4693
45823SOL    HW249195   9.932   7.060   1.195  1.3711 -0.2503  1.4634
45824SOL     OW49196   9.139   6.742   0.970 -0.0385  0.2501  0.3472
45824SOL    HW149197   9.229   6.771   0.958  0.3001  0.4097  2.7106
45824SOL    HW249198   9.144   6.681   1.044 -1.9005  0.4087  0.6412
45825SOL     OW49199   9.407   9.383  10.388 -0.1036  0.6481 -0.3328
45825SOL    HW149200   9.460   9.432  10.451  0.7999  0.4565 -0.9271
45825SOL    HW249201   9.464   9.312  10.358 -1.1120 -0.3009 -0.0949
45826SOL     OW49202   7.437   3.900   9.021 -0.2357 -0.1351 -0.0550
45826SOL    HW149203   7.355   3.851   9.010 -0.1828 -0.0558 -0.8403
45826SOL    HW249204   7.414   3.972   9.079 -0.5691 -0.4756  0.2462
45827SOL     OW49205  10.870   1.193   3.543 -0.4036 -0.2147  0.4359
45827SOL    HW149206  10.832   1.249   3.611 -1.1378 -0.7086  0.4391
45827SOL    HW249207  10.963   1.191   3.564 -0.4507  0.5403  0.7732
45828SOL     OW49208   6.411  12.051   3.042 -0.1926  0.2393 -0.6495
45828SOL    HW149209   6.464  11.976   3.070  1.8387  1.7362 -0.2505
45828SOL    HW249210   6.333  12.046   3.096 -0.6612 -2.1877 -1.4155
45829SOL     OW49211  10.709   2.300  13.202  0.1922 -0.1071  0.1236
45829SOL    HW149212  10.714   2.373  13.264  1.2054 -0.4172  0.4274
45829SOL    HW249213  10.732   2.223  13.253 -0.3877 -0.5764 -0.3083
45830SOL     OW49214  13.374  11.570  10.520 -0.4478 -0.4855  0.0171
45830SOL    HW149215  13.448  11.515  10.545 -0.3285 -0.3726 -0.0817
45830SOL    HW249216  13.413  11.639  10.465 -0.3970  0.4265  1.1638
45831SOL     OW49217   0.913   6.473   8.393 -0.1873 -0.6310  0.0451
45831SOL    HW149218   0.990   6.530   8.389  0.1400 -1.1244 -1.1877
45831SOL    HW249219   0.873   6.493   8.477 -0.5533  2.0633 -0.6437
45832SOL     OW49220  10.125  13.169   7.290  0.0930 -0.8081  0.3070
45832SOL    HW149221  10.090  13.239   7.234  1.3583  1.0172  1.6647
45832SOL    HW249222  10.051  13.109   7.301 -0.3503 -0.9924 -2.8190
45833SOL     OW49223   2.730   9.336   7.625  0.5457  0.4949  0.3170
45833SOL    HW149224   2.817   9.297   7.620 -0.4461 -1.8383 -0.4382
45833SOL    HW249225   2.684   9.283   7.691 -0.2610  1.8025  0.8359
45834SOL     OW49226   1.977  11.636   2.895 -0.3359  0.1613  0.4097
45834SOL    HW149227   1.965  11.656   2.988 -2.1223 -0.2915  0.3004
45834SOL    HW249228   1.959  11.543   2.888 -1.0765  0.3693 -0.5365
45835SOL     OW49229   8.797   3.463   5.013 -0.5527  0.1032 -0.4111
45835SOL    HW149230   8.709   3.479   4.978 -0.8614 -2.1912 -0.8918
45835SOL    HW249231   8.784   3.395   5.079  0.6037  1.3442  1.1426
45836SOL     OW49232   8.981   9.322   5.011  0.3936 -0.4215 -0.9882
45836SOL    HW149233   9.028   9.400   5.040 -0.3521 -0.2245 -0.2701
45836SOL    HW249234   9.016   9.304   4.924  1.5779 -0.1123 -0.6000
45837SOL     OW49235  13.200   9.042   7.188 -0.7291 -0.5412 -0.3398
45837SOL    HW149236  13.285   9.061   7.150 -0.5850 -1.3547 -0.4273
45837SOL    HW249237  13.143   9.111   7.154  0.6227  2.2277  2.4909
45838SOL     OW49238  12.937  10.303  10.342  0.3030 -0.5322  0.2156
45838SOL    HW149239  13.012  10.287  10.399  0.5064  0.5399  0.2799
45838SOL    HW249240  12.961  10.263  10.258  1.3141  0.4870 -0.0077
45839SOL     OW49241  10.203   1.367   7.994  0.6248 -0.3435 -0.6673
45839SOL    HW149242  10.230   1.456   7.971  0.6206 -0.3937 -0.8684
45839SOL    HW249243  10.107   1.371   7.997  0.6459 -0.0816  0.3810
45840SOL     OW49244   5.770  13.420  12.360  0.3233  0.6795 -1.2148
45840SOL    HW149245   5.733  13.409  12.447  1.8968 -0.9622 -0.7037
45840SOL    HW249246   5.810  13.508  12.361  0.3022  0.6803 -0.2996
45841SOL     OW49247   2.735   2.581   0.268  0.3282  0.0624 -0.0116
45841SOL    HW149248   2.700   2.580   0.357 -1.4895  0.9429 -0.6477
45841SOL    HW249249   2.752   2.489   0.248  2.8976 -0.0042  1.9524
45842SOL     OW49250   8.356   8.904   9.265  0.2366  0.4767 -0.4123
45842SOL    HW149251   8.430   8.880   9.320  0.9842  3.0888 -0.1272
45842SOL    HW249252   8.371   8.996   9.244 -2.3027  0.7485 -1.3813
45843SOL     OW49253   3.279  10.544  12.359 -0.7463  0.0626  0.0941
45843SOL    HW149254   3.289  10.634  12.330 -2.3193 -0.6109 -2.9725
45843SOL    HW249255   3.189  10.538  12.391 -0.6743 -0.4242  0.2208
45844SOL     OW49256  12.775   2.908   1.018  0.2183 -0.1474 -0.5553
45844SOL    HW149257  12.711   2.977   1.029  1.1479  0.6170  0.2467
45844SOL    HW249258  12.859   2.954   1.014  1.1849 -1.3200  2.8883
45845SOL     OW49259  11.870   0.993  10.326 -0.2453  0.1258 -0.7906
45845SOL    HW149260  11.786   1.016  10.365 -0.5996 -0.0814 -1.4255
45845SOL    HW249261  11.854   0.992  10.232  0.6369  0.7690 -0.9585
45846SOL     OW49262  13.414   0.926   2.357  0.5082  0.1484  0.2524
45846SOL    HW149263  13.322   0.931   2.381  0.1685  0.0477 -0.9786
45846SOL    HW249264  13.440   0.836   2.377  0.2023  0.0335  0.1292
45847SOL     OW49265   6.434  11.234  10.893  0.3805  0.5452  0.5351
45847SOL    HW149266   6.441  11.252  10.800 -1.1918  0.7657  0.4228
45847SOL    HW249267   6.479  11.151  10.906 -1.9350 -1.0834 -1.0141
45848SOL     OW49268   2.729   0.673   6.733 -0.2614  0.2959  0.1634
45848SOL    HW149269   2.660   0.664   6.798 -0.7989  0.5745 -0.3619
45848SOL    HW249270   2.712   0.757   6.691 -1.2789 -0.8449 -1.8709
45849SOL     OW49271   4.472   1.815   6.077 -0.1319  0.3091 -0.3053
45849SOL    HW149272   4.491   1.799   6.169  1.8653  0.2019 -0.6862
45849SOL    HW249273   4.399   1.878   6.078  0.1393  0.6394  1.3379
45850SOL     OW49274   7.990  11.355   0.058  0.6924  0.3301 -0.1838
45850SOL    HW149275   7.906  11.308   0.062  0.6101  0.3626 -1.3480
45850SOL    HW249276   7.967  11.442   0.024  1.2634  0.1782 -0.9601
45851SOL     OW49277   6.168  10.960   6.650 -0.3171 -0.3867  0.0921
45851SOL    HW149278   6.233  10.951   6.719  1.3539  2.2127 -1.0046
45851SOL    HW249279   6.119  11.039   6.671 -1.7645 -1.1465 -0.2299
45852SOL     OW49280   8.763   4.430   7.197  0.3370 -0.1226  0.2162
45852SOL    HW149281   8.755   4.520   7.165  0.7269  0.8629  2.6339
45852SOL    HW249282   8.853   4.424   7.230  0.2814 -1.3709  0.2047
45853SOL     OW49283   8.726  12.506   9.448 -0.7392 -0.2346 -0.0873
45853SOL    HW149284   8.718  12.584   9.503 -0.6410 -0.0305 -0.3568
45853SOL    HW249285   8.645  12.458   9.463 -0.1180 -0.9019  1.3169
45854SOL     OW49286   3.840   6.093   8.579  0.8624 -0.4247 -0.1762
45854SOL    HW149287   3.896   6.016   8.593  2.5106  0.7976  0.3793
45854SOL    HW249288   3.902   6.165   8.568 -0.5206  0.3815 -4.0535
45855SOL     OW49289  10.909   6.121   7.491  0.2932  0.3991 -0.3799
45855SOL    HW149290  10.821   6.158   7.497 -0.2997 -0.8811 -0.8116
45855SOL    HW249291  10.930   6.096   7.581  0.3591  1.0209 -0.2198
45856SOL     OW49292   1.308  11.800   1.909 -0.2725 -0.0231 -0.4686
45856SOL    HW149293   1.390  11.850   1.915 -1.4124  2.3107 -2.3571
45856SOL    HW249294   1.274  11.798   1.998  1.3964 -0.2845  0.1960
45857SOL     OW49295   7.792   8.729  10.036  0.0933 -0.0245 -0.4459
45857SOL    HW149296   7.880   8.761  10.017  0.9582 -0.7372  1.9891
45857SOL    HW249297   7.798   8.692  10.125 -2.6749 -0.0228 -0.1603
45858SOL     OW49298   1.824  13.717   4.403  0.6975 -0.2060  0.4295
45858SOL    HW149299   1.835  13.778   4.476  0.7410 -0.3389  0.5326
45858SOL    HW249300   1.906  13.721   4.355  1.5281 -1.7988  1.6466
45859SOL     OW49301   9.534  13.274   0.240 -0.1585 -0.2165 -0.6961
45859SOL    HW149302   9.502  13.184   0.250  2.7842 -1.2220  1.0766
45859SOL    HW249303   9.593  13.270   0.165  1.1592 -0.2034  0.3048
45860SOL     OW49304   4.328  10.292   0.339  0.0556 -0.4891  0.3897
45860SOL    HW149305   4.320  10.284   0.434  0.4682  0.7102  0.5334
45860SOL    HW249306   4.385  10.219   0.314  0.3148 -0.5397  1.1085
45861SOL     OW49307   6.722  10.576   3.109  0.2583 -0.2128 -0.2472
45861SOL    HW149308   6.691  10.500   3.159  0.2675 -0.2879 -0.3545
45861SOL    HW249309   6.668  10.576   3.030  1.8856 -1.5616 -1.4356
45862SOL     OW49310   1.942  11.336   2.786  0.2965  0.3262 -0.1511
45862SOL    HW149311   1.872  11.329   2.721  0.0343 -0.0289  0.1639
45862SOL    HW249312   1.917  11.274   2.854  0.3719  0.9559  0.4645
45863SOL     OW49313  11.803   1.466  13.013 -0.0967 -0.7233  0.5168
45863SOL    HW149314  11.781   1.560  13.015  1.3223 -0.3747  0.5172
45863SOL    HW249315  11.829   1.450  12.923 -1.3795 -1.3933  0.2417
45864SOL     OW49316   4.530   6.117  13.346  0.1243 -0.3245 -0.0755
45864SOL    HW149317   4.605   6.175  13.353 -0.7880  0.7305  1.6469
45864SOL    HW249318   4.461   6.161  13.395 -1.1369 -2.0439 -0.2131
45865SOL     OW49319  10.305  11.833   3.891  0.1373 -0.1868 -0.0064
45865SOL    HW149320  10.351  11.889   3.953 -0.4720  0.0436  0.2534
45865SOL    HW249321  10.253  11.894   3.838  0.0832 -0.4436 -0.2538
45866SOL     OW49322   2.065   8.580  12.475 -0.0249  0.2178 -0.6270
45866SOL    HW149323   2.009   8.571  12.398 -1.1703  1.1827  0.0460
45866SOL    HW249324   2.033   8.659  12.518  1.6200  0.5843  0.0137
45867SOL     OW49325   4.374   4.224   6.482 -0.5295 -0.2462  0.1451
45867SOL    HW149326   4.449   4.284   6.475 -0.1315 -0.7579 -0.1191
45867SOL    HW249327   4.297   4.281   6.475 -0.1822  0.3620  1.0135
45868SOL     OW49328   6.042   0.398   2.757 -0.0471  0.2147 -0.0965
45868SOL    HW149329   5.959   0.409   2.710  0.4480 -1.6122 -1.4909
45868SOL    HW249330   6.100   0.355   2.694  1.7062  0.6605  1.1432
45869SOL     OW49331   5.024   2.854   8.116 -0.5019  0.0430 -0.9143
45869SOL    HW149332   5.026   2.803   8.035 -0.1702 -0.3932 -0.6344
45869SOL    HW249333   5.108   2.898   8.118 -1.1525  1.3660 -1.6301
45870SOL     OW49334  12.821  11.684   4.923  0.0142 -1.0490  0.1050
45870SOL    HW149335  12.841  11.605   4.974  0.0333 -1.5914 -0.7252
45870SOL    HW249336  12.756  11.655   4.859  0.7785 -0.6441 -0.8718
45871SOL     OW49337  10.412  12.201   9.308 -0.2059  0.6151 -0.2397
45871SOL    HW149338  10.447  12.270   9.252  0.1512 -0.2733 -1.1424
45871SOL    HW249339  10.317  12.206   9.297 -0.1958  1.0919 -0.1292
45872SOL     OW49340   0.279   0.385   0.868 -0.4081  0.1859  0.0143
45872SOL    HW149341   0.218   0.452   0.835 -0.7848 -0.8600 -1.4700
45872SOL    HW249342   0.250   0.304   0.828  0.9734 -0.6351  0.6128
45873SOL     OW49343   8.531   5.634   1.202  0.4449 -0.2942 -0.1273
45873SOL    HW149344   8.440   5.627   1.229  0.7626 -2.1978  0.5668
45873SOL    HW249345   8.539   5.724   1.168 -1.4958  0.1214  0.4055
45874SOL     OW49346   2.006   1.104  11.046 -0.1515  0.4943  0.0901
45874SOL    HW149347   2.059   1.171  11.001 -0.2696  1.0284  0.7253
45874SOL    HW249348   2.039   1.021  11.012  0.5946  0.8458 -0.0771
45875SOL     OW49349   3.569  13.423   0.496 -0.5977  0.3341 -0.3349
45875SOL    HW149350   3.522  13.456   0.573 -1.8459  0.1359 -0.9888
45875SOL    HW249351   3.526  13.465   0.422  1.4900  1.6317 -0.9000
45876SOL     OW49352   5.897  13.002  10.082 -0.1466  0.5118 -0.1113
45876SOL    HW149353   5.803  13.014  10.096  0.0268  1.0205  0.6654
45876SOL    HW249354   5.931  12.973  10.166  0.2675 -0.5398 -0.6188
45877SOL     OW49355  10.009   0.535   1.471 -0.0391 -0.4632 -0.0471
45877SOL    HW149356   9.992   0.456   1.420  2.4879 -1.4918  0.5598
45877SOL    HW249357  10.040   0.599   1.407 -1.8549  0.0063 -0.5025
45878SOL     OW49358   5.595  10.161   1.575  0.0418 -0.0896 -0.4436
45878SOL    HW149359   5.502  10.143   1.558 -0.6365 -0.8389  3.1781
45878SOL    HW249360   5.629  10.079   1.612  2.2625  0.1077 -1.8754
45879SOL     OW49361   0.181   0.025   8.756  0.2046 -0.8832 -0.2218
45879SOL    HW149362   0.243  -0.009   8.820  1.8477 -1.5969 -2.0917
45879SOL    HW249363   0.205   0.117   8.745 -0.4430 -0.6053  0.5340
45880SOL     OW49364   8.033   7.108   6.273 -0.0748  0.4020  0.3572
45880SOL    HW149365   7.961   7.052   6.303 -0.2560  1.0114  1.1065
45880SOL    HW249366   7.999   7.149   6.193 -1.8314  2.9625  2.2085
45881SOL     OW49367   2.207  12.223   9.186  0.5140 -0.4244  0.0641
45881SOL    HW149368   2.199  12.187   9.274  0.2953  0.4767  0.4318
45881SOL    HW249369   2.293  12.196   9.156  0.8107 -0.2883  0.7739
45882SOL     OW49370   9.362   0.338  11.444 -0.3288 -0.3585  0.1465
45882SOL    HW149371   9.433   0.299  11.495 -0.9647  0.1655  1.4818
45882SOL    HW249372   9.360   0.287  11.363  0.8586 -1.0732  0.5368
45883SOL     OW49373   5.893   0.037   4.626 -0.2424 -0.1979  0.5111
45883SOL    HW149374   5.979  -0.003   4.634  0.3441  0.8930 -0.1413
45883SOL    HW249375   5.848  -0.016   4.560 -0.3111 -1.1396  1.2923
45884SOL     OW49376   8.765   6.730  12.363 -0.8898  0.3179  0.2259
45884SOL    HW149377   8.741   6.753  12.452  0.5115  0.8542  0.4950
45884SOL    HW249378   8.724   6.798  12.308 -2.6245 -0.6031  0.3305
45885SOL     OW49379  12.487  12.053   4.120  0.7744  0.1988 -0.1091
45885SOL    HW149380  12.467  12.074   4.029  0.1946  0.3845  0.0547
45885SOL    HW249381  12.406  12.015   4.154  0.9553  0.2246  0.3551
45886SOL     OW49382   1.674  13.493  11.743 -0.7333 -0.1567  0.7187
45886SOL    HW149383   1.676  13.589  11.746  0.6468  0.0410 -2.6389
45886SOL    HW249384   1.581  13.471  11.736 -0.9883  1.0021  0.3300
45887SOL     OW49385   0.845   4.208   0.091 -0.3083 -0.3201  0.4746
45887SOL    HW149386   0.876   4.218   0.181  3.0551 -0.6883 -0.5042
45887SOL    HW249387   0.919   4.171   0.044 -2.8656 -2.8797 -1.9330
45888SOL     OW49388   7.254   8.817   2.273  0.4115  0.1009  0.7606
45888SOL    HW149389   7.254   8.911   2.254  1.6139 -0.2889 -1.3980
45888SOL    HW249390   7.331   8.804   2.329  0.4869  0.3249  0.7101
45889SOL     OW49391  10.933   8.860   5.869  0.6977 -0.6279 -0.3568
45889SOL    HW149392  10.992   8.926   5.832  1.2752 -1.6848 -1.4131
45889SOL    HW249393  10.943   8.868   5.963  0.5377  0.9774 -0.4539
45890SOL     OW49394   9.174  11.255   2.059  0.3137  0.6854  0.5029
45890SOL    HW149395   9.162  11.348   2.081 -0.7830  0.4737  0.8634
45890SOL    HW249396   9.180  11.254   1.964 -0.0541  1.0989  0.4674
45891SOL     OW49397  10.168   8.508   2.372 -0.2795 -0.0011 -0.4580
45891SOL    HW149398  10.079   8.483   2.347  0.2386 -2.4422 -0.0645
45891SOL    HW249399  10.203   8.553   2.295 -1.3701 -0.2837 -1.1325
45892SOL     OW49400   1.739  11.424   1.302 -0.3779  0.1988 -0.0753
45892SOL    HW149401   1.726  11.510   1.262 -1.4541  0.6038  1.0585
45892SOL    HW249402   1.825  11.430   1.344 -0.1019  0.4400 -0.6651
45893SOL     OW49403  12.449  12.543   2.807 -0.2726 -0.1458 -0.2622
45893SOL    HW149404  12.509  12.521   2.878 -1.3161 -0.9833  0.3794
45893SOL    HW249405  12.485  12.498   2.730  0.0440 -0.4493  0.0613
45894SOL     OW49406   2.786   4.178   1.039 -0.4374  0.2045 -0.3922
45894SOL    HW149407   2.720   4.242   1.067  0.3957  0.6086  0.7177
45894SOL    HW249408   2.863   4.198   1.091 -0.7240 -2.9165  1.5463
45895SOL     OW49409  10.210   7.714   0.744 -0.0022 -0.7125  0.2391
45895SOL    HW149410  10.155   7.748   0.814 -0.6965 -2.7925  0.7815
45895SOL    HW249411  10.228   7.624   0.770  3.7178 -0.1688  0.1055
45896SOL     OW49412  13.659   4.841   9.837  0.4895 -0.6860 -0.7927
45896SOL    HW149413  13.629   4.760   9.794 -0.8725  0.3640 -1.9077
45896SOL    HW249414  13.671   4.816   9.929 -0.5196 -2.0171 -0.9889
45897SOL     OW49415   1.658   4.954   6.451 -0.2918 -0.2057  0.3589
45897SOL    HW149416   1.710   4.938   6.530  0.7139  0.4854 -0.1510
45897SOL    HW249417   1.616   5.039   6.466  0.6714  0.3862 -0.2438
45898SOL     OW49418  12.400   7.809   5.591 -0.7176  0.0789  1.1457
45898SOL    HW149419  12.441   7.731   5.554 -1.8335 -0.7802  1.6706
45898SOL    HW249420  12.401   7.872   5.519 -0.3665 -0.6294  0.5120
45899SOL     OW49421   9.796  13.082   8.722 -0.2930 -0.3452  0.3854
45899SOL    HW149422   9.804  13.101   8.816 -3.5135 -0.2673  0.7451
45899SOL    HW249423   9.780  12.987   8.719  0.6289 -0.4957 -0.1923
45900SOL     OW49424   7.049   2.751  13.169  0.1176  0.2072 -0.3200
45900SOL    HW149425   7.069   2.691  13.097 -0.0252 -0.8803  0.5205
45900SOL    HW249426   7.119   2.816  13.167  1.5901 -1.3029  0.1543
45901SOL     OW49427   6.912   7.702   9.505  0.1918  0.6684 -0.2799
45901SOL    HW149428   6.846   7.759   9.467 -1.5630 -0.8503  0.3023
45901SOL    HW249429   6.924   7.632   9.441 -1.9217 -1.2771  1.2788
45902SOL     OW49430   4.150  12.242  13.570  0.4569 -0.1749  0.5288
45902SOL    HW149431   4.068  12.194  13.580 -0.3900  0.8853 -0.8309
45902SOL    HW249432   4.132  12.305  13.500  2.5939 -0.2358 -0.1433
45903SOL     OW49433  13.022   0.338   7.616  0.5944 -0.2293  0.0623
45903SOL    HW149434  12.942   0.286   7.613  0.7680 -0.4824 -0.1937
45903SOL    HW249435  13.039   0.351   7.710  0.1773 -0.0521  0.1167
45904SOL     OW49436   6.832   9.600   8.986 -0.7745 -0.2422  0.2936
45904SOL    HW149437   6.836   9.676   9.043 -0.3981  1.2227 -1.5894
45904SOL    HW249438   6.906   9.546   9.012  0.7355  1.4903 -0.2236
45905SOL     OW49439   6.689   5.405  11.569  0.1120  0.3831  0.0209
45905SOL    HW149440   6.738   5.402  11.486 -0.0128 -1.0048 -0.0203
45905SOL    HW249441   6.647   5.491  11.568 -0.6188  0.0518 -1.8001
45906SOL     OW49442   4.307   9.796   4.632  0.1595 -0.1162  0.2697
45906SOL    HW149443   4.346   9.823   4.549  0.3369 -0.1400  0.3432
45906SOL    HW249444   4.353   9.850   4.698 -1.9128  1.9693  0.1319
45907SOL     OW49445   9.208   7.032   1.308 -0.1962 -1.0225 -0.0739
45907SOL    HW149446   9.138   6.991   1.258 -0.4076 -1.2661  0.4115
45907SOL    HW249447   9.187   7.126   1.306 -0.6383 -1.1115  0.2129
45908SOL     OW49448   9.431   3.249  13.100 -0.2564 -0.3415  0.8153
45908SOL    HW149449   9.505   3.278  13.153 -1.2106  0.6502  1.6455
45908SOL    HW249450   9.359   3.238  13.162 -0.2772 -3.6048  0.4109
45909SOL     OW49451   7.424   7.909   8.193 -0.8356  0.6350 -0.1469
45909SOL    HW149452   7.422   7.822   8.152 -0.9384  1.6156 -2.3540
45909SOL    HW249453   7.516   7.922   8.215 -0.8664 -0.1536  0.4766
45910SOL     OW49454   7.480  13.605  12.259  0.2277 -0.2773  0.7526
45910SOL    HW149455   7.407  13.558  12.218 -0.6099  0.9442  0.7506
45910SOL    HW249456   7.540  13.537  12.288 -1.0793 -1.3518  1.0562
45911SOL     OW49457   7.682   5.894  13.156  0.5312 -0.4984 -0.2565
45911SOL    HW149458   7.716   5.965  13.210 -1.5073  0.1964  0.2308
45911SOL    HW249459   7.623   5.846  13.214  1.3866 -2.2381 -0.7662
45912SOL     OW49460  10.470   1.834   7.796  0.7373  0.2647 -0.4583
45912SOL    HW149461  10.387   1.846   7.749  0.9479 -1.2062 -1.2916
45912SOL    HW249462  10.471   1.903   7.861 -1.4511 -0.0376 -0.0073
45913SOL     OW49463   4.854   3.732   7.143 -0.4444  0.0275 -0.2010
45913SOL    HW149464   4.899   3.670   7.086 -0.8994  0.1855 -0.7437
45913SOL    HW249465   4.922   3.794   7.170  0.1173 -0.9584  0.7267
45914SOL     OW49466   1.020   5.689   0.793  0.0650 -0.2704  0.0191
45914SOL    HW149467   0.958   5.754   0.759 -1.8715 -1.7732  0.4672
45914SOL    HW249468   1.090   5.685   0.728 -0.4077  1.3453 -0.6268
45915SOL     OW49469   2.396  11.779   4.173  0.0370  0.7738  0.3627
45915SOL    HW149470   2.383  11.710   4.107 -1.6284 -0.1479  1.5941
45915SOL    HW249471   2.486  11.808   4.159  0.9975 -2.0068  0.1202
45916SOL     OW49472  12.959  11.229   1.364 -0.3088 -0.1121 -0.1490
45916SOL    HW149473  12.973  11.317   1.401  1.4333 -0.7046  0.7519
45916SOL    HW249474  12.962  11.242   1.270 -0.4465  0.8570 -0.0325
45917SOL     OW49475  12.516  12.293  10.209 -0.3574 -0.4882  0.3814
45917SOL    HW149476  12.552  12.293  10.298 -0.3403 -0.3304  0.3753
45917SOL    HW249477  12.464  12.214  10.204  0.6700 -1.1654  0.1124
45918SOL     OW49478   9.857   7.767   2.267  0.4256  0.6088  1.0926
45918SOL    HW149479   9.881   7.678   2.243  0.6922  1.0111 -0.2213
45918SOL    HW249480   9.805   7.757   2.347  0.2909 -0.7344  0.8637
45919SOL     OW49481  10.676   4.694   2.975  0.1871 -0.4072  0.0121
45919SOL    HW149482  10.609   4.665   2.914  1.1809  0.0864 -1.3669
45919SOL    HW249483  10.727   4.615   2.994 -0.4876 -0.6834  0.6847
45920SOL     OW49484   7.534   0.843  12.344  0.2340  0.7654  0.1419
45920SOL    HW149485   7.450   0.820  12.304  0.6904 -4.8928  1.5764
45920SOL    HW249486   7.515   0.853  12.437  1.0158 -0.7799  0.5180
45921SOL     OW49487   8.818   2.808  11.166  0.2765 -0.1951 -0.6195
45921SOL    HW149488   8.789   2.763  11.245  0.0964  0.3825 -0.3509
45921SOL    HW249489   8.882   2.872  11.198 -0.8958  1.0789 -0.7361
45922SOL     OW49490   6.334   8.400   2.579  0.4720  0.1422 -0.5558
45922SOL    HW149491   6.270   8.336   2.549  1.1642 -0.6433 -0.3791
45922SOL    HW249492   6.333   8.393   2.674  2.2923 -1.3994 -0.5786
45923SOL     OW49493  13.031   9.763   6.483 -0.1599 -0.3608 -0.4780
45923SOL    HW149494  13.078   9.846   6.494 -0.7717 -0.1020  0.2640
45923SOL    HW249495  12.964   9.764   6.552 -0.3043 -1.3819 -0.5940
45924SOL     OW49496   9.782   8.859   8.473  0.1247  0.0695 -0.4462
45924SOL    HW149497   9.691   8.871   8.444  0.3220 -0.7122 -1.4439
45924SOL    HW249498   9.776   8.854   8.568 -0.8901 -0.0714 -0.5013
45925SOL     OW49499   8.986  12.474  12.011 -0.0005 -0.3532  0.5898
45925SOL    HW149500   8.984  12.409  12.080 -1.1635 -0.5725  0.3628
45925SOL    HW249501   9.037  12.433  11.941  0.9891 -0.2150  1.2019
45926SOL     OW49502   1.513   4.153   8.053  0.9577 -0.2103  0.3824
45926SOL    HW149503   1.560   4.189   7.977  0.3327  0.5323  0.3355
45926SOL    HW249504   1.426   4.192   8.047  0.2794 -1.6691  0.3907
45927SOL     OW49505  12.917   6.719   5.533  0.1752  0.0441 -0.3935
45927SOL    HW149506  12.897   6.696   5.443  0.4535  1.3387 -0.8128
45927SOL    HW249507  12.971   6.647   5.566 -0.7841 -0.9300 -0.9177
45928SOL     OW49508   5.526   5.269  11.555 -0.1449  0.0239 -0.0655
45928SOL    HW149509   5.476   5.195  11.520 -0.3267  0.3934 -0.6064
45928SOL    HW249510   5.572   5.304  11.479 -1.1889  1.3398 -0.1268
45929SOL     OW49511  10.333   5.250  10.181 -0.0247 -0.0621 -0.3666
45929SOL    HW149512  10.263   5.308  10.210  0.8440  2.1371 -2.3250
45929SOL    HW249513  10.351   5.194  10.256 -1.5300  1.6290  1.3493
45930SOL     OW49514   5.858   0.679   3.538  0.4414 -0.3207 -0.0440
45930SOL    HW149515   5.787   0.690   3.602 -0.5337 -2.0925 -0.7452
45930SOL    HW249516   5.816   0.636   3.464  1.8613  0.4181 -1.3252
45931SOL     OW49517  11.856  11.266  12.497 -0.3669  0.2527 -0.1340
45931SOL    HW149518  11.919  11.236  12.562 -0.2714  1.0096  0.1255
45931SOL    HW249519  11.803  11.331  12.543 -2.3055 -1.3782  0.1230
45932SOL     OW49520   5.186   2.749   5.361  0.1799  0.4058  0.0273
45932SOL    HW149521   5.218   2.681   5.421 -1.0307 -0.7417 -0.5732
45932SOL    HW249522   5.101   2.716   5.331  0.1176  1.6267 -1.2217
45933SOL     OW49523   0.752   8.504  10.706  0.2031  0.5235  0.3910
45933SOL    HW149524   0.777   8.587  10.666 -0.7069  0.9425  0.6380
45933SOL    HW249525   0.656   8.507  10.708  0.1488 -0.6077  0.2642
45934SOL     OW49526   1.804   3.738   1.939  0.6982 -0.6017  0.9759
45934SOL    HW149527   1.844   3.675   1.999 -1.8314 -0.7169  2.7161
45934SOL    HW249528   1.829   3.824   1.975 -0.1057 -0.6697  1.7337
45935SOL     OW49529   3.789   2.106   9.327 -0.0199  0.5914  0.0796
45935SOL    HW149530   3.769   2.061   9.409 -2.6533  1.0015 -0.2448
45935SOL    HW249531   3.758   2.045   9.259  0.3867  1.0542 -0.5239
45936SOL     OW49532  12.340   4.450   1.220  0.0197  0.1960 -0.4417
45936SOL    HW149533  12.380   4.367   1.245 -0.6671 -0.7683 -2.3608
45936SOL    HW249534  12.356   4.458   1.126 -1.5151  1.3158 -0.6619
45937SOL     OW49535   7.228  13.034   4.244 -0.4006  0.2155 -0.2709
45937SOL    HW149536   7.217  12.993   4.330  1.2561 -0.4284 -0.3282
45937SOL    HW249537   7.237  12.960   4.184 -0.2871  0.6744 -0.8243
45938SOL     OW49538  13.320  12.603   4.425  0.3033  0.0692  0.1175
45938SOL    HW149539  13.414  12.585   4.417  0.6338  1.5001  0.5285
45938SOL    HW249540  13.279  12.517   4.417  1.7443 -0.8158  1.5509
45939SOL     OW49541   6.592   1.597  11.782 -0.2215  0.0462  0.0965
45939SOL    HW149542   6.630   1.641  11.858  1.3734  0.5001 -0.9183
45939SOL    HW249543   6.516   1.551  11.817 -0.3415  1.3548  1.7056
45940SOL     OW49544   1.190  13.592   7.688 -0.3057 -0.3273  0.3484
45940SOL    HW149545   1.102  13.564   7.664 -0.7765  0.8748  0.5447
45940SOL    HW249546   1.225  13.633   7.609 -0.7375  1.0246  0.8232
45941SOL     OW49547   9.912   7.844   1.889  0.0447  0.0960  0.7232
45941SOL    HW149548   9.832   7.856   1.940  0.3702  1.0750  1.0199
45941SOL    HW249549   9.909   7.913   1.822 -0.6209 -1.4669 -0.9435
45942SOL     OW49550   7.874   1.438   6.455 -0.0813 -0.4681  0.3800
45942SOL    HW149551   7.913   1.373   6.512 -0.7061 -1.7457 -0.5879
45942SOL    HW249552   7.944   1.461   6.393  0.1925 -0.0789  0.8302
45943SOL     OW49553  10.763   0.141  12.961 -0.3193  0.1239 -0.0321
45943SOL    HW149554  10.722   0.203  12.901 -2.1190  0.2869  1.2790
45943SOL    HW249555  10.733   0.169  13.048  1.0326 -0.9664  0.8181
45944SOL     OW49556   9.299   7.896   5.250  0.1552 -0.0175 -0.2095
45944SOL    HW149557   9.358   7.866   5.320 -0.7703 -0.3891  0.4309
45944SOL    HW249558   9.225   7.836   5.254 -0.1372  0.2636 -1.2051
45945SOL     OW49559   2.462   7.586   8.884 -0.5818 -0.2817  0.1480
45945SOL    HW149560   2.552   7.618   8.891 -1.4064  2.0857  0.8338
45945SOL    HW249561   2.408   7.658   8.917 -2.6969 -1.9371  0.5339
45946SOL     OW49562   7.777  13.224  10.941 -0.3861 -0.0944 -0.3871
45946SOL    HW149563   7.713  13.277  10.894  1.4233  0.9845 -1.7573
45946SOL    HW249564   7.816  13.285  11.005  0.7864 -0.0969 -1.0756
45947SOL     OW49565   0.934   5.719   3.240  0.3926 -0.2656  1.1453
45947SOL    HW149566   0.888   5.727   3.156  2.9487  1.2601 -0.2415
45947SOL    HW249567   0.914   5.630   3.270  1.0901 -1.7031 -2.2057
45948SOL     OW49568   2.678   6.807   1.898  0.2981 -0.2677  0.1279
45948SOL    HW149569   2.720   6.725   1.872  1.2431  0.8111 -2.0658
45948SOL    HW249570   2.746   6.874   1.883 -1.7101  1.3968 -2.3120
45949SOL     OW49571   5.154  13.270   8.171  0.3957 -0.4067  0.3003
45949SOL    HW149572   5.083  13.325   8.136  0.3759  0.5681  1.7965
45949SOL    HW249573   5.115  13.183   8.179  0.1767 -0.4904 -1.3311
45950SOL     OW49574   7.534   9.970  10.151  0.3258  0.3974  0.1014
45950SOL    HW149575   7.548   9.890  10.101  2.2447  0.6200  0.2171
45950SOL    HW249576   7.463   9.949  10.211  0.1782 -0.9068 -0.5014
45951SOL     OW49577   4.022  10.138  10.099 -0.6809  0.7008  0.1275
45951SOL    HW149578   3.930  10.121  10.077 -1.4372  1.7123  2.2556
45951SOL    HW249579   4.060  10.170  10.017 -2.5228  1.3979 -0.5148
45952SOL     OW49580   6.095  10.053   3.991  0.0264 -0.5326  0.1821
45952SOL    HW149581   6.126  10.041   4.081  1.3425  0.7140 -0.0668
45952SOL    HW249582   6.016  10.107   4.001 -1.0918 -2.1723  0.6909
45953SOL     OW49583  13.252   7.541   1.008 -0.3959  0.1995 -0.0684
45953SOL    HW149584  13.293   7.595   0.940 -0.1633  0.3869  0.2192
45953SOL    HW249585  13.310   7.465   1.016  1.0282  1.3823  1.7271
45954SOL     OW49586  13.218  11.125   1.480  0.2575  0.0829  0.1243
45954SOL    HW149587  13.130  11.115   1.443 -0.6020 -1.5108  2.3747
45954SOL    HW249588  13.202  11.145   1.572  2.2211 -2.2959  1.0650
45955SOL     OW49589   0.611  13.214  11.338  0.1019 -0.5019  0.0521
45955SOL    HW149590   0.645  13.149  11.400  1.2105 -0.3153 -0.3392
45955SOL    HW249591   0.550  13.165  11.283  1.1550 -1.2948 -0.4336
45956SOL     OW49592   0.165   1.564   3.652 -0.0265 -0.2254  0.0669
45956SOL    HW149593   0.192   1.595   3.738 -0.7123 -0.2883  0.3116
45956SOL    HW249594   0.194   1.633   3.591  0.7837 -0.3569  0.2971
45957SOL     OW49595   6.956   2.593  13.527 -0.1492 -0.5320 -0.1697
45957SOL    HW149596   6.972   2.687  13.518 -0.1950 -0.5687 -0.6475
45957SOL    HW249597   7.039   2.558  13.560 -0.2987 -0.2525  0.5104
45958SOL     OW49598  10.246  11.151   5.385  0.4162  0.3136 -0.2366
45958SOL    HW149599  10.153  11.144   5.405 -0.4171  0.5242 -3.5581
45958SOL    HW249600  10.275  11.228   5.434 -1.4504  1.0026 -0.1428
45959SOL     OW49601   0.241   2.227  11.506  0.1354  0.1727 -0.1977
45959SOL    HW149602   0.184   2.249  11.580 -0.2865  0.1994 -0.5201
45959SOL    HW249603   0.245   2.131  11.506 -0.9157  0.1098 -0.8952
45960SOL     OW49604   5.397  12.548  13.728 -0.3141 -0.3425  0.6145
45960SOL    HW149605   5.472  12.583  13.681  0.3214 -0.7979  1.2698
45960SOL    HW249606   5.398  12.594  13.812 -1.0129 -0.0593  0.4763
45961SOL     OW49607   4.619  12.307  10.153  0.0196  0.0593  0.3869
45961SOL    HW149608   4.597  12.394  10.119 -0.8857  0.5104  2.0441
45961SOL    HW249609   4.661  12.323  10.237 -1.7305 -1.1440  1.5408
45962SOL     OW49610   0.813   3.767   5.915 -0.5757  0.1032 -0.3035
45962SOL    HW149611   0.773   3.845   5.956 -0.7801 -0.8255  1.3631
45962SOL    HW249612   0.899   3.797   5.887 -1.4630  1.4935 -1.7012
45963SOL     OW49613   6.531  10.985   7.034 -0.1249  0.3315 -0.3568
45963SOL    HW149614   6.572  11.039   6.966  1.0069  2.1003  1.5798
45963SOL    HW249615   6.560  11.026   7.116 -2.2142 -1.1048  1.1776
45964SOL     OW49616   8.080   5.350   9.028  0.0301  0.4113  0.1819
45964SOL    HW149617   8.167   5.390   9.039  0.0943  0.4659 -0.4960
45964SOL    HW249618   8.089   5.263   9.068  0.4587  0.3378 -0.0659
45965SOL     OW49619   2.322   4.010   2.166 -0.0941  0.3440  0.2858
45965SOL    HW149620   2.259   3.939   2.171 -0.1413  0.3806  0.2151
45965SOL    HW249621   2.366   3.997   2.082 -0.1982  0.4788  0.2096
45966SOL     OW49622   7.898   7.789  11.435  0.0913 -0.0231  0.0138
45966SOL    HW149623   7.896   7.748  11.521 -0.3195  0.6056  0.3097
45966SOL    HW249624   7.991   7.801  11.416  0.1898 -0.4071  0.2520
45967SOL     OW49625   7.425  11.094   4.482  0.2769  0.5252  0.4565
45967SOL    HW149626   7.454  11.185   4.473 -0.1420  0.5625 -0.7414
45967SOL    HW249627   7.491  11.043   4.434 -0.8577  0.4844 -1.1442
45968SOL     OW49628   3.077   7.264   8.393 -0.5749  0.3970  0.2651
45968SOL    HW149629   3.038   7.220   8.317 -0.8417  0.0039  0.6267
45968SOL    HW249630   3.087   7.194   8.458 -2.7939  1.2073  1.5794
45969SOL     OW49631   1.473  10.851  12.260 -0.5311  0.2783  0.3608
45969SOL    HW149632   1.432  10.768  12.285 -1.0866  0.5322  0.3178
45969SOL    HW249633   1.484  10.898  12.343  0.3541 -0.0859  0.4561
45970SOL     OW49634   4.501   1.384   1.396  0.3428  0.2008  0.0708
45970SOL    HW149635   4.496   1.291   1.374  1.1136 -0.3547  2.0139
45970SOL    HW249636   4.570   1.419   1.340 -1.3628  0.1421 -2.2025
45971SOL     OW49637   8.434   2.136  13.363  0.3945  0.4897  0.2737
45971SOL    HW149638   8.419   2.045  13.388 -0.0797  0.0197 -1.5654
45971SOL    HW249639   8.446   2.182  13.446 -0.1254 -1.1031  1.2790
45972SOL     OW49640  11.648  10.987   5.213  0.1546  0.0073  0.0390
45972SOL    HW149641  11.573  10.945   5.170 -0.3709 -0.9037  1.7318
45972SOL    HW249642  11.649  10.949   5.301  0.8385  2.1749  1.0343
45973SOL     OW49643   6.505   1.727  12.582 -0.1325  0.0847 -0.8320
45973SOL    HW149644   6.518   1.690  12.495 -0.8994  0.0994 -0.9573
45973SOL    HW249645   6.588   1.711  12.627 -0.8042 -2.8758 -0.4794
45974SOL     OW49646   5.705   5.359   2.691 -0.1224 -0.6340 -0.6347
45974SOL    HW149647   5.627   5.402   2.657 -0.6728 -1.1225 -0.0117
45974SOL    HW249648   5.741   5.422   2.753  0.2083 -0.2466 -1.2040
45975SOL     OW49649   6.478   8.731   4.880  0.4607 -0.1364 -0.3903
45975SOL    HW149650   6.573   8.741   4.886  0.3322  0.6750  0.5472
45975SOL    HW249651   6.453   8.781   4.802  0.7198  0.2894 -0.2029
45976SOL     OW49652  11.879   5.001   8.043  0.2558 -0.1461  0.1819
45976SOL    HW149653  11.800   4.950   8.064 -0.9466  0.9674 -1.3868
45976SOL    HW249654  11.847   5.090   8.031  1.5647  0.1383 -1.5658
45977SOL     OW49655   5.851   6.569   5.265  0.1446 -0.1713 -0.3577
45977SOL    HW149656   5.939   6.530   5.269  0.3456  0.0277 -1.9412
45977SOL    HW249657   5.796   6.499   5.229 -0.2661 -0.1551  0.2261
45978SOL     OW49658  12.100   0.842  13.088  0.0316  0.3924 -0.2335
45978SOL    HW149659  12.052   0.876  13.163  1.3867  1.0071  0.3779
45978SOL    HW249660  12.147   0.918  13.053  1.7761 -0.4630  0.1349
45979SOL     OW49661   9.555  13.212   0.604 -0.0147 -0.1176  0.6648
45979SOL    HW149662   9.533  13.126   0.568  1.2170 -1.0054  1.9353
45979SOL    HW249663   9.473  13.243   0.644 -1.0262  0.2725 -1.5666
45980SOL     OW49664   9.899   2.324   2.714  0.0657 -0.3468  0.0133
45980SOL    HW149665   9.941   2.265   2.776  0.1133  0.6386  0.9435
45980SOL    HW249666   9.808   2.326   2.741 -0.1501 -0.7790 -0.6541
45981SOL     OW49667  13.233  10.621  13.075  0.1188 -0.0797  0.5636
45981SOL    HW149668  13.299  10.654  13.137 -1.1391 -0.1353  1.9885
45981SOL    HW249669  13.168  10.691  13.069 -0.5859 -0.7206  0.5570
45982SOL     OW49670   3.510   1.896   7.827  0.1913  0.0518  0.3622
45982SOL    HW149671   3.560   1.842   7.889  0.5868  0.7803  0.6930
45982SOL    HW249672   3.454   1.834   7.781  0.7630 -0.6645  0.6100
45983SOL     OW49673   8.314   4.974  11.014 -0.0537 -0.7332  0.0649
45983SOL    HW149674   8.271   5.023  11.085  1.3709  1.8154 -0.7061
45983SOL    HW249675   8.254   4.982  10.940  2.0065  4.1857 -1.5005
45984SOL     OW49676   4.697   4.147  10.674 -0.6630 -0.0673  0.7074
45984SOL    HW149677   4.776   4.102  10.704  0.6694  2.4498  1.2694
45984SOL    HW249678   4.722   4.188  10.592 -1.5485  0.3093  0.6105
45985SOL     OW49679   3.017   9.271   0.995  0.1349  0.2263  0.0032
45985SOL    HW149680   3.045   9.206   0.931  0.0260  0.2854 -0.1055
45985SOL    HW249681   3.099   9.312   1.024  0.2462 -0.3011  0.4480
45986SOL     OW49682  12.096   5.850  10.852  0.0686 -0.2546 -0.2851
45986SOL    HW149683  12.053   5.807  10.926 -2.1595  2.8814  0.4915
45986SOL    HW249684  12.061   5.806  10.775 -0.5712 -1.1083  0.4691
45987SOL     OW49685  13.158  13.250  10.881  0.0403  0.0650  0.4027
45987SOL    HW149686  13.066  13.274  10.866  0.3874  0.3701 -1.4851
45987SOL    HW249687  13.185  13.305  10.954 -0.5138  2.1023 -0.8447
45988SOL     OW49688  10.802  10.106  10.293  0.3990 -0.2721 -0.6462
45988SOL    HW149689  10.727  10.151  10.332  1.7407  0.0200  1.7912
45988SOL    HW249690  10.786  10.111  10.199 -2.6623 -0.3219 -0.2426
45989SOL     OW49691   5.650  12.597  12.949 -0.3084 -0.5391 -0.1776
45989SOL    HW149692   5.704  12.524  12.919  0.3344 -0.1420 -0.0139
45989SOL    HW249693   5.712  12.656  12.992 -0.4645  1.1064 -2.0859
45990SOL     OW49694   9.897   3.788   9.330 -0.1958  0.5615  0.6868
45990SOL    HW149695   9.898   3.883   9.331 -1.5403  0.6548 -1.3269
45990SOL    HW249696   9.807   3.764   9.352 -0.8966 -0.0436 -2.4225
45991SOL     OW49697   3.901  12.093  13.593 -0.3049 -0.1413  0.0755
45991SOL    HW149698   3.814  12.129  13.608 -0.4254 -0.1202 -0.6795
45991SOL    HW249699   3.922  12.046  13.675 -0.7163  0.4592  0.5294
45992SOL     OW49700   8.239   6.209   7.835  0.0619  0.0362  0.6258
45992SOL    HW149701   8.293   6.196   7.913  1.5646 -0.3144 -0.4207
45992SOL    HW249702   8.301   6.234   7.767 -1.2970  1.0121 -0.3117
45993SOL     OW49703   2.633   4.342  12.565  0.1923 -0.5703  0.5259
45993SOL    HW149704   2.663   4.292  12.489 -0.5190  0.8835 -0.7846
45993SOL    HW249705   2.599   4.423  12.527 -0.2459  0.1703  2.4181
45994SOL     OW49706  10.032   9.482  11.908  0.0169 -0.3577 -0.5356
45994SOL    HW149707  10.032   9.542  11.833  0.9101  1.8542  1.1415
45994SOL    HW249708  10.019   9.539  11.984 -0.1467 -2.4542  1.0729
45995SOL     OW49709   8.509  12.781   1.981  0.6694  0.1774  0.1258
45995SOL    HW149710   8.429  12.802   2.028  0.9640 -0.3752  0.8872
45995SOL    HW249711   8.496  12.691   1.950  0.7088  0.3367 -0.3688
45996SOL     OW49712   8.872   9.001  11.327 -0.4105  0.1825 -0.5860
45996SOL    HW149713   8.820   8.940  11.380  1.6558 -0.8768  0.3430
45996SOL    HW249714   8.943   8.948  11.292  0.8696  1.8479 -0.6459
45997SOL     OW49715   9.015   5.538   2.902 -0.9599  0.1507  0.4104
45997SOL    HW149716   8.999   5.470   2.967  0.3925  0.5262  1.1807
45997SOL    HW249717   8.973   5.505   2.822  0.5658 -2.1389  0.4395
45998SOL     OW49718  10.931  11.204   6.850  0.3486  0.3509  0.5361
45998SOL    HW149719  10.846  11.160   6.854  1.1264 -1.1919  0.9581
45998SOL    HW249720  10.946  11.235   6.940 -0.0312  1.1878  0.3219
45999SOL     OW49721  10.700   0.315   0.308  0.0638 -0.4292 -0.1506
45999SOL    HW149722  10.778   0.321   0.364 -0.9772  0.9444  1.2234
45999SOL    HW249723  10.682   0.221   0.303  1.1711 -0.6890  0.4237
46000SOL     OW49724  10.133   2.072   9.764 -0.5590  0.2754 -0.1007
46000SOL    HW149725  10.207   2.037   9.814 -0.6672  0.7483  0.4058
46000SOL    HW249726  10.057   2.024   9.795 -0.8576  1.5510  1.2832
46001SOL     OW49727   8.731   1.746   6.841 -0.3058  0.2311  0.2365
46001SOL    HW149728   8.810   1.797   6.860 -0.0146 -0.8266  2.2554
46001SOL    HW249729   8.762   1.674   6.786 -0.6121  1.8053 -2.1123
46002SOL     OW49730   0.397   8.123   7.990 -0.2613  0.3039 -0.0646
46002SOL    HW149731   0.456   8.155   7.922  0.9105  1.3083  1.3559
46002SOL    HW249732   0.363   8.040   7.955  1.5317 -0.0217 -1.2064
46003SOL     OW49733   5.756   2.189  12.200 -0.0923 -0.2372  0.3004
46003SOL    HW149734   5.806   2.153  12.274  1.2693  0.4598 -0.2512
46003SOL    HW249735   5.727   2.275  12.230 -0.4579 -0.3883  0.3930
46004SOL     OW49736  13.455   8.960  11.438 -0.2652 -0.6203  0.5757
46004SOL    HW149737  13.386   8.901  11.468 -0.0704  0.2099  2.8290
46004SOL    HW249738  13.408   9.027  11.387 -1.3187  0.3752  2.7270
46005SOL     OW49739   4.386   6.832   7.389 -0.3151 -0.1441 -0.4854
46005SOL    HW149740   4.390   6.752   7.441  1.3356  0.3263  0.1827
46005SOL    HW249741   4.303   6.873   7.415 -0.8128 -1.2375 -0.2741
46006SOL     OW49742   7.097   7.281   3.002 -0.2213 -0.8332 -0.4304
46006SOL    HW149743   7.014   7.322   2.978  0.1039 -0.5602 -1.1175
46006SOL    HW249744   7.160   7.315   2.938  0.4489 -0.9323  0.1606
46007SOL     OW49745  12.012  12.246   5.435  0.1419 -0.2012 -0.4503
46007SOL    HW149746  11.971  12.247   5.349  0.3375  0.3802 -0.5405
46007SOL    HW249747  12.047  12.334   5.446  0.6771 -0.4548 -0.0456
46008SOL     OW49748   7.263  10.756   2.798 -0.0976 -0.1499 -0.3453
46008SOL    HW149749   7.197  10.751   2.867  1.4097 -0.5082  1.1269
46008SOL    HW249750   7.219  10.801   2.726 -1.4449  1.0980  1.1838
46009SOL     OW49751   7.931   1.880   8.827  0.2109 -0.2210  0.3487
46009SOL    HW149752   7.900   1.965   8.859 -0.8462 -0.5463  0.2166
46009SOL    HW249753   8.007   1.861   8.882  0.8857  1.1157 -0.0744
46010SOL     OW49754  12.874   4.855  13.155  0.2818 -0.4578  0.5801
46010SOL    HW149755  12.809   4.921  13.178  1.7095  1.3167 -0.2238
46010SOL    HW249756  12.825   4.786  13.110 -0.9256  1.2824 -0.8974
46011SOL     OW49757   8.365   5.127  13.602  0.0720  0.4070  0.5882
46011SOL    HW149758   8.335   5.089  13.685 -0.3696  0.1128  0.3011
46011SOL    HW249759   8.335   5.065  13.535  3.8597 -1.4913  0.4271
46012SOL     OW49760   1.760   9.120   8.730  0.1190 -0.4435 -0.0459
46012SOL    HW149761   1.854   9.101   8.722  0.4511  0.7934  0.5591
46012SOL    HW249762   1.744   9.184   8.660  0.0939  0.5032  0.7940
46013SOL     OW49763   3.377  11.225   0.236 -0.0467 -0.3219  0.2197
46013SOL    HW149764   3.383  11.227   0.332  1.3048  1.5127  0.1666
46013SOL    HW249765   3.430  11.150   0.210  0.6607 -0.0725  0.8857
46014SOL     OW49766   8.463   2.341   4.725 -0.4118 -0.1352  0.4203
46014SOL    HW149767   8.403   2.416   4.718  0.6457  0.6194 -0.9690
46014SOL    HW249768   8.409   2.265   4.704 -0.8217  0.5749 -1.2536
46015SOL     OW49769   6.765   0.586  10.543 -0.5540 -0.6398  0.7550
46015SOL    HW149770   6.726   0.575  10.630  0.0548 -0.3386  1.0684
46015SOL    HW249771   6.748   0.678  10.521 -0.7874 -0.7393  0.5111
46016SOL     OW49772   9.545  11.561   3.516  0.6906 -0.0455  0.6152
46016SOL    HW149773   9.466  11.507   3.513  1.3625 -1.0649  0.8445
46016SOL    HW249774   9.604  11.522   3.452  1.4660 -0.0571  1.3104
46017SOL     OW49775   9.627  11.613   4.223 -0.5656  1.1661  0.0750
46017SOL    HW149776   9.578  11.691   4.196 -2.3567 -0.3477 -1.3228
46017SOL    HW249777   9.573  11.539   4.192  1.0273 -0.6313  1.3879
46018SOL     OW49778   4.088  11.665  11.332  0.0100  0.3757 -0.0961
46018SOL    HW149779   4.119  11.594  11.389 -0.4608  0.3048  0.0712
46018SOL    HW249780   4.005  11.634  11.298  0.1867  0.5083 -0.6631
46019SOL     OW49781   6.752   1.414  10.964  0.0655  0.1968 -0.0824
46019SOL    HW149782   6.660   1.402  10.942  0.1438  0.7747 -0.7628
46019SOL    HW249783   6.764   1.509  10.966  0.5644  0.1298  0.3546
46020SOL     OW49784  12.760   6.239  11.586 -0.0763 -0.1888 -0.7103
46020SOL    HW149785  12.752   6.211  11.677  0.1370  1.6564 -0.0661
46020SOL    HW249786  12.699   6.313  11.578  1.9235  1.5259 -1.2063
46021SOL     OW49787   9.581   0.780  11.420 -0.6047 -0.0499  0.7980
46021SOL    HW149788   9.611   0.721  11.489  0.2166 -2.2449 -1.2952
46021SOL    HW249789   9.652   0.781  11.357 -1.6828  1.1484 -0.4490
46022SOL     OW49790   1.577   1.253   2.865 -0.1573 -0.0524 -0.8657
46022SOL    HW149791   1.503   1.194   2.850 -0.9595  0.3990  1.0604
46022SOL    HW249792   1.567   1.282   2.956  2.3133  0.1533 -0.5976
46023SOL     OW49793   7.562  13.376   5.118 -0.4401 -0.0641 -0.3615
46023SOL    HW149794   7.521  13.461   5.130 -0.1068  0.2452 -1.3272
46023SOL    HW249795   7.586  13.374   5.025 -0.1310 -1.0663 -0.2677
46024SOL     OW49796   7.371   4.608  10.968 -0.3745  0.2655  0.7362
46024SOL    HW149797   7.397   4.610  11.060 -0.8896 -1.1800  0.9379
46024SOL    HW249798   7.445   4.646  10.921  0.6434 -0.5907  1.5952
46025SOL     OW49799  13.216   7.352   9.706  0.2170 -0.2934  0.0050
46025SOL    HW149800  13.124   7.377   9.713  0.6953  1.7473 -0.4540
46025SOL    HW249801  13.257   7.390   9.783  0.9197  0.0622 -0.5334
46026SOL     OW49802   9.115   9.022  12.830 -0.1598 -0.1933  0.3885
46026SOL    HW149803   9.158   9.053  12.909  1.5310  1.5074 -1.1010
46026SOL    HW249804   9.155   8.937  12.812  2.3351  1.1060 -0.6585
46027SOL     OW49805   5.156   5.452   9.017  0.3133 -0.0187  0.2897
46027SOL    HW149806   5.137   5.442   8.924  0.4308 -0.8252  0.3405
46027SOL    HW249807   5.085   5.406   9.061 -0.8607  2.0753  0.6833
46028SOL     OW49808   6.110   2.702  11.488  0.1459  0.3309 -0.0358
46028SOL    HW149809   6.021   2.671  11.470 -0.4433  1.3535  0.9842
46028SOL    HW249810   6.115   2.705  11.583  0.5796  2.1675 -0.0798
46029SOL     OW49811   2.860  11.303   0.638  0.0458  0.2612  0.2124
46029SOL    HW149812   2.919  11.302   0.562 -0.7189  1.0692 -0.4018
46029SOL    HW249813   2.791  11.364   0.614 -1.9552 -1.8694  0.2303
46030SOL     OW49814   9.590   3.164   1.558 -0.3733 -0.4471  0.1866
46030SOL    HW149815   9.601   3.153   1.652 -0.4820  0.1650  0.2776
46030SOL    HW249816   9.536   3.090   1.531 -0.8032 -0.3212  0.6972
46031SOL     OW49817   9.124   3.478  13.644 -0.3204  0.2414 -0.5852
46031SOL    HW149818   9.160   3.509  13.727 -2.9588  1.5095  0.1843
46031SOL    HW249819   9.173   3.526  13.577 -1.2416  2.7904  0.4496
46032SOL     OW49820  10.098  10.504   0.619  0.6284  0.0760 -0.2145
46032SOL    HW149821  10.043  10.582   0.610 -0.7685 -0.9219 -0.6339
46032SOL    HW249822  10.151  10.503   0.539  1.3901  1.0949  0.2384
46033SOL     OW49823   1.469   7.925   2.290 -0.4688  0.7002 -0.1412
46033SOL    HW149824   1.560   7.922   2.320 -0.8681 -1.1566  1.1261
46033SOL    HW249825   1.462   7.852   2.229 -1.1506  0.6534 -0.0161
46034SOL     OW49826  10.648   4.181   0.072  0.7586 -0.1315 -0.4465
46034SOL    HW149827  10.703   4.113   0.111  0.1357 -1.0434 -1.1251
46034SOL    HW249828  10.560   4.144   0.070  0.1900  1.1052  0.1316
46035SOL     OW49829   2.219   3.745   2.561 -0.3364  0.4136 -0.2471
46035SOL    HW149830   2.251   3.835   2.561 -1.1009  0.6935 -0.8473
46035SOL    HW249831   2.283   3.697   2.614 -1.1620  1.7635  2.1624
46036SOL     OW49832   6.145   1.162   2.741  0.0373  0.1544 -0.3297
46036SOL    HW149833   6.141   1.088   2.801 -0.3739  0.3118 -0.1584
46036SOL    HW249834   6.116   1.237   2.794  0.0737  0.3668 -0.6087
46037SOL     OW49835   3.588  11.931   1.172 -0.0202 -0.4777  0.2295
46037SOL    HW149836   3.547  11.849   1.200 -0.0199 -0.2794  0.8415
46037SOL    HW249837   3.629  11.911   1.088 -0.2031 -1.0474  0.2754
46038SOL     OW49838   9.639  12.316   1.971  0.3472 -0.8820 -0.5242
46038SOL    HW149839   9.617  12.257   2.044 -0.4890 -0.3541 -0.3252
46038SOL    HW249840   9.640  12.259   1.894 -1.8806 -0.9694 -0.5572
46039SOL     OW49841   9.146   5.437   1.391 -0.3966 -0.1582  0.6913
46039SOL    HW149842   9.131   5.518   1.439 -1.3056  0.0217  0.1441
46039SOL    HW249843   9.075   5.434   1.327  0.2287 -0.8651  0.0061
46040SOL     OW49844  13.689  12.793  11.287 -0.2069 -0.1008 -0.2947
46040SOL    HW149845  13.703  12.813  11.379 -1.2139  0.0087 -0.1532
46040SOL    HW249846  13.699  12.878  11.243  2.0989 -0.4277 -0.5627
46041SOL     OW49847  10.788   0.759   7.321  0.0949 -0.3480  0.2647
46041SOL    HW149848  10.867   0.710   7.346 -0.0652  0.0508  1.5958
46041SOL    HW249849  10.819   0.819   7.253  0.9477 -0.1902  0.7731
46042SOL     OW49850  10.298   4.890   5.721 -0.2881 -0.3135 -0.2822
46042SOL    HW149851  10.362   4.956   5.749  0.9508 -1.3580 -0.5625
46042SOL    HW249852  10.310   4.884   5.627 -0.3574 -0.9892 -0.2480
46043SOL     OW49853  12.978   1.092   2.866 -0.1929  0.3487 -0.1824
46043SOL    HW149854  13.037   1.143   2.921 -0.4667  0.2852  0.1718
46043SOL    HW249855  12.891   1.123   2.889 -0.4209 -0.8371  0.6238
46044SOL     OW49856   0.704  10.009  10.553  0.3075 -0.2359 -0.1537
46044SOL    HW149857   0.713   9.937  10.491  0.3528 -0.3906  0.0362
46044SOL    HW249858   0.643  10.070  10.510  0.6602 -0.1468 -0.5372
46045SOL     OW49859  10.476   7.837   0.048  0.0416  0.1601  0.3897
46045SOL    HW149860  10.492   7.764   0.108 -0.8938  0.8561  1.5218
46045SOL    HW249861  10.423   7.799  -0.022  0.1746 -0.4075  0.5867
46046SOL     OW49862   2.789  11.715  10.407  0.0932 -0.0237 -0.1622
46046SOL    HW149863   2.709  11.720  10.355  0.5504 -1.4756 -1.0410
46046SOL    HW249864   2.797  11.623  10.430  1.3131  0.1707  0.2563
46047SOL     OW49865   0.266   9.455   2.759 -0.1471 -0.8056 -0.4255
46047SOL    HW149866   0.346   9.410   2.731  0.7808  1.4603 -1.7551
46047SOL    HW249867   0.280   9.546   2.732 -1.4374  0.5665  2.9823
46048SOL     OW49868   5.999   2.128   2.877 -0.5077 -0.8264  0.0443
46048SOL    HW149869   6.034   2.154   2.791  0.1216  0.6021  0.6962
46048SOL    HW249870   6.033   2.040   2.892  0.5774 -0.5201 -0.5388
46049SOL     OW49871   9.718   1.989  12.457 -0.6014  0.0854  0.3369
46049SOL    HW149872   9.678   1.903  12.467  0.1123 -0.2992  0.0281
46049SOL    HW249873   9.679   2.024  12.377 -0.1921 -0.3692 -0.0725
46050SOL     OW49874   3.442   8.179   8.221 -0.1455 -0.6431 -0.6742
46050SOL    HW149875   3.395   8.124   8.284 -0.8444  1.3333  0.6070
46050SOL    HW249876   3.532   8.181   8.253  0.2153 -2.1141 -1.5146
46051SOL     OW49877   8.513   8.174  12.583  0.1205 -0.3472  0.3460
46051SOL    HW149878   8.481   8.095  12.626  1.9885 -1.4624 -0.1976
46051SOL    HW249879   8.502   8.157  12.490  0.8543 -0.1182  0.2126
46052SOL     OW49880  11.612   5.717  11.025 -0.6347 -0.4077  0.4010
46052SOL    HW149881  11.628   5.716  11.119 -0.5769 -0.0344  0.3960
46052SOL    HW249882  11.570   5.633  11.007 -1.4400 -0.1162  0.8917
46053SOL     OW49883   8.628  10.727  10.202  0.1600 -0.0889 -0.6877
46053SOL    HW149884   8.615  10.678  10.121 -1.0323 -0.9918  0.0038
46053SOL    HW249885   8.542  10.761  10.224  0.4067 -0.0607  0.3087
46054SOL     OW49886  12.366   3.869  13.633  0.1577 -0.6040 -0.2871
46054SOL    HW149887  12.283   3.821  13.632  0.0253 -0.3780 -0.3136
46054SOL    HW249888  12.343   3.957  13.604  0.5476 -0.7587 -1.0762
46055SOL     OW49889   1.023   3.335   8.161 -0.1317  0.0272  0.9849
46055SOL    HW149890   1.099   3.285   8.189 -1.2702 -0.4767  3.4704
46055SOL    HW249891   1.044   3.364   8.072  2.2137 -1.4997  0.9662
46056SOL     OW49892   3.830   9.539   8.003 -0.0339 -0.1544 -0.1642
46056SOL    HW149893   3.862   9.517   8.091  1.0252 -0.1976 -0.5427
46056SOL    HW249894   3.815   9.633   8.005 -0.9625 -0.2995  0.3428
46057SOL     OW49895   3.986  13.466   3.040  0.2082 -0.1788  0.0268
46057SOL    HW149896   4.073  13.446   3.005  0.5471 -0.0563  0.7904
46057SOL    HW249897   3.983  13.562   3.041  0.1540 -0.1825  0.2139
46058SOL     OW49898   6.958   9.050   2.735  0.1275  0.4797  0.7896
46058SOL    HW149899   6.915   9.080   2.815 -0.8526 -0.6997  0.7479
46058SOL    HW249900   6.887   9.010   2.684  1.1431 -0.8806  0.3975
46059SOL     OW49901   2.249   2.807  12.973  0.2585 -0.0109  0.4340
46059SOL    HW149902   2.272   2.724  12.932 -0.1818 -0.5788  1.3300
46059SOL    HW249903   2.282   2.800  13.062  0.3570  0.8383  0.4731
46060SOL     OW49904   4.883   3.702   9.142 -0.6446  0.1114 -0.3226
46060SOL    HW149905   4.809   3.745   9.098 -0.4088  1.5746  0.6415
46060SOL    HW249906   4.850   3.616   9.165 -0.1133 -1.7170 -5.2589
46061SOL     OW49907   0.255   5.770  12.505  0.1391 -0.0037 -0.3780
46061SOL    HW149908   0.308   5.841  12.469 -0.7074  0.4008 -0.8474
46061SOL    HW249909   0.176   5.813  12.536  0.3414 -0.5052  0.9240
46062SOL     OW49910   9.755   9.939   5.602  0.3278  0.1028 -0.1924
46062SOL    HW149911   9.742  10.029   5.573 -0.4850  0.4929  1.2488
46062SOL    HW249912   9.699   9.886   5.545  0.6139  0.5310 -0.8803
46063SOL     OW49913   6.129   4.315  12.010  0.3667 -0.3248  0.2411
46063SOL    HW149914   6.199   4.379  12.000 -0.3103  0.3588 -0.2045
46063SOL    HW249915   6.171   4.239  12.051  1.0449  0.6234  1.3443
46064SOL     OW49916   8.304   1.728   2.688  0.0376 -0.2044 -0.0936
46064SOL    HW149917   8.308   1.815   2.649  1.8458 -0.5324 -0.7206
46064SOL    HW249918   8.365   1.675   2.636  1.9505 -0.8618  2.6110
46065SOL     OW49919  10.465   6.343   7.053 -0.1820 -0.0316  0.0632
46065SOL    HW149920  10.456   6.414   6.989 -0.5132 -0.5512 -0.4677
46065SOL    HW249921  10.462   6.387   7.138 -1.4362  0.4794 -0.2337
46066SOL     OW49922   2.170   0.883   8.322  0.4022  0.4151 -0.0985
46066SOL    HW149923   2.194   0.959   8.376 -1.3198  0.4508  0.6874
46066SOL    HW249924   2.208   0.902   8.236  1.9364  1.0704  0.6695
46067SOL     OW49925  11.289   0.587   5.614  0.0484 -0.6622 -0.0782
46067SOL    HW149926  11.280   0.509   5.668 -1.2109 -0.9874 -0.7304
46067SOL    HW249927  11.359   0.565   5.552  0.3534 -0.9062  0.3498
46068SOL     OW49928   0.122  12.219   6.900  0.2510  0.2752 -0.3989
46068SOL    HW149929   0.162  12.150   6.954 -0.6170  0.3228  0.3303
46068SOL    HW249930   0.127  12.298   6.955 -1.6350  0.0931  0.1159
46069SOL     OW49931   8.706  12.122   9.281  0.1049 -0.4775 -0.2515
46069SOL    HW149932   8.619  12.102   9.247 -0.1959  1.5132 -0.7903
46069SOL    HW249933   8.766  12.079   9.220 -0.4039 -3.6638  1.2818
46070SOL     OW49934   3.519   6.224   7.104 -0.0863  0.3860  0.3150
46070SOL    HW149935   3.433   6.191   7.076  0.3697 -0.2060 -0.4133
46070SOL    HW249936   3.551   6.157   7.164  1.6069 -1.5269 -2.4832
46071SOL     OW49937   1.417   2.131  13.495 -0.2528 -0.6524  0.1275
46071SOL    HW149938   1.449   2.197  13.556 -2.9812  0.1040  0.8510
46071SOL    HW249939   1.359   2.178  13.436  0.8116 -1.7352 -1.8897
46072SOL     OW49940   8.301   7.389   2.101  0.3525 -0.6713 -0.3608
46072SOL    HW149941   8.279   7.299   2.124 -0.9675 -0.5905 -1.1963
46072SOL    HW249942   8.218   7.427   2.070  0.4437  1.3474  1.5642
46073SOL     OW49943   7.388   0.016  11.980 -0.2114  0.0507 -0.4609
46073SOL    HW149944   7.429  -0.051  12.034  2.3197 -0.4283 -2.7404
46073SOL    HW249945   7.294   0.000  11.988  0.2560 -3.2768 -0.2630
46074SOL     OW49946   9.609   9.352   9.055  0.3447 -0.4554  0.0467
46074SOL    HW149947   9.703   9.333   9.044  0.5132 -1.0116  2.0125
46074SOL    HW249948   9.578   9.285   9.115 -0.8851  0.8573  0.9438
46075SOL     OW49949   8.664  12.770  10.406 -0.3390 -1.1858  0.2327
46075SOL    HW149950   8.688  12.790  10.315 -1.2223 -1.4830 -0.0774
46075SOL    HW249951   8.575  12.735  10.400  0.0894 -2.4603  1.0702
46076SOL     OW49952   8.918   7.097   0.784 -0.4203 -0.2350 -0.0532
46076SOL    HW149953   8.968   7.105   0.703  0.2129  0.9744  0.4429
46076SOL    HW249954   8.841   7.152   0.771  0.9355  2.0924  1.0689
46077SOL     OW49955   8.318   5.026   0.549 -0.0808 -0.1299 -0.4914
46077SOL    HW149956   8.362   5.021   0.634 -1.4471  0.3634  0.2785
46077SOL    HW249957   8.295   4.935   0.529 -1.0841 -0.0883  0.4097
46078SOL     OW49958  11.586   5.518   1.731 -0.4804  0.2503 -0.3539
46078SOL    HW149959  11.648   5.452   1.699 -1.9104 -0.6117 -1.4624
46078SOL    HW249960  11.553   5.482   1.813 -1.3008 -0.4756 -0.9846
46079SOL     OW49961  11.141  12.260   0.586  0.6117 -0.2584 -0.1891
46079SOL    HW149962  11.202  12.315   0.538  0.4792 -0.6622 -0.8277
46079SOL    HW249963  11.189  12.180   0.604  0.5413 -0.2512  0.0386
46080SOL     OW49964   8.816   4.446   3.798 -0.1056 -0.1453 -0.1182
46080SOL    HW149965   8.911   4.438   3.809 -0.2046  0.6505  1.7131
46080SOL    HW249966   8.784   4.356   3.806  0.4281 -0.3054  0.2972
46081SOL     OW49967   1.310   2.757   9.843 -0.0905 -0.2892 -0.2973
46081SOL    HW149968   1.216   2.739   9.847 -0.0041 -0.6193  0.6396
46081SOL    HW249969   1.317   2.849   9.868 -0.0980 -0.5542  0.7512
46082SOL     OW49970   2.223   8.180   4.080  0.4115 -0.3773  0.0636
46082SOL    HW149971   2.229   8.095   4.037 -1.1341 -0.9146  0.8539
46082SOL    HW249972   2.194   8.160   4.169  0.0577  0.9796  0.2722
46083SOL     OW49973   5.260   9.637   8.356  0.3107 -0.4340  0.2279
46083SOL    HW149974   5.350   9.644   8.324 -0.4393 -0.7443 -2.1004
46083SOL    HW249975   5.206   9.672   8.286 -1.4027  0.0701  1.7112
46084SOL     OW49976   4.225  11.845   7.089 -0.4695 -0.0679 -0.3003
46084SOL    HW149977   4.210  11.899   7.012  0.7235  0.2429 -0.3417
46084SOL    HW249978   4.290  11.894   7.140 -0.4744 -0.7615  0.3928
46085SOL     OW49979  12.234   7.603   9.509  0.1472 -0.0331  0.2493
46085SOL    HW149980  12.303   7.545   9.479  0.3593  0.2269  0.2264
46085SOL    HW249981  12.192   7.634   9.429 -0.7853 -1.1173  0.2854
46086SOL     OW49982   3.888  13.640   5.692 -0.3698  0.4084 -0.2503
46086SOL    HW149983   3.844  13.719   5.659  2.2301  1.8616 -0.4501
46086SOL    HW249984   3.821  13.572   5.684 -2.5024  2.3891 -0.7714
46087SOL     OW49985   2.048   0.956   5.113 -0.5503  0.4831 -0.2577
46087SOL    HW149986   2.013   0.927   5.197  1.3615 -0.9085  0.1201
46087SOL    HW249987   2.134   0.993   5.134 -1.2650  2.9463 -1.2530
46088SOL     OW49988   4.731  12.317  12.650  0.0539  0.0676 -0.2756
46088SOL    HW149989   4.748  12.234  12.607  0.6571 -0.0144  0.1118
46088SOL    HW249990   4.799  12.376  12.618  0.1131  0.1863  0.0631
46089SOL     OW49991   1.604   6.217   4.479 -0.5345  0.0451  0.0768
46089SOL    HW149992   1.675   6.213   4.415 -0.8193 -2.9119 -0.1956
46089SOL    HW249993   1.603   6.131   4.520  0.0300  1.9359  4.6681
46090SOL     OW49994   2.133  10.563   3.439  0.2399 -0.4985  0.2900
46090SOL    HW149995   2.040  10.550   3.457 -0.0010  1.5004  0.8185
46090SOL    HW249996   2.178  10.512   3.507 -0.5424  0.2499  1.4130
46091SOL     OW49997   2.996  10.162  11.288  0.2218 -0.6053 -0.1308
46091SOL    HW149998   2.936  10.209  11.346 -0.0862 -1.6889  0.4340
46091SOL    HW249999   3.014  10.225  11.218 -1.2723 -0.1246 -0.1191
46092SOL     OW50000   4.253   5.760   2.308 -0.7941  0.0152 -0.2852
46092SOL    HW150001   4.249   5.668   2.282 -3.2583  0.0008 -0.0815
46092SOL    HW250002   4.303   5.760   2.390 -0.5403 -1.0938 -0.4301
46093SOL     OW50003   5.814   0.359   9.865 -0.2836 -0.3398 -0.2534
46093SOL    HW150004   5.741   0.315   9.908 -0.4022 -0.6175 -0.7253
46093SOL    HW250005   5.778   0.392   9.783  0.3814 -1.5611 -1.0912
46094SOL     OW50006  10.265   0.535  12.011 -0.2786 -0.3943 -0.3456
46094SOL    HW150007  10.347   0.492  11.987  0.2157  0.8145 -0.9353
46094SOL    HW250008  10.286   0.629  12.009 -1.1595 -0.1019  1.4081
46095SOL     OW50009   8.036   2.840   5.677  0.0095 -0.8171 -0.9846
46095SOL    HW150010   7.949   2.835   5.639 -1.5608 -0.9674  2.2849
46095SOL    HW250011   8.036   2.921   5.728  0.3250 -2.5762  2.0579
46096SOL     OW50012   9.041   6.733  13.185 -0.5253  0.7081  0.6018
46096SOL    HW150013   8.981   6.661  13.166  1.9468 -1.4524  0.3994
46096SOL    HW250014   9.039   6.787  13.106  0.1290 -1.1380 -0.7595
46097SOL     OW50015   9.222   8.777  12.710  0.2888 -0.1074 -0.8063
46097SOL    HW150016   9.258   8.782  12.621  0.8557 -2.7920 -0.8063
46097SOL    HW250017   9.294   8.744  12.763 -0.0735  1.3678  0.6942
46098SOL     OW50018   9.057  12.984  11.372 -0.0768  0.2538  0.0103
46098SOL    HW150019   9.012  13.062  11.341 -1.0374  0.2159  1.2441
46098SOL    HW250020   9.076  13.002  11.464 -0.8090 -1.1609  0.4664
46099SOL     OW50021   8.786  11.989   4.647  0.1554 -0.4811  0.0769
46099SOL    HW150022   8.744  12.070   4.677 -1.2018 -0.1888 -2.3509
46099SOL    HW250023   8.770  11.926   4.718 -0.8775  0.7284  0.9725
46100SOL     OW50024   2.763  13.132   8.884  0.2256 -0.0338  0.4376
46100SOL    HW150025   2.829  13.132   8.815 -0.9987 -1.6968 -0.8174
46100SOL    HW250026   2.731  13.222   8.887 -0.1717 -0.0590 -1.6720
46101SOL     OW50027   1.256   7.110   6.108 -0.1304 -0.7207  0.4662
46101SOL    HW150028   1.321   7.084   6.043  1.0361  2.4705  0.1914
46101SOL    HW250029   1.305   7.159   6.174 -2.1998  2.5419 -0.1854
46102SOL     OW50030   0.403   9.091   9.240 -0.3190 -0.0828  0.2612
46102SOL    HW150031   0.447   9.008   9.224 -1.3944 -0.9140  1.4322
46102SOL    HW250032   0.393   9.095   9.335  0.0374  1.5698  0.2558
46103SOL     OW50033   8.455   2.076   3.619  0.3742  0.3907 -0.1163
46103SOL    HW150034   8.421   2.092   3.530 -3.1380 -1.5066  0.6539
46103SOL    HW250035   8.447   1.981   3.630  0.4426  0.6027  2.3169
46104SOL     OW50036   6.822   9.427   3.984 -0.0230  0.4977  0.1570
46104SOL    HW150037   6.750   9.420   4.046  0.0402  1.5022  0.3634
46104SOL    HW250038   6.835   9.522   3.974  2.0674  0.3376  1.0463
46105SOL     OW50039   8.513   5.841   5.508 -0.5717 -0.5781  0.2875
46105SOL    HW150040   8.497   5.751   5.477 -0.1163 -0.2325 -1.0122
46105SOL    HW250041   8.440   5.891   5.472  0.7313  0.1015 -1.5223
46106SOL     OW50042   9.312   7.583   1.103  0.1998  0.3340  0.1223
46106SOL    HW150043   9.304   7.671   1.068  0.7124  0.8829  1.3331
46106SOL    HW250044   9.241   7.576   1.167  0.6751  0.1781  0.6425
46107SOL     OW50045  11.220  10.862  12.265  0.2773  0.0469  0.2325
46107SOL    HW150046  11.238  10.946  12.308  1.5309  0.2668 -0.6774
46107SOL    HW250047  11.295  10.807  12.287  0.5254 -0.1122 -0.9445
46108SOL     OW50048  12.459  12.392   7.254  0.1764 -0.6416 -0.3136
46108SOL    HW150049  12.412  12.474   7.240 -0.9458 -0.7481  2.2295
46108SOL    HW250050  12.551  12.415   7.248 -0.0897  1.0177  1.0572
46109SOL     OW50051   1.178  12.130   8.759 -0.6869 -0.1329  0.0735
46109SOL    HW150052   1.254  12.158   8.708  0.0593 -1.7372  0.2557
46109SOL    HW250053   1.213  12.067   8.822 -1.4866  2.0847  2.9666
46110SOL     OW50054   7.073  10.712   3.019 -0.5805 -0.0402  0.1408
46110SOL    HW150055   7.034  10.627   2.998  1.3985 -0.4307 -2.5764
46110SOL    HW250056   7.007  10.776   2.993 -1.8899 -0.6827  1.7257
46111SOL     OW50057   5.033  10.615   5.032 -0.2371 -0.4420 -0.3450
46111SOL    HW150058   5.019  10.651   5.119  0.8867 -1.6205  0.3614
46111SOL    HW250059   5.128  10.610   5.022 -0.3318 -2.2540 -0.7684
46112SOL     OW50060   7.090   9.044   4.860  0.1066  0.1220 -0.0141
46112SOL    HW150061   7.091   9.136   4.831  0.4154  0.8943  2.2733
46112SOL    HW250062   7.175   9.031   4.902 -0.7441 -0.5162  1.6018
46113SOL     OW50063   1.138  13.308   4.989 -0.5832  0.7986 -0.1968
46113SOL    HW150064   1.207  13.282   4.929 -0.9391  2.3878 -1.3606
46113SOL    HW250065   1.112  13.226   5.033  2.4246  0.2507  0.7924
46114SOL     OW50066  12.209   5.842   5.295  0.0938  0.3907 -0.5118
46114SOL    HW150067  12.185   5.759   5.337 -0.3370  0.8435  0.1365
46114SOL    HW250068  12.304   5.836   5.285  0.2786  0.4733  0.9742
46115SOL     OW50069  11.922   2.509  12.949  0.2871  0.3043 -0.2539
46115SOL    HW150070  11.952   2.457  13.024 -0.0620  0.0757 -0.2726
46115SOL    HW250071  11.861   2.572  12.988 -0.2662 -0.1269 -0.4103
46116SOL     OW50072   0.778   9.909   7.713 -0.1887  0.2429  0.2553
46116SOL    HW150073   0.714   9.949   7.653 -0.4641  0.1381  0.4759
46116SOL    HW250074   0.765   9.815   7.703 -1.4068  0.2194  1.6898
46117SOL     OW50075   5.169  11.470   1.645 -0.0992 -0.2610 -0.3947
46117SOL    HW150076   5.171  11.461   1.740  0.7745  0.6850 -0.3186
46117SOL    HW250077   5.075  11.473   1.624 -0.2957  0.2152  0.4966
46118SOL     OW50078   3.056  13.339   8.837 -0.7326 -0.1959 -0.0845
46118SOL    HW150079   3.144  13.367   8.812 -0.2121 -2.2768 -0.7838
46118SOL    HW250080   3.050  13.249   8.806 -2.9917 -0.2286  0.2907
46119SOL     OW50081   6.202   9.434  11.414  0.4024  0.0309 -0.3275
46119SOL    HW150082   6.136   9.408  11.350 -0.1598  0.5518  0.0235
46119SOL    HW250083   6.151   9.465  11.489  1.0435  0.7320 -0.1689
46120SOL     OW50084   5.118   3.736   1.298  0.0770 -0.1174  0.0278
46120SOL    HW150085   5.160   3.758   1.215  0.5059 -0.0428  0.2614
46120SOL    HW250086   5.187   3.697   1.351 -0.2220 -0.2769  0.3067
46121SOL     OW50087   2.083   9.034  13.651 -0.2729 -0.2036 -0.3309
46121SOL    HW150088   2.049   9.066  13.567 -1.0763  0.0764  0.0932
46121SOL    HW250089   2.053   9.099  13.715  1.5666  0.3769 -0.0024
46122SOL     OW50090   9.252  13.251   8.303 -0.0868  0.1163 -0.0448
46122SOL    HW150091   9.168  13.255   8.258 -0.7662  0.2812  1.1771
46122SOL    HW250092   9.317  13.268   8.235 -1.0210 -0.2128 -1.0542
46123SOL     OW50093   4.976   1.431  12.535  0.0482 -0.1386 -0.0859
46123SOL    HW150094   5.050   1.379  12.504  1.1724  1.7441 -0.7274
46123SOL    HW250095   5.012   1.518  12.551 -1.9924  0.8142 -0.2780
46124SOL     OW50096   4.941  11.436  10.643 -0.2764 -0.1779 -0.3410
46124SOL    HW150097   4.902  11.507  10.593 -2.5903 -1.7749 -0.9896
46124SOL    HW250098   4.941  11.467  10.734 -0.0832  1.0732 -0.7525
46125SOL     OW50099  12.733   0.152   0.407  0.4564  0.1969 -0.1271
46125SOL    HW150100  12.823   0.153   0.372  1.7074  0.1420  2.8049
46125SOL    HW250101  12.711   0.244   0.420  0.9567  0.1765  1.0402
46126SOL     OW50102   3.508   0.495   0.327  0.1833 -0.0552  0.2076
46126SOL    HW150103   3.493   0.401   0.314  0.1535 -0.0165 -0.0408
46126SOL    HW250104   3.458   0.537   0.257  1.4092  0.0700 -0.6233
46127SOL     OW50105   8.411   2.977   1.885  0.6064  0.7140  0.2273
46127SOL    HW150106   8.500   2.950   1.905  0.1102  0.6541  2.5783
46127SOL    HW250107   8.371   2.901   1.843  1.5756  0.6908 -0.6943
46128SOL     OW50108   0.556   4.705   5.166 -0.2109 -0.3294  0.2121
46128SOL    HW150109   0.484   4.753   5.207  0.2299  0.7177 -0.1949
46128SOL    HW250110   0.579   4.637   5.230 -1.8810 -1.0168  0.1181
46129SOL     OW50111   6.072  13.291   0.586 -0.1207 -0.2023 -0.7787
46129SOL    HW150112   6.165  13.267   0.592 -0.6027 -1.8349  0.7207
46129SOL    HW250113   6.058  13.347   0.662 -0.3529  0.1357 -1.0689
46130SOL     OW50114   2.516  12.468   8.290 -0.0226  0.2206 -0.1869
46130SOL    HW150115   2.446  12.408   8.315 -0.5903  0.1409 -1.8499
46130SOL    HW250116   2.580  12.461   8.360 -0.7192 -1.2798  0.3391
46131SOL     OW50117   3.032   7.831   2.751 -0.1154  0.3893 -0.4826
46131SOL    HW150118   3.030   7.752   2.698 -3.2864  0.1826 -0.2299
46131SOL    HW250119   3.039   7.903   2.689  0.8196  0.0141 -0.8286
46132SOL     OW50120   5.604   3.783   1.560 -0.0684  0.1584 -0.0935
46132SOL    HW150121   5.668   3.774   1.631 -0.1457  0.6435  0.0419
46132SOL    HW250122   5.636   3.724   1.492  0.0162 -0.3022  0.3380
46133SOL     OW50123   6.482   4.516  13.151  0.1912 -0.3818  0.1354
46133SOL    HW150124   6.528   4.580  13.096 -0.3286 -0.4472 -0.3840
46133SOL    HW250125   6.525   4.523  13.236 -0.6357  1.5299  0.4496
46134SOL     OW50126   9.508   0.724   8.428 -0.1038  0.0799  0.2926
46134SOL    HW150127   9.503   0.703   8.522  0.7014 -1.3293  0.0557
46134SOL    HW250128   9.520   0.819   8.425  1.0666  0.0119  1.6829
46135SOL     OW50129   1.795   6.566   3.640  0.0134  0.5457 -0.1536
46135SOL    HW150130   1.827   6.603   3.559  3.4546 -0.9402  0.3663
46135SOL    HW250131   1.732   6.499   3.613  0.4300  0.6934 -1.5233
46136SOL     OW50132   6.680  11.116   8.038 -0.0754  0.2520  0.1868
46136SOL    HW150133   6.613  11.048   8.027 -0.9982  1.1246  0.2661
46136SOL    HW250134   6.752  11.088   7.981 -0.3781 -0.8541  0.3180
46137SOL     OW50135   2.802   1.834   1.770 -0.1834 -0.0608 -0.1676
46137SOL    HW150136   2.792   1.747   1.809  0.1141 -0.1461 -0.2789
46137SOL    HW250137   2.850   1.819   1.689  1.2947  0.3913  0.5925
46138SOL     OW50138  13.344  11.800   2.107  0.0196  0.0241  0.2016
46138SOL    HW150139  13.277  11.857   2.070  0.6653  1.0566  0.5849
46138SOL    HW250140  13.313  11.780   2.195  0.4719  0.9783  0.5921
46139SOL     OW50141  10.542  10.922   1.356  0.1055 -0.4440  0.2500
46139SOL    HW150142  10.604  10.899   1.287 -0.1452 -0.7364  0.1192
46139SOL    HW250143  10.518  10.839   1.396 -0.4691 -0.3723  0.0689
46140SOL     OW50144  10.693  11.458   4.642  0.0847 -0.0597 -0.0283
46140SOL    HW150145  10.631  11.501   4.700  2.1525  2.1387  0.7470
46140SOL    HW250146  10.707  11.521   4.571  0.3849 -1.1185 -0.9357
46141SOL     OW50147   9.892   1.840   8.575  0.4255 -0.6437  0.0045
46141SOL    HW150148   9.978   1.799   8.564 -0.4070 -2.2673 -0.8858
46141SOL    HW250149   9.869   1.824   8.666  0.7324 -0.9195  0.0350
46142SOL     OW50150   2.401   7.330  12.721 -0.3647 -0.0450  0.4483
46142SOL    HW150151   2.360   7.401  12.771  0.4097  0.5525  0.2491
46142SOL    HW250152   2.480   7.308  12.771  0.6730  0.8783 -0.7140
46143SOL     OW50153  11.682  12.299  12.099 -0.2561  0.0937 -0.4510
46143SOL    HW150154  11.659  12.226  12.043  0.7237 -0.0936 -0.6331
46143SOL    HW250155  11.683  12.375  12.041 -0.5806  0.1384 -0.4022
46144SOL     OW50156   8.870   0.708   0.666  0.8592 -0.8281  0.3131
46144SOL    HW150157   8.803   0.656   0.621  0.1406  0.3465 -0.0235
46144SOL    HW250158   8.904   0.650   0.733 -1.5880 -1.0055  1.5201
46145SOL     OW50159   5.629   5.987  11.510 -0.1161 -0.4473  0.0772
46145SOL    HW150160   5.615   6.059  11.572  1.5159 -0.4691  0.5287
46145SOL    HW250161   5.557   5.994  11.447  0.2102  1.8208 -0.1132
46146SOL     OW50162   3.661   4.795  12.858  0.0697 -0.6762  0.1372
46146SOL    HW150163   3.645   4.720  12.915  0.9840 -0.8741  0.1410
46146SOL    HW250164   3.736   4.769  12.804 -0.5330 -0.3427 -0.8968
46147SOL     OW50165  13.407   7.820   4.032  0.4199 -0.0289 -0.0179
46147SOL    HW150166  13.340   7.873   3.988  0.4243  1.1578  1.3032
46147SOL    HW250167  13.490   7.862   4.009  0.4502  0.3748  0.7727
46148SOL     OW50168   3.294  12.936   9.456 -0.8964 -0.7657  0.0708
46148SOL    HW150169   3.362  12.999   9.436 -1.3993  0.4154  1.8408
46148SOL    HW250170   3.245  12.927   9.374  0.6069 -0.7073 -0.8723
46149SOL     OW50171   8.399   0.065   0.908 -0.0287  0.6019  0.4515
46149SOL    HW150172   8.425   0.125   0.838 -0.2068  0.7622  0.5233
46149SOL    HW250173   8.327   0.109   0.952 -1.4877 -0.5037 -0.7113
46150SOL     OW50174  12.867   0.689  11.698 -0.4735  0.3909  0.6167
46150SOL    HW150175  12.950   0.704  11.652 -0.6248 -1.1655 -0.2388
46150SOL    HW250176  12.894   0.652  11.783 -0.2840 -0.9461 -0.0019
46151SOL     OW50177   5.104   0.329   2.909 -0.2479  0.1314 -0.3436
46151SOL    HW150178   5.120   0.274   2.833  1.8891 -1.2170  0.9719
46151SOL    HW250179   5.065   0.409   2.874  0.5461 -0.4986 -2.8263
46152SOL     OW50180  10.011   2.747  11.041 -0.5736 -0.0268  0.3711
46152SOL    HW150181  10.093   2.705  11.067 -0.5844 -0.6340 -0.5410
46152SOL    HW250182   9.943   2.697  11.086 -0.6332 -1.4353 -1.2070
46153SOL     OW50183   7.788  10.712   6.033 -0.4228  0.4314 -0.0736
46153SOL    HW150184   7.850  10.716   5.961  1.2736  2.7390  1.3721
46153SOL    HW250185   7.702  10.706   5.991  0.4481  2.5632 -2.3622
46154SOL     OW50186   8.788  12.199  13.626  0.3196 -0.2927  0.0517
46154SOL    HW150187   8.795  12.243  13.711  1.7437 -2.8401  1.3609
46154SOL    HW250188   8.763  12.109  13.647  1.5267 -1.2261 -2.1274
46155SOL     OW50189   2.203   7.139   4.925 -0.6164  0.4096  0.0936
46155SOL    HW150190   2.114   7.106   4.936 -0.3021 -0.5064  0.0004
46155SOL    HW250191   2.258   7.060   4.926  0.7601  1.1159  5.1273
46156SOL     OW50192  12.778   4.908   9.910 -0.2736 -0.3927  0.1447
46156SOL    HW150193  12.802   4.973   9.976  0.0084 -0.5066  0.1550
46156SOL    HW250194  12.805   4.947   9.827 -1.9911  0.4231 -0.0846
46157SOL     OW50195  12.406   2.206   0.008  0.7725 -0.6085  0.6057
46157SOL    HW150196  12.494   2.184   0.037  0.8646 -0.3342  0.5400
46157SOL    HW250197  12.420   2.267  -0.065  0.4974  1.2486  2.0515
46158SOL     OW50198   3.398   9.567   3.728  0.5327 -0.1056 -0.2551
46158SOL    HW150199   3.377   9.608   3.812 -0.2257  1.0130 -0.9740
46158SOL    HW250200   3.329   9.502   3.716 -1.1645  1.7798 -1.3790
46159SOL     OW50201   5.987  13.282   1.858 -0.9822 -0.3258 -0.5535
46159SOL    HW150202   5.973  13.191   1.884 -0.6467  0.1365  1.3812
46159SOL    HW250203   6.042  13.276   1.780 -0.7057 -1.7729 -0.2815
46160SOL     OW50204  13.502   7.626   9.719  0.9944 -0.4013 -0.2667
46160SOL    HW150205  13.555   7.554   9.752  1.8280  0.9045  1.4102
46160SOL    HW250206  13.475   7.598   9.631  2.5522 -2.0714 -0.2737
46161SOL     OW50207   6.178   2.833   6.699 -0.2340  0.0664  0.0288
46161SOL    HW150208   6.234   2.761   6.670 -0.4430 -0.7125  1.4328
46161SOL    HW250209   6.183   2.898   6.629  0.8264 -0.8477 -0.7780
46162SOL     OW50210   4.795   6.445   6.420 -0.7484  1.0623 -0.4621
46162SOL    HW150211   4.777   6.427   6.327  0.0060 -2.9376 -0.0213
46162SOL    HW250212   4.867   6.509   6.418  0.0281  0.2324 -2.7243
46163SOL     OW50213   1.306   1.751   0.315  0.3951 -0.1594  0.3348
46163SOL    HW150214   1.221   1.770   0.354 -0.1373  1.2570 -1.4179
46163SOL    HW250215   1.295   1.666   0.273 -0.3191  0.2421 -0.3019
46164SOL     OW50216  12.359   2.502   0.733 -0.4107  0.2078 -0.1038
46164SOL    HW150217  12.372   2.522   0.826 -0.5669  0.5550 -0.1513
46164SOL    HW250218  12.443   2.523   0.692  0.3081 -1.7885  0.2278
46165SOL     OW50219  10.944   3.738   4.018 -0.5059 -0.1674 -0.0245
46165SOL    HW150220  10.987   3.797   3.955 -0.7699 -1.2857 -1.2901
46165SOL    HW250221  10.894   3.678   3.964 -1.4629 -0.6195  1.3203
46166SOL     OW50222   4.921  11.159   8.108  0.4848  0.1362  0.3119
46166SOL    HW150223   4.955  11.248   8.096  1.9616 -0.4957 -0.5583
46166SOL    HW250224   5.000  11.104   8.113 -0.3897 -1.2996 -0.7064
46167SOL     OW50225   0.776  10.103   6.390 -0.2916 -0.2494  0.2271
46167SOL    HW150226   0.799  10.164   6.320  0.1867  2.0166  2.2261
46167SOL    HW250227   0.849  10.040   6.393  0.3736  0.4750 -0.3947
46168SOL     OW50228   0.418   9.823  13.570  0.0103 -0.7239  0.3461
46168SOL    HW150229   0.395   9.771  13.647  0.0863  0.1597  0.9724
46168SOL    HW250230   0.337   9.867  13.545  0.0551 -0.7867  0.0819
46169SOL     OW50231   1.349   0.067   9.022 -0.5004  0.0511  0.0975
46169SOL    HW150232   1.342  -0.004   8.959 -1.8511  1.9613 -2.0629
46169SOL    HW250233   1.443   0.075   9.040 -0.0501 -0.4401 -1.8391
46170SOL     OW50234   8.187   7.280   0.327 -0.1045 -0.1601 -0.0754
46170SOL    HW150235   8.268   7.229   0.324 -0.5423 -0.9003  0.5165
46170SOL    HW250236   8.117   7.216   0.314 -0.6182  0.4304 -0.3087
46171SOL     OW50237   0.522   6.091  11.745 -0.1621 -0.4536  0.1306
46171SOL    HW150238   0.586   6.057  11.808  0.7386  1.5908  0.4221
46171SOL    HW250239   0.572   6.099  11.663 -0.4719 -0.2808 -0.0428
46172SOL     OW50240  12.709   0.731   3.384 -0.2441  0.1016 -0.3158
46172SOL    HW150241  12.801   0.707   3.389 -0.1503  0.6062  0.4303
46172SOL    HW250242  12.679   0.737   3.475 -0.4359  2.0676 -0.4460
46173SOL     OW50243  11.264   6.035   7.544 -0.3908 -0.1857  0.0113
46173SOL    HW150244  11.231   6.121   7.572 -0.1710 -0.4699  1.2305
46173SOL    HW250245  11.357   6.051   7.524 -0.2156 -0.2372  0.7594
46174SOL     OW50246   5.673   5.912  11.978  0.7722  0.4749 -0.2475
46174SOL    HW150247   5.721   5.835  11.947  1.5431  0.6212  0.5263
46174SOL    HW250248   5.597   5.876  12.024  1.7851  0.1006  1.1962
46175SOL     OW50249   7.708  11.637   3.284 -1.0439  0.6692 -0.0994
46175SOL    HW150250   7.764  11.651   3.360  0.0992  1.1594 -1.0108
46175SOL    HW250251   7.647  11.711   3.285 -1.4643  0.3210  0.6984
46176SOL     OW50252  10.247   4.379  10.714 -0.0634 -0.0091  0.0982
46176SOL    HW150253  10.298   4.331  10.780  1.3061  1.3355  0.0730
46176SOL    HW250254  10.161   4.391  10.755  0.1428 -0.9115  0.8288
46177SOL     OW50255  12.065   6.455   1.211 -0.4792 -0.4095  0.8184
46177SOL    HW150256  12.015   6.515   1.267 -0.2683  0.0852  0.4811
46177SOL    HW250257  12.118   6.404   1.272  1.0262  1.2746  0.9938
46178SOL     OW50258  10.902   4.727   5.894  0.3205 -0.4859 -0.3912
46178SOL    HW150259  10.926   4.686   5.977 -0.0337 -1.7377 -0.8806
46178SOL    HW250260  10.812   4.756   5.907  0.2857 -0.6280 -0.3107
46179SOL     OW50261   1.699   2.172   1.874 -0.5107 -0.5003 -0.1510
46179SOL    HW150262   1.612   2.197   1.843 -0.4315  0.2250  0.1791
46179SOL    HW250263   1.759   2.230   1.826 -0.3866  0.6384  1.2903
46180SOL     OW50264   9.701   2.538   7.084  0.0814 -0.0353 -0.0987
46180SOL    HW150265   9.676   2.623   7.121 -0.7929 -0.2385 -0.2077
46180SOL    HW250266   9.722   2.484   7.160  0.9828  0.3741 -0.0440
46181SOL     OW50267   9.178  12.791   5.920  0.1442 -0.1775  0.1587
46181SOL    HW150268   9.236  12.865   5.901 -0.6608  0.0707 -1.5386
46181SOL    HW250269   9.103  12.804   5.863 -0.4582 -1.8093  0.5132
46182SOL     OW50270   0.204   2.228   3.311 -0.2792 -0.1508 -0.2428
46182SOL    HW150271   0.299   2.232   3.303 -0.1980  1.4781  0.9900
46182SOL    HW250272   0.187   2.241   3.404 -1.7036 -0.9477 -0.3590
46183SOL     OW50273   6.249  12.617  13.225 -0.0203  0.3562  0.9261
46183SOL    HW150274   6.189  12.690  13.208 -1.5068 -0.9491  0.2884
46183SOL    HW250275   6.300  12.609  13.144 -1.7610 -0.9778 -0.1165
46184SOL     OW50276  11.227   2.089  13.334 -0.1587 -0.0091 -0.1099
46184SOL    HW150277  11.157   2.043  13.287 -0.4588  0.9034 -0.5920
46184SOL    HW250278  11.306   2.071  13.282 -0.3592  0.3987 -0.5657
46185SOL     OW50279  13.694   8.100   8.640 -0.1569  0.5327  0.4815
46185SOL    HW150280  13.712   8.007   8.640 -2.0328  0.0966 -0.8229
46185SOL    HW250281  13.599   8.106   8.654 -0.4674  2.0668 -1.6503
46186SOL     OW50282   5.534   9.249   8.201  0.2473  0.0699 -0.2967
46186SOL    HW150283   5.544   9.154   8.190 -0.9842 -0.3021  1.3866
46186SOL    HW250284   5.623   9.283   8.200  0.7561 -1.2065 -0.1913
46187SOL     OW50285   2.976  11.239   5.697  0.3274  0.2692 -0.1363
46187SOL    HW150286   2.945  11.201   5.615  0.4875  2.2819 -1.1938
46187SOL    HW250287   3.060  11.279   5.676  1.5095 -1.1046  1.6002
46188SOL     OW50288  11.134  13.221   0.487  0.4643  0.4034  0.3970
46188SOL    HW150289  11.103  13.181   0.568  0.5571 -0.7483 -0.1139
46188SOL    HW250290  11.228  13.232   0.501  0.5550 -0.1967  0.2909
46189SOL     OW50291   7.547  11.485  10.005 -0.1556  0.1681  0.6338
46189SOL    HW150292   7.482  11.479  10.075 -1.2424  0.2149 -0.3336
46189SOL    HW250293   7.531  11.570   9.964  1.4055  0.7668  1.1880
46190SOL     OW50294   7.920   1.290  11.082 -0.8230  0.2317 -0.4002
46190SOL    HW150295   7.917   1.300  11.177  1.4037  2.1241 -0.4094
46190SOL    HW250296   7.847   1.343  11.049 -1.5753 -0.3991  0.2315
46191SOL     OW50297   6.443  10.107   0.583 -0.0187 -0.6490 -0.3013
46191SOL    HW150298   6.362  10.146   0.548 -0.5223 -0.5474  0.9329
46191SOL    HW250299   6.447  10.020   0.542 -1.2050 -0.9856  0.2410
46192SOL     OW50300   4.845   2.638   4.689  0.4217 -0.5160  0.1310
46192SOL    HW150301   4.852   2.703   4.758  0.0268  0.0598 -0.3602
46192SOL    HW250302   4.818   2.558   4.733 -0.8904  0.1178  0.5059
46193SOL     OW50303   1.033   8.490   5.847  0.2410 -0.2419 -0.0641
46193SOL    HW150304   1.092   8.432   5.800  1.2480 -1.4524  2.5046
46193SOL    HW250305   1.083   8.570   5.862 -0.2460  0.3402 -1.3324
46194SOL     OW50306   8.749   4.844  10.284  0.2364  0.2889  0.0528
46194SOL    HW150307   8.733   4.929  10.244  1.2269  0.3809 -0.1631
46194SOL    HW250308   8.843   4.842  10.301  0.4805 -1.2976 -1.2156
46195SOL     OW50309   8.688  13.076  10.933  0.8029  0.7137  0.4579
46195SOL    HW150310   8.627  13.007  10.905 -1.0053  1.3341  2.5117
46195SOL    HW250311   8.679  13.144  10.867 -2.5094  1.6898  1.6733
46196SOL     OW50312  11.600  13.365   0.140  0.1148  0.7361  0.0609
46196SOL    HW150313  11.696  13.365   0.132  0.1928  1.2641  0.9357
46196SOL    HW250314  11.584  13.384   0.232 -0.8086 -0.9468  0.2937
46197SOL     OW50315   7.008  12.723   2.734  0.0672  0.0954 -0.5529
46197SOL    HW150316   7.060  12.787   2.782 -0.6102  1.2768 -1.3378
46197SOL    HW250317   7.071  12.682   2.673  0.5848 -0.2938  0.2257
46198SOL     OW50318   6.360  12.266   8.567 -0.3388 -0.3966  0.2235
46198SOL    HW150319   6.329  12.224   8.648  1.5316  1.4828  2.0316
46198SOL    HW250320   6.343  12.359   8.580  0.2821 -0.0164 -1.4411
46199SOL     OW50321   9.760   0.622  11.560  0.2061  0.0268  0.0034
46199SOL    HW150322   9.787   0.531  11.567  0.3262  0.1377  1.0781
46199SOL    HW250323   9.841   0.670  11.544  0.5445  0.2321  2.1118
46200SOL     OW50324   8.571   5.542   7.729 -0.5222  0.1898  0.3398
46200SOL    HW150325   8.534   5.555   7.815 -1.5612  0.6398 -0.1605
46200SOL    HW250326   8.665   5.528   7.745 -0.5212  1.3360  1.4527
46201SOL     OW50327  10.256   1.125   7.530 -0.6866  0.1848  0.5678
46201SOL    HW150328  10.226   1.037   7.553  1.2711 -0.0039  2.7298
46201SOL    HW250329  10.268   1.170   7.613  2.0484  1.1757 -0.2384
46202SOL     OW50330   0.527   7.092   9.544  0.4670 -0.4049 -0.4283
46202SOL    HW150331   0.496   7.098   9.635  1.7319 -0.0651  0.0045
46202SOL    HW250332   0.538   7.183   9.516 -1.1749 -0.4701 -1.4062
46203SOL     OW50333   9.321   3.910  12.589  0.2665 -0.2670  0.3600
46203SOL    HW150334   9.236   3.955  12.593  1.0963  1.3940  0.2721
46203SOL    HW250335   9.335   3.877  12.678 -0.4406 -0.5276  0.3850
46204SOL     OW50336   2.120  11.162   3.776  0.4854  0.0327 -0.0777
46204SOL    HW150337   2.072  11.239   3.806 -0.2880 -0.2426 -0.5665
46204SOL    HW250338   2.087  11.091   3.830  0.5910 -0.1031 -0.1926
46205SOL     OW50339   5.416   0.584  11.074 -0.1854  0.1372  0.2869
46205SOL    HW150340   5.418   0.663  11.128  1.2537  0.1753  0.2007
46205SOL    HW250341   5.508   0.560  11.061 -0.5625 -1.0082 -0.4928
46206SOL     OW50342   9.765   3.996   6.188 -0.1171 -0.1909  0.0950
46206SOL    HW150343   9.671   3.989   6.173 -0.3659  1.4768  0.6964
46206SOL    HW250344   9.791   4.074   6.139  1.0369 -0.8659 -0.3979
46207SOL     OW50345  12.752   3.148  12.696  0.3587 -0.2290 -0.4384
46207SOL    HW150346  12.745   3.234  12.654 -0.7443 -0.9518 -1.8154
46207SOL    HW250347  12.715   3.087  12.632  1.2813 -1.7667  0.4355
46208SOL     OW50348   7.898   8.431   6.787 -0.2789  0.8244  0.0565
46208SOL    HW150349   7.854   8.349   6.810  3.2886 -1.7507 -1.4616
46208SOL    HW250350   7.872   8.448   6.696  0.3069  0.3932 -0.1955
46209SOL     OW50351  11.155  11.377   9.937 -0.3995  0.1205 -0.6871
46209SOL    HW150352  11.156  11.353   9.844 -1.4273  1.4151 -1.0563
46209SOL    HW250353  11.231  11.333   9.973  0.1307 -0.2664 -2.1824
46210SOL     OW50354  10.604   3.815   4.394 -0.4311 -0.1510 -0.6623
46210SOL    HW150355  10.582   3.806   4.486 -0.2873 -0.3734 -0.6499
46210SOL    HW250356  10.520   3.816   4.349 -0.4708 -1.7651 -0.6880
46211SOL     OW50357   0.381   9.289  10.819  0.3313 -0.4325  0.0961
46211SOL    HW150358   0.286   9.300  10.821  0.3087 -0.4003 -0.8370
46211SOL    HW250359   0.408   9.298  10.910 -0.2614  2.3345  0.0753
46212SOL     OW50360   4.754  13.710  13.567 -0.2939  0.0026  0.2047
46212SOL    HW150361   4.772  13.745  13.654  0.2242 -0.0957  0.1435
46212SOL    HW250362   4.739  13.788  13.513 -1.8607  0.0240  0.6307
46213SOL     OW50363  13.352  13.632   2.593 -0.0399 -0.2312 -1.0982
46213SOL    HW150364  13.408  13.708   2.575 -1.0327  1.1244  1.0894
46213SOL    HW250365  13.318  13.648   2.681 -3.9877 -0.8532 -2.3290
46214SOL     OW50366   7.064   4.799  13.228 -0.5910  0.9089 -0.6039
46214SOL    HW150367   7.145   4.846  13.250 -0.2851  0.7209 -1.3196
46214SOL    HW250368   6.995   4.850  13.271 -0.1857  1.5746 -0.7250
46215SOL     OW50369   8.273   7.167   8.405 -0.1305 -0.0147  0.2469
46215SOL    HW150370   8.251   7.260   8.400  0.6083  0.2483  1.5544
46215SOL    HW250371   8.210   7.125   8.347 -0.2061  1.3374 -0.6921
46216SOL     OW50372  10.553   5.385  13.657 -0.3958 -0.4827 -0.2563
46216SOL    HW150373  10.517   5.473  13.662 -0.4493 -0.4874 -0.5593
46216SOL    HW250374  10.479   5.328  13.676 -0.1608 -0.4401  0.8956
46217SOL     OW50375  11.353   0.150  10.763 -0.5268 -0.2646 -0.8580
46217SOL    HW150376  11.439   0.110  10.770 -1.3038 -1.7943  0.6373
46217SOL    HW250377  11.322   0.125  10.675 -0.6708 -2.3609 -0.2588
46218SOL     OW50378   7.676   2.884   5.132  0.1834  0.1815 -0.0350
46218SOL    HW150379   7.738   2.892   5.059 -0.6491  0.4247 -0.7414
46218SOL    HW250380   7.698   2.800   5.173  0.0362 -0.4413 -1.1873
46219SOL     OW50381  12.832  10.187   4.864  0.0909  0.4090 -0.1436
46219SOL    HW150382  12.737  10.200   4.870  0.0254 -0.0786 -0.1213
46219SOL    HW250383  12.849  10.111   4.919  0.6315  1.0888  0.6574
46220SOL     OW50384   1.547   8.931   4.285 -0.1368  0.5069  0.0526
46220SOL    HW150385   1.541   8.846   4.241 -1.0489  0.8691 -0.5568
46220SOL    HW250386   1.602   8.983   4.227  0.5842  0.2867  0.5236
46221SOL     OW50387   3.994   8.444  11.274  0.9664 -0.4384 -0.4656
46221SOL    HW150388   4.074   8.487  11.306  0.6003 -0.1771  0.1312
46221SOL    HW250389   4.025   8.375  11.216  1.6631 -0.7319  0.2335
46222SOL     OW50390   0.544   0.433  12.942 -0.1439  0.4291 -0.2112
46222SOL    HW150391   0.595   0.514  12.944  1.3294 -0.4327 -1.4459
46222SOL    HW250392   0.459   0.460  12.906  0.8272  1.1967 -2.0490
46223SOL     OW50393  11.557   8.842  12.802 -0.1960 -0.1813  0.1217
46223SOL    HW150394  11.601   8.810  12.724 -0.5136  0.1583 -0.2032
46223SOL    HW250395  11.613   8.815  12.874 -0.2983 -1.1836 -0.1589
46224SOL     OW50396   1.911  12.744   7.349  0.1681  0.5998  0.2154
46224SOL    HW150397   1.871  12.743   7.262  2.5533  1.4293 -0.9918
46224SOL    HW250398   1.874  12.821   7.391  1.5833  2.3132 -1.4876
46225SOL     OW50399  12.490  12.618   0.316  0.2968 -0.8789 -0.1950
46225SOL    HW150400  12.503  12.530   0.349  0.8745 -0.8078 -0.2208
46225SOL    HW250401  12.428  12.658   0.376  0.5704 -1.0759  0.2256
46226SOL     OW50402   6.885   9.702   6.465 -0.6884  0.0921 -0.6132
46226SOL    HW150403   6.856   9.793   6.459 -3.7293 -0.7954 -1.2305
46226SOL    HW250404   6.870   9.677   6.556 -2.8839 -0.5848 -1.0929
46227SOL     OW50405   5.219   1.753   8.227  0.4276  0.2773 -0.6909
46227SOL    HW150406   5.251   1.701   8.154 -1.1733 -1.4015 -0.2817
46227SOL    HW250407   5.146   1.803   8.190  0.6752  0.7071 -0.6093
46228SOL     OW50408  10.949   5.575   6.526  0.0201  0.2749  0.1096
46228SOL    HW150409  11.024   5.634   6.532 -0.8486  1.4457 -0.2509
46228SOL    HW250410  10.933   5.546   6.616  1.2118 -0.4113  0.1199
46229SOL     OW50411  10.790   3.182   2.485 -0.1514 -0.0116 -0.2020
46229SOL    HW150412  10.709   3.222   2.453  0.1645  0.6305 -0.2034
46229SOL    HW250413  10.783   3.090   2.457  0.0599  0.4896 -2.0344
46230SOL     OW50414   8.152  13.484   1.085 -0.1197  0.1206  0.9784
46230SOL    HW150415   8.129  13.558   1.141  0.2341 -0.6683  2.2018
46230SOL    HW250416   8.076  13.426   1.089 -1.3499  1.3580 -1.7518
46231SOL     OW50417   3.746  12.801   2.885 -0.2247  0.5372 -0.1194
46231SOL    HW150418   3.787  12.715   2.894 -0.9427  0.2397  0.3812
46231SOL    HW250419   3.764  12.845   2.968  2.5345  1.9723 -1.3229
46232SOL     OW50420   1.624  10.817  11.182  0.0782  0.4084 -0.2855
46232SOL    HW150421   1.605  10.793  11.272 -0.0391  1.1845 -0.1006
46232SOL    HW250422   1.606  10.911  11.177  0.9280  0.5471 -0.8910
46233SOL     OW50423  10.406   8.994  12.792  0.0661 -0.1629 -0.2420
46233SOL    HW150424  10.414   9.037  12.878 -0.3004  0.4308 -0.5030
46233SOL    HW250425  10.363   9.059  12.737  0.9428 -0.2732 -1.0779
46234SOL     OW50426  12.957  12.099   3.530  0.1558 -0.0541 -0.1239
46234SOL    HW150427  12.910  12.061   3.455 -0.0076 -1.1504  0.5171
46234SOL    HW250428  12.923  12.189   3.535 -0.4583 -0.2270 -0.8495
46235SOL     OW50429  13.254   6.470  11.205  0.1276  0.3994 -0.5015
46235SOL    HW150430  13.324   6.405  11.207 -0.3253 -0.0719 -0.0251
46235SOL    HW250431  13.208   6.453  11.122 -0.5192 -0.4581  0.0168
46236SOL     OW50432   2.353   7.282   8.395  0.0689 -0.2722 -0.0841
46236SOL    HW150433   2.320   7.357   8.443  0.9041 -0.2509  0.4773
46236SOL    HW250434   2.311   7.206   8.437 -0.7425 -0.1433 -0.6264
46237SOL     OW50435   0.135  12.739   3.434  0.4104  0.2746 -0.1615
46237SOL    HW150436   0.143  12.803   3.505  1.4075  0.6585 -0.6039
46237SOL    HW250437   0.194  12.668   3.459  0.4360  0.2151 -0.3850
46238SOL     OW50438   9.861  10.548   7.493  0.1091 -0.5562  0.4402
46238SOL    HW150439   9.787  10.603   7.515 -0.3780 -1.8316  2.2257
46238SOL    HW250440   9.823  10.468   7.458  0.8310  1.0227 -4.7544
46239SOL     OW50441   9.714  11.249   0.866 -0.0882 -0.0310  0.3083
46239SOL    HW150442   9.721  11.160   0.833  1.1371  1.2338 -3.3389
46239SOL    HW250443   9.802  11.269   0.900  0.1816  0.3437 -0.5883
46240SOL     OW50444   2.878  10.474   5.212 -0.8152  0.4373 -0.1369
46240SOL    HW150445   2.926  10.436   5.138 -1.4259 -4.0862  1.4979
46240SOL    HW250446   2.929  10.449   5.289 -2.1953  1.6938  1.2395
46241SOL     OW50447  12.555   8.125   1.477 -0.0359 -0.3426 -0.2596
46241SOL    HW150448  12.478   8.075   1.504  0.0695 -0.1707  0.3716
46241SOL    HW250449  12.628   8.081   1.520 -0.2003  1.9937  2.6829
46242SOL     OW50450   1.088   1.729   5.407 -0.3433  0.4773  0.3193
46242SOL    HW150451   1.066   1.672   5.481  0.4394 -0.1802  0.0697
46242SOL    HW250452   1.052   1.814   5.430  0.0668  0.3347  1.5473
46243SOL     OW50453  10.117  11.157  11.339 -0.2698  0.2914  0.5169
46243SOL    HW150454  10.101  11.197  11.254  2.6526  0.9824  0.1678
46243SOL    HW250455  10.073  11.214  11.402  0.6089  1.9144 -0.2908
46244SOL     OW50456   6.336  12.090  10.102 -0.0885 -0.1609  0.2663
46244SOL    HW150457   6.241  12.075  10.095 -0.0202 -0.2431 -0.7026
46244SOL    HW250458   6.363  12.037  10.177 -0.7886 -0.2489  0.4676
46245SOL     OW50459  13.165  10.275   5.596  0.0945  0.5363 -0.2370
46245SOL    HW150460  13.119  10.223   5.662 -0.4172  2.1706  0.7554
46245SOL    HW250461  13.116  10.261   5.515  1.2370 -2.1921 -0.5774
46246SOL     OW50462   7.284   8.223  11.056  0.1213  0.9120  0.3624
46246SOL    HW150463   7.249   8.299  11.009 -0.6268  0.6878  0.5319
46246SOL    HW250464   7.334   8.261  11.129 -0.9497  1.2585  0.9464
46247SOL     OW50465   0.988   2.258   3.786  0.2566  0.3671 -0.6997
46247SOL    HW150466   1.073   2.290   3.755  0.1563  0.7004 -0.6351
46247SOL    HW250467   0.945   2.225   3.708  0.0882  1.0167 -0.8873
46248SOL     OW50468   0.148   4.731   1.436 -0.0184  0.1850  0.2600
46248SOL    HW150469   0.129   4.762   1.348  1.6410  0.0898 -0.1605
46248SOL    HW250470   0.080   4.771   1.491 -1.7353 -0.5886 -1.1705
46249SOL     OW50471   9.049   2.457  11.647 -0.5125  0.2737  0.2464
46249SOL    HW150472   9.144   2.458  11.655 -0.3419  1.4472 -1.4898
46249SOL    HW250473   9.028   2.367  11.620  0.2661  0.4064 -0.8604
46250SOL     OW50474  10.739  11.588  11.528  0.3336 -0.1719 -0.3500
46250SOL    HW150475  10.695  11.672  11.542 -0.5942 -0.7282  0.1938
46250SOL    HW250476  10.810  11.587  11.593 -0.1435 -0.1324  0.1834
46251SOL     OW50477  11.256  10.308   9.606 -0.6779  0.1670  0.3083
46251SOL    HW150478  11.193  10.308   9.534 -0.7603  0.7807  0.3681
46251SOL    HW250479  11.316  10.237   9.586 -0.0552  1.0072 -0.9506
46252SOL     OW50480  12.406   5.585   8.449  0.8376  0.2744 -0.0567
46252SOL    HW150481  12.448   5.656   8.400 -1.3427  1.0918 -0.8578
46252SOL    HW250482  12.314   5.610   8.452  0.1594 -2.1169  0.4428
46253SOL     OW50483   6.106   2.392   2.114  0.0502  0.2465 -0.0876
46253SOL    HW150484   6.060   2.376   2.032 -1.2833 -0.3598  0.7398
46253SOL    HW250485   6.040   2.376   2.182  1.1388  0.6465  1.1078
46254SOL     OW50486  12.122  10.781   4.262 -0.1684 -0.9390  1.0483
46254SOL    HW150487  12.116  10.876   4.253 -0.7514 -1.0756 -0.2990
46254SOL    HW250488  12.207  10.759   4.224  0.3763 -0.8910  2.1924
46255SOL     OW50489   1.047  10.573   9.120 -0.0041  0.1697  0.0281
46255SOL    HW150490   0.997  10.654   9.129  1.0621  0.7016  1.4198
46255SOL    HW250491   1.132  10.602   9.087  0.0622 -0.4993 -0.3925
46256SOL     OW50492  12.392   1.354   9.414  0.2939  0.3686 -0.1563
46256SOL    HW150493  12.462   1.292   9.436 -0.8203 -0.0580  2.7465
46256SOL    HW250494  12.436   1.438   9.407  1.3977 -0.2356 -0.7084
46257SOL     OW50495   0.620   3.689  10.113  0.4712  0.2721  0.3758
46257SOL    HW150496   0.630   3.759  10.177  1.6364 -0.0999  0.6359
46257SOL    HW250497   0.688   3.625  10.136  1.2620  0.3561 -1.5170
46258SOL     OW50498  13.329   0.940  10.293 -0.1157  0.3685 -0.0342
46258SOL    HW150499  13.399   0.882  10.265 -0.7467 -1.4100  1.8049
46258SOL    HW250500  13.258   0.881  10.319 -1.2787  2.0077  0.7024
46259SOL     OW50501  10.776   6.905   7.784 -0.4103 -0.0039  0.2130
46259SOL    HW150502  10.867   6.931   7.768 -0.4948  0.2094  0.0518
46259SOL    HW250503  10.759   6.930   7.875 -0.6085  0.8916 -0.0544
46260SOL     OW50504   5.301   2.369   0.985 -0.0473  0.8194  0.5113
46260SOL    HW150505   5.396   2.383   0.977 -0.2186  1.4017 -0.9107
46260SOL    HW250506   5.275   2.334   0.900 -1.1778  1.0377  0.7499
46261SOL     OW50507   9.845   8.413   5.607  0.2376  0.5748  0.8598
46261SOL    HW150508   9.826   8.480   5.541 -0.0749  0.1825  0.5506
46261SOL    HW250509   9.856   8.332   5.557 -1.1650  0.0400  1.3741
46262SOL     OW50510   2.027  11.855  10.975  0.0227 -0.3192  0.1172
46262SOL    HW150511   2.057  11.923  11.035 -1.4629  0.4263  0.0618
46262SOL    HW250512   1.992  11.904  10.900 -1.9731 -1.0751  0.4968
46263SOL     OW50513   3.397   0.130   4.913 -0.2707  0.1976  0.3435
46263SOL    HW150514   3.431   0.219   4.921 -0.1689  0.3165 -1.1816
46263SOL    HW250515   3.472   0.074   4.933 -0.3121  0.4408  1.2219
46264SOL     OW50516   7.759   3.756   9.439 -0.0014  1.0267  0.0470
46264SOL    HW150517   7.677   3.748   9.390 -0.0245  1.7257 -0.0434
46264SOL    HW250518   7.821   3.699   9.393 -1.0937 -1.6081  1.6479
46265SOL     OW50519   1.124  11.359   4.297  0.7476 -0.2464 -0.1278
46265SOL    HW150520   1.074  11.333   4.374  1.5871  0.4785  0.6825
46265SOL    HW250521   1.192  11.291   4.288  0.8039 -0.1956 -0.0848
46266SOL     OW50522  11.270   3.960  10.282 -0.5810  0.4484  0.2008
46266SOL    HW150523  11.209   3.932  10.214  0.5772 -0.8262 -0.3553
46266SOL    HW250524  11.240   4.048  10.307 -1.8653  0.3575 -0.9387
46267SOL     OW50525  12.496  11.645   0.107  0.6466 -0.2226 -0.4013
46267SOL    HW150526  12.455  11.638   0.194  0.6632 -0.1588 -0.3882
46267SOL    HW250527  12.554  11.721   0.114 -2.2377  2.2883 -1.6230
46268SOL     OW50528   3.942   4.760   5.723 -0.5429 -0.3660 -0.1484
46268SOL    HW150529   3.878   4.831   5.727 -0.3454 -0.1253 -1.0646
46268SOL    HW250530   4.025   4.802   5.744 -0.3750 -0.2412 -1.0087
46269SOL     OW50531   7.113   8.865   3.718  0.0628 -0.3541  0.1663
46269SOL    HW150532   7.185   8.827   3.769  2.2249 -0.8044 -2.9252
46269SOL    HW250533   7.134   8.959   3.714  1.2680 -0.6469 -1.7086
46270SOL     OW50534   2.517   1.241   5.603 -0.2310  0.8783 -0.6927
46270SOL    HW150535   2.501   1.197   5.687  1.0665 -0.3605 -1.0697
46270SOL    HW250536   2.596   1.200   5.569  0.5595  2.9546 -1.4725
46271SOL     OW50537  12.029   2.575  13.623 -0.0356 -0.8735  0.0097
46271SOL    HW150538  11.935   2.593  13.624  0.3230  1.5533 -1.5854
46271SOL    HW250539  12.063   2.617  13.701 -0.4633 -3.8770  1.9988
46272SOL     OW50540   9.719   1.588  13.179 -0.0435  0.5709 -0.2401
46272SOL    HW150541   9.711   1.625  13.267 -1.5775 -1.2801  0.4556
46272SOL    HW250542   9.652   1.633  13.128 -0.7478  0.0084  0.1658
46273SOL     OW50543  11.695   6.980  11.663 -0.2854  0.3087 -0.0879
46273SOL    HW150544  11.616   7.030  11.685 -1.0656 -0.2552 -1.4852
46273SOL    HW250545  11.710   6.999  11.570 -0.6603 -2.0655 -0.7040
46274SOL     OW50546  12.648   4.686   5.910 -0.4085  0.2060 -0.1116
46274SOL    HW150547  12.734   4.704   5.948 -1.5535  1.5183  1.9922
46274SOL    HW250548  12.650   4.729   5.824  1.7990 -1.7943 -1.2064
46275SOL     OW50549   8.373   2.245   3.842 -0.1874 -0.1238  0.2338
46275SOL    HW150550   8.413   2.164   3.875  0.5224  0.3583  0.5706
46275SOL    HW250551   8.390   2.243   3.747 -0.9330 -0.7836  0.1022
46276SOL     OW50552   4.691   1.575   6.729 -0.0063 -0.8818  0.0238
46276SOL    HW150553   4.713   1.621   6.649 -0.3894  0.3805  0.6262
46276SOL    HW250554   4.702   1.482   6.707 -0.1727 -0.5672 -1.4929
46277SOL     OW50555  11.326   0.621   5.134  0.4992  0.1939 -0.5390
46277SOL    HW150556  11.419   0.647   5.141  0.3677  0.4728  0.4637
46277SOL    HW250557  11.324   0.531   5.168  0.1740  0.7813  1.1215
46278SOL     OW50558  11.693   4.321  13.724  0.0042 -0.4295 -0.4595
46278SOL    HW150559  11.761   4.266  13.763 -0.1065  0.1711  0.5904
46278SOL    HW250560  11.638   4.259  13.675 -0.0649 -1.2566  0.6339
46279SOL     OW50561  10.298  11.057   1.371  0.2876 -0.2288  0.1054
46279SOL    HW150562  10.370  11.038   1.311  1.8376  0.2398  1.6967
46279SOL    HW250563  10.315  11.001   1.447 -0.6376  0.3971  0.7963
46280SOL     OW50564   0.704  12.761   7.841 -0.3432  0.1835  1.0933
46280SOL    HW150565   0.794  12.734   7.825 -0.7144  0.2252 -1.5084
46280SOL    HW250566   0.706  12.857   7.835 -0.6698  0.1434  0.1115
46281SOL     OW50567   0.630   7.678   0.863  0.2187 -0.4749 -0.1925
46281SOL    HW150568   0.676   7.719   0.790 -0.5313 -1.8394 -1.4740
46281SOL    HW250569   0.679   7.705   0.941  1.6022  0.2322 -1.2769
46282SOL     OW50570  13.457   7.560   7.149 -0.0283  0.2089 -0.8936
46282SOL    HW150571  13.450   7.533   7.058  0.2767  2.0375 -1.5082
46282SOL    HW250572  13.534   7.514   7.182  0.4641  0.3028 -1.8724
46283SOL     OW50573   5.252  12.776   9.347  0.2001  0.2231  0.1331
46283SOL    HW150574   5.187  12.833   9.386 -0.6671 -0.7637  0.1716
46283SOL    HW250575   5.332  12.828   9.346 -0.6632  1.6052 -0.2771
46284SOL     OW50576  11.140   4.728   7.299  0.0163 -0.4382  0.1707
46284SOL    HW150577  11.070   4.749   7.361 -1.5099 -1.5110 -1.1155
46284SOL    HW250578  11.197   4.668   7.347 -0.3662 -0.1575  0.9899
46285SOL     OW50579   2.341   7.054   6.197  0.3304  0.1370  0.3349
46285SOL    HW150580   2.406   7.025   6.261 -0.4129  0.6148  1.3414
46285SOL    HW250581   2.322   6.976   6.145  0.1475 -0.5687  1.4279
46286SOL     OW50582   3.352  10.293  10.565 -0.5741  0.2694  0.5144
46286SOL    HW150583   3.428  10.352  10.558 -0.2679 -0.2480 -0.7609
46286SOL    HW250584   3.276  10.348  10.548 -0.6978  1.1567  3.3818
46287SOL     OW50585   2.849   0.134   6.532 -0.6714  0.2488 -0.4978
46287SOL    HW150586   2.823   0.085   6.611 -0.6577 -1.2009 -1.3473
46287SOL    HW250587   2.857   0.066   6.465  3.4793  0.7983 -0.7866
46288SOL     OW50588   9.672   8.520  13.330 -0.0791 -0.3004  0.5541
46288SOL    HW150589   9.625   8.453  13.379 -0.1160 -1.5628 -1.1260
46288SOL    HW250590   9.764   8.497  13.341 -0.1047 -0.8866 -0.3127
46289SOL     OW50591   8.285   5.351  10.161 -0.0896  0.2022  0.2499
46289SOL    HW150592   8.364   5.403  10.176 -0.5419  1.1038 -0.3547
46289SOL    HW250593   8.279   5.344  10.065  0.7439 -2.2333  0.2984
46290SOL     OW50594   3.515  11.008  12.995 -0.4350 -0.4923 -0.4035
46290SOL    HW150595   3.504  10.917  13.023 -0.5735 -0.0615  1.0214
46290SOL    HW250596   3.576  11.045  13.059  0.8395  0.0298 -1.8556
46291SOL     OW50597  11.573   2.911   6.273 -0.3806 -0.2403 -0.6314
46291SOL    HW150598  11.484   2.929   6.245 -1.1734 -0.8633  1.3236
46291SOL    HW250599  11.587   2.818   6.253 -0.0650 -0.0833 -1.1631
46292SOL     OW50600   2.680  13.289  13.708  0.7390 -0.3071  0.2916
46292SOL    HW150601   2.654  13.204  13.745 -0.3502 -0.0275  0.2187
46292SOL    HW250602   2.747  13.267  13.643  0.6282 -1.0934  0.4256
46293SOL     OW50603   6.339   1.211   9.882 -0.3343  0.4845  0.0864
46293SOL    HW150604   6.323   1.262   9.803  1.9907  0.7981 -0.2615
46293SOL    HW250605   6.306   1.124   9.862 -2.8108  1.3580  0.0549
46294SOL     OW50606  10.257   5.558  13.020  0.0338  0.7505  0.1441
46294SOL    HW150607  10.224   5.557  13.110  1.2184 -0.2207  0.5979
46294SOL    HW250608  10.312   5.636  13.016 -0.6192  1.2209  0.0047
46295SOL     OW50609   9.714   8.737   6.425 -0.7937 -0.2904  0.0672
46295SOL    HW150610   9.705   8.701   6.336  0.6018 -0.2517 -0.1142
46295SOL    HW250611   9.633   8.712   6.469 -1.4023 -0.5323 -1.1415
46296SOL     OW50612  10.996   0.840   8.535  0.8974 -0.3897  0.4843
46296SOL    HW150613  11.079   0.885   8.552  1.1396 -0.7147  0.1768
46296SOL    HW250614  11.019   0.748   8.532  1.0238 -0.3487 -2.2494
46297SOL     OW50615   1.324   3.178   3.781  0.0186  0.1123 -0.4637
46297SOL    HW150616   1.399   3.229   3.812 -0.2288  0.4781 -0.4675
46297SOL    HW250617   1.361   3.092   3.759  0.6873  0.6792 -1.6727
46298SOL     OW50618  11.892   3.116   7.774 -0.3046  0.1891  0.5670
46298SOL    HW150619  11.977   3.107   7.817  0.0374  0.3096 -0.0761
46298SOL    HW250620  11.847   3.033   7.793  0.1768 -0.1038  0.4325
46299SOL     OW50621   5.925   6.297   7.680  0.2800 -0.4469  0.4101
46299SOL    HW150622   5.912   6.219   7.626 -1.4862 -1.4676  2.1654
46299SOL    HW250623   6.020   6.311   7.681  0.5076 -1.7088 -1.0918
46300SOL     OW50624   4.235  13.352   2.253 -0.1985  0.3056 -0.0914
46300SOL    HW150625   4.217  13.258   2.263  1.0030  0.0567 -0.1384
46300SOL    HW250626   4.274  13.378   2.337 -1.2505  0.9545  0.2113
46301SOL     OW50627   7.141  10.827  11.918 -0.3153 -0.0214  0.3231
46301SOL    HW150628   7.144  10.741  11.876 -2.8772 -0.3054  0.5698
46301SOL    HW250629   7.144  10.889  11.845  0.6884 -0.3292  0.0923
46302SOL     OW50630   9.634   2.059   2.698  0.5123 -0.0125  0.5597
46302SOL    HW150631   9.679   1.977   2.683  0.2883 -0.4949  2.2614
46302SOL    HW250632   9.553   2.035   2.744  0.1632  1.0939  0.5742
46303SOL     OW50633   8.499  12.953  11.981  0.9756  0.0731  0.1899
46303SOL    HW150634   8.586  12.912  11.983  0.5803 -0.7588  0.8159
46303SOL    HW250635   8.513  13.036  11.936  2.0034 -0.2747 -0.1625
46304SOL     OW50636   0.936   1.340   6.806 -0.0656  0.1236  0.4754
46304SOL    HW150637   0.947   1.357   6.712 -1.3676 -0.5883  0.1606
46304SOL    HW250638   0.967   1.251   6.818 -0.1955  0.1026  0.6599
46305SOL     OW50639  13.608   5.042  13.415 -0.1492 -0.3767 -0.4763
46305SOL    HW150640  13.570   5.120  13.457  1.0281 -0.1138  0.1305
46305SOL    HW250641  13.635   5.073  13.329  1.0060  0.1177  0.0347
46306SOL     OW50642   0.950   5.476   6.693 -0.6776 -0.4268 -0.6353
46306SOL    HW150643   0.949   5.443   6.783 -0.6118  3.3902  0.9357
46306SOL    HW250644   1.042   5.469   6.666 -0.3305  0.1664  0.3477
46307SOL     OW50645   7.635  11.315  11.691  0.9048  0.1468 -0.3403
46307SOL    HW150646   7.631  11.220  11.702 -0.0085  0.2677  0.5820
46307SOL    HW250647   7.652  11.348  11.780  2.2944  0.8034 -0.8244
46308SOL     OW50648   6.055   3.214   6.405 -0.5432  0.6509  0.2317
46308SOL    HW150649   6.088   3.166   6.329 -1.1677 -0.1124  0.4319
46308SOL    HW250650   6.105   3.295   6.406 -1.1576  1.0863 -1.5279
46309SOL     OW50651   4.251   3.405  10.464  0.0500  0.1598  0.2119
46309SOL    HW150652   4.346   3.398  10.465  0.0412 -0.7908  2.9311
46309SOL    HW250653   4.233   3.498  10.454  1.1398  0.2015 -2.1637
46310SOL     OW50654  13.671   0.937   3.504 -0.2031  0.0046  0.8318
46310SOL    HW150655  13.760   0.903   3.488  0.1149  1.4782 -0.8472
46310SOL    HW250656  13.616   0.859   3.509  0.5390 -0.9201 -2.5566
46311SOL     OW50657  11.017   1.585   2.683 -0.2471 -0.0311 -0.2331
46311SOL    HW150658  11.028   1.620   2.771  0.4923 -1.5586  0.3216
46311SOL    HW250659  10.979   1.498   2.696  1.3060 -0.9237 -1.2836
46312SOL     OW50660   3.459  11.643   9.123  0.2615 -0.2805  0.4529
46312SOL    HW150661   3.451  11.578   9.054  0.1478 -0.0676  0.2632
46312SOL    HW250662   3.406  11.609   9.195 -0.7194  0.1278 -0.0497
46313SOL     OW50663   1.687  13.231  10.343  0.2513 -0.2301  0.2873
46313SOL    HW150664   1.651  13.294  10.281  3.0644  2.4400  1.0791
46313SOL    HW250665   1.649  13.257  10.428  1.0474  0.1159  0.5449
46314SOL     OW50666  10.443  12.087  10.822  0.0500  0.0272 -0.0112
46314SOL    HW150667  10.360  12.126  10.796  0.1585  0.0569 -0.3108
46314SOL    HW250668  10.426  11.992  10.824  0.1297  0.0035 -0.4942
46315SOL     OW50669   7.591   3.718   5.179  0.4482  0.1522 -0.1309
46315SOL    HW150670   7.663   3.687   5.234  1.7111  0.6076 -1.4568
46315SOL    HW250671   7.519   3.733   5.240  2.1991  2.0020  1.6381
46316SOL     OW50672  10.475   1.696  13.192  0.2034 -0.3734 -0.5531
46316SOL    HW150673  10.401   1.752  13.218  0.9668 -0.5750  2.4485
46316SOL    HW250674  10.434   1.613  13.167 -0.6881  0.2566 -1.2738
46317SOL     OW50675  11.104   5.414   1.059 -0.0991  0.0877 -0.6673
46317SOL    HW150676  11.066   5.502   1.052  1.8361  0.9736 -0.6697
46317SOL    HW250677  11.166   5.409   0.986  1.2155 -0.5272  0.4502
46318SOL     OW50678   7.913  11.917   9.174 -0.4230  0.3245  0.0369
46318SOL    HW150679   7.997  11.942   9.212  0.7283  0.0372 -2.2123
46318SOL    HW250680   7.903  11.824   9.197 -0.4392  0.5029  0.7962
46319SOL     OW50681   7.639  12.199   7.588 -0.3315 -0.4304 -0.2951
46319SOL    HW150682   7.583  12.243   7.524 -1.5119  0.1912  1.1082
46319SOL    HW250683   7.582  12.131   7.626 -0.6411  1.0530  2.0892
46320SOL     OW50684  11.250  10.503   0.267  0.3286 -0.0204 -0.2619
46320SOL    HW150685  11.195  10.491   0.345 -0.7685  2.0501 -0.6414
46320SOL    HW250686  11.318  10.437   0.275  0.1592  0.0304  2.3786
46321SOL     OW50687   8.932   9.558  13.298  0.3202  0.4366  0.4251
46321SOL    HW150688   8.915   9.614  13.374  1.0064 -1.2219  1.8666
46321SOL    HW250689   9.002   9.500  13.327  0.1851 -0.6415 -1.2976
46322SOL     OW50690   0.887   0.470   3.966 -0.0817  0.7052  0.2657
46322SOL    HW150691   0.929   0.556   3.961 -1.3680  1.2765 -1.9180
46322SOL    HW250692   0.833   0.474   4.045 -0.2777  1.9845  0.0890
46323SOL     OW50693   3.433  10.556   6.555  0.2910 -0.6783 -0.3993
46323SOL    HW150694   3.454  10.586   6.467  4.1461 -0.5602  0.3868
46323SOL    HW250695   3.448  10.461   6.552 -0.0012 -0.7405  0.0092
46324SOL     OW50696   5.149  12.915  10.725  0.7703  0.2212  0.1001
46324SOL    HW150697   5.208  12.876  10.660 -0.6152  0.0821 -1.1131
46324SOL    HW250698   5.198  12.992  10.757  1.8693 -0.2465 -0.3959
46325SOL     OW50699   9.107   2.301   4.645 -0.2059 -0.2344 -0.2987
46325SOL    HW150700   9.092   2.242   4.719 -0.5467 -1.5874 -1.4112
46325SOL    HW250701   9.112   2.388   4.685 -2.0861 -0.7195  1.1233
46326SOL     OW50702   2.149   2.513  12.273  0.1994  0.2418  0.2234
46326SOL    HW150703   2.088   2.488  12.344 -0.1465 -0.9221 -0.4507
46326SOL    HW250704   2.115   2.596  12.240 -1.0110 -0.3550 -0.0920
46327SOL     OW50705   8.898  10.282   5.473  0.0109 -0.0431  0.3249
46327SOL    HW150706   8.847  10.290   5.554 -0.2320  1.3058  0.0516
46327SOL    HW250707   8.980  10.327   5.491  1.0427 -1.9325  0.6538
46328SOL     OW50708  12.051   6.967   9.697 -0.4027 -0.5943 -0.1605
46328SOL    HW150709  12.066   7.062   9.697  0.8302 -0.7732  0.0034
46328SOL    HW250710  12.052   6.943   9.789 -0.7053 -0.7668 -0.2038
46329SOL     OW50711  10.714   8.245   1.597 -0.2930 -0.1111  0.3109
46329SOL    HW150712  10.768   8.313   1.557  0.4664 -0.8739 -0.0013
46329SOL    HW250713  10.667   8.204   1.524  1.4060 -1.7770  0.0631
46330SOL     OW50714   8.238   4.669   9.050  0.7307 -0.2038 -0.5382
46330SOL    HW150715   8.179   4.650   8.977  0.0984  0.4359 -0.2126
46330SOL    HW250716   8.325   4.645   9.017  0.4266 -0.1710 -1.4092
46331SOL     OW50717   1.510  11.155   5.129 -0.3794 -0.6187  0.8747
46331SOL    HW150718   1.594  11.175   5.170  0.1561 -3.4544  1.4049
46331SOL    HW250719   1.468  11.093   5.189 -2.5083  0.1228  0.2219
46332SOL     OW50720  10.967  12.222   9.879  0.0998  0.2448 -0.0396
46332SOL    HW150721  10.908  12.284   9.922  0.0788 -0.1605  0.5324
46332SOL    HW250722  11.037  12.208   9.943  1.0969  1.0956 -0.8973
46333SOL     OW50723   8.159  11.733  12.274  0.0978  0.6822 -0.1855
46333SOL    HW150724   8.072  11.693  12.273  0.3815  0.0549 -0.2744
46333SOL    HW250725   8.179  11.748  12.182 -0.6948  2.5871 -0.0933
46334SOL     OW50726   5.458   0.171   9.838  0.7398 -0.2779 -0.4465
46334SOL    HW150727   5.498   0.120   9.767  0.5110 -1.3901  0.2096
46334SOL    HW250728   5.447   0.258   9.800  1.1496 -0.6967 -1.5922
46335SOL     OW50729   1.546   1.126  11.371  0.2146  0.5918  0.1119
46335SOL    HW150730   1.488   1.098  11.300  0.6400  1.1481 -0.4709
46335SOL    HW250731   1.488   1.151  11.442 -0.2033 -2.3317  0.9254
46336SOL     OW50732   1.678   5.199   5.019  0.2826 -0.1264 -0.2050
46336SOL    HW150733   1.660   5.116   5.063 -1.2137  0.9358  1.3240
46336SOL    HW250734   1.731   5.248   5.082  0.2043  0.4992 -0.6239
46337SOL     OW50735   8.443  10.168  12.213 -0.3106  0.2800  0.1477
46337SOL    HW150736   8.365  10.177  12.267  0.4170 -0.1328  1.3169
46337SOL    HW250737   8.451  10.074  12.197 -0.1562  0.3381 -0.1382
46338SOL     OW50738   6.327   6.136  12.958  0.0784  0.3759  0.0706
46338SOL    HW150739   6.370   6.161  12.876 -1.3294  2.0439 -0.2066
46338SOL    HW250740   6.240   6.175  12.954 -0.3962 -0.3253  1.9525
46339SOL     OW50741   2.721   8.689   6.974 -0.1050 -0.1764  0.6798
46339SOL    HW150742   2.700   8.595   6.974 -1.2369  0.0608  0.3917
46339SOL    HW250743   2.667   8.726   7.044  0.5834  0.2153  1.0102
46340SOL     OW50744   9.447   6.106   9.086 -0.8267  0.3076  0.6079
46340SOL    HW150745   9.506   6.131   9.157  1.2503  1.4282 -1.3781
46340SOL    HW250746   9.400   6.186   9.065  2.4078  1.6635 -2.6102
46341SOL     OW50747   0.419   3.772   8.670 -0.2790 -0.4467  0.2535
46341SOL    HW150748   0.390   3.706   8.607  0.2914 -0.3607 -0.1061
46341SOL    HW250749   0.457   3.722   8.742 -1.8474 -0.5939  1.0359
46342SOL     OW50750   6.758   4.721   0.324 -0.8229  1.2348  0.4237
46342SOL    HW150751   6.766   4.742   0.230 -1.3060 -1.2262 -0.2293
46342SOL    HW250752   6.848   4.717   0.355 -0.5739  0.3177 -0.3724
46343SOL     OW50753   4.076  10.137   5.075 -0.3777 -0.0420 -0.0659
46343SOL    HW150754   4.039  10.205   5.131 -0.7159  1.2801 -1.8047
46343SOL    HW250755   4.129  10.083   5.134 -0.8141  1.1840  1.5243
46344SOL     OW50756  11.259  12.275   4.829  0.3102  0.2052 -0.3250
46344SOL    HW150757  11.332  12.214   4.821 -0.0238 -0.1374 -0.8324
46344SOL    HW250758  11.185  12.221   4.857  0.2131  0.5251  0.0464
46345SOL     OW50759   7.492   4.274   1.255 -0.1958  0.3385  0.2441
46345SOL    HW150760   7.459   4.336   1.190 -1.6983 -0.7394 -0.0543
46345SOL    HW250761   7.435   4.286   1.331  0.0365 -0.1000  0.4906
46346SOL     OW50762   5.829  12.320  10.169 -0.0270  0.4107 -0.3790
46346SOL    HW150763   5.872  12.375  10.235 -0.1234  0.0283  0.0111
46346SOL    HW250764   5.741  12.358  10.161 -0.2285  0.0814  0.1827
46347SOL     OW50765  12.368  12.903  10.994 -0.8516  0.0649 -0.0331
46347SOL    HW150766  12.325  12.970  11.047 -0.0610  0.6920 -0.1597
46347SOL    HW250767  12.376  12.828  11.052 -0.0840  0.7102  0.7256
46348SOL     OW50768   2.202   4.055   0.859  0.3017 -0.0598  0.3268
46348SOL    HW150769   2.161   4.112   0.925  0.1942  0.4691 -0.1937
46348SOL    HW250770   2.281   4.022   0.902  0.2936  0.3727  0.6826
46349SOL     OW50771   2.490  13.079   4.881 -0.0477 -0.2440 -0.1564
46349SOL    HW150772   2.420  13.108   4.940 -0.7871 -0.5128 -0.8805
46349SOL    HW250773   2.522  12.997   4.919  1.1941  0.8166  1.2122
46350SOL     OW50774  11.642  10.105  10.117 -0.5479  0.5194  0.0789
46350SOL    HW150775  11.566  10.074  10.167  0.0756 -0.0183  0.7175
46350SOL    HW250776  11.697  10.028  10.107  0.7576  1.2710  1.1782
46351SOL     OW50777   2.056  10.000  11.894  0.3253 -0.8043 -0.6704
46351SOL    HW150778   2.071   9.933  11.961  0.2068  0.0982  0.2853
46351SOL    HW250779   2.106  10.076  11.924 -0.4119 -0.1050 -1.1556
46352SOL     OW50780   8.509  10.983   0.405  0.0005  0.4148  0.4760
46352SOL    HW150781   8.459  11.050   0.358  1.2573  1.5884  0.7545
46352SOL    HW250782   8.458  10.967   0.485 -0.2328  1.1731  0.4895
46353SOL     OW50783  13.089   4.629   5.001  0.1199  0.8877 -0.4442
46353SOL    HW150784  13.022   4.697   5.008 -0.1682  0.5562  0.0710
46353SOL    HW250785  13.145   4.642   5.077 -1.8868 -1.5090  1.6305
46354SOL     OW50786   6.916   5.660   0.220  0.1708 -0.1505 -0.4630
46354SOL    HW150787   6.866   5.667   0.139 -0.5306 -1.3475 -0.1479
46354SOL    HW250788   7.005   5.686   0.195 -0.2306  0.3459 -1.4112
46355SOL     OW50789   9.284   0.343  10.146  0.0751  0.2988  0.2763
46355SOL    HW150790   9.255   0.329  10.237 -1.1998 -1.0821 -0.2991
46355SOL    HW250791   9.262   0.261  10.102  0.1649  1.1641 -1.4179
46356SOL     OW50792   2.245  10.096   5.771  0.2192 -0.0901 -0.3723
46356SOL    HW150793   2.196  10.139   5.842 -0.8906  0.3600 -1.3789
46356SOL    HW250794   2.298  10.166   5.733  0.9470 -0.3711  0.1018
46357SOL     OW50795   7.203   8.647   8.770  0.0865 -0.0721  0.6299
46357SOL    HW150796   7.234   8.721   8.823 -1.9320  1.1500  0.2342
46357SOL    HW250797   7.282   8.597   8.751  1.6173  2.1254  0.7232
46358SOL     OW50798  11.700   9.207   6.602  0.3818 -0.1046  0.1163
46358SOL    HW150799  11.706   9.111   6.608  0.1405 -0.1115  0.2634
46358SOL    HW250800  11.719   9.238   6.691  1.0797  0.0179 -0.0708
46359SOL     OW50801  12.473   5.578   3.490 -0.1116 -0.3811  0.5262
46359SOL    HW150802  12.458   5.637   3.564 -0.8034  1.1537 -0.7692
46359SOL    HW250803  12.402   5.514   3.495 -1.9117  1.4184 -0.3616
46360SOL     OW50804   0.471  13.549  13.154  0.5238  0.2371 -0.6696
46360SOL    HW150805   0.551  13.504  13.129  1.3548  0.7492  0.9734
46360SOL    HW250806   0.425  13.488  13.211  0.3692  0.4482 -0.5646
46361SOL     OW50807  12.471  12.370   8.918  0.4829 -0.2054 -0.3755
46361SOL    HW150808  12.449  12.280   8.895  1.2534 -0.4945  0.0027
46361SOL    HW250809  12.434  12.422   8.847  1.2325 -0.9375 -1.3291
46362SOL     OW50810   5.520   0.765   7.880  0.0515 -0.2426 -0.4843
46362SOL    HW150811   5.607   0.732   7.903 -0.3681  0.2779  2.1464
46362SOL    HW250812   5.529   0.860   7.882 -0.6316 -0.1884 -0.0006
46363SOL     OW50813  10.987  11.217   8.141 -0.3467 -0.6031 -0.0400
46363SOL    HW150814  10.969  11.310   8.152 -0.6076 -0.5987 -0.4684
46363SOL    HW250815  10.925  11.188   8.073  0.4372 -0.8565 -0.6664
46364SOL     OW50816   9.456   0.472   0.305  0.1162 -0.6534  0.1385
46364SOL    HW150817   9.504   0.408   0.357  0.3601 -0.1433  0.5537
46364SOL    HW250818   9.377   0.490   0.357  0.1675 -0.4366  0.1420
46365SOL     OW50819   9.289  10.291  11.022 -0.5750 -0.3065 -0.1000
46365SOL    HW150820   9.272  10.266  10.931  0.5258  0.4279 -0.5307
46365SOL    HW250821   9.344  10.220  11.055 -1.6984 -1.0229  0.2865
46366SOL     OW50822   3.541   9.383   1.415  0.2535 -0.1487  0.4683
46366SOL    HW150823   3.556   9.476   1.399  0.3087 -0.1662  0.4198
46366SOL    HW250824   3.491   9.354   1.338 -1.9329  0.3906  1.5993
46367SOL     OW50825   9.186   5.425   4.836  0.4712  0.0331 -0.5220
46367SOL    HW150826   9.255   5.490   4.821  0.2077  0.0735 -1.6786
46367SOL    HW250827   9.229   5.341   4.826  0.8997 -0.0212  1.3693
46368SOL     OW50828   1.164  11.362   2.915  0.4654 -0.1962  0.0537
46368SOL    HW150829   1.092  11.336   2.858 -0.4176 -1.2225  1.5521
46368SOL    HW250830   1.153  11.308   2.993  0.7080  2.1786  1.8490
46369SOL     OW50831   0.667   9.060   6.680 -0.1854  0.1657  0.1547
46369SOL    HW150832   0.726   9.132   6.656 -1.3137  0.7053 -1.0657
46369SOL    HW250833   0.708   8.982   6.642  1.2723  0.0258  1.8473
46370SOL     OW50834   4.839   0.885   2.047  0.2224 -0.4215 -0.4014
46370SOL    HW150835   4.788   0.950   2.097 -1.2285 -1.1117 -0.9228
46370SOL    HW250836   4.920   0.875   2.096  0.7333  2.1719 -0.5786
46371SOL     OW50837   0.506   3.763   6.589  0.2708  0.0485  0.6915
46371SOL    HW150838   0.587   3.717   6.611 -1.1276 -2.1318  1.6595
46371SOL    HW250839   0.458   3.767   6.672 -1.9132 -1.5622 -0.3861
46372SOL     OW50840  10.595  10.150   0.659 -0.3898  0.2124 -0.5428
46372SOL    HW150841  10.582  10.221   0.596 -0.3674  1.3727  0.6989
46372SOL    HW250842  10.508  10.133   0.694 -0.0219  1.8037  1.3545
46373SOL     OW50843   4.402   0.279   0.205 -0.2914 -0.3623  0.1945
46373SOL    HW150844   4.475   0.297   0.146  0.3501 -1.1669  0.7136
46373SOL    HW250845   4.443   0.275   0.292 -1.0505 -0.2579  0.5626
46374SOL     OW50846   1.279   1.641   3.608 -0.2189  0.2817 -0.9589
46374SOL    HW150847   1.220   1.601   3.544 -0.9975 -0.8323  0.4061
46374SOL    HW250848   1.341   1.571   3.630  0.0642  0.6644 -0.5332
46375SOL     OW50849  12.392  12.911   5.286  0.2243  0.1221 -0.1580
46375SOL    HW150850  12.384  12.975   5.216  1.0114  0.8427  0.3902
46375SOL    HW250851  12.487  12.902   5.301  0.1067 -0.7297  0.1700
46376SOL     OW50852  11.670   8.669  12.634 -0.1907  0.4932 -0.1184
46376SOL    HW150853  11.618   8.590  12.653  0.5185  0.0402 -0.0160
46376SOL    HW250854  11.761   8.640  12.642  0.1073  0.9496 -1.5875
46377SOL     OW50855   9.748  12.359   7.233 -0.1985 -0.4755  0.2384
46377SOL    HW150856   9.745  12.331   7.142  0.4848  2.1914 -0.6840
46377SOL    HW250857   9.827  12.318   7.268  0.8364  0.3552 -1.0707
46378SOL     OW50858  12.521   2.750   0.262  0.8088 -0.1455  0.1745
46378SOL    HW150859  12.478   2.765   0.346 -0.4596  0.6848 -0.5843
46378SOL    HW250860  12.593   2.813   0.260  0.1150  0.6559  0.1508
46379SOL     OW50861   5.677   2.821   3.999 -0.0578 -0.1531  0.2634
46379SOL    HW150862   5.688   2.738   4.046  0.0351 -0.4428 -0.2622
46379SOL    HW250863   5.754   2.828   3.943 -1.1514 -0.8688 -1.4196
46380SOL     OW50864   3.547   9.339   4.962 -0.1445  0.3744  0.1139
46380SOL    HW150865   3.536   9.336   5.057 -0.1995  0.9128  0.1264
46380SOL    HW250866   3.639   9.363   4.949  0.0903 -0.5277  0.0220
46381SOL     OW50867   1.490   6.830  10.122  0.4389  0.6616 -0.0013
46381SOL    HW150868   1.424   6.865  10.182  0.8836  0.6693  0.4825
46381SOL    HW250869   1.523   6.751  10.165 -1.5657 -1.2303 -1.7137
46382SOL     OW50870   3.735  12.951  10.115  0.1284  0.1843  0.1899
46382SOL    HW150871   3.742  13.031  10.063  0.9036 -0.6355 -1.0223
46382SOL    HW250872   3.826  12.931  10.140 -0.0475 -0.3907  0.3813
46383SOL     OW50873  10.808   4.317   3.452 -0.0334  0.0380 -0.1407
46383SOL    HW150874  10.737   4.362   3.499  0.5664  1.4161 -0.4930
46383SOL    HW250875  10.872   4.386   3.433  0.2651 -0.6757 -2.0053
46384SOL     OW50876   4.179   5.358   8.316  0.3879 -0.4376 -0.1062
46384SOL    HW150877   4.184   5.352   8.221 -1.0180 -0.4592 -0.2057
46384SOL    HW250878   4.167   5.267   8.345  1.7167 -0.5442  0.1846
46385SOL     OW50879  10.889  11.713   7.036 -0.3766 -0.7961  0.2211
46385SOL    HW150880  10.883  11.739   7.128 -1.0264 -1.4270  0.3690
46385SOL    HW250881  10.817  11.651   7.024 -0.2647 -0.7634 -0.7027
46386SOL     OW50882   6.634   7.971   8.996  0.4440 -0.3807 -1.0202
46386SOL    HW150883   6.612   7.923   9.076 -0.4199  2.0514  0.3070
46386SOL    HW250884   6.550   7.994   8.958  0.8517 -0.7858 -2.2027
46387SOL     OW50885  13.594  12.235   7.334  0.7351  0.0088  0.0478
46387SOL    HW150886  13.600  12.140   7.319  0.3838 -0.4568  2.4212
46387SOL    HW250887  13.502  12.248   7.359  1.1382  0.7176  1.1889
46388SOL     OW50888   7.166   6.267   5.352  0.0215 -0.1426 -0.1579
46388SOL    HW150889   7.247   6.223   5.327 -0.5431 -0.8028 -0.8880
46388SOL    HW250890   7.102   6.237   5.288 -0.4970  1.4216 -0.4057
46389SOL     OW50891   4.096  12.541  12.068  0.1127 -0.3565  0.0083
46389SOL    HW150892   4.074  12.588  12.148 -1.5838 -1.4923  0.2714
46389SOL    HW250893   4.190  12.555  12.056 -0.0629  1.8622  0.8192
46390SOL     OW50894   4.071   4.028  11.403 -0.2874  0.4478  0.6562
46390SOL    HW150895   4.156   4.029  11.359 -0.3835  2.7354  0.3913
46390SOL    HW250896   4.008   4.008  11.334 -0.0394 -0.7163  0.7476
46391SOL     OW50897   0.512   8.962   1.351 -0.2949 -0.3673 -0.0678
46391SOL    HW150898   0.535   9.043   1.397 -1.6761 -0.0822  0.1770
46391SOL    HW250899   0.488   8.990   1.263 -0.1258 -0.5902 -0.1841
46392SOL     OW50900  10.244  11.363   0.513 -0.1736 -0.1072 -0.0376
46392SOL    HW150901  10.170  11.354   0.573  0.8884 -1.1470  1.1800
46392SOL    HW250902  10.279  11.450   0.533 -0.2266 -0.1811  0.4053
46393SOL     OW50903   6.061   8.661   3.761  0.2231 -0.2330  0.3276
46393SOL    HW150904   6.084   8.607   3.836  0.1620 -0.0351  0.4902
46393SOL    HW250905   6.143   8.671   3.712  0.4470  0.3084  0.7986
46394SOL     OW50906   4.936   7.328   5.732 -0.1010  0.4146 -0.7407
46394SOL    HW150907   5.019   7.311   5.778 -0.9107 -1.4232  0.1455
46394SOL    HW250908   4.905   7.411   5.768  1.2154  0.9995 -0.9033
46395SOL     OW50909  10.965   0.594   3.779  0.2022 -0.3139  0.1112
46395SOL    HW150910  10.874   0.621   3.772  0.1100 -0.6204  0.1315
46395SOL    HW250911  11.003   0.616   3.694  0.4568  1.0869  0.5584
46396SOL     OW50912  10.324  10.959   2.115  0.5897 -0.0545 -0.7305
46396SOL    HW150913  10.262  10.903   2.162  1.8585 -0.1044  0.9579
46396SOL    HW250914  10.322  11.041   2.163  0.5328  0.5694 -1.7612
46397SOL     OW50915   3.683   6.088   6.006 -0.2458  0.1751 -0.0279
46397SOL    HW150916   3.683   6.179   6.036  0.2109  0.0448  0.3677
46397SOL    HW250917   3.665   6.036   6.084  0.8639 -0.1558  0.0176
46398SOL     OW50918   4.117   9.925  10.820 -0.3378 -0.7228 -0.2254
46398SOL    HW150919   4.048   9.863  10.839 -1.7097  0.2819 -1.6821
46398SOL    HW250920   4.076   9.990  10.764  0.8752  1.8066  1.6036
46399SOL     OW50921   1.221   2.267   8.841  0.0837  0.1519  0.0058
46399SOL    HW150922   1.232   2.223   8.925  2.6057  0.8795  0.1334
46399SOL    HW250923   1.188   2.199   8.783 -1.2467 -0.4864  1.4445
46400SOL     OW50924   9.053  10.869   3.032 -0.4877  0.1872 -0.0167
46400SOL    HW150925   8.985  10.851   3.097 -0.8594  0.8831 -0.2047
46400SOL    HW250926   9.113  10.929   3.076  1.2414 -2.0902  0.9236
46401SOL     OW50927   6.394   5.094  12.306 -0.0990  0.5337  0.1610
46401SOL    HW150928   6.441   5.021  12.268 -2.6364 -1.1742  0.0695
46401SOL    HW250929   6.341   5.129  12.234  1.3104  2.7455  0.1146
46402SOL     OW50930   6.751  10.056   1.179  0.0866  1.0987  0.3261
46402SOL    HW150931   6.680  10.084   1.236  0.2423 -0.6218  1.4202
46402SOL    HW250932   6.815  10.016   1.238  0.1076 -1.0305 -1.0614
46403SOL     OW50933  11.168  11.948  11.213  0.1268  0.2700 -0.0017
46403SOL    HW150934  11.192  12.030  11.257  1.2071  0.6906 -1.3042
46403SOL    HW250935  11.214  11.952  11.129  0.8966 -2.0453  0.2331
46404SOL     OW50936   3.768   0.006   9.346 -0.0541  0.6732 -0.0141
46404SOL    HW150937   3.859   0.010   9.374  0.3558 -1.5929 -0.8177
46404SOL    HW250938   3.772  -0.020   9.254 -1.4854 -1.6046  0.4855
46405SOL     OW50939   9.206   8.060  12.467  0.3791  0.1152 -0.2880
46405SOL    HW150940   9.130   8.058  12.525  0.5364  1.2087 -0.0274
46405SOL    HW250941   9.191   8.136  12.410  1.4534  0.5840  0.0302
46406SOL     OW50942  13.725   7.192  10.048 -0.6546  0.3529  0.2559
46406SOL    HW150943  13.776   7.111  10.050 -1.2829 -0.0364  1.2528
46406SOL    HW250944  13.786   7.260  10.077 -0.2861  0.1529 -0.0331
46407SOL     OW50945  10.636   0.068   7.070 -0.3489 -0.0019 -0.6693
46407SOL    HW150946  10.715   0.122   7.072  0.5989 -1.3166  1.3429
46407SOL    HW250947  10.569   0.124   7.030  0.9780  2.0412 -0.1723
46408SOL     OW50948   4.217   4.424  10.894  0.4374 -0.5422 -0.0802
46408SOL    HW150949   4.306   4.409  10.927  0.1931  0.8748  1.3591
46408SOL    HW250950   4.221   4.510  10.852 -0.5246  0.1617  1.1968
46409SOL     OW50951   1.018   7.730   4.515  0.1692  0.1676  0.4607
46409SOL    HW150952   1.071   7.763   4.588 -1.3720 -0.3095  1.8414
46409SOL    HW250953   1.001   7.639   4.538 -0.8288  0.1779 -0.2063
46410SOL     OW50954   4.681   0.837  13.201  0.1708  0.6120 -0.2036
46410SOL    HW150955   4.704   0.840  13.293 -2.4264  1.6234  0.5044
46410SOL    HW250956   4.590   0.868  13.198  0.3645  1.1959 -3.1567
46411SOL     OW50957   2.743   8.180   1.609  0.7722 -0.0746 -0.6556
46411SOL    HW150958   2.759   8.087   1.622  0.9079 -0.1848 -1.5010
46411SOL    HW250959   2.798   8.224   1.673 -0.3984 -0.5991  0.7578
46412SOL     OW50960   4.161  11.599  10.637  0.4467 -0.1653 -0.3547
46412SOL    HW150961   4.071  11.572  10.619  0.3630 -0.0583 -0.1148
46412SOL    HW250962   4.209  11.518  10.650  0.5884 -0.2598 -1.3863
46413SOL     OW50963   6.005  11.335   2.781  0.0373 -0.4439 -0.1289
46413SOL    HW150964   6.019  11.391   2.705 -2.1664  0.3169 -0.0568
46413SOL    HW250965   5.935  11.275   2.754 -1.7375  0.6918  1.6411
46414SOL     OW50966  11.043   0.513  11.364  0.2301  0.5065  0.4914
46414SOL    HW150967  11.123   0.498  11.414  0.4053 -1.8824 -0.3908
46414SOL    HW250968  11.072   0.551  11.281  0.0758  2.8947  1.4395
46415SOL     OW50969   2.598  12.775   6.987 -0.0641  0.2680  0.0957
46415SOL    HW150970   2.666  12.810   7.044  1.2091 -2.6231  0.5033
46415SOL    HW250971   2.548  12.715   7.042 -0.5629 -0.4812 -1.1287
46416SOL     OW50972  10.022  10.984   6.464  0.8199  0.4087 -0.3281
46416SOL    HW150973  10.106  10.942   6.485  0.8746  0.8895  0.4744
46416SOL    HW250974   9.970  10.975   6.544 -0.0494 -0.2344 -0.9561
46417SOL     OW50975   3.390   4.780   7.000  0.2993 -0.3232  0.1262
46417SOL    HW150976   3.347   4.768   7.085 -0.3957 -0.6888 -0.2611
46417SOL    HW250977   3.437   4.863   7.007  0.0216 -0.2212  0.7750
46418SOL     OW50978   2.010   8.795  12.689  0.1982 -0.1455  0.1675
46418SOL    HW150979   1.931   8.796  12.744 -1.5090 -2.4314 -2.0007
46418SOL    HW250980   2.008   8.879  12.644 -1.1722 -0.2547 -0.0373
46419SOL     OW50981   8.371   2.457  13.199  0.7822 -0.1444 -0.0895
46419SOL    HW150982   8.337   2.368  13.210  0.3039  0.0254 -0.1725
46419SOL    HW250983   8.371   2.494  13.287 -2.5138  1.0224 -0.4488
46420SOL     OW50984   8.067   7.701   8.317  0.1094  0.0834 -0.5717
46420SOL    HW150985   8.111   7.676   8.398  1.2419 -1.3118 -1.5633
46420SOL    HW250986   8.123   7.768   8.278 -2.4323  3.8887  1.6022
46421SOL     OW50987  10.332   4.824   9.421  0.3140 -0.2379  0.0050
46421SOL    HW150988  10.368   4.738   9.444 -1.1634 -0.6981  0.7418
46421SOL    HW250989  10.317   4.867   9.506 -1.6281 -0.4243 -0.1963
46422SOL     OW50990   6.585   9.839   5.242  0.0774 -1.1664 -0.0091
46422SOL    HW150991   6.497   9.875   5.246  1.6244  3.7516 -2.5982
46422SOL    HW250992   6.627   9.869   5.323  0.3715 -0.0870 -0.5430
46423SOL     OW50993  10.430   3.526   3.403  0.2661 -0.1966  0.1875
46423SOL    HW150994  10.366   3.581   3.448  1.5806  0.2117  1.6887
46423SOL    HW250995  10.386   3.496   3.324 -1.7148  0.1532  1.0972
46424SOL     OW50996   6.711   0.326   6.409  0.4859 -0.6469  0.7112
46424SOL    HW150997   6.743   0.355   6.323 -0.3564 -1.6244  0.0492
46424SOL    HW250998   6.782   0.349   6.469  1.4124 -0.6130 -0.3493
46425SOL     OW50999   6.054   9.922   7.655  0.0923 -0.0826 -0.3823
46425SOL    HW151000   6.117   9.950   7.588  1.3002 -0.6907  0.4551
46425SOL    HW251001   6.047   9.996   7.714  0.8460 -0.3715  0.0895
46426SOL     OW51002   0.264   4.410   6.657 -0.0656 -0.0033  0.0623
46426SOL    HW151003   0.349   4.415   6.613 -0.7416 -0.9972 -1.4356
46426SOL    HW251004   0.285   4.418   6.750  1.6054  0.3282 -0.3089
46427SOL     OW51005   7.242   8.995  13.019  0.1488  0.3751  0.0304
46427SOL    HW151006   7.221   8.904  12.996 -2.4224  0.7130  0.6996
46427SOL    HW251007   7.277   9.033  12.939 -0.7591 -0.6658 -0.8956
46428SOL     OW51008   4.363   0.342  13.187  0.2756 -0.1152  0.3511
46428SOL    HW151009   4.287   0.307  13.232  0.5063  0.2774  1.0606
46428SOL    HW251010   4.379   0.281  13.115 -1.0733  0.1235 -0.1858
46429SOL     OW51011   6.448   0.536   4.509 -0.6869 -0.8083  0.8117
46429SOL    HW151012   6.370   0.590   4.501  1.0420  1.6980 -0.4294
46429SOL    HW251013   6.451   0.512   4.602 -2.0068  0.4918  1.2281
46430SOL     OW51014   4.952  12.216  10.414  0.4821 -0.1177 -0.2068
46430SOL    HW151015   5.029  12.268  10.435 -0.6747  2.5070 -1.9164
46430SOL    HW251016   4.985  12.146  10.358  1.9148 -0.5629  1.1125
46431SOL     OW51017   1.992  11.359   3.121 -0.0001  0.1968  0.5272
46431SOL    HW151018   1.944  11.292   3.170  2.0130 -0.1701  2.1645
46431SOL    HW251019   1.984  11.438   3.174 -0.9123  0.8277 -0.5182
46432SOL     OW51020   0.703   9.643   7.693 -0.1622 -0.2048 -0.3389
46432SOL    HW151021   0.715   9.607   7.606 -1.4815 -1.5160 -0.0002
46432SOL    HW251022   0.609   9.655   7.702  0.1194  3.1268 -0.3041
46433SOL     OW51023  10.471   5.972   6.096 -0.4595  0.5227 -0.0273
46433SOL    HW151024  10.492   5.947   6.006 -1.9109 -1.3829  0.0911
46433SOL    HW251025  10.526   5.915   6.149  4.5457  5.1701  0.5953
46434SOL     OW51026   2.249   7.832   6.467  0.3245  0.3274  0.0298
46434SOL    HW151027   2.158   7.820   6.442  0.6775 -0.3822 -0.9839
46434SOL    HW251028   2.297   7.766   6.417  1.3757  0.5827  0.6621
46435SOL     OW51029  11.223   7.762   9.419  0.4652  0.1170 -0.5126
46435SOL    HW151030  11.185   7.675   9.433  1.6039 -0.2849  0.2448
46435SOL    HW251031  11.240   7.795   9.507  1.3303  0.5042 -0.8106
46436SOL     OW51032   1.554   3.757  11.741  0.5031 -0.2973  0.1293
46436SOL    HW151033   1.501   3.684  11.773 -1.8985  1.2336 -0.1612
46436SOL    HW251034   1.582   3.802  11.821 -1.6714  0.8868  0.3055
46437SOL     OW51035  12.906   9.294   3.994  0.7049 -0.2706  0.3089
46437SOL    HW151036  12.876   9.209   3.960  1.2646 -0.0880 -0.6839
46437SOL    HW251037  12.829   9.351   3.987  0.3627 -0.6622  0.8608
46438SOL     OW51038   7.763  11.928   6.945  0.2048 -0.0899 -0.3587
46438SOL    HW151039   7.685  11.958   6.992 -0.4530  0.3490 -1.6893
46438SOL    HW251040   7.810  12.008   6.922 -0.7079 -0.1326 -2.4954
46439SOL     OW51041   7.697  12.091  11.073 -0.4218  0.2754 -0.7504
46439SOL    HW151042   7.654  12.165  11.116  0.6301  0.0548  0.7652
46439SOL    HW251043   7.786  12.090  11.109 -0.3909 -1.6987 -0.7356
46440SOL     OW51044  13.194  11.366  10.460 -0.1929 -0.3879  0.0049
46440SOL    HW151045  13.247  11.440  10.490 -0.2331 -0.2167 -0.3349
46440SOL    HW251046  13.166  11.323  10.540  2.2560 -1.7837  0.2075
46441SOL     OW51047  10.599   8.703  11.611 -1.0168 -0.6632 -0.1284
46441SOL    HW151048  10.599   8.778  11.671  0.7027 -0.5174 -0.2482
46441SOL    HW251049  10.575   8.741  11.526  0.1043 -0.1594 -0.2436
46442SOL     OW51050   9.765   6.156   5.057 -0.4785  0.1284  0.2863
46442SOL    HW151051   9.791   6.153   5.149 -0.0627 -0.1326  0.1633
46442SOL    HW251052   9.844   6.134   5.009 -0.7887 -0.1325 -0.1171
46443SOL     OW51053   7.909   6.306   7.072 -0.3098  0.4383 -0.0885
46443SOL    HW151054   7.930   6.330   7.163  1.3572  0.1842 -0.3668
46443SOL    HW251055   7.972   6.237   7.051 -0.3315  0.8585 -1.6164
46444SOL     OW51056  12.359  11.360   5.413 -0.1914 -0.4557  0.4540
46444SOL    HW151057  12.417  11.435   5.402 -0.1346 -0.2107  2.1313
46444SOL    HW251058  12.275  11.398   5.439 -0.4527 -0.9191  0.2972
46445SOL     OW51059   8.611  11.984  12.072  0.0254 -0.4079 -0.2379
46445SOL    HW151060   8.522  11.962  12.044  0.1438 -0.2295 -0.7461
46445SOL    HW251061   8.652  12.024  11.996 -0.0696  1.3018  0.5603
46446SOL     OW51062   2.569   7.350   7.770  0.5169 -0.7443  0.0741
46446SOL    HW151063   2.575   7.379   7.679 -1.4862  0.8222  0.3606
46446SOL    HW251064   2.630   7.407   7.817  0.8197 -0.8898 -0.1346
46447SOL     OW51065   8.353   7.239   7.841 -0.0280 -0.3550  0.1720
46447SOL    HW151066   8.362   7.204   7.930  1.1855  0.2325  0.3071
46447SOL    HW251067   8.315   7.167   7.790 -3.0058  0.0339  1.6189
46448SOL     OW51068   0.225  13.743   3.917  0.1487  0.2326  0.2135
46448SOL    HW151069   0.160  13.814   3.916 -0.6003 -0.4456 -0.0767
46448SOL    HW251070   0.309  13.788   3.912 -0.3396  1.0763 -0.9073
46449SOL     OW51071   0.709   9.224  12.932  0.1185  0.2391  0.3728
46449SOL    HW151072   0.753   9.242  12.849 -0.3697  1.0901  0.2850
46449SOL    HW251073   0.776   9.180  12.985  1.3591  2.1257  0.5039
46450SOL     OW51074   1.382  13.495  11.686 -0.1855 -0.6079 -0.2804
46450SOL    HW151075   1.317  13.539  11.741  0.3198  0.0123 -0.1577
46450SOL    HW251076   1.398  13.556  11.614 -1.1097 -1.5705 -1.3342
46451SOL     OW51077   7.356   3.306  13.621 -0.1499  0.2089 -0.5853
46451SOL    HW151078   7.425   3.299  13.686 -1.3255  1.3179  0.8659
46451SOL    HW251079   7.361   3.397  13.591 -0.4124  0.0478 -1.1188
46452SOL     OW51080  12.570   9.613   2.062 -0.1329  0.3090 -0.4326
46452SOL    HW151081  12.535   9.607   1.973  0.3445 -1.3746 -0.5417
46452SOL    HW251082  12.605   9.526   2.080 -1.2815  0.2327  1.8470
46453SOL     OW51083   7.705   4.245  10.091 -0.0704 -0.7314  0.1069
46453SOL    HW151084   7.733   4.173  10.147 -0.2130 -0.7520  0.1526
46453SOL    HW251085   7.693   4.319  10.150  1.9317 -0.1132 -0.1803
46454SOL     OW51086   4.228   0.489   5.743 -0.5439  0.2631 -0.0552
46454SOL    HW151087   4.203   0.581   5.742  0.9909  0.7246  0.8371
46454SOL    HW251088   4.227   0.464   5.836 -0.0119 -0.3440 -0.2005
46455SOL     OW51089   4.609  12.113   7.466 -0.1297  0.1066 -0.0912
46455SOL    HW151090   4.650  12.034   7.431  1.3932  0.6711  0.3384
46455SOL    HW251091   4.595  12.169   7.390 -0.4700 -0.2400 -0.2888
46456SOL     OW51092   1.484   3.136   0.728  0.5149  0.0445 -0.1472
46456SOL    HW151093   1.418   3.198   0.760  0.4435  0.3337 -0.8341
46456SOL    HW251094   1.530   3.107   0.807  1.9720  2.5890  0.0520
46457SOL     OW51095   0.238  11.740   5.316 -0.4568 -0.2198  0.3861
46457SOL    HW151096   0.220  11.647   5.305  0.7192 -0.6043  1.5020
46457SOL    HW251097   0.255  11.750   5.410  1.4311  0.7175  0.0000
46458SOL     OW51098   8.435   8.054  11.640 -0.3894 -0.8049  0.3762
46458SOL    HW151099   8.474   8.137  11.612  0.0659 -0.4287  2.0177
46458SOL    HW251100   8.364   8.039  11.578 -0.0695  0.4827 -0.3411
46459SOL     OW51101  10.461   3.977   4.154 -0.5471 -0.3946 -0.1783
46459SOL    HW151102  10.440   3.886   4.173 -2.0142  0.4177  2.5162
46459SOL    HW251103  10.436   3.988   4.062 -0.0354 -2.7211 -0.6705
46460SOL     OW51104   9.947   5.545   6.096 -0.2235 -0.1568  0.4875
46460SOL    HW151105   9.941   5.592   6.013 -0.2162 -0.6024  0.2274
46460SOL    HW251106  10.018   5.588   6.143 -0.1115 -0.0104  0.1875
46461SOL     OW51107   1.407   3.901   1.579 -0.4625 -0.2497 -0.2227
46461SOL    HW151108   1.393   3.882   1.672 -0.2994  1.4937  0.1992
46461SOL    HW251109   1.327   3.946   1.552  0.4204  1.4050 -0.2524
46462SOL     OW51110   5.810  12.021   1.190  0.6384 -0.2987  0.3539
46462SOL    HW151111   5.809  11.930   1.221  2.2366 -0.3215  0.4349
46462SOL    HW251112   5.901  12.036   1.166  0.2368  1.0556 -0.3837
46463SOL     OW51113  11.715   8.765   5.192  0.3757  0.0213 -0.0531
46463SOL    HW151114  11.804   8.798   5.200  0.8004 -0.5612 -1.7862
46463SOL    HW251115  11.719   8.704   5.118 -1.8624  1.5113 -1.5200
46464SOL     OW51116   5.307   2.175  10.724  0.1942 -0.1323  0.2232
46464SOL    HW151117   5.221   2.185  10.683 -0.5886 -0.1458  1.8024
46464SOL    HW251118   5.323   2.258  10.767  1.0197 -0.1091 -0.1182
46465SOL     OW51119  10.175   7.783   9.506 -0.5371  0.2481 -0.2506
46465SOL    HW151120  10.187   7.877   9.516 -0.9871  0.3281 -0.4555
46465SOL    HW251121  10.221   7.745   9.581 -1.0585  0.6751  0.2983
46466SOL     OW51122   6.743   3.910  12.269  0.2063 -0.0610  0.2564
46466SOL    HW151123   6.834   3.882  12.277  0.1815 -0.2476 -0.1260
46466SOL    HW251124   6.719   3.938  12.358  0.4310 -0.6274  0.4973
46467SOL     OW51125   0.520   6.026   5.481  0.0403  0.3160  0.1615
46467SOL    HW151126   0.537   6.027   5.387  1.0285  0.6956  0.3340
46467SOL    HW251127   0.464   6.103   5.496 -0.6282 -0.0952 -0.1994
46468SOL     OW51128   4.668   4.940  10.857 -0.4067  0.1142 -0.4783
46468SOL    HW151129   4.645   4.855  10.895 -1.9528  1.0756  0.8616
46468SOL    HW251130   4.625   4.940  10.771 -1.5237  0.0374  0.0622
46469SOL     OW51131   7.205   1.025   8.191  0.1909 -0.1417  0.8509
46469SOL    HW151132   7.224   1.003   8.100 -1.3284  1.5204  0.0464
46469SOL    HW251133   7.288   1.058   8.226  0.5382  0.2499 -0.2913
46470SOL     OW51134   6.075  12.041  10.046 -0.1850 -0.0422 -0.0581
46470SOL    HW151135   6.127  11.980   9.994 -0.9605  0.3535 -1.3300
46470SOL    HW251136   6.079  12.124   9.997  1.6458  1.2799  2.1013
46471SOL     OW51137   2.964  12.062   6.443  0.3556 -0.6249  0.1650
46471SOL    HW151138   2.881  12.015   6.450 -0.1181 -0.1390 -1.7024
46471SOL    HW251139   2.940  12.154   6.445  1.2347 -0.3678  3.2369
46472SOL     OW51140   9.460   3.839   3.945  0.4277 -0.2292 -0.7059
46472SOL    HW151141   9.366   3.823   3.953  0.4078 -0.5505 -1.5178
46472SOL    HW251142   9.500   3.757   3.974  0.4861  0.1159  0.2286
46473SOL     OW51143   3.356   3.881   5.911  0.2528  0.1126  0.1852
46473SOL    HW151144   3.377   3.949   5.975 -0.6603 -0.4082  1.0804
46473SOL    HW251145   3.398   3.909   5.830 -0.0646  1.7226  0.5452
46474SOL     OW51146   6.799  10.680   2.733  0.0091 -0.4961  0.2073
46474SOL    HW151147   6.855  10.641   2.666 -0.8119  0.5485 -1.1302
46474SOL    HW251148   6.761  10.758   2.691 -3.0175 -1.5340  0.7813
46475SOL     OW51149   8.884   6.740  11.939 -0.3496  0.7274 -0.3306
46475SOL    HW151150   8.794   6.754  11.910 -0.7330 -0.1277  0.3702
46475SOL    HW251151   8.898   6.646  11.927 -0.7515  0.1746  2.7103
46476SOL     OW51152   3.980   8.111   0.139  0.5648 -0.6060 -0.8605
46476SOL    HW151153   3.885   8.098   0.138  0.3614  0.7682 -0.4960
46476SOL    HW251154   3.995   8.180   0.074  1.4084 -1.3275 -1.4580
46477SOL     OW51155   0.964   0.601   7.211 -0.0407  0.2222 -0.3240
46477SOL    HW151156   0.953   0.693   7.235 -0.0619  0.3438 -0.7826
46477SOL    HW251157   0.901   0.554   7.265  1.8693  0.1327  2.0095
46478SOL     OW51158   1.215   5.152  13.566 -0.1595 -0.1018  0.3426
46478SOL    HW151159   1.148   5.220  13.566 -0.5377 -0.3937 -2.0103
46478SOL    HW251160   1.298   5.200  13.554 -0.1198  0.1137  1.3791
46479SOL     OW51161  13.571   2.536   4.651 -0.0001  0.7456 -0.5557
46479SOL    HW151162  13.522   2.579   4.581  0.6627  2.2689 -0.1353
46479SOL    HW251163  13.642   2.490   4.606 -0.8856 -0.1848 -1.0394
46480SOL     OW51164  10.993  11.334   8.998  0.0323  0.1263  0.6290
46480SOL    HW151165  10.985  11.368   8.909  0.1361 -2.3521 -0.4036
46480SOL    HW251166  11.053  11.395   9.041  0.6362  0.9388 -1.2283
46481SOL     OW51167  13.253   8.836   2.799 -0.5909 -0.1662  0.0737
46481SOL    HW151168  13.230   8.786   2.721  1.0970 -0.3242 -0.3572
46481SOL    HW251169  13.181   8.897   2.811 -0.8727 -0.1418 -1.6005
46482SOL     OW51170  11.470   5.994   5.636  0.6215  0.2753  0.1576
46482SOL    HW151171  11.532   6.056   5.596  1.8743 -0.5391  0.7572
46482SOL    HW251172  11.507   5.908   5.617  0.8844 -0.1611  2.4061
46483SOL     OW51173   9.167   6.227  13.373  0.0895 -0.1760 -0.2051
46483SOL    HW151174   9.086   6.206  13.326  0.5769 -2.4985 -0.1204
46483SOL    HW251175   9.217   6.146  13.372  1.0805  0.3114  2.4012
46484SOL     OW51176   1.368  13.385   8.333  0.3613  0.0409 -0.4570
46484SOL    HW151177   1.390  13.319   8.400  1.6048  0.0414 -0.8338
46484SOL    HW251178   1.350  13.465   8.384  0.2742 -0.2284 -0.0617
46485SOL     OW51179   1.728   7.188  10.318 -0.4693 -0.2916 -0.0164
46485SOL    HW151180   1.785   7.257  10.353  0.3294 -0.6790 -0.5318
46485SOL    HW251181   1.765   7.167  10.233 -0.7297 -1.3220  0.1114
46486SOL     OW51182  12.217   0.237   2.078 -0.0849  0.1204  0.4586
46486SOL    HW151183  12.271   0.159   2.063  0.9930  0.8270  0.5701
46486SOL    HW251184  12.273   0.296   2.128 -1.1709  0.6552  1.0815
46487SOL     OW51185  11.029  10.812   6.991  0.0594  0.0297 -0.7618
46487SOL    HW151186  11.106  10.757   7.004  0.9014  1.2444 -0.3884
46487SOL    HW251187  11.014  10.811   6.896  0.3831 -0.4160 -0.8107
46488SOL     OW51188   8.261   3.140   2.118  0.0486 -0.1599 -0.2609
46488SOL    HW151189   8.225   3.226   2.097 -1.3051 -0.9623 -1.4475
46488SOL    HW251190   8.352   3.144   2.087 -0.2271  0.5951 -1.0162
46489SOL     OW51191   4.267  12.429   1.425  0.0166 -0.1096 -0.5241
46489SOL    HW151192   4.286  12.522   1.432  2.5637 -0.4204 -2.1518
46489SOL    HW251193   4.333  12.386   1.480 -1.5668 -1.0087  0.7967
46490SOL     OW51194   7.324  11.532   4.911  0.4995 -0.2075  0.2447
46490SOL    HW151195   7.408  11.571   4.936  1.5471 -0.4181 -2.5445
46490SOL    HW251196   7.266  11.607   4.896  0.7056  0.0191  0.5770
46491SOL     OW51197  11.906   3.801  10.456 -0.4444 -0.5072 -0.1330
46491SOL    HW151198  11.850   3.829  10.528  0.7494 -0.5014  0.8259
46491SOL    HW251199  11.946   3.882  10.424  1.0808 -0.7675  0.9941
46492SOL     OW51200   1.871   0.262  10.565 -0.0384  0.2688 -0.0752
46492SOL    HW151201   1.809   0.304  10.625 -1.1099  0.0612 -0.9998
46492SOL    HW251202   1.819   0.243  10.487  1.7101  2.0746 -1.7839
46493SOL     OW51203   2.788   8.412   7.055 -0.2765  0.7346 -0.0899
46493SOL    HW151204   2.863   8.357   7.029 -0.7446 -0.7394  1.4681
46493SOL    HW251205   2.725   8.350   7.091 -0.8868  2.2916  1.6555
46494SOL     OW51206   0.877  10.412   5.908 -0.1818 -0.5631  0.4061
46494SOL    HW151207   0.835  10.498   5.899 -1.9304 -1.3546  0.6878
46494SOL    HW251208   0.971  10.432   5.912 -0.5489  1.3360  0.5499
46495SOL     OW51209  10.724   8.831   5.092 -0.3506 -0.4155 -0.4990
46495SOL    HW151210  10.792   8.845   5.026 -0.5071  0.1763 -0.5389
46495SOL    HW251211  10.772   8.820   5.174 -0.2422  2.3078 -0.1124
46496SOL     OW51212  10.966  10.757  11.594  0.2546  0.1574  0.2521
46496SOL    HW151213  11.053  10.746  11.555  0.1650 -0.2901  0.1662
46496SOL    HW251214  10.905  10.746  11.521  0.1515  1.7935  0.0489
46497SOL     OW51215  12.149   7.231   9.734 -0.6437  0.1958 -0.5490
46497SOL    HW151216  12.147   7.323   9.761 -0.7550 -0.1535  0.7189
46497SOL    HW251217  12.187   7.233   9.647  0.5171  1.3491 -0.0660
46498SOL     OW51218   3.312  11.066   4.042 -0.3802  0.4248  0.5246
46498SOL    HW151219   3.398  11.083   4.080  0.1186 -0.5826 -0.1009
46498SOL    HW251220   3.251  11.071   4.116  0.2356  0.9548  1.0038
46499SOL     OW51221   9.641   0.115   5.996 -0.0929 -0.0100  0.0339
46499SOL    HW151222   9.679   0.122   6.083 -1.4009 -0.9623  0.7189
46499SOL    HW251223   9.674   0.032   5.962 -0.5818 -0.2546  0.1457
46500SOL     OW51224  11.927   7.968   5.426 -0.2586 -0.0551  0.3835
46500SOL    HW151225  12.008   7.990   5.380 -0.9872 -0.3106 -1.0707
46500SOL    HW251226  11.943   7.881   5.463 -0.4094 -0.8029 -1.2543
46501SOL     OW51227   1.703   9.425   3.121 -0.0078 -0.2604 -0.0697
46501SOL    HW151228   1.675   9.516   3.131 -0.6698 -0.5933  1.4126
46501SOL    HW251229   1.634   9.384   3.069 -0.3479 -0.1857  0.3136
46502SOL     OW51230   0.154  12.757   9.941 -0.5896  0.2724 -0.3994
46502SOL    HW151231   0.231  12.768   9.885 -1.0236  2.1640 -0.6916
46502SOL    HW251232   0.182  12.788  10.027 -0.1107 -2.0591  0.3607
46503SOL     OW51233   9.934  13.000   2.441 -0.2136 -0.4242  0.6084
46503SOL    HW151234  10.000  12.993   2.509  0.0262 -0.4253  0.3766
46503SOL    HW251235   9.902  12.910   2.430  1.5055 -0.9080 -1.0109
46504SOL     OW51236   9.786   3.644   1.524 -0.2401  0.0716  0.1306
46504SOL    HW151237   9.840   3.715   1.489  1.4868 -1.9159 -1.5567
46504SOL    HW251238   9.795   3.652   1.619  1.1664  1.1984 -0.0626
46505SOL     OW51239   9.379  11.651  13.502  0.5826 -0.3317  0.4720
46505SOL    HW151240   9.416  11.723  13.451 -1.9705  2.5978  2.3865
46505SOL    HW251241   9.450  11.624  13.560  1.4475  1.1160  0.1461
46506SOL     OW51242  12.962   1.552   1.384 -0.0219 -0.6674 -0.6975
46506SOL    HW151243  12.880   1.589   1.349  0.1870 -0.8446 -1.3899
46506SOL    HW251244  12.940   1.460   1.402  0.3043 -0.9935 -1.8813
46507SOL     OW51245   9.834   0.140   0.330 -0.4271  0.2049 -0.5861
46507SOL    HW151246   9.913   0.088   0.313  0.8670  1.4093  1.2756
46507SOL    HW251247   9.847   0.220   0.280  0.7847  1.4323  1.5257
46508SOL     OW51248   8.994   6.345   8.650  0.1010 -0.0225  0.4010
46508SOL    HW151249   9.073   6.293   8.666 -1.3975 -2.5515  0.1214
46508SOL    HW251250   8.934   6.318   8.719 -0.8719  1.1557  0.0483
46509SOL     OW51251   7.404   0.389   3.305 -0.1807  0.1216 -0.1975
46509SOL    HW151252   7.492   0.392   3.344 -1.1710  1.2298  2.1266
46509SOL    HW251253   7.393   0.298   3.278  1.2825 -0.2701  0.4074
46510SOL     OW51254   1.439   0.096   2.970 -0.0344  0.2664 -0.0197
46510SOL    HW151255   1.511   0.158   2.958 -0.7107  0.7411 -2.0444
46510SOL    HW251256   1.390   0.130   3.046  0.3917  1.4321 -0.2482
46511SOL     OW51257   0.307   9.031   7.022 -0.0752  0.3757  0.1840
46511SOL    HW151258   0.343   9.001   7.106 -0.8407  0.2351  0.4714
46511SOL    HW251259   0.384   9.055   6.970  0.4481 -0.2591  0.6507
46512SOL     OW51260  12.782  10.131   4.398  0.0986 -0.4218 -0.3803
46512SOL    HW151261  12.842  10.104   4.328  0.5517  1.5941 -0.8427
46512SOL    HW251262  12.707  10.169   4.351 -0.4788 -0.8031  0.2219
46513SOL     OW51263   7.211   3.170   5.454  0.1602 -0.2631  0.2650
46513SOL    HW151264   7.305   3.176   5.473  0.5932  1.0344 -1.9149
46513SOL    HW251265   7.203   3.096   5.394 -0.6597 -2.0505  2.4543
46514SOL     OW51266   3.450  12.714   6.647 -0.6470 -0.1703 -0.3163
46514SOL    HW151267   3.358  12.687   6.646 -0.7676  0.2045 -1.5652
46514SOL    HW251268   3.500  12.633   6.643 -0.9635 -0.3301 -1.3154
46515SOL     OW51269   4.638  10.354   6.560 -0.1601  0.4650  0.1913
46515SOL    HW151270   4.648  10.362   6.465  0.7138  1.1536  0.3247
46515SOL    HW251271   4.549  10.322   6.572  0.1763 -0.9792 -0.9150
46516SOL     OW51272   0.352   8.931   5.983  0.1512  0.6092  0.2944
46516SOL    HW151273   0.321   8.919   6.073 -0.5190  0.9367  0.1096
46516SOL    HW251274   0.284   8.984   5.941  0.6222  0.7360 -0.3138
46517SOL     OW51275   7.742   8.508  10.819 -0.3507 -0.2578  0.0917
46517SOL    HW151276   7.778   8.437  10.766  0.5261  0.1431  0.1392
46517SOL    HW251277   7.745   8.584  10.761  1.8438  0.4882  1.0870
46518SOL     OW51278  11.557   6.481   6.095 -0.5540 -0.1162 -0.5492
46518SOL    HW151279  11.581   6.573   6.096 -0.6187 -0.0728  1.7115
46518SOL    HW251280  11.638   6.434   6.112 -0.4631 -0.5397 -1.9837
46519SOL     OW51281   1.728  10.463   7.866 -0.2462  0.0589 -0.1764
46519SOL    HW151282   1.792  10.409   7.820 -0.5991  0.5996 -1.3465
46519SOL    HW251283   1.643  10.433   7.832 -0.5878 -0.2073  0.8725
46520SOL     OW51284  12.482   5.735   7.419  0.2794 -0.4106 -0.1227
46520SOL    HW151285  12.513   5.745   7.329 -0.1330 -1.8797 -0.4667
46520SOL    HW251286  12.500   5.643   7.440 -2.5161 -0.9776  0.1422
46521SOL     OW51287   8.768   8.365  13.688 -0.2033  0.0550 -0.1950
46521SOL    HW151288   8.766   8.274  13.657 -1.6212 -0.3473  0.9732
46521SOL    HW251289   8.702   8.410  13.635 -1.2160 -0.1746  0.8425
46522SOL     OW51290   8.027   9.257   7.890 -0.2607  0.3967  0.4336
46522SOL    HW151291   7.978   9.336   7.869  0.1919  0.5615 -0.0138
46522SOL    HW251292   8.056   9.223   7.805  1.1173  0.7637  0.7345
46523SOL     OW51293   6.873  10.033  10.967  0.2641 -0.0833 -0.3650
46523SOL    HW151294   6.805   9.967  10.955  0.9017 -0.6860 -0.7889
46523SOL    HW251295   6.900  10.055  10.877 -1.2918  2.2219 -0.3374
46524SOL     OW51296   1.609   3.959   2.368 -0.3318  0.0550  0.7804
46524SOL    HW151297   1.605   3.993   2.279 -0.1894 -0.1217  0.7061
46524SOL    HW251298   1.523   3.981   2.406 -1.3268 -1.9695 -0.1679
46525SOL     OW51299   7.391   0.942   5.376 -0.5174 -0.5990  0.6207
46525SOL    HW151300   7.426   0.865   5.420 -0.6684 -1.1009 -0.1154
46525SOL    HW251301   7.296   0.930   5.379 -0.5173 -1.3778 -1.0679
46526SOL     OW51302   0.221   6.898   2.383 -0.2304  0.1883 -0.1785
46526SOL    HW151303   0.254   6.944   2.460 -0.4364  1.1427 -0.6379
46526SOL    HW251304   0.254   6.808   2.392 -0.3816  0.2457  1.0845
46527SOL     OW51305  12.938   3.316   2.891  0.2988  0.2869  0.0417
46527SOL    HW151306  13.011   3.265   2.857  0.8855  1.3365 -0.3041
46527SOL    HW251307  12.879   3.251   2.930  0.5201 -0.7477 -1.2993
46528SOL     OW51308  13.695   5.861   1.045  0.2386 -0.2434 -0.1980
46528SOL    HW151309  13.784   5.836   1.068  0.3393 -0.2968 -0.6567
46528SOL    HW251310  13.644   5.781   1.057  0.1195 -0.0458  0.7398
46529SOL     OW51311  12.289  13.589   4.709  0.1880  0.4942 -0.0465
46529SOL    HW151312  12.306  13.574   4.615  0.3295 -1.3903  0.2279
46529SOL    HW251313  12.360  13.646   4.737  0.4543  0.6487 -0.9774
46530SOL     OW51314   5.794   3.956   6.305 -0.1712 -0.4757  0.6281
46530SOL    HW151315   5.763   4.028   6.360  0.7540 -1.1590  2.0965
46530SOL    HW251316   5.843   3.998   6.235 -0.3607  0.3587  0.9850
46531SOL     OW51317  11.282   2.912   1.985 -0.0715  0.0540 -0.2785
46531SOL    HW151318  11.194   2.908   1.948 -0.6178  0.9321  0.8619
46531SOL    HW251319  11.341   2.910   1.909 -1.1494  1.9243 -1.2132
46532SOL     OW51320   3.824   8.202   4.127  0.0961 -0.0498  0.3305
46532SOL    HW151321   3.756   8.172   4.068  0.6768 -0.7050 -0.0221
46532SOL    HW251322   3.826   8.136   4.197 -0.9415  0.9936  1.3787
46533SOL     OW51323   3.503   8.902  11.058  0.4442 -0.4190  0.3188
46533SOL    HW151324   3.495   8.882  11.151 -0.3701 -0.8383  0.1656
46533SOL    HW251325   3.496   8.818  11.013 -0.2923 -0.1100 -0.1782
46534SOL     OW51326   8.973  12.482   7.190 -0.3101 -0.3141 -0.0396
46534SOL    HW151327   8.964  12.484   7.095 -1.1643 -1.3484  0.0001
46534SOL    HW251328   8.972  12.574   7.216  1.0755  0.0261 -1.1134
46535SOL     OW51329  12.787   0.856   7.602 -1.1834 -0.0141 -0.1025
46535SOL    HW151330  12.825   0.943   7.615 -0.6128  0.0636 -2.0066
46535SOL    HW251331  12.834   0.800   7.664  1.5124  0.2549 -1.7376
46536SOL     OW51332   6.139  12.676   0.289  0.0508  0.0978 -0.0738
46536SOL    HW151333   6.068  12.619   0.317  1.3359 -0.8200  1.4175
46536SOL    HW251334   6.176  12.632   0.212 -0.6610  0.3251 -0.5530
46537SOL     OW51335  13.166   3.980  10.163 -0.5112  0.2007 -0.4013
46537SOL    HW151336  13.248   3.981  10.115  0.4693  1.5725  1.1799
46537SOL    HW251337  13.120   4.059  10.135 -0.5033  0.3372 -0.0384
46538SOL     OW51338  13.366  10.625   5.745  0.0270  0.1073  0.4042
46538SOL    HW151339  13.322  10.543   5.770 -0.1955  0.0823 -0.0630
46538SOL    HW251340  13.351  10.684   5.819 -0.3743 -0.0635  0.4606
46539SOL     OW51341  12.861   8.983   5.762  0.1582  0.1485 -0.2822
46539SOL    HW151342  12.945   9.025   5.781  0.8887 -2.1467  2.1307
46539SOL    HW251343  12.884   8.899   5.722 -1.0385 -0.0171 -0.6736
46540SOL     OW51344   2.550   0.977   4.472  0.5930  0.0767 -0.1955
46540SOL    HW151345   2.495   1.009   4.543 -1.8827 -1.1921 -1.4087
46540SOL    HW251346   2.623   0.933   4.516 -1.1068 -1.1073  1.6377
46541SOL     OW51347  13.473   6.585  13.230 -0.1555  0.0047  0.6023
46541SOL    HW151348  13.438   6.673  13.243  0.2530  0.7954 -2.6653
46541SOL    HW251349  13.566   6.593  13.254  0.0614  0.7264 -0.4023
46542SOL     OW51350  13.559   6.090  13.177 -0.1123  0.2044 -0.3248
46542SOL    HW151351  13.549   6.105  13.271 -1.4768  0.3280 -0.4662
46542SOL    HW251352  13.580   5.996  13.170  0.4771  0.2965  0.1144
46543SOL     OW51353   4.863  10.787   3.611 -0.2342  0.2221  0.1861
46543SOL    HW151354   4.876  10.835   3.529  0.2587  0.0177  0.1427
46543SOL    HW251355   4.834  10.854   3.673  0.5822  0.6130  0.1620
46544SOL     OW51356   1.527   9.023   5.182  0.6463 -0.0348 -0.0807
46544SOL    HW151357   1.509   9.063   5.097 -0.2671  0.2028  0.2162
46544SOL    HW251358   1.609   8.975   5.169 -0.4214 -1.5474 -1.6420
46545SOL     OW51359   4.887   3.886   1.215  0.5977  0.4113  0.2477
46545SOL    HW151360   4.829   3.903   1.289  0.3979  1.5379 -0.1339
46545SOL    HW251361   4.950   3.822   1.247  0.3609  0.6906  1.3061
46546SOL     OW51362  10.525   2.152   2.128 -0.0857 -0.1080 -0.1410
46546SOL    HW151363  10.544   2.076   2.184  0.3144  1.6044  2.1754
46546SOL    HW251364  10.429   2.157   2.127 -0.1246 -0.8149 -0.5765
46547SOL     OW51365  13.081   0.488   2.635 -0.1027  0.1144  0.2376
46547SOL    HW151366  13.075   0.582   2.654 -0.5298 -0.1091  1.2727
46547SOL    HW251367  13.016   0.448   2.692  0.7722 -0.9239  0.5351
46548SOL     OW51368  10.835  13.450   8.373  0.0431 -0.0164 -0.4224
46548SOL    HW151369  10.782  13.510   8.425 -0.0181 -0.9346  0.6214
46548SOL    HW251370  10.795  13.451   8.286 -0.9937  0.1621  0.0439
46549SOL     OW51371   7.074   0.939   7.734  0.2343 -0.0226 -0.3866
46549SOL    HW151372   7.017   0.869   7.701 -0.7025  0.0473  1.0321
46549SOL    HW251373   7.021   1.019   7.726  0.1921  0.0754  0.7313
46550SOL     OW51374   7.692   6.211   8.330  0.3458 -0.4820  0.3204
46550SOL    HW151375   7.684   6.116   8.326 -1.8152 -0.3129 -0.8697
46550SOL    HW251376   7.657   6.235   8.416 -1.5166 -0.6189 -0.3667
46551SOL     OW51377  12.043  12.667  10.074  0.7983 -0.2115 -0.1026
46551SOL    HW151378  12.021  12.638   9.986  1.0955 -0.6132 -0.0470
46551SOL    HW251379  12.077  12.589  10.117  1.7943  0.2598 -0.0100
46552SOL     OW51380  11.188   0.514   1.092  0.7042 -0.0355  0.2379
46552SOL    HW151381  11.102   0.525   1.050  0.0981 -1.5014  1.0459
46552SOL    HW251382  11.188   0.579   1.162  0.3404  0.1145  0.1046
46553SOL     OW51383  11.296   5.404  13.666  0.7266 -0.5381 -0.1822
46553SOL    HW151384  11.377   5.452  13.679 -0.2995  1.2747 -0.1538
46553SOL    HW251385  11.242   5.462  13.612 -0.2280 -2.0701 -0.9419
46554SOL     OW51386   4.752   8.905  10.621  0.2335 -0.1363 -0.5007
46554SOL    HW151387   4.682   8.864  10.673 -0.1545  1.7014  0.5290
46554SOL    HW251388   4.738   8.873  10.532 -1.6387 -0.1981 -0.2314
46555SOL     OW51389  13.719   7.260  11.850 -0.0282 -0.4450 -0.0274
46555SOL    HW151390  13.654   7.267  11.919  1.2102  1.6721  1.0396
46555SOL    HW251391  13.741   7.167  11.847 -1.1841 -0.8021  1.4091
46556SOL     OW51392   4.105   1.821   7.610 -0.1292 -0.3353 -0.2185
46556SOL    HW151393   4.102   1.914   7.584 -2.4781 -0.7143 -1.6188
46556SOL    HW251394   4.096   1.823   7.705  0.7306  0.8845 -0.1308
46557SOL     OW51395   8.624   9.454  10.715 -0.1466  0.3831  0.0573
46557SOL    HW151396   8.678   9.458  10.794  0.5096  1.6571 -0.4333
46557SOL    HW251397   8.652   9.374  10.671  0.3207  0.2849  0.5238
46558SOL     OW51398  12.200   6.080   0.477  0.3928  0.3693  0.4879
46558SOL    HW151399  12.252   6.034   0.410  0.4089  0.7362  0.2440
46558SOL    HW251400  12.110   6.055   0.458  0.3433  0.9016 -0.0184
46559SOL     OW51401   6.131   0.041   9.912  0.1470 -0.0896 -0.2477
46559SOL    HW151402   6.052  -0.012   9.926  1.0209 -1.2616  0.4513
46559SOL    HW251403   6.099   0.130   9.903 -1.2315 -0.4864  0.4459
46560SOL     OW51404   0.490   1.530   4.705 -0.2519  0.5008  0.1380
46560SOL    HW151405   0.481   1.477   4.626 -0.1385 -0.1682  0.5632
46560SOL    HW251406   0.445   1.612   4.685 -0.0758  0.4062 -0.6781
46561SOL     OW51407   7.760   3.273   8.609 -0.3660 -0.1187  0.2392
46561SOL    HW151408   7.668   3.269   8.632 -0.0912 -0.4633  1.3367
46561SOL    HW251409   7.803   3.211   8.668  0.4214 -0.8640 -1.0500
46562SOL     OW51410   8.485   9.203   4.835 -0.5939  0.9660  0.0702
46562SOL    HW151411   8.458   9.113   4.850 -0.3816  1.0614  1.0984
46562SOL    HW251412   8.567   9.212   4.882 -0.7238  1.7626  0.1667
46563SOL     OW51413  11.026  12.756  10.151  0.1484  0.4882 -0.4706
46563SOL    HW151414  10.942  12.757  10.197  0.1711 -0.9732 -0.3400
46563SOL    HW251415  11.087  12.717  10.214  0.5348 -0.0222 -1.1458
46564SOL     OW51416   3.249   7.798   4.042 -0.0562 -0.5368 -0.2322
46564SOL    HW151417   3.284   7.709   4.053  2.4689  0.4764  0.4925
46564SOL    HW251418   3.157   7.790   4.067  0.1185 -2.9138 -0.0915
46565SOL     OW51419   9.455  11.626   4.468  0.0097  0.0985 -0.1254
46565SOL    HW151420   9.392  11.578   4.522  2.5918 -2.4208  0.9229
46565SOL    HW251421   9.405  11.650   4.390 -2.5505 -0.6196  1.1684
46566SOL     OW51422   7.807   6.021   6.441  0.1218 -0.2438  0.8498
46566SOL    HW151423   7.858   6.006   6.362  0.0265  0.3075  0.6754
46566SOL    HW251424   7.802   5.936   6.483 -1.5887 -1.0537 -0.7932
46567SOL     OW51425  11.086  10.124   7.025  0.1101  0.3443  0.0866
46567SOL    HW151426  11.025  10.171   6.968  1.2296  2.9276  0.8874
46567SOL    HW251427  11.173  10.146   6.991  0.7107 -1.2448  0.4848
46568SOL     OW51428   3.738  12.297   4.361  0.4271 -0.1502 -0.5018
46568SOL    HW151429   3.779  12.217   4.395 -0.9833 -0.6418  0.0828
46568SOL    HW251430   3.768  12.302   4.270  1.6465 -0.5676 -0.1529
46569SOL     OW51431   6.886   0.988   9.548  0.3971 -0.0608  0.1058
46569SOL    HW151432   6.821   1.007   9.480 -1.4637 -0.2390  1.7341
46569SOL    HW251433   6.968   1.023   9.514 -0.6973  0.8483 -1.7301
46570SOL     OW51434   3.758   1.596   5.470  0.2211  0.3262  0.1495
46570SOL    HW151435   3.786   1.549   5.391 -1.1605  0.7753 -0.6272
46570SOL    HW251436   3.674   1.556   5.493 -0.5871  1.8485 -0.0588
46571SOL     OW51437   4.173   2.786   9.335  0.0797 -0.1983  0.1787
46571SOL    HW151438   4.113   2.724   9.294 -0.5165 -0.3504  1.2404
46571SOL    HW251439   4.117   2.840   9.391  0.5996  1.2743 -0.6804
46572SOL     OW51440  11.143   3.660   4.925 -0.2385  0.1539  0.0372
46572SOL    HW151441  11.063   3.687   4.879  0.5020  1.0990 -0.7352
46572SOL    HW251442  11.191   3.608   4.860  0.0753  0.1358  0.2812
46573SOL     OW51443  13.649   6.684  11.159  0.5458 -0.2684  0.8177
46573SOL    HW151444  13.704   6.679  11.081  1.7209  0.9406  1.5237
46573SOL    HW251445  13.653   6.776  11.185 -0.4912 -0.4899  1.8263
46574SOL     OW51446   3.397   8.861   0.384 -0.3622 -0.0693  0.0778
46574SOL    HW151447   3.315   8.902   0.409 -0.9641 -0.0940 -1.6803
46574SOL    HW251448   3.438   8.836   0.467 -0.6218  2.7492  1.1446
46575SOL     OW51449   3.989   4.389   9.354  0.2776 -0.4148  0.0693
46575SOL    HW151450   3.995   4.468   9.408 -1.2116  0.5838 -1.1430
46575SOL    HW251451   4.073   4.385   9.308  0.0016  1.0605 -0.6205
46576SOL     OW51452   4.175   9.162  10.183 -0.7735 -0.1449  0.1135
46576SOL    HW151453   4.196   9.223  10.112  0.1668  1.1960  1.4626
46576SOL    HW251454   4.083   9.180  10.203 -0.1687  1.9719  1.4220
46577SOL     OW51455   3.258   0.862   9.630  0.5934  0.1788  0.2606
46577SOL    HW151456   3.303   0.867   9.714  0.0507 -2.1283  0.7770
46577SOL    HW251457   3.321   0.820   9.571  0.5125  0.6096 -0.1405
46578SOL     OW51458   5.722   0.487   7.255  0.3995  0.8413  0.5803
46578SOL    HW151459   5.659   0.438   7.202  1.3179  0.2567 -0.0065
46578SOL    HW251460   5.802   0.434   7.251  0.3694  0.5206  2.9732
46579SOL     OW51461   4.209   0.818   5.412  0.4457  0.0519  0.1963
46579SOL    HW151462   4.303   0.837   5.410  0.4278  0.1346  0.1385
46579SOL    HW251463   4.202   0.729   5.377  0.4294  0.3306 -0.5224
46580SOL     OW51464   0.562   5.485   9.310  0.7052 -0.1839  0.6981
46580SOL    HW151465   0.612   5.566   9.318  0.1774  0.3887 -1.4283
46580SOL    HW251466   0.559   5.451   9.400 -1.4174  3.5365  2.3007
46581SOL     OW51467   2.303  12.342   2.578  0.1945  0.5419  0.1823
46581SOL    HW151468   2.255  12.402   2.635 -1.6555  0.7106 -1.4302
46581SOL    HW251469   2.345  12.280   2.638 -2.4655  0.0938  1.7472
46582SOL     OW51470   1.395   2.279  12.879 -0.3426 -0.3036 -0.4320
46582SOL    HW151471   1.404   2.308  12.970  1.0877  1.4048 -1.0597
46582SOL    HW251472   1.476   2.232  12.861 -0.7921 -0.9744 -0.7130
46583SOL     OW51473   8.451   5.527  12.763  0.1407  0.4334 -0.1842
46583SOL    HW151474   8.486   5.566  12.683 -0.7373  0.7408 -0.4307
46583SOL    HW251475   8.514   5.458  12.785  1.1925  1.3296 -0.2885
46584SOL     OW51476   6.642  11.690   2.344  0.0045 -0.1840  0.3500
46584SOL    HW151477   6.655  11.774   2.388 -1.4657 -0.8426  2.1652
46584SOL    HW251478   6.552  11.666   2.365 -0.0610 -1.5603 -1.3242
46585SOL     OW51479   1.009  10.204   4.399  0.1639  0.2872 -0.2623
46585SOL    HW151480   0.980  10.175   4.485 -1.1172 -3.1336 -1.6782
46585SOL    HW251481   1.089  10.254   4.416 -0.2367  0.0763  2.8842
46586SOL     OW51482   1.687   0.078   9.830 -0.3100  0.1252  0.7351
46586SOL    HW151483   1.682   0.163   9.785  0.0970 -1.0257 -1.6094
46586SOL    HW251484   1.779   0.068   9.852 -0.1179 -0.2849 -0.2167
46587SOL     OW51485   3.450  12.390   6.763  0.6607 -0.0035  0.3623
46587SOL    HW151486   3.529  12.418   6.809  0.3054  1.6563  0.0178
46587SOL    HW251487   3.378  12.420   6.819  0.2285 -1.5221  0.6889
46588SOL     OW51488   3.402   6.783  13.651  0.5876 -0.4086 -0.2926
46588SOL    HW151489   3.327   6.835  13.622  1.0337  0.1946 -0.3892
46588SOL    HW251490   3.369   6.732  13.725  0.4833  1.0149  0.6783
46589SOL     OW51491   4.051   4.000   7.649  0.1322  0.0133 -0.3268
46589SOL    HW151492   4.084   4.082   7.685 -2.1862  1.8708 -2.0429
46589SOL    HW251493   4.089   3.994   7.562 -0.6303 -0.0868 -0.6670
46590SOL     OW51494   6.786   0.559  12.153 -0.3578 -0.4973  0.1955
46590SOL    HW151495   6.718   0.494  12.168 -1.1422 -0.2645 -2.0305
46590SOL    HW251496   6.749   0.619  12.088  1.9145 -0.2774 -1.0037
46591SOL     OW51497   3.763  13.315   8.628  0.2067  0.4252  0.3202
46591SOL    HW151498   3.734  13.303   8.537 -0.3308  0.7810  0.4419
46591SOL    HW251499   3.858  13.303   8.624  0.6039  3.1680 -0.8107
46592SOL     OW51500  10.887  11.417  10.707 -0.0028  0.9459 -0.3458
46592SOL    HW151501  10.799  11.453  10.692  0.0869  1.4057  0.1867
46592SOL    HW251502  10.933  11.486  10.755  1.4722  1.7246 -2.7294
46593SOL     OW51503   3.250   1.951   0.607 -0.1658 -0.5401  0.3551
46593SOL    HW151504   3.164   1.911   0.623  0.3249 -1.0232  1.9409
46593SOL    HW251505   3.247   1.976   0.515 -1.8529 -0.9246  0.2622
46594SOL     OW51506  11.917  11.390   0.005 -0.2417  0.3567 -0.3590
46594SOL    HW151507  11.926  11.471   0.055  2.1142  0.5511 -0.9694
46594SOL    HW251508  11.946  11.321   0.064  1.7048  0.4870 -1.0933
46595SOL     OW51509   6.780   1.255  13.301 -0.0272 -0.1553  1.0652
46595SOL    HW151510   6.873   1.249  13.322  0.1218 -2.2760  0.1069
46595SOL    HW251511   6.775   1.318  13.229  0.6292  0.1602  1.2941
46596SOL     OW51512   7.797   4.697   0.703  0.3581 -0.1248  0.4636
46596SOL    HW151513   7.764   4.633   0.640 -0.2034  0.1225  0.5040
46596SOL    HW251514   7.850   4.646   0.764 -2.2406 -1.0280  2.1028
46597SOL     OW51515   1.539   4.641   8.664  0.2098  0.1249  0.8124
46597SOL    HW151516   1.552   4.682   8.750 -0.5415  2.0305  0.0732
46597SOL    HW251517   1.605   4.571   8.660  3.1558  2.6763  1.2973
46598SOL     OW51518   8.387   8.443   0.078  0.3315  0.1677 -0.2699
46598SOL    HW151519   8.475   8.444   0.116  0.5643  0.4114 -0.8048
46598SOL    HW251520   8.373   8.352   0.052  0.5074  0.1663 -0.3634
46599SOL     OW51521   3.215   0.725  10.049 -0.6643 -0.3301  0.5227
46599SOL    HW151522   3.163   0.788   9.999  1.6185  0.5696 -0.8518
46599SOL    HW251523   3.242   0.774  10.127 -2.0136 -0.8858  1.3771
46600SOL     OW51524   7.224  12.780  12.220 -0.2585 -0.0728 -0.4687
46600SOL    HW151525   7.313  12.810  12.238 -0.9434  1.9562 -0.2252
46600SOL    HW251526   7.201  12.823  12.138 -1.4875  0.5165  0.1681
46601SOL     OW51527   3.038   6.652   6.276  0.4882 -0.6313 -0.1117
46601SOL    HW151528   3.132   6.652   6.259  0.6637  2.2562  0.2726
46601SOL    HW251529   3.022   6.736   6.319 -2.3442 -0.8269 -0.5886
46602SOL     OW51530   6.321  10.143   5.444  0.1632 -0.2377  0.1792
46602SOL    HW151531   6.273  10.062   5.429 -0.1154  0.0230 -0.3787
46602SOL    HW251532   6.359  10.164   5.359 -1.8690  1.5475 -0.3954
46603SOL     OW51533  10.621   4.115   1.784 -0.8093 -0.5881 -0.3408
46603SOL    HW151534  10.714   4.128   1.765 -0.8168  1.3632  0.6078
46603SOL    HW251535  10.605   4.022   1.771  1.0521 -0.7901 -1.4428
46604SOL     OW51536  10.447   9.508   9.022  0.2118  0.6543 -0.3052
46604SOL    HW151537  10.509   9.527   9.093  1.2917 -1.0565 -0.7256
46604SOL    HW251538  10.388   9.583   9.021  0.7756  1.1970  1.7401
46605SOL     OW51539   0.218   6.167   9.343 -0.7126 -0.2338  0.3900
46605SOL    HW151540   0.208   6.242   9.284 -0.6144  0.1379  0.8307
46605SOL    HW251541   0.209   6.090   9.287 -0.4798  0.1104 -0.1279
46606SOL     OW51542  11.038   3.341   9.050 -0.0023  0.2997 -0.4455
46606SOL    HW151543  11.088   3.376   9.124  2.0926  0.4636 -1.8611
46606SOL    HW251544  11.044   3.246   9.060  0.1198  0.3212 -0.3074
46607SOL     OW51545   8.583   0.472   2.461 -0.1817 -0.0550 -0.4383
46607SOL    HW151546   8.508   0.530   2.449 -2.3440 -2.5694  0.1817
46607SOL    HW251547   8.614   0.456   2.371 -0.6625  0.6232 -0.7395
46608SOL     OW51548  13.082   0.132  12.172  0.2744  0.0769  0.2917
46608SOL    HW151549  13.081   0.108  12.080 -1.1646  0.8398  0.0753
46608SOL    HW251550  12.994   0.166  12.189 -0.4522 -2.5234  2.6095
46609SOL     OW51551   1.260   5.339  11.892 -0.7684  0.4139 -0.0062
46609SOL    HW151552   1.286   5.321  11.983 -1.6746  1.5354  0.5111
46609SOL    HW251553   1.338   5.319  11.841 -0.8626 -2.2617  0.7340
46610SOL     OW51554  11.006   0.887  13.393  0.1460 -0.2305  0.2168
46610SOL    HW151555  10.971   0.975  13.406  1.0237  0.1517  0.0583
46610SOL    HW251556  11.098   0.901  13.370 -0.3961 -0.9980 -2.9172
46611SOL     OW51557   5.769   9.939   8.379 -0.0881 -0.2432  0.2842
46611SOL    HW151558   5.839   9.877   8.400  1.1211  0.2554 -1.9170
46611SOL    HW251559   5.689   9.889   8.394  0.5708 -0.4783  3.9951
46612SOL     OW51560   5.200   9.587   5.404 -1.0691  0.2344  0.1226
46612SOL    HW151561   5.204   9.501   5.446 -0.7230 -0.4049 -1.1753
46612SOL    HW251562   5.227   9.648   5.473  0.2538 -0.8523  0.6246
46613SOL     OW51563  12.134   6.019   0.811  0.5953 -0.2887 -0.9401
46613SOL    HW151564  12.229   6.028   0.812  0.4284  2.4591  0.3325
46613SOL    HW251565  12.114   5.973   0.893  0.7746  0.7138 -0.3127
46614SOL     OW51566  11.894   0.997   6.231 -0.2132  0.2884  0.2952
46614SOL    HW151567  11.954   0.946   6.177  1.5596  0.5773  1.9107
46614SOL    HW251568  11.808   0.961   6.210  0.6702 -1.3190 -0.8160
46615SOL     OW51569  11.519   4.731   7.574  0.4035  0.3854  0.1776
46615SOL    HW151570  11.603   4.772   7.557  0.7846 -0.3517  0.2141
46615SOL    HW251571  11.537   4.637   7.569 -0.0883  0.1860  1.7460
46616SOL     OW51572   6.441   5.347  12.543  0.0937  0.1094  0.7858
46616SOL    HW151573   6.492   5.349  12.624  0.1672  1.3788  0.7332
46616SOL    HW251574   6.490   5.403  12.483  0.2866 -1.1870 -0.3185
46617SOL     OW51575  13.048   2.836   4.344 -0.2636  0.2098 -0.4854
46617SOL    HW151576  12.970   2.820   4.292 -1.1146 -0.8026  1.0503
46617SOL    HW251577  13.049   2.767   4.409  1.1773  0.9981  0.3920
46618SOL     OW51578  12.561   7.464  10.376  0.5305  0.7663 -0.2497
46618SOL    HW151579  12.501   7.390  10.378  1.9007 -0.4027 -0.8731
46618SOL    HW251580  12.551   7.505  10.462 -0.7855  0.3114 -0.1703
46619SOL     OW51581  11.734  11.894   0.730 -0.0278 -0.2698  0.1388
46619SOL    HW151582  11.801  11.955   0.760  0.0116 -0.5158  0.5582
46619SOL    HW251583  11.783  11.822   0.690 -0.0385 -0.4714  0.4864
46620SOL     OW51584   0.736   6.768   9.233 -0.5506 -0.4019  0.1247
46620SOL    HW151585   0.741   6.676   9.209  0.0103 -0.1604 -0.7387
46620SOL    HW251586   0.818   6.806   9.200 -0.0658  0.1060  1.8010
46621SOL     OW51587  10.497   3.481  10.046  0.1260 -0.5222  0.1292
46621SOL    HW151588  10.581   3.437  10.060 -0.2722 -0.9733  1.2324
46621SOL    HW251589  10.441   3.414  10.007  0.0631 -0.4459  0.0885
46622SOL     OW51590  10.907   0.226   8.110 -0.1802 -0.3297 -0.4608
46622SOL    HW151591  10.956   0.307   8.122 -0.6013 -0.0015 -0.9304
46622SOL    HW251592  10.824   0.253   8.071 -0.8038 -0.8592  0.4496
46623SOL     OW51593  12.446   9.685  10.959  0.8040 -0.2895  0.1265
46623SOL    HW151594  12.411   9.619  10.900 -0.2498 -0.4100  0.8700
46623SOL    HW251595  12.415   9.768  10.923 -1.6567 -0.4630  1.6101
46624SOL     OW51596  11.542   6.609   1.701 -0.0119  0.3115 -0.0026
46624SOL    HW151597  11.532   6.514   1.710 -2.5736  0.6405  2.1109
46624SOL    HW251598  11.613   6.632   1.761  0.3254 -0.2381 -0.1888
46625SOL     OW51599   5.961  13.029  12.717 -0.1918  0.0317 -0.3136
46625SOL    HW151600   5.973  12.959  12.653 -0.4229 -0.2159 -0.0908
46625SOL    HW251601   6.004  13.105  12.678 -1.0481  0.1113 -1.1314
46626SOL     OW51602  11.454   3.757  11.311 -0.2821 -0.3075  0.3342
46626SOL    HW151603  11.392   3.686  11.296 -1.7696  0.8373  0.8620
46626SOL    HW251604  11.509   3.728  11.384 -0.7880 -0.9556  0.4545
46627SOL     OW51605  10.256   8.404   5.420 -0.2129  0.4832 -0.7763
46627SOL    HW151606  10.170   8.446   5.423 -0.2576  0.3013  1.1697
46627SOL    HW251607  10.246   8.323   5.470  0.4748 -0.8085 -2.5865
46628SOL     OW51608   4.071   5.955   8.390  0.2145  0.2488 -0.1620
46628SOL    HW151609   4.127   6.014   8.440  1.5518  0.3861 -1.7475
46628SOL    HW251610   4.072   5.873   8.440 -3.0180  1.8749  2.9815
46629SOL     OW51611   8.313   0.655   5.973  0.4506 -0.3810 -0.0922
46629SOL    HW151612   8.381   0.609   5.924  0.1037 -0.7688 -0.2148
46629SOL    HW251613   8.309   0.610   6.057  0.5523 -0.1673  0.0279
46630SOL     OW51614  11.561  12.565   3.324  0.4220 -0.4691  0.4459
46630SOL    HW151615  11.582  12.641   3.379 -0.2026 -1.4929  2.2024
46630SOL    HW251616  11.520  12.602   3.246  0.9026  1.0307  0.8692
46631SOL     OW51617   4.077   1.177   1.005 -0.4132  0.1310  0.0690
46631SOL    HW151618   4.003   1.120   1.024  1.2096 -2.1179  0.0368
46631SOL    HW251619   4.084   1.235   1.081 -0.0537 -2.0666  1.8179
46632SOL     OW51620   0.309   3.875   5.106 -0.2923  0.0217  0.0099
46632SOL    HW151621   0.282   3.900   5.195 -1.3130  0.7897 -0.4906
46632SOL    HW251622   0.404   3.867   5.111 -0.1391  1.8948  0.7391
46633SOL     OW51623   6.951   7.801   7.104 -0.4849 -0.4765  0.3396
46633SOL    HW151624   6.985   7.859   7.035  2.2734 -1.5523  0.6642
46633SOL    HW251625   6.856   7.808   7.096 -0.2647  1.4742 -1.8161
46634SOL     OW51626   5.005  11.902   9.648 -0.5775  0.0486  0.4187
46634SOL    HW151627   4.970  11.961   9.715 -0.7456 -0.3566  0.6884
46634SOL    HW251628   4.927  11.867   9.604 -0.4572  1.1011 -0.6823
46635SOL     OW51629   6.225   6.402  12.284  0.8223  0.1062  0.6146
46635SOL    HW151630   6.270   6.325  12.249  1.3441  0.5853  0.1957
46635SOL    HW251631   6.156   6.367  12.339  0.5385 -0.6666 -0.2118
46636SOL     OW51632  11.129   4.538   1.806  0.0102 -0.0077 -0.0377
46636SOL    HW151633  11.187   4.531   1.730 -2.3632  0.3088 -1.9973
46636SOL    HW251634  11.100   4.448   1.822  2.1360 -0.4410  1.9889
46637SOL     OW51635  12.003   0.080  11.834 -0.3336  0.1770 -0.2926
46637SOL    HW151636  12.000  -0.016  11.829  1.7170  0.1277 -3.1594
46637SOL    HW251637  11.912   0.106  11.847 -0.7715 -2.1375  2.2881
46638SOL     OW51638   6.991   7.175   6.789 -0.4919 -0.3376  0.4598
46638SOL    HW151639   7.008   7.211   6.876  1.1465  1.0058 -0.3487
46638SOL    HW251640   7.075   7.181   6.744 -1.4814 -0.2500 -1.4722
46639SOL     OW51641   8.666   8.761   4.198 -0.4926 -0.8185  0.0810
46639SOL    HW151642   8.708   8.844   4.176  0.0273 -0.8224  1.0019
46639SOL    HW251643   8.737   8.706   4.231 -1.0846 -1.0906  0.9325
46640SOL     OW51644   6.833  12.078   7.671  0.1568  0.4489 -0.0910
46640SOL    HW151645   6.832  12.021   7.748  1.9110 -1.3712 -1.2874
46640SOL    HW251646   6.771  12.037   7.610 -0.5278  1.3388 -0.0001
46641SOL     OW51647   6.645  12.576   8.752 -0.2731 -0.0056  0.3811
46641SOL    HW151648   6.677  12.626   8.827  0.3192  0.0698  0.0808
46641SOL    HW251649   6.707  12.505   8.742  1.2693  1.5262 -1.7129
46642SOL     OW51650  11.653   4.416   3.376 -0.2887  0.0825  0.9402
46642SOL    HW151651  11.682   4.407   3.285 -2.2023  1.7053  0.0886
46642SOL    HW251652  11.655   4.327   3.411  1.5265 -0.4286 -0.3206
46643SOL     OW51653   3.471   0.465  12.132  0.4700  0.0074  0.1263
46643SOL    HW151654   3.538   0.484  12.197  1.0443  1.8701 -0.9446
46643SOL    HW251655   3.520   0.428  12.058  0.1342  0.0668 -0.1271
46644SOL     OW51656   7.291   5.480   9.482  0.2417 -0.0027 -0.5187
46644SOL    HW151657   7.330   5.395   9.501  0.5769  0.5669  1.6017
46644SOL    HW251658   7.203   5.476   9.519  0.9739  1.2042  1.5522
46645SOL     OW51659   3.025   7.161  10.931  0.3378 -0.1106  0.0274
46645SOL    HW151660   3.092   7.147  10.865  0.2427 -0.3099 -0.0296
46645SOL    HW251661   3.043   7.095  10.998  0.8874  0.5793  0.5663
46646SOL     OW51662  11.110   8.597  13.278 -0.3710  0.1510 -0.5675
46646SOL    HW151663  11.019   8.578  13.256 -1.5260  0.3050  3.3026
46646SOL    HW251664  11.138   8.522  13.330  1.0947  0.9379 -0.1728
46647SOL     OW51665   0.380   7.311   8.487  0.0073  0.1160  0.7116
46647SOL    HW151666   0.421   7.225   8.494 -0.0611  0.1071  0.9862
46647SOL    HW251667   0.295   7.301   8.531  0.6998  0.7886  2.2654
46648SOL     OW51668  10.149   8.425   5.788  0.5808 -0.6008  0.5749
46648SOL    HW151669  10.146   8.343   5.739  2.8533  0.6640 -1.9229
46648SOL    HW251670  10.124   8.492   5.725  3.0538  1.0504  1.1823
46649SOL     OW51671   9.051   6.267   3.723 -0.5971  0.7946  0.6160
46649SOL    HW151672   9.120   6.234   3.781 -0.3115  0.3259  0.0092
46649SOL    HW251673   9.087   6.259   3.635 -2.2123 -1.4934  0.0821
46650SOL     OW51674   2.041  13.034   3.264 -0.2914  0.1545 -0.0339
46650SOL    HW151675   2.131  13.005   3.245  0.1072 -0.2989  2.2775
46650SOL    HW251676   2.001  13.042   3.177  1.1024 -2.4800 -1.0738
46651SOL     OW51677   5.714   8.186   6.923  0.1766 -0.3753 -0.1601
46651SOL    HW151678   5.731   8.165   6.831 -0.5751  0.3310 -0.4773
46651SOL    HW251679   5.794   8.227   6.954  0.6063 -1.0511 -0.3638
46652SOL     OW51680   5.203   9.476  10.341  0.1268  0.2742  0.0035
46652SOL    HW151681   5.270   9.461  10.408  0.3126  0.7939 -0.0654
46652SOL    HW251682   5.179   9.568  10.351  0.5119  0.4967 -0.9609
46653SOL     OW51683   7.780  12.904   5.034  0.5081 -0.3644  0.6557
46653SOL    HW151684   7.739  12.833   5.082  0.5622  0.5780  2.1656
46653SOL    HW251685   7.765  12.982   5.088  0.9728  0.6673 -0.6389
46654SOL     OW51686   0.207   4.049   9.104  0.1899 -0.6559 -0.4419
46654SOL    HW151687   0.204   3.955   9.121  0.3291 -0.9543 -1.9514
46654SOL    HW251688   0.208   4.089   9.191  0.8455 -2.0676  0.2294
46655SOL     OW51689  11.952   4.011  13.622 -0.5701 -0.5282  0.6525
46655SOL    HW151690  11.931   4.073  13.692 -2.2993  1.6419 -1.6033
46655SOL    HW251691  11.875   4.014  13.565  1.2546 -1.2166 -1.9947
46656SOL     OW51692   4.301   4.474   0.788  0.1238 -0.5702 -0.4959
46656SOL    HW151693   4.385   4.483   0.834 -0.0289 -1.3099 -0.0464
46656SOL    HW251694   4.245   4.539   0.829  1.2691  2.0694 -2.8112
46657SOL     OW51695  12.729   6.336   6.541 -0.6472 -1.1761 -0.2420
46657SOL    HW151696  12.753   6.418   6.499  1.2663 -0.8618  1.2755
46657SOL    HW251697  12.634   6.331   6.533 -0.6103  0.2164 -2.0459
46658SOL     OW51698   1.244   2.865   5.682  0.2769 -0.0140  0.0637
46658SOL    HW151699   1.254   2.837   5.591  0.0285 -0.2711  0.1131
46658SOL    HW251700   1.334   2.868   5.716  0.2230 -2.6421  0.6062
46659SOL     OW51701  10.627   0.723   5.593 -0.1160 -0.4514 -0.1327
46659SOL    HW151702  10.576   0.665   5.537 -0.3509 -1.5072  1.1207
46659SOL    HW251703  10.564   0.755   5.657  0.2671  0.2714 -0.1127
46660SOL     OW51704   7.692   7.627   3.034 -0.2293 -0.2764  0.1839
46660SOL    HW151705   7.666   7.585   3.116  0.5167 -1.1735 -0.0235
46660SOL    HW251706   7.715   7.716   3.059 -1.6471 -0.0214  0.6612
46661SOL     OW51707  11.266   8.484   5.659  0.2685  0.3277 -0.3789
46661SOL    HW151708  11.211   8.515   5.586  0.3154 -0.7534 -0.9009
46661SOL    HW251709  11.225   8.401   5.685 -0.4454  1.2626  1.6351
46662SOL     OW51710   2.025   5.190   5.522 -0.2874 -0.0966 -0.0495
46662SOL    HW151711   1.975   5.269   5.502 -1.7507 -0.6669  1.1785
46662SOL    HW251712   2.061   5.163   5.438 -0.0564  1.6491 -0.5628
46663SOL     OW51713   7.101  11.634   1.150  0.7870  0.3273  0.5382
46663SOL    HW151714   7.065  11.566   1.093 -0.0520  0.3577  1.0105
46663SOL    HW251715   7.147  11.585   1.218 -1.3781  0.0863  1.9430
46664SOL     OW51716   1.495   3.089   7.851  0.3067 -0.5693  0.1915
46664SOL    HW151717   1.439   3.138   7.911 -0.5951 -1.9692  0.5531
46664SOL    HW251718   1.563   3.150   7.826 -1.0142  0.9994  0.2699
46665SOL     OW51719   9.973   5.759   5.880  0.3319  0.5912  0.0603
46665SOL    HW151720   9.956   5.835   5.824 -1.6114  0.5068  0.4611
46665SOL    HW251721   9.996   5.797   5.965 -0.3847  0.7530  0.1916
46666SOL     OW51722   5.264  11.922   1.085 -0.1049  0.0734 -0.0089
46666SOL    HW151723   5.325  11.920   1.158 -0.7102  0.7431  0.5279
46666SOL    HW251724   5.298  11.857   1.024  0.7711 -0.0330  0.5716
46667SOL     OW51725   1.157  11.227   7.336  0.4882  0.5939 -0.2386
46667SOL    HW151726   1.168  11.288   7.408  0.2598  1.1108 -0.6315
46667SOL    HW251727   1.080  11.175   7.359  0.6659  0.4719  0.0833
46668SOL     OW51728   0.715   8.353   7.972 -0.8754  0.1440  0.4175
46668SOL    HW151729   0.764   8.272   7.968 -0.1241  0.6177 -1.6533
46668SOL    HW251730   0.629   8.330   7.936 -1.2118 -0.0567  1.3260
46669SOL     OW51731  13.684  11.781   2.911 -0.0098 -0.0511  0.0393
46669SOL    HW151732  13.633  11.796   2.831  0.0862  0.4540  0.0737
46669SOL    HW251733  13.765  11.830   2.898  0.6023 -1.0632 -0.1292
46670SOL     OW51734   6.715   3.783   2.848  0.3423  0.6596  0.2593
46670SOL    HW151735   6.767   3.749   2.921 -0.4513  1.1904  1.0968
46670SOL    HW251736   6.768   3.767   2.770  0.9667 -0.4242  0.8902
46671SOL     OW51737  11.349  13.245   8.876  0.4740 -0.1838  0.6218
46671SOL    HW151738  11.318  13.172   8.823  0.6175  1.4980 -1.9264
46671SOL    HW251739  11.438  13.221   8.900  0.7489 -0.6049 -0.7272
46672SOL     OW51740   7.586  13.395  10.114  0.0790 -0.2877  0.0054
46672SOL    HW151741   7.557  13.366  10.201 -1.1825 -0.2557 -0.3976
46672SOL    HW251742   7.656  13.334  10.092 -0.8707 -1.5079  0.2406
46673SOL     OW51743   0.623   7.524  11.968 -0.2819  0.1154  0.3025
46673SOL    HW151744   0.547   7.544  12.023 -0.5543 -0.7537  0.2677
46673SOL    HW251745   0.685   7.594  11.986 -0.7555  0.3741  0.9835
46674SOL     OW51746  10.875   7.126   7.414  0.4090 -0.1411  0.3738
46674SOL    HW151747  10.894   7.032   7.406 -2.2591 -0.7817  0.8524
46674SOL    HW251748  10.890   7.145   7.507 -2.0230 -0.8836  0.9777
46675SOL     OW51749   0.073   5.436   2.366 -0.3291 -0.1911 -0.2449
46675SOL    HW151750   0.028   5.440   2.450  1.1869 -1.6413  0.6817
46675SOL    HW251751   0.112   5.523   2.356 -1.0563  0.1988  0.2308
46676SOL     OW51752  13.608  11.811   0.052 -0.2229  0.3289 -0.2980
46676SOL    HW151753  13.666  11.881   0.025  0.4711  0.2807  1.0122
46676SOL    HW251754  13.621  11.742  -0.014  0.0682  0.9012 -0.8473
46677SOL     OW51755   8.215   3.346   0.098 -0.2765 -0.2604  0.0471
46677SOL    HW151756   8.163   3.275   0.137 -2.6773  1.1077 -0.4720
46677SOL    HW251757   8.255   3.390   0.173  0.6232 -1.6641  0.4254
46678SOL     OW51758   1.547   3.177   9.369 -0.2963  0.0312  0.2854
46678SOL    HW151759   1.520   3.171   9.277 -0.8027 -0.2408  0.4497
46678SOL    HW251760   1.572   3.088   9.392 -0.7240 -0.0115  0.5819
46679SOL     OW51761   4.166   0.515   4.881 -0.2102  0.4375 -0.4768
46679SOL    HW151762   4.158   0.529   4.787  0.8733 -0.5833 -0.7465
46679SOL    HW251763   4.079   0.531   4.915 -0.5030  1.3148 -1.5852
46680SOL     OW51764   7.799   4.714   3.674  0.0531  0.1590 -0.1141
46680SOL    HW151765   7.810   4.759   3.758  1.1437  0.5243 -0.4291
46680SOL    HW251766   7.817   4.781   3.609  0.7003 -0.4834 -0.6105
46681SOL     OW51767  11.399   5.414   3.023  0.6163  0.4192 -0.1240
46681SOL    HW151768  11.392   5.354   2.949  0.5328  1.6875 -1.1796
46681SOL    HW251769  11.362   5.365   3.097 -0.5057 -0.4124 -1.1884
46682SOL     OW51770  10.658   3.695   8.340  0.1552  0.5173  0.2153
46682SOL    HW151771  10.715   3.686   8.264 -1.1966 -0.8353 -0.6801
46682SOL    HW251772  10.652   3.790   8.354 -0.3744  0.8672 -2.0000
46683SOL     OW51773   3.248   5.102   7.012 -0.4839 -0.1492  0.0583
46683SOL    HW151774   3.163   5.112   6.969  0.2920  1.4007 -1.2581
46683SOL    HW251775   3.310   5.092   6.939  0.4504 -1.6083  0.9978
46684SOL     OW51776   6.807   9.242  13.064  0.2602  0.2401 -0.2310
46684SOL    HW151777   6.851   9.325  13.081  1.4397 -0.6151  1.2155
46684SOL    HW251778   6.715   9.258  13.086  0.7050  0.8444  1.3509
46685SOL     OW51779   4.177   1.861   0.266  0.4680  0.2468  0.4158
46685SOL    HW151780   4.227   1.841   0.186 -0.5413 -0.3647 -0.0785
46685SOL    HW251781   4.207   1.795   0.329  0.8410  0.3689  0.3727
46686SOL     OW51782   4.531   0.652   2.291 -0.1542  0.2399 -0.4023
46686SOL    HW151783   4.507   0.561   2.307 -0.6286  0.1910 -1.3099
46686SOL    HW251784   4.610   0.647   2.238  0.6417  0.3900  0.7174
46687SOL     OW51785  11.155   1.205   8.113 -0.2897 -0.6613  0.0867
46687SOL    HW151786  11.155   1.114   8.143 -3.3411 -0.2352  1.7758
46687SOL    HW251787  11.243   1.237   8.134  0.2962 -2.7164  1.0507
46688SOL     OW51788   0.127   2.726   9.391  0.4747 -0.4471  0.1943
46688SOL    HW151789   0.153   2.667   9.463  1.5195 -0.8637 -0.5025
46688SOL    HW251790   0.135   2.814   9.428 -0.5925 -0.6938  1.0855
46689SOL     OW51791  12.629  10.906  10.549 -0.5359  0.2161  0.1484
46689SOL    HW151792  12.634  10.975  10.483  1.6130  0.6301  0.6724
46689SOL    HW251793  12.696  10.929  10.613 -0.9520 -1.4475  1.2387
46690SOL     OW51794  13.458  13.336   1.315 -0.0300 -0.2340 -0.0203
46690SOL    HW151795  13.418  13.386   1.386 -1.7284  0.6967 -1.5752
46690SOL    HW251796  13.398  13.263   1.300  0.2129 -0.3155 -0.6247
46691SOL     OW51797  10.630   3.370   6.902 -0.2482 -0.1917 -0.3904
46691SOL    HW151798  10.592   3.369   6.990 -1.8972 -0.2009 -1.0523
46691SOL    HW251799  10.630   3.278   6.875 -1.4708 -0.0229 -1.0564
46692SOL     OW51800   6.564  11.105   6.007  0.3901  0.0845 -0.1336
46692SOL    HW151801   6.596  11.103   5.917 -0.6040  0.0121 -0.4991
46692SOL    HW251802   6.538  11.015   6.025  0.3984  0.1411  0.1613
46693SOL     OW51803   2.687   6.703   6.337 -0.0615  0.2748  0.8097
46693SOL    HW151804   2.604   6.712   6.290  0.3698 -0.3181 -0.0945
46693SOL    HW251805   2.674   6.627   6.394  0.8682 -1.8996 -1.6729
46694SOL     OW51806   9.175   3.146   4.396 -0.0698  0.0590  0.2162
46694SOL    HW151807   9.252   3.200   4.382  1.3435 -1.8656  0.0928
46694SOL    HW251808   9.143   3.127   4.308  0.8889 -1.2316  0.1213
46695SOL     OW51809   9.990  13.041  10.516 -0.2240  0.3925 -0.1768
46695SOL    HW151810  10.022  13.058  10.605 -0.6076 -0.2585  0.0969
46695SOL    HW251811   9.898  13.018  10.527 -0.3482  0.5773 -0.7756
46696SOL     OW51812   7.070   5.143  11.930  0.0805 -0.3946  0.7619
46696SOL    HW151813   7.131   5.113  11.862 -0.0219 -0.0297  0.5006
46696SOL    HW251814   7.072   5.238  11.923 -0.6954 -0.3841  0.5884
46697SOL     OW51815   4.148   0.448   6.732  0.1299 -0.1145  0.2066
46697SOL    HW151816   4.151   0.478   6.641 -0.9627 -0.2368  0.1235
46697SOL    HW251817   4.174   0.524   6.783  1.7186 -0.3148 -0.2444
46698SOL     OW51818  12.205   6.243   5.131  0.3779 -0.2612 -0.3828
46698SOL    HW151819  12.115   6.215   5.114  0.8066 -0.7940 -1.9163
46698SOL    HW251820  12.227   6.205   5.215 -1.7438  2.1552  1.4432
46699SOL     OW51821   6.972  12.118   4.138  0.4540  0.7005 -0.2506
46699SOL    HW151822   6.938  12.165   4.213 -0.5083 -0.0695 -0.1769
46699SOL    HW251823   7.029  12.051   4.175  0.7902  0.9696 -0.2764
46700SOL     OW51824   6.014  12.830  11.061 -0.5085 -0.2992  0.2972
46700SOL    HW151825   5.941  12.885  11.034 -1.1047 -0.9634  0.5250
46700SOL    HW251826   6.012  12.832  11.157  0.7697  0.9589  0.3357
46701SOL     OW51827   1.670   9.784   1.316  0.9393  0.6873 -0.0546
46701SOL    HW151828   1.659   9.876   1.339  0.5378  0.3295  1.2701
46701SOL    HW251829   1.588   9.758   1.275  1.6727  1.3388 -2.0820
46702SOL     OW51830   6.821   4.575   8.920  0.0684 -0.2023 -0.0789
46702SOL    HW151831   6.799   4.611   8.834 -1.8117 -2.6227 -0.7389
46702SOL    HW251832   6.865   4.492   8.900 -0.9916 -1.1256  1.2514
46703SOL     OW51833   0.128   8.000   1.971 -0.1130 -0.1069  0.4530
46703SOL    HW151834   0.078   8.070   2.013  0.5060  0.0279  0.9903
46703SOL    HW251835   0.068   7.926   1.969 -0.6769  0.3510  0.1405
46704SOL     OW51836   6.551  12.092   3.358 -0.1644  0.1364  0.4886
46704SOL    HW151837   6.457  12.089   3.374 -0.4452  0.3576 -0.9873
46704SOL    HW251838   6.588  12.132   3.437 -1.5493  2.1957  0.1532
46705SOL     OW51839   2.903   9.704   6.004 -0.0120  0.2441  0.3952
46705SOL    HW151840   2.877   9.652   6.080 -1.3233 -0.4961 -0.4973
46705SOL    HW251841   2.820   9.728   5.962  0.6604  0.8593 -0.6396
46706SOL     OW51842   8.544   4.921   2.598 -0.3737  0.0580 -0.8787
46706SOL    HW151843   8.508   4.891   2.682 -0.5560  0.8787 -0.6562
46706SOL    HW251844   8.563   5.013   2.612 -0.7901  0.3038 -1.8716
46707SOL     OW51845   3.788   4.672   0.400 -0.3088  0.1555  0.0040
46707SOL    HW151846   3.874   4.642   0.372 -0.8068 -2.2907  0.8434
46707SOL    HW251847   3.792   4.672   0.496 -1.0576  0.6449  0.0489
46708SOL     OW51848  12.767   8.558   2.526  0.1333 -0.1266  0.3574
46708SOL    HW151849  12.841   8.567   2.465  0.0369  0.3173  0.3055
46708SOL    HW251850  12.743   8.466   2.520 -1.4634  0.3563 -2.1226
46709SOL     OW51851   9.702   7.720   3.070  0.7121  0.1696  0.1409
46709SOL    HW151852   9.685   7.814   3.072 -1.1994 -0.1315  0.3604
46709SOL    HW251853   9.746   7.705   2.987 -0.6651  1.0333 -0.7821
46710SOL     OW51854  10.557   6.344   3.087 -0.5205 -0.1497 -0.6131
46710SOL    HW151855  10.528   6.387   3.167  0.2988 -0.1038 -0.3357
46710SOL    HW251856  10.510   6.390   3.017 -0.0106  0.8853 -0.2864
46711SOL     OW51857   9.846   8.995  12.837  0.0247  0.0356  0.0713
46711SOL    HW151858   9.894   9.066  12.796  0.1006  1.0212  1.7827
46711SOL    HW251859   9.837   9.021  12.929 -2.5456 -0.7699  0.1342
46712SOL     OW51860  10.651  13.060   8.625 -0.2364  0.7327 -0.1366
46712SOL    HW151861  10.699  13.013   8.557 -1.2899  0.5863 -0.8052
46712SOL    HW251862  10.576  13.004   8.645  1.3226 -0.4711  2.9915
46713SOL     OW51863  10.749   6.463  12.337  0.2870  0.7029  0.3142
46713SOL    HW151864  10.717   6.387  12.288  0.4105 -0.3504  1.8113
46713SOL    HW251865  10.674   6.489  12.391  0.3276  1.5126 -0.0119
46714SOL     OW51866   6.323  12.976   7.636 -0.3303 -0.7029 -0.0462
46714SOL    HW151867   6.270  12.897   7.643  0.6558 -1.3458  0.4880
46714SOL    HW251868   6.411  12.944   7.614 -0.2872  0.3741 -1.5712
46715SOL     OW51869  12.439  10.750   3.069  0.2375 -0.5756 -0.1432
46715SOL    HW151870  12.517  10.753   3.012  1.0256  0.1624  0.9358
46715SOL    HW251871  12.401  10.664   3.053  0.9870 -0.7529 -1.0737
46716SOL     OW51872   1.112  10.277   5.609  0.1181  0.0872 -0.9267
46716SOL    HW151873   1.054  10.200   5.612  0.9950 -0.5671 -0.1278
46716SOL    HW251874   1.198  10.242   5.631  0.4824  1.3588 -0.2778
46717SOL     OW51875  13.022  10.544   6.814 -0.4341 -0.1456 -0.0409
46717SOL    HW151876  13.005  10.450   6.801 -0.2262 -0.3920  1.3026
46717SOL    HW251877  12.943  10.587   6.783 -0.7591 -0.8053 -0.1464
46718SOL     OW51878   0.074   3.970   8.393  0.3996  0.5113  0.9506
46718SOL    HW151879   0.117   4.047   8.430 -0.1564  1.0610  0.4785
46718SOL    HW251880   0.145   3.908   8.375  1.3985  2.3950 -2.2670
46719SOL     OW51881   1.276   1.009   4.649  0.1225 -0.0080  0.0788
46719SOL    HW151882   1.241   1.036   4.734 -0.1032  1.3921 -0.4361
46719SOL    HW251883   1.333   0.935   4.669  0.4426  0.5976  1.5241
46720SOL     OW51884   8.058   5.755  11.869 -0.4924  0.1425  0.3039
46720SOL    HW151885   8.153   5.745  11.875 -0.5019 -0.4584 -0.4121
46720SOL    HW251886   8.027   5.669  11.838 -1.3810 -0.0446  1.6421
46721SOL     OW51887   5.319   0.998  12.502  0.2988  0.0382 -0.3812
46721SOL    HW151888   5.415   0.994  12.503  0.5159  3.1988 -0.2981
46721SOL    HW251889   5.295   0.953  12.421  1.7053 -1.8364  0.1491
46722SOL     OW51890   9.524   7.458   0.292  0.7798  0.2444  0.2599
46722SOL    HW151891   9.525   7.401   0.215 -0.5003  0.9950 -0.3565
46722SOL    HW251892   9.527   7.547   0.255  0.5184  0.6088  1.0936
46723SOL     OW51893   0.021   3.202   2.815 -0.4747  0.1085 -0.0211
46723SOL    HW151894   0.068   3.196   2.732  0.2105  0.5400  0.3258
46723SOL    HW251895  -0.021   3.288   2.813 -0.7965 -0.0489 -0.0924
46724SOL     OW51896   0.509  11.174   6.827 -0.0705  0.5411  0.5627
46724SOL    HW151897   0.550  11.129   6.754  2.1565  0.5105  1.7348
46724SOL    HW251898   0.431  11.123   6.846 -0.6817  0.5269 -1.7105
46725SOL     OW51899   6.229   4.792   7.897 -0.4459 -0.2157  0.0957
46725SOL    HW151900   6.266   4.779   7.810 -1.3407  1.0319 -0.4899
46725SOL    HW251901   6.264   4.876   7.926 -0.1778 -0.6069  0.9420
46726SOL     OW51902   4.217  11.519   0.749 -0.1503  0.0483  0.0546
46726SOL    HW151903   4.192  11.597   0.797 -0.2097  0.5255 -0.7428
46726SOL    HW251904   4.166  11.448   0.789 -0.0065  0.3930  0.8517
46727SOL     OW51905   1.621  11.587   6.430 -0.3547  0.1263 -0.6734
46727SOL    HW151906   1.566  11.548   6.498  0.5951 -0.9035 -0.4788
46727SOL    HW251907   1.652  11.669   6.469  0.7639 -0.7912  0.4420
46728SOL     OW51908   8.248   2.609  12.111  0.0550  0.0270  0.3691
46728SOL    HW151909   8.320   2.663  12.144 -1.1480  0.6087  2.2148
46728SOL    HW251910   8.290   2.549  12.048  2.2191  0.0842  1.6297
46729SOL     OW51911  12.759  10.708   5.054  0.6194 -0.2727  0.0275
46729SOL    HW151912  12.764  10.643   5.124 -0.0978  0.9341  1.2552
46729SOL    HW251913  12.665  10.714   5.034  0.7233  0.0817 -0.3509
46730SOL     OW51914   9.963   9.157   1.413  0.4716  0.0566  0.2108
46730SOL    HW151915   9.975   9.194   1.500  1.8047  0.4964 -0.1329
46730SOL    HW251916   9.934   9.067   1.429  0.1252  0.3151  1.0947
46731SOL     OW51917  11.709   0.798  10.940  0.3147 -0.2206  0.3442
46731SOL    HW151918  11.789   0.749  10.962  0.5966  0.0382 -0.0775
46731SOL    HW251919  11.731   0.889  10.961  0.3773 -0.0537 -0.4237
46732SOL     OW51920  10.458   6.451  13.411  0.0878 -0.1166 -0.3735
46732SOL    HW151921  10.412   6.370  13.432  0.7360 -0.5004 -0.3887
46732SOL    HW251922  10.483   6.441  13.319 -2.0427  1.2135 -1.1753
46733SOL     OW51923   0.734   4.837   6.867  0.1141 -0.1186 -0.1455
46733SOL    HW151924   0.690   4.792   6.939 -0.1054 -0.1724 -0.3111
46733SOL    HW251925   0.695   4.924   6.865 -0.6138 -0.4462 -0.8407
46734SOL     OW51926   3.376   6.648  11.173 -0.4272  0.0104 -0.1484
46734SOL    HW151927   3.446   6.707  11.201 -1.3387  0.9432  0.2728
46734SOL    HW251928   3.375   6.656  11.078  2.0207 -2.3966 -0.4772
46735SOL     OW51929   3.695  11.103  12.012 -0.0320  0.2330  0.1399
46735SOL    HW151930   3.751  11.083  12.087  0.0656  1.1913  0.3380
46735SOL    HW251931   3.740  11.174  11.966 -1.1908  1.2141  0.4626
46736SOL     OW51932   2.700   5.147   6.425  0.5042  0.8695  0.1299
46736SOL    HW151933   2.727   5.134   6.516  1.1495  1.1657 -0.0100
46736SOL    HW251934   2.646   5.071   6.405  0.7381  0.5659  0.6216
46737SOL     OW51935  13.039   7.079   9.209  0.1013  1.1841 -0.4688
46737SOL    HW151936  12.967   7.038   9.257 -0.5760 -0.3456 -2.6438
46737SOL    HW251937  13.113   7.075   9.269 -0.9194  0.2196  0.7867
46738SOL     OW51938   5.040   8.280   7.543 -0.7737  0.3810 -0.5834
46738SOL    HW151939   5.055   8.369   7.512 -0.0554  0.4395 -0.0798
46738SOL    HW251940   5.003   8.291   7.630 -0.6842  0.1786 -0.5203
46739SOL     OW51941   2.384  10.381   0.408  0.1220 -0.2095 -0.5874
46739SOL    HW151942   2.461  10.332   0.380  0.0123  0.2223 -1.6826
46739SOL    HW251943   2.343  10.325   0.474  1.4527 -0.3690  0.1578
46740SOL     OW51944   5.758   7.627  11.157 -0.0831 -0.0690  0.3318
46740SOL    HW151945   5.672   7.602  11.121 -0.3605  0.5778  0.5411
46740SOL    HW251946   5.787   7.549  11.205 -0.4064 -0.4033 -0.0062
46741SOL     OW51947  13.193   5.390   9.805 -0.2311 -0.6705 -0.7525
46741SOL    HW151948  13.261   5.323   9.799 -0.3688 -0.9110  0.1151
46741SOL    HW251949  13.241   5.473   9.810  0.0755 -0.9008  0.8421
46742SOL     OW51950   3.207  11.369   5.643  0.4512 -0.4866 -0.2444
46742SOL    HW151951   3.246  11.455   5.627 -0.5357 -0.1554 -0.9681
46742SOL    HW251952   3.239  11.344   5.730  2.9971 -0.6789 -1.1810
46743SOL     OW51953  13.299   0.504   3.382 -0.2183  0.1622  0.2469
46743SOL    HW151954  13.297   0.435   3.315 -0.6526  1.6073 -1.3028
46743SOL    HW251955  13.266   0.462   3.461  1.0033 -1.8096 -0.2204
46744SOL     OW51956  12.812   7.650   4.038 -0.4207  0.2523 -0.1319
46744SOL    HW151957  12.854   7.712   4.098  0.0649 -0.5734  0.3833
46744SOL    HW251958  12.866   7.571   4.042 -1.3461 -0.4073 -0.3713
46745SOL     OW51959   9.102   7.479  12.746 -0.4523 -0.1183  0.0025
46745SOL    HW151960   9.016   7.513  12.721  0.2519  1.4496 -0.4114
46745SOL    HW251961   9.119   7.516  12.832 -0.7187 -1.4618  0.6503
46746SOL     OW51962   6.729   3.518  12.825 -0.1954 -0.5263  0.1100
46746SOL    HW151963   6.782   3.461  12.770 -2.1707 -3.3160  0.9249
46746SOL    HW251964   6.743   3.487  12.914 -0.4667  1.0483  0.7498
46747SOL     OW51965   2.510   6.656  11.310 -0.3051  0.9628 -0.7709
46747SOL    HW151966   2.562   6.721  11.262  1.8726 -1.6671 -2.2550
46747SOL    HW251967   2.450   6.620  11.245 -0.7703  0.7871 -0.2450
46748SOL     OW51968  10.365   8.493   9.990 -0.2263 -0.1794 -0.0233
46748SOL    HW151969  10.391   8.583   9.969  1.2338 -0.8263 -1.1498
46748SOL    HW251970  10.376   8.486  10.085 -1.8724  1.2552  0.3332
46749SOL     OW51971   8.477  10.918   3.331  0.4294  0.1631  0.1730
46749SOL    HW151972   8.405  10.855   3.343  0.2905  0.5099  1.2711
46749SOL    HW251973   8.492  10.919   3.237 -0.1029 -0.9215  0.0607
46750SOL     OW51974   4.143  11.011   5.320 -0.4645  0.5973  0.0653
46750SOL    HW151975   4.062  11.055   5.345 -0.5472  1.1884 -1.1705
46750SOL    HW251976   4.129  10.984   5.229  0.4878  0.1204  0.0446
46751SOL     OW51977  11.606  11.891   5.840  0.3467  0.2432  0.3778
46751SOL    HW151978  11.645  11.807   5.813 -1.2404 -0.7738  1.0991
46751SOL    HW251979  11.600  11.942   5.760 -1.5467 -1.5816 -0.7392
46752SOL     OW51980   7.271   2.887   6.654 -0.5087 -0.0048 -0.3334
46752SOL    HW151981   7.264   2.847   6.740  3.2539  1.6662  0.9864
46752SOL    HW251982   7.322   2.824   6.602  0.2585  0.4564 -0.1613
46753SOL     OW51983  12.865  13.137  11.041  0.4379  0.2519 -0.0556
46753SOL    HW151984  12.814  13.111  10.965 -0.8206  2.0218  0.1040
46753SOL    HW251985  12.833  13.082  11.112  0.3472 -0.1834 -0.4339
46754SOL     OW51986   3.779  10.536   6.267  0.3289 -0.6597 -0.2403
46754SOL    HW151987   3.774  10.452   6.313 -0.2699 -0.1872  0.5929
46754SOL    HW251988   3.815  10.515   6.181 -0.9147 -1.9513 -0.4833
46755SOL     OW51989   8.922   1.388   1.130 -0.1734  0.6113  0.3293
46755SOL    HW151990   8.878   1.394   1.046 -0.6696  2.7285  0.6819
46755SOL    HW251991   9.011   1.418   1.113 -0.5023  1.8454  0.6792
46756SOL     OW51992   9.212  12.738   6.397 -0.0157  0.0523 -0.2807
46756SOL    HW151993   9.254  12.689   6.326 -0.6943  0.6656 -1.1345
46756SOL    HW251994   9.216  12.829   6.369 -1.0664  0.2163  0.0523
46757SOL     OW51995   9.267   0.200   5.522  0.0129 -0.3461  0.2238
46757SOL    HW151996   9.333   0.158   5.466  0.2179  1.8255 -1.2758
46757SOL    HW251997   9.188   0.202   5.468 -0.9573 -1.7312  1.5221
46758SOL     OW51998   6.792   3.518   7.704 -0.4301 -0.2394  0.1139
46758SOL    HW151999   6.795   3.568   7.786 -0.0112 -2.8864  1.8093
46758SOL    HW252000   6.743   3.575   7.644 -0.5578  1.8950  2.0837
46759SOL     OW52001   2.233   9.900  10.069 -0.0362  0.2431  0.5279
46759SOL    HW152002   2.276   9.816  10.084  2.1047  0.9491 -1.0541
46759SOL    HW252003   2.203   9.896   9.978 -2.4321  0.2232  1.2538
46760SOL     OW52004   0.316   7.543   9.762  0.2144 -0.0092  0.1989
46760SOL    HW152005   0.397   7.529   9.713 -0.2516  2.7273 -1.5525
46760SOL    HW252006   0.248   7.552   9.696 -0.8492  1.5223  1.4130
46761SOL     OW52007   9.152   5.762   5.113 -0.2231  0.1591 -0.0276
46761SOL    HW152008   9.139   5.829   5.045 -0.9491  1.4555  1.3180
46761SOL    HW252009   9.204   5.807   5.181 -0.3528 -0.7890  0.7166
46762SOL     OW52010   8.992   5.275  12.722 -0.2534  0.0682  0.0621
46762SOL    HW152011   8.963   5.184  12.733 -0.5374  0.0263 -0.9220
46762SOL    HW252012   9.085   5.267  12.698 -0.4951 -0.0228 -0.8921
46763SOL     OW52013   8.413  13.358   4.533 -0.7526  0.1615 -0.1105
46763SOL    HW152014   8.443  13.383   4.445 -0.5378 -0.6131 -0.2615
46763SOL    HW252015   8.407  13.263   4.530 -1.3048  0.1715  0.5440
46764SOL     OW52016   9.762   6.133   2.007  0.0522  0.1933  0.0469
46764SOL    HW152017   9.725   6.200   2.064  2.4703  0.0545  1.9314
46764SOL    HW252018   9.855   6.130   2.031  1.0482 -0.4359 -3.4094
46765SOL     OW52019   5.665  12.736   5.073 -0.2185  0.4357 -0.5033
46765SOL    HW152020   5.665  12.722   4.979  2.0532  1.0246 -0.6479
46765SOL    HW252021   5.713  12.662   5.109  0.7622  1.2601 -0.0503
46766SOL     OW52022   7.951   2.467   0.479  0.8138  0.0363 -0.2414
46766SOL    HW152023   7.928   2.437   0.567  1.0507  0.8680  0.1127
46766SOL    HW252024   7.874   2.447   0.426  1.0380 -1.3631 -0.0701
46767SOL     OW52025   2.288   0.273  10.661 -0.5516  0.2973 -0.2174
46767SOL    HW152026   2.310   0.354  10.707 -1.8838 -0.0173  1.0263
46767SOL    HW252027   2.349   0.208  10.697 -1.4268  0.1080  0.9891
46768SOL     OW52028   3.096   4.995  12.680 -0.3851  0.1075  0.2272
46768SOL    HW152029   3.033   5.018  12.612 -0.5265 -1.1236 -0.0838
46768SOL    HW252030   3.161   4.941  12.636 -0.3389 -0.4920  1.0112
46769SOL     OW52031   2.565   5.522   6.846 -0.3840 -0.0490  0.2358
46769SOL    HW152032   2.583   5.472   6.926 -3.5824  0.5965  1.5191
46769SOL    HW252033   2.557   5.455   6.778 -0.3502 -0.8982  1.0381
46770SOL     OW52034  13.234   8.618   1.796 -0.0015  0.1487 -0.1093
46770SOL    HW152035  13.197   8.566   1.867  1.0338 -0.3756  0.0671
46770SOL    HW252036  13.296   8.559   1.753 -2.5000 -0.4690 -3.1710
46771SOL     OW52037   3.150  13.529   0.332 -0.3584  0.0622 -0.2075
46771SOL    HW152038   3.161  13.456   0.393 -1.7419 -1.0740 -1.2450
46771SOL    HW252039   3.106  13.596   0.384  1.1627  0.3211  0.8325
46772SOL     OW52040  12.342  12.660  10.436  0.6729  0.0076  0.0360
46772SOL    HW152041  12.406  12.653  10.506  0.5287 -1.3564  0.0553
46772SOL    HW252042  12.375  12.604  10.366 -1.0522 -1.6938  0.5060
46773SOL     OW52043   8.792   4.798   2.197  0.1659  0.3752  0.0866
46773SOL    HW152044   8.844   4.772   2.120 -1.5191  0.6716 -1.2068
46773SOL    HW252045   8.844   4.768   2.272  1.2633 -1.1048 -1.1878
46774SOL     OW52046   1.272   9.323   9.222 -0.5297  0.5920 -0.2509
46774SOL    HW152047   1.185   9.362   9.215 -1.3330 -0.8685  1.1210
46774SOL    HW252048   1.292   9.292   9.134 -1.8766 -0.0499 -0.3459
46775SOL     OW52049   7.061  12.901   9.057 -0.3150  0.1019 -0.4176
46775SOL    HW152050   7.074  12.991   9.086  1.2914 -0.0280 -0.6291
46775SOL    HW252051   7.065  12.906   8.961 -2.7581  0.1288 -0.5707
46776SOL     OW52052   8.125   0.961   2.384  0.5275  0.3311 -0.0766
46776SOL    HW152053   8.162   0.991   2.301 -1.0110  0.6826 -0.6556
46776SOL    HW252054   8.081   1.037   2.420  1.0168  0.1311  0.9953
46777SOL     OW52055   0.123  10.888   4.070 -0.3112  0.0334 -0.3985
46777SOL    HW152056   0.217  10.870   4.078 -0.2177  0.9803  1.2115
46777SOL    HW252057   0.110  10.969   4.120 -1.9108  0.1834 -0.9962
46778SOL     OW52058  10.792   5.233   0.510  0.0737 -0.3813  0.1929
46778SOL    HW152059  10.772   5.140   0.508 -0.7437 -0.3693  2.9639
46778SOL    HW252060  10.724   5.274   0.457 -0.4703 -1.2502  0.2073
46779SOL     OW52061   4.642   0.835   4.493 -0.0373  0.2086 -0.1082
46779SOL    HW152062   4.655   0.827   4.398 -0.6942  0.7621 -0.2512
46779SOL    HW252063   4.570   0.774   4.512 -0.2098  0.4371 -0.0373
46780SOL     OW52064   3.702   7.029   6.907  0.8232 -0.1681  0.1136
46780SOL    HW152065   3.645   7.044   6.832 -0.3698 -0.6524  0.8774
46780SOL    HW252066   3.776   7.088   6.894  1.1459 -0.9685 -1.9342
46781SOL     OW52067   3.158   0.122  10.323  0.3156  0.4383 -0.2528
46781SOL    HW152068   3.146   0.042  10.271 -0.8126 -0.1973  0.9211
46781SOL    HW252069   3.253   0.136  10.323  0.3556  0.4576 -2.4297
46782SOL     OW52070   7.429   3.049   1.860 -0.4904 -0.0689  0.0403
46782SOL    HW152071   7.334   3.044   1.865 -0.5632  1.4263  0.6494
46782SOL    HW252072   7.446   3.115   1.793  0.1259 -0.2893 -0.0240
46783SOL     OW52073   8.910   0.711  11.107  0.0701 -0.2700 -0.0264
46783SOL    HW152074   8.971   0.726  11.180  0.1413  2.1389 -0.5280
46783SOL    HW252075   8.967   0.704  11.030 -0.1132 -1.3007 -0.0854
46784SOL     OW52076  13.334   1.485   4.452 -0.2517  0.1838  0.2532
46784SOL    HW152077  13.288   1.403   4.471 -0.8720  0.4165 -0.1754
46784SOL    HW252078  13.392   1.463   4.379 -2.1833  0.6650 -1.5113
46785SOL     OW52079  10.575   1.197   0.666  0.4570 -0.1415  0.3171
46785SOL    HW152080  10.586   1.102   0.669  0.2851 -0.1493  1.7419
46785SOL    HW252081  10.499   1.211   0.610 -0.6382 -0.9919  1.5058
46786SOL     OW52082   0.960   5.738   2.437 -0.1932 -0.4568 -0.6897
46786SOL    HW152083   0.928   5.653   2.404  0.0656 -1.4593  1.4655
46786SOL    HW252084   1.054   5.736   2.418 -0.2025 -0.6129 -0.7280
46787SOL     OW52085   2.374  13.166   1.331  0.3395  0.4496  0.0359
46787SOL    HW152086   2.398  13.248   1.374  0.2415 -0.6718  2.4076
46787SOL    HW252087   2.426  13.099   1.376 -0.7235 -0.9548 -0.7402
46788SOL     OW52088   6.785   1.599   7.154  0.0091  0.0255  0.8602
46788SOL    HW152089   6.750   1.535   7.215 -1.9165 -1.2768 -1.4564
46788SOL    HW252090   6.728   1.676   7.164 -1.4718 -0.8395 -0.4590
46789SOL     OW52091   9.954   9.637   1.807 -0.1082 -0.7736  0.5766
46789SOL    HW152092   9.899   9.628   1.885 -0.7704 -0.8446  0.1113
46789SOL    HW252093   9.926   9.565   1.750  1.6447 -1.8636  1.0180
46790SOL     OW52094   8.118   8.695   6.945 -0.2250  0.6706 -0.2547
46790SOL    HW152095   8.169   8.673   6.867 -2.7820 -3.5364 -1.0466
46790SOL    HW252096   8.034   8.727   6.910 -0.7379  0.5318  0.8142
46791SOL     OW52097  12.156   9.199   4.173  0.5801  0.3391 -0.3437
46791SOL    HW152098  12.213   9.143   4.121  1.2250  1.6343 -1.0718
46791SOL    HW252099  12.074   9.203   4.124  0.1951 -0.6887  0.1833
46792SOL     OW52100   5.690   8.225   6.618  0.3636  0.4026  0.3026
46792SOL    HW152101   5.768   8.274   6.644  2.4075 -2.1496 -0.5410
46792SOL    HW252102   5.718   8.174   6.542 -2.4620  0.1177 -0.6527
46793SOL     OW52103   6.917   8.679   3.993  0.5360 -0.4059 -0.6108
46793SOL    HW152104   6.928   8.653   3.901 -0.0877  1.3407 -1.2381
46793SOL    HW252105   6.927   8.775   3.991  0.2740 -0.3228  1.1134
46794SOL     OW52106   9.752  10.044   3.671 -0.5632 -0.2493 -0.1142
46794SOL    HW152107   9.694  10.007   3.738  1.9137 -0.5593  2.0639
46794SOL    HW252108   9.784  10.126   3.710 -1.4061  1.2365 -2.3384
46795SOL     OW52109   1.875  12.219  10.385 -0.0363  0.2685 -0.6341
46795SOL    HW152110   1.891  12.312  10.366  0.4900  0.3129  0.0103
46795SOL    HW252111   1.781  12.215  10.405 -0.4648  0.3457 -2.4015
46796SOL     OW52112  10.336   7.393  12.066  0.4860  0.0912 -0.1464
46796SOL    HW152113  10.350   7.403  12.160  1.6558  0.6171 -0.3547
46796SOL    HW252114  10.390   7.317  12.042 -1.9912 -1.8615  0.0440
46797SOL     OW52115  10.454   4.687   6.375  0.8949  0.4271 -0.1391
46797SOL    HW152116  10.383   4.651   6.429  1.2290 -0.0778 -0.0253
46797SOL    HW252117  10.526   4.700   6.436  1.5713 -0.9787 -0.5971
46798SOL     OW52118   7.345   6.251   6.344 -0.2473  0.6685  0.3238
46798SOL    HW152119   7.419   6.259   6.285  0.3172  0.7852  1.0370
46798SOL    HW252120   7.343   6.334   6.392 -0.9567  0.7440  0.1813
46799SOL     OW52121   6.822   1.630   8.905  0.3982  0.3243 -0.1064
46799SOL    HW152122   6.810   1.604   8.814 -1.9220 -2.1993  0.7938
46799SOL    HW252123   6.918   1.635   8.915  0.7194  1.7346 -2.8601
46800SOL     OW52124  10.246  10.937   4.767  0.6583  0.2993  0.0806
46800SOL    HW152125  10.338  10.959   4.777  1.2706 -2.3976  1.1553
46800SOL    HW252126  10.203  10.982   4.841  1.2584  0.7363  0.1728
46801SOL     OW52127  12.491  12.367   8.551 -0.2766 -0.4643  0.2730
46801SOL    HW152128  12.498  12.397   8.460  2.1816 -0.3024  0.4289
46801SOL    HW252129  12.483  12.272   8.544 -2.9385 -0.2898 -0.1080
46802SOL     OW52130  10.698   9.779   5.959  0.7410 -0.3350  0.4697
46802SOL    HW152131  10.647   9.831   5.897 -1.1794 -1.9683  0.5523
46802SOL    HW252132  10.722   9.840   6.029  0.3300  0.8567 -0.4133
46803SOL     OW52133   1.507   2.519  11.825 -0.0123 -0.4205 -0.8076
46803SOL    HW152134   1.588   2.479  11.858 -0.9913  0.2640  2.9021
46803SOL    HW252135   1.534   2.605  11.795  0.7364 -0.2933  0.1587
46804SOL     OW52136   3.118   1.756   4.536  0.3664  0.0694  0.4721
46804SOL    HW152137   3.165   1.738   4.454 -1.2141 -0.6617 -0.3094
46804SOL    HW252138   3.124   1.851   4.547  1.9924  0.0036  0.4026
46805SOL     OW52139  11.393   7.960  11.513 -0.8331  0.0554  0.4174
46805SOL    HW152140  11.391   7.867  11.536  1.2103  0.2592  1.7184
46805SOL    HW252141  11.486   7.981  11.511 -1.2839  2.2698  0.9582
46806SOL     OW52142   5.138  11.881   5.542 -0.4631 -0.4318  0.1939
46806SOL    HW152143   5.097  11.800   5.570  0.1035 -0.9700 -0.5012
46806SOL    HW252144   5.210  11.894   5.605 -0.1213 -0.8414 -0.1098
46807SOL     OW52145   5.552   2.183  11.037 -0.1121  0.0314  0.2230
46807SOL    HW152146   5.558   2.204  10.944 -0.1202  0.3174  0.2859
46807SOL    HW252147   5.585   2.261  11.082 -0.9848  0.2615  0.4818
46808SOL     OW52148   7.107   0.153   8.045  0.0743  0.0497 -0.2699
46808SOL    HW152149   7.119   0.183   8.135 -0.2368  0.1778 -0.2664
46808SOL    HW252150   7.140   0.064   8.045 -1.3071 -0.4925  0.3580
46809SOL     OW52151   3.739   2.870   0.398  0.6489 -0.2656  0.0638
46809SOL    HW152152   3.729   2.950   0.451 -0.9853  1.8354 -3.0814
46809SOL    HW252153   3.653   2.858   0.358  2.0024 -1.0938 -2.8337
46810SOL     OW52154   6.751   1.714  11.975 -0.1491 -0.0304  0.0183
46810SOL    HW152155   6.710   1.727  12.061  0.3613 -0.3607  0.3163
46810SOL    HW252156   6.798   1.796  11.959 -0.7251  0.2645 -0.2257
46811SOL     OW52157  11.713   7.070   4.626  0.1209 -0.5246  0.0165
46811SOL    HW152158  11.652   7.017   4.575  0.6264 -1.2490  0.1611
46811SOL    HW252159  11.782   7.010   4.652 -0.0645 -0.1645  1.4713
46812SOL     OW52160  10.256  13.344   4.670  0.4295 -0.3659  0.6551
46812SOL    HW152161  10.184  13.351   4.733  0.3027  0.2206  0.4549
46812SOL    HW252162  10.213  13.322   4.587  0.0763  3.0027 -0.1820
46813SOL     OW52163   5.331   5.987   7.916 -0.2316  0.2265  0.3012
46813SOL    HW152164   5.354   5.978   8.008 -1.9664  0.3020  0.7802
46813SOL    HW252165   5.240   5.959   7.912 -0.1083 -0.0084 -1.4468
46814SOL     OW52166   7.774   8.484  11.092 -0.0004  0.2942 -0.2856
46814SOL    HW152167   7.869   8.473  11.101 -0.1073  0.9563  2.6874
46814SOL    HW252168   7.756   8.464  11.000  3.0395  0.4104 -1.0091
46815SOL     OW52169   8.604   8.234   4.419 -0.3192  0.2768 -0.1252
46815SOL    HW152170   8.698   8.215   4.411  0.0748  1.2281  1.7450
46815SOL    HW252171   8.574   8.175   4.488 -1.5601 -1.3572 -1.9637
46816SOL     OW52172   2.519  12.660   1.792  0.4577  0.2824 -0.0280
46816SOL    HW152173   2.550  12.709   1.868 -0.5649 -0.6469  1.0123
46816SOL    HW252174   2.443  12.611   1.823 -0.2806  0.2337 -1.7673
46817SOL     OW52175   7.042  10.125  12.461  0.2062  0.2880 -0.5055
46817SOL    HW152176   6.972  10.060  12.464  1.7128 -1.3852  0.9759
46817SOL    HW252177   7.002  10.204  12.497 -1.8115  0.4227 -2.7765
46818SOL     OW52178   8.596  12.202   0.186  0.5554  0.7071 -0.1353
46818SOL    HW152179   8.674  12.244   0.151  0.1709 -0.1529 -2.1677
46818SOL    HW252180   8.629  12.125   0.232  1.0058  1.3056  0.5668
46819SOL     OW52181   4.335   8.906  11.168 -0.6339 -0.2776  0.3363
46819SOL    HW152182   4.429   8.906  11.186 -0.2466  1.8843 -1.3841
46819SOL    HW252183   4.296   8.935  11.251  0.4597  1.5759  0.2617
46820SOL     OW52184   7.896   3.534   2.106  0.1201 -0.0442  0.5579
46820SOL    HW152185   7.968   3.494   2.154  0.4060  1.1845  1.1976
46820SOL    HW252186   7.871   3.610   2.159 -0.1095  0.8671 -0.8023
46821SOL     OW52187   3.480   7.165  11.852 -0.5224  0.0159 -0.4085
46821SOL    HW152188   3.490   7.091  11.793 -1.3518 -0.3062 -0.1499
46821SOL    HW252189   3.562   7.167  11.902 -0.7338 -1.0900 -0.0023
46822SOL     OW52190   5.277  11.828   5.791 -0.2632  0.3430 -0.1054
46822SOL    HW152191   5.209  11.829   5.858 -1.3352 -1.4300 -1.0800
46822SOL    HW252192   5.328  11.749   5.810  0.0762  0.3941 -0.7632
46823SOL     OW52193   6.030   0.376   3.497  0.0186  0.2236  0.3084
46823SOL    HW152194   6.087   0.385   3.420 -1.8483  0.5140 -1.1173
46823SOL    HW252195   5.980   0.458   3.499 -1.3193 -0.5803  0.6693
46824SOL     OW52196   4.828  11.946  13.420 -0.0521 -0.0183  0.6145
46824SOL    HW152197   4.819  12.041  13.413 -0.9432 -0.0931  0.6366
46824SOL    HW252198   4.825  11.928  13.514 -0.7250 -0.1397  0.5728
46825SOL     OW52199  11.347   8.705  12.917 -0.1317 -0.4749 -0.1924
46825SOL    HW152200  11.426   8.743  12.879 -0.8092 -0.4944 -1.6909
46825SOL    HW252201  11.350   8.613  12.890 -1.0199 -0.3058 -0.9203
46826SOL     OW52202   8.142   2.922   4.322  0.2671  0.2671  0.1598
46826SOL    HW152203   8.150   2.992   4.257 -1.6540 -2.0927 -2.9497
46826SOL    HW252204   8.056   2.936   4.361  0.3814  0.3030  0.3986
46827SOL     OW52205   2.030  12.947   8.374  0.0428  0.2608 -0.3279
46827SOL    HW152206   2.007  13.001   8.449 -0.9549  0.8578 -1.0445
46827SOL    HW252207   2.122  12.925   8.388 -0.5345 -1.0452  1.9076
46828SOL     OW52208   4.961   5.154   6.997 -0.2610 -0.1791 -0.3041
46828SOL    HW152209   4.942   5.235   7.045 -1.1488 -0.7243  0.3086
46828SOL    HW252210   4.877   5.129   6.960  0.0891 -0.6338 -0.7909
46829SOL     OW52211  11.972   0.768   5.993  0.0413  0.1283  0.0763
46829SOL    HW152212  11.971   0.675   5.975  1.6200 -0.3991  2.2593
46829SOL    HW252213  11.901   0.804   5.940 -0.5420 -2.2752 -0.8855
46830SOL     OW52214   5.781   9.402  13.112  0.2312  0.0931 -0.3947
46830SOL    HW152215   5.709   9.339  13.109  0.1083  0.1727  0.5041
46830SOL    HW252216   5.766   9.451  13.193  1.1549  0.2893 -0.3303
46831SOL     OW52217   8.516   1.778   0.541  0.8677  0.3065  0.2399
46831SOL    HW152218   8.442   1.723   0.569  0.1404  1.0308 -0.2315
46831SOL    HW252219   8.575   1.717   0.496 -0.0623 -0.0582 -0.5215
46832SOL     OW52220   0.165   2.592   3.730 -0.1716 -0.6322  0.1976
46832SOL    HW152221   0.183   2.644   3.652  0.5822 -0.8594  0.2130
46832SOL    HW252222   0.070   2.587   3.734 -0.2521  0.5654  0.0793
46833SOL     OW52223  11.732   6.524   5.164  0.4079  0.3742  0.0177
46833SOL    HW152224  11.716   6.598   5.224  1.5525  0.6260  0.0431
46833SOL    HW252225  11.653   6.519   5.110  0.6274  2.1667 -0.5427
46834SOL     OW52226   0.411   4.233   9.010  0.7650 -0.1186 -0.4003
46834SOL    HW152227   0.481   4.214   9.073 -1.0842  0.3785  1.9439
46834SOL    HW252228   0.337   4.181   9.041 -1.2893  2.8798  0.0564
46835SOL     OW52229   2.835  13.023   7.759  0.1642  0.8476  0.3407
46835SOL    HW152230   2.847  12.939   7.804  0.9129  0.9080  0.2626
46835SOL    HW252231   2.745  13.049   7.780 -0.8013 -0.9438 -1.2699
46836SOL     OW52232   1.567  10.482   7.021  0.2256 -0.1971  0.6425
46836SOL    HW152233   1.605  10.522   6.943 -0.1798 -1.3570 -0.1708
46836SOL    HW252234   1.520  10.554   7.063  0.4033  0.4412 -0.2076
46837SOL     OW52235   0.372   9.099   0.831 -0.0988 -1.0867 -0.4123
46837SOL    HW152236   0.433   9.071   0.763 -1.1435 -0.7885 -1.5096
46837SOL    HW252237   0.409   9.180   0.865  0.3552 -1.1629 -0.7189
46838SOL     OW52238   5.459   9.677   7.807 -0.4989 -0.0067  0.4697
46838SOL    HW152239   5.437   9.745   7.744  0.6419 -0.2039 -0.1770
46838SOL    HW252240   5.377   9.659   7.854 -1.0240  1.1439  0.0187
46839SOL     OW52241   7.806  10.557   6.701 -0.3206  0.0991  0.0005
46839SOL    HW152242   7.772  10.558   6.611  0.9562  0.1281 -0.5031
46839SOL    HW252243   7.898  10.530   6.692 -0.1000  0.3529  1.2726
46840SOL     OW52244   7.848   1.305  13.667  0.4852  0.0127 -0.1936
46840SOL    HW152245   7.757   1.274  13.661  0.9849 -1.2105 -2.3470
46840SOL    HW252246   7.840   1.398  13.687 -1.3605  0.4862 -2.6749
46841SOL     OW52247   2.254  12.828   9.970  0.5516  0.0834  0.6344
46841SOL    HW152248   2.163  12.818   9.940  0.7983 -0.6499  0.1014
46841SOL    HW252249   2.257  12.917  10.006 -0.5122 -0.0625  1.1364
46842SOL     OW52250  12.303   2.541   6.759  0.1145  0.1576 -0.0601
46842SOL    HW152251  12.249   2.616   6.734  0.6416  0.3567 -0.6425
46842SOL    HW252252  12.388   2.579   6.778  0.3429 -0.2728 -0.2153
46843SOL     OW52253   7.974  10.020  12.791 -0.0312  0.0077  0.2006
46843SOL    HW152254   7.956   9.951  12.727  0.4843 -1.5417  1.6499
46843SOL    HW252255   7.988   9.974  12.874 -0.5496  1.9253  1.4380
46844SOL     OW52256  12.765   2.056   0.643  0.2512 -0.2947  0.5261
46844SOL    HW152257  12.800   1.968   0.627 -1.9001 -1.1765  0.3422
46844SOL    HW252258  12.828   2.115   0.602  0.6635 -1.8836 -1.2368
46845SOL     OW52259   7.479   2.303   6.865  0.3630 -0.5874 -0.1200
46845SOL    HW152260   7.461   2.327   6.774  0.3192 -2.1020 -0.5312
46845SOL    HW252261   7.560   2.351   6.887  1.5168 -1.7673 -1.6273
46846SOL     OW52262   5.263   7.819   9.777  0.5975  0.3549 -0.1501
46846SOL    HW152263   5.209   7.784   9.706 -0.5763 -0.7953  1.2524
46846SOL    HW252264   5.332   7.753   9.790 -0.6680 -0.7402  1.4084
46847SOL     OW52265   0.364  11.711   4.577 -0.3307 -0.0262  0.3859
46847SOL    HW152266   0.343  11.740   4.666 -1.5823  0.8640 -0.1707
46847SOL    HW252267   0.437  11.767   4.551  1.1192 -1.3616  1.3894
46848SOL     OW52268  12.610  11.888   0.184  0.1796 -0.0372 -0.1944
46848SOL    HW152269  12.591  11.887   0.278  2.4001 -2.4952  0.3262
46848SOL    HW252270  12.699  11.922   0.178 -0.2436  0.9174 -1.5344
46849SOL     OW52271   4.571   2.425   5.438  0.4570  0.0514 -0.3499
46849SOL    HW152272   4.537   2.445   5.525 -1.6087  0.8408 -1.2756
46849SOL    HW252273   4.569   2.329   5.433  0.2076  0.0173  0.3299
46850SOL     OW52274  11.214   5.735  10.111 -0.5550 -0.6060 -0.1785
46850SOL    HW152275  11.129   5.759  10.149 -0.5678  0.1056 -0.6448
46850SOL    HW252276  11.267   5.814  10.116  0.2912 -1.1992  0.6201
46851SOL     OW52277  10.590  13.634   0.550 -0.5944  0.3786 -0.3301
46851SOL    HW152278  10.533  13.627   0.627  0.0797  0.3263  0.1738
46851SOL    HW252279  10.624  13.546   0.537 -1.3851  0.1867 -1.2387
46852SOL     OW52280   4.684   0.621   1.501 -0.5816  0.3698 -0.3445
46852SOL    HW152281   4.597   0.636   1.462 -0.7061 -0.5578 -0.4372
46852SOL    HW252282   4.684   0.676   1.579 -1.4517  0.0015 -0.0640
46853SOL     OW52283  12.871   4.193   9.743  0.0821 -0.9346 -0.4612
46853SOL    HW152284  12.875   4.275   9.793  0.7433 -1.2283 -0.0143
46853SOL    HW252285  12.829   4.131   9.802  2.4388 -1.7623  0.4681
46854SOL     OW52286   5.276   8.713   5.241 -0.1784 -0.2596 -0.0068
46854SOL    HW152287   5.261   8.804   5.214  0.3056 -0.3006 -0.4420
46854SOL    HW252288   5.258   8.712   5.335  0.1149  0.3549  0.0595
46855SOL     OW52289   6.390  13.095   0.730 -0.5549 -0.0964 -0.4238
46855SOL    HW152290   6.317  13.094   0.791  1.0592 -0.0384  1.6274
46855SOL    HW252291   6.444  13.020   0.756  1.0161  0.8897 -0.6810
46856SOL     OW52292   3.955  13.439   5.082  0.0004 -0.2550 -0.0954
46856SOL    HW152293   3.970  13.525   5.121  0.9420 -1.2323  1.8204
46856SOL    HW252294   3.970  13.378   5.153 -1.0771 -2.0048 -1.3087
46857SOL     OW52295  13.012  11.399   6.220 -0.0889 -0.3971 -0.1446
46857SOL    HW152296  12.998  11.308   6.248 -1.7647 -0.6335 -1.6019
46857SOL    HW252297  13.101  11.400   6.185  0.2175 -1.2749  0.5597
46858SOL     OW52298   1.321  11.725   5.054  0.4152 -0.1184  0.1418
46858SOL    HW152299   1.271  11.643   5.048 -0.1860  0.0240  2.1822
46858SOL    HW252300   1.387  11.707   5.121  0.4234  0.9647  0.4363
46859SOL     OW52301  11.945   8.100  11.588  0.1183  0.7867 -0.2557
46859SOL    HW152302  12.022   8.157  11.589  0.5055  0.3647 -2.0915
46859SOL    HW252303  11.887   8.137  11.655  0.2613  3.4806 -1.4737
46860SOL     OW52304   2.627   5.897  12.646  0.3521  0.2579  0.6112
46860SOL    HW152305   2.679   5.972  12.676  0.0826 -0.0082  1.7935
46860SOL    HW252306   2.609   5.916  12.554  1.3874  1.0119  0.5423
46861SOL     OW52307   2.165  13.058   9.459 -0.5062  0.7200 -0.5024
46861SOL    HW152308   2.205  13.143   9.481 -0.1526  0.2891  0.5540
46861SOL    HW252309   2.077  13.081   9.429 -1.6766  1.2957  2.9233
46862SOL     OW52310   1.773  10.102   0.257 -0.0781 -0.0060  0.1428
46862SOL    HW152311   1.682  10.117   0.231  0.3992  0.1246 -1.5511
46862SOL    HW252312   1.779  10.008   0.271 -0.2920 -0.1137 -0.4761
46863SOL     OW52313   4.825   2.714  11.408  0.3600  0.0680  0.0243
46863SOL    HW152314   4.832   2.705  11.503 -0.6531 -0.0470  0.0954
46863SOL    HW252315   4.916   2.718  11.378  0.6914  1.2501  1.0990
46864SOL     OW52316   3.982   9.658   5.365  0.2364 -0.0668 -0.7992
46864SOL    HW152317   4.022   9.575   5.339  0.2881 -0.4031  0.3046
46864SOL    HW252318   3.940   9.691   5.285 -2.4772 -2.6473 -0.6208
46865SOL     OW52319   4.216   6.383   5.645  0.3242  0.6673 -0.1891
46865SOL    HW152320   4.121   6.395   5.651 -0.2104 -2.7991  0.8601
46865SOL    HW252321   4.226   6.307   5.587  2.5798  1.6457 -1.1888
46866SOL     OW52322   7.293   0.328   7.950  0.5881 -0.1614  0.5832
46866SOL    HW152323   7.229   0.258   7.963 -0.3647  0.5446 -0.1532
46866SOL    HW252324   7.296   0.373   8.034 -0.9034  0.6128  0.2508
46867SOL     OW52325   1.457   0.733   3.412  0.4039 -0.2366  0.2272
46867SOL    HW152326   1.410   0.751   3.330  1.9028 -0.4715 -0.7257
46867SOL    HW252327   1.525   0.670   3.388  1.1999  0.0663  1.5466
46868SOL     OW52328   1.297   2.373   9.351 -0.1719  0.4123  0.6377
46868SOL    HW152329   1.375   2.321   9.370  0.1565  0.5820 -0.1950
46868SOL    HW252330   1.309   2.453   9.402 -0.2813  0.0269  1.2780
46869SOL     OW52331   8.027  13.322   7.383  0.2664 -0.4598 -0.0819
46869SOL    HW152332   8.067  13.397   7.428 -0.5156 -0.5598  0.8150
46869SOL    HW252333   7.940  13.314   7.423  0.4649 -2.0635  0.0716
46870SOL     OW52334   0.234   0.408   6.652 -0.1866 -0.4066 -0.3012
46870SOL    HW152335   0.146   0.408   6.690  0.2273 -0.9928  0.6786
46870SOL    HW252336   0.252   0.316   6.634  0.3796 -0.3301 -0.1383
46871SOL     OW52337   1.693  13.068   5.945  0.1529 -0.1079 -0.2702
46871SOL    HW152338   1.691  13.044   6.037 -0.9885 -0.5638 -0.3888
46871SOL    HW252339   1.784  13.088   5.926  0.4932 -0.6129  0.8017
46872SOL     OW52340   0.937   1.342   8.645 -0.3042  0.7844 -0.0959
46872SOL    HW152341   0.899   1.257   8.621 -0.9929  1.1800 -0.4247
46872SOL    HW252342   0.896   1.365   8.728  2.5098 -0.8588  1.9131
46873SOL     OW52343   5.941   6.570   9.138  0.1020  0.0532 -0.1303
46873SOL    HW152344   5.981   6.498   9.186 -1.0466  1.0625  2.5303
46873SOL    HW252345   5.929   6.639   9.204 -0.4826  2.0251 -2.1650
46874SOL     OW52346  13.155  10.761   5.047  0.1471 -0.3365 -0.2026
46874SOL    HW152347  13.103  10.701   4.994 -2.0822  2.1131 -0.9739
46874SOL    HW252348  13.091  10.816   5.092  2.0479  1.9392 -0.0911
46875SOL     OW52349  13.102   9.569   0.808 -0.4881  0.4712  0.0432
46875SOL    HW152350  13.030   9.631   0.793 -2.1616 -1.7847 -2.0060
46875SOL    HW252351  13.129   9.542   0.721  3.2885  1.5134  0.7046
46876SOL     OW52352   6.100  11.266   3.680 -0.0347  0.1397  0.3364
46876SOL    HW152353   6.117  11.343   3.625 -0.9780 -0.3420 -0.6706
46876SOL    HW252354   6.166  11.271   3.749  0.8334  1.0784 -0.5175
46877SOL     OW52355   1.475  11.995  12.889 -0.2161  0.3173  0.0509
46877SOL    HW152356   1.453  12.086  12.908 -0.1271 -0.0160  1.9685
46877SOL    HW252357   1.390  11.950  12.884 -0.2189  0.1904  1.0016
46878SOL     OW52358   1.484  12.983   5.489  0.0369  0.1543  0.2269
46878SOL    HW152359   1.563  12.937   5.459 -0.3185  0.1443 -0.7123
46878SOL    HW252360   1.465  12.944   5.575 -1.0283 -2.4476 -1.0770
46879SOL     OW52361   5.846  10.907   1.981 -0.3066  0.1489 -0.3323
46879SOL    HW152362   5.926  10.940   1.941 -0.7996  0.9820 -0.6556
46879SOL    HW252363   5.801  10.859   1.911 -1.0112  1.3321 -0.7296
46880SOL     OW52364   7.202   2.222  12.455 -0.1720 -0.8240 -0.3410
46880SOL    HW152365   7.139   2.157  12.424 -0.0815  0.2495 -3.0848
46880SOL    HW252366   7.147   2.291  12.492 -0.5577 -0.6187 -1.2554
46881SOL     OW52367   3.837   0.183   8.606 -0.1385 -0.0203  0.0157
46881SOL    HW152368   3.853   0.088   8.605 -3.2706 -0.6648 -1.7307
46881SOL    HW252369   3.923   0.221   8.593  0.9581 -2.7303 -1.6337
46882SOL     OW52370   9.696  13.633   8.647 -0.3291 -0.1285  0.0777
46882SOL    HW152371   9.730  13.723   8.641 -0.5640 -0.0736 -0.4947
46882SOL    HW252372   9.717  13.594   8.563 -0.1781 -0.6350  0.3481
46883SOL     OW52373  11.773  11.678  13.675 -0.1650  0.2304  0.1500
46883SOL    HW152374  11.854  11.632  13.699 -0.5655 -1.0509 -0.8273
46883SOL    HW252375  11.802  11.765  13.648  0.5817  0.7474  2.3792
46884SOL     OW52376   8.520   5.920   9.946 -0.0840  0.6901 -0.5265
46884SOL    HW152377   8.561   5.879  10.022  1.0925  2.7120  0.0079
46884SOL    HW252378   8.462   5.987   9.983 -3.0108 -1.2380 -1.3141
46885SOL     OW52379   8.679   4.393  11.903  0.1828  0.0545 -0.1490
46885SOL    HW152380   8.685   4.424  11.994  0.3040 -1.3770  0.3701
46885SOL    HW252381   8.585   4.388  11.886  0.1460 -0.1656  0.0966
46886SOL     OW52382   4.921   2.939   5.237 -0.4249 -0.4986 -0.1475
46886SOL    HW152383   5.011   2.962   5.214 -0.7079  0.9738  0.1230
46886SOL    HW252384   4.871   3.019   5.219 -1.3150 -0.5892  1.7437
46887SOL     OW52385   1.537  10.913   3.069 -0.6062 -0.5229  0.4259
46887SOL    HW152386   1.524  10.850   2.998 -0.0643 -0.9432  0.6984
46887SOL    HW252387   1.541  10.998   3.024 -2.4726 -0.5362  0.1607
46888SOL     OW52388   6.823   6.767  11.704 -0.1187  0.2191 -0.0255
46888SOL    HW152389   6.902   6.755  11.757 -0.8648  2.0440  1.6688
46888SOL    HW252390   6.765   6.696  11.732  0.1434  0.1350  0.3193
46889SOL     OW52391  11.247  11.093   0.525 -0.5769  0.6337  0.0003
46889SOL    HW152392  11.214  11.168   0.573  0.8831  0.9895  0.5054
46889SOL    HW252393  11.340  11.091   0.545 -0.4157 -0.7578 -0.7615
46890SOL     OW52394  12.593   0.561   2.961 -0.2759 -0.2022 -0.2450
46890SOL    HW152395  12.511   0.546   3.007 -0.3327 -0.5236 -0.4431
46890SOL    HW252396  12.625   0.473   2.940 -0.1681 -0.0652 -0.6658
46891SOL     OW52397   4.426  13.515   6.158  0.4591  0.1334  0.0249
46891SOL    HW152398   4.420  13.421   6.143  0.4465  0.0224  0.7205
46891SOL    HW252399   4.511  13.528   6.200  0.7945  0.5270 -0.7609
46892SOL     OW52400  12.237   2.205   1.882  0.0552  0.3433 -0.2287
46892SOL    HW152401  12.217   2.277   1.822  1.9218  1.7416  0.6990
46892SOL    HW252402  12.332   2.192   1.874  0.0066 -0.8776  0.8401
46893SOL     OW52403  11.174   9.975   7.259 -0.0164  0.6407  0.2268
46893SOL    HW152404  11.128   9.994   7.178 -0.8794  0.1305  0.5842
46893SOL    HW252405  11.126  10.022   7.327  0.8622  1.2912  0.4233
46894SOL     OW52406   1.925   0.188   8.100  0.8108 -0.1261 -0.2899
46894SOL    HW152407   1.902   0.230   8.017  1.1415 -1.5226 -1.1091
46894SOL    HW252408   1.959   0.260   8.154  0.2058  0.8753 -1.1946
46895SOL     OW52409   5.721  12.624   4.479  0.3626  0.1082 -0.4812
46895SOL    HW152410   5.636  12.652   4.514 -0.7409 -2.5047 -0.8612
46895SOL    HW252411   5.743  12.690   4.414 -1.1554  1.0876 -0.0500
46896SOL     OW52412   2.937   0.017   2.928 -0.3230  0.1590  0.4294
46896SOL    HW152413   2.886  -0.025   2.859  1.2855 -0.3931 -0.4739
46896SOL    HW252414   2.935  -0.045   3.001  1.3023 -1.1534 -0.5828
46897SOL     OW52415   7.817   8.430  10.355  0.1982  0.3198 -0.0953
46897SOL    HW152416   7.843   8.386  10.274 -0.2455  0.6605 -0.4324
46897SOL    HW252417   7.723   8.446  10.345 -0.1295 -0.7460  1.0328
46898SOL     OW52418   9.909   7.721   9.374 -0.1299  0.7875 -0.7126
46898SOL    HW152419   9.937   7.762   9.292 -0.2893  0.1810 -1.0776
46898SOL    HW252420   9.973   7.751   9.439 -0.6137  2.1089 -0.8357
46899SOL     OW52421   3.580   1.306  12.154 -0.1541  0.3240 -0.0388
46899SOL    HW152422   3.534   1.331  12.074  1.6189  0.5995 -1.0180
46899SOL    HW252423   3.540   1.360  12.222 -0.5163  1.3876 -1.0639
46900SOL     OW52424   4.323   1.312   0.480 -0.7071 -0.1712  0.3725
46900SOL    HW152425   4.277   1.365   0.414  2.0940 -0.4587 -1.9954
46900SOL    HW252426   4.277   1.228   0.479 -0.5892 -0.2653 -1.4768
46901SOL     OW52427   1.246  10.880   0.696 -0.5125  0.0206 -0.0957
46901SOL    HW152428   1.303  10.900   0.770 -1.1024 -0.8491  0.6205
46901SOL    HW252429   1.299  10.824   0.639 -1.0793 -2.1373  1.3479
46902SOL     OW52430  12.760   5.496   8.813  0.3866 -0.6220 -0.1522
46902SOL    HW152431  12.833   5.444   8.779  1.9003  1.8742 -0.9328
46902SOL    HW252432  12.695   5.495   8.743  1.6930  0.9572 -1.4633
46903SOL     OW52433   7.318   0.951  11.491  0.1755  0.0837 -0.0064
46903SOL    HW152434   7.346   0.860  11.483  1.1818  0.3761  0.0619
46903SOL    HW252435   7.309   0.965  11.586 -1.1589 -0.2840 -0.0708
46904SOL     OW52436  13.580   2.075  11.398  0.4078 -0.0425  0.6740
46904SOL    HW152437  13.660   2.111  11.360 -0.3208 -0.0594 -0.9601
46904SOL    HW252438  13.510   2.101  11.337 -0.8950  0.2111  2.1890
46905SOL     OW52439   8.926   1.266   6.713 -1.0494 -0.0344 -1.0575
46905SOL    HW152440   9.017   1.239   6.700 -0.8202  0.7350 -1.1240
46905SOL    HW252441   8.909   1.249   6.805 -0.9842 -0.5889 -1.1424
46906SOL     OW52442   0.986  13.315   9.104  1.0944 -0.2815 -1.1069
46906SOL    HW152443   0.910  13.373   9.099  1.5344  0.4879  0.6076
46906SOL    HW252444   0.955  13.238   9.150  1.6980  0.7758  1.2522
46907SOL     OW52445   9.759   8.310  11.712  0.4194 -0.1136 -0.3018
46907SOL    HW152446   9.733   8.370  11.782 -0.5778  0.6472 -1.2968
46907SOL    HW252447   9.677   8.279  11.675  0.9257 -0.4293 -1.1997
46908SOL     OW52448   7.395  12.207   0.151  0.2282 -0.9329  0.2441
46908SOL    HW152449   7.364  12.117   0.160 -3.0774  0.0272 -0.0287
46908SOL    HW252450   7.423  12.232   0.239  0.9929 -2.1256  0.3617
46909SOL     OW52451  10.701   3.398   6.595 -0.5425  0.1295  0.8845
46909SOL    HW152452  10.720   3.318   6.644  0.6342  0.0684  0.3637
46909SOL    HW252453  10.721   3.469   6.656  0.6172  0.0467  0.6292
46910SOL     OW52454   2.224   9.224   2.406 -0.1803 -0.3065 -0.1370
46910SOL    HW152455   2.232   9.278   2.484  1.1167 -1.2705  0.4396
46910SOL    HW252456   2.142   9.252   2.365 -0.5084  0.7258  1.1648
46911SOL     OW52457   9.728   5.320   8.859 -0.7201  0.6279 -0.4482
46911SOL    HW152458   9.801   5.382   8.863  0.2555 -0.4785 -0.5677
46911SOL    HW252459   9.769   5.236   8.841 -1.8686 -0.3154  1.0993
46912SOL     OW52460  10.533   1.308  11.597  0.3103 -0.9057 -0.1378
46912SOL    HW152461  10.498   1.354  11.520  0.0244 -1.5134 -0.3745
46912SOL    HW252462  10.555   1.378  11.658 -1.3584 -0.4917  0.0346
46913SOL     OW52463  11.104   7.295   3.759  0.2474  0.6604 -0.3300
46913SOL    HW152464  11.112   7.377   3.809  1.5126  0.3634  0.0095
46913SOL    HW252465  11.167   7.305   3.688  0.7810 -0.2034  0.0013
46914SOL     OW52466  12.880  10.527  10.106  0.2021 -0.1738  0.0762
46914SOL    HW152467  12.883  10.447  10.158  0.0595 -0.3079 -0.1170
46914SOL    HW252468  12.970  10.538  10.075  0.1341 -0.5041 -0.2536
46915SOL     OW52469  10.150   7.357   3.844 -0.2050 -0.6583  0.5803
46915SOL    HW152470  10.175   7.444   3.814  0.7739 -0.5817  1.5100
46915SOL    HW252471  10.129   7.309   3.764  0.6549  0.0142 -0.0810
46916SOL     OW52472   3.188   1.717   9.544  0.2677  0.0782 -0.2109
46916SOL    HW152473   3.242   1.796   9.535 -0.4545  0.5378 -0.6451
46916SOL    HW252474   3.132   1.735   9.620  0.1361 -0.0407 -0.2800
46917SOL     OW52475   0.543   9.510   5.000 -0.1181 -0.1868  0.3028
46917SOL    HW152476   0.557   9.590   4.949  1.4562 -0.4100  0.3366
46917SOL    HW252477   0.601   9.518   5.075 -0.4051 -1.0948  0.6418
46918SOL     OW52478   3.289   3.446   8.108  0.1268  0.0838  0.1797
46918SOL    HW152479   3.199   3.414   8.103  0.2547 -0.7818  2.3742
46918SOL    HW252480   3.342   3.374   8.073  0.0172  0.3039 -0.4412
46919SOL     OW52481   2.371   3.922   3.002 -0.2339 -0.5370 -0.3634
46919SOL    HW152482   2.315   3.844   3.009  0.0254 -0.8195 -1.2355
46919SOL    HW252483   2.372   3.941   2.908  0.7636 -0.2689 -0.3049
46920SOL     OW52484   6.130   8.216   2.482  0.2049 -0.3267  0.3609
46920SOL    HW152485   6.055   8.225   2.423  1.2036  0.0422 -0.8923
46920SOL    HW252486   6.105   8.145   2.541 -0.1356 -1.9230 -1.6093
46921SOL     OW52487   9.610   0.978   8.494 -0.6784 -0.0049 -0.4447
46921SOL    HW152488   9.535   1.020   8.452 -0.5799  0.9635  0.3071
46921SOL    HW252489   9.671   1.050   8.510 -0.0589 -0.6112 -0.0520
46922SOL     OW52490   6.254   9.273  12.184 -0.3322  0.6335  1.1094
46922SOL    HW152491   6.240   9.330  12.260 -1.1991  1.9891  0.0035
46922SOL    HW252492   6.347   9.283  12.164  0.0077 -0.1026  2.2517
46923SOL     OW52493   2.107   0.796   0.812  0.2655 -0.4585 -0.4558
46923SOL    HW152494   2.018   0.800   0.776 -0.5484 -0.0328  1.4704
46923SOL    HW252495   2.151   0.873   0.777 -0.3183 -0.3430 -0.9504
46924SOL     OW52496   2.007   5.690   6.516  0.7289 -0.0723  0.1488
46924SOL    HW152497   2.054   5.755   6.463  2.4241 -2.2322 -1.1951
46924SOL    HW252498   2.076   5.634   6.552 -0.6524 -1.1957  1.1697
46925SOL     OW52499   9.752   1.752   9.437  0.5107 -0.5392 -0.8124
46925SOL    HW152500   9.739   1.847   9.430  0.1561 -0.4484  0.7081
46925SOL    HW252501   9.791   1.727   9.353  0.1892  0.8728 -1.4178
46926SOL     OW52502   9.064   4.335   7.767 -0.3185 -0.0441 -0.1549
46926SOL    HW152503   9.084   4.422   7.732  0.5633 -0.0550  0.3082
46926SOL    HW252504   9.032   4.286   7.692 -2.0623  1.0416 -0.1870
46927SOL     OW52505  12.032   2.646  11.743  0.1380 -0.4448  0.3093
46927SOL    HW152506  12.056   2.739  11.753  1.8619 -1.0247  2.2408
46927SOL    HW252507  11.983   2.643  11.661  0.3661  2.1053 -0.0151
46928SOL     OW52508   1.724   5.253  10.051  0.3167 -0.3731  0.0560
46928SOL    HW152509   1.818   5.264  10.036  0.1897  0.8554  0.0516
46928SOL    HW252510   1.689   5.229   9.965  0.4505  0.4790 -0.2422
46929SOL     OW52511   5.322  10.293   9.906  0.1619  0.9572 -0.3706
46929SOL    HW152512   5.256  10.253   9.963  1.5676 -0.9486  0.0326
46929SOL    HW252513   5.345  10.375   9.949 -0.7844  0.8779  0.3124
46930SOL     OW52514   6.173  10.086   0.453 -0.5327 -0.0805 -0.2346
46930SOL    HW152515   6.142  10.002   0.486  0.1294  0.5141  2.0467
46930SOL    HW252516   6.199  10.068   0.362 -2.8319 -1.6958 -0.6696
46931SOL     OW52517   8.754   1.189  11.808  0.4718 -0.2001  0.3695
46931SOL    HW152518   8.662   1.215  11.814  0.0249 -1.8726  1.4389
46931SOL    HW252519   8.786   1.230  11.727 -0.5507  2.2725  1.1072
46932SOL     OW52520   7.597  10.802  11.316 -0.1892  0.0988  0.4712
46932SOL    HW152521   7.568  10.736  11.252  1.2892 -0.5928  0.4873
46932SOL    HW252522   7.651  10.862  11.266  1.3011 -0.6645  1.1143
46933SOL     OW52523   9.199  12.671   3.644  0.4004  1.0435 -0.7831
46933SOL    HW152524   9.156  12.616   3.709  1.9705 -0.5612 -1.0401
46933SOL    HW252525   9.169  12.636   3.560  0.1486  1.6555 -0.9574
46934SOL     OW52526   0.356   6.895   7.169  0.0999  0.3393  0.6785
46934SOL    HW152527   0.319   6.980   7.193 -0.3130  0.7555 -1.2236
46934SOL    HW252528   0.374   6.903   7.075  1.4152 -1.1930  0.7636
46935SOL     OW52529   2.679   4.662   2.259  0.2675  0.5154  0.1609
46935SOL    HW152530   2.620   4.731   2.232  0.8950  0.0928 -2.5210
46935SOL    HW252531   2.760   4.677   2.210  0.7120 -1.6044  0.1083
46936SOL     OW52532   9.182  12.262  12.624  0.6844  0.5387 -0.6377
46936SOL    HW152533   9.169  12.356  12.613  4.3999  1.1882 -0.7682
46936SOL    HW252534   9.222  12.233  12.542  0.0377 -1.0890 -0.4178
46937SOL     OW52535   9.441   4.434  12.848 -0.0462 -0.2968  0.2480
46937SOL    HW152536   9.520   4.437  12.902  0.2483  0.8154 -0.2174
46937SOL    HW252537   9.396   4.517  12.866 -0.7901 -0.6388  0.0288
46938SOL     OW52538   7.221   4.646  11.750 -0.2053  0.6004  0.0243
46938SOL    HW152539   7.297   4.633  11.806 -0.9479  0.0185  0.9276
46938SOL    HW252540   7.146   4.627  11.806 -0.9412 -1.2453 -1.4654
46939SOL     OW52541   9.554   2.889   3.588  0.1443  0.4267  0.3595
46939SOL    HW152542   9.471   2.875   3.543  0.5818 -2.1784  0.2300
46939SOL    HW252543   9.583   2.975   3.557 -1.1019  0.1281 -1.8747
46940SOL     OW52544  13.038   8.831   3.686  0.3512  0.3474  0.4162
46940SOL    HW152545  13.012   8.889   3.614 -0.1320 -0.5928 -0.1801
46940SOL    HW252546  13.094   8.886   3.741  1.2144  0.9185 -0.9743
46941SOL     OW52547   6.337  12.018   6.544 -0.1895  0.1516 -0.0249
46941SOL    HW152548   6.310  11.998   6.455 -0.4096 -0.0524  0.0875
46941SOL    HW252549   6.345  11.933   6.587 -1.6588  0.2987  0.6093
46942SOL     OW52550  11.391   3.504  10.740 -0.1418 -0.0949 -0.2201
46942SOL    HW152551  11.454   3.444  10.781 -1.4696  0.1981  2.4794
46942SOL    HW252552  11.319   3.447  10.712 -0.4361 -0.0200  0.3673
46943SOL     OW52553  11.946  13.455   8.546 -0.5911 -0.2709  0.1550
46943SOL    HW152554  12.032  13.480   8.514 -0.9273 -0.4031 -0.8989
46943SOL    HW252555  11.955  13.453   8.641  1.0008 -1.8379  0.0197
46944SOL     OW52556   3.595   0.605   1.658 -0.1927  0.1162 -0.3348
46944SOL    HW152557   3.658   0.633   1.592 -1.1020  1.6976 -0.5831
46944SOL    HW252558   3.588   0.510   1.647  0.9820  0.1278 -1.3197
46945SOL     OW52559   5.271   2.116   1.179  0.4196 -0.7483 -0.2331
46945SOL    HW152560   5.255   2.054   1.108 -3.2878 -0.5795  0.2726
46945SOL    HW252561   5.322   2.186   1.138  1.2599 -2.1918 -1.8111
46946SOL     OW52562  12.610   5.397   6.005 -0.1801 -0.2254  0.0553
46946SOL    HW152563  12.529   5.434   5.969 -1.0291 -1.0551  1.0480
46946SOL    HW252564  12.599   5.302   5.997 -0.2534 -0.4431  2.1147
46947SOL     OW52565   2.784   7.573   3.156  0.1786 -0.0019  0.5484
46947SOL    HW152566   2.741   7.655   3.129 -0.7952 -0.6787 -0.0134
46947SOL    HW252567   2.760   7.510   3.088  0.2057 -0.9824  1.4231
46948SOL     OW52568   6.615   3.664   6.300  0.2588  0.4381 -0.3692
46948SOL    HW152569   6.628   3.749   6.259 -0.1517 -0.4398 -2.4714
46948SOL    HW252570   6.702   3.638   6.330  0.7647  0.7502 -1.5179
46949SOL     OW52571   9.660  11.449  11.203 -0.4120  0.0951 -0.3530
46949SOL    HW152572   9.668  11.501  11.283  0.9899  0.0517 -0.4333
46949SOL    HW252573   9.567  11.426  11.198 -0.4484 -0.4017  1.5866
46950SOL     OW52574  10.391  13.409   5.897 -0.2534 -0.5357  0.1627
46950SOL    HW152575  10.327  13.455   5.953  0.6742  0.4145  0.4682
46950SOL    HW252576  10.345  13.399   5.813 -1.0115 -0.3762  0.5416
46951SOL     OW52577   1.063  12.410   2.999  0.0648  0.4601  0.6045
46951SOL    HW152578   1.029  12.361   3.074  0.3685 -0.4207  0.1884
46951SOL    HW252579   1.066  12.501   3.028  0.8025  0.0427  1.8879
46952SOL     OW52580   9.709  12.393   0.176  0.3868 -0.7846 -0.1621
46952SOL    HW152581   9.682  12.411   0.266 -1.6849 -1.4722 -0.5846
46952SOL    HW252582   9.782  12.332   0.185  0.9506  0.0167  1.0448
46953SOL     OW52583   4.881   4.892  12.334 -0.4216 -0.2137 -0.0231
46953SOL    HW152584   4.787   4.891  12.321 -0.5867  1.1797  0.7989
46953SOL    HW252585   4.918   4.897  12.246 -1.1655  0.5267 -0.3049
46954SOL     OW52586   1.742   9.819   7.682 -0.1963 -0.3014  0.6400
46954SOL    HW152587   1.793   9.742   7.657 -0.1583 -0.0879  0.0531
46954SOL    HW252588   1.802   9.893   7.670 -0.4634 -0.1082  0.4905
46955SOL     OW52589  11.974  10.076   8.329  0.0741  0.4293  0.3850
46955SOL    HW152590  12.036  10.147   8.311  0.6953  0.3482  2.0170
46955SOL    HW252591  12.012   9.999   8.287 -0.0923  0.8439 -0.5385
46956SOL     OW52592   1.704   9.801  11.596  0.4685 -0.0455  0.4365
46956SOL    HW152593   1.721   9.894  11.587  1.2522 -0.1029  1.1558
46956SOL    HW252594   1.634   9.795  11.660 -1.2063  0.1188 -1.2844
46957SOL     OW52595   7.206  10.677  13.730 -0.0664  0.1210 -0.4548
46957SOL    HW152596   7.270  10.655  13.664 -1.0775 -0.5541 -1.2390
46957SOL    HW252597   7.121  10.665  13.687 -0.7495 -0.3244  0.9452
46958SOL     OW52598   3.205   1.570   2.640  0.0927  0.4098 -0.1458
46958SOL    HW152599   3.226   1.559   2.547 -1.4478 -1.2913 -0.3510
46958SOL    HW252600   3.124   1.621   2.640  0.6942  1.3889  0.3327
46959SOL     OW52601   1.653   6.028  11.541  0.3556  0.2648 -0.3257
46959SOL    HW152602   1.580   6.091  11.543  0.0098 -0.1430  0.6501
46959SOL    HW252603   1.729   6.080  11.516  0.2651  1.3075  1.3707
46960SOL     OW52604   7.069   3.034   5.232  0.0489  0.3016 -0.2434
46960SOL    HW152605   7.032   3.065   5.149 -1.3048  0.0356  0.2254
46960SOL    HW252606   7.145   2.982   5.207 -1.7956 -1.9407 -1.5446
46961SOL     OW52607   2.797   8.558   2.029 -0.3933  0.5897 -0.2451
46961SOL    HW152608   2.800   8.602   2.114 -0.6623  1.9654 -0.9307
46961SOL    HW252609   2.710   8.517   2.027  1.8005 -5.5439  3.0071
46962SOL     OW52610  12.461   0.585  11.613  0.6451  0.4804  0.1142
46962SOL    HW152611  12.437   0.618  11.527 -0.9567 -2.1185 -0.5495
46962SOL    HW252612  12.382   0.595  11.666  0.6458 -0.6532  0.3610
46963SOL     OW52613  11.522   3.853   3.899 -0.7810  0.0059  0.2895
46963SOL    HW152614  11.552   3.944   3.905 -0.9834  0.0173  1.3676
46963SOL    HW252615  11.457   3.845   3.968 -1.2345 -0.7945 -0.2094
46964SOL     OW52616   0.549  10.329   5.612 -0.1048  0.1374  0.0571
46964SOL    HW152617   0.628  10.277   5.603 -1.0815 -1.2206 -1.1872
46964SOL    HW252618   0.522  10.349   5.522 -1.5912 -0.1276  0.4044
46965SOL     OW52619   5.209   7.805  11.873 -0.2838 -0.3922  0.0492
46965SOL    HW152620   5.209   7.767  11.960  1.2715 -1.9402 -0.5668
46965SOL    HW252621   5.177   7.735  11.816  0.7822 -0.1688 -0.8731
46966SOL     OW52622   4.878  11.441   8.012  0.5531 -0.1723 -0.1044
46966SOL    HW152623   4.870  11.432   7.917  3.1562  0.3751 -0.4451
46966SOL    HW252624   4.967  11.475   8.026 -0.1067  0.7674  2.4757
46967SOL     OW52625   0.288   0.239   1.338  0.0245  0.1159 -0.4221
46967SOL    HW152626   0.303   0.175   1.268 -0.7432 -0.2448 -0.2629
46967SOL    HW252627   0.218   0.295   1.306 -0.3271 -0.0447  0.0471
46968SOL     OW52628   8.459  11.164  10.921  0.4732 -0.2746  0.1344
46968SOL    HW152629   8.468  11.069  10.920 -1.1490 -0.5114 -2.7229
46968SOL    HW252630   8.533  11.195  10.868  0.8765  0.0650  0.8807
46969SOL     OW52631  13.308   3.709  12.614 -0.1076  0.4728 -0.4798
46969SOL    HW152632  13.332   3.630  12.566  0.4037  1.1033 -1.3069
46969SOL    HW252633  13.302   3.682  12.705 -0.0767 -0.5416 -0.7728
46970SOL     OW52634   9.845   4.318   9.907 -0.4960  0.0975 -0.2334
46970SOL    HW152635   9.819   4.326   9.815 -1.0608 -1.4845 -0.2450
46970SOL    HW252636   9.939   4.336   9.908 -0.6677  1.1207 -0.9473
46971SOL     OW52637   0.719  10.043   4.818 -0.2141 -0.0826 -0.5695
46971SOL    HW152638   0.731   9.995   4.736 -1.6270 -0.6635 -0.4706
46971SOL    HW252639   0.706  10.134   4.791 -0.3542 -0.2181 -0.9595
46972SOL     OW52640   4.024   1.775   3.208 -0.5849  0.7462  0.4027
46972SOL    HW152641   4.088   1.729   3.153 -1.3352 -1.2168  1.0656
46972SOL    HW252642   3.954   1.800   3.149 -0.0274  1.3359 -0.0222
46973SOL     OW52643   9.764   4.048   6.477 -0.2593 -0.1249 -0.2242
46973SOL    HW152644   9.733   4.108   6.409 -0.4352 -0.7130 -0.6713
46973SOL    HW252645   9.858   4.065   6.483 -0.0079 -0.9304 -1.5067
46974SOL     OW52646  10.933   5.665   7.917  0.2591 -0.2710  0.3679
46974SOL    HW152647  10.934   5.613   7.997 -0.0981 -1.1738 -0.2032
46974SOL    HW252648  11.026   5.682   7.899  0.3847 -0.8438  0.4713
46975SOL     OW52649   4.389   9.659   4.058  0.1573 -0.0692 -0.3173
46975SOL    HW152650   4.387   9.589   3.992 -0.9432 -0.4311  0.0827
46975SOL    HW252651   4.376   9.739   4.007  1.8981 -0.0655 -0.8416
46976SOL     OW52652   7.462   8.004   4.909  0.4423  0.4136  0.0573
46976SOL    HW152653   7.386   7.982   4.855 -0.7771  0.6459  1.5984
46976SOL    HW252654   7.459   8.099   4.918  1.1868  0.4717 -0.2331
46977SOL     OW52655   8.748   3.667   7.165  0.6233 -0.2505 -0.2379
46977SOL    HW152656   8.693   3.742   7.189  4.3224  2.0087  2.3011
46977SOL    HW252657   8.774   3.684   7.074  1.1262  1.4800  0.1919
46978SOL     OW52658   2.341  12.698   9.640 -0.3956 -0.6398 -0.2239
46978SOL    HW152659   2.303  12.649   9.713 -0.3150  0.6035  0.6840
46978SOL    HW252660   2.435  12.684   9.647 -0.2514  0.7140  0.8695
46979SOL     OW52661  10.690  12.915   2.930 -0.3038 -0.3717  0.4919
46979SOL    HW152662  10.779  12.889   2.909  0.0942 -0.3766  2.0536
46979SOL    HW252663  10.660  12.964   2.854  1.6078  1.0223  0.5707
46980SOL     OW52664  13.655   2.882   9.847  0.9591  0.0556 -0.6624
46980SOL    HW152665  13.719   2.938   9.803  0.1763  1.0386 -0.5980
46980SOL    HW252666  13.582   2.876   9.785 -0.3383  1.7914  0.5777
46981SOL     OW52667  13.329   9.722   0.738  0.2092  0.0631 -0.4027
46981SOL    HW152668  13.259   9.675   0.783  0.8522 -1.6366 -1.1102
46981SOL    HW252669  13.405   9.713   0.796  0.4463 -0.1423 -0.7446
46982SOL     OW52670  11.763   5.938   7.004 -0.2704  0.2369  0.0439
46982SOL    HW152671  11.859   5.943   7.009 -0.2491 -0.4824  0.4996
46982SOL    HW252672  11.746   5.877   6.932 -0.3012 -2.4675  2.2108
46983SOL     OW52673   8.466   7.462   9.029  0.1900 -0.0927 -0.4927
46983SOL    HW152674   8.502   7.431   9.112 -0.5181 -3.3125 -1.2633
46983SOL    HW252675   8.440   7.553   9.047  0.6608 -0.4635  2.5862
46984SOL     OW52676   9.694   8.832   9.301 -0.8814 -0.2246  0.1766
46984SOL    HW152677   9.784   8.864   9.304 -0.7057 -0.6881 -0.1531
46984SOL    HW252678   9.680   8.789   9.385 -0.3629 -1.3004 -0.2698
46985SOL     OW52679   1.634   0.314  10.052  0.7138 -0.1687  0.4320
46985SOL    HW152680   1.707   0.283   9.998  1.2587  1.3591  0.2322
46985SOL    HW252681   1.672   0.384  10.105 -0.5474  0.5069  0.4814
46986SOL     OW52682   5.312   3.433  13.425  0.3465 -0.7518 -0.3122
46986SOL    HW152683   5.308   3.421  13.520 -0.9759  2.9816  0.2397
46986SOL    HW252684   5.249   3.369  13.391 -1.4219 -0.1818  1.6260
46987SOL     OW52685   7.187  11.759   3.108 -0.1549 -0.1576 -0.3090
46987SOL    HW152686   7.125  11.802   3.048 -0.1626 -0.5778 -0.6039
46987SOL    HW252687   7.138  11.685   3.144 -0.5989  0.8236  1.2200
46988SOL     OW52688  10.164   8.635  12.905  0.0383  0.3153  0.0511
46988SOL    HW152689  10.187   8.654  12.814  0.6025 -1.7974 -0.3160
46988SOL    HW252690  10.247   8.613  12.947 -0.5581 -2.4298  0.0248
46989SOL     OW52691  12.903  11.115  13.223  0.3192 -0.4870  0.1636
46989SOL    HW152692  12.907  11.120  13.318  0.7932 -2.1550  0.2649
46989SOL    HW252693  12.811  11.094  13.204 -0.0453  1.0118  0.1523
46990SOL     OW52694   3.520   9.609   4.309  0.2690  0.0377  0.1978
46990SOL    HW152695   3.437   9.598   4.262  1.4673 -2.3702 -1.5776
46990SOL    HW252696   3.499   9.593   4.400 -1.2167 -0.5666 -0.2262
46991SOL     OW52697  11.649   9.786   8.068  0.3804  0.0468 -0.0731
46991SOL    HW152698  11.691   9.766   8.152  0.5991 -0.5061 -0.3078
46991SOL    HW252699  11.593   9.861   8.086  2.4854  1.7030 -0.0560
46992SOL     OW52700   7.580   8.571   4.022 -0.1894  0.8929  0.0397
46992SOL    HW152701   7.605   8.478   4.019 -0.6837  0.7692 -2.3046
46992SOL    HW252702   7.493   8.571   4.063  0.6920  0.6105  2.0379
46993SOL     OW52703   7.787   3.266  12.545  0.5921 -0.3072 -0.3422
46993SOL    HW152704   7.833   3.241  12.626  2.6342  2.6290 -0.4493
46993SOL    HW252705   7.720   3.328  12.573  0.0492 -0.6934 -0.7498
46994SOL     OW52706   7.711   6.509   7.015  0.4306  0.2965 -0.4297
46994SOL    HW152707   7.764   6.431   7.036 -2.0605 -1.3946  0.0232
46994SOL    HW252708   7.647   6.514   7.086  0.1688  2.4817 -0.7647
46995SOL     OW52709   1.926   6.615   8.062  0.2246  0.4884  0.4870
46995SOL    HW152710   1.867   6.637   8.134  0.1411 -0.0259  0.5766
46995SOL    HW252711   1.988   6.688   8.059 -0.8174  1.3719 -0.0537
46996SOL     OW52712   8.431   6.741  11.592  0.0002 -0.2577 -0.0118
46996SOL    HW152713   8.451   6.712  11.503  0.8236 -0.0492  0.0895
46996SOL    HW252714   8.463   6.831  11.595  0.5857 -0.4767  0.6826
46997SOL     OW52715   9.053   3.589  12.540  0.2069 -0.2310  0.0024
46997SOL    HW152716   9.136   3.571  12.583  0.9492  1.8037 -0.4911
46997SOL    HW252717   8.987   3.550  12.597  1.2620  0.9589  2.1107
46998SOL     OW52718   3.177   9.462   2.321 -0.0197 -0.2592 -0.2757
46998SOL    HW152719   3.163   9.478   2.414  0.6425 -1.2094 -0.0006
46998SOL    HW252720   3.263   9.499   2.303 -0.2251  0.0867 -0.5573
46999SOL     OW52721  13.562   9.046   8.247  0.3032 -0.1576 -0.1921
46999SOL    HW152722  13.621   9.055   8.172 -0.2021 -0.0728 -0.5873
46999SOL    HW252723  13.475   9.050   8.208  0.0412 -1.2283  0.2641
47000SOL     OW52724   4.889  11.099   0.440 -0.6154  0.5915 -0.2464
47000SOL    HW152725   4.844  11.126   0.520  0.1674  2.7138 -0.4772
47000SOL    HW252726   4.827  11.116   0.370 -1.0087 -0.5387 -0.1961
47001SOL     OW52727  11.527   3.664   9.679 -0.0067  0.1160  0.2177
47001SOL    HW152728  11.474   3.721   9.624 -0.7505 -0.4626  0.3110
47001SOL    HW252729  11.476   3.584   9.686  1.1676 -0.6921 -0.1755
47002SOL     OW52730   3.606  12.085   6.278  0.0240  0.0262  0.0365
47002SOL    HW152731   3.524  12.036   6.289  0.1534 -0.2461 -0.1998
47002SOL    HW252732   3.668  12.042   6.337 -0.2428  0.8170  0.9326
47003SOL     OW52733   5.797  12.679   4.106 -0.9893  0.3993 -0.4521
47003SOL    HW152734   5.861  12.679   4.178  2.6612  0.6600 -3.3744
47003SOL    HW252735   5.792  12.771   4.079 -2.6007  0.3586 -0.3767
47004SOL     OW52736  13.623  10.953   9.677 -0.3786  0.2369  0.0447
47004SOL    HW152737  13.610  11.038   9.636 -0.9808  0.1027 -0.0589
47004SOL    HW252738  13.535  10.918   9.688 -0.1021 -0.7390 -0.7067
47005SOL     OW52739  11.488   7.636   4.926 -0.0569 -0.1786 -0.1500
47005SOL    HW152740  11.461   7.546   4.944 -2.1191  0.6022  1.0172
47005SOL    HW252741  11.533   7.664   5.006  0.7719 -0.2184 -0.5924
47006SOL     OW52742   8.617   9.991   4.754  0.7781 -0.0367  0.1132
47006SOL    HW152743   8.598   9.960   4.666  2.3842  0.2192 -0.3597
47006SOL    HW252744   8.712   9.995   4.758  0.7567 -0.4960  2.0292
47007SOL     OW52745  10.077  10.258   7.772  0.2110 -0.0160 -0.1388
47007SOL    HW152746  10.155  10.314   7.773  0.2804 -0.0887  1.1685
47007SOL    HW252747  10.106  10.175   7.811 -0.7360  0.3224  1.4098
47008SOL     OW52748  10.737  13.294  11.602  0.2373 -0.2688  0.8387
47008SOL    HW152749  10.696  13.226  11.547  2.5752 -1.8871  0.9715
47008SOL    HW252750  10.710  13.271  11.691 -1.6897  1.0143  0.6393
47009SOL     OW52751  10.077   7.084  12.848  0.3647 -0.1604  0.7607
47009SOL    HW152752  10.011   7.109  12.913 -0.7980  0.0964 -0.4639
47009SOL    HW252753  10.049   6.998  12.818  1.0942 -0.4287  0.8395
47010SOL     OW52754  10.024  12.092   6.712 -0.0820 -0.3177 -0.3016
47010SOL    HW152755  10.012  12.067   6.620  1.1836 -1.1148 -0.2632
47010SOL    HW252756  10.033  12.188   6.710 -4.0884  0.2380 -0.5433
47011SOL     OW52757   2.884   4.787   5.818  0.3144 -0.1193  0.4128
47011SOL    HW152758   2.793   4.772   5.845  0.4191 -0.2373  0.7015
47011SOL    HW252759   2.877   4.843   5.740  0.0390  1.4094  1.4897
47012SOL     OW52760   8.105   8.893   0.403 -0.1605  0.0249 -0.3729
47012SOL    HW152761   8.123   8.977   0.359  0.0197 -0.2960 -0.9183
47012SOL    HW252762   8.187   8.845   0.398 -0.0631  0.0763  0.5509
47013SOL     OW52763   9.552   7.151  10.298  0.1963 -0.8499  0.4884
47013SOL    HW152764   9.545   7.154  10.394  2.4812 -0.3517  0.6837
47013SOL    HW252765   9.593   7.066  10.280  1.9839  0.0450  0.1619
47014SOL     OW52766   0.109   0.270   9.519  0.6701 -0.6724 -0.2295
47014SOL    HW152767   0.158   0.192   9.545 -0.0629 -1.7109 -1.7923
47014SOL    HW252768   0.036   0.274   9.580  0.2459 -1.7339 -0.6317
47015SOL     OW52769   8.511   3.362   9.614 -0.5139 -0.4023 -0.2034
47015SOL    HW152770   8.446   3.336   9.679 -0.4816 -0.8782 -0.3583
47015SOL    HW252771   8.460   3.387   9.537 -0.6521  1.8108  0.5306
47016SOL     OW52772  11.547   4.273   5.090 -0.5107 -0.1963 -0.7174
47016SOL    HW152773  11.572   4.283   4.998 -0.8764  2.1015 -0.6377
47016SOL    HW252774  11.482   4.203   5.090  0.1263 -0.8256 -2.0658
47017SOL     OW52775  10.934  10.031   9.695 -0.4938  0.2693  0.5541
47017SOL    HW152776  11.017  10.040   9.742 -0.4176  2.3715  0.0957
47017SOL    HW252777  10.955   9.981   9.617  0.7770  2.2458 -0.4448
47018SOL     OW52778   0.859   7.850   1.970  0.3123  0.5037  0.3825
47018SOL    HW152779   0.894   7.810   1.890 -1.1193  0.4551 -0.2437
47018SOL    HW252780   0.817   7.779   2.017  0.7437  0.6254  0.9672
47019SOL     OW52781  11.329   7.275   5.971  0.1241  0.2737  0.2440
47019SOL    HW152782  11.255   7.329   5.944  0.4596  0.1082 -1.1134
47019SOL    HW252783  11.385   7.334   6.021 -0.4180  0.6752  0.3913
47020SOL     OW52784   4.243  11.872   4.480 -0.7119 -0.2877  0.6345
47020SOL    HW152785   4.207  11.784   4.491  0.4840 -1.0406 -0.9729
47020SOL    HW252786   4.230  11.891   4.387  2.8200 -0.5987 -0.0690
47021SOL     OW52787   8.828   8.010   2.206 -0.5591 -0.0595 -0.7148
47021SOL    HW152788   8.854   8.045   2.291  0.7089 -1.2997 -0.5365
47021SOL    HW252789   8.733   8.012   2.207 -0.5559  0.5474  0.4819
47022SOL     OW52790   5.205   5.014   2.726 -0.4764  0.5861 -0.3050
47022SOL    HW152791   5.227   5.090   2.779 -1.0858  1.0511 -0.6993
47022SOL    HW252792   5.279   5.004   2.666  0.5276 -0.3516  1.0480
47023SOL     OW52793  12.415   6.382   0.563  0.0728  0.2389 -0.1212
47023SOL    HW152794  12.319   6.387   0.555  0.1470 -0.8582 -2.2351
47023SOL    HW252795  12.445   6.467   0.530 -0.1057 -0.4128 -2.0883
47024SOL     OW52796   5.249   7.753   6.904 -0.1806  0.2962  0.0067
47024SOL    HW152797   5.188   7.684   6.931 -0.4256  0.0383 -1.1465
47024SOL    HW252798   5.333   7.708   6.892 -0.8217 -0.3028 -2.8868
47025SOL     OW52799   2.488   6.146  10.376  0.1921  0.3881 -0.3172
47025SOL    HW152800   2.529   6.151  10.290  0.4420 -2.4178 -0.4455
47025SOL    HW252801   2.395   6.137  10.358  0.1617  0.5656 -0.2521
47026SOL     OW52802   3.401   5.788   7.843  0.2334 -0.2810 -0.2346
47026SOL    HW152803   3.496   5.786   7.848  0.3850 -0.8565 -2.3427
47026SOL    HW252804   3.372   5.707   7.886  0.4989  0.8490  2.2687
47027SOL     OW52805   0.320   8.278   8.960  0.0500  0.6358 -0.1054
47027SOL    HW152806   0.263   8.300   8.886 -1.0688  0.1644  0.5987
47027SOL    HW252807   0.316   8.354   9.017 -1.2785 -0.0576  0.7770
47028SOL     OW52808  13.218  12.341   7.124  0.4487  0.4832 -0.1620
47028SOL    HW152809  13.142  12.308   7.076  0.0871  2.1645 -0.8082
47028SOL    HW252810  13.234  12.428   7.087  2.3866  0.3768  0.3139
47029SOL     OW52811   2.541  12.124   0.832  0.0331  0.4097 -0.8398
47029SOL    HW152812   2.561  12.089   0.746 -0.0793 -0.0799 -0.6669
47029SOL    HW252813   2.489  12.057   0.875 -1.9053  1.5921 -1.2236
47030SOL     OW52814   9.020   2.853  13.356 -0.5154  0.6470  0.3646
47030SOL    HW152815   8.925   2.854  13.363 -0.6294  1.8303 -0.9965
47030SOL    HW252816   9.045   2.945  13.361  0.5250  0.3837  0.1552
47031SOL     OW52817   7.085   2.606  12.031 -0.1993 -0.0323 -0.6541
47031SOL    HW152818   7.037   2.534  12.071 -0.5743  0.4993 -0.1283
47031SOL    HW252819   7.091   2.672  12.100  0.0664  0.4721 -1.1524
47032SOL     OW52820   1.673   7.151   3.637  0.2713 -0.5564  0.1701
47032SOL    HW152821   1.677   7.061   3.606  0.7192 -1.1551  1.8449
47032SOL    HW252822   1.719   7.149   3.721 -2.4131  0.5248  1.8038
47033SOL     OW52823   6.867   7.563   8.847 -0.0462  0.3514 -0.0845
47033SOL    HW152824   6.815   7.639   8.822 -0.0485 -0.0588 -1.4006
47033SOL    HW252825   6.927   7.596   8.913  0.2630  1.6123 -0.9631
47034SOL     OW52826   5.878   1.260   0.089  0.1565 -0.3304  0.4814
47034SOL    HW152827   5.809   1.193   0.080  0.1179 -0.2133 -0.1799
47034SOL    HW252828   5.841   1.325   0.149  0.2193 -0.9306  1.1795
47035SOL     OW52829   2.108   1.214   0.731  0.5639  0.5693  0.6225
47035SOL    HW152830   2.053   1.173   0.797  0.6034  1.4849  1.2323
47035SOL    HW252831   2.157   1.282   0.778  0.0809  1.7059 -0.4639
47036SOL     OW52832   1.288  13.425   0.560  0.6862 -0.7428  0.1835
47036SOL    HW152833   1.205  13.393   0.524  0.2685 -1.3248  1.5679
47036SOL    HW252834   1.278  13.520   0.564 -0.5190 -0.8908  1.6377
47037SOL     OW52835  13.193   8.611  12.996 -0.2402 -0.5205  0.0410
47037SOL    HW152836  13.233   8.527  13.016 -0.9841 -0.7471  0.6130
47037SOL    HW252837  13.180   8.652  13.082 -2.5100 -1.0505  0.0168
47038SOL     OW52838   1.410   1.403   8.850  0.2336  0.1392  0.3228
47038SOL    HW152839   1.475   1.335   8.864 -0.0812  0.0739  1.5838
47038SOL    HW252840   1.344   1.362   8.795  0.7726 -0.0982 -0.1578
47039SOL     OW52841  11.686   1.726   4.705 -0.2175 -0.9920  0.6583
47039SOL    HW152842  11.750   1.783   4.748 -0.0464  0.4871 -1.3964
47039SOL    HW252843  11.715   1.637   4.725  2.1765 -0.3554  0.2439
47040SOL     OW52844   2.757   8.965   1.079 -0.2727  0.0877 -0.4901
47040SOL    HW152845   2.833   8.940   1.132 -1.6577  1.5437  2.4443
47040SOL    HW252846   2.772   9.057   1.057 -0.7626  0.1292 -0.6740
47041SOL     OW52847  11.159  12.883   6.227 -0.1846  0.1513 -0.4128
47041SOL    HW152848  11.229  12.836   6.180 -0.7635  0.8229 -2.0152
47041SOL    HW252849  11.124  12.944   6.162 -2.2733 -0.1661  0.3553
47042SOL     OW52850  11.157  10.946   9.024 -0.1754  0.2133 -0.0303
47042SOL    HW152851  11.154  10.900   9.108 -0.9007  0.8200  0.2922
47042SOL    HW252852  11.225  10.901   8.975  0.6031  0.1528  1.0605
47043SOL     OW52853   2.623   7.057   2.372  0.1190 -0.3506 -0.3142
47043SOL    HW152854   2.668   7.140   2.356 -1.4691  0.9898  1.6988
47043SOL    HW252855   2.553   7.055   2.307 -0.0886  0.0973 -0.1054
47044SOL     OW52856   4.028   4.547   9.105  0.0148 -0.1329 -0.0649
47044SOL    HW152857   4.015   4.524   9.197 -1.6320  0.9344  0.0123
47044SOL    HW252858   4.048   4.464   9.062  0.0946 -0.7597  1.1361
47045SOL     OW52859   9.751   9.548   5.829 -0.2342 -0.8380 -0.2326
47045SOL    HW152860   9.797   9.467   5.852 -1.1105 -0.7165  2.2271
47045SOL    HW252861   9.660   9.531   5.852 -0.2055  1.2946  1.8401
47046SOL     OW52862   5.248   0.933  12.232  0.1020  0.7363 -0.5920
47046SOL    HW152863   5.305   0.859  12.212  0.3279  1.0159 -1.0078
47046SOL    HW252864   5.229   0.972  12.147 -0.5769  0.7511 -0.4452
47047SOL     OW52865   2.078  11.056   3.539 -0.1324 -0.6033  0.3576
47047SOL    HW152866   2.088  11.085   3.630 -0.4960  1.1064 -0.1093
47047SOL    HW252867   2.020  10.980   3.545 -0.5483 -0.2243  1.5147
47048SOL     OW52868  10.545   8.916   6.976 -0.3297  0.0801  0.2339
47048SOL    HW152869  10.569   8.979   7.044 -0.0179  0.3344 -0.1070
47048SOL    HW252870  10.604   8.842   6.989  1.7614  1.3160 -1.5312
47049SOL     OW52871   5.671  12.333   7.258  0.3979 -0.1820  0.4145
47049SOL    HW152872   5.619  12.277   7.317  0.4570  0.0039  0.6447
47049SOL    HW252873   5.607  12.373   7.200  0.5547 -2.6444 -1.6449
47050SOL     OW52874  10.182   8.223   2.406 -0.4845 -0.2215 -0.4877
47050SOL    HW152875  10.161   8.316   2.421  1.0079  0.1364 -0.4916
47050SOL    HW252876  10.140   8.203   2.323  0.1319  0.7936 -1.0742
47051SOL     OW52877   0.723   2.380   7.160  0.3519 -0.3439  0.0862
47051SOL    HW152878   0.708   2.437   7.236 -1.2447 -0.3600 -0.1864
47051SOL    HW252879   0.804   2.334   7.181 -0.8946 -1.5970  2.5807
47052SOL     OW52880   5.152   1.586  12.700  0.4654 -0.3447  0.0996
47052SOL    HW152881   5.214   1.527  12.657 -1.6559 -1.9176 -0.9670
47052SOL    HW252882   5.113   1.533  12.769  0.2948  0.6360  0.7695
47053SOL     OW52883  10.091   7.878   6.445  0.1836  0.3680  0.3717
47053SOL    HW152884  10.154   7.906   6.378 -0.8866 -0.8131 -1.1740
47053SOL    HW252885  10.143   7.824   6.505  0.5203 -1.3898 -1.4089
47054SOL     OW52886  11.111   1.266  11.788 -0.2312  0.8197  0.2164
47054SOL    HW152887  11.123   1.361  11.786 -1.8382  1.0603 -1.5295
47054SOL    HW252888  11.198   1.231  11.768  0.1328  1.9759 -0.3792
47055SOL     OW52889   5.789   7.919   7.498  0.6774 -0.2087  0.1181
47055SOL    HW152890   5.713   7.911   7.556 -0.3670  3.7746 -0.4211
47055SOL    HW252891   5.865   7.911   7.556  0.0007 -3.8398  0.7254
47056SOL     OW52892   5.512  11.836  11.632 -0.0530 -0.5670 -0.0568
47056SOL    HW152893   5.578  11.857  11.699  0.2770 -0.5088 -0.3946
47056SOL    HW252894   5.552  11.866  11.550 -0.6771 -0.1667 -0.2153
47057SOL     OW52895   5.928   6.098   1.592  0.3693 -0.4339 -0.4124
47057SOL    HW152896   5.844   6.145   1.593  1.4922  1.7325 -1.6630
47057SOL    HW252897   5.915   6.026   1.655 -1.7659  0.9703  0.9058
47058SOL     OW52898   0.203   2.456   0.455 -0.5406  0.2840 -0.0998
47058SOL    HW152899   0.236   2.539   0.489 -1.9313  1.4762 -1.5066
47058SOL    HW252900   0.108   2.462   0.464 -0.6454 -1.3718  0.2056
47059SOL     OW52901  12.707  13.344   1.455  0.4666 -0.2817 -0.4548
47059SOL    HW152902  12.662  13.387   1.528 -1.6962 -0.5333 -1.5402
47059SOL    HW252903  12.781  13.300   1.495 -0.5021 -0.2076  1.5603
47060SOL     OW52904   7.890   8.018   8.456  0.3951 -0.2251 -0.4488
47060SOL    HW152905   7.973   8.066   8.451 -0.2835  1.0738  0.1216
47060SOL    HW252906   7.885   7.971   8.373  0.1551  2.3558 -2.0194
47061SOL     OW52907   9.298  12.234   2.359  0.2672 -0.5861 -0.1584
47061SOL    HW152908   9.310  12.217   2.266  0.0794 -0.8697 -0.1294
47061SOL    HW252909   9.242  12.163   2.390 -0.0727 -0.2218  0.0709
47062SOL     OW52910  10.208   4.431   3.016  0.6287  0.5329 -0.6450
47062SOL    HW152911  10.163   4.399   2.938  0.1988  0.1216 -0.2420
47062SOL    HW252912  10.193   4.362   3.081  1.3629  0.6643 -0.3348
47063SOL     OW52913  12.682  11.483   5.457 -0.7165  0.2123 -0.1919
47063SOL    HW152914  12.611  11.533   5.496 -0.2259  0.2291  0.6934
47063SOL    HW252915  12.641  11.435   5.385 -1.5849  0.3338  0.2181
47064SOL     OW52916   1.586   2.254   9.398  0.6021 -0.1196 -0.5866
47064SOL    HW152917   1.653   2.235   9.464 -0.2986  1.1310  0.7691
47064SOL    HW252918   1.565   2.169   9.359  1.4411 -0.8363  0.4745
47065SOL     OW52919   9.227  13.398   4.791 -0.2054  0.4476  0.0657
47065SOL    HW152920   9.283  13.419   4.716 -0.1777  2.1525  0.5107
47065SOL    HW252921   9.279  13.424   4.867 -0.9493  0.4612  0.5754
47066SOL     OW52922   6.226   9.434   6.325  0.4240 -0.5295  0.6655
47066SOL    HW152923   6.298   9.384   6.364 -0.7897 -2.0153  1.0609
47066SOL    HW252924   6.182   9.476   6.399 -0.4716 -1.4625  0.6769
47067SOL     OW52925  11.490   7.166  10.752 -0.6670 -0.0574  0.5482
47067SOL    HW152926  11.431   7.155  10.678 -0.6331  1.1394  0.3177
47067SOL    HW252927  11.560   7.103  10.738  0.8407  1.9938 -1.9748
47068SOL     OW52928   2.577   3.483   5.588  0.5607 -0.0720 -1.2395
47068SOL    HW152929   2.520   3.414   5.622  1.5541  0.0068  0.6820
47068SOL    HW252930   2.517   3.551   5.557 -0.3986 -1.0976 -1.6942
47069SOL     OW52931  10.613   7.807   7.060  0.1418  0.3724 -0.0579
47069SOL    HW152932  10.521   7.781   7.059  0.0853  0.5831 -0.5523
47069SOL    HW252933  10.650   7.773   6.978  0.0376  1.8816 -0.7714
47070SOL     OW52934   7.358  13.502   3.010  0.7303  0.3032 -0.5542
47070SOL    HW152935   7.356  13.406   3.011 -1.4717  0.2826  0.4084
47070SOL    HW252936   7.439  13.525   3.056  1.7394 -1.0606 -1.5724
47071SOL     OW52937   2.855   7.369  10.887 -0.0805 -0.0976  0.0626
47071SOL    HW152938   2.920   7.301  10.905  1.7378  1.4039 -0.4516
47071SOL    HW252939   2.839   7.363  10.793 -0.8885 -0.6158  0.2271
47072SOL     OW52940   5.814   5.842   8.362  0.2143  0.2991  0.1885
47072SOL    HW152941   5.811   5.877   8.273 -0.6867 -0.9900 -0.3082
47072SOL    HW252942   5.728   5.861   8.399 -0.5006 -1.7785 -0.2776
47073SOL     OW52943  10.244   0.114   6.925 -0.0831  0.2277  0.3180
47073SOL    HW152944  10.215   0.125   7.015  1.9859  2.0860  0.8569
47073SOL    HW252945  10.290   0.195   6.904 -0.1436 -0.3039 -2.3010
47074SOL     OW52946   5.352   1.407  12.652 -0.4279  0.0416  0.2410
47074SOL    HW152947   5.393   1.471  12.593  0.4701 -0.8050 -0.0917
47074SOL    HW252948   5.424   1.377  12.708 -0.8861 -0.4820  0.5584
47075SOL     OW52949  12.805  10.282   2.279  0.2033 -0.9902  0.0970
47075SOL    HW152950  12.842  10.234   2.354  1.2440 -0.5360 -0.0981
47075SOL    HW252951  12.862  10.359   2.271  1.1564 -1.8357 -2.1755
47076SOL     OW52952   4.618   9.730   4.543 -0.2458 -0.1625 -0.5445
47076SOL    HW152953   4.566   9.783   4.483  1.7141  1.7666 -0.6653
47076SOL    HW252954   4.670   9.673   4.486  0.3037  0.3957 -0.6095
47077SOL     OW52955  11.328   1.737   4.210  0.1801 -0.1579 -0.5089
47077SOL    HW152956  11.287   1.796   4.148  0.7536  1.3205  0.4717
47077SOL    HW252957  11.418   1.768   4.217  0.5694 -1.3168 -0.1712
47078SOL     OW52958   3.257   3.931   9.863 -0.3228 -0.0991  1.0956
47078SOL    HW152959   3.291   3.848   9.829 -1.8066 -0.3791  0.1937
47078SOL    HW252960   3.239   3.983   9.784 -1.9080  0.0265  1.5064
47079SOL     OW52961   9.640   9.696  11.343  0.4228  0.3979 -0.5505
47079SOL    HW152962   9.631   9.741  11.426  1.6401 -0.1010 -0.1275
47079SOL    HW252963   9.733   9.705  11.320  0.0208  0.9439 -2.0978
47080SOL     OW52964   3.497   6.602  12.218  0.2991 -0.1480 -0.5570
47080SOL    HW152965   3.462   6.659  12.150  1.3202  0.7506 -0.3788
47080SOL    HW252966   3.468   6.514  12.195  2.4139 -0.2213 -3.3908
47081SOL     OW52967   3.272   1.967  11.172  0.1301  0.4243 -0.0861
47081SOL    HW152968   3.229   1.922  11.245  0.1620  2.0508  0.9716
47081SOL    HW252969   3.246   2.058  11.181  4.0420  1.6358  0.9023
47082SOL     OW52970  13.236   5.581   8.578  0.3229  0.0433  0.4996
47082SOL    HW152971  13.205   5.549   8.493  1.2769 -0.4972  0.3434
47082SOL    HW252972  13.159   5.622   8.617 -0.1673  0.1778 -0.5653
47083SOL     OW52973   9.290   0.647   1.758  0.2055  0.0167  0.1943
47083SOL    HW152974   9.240   0.565   1.765  1.1125 -0.6367 -0.6238
47083SOL    HW252975   9.287   0.669   1.665  1.4235 -0.0480  0.1167
47084SOL     OW52976   1.641   4.335   9.127 -0.3400  0.9092 -0.3364
47084SOL    HW152977   1.570   4.395   9.148 -1.1186  0.4689 -1.6105
47084SOL    HW252978   1.625   4.258   9.183 -0.0083  1.3873  0.4376
47085SOL     OW52979  11.250   1.160   3.782  0.0600 -0.3209  0.1944
47085SOL    HW152980  11.241   1.238   3.837  0.3605  0.1702 -0.4329
47085SOL    HW252981  11.287   1.094   3.840 -0.1482  0.0213  0.7240
47086SOL     OW52982   6.378   5.675   8.260 -0.0295 -0.2095  0.1123
47086SOL    HW152983   6.385   5.760   8.303  0.4250  1.3296 -2.7364
47086SOL    HW252984   6.287   5.672   8.230  0.8740  1.2806 -3.2863
47087SOL     OW52985   7.464   2.412   9.741 -0.3757 -0.3024  0.2201
47087SOL    HW152986   7.395   2.416   9.807 -1.0143  0.5427 -0.4850
47087SOL    HW252987   7.493   2.502   9.730  2.1267 -0.7981  1.7985
47088SOL     OW52988   1.085   9.213  13.375  0.2537  0.2425 -0.4579
47088SOL    HW152989   1.109   9.127  13.407 -0.0161  1.2005  2.6043
47088SOL    HW252990   1.069   9.265  13.454 -4.1783  1.8787 -2.1453
47089SOL     OW52991   0.352   1.051   7.931  0.4350  0.1496 -0.0916
47089SOL    HW152992   0.310   1.135   7.948 -1.6605 -1.0075  0.8075
47089SOL    HW252993   0.382   1.056   7.840 -2.7418  0.6873 -1.2220
47090SOL     OW52994   9.658   3.784   6.442  0.2607 -0.1535  0.2414
47090SOL    HW152995   9.582   3.792   6.500  1.0410 -0.3369  1.3265
47090SOL    HW252996   9.684   3.875   6.424  0.1460 -0.0988  0.3520
47091SOL     OW52997   9.509  13.646  11.905 -0.2840 -0.5059  0.2266
47091SOL    HW152998   9.491  13.568  11.853 -0.2403  1.1044 -2.4279
47091SOL    HW252999   9.579  13.620  11.964 -0.3350 -2.4901 -0.5052
47092SOL     OW53000   8.310  11.673   1.680  0.1752 -0.3516  0.1681
47092SOL    HW153001   8.309  11.769   1.675 -1.3176 -0.3459  0.2367
47092SOL    HW253002   8.402  11.650   1.664  0.7591  1.1265  1.1671
47093SOL     OW53003   2.582  12.541   6.746  0.4597  0.1240 -0.5996
47093SOL    HW153004   2.636  12.507   6.817 -1.5448  0.7404  1.3177
47093SOL    HW253005   2.595  12.478   6.674  2.3144 -0.6879  0.3691
47094SOL     OW53006   4.244   8.931   3.043  0.5606 -0.2039 -0.6319
47094SOL    HW153007   4.303   8.889   3.105  0.4745  1.8722  0.9680
47094SOL    HW253008   4.159   8.890   3.056  0.5513  0.1882  0.6562
47095SOL     OW53009  12.435   4.334   8.558 -0.4251 -0.3670  0.1272
47095SOL    HW153010  12.396   4.258   8.516 -0.5818  0.5034 -1.3796
47095SOL    HW253011  12.360   4.380   8.599 -0.9040  0.7342 -1.8523
47096SOL     OW53012   9.588   0.473   2.146 -0.1793 -0.2269 -0.4414
47096SOL    HW153013   9.659   0.419   2.113 -0.6082 -0.2629 -1.3286
47096SOL    HW253014   9.619   0.563   2.136 -0.1186 -0.2532 -0.4841
47097SOL     OW53015  13.731   1.015   3.806 -0.8397 -0.6891 -0.3152
47097SOL    HW153016  13.811   1.055   3.771  0.0570 -1.1899  1.0672
47097SOL    HW253017  13.699   0.959   3.734 -0.2662 -0.0574 -1.0825
47098SOL     OW53018   6.809  13.562  12.818 -0.2836 -0.1800 -0.0158
47098SOL    HW153019   6.791  13.622  12.745 -1.1981  1.0803  1.2070
47098SOL    HW253020   6.891  13.594  12.856 -0.1277 -0.4639 -0.1115
47099SOL     OW53021   4.750   8.824   8.779 -0.1462  0.2457 -0.0773
47099SOL    HW153022   4.784   8.872   8.854  2.5876  3.1007 -2.8297
47099SOL    HW253023   4.740   8.890   8.710 -0.0215 -2.5244 -3.0245
47100SOL     OW53024   6.026  13.461   0.804 -0.2696 -0.1850 -0.0472
47100SOL    HW153025   6.103  13.416   0.838  0.0508 -1.0523 -1.7945
47100SOL    HW253026   6.024  13.545   0.850  2.3994  0.3594 -0.7613
47101SOL     OW53027   7.015   3.576   1.784 -0.4189 -0.0266  0.4567
47101SOL    HW153028   6.965   3.607   1.709  0.1943 -2.3685 -1.0618
47101SOL    HW253029   6.963   3.504   1.820  0.5631 -0.7247  0.5384
47102SOL     OW53030   7.195  12.511   0.382 -0.8315 -0.0427  0.0721
47102SOL    HW153031   7.163  12.445   0.443  0.6537 -0.2768  0.6122
47102SOL    HW253032   7.134  12.584   0.392 -1.7768 -0.8466  0.3497
47103SOL     OW53033   9.675   7.111   3.708  0.0682 -0.4568 -0.4171
47103SOL    HW153034   9.762   7.072   3.720 -0.3153 -0.8328  1.4353
47103SOL    HW253035   9.691   7.192   3.660  1.3773 -0.7663 -0.5346
47104SOL     OW53036   9.810  11.713  12.190 -0.0710  0.1695  0.3994
47104SOL    HW153037   9.853  11.795  12.166  0.1288 -0.0193  0.0992
47104SOL    HW253038   9.844  11.692  12.277  2.8727 -1.5472 -0.9863
47105SOL     OW53039   2.598  10.777  10.715 -0.0525  0.2464  0.3665
47105SOL    HW153040   2.566  10.688  10.700 -1.3586  1.0135 -1.8304
47105SOL    HW253041   2.553  10.806  10.795 -0.7039 -0.5781  0.3035
47106SOL     OW53042  11.071   0.256   3.147 -0.3754 -0.0413  0.1676
47106SOL    HW153043  11.100   0.192   3.212  0.7335 -1.7040 -1.8805
47106SOL    HW253044  11.151   0.285   3.104 -1.0250  1.5326 -0.0462
47107SOL     OW53045  10.709  10.647  12.192 -0.5471  0.2544 -0.2527
47107SOL    HW153046  10.717  10.721  12.133  2.7895 -1.3079 -2.0088
47107SOL    HW253047  10.732  10.571  12.139  3.3085 -1.2261  3.0027
47108SOL     OW53048   4.608   7.664   6.595 -0.2057  0.4159 -0.3817
47108SOL    HW153049   4.551   7.600   6.551  0.5136  0.0766 -0.8385
47108SOL    HW253050   4.671   7.690   6.528  2.2079 -1.6177  0.9052
47109SOL     OW53051   9.863  10.545   6.320  0.4352 -0.0674 -0.6118
47109SOL    HW153052   9.782  10.581   6.354  0.3689 -0.2603 -0.5605
47109SOL    HW253053   9.891  10.606   6.252 -0.0520 -0.2949 -1.0269
47110SOL     OW53054  13.709   8.719  10.244 -0.3001  0.4911  0.0025
47110SOL    HW153055  13.687   8.790  10.183 -0.2250  1.1596  0.7444
47110SOL    HW253056  13.626   8.696  10.285 -0.3579  0.0130 -0.3749
47111SOL     OW53057   8.398   7.039  13.218 -0.2955 -0.1812  0.7853
47111SOL    HW153058   8.439   7.008  13.137  0.4517  1.2305  0.5955
47111SOL    HW253059   8.313   7.073  13.190 -0.7016 -1.1261  0.8452
47112SOL     OW53060   6.419   4.509   3.156 -0.1287 -0.7354  0.1053
47112SOL    HW153061   6.355   4.438   3.158 -0.9666  0.0112  0.3946
47112SOL    HW253062   6.375   4.581   3.110  0.9294 -0.6019 -0.7476
47113SOL     OW53063   8.030   1.056   8.156  0.0505  0.4694 -0.2407
47113SOL    HW153064   8.007   1.080   8.066 -0.1637 -0.2796 -0.3924
47113SOL    HW253065   8.019   1.137   8.206  0.1046  0.8749 -0.8754
47114SOL     OW53066   7.504   1.993  10.142  0.3068 -0.3665 -0.4975
47114SOL    HW153067   7.549   2.077  10.133 -0.3248  0.2737  1.5799
47114SOL    HW253068   7.557   1.944  10.205 -0.0160 -1.0190 -0.7194
47115SOL     OW53069  13.225   1.891  13.511 -0.4755  0.4754 -0.3838
47115SOL    HW153070  13.210   1.985  13.514 -1.7546  0.2831 -0.0118
47115SOL    HW253071  13.320   1.882  13.507 -0.3215  1.7718 -0.1645
47116SOL     OW53072   3.049  13.116   1.708  0.2669  0.3315  0.0599
47116SOL    HW153073   3.099  13.111   1.626  1.0050 -0.6371  0.5423
47116SOL    HW253074   2.963  13.081   1.685  0.8885 -1.2433 -0.0242
47117SOL     OW53075   6.909   7.324  12.210  0.2282 -0.6941  0.0817
47117SOL    HW153076   6.858   7.260  12.160 -0.6531  0.1810 -0.1679
47117SOL    HW253077   6.896   7.300  12.301 -3.2668  1.2880  0.2926
47118SOL     OW53078   2.621   3.615   2.419 -0.2893 -0.0611 -0.0707
47118SOL    HW153079   2.607   3.621   2.514 -1.2113  1.2499 -0.2611
47118SOL    HW253080   2.689   3.548   2.409 -0.5767 -0.6344  1.4744
47119SOL     OW53081   3.226   1.842  11.731  0.6744 -0.1603  0.3364
47119SOL    HW153082   3.255   1.795  11.652  0.6861  0.4227 -0.0123
47119SOL    HW253083   3.180   1.919  11.697  2.3916  1.1622  0.8723
47120SOL     OW53084  12.188  12.818   4.386 -0.0362  0.0623  0.0867
47120SOL    HW153085  12.129  12.850   4.318  0.5022  0.0150 -0.4027
47120SOL    HW253086  12.149  12.735   4.413 -1.1468  0.8507  0.9985
47121SOL     OW53087   3.832  10.606   3.610  0.3627 -0.3375 -0.5315
47121SOL    HW153088   3.737  10.596   3.613  0.4273 -1.3627 -1.1645
47121SOL    HW253089   3.847  10.700   3.603 -0.6405 -0.2153 -1.2305
47122SOL     OW53090   0.387   8.669   6.158  0.1447  0.1348  0.1210
47122SOL    HW153091   0.423   8.680   6.246 -0.7110  1.3877  0.3390
47122SOL    HW253092   0.460   8.634   6.106  0.1084 -2.5616  1.7442
47123SOL     OW53093   3.457   9.053  12.631 -0.4412  0.3710  0.0537
47123SOL    HW153094   3.548   9.029  12.615 -0.1284  1.5626 -0.0480
47123SOL    HW253095   3.459   9.103  12.713 -1.5419 -2.7287  2.1894
47124SOL     OW53096  13.591   4.699   2.264 -0.2826  0.3100  0.4526
47124SOL    HW153097  13.686   4.694   2.267 -0.1176 -0.3027 -2.4875
47124SOL    HW253098  13.565   4.725   2.352  2.5956  0.7217  1.2705
47125SOL     OW53099  12.306  12.660   4.649 -0.0206 -0.1805 -0.1416
47125SOL    HW153100  12.350  12.690   4.570 -0.4181 -0.0595 -0.3198
47125SOL    HW253101  12.368  12.599   4.689  0.2210 -0.1743 -0.4989
47126SOL     OW53102   8.294  11.666  13.328 -0.0125  0.1117  0.1762
47126SOL    HW153103   8.352  11.741  13.313  1.2024 -0.7363  0.4979
47126SOL    HW253104   8.255  11.683  13.414  1.2530 -0.2267  0.8402
47127SOL     OW53105   6.363   2.042   7.804 -0.6574 -0.2943 -0.2181
47127SOL    HW153106   6.441   2.097   7.816 -2.2886  2.0750  0.1099
47127SOL    HW253107   6.366   1.982   7.879 -0.3556  1.3553  1.1738
47128SOL     OW53108   8.389   0.808  10.215  0.1039 -0.2293 -0.7580
47128SOL    HW153109   8.438   0.792  10.296 -0.1614 -2.3400 -0.9597
47128SOL    HW253110   8.442   0.871  10.167  0.1592  1.2518  1.1334
47129SOL     OW53111   8.301  11.187   4.847 -0.3523 -0.7120  0.2144
47129SOL    HW153112   8.332  11.271   4.813 -0.3741 -0.9475 -0.4097
47129SOL    HW253113   8.346  11.176   4.931  0.7565 -0.7437 -0.3695
47130SOL     OW53114   5.823   1.903   1.353  1.0885  0.1877 -0.4979
47130SOL    HW153115   5.743   1.857   1.326 -0.4083  2.0920  0.4118
47130SOL    HW253116   5.801   1.941   1.438  1.6726  3.6736 -1.7376
47131SOL     OW53117   6.760   0.907   5.470  0.6796 -0.3670 -0.3198
47131SOL    HW153118   6.685   0.953   5.433  1.5348 -0.8301 -2.7920
47131SOL    HW253119   6.744   0.908   5.564 -3.6475 -2.4882 -0.7889
47132SOL     OW53120   2.996  12.050   1.103 -0.1935  0.5355 -0.0382
47132SOL    HW153121   2.911  12.065   1.143 -0.7507 -0.9786 -0.5778
47132SOL    HW253122   3.049  12.010   1.172 -0.2396  0.5308 -0.0058
47133SOL     OW53123   8.540   2.930  12.032 -0.2526  0.6872  0.1120
47133SOL    HW153124   8.631   2.917  12.005  0.2733  1.9916  1.1195
47133SOL    HW253125   8.496   2.962  11.954  0.3885  0.9457 -0.1523
47134SOL     OW53126   8.554  11.306   7.777 -0.0015 -0.0704 -0.2100
47134SOL    HW153127   8.517  11.306   7.865 -0.2427 -1.7200 -0.2866
47134SOL    HW253128   8.479  11.315   7.719  0.2077  1.6418 -0.2691
47135SOL     OW53129   1.932   1.884   3.275  0.0316 -0.2218 -0.2478
47135SOL    HW153130   1.939   1.818   3.205  0.2893  0.5196 -0.9393
47135SOL    HW253131   1.841   1.875   3.306  0.2080 -1.2411  0.0315
47136SOL     OW53132   9.514   1.281   3.155 -0.3284 -0.1268  0.7801
47136SOL    HW153133   9.486   1.200   3.113 -0.0190 -0.5811  1.4327
47136SOL    HW253134   9.590   1.257   3.208  1.7375  1.1855 -1.3941
47137SOL     OW53135   3.424   2.459   1.052 -0.4377 -0.4385 -0.5434
47137SOL    HW153136   3.378   2.543   1.064  2.2828  1.0073  0.6395
47137SOL    HW253137   3.420   2.443   0.958  1.1980  2.5089 -1.2460
47138SOL     OW53138  12.774   4.698  12.413 -0.5444  0.3717 -0.3445
47138SOL    HW153139  12.860   4.736  12.392 -1.2366  1.6666 -0.9880
47138SOL    HW253140  12.758   4.726  12.503  1.1388 -2.7271  1.0667
47139SOL     OW53141   1.254   5.890  13.574  0.0885 -0.1523  1.2183
47139SOL    HW153142   1.329   5.934  13.614  1.4617 -0.9234 -0.3540
47139SOL    HW253143   1.224   5.951  13.506 -1.1265  0.4082  2.2192
47140SOL     OW53144   1.275   8.692   0.751 -0.6485 -0.2368 -0.0280
47140SOL    HW153145   1.309   8.610   0.787 -1.1936  0.1231  1.3682
47140SOL    HW253146   1.286   8.756   0.822 -0.2780  0.9021 -1.0669
47141SOL     OW53147   6.644   8.222   7.059  0.1729  0.5036 -0.3359
47141SOL    HW153148   6.600   8.254   7.137  0.4160 -0.7374  0.3342
47141SOL    HW253149   6.669   8.301   7.011 -1.4718  1.2451 -0.0083
47142SOL     OW53150  12.822   3.909   5.840 -0.0954  0.7092 -0.2461
47142SOL    HW153151  12.758   3.851   5.798  0.4560  0.4231 -0.7079
47142SOL    HW253152  12.793   3.997   5.819 -0.8931  0.6066  0.3791
47143SOL     OW53153   7.967   3.992   7.123 -0.0749  0.4331  0.1217
47143SOL    HW153154   7.886   4.042   7.121  0.7960  1.9243  0.5967
47143SOL    HW253155   7.952   3.926   7.191 -0.4940  1.4315  1.0297
47144SOL     OW53156   4.013   0.068   5.872  0.2016  0.2216  0.8124
47144SOL    HW153157   4.024   0.040   5.963 -1.9180  0.8652  1.3241
47144SOL    HW253158   3.982  -0.009   5.826  1.0539 -0.0433  0.6627
47145SOL     OW53159   8.801   0.529   6.516  0.3351  0.1618 -0.6710
47145SOL    HW153160   8.843   0.552   6.598  0.4318 -0.6481 -0.4814
47145SOL    HW253161   8.807   0.433   6.512 -1.2549  0.0453 -0.7635
47146SOL     OW53162   0.524   3.522   3.608  0.3576  0.1226 -0.0689
47146SOL    HW153163   0.501   3.494   3.520  0.1120  0.2093 -0.0348
47146SOL    HW253164   0.467   3.469   3.665 -2.3344  2.7226 -0.0893
47147SOL     OW53165   8.125   2.892  13.136  0.2680  0.6452 -0.1416
47147SOL    HW153166   8.174   2.839  13.074 -0.2039  1.1730 -0.9838
47147SOL    HW253167   8.149   2.982  13.115  0.0951  0.8328  0.4385
47148SOL     OW53168  11.270   4.219   5.529 -0.0657 -0.5485  0.1528
47148SOL    HW153169  11.252   4.182   5.443 -0.9707  1.1542 -0.4369
47148SOL    HW253170  11.230   4.306   5.527 -0.8636 -0.7765  2.5942
47149SOL     OW53171  11.519   0.908   2.476  0.3465  0.3998  0.3911
47149SOL    HW153172  11.534   0.926   2.569 -2.4562  0.6143  0.8920
47149SOL    HW253173  11.454   0.838   2.475 -1.9216  2.3648 -1.2998
47150SOL     OW53174   1.946  11.260  10.438 -0.1622  0.3947 -0.6769
47150SOL    HW153175   2.040  11.249  10.429 -0.0919  1.7235 -2.0713
47150SOL    HW253176   1.934  11.304  10.522  0.4138 -0.1414 -0.3073
47151SOL     OW53177   0.341  12.095   7.512  0.4149  0.0484 -0.4554
47151SOL    HW153178   0.425  12.071   7.474  0.1062  0.1778 -1.2346
47151SOL    HW253179   0.362  12.166   7.573  1.1284 -1.1706  0.7832
47152SOL     OW53180  12.855   9.638   4.403  0.6449 -0.4855  0.8337
47152SOL    HW153181  12.802   9.561   4.422  1.0384 -0.6978  1.0851
47152SOL    HW253182  12.907   9.652   4.483  0.7505 -0.1072  0.7016
47153SOL     OW53183   3.482   4.122   4.341  0.1076 -0.2726 -0.4555
47153SOL    HW153184   3.552   4.172   4.301  0.2768  0.3481  0.5625
47153SOL    HW253185   3.526   4.055   4.393 -0.0635 -0.1912 -0.2028
47154SOL     OW53186   7.450   5.026   0.290 -0.4976  0.4011 -0.0498
47154SOL    HW153187   7.403   5.052   0.369  0.0802 -0.8305  0.7237
47154SOL    HW253188   7.397   5.061   0.218 -1.0532  1.4964  0.8697
47155SOL     OW53189   8.556   2.135   8.008 -0.0331 -0.4949 -0.3439
47155SOL    HW153190   8.621   2.067   7.993  0.5105  0.1667 -1.0757
47155SOL    HW253191   8.481   2.108   7.955 -0.3769 -1.2427  0.4796
47156SOL     OW53192   3.414   5.239   9.265 -0.8300  0.3165 -0.1364
47156SOL    HW153193   3.348   5.176   9.233  0.7041 -1.7807  0.5814
47156SOL    HW253194   3.463   5.264   9.187 -0.9846  0.0379 -0.3256
47157SOL     OW53195   5.608   9.687   3.899  0.3853 -0.3641 -0.3240
47157SOL    HW153196   5.593   9.648   3.812 -1.5748  1.0994 -0.7212
47157SOL    HW253197   5.526   9.673   3.946  0.0673  2.0262 -0.0331
47158SOL     OW53198   6.350   5.306  12.896 -0.2357  0.0199  0.2002
47158SOL    HW153199   6.305   5.238  12.846 -1.5367  1.3895 -0.5619
47158SOL    HW253200   6.335   5.283  12.987  0.2019 -1.2381 -0.0227
47159SOL     OW53201   6.628   7.160   8.194  0.2167 -0.9261  0.0388
47159SOL    HW153202   6.544   7.129   8.159 -0.0735  1.1114 -1.2487
47159SOL    HW253203   6.681   7.179   8.117  0.2214  1.9996  0.6132
47160SOL     OW53204   3.240   1.152   1.735  0.7455  0.6905 -0.3520
47160SOL    HW153205   3.329   1.178   1.759  1.5350  0.5548 -2.8850
47160SOL    HW253206   3.243   1.138   1.641 -2.0852  1.1232 -0.6128
47161SOL     OW53207   3.455  13.599   2.688 -0.3311  0.2204  0.2864
47161SOL    HW153208   3.419  13.613   2.776 -2.6543 -0.8225 -0.4140
47161SOL    HW253209   3.457  13.504   2.678  1.3567  0.2856 -0.2859
47162SOL     OW53210  10.918   8.200   4.976 -0.2024 -0.6818 -0.1289
47162SOL    HW153211  10.953   8.257   4.907  0.3468 -0.7551  0.0840
47162SOL    HW253212  10.823   8.212   4.971 -0.2063 -1.0577 -1.2186
47163SOL     OW53213  11.289   3.223   2.428  0.0310  0.1326 -0.2919
47163SOL    HW153214  11.207   3.268   2.448 -0.0790  0.0470 -0.5551
47163SOL    HW253215  11.262   3.140   2.388  0.2501  0.2305 -0.6429
47164SOL     OW53216   8.319   1.892  11.864 -0.4939 -0.4456  0.5753
47164SOL    HW153217   8.324   1.824  11.931 -1.6825  0.5208  1.6935
47164SOL    HW253218   8.275   1.965  11.907 -2.0147 -0.0590 -1.4841
47165SOL     OW53219   4.947   9.332   3.549 -0.2670  0.1836  0.2305
47165SOL    HW153220   4.985   9.244   3.539  2.3225  1.0788  1.3507
47165SOL    HW253221   4.913   9.333   3.638 -2.7816 -0.4590 -0.6204
47166SOL     OW53222   2.076   4.933  10.006  0.2827 -0.3572 -0.6594
47166SOL    HW153223   2.045   4.875  10.075 -1.1759  0.9609 -0.1477
47166SOL    HW253224   2.037   4.899   9.926 -1.8593  0.7281 -0.1540
47167SOL     OW53225   0.988   0.542  11.974 -0.0773 -0.2365 -0.0959
47167SOL    HW153226   1.077   0.563  11.948  0.0710 -0.7833 -0.0552
47167SOL    HW253227   0.960   0.616  12.028 -0.5143  1.0875 -2.0525
47168SOL     OW53228  10.568   1.081   9.192 -0.0805  0.0012 -0.1488
47168SOL    HW153229  10.534   1.142   9.257 -0.0232  0.1776 -0.2852
47168SOL    HW253230  10.560   1.127   9.109 -1.3586 -0.7092 -0.4373
47169SOL     OW53231   7.013   1.362  13.594 -0.1694  0.1093 -0.0260
47169SOL    HW153232   7.064   1.363  13.513 -0.2086  0.5297 -0.0466
47169SOL    HW253233   6.977   1.274  13.599 -0.7137  0.2820 -0.8088
47170SOL     OW53234   2.915   6.760  11.408 -1.0854 -0.1094  0.2574
47170SOL    HW153235   2.965   6.680  11.389 -1.3469 -0.4241  0.8765
47170SOL    HW253236   2.859   6.737  11.481 -1.7592  0.4067 -0.0808
47171SOL     OW53237   1.405  12.143   1.255 -0.0069  0.4566 -0.2831
47171SOL    HW153238   1.463  12.088   1.202  1.0608  0.0799  1.2206
47171SOL    HW253239   1.434  12.232   1.239  1.2834  0.2445  0.7584
47172SOL     OW53240   4.932   2.808   1.357 -0.5380  0.8118 -0.2561
47172SOL    HW153241   4.928   2.764   1.272  0.9809  1.7674 -0.8656
47172SOL    HW253242   4.873   2.883   1.348 -0.2536  1.0065 -0.5513
47173SOL     OW53243   8.430   7.836  11.818 -0.1259 -0.4245 -0.4072
47173SOL    HW153244   8.472   7.882  11.891 -2.4576 -0.1789  0.8818
47173SOL    HW253245   8.430   7.899  11.746  0.3820  0.0861  0.0306
47174SOL     OW53246   9.790   0.734  11.230  0.0483  0.1947  0.3317
47174SOL    HW153247   9.784   0.760  11.138  0.2453 -0.3565  0.1633
47174SOL    HW253248   9.767   0.641  11.230  4.3847 -1.0719  0.2004
47175SOL     OW53249  12.131  10.496   5.102  0.4443 -0.0818  0.4552
47175SOL    HW153250  12.056  10.440   5.119  0.8100 -0.0773  2.3729
47175SOL    HW253251  12.199  10.437   5.069 -0.3732 -0.0797 -1.3020
47176SOL     OW53252   3.492   4.665   0.158  0.8078  0.2124 -0.9797
47176SOL    HW153253   3.574   4.622   0.133  1.1160 -0.0701  0.4374
47176SOL    HW253254   3.425   4.597   0.148  0.9971 -0.0319 -0.5979
47177SOL     OW53255   0.198   4.068   2.869 -0.0347 -0.2452 -0.0141
47177SOL    HW153256   0.150   4.073   2.786  0.8836  0.8825 -0.4925
47177SOL    HW253257   0.130   4.078   2.936 -0.6598 -0.1422 -0.6525
47178SOL     OW53258   0.609  10.511  11.362  0.2256  0.0518 -0.0568
47178SOL    HW153259   0.670  10.475  11.427 -0.4851 -0.9336  0.0898
47178SOL    HW253260   0.524  10.509  11.405  0.1719  2.1589  0.0292
47179SOL     OW53261  13.565   4.758   3.310  0.7081  0.0728  0.3132
47179SOL    HW153262  13.577   4.666   3.286 -1.1040 -0.0096 -0.3931
47179SOL    HW253263  13.582   4.760   3.405 -0.4047 -1.2451  0.5826
47180SOL     OW53264   7.164   7.560  12.528 -0.2274 -0.3771 -0.5726
47180SOL    HW153265   7.170   7.523  12.440 -0.7959 -0.1366 -0.7147
47180SOL    HW253266   7.236   7.623  12.532 -1.2531  0.8904 -1.4910
47181SOL     OW53267   9.629  10.377  11.504 -0.3142  0.0465 -0.0042
47181SOL    HW153268   9.554  10.396  11.559 -0.2276 -1.4470  0.6665
47181SOL    HW253269   9.595  10.382  11.415 -1.3949 -1.2135  0.2970
47182SOL     OW53270   2.698  13.330   7.305  0.4529 -0.1753  0.7385
47182SOL    HW153271   2.618  13.320   7.252  0.8328  0.2444  0.0618
47182SOL    HW253272   2.685  13.273   7.380 -1.1190  0.9683  1.3833
47183SOL     OW53273   4.411  13.469   2.067  0.1056 -0.3118  0.2781
47183SOL    HW153274   4.343  13.466   2.134 -0.5669 -1.4034 -0.4211
47183SOL    HW253275   4.366  13.444   1.987  1.1368 -0.0829 -0.3837
47184SOL     OW53276   6.585  12.583   3.390 -0.0858  0.0286 -0.5791
47184SOL    HW153277   6.653  12.648   3.372  0.2861 -0.2548 -0.2358
47184SOL    HW253278   6.592  12.520   3.319 -0.9730  0.7736 -1.3438
47185SOL     OW53279   3.724   4.020  11.949 -0.0082 -0.5904  1.0360
47185SOL    HW153280   3.766   3.951  12.001  0.7305 -0.7285  0.2630
47185SOL    HW253281   3.637   3.984  11.929 -0.7504 -0.1044  3.0494
47186SOL     OW53282   3.547   9.653   0.727 -0.2478  0.7126  0.2817
47186SOL    HW153283   3.461   9.624   0.698 -0.3446  1.0803  0.2001
47186SOL    HW253284   3.608   9.597   0.679 -0.4380  0.4781  0.3089
47187SOL     OW53285   9.589   1.584   9.065  0.0632  0.0397 -0.4533
47187SOL    HW153286   9.627   1.660   9.020  1.0484 -0.5218 -0.5865
47187SOL    HW253287   9.570   1.616   9.154  2.3121 -0.0737  0.1159
47188SOL     OW53288   2.519   9.977  10.020 -0.5065 -0.0362  0.7965
47188SOL    HW153289   2.436   9.995  10.063 -0.0523 -1.1516  2.2255
47188SOL    HW253290   2.498   9.973   9.926 -2.3568 -1.7563  1.2138
47189SOL     OW53291  11.199   0.782   3.750  0.3617 -0.1016  0.0218
47189SOL    HW153292  11.190   0.747   3.838 -1.0416  0.6099  0.1799
47189SOL    HW253293  11.208   0.705   3.694 -0.8584 -0.6459  0.5578
47190SOL     OW53294  11.677  10.549  12.336 -0.1407 -0.0807 -0.1785
47190SOL    HW153295  11.713  10.502  12.260  1.7689  2.1794 -0.7703
47190SOL    HW253296  11.738  10.621  12.351 -2.8722  2.2342  0.6635
47191SOL     OW53297   6.629  11.514   7.915 -0.2419 -0.4470  0.1874
47191SOL    HW153298   6.589  11.599   7.933 -0.6423 -0.5252 -0.2948
47191SOL    HW253299   6.555  11.457   7.894 -0.0026 -0.9831  0.7508
47192SOL     OW53300  10.045   2.835   4.086 -0.1446 -0.0012 -0.7561
47192SOL    HW153301   9.973   2.885   4.125 -0.0516 -0.4003 -0.0536
47192SOL    HW253302  10.011   2.746   4.079  1.0049 -0.7012  1.6529
47193SOL     OW53303   9.187   2.246  11.831  0.3352 -0.2715  0.2242
47193SOL    HW153304   9.204   2.247  11.737  2.3726  0.8590  0.5334
47193SOL    HW253305   9.094   2.225  11.839 -0.0181  0.2002 -2.0504
47194SOL     OW53306   8.323   4.983   0.104  0.0667  0.3383  0.0425
47194SOL    HW153307   8.397   4.938   0.144 -0.3385 -0.8011 -0.4583
47194SOL    HW253308   8.258   4.915   0.090 -0.7147  1.1536 -0.3917
47195SOL     OW53309   5.207  13.410   4.183  0.2845  0.6648  0.3953
47195SOL    HW153310   5.223  13.374   4.270  1.1519 -1.5780 -0.5981
47195SOL    HW253311   5.112  13.409   4.174  0.2137 -2.4729  0.1288
47196SOL     OW53312   3.719   0.514  10.625 -0.2945 -0.3830  0.0122
47196SOL    HW153313   3.736   0.607  10.610 -3.5143  0.2207 -0.5883
47196SOL    HW253314   3.766   0.494  10.706  1.1945  1.5061 -0.3127
47197SOL     OW53315   6.373   8.965   1.439 -0.1515 -0.6364  0.2182
47197SOL    HW153316   6.304   8.907   1.408 -1.4957  0.9956  0.0435
47197SOL    HW253317   6.382   9.031   1.371  3.2834 -2.0378 -0.9152
47198SOL     OW53318   0.083   8.401  10.594  0.2071 -0.1820 -0.0514
47198SOL    HW153319   0.055   8.417  10.685 -2.1224 -0.4958 -0.6396
47198SOL    HW253320   0.105   8.488  10.561  2.0247 -0.1805  1.0574
47199SOL     OW53321   3.160   3.209   4.831 -0.7589  0.1917  0.1781
47199SOL    HW153322   3.181   3.117   4.842 -0.8605  0.1476  0.0163
47199SOL    HW253323   3.138   3.240   4.918 -0.7683  0.0520  0.2251
47200SOL     OW53324   5.591   9.859  13.551 -0.3892  0.2259  0.0944
47200SOL    HW153325   5.528   9.795  13.518 -0.7209  0.8754 -0.5371
47200SOL    HW253326   5.674   9.811  13.553 -0.4131  0.0808 -1.4260
47201SOL     OW53327   8.086  10.726   5.146 -0.0498 -0.0254 -0.2133
47201SOL    HW153328   8.005  10.703   5.191 -0.0366 -0.7239 -0.5450
47201SOL    HW253329   8.060  10.736   5.054  0.1969 -0.0208 -0.2830
47202SOL     OW53330  10.532   6.615   6.964 -0.0768  0.0603 -0.6043
47202SOL    HW153331  10.527   6.674   6.888 -0.9825 -0.6273 -1.0932
47202SOL    HW253332  10.451   6.631   7.012 -0.5338 -1.0685 -0.9661
47203SOL     OW53333   3.958   5.780  10.346  0.5309  0.1987  0.6066
47203SOL    HW153334   4.039   5.829  10.361 -0.5245  1.6765  1.7564
47203SOL    HW253335   3.935   5.744  10.431 -0.3728  0.3689  0.4518
47204SOL     OW53336   3.724   3.104   9.799 -0.3789  0.1418 -0.2011
47204SOL    HW153337   3.713   3.141   9.887 -0.5579 -0.1815 -0.0866
47204SOL    HW253338   3.634   3.099   9.765 -0.2571  0.9176 -0.6727
47205SOL     OW53339   8.476   9.925   2.669  0.2951 -0.1304  0.5433
47205SOL    HW153340   8.395   9.974   2.651  0.0551 -0.7384 -0.0884
47205SOL    HW253341   8.458   9.837   2.636  1.3820 -0.1603 -0.0054
47206SOL     OW53342   9.723   5.691   0.836 -0.0086 -0.3256 -0.5665
47206SOL    HW153343   9.629   5.694   0.821 -0.0735 -0.2324 -0.1490
47206SOL    HW253344   9.747   5.781   0.859 -0.3138 -0.8670  2.1929
47207SOL     OW53345   1.864   4.632   9.662  0.2607 -0.3354 -0.5557
47207SOL    HW153346   1.863   4.536   9.673 -0.7720 -0.0764  2.6818
47207SOL    HW253347   1.881   4.645   9.569 -0.7435 -3.6897 -1.3633
47208SOL     OW53348   1.994   0.866  12.076 -0.4194 -0.6486  0.1282
47208SOL    HW153349   1.952   0.790  12.118  0.3746 -1.2400 -0.1173
47208SOL    HW253350   1.968   0.940  12.130 -1.0491 -1.1219  0.4988
47209SOL     OW53351   5.058  11.430  12.433 -0.6842  0.0880  0.0567
47209SOL    HW153352   5.026  11.477  12.510 -0.8940 -0.6329  0.4237
47209SOL    HW253353   4.990  11.365  12.415  0.7606 -1.8362  1.1763
47210SOL     OW53354   1.570   3.419   3.249  0.1714 -0.6552 -0.4358
47210SOL    HW153355   1.521   3.458   3.321 -1.0076 -1.1881 -0.9082
47210SOL    HW253356   1.653   3.466   3.247 -0.7851  1.0970 -0.3382
47211SOL     OW53357   5.417   5.024   7.882  0.0994 -0.2676  0.3804
47211SOL    HW153358   5.338   5.060   7.922 -1.0795 -2.6576  0.3774
47211SOL    HW253359   5.485   5.088   7.900 -1.8189  1.8776  0.3907
47212SOL     OW53360  11.788  13.133   0.890 -0.1342  0.3122  0.1996
47212SOL    HW153361  11.727  13.193   0.848 -0.8247 -0.0192  0.6972
47212SOL    HW253362  11.867  13.184   0.904 -0.3818  0.8222 -0.2359
47213SOL     OW53363  10.385   1.961   3.954  1.2244 -0.0454 -0.0814
47213SOL    HW153364  10.353   1.942   4.043  2.3810 -0.9102  0.1675
47213SOL    HW253365  10.315   1.929   3.897  0.9109 -0.4116  0.4917
47214SOL     OW53366   5.011   9.515   3.874 -0.1122 -0.0267 -0.3126
47214SOL    HW153367   5.059   9.450   3.925 -1.9257 -3.0697 -2.1820
47214SOL    HW253368   4.928   9.525   3.921 -0.9213 -1.2358 -1.3802
47215SOL     OW53369  10.366   0.003   7.352  0.4380 -0.1420  0.0228
47215SOL    HW153370  10.423   0.054   7.409 -1.9449  1.1736  1.3917
47215SOL    HW253371  10.339  -0.072   7.406 -1.7767  1.0755  0.7450
47216SOL     OW53372  10.543   8.339  11.332 -0.4328  0.0926 -0.4072
47216SOL    HW153373  10.556   8.429  11.302 -1.1748 -0.2840 -1.9686
47216SOL    HW253374  10.621   8.292  11.303 -0.0538  0.2165  0.3924
47217SOL     OW53375   0.186   0.929  10.157  0.2272  0.0788 -0.1644
47217SOL    HW153376   0.103   0.888  10.180  0.5137 -0.7937 -0.6346
47217SOL    HW253377   0.249   0.893  10.220  0.1307  1.3293  0.7013
47218SOL     OW53378  10.876   8.763  11.313 -0.1879 -1.1420  0.4403
47218SOL    HW153379  10.925   8.827  11.261 -0.9045 -2.1125 -1.5669
47218SOL    HW253380  10.803   8.812  11.349 -1.7449 -1.0569 -2.5418
47219SOL     OW53381   6.713  13.661  10.621 -0.4293  0.1060 -0.3181
47219SOL    HW153382   6.716  13.705  10.706  0.0244  0.2586 -0.4118
47219SOL    HW253383   6.690  13.730  10.559  0.7072  0.3147 -0.5271
47220SOL     OW53384   7.392   7.514  10.832  0.6782  0.4817 -0.4531
47220SOL    HW153385   7.423   7.423  10.831  0.6534  0.3856  1.9349
47220SOL    HW253386   7.373   7.531  10.924 -2.6991  1.7896 -1.2730
47221SOL     OW53387   3.643  12.768   0.292 -0.0635  0.4095  0.0770
47221SOL    HW153388   3.735  12.775   0.319  0.1714 -1.0390 -0.2358
47221SOL    HW253389   3.640  12.688   0.239 -1.1621  1.4055 -1.4351
47222SOL     OW53390  10.229   9.278   7.820 -0.6212 -0.1282 -0.1396
47222SOL    HW153391  10.202   9.355   7.771 -1.7009 -0.1410  0.4209
47222SOL    HW253392  10.322   9.292   7.839 -0.5599  0.5467 -0.9213
47223SOL     OW53393   6.515   1.550  10.846  0.0058  0.5077  0.2472
47223SOL    HW153394   6.541   1.639  10.871  1.4366 -0.1887  1.3594
47223SOL    HW253395   6.423   1.544  10.875  0.0921  1.4034  0.7518
47224SOL     OW53396   9.108   1.133   7.811 -0.2518 -0.0650  0.3099
47224SOL    HW153397   9.167   1.147   7.736  1.5322 -0.1560  1.6152
47224SOL    HW253398   9.135   1.200   7.874 -1.0015 -0.6765  1.2890
47225SOL     OW53399   0.563   6.424  11.331 -0.0462 -0.4939 -0.5827
47225SOL    HW153400   0.571   6.497  11.392 -0.9737 -0.7220 -0.1581
47225SOL    HW253401   0.585   6.460  11.245  0.2517  0.0894 -0.2590
47226SOL     OW53402   2.590   0.228   7.270 -0.0781 -0.3542 -0.2854
47226SOL    HW153403   2.595   0.150   7.215 -0.5069 -1.2712  0.9561
47226SOL    HW253404   2.649   0.291   7.227  2.3085 -2.1958  0.0861
47227SOL     OW53405   7.492   5.847  10.207  0.0859  0.3337 -0.0025
47227SOL    HW153406   7.556   5.918  10.214  0.2264  0.3244 -0.9952
47227SOL    HW253407   7.455   5.857  10.119 -1.5052  0.5139  0.6565
47228SOL     OW53408   8.590   6.463  13.226 -0.3821 -0.2449 -0.3574
47228SOL    HW153409   8.684   6.465  13.204 -0.1180 -0.7382  0.6756
47228SOL    HW253410   8.566   6.555  13.234  0.2136 -0.1222  0.1468
47229SOL     OW53411   7.910   9.214   8.272 -0.2213  0.0138 -0.5895
47229SOL    HW153412   7.846   9.185   8.207 -2.2768  0.3655  1.1557
47229SOL    HW253413   7.918   9.140   8.332 -2.0677  1.2757  1.3739
47230SOL     OW53414  10.080   1.301   3.506  0.1801 -0.5863  0.0354
47230SOL    HW153415  10.061   1.301   3.413 -1.0110  1.4672  0.2313
47230SOL    HW253416  10.014   1.243   3.545 -1.6143  1.2837 -0.0570
47231SOL     OW53417   0.600   7.465   3.186  0.1073  0.1835 -0.3694
47231SOL    HW153418   0.656   7.460   3.108 -1.0137  1.1280 -1.2657
47231SOL    HW253419   0.565   7.376   3.195  0.8248 -0.1235 -0.4816
47232SOL     OW53420   3.037   1.014   0.113 -0.4637  0.3149 -0.2578
47232SOL    HW153421   3.010   0.933   0.157  0.3694  1.2184  2.0796
47232SOL    HW253422   3.131   1.021   0.130  0.0957  0.3655 -2.9295
47233SOL     OW53423   2.648   3.668   9.937  0.7826  0.1486 -0.1098
47233SOL    HW153424   2.584   3.639   9.871  1.6055  0.1842 -0.9473
47233SOL    HW253425   2.621   3.757   9.958  1.1472  0.5546 -1.2564
47234SOL     OW53426   0.853   4.844   7.907  0.1116 -0.1530 -0.3983
47234SOL    HW153427   0.885   4.815   7.821  1.3392  0.4078 -0.1567
47234SOL    HW253428   0.916   4.807   7.969  1.6668  2.7637 -0.0678
47235SOL     OW53429   6.307  12.650  11.438  0.8163 -0.0577 -1.3026
47235SOL    HW153430   6.321  12.731  11.390 -0.3939  0.9408 -0.0552
47235SOL    HW253431   6.281  12.586  11.371 -0.0196  1.0724 -2.0897
47236SOL     OW53432  10.936  10.019   4.557  0.4163 -0.0113  0.0145
47236SOL    HW153433  10.934  10.076   4.480  2.0595 -1.8736 -1.5145
47236SOL    HW253434  10.844  10.000   4.575 -0.0282  0.9489 -1.0925
47237SOL     OW53435  13.739   9.272   8.575 -0.0416 -0.1753 -0.8193
47237SOL    HW153436  13.782   9.242   8.655 -0.6986  0.6689 -0.1282
47237SOL    HW253437  13.669   9.208   8.560 -0.8464  0.4658  0.1185
47238SOL     OW53438   7.677  10.480   9.664  0.0536  0.1998 -0.3863
47238SOL    HW153439   7.649  10.455   9.752  1.3700  0.5833  0.1661
47238SOL    HW253440   7.758  10.528   9.678  0.7833 -0.5398 -1.8871
47239SOL     OW53441   5.252   9.847   0.968  0.3951  0.3129  0.0007
47239SOL    HW153442   5.312   9.889   1.029  0.0950  1.2645 -0.3351
47239SOL    HW253443   5.274   9.754   0.972  1.8766  0.6318 -0.1030
47240SOL     OW53444   1.806  10.234   2.811 -0.2031 -0.2631 -0.1767
47240SOL    HW153445   1.729  10.227   2.755 -2.0119  1.1048  1.9465
47240SOL    HW253446   1.827  10.144   2.837 -0.5437 -0.7180 -1.4371
47241SOL     OW53447   6.136   5.020   9.969 -0.1766 -0.5677 -0.5611
47241SOL    HW153448   6.087   5.008   9.887  1.6955 -2.6746 -1.4889
47241SOL    HW253449   6.200   4.949   9.969  1.0713  0.4349  1.9143
47242SOL     OW53450   7.814  13.617   9.239  0.2629  0.3170 -0.2830
47242SOL    HW153451   7.766  13.619   9.322  0.7257 -0.4605  0.0199
47242SOL    HW253452   7.791  13.699   9.196 -1.3565 -0.0393 -0.1730
47243SOL     OW53453   6.432   1.007  10.269 -0.5698 -0.6125  0.2001
47243SOL    HW153454   6.390   0.929  10.305 -2.2899  0.6865  1.1896
47243SOL    HW253455   6.477   1.046  10.344 -2.3403  0.9442  0.5510
47244SOL     OW53456  11.876  11.753   2.791 -0.0946 -0.1993 -0.2265
47244SOL    HW153457  11.966  11.742   2.824  0.1027  0.2138 -0.6177
47244SOL    HW253458  11.826  11.782   2.867  0.1237 -0.3327 -0.0292
47245SOL     OW53459   0.169   6.173  12.153  0.4034  0.3372  0.4703
47245SOL    HW153460   0.089   6.189  12.103  1.7008 -0.6157 -2.0791
47245SOL    HW253461   0.239   6.212  12.101  1.8495 -0.6990  1.5423
47246SOL     OW53462   6.824   1.071  12.972 -0.1613 -0.3899 -0.1998
47246SOL    HW153463   6.861   1.149  12.930  0.3128 -0.3186  0.3330
47246SOL    HW253464   6.800   1.100  13.059 -2.2745 -0.2315 -0.7937
47247SOL     OW53465   6.371   2.065  10.485  0.6955  0.4396 -0.1208
47247SOL    HW153466   6.280   2.042  10.471  0.9136  0.0485 -0.9116
47247SOL    HW253467   6.389   2.134  10.421  0.1694  2.6080  1.9234
47248SOL     OW53468   2.524   9.785   9.172 -0.3789 -0.2929 -0.4804
47248SOL    HW153469   2.534   9.856   9.109 -1.1876  0.1410 -0.1250
47248SOL    HW253470   2.457   9.728   9.135 -2.0194  0.7824  0.6757
47249SOL     OW53471   3.713   3.043   9.340  0.1371 -0.5597 -0.3964
47249SOL    HW153472   3.791   3.096   9.353  0.3990 -0.8465 -0.7926
47249SOL    HW253473   3.644   3.091   9.386  1.1256 -1.8740  2.7486
47250SOL     OW53474   7.306   9.029   5.811 -0.3090  0.4161  0.4540
47250SOL    HW153475   7.295   9.116   5.771 -0.5757  0.6841  1.1126
47250SOL    HW253476   7.366   8.984   5.751  1.4898  1.7565  1.1440
47251SOL     OW53477   3.026   5.420   7.101  0.1324 -0.2374  0.1612
47251SOL    HW153478   2.932   5.435   7.091  0.1384  0.4867  0.9593
47251SOL    HW253479   3.055   5.388   7.016 -1.0586 -1.7534  0.2859
47252SOL     OW53480   2.408   4.485   6.345 -0.0404  0.6731 -0.2764
47252SOL    HW153481   2.418   4.492   6.440  1.2319  0.6529 -0.3882
47252SOL    HW253482   2.465   4.412   6.320  0.2783  1.1950 -1.1346
47253SOL     OW53483   7.685   3.166   7.504  0.5399 -0.1587 -0.1119
47253SOL    HW153484   7.653   3.253   7.528  0.0462  0.0722 -1.5136
47253SOL    HW253485   7.656   3.109   7.575 -1.7263  0.3165 -0.5853
47254SOL     OW53486   7.338   0.469  12.495 -0.3341 -0.3447  0.0387
47254SOL    HW153487   7.422   0.442  12.534  0.3358  2.6449  0.9974
47254SOL    HW253488   7.360   0.496  12.406 -0.4926 -0.6376 -0.0882
47255SOL     OW53489   6.690  11.486   9.516  0.3426 -0.3355 -0.5597
47255SOL    HW153490   6.687  11.421   9.446 -0.1510 -0.6107 -0.2947
47255SOL    HW253491   6.759  11.547   9.491 -0.8768  0.4819 -2.1013
47256SOL     OW53492   4.275   0.139  12.315 -0.3689  0.3633 -0.0539
47256SOL    HW153493   4.240   0.213  12.364 -0.7754 -0.5855  1.1565
47256SOL    HW253494   4.311   0.177  12.235 -2.9021  1.5736 -0.7240
47257SOL     OW53495   7.406   1.853   4.765  0.1949  0.0119 -0.1171
47257SOL    HW153496   7.431   1.815   4.681  0.5148  0.6390 -0.3118
47257SOL    HW253497   7.489   1.876   4.807  0.0210  0.1691  0.1477
47258SOL     OW53498   0.349   9.529   7.168 -0.2066  0.2955  0.4338
47258SOL    HW153499   0.347   9.576   7.251 -1.3173  0.0180  0.5873
47258SOL    HW253500   0.384   9.443   7.189 -1.0549  0.0167  0.7439
47259SOL     OW53501   2.876   5.556   6.763  0.0209 -0.1771  0.1443
47259SOL    HW153502   2.784   5.538   6.782  0.4222 -1.6831  0.7924
47259SOL    HW253503   2.907   5.605   6.840 -0.2893  0.5848 -0.2028
47260SOL     OW53504   1.508   2.046   4.831 -0.0093 -1.0489  0.2950
47260SOL    HW153505   1.570   2.012   4.766 -0.3728  2.4589 -2.2444
47260SOL    HW253506   1.560   2.056   4.911  1.7179 -1.5857 -0.7021
47261SOL     OW53507   7.011  13.200   3.333 -0.0066  0.2355 -0.2688
47261SOL    HW153508   7.099  13.211   3.370  0.2498  1.4971 -1.1938
47261SOL    HW253509   7.017  13.123   3.278  1.1058  1.4204 -1.8979
47262SOL     OW53510  10.010   2.548  12.563  0.4568  0.0650 -0.4209
47262SOL    HW153511   9.927   2.509  12.535  0.5055 -1.1974  1.0220
47262SOL    HW253512  10.071   2.475  12.568  1.2324  0.7187  0.0515
47263SOL     OW53513   4.121   2.726   2.988  0.1108  0.0625  0.3211
47263SOL    HW153514   4.153   2.804   2.944 -2.0937  1.4186  1.0002
47263SOL    HW253515   4.034   2.711   2.952 -0.6576 -0.3868  2.2205
47264SOL     OW53516   5.252   5.675  12.916 -0.2784 -0.1381  0.0749
47264SOL    HW153517   5.162   5.642  12.915 -0.6520  0.8746 -0.2755
47264SOL    HW253518   5.266   5.704  13.007 -0.8967  1.2557 -0.2508
47265SOL     OW53519   7.153   6.475  12.535 -0.1786  0.0094 -0.3571
47265SOL    HW153520   7.166   6.502  12.626  0.9003  2.4608 -1.1522
47265SOL    HW253521   7.222   6.411  12.519  0.5855  0.6794  0.1507
47266SOL     OW53522   5.699   2.263   1.028 -0.1319 -0.8314 -0.0851
47266SOL    HW153523   5.674   2.280   1.119 -0.1854 -1.3682  0.0037
47266SOL    HW253524   5.793   2.281   1.026  0.1033 -1.9496  0.3639
47267SOL     OW53525   8.630  10.304   0.283 -0.2375  0.1645  0.0773
47267SOL    HW153526   8.678  10.358   0.345 -0.7745 -0.1619  0.7928
47267SOL    HW253527   8.623  10.218   0.326 -0.3474 -0.1584 -0.5638
47268SOL     OW53528   6.251   4.289   3.139  0.1689  0.3625 -0.0422
47268SOL    HW153529   6.254   4.257   3.048  1.0245  2.8308 -0.9695
47268SOL    HW253530   6.171   4.342   3.142  0.2998  0.5295  0.5586
47269SOL     OW53531   0.909   9.855   7.925  0.0988  0.5964  0.2436
47269SOL    HW153532   0.872   9.887   7.843  2.0151  0.8453 -0.5975
47269SOL    HW253533   0.857   9.778   7.947 -1.2332  1.2432 -0.5267
47270SOL     OW53534   2.047   3.984  11.131  0.1184 -0.7293  0.3153
47270SOL    HW153535   1.985   4.028  11.072 -0.1035  0.5061  1.4371
47270SOL    HW253536   1.993   3.922  11.180  0.4781 -2.5755 -1.4714
47271SOL     OW53537   5.206   2.782   9.928 -0.2299  0.4888 -0.0586
47271SOL    HW153538   5.158   2.704   9.957 -1.4805  0.5502 -1.7726
47271SOL    HW253539   5.141   2.852   9.931 -0.0431  0.7612 -1.6119
47272SOL     OW53540   9.552  11.769   5.348  0.0912  0.1142 -0.5422
47272SOL    HW153541   9.539  11.829   5.422 -0.4979 -0.8630  0.1847
47272SOL    HW253542   9.633  11.723   5.369 -0.9861 -1.4444  0.4695
47273SOL     OW53543   2.069  12.357   3.064  0.4996  0.9490 -0.1390
47273SOL    HW153544   2.013  12.430   3.090  0.7816  0.9221  0.5585
47273SOL    HW253545   2.025  12.279   3.098  0.3046  0.8010 -0.7072
47274SOL     OW53546   6.430   9.691   6.504 -0.1038 -0.5009  0.0789
47274SOL    HW153547   6.406   9.744   6.580  0.8524 -0.5131  0.3928
47274SOL    HW253548   6.359   9.706   6.442  0.4287  1.6339 -0.0854
47275SOL     OW53549  13.120   7.025   3.303 -0.3124 -0.4209 -0.2672
47275SOL    HW153550  13.155   6.950   3.253  0.7349 -0.1125 -0.0226
47275SOL    HW253551  13.148   7.101   3.252  2.6052  0.0366  1.7633
47276SOL     OW53552   8.096   3.401   7.165 -0.5641  0.4450 -0.2861
47276SOL    HW153553   8.133   3.480   7.126  0.8233 -0.1104 -0.1288
47276SOL    HW253554   8.169   3.360   7.212 -1.1413 -1.1420 -0.6922
47277SOL     OW53555   6.376  10.665   6.608 -0.6467  0.3550 -0.2220
47277SOL    HW153556   6.360  10.737   6.670  0.0782 -0.5019  1.0003
47277SOL    HW253557   6.312  10.680   6.538  0.4187  3.0089 -0.7658
47278SOL     OW53558   4.698  12.224   1.222  0.3350  0.2731 -0.0219
47278SOL    HW153559   4.662  12.202   1.135 -0.6719  1.3904  0.0777
47278SOL    HW253560   4.719  12.140   1.261 -1.5084 -0.4162 -0.4092
47279SOL     OW53561   0.473   5.685   9.784 -0.3299 -0.3050  0.0179
47279SOL    HW153562   0.478   5.591   9.805 -0.8537 -0.6201 -1.1479
47279SOL    HW253563   0.564   5.711   9.769 -0.3230 -1.2681 -2.1056
47280SOL     OW53564  10.534   9.749  10.206  0.1015  0.0098 -0.1412
47280SOL    HW153565  10.521   9.775  10.115 -1.0983 -2.2304 -0.6987
47280SOL    HW253566  10.517   9.828  10.257 -2.2829  0.5863 -1.7000
47281SOL     OW53567   1.544   7.055   0.224  0.2865 -0.0040 -0.6214
47281SOL    HW153568   1.545   6.964   0.192 -0.1516 -0.3174  0.2329
47281SOL    HW253569   1.494   7.102   0.158 -1.3823 -0.8152  0.0185
47282SOL     OW53570   4.504   8.037   6.015  0.0057  0.0106  0.4409
47282SOL    HW153571   4.460   8.070   5.937  0.8079  1.4116  0.5465
47282SOL    HW253572   4.522   8.115   6.067  2.7707 -0.4286  0.2938
47283SOL     OW53573   5.508   5.673   9.521 -0.1379  0.1140  0.4104
47283SOL    HW153574   5.554   5.688   9.439  0.8832 -0.2291  0.9032
47283SOL    HW253575   5.554   5.727   9.585 -0.9314  0.3945  0.7652
47284SOL     OW53576   8.616   1.899  12.725  0.3802 -0.3263 -0.5078
47284SOL    HW153577   8.531   1.915  12.765  0.4483  0.1591 -0.5607
47284SOL    HW253578   8.649   1.822  12.772  1.2870  1.3114  1.7075
47285SOL     OW53579   9.518   1.595   9.317  0.6547  0.2609  0.0489
47285SOL    HW153580   9.568   1.526   9.358  0.7204  0.6223  0.5865
47285SOL    HW253581   9.506   1.661   9.385  2.5857  1.8619 -1.0521
47286SOL     OW53582   5.644   9.300  10.563  0.0275  0.3413  0.1216
47286SOL    HW153583   5.699   9.356  10.617 -0.1042  0.6937 -0.1084
47286SOL    HW253584   5.663   9.211  10.594  2.4946  0.1962 -1.5010
47287SOL     OW53585   7.476   8.524  10.840 -0.1807 -0.2356  0.1013
47287SOL    HW153586   7.538   8.556  10.774 -0.3002 -0.8513 -0.3116
47287SOL    HW253587   7.531   8.483  10.907  0.0144  1.1550  0.8554
47288SOL     OW53588   2.755  12.701   4.349 -0.6028  0.0620 -0.1144
47288SOL    HW153589   2.836  12.693   4.399  0.9127 -2.1383 -2.6587
47288SOL    HW253590   2.688  12.662   4.406  0.7098 -0.9190  0.8266
47289SOL     OW53591   9.717  11.854   8.099 -0.0988 -0.2401 -0.1611
47289SOL    HW153592   9.639  11.860   8.153  1.2098 -0.5078  1.8602
47289SOL    HW253593   9.778  11.802   8.150  0.8712 -1.4334 -2.3883
47290SOL     OW53594  11.496   7.588  13.611  0.7297 -0.6748 -0.1761
47290SOL    HW153595  11.425   7.638  13.570  1.6752  1.2420  0.3997
47290SOL    HW253596  11.575   7.625  13.572  1.5858  0.0704  2.1111
47291SOL     OW53597   6.175   1.883   2.015 -0.3532  0.0240  0.5354
47291SOL    HW153598   6.139   1.889   1.927  1.8924  0.3082 -0.4372
47291SOL    HW253599   6.208   1.971   2.033  2.1012 -0.7818  0.2885
47292SOL     OW53600   6.581  11.274   4.987 -0.4125 -0.7275 -0.3828
47292SOL    HW153601   6.618  11.231   5.064 -1.3071  0.5988  0.8639
47292SOL    HW253602   6.543  11.203   4.935  0.3848 -1.6777  0.2942
47293SOL     OW53603   6.281   5.440  10.701  0.0996  0.2876  0.5895
47293SOL    HW153604   6.249   5.511  10.647  0.4641 -0.0182 -0.0344
47293SOL    HW253605   6.215   5.371  10.694  0.8831 -0.3602 -0.7335
47294SOL     OW53606   7.766   6.121  13.278  0.0708 -0.5743 -0.2159
47294SOL    HW153607   7.751   6.191  13.341 -1.0993  0.6167 -1.7305
47294SOL    HW253608   7.861   6.109  13.279  0.5019  2.0207 -0.8578
47295SOL     OW53609  10.331   7.576   7.481  0.1855 -0.2232  0.2612
47295SOL    HW153610  10.336   7.657   7.431 -0.5972  0.2567  0.9262
47295SOL    HW253611  10.255   7.588   7.540  1.5141 -0.4406  2.1178
47296SOL     OW53612   5.907  12.094  11.616 -0.7483  0.2157  0.1686
47296SOL    HW153613   5.965  12.117  11.543  1.8674 -3.5323  0.8121
47296SOL    HW253614   5.951  12.128  11.694 -0.8131 -0.3089  0.4369
47297SOL     OW53615   3.079   6.694   0.250 -0.2765 -0.1887  0.0297
47297SOL    HW153616   3.077   6.786   0.276 -2.5791  0.6619 -2.6910
47297SOL    HW253617   3.172   6.671   0.252  0.4009  2.2539  0.5531
47298SOL     OW53618  10.194   4.972   4.439  0.1312  0.5022  0.5550
47298SOL    HW153619  10.221   4.952   4.349 -0.8754 -0.3084  0.4146
47298SOL    HW253620  10.225   5.061   4.454 -0.6537  1.0766 -1.0003
47299SOL     OW53621  12.549   1.020   1.790  0.3022  0.0483  0.5217
47299SOL    HW153622  12.470   0.994   1.837  1.4065  1.4116  3.3664
47299SOL    HW253623  12.549   1.116   1.793  1.2732  0.1306 -0.8819
47300SOL     OW53624  12.878   9.932   3.844 -0.5966  0.1112  0.0900
47300SOL    HW153625  12.889   9.883   3.762  2.0654 -1.9153  1.5128
47300SOL    HW253626  12.949   9.996   3.843  0.0318 -0.5480  1.1867
47301SOL     OW53627   6.368   2.371  11.002 -0.4655 -0.4738 -0.0287
47301SOL    HW153628   6.321   2.303  10.953 -0.0060 -0.7267 -0.1233
47301SOL    HW253629   6.436   2.324  11.050  0.5037  0.0202 -0.8792
47302SOL     OW53630   3.199  11.888   4.255  0.3939 -0.4592 -0.4576
47302SOL    HW153631   3.179  11.939   4.333 -0.4723 -2.2476  0.5640
47302SOL    HW253632   3.187  11.949   4.182 -1.7074  0.5414  0.6244
47303SOL     OW53633   9.090   2.753   5.593 -0.4165 -0.4429  0.3183
47303SOL    HW153634   9.065   2.744   5.685 -1.5906 -2.3988 -0.1216
47303SOL    HW253635   9.182   2.778   5.596 -0.3674 -0.6715  2.0331
47304SOL     OW53636  12.093   8.783   8.270  0.8733 -0.0500  0.1421
47304SOL    HW153637  12.165   8.836   8.305 -0.8966  2.0701  0.7722
47304SOL    HW253638  12.029   8.779   8.341  0.2421 -1.7558 -0.4568
47305SOL     OW53639   0.452   7.703   7.854 -0.1985 -0.3607 -0.1717
47305SOL    HW153640   0.447   7.641   7.781  0.1884 -0.4784 -0.0991
47305SOL    HW253641   0.503   7.776   7.821 -0.8717  0.0428 -0.3401
47306SOL     OW53642  10.390   9.441   6.228 -0.0366  0.2034  0.3113
47306SOL    HW153643  10.464   9.415   6.284 -0.4036  1.1861  1.3057
47306SOL    HW253644  10.427   9.448   6.140  0.8153 -0.3162  0.6192
47307SOL     OW53645   7.254   6.037   1.512  0.0346 -0.8870  0.1213
47307SOL    HW153646   7.202   6.104   1.556  1.0838  0.4147 -0.5729
47307SOL    HW253647   7.189   5.986   1.463 -0.8986 -1.0687  1.4627
47308SOL     OW53648   3.439  12.532  11.208 -0.3664  0.4883  0.0809
47308SOL    HW153649   3.367  12.587  11.176 -0.5996 -0.5950 -1.3674
47308SOL    HW253650   3.398  12.472  11.270 -1.6605 -2.6038 -3.3698
47309SOL     OW53651   5.503   3.113   0.946  0.3282  0.3127 -0.0875
47309SOL    HW153652   5.488   3.117   0.852  1.0336 -1.7233 -0.3260
47309SOL    HW253653   5.540   3.026   0.961 -1.3846 -0.1088  2.2900
47310SOL     OW53654   6.684   1.443   5.834  0.1331 -0.1175  0.6167
47310SOL    HW153655   6.765   1.392   5.843  0.0391 -0.5791 -0.9242
47310SOL    HW253656   6.634   1.421   5.913 -0.2198 -3.0731 -0.3052
47311SOL     OW53657   0.493   0.340   5.341  0.1995 -0.0771 -0.0885
47311SOL    HW153658   0.532   0.354   5.254 -0.6714 -0.1957 -0.5104
47311SOL    HW253659   0.515   0.250   5.363  0.4781 -0.0267 -0.1505
47312SOL     OW53660   6.926  12.951   5.243 -0.0908  0.1524  0.1329
47312SOL    HW153661   6.989  12.930   5.174 -1.5071 -1.0160 -0.8614
47312SOL    HW253662   6.841  12.932   5.204 -1.1215  2.1253  1.2768
47313SOL     OW53663  10.174  11.531   5.366  0.1565 -0.3527 -0.2159
47313SOL    HW153664  10.148  11.609   5.317  0.8721  0.7245  1.0531
47313SOL    HW253665  10.270  11.535   5.367  0.1759  0.5623  2.5489
47314SOL     OW53666  13.561   4.001  10.160  0.1111 -0.2554  0.3366
47314SOL    HW153667  13.600   3.916  10.177  1.1968  0.0456 -0.5297
47314SOL    HW253668  13.487   3.983  10.102  0.9649 -0.5333 -0.7113
47315SOL     OW53669   0.741   3.846  13.075 -0.1428 -0.3846 -0.5481
47315SOL    HW153670   0.707   3.757  13.067 -2.0698  0.3235 -0.8974
47315SOL    HW253671   0.823   3.845  13.027 -1.5925 -1.2644 -3.2180
47316SOL     OW53672   6.508  13.351   1.455 -0.7091 -0.5886 -0.3066
47316SOL    HW153673   6.426  13.385   1.419 -0.9112 -0.4118  0.3029
47316SOL    HW253674   6.566  13.341   1.379 -1.2830 -0.6860 -0.7354
47317SOL     OW53675   4.709   0.069   9.287  0.1968 -0.1934  0.1619
47317SOL    HW153676   4.784   0.113   9.247  0.5371 -0.1366  0.8493
47317SOL    HW253677   4.727   0.070   9.381 -0.7433 -0.0346  0.3528
47318SOL     OW53678   1.310   9.033   4.418  0.6612 -0.4797 -0.0509
47318SOL    HW153679   1.355   8.959   4.378  1.1852 -0.4949  0.5495
47318SOL    HW253680   1.368   9.061   4.489  2.7927  3.3368 -2.8541
47319SOL     OW53681   0.283   3.032   4.130 -0.0274 -0.0222 -0.0414
47319SOL    HW153682   0.314   2.966   4.192 -1.2233  0.5971  1.2720
47319SOL    HW253683   0.302   3.115   4.172 -1.2394  0.4073 -0.3024
47320SOL     OW53684   1.967   7.677   1.654  0.2935 -0.0198  0.2723
47320SOL    HW153685   1.920   7.603   1.614  0.1632  1.1185 -1.8332
47320SOL    HW253686   1.915   7.699   1.731  0.0869 -1.8088  0.6929
47321SOL     OW53687   9.156   1.001   9.704 -0.3935  0.5046 -0.1094
47321SOL    HW153688   9.197   0.944   9.769 -0.1255 -0.1656 -0.8590
47321SOL    HW253689   9.144   0.946   9.627 -2.1614  0.8370 -0.1290
47322SOL     OW53690   6.850  10.537   6.945  0.1309 -0.5144  0.2183
47322SOL    HW153691   6.880  10.514   7.032 -0.4871  0.9866  0.8612
47322SOL    HW253692   6.817  10.626   6.953  0.0366 -0.3416 -1.5462
47323SOL     OW53693   0.389   2.892   4.619  0.0201  0.2187 -0.3047
47323SOL    HW153694   0.469   2.943   4.635  0.8748 -1.2742  0.4275
47323SOL    HW253695   0.319   2.945   4.657  0.5118  1.9238 -1.6415
47324SOL     OW53696  12.364   3.159   3.015 -0.3993  0.1476  0.1399
47324SOL    HW153697  12.357   3.084   2.955  0.5372  0.9880 -1.0756
47324SOL    HW253698  12.284   3.156   3.067 -0.1861 -1.9671  0.4557
47325SOL     OW53699   3.095   7.845   0.131  0.0156  0.4040 -0.1357
47325SOL    HW153700   3.039   7.778   0.092 -1.6837 -0.3154  3.1811
47325SOL    HW253701   3.037   7.920   0.144  1.5681  2.1937 -2.5499
47326SOL     OW53702   3.733   6.010   9.106  0.2239  0.1201 -0.2222
47326SOL    HW153703   3.749   6.104   9.092 -0.8009  0.3464 -0.0119
47326SOL    HW253704   3.764   5.968   9.026  0.7726  0.6291 -0.2834
47327SOL     OW53705  10.568   6.721  10.565 -0.2888  0.7183  0.4193
47327SOL    HW153706  10.568   6.809  10.603  1.7970  0.8668  0.1919
47327SOL    HW253707  10.554   6.735  10.471  0.8617  0.8983  0.2636
47328SOL     OW53708  12.613   9.962   9.343  0.7006 -0.1453  0.1220
47328SOL    HW153709  12.555   9.887   9.361  0.0469  0.0836 -0.9661
47328SOL    HW253710  12.650   9.984   9.428  1.2510 -1.9840  0.4113
47329SOL     OW53711   3.480   3.304  10.063  0.2386  0.0195 -0.4839
47329SOL    HW153712   3.430   3.379  10.033  1.1671  0.0541 -2.1042
47329SOL    HW253713   3.437   3.276  10.143 -0.5181  1.8615 -0.2051
47330SOL     OW53714  12.033   7.698  13.232 -0.0319 -0.2634  0.5143
47330SOL    HW153715  12.008   7.648  13.155 -2.3171  0.3818  0.7534
47330SOL    HW253716  12.091   7.766  13.198  0.9318 -1.4139 -0.2242
47331SOL     OW53717  13.246  12.497   3.024  0.1791 -0.1160 -0.8239
47331SOL    HW153718  13.319  12.558   3.040  0.0826 -0.0774 -0.5195
47331SOL    HW253719  13.281  12.411   3.048  0.4652 -0.2480 -1.7012
47332SOL     OW53720   7.691  12.315   4.772 -0.3492 -0.4618  0.4907
47332SOL    HW153721   7.670  12.350   4.685 -3.4002 -2.2071  0.4067
47332SOL    HW253722   7.640  12.369   4.832  2.6106  1.5010  1.5228
47333SOL     OW53723   3.353   9.550  13.631 -0.2505 -0.3680 -0.1631
47333SOL    HW153724   3.433   9.578  13.586 -0.8614  1.3493 -0.2741
47333SOL    HW253725   3.366   9.578  13.722 -0.5565 -0.4442 -0.0954
47334SOL     OW53726  10.196  11.245   8.556 -0.2175  0.3510 -0.0470
47334SOL    HW153727  10.152  11.188   8.492 -0.7030  1.1979 -0.4959
47334SOL    HW253728  10.213  11.325   8.507  3.4223 -0.4924 -0.4229
47335SOL     OW53729   6.293  13.464   4.546 -0.3724 -0.3697 -0.1545
47335SOL    HW153730   6.274  13.393   4.607 -0.1030  1.2860  1.9419
47335SOL    HW253731   6.368  13.509   4.583  1.3922 -0.6940 -3.0034
47336SOL     OW53732   5.009   1.368   0.866  0.3251 -0.0981  0.1456
47336SOL    HW153733   5.038   1.433   0.931  0.1262  0.4784 -0.3370
47336SOL    HW253734   5.066   1.384   0.790 -0.4280  0.2288 -0.3642
47337SOL     OW53735   7.734   2.393  12.766  0.1592 -0.1573 -0.1080
47337SOL    HW153736   7.746   2.344  12.846  0.9347  0.2160  0.0119
47337SOL    HW253737   7.756   2.332  12.696 -2.8113 -1.2627 -0.2259
47338SOL     OW53738  12.004  11.212   1.409  0.4567 -0.2072  0.2294
47338SOL    HW153739  12.084  11.186   1.454 -0.6366  0.6588  2.8736
47338SOL    HW253740  11.942  11.142   1.427  0.2606 -0.2986 -0.7620
47339SOL     OW53741   2.846   9.370  10.683 -0.1265 -0.4294  0.4042
47339SOL    HW153742   2.883   9.300  10.737  2.2390 -0.6291 -1.2936
47339SOL    HW253743   2.909   9.442  10.691 -1.7638  1.0190  0.9590
47340SOL     OW53744   2.025   2.388   5.225 -0.1578 -0.2763  0.6311
47340SOL    HW153745   2.095   2.358   5.283  0.3169  0.6296  0.5329
47340SOL    HW253746   2.069   2.443   5.160 -0.7807 -0.7411 -0.2003
47341SOL     OW53747   5.508   3.881   8.449  0.1888  0.3155 -0.4235
47341SOL    HW153748   5.593   3.861   8.489  0.0038  0.0872 -0.1374
47341SOL    HW253749   5.500   3.976   8.457  0.6192  0.3907 -0.8623
47342SOL     OW53750   5.130  12.878   6.107 -0.3294  0.1472 -0.1160
47342SOL    HW153751   5.193  12.807   6.120 -0.1680  0.3790  0.4073
47342SOL    HW253752   5.065  12.842   6.046 -0.0510 -0.3224 -0.1398
47343SOL     OW53753   1.294   5.415   2.545  0.2364 -0.1393  0.6613
47343SOL    HW153754   1.205   5.389   2.569 -0.1962 -0.2204 -0.9056
47343SOL    HW253755   1.339   5.332   2.528  0.4000 -0.0723  0.7698
47344SOL     OW53756  10.407  12.157  11.911 -0.2669 -0.3960  0.2817
47344SOL    HW153757  10.320  12.197  11.907  0.2069  0.6744  0.2951
47344SOL    HW253758  10.452  12.205  11.981  1.0168  0.4967 -1.1021
47345SOL     OW53759  12.661   7.984   6.686 -0.5609  0.5179 -0.0373
47345SOL    HW153760  12.704   7.919   6.631 -0.3303 -0.2901  1.0750
47345SOL    HW253761  12.582   7.941   6.718  0.2148  0.3134  1.7048
47346SOL     OW53762   1.153   9.750  11.603  0.2637 -0.1936 -0.0395
47346SOL    HW153763   1.152   9.658  11.627  0.6403  0.0718  1.0248
47346SOL    HW253764   1.127   9.751  11.511  0.2274 -1.3532 -0.0508
47347SOL     OW53765   4.539  10.641   0.803  0.7938  0.3211 -0.2415
47347SOL    HW153766   4.499  10.555   0.791  1.8664 -0.2813  0.3397
47347SOL    HW253767   4.489  10.700   0.746  1.0066 -0.9778 -1.8360
47348SOL     OW53768  12.588   9.084   8.806  0.3601  0.4494  0.9362
47348SOL    HW153769  12.513   9.024   8.799  0.1344  0.8916 -1.2585
47348SOL    HW253770  12.619   9.073   8.895 -2.9370  0.9493  2.3071
47349SOL     OW53771   1.081   2.887   8.343 -0.5715 -0.2265  0.1908
47349SOL    HW153772   1.143   2.858   8.409 -0.3591  2.1532  1.1420
47349SOL    HW253773   1.005   2.917   8.393 -1.7571 -1.3541 -0.8624
47350SOL     OW53774   6.556  10.235   3.530  0.4294 -0.1231 -0.0565
47350SOL    HW153775   6.461  10.218   3.530  0.4570 -0.4765  1.7156
47350SOL    HW253776   6.570  10.292   3.606  1.3566  1.8551 -1.6202
47351SOL     OW53777  11.649   2.710  10.214  0.8952 -0.2996 -0.0619
47351SOL    HW153778  11.565   2.756  10.210 -0.0862 -1.7324  1.8093
47351SOL    HW253779  11.653   2.660  10.133  0.5289  0.7194 -0.7207
47352SOL     OW53780   3.238  11.254   7.221  0.3980  0.0071  0.4259
47352SOL    HW153781   3.291  11.319   7.268  2.0552 -0.8469 -0.2174
47352SOL    HW253782   3.276  11.250   7.133  0.8898 -2.4160  0.6773
47353SOL     OW53783   2.853  12.258   8.396 -0.8241  0.9031  0.3305
47353SOL    HW153784   2.920  12.244   8.463  0.6051  0.5210 -1.1289
47353SOL    HW253785   2.860  12.182   8.339 -1.8356  1.3504 -0.4113
47354SOL     OW53786   9.268   8.026   1.952  0.1405 -0.3207 -0.1790
47354SOL    HW153787   9.337   8.088   1.927 -0.3784  1.6882  2.8293
47354SOL    HW253788   9.311   7.941   1.952  1.5379  0.3169 -2.1010
47355SOL     OW53789   9.533   2.677   9.156 -0.4921 -0.1523  0.2995
47355SOL    HW153790   9.462   2.686   9.220 -0.1917  0.2004  0.5923
47355SOL    HW253791   9.612   2.676   9.210 -0.2024  0.6996 -0.1041
47356SOL     OW53792  12.802   7.461   9.982  0.1122 -0.7326 -0.0206
47356SOL    HW153793  12.892   7.476   9.952  1.5331 -2.7069  2.9253
47356SOL    HW253794  12.794   7.515  10.060 -0.9165 -1.3966  0.3417
47357SOL     OW53795  12.463   6.035   3.438  0.0733  0.1858  0.0586
47357SOL    HW153796  12.446   6.038   3.344  1.5532 -1.6541 -0.3451
47357SOL    HW253797  12.422   5.954   3.467  2.8410 -1.3306  0.1429
47358SOL     OW53798   9.459   9.881   4.047  0.2644 -0.3951 -0.7189
47358SOL    HW153799   9.534   9.831   4.015 -0.1865 -0.4554 -1.7147
47358SOL    HW253800   9.383   9.829   4.022 -0.2871  1.2298 -2.6985
47359SOL     OW53801   8.345   2.642   0.216 -0.3032 -0.2375  0.1978
47359SOL    HW153802   8.352   2.737   0.220 -1.0217 -0.1832  0.3174
47359SOL    HW253803   8.261   2.623   0.257 -0.9657 -0.7907 -1.3573
47360SOL     OW53804  12.949   3.855   7.546  0.5205  0.4874 -0.3082
47360SOL    HW153805  12.983   3.843   7.634 -0.6699  1.8041  0.3617
47360SOL    HW253806  12.929   3.766   7.516 -0.4617  0.1141  1.3260
47361SOL     OW53807   8.892   5.509   8.242 -0.2987 -0.2670 -0.2489
47361SOL    HW153808   8.849   5.442   8.296 -0.9674 -0.3079 -0.8311
47361SOL    HW253809   8.958   5.547   8.301 -0.9051 -0.4221  0.5505
47362SOL     OW53810  13.616  12.315   6.912 -0.7533 -0.0755 -0.0070
47362SOL    HW153811  13.559  12.238   6.919  0.1802 -0.8863 -0.9939
47362SOL    HW253812  13.704  12.279   6.903 -0.4572  1.0161 -2.3442
47363SOL     OW53813  12.107   7.658  11.202  0.6168 -0.4490  0.1104
47363SOL    HW153814  12.024   7.655  11.154  1.1599  2.1245 -1.1792
47363SOL    HW253815  12.083   7.692  11.288  0.2427 -0.2612 -0.0608
47364SOL     OW53816   6.091  13.556  10.183 -0.3946 -0.0175 -0.7803
47364SOL    HW153817   6.119  13.635  10.136 -1.2512  0.3320 -0.7199
47364SOL    HW253818   6.001  13.541  10.154 -1.2409  0.6589  1.2850
47365SOL     OW53819   1.521   8.961   9.388  0.0588  0.5043  0.4431
47365SOL    HW153820   1.483   8.957   9.300  1.8743  0.8176 -0.4146
47365SOL    HW253821   1.571   8.879   9.396  0.6106  0.8718  0.8353
47366SOL     OW53822  11.354  10.909   1.966  0.2234  0.0580 -0.6417
47366SOL    HW153823  11.430  10.960   1.936  0.3839  0.3730  0.2503
47366SOL    HW253824  11.281  10.940   1.912  0.5029  0.6053 -0.7174
47367SOL     OW53825  10.232   4.028  11.111 -0.2229 -0.1203 -0.3335
47367SOL    HW153826  10.190   3.942  11.120 -1.9796  0.6712 -0.5423
47367SOL    HW253827  10.161   4.090  11.121  1.2077  1.3901  1.0745
47368SOL     OW53828   9.897   2.725   0.095  0.0045  0.2527  0.0145
47368SOL    HW153829   9.892   2.806   0.044  1.9966  0.8944  0.7310
47368SOL    HW253830   9.978   2.734   0.146 -0.1056 -1.8817  0.6590
47369SOL     OW53831   0.944   6.517   3.411  0.3650  0.5690 -0.1842
47369SOL    HW153832   1.030   6.511   3.371 -0.5077 -0.6289 -2.0717
47369SOL    HW253833   0.915   6.607   3.395  0.2526  0.2586 -1.8924
47370SOL     OW53834   8.821   3.244   3.193  0.0661 -0.4950 -0.0529
47370SOL    HW153835   8.821   3.329   3.148  0.0192 -1.6093 -2.3129
47370SOL    HW253836   8.736   3.240   3.237 -0.8064 -0.1896 -1.6456
47371SOL     OW53837   6.979  13.194   9.897 -0.2446  0.1944  0.1345
47371SOL    HW153838   6.970  13.213   9.990 -0.8899  0.7863 -0.0378
47371SOL    HW253839   7.039  13.120   9.893 -1.2890 -0.7268  1.0913
47372SOL     OW53840   1.926   5.225   9.634 -0.1934 -0.3460 -0.4721
47372SOL    HW153841   1.910   5.240   9.541 -2.5011 -1.5343 -0.3225
47372SOL    HW253842   1.950   5.311   9.668  1.9778 -0.1073 -2.3381
47373SOL     OW53843   7.851   5.747   1.721 -0.5619 -0.3455  0.0277
47373SOL    HW153844   7.908   5.814   1.759 -0.2704 -1.0563  0.8607
47373SOL    HW253845   7.874   5.746   1.628 -0.4389  0.5727  0.0345
47374SOL     OW53846   3.625   6.538   8.894 -0.0937 -0.3809  0.4804
47374SOL    HW153847   3.605   6.629   8.872 -1.5826 -0.9479 -0.7187
47374SOL    HW253848   3.681   6.508   8.822 -1.1157 -0.8982 -0.1341
47375SOL     OW53849   0.056   8.777   6.548  0.1080 -0.5044 -0.0780
47375SOL    HW153850   0.062   8.853   6.605  0.2743 -0.7247  0.2023
47375SOL    HW253851   0.119   8.715   6.584  0.0574 -0.7303 -0.3719
47376SOL     OW53852  12.149   4.169   1.865  0.4655 -0.3309 -0.4364
47376SOL    HW153853  12.214   4.228   1.827  0.2562  1.8904  2.3337
47376SOL    HW253854  12.149   4.190   1.958 -1.1665 -3.3229  0.3836
47377SOL     OW53855   3.156  12.183   9.126  0.0466  0.1161 -0.2530
47377SOL    HW153856   3.139  12.089   9.126  0.2724  0.0581 -1.5694
47377SOL    HW253857   3.130  12.212   9.039  2.0011  0.8800 -0.6324
47378SOL     OW53858   1.049  11.063  11.956  0.4505  0.0716 -0.0274
47378SOL    HW153859   1.087  11.100  11.877  2.0275  1.1167  1.1598
47378SOL    HW253860   0.988  11.130  11.987  0.1805 -0.1384 -0.0986
47379SOL     OW53861  12.231   7.461  13.334 -0.0861  0.1369 -0.4246
47379SOL    HW153862  12.194   7.543  13.301 -0.1115 -0.2587 -1.3989
47379SOL    HW253863  12.312   7.450  13.284  0.4051  0.0506  0.3756
47380SOL     OW53864   8.082   8.344  12.906 -0.7340  0.2394 -0.1788
47380SOL    HW153865   8.009   8.281  12.906 -0.8805  0.4025  0.4513
47380SOL    HW253866   8.157   8.293  12.875 -0.9447 -0.1398 -0.0782
47381SOL     OW53867   7.902   8.113   9.235 -0.3825 -0.5309 -0.1094
47381SOL    HW153868   7.894   8.186   9.296 -0.9738 -0.0097 -0.7932
47381SOL    HW253869   7.816   8.070   9.238  0.7249 -2.8875  2.3248
47382SOL     OW53870   4.351   0.003   9.248  0.1731 -0.5376  0.0080
47382SOL    HW153871   4.418  -0.064   9.257 -0.0096 -0.7773 -0.3731
47382SOL    HW253872   4.269  -0.046   9.244 -0.1017 -0.2184  1.1744
47383SOL     OW53873   4.772   3.547   1.381  0.6851 -0.1619  0.2426
47383SOL    HW153874   4.764   3.636   1.415 -2.5767 -0.3057  0.1991
47383SOL    HW253875   4.751   3.555   1.288  3.7426 -0.6035 -0.6019
47384SOL     OW53876   0.946  12.007   2.240 -0.2183 -0.2248  0.6259
47384SOL    HW153877   0.952  12.017   2.335 -0.6431  0.0490  0.6252
47384SOL    HW253878   1.030  12.039   2.207  0.0494 -0.6100  0.9303
47385SOL     OW53879   8.207  12.502   8.172  0.0914  0.1704 -0.8654
47385SOL    HW153880   8.245  12.433   8.227 -0.5292 -0.5464 -1.2973
47385SOL    HW253881   8.252  12.494   8.089 -0.1827  0.0868 -1.0089
47386SOL     OW53882  12.425  10.244  11.475 -0.0504 -0.0244  0.2241
47386SOL    HW153883  12.491  10.189  11.519  0.4111  0.8947  0.7000
47386SOL    HW253884  12.394  10.303  11.543 -0.5462  0.3091 -0.2872
47387SOL     OW53885   9.614   2.638  11.599  0.6017 -0.1104  0.1466
47387SOL    HW153886   9.696   2.627  11.550  1.8172  0.7669  1.8652
47387SOL    HW253887   9.557   2.687  11.539  1.2449 -0.8741 -1.1432
47388SOL     OW53888  11.557   4.692   3.156  0.6335 -0.2479  0.0385
47388SOL    HW153889  11.613   4.695   3.079 -0.6359 -1.6214 -1.0008
47388SOL    HW253890  11.612   4.724   3.227  1.3748  2.5993 -1.6650
47389SOL     OW53891   6.899   8.242  10.356 -0.5915 -0.4144  0.2722
47389SOL    HW153892   6.814   8.224  10.317 -0.6508  0.3584  0.0347
47389SOL    HW253893   6.881   8.248  10.450 -0.5432 -1.6992  0.3902
47390SOL     OW53894   2.956   2.760   7.262 -0.3025  0.0522  0.0810
47390SOL    HW153895   2.873   2.724   7.293  0.6416 -1.7536  0.6234
47390SOL    HW253896   2.950   2.854   7.283 -1.5158 -0.3331  1.6911
47391SOL     OW53897   3.173   0.402  12.573  0.4342  0.5864  0.1833
47391SOL    HW153898   3.174   0.427  12.480 -1.2194  3.5612  0.8221
47391SOL    HW253899   3.259   0.427  12.606  0.3700  1.3323 -0.1902
47392SOL     OW53900  13.388   5.695   9.250 -0.2443  0.3895 -0.0721
47392SOL    HW153901  13.432   5.631   9.194  0.6636  2.4006 -1.8082
47392SOL    HW253902  13.313   5.725   9.199 -1.0117  0.3249  0.9691
47393SOL     OW53903   9.710   5.351   0.847 -0.2514  0.3475  0.7626
47393SOL    HW153904   9.740   5.353   0.938 -0.8888  0.3153  0.9740
47393SOL    HW253905   9.749   5.430   0.808  1.2889 -0.4310  0.6462
47394SOL     OW53906   4.961   0.785  10.880 -0.1388  0.0885 -0.2164
47394SOL    HW153907   5.039   0.795  10.934  0.9813 -1.3210 -1.4865
47394SOL    HW253908   4.985   0.821  10.795 -1.2363  0.5698 -0.3397
47395SOL     OW53909   2.887   8.533  11.313 -0.1734  1.0274  0.9956
47395SOL    HW153910   2.927   8.613  11.346  0.2708  1.0368  0.4465
47395SOL    HW253911   2.949   8.464  11.336  1.2813  1.3004 -1.7609
47396SOL     OW53912   4.206   8.934   6.762 -0.0503  0.2799  0.5574
47396SOL    HW153913   4.295   8.939   6.799 -0.0718 -1.0030  0.8167
47396SOL    HW253914   4.219   8.918   6.669 -0.0080  0.5831  0.5107
47397SOL     OW53915  10.178   0.852  11.065 -0.1783 -0.4141  0.2198
47397SOL    HW153916  10.264   0.847  11.109 -0.2694 -0.7440  0.3643
47397SOL    HW253917  10.188   0.799  10.986  0.6587  1.8818 -1.3256
47398SOL     OW53918  11.758   2.384   5.194 -0.0463 -0.0772 -0.0817
47398SOL    HW153919  11.788   2.386   5.285 -0.3921 -0.7998  0.0515
47398SOL    HW253920  11.749   2.476   5.170 -0.9161  0.1250  0.9361
47399SOL     OW53921   7.764   2.426   5.154 -0.1421  0.5411 -0.1838
47399SOL    HW153922   7.715   2.458   5.079  0.2052  0.2398 -0.5479
47399SOL    HW253923   7.702   2.373   5.203 -0.1791  0.1264 -0.6648
47400SOL     OW53924   3.407   0.285   6.603 -0.0252 -0.1720  0.4292
47400SOL    HW153925   3.339   0.221   6.621  1.1092 -1.0095  2.0005
47400SOL    HW253926   3.487   0.246   6.637  0.9324  1.5349  0.2822
47401SOL     OW53927  12.852   1.724   1.124  0.2901  0.4162 -0.0331
47401SOL    HW153928  12.835   1.672   1.045 -1.2985  0.0495  0.5146
47401SOL    HW253929  12.781   1.788   1.127  2.1732  2.6555 -0.6525
47402SOL     OW53930   4.042  12.235   5.546  0.3467  0.1858  0.1317
47402SOL    HW153931   4.111  12.240   5.480 -0.3196 -0.1311 -0.6188
47402SOL    HW253932   4.003  12.322   5.547 -1.2097 -0.3919 -1.6992
47403SOL     OW53933   4.867   8.191   1.575  0.0309  0.0413 -0.6842
47403SOL    HW153934   4.851   8.284   1.590  1.8284 -0.0294  2.6702
47403SOL    HW253935   4.783   8.157   1.544 -1.5722  2.2901  0.8255
47404SOL     OW53936   5.574  10.157   7.708 -0.0435 -0.3435  0.2540
47404SOL    HW153937   5.650  10.153   7.650  0.9404  2.4313  1.1880
47404SOL    HW253938   5.593  10.093   7.777  0.9508 -0.4076 -0.0619
47405SOL     OW53939   7.423   9.700   2.723  0.1534 -0.5615  0.3066
47405SOL    HW153940   7.394   9.687   2.633  1.1820  0.6495 -0.2477
47405SOL    HW253941   7.432   9.612   2.759 -1.6295 -1.0229 -0.3026
47406SOL     OW53942   9.951   4.239   6.880  0.2788 -0.5239  0.3369
47406SOL    HW153943   9.919   4.275   6.797 -2.1710 -0.9477  1.0018
47406SOL    HW253944   9.976   4.315   6.932 -1.4144  0.0336  0.4023
47407SOL     OW53945   4.062   0.032   6.186  0.0146 -0.5065 -0.0075
47407SOL    HW153946   4.055   0.081   6.268 -0.8604 -0.2036 -0.2539
47407SOL    HW253947   4.018  -0.051   6.203  1.5768 -1.2959  0.4395
47408SOL     OW53948   5.996   2.754   3.581  0.2259  0.1876  0.3488
47408SOL    HW153949   5.991   2.749   3.486 -1.5374  1.0356  0.3687
47408SOL    HW253950   6.073   2.701   3.603  0.2719 -0.5957 -1.4796
47409SOL     OW53951   2.313  13.396   4.495 -0.1108 -0.5011 -0.0678
47409SOL    HW153952   2.341  13.483   4.524 -1.0727  0.3612 -1.5966
47409SOL    HW253953   2.339  13.338   4.567 -0.9197  1.2535  1.7646
47410SOL     OW53954   5.084  12.076  13.457  0.3482 -0.4286 -0.0147
47410SOL    HW153955   5.080  12.051  13.364  1.7671 -0.9354  0.0403
47410SOL    HW253956   5.160  12.133  13.463  1.4381 -1.9336  1.1515
47411SOL     OW53957   5.233  12.645   8.119  0.1237  0.1795 -0.3784
47411SOL    HW153958   5.228  12.728   8.167  2.3226  1.1267 -1.6769
47411SOL    HW253959   5.161  12.649   8.056 -1.0128  0.1763  0.8728
47412SOL     OW53960   9.542  11.962   8.912  0.5327  0.0245  0.0519
47412SOL    HW153961   9.616  12.022   8.919 -1.2963  2.2694  1.1958
47412SOL    HW253962   9.483  12.003   8.848 -1.0911 -0.1158  1.3957
47413SOL     OW53963  12.391   6.144  10.216  0.2100 -0.2462 -0.4427
47413SOL    HW153964  12.341   6.175  10.292  0.5483  0.1370 -0.3797
47413SOL    HW253965  12.424   6.058  10.243 -0.0892 -0.3334 -0.3441
47414SOL     OW53966  12.666   1.025   9.757 -0.0048 -0.1425 -0.1516
47414SOL    HW153967  12.761   1.032   9.756  0.0009 -0.2484 -0.6601
47414SOL    HW253968  12.636   1.104   9.801  0.4026 -1.1829  2.1030
47415SOL     OW53969   6.893   2.820   5.913 -0.7959  0.1662  0.0521
47415SOL    HW153970   6.861   2.829   6.003  0.1516 -2.2860  0.7040
47415SOL    HW253971   6.817   2.791   5.863 -0.6005 -1.6269  0.7557
47416SOL     OW53972   5.769   7.714   9.466 -0.0476  0.0838 -0.0086
47416SOL    HW153973   5.794   7.805   9.446 -0.6961  0.3553  0.3770
47416SOL    HW253974   5.674   7.714   9.459 -0.0082 -0.7378 -0.6674
47417SOL     OW53975   5.462  12.945   8.242  0.5105 -0.2375 -0.0836
47417SOL    HW153976   5.460  13.031   8.284 -0.5920  0.5397 -1.6330
47417SOL    HW253977   5.555  12.928   8.225  0.6272  1.5595 -1.4802
47418SOL     OW53978   2.957  10.265   1.613 -0.0386 -0.3350 -0.6572
47418SOL    HW153979   2.937  10.198   1.679  1.0046  0.7927  0.8928
47418SOL    HW253980   2.881  10.266   1.556 -0.9708 -1.4129  0.4996
47419SOL     OW53981   5.278  13.105   1.896  0.2633 -0.1168  0.0481
47419SOL    HW153982   5.243  13.048   1.964  0.0305 -1.0911 -0.8556
47419SOL    HW253983   5.373  13.103   1.910  0.3620 -1.6218 -0.6043
47420SOL     OW53984   6.290   7.876   7.676  0.2187 -0.4379  0.3119
47420SOL    HW153985   6.343   7.863   7.755 -0.4081 -1.6278  0.5650
47420SOL    HW253986   6.335   7.945   7.628  0.3472  0.6836  1.9474
47421SOL     OW53987  12.466  12.312  12.064 -0.1021 -0.0378  0.2564
47421SOL    HW153988  12.518  12.353  11.994  0.2183  0.1717  0.6155
47421SOL    HW253989  12.530  12.291  12.131 -0.3083 -0.8899  0.1883
47422SOL     OW53990   9.866   5.048   5.927  0.1198  0.3938 -0.0481
47422SOL    HW153991   9.934   5.020   5.866 -0.6897 -0.2370 -0.6863
47422SOL    HW253992   9.801   5.093   5.871  0.5859  2.1028  0.7122
47423SOL     OW53993   1.369  11.048  13.496 -0.3293  0.1199 -0.3363
47423SOL    HW153994   1.429  11.060  13.422  2.2829 -0.3494  1.5620
47423SOL    HW253995   1.325  10.965  13.477  1.3665 -0.7402 -0.7704
47424SOL     OW53996  11.980   7.257   0.084 -0.2680  0.0387  0.1166
47424SOL    HW153997  11.899   7.219   0.120 -1.1166  0.6440 -1.0976
47424SOL    HW253998  11.962   7.351   0.078 -0.4436 -0.0998 -2.5138
47425SOL     OW53999   9.551  12.279   8.663 -0.3386 -0.1428  0.0139
47425SOL    HW154000   9.556  12.351   8.726  1.9230 -1.0262  0.9498
47425SOL    HW254001   9.479  12.224   8.694 -0.4149  0.3793  0.7770
47426SOL     OW54002   0.227  12.845   4.239 -0.4902 -0.2622 -0.3814
47426SOL    HW154003   0.229  12.811   4.328  0.7708 -0.3202 -0.4060
47426SOL    HW254004   0.269  12.931   4.246 -0.5918 -0.1705 -0.8837
47427SOL     OW54005  11.434  11.805   6.405 -0.0373  0.5965 -1.0097
47427SOL    HW154006  11.505  11.757   6.448 -0.1229  0.8721 -0.5554
47427SOL    HW254007  11.458  11.804   6.312 -1.5579 -2.9713 -1.5189
47428SOL     OW54008   1.121   8.503   4.766  0.4237  0.1194 -0.1052
47428SOL    HW154009   1.184   8.568   4.734  0.0459 -0.2731 -1.7333
47428SOL    HW254010   1.128   8.430   4.705 -1.4875  0.0010 -0.2688
47429SOL     OW54011   9.351   2.716  12.278 -0.0519 -0.2250 -0.4822
47429SOL    HW154012   9.396   2.653  12.222  0.9693 -1.2024  1.3316
47429SOL    HW254013   9.402   2.796  12.271  0.1402 -0.3790 -0.8540
47430SOL     OW54014   8.661   3.226   2.887  0.3402 -0.3537 -0.1316
47430SOL    HW154015   8.678   3.301   2.943 -2.3066  1.4965 -1.5824
47430SOL    HW254016   8.617   3.162   2.944  1.7978 -0.4603  0.9031
47431SOL     OW54017   0.504   2.006  11.612  0.4970  0.0448 -0.0006
47431SOL    HW154018   0.459   2.037  11.534  0.1928 -2.4870 -0.9424
47431SOL    HW254019   0.449   2.034  11.685 -0.5827  0.2472 -0.8799
47432SOL     OW54020  11.326   2.920   7.189 -0.0837  0.0255  0.3167
47432SOL    HW154021  11.251   2.960   7.144  0.5140  0.4668 -0.2933
47432SOL    HW254022  11.287   2.875   7.264 -0.9743  0.1739 -0.0444
47433SOL     OW54023  13.582  10.535   0.689 -0.7119  0.5169 -0.5723
47433SOL    HW154024  13.503  10.481   0.689 -0.1067 -0.3877 -1.0406
47433SOL    HW254025  13.592  10.563   0.781 -1.0447 -0.1369 -0.3328
47434SOL     OW54026  13.271   3.229   9.562  0.0430  0.4057  0.5754
47434SOL    HW154027  13.243   3.315   9.594 -0.9075 -0.0701  1.0737
47434SOL    HW254028  13.363   3.224   9.586  0.2073  1.4296  0.2210
47435SOL     OW54029   6.797   1.229  12.061  0.3474 -0.2638 -0.5675
47435SOL    HW154030   6.871   1.260  12.008 -1.5632  1.6797 -2.2953
47435SOL    HW254031   6.824   1.247  12.151  1.5879  1.4009 -1.2166
47436SOL     OW54032   2.597   1.880   4.529 -0.1567  0.1991 -0.0616
47436SOL    HW154033   2.542   1.958   4.525 -0.7688 -0.2033  0.3788
47436SOL    HW254034   2.568   1.834   4.607 -0.8310 -1.2299 -1.1059
47437SOL     OW54035   5.141  13.595   5.198 -1.0716 -0.5858 -0.2411
47437SOL    HW154036   5.164  13.596   5.105 -1.0138  1.5246 -0.2560
47437SOL    HW254037   5.049  13.623   5.200 -0.7497  0.4953  0.3712
47438SOL     OW54038   2.726  11.824   3.172 -0.3827 -0.2263 -0.2976
47438SOL    HW154039   2.746  11.916   3.186 -2.9770  0.4217 -0.4527
47438SOL    HW254040   2.789  11.777   3.228 -0.2687  1.6934  1.2902
47439SOL     OW54041  12.311   8.634  12.460  0.3928 -0.0701 -0.1866
47439SOL    HW154042  12.247   8.625  12.531 -0.5439  0.1235 -0.9717
47439SOL    HW254043  12.358   8.715  12.480  0.5246 -0.3120  0.5010
47440SOL     OW54044   4.572   8.335   4.082  0.1736 -0.2271  0.5952
47440SOL    HW154045   4.622   8.410   4.117 -0.9046  0.9981 -0.3732
47440SOL    HW254046   4.631   8.294   4.019 -0.1327  1.4946 -0.8926
47441SOL     OW54047   7.733   7.957   4.816  0.0786 -0.0394 -0.4204
47441SOL    HW154048   7.750   7.987   4.906  0.1057  0.9718 -0.7570
47441SOL    HW254049   7.638   7.959   4.808  0.1178  0.8134 -0.7257
47442SOL     OW54050   6.801   7.573   0.084 -0.2511 -0.8092  0.1196
47442SOL    HW154051   6.768   7.631   0.015 -0.1235 -0.5220  0.2987
47442SOL    HW254052   6.893   7.597   0.094 -0.4827 -0.2295  1.0040
47443SOL     OW54053   1.864   1.363   1.546  0.3422 -0.0890 -0.4356
47443SOL    HW154054   1.770   1.378   1.551  0.3318  0.2737 -1.4683
47443SOL    HW254055   1.887   1.327   1.632 -0.6981 -0.0074 -0.1054
47444SOL     OW54056   4.678   0.771  12.477  0.2864 -0.0134  0.6432
47444SOL    HW154057   4.619   0.753  12.403 -0.7745  0.8971  1.2449
47444SOL    HW254058   4.740   0.699  12.475 -1.4320 -1.5615  0.5735
47445SOL     OW54059   9.675  13.173   3.536  0.4937 -0.2865  0.2697
47445SOL    HW154060   9.726  13.094   3.521  1.4907 -0.0723  2.1829
47445SOL    HW254061   9.735  13.245   3.515  0.2877 -0.0365  0.5245
47446SOL     OW54062  10.173  12.980  12.531 -0.0736  0.1601 -0.6290
47446SOL    HW154063  10.213  12.941  12.609  0.9802 -0.8823 -1.6472
47446SOL    HW254064  10.221  13.062  12.519 -0.0045  0.1606 -0.3661
47447SOL     OW54065  12.447   7.838   6.741 -0.4759 -0.8174 -0.6502
47447SOL    HW154066  12.452   7.792   6.657 -0.1692 -0.3464 -0.8933
47447SOL    HW254067  12.360   7.878   6.741 -0.2022 -0.2031 -1.0739
47448SOL     OW54068   5.674   4.702  11.939 -0.4252 -0.6805  0.3588
47448SOL    HW154069   5.755   4.672  11.980  1.4672  1.9124 -1.2039
47448SOL    HW254070   5.636   4.764  12.002  2.0026  2.5944 -1.1176
47449SOL     OW54071   4.940  12.487   0.209  0.1915  0.1815 -0.2366
47449SOL    HW154072   4.900  12.531   0.284 -0.9316  0.8408 -1.1760
47449SOL    HW254073   4.943  12.555   0.141 -1.5243 -1.1497 -1.7185
47450SOL     OW54074  10.956   8.280  10.842  0.3247 -0.7329  0.5643
47450SOL    HW154075  11.046   8.275  10.811 -0.3636 -0.4308 -1.6102
47450SOL    HW254076  10.952   8.218  10.915  1.7670 -2.3018 -0.6248
47451SOL     OW54077   8.717   6.725  10.005 -0.0517  0.5543 -0.1149
47451SOL    HW154078   8.725   6.635   9.975  0.2910  0.9144 -1.1696
47451SOL    HW254079   8.665   6.720  10.084  0.8032 -0.6744  0.3988
47452SOL     OW54080  12.470   1.114   7.782  0.2402 -0.2194 -0.7034
47452SOL    HW154081  12.541   1.156   7.734 -0.0849  0.2508 -0.7812
47452SOL    HW254082  12.508   1.033   7.817  0.5725 -0.3883 -1.4543
47453SOL     OW54083   2.801   5.172   8.112  0.1150  0.5691 -0.0273
47453SOL    HW154084   2.777   5.251   8.063 -0.4604  0.6063  0.3088
47453SOL    HW254085   2.719   5.143   8.151  0.2550 -0.4001 -0.4379
47454SOL     OW54086   6.872   3.651   6.399  0.0780 -0.0638  0.0034
47454SOL    HW154087   6.889   3.559   6.422  0.9246  0.4224  1.4266
47454SOL    HW254088   6.943   3.674   6.339  0.1156 -0.2190 -0.0137
47455SOL     OW54089  13.542  12.759   6.698 -0.2214  0.2691 -0.2625
47455SOL    HW154090  13.452  12.757   6.729 -0.0056  0.4435  0.3890
47455SOL    HW254091  13.585  12.686   6.742 -0.1653 -0.1260 -0.9655
47456SOL     OW54092   3.481   9.077   0.901 -0.2194  0.0351 -0.8421
47456SOL    HW154093   3.490   9.007   0.965 -0.0298  2.1182  1.6090
47456SOL    HW254094   3.570   9.097   0.873 -0.2776 -0.6866 -1.5718
47457SOL     OW54095  11.252   5.327   1.345  0.0954  0.3969 -0.5270
47457SOL    HW154096  11.263   5.420   1.366 -0.1123  0.3411 -0.1661
47457SOL    HW254097  11.273   5.321   1.251  0.0937  0.8095 -0.5554
47458SOL     OW54098   6.301  13.528   8.117  0.4175  0.0232  0.4182
47458SOL    HW154099   6.335  13.613   8.090 -0.2455  0.5738  1.2548
47458SOL    HW254100   6.371  13.466   8.095  0.9714  0.8011 -0.0625
47459SOL     OW54101   3.993   3.206   0.767  0.3863 -0.1611 -0.0735
47459SOL    HW154102   4.051   3.159   0.826 -0.2051 -0.2472  0.4382
47459SOL    HW254103   3.910   3.159   0.770  0.1189  0.2726 -0.3932
47460SOL     OW54104   7.258   4.083  13.162 -0.0837  0.3016 -0.1376
47460SOL    HW154105   7.309   4.092  13.242  0.3349 -0.0182 -0.3660
47460SOL    HW254106   7.293   4.005  13.119 -1.2903 -0.3910  0.0810
47461SOL     OW54107   8.901   3.105   0.210  0.0021 -0.6889 -0.1124
47461SOL    HW154108   8.890   3.171   0.278 -0.3174 -0.8156 -0.0383
47461SOL    HW254109   8.909   3.023   0.257  2.9552 -0.4840 -0.0440
47462SOL     OW54110   8.730  13.365   2.107  0.0076  0.0873  0.4305
47462SOL    HW154111   8.660  13.299   2.101  0.0910 -0.0061  0.4801
47462SOL    HW254112   8.811  13.315   2.096  0.0370  0.3107 -0.5192
47463SOL     OW54113   9.474   8.362   5.960  0.3915  0.3102 -0.3200
47463SOL    HW154114   9.381   8.343   5.950  0.7186 -1.6739  0.0410
47463SOL    HW254115   9.483   8.388   6.052  0.0094  1.9483 -0.7097
47464SOL     OW54116   8.451  12.378   2.199  0.2218  0.1290 -0.4798
47464SOL    HW154117   8.542  12.400   2.219  0.7296 -0.7952 -1.6001
47464SOL    HW254118   8.403  12.460   2.210  1.2708  0.7434 -0.3140
47465SOL     OW54119  10.269   5.302   2.920  0.4249 -0.3637 -0.8123
47465SOL    HW154120  10.309   5.270   3.001  1.0900  0.1817 -0.9128
47465SOL    HW254121  10.190   5.349   2.949  1.2290  0.7685 -0.3642
47466SOL     OW54122   4.045   9.646   2.285  0.3456 -0.8209  0.3230
47466SOL    HW154123   3.989   9.623   2.358 -1.3217  0.2769 -0.5348
47466SOL    HW254124   4.117   9.696   2.324 -1.2005  0.8982  1.1440
47467SOL     OW54125   7.099  11.730  11.545 -0.1590 -0.6624 -0.8408
47467SOL    HW154126   7.054  11.648  11.568  0.3136 -1.0657 -1.3487
47467SOL    HW254127   7.160  11.744  11.617 -0.9917 -0.1809 -0.2119
47468SOL     OW54128   6.249   0.683  10.631 -0.3080  0.4362 -0.0061
47468SOL    HW154129   6.216   0.770  10.605  0.5855  0.8901  0.3268
47468SOL    HW254130   6.336   0.701  10.667 -0.6782 -0.4182  1.3909
47469SOL     OW54131   6.551  10.308  11.106 -1.0490  0.5566 -0.8934
47469SOL    HW154132   6.627  10.355  11.073 -1.2927  0.0214 -2.2827
47469SOL    HW254133   6.476  10.359  11.077 -1.2817 -0.1476 -1.5882
47470SOL     OW54134   2.071   3.142   5.228  0.2184  1.0488  0.2674
47470SOL    HW154135   2.084   3.164   5.320 -1.6414 -2.3869  1.5084
47470SOL    HW254136   2.136   3.074   5.210 -1.7780 -0.9598  0.2539
47471SOL     OW54137   1.495  12.720   2.371  0.1930 -0.4784  0.5310
47471SOL    HW154138   1.429  12.659   2.405 -0.1247 -1.1671 -1.1958
47471SOL    HW254139   1.446  12.800   2.353  0.7515  0.6715  3.5290
47472SOL     OW54140   9.669   9.799  10.903 -0.4303  0.5550  0.6488
47472SOL    HW154141   9.617   9.752  10.838  0.1572  0.4649  0.2287
47472SOL    HW254142   9.610   9.811  10.977 -0.2730 -1.8730  1.2511
47473SOL     OW54143   8.941   0.843   8.804  0.2154 -0.2569  0.2161
47473SOL    HW154144   8.965   0.851   8.897  1.4077 -1.1039  0.0098
47473SOL    HW254145   9.007   0.783   8.768 -1.2434 -1.2974 -0.8107
47474SOL     OW54146   6.752  10.170  10.377 -0.1169  0.3070 -0.3559
47474SOL    HW154147   6.680  10.227  10.406  0.4191  0.3320  0.9976
47474SOL    HW254148   6.767  10.196  10.286 -1.0432  1.1144 -0.3045
47475SOL     OW54149   1.348  10.548   8.364  0.2981  0.2707  0.0927
47475SOL    HW154150   1.283  10.519   8.300  1.0906  0.4525 -0.8261
47475SOL    HW254151   1.310  10.526   8.449  1.0665 -4.0917 -0.4676
47476SOL     OW54152  13.378   7.075   3.546 -0.1167  0.7350  0.4461
47476SOL    HW154153  13.432   7.122   3.610 -0.7308  1.2705  0.5848
47476SOL    HW254154  13.334   7.145   3.497 -0.6167  0.3095  0.2788
47477SOL     OW54155   1.325   6.643   0.746  0.4960  0.4764  0.3122
47477SOL    HW154156   1.240   6.606   0.770  1.7174 -1.8900  1.3220
47477SOL    HW254157   1.374   6.647   0.829  1.7484  0.7031 -0.4019
47478SOL     OW54158   9.603  11.428   7.432 -0.4095 -0.0261  0.0306
47478SOL    HW154159   9.604  11.513   7.388  0.1416  0.7269  1.4154
47478SOL    HW254160   9.579  11.365   7.364  0.0697  1.1197 -1.2377
47479SOL     OW54161   6.773   9.550   9.813 -0.3015  0.1786  0.2542
47479SOL    HW154162   6.707   9.534   9.745  0.4314  1.1254 -0.7030
47479SOL    HW254163   6.822   9.468   9.818 -0.5452  0.0012 -0.1654
47480SOL     OW54164   5.470   4.952   8.873 -0.7468 -0.1688 -0.2686
47480SOL    HW154165   5.476   4.960   8.968 -0.0135 -0.5324 -0.2789
47480SOL    HW254166   5.555   4.982   8.841 -1.6311  1.7419 -0.9382
47481SOL     OW54167  13.444  13.470   0.021 -0.0959 -0.1271  0.3054
47481SOL    HW154168  13.371  13.410   0.009 -1.0176  1.1818 -0.9185
47481SOL    HW254169  13.519  13.424  -0.015 -0.4757 -1.1359  0.7705
47482SOL     OW54170  10.796  10.270   8.951 -0.5878 -0.5906  0.0682
47482SOL    HW154171  10.735  10.262   8.878 -0.3688  0.6014 -0.2499
47482SOL    HW254172  10.872  10.218   8.924  0.1027  1.0072 -1.2170
47483SOL     OW54173   2.068  13.658   4.726 -0.3089 -0.3655  0.0836
47483SOL    HW154174   2.156  13.675   4.693 -0.7762 -0.2728 -1.1350
47483SOL    HW254175   2.070  13.566   4.755  0.3696 -0.1658  0.6855
47484SOL     OW54176   7.177   6.932   9.470 -0.1698 -0.2868  0.3969
47484SOL    HW154177   7.213   7.015   9.438 -1.5436  0.2705  0.2567
47484SOL    HW254178   7.247   6.895   9.523  1.3920 -0.2176 -1.4866
47485SOL     OW54179  11.851  12.414   1.941 -0.3331  0.6230 -0.5901
47485SOL    HW154180  11.843  12.509   1.955  1.9648  0.8542 -0.4962
47485SOL    HW254181  11.808  12.375   2.018  1.1326  1.6768  0.8458
47486SOL     OW54182  10.409  11.284   2.556  0.2404  0.3922  0.3267
47486SOL    HW154183  10.382  11.334   2.633 -0.4575  0.6611 -0.0875
47486SOL    HW254184  10.361  11.323   2.483  2.2364  1.3326 -0.5680
47487SOL     OW54185  10.051   7.696   9.821  0.4621  0.7360  0.5728
47487SOL    HW154186  10.033   7.624   9.760  1.1077 -1.0695  2.3922
47487SOL    HW254187  10.142   7.720   9.803  0.5361  0.4617  0.5657
47488SOL     OW54188  11.621   7.251  11.859 -0.3330  0.1769  0.1798
47488SOL    HW154189  11.715   7.233  11.856  0.2054  2.3342  2.0118
47488SOL    HW254190  11.610   7.330  11.807 -0.6655  1.4152  2.0397
47489SOL     OW54191   4.974  11.256   3.125 -0.5226  0.0736 -0.5706
47489SOL    HW154192   4.983  11.199   3.201 -0.9770  0.7219 -0.0098
47489SOL    HW254193   5.059  11.253   3.081 -0.8929 -1.9695 -1.2493
47490SOL     OW54194   6.352  12.844   3.065  0.2828  0.1414  0.3843
47490SOL    HW154195   6.325  12.780   2.999  1.5644 -0.0523  0.0129
47490SOL    HW254196   6.284  12.911   3.062 -0.4744 -0.6310 -0.0481
47491SOL     OW54197   6.155   6.629   3.081 -0.0085 -0.2464  0.1523
47491SOL    HW154198   6.200   6.666   3.157  0.6650  1.2375 -0.9146
47491SOL    HW254199   6.066   6.612   3.112  0.3410  0.0219  1.3567
47492SOL     OW54200   8.742   3.952   7.677  0.0010 -0.1352 -0.5698
47492SOL    HW154201   8.707   4.039   7.699  0.7397  0.4381 -1.5453
47492SOL    HW254202   8.795   3.927   7.752 -0.6812 -0.0048 -0.0371
47493SOL     OW54203   3.941   7.189   6.928 -0.2057  0.2837 -0.2783
47493SOL    HW154204   4.036   7.183   6.924 -0.1353  1.6504 -1.0157
47493SOL    HW254205   3.920   7.278   6.898 -1.8444 -0.6809 -2.2771
47494SOL     OW54206   8.800   3.633   3.374  0.5870 -0.3625  0.0718
47494SOL    HW154207   8.711   3.597   3.363  0.4232  0.2351 -0.6454
47494SOL    HW254208   8.847   3.565   3.422 -0.8300  0.2070  2.3937
47495SOL     OW54209  12.290   0.679   3.787  0.5711 -0.1472 -0.0492
47495SOL    HW154210  12.306   0.762   3.742 -0.0267 -1.4303 -2.8975
47495SOL    HW254211  12.196   0.677   3.802 -0.3068 -2.0629 -4.2804
47496SOL     OW54212   0.053   1.344  12.573 -0.7562 -0.2283 -0.5288
47496SOL    HW154213   0.063   1.280  12.644 -0.6277 -0.9073 -1.1417
47496SOL    HW254214   0.085   1.426  12.609  0.7495 -0.8984 -0.2917
47497SOL     OW54215   9.135   4.765   7.923 -0.5680 -0.2324  0.0412
47497SOL    HW154216   9.189   4.835   7.887  0.5308  0.5290  2.8734
47497SOL    HW254217   9.074   4.809   7.982 -1.2527 -1.4835  0.3051
47498SOL     OW54218   5.371   9.811   4.281 -0.4106 -0.0222  0.1272
47498SOL    HW154219   5.417   9.848   4.206 -0.9978 -0.9083 -0.6894
47498SOL    HW254220   5.278   9.818   4.259 -0.5663 -0.9517  0.4466
47499SOL     OW54221  12.077  10.980  11.277 -0.6246  0.3120 -0.2387
47499SOL    HW154222  12.081  10.900  11.329 -0.7243  0.2362 -0.3487
47499SOL    HW254223  12.101  10.953  11.188  0.1592  0.5534 -0.1143
47500SOL     OW54224   8.525  13.467   4.280  0.1916  0.7821 -0.1321
47500SOL    HW154225   8.552  13.558   4.290  1.3643  0.4935 -0.5291
47500SOL    HW254226   8.607  13.418   4.272 -0.1819 -0.8002  3.7575
47501SOL     OW54227   1.977   0.201  11.573  0.1460  0.0165  0.4378
47501SOL    HW154228   1.916   0.205  11.646  0.4547 -1.0895  0.7777
47501SOL    HW254229   1.973   0.109  11.544  1.4948 -0.0310  0.3456
47502SOL     OW54230   9.097  13.451   3.274 -0.5272  0.9039  0.0492
47502SOL    HW154231   9.182  13.435   3.314  0.3618  1.5534 -1.4972
47502SOL    HW254232   9.038  13.467   3.348 -0.0391 -2.4237  1.3616
47503SOL     OW54233   5.490   8.650  13.382 -0.0876  0.3775  0.4786
47503SOL    HW154234   5.586   8.656  13.388  0.3280 -0.3053 -3.2080
47503SOL    HW254235   5.466   8.590  13.453  2.1112  1.0817  1.9255
47504SOL     OW54236  13.707   6.186   3.912 -0.4560 -0.4653  0.3772
47504SOL    HW154237  13.798   6.158   3.921  1.1852  4.1246  0.3816
47504SOL    HW254238  13.683   6.158   3.823  0.5592 -2.4989  0.6645
47505SOL     OW54239   4.045  11.922   6.654  0.3662 -0.0090  0.0773
47505SOL    HW154240   4.010  11.909   6.566  2.8537 -1.1355 -0.8387
47505SOL    HW254241   3.975  11.896   6.712 -1.1894  0.3248 -1.5648
47506SOL     OW54242  11.123   2.821   1.232 -0.0787  0.2913  0.2495
47506SOL    HW154243  11.031   2.795   1.243 -0.0672  0.1653  0.0469
47506SOL    HW254244  11.137   2.819   1.137  0.3240 -0.3282  0.3170
47507SOL     OW54245   0.820   7.731  11.596 -0.2910  0.2228  0.5225
47507SOL    HW154246   0.837   7.647  11.639 -0.9806  0.4731  1.3248
47507SOL    HW254247   0.733   7.720  11.558 -0.4877  0.6489  0.8407
47508SOL     OW54248   1.838  10.178   6.918  0.2122  1.3661 -0.4726
47508SOL    HW154249   1.777  10.209   6.985 -0.9125  0.4523 -1.0539
47508SOL    HW254250   1.812  10.223   6.838 -1.5253 -1.0530 -1.3620
47509SOL     OW54251   3.575   7.445   7.517  0.0580 -0.7684  0.1538
47509SOL    HW154252   3.560   7.433   7.610 -0.6515  0.0121  0.1588
47509SOL    HW254253   3.625   7.368   7.490 -3.0256 -3.0538  0.3968
47510SOL     OW54254   9.388   4.836   8.891  0.3377 -0.2337  0.3357
47510SOL    HW154255   9.463   4.895   8.897  0.8871 -0.6933 -1.3974
47510SOL    HW254256   9.314   4.887   8.923  1.1096  0.7970  0.5110
47511SOL     OW54257  11.913  13.563   1.247 -0.2632 -0.1915  0.2105
47511SOL    HW154258  11.953  13.610   1.174  0.0991 -0.6677  0.0982
47511SOL    HW254259  11.840  13.620   1.275 -1.0191 -0.4441 -1.1414
47512SOL     OW54260   4.992  13.049   6.497 -0.9917 -0.0633 -0.4605
47512SOL    HW154261   5.050  13.086   6.430  0.0940 -1.4991 -0.3739
47512SOL    HW254262   5.036  13.069   6.580 -0.6280 -1.0999 -0.3898
47513SOL     OW54263   9.257   9.345  11.069 -0.1981 -0.5841  0.3541
47513SOL    HW154264   9.315   9.418  11.044 -0.7720  0.2492  1.3388
47513SOL    HW254265   9.316   9.280  11.106  0.2887 -0.4797 -0.2164
47514SOL     OW54266  11.814  12.472   7.086 -0.3044 -0.0313 -0.1656
47514SOL    HW154267  11.874  12.503   7.155  0.8119 -3.3092  0.5240
47514SOL    HW254268  11.768  12.399   7.126 -0.2213 -1.5441 -2.6551
47515SOL     OW54269  13.390   3.465   6.721 -0.0904  0.2589 -0.6776
47515SOL    HW154270  13.328   3.405   6.761  0.1450  1.3698  1.5277
47515SOL    HW254271  13.339   3.512   6.655 -1.4873  0.7095  0.6521
47516SOL     OW54272   8.422   6.787   9.820 -0.5046  0.1925 -0.0817
47516SOL    HW154273   8.437   6.834   9.738 -1.4445 -0.8812 -0.9096
47516SOL    HW254274   8.420   6.855   9.887 -2.0362  1.3671 -1.2540
47517SOL     OW54275   3.765   8.762   0.983  0.0134 -0.3428 -0.0833
47517SOL    HW154276   3.761   8.794   0.893 -0.8790  2.5420  0.8641
47517SOL    HW254277   3.694   8.809   1.028  0.5554 -1.5483  2.1794
47518SOL     OW54278  10.382   6.727  11.451  0.0309  0.2126  0.0004
47518SOL    HW154279  10.422   6.742  11.536  1.2334  1.2806 -0.7172
47518SOL    HW254280  10.450   6.684  11.399  0.3072  1.9957 -1.2222
47519SOL     OW54281   1.252   5.976   4.996  0.0840 -0.0856  0.2451
47519SOL    HW154282   1.249   5.933   5.081  0.1920 -1.4230 -0.4028
47519SOL    HW254283   1.342   6.005   4.986 -0.1367  0.9347  0.9651
47520SOL     OW54284   8.143   7.191   6.523 -0.2451  0.3098  0.0905
47520SOL    HW154285   8.123   7.168   6.432 -0.6169 -0.8504  0.4569
47520SOL    HW254286   8.088   7.268   6.540  0.3069  0.9339 -0.8582
47521SOL     OW54287   1.843   1.100   9.857  0.2783  0.6284 -0.1252
47521SOL    HW154288   1.929   1.123   9.893  0.5165  0.2211 -0.4228
47521SOL    HW254289   1.822   1.172   9.798  1.2297 -0.0959 -1.4089
47522SOL     OW54290   8.403   0.968   9.013 -0.4046  0.5819  0.0364
47522SOL    HW154291   8.490   0.992   9.045 -0.5586  0.3955  0.6119
47522SOL    HW254292   8.398   0.873   9.024 -0.8802  0.6558  0.5286
47523SOL     OW54293   3.623   1.805   2.200 -0.2364  0.1195  0.0959
47523SOL    HW154294   3.610   1.867   2.272 -1.2704 -1.3697  1.2466
47523SOL    HW254295   3.718   1.797   2.192 -0.0468  2.1963 -0.4409
47524SOL     OW54296  11.157   7.262   1.606  0.0864 -0.2128  0.5166
47524SOL    HW154297  11.179   7.254   1.699  0.7830  0.7084  0.4425
47524SOL    HW254298  11.217   7.202   1.562 -0.4176 -0.8429  0.6751
47525SOL     OW54299   2.449   0.047  10.741  0.0422 -0.2938  0.0523
47525SOL    HW154300   2.516   0.054  10.809 -0.7977 -0.5413  0.9257
47525SOL    HW254301   2.393  -0.025  10.769 -0.3568 -0.3639 -0.8779
47526SOL     OW54302   0.809   9.106   1.868  0.5175 -0.3203  0.6517
47526SOL    HW154303   0.759   9.024   1.867  1.0824 -0.6642 -0.1122
47526SOL    HW254304   0.859   9.102   1.949  0.0644 -0.4288  0.9314
47527SOL     OW54305  12.114   4.431   4.942  0.8833  0.3854  0.5684
47527SOL    HW154306  12.093   4.442   5.035  0.4707 -1.1339  0.6795
47527SOL    HW254307  12.042   4.378   4.907  2.3887 -1.3802  0.0159
47528SOL     OW54308   4.868   4.752   6.656 -0.0011  0.9269 -0.5137
47528SOL    HW154309   4.881   4.824   6.717 -0.3807  1.4039 -0.9882
47528SOL    HW254310   4.773   4.743   6.650  0.0448  0.3413 -0.4041
47529SOL     OW54311   4.042  11.271   1.846 -0.2419  0.6153 -0.4172
47529SOL    HW154312   4.012  11.322   1.921  0.1448  0.4130 -0.1200
47529SOL    HW254313   4.119  11.223   1.878 -0.3518  0.1641 -0.8093
47530SOL     OW54314  13.437   3.363   3.942 -0.5357 -0.2750 -0.3279
47530SOL    HW154315  13.506   3.308   3.978 -0.3775 -1.2787 -2.0433
47530SOL    HW254316  13.431   3.437   4.002 -1.1042 -2.3446  2.3620
47531SOL     OW54317  12.886   1.081   4.507  0.5961  0.0226 -0.4880
47531SOL    HW154318  12.824   1.145   4.543  0.9152  0.4962 -0.7632
47531SOL    HW254319  12.903   1.020   4.579 -1.4240 -1.0794 -0.8532
47532SOL     OW54320   8.489   7.021   8.340  0.1468  0.4285  0.4145
47532SOL    HW154321   8.572   7.045   8.381  0.7840  2.7893 -1.9817
47532SOL    HW254322   8.425   7.079   8.380 -0.2735 -0.8230  1.6580
47533SOL     OW54323  10.739  11.149   3.150  0.0034 -0.3182  0.3844
47533SOL    HW154324  10.718  11.073   3.095  0.2185 -0.7097  0.8428
47533SOL    HW254325  10.704  11.224   3.101 -2.2306 -0.8975  0.9631
47534SOL     OW54326   6.083  12.538   7.905 -0.3920 -0.1430 -0.3324
47534SOL    HW154327   5.999  12.579   7.885 -0.6382 -0.9999 -1.1598
47534SOL    HW254328   6.063  12.444   7.912  0.3951 -0.2913  0.0698
47535SOL     OW54329   9.376   1.786   8.479  0.0012  0.2320 -0.2514
47535SOL    HW154330   9.437   1.777   8.552  0.2290 -1.5862 -0.6402
47535SOL    HW254331   9.298   1.827   8.518  0.6985  0.7221  0.6637
47536SOL     OW54332   4.499   1.017   1.006  0.2108  0.0437  0.2820
47536SOL    HW154333   4.567   1.012   1.073 -0.0074 -1.2939  0.4295
47536SOL    HW254334   4.444   0.940   1.023 -0.0905 -0.0778 -1.1708
47537SOL     OW54335   2.270   4.498   8.291  0.3098  0.2557  0.2242
47537SOL    HW154336   2.231   4.416   8.263  0.1415  0.3582  0.1555
47537SOL    HW254337   2.286   4.546   8.210 -0.1562  0.5425  0.2979
47538SOL     OW54338   9.991  11.900   1.513 -0.4069  0.3656 -0.3475
47538SOL    HW154339   9.914  11.921   1.460  0.4076  0.0376 -1.7223
47538SOL    HW254340  10.040  11.836   1.460  0.9087  0.7225  0.3814
47539SOL     OW54341   4.502   9.977  10.637 -0.3832 -0.3109  0.2175
47539SOL    HW154342   4.424   9.930  10.606 -0.1152 -0.0388 -0.9207
47539SOL    HW254343   4.509   9.954  10.729 -1.6219 -0.6041  0.2510
47540SOL     OW54344  11.132   7.849   5.952  0.7047 -0.2205  0.2073
47540SOL    HW154345  11.219   7.884   5.928  1.5013 -1.6412  0.9111
47540SOL    HW254346  11.141   7.824   6.044 -0.7213  0.3492  0.5188
47541SOL     OW54347   9.547   9.351   1.643 -0.1039 -0.0209 -0.0539
47541SOL    HW154348   9.558   9.444   1.623  0.3591 -0.0977 -0.1832
47541SOL    HW254349   9.509   9.350   1.731 -0.1355  0.2897 -0.0614
47542SOL     OW54350  12.175  12.320  10.937 -0.6692  0.0906  0.1149
47542SOL    HW154351  12.167  12.395  10.996  1.0724  1.8022 -1.6896
47542SOL    HW254352  12.129  12.348  10.858 -1.1866 -1.3519 -0.1228
47543SOL     OW54353   9.868   7.979  10.680  0.4653  0.1301 -0.3970
47543SOL    HW154354   9.880   7.885  10.668  1.1385  0.1699 -0.0681
47543SOL    HW254355   9.957   8.014  10.684  0.2976  0.4740  1.8728
47544SOL     OW54356   8.070  12.940   8.146 -0.4318 -0.7513 -0.4612
47544SOL    HW154357   8.046  13.016   8.199 -0.1324  0.2995 -1.7576
47544SOL    HW254358   8.087  12.870   8.209  0.7781  0.6830  0.8857
47545SOL     OW54359   4.837   0.509  12.506 -0.3791 -0.3138  0.6888
47545SOL    HW154360   4.918   0.477  12.466 -0.0556  2.1949 -0.8615
47545SOL    HW254361   4.843   0.483  12.598  1.7017 -1.0290  0.3885
47546SOL     OW54362  11.213  13.495  13.226  0.4334 -0.3305  0.2907
47546SOL    HW154363  11.245  13.425  13.170 -0.1019 -2.1295  2.1104
47546SOL    HW254364  11.280  13.563  13.218  0.4898 -0.5849 -2.2686
47547SOL     OW54365   6.127   2.358   6.695  0.5533 -0.4792 -0.1590
47547SOL    HW154366   6.134   2.287   6.631 -2.5555 -0.4438 -0.6795
47547SOL    HW254367   6.040   2.395   6.681  1.2183  2.0358  1.5893
47548SOL     OW54368   8.987  12.280  11.371  0.4125  0.4254  0.2070
47548SOL    HW154369   8.943  12.303  11.289  1.1385 -2.1228 -0.9880
47548SOL    HW254370   8.985  12.361  11.423 -0.9121  1.8478 -1.9121
47549SOL     OW54371   8.796   7.111   8.437  0.0586  0.3904  0.0612
47549SOL    HW154372   8.826   7.065   8.515 -2.1936  0.2089  0.9055
47549SOL    HW254373   8.742   7.183   8.470 -0.9119  0.3338 -1.3112
47550SOL     OW54374   4.562   3.626   8.035  0.6235  0.3352  0.0882
47550SOL    HW154375   4.575   3.664   7.948 -1.0906 -1.6396 -1.1120
47550SOL    HW254376   4.637   3.567   8.046  1.5958  1.6160  0.6079
47551SOL     OW54377   6.751  10.012   4.499 -0.2953  0.0027  0.3040
47551SOL    HW154378   6.774   9.923   4.525  0.5860 -0.4914 -1.9490
47551SOL    HW254379   6.659  10.006   4.473 -0.0731 -0.4117 -0.4178
47552SOL     OW54380   4.298  10.212   7.349  0.1143  0.1069  0.3373
47552SOL    HW154381   4.330  10.263   7.275 -0.0079 -0.5454 -0.1753
47552SOL    HW254382   4.206  10.195   7.328  0.2578 -0.6542  0.3134
47553SOL     OW54383   0.054   4.634  11.050  0.1575 -0.2587  0.1430
47553SOL    HW154384   0.039   4.540  11.043 -1.3436  0.0184 -0.9135
47553SOL    HW254385   0.044   4.654  11.143 -1.0041 -0.9380  0.1770
47554SOL     OW54386   4.405   5.186   7.949 -0.0172 -0.2466 -0.9356
47554SOL    HW154387   4.319   5.192   7.991 -0.0703 -1.2952 -0.8601
47554SOL    HW254388   4.386   5.155   7.860  0.2745 -0.3601 -0.9592
47555SOL     OW54389  10.296   4.294  12.730  0.2695 -0.4683 -0.0635
47555SOL    HW154390  10.215   4.275  12.681  1.0298  0.2078 -1.6436
47555SOL    HW254391  10.310   4.388  12.718  0.0755 -0.1021  2.1556
47556SOL     OW54392   6.107   7.444   9.274 -0.5084  0.4498 -0.2076
47556SOL    HW154393   6.162   7.394   9.215 -0.3646 -0.1288  0.4020
47556SOL    HW254394   6.169   7.491   9.331 -0.6431  1.1062 -0.5935
47557SOL     OW54395   1.670  11.852   4.824 -0.2391 -0.4066 -0.3297
47557SOL    HW154396   1.698  11.772   4.869  0.0847 -0.8393 -1.2723
47557SOL    HW254397   1.724  11.855   4.745 -0.7392  0.3745 -0.6530
47558SOL     OW54398  11.454   8.777   3.360 -0.4830 -0.0295  1.0073
47558SOL    HW154399  11.539   8.818   3.346  0.0194 -1.5902 -0.8700
47558SOL    HW254400  11.473   8.695   3.406 -1.0770  0.0091  1.3447
47559SOL     OW54401   1.111   3.305   3.632  0.6635 -0.2017 -0.0853
47559SOL    HW154402   1.087   3.375   3.693 -1.2777 -1.1567  0.3353
47559SOL    HW254403   1.178   3.254   3.677 -0.0696 -0.3430  0.8741
47560SOL     OW54404  11.190   6.605  11.378  0.1985 -0.1618 -0.0465
47560SOL    HW154405  11.193   6.682  11.322  0.2959  0.2411  0.5040
47560SOL    HW254406  11.154   6.536  11.322 -0.2219  0.3684 -0.4387
47561SOL     OW54407  11.608   5.753  12.371 -0.2540  0.0407 -0.0966
47561SOL    HW154408  11.703   5.745  12.365 -0.2798 -2.0780  1.2497
47561SOL    HW254409  11.583   5.688  12.437 -2.4982  1.6126  0.7117
47562SOL     OW54410   6.388   4.795   7.656 -0.5450  0.0462  0.4853
47562SOL    HW154411   6.372   4.872   7.601 -2.1523 -0.7919 -0.2651
47562SOL    HW254412   6.482   4.800   7.676  0.0293  0.6179 -1.9852
47563SOL     OW54413  13.145  10.510  10.663  0.3464  0.0664  0.3965
47563SOL    HW154414  13.050  10.514  10.657  0.3187  0.6138  1.1834
47563SOL    HW254415  13.163  10.427  10.709  0.3128 -0.6898 -0.9030
47564SOL     OW54416   4.597   8.980   5.590 -0.0230 -0.2329 -0.5597
47564SOL    HW154417   4.633   8.968   5.679 -0.0732 -1.4246 -0.6910
47564SOL    HW254418   4.665   9.030   5.544  2.4525 -3.8897 -1.3245
47565SOL     OW54419   7.403   7.942   5.445  0.2886  0.2666 -0.7036
47565SOL    HW154420   7.324   7.898   5.476  0.1019  0.4643 -0.8958
47565SOL    HW254421   7.403   7.929   5.350  0.0895  0.8988 -0.7989
47566SOL     OW54422  12.459   3.813   9.726  0.1248 -0.2988 -0.2241
47566SOL    HW154423  12.483   3.879   9.661  0.2870  0.1409  0.2699
47566SOL    HW254424  12.434   3.864   9.803 -2.9712 -0.6856 -0.8460
47567SOL     OW54425   6.491   7.240   6.242  0.0224 -0.2386 -0.6489
47567SOL    HW154426   6.552   7.255   6.170 -0.7531 -1.3932 -1.5982
47567SOL    HW254427   6.503   7.315   6.301  0.0652  1.2101 -2.4176
47568SOL     OW54428   3.972   3.187   4.969 -0.3554  0.0171 -0.0880
47568SOL    HW154429   3.903   3.160   5.030 -0.8680 -0.3383 -0.8037
47568SOL    HW254430   4.030   3.242   5.021 -1.1103  0.2162  0.5721
47569SOL     OW54431   0.706   2.688   5.487  0.5246 -0.4539 -0.3413
47569SOL    HW154432   0.706   2.686   5.391 -0.9841  1.9662 -0.4712
47569SOL    HW254433   0.752   2.768   5.509 -1.2149  0.2896  0.8207
47570SOL     OW54434   4.253   8.677   4.549 -0.2490  0.1049  0.2673
47570SOL    HW154435   4.212   8.709   4.629 -0.2944 -0.4309  0.4630
47570SOL    HW254436   4.345   8.701   4.558 -0.1622 -0.3680  0.7031
47571SOL     OW54437   6.317   7.304   9.911  0.0266  0.3500  0.1862
47571SOL    HW154438   6.361   7.369   9.857 -0.6049  1.1155  0.5768
47571SOL    HW254439   6.375   7.228   9.909  0.1863  0.4871 -1.2619
47572SOL     OW54440  11.385   2.932   2.904  0.2034  0.3518  0.1277
47572SOL    HW154441  11.417   2.860   2.849  0.0524  0.4359 -0.0679
47572SOL    HW254442  11.299   2.954   2.869 -0.5847 -0.6407  1.3741
47573SOL     OW54443  12.045  12.558  10.683 -0.3218 -0.1130  0.1738
47573SOL    HW154444  12.124  12.612  10.679  0.3401 -1.0083  0.7365
47573SOL    HW254445  12.003  12.571  10.598  1.7744 -1.6081 -1.1888
47574SOL     OW54446   1.654   9.840   1.026  0.8413 -0.2249 -0.5632
47574SOL    HW154447   1.563   9.821   1.049  0.9570 -0.7351 -0.5086
47574SOL    HW254448   1.702   9.832   1.108  0.8115  0.9295 -0.4139
47575SOL     OW54449   7.017   9.997   9.826 -0.2547 -0.2828  0.4920
47575SOL    HW154450   6.953  10.059   9.793 -0.6314 -1.1039 -0.3691
47575SOL    HW254451   7.009  10.002   9.921 -2.2013 -0.9673  0.4003
47576SOL     OW54452  11.394   3.807  12.175  0.2049 -0.2378  0.1893
47576SOL    HW154453  11.481   3.800  12.137  0.3180 -0.5102  0.4891
47576SOL    HW254454  11.341   3.847  12.107  0.9193  1.4254  0.5625
47577SOL     OW54455  12.445  11.121   1.413 -0.1699  0.5399 -0.0818
47577SOL    HW154456  12.462  11.212   1.390  3.7436  0.0060  0.1520
47577SOL    HW254457  12.492  11.070   1.346 -0.5275 -1.2743  0.9780
47578SOL     OW54458  13.666   7.136   9.770  0.4260 -0.4388  0.1900
47578SOL    HW154459  13.629   7.082   9.841 -1.6052  0.3514 -0.1927
47578SOL    HW254460  13.674   7.223   9.809  0.0516 -0.1798 -0.3002
47579SOL     OW54461  10.832   5.592   3.125 -0.3282  0.7988 -0.2133
47579SOL    HW154462  10.916   5.557   3.097 -0.3832 -0.1192  0.7351
47579SOL    HW254463  10.773   5.575   3.052 -0.1523 -0.3369 -0.1017
47580SOL     OW54464   7.467   9.478   3.406 -0.1017 -0.1981 -0.7605
47580SOL    HW154465   7.394   9.428   3.369 -0.4439 -0.0627 -0.2788
47580SOL    HW254466   7.544   9.446   3.359 -0.3557 -0.9778 -0.6693
47581SOL     OW54467   4.425   0.428   2.802  0.2000 -0.0836 -0.0662
47581SOL    HW154468   4.339   0.433   2.758  0.5771 -0.7183 -0.8992
47581SOL    HW254469   4.409   0.464   2.889 -0.6484  0.9093 -0.6051
47582SOL     OW54470   9.298  10.898  10.329  0.0976 -0.5449  0.1992
47582SOL    HW154471   9.300  10.967  10.396 -1.5760 -1.4696  1.2850
47582SOL    HW254472   9.386  10.861  10.330  0.6885  0.8049  0.4105
47583SOL     OW54473   0.531  11.155   7.324 -0.1998 -0.0959  0.1438
47583SOL    HW154474   0.545  11.069   7.284 -0.8853  0.3483 -1.1389
47583SOL    HW254475   0.562  11.146   7.413  0.0407 -1.5859 -0.0661
47584SOL     OW54476   4.942   2.779   0.951  0.3877  0.3005 -0.4213
47584SOL    HW154477   4.953   2.688   0.922 -2.9019  0.0130 -1.1701
47584SOL    HW254478   5.027   2.802   0.989  0.9394 -3.5524  1.1679
47585SOL     OW54479   1.631  12.403   2.411  0.8887 -0.0923 -0.2214
47585SOL    HW154480   1.692  12.334   2.436  0.1145 -0.9568 -0.6621
47585SOL    HW254481   1.646  12.473   2.475  2.1977 -0.3568 -0.2177
47586SOL     OW54482  10.662   2.845  10.634 -0.0880 -0.4365  0.1569
47586SOL    HW154483  10.653   2.915  10.699  0.5400  0.5473 -0.7965
47586SOL    HW254484  10.579   2.844  10.587  0.2385  0.3341 -0.4618
47587SOL     OW54485   8.020   1.487   3.677 -0.3559  0.4453 -0.3123
47587SOL    HW154486   7.952   1.469   3.741 -1.4529  1.7932 -1.0498
47587SOL    HW254487   7.990   1.444   3.597 -0.3168  0.9614 -0.6128
47588SOL     OW54488   6.965   5.142   6.873  0.6810 -0.8109 -0.1188
47588SOL    HW154489   7.000   5.139   6.784  0.0189 -0.5772 -0.3912
47588SOL    HW254490   6.940   5.233   6.886 -1.7559 -1.3334 -0.7030
47589SOL     OW54491   3.382   3.794  11.228  0.1899 -0.4063  0.0010
47589SOL    HW154492   3.290   3.818  11.243  0.5421  0.6629  0.5390
47589SOL    HW254493   3.387   3.702  11.253 -0.7802 -0.5235 -0.2040
47590SOL     OW54494  12.649   8.900   4.737 -0.1541 -0.2640 -0.1660
47590SOL    HW154495  12.616   8.830   4.680 -1.1769  0.5129 -0.5773
47590SOL    HW254496  12.606   8.884   4.821 -1.0029  0.2874 -0.4770
47591SOL     OW54497   1.527   9.599   5.959  0.4280 -0.6923  0.0588
47591SOL    HW154498   1.540   9.693   5.962  0.7767 -0.7449  0.2367
47591SOL    HW254499   1.478   9.584   5.878 -2.0988 -0.0640  1.3463
47592SOL     OW54500   1.233  10.377   4.455  0.4471  0.1531  0.0858
47592SOL    HW154501   1.167  10.444   4.469 -2.3428 -2.1063 -1.0517
47592SOL    HW254502   1.312  10.409   4.499 -1.6243  2.6744  2.2197
47593SOL     OW54503   7.598   5.414   8.684 -0.1374 -0.2268 -0.3802
47593SOL    HW154504   7.590   5.459   8.768  0.1522  0.0562 -0.5015
47593SOL    HW254505   7.554   5.330   8.697  0.6472 -0.5340  0.3120
47594SOL     OW54506   3.149  11.949   1.310 -0.5755 -0.0881  0.3862
47594SOL    HW154507   3.119  11.967   1.400 -0.1030  0.9895  0.3474
47594SOL    HW254508   3.229  12.001   1.301  0.3112 -1.4810 -0.1228
47595SOL     OW54509   8.075   7.006  12.117 -0.0656 -0.4152  0.1254
47595SOL    HW154510   7.992   7.052  12.134 -1.1090 -2.2583  0.3158
47595SOL    HW254511   8.127   7.069  12.067 -1.1622  1.1814  0.8864
47596SOL     OW54512   9.033  11.896   6.828 -0.1194  0.5462  0.0553
47596SOL    HW154513   9.035  11.922   6.921  0.3847  0.5558  0.0402
47596SOL    HW254514   9.117  11.853   6.813  0.9303  2.8028 -1.0449
47597SOL     OW54515   6.008   7.510   7.430 -0.5420  0.2064 -0.1262
47597SOL    HW154516   5.935   7.485   7.486 -0.0534 -1.9875 -0.3799
47597SOL    HW254517   5.969   7.570   7.366 -1.8441 -0.0014  0.4350
47598SOL     OW54518  12.324  13.562   3.003  0.0606 -0.0834  0.2300
47598SOL    HW154519  12.413  13.577   3.033  0.4849 -2.0629  0.0827
47598SOL    HW254520  12.312  13.625   2.932  1.7377 -0.4640 -0.4486
47599SOL     OW54521   4.014   0.538   4.265 -0.2209  0.5496 -0.5708
47599SOL    HW154522   4.050   0.626   4.267 -1.1432  0.9227  0.9898
47599SOL    HW254523   3.926   0.549   4.227  1.1977 -0.3931 -4.6539
47600SOL     OW54524   8.455   4.693  12.598 -0.5610  0.4518 -0.7538
47600SOL    HW154525   8.408   4.616  12.632 -1.0979  0.7376 -0.8347
47600SOL    HW254526   8.547   4.672  12.610 -0.7282  0.6367  1.1097
47601SOL     OW54527   3.560   8.099   4.683  0.2552  0.2523  0.5213
47601SOL    HW154528   3.478   8.057   4.709  0.5920 -0.3452  0.6415
47601SOL    HW254529   3.583   8.155   4.757 -0.5874  1.2510  0.0493
47602SOL     OW54530   6.337   2.683   3.965  0.3141 -0.1293 -0.0159
47602SOL    HW154531   6.297   2.758   3.922 -0.3352 -0.0185  0.7581
47602SOL    HW254532   6.403   2.721   4.023  0.8003 -0.2438 -0.4803
47603SOL     OW54533   2.937  10.882   1.234 -0.5373 -0.2652 -0.0245
47603SOL    HW154534   2.880  10.951   1.269 -0.9796  0.3215 -1.7855
47603SOL    HW254535   2.893  10.800   1.259 -0.1117  0.0325  1.9117
47604SOL     OW54536   3.521  13.135   5.444  0.3416 -0.1789  0.3213
47604SOL    HW154537   3.432  13.169   5.450 -0.1581 -1.3330 -0.0657
47604SOL    HW254538   3.530  13.108   5.352  0.4660 -1.6012  0.7148
47605SOL     OW54539   6.439   1.875   3.794 -0.7470 -0.4925  0.2795
47605SOL    HW154540   6.422   1.792   3.750  0.3237  0.0811 -1.3236
47605SOL    HW254541   6.360   1.927   3.780 -0.6833 -0.5699 -0.3715
47606SOL     OW54542   6.179   3.768  13.139 -0.0800 -0.0304  0.3410
47606SOL    HW154543   6.181   3.862  13.126  1.3674  0.0670  1.1651
47606SOL    HW254544   6.135   3.734  13.060 -1.2455  1.3503  0.3586
47607SOL     OW54545   5.825   3.739  11.675  0.7412 -0.8637 -0.2856
47607SOL    HW154546   5.749   3.723  11.620  1.5534 -0.6668 -1.5032
47607SOL    HW254547   5.870   3.655  11.680  0.1874 -1.1241  0.8995
47608SOL     OW54548  10.293   8.643   0.372  0.0052 -0.4304  0.1050
47608SOL    HW154549  10.370   8.700   0.377 -0.1265  0.3265 -3.6355
47608SOL    HW254550  10.330   8.555   0.362  0.5167 -0.0212 -2.1734
47609SOL     OW54551   7.458   1.752  13.045 -0.8679  0.1794 -0.0409
47609SOL    HW154552   7.524   1.746  12.975 -2.3794  0.1754 -1.5476
47609SOL    HW254553   7.465   1.668  13.091  1.5992  0.9929  1.2641
47610SOL     OW54554   2.470   7.532   9.242  0.1192  0.1703  0.2922
47610SOL    HW154555   2.538   7.498   9.184  1.1424 -0.5461  1.8367
47610SOL    HW254556   2.391   7.533   9.189  1.3062  1.0347 -1.5699
47611SOL     OW54557  12.355  10.093   5.690 -0.1297 -0.3704  0.8282
47611SOL    HW154558  12.427  10.039   5.723 -1.2383 -0.6046  3.0539
47611SOL    HW254559  12.291  10.030   5.658  1.2921 -0.1474 -2.9734
47612SOL     OW54560  13.330   3.553  11.170  0.3533  0.2407  0.5216
47612SOL    HW154561  13.392   3.484  11.148 -0.6738 -0.8203  0.8651
47612SOL    HW254562  13.303   3.534  11.260 -3.1052 -1.4907 -0.6733
47613SOL     OW54563  12.160   6.809   6.669  0.5991 -0.4666  0.0065
47613SOL    HW154564  12.157   6.793   6.574  1.9164  1.4509 -0.4103
47613SOL    HW254565  12.112   6.735   6.707 -0.4252 -1.0065 -2.1783
47614SOL     OW54566   4.746   8.235  12.594  0.4467  0.0651  0.0303
47614SOL    HW154567   4.674   8.256  12.534 -0.3625  2.5681  1.6973
47614SOL    HW254568   4.805   8.310  12.587  1.0921 -0.3149  1.2367
47615SOL     OW54569   7.969   7.999   8.163 -0.1936  0.3407  0.1788
47615SOL    HW154570   7.885   7.998   8.117 -0.0985  0.6045 -0.0006
47615SOL    HW254571   8.012   8.079   8.133  0.2328  0.0749  0.0668
47616SOL     OW54572   8.538   8.221   1.551 -0.2807 -0.2981  0.2397
47616SOL    HW154573   8.572   8.145   1.503 -1.8746 -0.6930 -0.3218
47616SOL    HW254574   8.555   8.295   1.493 -1.2106 -0.6246 -0.4754
47617SOL     OW54575  10.010  10.449  13.045  0.4735 -0.7471  0.2003
47617SOL    HW154576  10.011  10.500  12.964  0.6973 -1.1251 -0.0343
47617SOL    HW254577   9.960  10.370  13.024 -1.7545  0.3027  1.1369
47618SOL     OW54578   9.322   9.054   5.412 -0.4119 -0.0906  0.6052
47618SOL    HW154579   9.235   9.017   5.399 -0.3675 -0.7688  2.0337
47618SOL    HW254580   9.381   8.992   5.369 -0.6146  0.4298 -0.4659
47619SOL     OW54581   1.721  10.262   4.299  0.0973  0.0584 -0.9587
47619SOL    HW154582   1.776  10.183   4.291 -0.0985  0.0152 -2.1119
47619SOL    HW254583   1.782  10.332   4.321  0.3054 -0.3716 -0.1372
47620SOL     OW54584   1.873   0.907   4.270  0.0257 -0.1485 -0.4071
47620SOL    HW154585   1.909   0.916   4.359 -0.0049  0.5213 -0.4565
47620SOL    HW254586   1.783   0.877   4.284 -0.0911  0.2872 -0.1918
47621SOL     OW54587   5.033   4.624  11.777  0.1813  0.3720  0.1776
47621SOL    HW154588   5.051   4.629  11.683  1.3388 -0.1107  0.3632
47621SOL    HW254589   5.113   4.590  11.815  0.1072  1.5450  1.4741
47622SOL     OW54590   1.346  11.148  12.355  0.0826  0.1986  0.9784
47622SOL    HW154591   1.372  11.105  12.437 -1.0129  0.0469  1.2577
47622SOL    HW254592   1.302  11.228  12.384  1.9086  1.4571  0.4725
47623SOL     OW54593   6.182  12.867   9.113  0.4215  0.1115  0.0601
47623SOL    HW154594   6.132  12.949   9.120 -0.0710  0.2121 -3.0757
47623SOL    HW254595   6.118  12.802   9.085  1.3928 -0.5225 -0.7878
47624SOL     OW54596   2.590   0.801   8.739 -0.3888 -0.2494  0.1273
47624SOL    HW154597   2.617   0.710   8.746 -0.3766 -0.4070 -1.5100
47624SOL    HW254598   2.670   0.848   8.715 -0.5033  0.1129  0.4368
47625SOL     OW54599   4.497   7.282   9.960  0.8332 -0.3370  0.6243
47625SOL    HW154600   4.478   7.262  10.052  0.1929 -1.6392  0.2298
47625SOL    HW254601   4.427   7.240   9.911  1.3545  0.0586 -0.4984
47626SOL     OW54602   5.736   7.655  11.631  0.6147  0.2468 -0.1695
47626SOL    HW154603   5.753   7.561  11.625 -1.6225 -0.1725 -0.7145
47626SOL    HW254604   5.803   7.688  11.691  1.3069 -1.7220  0.1919
47627SOL     OW54605   8.930  10.498  12.219  0.7324  0.3782  0.0114
47627SOL    HW154606   8.858  10.448  12.258 -0.2409 -0.2644 -2.4466
47627SOL    HW254607   8.997  10.500  12.288  0.1958 -2.9901  0.8366
47628SOL     OW54608   2.960   3.244  10.846  0.1989 -0.2478  0.4202
47628SOL    HW154609   3.017   3.265  10.920  0.8785 -0.2738 -0.0869
47628SOL    HW254610   2.935   3.153  10.859  0.5855 -0.3500  0.4428
47629SOL     OW54611   3.868   6.960   5.615 -0.3516 -0.2032  0.1290
47629SOL    HW154612   3.777   6.947   5.589 -0.3309  0.1314 -0.1272
47629SOL    HW254613   3.884   6.894   5.682 -1.0847  0.3713  0.8922
47630SOL     OW54614  10.426   9.777   0.238  0.7103  0.2998 -0.5240
47630SOL    HW154615  10.420   9.818   0.152  1.2395 -0.5071 -0.9576
47630SOL    HW254616  10.443   9.850   0.298  0.7658  0.8190 -1.1582
47631SOL     OW54617   5.743   1.139   4.130  0.4225 -0.0848 -0.2398
47631SOL    HW154618   5.682   1.073   4.163  1.5074 -1.3579 -0.6903
47631SOL    HW254619   5.687   1.211   4.102 -0.7512 -0.4818  0.9521
47632SOL     OW54620   2.809   7.408   9.509  0.5170 -0.2528  0.4000
47632SOL    HW154621   2.821   7.313   9.509 -0.1942 -0.3729 -1.4811
47632SOL    HW254622   2.891   7.442   9.474  0.5148 -0.2178  0.4285
47633SOL     OW54623   3.984   9.553   6.496  0.2015 -0.6499  0.1676
47633SOL    HW154624   3.967   9.561   6.590 -1.9085  0.4818 -0.2428
47633SOL    HW254625   3.950   9.466   6.473  0.6293 -0.8871  0.4264
47634SOL     OW54626   6.283  12.829  10.402  0.2359 -0.7469  0.0228
47634SOL    HW154627   6.294  12.742  10.439  0.3123 -0.2997  1.0922
47634SOL    HW254628   6.370  12.852  10.368  0.1167 -1.2402 -0.6286
47635SOL     OW54629  12.565   4.425   1.869 -0.1980  0.0301  0.0497
47635SOL    HW154630  12.655   4.456   1.873 -0.6049  1.1770  0.9946
47635SOL    HW254631  12.562   4.352   1.931 -0.2453  0.9629  1.1930
47636SOL     OW54632   5.945   4.148  11.856 -0.3776 -0.0736 -0.4238
47636SOL    HW154633   5.912   4.168  11.943 -1.9516 -1.4387 -0.6539
47636SOL    HW254634   6.031   4.190  11.852 -1.5718  2.7027  0.6345
47637SOL     OW54635   6.532   4.757  12.770 -0.1908 -0.2738 -0.3246
47637SOL    HW154636   6.614   4.781  12.815 -0.2723  0.2070 -0.4284
47637SOL    HW254637   6.490   4.840  12.750 -1.0047 -0.5363  0.2659
47638SOL     OW54638  11.962  12.810   7.256  0.1743 -0.5021 -0.1797
47638SOL    HW154639  11.973  12.718   7.231 -1.3341 -1.0335  0.9863
47638SOL    HW254640  11.879  12.836   7.216  0.9288  0.6039 -1.0926
47639SOL     OW54641  12.564   4.751   2.022  0.1207  0.2297 -0.2055
47639SOL    HW154642  12.648   4.713   1.998  0.0988  0.5787 -0.8448
47639SOL    HW254643  12.543   4.811   1.951 -1.5773 -1.2512 -1.0512
47640SOL     OW54644   2.442   5.269   9.176  0.4887  0.3992  0.1607
47640SOL    HW154645   2.475   5.346   9.129 -0.3211  0.6301 -0.0472
47640SOL    HW254646   2.470   5.282   9.267 -1.3354  1.9579  0.5525
47641SOL     OW54647   5.353   4.496  10.883  0.1304 -0.3446 -0.1020
47641SOL    HW154648   5.443   4.528  10.892 -0.0559 -0.3465  2.4159
47641SOL    HW254649   5.299   4.576  10.883 -0.0179 -0.4219  1.2818
47642SOL     OW54650   7.118   6.179   8.813  0.2464  0.5930  0.3054
47642SOL    HW154651   7.164   6.153   8.733 -1.0086 -2.5069  0.4617
47642SOL    HW254652   7.108   6.274   8.805  0.0338  0.4063 -3.3151
47643SOL     OW54653   8.757   7.820   1.478  0.3472 -0.1496 -0.1805
47643SOL    HW154654   8.808   7.789   1.552  2.2486 -1.7189 -2.0387
47643SOL    HW254655   8.804   7.898   1.447 -0.3812  0.4407  0.1476
47644SOL     OW54656   4.809   0.258   1.206 -0.1945  0.4892 -0.3185
47644SOL    HW154657   4.817   0.313   1.284 -1.0619  0.2998 -0.0765
47644SOL    HW254658   4.803   0.169   1.240  0.2455  0.3279 -0.6542
47645SOL     OW54659   3.446   3.145   9.447  0.9350 -0.0739  0.0553
47645SOL    HW154660   3.407   3.080   9.389  0.1683  0.0021  0.4621
47645SOL    HW254661   3.417   3.229   9.412  2.2631  0.0922 -0.7113
47646SOL     OW54662   6.605  11.149   3.921 -0.1891  0.3904 -0.0413
47646SOL    HW154663   6.594  11.241   3.943 -0.9206  0.3200 -0.0709
47646SOL    HW254664   6.583  11.103   4.002  0.9947  0.2620  0.2252
47647SOL     OW54665  12.795   6.963   0.346 -0.2270 -0.0054 -0.5092
47647SOL    HW154666  12.719   6.956   0.289 -0.0365 -1.5466 -0.6164
47647SOL    HW254667  12.821   7.055   0.340 -0.2265 -0.1078 -2.8989
47648SOL     OW54668  12.863   9.799   0.892  0.4888  0.1467 -0.1360
47648SOL    HW154669  12.877   9.753   0.975  0.5029 -0.5091 -0.5019
47648SOL    HW254670  12.844   9.730   0.829  1.3389  0.5689 -0.8752
47649SOL     OW54671   2.981   5.634   5.169 -0.9813 -0.0783  0.0884
47649SOL    HW154672   2.946   5.604   5.252 -1.0577 -0.1754  0.0209
47649SOL    HW254673   3.075   5.617   5.174 -0.4004  2.8360  1.4594
47650SOL     OW54674  13.423   8.130   1.001  0.1597 -0.2872 -0.1718
47650SOL    HW154675  13.358   8.061   1.009 -0.5006 -0.3046 -3.6974
47650SOL    HW254676  13.401   8.174   0.918  1.7479  2.8690  0.8930
47651SOL     OW54677  10.302   7.473   0.865  0.2475  0.3667 -0.4455
47651SOL    HW154678  10.391   7.467   0.830  0.5464  0.5092  0.2628
47651SOL    HW254679  10.315   7.476   0.960 -0.4829  0.9616 -0.3618
47652SOL     OW54680   6.001   4.100  11.233 -0.5719  0.1318  1.1228
47652SOL    HW154681   5.995   4.150  11.314 -1.4568  1.3644  0.3400
47652SOL    HW254682   6.075   4.040  11.247  0.1654  1.2552  2.3260
47653SOL     OW54683  12.394   6.514   9.821 -0.3861 -0.1952 -0.0050
47653SOL    HW154684  12.381   6.430   9.865  0.3525  0.1867  1.0000
47653SOL    HW254685  12.308   6.555   9.820 -1.0026 -1.4453 -1.5790
47654SOL     OW54686   2.775   8.902   5.703  0.0819 -0.0979 -0.7245
47654SOL    HW154687   2.764   8.948   5.786 -0.2642  0.3345 -1.0000
47654SOL    HW254688   2.685   8.879   5.677  0.2281 -0.6709 -0.7363
47655SOL     OW54689   0.393   1.326   0.269 -0.1153 -0.0857  0.1116
47655SOL    HW154690   0.408   1.252   0.210  0.0607  0.4307 -0.5063
47655SOL    HW254691   0.464   1.386   0.250 -1.7445  1.4898 -1.3832
47656SOL     OW54692   5.261  11.908   2.961  0.0657 -1.0051  0.0632
47656SOL    HW154693   5.343  11.951   2.937  1.3789 -3.0398  0.6190
47656SOL    HW254694   5.243  11.939   3.050 -0.0662 -0.1571 -0.2506
47657SOL     OW54695   5.344  10.052  10.271  0.4987  0.6516  0.5818
47657SOL    HW154696   5.331   9.972  10.219 -0.3776  0.0911  1.6369
47657SOL    HW254697   5.332  10.024  10.361  2.2351  1.5646  1.1488
47658SOL     OW54698  13.632  10.979   6.127 -0.2973 -0.5648  0.7034
47658SOL    HW154699  13.691  11.049   6.098  0.0129 -1.1271 -0.0826
47658SOL    HW254700  13.545  11.018   6.125 -0.6609 -1.1410 -3.4018
47659SOL     OW54701   1.775   5.837   7.939  0.2168 -0.1077 -0.5243
47659SOL    HW154702   1.761   5.790   8.021  0.8475 -1.1424 -0.9833
47659SOL    HW254703   1.690   5.873   7.917 -0.1427 -0.5020  0.1755
47660SOL     OW54704   4.888   5.865   9.402  0.4492  0.2989 -0.5975
47660SOL    HW154705   4.871   5.952   9.367 -0.3043  0.7546  0.8257
47660SOL    HW254706   4.969   5.875   9.453  1.1340 -0.1823 -1.5646
47661SOL     OW54707   8.183   4.946  13.504 -0.1684  0.4049  0.0423
47661SOL    HW154708   8.161   4.954  13.411 -1.9809 -1.3382  0.2551
47661SOL    HW254709   8.101   4.963  13.550  0.6889  1.1836  1.3610
47662SOL     OW54710   2.967   5.254   6.351 -0.5989 -0.1006 -0.1269
47662SOL    HW154711   3.002   5.165   6.337 -0.9130  0.0131 -1.8732
47662SOL    HW254712   2.963   5.263   6.446  1.5827 -1.1174  0.1253
47663SOL     OW54713   7.578   0.200   1.084 -0.1551  0.3943 -0.0342
47663SOL    HW154714   7.506   0.249   1.043 -2.3513 -4.0552 -2.2508
47663SOL    HW254715   7.543   0.175   1.170 -0.8135 -0.6461 -0.5790
47664SOL     OW54716   6.573   1.054   8.366 -0.1713 -0.4899 -0.0006
47664SOL    HW154717   6.507   1.085   8.304  0.2014  0.7703  0.2040
47664SOL    HW254718   6.535   1.070   8.452  0.9967  1.8510  0.1798
47665SOL     OW54719   9.284   0.481   7.326 -0.2739  0.8693  0.1113
47665SOL    HW154720   9.302   0.435   7.408 -1.1597  0.9407  0.3611
47665SOL    HW254721   9.370   0.501   7.290  0.2935  3.3912  2.4367
47666SOL     OW54722   6.348   3.512  12.566 -0.3148  0.1002 -0.3895
47666SOL    HW154723   6.383   3.466  12.490 -2.4779  0.4791 -1.6916
47666SOL    HW254724   6.360   3.605  12.546 -4.5026  0.4373 -2.3464
47667SOL     OW54725   8.947  13.342   4.459 -0.2671 -0.2670  0.0628
47667SOL    HW154726   9.039  13.357   4.436 -0.8803  2.4843 -1.0847
47667SOL    HW254727   8.917  13.428   4.490 -2.3572 -1.2005  0.7637
47668SOL     OW54728  12.318   0.722   5.510 -0.8964 -0.3539 -0.5460
47668SOL    HW154729  12.344   0.666   5.436  0.7512 -0.8030  0.3045
47668SOL    HW254730  12.351   0.809   5.487  0.4151 -0.6727 -0.0103
47669SOL     OW54731   7.093  10.802   7.192 -0.0346  0.2882  0.2449
47669SOL    HW154732   7.091  10.865   7.264 -0.5689  0.3622  0.1685
47669SOL    HW254733   7.142  10.847   7.123 -0.9427  0.8804 -0.0380
47670SOL     OW54734   0.015  12.756  10.215  0.4929 -0.0590 -0.1164
47670SOL    HW154735   0.089  12.750  10.276 -0.1899 -0.1394  0.7209
47670SOL    HW254736  -0.033  12.674  10.227 -1.5188  1.2859  1.7321
47671SOL     OW54737   3.312   3.218   9.158 -0.1885  0.1589  0.2359
47671SOL    HW154738   3.357   3.302   9.146  1.2513 -0.8154 -1.6861
47671SOL    HW254739   3.227   3.242   9.196  0.6613  2.3541  0.9389
47672SOL     OW54740  11.020   1.659  10.052  0.4314 -0.8141  0.2621
47672SOL    HW154741  11.102   1.646  10.101  0.7756 -1.6337 -0.4992
47672SOL    HW254742  11.028   1.747  10.016  0.6543 -0.6118  0.7923
47673SOL     OW54743   7.423   4.561  11.967 -0.2118  0.4334 -0.0764
47673SOL    HW154744   7.472   4.522  12.039  1.5163  1.3817 -0.6789
47673SOL    HW254745   7.332   4.563  11.998  0.1315 -1.2132  1.1555
47674SOL     OW54746  11.212  13.114   3.693  0.3835  0.1417 -0.3255
47674SOL    HW154747  11.117  13.125   3.681  0.5441  0.8898 -0.9181
47674SOL    HW254748  11.233  13.035   3.643  0.0019 -0.3195  0.2157
47675SOL     OW54749   0.457   7.960   8.536 -0.0421 -0.4674  0.0876
47675SOL    HW154750   0.439   7.970   8.442  0.0555 -0.4480  0.0710
47675SOL    HW254751   0.415   8.036   8.576  0.1076 -0.3568  0.0361
47676SOL     OW54752  12.090   2.232   8.259  0.4146 -0.0312  0.3297
47676SOL    HW154753  12.138   2.226   8.341  0.6479  1.7379  0.3797
47676SOL    HW254754  12.130   2.306   8.214  0.0647 -0.7667 -1.2348
47677SOL     OW54755   4.316  12.045   7.835  0.3120 -0.6521 -0.5162
47677SOL    HW154756   4.262  12.122   7.815  0.3269 -0.2740  0.7814
47677SOL    HW254757   4.341  12.010   7.750  2.1582  2.0665 -1.2116
47678SOL     OW54758   7.573   8.339   0.286  0.1736  0.3275  0.2375
47678SOL    HW154759   7.489   8.297   0.269 -0.1672  0.5457  1.3151
47678SOL    HW254760   7.627   8.270   0.326  1.0818 -0.2776 -1.8848
47679SOL     OW54761   6.880  10.699  11.434  0.0283  0.3244 -0.2898
47679SOL    HW154762   6.960  10.673  11.479 -0.4906 -2.5632 -0.8400
47679SOL    HW254763   6.809  10.668  11.490 -0.6794  0.4316 -1.1025
47680SOL     OW54764   6.251   1.503   0.556 -0.5703  0.2302 -0.5999
47680SOL    HW154765   6.341   1.490   0.523 -0.8415 -1.2544 -0.8148
47680SOL    HW254766   6.249   1.595   0.581  0.6483  0.6163 -1.7364
47681SOL     OW54767  11.976  11.797  13.348 -0.2231 -0.2102 -0.1713
47681SOL    HW154768  11.917  11.724  13.367  0.0932 -0.1688  1.0483
47681SOL    HW254769  11.987  11.795  13.252 -0.6906 -1.3781 -0.2139
47682SOL     OW54770   3.794  10.564   8.285 -0.1796  0.2218 -0.2002
47682SOL    HW154771   3.876  10.612   8.276  1.9708 -3.0517  0.2593
47682SOL    HW254772   3.778  10.526   8.199  0.6180 -1.7611  0.4804
47683SOL     OW54773   7.584   3.240   0.080 -0.0178 -0.2904 -0.5328
47683SOL    HW154774   7.593   3.334   0.063  0.1433 -0.2069 -0.0093
47683SOL    HW254775   7.665   3.216   0.124 -0.9708 -0.1819  1.3932
47684SOL     OW54776   4.170   0.990   6.903  0.3187  0.8273  0.0410
47684SOL    HW154777   4.211   1.018   6.822 -1.6335  2.8764 -0.3274
47684SOL    HW254778   4.237   1.005   6.970  1.3963  0.6423 -0.9709
47685SOL     OW54779   9.204   7.834   1.168  0.4378  0.1566  0.2788
47685SOL    HW154780   9.295   7.864   1.163  0.3821  0.6148  1.6093
47685SOL    HW254781   9.181   7.844   1.260 -0.4685 -1.4212  0.2579
47686SOL     OW54782  13.677  11.922   4.552 -0.3975 -0.2814 -0.6161
47686SOL    HW154783  13.701  11.933   4.460  0.2476 -1.0587 -0.5493
47686SOL    HW254784  13.755  11.951   4.600 -0.5348 -0.3908 -0.3265
47687SOL     OW54785   5.220   1.626  10.543 -0.3288  0.0436  0.1171
47687SOL    HW154786   5.291   1.631  10.608 -0.6020 -2.0195  0.6376
47687SOL    HW254787   5.264   1.607  10.461 -0.1623  0.3798  0.1254
47688SOL     OW54788   7.441  11.544  10.280  0.2642  0.7930  0.0535
47688SOL    HW154789   7.527  11.566  10.316 -0.4105  1.8274  1.0890
47688SOL    HW254790   7.402  11.628  10.255 -0.3106  0.3091 -0.7616
47689SOL     OW54791  10.862   6.488   3.553 -0.1015 -0.2653 -0.0666
47689SOL    HW154792  10.890   6.545   3.625 -1.1065  1.9962 -1.3794
47689SOL    HW254793  10.783   6.444   3.587 -0.8382  1.1305  0.1036
47690SOL     OW54794   4.625   8.333  11.655 -0.2651 -0.3478 -0.0986
47690SOL    HW154795   4.616   8.274  11.581 -0.3625 -0.8884  0.3393
47690SOL    HW254796   4.616   8.277  11.732  2.0787 -0.1841  0.3611
47691SOL     OW54797  10.751  12.723  11.342  0.0785  0.8446  0.0937
47691SOL    HW154798  10.692  12.648  11.329 -0.0506  1.2151 -1.6974
47691SOL    HW254799  10.821  12.709  11.279  2.5892 -0.1341  2.8527
47692SOL     OW54800   2.517   6.832   3.115 -0.6265  0.5258 -0.1116
47692SOL    HW154801   2.569   6.911   3.126 -0.7300  0.6635 -0.6091
47692SOL    HW254802   2.539   6.801   3.027  0.0273 -0.4469  0.3705
47693SOL     OW54803   2.815   9.438   8.483 -0.6282  0.0030  0.6451
47693SOL    HW154804   2.789   9.381   8.411  0.9522  0.3416 -0.2319
47693SOL    HW254805   2.751   9.510   8.481  0.7523  1.2926 -2.0290
47694SOL     OW54806  13.109   2.293  10.575  0.0561 -0.1888 -0.7206
47694SOL    HW154807  13.029   2.267  10.530 -1.3612 -0.5484  1.8374
47694SOL    HW254808  13.160   2.212  10.583 -1.2937 -0.8893  1.3275
47695SOL     OW54809   3.858  10.508   5.649  0.7026 -0.1067  0.2369
47695SOL    HW154810   3.801  10.435   5.676  0.9669 -0.2877  0.3137
47695SOL    HW254811   3.816  10.543   5.571 -0.3229  0.7117  1.1288
47696SOL     OW54812  12.297   4.682  10.854  0.4291 -0.5075  0.2169
47696SOL    HW154813  12.373   4.738  10.842 -0.8233  1.1012 -0.6051
47696SOL    HW254814  12.263   4.667  10.765 -0.3310 -1.0250  0.5770
47697SOL     OW54815  12.115   8.135   6.496  0.3992 -0.7052 -0.4219
47697SOL    HW154816  12.120   8.067   6.429  0.4743  0.2008 -1.3736
47697SOL    HW254817  12.185   8.197   6.472  1.1059 -0.8742  1.1025
47698SOL     OW54818  12.007   3.527   6.136 -0.1729 -0.0829 -0.4346
47698SOL    HW154819  12.056   3.604   6.108  0.0617 -0.3465 -0.7601
47698SOL    HW254820  11.992   3.478   6.055 -0.9571 -0.0176 -0.3331
47699SOL     OW54821   2.656  13.665   8.208  0.7978 -0.2990  0.1940
47699SOL    HW154822   2.586  13.600   8.203  0.7233 -0.3874  1.8553
47699SOL    HW254823   2.725  13.622   8.257  0.2636  1.2234  2.4309
47700SOL     OW54824   5.250  12.920   2.095 -0.0077  0.1560  0.1431
47700SOL    HW154825   5.340  12.921   2.128  1.6876 -0.6639 -3.8169
47700SOL    HW254826   5.211  12.843   2.135  1.6785 -0.5263  0.5731
47701SOL     OW54827  10.048  10.951  10.209  0.3150  0.1470 -0.4464
47701SOL    HW154828  10.045  11.009  10.285  0.2667 -0.4905  0.0553
47701SOL    HW254829  10.066  10.864  10.246 -0.4777 -0.3092 -1.0854
47702SOL     OW54830  11.015   3.007  10.121  0.4299  0.0882 -0.6178
47702SOL    HW154831  11.075   2.945  10.162 -1.6302 -1.5271  0.1404
47702SOL    HW254832  11.045   3.093  10.151  1.3412 -0.7845  1.0983
47703SOL     OW54833  13.683   2.217   8.185 -0.2617 -0.4174 -0.0536
47703SOL    HW154834  13.717   2.132   8.211  2.0691  0.1063 -1.1014
47703SOL    HW254835  13.696   2.273   8.261  1.2059 -0.2480 -0.4158
47704SOL     OW54836   5.342   0.251  10.091 -0.0847  0.1617 -0.5959
47704SOL    HW154837   5.426   0.277  10.128  0.1963 -1.3616 -0.1225
47704SOL    HW254838   5.359   0.238   9.998  0.2888 -0.5004 -0.4350
47705SOL     OW54839   1.902   7.506   8.724 -0.0712 -0.4902 -0.6635
47705SOL    HW154840   1.879   7.581   8.779 -0.6559  0.1638 -1.7681
47705SOL    HW254841   1.838   7.439   8.747 -1.4856  0.4007 -1.8052
47706SOL     OW54842  11.376   9.074   8.637 -0.6916  0.2693 -0.2168
47706SOL    HW154843  11.365   9.108   8.548  0.5888 -1.1606 -0.9758
47706SOL    HW254844  11.305   9.010   8.646 -0.5218  0.0533 -0.4049
47707SOL     OW54845  13.307  12.160  12.166 -0.0954 -0.1075  0.1029
47707SOL    HW154846  13.339  12.134  12.252 -0.2793 -1.3648 -0.1925
47707SOL    HW254847  13.240  12.095  12.144 -1.7719  1.5739  0.0262
47708SOL     OW54848   5.193  11.128   2.079  0.4439 -0.6238  0.0146
47708SOL    HW154849   5.155  11.049   2.119 -0.2129 -0.3022  0.0329
47708SOL    HW254850   5.189  11.194   2.149 -1.6959  0.2572 -0.8640
47709SOL     OW54851   0.183   1.927   3.317  0.3558 -0.3363 -0.7366
47709SOL    HW154852   0.204   2.020   3.313 -2.8817  0.4717 -1.2146
47709SOL    HW254853   0.236   1.894   3.390  1.7297  1.7778 -0.6917
47710SOL     OW54854  13.222   9.806   3.643 -0.3711  0.0674 -0.2198
47710SOL    HW154855  13.283   9.732   3.644 -1.0609 -0.5151 -0.8416
47710SOL    HW254856  13.136   9.767   3.655 -0.6609  0.8629  0.3974
47711SOL     OW54857  11.586   0.438   0.925  0.5555  0.6441 -0.2010
47711SOL    HW154858  11.543   0.355   0.903 -1.1995  1.7289 -1.0519
47711SOL    HW254859  11.569   0.494   0.850  0.8094  2.1076  0.7940
47712SOL     OW54860   7.080   0.074   0.274  0.0942 -0.7947 -0.2026
47712SOL    HW154861   7.086  -0.013   0.315 -1.3147 -0.7768  0.0669
47712SOL    HW254862   7.111   0.134   0.342 -2.3122 -0.7555  0.9409
47713SOL     OW54863   0.998   9.901  10.217  0.1905  0.4765  0.2641
47713SOL    HW154864   1.061   9.911  10.289  0.1777 -0.0415  0.3461
47713SOL    HW254865   0.942   9.828  10.243 -0.1919  0.6733  0.0035
47714SOL     OW54866   3.685  12.267   6.094  0.1723 -0.4040  0.1256
47714SOL    HW154867   3.615  12.306   6.043 -0.9935  0.2936  2.1601
47714SOL    HW254868   3.643  12.200   6.147  0.7344  0.9056  2.3509
47715SOL     OW54869   9.563   9.221   4.045 -0.5863 -0.0958  0.6351
47715SOL    HW154870   9.646   9.182   4.019 -0.9871 -0.3776 -0.2612
47715SOL    HW254871   9.506   9.147   4.065 -0.2369  0.1008  2.6219
47716SOL     OW54872   4.642  11.217   2.392 -0.5765 -0.3286 -0.5909
47716SOL    HW154873   4.659  11.189   2.482  1.6012  0.7689 -0.6115
47716SOL    HW254874   4.694  11.297   2.381 -0.7108 -0.4902 -2.8595
47717SOL     OW54875   0.769   1.876  11.419  0.4646  0.4516  0.4708
47717SOL    HW154876   0.741   1.933  11.491 -1.2755  1.2423 -0.7442
47717SOL    HW254877   0.793   1.937  11.349  3.1584 -0.2715  0.6478
47718SOL     OW54878   1.471   0.159   9.577 -0.1265  0.5631  0.7482
47718SOL    HW154879   1.525   0.229   9.614 -0.9607  1.0029  1.1439
47718SOL    HW254880   1.400   0.204   9.531  0.4773  0.0185 -0.8067
47719SOL     OW54881   3.805   8.633   8.872  0.0344 -0.2997  0.4488
47719SOL    HW154882   3.771   8.682   8.797 -0.0189 -0.5201  0.3265
47719SOL    HW254883   3.820   8.545   8.838  1.4572 -0.0234  0.3045
47720SOL     OW54884   6.352   8.776   5.906 -0.0771 -0.1157  0.4426
47720SOL    HW154885   6.433   8.724   5.903  0.1856  0.3323 -0.5504
47720SOL    HW254886   6.285   8.714   5.936  0.3607 -0.8514 -0.0622
47721SOL     OW54887  13.190   6.288  12.447 -0.0138  0.2253  0.1467
47721SOL    HW154888  13.264   6.347  12.436 -0.2214  0.3666 -0.5252
47721SOL    HW254889  13.137   6.301  12.369  0.3908 -1.5368 -0.4604
47722SOL     OW54890   1.940   7.482   5.945 -0.3236 -0.5988  0.2843
47722SOL    HW154891   1.921   7.400   5.991 -0.1583 -2.0160 -1.9908
47722SOL    HW254892   2.001   7.457   5.876  1.0930  1.8094  0.5569
47723SOL     OW54893  11.727  12.265   7.410 -0.8425 -0.0406 -0.3941
47723SOL    HW154894  11.637  12.267   7.378 -0.6371 -1.1295 -1.0779
47723SOL    HW254895  11.775  12.217   7.343 -0.1265 -1.2080  0.8962
47724SOL     OW54896   7.164   1.867  10.436 -0.3400  0.1516 -0.3886
47724SOL    HW154897   7.074   1.866  10.470 -0.7600 -3.1630 -1.2230
47724SOL    HW254898   7.218   1.860  10.514 -0.7399  2.0518  0.1168
47725SOL     OW54899  12.368  12.042   8.199 -0.0608 -0.3025  0.1860
47725SOL    HW154900  12.367  11.995   8.283  0.7744 -2.0716 -0.7318
47725SOL    HW254901  12.278  12.070   8.186 -0.6568 -1.8524  0.7021
47726SOL     OW54902   8.044  10.329   2.647 -0.1236  0.3679 -0.3712
47726SOL    HW154903   8.059  10.372   2.563  0.0089 -0.3219 -0.7125
47726SOL    HW254904   8.048  10.400   2.712 -0.7736  0.9877 -0.9915
47727SOL     OW54905   5.134   1.592   1.619  0.6883 -0.2293 -0.5415
47727SOL    HW154906   5.154   1.565   1.708  1.2239  1.6458 -0.0524
47727SOL    HW254907   5.070   1.663   1.629  1.8508  1.0176 -1.5308
47728SOL     OW54908  11.047   4.686   8.969  0.1566 -0.0919  0.3359
47728SOL    HW154909  11.088   4.641   9.043  0.2265 -1.3959 -0.4666
47728SOL    HW254910  10.957   4.655   8.970  0.1520 -0.0934 -0.1053
47729SOL     OW54911   7.149   3.538   0.592  0.0494  0.0672 -0.0795
47729SOL    HW154912   7.119   3.477   0.524  1.8630  0.0473 -0.9127
47729SOL    HW254913   7.232   3.501   0.622 -1.2538 -0.6222  3.1197
47730SOL     OW54914   4.259   6.958   8.329 -0.0402 -0.2778  0.1129
47730SOL    HW154915   4.172   6.931   8.360  0.5527 -3.3312 -0.4669
47730SOL    HW254916   4.243   7.034   8.274 -2.3461 -0.6482  0.1803
47731SOL     OW54917   9.361   7.203   4.924  0.4203 -0.6372  0.2293
47731SOL    HW154918   9.270   7.209   4.893 -1.0570 -0.4964  4.0047
47731SOL    HW254919   9.393   7.293   4.921  0.2025 -0.5717 -0.4164
47732SOL     OW54920   1.056   4.053   6.911 -0.2138  0.2749  0.2112
47732SOL    HW154921   1.016   4.124   6.860 -0.0984 -0.3158 -0.7385
47732SOL    HW254922   1.016   4.059   6.997 -2.8650 -0.6571 -0.8321
47733SOL     OW54923   1.631   0.927   2.304  0.2089  0.0118 -0.2074
47733SOL    HW154924   1.608   0.839   2.335 -1.6107  0.1839 -0.8842
47733SOL    HW254925   1.591   0.932   2.217  1.2229  1.1424 -0.6340
47734SOL     OW54926   3.758   7.174   4.465  0.3351 -0.4401 -0.2104
47734SOL    HW154927   3.759   7.259   4.422  1.3735 -0.6199 -0.5657
47734SOL    HW254928   3.682   7.178   4.523  1.0277  1.1703  0.6525
47735SOL     OW54929  10.714   0.601  10.248  0.3613  0.2556 -0.1883
47735SOL    HW154930  10.746   0.526  10.298  0.2085  0.9020  0.9036
47735SOL    HW254931  10.625   0.576  10.222 -0.1661  0.5503  1.2653
47736SOL     OW54932   0.231  10.566  13.271 -0.2626  0.1632  0.3087
47736SOL    HW154933   0.183  10.645  13.246 -0.8459 -0.9170 -2.2810
47736SOL    HW254934   0.298  10.556  13.204  0.9469 -0.6433  1.5680
47737SOL     OW54935  11.797   2.521   5.439  0.4224  0.8109 -0.2615
47737SOL    HW154936  11.827   2.611   5.451  1.0374  0.5712  0.0325
47737SOL    HW254937  11.816   2.478   5.522  1.6683 -0.0075 -0.9442
47738SOL     OW54938  11.796   0.071   1.025  0.6081  0.1124 -0.1861
47738SOL    HW154939  11.709   0.076   1.064  0.5587  0.2857 -0.3214
47738SOL    HW254940  11.793  -0.008   0.971  0.3576  0.4293 -0.6334
47739SOL     OW54941   0.896   7.060   5.105  0.2998  0.4778  0.0576
47739SOL    HW154942   0.904   7.143   5.153 -1.3927  0.0373  1.1592
47739SOL    HW254943   0.817   7.019   5.140  2.5063 -2.9305  1.5700
47740SOL     OW54944   2.267   9.577   9.893 -0.1246  0.3479 -0.4555
47740SOL    HW154945   2.191   9.539   9.849  0.3163 -0.7751 -0.2739
47740SOL    HW254946   2.281   9.521   9.969  1.0287  0.3848 -0.6250
47741SOL     OW54947  10.210   9.596   9.305 -0.8509 -0.2559  0.1895
47741SOL    HW154948  10.175   9.678   9.340 -3.4655 -0.7276 -1.0495
47741SOL    HW254949  10.166   9.586   9.220  1.9495 -1.3000 -1.2548
47742SOL     OW54950   8.070  13.097  13.175  0.0497  0.6503 -0.5003
47742SOL    HW154951   8.061  13.170  13.115  0.9671  0.0955 -1.3490
47742SOL    HW254952   8.157  13.062  13.157 -0.5846 -0.9948 -0.5091
47743SOL     OW54953   7.546  10.411   8.339  0.0538  0.4547 -0.5653
47743SOL    HW154954   7.568  10.340   8.399 -0.6158 -0.8336 -1.7819
47743SOL    HW254955   7.572  10.491   8.385  3.1332 -0.6622 -0.0963
47744SOL     OW54956  10.525   1.344  10.330  0.2104  0.3421 -0.7152
47744SOL    HW154957  10.561   1.255  10.327  1.9615  0.9642  0.4641
47744SOL    HW254958  10.440   1.333  10.373 -0.1601 -0.9105 -1.7053
47745SOL     OW54959   6.730  11.801   5.155  0.1572 -0.2360 -0.0424
47745SOL    HW154960   6.672  11.868   5.191  1.7875  1.2913 -0.1063
47745SOL    HW254961   6.728  11.731   5.220  0.3229  0.9539  1.3143
47746SOL     OW54962   3.275   7.912  10.038 -0.2823 -0.3748  0.0344
47746SOL    HW154963   3.304   7.992   9.994 -2.2458 -0.3288 -1.3309
47746SOL    HW254964   3.185   7.931  10.064 -1.0058 -2.3280 -0.8707
47747SOL     OW54965   3.416   5.723  13.299  0.1433 -0.0350 -0.3636
47747SOL    HW154966   3.434   5.699  13.208 -0.7200  1.1362 -0.8678
47747SOL    HW254967   3.364   5.803  13.293 -0.6617 -0.4037  1.1407
47748SOL     OW54968   9.838   1.469   9.024 -0.5815 -0.6028 -0.3242
47748SOL    HW154969   9.843   1.394   8.965 -2.2531 -2.9432  2.2475
47748SOL    HW254970   9.744   1.488   9.029 -0.2116  1.4543 -0.6117
47749SOL     OW54971   7.950  10.264  12.007  0.3456  0.2596 -0.2441
47749SOL    HW154972   7.954  10.359  11.998  1.9123  0.3220  0.7010
47749SOL    HW254973   8.012  10.244  12.077 -0.4176 -1.4153  0.0105
47750SOL     OW54974   1.551   6.364   9.806  0.0404  0.2894 -0.0241
47750SOL    HW154975   1.519   6.361   9.896 -0.1732 -1.2119 -0.1185
47750SOL    HW254976   1.579   6.274   9.788 -1.2812  0.2003 -1.9290
47751SOL     OW54977   9.914   0.450   4.463 -0.0112 -0.2198 -0.7571
47751SOL    HW154978   9.981   0.396   4.504  0.0229 -0.1086 -0.6648
47751SOL    HW254979   9.893   0.405   4.380 -0.2583 -0.5783 -0.5035
47752SOL     OW54980   3.521   3.681  11.881 -0.5534 -0.0931 -0.5212
47752SOL    HW154981   3.582   3.712  11.814 -0.0396 -0.5952 -0.2947
47752SOL    HW254982   3.510   3.588  11.863 -0.4053 -0.2369  0.0910
47753SOL     OW54983   7.047  11.468   6.330  0.2085 -0.1089 -0.0341
47753SOL    HW154984   7.095  11.389   6.305  0.1521 -0.0432 -0.3562
47753SOL    HW254985   6.960  11.437   6.353 -0.3160  0.0227 -1.6904
47754SOL     OW54986  11.027   9.790   5.770 -0.5774  0.1657 -0.0912
47754SOL    HW154987  10.971   9.788   5.693 -1.9769  0.5412  0.8599
47754SOL    HW254988  10.974   9.835   5.836  0.7140  0.1765  0.9781
47755SOL     OW54989   2.518  10.201   7.166 -0.1594  0.1011 -0.0619
47755SOL    HW154990   2.439  10.186   7.115  0.5071 -1.2883 -0.7383
47755SOL    HW254991   2.589  10.196   7.102  0.5969 -0.4502  0.7997
47756SOL     OW54992   5.112   8.634   9.363 -0.2117  0.3123 -0.4084
47756SOL    HW154993   5.100   8.696   9.435 -0.7741  0.7368 -0.8585
47756SOL    HW254994   5.192   8.663   9.319 -0.3729  0.6113 -0.5062
47757SOL     OW54995   4.638  12.831   4.869  0.3034 -0.6386  0.0491
47757SOL    HW154996   4.733  12.825   4.879  0.4463  1.2198  0.1039
47757SOL    HW254997   4.625  12.884   4.790 -0.5781  2.1851  1.9203
47758SOL     OW54998  11.998   6.287   3.882  0.4530  0.6152  0.2233
47758SOL    HW154999  12.008   6.362   3.823 -1.0087  0.3817 -0.3596
47758SOL    HW255000  11.923   6.239   3.847 -0.0739  0.1347  1.9294
47759SOL     OW55001   7.924   9.076   4.228 -0.1236  0.4464 -0.0229
47759SOL    HW155002   8.016   9.086   4.204 -0.2510 -0.2465 -0.8203
47759SOL    HW255003   7.924   9.006   4.293 -0.0140  0.9194  0.4916
47760SOL     OW55004   8.546  13.230  13.678  0.3856  0.1501  0.4136
47760SOL    HW155005   8.557  13.302  13.617  0.8683  0.9131  1.3795
47760SOL    HW255006   8.451  13.219  13.685  0.3233 -0.7481 -1.3627
47761SOL     OW55007   3.300   1.508   8.913  0.0261  0.0943 -0.0639
47761SOL    HW155008   3.286   1.569   8.985  2.0113  0.7673 -0.1957
47761SOL    HW255009   3.338   1.430   8.955 -0.3510 -0.1604 -0.1884
47762SOL     OW55010   9.432   9.200   4.504 -0.4323  0.1769  0.0979
47762SOL    HW155011   9.383   9.125   4.470  0.8752 -1.2302  1.1867
47762SOL    HW255012   9.432   9.188   4.599  1.4216  0.4870  0.1765
47763SOL     OW55013   1.415   3.179  11.914  0.2537 -0.7083  0.2907
47763SOL    HW155014   1.330   3.221  11.916 -0.1900 -1.4821 -0.9696
47763SOL    HW255015   1.467   3.226  11.980 -0.0237  2.1572 -1.3631
47764SOL     OW55016   7.438   3.294   1.131  0.3006 -0.4805 -0.1067
47764SOL    HW155017   7.357   3.313   1.178  0.4572  1.8106 -0.6453
47764SOL    HW255018   7.506   3.296   1.197  0.1987 -0.0039 -0.0154
47765SOL     OW55019   8.078   2.513  10.058  0.1281  0.0316  1.1895
47765SOL    HW155020   7.995   2.557  10.076 -0.7958 -1.1704  0.1472
47765SOL    HW255021   8.104   2.544   9.971  1.2465  1.0537  1.8664
47766SOL     OW55022   3.993  10.226   2.079  0.4303 -0.1824 -0.4339
47766SOL    HW155023   3.995  10.246   1.986  0.5497  0.7053 -0.2424
47766SOL    HW255024   3.999  10.130   2.083 -1.2015 -0.3515 -1.3906
47767SOL     OW55025   9.173  10.912   0.214 -0.3390  0.1883  0.1131
47767SOL    HW155026   9.244  10.886   0.155  1.1619  1.3979  1.3292
47767SOL    HW255027   9.118  10.833   0.220  0.0005 -0.2858 -2.0625
47768SOL     OW55028   2.606  13.321   5.127  0.1592  0.5228 -0.1578
47768SOL    HW155029   2.619  13.312   5.033  1.4335  1.3601 -0.0788
47768SOL    HW255030   2.651  13.245   5.164 -0.5233  0.0779 -0.2214
47769SOL     OW55031   1.325   6.829  12.607  0.1763  0.2544  0.1270
47769SOL    HW155032   1.268   6.794  12.676  0.7323 -1.2924 -0.1600
47769SOL    HW255033   1.271   6.823  12.528  0.9768 -2.1804 -0.3391
47770SOL     OW55034   9.689   9.225   2.680 -0.0432 -0.4965  0.2692
47770SOL    HW155035   9.737   9.307   2.668 -1.7962  0.5923  0.2578
47770SOL    HW255036   9.725   9.188   2.761  0.8314  0.2438  0.2339
47771SOL     OW55037   0.991   5.515  13.403  0.0018 -0.6505 -0.0499
47771SOL    HW155038   0.930   5.462  13.353 -0.5088 -0.6040  0.5075
47771SOL    HW255039   1.056   5.453  13.436 -0.0299 -0.7785 -0.2291
47772SOL     OW55040   9.091   7.541   3.599 -0.3014 -0.3444 -0.3595
47772SOL    HW155041   9.153   7.559   3.670 -0.2222 -2.0221  0.0324
47772SOL    HW255042   9.012   7.591   3.624  0.7555  1.6514 -0.7733
47773SOL     OW55043   8.641   5.367  10.317 -0.5466  0.4420  0.5160
47773SOL    HW155044   8.566   5.397  10.369  0.1303  2.3206  0.4759
47773SOL    HW255045   8.718   5.398  10.365  0.2095 -1.0265  0.2954
47774SOL     OW55046   2.161   0.154   2.490  1.0139 -0.0345  0.2054
47774SOL    HW155047   2.090   0.138   2.552  2.4395  1.4226  2.4069
47774SOL    HW255048   2.130   0.226   2.436  0.7018  0.4778  1.0386
47775SOL     OW55049   0.276   6.228  10.737  0.4277 -0.3112  0.0322
47775SOL    HW155050   0.318   6.214  10.653 -1.3117  0.0833 -0.9458
47775SOL    HW255051   0.191   6.185  10.730 -0.6714  1.6004  0.7513
47776SOL     OW55052  13.274   1.354  11.194 -0.3699  0.3850  0.0752
47776SOL    HW155053  13.343   1.395  11.142  1.5791 -1.2401  1.2078
47776SOL    HW255054  13.246   1.279  11.142 -0.0958  0.1133  0.3113
47777SOL     OW55055  11.801   4.922   1.173 -0.3188 -0.1997 -0.0094
47777SOL    HW155056  11.723   4.867   1.178 -0.8996  0.4503 -1.3929
47777SOL    HW255057  11.869   4.865   1.137 -0.6760 -0.2485 -0.6050
47778SOL     OW55058  11.609   8.217   9.978  0.2971  0.4720  0.2173
47778SOL    HW155059  11.515   8.226   9.961  0.2257  2.8233  1.4667
47778SOL    HW255060  11.651   8.239   9.895 -0.2244  0.6330 -0.0086
47779SOL     OW55061   7.583   9.519  12.332 -0.2888  0.3697  0.7001
47779SOL    HW155062   7.639   9.562  12.397  1.3472 -2.3568  1.2351
47779SOL    HW255063   7.554   9.439  12.375 -1.0098 -0.4113 -1.1698
47780SOL     OW55064   3.560   2.065   9.920 -0.4841 -0.1985 -0.1661
47780SOL    HW155065   3.475   2.070   9.877 -1.7882 -1.9989  2.0088
47780SOL    HW255066   3.562   2.140   9.980  0.7586  1.5089 -2.2041
47781SOL     OW55067   5.229   5.414   5.111  0.1054  0.0231  0.3849
47781SOL    HW155068   5.314   5.443   5.078  0.0505 -0.3709 -0.1142
47781SOL    HW255069   5.170   5.424   5.036  0.1768 -1.8078  0.0398
47782SOL     OW55070   3.278   5.773   9.586  0.6991  0.4523 -0.3074
47782SOL    HW155071   3.231   5.763   9.669 -2.2207 -0.8885 -1.9846
47782SOL    HW255072   3.291   5.868   9.578  0.0100  0.7116  1.1484
47783SOL     OW55073  11.437  10.391  12.395  0.1428 -0.4551 -0.4115
47783SOL    HW155074  11.402  10.418  12.311 -1.9932  3.0513  1.3712
47783SOL    HW255075  11.531  10.405  12.387 -0.1065  0.5608 -1.9437
47784SOL     OW55076   7.934   3.937   1.918 -0.4419  0.4337  0.0450
47784SOL    HW155077   8.010   3.954   1.974 -1.2487  0.6328  1.1085
47784SOL    HW255078   7.972   3.912   1.833  0.8613 -1.8620  1.2097
47785SOL     OW55079   8.447  13.077   4.028  0.1421  0.1407 -0.5553
47785SOL    HW155080   8.367  13.048   4.071 -0.6559  2.6888 -0.1519
47785SOL    HW255081   8.506  13.002   4.033 -1.1771 -0.8276  1.7798
47786SOL     OW55082   7.550   0.094  12.371  0.1995  0.1101  0.2958
47786SOL    HW155083   7.600   0.095  12.452 -1.8460  1.0119  1.6217
47786SOL    HW255084   7.558   0.004  12.339  1.2141 -0.2079  1.3752
47787SOL     OW55085   8.633  11.922   3.466  0.2784 -0.0963  0.0274
47787SOL    HW155086   8.672  12.008   3.484  0.1567 -0.0412  0.0322
47787SOL    HW255087   8.585  11.935   3.384  1.3872 -0.5155 -0.7198
47788SOL     OW55088   1.133   8.356  11.117  0.4369 -0.0263  0.1898
47788SOL    HW155089   1.101   8.268  11.097  0.4105 -0.0721  0.4236
47788SOL    HW255090   1.074   8.387  11.186  0.1945  0.3322 -0.1811
47789SOL     OW55091   0.652   0.884   7.632  0.5414 -0.2577 -0.7763
47789SOL    HW155092   0.671   0.952   7.566 -0.4618  0.0083 -0.8086
47789SOL    HW255093   0.562   0.903   7.660  0.3922 -1.3443 -0.4994
47790SOL     OW55094   3.915   2.130  12.624 -0.0530  0.4179  0.3084
47790SOL    HW155095   3.930   2.197  12.691  0.6264  0.6633 -0.0764
47790SOL    HW255096   3.996   2.078  12.623  0.3690  1.0491 -1.0119
47791SOL     OW55097   0.102   3.270   4.493  0.4821 -0.4589  0.0604
47791SOL    HW155098   0.097   3.358   4.530 -1.6572  0.1251 -1.4667
47791SOL    HW255099   0.091   3.212   4.569 -1.7250  0.6640  0.6800
47792SOL     OW55100  13.569   2.139   1.675  0.0784  0.4199 -0.1502
47792SOL    HW155101  13.543   2.109   1.588  1.5751 -1.3523 -0.0521
47792SOL    HW255102  13.569   2.234   1.669 -0.9932  0.3587 -1.7195
47793SOL     OW55103   0.081  10.745   7.095  0.1616 -0.2537 -0.2725
47793SOL    HW155104   0.058  10.755   7.188  0.5128 -0.8693 -0.1103
47793SOL    HW255105   0.046  10.659   7.071  1.9365 -1.0709 -0.1105
47794SOL     OW55106   0.677   9.872   9.552 -0.0908 -0.1502 -0.5383
47794SOL    HW155107   0.762   9.829   9.548 -1.0618 -2.2688  0.0887
47794SOL    HW255108   0.671   9.922   9.471  1.1213 -1.2437 -1.3328
47795SOL     OW55109   2.128   7.757   0.410  0.4804 -0.2849 -0.6598
47795SOL    HW155110   2.126   7.744   0.505 -0.1806 -0.1190 -0.6473
47795SOL    HW255111   2.074   7.834   0.395  0.9922 -0.0090 -1.1291
47796SOL     OW55112   8.995   7.771   2.598 -0.9101 -0.2212  0.4975
47796SOL    HW155113   8.999   7.866   2.608 -0.0989 -0.2973  1.0393
47796SOL    HW255114   8.940   7.757   2.521  0.5191  0.7612 -0.7767
47797SOL     OW55115  13.298   0.380   9.312  0.3322  0.3803  0.7559
47797SOL    HW155116  13.310   0.446   9.380  0.0571 -0.1479  1.3221
47797SOL    HW255117  13.220   0.332   9.338  1.4855 -1.3033  1.2936
47798SOL     OW55118  11.601  11.026   9.888  0.0217  0.5859  0.1107
47798SOL    HW155119  11.563  10.938   9.885  1.1460  0.0517  0.8577
47798SOL    HW255120  11.527  11.083   9.909 -1.0023  0.0350 -1.8002
47799SOL     OW55121   0.793   2.476  13.616  0.0639 -0.0078 -0.0081
47799SOL    HW155122   0.883   2.465  13.648  1.5483  1.4129 -3.2862
47799SOL    HW255123   0.773   2.568  13.630 -1.8362 -0.6720  2.5611
47800SOL     OW55124  12.937   1.534   6.231  0.0067  0.2427  0.2801
47800SOL    HW155125  13.016   1.582   6.256  0.4340 -0.1265 -0.3335
47800SOL    HW255126  12.939   1.532   6.136 -1.0222  0.6740  0.2320
47801SOL     OW55127   8.811   3.848   8.450  0.4396  0.0756  0.0563
47801SOL    HW155128   8.758   3.770   8.467  1.5124 -0.8232 -0.5211
47801SOL    HW255129   8.770   3.918   8.500  0.4436 -1.2529  1.9959
47802SOL     OW55130  11.057   9.611   0.952 -0.5141  0.8290 -0.1513
47802SOL    HW155131  11.111   9.547   0.997  0.0527  1.4551  0.0821
47802SOL    HW255132  10.973   9.608   0.998 -0.4720  0.3093 -0.1022
47803SOL     OW55133  12.637  11.082  13.196 -0.1301  0.5407 -0.5010
47803SOL    HW155134  12.625  11.177  13.193 -1.4638  0.4641  1.1095
47803SOL    HW255135  12.552  11.047  13.170 -0.3775 -0.1665  1.1367
47804SOL     OW55136   4.628  13.474   3.881 -0.3515  0.3358 -0.2042
47804SOL    HW155137   4.604  13.530   3.807 -2.1298  1.9757  1.4843
47804SOL    HW255138   4.603  13.525   3.958  0.6447 -1.6437  1.5327
47805SOL     OW55139  12.656  12.363   7.954 -0.8696  0.3553 -0.2388
47805SOL    HW155140  12.615  12.279   7.934 -2.4425  0.9852  0.1656
47805SOL    HW255141  12.610  12.426   7.897 -0.4747  1.0962  0.2426
47806SOL     OW55142   2.468   2.437   7.307  0.1882  0.5345 -0.4324
47806SOL    HW155143   2.409   2.362   7.302 -0.7660  0.5091  4.9962
47806SOL    HW255144   2.542   2.406   7.359  1.3159  2.5473 -0.7250
47807SOL     OW55145  13.083   0.525   8.354 -0.1280  0.1791  0.1935
47807SOL    HW155146  13.021   0.591   8.384 -0.3217  1.2225 -2.2202
47807SOL    HW255147  13.051   0.443   8.390 -1.3133  1.0834  1.2536
47808SOL     OW55148  13.198   3.414  12.879  0.7986 -0.0877  0.4433
47808SOL    HW155149  13.104   3.427  12.867  0.9291 -0.3668 -1.0523
47808SOL    HW255150  13.234   3.503  12.881  0.3436  0.1377  3.0489
47809SOL     OW55151   6.167  10.131   6.421  0.0442 -0.2426  0.2456
47809SOL    HW155152   6.249  10.170   6.452 -0.5913  2.2985 -0.9937
47809SOL    HW255153   6.107  10.139   6.496  0.5035 -0.8115  0.6853
47810SOL     OW55154   7.418   1.269   9.567 -0.4781 -0.6149 -0.0782
47810SOL    HW155155   7.451   1.297   9.482 -0.5738 -0.5913 -0.1073
47810SOL    HW255156   7.326   1.295   9.567 -0.4879 -0.6490  0.0173
47811SOL     OW55157   2.718  10.957   8.573 -0.0164  0.5974  0.3291
47811SOL    HW155158   2.704  11.007   8.492  0.1168 -0.5484 -0.4230
47811SOL    HW255159   2.638  10.905   8.582 -0.0831  0.8119  1.0184
47812SOL     OW55160   9.416   8.155  12.671  0.2492 -0.2972 -0.2038
47812SOL    HW155161   9.329   8.115  12.658 -1.1347  1.0004  3.8028
47812SOL    HW255162   9.424   8.217  12.599 -2.5874  0.1590 -0.2613
47813SOL     OW55163   3.346   5.242  12.865 -0.1648 -0.0170 -0.2645
47813SOL    HW155164   3.393   5.159  12.858  1.3614  0.8843 -1.0604
47813SOL    HW255165   3.287   5.242  12.790 -1.0091 -0.8470  0.3618
47814SOL     OW55166   5.625   8.291   3.270 -0.7078 -0.0700 -0.3456
47814SOL    HW155167   5.540   8.303   3.313 -1.0177  2.2752 -1.4617
47814SOL    HW255168   5.609   8.224   3.203 -2.3863  1.9382 -2.0962
47815SOL     OW55169   3.579   6.459  11.085 -1.0632  0.4333 -0.3305
47815SOL    HW155170   3.548   6.467  11.176  3.5427  0.8116  1.4971
47815SOL    HW255171   3.536   6.381  11.052 -2.3292 -0.2025  2.4650
47816SOL     OW55172   0.184   2.933   1.522 -0.1919 -0.2060 -0.4288
47816SOL    HW155173   0.154   2.872   1.454 -2.3997  0.2881  0.0278
47816SOL    HW255174   0.274   2.906   1.540 -0.7506 -2.6900 -0.9580
47817SOL     OW55175   9.843   9.642   3.687  0.1806  0.6314  0.0166
47817SOL    HW155176   9.763   9.592   3.669  0.4564  0.6512 -1.3915
47817SOL    HW255177   9.853   9.699   3.611  1.8592  0.1982 -0.1268
47818SOL     OW55178   8.988   9.353   0.549  0.1797  0.1063 -0.1081
47818SOL    HW155179   8.917   9.299   0.514 -0.1001  0.0008  0.6163
47818SOL    HW255180   8.979   9.347   0.644 -0.9695  2.8348  0.0470
47819SOL     OW55181  12.579  12.080   3.239  0.0046 -0.0158  0.1379
47819SOL    HW155182  12.581  12.175   3.249 -1.2719  0.1131 -0.6402
47819SOL    HW255183  12.515  12.064   3.170  0.2459 -1.4484  0.2029
47820SOL     OW55184   0.385   5.635   7.523 -0.3225 -0.3132  0.2837
47820SOL    HW155185   0.306   5.585   7.544 -1.4801  1.2389 -0.2108
47820SOL    HW255186   0.451   5.568   7.502 -1.7042 -1.6188 -0.0591
47821SOL     OW55187   7.447   2.704   3.276  0.1299 -0.1602 -0.6619
47821SOL    HW155188   7.495   2.773   3.321  1.8142 -1.7472  0.0918
47821SOL    HW255189   7.397   2.661   3.344 -2.0079  1.0831 -1.3437
47822SOL     OW55190   6.967   2.263   0.921 -0.0931  0.1902  0.7616
47822SOL    HW155191   7.058   2.265   0.891  0.1779 -1.1950  1.4354
47822SOL    HW255192   6.925   2.335   0.873  0.3891 -1.6047 -2.6965
47823SOL     OW55193   5.215   2.212   0.790  0.6365 -0.0790 -0.3211
47823SOL    HW155194   5.218   2.236   0.697 -1.9701 -0.6486 -0.6269
47823SOL    HW255195   5.235   2.118   0.790  0.9527 -0.0132 -0.2564
47824SOL     OW55196   6.686   8.565  13.392 -0.7067  0.3018  0.8055
47824SOL    HW155197   6.654   8.475  13.388  0.5922 -0.2143  1.2901
47824SOL    HW255198   6.702   8.581  13.485 -0.1563  0.7332  0.6445
47825SOL     OW55199   7.807  11.917   5.671  0.3676 -0.0216 -0.0413
47825SOL    HW155200   7.771  11.834   5.704  1.7771 -0.2540  0.9879
47825SOL    HW255201   7.896  11.895   5.644  1.0147  1.2923  0.9289
47826SOL     OW55202   3.653   1.358  11.219 -0.1899  0.3542 -0.1834
47826SOL    HW155203   3.667   1.276  11.172  0.0803  1.3378 -1.9117
47826SOL    HW255204   3.726   1.414  11.192  0.4222  0.7248  2.0577
47827SOL     OW55205  10.941   0.561  11.778  0.0408  0.0874 -0.2956
47827SOL    HW155206  10.894   0.575  11.860  0.3822  0.4806 -0.1631
47827SOL    HW255207  10.952   0.466  11.772 -1.4304 -0.0889 -0.7028
47828SOL     OW55208   6.779   3.644  11.696 -0.3541 -0.6739 -0.3559
47828SOL    HW155209   6.727   3.571  11.729 -0.9202  0.1147  0.5494
47828SOL    HW255210   6.865   3.606  11.677 -1.1895 -1.9677 -1.7728
47829SOL     OW55211  11.935   2.022   5.340 -0.2297  0.4036 -0.1037
47829SOL    HW155212  11.940   2.092   5.406  1.8524  0.2207  0.0147
47829SOL    HW255213  11.967   1.944   5.386  0.5744  0.1206 -1.1028
47830SOL     OW55214   6.680  11.429   3.439  0.0075  0.0241 -0.0347
47830SOL    HW155215   6.729  11.384   3.370  0.4173  1.4826 -0.7305
47830SOL    HW255216   6.743  11.440   3.510  0.2195  0.4297 -0.2818
47831SOL     OW55217   9.659  12.081  10.354 -0.0278 -0.3208 -0.1675
47831SOL    HW155218   9.683  12.172  10.336  1.5140 -0.8573 -0.9972
47831SOL    HW255219   9.737  12.044  10.397 -0.2452 -1.5131 -0.7609
47832SOL     OW55220  12.242   1.848   2.896  0.1506 -0.0742 -0.1562
47832SOL    HW155221  12.235   1.897   2.977 -0.8945  0.0967 -0.3363
47832SOL    HW255222  12.206   1.762   2.917  1.2308 -0.5175 -0.0573
47833SOL     OW55223  11.554  10.014   8.206  0.3065 -0.0668 -0.8931
47833SOL    HW155224  11.573  10.089   8.262  0.5705  0.3417 -1.5072
47833SOL    HW255225  11.460  10.017   8.192  0.0886 -0.7650  0.3361
47834SOL     OW55226  13.587   5.587   1.622 -0.2647 -0.3838 -0.4775
47834SOL    HW155227  13.566   5.530   1.548  0.0086  0.4246 -1.1933
47834SOL    HW255228  13.502   5.620   1.651 -0.3144 -0.1531 -0.8802
47835SOL     OW55229  11.395   0.653   4.054  0.0908  0.4331 -0.0339
47835SOL    HW155230  11.301   0.656   4.032 -0.2762  1.4638  1.5032
47835SOL    HW255231  11.400   0.691   4.142  1.9175  0.0197  0.0728
47836SOL     OW55232   9.378   9.710   5.972  0.7698 -0.3458 -0.2900
47836SOL    HW155233   9.463   9.746   5.996  0.5103 -0.7106  1.2893
47836SOL    HW255234   9.336   9.691   6.056 -0.3054 -1.4804 -1.0582
47837SOL     OW55235   6.033  13.470   7.233 -0.3734  0.1036  0.0461
47837SOL    HW155236   6.055  13.418   7.156 -0.2305  1.3620 -0.7946
47837SOL    HW255237   6.117  13.508   7.261 -0.6764  1.0259 -0.2380
47838SOL     OW55238   1.832   4.621   5.991 -0.1238 -0.0177  0.1872
47838SOL    HW155239   1.772   4.688   6.024  2.0207  3.1711 -1.8501
47838SOL    HW255240   1.901   4.615   6.058  0.1918  0.6138 -0.0705
47839SOL     OW55241   3.763   9.238   9.916  0.4006  0.6339 -0.2098
47839SOL    HW155242   3.787   9.329   9.899  0.7800  0.4556 -0.6596
47839SOL    HW255243   3.835   9.187   9.879  0.1115  0.1467 -0.1113
47840SOL     OW55244   9.588   6.345   2.114  0.2238  0.4919  0.6846
47840SOL    HW155245   9.540   6.275   2.159  1.3753  1.1926  3.1399
47840SOL    HW255246   9.519   6.402   2.079 -0.7278 -0.4287  0.9857
47841SOL     OW55247   8.682  10.766  13.295 -0.1157  0.4062 -0.6861
47841SOL    HW155248   8.767  10.808  13.283 -0.0297  0.6991  0.8354
47841SOL    HW255249   8.618  10.836  13.284  0.0059  0.8930  1.2929
47842SOL     OW55250   4.409  12.551   4.351 -0.4717  0.0333  0.0467
47842SOL    HW155251   4.445  12.499   4.423  1.4144  1.3541  0.1469
47842SOL    HW255252   4.327  12.508   4.328  1.1658 -3.2898 -0.2154
47843SOL     OW55253   0.926   3.161   5.991 -0.5312 -0.3668 -0.1716
47843SOL    HW155254   0.978   3.234   6.023 -0.8358 -0.3655  0.3190
47843SOL    HW255255   0.991   3.095   5.965 -0.2658 -1.1413  2.1990
47844SOL     OW55256   2.027   8.575   9.843 -0.4344  0.3692  0.0263
47844SOL    HW155257   1.976   8.502   9.807 -1.4977  0.4397  1.3043
47844SOL    HW255258   2.025   8.562   9.938  0.6604  1.2339  0.1998
47845SOL     OW55259  12.977   8.659   1.309 -0.0017 -0.1011 -0.7741
47845SOL    HW155260  12.957   8.753   1.301 -1.6007 -0.5449 -2.7940
47845SOL    HW255261  12.909   8.625   1.367  0.0288 -0.1560 -0.7708
47846SOL     OW55262   1.047  11.051   3.273 -0.0737  0.5921  0.0069
47846SOL    HW155263   1.127  11.020   3.316 -0.0974 -0.5824 -0.7399
47846SOL    HW255264   0.977  10.997   3.310 -0.1907  0.0466 -0.9607
47847SOL     OW55265   9.945   8.904   2.061  0.2147  0.3968 -0.0559
47847SOL    HW155266   9.917   8.992   2.034 -1.0775  0.6281  1.8699
47847SOL    HW255267   9.893   8.886   2.139  2.0800 -1.1881  0.8662
47848SOL     OW55268   9.435   2.328   3.102 -0.2793 -0.1492 -0.0829
47848SOL    HW155269   9.408   2.312   3.193 -0.9594 -1.0508 -0.4348
47848SOL    HW255270   9.400   2.254   3.053  0.8607 -0.1365 -0.9503
47849SOL     OW55271   7.428  13.472  10.354 -0.2761  0.4783  0.0303
47849SOL    HW155272   7.383  13.550  10.321 -1.4235  0.9665  2.5444
47849SOL    HW255273   7.363  13.402  10.349 -0.2819  0.4295  0.7220
47850SOL     OW55274   8.953   4.335   1.162  0.0407  0.2918 -0.0419
47850SOL    HW155275   8.973   4.244   1.183 -0.6668  0.1528  0.0666
47850SOL    HW255276   8.975   4.343   1.069 -0.0246 -0.0292 -0.0874
47851SOL     OW55277   4.932  12.147   2.967  0.1233  0.4540 -0.3050
47851SOL    HW155278   4.908  12.132   2.876 -0.2751  0.5629 -0.2190
47851SOL    HW255279   4.886  12.227   2.992 -1.7439 -0.8656  0.7147
47852SOL     OW55280   7.812  10.803   8.573  0.0384 -0.1584 -0.7700
47852SOL    HW155281   7.844  10.885   8.610 -1.3220 -0.0931  0.3113
47852SOL    HW255282   7.861  10.735   8.619  0.7021  0.0069 -1.2117
47853SOL     OW55283   4.884   7.960   9.065 -0.2568  0.0253  0.0042
47853SOL    HW155284   4.954   7.896   9.056 -0.3147 -0.0696  0.2188
47853SOL    HW255285   4.925   8.044   9.044 -0.4034 -0.1874 -1.2157
47854SOL     OW55286   6.897   0.125   7.868  0.3345  0.1824  0.0361
47854SOL    HW155287   6.950   0.076   7.804  0.6560 -1.2270  1.3270
47854SOL    HW255288   6.960   0.154   7.933 -0.4139 -1.6476  1.6788
47855SOL     OW55289  10.232   0.489   7.816  0.4010  0.2548 -0.4924
47855SOL    HW155290  10.155   0.543   7.832 -0.2975 -0.3163 -1.7042
47855SOL    HW255291  10.250   0.447   7.900 -0.4963  0.5646 -0.1289
47856SOL     OW55292   6.234  13.353   5.502  0.1391  0.3821  0.4399
47856SOL    HW155293   6.276  13.275   5.465 -0.1214  1.0302 -1.3031
47856SOL    HW255294   6.266  13.357   5.592  1.4811 -0.7850  0.0463
47857SOL     OW55295  10.552  11.148  12.148 -0.9935 -0.5702  0.2840
47857SOL    HW155296  10.556  11.079  12.214 -0.8023 -0.5104  0.3351
47857SOL    HW255297  10.630  11.202  12.164 -0.3736 -1.1566 -0.6522
47858SOL     OW55298   7.953   5.009   8.636 -0.2782  0.0069 -0.0915
47858SOL    HW155299   7.961   5.097   8.601 -0.3912  0.5254  1.1413
47858SOL    HW255300   8.038   4.990   8.675 -0.0424 -0.6955 -0.9137
47859SOL     OW55301   0.245   3.183   3.500 -0.1817  0.1179  0.4575
47859SOL    HW155302   0.189   3.107   3.518 -0.1286  0.0650  0.4010
47859SOL    HW255303   0.275   3.212   3.586  0.9133 -0.7698  0.4052
47860SOL     OW55304   5.842   8.695   8.588 -0.1415  0.4093 -0.1480
47860SOL    HW155305   5.849   8.776   8.538 -1.2434 -0.2779 -1.4746
47860SOL    HW255306   5.857   8.721   8.679 -0.9490  2.1732 -0.4949
47861SOL     OW55307   3.186  11.373  11.201  0.5827  0.5861 -0.3911
47861SOL    HW155308   3.118  11.439  11.203  0.4143  0.4317 -1.0018
47861SOL    HW255309   3.141  11.291  11.221  0.4796  0.3937 -1.3857
47862SOL     OW55310   2.712  11.729   5.931  0.1171  0.2925  0.6164
47862SOL    HW155311   2.696  11.645   5.888 -0.7593  0.5634  0.3774
47862SOL    HW255312   2.735  11.706   6.021 -0.8623 -0.1912  0.7597
47863SOL     OW55313   5.122   8.936   0.332 -0.1552  0.0346  0.4431
47863SOL    HW155314   5.089   8.977   0.252 -0.3949 -1.6909 -0.3905
47863SOL    HW255315   5.175   8.862   0.301  1.9249  0.8354  1.8174
47864SOL     OW55316   0.457   0.610   2.830  0.7137  0.2689 -0.3118
47864SOL    HW155317   0.500   0.695   2.834 -0.2379  0.7212  1.7332
47864SOL    HW255318   0.384   0.624   2.769  0.0697  1.2113  0.6252
47865SOL     OW55319  10.420   3.385  11.595 -0.1413 -0.1013 -0.3482
47865SOL    HW155320  10.394   3.297  11.623  0.1433 -0.2668 -0.6033
47865SOL    HW255321  10.500   3.372  11.544 -0.6304  0.1927 -1.2148
47866SOL     OW55322  10.154   6.512   7.007  0.7358 -0.6745  0.2056
47866SOL    HW155323  10.206   6.556   7.074 -0.4403  0.8878  0.1465
47866SOL    HW255324  10.073   6.487   7.053 -0.7576  1.7833 -0.8844
47867SOL     OW55325   6.093  13.614   4.635 -0.8865  0.7677  0.0781
47867SOL    HW155326   6.140  13.551   4.581 -1.1830  0.6658 -0.0683
47867SOL    HW255327   6.160  13.673   4.668 -0.4836 -0.1428  0.9398
47868SOL     OW55328   0.992   8.953   9.415  0.4342  0.3668  0.6170
47868SOL    HW155329   1.056   8.956   9.344  0.5067 -0.5218  0.6346
47868SOL    HW255330   0.942   8.873   9.398 -1.6368  1.7483 -0.2288
47869SOL     OW55331   0.895   4.311   4.564  0.5201  0.4460  0.1095
47869SOL    HW155332   0.953   4.380   4.531  1.3321  0.8327  2.1478
47869SOL    HW255333   0.808   4.334   4.532  0.8757  2.0917  0.2517
47870SOL     OW55334   4.245   5.746   6.104 -0.1187 -0.6698  0.2972
47870SOL    HW155335   4.198   5.792   6.035 -0.4719 -0.8450  0.4177
47870SOL    HW255336   4.182   5.682   6.137  0.3481 -1.2008  0.1663
47871SOL     OW55337   2.435   8.129   4.635  0.5325 -0.2959 -0.2406
47871SOL    HW155338   2.518   8.174   4.651  1.7690 -2.0130 -1.4909
47871SOL    HW255339   2.403   8.106   4.722  1.8001 -0.3710  0.2337
47872SOL     OW55340   7.053   2.050   9.952  0.1638  0.7974 -0.0915
47872SOL    HW155341   7.039   2.060  10.046  0.1706  0.9030 -0.1012
47872SOL    HW255342   7.097   1.966   9.943  1.1106  1.2640  0.0871
47873SOL     OW55343   4.331   8.930   9.233 -0.5858 -0.0567 -0.0121
47873SOL    HW155344   4.321   8.914   9.327 -1.6679 -1.7232 -0.3623
47873SOL    HW255345   4.310   9.023   9.222 -1.9926 -0.1983  1.2046
47874SOL     OW55346   2.390   8.749  13.163  0.7935  0.2434 -0.2883
47874SOL    HW155347   2.419   8.782  13.248  1.4545 -0.1112 -0.3662
47874SOL    HW255348   2.338   8.672  13.185 -0.1343  0.9026 -0.1451
47875SOL     OW55349   4.783   2.178   8.427  0.4907  0.1240  0.1961
47875SOL    HW155350   4.693   2.208   8.416  0.5179  0.3158  0.4815
47875SOL    HW255351   4.832   2.256   8.451  0.6557 -0.0527  0.4499
47876SOL     OW55352  12.247   7.823   0.858 -0.7240 -0.6697  0.9024
47876SOL    HW155353  12.269   7.734   0.884 -0.3212 -0.5992  0.8094
47876SOL    HW255354  12.314   7.878   0.900 -1.5720 -0.3026  1.8163
47877SOL     OW55355   9.431  11.215   1.027  0.5535 -0.0555  0.2522
47877SOL    HW155356   9.504  11.227   0.966  0.5568 -1.6617 -0.1135
47877SOL    HW255357   9.432  11.121   1.046 -0.8807  0.0497  0.9319
47878SOL     OW55358   9.473  13.142  10.983  0.0074  0.0867  0.4832
47878SOL    HW155359   9.452  13.102  10.898  0.7206  1.2738 -0.2794
47878SOL    HW255360   9.389  13.147  11.028  0.0455 -3.7493  1.3428
47879SOL     OW55361   2.136   2.273   1.153  0.2392 -0.2191 -0.2886
47879SOL    HW155362   2.176   2.346   1.200  0.2252 -0.6182  0.3610
47879SOL    HW255363   2.149   2.197   1.211  1.4173 -1.0109 -1.5223
47880SOL     OW55364  12.356  12.725   2.253  0.0684 -0.0646 -0.5997
47880SOL    HW155365  12.430  12.664   2.247  0.6839  0.7699 -2.0276
47880SOL    HW255366  12.387  12.804   2.208 -0.3909  1.6502  1.8405
47881SOL     OW55367   5.740   1.419   0.276 -0.3599 -0.2761 -0.2507
47881SOL    HW155368   5.723   1.497   0.329  0.5107  0.7388 -1.3880
47881SOL    HW255369   5.663   1.364   0.287 -0.0039 -0.3384  2.4227
47882SOL     OW55370   0.990  11.182   0.683 -0.0590  0.1707  0.0545
47882SOL    HW155371   1.074  11.185   0.728 -0.1612 -1.7486  0.5002
47882SOL    HW255372   1.012  11.181   0.590  0.3717  0.4708  0.1537
47883SOL     OW55373  10.413   2.714   5.775 -0.4448  0.8332  0.9041
47883SOL    HW155374  10.508   2.703   5.772 -0.4909  0.6484 -0.0331
47883SOL    HW255375  10.399   2.783   5.840  0.5272  2.8181 -0.8817
47884SOL     OW55376   2.209   7.048   0.241  0.0655  0.2543 -0.1960
47884SOL    HW155377   2.181   6.977   0.184 -0.1967  0.5761 -0.4729
47884SOL    HW255378   2.133   7.065   0.298  0.6379 -0.6873  0.8863
47885SOL     OW55379  12.206  13.333  13.014 -0.1069 -0.0319  0.0424
47885SOL    HW155380  12.180  13.400  12.950 -0.1208  1.4350  1.5311
47885SOL    HW255381  12.127  13.282  13.029  0.1958 -1.2412 -2.0110
47886SOL     OW55382   0.192   9.456   5.365 -0.3531  0.1613  0.4370
47886SOL    HW155383   0.206   9.376   5.416  1.9266  0.4489  0.3605
47886SOL    HW255384   0.147   9.515   5.426 -1.8927 -1.0761  0.5554
47887SOL     OW55385   3.133   1.614   9.851  0.3041  0.0566 -0.3607
47887SOL    HW155386   3.092   1.696   9.822 -1.0213  0.1773  1.6218
47887SOL    HW255387   3.108   1.550   9.785 -0.0226  0.9034 -1.0824
47888SOL     OW55388   3.317  11.558   7.761  0.2000  0.2082 -0.3556
47888SOL    HW155389   3.224  11.576   7.780  0.6830 -0.6704  3.6083
47888SOL    HW255390   3.316  11.473   7.717 -0.8756  0.7300 -1.4229
47889SOL     OW55391   5.325   4.834  11.940 -0.2645  0.1994  0.5277
47889SOL    HW155392   5.303   4.741  11.948 -1.9139  0.5800  0.5703
47889SOL    HW255393   5.306   4.855  11.848  1.9003  0.0803 -0.0131
47890SOL     OW55394   6.518   4.043  11.476 -0.4137  0.0608  0.3071
47890SOL    HW155395   6.587   3.979  11.457 -0.7675 -0.6206  1.2496
47890SOL    HW255396   6.504   4.036  11.570 -1.0656  0.9205  0.2847
47891SOL     OW55397   4.933   1.486  10.637 -0.0656 -0.6617 -0.0085
47891SOL    HW155398   4.963   1.502  10.726  0.3461 -0.8611 -0.1067
47891SOL    HW255399   5.003   1.520  10.581 -0.9106  0.6910 -0.2927
47892SOL     OW55400  12.508   2.817  11.203 -0.2939  0.2460  0.5696
47892SOL    HW155401  12.561   2.879  11.254  0.7237  0.7110 -0.9622
47892SOL    HW255402  12.551   2.733  11.216 -0.5659  0.1958  1.1695
47893SOL     OW55403   4.168  11.938   3.468 -0.6420  0.1171  0.1907
47893SOL    HW155404   4.086  11.896   3.442 -0.0609 -0.6696 -0.4276
47893SOL    HW255405   4.207  11.968   3.386  0.1351 -0.3680  0.3673
47894SOL     OW55406  10.474   4.094   8.976 -0.2722 -0.5246  0.2220
47894SOL    HW155407  10.527   4.152   9.031  0.2734 -0.6337 -0.1845
47894SOL    HW255408  10.414   4.152   8.929  1.3389 -0.1050 -1.3880
47895SOL     OW55409  12.146   5.696   4.364 -0.2781 -0.7035 -0.4115
47895SOL    HW155410  12.070   5.703   4.422  0.2991 -2.1354  0.5621
47895SOL    HW255411  12.217   5.737   4.414  0.0141 -1.1202 -0.4814
47896SOL     OW55412   3.608   0.371   2.932  0.4763 -0.3085 -0.1250
47896SOL    HW155413   3.536   0.397   2.990  1.6185  0.1194  1.1645
47896SOL    HW255414   3.672   0.442   2.941  1.1973 -0.8355 -0.9989
47897SOL     OW55415   5.314   4.381  11.112 -0.1999  0.2982  0.1947
47897SOL    HW155416   5.381   4.313  11.113 -1.6699 -1.2094  0.7114
47897SOL    HW255417   5.319   4.418  11.024  1.6934  0.6595  0.4147
47898SOL     OW55418   1.153   6.431   1.267  0.1529 -0.7215 -0.0511
47898SOL    HW155419   1.071   6.437   1.317 -0.4089 -2.2011 -0.7422
47898SOL    HW255420   1.165   6.519   1.231 -0.3851 -0.1103  1.1744
47899SOL     OW55421  12.601   4.063   8.072 -0.3718 -0.1999  0.3317
47899SOL    HW155422  12.653   4.036   8.148  0.5341 -1.7942 -0.8017
47899SOL    HW255423  12.566   4.148   8.097  2.4858  0.8039  1.3225
47900SOL     OW55424   9.919  11.028   5.267 -0.2904 -0.3404  0.1504
47900SOL    HW155425   9.849  11.092   5.257 -0.3343 -0.2357  1.0426
47900SOL    HW255426   9.885  10.964   5.329 -0.4797 -1.5870 -1.1832
47901SOL     OW55427   0.246   3.699   1.394 -0.2240 -0.1833 -0.7054
47901SOL    HW155428   0.170   3.724   1.341  0.7450 -0.4985 -2.3023
47901SOL    HW255429   0.309   3.666   1.331  1.8280  1.3924  0.3962
47902SOL     OW55430   0.275   4.435   4.933  0.3943 -0.1646  0.2507
47902SOL    HW155431   0.362   4.473   4.922 -0.1709  1.2755  0.5535
47902SOL    HW255432   0.290   4.353   4.979  1.5178  0.4773  1.0593
47903SOL     OW55433   3.542   1.885   7.346  0.7022 -0.7032  1.0357
47903SOL    HW155434   3.534   1.934   7.265 -0.1198 -1.5906  0.5615
47903SOL    HW255435   3.636   1.878   7.361  0.8406  0.4905  0.8059
47904SOL     OW55436   4.015  10.092   0.559 -0.1855  0.1958  0.3072
47904SOL    HW155437   3.930  10.131   0.581 -0.8031 -0.1971 -1.2693
47904SOL    HW255438   3.994  10.021   0.498  1.3528  0.6321 -0.7737
47905SOL     OW55439   1.085   5.341   0.192 -0.0592  0.7707 -0.4706
47905SOL    HW155440   1.107   5.252   0.219 -3.6270 -0.0965  0.0185
47905SOL    HW255441   1.052   5.383   0.271  1.2196  2.4883 -0.7835
47906SOL     OW55442   2.590  10.361  12.423 -0.7128  0.7152 -0.1814
47906SOL    HW155443   2.613  10.443  12.466  0.5617  0.0992  0.3882
47906SOL    HW255444   2.674  10.316  12.412 -1.4893 -0.9786  0.5061
47907SOL     OW55445   2.564  11.253  13.512  0.5243 -0.2059 -0.2965
47907SOL    HW155446   2.594  11.321  13.572  1.9098 -2.0788  1.2816
47907SOL    HW255447   2.627  11.255  13.440 -0.4261  1.2325 -1.1382
47908SOL     OW55448   6.864   9.313   6.724 -0.2271  0.0366  0.1152
47908SOL    HW155449   6.861   9.230   6.770  1.0236 -0.0729  0.0271
47908SOL    HW255450   6.927   9.366   6.773 -1.5823  1.2382  0.6415
47909SOL     OW55451   5.936   0.987   9.256 -0.5717  0.5318 -0.0781
47909SOL    HW155452   5.894   0.927   9.195  1.6915 -0.4691 -0.7524
47909SOL    HW255453   5.945   0.936   9.337 -0.6833  0.7571  0.0769
47910SOL     OW55454   2.218  11.492   4.861 -0.2566  0.3979 -0.0512
47910SOL    HW155455   2.270  11.530   4.932 -1.7709  0.7588  0.9111
47910SOL    HW255456   2.128  11.518   4.881 -0.8354 -0.2956 -1.6065
47911SOL     OW55457  11.393   0.359   8.466 -0.0054  0.1605 -0.0379
47911SOL    HW155458  11.303   0.374   8.436  0.1341 -0.8669 -1.0328
47911SOL    HW255459  11.398   0.405   8.550 -1.2300  0.8575 -0.3169
47912SOL     OW55460   8.295   5.225  12.821  0.6724  0.2323 -0.1758
47912SOL    HW155461   8.338   5.277  12.889  0.0158 -1.9563  2.0331
47912SOL    HW255462   8.212   5.198  12.860 -0.1673 -0.3240 -2.2328
47913SOL     OW55463   2.708   9.102  11.943  0.0864 -0.5666  0.1855
47913SOL    HW155464   2.630   9.048  11.929 -0.7246  0.6141  0.0372
47913SOL    HW255465   2.674   9.185  11.977  1.2335  0.1752 -0.4266
47914SOL     OW55466   4.685   8.786   1.597 -0.3889 -0.3624 -0.0097
47914SOL    HW155467   4.644   8.872   1.596 -0.4165 -0.3745  0.0639
47914SOL    HW255468   4.763   8.797   1.652 -0.0483 -0.2317 -0.5223
47915SOL     OW55469   7.058   5.691   8.786 -0.3513  0.6340  0.1726
47915SOL    HW155470   7.081   5.684   8.693 -0.8621  0.1067  0.0772
47915SOL    HW255471   7.016   5.777   8.793 -0.4251  0.6250 -0.1143
47916SOL     OW55472   2.572  13.571  12.813  0.1933 -0.2068  0.3441
47916SOL    HW155473   2.605  13.481  12.806  1.0544  0.0951  0.5054
47916SOL    HW255474   2.577  13.591  12.906 -1.7571 -0.6343  0.5849
47917SOL     OW55475   2.492  12.194   3.100 -0.0399  0.5106  0.0983
47917SOL    HW155476   2.575  12.147   3.102 -1.1138 -1.5078  1.4032
47917SOL    HW255477   2.441  12.151   3.030 -0.2319  1.2787 -0.2447
47918SOL     OW55478   1.902   9.191   3.545 -0.0474 -0.0454  0.2499
47918SOL    HW155479   1.915   9.255   3.475  0.6055  0.3622  0.7357
47918SOL    HW255480   1.989   9.155   3.561 -0.5372 -1.6928 -0.5992
47919SOL     OW55481  13.202  11.556   4.952  0.5543  0.0157 -0.5766
47919SOL    HW155482  13.154  11.635   4.929  0.5655 -0.0089 -0.6842
47919SOL    HW255483  13.258  11.582   5.025  1.1578  0.3158 -1.1437
47920SOL     OW55484   6.574   4.369   4.815 -0.2813 -0.3839 -0.8451
47920SOL    HW155485   6.564   4.329   4.902  0.3089  0.6125 -0.2988
47920SOL    HW255486   6.668   4.376   4.803 -0.3522  1.1180 -0.7706
47921SOL     OW55487   9.176   2.555   6.641  0.0040 -0.1533  0.1691
47921SOL    HW155488   9.164   2.514   6.555  0.2822 -0.1452  0.1264
47921SOL    HW255489   9.184   2.481   6.702  3.7833 -0.3358 -0.2998
47922SOL     OW55490  12.339   4.165  12.974 -0.3010  0.0227 -0.3683
47922SOL    HW155491  12.295   4.215  13.043 -0.5251 -0.7702  0.0791
47922SOL    HW255492  12.402   4.111  13.020  0.2810  0.2464 -0.8974
47923SOL     OW55493  10.712   1.791   8.360 -0.1354  0.0957 -0.0383
47923SOL    HW155494  10.739   1.849   8.431  0.6957 -0.3237 -0.0012
47923SOL    HW255495  10.671   1.849   8.296  2.0988  1.0185 -0.7502
47924SOL     OW55496   9.106   5.163   5.662 -0.0135  0.7439 -0.3918
47924SOL    HW155497   9.149   5.100   5.604 -0.4092 -1.0732  1.1862
47924SOL    HW255498   9.017   5.131   5.671  0.2289  0.5147  1.7666
47925SOL     OW55499  13.458   1.711  11.778  0.0212 -0.0355 -0.6139
47925SOL    HW155500  13.501   1.633  11.742  2.4762  0.1870  1.5267
47925SOL    HW255501  13.491   1.783  11.725  2.3108  0.1056  0.8724
47926SOL     OW55502   0.760   6.082  10.714  0.8576  0.6428  0.0441
47926SOL    HW155503   0.717   6.114  10.635  0.6913  1.4011  0.4290
47926SOL    HW255504   0.688   6.068  10.776  1.1882  2.5980  0.9286
47927SOL     OW55505   3.607   9.678   1.379 -0.3693  0.3628  0.0855
47927SOL    HW155506   3.678   9.653   1.438  1.0192  0.3184 -1.5447
47927SOL    HW255507   3.544   9.724   1.435 -0.2478 -1.6783  2.0469
47928SOL     OW55508   2.931  13.718   4.905 -0.2745  0.5501 -0.0566
47928SOL    HW155509   2.996  13.780   4.873 -0.2095  0.1381 -0.7455
47928SOL    HW255510   2.853  13.771   4.923 -0.1902  0.8444 -0.5548
47929SOL     OW55511   7.450   7.162   9.039  0.0967  0.0399 -0.5243
47929SOL    HW155512   7.471   7.238   9.094  0.1132  0.7300 -1.4692
47929SOL    HW255513   7.521   7.158   8.975 -0.2753 -0.3471 -0.9156
47930SOL     OW55514  11.182  10.662  12.052  0.1551 -0.3499 -0.0492
47930SOL    HW155515  11.177  10.745  12.100  0.8422  0.3203 -1.0861
47930SOL    HW255516  11.118  10.672  11.981  0.3516 -0.6412 -0.2663
47931SOL     OW55517   2.395   2.934   3.287 -0.2574 -0.0536  0.2410
47931SOL    HW155518   2.351   3.007   3.244  0.5365 -0.2685 -0.9745
47931SOL    HW255519   2.465   2.908   3.227 -0.0042 -1.2899  1.0149
47932SOL     OW55520   9.962   2.202  11.351  0.7198 -1.0070 -0.3894
47932SOL    HW155521   9.979   2.182  11.443 -2.0448 -1.4341  0.1431
47932SOL    HW255522   9.909   2.128  11.320 -1.8456  0.9439 -1.0890
47933SOL     OW55523  10.669   2.715   9.853 -0.1479  0.4430 -0.1354
47933SOL    HW155524  10.764   2.707   9.862  0.0392  0.8805 -1.4715
47933SOL    HW255525  10.655   2.807   9.829 -1.1147  0.9370  2.0845
47934SOL     OW55526  12.655   4.796  10.933  0.5390  0.3391  0.0366
47934SOL    HW155527  12.597   4.848  10.878  1.2588 -1.1410 -2.3112
47934SOL    HW255528  12.602   4.772  11.009 -1.2323  0.8002 -0.9885
47935SOL     OW55529   8.930   9.251   0.815 -0.6207  0.5281 -0.5995
47935SOL    HW155530   8.955   9.170   0.771 -1.0545 -0.0154  0.1222
47935SOL    HW255531   8.835   9.255   0.805 -1.1981 -1.1768  2.7426
47936SOL     OW55532   6.563   1.900   5.782 -0.5420 -0.3144  0.0480
47936SOL    HW155533   6.558   1.862   5.695  1.3940 -2.0468  0.6285
47936SOL    HW255534   6.596   1.829   5.838  0.3416  1.3658  1.7806
47937SOL     OW55535   0.849   7.925   1.690 -0.2907 -0.1103  0.0586
47937SOL    HW155536   0.872   8.013   1.664 -1.4864  0.7404  1.6742
47937SOL    HW255537   0.756   7.930   1.714 -0.5264 -1.9194 -0.3126
47938SOL     OW55538  10.417   5.274   0.512  0.1806  0.1623 -0.3899
47938SOL    HW155539  10.374   5.223   0.581 -0.3044 -0.8822 -1.4278
47938SOL    HW255540  10.500   5.301   0.550  0.0493 -0.6377  0.5069
47939SOL     OW55541   0.739   9.625  12.675  0.1038 -0.1180  0.9041
47939SOL    HW155542   0.747   9.542  12.722  0.9937 -0.3245  0.4195
47939SOL    HW255543   0.779   9.689  12.733 -0.1059 -0.1212  1.0510
47940SOL     OW55544   7.036   3.995   5.112  0.0307 -0.7343 -0.9074
47940SOL    HW155545   7.066   4.083   5.133  0.1949 -0.5562 -1.8528
47940SOL    HW255546   7.085   3.970   5.034 -0.5560 -1.3702 -1.0876
47941SOL     OW55547   1.214   7.647   9.693  0.4877 -0.6265  0.2399
47941SOL    HW155548   1.128   7.679   9.666  0.1566  0.8018  2.7314
47941SOL    HW255549   1.275   7.713   9.661  0.3076 -0.0004  1.1605
47942SOL     OW55550  12.810   7.327  12.748  0.4508  0.3886 -0.0423
47942SOL    HW155551  12.826   7.331  12.653  0.1287 -0.1688 -0.1271
47942SOL    HW255552  12.726   7.370  12.759  0.0935 -0.2665 -0.1241
47943SOL     OW55553   5.952  10.082   9.431  0.4034  0.2486  0.2513
47943SOL    HW155554   6.031  10.073   9.483 -1.3561 -2.2992  2.7474
47943SOL    HW255555   5.910  10.162   9.464  1.7275  1.5188 -0.9776
47944SOL     OW55556  11.780   7.069   8.840  0.6897  0.3898  0.2627
47944SOL    HW155557  11.794   7.161   8.861 -1.4141  1.4513 -2.3766
47944SOL    HW255558  11.686   7.063   8.823  0.7498 -2.3138  0.4843
47945SOL     OW55559   1.049  13.462  11.187  0.0722  0.0263 -0.3452
47945SOL    HW155560   0.956  13.466  11.162  0.5488 -2.4187 -2.9805
47945SOL    HW255561   1.093  13.516  11.122  0.6594 -0.1115 -0.0625
47946SOL     OW55562  13.287   5.388   4.667 -0.5642  0.1291  0.1666
47946SOL    HW155563  13.290   5.483   4.660  1.9258  0.2252  1.5895
47946SOL    HW255564  13.292   5.357   4.577 -1.3930  1.3136 -0.3074
47947SOL     OW55565   6.395   8.848   4.632  0.3101  0.4411 -0.3654
47947SOL    HW155566   6.394   8.886   4.545  0.7796  1.4642  0.0660
47947SOL    HW255567   6.418   8.920   4.690  2.5544 -0.7571  0.3452
47948SOL     OW55568  11.652  13.005   3.420  0.4428 -0.1979 -0.1920
47948SOL    HW155569  11.663  13.038   3.330  1.0197  1.4606  0.4589
47948SOL    HW255570  11.633  13.083   3.472  2.3776 -0.7815  1.5255
47949SOL     OW55571  11.935   1.583  11.452 -0.2183  0.5297 -0.2094
47949SOL    HW155572  12.030   1.579  11.439 -0.1771 -0.0065  0.2123
47949SOL    HW255573  11.925   1.612  11.543 -0.4568  0.6132 -0.2636
47950SOL     OW55574  10.253   1.994  11.734 -0.3045 -0.4036  0.5876
47950SOL    HW155575  10.270   1.901  11.748 -0.3147 -0.6489 -0.8916
47950SOL    HW255576  10.328   2.024  11.682 -1.4037 -0.1341 -0.9006
47951SOL     OW55577  10.126  10.108  11.779 -0.0273 -0.0008 -0.1131
47951SOL    HW155578  10.196  10.154  11.733 -0.4618 -0.9630 -1.8552
47951SOL    HW255579  10.123  10.022  11.736 -1.7347 -0.2655  0.4749
47952SOL     OW55580   4.948  11.051  11.681  0.0116 -0.0304  0.1245
47952SOL    HW155581   4.921  11.095  11.762  0.1523  1.7893 -0.7670
47952SOL    HW255582   5.022  10.996  11.707  1.0867  1.7173  1.0178
47953SOL     OW55583  11.629   9.799   1.166 -0.7772 -0.2694 -0.4606
47953SOL    HW155584  11.632   9.893   1.184  1.0279 -0.0182 -1.7584
47953SOL    HW255585  11.577   9.792   1.086  0.2641 -0.1918 -1.1634
47954SOL     OW55586   1.150   1.400  10.130 -0.0184  0.1889  0.0197
47954SOL    HW155587   1.093   1.371  10.059  0.7656 -0.2278 -0.4578
47954SOL    HW255588   1.118   1.487  10.153  0.1528  0.6493 -1.3523
47955SOL     OW55589  11.249  13.431   0.750 -0.3452  0.0136 -0.1811
47955SOL    HW155590  11.296  13.373   0.809 -0.1203 -0.4774 -0.8417
47955SOL    HW255591  11.313  13.459   0.685 -0.6064  0.4969 -0.2426
47956SOL     OW55592  13.601   9.351  11.004  0.2655  0.2947 -0.5236
47956SOL    HW155593  13.558   9.436  10.991 -0.3915 -0.0581 -0.7271
47956SOL    HW255594  13.672   9.369  11.065 -0.2922  0.8668 -0.0268
47957SOL     OW55595  10.991  13.086  11.524 -0.0509  0.0085  0.4358
47957SOL    HW155596  11.021  13.171  11.493  1.5606 -0.6399  0.1444
47957SOL    HW255597  11.028  13.078  11.612 -2.7307  0.8704  1.7547
47958SOL     OW55598  11.937   4.255   2.151 -0.2607 -0.3807  0.1533
47958SOL    HW155599  11.985   4.175   2.170 -0.3291 -0.3339  0.5353
47958SOL    HW255600  11.892   4.276   2.233  1.0200  0.9138  0.5909
47959SOL     OW55601   9.088   2.537   8.130 -0.1615 -0.7395 -0.0680
47959SOL    HW155602   9.172   2.509   8.166 -0.0618  0.0790  0.3678
47959SOL    HW255603   9.036   2.457   8.123  0.6760 -1.2619 -0.4063
47960SOL     OW55604   9.199   4.880   0.108  0.0294 -0.0230  0.2777
47960SOL    HW155605   9.219   4.855   0.018 -0.1209 -1.4926  0.6174
47960SOL    HW255606   9.132   4.947   0.100 -1.1799 -1.2793 -0.7008
47961SOL     OW55607   5.890  10.412   1.025 -0.1048  0.4656 -0.0429
47961SOL    HW155608   5.822  10.449   1.082  0.4905 -0.2896  1.1903
47961SOL    HW255609   5.939  10.488   0.994 -0.9766  0.9526 -0.2612
47962SOL     OW55610  11.407   3.861   0.817 -0.1523  0.2845  0.0546
47962SOL    HW155611  11.485   3.910   0.792 -0.4975  1.0100  0.3658
47962SOL    HW255612  11.403   3.871   0.913 -0.5642  0.1688  0.0517
47963SOL     OW55613   3.474   0.719  10.636  0.4757  0.5672  0.1763
47963SOL    HW155614   3.394   0.769  10.618  1.0033  1.0638 -0.9399
47963SOL    HW255615   3.523   0.774  10.697  1.1514  1.5872 -1.2086
47964SOL     OW55616   7.950   5.508   6.055 -0.0216 -0.3877  0.2336
47964SOL    HW155617   7.919   5.451   5.986 -0.3228 -0.3021  0.2959
47964SOL    HW255618   7.879   5.509   6.120 -0.4236  0.7823 -0.1999
47965SOL     OW55619   0.878  11.404  10.332 -0.1200  0.0103 -1.1563
47965SOL    HW155620   0.816  11.382  10.402 -0.6640 -1.2741 -2.0151
47965SOL    HW255621   0.961  11.367  10.362 -0.1625  0.1900 -0.8085
47966SOL     OW55622   0.804   5.339   3.618  0.1396 -0.4153 -0.5346
47966SOL    HW155623   0.826   5.315   3.528  1.0232  0.9214 -0.6941
47966SOL    HW255624   0.888   5.353   3.660 -0.2396 -1.7206  0.7309
47967SOL     OW55625   3.975   5.343   4.322 -0.2289  0.4761 -0.5278
47967SOL    HW155626   3.945   5.425   4.282  3.7187  1.2200 -2.5230
47967SOL    HW255627   4.056   5.368   4.367  1.7573 -2.4179 -2.2062
47968SOL     OW55628   9.421   4.662  13.103 -0.3294  0.0858  0.2816
47968SOL    HW155629   9.423   4.579  13.149 -1.5656 -0.2655 -0.2358
47968SOL    HW255630   9.513   4.684  13.088  0.0190 -1.0858  0.5921
47969SOL     OW55631   9.028   2.576  12.638  0.0382  0.4411  0.2494
47969SOL    HW155632   9.098   2.584  12.573  0.4544 -0.4606  0.5622
47969SOL    HW255633   9.072   2.588  12.722  0.0178 -1.1123  0.5064
47970SOL     OW55634   8.609   3.381   5.510  0.0420  0.3087 -0.2445
47970SOL    HW155635   8.562   3.408   5.431 -0.6453 -0.4876 -0.1171
47970SOL    HW255636   8.568   3.298   5.535  1.4156 -0.3319 -0.0395
47971SOL     OW55637  10.990  10.273  11.335  0.6722  0.6101 -0.3197
47971SOL    HW155638  10.966  10.353  11.383  1.5416  1.2876 -0.9854
47971SOL    HW255639  11.084  10.264  11.349  0.6730 -0.0053 -0.6971
47972SOL     OW55640   9.742  12.387  10.413  0.3832 -0.0546  0.2874
47972SOL    HW155641   9.746  12.473  10.456  1.1957 -0.2663  0.6479
47972SOL    HW255642   9.807  12.392  10.343 -0.2645 -0.0453 -0.3288
47973SOL     OW55643   4.787  11.912   1.902  0.7980  0.4012  0.1302
47973SOL    HW155644   4.759  11.821   1.892  0.1991  0.1953  2.8911
47973SOL    HW255645   4.860  11.908   1.964  1.5941  1.7312 -0.6487
47974SOL     OW55646   3.942  12.834   5.282 -0.4095 -0.0049  0.5224
47974SOL    HW155647   4.034  12.860   5.274 -0.3705 -0.4942 -0.6827
47974SOL    HW255648   3.941  12.740   5.264 -1.1209 -0.0497  0.7573
47975SOL     OW55649   0.973  11.678   6.313  0.2021  0.0483  0.2373
47975SOL    HW155650   1.013  11.625   6.383 -0.9180  0.6587  1.3719
47975SOL    HW255651   0.885  11.696   6.344 -0.6795 -0.5082 -1.8258
47976SOL     OW55652   9.617   1.034   0.701  0.0095 -0.2539  0.3586
47976SOL    HW155653   9.657   1.121   0.697 -0.3403 -0.0831  0.5439
47976SOL    HW255654   9.686   0.975   0.670  0.2188  0.0964  0.1458
47977SOL     OW55655  10.504  12.068   9.758 -0.2375 -0.0880 -0.5103
47977SOL    HW155656  10.571  12.119   9.805 -0.1085 -1.4173  0.8404
47977SOL    HW255657  10.448  12.134   9.717  0.7823  1.1000 -0.0584
47978SOL     OW55658  10.210   0.448   7.493  0.0155  0.4851 -0.4103
47978SOL    HW155659  10.302   0.429   7.514 -0.2418  0.6737  1.0001
47978SOL    HW255660  10.160   0.389   7.550 -0.7717  3.3337  2.0785
47979SOL     OW55661   7.482  12.850  12.243 -0.1350 -1.3048  0.5993
47979SOL    HW155662   7.508  12.939  12.221 -1.0766 -1.1176  0.2294
47979SOL    HW255663   7.547  12.822  12.308  1.5536 -1.1905 -0.9402
47980SOL     OW55664   4.739   3.053   7.608 -0.2810  0.5106 -0.3478
47980SOL    HW155665   4.799   3.093   7.545  0.5988  0.9003  0.6849
47980SOL    HW255666   4.662   3.109   7.608  0.2671  1.2756 -0.1124
47981SOL     OW55667   7.042   2.099   4.627  0.2277  0.2348  0.2114
47981SOL    HW155668   6.995   2.169   4.671 -0.9885 -0.5084  0.1287
47981SOL    HW255669   7.097   2.060   4.695 -0.3282  0.2181  0.6594
47982SOL     OW55670   4.371  11.681   8.525 -0.2861 -0.3602  0.2336
47982SOL    HW155671   4.315  11.677   8.602 -0.5718 -1.9352 -0.0174
47982SOL    HW255672   4.451  11.724   8.555 -1.0181  0.5351  0.9733
47983SOL     OW55673  12.847   0.866   9.228 -0.4108  0.3696  0.4041
47983SOL    HW155674  12.845   0.897   9.318 -0.8649 -1.2996  1.0002
47983SOL    HW255675  12.791   0.788   9.228 -0.0566  0.0824 -1.2144
47984SOL     OW55676   5.699   0.406   0.437  0.2522 -0.4302 -0.0439
47984SOL    HW155677   5.791   0.380   0.438  0.4079 -0.0206 -1.2902
47984SOL    HW255678   5.700   0.494   0.397 -0.6627 -0.3740  0.0475
47985SOL     OW55679  11.938   4.727  10.507  0.6832 -0.2386 -0.6469
47985SOL    HW155680  11.877   4.798  10.487 -0.0430 -1.1778 -1.9268
47985SOL    HW255681  11.897   4.680  10.579 -1.0855 -1.9052 -2.6173
47986SOL     OW55682  12.607   2.923   7.746  0.3112  0.3242  0.1961
47986SOL    HW155683  12.595   2.898   7.654  4.3708 -0.9923 -0.1672
47986SOL    HW255684  12.619   3.018   7.744 -0.3006  0.3939 -0.5169
47987SOL     OW55685   0.888   9.260   7.737  0.2394  0.1463 -0.1102
47987SOL    HW155686   0.815   9.262   7.799 -0.6720 -0.2277 -1.1290
47987SOL    HW255687   0.864   9.324   7.670 -0.6100 -1.9812 -1.9688
47988SOL     OW55688  12.593   7.184   8.505 -0.2245  0.2322 -0.4202
47988SOL    HW155689  12.543   7.111   8.542 -0.2098 -0.1700 -1.1809
47988SOL    HW255690  12.669   7.143   8.465  0.2158  0.7548 -0.1226
47989SOL     OW55691  10.233   7.682  12.808  0.3464 -0.5918 -0.2214
47989SOL    HW155692  10.329   7.692  12.808  0.5204 -1.0500  3.1989
47989SOL    HW255693  10.201   7.763  12.846 -0.7008 -0.3289 -1.6025
47990SOL     OW55694  13.345   4.464   7.843  0.0444  0.1248 -0.0047
47990SOL    HW155695  13.417   4.470   7.906 -0.7506 -0.1199  0.9557
47990SOL    HW255696  13.284   4.532   7.871 -0.8916 -0.8080  0.2558
47991SOL     OW55697  11.707  10.565   8.564 -0.3836 -0.2485 -0.1882
47991SOL    HW155698  11.730  10.575   8.472 -2.5931 -1.4365 -0.9361
47991SOL    HW255699  11.664  10.648   8.587  0.1334  0.0346 -0.2369
47992SOL     OW55700   6.168   2.212  13.519  0.5178  0.2634 -0.1827
47992SOL    HW155701   6.130   2.299  13.529 -0.6963 -0.3825  1.2313
47992SOL    HW255702   6.161   2.173  13.606  0.1912 -1.5836 -0.9858
47993SOL     OW55703   1.565   2.623   6.807 -0.0393  0.0879 -0.1145
47993SOL    HW155704   1.651   2.663   6.798  0.3164 -0.7061 -0.4046
47993SOL    HW255705   1.575   2.537   6.766 -1.3413  0.5097 -1.3828
47994SOL     OW55706   1.177   8.733   3.945  0.5457 -0.1006  0.0282
47994SOL    HW155707   1.210   8.820   3.969  0.5477  0.3331 -1.4450
47994SOL    HW255708   1.166   8.737   3.850 -1.9475 -0.8452  0.2136
47995SOL     OW55709  11.318   0.415   1.699 -0.1637  0.2279 -0.5446
47995SOL    HW155710  11.317   0.495   1.646  1.0347  0.0314 -0.9012
47995SOL    HW255711  11.402   0.374   1.678 -0.6211 -0.9621 -0.1234
47996SOL     OW55712  11.725  10.818   2.168 -0.1444  0.7600 -0.2211
47996SOL    HW155713  11.805  10.869   2.182  0.1998  0.7618 -1.9091
47996SOL    HW255714  11.749  10.755   2.100 -1.1824 -0.2187  0.2923
47997SOL     OW55715   5.650  13.405   6.476  0.0792 -0.3310  0.7613
47997SOL    HW155716   5.661  13.412   6.570 -0.3158 -0.1756  0.7995
47997SOL    HW255717   5.727  13.447   6.439  0.9808 -1.7024  1.0141
47998SOL     OW55718  10.435  10.437  12.668 -0.0148  0.1870 -0.2946
47998SOL    HW155719  10.461  10.356  12.624  1.8003  0.8132 -0.4463
47998SOL    HW255720  10.377  10.481  12.605  0.4231 -0.1687 -0.9504
47999SOL     OW55721   0.024   5.170  10.073 -0.1712 -0.2061 -0.2472
47999SOL    HW155722  -0.037   5.102  10.102 -1.6085  1.9800  2.3319
47999SOL    HW255723   0.079   5.187  10.150  0.6681  0.9785 -1.0721
48000SOL     OW55724   2.525   7.419  13.197  0.0413  0.3426 -0.1810
48000SOL    HW155725   2.514   7.466  13.279  1.6965  0.1079  0.2264
48000SOL    HW255726   2.478   7.471  13.132 -0.6434  0.9384  0.7771
48001SOL     OW55727   7.266  11.101   3.607 -0.3494 -0.5166  0.7146
48001SOL    HW155728   7.280  11.090   3.513 -0.0369 -2.2216  0.9364
48001SOL    HW255729   7.331  11.166   3.633 -1.4487  1.1467 -0.4859
48002SOL     OW55730   9.187   9.206   8.041 -0.0747 -0.0123  0.4104
48002SOL    HW155731   9.150   9.118   8.039 -1.3653  0.5168 -0.0099
48002SOL    HW255732   9.217   9.218   8.131  1.1470 -1.2744  0.1996
48003SOL     OW55733   1.943  10.419   5.542  0.1156  0.7009 -0.5496
48003SOL    HW155734   2.003  10.443   5.613 -0.6239 -2.0536  1.1603
48003SOL    HW255735   1.859  10.459   5.568 -0.2619 -0.6498  0.4657
48004SOL     OW55736   8.641   9.678  13.389  0.6007 -0.0283 -0.1914
48004SOL    HW155737   8.623   9.733  13.465  1.2013 -0.1145  0.0209
48004SOL    HW255738   8.568   9.616  13.386 -0.7660  1.5436 -1.1738
48005SOL     OW55739  10.618  11.480   2.483 -1.0676 -0.0469 -0.8610
48005SOL    HW155740  10.572  11.563   2.484 -1.9578 -0.5131  1.1830
48005SOL    HW255741  10.553  11.415   2.508  0.4052 -0.8686  1.0964
48006SOL     OW55742  12.220   9.333   1.547 -0.0550 -0.0498  1.2497
48006SOL    HW155743  12.221   9.352   1.641 -1.6744 -0.5544  1.4007
48006SOL    HW255744  12.127   9.336   1.523  0.4846  3.0765 -0.9967
48007SOL     OW55745  13.669   6.899  12.254  0.0798 -0.3282  0.3596
48007SOL    HW155746  13.715   6.942  12.326 -0.4668  1.6034 -0.3732
48007SOL    HW255747  13.733   6.898  12.183 -0.2946  0.3886  0.0050
48008SOL     OW55748   6.267  12.305   9.031 -0.0560  0.1771  0.1809
48008SOL    HW155749   6.312  12.387   9.013  1.0691 -0.6187 -0.8194
48008SOL    HW255750   6.257  12.304   9.126  0.1905  1.3275  0.2334
48009SOL     OW55751   5.018   6.354  12.391 -0.2645  0.1517 -0.0509
48009SOL    HW155752   5.091   6.404  12.428  0.6219 -1.4209  0.4142
48009SOL    HW255753   5.059   6.283  12.343 -1.4655  0.7072 -1.9999
48010SOL     OW55754  13.634   3.007   0.752  0.2791 -0.4406  0.4982
48010SOL    HW155755  13.606   3.084   0.703  2.2975 -0.1841 -0.3522
48010SOL    HW255756  13.706   3.038   0.806  3.3120 -2.2456 -2.1909
48011SOL     OW55757  12.465   1.354  11.622  0.0853 -0.5749 -0.0204
48011SOL    HW155758  12.518   1.276  11.638 -0.7870 -1.0003  0.9127
48011SOL    HW255759  12.411   1.331  11.546  0.4635 -0.5366 -0.3043
48012SOL     OW55760   3.623  11.389   7.538  0.4946 -0.4057 -0.5872
48012SOL    HW155761   3.718  11.382   7.546  0.6466  1.0127 -0.9002
48012SOL    HW255762   3.598  11.450   7.607 -0.3069 -1.4093  0.0334
48013SOL     OW55763   2.349   5.032   0.263 -0.1662 -0.0121  0.0356
48013SOL    HW155764   2.259   5.018   0.293 -0.4825 -0.6395 -1.1037
48013SOL    HW255765   2.375   5.115   0.301 -1.3636  0.3428  0.1185
48014SOL     OW55766   0.068   6.837  12.816 -0.1007  0.6038  0.8941
48014SOL    HW155767   0.020   6.918  12.836  1.0972  1.5908 -0.0836
48014SOL    HW255768   0.152   6.867  12.781  0.1942 -1.0695  0.0975
48015SOL     OW55769   3.609   0.759  10.257 -0.8280 -0.1672  0.0237
48015SOL    HW155770   3.628   0.724  10.170 -1.9443 -0.4770 -0.1205
48015SOL    HW255771   3.517   0.787  10.252 -1.2863 -1.2598  1.4251
48016SOL     OW55772   0.822  10.160   3.724 -0.3083  0.0278  0.2690
48016SOL    HW155773   0.784  10.074   3.743  0.8643 -0.5740 -0.0470
48016SOL    HW255774   0.852  10.192   3.809  0.2806 -0.3785  0.2138
48017SOL     OW55775   2.877   4.174  10.784  0.1915  0.2311  0.0968
48017SOL    HW155776   2.911   4.244  10.729 -0.3639  0.5259  0.1244
48017SOL    HW255777   2.948   4.156  10.846  1.0618 -0.5203 -1.0679
48018SOL     OW55778  10.344   3.762  13.198  0.1098 -0.2455 -0.7152
48018SOL    HW155779  10.386   3.815  13.130  1.2038  0.2776  0.3261
48018SOL    HW255780  10.251   3.780  13.189  0.0152 -1.3994 -3.0877
48019SOL     OW55781   7.498  13.272   1.887 -0.0142  0.1792  0.0108
48019SOL    HW155782   7.548  13.343   1.929  1.7238 -1.2810  0.5415
48019SOL    HW255783   7.409  13.282   1.921  0.8577  0.3470  2.4334
48020SOL     OW55784   8.285  12.304   7.976  0.1047 -0.4374 -0.1663
48020SOL    HW155785   8.336  12.252   8.038 -0.7376 -0.8509  0.1907
48020SOL    HW255786   8.228  12.241   7.933  0.7243 -0.1696 -1.4316
48021SOL     OW55787   2.981   1.951   1.955 -0.2956 -0.0832  0.0281
48021SOL    HW155788   2.933   1.912   1.882  1.4477 -1.2813 -0.5786
48021SOL    HW255789   3.040   1.880   1.984  2.5606  1.8113 -0.6743
48022SOL     OW55790   7.993   4.750   9.214  0.1867 -0.5211 -0.3658
48022SOL    HW155791   8.019   4.659   9.230 -3.5302 -1.2985  2.5127
48022SOL    HW255792   8.075   4.793   9.189  2.4542 -4.2354 -0.2081
48023SOL     OW55793   0.122   4.701   4.437  0.5109 -0.1934  0.0871
48023SOL    HW155794   0.132   4.796   4.441  0.6650 -0.2056  0.0073
48023SOL    HW255795   0.160   4.669   4.518 -0.1859 -0.1379  0.4451
48024SOL     OW55796   9.548   6.799   6.508  0.0082  0.1275  0.2241
48024SOL    HW155797   9.601   6.755   6.574  1.6941  0.8741 -0.5489
48024SOL    HW255798   9.551   6.741   6.432 -2.4208 -1.0167  0.9238
48025SOL     OW55799  12.477  11.659   3.276  0.1454 -0.3440 -0.1048
48025SOL    HW155800  12.498  11.568   3.297 -1.4445 -0.7974 -0.3873
48025SOL    HW255801  12.514  11.672   3.188  2.9728  0.2425  1.0524
48026SOL     OW55802   9.911  10.266  11.154 -0.3736  0.1611  0.1320
48026SOL    HW155803   9.869  10.277  11.239  0.0351  1.8975  0.1477
48026SOL    HW255804   9.990  10.320  11.158 -0.5168  0.5563 -1.4670
48027SOL     OW55805   8.067   6.325   8.879  0.7058  0.8699  0.6842
48027SOL    HW155806   8.077   6.391   8.948 -0.4190 -0.4387  2.1880
48027SOL    HW255807   7.973   6.318   8.866  0.8034 -0.4527  0.5878
48028SOL     OW55808  12.567   4.055  13.079 -0.2801 -0.5079 -0.5115
48028SOL    HW155809  12.603   4.144  13.086 -0.4297 -0.1539 -3.2711
48028SOL    HW255810  12.578   4.018  13.166 -2.4849  3.0473  1.5301
48029SOL     OW55811   6.469  11.785   6.663  0.1217  0.0758  0.0222
48029SOL    HW155812   6.518  11.729   6.603  1.6542  0.1839  1.1345
48029SOL    HW255813   6.535  11.836   6.709 -1.0804  0.7660  1.0494
48030SOL     OW55814  11.502  10.275   0.626 -0.2395 -0.2434 -0.0288
48030SOL    HW155815  11.531  10.358   0.587 -2.1111  0.7603  0.6348
48030SOL    HW255816  11.454  10.231   0.555  0.1096 -0.4353 -0.1507
48031SOL     OW55817  11.425  11.211   4.851 -0.0387  0.3355  0.1986
48031SOL    HW155818  11.379  11.129   4.831  0.2407 -0.0119  0.9188
48031SOL    HW255819  11.501  11.211   4.793 -1.2659  1.2342 -1.4715
48032SOL     OW55820  10.397   1.543   9.729  0.0864 -0.3144  0.8432
48032SOL    HW155821  10.483   1.506   9.750  0.6718  0.8376  0.5385
48032SOL    HW255822  10.375   1.598   9.803  0.3514  0.6452  0.2235
48033SOL     OW55823   3.563   9.743  13.637  0.3922 -0.2174  0.5948
48033SOL    HW155824   3.543   9.789  13.555  1.9728  1.0963  0.8950
48033SOL    HW255825   3.659   9.744  13.641  0.4823 -3.0239  0.9434
48034SOL     OW55826   0.064   4.415   7.162  0.4184  0.0598 -0.6764
48034SOL    HW155827   0.104   4.379   7.242  0.8218  0.7033 -0.5823
48034SOL    HW255828   0.112   4.496   7.146  0.1669  0.0624 -1.4361
48035SOL     OW55829   6.753  13.738  12.100 -0.3723  0.2420 -0.7581
48035SOL    HW155830   6.742  13.723  12.006  1.6357  0.6782 -1.0978
48035SOL    HW255831   6.725  13.655  12.140 -0.6689 -0.1684 -1.7801
48036SOL     OW55832  11.061   4.733   5.623  0.0236 -0.4377  0.0404
48036SOL    HW155833  10.992   4.739   5.689  1.4420 -0.4495  1.5885
48036SOL    HW255834  11.141   4.754   5.670  0.9670  0.8421 -1.9852
48037SOL     OW55835   9.294   6.379   5.799 -0.4127  0.2157  0.1617
48037SOL    HW155836   9.384   6.365   5.769 -0.3879  1.0012 -0.1423
48037SOL    HW255837   9.260   6.447   5.741 -0.8266  0.7429  1.0232
48038SOL     OW55838  11.527   8.241  12.039 -0.0930 -0.0045 -0.1455
48038SOL    HW155839  11.451   8.278  12.084  0.6977  1.6726 -0.1168
48038SOL    HW255840  11.493   8.216  11.953 -1.1028 -1.1614  0.5550
48039SOL     OW55841  13.550   8.826   0.931 -0.2525  0.1311 -0.0906
48039SOL    HW155842  13.466   8.842   0.974  0.0106  1.4331 -0.0265
48039SOL    HW255843  13.550   8.884   0.855  2.3669  3.7357  2.2858
48040SOL     OW55844  12.032   1.283   1.294 -0.5160  0.2175 -0.3706
48040SOL    HW155845  12.103   1.273   1.231 -0.5084  1.2759 -0.5464
48040SOL    HW255846  11.963   1.329   1.245 -0.7971  0.3864  0.1784
48041SOL     OW55847  11.927  12.361  12.271  0.3137  0.0453  0.4297
48041SOL    HW155848  11.989  12.378  12.200  0.1133 -0.7354  0.0581
48041SOL    HW255849  11.844  12.345  12.228  0.5798 -2.3376  0.6705
48042SOL     OW55850   9.612  10.729   7.661  0.4258  0.5347  1.0350
48042SOL    HW155851   9.620  10.799   7.726 -1.1833  0.1349  1.7185
48042SOL    HW255852   9.535  10.680   7.689  2.0320 -2.1295  1.1568
48043SOL     OW55853  13.507   3.130   5.763 -0.2234  0.2451  0.1259
48043SOL    HW155854  13.494   3.050   5.814 -0.4318 -1.0373 -1.8100
48043SOL    HW255855  13.598   3.153   5.778 -0.2090 -0.2652  0.8670
48044SOL     OW55856   9.965   3.090   5.142  0.8240 -0.1856 -0.2201
48044SOL    HW155857   9.871   3.096   5.157  0.8391 -2.8769  1.7842
48044SOL    HW255858   9.987   2.999   5.162  3.8525  0.3132 -0.7248
48045SOL     OW55859  13.475   4.383  10.405 -0.0530 -0.5667 -0.0675
48045SOL    HW155860  13.381   4.395  10.391  0.5387  3.3855 -1.9839
48045SOL    HW255861  13.482   4.361  10.498 -2.8194  1.1377  0.6692
48046SOL     OW55862  11.099   5.378  11.599  0.8965  0.1129  0.3571
48046SOL    HW155863  11.052   5.331  11.531  0.6432  0.4314  0.3063
48046SOL    HW255864  11.030   5.410  11.658  0.9072  1.7154 -0.4268
48047SOL     OW55865   1.075   8.663   4.526  0.0304 -0.1734 -0.0295
48047SOL    HW155866   1.044   8.689   4.439 -1.1605 -3.1226 -0.5755
48047SOL    HW255867   1.011   8.600   4.557  1.6308 -0.8911  2.0453
48048SOL     OW55868   7.807   3.088   1.157  0.1051 -0.3387 -0.3873
48048SOL    HW155869   7.819   3.042   1.074 -0.6724  0.2708 -0.8548
48048SOL    HW255870   7.888   3.139   1.168  0.6730 -1.2477 -0.2083
48049SOL     OW55871   2.438  11.313   7.891 -0.0975 -0.0926  0.1718
48049SOL    HW155872   2.455  11.386   7.951  0.2398  1.9204 -2.2322
48049SOL    HW255873   2.358  11.273   7.926  0.6763  0.2732  2.5603
48050SOL     OW55874  12.085   1.480   4.281 -0.1195 -0.4928 -0.1067
48050SOL    HW155875  12.147   1.538   4.326 -0.3313 -2.0234  2.3537
48050SOL    HW255876  12.003   1.494   4.327 -0.5241 -1.6630 -0.4536
48051SOL     OW55877   5.015   2.967   8.782  0.0078  0.4034  0.0061
48051SOL    HW155878   4.991   2.964   8.874 -0.6817 -0.4266 -0.1775
48051SOL    HW255879   4.962   3.038   8.745 -1.8101 -1.0084 -0.2685
48052SOL     OW55880  13.043  10.485   2.245 -0.3224 -0.0288 -0.9050
48052SOL    HW155881  13.073  10.549   2.181  2.1858 -0.8691 -0.6590
48052SOL    HW255882  13.101  10.410   2.234  0.2015 -0.2306  2.2740
48053SOL     OW55883   2.011   5.009   2.013 -0.7786 -0.7791 -0.5383
48053SOL    HW155884   1.978   4.956   1.941  1.7334 -1.6478 -1.1748
48053SOL    HW255885   2.046   4.945   2.075 -1.8957  0.0068  0.9470
48054SOL     OW55886  12.402   9.262   5.186 -0.5504 -0.2570  0.6471
48054SOL    HW155887  12.467   9.287   5.251  0.5004  0.1115 -0.5012
48054SOL    HW255888  12.413   9.167   5.178  1.3111  0.0207 -0.9654
48055SOL     OW55889   2.131   9.472   8.135 -0.3191 -0.0183  0.2629
48055SOL    HW155890   2.075   9.422   8.077 -0.8200 -0.4167  1.0731
48055SOL    HW255891   2.184   9.406   8.180  0.2179  0.2978  0.1020
48056SOL     OW55892   8.784   6.595   4.241 -0.1482 -0.3738  0.4667
48056SOL    HW155893   8.771   6.689   4.229  1.4341 -0.2311 -0.3128
48056SOL    HW255894   8.695   6.560   4.253 -0.7956  1.1433  0.3051
48057SOL     OW55895   0.339   5.530  10.349 -0.2336 -0.7006  0.2990
48057SOL    HW155896   0.302   5.601  10.402 -0.4222  2.1717 -3.3400
48057SOL    HW255897   0.432   5.530  10.371 -0.3939 -0.0201  1.0172
48058SOL     OW55898   5.339   3.209   1.128  0.8943  0.6943 -0.0070
48058SOL    HW155899   5.381   3.166   1.054 -0.5414 -0.6057 -0.1171
48058SOL    HW255900   5.341   3.144   1.198 -0.5964  0.7071  0.0782
48059SOL     OW55901  12.764   5.162   0.753  0.1012  0.3666  0.5506
48059SOL    HW155902  12.777   5.068   0.749  0.0590  0.3964 -0.8544
48059SOL    HW255903  12.720   5.177   0.837 -0.1387 -0.8877  0.6682
48060SOL     OW55904   9.870   9.065   9.337  0.2100  0.5923  0.0752
48060SOL    HW155905   9.948   9.016   9.365 -1.8652 -3.6862 -0.7164
48060SOL    HW255906   9.865   9.049   9.243 -2.0604 -0.0832  0.2567
48061SOL     OW55907   6.807   5.601   6.437  0.0661 -0.1519  0.3131
48061SOL    HW155908   6.791   5.635   6.349  0.2089  0.8630  0.6722
48061SOL    HW255909   6.895   5.631   6.460 -0.3001  0.3504  1.1360
48062SOL     OW55910   7.469   0.192  10.335  0.1585  0.1851  0.0063
48062SOL    HW155911   7.540   0.253  10.356 -0.8600  1.3811  0.1090
48062SOL    HW255912   7.510   0.126  10.279  1.3296  0.8887  0.0003
48063SOL     OW55913  11.948   9.387  10.784  0.0921 -0.5922 -0.3698
48063SOL    HW155914  11.905   9.361  10.865  0.6453 -0.5277 -0.0509
48063SOL    HW255915  11.881   9.434  10.735  0.6833  2.5508  1.5766
48064SOL     OW55916  11.341   1.069  12.304 -0.2336  0.1293 -0.2263
48064SOL    HW155917  11.273   1.005  12.285 -0.3697  0.8122 -2.4358
48064SOL    HW255918  11.304   1.153  12.274  1.2007  0.6605 -0.6297
48065SOL     OW55919   6.393  13.369   6.835 -0.2370  0.1192  0.0810
48065SOL    HW155920   6.488  13.362   6.824 -0.5241 -4.8455 -1.5030
48065SOL    HW255921   6.363  13.414   6.756  0.6996  1.9605  0.7123
48066SOL     OW55922   7.427   0.829   5.773  0.0753 -0.0109  0.0205
48066SOL    HW155923   7.422   0.747   5.823 -0.4277  0.3508  0.5747
48066SOL    HW255924   7.504   0.874   5.809 -0.1792  0.1661  0.3496
48067SOL     OW55925  10.277   5.815   5.921 -0.1318 -0.2394  0.1874
48067SOL    HW155926  10.258   5.899   5.964  3.2048  0.1449  1.1579
48067SOL    HW255927  10.250   5.749   5.985  2.0600  0.2867  1.7714
48068SOL     OW55928  12.340   0.667   5.825 -0.0861  0.3564  0.0795
48068SOL    HW155929  12.432   0.642   5.839 -0.3232 -0.2791  0.5173
48068SOL    HW255930  12.331   0.672   5.729  0.3765  0.3173  0.0310
48069SOL     OW55931   4.531   4.679   9.529  0.1366 -0.8202 -0.0680
48069SOL    HW155932   4.517   4.768   9.496  1.0361 -0.2222  1.0905
48069SOL    HW255933   4.545   4.626   9.450  0.0384  0.1456 -0.7490
48070SOL     OW55934  11.052  10.198  12.674  0.1134 -0.2320 -0.7284
48070SOL    HW155935  11.107  10.216  12.598 -0.7748  0.1050 -1.3160
48070SOL    HW255936  11.048  10.282  12.720  1.7890 -0.7727  0.4949
48071SOL     OW55937   0.566  12.627  13.290 -0.7979  0.1580 -0.3691
48071SOL    HW155938   0.490  12.672  13.254 -1.2352 -0.5251 -0.3239
48071SOL    HW255939   0.604  12.690  13.352 -1.1939  0.5881 -0.5565
48072SOL     OW55940   6.251  10.213   7.252 -0.1680 -0.1398  0.6696
48072SOL    HW155941   6.209  10.260   7.181 -0.9791 -0.6891  0.7717
48072SOL    HW255942   6.344  10.215   7.231 -0.2756  0.7637  0.2417
48073SOL     OW55943   5.498   3.023  12.320  0.6128 -0.1808  0.3839
48073SOL    HW155944   5.557   2.948  12.326  1.4793  0.5342  1.0612
48073SOL    HW255945   5.477   3.030  12.227  0.8822 -0.9858  0.2587
48074SOL     OW55946   8.199   2.245   0.667 -0.3066 -0.3449  0.2623
48074SOL    HW155947   8.270   2.269   0.726 -0.3785 -0.8654  0.5661
48074SOL    HW255948   8.227   2.161   0.628 -0.5070 -0.2789 -0.0283
48075SOL     OW55949   7.017  12.735   5.591 -0.3019 -0.7874  0.1470
48075SOL    HW155950   6.987  12.820   5.557 -1.5803 -0.5880  1.6842
48075SOL    HW255951   6.955  12.672   5.555 -0.0157 -0.9386 -0.0874
48076SOL     OW55952  13.219   0.215  13.705 -0.1875  0.4228 -0.0603
48076SOL    HW155953  13.143   0.176  13.662  0.8493 -0.8194 -0.8821
48076SOL    HW255954  13.196   0.307  13.716 -1.5599  0.2084 -0.8620
48077SOL     OW55955   6.312  10.749  11.248  0.2241  0.3448 -0.4384
48077SOL    HW155956   6.337  10.740  11.341  0.0959 -0.8816 -0.5062
48077SOL    HW255957   6.332  10.840  11.227 -0.3083  0.8063  0.9587
48078SOL     OW55958   4.063   5.885   6.526 -0.1768 -0.3413  0.0129
48078SOL    HW155959   3.969   5.878   6.516 -0.3658  1.0218  0.5433
48078SOL    HW255960   4.085   5.969   6.484  0.9231 -1.0442 -0.8659
48079SOL     OW55961   5.699   8.844  12.731  0.6193 -0.4198 -0.4679
48079SOL    HW155962   5.653   8.865  12.649  0.9464 -1.1254 -0.8478
48079SOL    HW255963   5.645   8.884  12.799 -0.9005 -1.7011 -0.8503
48080SOL     OW55964   5.739  12.881   1.678  0.2554 -0.0327 -0.3319
48080SOL    HW155965   5.740  12.975   1.697  0.5583 -0.3194  1.1694
48080SOL    HW255966   5.789  12.873   1.596  2.6851  0.8495  0.9525
48081SOL     OW55967   7.125   5.816   5.752 -0.2651  0.0236  0.6178
48081SOL    HW155968   7.093   5.906   5.742 -0.9950 -0.3429 -0.5813
48081SOL    HW255969   7.211   5.826   5.794  0.7722  1.4946 -1.6243
48082SOL     OW55970  10.154   1.122  10.755  0.3367  0.2461 -0.4463
48082SOL    HW155971  10.221   1.171  10.802  1.3114 -1.0107 -0.4913
48082SOL    HW255972  10.153   1.161  10.668 -1.3777  2.4987  0.4585
48083SOL     OW55973   5.038   1.041   5.047 -0.6869  0.0638  0.0316
48083SOL    HW155974   5.117   1.006   5.088 -0.8801 -0.7333 -0.2650
48083SOL    HW255975   5.028   0.991   4.967 -1.2644  0.4472 -0.1432
48084SOL     OW55976   9.234  13.002   8.054  0.6448  0.2354 -0.6483
48084SOL    HW155977   9.256  12.944   7.982 -1.8999 -0.8491 -0.6448
48084SOL    HW255978   9.285  12.969   8.128  0.5482 -0.9340 -1.0847
48085SOL     OW55979   4.978  10.449   8.808 -0.0739 -0.0517 -0.8316
48085SOL    HW155980   5.002  10.365   8.768 -3.8506 -1.9535  0.4161
48085SOL    HW255981   4.938  10.499   8.737 -1.9926 -1.2836 -0.6891
48086SOL     OW55982  12.326   6.534   9.164  0.0126 -0.0694  0.1790
48086SOL    HW155983  12.350   6.509   9.254 -0.8044 -0.4997  0.2858
48086SOL    HW255984  12.324   6.451   9.116 -1.8986 -0.1549  0.3363
48087SOL     OW55985   2.139   7.856  12.234  0.1661 -0.2587 -0.0543
48087SOL    HW155986   2.099   7.831  12.151 -0.8082  0.6488  0.1169
48087SOL    HW255987   2.125   7.780  12.291  0.2473 -0.6234 -0.5109
48088SOL     OW55988  11.144   3.379   6.279 -0.1279  0.3858  0.1306
48088SOL    HW155989  11.218   3.437   6.257 -0.0836  0.5179  0.6065
48088SOL    HW255990  11.069   3.438   6.285 -0.1589  0.3361  0.2269
48089SOL     OW55991  10.795   7.868  10.378  0.5237 -0.5425 -0.2332
48089SOL    HW155992  10.817   7.832  10.292  2.2300 -0.4874  0.1600
48089SOL    HW255993  10.710   7.828  10.399 -1.6712  2.0125 -3.3655
48090SOL     OW55994  10.389  10.020  10.303  0.1118 -0.1430  0.8118
48090SOL    HW155995  10.394   9.979  10.389  0.0380  0.6957  1.2316
48090SOL    HW255996  10.298  10.050  10.296  0.3956  0.7839  0.9271
48091SOL     OW55997   2.388   7.212   0.131  0.1034 -0.7782  0.2540
48091SOL    HW155998   2.355   7.143   0.188  0.9673 -1.5775 -0.1824
48091SOL    HW255999   2.347   7.193   0.046 -0.6862  0.0359  0.4383
48092SOL     OW56000   9.222   3.224   3.142 -0.5266 -0.1705 -0.0039
48092SOL    HW156001   9.162   3.178   3.084  1.4428 -1.7330 -0.9223
48092SOL    HW256002   9.204   3.317   3.127  0.1792 -0.4634 -3.5733
48093SOL     OW56003  13.293   4.525   5.624  0.3576  0.0844 -0.2294
48093SOL    HW156004  13.312   4.548   5.533  0.7021  0.9036  0.0340
48093SOL    HW256005  13.201   4.501   5.625 -0.1687  1.9328 -0.4669
48094SOL     OW56006   3.245   5.595   1.486 -0.0465 -0.5990  0.1964
48094SOL    HW156007   3.236   5.650   1.564  1.7649 -1.5878  1.1768
48094SOL    HW256008   3.192   5.639   1.419  2.2874  3.0740  0.5015
48095SOL     OW56009   7.183   9.084   5.345 -0.1406  0.0002  0.4314
48095SOL    HW156010   7.261   9.109   5.393 -0.0365 -1.4661  1.0921
48095SOL    HW256011   7.182   8.988   5.349 -1.9149 -0.0179  0.3687
48096SOL     OW56012   0.352   9.354  12.249 -0.3683  0.0304  0.0912
48096SOL    HW156013   0.270   9.309  12.231  0.3802 -0.5505 -2.2437
48096SOL    HW256014   0.413   9.285  12.272 -0.2343  0.3351  0.6714
48097SOL     OW56015   8.596   8.409   2.314 -0.1313  0.1862  0.4343
48097SOL    HW156016   8.510   8.452   2.311 -0.4671 -0.3268  2.0402
48097SOL    HW256017   8.651   8.470   2.363  0.8220  1.0926 -1.6142
48098SOL     OW56018  10.113   5.436  12.430 -0.2848 -0.2695  0.5434
48098SOL    HW156019  10.122   5.462  12.522 -3.2141 -0.1047  0.8772
48098SOL    HW256020  10.054   5.501  12.392  1.5923  0.2254 -1.7794
48099SOL     OW56021   3.753   5.261   9.761  0.1797  0.0299  0.0716
48099SOL    HW156022   3.822   5.242   9.698  0.1560  0.9351 -0.2438
48099SOL    HW256023   3.791   5.239   9.846  0.5614 -0.2468 -0.1673
48100SOL     OW56024   3.012   1.659  10.355  0.2124 -0.0194 -0.0558
48100SOL    HW156025   3.018   1.753  10.338  0.9949  0.4001  2.1159
48100SOL    HW256026   2.918   1.642  10.364  0.1040  0.7555  0.3751
48101SOL     OW56027  13.729   6.203   2.915 -0.0406  0.5088 -0.2328
48101SOL    HW156028  13.749   6.121   2.870 -1.2035  0.2635 -0.3485
48101SOL    HW256029  13.812   6.231   2.954  0.7234  0.1097 -1.5317
48102SOL     OW56030   0.450   3.840   4.420 -0.0118  0.1105 -0.2898
48102SOL    HW156031   0.450   3.923   4.372  1.5153  0.5214  0.3566
48102SOL    HW256032   0.506   3.782   4.368 -1.9389 -0.9155 -1.3168
48103SOL     OW56033   6.764   8.632  12.545 -0.6187 -0.2833  0.0867
48103SOL    HW156034   6.818   8.655  12.621 -1.3963  0.6865  0.3618
48103SOL    HW256035   6.828   8.612  12.476  0.1028 -1.6148  1.0961
48104SOL     OW56036   4.381  12.080   5.219  0.1010  0.8278  0.0547
48104SOL    HW156037   4.441  12.083   5.293  1.0500 -0.8125 -0.5965
48104SOL    HW256038   4.438  12.067   5.143 -1.0772 -1.5660 -0.5068
48105SOL     OW56039   5.615   3.570  11.285 -0.2670  0.3657  0.0550
48105SOL    HW156040   5.633   3.583  11.192 -0.6782  0.3299 -0.0320
48105SOL    HW256041   5.699   3.543  11.323 -0.4710 -1.3229 -0.6224
48106SOL     OW56042  10.202   1.146   9.692 -0.4509  0.1701 -0.2693
48106SOL    HW156043  10.248   1.062   9.696  0.3335  0.4147 -2.6045
48106SOL    HW256044  10.174   1.153   9.601 -0.8903  2.2525 -0.0175
48107SOL     OW56045   0.127  11.028  12.289 -0.6412  0.7068  0.5700
48107SOL    HW156046   0.203  10.998  12.240  1.3068  1.9070  2.6973
48107SOL    HW256047   0.120  10.968  12.363 -1.5813  0.8221  0.5987
48108SOL     OW56048  10.520   6.039   2.897  0.6307  0.3898  0.1122
48108SOL    HW156049  10.491   6.003   2.813 -1.2623  0.2545  0.7755
48108SOL    HW256050  10.560   5.965   2.943 -0.7880 -0.2391  0.3830
48109SOL     OW56051   2.932   4.955  10.339 -0.0390 -0.3202 -0.2266
48109SOL    HW156052   2.876   4.979  10.266 -0.2997 -0.0075  0.0696
48109SOL    HW256053   3.015   4.929  10.299  0.3060  1.2301 -0.5583
48110SOL     OW56054   6.139   1.773   4.306 -0.7417  0.2625  0.2755
48110SOL    HW156055   6.136   1.688   4.263 -0.1027  0.3955 -0.0516
48110SOL    HW256056   6.110   1.756   4.396 -0.1131 -0.3997  0.3614
48111SOL     OW56057   3.662   2.449   6.720 -0.1927 -0.0817  0.5436
48111SOL    HW156058   3.620   2.365   6.741 -2.6495  1.1449  0.8391
48111SOL    HW256059   3.592   2.513   6.726  1.3608  1.8675 -0.8731
48112SOL     OW56060  10.447  11.188  11.584  0.4117 -0.5159  0.0055
48112SOL    HW156061  10.374  11.132  11.612  0.9132 -0.4158  1.6443
48112SOL    HW256062  10.517  11.169  11.646  0.0371  3.1378  1.8213
48113SOL     OW56063   7.684  13.048   0.313  0.2581 -0.6003  0.1142
48113SOL    HW156064   7.723  13.115   0.256 -0.3005  0.4413  0.9128
48113SOL    HW256065   7.601  13.026   0.271  0.3278 -0.6036 -0.0218
48114SOL     OW56066  11.811   2.354   2.345 -0.4097  0.0369 -0.0757
48114SOL    HW156067  11.795   2.435   2.297 -0.5232  0.1706  0.1857
48114SOL    HW256068  11.906   2.354   2.360 -0.4328  0.2083  0.0756
48115SOL     OW56069  12.390   8.350   1.528  0.4142  0.2149  0.2227
48115SOL    HW156070  12.314   8.295   1.546  0.7598 -0.1876  0.4420
48115SOL    HW256071  12.448   8.295   1.477  1.2165  0.0210  1.3095
48116SOL     OW56072   3.710   2.834   6.846 -0.1360 -0.3794  0.1458
48116SOL    HW156073   3.773   2.812   6.777  0.9510 -0.8495  1.2587
48116SOL    HW256074   3.742   2.916   6.883  0.1515 -0.9038  1.0899
48117SOL     OW56075   0.651  11.517   7.574 -0.3002  0.0287 -0.2111
48117SOL    HW156076   0.639  11.555   7.661  2.5346  0.5475  0.0360
48117SOL    HW256077   0.610  11.579   7.514  0.4489  1.2901  0.5445
48118SOL     OW56078   7.795   8.820   5.876 -0.2174 -0.3734 -0.0864
48118SOL    HW156079   7.748   8.737   5.888  0.0156 -0.5323 -0.2825
48118SOL    HW256080   7.886   8.795   5.863 -0.2505 -0.1267 -0.8451
48119SOL     OW56081  13.455   8.707   7.968 -0.0886  0.5550  0.2285
48119SOL    HW156082  13.520   8.637   7.977 -1.0504 -0.2176  1.3241
48119SOL    HW256083  13.466   8.761   8.046  0.7812  1.8034 -0.6970
48120SOL     OW56084   4.276   7.065  10.359 -0.0780 -0.3885 -0.0812
48120SOL    HW156085   4.304   6.997  10.297 -0.2074 -0.3432 -0.1907
48120SOL    HW256086   4.257   7.141  10.304 -0.5961 -0.4794 -0.0280
48121SOL     OW56087  13.361   9.471   8.362  0.5814  0.4323  0.5002
48121SOL    HW156088  13.413   9.491   8.440  1.4964 -0.4567  0.1457
48121SOL    HW256089  13.410   9.511   8.290  0.4456  0.1260  0.2366
48122SOL     OW56090   0.130   6.373  12.495  0.5856  0.0219  0.0638
48122SOL    HW156091   0.100   6.348  12.583 -0.1100 -0.8610 -0.4187
48122SOL    HW256092   0.050   6.386  12.445  0.9910 -0.7479 -0.7920
48123SOL     OW56093  12.326   4.045   2.186 -0.7056 -0.2376  0.2419
48123SOL    HW156094  12.374   4.127   2.192 -0.3169 -0.3835 -0.6663
48123SOL    HW256095  12.357   3.994   2.261 -0.8208  0.3666  0.7101
48124SOL     OW56096   1.722   3.185   8.211 -0.1085 -0.1447  0.4621
48124SOL    HW156097   1.767   3.194   8.296 -0.3028  0.9163  0.4623
48124SOL    HW256098   1.714   3.275   8.179 -1.7539 -0.3667  0.2081
48125SOL     OW56099   0.325   5.747   4.325 -0.5359 -0.1350  0.0872
48125SOL    HW156100   0.313   5.672   4.384 -2.0912 -0.4164 -0.5169
48125SOL    HW256101   0.363   5.815   4.380 -1.3681 -0.5810  1.2742
48126SOL     OW56102   4.328   4.251   9.462 -0.0880  0.9101 -0.0590
48126SOL    HW156103   4.292   4.289   9.382 -0.5012  1.7635  0.5164
48126SOL    HW256104   4.388   4.183   9.431  0.7151  2.0645 -1.1315
48127SOL     OW56105   2.718  11.674   6.206  0.1601  0.7930  0.0505
48127SOL    HW156106   2.804  11.710   6.229  0.5869 -0.5497  0.6783
48127SOL    HW256107   2.706  11.600   6.266 -0.9313  0.2451 -0.7939
48128SOL     OW56108  13.168   5.988  11.590  0.0423 -0.2426 -0.2731
48128SOL    HW156109  13.109   5.967  11.517 -0.5957  1.5166 -0.3188
48128SOL    HW256110  13.111   5.994  11.666  0.8821 -3.4998  0.7793
48129SOL     OW56111   2.864   2.992  13.712  0.5941 -0.8167  0.1745
48129SOL    HW156112   2.880   2.934  13.638 -1.5619 -1.6757  0.3363
48129SOL    HW256113   2.872   2.936  13.789 -0.0371 -0.5690  0.4263
48130SOL     OW56114   2.753   2.450  10.800  0.0569 -0.2263  0.5983
48130SOL    HW156115   2.798   2.374  10.837  1.1666  0.5425  0.8596
48130SOL    HW256116   2.788   2.525  10.848 -0.5949  0.5109 -0.0545
48131SOL     OW56117  10.413   7.876   0.842 -0.1929 -0.1019  0.1386
48131SOL    HW156118  10.348   7.821   0.800 -1.8782 -0.0013  2.4040
48131SOL    HW256119  10.377   7.965   0.836 -0.3127 -0.0460  1.3986
48132SOL     OW56120   9.624  12.557  13.711  0.8744 -0.6080  0.6471
48132SOL    HW156121   9.628  12.494  13.784  1.5900  0.2726  1.3945
48132SOL    HW256122   9.713  12.591  13.705  0.7371 -0.4199 -0.4408
48133SOL     OW56123  10.814   7.120   6.635  0.3386 -0.0237 -0.1654
48133SOL    HW156124  10.782   7.093   6.721 -0.2178  0.6779 -0.1485
48133SOL    HW256125  10.894   7.068   6.622 -1.2514 -2.4905 -0.6297
48134SOL     OW56126  11.267   6.320   3.101  0.0599  0.2191  0.0023
48134SOL    HW156127  11.323   6.340   3.027 -0.4784  0.6000 -0.3127
48134SOL    HW256128  11.284   6.228   3.121 -0.6111 -0.2068 -1.3114
48135SOL     OW56129   2.802  11.101   7.164 -0.1168  0.1021  0.5682
48135SOL    HW156130   2.783  11.126   7.254  1.4138 -0.1343  0.9955
48135SOL    HW256131   2.758  11.017   7.152  1.2855 -0.8613  1.7886
48136SOL     OW56132   0.631   8.970   3.280  0.5785  0.1753 -0.2754
48136SOL    HW156133   0.556   8.932   3.232 -0.2462  1.8767 -0.4022
48136SOL    HW256134   0.678   8.894   3.314 -1.4623 -0.9610  0.1884
48137SOL     OW56135   1.225   8.072   3.213 -0.0684  0.0412 -0.3687
48137SOL    HW156136   1.253   8.088   3.123 -0.5783  0.8074 -0.4032
48137SOL    HW256137   1.139   8.031   3.205  0.7800 -1.8561 -0.2534
48138SOL     OW56138   5.897   6.489   1.197  0.1283  0.1770  0.0045
48138SOL    HW156139   5.965   6.556   1.189 -0.8699  1.0791 -1.4073
48138SOL    HW256140   5.888   6.475   1.291  2.9513 -0.7425  0.2377
48139SOL     OW56141   1.396   9.627   0.849 -0.0073  0.4203 -0.0948
48139SOL    HW156142   1.463   9.583   0.902 -1.0831 -0.0640  0.9145
48139SOL    HW256143   1.442   9.701   0.809  1.1560  0.0293  0.4734
48140SOL     OW56144  13.466   3.944   7.471 -0.0667  0.1380 -0.5723
48140SOL    HW156145  13.545   3.962   7.421 -0.9726  0.9627 -1.7669
48140SOL    HW256146  13.416   4.026   7.468 -0.0398  0.3342  1.9834
48141SOL     OW56147   9.764  11.683   4.942 -0.0415  0.0637  0.0839
48141SOL    HW156148   9.763  11.768   4.988  1.6088 -0.2962  0.8856
48141SOL    HW256149   9.678  11.645   4.960 -0.4290  1.1251  0.5784
48142SOL     OW56150   4.736   7.441   8.821 -0.1407  0.3266 -0.4041
48142SOL    HW156151   4.769   7.496   8.891  0.0415 -2.0631  1.5157
48142SOL    HW256152   4.643   7.429   8.841  0.1293 -1.1803  0.0588
48143SOL     OW56153   8.448  12.146   7.649  0.2224 -0.1997  0.1670
48143SOL    HW156154   8.511  12.164   7.580 -0.4691 -1.7246 -0.9094
48143SOL    HW256155   8.389  12.221   7.648  0.0892 -0.3104 -1.0517
48144SOL     OW56156   2.944   4.423   7.213 -0.2715 -0.5284  0.8214
48144SOL    HW156157   2.953   4.329   7.202 -0.0569 -0.5111  0.8407
48144SOL    HW256158   2.940   4.437   7.308  1.6150 -0.3570  0.9053
48145SOL     OW56159   8.965   5.787  12.424 -0.2494 -0.0459  0.6375
48145SOL    HW156160   8.928   5.724  12.362  0.6595  0.0925 -0.0609
48145SOL    HW256161   8.895   5.851  12.438 -0.1109  0.5250 -1.0977
48146SOL     OW56162   5.793   0.333  13.571  0.0563 -0.1222 -0.3143
48146SOL    HW156163   5.798   0.408  13.512 -1.2626  1.2479  1.2187
48146SOL    HW256164   5.712   0.347  13.620  0.1589 -2.1897  0.5143
48147SOL     OW56165   4.756  13.213   0.077 -0.3167  0.3221 -0.4376
48147SOL    HW156166   4.674  13.194   0.032  0.3192 -0.6832 -1.2209
48147SOL    HW256167   4.784  13.129   0.114 -1.1464  1.2267  2.5129
48148SOL     OW56168   4.407   2.599   6.133 -0.0720 -0.4211  0.6685
48148SOL    HW156169   4.407   2.539   6.207 -0.5577 -1.7032 -0.3279
48148SOL    HW256170   4.406   2.687   6.172 -1.3361 -1.0704  2.1798
48149SOL     OW56171  10.103   8.965   8.757 -0.6120  0.0594  0.0033
48149SOL    HW156172  10.151   8.992   8.836 -0.7276 -2.3165  0.9721
48149SOL    HW256173  10.158   8.896   8.719 -1.5277 -0.1861 -0.8853
48150SOL     OW56174   8.753   2.624   0.743 -0.7859 -0.4818 -0.0551
48150SOL    HW156175   8.805   2.569   0.801 -0.0646 -0.7037 -0.8893
48150SOL    HW256176   8.679   2.569   0.718  0.4406 -1.4840 -1.6765
48151SOL     OW56177   9.471   4.863   2.925  0.1173 -0.4287  0.3708
48151SOL    HW156178   9.405   4.801   2.956 -0.4731 -0.0073 -0.0307
48151SOL    HW256179   9.464   4.860   2.830  1.0512 -0.7737  0.3033
48152SOL     OW56180   7.285   3.246   9.892 -0.7577  0.5095 -0.6464
48152SOL    HW156181   7.220   3.176   9.887  1.4702 -2.1018  2.4613
48152SOL    HW256182   7.266   3.290   9.975  0.4516  0.7100 -0.4550
48153SOL     OW56183  12.893   9.857   7.024  0.1368 -0.3545  0.4316
48153SOL    HW156184  12.973   9.910   7.032  0.4503 -0.7395 -0.0729
48153SOL    HW256185  12.885   9.814   7.109  0.2574 -0.0203  0.6131
48154SOL     OW56186   1.299   0.091   2.351  0.0421 -0.7421 -0.1089
48154SOL    HW156187   1.222   0.110   2.297  0.7811  0.0672 -0.9232
48154SOL    HW256188   1.271   0.023   2.411 -2.0936  1.2804  1.3577
48155SOL     OW56189   1.147  13.028   5.097 -0.2432  0.0418  0.2187
48155SOL    HW156190   1.233  13.057   5.128  0.0224  0.8543 -1.1937
48155SOL    HW256191   1.140  12.938   5.128  0.8492  0.1655  0.8827
48156SOL     OW56192  13.566  12.219  12.020 -0.1107  0.3685  0.0547
48156SOL    HW156193  13.496  12.158  12.045  0.1345  1.1549  3.1516
48156SOL    HW256194  13.524  12.306  12.027  0.7173  0.7581  0.2362
48157SOL     OW56195  12.154   3.169   3.226 -0.2263 -0.3091  0.6289
48157SOL    HW156196  12.141   3.123   3.308  2.6825 -1.3588  0.6301
48157SOL    HW256197  12.092   3.129   3.165 -1.0824 -0.8598  1.8404
48158SOL     OW56198   6.249   9.362   7.098  0.0944  0.1969  0.0598
48158SOL    HW156199   6.241   9.327   7.187 -2.2517 -0.0793 -0.1902
48158SOL    HW256200   6.162   9.396   7.078  0.4357 -0.1711 -2.3205
48159SOL     OW56201   8.320   0.374   4.106 -0.4976 -0.6544 -0.2719
48159SOL    HW156202   8.396   0.329   4.143 -0.5793 -0.8458 -0.3352
48159SOL    HW256203   8.290   0.431   4.177  0.0485 -0.1456 -0.4389
48160SOL     OW56204  11.740   7.302   7.129 -0.4071  0.1455 -0.7566
48160SOL    HW156205  11.764   7.242   7.200 -0.2733  0.1197 -0.8245
48160SOL    HW256206  11.645   7.314   7.140 -0.0332  2.1242  1.0006
48161SOL     OW56207   4.545   5.214  12.507  0.2502 -0.0489 -0.4104
48161SOL    HW156208   4.566   5.285  12.446  2.2953  0.2145  0.5107
48161SOL    HW256209   4.500   5.149  12.454  0.2725  0.9925 -1.7594
48162SOL     OW56210   7.930   7.037   1.076  0.1471  0.2488  0.2082
48162SOL    HW156211   7.889   6.955   1.102 -0.4062  0.1262 -1.0137
48162SOL    HW256212   7.983   7.015   0.999  0.0875  1.0078 -0.0652
48163SOL     OW56213   0.391   8.728   5.442 -0.5157 -0.2430 -0.1421
48163SOL    HW156214   0.317   8.747   5.384 -1.2064 -0.8768  0.5033
48163SOL    HW256215   0.408   8.810   5.487 -0.9811 -0.1493 -0.1316
48164SOL     OW56216   0.891   9.881  12.495  0.0377  0.1903  0.1700
48164SOL    HW156217   0.827   9.920  12.556 -0.4048  0.0326 -0.1912
48164SOL    HW256218   0.847   9.805  12.459  0.2785  0.3137 -0.3952
48165SOL     OW56219  13.433   3.149   7.717  0.2631  0.2603  0.7274
48165SOL    HW156220  13.428   3.206   7.795 -0.7124  0.5350  0.4762
48165SOL    HW256221  13.386   3.070   7.743 -1.5594  1.0082 -0.1089
48166SOL     OW56222   1.487   5.445  10.017 -0.0071  0.1142 -0.2002
48166SOL    HW156223   1.453   5.417  10.102  0.4816  0.8921  0.2658
48166SOL    HW256224   1.575   5.409  10.012 -0.0859 -0.0496 -0.4426
48167SOL     OW56225   0.587   0.660   4.996  0.4384 -0.2178 -0.0344
48167SOL    HW156226   0.679   0.685   4.981  0.1621  1.5575  0.8865
48167SOL    HW256227   0.544   0.678   4.912  0.8538 -0.6444 -0.3417
48168SOL     OW56228   0.687  13.366   6.082  0.2444 -0.2390 -0.0285
48168SOL    HW156229   0.768  13.318   6.096 -0.1910 -0.8008  0.6170
48168SOL    HW256230   0.695  13.443   6.139  0.6375  0.1153 -0.5401
48169SOL     OW56231   1.633   9.876   5.466 -0.3070 -0.1509 -0.6694
48169SOL    HW156232   1.632   9.966   5.433  0.4655 -0.1226 -0.6222
48169SOL    HW256233   1.542   9.847   5.457 -0.6258  0.7266 -0.4218
48170SOL     OW56234  11.840  11.374   3.095  0.7247  0.1855 -0.2585
48170SOL    HW156235  11.829  11.298   3.037  0.6955 -0.2647  0.3247
48170SOL    HW256236  11.930  11.403   3.079  0.9928 -0.4390  0.0484
48171SOL     OW56237   8.228   6.837  10.862 -0.4870 -0.0808  0.1010
48171SOL    HW156238   8.289   6.865  10.793  2.5072  1.9657  3.2359
48171SOL    HW256239   8.261   6.752  10.890 -0.7484 -0.2117  0.0105
48172SOL     OW56240   4.737  11.411   3.191 -0.1290 -0.3766  0.0509
48172SOL    HW156241   4.813  11.353   3.183 -1.0626 -1.3816 -2.9403
48172SOL    HW256242   4.662  11.357   3.164 -1.6292  1.1491  0.9679
48173SOL     OW56243   1.925  11.426   4.531  0.6498 -0.6955 -0.1926
48173SOL    HW156244   1.897  11.470   4.612  0.0177 -0.2431 -0.6496
48173SOL    HW256245   1.872  11.347   4.528 -0.4201  0.0240 -0.9151
48174SOL     OW56246   8.189   6.606   1.283  0.0800  0.4449  0.0937
48174SOL    HW156247   8.159   6.635   1.369 -1.3946  1.0777 -0.5986
48174SOL    HW256248   8.250   6.674   1.254  0.6418  0.1905  0.6547
48175SOL     OW56249   6.851   7.829   6.505 -0.1874 -0.1245  0.1810
48175SOL    HW156250   6.773   7.858   6.553  0.2908  3.3916 -0.8904
48175SOL    HW256251   6.860   7.893   6.434  2.5575 -1.5984 -0.9155
48176SOL     OW56252   8.905   8.445  12.817  0.0250 -0.2337 -0.3121
48176SOL    HW156253   8.994   8.450  12.852 -0.3642 -1.0861  0.8642
48176SOL    HW256254   8.911   8.487  12.731  1.6231 -0.5407 -0.3911
48177SOL     OW56255   5.940   5.913   5.918 -0.0005  0.7637 -0.7554
48177SOL    HW156256   5.930   5.818   5.928  1.5062  0.6688  0.1577
48177SOL    HW256257   5.851   5.946   5.913 -0.6921 -0.4070  2.1005
48178SOL     OW56258   5.908   6.992  12.386 -0.0910  0.1865 -0.4861
48178SOL    HW156259   5.971   6.923  12.362 -0.4683 -1.2564  2.1671
48178SOL    HW256260   5.877   6.965  12.473 -0.9906  3.2621  0.2427
48179SOL     OW56261   9.103  10.289   6.622  0.7807  0.1619  0.2182
48179SOL    HW156262   9.148  10.218   6.667  0.3528  1.5462  3.0330
48179SOL    HW256263   9.168  10.324   6.562  1.2891 -1.9414 -0.5475
48180SOL     OW56264   8.153   4.013  11.435  0.0761  0.3268 -0.5265
48180SOL    HW156265   8.062   4.005  11.463 -0.2002  1.0094 -1.1985
48180SOL    HW256266   8.155   3.972  11.348  0.1826  1.2085 -0.9480
48181SOL     OW56267   1.799  11.832   2.857  0.1667 -0.1033 -0.2619
48181SOL    HW156268   1.727  11.771   2.872  0.0380 -0.1318 -0.9808
48181SOL    HW256269   1.874  11.776   2.839  0.0573 -0.0535 -0.8833
48182SOL     OW56270  13.365  11.318  12.160  0.5738 -0.4074  0.7423
48182SOL    HW156271  13.413  11.253  12.108  0.4382 -1.6381  2.0829
48182SOL    HW256272  13.433  11.372  12.199  0.7220 -0.2178  0.2326
48183SOL     OW56273   6.395   2.759   2.329 -0.0604  0.0786  0.4917
48183SOL    HW156274   6.318   2.708   2.303  0.5959 -0.3295 -0.7280
48183SOL    HW256275   6.458   2.745   2.259  0.2234  2.4328  0.1828
48184SOL     OW56276   5.111  13.716   4.609 -0.5261 -0.5076 -0.4816
48184SOL    HW156277   5.156  13.784   4.559  0.4806  0.0655  1.1047
48184SOL    HW256278   5.046  13.764   4.661  0.8853 -0.5682  1.4187
48185SOL     OW56279   1.927   7.094   4.928 -0.6689 -0.1126  0.3166
48185SOL    HW156280   1.866   7.047   4.984 -0.1576  1.1100  1.9523
48185SOL    HW256281   1.892   7.183   4.923  0.2104  0.2374  0.1187
48186SOL     OW56282  13.716   8.347  12.453 -0.4639 -0.4114  0.1019
48186SOL    HW156283  13.633   8.383  12.484 -0.8600 -0.5904 -0.7436
48186SOL    HW256284  13.693   8.264  12.412  0.0461 -0.1746 -0.6874
48187SOL     OW56285   2.437  12.172   2.754 -0.1538  0.1087 -0.3282
48187SOL    HW156286   2.477  12.085   2.750 -0.2403  0.0510  0.0373
48187SOL    HW256287   2.374  12.167   2.826  0.3242  0.6726  0.1443
48188SOL     OW56288   7.963   6.516   8.402  0.5481  0.4450 -0.3272
48188SOL    HW156289   8.018   6.441   8.423 -0.6407 -0.7513 -1.3331
48188SOL    HW256290   7.944   6.507   8.309 -2.1915  0.2087  0.1732
48189SOL     OW56291   1.525  12.544  12.415  0.5783 -0.1339 -0.3471
48189SOL    HW156292   1.528  12.453  12.386  0.1432 -0.3111  0.1514
48189SOL    HW256293   1.512  12.539  12.509  0.7467  0.4437 -0.2904
48190SOL     OW56294   9.528   3.841  13.659 -0.2724 -0.6753  0.7028
48190SOL    HW156295   9.577   3.825  13.740  1.1087  2.0736  0.5150
48190SOL    HW256296   9.502   3.754  13.629  0.4986 -1.8847  3.2731
48191SOL     OW56297   0.921  11.890   3.915 -0.5095 -0.2319  0.0687
48191SOL    HW156298   0.846  11.934   3.954 -1.2136 -1.8991  0.7021
48191SOL    HW256299   0.948  11.826   3.982  0.7202 -0.4780 -0.6319
48192SOL     OW56300   8.508   9.078   9.959  0.1710 -0.1591 -1.1312
48192SOL    HW156301   8.444   9.097   9.891  0.8004 -1.2891 -2.0661
48192SOL    HW256302   8.547   9.163   9.979 -1.9253  0.6479 -0.1661
48193SOL     OW56303   5.694   7.827   9.917  0.4323  0.5787  0.5535
48193SOL    HW156304   5.657   7.896   9.972  1.2998  1.1825  0.3968
48193SOL    HW256305   5.787   7.849   9.910  0.7180 -0.5892  0.4701
48194SOL     OW56306   3.904  10.099   7.313 -0.5337  0.1405  0.1657
48194SOL    HW156307   3.940  10.011   7.317 -0.4713  0.1992  1.6819
48194SOL    HW256308   3.956  10.145   7.247  1.3991 -0.1221  1.4222
48195SOL     OW56309   2.174   7.159  10.880 -0.4073  0.1888 -0.0772
48195SOL    HW156310   2.205   7.071  10.897  0.2067  0.4600  0.2395
48195SOL    HW256311   2.080   7.157  10.901 -0.2289 -0.1778  0.7040
48196SOL     OW56312  13.618   4.018  13.494 -0.1455  0.1078 -0.2747
48196SOL    HW156313  13.525   4.041  13.489 -0.1405  0.6094  1.2692
48196SOL    HW256314  13.619   3.930  13.532  0.0005  0.1932 -0.0749
48197SOL     OW56315   5.540  13.020   7.087 -0.2219 -0.6498  0.3339
48197SOL    HW156316   5.611  12.957   7.097  0.1953 -0.3662 -0.7297
48197SOL    HW256317   5.483  13.004   7.163  1.9216  0.3985  2.2770
48198SOL     OW56318  13.287   1.860  10.746 -0.8905 -0.1285  0.1437
48198SOL    HW156319  13.356   1.842  10.682  0.3114 -1.0206  1.6417
48198SOL    HW256320  13.255   1.773  10.772 -1.2197  0.2095  0.9000
48199SOL     OW56321  13.548   9.800   5.404  0.0352 -0.2141 -0.0520
48199SOL    HW156322  13.547   9.745   5.482 -1.8399 -1.3781 -0.8223
48199SOL    HW256323  13.495   9.876   5.427  1.8681  0.9152  0.7028
48200SOL     OW56324   7.399   4.163   9.451 -0.9845  0.4124 -0.0605
48200SOL    HW156325   7.388   4.143   9.358  4.7796  0.4010 -1.1061
48200SOL    HW256326   7.413   4.257   9.454  2.1560  0.0445  0.0896
48201SOL     OW56327  12.153   9.746   1.446  0.2235  0.1275  0.7723
48201SOL    HW156328  12.120   9.700   1.524 -0.1075 -0.7565  0.1311
48201SOL    HW256329  12.075   9.779   1.402  0.3725  0.2048  0.5626
48202SOL     OW56330   1.366   0.642   0.658  0.5452 -0.0934 -0.2077
48202SOL    HW156331   1.451   0.670   0.626  1.0429 -1.1014  0.1810
48202SOL    HW256332   1.354   0.554   0.622  0.1000 -0.3352  0.4875
48203SOL     OW56333  11.362   1.257   0.019  0.3909  0.2508  0.4185
48203SOL    HW156334  11.354   1.211   0.103 -2.9181 -1.0046 -0.4259
48203SOL    HW256335  11.307   1.335   0.030 -0.0622  0.0745 -0.5404
48204SOL     OW56336   6.467  13.357   3.941 -0.4155 -0.5851 -0.0179
48204SOL    HW156337   6.537  13.322   3.995 -1.2248 -0.2025  1.3194
48204SOL    HW256338   6.511  13.416   3.879  0.4858 -0.7812  0.4284
48205SOL     OW56339  13.744   7.677   3.469  0.2391  0.1083 -0.2953
48205SOL    HW156340  13.750   7.586   3.442  0.0226  0.1728 -0.5652
48205SOL    HW256341  13.770   7.727   3.392  0.5478  0.2714 -0.0890
48206SOL     OW56342   1.395   5.255   1.414 -0.0009 -0.6596 -0.1789
48206SOL    HW156343   1.341   5.180   1.439 -0.5589 -0.0938  0.3437
48206SOL    HW256344   1.478   5.217   1.385 -0.2640 -1.4681  0.1161
48207SOL     OW56345   6.027   5.061  13.150 -0.2226  0.0698 -0.3668
48207SOL    HW156346   6.069   4.980  13.122  1.0364  0.5576  0.0432
48207SOL    HW256347   5.938   5.035  13.173  0.0372 -1.1174 -0.6415
48208SOL     OW56348   6.121   1.845   8.644  0.4034  0.4188  0.0939
48208SOL    HW156349   6.120   1.753   8.673 -1.8482  0.0096 -1.0372
48208SOL    HW256350   6.044   1.884   8.685  1.2564  1.7769  0.4321
48209SOL     OW56351   3.927  13.312  10.193  0.0514 -0.2488 -0.4814
48209SOL    HW156352   3.939  13.266  10.276  0.0198  0.4759 -0.0683
48209SOL    HW256353   4.011  13.304  10.148  0.5716  0.6623  0.2942
48210SOL     OW56354   6.218   0.221   3.332 -0.2428  0.4884  0.8486
48210SOL    HW156355   6.249   0.169   3.406  0.3132  0.7352  0.7903
48210SOL    HW256356   6.292   0.277   3.308  0.1208 -0.6369 -0.8611
48211SOL     OW56357   8.823   7.966   8.560 -0.2798 -0.6390  0.2255
48211SOL    HW156358   8.851   8.052   8.592 -0.7640  0.3307 -1.7582
48211SOL    HW256359   8.905   7.918   8.547  0.0954  0.0014  0.1410
48212SOL     OW56360   3.540  10.592   5.055  0.6993 -0.0343  0.1368
48212SOL    HW156361   3.578  10.508   5.029  0.7079 -0.2419  0.7954
48212SOL    HW256362   3.613  10.654   5.047  0.6442 -0.0425 -0.5360
48213SOL     OW56363   3.721   8.172   3.770  0.1059 -0.1899  0.0156
48213SOL    HW156364   3.709   8.267   3.771  1.0755 -0.0481 -0.4707
48213SOL    HW256365   3.651   8.138   3.826  0.2069  0.8680  0.8174
48214SOL     OW56366   2.469   3.169  13.221  0.4429 -0.5037 -0.0863
48214SOL    HW156367   2.375   3.152  13.216  0.1706  0.8714 -0.0416
48214SOL    HW256368   2.482   3.248  13.169  1.5764 -0.6705 -0.0817
48215SOL     OW56369  10.286   3.900   3.660 -0.6797  0.2667 -0.5906
48215SOL    HW156370  10.380   3.911   3.645 -0.2204 -1.6661  0.5296
48215SOL    HW256371  10.266   3.964   3.728  0.7545 -1.8714  2.0299
48216SOL     OW56372   3.119   5.009   5.421 -0.2378 -0.5201 -0.3622
48216SOL    HW156373   3.034   5.051   5.440 -0.2338 -0.7613  0.2118
48216SOL    HW256374   3.124   4.936   5.483  1.1950  0.5674  0.8861
48217SOL     OW56375   1.623   1.087  13.704 -0.2296  0.0114  0.6874
48217SOL    HW156376   1.612   1.163  13.647 -1.0781 -0.3743  0.3205
48217SOL    HW256377   1.537   1.073  13.743  0.4573  0.6312  2.5615
48218SOL     OW56378  10.498  11.923  12.360 -0.3734  0.3783 -0.0557
48218SOL    HW156379  10.529  11.836  12.332 -2.2380 -0.2193 -0.4130
48218SOL    HW256380  10.576  11.966  12.395  0.4571 -1.7479  0.8969
48219SOL     OW56381   2.681   1.962   1.246 -0.2862  0.4829  0.3913
48219SOL    HW156382   2.669   1.988   1.337 -0.2628  0.5918  0.3630
48219SOL    HW256383   2.614   2.011   1.198 -1.1338 -0.5066  0.5055
48220SOL     OW56384   4.135  12.345  10.314 -0.2310  0.3889  0.0087
48220SOL    HW156385   4.203  12.387  10.367 -0.2677  0.9894 -0.4044
48220SOL    HW256386   4.104  12.415  10.256 -0.7505 -0.0490 -0.2472
48221SOL     OW56387  11.493   5.455  11.064 -0.2423  0.2977 -0.0296
48221SOL    HW156388  11.475   5.361  11.071 -0.7826  0.5004  1.8148
48221SOL    HW256389  11.407   5.495  11.050  0.0865  0.4771 -1.7284
48222SOL     OW56390   8.266   3.126   6.451  0.2390 -0.1072  0.4862
48222SOL    HW156391   8.277   3.038   6.487 -1.4107 -0.7958 -0.5671
48222SOL    HW256392   8.309   3.122   6.365 -1.0845 -0.3773 -0.1950
48223SOL     OW56393   6.144   1.176   0.136  0.5017  0.0827 -0.1146
48223SOL    HW156394   6.141   1.080   0.137 -0.7918  0.0065  3.9879
48223SOL    HW256395   6.056   1.202   0.106  1.2439  0.1168 -2.4594
48224SOL     OW56396   8.879   4.331   2.457  0.2169 -0.0199 -0.2322
48224SOL    HW156397   8.885   4.266   2.387  2.1362 -0.9269  0.6969
48224SOL    HW256398   8.797   4.377   2.440 -0.5205 -1.7601 -1.7205
48225SOL     OW56399   9.730   6.210  10.317 -0.0517 -0.2615  0.2700
48225SOL    HW156400   9.786   6.152  10.266  0.2691  0.1449  0.1501
48225SOL    HW256401   9.744   6.184  10.407  0.0403 -0.4107  0.2128
48226SOL     OW56402   1.622  13.150  10.759  0.0784 -0.3808 -0.5202
48226SOL    HW156403   1.539  13.127  10.802  0.2053 -0.4981 -0.3409
48226SOL    HW256404   1.653  13.067  10.722 -1.7708  0.2258 -3.9014
48227SOL     OW56405  13.301  10.435   6.360  0.3817  0.4151  0.1728
48227SOL    HW156406  13.388  10.430   6.322  0.7293  1.5190  0.7854
48227SOL    HW256407  13.316  10.445   6.454 -0.2638  3.9278  0.0310
48228SOL     OW56408   3.290   1.938  13.463  0.2572 -0.3169 -0.2831
48228SOL    HW156409   3.252   1.883  13.531  0.4064 -2.2802 -1.6834
48228SOL    HW256410   3.250   1.907  13.382  0.0861  1.9357 -1.1273
48229SOL     OW56411  13.557   4.593   9.426  0.4710  0.5609 -0.2281
48229SOL    HW156412  13.628   4.604   9.363  0.5363  0.4775 -0.1691
48229SOL    HW256413  13.522   4.681   9.438  0.2056  0.5188 -0.6748
48230SOL     OW56414   8.668   5.872  13.492  0.1440  0.0582 -0.4222
48230SOL    HW156415   8.635   5.957  13.523  1.5880  0.0453  1.3258
48230SOL    HW256416   8.690   5.825  13.572  3.2868 -0.3338 -1.3890
48231SOL     OW56417  11.757   0.489  12.174  0.4723 -0.8527  0.1587
48231SOL    HW156418  11.809   0.498  12.254 -1.2886  0.8962  1.2141
48231SOL    HW256419  11.816   0.449  12.111  2.4950 -0.6468  1.8176
48232SOL     OW56420   2.962   7.039  13.728 -0.4571  0.9484 -0.2772
48232SOL    HW156421   2.880   6.995  13.749  0.2295  0.1386  0.8315
48232SOL    HW256422   2.940   7.098  13.656 -1.4610 -1.0795 -1.7451
48233SOL     OW56423   8.671   3.150   7.482 -0.3483  0.4737 -0.4528
48233SOL    HW156424   8.669   3.240   7.449 -0.5771  0.1281 -1.4179
48233SOL    HW256425   8.762   3.136   7.510 -0.5645  1.3581  0.7575
48234SOL     OW56426  13.095   5.913   2.387  0.4040 -0.2875  0.1803
48234SOL    HW156427  13.119   5.995   2.344 -0.4338 -0.5456 -0.8277
48234SOL    HW256428  13.159   5.903   2.457 -0.8190  2.3325  1.7924
48235SOL     OW56429   7.014   3.228  11.516  0.2394  0.9989 -0.0250
48235SOL    HW156430   6.998   3.236  11.610 -2.1203 -2.0384 -0.0205
48235SOL    HW256431   6.927   3.226  11.476  1.0264 -0.9947 -1.8766
48236SOL     OW56432  11.433  10.181   5.297 -0.1306  0.0873  0.0577
48236SOL    HW156433  11.378  10.250   5.335  0.1177  0.1545  0.2938
48236SOL    HW256434  11.472  10.221   5.220 -0.4579  0.0216 -0.1441
48237SOL     OW56435   5.132   8.137  13.231  0.2446 -0.1009  0.5040
48237SOL    HW156436   5.055   8.090  13.199 -0.2391 -0.3960  2.0537
48237SOL    HW256437   5.204   8.076  13.219  0.3490  0.2911 -1.2526
48238SOL     OW56438   1.924   8.033   2.987  0.0337  0.0089 -0.2440
48238SOL    HW156439   1.971   8.115   2.973  0.4962 -0.3748 -1.0216
48238SOL    HW256440   1.844   8.042   2.935  1.1169 -0.8779 -2.1687
48239SOL     OW56441   1.181  11.346   9.065  0.2700 -0.5691 -0.0515
48239SOL    HW156442   1.204  11.413   9.129 -0.0316  1.6473 -2.1307
48239SOL    HW256443   1.087  11.332   9.077 -0.0107  0.6610 -0.7160
48240SOL     OW56444   5.043   1.417   1.431  0.4268  0.1283 -0.1251
48240SOL    HW156445   5.099   1.483   1.473  0.3186  0.0350  0.1697
48240SOL    HW256446   4.964   1.415   1.485  0.6226 -0.5798  0.1491
48241SOL     OW56447   1.488   0.944   1.604 -0.4791  0.0170 -0.4756
48241SOL    HW156448   1.473   0.902   1.520 -1.5690  0.7622 -0.6827
48241SOL    HW256449   1.426   1.017   1.606  0.6149  0.9656  0.3175
48242SOL     OW56450   3.840  10.724   0.170  0.2076  0.1727  0.4386
48242SOL    HW156451   3.886  10.805   0.193  0.1221  0.6320 -0.9019
48242SOL    HW256452   3.906  10.670   0.128  0.2519 -0.4514  1.2878
48243SOL     OW56453   5.788  10.964   8.438  0.6511 -0.5133 -0.3397
48243SOL    HW156454   5.772  11.000   8.351  2.1829  0.2501 -0.3415
48243SOL    HW256455   5.733  10.886   8.443 -0.1988 -0.0090 -1.6107
48244SOL     OW56456   3.735   2.304  11.110  0.7555 -0.1219 -0.6882
48244SOL    HW156457   3.675   2.244  11.065  0.2591 -0.3533  0.2578
48244SOL    HW256458   3.818   2.292  11.064  1.1733 -2.9461  0.6142
48245SOL     OW56459   4.947   2.894   9.760  0.3974  0.7268 -0.8124
48245SOL    HW156460   4.879   2.937   9.812 -0.2245 -0.2164 -0.8176
48245SOL    HW256461   5.001   2.966   9.727  0.9623  1.3452  1.3223
48246SOL     OW56462   1.092   3.537   1.189 -0.4430  0.7112  0.5720
48246SOL    HW156463   1.038   3.600   1.142 -1.4773  0.6482  1.6541
48246SOL    HW256464   1.067   3.452   1.152  2.2273  0.9272 -2.1945
48247SOL     OW56465   8.359   3.831   9.779 -0.3764  0.3433  0.2978
48247SOL    HW156466   8.289   3.766   9.788  0.2945 -0.5514 -0.7295
48247SOL    HW256467   8.389   3.846   9.868 -1.0950 -0.1399  0.6301
48248SOL     OW56468   5.691   8.999   2.943 -0.2054 -0.3298  0.1906
48248SOL    HW156469   5.668   9.082   2.900 -0.5823 -0.3201  0.4029
48248SOL    HW256470   5.612   8.975   2.991  0.4570  0.0545  1.5177
48249SOL     OW56471  12.154   2.679  10.868  0.2918 -0.0515  0.2339
48249SOL    HW156472  12.191   2.592  10.853 -0.0530 -0.2769  0.6728
48249SOL    HW256473  12.193   2.708  10.950  0.9403  0.5055 -0.2606
48250SOL     OW56474  13.528   3.376   7.422  0.0268 -0.0792 -0.3805
48250SOL    HW156475  13.510   3.467   7.447  1.3967  0.5758 -1.5652
48250SOL    HW256476  13.445   3.331   7.433 -0.6536  1.2858  0.3739
48251SOL     OW56477   1.164   4.731   5.394  0.2437  0.3030 -0.1019
48251SOL    HW156478   1.182   4.817   5.432  1.9739  0.4617 -1.1728
48251SOL    HW256479   1.087   4.744   5.339 -0.2434  0.8573  0.6962
48252SOL     OW56480   4.053   5.939   4.645  0.2355 -0.3728 -0.1895
48252SOL    HW156481   4.088   5.907   4.562 -1.0571  0.9320 -1.2909
48252SOL    HW256482   3.968   5.977   4.622 -0.2240 -0.1179  1.7681
48253SOL     OW56483   0.771  12.170  13.404  0.2681  0.1486  0.4748
48253SOL    HW156484   0.779  12.157  13.310 -0.9465 -0.6823  0.4515
48253SOL    HW256485   0.846  12.223  13.429  0.6894  0.2300 -0.9345
48254SOL     OW56486   6.457   3.638   2.893  0.1073 -0.0565 -0.1820
48254SOL    HW156487   6.473   3.621   2.800  0.7886 -1.3083  0.1375
48254SOL    HW256488   6.544   3.632   2.933 -0.0597  1.2866  0.4405
48255SOL     OW56489  12.572  13.425   8.499  0.5022  0.2440 -0.3330
48255SOL    HW156490  12.577  13.398   8.591  2.1449 -0.0881 -0.4881
48255SOL    HW256491  12.648  13.384   8.458 -0.1463  0.4806 -1.8277
48256SOL     OW56492   9.396   0.192  11.072  0.3669  0.4717  0.8608
48256SOL    HW156493   9.487   0.200  11.043  0.0252  0.7477 -0.1902
48256SOL    HW256494   9.350   0.156  10.996 -0.1037 -1.3977  1.9502
48257SOL     OW56495   0.960  12.330  11.033 -0.8884  0.2213 -0.1110
48257SOL    HW156496   0.976  12.237  11.045  2.5587  0.5376 -1.2578
48257SOL    HW256497   0.933  12.339  10.942 -0.2427  0.4097 -0.2897
48258SOL     OW56498  13.648   9.071  11.158  0.6750  0.6643 -0.2541
48258SOL    HW156499  13.617   9.161  11.160  1.6154  0.9818  0.9728
48258SOL    HW256500  13.569   9.017  11.167  0.3246  1.4189  1.5801
48259SOL     OW56501  12.300  11.429   4.919  0.2953 -0.0333  0.6055
48259SOL    HW156502  12.261  11.420   4.831 -0.2031 -0.9444  0.9039
48259SOL    HW256503  12.301  11.340   4.954 -0.3554  0.4357  1.8821
48260SOL     OW56504   1.621   2.884   7.099  0.1000 -0.1331 -0.3756
48260SOL    HW156505   1.562   2.907   7.170 -0.2311  0.8791 -0.9514
48260SOL    HW256506   1.688   2.828   7.139  0.7427  1.5907  1.0594
48261SOL     OW56507  11.395   1.858   3.721  0.1500 -0.1565  0.0735
48261SOL    HW156508  11.373   1.858   3.628 -1.1227  0.9174  0.3266
48261SOL    HW256509  11.483   1.896   3.726 -0.1937  0.7839 -0.6438
48262SOL     OW56510  13.354  11.281   1.819 -0.2452 -0.2336  0.0989
48262SOL    HW156511  13.383  11.197   1.855  1.6210  1.5242  3.0804
48262SOL    HW256512  13.431  11.314   1.772 -0.8820 -0.0458 -0.8294
48263SOL     OW56513  12.196   2.805   6.771 -0.3185  0.1781  0.5091
48263SOL    HW156514  12.166   2.822   6.860  0.6382 -2.2815  1.3981
48263SOL    HW256515  12.280   2.851   6.765 -0.5314  0.6031  0.7417
48264SOL     OW56516   8.884   3.468   1.989 -0.0469 -0.1973 -0.3776
48264SOL    HW156517   8.859   3.554   2.024 -0.1282 -0.4164  0.1058
48264SOL    HW256518   8.818   3.408   2.022  0.9565 -0.7457  0.7266
48265SOL     OW56519  11.064   8.489   7.978 -0.1624 -0.2659  0.0607
48265SOL    HW156520  11.108   8.542   8.044 -1.3655  0.0755  0.6221
48265SOL    HW256521  10.980   8.466   8.018 -1.1281  0.3543 -1.5300
48266SOL     OW56522   0.911   5.092   7.470 -0.8712 -0.5507 -0.3822
48266SOL    HW156523   0.929   5.101   7.563 -0.1871 -3.5617 -0.1465
48266SOL    HW256524   0.997   5.085   7.428 -1.1627  0.8757 -1.3076
48267SOL     OW56525   2.937   4.887   8.268 -0.3289  0.1427  0.5198
48267SOL    HW156526   2.996   4.864   8.196 -0.0121 -2.1392  1.4512
48267SOL    HW256527   2.849   4.878   8.231 -0.1629  1.0414 -0.1373
48268SOL     OW56528  11.006   1.117  12.304 -0.2512  0.4550  0.6125
48268SOL    HW156529  11.051   1.150  12.382  1.7328 -0.3793 -0.1116
48268SOL    HW256530  11.024   1.183  12.237 -0.7483  0.4686  0.4894
48269SOL     OW56531  11.623   1.267  12.819  0.2067  0.3703  0.1146
48269SOL    HW156532  11.656   1.232  12.902 -0.3677  0.0122  0.1979
48269SOL    HW256533  11.542   1.217  12.802 -0.1080  0.9964 -0.2554
48270SOL     OW56534   0.182   1.182  11.889  0.3301 -0.0249 -0.8272
48270SOL    HW156535   0.218   1.256  11.938 -1.0311 -0.9436  1.7355
48270SOL    HW256536   0.101   1.216  11.852  0.5217  0.1968 -1.0536
48271SOL     OW56537   3.027   6.372  12.193 -0.1512 -0.8239  0.8460
48271SOL    HW156538   3.070   6.302  12.144 -0.0994  0.5771 -1.2410
48271SOL    HW256539   2.940   6.379  12.154 -0.1876  0.1939  1.0810
48272SOL     OW56540   5.291  13.100  11.279  0.0195  0.3067 -0.1895
48272SOL    HW156541   5.385  13.116  11.286 -0.0942  0.6566  0.6737
48272SOL    HW256542   5.255  13.182  11.246  0.1727 -0.2952 -1.9197
48273SOL     OW56543   8.777   0.589   5.164  0.2438 -0.2482  1.3170
48273SOL    HW156544   8.848   0.545   5.210  0.8307 -2.1925 -1.1642
48273SOL    HW256545   8.741   0.521   5.106  1.6586  2.4991 -3.3697
48274SOL     OW56546   6.623   1.951  13.646  0.0132  0.3922  0.2476
48274SOL    HW156547   6.689   1.883  13.630 -0.0508  0.4045 -0.0718
48274SOL    HW256548   6.608   1.991  13.560 -1.1131 -0.2441  0.1284
48275SOL     OW56549  10.651   0.028  12.106  0.0558  0.1216 -1.0302
48275SOL    HW156550  10.653   0.100  12.170 -1.6502  0.1790 -0.9902
48275SOL    HW256551  10.734  -0.017  12.118  1.3035  2.2423 -1.2362
48276SOL     OW56552  11.396   9.109   9.693 -0.1423 -0.3263  0.5546
48276SOL    HW156553  11.474   9.091   9.747  0.3678  1.0064  0.3077
48276SOL    HW256554  11.422   9.184   9.639 -1.1846 -0.6584 -0.4299
48277SOL     OW56555  11.034   4.509  11.195 -0.5069  0.2228  0.3215
48277SOL    HW156556  11.077   4.451  11.133  0.0704 -0.0459  0.9610
48277SOL    HW256557  11.076   4.594  11.182 -0.2738  0.1282  0.4540
48278SOL     OW56558  13.153   5.012   0.329  0.3755  0.8193 -0.1233
48278SOL    HW156559  13.091   4.940   0.340  1.0204  0.0669 -1.1842
48278SOL    HW256560  13.107   5.075   0.275  0.5544  0.2018 -1.0212
48279SOL     OW56561   2.006   4.615   7.326  0.4609 -0.0774 -0.1014
48279SOL    HW156562   1.951   4.538   7.308  2.0977 -1.0082 -1.3410
48279SOL    HW256563   2.068   4.585   7.393  0.5186  0.4671  0.0930
48280SOL     OW56564  10.262   4.106   5.358 -0.2605  0.4356  0.1352
48280SOL    HW156565  10.188   4.112   5.298 -1.4449 -0.9354  1.4111
48280SOL    HW256566  10.335   4.077   5.302 -1.2159 -0.3462 -0.7548
48281SOL     OW56567   7.886   6.047  10.055 -0.1348  0.8801 -0.7174
48281SOL    HW156568   7.799   6.036  10.015  0.0558 -0.7007 -0.7376
48281SOL    HW256569   7.946   6.052   9.981  0.0154 -0.2340 -0.6897
48282SOL     OW56570   5.523  12.953   5.186  0.2802  0.4289  0.1359
48282SOL    HW156571   5.526  12.927   5.278 -1.9373 -2.4020 -0.4408
48282SOL    HW256572   5.570  12.884   5.139 -0.0276  0.9447 -0.9804
48283SOL     OW56573   1.076   1.290  12.914  0.7709  0.3052 -0.3231
48283SOL    HW156574   1.112   1.243  12.989  1.4439  0.3229 -0.6322
48283SOL    HW256575   1.116   1.377  12.919 -0.3749  0.8372  0.1831
48284SOL     OW56576  10.117   5.249  13.256 -0.2990 -0.4653 -0.8069
48284SOL    HW156577  10.052   5.193  13.299 -1.7668  1.5067 -0.3264
48284SOL    HW256578  10.186   5.261  13.321  0.1348 -1.8098 -0.9820
48285SOL     OW56579  13.594   2.238  11.849 -0.2763  0.3504  0.2762
48285SOL    HW156580  13.597   2.143  11.841 -0.2272  0.3304  0.5260
48285SOL    HW256581  13.511   2.263  11.809 -0.6019  0.1370  0.8045
48286SOL     OW56582   5.789   0.354   8.820  0.0660  0.4525  0.8142
48286SOL    HW156583   5.798   0.438   8.865  0.7463 -0.0807  1.7153
48286SOL    HW256584   5.836   0.365   8.738 -0.3656  1.1408  0.6490
48287SOL     OW56585   5.522   0.793   7.181  0.1057 -0.2738  0.0189
48287SOL    HW156586   5.548   0.745   7.260 -1.6953 -1.3787  0.0134
48287SOL    HW256587   5.494   0.725   7.120 -1.5782  0.6920 -0.3709
48288SOL     OW56588   6.151  13.061   0.853  0.3715 -0.0326 -0.5977
48288SOL    HW156589   6.093  13.042   0.779  1.4068 -1.3460 -1.1234
48288SOL    HW256590   6.159  12.977   0.899  0.3101  0.6073  0.5936
48289SOL     OW56591   8.007   7.181   6.003 -0.0237  0.2041 -0.4057
48289SOL    HW156592   8.057   7.140   5.933  0.1527 -1.1025  0.4538
48289SOL    HW256593   7.915   7.165   5.979 -0.0011 -2.8959  1.0463
48290SOL     OW56594   7.530   7.310  11.590  0.4684  0.4750  0.3212
48290SOL    HW156595   7.493   7.347  11.671  1.7891  1.3596  0.5656
48290SOL    HW256596   7.622   7.338  11.592  0.9701 -1.0337 -0.6012
48291SOL     OW56597  12.780   2.732   3.486  0.3298  0.3193  0.2765
48291SOL    HW156598  12.744   2.815   3.516 -2.1440 -0.8416  0.7669
48291SOL    HW256599  12.831   2.755   3.408 -0.1677  2.2875  0.4670
48292SOL     OW56600  10.203   0.855  13.630 -0.2074 -0.3537  0.7209
48292SOL    HW156601  10.127   0.912  13.617  0.8721  0.9398 -0.0760
48292SOL    HW256602  10.170   0.784  13.686 -1.9169  0.3301  0.6347
48293SOL     OW56603   9.006   2.701   6.202  0.2920  0.3939 -0.6428
48293SOL    HW156604   9.038   2.610   6.197 -1.4407 -0.1922 -2.0316
48293SOL    HW256605   9.085   2.753   6.216  1.1136 -1.4658  2.7783
48294SOL     OW56606   6.641   0.442   5.014 -0.3120  0.1358 -0.4300
48294SOL    HW156607   6.622   0.349   5.022 -1.9344  0.5522  1.1835
48294SOL    HW256608   6.655   0.472   5.104 -1.7250  1.8124 -0.7143
48295SOL     OW56609  13.001   8.718   1.671 -0.1294 -0.1337 -0.3307
48295SOL    HW156610  13.079   8.705   1.726  0.0472 -0.2561 -0.6099
48295SOL    HW256611  12.997   8.813   1.659  0.3158 -0.1701 -0.8021
48296SOL     OW56612   6.768  13.159   5.014 -0.2605 -0.5026 -0.2274
48296SOL    HW156613   6.721  13.094   5.066  0.7795 -0.7355  0.4332
48296SOL    HW256614   6.699  13.203   4.964 -0.9807 -2.0868 -0.6842
48297SOL     OW56615   9.253   5.279  12.620 -0.0724 -0.1187  0.1162
48297SOL    HW156616   9.329   5.292  12.563  0.0182 -0.9885  0.0335
48297SOL    HW256617   9.290   5.246  12.702 -0.4203 -1.3782 -0.2107
48298SOL     OW56618   2.242  11.885   8.993  0.0403 -0.1080  0.0885
48298SOL    HW156619   2.147  11.879   8.991  0.1364 -1.9048 -0.3114
48298SOL    HW256620   2.263  11.900   9.086 -0.5719 -1.8819  0.5604
48299SOL     OW56621   0.611   8.503   7.003  0.4867  0.7089  0.4223
48299SOL    HW156622   0.525   8.543   7.019  0.5327  0.7520  0.5629
48299SOL    HW256623   0.643   8.547   6.924  0.9026  1.5557  1.0485
48300SOL     OW56624   8.936   8.627   5.721 -0.0051  0.1492  0.4380
48300SOL    HW156625   8.998   8.699   5.714 -0.1813  0.3418  0.8773
48300SOL    HW256626   8.853   8.668   5.746 -0.3105 -0.1089 -0.1119
48301SOL     OW56627   3.353   9.456  10.601  0.2097  0.2039  0.1627
48301SOL    HW156628   3.361   9.551  10.615 -0.0594  0.0361  1.6411
48301SOL    HW256629   3.362   9.445  10.507 -0.4608  1.7758 -0.1220
48302SOL     OW56630  13.383  13.483   9.160  0.0014 -0.1767 -0.3725
48302SOL    HW156631  13.337  13.560   9.194  1.0412  0.5717 -0.6209
48302SOL    HW256632  13.325  13.448   9.092  0.6449  1.9109 -2.0831
48303SOL     OW56633   4.020   2.522   9.310  0.2876  0.3051  0.4792
48303SOL    HW156634   4.064   2.437   9.321 -0.0831  0.0115 -0.2215
48303SOL    HW256635   3.930   2.506   9.336 -0.6072 -0.4051 -2.6189
48304SOL     OW56636  13.140  10.265  10.790 -0.0203 -0.2001  0.1208
48304SOL    HW156637  13.055  10.254  10.833 -0.6880  0.6193 -0.9414
48304SOL    HW256638  13.200  10.209  10.840 -1.5700 -2.3490 -0.2783
48305SOL     OW56639  13.389  12.130   1.437  0.7282  0.1775 -0.1937
48305SOL    HW156640  13.443  12.160   1.510  1.3341  0.6500 -0.8176
48305SOL    HW256641  13.446  12.070   1.389 -0.6997 -2.7006  1.4550
48306SOL     OW56642  10.140   2.657   4.526  0.0213 -0.1544 -0.1107
48306SOL    HW156643  10.094   2.584   4.484  1.4957 -0.8712 -0.5352
48306SOL    HW256644  10.155   2.720   4.456 -0.5025  0.1851  0.0769
48307SOL     OW56645   4.777   7.264  12.956  0.4839  0.0320  0.1913
48307SOL    HW156646   4.859   7.240  12.999  1.3267  0.7830 -0.9292
48307SOL    HW256647   4.759   7.192  12.895  0.6193  0.1482  0.0151
48308SOL     OW56648  12.609   7.167   2.493  0.1592  0.0475  0.2879
48308SOL    HW156649  12.612   7.244   2.551  0.0786  1.7609 -1.8691
48308SOL    HW256650  12.531   7.180   2.440  1.6758  0.0690 -2.1083
48309SOL     OW56651   0.308   9.825  12.468  0.5501 -0.3683  0.4251
48309SOL    HW156652   0.309   9.747  12.413 -0.0615  0.0434 -0.1835
48309SOL    HW256653   0.244   9.883  12.427  0.0473 -0.0660  1.5999
48310SOL     OW56654   3.478   1.630  10.651  0.1058 -0.4580 -0.1914
48310SOL    HW156655   3.421   1.570  10.603  1.3814 -1.1171 -0.9323
48310SOL    HW256656   3.419   1.698  10.683 -1.3047 -1.8267  0.2439
48311SOL     OW56657   5.483   9.485   9.522  0.2138  0.0300  0.0700
48311SOL    HW156658   5.545   9.526   9.461  0.0485  0.7360  0.3582
48311SOL    HW256659   5.443   9.415   9.471  0.3196  0.3928 -0.5341
48312SOL     OW56660   2.449   3.670   4.924 -0.0332 -0.1815  0.2496
48312SOL    HW156661   2.474   3.722   5.001 -0.4294  0.3228  0.0394
48312SOL    HW256662   2.380   3.721   4.882  0.2839 -0.3843 -0.5287
48313SOL     OW56663  11.753   1.073   3.687  0.4961  0.4273 -0.2340
48313SOL    HW156664  11.736   1.000   3.746  1.2801 -1.0198 -1.7211
48313SOL    HW256665  11.687   1.139   3.710  0.8231 -0.0206  2.2705
48314SOL     OW56666   9.014  12.799   9.004  0.1137 -0.1960  0.0239
48314SOL    HW156667   9.104  12.770   9.017 -0.5819 -2.7781 -0.2827
48314SOL    HW256668   8.961  12.727   9.037 -1.8300  0.7467 -0.8669
48315SOL     OW56669  12.396   7.897   9.276 -0.2890 -0.0210 -0.2939
48315SOL    HW156670  12.310   7.911   9.315 -0.9332  2.4222 -2.3340
48315SOL    HW256671  12.433   7.985   9.268  1.6814 -0.8525 -1.0845
48316SOL     OW56672   8.953   8.604  11.198 -0.0937 -0.2185 -0.0884
48316SOL    HW156673   8.864   8.623  11.227 -0.6238 -2.2739 -0.2568
48316SOL    HW256674   8.942   8.572  11.108  0.8552 -0.1607 -0.2323
48317SOL     OW56675  12.156   0.196   0.055 -0.3893 -0.3027  0.2844
48317SOL    HW156676  12.200   0.217  -0.027 -0.7632 -0.7017 -0.0250
48317SOL    HW256677  12.176   0.103   0.069  1.3371  0.2127  1.6800
48318SOL     OW56678   7.812   7.172   0.089  0.0033 -0.4264 -0.1425
48318SOL    HW156679   7.799   7.151  -0.003 -0.9340 -0.4255 -0.0173
48318SOL    HW256680   7.724   7.172   0.127  0.2671  0.6678  0.5155
48319SOL     OW56681   6.653   9.960   2.034  0.2848 -0.4981  0.3864
48319SOL    HW156682   6.727  10.008   1.998  3.9663 -4.4489  1.8282
48319SOL    HW256683   6.675   9.948   2.127 -3.1242 -0.4814  1.3559
48320SOL     OW56684   9.571   2.872   7.754  0.3509  0.5592  0.3705
48320SOL    HW156685   9.594   2.913   7.670  0.6868  1.6533  0.9680
48320SOL    HW256686   9.643   2.813   7.773  0.0415 -0.0611 -0.3307
48321SOL     OW56687   4.349   8.419   7.118  0.2436  0.2002 -0.6430
48321SOL    HW156688   4.301   8.338   7.100  0.2472 -0.1837  0.9288
48321SOL    HW256689   4.400   8.434   7.039 -0.7396 -0.6171 -1.4684
48322SOL     OW56690  12.778   9.523   4.845  0.3990 -1.2261  0.4521
48322SOL    HW156691  12.864   9.565   4.842  0.3363 -1.1513 -0.3216
48322SOL    HW256692  12.796   9.433   4.871  0.4838 -0.6271  2.7731
48323SOL     OW56693   0.585   8.753   0.886  0.4264  0.1375 -0.0943
48323SOL    HW156694   0.522   8.725   0.819  1.1762 -0.4551 -0.5826
48323SOL    HW256695   0.643   8.813   0.840  0.0740  0.8735  0.4154
48324SOL     OW56696   8.404   6.165   0.185 -0.5041  0.2921  0.0910
48324SOL    HW156697   8.356   6.097   0.234  0.3232  0.0048  0.5253
48324SOL    HW256698   8.491   6.126   0.170  0.0391  1.3210  0.4935
48325SOL     OW56699  13.436   6.538   9.826 -0.8805  0.0558 -0.1764
48325SOL    HW156700  13.425   6.539   9.921  2.4974 -0.5499  0.3439
48325SOL    HW256701  13.460   6.628   9.805  1.7007 -0.4770  0.1546
48326SOL     OW56702   6.384  10.607   2.396 -0.3647  0.6040 -0.2565
48326SOL    HW156703   6.376  10.565   2.482  2.1223  1.5100  0.4959
48326SOL    HW256704   6.385  10.701   2.414  1.2360  0.7913 -1.1213
48327SOL     OW56705   9.291  11.039  10.747 -0.4114 -0.2898  0.1739
48327SOL    HW156706   9.285  11.029  10.843  0.4116  0.4665  0.3142
48327SOL    HW256707   9.298  10.950  10.714  0.4891 -0.5045  0.9160
48328SOL     OW56708   8.901   8.178   7.252  0.1623  0.2418  0.2519
48328SOL    HW156709   8.823   8.135   7.290  0.7652 -0.9600  0.1725
48328SOL    HW256710   8.973   8.118   7.272  0.3495 -1.3113 -4.0532
48329SOL     OW56711   0.002   2.677   4.158 -0.5298  0.3068  0.4187
48329SOL    HW156712   0.027   2.757   4.111 -2.0636 -0.4455 -1.8178
48329SOL    HW256713   0.069   2.613   4.133 -0.8367  0.1473  0.0144
48330SOL     OW56714   7.331   0.620   3.186 -0.6694 -0.2088 -0.4780
48330SOL    HW156715   7.302   0.573   3.108  0.4742 -0.7845 -0.5835
48330SOL    HW256716   7.362   0.551   3.245 -4.0952 -0.1031  1.7419
48331SOL     OW56717   7.623   3.660   1.148  0.5792 -0.2926  0.0997
48331SOL    HW156718   7.631   3.566   1.164 -0.8077 -0.5868 -0.7334
48331SOL    HW256719   7.670   3.701   1.221  0.0729 -1.6054  1.2153
48332SOL     OW56720  12.567   6.527   1.067  0.4589  0.6963  0.0158
48332SOL    HW156721  12.473   6.508   1.070  0.6230 -0.0930  1.7412
48332SOL    HW256722  12.575   6.602   1.009 -1.0030 -0.4653 -1.8094
48333SOL     OW56723  13.197   1.959   2.327  0.7204 -0.3526 -0.2670
48333SOL    HW156724  13.192   1.963   2.422  0.8306  0.2315 -0.2815
48333SOL    HW256725  13.216   2.049   2.300 -3.9039  0.6524 -1.1176
48334SOL     OW56726   0.894   5.263   6.217 -0.4801 -0.0369  0.0908
48334SOL    HW156727   0.891   5.241   6.124  3.1981  0.2985 -0.2849
48334SOL    HW256728   0.859   5.352   6.222 -1.5818 -0.3967 -0.7763
48335SOL     OW56729   9.416   8.803   4.653 -0.5501 -0.0298 -0.3448
48335SOL    HW156730   9.428   8.718   4.611 -1.4628  0.1923 -1.0906
48335SOL    HW256731   9.435   8.788   4.745 -0.2374 -0.9276 -0.5498
48336SOL     OW56732   8.180   3.754   1.317  0.4283 -0.0860  0.2357
48336SOL    HW156733   8.243   3.699   1.272 -1.1669 -0.3998 -1.7547
48336SOL    HW256734   8.100   3.701   1.322 -1.0933  1.8714 -1.5541
48337SOL     OW56735   5.244  13.651   8.704  0.1562 -0.0163  0.1110
48337SOL    HW156736   5.224  13.562   8.730 -0.0887  0.5145  1.8812
48337SOL    HW256737   5.328  13.645   8.659  0.8872 -0.9581  1.5438
48338SOL     OW56738   0.513   8.220  12.530  0.4121  0.1887  0.3609
48338SOL    HW156739   0.422   8.243  12.551 -0.5225 -2.0851 -0.8857
48338SOL    HW256740   0.524   8.249  12.439  0.4686 -0.7655  0.0564
48339SOL     OW56741  11.014   5.907   4.819  0.1643 -0.3870 -0.6162
48339SOL    HW156742  11.069   5.838   4.783 -0.1526 -0.3937 -1.1098
48339SOL    HW256743  11.061   5.940   4.895  0.0800 -1.4939 -0.0763
48340SOL     OW56744   4.178   8.259   1.189 -0.3042  0.9255  0.3985
48340SOL    HW156745   4.141   8.264   1.101  1.1776  1.0072 -0.2509
48340SOL    HW256746   4.137   8.182   1.228 -0.4771  0.4879 -0.6174
48341SOL     OW56747  12.775  11.439   1.460  0.5824 -0.1188 -0.6339
48341SOL    HW156748  12.856  11.453   1.509 -0.4525  0.5650  0.9546
48341SOL    HW256749  12.757  11.346   1.471  1.3929 -0.3871 -1.4299
48342SOL     OW56750   3.454   2.268   3.500 -0.1794 -0.4694 -0.3936
48342SOL    HW156751   3.400   2.289   3.424 -0.1043 -0.3962 -0.4274
48342SOL    HW256752   3.540   2.305   3.479 -0.2399 -0.1898 -0.1445
48343SOL     OW56753   6.213   4.679   3.044  0.7475 -0.0804 -0.2242
48343SOL    HW156754   6.175   4.764   3.023  0.3563 -0.2616 -0.2563
48343SOL    HW256755   6.245   4.646   2.960  0.8417  0.0073 -0.2225
48344SOL     OW56756   0.174  13.362   8.692 -0.0150 -0.4486  0.1036
48344SOL    HW156757   0.217  13.277   8.678 -1.4404 -1.0274 -1.0153
48344SOL    HW256758   0.121  13.348   8.770  1.8907  0.3329  1.6149
48345SOL     OW56759   8.791   0.339  10.494 -0.4713  0.1782  0.5549
48345SOL    HW156760   8.779   0.404  10.424  1.7229  2.1937  1.8646
48345SOL    HW256761   8.747   0.377  10.570  0.8491  0.2081  1.3438
48346SOL     OW56762  12.861   4.697  10.783  0.0955 -0.2743  0.3493
48346SOL    HW156763  12.886   4.788  10.767 -3.7428  0.6190 -1.9905
48346SOL    HW256764  12.786   4.703  10.843 -0.3138 -1.8852  0.0581
48347SOL     OW56765   1.669  11.133   8.462  0.1067 -0.0332 -0.7815
48347SOL    HW156766   1.592  11.114   8.516  0.1168 -0.9117 -1.0513
48347SOL    HW256767   1.665  11.227   8.447 -0.7833 -0.0281 -0.5850
48348SOL     OW56768   6.443   8.993   9.998  0.0419  0.2543 -0.5421
48348SOL    HW156769   6.418   8.929   9.932 -1.4395  1.4061 -1.1620
48348SOL    HW256770   6.490   9.061   9.949 -1.0213  1.0915 -0.4216
48349SOL     OW56771   6.846  12.603   7.504 -0.1129  0.0442  0.6825
48349SOL    HW156772   6.809  12.551   7.432 -1.1985  1.4054  0.2198
48349SOL    HW256773   6.853  12.541   7.577 -1.2129 -0.7900  0.1061
48350SOL     OW56774   5.439   5.264   6.804  0.0069 -0.0104 -0.1423
48350SOL    HW156775   5.421   5.291   6.714  0.2817 -3.1087 -1.2588
48350SOL    HW256776   5.353   5.255   6.844 -0.1051  1.8749  0.1462
48351SOL     OW56777   0.415  12.826  10.574  0.4241  0.0765 -0.2821
48351SOL    HW156778   0.509  12.845  10.570  0.2997  0.8918  0.3856
48351SOL    HW256779   0.375  12.908  10.604 -0.1899 -1.0184  2.1771
48352SOL     OW56780   3.269   5.259   8.667 -0.5224 -0.2864 -0.0874
48352SOL    HW156781   3.185   5.256   8.621 -0.8158  1.6714  0.2323
48352SOL    HW256782   3.246   5.277   8.758  0.2222  3.2628 -0.4433
48353SOL     OW56783  13.064   3.126   3.188  0.3195 -0.3700  0.1796
48353SOL    HW156784  13.128   3.081   3.134  0.3946  0.0666 -0.1021
48353SOL    HW256785  12.982   3.121   3.139  0.8362  1.9243 -1.0886
48354SOL     OW56786   4.006   3.578  12.536 -0.4758 -0.7374  0.0470
48354SOL    HW156787   4.091   3.536  12.554 -0.6697 -1.0763  0.1958
48354SOL    HW256788   4.006   3.657  12.590  0.3174  0.0091 -1.0110
48355SOL     OW56789   1.210   2.863  11.970  0.1751 -0.2934 -0.1141
48355SOL    HW156790   1.201   2.911  12.052  1.9261  0.1512 -0.1448
48355SOL    HW256791   1.293   2.817  11.978  0.0583 -0.7624 -1.3758
48356SOL     OW56792   9.375   8.780   1.468  0.2231 -0.2733 -0.1468
48356SOL    HW156793   9.436   8.735   1.409  0.2666  0.5984 -0.7970
48356SOL    HW256794   9.310   8.818   1.409 -1.2628 -1.5961  0.5645
48357SOL     OW56795   4.778   3.378   4.046 -0.7964  0.2758  0.1656
48357SOL    HW156796   4.797   3.469   4.071 -0.3911  0.3665 -0.4344
48357SOL    HW256797   4.864   3.340   4.028 -1.0121 -0.0342 -0.2213
48358SOL     OW56798   0.184  13.437   7.403  0.5405  0.5609  0.5365
48358SOL    HW156799   0.205  13.351   7.366  1.2446  1.3150 -0.9215
48358SOL    HW256800   0.099  13.426   7.445  1.1647 -1.1388  1.4273
48359SOL     OW56801   3.429   7.956   5.943  0.3732 -0.1853 -0.3509
48359SOL    HW156802   3.364   7.939   6.011 -0.3791  0.3477 -0.9246
48359SOL    HW256803   3.506   7.988   5.991 -0.1027  0.0672  0.2549
48360SOL     OW56804  13.229   7.266   3.185  0.2059  0.3343  0.4989
48360SOL    HW156805  13.186   7.267   3.270  0.7271 -0.8229  0.7883
48360SOL    HW256806  13.318   7.299   3.202  0.8317 -1.3959  0.7199
48361SOL     OW56807   2.321  11.914  13.397 -0.0652 -0.5071  0.3267
48361SOL    HW156808   2.289  11.993  13.442 -0.4128  1.0344 -2.3762
48361SOL    HW256809   2.259  11.901  13.326 -0.8525 -4.1998  1.5101
48362SOL     OW56810  10.583   0.970   7.245 -0.2777 -0.5568  0.2933
48362SOL    HW156811  10.488   0.981   7.242 -0.3585 -1.1969 -1.7783
48362SOL    HW256812  10.617   1.039   7.188  0.4376 -0.7487  0.4799
48363SOL     OW56813   8.530  10.270  10.587  0.8737  0.2797 -0.3677
48363SOL    HW156814   8.552  10.301  10.675  1.9263  0.7401 -0.7824
48363SOL    HW256815   8.449  10.318  10.565 -0.1589 -0.8127  0.8395
48364SOL     OW56816   3.423   8.243  11.866 -0.4488  0.5859  0.1370
48364SOL    HW156817   3.402   8.152  11.888  1.1764  0.7296  2.7438
48364SOL    HW256818   3.477   8.237  11.787 -1.4801 -0.5677 -0.5126
48365SOL     OW56819   1.291   7.377  10.201  0.2780 -0.2789 -0.1104
48365SOL    HW156820   1.314   7.352  10.112 -1.3939 -0.4095 -0.5448
48365SOL    HW256821   1.334   7.462  10.214  0.0376  0.0381 -1.2701
48366SOL     OW56822   4.994   6.230   7.333 -0.2647  0.6663 -0.6404
48366SOL    HW156823   4.935   6.280   7.277  0.3414  1.0163 -0.9849
48366SOL    HW256824   5.082   6.253   7.301  0.0235 -0.9523 -1.0938
48367SOL     OW56825  10.229   7.149   8.830 -0.7246 -0.0265 -0.0957
48367SOL    HW156826  10.300   7.169   8.768  0.2178  2.5981  1.6253
48367SOL    HW256827  10.152   7.191   8.792 -0.1013  1.7799  0.5045
48368SOL     OW56828   9.040   1.716  12.739  0.0553  0.0875 -0.4649
48368SOL    HW156829   9.071   1.630  12.709  0.1387  0.1645 -0.5989
48368SOL    HW256830   9.099   1.737  12.812 -2.4969 -1.8650  2.4287
48369SOL     OW56831   4.264  11.098   5.758  0.5322 -0.2867  0.6454
48369SOL    HW156832   4.184  11.121   5.805 -0.6220 -0.7459 -0.9981
48369SOL    HW256833   4.318  11.054   5.824 -1.4686 -1.9176  1.3159
48370SOL     OW56834  11.302  10.169   6.518  0.0109  0.3723  0.6964
48370SOL    HW156835  11.295  10.182   6.424  2.4178 -0.2908  0.3502
48370SOL    HW256836  11.396  10.175   6.536 -0.1480 -1.7382  2.6841
48371SOL     OW56837   1.309   9.089  11.117 -0.2928 -0.0305  0.8561
48371SOL    HW156838   1.239   9.146  11.150 -0.6162  0.3054 -0.3566
48371SOL    HW256839   1.389   9.123  11.158 -0.4937  1.2476  0.2448
48372SOL     OW56840  13.615   9.411   2.142  0.1922 -0.2369  0.8224
48372SOL    HW156841  13.633   9.441   2.231  0.5550 -0.7794  0.9366
48372SOL    HW256842  13.519   9.414   2.135  0.0832 -1.3278  1.6439
48373SOL     OW56843   3.994   2.884   2.569  0.1599 -0.1558 -0.6430
48373SOL    HW156844   3.943   2.958   2.601 -0.7579 -1.0809  0.0962
48373SOL    HW256845   3.933   2.836   2.513 -1.1976 -3.3464  3.1287
48374SOL     OW56846   6.062   3.899  10.221 -0.2645 -0.0849 -0.2030
48374SOL    HW156847   6.124   3.972  10.217 -0.0298 -0.3327 -1.5908
48374SOL    HW256848   5.989   3.926  10.165 -1.0674 -0.1245  0.8033
48375SOL     OW56849   2.102   5.069  12.693  0.0091  0.1610 -0.5002
48375SOL    HW156850   2.014   5.095  12.723  0.4263 -0.9770  1.9396
48375SOL    HW256851   2.087   5.034  12.605 -1.7976  1.0674 -0.6102
48376SOL     OW56852   2.502   6.702   2.068  0.0066  0.6158  0.0959
48376SOL    HW156853   2.471   6.623   2.022  0.4577 -0.0437  0.8983
48376SOL    HW256854   2.567   6.739   2.008  2.0792 -1.3473  0.9894
48377SOL     OW56855   0.769  12.278  11.907 -0.3903 -0.2985 -0.2507
48377SOL    HW156856   0.825  12.240  11.839  0.0523  0.1606 -0.1441
48377SOL    HW256857   0.700  12.213  11.919  0.1498 -0.9043 -0.3400
48378SOL     OW56858  11.386   7.134   7.544  0.1033 -0.4685 -0.1234
48378SOL    HW156859  11.315   7.171   7.596  0.3292 -1.2497  0.7525
48378SOL    HW256860  11.349   7.125   7.456 -0.7506 -0.5191  0.2364
48379SOL     OW56861  12.195  13.720   6.859  0.1633  0.2269 -0.2036
48379SOL    HW156862  12.102  13.704   6.841 -0.5937  2.1228  1.5383
48379SOL    HW256863  12.230  13.755   6.777 -0.9383  0.4516 -0.5948
48380SOL     OW56864   7.839   1.649   2.368  0.5071 -0.2404 -0.3928
48380SOL    HW156865   7.750   1.638   2.403  0.0725  0.2613 -1.3011
48380SOL    HW256866   7.891   1.676   2.443 -0.0977 -0.5988  0.1688
48381SOL     OW56867   2.315   6.112   4.264 -0.1619 -0.1328  0.2723
48381SOL    HW156868   2.288   6.121   4.172  0.2501  0.3109  0.1916
48381SOL    HW256869   2.244   6.063   4.305  0.3833 -1.7358 -0.6347
48382SOL     OW56870   6.303   2.900   0.889  0.2967 -0.1041  0.0514
48382SOL    HW156871   6.305   2.805   0.903  1.5246  0.0054  0.7030
48382SOL    HW256872   6.211   2.920   0.874 -0.0157 -1.3587  0.2139
48383SOL     OW56873  10.250   4.866  12.756  0.6232 -0.1025  0.1474
48383SOL    HW156874  10.179   4.818  12.798 -0.4441  0.5634 -0.8376
48383SOL    HW256875  10.327   4.810  12.767 -0.0446 -0.8370  1.2353
48384SOL     OW56876   6.929  12.001  11.285 -0.3195  0.8769 -0.1716
48384SOL    HW156877   6.863  11.935  11.303 -0.4013  1.1064  0.3892
48384SOL    HW256878   6.966  11.976  11.200 -0.0919 -0.1007  0.2031
48385SOL     OW56879  13.047  11.213  11.728 -0.4095 -0.2714  0.0641
48385SOL    HW156880  13.086  11.141  11.777  0.2282 -0.0568 -0.1309
48385SOL    HW256881  13.018  11.173  11.646 -0.8041 -0.4747  0.2996
48386SOL     OW56882   9.073  10.614   2.937 -1.0574 -0.0656  0.1153
48386SOL    HW156883   9.127  10.561   2.996 -1.3160  1.3035  1.6559
48386SOL    HW256884   9.084  10.703   2.969 -2.3426  0.5450 -1.0648
48387SOL     OW56885   5.752   4.048  13.152  0.2080  0.1889  0.0739
48387SOL    HW156886   5.746   3.963  13.196  1.1670 -0.4466 -0.9862
48387SOL    HW256887   5.661   4.072  13.134 -0.0727 -0.6240  0.3709
48388SOL     OW56888   3.741  10.163   0.599  0.2904  0.3222  0.5674
48388SOL    HW156889   3.685  10.236   0.627  2.7135  2.1804  0.8948
48388SOL    HW256890   3.728  10.159   0.504 -0.7375  0.3945  0.6928
48389SOL     OW56891  12.076   7.953   8.576 -0.2531  0.7054  0.0989
48389SOL    HW156892  12.113   7.989   8.656 -0.2068  0.1332  0.3435
48389SOL    HW256893  12.152   7.920   8.527 -0.4461 -0.8830  0.8093
48390SOL     OW56894   9.712   9.584   9.976 -0.2898 -0.2053  0.0328
48390SOL    HW156895   9.627   9.616  10.008 -1.0919 -2.2675  0.1322
48390SOL    HW256896   9.704   9.586   9.881  0.0689  0.8540  0.0160
48391SOL     OW56897   4.417   0.862  12.385 -0.2786 -0.1940  0.5909
48391SOL    HW156898   4.401   0.932  12.448  0.4693  1.4262 -0.9321
48391SOL    HW256899   4.337   0.809  12.387 -1.2439  1.2241  1.1355
48392SOL     OW56900   6.738   6.554   8.383 -0.1928  0.0399  0.3298
48392SOL    HW156901   6.716   6.645   8.406 -0.2533  0.5392 -1.5203
48392SOL    HW256902   6.815   6.534   8.436  0.9422  1.8241 -0.5543
48393SOL     OW56903   7.634   0.954   7.182  0.1287 -0.0708 -0.5197
48393SOL    HW156904   7.548   0.976   7.147  0.0581 -0.2687 -0.4728
48393SOL    HW256905   7.617   0.885   7.246  0.3399 -0.2236 -0.6259
48394SOL     OW56906  12.755   0.112  11.923 -0.0266  0.0021  0.1275
48394SOL    HW156907  12.786   0.098  11.834 -0.0584  0.4296  0.0482
48394SOL    HW256908  12.804   0.188  11.954  1.3575 -1.2414  1.1326
48395SOL     OW56909   9.983  11.649  13.598 -0.7331 -0.1349 -0.0458
48395SOL    HW156910   9.997  11.729  13.649 -1.8132  1.4235 -2.0261
48395SOL    HW256911   9.888  11.637  13.599 -0.5346 -1.9329  0.9190
48396SOL     OW56912   6.948   6.497   8.559 -0.5144  0.2616 -0.0041
48396SOL    HW156913   7.017   6.521   8.498  0.6196  1.3338  1.6054
48396SOL    HW256914   6.995   6.467   8.637 -1.9124 -1.8204  0.1024
48397SOL     OW56915   4.610   0.826   4.949  0.1507 -0.4391  0.1160
48397SOL    HW156916   4.677   0.830   4.880 -0.0998  1.5811 -0.0611
48397SOL    HW256917   4.633   0.748   4.999  1.9440 -0.4694 -0.6529
48398SOL     OW56918  13.589  11.423  10.539 -0.8540  0.2157 -0.6280
48398SOL    HW156919  13.645  11.469  10.601 -2.0220  0.7023  0.0921
48398SOL    HW256920  13.650  11.384  10.476  0.2614  1.0654 -0.1055
48399SOL     OW56921   9.753   5.826   7.191 -0.8646  0.2698  0.3326
48399SOL    HW156922   9.829   5.770   7.203 -1.5089 -0.6116  0.4246
48399SOL    HW256923   9.789   5.913   7.174  0.1637 -0.3169 -0.5909
48400SOL     OW56924   1.784   9.953  11.890 -0.0384  0.1508  0.8682
48400SOL    HW156925   1.769   9.999  11.807  0.5676 -0.0704  0.6289
48400SOL    HW256926   1.879   9.955  11.901  0.0200 -1.1927  0.7585
48401SOL     OW56927   6.993   7.562  11.057 -0.9696 -0.5826 -0.1450
48401SOL    HW156928   6.933   7.525  10.992 -1.0987  0.3360 -0.5622
48401SOL    HW256929   6.992   7.656  11.040  0.6528 -0.5488 -0.2097
48402SOL     OW56930   7.645   9.222   6.418  0.4249  0.0554  0.4632
48402SOL    HW156931   7.739   9.237   6.422  0.7001 -1.7197  1.8771
48402SOL    HW256932   7.636   9.138   6.374 -0.5705  0.5263 -0.2800
48403SOL     OW56933   4.460  13.162   4.162 -0.0376 -0.3470 -0.3382
48403SOL    HW156934   4.373  13.136   4.193  0.4007 -2.1208 -0.4662
48403SOL    HW256935   4.478  13.103   4.089  1.4894 -0.3919  0.0307
48404SOL     OW56936   4.686   7.352  11.685  0.4715  0.0917  0.2287
48404SOL    HW156937   4.740   7.282  11.647 -1.0832 -1.7471  1.2342
48404SOL    HW256938   4.727   7.370  11.770  0.0142 -0.7120  0.6312
48405SOL     OW56939  10.970  13.679   5.255 -0.0194  0.0799 -0.4727
48405SOL    HW156940  10.971  13.773   5.274  0.0866  0.0061 -0.0995
48405SOL    HW256941  10.879  13.654   5.265  0.0383  0.0390 -0.0416
48406SOL     OW56942  12.969   3.967   4.345  0.2831  0.7293 -0.9799
48406SOL    HW156943  13.040   3.945   4.406  0.5101 -0.8356 -1.7569
48406SOL    HW256944  12.974   4.062   4.336  2.0393  0.6994 -0.7241
48407SOL     OW56945   4.224   8.832   9.007 -0.3067  0.1635 -0.6628
48407SOL    HW156946   4.277   8.864   9.081 -1.3554  1.3403 -0.3988
48407SOL    HW256947   4.164   8.769   9.047  1.6571 -2.1888 -1.1588
48408SOL     OW56948   3.909  11.499  10.574  0.6819 -0.0340 -0.2490
48408SOL    HW156949   3.923  11.463  10.486  0.3028 -1.2848  0.1771
48408SOL    HW256950   3.816  11.485  10.590  0.4861  1.3427 -0.1293
48409SOL     OW56951   9.224   4.440  10.384  0.1191 -0.2907  0.6668
48409SOL    HW156952   9.164   4.367  10.399  0.3906 -0.7154 -0.2801
48409SOL    HW256953   9.177   4.499  10.325  0.3988 -0.3309  0.4016
48410SOL     OW56954  13.526  12.535  11.830 -0.4482 -0.3340 -0.0779
48410SOL    HW156955  13.583  12.464  11.803  1.1931  0.2047  1.7108
48410SOL    HW256956  13.561  12.612  11.785 -0.6678 -0.2544 -0.1118
48411SOL     OW56957  11.224  13.256   2.749  0.4152  0.1147 -0.2219
48411SOL    HW156958  11.164  13.273   2.676  0.4596  2.3132  0.1952
48411SOL    HW256959  11.311  13.270   2.713  0.6218 -1.4656 -0.4037
48412SOL     OW56960   1.019  10.342  11.200  0.0748  0.3810  0.2327
48412SOL    HW156961   0.924  10.345  11.193  0.0395  1.1379  0.9486
48412SOL    HW256962   1.036  10.275  11.267  0.0056  0.8204  0.6979
48413SOL     OW56963   8.269   5.016   1.568 -0.3737 -0.2374  0.1607
48413SOL    HW156964   8.307   4.967   1.496 -0.7054  0.2524 -0.3572
48413SOL    HW256965   8.336   5.015   1.636  0.7171  0.9215 -0.8615
48414SOL     OW56966   6.998   2.075  10.692  0.4355  0.2560  0.9732
48414SOL    HW156967   6.937   2.085  10.765  0.1628 -0.1882  0.8106
48414SOL    HW256968   6.959   2.007  10.638  0.2517  1.1090  0.0087
48415SOL     OW56969  13.303   0.116   6.983 -0.0693  0.0052 -0.3131
48415SOL    HW156970  13.274   0.143   7.070  0.7426  0.3641 -0.1408
48415SOL    HW256971  13.376   0.056   7.000  0.3277  0.3577 -0.7524
48416SOL     OW56972   0.909   8.252  10.967 -0.2164  0.1758 -0.3422
48416SOL    HW156973   0.906   8.264  10.873  2.0543  2.6219 -0.2438
48416SOL    HW256974   0.828   8.207  10.989 -0.8017 -0.4725 -3.4233
48417SOL     OW56975  10.614  12.266   5.710 -0.2238  0.0225 -0.2328
48417SOL    HW156976  10.707  12.275   5.729 -0.4989  0.1285  1.1611
48417SOL    HW256977  10.609  12.188   5.654  0.6523 -0.2285  0.0216
48418SOL     OW56978   9.381  13.390   1.632 -0.2659 -0.0352 -0.4260
48418SOL    HW156979   9.352  13.423   1.718  0.2877 -0.1388 -0.1941
48418SOL    HW256980   9.336  13.306   1.623 -1.4361  0.6166 -0.8782
48419SOL     OW56981   9.244  12.266   1.390 -0.5659  0.1029 -0.2614
48419SOL    HW156982   9.189  12.340   1.364  2.2470  2.8273  0.8648
48419SOL    HW256983   9.183  12.200   1.422 -3.2443  1.8854 -1.3478
48420SOL     OW56984   6.626  12.775   7.163 -0.4987 -0.1998 -0.5622
48420SOL    HW156985   6.640  12.681   7.175  1.0672 -0.0434 -0.9326
48420SOL    HW256986   6.532  12.784   7.147 -1.1784 -1.4009  2.1782
48421SOL     OW56987   1.481  11.192   7.518  0.0846 -0.3328  0.4357
48421SOL    HW156988   1.432  11.241   7.584  0.8751  1.5704 -0.3033
48421SOL    HW256989   1.503  11.258   7.452  2.3709 -1.4083  0.0400
48422SOL     OW56990  12.457   1.627  12.699  0.6741  0.2879  0.1872
48422SOL    HW156991  12.550   1.606  12.699  0.2510 -1.8423  0.9075
48422SOL    HW256992  12.442   1.668  12.784  0.8884  0.2631  0.2374
48423SOL     OW56993   5.044  12.713  12.079 -0.2598  0.1608  0.4757
48423SOL    HW156994   5.028  12.782  12.143  3.8703  0.5574  1.3968
48423SOL    HW256995   5.064  12.636  12.132 -1.6854 -0.9375 -0.5073
48424SOL     OW56996   6.598   9.621   0.233  0.8640 -0.5236  0.1125
48424SOL    HW156997   6.631   9.533   0.211 -0.2564 -1.1368  0.7818
48424SOL    HW256998   6.573   9.614   0.325 -1.5208 -0.2321 -0.4466
48425SOL     OW56999  13.621   8.969   7.849 -0.3697 -0.2164 -0.1845
48425SOL    HW157000  13.668   8.992   7.769 -0.6969  0.6979 -0.1324
48425SOL    HW257001  13.588   8.881   7.833  0.4669 -0.4617 -0.6301
48426SOL     OW57002   1.532   7.066   8.213 -0.1517 -0.3888  0.1504
48426SOL    HW157003   1.544   6.984   8.164 -1.0618 -0.5284  0.1434
48426SOL    HW257004   1.438   7.079   8.215 -0.0958 -0.0581  1.3498
48427SOL     OW57005   1.745  10.321   6.665  1.1837 -0.1356  0.4123
48427SOL    HW157006   1.720  10.256   6.599 -0.7100  0.1591  0.7783
48427SOL    HW257007   1.768  10.399   6.614  0.5843 -0.1835  0.0521
48428SOL     OW57008   3.051  11.832  11.433 -0.5387  0.0461  0.2202
48428SOL    HW157009   2.966  11.816  11.473 -0.3074 -0.9546  0.3498
48428SOL    HW257010   3.057  11.927  11.426 -1.0903  0.1915  1.4438
48429SOL     OW57011  13.668   2.749   0.410  0.2020  0.6380  0.1115
48429SOL    HW157012  13.657   2.832   0.363  0.1999  0.3648 -0.3831
48429SOL    HW257013  13.748   2.711   0.372 -0.2682  0.0190 -0.2707
48430SOL     OW57014  11.318   6.258   1.906  0.3019 -0.9172  0.5887
48430SOL    HW157015  11.362   6.198   1.846  0.4947 -0.5966  0.4039
48430SOL    HW257016  11.288   6.203   1.978 -1.2127 -1.5514 -0.4884
48431SOL     OW57017   0.938  10.578   4.447 -0.8283  0.3688 -0.1437
48431SOL    HW157018   0.904  10.522   4.517 -1.1858  1.3450  0.4894
48431SOL    HW257019   1.001  10.636   4.491 -0.3384  0.3583 -0.8143
48432SOL     OW57020   5.668   3.736   6.326  0.1089 -0.3631  0.1096
48432SOL    HW157021   5.636   3.725   6.237  3.1246 -1.2142 -1.0081
48432SOL    HW257022   5.707   3.824   6.327  0.7326 -0.6317  0.3085
48433SOL     OW57023   6.176   1.708  11.470  0.1854 -0.0296 -0.3737
48433SOL    HW157024   6.210   1.621  11.446  0.7710  0.2568 -0.6105
48433SOL    HW257025   6.161   1.704  11.564 -0.0830 -0.4832 -0.4317
48434SOL     OW57026   4.288   2.848  12.662  0.4831  0.0512  0.2893
48434SOL    HW157027   4.317   2.883  12.578 -1.9894  2.3484  0.2830
48434SOL    HW257028   4.202   2.810  12.644  0.7395 -1.1799  1.4511
48435SOL     OW57029   6.133  11.973   3.782 -0.2225 -0.0423  0.1906
48435SOL    HW157030   6.044  11.983   3.816  0.6183 -1.1624  2.9583
48435SOL    HW257031   6.151  12.057   3.739 -1.8752  0.9879  1.3724
48436SOL     OW57032   3.035   1.181   5.848 -0.2329 -0.3209  0.2316
48436SOL    HW157033   3.092   1.235   5.903 -0.0923  0.3329 -0.5455
48436SOL    HW257034   2.958   1.166   5.902 -0.6856  1.4519  0.1360
48437SOL     OW57035   5.985   1.682   9.872 -0.1632  0.1645  0.1915
48437SOL    HW157036   5.963   1.659   9.963  1.4439  1.1637  0.8808
48437SOL    HW257037   5.904   1.666   9.823 -2.5947  3.7187  2.5147
48438SOL     OW57038  12.248  10.709   7.887  0.1017  0.1291 -0.6823
48438SOL    HW157039  12.184  10.771   7.923 -0.0055 -0.3527 -0.0344
48438SOL    HW257040  12.301  10.682   7.963  0.5137 -0.1447 -1.0587
48439SOL     OW57041   8.746  12.552   1.614 -0.4923 -0.3651  0.2234
48439SOL    HW157042   8.657  12.551   1.649 -0.2208  0.3608  0.9431
48439SOL    HW257043   8.788  12.628   1.654  0.2223 -0.2526 -0.6979
48440SOL     OW57044   3.764  10.646  12.494  0.1475 -0.5174 -0.1238
48440SOL    HW157045   3.858  10.650  12.478  0.0509 -0.1348 -0.6140
48440SOL    HW257046   3.753  10.573  12.555  0.8155 -0.2119  0.3722
48441SOL     OW57047   9.209   8.216   0.997 -0.3801  0.2824  0.2788
48441SOL    HW157048   9.280   8.235   0.935 -0.3588  1.6220  0.6702
48441SOL    HW257049   9.222   8.280   1.067 -3.2296  2.0865 -0.6871
48442SOL     OW57050  12.556  11.691  11.657  0.1274  0.2869 -0.3460
48442SOL    HW157051  12.612  11.684  11.579  3.0237  0.4672  1.5754
48442SOL    HW257052  12.520  11.780  11.652 -0.4203  0.0141 -1.8588
48443SOL     OW57053   7.106  11.032   4.483  0.6733 -0.9294 -0.4707
48443SOL    HW157054   7.098  11.011   4.390 -1.1786 -1.1203 -0.3084
48443SOL    HW257055   7.199  11.053   4.495  1.0094 -1.1990 -2.2858
48444SOL     OW57056  12.171   8.488  11.120 -0.2299  0.6549 -0.1996
48444SOL    HW157057  12.135   8.489  11.209  0.9293 -1.6691  0.4089
48444SOL    HW257058  12.253   8.537  11.127  1.2826 -1.8005  0.8405
48445SOL     OW57059   2.348   1.565   6.788 -0.0185 -0.1210 -0.2928
48445SOL    HW157060   2.388   1.649   6.764 -1.1127  0.2658 -0.8132
48445SOL    HW257061   2.327   1.524   6.704 -1.2184 -0.0618 -0.0406
48446SOL     OW57062   6.214  12.849  10.040 -0.0951 -0.3170  0.8449
48446SOL    HW157063   6.198  12.925  10.096  2.0087 -0.0909  1.2221
48446SOL    HW257064   6.259  12.885   9.964 -1.2410 -0.8913 -0.1427
48447SOL     OW57065  11.658   9.997   5.686  0.2337 -0.2335 -0.2992
48447SOL    HW157066  11.701  10.039   5.760  0.5957 -0.7438 -0.2181
48447SOL    HW257067  11.729   9.951   5.640 -0.4871 -2.7499  0.9356
48448SOL     OW57068   7.843   6.468   6.736  0.7006  0.1573  0.3057
48448SOL    HW157069   7.820   6.381   6.702 -0.0892  0.8949 -1.1282
48448SOL    HW257070   7.785   6.480   6.811  0.1853 -0.1954 -0.0265
48449SOL     OW57071  10.903  11.059   4.158  0.3197  0.0868 -0.1990
48449SOL    HW157072  10.824  11.113   4.152 -0.0699 -0.0376  2.4007
48449SOL    HW257073  10.875  10.982   4.207  1.7410 -0.6413 -0.4980
48450SOL     OW57074   9.737  11.287   9.423 -0.5206 -0.0267 -0.0403
48450SOL    HW157075   9.683  11.361   9.397 -0.9788  0.1001  1.1817
48450SOL    HW257076   9.689  11.210   9.392 -1.3985  0.0883  0.9538
48451SOL     OW57077   4.538  12.661   6.822  0.6342 -0.1624 -0.4134
48451SOL    HW157078   4.584  12.680   6.740  0.6770 -0.9618 -0.5853
48451SOL    HW257079   4.506  12.746   6.852  3.2388  0.6586  0.3343
48452SOL     OW57080   4.559  11.209   0.935  0.7376 -0.4030  0.1364
48452SOL    HW157081   4.466  11.227   0.928  1.1068  1.3797 -0.6579
48452SOL    HW257082   4.564  11.124   0.980 -1.2135 -0.0773  1.0515
48453SOL     OW57083   0.681  13.165   3.805 -0.4838 -0.2884  0.2947
48453SOL    HW157084   0.643  13.241   3.848 -1.9918 -0.2157 -1.0830
48453SOL    HW257085   0.681  13.097   3.872  0.8279  0.8669  1.5234
48454SOL     OW57086   0.001   8.810  13.066 -0.2005 -0.1435 -0.2625
48454SOL    HW157087  -0.053   8.861  13.006 -0.5572 -0.7850 -0.5009
48454SOL    HW257088  -0.019   8.845  13.152 -2.8940 -1.9255 -0.0423
48455SOL     OW57089  10.850  11.539  13.523 -0.0172  0.0593  0.5324
48455SOL    HW157090  10.841  11.597  13.598 -2.4411  0.6880 -0.1650
48455SOL    HW257091  10.822  11.453  13.556 -0.1541  0.1270  0.5935
48456SOL     OW57092   5.066   5.999  10.818 -0.0231  0.2942 -0.0805
48456SOL    HW157093   5.158   6.021  10.805  0.7013 -2.3438  0.0542
48456SOL    HW257094   5.048   5.932  10.753 -1.9360  0.8565 -0.1976
48457SOL     OW57095   1.731   8.330  10.622 -0.2503  0.6375 -0.0546
48457SOL    HW157096   1.773   8.245  10.612  0.2820  0.8189  0.6055
48457SOL    HW257097   1.638   8.310  10.635 -0.2859  0.2097 -0.9144
48458SOL     OW57098  10.644   1.135  10.634  0.3308  0.0758 -0.3651
48458SOL    HW157099  10.664   1.049  10.596 -3.1761 -1.6638  1.2386
48458SOL    HW257100  10.706   1.144  10.707  1.8690 -0.2212 -1.5898
48459SOL     OW57101   6.787  12.082  13.465 -0.2677 -0.1959  0.1202
48459SOL    HW157102   6.777  11.991  13.491  0.4639 -0.1255  0.6833
48459SOL    HW257103   6.697  12.116  13.461 -0.5249 -0.8582  0.1861
48460SOL     OW57104   0.017  11.904   3.308 -0.5090 -0.4754 -0.7966
48460SOL    HW157105  -0.034  11.945   3.238 -0.3349 -1.0082 -1.2422
48460SOL    HW257106   0.003  11.961   3.383 -1.7116 -0.5635 -0.9234
48461SOL     OW57107  12.591   0.572  12.328 -0.0535  0.3043 -0.5071
48461SOL    HW157108  12.670   0.522  12.349  0.4512  0.5041 -1.8423
48461SOL    HW257109  12.609   0.611  12.243 -1.5708  0.4307 -0.7998
48462SOL     OW57110   8.732   5.174   5.994 -0.0474 -0.4597 -0.2788
48462SOL    HW157111   8.695   5.087   5.979 -0.0814 -0.6078  0.6051
48462SOL    HW257112   8.663   5.234   5.966 -0.8431 -0.7354  0.9732
48463SOL     OW57113   9.610   0.930  12.041 -1.1312 -0.0719  1.0731
48463SOL    HW157114   9.668   0.922  11.965 -1.9554  0.4989  0.3741
48463SOL    HW257115   9.565   0.845  12.047  0.5103 -0.9246  2.2693
48464SOL     OW57116   6.477   3.271  13.221  0.1808  0.1756  0.0739
48464SOL    HW157117   6.458   3.199  13.161  0.4328 -0.3131  0.5719
48464SOL    HW257118   6.408   3.335  13.203  0.1627 -0.0269 -0.6276
48465SOL     OW57119   5.772   3.421  10.804  0.1894 -0.5348  0.5805
48465SOL    HW157120   5.851   3.473  10.793  1.1698 -2.0048  0.3476
48465SOL    HW257121   5.747   3.396  10.715 -1.6661  1.4425  0.4679
48466SOL     OW57122   4.711  13.318   8.236  0.6069 -0.2197  0.2001
48466SOL    HW157123   4.766  13.385   8.195  0.5928 -0.2425  0.1431
48466SOL    HW257124   4.681  13.263   8.163 -0.1144  0.2480  0.1369
48467SOL     OW57125   2.272   0.998   5.251 -0.6986 -0.1960  0.1708
48467SOL    HW157126   2.352   0.947   5.249  0.2320  1.2116 -0.3279
48467SOL    HW257127   2.302   1.089   5.257 -2.1291  0.6026 -3.0325
48468SOL     OW57128   1.897   9.408   9.134 -0.1807 -0.1068  0.4264
48468SOL    HW157129   1.929   9.339   9.192  0.7918 -1.4042 -1.5111
48468SOL    HW257130   1.805   9.386   9.119 -0.2588 -0.1455  0.9413
48469SOL     OW57131   9.053  11.145   3.268 -0.3122 -0.2317 -0.0412
48469SOL    HW157132   9.116  11.155   3.339  0.8935 -0.7490 -1.0126
48469SOL    HW257133   8.985  11.089   3.306 -0.6426  0.9875  1.2712
48470SOL     OW57134  11.986   6.265   5.919  0.1062  0.2769 -0.0671
48470SOL    HW157135  12.064   6.318   5.937  0.3021  0.5608 -1.6420
48470SOL    HW257136  12.005   6.180   5.958  1.3157  0.2651 -0.6686
48471SOL     OW57137   3.598   4.583  11.259  0.3706  0.4603 -0.9236
48471SOL    HW157138   3.621   4.512  11.318  2.6740 -0.2237 -2.4930
48471SOL    HW257139   3.520   4.552  11.213 -0.6513  0.4516  0.7347
48472SOL     OW57140  10.733   4.015   9.390  0.3255 -0.1709  0.0321
48472SOL    HW157141  10.730   4.102   9.430 -0.4603 -0.8122  1.4057
48472SOL    HW257142  10.703   3.955   9.458 -0.3989 -1.3863 -1.2918
48473SOL     OW57143  10.201   3.912   0.372  0.2547 -0.5061  0.0087
48473SOL    HW157144  10.205   4.005   0.392  1.6122 -0.1055 -1.8989
48473SOL    HW257145  10.135   3.878   0.433 -0.3266  1.6828  0.7118
48474SOL     OW57146  11.778   2.071   1.536  0.5204  0.0467  0.2526
48474SOL    HW157147  11.834   2.063   1.612 -0.6266 -2.2822  0.9365
48474SOL    HW257148  11.691   2.048   1.567 -0.4961  1.5792 -1.2217
48475SOL     OW57149   1.367   9.910   8.415 -0.0633  0.3852 -0.4514
48475SOL    HW157150   1.341   9.819   8.398 -1.8579  0.9243 -0.8726
48475SOL    HW257151   1.433   9.929   8.349  0.3504 -0.6206 -0.3472
48476SOL     OW57152  10.843   3.707  13.245  0.0550  0.0207 -0.0306
48476SOL    HW157153  10.776   3.644  13.220  0.1828  0.2979 -1.1395
48476SOL    HW257154  10.922   3.678  13.199 -0.1295  1.5294 -1.3850
48477SOL     OW57155  13.340   3.081   6.596 -0.0478 -0.5980 -0.4881
48477SOL    HW157156  13.421   3.123   6.567 -0.0842 -0.5070 -0.4561
48477SOL    HW257157  13.273   3.148   6.587  0.0035 -0.4552  0.1473
48478SOL     OW57158   1.163   7.614  12.131  0.5011 -0.0473 -0.1087
48478SOL    HW157159   1.239   7.658  12.093  0.2080 -0.1149 -0.8033
48478SOL    HW257160   1.194   7.578  12.214  0.9493  0.8083  0.1088
48479SOL     OW57161   6.153   6.116   1.428  0.2609 -0.3637 -0.0892
48479SOL    HW157162   6.062   6.100   1.456  0.6794 -1.1588  0.8574
48479SOL    HW257163   6.144   6.171   1.349 -1.0645 -1.0999 -0.4865
48480SOL     OW57164   4.087  13.673  12.358 -0.1491 -0.2069  0.4151
48480SOL    HW157165   4.024  13.685  12.428 -0.7323  0.9954 -0.2797
48480SOL    HW257166   4.146  13.748  12.366 -0.0341 -0.2309 -0.1734
48481SOL     OW57167   8.407  11.304   0.832 -0.4947 -0.6122  0.7081
48481SOL    HW157168   8.503  11.304   0.834 -0.4860  1.0479  1.0197
48481SOL    HW257169   8.382  11.394   0.850 -2.1284 -0.9858  0.4638
48482SOL     OW57170   8.718   6.909   1.142 -0.2236 -0.1281 -0.2865
48482SOL    HW157171   8.630   6.921   1.178  0.4282  1.1413  0.9770
48482SOL    HW257172   8.706   6.915   1.048 -1.8680 -2.7073 -0.3513
48483SOL     OW57173   2.094   8.502   7.852  0.4453 -0.4380 -0.3196
48483SOL    HW157174   2.173   8.508   7.799  0.2913 -2.0932 -0.8038
48483SOL    HW257175   2.022   8.520   7.791  0.4217  1.1440  0.1367
48484SOL     OW57176  10.315   5.151   2.006  0.1432  0.3081  0.1069
48484SOL    HW157177  10.390   5.112   2.052  0.5787 -0.7222 -1.3933
48484SOL    HW257178  10.239   5.109   2.046  0.6251 -3.0924 -2.1511
48485SOL     OW57179   8.042   8.782   9.887  0.4459  0.0608  0.1035
48485SOL    HW157180   8.096   8.768   9.809  0.2738  1.1883 -0.2267
48485SOL    HW257181   7.962   8.822   9.854 -0.0192 -0.3078  0.7625
48486SOL     OW57182  11.436  11.254   6.825  0.3968 -0.5791 -0.1490
48486SOL    HW157183  11.419  11.328   6.766 -0.4341 -2.0818 -1.9151
48486SOL    HW257184  11.350  11.211   6.834  1.0453 -1.9108 -0.0340
48487SOL     OW57185  12.307   2.047   5.820 -0.1532 -0.6287 -0.0126
48487SOL    HW157186  12.245   2.107   5.862 -1.2779 -1.7495 -0.0244
48487SOL    HW257187  12.338   1.990   5.891  2.8163  1.4227  0.5292
48488SOL     OW57188   8.228   9.272   2.355 -0.4783  1.0388  0.2355
48488SOL    HW157189   8.305   9.295   2.303  0.7036  1.0872  1.9508
48488SOL    HW257190   8.174   9.221   2.295 -0.3420  3.0899 -1.8137
48489SOL     OW57191   8.176   4.589  13.037  0.1337 -0.0892  0.5045
48489SOL    HW157192   8.193   4.627  13.123  0.1502 -0.1429  0.5253
48489SOL    HW257193   8.084   4.608  13.020  0.5282  1.3460 -0.1828
48490SOL     OW57194  10.977  13.732   0.164 -0.6941 -0.5578 -0.0668
48490SOL    HW157195  10.938  13.682   0.092 -1.1907 -0.4612  0.1295
48490SOL    HW257196  10.973  13.823   0.134 -2.1532 -0.3596  0.6213
48491SOL     OW57197   0.119   7.644   7.443 -0.0759 -0.4855  0.0590
48491SOL    HW157198   0.132   7.579   7.512 -0.8452 -2.1845 -1.3228
48491SOL    HW257199   0.177   7.615   7.372  0.4885  1.0645 -0.1685
48492SOL     OW57200   8.002   9.666   6.526 -0.7721 -0.5973  0.4785
48492SOL    HW157201   8.017   9.579   6.563 -3.3215 -0.8968  1.0207
48492SOL    HW257202   7.955   9.649   6.444 -0.8378  0.2408  0.3351
48493SOL     OW57203   6.964  12.543   1.402 -0.1860  0.2743  0.3285
48493SOL    HW157204   7.008  12.614   1.449  0.9085 -0.4541  0.4424
48493SOL    HW257205   6.912  12.588   1.335  2.8743  1.1776 -1.6785
48494SOL     OW57206  12.863   3.086   7.308  0.1921  0.1816  0.3676
48494SOL    HW157207  12.900   3.012   7.260 -0.8711 -0.8441  1.0627
48494SOL    HW257208  12.871   3.061   7.400  1.0628  1.5618  0.6921
48495SOL     OW57209   4.086   9.020   0.669  0.0881 -0.4968  0.2017
48495SOL    HW157210   4.001   8.993   0.703 -0.2562  0.8833  0.4804
48495SOL    HW257211   4.081   9.115   0.662  1.9276 -0.2760  1.1124
48496SOL     OW57212   0.949   2.088  12.233  0.7078  0.3045 -0.4170
48496SOL    HW157213   0.980   2.175  12.256  2.7981 -1.0700  2.6137
48496SOL    HW257214   0.864   2.080  12.275  0.6929  0.7320 -0.3673
48497SOL     OW57215   6.226  11.779  13.224 -0.2383  0.3189  0.4448
48497SOL    HW157216   6.200  11.761  13.133  2.4840  1.6161 -0.7016
48497SOL    HW257217   6.185  11.863  13.244 -0.0057  0.5296  0.0462
48498SOL     OW57218   2.449   1.814   2.615 -0.2362 -0.1776  0.8237
48498SOL    HW157219   2.389   1.787   2.546 -0.0933  0.8168  0.2909
48498SOL    HW257220   2.493   1.892   2.580 -0.9110  0.9908  2.4379
48499SOL     OW57221   9.562   4.611   0.947 -0.6128 -0.2732  0.5382
48499SOL    HW157222   9.540   4.696   0.910 -0.1258  0.0904  1.0633
48499SOL    HW257223   9.650   4.623   0.983 -0.8699 -0.7518  1.3505
48500SOL     OW57224   6.420   3.235   9.112  0.0476 -0.2659  0.3602
48500SOL    HW157225   6.363   3.291   9.165 -0.8967 -1.2225  0.4049
48500SOL    HW257226   6.426   3.154   9.162  0.3129 -0.6703 -0.3191
48501SOL     OW57227   6.518   0.748  10.730 -0.9420 -0.5131  0.1208
48501SOL    HW157228   6.562   0.802  10.664  1.0372  1.9499  3.1901
48501SOL    HW257229   6.573   0.670  10.738 -0.5974 -0.3245 -0.3591
48502SOL     OW57230  10.626  12.128   4.150  0.7545  0.0249 -0.4400
48502SOL    HW157231  10.561  12.196   4.169 -0.5708 -0.8945 -1.4234
48502SOL    HW257232  10.676  12.163   4.076  1.1761  0.6052  0.1116
48503SOL     OW57233   6.539   9.078   3.275  0.1869  0.2111  0.4390
48503SOL    HW157234   6.470   9.064   3.340  0.3046 -0.4204  0.4368
48503SOL    HW257235   6.492   9.096   3.194  0.0401  1.0076  0.7010
48504SOL     OW57236  13.501   2.622  13.736 -0.2294  0.5076  0.3827
48504SOL    HW157237  13.408   2.622  13.715  0.0647  0.4525 -1.0306
48504SOL    HW257238  13.511   2.553  13.802 -1.0522 -0.1980 -0.2021
48505SOL     OW57239   0.881   7.261   3.929 -0.0482 -0.1592 -0.3195
48505SOL    HW157240   0.974   7.255   3.948 -0.0293 -2.1151 -0.8369
48505SOL    HW257241   0.860   7.354   3.943  1.8572  0.2431  0.2148
48506SOL     OW57242   4.400   0.298  11.291  0.2288 -0.4992  0.0413
48506SOL    HW157243   4.340   0.263  11.225  1.6133  1.5332 -2.5286
48506SOL    HW257244   4.358   0.378  11.322 -0.0369 -1.0166  1.0346
48507SOL     OW57245   7.621   8.996   1.447  0.0197  0.0104 -0.2885
48507SOL    HW157246   7.606   9.090   1.442  1.1940  0.1920 -0.6574
48507SOL    HW257247   7.714   8.985   1.427  0.7890 -0.9105  3.0355
48508SOL     OW57248  12.806   2.868   4.239  0.2566 -0.7314 -0.4968
48508SOL    HW157249  12.721   2.862   4.195  0.2161 -1.9119 -0.2851
48508SOL    HW257250  12.848   2.945   4.200 -0.2966 -1.0145 -1.6815
48509SOL     OW57251  11.799   1.538   2.028 -0.4131  0.0590 -0.1756
48509SOL    HW157252  11.785   1.456   2.075  2.7587 -0.5778 -0.0701
48509SOL    HW257253  11.850   1.591   2.089  1.1256  0.4318 -1.7187
48510SOL     OW57254  13.072   6.072   8.217 -0.9334  0.1118 -0.2766
48510SOL    HW157255  13.030   6.155   8.194 -0.4680  0.4457  0.0529
48510SOL    HW257256  13.077   6.024   8.135  0.9928  1.4118 -0.9883
48511SOL     OW57257   5.335   5.761   0.914  0.4112 -0.0021  0.1984
48511SOL    HW157258   5.257   5.758   0.859  0.8310  0.3042 -0.4140
48511SOL    HW257259   5.320   5.834   0.974 -0.0177 -0.3004  0.4632
48512SOL     OW57260  12.515   3.250  11.279 -0.1590 -0.1120 -0.0279
48512SOL    HW157261  12.464   3.322  11.241 -0.6690  0.4679  1.6707
48512SOL    HW257262  12.574   3.292  11.341  0.0381 -1.0992  0.4736
48513SOL     OW57263   3.331   4.156   8.945 -0.1677 -0.0005  0.0647
48513SOL    HW157264   3.336   4.135   8.852 -0.2134 -1.4035  0.3582
48513SOL    HW257265   3.249   4.117   8.975  0.2679 -0.3254  0.8695
48514SOL     OW57266  11.711  12.459   5.347  0.0063 -0.8199  0.2161
48514SOL    HW157267  11.806  12.469   5.361 -0.1230 -1.2476  1.6003
48514SOL    HW257268  11.672  12.497   5.425 -1.1251  1.7982 -1.4973
48515SOL     OW57269   0.963   7.448   4.571  0.6734  0.0895 -0.4203
48515SOL    HW157270   0.871   7.465   4.550  0.2851  0.1815  1.2049
48515SOL    HW257271   0.960   7.395   4.651  2.0273 -0.9421 -1.0127
48516SOL     OW57272   1.075   4.798   6.085  0.1334  0.0565 -0.2543
48516SOL    HW157273   1.101   4.875   6.136 -0.3370 -1.1660  1.9644
48516SOL    HW257274   1.002   4.828   6.031 -0.5382  0.9827  1.1294
48517SOL     OW57275   1.141   0.190   5.007  0.2402 -0.1249  0.1805
48517SOL    HW157276   1.140   0.099   5.037  1.0677  0.1828  1.1783
48517SOL    HW257277   1.059   0.227   5.040  0.3437 -0.2537  0.5910
48518SOL     OW57278   4.197  11.837  10.719 -0.0572  0.0875 -0.2594
48518SOL    HW157279   4.218  11.823  10.811 -2.3075 -1.0972  0.1474
48518SOL    HW257280   4.162  11.753  10.690 -2.0243  1.2302 -1.3988
48519SOL     OW57281   3.997   1.264   6.948 -0.0837 -0.2059  0.0387
48519SOL    HW157282   3.948   1.300   6.874  1.6775  2.5952  0.1225
48519SOL    HW257283   4.065   1.210   6.908 -0.8731 -1.0375 -0.2195
48520SOL     OW57284   7.414   8.704  10.598  0.0319 -0.7982  0.6696
48520SOL    HW157285   7.457   8.790  10.600 -1.0144 -0.2499  0.6264
48520SOL    HW257286   7.321   8.724  10.606 -0.4881 -1.7215 -1.9532
48521SOL     OW57287   7.079   4.077  11.659 -0.1007  0.2290  0.1097
48521SOL    HW157288   7.025   4.150  11.688 -1.2049 -0.7545  0.6208
48521SOL    HW257289   7.053   4.063  11.568 -0.8352 -0.3148  0.3873
48522SOL     OW57290   6.161  12.727   8.579 -0.0721  0.0047  1.0395
48522SOL    HW157291   6.163  12.802   8.520  0.9669 -0.2536  0.7290
48522SOL    HW257292   6.196  12.759   8.662  3.8954 -0.9117 -0.0897
48523SOL     OW57293   8.116   6.519   7.641 -0.7678  0.2716  0.2547
48523SOL    HW157294   8.199   6.517   7.593 -0.6747  1.0318  0.3852
48523SOL    HW257295   8.063   6.585   7.596 -0.7429  0.8686  1.0857
48524SOL     OW57296   2.205  10.422  12.557 -0.6673 -0.2842 -0.1240
48524SOL    HW157297   2.180  10.488  12.492  0.4271  1.0007  0.7093
48524SOL    HW257298   2.282  10.458  12.599 -1.6977 -0.7760  2.3338
48525SOL     OW57299   0.255   3.727  13.413  0.3500 -0.5377 -0.5273
48525SOL    HW157300   0.312   3.801  13.394 -2.0950  1.0544 -2.2955
48525SOL    HW257301   0.211   3.751  13.495 -1.1140  0.5265 -1.5614
48526SOL     OW57302   7.707  12.944   3.529 -0.2586 -0.0677  0.1823
48526SOL    HW157303   7.740  12.977   3.445  1.1838 -0.3537  0.6027
48526SOL    HW257304   7.719  12.849   3.525  0.8171  0.0019  1.0854
48527SOL     OW57305   9.988   6.464   8.140 -0.1135 -0.0103 -0.4274
48527SOL    HW157306   9.907   6.514   8.152 -0.0281  0.1150 -0.3795
48527SOL    HW257307   9.967   6.401   8.070 -0.1901  0.1571 -0.5561
48528SOL     OW57308   1.237   8.165  11.586 -0.0108  0.5139 -0.0591
48528SOL    HW157309   1.297   8.140  11.515  0.4831 -0.8828  0.8081
48528SOL    HW257310   1.151   8.136  11.555 -0.1999  2.0028 -1.0559
48529SOL     OW57311   5.465   2.234   9.515 -0.4598  0.1787  0.0616
48529SOL    HW157312   5.536   2.235   9.452 -1.3707  1.3011 -1.0194
48529SOL    HW257313   5.508   2.235   9.600  0.7970 -0.7846 -0.5395
48530SOL     OW57314   3.370   6.881  10.754  0.3979 -0.4558  0.5392
48530SOL    HW157315   3.310   6.955  10.754 -0.0498 -0.8174  0.3490
48530SOL    HW257316   3.422   6.892  10.834 -0.5386 -0.6408  1.1830
48531SOL     OW57317   1.749   8.241   5.374 -0.0287  0.1372  0.3383
48531SOL    HW157318   1.733   8.280   5.288 -0.4263 -0.0530  0.3215
48531SOL    HW257319   1.663   8.206   5.401  0.1825 -0.1676  0.6270
48532SOL     OW57320  12.067   2.704  12.497 -0.1668  0.7144 -0.3681
48532SOL    HW157321  12.073   2.793  12.531 -0.2536  0.2654  0.8543
48532SOL    HW257322  12.079   2.714  12.402 -1.1545  2.1305 -0.3742
48533SOL     OW57323  12.072   4.190   0.400  0.0204  0.3057  0.2820
48533SOL    HW157324  12.086   4.247   0.325 -0.7303 -0.4783 -0.4725
48533SOL    HW257325  12.112   4.107   0.376  0.6299  0.3349  1.1539
48534SOL     OW57326   7.521   1.699   9.768 -0.4538 -0.2400 -0.3927
48534SOL    HW157327   7.563   1.663   9.846 -0.7733 -2.5973 -1.2364
48534SOL    HW257328   7.540   1.793   9.772  0.7162 -0.5019  1.7694
48535SOL     OW57329   6.368  12.673  10.759 -0.2027 -0.0124 -0.0894
48535SOL    HW157330   6.433  12.721  10.708 -0.9959 -0.6005 -1.7591
48535SOL    HW257331   6.337  12.736  10.824  1.6813  0.4041  0.4638
48536SOL     OW57332   6.720   8.871   9.402 -0.1882 -0.5794 -0.8040
48536SOL    HW157333   6.632   8.898   9.375 -1.2763 -2.6787  0.3460
48536SOL    HW257334   6.749   8.812   9.333  0.0217 -0.4284 -0.8443
48537SOL     OW57335   2.791   1.685   5.120  0.1751  0.8634 -0.1400
48537SOL    HW157336   2.756   1.766   5.084  0.0025  0.8561  0.0058
48537SOL    HW257337   2.722   1.654   5.179 -1.8007 -1.7230 -3.4319
48538SOL     OW57338   4.795   3.382   1.699 -0.1601 -0.2551  0.2472
48538SOL    HW157339   4.846   3.321   1.646 -0.0588  0.6389 -0.6910
48538SOL    HW257340   4.717   3.401   1.646  0.2383  1.1233  0.1324
48539SOL     OW57341   0.039   6.177   6.941  0.8045  0.4161  0.2663
48539SOL    HW157342  -0.034   6.205   6.996  0.3106  0.5345 -0.4374
48539SOL    HW257343   0.075   6.258   6.905 -0.0784  0.2407 -1.0827
48540SOL     OW57344   5.502  13.563  10.301  0.0068 -0.2775  0.1224
48540SOL    HW157345   5.474  13.472  10.292 -0.5827 -0.0187 -0.7635
48540SOL    HW257346   5.510  13.577  10.396 -0.2513 -1.1372  0.2760
48541SOL     OW57347  13.194   7.095  13.658 -0.2900  0.7836  0.4160
48541SOL    HW157348  13.278   7.139  13.676 -0.8574  1.3302  1.8736
48541SOL    HW257349  13.143   7.108  13.738 -1.9106  0.7714 -0.5910
48542SOL     OW57350   3.668  11.662   6.981  0.3769 -0.1041 -0.0905
48542SOL    HW157351   3.588  11.704   7.013  0.5138 -0.7023  1.0768
48542SOL    HW257352   3.737  11.725   7.000  0.5579 -0.7387  1.4978
48543SOL     OW57353   3.837  12.340   6.469 -0.0700 -0.1289  0.3822
48543SOL    HW157354   3.770  12.340   6.401  0.5499 -0.0798 -0.2449
48543SOL    HW257355   3.903  12.402   6.437  0.1479  0.0345  1.1190
48544SOL     OW57356  12.027   2.031   2.225 -0.2319 -0.0792 -0.1222
48544SOL    HW157357  12.066   1.972   2.290 -0.8116 -1.1410 -0.7034
48544SOL    HW257358  12.101   2.060   2.172 -0.0723 -1.1530 -0.4987
48545SOL     OW57359   7.439   2.462   5.054 -0.2623  0.5570  0.3714
48545SOL    HW157360   7.377   2.402   5.013 -0.1477  0.6234  0.0943
48545SOL    HW257361   7.484   2.504   4.980 -1.5891  2.3118  0.4862
48546SOL     OW57362   1.123  12.794   7.984  0.0210 -0.1371  0.5787
48546SOL    HW157363   1.137  12.886   8.006 -1.9349  0.1812  0.7239
48546SOL    HW257364   1.132  12.748   8.067 -0.8241  0.1850  0.8562
48547SOL     OW57365   4.065   1.996   4.912 -0.6658  0.4890 -0.4411
48547SOL    HW157366   4.055   2.050   4.834 -0.1739  0.9318 -0.1990
48547SOL    HW257367   4.144   2.029   4.954  0.7027 -1.5677 -1.2150
48548SOL     OW57368   0.928  13.620   4.857  0.3132  0.3566  0.5437
48548SOL    HW157369   1.018  13.650   4.857  0.4895 -0.1110  1.5543
48548SOL    HW257370   0.876  13.697   4.882  0.5572  0.3552  1.0853
48549SOL     OW57371   4.697   3.418   0.180 -0.2670  0.0024 -0.2853
48549SOL    HW157372   4.682   3.509   0.207  2.8004  0.1052  1.4841
48549SOL    HW257373   4.656   3.366   0.248 -1.2090  0.0370 -0.8072
48550SOL     OW57374   8.008   5.444   5.554 -0.2779 -0.7453  0.3119
48550SOL    HW157375   7.939   5.436   5.619 -0.6517  0.1838  0.0476
48550SOL    HW257376   8.086   5.407   5.596 -0.6447 -0.6544  1.0796
48551SOL     OW57377   7.668   9.453   8.016 -0.2546 -0.4433  0.1562
48551SOL    HW157378   7.714   9.534   7.993  0.8534  0.2468  4.0253
48551SOL    HW257379   7.585   9.458   7.969  0.5090  2.0717 -1.0911
48552SOL     OW57380   5.328   5.870   4.324  0.2082  0.3815 -0.3544
48552SOL    HW157381   5.366   5.897   4.407 -0.6510  0.5366 -0.0006
48552SOL    HW257382   5.397   5.820   4.281  0.1618 -1.0434  1.1223
48553SOL     OW57383  11.548   9.329   3.100 -0.3137 -0.3371 -0.3760
48553SOL    HW157384  11.572   9.281   3.179  0.2269  0.7717  0.1643
48553SOL    HW257385  11.631   9.358   3.062 -0.6275  0.6323 -0.3708
48554SOL     OW57386   3.363   2.647   2.587 -0.1981 -0.0760  0.4847
48554SOL    HW157387   3.334   2.637   2.678 -0.2849 -0.5684  0.4082
48554SOL    HW257388   3.445   2.598   2.583  0.0163  0.2856  0.3963
48555SOL     OW57389  13.648  10.032   5.869 -0.5243 -0.3115  0.5194
48555SOL    HW157390  13.721  10.067   5.920 -0.1212  0.9564 -0.8727
48555SOL    HW257391  13.665  10.060   5.779 -1.8869 -1.3909 -0.1125
48556SOL     OW57392   0.315   7.369   4.340  0.0805 -0.2517  0.2293
48556SOL    HW157393   0.238   7.355   4.285  0.4352 -0.1541 -0.2963
48556SOL    HW257394   0.328   7.464   4.340  0.6509 -0.3262 -0.3074
48557SOL     OW57395   8.390  11.729   2.834  0.8271 -0.5621  0.1072
48557SOL    HW157396   8.359  11.800   2.778  0.8043 -0.7109 -0.0695
48557SOL    HW257397   8.318  11.714   2.895  0.4620 -1.0570 -0.4438
48558SOL     OW57398  10.605   3.814   6.587  0.2489  0.1377 -0.5209
48558SOL    HW157399  10.608   3.834   6.680 -0.9871  2.0354 -0.8249
48558SOL    HW257400  10.527   3.761   6.576 -1.2211  2.2135 -0.7679
48559SOL     OW57401   2.136   0.860   9.836  0.1122 -0.6559  0.2596
48559SOL    HW157402   2.075   0.831   9.768 -0.0277  1.9927 -0.8908
48559SOL    HW257403   2.083   0.859   9.916 -0.9037 -0.2108 -0.3737
48560SOL     OW57404   0.564   0.614   1.932  0.3531 -0.0940 -0.0896
48560SOL    HW157405   0.626   0.647   1.868  0.0721  0.9174  0.1363
48560SOL    HW257406   0.484   0.666   1.917 -1.0895 -2.5561 -1.5700
48561SOL     OW57407  11.421  11.319   5.253  0.5000 -0.2492 -0.1407
48561SOL    HW157408  11.411  11.336   5.160  1.0718 -0.8754 -0.3217
48561SOL    HW257409  11.507  11.355   5.276 -0.3788  1.5087  0.5426
48562SOL     OW57410  12.213   3.900   2.909 -0.0567  0.3126  0.1758
48562SOL    HW157411  12.195   3.893   2.815 -0.2830  1.2380  0.1385
48562SOL    HW257412  12.167   3.825   2.948  1.4205 -1.0600 -0.6109
48563SOL     OW57413  12.668   7.370   7.572  0.5065  0.6117  0.4411
48563SOL    HW157414  12.763   7.369   7.585  1.2301  1.6742 -3.4492
48563SOL    HW257415  12.648   7.284   7.534  0.0364  0.6032  0.7050
48564SOL     OW57416   1.487  12.200   4.827  0.1336  0.3713 -0.1108
48564SOL    HW157417   1.529  12.257   4.763 -1.3417  1.5007 -0.1160
48564SOL    HW257418   1.560  12.157   4.872  1.2251  0.7892 -1.4259
48565SOL     OW57419   3.610   0.724   9.975  0.0904 -0.1624  0.3654
48565SOL    HW157420   3.595   0.664   9.901 -2.6460 -0.9608  1.4126
48565SOL    HW257421   3.588   0.810   9.941  1.2638 -0.1410 -0.3838
48566SOL     OW57422  12.649  10.283   9.686 -0.4961  0.3192  0.0666
48566SOL    HW157423  12.743  10.265   9.699 -0.5396 -1.6078 -1.8008
48566SOL    HW257424  12.645  10.378   9.672  1.1575  0.4681  0.3792
48567SOL     OW57425  11.589   9.809   3.993 -0.3509  0.3182 -0.4135
48567SOL    HW157426  11.524   9.746   3.962  0.4494 -0.7384 -0.0376
48567SOL    HW257427  11.539   9.875   4.041 -1.2838  0.3680 -1.4409
48568SOL     OW57428   3.595   9.120  12.182 -0.1679  0.0662  0.3437
48568SOL    HW157429   3.551   9.048  12.228 -1.7927  1.2165  0.6554
48568SOL    HW257430   3.565   9.199  12.227  0.9478  1.0098 -0.5137
48569SOL     OW57431   0.645   4.119   8.333 -0.0690  0.1041  0.4969
48569SOL    HW157432   0.609   4.050   8.388 -1.2563  0.0499 -0.3319
48569SOL    HW257433   0.723   4.149   8.381  1.2571 -2.6699  0.2326
48570SOL     OW57434   0.072   1.249   8.798  0.3263  0.3478 -0.5296
48570SOL    HW157435   0.093   1.302   8.721 -2.1261  0.8639 -0.9127
48570SOL    HW257436   0.021   1.307   8.854 -0.7271 -1.0132 -0.0346
48571SOL     OW57437   8.428   8.540   3.253  0.1382  0.6503  0.3674
48571SOL    HW157438   8.389   8.499   3.330 -0.0245 -1.1153 -0.6051
48571SOL    HW257439   8.419   8.475   3.183  2.8601  0.9987 -0.4542
48572SOL     OW57440   4.660   2.447   7.081 -0.4915  0.4886 -0.0770
48572SOL    HW157441   4.603   2.493   7.142 -1.1656  0.2493 -0.5178
48572SOL    HW257442   4.610   2.442   6.999  0.2024  0.3811 -0.5087
48573SOL     OW57443  11.905   8.785   1.244  0.3558  0.1605  0.3107
48573SOL    HW157444  11.989   8.743   1.224  0.2692 -0.6616  1.5839
48573SOL    HW257445  11.910   8.870   1.200  2.6933  0.9719  1.9288
48574SOL     OW57446   8.029   8.627   3.705  0.1783 -0.5733 -0.0440
48574SOL    HW157447   8.067   8.705   3.664 -0.5133 -0.3637 -0.3107
48574SOL    HW257448   8.064   8.554   3.654 -2.5829 -0.2251 -2.7607
48575SOL     OW57449   4.215   1.204   3.520  0.2266  0.0042 -0.0810
48575SOL    HW157450   4.254   1.285   3.554  2.0682 -0.2130 -1.5107
48575SOL    HW257451   4.284   1.166   3.465 -1.5254 -1.2032 -1.5434
48576SOL     OW57452   0.325  11.876  11.926 -0.2761  0.1935 -0.3581
48576SOL    HW157453   0.348  11.850  11.837 -0.7142  0.7409 -0.6363
48576SOL    HW257454   0.229  11.873  11.928 -0.2913 -2.6578  0.9631
48577SOL     OW57455   0.226   0.285   4.577 -0.2436 -0.2954 -0.2207
48577SOL    HW157456   0.183   0.355   4.625  1.0819  0.1685  0.3253
48577SOL    HW257457   0.302   0.262   4.630 -0.0620 -1.4182 -0.9258
48578SOL     OW57458   8.696   6.323   8.746 -0.1544 -0.0024  0.5897
48578SOL    HW157459   8.694   6.250   8.808 -0.3216 -1.2448 -0.8110
48578SOL    HW257460   8.628   6.301   8.682 -0.3484  1.5032  0.2394
48579SOL     OW57461   7.417  12.084  13.227 -0.0364 -0.4013 -0.2730
48579SOL    HW157462   7.343  12.037  13.187 -0.9115 -0.1150  0.9541
48579SOL    HW257463   7.492  12.025  13.215 -0.5637 -0.9376 -1.0658
48580SOL     OW57464   3.164   5.273  12.647  0.3226  0.6411  0.5802
48580SOL    HW157465   3.113   5.201  12.683  1.2376 -0.2202  0.2140
48580SOL    HW257466   3.188   5.243  12.559  2.9172  0.2160  1.3418
48581SOL     OW57467   4.062   2.139   4.694  0.1760  0.0312 -0.0087
48581SOL    HW157468   4.070   2.232   4.717 -0.4238  0.4925 -1.5372
48581SOL    HW257469   3.998   2.137   4.623 -1.6662 -1.8281  1.5552
48582SOL     OW57470  12.710   9.472   3.940  0.9550 -0.3623 -0.2764
48582SOL    HW157471  12.792   9.516   3.920  0.0572  1.1615 -0.8303
48582SOL    HW257472  12.655   9.541   3.978  0.3853 -1.6748  1.4001
48583SOL     OW57473   2.452   4.709   9.393 -0.4065 -0.3085  0.2258
48583SOL    HW157474   2.534   4.745   9.357  0.1194 -1.3134  0.3687
48583SOL    HW257475   2.393   4.784   9.398  0.4454  0.4038 -0.0615
48584SOL     OW57476   7.474  13.275   1.436 -0.2584 -0.1803 -0.3670
48584SOL    HW157477   7.422  13.332   1.492  0.2075 -0.9489  0.8823
48584SOL    HW257478   7.550  13.329   1.411  0.2694 -0.2810  0.9450
48585SOL     OW57479   9.239  12.385  13.087  0.3020 -0.1272  0.3438
48585SOL    HW157480   9.239  12.311  13.148  0.5109  0.0224  0.5252
48585SOL    HW257481   9.268  12.460  13.139 -0.2955  0.1666  0.2554
48586SOL     OW57482   0.487  11.531   1.229  0.0007 -0.0935 -0.7499
48586SOL    HW157483   0.437  11.532   1.311  0.1724 -0.0702 -0.6455
48586SOL    HW257484   0.500  11.439   1.210 -0.9825 -0.1222 -1.3280
48587SOL     OW57485  11.742   7.938   9.783 -0.0144  0.3458  0.3827
48587SOL    HW157486  11.709   8.007   9.840 -1.1838 -0.4039  0.6492
48587SOL    HW257487  11.836   7.954   9.778 -0.1121  1.3188  1.2930
48588SOL     OW57488   4.183  13.635   8.505 -0.3347 -0.1395  0.3088
48588SOL    HW157489   4.131  13.708   8.472  1.7943 -0.0774 -3.4779
48588SOL    HW257490   4.124  13.560   8.500 -0.2587 -0.2152 -4.4983
48589SOL     OW57491   0.234  13.437  10.376  0.0422 -0.5940  0.1032
48589SOL    HW157492   0.247  13.458  10.284 -2.9926 -0.1183 -0.3314
48589SOL    HW257493   0.264  13.516  10.423 -0.5273  0.1031 -0.6744
48590SOL     OW57494   8.737   2.489   3.698  0.4311 -0.0925 -0.0216
48590SOL    HW157495   8.723   2.456   3.609  1.0700 -0.3670 -0.0231
48590SOL    HW257496   8.649   2.490   3.737  0.3256 -1.2718 -0.2030
48591SOL     OW57497  13.183  13.208   8.333 -0.2156 -0.1158  0.3146
48591SOL    HW157498  13.149  13.118   8.332 -2.3243  0.6289 -0.4121
48591SOL    HW257499  13.214  13.222   8.244  0.2657 -0.1559  0.4724
48592SOL     OW57500   6.977   4.529  13.185  0.4457  0.1729 -0.6325
48592SOL    HW157501   6.992   4.624  13.187 -2.0403  0.6354 -0.4706
48592SOL    HW257502   6.964   4.508  13.093 -2.3651  0.6880 -0.4386
48593SOL     OW57503  12.810   8.159   2.697 -0.0610  0.6233 -0.2990
48593SOL    HW157504  12.758   8.209   2.634  0.9893  1.5843 -0.4330
48593SOL    HW257505  12.884   8.216   2.718  1.9164 -1.3359 -1.4727
48594SOL     OW57506   3.242   6.808   4.910 -0.2669 -0.3930  0.0456
48594SOL    HW157507   3.245   6.874   4.841 -2.0378  0.2898  0.5615
48594SOL    HW257508   3.282   6.850   4.986  0.6647 -0.7438 -0.2421
48595SOL     OW57509   8.006   8.632  13.499 -0.1496 -0.3132  0.1111
48595SOL    HW157510   8.011   8.728  13.508 -0.6572 -0.4659  3.2399
48595SOL    HW257511   8.082   8.609  13.446  0.5947  1.7372  0.1800
48596SOL     OW57512   7.134   7.582   0.091 -0.4364 -0.4679  0.2596
48596SOL    HW157513   7.208   7.603   0.034  1.0271 -1.9239  1.5315
48596SOL    HW257514   7.096   7.667   0.115  2.2319  0.5025  1.3559
48597SOL     OW57515   2.887   7.714  11.317  0.5156 -0.1651 -0.1118
48597SOL    HW157516   2.964   7.717  11.260  1.5081  2.0872  1.2105
48597SOL    HW257517   2.922   7.683  11.401 -0.1794  0.1268  0.2870
48598SOL     OW57518   1.827  10.215   9.153  0.0443 -0.4418  0.3859
48598SOL    HW157519   1.854  10.239   9.242  1.2783 -0.3339  0.0078
48598SOL    HW257520   1.849  10.291   9.100 -1.6674 -0.0911  0.1291
48599SOL     OW57521  11.856   5.755   5.151  0.3265  0.0452 -0.3448
48599SOL    HW157522  11.817   5.823   5.205  1.2547  0.5182 -0.2465
48599SOL    HW257523  11.868   5.681   5.211 -0.0183  0.0437 -0.2752
48600SOL     OW57524   0.318   8.797   3.580  0.7156  0.3513  0.0848
48600SOL    HW157525   0.302   8.780   3.488  0.3826  1.4292 -0.0735
48600SOL    HW257526   0.386   8.734   3.605  1.6266  0.7858 -1.1868
48601SOL     OW57527   7.724   8.691  11.297 -0.2539  0.1790  0.3043
48601SOL    HW157528   7.788   8.750  11.257  2.0893 -1.1211  1.8746
48601SOL    HW257529   7.706   8.626  11.229 -0.1280  0.6971 -0.2385
48602SOL     OW57530  11.263   9.367   0.211 -0.4779 -0.1890  0.4592
48602SOL    HW157531  11.339   9.423   0.227 -1.9937  1.7038  1.5632
48602SOL    HW257532  11.261   9.356   0.116  0.6902  0.4412  0.3412
48603SOL     OW57533   6.042  10.929   0.381  0.2377 -0.1632  0.5412
48603SOL    HW157534   6.124  10.923   0.429  1.1941  1.2372 -0.8143
48603SOL    HW257535   5.976  10.943   0.448  1.5433  1.8567  1.5079
48604SOL     OW57536   3.429   2.507   0.448  0.2435 -0.4060 -0.2734
48604SOL    HW157537   3.462   2.449   0.379 -0.2326 -0.4173 -0.4935
48604SOL    HW257538   3.485   2.585   0.442  0.7036 -0.7195 -0.1616
48605SOL     OW57539   1.044   8.577  12.584 -0.7473 -0.9045 -0.2304
48605SOL    HW157540   1.027   8.574  12.679 -0.0144  0.0995 -0.0526
48605SOL    HW257541   1.058   8.669  12.565  1.8751 -1.3509 -0.8041
48606SOL     OW57542   0.395   6.018  12.433  0.7500  0.3871 -0.5496
48606SOL    HW157543   0.426   6.104  12.405  0.5396  1.1654  1.4807
48606SOL    HW257544   0.405   6.018  12.528 -2.5280 -0.4835 -0.0632
48607SOL     OW57545  10.055   8.616   3.838  0.1555 -0.5700 -0.0848
48607SOL    HW157546  10.044   8.589   3.746 -2.0338 -0.9625  0.2414
48607SOL    HW257547   9.973   8.590   3.880  0.2687  1.4775  1.5322
48608SOL     OW57548   5.999   5.243   2.833  0.4040 -0.7598  0.0158
48608SOL    HW157549   5.931   5.219   2.896 -0.6604 -1.7777 -1.4573
48608SOL    HW257550   5.974   5.331   2.804  0.4833 -0.5876  0.4585
48609SOL     OW57551   5.931  12.878  12.438  0.7963  0.2743  0.1752
48609SOL    HW157552   5.957  12.837  12.521  0.1240  2.7067  1.6586
48609SOL    HW257553   5.887  12.808  12.390  0.4513 -0.9966  2.2186
48610SOL     OW57554   3.419   8.995  11.936  0.1391 -0.6266 -0.7367
48610SOL    HW157555   3.449   8.910  11.904  1.6691 -0.2992 -0.2483
48610SOL    HW257556   3.388   8.978  12.025 -0.7149 -0.8760 -1.0685
48611SOL     OW57557  11.012   6.185   3.891  0.3021 -0.1240 -0.0637
48611SOL    HW157558  10.941   6.234   3.850  0.2193  1.2542  1.6124
48611SOL    HW257559  10.968   6.112   3.936  0.2305 -0.6776 -1.0034
48612SOL     OW57560   5.142   8.856  11.423  0.2360  0.2091 -0.4567
48612SOL    HW157561   5.226   8.902  11.422 -0.5338  1.6854 -1.8029
48612SOL    HW257562   5.126   8.833  11.331 -0.8393 -0.0533 -0.2177
48613SOL     OW57563   8.898   4.250   5.879  0.0070 -0.0663 -0.0261
48613SOL    HW157564   8.873   4.239   5.971 -0.4119  1.4311  0.0757
48613SOL    HW257565   8.843   4.188   5.832 -0.4664 -0.1818  0.6589
48614SOL     OW57566   0.001  11.246   8.382  0.0155  0.8774 -0.2665
48614SOL    HW157567  -0.022  11.288   8.465  1.1771 -1.3719  1.2844
48614SOL    HW257568  -0.077  11.196   8.358 -0.1088  1.0449 -0.2137
48615SOL     OW57569   2.847   2.732   3.077  0.1185 -0.1371 -0.4058
48615SOL    HW157570   2.798   2.658   3.113  1.5501 -1.0086 -0.1746
48615SOL    HW257571   2.935   2.721   3.111  0.5897  1.1703 -1.1330
48616SOL     OW57572   7.320   8.953   0.112  0.0758 -0.2303  0.3536
48616SOL    HW157573   7.332   8.866   0.073 -0.1902 -0.3136  0.4582
48616SOL    HW257574   7.287   9.007   0.041 -0.2368 -0.3371  0.4185
48617SOL     OW57575   7.110   0.367   1.567 -0.0403  0.1958  0.1060
48617SOL    HW157576   7.122   0.455   1.601 -1.1953  0.9773 -1.3954
48617SOL    HW257577   7.020   0.366   1.533  0.0769 -1.4449 -0.2522
48618SOL     OW57578   6.730   9.801   8.815  0.4476 -0.4111 -0.1273
48618SOL    HW157579   6.800   9.758   8.865 -0.8104 -0.1049  2.0113
48618SOL    HW257580   6.668   9.831   8.882 -1.5133 -0.2720 -1.9279
48619SOL     OW57581   0.513   4.480   0.816 -0.3530 -0.1214 -0.1251
48619SOL    HW157582   0.529   4.387   0.799  1.4800  0.4647 -1.9692
48619SOL    HW257583   0.598   4.514   0.846 -1.1554  0.8783  1.1576
48620SOL     OW57584   7.980  13.182   6.999  0.3585  0.0061  0.0656
48620SOL    HW157585   7.943  13.130   7.070  4.1229 -4.5209 -0.7799
48620SOL    HW257586   7.926  13.160   6.923  0.4530 -0.7839  0.2170
48621SOL     OW57587  12.808  10.781  11.570 -0.3260  0.1660 -0.0993
48621SOL    HW157588  12.779  10.690  11.570  2.3391 -0.7906 -0.7802
48621SOL    HW257589  12.846  10.794  11.483  0.6364  1.4640  0.4727
48622SOL     OW57590   2.411   5.021   1.497  0.4754 -0.1422 -1.0350
48622SOL    HW157591   2.501   5.005   1.467  1.2764  1.8503  0.1075
48622SOL    HW257592   2.418   5.025   1.593 -1.2281 -1.9917 -0.7800
48623SOL     OW57593   0.095   5.709   1.661 -0.4928 -0.7982  0.3408
48623SOL    HW157594   0.143   5.636   1.622 -0.9090 -0.6294 -0.5085
48623SOL    HW257595   0.004   5.682   1.658 -0.6340 -0.3195  0.1630
48624SOL     OW57596  10.018   3.114   8.166  0.1100  0.1641 -0.1902
48624SOL    HW157597   9.998   3.051   8.098  0.2261 -1.8111  1.5235
48624SOL    HW257598  10.089   3.168   8.130 -0.4853 -0.1949 -1.9485
48625SOL     OW57599   5.676   9.257   4.211 -0.2161  0.6500  0.2110
48625SOL    HW157600   5.646   9.177   4.167  0.6115  0.3900  0.1065
48625SOL    HW257601   5.610   9.273   4.278 -1.1160  0.6556 -0.6581
48626SOL     OW57602   1.323   6.506  10.866 -0.1964 -0.4664 -0.4951
48626SOL    HW157603   1.394   6.546  10.916  0.3798 -2.2172  0.1396
48626SOL    HW257604   1.336   6.538  10.776  1.6306 -1.0575 -0.4785
48627SOL     OW57605   7.448  12.294   5.510  0.0054  0.5180  0.6401
48627SOL    HW157606   7.393  12.261   5.440  0.3612  0.8967  0.1759
48627SOL    HW257607   7.409  12.378   5.534  0.0212  0.4979  0.7371
48628SOL     OW57608   1.932   4.005   5.290  0.2366 -0.2286 -0.4325
48628SOL    HW157609   1.929   4.049   5.375 -0.0262  2.2064 -1.5926
48628SOL    HW257610   2.025   4.004   5.267  0.1478  0.7964 -0.8859
48629SOL     OW57611  12.637   5.017   5.291  0.1972  0.0666 -0.0797
48629SOL    HW157612  12.607   5.078   5.224  2.5679 -0.9729 -2.2375
48629SOL    HW257613  12.592   4.935   5.270  0.7486 -0.1940 -0.2604
48630SOL     OW57614  13.610   1.343   9.955  0.1657 -0.3424  0.1845
48630SOL    HW157615  13.656   1.261   9.971  1.4209 -0.3525 -2.7777
48630SOL    HW257616  13.677   1.410   9.962  0.6835 -0.2838 -3.4310
48631SOL     OW57617   7.816   3.473  11.462  0.0479 -0.1549  0.5164
48631SOL    HW157618   7.898   3.445  11.422 -1.1476 -1.2824 -1.3566
48631SOL    HW257619   7.808   3.419  11.541  2.3783  1.9711  2.3335
48632SOL     OW57620   8.309   7.016   6.255  0.6355  0.2714  0.0281
48632SOL    HW157621   8.235   7.077   6.246 -0.5368 -0.8766  1.3517
48632SOL    HW257622   8.348   7.012   6.168 -0.1013  1.8432 -0.4095
48633SOL     OW57623   9.497   0.269   5.813 -0.0159 -0.5242  0.5735
48633SOL    HW157624   9.558   0.217   5.866  0.0963 -0.1648  0.8016
48633SOL    HW257625   9.421   0.212   5.802  0.4188 -1.0437  0.1445
48634SOL     OW57626  12.048   4.854   5.705  0.4416 -0.2846  0.0890
48634SOL    HW157627  12.116   4.789   5.690  0.4212 -0.0686 -0.9728
48634SOL    HW257628  11.972   4.822   5.656  0.2637  0.2714 -0.0071
48635SOL     OW57629   2.865   4.130   3.919 -0.0807  0.0718  0.2693
48635SOL    HW157630   2.933   4.182   3.961  1.3543 -0.1316 -1.6454
48635SOL    HW257631   2.887   4.039   3.940 -0.2856  0.0443  0.3712
48636SOL     OW57632  11.206   1.577   3.155  0.0688 -0.2940 -0.4681
48636SOL    HW157633  11.146   1.583   3.081 -0.9096  2.3514  0.4178
48636SOL    HW257634  11.287   1.616   3.124  0.3888 -1.1385 -0.7427
48637SOL     OW57635  13.104   7.440   7.898  0.5021  0.0162 -0.1718
48637SOL    HW157636  13.120   7.534   7.900 -1.6448  0.4162  1.5714
48637SOL    HW257637  13.186   7.402   7.865  1.5524  2.4279 -0.5152
48638SOL     OW57638   2.110  11.934  13.228 -0.8410 -0.2367 -0.8074
48638SOL    HW157639   2.086  11.847  13.197 -1.6310 -0.1309 -0.5038
48638SOL    HW257640   2.026  11.977  13.247 -0.4535  0.5163 -0.7600
48639SOL     OW57641  10.482   6.833  11.015  0.4862 -0.0533  0.1787
48639SOL    HW157642  10.570   6.860  10.990  0.1780  1.6831  0.8305
48639SOL    HW257643  10.448   6.906  11.067 -2.4006  0.6548 -2.3943
48640SOL     OW57644   1.796  10.758  10.966 -0.1818  0.4340  0.0405
48640SOL    HW157645   1.878  10.787  11.008 -0.0514 -1.2082  0.9967
48640SOL    HW257646   1.730  10.766  11.035 -0.1407 -1.4557  0.3460
48641SOL     OW57647   9.858  11.859   9.065 -0.1891  0.2024 -0.4204
48641SOL    HW157648   9.886  11.845   8.974 -1.7160 -0.2374 -0.8634
48641SOL    HW257649   9.793  11.929   9.059 -0.3557  0.1160  0.3215
48642SOL     OW57650   0.115   9.102   6.318 -0.0006 -0.3036  0.1987
48642SOL    HW157651   0.200   9.057   6.318  0.3465  0.3409  0.2250
48642SOL    HW257652   0.137   9.195   6.311 -0.7104 -0.1360  0.1054
48643SOL     OW57653   1.275   3.806   2.266 -0.2448  0.4928 -0.8688
48643SOL    HW157654   1.359   3.770   2.239 -0.2210  0.8391 -1.2590
48643SOL    HW257655   1.239   3.740   2.326  0.3458  0.3908 -0.6179
48644SOL     OW57656   9.625   9.587   6.338 -0.2516  0.2670  0.1535
48644SOL    HW157657   9.557   9.528   6.303 -0.8559  0.1844  1.4340
48644SOL    HW257658   9.707   9.552   6.301 -0.7342 -0.5668 -0.1749
48645SOL     OW57659   7.151   7.250  12.041 -0.1510 -0.3111 -0.5600
48645SOL    HW157660   7.186   7.295  11.965 -0.2385  0.4770 -0.1483
48645SOL    HW257661   7.069   7.295  12.060  0.8270  0.8475  1.1982
48646SOL     OW57662   8.438  12.974   5.379  0.3830 -0.1694 -0.6858
48646SOL    HW157663   8.488  12.897   5.407  0.3543  0.4805  1.3663
48646SOL    HW257664   8.349  12.956   5.410  0.0721  0.1236 -1.3918
48647SOL     OW57665  11.388  11.391  12.021 -0.0361  0.8754 -0.0890
48647SOL    HW157666  11.481  11.399  12.002 -0.3319  2.1795 -1.2308
48647SOL    HW257667  11.362  11.308  11.981  0.7705  0.1211  0.9211
48648SOL     OW57668   4.612   9.070   2.195  0.6221  0.7424  0.6471
48648SOL    HW157669   4.577   9.157   2.211 -0.8813  0.1588  0.7676
48648SOL    HW257670   4.535   9.018   2.169  1.3712 -0.6925  1.1845
48649SOL     OW57671   0.591  11.550   7.858 -0.1577 -0.5431 -0.2553
48649SOL    HW157672   0.639  11.613   7.912  1.7763 -2.8403  0.8938
48649SOL    HW257673   0.531  11.506   7.919 -1.7655  0.3402 -1.1194
48650SOL     OW57674   3.061   7.834   3.548 -0.0292 -0.3371  0.1876
48650SOL    HW157675   3.076   7.770   3.618 -0.2429 -0.5830  0.0098
48650SOL    HW257676   2.970   7.862   3.560  0.7114  1.6272  1.6561
48651SOL     OW57677   3.734   0.379   4.565  0.2145  0.0645 -0.1974
48651SOL    HW157678   3.710   0.429   4.643  0.5751 -1.0338  0.6307
48651SOL    HW257679   3.715   0.288   4.587  0.4058 -0.2778 -1.3625
48652SOL     OW57680   8.543   2.023  13.077 -0.1124  0.3843  0.1912
48652SOL    HW157681   8.546   2.085  13.149 -1.6744  0.7067  0.0311
48652SOL    HW257682   8.615   2.048  13.020 -0.6236  1.9866  0.2094
48653SOL     OW57683   5.673   8.053   4.977 -0.0436  0.6894  0.1523
48653SOL    HW157684   5.586   8.073   5.011 -0.1138 -0.8815  0.9898
48653SOL    HW257685   5.657   8.021   4.888 -0.2101  1.3827 -0.0729
48654SOL     OW57686   7.769   2.879   5.607 -0.3571 -0.3570  0.6461
48654SOL    HW157687   7.735   2.898   5.694 -1.3780 -1.4114  0.5040
48654SOL    HW257688   7.704   2.820   5.568  0.4282 -0.4613 -0.5685
48655SOL     OW57689   4.315   2.044   7.068 -0.9838 -0.6398 -0.0948
48655SOL    HW157690   4.335   1.951   7.082  0.3717 -0.9224 -3.1025
48655SOL    HW257691   4.274   2.046   6.981  0.6089  1.6930 -0.8820
48656SOL     OW57692   5.497  10.693  11.645  0.1773  0.2215 -0.2940
48656SOL    HW157693   5.412  10.655  11.667 -0.4034  1.7727  0.2654
48656SOL    HW257694   5.500  10.691  11.549 -0.3084 -0.2077 -0.3034
48657SOL     OW57695   0.014  10.376   5.129 -0.2924 -0.1786 -0.1022
48657SOL    HW157696   0.086  10.322   5.095  1.0831  0.8047  1.1170
48657SOL    HW257697  -0.009  10.433   5.056 -0.0607 -0.7175 -0.6093
48658SOL     OW57698  12.110   5.827   3.692  0.0204 -0.3357 -0.0054
48658SOL    HW157699  12.041   5.783   3.643  0.7453  0.1256 -1.5086
48658SOL    HW257700  12.069   5.854   3.774 -1.1639 -1.3561 -0.2381
48659SOL     OW57701   6.048   5.282  10.676 -0.2886 -0.0387 -0.1288
48659SOL    HW157702   6.087   5.199  10.706  2.7638  0.9016 -1.0819
48659SOL    HW257703   6.023   5.265  10.585  1.1146  0.2492 -0.5967
48660SOL     OW57704  11.198  11.282   9.674  0.0522  0.1294  0.0447
48660SOL    HW157705  11.203  11.352   9.609  0.2062 -0.1578 -0.2587
48660SOL    HW257706  11.127  11.226   9.642 -1.7863  1.4379  1.5828
48661SOL     OW57707   3.030  13.003   0.844 -0.1884  0.5071 -0.0832
48661SOL    HW157708   3.009  12.910   0.853 -0.4440  0.3212 -2.1957
48661SOL    HW257709   3.119  13.011   0.878 -0.2829 -0.4344  0.4177
48662SOL     OW57710  13.074   6.294   7.402 -0.2284 -0.4158  0.2988
48662SOL    HW157711  13.110   6.321   7.487  0.4744  0.6738 -0.3330
48662SOL    HW257712  13.144   6.242   7.362 -0.2256 -0.1913  0.0130
48663SOL     OW57713   8.599   3.385   7.116  1.1083  0.2025 -0.4034
48663SOL    HW157714   8.660   3.428   7.176  0.3071  1.0340 -0.1624
48663SOL    HW257715   8.585   3.449   7.046  0.5331  0.0149 -0.4648
48664SOL     OW57716   0.894   9.379   0.277 -0.4485 -0.7067  0.1192
48664SOL    HW157717   0.833   9.307   0.295  0.6643 -1.4084  1.2164
48664SOL    HW257718   0.944   9.349   0.201 -0.3035 -0.8939  0.2870
48665SOL     OW57719   5.565   4.980   6.783 -0.4989 -0.0869 -0.1051
48665SOL    HW157720   5.535   5.071   6.793  1.2627  0.5542 -0.1981
48665SOL    HW257721   5.485   4.929   6.779 -1.5401  1.3288  1.1350
48666SOL     OW57722  12.174  13.507   5.575 -0.4438 -0.2866 -0.1269
48666SOL    HW157723  12.245  13.531   5.634 -1.7108  1.1709  0.8952
48666SOL    HW257724  12.161  13.584   5.520 -1.1130 -0.5899 -0.4085
48667SOL     OW57725   3.659  11.434  12.911 -0.3484  0.5948  0.6123
48667SOL    HW157726   3.735  11.387  12.946 -0.1431  0.7871  0.4234
48667SOL    HW257727   3.660  11.415  12.817 -1.2177 -0.3793  0.7761
48668SOL     OW57728   9.234  11.438   1.647 -0.0921 -0.6067 -0.0309
48668SOL    HW157729   9.179  11.449   1.570  0.1359  0.4058 -0.0579
48668SOL    HW257730   9.319  11.475   1.623 -0.4596  1.1529  1.1806
48669SOL     OW57731   0.493   2.132   8.591 -0.3199  0.2550 -0.2305
48669SOL    HW157732   0.484   2.079   8.670 -1.0030  0.5779 -0.0867
48669SOL    HW257733   0.494   2.223   8.623  2.2728  0.3435 -0.3203
48670SOL     OW57734   8.195   6.599   0.139  0.2619  0.1023 -0.1866
48670SOL    HW157735   8.219   6.642   0.221 -0.5831  2.1732 -0.9410
48670SOL    HW257736   8.253   6.523   0.134  1.1600  0.5836  1.7371
48671SOL     OW57737   3.416   4.217   8.246  0.0130 -0.2500  0.0728
48671SOL    HW157738   3.408   4.276   8.171  0.3645 -1.1422 -0.6987
48671SOL    HW257739   3.338   4.234   8.299 -1.2927 -0.9734 -1.5230
48672SOL     OW57740   2.976   3.029   3.907  0.1862 -0.0815 -0.2635
48672SOL    HW157741   2.926   3.059   3.832 -0.6465 -1.4349 -0.2931
48672SOL    HW257742   2.969   2.933   3.903  0.5014 -0.1952  1.2737
48673SOL     OW57743   1.831   7.980   7.063 -0.2790 -0.5014 -0.2883
48673SOL    HW157744   1.899   8.046   7.078 -0.8350  0.1230 -0.4201
48673SOL    HW257745   1.877   7.904   7.030  0.3462 -0.0617 -0.4430
48674SOL     OW57746   9.656   8.272  12.620  0.4737  0.6179  0.1332
48674SOL    HW157747   9.614   8.228  12.693 -1.1197 -0.9193 -1.6019
48674SOL    HW257748   9.743   8.232  12.614 -0.9896 -2.7168 -1.5287
48675SOL     OW57749   3.469   3.679   8.727  0.8495  0.1560  0.2187
48675SOL    HW157750   3.536   3.654   8.663  0.0707  0.6264 -0.7992
48675SOL    HW257751   3.519   3.711   8.803  1.7764  0.5024 -0.5259
48676SOL     OW57752   4.573   4.763   6.111 -0.2534 -0.1680  0.0429
48676SOL    HW157753   4.664   4.740   6.091 -0.2177  0.9493 -1.2485
48676SOL    HW257754   4.545   4.697   6.174  2.3145  1.0463  2.7023
48677SOL     OW57755   5.653   9.602   1.442  0.0664 -0.8110  0.8608
48677SOL    HW157756   5.678   9.634   1.529 -1.0605  1.4799  0.4182
48677SOL    HW257757   5.655   9.507   1.450  0.9521 -0.6644  3.1051
48678SOL     OW57758  12.665   5.312   0.140 -0.2019  0.0436 -0.0900
48678SOL    HW157759  12.711   5.257   0.077 -1.3402 -1.0764 -0.0004
48678SOL    HW257760  12.576   5.320   0.104  0.0947  2.4081 -0.4372
48679SOL     OW57761   9.098   0.320   6.891 -0.0051 -0.3863  0.0678
48679SOL    HW157762   9.094   0.346   6.983 -0.8186  1.5735 -0.4841
48679SOL    HW257763   9.026   0.257   6.881 -1.2070  0.9060  0.3486
48680SOL     OW57764   9.085   3.062  13.542  0.1835 -0.2289 -0.4549
48680SOL    HW157765   9.140   3.136  13.517  0.8670 -0.8748 -0.8956
48680SOL    HW257766   9.005   3.103  13.576  1.0922  0.7363  0.6119
48681SOL     OW57767  11.474  13.645  12.526 -0.2322  0.2418 -0.1642
48681SOL    HW157768  11.533  13.707  12.482 -0.0911  0.7101  0.6579
48681SOL    HW257769  11.411  13.701  12.572 -1.3553 -0.2476 -1.0495
48682SOL     OW57770  11.748   2.639   7.003 -0.2891 -0.1113  0.0248
48682SOL    HW157771  11.702   2.607   7.081 -1.1567  0.8119 -0.0841
48682SOL    HW257772  11.677   2.656   6.940  0.3176  0.1635 -0.5918
48683SOL     OW57773   8.280   0.639  13.391 -0.1153  0.3682  0.2250
48683SOL    HW157774   8.270   0.573  13.322 -2.1707  1.2009 -0.3653
48683SOL    HW257775   8.374   0.645  13.406  0.1833 -2.3817  0.0257
48684SOL     OW57776  11.103  10.827  12.717 -0.4950 -0.5454 -0.9839
48684SOL    HW157777  11.042  10.779  12.660 -0.4936  0.5072 -1.9028
48684SOL    HW257778  11.185  10.828  12.668  0.5384 -2.6236  0.5870
48685SOL     OW57779  12.116   7.716   6.237  0.4339  0.2841 -0.0098
48685SOL    HW157780  12.100   7.651   6.306  1.1680  0.3397  0.2248
48685SOL    HW257781  12.043   7.777   6.244  0.5422  0.3381  0.7812
48686SOL     OW57782   8.660  10.100   2.351 -0.0214 -0.2765 -0.0615
48686SOL    HW157783   8.632  10.180   2.307  0.1186 -0.5515 -0.6640
48686SOL    HW257784   8.633  10.112   2.442  0.0289  0.4656 -0.1406
48687SOL     OW57785  13.651   0.263   8.923  0.0383  0.1876 -0.1979
48687SOL    HW157786  13.627   0.329   8.988  1.2754 -0.3902  0.8868
48687SOL    HW257787  13.594   0.188   8.943 -1.1987  0.8044 -1.2790
48688SOL     OW57788   4.202   3.649  10.376  0.5332 -0.8169 -0.2845
48688SOL    HW157789   4.209   3.677  10.285  0.3335 -0.9816 -0.3513
48688SOL    HW257790   4.124   3.692  10.409  0.4846 -0.9263 -0.2548
48689SOL     OW57791  10.880  13.345  13.505 -0.2446 -0.3087 -0.1965
48689SOL    HW157792  10.847  13.323  13.592 -0.3355 -2.7102 -0.7622
48689SOL    HW257793  10.975  13.343  13.514 -0.2532 -0.6818 -0.1653
48690SOL     OW57794  10.914   0.347   3.912  0.1837 -0.5827 -0.1710
48690SOL    HW157795  10.846   0.315   3.853 -0.8785 -0.4825  0.9553
48690SOL    HW257796  10.942   0.430   3.875 -0.1051 -0.7665 -0.7964
48691SOL     OW57797   5.939  11.143   1.343  1.3931 -0.4051  0.1461
48691SOL    HW157798   5.940  11.073   1.408  0.0588  0.0783  0.7067
48691SOL    HW257799   5.850  11.143   1.307  1.8916 -0.1806 -1.1610
48692SOL     OW57800   3.470   7.302   4.259  0.3773 -0.3187  0.5092
48692SOL    HW157801   3.520   7.264   4.188 -1.5420 -1.3067 -0.3977
48692SOL    HW257802   3.388   7.330   4.218 -0.7344 -0.8063  2.2948
48693SOL     OW57803   0.107   8.676   4.563 -0.8289  0.4834  0.0870
48693SOL    HW157804   0.171   8.721   4.618 -0.0109  0.1124 -0.5413
48693SOL    HW257805   0.063   8.615   4.622  0.7578 -0.6635  0.1589
48694SOL     OW57806  12.897   2.089   2.551  0.0491  0.1878  0.0106
48694SOL    HW157807  12.984   2.057   2.577 -0.0892 -0.4831 -0.3373
48694SOL    HW257808  12.915   2.175   2.513  0.7325 -0.4140 -1.1119
48695SOL     OW57809   0.376   4.021   5.959  0.2527  0.4573  0.4343
48695SOL    HW157810   0.398   3.930   5.980  0.2526  0.0064 -1.3183
48695SOL    HW257811   0.453   4.071   5.985  1.3576 -0.4282 -0.9682
48696SOL     OW57812   2.177   1.752   0.367  0.1035 -0.4574  0.6502
48696SOL    HW157813   2.231   1.707   0.302  2.3333  2.4492  0.3007
48696SOL    HW257814   2.204   1.715   0.451 -1.2201 -2.6674  0.2000
48697SOL     OW57815   5.172   8.766   9.049 -0.4353  0.0178 -0.0747
48697SOL    HW157816   5.123   8.788   9.128 -2.0111 -1.8614 -0.4506
48697SOL    HW257817   5.105   8.753   8.982  0.7640 -0.1304 -1.2942
48698SOL     OW57818   2.958   1.139  12.823 -0.1439  0.2981  0.8018
48698SOL    HW157819   2.898   1.199  12.779 -0.0874  1.3092  2.0731
48698SOL    HW257820   3.043   1.154  12.780 -0.6341 -0.7844 -0.6595
48699SOL     OW57821  12.282   6.082   5.779 -0.3513  0.2373 -0.1336
48699SOL    HW157822  12.306   6.107   5.868 -2.4898  0.6556  0.3731
48699SOL    HW257823  12.315   5.993   5.769  1.2883  0.7397  0.4879
48700SOL     OW57824   0.724   6.672   2.349 -0.2487  0.4093 -0.3158
48700SOL    HW157825   0.706   6.664   2.256 -1.4199 -1.3182  0.0238
48700SOL    HW257826   0.785   6.601   2.369 -1.7766 -0.6997  0.6198
48701SOL     OW57827   7.691   3.952   7.386 -0.4287 -0.1672  0.7889
48701SOL    HW157828   7.740   3.975   7.465  0.6690 -0.4917  0.2338
48701SOL    HW257829   7.739   3.877   7.350  0.0706  0.9598 -1.0448
48702SOL     OW57830   1.328   8.669   9.581 -0.2211 -0.2958  0.2346
48702SOL    HW157831   1.362   8.673   9.670 -0.7254  0.2306  0.4045
48702SOL    HW257832   1.292   8.756   9.565  0.2899 -0.2325 -0.6516
48703SOL     OW57833   4.048   3.157   4.237  0.3118  0.0622 -0.0214
48703SOL    HW157834   4.094   3.238   4.216 -0.5506  0.1544 -1.7698
48703SOL    HW257835   4.015   3.126   4.153 -0.6710 -1.3172  0.8274
48704SOL     OW57836  12.136   0.394   5.108  0.1830  0.2899  0.2946
48704SOL    HW157837  12.106   0.448   5.181 -0.1581  0.4043  0.0708
48704SOL    HW257838  12.074   0.413   5.037 -0.6678 -1.2623  0.5714
48705SOL     OW57839  12.404   7.034  12.286  0.2153  0.6900  0.7207
48705SOL    HW157840  12.339   7.017  12.354 -0.6714 -0.0952 -0.2960
48705SOL    HW257841  12.481   6.984  12.314 -0.2952  0.0037  0.9317
48706SOL     OW57842   7.202   1.460   7.085 -0.2904  0.1178  0.2649
48706SOL    HW157843   7.201   1.522   7.159 -1.5813 -1.6807  1.8512
48706SOL    HW257844   7.110   1.444   7.066  0.0023 -1.7647  0.2957
48707SOL     OW57845  12.790  10.257   3.805  0.1694 -0.1686 -0.3991
48707SOL    HW157846  12.755  10.207   3.879 -0.4236 -2.1315 -1.9043
48707SOL    HW257847  12.876  10.218   3.788  0.0238 -0.1816 -1.1422
48708SOL     OW57848   1.032   1.389  11.874 -0.3565  0.1967  0.3246
48708SOL    HW157849   1.066   1.350  11.794 -0.5287 -1.3617  0.9906
48708SOL    HW257850   0.963   1.330  11.902  0.4493  0.1112  2.2416
48709SOL     OW57851   6.342  10.024  12.147  0.1376 -0.1060  0.2172
48709SOL    HW157852   6.301  10.107  12.122  0.5948  0.6179  1.7699
48709SOL    HW257853   6.413  10.012  12.084  1.6637  1.9883  1.3858
48710SOL     OW57854   4.139   9.138  13.135 -0.0415 -0.1765 -0.5217
48710SOL    HW157855   4.154   9.048  13.107 -1.3224 -0.4237 -0.4937
48710SOL    HW257856   4.044   9.143  13.152 -0.5561  1.9272 -3.2542
48711SOL     OW57857   0.294   0.018   8.141 -0.2901 -0.3815  0.0973
48711SOL    HW157858   0.362  -0.023   8.087  0.0872 -0.3462  0.5353
48711SOL    HW257859   0.300  -0.028   8.225 -1.7359 -1.3378 -0.2716
48712SOL     OW57860   3.023   4.352  11.404  0.1839 -0.4080 -0.2762
48712SOL    HW157861   3.119   4.355  11.404  0.1920 -0.5439 -0.7641
48712SOL    HW257862   2.997   4.414  11.336 -0.0088 -1.7944 -1.5292
48713SOL     OW57863   4.225  11.502   0.001  0.3800 -0.1052  0.0416
48713SOL    HW157864   4.191  11.583  -0.036  0.6267  0.7321  1.5844
48713SOL    HW257865   4.319  11.504  -0.018  0.4853  0.2643  0.5750
48714SOL     OW57866   0.377  12.959   0.990  0.0952  0.0914  0.0604
48714SOL    HW157867   0.325  13.039   0.982 -0.0327 -0.0905 -1.1496
48714SOL    HW257868   0.368  12.916   0.905 -0.0673 -1.3612  0.7809
48715SOL     OW57869   0.191   4.360  13.627 -0.0205 -0.2665 -0.2641
48715SOL    HW157870   0.127   4.338  13.559  1.7253 -1.8338 -1.4939
48715SOL    HW257871   0.138   4.391  13.701 -2.0270  0.6770 -2.0122
48716SOL     OW57872   5.759  10.752   9.405 -0.1891 -0.2126  0.4695
48716SOL    HW157873   5.668  10.780   9.407  0.1199  0.8655  0.3576
48716SOL    HW257874   5.774  10.711   9.490 -0.5889  0.2629  0.7759
48717SOL     OW57875   0.553   8.343  10.128 -0.1115  0.0338 -0.2649
48717SOL    HW157876   0.595   8.418  10.169 -0.5747  0.4141 -0.4830
48717SOL    HW257877   0.617   8.310  10.065 -0.8003  1.7355 -1.9414
48718SOL     OW57878   7.414   5.040   6.809 -0.6067  0.4726 -0.6613
48718SOL    HW157879   7.506   5.041   6.781 -0.7878  0.0951 -1.2938
48718SOL    HW257880   7.399   5.127   6.845  0.8314 -0.3409  2.2556
48719SOL     OW57881   0.738  10.416  13.147 -0.5497  0.1106 -0.1246
48719SOL    HW157882   0.765  10.435  13.237 -0.6157  0.3811 -0.1596
48719SOL    HW257883   0.726  10.321  13.144 -0.2143  0.0649  0.0581
48720SOL     OW57884   0.092  12.818   9.616 -0.3236  0.6621  0.1367
48720SOL    HW157885   0.152  12.887   9.588  1.2370 -0.8434 -0.4433
48720SOL    HW257886   0.081  12.832   9.710  2.0870  0.2143  0.5482
48721SOL     OW57887   7.024   1.782   4.282  0.1963 -0.2417  0.2119
48721SOL    HW157888   6.973   1.701   4.274  0.9872 -0.7112 -0.2987
48721SOL    HW257889   6.963   1.852   4.259  0.5191 -1.0020 -3.5848
48722SOL     OW57890  10.950  13.007   1.765 -0.0429  0.4250 -0.1369
48722SOL    HW157891  10.891  13.074   1.799 -0.5692 -0.3203  0.4796
48722SOL    HW257892  10.989  13.046   1.687  2.8048  3.0487  2.3749
48723SOL     OW57893   5.941   4.659   4.097 -0.1743  0.3965  0.2180
48723SOL    HW157894   6.025   4.641   4.057 -0.7526  0.6758 -1.1669
48723SOL    HW257895   5.919   4.748   4.067 -1.5271 -0.1522 -0.4809
48724SOL     OW57896   6.186  10.717   2.163 -0.1744  0.2500  0.1720
48724SOL    HW157897   6.121  10.768   2.212  0.3036  0.1440  0.9323
48724SOL    HW257898   6.262  10.775   2.155  0.7739 -0.6609  1.9699
48725SOL     OW57899  11.636  13.465  13.176  0.1896 -0.0499 -0.3325
48725SOL    HW157900  11.707  13.455  13.112  1.5052  0.7303  0.9498
48725SOL    HW257901  11.619  13.559  13.178 -1.4906 -0.2971 -1.2114
48726SOL     OW57902   9.164  11.267  11.520  0.7966 -0.2110  0.2632
48726SOL    HW157903   9.208  11.232  11.442  0.2612  1.9922 -1.1084
48726SOL    HW257904   9.091  11.208  11.535  0.9488 -0.7083 -0.8600
48727SOL     OW57905   1.679   8.799   3.140  0.2158  0.4966  0.6282
48727SOL    HW157906   1.635   8.736   3.199 -0.7300 -0.6442 -1.2030
48727SOL    HW257907   1.767   8.764   3.129 -0.1280 -0.2221  0.0719
48728SOL     OW57908   3.964  13.188  10.802 -0.3179 -0.6748  0.7184
48728SOL    HW157909   3.921  13.103  10.794 -0.6239 -0.6223  1.6582
48728SOL    HW257910   4.015  13.181  10.883  3.1994 -1.4993 -1.3183
48729SOL     OW57911   4.255  13.252   8.839 -0.0810 -0.6785  0.3533
48729SOL    HW157912   4.249  13.341   8.803 -1.9445 -0.9560 -0.1173
48729SOL    HW257913   4.334  13.215   8.799 -0.5975 -0.0414 -1.3319
48730SOL     OW57914   9.580   6.569   4.809 -0.4343 -0.1438  0.5457
48730SOL    HW157915   9.627   6.624   4.748  1.2353 -1.2727  0.7628
48730SOL    HW257916   9.490   6.604   4.808 -0.2377  0.4677 -1.7759
48731SOL     OW57917  11.769  11.657   6.097  0.0821 -0.5899 -0.3736
48731SOL    HW157918  11.792  11.676   6.006  0.0331  0.6181 -0.1592
48731SOL    HW257919  11.853  11.645   6.141  0.1253 -0.7169 -0.4920
48732SOL     OW57920   3.312   7.774   6.797 -0.2229  0.4943 -0.2465
48732SOL    HW157921   3.224   7.783   6.835  0.4188 -0.5046  1.5824
48732SOL    HW257922   3.350   7.699   6.842  1.1565  0.1327 -1.8867
48733SOL     OW57923   1.653   9.777   2.730 -0.1130 -0.0034  0.5633
48733SOL    HW157924   1.650   9.685   2.757 -1.5240 -0.5149 -1.1437
48733SOL    HW257925   1.727   9.782   2.670 -0.6024 -0.2714 -0.0774
48734SOL     OW57926   9.007   9.227   0.183 -0.0922 -0.0462 -0.1455
48734SOL    HW157927   9.032   9.147   0.229  0.9162 -0.7162 -1.7733
48734SOL    HW257928   8.997   9.200   0.092  0.6932  1.7442 -0.8145
48735SOL     OW57929   6.030   1.304   2.280  0.2724 -0.5268 -0.1940
48735SOL    HW157930   5.971   1.336   2.348  0.1779 -0.3454 -0.3591
48735SOL    HW257931   5.976   1.248   2.224  0.1737 -0.1090 -0.5275
48736SOL     OW57932   7.619   4.628   0.304 -0.0107  0.0474  0.3040
48736SOL    HW157933   7.651   4.717   0.314 -1.5857  0.7671 -0.6528
48736SOL    HW257934   7.541   4.636   0.250 -0.2131 -1.9186  0.2036
48737SOL     OW57935   6.758   6.292   8.699 -0.8304  0.3932 -0.4846
48737SOL    HW157936   6.786   6.352   8.630 -0.1883  0.7917  0.1144
48737SOL    HW257937   6.736   6.211   8.653 -0.4061  0.6538 -1.1543
48738SOL     OW57938   1.627  10.306   6.115  0.2344  0.0713  0.3348
48738SOL    HW157939   1.614  10.401   6.112  1.3525  0.2847  1.3651
48738SOL    HW257940   1.714  10.292   6.077 -0.4068 -0.6941 -0.9440
48739SOL     OW57941   4.726  11.977  10.204  0.3421 -0.1701 -0.4719
48739SOL    HW157942   4.667  12.010  10.272  1.7539  0.8860  0.3033
48739SOL    HW257943   4.685  12.003  10.121 -0.8604 -0.5129  0.0004
48740SOL     OW57944  11.936   0.916   8.530  0.5543 -0.3921  0.0682
48740SOL    HW157945  11.915   1.009   8.521 -1.3073 -0.9336 -2.3567
48740SOL    HW257946  11.867   0.881   8.586  0.1228 -0.5984 -0.5711
48741SOL     OW57947   2.975   7.450   6.694 -0.6522 -0.1216  0.1827
48741SOL    HW157948   2.966   7.377   6.633 -0.1666  0.3643 -0.4860
48741SOL    HW257949   2.890   7.455   6.739 -0.2264 -2.0528  1.3529
48742SOL     OW57950   5.499   9.652  12.075 -0.3540  0.2340  0.0297
48742SOL    HW157951   5.525   9.718  12.010  0.0727 -0.6591 -0.7306
48742SOL    HW257952   5.440   9.699  12.134 -1.3504  0.9086 -1.4306
48743SOL     OW57953  12.039   9.378   6.231 -0.3718 -0.4313 -0.2469
48743SOL    HW157954  11.984   9.447   6.268 -1.4316 -1.4993  0.2358
48743SOL    HW257955  11.977   9.313   6.199  0.6104 -1.2866 -0.4504
48744SOL     OW57956  10.194   9.243   0.958 -0.7225 -0.3050  0.1201
48744SOL    HW157957  10.159   9.248   1.046  1.8994  3.1492  1.2152
48744SOL    HW257958  10.199   9.334   0.929  0.6152 -1.1483 -2.6801
48745SOL     OW57959   9.876   7.574  12.106 -0.0664  0.5792 -0.4276
48745SOL    HW157960   9.926   7.496  12.084 -0.2671  0.6372 -1.1078
48745SOL    HW257961   9.920   7.645  12.060 -0.0128  0.8373  0.0145
48746SOL     OW57962   1.683   4.442  11.083 -0.4478  0.1832 -0.2264
48746SOL    HW157963   1.779   4.436  11.086 -0.5085 -0.6004  0.8343
48746SOL    HW257964   1.658   4.387  11.008  0.0126  2.0939 -1.8653
48747SOL     OW57965   7.335   4.641   6.216 -0.1858  0.1922  0.3515
48747SOL    HW157966   7.251   4.599   6.234 -0.8270  0.3754 -1.9092
48747SOL    HW257967   7.392   4.570   6.185 -1.2586  0.7371 -3.4334
48748SOL     OW57968   9.989   0.206  11.012  0.3416 -0.5243 -0.4256
48748SOL    HW157969  10.071   0.180  11.055 -0.7232 -0.9399  1.4667
48748SOL    HW257970   9.984   0.301  11.024 -0.5860 -0.7803  1.6962
48749SOL     OW57971   0.034  10.436   6.781 -0.6843 -0.4687  0.1804
48749SOL    HW157972   0.029  10.529   6.757 -0.1952 -0.4961 -0.0330
48749SOL    HW257973   0.018  10.389   6.700 -0.0517 -0.5658  0.1113
48750SOL     OW57974   6.339   4.230  11.074  0.6037 -0.0494 -0.2526
48750SOL    HW157975   6.349   4.216  11.168 -0.6583  0.5944  0.0038
48750SOL    HW257976   6.258   4.281  11.066  0.0259 -1.1439 -1.7703
48751SOL     OW57977  11.178   8.306  10.424  0.4112 -0.2086 -0.6778
48751SOL    HW157978  11.110   8.239  10.435 -0.1681  0.1985 -1.6865
48751SOL    HW257979  11.242   8.265  10.366  0.9542 -0.5119  0.1012
48752SOL     OW57980  12.867   6.478  12.221 -0.1553 -0.0655 -0.0797
48752SOL    HW157981  12.876   6.555  12.276  1.1667 -1.8609  2.3959
48752SOL    HW257982  12.782   6.442  12.245 -0.1070 -0.1921 -0.0997
48753SOL     OW57983   7.963   0.754   5.042 -0.1801  0.3700 -0.7413
48753SOL    HW157984   7.928   0.669   5.016 -1.1586  1.0401 -1.6949
48753SOL    HW257985   8.053   0.736   5.069 -0.9499 -1.2843  0.9833
48754SOL     OW57986  12.000   8.121   9.079  0.5551  0.3775 -0.4047
48754SOL    HW157987  12.032   8.100   9.167 -1.0167 -2.7044 -0.4313
48754SOL    HW257988  11.919   8.171   9.094  1.0812  1.1754 -0.1674
48755SOL     OW57989  10.945   3.075   8.999 -0.0886 -0.1811  0.4420
48755SOL    HW157990  10.890   3.067   8.921  1.3041 -0.4350 -0.5348
48755SOL    HW257991  10.931   2.993   9.046 -0.4070 -0.3233  0.1061
48756SOL     OW57992   4.454  13.377   0.772  0.0044 -1.2546  0.0465
48756SOL    HW157993   4.497  13.400   0.690  2.4101  2.8593  2.1663
48756SOL    HW257994   4.368  13.418   0.768  0.3658 -0.5166 -0.1916
48757SOL     OW57995  10.954   8.517   7.119  0.5080  0.1830  0.3498
48757SOL    HW157996  10.890   8.546   7.184 -0.9385  0.2856 -1.0458
48757SOL    HW257997  10.914   8.440   7.079  1.3963  0.0633 -0.3471
48758SOL     OW57998  13.210   4.809   5.718  0.1598 -0.2098  0.5258
48758SOL    HW157999  13.245   4.720   5.710 -0.3297 -0.3574 -0.0173
48758SOL    HW258000  13.287   4.865   5.712  0.4960 -0.5995  1.0668
48759SOL     OW58001  12.257   0.658   1.622  0.1668  0.0041  0.5427
48759SOL    HW158002  12.350   0.662   1.644  0.2152 -0.1496  0.3688
48759SOL    HW258003  12.253   0.598   1.547 -0.3625 -2.0166  2.1097
48760SOL     OW58004   5.114   6.012  12.980  0.3206  0.3210 -0.3089
48760SOL    HW158005   5.183   6.057  13.029 -1.7750  2.9301  0.5029
48760SOL    HW258006   5.151   5.997  12.894  2.0288  1.3525  0.2045
48761SOL     OW58007  11.595   8.954   5.003 -0.0274 -0.0608 -0.0422
48761SOL    HW158008  11.556   8.938   4.917  0.8257 -0.3682 -0.3775
48761SOL    HW258009  11.669   8.894   5.008 -1.7143 -2.1265  2.0649
48762SOL     OW58010  12.177   1.623   3.097  0.4058  0.0494 -0.0964
48762SOL    HW158011  12.134   1.671   3.168  0.3002 -2.7518  1.8600
48762SOL    HW258012  12.271   1.628   3.118  0.5198  0.4954 -0.6621
48763SOL     OW58013  10.043   8.429  12.547 -0.3559  0.4427  0.2533
48763SOL    HW158014  10.051   8.432  12.452  0.7298 -0.9776  0.2563
48763SOL    HW258015  10.103   8.496  12.579  1.2891 -0.8317 -0.0418
48764SOL     OW58016  13.482   6.628   2.234  0.1175  0.4804  0.2434
48764SOL    HW158017  13.518   6.693   2.174  0.9531  1.0659  1.3425
48764SOL    HW258018  13.547   6.558   2.235 -0.2542  0.1208 -0.0888
48765SOL     OW58019   6.994   4.391  12.944 -0.2575  0.3153 -0.0210
48765SOL    HW158020   7.027   4.302  12.932  0.9502  0.7703 -0.1620
48765SOL    HW258021   7.007   4.434  12.859  0.2544  0.9667  0.3760
48766SOL     OW58022  10.117  12.454  10.815  0.3278  0.0176  0.5653
48766SOL    HW158023  10.113  12.548  10.832  1.7642  0.2305 -0.1587
48766SOL    HW258024  10.037  12.419  10.854  0.7304  1.2557  2.6601
48767SOL     OW58025   4.932   1.768   1.692  0.3194  0.1524  0.3984
48767SOL    HW158026   4.914   1.843   1.635  0.1634 -0.6337 -0.6126
48767SOL    HW258027   4.857   1.710   1.678  1.4696 -1.1594 -0.4865
48768SOL     OW58028   9.852   1.863   3.686 -0.0783  0.0581  0.4346
48768SOL    HW158029   9.758   1.849   3.698 -0.0461 -0.3909  0.1629
48768SOL    HW258030   9.889   1.856   3.774 -0.0242 -1.8565  0.2960
48769SOL     OW58031   4.095  10.898   6.231  0.2937  0.6305  0.2279
48769SOL    HW158032   4.066  10.854   6.152 -0.0500 -0.1809  0.7978
48769SOL    HW258033   4.189  10.910   6.219  0.1472  1.0862 -0.5653
48770SOL     OW58034   0.637   1.915   2.153 -0.8009 -0.3598 -0.5715
48770SOL    HW158035   0.615   1.824   2.171  1.3620 -0.7349  0.4774
48770SOL    HW258036   0.603   1.963   2.229  1.5737 -0.9174  0.9658
48771SOL     OW58037   8.069   0.221   5.103  0.0499 -0.1228 -0.5988
48771SOL    HW158038   8.163   0.227   5.123  0.5381  0.0214 -2.7156
48771SOL    HW258039   8.045   0.309   5.074 -1.3755  0.5085  2.1754
48772SOL     OW58040   4.021   5.296   9.456 -0.1193  0.0747 -0.0590
48772SOL    HW158041   3.934   5.332   9.470 -0.4641 -0.0480 -1.7278
48772SOL    HW258042   4.078   5.372   9.449 -0.7144  0.3813 -2.7228
48773SOL     OW58043   0.705   7.545   4.484 -0.0802  0.0552  0.6822
48773SOL    HW158044   0.687   7.539   4.390 -0.4573 -4.9433  0.8173
48773SOL    HW258045   0.620   7.568   4.523 -0.0438  1.6298 -0.1012
48774SOL     OW58046   9.353  10.836  11.685  0.1189 -0.3398 -0.7992
48774SOL    HW158047   9.305  10.766  11.728  0.8606 -0.0767  0.5395
48774SOL    HW258048   9.294  10.869  11.617 -2.0817  0.7263  1.4816
48775SOL     OW58049   8.635  11.838   6.542 -0.1246  0.2497  0.0754
48775SOL    HW158050   8.543  11.852   6.516 -0.6985 -1.1081  1.2487
48775SOL    HW258051   8.685  11.888   6.478 -1.5412 -1.3293 -2.4310
48776SOL     OW58052   3.929   8.833   5.721  0.0465  0.2497 -0.1663
48776SOL    HW158053   4.022   8.843   5.700  0.3277  1.8230  1.5765
48776SOL    HW258054   3.925   8.837   5.816 -1.7067 -1.0335 -0.1360
48777SOL     OW58055  10.973   9.614   0.296  0.8077  0.3353  0.0182
48777SOL    HW158056  10.905   9.600   0.363 -0.5230 -0.6131 -1.4807
48777SOL    HW258057  11.024   9.688   0.331 -0.4500  0.5349  1.6049
48778SOL     OW58058   9.075   3.600  11.799  0.3109 -0.0625 -0.0984
48778SOL    HW158059   9.112   3.541  11.865 -1.9698 -1.6915 -0.1648
48778SOL    HW258060   9.074   3.549  11.718 -0.8295  0.3881 -0.3891
48779SOL     OW58061  10.221   3.812   8.963 -0.5151  0.8827 -0.5746
48779SOL    HW158062  10.189   3.870   8.894  0.5056  1.7657 -0.3391
48779SOL    HW258063  10.307   3.848   8.986 -0.4779  0.1053  0.5752
48780SOL     OW58064  12.633   3.553   9.547 -0.6442  0.0250 -0.3776
48780SOL    HW158065  12.617   3.611   9.473  0.7465  0.0212 -0.7023
48780SOL    HW258066  12.679   3.607   9.611 -0.8542 -0.2666  0.0249
48781SOL     OW58067   9.454   8.985   4.098  0.1699 -0.0953  0.1197
48781SOL    HW158068   9.465   8.910   4.158 -0.1611  0.1921  0.5426
48781SOL    HW258069   9.363   9.012   4.110 -0.2391 -0.7184 -1.3338
48782SOL     OW58070   4.801  12.386   3.196 -0.0089  0.4627 -0.2950
48782SOL    HW158071   4.767  12.432   3.272 -0.8190  0.7258 -0.8006
48782SOL    HW258072   4.731  12.393   3.131  1.3098  1.7432 -1.6717
48783SOL     OW58073  11.898   1.368   5.809  0.5625  0.0211  0.3382
48783SOL    HW158074  11.920   1.306   5.879  0.2892 -0.3396  0.1056
48783SOL    HW258075  11.825   1.327   5.763  2.4958 -1.0811 -1.9290
48784SOL     OW58076   7.645   4.131   0.157  0.1140  0.2455 -0.2551
48784SOL    HW158077   7.655   4.045   0.197  0.6058  0.7109  0.6473
48784SOL    HW258078   7.727   4.146   0.111 -0.3933 -0.2259 -1.3447
48785SOL     OW58079   7.082  11.429  12.047 -0.1340  1.0330 -0.4761
48785SOL    HW158080   7.033  11.508  12.025 -1.2003  0.6473  0.4089
48785SOL    HW258081   7.111  11.443  12.137  1.7991  1.4351 -1.1250
48786SOL     OW58082  12.633   6.766   0.889  0.4846  0.5477 -0.0494
48786SOL    HW158083  12.665   6.842   0.938 -0.1815  0.0534  1.1908
48786SOL    HW258084  12.711   6.732   0.845  1.3098  0.5186  1.3633
48787SOL     OW58085   4.967   3.662  11.009  0.0091 -0.0401 -0.1340
48787SOL    HW158086   5.029   3.735  11.008  2.4009 -1.9472 -1.4715
48787SOL    HW258087   4.970   3.629  11.099  1.4248 -0.4451 -0.3109
48788SOL     OW58088   5.898   1.452  10.849 -0.0462 -0.4638  0.1909
48788SOL    HW158089   5.938   1.534  10.877  0.6899 -1.2749  1.5997
48788SOL    HW258090   5.914   1.448  10.755 -0.0720  0.9847  0.1150
48789SOL     OW58091   2.643   2.042   1.497  0.2065  0.2768 -0.0612
48789SOL    HW158092   2.588   2.120   1.490 -0.3176  0.0521  1.2918
48789SOL    HW258093   2.623   2.005   1.583  0.5514 -1.2727 -0.5984
48790SOL     OW58094   6.496   6.445   9.179 -0.8318 -0.1864 -0.2056
48790SOL    HW158095   6.556   6.494   9.235  0.4556  0.9477 -2.4352
48790SOL    HW258096   6.529   6.355   9.181 -0.0691  0.0895 -0.0531
48791SOL     OW58097  11.431   1.702   3.114  0.1348  0.1126 -0.0363
48791SOL    HW158098  11.445   1.778   3.171 -1.6453  0.9485 -0.6469
48791SOL    HW258099  11.477   1.724   3.033 -0.0534  0.3672 -0.0749
48792SOL     OW58100   7.314  12.568   6.269  0.4770  0.8412 -0.3746
48792SOL    HW158101   7.351  12.571   6.358  1.2694 -0.8888 -0.6046
48792SOL    HW258102   7.252  12.640   6.267 -2.9085 -1.5380  3.0968
48793SOL     OW58103   8.161   6.164  12.287 -0.3460 -0.2681 -0.4538
48793SOL    HW158104   8.072   6.164  12.323 -0.3320 -2.6621 -0.2685
48793SOL    HW258105   8.217   6.144  12.362  0.1804 -0.4251 -0.8842
48794SOL     OW58106   1.517   0.958   2.819  0.3357  0.5114  0.4057
48794SOL    HW158107   1.531   0.945   2.913  1.0858 -2.4176 -0.0224
48794SOL    HW258108   1.425   0.982   2.812  0.5890  2.1580  1.9396
48795SOL     OW58109   0.320   5.639   0.027  0.3778  0.0120  0.3511
48795SOL    HW158110   0.403   5.632   0.075 -0.2455 -1.0467  1.3001
48795SOL    HW258111   0.337   5.594  -0.056  0.8545  0.0967  0.3992
48796SOL     OW58112   7.103   3.066  12.873  0.6287  0.4763 -0.2777
48796SOL    HW158113   7.023   3.065  12.926 -0.0650 -2.2193 -1.2005
48796SOL    HW258114   7.173   3.083  12.936 -0.3241 -0.8418  1.2305
48797SOL     OW58115   6.399   4.444   8.072 -0.2375  0.0488  0.4070
48797SOL    HW158116   6.441   4.359   8.065 -1.2792 -0.7137  2.5859
48797SOL    HW258117   6.325   4.439   8.011  0.0399 -0.3857  0.1028
48798SOL     OW58118  11.289   5.655   4.184  0.4079  0.5431 -0.6600
48798SOL    HW158119  11.237   5.646   4.104 -0.8565 -1.6799  0.3174
48798SOL    HW258120  11.307   5.565   4.211  2.8034  1.2350  0.3635
48799SOL     OW58121   4.995   3.117  11.484  0.3344 -0.3991 -0.6083
48799SOL    HW158122   5.060   3.095  11.550 -0.0284 -0.6380 -0.3313
48799SOL    HW258123   5.041   3.107  11.401  0.1573 -2.3983 -0.5197
48800SOL     OW58124  11.030   3.745   3.286  0.0948 -0.1623 -0.6889
48800SOL    HW158125  10.952   3.750   3.231 -1.0244 -0.1288  0.8602
48800SOL    HW258126  11.033   3.654   3.317 -1.4224  0.6356  2.1176
48801SOL     OW58127   8.215  13.706   0.145  0.0215  0.0901 -0.0368
48801SOL    HW158128   8.195  13.691   0.052 -0.9308 -3.4248  0.5840
48801SOL    HW258129   8.131  13.726   0.185  0.2488  0.4129  0.2918
48802SOL     OW58130   0.150  11.157   3.825  0.3495  0.1060  0.2078
48802SOL    HW158131   0.058  11.140   3.846 -0.3623  0.4600 -2.3637
48802SOL    HW258132   0.198  11.122   3.900 -1.7642 -2.0297  0.6831
48803SOL     OW58133   5.024  10.767   1.327 -0.0467 -0.0206 -0.6613
48803SOL    HW158134   4.974  10.845   1.354  0.5138  0.1259 -0.0122
48803SOL    HW258135   5.016  10.707   1.401 -1.5654 -1.1352 -1.6837
48804SOL     OW58136  10.764   3.860   5.144 -0.1804 -0.0471  0.3341
48804SOL    HW158137  10.816   3.932   5.181 -0.2211  0.0386  0.2267
48804SOL    HW258138  10.825   3.787   5.141  0.0871  0.1932 -0.2624
48805SOL     OW58139   0.045   1.545   5.914  0.1990 -0.1778 -0.1177
48805SOL    HW158140   0.034   1.459   5.874  1.0758 -0.4924  0.2982
48805SOL    HW258141  -0.005   1.604   5.857 -1.7648 -1.1679  0.4856
48806SOL     OW58142  11.998   7.858  10.075  0.1518  0.4789 -0.3373
48806SOL    HW158143  11.914   7.868  10.119  0.8125  2.1063  0.6456
48806SOL    HW258144  12.063   7.874  10.144  1.3707 -2.8280 -0.5438
48807SOL     OW58145   1.156   8.987   2.588 -0.6969  0.1960 -0.2380
48807SOL    HW158146   1.157   8.895   2.615  0.0522  0.0326 -0.7878
48807SOL    HW258147   1.107   9.032   2.657 -0.3545 -0.4836  0.4614
48808SOL     OW58148   9.951   7.733   2.625 -0.0762  0.1174  0.0516
48808SOL    HW158149   9.972   7.663   2.563  0.7351  0.2193  0.2019
48808SOL    HW258150  10.014   7.802   2.606 -0.5144  0.5827  0.2789
48809SOL     OW58151  12.425   6.185   6.017  0.4668 -0.2764  0.5560
48809SOL    HW158152  12.461   6.260   6.064 -1.6745  1.0863  0.1256
48809SOL    HW258153  12.423   6.115   6.082  0.5792  0.6243  1.5562
48810SOL     OW58154   9.087   6.068   7.600 -0.1156 -0.4389  0.9472
48810SOL    HW158155   9.088   6.123   7.523 -0.3648 -0.0267  1.2352
48810SOL    HW258156   9.121   5.983   7.570 -3.3002 -1.3813 -0.4294
48811SOL     OW58157   5.690  10.888  13.284  0.6307 -0.6626  0.8640
48811SOL    HW158158   5.680  10.898  13.379  1.9661 -0.2939  0.9822
48811SOL    HW258159   5.689  10.978  13.250  0.8772 -0.7504  0.6181
48812SOL     OW58160   4.901   0.240   3.297 -0.0545 -0.5044  0.3616
48812SOL    HW158161   4.831   0.260   3.235  0.8929  1.4214 -0.1723
48812SOL    HW258162   4.978   0.227   3.241  0.1642 -1.9799  0.9698
48813SOL     OW58163   0.608   3.658   8.240 -0.9126  0.1284 -0.0824
48813SOL    HW158164   0.545   3.614   8.297 -0.6156 -1.9373 -1.2476
48813SOL    HW258165   0.555   3.708   8.179 -1.4000 -0.8388 -0.4606
48814SOL     OW58166   4.006   8.977  13.471 -0.5803 -0.1920 -0.3562
48814SOL    HW158167   4.023   8.911  13.538 -0.1289 -1.1558 -1.3987
48814SOL    HW258168   4.057   9.053  13.500  0.5875 -1.0044 -0.2153
48815SOL     OW58169   4.714  12.525   4.842  0.1558 -0.1273 -0.2171
48815SOL    HW158170   4.715  12.621   4.845  0.8325 -0.0440 -1.8335
48815SOL    HW258171   4.782  12.498   4.903  1.8354  0.5627 -1.6726
48816SOL     OW58172   8.184   9.892   8.859 -0.1881 -0.3553 -0.0237
48816SOL    HW158173   8.207   9.823   8.797  1.3882 -0.9933  1.1981
48816SOL    HW258174   8.265   9.943   8.869 -0.6479  0.2197  0.8689
48817SOL     OW58175   5.682  10.990   6.544  0.2652 -0.4337  0.3339
48817SOL    HW158176   5.621  10.935   6.594  1.6988 -0.9844  1.5370
48817SOL    HW258177   5.675  11.076   6.586  0.6629 -0.6185  0.7865
48818SOL     OW58178   1.525   3.920   9.677  0.1052  0.1764  0.2215
48818SOL    HW158179   1.582   3.846   9.653  2.0868  1.6592  0.0994
48818SOL    HW258180   1.568   3.958   9.754 -1.1248  0.9521  0.5454
48819SOL     OW58181   7.996   8.044  11.548  0.0605 -0.3040  0.1332
48819SOL    HW158182   8.025   8.128  11.584  0.2071 -0.7997  1.2215
48819SOL    HW258183   7.901   8.045  11.559  0.0212 -0.1245 -0.2118
48820SOL     OW58184  12.458  12.403  10.700  0.0243 -0.0735 -0.4736
48820SOL    HW158185  12.421  12.320  10.671  0.8102 -0.6890  0.2261
48820SOL    HW258186  12.490  12.385  10.789  0.4399  0.9053 -0.4110
48821SOL     OW58187   2.599   4.360  11.088 -0.2713  0.2303  0.4875
48821SOL    HW158188   2.553   4.388  11.008 -1.9714 -0.8629  1.0206
48821SOL    HW258189   2.691   4.354  11.062 -0.7792 -0.0648 -1.3921
48822SOL     OW58190   3.543   3.048   8.764  0.3826  0.0602  0.0805
48822SOL    HW158191   3.559   2.954   8.752 -0.2617  0.0175 -0.5459
48822SOL    HW258192   3.564   3.064   8.856 -0.2956 -0.8825  0.4302
48823SOL     OW58193   5.085   9.877   7.007  0.1924 -0.0643  0.4485
48823SOL    HW158194   5.034   9.889   6.927  1.6901  0.2515 -0.4938
48823SOL    HW258195   5.036   9.811   7.056 -0.9202 -0.0450 -0.5801
48824SOL     OW58196  11.552   4.423  11.719 -0.1174  0.1229 -0.1907
48824SOL    HW158197  11.522   4.337  11.750 -3.1347  1.0163 -0.3080
48824SOL    HW258198  11.474   4.464  11.683  1.0257  3.2722  0.6155
48825SOL     OW58199   0.551  10.300   5.126 -0.0019  0.0520 -0.5437
48825SOL    HW158200   0.641  10.296   5.093  0.0489 -1.4941 -0.2900
48825SOL    HW258201   0.556  10.361   5.200  0.8715 -0.1460 -0.4249
48826SOL     OW58202   3.614  13.115  11.794  0.0311  0.3763 -0.3838
48826SOL    HW158203   3.697  13.071  11.778  0.9582  1.4533  1.1342
48826SOL    HW258204   3.636  13.208  11.794 -0.9195  0.6364  1.1988
48827SOL     OW58205   5.627   0.663  10.628  0.6909  0.1299 -0.3793
48827SOL    HW158206   5.614   0.581  10.675 -1.0036 -0.7929 -2.2833
48827SOL    HW258207   5.635   0.729  10.696  1.6258 -1.5206  1.2073
48828SOL     OW58208  12.508   3.596   5.014 -0.1801  0.2998  0.2132
48828SOL    HW158209  12.599   3.567   5.003  0.4768  1.4322  2.1403
48828SOL    HW258210  12.463   3.564   4.936  2.4286  1.8777 -2.1431
48829SOL     OW58211  11.156  12.198   5.663 -0.0338 -0.1509 -0.2705
48829SOL    HW158212  11.238  12.241   5.686  0.4196 -0.3416 -1.4814
48829SOL    HW258213  11.131  12.150   5.741  1.9999 -1.6548 -0.4858
48830SOL     OW58214   8.402   1.646   1.369 -0.5692  0.2867  0.0507
48830SOL    HW158215   8.481   1.592   1.373  0.3539  1.4394 -1.3894
48830SOL    HW258216   8.422   1.712   1.302 -2.3399  1.2842  0.4471
48831SOL     OW58217  13.301   1.640   2.955 -0.0904 -0.0802  0.4391
48831SOL    HW158218  13.289   1.644   3.050 -0.1227 -1.3256  0.4978
48831SOL    HW258219  13.396   1.642   2.943 -0.0984  0.6626  0.4576
48832SOL     OW58220   3.745   6.514   1.961  0.3122 -0.8129  0.7020
48832SOL    HW158221   3.778   6.469   1.884 -0.3495  0.2889 -0.2538
48832SOL    HW258222   3.777   6.462   2.035  0.0231 -2.5110 -0.3227
48833SOL     OW58223  12.542   8.427   5.376  0.0168  0.4909 -0.2250
48833SOL    HW158224  12.619   8.481   5.393  0.4449 -0.5744  1.5370
48833SOL    HW258225  12.522   8.387   5.460 -2.9079  1.2334 -0.4624
48834SOL     OW58226   9.480   4.411   6.461  0.1154  0.1258  0.0275
48834SOL    HW158227   9.412   4.346   6.447 -0.4155  0.5160  0.7223
48834SOL    HW258228   9.445   4.468   6.530 -0.3550  2.4218 -1.9748
48835SOL     OW58229   0.524   8.780   2.753 -0.1170 -0.3399 -0.7297
48835SOL    HW158230   0.539   8.689   2.727 -0.5580 -0.8433  0.6756
48835SOL    HW258231   0.593   8.799   2.816 -2.0863 -0.9622  1.7948
48836SOL     OW58232   2.973  10.854  11.590 -0.0422 -0.1430 -0.1536
48836SOL    HW158233   2.901  10.915  11.576  0.9374  0.6065 -2.5488
48836SOL    HW258234   2.940  10.770  11.558  0.1753  0.2519 -1.4815
48837SOL     OW58235  11.327   3.504   4.763 -0.5060 -0.1647  0.1424
48837SOL    HW158236  11.391   3.568   4.733 -0.2328 -0.1167  0.8049
48837SOL    HW258237  11.379   3.438   4.808 -0.8510 -0.5087  0.0339
48838SOL     OW58238   8.493   3.628  12.905 -0.0904 -0.1230  0.2131
48838SOL    HW158239   8.507   3.535  12.892  1.4466 -0.2571  2.2900
48838SOL    HW258240   8.527   3.669  12.825  1.1695 -1.2190  0.1624
48839SOL     OW58241   9.222   0.160   7.405  0.1108  0.1768 -0.5523
48839SOL    HW158242   9.291   0.122   7.350 -0.6769 -1.2903 -0.5565
48839SOL    HW258243   9.143   0.155   7.352 -0.0683  1.7390 -0.4987
48840SOL     OW58244  10.930  10.176   1.185  0.3529  0.7518  0.0863
48840SOL    HW158245  10.955  10.255   1.137  0.4699  0.9844  0.5260
48840SOL    HW258246  10.834  10.179   1.186  0.3525  0.8032 -0.0403
48841SOL     OW58247   0.606  13.569   9.943 -0.0378 -0.0862  0.2510
48841SOL    HW158248   0.606  13.661   9.970  0.4763 -0.2186  0.7521
48841SOL    HW258249   0.572  13.569   9.854 -0.2619  0.5626  0.3332
48842SOL     OW58250   8.176  13.566   2.469  0.1298 -0.2534 -0.6341
48842SOL    HW158251   8.137  13.479   2.474  0.1476 -0.2901 -1.0764
48842SOL    HW258252   8.268  13.553   2.491  0.6365 -0.7204 -2.8042
48843SOL     OW58253   6.386   9.905  10.221  0.1940  0.1182  0.3618
48843SOL    HW158254   6.391   9.886  10.314 -3.5834 -2.6805  0.2234
48843SOL    HW258255   6.406   9.821  10.178 -0.5298  0.7041 -1.2133
48844SOL     OW58256   0.257   6.892   7.834  0.0530  0.3857 -0.2540
48844SOL    HW158257   0.174   6.891   7.786 -0.2581 -1.4324  0.2304
48844SOL    HW258258   0.241   6.949   7.909 -0.1654  1.4816 -1.1119
48845SOL     OW58259   3.120   3.007   1.129  0.0512  0.0719 -0.3844
48845SOL    HW158260   3.202   3.042   1.097 -0.3473  2.2393  0.7808
48845SOL    HW258261   3.066   3.084   1.149 -1.7138 -1.2390  0.2741
48846SOL     OW58262   1.494   4.593   6.081 -0.4779 -0.6316 -0.7063
48846SOL    HW158263   1.564   4.541   6.119 -1.5150 -0.0122  2.3896
48846SOL    HW258264   1.536   4.675   6.055  0.4491 -1.4493 -1.8610
48847SOL     OW58265  12.955   8.947   9.669  0.7189 -0.0696 -0.9830
48847SOL    HW158266  12.937   9.029   9.714 -1.5171 -0.3416 -1.3023
48847SOL    HW258267  13.019   8.970   9.601  0.3913  1.3318 -0.8353
48848SOL     OW58268   3.184   7.127   5.694 -0.0753 -0.5962 -0.1264
48848SOL    HW158269   3.203   7.061   5.761 -1.1014 -0.1462  0.6324
48848SOL    HW258270   3.089   7.138   5.698 -0.1289 -0.3975 -1.5139
48849SOL     OW58271   6.947  11.250   5.544 -0.0624 -0.3092 -0.3435
48849SOL    HW158272   6.861  11.277   5.511 -0.2681 -2.1686 -1.4929
48849SOL    HW258273   6.939  11.155   5.556  1.8742 -0.5488 -0.6310
48850SOL     OW58274   4.076   3.766   6.284  0.4108 -0.5751  0.3440
48850SOL    HW158275   4.142   3.708   6.246  0.4941  0.0009 -0.4278
48850SOL    HW258276   4.122   3.849   6.298 -0.4839  0.3268 -1.6485
48851SOL     OW58277   4.669   3.015   8.417 -0.3225  0.0290  0.1231
48851SOL    HW158278   4.751   2.973   8.443 -1.0332 -2.0012 -0.6725
48851SOL    HW258279   4.665   3.002   8.322 -2.9845 -2.8761  0.4495
48852SOL     OW58280   7.020   2.406  10.296  0.0776 -0.3372  0.1592
48852SOL    HW158281   6.927   2.394  10.317 -0.3951 -0.4693 -1.7812
48852SOL    HW258282   7.067   2.373  10.373 -1.4625 -0.9470  0.8811
48853SOL     OW58283  11.696   9.655  12.789  0.2745 -0.0233 -0.0763
48853SOL    HW158284  11.780   9.615  12.766 -0.5381 -0.7685 -1.9817
48853SOL    HW258285  11.632   9.607  12.736 -1.6038 -0.6075  2.5553
48854SOL     OW58286   0.745  13.210   7.890  0.2481  0.4295 -0.3839
48854SOL    HW158287   0.793  13.154   7.829  0.2944  0.7460 -0.6427
48854SOL    HW258288   0.814  13.258   7.937  0.2347 -0.2181  0.3175
48855SOL     OW58289  10.652   7.079   6.428 -0.4232 -0.3468  0.2875
48855SOL    HW158290  10.619   6.996   6.464  1.6698 -2.0019 -1.3079
48855SOL    HW258291  10.721   7.106   6.489 -1.8380  0.9048  1.4098
48856SOL     OW58292   1.576   0.469   8.985  0.3665  0.4620 -0.2550
48856SOL    HW158293   1.525   0.549   8.979 -1.3805 -0.3014  2.6485
48856SOL    HW258294   1.667   0.496   8.968 -0.3460  2.7514 -0.6963
48857SOL     OW58295   5.777  11.521   4.594  0.7865  0.3235  0.4580
48857SOL    HW158296   5.693  11.486   4.563 -0.6520  2.2818  1.8327
48857SOL    HW258297   5.842  11.460   4.561 -1.2390 -1.7654  0.0275
48858SOL     OW58298   0.361  12.372   5.707 -0.3378  0.3022 -0.0325
48858SOL    HW158299   0.363  12.283   5.741 -2.5013  0.4596  0.6246
48858SOL    HW258300   0.452  12.401   5.712  0.5651 -2.0915 -0.9668
48859SOL     OW58301  12.958   8.874   9.328  0.0847  0.8077 -0.0324
48859SOL    HW158302  12.936   8.790   9.288  1.1182  0.3226  0.3760
48859SOL    HW258303  12.874   8.919   9.338 -0.7838 -1.0030  1.5696
48860SOL     OW58304  11.347   6.258   5.443  0.1095  0.0156 -0.1667
48860SOL    HW158305  11.286   6.229   5.510 -0.9951  0.4617 -0.9634
48860SOL    HW258306  11.428   6.277   5.491 -0.2235 -1.0074  0.8362
48861SOL     OW58307   2.864   0.768   1.971  0.3801  0.2024 -0.0691
48861SOL    HW158308   2.900   0.843   1.923 -0.5319  0.6614 -0.0577
48861SOL    HW258309   2.865   0.795   2.063  0.3163  0.0887 -0.0346
48862SOL     OW58310   0.943   5.185   5.102  0.3318  0.2300  0.7030
48862SOL    HW158311   0.991   5.111   5.139 -0.2794  0.1218  1.3131
48862SOL    HW258312   0.995   5.213   5.028  0.4753 -0.9439  0.3337
48863SOL     OW58313  10.150   2.845   1.172  0.1529  0.0505  0.5900
48863SOL    HW158314  10.144   2.863   1.078  0.9508 -1.1417  0.2881
48863SOL    HW258315  10.155   2.931   1.213  1.6609  0.5690 -0.6150
48864SOL     OW58316   2.521  12.851  12.242 -0.4619  0.1153  0.1447
48864SOL    HW158317   2.520  12.851  12.146 -0.2781  0.3468  0.1405
48864SOL    HW258318   2.611  12.828  12.265 -0.5419 -0.0745  0.2622
48865SOL     OW58319   3.121  12.742   8.337  0.2479 -0.2285 -0.1057
48865SOL    HW158320   3.062  12.792   8.281  1.6488  1.8482  0.1616
48865SOL    HW258321   3.154  12.671   8.281  0.1765  0.6789 -1.3316
48866SOL     OW58322  12.524   7.600  10.628 -0.0036  0.6094  0.0842
48866SOL    HW158323  12.612   7.635  10.642  0.7230 -0.4084 -1.6665
48866SOL    HW258324  12.466   7.674  10.649  1.2331  1.2974  1.2614
48867SOL     OW58325  10.230   9.008   9.668  0.1718 -0.5343  0.0461
48867SOL    HW158326  10.197   9.048   9.748  0.7321 -0.5995  0.3155
48867SOL    HW258327  10.251   8.918   9.694 -1.4435 -1.1571 -0.6372
48868SOL     OW58328  13.066  13.002   8.624  0.5232  0.0762 -0.1851
48868SOL    HW158329  12.993  13.055   8.655 -0.2738 -0.8748 -0.3828
48868SOL    HW258330  13.054  12.998   8.529  0.4072 -0.6721 -0.1480
48869SOL     OW58331   3.374   3.997   7.826  0.6215  0.1354 -0.3923
48869SOL    HW158332   3.342   4.031   7.910  0.6545 -0.0210 -0.3172
48869SOL    HW258333   3.468   4.015   7.827  1.2174 -2.6082  0.9317
48870SOL     OW58334   1.244   8.390   3.934 -0.4056 -0.1536  0.0080
48870SOL    HW158335   1.260   8.302   3.968  0.2869  0.2795  0.8514
48870SOL    HW258336   1.291   8.447   3.995  0.4313  0.6918 -1.3938
48871SOL     OW58337   6.472  11.530   7.008  0.0217  0.3715 -0.5916
48871SOL    HW158338   6.561  11.562   7.023  0.2020  0.0760 -1.0162
48871SOL    HW258339   6.473  11.498   6.918 -0.0444 -1.2056 -0.0537
48872SOL     OW58340  12.108   6.560   9.805 -0.0928  0.2750 -0.2032
48872SOL    HW158341  12.071   6.506   9.734 -0.9725  2.2309 -1.3197
48872SOL    HW258342  12.147   6.635   9.759  4.3888 -1.0346  0.9724
48873SOL     OW58343  10.673  10.126  13.670 -0.0544  0.0916 -0.0689
48873SOL    HW158344  10.600  10.152  13.614  0.0723 -0.1907 -0.3714
48873SOL    HW258345  10.744  10.186  13.645 -0.4911  1.0754  0.9798
48874SOL     OW58346   8.849   6.348  11.051 -0.2178 -0.9218 -0.1120
48874SOL    HW158347   8.817   6.258  11.059 -0.5137 -0.7066  1.4666
48874SOL    HW258348   8.943   6.339  11.035 -0.5205 -1.5126 -1.7308
48875SOL     OW58349   0.817   9.300   5.451 -0.0091 -0.3096 -0.5437
48875SOL    HW158350   0.852   9.388   5.437 -0.7059 -0.1279 -1.1634
48875SOL    HW258351   0.781   9.302   5.540 -1.1492  0.4270 -0.9994
48876SOL     OW58352  12.043   6.471  10.383  0.4495  0.3148  0.2312
48876SOL    HW158353  12.106   6.508  10.445 -1.0772  0.4375  1.7802
48876SOL    HW258354  11.968   6.530  10.387 -0.8035 -1.2311  0.4349
48877SOL     OW58355   4.213   1.067  12.474  0.3087 -0.2746  0.0756
48877SOL    HW158356   4.215   1.074  12.378 -1.2949 -1.3619 -0.0669
48877SOL    HW258357   4.167   0.985  12.491 -2.9283  1.6910  1.7830
48878SOL     OW58358  13.197  10.557  10.421  0.1130  0.0894  0.4255
48878SOL    HW158359  13.168  10.516  10.502  1.0753 -1.6036 -0.0437
48878SOL    HW258360  13.289  10.581  10.438  0.3545 -0.3777 -0.1781
48879SOL     OW58361  11.387   6.703   1.408  0.4795  0.1223  0.4570
48879SOL    HW158362  11.293   6.715   1.398  0.5484 -0.5102 -1.3407
48879SOL    HW258363  11.417   6.784   1.450 -0.9494 -0.0567  1.9304
48880SOL     OW58364   1.070   5.353   1.429  0.3901  0.4457 -0.1713
48880SOL    HW158365   1.145   5.395   1.387  0.2380 -0.5694 -1.5210
48880SOL    HW258366   0.994   5.386   1.382  0.1212  0.2385  0.1122
48881SOL     OW58367   6.561   9.155   9.095 -0.1272  0.2038  0.1815
48881SOL    HW158368   6.527   9.143   9.007  0.4091 -1.6206  0.1857
48881SOL    HW258369   6.600   9.243   9.094 -2.1794  1.1565 -0.6702
48882SOL     OW58370  13.256   6.073   7.639  1.0703 -0.0265  0.0578
48882SOL    HW158371  13.265   6.116   7.554  1.6896  2.7099  1.4070
48882SOL    HW258372  13.162   6.055   7.647  1.1476 -1.5105 -1.6669
48883SOL     OW58373   5.352  13.440  13.629  0.0294 -0.0126 -0.2593
48883SOL    HW158374   5.307  13.389  13.562  0.8264 -0.9654 -0.0981
48883SOL    HW258375   5.413  13.378  13.670 -0.2922  0.6029  1.2170
48884SOL     OW58376   1.846   9.628   7.481  0.0714  0.2018 -0.0007
48884SOL    HW158377   1.836   9.721   7.459 -1.5484  0.0252 -0.1577
48884SOL    HW258378   1.789   9.582   7.420  2.4891 -1.1490 -1.3798
48885SOL     OW58379   3.731   3.870  12.346 -0.2022  0.0582 -0.2898
48885SOL    HW158380   3.660   3.927  12.375  0.2413  0.8505 -0.7518
48885SOL    HW258381   3.744   3.809  12.419  1.5349  2.5728  1.6644
48886SOL     OW58382  12.606  10.909   2.073  0.1634 -0.0157 -0.3153
48886SOL    HW158383  12.662  10.832   2.087 -1.0582 -0.8836  0.0700
48886SOL    HW258384  12.590  10.943   2.161 -0.7452 -0.4189 -0.3102
48887SOL     OW58385  11.863   8.252  12.368  0.1065  0.2377 -0.2112
48887SOL    HW158386  11.856   8.281  12.277  0.0938 -0.7326 -0.5364
48887SOL    HW258387  11.925   8.179  12.365 -0.8192 -0.6076  0.3448
48888SOL     OW58388   0.520   5.814  12.162  0.3265 -0.0894 -0.1811
48888SOL    HW158389   0.498   5.721  12.168  0.7251 -0.3163 -1.6150
48888SOL    HW258390   0.439   5.856  12.136  0.1147 -0.0133  0.5936
48889SOL     OW58391   9.291   1.367   3.444  0.5403 -0.3559  0.1727
48889SOL    HW158392   9.271   1.354   3.351  1.1342 -1.7546  0.2182
48889SOL    HW258393   9.351   1.296   3.465  0.4159 -0.0433  1.6344
48890SOL     OW58394   0.887  13.065   6.913 -0.2277 -0.0808 -0.0180
48890SOL    HW158395   0.976  13.091   6.937 -0.2226 -0.4213  0.3425
48890SOL    HW258396   0.861  13.002   6.981  0.0611 -1.6411 -1.2942
48891SOL     OW58397   2.480   8.090   6.700  0.4223  0.0960 -0.2470
48891SOL    HW158398   2.575   8.094   6.712  0.4751 -1.9046  0.3398
48891SOL    HW258399   2.445   8.147   6.769  1.1767  1.2725 -0.7957
48892SOL     OW58400   8.313   5.087  10.090 -0.5573  0.0458 -0.1860
48892SOL    HW158401   8.340   5.131  10.010 -1.4340 -0.6506 -0.8850
48892SOL    HW258402   8.273   5.155  10.143  1.3426  0.8299  0.3270
48893SOL     OW58403   9.725  11.418  11.801 -0.5965  0.3645 -0.0953
48893SOL    HW158404   9.816  11.442  11.817 -0.9991  1.0398  1.3526
48893SOL    HW258405   9.675  11.495  11.827 -1.6340 -0.2591 -0.1841
48894SOL     OW58406   2.482  11.075   6.076 -0.1758  0.5379  0.1085
48894SOL    HW158407   2.418  11.006   6.059 -1.0205  1.2102  0.4854
48894SOL    HW258408   2.482  11.129   5.996  0.1736  0.3451 -0.0234
48895SOL     OW58409  13.193  10.296  12.520 -0.1728  0.1358 -0.0245
48895SOL    HW158410  13.279  10.254  12.525 -0.1780  0.0239 -0.7706
48895SOL    HW258411  13.191  10.337  12.433 -0.6135  0.7133  0.2481
48896SOL     OW58412   8.619  12.599   2.367  0.9474  0.0378 -0.1640
48896SOL    HW158413   8.653  12.511   2.350 -1.6759 -0.7016 -2.1569
48896SOL    HW258414   8.695  12.656   2.356  2.2866 -1.7783 -0.8648
48897SOL     OW58415   2.590   5.433   0.170  1.1274  0.3620  0.6491
48897SOL    HW158416   2.621   5.476   0.091  1.0532 -1.9844 -0.7505
48897SOL    HW258417   2.636   5.349   0.171 -1.9986 -1.5093  0.7164
48898SOL     OW58418   2.326   6.086   0.823  0.3270  0.1134  0.1950
48898SOL    HW158419   2.323   6.091   0.918  0.9210  0.4202  0.2061
48898SOL    HW258420   2.417   6.061   0.803  0.5980  1.4487 -0.3330
48899SOL     OW58421   2.184  11.733   2.742  0.5717  0.1117  0.3308
48899SOL    HW158422   2.110  11.722   2.801  0.8515 -0.7166  0.5278
48899SOL    HW258423   2.228  11.649   2.741  1.3295  0.4996 -0.0419
48900SOL     OW58424   7.870  13.182   1.536 -0.0173  0.2747  0.4788
48900SOL    HW158425   7.909  13.176   1.623 -0.2037 -0.0696  0.5400
48900SOL    HW258426   7.890  13.098   1.495  0.9313  0.8052 -0.1760
48901SOL     OW58427   9.817   5.814   6.780  0.3132  0.1079  0.4981
48901SOL    HW158428   9.864   5.731   6.779 -1.1075 -0.7558  1.7103
48901SOL    HW258429   9.885   5.880   6.767  1.6563 -1.1662  0.7684
48902SOL     OW58430   9.538   5.838   7.350 -0.2318  0.0568  0.0975
48902SOL    HW158431   9.526   5.747   7.378  0.7399 -0.0913  0.0545
48902SOL    HW258432   9.609   5.834   7.286  0.3233  0.9445  0.6394
48903SOL     OW58433   7.649  12.779   6.210 -0.5315  0.0920  0.1297
48903SOL    HW158434   7.578  12.841   6.222 -0.4837 -0.0184  1.0570
48903SOL    HW258435   7.662  12.740   6.297  0.6226  0.0771 -0.0338
48904SOL     OW58436   0.489   7.528   8.800  0.3191  0.0126 -0.8194
48904SOL    HW158437   0.442   7.569   8.727 -0.9470  0.9943  0.4904
48904SOL    HW258438   0.574   7.571   8.800  0.1457  0.3767 -1.4184
48905SOL     OW58439  12.800   9.696   1.413  0.8172  0.4028 -0.3515
48905SOL    HW158440  12.882   9.659   1.447  0.1125 -1.0259 -0.1307
48905SOL    HW258441  12.771   9.756   1.482 -0.4693 -2.2841  1.6253
48906SOL     OW58442   2.436   8.223   7.787  0.3000  0.4243  0.4299
48906SOL    HW158443   2.385   8.202   7.865  1.4786  1.2770  1.4799
48906SOL    HW258444   2.396   8.303   7.752  0.5439  0.7596  0.9095
48907SOL     OW58445  11.687  13.620   7.463 -0.6110  0.6158  0.5228
48907SOL    HW158446  11.595  13.595   7.458 -0.7182  1.0817  0.1180
48907SOL    HW258447  11.719  13.613   7.373 -0.1036 -0.0969  0.7577
48908SOL     OW58448  10.608   9.262  10.586 -0.1563 -0.6526 -0.2382
48908SOL    HW158449  10.519   9.295  10.602 -1.3897 -3.7861  0.0832
48908SOL    HW258450  10.639   9.233  10.672 -0.2081 -2.5956 -0.8302
48909SOL     OW58451  10.853  11.898   9.347  0.1870  0.3428  0.7095
48909SOL    HW158452  10.928  11.941   9.388  0.9580  0.3948 -0.6909
48909SOL    HW258453  10.830  11.828   9.408  0.0646  1.5632  2.1438
48910SOL     OW58454  13.231   5.346   4.937  0.4081 -0.0582 -0.1318
48910SOL    HW158455  13.184   5.423   4.969 -0.9667 -1.5235  1.6256
48910SOL    HW258456  13.219   5.348   4.843 -1.3021  0.8529  0.0669
48911SOL     OW58457   1.389   9.992  11.064  0.2610  0.3916  0.7001
48911SOL    HW158458   1.305  10.024  11.032  1.1869  2.5860  0.2725
48911SOL    HW258459   1.406  10.043  11.143  1.1041 -0.1773  0.8981
48912SOL     OW58460   4.936   1.549   9.077 -0.5339 -0.2391 -0.5686
48912SOL    HW158461   4.988   1.536   9.156  0.7792  1.0989 -1.1610
48912SOL    HW258462   4.909   1.461   9.051  1.6976 -1.0265 -0.3941
48913SOL     OW58463   2.293  11.044  12.953 -0.0149 -0.0922 -0.1258
48913SOL    HW158464   2.268  10.952  12.954 -2.1980  0.4217 -0.7382
48913SOL    HW258465   2.330  11.058  12.866  2.2947 -0.8038  0.6875
48914SOL     OW58466   6.738   5.543  13.027  0.0354 -0.5978 -0.2003
48914SOL    HW158467   6.785   5.611  13.075  0.3079 -0.4587 -0.6570
48914SOL    HW258468   6.666   5.518  13.084  0.6420 -0.7764  0.4946
48915SOL     OW58469   4.456   1.347   2.727  0.2466  0.5838 -0.6967
48915SOL    HW158470   4.486   1.437   2.740  0.2398  0.3424  1.1730
48915SOL    HW258471   4.361   1.353   2.732  0.2948  0.2387  1.3853
48916SOL     OW58472  11.551  11.829   7.117 -0.4446 -0.0359 -0.1061
48916SOL    HW158473  11.529  11.741   7.146 -1.0434 -0.4040 -1.5854
48916SOL    HW258474  11.529  11.885   7.191 -2.2610 -0.8756  0.0381
48917SOL     OW58475   4.289   4.724  11.655  0.1853 -0.0183  0.1162
48917SOL    HW158476   4.317   4.682  11.736  0.1112 -0.2042  0.0465
48917SOL    HW258477   4.201   4.756  11.674  0.6312  1.0151  0.4987
48918SOL     OW58478   1.261   9.534  10.527  0.0628 -0.3264 -0.5972
48918SOL    HW158479   1.289   9.451  10.567 -0.9302 -0.2410  0.2976
48918SOL    HW258480   1.331   9.596  10.550  1.0828 -1.0105 -1.7251
48919SOL     OW58481   6.950   4.538  10.708 -0.1474 -0.1409 -0.4368
48919SOL    HW158482   6.948   4.538  10.803  1.2191  1.1689 -0.3855
48919SOL    HW258483   6.863   4.570  10.682  0.1027  1.3230  0.4278
48920SOL     OW58484   4.218   6.664   2.166  0.0475 -0.3048  0.0989
48920SOL    HW158485   4.130   6.671   2.128 -0.4394 -1.1999  0.9999
48920SOL    HW258486   4.203   6.673   2.261  1.0636  0.5850  0.1834
48921SOL     OW58487   1.866   6.544   9.713 -0.5168  0.6821 -0.0850
48921SOL    HW158488   1.797   6.596   9.756  1.8855  1.9404  2.5854
48921SOL    HW258489   1.946   6.596   9.725  1.1016 -1.1871 -2.1345
48922SOL     OW58490   1.695  11.409   3.036 -0.0418 -0.4126  0.4968
48922SOL    HW158491   1.605  11.383   3.019 -0.1140 -1.1789  1.9095
48922SOL    HW258492   1.744  11.327   3.036  0.3774 -0.1716  1.2987
48923SOL     OW58493  11.776   8.198   1.198 -0.9936  0.1557 -0.7367
48923SOL    HW158494  11.753   8.172   1.287 -1.1088 -0.2988 -0.8949
48923SOL    HW258495  11.750   8.123   1.144  0.0315 -0.0071 -1.0290
48924SOL     OW58496   9.320   6.676   7.586 -0.4444  0.0775 -0.1392
48924SOL    HW158497   9.272   6.673   7.668 -1.3852 -0.5324 -0.6921
48924SOL    HW258498   9.367   6.593   7.582  0.0712  0.3614  0.0628
48925SOL     OW58499   2.036   2.379  11.014 -0.4283  0.6977 -0.2919
48925SOL    HW158500   1.984   2.342  10.943 -1.1831 -0.7627  0.9646
48925SOL    HW258501   2.125   2.347  10.999 -0.3416  1.2909 -1.1445
48926SOL     OW58502   2.852   2.603   8.463  0.2565  0.1688 -0.7914
48926SOL    HW158503   2.817   2.647   8.540 -0.1039  0.2464 -0.9948
48926SOL    HW258504   2.892   2.523   8.496  1.2856  0.8373 -0.3672
48927SOL     OW58505   7.857  10.072   0.269 -0.2738  0.2665  0.2878
48927SOL    HW158506   7.932  10.126   0.243 -0.7530  0.4380 -0.7840
48927SOL    HW258507   7.827  10.033   0.188 -0.9270 -0.3486  0.8206
48928SOL     OW58508  10.219  11.960   3.659 -0.1560  0.1023  0.0291
48928SOL    HW158509  10.172  12.042   3.641  0.7624  0.4976 -0.6477
48928SOL    HW258510  10.232  11.921   3.573 -0.1758 -0.5373  0.3101
48929SOL     OW58511   5.283  12.000   7.295 -0.0643  0.7069 -0.2391
48929SOL    HW158512   5.197  12.042   7.294 -0.7844 -0.4750  2.3441
48929SOL    HW258513   5.341  12.065   7.335 -0.5469  0.3219  1.1343
48930SOL     OW58514   2.568   0.106   9.743  0.0498 -0.0127 -0.6354
48930SOL    HW158515   2.519   0.074   9.819  0.8794  0.2027  0.0009
48930SOL    HW258516   2.593   0.195   9.767 -1.2913  0.7588 -1.9351
48931SOL     OW58517  13.478   7.906  11.830 -0.2397  0.0379  0.1172
48931SOL    HW158518  13.538   7.838  11.860  0.0318  0.4171  0.4427
48931SOL    HW258519  13.426   7.864  11.762  0.3759 -0.3084 -0.1535
48932SOL     OW58520   8.278  11.555  11.075 -0.0795 -0.3381 -0.2295
48932SOL    HW158521   8.360  11.540  11.123 -0.3342 -0.2522  0.2385
48932SOL    HW258522   8.233  11.471  11.077  0.8927 -0.9802 -2.2515
48933SOL     OW58523  13.116   2.391   8.380  0.2433  0.0279  0.0974
48933SOL    HW158524  13.156   2.449   8.315 -0.8830 -0.1828 -0.8171
48933SOL    HW258525  13.187   2.333   8.408  0.8073  0.2761 -0.7806
48934SOL     OW58526  11.166  12.164  10.093  0.0961  0.5693 -0.1699
48934SOL    HW158527  11.179  12.244  10.143 -0.2328 -1.0672  2.8395
48934SOL    HW258528  11.239  12.108  10.118 -1.0480 -0.9657 -0.0856
48935SOL     OW58529   8.815   3.922   6.788  0.1690 -0.2569  0.3855
48935SOL    HW158530   8.762   3.861   6.736 -0.4168 -0.0156  0.6806
48935SOL    HW258531   8.759   3.944   6.863  1.4552 -1.5191  1.7719
48936SOL     OW58532   9.099   1.819   4.311  0.7246 -0.4372 -0.1126
48936SOL    HW158533   9.159   1.887   4.280 -1.9570  2.8370  1.2814
48936SOL    HW258534   9.021   1.829   4.256  0.1982 -2.4003  0.2116
48937SOL     OW58535   4.453   1.831  11.377 -0.5450 -0.6006  0.4993
48937SOL    HW158536   4.532   1.780  11.398  0.2970  0.5013  0.1202
48937SOL    HW258537   4.384   1.793  11.431  1.0730  0.8612  3.8758
48938SOL     OW58538  12.668   8.849   3.181  0.3803 -0.9743  0.7411
48938SOL    HW158539  12.638   8.774   3.233  1.9073 -2.3140 -0.2292
48938SOL    HW258540  12.730   8.894   3.239  0.1352 -0.9741  1.0061
48939SOL     OW58541   4.133   0.158  10.786 -0.1446 -0.2921  0.3607
48939SOL    HW158542   4.102   0.221  10.721  0.6279 -1.2430 -0.9704
48939SOL    HW258543   4.181   0.093  10.736 -0.2851 -1.5547  1.7898
48940SOL     OW58544   7.551  12.545   5.761 -0.3783 -0.4918  0.0067
48940SOL    HW158545   7.623  12.599   5.792 -0.7328  1.0729 -1.7001
48940SOL    HW258546   7.584  12.504   5.681 -1.7614  1.4427 -1.6615
48941SOL     OW58547   3.708   0.512   7.106 -0.1028 -0.4515 -0.0081
48941SOL    HW158548   3.647   0.532   7.035  0.4922 -1.4695 -0.8172
48941SOL    HW258549   3.769   0.587   7.107 -1.6067  0.8305  1.1398
48942SOL     OW58550   3.482   1.334   1.062 -0.2319 -0.6025 -0.7252
48942SOL    HW158551   3.409   1.393   1.083  0.6093  0.5710 -1.0095
48942SOL    HW258552   3.463   1.304   0.973 -0.3663 -0.2871 -0.8060
48943SOL     OW58553   8.437   7.901   5.648 -0.4419  0.1320  0.0675
48943SOL    HW158554   8.387   7.962   5.594  0.6483 -0.1366 -1.3034
48943SOL    HW258555   8.429   7.817   5.603  1.8418  0.2339 -0.6358
48944SOL     OW58556   9.984   8.172   9.217  0.0679 -0.2493  0.1078
48944SOL    HW158557   9.996   8.234   9.145  3.0450 -0.6860  0.1345
48944SOL    HW258558   9.914   8.211   9.270  1.4347  2.8341 -0.1450
48945SOL     OW58559  13.138  12.233   1.552 -0.5020 -0.1850 -0.3074
48945SOL    HW158560  13.229  12.217   1.527 -0.2146  0.1050  0.5172
48945SOL    HW258561  13.133  12.328   1.564 -0.8249 -0.2369 -0.0097
48946SOL     OW58562   3.763   9.127   0.987 -0.7837  0.4391  0.5013
48946SOL    HW158563   3.792   9.211   0.950 -0.0236 -0.0297  0.0007
48946SOL    HW258564   3.763   9.067   0.913 -1.3077 -0.0142  0.8615
48947SOL     OW58565  13.701   2.124   9.895  0.1117  0.8324 -0.1146
48947SOL    HW158566  13.631   2.068   9.862 -0.5395  1.6878 -0.2186
48947SOL    HW258567  13.767   2.125   9.826  0.9627 -1.2048  0.6034
48948SOL     OW58568  12.960  13.490   7.204  0.1967 -0.1873 -0.3887
48948SOL    HW158569  12.976  13.470   7.111 -0.5483  0.4933 -0.6685
48948SOL    HW258570  12.979  13.408   7.249  0.2757 -0.6131 -1.1777
48949SOL     OW58571   4.551   9.283   3.557  0.2832 -0.3624 -0.2686
48949SOL    HW158572   4.618   9.214   3.562 -1.0297 -1.6895 -0.2657
48949SOL    HW258573   4.472   9.242   3.592 -0.8849  0.7207 -1.5194
48950SOL     OW58574  11.338   2.064   4.280 -0.1051 -0.1249 -0.1783
48950SOL    HW158575  11.376   2.152   4.287  0.0308 -0.2581  0.8454
48950SOL    HW258576  11.279   2.057   4.354 -1.4448 -0.2778 -1.2270
48951SOL     OW58577   3.340   9.798   3.917  0.1372  0.5146  0.3975
48951SOL    HW158578   3.266   9.787   3.977 -0.3119  0.8125 -0.0938
48951SOL    HW258579   3.415   9.765   3.966 -0.0677  1.5690  1.4776
48952SOL     OW58580   2.497   5.684  11.866 -0.1039  0.0362 -0.4574
48952SOL    HW158581   2.522   5.743  11.796 -0.8537  1.0904  0.1431
48952SOL    HW258582   2.516   5.732  11.947 -2.1064  0.0960  0.0396
48953SOL     OW58583   1.401   6.339   8.304  0.1380  0.2255  0.1484
48953SOL    HW158584   1.398   6.295   8.389  2.0983  0.0769  0.1958
48953SOL    HW258585   1.357   6.279   8.244  0.8694 -0.8331  0.6310
48954SOL     OW58586   1.709  12.464   5.552  0.2771  0.5566 -0.2444
48954SOL    HW158587   1.771  12.395   5.573 -1.8249 -1.3528 -0.0111
48954SOL    HW258588   1.692  12.453   5.458 -1.9936 -1.0057  0.2796
48955SOL     OW58589   2.471   2.256   1.436 -0.0897  0.3001 -0.2878
48955SOL    HW158590   2.380   2.268   1.408 -0.1742  2.1794  0.6665
48955SOL    HW258591   2.484   2.320   1.506  1.0974 -1.9262  1.6823
48956SOL     OW58592   5.487   6.523   8.821 -0.1129 -0.2002 -0.1370
48956SOL    HW158593   5.520   6.489   8.737 -0.7853  0.7543 -0.8120
48956SOL    HW258594   5.538   6.602   8.836 -1.0926  0.5312 -0.4974
48957SOL     OW58595   6.870  13.411  11.507 -0.4901  0.1716  0.4291
48957SOL    HW158596   6.875  13.469  11.431 -2.0056  0.7142  0.6980
48957SOL    HW258597   6.959  13.412  11.543  0.3340 -0.3261 -1.4606
48958SOL     OW58598   2.884  13.074   2.824 -0.3567  0.1346 -1.0574
48958SOL    HW158599   2.865  13.162   2.857 -1.2669  0.2900 -1.9522
48958SOL    HW258600   2.803  13.047   2.780 -0.1592 -1.2309 -0.6441
48959SOL     OW58601  12.820   0.330  10.191 -0.3306  0.1740  0.0504
48959SOL    HW158602  12.906   0.336  10.232  0.1112 -0.2446 -0.7788
48959SOL    HW258603  12.787   0.244  10.217 -0.7162  0.5314  0.7647
48960SOL     OW58604  10.666   4.468   7.538 -0.1202  0.4451  0.4507
48960SOL    HW158605  10.748   4.480   7.491  0.0769 -0.0714  0.6572
48960SOL    HW258606  10.648   4.554   7.578 -2.1329  2.1047 -3.4122
48961SOL     OW58607   1.155   8.660  13.538 -0.1216  0.2485  0.9262
48961SOL    HW158608   1.192   8.575  13.512  1.3492  1.2072 -0.2335
48961SOL    HW258609   1.061   8.650  13.520  0.2734 -0.5274 -1.0644
48962SOL     OW58610  10.900  10.746   2.266  0.2233 -0.3991 -0.2418
48962SOL    HW158611  10.917  10.739   2.360 -1.5106 -3.1432 -0.0179
48962SOL    HW258612  10.940  10.667   2.229  2.6971  1.6106 -2.2311
48963SOL     OW58613   1.762  11.369  11.226  0.3061 -0.0022  0.0469
48963SOL    HW158614   1.774  11.428  11.152 -1.6284  0.1466 -0.2036
48963SOL    HW258615   1.812  11.291  11.204  0.3782  0.3462 -1.0574
48964SOL     OW58616  13.158   0.392   7.414 -0.2839  0.1692  0.7815
48964SOL    HW158617  13.245   0.413   7.447  0.6669 -1.8285 -0.2462
48964SOL    HW258618  13.107   0.371   7.492 -0.0249  1.8658  1.4345
48965SOL     OW58619  13.511   4.893   7.979  0.3722  0.1945 -0.5200
48965SOL    HW158620  13.427   4.935   7.962 -0.1598 -0.8326 -0.4947
48965SOL    HW258621  13.531   4.846   7.898  0.2000 -0.7596 -0.0174
48966SOL     OW58622  13.311   1.290   3.305 -0.0996 -0.1278 -0.4521
48966SOL    HW158623  13.370   1.277   3.231 -0.4673 -0.6171 -0.6609
48966SOL    HW258624  13.312   1.384   3.320 -1.4113  0.1993 -2.2226
48967SOL     OW58625   1.917  12.060  11.434  0.2564  0.2550 -0.6771
48967SOL    HW158626   1.990  12.078  11.374  0.9238  0.7782  0.2569
48967SOL    HW258627   1.944  12.100  11.517 -1.0763  0.4000 -0.2889
48968SOL     OW58628   0.869   2.068   4.575 -0.1374  0.3224 -0.0009
48968SOL    HW158629   0.940   2.114   4.530 -2.1743  4.3299  0.4476
48968SOL    HW258630   0.801   2.057   4.509 -0.0055 -1.5117  0.1146
48969SOL     OW58631   7.148  13.090   0.835 -0.3703 -0.3886  0.3439
48969SOL    HW158632   7.209  13.071   0.763 -1.4281 -2.6269 -0.0594
48969SOL    HW258633   7.117  13.179   0.818 -0.9452 -1.0038 -2.2756
48970SOL     OW58634  10.975   4.224   1.189 -0.0891 -0.2230 -0.5652
48970SOL    HW158635  11.017   4.286   1.248  1.4486 -1.0459 -0.7182
48970SOL    HW258636  10.969   4.270   1.105  2.0945 -0.5890 -0.9931
48971SOL     OW58637   6.523   1.364   2.298 -0.0615 -0.3923  0.2600
48971SOL    HW158638   6.511   1.269   2.289 -1.5478 -0.1303 -0.9188
48971SOL    HW258639   6.600   1.383   2.245 -0.7239 -0.7416 -0.8590
48972SOL     OW58640   8.603   7.936   7.331 -0.8729 -0.2014 -0.5960
48972SOL    HW158641   8.518   7.931   7.287 -0.5727 -0.0646 -1.2050
48972SOL    HW258642   8.612   8.027   7.357 -1.5652 -0.5090  0.8160
48973SOL     OW58643   8.541  10.071  10.404  0.8956 -0.3554  0.2151
48973SOL    HW158644   8.545  10.138  10.472  0.4897 -0.4658  0.3465
48973SOL    HW258645   8.493  10.112  10.332  0.7088 -0.4817  0.2678
48974SOL     OW58646   9.051   4.587   5.149 -0.0277  0.4337 -0.2370
48974SOL    HW158647   9.131   4.613   5.105  0.2330 -0.2702 -0.1888
48974SOL    HW258648   9.007   4.669   5.171  1.4326  0.8881  1.1367
48975SOL     OW58649   5.483  10.663   5.675  0.3340 -0.0163 -0.1300
48975SOL    HW158650   5.538  10.724   5.625  1.6514 -1.4062 -0.4363
48975SOL    HW258651   5.465  10.709   5.757  0.4025  1.2011 -0.7701
48976SOL     OW58652   5.532  10.878   9.728 -0.1207  0.6933 -0.4721
48976SOL    HW158653   5.476  10.834   9.791  0.0279  2.4238  0.9753
48976SOL    HW258654   5.488  10.868   9.644  0.2501 -2.6701 -0.3762
48977SOL     OW58655   0.417  12.532  10.631 -0.1028 -0.4588  0.0731
48977SOL    HW158656   0.329  12.501  10.655  0.0705 -0.7193  0.3730
48977SOL    HW258657   0.412  12.627  10.641 -0.0953 -0.5437  0.9667
48978SOL     OW58658   0.157  11.139   2.069  0.0202  0.0676 -0.0823
48978SOL    HW158659   0.215  11.086   2.014  0.0597  0.1108 -0.0828
48978SOL    HW258660   0.211  11.163   2.144 -0.4876 -1.3249  0.7877
48979SOL     OW58661  13.168   5.545   0.328 -0.2216 -0.3919 -0.0109
48979SOL    HW158662  13.239   5.567   0.389 -1.6269 -0.4367  1.7321
48979SOL    HW258663  13.158   5.622   0.273 -0.8897  0.8805  1.8217
48980SOL     OW58664   2.037   4.176  11.979 -0.0904 -0.0574 -0.7705
48980SOL    HW158665   1.957   4.125  11.963 -0.0438  0.2152 -1.9700
48980SOL    HW258666   2.087   4.168  11.898  0.3289  1.1618 -0.6521
48981SOL     OW58667   0.202   1.914   5.945 -0.4252 -0.0036 -0.1448
48981SOL    HW158668   0.160   1.951   5.868 -1.1220  0.6599  0.5331
48981SOL    HW258669   0.134   1.913   6.012  0.9722  2.9125  1.5859
48982SOL     OW58670   9.807   4.645   3.935 -0.0590 -0.0400 -0.3067
48982SOL    HW158671   9.742   4.595   3.886  1.0774  0.6691 -2.6580
48982SOL    HW258672   9.783   4.737   3.922 -0.6253  0.1884  1.8446
48983SOL     OW58673   0.823   7.462   9.759  0.6948 -0.1189  0.2744
48983SOL    HW158674   0.828   7.412   9.678  0.5480 -1.5099  1.0928
48983SOL    HW258675   0.881   7.416   9.819  0.2815  0.4990  1.1703
48984SOL     OW58676  13.366   3.184   8.133 -0.3952  0.2221 -0.0287
48984SOL    HW158677  13.272   3.183   8.114 -0.5073 -0.3379  0.5389
48984SOL    HW258678  13.399   3.101   8.099 -0.2089  0.1755  0.2588
48985SOL     OW58679   8.920   9.392   1.039 -0.1298  0.1476 -0.3464
48985SOL    HW158680   8.906   9.305   1.002  2.5355 -1.1021  1.3226
48985SOL    HW258681   8.999   9.424   0.997  2.6074 -1.0313  3.3497
48986SOL     OW58682  11.950   8.404   1.290 -0.3965  0.8673 -0.1489
48986SOL    HW158683  11.881   8.339   1.280 -0.3274  0.9814 -1.5552
48986SOL    HW258684  11.921   8.460   1.362 -0.9563 -0.0837  0.3826
48987SOL     OW58685   2.508  11.760   4.493 -0.4401  0.3429 -0.4060
48987SOL    HW158686   2.491  11.666   4.486 -0.5422  0.2824  0.5246
48987SOL    HW258687   2.577  11.777   4.430 -0.5607 -0.3204 -0.7266
48988SOL     OW58688   6.977  11.871   7.519  0.3806  0.7309 -0.2802
48988SOL    HW158689   6.973  11.783   7.556 -0.1282  0.6666 -0.4742
48988SOL    HW258690   6.908  11.920   7.565 -0.0711  0.7248 -0.9379
48989SOL     OW58691  12.278   2.724   4.905  0.6166  0.4211 -0.1749
48989SOL    HW158692  12.201   2.667   4.902  1.6345 -1.0094 -0.3973
48989SOL    HW258693  12.310   2.726   4.815  1.5664 -0.0753  0.1371
48990SOL     OW58694   6.231   5.164   5.165 -0.0006  0.1819 -0.1644
48990SOL    HW158695   6.178   5.241   5.145 -0.9151  0.1033  1.7052
48990SOL    HW258696   6.287   5.192   5.238  0.6577 -0.5277 -0.3794
48991SOL     OW58697   2.942  13.342  13.595  0.5201 -0.4838 -0.0971
48991SOL    HW158698   2.977  13.253  13.603  0.6475 -0.4236  0.0303
48991SOL    HW258699   2.980  13.389  13.670  0.5682 -0.2861 -0.2453
48992SOL     OW58700   7.004   7.361   7.800  0.5072 -0.1184  0.4580
48992SOL    HW158701   7.081   7.351   7.743  0.1604  0.5504 -0.1404
48992SOL    HW258702   7.023   7.305   7.876  1.1856 -0.6564 -0.0937
48993SOL     OW58703   1.529  13.614  11.154 -0.4350  0.7461  0.2771
48993SOL    HW158704   1.571  13.698  11.170  3.9087 -1.1812  0.4959
48993SOL    HW258705   1.549  13.563  11.233 -3.1964 -0.4815  0.2849
48994SOL     OW58706   8.691   3.687   6.654 -0.0544 -0.7047  0.2467
48994SOL    HW158707   8.765   3.636   6.686  0.0218 -1.4600 -1.0716
48994SOL    HW258708   8.721   3.725   6.572 -0.4881  0.5740  0.6564
48995SOL     OW58709   8.889   3.024   1.103 -0.0484 -0.0881 -0.2153
48995SOL    HW158710   8.825   3.055   1.039 -1.3603 -1.0726  0.5683
48995SOL    HW258711   8.973   3.029   1.058 -0.9149 -0.6512 -1.9660
48996SOL     OW58712   9.985   5.274   6.284  0.2743  0.0577  0.0778
48996SOL    HW158713  10.078   5.249   6.279  0.6159  1.4267 -1.0631
48996SOL    HW258714   9.963   5.301   6.195 -1.1773 -0.0753  0.3802
48997SOL     OW58715   1.735   9.144   5.489  0.0863  0.0410 -0.0928
48997SOL    HW158716   1.674   9.071   5.491  0.3488 -0.1604  1.2301
48997SOL    HW258717   1.775   9.139   5.402 -0.7169 -0.6861 -0.4368
48998SOL     OW58718   1.039   1.946   9.489  0.3378 -0.2792 -0.4436
48998SOL    HW158719   0.958   1.904   9.460  0.1303  0.8431 -1.6278
48998SOL    HW258720   1.109   1.888   9.459  0.0062 -0.7600 -0.2951
48999SOL     OW58721   8.003  10.341   1.437  0.2967  0.0259 -0.0831
48999SOL    HW158722   8.027  10.405   1.504 -1.3383  0.5712  0.0384
48999SOL    HW258723   7.974  10.264   1.486 -1.1703  0.5270 -0.1194
49000SOL     OW58724   0.423  11.567   0.214  0.3615  0.2687 -0.4912
49000SOL    HW158725   0.504  11.597   0.174  1.1447 -1.3419 -0.2184
49000SOL    HW258726   0.383  11.511   0.147  1.3259 -1.8647  0.6023
49001SOL     OW58727   4.041   0.101   8.426  0.0496  0.1893  0.3900
49001SOL    HW158728   4.071   0.177   8.477  3.4343 -0.5113 -0.2943
49001SOL    HW258729   4.048   0.129   8.335 -0.0457 -0.4970  0.1639
49002SOL     OW58730   7.137   8.314  11.354  0.0414 -0.2830  0.1322
49002SOL    HW158731   7.175   8.362  11.428 -0.1278  0.2142 -0.1008
49002SOL    HW258732   7.045   8.304  11.377 -0.2299  0.7318 -0.4436
49003SOL     OW58733   4.109   7.041   6.480  0.4453  0.5629 -0.0293
49003SOL    HW158734   4.065   7.065   6.561  0.9810  2.7269 -0.3242
49003SOL    HW258735   4.112   7.122   6.429  2.0160 -0.2388 -1.3062
49004SOL     OW58736  10.268  10.509   3.192 -0.7604 -0.4779 -0.4570
49004SOL    HW158737  10.357  10.473   3.182 -1.4650 -1.9549 -1.6785
49004SOL    HW258738  10.282  10.595   3.231  1.1995 -0.7801 -0.3835
49005SOL     OW58739  10.964   2.777  11.732  0.2382 -0.4112 -0.4027
49005SOL    HW158740  10.926   2.859  11.701 -0.9092 -0.8720 -0.2466
49005SOL    HW258741  11.050   2.802  11.767 -0.9748  1.0978  1.7362
49006SOL     OW58742   8.643   7.093   3.336 -0.4017 -0.2655  0.2841
49006SOL    HW158743   8.687   7.081   3.252 -2.4554  0.2606 -0.9322
49006SOL    HW258744   8.680   7.025   3.392  1.3088 -0.3749 -0.8818
49007SOL     OW58745   2.093  11.308  13.246 -0.1426  0.3941 -0.1778
49007SOL    HW158746   2.155  11.240  13.220  0.5947  1.0171 -0.0839
49007SOL    HW258747   2.100  11.312  13.341 -0.9850 -0.1351 -0.0785
49008SOL     OW58748   8.082  10.402   6.022  0.4552 -0.2102  0.6629
49008SOL    HW158749   8.172  10.424   5.997  0.3081 -0.5094 -0.1821
49008SOL    HW258750   8.039  10.383   5.938  0.1808 -2.1969  1.2142
49009SOL     OW58751   0.258  10.546   6.550  0.1657  0.1352  0.1777
49009SOL    HW158752   0.297  10.459   6.542  0.6514  0.3377  0.2877
49009SOL    HW258753   0.249  10.577   6.460  0.6762  0.2658  0.1702
49010SOL     OW58754  11.415  12.316   8.693 -0.2907  0.1979 -0.4048
49010SOL    HW158755  11.500  12.348   8.725  0.2540 -1.3661 -0.1477
49010SOL    HW258756  11.436  12.234   8.649 -1.6779 -0.2237 -0.3274
49011SOL     OW58757  10.351   1.530   1.475 -0.3012  0.1756  0.0459
49011SOL    HW158758  10.443   1.510   1.462 -0.3425  0.6874 -1.1513
49011SOL    HW258759  10.328   1.485   1.557  1.4534  1.5942  1.4070
49012SOL     OW58760   2.463  12.957   1.958  0.1710 -0.1530 -0.0235
49012SOL    HW158761   2.390  13.005   1.920 -0.2060 -0.9758 -0.3610
49012SOL    HW258762   2.445  12.956   2.052 -0.0583 -0.0427 -0.0652
49013SOL     OW58763  13.237   6.423   5.377  0.2502 -0.4564  0.1620
49013SOL    HW158764  13.225   6.517   5.365  0.5136 -0.3583  0.6654
49013SOL    HW258765  13.215   6.385   5.292  1.6229  0.1864 -0.5098
49014SOL     OW58766   6.108   2.147  12.311  0.2763  1.0879  0.0601
49014SOL    HW158767   6.082   2.172  12.222  1.8523  0.1839 -0.6978
49014SOL    HW258768   6.123   2.231  12.356 -3.0386  1.6388  0.3436
49015SOL     OW58769   3.041   6.204   9.483  0.4740 -0.0448 -0.1398
49015SOL    HW158770   2.982   6.227   9.412 -0.7473  0.9538  1.1414
49015SOL    HW258771   3.111   6.154   9.441 -0.3821  0.2157 -1.9663
49016SOL     OW58772   6.228   3.340  13.688 -0.6461 -0.9926  0.0834
49016SOL    HW158773   6.168   3.266  13.696  0.0422 -1.6572 -0.7762
49016SOL    HW258774   6.195   3.389  13.613  0.4218 -1.9045 -1.0260
49017SOL     OW58775   8.985   4.813   6.355 -0.2236 -0.5427 -0.0912
49017SOL    HW158776   8.923   4.884   6.341  0.1642 -0.0388  0.6697
49017SOL    HW258777   9.044   4.817   6.279 -0.1859 -0.0280 -0.0378
49018SOL     OW58778   8.634  12.175   9.638  0.3586  0.0690 -0.2623
49018SOL    HW158779   8.698  12.241   9.614  0.4303  1.1787  2.5391
49018SOL    HW258780   8.686  12.098   9.661  0.6847  0.6205  0.9591
49019SOL     OW58781   5.102  10.954   7.090  0.6212  0.1182  0.1318
49019SOL    HW158782   5.188  10.929   7.124  0.4427 -2.1190 -0.8842
49019SOL    HW258783   5.058  10.871   7.074 -2.1392  1.1960  1.5094
49020SOL     OW58784   9.463  11.355   5.066 -0.1063  0.4245 -0.6290
49020SOL    HW158785   9.449  11.421   5.134  1.4867  1.9381 -1.6742
49020SOL    HW258786   9.556  11.335   5.072 -0.5191 -1.5891 -0.5031
49021SOL     OW58787  13.089   5.798   6.543 -0.6402 -0.2706 -0.2709
49021SOL    HW158788  13.112   5.748   6.465  0.5143 -0.6839  0.3188
49021SOL    HW258789  13.071   5.731   6.610 -3.4631  0.0058 -0.6108
49022SOL     OW58790   8.749   5.029   6.709  1.0011  0.6346  0.5043
49022SOL    HW158791   8.792   5.111   6.684  1.0401  0.2865 -0.6462
49022SOL    HW258792   8.688   5.011   6.637  0.5682 -0.0419  1.0256
49023SOL     OW58793  11.253  12.024  13.333 -0.3398  0.2250  0.3150
49023SOL    HW158794  11.289  12.108  13.361  0.9493 -0.9783  2.5526
49023SOL    HW258795  11.328  11.965  13.330 -1.3993 -1.1667  0.1381
49024SOL     OW58796  11.473   1.192   3.238  0.0957 -0.6479 -0.0621
49024SOL    HW158797  11.385   1.157   3.222 -1.2348  1.6667  1.6318
49024SOL    HW258798  11.484   1.260   3.172  1.7076 -2.5188 -1.8380
49025SOL     OW58799   1.213   5.128   2.116 -0.0156  0.3880 -0.2344
49025SOL    HW158800   1.190   5.101   2.027 -0.0403  1.3902 -0.5447
49025SOL    HW258801   1.286   5.189   2.105  2.0524 -1.7663  0.6599
49026SOL     OW58802   7.334   5.388  10.062 -0.1556 -0.0002 -0.2424
49026SOL    HW158803   7.360   5.299  10.084 -0.9259  0.1009  1.1987
49026SOL    HW258804   7.268   5.377   9.994  1.7107 -0.3611 -2.1085
49027SOL     OW58805   1.427   9.889   2.266  0.1054  0.0561 -0.8673
49027SOL    HW158806   1.473   9.826   2.210  2.1305  1.6766 -1.1157
49027SOL    HW258807   1.380   9.834   2.329  0.3578 -1.7352 -2.1477
49028SOL     OW58808   6.491   5.998   9.993 -0.3063  0.3680 -1.4532
49028SOL    HW158809   6.431   5.974  10.063 -0.0468 -0.6070 -1.5529
49028SOL    HW258810   6.436   6.040   9.927 -0.2127  3.7344  0.3943
49029SOL     OW58811   3.226   5.060   3.739  0.0734  0.4350  0.0249
49029SOL    HW158812   3.256   5.151   3.744 -0.7113  0.7044 -0.0504
49029SOL    HW258813   3.271   5.015   3.810  2.2604  0.3455 -1.3153
49030SOL     OW58814   0.833   3.934   6.288 -0.3211 -0.0595 -0.4015
49030SOL    HW158815   0.888   3.983   6.350 -1.0213  0.9281 -0.5225
49030SOL    HW258816   0.879   3.852   6.274 -0.6918 -0.8508  2.3575
49031SOL     OW58817   6.809   4.334  10.046  0.2673 -0.5121  0.3240
49031SOL    HW158818   6.849   4.250  10.067  2.2402  0.5614  1.0268
49031SOL    HW258819   6.871   4.377   9.987 -0.1053  0.9733  0.9654
49032SOL     OW58820   0.071   0.935   4.955  0.4358  0.1544 -0.4067
49032SOL    HW158821   0.130   1.008   4.936  0.6326 -0.2425 -1.3937
49032SOL    HW258822   0.015   0.929   4.878 -1.6275  1.1778  0.9321
49033SOL     OW58823  12.491  10.756   8.787 -0.6292  0.5700 -0.6866
49033SOL    HW158824  12.451  10.842   8.795 -0.1043  0.9365 -1.8145
49033SOL    HW258825  12.533  10.741   8.872 -1.6805  0.9178 -0.0913
49034SOL     OW58826   9.853   9.466   7.838  0.1975  0.3162  0.4318
49034SOL    HW158827   9.911   9.542   7.836  0.0357  0.4370 -0.8615
49034SOL    HW258828   9.771   9.498   7.875 -0.0528  0.9445 -0.6061
49035SOL     OW58829  12.868  12.729   5.881 -0.3308  0.7281  0.0688
49035SOL    HW158830  12.824  12.645   5.899 -0.7464  0.8204 -0.5012
49035SOL    HW258831  12.930  12.709   5.811  0.8311  0.5147  1.1273
49036SOL     OW58832  13.341   5.393  11.202 -0.2359 -0.1405  0.6002
49036SOL    HW158833  13.289   5.312  11.197 -0.4926  0.1063 -2.1749
49036SOL    HW258834  13.277   5.461  11.223 -0.7178 -0.1619 -0.6835
49037SOL     OW58835  12.618   5.683   1.584  0.1162 -0.1085  0.2046
49037SOL    HW158836  12.678   5.611   1.565 -0.2579 -0.3515 -0.0755
49037SOL    HW258837  12.603   5.679   1.678  0.6338  0.0284  0.2940
49038SOL     OW58838   2.128  12.109   6.483 -0.3270 -0.4728 -0.5311
49038SOL    HW158839   2.115  12.195   6.443 -2.8517 -0.4139  0.2610
49038SOL    HW258840   2.127  12.049   6.408  1.8578  0.1344 -1.1341
49039SOL     OW58841   3.399   3.491   3.716 -0.2003  0.4712 -0.2900
49039SOL    HW158842   3.478   3.443   3.741  1.3904  2.2909 -1.5877
49039SOL    HW258843   3.347   3.427   3.667  1.4829 -0.1773 -1.3168
49040SOL     OW58844   8.203   9.839   3.275 -0.1146  1.0983  0.6303
49040SOL    HW158845   8.155   9.916   3.244 -1.3940 -0.2226 -0.8163
49040SOL    HW258846   8.192   9.774   3.206  0.5144 -0.5715  2.0259
49041SOL     OW58847   5.911   1.643   1.803  0.7303 -0.1332  0.1259
49041SOL    HW158848   5.843   1.598   1.753  0.5292  0.1480  0.1474
49041SOL    HW258849   5.896   1.616   1.894 -1.8621  2.9470  0.8116
49042SOL     OW58850   3.044  13.482   0.072 -0.5897  0.6355  0.0288
49042SOL    HW158851   3.077  13.494   0.161 -1.1505  0.8288  0.2154
49042SOL    HW258852   3.014  13.569   0.045  0.8364  0.8901 -0.8798
49043SOL     OW58853   9.672   1.830  11.747 -0.3304  0.4053 -0.1827
49043SOL    HW158854   9.625   1.875  11.818 -1.0694  0.4812 -0.6985
49043SOL    HW258855   9.602   1.798  11.689  0.2346 -0.3393 -0.4652
49044SOL     OW58856  11.934   8.358   3.247 -0.2351 -1.4919  0.3581
49044SOL    HW158857  11.946   8.453   3.245 -1.6117 -1.2544  1.3382
49044SOL    HW258858  12.017   8.324   3.279  0.0646 -0.5452  0.6324
49045SOL     OW58859  11.612  11.479   2.202  0.6337 -0.2771 -0.0044
49045SOL    HW158860  11.603  11.397   2.153  0.3948 -0.4580  0.3398
49045SOL    HW258861  11.580  11.458   2.290 -0.0520  0.3581 -0.0960
49046SOL     OW58862  11.033   7.463   0.219 -0.1048  0.1295  0.0167
49046SOL    HW158863  11.053   7.406   0.293  0.6737  0.1251 -0.1911
49046SOL    HW258864  11.022   7.550   0.257  2.6989  0.6264 -0.0877
49047SOL     OW58865  10.473   1.931   5.921 -0.4664  0.2493 -0.0077
49047SOL    HW158866  10.450   1.963   5.834  0.2019  1.4294  0.2240
49047SOL    HW258867  10.566   1.907   5.914 -0.7441 -0.8863  0.0478
49048SOL     OW58868  12.148   9.495  10.925  0.6169  0.6581 -0.4515
49048SOL    HW158869  12.189   9.418  10.963  0.0372  0.2058 -0.7354
49048SOL    HW258870  12.096   9.462  10.852 -0.9027  1.1111  0.3899
49049SOL     OW58871  11.126   4.776   8.625 -0.4566  0.1931 -0.2028
49049SOL    HW158872  11.139   4.845   8.690 -0.9158  0.3051 -0.2275
49049SOL    HW258873  11.039   4.742   8.644 -0.5536  0.1636 -0.6996
49050SOL     OW58874   5.004   8.462   9.034  0.5559  0.1059 -0.5370
49050SOL    HW158875   5.026   8.512   8.956  1.9471  0.1550 -0.1309
49050SOL    HW258876   4.910   8.479   9.047 -0.4084 -2.0774 -3.7145
49051SOL     OW58877   7.886   3.789  12.057  0.3584  0.4891  0.1939
49051SOL    HW158878   7.967   3.740  12.040  1.4196  1.5458  1.9220
49051SOL    HW258879   7.854   3.753  12.140 -0.4286  0.7544  0.0133
49052SOL     OW58880  12.765   2.226   7.503  0.1928  0.0951 -0.4025
49052SOL    HW158881  12.794   2.302   7.553 -1.2621  0.4984 -0.1129
49052SOL    HW258882  12.811   2.151   7.543  2.1587  0.8589 -1.1280
49053SOL     OW58883   3.994  10.201   1.831  0.5473  0.2674  0.7261
49053SOL    HW158884   3.931  10.133   1.855  1.2459 -0.7206 -0.1422
49053SOL    HW258885   3.950  10.251   1.762  0.7494 -0.5205  0.0078
49054SOL     OW58886   6.994   9.905  11.614  0.0070 -0.3814 -0.0416
49054SOL    HW158887   7.079   9.942  11.595  0.3890 -1.1406  0.1415
49054SOL    HW258888   7.012   9.815  11.640 -0.8583 -0.5896 -0.1142
49055SOL     OW58889   8.906  10.070   8.779  0.6304 -0.4789 -0.2396
49055SOL    HW158890   8.881  10.127   8.852  0.1237 -1.5646  0.4800
49055SOL    HW258891   8.826  10.062   8.727  1.0442  0.4386 -1.0254
49056SOL     OW58892  10.059   3.788  11.079 -0.5807 -0.0076  0.0966
49056SOL    HW158893  10.034   3.807  10.989  0.4667  1.1058  0.0156
49056SOL    HW258894   9.987   3.824  11.132 -0.8759 -0.0673 -0.2627
49057SOL     OW58895   0.930   0.767   8.155 -0.6207 -0.5118  0.1398
49057SOL    HW158896   1.020   0.788   8.130 -0.0308 -1.7186  1.1197
49057SOL    HW258897   0.899   0.709   8.086 -0.2569 -0.9511  0.3367
49058SOL     OW58898  11.210   1.822   5.735  0.2797 -0.2772 -0.3076
49058SOL    HW158899  11.178   1.841   5.647 -0.2014  6.8143  0.7343
49058SOL    HW258900  11.133   1.791   5.783  0.4551 -3.7931 -2.0431
49059SOL     OW58901  10.506   9.113  12.497 -0.2067 -0.4624  0.3784
49059SOL    HW158902  10.507   9.163  12.416  0.8027 -1.0404  0.0147
49059SOL    HW258903  10.454   9.166  12.558 -0.6126  0.1757 -0.5125
49060SOL     OW58904  11.350   1.321  11.529  0.3451  0.5958  1.3582
49060SOL    HW158905  11.356   1.257  11.599  1.2878 -1.1911 -0.2565
49060SOL    HW258906  11.425   1.302  11.472 -1.0212  1.1306 -0.7622
49061SOL     OW58907   1.837   7.147   0.821 -0.5899  0.2092  0.2456
49061SOL    HW158908   1.844   7.239   0.796  1.5914  0.4372  1.4395
49061SOL    HW258909   1.845   7.147   0.917 -1.9790 -1.1327  0.4053
49062SOL     OW58910  11.353  11.256   1.406  0.1869 -0.2508  0.2324
49062SOL    HW158911  11.263  11.272   1.435 -0.2991 -1.3623 -0.5819
49062SOL    HW258912  11.347  11.254   1.310  1.0854 -0.3326  0.1727
49063SOL     OW58913   0.346  12.774   0.775  0.0052  0.1861  0.2930
49063SOL    HW158914   0.367  12.780   0.682  0.6434  0.4542  0.4476
49063SOL    HW258915   0.375  12.686   0.801  1.9814  0.9145  0.7372
49064SOL     OW58916   0.073  10.637   1.898  0.1178  0.6168 -0.4047
49064SOL    HW158917   0.165  10.618   1.882  0.6756  1.9211  1.0088
49064SOL    HW258918   0.074  10.698   1.972 -1.8906  0.5177 -0.2530
49065SOL     OW58919  13.504  12.434   2.928 -0.2360  0.3643  0.5450
49065SOL    HW158920  13.507  12.448   2.834 -0.5903 -0.1363  0.4559
49065SOL    HW258921  13.496  12.339   2.938 -0.9943  0.4778  1.0599
49066SOL     OW58922   9.332   1.171  11.101 -0.2372 -0.3023 -0.0872
49066SOL    HW158923   9.416   1.209  11.125 -0.7402 -0.4943  2.2565
49066SOL    HW258924   9.308   1.213  11.019  0.0749  3.1787  1.4510
49067SOL     OW58925   0.905  10.640   0.402  0.3547 -0.0461 -0.8127
49067SOL    HW158926   0.909  10.736   0.406  0.8204 -0.0960  0.4747
49067SOL    HW258927   0.978  10.611   0.457 -0.2828 -1.1394 -0.5147
49068SOL     OW58928   3.109   7.024   8.504 -0.2847  0.1005  0.3517
49068SOL    HW158929   3.040   6.999   8.566 -0.9346  1.2208  0.1130
49068SOL    HW258930   3.190   6.998   8.547 -0.8724 -2.4044  0.0976
49069SOL     OW58931   6.332  10.239   4.250  0.3254  0.3321  0.2240
49069SOL    HW158932   6.292  10.262   4.334  0.5678 -0.0766  0.4529
49069SOL    HW258933   6.296  10.153   4.229 -1.1459  1.1794 -0.9826
49070SOL     OW58934  10.665  11.541   9.860 -0.4864  0.2452 -0.7132
49070SOL    HW158935  10.716  11.620   9.841 -0.8179  1.7812  3.6959
49070SOL    HW258936  10.726  11.483   9.906 -1.3386 -0.2298 -0.1639
49071SOL     OW58937  10.662   9.963  11.659 -0.8150  0.4369 -0.6364
49071SOL    HW158938  10.744  10.013  11.664 -0.2355 -0.5784  0.7841
49071SOL    HW258939  10.689   9.875  11.632 -1.8627  0.8652 -3.5004
49072SOL     OW58940  12.769  11.631   3.594  0.1721  0.2494  0.2999
49072SOL    HW158941  12.845  11.651   3.649  0.2186  1.1435 -0.0653
49072SOL    HW258942  12.695  11.667   3.642  0.0207 -0.2736  0.4673
49073SOL     OW58943   0.682   3.988   5.585  0.1512  0.5105  0.7669
49073SOL    HW158944   0.745   4.026   5.646  1.4202 -0.3543  0.0511
49073SOL    HW258945   0.719   4.006   5.499  0.1655 -1.2433  0.3673
49074SOL     OW58946   1.069   7.521  10.489  0.4187  0.3099 -0.0101
49074SOL    HW158947   1.043   7.612  10.498 -0.4346  0.1737 -0.9252
49074SOL    HW258948   1.105   7.498  10.575 -1.5732  0.8237  1.0475
49075SOL     OW58949  12.946   5.998   2.067 -0.1339 -0.2092 -0.6991
49075SOL    HW158950  12.990   6.007   1.983 -0.8507 -3.8215 -1.6578
49075SOL    HW258951  13.014   5.968   2.128 -0.1455 -0.2630 -0.7129
49076SOL     OW58952   7.191   9.972   0.272 -0.5201  0.0380 -0.4254
49076SOL    HW158953   7.163  10.054   0.312  1.4908 -0.0592  1.3679
49076SOL    HW258954   7.172   9.905   0.338  0.8549 -0.4400 -0.4670
49077SOL     OW58955   7.161  13.030   6.446 -0.3302  0.0301 -0.2774
49077SOL    HW158956   7.080  13.063   6.486 -0.3179  0.4225 -0.5714
49077SOL    HW258957   7.207  12.987   6.518 -0.1607  1.0067  0.2207
49078SOL     OW58958   9.757   9.367   6.701  0.2544  0.7231 -0.0928
49078SOL    HW158959   9.700   9.319   6.760 -0.8035  1.9595 -0.0615
49078SOL    HW258960   9.721   9.456   6.700  2.2114  1.5718 -0.0084
49079SOL     OW58961   2.424   0.916   3.817  0.8215 -0.1969 -0.5110
49079SOL    HW158962   2.407   0.878   3.903  0.0563  0.3919 -0.3915
49079SOL    HW258963   2.460   0.844   3.766  1.7500 -0.4346  0.4392
49080SOL     OW58964   8.099  10.406   3.578 -0.4358 -0.2220 -0.5783
49080SOL    HW158965   8.004  10.398   3.570 -0.5908 -1.1483  1.6934
49080SOL    HW258966   8.117  10.496   3.550 -1.9370 -0.0877 -1.2230
49081SOL     OW58967   3.435   2.165   8.732  0.0229  0.0533 -0.1319
49081SOL    HW158968   3.525   2.195   8.748 -0.1020  0.4431 -0.1393
49081SOL    HW258969   3.402   2.227   8.666 -1.7489  2.7807  3.0222
49082SOL     OW58970  11.338   6.427   6.504 -0.0791  0.1813  0.0913
49082SOL    HW158971  11.322   6.372   6.428 -2.4502  0.2861  0.4419
49082SOL    HW258972  11.393   6.374   6.561  0.1430 -0.6346 -0.8529
49083SOL     OW58973  13.660   8.020   1.156  1.3713  0.2057  0.4225
49083SOL    HW158974  13.692   8.058   1.238  0.2063  0.2253  0.8868
49083SOL    HW258975  13.566   8.039   1.156  1.0189 -1.3389 -0.0457
49084SOL     OW58976  12.869  12.694   2.391 -0.0532 -0.1168 -0.0290
49084SOL    HW158977  12.828  12.733   2.314 -2.7277  0.7615  1.6761
49084SOL    HW258978  12.901  12.769   2.442  3.6420 -0.7565 -1.1096
49085SOL     OW58979  10.891   3.218   2.920  0.4748  0.5283  0.1856
49085SOL    HW158980  10.984   3.218   2.898  0.5260  2.0092  0.2861
49085SOL    HW258981  10.851   3.272   2.851 -0.0652  1.1981  1.0082
49086SOL     OW58982  12.408   7.620   3.503  0.1616  0.3707  0.3453
49086SOL    HW158983  12.326   7.584   3.469  0.7266  0.3925 -1.1252
49086SOL    HW258984  12.427   7.568   3.581 -0.7253 -0.2963  0.1353
49087SOL     OW58985  12.855   7.923   0.012 -0.0584 -0.1105  0.2014
49087SOL    HW158986  12.887   7.834   0.026  1.0670  0.1666 -0.4767
49087SOL    HW258987  12.810   7.946   0.093 -2.2646 -2.0458 -0.3535
49088SOL     OW58988  11.748  11.525   5.024  0.1547 -0.1001  0.0405
49088SOL    HW158989  11.652  11.521   5.029  0.0634  1.4881  0.4304
49088SOL    HW258990  11.772  11.591   5.090  1.4465  0.1185 -0.6140
49089SOL     OW58991  13.602  10.974  13.392  0.3530  0.3411  0.4090
49089SOL    HW158992  13.535  11.003  13.329  1.0745  0.3052 -0.3898
49089SOL    HW258993  13.673  11.037  13.382 -0.0253  1.1122  2.1415
49090SOL     OW58994   1.826  10.248  11.949 -0.2046 -0.2008  0.4841
49090SOL    HW158995   1.781  10.199  11.881  0.2882  0.5505 -0.3970
49090SOL    HW258996   1.811  10.197  12.029 -1.0267 -0.9362 -0.1233
49091SOL     OW58997   1.548   3.303   3.869 -0.0708 -0.0721 -0.1246
49091SOL    HW158998   1.569   3.386   3.828  0.5302 -0.2124 -0.1040
49091SOL    HW258999   1.535   3.324   3.962  2.5531 -0.3633  0.3760
49092SOL     OW59000   3.399   8.613   1.459 -0.0166  0.0107 -0.1996
49092SOL    HW159001   3.461   8.671   1.501  1.0590 -2.7052  2.3217
49092SOL    HW259002   3.442   8.585   1.378 -0.8393  3.0114 -1.8083
49093SOL     OW59003   1.851  10.656   8.396 -0.3944 -0.9017  0.1516
49093SOL    HW159004   1.941  10.632   8.373 -0.2541 -0.7883  0.5691
49093SOL    HW259005   1.859  10.745   8.432 -0.6311 -0.9995  0.4508
49094SOL     OW59006   9.703   5.081   7.036 -0.4351  0.0043 -0.6924
49094SOL    HW159007   9.721   5.103   7.127 -0.4845 -1.4331 -0.3052
49094SOL    HW259008   9.620   5.123   7.016  0.1410  1.3133 -0.4669
49095SOL     OW59009   0.513   4.317   3.140 -0.2485 -0.0871  0.1076
49095SOL    HW159010   0.499   4.289   3.231 -1.6550  0.1372 -0.0237
49095SOL    HW259011   0.536   4.237   3.093  0.5812 -0.1897  0.6715
49096SOL     OW59012  10.718   5.267   7.595  0.1673  0.1315 -0.3184
49096SOL    HW159013  10.753   5.333   7.654  0.1874  0.6491 -0.8908
49096SOL    HW259014  10.703   5.190   7.650  0.0393  0.6464  0.3821
49097SOL     OW59015   9.246   3.538   6.038 -0.2846  0.1434 -0.7500
49097SOL    HW159016   9.289   3.593   5.973 -1.6655  0.9724 -0.9951
49097SOL    HW259017   9.308   3.465   6.053 -0.1565 -0.3675 -3.3524
49098SOL     OW59018   3.567   8.773   4.614  0.1655  0.1205  0.5443
49098SOL    HW159019   3.555   8.849   4.672 -1.3725  0.6592 -0.4272
49098SOL    HW259020   3.661   8.755   4.618  0.4345  1.5327  1.4624
49099SOL     OW59021  11.545   2.027   9.856 -0.6552 -0.4081 -0.2169
49099SOL    HW159022  11.619   2.000   9.910 -2.0772 -0.3414  1.8929
49099SOL    HW259023  11.467   2.001   9.906 -2.0714  1.4943 -1.2725
49100SOL     OW59024  11.276   8.499   3.523 -0.1921  0.1867  0.2719
49100SOL    HW159025  11.365   8.529   3.508 -0.4315  0.6701 -0.2242
49100SOL    HW259026  11.280   8.404   3.512  0.2952  0.1867  0.4396
49101SOL     OW59027   3.825   8.016  11.032 -0.0055 -0.0173 -0.6477
49101SOL    HW159028   3.896   8.073  11.000 -0.5434  1.0456 -0.0105
49101SOL    HW259029   3.751   8.036  10.975 -0.6079  0.9833  0.4457
49102SOL     OW59030   1.291   8.660   5.086 -0.0576 -0.4010 -0.0741
49102SOL    HW159031   1.350   8.717   5.135  0.7533  0.4799 -1.9814
49102SOL    HW259032   1.307   8.572   5.121  1.5419 -0.0111  0.2280
49103SOL     OW59033   1.885   9.276  11.821 -0.2530  0.2165 -0.0416
49103SOL    HW159034   1.792   9.282  11.845 -0.4746  0.0406 -0.8251
49103SOL    HW259035   1.931   9.272  11.905 -0.7994  2.2597  0.4267
49104SOL     OW59036  10.405   7.551  10.234 -0.1289 -0.2619 -0.3744
49104SOL    HW159037  10.454   7.469  10.237  0.4035  0.0852  2.1515
49104SOL    HW259038  10.316   7.525  10.209 -0.1193 -1.6980  0.9541
49105SOL     OW59039   4.865  12.978   0.185  0.0330 -1.0171 -0.2903
49105SOL    HW159040   4.950  12.961   0.227 -0.6114 -1.2346  0.9797
49105SOL    HW259041   4.802  12.929   0.238 -0.8461 -1.1702 -1.4453
49106SOL     OW59042   9.569   3.989   2.382  0.2873 -0.1109 -0.2931
49106SOL    HW159043   9.571   3.908   2.330  0.6306  0.8309 -1.8075
49106SOL    HW259044   9.476   4.008   2.393  0.2070 -0.4959 -0.2882
49107SOL     OW59045   5.432  10.158   2.496  0.2138 -0.3526 -0.4898
49107SOL    HW159046   5.478  10.217   2.556 -1.6668  1.7838 -1.0333
49107SOL    HW259047   5.386  10.098   2.554 -2.2299  2.1787  0.3992
49108SOL     OW59048   2.406   6.707   9.303  0.2841  0.1739  0.0175
49108SOL    HW159049   2.422   6.751   9.386 -1.5496 -0.9717  1.0374
49108SOL    HW259050   2.350   6.767   9.254  0.4547  0.3674  0.0581
49109SOL     OW59051   8.115   9.996   7.223 -0.1149  0.2043 -0.2061
49109SOL    HW159052   8.137  10.000   7.316  0.8615 -2.2835 -0.2600
49109SOL    HW259053   8.199   9.999   7.178 -0.3135 -1.8164 -0.8000
49110SOL     OW59054   9.173  11.538  12.904  0.2715  0.2105 -0.3441
49110SOL    HW159055   9.211  11.464  12.856 -0.7659  0.7253 -2.0226
49110SOL    HW259056   9.097  11.500  12.949  0.2977  0.0669 -0.4201
49111SOL     OW59057   5.118   3.569   8.395 -0.2154 -0.9945 -0.1587
49111SOL    HW159058   5.178   3.628   8.440 -0.1603 -1.4896  0.4294
49111SOL    HW259059   5.040   3.566   8.451 -0.1941 -1.5235 -0.1459
49112SOL     OW59060  11.162   9.061  11.632  0.0435  0.0537 -0.1259
49112SOL    HW159061  11.104   8.990  11.605 -0.0339  0.3566 -0.7950
49112SOL    HW259062  11.111   9.111  11.696 -1.1010  1.2564 -1.8880
49113SOL     OW59063   5.104   3.135   6.516  0.1144  0.7661 -0.4582
49113SOL    HW159064   5.046   3.069   6.555 -0.4079  0.6581 -1.3848
49113SOL    HW259065   5.189   3.119   6.557  0.0832 -0.7059 -0.8919
49114SOL     OW59066   1.699   2.007   6.192  0.1833 -0.5013  0.9371
49114SOL    HW159067   1.712   1.951   6.269 -0.3374 -1.5426  0.2866
49114SOL    HW259068   1.752   1.967   6.123 -0.5455 -0.4556  0.3352
49115SOL     OW59069   5.397   0.227   2.163  0.2003  0.0062 -0.3994
49115SOL    HW159070   5.426   0.241   2.073 -0.6562  0.2186 -0.6460
49115SOL    HW259071   5.468   0.176   2.203 -0.1859 -1.6564 -1.6878
49116SOL     OW59072  12.580  11.541   1.274  0.3724 -0.1775  0.1655
49116SOL    HW159073  12.590  11.539   1.369 -0.9875  0.3585  0.3341
49116SOL    HW259074  12.636  11.614   1.246  2.3270 -1.5552  0.3140
49117SOL     OW59075   4.666   4.485  11.369  0.2049 -0.1718  0.2275
49117SOL    HW159076   4.639   4.443  11.451  0.5272  0.0880  0.4681
49117SOL    HW259077   4.719   4.419  11.326  1.1571  0.1639  0.8523
49118SOL     OW59078  11.889   8.590  13.126  0.0088 -0.2541 -0.3689
49118SOL    HW159079  11.861   8.681  13.113  0.3293 -0.3615 -1.9001
49118SOL    HW259080  11.824   8.538  13.079 -0.7795 -0.9252  1.3799
49119SOL     OW59081   4.672   5.998  10.189  0.2914  0.2537  0.0333
49119SOL    HW159082   4.644   5.981  10.099  1.0150 -0.7774 -0.0129
49119SOL    HW259083   4.766   5.978  10.190 -0.2469 -3.0419  1.7334
49120SOL     OW59084   8.304   4.567  10.109 -0.4044  0.2379  0.1606
49120SOL    HW159085   8.375   4.537  10.051  0.1140  0.7132  0.5389
49120SOL    HW259086   8.234   4.504  10.095  1.1931 -2.1939  2.1363
49121SOL     OW59087  10.112   6.715   0.024 -0.0476 -0.1495 -0.5240
49121SOL    HW159088  10.142   6.682  -0.061  0.6793  0.9228 -0.7063
49121SOL    HW259089  10.106   6.810   0.012 -1.5334 -0.1300  0.1496
49122SOL     OW59090   2.034  10.120   3.562  0.8326 -0.1920 -0.0257
49122SOL    HW159091   2.089  10.065   3.618  0.2041 -1.0377 -0.2337
49122SOL    HW259092   2.092  10.149   3.492  1.4545  0.3342  0.6949
49123SOL     OW59093   8.290   1.969   2.116  0.2176 -0.0887 -0.5370
49123SOL    HW159094   8.303   2.063   2.124  0.7415 -0.1265 -0.8706
49123SOL    HW259095   8.210   1.951   2.165 -0.3487  0.6525 -1.1521
49124SOL     OW59096  11.434   2.164  12.052 -0.5210  0.0690  0.8721
49124SOL    HW159097  11.446   2.250  12.091 -1.3196  0.7589 -0.3382
49124SOL    HW259098  11.496   2.161  11.980 -0.4246 -0.4104  0.9723
49125SOL     OW59099   8.184   8.309   5.157  0.0999 -0.2478 -0.5925
49125SOL    HW159100   8.231   8.265   5.086 -0.5851  0.2177 -1.3487
49125SOL    HW259101   8.186   8.401   5.133 -0.7877 -0.1710 -0.4015
49126SOL     OW59102   0.372   8.421   6.351  0.2712 -0.3592 -0.0569
49126SOL    HW159103   0.294   8.474   6.337 -0.5464 -0.8824  2.1708
49126SOL    HW259104   0.429   8.476   6.405  0.5867 -0.7542  0.0172
49127SOL     OW59105  10.694   9.352   2.927 -0.9364  0.0860  0.0567
49127SOL    HW159106  10.720   9.270   2.969 -0.3142  0.3034  0.1142
49127SOL    HW259107  10.777   9.393   2.902 -1.2750  0.2483 -0.8303
49128SOL     OW59108   3.308  11.284   7.697 -0.5674 -0.1763 -0.1422
49128SOL    HW159109   3.300  11.191   7.676 -0.9025 -0.3657  0.8108
49128SOL    HW259110   3.381  11.288   7.759  0.3473  0.3702 -1.2210
49129SOL     OW59111  10.988   4.099   3.931 -0.3040 -0.4787 -0.2143
49129SOL    HW159112  10.981   4.165   3.862 -1.1627  1.4381  1.5910
49129SOL    HW259113  11.043   4.031   3.893 -1.3946  0.0795 -3.0582
49130SOL     OW59114  13.542  12.875   2.696 -0.3699  0.1950 -0.3503
49130SOL    HW159115  13.609  12.927   2.740 -0.8908 -0.1047  0.8220
49130SOL    HW259116  13.490  12.939   2.648  0.5948  0.4543 -1.0963
49131SOL     OW59117   2.481   9.484  11.803 -0.0975 -0.3827  0.6785
49131SOL    HW159118   2.566   9.521  11.779  0.3550 -0.7268  1.7034
49131SOL    HW259119   2.419   9.527  11.745  0.8683 -0.7069 -0.6360
49132SOL     OW59120   0.415   0.103   2.105 -0.5382 -0.2275  0.1672
49132SOL    HW159121   0.404   0.104   2.010 -2.2810  1.2541  0.3319
49132SOL    HW259122   0.356   0.171   2.137 -0.1638 -0.8419  2.3464
49133SOL     OW59123  10.590   7.246   4.920  0.0855  0.3003 -0.1099
49133SOL    HW159124  10.503   7.244   4.879  0.0352  1.6644 -0.1241
49133SOL    HW259125  10.579   7.197   5.001 -1.2195  1.9193  0.7776
49134SOL     OW59126  12.380   9.870   3.453  0.4570 -0.6628 -0.2240
49134SOL    HW159127  12.452   9.807   3.447 -0.9288 -2.3439 -0.0487
49134SOL    HW259128  12.319   9.844   3.384 -0.9233 -0.5950  0.9141
49135SOL     OW59129  11.215  12.653   1.721  0.1095 -0.3062 -0.1262
49135SOL    HW159130  11.294  12.609   1.689 -0.9727 -3.0004  0.6587
49135SOL    HW259131  11.219  12.643   1.816 -1.7253 -1.5815 -0.1408
49136SOL     OW59132   5.375   5.944   7.459 -0.1784 -0.2750 -0.0094
49136SOL    HW159133   5.412   5.856   7.456  1.8017  0.5205 -1.6936
49136SOL    HW259134   5.427   5.991   7.524 -0.1467  0.0863 -0.2903
49137SOL     OW59135   2.012   0.014   9.874  0.0748 -0.2946  0.2377
49137SOL    HW159136   2.034   0.107   9.862 -0.9655 -0.1062 -0.3476
49137SOL    HW259137   2.058  -0.030   9.803 -0.2104 -0.1018 -0.0680
49138SOL     OW59138   5.103  10.400  11.958 -0.0079 -0.2243 -0.3484
49138SOL    HW159139   5.044  10.334  11.922 -0.4283  0.2537 -0.5459
49138SOL    HW259140   5.047  10.454  12.014  0.0239  0.8247 -1.2945
49139SOL     OW59141   0.959   8.830   8.567  0.1674 -0.2036  0.2999
49139SOL    HW159142   1.030   8.888   8.593  0.5268  1.1205 -3.0275
49139SOL    HW259143   0.999   8.743   8.561  1.0783  0.2202  0.0686
49140SOL     OW59144   5.352   8.043   9.058  0.3445 -0.4456  0.1160
49140SOL    HW159145   5.319   8.106   9.122 -0.1133 -0.9485  0.3844
49140SOL    HW259146   5.434   8.081   9.028 -0.6376  1.0191 -0.8401
49141SOL     OW59147   9.140   3.564  13.236  0.0460  0.1190  0.2584
49141SOL    HW159148   9.068   3.558  13.299 -0.1172 -0.7950 -0.0008
49141SOL    HW259149   9.176   3.475  13.231 -0.8532 -0.1954 -1.9890
49142SOL     OW59150   3.752   0.968   9.495 -0.4117  0.3331  0.5622
49142SOL    HW159151   3.745   0.894   9.435  0.0276  0.7406 -0.0074
49142SOL    HW259152   3.826   0.947   9.551 -1.6194 -0.6598  1.8592
49143SOL     OW59153   8.807   0.419   1.679  0.7280  0.2166  0.1455
49143SOL    HW159154   8.895   0.455   1.667  0.6986 -0.0661 -1.0364
49143SOL    HW259155   8.762   0.485   1.732  1.0878  1.2744 -0.8121
49144SOL     OW59156   9.959  11.472   7.778  0.3845 -0.3728  0.1502
49144SOL    HW159157   9.951  11.471   7.682 -0.4589 -1.2794  0.2068
49144SOL    HW259158   9.946  11.563   7.803  0.9386 -0.0720 -0.6213
49145SOL     OW59159   1.640   5.687   1.166 -0.2412 -0.2824 -0.1553
49145SOL    HW159160   1.692   5.608   1.180  0.2744  0.3456  1.6888
49145SOL    HW259161   1.702   5.759   1.171 -1.0435  0.3850  0.4830
49146SOL     OW59162   0.947   8.502   7.524  0.4675 -0.2378 -0.3686
49146SOL    HW159163   0.973   8.594   7.535  0.2612 -0.4328  2.3394
49146SOL    HW259164   1.020   8.463   7.477  1.5009  0.9007  0.2229
49147SOL     OW59165  11.252   1.156   9.744  0.4437 -0.5720  0.3470
49147SOL    HW159166  11.215   1.144   9.656 -0.2035  2.4294  0.1257
49147SOL    HW259167  11.240   1.071   9.786 -0.6818 -1.6304 -1.9258
49148SOL     OW59168  11.842   0.102   2.505  0.0633 -0.9420 -0.0062
49148SOL    HW159169  11.889   0.101   2.588 -0.6348  0.1466  0.4277
49148SOL    HW259170  11.751   0.084   2.529 -0.1310 -0.7006 -0.5406
49149SOL     OW59171   9.855   1.932  11.594  0.1054  0.6153  0.3079
49149SOL    HW159172   9.799   1.894  11.662  0.3410 -0.3450 -0.0258
49149SOL    HW259173   9.918   1.863  11.573 -0.3795  0.6290 -1.3561
49150SOL     OW59174  13.541   8.901   5.990 -0.3842  0.0454  0.2189
49150SOL    HW159175  13.602   8.962   6.031 -1.1580  2.6906 -2.2153
49150SOL    HW259176  13.462   8.906   6.043 -0.7612  2.0053 -0.4378
49151SOL     OW59177  12.484   7.174   3.210 -0.8318  0.5305  0.4935
49151SOL    HW159178  12.526   7.138   3.132  1.6828  1.8250  1.1563
49151SOL    HW259179  12.468   7.097   3.266  1.3662  0.0274  0.5013
49152SOL     OW59180   5.131   9.841  11.996  0.0414  0.7689 -0.4024
49152SOL    HW159181   5.146   9.754  11.958  0.0700 -0.0593  1.3721
49152SOL    HW259182   5.171   9.835  12.083 -2.4510  1.5831  0.8976
49153SOL     OW59183  13.260   9.851   8.854 -0.1809 -0.4236 -0.7052
49153SOL    HW159184  13.238   9.924   8.797 -0.2169 -0.9681 -1.4063
49153SOL    HW259185  13.335   9.809   8.811  1.8067  0.9272  1.2159
49154SOL     OW59186   3.966   6.658  10.786  0.0946  0.3358  0.5585
49154SOL    HW159187   3.980   6.738  10.734  1.0734 -0.6809 -0.8184
49154SOL    HW259188   3.879   6.670  10.824 -0.6068  1.2437 -1.1618
49155SOL     OW59189  10.316   1.056  12.446 -0.4064 -0.4636 -0.1599
49155SOL    HW159190  10.306   0.985  12.509 -0.2341  0.9569  1.5851
49155SOL    HW259191  10.397   1.100  12.474 -0.2668  0.1481 -1.4660
49156SOL     OW59192   5.978  13.001   0.643  0.3581  0.3563 -0.4074
49156SOL    HW159193   5.915  12.932   0.663  1.0868  0.0765  1.0378
49156SOL    HW259194   5.958  13.027   0.553 -2.3273  0.8221  0.2519
49157SOL     OW59195   6.447   3.453   5.020  0.1332 -0.4058  0.3538
49157SOL    HW159196   6.496   3.456   5.102  1.5092 -0.2120 -0.4503
49157SOL    HW259197   6.402   3.368   5.022 -0.0907 -0.2717  1.4307
49158SOL     OW59198   2.252  11.368   7.032 -0.0031  0.2954  0.1178
49158SOL    HW159199   2.335  11.378   6.986 -0.5548  0.3599 -0.8946
49158SOL    HW259200   2.256  11.281   7.072 -0.6583 -1.0837 -2.5467
49159SOL     OW59201   9.970  13.457  11.712  0.2546 -0.5268 -0.0832
49159SOL    HW159202   9.887  13.439  11.757  0.0210 -1.0016 -0.6839
49159SOL    HW259203  10.031  13.478  11.783 -0.2804 -0.5526  0.3994
49160SOL     OW59204   7.280   3.901   2.325  0.4695 -0.1395  0.1383
49160SOL    HW159205   7.203   3.903   2.267  0.0495  0.7605  0.7155
49160SOL    HW259206   7.282   3.811   2.358  0.7401 -0.6862 -1.2961
49161SOL     OW59207   3.200  11.951   1.754 -0.1451  0.0578 -0.1609
49161SOL    HW159208   3.291  11.969   1.778 -0.3508  1.5898 -0.4348
49161SOL    HW259209   3.155  11.938   1.838  0.3195 -0.7110 -0.0247
49162SOL     OW59210   7.192   1.441   3.129  0.9918 -0.0163 -0.1882
49162SOL    HW159211   7.215   1.471   3.217  0.2382 -1.4402  0.5377
49162SOL    HW259212   7.129   1.371   3.144  0.1866  0.2884 -1.9120
49163SOL     OW59213  11.140  13.430   5.630 -0.1719  0.2452 -0.0320
49163SOL    HW159214  11.094  13.407   5.549  0.3312 -0.5050 -0.1157
49163SOL    HW259215  11.221  13.472   5.600 -0.8538  1.7103  0.1156
49164SOL     OW59216   0.864  10.663   4.172  0.5685  0.2480  0.0497
49164SOL    HW159217   0.886  10.743   4.123  2.7911  0.6449  1.5657
49164SOL    HW259218   0.939  10.649   4.229 -0.5492 -1.9919  1.0620
49165SOL     OW59219   0.961   0.659   0.832 -0.4041 -0.2964  0.2503
49165SOL    HW159220   1.052   0.661   0.862 -0.8930  0.0681  1.8152
49165SOL    HW259221   0.954   0.733   0.772  0.6733 -1.1907 -1.0262
49166SOL     OW59222   4.388   7.945  10.294 -0.6194  0.3381 -0.5466
49166SOL    HW159223   4.375   8.029  10.337 -1.3473  0.2758 -0.6277
49166SOL    HW259224   4.327   7.946  10.220  1.3036  0.8652 -2.2315
49167SOL     OW59225   4.449   1.225  11.443  0.5075 -0.2070 -0.1547
49167SOL    HW159226   4.532   1.182  11.463  0.1116 -0.4931  0.8978
49167SOL    HW259227   4.410   1.245  11.528  0.0257  0.9749 -0.6269
49168SOL     OW59228  12.700   0.990   3.277 -0.1810  0.1009  0.1085
49168SOL    HW159229  12.790   1.017   3.298  0.4081  0.3952 -2.4307
49168SOL    HW259230  12.695   0.898   3.304  1.0494 -0.0405 -0.0970
49169SOL     OW59231   7.501   7.986  11.522 -0.1422  0.3305 -0.2945
49169SOL    HW159232   7.558   7.963  11.449 -2.0047 -0.8900 -1.4506
49169SOL    HW259233   7.481   8.078  11.508  0.2439  0.3434 -0.8005
49170SOL     OW59234   9.095   9.653  13.709  0.0941  0.0156 -0.0853
49170SOL    HW159235   9.095   9.739  13.753  2.0716  0.4889 -0.9102
49170SOL    HW259236   9.101   9.590  13.781 -0.3782  0.6168  0.4900
49171SOL     OW59237   4.871   2.331   6.615 -0.3604  0.1030 -0.1714
49171SOL    HW159238   4.862   2.309   6.708 -1.1645 -0.2156 -0.3152
49171SOL    HW259239   4.799   2.285   6.572  0.1793  0.0043 -1.0009
49172SOL     OW59240  10.959   0.572   0.949 -0.6666 -0.7809 -0.4730
49172SOL    HW159241  10.975   0.597   0.858 -0.5928 -1.4755 -0.6528
49172SOL    HW259242  10.864   0.581   0.960 -0.6987 -0.8890 -0.6715
49173SOL     OW59243  12.743   3.729   0.952  0.1525 -0.3121 -0.2144
49173SOL    HW159244  12.795   3.652   0.974  0.3331 -0.0655  0.2220
49173SOL    HW259245  12.653   3.702   0.967  0.1395 -0.7519 -1.0062
49174SOL     OW59246   9.645   3.553  11.858  0.0091 -0.2956  0.5921
49174SOL    HW159247   9.668   3.518  11.772 -1.7330 -1.1646  0.4394
49174SOL    HW259248   9.604   3.638  11.839  0.4472 -0.0711  0.6415
49175SOL     OW59249   4.939  10.640   9.030 -0.1806 -0.3753  0.3686
49175SOL    HW159250   4.953  10.573   8.963  1.5447 -0.8636  1.1591
49175SOL    HW259251   4.970  10.721   8.990 -0.0608 -0.4899  0.2233
49176SOL     OW59252  11.062   0.259  12.681 -0.0055 -0.3840 -0.0584
49176SOL    HW159253  10.995   0.318  12.646 -0.3847 -0.7738  0.0118
49176SOL    HW259254  11.066   0.279  12.775 -2.3805 -2.6232  0.6049
49177SOL     OW59255   0.243   2.417   6.225 -0.2923 -0.4356 -0.0489
49177SOL    HW159256   0.198   2.478   6.283  0.4776  0.2496 -0.1524
49177SOL    HW259257   0.332   2.410   6.261  0.1819 -0.0273 -1.1117
49178SOL     OW59258  11.051  12.311   7.073  0.2342 -0.3838  0.0891
49178SOL    HW159259  11.004  12.248   7.019 -0.5686  0.0553  0.2600
49178SOL    HW259260  11.058  12.269   7.159 -0.9282  0.0382  0.4016
49179SOL     OW59261  12.011  10.244  12.017  0.3091  0.4743  0.1280
49179SOL    HW159262  11.956  10.208  11.947 -0.1889 -1.2782  1.3608
49179SOL    HW259263  11.951  10.296  12.070 -0.0776 -0.8887  1.0873
49180SOL     OW59264   9.236   4.845   4.971  0.0808 -0.2600  0.0192
49180SOL    HW159265   9.230   4.750   4.972 -0.5552 -0.2248  0.0388
49180SOL    HW259266   9.255   4.867   4.880  1.6292 -0.4726  0.2761
49181SOL     OW59267   0.398   0.008  10.868  0.4480 -0.4596 -0.4902
49181SOL    HW159268   0.450  -0.069  10.843 -0.7571 -0.8069 -2.1127
49181SOL    HW259269   0.376  -0.007  10.960  0.7344 -1.7768 -0.6099
49182SOL     OW59270   2.642   9.582  10.961  0.3077 -0.2092 -0.4241
49182SOL    HW159271   2.709   9.593  10.893 -0.0846  1.0378 -0.6299
49182SOL    HW259272   2.626   9.488  10.962  2.0884 -0.5542 -0.3352
49183SOL     OW59273  10.310  10.648  11.735 -0.0474  0.5321 -0.1477
49183SOL    HW159274  10.343  10.701  11.663 -0.8266  0.3469 -0.6548
49183SOL    HW259275  10.245  10.704  11.778 -0.9718 -0.0238 -0.7671
49184SOL     OW59276   9.675   3.502   6.223  0.2297  0.3881 -0.0718
49184SOL    HW159277   9.734   3.546   6.284 -0.1133  0.8787 -0.0816
49184SOL    HW259278   9.669   3.562   6.148 -0.9378  0.7682  0.2989
49185SOL     OW59279   2.887   2.230  11.712 -0.5577  0.0278 -0.3367
49185SOL    HW159280   2.858   2.243  11.621  0.7965 -0.5397 -0.8626
49185SOL    HW259281   2.818   2.271  11.764 -1.0090  1.0067 -1.6424
49186SOL     OW59282  13.677   0.613   1.823 -0.2897 -0.3837 -0.1794
49186SOL    HW159283  13.612   0.580   1.760 -0.0907 -0.4481 -0.3518
49186SOL    HW259284  13.740   0.662   1.769 -0.7104  0.4887  0.0997
49187SOL     OW59285   3.455  11.106  13.417 -0.0898  0.3667  0.3691
49187SOL    HW159286   3.364  11.106  13.389  0.4888 -2.0143 -1.8435
49187SOL    HW259287   3.482  11.198  13.413 -2.1706  1.0117  0.3786
49188SOL     OW59288   2.057   0.372   4.813 -0.3868  0.6902 -0.6417
49188SOL    HW159289   1.964   0.395   4.823 -0.2399  1.2915 -0.6023
49188SOL    HW259290   2.068   0.294   4.867 -0.8298  0.7271 -0.4903
49189SOL     OW59291  11.798   6.527  13.403  0.6403  0.0931 -0.6067
49189SOL    HW159292  11.852   6.512  13.481  0.2054 -2.0606 -0.6534
49189SOL    HW259293  11.849   6.588  13.350  2.1772 -0.4163  0.2112
49190SOL     OW59294  13.037  10.146  13.183 -0.2888  0.1624  0.0312
49190SOL    HW159295  13.066  10.085  13.115 -0.1902  0.9816 -0.6824
49190SOL    HW259296  12.965  10.102  13.226 -1.0883  0.0699 -1.3437
49191SOL     OW59297   9.471   6.195  10.814 -0.2352 -0.4255  0.0423
49191SOL    HW159298   9.396   6.140  10.838  0.1198 -1.2697 -0.7272
49191SOL    HW259299   9.441   6.242  10.736 -0.1130 -0.4705 -0.0334
49192SOL     OW59300   4.695  11.762   1.553 -0.0645  0.1043  0.3997
49192SOL    HW159301   4.635  11.704   1.600 -0.4414  1.0340  1.0942
49192SOL    HW259302   4.779  11.751   1.598 -0.4340  1.0244  1.3408
49193SOL     OW59303  11.448   2.397  10.307  0.3098  0.2417  0.3918
49193SOL    HW159304  11.520   2.442  10.352  0.9635  0.1640 -0.5558
49193SOL    HW259305  11.438   2.445  10.225  1.2222 -1.4968 -0.7841
49194SOL     OW59306  11.350   8.297  13.141 -0.0062  0.5953 -0.4139
49194SOL    HW159307  11.303   8.349  13.207  0.6682  0.8816 -0.1490
49194SOL    HW259308  11.290   8.226  13.119 -0.3315  0.6280  0.3436
49195SOL     OW59309  11.455   1.761   2.130 -0.0332  0.2801 -0.0128
49195SOL    HW159310  11.378   1.758   2.185 -0.6954  0.1048 -0.9286
49195SOL    HW259311  11.528   1.739   2.188 -0.7655 -0.3131  0.6873
49196SOL     OW59312   4.156   2.603   3.280  0.3058 -0.6098  0.7828
49196SOL    HW159313   4.128   2.612   3.189  0.3527 -0.2658  0.8007
49196SOL    HW259314   4.195   2.688   3.301  1.5749 -1.1596  0.6838
49197SOL     OW59315   8.453   7.497   1.540 -0.1957 -0.0673  0.0917
49197SOL    HW159316   8.491   7.581   1.517 -0.1402  0.1310  0.8648
49197SOL    HW259317   8.380   7.486   1.479 -1.1233  1.2363  0.8827
49198SOL     OW59318   6.231  13.211  12.319 -0.0083  0.2159 -0.0650
49198SOL    HW159319   6.283  13.174  12.248  1.3418 -0.7907  1.3769
49198SOL    HW259320   6.295  13.259  12.373 -0.6420 -0.5743  1.4463
49199SOL     OW59321   8.211   6.170   0.882 -0.2101 -0.6342 -0.2270
49199SOL    HW159322   8.302   6.168   0.852 -0.6061 -0.8205 -1.4933
49199SOL    HW259323   8.200   6.089   0.932 -0.0377 -1.2902 -1.2203
49200SOL     OW59324   9.085   3.662   0.957 -0.0940 -0.6295 -0.4934
49200SOL    HW159325   9.068   3.567   0.957 -2.2076 -0.3170  0.8605
49200SOL    HW259326   9.071   3.689   0.867  0.5866 -1.5959 -0.9089
49201SOL     OW59327   9.621  10.415   4.864  0.1438  0.5141 -0.4369
49201SOL    HW159328   9.609  10.320   4.854 -1.9740  0.5880  0.8031
49201SOL    HW259329   9.578  10.453   4.787  0.4913  0.4802 -0.6468
49202SOL     OW59330  13.346   6.830   3.651 -0.0778  0.2293  0.3783
49202SOL    HW159331  13.435   6.800   3.638 -0.0339  0.3276  0.4481
49202SOL    HW259332  13.345   6.919   3.614 -0.6052 -0.4203 -1.2563
49203SOL     OW59333   2.316   6.887   9.801  0.1694 -0.0444 -0.0256
49203SOL    HW159334   2.341   6.973   9.835 -2.5969  0.7051  0.4210
49203SOL    HW259335   2.351   6.825   9.865 -0.5694  1.0125  1.4685
49204SOL     OW59336  13.424   4.213   7.779  0.3454 -0.5525 -0.7900
49204SOL    HW159337  13.498   4.216   7.841 -0.0613  0.9470 -0.3256
49204SOL    HW259338  13.384   4.299   7.787 -1.7650 -1.4968 -0.6836
49205SOL     OW59339   6.313   0.821  13.119  0.4310 -0.4910 -0.1897
49205SOL    HW159340   6.325   0.777  13.204  1.4420 -0.5436 -0.3420
49205SOL    HW259341   6.219   0.831  13.110  0.2660 -1.2498  0.5593
49206SOL     OW59342   2.038   5.687   6.932 -0.5304  0.1768 -0.4164
49206SOL    HW159343   2.110   5.687   6.869  0.0192  1.1589  0.1917
49206SOL    HW259344   2.070   5.740   7.006 -0.8823 -1.4975  1.0080
49207SOL     OW59345   0.700  12.299   8.403 -0.1226 -0.3627 -0.1000
49207SOL    HW159346   0.744  12.286   8.487  1.0147  1.1460 -0.4066
49207SOL    HW259347   0.607  12.300   8.424  0.1405 -0.1384  1.1361
49208SOL     OW59348  12.291   2.275   6.133 -0.1900  0.1730  0.0515
49208SOL    HW159349  12.349   2.258   6.207 -0.7859  1.1293  0.7576
49208SOL    HW259350  12.268   2.367   6.142 -0.7099  0.1525 -1.0199
49209SOL     OW59351   3.440   6.881   9.660  0.4414  0.2240 -0.3539
49209SOL    HW159352   3.376   6.810   9.662  0.3698  0.2028  3.0136
49209SOL    HW259353   3.388   6.961   9.661  0.5078  0.2821 -1.1495
49210SOL     OW59354   9.626   6.613   1.356  0.2653  0.0498 -0.1202
49210SOL    HW159355   9.534   6.634   1.341  0.3605  1.1622  0.7393
49210SOL    HW259356   9.674   6.669   1.295  0.4159  0.3745  0.2924
49211SOL     OW59357   9.713  12.802   8.694  0.6051  0.1862  0.2729
49211SOL    HW159358   9.625  12.809   8.733  1.0996 -0.7957  1.6644
49211SOL    HW259359   9.756  12.735   8.747  1.3894 -1.1369 -1.9305
49212SOL     OW59360  13.300   0.960  10.622  0.1632  0.0258 -0.2347
49212SOL    HW159361  13.358   0.893  10.587 -1.7308 -0.5660 -2.4369
49212SOL    HW259362  13.293   1.025  10.552 -0.6410  0.8396  0.5726
49213SOL     OW59363   1.161  10.922  11.320 -0.5479 -0.3361  0.2020
49213SOL    HW159364   1.171  10.922  11.225  0.8604 -1.5495  0.3129
49213SOL    HW259365   1.233  10.976  11.352  0.3510 -1.7071  0.6285
49214SOL     OW59366   9.180   3.680   5.010 -0.5207  0.7770  0.2870
49214SOL    HW159367   9.256   3.727   4.975 -0.2173  0.3109  0.3124
49214SOL    HW259368   9.210   3.643   5.093 -0.7111  0.4144  0.1962
49215SOL     OW59369   2.756  12.724  12.848 -0.3703 -0.4954  0.3395
49215SOL    HW159370   2.703  12.804  12.851 -1.0940 -0.9771  0.4664
49215SOL    HW259371   2.837  12.748  12.894  0.8812  1.1837 -2.4570
49216SOL     OW59372   6.728   4.668  10.610 -0.1013  0.0244  0.4851
49216SOL    HW159373   6.707   4.753  10.648  0.6034  0.1887  0.5111
49216SOL    HW259374   6.755   4.687  10.520  0.7908 -0.0834  0.7206
49217SOL     OW59375   0.216  13.645   6.628 -0.2432  0.3098 -0.0805
49217SOL    HW159376   0.257  13.601   6.702  1.2766 -0.0435 -1.0697
49217SOL    HW259377   0.126  13.614   6.628 -0.2599  0.2788  1.5608
49218SOL     OW59378   4.692   4.774  10.033  0.0530  0.1286  0.0655
49218SOL    HW159379   4.683   4.855   9.981  0.3659  0.1071 -0.0247
49218SOL    HW259380   4.782   4.776  10.064 -0.5015  0.8205  1.7491
49219SOL     OW59381   8.375   7.789   7.082 -0.1202  0.1703 -0.2659
49219SOL    HW159382   8.282   7.772   7.072  0.0911 -0.4675 -1.3290
49219SOL    HW259383   8.380   7.863   7.142 -1.2356 -0.9256  1.2575
49220SOL     OW59384   3.390   3.928   6.335 -0.2031  0.3821  0.1353
49220SOL    HW159385   3.416   3.940   6.427 -2.9692  1.4727  0.8829
49220SOL    HW259386   3.338   3.848   6.335 -1.4133  1.1471 -0.1532
49221SOL     OW59387  12.942   7.752   2.966  0.1087  0.0429  0.1684
49221SOL    HW159388  13.027   7.739   3.008  0.2704  0.8183  0.0914
49221SOL    HW259389  12.937   7.683   2.900  1.7020  1.3865 -1.4378
49222SOL     OW59390  12.111   8.052   9.375  0.4069 -0.2454  0.4390
49222SOL    HW159391  12.131   8.065   9.467  0.9419  2.2937  0.0436
49222SOL    HW259392  12.023   8.013   9.374  0.7983 -1.2669  1.9878
49223SOL     OW59393   9.451   5.505  10.227  0.5316  0.8595 -1.0132
49223SOL    HW159394   9.486   5.436  10.169  0.6172 -0.6920  0.7771
49223SOL    HW259395   9.357   5.507  10.208  0.4101 -0.2744 -0.6146
49224SOL     OW59396   3.174   4.340   7.873 -0.7153 -0.4758 -0.1186
49224SOL    HW159397   3.091   4.386   7.857  0.5849  1.2402 -2.6046
49224SOL    HW259398   3.189   4.292   7.791  2.5717  2.4431 -1.4790
49225SOL     OW59399   0.970   9.628   1.344 -0.0668  0.5000  0.4629
49225SOL    HW159400   0.948   9.556   1.403  2.3792 -0.6259  0.1382
49225SOL    HW259401   0.969   9.589   1.257  0.4213  1.0655  0.1969
49226SOL     OW59402   0.413  13.155  12.456  0.9509 -0.6923 -0.5294
49226SOL    HW159403   0.347  13.214  12.494  2.4197  0.8609 -0.2854
49226SOL    HW259404   0.404  13.166  12.362 -0.7677 -2.3908 -0.6300
49227SOL     OW59405   5.175   7.706  12.578  1.1496  0.2807 -0.1931
49227SOL    HW159406   5.206   7.778  12.524  2.5619 -1.4813 -1.8882
49227SOL    HW259407   5.089   7.684  12.542  0.6499  1.1451  0.4210
49228SOL     OW59408   8.679   6.247  10.758  0.7182  0.3940  0.7575
49228SOL    HW159409   8.616   6.314  10.787  1.6099  1.1097  1.1163
49228SOL    HW259410   8.752   6.298  10.722  0.3186 -0.4524 -1.3648
49229SOL     OW59411  10.631   5.053   4.844 -0.6639 -0.1140  0.1561
49229SOL    HW159412  10.538   5.029   4.848 -0.5135 -0.6653  0.5062
49229SOL    HW259413  10.678   4.969   4.845 -0.2041  0.0493 -2.4772
49230SOL     OW59414   5.172   5.230  10.398  0.1523 -0.3315  0.6925
49230SOL    HW159415   5.253   5.281  10.388 -0.0681  0.1649  1.4045
49230SOL    HW259416   5.102   5.289  10.371 -0.0791 -0.3334  1.2625
49231SOL     OW59417  10.320   5.338   7.687  0.3379  0.2551 -0.0918
49231SOL    HW159418  10.291   5.284   7.614  0.1497  0.2375 -0.0036
49231SOL    HW259419  10.359   5.277   7.749 -2.0210 -0.1428  1.1282
49232SOL     OW59420  13.403   4.371   2.982  0.5515  0.4472  0.0380
49232SOL    HW159421  13.459   4.407   3.051 -1.9252  0.0772  2.4319
49232SOL    HW259422  13.366   4.448   2.938  2.8206  0.6935 -1.6179
49233SOL     OW59423  13.206   2.447   5.481 -0.0440  0.2398 -0.4448
49233SOL    HW159424  13.224   2.470   5.572 -0.0650 -1.8078  0.1355
49233SOL    HW259425  13.205   2.351   5.480 -0.6842  0.2070 -2.4865
49234SOL     OW59426  10.121   1.781   6.933  0.7654 -0.2872 -0.0626
49234SOL    HW159427  10.216   1.779   6.919  0.4177  0.2552 -3.2988
49234SOL    HW259428  10.103   1.869   6.965  1.4897 -1.1436  3.0898
49235SOL     OW59429   6.953   0.468   6.678  0.1798 -0.1732 -0.2839
49235SOL    HW159430   6.861   0.450   6.699  0.5857  0.0967  1.8740
49235SOL    HW259431   6.990   0.382   6.656 -0.0628 -0.6265  1.0339
49236SOL     OW59432   7.330   1.684   3.872 -0.3701 -0.5062 -0.2134
49236SOL    HW159433   7.288   1.769   3.875  2.5149  1.0354  1.4510
49236SOL    HW259434   7.320   1.649   3.961 -1.3292 -1.8572 -0.8158
49237SOL     OW59435   0.183   3.652  12.453  0.0934  0.1223  1.0592
49237SOL    HW159436   0.190   3.576  12.512 -0.9457 -0.6077  0.2838
49237SOL    HW259437   0.109   3.702  12.488 -0.5232 -0.3105  0.4076
49238SOL     OW59438   7.936   4.722   9.852  0.1244  0.3244 -0.3458
49238SOL    HW159439   7.953   4.815   9.869  0.3674  0.1313  0.5249
49238SOL    HW259440   7.842   4.718   9.834  0.0543  0.7056 -0.0906
49239SOL     OW59441  12.654   6.421   3.934 -0.0153 -0.2910 -0.0711
49239SOL    HW159442  12.646   6.326   3.933 -0.4293 -0.2721  0.9514
49239SOL    HW259443  12.625   6.448   3.847 -4.4264 -0.7728  1.0425
49240SOL     OW59444   0.171   9.520   9.445 -0.0437 -0.2960 -0.1616
49240SOL    HW159445   0.262   9.530   9.418  1.2143 -1.3184  3.1953
49240SOL    HW259446   0.158   9.426   9.451 -1.7422 -0.2099 -1.6033
49241SOL     OW59447   1.379   9.361   0.815 -0.5414  0.0170  0.0760
49241SOL    HW159448   1.471   9.371   0.794  0.4450 -0.6821  3.4408
49241SOL    HW259449   1.348   9.450   0.832  0.2601  0.0783  1.3894
49242SOL     OW59450  11.117  10.349  11.650  0.0289  0.7941  0.5092
49242SOL    HW159451  11.163  10.298  11.717  0.5961  1.4132  0.6062
49242SOL    HW259452  11.171  10.338  11.572 -1.3346 -1.0070 -0.2276
49243SOL     OW59453  12.165   7.525   3.377 -0.1822  0.0539  0.4605
49243SOL    HW159454  12.155   7.467   3.454 -0.1055 -1.0038 -0.3003
49243SOL    HW259455  12.075   7.542   3.349 -0.1964  0.0651  0.5121
49244SOL     OW59456   1.922   0.356   6.937 -0.1501  0.2550  0.1905
49244SOL    HW159457   1.943   0.325   7.025  0.2084 -1.1722 -0.3705
49244SOL    HW259458   1.861   0.292   6.902  1.1744 -0.2731 -1.2777
49245SOL     OW59459   3.006   7.530   2.752 -0.4262 -0.6022  0.5634
49245SOL    HW159460   2.988   7.446   2.792 -0.1747 -0.9268  0.0147
49245SOL    HW259461   3.100   7.543   2.765  0.4263 -2.2955 -2.7415
49246SOL     OW59462   3.843   1.409   3.101 -0.1536 -0.4635 -0.2993
49246SOL    HW159463   3.888   1.494   3.106  0.2176 -0.6108 -1.0220
49246SOL    HW259464   3.891   1.353   3.162 -0.3569 -0.1783  0.1297
49247SOL     OW59465  13.670  13.666   9.747 -0.1560 -0.0502 -0.3394
49247SOL    HW159466  13.606  13.709   9.690 -0.1202  0.1951 -0.1955
49247SOL    HW259467  13.646  13.694   9.836 -0.6132 -0.9535 -0.1733
49248SOL     OW59468   9.343   2.829   0.522  0.0081 -0.2089 -0.0956
49248SOL    HW159469   9.368   2.802   0.611  1.0997 -0.0849 -0.3465
49248SOL    HW259470   9.426   2.834   0.475 -0.5029  0.3463 -0.9583
49249SOL     OW59471   5.680   5.756   8.718 -0.1053  0.1068 -0.3693
49249SOL    HW159472   5.695   5.762   8.813 -1.4136 -1.8392  0.0155
49249SOL    HW259473   5.705   5.666   8.695 -1.7134 -0.0980 -1.4750
49250SOL     OW59474   2.006  13.053   5.750  0.3004  0.2978  0.9355
49250SOL    HW159475   2.029  13.145   5.763 -0.5986  0.4401  1.6481
49250SOL    HW259476   1.925  13.056   5.699 -0.6390 -0.0242  2.3519
49251SOL     OW59477   2.742   0.321  10.383  0.2428 -0.0989 -0.4247
49251SOL    HW159478   2.793   0.283  10.455  0.5848  1.4243  0.1777
49251SOL    HW259479   2.808   0.361  10.326 -0.1576  0.4732 -0.4988
49252SOL     OW59480   4.882   7.074   9.991  0.4420 -0.2253 -0.1096
49252SOL    HW159481   4.822   7.002   9.971  0.1214 -0.3391  1.1794
49252SOL    HW259482   4.923   7.095   9.907 -0.7669 -0.7218 -0.8481
49253SOL     OW59483   4.056   5.645   5.746 -0.3010  0.0712  0.1662
49253SOL    HW159484   4.097   5.571   5.792  0.2719 -0.0660 -0.5461
49253SOL    HW259485   3.968   5.614   5.725 -0.4830  0.0439  0.9395
49254SOL     OW59486   5.743   6.049   9.529  0.3400  0.1005 -0.2957
49254SOL    HW159487   5.653   6.027   9.504  0.2194  0.4973 -0.2081
49254SOL    HW259488   5.751   6.020   9.620  0.2974  0.0833 -0.2976
49255SOL     OW59489   2.241   3.771   3.575 -0.2182 -0.6064 -0.0090
49255SOL    HW159490   2.193   3.817   3.506 -0.8560 -0.8655  0.2549
49255SOL    HW259491   2.187   3.695   3.595  0.1072 -0.6864  0.5726
49256SOL     OW59492  10.984  13.545  10.132  0.2679  0.2576 -0.2651
49256SOL    HW159493  11.027  13.627  10.156  0.6381 -0.2289  0.7846
49256SOL    HW259494  11.056  13.486  10.110 -0.0470  0.5859 -2.3270
49257SOL     OW59495   2.838  12.956   9.110  0.6585 -0.2673  0.2265
49257SOL    HW159496   2.808  13.000   9.031 -0.5587  0.3662  0.9957
49257SOL    HW259497   2.826  13.022   9.179  1.0652 -1.0232  1.0409
49258SOL     OW59498   7.123   2.200   0.351  0.0662 -0.0906  0.4671
49258SOL    HW159499   7.048   2.209   0.292 -0.2446 -0.3218  0.8280
49258SOL    HW259500   7.099   2.250   0.429 -0.0243 -0.7625  0.8802
49259SOL     OW59501   1.863   7.833   9.701 -0.1976 -0.5880 -0.5760
49259SOL    HW159502   1.910   7.894   9.644 -0.7449 -0.6037 -1.0497
49259SOL    HW259503   1.790   7.885   9.737  1.5223  0.1809  2.1007
49260SOL     OW59504   3.967   1.118  13.082 -0.0072  0.0206  1.0674
49260SOL    HW159505   3.881   1.142  13.050  0.3112  1.2936  1.1138
49260SOL    HW259506   3.961   1.126  13.177 -0.8049 -3.2665  1.4373
49261SOL     OW59507   1.230   0.298  13.343  0.5854 -0.6063 -0.0067
49261SOL    HW159508   1.278   0.215  13.341 -0.5810 -1.3876  1.8670
49261SOL    HW259509   1.287   0.356  13.395  1.0857 -0.4114 -0.7498
49262SOL     OW59510   9.253  11.932   8.260 -0.0183 -0.5865 -0.5468
49262SOL    HW159511   9.293  11.949   8.175  0.7185  1.0158  0.0634
49262SOL    HW259512   9.220  11.843   8.254  1.2555 -1.0154 -2.0285
49263SOL     OW59513   9.578   2.348  11.514 -0.3766  0.4627 -0.2776
49263SOL    HW159514   9.549   2.372  11.426 -0.2793 -0.6948 -0.6393
49263SOL    HW259515   9.580   2.431  11.562 -2.7331  0.8317 -0.6697
49264SOL     OW59516   0.109  11.476   5.861 -0.2679  0.5309  0.5650
49264SOL    HW159517   0.142  11.498   5.774  0.2432 -1.0442  0.3225
49264SOL    HW259518   0.074  11.558   5.896 -2.7439  0.7461 -2.0728
49265SOL     OW59519   3.885   1.648   8.191 -0.4458  0.0637  0.2488
49265SOL    HW159520   3.962   1.701   8.171 -1.5252  1.5570 -0.1501
49265SOL    HW259521   3.875   1.654   8.286  0.2299 -0.6083  0.3741
49266SOL     OW59522   6.107   9.229   8.355 -0.0771  0.8314  0.3434
49266SOL    HW159523   6.127   9.165   8.424 -0.6376  0.7488  0.4284
49266SOL    HW259524   6.129   9.314   8.394  0.6247  0.7041  0.2467
49267SOL     OW59525   6.917   1.905  12.431 -0.2862 -0.5490  0.1086
49267SOL    HW159526   6.902   1.986  12.479 -0.9115 -1.1414  0.9446
49267SOL    HW259527   6.979   1.856  12.485 -0.4580 -0.9315 -0.0366
49268SOL     OW59528   1.620  12.218   7.582  0.6202 -0.0679 -0.3784
49268SOL    HW159529   1.560  12.281   7.543 -0.1177 -1.3292 -1.3790
49268SOL    HW259530   1.699  12.224   7.530  0.7508  0.4095 -0.1263
49269SOL     OW59531  11.413   9.788  12.357  0.6952 -0.1594 -0.5957
49269SOL    HW159532  11.371   9.729  12.294 -0.0803  0.9220 -1.1342
49269SOL    HW259533  11.346   9.854  12.375  0.3926 -1.1594  2.4375
49270SOL     OW59534   6.295   1.168  10.523  0.3247 -0.2643  0.2911
49270SOL    HW159535   6.272   1.176  10.430 -0.2873 -4.3877 -0.0628
49270SOL    HW259536   6.241   1.234  10.566 -1.4602 -0.0917 -1.9911
49271SOL     OW59537   8.713  13.650   7.257 -0.5724 -0.2122 -0.0602
49271SOL    HW159538   8.627  13.655   7.298 -0.5761 -0.3749 -0.0490
49271SOL    HW259539   8.737  13.742   7.241  0.6445  0.0712  2.8270
49272SOL     OW59540   3.298   2.911   4.053 -0.0691  0.5073 -0.4255
49272SOL    HW159541   3.242   2.842   4.088 -0.1517  1.1154  0.6776
49272SOL    HW259542   3.385   2.892   4.090  0.7159 -0.9101 -2.7652
49273SOL     OW59543   4.534  13.522   6.924  0.0202 -0.6289 -1.2490
49273SOL    HW159544   4.593  13.453   6.894 -0.2452 -0.3361 -2.5231
49273SOL    HW259545   4.446  13.489   6.905 -0.3092 -1.2809  1.0960
49274SOL     OW59546   6.626   0.831   2.432  0.4297 -0.2242  0.3010
49274SOL    HW159547   6.648   0.881   2.353 -1.9236  0.8331  0.2349
49274SOL    HW259548   6.568   0.889   2.482  1.3984 -1.0912  2.5573
49275SOL     OW59549  12.100   6.063   8.143 -0.3626 -0.3050  0.3670
49275SOL    HW159550  12.133   6.068   8.232 -0.9039  1.9212  0.4905
49275SOL    HW259551  12.161   6.115   8.091 -0.1644 -1.4032 -0.5648
49276SOL     OW59552  12.144   9.242   3.469  0.0933 -0.3006  0.1335
49276SOL    HW159553  12.074   9.287   3.516  0.4368  2.4487 -1.7395
49276SOL    HW259554  12.106   9.220   3.384  0.9144 -0.5349 -0.1888
49277SOL     OW59555   1.183   0.378   4.720 -0.3341 -0.1954 -0.0098
49277SOL    HW159556   1.240   0.403   4.792  0.9866 -1.2533 -0.6346
49277SOL    HW259557   1.204   0.286   4.704 -3.6034 -1.2628  0.9684
49278SOL     OW59558  12.758   0.271  11.449 -0.4726 -0.3919  0.0443
49278SOL    HW159559  12.676   0.272  11.399 -1.0095 -1.3834  0.8526
49278SOL    HW259560  12.730   0.275  11.541  0.4017 -0.4076  0.3218
49279SOL     OW59561  11.905   1.672   9.784 -0.3570  0.5071 -0.0639
49279SOL    HW159562  11.889   1.587   9.744  1.7458  0.4078 -0.8057
49279SOL    HW259563  11.897   1.657   9.878  1.6499 -0.9450 -0.0804
49280SOL     OW59564   0.981   9.977   0.720  0.7344 -0.2277 -0.0367
49280SOL    HW159565   1.044  10.036   0.679 -0.1878  1.2571  0.6366
49280SOL    HW259566   0.986   9.997   0.814 -2.3802  1.6542 -0.1535
49281SOL     OW59567   6.939   8.057  10.009  0.2072 -0.2494 -0.3898
49281SOL    HW159568   6.845   8.040  10.000 -0.0101  0.6826  0.0646
49281SOL    HW259569   6.945   8.119  10.081  1.1833 -0.3270 -0.4000
49282SOL     OW59570  10.405   8.190   3.641  1.3241  0.1652 -0.4996
49282SOL    HW159571  10.494   8.206   3.612  1.3276  1.3338  0.1104
49282SOL    HW259572  10.350   8.225   3.571  1.3322 -0.0854 -0.6346
49283SOL     OW59573   7.798   0.011   7.728  0.3642  0.4658 -0.8379
49283SOL    HW159574   7.853  -0.000   7.805  0.6537  0.2021 -1.0766
49283SOL    HW259575   7.756   0.096   7.740 -0.2590  0.0537  0.0231
49284SOL     OW59576  10.413   1.312  12.886 -0.3619  0.4737  0.5464
49284SOL    HW159577  10.495   1.279  12.923 -0.1043  2.2690  1.7004
49284SOL    HW259578  10.354   1.237  12.889  0.1436  0.0937  3.2164
49285SOL     OW59579  11.550   5.510   0.013  0.1138  0.0298  0.5734
49285SOL    HW159580  11.623   5.457  -0.020 -0.7802 -1.3459  0.7685
49285SOL    HW259581  11.571   5.599  -0.016  0.8420 -0.6593 -1.1658
49286SOL     OW59582   3.295   2.506  13.590  0.0146 -0.0630  0.2011
49286SOL    HW159583   3.247   2.434  13.630 -0.3237 -0.0260 -0.1372
49286SOL    HW259584   3.382   2.471  13.574 -0.0019 -0.2406  0.4897
49287SOL     OW59585   9.037   4.069   5.177 -0.0740 -0.4755  0.1892
49287SOL    HW159586   9.031   4.160   5.148 -0.3521 -0.5413  0.0355
49287SOL    HW259587   9.127   4.043   5.157 -0.2925 -0.5583 -0.7415
49288SOL     OW59588   2.119   8.986   6.921  0.1518 -0.7569 -0.1025
49288SOL    HW159589   2.072   8.964   7.002  2.1378  0.8493  1.5835
49288SOL    HW259590   2.178   8.912   6.907 -0.4028 -1.1764 -0.2981
49289SOL     OW59591   6.977   8.438   0.644  0.4356  0.2350  0.2455
49289SOL    HW159592   6.934   8.518   0.674  0.8300  0.3978  0.3886
49289SOL    HW259593   7.054   8.430   0.701  0.9915  0.3481 -0.4791
49290SOL     OW59594   0.201   7.007   9.206 -0.4108 -0.0747 -0.1545
49290SOL    HW159595   0.278   6.960   9.173 -0.8018 -0.5727 -0.3795
49290SOL    HW259596   0.128   6.947   9.190 -0.9552  0.6870 -0.6311
49291SOL     OW59597  10.361   8.158  12.193  0.5082  0.0057 -0.0587
49291SOL    HW159598  10.363   8.174  12.099 -2.6363 -1.7612 -0.5889
49291SOL    HW259599  10.330   8.241  12.231  2.1208  0.8367 -0.4620
49292SOL     OW59600   1.743  11.407   4.169  0.3639  0.5705 -0.4894
49292SOL    HW159601   1.774  11.418   4.259 -0.5220 -0.1471 -0.0753
49292SOL    HW259602   1.809  11.353   4.127 -0.2449 -0.8827  0.3605
49293SOL     OW59603  11.123   7.525   2.937  0.4151 -0.3177 -0.1680
49293SOL    HW159604  11.081   7.473   3.006 -1.4274  0.2400 -0.8092
49293SOL    HW259605  11.093   7.615   2.954  0.2454 -0.1156 -1.4510
49294SOL     OW59606   2.723   0.143   4.991  0.6722  0.4661 -0.0516
49294SOL    HW159607   2.762   0.211   5.045  2.0795  0.1675 -0.6430
49294SOL    HW259608   2.634   0.172   4.976  0.6514  1.1833  1.3479
49295SOL     OW59609   0.165  10.630  11.464  0.0684  0.1019 -0.3655
49295SOL    HW159610   0.217  10.705  11.434  1.5654 -0.9251 -0.4575
49295SOL    HW259611   0.212  10.597  11.540 -0.7555 -0.5463 -0.1255
49296SOL     OW59612   4.864  11.921   6.559  0.3849  0.3110 -0.5611
49296SOL    HW159613   4.903  11.993   6.509  1.3217 -0.9101 -1.6797
49296SOL    HW259614   4.772  11.924   6.536  0.2630  1.5741 -0.0189
49297SOL     OW59615   6.331  11.930   1.349 -0.5748 -0.2310 -0.1915
49297SOL    HW159616   6.254  11.985   1.361 -2.1464 -2.7463  2.5499
49297SOL    HW259617   6.364  11.916   1.438  1.6144 -1.1983 -1.1005
49298SOL     OW59618  12.821   1.370  12.553 -0.0384 -0.2176 -0.3422
49298SOL    HW159619  12.879   1.428  12.504  0.9093  0.5350  1.5656
49298SOL    HW259620  12.743   1.362  12.498  0.5738  1.3264 -1.5095
49299SOL     OW59621  11.451   2.751   1.799  0.4350  0.7624  0.0894
49299SOL    HW159622  11.542   2.768   1.824  0.4488 -0.3977  0.9022
49299SOL    HW259623  11.458   2.690   1.725  0.3156  0.9106 -0.0451
49300SOL     OW59624   3.792   6.239   4.125 -0.5280  0.1302  0.1498
49300SOL    HW159625   3.816   6.226   4.033  0.4919 -0.0847  0.4333
49300SOL    HW259626   3.850   6.179   4.173 -0.7338  0.5780  0.9629
49301SOL     OW59627   3.242   1.056   1.470  0.0787 -0.5484  0.7128
49301SOL    HW159628   3.264   1.074   1.379 -2.1724 -1.0596 -0.0055
49301SOL    HW259629   3.268   0.965   1.484  2.2768  0.1082  1.2606
49302SOL     OW59630   7.278   5.827  12.207  0.1797  0.4668 -0.6601
49302SOL    HW159631   7.185   5.847  12.221  0.0547 -1.2700  1.4806
49302SOL    HW259632   7.304   5.886  12.136 -2.0248  2.4086  0.0020
49303SOL     OW59633   4.406  13.621  10.836 -0.4927 -0.2897  0.3582
49303SOL    HW159634   4.446  13.650  10.918  1.9599 -0.0527 -0.8151
49303SOL    HW259635   4.439  13.682  10.771 -0.4088 -1.8893 -1.1680
49304SOL     OW59636   4.029  10.551   7.167  0.3569 -0.3339 -0.1033
49304SOL    HW159637   3.982  10.539   7.250 -1.4051 -0.6053 -1.0936
49304SOL    HW259638   3.990  10.630   7.129  0.7976 -0.4974 -0.9112
49305SOL     OW59639  11.390   2.054   9.308  0.1479 -0.1095 -0.4437
49305SOL    HW159640  11.416   1.962   9.306 -0.5202 -0.3128 -0.0463
49305SOL    HW259641  11.469   2.102   9.281  0.1133 -0.8778 -2.0348
49306SOL     OW59642   7.324  11.191   7.991 -0.6474  0.3338  0.5635
49306SOL    HW159643   7.315  11.248   8.068 -1.0338  1.3651 -0.2306
49306SOL    HW259644   7.337  11.251   7.918  3.8912 -0.6163  0.2688
49307SOL     OW59645   6.505   8.100   9.359 -0.2274  0.3207 -0.1279
49307SOL    HW159646   6.481   8.019   9.316 -0.1825 -0.1507  0.7117
49307SOL    HW259647   6.552   8.150   9.293 -0.8652 -0.0329 -0.8667
49308SOL     OW59648   9.050   4.375   0.863 -0.0360 -0.0521  0.4403
49308SOL    HW159649   9.119   4.323   0.821  1.2297  0.2512  2.0549
49308SOL    HW259650   9.089   4.461   0.876 -1.3820  0.7022 -0.2653
49309SOL     OW59651   5.461  13.652   9.648  0.1420  0.8436 -0.6277
49309SOL    HW159652   5.383  13.618   9.693  1.3923 -0.4933  0.6444
49309SOL    HW259653   5.464  13.603   9.565  0.4433 -0.2313  0.0008
49310SOL     OW59654   2.697   0.564   4.592  0.3403 -0.1440 -0.0835
49310SOL    HW159655   2.730   0.647   4.625  0.4801 -0.6533  1.1422
49310SOL    HW259656   2.602   0.573   4.596  0.3545 -0.0217 -0.0128
49311SOL     OW59657   4.741   9.232   8.917  0.1817  0.2562  0.3841
49311SOL    HW159658   4.673   9.270   8.863 -0.1047  0.2213  0.7134
49311SOL    HW259659   4.817   9.289   8.905  0.6874 -0.7417 -1.4291
49312SOL     OW59660   6.224   8.825   6.811  0.1743 -0.4340 -0.2985
49312SOL    HW159661   6.258   8.913   6.827  0.3651 -0.6885  0.7613
49312SOL    HW259662   6.275   8.792   6.737  0.5190  0.1124 -0.3100
49313SOL     OW59663  12.420   3.358   8.442 -0.2583 -0.9429  0.2295
49313SOL    HW159664  12.342   3.395   8.483 -0.2818 -0.3005 -0.3769
49313SOL    HW259665  12.487   3.361   8.511  0.1823  1.6924 -0.2093
49314SOL     OW59666   6.830   0.532  11.863 -0.1938  0.0138  0.3908
49314SOL    HW159667   6.813   0.618  11.902  0.1814  0.9672 -1.4443
49314SOL    HW259668   6.743   0.493  11.853 -0.2548 -0.6907  2.9756
49315SOL     OW59669   9.807   4.758  12.599  0.0285  0.2465  0.0301
49315SOL    HW159670   9.770   4.828  12.543  0.5033  0.1057 -0.4681
49315SOL    HW259671   9.894   4.742  12.563 -0.3562 -1.1311 -0.3371
49316SOL     OW59672   7.324   4.084   2.699  0.2880 -0.0254 -0.0617
49316SOL    HW159673   7.415   4.072   2.672  0.1371  0.9308 -1.0783
49316SOL    HW259674   7.301   4.172   2.669 -0.5656  0.2761  1.3927
49317SOL     OW59675  10.819   9.289   9.345 -0.2641  0.2180  0.3272
49317SOL    HW159676  10.886   9.309   9.411  0.3548 -0.6607 -0.0052
49317SOL    HW259677  10.758   9.231   9.391 -0.3908  0.4258  0.4209
49318SOL     OW59678   0.091  11.222  13.407 -0.0734  0.3173 -0.6708
49318SOL    HW159679   0.073  11.178  13.324  0.2546  1.0912 -1.1673
49318SOL    HW259680   0.179  11.259  13.396  0.4597 -0.5555  0.4666
49319SOL     OW59681   5.726   0.555   3.325 -0.6584  0.5216 -0.2330
49319SOL    HW159682   5.725   0.617   3.251  0.3317 -0.9159 -1.5153
49319SOL    HW259683   5.648   0.501   3.313  0.6399 -1.1658 -1.5978
49320SOL     OW59684   5.605   0.145   8.545  0.7119  0.3816  0.4631
49320SOL    HW159685   5.622   0.115   8.456  0.2978 -1.7626  1.0385
49320SOL    HW259686   5.654   0.227   8.553  1.4743  0.1556 -1.4369
49321SOL     OW59687   4.830   3.892   7.906  0.2795  0.3449  0.0305
49321SOL    HW159688   4.879   3.906   7.987  0.2387 -0.4403  0.1915
49321SOL    HW259689   4.827   3.797   7.895 -1.7345  0.3330  0.3514
49322SOL     OW59690   4.657  11.158   8.333 -0.9387  0.2482  0.3601
49322SOL    HW159691   4.677  11.201   8.250  0.6381 -0.4689  0.3300
49322SOL    HW259692   4.665  11.227   8.399  3.1648 -0.1400  0.5224
49323SOL     OW59693  13.436  11.627  11.852  0.5490 -0.0542  0.2020
49323SOL    HW159694  13.438  11.533  11.834 -1.0989 -0.2225  0.7233
49323SOL    HW259695  13.434  11.668  11.766 -0.3871 -0.5667 -0.0279
49324SOL     OW59696   1.141   8.540   2.228  0.1267 -0.2999  0.8023
49324SOL    HW159697   1.126   8.478   2.300 -1.4935 -0.3140  0.4835
49324SOL    HW259698   1.098   8.500   2.152 -3.4016  2.3357  1.1663
49325SOL     OW59699   5.865   8.408   4.582  0.4057 -0.1793 -0.1205
49325SOL    HW159700   5.833   8.336   4.637  1.6422  1.7657  3.4698
49325SOL    HW259701   5.811   8.483   4.606  0.9620  0.7682 -1.6847
49326SOL     OW59702  11.331   4.253  11.719  0.5342 -0.0931 -0.0050
49326SOL    HW159703  11.341   4.171  11.768  0.1010  0.4313  0.9764
49326SOL    HW259704  11.316   4.224  11.629 -2.7268 -1.2732  0.7645
49327SOL     OW59705  11.811   8.032   7.732 -0.3319  0.2871  0.4302
49327SOL    HW159706  11.888   8.015   7.787 -0.5914  1.8494  1.3311
49327SOL    HW259707  11.826   8.118   7.694 -1.1787  0.1764 -0.1928
49328SOL     OW59708   0.790   2.940   5.554  0.2073 -0.2882  0.0794
49328SOL    HW159709   0.751   3.006   5.497 -0.7472 -0.7015  0.2392
49328SOL    HW259710   0.867   2.909   5.506 -0.1275 -0.0510 -0.6236
49329SOL     OW59711   8.972   0.948   6.947 -0.4151 -0.6787  0.0559
49329SOL    HW159712   8.929   1.013   7.003 -0.1391 -0.0246 -0.4892
49329SOL    HW259713   9.047   0.917   6.999 -0.5273 -0.5375  0.2996
49330SOL     OW59714  10.942   9.170   1.856  0.6033 -0.3089 -0.2096
49330SOL    HW159715  10.861   9.222   1.851  1.6443  1.2596 -2.2708
49330SOL    HW259716  10.924   9.093   1.802 -0.1218 -0.9178  0.8704
49331SOL     OW59717   9.723   8.185   1.967 -0.1780 -0.5114  0.0329
49331SOL    HW159718   9.785   8.242   1.923 -1.7834 -0.1671 -1.9634
49331SOL    HW259719   9.769   8.101   1.975  1.3524  0.3651  0.8154
49332SOL     OW59720   4.358   7.380  11.012 -0.1385 -0.2397 -0.5611
49332SOL    HW159721   4.427   7.437  10.980 -0.2697 -0.9824 -2.3015
49332SOL    HW259722   4.277   7.424  10.986 -0.3170  0.1851  0.6682
49333SOL     OW59723   9.311   1.545   8.301 -0.5684 -0.3050  0.2607
49333SOL    HW159724   9.332   1.563   8.209 -0.0622 -0.8762  0.2572
49333SOL    HW259725   9.333   1.625   8.348 -2.5221  0.6689 -0.3467
49334SOL     OW59726   3.086   4.847   1.062 -0.1826  0.1049 -0.0201
49334SOL    HW159727   3.051   4.866   1.149  0.5376  0.4589  0.1985
49334SOL    HW259728   3.160   4.907   1.052  0.8413 -1.1393 -0.1675
49335SOL     OW59729   3.615   7.580   9.366  0.5109  0.7841  0.4355
49335SOL    HW159730   3.703   7.591   9.330 -0.0458  1.8475 -0.7033
49335SOL    HW259731   3.574   7.666   9.353 -0.5099  0.4727  1.4647
49336SOL     OW59732   7.236   9.586  10.437 -0.0734  0.3073 -0.6371
49336SOL    HW159733   7.257   9.578  10.530  0.7515  3.5596 -0.4082
49336SOL    HW259734   7.175   9.660  10.433 -0.4176 -0.0448 -2.6341
49337SOL     OW59735  13.138  10.038   4.207  0.3487 -0.0262 -0.3559
49337SOL    HW159736  13.043  10.026   4.206  0.5121 -1.6996  0.6692
49337SOL    HW259737  13.170   9.988   4.132  0.5376 -0.9602  0.3273
49338SOL     OW59738   1.078   6.814   5.385  0.0053  0.3801 -0.2321
49338SOL    HW159739   1.056   6.817   5.292 -1.4918  0.4819  0.1001
49338SOL    HW259740   1.016   6.874   5.427  0.2334 -0.1447  0.9021
49339SOL     OW59741  11.185   6.584   2.819 -0.5287  0.2858 -0.1487
49339SOL    HW159742  11.100   6.628   2.818  0.4598  2.2956 -1.7517
49339SOL    HW259743  11.247   6.649   2.788  1.2259 -1.9234 -1.6177
49340SOL     OW59744   4.278  13.189   5.197  0.3495 -0.0969 -0.9636
49340SOL    HW159745   4.319  13.161   5.279 -2.9015  0.6536  1.1115
49340SOL    HW259746   4.243  13.108   5.160 -0.4400 -0.1231 -0.1909
49341SOL     OW59747   3.071   2.039   0.883  0.3989  0.3192  0.4467
49341SOL    HW159748   3.099   2.023   0.974  0.3559  1.0978  0.6011
49341SOL    HW259749   3.144   2.088   0.844  0.5261 -0.2267 -0.0211
49342SOL     OW59750  10.408   9.225   9.501  0.2389  0.4370  0.4019
49342SOL    HW159751  10.342   9.160   9.526  0.5832 -0.0285  0.1206
49342SOL    HW259752  10.491   9.177   9.503  0.2637  0.2889 -1.8780
49343SOL     OW59753   0.250   9.233   8.053 -0.5349 -0.5776 -0.2360
49343SOL    HW159754   0.258   9.324   8.082 -0.5070 -0.8602  0.6921
49343SOL    HW259755   0.326   9.220   7.996 -0.6300  0.0302 -0.5105
49344SOL     OW59756  11.447   8.991   1.931 -0.5494 -0.4306 -0.0661
49344SOL    HW159757  11.480   9.002   1.842 -0.2405 -0.4485  0.0454
49344SOL    HW259758  11.507   8.928   1.972  1.2211  1.8546  1.1262
49345SOL     OW59759  10.313  11.961   9.057 -0.3916 -0.9696 -0.2594
49345SOL    HW159760  10.399  11.982   9.021 -0.7465  1.2985  0.0547
49345SOL    HW259761  10.308  11.866   9.054  2.5242 -1.2416  0.6738
49346SOL     OW59762   4.751   0.777   4.728  0.0666  0.4551  0.2708
49346SOL    HW159763   4.794   0.693   4.740  1.9449  1.2995 -0.0851
49346SOL    HW259764   4.738   0.784   4.633 -2.5922 -0.5343  0.4704
49347SOL     OW59765  11.588   5.708  11.327  0.6646 -0.6261  0.4352
49347SOL    HW159766  11.605   5.712  11.421  0.5718  1.2471  0.4224
49347SOL    HW259767  11.494   5.691  11.320  1.0569 -3.2167  0.6048
49348SOL     OW59768   6.678   3.649   9.594 -0.5469  0.3673 -0.6445
49348SOL    HW159769   6.772   3.635   9.602 -0.5687  0.8766  0.7318
49348SOL    HW259770   6.669   3.716   9.527  0.0098 -0.3562 -1.4594
49349SOL     OW59771  13.569   1.892   2.054  0.2108 -0.4713  0.9125
49349SOL    HW159772  13.579   1.906   1.960 -0.8325 -1.7402  0.5732
49349SOL    HW259773  13.487   1.936   2.076 -0.1193 -1.1047  0.9870
49350SOL     OW59774   0.100   1.938   8.040  0.5678 -0.2349  0.2373
49350SOL    HW159775   0.074   2.018   7.995  2.3714  1.0526  1.3696
49350SOL    HW259776   0.053   1.868   7.993 -2.4277  1.5775  0.2920
49351SOL     OW59777   1.158  10.073  12.786 -0.0971  0.0945  0.0717
49351SOL    HW159778   1.207  10.142  12.830 -1.0357 -0.2750  1.7976
49351SOL    HW259779   1.105  10.118  12.721  1.9859  0.5719 -1.3885
49352SOL     OW59780   2.155  12.378  10.576  0.1386 -0.0515 -0.6366
49352SOL    HW159781   2.212  12.399  10.650  1.2388  1.4236 -1.8381
49352SOL    HW259782   2.078  12.337  10.616  1.2042 -0.3730  1.1972
49353SOL     OW59783   2.923   7.243   0.448 -0.4381  0.0351 -0.0166
49353SOL    HW159784   2.977   7.304   0.498 -1.0112 -0.2414  0.9706
49353SOL    HW259785   2.969   7.232   0.365  0.5764  0.4480  0.4814
49354SOL     OW59786   6.746   0.986   3.940  0.4037  0.2912 -0.1087
49354SOL    HW159787   6.675   0.935   3.978  0.1652  0.7116  0.0228
49354SOL    HW259788   6.801   0.922   3.895  1.6536 -0.4972  2.3693
49355SOL     OW59789   2.624   0.064  10.957  0.0800 -0.1436  0.1540
49355SOL    HW159790   2.635   0.059  11.052  1.9318  0.6519  0.0252
49355SOL    HW259791   2.631   0.157  10.936 -1.2800 -0.1875 -0.7056
49356SOL     OW59792   3.415  13.014  11.647  0.5596  0.5266 -0.7300
49356SOL    HW159793   3.475  13.068  11.697 -1.7644  1.3534  1.3731
49356SOL    HW259794   3.406  13.060  11.563  1.0737  1.6692 -0.1795
49357SOL     OW59795   9.377   7.148   4.324  0.0012 -0.2525 -0.2553
49357SOL    HW159796   9.336   7.182   4.245 -1.2654 -0.7422  0.1749
49357SOL    HW259797   9.360   7.054   4.322 -0.1205 -0.2614  0.6391
49358SOL     OW59798   7.814   3.222  13.215  0.1977 -0.0509 -0.1576
49358SOL    HW159799   7.890   3.280  13.207 -0.4857  1.1406  1.4523
49358SOL    HW259800   7.749   3.260  13.155  0.0829  0.2848  0.1773
49359SOL     OW59801  13.269   5.919   9.460  0.2484  0.0948 -0.0699
49359SOL    HW159802  13.219   5.851   9.505  0.8264  0.0072  0.4545
49359SOL    HW259803  13.276   5.889   9.370 -0.1679 -0.1590 -0.0189
49360SOL     OW59804  13.374  10.190   7.824  0.0195 -0.5041 -0.2004
49360SOL    HW159805  13.360  10.256   7.891  0.0120  0.3508 -1.0175
49360SOL    HW259806  13.286  10.166   7.795  0.0452  0.1393 -0.8453
49361SOL     OW59807   2.220   9.005   0.961 -0.5989  0.7845  0.0330
49361SOL    HW159808   2.288   8.986   0.896 -0.9205  0.4297 -0.2102
49361SOL    HW259809   2.145   9.034   0.908 -1.0141  0.0558  0.2018
49362SOL     OW59810   8.496   8.462   1.926  0.3242  0.1251  0.3259
49362SOL    HW159811   8.475   8.533   1.987 -0.3399 -1.2597  1.7846
49362SOL    HW259812   8.589   8.444   1.942  0.2837  0.1170  0.5597
49363SOL     OW59813   0.545  13.015   2.528  0.3343  0.1270  0.6693
49363SOL    HW159814   0.518  13.067   2.604  0.1463  1.7199 -0.4660
49363SOL    HW259815   0.492  13.047   2.456  1.4795 -0.4117 -0.4530
49364SOL     OW59816   6.479   0.902   5.854 -0.0257  0.1626 -0.1946
49364SOL    HW159817   6.512   0.866   5.937  1.1640 -2.7941 -1.7890
49364SOL    HW259818   6.385   0.888   5.857  0.0430 -0.1727  0.5817
49365SOL     OW59819   6.278   9.406   9.613 -0.2537  0.4354 -0.1621
49365SOL    HW159820   6.267   9.321   9.571 -0.9457  0.5652 -0.2558
49365SOL    HW259821   6.198   9.417   9.665  0.7419  0.0987  1.5120
49366SOL     OW59822   5.383   1.086   5.088 -0.4299 -0.3999 -0.6115
49366SOL    HW159823   5.445   1.082   5.162 -1.0269 -2.7569 -0.1623
49366SOL    HW259824   5.316   1.021   5.109 -0.4190 -1.4656 -3.4028
49367SOL     OW59825   9.043   9.874   9.888 -0.4827 -0.2070 -0.1563
49367SOL    HW159826   9.133   9.842   9.898 -0.3147  0.2291 -0.2132
49367SOL    HW259827   9.023   9.917   9.971 -0.1067  0.9554 -0.6407
49368SOL     OW59828  11.606   1.316   1.806 -0.2772  0.3747  0.1515
49368SOL    HW159829  11.591   1.226   1.777  1.1101  0.5895 -1.3809
49368SOL    HW259830  11.566   1.320   1.893  1.4279 -2.3283  1.1949
49369SOL     OW59831   2.698   8.621   9.777 -0.2473 -0.2283  0.2886
49369SOL    HW159832   2.699   8.702   9.725 -0.4715 -0.2576  0.2414
49369SOL    HW259833   2.639   8.640   9.850 -0.6034 -0.4819  0.0683
49370SOL     OW59834  13.652   0.377   9.731  0.0841  0.0564  0.3192
49370SOL    HW159835  13.593   0.443   9.768 -0.2391 -0.4984  0.8056
49370SOL    HW259836  13.736   0.395   9.773  0.4936  1.3566 -0.9666
49371SOL     OW59837  11.836   8.164   3.653 -0.1455 -0.1429 -0.4429
49371SOL    HW159838  11.925   8.145   3.626  0.0985 -0.5194  0.5856
49371SOL    HW259839  11.806   8.231   3.591  0.8006 -0.0988 -0.8657
49372SOL     OW59840   8.573   0.027   7.725  0.4495 -0.2292  0.0556
49372SOL    HW159841   8.534   0.110   7.699 -0.5183 -0.4913  0.6192
49372SOL    HW259842   8.508  -0.039   7.702  0.1296 -0.5963  1.8045
49373SOL     OW59843  12.917   4.417   1.393 -0.3318 -0.3816  0.3137
49373SOL    HW159844  12.897   4.378   1.308 -0.8963 -1.9233  1.1216
49373SOL    HW259845  12.833   4.444   1.428 -0.2204 -0.6796  0.8170
49374SOL     OW59846   3.498   2.302  11.887 -0.4791 -0.2043 -0.0008
49374SOL    HW159847   3.554   2.345  11.951 -0.1542  0.3773 -0.6626
49374SOL    HW259848   3.465   2.225  11.932  0.5625 -0.3624  0.5341
49375SOL     OW59849   9.830   5.638   4.662 -0.3086 -0.0546  0.5222
49375SOL    HW159850   9.850   5.576   4.591 -1.4088  1.1835 -0.9219
49375SOL    HW259851   9.755   5.599   4.707 -1.1196  0.2706 -0.5017
49376SOL     OW59852   4.088   3.763  10.992  0.3731  0.0599 -0.2429
49376SOL    HW159853   4.122   3.836  10.940  0.9385  1.6915  2.2532
49376SOL    HW259854   4.164   3.730  11.040 -0.5223  0.1503  1.2828
49377SOL     OW59855   8.251   9.257   1.949  0.1849  0.2519  0.0260
49377SOL    HW159856   8.242   9.231   1.858 -0.0383  0.5978 -0.0524
49377SOL    HW259857   8.206   9.342   1.955  1.3472  0.8741  0.1645
49378SOL     OW59858   5.518  10.146  10.828 -0.6396  0.5824  0.2202
49378SOL    HW159859   5.461  10.214  10.791 -1.4827 -1.0622 -1.6535
49378SOL    HW259860   5.463  10.103  10.894 -0.5527  0.8529  0.4730
49379SOL     OW59861  10.635   3.745   7.118 -0.1102 -0.0038  0.0346
49379SOL    HW159862  10.547   3.714   7.138  0.4328 -1.2515  0.6206
49379SOL    HW259863  10.691   3.668   7.131  0.9162  0.4196 -1.5580
49380SOL     OW59864   4.665   8.838   3.697 -0.5068  0.0652  0.1660
49380SOL    HW159865   4.701   8.753   3.671 -1.4670 -0.9183  1.8817
49380SOL    HW259866   4.577   8.840   3.661  0.8838  2.3205 -3.7134
49381SOL     OW59867   2.985   3.216  12.307 -0.1126  0.1521  0.0347
49381SOL    HW159868   3.009   3.212  12.400  0.9086  2.1058 -0.0896
49381SOL    HW259869   3.000   3.127  12.275  0.6682 -0.2763  1.4853
49382SOL     OW59870  11.562  11.202   2.154  0.4407 -0.7573  0.3366
49382SOL    HW159871  11.476  11.243   2.146  0.5995 -0.3427  0.7385
49382SOL    HW259872  11.549  11.132   2.218  0.7556  0.3024  1.5837
49383SOL     OW59873  12.033   6.547   3.277 -0.2860 -0.7802  0.3031
49383SOL    HW159874  11.940   6.526   3.275 -0.5128  0.2042  0.1447
49383SOL    HW259875  12.066   6.502   3.355 -0.8804 -1.1577  0.3436
49384SOL     OW59876   3.302   0.651   2.609 -0.2299  0.2086  0.8370
49384SOL    HW159877   3.380   0.650   2.553 -0.3033  1.1390  0.6873
49384SOL    HW259878   3.252   0.575   2.583  0.2114  0.0906  0.3132
49385SOL     OW59879  13.221   6.552   2.215  0.5768  0.1837  0.0192
49385SOL    HW159880  13.214   6.588   2.303  0.9692  2.9777 -0.9644
49385SOL    HW259881  13.304   6.588   2.181 -0.5108  0.8590 -2.1190
49386SOL     OW59882   8.461   3.917   8.318  0.0051  0.6518  0.4800
49386SOL    HW159883   8.426   3.854   8.381  0.5428  0.1495  0.2988
49386SOL    HW259884   8.421   3.891   8.235 -0.1004  0.8175  0.4800
49387SOL     OW59885  12.534   5.193  10.243 -0.0528 -0.3822 -0.1333
49387SOL    HW159886  12.472   5.120  10.246 -0.1298 -0.2795  1.2705
49387SOL    HW259887  12.578   5.191  10.327  2.1717 -0.6972 -1.2341
49388SOL     OW59888   2.638   7.371   5.279  0.0336  0.0382 -0.2564
49388SOL    HW159889   2.721   7.376   5.231 -0.8730 -0.3488 -1.9573
49388SOL    HW259890   2.659   7.322   5.358  0.6146 -4.5073 -2.8322
49389SOL     OW59891  12.842  10.322  11.196 -0.0042  0.7493  0.5749
49389SOL    HW159892  12.902  10.248  11.190 -0.0002  0.8624 -1.3074
49389SOL    HW259893  12.758  10.283  11.217 -0.3183 -0.0109 -1.8383
49390SOL     OW59894   1.216   7.010   3.379  0.0412  0.2968 -0.3127
49390SOL    HW159895   1.228   7.105   3.378  0.4561  0.2677  0.5624
49390SOL    HW259896   1.187   6.988   3.291  1.9796  0.9839 -1.1708
49391SOL     OW59897   1.986   9.411  12.961 -0.1768 -0.3730 -0.3005
49391SOL    HW159898   1.912   9.369  13.004 -0.4207  1.1276  0.8568
49391SOL    HW259899   1.962   9.413  12.868 -0.9138 -1.2093 -0.1428
49392SOL     OW59900  11.629   5.427   5.136  0.4638  0.0954 -0.2157
49392SOL    HW159901  11.601   5.393   5.051  0.2772 -0.5631  0.1048
49392SOL    HW259902  11.551   5.466   5.175  0.4710  0.0963 -0.2016
49393SOL     OW59903   0.779   9.534   9.518  0.3458 -0.6512  0.3033
49393SOL    HW159904   0.830   9.589   9.459 -0.8786 -0.0238 -0.2036
49393SOL    HW259905   0.799   9.568   9.605  0.5801 -0.2360  0.0903
49394SOL     OW59906   6.724   9.253  10.063  0.3689  0.3659  0.3668
49394SOL    HW159907   6.696   9.211   9.981 -0.0623 -0.2169  0.7990
49394SOL    HW259908   6.793   9.313  10.036  0.1035  0.3284 -0.4546
49395SOL     OW59909   5.216   4.628  13.182 -0.7897 -0.3151 -0.2248
49395SOL    HW159910   5.264   4.711  13.186 -1.5442  0.1424 -0.4011
49395SOL    HW259911   5.129   4.652  13.149 -1.8772 -0.7735  2.0909
49396SOL     OW59912  10.130   8.806   7.745 -0.0035  0.2541  0.2311
49396SOL    HW159913  10.061   8.810   7.811 -0.9137 -2.2383 -0.4515
49396SOL    HW259914  10.211   8.799   7.795 -0.7632 -3.1140  1.2924
49397SOL     OW59915  12.874  11.417   7.605  0.4410  0.0728 -0.1458
49397SOL    HW159916  12.903  11.497   7.560  2.2255 -1.1194 -1.2747
49397SOL    HW259917  12.883  11.348   7.539 -0.1244 -1.2182  1.0761
49398SOL     OW59918  11.019  13.410   5.380  0.0106  0.4767 -0.1289
49398SOL    HW159919  11.021  13.505   5.367 -0.7233  0.4192 -0.7073
49398SOL    HW259920  11.062  13.374   5.303 -2.3661  0.2332 -1.4437
49399SOL     OW59921  12.453   8.389   0.977  0.2096 -0.2253  0.3501
49399SOL    HW159922  12.391   8.339   1.030 -0.4728 -0.8475 -0.9860
49399SOL    HW259923  12.526   8.408   1.036  0.4803 -2.7687  0.9404
49400SOL     OW59924   2.802   3.439   2.998 -0.3052  0.5938  0.5958
49400SOL    HW159925   2.803   3.354   2.954  0.6049  2.7130 -4.1403
49400SOL    HW259926   2.866   3.431   3.068  1.5352 -1.9693 -1.2137
49401SOL     OW59927   6.168  13.236  12.698  0.3016  0.5365  0.1850
49401SOL    HW159928   6.111  13.229  12.622 -0.9088  1.3203  0.9727
49401SOL    HW259929   6.225  13.310  12.679  1.8743 -0.9312 -1.0873
49402SOL     OW59930   2.164  13.321   6.378 -0.2272  0.1360 -0.5663
49402SOL    HW159931   2.100  13.255   6.405 -0.4279  0.8803  0.8685
49402SOL    HW259932   2.198  13.357   6.460 -0.3383  2.0210 -1.2900
49403SOL     OW59933  13.460   2.839   5.943  0.6242  0.0310  0.1942
49403SOL    HW159934  13.422   2.790   5.870  1.6482 -1.1257  0.3970
49403SOL    HW259935  13.385   2.868   5.994 -0.0820  0.2749 -0.9417
49404SOL     OW59936   6.701   0.356   7.305 -0.2750  0.4032  0.1733
49404SOL    HW159937   6.788   0.395   7.292 -1.0853  1.7200 -1.6175
49404SOL    HW259938   6.694   0.346   7.400  1.4219  1.2371  0.4281
49405SOL     OW59939   9.613   9.226   5.043  0.5417  0.3071  0.2161
49405SOL    HW159940   9.553   9.263   5.107 -0.9001 -0.8706 -0.4084
49405SOL    HW259941   9.613   9.289   4.971 -0.5002 -0.0011 -0.0718
49406SOL     OW59942  10.513  13.027  12.642  0.2529  0.3195 -0.7449
49406SOL    HW159943  10.585  13.013  12.581  1.5378  1.7122  0.3812
49406SOL    HW259944  10.454  13.086  12.595  1.4956  1.8171 -0.5087
49407SOL     OW59945   1.798  12.300   6.124 -0.0308 -0.2272  0.1848
49407SOL    HW159946   1.889  12.284   6.147  0.5558  1.0870 -1.0549
49407SOL    HW259947   1.785  12.251   6.042 -0.7522 -1.1882  0.8440
49408SOL     OW59948   4.655   2.961   0.595 -0.0256 -0.7160  0.7225
49408SOL    HW159949   4.712   2.956   0.671  1.8413  2.9175 -0.2600
49408SOL    HW259950   4.576   3.005   0.627 -0.1274 -1.0743  0.9717
49409SOL     OW59951   1.679   0.099  12.366  0.1148  0.0821 -0.3839
49409SOL    HW159952   1.617   0.040  12.410  0.6351  1.1483  1.9539
49409SOL    HW259953   1.727   0.043  12.306 -0.7069 -1.4899  0.3477
49410SOL     OW59954   7.144   3.459   7.792 -0.0073  0.1704  0.1501
49410SOL    HW159955   7.101   3.405   7.726 -1.1167  0.3328  0.7145
49410SOL    HW259956   7.190   3.527   7.742 -1.8810  1.0612 -0.4496
49411SOL     OW59957   9.947   4.045   8.963 -0.2960  0.2647 -0.1765
49411SOL    HW159958   9.970   4.057   8.871 -0.0490 -0.5248 -0.2301
49411SOL    HW259959   9.890   3.967   8.962  0.9534 -0.6924  0.5012
49412SOL     OW59960   6.308   7.015  10.344 -0.1974  0.2630  0.5223
49412SOL    HW159961   6.286   6.951  10.276 -2.9193  1.5195  0.0794
49412SOL    HW259962   6.389   7.056  10.313  0.2680 -1.2660 -0.3864
49413SOL     OW59963   6.287   9.687   2.110  0.1582 -0.3285  0.0620
49413SOL    HW159964   6.286   9.740   2.030 -0.8878 -0.3540  0.0474
49413SOL    HW259965   6.286   9.597   2.078  2.3303 -0.4200  0.0773
49414SOL     OW59966  10.151   8.639   8.189  0.1143  0.0818  0.8225
49414SOL    HW159967  10.146   8.562   8.132 -0.0621  0.0967  0.8196
49414SOL    HW259968  10.084   8.625   8.256  0.3521  0.0434  1.0558
49415SOL     OW59969   7.780   9.191   8.018 -0.4134 -0.1596  1.1728
49415SOL    HW159970   7.857   9.204   7.964  0.0029 -0.8037  1.5884
49415SOL    HW259971   7.717   9.256   7.988 -0.2773 -0.6479 -0.2219
49416SOL     OW59972   3.422   8.269   3.053  0.1423 -0.7899  0.1817
49416SOL    HW159973   3.391   8.183   3.082  0.2799 -1.3756 -1.3380
49416SOL    HW259974   3.399   8.328   3.125  2.2381 -2.4628  2.4425
49417SOL     OW59975  12.778   2.908   0.160  0.6312  0.4878 -0.2800
49417SOL    HW159976  12.800   2.989   0.114 -2.5299  1.5752 -0.1623
49417SOL    HW259977  12.783   2.840   0.094  0.5254  1.2871 -1.1341
49418SOL     OW59978   9.738   7.718   8.475 -0.7374  0.4027 -0.1645
49418SOL    HW159979   9.757   7.769   8.555  1.0809 -2.3417  1.3237
49418SOL    HW259980   9.664   7.662   8.500  1.7748 -2.7370  0.9088
49419SOL     OW59981   5.067   5.038   8.176 -0.0467 -0.8247  0.4869
49419SOL    HW159982   5.098   5.122   8.142 -0.7611 -0.8076 -0.1654
49419SOL    HW259983   5.127   5.017   8.246  0.7737 -0.2702 -0.0294
49420SOL     OW59984   9.594  10.163   2.183 -0.5444  0.5315 -0.3157
49420SOL    HW159985   9.654  10.226   2.143 -0.7739  0.3458 -0.9543
49420SOL    HW259986   9.563  10.206   2.263  2.4303 -0.3401  1.4869
49421SOL     OW59987   8.327  12.413  13.209 -0.6739 -0.0349 -0.3679
49421SOL    HW159988   8.388  12.474  13.167 -0.6325 -0.5746 -1.1201
49421SOL    HW259989   8.313  12.449  13.296  1.4276 -0.3882  0.1665
49422SOL     OW59990   0.925  10.347   7.406 -0.5816 -0.5551  0.3908
49422SOL    HW159991   0.941  10.435   7.371  0.5413 -1.2362 -0.9323
49422SOL    HW259992   0.946  10.355   7.499  1.2827  0.2094 -0.0261
49423SOL     OW59993   6.442   0.763   7.401  0.1967  0.3265  0.0660
49423SOL    HW159994   6.358   0.717   7.400 -0.1835  0.8733 -2.9774
49423SOL    HW259995   6.494   0.717   7.467 -2.1906 -0.5313  1.4780
49424SOL     OW59996   7.024   8.337  13.706 -0.2353  0.5004 -0.2734
49424SOL    HW159997   7.087   8.407  13.717  0.2923  0.1398 -0.9227
49424SOL    HW259998   6.976   8.334  13.789  2.3013 -0.8833  1.2886
49425SOL     OW59999  11.133  13.261   5.176  0.2483 -0.4352 -0.4245
49425SOL    HW160000  11.134  13.170   5.205  0.3642 -0.1799  0.3876
49425SOL    HW260001  11.221  13.293   5.195 -0.4297  0.4831  1.4276
49426SOL     OW60002   3.479  12.408   9.686 -0.3828 -0.3189 -0.2821
49426SOL    HW160003   3.444  12.386   9.773  0.4148 -1.1490 -0.1574
49426SOL    HW260004   3.450  12.498   9.671 -3.0434 -1.1091 -0.4263
49427SOL     OW60005   3.887  11.276  12.954  0.0273 -0.2261  0.6048
49427SOL    HW160006   3.864  11.249  12.865  1.3390  2.1962 -0.5668
49427SOL    HW260007   3.977  11.246  12.965  0.9267  2.0389 -0.0992
49428SOL     OW60008  11.634   5.659   6.214  1.2261  0.1612  0.0967
49428SOL    HW160009  11.593   5.609   6.285  1.8188 -1.4853 -0.6480
49428SOL    HW260010  11.647   5.746   6.249 -0.7689  0.0861  1.1467
49429SOL     OW60011  13.722   4.163  10.598 -0.8919 -0.1966  0.0793
49429SOL    HW160012  13.639   4.122  10.622 -0.0259 -1.9177  0.2689
49429SOL    HW260013  13.761   4.104  10.534 -0.3187  1.1723 -0.8837
49430SOL     OW60014   4.447   9.647   8.168  0.2504  0.2316  0.2066
49430SOL    HW160015   4.459   9.553   8.175  0.2791 -0.1658 -3.5167
49430SOL    HW260016   4.526   9.684   8.208  2.9015 -1.5916 -2.8825
49431SOL     OW60017   7.554  11.417   5.819 -0.0648  0.6679 -0.4185
49431SOL    HW160018   7.502  11.481   5.771 -1.0100 -0.5482 -1.0739
49431SOL    HW260019   7.574  11.349   5.755 -0.3578 -0.4262  0.6087
49432SOL     OW60020  10.366  10.001   4.400  0.9088  0.0765  0.6471
49432SOL    HW160021  10.398  10.057   4.471  1.5877 -0.0437  0.4378
49432SOL    HW260022  10.283   9.967   4.433  0.1748  1.6751  0.5420
49433SOL     OW60023   2.164   1.148   1.501 -0.5214 -0.3391  0.1507
49433SOL    HW160024   2.215   1.115   1.574  0.5122 -0.8362 -0.7604
49433SOL    HW260025   2.206   1.110   1.423 -1.0427  0.8585 -0.7504
49434SOL     OW60026   0.073   4.331   7.998  0.1758 -0.0349 -0.1877
49434SOL    HW160027   0.131   4.407   8.004  1.8245 -1.1835 -0.8148
49434SOL    HW260028   0.069   4.297   8.087 -1.4892  1.3895  0.3288
49435SOL     OW60029  10.390   0.652   2.209 -0.0461  0.0157 -0.4862
49435SOL    HW160030  10.362   0.737   2.173  0.4285  0.3237 -0.1468
49435SOL    HW260031  10.453   0.619   2.145  0.8200  0.5772  0.0393
49436SOL     OW60032   8.685  10.514   5.688  0.2133  0.2248 -0.3360
49436SOL    HW160033   8.762  10.571   5.691 -0.1478  0.6959  1.9672
49436SOL    HW260034   8.719  10.427   5.707 -0.0124  0.8207  3.5712
49437SOL     OW60035   7.021  10.548  10.381  0.1380 -0.1725  0.3320
49437SOL    HW160036   7.048  10.608  10.312 -1.7227 -1.5527 -1.7329
49437SOL    HW260037   6.926  10.545  10.375  0.0162 -1.5645  1.9155
49438SOL     OW60038   1.085  12.851   9.743 -0.2749 -0.0175  0.4063
49438SOL    HW160039   1.054  12.789   9.677  0.1012  1.7437 -1.5416
49438SOL    HW260040   1.138  12.798   9.803 -2.1241 -2.0018  0.4068
49439SOL     OW60041   5.322  11.744   7.332 -0.0761 -0.2850  0.4346
49439SOL    HW160042   5.362  11.717   7.415  0.7277 -0.9454 -0.1568
49439SOL    HW260043   5.309  11.839   7.341  1.3073 -0.1175  0.7723
49440SOL     OW60044   9.321   7.636   5.021  0.1953  0.0064 -0.4572
49440SOL    HW160045   9.409   7.664   5.048  1.1960 -1.7526 -1.6678
49440SOL    HW260046   9.336   7.556   4.970 -1.8239  1.1893 -3.2125
49441SOL     OW60047  12.380   4.575   8.181 -0.6508  0.6721 -0.4051
49441SOL    HW160048  12.435   4.649   8.159  3.8252 -2.2084 -0.1508
49441SOL    HW260049  12.338   4.600   8.264  0.5952  2.9061 -0.3826
49442SOL     OW60050   8.405   8.890   0.868  0.2418  0.6822 -0.0050
49442SOL    HW160051   8.426   8.909   0.776  0.4064  0.3472 -0.0392
49442SOL    HW260052   8.484   8.914   0.916  1.4306 -2.2057 -0.3269
49443SOL     OW60053   9.459  12.529   3.029  0.1150  0.8107 -0.0514
49443SOL    HW160054   9.410  12.609   3.011 -1.5874 -0.3986 -1.0914
49443SOL    HW260055   9.452  12.517   3.124  0.7809  2.0772  0.1926
49444SOL     OW60056   9.021   1.254  12.506  0.3318 -0.7380 -0.7076
49444SOL    HW160057   9.101   1.203  12.489  0.6346 -0.9977  1.2859
49444SOL    HW260058   8.958   1.191  12.539 -0.1569 -0.2517 -0.6935
49445SOL     OW60059  11.512   5.686  11.602  0.0163  0.1844 -0.2788
49445SOL    HW160060  11.508   5.778  11.629 -0.8114  0.1051 -0.1035
49445SOL    HW260061  11.425   5.652  11.621 -0.1614 -0.2448 -1.7623
49446SOL     OW60062   4.003   3.756   4.131  0.3189 -0.2618  0.2422
49446SOL    HW160063   3.925   3.756   4.075  0.3271 -2.9955  0.1039
49446SOL    HW260064   4.074   3.780   4.072 -0.2629  1.4540  0.1847
49447SOL     OW60065   3.485   8.654  11.596  0.7306  0.2959 -0.0928
49447SOL    HW160066   3.574   8.639  11.565  0.3165 -0.6052 -0.9118
49447SOL    HW260067   3.446   8.714  11.531 -0.3769 -2.1819 -1.8997
49448SOL     OW60068   1.827   1.458   0.074  0.0011 -0.1330 -0.8278
49448SOL    HW160069   1.902   1.464   0.015 -0.4660  0.9334 -1.3393
49448SOL    HW260070   1.859   1.496   0.156  0.2617 -0.4407 -0.7827
49449SOL     OW60071  11.670   3.191   7.164  0.5703  0.1080 -0.0373
49449SOL    HW160072  11.656   3.209   7.256 -0.6495  2.1922 -0.5627
49449SOL    HW260073  11.651   3.097   7.154  1.3047 -0.2829  1.8802
49450SOL     OW60074   6.045  11.056  11.374  0.0864 -0.0628 -0.2902
49450SOL    HW160075   6.017  11.063  11.283  1.0290 -1.1155 -0.6698
49450SOL    HW260076   6.120  11.115  11.381 -0.7280  0.9663  0.1429
49451SOL     OW60077  11.623   6.771   9.404  0.0304 -0.1200 -0.6276
49451SOL    HW160078  11.564   6.797   9.475 -0.1353 -0.1808 -0.7409
49451SOL    HW260079  11.710   6.770   9.444  0.0586  0.7345 -0.6513
49452SOL     OW60080   7.001  13.513  10.212 -0.3652  0.2787 -0.5051
49452SOL    HW160081   7.024  13.478  10.298 -0.4411  1.9413  0.2333
49452SOL    HW260082   6.921  13.465  10.188  0.5157 -1.3060 -0.3899
49453SOL     OW60083   1.822   8.310   3.864  0.0882 -0.6863  0.0608
49453SOL    HW160084   1.774   8.388   3.892 -0.5827 -1.1483  0.2101
49453SOL    HW260085   1.756   8.241   3.859  0.7548 -1.3642  0.4077
49454SOL     OW60086   9.044   3.670   4.761 -0.3833 -0.5572 -0.2206
49454SOL    HW160087   9.074   3.666   4.853 -3.3006  0.0573  0.8539
49454SOL    HW260088   9.109   3.618   4.713  1.4172 -0.6696  2.1192
49455SOL     OW60089   8.007   1.431   7.674  0.4186  0.1452  0.3703
49455SOL    HW160090   7.949   1.356   7.672  1.8030 -0.9749  0.5855
49455SOL    HW260091   8.089   1.397   7.709  0.4053  2.2480  2.7129
49456SOL     OW60092  12.602   7.176   5.712 -0.3769  0.0096  0.3979
49456SOL    HW160093  12.644   7.116   5.650 -1.1685 -0.6153  0.4542
49456SOL    HW260094  12.543   7.228   5.658  1.9360  2.3817 -0.0566
49457SOL     OW60095   5.823   2.060   9.053  0.0574  0.0852 -0.3414
49457SOL    HW160096   5.812   2.108   9.135 -0.5533  3.4043 -2.1540
49457SOL    HW260097   5.738   2.020   9.036 -0.5183  1.2794 -0.3765
49458SOL     OW60098  12.372   2.617   1.046 -0.3840  0.5718 -0.8182
49458SOL    HW160099  12.465   2.599   1.030 -0.4623 -1.6095  0.7625
49458SOL    HW260100  12.354   2.697   0.996  2.4772  1.3991 -0.6968
49459SOL     OW60101   8.196   2.678   5.831 -0.5632 -0.9173  0.0385
49459SOL    HW160102   8.132   2.738   5.791  0.7765 -0.5297 -1.6521
49459SOL    HW260103   8.255   2.735   5.880 -1.6600 -1.3092  1.8954
49460SOL     OW60104   5.318   3.146   9.571  0.1751 -0.3612 -0.6234
49460SOL    HW160105   5.313   3.058   9.607  1.4461 -0.9281 -1.7571
49460SOL    HW260106   5.382   3.191   9.626 -0.8190  0.0278  0.2472
49461SOL     OW60107   7.224   2.715   1.054 -0.5228 -0.0791 -0.0621
49461SOL    HW160108   7.138   2.680   1.075  0.0750 -1.2775  0.5438
49461SOL    HW260109   7.236   2.789   1.113 -1.0670 -0.0181 -0.0306
49462SOL     OW60110   5.860   5.381   1.757 -0.2712  0.2275 -0.1066
49462SOL    HW160111   5.890   5.336   1.836  1.0681  0.4612 -0.4501
49462SOL    HW260112   5.766   5.393   1.769 -0.1983 -0.3695  1.1276
49463SOL     OW60113  13.294   1.515   7.901 -0.1250 -0.1547  0.1927
49463SOL    HW160114  13.272   1.576   7.971 -1.6534  0.0204 -0.3942
49463SOL    HW260115  13.386   1.532   7.881 -0.0440  0.7152  1.2338
49464SOL     OW60116  13.324   6.229   5.797  0.3675 -0.0744  1.0513
49464SOL    HW160117  13.406   6.218   5.748 -0.0170 -0.2190  0.4281
49464SOL    HW260118  13.271   6.154   5.771 -0.3059  0.4942  0.7560
49465SOL     OW60119   0.009   0.927  11.563  0.1893 -0.1359 -0.2239
49465SOL    HW160120   0.008   0.958  11.473 -1.6097 -0.2802 -0.2916
49465SOL    HW260121   0.094   0.884  11.573  0.3277 -0.3122 -1.8979
49466SOL     OW60122   7.977   6.428  12.490  0.1405 -0.2158  0.2273
49466SOL    HW160123   7.893   6.393  12.520  0.3773 -1.9499 -0.9460
49466SOL    HW260124   7.966   6.440  12.396  0.8450  0.6805  0.2472
49467SOL     OW60125  10.280   3.021   4.962  0.5677  0.0267 -0.4070
49467SOL    HW160126  10.226   3.027   4.883  2.0356 -0.2565 -1.4730
49467SOL    HW260127  10.317   3.109   4.972  0.5278  0.0131 -0.1481
49468SOL     OW60128   5.294   0.890   1.123 -0.5992 -0.1616 -0.1147
49468SOL    HW160129   5.274   0.807   1.079 -1.6826  0.0743 -0.0904
49468SOL    HW260130   5.385   0.881   1.150 -0.5930 -1.2030 -0.4352
49469SOL     OW60131   2.470   0.903  13.294  0.5403  0.4024  0.0814
49469SOL    HW160132   2.505   0.984  13.332 -1.6471  1.5621 -0.1767
49469SOL    HW260133   2.485   0.913  13.200  1.3393 -0.0886  0.1427
49470SOL     OW60134   0.367   6.999   4.822 -0.7076 -0.0029 -0.0215
49470SOL    HW160135   0.384   7.057   4.896  0.2842  0.2630 -0.4469
49470SOL    HW260136   0.377   7.055   4.745 -1.1791 -0.4050 -0.3829
49471SOL     OW60137  11.424   9.287   8.822 -0.0625 -0.4092  0.5193
49471SOL    HW160138  11.406   9.255   8.734 -1.5231  1.5313  0.0590
49471SOL    HW260139  11.405   9.212   8.879  0.7169 -1.6333 -0.7618
49472SOL     OW60140   7.702   2.990  13.120 -0.2039  0.2673  0.2650
49472SOL    HW160141   7.652   3.050  13.065  2.5936  0.4850 -2.3225
49472SOL    HW260142   7.755   3.047  13.175  1.2561  0.2568 -1.0469
49473SOL     OW60143   7.593   6.746   8.564 -0.1268  0.1051  0.2014
49473SOL    HW160144   7.641   6.737   8.482  0.1955  1.3065  0.2295
49473SOL    HW260145   7.657   6.726   8.632 -0.7734 -2.3639  0.1690
49474SOL     OW60146   9.536   0.590   4.323  0.1888 -0.2105 -0.9260
49474SOL    HW160147   9.579   0.662   4.368 -0.3728  0.0868 -0.8448
49474SOL    HW260148   9.607   0.536   4.289  0.6360 -0.8713  0.9836
49475SOL     OW60149   5.271   1.856   7.831  0.6121  0.2695  0.2839
49475SOL    HW160150   5.295   1.778   7.880  0.2589 -0.6453 -0.9638
49475SOL    HW260151   5.353   1.905   7.821  0.5471  0.9217  2.4845
49476SOL     OW60152  13.440   3.467   7.144  0.0405  0.0504  0.8929
49476SOL    HW160153  13.380   3.430   7.079 -1.5271  1.4113  1.4937
49476SOL    HW260154  13.396   3.546   7.175  0.6333 -0.6367  3.7701
49477SOL     OW60155  11.209   9.204  10.800  0.0316  0.3064 -0.3648
49477SOL    HW160156  11.197   9.269  10.869 -2.1913 -0.2960 -0.1059
49477SOL    HW260157  11.272   9.142  10.836  0.3099  0.9882  0.3562
49478SOL     OW60158   6.986  12.927   2.345  0.0484 -0.0617  0.1118
49478SOL    HW160159   6.920  12.938   2.276 -1.6762  1.6258  1.8922
49478SOL    HW260160   6.937  12.936   2.427  2.2973 -0.1628  1.5603
49479SOL     OW60161  13.686  10.867   6.898 -0.5107 -0.1911  0.0359
49479SOL    HW160162  13.654  10.794   6.844  1.3110 -0.8588 -0.2375
49479SOL    HW260163  13.726  10.824   6.973  0.4797  0.5229 -0.0661
49480SOL     OW60164  10.992  10.792   0.080  0.1037  0.5243  0.6773
49480SOL    HW160165  11.053  10.796   0.007  0.7434  1.6683  1.2447
49480SOL    HW260166  10.911  10.831   0.045 -0.2999 -0.8585 -0.0269
49481SOL     OW60167   9.808  11.177   0.368  0.1196 -0.7477 -0.3998
49481SOL    HW160168   9.897  11.206   0.351  0.4837 -1.7479 -0.2709
49481SOL    HW260169   9.754  11.229   0.309  0.6961  0.4232  0.0655
49482SOL     OW60170  10.491  10.329   7.063  0.5270 -0.3360  0.4951
49482SOL    HW160171  10.434  10.372   7.127 -0.8064 -1.8261  0.3569
49482SOL    HW260172  10.570  10.383   7.062 -0.7369  1.6285  0.9256
49483SOL     OW60173   7.135   3.848  12.528 -0.3887 -0.1265  0.5677
49483SOL    HW160174   7.203   3.791  12.564 -1.0550 -0.2334  1.6865
49483SOL    HW260175   7.174   3.936  12.530  1.0395 -0.5892 -2.1182
49484SOL     OW60176  12.701   7.438   4.605  0.0692 -0.6240 -0.2225
49484SOL    HW160177  12.740   7.411   4.688  0.8193  1.2877  0.1069
49484SOL    HW260178  12.612   7.403   4.608 -0.5312  0.8119  2.2348
49485SOL     OW60179   7.078  10.844  10.545 -0.3003  0.3149  0.5163
49485SOL    HW160180   7.154  10.801  10.583  1.4518  3.0763  0.3772
49485SOL    HW260181   7.068  10.803  10.459  0.9237 -0.2192  0.6127
49486SOL     OW60182   2.822  10.116   6.454 -0.3791  0.0643  0.1233
49486SOL    HW160183   2.843  10.117   6.547 -0.8068 -0.6025  0.2393
49486SOL    HW260184   2.853  10.200   6.420  1.3201 -0.3821  0.5162
49487SOL     OW60185   5.041   6.568   6.085  0.0078  0.4867 -0.3910
49487SOL    HW160186   4.947   6.554   6.102  0.2329  0.4026  0.8672
49487SOL    HW260187   5.069   6.489   6.039  0.2510 -1.3030  2.5811
49488SOL     OW60188  12.213  13.186   2.936 -0.0789 -0.0551 -0.6931
49488SOL    HW160189  12.193  13.151   3.023 -1.2169  0.3191 -0.7931
49488SOL    HW260190  12.272  13.121   2.897  1.1647  0.1984  0.6741
49489SOL     OW60191   0.667  11.691  10.500  0.4754 -0.1536  0.4331
49489SOL    HW160192   0.648  11.599  10.518  1.1053 -0.0075  2.0659
49489SOL    HW260193   0.761  11.692  10.478 -0.0591 -0.1899 -2.1947
49490SOL     OW60194  10.875  12.278   0.461  0.6088  0.0729 -0.2433
49490SOL    HW160195  10.902  12.266   0.370  0.0489  0.8137 -0.5122
49490SOL    HW260196  10.957  12.273   0.511  0.8253 -1.1723 -0.6886
49491SOL     OW60197  11.502   0.268  12.699 -0.1044  0.0710 -0.0211
49491SOL    HW160198  11.484   0.248  12.607  1.6906  0.9520 -0.6238
49491SOL    HW260199  11.588   0.310  12.698 -0.4557  0.9859  1.9653
49492SOL     OW60200   1.955   1.493   7.044  0.2071  0.6890 -0.2146
49492SOL    HW160201   1.914   1.406   7.048  0.2964  0.6531 -0.0596
49492SOL    HW260202   2.017   1.487   6.972  1.4924  0.0590  0.8979
49493SOL     OW60203  10.133   9.932   7.611  0.0640  0.2214  0.2429
49493SOL    HW160204  10.167   9.994   7.676 -0.7374  1.1948 -0.2352
49493SOL    HW260205  10.041   9.920   7.635 -0.4908  1.2827 -1.1803
49494SOL     OW60206   3.977   9.549  12.585  0.9734 -0.5549  0.5923
49494SOL    HW160207   4.021   9.474  12.546  1.4922  0.1486 -0.2135
49494SOL    HW260208   3.981   9.532  12.679  0.2111 -1.9934  0.3929
49495SOL     OW60209   0.539   1.843   8.227 -0.1961 -0.4458 -0.2664
49495SOL    HW160210   0.495   1.777   8.280 -0.2721  0.8489  1.3703
49495SOL    HW260211   0.478   1.917   8.224  0.9380  0.5465  0.1945
49496SOL     OW60212   9.359   9.031  10.317 -0.3231  0.3213  0.1060
49496SOL    HW160213   9.374   9.063  10.405  0.3612  0.6247 -0.1128
49496SOL    HW260214   9.440   9.051  10.269 -1.3136  1.7480 -1.0584
49497SOL     OW60215   6.244   5.992   3.599 -0.5050 -0.2587 -0.0907
49497SOL    HW160216   6.280   5.956   3.518  0.6094  0.2681  0.1532
49497SOL    HW260217   6.217   5.916   3.650  2.1175 -0.8277  0.5622
49498SOL     OW60218  13.339   2.931   3.833 -0.0025  0.2173  0.1244
49498SOL    HW160219  13.312   3.010   3.880  1.7373  0.5671  0.5931
49498SOL    HW260220  13.346   2.958   3.742 -1.9244 -0.0840 -0.1514
49499SOL     OW60221   8.531  12.522  11.142  0.0303  0.2535  0.0102
49499SOL    HW160222   8.623  12.524  11.169 -0.0429  0.4677  0.2489
49499SOL    HW260223   8.524  12.445  11.085  0.3254  0.1530  0.1106
49500SOL     OW60224   5.437   5.022  11.225 -0.9003 -0.6803  0.6672
49500SOL    HW160225   5.494   4.951  11.197 -0.4357 -1.0566  2.4217
49500SOL    HW260226   5.378   5.036  11.151  0.8285 -0.9173 -0.8411
49501SOL     OW60227   8.170   3.254   2.808  0.3567  0.3313 -0.2860
49501SOL    HW160228   8.208   3.340   2.823  0.4562  0.3223 -0.4766
49501SOL    HW260229   8.180   3.240   2.714 -0.3936  0.4615 -0.3951
49502SOL     OW60230   4.385   4.608   7.617  0.1457 -0.4030  0.1155
49502SOL    HW160231   4.442   4.535   7.594 -1.1289 -1.8299  1.2565
49502SOL    HW260232   4.356   4.643   7.533 -0.5509 -2.3092 -0.4932
49503SOL     OW60233  13.261  10.461  12.749 -0.6351  0.1463  0.5016
49503SOL    HW160234  13.254  10.415  12.665 -2.8354  1.2249  0.0218
49503SOL    HW260235  13.196  10.418  12.805  0.3365 -0.1159  1.4643
49504SOL     OW60236   8.790   8.535  11.802  0.4874 -0.3546 -0.3446
49504SOL    HW160237   8.712   8.588  11.819  0.5944 -0.7640  1.6531
49504SOL    HW260238   8.817   8.504  11.889  0.8106 -3.1173 -1.3300
49505SOL     OW60239   2.313   0.066   6.067 -0.3258 -0.1116  0.0527
49505SOL    HW160240   2.281   0.146   6.026  0.6627 -0.1412 -0.8220
49505SOL    HW260241   2.343   0.093   6.153 -1.1752  0.2101  0.2558
49506SOL     OW60242   5.708  12.967   9.405  0.4388 -0.0652 -0.8330
49506SOL    HW160243   5.761  12.893   9.377  1.4152  0.7617 -1.2496
49506SOL    HW260244   5.618  12.943   9.381  0.6957 -1.2504 -0.6236
49507SOL     OW60245   3.067  12.320   2.340  0.7497 -0.0085 -0.0221
49507SOL    HW160246   3.109  12.344   2.257 -0.3450  0.0290 -0.5752
49507SOL    HW260247   2.982  12.362   2.337  0.7323  0.0637  1.1737
49508SOL     OW60248   0.003   3.429   9.002 -0.6279  0.2981 -0.1875
49508SOL    HW160249  -0.051   3.379   9.063 -0.5834  0.6652  0.1533
49508SOL    HW260250   0.061   3.481   9.057 -0.0148  0.0149 -0.5493
49509SOL     OW60251  13.058  10.495   5.928 -0.0983  0.2606  0.3561
49509SOL    HW160252  13.105  10.417   5.899 -0.8580 -0.1555  0.2282
49509SOL    HW260253  13.032  10.538   5.846  0.3597  0.6839  0.4259
49510SOL     OW60254   4.988   1.322  11.242 -0.2731  0.5870  0.8063
49510SOL    HW160255   5.066   1.377  11.245 -0.9881  1.6363  0.8059
49510SOL    HW260256   5.007   1.250  11.303  0.9041  0.5098  0.3718
49511SOL     OW60257   6.749  13.208  11.148  0.4163  0.1462  0.2964
49511SOL    HW160258   6.691  13.178  11.078 -1.3474 -1.5395  2.3198
49511SOL    HW260259   6.834  13.168  11.128 -0.0219 -0.2281 -0.9093
49512SOL     OW60260  12.235   7.002   8.394  0.4718 -0.4425  0.1300
49512SOL    HW160261  12.140   7.012   8.390  0.5149  0.4692  0.8929
49512SOL    HW260262  12.254   6.923   8.343 -0.6254 -0.2660 -0.5766
49513SOL     OW60263   8.968   9.185   5.884 -0.6724 -0.2513 -0.3022
49513SOL    HW160264   9.030   9.148   5.947 -0.3787  0.3535 -0.2361
49513SOL    HW260265   8.883   9.178   5.928 -0.4858  0.0648  0.1136
49514SOL     OW60266   5.988   9.494   0.908  0.5088  0.6313  0.1591
49514SOL    HW160267   5.903   9.480   0.949  0.9257 -0.0671  0.8035
49514SOL    HW260268   5.981   9.449   0.823 -0.1900  1.6715 -0.3509
49515SOL     OW60269   1.649  13.550   7.795  0.0327  0.1424  0.3182
49515SOL    HW160270   1.744  13.563   7.793 -0.1763  2.7452 -2.8596
49515SOL    HW260271   1.616  13.607   7.725 -3.9289 -0.4479  1.4448
49516SOL     OW60272   1.430   8.221  10.099  0.5342  0.7657  0.2230
49516SOL    HW160273   1.359   8.254  10.155 -0.4579 -1.5921  0.4796
49516SOL    HW260274   1.510   8.244  10.146 -0.2211  0.4353  1.7347
49517SOL     OW60275  13.620  10.748   5.682 -0.3453  0.0060 -0.2924
49517SOL    HW160276  13.563  10.824   5.687  1.0385  0.9954  3.3991
49517SOL    HW260277  13.559  10.674   5.673 -1.8664  1.3099 -1.3901
49518SOL     OW60278   4.465   8.966   7.316 -0.0032 -0.3413  0.6512
49518SOL    HW160279   4.441   8.921   7.397 -0.2376 -0.2166  0.6533
49518SOL    HW260280   4.448   8.902   7.247 -1.3268  0.0643  0.5544
49519SOL     OW60281   1.433   7.543   5.700  0.1847  0.4262  0.6113
49519SOL    HW160282   1.402   7.623   5.742  0.5111  1.0681 -0.3462
49519SOL    HW260283   1.524   7.534   5.727  0.2599  0.5876  0.4110
49520SOL     OW60284  11.091   5.036   4.192  0.4527 -0.0725 -0.5025
49520SOL    HW160285  11.104   4.982   4.270  0.3324 -0.5192 -0.7809
49520SOL    HW260286  11.169   5.091   4.187 -0.3352  1.2484  0.9103
49521SOL     OW60287   2.544   4.951  11.839  0.1472  0.4470 -0.0993
49521SOL    HW160288   2.456   4.915  11.831 -0.0884  1.0486 -0.2753
49521SOL    HW260289   2.601   4.875  11.850 -0.2700 -0.0095 -1.0537
49522SOL     OW60290   9.122   4.961   3.065  0.1556  0.1926  0.4897
49522SOL    HW160291   9.146   4.920   2.982  1.0582 -0.3239  0.9931
49522SOL    HW260292   9.026   4.957   3.066  0.1758 -1.2926  0.1918
49523SOL     OW60293   9.395   9.854   7.661  0.5585  0.6163 -0.0440
49523SOL    HW160294   9.346   9.803   7.726 -0.4879  0.0164 -1.2467
49523SOL    HW260295   9.486   9.827   7.671  0.6112  1.4192  1.9553
49524SOL     OW60296   9.813   8.619  12.401  0.0619 -0.0586  0.7091
49524SOL    HW160297   9.878   8.563  12.359  0.9462  0.0501  1.8848
49524SOL    HW260298   9.851   8.707  12.399 -1.4393  0.6446 -1.3946
49525SOL     OW60299   4.505  12.023   1.106 -0.3768  0.0118 -0.1927
49525SOL    HW160300   4.422  12.060   1.076 -1.4405 -1.1552  1.1705
49525SOL    HW260301   4.508  11.935   1.068  0.4854  0.2127 -0.6186
49526SOL     OW60302  11.605   0.095   4.979  0.7137 -0.0397 -0.2970
49526SOL    HW160303  11.564   0.129   4.899  1.4130  1.2847 -0.1153
49526SOL    HW260304  11.696   0.077   4.953  0.8536  0.0808  0.1045
49527SOL     OW60305   3.539  11.776   3.907  0.0116  0.1338  0.0375
49527SOL    HW160306   3.495  11.808   3.828 -0.5716  0.4510  0.4904
49527SOL    HW260307   3.488  11.699   3.932  0.8349 -0.6052 -0.4966
49528SOL     OW60308  12.467   8.725  11.330  0.6988  0.1383  0.4497
49528SOL    HW160309  12.562   8.738  11.325  0.6994  0.0196  0.1101
49528SOL    HW260310  12.452   8.642  11.283  0.3565  0.4856 -0.0682
49529SOL     OW60311   1.267  12.688  11.273 -0.4670 -0.2380  0.3344
49529SOL    HW160312   1.266  12.767  11.328 -0.4548  1.3999 -1.9011
49529SOL    HW260313   1.203  12.630  11.313 -0.6427  0.9773  1.9171
49530SOL     OW60314   9.057   0.087   7.108 -0.2412  0.1193  0.2368
49530SOL    HW160315   9.147   0.091   7.076  0.2673 -0.3428  1.5155
49530SOL    HW260316   9.044   0.172   7.151 -0.7901  0.5921 -0.8223
49531SOL     OW60317  11.656   1.294  12.012  0.0564  0.0271  0.4338
49531SOL    HW160318  11.702   1.219  11.975  0.5210 -0.4465  1.9253
49531SOL    HW260319  11.574   1.258  12.045 -1.0105  0.6939 -1.2954
49532SOL     OW60320   5.023   2.194   4.195  0.0533  0.6006  0.2569
49532SOL    HW160321   5.096   2.190   4.132 -1.5687 -0.8323 -1.6588
49532SOL    HW260322   5.045   2.128   4.260  0.4105  0.0701 -0.3838
49533SOL     OW60323   4.661  10.902  10.498 -0.4127 -0.5493 -0.1926
49533SOL    HW160324   4.727  10.971  10.497  1.4963 -2.2789  0.9201
49533SOL    HW260325   4.669  10.860  10.412 -1.3522  0.3277 -0.7430
49534SOL     OW60326   7.632  11.179   3.840  0.0581  0.7333  0.1983
49534SOL    HW160327   7.585  11.111   3.889  1.2078  0.6023  1.1852
49534SOL    HW260328   7.704  11.132   3.797  0.7449  1.2777  0.7316
49535SOL     OW60329   8.577  13.665   4.474 -0.5455 -0.5876 -0.2561
49535SOL    HW160330   8.516  13.617   4.530  0.0855 -0.1058  0.8986
49535SOL    HW260331   8.539  13.752   4.466 -0.0610 -0.2957  0.4419
49536SOL     OW60332   6.961   0.673   8.222 -0.0028 -0.0172 -0.1504
49536SOL    HW160333   6.935   0.765   8.212 -0.4694 -0.2167 -0.8852
49536SOL    HW260334   6.887   0.633   8.268 -0.4565 -0.3214 -1.1204
49537SOL     OW60335   8.001   8.669  12.414 -0.3042  0.0825  0.0385
49537SOL    HW160336   7.993   8.691  12.507 -0.9155 -1.5990  0.4103
49537SOL    HW260337   8.082   8.618  12.408 -0.4714 -0.1477 -0.2803
49538SOL     OW60338  11.337   6.987   6.575  0.3172 -0.2571 -0.4781
49538SOL    HW160339  11.373   6.903   6.546  2.5881  0.5221 -0.0887
49538SOL    HW260340  11.364   7.049   6.507 -1.6986  0.1334 -0.9783
49539SOL     OW60341  12.971  11.010   6.766  0.3011  0.6490 -0.3589
49539SOL    HW160342  12.962  11.007   6.671 -0.6839 -0.5612 -0.2568
49539SOL    HW260343  12.936  11.096   6.791 -0.9754  0.3372 -0.9712
49540SOL     OW60344   7.394  11.377   7.803  0.2426  0.0176  0.0260
49540SOL    HW160345   7.457  11.448   7.790  1.9126 -1.6989 -1.9967
49540SOL    HW260346   7.309  11.421   7.808  1.3389  2.2450  0.5321
49541SOL     OW60347   7.142  13.635   6.567  0.1047  0.1898  0.2279
49541SOL    HW160348   7.077  13.639   6.497  1.7045  0.8365 -1.3086
49541SOL    HW260349   7.094  13.600   6.643 -2.1457  1.2370 -0.6253
49542SOL     OW60350   2.305   3.899   8.214  0.1136  0.5202 -0.1668
49542SOL    HW160351   2.329   3.897   8.121 -0.1045  1.1827 -0.2391
49542SOL    HW260352   2.387   3.884   8.260  0.6948  2.5560 -0.4207
49543SOL     OW60353  12.647   9.997   9.609  0.3306  0.3387 -0.3808
49543SOL    HW160354  12.556   9.981   9.635 -0.3420  1.8137 -1.5997
49543SOL    HW260355  12.669  10.081   9.650  1.0251  0.1353 -0.3356
49544SOL     OW60356  10.339   6.530   2.764 -0.1707 -0.0778 -0.0491
49544SOL    HW160357  10.270   6.542   2.699  0.4583 -1.5737 -1.0595
49544SOL    HW260358  10.293   6.514   2.846 -1.0470 -0.9374 -0.6835
49545SOL     OW60359   6.962  13.236  13.289 -0.3077  0.0863  0.0097
49545SOL    HW160360   6.950  13.315  13.236  2.4205 -0.2767 -1.3089
49545SOL    HW260361   7.005  13.268  13.369  0.8339  0.0075 -0.5408
49546SOL     OW60362   4.169   6.340   8.062  0.7111 -0.6550  0.3109
49546SOL    HW160363   4.254   6.382   8.055  2.1011 -3.4001 -1.3160
49546SOL    HW260364   4.106   6.410   8.046  2.6377  1.4121  1.2479
49547SOL     OW60365   8.712   5.533   4.163 -0.0723  0.0418  0.8148
49547SOL    HW160366   8.687   5.503   4.076  0.2179 -1.0095  1.0870
49547SOL    HW260367   8.684   5.463   4.222 -2.0112  1.5702  1.8102
49548SOL     OW60368   2.354  12.782  10.565  0.2112 -0.5191 -0.3517
49548SOL    HW160369   2.276  12.805  10.514  0.5827  0.1534 -0.6393
49548SOL    HW260370   2.323  12.720  10.631 -0.8683  0.8879  0.5111
49549SOL     OW60371  12.836   7.188   3.146  0.2631 -0.5250 -0.2469
49549SOL    HW160372  12.753   7.159   3.107 -0.6793  0.6310  0.8281
49549SOL    HW260373  12.898   7.187   3.073 -0.9912 -0.2468 -1.3645
49550SOL     OW60374   6.730   7.550  12.700 -0.0332 -0.4656 -0.1531
49550SOL    HW160375   6.760   7.466  12.735 -0.8843 -1.4844 -1.7521
49550SOL    HW260376   6.784   7.566  12.623  0.2155  0.5352  0.2169
49551SOL     OW60377   4.496   5.744  10.272  0.8603 -0.3708 -0.2291
49551SOL    HW160378   4.530   5.830  10.247 -0.7004  0.0016 -1.2109
49551SOL    HW260379   4.494   5.695  10.190 -2.1096  0.0781 -0.5220
49552SOL     OW60380  11.220   5.295   5.970 -0.3556 -0.4350 -0.6471
49552SOL    HW160381  11.139   5.303   5.920 -1.2063 -1.8503  0.4166
49552SOL    HW260382  11.205   5.220   6.028  1.2288  0.0802  0.4992
49553SOL     OW60383   1.822   9.086   4.325  0.2407 -0.1138  0.0217
49553SOL    HW160384   1.894   9.131   4.281 -0.6483 -0.1488 -1.5678
49553SOL    HW260385   1.819   9.000   4.284 -2.1342  0.6782 -1.7318
49554SOL     OW60386   0.539   5.311   1.396 -0.5237  0.4533  0.6839
49554SOL    HW160387   0.512   5.237   1.341  0.5626  0.2763  0.3756
49554SOL    HW260388   0.592   5.366   1.339 -2.7184  2.4187  0.3994
49555SOL     OW60389   7.334   2.257   2.211 -0.0714 -0.4426 -0.3330
49555SOL    HW160390   7.413   2.295   2.173 -0.3810 -0.2493 -0.7839
49555SOL    HW260391   7.343   2.163   2.196  1.2518 -0.7376  1.7960
49556SOL     OW60392   0.654   6.033   2.402  0.0996 -0.3660 -0.7337
49556SOL    HW160393   0.610   6.074   2.476 -0.5387 -2.0883 -0.1188
49556SOL    HW260394   0.598   6.053   2.327  0.1440  0.3997 -0.5784
49557SOL     OW60395   1.267   7.162  11.287  0.1832  0.6843  0.4059
49557SOL    HW160396   1.335   7.112  11.244  0.2366  0.9063  0.2302
49557SOL    HW260397   1.218   7.203  11.216  0.6440  1.5457  0.5648
49558SOL     OW60398   7.037   2.285   7.725  0.5463 -0.2128  0.3956
49558SOL    HW160399   6.945   2.302   7.743  0.2908  0.0137 -1.0308
49558SOL    HW260400   7.073   2.370   7.699  0.5606 -0.7443 -1.4418
49559SOL     OW60401   9.162   2.218   3.202  0.2375  0.3351  0.1980
49559SOL    HW160402   9.217   2.145   3.233  1.3874  0.7719 -0.7705
49559SOL    HW260403   9.134   2.191   3.115 -1.2987  0.0267  0.7584
49560SOL     OW60404   6.857   0.733   6.927  0.0594 -0.1409  0.6793
49560SOL    HW160405   6.894   0.751   6.841 -3.3519 -1.6606 -1.2911
49560SOL    HW260406   6.824   0.818   6.957 -0.8695  0.0077 -0.6770
49561SOL     OW60407   0.200   7.405   6.935 -0.0159 -0.0140 -0.5365
49561SOL    HW160408   0.123   7.349   6.936  0.4254 -0.6281 -0.5595
49561SOL    HW260409   0.210   7.430   6.843 -1.3054  1.6603 -0.2795
49562SOL     OW60410   4.927   7.532  13.198  0.1083  0.8043 -0.4646
49562SOL    HW160411   5.017   7.544  13.169 -0.0784 -0.9437 -1.9048
49562SOL    HW260412   4.930   7.454  13.254 -0.4044  1.1426  0.0472
49563SOL     OW60413   5.740   3.532   1.410  0.0647 -0.5061  0.4449
49563SOL    HW160414   5.729   3.443   1.375  1.0075 -0.4041 -0.1489
49563SOL    HW260415   5.785   3.519   1.494 -1.0720 -0.6703  1.0423
49564SOL     OW60416   0.870   8.084   0.580  0.1294 -0.2160 -0.9792
49564SOL    HW160417   0.803   8.026   0.543 -0.6015 -0.0459  0.0059
49564SOL    HW260418   0.894   8.041   0.662 -1.5035  1.5417  0.5220
49565SOL     OW60419  11.974   0.786   7.927 -0.2589 -0.4953 -0.0303
49565SOL    HW160420  11.950   0.735   8.004 -1.7434 -1.2496 -0.9566
49565SOL    HW260421  11.897   0.782   7.870  1.2207 -1.0030 -2.1175
49566SOL     OW60422   9.146  10.463   2.692 -0.3710 -0.3603  0.2752
49566SOL    HW160423   9.152  10.530   2.761 -1.3034  1.4519 -1.2873
49566SOL    HW260424   9.056  10.471   2.659  0.4438 -0.1442 -2.0637
49567SOL     OW60425   1.093  12.140   3.924  0.2356 -0.0906 -0.2104
49567SOL    HW160426   1.163  12.156   3.861 -0.6411  0.3455 -1.1002
49567SOL    HW260427   1.116  12.058   3.966  1.6725  0.4291  0.0546
49568SOL     OW60428   5.654   1.608  12.601  0.3219 -0.3671  0.0195
49568SOL    HW160429   5.694   1.684  12.558 -1.1528  0.8906  0.7479
49568SOL    HW260430   5.591   1.646  12.662 -1.8674 -2.1862 -0.9528
49569SOL     OW60431   8.413  11.846  13.000  0.3096  0.6298  0.2782
49569SOL    HW160432   8.464  11.853  12.920  0.5934  2.6549  0.5934
49569SOL    HW260433   8.373  11.759  12.996 -0.6198  1.0927 -2.6042
49570SOL     OW60434   2.687   9.297   6.820 -0.2854  0.6215 -0.1849
49570SOL    HW160435   2.753   9.233   6.847 -1.4011  0.1501  1.6660
49570SOL    HW260436   2.737   9.367   6.778  1.0784 -0.9594 -1.3154
49571SOL     OW60437   1.588   8.254  13.498 -0.5069 -0.2970  0.1775
49571SOL    HW160438   1.578   8.312  13.422  1.0969  0.4246  0.4712
49571SOL    HW260439   1.560   8.307  13.573 -2.5992 -1.1819  0.0841
49572SOL     OW60440  12.183   5.052   7.206  0.4491 -0.3004 -0.1054
49572SOL    HW160441  12.189   4.991   7.280  0.0975 -0.8688 -0.5308
49572SOL    HW260442  12.242   5.015   7.140  0.0553 -0.3121 -0.4539
49573SOL     OW60443   4.014   1.291  12.058 -0.1059 -0.5230  0.2504
49573SOL    HW160444   4.003   1.246  11.974 -0.4740 -1.3021  0.7065
49573SOL    HW260445   4.030   1.383  12.034 -0.7779 -0.6281 -0.6547
49574SOL     OW60446   9.133   4.428   0.188 -0.0624  0.4906 -0.3090
49574SOL    HW160447   9.203   4.469   0.137  1.0304 -0.6890  0.1798
49574SOL    HW260448   9.092   4.366   0.127  0.6491 -0.2594 -0.0490
49575SOL     OW60449   9.637  12.131   2.985 -0.2027  0.3245  0.0423
49575SOL    HW160450   9.557  12.159   3.030 -1.0076 -0.3860 -0.8945
49575SOL    HW260451   9.656  12.203   2.924  1.1946  1.5388  1.7927
49576SOL     OW60452  12.526  10.935   7.764  0.2018 -0.2655  0.1086
49576SOL    HW160453  12.447  10.988   7.775  1.4251  1.2871  1.9165
49576SOL    HW260454  12.572  10.975   7.690  0.6945  0.6843  0.9124
49577SOL     OW60455   1.468   4.690  11.527  0.3382 -0.4844 -0.2319
49577SOL    HW160456   1.476   4.654  11.439 -2.1428 -1.0647 -0.2960
49577SOL    HW260457   1.523   4.633  11.581  1.5144 -0.4041 -1.2995
49578SOL     OW60458   8.358  13.192  11.640 -0.3379  0.2134 -0.0247
49578SOL    HW160459   8.353  13.211  11.546  3.3844 -2.8634 -1.1173
49578SOL    HW260460   8.317  13.107  11.649  0.9050 -0.3405  0.7264
49579SOL     OW60461   2.212   9.850   9.796 -0.2730 -0.3224  0.4003
49579SOL    HW160462   2.231   9.760   9.820 -0.1330 -0.6704 -0.9421
49579SOL    HW260463   2.169   9.844   9.711  3.0480  1.0251 -1.5721
49580SOL     OW60464   7.889  10.811   4.680  0.3556 -0.0027 -0.4175
49580SOL    HW160465   7.909  10.867   4.755 -2.0822  1.3309 -0.6601
49580SOL    HW260466   7.793  10.815   4.672  0.5214 -0.1096 -3.5810
49581SOL     OW60467   8.031   1.453   6.197 -0.4162 -0.3403 -0.2888
49581SOL    HW160468   8.044   1.540   6.160 -0.7417 -0.4795 -0.7448
49581SOL    HW260469   7.993   1.402   6.126 -1.8946 -0.3770  0.4666
49582SOL     OW60470   1.453  12.554  10.288  0.2168 -0.0434  0.2820
49582SOL    HW160471   1.418  12.511  10.366  0.1119  0.9660  0.8088
49582SOL    HW260472   1.446  12.648  10.307  0.8065  0.2094 -0.6710
49583SOL     OW60473   3.774  10.211   5.998 -0.1832 -0.5563 -0.9272
49583SOL    HW160474   3.821  10.295   6.003  2.6650 -2.0677  0.4893
49583SOL    HW260475   3.789  10.181   5.908  2.2506 -1.2614 -0.3596
49584SOL     OW60476   7.022   6.506   7.127 -0.2210  0.2764  0.1696
49584SOL    HW160477   6.960   6.516   7.200 -0.4232 -1.2349  0.2420
49584SOL    HW260478   7.103   6.479   7.169  0.4842  2.0835  0.0571
49585SOL     OW60479   2.091  12.024  12.342 -0.7508 -0.1237  0.0819
49585SOL    HW160480   2.051  11.959  12.399  0.5854 -0.2570  0.9164
49585SOL    HW260481   2.028  12.037  12.272 -1.7325 -1.1410  0.7486
49586SOL     OW60482   5.686   0.772   3.138  0.1274  0.1473 -0.4213
49586SOL    HW160483   5.641   0.834   3.081  3.1090  2.1188 -0.8578
49586SOL    HW260484   5.762   0.744   3.086  0.3731 -1.7479  0.8531
49587SOL     OW60485   8.585   1.938   2.009 -0.1793 -0.4899 -0.0022
49587SOL    HW160486   8.586   2.002   2.080  5.8439  1.0174 -0.8493
49587SOL    HW260487   8.617   1.858   2.050  2.6603  0.2064 -0.6305
49588SOL     OW60488   3.153   9.068   9.785  0.4380 -0.3535  0.0528
49588SOL    HW160489   3.159   9.083   9.691 -1.1930 -1.1547 -0.2064
49588SOL    HW260490   3.090   8.997   9.795  1.8108 -1.4337  1.6810
49589SOL     OW60491   2.301   4.854   6.198  0.4430  0.3270  0.0250
49589SOL    HW160492   2.281   4.818   6.285  0.9514  1.6161  0.7071
49589SOL    HW260493   2.396   4.856   6.194  0.4405 -0.7484 -1.0337
49590SOL     OW60494  13.387   6.215   9.205 -0.3485  0.1036  0.2262
49590SOL    HW160495  13.317   6.206   9.140  0.7310 -0.0335 -0.9736
49590SOL    HW260496  13.435   6.133   9.200  0.0679  0.3088  0.8153
49591SOL     OW60497   1.122  10.919   9.026 -0.0471  0.3637  0.9747
49591SOL    HW160498   1.192  10.921   9.091  0.2313  2.1434  0.6768
49591SOL    HW260499   1.165  10.891   8.945 -0.1699 -0.7631  1.2810
49592SOL     OW60500   1.079  10.818  13.687  0.2171  0.2909  0.9705
49592SOL    HW160501   1.056  10.905  13.719 -0.6843  0.7287 -0.7189
49592SOL    HW260502   1.136  10.781  13.755  1.2621  2.4754  1.3729
49593SOL     OW60503   2.046  12.573  12.382 -0.3577 -0.3208  0.0509
49593SOL    HW160504   2.078  12.591  12.470 -0.6012  0.5255 -0.0213
49593SOL    HW260505   2.123  12.545  12.333  0.2368  1.2972 -0.0197
49594SOL     OW60506   5.822   3.696   9.886  0.2227 -0.4132  0.4057
49594SOL    HW160507   5.728   3.717   9.881  0.1233 -0.9529 -0.2506
49594SOL    HW260508   5.836   3.671   9.977 -0.5976 -1.6936  0.2180
49595SOL     OW60509  12.244   5.370   7.039  0.2368 -0.1852  0.1014
49595SOL    HW160510  12.157   5.345   7.007  0.7876 -0.6765 -1.0894
49595SOL    HW260511  12.295   5.289   7.037  0.9057  0.2258  0.1553
49596SOL     OW60512   8.841   9.230   3.077  0.3421  0.0012 -0.5980
49596SOL    HW160513   8.851   9.226   2.982 -0.5626 -0.8182 -0.6729
49596SOL    HW260514   8.843   9.139   3.106  4.6366  0.3007  0.6858
49597SOL     OW60515   0.711   0.665   1.178 -0.3274  0.0279  0.1714
49597SOL    HW160516   0.676   0.638   1.092 -0.1773  1.0235 -0.2129
49597SOL    HW260517   0.641   0.644   1.240 -0.3923 -0.8085 -0.1764
49598SOL     OW60518   1.913  10.229   7.474 -0.0699 -0.6771  0.4860
49598SOL    HW160519   1.877  10.245   7.387 -0.2511 -0.4262  0.6062
49598SOL    HW260520   2.000  10.193   7.457  0.7800  1.3316  0.1809
49599SOL     OW60521   9.018   8.475   8.560  0.6008 -0.2162  0.2912
49599SOL    HW160522   9.100   8.440   8.524  0.6757 -0.3439  0.5836
49599SOL    HW260523   9.000   8.552   8.507 -0.1816 -1.3264 -1.1508
49600SOL     OW60524   2.176  10.368   4.652  0.5929 -0.4100  0.0770
49600SOL    HW160525   2.220  10.391   4.733  3.1101 -1.6793 -0.8086
49600SOL    HW260526   2.188  10.273   4.645  0.5574 -0.3120 -1.8142
49601SOL     OW60527  10.636   0.327  11.152 -0.2234 -0.1077  0.2246
49601SOL    HW160528  10.683   0.349  11.232 -0.7661  1.3770  0.1701
49601SOL    HW260529  10.607   0.237  11.165 -0.6055  0.2141  1.8702
49602SOL     OW60530  10.672   3.259   6.339 -0.0053 -0.0976 -0.0591
49602SOL    HW160531  10.644   3.295   6.423  0.4669  1.3371 -0.4784
49602SOL    HW260532  10.764   3.234   6.353 -0.0826 -0.3604 -0.0100
49603SOL     OW60533   6.403   8.342  10.043  0.2768 -0.1437  0.4660
49603SOL    HW160534   6.497   8.343  10.024  0.1043  1.2180 -0.4609
49603SOL    HW260535   6.394   8.393  10.124  0.4567 -1.5007  1.3785
49604SOL     OW60536   6.501   8.338  11.501  0.2951  0.3872 -0.4313
49604SOL    HW160537   6.486   8.249  11.470  2.7446 -0.6460  0.9919
49604SOL    HW260538   6.582   8.365  11.459  0.7482  1.0535  0.8040
49605SOL     OW60539   9.885   6.837   3.514  0.2429  0.0894  0.2000
49605SOL    HW160540   9.967   6.853   3.560  0.7262 -2.6026  0.4543
49605SOL    HW260541   9.900   6.754   3.469 -0.8575  1.6229 -3.3455
49606SOL     OW60542   9.967   8.606   7.864  0.1901  0.2652  0.4622
49606SOL    HW160543   9.981   8.691   7.906 -2.3074  0.7903  0.4126
49606SOL    HW260544   9.916   8.556   7.928 -2.9087  0.7630 -1.4262
49607SOL     OW60545  13.574   0.279  10.442  0.5460 -0.0264  0.0499
49607SOL    HW160546  13.636   0.294  10.513 -0.9809 -1.3322  1.7857
49607SOL    HW260547  13.603   0.197  10.401  1.8026  1.0601 -1.3301
49608SOL     OW60548   1.911   8.812  12.339 -0.5099  0.2006  0.3980
49608SOL    HW160549   1.942   8.864  12.414 -0.9323  1.5705 -0.3313
49608SOL    HW260550   1.927   8.869  12.264 -0.6444 -0.9117 -0.4921
49609SOL     OW60551   9.930   0.444   2.436 -0.3878 -0.1902  0.5891
49609SOL    HW160552   9.975   0.454   2.520  0.7666 -1.0951  0.1075
49609SOL    HW260553   9.984   0.494   2.374 -0.0049 -1.2751  0.0086
49610SOL     OW60554   6.148   5.943   8.266  0.1631  0.1052  0.4058
49610SOL    HW160555   6.117   5.856   8.291 -0.3454  0.3918  0.7787
49610SOL    HW260556   6.233   5.951   8.309 -0.3178  0.2519  1.3437
49611SOL     OW60557   2.031  11.726  13.651 -0.3099 -0.1202  0.3074
49611SOL    HW160558   2.065  11.658  13.709 -0.4859 -0.3653  0.1231
49611SOL    HW260559   2.007  11.680  13.571  1.9140  0.4703 -0.8028
49612SOL     OW60560   3.777   2.739   4.449 -0.1401  0.2317  0.0943
49612SOL    HW160561   3.855   2.753   4.395 -1.8170  3.1610 -1.8529
49612SOL    HW260562   3.808   2.686   4.522  3.8427  1.7049 -0.2603
49613SOL     OW60563   9.323  12.147  12.885 -0.3029  0.7285 -0.3512
49613SOL    HW160564   9.298  12.151  12.792 -2.1405  1.1522  0.1270
49613SOL    HW260565   9.258  12.201  12.930 -0.1099 -0.3645  1.3302
49614SOL     OW60566   2.710   5.876  11.649 -0.1155  0.1329  0.1765
49614SOL    HW160567   2.641   5.810  11.641 -0.9845  1.1027 -0.6578
49614SOL    HW260568   2.786   5.828  11.682 -0.6575 -1.3255 -0.6243
49615SOL     OW60569   6.448  10.308  13.123  0.0227 -0.0546  0.1487
49615SOL    HW160570   6.361  10.281  13.154  0.2628 -0.9494  0.0637
49615SOL    HW260571   6.444  10.297  13.028  1.0547 -2.7021  0.3372
49616SOL     OW60572   6.110   9.094   8.113 -0.1190  0.2595 -0.0082
49616SOL    HW160573   6.083   9.162   8.051  0.0967 -0.6852 -1.1536
49616SOL    HW260574   6.088   9.131   8.199 -1.9521  0.9228 -0.7052
49617SOL     OW60575  10.377  12.078   2.359  0.2826 -0.3168 -0.1164
49617SOL    HW160576  10.288  12.056   2.389  0.4667 -0.7708  0.0986
49617SOL    HW260577  10.404  12.002   2.307  0.7837 -0.4568  0.3398
49618SOL     OW60578   7.686   2.471  13.740 -0.5298  0.0419 -0.2931
49618SOL    HW160579   7.700   2.547  13.684 -0.3064  0.9530  0.9384
49618SOL    HW260580   7.619   2.419  13.696 -0.2191  0.6143 -1.4769
49619SOL     OW60581  11.434   4.178   8.825  0.2235 -0.3565 -0.1919
49619SOL    HW160582  11.354   4.127   8.813  1.1561 -1.8013 -0.5862
49619SOL    HW260583  11.404   4.263   8.856 -1.5150 -0.5594 -1.1767
49620SOL     OW60584   1.460   1.727   2.240  0.2067 -0.2334  0.4226
49620SOL    HW160585   1.518   1.652   2.232 -1.4465 -1.5057 -0.3726
49620SOL    HW260586   1.410   1.728   2.158 -0.5420  1.1035  0.8502
49621SOL     OW60587   4.377   0.025   3.405  0.9967 -0.4493  0.1857
49621SOL    HW160588   4.455  -0.028   3.424  1.2533  0.1783  0.9099
49621SOL    HW260589   4.390   0.105   3.454  0.2369 -0.0251 -0.2921
49622SOL     OW60590   9.913   3.936  11.272 -0.4651  0.3848 -0.1076
49622SOL    HW160591   9.980   3.943  11.340  0.1367  0.9873 -0.7486
49622SOL    HW260592   9.833   3.969  11.314  0.3059  2.5608 -0.2248
49623SOL     OW60593   8.633  12.978   2.265 -0.5338 -0.3912 -0.4571
49623SOL    HW160594   8.606  12.892   2.234  0.0452 -0.1191 -1.8004
49623SOL    HW260595   8.680  12.962   2.347 -0.8384 -1.2890 -0.4551
49624SOL     OW60596   1.210   9.211   2.425  0.3635  0.1859 -0.1842
49624SOL    HW160597   1.165   9.134   2.459 -0.7787  0.4114 -1.1184
49624SOL    HW260598   1.276   9.176   2.365 -0.2872 -0.0732 -0.7613
49625SOL     OW60599  10.308   2.585   0.867  0.2953  0.0571 -0.1151
49625SOL    HW160600  10.370   2.658   0.876 -0.7352  1.1998 -1.7125
49625SOL    HW260601  10.331   2.526   0.938  2.3549  1.0654  0.1512
49626SOL     OW60602  12.919   5.793   9.304 -0.5122  0.4261 -0.2207
49626SOL    HW160603  12.845   5.750   9.262 -1.0071  0.2509  0.8157
49626SOL    HW260604  12.883   5.834   9.382 -0.1539  3.1213 -1.3375
49627SOL     OW60605   5.486   5.587   0.323  0.0973 -1.0322  0.3069
49627SOL    HW160606   5.454   5.520   0.263  0.5790  0.0228 -1.1846
49627SOL    HW260607   5.465   5.670   0.280  0.4140 -0.2336  1.6328
49628SOL     OW60608   2.544   7.535   0.923  0.1337  0.7092 -0.1694
49628SOL    HW160609   2.516   7.556   0.834  2.9599  0.0336 -1.3448
49628SOL    HW260610   2.603   7.606   0.948 -2.1318  1.9788  2.0930
49629SOL     OW60611   7.753  10.623   4.471  0.0071 -0.8912  0.0135
49629SOL    HW160612   7.830  10.567   4.477  0.2016 -0.6060  0.1717
49629SOL    HW260613   7.722  10.632   4.561  0.9771  0.6447  0.2275
49630SOL     OW60614   4.780   3.845   8.916  0.0590 -0.5224  0.3697
49630SOL    HW160615   4.786   3.755   8.883  4.1950  0.6395 -2.9116
49630SOL    HW260616   4.720   3.889   8.856  2.3038  0.0167 -1.6117
49631SOL     OW60617  10.106   0.090   0.534 -0.3797  0.0018  0.1230
49631SOL    HW160618  10.193   0.089   0.574  0.1263 -2.0508 -0.8915
49631SOL    HW260619  10.089   0.183   0.517  1.9433  0.4277 -0.3009
49632SOL     OW60620   0.602  11.719   6.584 -0.2054 -0.0107  0.0243
49632SOL    HW160621   0.564  11.730   6.671  0.9502 -0.6617  0.6258
49632SOL    HW260622   0.695  11.738   6.596  0.1989 -1.3674 -0.7936
49633SOL     OW60623   7.205  10.842   0.349 -0.4168 -0.1910  0.0459
49633SOL    HW160624   7.267  10.842   0.277 -1.1703 -0.2752 -0.6219
49633SOL    HW260625   7.194  10.750   0.371  1.0606 -0.0844  1.3999
49634SOL     OW60626   8.002   6.032  10.618  0.0509  0.5529  0.0742
49634SOL    HW160627   7.927   6.091  10.625  0.7762  1.5700 -0.3972
49634SOL    HW260628   7.966   5.944  10.630 -1.3788  0.9354 -1.2085
49635SOL     OW60629  10.918   3.028   0.638 -0.2548  0.1633 -0.5288
49635SOL    HW160630  10.840   3.072   0.604  0.1126  1.5891  0.3524
49635SOL    HW260631  10.991   3.070   0.591 -0.0186 -1.9339 -2.1732
49636SOL     OW60632   9.753  12.820   2.804 -0.3316 -0.8533  0.0018
49636SOL    HW160633   9.674  12.861   2.770 -0.4530 -0.3680  0.8465
49636SOL    HW260634   9.746  12.728   2.777 -1.5274 -0.9716  0.6655
49637SOL     OW60635   3.030  12.854   6.650  0.2936  0.2213  0.6967
49637SOL    HW160636   2.973  12.843   6.574  0.9367 -0.9962  0.3708
49637SOL    HW260637   2.984  12.918   6.705  0.1477  1.6663 -1.0136
49638SOL     OW60638   1.193   6.322  10.141  0.2831  0.3929 -0.1457
49638SOL    HW160639   1.193   6.250  10.203 -0.5764  0.1162 -0.4597
49638SOL    HW260640   1.116   6.307  10.086  0.5254  1.1243 -0.7022
49639SOL     OW60641   8.416   4.228  13.260 -0.1002  0.1919  0.3305
49639SOL    HW160642   8.467   4.184  13.327 -0.2571  1.1460  1.1066
49639SOL    HW260643   8.383   4.158  13.204 -0.6281 -0.7029  1.7160
49640SOL     OW60644   2.094   2.930  11.931 -0.5037 -0.2096  0.1637
49640SOL    HW160645   2.042   2.858  11.896 -2.3199  0.8391  0.5998
49640SOL    HW260646   2.109   2.907  12.023 -1.5576  0.2073  0.4479
49641SOL     OW60647  13.315   3.536  13.224  0.0779 -0.1995  0.4798
49641SOL    HW160648  13.356   3.591  13.290 -0.2232  1.3223 -0.5388
49641SOL    HW260649  13.366   3.550  13.145 -0.6803 -0.5204 -0.0890
49642SOL     OW60650   5.543  13.243   9.124 -0.3700  0.1765  0.1567
49642SOL    HW160651   5.530  13.292   9.042  0.7621 -0.3905 -0.3817
49642SOL    HW260652   5.490  13.290   9.188 -1.2787  0.6406 -0.8973
49643SOL     OW60653   0.179  11.755  12.373  0.0286 -0.3060  0.5296
49643SOL    HW160654   0.103  11.812  12.370  0.3995  0.1817  0.2108
49643SOL    HW260655   0.174  11.703  12.293 -1.9830 -2.9745  2.1926
49644SOL     OW60656   4.009   4.906   6.412 -0.0308  0.7395  0.2072
49644SOL    HW160657   4.088   4.852   6.412  1.1744  2.4078  0.1231
49644SOL    HW260658   3.990   4.920   6.505  0.3316  1.0937  0.2310
49645SOL     OW60659  13.449   8.430   4.500  0.2351  0.3068  0.3282
49645SOL    HW160660  13.488   8.517   4.504 -0.8601  0.7855  1.3448
49645SOL    HW260661  13.377   8.439   4.437  1.1440 -0.3209 -0.8300
49646SOL     OW60662   9.581  12.584   2.047  0.3087  0.2394  0.1763
49646SOL    HW160663   9.499  12.632   2.046  0.4097  0.4095 -0.2706
49646SOL    HW260664   9.575  12.524   1.973  0.9151  0.8175 -0.3528
49647SOL     OW60665  11.279   1.717   2.306 -0.2326  0.0942 -0.0107
49647SOL    HW160666  11.341   1.687   2.373  1.9364  0.8254 -1.5816
49647SOL    HW260667  11.227   1.639   2.286 -1.1834 -0.0869  2.6573
49648SOL     OW60668   4.517   5.888  11.639 -0.4524 -0.0533  0.0787
49648SOL    HW160669   4.463   5.820  11.598  1.6036 -0.3041 -2.5094
49648SOL    HW260670   4.602   5.847  11.653  0.1054  1.2743  0.8167
49649SOL     OW60671   3.286   9.014   6.068 -0.6346  0.0384  0.6599
49649SOL    HW160672   3.310   9.103   6.040 -3.5478  0.9848  0.8715
49649SOL    HW260673   3.365   8.981   6.111  0.9959  1.9659 -0.6157
49650SOL     OW60674  11.392   9.181   6.163 -0.2722  0.3724 -0.5447
49650SOL    HW160675  11.422   9.155   6.076  1.3352 -0.2330  0.1513
49650SOL    HW260676  11.428   9.269   6.176  0.9764 -0.2259  0.1682
49651SOL     OW60677  11.094  13.232  13.048  0.0520  0.3089  1.3086
49651SOL    HW160678  11.142  13.222  13.130 -0.1552 -2.3828  1.1894
49651SOL    HW260679  11.005  13.205  13.069 -0.7155  2.2872  0.8003
49652SOL     OW60680  11.560  11.274   0.324 -0.3639  0.3529  0.1017
49652SOL    HW160681  11.496  11.318   0.268  0.4444  1.3641 -0.0433
49652SOL    HW260682  11.621  11.343   0.350 -1.1340  0.1073  2.8839
49653SOL     OW60683   0.379  10.662  10.029 -0.8558  0.0070  0.1169
49653SOL    HW160684   0.324  10.640   9.953  0.0721  0.3269 -0.6655
49653SOL    HW260685   0.377  10.757  10.033  0.3898  0.0822 -0.5132
49654SOL     OW60686   2.899   8.280   7.848  0.2616  0.5476  0.2075
49654SOL    HW160687   2.900   8.190   7.816  0.5372  0.2334  1.0540
49654SOL    HW260688   2.814   8.290   7.892  0.8552  0.1675  1.5008
49655SOL     OW60689   6.980   7.686  10.579 -0.0424 -0.2097 -0.4246
49655SOL    HW160690   7.053   7.632  10.609 -1.0466 -1.8157 -0.7541
49655SOL    HW260691   6.935   7.713  10.660  1.8020  2.2465 -0.0827
49656SOL     OW60692   9.760  12.653  10.488  0.5857 -0.9617  0.4774
49656SOL    HW160693   9.728  12.707  10.416  0.6821 -1.2367  0.2275
49656SOL    HW260694   9.842  12.696  10.515  0.4811 -0.7832  0.5106
49657SOL     OW60695  10.174   2.559   9.503 -0.3363  0.2117 -0.2024
49657SOL    HW160696  10.080   2.544   9.492 -0.5587  1.0744  0.4643
49657SOL    HW260697  10.204   2.585   9.416 -0.5883 -0.6351 -0.5599
49658SOL     OW60698  12.541  10.202   8.123 -0.1505 -0.1646 -0.5426
49658SOL    HW160699  12.459  10.226   8.079 -0.3313  1.2014  0.4499
49658SOL    HW260700  12.513  10.171   8.209  0.3415  0.0152 -0.3136
49659SOL     OW60701   3.375   5.932  12.195 -0.5499  0.3232 -0.2265
49659SOL    HW160702   3.403   5.882  12.272  0.7557  1.8276  0.3192
49659SOL    HW260703   3.280   5.943  12.208 -0.4588 -0.0010  0.8300
49660SOL     OW60704   3.376   9.451   7.010 -0.0774  0.0823  0.6209
49660SOL    HW160705   3.434   9.455   6.934 -0.6584  1.6742  0.2348
49660SOL    HW260706   3.435   9.464   7.085  0.1182  1.5309  0.2440
49661SOL     OW60707  12.607   5.478   8.588  0.4880 -0.4591  0.2823
49661SOL    HW160708  12.657   5.495   8.509  0.7673  1.7664  0.8648
49661SOL    HW260709  12.517   5.504   8.565  1.2259  4.3885  1.7246
49662SOL     OW60710   6.788   9.983   6.819  0.6552  0.5590  0.1121
49662SOL    HW160711   6.818  10.051   6.759 -0.3005 -0.2375 -1.3298
49662SOL    HW260712   6.862   9.970   6.879  2.5580 -0.0681 -2.1714
49663SOL     OW60713  11.500   9.702   2.308 -0.3190  0.0311 -0.2031
49663SOL    HW160714  11.518   9.738   2.221 -1.8903  1.7958  0.1468
49663SOL    HW260715  11.470   9.613   2.290  0.5312 -0.0543 -1.3514
49664SOL     OW60716   5.046   9.538   0.772 -0.2439 -0.6893 -0.2358
49664SOL    HW160717   5.027   9.459   0.720 -0.2676  0.6718 -2.4218
49664SOL    HW260718   5.092   9.596   0.711 -1.2314  1.4475  0.9533
49665SOL     OW60719   3.101   1.558  12.066 -0.3993 -0.5134  0.2165
49665SOL    HW160720   3.057   1.542  11.983 -2.7235 -0.2337  1.3030
49665SOL    HW260721   3.146   1.476  12.086  2.3420  0.1628 -2.4083
49666SOL     OW60722  10.852   6.484   7.581  0.0557  0.4456  0.6057
49666SOL    HW160723  10.943   6.477   7.609  0.0816  2.0013  1.0216
49666SOL    HW260724  10.811   6.542   7.646 -0.3917  2.4598 -1.3454
49667SOL     OW60725   5.016   3.001   9.086 -0.3528  0.7121 -0.1022
49667SOL    HW160726   5.099   3.040   9.058  0.8635 -2.0564 -0.7355
49667SOL    HW260727   5.038   2.952   9.165 -0.9133 -1.4350 -1.1941
49668SOL     OW60728   6.251   3.553   1.288 -0.4736 -0.3145 -0.3337
49668SOL    HW160729   6.266   3.474   1.236  0.4872 -0.7803  0.5976
49668SOL    HW260730   6.172   3.534   1.339 -1.6594  0.3067 -1.8766
49669SOL     OW60731  12.449  10.399   4.640 -0.6683  0.0387 -0.6567
49669SOL    HW160732  12.476  10.448   4.562 -0.3197  2.4267  0.8947
49669SOL    HW260733  12.380  10.452   4.679  0.9469  0.3125  2.0646
49670SOL     OW60734   4.700   9.939   8.272  0.0383  0.3994 -0.0607
49670SOL    HW160735   4.668   9.949   8.362  0.5360  0.0513  0.1589
49670SOL    HW260736   4.622   9.916   8.221  0.0078 -0.9644  0.5558
49671SOL     OW60737   6.543  13.702   7.156 -0.3105 -0.0533  0.0226
49671SOL    HW160738   6.608  13.634   7.174  0.1959  0.1702 -0.9403
49671SOL    HW260739   6.501  13.674   7.075 -0.6171  0.4111  0.0164
49672SOL     OW60740  13.273   2.527   6.753 -0.3874  0.1803 -0.2259
49672SOL    HW160741  13.326   2.545   6.675  1.1775  0.2777  0.8091
49672SOL    HW260742  13.227   2.445   6.732 -0.3690  0.4481 -1.4153
49673SOL     OW60743  12.621   2.391   5.371  0.6417 -0.5814  0.0868
49673SOL    HW160744  12.671   2.451   5.316  1.5256  0.4438  1.9204
49673SOL    HW260745  12.531   2.422   5.365  0.3817 -1.6431 -2.2170
49674SOL     OW60746   8.569   6.179  11.121 -0.0065 -0.6370  0.2793
49674SOL    HW160747   8.481   6.182  11.083 -0.2432 -0.2362  0.8529
49674SOL    HW260748   8.589   6.270  11.144  1.4334 -0.3406 -1.8036
49675SOL     OW60749  12.958   0.077   1.142 -0.6936 -0.3260  0.2812
49675SOL    HW160750  12.883   0.115   1.096 -1.0872 -1.6759 -0.2610
49675SOL    HW260751  12.997   0.017   1.077  0.1309 -0.5332  0.9569
49676SOL     OW60752   8.238   4.316   5.300 -0.3020 -0.0171 -0.6660
49676SOL    HW160753   8.292   4.246   5.262 -0.7039 -0.7025 -0.0135
49676SOL    HW260754   8.150   4.298   5.267 -0.0702  1.3869 -2.1256
49677SOL     OW60755   0.338   0.551   0.602  0.2494  0.3554  0.0346
49677SOL    HW160756   0.393   0.473   0.595 -0.7848 -0.5095  1.1589
49677SOL    HW260757   0.382   0.605   0.669  0.9589  0.7487 -0.7350
49678SOL     OW60758   2.933   0.457   6.928  0.9054 -0.1668  0.5242
49678SOL    HW160759   2.842   0.461   6.956  0.9127 -0.6761  0.6192
49678SOL    HW260760   2.930   0.420   6.840  0.8768  1.4585 -0.1959
49679SOL     OW60761  12.723   0.023   9.598 -0.5670  0.4308 -0.1856
49679SOL    HW160762  12.643  -0.001   9.551 -0.8744  0.2097  0.4283
49679SOL    HW260763  12.691   0.059   9.682 -0.0140 -0.1077  0.2616
49680SOL     OW60764   1.585  12.942  12.999 -0.7345 -0.1124 -0.0714
49680SOL    HW160765   1.667  12.934  13.048 -1.2753 -0.6059  0.7783
49680SOL    HW260766   1.517  12.928  13.065 -1.5111  0.5893 -0.7043
49681SOL     OW60767   9.423   8.568   1.035  0.3579  0.3314  0.1706
49681SOL    HW160768   9.475   8.542   1.111  0.2880  0.7292  0.3542
49681SOL    HW260769   9.332   8.563   1.065  0.3192  0.2783  0.0479
49682SOL     OW60770   7.316   9.630  11.055 -0.0061 -0.3811 -0.0030
49682SOL    HW160771   7.358   9.565  10.999 -1.2292 -0.3800 -0.9517
49682SOL    HW260772   7.297   9.703  10.997  0.4366  0.4297  0.8405
49683SOL     OW60773   8.691  10.541  12.991 -0.8409  0.1024 -0.2137
49683SOL    HW160774   8.768  10.499  13.031 -1.3999 -1.8639 -1.0832
49683SOL    HW260775   8.728  10.608  12.933  0.1054  0.6286  0.9465
49684SOL     OW60776   0.328   5.848   5.727  0.1323 -0.9722 -0.1336
49684SOL    HW160777   0.298   5.796   5.653  1.9525 -0.6339 -1.1644
49684SOL    HW260778   0.268   5.923   5.729 -0.4603 -1.4214 -0.7235
49685SOL     OW60779   9.792   0.083  12.713  0.4234 -0.7402 -0.0466
49685SOL    HW160780   9.848   0.011  12.743 -0.2048 -1.5628 -0.7876
49685SOL    HW260781   9.838   0.119  12.637  0.5292 -0.6523  0.0606
49686SOL     OW60782  12.035   8.105   4.837  0.1092  0.2972  0.3184
49686SOL    HW160783  12.010   8.018   4.809  1.8580 -0.3334  0.5900
49686SOL    HW260784  12.082   8.142   4.762  1.6377 -0.0117  1.0993
49687SOL     OW60785   0.212   0.106   0.731 -0.2532 -0.2319 -0.5322
49687SOL    HW160786   0.161   0.160   0.670 -0.0579  1.4331  0.7160
49687SOL    HW260787   0.238   0.030   0.679 -3.1568 -0.6873 -1.5214
49688SOL     OW60788   7.885  11.503   7.352 -0.1942  0.4866  0.2702
49688SOL    HW160789   7.891  11.579   7.411  2.6002 -0.6257  1.6053
49688SOL    HW260790   7.941  11.437   7.393 -1.6094 -1.9290 -1.4511
49689SOL     OW60791   2.569   0.331   5.830  0.2247 -0.6262  0.0349
49689SOL    HW160792   2.628   0.406   5.835  0.1693 -0.6106  0.5093
49689SOL    HW260793   2.523   0.342   5.747 -0.4986  0.4072  0.5516
49690SOL     OW60794  13.022   0.010   8.305 -0.0264  0.3495 -0.2613
49690SOL    HW160795  13.114  -0.016   8.309 -0.4400 -1.3661 -0.9244
49690SOL    HW260796  12.981  -0.038   8.376 -0.3077  1.7241  0.5397
49691SOL     OW60797   5.402   8.495   6.724 -0.4436  0.0035 -0.4926
49691SOL    HW160798   5.441   8.480   6.638 -0.6225 -1.1148 -0.4027
49691SOL    HW260799   5.410   8.410   6.769 -2.8726 -0.2877 -0.4437
49692SOL     OW60800   9.127  13.148   2.225 -0.3080 -1.2352 -0.2647
49692SOL    HW160801   9.057  13.161   2.161 -0.0850 -1.3141 -0.5243
49692SOL    HW260802   9.091  13.183   2.307 -0.5791 -1.1012 -0.4399
49693SOL     OW60803  12.387   0.896   3.648  0.3959 -0.3944  0.2505
49693SOL    HW160804  12.356   0.914   3.559  0.7664  1.2627  0.4194
49693SOL    HW260805  12.479   0.873   3.637  0.6149  0.4450  0.2353
49694SOL     OW60806   5.227   9.100  12.454  0.3471 -0.1001  0.1410
49694SOL    HW160807   5.235   9.174  12.394  2.3432 -0.7956 -0.5355
49694SOL    HW260808   5.172   9.038  12.407  1.9116 -0.6455 -1.0687
49695SOL     OW60809   4.076   5.267  10.872  0.3727  0.1014  0.0907
49695SOL    HW160810   4.139   5.254  10.942  0.1792  0.6054  0.3646
49695SOL    HW260811   3.993   5.283  10.917  0.1022 -0.2794 -0.2620
49696SOL     OW60812  13.390   4.241  11.837  0.0274 -0.7111  0.1615
49696SOL    HW160813  13.414   4.287  11.917  0.9576 -1.7561  0.5050
49696SOL    HW260814  13.421   4.297  11.767 -0.5650  0.0913  0.5176
49697SOL     OW60815   6.852   0.464   5.633 -0.4129 -0.3390  0.4389
49697SOL    HW160816   6.861   0.540   5.692 -0.5042  0.2639 -0.3128
49697SOL    HW260817   6.763   0.471   5.599 -0.0484 -0.1532 -0.4869
49698SOL     OW60818   2.908   8.047  13.395 -0.1451 -0.1668 -0.3674
49698SOL    HW160819   2.985   8.064  13.341  0.2581 -1.3007 -0.1626
49698SOL    HW260820   2.903   8.123  13.454  2.3901 -1.2795  1.4487
49699SOL     OW60821  10.776   2.025   2.751  0.0360 -0.0914 -0.0653
49699SOL    HW160822  10.808   2.005   2.663 -0.4999  0.1735 -0.3270
49699SOL    HW260823  10.797   2.117   2.764  0.2192 -0.1592  0.1365
49700SOL     OW60824  11.878  13.156   7.760 -0.3712 -0.3198 -0.0590
49700SOL    HW160825  11.878  13.172   7.855 -1.0566  1.1432 -0.2820
49700SOL    HW260826  11.832  13.232   7.723  2.1150  0.4373 -1.7847
49701SOL     OW60827  12.412  13.641   1.492  0.1328 -0.0382 -0.4476
49701SOL    HW160828  12.399  13.720   1.543 -0.5863 -0.4983  0.1023
49701SOL    HW260829  12.329  13.628   1.445  0.3785 -0.2538 -0.8307
49702SOL     OW60830  11.424   5.015  12.579 -0.0591  0.4511  0.8343
49702SOL    HW160831  11.433   4.953  12.507 -1.6635  0.0203  0.9509
49702SOL    HW260832  11.430   4.961  12.658  1.1432  0.8388  1.0200
49703SOL     OW60833   5.844   4.774  10.742  0.3751 -0.4811 -0.1031
49703SOL    HW160834   5.890   4.770  10.658 -1.1075  0.1953 -0.9857
49703SOL    HW260835   5.902   4.729  10.803  1.4767 -1.0268 -1.4904
49704SOL     OW60836   0.445   4.562   8.830 -0.6635 -0.4781  0.0387
49704SOL    HW160837   0.516   4.548   8.768 -1.6117  1.3620 -1.5772
49704SOL    HW260838   0.388   4.485   8.820 -0.5174 -0.4620 -0.9728
49705SOL     OW60839   1.231   2.821   4.014 -0.1968  0.3524  0.6355
49705SOL    HW160840   1.312   2.840   3.967 -0.1415  1.1037  1.0147
49705SOL    HW260841   1.197   2.741   3.973  0.8618 -0.1146  0.6543
49706SOL     OW60842  11.324  11.615  11.182 -0.1394  0.1312 -0.1904
49706SOL    HW160843  11.246  11.567  11.154  0.5872 -0.4137 -1.3642
49706SOL    HW260844  11.299  11.655  11.265 -1.0819 -1.4949  0.3492
49707SOL     OW60845   8.971   2.819   8.986 -0.4155 -0.0844  0.3369
49707SOL    HW160846   8.908   2.889   8.967 -0.0770  0.1284 -0.0244
49707SOL    HW260847   9.007   2.795   8.900  0.2751  0.0634  0.5749
49708SOL     OW60848  11.564   2.309   8.322 -0.4262  0.0907 -0.5221
49708SOL    HW160849  11.542   2.359   8.401  1.8232 -2.5899  2.0107
49708SOL    HW260850  11.556   2.218   8.348  0.4985 -0.9134 -3.4150
49709SOL     OW60851   4.441  10.203   6.193 -0.6192  0.3136  0.1651
49709SOL    HW160852   4.374  10.156   6.142  0.6566 -1.2065 -0.2025
49709SOL    HW260853   4.453  10.148   6.271 -0.3141  0.9579  0.5730
49710SOL     OW60854   9.778   1.020   1.378  0.2313 -0.7204  0.1770
49710SOL    HW160855   9.705   1.036   1.438 -1.7594 -2.0133 -1.7019
49710SOL    HW260856   9.787   1.102   1.329  1.4304  0.1167  1.7316
49711SOL     OW60857   5.940  11.824  10.139 -0.2612 -0.4090  0.5215
49711SOL    HW160858   6.035  11.812  10.141 -0.3465 -1.8524 -1.2686
49711SOL    HW260859   5.927  11.909  10.097  0.2459 -0.5133  0.1419
49712SOL     OW60860   5.904  11.309   5.684  0.1339 -0.3585  0.8465
49712SOL    HW160861   5.935  11.312   5.593  0.7869 -2.5593  0.9281
49712SOL    HW260862   5.809  11.302   5.677  0.2712 -2.1110  0.2162
49713SOL     OW60863   9.045   3.123   5.401  0.0505  0.0825  0.0457
49713SOL    HW160864   9.123   3.124   5.456 -1.1864 -0.0750  1.9309
49713SOL    HW260865   8.997   3.044   5.428  1.1851 -2.3578 -4.1389
49714SOL     OW60866   8.875   8.853   0.755  0.0253  0.1359 -0.1181
49714SOL    HW160867   8.907   8.930   0.708  0.6490 -0.9235 -1.5106
49714SOL    HW260868   8.794   8.829   0.711  0.5947 -0.8505 -0.6623
49715SOL     OW60869  11.201   3.117   0.064 -0.0361 -0.1050  0.4176
49715SOL    HW160870  11.295   3.101   0.059 -0.0002 -0.0466  0.9020
49715SOL    HW260871  11.163   3.056   0.001  0.2855 -0.4670  0.5681
49716SOL     OW60872   8.699  13.615   9.785 -0.0344 -0.2166  0.4400
49716SOL    HW160873   8.776  13.667   9.807 -0.3131  0.6682 -0.5953
49716SOL    HW260874   8.638  13.677   9.745 -0.6583 -1.2004 -0.1898
49717SOL     OW60875   7.603   0.256   5.186 -0.2574  0.1652 -0.2128
49717SOL    HW160876   7.586   0.346   5.214  1.8525  0.5623 -0.0912
49717SOL    HW260877   7.527   0.207   5.217 -1.3517  1.8544 -0.0897
49718SOL     OW60878   2.534   6.498   0.231  0.1666  0.2366  0.0558
49718SOL    HW160879   2.495   6.511   0.317  1.5968 -0.6346  0.8763
49718SOL    HW260880   2.543   6.403   0.222  1.5870  0.3795 -0.3006
49719SOL     OW60881  10.619   1.451  13.460 -0.2150 -0.1949 -0.1787
49719SOL    HW160882  10.664   1.384  13.409 -1.4421 -0.0937 -1.4634
49719SOL    HW260883  10.541   1.472  13.408 -0.3765  1.4997  0.6824
49720SOL     OW60884   3.144   7.082   6.955  0.1585 -0.2332 -0.0366
49720SOL    HW160885   3.100   7.167   6.947 -0.3302 -0.4793 -0.0100
49720SOL    HW260886   3.236   7.101   6.939  0.0212  0.2674 -0.2495
49721SOL     OW60887   7.761   9.842  11.969  0.2590  0.3562 -0.4851
49721SOL    HW160888   7.704   9.865  11.896 -1.9542 -1.1443  0.6437
49721SOL    HW260889   7.727   9.758  12.000  1.9908  0.2769  1.4067
49722SOL     OW60890  10.377   8.777  10.129 -0.2001 -0.0675 -0.5189
49722SOL    HW160891  10.452   8.836  10.140 -0.5567  0.2223  0.4593
49722SOL    HW260892  10.397   8.702  10.184 -1.4748  0.8650  1.3175
49723SOL     OW60893  10.769   5.391  11.297  0.3848 -0.8351 -0.4795
49723SOL    HW160894  10.799   5.383  11.206 -0.9378 -1.0344 -0.9232
49723SOL    HW260895  10.682   5.350  11.297  0.4998 -1.1230  0.9533
49724SOL     OW60896   4.323   9.258   0.278  0.2946  0.0883 -0.0820
49724SOL    HW160897   4.238   9.300   0.260  0.6462  0.3626 -1.1593
49724SOL    HW260898   4.366   9.254   0.193  1.6001  0.4647  0.5336
49725SOL     OW60899   5.434  12.944  13.098 -0.5185  0.3593 -0.3011
49725SOL    HW160900   5.529  12.940  13.107 -0.5513  0.3762  0.0508
49725SOL    HW260901   5.419  12.941  13.003 -0.2049 -0.4650 -0.3366
49726SOL     OW60902   3.057   8.207   7.097  0.0566 -0.0739  1.0749
49726SOL    HW160903   2.981   8.216   7.155  0.5037  1.1732  1.4922
49726SOL    HW260904   3.115   8.145   7.143 -0.1652 -0.0842  1.3399
49727SOL     OW60905   1.471  12.151   6.246  0.7505  0.3296 -0.2587
49727SOL    HW160906   1.483  12.129   6.154  1.5744 -0.8852  0.1192
49727SOL    HW260907   1.465  12.067   6.291 -1.8443  0.8627  0.5779
49728SOL     OW60908  11.588   3.278   3.580  0.0451  0.0374 -0.3610
49728SOL    HW160909  11.631   3.358   3.611 -2.5720  1.8220 -1.0459
49728SOL    HW260910  11.573   3.293   3.487  0.4334 -1.7438 -0.7508
49729SOL     OW60911   4.107   0.446   3.807  0.1206 -0.2415 -0.3062
49729SOL    HW160912   4.061   0.363   3.822  2.3170 -1.3009  1.1083
49729SOL    HW260913   4.197   0.420   3.790  0.7665  1.8601 -0.3186
49730SOL     OW60914  13.517  12.238   9.240  0.4283  0.5519 -0.2863
49730SOL    HW160915  13.481  12.251   9.328  1.9197 -0.2074  0.4714
49730SOL    HW260916  13.570  12.317   9.224  1.8353 -0.2196  0.3916
49731SOL     OW60917   9.118  13.552   9.714  0.0232  0.7727 -0.1445
49731SOL    HW160918   9.110  13.537   9.808  1.4627  0.1224 -0.1069
49731SOL    HW260919   9.082  13.473   9.674  1.7820 -0.1045 -0.0663
49732SOL     OW60920   7.969   9.774  11.289  0.2375 -0.1508 -0.0079
49732SOL    HW160921   7.882   9.763  11.251 -0.2462  1.5995  0.5095
49732SOL    HW260922   7.993   9.686  11.319  0.7928 -1.7757 -4.4180
49733SOL     OW60923  10.524   6.586  13.101 -0.2301  0.0326  0.1639
49733SOL    HW160924  10.592   6.628  13.154  0.8954 -0.6375 -0.7128
49733SOL    HW260925  10.547   6.607  13.011  0.5437 -2.5897 -0.3525
49734SOL     OW60926   5.328   9.299   8.660 -0.1344  0.1761  0.7389
49734SOL    HW160927   5.270   9.329   8.590  0.3901  0.2452  0.3232
49734SOL    HW260928   5.339   9.375   8.717 -0.4963  0.1449  0.8504
49735SOL     OW60929   3.119  12.119  10.409  0.4388  0.3329  0.7927
49735SOL    HW160930   3.051  12.051  10.411 -0.1997  0.9716  1.6623
49735SOL    HW260931   3.193  12.077  10.366 -0.9005 -0.0156 -1.3050
49736SOL     OW60932   6.805   8.515  10.346  0.6582  0.6079  0.2160
49736SOL    HW160933   6.860   8.482  10.418 -1.4340 -2.4488  0.6510
49736SOL    HW260934   6.820   8.453  10.274 -1.5793  0.0662  0.1305
49737SOL     OW60935   0.936   6.389  13.003 -0.1850  0.1528 -0.0760
49737SOL    HW160936   0.967   6.465  13.051 -0.9198 -0.3085  1.1708
49737SOL    HW260937   0.934   6.418  12.911  0.0494  1.4485  0.3061
49738SOL     OW60938   4.129   5.410  12.268  0.1591 -0.5260 -0.0609
49738SOL    HW160939   4.164   5.415  12.178 -0.7823  0.9472 -0.3806
49738SOL    HW260940   4.139   5.500  12.301 -0.5173 -0.8143  0.9197
49739SOL     OW60941   6.519  12.350   2.240  0.2409  0.5920  0.1812
49739SOL    HW160942   6.605  12.391   2.229 -0.0585  1.2050  0.1140
49739SOL    HW260943   6.513  12.289   2.166  0.5594  0.6483  0.1050
49740SOL     OW60944   9.342  13.479  12.316 -0.0413  0.0408 -0.1611
49740SOL    HW160945   9.357  13.532  12.394 -2.7867  1.1700 -0.2879
49740SOL    HW260946   9.331  13.542  12.245 -1.2627 -0.7474 -0.7245
49741SOL     OW60947   2.248   9.533   3.543 -0.3282 -0.4055  0.8968
49741SOL    HW160948   2.243   9.458   3.603 -4.5177 -0.9338  0.1908
49741SOL    HW260949   2.251   9.610   3.600 -0.3024 -0.9816  1.6881
49742SOL     OW60950  12.290  11.073   9.256  0.4087 -0.0348  0.2954
49742SOL    HW160951  12.279  11.145   9.193  0.2053 -0.1593  0.1868
49742SOL    HW260952  12.212  11.019   9.244  1.6827 -1.6377 -1.3681
49743SOL     OW60953   9.875   1.166   7.674  0.2616  0.2969  0.0688
49743SOL    HW160954   9.783   1.140   7.664  0.5550 -0.7464 -0.0186
49743SOL    HW260955   9.877   1.257   7.645 -1.2002  1.1487  2.2620
49744SOL     OW60956   6.491   2.109   2.441  0.4749 -0.2874  0.0142
49744SOL    HW160957   6.420   2.147   2.390 -0.8815 -3.0921 -0.3693
49744SOL    HW260958   6.491   2.158   2.523 -0.2236  1.3820 -0.9335
49745SOL     OW60959  13.107   3.709  11.272 -0.5913 -0.3232 -0.0063
49745SOL    HW160960  13.193   3.693  11.232 -0.6545 -1.3139  0.2324
49745SOL    HW260961  13.127   3.733  11.362 -0.3197  3.8335 -0.9858
49746SOL     OW60962   7.308  13.132  13.036  0.3163  0.1593  0.2667
49746SOL    HW160963   7.305  13.225  13.015  0.9055 -0.3722 -2.4826
49746SOL    HW260964   7.391  13.120  13.081  1.2769  0.6498 -1.3092
49747SOL     OW60965  12.240  10.211  12.467 -0.4084  0.0506 -0.1854
49747SOL    HW160966  12.249  10.289  12.522 -0.9163 -0.5079  0.7139
49747SOL    HW260967  12.147  10.206  12.448 -0.8112 -1.7115  1.8851
49748SOL     OW60968   8.972   9.629   7.541 -0.0449 -0.6045  0.0675
49748SOL    HW160969   9.066   9.619   7.525  0.2436  0.5184  0.9998
49748SOL    HW260970   8.950   9.556   7.600  0.1997 -0.9506 -0.2613
49749SOL     OW60971   5.147   7.955   5.683  0.5371  0.1310 -0.4429
49749SOL    HW160972   5.230   7.920   5.651 -0.3367 -2.2844 -0.2938
49749SOL    HW260973   5.158   7.959   5.778  0.9852  1.3569 -0.5220
49750SOL     OW60974   0.553   7.513  13.562  0.0091  0.2070  0.0461
49750SOL    HW160975   0.458   7.528  13.563  0.3975  3.2925 -0.1142
49750SOL    HW260976   0.563   7.427  13.602 -2.7849  0.4780  1.6519
49751SOL     OW60977   4.029   0.064   8.148  0.3138  0.4866  0.3420
49751SOL    HW160978   4.016   0.091   8.057  1.0801  1.6689  0.5587
49751SOL    HW260979   4.066  -0.025   8.142 -0.8988  0.0138 -0.4358
49752SOL     OW60980  10.219   2.692  10.824  0.2934 -0.3005  0.1099
49752SOL    HW160981  10.268   2.733  10.896  1.9544  0.0956 -1.1921
49752SOL    HW260982  10.206   2.601  10.853  0.5505 -0.0478  1.0744
49753SOL     OW60983   3.415   9.736   7.581 -0.0934 -0.3779  0.3780
49753SOL    HW160984   3.453   9.675   7.644  0.2425  0.2931  0.8368
49753SOL    HW260985   3.357   9.792   7.633 -0.0493 -0.0167  0.0468
49754SOL     OW60986  10.528   4.141  10.378  0.2749  0.1698  0.5311
49754SOL    HW160987  10.614   4.181  10.390  0.1728 -0.0639  2.2546
49754SOL    HW260988  10.546   4.047  10.374  0.3352  0.2299 -1.7854
49755SOL     OW60989  10.672  12.765   0.975 -0.0923  0.2399  0.4705
49755SOL    HW160990  10.611  12.749   1.047  0.2173 -2.3462  0.2520
49755SOL    HW260991  10.758  12.743   1.010  0.1329 -0.5076 -0.5280
49756SOL     OW60992   1.959   6.868   8.853  0.6478  0.1802  0.0098
49756SOL    HW160993   1.926   6.949   8.892  0.8874  0.7756 -0.9570
49756SOL    HW260994   1.909   6.798   8.894 -0.0842  0.8825  0.3345
49757SOL     OW60995   1.878  11.951   5.202 -0.3655 -0.1588 -0.0616
49757SOL    HW160996   1.912  11.865   5.225  0.2670  0.4411  1.3536
49757SOL    HW260997   1.817  11.972   5.273  1.9015  1.9134  1.4093
49758SOL     OW60998  11.836   5.986  13.282  0.4971  0.0155  0.3866
49758SOL    HW160999  11.821   6.047  13.209  1.0224  0.5987  0.7524
49758SOL    HW261000  11.913   6.021  13.327  1.3115 -1.3853  0.1361
49759SOL     OW61001   9.685   4.746   5.768  0.2181  0.0776  0.0026
49759SOL    HW161002   9.773   4.741   5.730  0.6273  0.1248  0.9152
49759SOL    HW261003   9.674   4.664   5.816 -0.0229  0.2916  0.3227
49760SOL     OW61004   0.593   6.894   2.464 -0.2022  0.2661 -0.4152
49760SOL    HW161005   0.613   6.952   2.390  2.5226  1.0073  0.7660
49760SOL    HW261006   0.617   6.807   2.433 -0.6363  0.3257 -0.9295
49761SOL     OW61007  10.014   6.068   4.978  0.5157  0.4823 -0.2712
49761SOL    HW161008  10.002   5.975   4.962 -2.9761  0.8528 -0.5788
49761SOL    HW261009  10.099   6.089   4.939  1.1904 -2.4507 -0.5532
49762SOL     OW61010   9.628   7.046   0.981 -0.0610 -0.8640  0.3240
49762SOL    HW161011   9.562   7.065   0.914 -0.6381  0.3984  1.1963
49762SOL    HW261012   9.632   7.126   1.033 -0.4688 -2.1746  2.4879
49763SOL     OW61013   9.758   1.468   3.939  0.3614  0.3518  0.2516
49763SOL    HW161014   9.832   1.416   3.907 -0.1485 -0.0783 -0.2535
49763SOL    HW261015   9.749   1.443   4.031  1.1448  0.7661  0.4437
49764SOL     OW61016  11.137  10.077   5.515 -0.4167  0.7006  0.0936
49764SOL    HW161017  11.146  10.171   5.503  2.7667  0.3322 -1.3980
49764SOL    HW261018  11.220  10.049   5.553  0.1189 -1.8666 -2.5885
49765SOL     OW61019   3.849   8.696   3.865  0.5315  0.2622  0.0520
49765SOL    HW161020   3.876   8.645   3.789 -1.4045 -0.5676 -0.1553
49765SOL    HW261021   3.834   8.630   3.933  2.5091  1.0105  1.3095
49766SOL     OW61022   9.474   1.018   7.044  0.1953  0.1932  0.4575
49766SOL    HW161023   9.429   1.093   7.082  0.5960  0.0523  1.2118
49766SOL    HW261024   9.564   1.047   7.031  0.5800 -0.4412  1.6025
49767SOL     OW61025   6.821  13.315   6.928  0.5451 -0.6658 -0.1836
49767SOL    HW161026   6.915  13.323   6.942  0.5852 -1.6714  0.2364
49767SOL    HW261027   6.783  13.318   7.016 -0.1121  2.5068 -0.4551
49768SOL     OW61028   9.939   9.333   6.495  0.7449  0.2590  0.3717
49768SOL    HW161029  10.017   9.388   6.511  0.0508  1.5054 -0.3618
49768SOL    HW261030   9.884   9.348   6.571  0.4486  0.7839  0.0580
49769SOL     OW61031   1.589   3.507   2.914 -0.0664  0.5021 -0.1684
49769SOL    HW161032   1.584   3.596   2.949  0.4198 -0.0328  1.3287
49769SOL    HW261033   1.679   3.498   2.885  0.0979  0.2477  0.4084
49770SOL     OW61034   0.756   6.597   7.062  0.0037 -0.0318 -0.0447
49770SOL    HW161035   0.670   6.581   7.022 -0.8909  1.1801  1.2851
49770SOL    HW261036   0.767   6.692   7.056  1.8801 -0.2885 -1.3597
49771SOL     OW61037   7.723  13.223   8.438  0.2519 -0.0568  0.1888
49771SOL    HW161038   7.641  13.189   8.401  0.4911 -0.2697 -0.1558
49771SOL    HW261039   7.728  13.185   8.525 -0.3045  0.4192  0.4321
49772SOL     OW61040   7.616  11.402   0.662 -0.3135 -0.0136  0.2572
49772SOL    HW161041   7.679  11.343   0.705 -0.5255 -1.0310 -0.7869
49772SOL    HW261042   7.531  11.361   0.677 -0.5553  0.4725  0.2269
49773SOL     OW61043   2.027  12.352   9.670  0.4981 -0.5792 -0.6104
49773SOL    HW161044   2.105  12.401   9.694  0.6881 -0.2899 -1.7782
49773SOL    HW261045   2.059  12.280   9.615  0.0502 -1.0992 -0.2087
49774SOL     OW61046   0.735   5.780   5.449 -0.4742  0.5202 -0.1419
49774SOL    HW161047   0.664   5.840   5.472 -1.0777 -0.1289 -0.2862
49774SOL    HW261048   0.692   5.696   5.435 -0.0552  0.6350 -2.7186
49775SOL     OW61049   1.482   7.858   3.137 -0.1548  0.5051  0.0440
49775SOL    HW161050   1.535   7.833   3.061  0.2634  1.7064 -0.0712
49775SOL    HW261051   1.533   7.830   3.212  1.0459  2.3462 -0.0433
49776SOL     OW61052   0.052  10.724   9.653 -0.0284  0.4142  0.5035
49776SOL    HW161053  -0.006  10.700   9.581 -1.9780 -1.9118  2.6674
49776SOL    HW261054   0.014  10.804   9.689 -0.6133  0.1224  0.5407
49777SOL     OW61055   6.020   1.671   2.436 -0.2220 -0.3778 -0.5075
49777SOL    HW161056   6.096   1.614   2.426 -1.4940 -1.9369 -2.0911
49777SOL    HW261057   6.019   1.725   2.356 -1.8076 -1.7896 -1.5163
49778SOL     OW61058   5.751  11.901   1.554 -0.3577  0.7398 -0.0410
49778SOL    HW161059   5.754  11.990   1.590 -0.1033  0.5885  0.3202
49778SOL    HW261060   5.666  11.867   1.584 -0.4946  0.8894 -0.2534
49779SOL     OW61061  10.559  12.507  11.264  0.1926 -0.1870  0.3727
49779SOL    HW161062  10.558  12.528  11.170  0.4583 -2.5922 -0.2157
49779SOL    HW261063  10.477  12.546  11.297 -0.9696 -1.0847 -1.2985
49780SOL     OW61064   8.783   7.378   0.330 -0.2345 -0.1558  0.2002
49780SOL    HW161065   8.861   7.358   0.383  0.4806 -0.8994 -1.0814
49780SOL    HW261066   8.727   7.301   0.340 -0.6688  0.2309  0.8402
49781SOL     OW61067   5.883   0.655   6.979  0.2217 -0.1704 -0.2712
49781SOL    HW161068   5.884   0.729   6.918 -0.9478  0.1573  0.0824
49781SOL    HW261069   5.817   0.596   6.944 -1.7850  0.8291  1.5397
49782SOL     OW61070   0.037   3.193   5.821  0.3077 -0.3117  0.3577
49782SOL    HW161071   0.132   3.183   5.810  0.2813 -0.4882  0.2858
49782SOL    HW261072   0.018   3.278   5.780  0.5999  0.2726  1.4032
49783SOL     OW61073   4.522   4.908   1.161 -0.1080  0.6154  0.4235
49783SOL    HW161074   4.554   4.891   1.249  0.2165 -0.1237  0.1709
49783SOL    HW261075   4.598   4.893   1.105 -0.1735  1.5656  0.0484
49784SOL     OW61076   4.193   1.271   7.695  0.2210 -0.3414  0.8545
49784SOL    HW161077   4.109   1.267   7.649  0.9505  0.0379 -0.5575
49784SOL    HW261078   4.223   1.180   7.697 -0.6155 -0.6195  2.1804
49785SOL     OW61079   9.483   4.266   3.544  0.5359 -0.3794  0.3355
49785SOL    HW161080   9.466   4.173   3.530 -2.4827  0.0467  0.6574
49785SOL    HW261081   9.492   4.302   3.456 -0.1012 -0.6971  0.1354
49786SOL     OW61082   4.214  11.650  13.301 -0.0838  0.2216 -0.3789
49786SOL    HW161083   4.302  11.686  13.315  0.1831 -0.3774 -0.4613
49786SOL    HW261084   4.217  11.613  13.213 -0.5117  0.4598 -0.4928
49787SOL     OW61085  11.933   5.030  13.619  0.7279  0.4626 -0.1208
49787SOL    HW161086  11.884   5.097  13.667 -0.2739 -0.3688  0.0482
49787SOL    HW261087  11.880   4.950  13.629  1.0116  0.0458 -1.7627
49788SOL     OW61088   3.717  10.355   2.125 -0.2663 -0.1211 -0.7188
49788SOL    HW161089   3.793  10.342   2.069 -0.2955 -1.3151 -0.5001
49788SOL    HW261090   3.641  10.336   2.069 -0.2495 -2.7430  0.0502
49789SOL     OW61091   1.437   3.633   4.277 -0.2041 -0.2367 -0.4941
49789SOL    HW161092   1.352   3.632   4.321 -0.9077 -1.3425 -1.8155
49789SOL    HW261093   1.472   3.721   4.294 -1.3052  0.0064  0.6209
49790SOL     OW61094   6.598   7.418   0.230 -0.2793  0.3236 -0.0030
49790SOL    HW161095   6.678   7.446   0.185  1.1553 -0.4259  1.9283
49790SOL    HW261096   6.627   7.349   0.290 -2.7868 -1.5400 -0.7697
49791SOL     OW61097  10.422  10.909   6.376  0.3174  0.1738  0.0871
49791SOL    HW161098  10.360  10.894   6.447 -0.5355 -0.1838 -0.7239
49791SOL    HW261099  10.508  10.891   6.415 -0.1554 -0.2208  0.9637
49792SOL     OW61100   8.562  12.312  11.784 -0.0404 -0.1112  0.4315
49792SOL    HW161101   8.628  12.350  11.842  0.2202 -0.7453  0.5639
49792SOL    HW261102   8.503  12.384  11.764  0.1678  0.2461  1.0673
49793SOL     OW61103   8.535  12.108  10.384  0.0421  0.0868  0.4294
49793SOL    HW161104   8.604  12.042  10.389  0.0104  0.0729  0.7020
49793SOL    HW261105   8.530  12.143  10.473 -0.6597 -0.2758  0.5363
49794SOL     OW61106  10.116   3.213   3.115  0.1999 -0.2585  0.7668
49794SOL    HW161107  10.044   3.267   3.148 -0.1672 -1.3756  1.8632
49794SOL    HW261108  10.092   3.194   3.024 -1.3555 -1.3177  1.3586
49795SOL     OW61109   2.645  11.767  11.193 -0.3557 -0.4571 -0.4642
49795SOL    HW161110   2.695  11.842  11.159 -1.0048 -0.1568 -0.7676
49795SOL    HW261111   2.584  11.805  11.256 -0.5442 -0.7606 -0.4611
49796SOL     OW61112  12.028   8.736   2.409 -0.1980 -0.1262 -0.3892
49796SOL    HW161113  11.945   8.738   2.363 -0.3593  2.0068 -0.0919
49796SOL    HW261114  12.014   8.790   2.487  1.7566  1.1971 -0.8898
49797SOL     OW61115  10.079   2.356   3.032  0.2484  0.1044 -0.2764
49797SOL    HW161116  10.171   2.359   3.003  0.3073 -0.5574 -0.1758
49797SOL    HW261117  10.046   2.273   2.998 -0.6075  0.7723 -1.1515
49798SOL     OW61118  12.757   2.739  10.257 -0.5980 -0.0711  0.8581
49798SOL    HW161119  12.827   2.795  10.291  1.6887 -2.0675 -0.2772
49798SOL    HW261120  12.739   2.775  10.170 -0.7299  0.2189  1.0026
49799SOL     OW61121   0.001   1.749   2.952  0.1674  0.1332 -0.1430
49799SOL    HW161122  -0.080   1.754   2.903 -0.5403 -0.4723  0.9153
49799SOL    HW261123   0.021   1.655   2.958  0.3042  0.2010  0.6026
49800SOL     OW61124   3.511   2.225  12.271 -0.1827 -0.7094  0.1156
49800SOL    HW161125   3.483   2.140  12.238 -2.2272 -0.5802  1.2973
49800SOL    HW261126   3.527   2.211  12.364 -0.0628  0.0778  0.2199
49801SOL     OW61127  13.454  10.617  11.775 -0.1015  0.2875  0.3818
49801SOL    HW161128  13.503  10.585  11.851  0.2910 -2.1891 -0.8364
49801SOL    HW261129  13.521  10.651  11.716 -0.1278 -0.2903  0.0118
49802SOL     OW61130   9.198   8.541   5.775 -0.2982  0.3612  0.2906
49802SOL    HW161131   9.244   8.590   5.844 -0.4339  0.0946  0.5753
49802SOL    HW261132   9.112   8.583   5.770 -1.6356 -1.7332  2.7516
49803SOL     OW61133  12.945   2.341   2.466  0.4728  0.0879 -0.3590
49803SOL    HW161134  13.024   2.320   2.416 -0.0599  1.8486 -2.0883
49803SOL    HW261135  12.964   2.425   2.508  0.5681 -0.9376  1.7636
49804SOL     OW61136   8.323   4.280  13.597  0.1872 -0.0270  0.2778
49804SOL    HW161137   8.230   4.260  13.585  0.7764 -1.2674 -3.8896
49804SOL    HW261138   8.369   4.202  13.565  2.6206  2.0900 -1.9149
49805SOL     OW61139  12.949   3.008  12.422  0.0937  0.0709  0.4357
49805SOL    HW161140  12.976   3.096  12.447  1.0528  0.2353 -0.9922
49805SOL    HW261141  13.031   2.962  12.403 -0.4414 -0.7370 -0.0271
49806SOL     OW61142   2.309   6.395   7.452  0.0367  0.0208  0.1493
49806SOL    HW161143   2.271   6.478   7.481 -2.5407 -0.9617 -0.1118
49806SOL    HW261144   2.236   6.334   7.455  1.4828 -1.8732 -1.2155
49807SOL     OW61145   9.550   0.769  13.218 -0.3998  0.1178  1.3616
49807SOL    HW161146   9.588   0.833  13.279 -0.8720  1.0818  0.6783
49807SOL    HW261147   9.464   0.805  13.196 -0.9253 -1.0686  1.4107
49808SOL     OW61148   8.940   5.123   1.221  0.2080  0.1947 -0.7556
49808SOL    HW161149   8.965   5.209   1.187  1.8843  0.1602  0.3212
49808SOL    HW261150   9.002   5.062   1.182  0.5239 -0.1956  0.3268
49809SOL     OW61151   7.480   6.478  10.385  0.0534  0.1625 -0.5689
49809SOL    HW161152   7.393   6.485  10.425 -0.0641  1.1913 -0.9787
49809SOL    HW261153   7.510   6.390  10.409 -0.5470  0.2667  0.6778
49810SOL     OW61154   7.584   9.027   2.258  0.1525 -0.3886 -0.3154
49810SOL    HW161155   7.673   9.053   2.285  0.0553  0.6287 -0.8969
49810SOL    HW261156   7.549   9.105   2.214 -1.1609 -0.6603  0.2005
49811SOL     OW61157   8.820   7.594  13.604  0.2273 -0.2256 -0.3616
49811SOL    HW161158   8.752   7.631  13.660  0.8600  0.7279 -0.2005
49811SOL    HW261159   8.835   7.506  13.639  1.4716  0.7562  1.8074
49812SOL     OW61160  11.791  12.255  11.238 -0.0798 -0.2502 -0.1307
49812SOL    HW161161  11.813  12.187  11.301 -0.9621  0.1789  0.6794
49812SOL    HW261162  11.818  12.337  11.281 -1.0855  0.0834 -0.0924
49813SOL     OW61163   8.078   6.128   6.721  0.2656  1.0339  0.5915
49813SOL    HW161164   8.038   6.162   6.642 -0.4016  0.1091  0.5224
49813SOL    HW261165   8.107   6.040   6.698  0.1017  0.7686  1.3531
49814SOL     OW61166   9.345   7.150   6.754  0.4749  0.0856  0.1866
49814SOL    HW161167   9.268   7.098   6.732  1.4787 -1.6180  0.5621
49814SOL    HW261168   9.372   7.189   6.671 -1.9489  2.4910  0.3570
49815SOL     OW61169   4.944  12.358  10.101  0.5269 -0.6589  0.4164
49815SOL    HW161170   4.896  12.441  10.110 -0.4755 -1.2356  0.5364
49815SOL    HW261171   4.911  12.320  10.019  0.5607 -1.2054  0.6532
49816SOL     OW61172   4.928   7.651  12.410  0.0500  0.4626 -0.4465
49816SOL    HW161173   4.860   7.701  12.365  1.1363  1.5879 -0.8730
49816SOL    HW261174   4.882   7.608  12.483 -1.4351 -0.1842 -1.7039
49817SOL     OW61175   3.580   0.006   4.368 -0.3597 -0.2730 -0.6593
49817SOL    HW161176   3.660   0.057   4.357  0.6570 -1.2856  1.3837
49817SOL    HW261177   3.566   0.004   4.463 -1.2813 -2.3688 -0.7760
49818SOL     OW61178   5.050   8.155   6.709  0.2175  0.1154  0.2385
49818SOL    HW161179   5.144   8.170   6.709  0.0376  1.3228  0.6787
49818SOL    HW261180   5.026   8.149   6.802 -0.0555 -0.8185  0.1226
49819SOL     OW61181  13.686  13.059   7.644 -0.2212  0.4650  0.2947
49819SOL    HW161182  13.720  12.970   7.631 -0.6028 -0.0280  2.3838
49819SOL    HW261183  13.592  13.050   7.634 -0.2350  0.7023  0.1998
49820SOL     OW61184   8.940  11.265  13.427  0.7105 -0.1914  0.0706
49820SOL    HW161185   9.004  11.200  13.399  0.3491 -1.1109  1.2752
49820SOL    HW261186   8.958  11.279  13.520 -0.3392  0.1080  0.2520
49821SOL     OW61187  12.957   2.898   8.436  0.2529  0.2927  0.0551
49821SOL    HW161188  13.049   2.910   8.462  0.2255 -1.3078  1.0559
49821SOL    HW261189  12.955   2.811   8.395 -0.8544  0.1786  0.3234
49822SOL     OW61190   9.438   2.251   8.903 -0.3477 -0.0708 -0.4712
49822SOL    HW161191   9.370   2.274   8.967 -1.3207  1.0506 -1.8393
49822SOL    HW261192   9.506   2.317   8.915 -1.0351  0.8230 -1.2825
49823SOL     OW61193   9.159  13.531   6.823  0.5365  0.4990  0.3032
49823SOL    HW161194   9.094  13.573   6.880 -0.0784  0.3891 -0.2963
49823SOL    HW261195   9.143  13.437   6.833  0.7534  0.4644  0.3291
49824SOL     OW61196  11.143   6.756   5.767  0.6528 -0.6688  0.3828
49824SOL    HW161197  11.062   6.714   5.796 -0.1489 -0.5229 -1.4913
49824SOL    HW261198  11.204   6.683   5.753 -0.1169 -1.0917 -0.9913
49825SOL     OW61199  11.611   5.302   0.803 -0.5892 -0.1125 -0.4362
49825SOL    HW161200  11.538   5.352   0.840  0.5869  0.2560  1.5363
49825SOL    HW261201  11.641   5.247   0.875  1.7123  0.4884 -0.8715
49826SOL     OW61202   1.623   1.109  12.643 -0.0349  0.2096 -0.5552
49826SOL    HW161203   1.547   1.061  12.675  0.9475  0.4559  2.4544
49826SOL    HW261204   1.692   1.043  12.635  0.0742  0.3691 -0.9780
49827SOL     OW61205   4.708   9.562   6.702  0.3543  0.3624  0.2533
49827SOL    HW161206   4.673   9.599   6.621  1.2276 -1.7517 -1.1975
49827SOL    HW261207   4.660   9.480   6.713  1.0733  0.0550  1.2127
49828SOL     OW61208   6.150   4.269   9.128  0.0194  0.4535 -0.3785
49828SOL    HW161209   6.094   4.327   9.179 -1.9107 -0.2159 -1.6245
49828SOL    HW261210   6.175   4.199   9.189  0.1855  1.1945  0.4107
49829SOL     OW61211   1.486   1.907   4.464  0.0519 -0.4302 -0.2277
49829SOL    HW161212   1.556   1.912   4.529 -0.2127  3.0704  0.0096
49829SOL    HW261213   1.409   1.881   4.514  0.0901  1.1221  0.7184
49830SOL     OW61214   4.108  10.288   8.293 -0.1221  0.0487 -0.0833
49830SOL    HW161215   4.077  10.295   8.383  0.0703  0.4813 -0.0443
49830SOL    HW261216   4.196  10.326   8.295  0.5585 -1.4582 -0.1143
49831SOL     OW61217   4.411   1.169   5.224  0.4692 -0.3710 -0.6963
49831SOL    HW161218   4.333   1.163   5.169  0.7543  1.8184 -1.4640
49831SOL    HW261219   4.484   1.154   5.164  0.7042 -0.6155 -0.3540
49832SOL     OW61220   6.407   1.706   1.904 -0.2676  0.1806  0.5443
49832SOL    HW161221   6.383   1.799   1.901  0.1326  0.2970 -2.1111
49832SOL    HW261222   6.498   1.706   1.934  0.3967  0.9013 -1.2921
49833SOL     OW61223  12.165   8.715   1.184 -0.0384 -0.2612 -0.4092
49833SOL    HW161224  12.200   8.668   1.109 -1.9331 -3.3320  0.4306
49833SOL    HW261225  12.190   8.661   1.260 -0.3679  1.3410  0.8885
49834SOL     OW61226   2.705  13.005  10.142  0.0658 -0.1426  0.7198
49834SOL    HW161227   2.780  13.057  10.170  0.2996 -1.3507  2.5278
49834SOL    HW261228   2.629  13.060  10.160  0.3967  0.3054  0.7628
49835SOL     OW61229  11.794   6.683   7.613  0.2227 -0.2851 -0.1505
49835SOL    HW161230  11.837   6.603   7.645  0.8924  0.7471  1.6670
49835SOL    HW261231  11.852   6.715   7.544  1.7923  0.3901  1.3942
49836SOL     OW61232  11.696   7.726  13.495 -0.0427  0.3912  0.1674
49836SOL    HW161233  11.707   7.780  13.417  0.1403  1.6730  1.0502
49836SOL    HW261234  11.779   7.734  13.541 -0.0309 -0.6248  0.3383
49837SOL     OW61235   9.011   6.327   1.116 -0.1142 -0.1989 -0.0889
49837SOL    HW161236   8.932   6.376   1.139  0.8190  0.2275  2.6922
49837SOL    HW261237   9.082   6.392   1.119  0.6299 -0.9778 -0.2846
49838SOL     OW61238   8.144   8.488  12.653 -0.8237  0.2200  0.2579
49838SOL    HW161239   8.154   8.412  12.711 -3.4472 -0.1646  0.3387
49838SOL    HW261240   8.191   8.463  12.573 -0.8637 -1.1355  0.6206
49839SOL     OW61241   5.807  11.345  12.459  0.0204 -0.0792  0.0841
49839SOL    HW161242   5.745  11.302  12.518 -0.4829 -0.6912 -0.8603
49839SOL    HW261243   5.825  11.279  12.392 -0.0871  0.8827 -0.9139
49840SOL     OW61244  11.140   6.598   0.454  0.2469  0.3965  0.1409
49840SOL    HW161245  11.235   6.591   0.464  0.5281  0.2424 -2.0738
49840SOL    HW261246  11.127   6.613   0.360 -1.8747  1.4293  0.5288
49841SOL     OW61247   6.950   3.215   0.164 -0.0857  0.6090  0.0030
49841SOL    HW161248   6.864   3.187   0.196 -0.3734  1.5672  0.0940
49841SOL    HW261249   7.012   3.162   0.213 -0.5673  1.2756  1.3783
49842SOL     OW61250   8.702   3.745  10.017 -0.0110 -0.0303  0.5060
49842SOL    HW161251   8.794   3.771  10.006 -0.2621  0.3814 -0.7427
49842SOL    HW261252   8.654   3.797   9.952 -1.4633  1.4654  2.6374
49843SOL     OW61253  13.115   0.681   3.244 -0.8602  0.4643  0.0610
49843SOL    HW161254  13.195   0.652   3.288  1.1475  2.2431 -2.1834
49843SOL    HW261255  13.083   0.602   3.199 -1.3212 -0.6377  2.1896
49844SOL     OW61256   0.047   3.491   8.755  0.1581  0.3382 -0.4622
49844SOL    HW161257   0.014   3.476   8.844  2.8702  2.7612  1.1349
49844SOL    HW261258   0.006   3.572   8.727 -1.0573 -0.6595 -1.7083
49845SOL     OW61259   3.641   1.617   3.239 -0.0516  0.3666  0.3247
49845SOL    HW161260   3.703   1.548   3.215  0.6877  1.0268  0.2754
49845SOL    HW261261   3.565   1.603   3.183  0.2051 -0.2392  0.1250
49846SOL     OW61262   5.276   8.279   6.421 -0.4572  0.7120 -0.1766
49846SOL    HW161263   5.334   8.217   6.464  0.4360  0.8953 -1.0624
49846SOL    HW261264   5.234   8.326   6.492 -0.0820  0.0524  0.4942
49847SOL     OW61265  13.165   4.843  13.139  0.1768 -0.0202  0.3351
49847SOL    HW161266  13.179   4.841  13.234 -1.9982 -0.2858  0.7039
49847SOL    HW261267  13.070   4.844  13.129  0.3101 -1.7733 -1.8839
49848SOL     OW61268  13.091   5.116   2.893  0.0011 -0.2431 -1.1636
49848SOL    HW161269  13.061   5.127   2.983  1.5993 -0.3335 -0.5899
49848SOL    HW261270  13.064   5.027   2.869  1.7656 -1.2045  0.1594
49849SOL     OW61271   5.675  12.943   0.001 -0.3765 -0.8092  0.1197
49849SOL    HW161272   5.731  13.011   0.039 -0.9216 -0.1514 -0.2278
49849SOL    HW261273   5.593  12.948   0.051 -0.7387 -0.6035 -0.4813
49850SOL     OW61274  12.244  12.900   5.904  0.1432  0.2247 -0.6984
49850SOL    HW161275  12.300  12.938   5.837 -0.5228  1.7953 -0.4064
49850SOL    HW261276  12.282  12.929   5.987 -0.3415  0.1894 -0.4582
49851SOL     OW61277   4.720  10.375   7.379  0.0843 -0.3441  0.6862
49851SOL    HW161278   4.646  10.388   7.320 -1.1861 -2.2528  1.7426
49851SOL    HW261279   4.698  10.427   7.457  0.2372 -0.3012  0.7017
49852SOL     OW61280  12.070  11.292   1.999  0.3645 -0.3429 -0.0180
49852SOL    HW161281  12.117  11.210   2.015  2.0067  0.0719 -2.1804
49852SOL    HW261282  12.056  11.329   2.086  2.6256 -1.3081  0.8307
49853SOL     OW61283   1.565   0.939   5.145  0.1459  0.5407  0.0117
49853SOL    HW161284   1.595   0.980   5.064  0.8597 -2.1555 -1.1976
49853SOL    HW261285   1.643   0.899   5.183 -0.8432 -1.6580 -0.1200
49854SOL     OW61286  10.087   9.773  10.209 -0.3481  0.2747 -0.4761
49854SOL    HW161287  10.140   9.799  10.133 -0.1468  0.1106 -0.3909
49854SOL    HW261288   9.997   9.771  10.176 -0.0785 -1.7203 -1.2282
49855SOL     OW61289  11.730   1.686   5.374  0.3688  0.1466 -1.2854
49855SOL    HW161290  11.791   1.613   5.365 -0.3765 -1.3209  3.2282
49855SOL    HW261291  11.781   1.756   5.415 -0.3166 -0.1731  0.1696
49856SOL     OW61292  10.736  11.082   5.110  0.1186  0.1450 -0.0820
49856SOL    HW161293  10.778  11.167   5.101  3.2775 -1.2258  0.2752
49856SOL    HW261294  10.754  11.056   5.201 -2.0901 -0.3305  0.2798
49857SOL     OW61295   2.999   8.989   8.915 -0.1207  0.2167 -0.2089
49857SOL    HW161296   2.998   9.055   8.985 -0.6059 -0.0893  0.0813
49857SOL    HW261297   2.963   9.035   8.839  1.6700  0.9524 -0.6501
49858SOL     OW61298   1.011  10.994  11.541 -0.2450  0.0584  0.3527
49858SOL    HW161299   1.086  11.006  11.599  0.5469  2.0082 -0.9678
49858SOL    HW261300   1.042  10.932  11.475 -0.9597 -1.7169  1.6064
49859SOL     OW61301  13.108   2.312   6.052  0.8730 -0.0512 -0.1026
49859SOL    HW161302  13.032   2.312   6.110  1.7068  0.3006  1.0252
49859SOL    HW261303  13.124   2.405   6.034  0.9112 -0.1360 -0.5202
49860SOL     OW61304   4.125  12.075   0.809  0.2201  0.1374  0.0004
49860SOL    HW161305   4.159  12.153   0.766 -0.6600  1.2109  1.1745
49860SOL    HW261306   4.058  12.042   0.749  0.8445  0.0586 -0.6675
49861SOL     OW61307   0.402  13.119   2.796 -0.2473  0.0780  0.5821
49861SOL    HW161308   0.411  13.214   2.804 -0.1783  0.0838  0.4329
49861SOL    HW261309   0.489  13.084   2.814  0.5594  0.2381 -2.5986
49862SOL     OW61310  11.398   5.545   3.828 -0.1424 -0.4307  0.6178
49862SOL    HW161311  11.437   5.504   3.905 -0.6770 -0.1309  1.0569
49862SOL    HW261312  11.310   5.570   3.856 -0.3469 -0.3190 -0.0908
49863SOL     OW61313   9.006  12.829  11.135 -0.8365 -0.0097  0.4756
49863SOL    HW161314   8.927  12.872  11.103  0.3719  2.9987  1.1345
49863SOL    HW261315   9.014  12.859  11.226 -0.0695 -2.0178  1.1268
49864SOL     OW61316   7.146  10.335   4.348  0.0381  0.8697  0.5579
49864SOL    HW161317   7.186  10.416   4.381  1.8278  0.1560  0.2808
49864SOL    HW261318   7.166  10.270   4.415  0.8809  0.1196 -0.3913
49865SOL     OW61319  12.073   2.006   6.240 -0.2369 -0.7308 -0.7015
49865SOL    HW161320  12.012   2.045   6.303 -1.4770 -3.4551 -0.0350
49865SOL    HW261321  12.142   2.071   6.230 -0.9336  0.6050  2.0656
49866SOL     OW61322   3.518  11.712   3.012 -0.3126 -0.5576 -0.2766
49866SOL    HW161323   3.472  11.632   2.989 -1.2546 -0.4203  0.9772
49866SOL    HW261324   3.457  11.758   3.071 -0.0021  1.2943 -1.3278
49867SOL     OW61325   3.605   9.395   1.783  0.4139  0.4370  0.3864
49867SOL    HW161326   3.533   9.346   1.823 -0.3943  2.0704  1.0266
49867SOL    HW261327   3.684   9.361   1.827  0.0976 -1.4401 -0.3966
49868SOL     OW61328  13.314  12.670  10.168  0.0853 -0.2025  0.1450
49868SOL    HW161329  13.258  12.594  10.182 -0.6818  0.0936 -1.1572
49868SOL    HW261330  13.350  12.658  10.081  0.5056  0.5828  0.1998
49869SOL     OW61331   0.501   2.798  10.205  0.0336  0.0133  0.2291
49869SOL    HW161332   0.528   2.708  10.185 -3.0351 -0.6963 -1.3464
49869SOL    HW261333   0.446   2.790  10.283 -2.2017  0.0116 -1.2360
49870SOL     OW61334   1.235   4.181   9.168  0.3313  0.1447  0.3629
49870SOL    HW161335   1.143   4.159   9.185  0.8778 -0.6408  2.5995
49870SOL    HW261336   1.233   4.273   9.142 -1.0371  0.3132  0.9677
49871SOL     OW61337   5.024  13.536  12.958 -0.0880 -0.2819 -0.4813
49871SOL    HW161338   5.034  13.619  13.005 -0.4650 -0.4983 -0.0036
49871SOL    HW261339   4.965  13.485  13.013 -0.3724 -0.6250 -1.0988
49872SOL     OW61340   4.592   8.862  11.188  0.3824 -0.1933 -0.1640
49872SOL    HW161341   4.587   8.897  11.099 -1.5709  1.4934  0.5261
49872SOL    HW261342   4.642   8.928  11.237 -0.6758  0.1423  0.4941
49873SOL     OW61343   3.798   1.320   3.706 -0.0927 -0.3527 -0.6250
49873SOL    HW161344   3.751   1.340   3.625  0.6465  0.8627 -0.7729
49873SOL    HW261345   3.816   1.405   3.745  0.5561 -0.8767  0.2505
49874SOL     OW61346   4.038   8.802   9.773  0.2993  0.2700  0.2133
49874SOL    HW161347   4.018   8.884   9.727  0.9648 -1.2259 -2.9545
49874SOL    HW261348   4.126   8.816   9.809 -1.5631  2.7975  4.5923
49875SOL     OW61349   1.662   0.088  13.073  0.7020  0.2461 -0.0702
49875SOL    HW161350   1.573   0.102  13.042  0.4927 -0.1870  0.3147
49875SOL    HW261351   1.657   0.102  13.168  0.7594 -1.0611  0.1467
49876SOL     OW61352   3.403   3.292  12.758  0.3732 -0.1416 -0.8024
49876SOL    HW161353   3.413   3.231  12.684 -0.8607 -0.8152 -0.4372
49876SOL    HW261354   3.316   3.328  12.747  0.8006  0.9898 -0.5651
49877SOL     OW61355   5.070  11.369  11.623 -0.1932  0.4176 -0.2091
49877SOL    HW161356   5.046  11.276  11.621 -0.2039  0.4247 -0.5249
49877SOL    HW261357   5.063  11.394  11.715  1.4498 -0.3375  0.1666
49878SOL     OW61358   2.039   8.459  11.594 -0.1416 -0.2999  0.1287
49878SOL    HW161359   1.976   8.408  11.645 -0.6512 -1.4368 -1.5748
49878SOL    HW261360   2.097   8.394  11.555 -1.4595  0.2327 -2.9704
49879SOL     OW61361   2.350   0.238   3.525  0.1884  0.0448  0.2830
49879SOL    HW161362   2.391   0.290   3.456  0.0769 -0.3122 -0.0554
49879SOL    HW261363   2.330   0.154   3.483 -1.6820  0.5065  0.1887
49880SOL     OW61364  12.799   0.746   5.345  0.1474 -0.1093 -0.2378
49880SOL    HW161365  12.719   0.798   5.335 -0.1223 -0.8378 -2.2390
49880SOL    HW261366  12.864   0.791   5.291 -0.4464 -2.4691 -3.1396
49881SOL     OW61367  11.188   2.371   2.605  0.8304 -0.0153  0.6287
49881SOL    HW161368  11.188   2.463   2.579  2.9031  0.0191  0.5335
49881SOL    HW261369  11.136   2.327   2.537 -0.9170  1.1498  1.1499
49882SOL     OW61370  11.228   4.694  11.615  0.4102 -0.0102  0.6079
49882SOL    HW161371  11.251   4.786  11.603  1.8652 -0.5850 -1.6997
49882SOL    HW261372  11.309   4.647  11.599 -0.4439 -1.7435  1.1290
49883SOL     OW61373   6.827  12.956   5.520  0.0223  0.0235  0.1299
49883SOL    HW161374   6.869  12.951   5.434 -1.5445 -1.0804 -0.6242
49883SOL    HW261375   6.742  12.913   5.507 -1.0151  1.4815  1.7755
49884SOL     OW61376   3.306   0.738   7.062 -0.3208 -0.3999  0.6711
49884SOL    HW161377   3.279   0.829   7.047 -0.2729 -0.6917 -1.6777
49884SOL    HW261378   3.237   0.686   7.020 -0.1346 -1.4488  1.6209
49885SOL     OW61379   0.661   1.990   3.782  0.1964 -0.7410 -0.1730
49885SOL    HW161380   0.664   1.948   3.868  0.2318 -0.5784 -0.0956
49885SOL    HW261381   0.675   2.083   3.800 -1.0664 -0.5166 -0.2171
49886SOL     OW61382   1.163   6.670  12.053  0.3119  0.2231  0.2635
49886SOL    HW161383   1.197   6.709  12.134  0.4218 -0.9930  0.8157
49886SOL    HW261384   1.234   6.615  12.020 -0.7709 -1.7244  1.0180
49887SOL     OW61385   6.264  12.326   7.646 -0.2829  0.1664  0.0816
49887SOL    HW161386   6.210  12.397   7.612  1.4920  1.1780 -0.8157
49887SOL    HW261387   6.314  12.366   7.717 -1.8155 -1.1809  2.0373
49888SOL     OW61388   3.752   1.579   3.870 -0.2731 -0.1073 -0.3818
49888SOL    HW161389   3.675   1.528   3.896  1.0956 -1.6341  0.8155
49888SOL    HW261390   3.716   1.647   3.812 -2.6471 -0.1260  0.9409
49889SOL     OW61391   7.686   2.091   1.845 -0.3598 -0.1993  0.5045
49889SOL    HW161392   7.601   2.067   1.807 -1.1442 -0.0040  2.0442
49889SOL    HW261393   7.748   2.030   1.806 -1.3084 -0.7384 -0.2089
49890SOL     OW61394  13.567  10.423   7.285  0.0930  0.3015  0.5657
49890SOL    HW161395  13.637  10.383   7.336  0.1193  1.8972  1.8456
49890SOL    HW261396  13.606  10.437   7.198  0.1972 -1.9951  0.1851
49891SOL     OW61397  11.486   2.613  12.369 -0.7179 -0.4827  0.1339
49891SOL    HW161398  11.417   2.655  12.420 -0.4197  0.1882  0.0029
49891SOL    HW261399  11.564   2.620  12.424 -0.7715 -1.3424  0.3319
49892SOL     OW61400   6.279   2.973   0.253 -0.2391 -0.1564 -0.0568
49892SOL    HW161401   6.232   2.899   0.214 -1.2746 -0.2417  1.2792
49892SOL    HW261402   6.337   2.934   0.318 -0.3798  0.1660  0.2672
49893SOL     OW61403   1.490   9.878  12.466  0.4143 -0.1255  0.0937
49893SOL    HW161404   1.528   9.794  12.492 -0.0540 -0.0207  1.2037
49893SOL    HW261405   1.413   9.855  12.414  2.1689 -0.3393 -2.5992
49894SOL     OW61406   9.526   2.437   0.744 -0.5416  0.2997  0.1878
49894SOL    HW161407   9.454   2.461   0.802 -0.0449  1.4658  0.3454
49894SOL    HW261408   9.605   2.466   0.790 -0.0484  0.0239 -0.4695
49895SOL     OW61409   5.801   9.580   7.823  0.0345 -0.1563 -0.1791
49895SOL    HW161410   5.750   9.643   7.772 -1.3246  0.1322  1.4243
49895SOL    HW261411   5.833   9.517   7.759 -0.9927  0.5705 -1.4635
49896SOL     OW61412   7.716  10.539   2.633  0.0316 -0.2410  0.0535
49896SOL    HW161413   7.753  10.563   2.718 -1.5695  0.7107  0.5145
49896SOL    HW261414   7.667  10.458   2.650 -0.9707  0.3981  0.2267
49897SOL     OW61415   7.890  10.230  12.636  0.0433  0.5249  0.1460
49897SOL    HW161416   7.931  10.189  12.712  0.2435 -0.5000 -0.4951
49897SOL    HW261417   7.887  10.161  12.570 -2.2493  0.7141 -0.0220
49898SOL     OW61418   9.097   8.743   1.687  0.3227 -0.7157  0.0789
49898SOL    HW161419   9.072   8.672   1.628 -0.0722 -0.5298  0.0204
49898SOL    HW261420   9.193   8.739   1.690  0.2876 -2.7424  1.8897
49899SOL     OW61421   4.499  11.294   3.822  0.0850 -0.6322 -0.5506
49899SOL    HW161422   4.556  11.243   3.879  0.6393 -0.6645 -1.1200
49899SOL    HW261423   4.519  11.262   3.734 -0.9627 -0.7830 -0.7470
49900SOL     OW61424   0.963   7.814   0.090  0.2528 -0.0394 -0.7237
49900SOL    HW161425   0.970   7.893   0.143 -0.5947  0.0403 -0.7221
49900SOL    HW261426   0.898   7.760   0.134 -1.3701  0.5440 -2.2846
49901SOL     OW61427  12.469   6.240   7.230  0.3685  0.0651 -0.5630
49901SOL    HW161428  12.378   6.248   7.260 -0.1825 -0.5931 -1.9492
49901SOL    HW261429  12.514   6.195   7.302 -0.4329  0.2924  0.0966
49902SOL     OW61430  11.876   7.626   0.923 -0.3064 -0.5974 -0.3827
49902SOL    HW161431  11.899   7.575   0.846 -0.8271 -0.0190 -0.9377
49902SOL    HW261432  11.948   7.613   0.984  0.4776 -0.4660 -1.2719
49903SOL     OW61433   1.700  11.228   7.743 -0.4116 -0.1992  0.5317
49903SOL    HW161434   1.718  11.217   7.650  0.0903 -0.0074  0.6006
49903SOL    HW261435   1.625  11.171   7.760  2.1192 -3.7853  0.9222
49904SOL     OW61436   5.168   3.790   7.768  0.6270  0.1238  0.1441
49904SOL    HW161437   5.229   3.742   7.712  0.4121  2.1328 -1.9806
49904SOL    HW261438   5.087   3.739   7.765  0.8923 -0.2617 -0.6393
49905SOL     OW61439   1.414  12.937   4.785  0.1822  0.0697 -0.0244
49905SOL    HW161440   1.362  12.919   4.706 -1.5769  1.4604  0.7403
49905SOL    HW261441   1.423  12.852   4.828 -0.0488 -0.4685 -1.0008
49906SOL     OW61442   1.471  13.041   6.804 -0.0855  0.3238 -0.1063
49906SOL    HW161443   1.484  12.952   6.772  1.4289  0.3874  0.2979
49906SOL    HW261444   1.550  13.088   6.779 -0.4889  1.3445  0.4623
49907SOL     OW61445   2.387   1.981   1.809  0.1702 -0.0035  0.2733
49907SOL    HW161446   2.388   1.909   1.746 -0.3041 -0.5485  0.8777
49907SOL    HW261447   2.462   1.966   1.865  1.8028  1.5930 -1.3442
49908SOL     OW61448   5.561   2.277   2.884  0.5107  0.0125 -0.0725
49908SOL    HW161449   5.590   2.282   2.975 -1.0047  2.4090  0.3640
49908SOL    HW261450   5.638   2.246   2.837  1.8599  0.3281  1.7987
49909SOL     OW61451   9.817   9.000   3.679  0.4946 -0.1698  0.0896
49909SOL    HW161452   9.854   9.084   3.706 -3.3808  1.4305  1.1254
49909SOL    HW261453   9.802   8.952   3.760 -2.0654  0.4554  0.0791
49910SOL     OW61454   3.548   5.286   9.017  0.1069 -0.1810  0.5759
49910SOL    HW161455   3.550   5.214   8.955  1.1358 -0.0092  0.3980
49910SOL    HW261456   3.599   5.356   8.975  1.3301 -0.2677  1.8456
49911SOL     OW61457   5.798  11.276   7.684  0.0356  0.6441 -0.1996
49911SOL    HW161458   5.867  11.210   7.679  1.3498  1.9894 -0.6226
49911SOL    HW261459   5.751  11.256   7.765  0.9943 -0.2384  0.1622
49912SOL     OW61460   6.929  13.217   7.351 -0.1033 -0.4088  0.1443
49912SOL    HW161461   6.996  13.214   7.419  0.8721  1.2201 -0.6975
49912SOL    HW261462   6.887  13.131   7.356  0.4893 -0.6377  2.2286
49913SOL     OW61463   7.102   4.962  12.491 -0.0944 -0.0887 -0.8083
49913SOL    HW161464   7.020   5.012  12.485  0.5654  1.2491  0.5062
49913SOL    HW261465   7.075   4.877  12.524 -0.7315  1.6014  3.8788
49914SOL     OW61466   5.293   4.658  12.529  0.4351  0.3396  0.0390
49914SOL    HW161467   5.328   4.722  12.468 -0.2126  0.5887 -0.0804
49914SOL    HW261468   5.209   4.631  12.491  1.0434 -1.1520 -0.3047
49915SOL     OW61469  10.866  10.431   3.715 -0.2717 -0.0898  0.3159
49915SOL    HW161470  10.848  10.476   3.798  0.9957 -1.1614  1.2147
49915SOL    HW261471  10.821  10.484   3.649 -1.3289  0.7840  1.6769
49916SOL     OW61472  10.894   4.809   5.405 -0.0996 -0.3441 -0.1039
49916SOL    HW161473  10.843   4.752   5.461  0.6299 -1.0125 -0.0917
49916SOL    HW261474  10.971   4.832   5.457 -0.5159  0.8970 -0.0050
49917SOL     OW61475   0.807   7.934   5.945 -0.3034 -0.1052  0.5437
49917SOL    HW161476   0.788   8.015   5.897 -0.5586  0.1020  0.9898
49917SOL    HW261477   0.800   7.959   6.037  4.6332  0.7539  0.9868
49918SOL     OW61478   0.278   4.654   7.866 -0.3738 -0.4069 -0.2637
49918SOL    HW161479   0.326   4.729   7.829  0.1322 -0.2257  0.7416
49918SOL    HW261480   0.330   4.578   7.841  0.0562 -0.2701  0.2017
49919SOL     OW61481   0.067   9.224  10.816  0.0491  0.2194  0.4979
49919SOL    HW161482   0.073   9.137  10.856 -1.2394 -0.4550 -0.7057
49919SOL    HW261483   0.017   9.276  10.879 -0.2896 -0.2770  0.6406
49920SOL     OW61484   1.797   8.976   5.770 -0.2568  0.2405 -0.1406
49920SOL    HW161485   1.808   9.025   5.688 -0.3223  1.1644  0.3918
49920SOL    HW261486   1.747   8.899   5.745  0.5600  0.0178 -1.1520
49921SOL     OW61487   0.341   9.664   1.292 -0.6657  0.0078  0.4784
49921SOL    HW161488   0.403   9.603   1.332 -0.5020 -0.4261 -0.3987
49921SOL    HW261489   0.387   9.696   1.214 -1.9069 -1.0666 -0.7383
49922SOL     OW61490   3.493  11.636   6.643  0.3246 -0.4104 -0.2114
49922SOL    HW161491   3.453  11.716   6.677 -0.2823 -0.5948 -0.4777
49922SOL    HW261492   3.547  11.665   6.569  2.4688  0.1323  1.4717
49923SOL     OW61493  12.034   3.015   9.390  0.2906  0.0958 -0.1700
49923SOL    HW161494  12.111   3.069   9.369 -0.3601  1.0984 -0.0692
49923SOL    HW261495  11.968   3.079   9.416  0.0803 -0.8843  1.8657
49924SOL     OW61496   9.553   7.847  13.715  0.8703 -0.0844 -0.3290
49924SOL    HW161497   9.459   7.831  13.707  0.3697  1.8179  0.9382
49924SOL    HW261498   9.582   7.788  13.784  0.6570 -0.7718 -0.8139
49925SOL     OW61499   3.018   0.587  12.002 -0.1328  0.1896  0.3293
49925SOL    HW161500   2.967   0.666  11.989 -1.5022 -0.2593  2.4037
49925SOL    HW261501   3.010   0.539  11.920  0.1240  1.8341 -0.7040
49926SOL     OW61502   4.473   8.625  11.124 -0.0039 -0.9649 -0.0836
49926SOL    HW161503   4.467   8.569  11.202 -2.2335 -0.0919  0.4466
49926SOL    HW261504   4.518   8.704  11.156  0.4184 -1.2058 -0.0723
49927SOL     OW61505   7.966   8.992  13.101 -0.6251 -0.3236  0.3427
49927SOL    HW161506   7.974   9.033  13.187  0.0049  0.0537  0.1033
49927SOL    HW261507   8.036   8.927  13.098  0.2928  0.6660 -0.4382
49928SOL     OW61508   4.726  12.714   6.625 -0.2540 -0.3072 -0.2271
49928SOL    HW161509   4.783  12.739   6.552 -1.0755 -4.1430 -2.4740
49928SOL    HW261510   4.763  12.759   6.701  4.1272 -0.4158 -1.9838
49929SOL     OW61511  10.794  10.447   6.691 -0.6418  0.1725  0.2558
49929SOL    HW161512  10.699  10.442   6.703 -0.6586  1.1745  0.6237
49929SOL    HW261513  10.827  10.479   6.775  0.1538 -1.2933  0.5343
49930SOL     OW61514   0.987   3.832   5.609  0.1425  0.2264  0.6254
49930SOL    HW161515   1.007   3.925   5.620 -2.8814  1.3005 -1.5845
49930SOL    HW261516   0.986   3.819   5.514  2.3532 -2.6433  0.8431
49931SOL     OW61517   4.896  12.202   9.064  0.1210 -0.1056  0.1310
49931SOL    HW161518   4.850  12.178   8.984  0.4768 -0.2074 -0.0432
49931SOL    HW261519   4.925  12.118   9.102  2.6613  0.0505 -1.2403
49932SOL     OW61520  10.370   3.386   1.345  0.4543  0.8363 -0.1792
49932SOL    HW161521  10.435   3.433   1.294  0.0451 -0.9496 -2.4896
49932SOL    HW261522  10.391   3.294   1.333 -0.0959  0.2812  2.3860
49933SOL     OW61523   3.400   1.245   4.721  0.0759  0.0615  0.0927
49933SOL    HW161524   3.475   1.242   4.661 -0.8523 -0.3857 -1.0869
49933SOL    HW261525   3.436   1.216   4.805  1.5061  1.1405 -0.1129
49934SOL     OW61526   2.031   7.666  13.073 -0.4938  0.1402 -0.1057
49934SOL    HW161527   2.104   7.720  13.043 -0.8367 -0.7724 -2.8740
49934SOL    HW261528   1.954   7.720  13.056 -0.8256 -1.0136 -2.7291
49935SOL     OW61529  13.013   5.891   0.366  0.1828 -0.6061 -0.3707
49935SOL    HW161530  13.089   5.873   0.311 -0.3555 -1.5251 -0.8270
49935SOL    HW261531  12.937   5.874   0.310 -0.3817  0.6682 -0.0448
49936SOL     OW61532   0.815  12.315   7.177  0.3656 -0.3738  0.4857
49936SOL    HW161533   0.885  12.252   7.163  0.4669 -0.2058  0.2297
49936SOL    HW261534   0.800  12.355   7.091 -0.1087 -0.4717  0.5164
49937SOL     OW61535  11.214   6.306   2.574 -0.2640  0.0495  0.1023
49937SOL    HW161536  11.168   6.390   2.582  0.1870  0.3999 -0.8764
49937SOL    HW261537  11.179   6.268   2.494 -1.1199 -1.1280  0.9980
49938SOL     OW61538  10.385  13.052   3.717 -0.6379 -0.2128 -0.4352
49938SOL    HW161539  10.442  13.114   3.671  0.2579 -0.0688  0.8195
49938SOL    HW261540  10.340  13.105   3.782 -0.1473 -0.8101  0.4028
49939SOL     OW61541  11.085   7.359  12.828 -0.5293  0.0658 -0.2424
49939SOL    HW161542  11.115   7.375  12.739 -0.4420 -1.5106 -0.5210
49939SOL    HW261543  11.117   7.271  12.849  0.5171  0.8609  1.8029
49940SOL     OW61544   0.533   8.802   4.138  0.4469  0.1023 -0.8219
49940SOL    HW161545   0.472   8.863   4.181 -0.5105 -1.6415  0.4364
49940SOL    HW261546   0.517   8.814   4.044 -0.4840  1.0284 -0.5661
49941SOL     OW61547   7.982  12.806   6.993  0.2678  0.2421  0.4367
49941SOL    HW161548   8.063  12.846   7.023  0.3150  0.9891 -0.6265
49941SOL    HW261549   7.995  12.712   7.007  0.3014  0.5288  2.6111
49942SOL     OW61550  11.442   8.470  12.369  0.3577  0.2438  0.4106
49942SOL    HW161551  11.418   8.502  12.456  1.0372 -0.7441  0.9782
49942SOL    HW261552  11.402   8.383  12.364  1.3039 -0.1864  0.1968
49943SOL     OW61553  11.018  10.506   8.137  0.0940  0.7699  0.2606
49943SOL    HW161554  10.957  10.431   8.140 -0.0604  0.7387 -1.9432
49943SOL    HW261555  11.062  10.497   8.052  0.6208  2.7689  0.2898
49944SOL     OW61556   6.410  12.587   4.054  0.1476  0.1678 -0.0565
49944SOL    HW161557   6.452  12.521   3.998 -0.1036 -1.0125  1.1143
49944SOL    HW261558   6.479  12.650   4.073  0.3878  0.2810 -1.1992
49945SOL     OW61559   0.593  10.902   7.989 -0.0567 -0.3729  0.1118
49945SOL    HW161560   0.504  10.878   8.013 -1.0082 -1.7070 -3.9131
49945SOL    HW261561   0.649  10.854   8.050 -2.0445 -0.7229  1.7587
49946SOL     OW61562   4.679   4.467   9.377 -0.1515  0.5449  0.3968
49946SOL    HW161563   4.765   4.489   9.415  0.3552  0.7592 -0.8497
49946SOL    HW261564   4.668   4.374   9.397  0.8076  0.2833 -0.2265
49947SOL     OW61565   7.685   3.025  12.508  0.4628 -0.4501 -0.7911
49947SOL    HW161566   7.721   3.113  12.522  0.1381 -0.4723  0.2910
49947SOL    HW261567   7.727   2.994  12.428  0.4165  0.7743 -1.3186
49948SOL     OW61568   2.724  13.715  12.587 -0.2370  0.8259  0.0081
49948SOL    HW161569   2.720  13.662  12.667 -0.9387  1.8366  0.6690
49948SOL    HW261570   2.735  13.652  12.516 -0.0266 -0.1196  0.8659
49949SOL     OW61571   5.668   8.107   6.200 -0.0242  0.2318  0.0674
49949SOL    HW161572   5.647   8.014   6.212 -0.9529  0.2415 -1.2178
49949SOL    HW261573   5.588   8.145   6.164  0.4221  1.4886  0.3557
49950SOL     OW61574   5.137   0.707   6.812  0.5956 -0.6321  0.7234
49950SOL    HW161575   5.180   0.683   6.894  0.7523  0.3349  0.9386
49950SOL    HW261576   5.177   0.790   6.787 -0.6265 -0.0631  0.5545
49951SOL     OW61577  12.606   5.192  11.898  0.2239  0.4167  0.4410
49951SOL    HW161578  12.598   5.159  11.808  0.0487  0.6805  0.3591
49951SOL    HW261579  12.625   5.114  11.950 -0.7725  0.0895  0.3370
49952SOL     OW61580   4.883   7.601   7.291  0.2379 -0.2445  0.6791
49952SOL    HW161581   4.863   7.676   7.234  2.0693  0.1799  0.5514
49952SOL    HW261582   4.800   7.554   7.298 -0.1614 -0.1433 -2.1032
49953SOL     OW61583   4.693   4.126   1.410  0.5535  0.4580 -0.8535
49953SOL    HW161584   4.696   4.204   1.354  1.8633  0.2918 -1.0429
49953SOL    HW261585   4.773   4.131   1.461 -0.5910  0.5790  1.0142
49954SOL     OW61586   0.432   5.902   6.010  0.3411 -0.2077  0.3500
49954SOL    HW161587   0.393   5.818   6.037  2.3321 -0.7387  1.8207
49954SOL    HW261588   0.390   5.922   5.927  0.6220 -3.3009 -0.6766
49955SOL     OW61589   1.405   5.450   9.050  0.1501 -0.1057 -0.1444
49955SOL    HW161590   1.392   5.395   9.127  0.8921  0.2804  0.2661
49955SOL    HW261591   1.499   5.445   9.033  0.2293  1.0453 -0.0882
49956SOL     OW61592  11.011  12.252   8.334  0.1434  0.2941  0.4810
49956SOL    HW161593  11.093  12.289   8.304 -0.3527 -0.6977 -2.4310
49956SOL    HW261594  11.033  12.163   8.361  0.0928  0.0686 -0.1874
49957SOL     OW61595   5.687   4.629  11.688 -0.2564 -0.2617 -0.0638
49957SOL    HW161596   5.690   4.650  11.781 -0.6013 -0.9501  0.1133
49957SOL    HW261597   5.779   4.628  11.661 -0.2221  2.3293 -0.3196
49958SOL     OW61598  11.066  13.037   2.510 -0.4221  0.1786  0.2143
49958SOL    HW161599  11.029  12.981   2.442 -0.8477  1.3521 -0.5541
49958SOL    HW261600  10.989  13.071   2.558 -0.1757  0.1925  0.6072
49959SOL     OW61601   3.746  10.480   2.772  0.4195  0.4100 -0.2929
49959SOL    HW161602   3.763  10.480   2.866  0.7005  0.2926 -0.3434
49959SOL    HW261603   3.790  10.558   2.739  1.3759 -0.2090 -0.5127
49960SOL     OW61604  10.806  11.507  12.635 -0.3854 -0.3878 -0.3768
49960SOL    HW161605  10.729  11.502  12.577  0.1863  0.6951 -1.2826
49960SOL    HW261606  10.791  11.585  12.688 -0.0329 -0.3139 -0.3835
49961SOL     OW61607  13.470   0.112   2.520 -0.5054 -0.5976 -0.0900
49961SOL    HW161608  13.448   0.199   2.554  0.1378 -0.6823  0.5483
49961SOL    HW261609  13.562   0.118   2.496 -0.2664 -1.3060  0.6071
49962SOL     OW61610   7.832  13.639   2.691  0.3584  0.3652 -0.2804
49962SOL    HW161611   7.878  13.717   2.660  2.3097 -0.9499 -0.9568
49962SOL    HW261612   7.739  13.660   2.683  0.8300  2.5471 -0.5497
49963SOL     OW61613   3.036  10.002   7.322  0.3645 -0.6155 -0.0611
49963SOL    HW161614   3.036   9.915   7.282  0.9282 -0.3011 -0.7650
49963SOL    HW261615   3.119  10.007   7.368  0.6773 -0.1700 -0.6619
49964SOL     OW61616   4.769  10.982   3.761 -0.6607 -0.3018 -0.4744
49964SOL    HW161617   4.683  11.000   3.798 -1.3100  0.2801 -2.2121
49964SOL    HW261618   4.824  10.965   3.838 -2.0472  0.3999  0.7275
49965SOL     OW61619  13.005  11.530  12.183 -0.2245  0.0455 -0.1791
49965SOL    HW161620  13.043  11.447  12.154 -0.0256 -0.2960  1.0320
49965SOL    HW261621  13.045  11.596  12.126 -1.7869 -0.8471 -2.4419
49966SOL     OW61622   1.397  10.404   1.341  0.7533  0.2316 -0.3807
49966SOL    HW161623   1.306  10.385   1.319  1.0263  0.0220 -1.4012
49966SOL    HW261624   1.432  10.320   1.372  0.7675  0.1525 -0.6093
49967SOL     OW61625   6.809  11.624   0.994  0.0622 -0.3711  0.2672
49967SOL    HW161626   6.803  11.715   0.966 -0.4152  0.3682  2.5303
49967SOL    HW261627   6.864  11.582   0.928  2.3276  2.1121  0.4178
49968SOL     OW61628   7.368   3.528   2.016  0.1087  0.0187 -0.0713
49968SOL    HW161629   7.448   3.520   1.963  0.0450 -1.0715 -0.0286
49968SOL    HW261630   7.318   3.597   1.973  1.1001  0.7762 -0.0539
49969SOL     OW61631   4.401   8.600   2.968 -0.3541 -0.3805 -0.0454
49969SOL    HW161632   4.322   8.566   3.010  0.5686 -2.1285  0.3806
49969SOL    HW261633   4.438   8.661   3.031 -0.4168 -0.9358  0.5396
49970SOL     OW61634   0.601  10.187  10.146  0.0339  0.4007  0.4736
49970SOL    HW161635   0.694  10.196  10.166  0.5666 -0.1316 -1.4862
49970SOL    HW261636   0.574  10.274  10.116  0.0242  0.4282  0.5615
49971SOL     OW61637   6.014   9.895  12.919  0.3817  0.2476 -0.1683
49971SOL    HW161638   5.964   9.962  12.967  1.1508  0.1625  0.7693
49971SOL    HW261639   5.963   9.815  12.930  0.6007  0.2119  0.5817
49972SOL     OW61640   9.857   0.401   7.546  0.2960 -0.4685 -0.2079
49972SOL    HW161641   9.890   0.491   7.551 -1.3080  0.1177  0.3832
49972SOL    HW261642   9.930   0.347   7.577  0.6469  0.7914  1.2568
49973SOL     OW61643   0.228  12.311  13.430  0.1293 -0.3971  0.3660
49973SOL    HW161644   0.258  12.395  13.466 -2.5207  0.4334  0.8681
49973SOL    HW261645   0.231  12.251  13.504  0.0619 -0.1847  0.5437
49974SOL     OW61646  10.866   3.864   1.161 -0.0623 -0.0805 -0.5350
49974SOL    HW161647  10.912   3.885   1.080 -0.5171 -0.1794 -0.8246
49974SOL    HW261648  10.798   3.931   1.168 -0.0042 -0.0537 -0.2173
49975SOL     OW61649   0.211   8.957   5.592  0.0391  0.1374 -0.2945
49975SOL    HW161650   0.305   8.968   5.576  0.1089 -0.3514 -0.2154
49975SOL    HW261651   0.176   8.929   5.507 -0.1520  1.0168 -0.5153
49976SOL     OW61652   0.696   8.577   4.799  0.0133  0.2571 -0.0882
49976SOL    HW161653   0.723   8.667   4.820  0.2978  0.0419  0.5061
49976SOL    HW261654   0.603   8.574   4.822 -0.4329  0.8689 -1.6976
49977SOL     OW61655   2.341   0.652   6.702 -0.3427  0.2812 -0.3665
49977SOL    HW161656   2.286   0.575   6.719 -0.7300  0.6551  0.1120
49977SOL    HW261657   2.405   0.622   6.638  0.4558 -0.8748  0.9092
49978SOL     OW61658  11.035   0.589   0.594  0.6622 -0.0919 -0.3131
49978SOL    HW161659  11.075   0.606   0.509  0.3334  0.9125 -0.2759
49978SOL    HW261660  11.099   0.620   0.658 -0.0212  1.2809 -0.2494
49979SOL     OW61661  13.347   3.213   5.562 -0.2060 -0.2226 -0.7009
49979SOL    HW161662  13.415   3.191   5.626 -0.5674 -1.6616 -0.7883
49979SOL    HW261663  13.391   3.269   5.498  0.3622  0.5835  0.3584
49980SOL     OW61664  11.788  10.632   6.974  0.3618  0.2034 -0.6094
49980SOL    HW161665  11.775  10.726   6.958  0.6713  0.1642 -1.0903
49980SOL    HW261666  11.883  10.620   6.973  0.3053 -0.5152 -2.9750
49981SOL     OW61667  11.728   1.341   9.167 -0.3072  0.1628 -0.2456
49981SOL    HW161668  11.663   1.315   9.101  0.2439 -0.6757 -0.4577
49981SOL    HW261669  11.733   1.267   9.227  0.6739  0.0971 -0.3961
49982SOL     OW61670   4.817  10.502   0.081 -0.3701 -0.7737 -0.1636
49982SOL    HW161671   4.879  10.429   0.079  0.1695 -0.3605  0.6358
49982SOL    HW261672   4.753  10.477   0.147 -0.8779 -1.0609 -0.7643
49983SOL     OW61673   3.232  13.711   1.929 -1.0575 -0.1487 -0.3134
49983SOL    HW161674   3.163  13.749   1.983  0.0371  1.2335  0.1846
49983SOL    HW261675   3.313  13.747   1.965 -0.1204 -1.1668 -1.3213
49984SOL     OW61676   3.982   2.820  11.834 -0.5118  0.2057  0.1995
49984SOL    HW161677   3.948   2.868  11.758  1.8415  0.3789 -0.8527
49984SOL    HW261678   4.076   2.812  11.816 -0.4559 -3.0182  1.3362
49985SOL     OW61679   5.322  10.672   9.796  0.0314  0.3426  0.0712
49985SOL    HW161680   5.232  10.674   9.831  0.5138 -1.2820  1.5772
49985SOL    HW261681   5.313  10.630   9.711 -0.2401 -4.8383  2.2796
49986SOL     OW61682   9.884   8.393   1.875 -0.1953 -0.1061  0.3337
49986SOL    HW161683   9.865   8.466   1.934  2.8996 -1.0720  2.8115
49986SOL    HW261684   9.969   8.414   1.837 -0.6646 -1.0535 -1.3417
49987SOL     OW61685  13.192   4.965   9.041 -0.4242 -0.1624  0.6951
49987SOL    HW161686  13.119   4.982   8.982  0.9699  0.2668 -0.9880
49987SOL    HW261687  13.247   5.043   9.036  0.3550 -0.6198  1.6198
49988SOL     OW61688   3.302  13.028   8.611 -0.0990  0.3186 -0.2847
49988SOL    HW161689   3.391  13.036   8.646 -0.3724 -2.6038  1.3723
49988SOL    HW261690   3.314  13.021   8.517  1.5266 -0.8840 -0.0184
49989SOL     OW61691  10.579   9.330   6.378 -0.1946 -0.3954  0.3197
49989SOL    HW161692  10.521   9.313   6.452 -0.9730 -0.6164 -0.3232
49989SOL    HW261693  10.667   9.320   6.413 -0.5672 -1.9994  0.8699
49990SOL     OW61694   7.639   8.840  10.307 -0.6852  0.1187  0.2253
49990SOL    HW161695   7.597   8.899  10.370 -0.4381  1.2122 -0.5942
49990SOL    HW261696   7.700   8.788  10.360  0.2763  1.7305  0.7885
49991SOL     OW61697   4.213  10.949   1.638  0.5395 -0.3577  0.2800
49991SOL    HW161698   4.151  11.002   1.588  0.7106 -0.5642 -0.1543
49991SOL    HW261699   4.159  10.903   1.702  0.3173 -0.1023  0.2804
49992SOL     OW61700   0.594   6.210   7.988  0.6584 -0.2871  0.2087
49992SOL    HW161701   0.632   6.232   7.903 -0.2670  1.5644  0.2223
49992SOL    HW261702   0.579   6.295   8.030 -1.1566 -1.0554  1.2133
49993SOL     OW61703  11.524   7.855   0.745  0.4406 -0.1754 -0.0765
49993SOL    HW161704  11.596   7.903   0.703  0.2649 -1.2073 -1.6348
49993SOL    HW261705  11.464   7.923   0.775  0.8873  0.6296 -0.9507
49994SOL     OW61706   0.712   3.152   9.059 -0.2331  0.4916  0.2131
49994SOL    HW161707   0.742   3.064   9.082  0.7813  0.6679 -0.3762
49994SOL    HW261708   0.668   3.141   8.975  0.4266  0.6268 -0.1604
49995SOL     OW61709   1.443   1.043   7.437 -0.5610 -0.3653  0.4521
49995SOL    HW161710   1.438   1.136   7.416  0.2857 -0.2492  0.7207
49995SOL    HW261711   1.363   1.006   7.402 -0.6730  0.3794 -0.1007
49996SOL     OW61712   3.115   8.798   1.726 -0.1178  0.1530 -0.1926
49996SOL    HW161713   3.190   8.794   1.666  0.4956  0.1027  0.5716
49996SOL    HW261714   3.085   8.888   1.721 -0.1672  0.1165 -0.6822
49997SOL     OW61715   9.282   4.914   5.682 -0.2133 -0.3935 -0.0468
49997SOL    HW161716   9.366   4.923   5.726  0.2962 -0.8321 -0.8912
49997SOL    HW261717   9.227   4.866   5.744 -0.3382  1.1809  1.1108
49998SOL     OW61718   1.606   6.390   8.614 -0.5090  0.0392  0.3372
49998SOL    HW161719   1.657   6.310   8.626  1.2493  0.9117 -0.8399
49998SOL    HW261720   1.627   6.419   8.526 -3.5309  0.2025 -0.4571
49999SOL     OW61721   5.659  12.560  13.312  0.3101  0.0354 -0.1298
49999SOL    HW161722   5.752  12.542  13.297  0.6179 -0.8425  2.4123
49999SOL    HW261723   5.613  12.495  13.257  1.3395 -2.9175  2.2220
50000SOL     OW61724   8.226   3.949   3.951  0.3236 -0.1217 -0.2246
50000SOL    HW161725   8.290   3.959   3.881  0.4548 -1.2206 -0.2834
50000SOL    HW261726   8.170   4.026   3.945  0.2919 -0.2371 -1.5732
50001SOL     OW61727  10.372   0.529  11.590  0.0318  0.1097 -0.7638
50001SOL    HW161728  10.288   0.525  11.637  1.5549 -1.0721  2.0589
50001SOL    HW261729  10.404   0.617  11.608  0.1747 -0.0198 -0.3747
50002SOL     OW61730   5.188   4.398   9.100  0.0359  0.2406 -0.6463
50002SOL    HW161731   5.229   4.416   9.016  0.1590 -1.1997 -0.9308
50002SOL    HW261732   5.248   4.335   9.142 -0.1911  0.6937  0.3741
50003SOL     OW61733  11.199  13.462   6.403 -0.3150  0.2853  0.9131
50003SOL    HW161734  11.170  13.391   6.346  2.4580 -0.4714  0.2899
50003SOL    HW261735  11.196  13.424   6.491  3.3209 -1.6272  0.4127
50004SOL     OW61736  11.481  11.491   7.367  0.1309 -0.0397 -0.0016
50004SOL    HW161737  11.439  11.533   7.291  0.8095  2.1579  0.7467
50004SOL    HW261738  11.417  11.501   7.438  1.0391  1.5525  0.6511
50005SOL     OW61739  10.778   6.478   2.111  0.0345  0.5527  0.5475
50005SOL    HW161740  10.827   6.399   2.087 -1.8475  0.0350 -2.1112
50005SOL    HW261741  10.687   6.449   2.117 -0.3011  1.7885  3.7067
50006SOL     OW61742  11.515   4.523   1.021  0.0712  0.4897  0.2310
50006SOL    HW161743  11.520   4.498   1.113  2.0396  1.2532  0.3750
50006SOL    HW261744  11.506   4.440   0.974  5.8116 -0.8026  0.7236
50007SOL     OW61745   2.809   0.023   1.483 -0.0676 -0.5285 -0.0958
50007SOL    HW161746   2.731   0.079   1.482  1.5018  1.7709 -1.2707
50007SOL    HW261747   2.816  -0.011   1.394  0.2360 -0.7895  0.0233
50008SOL     OW61748   3.432  13.094   2.494  0.0301 -0.6166  0.0987
50008SOL    HW161749   3.422  13.010   2.538  0.6022 -0.3577  0.7481
50008SOL    HW261750   3.486  13.075   2.417  1.9272 -0.5263  1.3466
50009SOL     OW61751  12.281   5.025   1.746 -0.4337  0.2070 -0.3709
50009SOL    HW161752  12.362   4.978   1.724 -0.5908  0.1925 -0.9547
50009SOL    HW261753  12.214   4.956   1.749 -0.1409 -0.0416  1.8531
50010SOL     OW61754   5.393   2.765  13.097  0.1460  0.0742 -0.4151
50010SOL    HW161755   5.349   2.817  13.164  0.2548 -0.4260  0.0550
50010SOL    HW261756   5.483   2.799  13.096  0.5148 -0.7816  0.6480
50011SOL     OW61757   1.538   7.098   8.911  0.0724  0.6690 -0.0663
50011SOL    HW161758   1.500   7.100   8.999 -1.0124  0.3242 -0.5105
50011SOL    HW261759   1.496   7.171   8.865 -2.0934 -1.2429 -1.3359
50012SOL     OW61760   4.741  12.499   3.451 -0.2261  1.0380 -0.2381
50012SOL    HW161761   4.674  12.550   3.405 -1.5357 -0.5023 -0.1061
50012SOL    HW261762   4.725  12.516   3.544 -0.1793  0.9914 -0.2216
50013SOL     OW61763   5.671   2.175   3.154 -0.4565 -0.2391  0.1182
50013SOL    HW161764   5.639   2.110   3.092  0.2555 -0.8738  0.4087
50013SOL    HW261765   5.706   2.124   3.228  0.6116  0.4349  0.1071
50014SOL     OW61766  12.938  13.388   4.574  0.5213 -0.1010 -0.1391
50014SOL    HW161767  13.030  13.404   4.596  0.4467  1.5667 -0.9171
50014SOL    HW261768  12.940  13.317   4.511  1.4494  1.0315 -1.4379
50015SOL     OW61769   7.034   2.015   3.773  0.5583  0.2772  0.4572
50015SOL    HW161770   6.998   1.926   3.777 -0.6247  0.7599  0.9219
50015SOL    HW261771   7.124   2.005   3.803  0.7401 -0.9023 -0.3781
50016SOL     OW61772   2.909   0.359   3.030  0.0022 -0.0590  0.1375
50016SOL    HW161773   2.923   0.280   3.082 -2.4253 -1.3058 -0.9124
50016SOL    HW261774   2.818   0.382   3.047  1.1360  3.8047  1.9847
50017SOL     OW61775   1.891   9.824   5.399  0.4393  0.3451 -0.3788
50017SOL    HW161776   1.894   9.896   5.336 -0.3356  0.5154 -0.2371
50017SOL    HW261777   1.801   9.825   5.431  1.1042  1.0889  1.6568
50018SOL     OW61778  12.826  11.060   3.282  0.1458  0.0073 -0.1241
50018SOL    HW161779  12.779  11.101   3.355  0.3005  1.4634 -0.8076
50018SOL    HW261780  12.803  11.113   3.206 -0.3947 -1.7644 -1.2621
50019SOL     OW61781   8.135   2.389   6.399 -0.1200  0.0893  0.2972
50019SOL    HW161782   8.061   2.387   6.460  0.5042 -0.0465  1.0729
50019SOL    HW261783   8.115   2.321   6.335 -0.2312 -0.6005  1.0388
50020SOL     OW61784  10.506   8.772  12.915 -0.2802 -0.5106  0.6996
50020SOL    HW161785  10.601   8.785  12.922 -0.3793  0.4056  0.4677
50020SOL    HW261786  10.480   8.827  12.841 -1.1359  0.0172  1.3769
50021SOL     OW61787   1.459  12.403  11.256 -0.6357  0.1494  0.1594
50021SOL    HW161788   1.368  12.410  11.229 -0.3787  1.2373 -0.4683
50021SOL    HW261789   1.455  12.383  11.350 -1.5087  0.0828  0.1084
50022SOL     OW61790   3.813   7.780  11.595  0.0730 -0.5804  0.0528
50022SOL    HW161791   3.854   7.843  11.535  0.3506 -0.4785  0.3456
50022SOL    HW261792   3.766   7.720  11.537  1.3412 -1.2238 -0.3611
50023SOL     OW61793   4.906  11.950   2.161 -0.2851 -0.1667  0.8988
50023SOL    HW161794   4.881  12.007   2.234 -0.1179  0.9949  0.0708
50023SOL    HW261795   4.877  11.862   2.188 -0.5594  0.3024  2.1892
50024SOL     OW61796  10.156   1.570  10.750  0.3835  0.0716  0.6257
50024SOL    HW161797  10.201   1.522  10.680 -0.1516  0.3674  0.0683
50024SOL    HW261798  10.090   1.623  10.704  1.4737  1.9484  1.1474
50025SOL     OW61799   0.204   8.774   4.322  0.2390  0.1656  0.0102
50025SOL    HW161800   0.196   8.737   4.410 -1.3879  0.7130  0.1376
50025SOL    HW261801   0.249   8.857   4.334  0.9976 -0.2666  0.1703
50026SOL     OW61802   2.546   3.786   5.159 -0.4212  0.0520  0.3569
50026SOL    HW161803   2.617   3.729   5.188 -1.6306 -2.8228 -1.8108
50026SOL    HW261804   2.590   3.863   5.123  1.4559 -0.5374  1.2588
50027SOL     OW61805  10.206  11.305  12.493  0.0800  0.2173 -0.6713
50027SOL    HW161806  10.165  11.233  12.446  1.9177 -1.9359  0.7911
50027SOL    HW261807  10.140  11.333  12.556  0.1892 -2.1468  0.6116
50028SOL     OW61808   1.186  11.429  13.553 -0.0780  0.6198  0.2321
50028SOL    HW161809   1.201  11.504  13.611 -1.2411  2.0391 -1.2011
50028SOL    HW261810   1.106  11.389  13.586 -0.4020  1.0597 -0.0036
50029SOL     OW61811   5.100   3.403   7.970  0.1340  0.0316  0.2842
50029SOL    HW161812   5.105   3.308   7.973  0.0844 -0.0490 -1.2447
50029SOL    HW261813   5.180   3.430   7.923 -1.4127  0.4584 -2.3225
50030SOL     OW61814   7.824   8.921   8.043 -0.4250 -0.6046 -0.0483
50030SOL    HW161815   7.804   9.014   8.037 -1.1354 -0.6075  1.6938
50030SOL    HW261816   7.789   8.884   7.961  3.6761  1.1636 -2.9400
50031SOL     OW61817  12.888   6.903   2.640  0.3350  0.5071 -0.1717
50031SOL    HW161818  12.800   6.934   2.663  0.8066  0.5046  1.8437
50031SOL    HW261819  12.886   6.809   2.659  1.4288  0.9111  2.3356
50032SOL     OW61820   6.026   0.721   7.807 -0.3210 -0.5684 -0.2521
50032SOL    HW161821   6.120   0.726   7.794 -0.1847 -3.0168 -0.7203
50032SOL    HW261822   5.988   0.753   7.725  0.1306 -0.8239 -0.5612
50033SOL     OW61823   9.432   5.668   8.111 -0.2259 -0.1135  0.5515
50033SOL    HW161824   9.343   5.645   8.085  0.2156 -0.8368 -0.3903
50033SOL    HW261825   9.441   5.635   8.200 -1.0742  0.4817  0.8776
50034SOL     OW61826   4.763   5.810   8.560 -0.3937 -0.4856  1.1220
50034SOL    HW161827   4.815   5.730   8.571 -0.9563 -0.8108  1.4611
50034SOL    HW261828   4.815   5.879   8.600  0.1569 -0.6524  0.7138
50035SOL     OW61829  12.886  12.632   8.500  0.2013  1.1580  0.2178
50035SOL    HW161830  12.865  12.587   8.418 -0.9279  0.8131  0.6781
50035SOL    HW261831  12.981  12.635   8.502  0.3074 -0.8686 -0.0283
50036SOL     OW61832  10.238   4.733   5.942  0.4323  0.3138 -0.1522
50036SOL    HW161833  10.261   4.780   5.862  3.4217  1.5173  1.2523
50036SOL    HW261834  10.181   4.792   5.990 -0.4399  0.0677 -0.8786
50037SOL     OW61835   1.626   1.121   1.318  0.1313  0.6370  0.3356
50037SOL    HW161836   1.695   1.160   1.371  0.9152 -1.2148  0.7614
50037SOL    HW261837   1.544   1.152   1.357  0.7106  1.1901  1.1391
50038SOL     OW61838   1.569   7.806   7.035  0.0667 -0.1950 -0.3129
50038SOL    HW161839   1.575   7.866   7.110  0.6485  0.9818 -1.2760
50038SOL    HW261840   1.544   7.723   7.074  0.1592  0.4367  1.1792
50039SOL     OW61841   1.283   9.613   6.287  0.2019 -0.1956  0.9523
50039SOL    HW161842   1.230   9.537   6.263 -1.2442  0.5873  1.4756
50039SOL    HW261843   1.282   9.613   6.383  1.7985 -0.5588  0.9973
50040SOL     OW61844   0.055   3.568   3.882  0.2215  0.5995  0.5624
50040SOL    HW161845   0.000   3.517   3.941  0.0224  0.5215  0.3135
50040SOL    HW261846  -0.007   3.609   3.822  0.2984  1.8900  1.3377
50041SOL     OW61847  12.014   7.620   2.155  0.2176 -0.1039  0.7721
50041SOL    HW161848  12.079   7.552   2.175  0.7131  0.5939  1.6123
50041SOL    HW261849  11.999   7.612   2.061 -2.7218 -4.0183  1.2831
50042SOL     OW61850   2.355   3.177  11.747  0.0510  0.5349 -0.6506
50042SOL    HW161851   2.271   3.152  11.787  0.3534  0.7273  0.1219
50042SOL    HW261852   2.421   3.136  11.802  0.5676  2.9394  0.6873
50043SOL     OW61853   1.237  13.705  10.124 -0.0241  0.8064 -0.3722
50043SOL    HW161854   1.323  13.673  10.152 -0.5744  0.8284  1.4830
50043SOL    HW261855   1.221  13.660  10.041  0.4291 -1.6566  0.7802
50044SOL     OW61856   9.061   2.202  10.363  1.2498  0.1330  0.0940
50044SOL    HW161857   9.096   2.274  10.415 -0.5364  1.6607 -0.6833
50044SOL    HW261858   8.969   2.197  10.388  0.5873  0.2059 -2.0687
50045SOL     OW61859   1.727   9.775   3.129 -0.3828 -0.3132  0.0656
50045SOL    HW161860   1.818   9.763   3.100 -0.3972 -1.0731  0.3082
50045SOL    HW261861   1.691   9.840   3.068  0.9054  1.6134  1.2335
50046SOL     OW61862   9.256  10.651  13.136  0.8412 -0.2503 -0.2385
50046SOL    HW161863   9.309  10.588  13.185  1.6881 -0.1075 -0.9537
50046SOL    HW261864   9.267  10.733  13.183  0.0797 -0.5232  0.4472
50047SOL     OW61865   5.776  12.209   2.965 -0.0492  0.1058 -0.0205
50047SOL    HW161866   5.852  12.264   2.983  0.4533 -0.9166  1.1769
50047SOL    HW261867   5.700  12.265   2.982  0.3414  1.5480 -2.4681
50048SOL     OW61868   3.419   7.834   6.555 -0.7316  0.0968 -0.3370
50048SOL    HW161869   3.344   7.885   6.525 -0.8484  1.0568  1.4853
50048SOL    HW261870   3.394   7.801   6.641  0.3060 -0.9781 -0.4083
50049SOL     OW61871   1.249  10.942   8.311 -0.0605 -0.1500 -0.3131
50049SOL    HW161872   1.264  10.861   8.360  2.0544  1.0046  1.0956
50049SOL    HW261873   1.172  10.981   8.353 -0.4556 -0.9043 -0.3125
50050SOL     OW61874   7.317  13.579   8.761 -0.6603  0.2759  0.3800
50050SOL    HW161875   7.227  13.575   8.727 -0.3585  1.4433 -0.6375
50050SOL    HW261876   7.317  13.520   8.836 -1.9792 -0.6207 -0.2838
50051SOL     OW61877  10.171   0.176   1.905 -0.2273 -0.5801  0.0391
50051SOL    HW161878  10.118   0.194   1.828  0.4731 -0.2181 -0.3724
50051SOL    HW261879  10.180   0.261   1.949  2.6779  0.1447 -1.6442
50052SOL     OW61880  11.589   5.985   2.428 -0.7488 -0.3582  0.1195
50052SOL    HW161881  11.663   6.002   2.486 -0.7140 -1.5605  0.4346
50052SOL    HW261882  11.580   5.890   2.426 -2.2810 -0.2394  0.0813
50053SOL     OW61883   1.217  11.771  11.377  0.3147 -0.2145 -0.6204
50053SOL    HW161884   1.249  11.761  11.467 -0.4725 -2.1374 -0.4988
50053SOL    HW261885   1.276  11.717  11.324 -0.6542 -1.0902 -0.8611
50054SOL     OW61886   9.432   7.938   0.803  0.1441  0.5861  0.0190
50054SOL    HW161887   9.336   7.932   0.800  0.1873 -0.6838  0.5536
50054SOL    HW261888   9.449   8.017   0.855 -0.6645 -0.8482  2.6310
50055SOL     OW61889   1.061   2.366  10.997 -0.2173  0.1017 -0.9434
50055SOL    HW161890   1.007   2.338  10.923 -1.4038 -1.4069  0.4255
50055SOL    HW261891   1.028   2.452  11.019 -1.1366 -0.2273 -0.9961
50056SOL     OW61892   8.750   5.971   4.645 -0.1021  0.2352  0.2413
50056SOL    HW161893   8.723   5.891   4.690 -2.0108  0.5006 -0.3212
50056SOL    HW261894   8.692   6.039   4.680 -0.1161  0.8750 -0.9553
50057SOL     OW61895   4.148   6.908   1.070 -0.4460 -0.1681 -0.4637
50057SOL    HW161896   4.132   6.945   1.156 -0.0582 -0.9217 -0.0570
50057SOL    HW261897   4.061   6.895   1.032 -0.5764  2.0778 -1.0360
50058SOL     OW61898   5.086   0.631   9.003  0.7328 -0.2307  0.3250
50058SOL    HW161899   5.091   0.539   8.976  0.1989 -0.2204  0.1897
50058SOL    HW261900   5.160   0.642   9.063  0.2755 -0.9910  1.0513
50059SOL     OW61901  13.598   8.650   3.409 -0.2073 -0.8024 -0.2841
50059SOL    HW161902  13.534   8.719   3.391  0.8863  0.1291 -0.7765
50059SOL    HW261903  13.657   8.689   3.474  1.5784 -0.4865 -1.9919
50060SOL     OW61904   9.344   6.946  13.445 -0.4011  0.1343 -0.2261
50060SOL    HW161905   9.344   7.008  13.518  1.0033  0.7586 -0.7270
50060SOL    HW261906   9.414   6.884  13.467  0.4037  0.6406 -1.2746
50061SOL     OW61907   5.814   4.082   9.633  0.2875 -0.3765 -0.3293
50061SOL    HW161908   5.892   4.046   9.675  1.6762  2.2148 -0.4723
50061SOL    HW261909   5.821   4.054   9.542 -1.5699 -4.1439  0.5170
50062SOL     OW61910  11.171   2.661   2.555 -0.2989 -0.3725 -0.0166
50062SOL    HW161911  11.172   2.648   2.460 -1.8795  0.2076 -0.1423
50062SOL    HW261912  11.210   2.748   2.568  1.4828 -1.1256  0.0483
50063SOL     OW61913   9.247   6.919   0.629  0.1501  0.6743  0.1048
50063SOL    HW161914   9.309   6.935   0.701 -0.6036 -0.1058  0.9534
50063SOL    HW261915   9.257   6.826   0.609 -0.6057  0.5851  0.1212
50064SOL     OW61916  12.606  13.025   1.113  0.2280  0.0463  0.4775
50064SOL    HW161917  12.678  13.086   1.097 -0.1438  0.5843  0.7817
50064SOL    HW261918  12.553  13.069   1.180 -0.1078 -0.5681  0.6166
50065SOL     OW61919   4.767   3.322   6.889  0.0584  0.1320 -0.3807
50065SOL    HW161920   4.795   3.239   6.929  0.7198  0.8302  0.6687
50065SOL    HW261921   4.692   3.350   6.941 -0.1305  0.2263 -0.6992
50066SOL     OW61922   3.429   5.765   6.511  0.1468  0.1619  0.3927
50066SOL    HW161923   3.386   5.844   6.478 -2.6515 -1.2978  0.2207
50066SOL    HW261924   3.462   5.721   6.433 -0.4497  0.0027  0.2264
50067SOL     OW61925  12.365  10.627   4.189  0.0811 -0.5589  0.7857
50067SOL    HW161926  12.331  10.565   4.125  0.5982 -0.8958  0.8381
50067SOL    HW261927  12.430  10.678   4.141 -0.7435  0.3322  0.5866
50068SOL     OW61928   0.343   9.615   0.529 -0.1803 -0.0605  1.1342
50068SOL    HW161929   0.277   9.547   0.531 -0.9088  0.5410 -0.5469
50068SOL    HW261930   0.427   9.568   0.532 -0.6090 -1.2663 -1.8954
50069SOL     OW61931   0.252   5.796   0.515 -0.2864 -0.1827 -0.4047
50069SOL    HW161932   0.311   5.865   0.546  0.7657 -0.9666 -0.6051
50069SOL    HW261933   0.303   5.715   0.523 -1.1895 -0.8333 -0.9901
50070SOL     OW61934   7.030   1.060  10.060  0.0714 -0.4880 -0.3649
50070SOL    HW161935   6.942   1.094  10.042 -0.1400 -1.0713 -0.4563
50070SOL    HW261936   7.015   0.974  10.100  0.5385  0.4617  2.0367
50071SOL     OW61937   6.142  10.422   7.625 -0.0646  0.4856  0.3590
50071SOL    HW161938   6.144  10.335   7.664 -1.0791  1.3269  2.4389
50071SOL    HW261939   6.052  10.453   7.639 -0.1303  1.3535 -1.6005
50072SOL     OW61940   5.210  13.104   4.603 -0.5127  0.5719  0.4762
50072SOL    HW161941   5.143  13.163   4.569 -0.8320  0.9524  1.7192
50072SOL    HW261942   5.224  13.040   4.533 -2.5111  0.1932  0.3768
50073SOL     OW61943   3.945  13.160   6.652 -0.0643 -0.2913  0.5029
50073SOL    HW161944   3.969  13.252   6.646 -2.0211  0.2992  0.8693
50073SOL    HW261945   3.942  13.142   6.746 -1.5164 -0.1507  0.5161
50074SOL     OW61946  11.647  11.051   0.135  0.0790  0.0693  0.6933
50074SOL    HW161947  11.645  11.122   0.199  0.6628  1.2174 -0.5017
50074SOL    HW261948  11.737  11.019   0.138  0.7665  1.6461 -1.0709
50075SOL     OW61949  11.236  11.172   5.083  0.4397 -0.7956  0.3397
50075SOL    HW161950  11.198  11.085   5.094  2.0245 -1.7081 -0.9203
50075SOL    HW261951  11.311  11.158   5.025 -0.6601  1.8007 -1.8977
50076SOL     OW61952   6.266   9.048  13.536  0.3856 -0.2783  0.2905
50076SOL    HW161953   6.213   9.127  13.540 -0.2946 -0.7265  0.4097
50076SOL    HW261954   6.226   8.995  13.468  1.5917 -0.0075 -0.6721
50077SOL     OW61955   2.551  13.486   5.483  0.3140  0.4623  0.2092
50077SOL    HW161956   2.576  13.467   5.392 -0.2124 -1.4538  0.4195
50077SOL    HW261957   2.492  13.561   5.476 -0.0173  0.1149 -1.0843
50078SOL     OW61958   3.150   5.770  11.161  0.0385 -0.3490 -0.5971
50078SOL    HW161959   3.115   5.851  11.198  0.8321 -0.8257  1.2991
50078SOL    HW261960   3.212   5.739  11.226 -0.9396 -2.9821 -0.8125
50079SOL     OW61961  10.158  13.228   2.821 -0.0210  0.0087 -0.4194
50079SOL    HW161962  10.130  13.144   2.858  1.5208  0.0446  0.9369
50079SOL    HW261963  10.106  13.293   2.868  0.1019 -0.0913 -0.1444
50080SOL     OW61964   9.267   6.233   7.160  0.0434  0.4689 -0.2115
50080SOL    HW161965   9.291   6.160   7.217 -2.6851 -0.8206 -0.5399
50080SOL    HW261966   9.340   6.295   7.168  0.5307 -0.3481  3.3998
50081SOL     OW61967  12.324   7.787   5.853  0.0927  0.3083 -0.4072
50081SOL    HW161968  12.233   7.777   5.879  0.4183  1.5624  1.3618
50081SOL    HW261969  12.324   7.770   5.758 -2.1037  1.1786 -0.6073
50082SOL     OW61970  12.874   5.376  13.371  0.0626  0.0068  0.1669
50082SOL    HW161971  12.896   5.286  13.396 -1.9498 -0.1785  1.5605
50082SOL    HW261972  12.952   5.409  13.327  0.6984 -2.5509 -0.7803
50083SOL     OW61973   0.350   2.391   2.582  0.1830  0.0554 -0.0110
50083SOL    HW161974   0.305   2.422   2.503 -0.4609 -1.1220 -0.1398
50083SOL    HW261975   0.351   2.295   2.572  1.0380 -0.0415  0.9057
50084SOL     OW61976   0.713   6.736  10.915  0.2059 -0.0741 -0.7343
50084SOL    HW161977   0.643   6.740  10.850 -0.0351 -0.1159 -0.4777
50084SOL    HW261978   0.704   6.650  10.955 -0.3547  0.3685  0.1364
50085SOL     OW61979   9.903   2.302   9.637  0.0279  0.4943  0.1373
50085SOL    HW161980   9.922   2.318   9.729 -0.3622  2.4942 -0.0817
50085SOL    HW261981   9.912   2.388   9.595 -1.9521  0.0856 -1.2884
50086SOL     OW61982   6.471   5.288   6.226  0.4279  0.1478  0.2156
50086SOL    HW161983   6.566   5.296   6.222  0.4086 -0.2100 -1.3843
50086SOL    HW261984   6.450   5.216   6.167 -0.8498  0.2280  0.5340
50087SOL     OW61985   8.909   0.413  12.332 -0.6351  0.4841 -0.2080
50087SOL    HW161986   8.933   0.320  12.337 -0.4562  0.4494 -1.3990
50087SOL    HW261987   8.895   0.429  12.238  1.0512  2.0971 -0.2279
50088SOL     OW61988   2.498   9.954   7.787  0.0019  0.4915 -0.1499
50088SOL    HW161989   2.486   9.932   7.694  1.1254  0.5459 -0.3242
50088SOL    HW261990   2.526   9.872   7.827 -3.8453 -0.5044  0.9020
50089SOL     OW61991   8.534   8.091   4.965 -0.1782 -0.6474  0.3488
50089SOL    HW161992   8.580   8.175   4.970 -0.4781 -0.3572 -1.3518
50089SOL    HW261993   8.604   8.026   4.957  0.0821 -0.6631  2.2040
50090SOL     OW61994  12.374   6.518   8.695 -0.1224  0.1749  0.3075
50090SOL    HW161995  12.284   6.486   8.704  0.4526 -1.0615  2.6386
50090SOL    HW261996  12.379   6.591   8.757  0.5099  0.1443  0.2957
50091SOL     OW61997  12.670  10.676  10.393  0.3847  0.5585 -0.0694
50091SOL    HW161998  12.662  10.727  10.474 -0.2989 -0.0747  0.2729
50091SOL    HW261999  12.716  10.734  10.333  0.0418  1.4082  0.4647
50092SOL     OW62000  11.857   8.868   1.504  0.1399  0.0636 -0.1889
50092SOL    HW162001  11.891   8.948   1.463 -1.8059  0.9881 -0.1489
50092SOL    HW262002  11.855   8.803   1.434  0.8497  0.3369 -0.4691
50093SOL     OW62003   4.876  11.098   5.568  0.5476 -0.1972 -0.1706
50093SOL    HW162004   4.794  11.105   5.615  0.0077 -1.0222 -0.9466
50093SOL    HW262005   4.919  11.182   5.581 -0.5587  0.3579 -0.0195
50094SOL     OW62006   7.159   1.556   0.687 -0.0948  0.0178 -0.1721
50094SOL    HW162007   7.155   1.646   0.657  2.1651  0.8772  1.7638
50094SOL    HW262008   7.205   1.509   0.617 -0.4211  0.5803 -0.7683
50095SOL     OW62009   0.064   6.172   7.636  0.3619  0.3547  0.4366
50095SOL    HW162010   0.113   6.094   7.612 -0.1909 -0.0845  0.7065
50095SOL    HW262011  -0.027   6.143   7.641 -0.0578  1.3078 -0.8085
50096SOL     OW62012   4.590   8.825   9.210 -0.1110 -0.6292 -0.5018
50096SOL    HW162013   4.507   8.861   9.241  0.7540  2.0597 -0.9776
50096SOL    HW262014   4.610   8.876   9.131  1.7075 -1.6119 -0.7336
50097SOL     OW62015  12.303   5.252   3.993 -0.0294 -0.4253  0.3600
50097SOL    HW162016  12.254   5.308   3.933  0.0316 -0.2041  0.5124
50097SOL    HW262017  12.278   5.163   3.970  1.3692 -0.4488 -1.2157
50098SOL     OW62018   1.428   0.280   3.299  0.1744  0.3238  0.1479
50098SOL    HW162019   1.351   0.225   3.287  1.9156 -2.1494 -0.5056
50098SOL    HW262020   1.446   0.277   3.393  0.7278 -0.9871  0.0194
50099SOL     OW62021   0.460   5.256   0.523  0.4370 -0.2902  0.0320
50099SOL    HW162022   0.416   5.260   0.608 -0.3959  0.1540 -0.4084
50099SOL    HW262023   0.389   5.258   0.459  1.0694 -0.3274 -0.6872
50100SOL     OW62024   0.281  10.917  10.013 -0.9840  0.2304 -0.1123
50100SOL    HW162025   0.196  10.882   9.985 -0.1774  0.5062 -3.2989
50100SOL    HW262026   0.278  11.009   9.986 -1.0444  1.3440  3.2731
50101SOL     OW62027   4.786  12.673   1.930 -0.0218  0.3400 -0.5624
50101SOL    HW162028   4.877  12.642   1.930 -0.1918 -0.1675 -0.5279
50101SOL    HW262029   4.793  12.768   1.943  0.4029 -0.0078  2.9412
50102SOL     OW62030   0.452   4.324  11.389  0.1175 -0.0103 -0.0676
50102SOL    HW162031   0.523   4.294  11.445  1.0349  2.8016  0.4365
50102SOL    HW262032   0.485   4.315  11.300  1.5919  2.1600  0.1912
50103SOL     OW62033   0.953  12.473  10.013  0.1312  0.0792 -0.1436
50103SOL    HW162034   0.986  12.509  10.096  2.5356 -2.4132  0.0896
50103SOL    HW262035   1.028  12.474   9.954 -1.0891  0.1515 -1.7693
50104SOL     OW62036  10.891   8.151   3.101  0.1830 -0.2955  0.1316
50104SOL    HW162037  10.885   8.222   3.164 -1.1084  0.7132 -1.0525
50104SOL    HW262038  10.984   8.144   3.080  0.3035  1.2018  0.1062
50105SOL     OW62039  10.021   3.670  13.542 -0.2643 -0.6918  0.0585
50105SOL    HW162040   9.996   3.617  13.618 -1.4772 -1.1107 -0.5961
50105SOL    HW262041   9.996   3.760  13.566 -2.6996 -1.1059 -0.6103
50106SOL     OW62042   1.820   1.693   6.781 -0.1781  0.0189 -0.5614
50106SOL    HW162043   1.728   1.669   6.770 -0.2382 -0.3214  0.5719
50106SOL    HW262044   1.828   1.718   6.873  0.9633 -0.4544 -0.5127
50107SOL     OW62045   2.767  11.532  11.724 -0.1952 -0.1755  0.1532
50107SOL    HW162046   2.703  11.554  11.792 -0.8614  0.1547 -0.5693
50107SOL    HW262047   2.849  11.518  11.772 -0.9676 -1.4068  1.1861
50108SOL     OW62048   7.409  13.357   0.425  0.1421  0.0526 -0.1237
50108SOL    HW162049   7.412  13.396   0.513  0.3601  0.8793 -0.4920
50108SOL    HW262050   7.380  13.267   0.440  2.5052 -0.5928  1.0518
50109SOL     OW62051   2.548   7.729   4.718 -0.2638  0.3326  0.1236
50109SOL    HW162052   2.603   7.748   4.795  0.1647 -1.1528  0.2038
50109SOL    HW262053   2.478   7.674   4.751  1.2846 -2.4485 -0.9006
50110SOL     OW62054   3.820   9.354   2.799 -0.2828 -0.0643  0.2451
50110SOL    HW162055   3.856   9.442   2.792  0.5559 -0.5409 -3.3804
50110SOL    HW262056   3.726   9.366   2.809 -0.1323  1.2430  0.1823
50111SOL     OW62057  12.432   9.142  10.630 -0.4904  0.6790 -0.0916
50111SOL    HW162058  12.351   9.184  10.659 -0.0044  1.0991  0.6916
50111SOL    HW262059  12.448   9.179  10.543 -0.3161  1.7960  0.3944
50112SOL     OW62060  13.311   6.137  12.631  0.6390 -0.1416 -0.0310
50112SOL    HW162061  13.281   6.201  12.566 -0.4446 -0.1597  0.4295
50112SOL    HW262062  13.404   6.126  12.613  1.0211  2.0860  0.3168
50113SOL     OW62063  12.874   6.173   6.717  0.1809  0.2301  0.3607
50113SOL    HW162064  12.851   6.082   6.702 -2.6192  0.6535  1.5138
50113SOL    HW262065  12.831   6.221   6.646  0.3249  0.7734  0.6324
50114SOL     OW62066   3.017   9.000   8.104 -0.1591  0.4000  0.4315
50114SOL    HW162067   2.979   9.033   8.186  1.8905 -0.3226  1.7612
50114SOL    HW262068   3.035   9.079   8.053 -0.4271  0.9561  1.1691
50115SOL     OW62069   1.806  10.799   7.603  0.1057 -0.5922 -0.4348
50115SOL    HW162070   1.766  10.798   7.690  1.4133 -1.0738  0.1930
50115SOL    HW262071   1.897  10.823   7.620  0.4464 -1.0049 -1.6375
50116SOL     OW62072   1.939  12.342  13.045  0.1453  0.1708  0.4010
50116SOL    HW162073   1.908  12.384  13.126 -1.6998 -2.2891  1.1074
50116SOL    HW262074   2.001  12.276  13.076 -1.3411 -1.4974  0.0323
50117SOL     OW62075  10.069   2.709   9.143  0.3723  0.1591 -0.7410
50117SOL    HW162076  10.153   2.748   9.166 -0.0983  1.1633 -0.6825
50117SOL    HW262077  10.030   2.769   9.079 -1.0418  0.6141  0.4961
50118SOL     OW62078   2.623   4.354   3.986 -0.2230 -0.4941  0.1620
50118SOL    HW162079   2.688   4.396   4.043 -1.0341 -1.4582  1.8793
50118SOL    HW262080   2.539   4.378   4.024 -0.7369 -2.9211  0.7334
50119SOL     OW62081   5.838   5.991   9.855  0.1107  0.4772 -0.2400
50119SOL    HW162082   5.917   5.962   9.809  0.2878 -3.0341  1.8895
50119SOL    HW262083   5.870   6.038   9.932 -0.0359  1.8021 -0.9597
50120SOL     OW62084   3.454   7.647   7.011  0.4346  0.6864  0.1361
50120SOL    HW162085   3.437   7.725   7.065  1.0573 -0.1511  1.5925
50120SOL    HW262086   3.485   7.581   7.073  0.6734 -0.4920 -1.1886
50121SOL     OW62087   2.863   5.992   9.577  0.8708  0.2791  0.5271
50121SOL    HW162088   2.887   5.947   9.496  1.1129  1.1008  0.1319
50121SOL    HW262089   2.946   6.017   9.617  0.8158 -1.3920  1.7943
50122SOL     OW62090  11.759  11.902   7.604  0.9016 -0.9046  0.4566
50122SOL    HW162091  11.740  11.952   7.683  1.1374  0.6804 -0.4343
50122SOL    HW262092  11.827  11.953   7.559 -2.1847  0.7517 -2.9025
50123SOL     OW62093   2.143  13.181  13.653 -0.1423 -0.8495 -0.2383
50123SOL    HW162094   2.075  13.237  13.615 -0.5910 -1.6324 -0.6175
50123SOL    HW262095   2.122  13.093  13.622 -0.4217 -1.5069  1.6674
50124SOL     OW62096  12.910   9.713   1.790  0.3520 -0.0311  0.1177
50124SOL    HW162097  12.921   9.806   1.811  0.0692  0.4162 -1.5660
50124SOL    HW262098  12.998   9.684   1.765  0.1682  0.1948 -0.8274
50125SOL     OW62099   6.220   6.847  10.635  0.0344  0.0954  0.1710
50125SOL    HW162100   6.271   6.906  10.690  0.7601  0.4616 -0.8634
50125SOL    HW262101   6.148   6.902  10.602  0.9088  0.5234 -1.0734
50126SOL     OW62102   0.094   7.072  11.157 -0.2230  0.0818 -0.0766
50126SOL    HW162103   0.167   7.011  11.141  1.1241  1.6968 -0.3879
50126SOL    HW262104   0.062   7.094  11.070 -0.6551 -0.1179  0.0316
50127SOL     OW62105  11.535   6.051   8.478 -0.1936 -0.6075 -0.2289
50127SOL    HW162106  11.442   6.057   8.457  0.2143 -0.8915 -2.3223
50127SOL    HW262107  11.558   6.138   8.514 -1.5522 -1.0396  1.8592
50128SOL     OW62108  12.474  11.505   6.409  0.1175  0.4298 -0.1282
50128SOL    HW162109  12.436  11.489   6.323 -1.1824  0.8995  0.3214
50128SOL    HW262110  12.568  11.497   6.396 -0.1534 -1.6137 -1.1348
50129SOL     OW62111   7.713   0.783   9.365 -0.5522  0.0615 -0.1318
50129SOL    HW162112   7.753   0.704   9.401  1.7114  0.8002 -0.8476
50129SOL    HW262113   7.723   0.848   9.434 -0.4726  0.2554 -0.3253
50130SOL     OW62114  12.901   1.584   3.021 -0.0030  0.0091 -0.1899
50130SOL    HW162115  12.956   1.640   3.076  1.1526 -0.5108 -0.7750
50130SOL    HW262116  12.911   1.497   3.060 -3.5876  0.4293  2.1349
50131SOL     OW62117   0.439   3.154   8.225  0.2360  0.1707 -0.0393
50131SOL    HW162118   0.508   3.165   8.290 -0.1181 -0.3451  0.4313
50131SOL    HW262119   0.468   3.080   8.171  0.4359  0.4752 -0.3608
50132SOL     OW62120   7.018   9.586  10.992  0.1316 -0.0349 -0.1153
50132SOL    HW162121   6.995   9.501  10.955  1.5076 -0.6952  0.4490
50132SOL    HW262122   7.113   9.582  11.003  0.1311  1.3104  0.5873
50133SOL     OW62123   1.196  10.302   7.405  0.4901 -0.2148 -0.7574
50133SOL    HW162124   1.103  10.326   7.403  0.8004  1.0016 -1.5428
50133SOL    HW262125   1.196  10.208   7.426 -0.9494 -0.3987 -1.4561
50134SOL     OW62126   2.983  10.921   4.815 -0.7323  0.0614  0.1175
50134SOL    HW162127   3.051  10.854   4.822  0.2490  0.9901 -0.2373
50134SOL    HW262128   2.967  10.948   4.905 -0.4181  0.0518  0.1758
50135SOL     OW62129   3.915   1.811   2.129 -0.3011  0.7397  0.8421
50135SOL    HW162130   3.931   1.759   2.051 -2.0750  0.3924  0.6656
50135SOL    HW262131   3.983   1.784   2.191  1.9527  1.9567 -0.9556
50136SOL     OW62132   2.439  13.547  10.171 -0.5304 -0.2939 -0.2087
50136SOL    HW162133   2.381  13.512  10.104 -0.6126  0.0928 -0.3414
50136SOL    HW262134   2.418  13.640  10.175 -1.6344 -0.5805  1.4637
50137SOL     OW62135   3.788   9.532   4.910 -0.0392  0.0394 -0.4485
50137SOL    HW162136   3.876   9.522   4.945 -0.1130 -0.5400 -0.4250
50137SOL    HW262137   3.746   9.595   4.968 -1.1496 -3.0449  2.4257
50138SOL     OW62138   1.745  13.286   5.482  0.0671  0.0266 -0.2795
50138SOL    HW162139   1.714  13.323   5.399 -2.4889  0.9479  0.9747
50138SOL    HW262140   1.721  13.352   5.548  0.6698 -1.3303  1.3694
50139SOL     OW62141   1.643   6.382   7.785  0.2153  0.1940  0.2587
50139SOL    HW162142   1.668   6.420   7.869 -1.1632  0.7870  0.4263
50139SOL    HW262143   1.675   6.444   7.719 -0.9073  1.0590  0.4806
50140SOL     OW62144   8.282   8.699   3.069 -0.2966  0.1432 -0.8883
50140SOL    HW162145   8.340   8.625   3.087 -0.7848 -0.5097 -1.9209
50140SOL    HW262146   8.339   8.776   3.074  0.3493 -0.3556 -0.4298
50141SOL     OW62147  12.194   5.809   7.732  0.1752 -0.2872 -0.0730
50141SOL    HW162148  12.128   5.865   7.773 -1.3969 -1.6236 -0.6828
50141SOL    HW262149  12.160   5.792   7.644  0.4467 -2.4046  0.1844
50142SOL     OW62150   2.221  10.197  12.097  0.2115  0.3812  0.4712
50142SOL    HW162151   2.281  10.139  12.050  0.8625  0.8947  0.6507
50142SOL    HW262152   2.191  10.145  12.171 -1.9877 -0.9834 -1.2389
50143SOL     OW62153   2.554   5.353   9.766 -0.6599 -0.2969 -0.1510
50143SOL    HW162154   2.638   5.385   9.735 -0.1277 -1.5440 -0.0765
50143SOL    HW262155   2.495   5.428   9.759 -0.2060 -0.0866 -2.7048
50144SOL     OW62156  10.807   5.880   9.472  0.2710  0.2112  0.2956
50144SOL    HW162157  10.798   5.785   9.469  0.4754  0.1709  0.8466
50144SOL    HW262158  10.883   5.894   9.529 -1.0963  0.7796  2.0268
50145SOL     OW62159   8.169   4.814   2.197  0.2341 -0.0008  0.2381
50145SOL    HW162160   8.195   4.782   2.111 -2.0654 -0.3611 -0.3758
50145SOL    HW262161   8.157   4.735   2.249  1.9555  0.2263  1.0510
50146SOL     OW62162   4.837  13.511   7.152  0.1493  0.1054  0.1067
50146SOL    HW162163   4.878  13.594   7.175 -2.4338  1.3224  0.8027
50146SOL    HW262164   4.884  13.446   7.203  1.5775  1.2788  0.3628
50147SOL     OW62165   0.397   2.147  11.826  0.0955  0.0322  0.1081
50147SOL    HW162166   0.393   2.088  11.901  0.7754  0.9275  0.8695
50147SOL    HW262167   0.351   2.226  11.855  0.6574  0.5124 -0.2908
50148SOL     OW62168  13.128  10.556   3.038  0.3065  0.1054 -0.3587
50148SOL    HW162169  13.117  10.631   2.980 -0.4922 -0.3212 -0.7703
50148SOL    HW262170  13.213  10.571   3.080  0.2814  1.0957 -0.6361
50149SOL     OW62171  12.134  11.404   7.710  0.1956 -0.3254  0.7995
50149SOL    HW162172  12.189  11.456   7.769  0.9582 -1.8677  1.4868
50149SOL    HW262173  12.062  11.374   7.764 -0.6344  0.5788  0.2243
50150SOL     OW62174  13.280   4.705   7.461 -0.0559 -0.6081 -0.0134
50150SOL    HW162175  13.222   4.736   7.530  0.4371  0.7702 -0.1879
50150SOL    HW262176  13.343   4.648   7.506  0.6112  0.7265  0.8017
50151SOL     OW62177   5.293   9.860  10.096 -0.6690  0.2449 -0.0320
50151SOL    HW162178   5.347   9.852  10.017  0.0423  0.0615  0.4705
50151SOL    HW262179   5.215   9.808  10.076  0.6694 -2.0693  0.3693
50152SOL     OW62180  11.239   2.372   5.976 -0.3832 -0.2593 -0.3946
50152SOL    HW162181  11.256   2.466   5.986 -0.6986 -0.0955 -1.3358
50152SOL    HW262182  11.150   2.361   6.009 -0.0566 -0.3753  0.4735
50153SOL     OW62183   7.371   0.054  13.446  1.1470 -0.0459 -0.2836
50153SOL    HW162184   7.313   0.101  13.386  0.6961  0.3104  0.4164
50153SOL    HW262185   7.394   0.118  13.513 -1.0876 -1.2791  1.8259
50154SOL     OW62186   9.513   2.013   1.538 -0.2607 -0.0850  0.0639
50154SOL    HW162187   9.465   2.014   1.621 -0.5366  0.3300 -0.0928
50154SOL    HW262188   9.529   2.106   1.520 -1.8792 -0.0344 -1.2982
50155SOL     OW62189   0.888   8.610   5.555 -0.1342  0.9610 -0.2181
50155SOL    HW162190   0.829   8.598   5.481  0.2542 -2.0092 -0.1520
50155SOL    HW262191   0.856   8.550   5.622  0.4390  2.4649  1.5081
50156SOL     OW62192   2.049  11.583   1.719  0.4875 -0.3614  0.3783
50156SOL    HW162193   2.051  11.608   1.812  0.1058 -0.7707  0.5044
50156SOL    HW262194   1.979  11.518   1.714 -2.0816  2.2689 -0.8639
50157SOL     OW62195   3.314  12.817   5.796  0.1320 -0.4208 -0.0745
50157SOL    HW162196   3.391  12.809   5.852  0.5127 -0.8753 -0.6593
50157SOL    HW262197   3.349  12.840   5.710 -0.3833 -0.6901 -0.3595
50158SOL     OW62198  12.809   4.664   7.155 -0.2578  0.1640  0.3839
50158SOL    HW162199  12.744   4.594   7.157 -0.5206  0.4035  0.1113
50158SOL    HW262200  12.791   4.716   7.233  0.0865 -0.1998  0.7180
50159SOL     OW62201  12.650  11.159   0.523  0.5552  0.2016 -0.2987
50159SOL    HW162202  12.592  11.093   0.561  0.9535  0.5878  1.0602
50159SOL    HW262203  12.738  11.121   0.531  0.6710  0.4033 -0.6024
50160SOL     OW62204   5.300   1.198  13.043  0.0304  0.1906  0.0960
50160SOL    HW162205   5.208   1.172  13.052  0.2635 -1.0252 -0.8505
50160SOL    HW262206   5.326   1.167  12.956  1.3593  0.4749  0.3667
50161SOL     OW62207   6.197   4.677  13.463 -0.1796 -0.2698 -0.2116
50161SOL    HW162208   6.117   4.697  13.415 -0.0008 -0.5500 -0.6349
50161SOL    HW262209   6.266   4.676  13.396  0.3856  1.1082  0.2992
50162SOL     OW62210   2.015   6.209   5.333  0.2824 -0.3863 -0.3982
50162SOL    HW162211   2.085   6.170   5.281  0.5002 -0.5882  0.0396
50162SOL    HW262212   1.938   6.156   5.312  0.1005  0.2572 -1.3949
50163SOL     OW62213  13.573   2.436   8.078 -0.5680 -0.3150 -0.2210
50163SOL    HW162214  13.499   2.419   8.020 -1.0315  0.2262  0.1999
50163SOL    HW262215  13.594   2.351   8.117  0.7775 -1.0295 -2.3506
50164SOL     OW62216   1.059   5.776   8.636 -0.1498  1.1959  0.1720
50164SOL    HW162217   1.029   5.779   8.545 -0.4102  1.4867  0.2672
50164SOL    HW262218   1.122   5.703   8.638 -0.4587  0.9154 -0.1464
50165SOL     OW62219   7.592   5.794   8.854 -0.0486 -0.0540  0.6874
50165SOL    HW162220   7.556   5.828   8.937 -1.7006 -2.0819  0.8804
50165SOL    HW262221   7.576   5.700   8.858  0.7219 -0.3232 -1.5341
50166SOL     OW62222  10.623   2.241   3.020 -1.0203 -0.2200  0.5156
50166SOL    HW162223  10.604   2.226   3.113  1.4965 -2.4007  0.8113
50166SOL    HW262224  10.566   2.178   2.975 -0.9590 -0.4339  0.7290
50167SOL     OW62225   0.219  12.710  11.679  0.0061  0.3115  0.1137
50167SOL    HW162226   0.283  12.668  11.736  0.6726  1.4350  0.2091
50167SOL    HW262227   0.217  12.654  11.601  0.1428 -0.4398  0.6358
50168SOL     OW62228   4.217  12.798   6.037  0.2596  0.2723  0.3096
50168SOL    HW162229   4.218  12.712   5.995 -0.1349  0.3057  0.2292
50168SOL    HW262230   4.268  12.787   6.117 -0.3714 -0.2108  0.6509
50169SOL     OW62231   4.168   6.214   6.713  0.0296 -0.0322 -0.3665
50169SOL    HW162232   4.164   6.186   6.804 -0.6934  0.2195 -0.3132
50169SOL    HW262233   4.094   6.274   6.703  0.4617  0.4149 -0.9605
50170SOL     OW62234   2.340   4.792  12.377 -0.1072  0.2052 -0.1990
50170SOL    HW162235   2.312   4.710  12.417  0.5979  0.0432 -0.0362
50170SOL    HW262236   2.423   4.813  12.419  0.1179  0.5862 -0.8135
50171SOL     OW62237   7.495   0.832   3.150 -0.1543 -0.3590  0.1125
50171SOL    HW162238   7.585   0.820   3.181 -0.3910 -1.2585  0.5020
50171SOL    HW262239   7.453   0.747   3.167 -0.3127 -0.9303 -2.6654
50172SOL     OW62240  11.642   2.956   1.945 -0.1740  0.0640 -0.0688
50172SOL    HW162241  11.684   3.004   2.016 -0.2740 -0.4659  0.3619
50172SOL    HW262242  11.577   3.017   1.909 -1.1516 -0.1387  1.2631
50173SOL     OW62243  10.291   7.332  10.912  0.6001 -0.1577  0.7105
50173SOL    HW162244  10.335   7.371  10.837  0.7126 -0.0358  0.8379
50173SOL    HW262245  10.236   7.263  10.875  0.0271  0.4411  0.4314
50174SOL     OW62246  10.677   5.106  11.951  0.1583  0.0022  0.0204
50174SOL    HW162247  10.692   5.173  12.018  0.3790 -0.2257  0.1984
50174SOL    HW262248  10.621   5.041  11.995  1.1052 -0.6366  0.2961
50175SOL     OW62249  12.161  12.423   5.823  0.3957 -0.1947 -0.4087
50175SOL    HW162250  12.239  12.411   5.877  0.0566  1.0226  0.4087
50175SOL    HW262251  12.107  12.346   5.841  0.4356  0.0367  0.7878
50176SOL     OW62252   3.932   2.678   0.405  0.1196  0.2507 -0.3819
50176SOL    HW162253   3.866   2.747   0.399  0.9784  1.1024 -0.2391
50176SOL    HW262254   3.956   2.674   0.497  0.6695  0.3402 -0.5139
50177SOL     OW62255  12.012   4.128   0.853  0.2634 -0.3921 -0.3908
50177SOL    HW162256  12.044   4.214   0.878  0.4635 -1.4331  3.5830
50177SOL    HW262257  11.942   4.109   0.916  0.3783 -3.2108 -0.9849
50178SOL     OW62258   1.984   5.533   7.675  0.0247 -0.3358 -0.0307
50178SOL    HW162259   1.965   5.596   7.605  0.5201 -0.6585 -0.4624
50178SOL    HW262260   1.933   5.456   7.652 -1.9210  0.4345  1.3814
50179SOL     OW62261   2.906  11.039   1.732  0.0250 -0.1083  0.0914
50179SOL    HW162262   2.976  11.046   1.666  1.0859  1.2792  1.2869
50179SOL    HW262263   2.862  11.124   1.729  0.5102  0.2248  1.5911
50180SOL     OW62264   4.511   7.090  13.447  0.0676 -0.3710  0.1939
50180SOL    HW162265   4.576   7.151  13.481 -1.2920  2.0102 -1.1982
50180SOL    HW262266   4.428   7.137  13.452 -1.0060 -1.9627 -1.2960
50181SOL     OW62267   4.960   0.960   6.867  0.7331 -0.2063 -0.4418
50181SOL    HW162268   4.924   0.875   6.839 -0.2433 -0.3346  1.0676
50181SOL    HW262269   4.891   1.023   6.847  0.5883 -0.0986  0.3642
50182SOL     OW62270  11.951  13.626   8.804 -0.0558  0.1882 -0.1798
50182SOL    HW162271  11.894  13.552   8.819 -0.3638  0.6814  1.1562
50182SOL    HW262272  11.998  13.638   8.886  1.0609  0.5710 -0.8468
50183SOL     OW62273   7.482   0.754  11.264 -0.3497 -0.3973 -0.3781
50183SOL    HW162274   7.396   0.724  11.296 -0.5824 -1.0092 -1.5317
50183SOL    HW262275   7.544   0.694  11.304 -0.4576 -0.0290  0.3660
50184SOL     OW62276   3.504   9.118   9.917  0.0497 -0.0846  0.5882
50184SOL    HW162277   3.463   9.205   9.913 -0.0236 -0.1112 -2.8953
50184SOL    HW262278   3.597   9.136   9.927  0.1538  0.5548 -1.0622
50185SOL     OW62279   2.115  10.520   0.624  0.1731 -0.5909 -0.7408
50185SOL    HW162280   2.093  10.432   0.655  0.7181 -0.6762 -0.5984
50185SOL    HW262281   2.205  10.535   0.652  0.1380 -0.0432 -0.8940
50186SOL     OW62282   4.726   0.974   6.478 -0.4034  0.0049 -0.1516
50186SOL    HW162283   4.670   1.019   6.416 -0.4423  1.3490  0.8275
50186SOL    HW262284   4.673   0.965   6.557  0.1611 -0.2947  0.2024
50187SOL     OW62285  10.010  11.672   3.463 -0.1829  0.1001  0.1667
50187SOL    HW162286   9.974  11.711   3.542  0.7413 -0.5152  0.9059
50187SOL    HW262287   9.944  11.690   3.396 -1.6476 -0.5857  1.3615
50188SOL     OW62288  13.524   4.268   5.175 -0.2495 -0.0551  0.5651
50188SOL    HW162289  13.497   4.182   5.141  1.0482 -0.6187  0.8869
50188SOL    HW262290  13.470   4.331   5.128  0.2506 -0.9237 -1.2573
50189SOL     OW62291   8.259   1.916   7.413 -0.7048  0.4867  0.7883
50189SOL    HW162292   8.165   1.898   7.424 -0.7585  0.5182  0.4102
50189SOL    HW262293   8.302   1.850   7.467 -0.9234 -0.3209  0.0177
50190SOL     OW62294  11.596  12.156   3.428  0.2715  0.1545  0.6149
50190SOL    HW162295  11.639  12.093   3.485  0.6328  1.2127  1.5418
50190SOL    HW262296  11.515  12.113   3.400  0.9298 -1.0423  0.5213
50191SOL     OW62297   4.561   6.664   7.793  0.3839  0.4336  0.2203
50191SOL    HW162298   4.493   6.731   7.791 -1.2263 -1.0892  0.6405
50191SOL    HW262299   4.580   6.647   7.700  0.1078  0.7883  0.0951
50192SOL     OW62300   7.372   9.789   2.004 -0.0127  0.3850  0.2451
50192SOL    HW162301   7.433   9.759   2.071  1.3120  0.4452 -0.8879
50192SOL    HW262302   7.362   9.883   2.021 -1.9300 -0.0859  2.0543
50193SOL     OW62303  10.036   8.458   3.205  0.2309 -0.5865  0.5810
50193SOL    HW162304  10.045   8.534   3.148 -0.1749 -1.2788 -0.4386
50193SOL    HW262305  10.060   8.490   3.292 -1.2420  1.0682  0.4443
50194SOL     OW62306  10.358   8.817   7.384  0.0056 -0.0421  0.0396
50194SOL    HW162307  10.352   8.905   7.423  0.4667  0.3703 -0.7931
50194SOL    HW262308  10.420   8.770   7.439  0.8292  0.6071 -0.3246
50195SOL     OW62309  13.389   3.358   4.753 -0.0084 -0.3853  0.0835
50195SOL    HW162310  13.433   3.277   4.729  1.3870 -0.5759  2.8225
50195SOL    HW262311  13.305   3.330   4.791 -1.0365 -0.2526 -1.9702
50196SOL     OW62312   4.678   8.400   9.665 -0.3315 -0.2444  0.2674
50196SOL    HW162313   4.732   8.335   9.621 -0.6453 -0.5853  0.3777
50196SOL    HW262314   4.682   8.477   9.609 -0.8478 -0.7163 -0.4395
50197SOL     OW62315   6.665   6.402   7.054 -0.1632  0.4563  0.9264
50197SOL    HW162316   6.654   6.376   7.145 -0.0056 -0.6098  0.6559
50197SOL    HW262317   6.579   6.388   7.014 -0.2020  0.8093  0.8825
50198SOL     OW62318   4.489   2.508   1.496 -0.1130  0.3914  1.0936
50198SOL    HW162319   4.541   2.435   1.462 -0.4223  0.3322  0.7446
50198SOL    HW262320   4.410   2.508   1.443  0.2224  1.4750  0.5651
50199SOL     OW62321  13.630   7.696   3.125  0.1853 -0.9079  0.1035
50199SOL    HW162322  13.601   7.745   3.202 -1.1996 -0.4287 -0.6756
50199SOL    HW262323  13.725   7.702   3.127  0.1119  0.6625  0.7902
50200SOL     OW62324   1.387  11.896   4.289  0.0824 -0.2553 -0.2929
50200SOL    HW162325   1.341  11.814   4.303 -0.3244 -0.3300 -1.8319
50200SOL    HW262326   1.448  11.903   4.363 -0.3906 -1.5588  0.2496
50201SOL     OW62327   4.742  12.551  12.216 -0.1619 -0.9908  0.7662
50201SOL    HW162328   4.727  12.540  12.309  0.1762 -1.5302  0.7627
50201SOL    HW262329   4.675  12.614  12.187  0.4817  0.1162  1.5909
50202SOL     OW62330   7.410   8.217   9.520 -0.1673  0.4441 -0.0122
50202SOL    HW162331   7.330   8.171   9.494  0.3546  0.2060 -1.2576
50202SOL    HW262332   7.439   8.172   9.599 -0.1534 -0.8067 -0.7121
50203SOL     OW62333   5.443   7.609  10.283  0.0686 -0.3721  0.2360
50203SOL    HW162334   5.429   7.671  10.213  1.4062  1.0113  1.1093
50203SOL    HW262335   5.538   7.595  10.284 -0.0542 -1.3017  0.9813
50204SOL     OW62336   4.047  10.544   4.011 -0.0238  0.2057 -0.5470
50204SOL    HW162337   4.037  10.619   4.070  0.2062 -0.4827  0.3826
50204SOL    HW262338   3.978  10.483   4.038  1.1038 -0.8106  0.0933
50205SOL     OW62339   2.560   4.075   4.025 -0.6624 -0.7354 -0.9032
50205SOL    HW162340   2.599   4.074   4.113 -0.8991 -0.4314 -0.7939
50205SOL    HW262341   2.497   4.003   4.026 -2.0224  0.4200 -0.1957
50206SOL     OW62342  12.028  10.868  12.303 -0.5981 -0.1844  0.0537
50206SOL    HW162343  12.016  10.785  12.256  0.1699  0.4196 -1.2771
50206SOL    HW262344  12.123  10.875  12.315 -0.5209  1.1435 -1.0968
50207SOL     OW62345  10.769  12.649  10.246 -0.2575 -0.5478  0.2294
50207SOL    HW162346  10.771  12.615  10.335  0.2256  0.8989  0.8115
50207SOL    HW262347  10.680  12.683  10.236 -0.1602 -0.2490  0.3579
50208SOL     OW62348   2.579   2.830   4.028 -0.5185  0.4116 -0.4423
50208SOL    HW162349   2.556   2.808   4.119  0.2018 -2.4139 -0.8437
50208SOL    HW262350   2.639   2.904   4.036  1.9529 -1.5957  1.7352
50209SOL     OW62351  13.003  10.190   1.982 -0.3839 -0.0062 -0.1953
50209SOL    HW162352  13.089  10.230   1.998  0.4009 -1.3688 -0.8719
50209SOL    HW262353  12.947  10.225   2.052  0.2965  2.1120 -0.6341
50210SOL     OW62354   8.356  10.450   9.005  0.0815  0.1824 -0.0621
50210SOL    HW162355   8.422  10.410   9.061 -1.0271  0.3057  1.3757
50210SOL    HW262356   8.279  10.393   9.014  0.2433 -0.5630 -2.5338
50211SOL     OW62357  10.058   2.552   5.809 -0.7416  0.6972  0.2108
50211SOL    HW162358  10.045   2.555   5.904 -0.8745 -0.1025  0.2209
50211SOL    HW262359  10.147   2.521   5.797 -0.6382  1.0389  0.0722
50212SOL     OW62360  13.628   0.017   6.757  0.4167  0.5367 -0.1857
50212SOL    HW162361  13.642  -0.062   6.705 -0.0066  0.8332 -0.7550
50212SOL    HW262362  13.550  -0.004   6.810  1.1799  0.0227  0.7630
50213SOL     OW62363  10.482   4.752   1.595 -0.4360 -0.0894 -0.0763
50213SOL    HW162364  10.507   4.824   1.537  0.4178 -0.2017  0.1504
50213SOL    HW262365  10.561   4.698   1.602 -0.9590 -0.8520  0.0495
50214SOL     OW62366   2.435   2.507  10.111  0.6412 -0.2468 -0.2888
50214SOL    HW162367   2.424   2.430  10.055  0.1490 -0.1933 -0.2672
50214SOL    HW262368   2.460   2.577  10.051  2.8123 -0.7993 -0.1087
50215SOL     OW62369   7.501  11.364   4.494 -0.3602  0.1970  0.2757
50215SOL    HW162370   7.471  11.359   4.585 -2.7667 -0.5272 -0.4693
50215SOL    HW262371   7.507  11.458   4.477  0.0264  0.3415  1.1391
50216SOL     OW62372  13.321   5.026   7.284 -0.0217  0.1587 -0.2022
50216SOL    HW162373  13.246   5.048   7.229 -0.6936 -0.6556  0.3665
50216SOL    HW262374  13.341   4.936   7.262 -0.4021 -0.2370  0.9818
50217SOL     OW62375   8.000  10.850   0.344  0.5560 -0.0538 -0.2931
50217SOL    HW162376   8.082  10.855   0.294  0.5660 -0.3169 -0.3084
50217SOL    HW262377   7.953  10.930   0.323  1.1621  0.4758  0.3277
50218SOL     OW62378  11.563  12.092   5.638 -0.1605  0.1360  0.5162
50218SOL    HW162379  11.523  12.111   5.553 -0.2122  2.3266  0.9784
50218SOL    HW262380  11.654  12.119   5.628  0.3223 -1.3710  0.6093
50219SOL     OW62381   8.274  13.250  13.657  0.3984  0.0657 -0.2087
50219SOL    HW162382   8.239  13.175  13.609  0.7463 -0.9589  1.0899
50219SOL    HW262383   8.254  13.326  13.602  0.5488 -1.0304 -1.8304
50220SOL     OW62384   9.031   6.596   2.788  0.3070 -0.2710  0.4979
50220SOL    HW162385   9.047   6.689   2.768 -0.9353 -0.6593 -3.2975
50220SOL    HW262386   8.960   6.598   2.852 -0.6347  1.4747 -0.4963
50221SOL     OW62387  10.614   0.579   8.346 -0.3849 -0.6685  0.1064
50221SOL    HW162388  10.658   0.664   8.349 -2.0233  0.1993  1.8410
50221SOL    HW262389  10.684   0.516   8.362  0.6353  0.4491  0.2175
50222SOL     OW62390   2.480   7.108  12.219 -0.5664 -0.0973  0.3808
50222SOL    HW162391   2.484   7.025  12.267  0.3214  0.6172  1.6250
50222SOL    HW262392   2.390   7.113  12.187 -0.9981 -0.9379  1.3940
50223SOL     OW62393   2.241   9.032  10.558  0.7823 -0.5709  0.5606
50223SOL    HW162394   2.237   9.042  10.653  0.6092  0.9138  0.4160
50223SOL    HW262395   2.156   9.060  10.527  1.4419  0.6912 -0.1625
50224SOL     OW62396   5.611  10.590   6.353  0.5717  0.4584  0.2731
50224SOL    HW162397   5.643  10.615   6.266 -0.7065  0.7367 -0.1366
50224SOL    HW262398   5.554  10.515   6.337  0.8238  0.1141  0.9553
50225SOL     OW62399   3.123  11.928   7.733  0.5975  0.3806  0.4481
50225SOL    HW162400   3.073  11.858   7.774  1.2678  0.5673  1.6268
50225SOL    HW262401   3.215  11.901   7.743  0.8509  1.2813  0.6474
50226SOL     OW62402   2.471   8.757   2.406  0.3784 -0.6629  0.6278
50226SOL    HW162403   2.544   8.742   2.467  0.0684 -1.5155  0.8062
50226SOL    HW262404   2.400   8.790   2.461  1.0527  1.5992  0.2377
50227SOL     OW62405   5.684   5.875   0.518  0.6450  0.3713  0.5961
50227SOL    HW162406   5.617   5.842   0.577 -1.1861 -0.3700 -1.7768
50227SOL    HW262407   5.767   5.851   0.560 -0.5046  0.5270  3.1626
50228SOL     OW62408   3.306   1.682   8.016 -0.7556 -0.1830 -0.1173
50228SOL    HW162409   3.326   1.693   8.109 -1.1815  0.2806 -0.0776
50228SOL    HW262410   3.210   1.675   8.013 -0.7297 -0.4084 -0.5003
50229SOL     OW62411   1.577   4.133   9.505 -0.3131 -0.2876  0.3011
50229SOL    HW162412   1.556   4.210   9.558 -1.2930 -1.3825  1.5627
50229SOL    HW262413   1.573   4.060   9.566  0.8946 -1.3320 -0.8057
50230SOL     OW62414   9.751  11.500   1.038 -0.0614  0.4435 -0.1279
50230SOL    HW162415   9.746  11.553   0.958  2.0166  0.1858 -0.4810
50230SOL    HW262416   9.711  11.416   1.014 -0.6416  0.8075 -0.4743
50231SOL     OW62417   3.301   8.770   5.128 -0.5701  0.0638 -0.2356
50231SOL    HW162418   3.286   8.851   5.178  2.3646  0.7439 -0.2460
50231SOL    HW262419   3.329   8.707   5.194  2.3037  0.6669 -0.7434
50232SOL     OW62420   5.319   8.267  12.790  0.8844 -0.1170  0.3065
50232SOL    HW162421   5.242   8.223  12.753 -0.7532  2.2372  0.7209
50232SOL    HW262422   5.356   8.203  12.850 -0.9450 -1.2143  0.3517
50233SOL     OW62423  12.838   6.096   9.905  0.5570  0.4798  0.6285
50233SOL    HW162424  12.774   6.139   9.962  0.4016  1.5361 -0.3110
50233SOL    HW262425  12.838   6.149   9.825 -0.0553 -1.6087 -0.8124
50234SOL     OW62426   6.000   8.067  10.584  0.1327 -0.1250  0.0613
50234SOL    HW162427   5.949   8.019  10.648  0.0824  0.5575  0.5423
50234SOL    HW262428   6.015   8.153  10.624  0.9231 -0.0199 -0.4257
50235SOL     OW62429   9.087  13.455  11.068 -0.2041  0.0959  0.1207
50235SOL    HW162430   9.031  13.508  11.011 -0.9777 -0.2398  0.5586
50235SOL    HW262431   9.168  13.506  11.076 -0.2413  0.3379 -0.9412
50236SOL     OW62432   5.722  12.224   0.894 -0.5325  0.2545  0.0482
50236SOL    HW162433   5.649  12.164   0.906  1.0011 -1.3189  2.3119
50236SOL    HW262434   5.741  12.257   0.982  0.5605  1.7740 -0.7077
50237SOL     OW62435   9.681   6.684   0.337  0.2751 -0.3319 -0.4093
50237SOL    HW162436   9.595   6.718   0.312  0.0348 -1.3362 -0.9776
50237SOL    HW262437   9.666   6.642   0.422 -0.0328 -1.3928 -0.9733
50238SOL     OW62438   9.212   9.259   9.792  0.5276  0.3630  0.4980
50238SOL    HW162439   9.255   9.185   9.835  0.2452 -0.2334 -0.2368
50238SOL    HW262440   9.217   9.238   9.699  0.7297  1.4248  0.2603
50239SOL     OW62441   0.829  12.545   6.587 -0.0263  0.4803  0.1834
50239SOL    HW162442   0.909  12.587   6.554  0.0479  0.5020  0.3908
50239SOL    HW262443   0.860  12.474   6.643 -0.1502 -0.1242 -0.4918
50240SOL     OW62444  13.369  13.683   8.031 -0.0128  0.0324 -0.5310
50240SOL    HW162445  13.376  13.673   8.126 -1.4291 -0.6261 -0.4820
50240SOL    HW262446  13.419  13.609   7.996 -0.8949 -0.7051 -0.2675
50241SOL     OW62447   8.149   9.453   7.536  0.3253 -0.1280 -0.2468
50241SOL    HW162448   8.094   9.485   7.608  0.8178 -0.0574  0.1058
50241SOL    HW262449   8.095   9.462   7.458 -0.9986 -2.1007  0.3609
50242SOL     OW62450   6.691  12.465   6.858 -0.1388  0.4105  0.2957
50242SOL    HW162451   6.626  12.407   6.819  0.6136  0.1502 -0.6083
50242SOL    HW262452   6.666  12.553   6.828  0.3820  0.2240 -0.7551
50243SOL     OW62453   7.602   9.083   8.267  0.6514 -0.4064  0.3008
50243SOL    HW162454   7.618   9.177   8.269  0.5633 -0.3989  0.7336
50243SOL    HW262455   7.618   9.058   8.176 -0.8835  0.3089 -0.2123
50244SOL     OW62456   6.611   0.903  13.214  0.7512  0.2061  0.5940
50244SOL    HW162457   6.635   0.903  13.306 -0.6954 -0.4570  0.9987
50244SOL    HW262458   6.634   0.815  13.183  1.7489  0.6110  0.1765
50245SOL     OW62459   7.816   2.941  11.859  0.4764 -0.2503  0.0355
50245SOL    HW162460   7.860   2.861  11.830  0.1280 -0.6521  0.5884
50245SOL    HW262461   7.880   2.986  11.912 -0.1055 -1.3975  1.8089
50246SOL     OW62462   2.298  10.430  11.491  0.1478  0.1869  0.3037
50246SOL    HW162463   2.374  10.377  11.516  0.7740  1.2563  0.7018
50246SOL    HW262464   2.224  10.369  11.498  0.7605 -0.4737  1.3758
50247SOL     OW62465   6.340   9.163   1.025  0.0978  0.0613  0.0760
50247SOL    HW162466   6.284   9.233   0.992 -1.6804 -1.6680 -0.7584
50247SOL    HW262467   6.413   9.159   0.964  0.0416  0.9636 -0.0579
50248SOL     OW62468   4.537   0.439  13.558  0.3806 -0.1821  0.0555
50248SOL    HW162469   4.472   0.488  13.608  0.3846  1.9869 -1.8604
50248SOL    HW262470   4.590   0.507  13.515  2.9291 -1.8913  0.3060
50249SOL     OW62471   2.984   9.198   4.371  0.0692  0.8674  0.7323
50249SOL    HW162472   3.056   9.256   4.344 -0.3867  2.0400  1.9347
50249SOL    HW262473   2.996   9.189   4.465  0.3096 -1.3042  0.5464
50250SOL     OW62474   7.682  12.470   1.679 -0.0417 -0.2278 -0.0166
50250SOL    HW162475   7.686  12.515   1.764 -0.5131  1.8958 -1.0506
50250SOL    HW262476   7.751  12.404   1.684  0.2966  0.1952  1.8120
50251SOL     OW62477   7.049  11.099   8.431 -0.1999  0.2427  0.5782
50251SOL    HW162478   7.054  11.195   8.439 -1.4593  0.4015 -0.2458
50251SOL    HW262479   6.956  11.081   8.418  0.1432 -1.0129 -0.3120
50252SOL     OW62480   1.979   3.454  10.837 -0.1222  0.6559  0.0861
50252SOL    HW162481   1.901   3.447  10.782 -0.7674 -0.5260  1.1144
50252SOL    HW262482   1.954   3.514  10.907  0.3339  1.2874 -0.2824
50253SOL     OW62483  13.605   1.060   7.682  0.0077 -0.0029 -0.2228
50253SOL    HW162484  13.667   0.991   7.659  0.1115  0.1540 -0.4260
50253SOL    HW262485  13.640   1.098   7.763  1.4958  1.6132 -1.5283
50254SOL     OW62486   0.081   1.535   6.536  0.2720  0.6652  0.2853
50254SOL    HW162487  -0.004   1.525   6.494  0.8368  1.6883 -1.2205
50254SOL    HW262488   0.080   1.624   6.571  1.1609  1.1992 -0.9426
50255SOL     OW62489   9.481  10.573   6.321  0.2489  0.2045 -0.3613
50255SOL    HW162490   9.514  10.498   6.272  0.4364 -0.0543  0.1527
50255SOL    HW262491   9.558  10.608   6.365  0.1404  0.6313 -0.5023
50256SOL     OW62492   0.834  13.708   5.591  0.0182  0.6001 -0.6500
50256SOL    HW162493   0.886  13.629   5.608 -1.5210 -0.1417  0.8550
50256SOL    HW262494   0.899  13.779   5.594  0.9563 -0.2223  1.7696
50257SOL     OW62495   4.592   6.645  10.014 -0.2615 -0.5140 -0.7162
50257SOL    HW162496   4.506   6.602  10.016 -0.5285 -0.0400 -1.6379
50257SOL    HW262497   4.646   6.587   9.960 -0.1050 -0.6074 -0.4630
50258SOL     OW62498   6.654   0.736   3.466 -0.0265 -0.4898 -0.8272
50258SOL    HW162499   6.673   0.646   3.437  0.7997 -0.5885 -0.0134
50258SOL    HW262500   6.737   0.768   3.500 -0.5062  0.3167 -0.4025
50259SOL     OW62501   1.283  11.637   4.331 -0.9815 -0.5672  0.1404
50259SOL    HW162502   1.313  11.594   4.411 -1.8588 -1.9566 -0.2421
50259SOL    HW262503   1.293  11.571   4.262  1.0787  1.0518 -1.2161
50260SOL     OW62504   0.036   8.971   8.399 -0.3480  0.2827 -0.3688
50260SOL    HW162505   0.102   8.996   8.334  0.5746  0.2708  0.5347
50260SOL    HW262506  -0.045   9.009   8.366 -0.3217 -1.3395 -2.5300
50261SOL     OW62507   8.772   8.385   1.876 -0.4408  0.3226  0.6320
50261SOL    HW162508   8.854   8.356   1.916  0.0006 -1.3258 -1.3203
50261SOL    HW262509   8.720   8.305   1.867 -0.9393  0.7919 -1.0560
50262SOL     OW62510   3.555   6.835   9.104 -0.2468  0.0081 -0.2246
50262SOL    HW162511   3.494   6.908   9.095 -0.5069 -0.0241  1.0706
50262SOL    HW262512   3.498   6.759   9.118  0.0223 -0.4522 -1.5114
50263SOL     OW62513  11.383  12.851  11.609 -0.0040 -0.6970 -0.2248
50263SOL    HW162514  11.363  12.872  11.700  2.3460 -0.7018  0.3494
50263SOL    HW262515  11.378  12.756  11.604  1.1205 -0.8036  0.2766
50264SOL     OW62516  13.288   6.548   1.229  0.2986  0.1987  0.0265
50264SOL    HW162517  13.248   6.520   1.311 -2.5495  2.6690 -0.3533
50264SOL    HW262518  13.216   6.545   1.165  1.2239  2.6809 -1.2786
50265SOL     OW62519   6.119  11.847   5.288 -0.2284 -0.1411 -0.3772
50265SOL    HW162520   6.067  11.809   5.217  0.0448  0.2146 -0.7745
50265SOL    HW262521   6.088  11.803   5.366 -0.5680 -0.5101 -0.7129
50266SOL     OW62522  13.558   7.475   4.669 -0.2109 -0.2675  0.4014
50266SOL    HW162523  13.610   7.436   4.739  1.7066  0.1601 -0.6979
50266SOL    HW262524  13.617   7.475   4.593 -1.5391  1.0499 -0.6899
50267SOL     OW62525  12.024   8.458   2.379 -0.3980  0.5704 -0.0269
50267SOL    HW162526  12.118   8.445   2.365 -0.2724  0.9043  0.5115
50267SOL    HW262527  12.016   8.548   2.411 -0.8128  0.2591  0.7710
50268SOL     OW62528  13.177   5.078   8.713  0.6622  0.1343 -0.8572
50268SOL    HW162529  13.087   5.064   8.743  0.9684  0.2643  0.1542
50268SOL    HW262530  13.191   5.011   8.647 -0.2883  0.3302 -1.2788
50269SOL     OW62531   7.942   4.711   7.430  0.2196  0.0454 -0.0701
50269SOL    HW162532   8.014   4.761   7.393 -0.4424 -0.3531 -2.0359
50269SOL    HW262533   7.890   4.685   7.354 -1.1860 -0.9212  1.1688
50270SOL     OW62534  10.053  12.353  11.655 -0.3985  0.2321 -0.3319
50270SOL    HW162535  10.035  12.270  11.610  3.1861 -0.8641 -0.0794
50270SOL    HW262536  10.006  12.346  11.738  0.1629 -1.7764 -0.1320
50271SOL     OW62537  13.644   4.195   6.320  0.3929 -0.0272  0.3455
50271SOL    HW162538  13.609   4.141   6.390  0.8145 -1.4381 -0.4906
50271SOL    HW262539  13.601   4.280   6.330 -0.4178 -0.5695  1.5861
50272SOL     OW62540   4.571   5.953   7.312 -0.0607 -0.7910  0.6042
50272SOL    HW162541   4.644   6.004   7.346  1.2349 -1.6864 -0.6905
50272SOL    HW262542   4.601   5.862   7.319 -0.1899 -1.0693 -1.7529
50273SOL     OW62543   0.056   1.152   4.220 -0.0605  0.3408  0.0977
50273SOL    HW162544   0.060   1.244   4.194  0.2814  0.1797 -0.4515
50273SOL    HW262545   0.129   1.111   4.173  0.1368 -0.1036  0.7842
50274SOL     OW62546   3.390  10.599   5.984  0.1881 -0.2024  0.0289
50274SOL    HW162547   3.327  10.547   5.935 -0.4167 -0.1236  0.7115
50274SOL    HW262548   3.439  10.535   6.036  0.4502 -0.2298 -0.2477
50275SOL     OW62549  12.118   9.166   0.350  0.3615 -0.0535  0.2209
50275SOL    HW162550  12.181   9.236   0.367 -0.3248  0.7171 -0.3189
50275SOL    HW262551  12.167   9.101   0.300  1.9360 -1.5495  3.3643
50276SOL     OW62552   8.300   0.242  12.306 -0.1163  0.3289  0.8249
50276SOL    HW162553   8.227   0.181  12.318  1.4028 -1.3517  2.0958
50276SOL    HW262554   8.283   0.283  12.222 -0.0527 -3.6317 -1.3600
50277SOL     OW62555   4.693   7.688  11.353  0.5024 -0.5251  0.0418
50277SOL    HW162556   4.692   7.678  11.448 -0.3187 -1.2252 -0.0291
50277SOL    HW262557   4.605   7.664  11.325  0.4107  0.7062 -0.8095
50278SOL     OW62558   0.299  11.210   1.539 -0.4950 -0.2619 -0.9631
50278SOL    HW162559   0.240  11.160   1.596 -2.0969  1.1788 -1.2674
50278SOL    HW262560   0.382  11.163   1.543 -0.8590 -0.8367  1.6914
50279SOL     OW62561  10.474   4.949   2.966 -0.7870 -0.0575 -0.1022
50279SOL    HW162562  10.540   4.883   2.987 -1.0935 -0.0343  1.0271
50279SOL    HW262563  10.429   4.964   3.049  0.5123  2.9691  0.1926
50280SOL     OW62564  13.503   4.007   3.125  0.0987 -0.5734  0.1753
50280SOL    HW162565  13.478   3.918   3.101 -2.3555  0.2477 -0.5882
50280SOL    HW262566  13.473   4.017   3.215  2.1005 -1.0618  0.9608
50281SOL     OW62567  12.726   2.880  11.526  0.3576  0.1195  0.2279
50281SOL    HW162568  12.757   2.938  11.457 -2.7928  0.4322 -1.0472
50281SOL    HW262569  12.706   2.938  11.599  2.0056 -0.0276  0.8556
50282SOL     OW62570   2.460  11.290   7.630  0.1295 -0.7440 -0.0751
50282SOL    HW162571   2.455  11.299   7.725  1.0239 -0.9297  0.0012
50282SOL    HW262572   2.546  11.325   7.607  0.5019 -1.9726 -0.6433
50283SOL     OW62573   0.590   1.821   5.122 -0.1731  0.4017  0.2706
50283SOL    HW162574   0.500   1.814   5.090 -0.2810  2.1053  0.0905
50283SOL    HW262575   0.584   1.879   5.198  0.6807 -0.0318  0.6807
50284SOL     OW62576   5.599  10.641   2.270 -0.3411 -0.0411  0.0810
50284SOL    HW162577   5.658  10.644   2.195 -0.1158  0.3473  0.2685
50284SOL    HW262578   5.597  10.549   2.296  1.4446  0.1546  1.0677
50285SOL     OW62579  11.711   2.740   3.469  0.4824 -0.0436  0.3111
50285SOL    HW162580  11.696   2.818   3.523  0.0960 -1.4774  2.3751
50285SOL    HW262581  11.771   2.770   3.400 -0.6648  2.3631  0.2558
50286SOL     OW62582   9.981   9.579   2.995 -0.0072  0.1398  0.2876
50286SOL    HW162583  10.009   9.600   3.083  3.1600 -0.7078 -0.3929
50286SOL    HW262584   9.975   9.664   2.950 -2.5354  0.6585  1.4470
50287SOL     OW62585   7.531   5.788   0.755 -0.6668 -0.0160  0.0445
50287SOL    HW162586   7.550   5.774   0.847  3.0493 -0.4766 -0.6289
50287SOL    HW262587   7.495   5.704   0.725  2.5725 -1.6599  0.2333
50288SOL     OW62588  12.050   2.182   3.128  0.0402  0.0695 -0.5413
50288SOL    HW162589  12.063   2.261   3.076  2.1679  0.5779  0.6448
50288SOL    HW262590  12.003   2.212   3.206  1.6084  0.3795  0.3170
50289SOL     OW62591  11.441   8.445   3.797 -0.5456  0.3086 -0.4434
50289SOL    HW162592  11.435   8.359   3.838 -0.3125 -0.1687 -1.3918
50289SOL    HW262593  11.399   8.504   3.860  1.8336  0.0121  1.5507
50290SOL     OW62594   9.723   9.522   5.156  0.2117 -0.1283  0.5938
50290SOL    HW162595   9.733   9.617   5.148  1.1009 -0.3732 -3.0217
50290SOL    HW262596   9.642   9.510   5.205 -0.9356  2.5404 -0.4725
50291SOL     OW62597  10.611   3.383   0.482 -0.6563 -0.2565 -0.4614
50291SOL    HW162598  10.622   3.297   0.521  1.9101  0.0258 -0.4024
50291SOL    HW262599  10.651   3.444   0.544 -0.8242  0.7638 -1.3093
50292SOL     OW62600   4.219   2.366   5.484  0.0588  0.3968  0.6011
50292SOL    HW162601   4.193   2.458   5.493  2.6816  1.5258 -1.6776
50292SOL    HW262602   4.283   2.352   5.554  0.0718  0.5102  0.6123
50293SOL     OW62603   7.352  10.084  11.031  0.3815  0.6185  0.3400
50293SOL    HW162604   7.380  10.017  10.968  0.8649  0.7333  0.4294
50293SOL    HW262605   7.376  10.167  10.990 -0.5053  0.7677  0.0853
50294SOL     OW62606   1.288  12.169  10.425 -0.0443 -0.2270  0.3028
50294SOL    HW162607   1.233  12.244  10.401 -0.3409 -1.1301 -2.1169
50294SOL    HW262608   1.228  12.094  10.422  0.3122 -0.6448  2.3950
50295SOL     OW62609   7.744   9.004  12.948 -0.6548 -0.1316 -0.0151
50295SOL    HW162610   7.835   8.987  12.972 -0.4856  0.9171  0.1623
50295SOL    HW262611   7.708   8.918  12.926 -0.1289 -0.8190  1.6353
50296SOL     OW62612   3.692   2.453   6.227  0.2434  0.4015 -0.4704
50296SOL    HW162613   3.639   2.488   6.298 -2.2724 -1.4879 -1.2732
50296SOL    HW262614   3.684   2.518   6.157 -0.1827  0.6157 -0.2272
50297SOL     OW62615   3.692   8.907  12.611 -0.1008  0.2938  0.0749
50297SOL    HW162616   3.753   8.873  12.546 -1.0516  0.2777 -0.8340
50297SOL    HW262617   3.712   8.858  12.691 -0.8640 -1.8348 -0.9750
50298SOL     OW62618   0.328  10.447   6.869 -0.4463 -0.2118 -0.1514
50298SOL    HW162619   0.379  10.436   6.789 -2.3691 -0.2619 -1.4424
50298SOL    HW262620   0.256  10.384   6.860 -1.2793  0.5084  1.1243
50299SOL     OW62621   2.925   6.462   4.745  0.1296 -0.1620  0.1432
50299SOL    HW162622   2.982   6.512   4.804 -0.5011  1.3900 -0.5068
50299SOL    HW262623   2.904   6.524   4.674 -0.4688 -1.4498 -0.8408
50300SOL     OW62624   4.139   5.694   8.501 -0.5371  0.0480  0.1307
50300SOL    HW162625   4.201   5.639   8.548  0.9250 -0.9097 -2.7058
50300SOL    HW262626   4.067   5.635   8.478  0.3777 -0.4285 -1.7013
50301SOL     OW62627   7.592  10.120   4.410  0.0758  0.3423 -0.4365
50301SOL    HW162628   7.683  10.094   4.401 -0.4921 -1.1964 -3.0123
50301SOL    HW262629   7.584  10.200   4.358  0.1944  1.2759  0.9320
50302SOL     OW62630  11.945   4.990   1.446 -0.0431  0.2164  0.1707
50302SOL    HW162631  11.946   5.057   1.378 -0.7042 -0.2837 -0.3430
50302SOL    HW262632  11.916   5.036   1.525 -3.5680 -0.0105 -0.8363
50303SOL     OW62633   2.754  12.133   8.725  0.1717 -0.0686  0.3710
50303SOL    HW162634   2.836  12.155   8.680 -0.8409  1.7233 -0.7080
50303SOL    HW262635   2.733  12.210   8.777 -1.8907  0.4244 -1.0572
50304SOL     OW62636   7.812   1.959   9.140 -0.7016 -0.4066  0.4328
50304SOL    HW162637   7.764   1.876   9.136  0.1501 -0.8983  0.2034
50304SOL    HW262638   7.778   2.010   9.067  0.8393 -1.7123 -1.2817
50305SOL     OW62639   9.078   7.605   6.654 -0.1004 -0.4173  0.2900
50305SOL    HW162640   9.169   7.610   6.626  0.8021  1.6136  3.1795
50305SOL    HW262641   9.032   7.667   6.597  0.6816 -0.0469  0.0479
50306SOL     OW62642   5.656   3.107   4.022  0.1138 -0.1794 -0.6049
50306SOL    HW162643   5.641   3.014   4.003  1.7615 -0.5236 -0.4186
50306SOL    HW262644   5.714   3.106   4.099  0.7339  0.9795 -1.0355
50307SOL     OW62645   6.584  10.541   6.473  0.1066  0.5798 -0.2064
50307SOL    HW162646   6.660  10.539   6.532 -1.1443  0.6353  1.4666
50307SOL    HW262647   6.526  10.607   6.510 -1.4578 -0.5415 -0.5544
50308SOL     OW62648   6.082   2.504   3.378  0.2130  0.3162 -0.0309
50308SOL    HW162649   6.175   2.487   3.363  0.5683 -0.1753  2.4177
50308SOL    HW262650   6.059   2.448   3.452 -1.8250  1.1058 -0.0088
50309SOL     OW62651   7.830   9.876   6.631  0.0548 -0.1786  0.9964
50309SOL    HW162652   7.812   9.869   6.724  0.0708  1.0331  1.0961
50309SOL    HW262653   7.889   9.802   6.612 -0.6902 -0.9865  1.7370
50310SOL     OW62654   1.404   5.185   2.383  0.1078 -0.3925  0.2757
50310SOL    HW162655   1.353   5.104   2.393 -0.8391  0.1349 -0.1533
50310SOL    HW262656   1.460   5.168   2.307 -0.7417 -0.3290 -0.3807
50311SOL     OW62657  10.164  10.261   1.062 -0.0871 -0.6290  0.1907
50311SOL    HW162658  10.133  10.287   0.976  0.2695 -0.6328  0.0566
50311SOL    HW262659  10.090  10.217   1.103  0.0405 -1.5084 -0.4891
50312SOL     OW62660  12.551  10.679   5.584  0.1521 -0.2300  0.2662
50312SOL    HW162661  12.520  10.768   5.565 -2.6883 -1.3965 -1.1334
50312SOL    HW262662  12.625  10.667   5.525  0.7153  1.2452  0.6242
50313SOL     OW62663   2.954   4.158   7.258  0.4073  0.3615 -0.7372
50313SOL    HW162664   2.877   4.102   7.269 -1.5084  2.8207 -0.8409
50313SOL    HW262665   3.017   4.103   7.211 -0.9102 -2.0153  0.1195
50314SOL     OW62666  12.878  10.014  10.646  0.5641  0.1319  0.0540
50314SOL    HW162667  12.892   9.974  10.732 -0.1154  0.9961  0.5772
50314SOL    HW262668  12.848  10.103  10.665  3.2528  1.4082 -1.0606
50315SOL     OW62669   0.959   4.224  10.484 -0.0472 -0.0845  0.3711
50315SOL    HW162670   0.893   4.292  10.497 -1.0193 -1.3552  2.9423
50315SOL    HW262671   0.917   4.160  10.426 -0.0330  0.3791 -0.1532
50316SOL     OW62672   6.147  12.677   3.446 -1.1591  0.3786 -0.4337
50316SOL    HW162673   6.100  12.624   3.382 -1.1740  1.1033 -1.0373
50316SOL    HW262674   6.213  12.723   3.395  1.5532 -2.0428  0.6454
50317SOL     OW62675  11.530  12.614   2.445 -0.8101  0.4768 -0.7805
50317SOL    HW162676  11.598  12.682   2.443  0.3289 -0.5824  0.4328
50317SOL    HW262677  11.477  12.632   2.368  1.5724  0.6262 -2.5263
50318SOL     OW62678   1.315   9.213   5.960 -0.1136  0.0183  0.2070
50318SOL    HW162679   1.286   9.304   5.948  0.1731 -0.0817 -1.3889
50318SOL    HW262680   1.389   9.203   5.900  0.7629 -0.8797  1.3947
50319SOL     OW62681   6.123   0.966   8.636  0.4283 -0.3687  0.3142
50319SOL    HW162682   6.083   0.999   8.716  1.1850 -0.0530  0.5722
50319SOL    HW262683   6.147   0.876   8.656  1.3837 -0.0333  0.7438
50320SOL     OW62684   2.723   4.261   9.964 -0.3823 -0.3715  0.0423
50320SOL    HW162685   2.728   4.337   9.906  1.4559 -0.2808  0.2545
50320SOL    HW262686   2.731   4.186   9.905 -1.1609 -0.3807 -0.0624
50321SOL     OW62687   1.967   6.309  10.764 -0.0757 -0.1619  0.1668
50321SOL    HW162688   1.932   6.273  10.846 -1.6219  1.1814  0.1676
50321SOL    HW262689   1.910   6.273  10.696 -0.9386  1.2955  0.0608
50322SOL     OW62690  10.711   9.432  10.916 -0.0345 -0.4533 -0.4727
50322SOL    HW162691  10.735   9.516  10.877  1.5335 -0.2917  0.7346
50322SOL    HW262692  10.662   9.456  10.994  0.7190 -0.6278  0.0637
50323SOL     OW62693  13.263   7.953   7.531  0.1862 -1.0086  0.5448
50323SOL    HW162694  13.286   7.977   7.442 -0.0102 -0.4520  0.6398
50323SOL    HW262695  13.197   7.884   7.522 -0.1995 -0.6022  0.2570
50324SOL     OW62696   0.060  10.038   0.484  0.0860  0.0562  0.0923
50324SOL    HW162697   0.034  10.105   0.547  1.2658  0.4670  0.1818
50324SOL    HW262698   0.097   9.967   0.537  0.9897  0.3594 -0.1097
50325SOL     OW62699   3.840   4.953   6.010 -0.4366  0.0515  0.1599
50325SOL    HW162700   3.907   4.974   5.945  2.3500  0.8793  3.0689
50325SOL    HW262701   3.788   5.033   6.018  0.0858  0.4165 -0.0502
50326SOL     OW62702   1.704   5.564  11.925  0.4333  0.7643  0.0371
50326SOL    HW162703   1.636   5.601  11.869 -0.2311 -1.4149 -0.7002
50326SOL    HW262704   1.660   5.550  12.009  0.7655  1.8553  0.4054
50327SOL     OW62705   5.553  11.998   6.825 -0.0057 -0.1039  0.0795
50327SOL    HW162706   5.553  11.920   6.769  0.1235 -0.7313  0.9447
50327SOL    HW262707   5.521  11.967   6.910 -1.1323  1.0329  0.0992
50328SOL     OW62708   9.203  12.276   4.746 -0.5026 -0.2588 -0.3066
50328SOL    HW162709   9.200  12.371   4.749 -0.8822 -0.2430 -0.9627
50328SOL    HW262710   9.142  12.252   4.676  0.0061 -0.9574 -0.5251
50329SOL     OW62711   4.902   0.757  11.774  0.4943  0.3452 -0.2270
50329SOL    HW162712   4.971   0.733  11.836  0.7499  0.9127 -0.2911
50329SOL    HW262713   4.889   0.678  11.721  0.1961 -0.1806  0.6128
50330SOL     OW62714   0.765   4.882   8.291  0.6514 -0.2127 -0.2255
50330SOL    HW162715   0.717   4.954   8.332  0.2773 -0.3004 -0.5058
50330SOL    HW262716   0.759   4.810   8.354  0.4900 -0.1943 -0.2189
50331SOL     OW62717  12.269  11.865   6.529  0.8423 -0.1802  0.2427
50331SOL    HW162718  12.224  11.902   6.605  1.4347 -0.4433  0.7299
50331SOL    HW262719  12.236  11.775   6.524  2.1141 -0.7371  1.2805
50332SOL     OW62720  11.606   4.184   7.426  0.5841 -0.2732 -0.2799
50332SOL    HW162721  11.668   4.115   7.402 -0.9457 -0.9115 -2.8782
50332SOL    HW262722  11.526   4.137   7.449  0.3190  0.5870  0.6042
50333SOL     OW62723  13.379  10.415  12.984 -0.4109 -0.0523 -0.0238
50333SOL    HW162724  13.335  10.481  13.038 -1.6053 -0.9923  0.2019
50333SOL    HW262725  13.347  10.432  12.895  1.2925  1.2793 -0.4413
50334SOL     OW62726  11.961   0.938   1.110 -0.2359 -0.5613  0.5506
50334SOL    HW162727  12.003   1.019   1.138 -1.0878 -0.1981  0.8250
50334SOL    HW262728  12.033   0.878   1.090  0.4316 -0.6623  3.0056
50335SOL     OW62729   0.458   3.372   3.024 -0.5993  0.0912 -0.3781
50335SOL    HW162730   0.549   3.349   3.007 -0.6514  1.2227 -2.5363
50335SOL    HW262731   0.410   3.289   3.014  0.2239 -0.6630  1.5214
50336SOL     OW62732  11.147   5.076   8.700  0.1850 -0.4269  0.7042
50336SOL    HW162733  11.130   5.011   8.769 -0.9641 -1.9791 -0.9458
50336SOL    HW262734  11.088   5.148   8.721 -1.5146 -1.6662  0.3981
50337SOL     OW62735  11.025  11.878   6.614 -0.0492 -0.3087 -0.0345
50337SOL    HW162736  11.010  11.807   6.552 -0.9386 -0.0613 -0.1175
50337SOL    HW262737  11.024  11.958   6.561  2.1649 -0.2885 -0.1257
50338SOL     OW62738   3.188   9.672  13.431 -0.4578 -0.3369  0.1601
50338SOL    HW162739   3.268   9.692  13.383 -1.0116  0.5346 -0.4381
50338SOL    HW262740   3.215   9.664  13.522  0.3446 -0.2706 -0.0705
50339SOL     OW62741  13.698   9.888  10.285  0.4314 -0.1261 -0.1464
50339SOL    HW162742  13.622   9.868  10.231  1.8942 -1.1520 -1.9429
50339SOL    HW262743  13.727   9.804  10.319  0.6052  0.2924  0.7789
50340SOL     OW62744   2.593   0.652   5.820 -0.1756  0.1248 -0.7209
50340SOL    HW162745   2.498   0.639   5.819 -0.4470  1.3891 -3.4243
50340SOL    HW262746   2.603   0.746   5.807  1.4745  0.0783  0.0747
50341SOL     OW62747  12.919   9.942   9.606  0.3148  0.2957 -0.1213
50341SOL    HW162748  12.939   9.857   9.565  0.9483  1.1725 -1.7182
50341SOL    HW262749  12.826   9.937   9.627  0.5114 -1.0747  0.5571
50342SOL     OW62750   5.033  11.199   9.355  0.0431 -1.1046  0.4208
50342SOL    HW162751   5.081  11.149   9.420  1.2935 -0.6607 -0.1191
50342SOL    HW262752   5.060  11.290   9.370 -0.4854 -0.8662 -0.0308
50343SOL     OW62753   9.189   9.478   4.609 -0.4781 -0.2132  0.1733
50343SOL    HW162754   9.171   9.430   4.528 -0.2440  0.0623 -0.0448
50343SOL    HW262755   9.149   9.426   4.678 -0.7699 -0.3950 -0.1349
50344SOL     OW62756   3.231   8.060  11.588  0.0337 -0.5522 -0.1896
50344SOL    HW162757   3.270   8.148  11.586 -2.5462  0.6905  0.7490
50344SOL    HW262758   3.275   8.014  11.517  1.8061  1.3263 -0.4203
50345SOL     OW62759  10.567   3.931   3.595 -0.0926  0.6750  0.3581
50345SOL    HW162760  10.571   3.837   3.575 -0.9274  0.2116  2.1479
50345SOL    HW262761  10.626   3.942   3.670 -0.8945  1.3621  0.8987
50346SOL     OW62762   7.782   0.967   1.249  0.3965 -0.2522 -0.1083
50346SOL    HW162763   7.729   1.016   1.187  1.5594  0.4950 -0.5437
50346SOL    HW262764   7.847   1.030   1.281  0.3565 -0.8470  1.2273
50347SOL     OW62765   5.449  12.937   3.671 -0.6212  0.1467 -0.6054
50347SOL    HW162766   5.504  12.970   3.600 -1.0023  0.1900 -0.8824
50347SOL    HW262767   5.410  13.016   3.709 -0.5626  0.1087 -0.4661
50348SOL     OW62768   7.618  12.754   1.250  0.0520  0.4884 -0.5104
50348SOL    HW162769   7.585  12.829   1.200 -1.2120  0.5865  0.4405
50348SOL    HW262770   7.540  12.706   1.277  0.8556 -1.9320 -2.1591
50349SOL     OW62771   8.441   9.277   2.160 -0.0069  0.4025 -0.1505
50349SOL    HW162772   8.509   9.211   2.178 -1.1824 -0.4293  1.5671
50349SOL    HW262773   8.395   9.244   2.083  0.0047 -0.3136  0.1386
50350SOL     OW62774   5.692  10.215   4.574  0.0734  0.9872  0.2240
50350SOL    HW162775   5.628  10.262   4.629 -0.1436  0.8266  0.1080
50350SOL    HW262776   5.648  10.133   4.551 -0.7237  1.9700 -2.0002
50351SOL     OW62777  10.231   6.725   6.840  0.2415  0.0710 -0.2920
50351SOL    HW162778  10.229   6.695   6.749 -1.5734 -0.2617 -0.1678
50351SOL    HW262779  10.191   6.654   6.890 -0.1556  0.8861  0.5723
50352SOL     OW62780   4.525  11.401   0.741 -0.0450 -0.1206  0.1155
50352SOL    HW162781   4.557  11.344   0.811 -1.1211 -0.6701  0.1735
50352SOL    HW262782   4.430  11.404   0.753 -0.0737  1.1577 -0.2912
50353SOL     OW62783   2.682   1.820   0.375  0.1900 -0.0260  0.2564
50353SOL    HW162784   2.617   1.752   0.357 -0.5299  0.1284  2.0495
50353SOL    HW262785   2.636   1.902   0.359  0.2230  0.0645  0.6066
50354SOL     OW62786   7.930   4.984  12.880 -0.5399  0.2020 -0.8826
50354SOL    HW162787   7.953   5.076  12.890 -1.1200  0.2934 -0.2941
50354SOL    HW262788   7.837   4.984  12.857 -0.4763 -0.2233 -1.1516
50355SOL     OW62789  13.270   7.759  12.490 -0.5548  0.8199 -0.5811
50355SOL    HW162790  13.273   7.721  12.403 -1.4297  0.6934 -0.5692
50355SOL    HW262791  13.249   7.686  12.548  0.9274  0.7223 -0.1271
50356SOL     OW62792   8.628   3.801   5.627  0.0933  0.2574  0.2460
50356SOL    HW162793   8.538   3.828   5.608 -0.1323 -0.7244 -0.1361
50356SOL    HW262794   8.675   3.819   5.546  0.0663  0.0344  0.1810
50357SOL     OW62795   6.496   2.334   8.063  0.2864  0.2203  0.1848
50357SOL    HW162796   6.448   2.332   7.980 -0.6470  1.6923  0.6523
50357SOL    HW262797   6.524   2.425   8.072 -2.0699  0.8058  2.7806
50358SOL     OW62798   4.350   0.499   1.026 -0.4421 -0.1900 -0.1666
50358SOL    HW162799   4.416   0.450   0.978 -0.5745  0.3317 -0.8865
50358SOL    HW262800   4.289   0.531   0.960 -1.6542 -0.9823  0.5148
50359SOL     OW62801   4.842   5.628  12.411  0.3659 -0.0628  0.2605
50359SOL    HW162802   4.832   5.722  12.398  0.2267 -0.0253  0.6253
50359SOL    HW262803   4.936   5.614  12.419  0.5013 -0.1466 -1.2070
50360SOL     OW62804   1.194  12.595   0.465  0.0536 -0.4639 -0.1225
50360SOL    HW162805   1.107  12.606   0.503  0.4497 -0.3131  0.7611
50360SOL    HW262806   1.183  12.525   0.400 -0.5635 -0.9663  0.5051
50361SOL     OW62807   5.960   1.783   3.984 -0.5813 -0.0536 -0.5912
50361SOL    HW162808   5.999   1.729   3.915  2.6789  1.5072 -0.1092
50361SOL    HW262809   5.898   1.839   3.938 -0.5068 -0.9217 -1.8006
50362SOL     OW62810   5.544   5.666   6.731  0.1843 -0.2290 -0.7329
50362SOL    HW162811   5.627   5.710   6.750 -0.0053 -0.1594 -0.0447
50362SOL    HW262812   5.514   5.634   6.816  0.9846 -2.8753 -1.3169
50363SOL     OW62813   2.218   6.561   2.408  0.0655 -0.3101  0.6299
50363SOL    HW162814   2.207   6.559   2.503  0.4044 -1.5962  0.6605
50363SOL    HW262815   2.311   6.541   2.395 -0.1816 -1.1006  0.0048
50364SOL     OW62816   9.495  11.240   1.481  0.4382  0.0276 -0.2940
50364SOL    HW162817   9.467  11.332   1.480 -1.5297 -0.4847  0.9135
50364SOL    HW262818   9.512  11.222   1.574  0.0372 -1.0198 -0.4113
50365SOL     OW62819  13.011  10.066   8.492 -0.2504 -0.7589 -0.1086
50365SOL    HW162820  12.993  10.152   8.455 -1.0220 -0.7189  0.3456
50365SOL    HW262821  13.066  10.082   8.568 -1.4869 -0.5488  0.7518
50366SOL     OW62822   2.207   0.485   6.485  0.3092 -0.8089 -0.1179
50366SOL    HW162823   2.155   0.413   6.519 -0.0359 -0.6225 -0.2417
50366SOL    HW262824   2.298   0.456   6.494  0.1684 -1.3065 -0.2820
50367SOL     OW62825  12.661  11.723   7.265 -0.0406 -0.2055  0.0356
50367SOL    HW162826  12.598  11.657   7.296  1.3874 -1.1585  1.0276
50367SOL    HW262827  12.731  11.672   7.224  0.1660  0.8242 -0.9329
50368SOL     OW62828  11.225   0.508   6.696  0.2939  0.4063 -0.2360
50368SOL    HW162829  11.156   0.552   6.647 -2.8537 -2.1365  1.5562
50368SOL    HW262830  11.233   0.560   6.776 -0.2411  0.1649 -0.0254
50369SOL     OW62831   8.591   2.775  12.737 -0.0836 -0.2468  0.1670
50369SOL    HW162832   8.623   2.705  12.679  1.0995  0.3717  0.0514
50369SOL    HW262833   8.653   2.776  12.809 -1.4765 -0.9266  1.4257
50370SOL     OW62834   3.596  11.403   9.585  0.4199 -0.4243  0.0619
50370SOL    HW162835   3.673  11.456   9.605 -0.2147  0.7497 -0.4827
50370SOL    HW262836   3.574  11.425   9.495  0.7500 -2.4358 -0.5531
50371SOL     OW62837  11.288  11.433   4.805 -0.2978 -0.5440  0.3185
50371SOL    HW162838  11.328  11.346   4.805 -0.5253 -0.6535  1.2374
50371SOL    HW262839  11.207  11.422   4.754  0.7361 -0.3451 -1.4594
50372SOL     OW62840  11.903  13.546   5.226 -0.2122 -0.1314  0.3651
50372SOL    HW162841  11.955  13.466   5.224  1.0801  0.6984  0.0805
50372SOL    HW262842  11.848  13.541   5.148  1.1158  0.0629 -0.6189
50373SOL     OW62843   0.003  13.433   6.879 -0.2223 -0.0401 -0.1266
50373SOL    HW162844   0.075  13.393   6.831  0.0389  2.1794 -1.7392
50373SOL    HW262845   0.045  13.480   6.951 -0.0329  1.0964 -0.9554
50374SOL     OW62846   6.407  12.584   9.835  0.3680 -0.4888  0.4546
50374SOL    HW162847   6.326  12.566   9.882  0.4444  0.4621  0.9517
50374SOL    HW262848   6.404  12.523   9.761 -0.3287 -1.1458  0.9959
50375SOL     OW62849   3.170   9.555   5.075  0.2372 -0.0032 -0.4497
50375SOL    HW162850   3.120   9.629   5.042  0.8255  0.6441  0.0998
50375SOL    HW262851   3.105   9.485   5.086 -0.5870  0.8997  0.4991
50376SOL     OW62852   2.409   0.470   2.436 -1.1061 -0.5983 -0.1105
50376SOL    HW162853   2.488   0.470   2.382 -0.1502 -3.5829  1.0951
50376SOL    HW262854   2.340   0.501   2.378  1.0483  3.6642 -0.8171
50377SOL     OW62855   0.697   7.242   1.410  0.4026 -0.2392  0.4938
50377SOL    HW162856   0.784   7.276   1.429  0.5294 -0.6817  0.7260
50377SOL    HW262857   0.637   7.302   1.455  0.4375  1.3824 -1.4700
50378SOL     OW62858   6.297   4.233   0.927  0.2451  0.6798  0.1766
50378SOL    HW162859   6.349   4.232   1.007 -0.9571  1.3611  1.0152
50378SOL    HW262860   6.351   4.281   0.864  1.9687 -1.3985 -0.0168
50379SOL     OW62861   5.577   9.247  13.659 -0.0758 -0.4245  0.1533
50379SOL    HW162862   5.492   9.211  13.684 -0.8028 -2.2083 -4.0216
50379SOL    HW262863   5.568   9.342  13.669 -3.4830 -0.3363 -2.1586
50380SOL     OW62864   4.303   1.132   0.856 -0.2235 -0.1023 -0.7996
50380SOL    HW162865   4.232   1.154   0.917  1.3263 -1.4390  1.6251
50380SOL    HW262866   4.374   1.100   0.911  2.2770  0.9900 -3.1228
50381SOL     OW62867  11.190  13.323   6.710  0.0262 -0.9274  0.6897
50381SOL    HW162868  11.191  13.419   6.704 -1.4891 -0.9524 -0.5968
50381SOL    HW262869  11.264  13.302   6.768  0.7473  0.9741  0.5388
50382SOL     OW62870  12.493   1.941   9.121  0.3657  0.3032  0.0193
50382SOL    HW162871  12.571   1.921   9.070 -0.3071  0.6299 -1.2010
50382SOL    HW262872  12.438   1.992   9.061 -1.4687 -1.2604  0.2613
50383SOL     OW62873  10.361   1.311   3.536  0.7467 -0.1709 -0.5651
50383SOL    HW162874  10.374   1.269   3.451 -0.8797  2.0304 -2.0211
50383SOL    HW262875  10.268   1.296   3.556  1.1254 -0.7649  0.9614
50384SOL     OW62876  10.765   3.081   7.755 -0.6118  0.3309 -0.9829
50384SOL    HW162877  10.806   3.165   7.776 -1.6298  0.4116  0.8890
50384SOL    HW262878  10.802   3.020   7.817  1.9629 -1.2856 -3.8407
50385SOL     OW62879   1.687  11.710   0.123 -0.8454  0.0566  0.4078
50385SOL    HW162880   1.634  11.789   0.117 -0.6517  0.2243  0.8651
50385SOL    HW262881   1.711  11.690   0.032  0.2356  1.2930  0.3925
50386SOL     OW62882  10.126  11.146   2.720  0.6501  0.1491  0.1115
50386SOL    HW162883  10.211  11.105   2.739  0.9416  1.6715  2.5626
50386SOL    HW262884  10.148  11.238   2.701 -0.3145  0.1532 -1.0851
50387SOL     OW62885   6.162   1.873  11.253  0.0338  0.3683 -0.4522
50387SOL    HW162886   6.245   1.907  11.220  1.1560 -0.9218  0.8958
50387SOL    HW262887   6.187   1.809  11.319 -2.0622  1.0228  1.0918
50388SOL     OW62888   9.590   2.749   8.102  0.3067 -0.1904  0.7564
50388SOL    HW162889   9.574   2.684   8.171  0.3677 -0.7041  0.2987
50388SOL    HW262890   9.685   2.744   8.087  0.0796 -1.4071 -0.6087
50389SOL     OW62891   4.590   2.600   3.747 -0.0980  0.5924  0.1831
50389SOL    HW162892   4.676   2.640   3.762 -0.0047  0.4733 -0.0198
50389SOL    HW262893   4.574   2.614   3.653  0.4894 -0.9050 -0.1693
50390SOL     OW62894  11.092   1.609  11.713  0.3876 -0.0576  0.4878
50390SOL    HW162895  11.069   1.547  11.644 -1.0658 -0.1020  0.9860
50390SOL    HW262896  11.105   1.692  11.667  1.4003 -0.4894 -0.0590
50391SOL     OW62897   0.289   2.416   5.252 -0.3805 -1.0461 -0.3798
50391SOL    HW162898   0.209   2.378   5.217 -0.2458 -0.9034 -0.8486
50391SOL    HW262899   0.268   2.437   5.343 -1.1188 -0.2950 -0.7158
50392SOL     OW62900   8.722  12.282   0.539 -0.0630  0.1111  0.0122
50392SOL    HW162901   8.801  12.275   0.593  0.5847 -2.9829 -1.1612
50392SOL    HW262902   8.745  12.238   0.458 -2.6735  0.1180 -0.7960
50393SOL     OW62903  11.532   0.508   9.628  0.5992  0.0106 -0.4986
50393SOL    HW162904  11.449   0.551   9.608  0.0663 -0.8169 -0.1121
50393SOL    HW262905  11.522   0.477   9.718  1.0970 -0.6242 -0.6526
50394SOL     OW62906  12.141   9.214   9.154  0.0600 -0.3559 -0.1910
50394SOL    HW162907  12.100   9.159   9.087 -0.5612 -0.3724  0.1936
50394SOL    HW262908  12.093   9.297   9.149 -0.5590 -0.6371  0.7913
50395SOL     OW62909   7.901   4.049   7.542 -0.3818  0.0886 -0.1484
50395SOL    HW162910   7.928   4.138   7.562 -1.7145  0.1296  1.7794
50395SOL    HW262911   7.982   4.003   7.520  0.5473  1.3742  0.4943
50396SOL     OW62912   8.151  12.248   5.028  0.5658 -0.1399  0.3603
50396SOL    HW162913   8.093  12.181   5.066  1.8996 -1.2304  0.5419
50396SOL    HW262914   8.183  12.297   5.104  3.2766 -2.3558  0.8071
50397SOL     OW62915   1.516  10.794  11.443  0.1866 -0.4572 -0.3075
50397SOL    HW162916   1.557  10.782  11.529 -0.0980 -1.6812 -0.3237
50397SOL    HW262917   1.495  10.887  11.440  1.9373  0.0002  0.1570
50398SOL     OW62918   6.141  13.059  10.272 -0.3188 -0.3985  0.0975
50398SOL    HW162919   6.179  12.984  10.316  0.3823 -1.3938 -2.0592
50398SOL    HW262920   6.202  13.131  10.290 -1.1677 -0.1742  2.4519
50399SOL     OW62921  10.774   7.356  11.391  0.2003 -0.3189  0.0196
50399SOL    HW162922  10.796   7.341  11.299  0.3920  1.0845 -0.1970
50399SOL    HW262923  10.856   7.339  11.439  0.7707  1.2067 -0.3573
50400SOL     OW62924   6.971   4.559   8.579  0.1859  0.3110  0.6020
50400SOL    HW162925   6.967   4.581   8.486  1.4831  0.5067  0.5735
50400SOL    HW262926   7.053   4.510   8.589 -1.3113 -2.3261  1.1402
50401SOL     OW62927  10.048  10.658   4.559 -0.5740 -0.4173  0.1413
50401SOL    HW162928   9.986  10.651   4.487  0.1503 -0.2583 -0.5053
50401SOL    HW262929   9.993  10.664   4.637 -1.3874 -3.2417 -0.1041
50402SOL     OW62930   0.563   0.434   9.641  0.4132  0.8924  0.3964
50402SOL    HW162931   0.497   0.500   9.665  1.5153  2.6847 -1.2464
50402SOL    HW262932   0.576   0.384   9.721 -1.7756  1.5132  1.2096
50403SOL     OW62933   8.539   0.333   7.154  0.5675 -0.0930 -0.2336
50403SOL    HW162934   8.444   0.340   7.141  0.0700 -0.8783  2.3559
50403SOL    HW262935   8.577   0.369   7.074 -1.8993  0.7764 -1.1122
50404SOL     OW62936   9.850   0.046   8.441 -0.1309  0.9192 -0.5307
50404SOL    HW162937   9.872   0.135   8.467 -0.4331  1.1808 -1.1355
50404SOL    HW262938   9.922  -0.007   8.473 -1.2301  0.9585  2.2373
50405SOL     OW62939  11.847   8.133   2.468  0.6820 -0.2873 -0.2546
50405SOL    HW162940  11.909   8.129   2.396  0.5045 -1.0068 -0.3725
50405SOL    HW262941  11.858   8.221   2.505  1.0941 -0.0821 -0.8661
50406SOL     OW62942   7.147   8.037  11.349  0.2612 -0.2436  0.1292
50406SOL    HW162943   7.168   8.130  11.350 -0.1471 -0.1473 -0.3399
50406SOL    HW262944   7.135   8.015  11.442 -0.8329  0.4377  0.1591
50407SOL     OW62945   8.569   5.133   1.234  0.2471 -0.0211  0.2583
50407SOL    HW162946   8.510   5.206   1.255  0.2776 -0.1433  0.7655
50407SOL    HW262947   8.656   5.165   1.256  0.3338  0.0169 -0.1266
50408SOL     OW62948   9.974   0.049  11.324  0.2845 -0.1906  0.7176
50408SOL    HW162949   9.998  -0.012  11.393  0.5857  1.2268  1.9185
50408SOL    HW262950  10.056   0.091  11.299  0.0546 -0.0973  0.0958
50409SOL     OW62951  11.537   1.589  11.178 -0.2091 -0.0816  0.2331
50409SOL    HW162952  11.547   1.678  11.212  0.1590  0.2277 -0.6501
50409SOL    HW262953  11.510   1.537  11.253 -0.2638  0.7479  0.7960
50410SOL     OW62954   2.624  12.543  10.901  0.5549  0.4314  0.5649
50410SOL    HW162955   2.562  12.575  10.967  0.5755  0.4158  0.5910
50410SOL    HW262956   2.705  12.591  10.918  0.9089 -0.4078  1.2767
50411SOL     OW62957   3.237  11.411  12.809  0.2834 -0.2441 -0.0683
50411SOL    HW162958   3.244  11.337  12.869  0.1459  1.4889  2.1736
50411SOL    HW262959   3.144  11.413  12.784 -0.4213  0.9579  2.3529
50412SOL     OW62960   2.011   8.975   9.073 -0.6569 -0.5424  0.1148
50412SOL    HW162961   1.976   8.894   9.110  1.1145 -0.8294  1.3117
50412SOL    HW262962   1.955   9.044   9.110  0.8069 -0.8385  3.2879
50413SOL     OW62963   2.354   6.514   1.106 -0.0031  0.5236 -0.5639
50413SOL    HW162964   2.426   6.452   1.090 -0.0355 -0.2285  1.7762
50413SOL    HW262965   2.397   6.599   1.112  0.6218  0.1834  0.0395
50414SOL     OW62966   2.969   4.058   9.485  0.6267  0.1059  0.3859
50414SOL    HW162967   2.970   3.964   9.501  0.9519  0.0327 -0.0447
50414SOL    HW262968   2.884   4.087   9.519 -0.0044 -0.5492 -0.5599
50415SOL     OW62969   4.961  11.633   6.121 -0.3650  0.6987  0.0738
50415SOL    HW162970   5.001  11.552   6.151  0.3247  1.1992  0.5397
50415SOL    HW262971   4.910  11.664   6.196  0.1278  1.1700  0.2196
50416SOL     OW62972   2.047   7.250   3.085 -0.1696 -0.5239  0.0066
50416SOL    HW162973   2.122   7.300   3.117 -0.2558 -0.0761 -0.4788
50416SOL    HW262974   2.071   7.159   3.102 -0.0736 -0.3202  1.0155
50417SOL     OW62975  10.501   2.211   1.423  0.3756 -0.2318  0.1515
50417SOL    HW162976  10.431   2.258   1.469  0.9126  1.6829 -0.8907
50417SOL    HW262977  10.581   2.236   1.469  0.9242  1.7317 -1.7210
50418SOL     OW62978   7.690  11.227   8.720 -0.0949  0.0013  0.3227
50418SOL    HW162979   7.606  11.248   8.760  0.2236 -0.2686  1.1449
50418SOL    HW262980   7.677  11.243   8.626  0.0393  3.7196  0.7983
50419SOL     OW62981   6.011   0.024   9.027 -0.5745  0.5604  0.1680
50419SOL    HW162982   6.106   0.032   9.029 -0.5075 -0.1568  0.2136
50419SOL    HW262983   5.995  -0.070   9.037 -1.3492  0.8415  1.9440
50420SOL     OW62984  10.938   2.341   9.690  0.3369  0.3331 -0.5814
50420SOL    HW162985  11.030   2.351   9.715  0.3672 -0.0674 -0.5305
50420SOL    HW262986  10.937   2.355   9.595  0.5209 -0.1107 -0.6512
50421SOL     OW62987  11.855   1.507   3.045 -0.2394 -0.0684 -0.0505
50421SOL    HW162988  11.944   1.474   3.053  0.2162  1.2771  0.7719
50421SOL    HW262989  11.856   1.590   3.093 -2.2187 -0.5754  0.9861
50422SOL     OW62990   4.093   6.551  11.395 -0.4274  0.2900  0.5225
50422SOL    HW162991   4.163   6.486  11.403 -0.2134  0.3358 -0.7816
50422SOL    HW262992   4.135   6.635  11.417  0.6382  0.6903 -2.5422
50423SOL     OW62993   1.640  11.453   3.545 -0.2159 -0.0705  0.7469
50423SOL    HW162994   1.673  11.478   3.458  0.9591  0.0331  1.2119
50423SOL    HW262995   1.590  11.529   3.574 -0.9986 -0.2685 -0.0092
50424SOL     OW62996  13.455   2.985   7.435  0.2270 -0.0016 -0.3251
50424SOL    HW162997  13.496   3.038   7.502  1.5483 -1.6380  0.2435
50424SOL    HW262998  13.519   2.981   7.364  1.3325 -2.7861  0.6702
50425SOL     OW62999  11.428  12.525   6.557 -0.4559  0.3520  0.4026
50425SOL    HW163000  11.378  12.447   6.579  0.3948  0.4044  2.7137
50425SOL    HW263001  11.519  12.495   6.552 -0.4196  0.6020 -2.0501
50426SOL     OW63002   3.016   4.710   9.058 -0.0799 -0.0901  0.3833
50426SOL    HW163003   3.017   4.755   8.974  1.3442  1.3626  1.1312
50426SOL    HW263004   2.931   4.731   9.096 -0.2594  0.2120 -0.1833
50427SOL     OW63005  10.280   9.338  11.963  0.5387 -0.0730 -0.4271
50427SOL    HW163006  10.201   9.389  11.942 -0.8155  0.2840  4.3119
50427SOL    HW263007  10.346   9.404  11.983 -0.2700 -0.0078  2.5682
50428SOL     OW63008   3.467   7.244   1.149 -0.0430  0.2720  0.3957
50428SOL    HW163009   3.561   7.240   1.129 -0.1428 -0.5112  0.0260
50428SOL    HW263010   3.427   7.274   1.068 -0.1425  0.2622  0.4415
50429SOL     OW63011   3.070   7.207   1.789  0.0914 -0.5735  0.1525
50429SOL    HW163012   3.103   7.285   1.834 -0.6535 -1.4852  2.3722
50429SOL    HW263013   3.143   7.181   1.732  1.0428  0.6873  0.7230
50430SOL     OW63014  13.196  11.142   5.249  0.0226 -0.5319 -0.2761
50430SOL    HW163015  13.288  11.117   5.244  0.0982 -0.5436  1.0428
50430SOL    HW263016  13.192  11.211   5.315 -0.6396  0.8807 -1.7288
50431SOL     OW63017   9.482   8.657   9.758 -0.4366  0.3461  0.5509
50431SOL    HW163018   9.473   8.563   9.767  3.2405 -0.0237  2.3962
50431SOL    HW263019   9.474   8.691   9.847  1.8917  1.2215  0.5136
50432SOL     OW63020   4.043   2.640   7.021  0.3133 -0.4227 -0.3800
50432SOL    HW163021   4.045   2.716   6.963  0.2559  0.6646  1.0065
50432SOL    HW263022   4.069   2.567   6.965 -0.8943  0.3723 -2.0630
50433SOL     OW63023   1.848   1.117   0.543 -0.0233  0.1659 -0.2454
50433SOL    HW163024   1.926   1.062   0.545  0.8135  1.3018 -0.4537
50433SOL    HW263025   1.781   1.062   0.501  1.0327 -0.3774 -1.2889
50434SOL     OW63026   3.499   8.305  11.311  0.1957 -0.6862 -0.1560
50434SOL    HW163027   3.510   8.224  11.262 -0.1991 -1.3286  0.8057
50434SOL    HW263028   3.588   8.338  11.322  0.4997 -1.7559  0.7187
50435SOL     OW63029   4.005   0.087   3.374 -0.2339 -0.4702 -0.1463
50435SOL    HW163030   4.070   0.127   3.431 -1.6100 -0.9907  1.9038
50435SOL    HW263031   4.052   0.016   3.329  1.3753  1.2360 -1.2933
50436SOL     OW63032   8.163  12.029   7.501  0.1542  0.2713 -0.6395
50436SOL    HW163033   8.151  12.120   7.527  0.4161  0.5821 -1.5546
50436SOL    HW263034   8.082  12.006   7.455  0.0352 -0.0050 -0.3012
50437SOL     OW63035   1.846   9.585  11.178 -0.3411  0.4160 -0.9186
50437SOL    HW163036   1.754   9.610  11.169 -0.2273  0.9172 -0.7229
50437SOL    HW263037   1.889   9.665  11.208  0.1725  0.2043 -1.0923
50438SOL     OW63038   3.874   9.863   9.462 -0.7442 -0.7448  0.1299
50438SOL    HW163039   3.906   9.799   9.398  1.3116  0.6673 -0.3576
50438SOL    HW263040   3.923   9.845   9.542 -0.3933  0.0002  0.0895
50439SOL     OW63041  12.385  12.916   2.071  0.1053  0.0920  0.7331
50439SOL    HW163042  12.437  12.984   2.029  0.6802 -0.0888  1.1363
50439SOL    HW263043  12.298  12.922   2.030  0.4437  0.3947  0.0559
50440SOL     OW63044   6.597   2.867   1.217 -0.4901 -0.0058  0.1983
50440SOL    HW163045   6.573   2.829   1.302  0.2998 -1.9857 -0.4185
50440SOL    HW263046   6.576   2.799   1.154 -1.2108  1.4966 -1.2635
50441SOL     OW63047   5.219  12.243   5.526  0.5911 -0.3835  0.1085
50441SOL    HW163048   5.289  12.220   5.464  1.2891  0.0384  0.7182
50441SOL    HW263049   5.227  12.179   5.596  0.3985 -0.3075  0.1997
50442SOL     OW63050   9.492   7.419   9.500  0.6232 -0.2232  0.0912
50442SOL    HW163051   9.544   7.496   9.521 -3.1011  2.7206 -0.5743
50442SOL    HW263052   9.444   7.399   9.580 -2.5548  1.8177 -1.1173
50443SOL     OW63053  12.149  11.969   6.741  0.4075  0.0036  0.0979
50443SOL    HW163054  12.189  11.990   6.825  0.0577  0.3323  0.1821
50443SOL    HW263055  12.065  11.930   6.763 -1.6400  3.8385 -0.0895
50444SOL     OW63056  13.439   2.376   4.334  1.1646  0.1140 -0.2181
50444SOL    HW163057  13.459   2.305   4.396  2.1725 -0.4337 -1.1402
50444SOL    HW263058  13.506   2.368   4.267  0.3272  0.9584 -1.1768
50445SOL     OW63059   6.190   8.639   9.664  0.5435  0.4800  0.1354
50445SOL    HW163060   6.156   8.557   9.628 -0.0479 -0.5875  2.8477
50445SOL    HW263061   6.142   8.708   9.617 -2.5139 -0.8784  1.0146
50446SOL     OW63062  10.528   7.340  11.258 -0.1668 -0.4904 -0.2844
50446SOL    HW163063  10.621   7.330  11.277  0.0115  0.1706 -0.7952
50446SOL    HW263064  10.485   7.329  11.343  0.5447  1.4411  0.3818
50447SOL     OW63065   9.665   1.860   0.645  0.2991 -0.1644 -0.1209
50447SOL    HW163066   9.608   1.786   0.623  0.5169  0.1214 -1.7350
50447SOL    HW263067   9.630   1.933   0.594  1.0678  0.4533  0.2186
50448SOL     OW63068   5.903   7.144  12.971  0.3977 -0.1932 -0.0250
50448SOL    HW163069   5.867   7.190  13.047 -2.0641 -1.5123 -0.2927
50448SOL    HW263070   5.888   7.204  12.898 -1.3029 -0.6586 -0.1122
50449SOL     OW63071   4.226  10.954   4.625  0.4923  0.3141 -0.2362
50449SOL    HW163072   4.187  10.877   4.584 -2.0593  1.3249  0.0782
50449SOL    HW263073   4.214  11.024   4.561 -0.9179  1.2690  0.9936
50450SOL     OW63074   6.603   8.643  10.203  0.4705 -0.4253 -0.3470
50450SOL    HW163075   6.672   8.661  10.267  2.5655 -1.5582 -2.1257
50450SOL    HW263076   6.643   8.664  10.118 -1.4379 -0.9945 -1.4557
50451SOL     OW63077   4.389   3.862  10.418  0.2353  0.1620 -0.4945
50451SOL    HW163078   4.410   3.891  10.330  1.3494 -0.8126 -0.5681
50451SOL    HW263079   4.331   3.787  10.405  1.0900 -0.5268 -0.4458
50452SOL     OW63080   4.864   2.410   3.474  0.1517  0.0027  0.4795
50452SOL    HW163081   4.825   2.324   3.487  0.3140 -0.3098 -0.9666
50452SOL    HW263082   4.878   2.417   3.380  0.1248  1.6301  0.5628
50453SOL     OW63083  12.140  10.304   7.395 -0.0987  0.2265 -0.1013
50453SOL    HW163084  12.049  10.327   7.417 -1.0785 -1.0683 -2.4047
50453SOL    HW263085  12.184  10.388   7.385 -1.1549  0.9015  0.5907
50454SOL     OW63086   1.110   6.643   8.972 -0.3664 -0.1402  0.4804
50454SOL    HW163087   1.027   6.622   8.929 -0.2450  1.1901 -0.4791
50454SOL    HW263088   1.163   6.565   8.962 -0.9703 -0.4677 -0.2700
50455SOL     OW63089  10.113   7.596   0.032 -0.4859 -0.4612 -0.1223
50455SOL    HW163090  10.082   7.524   0.088  0.7741 -1.7429 -0.9966
50455SOL    HW263091  10.143   7.552  -0.048  1.1702  0.9375 -0.3241
50456SOL     OW63092  12.158   1.645   9.417  0.1466  0.2183  0.1741
50456SOL    HW163093  12.222   1.678   9.353  1.4901  0.8928  1.7857
50456SOL    HW263094  12.117   1.724   9.452 -2.9934 -0.2365 -2.0866
50457SOL     OW63095   4.477   0.374   6.838  0.2104  0.9484  0.7938
50457SOL    HW163096   4.419   0.444   6.808 -1.2113 -0.2993  0.5335
50457SOL    HW263097   4.428   0.329   6.907  0.5499 -0.5771  0.0826
50458SOL     OW63098   7.112  11.841   7.118  0.6410  0.3613  0.7728
50458SOL    HW163099   7.050  11.892   7.171 -1.6242 -0.7558 -0.6499
50458SOL    HW263100   7.071  11.837   7.031  0.8418 -3.5499  0.7156
50459SOL     OW63101  13.654   9.712  10.747  0.3531  0.0631  0.1525
50459SOL    HW163102  13.620   9.695  10.835 -1.5774 -1.4133 -0.7944
50459SOL    HW263103  13.722   9.645  10.735  1.2459  0.8275  0.8058
50460SOL     OW63104   7.707   5.213  11.555  0.1415 -0.4047  0.8608
50460SOL    HW163105   7.711   5.149  11.626 -0.2357 -1.5895 -0.1582
50460SOL    HW263106   7.761   5.176  11.486 -0.9403 -0.1524 -0.1517
50461SOL     OW63107   7.685  13.442   7.697  0.7576 -0.4805  0.4331
50461SOL    HW163108   7.734  13.524   7.681  0.2959 -0.0626  1.1197
50461SOL    HW263109   7.712  13.416   7.785  1.7928 -1.7105 -0.2243
50462SOL     OW63110  12.125   5.054  11.989 -0.1985 -0.0324 -0.6173
50462SOL    HW163111  12.187   5.070  11.918  0.1271 -0.2435 -0.3874
50462SOL    HW263112  12.045   5.097  11.961 -0.8765 -2.1999 -2.2816
50463SOL     OW63113   5.878  11.359   8.932 -0.5565  0.4104 -0.0331
50463SOL    HW163114   5.855  11.435   8.878 -2.0494 -0.1398 -0.2160
50463SOL    HW263115   5.966  11.335   8.904  0.2895  2.5173  0.5608
50464SOL     OW63116   0.589   3.404   9.529 -0.0535  0.2364  0.1884
50464SOL    HW163117   0.662   3.433   9.584  0.5887 -2.0877  0.6551
50464SOL    HW263118   0.586   3.309   9.540 -2.6094  0.1574 -0.5341
50465SOL     OW63119   2.579   2.409   0.880 -0.0177 -0.3509  0.0530
50465SOL    HW163120   2.565   2.360   0.961  1.5214 -2.1470 -0.7031
50465SOL    HW263121   2.655   2.464   0.898 -0.0188 -0.3315 -0.0003
50466SOL     OW63122  10.016   0.783   5.689  0.2849 -0.3426  0.5028
50466SOL    HW163123  10.004   0.818   5.601  0.5693 -1.6015 -0.0583
50466SOL    HW263124  10.101   0.738   5.686  0.3751 -0.2730  1.4719
50467SOL     OW63125  11.142   3.671  11.254  0.2488 -1.0828 -0.0288
50467SOL    HW163126  11.050   3.676  11.230  0.4913  2.4162 -0.8126
50467SOL    HW263127  11.142   3.650  11.348 -1.3349 -1.0328  0.0059
50468SOL     OW63128   8.934   2.731   6.623 -0.6443  0.0633 -0.2281
50468SOL    HW163129   8.912   2.724   6.716  1.3046 -3.8311  0.1327
50468SOL    HW263130   9.029   2.741   6.622 -0.7641  1.3709 -1.8572
50469SOL     OW63131  11.599   6.023   6.249 -0.1225  0.2586 -0.1976
50469SOL    HW163132  11.579   5.999   6.159 -0.7701  0.2141 -0.0507
50469SOL    HW263133  11.532   5.978   6.301 -0.1548  0.8045  0.2465
50470SOL     OW63134   9.103  10.631   0.218  0.2376 -0.0004  0.2385
50470SOL    HW163135   9.179  10.628   0.159 -0.5999  0.7322 -0.9374
50470SOL    HW263136   9.141  10.640   0.305  1.6137 -3.4246  0.1492
50471SOL     OW63137   4.554   2.457   5.928  0.1685 -0.1035  0.3944
50471SOL    HW163138   4.495   2.517   5.975  0.1518 -0.1057  0.3765
50471SOL    HW263139   4.505   2.374   5.925 -0.0812  0.0569 -0.1475
50472SOL     OW63140   2.405   8.666   4.695 -0.2483 -0.5157 -0.2626
50472SOL    HW163141   2.376   8.673   4.604 -1.0417  1.0201  0.0834
50472SOL    HW263142   2.362   8.586   4.727 -0.5587 -0.6684 -1.0284
50473SOL     OW63143   4.325   3.545  12.601  0.4112  0.3708  0.4388
50473SOL    HW163144   4.332   3.561  12.695 -0.2760  1.1534  0.3676
50473SOL    HW263145   4.411   3.509  12.577  1.2899  1.9452  1.0309
50474SOL     OW63146   2.471   8.429   7.030  0.0021 -0.1950 -0.1295
50474SOL    HW163147   2.477   8.340   6.996 -0.2933 -0.4976  0.5861
50474SOL    HW263148   2.389   8.463   6.994  0.5600  0.1293 -1.1518
50475SOL     OW63149   9.372   6.217   0.196 -0.1603 -0.4552  0.4639
50475SOL    HW163150   9.316   6.274   0.249  0.3185 -0.8851  1.4559
50475SOL    HW263151   9.385   6.266   0.114  0.2451  0.8765  1.2870
50476SOL     OW63152   4.059  11.827   5.800 -0.0791  0.1506 -0.5539
50476SOL    HW163153   4.142  11.829   5.754  0.0712  0.2144 -0.2824
50476SOL    HW263154   4.052  11.914   5.841  0.3847 -0.3343  0.5868
50477SOL     OW63155  13.122   9.456   8.035  0.7324  0.5022 -0.3001
50477SOL    HW163156  13.147   9.541   7.998 -1.5876  0.6750 -1.6232
50477SOL    HW263157  13.122   9.396   7.961 -2.6529  0.5408 -0.4619
50478SOL     OW63158   3.064  12.876  12.542  0.2510 -0.3446 -1.0437
50478SOL    HW163159   3.061  12.796  12.488 -0.1310 -0.3187 -1.0607
50478SOL    HW263160   2.986  12.925  12.517 -1.2319 -1.4069  1.1925
50479SOL     OW63161   1.339  10.759   9.702  0.5547  0.2026 -0.5297
50479SOL    HW163162   1.337  10.800   9.616 -2.1752 -0.6424 -0.9545
50479SOL    HW263163   1.254  10.780   9.741 -1.2962 -5.1723 -0.9407
50480SOL     OW63164  10.100   7.252  10.646  0.7284  0.0448  0.0416
50480SOL    HW163165  10.030   7.253  10.711 -0.6557 -1.2194 -1.3364
50480SOL    HW263166  10.143   7.168  10.658  1.3237  0.3603  0.1642
50481SOL     OW63167   2.520   8.508   5.134  0.2066 -0.2041 -0.1295
50481SOL    HW163168   2.465   8.570   5.182 -0.2396 -1.0566  0.4792
50481SOL    HW263169   2.609   8.538   5.152 -0.0071  0.4739 -0.1365
50482SOL     OW63170   4.528  12.793   2.264 -0.5248 -0.0699  0.2352
50482SOL    HW163171   4.530  12.888   2.276  0.4746 -0.1375  0.7513
50482SOL    HW263172   4.477  12.760   2.338 -0.0912  0.0059  0.5731
50483SOL     OW63173  11.230   5.855  11.070 -0.4775  1.0595 -0.1648
50483SOL    HW163174  11.272   5.923  11.122  0.0425  1.7394 -1.4279
50483SOL    HW263175  11.262   5.773  11.107  0.2349  1.5348  0.2947
50484SOL     OW63176  11.668   9.868   5.114 -0.0852 -0.3520  0.1358
50484SOL    HW163177  11.637   9.818   5.039 -0.1150 -2.1221  1.2829
50484SOL    HW263178  11.591   9.880   5.170  0.2485 -0.4148  0.6199
50485SOL     OW63179   1.325  12.457   7.770 -0.2452 -0.2666  0.0853
50485SOL    HW163180   1.311  12.458   7.865 -2.0505 -1.7484 -0.1223
50485SOL    HW263181   1.317  12.365   7.745 -0.8295  0.2165 -1.6612
50486SOL     OW63182   0.500   7.754  11.592 -0.1463  0.0512  0.0480
50486SOL    HW163183   0.410   7.729  11.571  0.1526 -1.2190  0.1828
50486SOL    HW263184   0.522   7.823  11.530 -0.7798 -0.5314 -0.8364
50487SOL     OW63185   9.042  11.866   8.531  1.1431 -0.2411 -0.1432
50487SOL    HW163186   9.101  11.809   8.482  2.0212  1.8226 -1.6630
50487SOL    HW263187   8.960  11.864   8.482  1.3907  0.2750 -0.5978
50488SOL     OW63188  12.859   5.617  11.714  0.1211 -0.3331  0.1410
50488SOL    HW163189  12.791   5.683  11.727 -1.5379 -1.6308 -1.4413
50488SOL    HW263190  12.841   5.551  11.782  0.6001 -0.0891  0.5123
50489SOL     OW63191   8.565   6.401  10.429 -0.0467 -0.0427 -0.7166
50489SOL    HW163192   8.486   6.347  10.435 -0.6004  0.7179 -1.0030
50489SOL    HW263193   8.626   6.349  10.377 -0.7552 -0.1932 -1.4146
50490SOL     OW63194   8.493   1.532   2.346 -0.6532 -0.5139  0.2703
50490SOL    HW163195   8.493   1.627   2.359 -1.1148 -0.3212 -0.9979
50490SOL    HW263196   8.571   1.515   2.293 -0.6127 -0.8332  0.4321
50491SOL     OW63197  10.902   1.631   7.660 -0.6607  0.0499 -0.2661
50491SOL    HW163198  10.837   1.562   7.673  0.0521 -0.3531  1.2641
50491SOL    HW263199  10.854   1.712   7.680 -0.4730 -0.3152  1.8327
50492SOL     OW63200   2.212  13.611   3.191  0.5085  0.2014 -0.0020
50492SOL    HW163201   2.126  13.648   3.212  1.5662  1.4646  2.4725
50492SOL    HW263202   2.207  13.592   3.097 -2.5142  0.0119  0.0859
50493SOL     OW63203  10.521   2.940  13.432 -0.1827 -0.5348  0.2211
50493SOL    HW163204  10.472   2.955  13.351 -0.7319  0.1765  0.6774
50493SOL    HW263205  10.612   2.956  13.409 -0.5834  2.2809  0.3479
50494SOL     OW63206   6.026   3.636   0.854 -0.1302  0.1211  0.5106
50494SOL    HW163207   6.120   3.651   0.845  0.1637 -0.7104  1.8726
50494SOL    HW263208   5.990   3.722   0.875  0.7399  0.0423  2.6326
50495SOL     OW63209   0.014   1.632  10.210 -0.0400 -0.0698 -0.5581
50495SOL    HW163210  -0.061   1.629  10.270 -0.9537 -1.0015 -1.6977
50495SOL    HW263211   0.090   1.644  10.267 -0.9615 -0.0815  0.7094
50496SOL     OW63212   6.154  11.509   4.900 -0.3268  0.4090 -0.6756
50496SOL    HW163213   6.143  11.416   4.882 -2.6457  0.8028 -1.5958
50496SOL    HW263214   6.156  11.515   4.995 -0.6325 -0.5296 -0.6033
50497SOL     OW63215   1.711   5.981   6.915 -0.6121  0.1485 -0.8652
50497SOL    HW163216   1.680   6.026   6.994  0.1444 -0.1664 -0.3748
50497SOL    HW263217   1.805   6.001   6.913 -0.6199  0.1025 -1.6577
50498SOL     OW63218   4.494   6.114  10.380 -0.0244 -0.5845  0.4440
50498SOL    HW163219   4.521   6.085  10.293 -1.0762  0.2065 -0.1653
50498SOL    HW263220   4.490   6.209  10.374  1.7610 -0.3471  1.9463
50499SOL     OW63221  12.945   0.902   4.722 -0.0239  0.4792 -0.6493
50499SOL    HW163222  12.963   0.977   4.779  0.1464  0.6878 -0.9737
50499SOL    HW263223  13.010   0.837   4.748 -2.1251 -0.8167  1.8515
50500SOL     OW63224  13.593  12.803   6.014 -0.1475  0.0913 -0.6616
50500SOL    HW163225  13.557  12.839   6.095 -1.4952  2.9500 -2.3755
50500SOL    HW263226  13.669  12.858   5.996  2.2560 -2.6700  0.2691
50501SOL     OW63227   4.752   9.722   0.698 -0.2219  0.5795 -0.1236
50501SOL    HW163228   4.845   9.718   0.718 -0.4245  1.4248  1.1657
50501SOL    HW263229   4.734   9.643   0.648  0.7602 -0.7444  1.4998
50502SOL     OW63230  13.706  10.828   7.834 -0.1733 -0.0836 -0.3552
50502SOL    HW163231  13.790  10.808   7.792 -0.9188 -1.5377 -1.2700
50502SOL    HW263232  13.642  10.777   7.783 -1.3365 -0.7297  1.6345
50503SOL     OW63233   5.943   1.783  10.456 -0.0705 -0.1464 -0.4015
50503SOL    HW163234   5.868   1.826  10.495  0.6878  0.9261 -0.0617
50503SOL    HW263235   5.942   1.695  10.491 -0.9924 -0.0532 -0.1727
50504SOL     OW63236   0.727   2.937  10.991  0.3934  0.2619 -0.4679
50504SOL    HW163237   0.667   2.886  10.937 -1.9139  1.6197  0.6701
50504SOL    HW263238   0.800   2.878  11.009 -1.8963 -2.4956  0.3948
50505SOL     OW63239   5.768   0.056   6.909  0.3165 -0.1257  0.0821
50505SOL    HW163240   5.792  -0.020   6.963 -0.9474 -0.5753  0.0294
50505SOL    HW263241   5.815   0.129   6.950  1.3662 -0.8721  0.2713
50506SOL     OW63242  12.961  11.279   9.857 -0.1429  0.2911  0.1058
50506SOL    HW163243  12.920  11.206   9.903 -0.3860 -2.7819 -4.4052
50506SOL    HW263244  12.888  11.324   9.814  0.4160 -0.2825 -1.5221
50507SOL     OW63245   5.579   0.312  13.088  0.6980 -0.3732 -0.2956
50507SOL    HW163246   5.550   0.360  13.011 -1.3753 -0.9687  0.0647
50507SOL    HW263247   5.518   0.238  13.095  0.5944 -0.1352  2.1034
50508SOL     OW63248   1.731   9.071   3.019 -0.1620  0.3623 -0.6941
50508SOL    HW163249   1.817   9.037   2.992 -0.6933 -1.5840 -0.0708
50508SOL    HW263250   1.709   9.022   3.098 -2.0802  0.4658 -1.1206
50509SOL     OW63251   0.628   0.223  12.794  0.0242 -0.2024 -0.4475
50509SOL    HW163252   0.591   0.306  12.825  0.1910  0.2708 -1.4765
50509SOL    HW263253   0.723   0.238  12.794  0.2249 -1.1303  1.3810
50510SOL     OW63254   4.023   9.484   5.077  0.0246  0.4511 -0.1293
50510SOL    HW163255   4.007   9.397   5.040  0.5315  0.6877 -0.9419
50510SOL    HW263256   4.039   9.468   5.170  0.4146 -0.3661 -0.3232
50511SOL     OW63257  10.833   6.189  11.046  0.2224 -0.2757 -0.0077
50511SOL    HW163258  10.913   6.235  11.020  0.9333 -0.8359  1.0845
50511SOL    HW263259  10.832   6.195  11.141 -0.7751 -0.7141  0.0209
50512SOL     OW63260   9.893   7.297   2.538 -0.0864 -0.3753  0.2863
50512SOL    HW163261   9.939   7.226   2.494  1.4554 -0.5348  2.0535
50512SOL    HW263262   9.946   7.375   2.520 -0.6162 -0.0441  0.1262
50513SOL     OW63263  12.650  11.389   3.276 -0.2123 -0.1266 -0.0286
50513SOL    HW163264  12.666  11.336   3.198  1.1599  1.1203 -0.6262
50513SOL    HW263265  12.567  11.355   3.311 -0.6963 -0.9186 -1.8317
50514SOL     OW63266   1.897   4.597   2.757 -0.4128  0.1463 -0.3092
50514SOL    HW163267   1.833   4.653   2.801 -0.8719 -0.3179 -0.3843
50514SOL    HW263268   1.881   4.509   2.790 -1.2573 -0.3443 -1.9117
50515SOL     OW63269   1.802   1.860  10.481 -0.5463 -0.2700 -0.0532
50515SOL    HW163270   1.717   1.856  10.437 -1.2757  1.5047  1.0897
50515SOL    HW263271   1.825   1.952  10.481  1.4126 -0.7164 -0.3333
50516SOL     OW63272   3.885   7.366  11.491  0.2177 -0.5554 -0.1540
50516SOL    HW163273   3.851   7.287  11.532 -1.5631  1.1291  1.8882
50516SOL    HW263274   3.963   7.389  11.543  0.4703 -0.7098 -0.4604
50517SOL     OW63275   0.521  11.165   2.123 -0.3652 -0.0148  0.1325
50517SOL    HW163276   0.464  11.241   2.109  0.0180  0.2355 -0.0975
50517SOL    HW263277   0.570  11.187   2.202 -1.7908 -0.9756  1.3342
50518SOL     OW63278  11.494   8.317   2.060 -0.4384  0.8218  0.2978
50518SOL    HW163279  11.573   8.266   2.038 -1.2721 -0.4115  0.0679
50518SOL    HW263280  11.496   8.322   2.156 -0.4094  0.2249  0.3380
50519SOL     OW63281   3.755   3.338   7.429  0.3474  0.0077 -0.1606
50519SOL    HW163282   3.788   3.423   7.401 -0.8399 -0.0253 -1.8075
50519SOL    HW263283   3.682   3.320   7.370  0.9748 -2.4464 -0.3252
50520SOL     OW63284  11.135  12.702   7.782 -0.4464 -0.4534 -0.1182
50520SOL    HW163285  11.105  12.753   7.857  0.5508 -2.2858  1.6406
50520SOL    HW263286  11.197  12.639   7.819 -1.4133 -2.7958 -2.1569
50521SOL     OW63287   2.223  12.307  12.399  0.1222 -0.4349  0.0364
50521SOL    HW163288   2.152  12.254  12.436 -1.1509  1.5629  0.6256
50521SOL    HW263289   2.282  12.323  12.473  0.3682 -0.7861 -0.0805
50522SOL     OW63290   7.142  12.708   2.240 -0.4999  0.2223  0.2357
50522SOL    HW163291   7.213  12.742   2.187 -0.2403  0.9568  1.0437
50522SOL    HW263292   7.093  12.785   2.269 -1.1768 -0.2231  0.3151
50523SOL     OW63293   8.670  11.760  12.200 -0.0250 -0.5004  0.2646
50523SOL    HW163294   8.628  11.786  12.282 -0.8232  0.4277 -0.4187
50523SOL    HW263295   8.671  11.840  12.147  0.5430 -1.0712 -0.6135
50524SOL     OW63296   2.256  13.074  10.086 -0.0365  0.0122 -0.4047
50524SOL    HW163297   2.161  13.083  10.099 -0.0934 -1.6850  0.6664
50524SOL    HW263298   2.295  13.117  10.163  0.0914  0.9711 -0.9928
50525SOL     OW63299  10.399   3.134   1.296 -0.2967  0.3916  0.4257
50525SOL    HW163300  10.360   3.047   1.304 -0.1759 -0.1126 -2.9881
50525SOL    HW263301  10.491   3.118   1.276  0.2144  1.4015  1.8191
50526SOL     OW63302   0.699   5.495   0.659  0.5932  0.2806  0.4379
50526SOL    HW163303   0.787   5.476   0.690  0.8184 -1.0476 -0.9144
50526SOL    HW263304   0.687   5.439   0.582 -1.2922  0.7042  0.3603
50527SOL     OW63305   4.325  13.739   6.029  0.6932 -0.3767  0.2878
50527SOL    HW163306   4.383  13.666   6.051  2.5677  0.8867 -0.2148
50527SOL    HW263307   4.247  13.698   5.992  0.6938 -2.2014  2.1593
50528SOL     OW63308  12.875   2.890   6.239 -0.1953 -0.1275 -0.8652
50528SOL    HW163309  12.913   2.877   6.325 -0.8324  2.6176 -0.0684
50528SOL    HW263310  12.781   2.898   6.255 -0.4087 -0.3533 -1.9180
50529SOL     OW63311   8.711   5.808  12.698 -0.2240  0.1182  0.5482
50529SOL    HW163312   8.648   5.745  12.662  0.0003 -1.2316  2.3894
50529SOL    HW263313   8.673   5.893  12.678 -1.9140 -0.6492  0.3190
50530SOL     OW63314   8.225   3.880  13.744 -0.4747 -0.0777 -0.1897
50530SOL    HW163315   8.291   3.811  13.755 -0.6828 -0.2592 -0.0673
50530SOL    HW263316   8.152   3.852  13.800 -0.0750  0.8586  0.8264
50531SOL     OW63317   6.160   0.373   8.595  0.0163  0.3750 -0.1677
50531SOL    HW163318   6.130   0.302   8.653 -0.3462  0.0649 -0.7320
50531SOL    HW263319   6.085   0.391   8.538  0.2061  1.0192 -0.2207
50532SOL     OW63320  11.770   5.109   7.789 -0.3304 -0.8548  0.1647
50532SOL    HW163321  11.771   5.036   7.850 -0.7643  0.3472  1.6890
50532SOL    HW263322  11.857   5.108   7.748 -0.2902 -2.1126  0.2555
50533SOL     OW63323   2.670   8.223   3.983  0.3827 -0.5951  0.0092
50533SOL    HW163324   2.596   8.284   3.984  0.1930 -0.6995 -2.2919
50533SOL    HW263325   2.674   8.189   4.072 -0.4627  1.6218  0.9769
50534SOL     OW63326  12.972  11.834   9.357  0.5446  0.0513 -0.1032
50534SOL    HW163327  13.001  11.743   9.354 -0.7674 -0.3571 -2.9106
50534SOL    HW263328  13.013  11.876   9.281  0.3057  1.5618  0.5566
50535SOL     OW63329   3.985  11.239  13.294 -0.2470  0.4536  0.2440
50535SOL    HW163330   3.968  11.173  13.361  1.1228  0.5400  0.7167
50535SOL    HW263331   4.052  11.199  13.238 -0.6455  0.7779 -0.4689
50536SOL     OW63332   4.863   0.192   6.720  0.8662 -0.0135  0.2531
50536SOL    HW163333   4.772   0.199   6.691 -0.1519  1.0205  3.2636
50536SOL    HW263334   4.864   0.113   6.775  0.8677  1.6239  2.7810
50537SOL     OW63335  13.579   9.050  10.654  0.0783  0.2296 -0.5154
50537SOL    HW163336  13.631   9.044  10.574 -1.4305  1.4714 -1.6491
50537SOL    HW263337  13.491   9.024  10.627 -0.5766  1.1906  0.6026
50538SOL     OW63338   4.125   0.271   6.054  0.0685 -0.1543 -0.3191
50538SOL    HW163339   4.037   0.282   6.017  1.2469  0.1167 -3.3121
50538SOL    HW263340   4.128   0.180   6.082 -1.3415  0.0080  0.5088
50539SOL     OW63341  11.788   2.148   2.501 -0.0522 -0.5838 -0.6037
50539SOL    HW163342  11.788   2.074   2.441  0.4495  1.5724 -3.4215
50539SOL    HW263343  11.764   2.223   2.447  0.0098  1.4463  2.0035
50540SOL     OW63344   7.893   5.022   8.970 -0.5299  0.3722  0.2111
50540SOL    HW163345   7.822   5.035   8.908 -0.1813  1.2334 -0.0167
50540SOL    HW263346   7.870   4.942   9.017 -0.7669 -0.3425 -1.0772
50541SOL     OW63347   1.038   7.787   3.923  0.2105  0.0570  0.5013
50541SOL    HW163348   0.972   7.768   3.990 -0.0483 -0.5722  0.0726
50541SOL    HW263349   1.095   7.853   3.964 -0.8912  0.8803  0.7408
50542SOL     OW63350  10.608  13.509  11.114  0.4181 -0.9426 -0.1959
50542SOL    HW163351  10.648  13.522  11.200 -1.3286  1.4851  0.3736
50542SOL    HW263352  10.514  13.522  11.129 -0.0529 -1.5345 -2.2952
50543SOL     OW63353   7.541   5.228   8.442  0.2225  0.1656 -0.3399
50543SOL    HW163354   7.482   5.213   8.516 -0.1542  1.4361 -0.3534
50543SOL    HW263355   7.610   5.285   8.478  0.5888 -0.0358 -0.7135
50544SOL     OW63356   6.241   8.396  12.594  0.4364  0.3497 -0.1153
50544SOL    HW163357   6.200   8.366  12.513  0.0199  1.8560 -0.4999
50544SOL    HW263358   6.171   8.443  12.640  0.6966 -0.3872  1.0785
50545SOL     OW63359  12.577   8.458   6.730 -0.2887  0.4915  0.2761
50545SOL    HW163360  12.532   8.463   6.815  0.1403  0.4867  0.5074
50545SOL    HW263361  12.642   8.529   6.734  0.0263  0.2105  0.1274
50546SOL     OW63362   6.721   7.324  11.135 -0.6582  0.2831 -0.2527
50546SOL    HW163363   6.688   7.404  11.093 -0.5534 -0.2491 -1.3892
50546SOL    HW263364   6.801   7.352  11.180 -1.3249  1.0766  0.4752
50547SOL     OW63365   3.944   0.131  10.979 -0.0463 -0.5842 -0.3657
50547SOL    HW163366   3.856   0.153  10.949  0.5592  1.4846 -0.7884
50547SOL    HW263367   3.996   0.128  10.899  0.4769 -0.7294 -0.0232
50548SOL     OW63368   2.322  12.756   8.998 -0.2513  0.0024  0.0527
50548SOL    HW163369   2.395  12.816   8.980  0.6380 -0.7278  1.1010
50548SOL    HW263370   2.248  12.794   8.950  0.4938  1.4626 -0.0139
50549SOL     OW63371   8.388   5.369   9.339 -0.3553 -0.3769  0.1049
50549SOL    HW163372   8.480   5.394   9.336 -0.3423  0.4087  3.1730
50549SOL    HW263373   8.342   5.442   9.298  0.2689  0.4864  0.8908
50550SOL     OW63374  11.458  11.420   9.656 -0.5151  0.2313 -0.5017
50550SOL    HW163375  11.370  11.392   9.678 -0.7770 -0.1264 -1.8787
50550SOL    HW263376  11.486  11.359   9.587  1.1624 -0.2529  0.5411
50551SOL     OW63377  11.561   7.392  10.412 -0.4436 -0.1985  0.3280
50551SOL    HW163378  11.640   7.430  10.374 -0.4125 -0.5289  0.0583
50551SOL    HW263379  11.548   7.310  10.364 -2.7662  1.3413 -1.9259
50552SOL     OW63380   5.817   5.632  10.435  0.1724 -0.0910 -0.2109
50552SOL    HW163381   5.842   5.722  10.414 -0.1413  0.0017 -0.2070
50552SOL    HW263382   5.738   5.642  10.488  0.9597 -0.3165  1.0370
50553SOL     OW63383   3.202   9.420  12.272 -0.4855  0.0851 -0.2368
50553SOL    HW163384   3.196   9.491  12.209 -1.2182  1.3524  1.2083
50553SOL    HW263385   3.247   9.459  12.348  0.4807 -1.4220  0.0134
50554SOL     OW63386   3.505   8.016   6.803 -0.3106  0.6385  0.1098
50554SOL    HW163387   3.598   7.997   6.807 -0.2083  1.0287 -0.2847
50554SOL    HW263388   3.462   7.930   6.807  0.0608  0.4648  0.3455
50555SOL     OW63389   7.541   5.868   7.394 -0.0780 -0.4770 -0.1422
50555SOL    HW163390   7.518   5.870   7.301 -0.2407  1.4910 -0.1040
50555SOL    HW263391   7.637   5.866   7.394  0.0801  2.4349 -0.4642
50556SOL     OW63392   8.029   8.897   7.107 -0.2498  0.3101  0.2965
50556SOL    HW163393   8.020   8.873   7.199 -0.8425  0.0972  0.1866
50556SOL    HW263394   8.072   8.822   7.067 -1.7764 -0.4404  0.0232
50557SOL     OW63395   2.926  11.378   2.504  0.5996 -0.2346  0.1394
50557SOL    HW163396   2.996  11.390   2.441  2.2140 -0.1688  1.8602
50557SOL    HW263397   2.908  11.284   2.503 -1.6904  0.0823 -2.6552
50558SOL     OW63398  10.276   9.715   6.453  0.0668 -0.1087 -0.1567
50558SOL    HW163399  10.267   9.622   6.430  1.9567  0.0210 -1.7021
50558SOL    HW263400  10.195   9.755   6.420 -0.6683 -1.1271  0.3144
50559SOL     OW63401   4.600   2.376  13.630  0.2463  0.1739 -0.1437
50559SOL    HW163402   4.675   2.345  13.682  1.6749  1.3248 -1.4072
50559SOL    HW263403   4.571   2.299  13.581 -1.7827 -1.2181  2.9427
50560SOL     OW63404   7.327  13.027   8.065 -0.1275  0.2445  0.0650
50560SOL    HW163405   7.274  13.098   8.028 -0.9447  0.3543  1.3636
50560SOL    HW263406   7.377  12.993   7.992 -1.4815  0.6189 -1.0797
50561SOL     OW63407   8.152   4.217   3.834  0.7450  0.0888  0.2401
50561SOL    HW163408   8.153   4.305   3.795  1.0709  0.3000  0.7235
50561SOL    HW263409   8.241   4.184   3.820  1.0528  0.4211  1.3873
50562SOL     OW63410   0.154   1.594   1.329  0.3604 -0.2387 -0.0224
50562SOL    HW163411   0.208   1.568   1.404  1.3295  1.1582 -0.2003
50562SOL    HW263412   0.073   1.627   1.368 -0.2792 -2.0118  0.2640
50563SOL     OW63413   9.864  10.435   7.889 -0.2619  0.2873 -0.1090
50563SOL    HW163414   9.890  10.466   7.975  0.6434  3.8998 -1.5007
50563SOL    HW263415   9.944  10.436   7.837 -1.1807  0.4824 -1.6045
50564SOL     OW63416   2.865  12.200   3.620  0.3025  0.6726  0.1334
50564SOL    HW163417   2.804  12.141   3.664  0.9402  2.0275  3.0596
50564SOL    HW263418   2.939  12.144   3.596 -1.5201 -0.8079 -2.6491
50565SOL     OW63419   7.786   9.446   0.628  0.0482  0.3155  0.3365
50565SOL    HW163420   7.762   9.363   0.669 -0.0584 -0.0795 -0.5183
50565SOL    HW263421   7.771   9.511   0.697  0.0908 -0.3599  0.9990
50566SOL     OW63422   3.562  10.900   8.887  0.3856 -0.0793  0.1004
50566SOL    HW163423   3.481  10.869   8.929  0.0328 -0.5635 -0.9100
50566SOL    HW263424   3.631  10.844   8.923 -0.2019 -1.9528 -1.5002
50567SOL     OW63425   8.624   8.907  13.074 -0.4920  0.0634 -0.3404
50567SOL    HW163426   8.556   8.846  13.044  1.5212 -2.1623 -0.7289
50567SOL    HW263427   8.695   8.897  13.010  1.0556  0.6603  1.1969
50568SOL     OW63428  12.664  12.416   9.966  0.7260 -0.6142  0.0759
50568SOL    HW163429  12.651  12.511   9.969  1.2983 -0.4969 -0.8143
50568SOL    HW263430  12.656  12.388  10.058 -2.4739 -0.1608  0.0589
50569SOL     OW63431   7.683   9.235  11.383 -0.1401 -0.0480  0.4799
50569SOL    HW163432   7.677   9.309  11.322  0.9916  0.3758  0.8633
50569SOL    HW263433   7.771   9.200  11.369 -0.0423 -0.2460  1.5203
50570SOL     OW63434   1.326   8.110   5.316  0.2636  0.2095  0.5653
50570SOL    HW163435   1.370   8.090   5.234 -0.0895 -1.3969  0.7220
50570SOL    HW263436   1.243   8.150   5.290  0.5755  0.6080  0.1755
50571SOL     OW63437   9.111  10.725   1.459  0.0179 -0.0464 -0.1918
50571SOL    HW163438   9.122  10.808   1.412 -0.0975  0.0882  0.0179
50571SOL    HW263439   9.098  10.660   1.390  0.2582  0.0853 -0.3620
50572SOL     OW63440  10.805   2.089   9.648  0.0558  0.0625  0.7017
50572SOL    HW163441  10.720   2.097   9.691 -0.0918  2.0389  0.1505
50572SOL    HW263442  10.852   2.168   9.674  0.4704  0.6301 -1.5964
50573SOL     OW63443   3.151   4.922   9.898  0.1466  0.1007  0.0264
50573SOL    HW163444   3.230   4.971   9.921 -0.8637  1.8675 -0.0713
50573SOL    HW263445   3.167   4.892   9.808 -0.0621  2.2167 -0.7746
50574SOL     OW63446  11.896  13.325   4.851 -1.0956 -0.2115 -0.0767
50574SOL    HW163447  11.975  13.377   4.841 -1.6328  0.5890 -0.1990
50574SOL    HW263448  11.922  13.237   4.823 -0.1084 -0.0908  0.4146
50575SOL     OW63449   1.189   7.178  13.417 -0.2983  0.0586  0.4559
50575SOL    HW163450   1.235   7.176  13.334 -0.2375  1.4464  0.4361
50575SOL    HW263451   1.254   7.207  13.481 -1.1328  2.3133  0.3825
50576SOL     OW63452   1.475   9.263   1.615  0.4933 -0.1135 -0.1678
50576SOL    HW163453   1.520   9.199   1.560  1.1122 -0.2429  0.4798
50576SOL    HW263454   1.385   9.231   1.620  0.5411 -0.3470 -0.7284
50577SOL     OW63455   9.433   4.756   1.230  0.2628  0.6920  0.4787
50577SOL    HW163456   9.376   4.681   1.243  0.6682  0.4198  0.7293
50577SOL    HW263457   9.397   4.801   1.153 -0.3800  0.6230  0.7352
50578SOL     OW63458   0.433   0.417   1.654  0.9062 -0.1491  0.8129
50578SOL    HW163459   0.494   0.476   1.610  0.2854 -0.0853  0.0029
50578SOL    HW263460   0.349   0.464   1.654  0.5253 -0.8071  0.6242
50579SOL     OW63461   5.403   1.457  13.006 -0.0526  0.4157 -0.2677
50579SOL    HW163462   5.475   1.451  12.944  0.1365  1.0166 -0.1099
50579SOL    HW263463   5.386   1.366  13.031  0.2212  0.2145 -0.7896
50580SOL     OW63464   6.371   9.728  11.510 -0.5231  0.0609  0.5543
50580SOL    HW163465   6.320   9.657  11.470 -1.5491  0.5925  0.8972
50580SOL    HW263466   6.322   9.751  11.589  1.0527 -0.4453  1.7448
50581SOL     OW63467  10.204   6.395   1.397 -0.5399 -0.2579  0.2585
50581SOL    HW163468  10.274   6.357   1.345  0.6211  2.1142 -0.0438
50581SOL    HW263469  10.157   6.453   1.337  1.6481  3.5947  1.9301
50582SOL     OW63470   1.146   1.489  12.649  0.5708 -0.0535  0.9163
50582SOL    HW163471   1.202   1.522  12.720  2.1062 -0.1918 -0.1744
50582SOL    HW263472   1.177   1.400  12.634 -0.3456 -0.3369  0.6439
50583SOL     OW63473  12.901   4.556   9.312 -0.4930 -0.3780 -0.1200
50583SOL    HW163474  12.898   4.504   9.393 -0.5689  0.4530  0.4300
50583SOL    HW263475  12.817   4.601   9.310 -0.2912 -0.0069 -0.3971
50584SOL     OW63476   5.171   5.299   8.150 -0.1958 -0.3306  0.3739
50584SOL    HW163477   5.232   5.284   8.077  0.0567 -1.2950  0.7617
50584SOL    HW263478   5.228   5.310   8.226 -0.3874  2.1904  0.2317
50585SOL     OW63479   1.897   9.074   6.776 -0.9257  0.9377  0.0880
50585SOL    HW163480   1.855   8.995   6.746 -0.3277  0.2495  0.9942
50585SOL    HW263481   1.976   9.044   6.821 -1.3700  1.9379  1.6203
50586SOL     OW63482   5.613   1.374   9.513 -0.5388  0.4361 -0.2214
50586SOL    HW163483   5.573   1.371   9.600  0.7109 -0.0594  0.3642
50586SOL    HW263484   5.694   1.324   9.523 -0.0384  0.9722 -1.4962
50587SOL     OW63485   1.708  12.691   4.825 -0.1540 -0.1565 -0.0385
50587SOL    HW163486   1.681  12.670   4.736  0.3936 -2.0200  0.1807
50587SOL    HW263487   1.629  12.722   4.869 -0.6257 -0.0961 -0.9251
50588SOL     OW63488  10.965   1.069  10.019  0.0026  0.3969 -0.1060
50588SOL    HW163489  11.005   1.155  10.036  0.8360  0.0962 -0.4863
50588SOL    HW263490  10.991   1.048   9.929 -0.1527 -0.2709 -0.0012
50589SOL     OW63491   2.401   2.484   5.394 -0.1427  0.2680  0.1269
50589SOL    HW163492   2.339   2.413   5.382  0.1405 -0.3999  2.3188
50589SOL    HW263493   2.487   2.443   5.387  0.2615  1.3074 -3.7330
50590SOL     OW63494   0.905   4.175   7.120 -0.7196 -0.0569  0.3099
50590SOL    HW163495   0.957   4.236   7.173 -0.4483 -0.4477  0.4933
50590SOL    HW263496   0.840   4.231   7.077 -0.6532  0.3271  0.6992
50591SOL     OW63497   4.838  12.207   2.063 -0.1648 -0.1225  0.1227
50591SOL    HW163498   4.750  12.232   2.091 -1.6130 -0.1017 -3.8617
50591SOL    HW263499   4.851  12.120   2.100 -1.9499 -0.2136  0.6245
50592SOL     OW63500  13.620   7.733   0.099  0.4066  0.1908  0.6968
50592SOL    HW163501  13.609   7.643   0.132  0.3545 -0.8951 -1.9685
50592SOL    HW263502  13.715   7.744   0.091  0.3923 -0.4627 -0.8448
50593SOL     OW63503   9.618   8.073   0.155 -0.6110  0.3114 -0.5274
50593SOL    HW163504   9.609   8.002   0.091 -1.7747  0.8103 -0.9440
50593SOL    HW263505   9.528   8.103   0.170 -0.2953  0.5932  0.9005
50594SOL     OW63506   5.686   0.138   9.978  0.2645  0.2936  0.2014
50594SOL    HW163507   5.599   0.150   9.941 -0.2441 -2.2910  0.3828
50594SOL    HW263508   5.671   0.132  10.073  0.7349  0.4552  0.2911
50595SOL     OW63509   4.949  12.014  10.976  0.3250  0.6875 -0.3305
50595SOL    HW163510   4.857  12.022  11.001  0.6509  1.2424  0.7575
50595SOL    HW263511   4.994  12.085  11.023  1.1630  1.0898 -1.6691
50596SOL     OW63512   3.093   5.558   2.032 -0.2480 -0.1381  0.3710
50596SOL    HW163513   3.032   5.631   2.023  1.4610  1.2229 -1.2423
50596SOL    HW263514   3.180   5.600   2.033  0.8089 -2.1418 -0.8420
50597SOL     OW63515   4.443  11.273  10.907 -0.2929 -0.1240  0.0079
50597SOL    HW163516   4.446  11.365  10.933 -0.9819  0.1489 -0.8096
50597SOL    HW263517   4.444  11.224  10.989 -0.4234  0.6262  0.4628
50598SOL     OW63518   8.056   9.171   7.149 -0.1252 -0.1181 -0.1936
50598SOL    HW163519   8.041   9.078   7.136 -1.1488  0.2905 -2.3026
50598SOL    HW263520   8.007   9.193   7.229 -1.3396 -1.0449 -0.6641
50599SOL     OW63521   9.318   9.165   8.930 -0.8184  0.0706  0.0325
50599SOL    HW163522   9.347   9.103   8.997  1.4022  1.5964  0.5774
50599SOL    HW263523   9.310   9.112   8.851 -1.9220 -1.4595  1.1067
50600SOL     OW63524  11.002   1.039   0.934  0.1200  0.1385  0.4295
50600SOL    HW163525  11.063   1.005   1.000  0.1883  0.7345  0.6820
50600SOL    HW263526  10.962   0.961   0.896 -0.1982 -0.2179  1.4423
50601SOL     OW63527   4.954   4.920   7.943 -0.2562 -0.1491  0.1929
50601SOL    HW163528   4.998   4.981   8.002 -0.2050  1.4804 -1.4618
50601SOL    HW263529   5.023   4.887   7.886 -0.5544 -0.5585  0.0625
50602SOL     OW63530   5.897   7.458   9.625 -0.4589  0.3009 -0.5058
50602SOL    HW163531   5.964   7.520   9.654  0.3209 -1.5589  2.0685
50602SOL    HW263532   5.943   7.398   9.566 -0.4920  0.5093 -0.7420
50603SOL     OW63533   8.130   7.901   4.949  0.0754  0.4852 -0.1156
50603SOL    HW163534   8.176   7.984   4.935  0.3046  0.2174 -0.9790
50603SOL    HW263535   8.154   7.847   4.874 -0.5428 -0.1564  0.1394
50604SOL     OW63536  11.087   9.192  11.349  0.0320 -0.3725  0.1817
50604SOL    HW163537  11.109   9.161  11.437  0.2357 -1.0959 -0.1163
50604SOL    HW263538  11.169   9.230  11.316  0.3377 -1.3363 -0.2035
50605SOL     OW63539   3.343   6.492  12.923 -0.0751  0.5577  0.0503
50605SOL    HW163540   3.352   6.422  12.859 -0.8243  0.7296 -0.2610
50605SOL    HW263541   3.352   6.448  13.008 -1.2704 -0.0562 -0.1209
50606SOL     OW63542   2.527   1.167   9.861 -0.3025  0.4179  0.2923
50606SOL    HW163543   2.535   1.221   9.782  0.4628  1.4206  1.0411
50606SOL    HW263544   2.440   1.128   9.854  0.1773 -0.4733 -1.6384
50607SOL     OW63545  11.480  10.220  13.147 -0.2617  0.1234  0.2000
50607SOL    HW163546  11.417  10.213  13.218 -2.0871  1.4200 -1.1829
50607SOL    HW263547  11.566  10.214  13.189 -1.2515  1.4150  2.5767
50608SOL     OW63548  12.253   9.441   8.316 -0.5987 -0.1971 -0.6061
50608SOL    HW163549  12.277   9.534   8.325 -0.4932 -0.0818 -1.8183
50608SOL    HW263550  12.312   9.395   8.376  0.2781  0.4078 -0.9724
50609SOL     OW63551  13.313   4.923  11.002  0.0695  0.1157  0.4890
50609SOL    HW163552  13.244   4.856  11.000 -0.3475  0.5479 -0.1295
50609SOL    HW263553  13.392   4.877  10.975  0.0503 -0.4117  1.3122
50610SOL     OW63554  13.039   9.624   4.598  0.1170 -0.1599 -0.4365
50610SOL    HW163555  12.992   9.668   4.669  0.1005 -2.2467  0.9491
50610SOL    HW263556  13.124   9.601   4.636  0.1719 -1.1583 -1.1163
50611SOL     OW63557   7.301   5.762  12.604  0.0672 -0.1263 -0.1302
50611SOL    HW163558   7.381   5.773  12.552 -1.0710 -0.5014 -2.0983
50611SOL    HW263559   7.315   5.681  12.653  0.4382 -0.8931 -1.4425
50612SOL     OW63560   4.190   1.459  11.738 -0.2450  0.4643  0.1080
50612SOL    HW163561   4.193   1.481  11.645  0.6124  0.1588  0.0572
50612SOL    HW263562   4.145   1.375  11.741  1.7700 -0.6972 -0.2776
50613SOL     OW63563   0.841  10.796   5.383  0.9086 -0.1093  0.1143
50613SOL    HW163564   0.889  10.731   5.435  0.5530 -1.0902 -0.7474
50613SOL    HW263565   0.764  10.817   5.436  0.1296 -1.6991 -0.3234
50614SOL     OW63566  12.217   0.406   5.710  0.1828 -0.1147 -0.0489
50614SOL    HW163567  12.286   0.419   5.645  1.9513 -1.5975  1.4040
50614SOL    HW263568  12.210   0.491   5.755  1.5127 -0.1131  0.1818
50615SOL     OW63569   3.780  10.122   9.432  0.1870  0.3701  0.6769
50615SOL    HW163570   3.828  10.039   9.436 -1.6331 -0.9442 -1.7320
50615SOL    HW263571   3.727  10.122   9.512  0.7305 -0.4658  1.0553
50616SOL     OW63572   5.603   5.695  10.613 -0.3497 -0.4856 -0.0467
50616SOL    HW163573   5.574   5.783  10.589 -0.1360 -0.4480 -0.1696
50616SOL    HW263574   5.672   5.710  10.678 -0.6606 -0.5772  0.3127
50617SOL     OW63575  10.466   9.968   5.312 -0.2931 -0.1730  0.1727
50617SOL    HW163576  10.543  10.000   5.359 -1.3500  1.6294  0.7543
50617SOL    HW263577  10.392  10.005   5.359 -1.4742 -0.6370 -1.2599
50618SOL     OW63578   6.810   2.800   0.877 -0.4184  0.1813  0.1818
50618SOL    HW163579   6.844   2.868   0.819  2.6052  0.9097  2.5548
50618SOL    HW263580   6.757   2.848   0.941  0.5754  0.1717  1.0391
50619SOL     OW63581  11.529   7.839  11.136 -0.7293  0.4795 -0.0394
50619SOL    HW163582  11.520   7.754  11.094 -2.0177  0.9909 -0.8736
50619SOL    HW263583  11.619   7.842  11.167 -0.9662 -1.6459  1.0509
50620SOL     OW63584   7.296   4.890   2.054  0.2864  0.0209  0.5713
50620SOL    HW163585   7.238   4.955   2.015 -1.5884 -1.0137  1.5047
50620SOL    HW263586   7.286   4.903   2.149  1.3544 -0.4064  0.7582
50621SOL     OW63587  12.074   9.787   3.754 -0.0412 -0.3164  0.6736
50621SOL    HW163588  12.055   9.854   3.689 -0.8296 -0.9765  0.1876
50621SOL    HW263589  11.988   9.762   3.787 -0.0651 -2.8312 -0.9803
50622SOL     OW63590   7.355   7.886   0.403  0.0861 -0.0177  0.3145
50622SOL    HW163591   7.327   7.972   0.371  1.9728  0.7434  0.5851
50622SOL    HW263592   7.374   7.837   0.323 -0.1138  0.1302  0.1730
50623SOL     OW63593   6.745   8.065  13.175  0.1192 -0.6379 -0.7759
50623SOL    HW163594   6.731   8.070  13.269  1.2956 -1.6174 -0.5222
50623SOL    HW263595   6.814   8.129  13.158  0.8953 -1.4426 -0.7318
50624SOL     OW63596   0.037  13.734   8.026  0.3959 -0.2174  0.1579
50624SOL    HW163597   0.124  13.772   8.041  0.9918 -0.6262 -1.9173
50624SOL    HW263598   0.039  13.706   7.934 -1.6432 -1.0230  0.3150
50625SOL     OW63599   3.590  10.939   5.979 -0.0724  0.4808 -0.2531
50625SOL    HW163600   3.527  10.946   5.908  0.3305 -1.5451 -0.8564
50625SOL    HW263601   3.657  11.005   5.958 -1.8496  2.6160  0.3629
50626SOL     OW63602   1.697   2.175  10.053  0.3305 -0.0085 -0.1535
50626SOL    HW163603   1.722   2.267  10.061 -0.0963  0.1805 -0.9106
50626SOL    HW263604   1.780   2.129  10.043  0.5326  0.3302 -0.0611
50627SOL     OW63605   5.196  10.698   8.488  0.2007  0.3482 -0.1616
50627SOL    HW163606   5.289  10.697   8.463  0.2655 -2.2545 -0.1661
50627SOL    HW263607   5.150  10.665   8.410 -1.1295  4.0258 -1.1167
50628SOL     OW63608   7.570  10.857   0.928 -0.4764 -0.2403 -0.9190
50628SOL    HW163609   7.631  10.845   1.000 -0.8885  0.0813 -0.5079
50628SOL    HW263610   7.557  10.952   0.924  0.8598 -0.0827 -2.5207
50629SOL     OW63611   5.060  12.023  13.733  0.6453  0.1749  0.2828
50629SOL    HW163612   5.098  12.095  13.684  0.0864  0.3246  0.0599
50629SOL    HW263613   5.075  11.945  13.679 -1.2883  0.5434 -0.9055
50630SOL     OW63614   1.725   4.845   3.581 -0.4375 -0.0493  0.1546
50630SOL    HW163615   1.779   4.771   3.607  0.2069  1.4675  3.7415
50630SOL    HW263616   1.786   4.907   3.542 -0.5831 -0.4534 -0.7398
50631SOL     OW63617  11.889   5.154   1.693  0.3015 -0.1175 -0.6265
50631SOL    HW163618  11.889   5.245   1.663  0.7916 -0.5402 -1.9600
50631SOL    HW263619  11.929   5.158   1.780 -1.5303  1.1880  0.2184
50632SOL     OW63620   7.202   8.312   4.310 -0.3174  0.2036 -0.1083
50632SOL    HW163621   7.136   8.273   4.252 -0.8028  0.6294  0.1440
50632SOL    HW263622   7.153   8.339   4.388  0.1823  0.3950  0.1470
50633SOL     OW63623  10.576   4.482  12.451  0.0380 -0.2968 -0.0230
50633SOL    HW163624  10.489   4.516  12.472  0.4999  0.7261  0.2965
50633SOL    HW263625  10.598   4.521  12.367 -0.0641 -1.0620 -0.4152
50634SOL     OW63626  13.547   8.075   3.133 -0.2234 -0.3575 -0.3878
50634SOL    HW163627  13.638   8.098   3.153  0.0018 -1.3716 -0.2032
50634SOL    HW263628  13.496   8.127   3.195  0.0115  2.4896 -2.4060
50635SOL     OW63629   4.447   7.159   0.991 -0.2810 -0.0008  0.7757
50635SOL    HW163630   4.412   7.091   1.048  0.5526 -0.2222  1.0372
50635SOL    HW263631   4.381   7.228   0.992 -1.3656 -0.9826  0.1368
50636SOL     OW63632  11.375   1.401   7.057  0.0215  0.0770  0.4518
50636SOL    HW163633  11.337   1.313   7.047  0.4650 -0.1914  1.0632
50636SOL    HW263634  11.469   1.387   7.046 -0.0047  0.6796 -0.6822
50637SOL     OW63635   8.568  11.517  11.138 -0.3104 -0.0370  0.0644
50637SOL    HW163636   8.580  11.422  11.138 -1.6405 -0.2196 -0.2524
50637SOL    HW263637   8.614  11.546  11.217  0.1529 -0.9316  0.1403
50638SOL     OW63638   5.536   5.454   2.992 -0.0261 -0.2632  0.2640
50638SOL    HW163639   5.572   5.528   2.942 -0.9428 -0.4440 -0.7205
50638SOL    HW263640   5.567   5.467   3.081  1.5681  0.1571 -0.3206
50639SOL     OW63641   6.518   7.219   1.289  0.0996  0.3892 -0.7058
50639SOL    HW163642   6.508   7.197   1.196  0.7158 -2.4166 -0.2297
50639SOL    HW263643   6.460   7.158   1.334  0.9049  0.6979  0.8136
50640SOL     OW63644   4.378   0.204   7.740  0.1442 -0.3358 -0.0331
50640SOL    HW163645   4.289   0.207   7.775 -0.2149 -0.7409 -0.8751
50640SOL    HW263646   4.418   0.130   7.784  0.8135  1.1611  2.0043
50641SOL     OW63647   5.057   9.492   4.368  0.0023  0.7242  0.1474
50641SOL    HW163648   4.991   9.429   4.396  0.7446 -0.4863 -0.7004
50641SOL    HW263649   5.101   9.518   4.449  0.4495 -0.7642  0.4258
50642SOL     OW63650   8.102   4.231   1.780 -0.8575 -0.3204  0.0498
50642SOL    HW163651   8.013   4.240   1.813 -1.5997  0.5775 -1.9951
50642SOL    HW263652   8.116   4.310   1.727  0.8865 -0.7758 -0.2394
50643SOL     OW63653   2.877  11.923   0.501  0.1772  0.4734 -0.3883
50643SOL    HW163654   2.916  11.850   0.549 -2.2869 -0.5253  0.2420
50643SOL    HW263655   2.921  11.922   0.416 -0.1322 -2.1028 -0.5895
50644SOL     OW63656  11.278   2.550   2.843 -0.3135  0.3167 -0.1013
50644SOL    HW163657  11.254   2.479   2.784 -0.1063  0.3907 -0.2731
50644SOL    HW263658  11.253   2.518   2.930 -0.4924  0.1552 -0.2117
50645SOL     OW63659   0.334  13.737  13.425 -0.3610 -0.3666 -0.4663
50645SOL    HW163660   0.357  13.645  13.412  0.5131 -0.0164 -1.6087
50645SOL    HW263661   0.334  13.774  13.337 -2.8922  0.2751 -0.2671
50646SOL     OW63662  13.526   4.135   4.764 -0.0284 -0.3123  0.2168
50646SOL    HW163663  13.594   4.127   4.831 -0.3754  0.1276  0.6310
50646SOL    HW263664  13.548   4.216   4.718 -0.8161  0.3789  1.0009
50647SOL     OW63665   0.606   9.049   8.771  0.1494 -0.0350  0.1112
50647SOL    HW163666   0.527   9.075   8.723 -0.6428  1.7384  2.2154
50647SOL    HW263667   0.639   9.130   8.809  0.1101 -1.4117  3.3914
50648SOL     OW63668   5.939   2.635   8.799  0.0418 -0.0220 -0.5947
50648SOL    HW163669   5.906   2.554   8.836  0.0087  0.1909 -0.1483
50648SOL    HW263670   5.973   2.684   8.874 -1.3512  1.0420 -0.6283
50649SOL     OW63671   6.344  12.518   8.641  0.3448 -0.0712 -0.0237
50649SOL    HW163672   6.271  12.575   8.618 -0.7977 -1.3691  0.2046
50649SOL    HW263673   6.419  12.576   8.652 -0.2831  1.1370 -1.8259
50650SOL     OW63674   8.535   7.115   2.050  0.0468  0.5426 -0.3644
50650SOL    HW163675   8.554   7.027   2.084  0.4617  0.5503 -0.5697
50650SOL    HW263676   8.442   7.128   2.068  0.3831  0.8204  1.3627
50651SOL     OW63677   1.197   4.661   6.869 -0.5161  0.0855 -0.3936
50651SOL    HW163678   1.105   4.639   6.860 -0.4646 -0.3679  0.1835
50651SOL    HW263679   1.214   4.723   6.797 -1.0149 -0.6037 -1.1196
50652SOL     OW63680   5.160   1.599   2.547  0.4667  0.3970 -0.0995
50652SOL    HW163681   5.184   1.519   2.500  1.4612  1.1620 -0.9612
50652SOL    HW263682   5.236   1.656   2.537 -0.1506  1.3885  0.6525
50653SOL     OW63683   5.435  11.695   5.105 -0.5080 -0.0640  0.0786
50653SOL    HW163684   5.366  11.737   5.158 -0.1223  0.6640  0.0110
50653SOL    HW263685   5.516  11.711   5.154 -0.3259 -0.5268 -0.0705
50654SOL     OW63686  10.269   5.447   1.721 -0.3590 -0.3194  0.5194
50654SOL    HW163687  10.225   5.363   1.713 -1.1679  0.1716 -0.4061
50654SOL    HW263688  10.252   5.491   1.638 -1.3979  1.4456  1.6003
50655SOL     OW63689  10.649  12.687  10.578 -0.4537  0.3428  0.5013
50655SOL    HW163690  10.569  12.733  10.602 -1.9324  0.9425 -4.3840
50655SOL    HW263691  10.710  12.756  10.554  1.0084 -0.1727  2.4587
50656SOL     OW63692  13.103   2.163   8.949 -0.5464  0.1737  0.0319
50656SOL    HW163693  13.167   2.159   8.878 -2.4134  1.2042 -1.7873
50656SOL    HW263694  13.104   2.254   8.978  0.5946 -0.3316  1.8232
50657SOL     OW63695   9.992   2.943   6.868 -0.3203  0.2180  0.1053
50657SOL    HW163696   9.960   2.866   6.915  1.2080 -0.9701 -0.7164
50657SOL    HW263697  10.073   2.967   6.913  1.1974 -0.9693 -1.8441
50658SOL     OW63698   3.468   7.762   5.015 -0.3692  0.3272  0.3066
50658SOL    HW163699   3.508   7.755   5.101  0.1734 -2.0922 -0.0751
50658SOL    HW263700   3.542   7.778   4.956 -0.6299  1.0694  0.1719
50659SOL     OW63701   6.849   2.226  11.222  0.0569  0.4187  0.0878
50659SOL    HW163702   6.900   2.306  11.207  1.9009 -0.8332 -0.6579
50659SOL    HW263703   6.822   2.200  11.134  1.3459 -0.9201  0.0527
50660SOL     OW63704  13.552  11.807   0.782 -0.2375 -0.1926  0.6836
50660SOL    HW163705  13.479  11.749   0.805 -0.9827 -0.4431 -1.9148
50660SOL    HW263706  13.630  11.754   0.796 -0.8653 -1.6570 -0.9257
50661SOL     OW63707   8.723  10.771   6.622 -0.2280  0.9231 -0.8244
50661SOL    HW163708   8.691  10.759   6.533 -1.6856  1.8574 -0.4636
50661SOL    HW263709   8.667  10.840   6.659 -1.4043 -1.1916  1.6603
50662SOL     OW63710   4.713   3.122  13.115 -0.0208  0.8727 -0.8975
50662SOL    HW163711   4.643   3.140  13.178 -1.3618 -1.7421 -1.4718
50662SOL    HW263712   4.792   3.116  13.168 -0.7599  0.7913  0.2340
50663SOL     OW63713   1.658   2.879  10.503  0.0906 -0.0735 -0.1806
50663SOL    HW163714   1.680   2.918  10.588 -1.1592  1.0758 -0.3450
50663SOL    HW263715   1.611   2.799  10.525  0.9368 -0.4868  0.1834
50664SOL     OW63716   8.594   7.926   9.628  0.3110 -0.3888 -0.0933
50664SOL    HW163717   8.684   7.946   9.603 -0.0160 -1.0437 -1.9061
50664SOL    HW263718   8.574   7.843   9.586 -0.8068 -0.8045  1.1715
50665SOL     OW63719   6.499  12.435  11.973  0.3343  0.3756  0.3756
50665SOL    HW163720   6.440  12.509  11.962  0.4383  0.5499  0.9556
50665SOL    HW263721   6.519  12.434  12.067  2.6238  1.3951 -0.0376
50666SOL     OW63722   3.339   0.311   1.765  0.2515 -0.3022  0.4445
50666SOL    HW163723   3.282   0.266   1.702  0.4740  1.6024 -1.2008
50666SOL    HW263724   3.427   0.296   1.732  0.2647  2.4366 -1.0053
50667SOL     OW63725   5.154   5.343   6.009  0.8391 -0.2226  0.7618
50667SOL    HW163726   5.164   5.398   6.087 -1.2800  0.8516  0.3352
50667SOL    HW263727   5.236   5.356   5.961  1.0622  1.2819  1.4704
50668SOL     OW63728   1.772   9.945  12.855  0.2124  0.2624 -0.0624
50668SOL    HW163729   1.851   9.963  12.906  0.3308 -2.0044  0.6596
50668SOL    HW263730   1.702   9.985  12.906  0.6783  0.6606  0.2836
50669SOL     OW63731   4.252  10.230   4.470  0.4590  0.5887 -0.0480
50669SOL    HW163732   4.192  10.156   4.468 -0.0016  0.9741 -0.8322
50669SOL    HW263733   4.292  10.226   4.557  2.2931 -2.0360 -0.8772
50670SOL     OW63734  10.727   1.782  13.274 -0.2791 -0.5927 -0.4586
50670SOL    HW163735  10.643   1.757  13.235  0.7999 -3.2875 -1.3519
50670SOL    HW263736  10.736   1.723  13.349 -0.0043  0.9981  0.7936
50671SOL     OW63737  10.254   1.032   6.064  0.1741  0.8378  0.1654
50671SOL    HW163738  10.272   1.058   6.154 -1.0969  1.3336  0.3024
50671SOL    HW263739  10.182   1.090   6.036  0.0927  0.2428 -0.9346
50672SOL     OW63740  13.212   8.970   4.672  0.6888 -0.3009  0.5155
50672SOL    HW163741  13.131   8.954   4.719  0.9967  1.8599  1.9387
50672SOL    HW263742  13.187   9.031   4.602  0.7190 -1.3995 -0.4799
50673SOL     OW63743   0.283   5.336  10.636  0.5331 -0.2277 -0.8933
50673SOL    HW163744   0.356   5.275  10.628  0.6129 -0.0684 -1.4271
50673SOL    HW263745   0.324   5.422  10.627  0.5307 -0.0458  0.5909
50674SOL     OW63746   8.498  11.377   8.787  0.0074 -0.2874  0.5455
50674SOL    HW163747   8.550  11.427   8.724 -1.8463  0.1359 -0.7450
50674SOL    HW263748   8.443  11.443   8.830 -0.8222 -0.9340  0.4980
50675SOL     OW63749   7.657  12.644   2.196 -0.1983 -0.2966  0.3043
50675SOL    HW163750   7.718  12.717   2.189  0.6383 -1.0166 -0.2736
50675SOL    HW263751   7.714  12.567   2.207 -0.9774 -1.0341 -0.6495
50676SOL     OW63752  11.535   2.427   3.910  0.4769 -0.7702  0.7624
50676SOL    HW163753  11.450   2.468   3.895 -0.0217 -0.6906  3.4023
50676SOL    HW263754  11.598   2.500   3.903 -0.0600 -0.1437  2.1510
50677SOL     OW63755   1.499   5.253  11.740 -0.0046 -0.1582  0.9125
50677SOL    HW163756   1.568   5.282  11.680 -1.3382  0.9237 -0.1414
50677SOL    HW263757   1.477   5.165  11.710 -0.5309  0.3025 -0.1030
50678SOL     OW63758   9.322   1.334   2.474 -0.0849 -0.0246 -0.0774
50678SOL    HW163759   9.327   1.331   2.378  1.1747 -0.0050 -0.0353
50678SOL    HW263760   9.307   1.243   2.500 -0.2859 -0.0520 -0.2890
50679SOL     OW63761   8.166  11.974   9.278  0.5989 -0.8376  0.5707
50679SOL    HW163762   8.200  11.885   9.291  3.5610  0.3430  1.7782
50679SOL    HW263763   8.239  12.022   9.238 -0.8285  1.1612  0.1883
50680SOL     OW63764   1.404   1.878   6.347  0.5295  0.0127 -0.1208
50680SOL    HW163765   1.429   1.821   6.420  1.5332 -0.8109 -1.0642
50680SOL    HW263766   1.410   1.967   6.382  0.5693 -0.3912  0.9116
50681SOL     OW63767   7.861  12.666   1.597 -0.2294 -0.2362 -0.1526
50681SOL    HW163768   7.938  12.630   1.641 -0.2174 -1.4940 -1.1703
50681SOL    HW263769   7.794  12.599   1.605 -1.4916  1.1178  1.3143
50682SOL     OW63770  10.855   2.169  12.637 -0.3022 -0.4215  0.0611
50682SOL    HW163771  10.836   2.220  12.715 -1.1924  0.0271 -0.4294
50682SOL    HW263772  10.772   2.128  12.614  0.3594 -1.9653  0.3428
50683SOL     OW63773   3.181   7.414   4.199 -0.2751  0.1105  0.2379
50683SOL    HW163774   3.169   7.494   4.250 -1.8040  0.9793 -1.3846
50683SOL    HW263775   3.220   7.443   4.117 -1.5474 -0.6523 -0.6861
50684SOL     OW63776   9.735   1.960  10.442 -0.2776  0.2659 -0.2229
50684SOL    HW163777   9.655   2.000  10.475 -0.0231  0.0659  0.6784
50684SOL    HW263778   9.735   1.872  10.481 -1.2151 -0.9584 -2.7465
50685SOL     OW63779  11.980  11.217   0.216  0.5748  0.1026 -0.2239
50685SOL    HW163780  11.931  11.136   0.230 -2.5207  2.0247  1.1872
50685SOL    HW263781  12.018  11.238   0.301  0.0370  0.9025 -0.1744
50686SOL     OW63782   8.656   2.627  13.358 -0.0624  0.2657  0.0959
50686SOL    HW163783   8.565   2.637  13.386  0.0660 -0.1330  0.6826
50686SOL    HW263784   8.697   2.712  13.375 -0.0539  0.1102  0.9042
50687SOL     OW63785   6.461  12.150   8.057 -0.1734 -0.0397 -0.0148
50687SOL    HW163786   6.470  12.144   8.152 -1.6088  3.4683  0.4934
50687SOL    HW263787   6.546  12.182   8.027  0.3460 -1.3345  0.0024
50688SOL     OW63788   9.494  12.395   5.157 -0.1206  0.3824  0.4503
50688SOL    HW163789   9.582  12.422   5.180 -0.4900  1.5787  0.5338
50688SOL    HW263790   9.451  12.475   5.126 -1.0293 -0.2695 -0.0453
50689SOL     OW63791   1.768   6.291   3.135  0.1024 -0.0071 -0.0405
50689SOL    HW163792   1.772   6.384   3.114  0.3230 -0.0900 -0.3779
50689SOL    HW263793   1.751   6.248   3.051 -0.8594 -0.2129  0.2438
50690SOL     OW63794   1.868   2.300   2.323  0.0901 -0.1795 -0.2994
50690SOL    HW163795   1.886   2.361   2.251  2.9414  0.0880  0.5214
50690SOL    HW263796   1.930   2.228   2.309  0.7531 -0.0973  1.8608
50691SOL     OW63797  13.470   7.749   4.766  0.0160 -0.0350 -0.3134
50691SOL    HW163798  13.495   7.767   4.675 -1.0798  2.3278 -0.2165
50691SOL    HW263799  13.552   7.725   4.809  0.6922 -0.3322 -1.7161
50692SOL     OW63800   0.209  12.330   3.262  0.1619 -0.0884  0.2337
50692SOL    HW163801   0.283  12.390   3.255 -0.3253  0.6034  0.8021
50692SOL    HW263802   0.232  12.272   3.334  0.8438 -0.9108 -0.6215
50693SOL     OW63803   7.864   8.066   9.965 -0.1424 -0.3276  0.1594
50693SOL    HW163804   7.924   8.117   9.910 -2.4170  1.4631 -0.8310
50693SOL    HW263805   7.820   8.131  10.019 -1.2850 -1.5681  0.7713
50694SOL     OW63806   2.024   4.360  11.640  0.8672  0.0672  0.4539
50694SOL    HW163807   1.946   4.362  11.695  0.4732  2.2860 -0.0601
50694SOL    HW263808   2.075   4.436  11.669  2.4261 -0.8525  0.1980
50695SOL     OW63809   0.391   9.546  10.010 -0.1913 -0.5796 -0.0538
50695SOL    HW163810   0.354   9.596   9.937 -0.4783  1.4050  1.3790
50695SOL    HW263811   0.450   9.607  10.054 -0.3724 -1.5664  1.6547
50696SOL     OW63812   3.271   8.927   9.229 -0.2900 -0.2851  0.2973
50696SOL    HW163813   3.334   8.994   9.204  0.1211 -0.5814  0.5250
50696SOL    HW263814   3.191   8.975   9.249  0.2368  0.2072  1.2565
50697SOL     OW63815  13.712   7.256   8.021 -0.5560 -0.5155 -0.2530
50697SOL    HW163816  13.623   7.275   7.989 -0.1364  0.3123 -0.9643
50697SOL    HW263817  13.699   7.226   8.111 -1.5176  0.1028 -0.1739
50698SOL     OW63818   9.609  10.896   8.204  0.3602 -0.3064  0.3349
50698SOL    HW163819   9.674  10.850   8.152  0.4885 -1.1888  1.2346
50698SOL    HW263820   9.645  10.898   8.293  0.0790  1.0136  0.4473
50699SOL     OW63821   5.336   7.728   3.414  0.1374 -0.0337  0.5647
50699SOL    HW163822   5.259   7.718   3.358  1.0921  0.4769 -0.8982
50699SOL    HW263823   5.336   7.650   3.470 -0.6664 -0.7407 -0.3879
50700SOL     OW63824   9.949   0.536   5.368  0.5526 -0.1990  0.5265
50700SOL    HW163825   9.929   0.558   5.277  0.1467 -0.7825  0.4714
50700SOL    HW263826  10.037   0.499   5.365  0.8678  0.5448  0.4896
50701SOL     OW63827  11.727   4.929   7.251  0.2615 -0.3507  0.0795
50701SOL    HW163828  11.799   4.983   7.220 -0.9653  0.6920 -1.0919
50701SOL    HW263829  11.701   4.878   7.174 -0.2547 -0.7077  0.4818
50702SOL     OW63830   0.363   8.043   5.316  0.0781  0.1778 -0.3712
50702SOL    HW163831   0.450   8.069   5.287 -0.2369  1.9529  0.1641
50702SOL    HW263832   0.377   7.963   5.366  1.2483 -0.1529 -1.1954
50703SOL     OW63833   6.794   2.109   6.374  0.2377 -0.0979  0.2720
50703SOL    HW163834   6.736   2.183   6.355 -0.5413 -0.4950  0.9997
50703SOL    HW263835   6.798   2.061   6.291 -2.3270 -1.2814  0.7124
50704SOL     OW63836  13.251  11.788   4.037  0.7067 -0.5495 -0.7595
50704SOL    HW163837  13.167  11.742   4.030  0.6315 -1.0384  2.2500
50704SOL    HW263838  13.311  11.722   4.072  1.2700  0.8721  1.0793
50705SOL     OW63839   1.611  10.209  10.136  0.5468 -0.4653 -0.3253
50705SOL    HW163840   1.685  10.150  10.122  1.6142  0.2545  1.8150
50705SOL    HW263841   1.651  10.289  10.170 -1.3177 -1.0780  3.9640
50706SOL     OW63842   6.948   7.093   5.636  0.5688 -0.3086  0.1068
50706SOL    HW163843   6.878   7.158   5.622  0.7417 -0.0351  0.5063
50706SOL    HW263844   6.999   7.096   5.555  0.9935  0.5713  0.3942
50707SOL     OW63845   9.915   6.952  12.484  0.0158 -0.0190  0.0911
50707SOL    HW163846   9.823   6.949  12.459  0.4221 -2.6296 -1.4715
50707SOL    HW263847   9.954   7.016  12.424 -0.6891  0.9093  0.5920
50708SOL     OW63848   4.388   5.780   5.688 -0.6342  0.1093 -0.2450
50708SOL    HW163849   4.334   5.835   5.746  0.1251 -0.4648  1.0397
50708SOL    HW263850   4.328   5.754   5.618 -1.5529  0.9047  0.2119
50709SOL     OW63851   4.991   3.940  12.114 -1.1943  0.0479  0.4209
50709SOL    HW163852   5.055   3.869  12.115 -1.5056 -0.3439 -1.9301
50709SOL    HW263853   4.906   3.895  12.111 -1.3637  0.3552 -2.9305
50710SOL     OW63854  12.615   7.170  10.326 -0.4280 -0.4170  0.0698
50710SOL    HW163855  12.643   7.079  10.334 -0.8540 -0.4316  2.2453
50710SOL    HW263856  12.669   7.217  10.389 -0.0527  0.9006 -1.1934
50711SOL     OW63857   7.905   8.343   9.429  0.1667  0.1358  0.4733
50711SOL    HW163858   7.974   8.308   9.486  0.8527  1.6221  0.6143
50711SOL    HW263859   7.834   8.365   9.488 -0.0355 -0.4738  0.4572
50712SOL     OW63860  10.894  11.012  12.280  0.1085  0.2452  0.1852
50712SOL    HW163861  10.885  11.037  12.372 -0.6120  1.1361 -0.1051
50712SOL    HW263862  10.950  11.080  12.241 -0.6378  0.6045 -0.2957
50713SOL     OW63863  12.538   4.092   3.975 -0.3873 -0.0426  0.8658
50713SOL    HW163864  12.501   4.107   3.888 -2.2699 -3.8397  0.8276
50713SOL    HW263865  12.494   4.157   4.030 -1.6679  0.2830 -0.4686
50714SOL     OW63866  12.960  12.456   2.306  0.3471  0.0516  0.0833
50714SOL    HW163867  12.908  12.438   2.228  0.0490 -0.7060  0.4466
50714SOL    HW263868  12.938  12.546   2.330 -0.1556  0.0219 -0.2575
50715SOL     OW63869   0.882   0.645   7.923 -0.4957 -0.5802 -0.1621
50715SOL    HW163870   0.906   0.713   7.860 -0.4702  1.9559  2.3866
50715SOL    HW263871   0.787   0.647   7.925 -0.5313 -1.3275 -0.7622
50716SOL     OW63872   3.103   1.894  12.840  0.0444  0.1723 -0.5785
50716SOL    HW163873   3.193   1.889  12.874  0.3450  1.6520 -1.0950
50716SOL    HW263874   3.048   1.874  12.915  0.7818  0.3568  0.0290
50717SOL     OW63875   7.939  13.254   3.415 -0.3567  0.0208 -0.0180
50717SOL    HW163876   7.922  13.279   3.506 -1.0481  0.2977 -0.2139
50717SOL    HW263877   8.031  13.227   3.414 -0.6822 -1.2334  1.0330
50718SOL     OW63878   8.005   0.394   3.271 -0.5505  0.1133 -0.1750
50718SOL    HW163879   8.044   0.426   3.352  1.3797 -0.3081 -0.8796
50718SOL    HW263880   8.053   0.438   3.201 -1.5703 -0.1980 -1.1160
50719SOL     OW63881   7.301  11.539   6.502 -0.2563 -0.1570  0.1636
50719SOL    HW163882   7.254  11.603   6.555 -0.4697 -2.4102  2.9005
50719SOL    HW263883   7.244  11.524   6.426 -0.6881  2.0260 -0.0003
50720SOL     OW63884   7.516   0.119   4.738 -0.1457 -0.2779  0.0494
50720SOL    HW163885   7.496   0.095   4.648 -1.4818 -0.6099  0.4042
50720SOL    HW263886   7.560   0.204   4.732 -0.8689  0.0473 -0.8824
50721SOL     OW63887   3.874   2.546  13.058  0.2559  0.7306 -0.0146
50721SOL    HW163888   3.922   2.537  13.140  0.3227 -0.5907 -0.1755
50721SOL    HW263889   3.925   2.608  13.006  1.0243  0.4253  0.3677
50722SOL     OW63890   1.793   9.952   1.651 -0.7152 -0.0486  0.2096
50722SOL    HW163891   1.880   9.917   1.671 -1.4082 -2.2553 -0.3564
50722SOL    HW263892   1.776  10.017   1.720  1.7960  1.3018 -0.3196
50723SOL     OW63893   7.612  10.985   9.129  0.4042  0.3853 -0.3132
50723SOL    HW163894   7.642  10.928   9.200 -0.4659 -0.9908 -0.9920
50723SOL    HW263895   7.578  11.063   9.173 -0.1730 -0.4647  0.8025
50724SOL     OW63896   5.470  10.812   6.450  0.1850  0.2044  0.1133
50724SOL    HW163897   5.527  10.856   6.386 -0.8414  1.6730  0.1414
50724SOL    HW263898   5.470  10.720   6.423 -0.1993  0.7625 -2.0309
50725SOL     OW63899   1.462   9.079  12.745  0.2827 -0.4348 -0.0123
50725SOL    HW163900   1.406   9.004  12.724  0.3712 -0.1799 -1.2362
50725SOL    HW263901   1.512   9.095  12.665  0.3147  0.8841  0.2506
50726SOL     OW63902   2.155  13.346   9.787 -0.3286 -0.0630 -0.1565
50726SOL    HW163903   2.164  13.336   9.692  0.9937 -2.6320  0.1617
50726SOL    HW263904   2.102  13.271   9.814 -1.8344  1.3568  1.0339
50727SOL     OW63905  11.091  11.401   5.011 -0.1871  0.7305 -0.3226
50727SOL    HW163906  11.146  11.330   5.044 -2.3805 -1.7163 -1.6222
50727SOL    HW263907  11.114  11.410   4.919  0.8078  2.5511  0.0397
50728SOL     OW63908   1.806  12.444  12.521  0.0449  0.1596 -0.1143
50728SOL    HW163909   1.796  12.513  12.455 -1.7947 -0.9392 -1.0767
50728SOL    HW263910   1.896  12.412  12.509 -0.1308  0.2032 -1.9336
50729SOL     OW63911   4.525  11.654   0.006 -0.0609  0.3899 -0.1587
50729SOL    HW163912   4.484  11.626   0.088 -0.2577  0.3779 -0.2605
50729SOL    HW263913   4.585  11.724   0.031 -2.1702  2.3643 -0.3568
50730SOL     OW63914   0.387   3.117  10.317 -0.2523 -0.0243 -0.4422
50730SOL    HW163915   0.423   3.154  10.397 -0.6626  0.1840 -0.3506
50730SOL    HW263916   0.384   3.190  10.255  1.3002 -0.4692 -1.0928
50731SOL     OW63917  12.959  13.560   2.277  0.1276  0.3529 -0.1010
50731SOL    HW163918  12.986  13.514   2.357 -1.0698 -0.9310 -0.3976
50731SOL    HW263919  12.908  13.634   2.309 -0.7801 -0.4402  0.3447
50732SOL     OW63920   0.491   8.132  13.225  0.0691  0.3574  0.6970
50732SOL    HW163921   0.434   8.207  13.209 -1.4109 -0.5074  1.6307
50732SOL    HW263922   0.441   8.076  13.284  1.8624 -0.5118  1.4844
50733SOL     OW63923  11.044  13.151  10.986  0.2489  0.1673  0.8509
50733SOL    HW163924  11.045  13.129  11.079 -0.1256  0.1755  0.8576
50733SOL    HW263925  11.001  13.077  10.944  1.5809 -0.4419  0.5252
50734SOL     OW63926   1.770   6.665   8.292 -0.2947  0.3880  0.1772
50734SOL    HW163927   1.691   6.720   8.293 -1.1647 -0.8125 -0.0074
50734SOL    HW263928   1.796   6.660   8.384 -0.0933  1.2391  0.1793
50735SOL     OW63929  10.785   3.325   5.564 -0.0654  0.6209  0.3890
50735SOL    HW163930  10.710   3.341   5.622 -1.1082  0.7012 -0.9295
50735SOL    HW263931  10.840   3.403   5.573 -1.8854  2.1844 -1.1661
50736SOL     OW63932  10.602   2.484   4.285  0.2622  0.9322  0.3096
50736SOL    HW163933  10.689   2.520   4.265  1.2198  0.3740  3.0521
50736SOL    HW263934  10.555   2.489   4.202  3.0663  0.7581 -1.4400
50737SOL     OW63935   4.852   3.109   6.020 -0.3829  0.9316  0.4114
50737SOL    HW163936   4.815   3.028   5.984 -0.1589  1.9630 -2.3634
50737SOL    HW263937   4.790   3.135   6.088 -1.7544 -0.3165 -0.3056
50738SOL     OW63938   3.170  12.366   9.848 -0.3456  0.0621 -0.1801
50738SOL    HW163939   3.098  12.422   9.877 -1.1721 -1.5324  1.0175
50738SOL    HW263940   3.244  12.426   9.837 -1.1730  1.3904  1.0925
50739SOL     OW63941   8.765   4.342   4.993 -0.0546  0.1840  0.1384
50739SOL    HW163942   8.762   4.421   4.939  0.1127  0.3475  0.3671
50739SOL    HW263943   8.857   4.317   4.995 -0.1029 -0.0092  0.0835
50740SOL     OW63944  10.467   3.053   0.218 -0.4791  0.3075 -0.9088
50740SOL    HW163945  10.486   3.041   0.125  1.5423 -1.2171 -0.3729
50740SOL    HW263946  10.415   3.134   0.222  1.2013  1.6119 -3.1669
50741SOL     OW63947   8.312   4.518  10.410  0.2084 -0.2114 -0.3621
50741SOL    HW163948   8.325   4.423  10.412  0.7607 -0.1312 -0.0384
50741SOL    HW263949   8.235   4.533  10.465  0.7385 -0.3795  0.4472
50742SOL     OW63950   5.697  12.469  10.439 -0.0164 -0.1256 -0.4803
50742SOL    HW163951   5.789  12.469  10.468  0.0296  0.2274 -0.6103
50742SOL    HW263952   5.668  12.379  10.450  0.4279 -0.2990 -0.6924
50743SOL     OW63953  10.351  10.184   2.874 -0.5378 -0.0573  0.3621
50743SOL    HW163954  10.327  10.256   2.815  2.8541  0.1616 -1.0142
50743SOL    HW263955  10.363  10.109   2.817  3.0717  0.2121  0.5036
50744SOL     OW63956  13.193   4.887  13.393  0.0764  0.3038 -0.1139
50744SOL    HW163957  13.284   4.890  13.424 -0.0727  1.0903  0.2617
50744SOL    HW263958  13.146   4.842  13.464 -0.0598  1.0750  0.2877
50745SOL     OW63959   0.151   8.437   1.864  0.0873  0.0621 -0.6403
50745SOL    HW163960   0.207   8.397   1.798  1.1794  1.4561 -0.6035
50745SOL    HW263961   0.162   8.381   1.942  0.1397 -0.5996 -1.1136
50746SOL     OW63962   6.287   6.428   6.267 -0.4778 -0.0025  0.4950
50746SOL    HW163963   6.379   6.452   6.280 -0.5501  0.9970 -0.7099
50746SOL    HW263964   6.238   6.494   6.315 -0.6194  1.0489 -1.0478
50747SOL     OW63965  10.553  10.908  11.287 -0.6312 -0.1681  0.0690
50747SOL    HW163966  10.488  10.976  11.267  0.9488  1.8603  1.4445
50747SOL    HW263967  10.637  10.951  11.278  0.4665 -2.0620  0.6877
50748SOL     OW63968   0.666   7.470  12.647 -0.2611  0.1494  0.1899
50748SOL    HW163969   0.658   7.551  12.698  0.5656  0.0920  0.4209
50748SOL    HW263970   0.684   7.500  12.558 -2.1016  0.2604 -0.1850
50749SOL     OW63971   7.919  10.664   2.343 -0.2506 -0.2128 -0.4709
50749SOL    HW163972   7.876  10.732   2.396  0.3243  0.5716 -0.9963
50749SOL    HW263973   7.957  10.712   2.270 -0.1778 -1.1680 -1.0635
50750SOL     OW63974  10.250  10.373   5.031 -0.1113  0.0528 -0.4776
50750SOL    HW163975  10.257  10.364   5.126 -0.2866 -0.0586 -0.4752
50750SOL    HW263976  10.205  10.456   5.018  2.4418  1.5401 -0.5197
50751SOL     OW63977   7.209  11.336   4.741 -0.5901 -0.1467  0.5943
50751SOL    HW163978   7.125  11.376   4.765 -0.0532  0.1128  2.2352
50751SOL    HW263979   7.273  11.383   4.795  0.7845  0.4353 -1.4202
50752SOL     OW63980   9.003   1.312   8.752 -0.4767 -0.2361  0.5013
50752SOL    HW163981   8.978   1.367   8.827 -0.4386  1.3898 -0.6226
50752SOL    HW263982   9.092   1.340   8.730 -0.4803 -0.7107 -0.1414
50753SOL     OW63983   1.015   6.616   2.051 -0.0065  0.2676 -0.0751
50753SOL    HW163984   0.938   6.562   2.068  1.6011 -2.4385 -0.7329
50753SOL    HW263985   0.979   6.702   2.029 -2.8064 -0.7587  0.0112
50754SOL     OW63986  12.544  12.167  12.706 -0.2786 -0.0316 -0.6147
50754SOL    HW163987  12.550  12.158  12.801  2.1498 -1.4467 -0.8297
50754SOL    HW263988  12.606  12.236  12.685 -0.2536 -0.2408 -1.2385
50755SOL     OW63989   0.150   2.002   2.136  0.1106 -0.4103  0.4692
50755SOL    HW163990   0.203   1.934   2.095 -0.3165 -0.4856  0.0321
50755SOL    HW263991   0.060   1.978   2.116 -0.0528  0.1967  0.4414
50756SOL     OW63992   1.455   6.165  10.695  0.5326 -0.0955  1.0294
50756SOL    HW163993   1.454   6.261  10.701 -0.5801 -0.0640  0.6331
50756SOL    HW263994   1.417   6.136  10.778  0.1894 -0.1645  0.8499
50757SOL     OW63995   2.761   8.241   2.007  0.1658  0.1431  0.3308
50757SOL    HW163996   2.816   8.283   1.942  1.1992 -0.2156  0.9414
50757SOL    HW263997   2.680   8.290   2.006 -0.4804 -0.8238 -2.3520
50758SOL     OW63998  10.514   9.186   5.714  0.7730 -0.3020 -0.0421
50758SOL    HW163999  10.515   9.222   5.803 -0.9501  0.6651 -0.3686
50758SOL    HW264000  10.585   9.122   5.713  2.1732  1.1231  1.4183
50759SOL     OW64001   2.113   0.756   3.946 -0.0529  0.2082 -0.1251
50759SOL    HW164002   2.037   0.750   3.888 -0.7157 -0.5650  0.7996
50759SOL    HW264003   2.156   0.838   3.920 -0.9120  0.4028 -0.9950
50760SOL     OW64004  10.922   0.231   3.545 -0.1679  0.3807 -0.6609
50760SOL    HW164005  10.946   0.193   3.460 -1.8451  1.2367 -1.5721
50760SOL    HW264006  11.006   0.257   3.584  0.6241  0.2140 -2.1789
50761SOL     OW64007   4.780  11.441   0.370 -0.3425  0.2254  0.0291
50761SOL    HW164008   4.717  11.447   0.441  0.3171  0.7695  0.5722
50761SOL    HW264009   4.750  11.367   0.317 -1.3317  0.3746  0.3773
50762SOL     OW64010   2.304   3.949  11.242 -0.0135 -0.1462  0.0794
50762SOL    HW164011   2.345   3.988  11.165 -0.8574 -1.1247 -0.8950
50762SOL    HW264012   2.210   3.954  11.225 -0.2938  0.9092  1.7020
50763SOL     OW64013   3.014  12.502  10.954 -0.3312  0.4304 -0.5508
50763SOL    HW164014   2.973  12.450  10.885 -0.1504  1.2633 -1.3077
50763SOL    HW264015   3.098  12.459  10.969 -1.3220 -1.1503  0.8448
50764SOL     OW64016   1.653   6.973   0.672  0.0981  0.1304  0.3366
50764SOL    HW164017   1.697   7.010   0.748 -0.3901  0.8658  0.2673
50764SOL    HW264018   1.646   7.046   0.610  0.7689 -0.5260 -0.5519
50765SOL     OW64019  11.160  12.359  11.924  0.5883  0.2128 -0.5076
50765SOL    HW164020  11.217  12.381  11.850  1.6272  0.8424  0.4332
50765SOL    HW264021  11.193  12.414  11.996 -0.7869  0.0807  0.2597
50766SOL     OW64022  13.279   5.100   6.817  0.5944 -0.5318  0.4004
50766SOL    HW164023  13.374   5.097   6.827  0.5491 -0.5193  0.8751
50766SOL    HW264024  13.246   5.040   6.884  0.2646 -0.4764  0.2906
50767SOL     OW64025   4.518  10.402   7.865  0.4084 -0.1577 -0.1943
50767SOL    HW164026   4.559  10.360   7.789 -0.4624 -0.1556 -0.6825
50767SOL    HW264027   4.587  10.458   7.902  1.1922 -1.0387 -0.2903
50768SOL     OW64028  11.845  10.174   0.593  0.4428  0.1973  0.5280
50768SOL    HW164029  11.775  10.222   0.638  0.4784  2.4010 -1.5455
50768SOL    HW264030  11.926  10.206   0.634  0.4051  1.1152 -0.0749
50769SOL     OW64031  12.729   2.663  10.983 -0.5209  0.0826 -0.1722
50769SOL    HW164032  12.720   2.758  10.982 -1.4240  0.0039 -1.0128
50769SOL    HW264033  12.759   2.641  10.894  0.4136 -0.3656  0.2364
50770SOL     OW64034   4.853  13.737   2.184  0.5517 -0.0254 -0.1153
50770SOL    HW164035   4.762  13.745   2.156  0.6021 -1.4773 -0.7710
50770SOL    HW264036   4.851  13.676   2.258  1.1716 -1.7123 -1.4160
50771SOL     OW64037  10.625   7.794   6.160 -0.4490 -0.2975 -0.3028
50771SOL    HW164038  10.614   7.711   6.208 -2.0825 -0.7768 -1.4229
50771SOL    HW264039  10.609   7.862   6.226  0.6235 -0.8436  0.5640
50772SOL     OW64040   9.676   3.661   3.061 -0.2966 -0.3302  0.4247
50772SOL    HW164041   9.589   3.630   3.088 -0.2573 -0.6942  0.1424
50772SOL    HW264042   9.708   3.709   3.137 -1.6372  1.7495 -0.2219
50773SOL     OW64043   5.644   6.804  11.141  0.4035 -0.2624  0.7211
50773SOL    HW164044   5.660   6.717  11.105 -0.9299 -0.8554  1.4786
50773SOL    HW264045   5.564   6.794  11.192 -1.0121  1.8873 -0.8795
50774SOL     OW64046  11.660  10.951   7.102  0.0830  0.5131  0.1809
50774SOL    HW164047  11.579  10.982   7.143 -1.2871  0.3700 -2.2142
50774SOL    HW264048  11.660  10.993   7.016  0.1425 -2.9866 -1.7224
50775SOL     OW64049   4.762   6.728   6.427 -0.4500  0.1295 -0.1608
50775SOL    HW164050   4.839   6.672   6.434 -0.4818 -0.1642 -1.8580
50775SOL    HW264051   4.691   6.676   6.464 -0.3650 -0.7270 -1.1780
50776SOL     OW64052   6.699   4.660   3.702 -0.0202 -0.2566  0.2532
50776SOL    HW164053   6.625   4.720   3.699 -0.4331 -0.6895  1.2813
50776SOL    HW264054   6.663   4.579   3.738  0.9159 -0.5237  0.6204
50777SOL     OW64055   6.449   9.301  13.355 -0.5558 -0.2573  0.2901
50777SOL    HW164056   6.493   9.217  13.343  0.7515  0.5507 -1.0514
50777SOL    HW264057   6.510   9.352  13.408 -1.1017  0.0148  0.6611
50778SOL     OW64058   6.337   1.503   9.217  0.0780  0.1609  0.7006
50778SOL    HW164059   6.275   1.522   9.287  0.5471  1.5204  0.7717
50778SOL    HW264060   6.390   1.582   9.209  0.4596 -0.2027 -0.7513
50779SOL     OW64061  11.893   3.301  12.799  0.2092  0.4857 -0.1204
50779SOL    HW164062  11.894   3.263  12.711 -0.3754  1.7253 -0.6961
50779SOL    HW264063  11.858   3.232  12.855  0.4576 -0.2771 -0.8741
50780SOL     OW64064   5.463   0.680   6.069  0.3819 -0.0383  0.0456
50780SOL    HW164065   5.392   0.662   6.131 -0.1170  1.0168 -0.1959
50780SOL    HW264066   5.429   0.750   6.013  1.0878 -0.5073 -0.9860
50781SOL     OW64067  10.583   9.042   7.708  0.1506  0.5115 -0.5688
50781SOL    HW164068  10.607   9.130   7.735 -4.2351  1.6326  0.5060
50781SOL    HW264069  10.575   8.993   7.789  2.5375 -1.0047 -1.1534
50782SOL     OW64070   2.905   0.537  10.570 -0.4537 -0.3129  0.1436
50782SOL    HW164071   2.987   0.578  10.543 -0.4758 -1.2386 -1.4478
50782SOL    HW264072   2.931   0.471  10.634 -0.1099  0.2620  0.6040
50783SOL     OW64073   1.991   5.549   8.209  0.3262  0.2791 -0.3378
50783SOL    HW164074   1.984   5.556   8.114  1.0374  0.4159 -0.3848
50783SOL    HW264075   1.906   5.580   8.241  0.4433  1.2233 -0.8874
50784SOL     OW64076  12.150   3.874   2.569  0.1288 -0.7535  0.4191
50784SOL    HW164077  12.091   3.944   2.596 -1.8413 -1.8168 -0.9144
50784SOL    HW264078  12.095   3.796   2.566  1.8433 -2.0191  0.0583
50785SOL     OW64079   4.447  11.435   7.044  0.2490  0.2957  0.3234
50785SOL    HW164080   4.468  11.342   7.053 -2.2160 -0.6078 -2.1137
50785SOL    HW264081   4.408  11.459   7.128 -1.1449 -1.4960  0.2278
50786SOL     OW64082   0.296   9.582   0.875 -0.1588 -0.5685 -0.4023
50786SOL    HW164083   0.248   9.629   0.943  3.9174 -0.9244  3.1557
50786SOL    HW264084   0.230   9.530   0.830 -3.3340  0.6622  2.4323
50787SOL     OW64085  10.560   4.681   3.393  0.1388 -0.1698 -0.3417
50787SOL    HW164086  10.496   4.646   3.331 -0.7329 -0.9089  0.9308
50787SOL    HW264087  10.508   4.735   3.453  1.2404  2.1660 -1.3731
50788SOL     OW64088   3.203   8.566  11.596  0.2269  0.4420  0.3077
50788SOL    HW164089   3.269   8.636  11.599  0.4173  0.2913 -0.1297
50788SOL    HW264090   3.143   8.593  11.526 -0.1437  0.5471  0.6647
50789SOL     OW64091   8.432  10.075   8.891  0.3585 -0.1823  0.4888
50789SOL    HW164092   8.436  10.078   8.986 -2.6217  1.8786  0.7119
50789SOL    HW264093   8.467  10.159   8.863  0.2933 -0.3708 -0.1755
50790SOL     OW64094  11.577  10.542  10.723 -0.0091  0.4169  0.0148
50790SOL    HW164095  11.483  10.557  10.712 -0.5338 -2.2516  0.1668
50790SOL    HW264096  11.595  10.462  10.673  1.9013  0.0840  1.1233
50791SOL     OW64097   8.383   7.974   9.273 -0.6136 -0.9863  0.1824
50791SOL    HW164098   8.303   8.006   9.232 -1.6838 -1.0128  2.1168
50791SOL    HW264099   8.420   7.913   9.210 -1.0915  0.4438 -1.5456
50792SOL     OW64100   3.162   5.808   6.231 -0.3459  0.1044 -0.2763
50792SOL    HW164101   3.207   5.792   6.148  1.5468 -1.6465  0.9708
50792SOL    HW264102   3.158   5.722   6.272 -1.2768  0.9272  1.4307
50793SOL     OW64103   1.235  12.960  13.293 -0.1376  0.3756  0.1141
50793SOL    HW164104   1.330  12.960  13.291 -0.0554 -2.1103  0.5279
50793SOL    HW264105   1.211  12.873  13.327 -2.5343 -0.3474 -2.8479
50794SOL     OW64106   1.345   3.045   9.880 -0.4732  0.5173  0.7322
50794SOL    HW164107   1.256   3.076   9.864 -0.5703  0.0034  0.2191
50794SOL    HW264108   1.398   3.090   9.815 -0.7138 -0.8265 -0.4497
50795SOL     OW64109  10.736   7.181  12.213  0.6648  0.3605  0.2112
50795SOL    HW164110  10.811   7.125  12.195 -0.0364 -1.0799  1.5161
50795SOL    HW264111  10.773   7.264  12.243  1.7439  0.9505 -2.4405
50796SOL     OW64112   2.382  13.420  10.865 -0.0699 -0.4275 -0.7288
50796SOL    HW164113   2.441  13.409  10.790 -0.1227  0.7175 -0.9568
50796SOL    HW264114   2.331  13.498  10.845  0.9698  0.8260  1.1662
50797SOL     OW64115   1.608   5.845   1.711 -0.3053 -0.1700  0.1580
50797SOL    HW164116   1.656   5.928   1.717  0.8328 -0.8496  0.6980
50797SOL    HW264117   1.664   5.781   1.755 -1.4254 -1.1243  0.2627
50798SOL     OW64118   8.688   4.151   2.586  0.8775 -0.3856  0.2437
50798SOL    HW164119   8.765   4.189   2.543  0.8698  0.4532  0.9386
50798SOL    HW264120   8.662   4.078   2.530 -0.3430  1.8334 -2.2870
50799SOL     OW64121   3.638   7.346  11.319 -0.0538 -0.0325 -0.0313
50799SOL    HW164122   3.560   7.372  11.367  0.6787 -0.2890  1.3642
50799SOL    HW264123   3.710   7.362  11.381  0.8519 -1.0596 -0.7864
50800SOL     OW64124   7.415  10.946  11.998 -0.1127  0.5595  0.1630
50800SOL    HW164125   7.432  10.855  11.972 -0.1813  1.0929 -1.8547
50800SOL    HW264126   7.330  10.967  11.961  1.1060  2.2975 -1.8582
50801SOL     OW64127  11.224   0.959   0.164 -0.0979 -0.1581 -0.0651
50801SOL    HW164128  11.149   1.002   0.204  0.5118 -0.5071  1.5492
50801SOL    HW264129  11.188   0.914   0.087 -1.8632 -1.5974  1.5102
50802SOL     OW64130   3.260  10.678  11.074  0.1938  0.0100 -0.1168
50802SOL    HW164131   3.280  10.772  11.073  0.0278  0.0418 -0.3746
50802SOL    HW264132   3.165  10.674  11.065  0.1290 -0.1619  0.5531
50803SOL     OW64133   1.478   3.372   4.541 -0.1629 -0.0172  0.2408
50803SOL    HW164134   1.461   3.436   4.610  1.1394  0.1941  0.3976
50803SOL    HW264135   1.558   3.404   4.499  0.4489 -1.4799  0.2458
50804SOL     OW64136   6.610   7.625   5.261 -0.2323 -0.0384 -0.2511
50804SOL    HW164137   6.561   7.573   5.196 -0.7107  1.0093 -0.7487
50804SOL    HW264138   6.694   7.580   5.269 -0.2410 -0.3100 -1.4525
50805SOL     OW64139  13.184  12.641   6.465 -0.4826 -0.0987 -0.3316
50805SOL    HW164140  13.279  12.648   6.455 -0.6737  1.0963 -1.5174
50805SOL    HW264141  13.172  12.619   6.558  0.9739 -1.3472 -0.3959
50806SOL     OW64142   3.627   9.847   9.334 -0.1874 -0.3257  0.1251
50806SOL    HW164143   3.612   9.935   9.299 -0.2526 -1.1681 -2.1287
50806SOL    HW264144   3.695   9.859   9.400 -1.2554  1.6113  0.9742
50807SOL     OW64145   6.378   7.046  12.619 -0.0505 -0.1423 -0.5820
50807SOL    HW164146   6.344   7.136  12.612 -1.2480 -0.3184  1.7204
50807SOL    HW264147   6.400   7.021  12.530  0.6236  2.5544 -1.2562
50808SOL     OW64148  11.405   0.759   1.139  0.0702 -0.1404 -0.0509
50808SOL    HW164149  11.397   0.778   1.046 -1.0779 -1.7387 -0.3203
50808SOL    HW264150  11.469   0.688   1.144  0.7777  0.5161  0.4787
50809SOL     OW64151  11.237   6.217   5.710 -0.4667 -0.4833 -0.1458
50809SOL    HW164152  11.279   6.131   5.699 -1.3148 -1.0089  0.5556
50809SOL    HW264153  11.267   6.247   5.796 -1.2689 -0.7255  0.2271
50810SOL     OW64154  13.057   5.871   6.999  0.2307  0.5823  0.4631
50810SOL    HW164155  13.055   5.813   6.922 -1.3024  1.7609 -0.4555
50810SOL    HW264156  13.072   5.959   6.962 -1.9763  1.3735  1.3133
50811SOL     OW64157   8.565   7.941   2.289 -0.7662 -0.2931 -0.5720
50811SOL    HW164158   8.553   8.009   2.356 -3.9636 -1.1377 -0.1196
50811SOL    HW264159   8.618   7.874   2.332 -0.8117  0.2240  0.3185
50812SOL     OW64160  12.674   9.309  11.496  0.5910 -0.5892 -0.7243
50812SOL    HW164161  12.627   9.392  11.499 -0.3217 -1.1187  1.0033
50812SOL    HW264162  12.682   9.288  11.403  0.4258  1.1832 -1.1660
50813SOL     OW64163   9.514   8.052  12.019 -0.1207 -0.5183 -0.2686
50813SOL    HW164164   9.544   8.050  12.110  0.4055 -0.2494 -0.4309
50813SOL    HW264165   9.532   8.142  11.990 -2.7923  0.2583  0.1866
50814SOL     OW64166  11.575   3.290   1.050  0.4294  0.1662 -0.0945
50814SOL    HW164167  11.595   3.372   1.005 -0.5026  0.9973  0.9447
50814SOL    HW264168  11.501   3.312   1.107  0.4380 -1.2963  0.5052
50815SOL     OW64169   6.445  11.767  13.498  0.2005  0.4028 -0.6878
50815SOL    HW164170   6.393  11.701  13.543 -0.9572  0.3196 -2.0766
50815SOL    HW264171   6.516  11.718  13.456 -0.3668  0.1003 -1.3004
50816SOL     OW64172   9.619   9.525  12.644 -0.0228  0.0537 -0.7110
50816SOL    HW164173   9.524   9.519  12.654 -0.0855 -0.1596 -1.4455
50816SOL    HW264174   9.641   9.610  12.684 -0.2735 -0.6966  1.1350
50817SOL     OW64175   2.222   2.177  12.694  0.0054  0.2833 -0.2229
50817SOL    HW164176   2.220   2.161  12.789  0.0919 -1.4713 -0.4831
50817SOL    HW264177   2.165   2.253  12.682  0.0702  0.6006  1.2527
50818SOL     OW64178   8.647   7.776   8.622  0.2976  0.3378  0.0329
50818SOL    HW164179   8.714   7.842   8.601 -0.9084  1.9926  1.1063
50818SOL    HW264180   8.697   7.703   8.658  1.5621  1.5642  0.9079
50819SOL     OW64181   0.518   2.428   0.998  0.3476  0.2092  0.2000
50819SOL    HW164182   0.492   2.396   1.084  0.7733 -1.0602 -0.1169
50819SOL    HW264183   0.457   2.386   0.937  1.2671 -0.4446 -0.2823
50820SOL     OW64184   7.504  12.300   7.371 -0.2760 -0.6802 -0.2231
50820SOL    HW164185   7.486  12.209   7.346 -1.9444 -0.4635  0.0525
50820SOL    HW264186   7.560  12.333   7.301  0.2030 -1.8501 -0.4290
50821SOL     OW64187   0.842   8.560   5.240 -0.2312  0.5496  0.5489
50821SOL    HW164188   0.753   8.565   5.205  0.1332  1.0511 -0.3570
50821SOL    HW264189   0.885   8.492   5.188 -0.5902 -1.0156  2.2210
50822SOL     OW64190   6.880   3.862   1.341  0.2346 -0.0493  0.3878
50822SOL    HW164191   6.794   3.900   1.362  1.1883  2.0375  0.8296
50822SOL    HW264192   6.912   3.914   1.267  0.7214 -1.4559 -0.4192
50823SOL     OW64193  10.962   7.341   1.112 -0.4301 -0.1327  0.2291
50823SOL    HW164194  11.004   7.255   1.102  1.3878  0.5503  1.4607
50823SOL    HW264195  10.995   7.392   1.038  0.4132  0.1931  0.8120
50824SOL     OW64196   0.525   9.009  13.424  0.2521 -0.0769 -0.1012
50824SOL    HW164197   0.548   9.069  13.495  2.3922 -1.6464  0.6706
50824SOL    HW264198   0.505   9.065  13.349 -1.1729  1.6052  1.4542
50825SOL     OW64199   2.995  11.864   7.472  0.2117 -0.3096  0.1510
50825SOL    HW164200   3.087  11.889   7.475  0.8971 -2.5626 -0.1961
50825SOL    HW264201   2.965  11.870   7.563  1.1347 -0.9235  0.5131
50826SOL     OW64202  10.992   3.471  13.208  0.0247 -0.0630  0.2518
50826SOL    HW164203  10.983   3.451  13.115 -0.7472  1.0744  0.0666
50826SOL    HW264204  11.079   3.437  13.231 -0.1079 -1.0843 -0.6730
50827SOL     OW64205   8.940   9.001  10.538  0.1713 -0.5316 -0.6530
50827SOL    HW164206   9.015   8.949  10.509 -1.0736 -0.9981 -3.3538
50827SOL    HW264207   8.903   8.950  10.611  0.9335 -1.6700 -1.0208
50828SOL     OW64208   8.426   9.380   8.646  0.3302 -0.2848  0.4472
50828SOL    HW164209   8.350   9.429   8.677  1.8834  0.7308  2.9445
50828SOL    HW264210   8.395   9.290   8.638 -1.4301  0.3113  0.1136
50829SOL     OW64211  11.548   6.558   2.625  0.2446  0.0434  0.5311
50829SOL    HW164212  11.481   6.576   2.558  0.6976  2.1615  0.5553
50829SOL    HW264213  11.607   6.496   2.584  0.9466  1.8789 -1.4251
50830SOL     OW64214   8.456   7.419   9.526 -0.2171  0.9249  0.0492
50830SOL    HW164215   8.390   7.483   9.499 -1.1533 -0.2294 -0.5193
50830SOL    HW264216   8.405   7.348   9.566  0.8761  0.9978  1.6248
50831SOL     OW64217   1.391   6.990  12.250  0.2905  0.1024 -0.1700
50831SOL    HW164218   1.443   6.917  12.216  0.6537  0.5472 -0.5945
50831SOL    HW264219   1.417   7.065  12.196 -1.8757  0.0462 -1.4058
50832SOL     OW64220  13.316  10.578  11.242  0.1346  0.6500  0.4803
50832SOL    HW164221  13.401  10.549  11.275  0.1663 -0.8218 -0.7539
50832SOL    HW264222  13.272  10.497  11.216 -1.4924  1.4171  0.7219
50833SOL     OW64223   8.777   6.967  11.023 -0.0321 -0.2171 -0.3517
50833SOL    HW164224   8.795   7.008  11.107 -0.8060 -1.1318  0.2794
50833SOL    HW264225   8.853   6.913  11.005  0.3005  0.2722 -0.4278
50834SOL     OW64226  12.248   8.950   1.011 -0.0144  0.6279  0.6252
50834SOL    HW164227  12.296   8.867   1.005 -2.6341 -0.9666 -0.2245
50834SOL    HW264228  12.289   8.997   1.083  1.5341 -1.4440  1.1798
50835SOL     OW64229   2.167   3.278  12.274  0.1408  0.1266  0.7384
50835SOL    HW164230   2.255   3.305  12.246  0.5001 -0.5422  1.1716
50835SOL    HW264231   2.120   3.360  12.289  0.3072  0.4919 -0.6513
50836SOL     OW64232   0.319  10.810  10.589 -0.6525 -0.2028  0.1182
50836SOL    HW164233   0.342  10.723  10.622 -0.7189 -0.4479 -0.4756
50836SOL    HW264234   0.398  10.842  10.547 -0.2424  0.5509  1.4059
50837SOL     OW64235   1.942   6.064   4.950 -0.1822 -0.6502 -0.0310
50837SOL    HW164236   1.894   6.036   4.873  0.5910  0.3545 -0.9020
50837SOL    HW264237   1.879   6.057   5.022 -2.2066  2.1179 -1.3558
50838SOL     OW64238   5.062  12.525   9.856 -0.0348 -0.1055  0.5120
50838SOL    HW164239   5.036  12.465   9.927  0.9889 -1.9512 -0.5965
50838SOL    HW264240   5.149  12.495   9.831  0.5460  1.9490 -0.0436
50839SOL     OW64241  10.780   4.513   2.423  0.0901 -0.2158 -0.2085
50839SOL    HW164242  10.874   4.500   2.411 -0.0411 -1.5762  0.0668
50839SOL    HW264243  10.739   4.460   2.354 -0.4803  0.5378 -0.4636
50840SOL     OW64244   7.721  12.811   2.771 -0.0498 -0.4947 -0.2197
50840SOL    HW164245   7.682  12.847   2.850  0.8714 -0.8605  0.4207
50840SOL    HW264246   7.679  12.859   2.699  0.7922  1.5438  0.5781
50841SOL     OW64247   7.305  10.455   2.186 -0.2089 -0.4198 -0.2046
50841SOL    HW164248   7.349  10.371   2.171  0.5973  0.1925 -1.4510
50841SOL    HW264249   7.361  10.501   2.248 -0.4461 -0.6343  0.1748
50842SOL     OW64250   8.391   3.890   7.387  0.1841 -0.6069 -0.2931
50842SOL    HW164251   8.442   3.971   7.398 -0.3250 -0.2415 -0.5800
50842SOL    HW264252   8.351   3.899   7.300 -0.5342 -0.7890  0.0133
50843SOL     OW64253   4.583   4.487  10.146  0.9448 -0.1764  0.5617
50843SOL    HW164254   4.613   4.468  10.057 -0.3904  1.9612 -0.4192
50843SOL    HW264255   4.509   4.428  10.160  1.0292 -0.3782  0.1756
50844SOL     OW64256   7.279  11.592   9.649 -0.2189 -0.0733 -0.4959
50844SOL    HW164257   7.243  11.553   9.569 -2.3028  0.5354  0.0863
50844SOL    HW264258   7.234  11.676   9.658  2.1605  1.2572 -0.2325
50845SOL     OW64259   6.956   9.109   9.937  0.0949  0.0760 -0.0093
50845SOL    HW164260   7.045   9.074   9.927 -0.2695 -0.9492  0.2596
50845SOL    HW264261   6.969   9.195   9.978  0.9941  0.2307 -0.5722
50846SOL     OW64262   7.816  13.672   1.130  0.8170  0.4569  0.3852
50846SOL    HW164263   7.834  13.579   1.116  1.8978  0.8836 -1.5026
50846SOL    HW264264   7.731  13.674   1.173 -0.4518 -1.3733 -1.7816
50847SOL     OW64265   4.028  13.609   7.037 -0.2095 -0.1735 -0.6775
50847SOL    HW164266   4.073  13.678   6.988 -2.1286  0.9012 -1.0459
50847SOL    HW264267   4.023  13.535   6.976 -1.7601  0.8293 -1.8545
50848SOL     OW64268   6.515   3.166   5.585 -0.4712 -0.0373  0.3131
50848SOL    HW164269   6.447   3.219   5.628 -1.5465 -0.8483 -0.3361
50848SOL    HW264270   6.479   3.147   5.499  0.7142 -0.2653 -0.1442
50849SOL     OW64271  12.910   0.953   5.213 -0.4649  0.0207  0.0454
50849SOL    HW164272  12.831   0.952   5.159 -1.4318  0.0858  1.3870
50849SOL    HW264273  12.893   1.021   5.279  0.0424 -0.9962  1.2720
50850SOL     OW64274   3.880   2.402   0.323  0.5475 -0.3342  0.1622
50850SOL    HW164275   3.899   2.496   0.316  0.5338 -0.3797 -0.5461
50850SOL    HW264276   3.965   2.361   0.335  0.6006 -0.2742 -0.0102
50851SOL     OW64277   9.642   3.064  12.500  0.6149 -0.1554  0.1837
50851SOL    HW164278   9.565   3.100  12.543  1.8269  1.0685  1.4496
50851SOL    HW264279   9.714   3.121  12.528  2.1520 -1.8562 -0.1036
50852SOL     OW64280   0.757   0.614   4.223 -0.5183  0.2755  0.2529
50852SOL    HW164281   0.813   0.691   4.235 -0.1590  0.0343  0.1488
50852SOL    HW264282   0.697   0.638   4.154  1.1842 -0.4003 -1.5579
50853SOL     OW64283   0.679  11.862   7.672  0.3853  0.0279 -0.7588
50853SOL    HW164284   0.764  11.825   7.698  0.1040  0.7055  1.3329
50853SOL    HW264285   0.635  11.880   7.755 -1.0695  1.4156 -1.7809
50854SOL     OW64286   2.428   8.606   4.201 -0.3449 -0.2107 -0.0251
50854SOL    HW164287   2.411   8.664   4.127 -2.1385 -0.1337  0.3962
50854SOL    HW264288   2.519   8.625   4.226 -1.0833  3.0703  0.6225
50855SOL     OW64289   3.098   9.841   3.102 -0.1460 -0.2132  0.7261
50855SOL    HW164290   3.090   9.936   3.093  1.7804 -0.1220 -0.4940
50855SOL    HW264291   3.014   9.808   3.070  0.2410  0.9714 -1.7204
50856SOL     OW64292   0.540  10.634   2.976 -0.3536 -0.1202  0.4924
50856SOL    HW164293   0.485  10.689   2.919  2.5231  1.1400 -1.3244
50856SOL    HW264294   0.535  10.676   3.062 -1.9804  0.0549  0.3556
50857SOL     OW64295   5.007   8.418   0.024  0.4717 -0.1010 -0.1851
50857SOL    HW164296   4.992   8.361  -0.051  1.4792 -1.1756  0.3898
50857SOL    HW264297   5.091   8.389   0.060 -0.5373 -0.4550  2.0719
50858SOL     OW64298   6.933  10.184   6.705  0.3772 -0.1815 -0.1296
50858SOL    HW164299   6.925  10.140   6.620 -0.2637  0.7165 -0.5546
50858SOL    HW264300   6.871  10.257   6.700  0.7410  0.2181  0.9023
50859SOL     OW64301   3.535   2.649  12.866  0.2428 -0.0472  0.0901
50859SOL    HW164302   3.444   2.665  12.840 -0.5072 -3.6325  0.0941
50859SOL    HW264303   3.579   2.623  12.786  0.3134 -1.8772  0.6909
50860SOL     OW64304   3.207   3.295   7.070  0.3104 -0.0253  0.2588
50860SOL    HW164305   3.200   3.328   6.980  1.7306  1.4425  0.6266
50860SOL    HW264306   3.118   3.274   7.095 -0.2844  0.8044 -1.0508
50861SOL     OW64307  10.080   1.088  10.116 -0.3823 -0.4114  0.2082
50861SOL    HW164308  10.055   1.178  10.137  0.8427 -0.5602  2.7057
50861SOL    HW264309  10.004   1.035  10.140 -0.5595 -0.1790  0.1547
50862SOL     OW64310   8.734  11.368   6.157 -0.4350 -0.0499  0.1391
50862SOL    HW164311   8.739  11.437   6.091 -1.5353  0.5554  0.6739
50862SOL    HW264312   8.825  11.339   6.169  0.1287  1.7154  0.3409
50863SOL     OW64313  12.661   4.026   9.074  0.1738  0.1887 -0.2037
50863SOL    HW164314  12.717   3.966   9.122  1.1254  1.5682  0.4908
50863SOL    HW264315  12.574   4.016   9.113  0.2841 -0.8240 -0.2112
50864SOL     OW64316   1.048  12.165   0.977  0.2226 -0.1307  0.7281
50864SOL    HW164317   1.014  12.094   0.923  0.0333  0.4013  0.1373
50864SOL    HW264318   1.055  12.127   1.065  0.7138 -1.0623  0.3024
50865SOL     OW64319   6.360   9.533   1.306  0.1237  0.0207  0.2130
50865SOL    HW164320   6.453   9.536   1.286  0.4006 -0.2390  1.3994
50865SOL    HW264321   6.345   9.608   1.363 -0.0644 -0.8366  1.3166
50866SOL     OW64322  12.232   4.798   1.387  0.4942 -0.1219 -0.2492
50866SOL    HW164323  12.227   4.881   1.434 -1.0105 -0.3335 -0.0104
50866SOL    HW264324  12.233   4.823   1.294 -1.2034  0.1506 -0.2211
50867SOL     OW64325   7.497   7.049   8.111 -0.0284 -0.5390  0.0677
50867SOL    HW164326   7.580   7.014   8.144  0.3477 -0.8227 -1.0964
50867SOL    HW264327   7.431   6.985   8.137  0.1401 -0.3931  0.8626
50868SOL     OW64328   7.957   2.111   7.285 -0.5928  0.0343  0.0651
50868SOL    HW164329   7.954   2.026   7.241 -0.3240 -0.2096  0.5140
50868SOL    HW264330   7.883   2.159   7.247 -0.5069 -0.2534 -0.4806
50869SOL     OW64331  12.459  12.578   2.498 -0.0247  0.0684 -0.0666
50869SOL    HW164332  12.542  12.531   2.509 -0.5872 -0.3283  4.0727
50869SOL    HW264333  12.407  12.523   2.439  1.4861 -1.3446 -0.1490
50870SOL     OW64334  12.678   7.395   5.215 -0.5919  0.7334  0.0270
50870SOL    HW164335  12.708   7.471   5.165 -0.5807  0.2901 -0.6574
50870SOL    HW264336  12.600   7.366   5.169 -0.5664  0.2999  0.2543
50871SOL     OW64337   3.028   2.263  12.295 -0.5822 -0.7042  0.5170
50871SOL    HW164338   3.027   2.261  12.200  0.1701 -0.2337  0.4932
50871SOL    HW264339   3.007   2.354  12.318 -2.4562 -1.1621  0.8576
50872SOL     OW64340  10.755   9.154   1.129 -0.1278  0.0613 -0.2644
50872SOL    HW164341  10.673   9.203   1.129 -0.2630 -0.1238 -1.3672
50872SOL    HW264342  10.731   9.067   1.096  0.5855  0.1672 -1.1028
50873SOL     OW64343   7.135   1.196   7.162 -0.1843  0.0247 -0.3610
50873SOL    HW164344   7.174   1.284   7.159 -0.2011  0.0500  0.0414
50873SOL    HW264345   7.062   1.200   7.101 -0.0686  0.2329 -0.4878
50874SOL     OW64346   8.366   9.303   7.501 -0.4553  0.0716  0.4647
50874SOL    HW164347   8.362   9.287   7.595 -0.1059 -1.7896  0.2090
50874SOL    HW264348   8.283   9.346   7.480 -1.2929 -1.0374  1.3807
50875SOL     OW64349   2.914   6.452  10.067 -0.1815 -0.5708 -0.1965
50875SOL    HW164350   2.863   6.507  10.127  0.9518  0.6196 -0.2890
50875SOL    HW264351   2.852   6.427   9.999 -1.2463 -1.1468  0.9453
50876SOL     OW64352  10.912   8.775  10.096 -0.4681  0.0063  0.5866
50876SOL    HW164353  10.864   8.855  10.116 -0.5209  0.1049  0.0757
50876SOL    HW264354  10.880   8.748  10.010  1.4363  0.8954 -0.4676
50877SOL     OW64355   3.401   1.696  11.109 -0.3165 -0.2785 -0.3969
50877SOL    HW164356   3.357   1.778  11.131  1.5810  0.7885 -0.3678
50877SOL    HW264357   3.443   1.669  11.190  1.6105  0.4075 -1.1002
50878SOL     OW64358   4.117   2.024   9.199  0.0764 -0.4147 -0.7085
50878SOL    HW164359   4.077   2.059   9.278  2.5493 -1.8647  1.3641
50878SOL    HW264360   4.161   2.099   9.159 -0.1039  0.1002  0.0311
50879SOL     OW64361   9.000   3.547   8.196  0.6538  0.1436  0.0159
50879SOL    HW164362   8.978   3.627   8.242 -0.2963 -0.6205  0.9214
50879SOL    HW264363   8.995   3.570   8.103  2.7208  1.7397  0.2212
50880SOL     OW64364   5.998  12.600   5.309 -0.2915  0.0601  0.5115
50880SOL    HW164365   6.045  12.564   5.234  3.1275  0.7800  2.1096
50880SOL    HW264366   5.981  12.691   5.286 -0.8511 -0.1961 -0.0804
50881SOL     OW64367   2.926   0.009   3.786 -0.8293  0.0902 -0.1353
50881SOL    HW164368   2.999  -0.008   3.845 -1.0257 -0.8922 -0.1638
50881SOL    HW264369   2.854  -0.043   3.820 -1.1179 -0.0355 -0.9053
50882SOL     OW64370   2.279  10.394  13.514  0.4985 -0.1857  0.1702
50882SOL    HW164371   2.198  10.420  13.471  0.6435  1.4439  0.8122
50882SOL    HW264372   2.347  10.411  13.449  0.7341  2.4070  0.9600
50883SOL     OW64373   6.441   1.815   0.980 -0.4463 -0.5456 -0.0033
50883SOL    HW164374   6.519   1.844   1.028  0.4923 -3.1262  0.2069
50883SOL    HW264375   6.459   1.837   0.889 -0.2194  0.3456  0.2472
50884SOL     OW64376   0.304   0.258   2.672  0.0875  0.2690 -0.2789
50884SOL    HW164377   0.370   0.304   2.621  1.1458 -1.0972 -0.1750
50884SOL    HW264378   0.307   0.300   2.758  3.0286 -1.7121  0.7007
50885SOL     OW64379   4.279   9.962  13.292 -0.1614 -0.1451 -0.4056
50885SOL    HW164380   4.273   9.881  13.242 -0.8923 -0.3231 -0.0464
50885SOL    HW264381   4.223   9.948  13.369  1.7802 -0.2969  1.0672
50886SOL     OW64382   9.892   1.820   4.215 -0.1776 -0.5716 -0.0570
50886SOL    HW164383   9.856   1.809   4.303 -1.8001  0.3840 -0.5624
50886SOL    HW264384   9.851   1.899   4.181 -0.7011 -1.6809 -2.2156
50887SOL     OW64385  13.294   1.753   4.506 -0.3083 -0.2562  0.5625
50887SOL    HW164386  13.276   1.708   4.589 -0.6295  0.2072  0.7478
50887SOL    HW264387  13.325   1.684   4.447 -0.3235 -0.6312  0.9916
50888SOL     OW64388   8.808   4.463  11.328  0.1047  0.2241  0.1121
50888SOL    HW164389   8.805   4.541  11.272  0.7940  0.0125 -0.2316
50888SOL    HW264390   8.720   4.427  11.323 -0.3492  1.2274  0.6331
50889SOL     OW64391   6.492  13.599   1.599 -0.4834  0.0353 -0.0471
50889SOL    HW164392   6.505  13.560   1.685 -2.5231 -1.7837 -0.4695
50889SOL    HW264393   6.529  13.535   1.538  0.0722  0.8498 -0.5802
50890SOL     OW64394   3.011   2.752  10.754  0.2506  0.1617  0.0568
50890SOL    HW164395   3.015   2.694  10.830  0.6910  0.2999  0.1421
50890SOL    HW264396   3.080   2.721  10.696 -0.0850  0.0562 -0.2942
50891SOL     OW64397   2.306  13.456   5.924  0.0455  0.4799 -0.4339
50891SOL    HW164398   2.268  13.482   6.008  1.5457 -1.0825  0.7897
50891SOL    HW264399   2.344  13.370   5.940 -0.4181 -0.2851 -2.9922
50892SOL     OW64400   5.559  10.029  10.536 -0.2147 -0.1701  0.2210
50892SOL    HW164401   5.584  10.094  10.601 -0.6704  0.6935 -0.4480
50892SOL    HW264402   5.464  10.021  10.545 -0.2137 -0.4354  0.0231
50893SOL     OW64403   2.567  13.700  11.855 -0.1769  0.1362  0.7581
50893SOL    HW164404   2.654  13.705  11.815  0.5990  0.6784  2.4182
50893SOL    HW264405   2.509  13.671  11.784  1.2105  0.5456 -0.5851
50894SOL     OW64406  13.635   3.811   8.525 -0.3526 -0.3606  1.0806
50894SOL    HW164407  13.651   3.797   8.618  1.0016 -0.5041  0.8412
50894SOL    HW264408  13.695   3.881   8.500  0.2108 -1.1828  0.0556
50895SOL     OW64409   9.843  12.577   9.518  0.1514  0.5510  0.1231
50895SOL    HW164410   9.748  12.577   9.505  0.0635  1.1787  0.6754
50895SOL    HW264411   9.865  12.485   9.532 -0.6297  0.5417  1.5478
50896SOL     OW64412  11.140   9.052   1.575 -0.0692  0.0376  0.6343
50896SOL    HW164413  11.228   9.014   1.570  0.7114  1.9103 -1.9925
50896SOL    HW264414  11.151   9.131   1.629  0.1760  0.9031 -0.6405
50897SOL     OW64415   1.655  10.928   5.418 -0.4443 -0.4342  0.7013
50897SOL    HW164416   1.618  10.872   5.350  0.2519 -1.0854  0.8449
50897SOL    HW264417   1.593  11.001   5.426 -0.3304 -0.1353 -0.9036
50898SOL     OW64418   0.293   2.288   3.931  0.1362 -0.8142  0.0177
50898SOL    HW164419   0.240   2.208   3.929 -0.5788 -0.3603  0.2366
50898SOL    HW264420   0.295   2.317   3.840 -1.6234  0.1783  0.2304
50899SOL     OW64421   4.398   8.549  11.685 -0.3057 -0.0328  0.1879
50899SOL    HW164422   4.351   8.490  11.745  0.4791  0.4131  1.2734
50899SOL    HW264423   4.396   8.503  11.601 -0.1807 -1.3769  0.8827
50900SOL     OW64424   7.190   2.628  11.247 -0.1253  0.3288 -0.3843
50900SOL    HW164425   7.148   2.542  11.237 -1.1284  0.3312  2.7752
50900SOL    HW264426   7.242   2.620  11.326  1.1870  2.1548 -1.0044
50901SOL     OW64427   3.960  12.683  11.416 -0.0796  0.2695 -0.1180
50901SOL    HW164428   3.986  12.592  11.433 -0.4726 -0.1199 -1.4338
50901SOL    HW264429   3.865  12.682  11.421 -0.1198  0.4556 -0.7980
50902SOL     OW64430   9.136   9.273   4.419  0.3557 -0.2358 -0.1528
50902SOL    HW164431   9.168   9.183   4.424  0.6110 -0.2893 -1.9695
50902SOL    HW264432   9.203   9.319   4.368 -1.0567  0.3032 -1.6169
50903SOL     OW64433  12.203   0.050   7.419 -0.1183  0.0102  0.4445
50903SOL    HW164434  12.218   0.073   7.511 -0.0775  0.0130  0.4370
50903SOL    HW264435  12.285   0.073   7.375  0.1512 -0.7448  0.5496
50904SOL     OW64436   1.538  13.488  12.993 -0.6331  0.0097  0.1726
50904SOL    HW164437   1.606  13.472  12.929 -1.8338 -3.2331 -0.4578
50904SOL    HW264438   1.477  13.548  12.949 -1.3745 -2.0452 -1.7766
50905SOL     OW64439  11.854   4.934   3.442 -0.0255 -0.3866 -0.2476
50905SOL    HW164440  11.833   4.858   3.496  0.9215  0.2531  1.0909
50905SOL    HW264441  11.862   5.007   3.504  0.4047  0.5305 -1.3282
50906SOL     OW64442   4.820   8.970   2.736  0.2964 -0.7880  0.2586
50906SOL    HW164443   4.832   8.999   2.646  1.4710  0.3155  0.7329
50906SOL    HW264444   4.903   8.926   2.758 -0.6123 -2.5897  0.2824
50907SOL     OW64445  13.303   8.149   4.115 -0.2816  0.1517  0.1126
50907SOL    HW164446  13.254   8.087   4.061  0.4964 -0.7106  0.3751
50907SOL    HW264447  13.365   8.190   4.055  0.4279 -0.6406  0.3021
50908SOL     OW64448  12.385   6.911   6.334  0.0192  0.3687 -0.6449
50908SOL    HW164449  12.471   6.901   6.293  0.3815  3.1317 -0.7369
50908SOL    HW264450  12.336   6.966   6.273 -1.6391 -0.6620 -0.2951
50909SOL     OW64451  11.180  13.165  11.764  0.6970  0.3643 -0.2385
50909SOL    HW164452  11.192  13.257  11.741  0.2110  0.2348 -1.0434
50909SOL    HW264453  11.110  13.165  11.829  1.1521  0.6188  0.2520
50910SOL     OW64454   8.775  12.744   9.281 -0.4834 -0.4172 -0.3672
50910SOL    HW164455   8.692  12.749   9.328  0.3814 -0.5498  1.2140
50910SOL    HW264456   8.806  12.655   9.296  0.1858 -0.2204 -0.5524
50911SOL     OW64457  13.177  11.880  11.657  0.2182 -0.2271  0.4193
50911SOL    HW164458  13.260  11.835  11.649 -0.0174 -0.4594 -0.8722
50911SOL    HW264459  13.201  11.972  11.672  0.6992 -0.3984  0.7113
50912SOL     OW64460   3.977   2.344  10.958  0.1612 -0.2992 -0.3627
50912SOL    HW164461   4.035   2.415  10.987 -1.3065  0.8857 -0.1355
50912SOL    HW264462   4.034   2.270  10.943  1.8785  1.1290 -1.2724
50913SOL     OW64463  11.210  13.683   8.889 -0.7064  0.4184  0.4402
50913SOL    HW164464  11.179  13.720   8.971  1.6314  1.0254  1.1494
50913SOL    HW264465  11.234  13.593   8.910 -3.0549 -0.4786 -0.4195
50914SOL     OW64466  13.350   8.604  11.290  0.4612  0.1006 -0.1859
50914SOL    HW164467  13.289   8.534  11.312 -0.5022 -0.4500 -3.8985
50914SOL    HW264468  13.436   8.564  11.296  0.1291 -0.5297  0.5492
50915SOL     OW64469  12.573  12.597   4.064 -0.0591  0.2813  0.0074
50915SOL    HW164470  12.588  12.596   4.159 -1.0549  0.5856  0.1822
50915SOL    HW264471  12.558  12.505   4.041  1.0994  0.0909 -0.0209
50916SOL     OW64472   2.804   1.174   8.848  0.0072 -0.2658  0.1311
50916SOL    HW164473   2.738   1.108   8.869 -0.7854  0.5808  0.3873
50916SOL    HW264474   2.888   1.129   8.859 -0.4856 -0.9453  1.2467
50917SOL     OW64475   1.830  10.971   0.934  0.1201 -1.1471 -0.0653
50917SOL    HW164476   1.892  11.008   0.997 -0.5930  1.2154 -0.6712
50917SOL    HW264477   1.753  10.948   0.986 -0.4902  0.8539  0.0124
50918SOL     OW64478  12.134   2.360   8.940  0.0782 -0.3287  0.4174
50918SOL    HW164479  12.079   2.419   8.889  0.7616  1.6645  1.8706
50918SOL    HW264480  12.072   2.301   8.983 -0.7488  0.3320  0.1657
50919SOL     OW64481   5.952   5.808   9.154  0.2081 -0.5829  0.3907
50919SOL    HW164482   5.944   5.840   9.244  2.2689  1.0389  0.0968
50919SOL    HW264483   5.973   5.715   9.163  1.8548 -0.1453  1.7070
50920SOL     OW64484   9.182   2.419   2.286  0.5519 -0.3027  0.2151
50920SOL    HW164485   9.275   2.443   2.297  0.6276 -1.0378  1.3751
50920SOL    HW264486   9.137   2.473   2.351  0.2598 -0.5244  0.1936
50921SOL     OW64487   8.557  13.141   8.670  0.0472  0.3915  0.3116
50921SOL    HW164488   8.570  13.186   8.754  0.4478  0.6409  0.1165
50921SOL    HW264489   8.613  13.064   8.675  0.6984  0.8344 -0.0477
50922SOL     OW64490   1.206  12.989   1.083 -0.1157  0.4565 -0.3429
50922SOL    HW164491   1.219  12.931   1.158  1.1895  1.2486  0.0903
50922SOL    HW264492   1.167  13.068   1.121 -1.0968  0.2051 -0.7942
50923SOL     OW64493  12.213  13.097   8.608  0.0779  0.5538 -0.2500
50923SOL    HW164494  12.265  13.163   8.565  1.7085  1.0081  2.2114
50923SOL    HW264495  12.250  13.013   8.579  0.1445  0.8005 -0.8728
50924SOL     OW64496   5.232   0.252  12.079 -0.5820 -0.4280  0.3362
50924SOL    HW164497   5.224   0.278  12.171 -0.4062  0.7437  0.0231
50924SOL    HW264498   5.164   0.302  12.034  1.2797  1.3413 -0.6379
50925SOL     OW64499   4.291   1.651   9.216  0.2159 -0.2402 -0.2891
50925SOL    HW164500   4.248   1.580   9.264  1.9948 -0.5466  0.9375
50925SOL    HW264501   4.372   1.613   9.185  1.0087  1.1259  0.0181
50926SOL     OW64502  10.877   7.789   2.529 -0.0283 -0.5417  0.2519
50926SOL    HW164503  10.862   7.731   2.603 -0.7094  0.4900  0.9404
50926SOL    HW264504  10.835   7.871   2.553  2.3617  0.8367  0.0483
50927SOL     OW64505   1.989   1.160   4.883  0.6238  0.1244 -0.5386
50927SOL    HW164506   2.017   1.124   4.967 -0.3797  1.7242  0.5424
50927SOL    HW264507   1.995   1.255   4.894  1.2294  0.3678 -2.5627
50928SOL     OW64508   8.139   1.333  10.183 -0.5944 -0.3352  0.9090
50928SOL    HW164509   8.089   1.413  10.167  1.5030  1.1261  1.2626
50928SOL    HW264510   8.135   1.285  10.100  0.2621  1.4180 -0.2105
50929SOL     OW64511  13.318  10.067   1.972  0.1382 -0.5134 -0.3479
50929SOL    HW164512  13.306  10.162   1.970 -0.0290 -0.5435 -1.5784
50929SOL    HW264513  13.399  10.054   2.021  0.4258  0.3008 -0.5875
50930SOL     OW64514   3.501   5.712  13.553  0.1273  0.3219 -0.7023
50930SOL    HW164515   3.493   5.711  13.457 -0.0324 -0.9393 -0.6950
50930SOL    HW264516   3.593   5.690  13.569  0.5933  2.1988 -0.5697
50931SOL     OW64517   3.041   3.004   9.772  0.8475  0.0596 -0.1559
50931SOL    HW164518   3.075   3.038   9.855 -0.5908 -0.2668  0.5833
50931SOL    HW264519   3.076   3.065   9.706  0.4961  1.4249  0.8735
50932SOL     OW64520   5.388  12.140  12.137  0.0485  0.7432  0.1399
50932SOL    HW164521   5.305  12.154  12.093  0.0475  0.8555  0.1766
50932SOL    HW264522   5.429  12.068  12.089  0.3813  1.3576 -0.5260
50933SOL     OW64523   9.660   1.682   6.492  0.2558  0.3109 -0.2920
50933SOL    HW164524   9.745   1.641   6.505 -0.5246 -1.3057 -0.0396
50933SOL    HW264525   9.662   1.715   6.402  0.9626 -0.1559 -0.4498
50934SOL     OW64526  13.613   9.796   0.011  0.0751  0.0698 -0.6530
50934SOL    HW164527  13.708   9.788  -0.002  0.3058  1.4341 -0.0103
50934SOL    HW264528  13.587   9.867  -0.048 -0.5837 -0.4038 -0.9451
50935SOL     OW64529  12.585  10.203  10.156  0.0549 -0.1967 -0.2728
50935SOL    HW164530  12.613  10.275  10.212  0.5994  0.7107 -1.6691
50935SOL    HW264531  12.658  10.188  10.096 -1.2945  0.3072 -2.1318
50936SOL     OW64532   4.506   6.644  13.440 -0.1486 -0.3841 -0.2302
50936SOL    HW164533   4.479   6.567  13.490  0.0112  0.4501  1.1964
50936SOL    HW264534   4.598   6.626  13.417 -0.2448 -0.8036 -0.2976
50937SOL     OW64535  12.389  11.416   6.173  0.1261  0.7114  0.2226
50937SOL    HW164536  12.353  11.493   6.129  0.8408  0.7548 -0.3015
50937SOL    HW264537  12.325  11.347   6.155  0.6573  0.5874 -1.3864
50938SOL     OW64538  10.989   8.448   9.899 -0.7568  0.7025  0.4708
50938SOL    HW164539  10.972   8.432   9.992  2.4923 -2.2047  0.8000
50938SOL    HW264540  11.068   8.503   9.898 -0.6912  0.6114 -0.5357
50939SOL     OW64541   0.673  12.546   3.995  0.6090 -0.1022 -0.1302
50939SOL    HW164542   0.595  12.506   4.035  0.7648 -0.5794 -0.2968
50939SOL    HW264543   0.676  12.634   4.032 -0.7847  0.4099 -1.1648
50940SOL     OW64544   9.688   4.204   5.455 -0.3855  0.7225 -0.2087
50940SOL    HW164545   9.733   4.204   5.370 -1.5631  0.5380 -0.8496
50940SOL    HW264546   9.616   4.142   5.444  0.0362 -0.0625  1.2623
50941SOL     OW64547   7.494  12.865   3.231 -0.6457  0.1884 -0.6858
50941SOL    HW164548   7.548  12.851   3.153  0.2147  1.2241 -0.3152
50941SOL    HW264549   7.548  12.921   3.287 -1.1921 -0.6337  0.7118
50942SOL     OW64550   5.460   0.334   5.634 -0.1099  0.9523  1.0481
50942SOL    HW164551   5.507   0.251   5.644 -0.0686  0.6980 -0.8791
50942SOL    HW264552   5.476   0.380   5.716  0.2105 -0.7644  2.0114
50943SOL     OW64553  12.328   6.218  11.843 -0.3513  0.1214 -0.5146
50943SOL    HW164554  12.379   6.169  11.779  0.4877 -0.6544  0.6913
50943SOL    HW264555  12.269   6.272  11.791  2.6637  2.1965 -2.0660
50944SOL     OW64556  10.620  11.991  11.036 -0.0994 -0.3571  0.7107
50944SOL    HW164557  10.664  11.928  10.978  0.0031  1.4199 -1.2530
50944SOL    HW264558  10.638  12.076  10.996 -0.3619  0.9283  3.1961
50945SOL     OW64559   9.332   9.217   4.828 -0.0730  0.4531 -0.6268
50945SOL    HW164560   9.382   9.139   4.804 -2.6349 -0.6675 -2.7913
50945SOL    HW264561   9.294   9.195   4.914  0.1433 -0.2063 -0.6917
50946SOL     OW64562   8.451   5.199  11.759  0.1916  0.3918 -0.0308
50946SOL    HW164563   8.384   5.264  11.778  0.9052  0.8653  0.9163
50946SOL    HW264564   8.402   5.121  11.733 -0.6829  1.5298 -2.1009
50947SOL     OW64565  13.099   0.399  12.534 -0.4234  0.5542 -0.5584
50947SOL    HW164566  13.156   0.382  12.459 -0.4484  0.3524 -0.5312
50947SOL    HW264567  13.014   0.419  12.496  0.3275  4.0703 -0.8146
50948SOL     OW64568   9.974   7.441   7.654  0.2321  0.1111  0.0413
50948SOL    HW164569   9.962   7.496   7.577  0.9725  0.8400  0.4269
50948SOL    HW264570  10.067   7.418   7.653  0.3893  0.6384  1.0276
50949SOL     OW64571  10.529   3.059   2.026  0.2991  0.1371 -0.2326
50949SOL    HW164572  10.532   2.974   2.069  0.5634 -0.9632 -2.3022
50949SOL    HW264573  10.455   3.054   1.966 -1.7238  2.5813  1.8424
50950SOL     OW64574   8.465  12.597  11.994  0.2803 -0.2509  0.5959
50950SOL    HW164575   8.546  12.547  11.995  0.0960 -0.5446  1.1876
50950SOL    HW264576   8.430  12.584  11.906  0.1378 -1.3394  0.7978
50951SOL     OW64577   0.859   7.400   1.612 -0.3254 -0.4076 -0.3829
50951SOL    HW164578   0.805   7.464   1.566  0.1728  0.0328 -0.3733
50951SOL    HW264579   0.945   7.408   1.572  0.2681  0.3877  0.9647
50952SOL     OW64580   7.920   9.250  13.230 -0.1841  0.2513 -0.3167
50952SOL    HW164581   7.895   9.273  13.319  0.7154  0.2734 -0.0591
50952SOL    HW264582   7.860   9.179  13.206 -0.0569 -0.1463  0.5166
50953SOL     OW64583   6.402   5.464   2.635  0.0307 -0.8701 -0.9348
50953SOL    HW164584   6.313   5.431   2.623 -0.8481  0.6452  0.9557
50953SOL    HW264585   6.458   5.389   2.612 -1.7714 -2.7560  0.4019
50954SOL     OW64586   9.751   0.544   0.747 -0.5531  0.0354 -0.2767
50954SOL    HW164587   9.664   0.546   0.707 -1.3229 -1.2427  1.2144
50954SOL    HW264588   9.734   0.548   0.841  1.0103 -0.2452  0.0427
50955SOL     OW64589  10.981   3.774   5.908 -0.3035  0.1074  0.5541
50955SOL    HW164590  10.985   3.766   6.004  0.4131 -2.1240  0.3933
50955SOL    HW264591  10.986   3.683   5.876 -0.5784  0.7982 -1.6078
50956SOL     OW64592   3.119   9.358   6.118 -0.6791 -0.9797 -0.4186
50956SOL    HW164593   3.120   9.391   6.208 -1.4753 -2.2166  0.0669
50956SOL    HW264594   3.204   9.316   6.107 -0.3283 -0.2642 -0.4649
50957SOL     OW64595  12.687  12.945  10.215 -0.3832 -0.5475  0.4017
50957SOL    HW164596  12.616  12.991  10.260 -1.4456 -0.9818 -0.7669
50957SOL    HW264597  12.767  12.978  10.255 -0.9908  3.1575 -1.0500
50958SOL     OW64598   6.529   2.368   3.733 -0.2528 -0.7710 -0.1824
50958SOL    HW164599   6.456   2.315   3.702 -0.3074 -0.9844  0.2965
50958SOL    HW264600   6.518   2.453   3.689 -0.1164 -1.1747 -1.0106
50959SOL     OW64601   8.552   6.216   8.515 -0.2746 -0.0708  0.0406
50959SOL    HW164602   8.486   6.283   8.495 -0.4155 -0.2397 -0.0580
50959SOL    HW264603   8.515   6.135   8.480 -0.0991 -0.1985  0.1546
50960SOL     OW64604   2.015  10.114   1.074 -0.7083  0.1156  0.0706
50960SOL    HW164605   2.041  10.081   0.988 -1.0478  1.9759 -0.8035
50960SOL    HW264606   1.930  10.155   1.059 -0.1978  1.5870  1.0167
50961SOL     OW64607   3.974   4.110   9.128  0.2514 -0.4785  0.1518
50961SOL    HW164608   3.952   4.119   9.221 -1.8531 -2.0242 -0.1322
50961SOL    HW264609   4.056   4.060   9.127  0.1863 -0.6229  1.1686
50962SOL     OW64610   4.845   7.160  11.551  0.2096  0.0069  0.5335
50962SOL    HW164611   4.837   7.065  11.564 -1.4454 -0.3407 -2.1694
50962SOL    HW264612   4.849   7.171  11.456  1.7748  2.6161  0.7945
50963SOL     OW64613  12.153   8.997   7.126  0.1257  0.3109 -0.1597
50963SOL    HW164614  12.113   8.992   7.213  1.1078 -0.4416  0.2601
50963SOL    HW264615  12.224   9.061   7.136  0.3283  0.1201 -0.3759
50964SOL     OW64616   3.111   2.255   8.292 -0.2817 -0.2952 -0.4461
50964SOL    HW164617   3.129   2.297   8.208  0.6708 -0.5609 -0.3831
50964SOL    HW264618   3.099   2.162   8.270 -0.2250 -0.3343 -0.3080
50965SOL     OW64619  13.126   7.278   0.615  0.1224  0.2383 -0.1214
50965SOL    HW164620  13.155   7.188   0.627  0.5045  0.3162 -0.4315
50965SOL    HW264621  13.171   7.307   0.536  0.9894  1.1006  0.6664
50966SOL     OW64622   6.506   6.905   4.996  0.1125  0.6978 -0.2375
50966SOL    HW164623   6.415   6.934   5.002 -0.9990 -1.3535 -4.0481
50966SOL    HW264624   6.535   6.935   4.911  1.3801 -2.5226 -1.1038
50967SOL     OW64625   5.120   2.870   9.323 -0.4571 -0.1442  0.2530
50967SOL    HW164626   5.149   2.819   9.247  1.1696 -0.4675  1.0546
50967SOL    HW264627   5.175   2.839   9.395  0.0443  2.2087  0.9437
50968SOL     OW64628   8.966   7.384  10.335  0.0471  0.1127 -0.1796
50968SOL    HW164629   8.931   7.346  10.415 -1.7886  2.1320  0.0453
50968SOL    HW264630   9.026   7.317  10.301 -1.1679 -1.9014  1.4339
50969SOL     OW64631   7.302   9.526  10.167 -0.2062 -0.3635 -0.2701
50969SOL    HW164632   7.224   9.476  10.145 -0.2455 -0.5327  0.2493
50969SOL    HW264633   7.290   9.553  10.258  0.4268 -0.5680 -0.1142
50970SOL     OW64634   6.891  10.177  11.541 -0.0565 -0.5436 -0.1014
50970SOL    HW164635   6.854  10.247  11.488 -2.8346 -1.6871  0.1869
50970SOL    HW264636   6.870  10.096  11.494 -0.9408 -1.4579  1.7518
50971SOL     OW64637   3.193  13.455   1.298 -0.4308 -0.5176  0.2982
50971SOL    HW164638   3.181  13.382   1.358 -0.7502  0.2969  1.2625
50971SOL    HW264639   3.231  13.524   1.352 -0.0217  0.0014 -0.6180
50972SOL     OW64640  12.582   0.678   4.510 -0.2743  0.4367 -0.0187
50972SOL    HW164641  12.617   0.591   4.528 -0.5149  0.0937 -1.1000
50972SOL    HW264642  12.578   0.682   4.414  2.9231  2.8871 -0.2188
50973SOL     OW64643  12.390   9.108   6.417  0.2199  0.5288  0.2343
50973SOL    HW164644  12.451   9.086   6.347  1.1509 -0.5023  1.3350
50973SOL    HW264645  12.370   9.201   6.402  1.9522  0.8623 -0.2456
50974SOL     OW64646  10.043   7.520   2.439  0.1715  0.2679 -0.0044
50974SOL    HW164647  10.129   7.561   2.428  0.2763  0.2963  0.8479
50974SOL    HW264648  10.011   7.508   2.349 -0.2072  2.8940 -0.2982
50975SOL     OW64649   8.474   0.577   7.303 -0.4244  0.0196 -0.2288
50975SOL    HW164650   8.393   0.527   7.305  0.3470 -1.2514  0.0255
50975SOL    HW264651   8.531   0.529   7.243  0.3408  0.5724  0.0359
50976SOL     OW64652  11.448   9.739   9.727 -0.3953 -0.7712 -0.3379
50976SOL    HW164653  11.516   9.679   9.756 -0.2008 -0.2505  0.3077
50976SOL    HW264654  11.375   9.683   9.701  0.2958 -1.3389 -1.1049
50977SOL     OW64655   3.317  11.178  11.009  1.0921  0.9293 -0.0311
50977SOL    HW164656   3.398  11.187  11.059  0.8481  0.6297  0.4196
50977SOL    HW264657   3.274  11.263  11.019  0.2849  0.3651  1.6113
50978SOL     OW64658  11.482   7.648   9.675  0.1727  0.2426  0.3040
50978SOL    HW164659  11.522   7.699   9.604 -0.7903  0.8568  0.1817
50978SOL    HW264660  11.403   7.697   9.698 -1.2061 -1.5725 -0.3165
50979SOL     OW64661   4.508   8.627  12.412  0.4519 -0.0676  1.0092
50979SOL    HW164662   4.480   8.683  12.484 -0.2173  0.4398  0.3717
50979SOL    HW264663   4.441   8.639  12.345  1.7184  0.4730 -0.2127
50980SOL     OW64664  11.241   1.668   8.972  0.4998 -0.0252 -0.2167
50980SOL    HW164665  11.279   1.581   8.962 -1.0591 -0.7732  0.0130
50980SOL    HW264666  11.248   1.687   9.066  1.3053  0.3253 -0.3453
50981SOL     OW64667   6.229  13.611   7.341  0.4870 -0.1744  0.9993
50981SOL    HW164668   6.275  13.661   7.273  0.3485 -2.5839 -1.0041
50981SOL    HW264669   6.195  13.678   7.401  1.1528  2.0330 -0.9389
50982SOL     OW64670   2.346  13.224   1.676 -0.0405 -0.4845 -0.6015
50982SOL    HW164671   2.431  13.182   1.665  0.6278  0.7971 -0.4706
50982SOL    HW264672   2.340  13.286   1.603  0.5483  1.7032  1.1207
50983SOL     OW64673   6.670   1.315  12.321 -0.5921 -0.1191  0.4082
50983SOL    HW164674   6.619   1.300  12.241 -1.5565 -3.6519  1.5149
50983SOL    HW264675   6.662   1.233  12.370  1.9665  1.0531  3.0461
50984SOL     OW64676   8.194  12.264   8.995  0.3276 -0.1369 -0.2124
50984SOL    HW164677   8.185  12.359   8.990 -1.5004 -0.0978  2.0406
50984SOL    HW264678   8.221  12.248   9.086  0.3907 -1.7746 -0.4977
50985SOL     OW64679  12.230   9.016   9.338 -0.2771 -0.2823  0.0951
50985SOL    HW164680  12.239   8.944   9.276 -0.7625 -0.4739  0.2430
50985SOL    HW264681  12.210   9.092   9.283 -0.5933 -0.4288  0.0074
50986SOL     OW64682   3.668   5.249  12.012  0.4052  0.0135  0.3384
50986SOL    HW164683   3.745   5.229  11.959 -1.1159  0.6457 -2.3053
50986SOL    HW264684   3.603   5.281  11.949 -0.9836  2.5962  2.8359
50987SOL     OW64685   9.462   3.219   2.282  0.3771 -0.0831 -0.0485
50987SOL    HW164686   9.462   3.310   2.253  0.1222 -0.5141 -1.4910
50987SOL    HW264687   9.374   3.206   2.318 -0.1241 -0.1533 -1.2450
50988SOL     OW64688  12.507  11.630  10.410 -0.0652 -0.1507  0.0599
50988SOL    HW164689  12.509  11.611  10.504  0.4024 -1.2073 -0.1548
50988SOL    HW264690  12.555  11.712  10.401 -0.9029  0.4451  0.8464
50989SOL     OW64691   1.172   2.827   8.813 -0.6764 -0.0643 -0.4138
50989SOL    HW164692   1.141   2.737   8.808 -0.4724 -0.1907  0.5055
50989SOL    HW264693   1.093   2.880   8.800 -1.6754 -0.3665  3.2785
50990SOL     OW64694  10.804  10.208   2.311 -0.2509  0.0413  0.2013
50990SOL    HW164695  10.893  10.206   2.275 -0.9093 -0.2225 -1.5333
50990SOL    HW264696  10.809  10.154   2.390  1.5394  1.6294  1.2633
50991SOL     OW64697   5.057  12.410   7.339  0.3893  0.1168  0.4721
50991SOL    HW164698   5.118  12.416   7.266  0.6077 -0.9724  0.5446
50991SOL    HW264699   4.988  12.474   7.319  0.3186 -0.3413 -0.8072
50992SOL     OW64700   3.404  11.316  10.573 -0.0871 -0.4354  0.5663
50992SOL    HW164701   3.456  11.285  10.647  0.6442 -1.1987 -0.2377
50992SOL    HW264702   3.346  11.243  10.551 -1.0164  0.1537  1.0090
50993SOL     OW64703   6.539   1.356  12.047 -0.0447 -0.1461 -0.4899
50993SOL    HW164704   6.631   1.330  12.042 -0.0110 -0.3396  0.7733
50993SOL    HW264705   6.490   1.276  12.025  0.0933 -0.2593 -0.3903
50994SOL     OW64706   7.246  10.606   6.715  0.8408  0.2827 -0.1998
50994SOL    HW164707   7.265  10.646   6.800  0.3486  0.5697 -0.2200
50994SOL    HW264708   7.318  10.545   6.701  0.0838 -1.0249  1.2054
50995SOL     OW64709  12.545  11.849  13.636 -0.5822 -0.5056  0.3956
50995SOL    HW164710  12.631  11.817  13.666 -0.4160  1.2585  1.9878
50995SOL    HW264711  12.553  11.944  13.638 -2.2404 -0.3125 -0.5311
50996SOL     OW64712   9.094   3.848  11.676  0.3893 -0.2361 -0.4834
50996SOL    HW164713   9.140   3.908  11.733 -0.7391  1.4226 -1.2373
50996SOL    HW264714   9.086   3.767  11.727  1.1127  0.5548  0.9321
50997SOL     OW64715   9.535  11.837  10.586  0.1939  0.6171  0.6773
50997SOL    HW164716   9.545  11.755  10.537  0.1900  0.2971  1.2011
50997SOL    HW264717   9.457  11.823  10.639  0.9647  0.4086  1.8099
50998SOL     OW64718   0.715   5.017   7.146 -0.1393  0.1774 -0.0570
50998SOL    HW164719   0.806   4.989   7.143  0.2204  1.2001  0.7053
50998SOL    HW264720   0.665   4.935   7.155  0.7867 -0.3165  0.8209
50999SOL     OW64721   1.897  13.655   7.800  0.1252 -0.4863 -0.3221
50999SOL    HW164722   1.963  13.619   7.859 -0.8050 -1.1852  0.3300
50999SOL    HW264723   1.931  13.740   7.775  0.5539 -0.1671  1.2321
51000SOL     OW64724   0.544   0.930   4.361 -0.0160  0.0605 -0.2286
51000SOL    HW164725   0.542   0.899   4.451  1.6229 -1.6909 -0.7258
51000SOL    HW264726   0.474   0.882   4.317  1.1237 -1.4058 -0.5127
51001SOL     OW64727   9.481   7.153   3.406 -0.0246  0.6533 -0.1051
51001SOL    HW164728   9.571   7.122   3.409 -0.2760 -0.0660  0.7160
51001SOL    HW264729   9.484   7.232   3.353  0.6339 -0.8274 -2.4380
51002SOL     OW64730   0.481   6.593   4.961 -0.3805 -0.1287  0.0173
51002SOL    HW164731   0.530   6.522   4.920 -0.5163 -0.3940  0.3128
51002SOL    HW264732   0.546   6.638   5.016 -0.6036 -0.8770  0.9191
51003SOL     OW64733   7.040   5.244  10.814  0.0878 -0.4403  0.1686
51003SOL    HW164734   6.959   5.246  10.764  0.6266 -0.4304 -0.7232
51003SOL    HW264735   7.014   5.215  10.902 -1.0907  0.9762  0.3233
51004SOL     OW64736   3.039   0.145  11.118 -0.8683  0.5216  0.4391
51004SOL    HW164737   2.973   0.113  11.180 -0.7656 -0.6098  0.0054
51004SOL    HW264738   3.016   0.101  11.035  1.0595 -0.7753  0.5392
51005SOL     OW64739   6.326  12.865   3.348 -0.9480  0.2240  0.3635
51005SOL    HW164740   6.334  12.836   3.257 -1.8230 -1.1708  0.7028
51005SOL    HW264741   6.395  12.930   3.359 -1.0336  0.6451 -1.3819
51006SOL     OW64742   9.834   8.495   3.465  0.2722 -0.0561 -0.3015
51006SOL    HW164743   9.925   8.519   3.449  0.3840 -0.5432 -0.4324
51006SOL    HW264744   9.785   8.539   3.397  0.2494  1.2519  0.5337
51007SOL     OW64745   6.393   3.814   1.123 -0.1894 -0.9007 -0.2513
51007SOL    HW164746   6.466   3.877   1.121 -0.1557 -0.8748  0.9122
51007SOL    HW264747   6.382   3.794   1.216 -3.8171  1.5994  0.0475
51008SOL     OW64748  10.779   0.938   6.295 -0.3568  0.5390 -0.1120
51008SOL    HW164749  10.779   0.965   6.387 -2.1822  0.2594 -0.0014
51008SOL    HW264750  10.752   1.017   6.247 -0.0139  0.5137 -0.3471
51009SOL     OW64751   2.988   9.725   7.809 -0.8134 -0.8552 -0.0849
51009SOL    HW164752   3.016   9.775   7.885 -1.3458  0.1324 -0.5189
51009SOL    HW264753   3.055   9.658   7.798  0.2701  0.1665  0.1263
51010SOL     OW64754  10.075  12.367   2.923 -0.6666  0.0268  0.2496
51010SOL    HW164755  10.057  12.460   2.909  2.6361  0.8542  0.6338
51010SOL    HW264756  10.132  12.365   3.000  1.8500 -1.9454 -1.4957
51011SOL     OW64757   1.465   8.035   4.270 -0.7492 -0.5647 -0.3419
51011SOL    HW164758   1.464   8.091   4.193  0.0610 -0.4050 -0.2456
51011SOL    HW264759   1.531   8.074   4.328  0.1747 -1.8703 -0.4683
51012SOL     OW64760   8.222  13.500   8.397  0.6339 -0.4011  0.3355
51012SOL    HW164761   8.197  13.408   8.407 -0.1722 -0.0098  2.3343
51012SOL    HW264762   8.312  13.504   8.431  0.4143 -0.3204  0.9042
51013SOL     OW64763   9.712   6.843  12.864  0.3780 -0.0671 -0.5363
51013SOL    HW164764   9.716   6.858  12.959  0.7122  1.0110 -0.7081
51013SOL    HW264765   9.619   6.854  12.842 -0.0108 -2.0722 -0.0876
51014SOL     OW64766   4.586   6.561   8.524 -0.8206 -0.4296  0.0144
51014SOL    HW164767   4.626   6.608   8.597  0.2819  0.7182 -1.2676
51014SOL    HW264768   4.637   6.480   8.517  0.1269  0.2004 -0.4789
51015SOL     OW64769   4.089   7.739   5.990  0.8721  0.0521 -0.3417
51015SOL    HW164770   4.177   7.722   6.025  0.4695  0.9005  1.1610
51015SOL    HW264771   4.065   7.824   6.027 -1.5582 -1.2238  1.2269
51016SOL     OW64772   2.514   5.202  10.696  0.0152 -0.4748 -0.6054
51016SOL    HW164773   2.456   5.265  10.738 -2.1085 -2.4661 -0.3819
51016SOL    HW264774   2.467   5.175  10.617  2.1682  0.2423 -2.2644
51017SOL     OW64775  11.659   2.604   0.363 -0.1616  0.1049  0.4627
51017SOL    HW164776  11.690   2.516   0.344 -0.6751  0.0364 -0.0936
51017SOL    HW264777  11.564   2.596   0.367 -0.1792  0.5209  1.0190
51018SOL     OW64778   6.646   3.741   1.986  0.0464  0.4617 -0.5700
51018SOL    HW164779   6.730   3.699   2.002  0.2775  0.4344 -1.7383
51018SOL    HW264780   6.602   3.683   1.924 -0.0590  1.4027 -1.4048
51019SOL     OW64781   4.034  12.953  10.074  0.2251  0.1087  0.0578
51019SOL    HW164782   4.036  12.980   9.982  0.6678  0.8025  0.2559
51019SOL    HW264783   4.122  12.972  10.106 -0.2267  0.8991  0.8965
51020SOL     OW64784   6.499   6.142   0.862  0.1444  0.2525  0.6771
51020SOL    HW164785   6.414   6.185   0.859 -0.7156 -1.3615 -2.2133
51020SOL    HW264786   6.561   6.212   0.884 -1.7709  1.6873  1.7625
51021SOL     OW64787   0.463   5.563  12.291  0.0946  0.1772 -0.0609
51021SOL    HW164788   0.464   5.501  12.217  0.8309 -0.9375  0.8472
51021SOL    HW264789   0.416   5.517  12.360 -2.4808  2.0431 -0.4610
51022SOL     OW64790   1.243   0.807   6.468 -0.1221  0.0898  0.1812
51022SOL    HW164791   1.221   0.834   6.379 -1.5056 -0.4214  0.3534
51022SOL    HW264792   1.268   0.888   6.512  0.4688  0.3635 -0.6310
51023SOL     OW64793   9.757  11.104   8.418 -0.3225 -0.2619  0.6032
51023SOL    HW164794   9.698  11.150   8.358  1.5733  2.4464  0.6870
51023SOL    HW264795   9.711  11.106   8.502 -0.6687  0.7085  0.4018
51024SOL     OW64796   9.276  10.644   0.988  0.0894  0.1213 -0.5355
51024SOL    HW164797   9.203  10.706   0.988  0.7116  0.8713  0.1997
51024SOL    HW264798   9.345  10.688   0.937  0.8166  0.3860  0.6464
51025SOL     OW64799   3.481   9.688   3.498  0.7576 -0.2492  0.3409
51025SOL    HW164800   3.442   9.664   3.582 -1.4114 -0.4006 -0.6216
51025SOL    HW264801   3.407   9.721   3.446  2.5284  2.6365 -0.5453
51026SOL     OW64802   7.744  11.542   9.086  0.0298  0.5582 -0.1543
51026SOL    HW164803   7.650  11.529   9.091 -0.0380  1.3452  0.7859
51026SOL    HW264804   7.768  11.579   9.171  1.3136 -0.4215 -0.0589
51027SOL     OW64805   5.897  11.379   9.472 -0.1876 -0.5975  0.2519
51027SOL    HW164806   5.832  11.310   9.454  1.3370 -2.2677  0.8339
51027SOL    HW264807   5.979  11.344   9.437  1.0531 -0.0342  2.4182
51028SOL     OW64808   9.484   8.967  12.029 -0.4336 -0.4309  0.1527
51028SOL    HW164809   9.496   8.881  11.989 -2.8929 -0.7455 -0.0767
51028SOL    HW264810   9.538   8.965  12.108  1.0395 -1.4344 -0.8340
51029SOL     OW64811   9.714   0.142   2.204 -0.2189 -0.1445 -0.0421
51029SOL    HW164812   9.764   0.066   2.174 -1.4225 -0.9515 -0.0400
51029SOL    HW264813   9.625   0.110   2.214 -0.9687  1.5142 -1.0295
51030SOL     OW64814   8.504   2.849   7.139  0.3762  0.4741  0.4007
51030SOL    HW164815   8.525   2.903   7.216  1.9588 -0.5617  0.7539
51030SOL    HW264816   8.442   2.784   7.171  0.6757  0.3305  0.6986
51031SOL     OW64817  12.270   4.940   3.449 -0.3442 -0.7046  0.3808
51031SOL    HW164818  12.223   4.963   3.369  0.4600 -1.8813 -0.4527
51031SOL    HW264819  12.237   5.002   3.515 -0.7909  0.4798 -0.9183
51032SOL     OW64820   0.967   9.280  12.516  0.4226  0.0389  0.0429
51032SOL    HW164821   1.050   9.302  12.473  0.9631 -0.4395  0.8001
51032SOL    HW264822   0.992   9.259  12.606 -0.7009  1.1667  0.6466
51033SOL     OW64823  12.262  10.319  10.026 -0.0528 -0.3841 -0.0236
51033SOL    HW164824  12.357  10.321  10.039  0.0029  1.0925 -0.4781
51033SOL    HW264825  12.226  10.355  10.107 -0.2864 -1.6666  0.4632
51034SOL     OW64826   4.646  10.854   5.420  0.5563 -0.1284  0.0031
51034SOL    HW164827   4.561  10.887   5.392  0.6395  0.0769 -0.0094
51034SOL    HW264828   4.632  10.825   5.511  0.1505 -1.3040 -0.4226
51035SOL     OW64829   9.970   5.296   7.135  0.0206  0.1333  0.2940
51035SOL    HW164830   9.955   5.349   7.057  0.2413  0.4191  0.4416
51035SOL    HW264831  10.063   5.306   7.154  0.0486 -0.2568  0.3640
51036SOL     OW64832   7.930  10.665   9.452 -0.6907  0.0751 -0.3037
51036SOL    HW164833   7.855  10.616   9.486 -0.8584  1.2098  1.0600
51036SOL    HW264834   7.920  10.753   9.490  1.5932  0.1209  0.3337
51037SOL     OW64835   2.996   0.922   7.933 -0.8048 -0.5317 -0.0661
51037SOL    HW164836   3.082   0.905   7.896 -2.5214 -1.9148 -4.0060
51037SOL    HW264837   2.997   1.016   7.954  1.9717 -0.7716  1.2048
51038SOL     OW64838  11.747   9.317   1.345  0.0086  0.8280  0.2992
51038SOL    HW164839  11.655   9.344   1.338 -0.5342 -0.2985  2.2095
51038SOL    HW264840  11.792   9.396   1.375 -0.2372  1.4864 -0.9914
51039SOL     OW64841   0.088   4.266   7.649  0.0270  0.0152 -0.2118
51039SOL    HW164842   0.031   4.273   7.726 -1.5185 -1.4734 -1.1523
51039SOL    HW264843   0.170   4.232   7.684 -0.7456 -0.9216  0.7620
51040SOL     OW64844  12.906  11.532  11.289 -0.4597 -0.2800 -0.5497
51040SOL    HW164845  12.857  11.533  11.371  0.6217 -1.9665  0.1716
51040SOL    HW264846  12.856  11.476  11.231 -0.5837 -0.0948 -0.6227
51041SOL     OW64847   9.080  11.214   9.415  0.2057 -0.0851  0.1550
51041SOL    HW164848   9.062  11.285   9.353 -1.1480 -0.4953  0.0426
51041SOL    HW264849   9.172  11.192   9.401 -0.5508 -1.6903 -3.3540
51042SOL     OW64850   0.961  11.684  10.474 -0.4260  0.2385  0.1922
51042SOL    HW164851   1.026  11.733  10.525 -2.3711  2.2402  0.9411
51042SOL    HW264852   1.002  11.599  10.457  2.3571  1.4015  0.5686
51043SOL     OW64853  10.480   3.043   7.865  0.1599  0.0401 -0.0895
51043SOL    HW164854  10.559   3.042   7.812  1.4845 -1.9999  1.7921
51043SOL    HW264855  10.506   3.088   7.946  0.0085 -2.2610  1.3074
51044SOL     OW64856  12.492   7.555  13.235 -0.5515  0.5869 -0.2056
51044SOL    HW164857  12.507   7.487  13.170  0.6741  0.4213  0.2162
51044SOL    HW264858  12.567   7.548  13.295  0.7717  3.6039 -1.2918
51045SOL     OW64859   0.205  13.134   3.089  0.1325 -0.1114  0.3510
51045SOL    HW164860   0.298  13.126   3.111  0.1033  0.5651  0.7418
51045SOL    HW264861   0.186  13.057   3.035  0.8534 -0.3925  0.4949
51046SOL     OW64862   3.499  12.658  10.488 -0.4176  0.3338 -0.1647
51046SOL    HW164863   3.513  12.729  10.550 -1.9580 -0.0026  0.5938
51046SOL    HW264864   3.493  12.702  10.403  1.3218  0.8285 -0.0702
51047SOL     OW64865  11.678   9.800   0.782  0.4346  0.0488 -0.3554
51047SOL    HW164866  11.693   9.890   0.809  0.3567 -0.3817  1.2566
51047SOL    HW264867  11.747   9.782   0.718  1.9673  0.5348  1.0780
51048SOL     OW64868   8.284  10.938   6.631 -0.1232 -0.3641 -0.1483
51048SOL    HW164869   8.336  10.994   6.573 -0.9632 -1.3712 -1.9561
51048SOL    HW264870   8.270  10.991   6.709  4.0454 -0.2161  0.7513
51049SOL     OW64871   7.352   5.100  10.084 -0.0475 -0.1734 -0.1547
51049SOL    HW164872   7.338   5.095  10.179 -2.1477 -2.1726 -0.4811
51049SOL    HW264873   7.431   5.049  10.068 -0.6457 -1.2843  0.3727
51050SOL     OW64874   8.272  13.567   4.221  0.3607  0.0041 -0.3632
51050SOL    HW164875   8.195  13.543   4.272 -0.4864 -1.1259 -2.0594
51050SOL    HW264876   8.342  13.510   4.254  0.6413  1.3552  1.4982
51051SOL     OW64877   3.528   0.301   5.256  0.2722 -0.1147  0.4378
51051SOL    HW164878   3.466   0.370   5.233  0.9489  0.9121  1.5480
51051SOL    HW264879   3.547   0.317   5.349 -1.0088 -2.9634  1.2688
51052SOL     OW64880   3.487   7.151  10.573  0.2669 -0.5984  0.3378
51052SOL    HW164881   3.399   7.169  10.605  0.2866  0.5189 -0.1936
51052SOL    HW264882   3.544   7.172  10.646  0.1504 -0.5248  0.4079
51053SOL     OW64883   1.337  13.056   0.095 -0.0255 -0.0871 -0.5277
51053SOL    HW164884   1.404  13.042   0.027  1.1319 -0.7671  0.6964
51053SOL    HW264885   1.366  13.135   0.140  1.8932 -2.0923  2.0806
51054SOL     OW64886   4.292   0.951  13.499  0.2791 -0.1039  0.0411
51054SOL    HW164887   4.309   1.040  13.531 -0.4592 -0.3800  1.2415
51054SOL    HW264888   4.287   0.897  13.578  0.8208 -1.2453 -0.6744
51055SOL     OW64889  11.258  12.493  12.142 -0.1857 -0.0109 -0.1040
51055SOL    HW164890  11.214  12.442  12.211 -1.2022  1.0071  0.0405
51055SOL    HW264891  11.226  12.582  12.156  1.2821  0.6019 -0.5696
51056SOL     OW64892   9.390   2.494  13.388  0.3575  0.1723 -0.0021
51056SOL    HW164893   9.356   2.449  13.465 -1.0646  1.2099  0.0137
51056SOL    HW264894   9.347   2.579  13.388  0.8027  0.4417 -1.5966
51057SOL     OW64895  11.475   1.939   4.045  0.5439 -0.0111 -0.0669
51057SOL    HW164896  11.479   1.994   4.123 -1.6521 -0.7509  0.6529
51057SOL    HW264897  11.451   1.999   3.974  0.8912  0.3877  0.1484
51058SOL     OW64898   4.504   4.954   9.509 -0.5697  0.5596  0.5871
51058SOL    HW164899   4.413   4.977   9.524 -1.1809 -1.5724  0.5324
51058SOL    HW264900   4.539   5.026   9.457 -2.9134  0.3295 -1.5142
51059SOL     OW64901   1.479   5.275  13.538  0.3237 -0.3025 -0.1731
51059SOL    HW164902   1.477   5.348  13.475 -0.5422 -0.8439 -0.8075
51059SOL    HW264903   1.561   5.229  13.518  0.8825  0.4933  0.2402
51060SOL     OW64904   1.350  10.637  11.050  0.1407  0.3545  0.6457
51060SOL    HW164905   1.385  10.626  11.139 -0.0390 -1.1334  0.5477
51060SOL    HW264906   1.298  10.717  11.055  2.6966  2.1032  1.0655
51061SOL     OW64907   1.267   7.045   8.635 -0.0293 -0.1765  0.4764
51061SOL    HW164908   1.295   6.962   8.598 -1.2584 -0.3872 -0.0263
51061SOL    HW264909   1.258   7.028   8.729  2.5835  0.2194  0.8752
51062SOL     OW64910   9.236   8.875   1.220 -0.2361  0.3992  0.0008
51062SOL    HW164911   9.242   8.850   1.128  2.3219  2.1263 -0.4109
51062SOL    HW264912   9.177   8.951   1.220  0.2314  0.7672 -0.3153
51063SOL     OW64913   9.306  12.479   1.582 -0.6148  0.3161 -0.0091
51063SOL    HW164914   9.399  12.496   1.566 -0.4077 -0.4054  0.3782
51063SOL    HW264915   9.288  12.400   1.531 -0.7906 -0.0613  0.6389
51064SOL     OW64916  13.065  13.556  13.730 -0.2054  0.2448  0.0738
51064SOL    HW164917  13.111  13.506  13.663  0.6784  0.1022  0.7659
51064SOL    HW264918  13.062  13.645  13.695  0.5052  0.2295 -0.0368
51065SOL     OW64919   8.671   0.006  10.339 -0.2819  0.6093 -0.0962
51065SOL    HW164920   8.738  -0.049  10.298 -0.9437  0.9893 -1.7373
51065SOL    HW264921   8.717   0.048  10.413  0.9238 -0.1297 -0.3993
51066SOL     OW64922   6.954   9.262  12.178  0.1303  0.0742 -0.8464
51066SOL    HW164923   6.968   9.291  12.268 -1.0791  0.5640 -0.7917
51066SOL    HW264924   7.032   9.290  12.130  0.4811  0.4064 -0.0912
51067SOL     OW64925   0.959  12.997  11.550 -0.8794 -0.1325 -0.0048
51067SOL    HW164926   1.012  13.045  11.613 -1.0338 -1.5340  1.2470
51067SOL    HW264927   1.001  13.013  11.466  0.2024  0.5971  0.6554
51068SOL     OW64928  10.566   1.322  12.196 -0.6156 -0.3570  0.1848
51068SOL    HW164929  10.595   1.233  12.215 -2.1108 -0.4640  2.2329
51068SOL    HW264930  10.633   1.378  12.236 -0.1691 -0.5295 -0.2953
51069SOL     OW64931   5.378   9.498   2.553  0.0009 -0.0435  0.0546
51069SOL    HW164932   5.383   9.460   2.640 -0.9215 -1.2401 -0.4001
51069SOL    HW264933   5.427   9.580   2.560  0.4467 -0.4149  1.5298
51070SOL     OW64934   4.746  10.866   9.308  0.2517  0.6158  0.3489
51070SOL    HW164935   4.804  10.926   9.260 -0.4446  1.6785  0.7799
51070SOL    HW264936   4.742  10.787   9.254  0.6286  1.2299 -0.6110
51071SOL     OW64937   0.106   6.625   5.409  0.2981 -0.7299 -0.1741
51071SOL    HW164938   0.127   6.592   5.321 -1.6448 -0.6288 -0.7220
51071SOL    HW264939   0.172   6.585   5.466  1.1490 -1.3832 -1.5663
51072SOL     OW64940   4.165  10.113  12.793  0.2138  0.5969 -0.0613
51072SOL    HW164941   4.247  10.108  12.744 -0.0587 -1.0216 -0.3985
51072SOL    HW264942   4.187  10.084  12.881 -0.1169 -0.4571 -0.3211
51073SOL     OW64943   9.731   7.356  10.490 -0.1279 -0.6346  0.3284
51073SOL    HW164944   9.791   7.395  10.552  1.2715 -0.0739 -1.3089
51073SOL    HW264945   9.663   7.315  10.544  0.6049  0.4891  2.1632
51074SOL     OW64946   4.072   2.920   9.084 -0.5053 -0.1222 -0.2009
51074SOL    HW164947   4.008   2.929   9.155  1.6591  1.2730  1.7630
51074SOL    HW264948   4.140   2.985   9.106  2.0852 -2.1967 -1.5323
51075SOL     OW64949   5.564   3.102   6.621  0.4215  0.0536 -0.3998
51075SOL    HW164950   5.582   3.046   6.696 -0.5989  1.1221  0.6970
51075SOL    HW264951   5.650   3.123   6.585  0.9198 -0.5699  0.3978
51076SOL     OW64952   9.855   0.644   5.139  0.0515  0.2128  0.0829
51076SOL    HW164953   9.833   0.728   5.097 -0.3378  0.2321  0.3157
51076SOL    HW264954   9.860   0.582   5.066  2.5750  0.8445 -0.3729
51077SOL     OW64955   8.916   4.061   2.384  0.1535 -0.1569 -0.1976
51077SOL    HW164956   8.853   4.028   2.321 -0.1152  3.3366 -2.0319
51077SOL    HW264957   8.979   4.111   2.332  3.0410 -1.4208  1.8392
51078SOL     OW64958   2.998   4.694   4.615 -0.6418 -0.0803  0.0328
51078SOL    HW164959   3.028   4.634   4.547 -0.0404 -0.3409  0.5195
51078SOL    HW264960   3.069   4.757   4.623 -0.3540 -0.5176  0.9797
51079SOL     OW64961   5.001   2.379   5.057  0.3953  0.2823 -0.3863
51079SOL    HW164962   4.931   2.372   4.991 -1.0246 -0.3278  1.1102
51079SOL    HW264963   5.034   2.468   5.047  2.0517 -0.5378 -3.6306
51080SOL     OW64964   7.913   1.184   4.255  0.1894  0.2838 -0.3787
51080SOL    HW164965   7.896   1.136   4.337  3.9892  0.5850  0.8061
51080SOL    HW264966   7.836   1.239   4.243 -0.7799 -0.1964  2.7044
51081SOL     OW64967  13.329   0.644   4.701  0.0597  0.5155  0.3870
51081SOL    HW164968  13.254   0.610   4.752 -0.7202 -0.1490 -1.1423
51081SOL    HW264969  13.322   0.739   4.709 -0.0570  0.4294  1.4923
51082SOL     OW64970  12.045  12.125  11.430 -0.4770 -0.4126 -0.4531
51082SOL    HW164971  11.956  12.091  11.438 -0.0104 -1.4493  0.6928
51082SOL    HW264972  12.064  12.124  11.337 -2.1725  1.2064 -0.8591
51083SOL     OW64973   5.963   9.104  10.475  0.5835 -0.3610  0.1729
51083SOL    HW164974   5.908   9.152  10.413 -0.4441 -2.0438 -0.2882
51083SOL    HW264975   5.931   9.130  10.561  0.3334  0.0973 -0.0547
51084SOL     OW64976   3.576   1.621   8.203  0.2166 -0.0834  0.2229
51084SOL    HW164977   3.516   1.574   8.260 -0.5687  1.1347  0.4370
51084SOL    HW264978   3.651   1.562   8.193  0.0857 -0.5979  1.9694
51085SOL     OW64979   0.482   8.173  11.006 -0.9625 -0.3529 -0.5616
51085SOL    HW164980   0.395   8.143  11.030 -1.1930 -2.4266 -3.4240
51085SOL    HW264981   0.468   8.227  10.928  0.3360 -2.0743 -2.0782
51086SOL     OW64982   5.819   9.767  13.700  0.1373 -0.1974 -0.3612
51086SOL    HW164983   5.822   9.688  13.646 -1.2863 -1.0179  0.6841
51086SOL    HW264984   5.752   9.748  13.766  1.3972  1.0088  1.3334
51087SOL     OW64985   5.377   5.515  10.399 -0.0527 -0.2469  0.3420
51087SOL    HW164986   5.463   5.518  10.357 -0.1592  0.5928  0.1650
51087SOL    HW264987   5.394   5.478  10.486  0.4753 -0.1685  0.2749
51088SOL     OW64988  13.643   8.561   7.298  0.2092  0.2580 -0.7115
51088SOL    HW164989  13.577   8.492   7.291 -0.6164  1.0697 -1.2016
51088SOL    HW264990  13.611   8.616   7.370  1.9135 -0.9370  1.0716
51089SOL     OW64991   9.221   1.689   1.903 -0.5280 -0.4185  0.5427
51089SOL    HW164992   9.282   1.761   1.886  0.6271 -1.8340 -1.6991
51089SOL    HW264993   9.245   1.657   1.990  0.2741  0.5998  0.7216
51090SOL     OW64994  13.269   9.039   8.893  0.1075  0.1597 -0.0070
51090SOL    HW164995  13.235   9.068   8.808 -0.5851 -0.1556  0.1556
51090SOL    HW264996  13.267   8.944   8.889  2.9010  0.0576 -0.7452
51091SOL     OW64997   7.130  12.703   9.921 -0.4780 -0.1711 -0.2639
51091SOL    HW164998   7.139  12.608   9.929 -1.0116 -0.2365 -0.3712
51091SOL    HW264999   7.036  12.719   9.929 -0.2507  0.5429  1.8930
51092SOL     OW65000  12.961   9.870   5.944  0.2113  0.2573 -0.2777
51092SOL    HW165001  12.968   9.790   5.893  1.4550 -0.7493  1.3796
51092SOL    HW265002  12.960   9.841   6.035 -0.5219  2.0679  0.3362
51093SOL     OW65003  10.440   2.487  10.109  0.2118 -0.3255  0.1399
51093SOL    HW165004  10.386   2.440  10.045  0.4250  0.7935 -0.9105
51093SOL    HW265005  10.455   2.573  10.069  1.4479 -0.0505  1.1151
51094SOL     OW65006  10.671   8.144   4.437  0.8340  0.1610  0.3457
51094SOL    HW165007  10.594   8.195   4.463 -0.2921 -1.3924  0.1915
51094SOL    HW265008  10.728   8.146   4.514  0.6995  1.4082  0.4343
51095SOL     OW65009   4.572  12.502   9.832 -0.1348 -0.2552  0.4039
51095SOL    HW165010   4.489  12.469   9.867 -0.6995  1.3495  0.6366
51095SOL    HW265011   4.587  12.583   9.880  0.4886  0.5705 -1.1358
51096SOL     OW65012   9.330   8.563  11.313 -0.2363  0.6292  0.3114
51096SOL    HW165013   9.359   8.564  11.221  2.3046 -0.8933  1.0044
51096SOL    HW265014   9.341   8.473  11.341 -1.7107  0.9106  1.9341
51097SOL     OW65015  12.841  13.021   5.814 -0.1307  0.0972  0.5700
51097SOL    HW165016  12.876  12.941   5.852  0.6908  0.6887  1.0896
51097SOL    HW265017  12.761  12.994   5.769  1.3119 -1.4032 -1.2102
51098SOL     OW65018   6.115  10.256   4.845 -0.4478 -0.0845 -0.5017
51098SOL    HW165019   6.064  10.238   4.766  1.4527  0.9497 -2.0258
51098SOL    HW265020   6.190  10.197   4.840 -0.6523 -0.5255  0.9506
51099SOL     OW65021   7.909  12.610   8.919  0.4794  0.3875 -0.1115
51099SOL    HW165022   7.937  12.559   8.994 -2.0995 -3.0594 -1.1897
51099SOL    HW265023   7.979  12.599   8.854  1.0265  0.2178  0.5051
51100SOL     OW65024   5.839  11.615   3.206 -0.7207 -0.1644 -0.1468
51100SOL    HW165025   5.924  11.575   3.221 -2.4832 -4.0595  0.6691
51100SOL    HW265026   5.826  11.672   3.282 -0.2514 -2.3393  1.6862
51101SOL     OW65027   9.467   6.437   7.196 -0.7018  0.0467  0.6666
51101SOL    HW165028   9.468   6.506   7.262 -1.1694  0.4541  0.2655
51101SOL    HW265029   9.404   6.468   7.130 -1.4124 -1.0573  0.7906
51102SOL     OW65030   8.572  11.271  13.688 -0.5090  0.9918  0.0925
51102SOL    HW165031   8.491  11.223  13.676 -0.3193  0.1606  1.8636
51102SOL    HW265032   8.632  11.234  13.623 -0.3666 -1.2410  1.3950
51103SOL     OW65033  13.129   6.155   2.250 -0.1331 -0.0812 -0.5266
51103SOL    HW165034  13.047   6.187   2.211  0.0074  0.6698 -0.2317
51103SOL    HW265035  13.197   6.188   2.191  0.0482  0.6385  0.0632
51104SOL     OW65036   1.867   7.457  13.027 -0.5080 -0.0850 -0.0480
51104SOL    HW165037   1.868   7.385  13.090 -1.1583  0.3753  0.5076
51104SOL    HW265038   1.939   7.513  13.054 -0.0330 -0.4923 -0.4507
51105SOL     OW65039  12.740   7.383   9.327 -0.0207  0.3339  0.3953
51105SOL    HW165040  12.778   7.405   9.413  0.7668 -0.6937  0.3418
51105SOL    HW265041  12.770   7.453   9.269 -1.5668  1.7174  1.1683
51106SOL     OW65042  10.708  13.065   3.398  0.0004 -0.2261 -0.0484
51106SOL    HW165043  10.652  13.035   3.327  0.3793  0.1542 -0.5211
51106SOL    HW265044  10.764  13.132   3.357  0.6961 -0.4964  0.4385
51107SOL     OW65045   2.354   0.025   1.749 -0.2761 -0.4328 -0.4982
51107SOL    HW165046   2.304   0.098   1.785  0.9823  0.2565 -0.1134
51107SOL    HW265047   2.314   0.009   1.663 -1.4023 -0.1691 -0.0382
51108SOL     OW65048  12.989  12.706  13.210  0.2631 -0.0626 -0.7065
51108SOL    HW165049  13.079  12.703  13.179  0.1967 -0.1206 -0.8965
51108SOL    HW265050  12.995  12.744  13.298  0.3520  1.0379 -1.1766
51109SOL     OW65051  11.123  11.346   1.990  0.1848 -0.3638  0.0231
51109SOL    HW165052  11.064  11.352   1.915 -0.4248  2.1068  0.6209
51109SOL    HW265053  11.065  11.348   2.066  0.9346  0.8332  0.5937
51110SOL     OW65054  10.931  11.374   1.805  0.3844  0.0094  0.6040
51110SOL    HW165055  10.894  11.357   1.719  0.9796  0.6025  0.2207
51110SOL    HW265056  10.859  11.414   1.855  0.7322  2.0681 -0.4401
51111SOL     OW65057   2.534   6.998   8.999 -0.3405 -0.4133 -0.4220
51111SOL    HW165058   2.514   7.038   8.914  0.0654  0.0506 -0.3064
51111SOL    HW265059   2.626   6.975   8.994 -0.3997 -0.6894 -0.2288
51112SOL     OW65060  13.273  11.642   5.504 -0.6073  0.0351  0.0777
51112SOL    HW165061  13.349  11.635   5.446 -0.9985 -1.8935 -0.2749
51112SOL    HW265062  13.279  11.730   5.540  0.8943  0.5041 -1.1771
51113SOL     OW65063  11.980   0.813   9.909 -0.4769  0.0854  1.1058
51113SOL    HW165064  11.912   0.866   9.950 -2.5715 -0.6934 -1.0780
51113SOL    HW265065  11.966   0.725   9.943 -2.0257 -0.5008 -0.8341
51114SOL     OW65066  10.238   5.339   6.887  0.4992  0.7773 -0.0119
51114SOL    HW165067  10.302   5.289   6.937  0.7088  0.8291 -0.2272
51114SOL    HW265068  10.189   5.272   6.838 -0.7036  0.5808  1.3674
51115SOL     OW65069   2.876  11.785   9.686  0.2066 -0.4737 -0.0532
51115SOL    HW165070   2.964  11.813   9.712 -0.4736  0.6612  1.1020
51115SOL    HW265071   2.826  11.783   9.767 -1.5248  1.5077 -0.9570
51116SOL     OW65072   5.526   9.045   4.334  0.5736  0.5972 -0.0007
51116SOL    HW165073   5.496   9.019   4.247 -2.3902  2.2979  0.3650
51116SOL    HW265074   5.558   8.964   4.374 -2.5051 -1.2501 -0.9777
51117SOL     OW65075   3.282   5.633   2.536 -0.2446  0.2170 -0.3778
51117SOL    HW165076   3.311   5.542   2.535 -0.2597  0.1655  1.1222
51117SOL    HW265077   3.188   5.628   2.556 -0.1299  0.5723  0.2756
51118SOL     OW65078   7.440   0.464   2.557  0.4266  0.0181 -0.0377
51118SOL    HW165079   7.380   0.493   2.626  0.5738  1.2525 -0.4108
51118SOL    HW265080   7.447   0.538   2.498 -0.1386 -1.2131 -1.7173
51119SOL     OW65081   7.587   4.603   7.559 -0.2452  0.0309  0.2934
51119SOL    HW165082   7.593   4.518   7.516 -0.1467 -0.3526  1.0588
51119SOL    HW265083   7.666   4.610   7.612 -1.3282 -0.4311  2.0631
51120SOL     OW65084   6.167   4.066  12.873  0.0249 -0.1991 -0.5520
51120SOL    HW165085   6.258   4.051  12.898  0.2149  0.4938 -0.8035
51120SOL    HW265086   6.117   4.044  12.952  0.5343  0.9751  0.1282
51121SOL     OW65087   3.332   3.633  13.052  0.3047 -0.3332 -0.5663
51121SOL    HW165088   3.398   3.581  13.006  0.5713 -1.0069  0.5534
51121SOL    HW265089   3.350   3.619  13.145  0.0714  1.3628 -0.2233
51122SOL     OW65090   8.583   2.420  10.592 -0.0006  0.7163  0.0681
51122SOL    HW165091   8.621   2.507  10.584  0.8760  0.3578  0.1587
51122SOL    HW265092   8.639   2.365  10.537 -0.1497  0.1053  0.5188
51123SOL     OW65093  10.475  11.431   6.251  0.4309  0.0336  0.1899
51123SOL    HW165094  10.472  11.336   6.245 -0.6454 -0.0310  1.3498
51123SOL    HW265095  10.513  11.449   6.338 -0.2454  0.6404  0.3689
51124SOL     OW65096   8.515   3.247  11.339 -0.0733 -0.3684  0.1743
51124SOL    HW165097   8.504   3.337  11.309  0.5219 -0.1617  0.5504
51124SOL    HW265098   8.610   3.231  11.332  0.0766 -0.3520  1.8070
51125SOL     OW65099   5.552  13.445   2.520  0.4110 -0.1185  0.2153
51125SOL    HW165100   5.502  13.371   2.484  0.1921 -2.6424  4.8536
51125SOL    HW265101   5.533  13.442   2.614  4.4324  2.7331  1.3672
51126SOL     OW65102   3.755   5.654  13.478 -0.4000  0.4740  0.0253
51126SOL    HW165103   3.758   5.748  13.460  1.1927  0.5024  0.2839
51126SOL    HW265104   3.845   5.631  13.500 -1.0079 -0.8685  1.2696
51127SOL     OW65105   4.715   0.416  12.056  0.1910 -0.6585  0.3290
51127SOL    HW165106   4.660   0.338  12.040  1.1324 -1.3726  0.5048
51127SOL    HW265107   4.790   0.383  12.105  0.2653  0.4945  1.0221
51128SOL     OW65108   8.480   8.569   9.140  0.2279 -0.3546  0.0032
51128SOL    HW165109   8.407   8.571   9.078  0.4129  2.8600 -0.3023
51128SOL    HW265110   8.558   8.570   9.085  0.5736 -2.8252  0.3422
51129SOL     OW65111   7.593  11.840  11.058 -0.4605  0.2960  0.1257
51129SOL    HW165112   7.605  11.837  11.152 -0.3775 -0.7681  0.0920
51129SOL    HW265113   7.648  11.913  11.029  0.0394  0.1957  0.8107
51130SOL     OW65114   8.476  13.541  12.883 -0.0711 -0.6809 -0.6731
51130SOL    HW165115   8.455  13.537  12.789 -1.9766 -0.0562 -0.3188
51130SOL    HW265116   8.506  13.631  12.896  0.7381 -0.9290 -0.7645
51131SOL     OW65117   9.305   2.762  13.380  0.1251  0.1312  0.3684
51131SOL    HW165118   9.335   2.801  13.299  1.4358  0.3192  0.9124
51131SOL    HW265119   9.210   2.766  13.376  0.0696 -1.7176 -2.0611
51132SOL     OW65120   2.716  12.815  10.324 -0.1439 -0.5886 -0.4105
51132SOL    HW165121   2.706  12.892  10.268 -0.4383 -0.0112  0.4164
51132SOL    HW265122   2.805  12.783  10.306  0.6585  1.0042  0.5094
51133SOL     OW65123   2.016   6.580  11.078  0.0327  0.2818  0.5470
51133SOL    HW165124   2.012   6.484  11.073 -0.0602  0.3651 -1.9539
51133SOL    HW265125   2.022   6.609  10.987 -1.9371  2.7358  1.0858
51134SOL     OW65126   3.885   3.579   3.742 -0.5979  0.3891 -0.1866
51134SOL    HW165127   3.938   3.647   3.701  1.7652  0.4428  2.6224
51134SOL    HW265128   3.825   3.627   3.799  1.9072  0.3336  2.7639
51135SOL     OW65129   9.336   3.050   9.892  0.0009 -0.2779  0.6129
51135SOL    HW165130   9.371   3.042   9.803  0.1482  2.1796  0.3601
51135SOL    HW265131   9.401   3.103   9.939 -1.1070  0.3332  1.5209
51136SOL     OW65132   6.357   0.393   0.894 -0.0485  0.0457  0.0017
51136SOL    HW165133   6.432   0.347   0.932  1.9871  0.9283 -2.6535
51136SOL    HW265134   6.386   0.483   0.882 -2.1065  0.8089  0.1997
51137SOL     OW65135   6.812  10.328   0.447 -0.1404 -0.2822  0.1408
51137SOL    HW165136   6.755  10.396   0.412 -0.8379 -0.6257  0.5765
51137SOL    HW265137   6.774  10.246   0.413  0.9759 -0.4324 -0.7835
51138SOL     OW65138   8.978  11.352   7.575  0.5877 -0.2131 -0.0624
51138SOL    HW165139   8.970  11.403   7.656  1.3853 -0.3965  0.1402
51138SOL    HW265140   8.888  11.344   7.543  0.3308  0.3884  0.4777
51139SOL     OW65141   7.256  12.827   8.836 -0.1554 -0.1853  0.0317
51139SOL    HW165142   7.338  12.858   8.873 -0.1854 -0.1341  0.0567
51139SOL    HW265143   7.235  12.891   8.768 -0.5811  0.2570  0.5629
51140SOL     OW65144   2.039  10.313   1.390  0.5054 -0.6663  0.9506
51140SOL    HW165145   2.036  10.219   1.373  0.3057 -0.4262 -0.4489
51140SOL    HW265146   2.086  10.350   1.316 -0.9970  0.5255  0.5348
51141SOL     OW65147   7.073   8.273   6.792  0.3478  0.3020 -0.5714
51141SOL    HW165148   7.043   8.294   6.703 -0.0793  0.1166 -0.4721
51141SOL    HW265149   7.071   8.178   6.797 -1.2540  0.3434  0.1796
51142SOL     OW65150   9.375  12.012  11.222  0.4447 -0.4640  0.6836
51142SOL    HW165151   9.433  11.989  11.149  1.4582  0.5125  1.1597
51142SOL    HW265152   9.304  11.947  11.217  0.1707 -0.0886 -1.5232
51143SOL     OW65153   7.060   5.227  12.880 -0.0124  0.4050 -0.2242
51143SOL    HW165154   7.108   5.179  12.813  1.6812  1.5275  0.1349
51143SOL    HW265155   7.127   5.276  12.928 -1.4968  1.9281  0.4085
51144SOL     OW65156   9.805   6.710   4.183  0.1323  0.1606  0.1221
51144SOL    HW165157   9.862   6.787   4.189  2.9808 -1.4468 -2.5265
51144SOL    HW265158   9.862   6.637   4.207 -1.9912 -1.3100  0.9674
51145SOL     OW65159   2.000   4.738  12.010 -0.4334 -0.2588 -0.1970
51145SOL    HW165160   2.065   4.668  12.009  0.3010  0.3899  0.5997
51145SOL    HW265161   2.038   4.806  12.066 -1.5729  0.3570 -0.1332
51146SOL     OW65162   8.717   3.527   8.740 -0.3192  0.2023 -0.6128
51146SOL    HW165163   8.779   3.454   8.741  0.2844  0.6988 -0.9520
51146SOL    HW265164   8.729   3.568   8.654  0.8142  1.9256  0.3107
51147SOL     OW65165   2.629   1.404  12.345 -0.4893  0.2788 -0.1969
51147SOL    HW165166   2.573   1.328  12.331 -0.1908  0.0160  0.0227
51147SOL    HW265167   2.650   1.402  12.438  0.7967 -0.2746 -0.4704
51148SOL     OW65168   6.268   6.789   8.124 -0.1971 -0.1455 -0.3501
51148SOL    HW165169   6.203   6.788   8.194 -0.5949  0.1017 -0.7119
51148SOL    HW265170   6.271   6.698   8.094 -1.5910  0.1274 -1.4284
51149SOL     OW65171   9.581  10.773   0.892 -0.3841 -0.1506 -0.3923
51149SOL    HW165172   9.667  10.737   0.871 -0.2249  0.4283 -0.7354
51149SOL    HW265173   9.553  10.816   0.812 -1.1104 -0.5595 -0.3648
51150SOL     OW65174   2.615   1.725   7.553 -0.0901  0.1867 -0.1202
51150SOL    HW165175   2.520   1.735   7.551 -0.0298  1.0801  0.5595
51150SOL    HW265176   2.629   1.636   7.583 -0.7325  0.4964  1.1812
51151SOL     OW65177  12.875   0.271  13.159 -0.1971  0.3068  0.2399
51151SOL    HW165178  12.965   0.271  13.126 -0.2885  0.8283 -0.0125
51151SOL    HW265179  12.884   0.282  13.254  0.0651 -1.1971  0.4235
51152SOL     OW65180  13.608   6.167   5.855 -0.1379 -0.0391  0.2923
51152SOL    HW165181  13.545   6.122   5.911 -0.3384 -0.1641 -0.0324
51152SOL    HW265182  13.689   6.118   5.866 -0.8060 -1.6889 -1.5192
51153SOL     OW65183  13.591   9.127   9.593  0.9384  0.6195  0.0045
51153SOL    HW165184  13.515   9.086   9.551  1.2091  0.7910 -0.6791
51153SOL    HW265185  13.554   9.182   9.661  0.5199 -0.1532  0.4217
51154SOL     OW65186   3.753   0.599   4.126 -0.1765  0.2214 -0.1629
51154SOL    HW165187   3.799   0.683   4.125  0.1361  0.1402  2.4041
51154SOL    HW265188   3.741   0.578   4.033  0.5375  2.6400 -0.8830
51155SOL     OW65189  12.567   0.452   1.638 -0.2895 -0.4502  0.3721
51155SOL    HW165190  12.575   0.533   1.688 -0.0728  0.3860 -0.9531
51155SOL    HW265191  12.658   0.424   1.624 -0.3362 -0.4888  0.1472
51156SOL     OW65192   2.352   3.113  10.732 -0.2283 -0.1326 -0.5699
51156SOL    HW165193   2.326   3.074  10.649 -1.0023  1.7293 -1.2776
51156SOL    HW265194   2.434   3.159  10.713 -0.9388  1.1737 -0.6374
51157SOL     OW65195   3.235   5.865  10.788 -0.1600  0.5352 -0.2912
51157SOL    HW165196   3.319   5.879  10.745 -0.2370  0.0127 -0.6117
51157SOL    HW265197   3.249   5.896  10.878  0.6066 -0.2635 -0.1212
51158SOL     OW65198   0.187   8.305   7.275  0.0082 -0.3457 -0.0202
51158SOL    HW165199   0.275   8.269   7.278 -0.4528 -1.5717 -0.6662
51158SOL    HW265200   0.164   8.319   7.367  1.5307  1.7427  0.1149
51159SOL     OW65201   5.625  10.421   4.881 -0.1947 -0.0815  0.1246
51159SOL    HW165202   5.679  10.345   4.902  0.0968 -0.2583 -1.2085
51159SOL    HW265203   5.617  10.420   4.786  0.4766  2.0046 -0.0060
51160SOL     OW65204  11.882   8.163  13.175 -0.3412 -0.3667 -0.6032
51160SOL    HW165205  11.929   8.234  13.131  0.4452 -0.4200  0.1355
51160SOL    HW265206  11.790   8.187  13.165 -0.0828  1.1500  0.2493
51161SOL     OW65207   1.690   0.314   9.697  0.0140  0.4617 -0.2510
51161SOL    HW165208   1.722   0.388   9.748  0.3119  1.0148 -1.2006
51161SOL    HW265209   1.684   0.348   9.607  0.2412 -0.6919 -0.7220
51162SOL     OW65210   7.182   2.922  12.648 -0.3698 -0.3642 -0.6239
51162SOL    HW165211   7.276   2.932  12.631 -1.0644  2.6588 -3.8948
51162SOL    HW265212   7.161   2.990  12.712 -0.5387 -0.1705 -0.8839
51163SOL     OW65213   1.521   0.874   8.448  0.3995 -0.1540  0.6935
51163SOL    HW165214   1.438   0.858   8.492  0.7735  0.3501  1.6035
51163SOL    HW265215   1.500   0.937   8.379 -0.0446 -0.3679  0.6296
51164SOL     OW65216   0.005  12.068   7.580  0.1623  0.2084  0.7187
51164SOL    HW165217   0.031  12.157   7.606  3.5461 -0.3788 -0.2192
51164SOL    HW265218  -0.002  12.021   7.663 -2.9181  1.5155  1.3366
51165SOL     OW65219   6.827  11.072  13.600 -0.3240  0.1168  0.4843
51165SOL    HW165220   6.899  11.086  13.538 -0.5224  1.3113  0.4972
51165SOL    HW265221   6.843  10.985  13.637  0.5142 -0.0716 -0.2985
51166SOL     OW65222   1.109   9.350  13.151 -0.4273  0.3242 -0.2331
51166SOL    HW165223   1.065   9.432  13.170  0.5938  0.8039  0.1407
51166SOL    HW265224   1.103   9.300  13.233 -0.9165  0.0788 -0.4140
51167SOL     OW65225   9.424  10.242  10.540  0.3350  0.5878  0.3062
51167SOL    HW165226   9.505  10.207  10.502  1.2302  2.2548  0.5760
51167SOL    HW265227   9.356  10.179  10.515  1.7455 -1.0230  0.3318
51168SOL     OW65228   7.108   9.577   3.592 -0.1255  0.1098 -0.0702
51168SOL    HW165229   7.193   9.568   3.636  0.5262  1.6958 -0.9216
51168SOL    HW265230   7.070   9.657   3.629 -1.5141 -0.8387  0.6528
51169SOL     OW65231   9.843   9.399   9.388  0.1927 -1.0421 -0.1499
51169SOL    HW165232   9.896   9.401   9.468 -0.8025  0.2365  0.5091
51169SOL    HW265233   9.894   9.448   9.324  0.9839 -2.0544 -0.3277
51170SOL     OW65234  11.399   1.568   7.284  0.5450 -0.0750 -0.5799
51170SOL    HW165235  11.396   1.495   7.221  0.0287 -0.5490 -0.0228
51170SOL    HW265236  11.420   1.526   7.368 -1.5838  0.1533  0.1134
51171SOL     OW65237   8.458   9.516   5.357  0.7726 -0.8824 -0.6240
51171SOL    HW165238   8.375   9.470   5.371 -0.0025  0.2706 -1.2401
51171SOL    HW265239   8.483   9.494   5.267  0.6477 -0.4771 -0.7572
51172SOL     OW65240   3.578   6.032   7.275 -0.0938 -0.3655 -0.7958
51172SOL    HW165241   3.616   5.955   7.317 -0.2745  0.0828  0.2211
51172SOL    HW265242   3.490   6.040   7.313  0.4418  1.1710  0.2457
51173SOL     OW65243  11.351   8.869   1.584  0.3857 -0.1283 -0.2885
51173SOL    HW165244  11.282   8.807   1.560  0.0673  0.7468 -1.7680
51173SOL    HW265245  11.431   8.817   1.583 -0.2278 -1.1773  1.5435
51174SOL     OW65246   4.971   0.764   5.378  0.6534  0.4799  0.1289
51174SOL    HW165247   4.936   0.797   5.295  3.0735 -2.2297 -2.2204
51174SOL    HW265248   4.911   0.694   5.404  0.8995  0.0249 -0.4822
51175SOL     OW65249  10.815  10.446   7.801  0.7029 -0.2044  0.0981
51175SOL    HW165250  10.812  10.358   7.839 -2.3142  1.0209  3.2666
51175SOL    HW265251  10.760  10.439   7.723 -0.1467 -1.0264  0.7331
51176SOL     OW65252   6.729   4.529   9.783  0.2767  0.3050 -0.2127
51176SOL    HW165253   6.816   4.495   9.761  0.7952  1.9446 -0.8410
51176SOL    HW265254   6.731   4.539   9.878  0.7026  0.1359 -0.2015
51177SOL     OW65255   5.654   7.641   3.056  0.4867  0.2987  0.1430
51177SOL    HW165256   5.732   7.658   3.109  1.2826 -1.1172 -0.5052
51177SOL    HW265257   5.685   7.650   2.965 -0.3609  0.7229 -0.1087
51178SOL     OW65258   7.961   0.759   3.412  0.9904 -0.2914 -0.0019
51178SOL    HW165259   8.026   0.824   3.436  0.5606  0.0023  0.4003
51178SOL    HW265260   7.927   0.727   3.496 -0.6922  0.9088 -0.1600
51179SOL     OW65261   2.311   5.875   1.471  0.2626  0.0429  0.1452
51179SOL    HW165262   2.369   5.845   1.541 -0.3348 -0.4347  0.4458
51179SOL    HW265263   2.364   5.871   1.392  1.1373  1.1549  0.6426
51180SOL     OW65264   1.401   8.282  12.399  0.1534  0.5260  0.1580
51180SOL    HW165265   1.456   8.341  12.450  1.5277 -0.2300 -0.3928
51180SOL    HW265266   1.325   8.266  12.455  1.0170  0.7151  1.4287
51181SOL     OW65267   2.798   5.137  10.148  0.2146 -0.0868 -0.1254
51181SOL    HW165268   2.725   5.109  10.203 -0.7320 -0.2507 -1.3958
51181SOL    HW265269   2.758   5.200  10.087  1.2683  0.2570 -0.4786
51182SOL     OW65270  11.339  11.852   2.591 -0.6972 -0.4071  0.6863
51182SOL    HW165271  11.364  11.908   2.665 -2.4677  1.3348  0.0699
51182SOL    HW265272  11.353  11.908   2.514 -0.4704 -1.6033 -0.1642
51183SOL     OW65273   8.732   7.640   5.406  0.5112 -0.0642 -0.2991
51183SOL    HW165274   8.819   7.679   5.420  0.6866 -0.5789  0.0506
51183SOL    HW265275   8.681   7.667   5.482 -0.5343  2.6470 -1.8227
51184SOL     OW65276   6.152  11.106   8.433 -0.1917 -0.0785  0.1517
51184SOL    HW165277   6.228  11.073   8.481  0.0373  0.4574  0.1619
51184SOL    HW265278   6.184  11.183   8.386 -0.5012 -0.3858 -0.5810
51185SOL     OW65279   8.306   4.514   2.888 -0.0397  0.1323 -0.2503
51185SOL    HW165280   8.302   4.465   2.806 -1.0072  0.2945 -0.3133
51185SOL    HW265281   8.246   4.468   2.947  1.6695 -0.8089  0.8500
51186SOL     OW65282   7.040   2.046  11.069 -0.2012 -0.2086  0.6855
51186SOL    HW165283   7.037   2.111  11.140  0.6479  0.3657  0.2228
51186SOL    HW265284   6.964   2.066  11.015 -0.4382 -0.1734  1.0260
51187SOL     OW65285   0.021   7.613   1.279  0.0227  0.2070  0.3491
51187SOL    HW165286  -0.034   7.623   1.357 -0.6121  0.6456 -0.1379
51187SOL    HW265287   0.050   7.522   1.281 -1.4448 -0.2909  0.1777
51188SOL     OW65288   0.275  11.912  13.447  0.3452 -0.2647  0.0721
51188SOL    HW165289   0.278  11.890  13.354  1.4119 -0.7256  0.1996
51188SOL    HW265290   0.232  11.836  13.488  1.2455 -0.7568  0.1311
51189SOL     OW65291   4.214   5.916  12.160 -0.1968  0.0864 -0.4305
51189SOL    HW165292   4.122   5.922  12.137 -0.0298 -1.4800 -1.7053
51189SOL    HW265293   4.261   5.955  12.087  0.1701  0.9821  0.2636
51190SOL     OW65294   8.513   2.695  12.164  0.1132  0.0189  0.0334
51190SOL    HW165295   8.581   2.693  12.232  1.0990  0.6799 -0.8932
51190SOL    HW265296   8.520   2.783  12.127 -0.6986 -0.1929 -0.6448
51191SOL     OW65297   5.556   4.306  11.471 -0.6727 -0.6447  0.6024
51191SOL    HW165298   5.564   4.212  11.483  0.1933 -0.6131  0.2953
51191SOL    HW265299   5.578   4.343  11.556  1.1999 -0.6270  0.1414
51192SOL     OW65300   4.689   0.433   0.195 -0.3077 -0.2679  0.2280
51192SOL    HW165301   4.664   0.488   0.269 -0.6987  0.8415 -0.6990
51192SOL    HW265302   4.731   0.357   0.235  0.2077  0.6721  1.5603
51193SOL     OW65303  12.995   2.997   1.275 -0.7199  0.7040  0.6480
51193SOL    HW165304  12.905   2.964   1.279 -0.0309 -1.2358  1.6890
51193SOL    HW265305  13.023   3.000   1.367  0.3387  1.1405  0.3233
51194SOL     OW65306  12.127  13.416   4.851 -0.6745 -0.7440 -0.6465
51194SOL    HW165307  12.158  13.477   4.784 -1.5736  0.0586 -0.3517
51194SOL    HW265308  12.166  13.447   4.932 -3.8553  1.6793  0.1540
51195SOL     OW65309   0.528   4.640   9.508 -0.0663  0.3388 -0.4447
51195SOL    HW165310   0.526   4.590   9.426  0.8270  0.6134 -0.6496
51195SOL    HW265311   0.557   4.577   9.574  2.9652  0.9590 -1.0443
51196SOL     OW65312   3.027   2.611   9.279 -0.3893 -0.4811  0.1589
51196SOL    HW165313   3.071   2.526   9.289 -1.3665 -0.9708  0.4768
51196SOL    HW265314   2.975   2.620   9.359  0.2562  0.7667  0.4615
51197SOL     OW65315   4.963   3.533  11.297  0.2489  0.5096 -0.6128
51197SOL    HW165316   4.946   3.532  11.391 -0.2763  0.2681 -0.7048
51197SOL    HW265317   5.056   3.514  11.289 -0.1475 -1.9212 -0.2384
51198SOL     OW65318   4.248   2.795   5.941 -0.1917  0.1037 -0.5506
51198SOL    HW165319   4.197   2.852   5.884  0.4249 -0.6268 -1.8687
51198SOL    HW265320   4.187   2.773   6.012 -1.5267 -0.2247 -1.7418
51199SOL     OW65321   6.467   0.501  10.964  0.4130  0.0157 -0.5464
51199SOL    HW165322   6.386   0.449  10.967  0.5912 -0.2092  0.4908
51199SOL    HW265323   6.457   0.565  11.033  0.7491  0.5660 -1.0037
51200SOL     OW65324   1.373   1.578  12.343  0.2156  0.3590  0.0092
51200SOL    HW165325   1.285   1.562  12.375  0.1878  0.7909  0.1559
51200SOL    HW265326   1.390   1.670  12.364  1.1735 -0.0479  1.1001
51201SOL     OW65327  10.669  12.764   6.637 -0.0642 -0.0252  0.3876
51201SOL    HW165328  10.631  12.820   6.569 -1.1936  1.6066  2.2483
51201SOL    HW265329  10.743  12.814   6.671 -1.6438  0.9343  2.7156
51202SOL     OW65330   1.505   1.977   9.073  0.4113  0.6861  0.2535
51202SOL    HW165331   1.504   1.929   8.990  1.7237  1.4831 -0.2702
51202SOL    HW265332   1.567   1.929   9.128  0.4967  0.8640  0.3137
51203SOL     OW65333   2.421   7.624   1.690  0.1372 -0.0566 -0.2674
51203SOL    HW165334   2.497   7.596   1.639  0.5242 -1.2143  0.8813
51203SOL    HW265335   2.347   7.617   1.629  0.5184 -1.7882 -0.5824
51204SOL     OW65336  11.184   6.683   9.308 -0.5186 -0.6076 -0.3499
51204SOL    HW165337  11.157   6.774   9.322  0.4257  0.0199 -2.2383
51204SOL    HW265338  11.107   6.631   9.331 -1.0050  0.6264  0.9867
51205SOL     OW65339   7.509  10.653  10.773  0.7045 -0.0658 -0.6515
51205SOL    HW165340   7.549  10.577  10.815  0.8950 -0.4668 -1.5323
51205SOL    HW265341   7.581  10.715  10.760  0.3995  0.6393  0.8289
51206SOL     OW65342   3.508   9.971  11.339 -0.0781 -0.5694 -0.0301
51206SOL    HW165343   3.591  10.018  11.330 -0.9450  1.0442  0.0283
51206SOL    HW265344   3.447  10.036  11.374 -1.8458 -1.1383 -1.8278
51207SOL     OW65345   7.048   8.609   5.978  0.0646  0.0500 -0.1832
51207SOL    HW165346   6.989   8.634   6.050 -2.0230 -0.8403 -1.5000
51207SOL    HW265347   7.105   8.685   5.968 -0.6656  0.8624  1.3356
51208SOL     OW65348   7.847   1.790   4.796 -0.1387  0.3159  0.2359
51208SOL    HW165349   7.771   1.838   4.828 -0.8977  0.3526 -1.5495
51208SOL    HW265350   7.876   1.739   4.872 -2.5276 -0.4659  0.7045
51209SOL     OW65351   0.771   8.188   2.546  0.1958 -0.8890 -0.1591
51209SOL    HW165352   0.839   8.241   2.587  1.5491 -2.1361 -0.7059
51209SOL    HW265353   0.762   8.112   2.603 -0.2842 -1.0356 -0.4253
51210SOL     OW65354  13.484   5.002  13.706 -0.1666  0.6697 -0.3127
51210SOL    HW165355  13.468   4.939  13.636  0.9536  1.1254 -1.0017
51210SOL    HW265356  13.397   5.030  13.733 -0.6401 -0.2533 -0.8360
51211SOL     OW65357  10.477  11.989  11.719 -0.1305 -0.1285 -0.3187
51211SOL    HW165358  10.504  12.046  11.647  0.0164 -0.5489 -0.5984
51211SOL    HW265359  10.458  12.050  11.791 -1.0286  0.3519 -0.9388
51212SOL     OW65360   4.407  10.749  10.333  0.3413  0.4198  0.0720
51212SOL    HW165361   4.312  10.739  10.333  0.0383 -0.9368  6.3037
51212SOL    HW265362   4.421  10.843  10.317 -2.2148  0.9493  0.4932
51213SOL     OW65363   7.675   4.638  11.239  0.2164 -0.6375 -0.1743
51213SOL    HW165364   7.696   4.703  11.306 -0.5783 -1.2904  0.7384
51213SOL    HW265365   7.730   4.662  11.164  0.0141  1.0114  0.1664
51214SOL     OW65366   9.951   4.459   5.177  0.3016 -0.0014 -0.3721
51214SOL    HW165367  10.013   4.436   5.108  1.1124  0.1051  0.3122
51214SOL    HW265368   9.994   4.432   5.258 -0.6157 -0.0745  0.1054
51215SOL     OW65369   8.753   1.206   9.559  0.1999  0.4992  0.3809
51215SOL    HW165370   8.660   1.218   9.579  0.3083 -0.2970  1.4060
51215SOL    HW265371   8.795   1.283   9.598  0.0053  0.7399  0.1239
51216SOL     OW65372   8.976  10.877   3.779  0.4415  0.2276  0.5272
51216SOL    HW165373   8.890  10.837   3.791  0.4091  0.1472  0.0823
51216SOL    HW265374   8.958  10.962   3.739  0.5820  0.0583  0.0947
51217SOL     OW65375   7.349  10.256  12.320 -0.5258  0.0291 -0.1407
51217SOL    HW165376   7.347  10.255  12.224  1.3022 -0.5581 -0.2171
51217SOL    HW265377   7.340  10.164  12.345  1.7072 -0.1779  0.0931
51218SOL     OW65378  10.279   7.506   9.466  0.1272 -0.0214  0.1048
51218SOL    HW165379  10.354   7.555   9.433  0.6691 -0.1957  1.0399
51218SOL    HW265380  10.204   7.565   9.457  0.1431 -0.2386 -1.8758
51219SOL     OW65381   8.021  10.626  10.975  0.0447 -0.2814 -0.4122
51219SOL    HW165382   8.021  10.718  10.947  3.1846 -0.6128 -2.0271
51219SOL    HW265383   8.042  10.577  10.895  0.6031 -2.1857  0.8395
51220SOL     OW65384   0.788  12.555   8.081 -0.1214 -0.0005 -0.4686
51220SOL    HW165385   0.730  12.612   8.032  0.6765  0.5270 -0.8081
51220SOL    HW265386   0.867  12.550   8.029  0.6806  0.4350  0.6723
51221SOL     OW65387   7.823   7.886   8.693  0.1807 -0.6928  0.4903
51221SOL    HW165388   7.816   7.892   8.598  0.4212 -0.9859  0.4548
51221SOL    HW265389   7.912   7.915   8.712 -0.2375  0.4931  0.7261
51222SOL     OW65390   4.251  11.638   7.283 -0.0908  0.4497  0.4593
51222SOL    HW165391   4.347  11.643   7.285  0.0024 -0.6629 -0.4538
51222SOL    HW265392   4.225  11.700   7.215  0.2030 -1.3837 -1.4115
51223SOL     OW65393   8.427   2.165   8.786  0.0916  0.2556  0.3341
51223SOL    HW165394   8.373   2.090   8.810  1.6120 -0.4017  1.8544
51223SOL    HW265395   8.454   2.148   8.696 -3.8561  1.6453 -1.3214
51224SOL     OW65396   9.458   5.799   8.724 -0.4592 -0.4617 -0.1794
51224SOL    HW165397   9.506   5.804   8.806 -1.3872 -1.5229  0.4437
51224SOL    HW265398   9.526   5.802   8.656  0.3030  0.5555  0.5919
51225SOL     OW65399   3.739   0.593  11.929 -0.1914  0.6609  0.2231
51225SOL    HW165400   3.667   0.628  11.876 -1.5712 -0.4462  1.2941
51225SOL    HW265401   3.705   0.591  12.018  0.2836 -2.0198  0.4385
51226SOL     OW65402   3.513  10.407   1.067  0.0670 -0.6926  0.3737
51226SOL    HW165403   3.584  10.461   1.102  0.4675 -2.2329  2.0786
51226SOL    HW265404   3.470  10.463   1.003  2.6731  0.3917 -0.5787
51227SOL     OW65405   7.700   9.549   9.053  0.1577  0.1585 -0.2111
51227SOL    HW165406   7.777   9.570   9.106 -0.2557  1.1320  0.0413
51227SOL    HW265407   7.702   9.614   8.983  0.0228 -0.3419 -0.6786
51228SOL     OW65408   3.399   5.010   8.115  0.4250 -0.1212  0.1264
51228SOL    HW165409   3.350   4.930   8.135 -0.7393  0.1119 -1.5382
51228SOL    HW265410   3.395   5.061   8.195  0.0670 -1.1815  0.8105
51229SOL     OW65411  12.150   6.518   5.400 -0.3198  0.4243  0.1178
51229SOL    HW165412  12.188   6.578   5.464  0.6618 -0.3588  0.2792
51229SOL    HW265413  12.215   6.511   5.330 -0.1405 -0.9094  0.3876
51230SOL     OW65414   9.306  11.047   4.906  0.2222  0.1281 -0.2398
51230SOL    HW165415   9.312  10.954   4.882  0.1126 -0.0655  0.4386
51230SOL    HW265416   9.279  11.045   4.998 -1.4724  0.8655 -0.6963
51231SOL     OW65417   9.961  11.301  11.617  0.1085  0.0890  0.0890
51231SOL    HW165418   9.867  11.320  11.616  0.0797  0.0334  0.7783
51231SOL    HW265419   9.980  11.281  11.709  0.9116  0.7056  0.0712
51232SOL     OW65420  10.264   9.442   8.230  0.1065  0.4242 -0.0859
51232SOL    HW165421  10.244   9.469   8.141  0.7217  0.9726 -0.0626
51232SOL    HW265422  10.204   9.369   8.247 -1.7746  1.9188 -0.0463
51233SOL     OW65423   0.578   0.794   9.619 -0.0078 -0.1538  0.2723
51233SOL    HW165424   0.610   0.810   9.708 -0.9207 -1.2312  0.8390
51233SOL    HW265425   0.645   0.739   9.579  0.1667 -0.0911  0.4759
51234SOL     OW65426   6.855  11.254  10.781  0.5962 -0.7714  0.0566
51234SOL    HW165427   6.927  11.212  10.734  0.4498 -4.2073  2.5479
51234SOL    HW265428   6.792  11.184  10.796 -2.2215  1.5723  0.0993
51235SOL     OW65429   4.189   6.745   8.029  0.4247 -0.0339 -0.3134
51235SOL    HW165430   4.213   6.684   8.099  0.4750 -0.0099 -0.3091
51235SOL    HW265431   4.272   6.764   7.985  0.1987 -1.1738 -1.2761
51236SOL     OW65432  10.334  12.485  11.805 -0.3704 -0.3102  0.6138
51236SOL    HW165433  10.251  12.455  11.769 -0.0168 -1.1862  0.5025
51236SOL    HW265434  10.400  12.451  11.745  0.0348  1.0500  0.2644
51237SOL     OW65435   8.694   6.900   6.926 -0.3139 -0.0155  0.4714
51237SOL    HW165436   8.685   6.995   6.933 -0.9614 -0.2000  3.5492
51237SOL    HW265437   8.785   6.887   6.900  0.3855  1.4762  1.9668
51238SOL     OW65438   0.915  12.622   5.784  0.0438 -0.0132 -0.1417
51238SOL    HW165439   0.952  12.598   5.869  0.3000 -1.0228 -0.5266
51238SOL    HW265440   0.977  12.686   5.747  0.8044 -0.8186 -0.2802
51239SOL     OW65441   5.929   1.578   6.160  0.2103  0.3839 -0.2516
51239SOL    HW165442   5.935   1.483   6.169  0.7325  0.4271 -0.0649
51239SOL    HW265443   6.021   1.607   6.159  0.0503  0.9052 -0.0361
51240SOL     OW65444   6.693   3.288   0.899 -0.0860  0.3306  0.7550
51240SOL    HW165445   6.720   3.354   0.835 -0.3472  0.3679  0.6831
51240SOL    HW265446   6.655   3.218   0.846 -1.5126  0.9343  0.9496
51241SOL     OW65447   9.525  12.286   9.255 -0.4874  0.0526 -0.0451
51241SOL    HW165448   9.600  12.300   9.198 -1.0757  0.9826 -0.6306
51241SOL    HW265449   9.543  12.339   9.333 -1.1655  1.4545 -0.8040
51242SOL     OW65450  10.729  11.758   7.272  0.3463 -0.0524 -0.4352
51242SOL    HW165451  10.686  11.687   7.322 -1.3199  0.8774 -0.4770
51242SOL    HW265452  10.663  11.785   7.208 -0.3001  3.5171  1.4677
51243SOL     OW65453   4.849   1.314   5.845  0.0070 -0.2145  0.6571
51243SOL    HW165454   4.847   1.373   5.770 -0.6704  0.3687  1.1173
51243SOL    HW265455   4.836   1.227   5.808  1.7905 -0.1963 -0.1186
51244SOL     OW65456  12.372  10.652  12.748  0.4671 -0.1765  0.3306
51244SOL    HW165457  12.311  10.716  12.784  1.3818 -0.0870  1.8439
51244SOL    HW265458  12.450  10.660  12.804  1.3250 -1.2506 -0.6689
51245SOL     OW65459  10.510   6.371   4.382  0.2804  0.5330  0.1300
51245SOL    HW165460  10.550   6.411   4.458  0.0864  0.5362  0.2318
51245SOL    HW265461  10.578   6.314   4.346 -0.0818 -0.5741  1.1367
51246SOL     OW65462  12.242  12.184   0.983 -0.2278  0.0672 -0.2904
51246SOL    HW165463  12.288  12.111   0.942 -0.1803  0.1086 -0.3109
51246SOL    HW265464  12.231  12.157   1.074  1.2288  0.7157  0.1067
51247SOL     OW65465   5.480  12.630   6.013 -0.1767 -0.0161  0.3814
51247SOL    HW165466   5.565  12.603   6.047  0.0628  0.0236 -0.1683
51247SOL    HW265467   5.471  12.583   5.930 -0.1113  0.9536 -0.1935
51248SOL     OW65468   0.854   5.656  10.397 -0.1332 -0.0560 -0.4332
51248SOL    HW165469   0.879   5.693  10.482 -0.8986  0.0790 -0.2535
51248SOL    HW265470   0.827   5.731  10.345 -0.0515 -0.1823 -0.6584
51249SOL     OW65471  10.229   8.924   5.873 -0.5012 -0.6026 -0.2942
51249SOL    HW165472  10.322   8.931   5.852 -0.1821  2.5033  1.6096
51249SOL    HW265473  10.222   8.843   5.924  0.8074 -1.7053 -1.7658
51250SOL     OW65474   9.130  11.816   1.983 -0.3538  0.0811  0.2678
51250SOL    HW165475   9.069  11.744   1.967  0.1552  0.0474 -1.6975
51250SOL    HW265476   9.076  11.885   2.021 -1.1839 -0.7098  0.5548
51251SOL     OW65477   1.827   0.264   7.852 -0.0083  0.1580  0.4150
51251SOL    HW165478   1.782   0.339   7.812  1.3001 -0.6026 -2.8056
51251SOL    HW265479   1.764   0.192   7.842 -0.3042  0.2968  1.2439
51252SOL     OW65480  11.651   8.714   5.510 -0.4491  0.1966 -0.1404
51252SOL    HW165481  11.640   8.709   5.415 -0.6082 -1.5825 -0.0716
51252SOL    HW265482  11.567   8.748   5.542 -1.0279 -0.8204 -0.5349
51253SOL     OW65483   7.592   1.398  11.681 -0.2551  0.0300  0.1659
51253SOL    HW165484   7.646   1.434  11.752  0.5777  0.9944 -0.9118
51253SOL    HW265485   7.518   1.458  11.674  0.1454  0.4722 -0.3743
51254SOL     OW65486  12.715   2.812  10.000 -0.2478  0.5188  0.1133
51254SOL    HW165487  12.668   2.896  10.001 -0.2425  0.5674 -1.1004
51254SOL    HW265488  12.674   2.763   9.928 -0.2782 -0.5460  0.8380
51255SOL     OW65489   1.515  12.144   3.384 -0.0035  0.4521  0.3258
51255SOL    HW165490   1.496  12.178   3.296  1.2794  0.2232 -0.0528
51255SOL    HW265491   1.593  12.191   3.412  0.7406 -0.8602  0.5410
51256SOL     OW65492   1.460   1.037   8.811  0.0829 -0.1979 -0.1296
51256SOL    HW165493   1.511   1.095   8.867 -1.3471  1.7863 -0.7622
51256SOL    HW265494   1.375   1.031   8.854 -0.4557 -0.1217 -1.1571
51257SOL     OW65495   8.285   2.250   7.809  0.6003 -0.2322  0.9636
51257SOL    HW165496   8.235   2.229   7.730 -0.0196  0.2601  1.2171
51257SOL    HW265497   8.278   2.171   7.863  0.0024 -0.1328  1.0388
51258SOL     OW65498  12.358   7.608   1.431  0.2689  0.0344  0.2674
51258SOL    HW165499  12.378   7.558   1.352 -1.2336  0.5902 -0.5142
51258SOL    HW265500  12.393   7.696   1.414  0.8795 -0.1281  0.6705
51259SOL     OW65501   5.968   1.963   6.347  0.3462  0.0870 -0.0653
51259SOL    HW165502   5.941   2.007   6.428  0.2421  0.7565 -0.4550
51259SOL    HW265503   5.933   1.874   6.355  0.1785  0.2046  0.5422
51260SOL     OW65504   8.060   0.801   5.569 -0.0052 -0.3945  0.2277
51260SOL    HW165505   8.005   0.873   5.539 -0.4214 -0.6823  0.2902
51260SOL    HW265506   8.103   0.769   5.490 -0.0330 -0.2544  0.1559
51261SOL     OW65507   0.346   4.819   0.863 -0.4644 -0.3237  0.3693
51261SOL    HW165508   0.336   4.747   0.800  0.5029 -2.0354  2.0650
51261SOL    HW265509   0.431   4.858   0.841 -0.0570 -1.0170  0.6609
51262SOL     OW65510   0.904   5.692   5.697  0.1495  0.0378 -0.0033
51262SOL    HW165511   0.949   5.770   5.726  3.0888 -1.8683  0.9911
51262SOL    HW265512   0.870   5.714   5.610  0.2247  2.5805  0.5510
51263SOL     OW65513   4.497   1.129  10.546  0.2186 -0.1001 -0.0208
51263SOL    HW165514   4.411   1.106  10.580  0.8158 -0.6976  1.1615
51263SOL    HW265515   4.507   1.222  10.569  0.2929 -0.2935  0.7784
51264SOL     OW65516   4.664   8.801  10.328  0.0796 -0.4478 -0.8124
51264SOL    HW165517   4.729   8.781  10.262 -1.6615  1.0705 -3.1405
51264SOL    HW265518   4.594   8.847  10.281 -0.4408  2.4811  2.3854
51265SOL     OW65519  11.808  13.690   1.550 -0.0356  0.1728  0.1282
51265SOL    HW165520  11.750  13.694   1.473 -0.7531  2.2629  0.7093
51265SOL    HW265521  11.748  13.688   1.625  0.6594 -1.6199  0.6928
51266SOL     OW65522   4.837  13.525  13.391  0.4798  0.4621  0.1214
51266SOL    HW165523   4.911  13.499  13.446 -0.6577  0.7906  1.8916
51266SOL    HW265524   4.798  13.599  13.437 -0.9815  0.2634 -0.7382
51267SOL     OW65525  12.770   2.743   6.985 -0.0227 -0.4311  0.3343
51267SOL    HW165526  12.857   2.733   6.948  0.1613  1.7691  0.0072
51267SOL    HW265527  12.749   2.836   6.971 -1.1891 -0.1874  3.0120
51268SOL     OW65528  10.421  12.659   1.913 -0.5628 -0.5432  0.4213
51268SOL    HW165529  10.476  12.618   1.980 -1.1264 -0.4722  0.9465
51268SOL    HW265530  10.444  12.614   1.832  1.0606  0.2495  0.4096
51269SOL     OW65531  10.331  12.691   9.768 -0.1809  0.1182 -0.5658
51269SOL    HW165532  10.369  12.648   9.691 -0.3670  0.8519 -1.0821
51269SOL    HW265533  10.341  12.785   9.750 -1.7817  0.3332 -0.4811
51270SOL     OW65534   6.362   9.039   5.925  0.6510 -0.0490  0.5354
51270SOL    HW165535   6.354   8.948   5.896  0.4445  0.2780 -0.4781
51270SOL    HW265536   6.453   9.063   5.906  0.6881 -0.0192  0.7432
51271SOL     OW65537  12.069   2.414   9.905  0.0531  0.0117  0.0508
51271SOL    HW165538  12.143   2.388   9.959  0.0457  0.5363  0.3151
51271SOL    HW265539  12.096   2.390   9.816  0.2966 -0.3319  0.2126
51272SOL     OW65540  12.852   2.064   4.646  0.1865 -0.8784  0.7450
51272SOL    HW165541  12.828   2.052   4.738  0.7937  0.3477  1.0885
51272SOL    HW265542  12.771   2.096   4.604  0.2155 -0.2999  1.1148
51273SOL     OW65543   6.186  11.198  13.449 -0.3831 -0.1784 -0.6223
51273SOL    HW165544   6.227  11.274  13.490 -0.2250  0.0235 -1.1461
51273SOL    HW265545   6.095  11.225  13.434 -0.2615  0.0035 -1.0440
51274SOL     OW65546  10.498   1.073   1.388 -0.0693 -0.1824 -0.1470
51274SOL    HW165547  10.494   1.112   1.476  0.5403  0.0576 -0.2220
51274SOL    HW265548  10.439   0.998   1.393 -2.1709  1.3610 -0.3366
51275SOL     OW65549   5.664  11.138   5.828 -0.2817 -0.1582  0.1970
51275SOL    HW165550   5.669  11.233   5.832 -2.4467 -0.0399  1.9782
51275SOL    HW265551   5.664  11.118   5.734 -1.7017  1.7640 -0.2715
51276SOL     OW65552  11.467  11.660   9.777  0.1407 -0.1241  0.1359
51276SOL    HW165553  11.473  11.572   9.739  1.2817 -0.4778  1.0817
51276SOL    HW265554  11.550  11.702   9.756 -0.8223  1.1931 -1.3040
51277SOL     OW65555   8.331  10.788   1.900 -0.4367  0.4119  0.6315
51277SOL    HW165556   8.367  10.703   1.927 -1.5576  0.6250  3.1167
51277SOL    HW265557   8.331  10.840   1.980 -0.8429  2.3822 -0.5914
51278SOL     OW65558   5.656  10.193  10.340  1.0058  0.3057  0.5535
51278SOL    HW165559   5.632  10.120  10.398  2.7423  0.1058  1.0804
51278SOL    HW265560   5.605  10.177  10.260  1.4739 -1.6266  0.5742
51279SOL     OW65561   4.454  10.074   0.311  0.4442 -0.1445  0.1646
51279SOL    HW165562   4.433   9.998   0.366  1.6681 -0.2687  0.4775
51279SOL    HW265563   4.548  10.084   0.318  0.2029  2.0574  0.9628
51280SOL     OW65564  10.106   0.015   4.554  0.3540 -0.5159  0.6683
51280SOL    HW165565  10.105  -0.028   4.640 -1.3975 -3.7320 -0.7480
51280SOL    HW265566  10.122  -0.057   4.493 -0.5643  1.2820 -1.8320
51281SOL     OW65567   0.312  12.580  11.405  0.1459  0.3252  0.2479
51281SOL    HW165568   0.389  12.524  11.402  0.9967  1.4991 -1.1654
51281SOL    HW265569   0.254  12.539  11.469  0.8698 -1.9484 -0.4775
51282SOL     OW65570  12.609   2.762  13.614 -0.0824  0.4528 -0.3333
51282SOL    HW165571  12.592   2.689  13.673  1.0172 -0.0579 -0.6319
51282SOL    HW265572  12.701   2.782  13.627 -0.1145  1.0772 -1.0544
51283SOL     OW65573   6.462   4.921   2.863  0.3050 -0.2269 -0.2344
51283SOL    HW165574   6.464   4.842   2.917 -1.0561  0.4544  0.8853
51283SOL    HW265575   6.392   4.905   2.801 -2.0253  1.1516  1.8455
51284SOL     OW65576  13.743   2.922   3.162  0.2673  0.5069 -0.0564
51284SOL    HW165577  13.832   2.914   3.128  0.8200  2.6149  0.7326
51284SOL    HW265578  13.704   2.993   3.111 -0.6274  0.2795  0.2886
51285SOL     OW65579  13.086   7.297  10.643  0.2076  0.0680  0.3884
51285SOL    HW165580  13.125   7.332  10.563  0.6959 -0.3211  0.4538
51285SOL    HW265581  13.082   7.202  10.628 -1.2185  0.1311  0.1579
51286SOL     OW65582   9.832   5.438  10.017  0.0347 -0.3052  0.0411
51286SOL    HW165583   9.900   5.446   9.949 -0.9527 -0.9980 -1.0601
51286SOL    HW265584   9.756   5.402   9.971 -1.3306  1.1124  1.0889
51287SOL     OW65585   2.739  13.044   3.702  0.0148  0.7766 -0.3833
51287SOL    HW165586   2.765  13.128   3.740  2.3398  0.5925 -1.4530
51287SOL    HW265587   2.731  13.060   3.608 -0.7640  0.0661 -0.4595
51288SOL     OW65588   2.830  12.894   2.538  0.0171  0.2379 -0.2333
51288SOL    HW165589   2.922  12.898   2.564  0.3625 -0.5172 -1.2568
51288SOL    HW265590   2.784  12.944   2.605  1.3512  1.9707 -0.5182
51289SOL     OW65591   3.318   0.414   3.526 -0.2708  0.4498  0.1467
51289SOL    HW165592   3.223   0.415   3.515 -0.1438  1.1793 -1.0255
51289SOL    HW265593   3.352   0.386   3.442  0.5583 -0.0380  0.6312
51290SOL     OW65594   9.371   8.304   8.733  0.2256 -0.2467 -0.5312
51290SOL    HW165595   9.333   8.331   8.649 -0.5269 -2.0954 -0.8216
51290SOL    HW265596   9.464   8.293   8.715  0.0490 -0.7471 -1.1652
51291SOL     OW65597   4.985  12.063   5.415 -0.2676 -0.1050  0.0489
51291SOL    HW165598   5.045  11.999   5.453 -0.0506  0.2119  0.2417
51291SOL    HW265599   5.016  12.075   5.326  0.5282  0.7594  0.4328
51292SOL     OW65600   1.902   2.214   3.615  0.9352  0.3394 -0.2987
51292SOL    HW165601   1.922   2.121   3.607 -2.0273 -0.3264 -0.9109
51292SOL    HW265602   1.926   2.236   3.705  2.4432 -0.7672 -0.3982
51293SOL     OW65603   9.689  10.611   1.156  0.5516 -0.1581 -0.1743
51293SOL    HW165604   9.764  10.576   1.108  0.4201  1.2459 -1.4950
51293SOL    HW265605   9.723  10.690   1.199 -0.0138  0.1400 -0.2643
51294SOL     OW65606  11.530   8.665   3.634  0.0290 -0.0375 -0.3187
51294SOL    HW165607  11.465   8.731   3.659 -0.0785 -0.4496  0.5403
51294SOL    HW265608  11.507   8.589   3.688  2.4712  0.4425  1.5581
51295SOL     OW65609   2.508   7.792   8.220  0.3511 -0.3320 -0.0348
51295SOL    HW165610   2.494   7.698   8.208 -1.0976  0.1168 -2.7149
51295SOL    HW265611   2.602   7.801   8.233  0.4091 -2.1924  1.1614
51296SOL     OW65612  12.192  10.858  12.913  0.1311 -0.2298 -0.0914
51296SOL    HW165613  12.127  10.874  12.981  0.4878 -1.5227  0.5954
51296SOL    HW265614  12.250  10.792  12.951  1.4535  0.4016 -0.9448
51297SOL     OW65615   0.862   6.404   6.108 -0.2352  0.5700  0.4645
51297SOL    HW165616   0.923   6.457   6.158 -1.0099  0.9203  1.0724
51297SOL    HW265617   0.777   6.421   6.149 -0.7344  0.0799 -0.3387
51298SOL     OW65618   5.066   5.417  11.924 -0.4650 -0.6968  0.3088
51298SOL    HW165619   5.134   5.466  11.877 -0.1429 -1.9570 -0.5851
51298SOL    HW265620   5.038   5.476  11.994  1.8096 -0.2492  0.9313
51299SOL     OW65621   1.583  11.908   1.775 -0.0436 -0.3263  0.1639
51299SOL    HW165622   1.548  11.833   1.728 -1.6693  0.7553 -0.4407
51299SOL    HW265623   1.565  11.982   1.717  1.7022  0.5208  0.6455
51300SOL     OW65624  11.415   5.299   7.663  0.3033 -0.4804 -0.6136
51300SOL    HW165625  11.442   5.208   7.676  1.0760 -0.1564  0.1592
51300SOL    HW265626  11.442   5.320   7.573  1.4133 -0.5952 -0.3226
51301SOL     OW65627   9.610   6.464  10.894  0.0634 -0.1221 -0.1559
51301SOL    HW165628   9.632   6.473  10.801  1.0235  0.4643  0.1167
51301SOL    HW265629   9.633   6.548  10.933  1.4282 -0.9724  0.9604
51302SOL     OW65630   9.231   7.601   7.765  0.1796  0.2986  0.0792
51302SOL    HW165631   9.200   7.591   7.674 -0.4549  0.1289  0.3068
51302SOL    HW265632   9.271   7.517   7.786  0.0054  0.2136  0.0735
51303SOL     OW65633   2.924   2.876  13.451 -0.3317  0.1637  0.1456
51303SOL    HW165634   2.960   2.958  13.416  0.2123  0.3294  1.0773
51303SOL    HW265635   2.961   2.808  13.396  0.7264  0.4018  0.5549
51304SOL     OW65636   8.107   1.576   9.249 -0.4045 -0.5575 -0.4384
51304SOL    HW165637   8.082   1.618   9.331  0.2779 -0.5288 -0.2441
51304SOL    HW265638   8.201   1.591   9.241 -0.3789 -0.9692 -0.9898
51305SOL     OW65639   6.900   5.714  12.567 -0.6685  0.3200 -0.3488
51305SOL    HW165640   6.839   5.783  12.541 -1.0462  0.7626  1.5818
51305SOL    HW265641   6.882   5.699  12.660  0.5097 -1.2587 -0.3302
51306SOL     OW65642   6.094  10.665  11.838 -0.1919  0.3751 -0.0499
51306SOL    HW165643   6.186  10.649  11.818 -0.3887  0.6078 -1.2004
51306SOL    HW265644   6.055  10.577  11.839  0.3731  0.0734  2.3926
51307SOL     OW65645   3.974   9.592   2.802  0.0630 -0.0150 -0.3871
51307SOL    HW165646   3.954   9.671   2.853  0.1603  0.5568 -1.2148
51307SOL    HW265647   4.026   9.538   2.862  1.2318  1.1815 -0.2627
51308SOL     OW65648   9.418  10.184  13.387  0.1142 -0.7178  0.5333
51308SOL    HW165649   9.434  10.105  13.337  1.8655 -0.0180 -0.0927
51308SOL    HW265650   9.503  10.208  13.423 -0.5902  0.2809  1.6201
51309SOL     OW65651   7.216  13.204  11.654 -0.4480  0.3837  0.8872
51309SOL    HW165652   7.238  13.149  11.729 -0.5265 -0.8025  0.0681
51309SOL    HW265653   7.222  13.146  11.578  1.5336  1.9983 -0.3080
51310SOL     OW65654   8.256  11.237   9.766 -0.7247  0.1734  0.2652
51310SOL    HW165655   8.189  11.290   9.808  1.2108  2.3587  0.8065
51310SOL    HW265656   8.337  11.258   9.813  1.1687  1.0688 -3.0259
51311SOL     OW65657   6.958   9.237   3.039 -0.1616  0.2527 -0.0224
51311SOL    HW165658   6.962   9.225   3.134 -1.3720 -0.3825 -0.0328
51311SOL    HW265659   7.049   9.251   3.013  0.2223  0.1460  1.1961
51312SOL     OW65660   4.835   5.658  11.325  0.4517  0.1152  0.0704
51312SOL    HW165661   4.799   5.575  11.356  2.2919 -0.7136  0.0742
51312SOL    HW265662   4.851   5.643  11.232  0.9900  0.4006  0.1173
51313SOL     OW65663  10.793   3.222   1.763 -0.1536  0.4074  0.0792
51313SOL    HW165664  10.765   3.248   1.851  2.2349  1.8911  0.4954
51313SOL    HW265665  10.737   3.273   1.705 -1.3346 -0.1029  0.7434
51314SOL     OW65666   6.398  11.926   2.300 -0.4646  0.6195  0.1030
51314SOL    HW165667   6.382  11.836   2.326 -0.2246  0.7502  0.7130
51314SOL    HW265668   6.383  11.927   2.205  0.7484 -0.3530 -0.1286
51315SOL     OW65669   0.463   3.663  10.682  0.1922 -0.0042 -0.2320
51315SOL    HW165670   0.520   3.641  10.755  0.9139  0.3413 -0.6769
51315SOL    HW265671   0.500   3.614  10.608 -0.8383 -0.7656 -0.2634
51316SOL     OW65672   3.685  11.737  12.956  0.3291 -0.2172  0.2850
51316SOL    HW165673   3.668  11.768  13.045 -0.1432 -0.5187  0.3031
51316SOL    HW265674   3.766  11.685  12.964  0.8110  0.5266  0.3564
51317SOL     OW65675   9.205   6.835   9.857  0.0455  0.2174 -0.3266
51317SOL    HW165676   9.239   6.911   9.809  0.7381  1.7207  2.3343
51317SOL    HW265677   9.114   6.828   9.829  0.3166  1.2170 -1.5824
51318SOL     OW65678   2.110   8.996   9.349  0.8242 -0.2696 -0.8334
51318SOL    HW165679   2.144   8.932   9.287  1.1685 -1.1999  0.2825
51318SOL    HW265680   2.173   9.067   9.347  1.8386 -1.1188 -0.2066
51319SOL     OW65681   3.539   2.002   1.072  0.2827 -0.3050  0.2857
51319SOL    HW165682   3.518   1.990   0.979  0.3287  0.7817  0.1259
51319SOL    HW265683   3.521   1.916   1.111 -0.9287 -0.4447 -0.5045
51320SOL     OW65684  11.313   9.296  13.690  0.3734 -1.1129  0.0202
51320SOL    HW165685  11.369   9.219  13.698  0.8447 -0.9042 -1.1364
51320SOL    HW265686  11.283   9.294  13.599 -0.9805 -0.8566  0.4415
51321SOL     OW65687   5.462   9.913   0.242 -0.0677  0.1721 -0.0422
51321SOL    HW165688   5.372   9.942   0.257  0.5401  2.1480  0.0087
51321SOL    HW265689   5.490   9.961   0.164  1.2598  0.3498  0.5216
51322SOL     OW65690   7.490   2.502   2.335  0.5013 -0.4936  0.0655
51322SOL    HW165691   7.458   2.533   2.250  0.1201  0.0787  0.4141
51322SOL    HW265692   7.412   2.465   2.377  0.5763 -0.2970  0.3786
51323SOL     OW65693   0.538   1.282   9.205  0.5702  0.0937  0.8338
51323SOL    HW165694   0.552   1.331   9.124 -3.0389  0.6975  0.3920
51323SOL    HW265695   0.457   1.318   9.241  0.0255 -2.6945  2.7513
51324SOL     OW65696  11.861  11.863  11.089 -0.6533 -0.2924 -0.0326
51324SOL    HW165697  11.893  11.773  11.096  1.0285  0.3056  0.8126
51324SOL    HW265698  11.772  11.860  11.123 -0.1365 -1.4136  1.3418
51325SOL     OW65699   2.263  11.908   8.522 -0.0167 -0.0827  0.2372
51325SOL    HW165700   2.297  11.911   8.612  3.4574  1.6732 -0.9816
51325SOL    HW265701   2.254  11.815   8.503  2.7950 -0.6657  1.2498
51326SOL     OW65702   7.142   6.904   6.873 -0.0183  0.2576 -0.1016
51326SOL    HW165703   7.057   6.874   6.903  0.9983 -2.8966 -0.0476
51326SOL    HW265704   7.128   6.928   6.781 -1.2887  1.5472  0.3948
51327SOL     OW65705   6.176   0.426  10.151 -0.2442 -0.1686  0.3659
51327SOL    HW165706   6.234   0.501  10.136 -0.8347  0.1310 -0.4934
51327SOL    HW265707   6.213   0.382  10.227  0.3395  0.7786  0.6501
51328SOL     OW65708  13.114   7.773   0.542 -0.5427 -0.5408 -0.3494
51328SOL    HW165709  13.085   7.698   0.490  0.7321 -0.5200 -1.1220
51328SOL    HW265710  13.156   7.831   0.478 -2.7552  1.5524 -0.0571
51329SOL     OW65711   2.705   5.422   6.466  0.0687 -0.0568 -0.1112
51329SOL    HW165712   2.614   5.450   6.457  0.4711  1.0886 -0.8337
51329SOL    HW265713   2.710   5.385   6.554 -0.8993  0.6569  0.2576
51330SOL     OW65714   2.591   4.174   7.076  0.5062 -0.1901 -0.0403
51330SOL    HW165715   2.666   4.157   7.019  0.3871  2.0648 -0.9960
51330SOL    HW265716   2.559   4.260   7.048 -0.4413  0.3821  2.5036
51331SOL     OW65717   1.186  12.339  11.919 -0.1470  0.1387 -0.0949
51331SOL    HW165718   1.235  12.315  11.997 -0.6540  1.9935  0.8382
51331SOL    HW265719   1.220  12.424  11.894  1.5819 -1.3161 -3.2916
51332SOL     OW65720   1.124   5.819  10.883  0.4285 -0.0017 -0.0614
51332SOL    HW165721   1.106   5.912  10.865  1.8900  0.2058 -0.6088
51332SOL    HW265722   1.187   5.794  10.815  0.8672 -1.1020  0.7242
51333SOL     OW65723   8.938   2.603  12.207 -0.1030 -0.7423  0.7817
51333SOL    HW165724   8.901   2.514  12.211 -0.4741 -0.6420 -0.1420
51333SOL    HW265725   9.016   2.594  12.153  0.5126 -0.7115  1.6581
51334SOL     OW65726   5.636  12.782  12.032  0.1434  0.2514  0.0811
51334SOL    HW165727   5.656  12.702  11.982 -0.5409  0.5523 -0.6853
51334SOL    HW265728   5.682  12.852  11.985 -0.0966  0.4584  0.1541
51335SOL     OW65729  11.814   0.097   5.648  0.0605  0.5587 -0.7373
51335SOL    HW165730  11.826   0.025   5.585  0.0951  1.1056 -1.3721
51335SOL    HW265731  11.766   0.164   5.598  2.7194  2.2783 -1.1909
51336SOL     OW65732   8.226   6.960   0.511  0.2920 -0.4360  0.2419
51336SOL    HW165733   8.171   6.962   0.589 -0.8034 -1.0325 -0.4842
51336SOL    HW265734   8.222   6.869   0.481  0.9497 -0.2844 -0.3468
51337SOL     OW65735   1.970   1.806   2.667 -0.3284  0.4492 -0.1800
51337SOL    HW165736   1.878   1.824   2.687 -0.7874 -0.1436 -1.5661
51337SOL    HW265737   1.994   1.872   2.602  0.3117  0.7772  0.3915
51338SOL     OW65738   0.801   1.876   6.704 -0.0800 -0.0170 -0.7555
51338SOL    HW165739   0.839   1.865   6.791 -0.3694 -0.3411 -0.6663
51338SOL    HW265740   0.795   1.971   6.692 -1.0536  0.0366  0.0337
51339SOL     OW65741   1.276   8.741   4.227 -0.1906 -0.4100 -0.4112
51339SOL    HW165742   1.184   8.728   4.253 -0.0709  1.2426  0.9943
51339SOL    HW265743   1.274   8.820   4.173  0.4339 -0.2215 -0.1589
51340SOL     OW65744   9.355   8.232   1.366 -0.0092 -0.5829  0.6320
51340SOL    HW165745   9.260   8.228   1.376 -0.3162 -2.8828 -1.9880
51340SOL    HW265746   9.385   8.143   1.386  1.4742 -0.1655  0.3946
51341SOL     OW65747  10.403  10.061  11.957  0.1335 -0.2093  0.1744
51341SOL    HW165748  10.470  10.110  11.910  2.0195 -0.4465  2.4283
51341SOL    HW265749  10.320  10.092  11.921  1.4072 -0.0041 -2.8255
51342SOL     OW65750   7.085   7.348   3.511  0.0127  0.1454  0.1934
51342SOL    HW165751   7.001   7.393   3.522 -0.3424  0.2767 -2.4069
51342SOL    HW265752   7.071   7.290   3.437  1.5897 -1.5548  1.1464
51343SOL     OW65753   3.751  11.115  13.126 -0.1549 -0.5085  0.2910
51343SOL    HW165754   3.797  11.168  13.061  0.2626 -0.8299  0.3252
51343SOL    HW265755   3.788  11.142  13.210  0.7108 -1.4995  0.2407
51344SOL     OW65756  11.151   2.251  11.932 -0.5345 -0.4182 -0.1397
51344SOL    HW165757  11.223   2.206  11.975 -0.6479 -0.0598  0.4438
51344SOL    HW265758  11.192   2.300  11.861  0.1056  1.3315  1.3649
51345SOL     OW65759   6.682   1.699   3.695  0.3146  0.1584 -0.1612
51345SOL    HW165760   6.669   1.704   3.601 -1.0421  1.5896  0.0603
51345SOL    HW265761   6.612   1.643   3.727  0.8633 -0.4530 -0.0025
51346SOL     OW65762   4.484   3.527   7.013 -0.3172 -0.2723  0.0452
51346SOL    HW165763   4.410   3.544   6.955 -0.7972  0.7571  0.9140
51346SOL    HW265764   4.469   3.439   7.046 -1.5506  0.1725  0.7398
51347SOL     OW65765   2.386   6.020   7.453 -0.0121 -0.0225  0.9229
51347SOL    HW165766   2.357   5.935   7.486 -0.3368  0.5440  2.1579
51347SOL    HW265767   2.328   6.039   7.379 -0.5340 -0.4469  1.2211
51348SOL     OW65768   3.952  11.649   6.314 -0.2526 -0.5554  0.4005
51348SOL    HW165769   3.869  11.611   6.283 -0.0451 -0.0229 -0.8762
51348SOL    HW265770   3.929  11.738   6.340 -0.2364 -0.6893  0.8898
51349SOL     OW65771   6.995   8.585   9.790 -0.0650  0.1005  0.0404
51349SOL    HW165772   7.040   8.550   9.713 -0.4733 -0.1630 -0.0807
51349SOL    HW265773   6.912   8.619   9.755 -0.3019 -0.1258  0.3852
51350SOL     OW65774   2.124   2.896   2.512  0.0763  0.6553 -0.0019
51350SOL    HW165775   2.054   2.888   2.578 -0.0828 -2.3926 -0.3892
51350SOL    HW265776   2.161   2.983   2.528 -3.4149  2.2424  0.5636
51351SOL     OW65777   9.218  10.069   6.745  0.0761 -0.2820 -0.4267
51351SOL    HW165778   9.291  10.010   6.724  0.3926  0.3669 -1.2172
51351SOL    HW265779   9.209  10.063   6.840 -1.8226 -3.8205 -0.6554
51352SOL     OW65780   1.902  12.583   4.130 -0.9408  0.5207  0.0628
51352SOL    HW165781   1.914  12.536   4.047 -1.6673 -0.1311  0.3106
51352SOL    HW265782   1.866  12.517   4.189 -1.6539  1.3074  0.5240
51353SOL     OW65783   8.447   3.651   1.949 -0.2948  0.0968  0.6054
51353SOL    HW165784   8.366   3.604   1.932 -0.2456 -0.3959  1.6329
51353SOL    HW265785   8.514   3.600   1.904 -0.2304 -0.9158  1.7650
51354SOL     OW65786   5.272   8.971   6.139  0.0423 -0.4275  0.1196
51354SOL    HW165787   5.356   8.979   6.094  0.2959 -0.6719  0.5442
51354SOL    HW265788   5.255   8.876   6.141  0.8653 -0.5716  2.0330
51355SOL     OW65789   3.229  10.120  12.957  0.1018  0.0766 -0.6339
51355SOL    HW165790   3.322  10.097  12.960 -0.2613 -2.0512 -2.7917
51355SOL    HW265791   3.219  10.168  12.875 -0.5986  1.0397 -0.0041
51356SOL     OW65792   9.922   1.414   3.045 -0.2838  0.1021 -0.1459
51356SOL    HW165793   9.895   1.330   3.009 -0.7374  0.2136 -0.0664
51356SOL    HW265794   9.853   1.475   3.018 -0.8201  0.1200  1.1950
51357SOL     OW65795  11.046   3.979   7.991 -0.3326  0.1292 -0.0961
51357SOL    HW165796  11.065   3.894   7.951  0.4357  0.6286 -0.8218
51357SOL    HW265797  10.952   3.975   8.012  0.2238 -2.0096  2.6352
51358SOL     OW65798   7.125   1.498   5.627 -0.2958  0.0890 -0.2596
51358SOL    HW165799   7.204   1.444   5.635  0.5378  1.1543 -0.9410
51358SOL    HW265800   7.099   1.516   5.717 -0.9027 -1.8455 -0.0088
51359SOL     OW65801   9.900   3.394   7.809  0.2507  0.0726 -0.3643
51359SOL    HW165802   9.897   3.392   7.905  0.8351 -1.7112 -0.3473
51359SOL    HW265803   9.846   3.470   7.785 -0.8684 -0.1267  1.3255
51360SOL     OW65804   5.219  12.597   1.055 -0.5032 -0.4677  0.1476
51360SOL    HW165805   5.209  12.654   1.131 -0.7964 -0.4901  0.1252
51360SOL    HW265806   5.298  12.628   1.011 -0.5495 -0.2117  0.2482
51361SOL     OW65807   1.315  12.819   3.764 -0.1511 -0.0179  0.6271
51361SOL    HW165808   1.245  12.775   3.715 -0.4734  0.4846  0.6287
51361SOL    HW265809   1.268  12.864   3.835  0.0839  1.0439  0.1134
51362SOL     OW65810   5.651  13.463  13.365 -0.7516 -0.0501 -0.1508
51362SOL    HW165811   5.713  13.523  13.324  0.2597 -1.6156 -1.0032
51362SOL    HW265812   5.682  13.455  13.455 -0.0140 -0.4109 -0.4290
51363SOL     OW65813   0.859   2.523   2.933  0.4992 -0.4770  0.4689
51363SOL    HW165814   0.895   2.467   2.864 -1.0068 -0.6391 -0.2297
51363SOL    HW265815   0.936   2.568   2.970  1.4727 -1.3050 -0.4806
51364SOL     OW65816   8.289   1.248  10.732  0.3419  0.4921 -0.6976
51364SOL    HW165817   8.318   1.191  10.661  1.0198  0.0496 -0.0809
51364SOL    HW265818   8.235   1.192  10.788  0.0913  0.7485 -0.6823
51365SOL     OW65819   9.219   5.928   9.537  0.0377 -0.0835  0.0569
51365SOL    HW165820   9.173   5.991   9.482 -1.5587  0.2363  1.6723
51365SOL    HW265821   9.151   5.869   9.569  0.7266  0.2751  2.3942
51366SOL     OW65822   7.058   8.570   4.997  0.3040 -0.3496 -0.1198
51366SOL    HW165823   7.035   8.662   5.010  0.6259 -0.2252 -0.4354
51366SOL    HW265824   6.999   8.522   5.056  1.3994  0.1795  1.4838
51367SOL     OW65825   6.509  11.529   2.970  0.1463 -0.3528 -0.3101
51367SOL    HW165826   6.418  11.498   2.963 -0.3136  1.2258 -2.2750
51367SOL    HW265827   6.514  11.567   3.058 -1.1104 -0.4318 -0.1781
51368SOL     OW65828  12.008  10.221   1.084  0.1888 -0.5405  0.0876
51368SOL    HW165829  12.080  10.284   1.077  0.5646 -0.9567  0.1777
51368SOL    HW265830  11.929  10.275   1.084  0.5609  0.0526  1.8812
51369SOL     OW65831   8.031  13.050   1.708  0.3390 -0.0998  0.5757
51369SOL    HW165832   8.103  13.034   1.770  0.9276 -1.3736 -0.3717
51369SOL    HW265833   8.067  13.025   1.623  0.3482  3.8457 -0.7497
51370SOL     OW65834   2.072  11.240   7.367 -0.4745 -0.3959  0.2521
51370SOL    HW165835   2.150  11.186   7.377 -0.7429 -0.7522  0.4364
51370SOL    HW265836   2.061  11.249   7.272 -0.0313 -0.0727  0.2246
51371SOL     OW65837   2.147   7.128   6.359 -0.1350  0.2023 -0.2640
51371SOL    HW165838   2.222   7.099   6.308  0.9637 -0.2634  1.5351
51371SOL    HW265839   2.091   7.050   6.364 -0.6396  0.4778 -1.3949
51372SOL     OW65840   6.623   2.308   6.312 -0.1617 -0.6555 -0.0946
51372SOL    HW165841   6.662   2.379   6.363  1.2230 -1.0654 -0.5320
51372SOL    HW265842   6.618   2.343   6.223 -0.9859 -0.5452 -0.0104
51373SOL     OW65843  12.273  11.782   1.973  0.7128  0.0001  0.8180
51373SOL    HW165844  12.192  11.746   2.010 -0.1961  1.6584  0.5174
51373SOL    HW265845  12.339  11.715   1.991 -0.4542 -0.8389  2.1724
51374SOL     OW65846  10.889   3.724   4.822 -0.2128  0.0467  0.0738
51374SOL    HW165847  10.848   3.803   4.787  1.2518  1.3173  1.1183
51374SOL    HW265848  10.859   3.654   4.763 -0.0231  1.6460 -2.0446
51375SOL     OW65849   2.378   4.363   2.237  0.2810 -0.3037  0.1546
51375SOL    HW165850   2.351   4.353   2.146  0.0937 -2.4394  0.3991
51375SOL    HW265851   2.468   4.396   2.231 -0.1200  0.6952 -0.7547
51376SOL     OW65852   6.064   9.135  13.124 -0.2444  0.2051  0.1694
51376SOL    HW165853   6.037   9.176  13.042 -0.7130  0.0193  0.2267
51376SOL    HW265854   5.992   9.152  13.184 -1.7204 -2.9214 -0.5183
51377SOL     OW65855   1.324   8.888   1.667  0.4332 -0.0249  0.3162
51377SOL    HW165856   1.244   8.837   1.655  0.0701  0.4781  0.5795
51377SOL    HW265857   1.293   8.975   1.692  1.0645  0.1678  0.4298
51378SOL     OW65858   1.608  12.819  11.734  0.0241  0.4241 -0.2770
51378SOL    HW165859   1.579  12.800  11.823  0.4694  0.3521 -0.1443
51378SOL    HW265860   1.702  12.838  11.743 -0.2361  1.9217 -0.5166
51379SOL     OW65861   6.909  10.885   6.650  0.2934  0.4642  0.0355
51379SOL    HW165862   6.983  10.922   6.602  0.0861  0.5993 -0.1825
51379SOL    HW265863   6.931  10.900   6.742  0.6277  0.3271 -0.0195
51380SOL     OW65864   3.136  10.292   3.792 -0.2483  0.1169  0.2026
51380SOL    HW165865   3.186  10.351   3.848  0.9217 -0.6288 -0.0228
51380SOL    HW265866   3.190  10.281   3.714 -0.6892 -0.8422  0.0159
51381SOL     OW65867   5.564   2.676   6.833  0.7202  0.0900 -0.4189
51381SOL    HW165868   5.570   2.659   6.739  3.5085 -0.5739 -0.2062
51381SOL    HW265869   5.623   2.750   6.848 -0.2170  0.6406  0.7482
51382SOL     OW65870  13.627  10.469   6.018  0.5239  0.1060 -0.0290
51382SOL    HW165871  13.663  10.435   5.936  1.2486  0.1271  0.2739
51382SOL    HW265872  13.602  10.559   5.997  0.6935  0.1077 -0.2363
51383SOL     OW65873   7.066   4.911   7.319 -0.1015  0.3550 -0.2543
51383SOL    HW165874   6.996   4.971   7.343 -0.9403 -1.4008  2.0462
51383SOL    HW265875   7.112   4.892   7.401  0.3517 -1.8214 -0.9178
51384SOL     OW65876   4.260   2.730  13.228 -0.0530 -0.1220  0.0431
51384SOL    HW165877   4.202   2.802  13.253  1.2627  0.2024  2.5339
51384SOL    HW265878   4.321   2.770  13.166 -0.7000  0.3050 -0.3265
51385SOL     OW65879   2.174   4.010   9.054  0.4069  0.1905  0.3652
51385SOL    HW165880   2.101   4.057   9.095 -0.9241 -0.7385 -0.8110
51385SOL    HW265881   2.132   3.956   8.987  2.3612  0.9286 -1.5698
51386SOL     OW65882   1.840  11.876   6.730  0.2485 -0.0842  0.5595
51386SOL    HW165883   1.854  11.934   6.805  3.0744  0.0847  0.0005
51386SOL    HW265884   1.778  11.810   6.762 -1.8513  2.2674  1.6976
51387SOL     OW65885   0.522   2.931   8.093 -0.0549 -0.5256 -0.5214
51387SOL    HW165886   0.599   2.971   8.053  0.9057 -0.7433  1.0230
51387SOL    HW265887   0.486   2.874   8.025  2.8392 -2.6816 -0.4241
51388SOL     OW65888  13.708   1.724   5.597  0.3087  0.0699 -0.7402
51388SOL    HW165889  13.650   1.670   5.650 -0.6971  0.7510 -1.1093
51388SOL    HW265890  13.782   1.667   5.576  1.1787  0.0051  2.0466
51389SOL     OW65891   2.775   1.504   8.313  0.1686  0.4302  0.7041
51389SOL    HW165892   2.845   1.439   8.316 -0.5895 -0.5024 -0.6566
51389SOL    HW265893   2.819   1.587   8.298  0.9370 -0.2976 -1.3249
51390SOL     OW65894  11.760  11.285   2.660  0.1536 -0.1845 -0.1329
51390SOL    HW165895  11.725  11.374   2.668 -1.6686 -0.8391 -0.1982
51390SOL    HW265896  11.701  11.243   2.596  0.6965 -1.5681  0.2507
51391SOL     OW65897   9.322   2.749   3.491  0.2949 -0.3375  0.0893
51391SOL    HW165898   9.304   2.769   3.399  3.3331  3.2456  0.0159
51391SOL    HW265899   9.249   2.787   3.538  0.0959  0.3563 -0.7495
51392SOL     OW65900  10.730  11.134  10.322  0.1807 -0.0848 -0.1802
51392SOL    HW165901  10.820  11.112  10.299  0.6117  0.5018  0.8734
51392SOL    HW265902  10.708  11.208  10.266  1.2749  1.4393  1.3030
51393SOL     OW65903  11.469   9.303  12.765  0.2608  0.3300 -0.1013
51393SOL    HW165904  11.420   9.384  12.751  2.3026  1.6182 -0.2266
51393SOL    HW265905  11.500   9.278  12.678  2.9862  1.7256  0.3489
51394SOL     OW65906  11.807   7.236   8.574  0.4480 -1.2782 -0.0326
51394SOL    HW165907  11.900   7.257   8.583 -0.0119  1.0032 -0.0134
51394SOL    HW265908  11.763   7.289   8.640 -1.0324 -0.8314 -1.3186
51395SOL     OW65909   7.535  11.059   2.528  0.0168  0.0132 -0.4918
51395SOL    HW165910   7.517  11.108   2.448 -1.7505 -0.6014 -0.4945
51395SOL    HW265911   7.571  11.124   2.588 -1.5056  1.1532 -0.7706
51396SOL     OW65912   2.766  13.721  13.315  0.1624  0.2434 -0.4988
51396SOL    HW165913   2.687  13.742  13.364 -0.9185 -1.3740 -1.4491
51396SOL    HW265914   2.771  13.625  13.317  1.6054  0.2736 -1.2290
51397SOL     OW65915   2.031   3.035   8.643  0.4240  0.3999  0.0950
51397SOL    HW165916   2.012   3.128   8.653 -0.6219  0.2115  0.0318
51397SOL    HW265917   2.043   3.003   8.732  0.0502  0.4545  0.1657
51398SOL     OW65918   3.708   5.324   6.234 -0.5066  0.5766  0.0919
51398SOL    HW165919   3.713   5.251   6.296  2.1954  0.8845  0.3430
51398SOL    HW265920   3.711   5.402   6.290 -2.0237  0.9034 -0.2518
51399SOL     OW65921  13.550   6.544   0.887  0.0208 -0.2713  0.1289
51399SOL    HW165922  13.633   6.539   0.840 -1.8352  0.7289 -3.5753
51399SOL    HW265923  13.540   6.636   0.911  0.2841 -0.5284  1.3186
51400SOL     OW65924  10.478  11.444  11.499  0.0581 -0.3384 -0.2028
51400SOL    HW165925  10.451  11.354  11.520  0.9907 -0.8123 -0.9599
51400SOL    HW265926  10.563  11.434  11.456 -1.6233  0.4836 -4.1747
51401SOL     OW65927   5.215   9.477   9.987  0.1578 -0.2790  0.6122
51401SOL    HW165928   5.254   9.436  10.064  1.5771  1.5556  0.9413
51401SOL    HW265929   5.185   9.562  10.018 -0.3091  0.0296 -0.6265
51402SOL     OW65930   1.071   8.690   1.654 -0.0930 -0.3341 -0.2745
51402SOL    HW165931   0.979   8.717   1.658  0.0568  0.5704 -2.0810
51402SOL    HW265932   1.070   8.599   1.685 -2.0042 -1.1620 -2.3926
51403SOL     OW65933   5.387   6.568  11.977 -0.5540 -0.3010 -0.4457
51403SOL    HW165934   5.384   6.618  12.059 -2.5975 -1.7382  0.4320
51403SOL    HW265935   5.340   6.623  11.914  0.0358  0.2967 -0.3839
51404SOL     OW65936   0.716  10.850   7.712 -0.2574  0.0019 -0.5685
51404SOL    HW165937   0.706  10.876   7.621 -0.9856  0.0786 -0.4744
51404SOL    HW265938   0.658  10.910   7.760  1.9447  1.6135  0.2287
51405SOL     OW65939  12.403   8.297   6.110 -0.8072 -0.8342 -0.0787
51405SOL    HW165940  12.499   8.300   6.106 -0.7645 -1.4632  0.4515
51405SOL    HW265941  12.375   8.339   6.028 -0.0816 -0.8150 -0.3271
51406SOL     OW65942   1.285   2.321   6.678 -0.3449 -0.4745  0.2222
51406SOL    HW165943   1.209   2.290   6.628 -0.6980  1.1384 -0.3090
51406SOL    HW265944   1.279   2.276   6.762 -1.5716 -0.8149 -0.0322
51407SOL     OW65945   5.192   9.359   4.912 -0.3626  0.2805 -0.2947
51407SOL    HW165946   5.224   9.398   4.993 -1.6880  0.6813  0.0476
51407SOL    HW265947   5.111   9.406   4.892 -0.5151 -0.3982 -1.3898
51408SOL     OW65948   5.735   6.101   5.264  0.1186 -0.5576  0.1148
51408SOL    HW165949   5.796   6.028   5.276 -0.0829 -0.8260 -0.4451
51408SOL    HW265950   5.694   6.113   5.350  1.6789  0.2900  0.7887
51409SOL     OW65951   4.043   1.824   3.862  0.1391  0.2596  0.2434
51409SOL    HW165952   4.029   1.918   3.848 -0.0459  0.1645 -0.2262
51409SOL    HW265953   3.995   1.804   3.943  0.3167  0.6003  0.4347
51410SOL     OW65954  11.340  11.977  11.909  0.5616  0.1139 -0.3692
51410SOL    HW165955  11.347  11.883  11.923 -0.1152  0.2376  0.9712
51410SOL    HW265956  11.274  11.986  11.840 -1.1139 -0.3638  1.0720
51411SOL     OW65957   0.480  13.206   0.774  0.4340  0.0849  0.3561
51411SOL    HW165958   0.512  13.123   0.738 -1.2662  0.2567 -1.7022
51411SOL    HW265959   0.555  13.265   0.768  1.7695 -1.3200  2.1391
51412SOL     OW65960   8.651   3.676  11.547  0.1234 -0.5445  0.1532
51412SOL    HW165961   8.688   3.732  11.615 -1.9796  0.2658  0.7050
51412SOL    HW265962   8.727   3.644  11.498  1.4817  1.6743  0.6894
51413SOL     OW65963   7.642  12.533   0.191 -0.1644 -0.3246 -0.5696
51413SOL    HW165964   7.548  12.543   0.207 -0.2530  0.0772 -1.2962
51413SOL    HW265965   7.647  12.494   0.103  0.3823  2.3570 -1.8221
51414SOL     OW65966   9.504   6.416   7.684 -0.1549  0.2616  0.6404
51414SOL    HW165967   9.583   6.463   7.658 -0.4633  0.0201 -0.8029
51414SOL    HW265968   9.460   6.394   7.602 -0.8085 -1.2007  1.3332
51415SOL     OW65969   3.249   4.621   9.307 -0.2800  0.2261  0.0041
51415SOL    HW165970   3.255   4.643   9.214  0.5954  0.7383  0.1657
51415SOL    HW265971   3.225   4.528   9.308 -1.1350  0.4247 -0.7142
51416SOL     OW65972  11.280  12.775   8.373  0.5767  0.1095 -0.7214
51416SOL    HW165973  11.260  12.765   8.466 -0.6057  1.1034 -0.8349
51416SOL    HW265974  11.233  12.703   8.331 -1.0063  1.1201 -0.7630
51417SOL     OW65975   9.458  11.843   6.122 -0.1769 -0.0544  0.3711
51417SOL    HW165976   9.513  11.895   6.181  0.8067  0.3508 -0.8693
51417SOL    HW265977   9.511  11.831   6.044 -1.9325  0.5731 -0.9885
51418SOL     OW65978   8.275   0.846  10.539 -0.2056  0.4637 -0.7813
51418SOL    HW165979   8.186   0.842  10.575  0.6507 -0.9921  1.3543
51418SOL    HW265980   8.323   0.900  10.602  1.1167 -1.3073 -0.2161
51419SOL     OW65981   7.686   4.125  11.434 -0.0167  0.1478 -0.3809
51419SOL    HW165982   7.712   4.165  11.517 -0.0950 -1.3187  0.3881
51419SOL    HW265983   7.708   4.191  11.368  2.3501  0.4082  0.5494
51420SOL     OW65984  13.481  12.401   5.486 -0.0981  0.6262 -0.1417
51420SOL    HW165985  13.476  12.400   5.390 -1.9603 -1.1501 -0.0890
51420SOL    HW265986  13.460  12.491   5.509  0.0569  1.0115 -1.3992
51421SOL     OW65987   5.194   1.743  11.732  0.2560  0.0746  0.0714
51421SOL    HW165988   5.179   1.726  11.825  0.8737  0.7243  0.3045
51421SOL    HW265989   5.196   1.657  11.691  0.4836 -0.2459  0.7499
51422SOL     OW65990   8.795   1.100  12.585  0.0383  0.5284 -0.8104
51422SOL    HW165991   8.822   1.021  12.537  0.3583  0.0380  0.1419
51422SOL    HW265992   8.753   1.066  12.664  3.6300  1.1753  1.6109
51423SOL     OW65993   7.834   5.325   5.391  0.1538  0.4574 -0.2620
51423SOL    HW165994   7.882   5.374   5.458  0.5592 -2.0023  1.3762
51423SOL    HW265995   7.891   5.251   5.370 -1.9011 -1.3043  0.0298
51424SOL     OW65996   3.781   0.069  10.287  0.5078  0.1438  0.0389
51424SOL    HW165997   3.754   0.156  10.318  0.9068  0.0477  0.6887
51424SOL    HW265998   3.713   0.043  10.225 -0.5611  0.1749  1.1502
51425SOL     OW65999   9.223   3.994   9.225 -0.3047 -0.0698  0.3012
51425SOL    HW166000   9.183   3.941   9.156  1.7764 -0.9532 -0.3171
51425SOL    HW266001   9.242   3.932   9.296  1.2918 -0.0228 -0.0413
51426SOL     OW66002  13.177   6.509   8.841  0.5343  0.1485 -0.2820
51426SOL    HW166003  13.120   6.562   8.896  1.3899  1.2278 -0.3927
51426SOL    HW266004  13.124   6.489   8.764 -0.0696  0.1691  0.1258
51427SOL     OW66005  10.370  10.668  12.270  0.6966  0.1990  0.5955
51427SOL    HW166006  10.333  10.639  12.353 -1.2726  1.4419  0.2118
51427SOL    HW266007  10.439  10.730  12.296  0.3075  0.3520  1.2981
51428SOL     OW66008   2.892  10.859   6.468 -0.0435  0.3026 -0.1631
51428SOL    HW166009   2.885  10.912   6.547  2.0408  0.4518 -0.0032
51428SOL    HW266010   2.986  10.841   6.460 -0.5639 -2.5179 -0.7951
51429SOL     OW66011  12.309   9.039   5.600  0.1558 -0.0613 -0.1099
51429SOL    HW166012  12.220   9.067   5.577 -0.4731 -0.6314  1.5188
51429SOL    HW266013  12.332   9.092   5.676  0.3051 -1.5052  0.8858
51430SOL     OW66014  12.976   3.088   0.940 -0.1076 -0.3537 -0.1135
51430SOL    HW166015  13.002   3.125   1.024 -0.7603 -0.2367  0.0428
51430SOL    HW266016  13.055   3.093   0.886  0.0268  0.5476  0.1477
51431SOL     OW66017   0.742   7.287   2.125 -0.2310  0.1784 -0.4211
51431SOL    HW166018   0.742   7.324   2.037 -0.3102 -0.4490 -0.6899
51431SOL    HW266019   0.668   7.328   2.169 -0.3837  0.2558 -0.7502
51432SOL     OW66020   1.274   2.984   7.628  0.1169 -0.7350  0.0463
51432SOL    HW166021   1.289   3.017   7.717 -0.2688 -1.6707  0.4774
51432SOL    HW266022   1.320   2.899   7.626  0.6387 -0.4458 -0.8504
51433SOL     OW66023   2.298   6.436   1.431  0.1118 -0.3359  0.1827
51433SOL    HW166024   2.354   6.509   1.408  0.9042 -0.2032  2.3139
51433SOL    HW266025   2.246   6.419   1.352 -0.1849  2.5665 -0.3370
51434SOL     OW66026   3.145   5.577   7.304  0.1025 -0.8322  0.1031
51434SOL    HW166027   3.105   5.538   7.382 -0.7091  0.7937  0.5458
51434SOL    HW266028   3.105   5.530   7.231 -0.0061 -1.5888  0.6358
51435SOL     OW66029   5.494   6.480   9.250  0.3811 -0.3878  0.1594
51435SOL    HW166030   5.546   6.549   9.291  1.1012  0.3839 -1.9180
51435SOL    HW266031   5.558   6.426   9.204 -0.4786 -0.5655 -0.8568
51436SOL     OW66032   1.363  11.710   9.409  0.6097 -0.1438 -0.5701
51436SOL    HW166033   1.355  11.805   9.418 -1.6437 -0.3268  0.0447
51436SOL    HW266034   1.290  11.675   9.459  1.5183 -2.2340 -0.6109
51437SOL     OW66035   6.043   5.594  11.558 -0.1538 -0.1936  0.4274
51437SOL    HW166036   6.008   5.505  11.561 -0.7584 -0.0117 -0.7078
51437SOL    HW266037   6.071   5.612  11.648 -3.5348 -0.0966  1.5686
51438SOL     OW66038   0.475  10.884   4.832 -0.6698 -0.2043  0.0630
51438SOL    HW166039   0.484  10.860   4.739  1.0060 -0.9161  0.3770
51438SOL    HW266040   0.441  10.804   4.873  1.4733 -0.9443  0.5170
51439SOL     OW66041   7.581   8.432   4.854  0.0510 -0.6676 -0.1574
51439SOL    HW166042   7.662   8.471   4.821  0.0930 -1.6494 -1.3106
51439SOL    HW266043   7.609   8.368   4.919  0.0219  0.7086  1.2478
51440SOL     OW66044   0.299   2.576   2.369  0.0249  0.6172  0.5030
51440SOL    HW166045   0.205   2.569   2.352 -0.0230 -0.1554  1.0454
51440SOL    HW266046   0.337   2.589   2.282 -0.4645 -0.5412  0.0875
51441SOL     OW66047   3.273   9.025   1.897 -0.6688  0.2335 -0.6647
51441SOL    HW166048   3.358   9.067   1.883  0.3191 -1.2052  0.6925
51441SOL    HW266049   3.213   9.074   1.841  0.7592  2.2487 -0.5481
51442SOL     OW66050  10.889   4.787   3.794  0.1670 -0.3384 -0.5913
51442SOL    HW166051  10.827   4.835   3.850  1.6189 -0.5507  1.3245
51442SOL    HW266052  10.975   4.808   3.832  1.1340 -1.4028 -2.1102
51443SOL     OW66053   2.427  12.702  11.480 -0.3033  0.0477 -0.2248
51443SOL    HW166054   2.417  12.786  11.435  3.1348  1.7639  1.7377
51443SOL    HW266055   2.352  12.698  11.540 -0.9301  1.3482 -0.8871
51444SOL     OW66056   1.243   1.049   6.695 -0.1887  0.5624 -0.3872
51444SOL    HW166057   1.198   1.113   6.640 -0.3672 -0.1062 -1.0523
51444SOL    HW266058   1.181   1.028   6.764 -0.9256 -0.3319 -1.2844
51445SOL     OW66059  10.440   5.766  13.046  0.0495  0.1956 -0.0933
51445SOL    HW166060  10.431   5.856  13.078  0.9662  0.2837 -0.0447
51445SOL    HW266061  10.520   5.767  12.993  0.0910 -0.5947 -0.0618
51446SOL     OW66062  12.021   8.158   0.302  0.7640  0.1948  0.0094
51446SOL    HW166063  12.020   8.239   0.352  0.7369  1.2558 -1.6061
51446SOL    HW266064  12.060   8.183   0.218  0.8905 -1.5047 -0.4773
51447SOL     OW66065   0.407  12.113  11.730 -0.0152  0.1150  0.4022
51447SOL    HW166066   0.468  12.061  11.783 -0.9500 -1.2362  0.2138
51447SOL    HW266067   0.347  12.151  11.794 -0.3548 -0.4524  0.4316
51448SOL     OW66068  11.380   6.305   5.947 -0.4464 -0.4396  0.5105
51448SOL    HW166069  11.430   6.368   5.999 -0.4774  0.1368 -0.1420
51448SOL    HW266070  11.416   6.219   5.972 -0.7869 -0.2203  1.8277
51449SOL     OW66071   5.115   2.553   8.213 -0.0403  0.0696 -0.2674
51449SOL    HW166072   5.027   2.551   8.176 -0.0742  2.0527 -0.4493
51449SOL    HW266073   5.148   2.640   8.189  1.2878  0.0520  1.3174
51450SOL     OW66074   5.474   1.997   6.555  0.3051 -0.0278  0.0797
51450SOL    HW166075   5.461   1.923   6.496 -0.6438 -0.9660  1.4348
51450SOL    HW266076   5.549   1.972   6.609  0.3824  0.2900  0.1223
51451SOL     OW66077  12.610   4.724   7.513 -0.9430 -0.1707  0.0162
51451SOL    HW166078  12.626   4.635   7.481 -0.7750  0.0201 -0.4489
51451SOL    HW266079  12.679   4.776   7.472  0.1538 -0.1338  1.7772
51452SOL     OW66080   2.515   3.034   2.042  0.1982  0.2940 -0.5495
51452SOL    HW166081   2.602   2.996   2.049  0.6556  1.5047  0.7015
51452SOL    HW266082   2.528   3.118   2.000 -0.7110 -0.4926 -2.5637
51453SOL     OW66083   2.358   7.504   5.914  0.4034  0.3162  0.2336
51453SOL    HW166084   2.396   7.522   5.828  0.3990  0.8729  0.3456
51453SOL    HW266085   2.379   7.581   5.966  0.9730 -0.2938  0.9317
51454SOL     OW66086  12.397   7.493   8.193 -0.6535 -0.1789  0.2649
51454SOL    HW166087  12.408   7.412   8.243  0.5716 -0.9135 -1.0943
51454SOL    HW266088  12.415   7.467   8.102 -2.7119  1.1022 -0.5855
51455SOL     OW66089   9.429   2.149  10.751  0.0238 -0.0847  0.0114
51455SOL    HW166090   9.342   2.188  10.741  0.2714  0.3940 -0.3621
51455SOL    HW266091   9.413   2.055  10.753 -0.8589  0.0136  3.5945
51456SOL     OW66092   2.911   9.353  11.115 -0.3710 -0.2909  0.2784
51456SOL    HW166093   2.935   9.301  11.192  1.5690 -0.5324 -0.4471
51456SOL    HW266094   2.930   9.443  11.140  0.5923 -0.4027 -0.0107
51457SOL     OW66095   3.720   7.832   5.873  0.4247 -0.4416  0.1700
51457SOL    HW166096   3.751   7.813   5.961  1.0774 -1.0805 -0.1891
51457SOL    HW266097   3.798   7.826   5.818 -0.0787 -0.6207 -0.5372
51458SOL     OW66098   4.877   3.646  13.074  0.2094  0.2507  0.2433
51458SOL    HW166099   4.838   3.568  13.035 -1.1242  0.3536  1.2977
51458SOL    HW266100   4.806   3.710  13.077  1.4166  1.7785 -1.1656
51459SOL     OW66101   8.608  11.459   2.366 -0.7003  0.2118  0.0945
51459SOL    HW166102   8.594  11.553   2.351  2.5901  1.0651  1.4178
51459SOL    HW266103   8.667  11.456   2.442 -0.8217 -2.9540  0.1731
51460SOL     OW66104   5.746   0.468  12.552  0.2130 -0.1233 -0.4170
51460SOL    HW166105   5.826   0.514  12.577 -0.9227  1.5994  0.2095
51460SOL    HW266106   5.758   0.379  12.585  2.0250 -0.0150 -0.7074
51461SOL     OW66107   9.035  11.802   9.302 -0.2627  0.2815 -0.3323
51461SOL    HW166108   8.975  11.856   9.252 -0.4231 -0.4743 -0.9735
51461SOL    HW266109   9.022  11.830   9.393 -0.4227  1.2224 -0.6312
51462SOL     OW66110   3.782   8.054  11.302  0.3127  0.3076  0.0565
51462SOL    HW166111   3.819   8.052  11.214  3.9352  3.2149  1.2931
51462SOL    HW266112   3.845   8.006  11.355 -1.1744 -0.3137  1.3255
51463SOL     OW66113  10.617   6.376   5.787  0.0478 -0.0068  0.1631
51463SOL    HW166114  10.675   6.420   5.725  1.1728  0.7509  1.6777
51463SOL    HW266115  10.621   6.283   5.762  2.0046  0.0052  0.2352
51464SOL     OW66116   8.248  10.857  11.172 -0.5531  0.1869  0.3310
51464SOL    HW166117   8.320  10.873  11.110  0.6191  1.0562  1.8579
51464SOL    HW266118   8.290  10.854  11.258 -2.0095 -1.9145  1.0521
51465SOL     OW66119  11.702   1.357   7.760 -0.9908  0.0960  0.1725
51465SOL    HW166120  11.606   1.354   7.760 -0.9788 -0.3618 -0.2486
51465SOL    HW266121  11.729   1.267   7.741 -0.4917  0.5507 -1.4164
51466SOL     OW66122   3.862   2.443  12.758  0.1063 -0.3196 -0.2072
51466SOL    HW166123   3.851   2.471  12.849 -0.2948 -2.6577  0.5433
51466SOL    HW266124   3.809   2.504  12.708  0.7001  1.3052  1.0617
51467SOL     OW66125  12.108   7.250   8.137 -0.5689 -0.4068  0.0446
51467SOL    HW166126  12.200   7.225   8.143 -0.7296 -1.1878 -0.5575
51467SOL    HW266127  12.107   7.323   8.075 -0.0831  1.2580  1.9154
51468SOL     OW66128  13.610   9.058  11.631  0.0852  0.6645 -0.1892
51468SOL    HW166129  13.518   9.049  11.607 -0.0824 -0.7679  0.8223
51468SOL    HW266130  13.654   9.085  11.551 -1.1725  1.0713 -0.7587
51469SOL     OW66131   2.092  11.550   0.537  1.1302  0.3423  0.2774
51469SOL    HW166132   1.998  11.570   0.541  0.6822 -1.6518  0.6633
51469SOL    HW266133   2.104  11.480   0.601  3.0781  1.1848  0.8866
51470SOL     OW66134   1.839   6.708  13.002  0.5137 -0.2466  0.0555
51470SOL    HW166135   1.782   6.782  12.981 -0.1475 -0.9337 -0.6737
51470SOL    HW266136   1.856   6.715  13.096  0.2450  0.6724  0.0406
51471SOL     OW66137  11.274  11.457  11.498 -0.1751  0.2060  0.1383
51471SOL    HW166138  11.292  11.547  11.469  2.1172 -0.5854 -1.1401
51471SOL    HW266139  11.281  11.461  11.593  0.2338  1.3220  0.0833
51472SOL     OW66140   1.111   3.068   7.397  0.1149 -0.1397  0.2995
51472SOL    HW166141   1.139   3.047   7.487  2.2475  1.5464  0.1053
51472SOL    HW266142   1.095   2.983   7.357 -0.3198 -0.9579  2.0913
51473SOL     OW66143   2.043   5.902  13.509 -0.2751  0.1754  0.4397
51473SOL    HW166144   2.048   5.874  13.600  0.7486 -1.3576 -0.0315
51473SOL    HW266145   2.037   5.820  13.459  0.0930  0.9330 -0.9126
51474SOL     OW66146  11.221   9.832  12.867 -0.1433 -0.2850  0.0391
51474SOL    HW166147  11.130   9.860  12.859 -0.1643 -0.2913  0.2675
51474SOL    HW266148  11.269   9.892  12.809 -0.4027 -0.8499 -0.7865
51475SOL     OW66149  12.325  13.721   9.752 -0.3604  0.0688  0.2790
51475SOL    HW166150  12.403  13.690   9.798 -0.5159 -1.7193 -0.5500
51475SOL    HW266151  12.252  13.685   9.803 -0.5464 -1.0891 -0.7282
51476SOL     OW66152   0.318  11.544   0.621  0.7654  0.1159  0.5265
51476SOL    HW166153   0.370  11.481   0.571  0.4624 -0.8566  1.3947
51476SOL    HW266154   0.382  11.603   0.660  1.1065 -0.1170  0.3213
51477SOL     OW66155   1.184   3.099   8.163 -0.3740  0.6639 -0.2750
51477SOL    HW166156   1.254   3.061   8.110  0.7660  1.8050  0.3558
51477SOL    HW266157   1.175   3.039   8.237  0.3451  0.8034 -0.0691
51478SOL     OW66158   9.387   7.434  12.206 -0.2612 -0.0653 -0.5811
51478SOL    HW166159   9.341   7.424  12.290  0.1555  0.7873 -0.2370
51478SOL    HW266160   9.450   7.505  12.222  1.5095 -1.4935 -0.8904
51479SOL     OW66161  10.710   2.372  11.866 -0.8176  0.2376  0.2606
51479SOL    HW166162  10.778   2.304  11.867  0.0624  1.0919  0.2507
51479SOL    HW266163  10.759   2.454  11.859 -1.8382  0.9042  0.7401
51480SOL     OW66164   4.625  12.573   3.708 -0.2571 -0.3279 -0.3447
51480SOL    HW166165   4.541  12.603   3.743  1.7194  3.4510  1.9229
51480SOL    HW266166   4.677  12.551   3.786  2.0144  1.2744 -1.2950
51481SOL     OW66167   3.807  12.713   3.426  0.0912 -0.3490 -0.5844
51481SOL    HW166168   3.800  12.795   3.473  1.6631 -0.8005  0.5269
51481SOL    HW266169   3.799  12.645   3.493  0.4887 -1.0569 -1.2309
51482SOL     OW66170   3.193   0.782   6.062 -0.3518  0.5854 -0.4262
51482SOL    HW166171   3.112   0.744   6.097  0.0226 -1.6996 -1.8896
51482SOL    HW266172   3.163   0.844   5.996 -0.9198 -0.1830 -0.9011
51483SOL     OW66173   2.855   8.850   6.491 -0.6465 -0.2408 -0.0114
51483SOL    HW166174   2.865   8.923   6.430 -0.9233 -0.6822 -0.5946
51483SOL    HW266175   2.932   8.795   6.476 -0.7314 -0.3680  0.0119
51484SOL     OW66176   5.645   2.604  10.579 -0.1444 -0.1168 -0.0547
51484SOL    HW166177   5.556   2.569  10.571  0.3197 -1.4138  0.2447
51484SOL    HW266178   5.683   2.557  10.654  0.8432  0.3149 -0.2682
51485SOL     OW66179  10.493   8.493  10.767  0.3946  0.2089  0.4803
51485SOL    HW166180  10.400   8.478  10.754  0.1949  0.2227  1.8263
51485SOL    HW266181  10.533   8.408  10.747  0.1375  0.2665 -0.3318
51486SOL     OW66182  12.477   8.646   3.297  0.0573 -0.1172 -0.7803
51486SOL    HW166183  12.390   8.666   3.333  0.0964 -0.7666 -0.2978
51486SOL    HW266184  12.461   8.574   3.235  0.3759 -0.9086  0.0376
51487SOL     OW66185   7.798  10.957   3.382  0.1369 -0.3925 -0.2479
51487SOL    HW166186   7.779  10.867   3.355 -0.9711 -0.3851  0.4248
51487SOL    HW266187   7.729  11.009   3.341 -1.5664 -0.3718  2.4262
51488SOL     OW66188   6.123  12.680  12.892 -0.4965 -0.4404  0.3024
51488SOL    HW166189   6.076  12.603  12.923 -2.4271 -0.0193 -1.3623
51488SOL    HW266190   6.215  12.662  12.912 -1.1071 -2.2502  1.7728
51489SOL     OW66191   2.657   7.159   6.896 -0.1785  0.1440  0.0412
51489SOL    HW166192   2.711   7.189   6.823  1.0605 -1.0333  0.4440
51489SOL    HW266193   2.705   7.086   6.934 -0.8792  0.6223  1.9536
51490SOL     OW66194   1.128   7.133   1.537  0.4154 -0.4994  0.5718
51490SOL    HW166195   1.053   7.080   1.508  0.2863 -0.3049  0.5528
51490SOL    HW266196   1.204   7.085   1.505  0.3802 -1.6052  2.0381
51491SOL     OW66197  11.090   5.740   0.852  0.6482  0.2330  0.2501
51491SOL    HW166198  11.180   5.707   0.845  0.7277  0.5658 -0.2494
51491SOL    HW266199  11.037   5.672   0.810  1.0387  1.8462 -3.1441
51492SOL     OW66200   3.173  10.435   5.934 -0.5114  0.2141 -0.4955
51492SOL    HW166201   3.128  10.417   6.017 -0.3343  0.3137 -0.3780
51492SOL    HW266202   3.141  10.521   5.908  1.5084  1.4524  0.8726
51493SOL     OW66203  11.371   2.274   6.750 -0.0182 -0.4269 -0.4159
51493SOL    HW166204  11.438   2.328   6.792 -0.7853 -0.6832  1.2111
51493SOL    HW266205  11.295   2.332   6.743  0.0866 -0.3892 -1.5195
51494SOL     OW66206   2.185   2.388   4.850  0.1132  0.0053 -0.0638
51494SOL    HW166207   2.129   2.312   4.865  0.6001 -0.5727 -1.0780
51494SOL    HW266208   2.252   2.357   4.789 -0.4783  1.5961 -1.6211
51495SOL     OW66209   3.767   4.015  11.250 -0.2512  0.1327 -0.2158
51495SOL    HW166210   3.836   4.074  11.220  0.2138  0.0313  0.6366
51495SOL    HW266211   3.764   3.947  11.183  1.4148 -0.5856  0.3823
51496SOL     OW66212   8.744   1.762   5.871  0.8747  0.4918 -0.7457
51496SOL    HW166213   8.789   1.821   5.932 -0.2649  1.9982 -1.3094
51496SOL    HW266214   8.711   1.819   5.802 -1.4899 -0.5720 -0.5945
51497SOL     OW66215  13.310   3.114   3.636  0.2918  0.3824  0.2063
51497SOL    HW166216  13.223   3.115   3.597  0.4148 -0.5048 -0.1226
51497SOL    HW266217  13.318   3.199   3.679 -1.5097 -0.2606  1.9565
51498SOL     OW66218   9.762   6.476   8.934 -0.1405  0.3472  0.0071
51498SOL    HW166219   9.691   6.535   8.957 -0.3390  0.0872  0.0652
51498SOL    HW266220   9.835   6.534   8.913 -0.3530  0.6145 -0.0044
51499SOL     OW66221   9.192  12.862   6.713 -0.5399  0.1060  0.5461
51499SOL    HW166222   9.129  12.887   6.780 -3.3612 -2.2957 -0.9518
51499SOL    HW266223   9.197  12.766   6.719 -1.0970 -0.2531 -2.6553
51500SOL     OW66224  11.716   1.405   6.514 -0.3409 -0.6048  0.5757
51500SOL    HW166225  11.624   1.377   6.507 -0.5778 -0.1042  1.5795
51500SOL    HW266226  11.765   1.323   6.515 -0.6926 -0.8695 -0.7813
51501SOL     OW66227   3.077  11.087   1.526  0.7074 -0.0918 -0.2193
51501SOL    HW166228   3.099  11.113   1.437  1.2547 -2.6503 -0.9171
51501SOL    HW266229   3.159  11.054   1.563  0.3976  0.5525  1.0998
51502SOL     OW66230   2.266  11.346   1.995  0.0496 -0.1949 -0.0994
51502SOL    HW166231   2.313  11.429   1.992  0.2406 -0.2098  1.6702
51502SOL    HW266232   2.193  11.361   2.055 -1.2324 -0.6842 -1.4627
51503SOL     OW66233   8.197  10.188   3.401  0.1459 -0.1140  0.7307
51503SOL    HW166234   8.192  10.276   3.440  0.7558 -0.2870  1.2094
51503SOL    HW266235   8.110  10.174   3.364  0.6700  1.5933 -1.3602
51504SOL     OW66236   4.155   4.187   7.821 -0.3117  0.3516  0.0939
51504SOL    HW166237   4.180   4.274   7.789  0.0864  0.6000  1.0372
51504SOL    HW266238   4.100   4.205   7.897 -1.5086 -0.2221 -0.6261
51505SOL     OW66239   1.817   7.336   4.862  0.1206  0.0182 -0.0935
51505SOL    HW166240   1.865   7.358   4.783  0.9928 -0.9138  0.1652
51505SOL    HW266241   1.753   7.407   4.871  0.8603  0.8211 -0.9134
51506SOL     OW66242   8.822   2.026   5.545  0.5224  0.2896  0.5152
51506SOL    HW166243   8.910   2.051   5.572  1.7056 -1.3189 -1.5437
51506SOL    HW266244   8.835   1.971   5.468 -2.3782  1.4134 -0.9307
51507SOL     OW66245  10.933   4.306  12.691  0.5822 -0.0753 -0.2558
51507SOL    HW166246  10.952   4.312  12.597 -0.0126  2.5116 -0.3062
51507SOL    HW266247  10.838   4.318  12.697  0.5590 -0.6161  0.6684
51508SOL     OW66248   3.028   7.852  11.673  0.2681 -0.2399  0.2759
51508SOL    HW166249   2.966   7.895  11.614  1.4200  0.9492 -0.1071
51508SOL    HW266250   3.112   7.894  11.655  1.2030 -1.7954  0.7968
51509SOL     OW66251  12.578  10.433   0.568  0.0820  0.4020 -0.0008
51509SOL    HW166252  12.496  10.466   0.531  0.0095  0.2480  0.0259
51509SOL    HW266253  12.571  10.338   0.563 -0.9326  0.2673  2.5129
51510SOL     OW66254  13.333   2.964   2.199  0.2100  0.3504  0.0581
51510SOL    HW166255  13.272   3.009   2.258  2.6560  3.1396  0.7104
51510SOL    HW266256  13.309   2.996   2.112 -1.7348 -1.7522 -0.2705
51511SOL     OW66257  12.901   7.606   0.125  0.3362  0.2327 -0.0933
51511SOL    HW166258  12.868   7.670   0.188 -0.7765 -0.5151  0.1165
51511SOL    HW266259  12.822   7.562   0.092  1.1299 -3.1625  2.0678
51512SOL     OW66260   8.870   0.235   6.621 -0.1098  0.2026  0.1070
51512SOL    HW166261   8.866   0.147   6.585 -1.6265  0.4220 -0.3221
51512SOL    HW266262   8.837   0.227   6.710  0.3425  0.2300  0.2764
51513SOL     OW66263   2.103   5.954  11.915  0.3147  0.4628 -0.1402
51513SOL    HW166264   2.055   6.021  11.866  0.7633 -0.7118 -2.3241
51513SOL    HW266265   2.040   5.922  11.979 -0.4231  1.8527 -0.1401
51514SOL     OW66266  12.965   4.239   4.634  0.6283  0.0425 -0.2399
51514SOL    HW166267  12.920   4.311   4.588 -0.2266 -0.2818  0.0705
51514SOL    HW266268  12.997   4.183   4.563 -0.9519 -0.6153 -0.4693
51515SOL     OW66269   7.464  12.361   8.470  0.1084  0.2501  0.3552
51515SOL    HW166270   7.502  12.353   8.558 -1.0363 -1.4318  0.7478
51515SOL    HW266271   7.383  12.309   8.474  1.0193 -1.5837 -2.2632
51516SOL     OW66272   9.896   4.973   0.920  0.3446 -0.4498  0.0289
51516SOL    HW166273   9.816   4.935   0.957  0.2770  0.6160  1.0140
51516SOL    HW266274   9.865   5.037   0.856  0.3065  1.2612  1.6666
51517SOL     OW66275   8.158  12.898   8.632 -0.3616 -0.2467 -0.6294
51517SOL    HW166276   8.189  12.915   8.544  2.0019  1.6751  0.4623
51517SOL    HW266277   8.194  12.969   8.685 -0.6169 -1.9773  2.1143
51518SOL     OW66278   1.510   7.796   9.572 -0.1671  0.3509  0.3214
51518SOL    HW166279   1.601   7.813   9.548 -0.1505  0.5455  0.5173
51518SOL    HW266280   1.493   7.707   9.540  0.2267  0.1406  0.6720
51519SOL     OW66281   0.610  13.492   7.528  0.4269  0.3751  0.5212
51519SOL    HW166282   0.610  13.583   7.559 -1.7869  1.9463 -3.4191
51519SOL    HW266283   0.657  13.495   7.445 -0.7366 -1.7771 -0.2820
51520SOL     OW66284  12.676   9.532   5.693  0.0996  0.1163 -0.1783
51520SOL    HW166285  12.624   9.607   5.723 -0.3425  0.8414 -2.5143
51520SOL    HW266286  12.657   9.527   5.599  2.8176 -0.7852 -0.7574
51521SOL     OW66287  10.647   7.292   2.815 -0.7021  0.3775  0.0949
51521SOL    HW166288  10.707   7.289   2.889  0.0680  0.0650 -0.5320
51521SOL    HW266289  10.560   7.278   2.853 -0.2090 -0.8276  0.8165
51522SOL     OW66290   4.416   0.224   6.030  0.1127  0.0070  0.4480
51522SOL    HW166291   4.393   0.132   6.033  0.1901 -0.0390 -0.2217
51522SOL    HW266292   4.332   0.270   6.032  0.0925 -0.0466  1.4547
51523SOL     OW66293   8.246  11.515   8.385 -0.0439 -0.3458 -0.1128
51523SOL    HW166294   8.180  11.462   8.341 -0.1751  0.4742 -0.9234
51523SOL    HW266295   8.234  11.495   8.478 -0.5442 -1.2052 -0.3533
51524SOL     OW66296   6.599   9.162   6.736  0.4321 -0.2025  0.3966
51524SOL    HW166297   6.660   9.210   6.680 -0.6295  0.8536  0.0897
51524SOL    HW266298   6.599   9.211   6.819  1.3859 -1.2880  1.0636
51525SOL     OW66299   2.324  13.202   3.367  0.8596  0.4130 -0.7059
51525SOL    HW166300   2.328  13.243   3.280  1.3535  0.5459 -0.6195
51525SOL    HW266301   2.284  13.117   3.352  2.8320 -0.4228 -1.3723
51526SOL     OW66302  12.305   9.096   1.701  0.2459  0.4037 -0.4355
51526SOL    HW166303  12.246   9.129   1.769 -0.2299 -0.9661 -0.1634
51526SOL    HW266304  12.262   9.120   1.619 -0.6047 -0.3941 -0.2391
51527SOL     OW66305   5.632   5.349  11.816 -0.0509 -0.5070 -0.3508
51527SOL    HW166306   5.603   5.321  11.729  1.1105  0.1093 -0.9642
51527SOL    HW266307   5.615   5.274  11.873 -2.9356 -0.1514 -0.6083
51528SOL     OW66308   2.090   6.699   0.045  0.3699 -0.0616 -0.1346
51528SOL    HW166309   2.105   6.765  -0.023  0.0611  1.5357  1.2702
51528SOL    HW266310   1.995   6.693   0.052  0.3969 -0.1841  0.1517
51529SOL     OW66311   0.701   2.210   2.161  0.0159 -0.1692  0.2431
51529SOL    HW166312   0.744   2.184   2.243  0.8587 -2.3385 -0.7903
51529SOL    HW266313   0.772   2.240   2.105 -0.2580 -0.5619 -0.3327
51530SOL     OW66314   7.220   2.397   2.417  0.3307  0.1319  0.0630
51530SOL    HW166315   7.253   2.361   2.335  1.2920  1.3349 -0.0990
51530SOL    HW266316   7.131   2.426   2.396 -0.6515 -2.3600  0.2962
51531SOL     OW66317  12.261   3.275  12.066  0.1270 -0.1567 -0.1460
51531SOL    HW166318  12.229   3.357  12.028 -0.0240 -0.4591 -0.6893
51531SOL    HW266319  12.259   3.289  12.160  0.4617  0.5976 -0.2500
51532SOL     OW66320  10.372   1.510  10.901  0.3905  0.4877  0.0294
51532SOL    HW166321  10.310   1.546  10.837 -0.5023  1.2980  1.3193
51532SOL    HW266322  10.425   1.448  10.850  0.4076  1.8596 -1.7216
51533SOL     OW66323   3.758   9.908   4.198  0.1504 -0.4495 -0.1953
51533SOL    HW166324   3.688   9.889   4.260 -2.0859  0.5667 -2.2830
51533SOL    HW266325   3.726   9.875   4.114  2.0800  0.2506 -1.2663
51534SOL     OW66326  13.681   3.760  12.565 -0.4343  1.0041  0.3849
51534SOL    HW166327  13.735   3.814  12.623  0.3275 -0.6867  1.3060
51534SOL    HW266328  13.591   3.785  12.586 -0.1039  2.2593  0.4203
51535SOL     OW66329   1.733   2.835   4.569  0.1995  0.3693  0.3456
51535SOL    HW166330   1.781   2.753   4.575  0.5200  0.6010  1.0674
51535SOL    HW266331   1.710   2.843   4.476  0.4006 -0.3931  0.2255
51536SOL     OW66332   2.306   0.805  10.341 -0.6668 -0.4379 -0.2364
51536SOL    HW166333   2.353   0.765  10.415  0.4827 -0.3520 -0.9023
51536SOL    HW266334   2.335   0.896  10.340 -1.0063 -0.3315 -0.5395
51537SOL     OW66335   7.428  11.302   3.727 -0.4383 -0.1617  0.5235
51537SOL    HW166336   7.487  11.248   3.779  0.5025  0.9962  0.7140
51537SOL    HW266337   7.484  11.341   3.660 -1.1571  0.2850  0.1670
51538SOL     OW66338   1.072   3.664   8.889 -0.2791 -0.4486 -0.0275
51538SOL    HW166339   1.159   3.692   8.863 -0.6414  1.0466  0.2707
51538SOL    HW266340   1.073   3.665   8.984 -0.3201 -1.4593 -0.0061
51539SOL     OW66341   1.347   1.037   0.023  0.0095  0.7431  0.1093
51539SOL    HW166342   1.364   1.046   0.117 -1.7681  0.2499  0.5232
51539SOL    HW266343   1.268   1.089   0.008  0.1889  0.6939 -1.0978
51540SOL     OW66344  13.179  10.948   8.149 -0.3088  0.0531  0.3208
51540SOL    HW166345  13.128  10.949   8.068  1.2209 -2.1797 -0.7728
51540SOL    HW266346  13.251  11.009   8.132  1.2481 -2.0301 -0.9625
51541SOL     OW66347  13.534   3.891  12.836 -0.1968  0.0367  0.4829
51541SOL    HW166348  13.459   3.934  12.794 -1.4393 -0.5389  2.0141
51541SOL    HW266349  13.610   3.925  12.790 -1.4174  0.2402 -1.5017
51542SOL     OW66350   2.282   8.756  10.795 -0.2973  0.2554 -0.0367
51542SOL    HW166351   2.255   8.743  10.704 -2.3777 -1.7117  0.7533
51542SOL    HW266352   2.224   8.825  10.828  0.9201  1.4671 -0.3184
51543SOL     OW66353  12.115   5.432   9.481 -0.1501 -0.0043  0.2075
51543SOL    HW166354  12.167   5.355   9.458 -0.9666 -0.7241  0.7622
51543SOL    HW266355  12.065   5.452   9.401  1.9541  1.5504 -0.8297
51544SOL     OW66356   6.619   3.982   6.289  0.2417  0.7945  0.5986
51544SOL    HW166357   6.582   3.998   6.202  1.2774 -2.5069 -0.5807
51544SOL    HW266358   6.713   3.969   6.273  0.0537 -2.9676  1.5685
51545SOL     OW66359   1.680   0.001   3.998  0.5828  0.6543 -0.2907
51545SOL    HW166360   1.592   0.002   3.959  0.2394  0.7016  0.4798
51545SOL    HW266361   1.688  -0.087   4.035  1.4681  0.1040 -1.6949
51546SOL     OW66362  12.168  11.018   5.011 -0.7305 -0.0499 -0.1378
51546SOL    HW166363  12.080  10.978   5.013 -0.0464 -1.6273  0.8719
51546SOL    HW266364  12.221  10.956   4.961  0.4024 -0.5803  1.6103
51547SOL     OW66365   9.876   0.071  12.001 -0.1280  0.7117  0.4685
51547SOL    HW166366   9.904  -0.016  11.972 -1.3600  0.8817 -1.3880
51547SOL    HW266367   9.861   0.061  12.095 -2.3527 -1.7321 -0.0078
51548SOL     OW66368  10.677   5.407   1.145  0.8488 -0.0478  0.1936
51548SOL    HW166369  10.648   5.438   1.231  0.0568 -0.3432  0.0354
51548SOL    HW266370  10.752   5.350   1.165  0.8242  0.0827  0.6663
51549SOL     OW66371   1.997   5.550   3.971 -0.3398  0.0691  0.1908
51549SOL    HW166372   2.013   5.591   3.885 -1.3812  2.3667  1.0088
51549SOL    HW266373   2.083   5.547   4.012 -0.0200  0.1343 -0.4566
51550SOL     OW66374  11.524   3.680   2.699 -0.2487 -0.1475 -0.3717
51550SOL    HW166375  11.575   3.673   2.780  0.8155  1.0210 -0.8986
51550SOL    HW266376  11.452   3.739   2.722 -0.0318  0.0659 -0.2296
51551SOL     OW66377  13.393   4.338   2.200  0.3814  0.0867 -0.3250
51551SOL    HW166378  13.486   4.317   2.215  0.4473 -1.0406 -1.9737
51551SOL    HW266379  13.384   4.429   2.226  2.1346  0.4244 -0.7567
51552SOL     OW66380   0.019  13.473  11.707  0.0879 -0.4049 -0.2314
51552SOL    HW166381  -0.004  13.471  11.614  2.3944  1.5563 -0.9434
51552SOL    HW266382   0.108  13.438  11.711  1.2701  2.3791  0.6974
51553SOL     OW66383  10.180   7.236   0.531 -0.2474 -0.2938  0.0592
51553SOL    HW166384  10.123   7.222   0.455  0.1020  0.7334 -0.3985
51553SOL    HW266385  10.120   7.263   0.600 -0.6635 -1.9024  0.3835
51554SOL     OW66386   2.125   6.049   9.051  0.6403 -0.0464 -0.2230
51554SOL    HW166387   2.070   6.116   9.092  1.5054 -0.2019  1.2635
51554SOL    HW266388   2.210   6.092   9.040  1.6946 -1.3403  2.2741
51555SOL     OW66389  10.515   9.721   1.470  0.7108  0.5173  0.0120
51555SOL    HW166390  10.600   9.687   1.499  1.8503  2.9707 -0.1755
51555SOL    HW266391  10.495   9.672   1.391  2.1012  0.0961 -0.1017
51556SOL     OW66392   7.791   1.977   7.472  0.5845 -0.2062 -0.0534
51556SOL    HW166393   7.703   1.950   7.446  0.5040  0.7843 -0.8505
51556SOL    HW266394   7.829   2.014   7.393  0.6127  2.1715  0.9917
51557SOL     OW66395   5.531   9.688   6.721  0.3976 -0.0693  0.2192
51557SOL    HW166396   5.455   9.695   6.663  0.5415 -1.5855 -0.1903
51557SOL    HW266397   5.508   9.742   6.797 -1.9150 -1.9126  0.9556
51558SOL     OW66398  10.311   3.743   0.724 -0.1736  0.4753  0.2270
51558SOL    HW166399  10.355   3.714   0.804 -0.7380  0.3661  0.5090
51558SOL    HW266400  10.380   3.782   0.670  0.4642 -0.6488  0.1933
51559SOL     OW66401   2.850  13.369  10.637 -0.4016 -0.3271 -0.0691
51559SOL    HW166402   2.945  13.355  10.634 -0.6353 -2.1586 -0.0530
51559SOL    HW266403   2.837  13.433  10.708  0.8142 -0.0565 -0.0776
51560SOL     OW66404   6.529  11.406   8.801  0.5049  0.1985  0.1793
51560SOL    HW166405   6.538  11.366   8.715 -0.3537 -1.0184  0.6303
51560SOL    HW266406   6.489  11.338   8.855  0.8327  1.0127  1.4894
51561SOL     OW66407   7.277   9.667  11.834 -0.2193  0.4771  0.1312
51561SOL    HW166408   7.297   9.705  11.748  1.0460  1.9898  1.0439
51561SOL    HW266409   7.202   9.718  11.865 -0.0244  0.6225  0.3598
51562SOL     OW66410   8.188   2.389   0.966  0.1782  0.1152 -0.3464
51562SOL    HW166411   8.132   2.423   1.036 -1.0205 -0.4679 -0.9931
51562SOL    HW266412   8.166   2.443   0.890 -0.3491 -0.8312 -0.8893
51563SOL     OW66413   5.038   0.346   6.533 -0.2006  0.0298 -0.5038
51563SOL    HW166414   4.992   0.426   6.559  1.1019  0.6632 -0.0485
51563SOL    HW266415   5.071   0.309   6.615 -2.2338 -1.9549 -0.4890
51564SOL     OW66416   9.455   2.531   3.571  0.3300  0.1583 -0.3158
51564SOL    HW166417   9.470   2.483   3.489 -1.7772 -1.9029  0.4138
51564SOL    HW266418   9.394   2.601   3.547 -0.8501 -0.8780 -0.4224
51565SOL     OW66419   3.456  11.977   9.033 -0.3691  0.2963 -0.1728
51565SOL    HW166420   3.429  11.887   9.054  0.8031  0.1125  0.6491
51565SOL    HW266421   3.374  12.026   9.028 -0.9595 -0.5654  0.6196
51566SOL     OW66422   2.171  10.804  10.827 -0.2741 -0.0725  0.1456
51566SOL    HW166423   2.145  10.802  10.735  0.8891 -1.8399 -0.1975
51566SOL    HW266424   2.166  10.712  10.855 -1.9982  0.5659  2.2922
51567SOL     OW66425  13.167   3.832   3.265  0.4188  1.0106  0.1576
51567SOL    HW166426  13.072   3.830   3.281  0.2383 -0.0051 -0.8493
51567SOL    HW266427  13.175   3.862   3.174  0.9929  0.0152 -0.1329
51568SOL     OW66428   3.984  12.416  11.389 -0.0515 -0.5628  0.5344
51568SOL    HW166429   4.011  12.354  11.456 -1.1199 -0.6776  0.8662
51568SOL    HW266430   4.042  12.397  11.315  0.4368 -1.1377  1.0542
51569SOL     OW66431   4.086  11.951  11.737  0.1446  0.3383  0.2280
51569SOL    HW166432   4.092  11.858  11.758  0.6772  0.5373  0.9939
51569SOL    HW266433   4.098  11.955  11.642 -3.1279 -0.6617 -0.3667
51570SOL     OW66434   1.839   2.419   0.578 -0.3782  0.3729  0.4256
51570SOL    HW166435   1.797   2.392   0.496  2.1111 -0.6564 -0.6329
51570SOL    HW266436   1.888   2.498   0.554  0.4937 -0.0287  0.8615
51571SOL     OW66437   3.555   9.979   2.359  0.1470 -0.3724 -0.0521
51571SOL    HW166438   3.613   9.962   2.433  0.6634  0.1598 -0.3259
51571SOL    HW266439   3.470   9.945   2.387  0.2667  0.0877  0.9000
51572SOL     OW66440   8.255   2.078   6.873 -0.1960 -0.0050  0.2085
51572SOL    HW166441   8.314   2.142   6.834 -0.3141 -0.7508 -1.2660
51572SOL    HW266442   8.185   2.131   6.912 -0.6539  0.7862 -1.5751
51573SOL     OW66443   1.357   2.641   0.349 -0.8344  0.6446  0.1697
51573SOL    HW166444   1.297   2.615   0.279 -0.7980  1.7495 -0.2782
51573SOL    HW266445   1.311   2.710   0.396 -1.3073 -0.8016  1.9232
51574SOL     OW66446   3.146   6.479   0.869  0.0518 -0.3218  0.4870
51574SOL    HW166447   3.207   6.457   0.939 -0.9314 -2.4368  0.7612
51574SOL    HW266448   3.062   6.489   0.914  0.0477  2.1620  0.0668
51575SOL     OW66449   5.781   8.837  13.320  0.4703  0.0711  0.0652
51575SOL    HW166450   5.734   8.901  13.373  0.3213  0.6748 -0.7763
51575SOL    HW266451   5.863   8.823  13.367  1.4132  2.4179 -0.7305
51576SOL     OW66452  13.396  11.074  10.862  0.1790  0.2051 -0.5201
51576SOL    HW166453  13.446  11.113  10.933  0.4583 -0.6142 -0.2495
51576SOL    HW266454  13.451  11.086  10.784 -0.1136  1.0719 -0.5995
51577SOL     OW66455   5.799   4.537   7.316 -0.5570  0.0503 -0.2574
51577SOL    HW166456   5.776   4.613   7.263  1.2459  0.2780 -0.7870
51577SOL    HW266457   5.859   4.571   7.382 -1.1309 -0.6152  0.6331
51578SOL     OW66458  12.507   1.332   3.041 -0.4170 -0.0494 -0.1502
51578SOL    HW166459  12.520   1.240   3.066 -0.0692  0.0896  0.1782
51578SOL    HW266460  12.434   1.329   2.979  0.2015 -0.6678 -0.8797
51579SOL     OW66461   6.590  12.267   4.199 -0.2047 -0.8540  0.2464
51579SOL    HW166462   6.592  12.320   4.120 -1.7626  0.2043  0.8724
51579SOL    HW266463   6.666  12.297   4.250  0.7396 -1.4669 -0.7468
51580SOL     OW66464  11.702   3.584   8.155  0.1187 -0.2575 -0.1981
51580SOL    HW166465  11.696   3.586   8.059 -0.0671 -0.6155 -0.1978
51580SOL    HW266466  11.748   3.502   8.174  0.0582 -0.2407  0.0223
51581SOL     OW66467   7.154   0.340   0.583 -0.7893  0.1242  0.7456
51581SOL    HW166468   7.093   0.350   0.656 -1.1447 -1.9865  0.7870
51581SOL    HW266469   7.235   0.379   0.615 -0.9228 -0.7760  2.3162
51582SOL     OW66470   6.946  13.674   9.410 -0.0105 -0.0668  0.5780
51582SOL    HW166471   6.995  13.592   9.414  0.6989  0.3712  0.9014
51582SOL    HW266472   6.881  13.666   9.480 -1.4818 -1.3061 -0.8258
51583SOL     OW66473   1.810   0.128   6.786 -0.1214 -0.0252 -0.8275
51583SOL    HW166474   1.726   0.091   6.814  0.1636  0.2939  0.5286
51583SOL    HW266475   1.875   0.066   6.818  0.2827  0.9200  0.2322
51584SOL     OW66476  10.105   8.540  10.919 -0.4865  0.6600 -0.3975
51584SOL    HW166477  10.152   8.475  10.971 -2.1453 -0.0713  0.2796
51584SOL    HW266478  10.169   8.572  10.856  0.7737 -0.5893  0.1949
51585SOL     OW66479   3.554   8.764   6.321 -0.2466 -0.2837  0.2189
51585SOL    HW166480   3.560   8.839   6.262 -0.0827 -1.5306 -1.4330
51585SOL    HW266481   3.464   8.732   6.309  0.4537 -1.8843 -1.1322
51586SOL     OW66482   3.419   5.806   8.762  0.0566 -0.3537  0.8225
51586SOL    HW166483   3.506   5.776   8.787  0.2099 -1.4908 -0.8758
51586SOL    HW266484   3.385   5.737   8.705 -0.8148  1.3163 -0.8055
51587SOL     OW66485  12.876   1.983  10.092  0.2443  0.0715 -0.3920
51587SOL    HW166486  12.903   2.073  10.072  2.5114 -0.7554 -1.4707
51587SOL    HW266487  12.880   1.978  10.187 -2.0006  1.6498 -0.1475
51588SOL     OW66488   4.325  11.514   6.812  0.2153  0.1183  0.0665
51588SOL    HW166489   4.396  11.557   6.765  0.2428 -0.6387 -0.6049
51588SOL    HW266490   4.366  11.476   6.889  0.5101 -0.1799 -0.2368
51589SOL     OW66491   2.783   0.490   2.682 -0.0739  0.0419  0.7655
51589SOL    HW166492   2.782   0.438   2.602 -0.2125  3.0216 -1.3737
51589SOL    HW266493   2.691   0.496   2.709 -0.0854 -0.5559  0.8606
51590SOL     OW66494   3.614   6.025   3.533 -0.4227  0.1391 -0.2410
51590SOL    HW166495   3.579   6.072   3.609  0.0630 -1.9113  1.3115
51590SOL    HW266496   3.544   6.032   3.468 -1.1367  1.3495  0.5975
51591SOL     OW66497  10.952   9.526   7.944 -0.5847 -0.5355  0.3991
51591SOL    HW166498  10.906   9.544   8.025 -0.2612  1.1615  0.2468
51591SOL    HW266499  10.893   9.556   7.875 -0.3140 -0.7520  0.0681
51592SOL     OW66500  11.727   7.901  11.519  0.0108  0.0835  0.3340
51592SOL    HW166501  11.786   7.964  11.478 -1.0647 -0.0037 -1.4457
51592SOL    HW266502  11.753   7.900  11.611  1.5732  1.3743 -0.0495
51593SOL     OW66503   1.533   8.169  11.488  0.2870 -0.2624  0.0588
51593SOL    HW166504   1.551   8.261  11.510  0.2527 -0.0642 -0.7223
51593SOL    HW266505   1.549   8.163  11.394  2.3968 -1.5496  0.4318
51594SOL     OW66506   4.407   1.497   4.025 -0.2891 -0.0083  0.3594
51594SOL    HW166507   4.410   1.575   4.081 -0.1993 -0.1036  0.4896
51594SOL    HW266508   4.383   1.530   3.939  0.2313  0.2307  0.2999
51595SOL     OW66509   5.034  12.752  11.368 -0.6355  0.3471  0.0480
51595SOL    HW166510   4.997  12.746  11.279 -2.9214  3.7549  0.5796
51595SOL    HW266511   4.974  12.699  11.421 -1.2253  0.9299 -0.0138
51596SOL     OW66512  10.998   3.661  12.153 -0.2449  0.0232 -0.0764
51596SOL    HW166513  11.004   3.721  12.079 -0.0829  3.5163  2.5079
51596SOL    HW266514  11.074   3.683  12.208 -1.8759 -0.2695  2.4917
51597SOL     OW66515   6.417  13.371  11.167  0.6476  0.3303  0.4690
51597SOL    HW166516   6.465  13.401  11.244 -0.7741  0.0933  1.4949
51597SOL    HW266517   6.329  13.352  11.200 -0.2342  0.9715 -1.3660
51598SOL     OW66518  10.740   5.452  12.256  0.5957  0.0862  0.0387
51598SOL    HW166519  10.811   5.515  12.242 -0.0171  0.6402 -0.6577
51598SOL    HW266520  10.678   5.499  12.313  0.1874  0.0771 -0.3976
51599SOL     OW66521   9.240  13.245   0.759 -0.1242 -0.0064 -0.3158
51599SOL    HW166522   9.189  13.244   0.839 -0.1165 -0.1464 -0.3130
51599SOL    HW266523   9.250  13.338   0.738 -1.7045  0.0047 -1.1561
51600SOL     OW66524   2.866   7.705   3.979  0.7718  0.8842 -0.0801
51600SOL    HW166525   2.819   7.626   4.005  0.2790  1.2733  0.2138
51600SOL    HW266526   2.916   7.729   4.057  3.8354 -1.1741 -1.2036
51601SOL     OW66527   2.003  10.867  10.042 -0.4299 -0.9993  0.5186
51601SOL    HW166528   2.058  10.789  10.034  0.0966 -0.4843 -1.4871
51601SOL    HW266529   2.053  10.926  10.099  0.2909 -1.2135  0.1171
51602SOL     OW66530  10.813  12.055   1.410  0.1362  1.1281  0.0737
51602SOL    HW166531  10.735  12.036   1.462  1.0595  0.3440  1.2222
51602SOL    HW266532  10.792  12.136   1.363 -1.3533  0.9275  0.3542
51603SOL     OW66533   1.283   6.610   0.160  0.0919 -0.2271  0.2256
51603SOL    HW166534   1.219   6.596   0.230  1.2401  0.3449  1.4441
51603SOL    HW266535   1.273   6.534   0.102 -0.2818 -1.1808  1.5033
51604SOL     OW66536   5.093   0.160   3.137  0.1518  0.3879 -0.0985
51604SOL    HW166537   5.171   0.108   3.119  0.6634  1.0345  0.1753
51604SOL    HW266538   5.077   0.208   3.055 -0.5745 -0.5076 -0.4933
51605SOL     OW66539  13.721   7.519   0.296 -0.1808  0.3467 -0.7681
51605SOL    HW166540  13.784   7.447   0.303  2.0790  2.0811 -1.9150
51605SOL    HW266541  13.655   7.500   0.364  0.6331 -2.4310 -0.6412
51606SOL     OW66542   8.079  13.234   4.100 -0.1182 -0.7167 -0.8607
51606SOL    HW166543   8.119  13.220   4.014 -0.8466  0.2262 -1.3830
51606SOL    HW266544   8.000  13.286   4.081  0.5607  0.9314  0.5286
51607SOL     OW66545   5.293  10.570  10.385  0.1293  0.4444 -0.4830
51607SOL    HW166546   5.339  10.491  10.414  0.9378  0.6741 -1.0931
51607SOL    HW266547   5.354  10.611  10.324 -0.6762  1.0501 -0.8887
51608SOL     OW66548  10.629   9.474   8.103 -0.5752  0.5429 -0.1872
51608SOL    HW166549  10.707   9.494   8.154  0.5273  0.1639 -1.6655
51608SOL    HW266550  10.576   9.554   8.108 -0.5617  0.4909  1.5722
51609SOL     OW66551   1.133   4.548   9.593  0.0323 -0.2876 -0.2661
51609SOL    HW166552   1.194   4.532   9.666 -0.6110 -2.8310 -0.1836
51609SOL    HW266553   1.182   4.520   9.516  0.4852  1.8145 -0.7909
51610SOL     OW66554  11.661   6.117   5.878 -0.0288  0.4961  0.1054
51610SOL    HW166555  11.599   6.044   5.870 -0.0201  0.3556  1.1454
51610SOL    HW266556  11.744   6.082   5.847  0.5029 -0.6712  2.5854
51611SOL     OW66557   8.691   0.155   3.343  0.1158  0.7030  0.2845
51611SOL    HW166558   8.778   0.171   3.309 -0.8168 -0.2122 -2.7976
51611SOL    HW266559   8.703   0.149   3.438  3.3735  0.5162 -0.0502
51612SOL     OW66560   7.953   9.177   0.019  0.1003  0.2228  0.6627
51612SOL    HW166561   7.895   9.214   0.085 -1.0385  0.0162 -0.2050
51612SOL    HW266562   8.040   9.181   0.060 -0.5039  0.5096  1.9896
51613SOL     OW66563  10.042   3.766   0.860 -0.2664 -0.0364  0.1849
51613SOL    HW166564  10.130   3.750   0.826 -0.0318  1.7060 -0.1209
51613SOL    HW266565   9.987   3.701   0.815  0.5420  0.2060 -1.2050
51614SOL     OW66566   9.164   3.387  11.999 -0.2942  0.5692  0.6067
51614SOL    HW166567   9.257   3.377  11.979 -0.2969  0.5093  0.6231
51614SOL    HW266568   9.162   3.442  12.077 -0.3401  2.0425 -0.4047
51615SOL     OW66569   5.708   9.538   0.798 -0.5980  0.1173  0.5166
51615SOL    HW166570   5.703   9.534   0.894  2.7143 -0.8439  0.7793
51615SOL    HW266571   5.713   9.632   0.778  2.8292  0.3529  1.7757
51616SOL     OW66572   0.307   6.939  12.743  0.3287 -0.2764  0.4839
51616SOL    HW166573   0.384   6.987  12.772 -1.3884  2.6527  0.5525
51616SOL    HW266574   0.296   6.964  12.651 -0.5413 -0.6460  0.4699
51617SOL     OW66575   5.995  13.521  11.630  0.3811  0.7611  0.0254
51617SOL    HW166576   6.045  13.533  11.711 -1.4747  0.3298  1.3028
51617SOL    HW266577   5.961  13.608  11.610  1.2941  0.9798 -0.6320
51618SOL     OW66578  10.894   3.859   8.978  0.3237 -0.2970  0.3752
51618SOL    HW166579  10.930   3.807   8.907  1.0965  0.5928  0.0918
51618SOL    HW266580  10.804   3.830   8.987  1.0466 -2.4941  1.0012
51619SOL     OW66581   2.544   4.825   0.340 -0.2201  0.6014  0.0572
51619SOL    HW166582   2.517   4.771   0.415 -0.8818 -1.6334 -1.6618
51619SOL    HW266583   2.463   4.863   0.307  0.2596  2.9272  1.3448
51620SOL     OW66584   4.518  10.468  10.374  0.3308 -0.0052 -0.1671
51620SOL    HW166585   4.578  10.458  10.448 -0.5870  0.0197  0.6060
51620SOL    HW266586   4.519  10.562  10.355  1.7995 -0.2151 -1.2691
51621SOL     OW66587   1.522   3.178   9.691  0.3517  0.7922  0.3194
51621SOL    HW166588   1.449   3.225   9.652  1.1406 -0.3810 -2.8405
51621SOL    HW266589   1.534   3.219   9.777 -2.9157  2.0913  0.2827
51622SOL     OW66590   1.361  12.484  10.980 -0.1382  0.3492  0.3222
51622SOL    HW166591   1.302  12.528  10.919 -0.1807 -0.7195 -0.4404
51622SOL    HW266592   1.318  12.494  11.065 -1.4478 -0.3899 -0.2121
51623SOL     OW66593   1.547   0.770   7.458 -0.5395 -0.2643 -0.0359
51623SOL    HW166594   1.514   0.860   7.455 -1.6636 -0.6617 -2.6883
51623SOL    HW266595   1.641   0.778   7.444 -0.6575  0.4868 -0.4266
51624SOL     OW66596   3.767   4.879  10.326  0.7140  0.4988  0.2584
51624SOL    HW166597   3.760   4.965  10.365  1.3015 -0.0593  1.6373
51624SOL    HW266598   3.772   4.818  10.400 -1.6068 -0.9139 -0.6368
51625SOL     OW66599  10.045  11.372   3.271 -0.0575 -0.4928  0.2664
51625SOL    HW166600  10.120  11.319   3.297 -1.5381 -2.6204  0.4292
51625SOL    HW266601  10.052  11.452   3.324  0.6360 -1.8097  2.2397
51626SOL     OW66602  12.296   8.268   0.111 -0.1063  0.0951  0.1814
51626SOL    HW166603  12.371   8.249   0.054 -1.7118 -0.2050 -1.9696
51626SOL    HW266604  12.225   8.215   0.075 -1.1530 -0.3896  2.7537
51627SOL     OW66605   9.120   7.436   1.995 -0.0574  0.2212 -0.0850
51627SOL    HW166606   9.099   7.409   2.084 -2.0302 -1.7989 -1.0360
51627SOL    HW266607   9.210   7.408   1.981 -0.2190 -0.8389  0.8330
51628SOL     OW66608  10.096   2.273   5.514 -0.3614  0.5940  0.5172
51628SOL    HW166609  10.178   2.228   5.497  1.4678  3.9121 -0.3404
51628SOL    HW266610  10.032   2.230   5.458  1.1470 -1.0366 -0.0169
51629SOL     OW66611  10.245  12.036   7.904 -0.1114  0.5293 -0.1262
51629SOL    HW166612  10.239  11.974   7.976 -1.5333  1.1153  0.2791
51629SOL    HW266613  10.219  11.986   7.826 -0.9468  0.5231  0.1494
51630SOL     OW66614  11.699   6.172   9.162  0.0160 -0.6666  0.0602
51630SOL    HW166615  11.727   6.136   9.078  1.0585 -0.1629  0.1828
51630SOL    HW266616  11.771   6.229   9.189  0.8804 -2.7318  2.5006
51631SOL     OW66617  13.149  10.270   1.358  0.0465 -0.4254 -0.1426
51631SOL    HW166618  13.153  10.224   1.275  0.5175  0.8403 -0.8520
51631SOL    HW266619  13.098  10.349   1.339 -2.8049 -1.6726  1.5814
51632SOL     OW66620   3.583   5.297  12.989  0.4207  0.0423  0.0112
51632SOL    HW166621   3.615   5.213  13.022  1.7766 -0.2774 -1.9029
51632SOL    HW266622   3.497   5.277  12.952  0.0901 -0.1714  0.8853
51633SOL     OW66623   7.504   6.717  10.232 -0.0374  0.2452 -0.0517
51633SOL    HW166624   7.532   6.801  10.266  0.7568 -0.1735  0.3496
51633SOL    HW266625   7.505   6.658  10.308 -2.1142  0.2157  0.0324
51634SOL     OW66626   2.916   1.243   2.345 -0.0483  0.3371  0.1816
51634SOL    HW166627   2.842   1.281   2.392  0.4574  0.5023  0.8599
51634SOL    HW266628   2.920   1.292   2.263 -0.3662  0.6815  0.3693
51635SOL     OW66629   0.561   0.010   1.754  0.1689 -0.1146 -0.1961
51635SOL    HW166630   0.615  -0.038   1.817 -0.6351  0.4680  0.9717
51635SOL    HW266631   0.496  -0.054   1.725  0.4785 -0.3586 -0.3522
51636SOL     OW66632   2.309   2.485   0.969 -0.1907 -0.0935 -0.3608
51636SOL    HW166633   2.322   2.472   1.063 -0.2593 -0.1774 -0.3624
51636SOL    HW266634   2.382   2.438   0.928  0.7922  1.3133 -0.3014
51637SOL     OW66635   0.256   0.643   4.421 -0.3417 -0.1221  0.5487
51637SOL    HW166636   0.326   0.620   4.482 -0.6722 -3.3251 -0.1492
51637SOL    HW266637   0.284   0.607   4.337 -0.8056  2.5155 -0.8357
51638SOL     OW66638   2.878  10.614   6.221 -0.2010  0.2722 -0.2779
51638SOL    HW166639   2.822  10.660   6.283 -0.0643  1.7405 -1.1989
51638SOL    HW266640   2.835  10.625   6.137  1.3000  1.2188 -0.9651
51639SOL     OW66641  11.599  11.791  11.498  0.4260  0.4680  0.1728
51639SOL    HW166642  11.527  11.734  11.526  0.3940  1.4574  2.3324
51639SOL    HW266643  11.581  11.875  11.541  2.4591  0.9768  0.1291
51640SOL     OW66644   8.552   0.130   3.740  0.0105  0.9067 -0.4554
51640SOL    HW166645   8.607   0.119   3.818 -0.0501 -0.0608 -0.5267
51640SOL    HW266646   8.611   0.110   3.667 -0.3911 -0.0382 -0.5380
51641SOL     OW66647  11.957   5.054   1.959 -0.2445  0.2765 -0.4115
51641SOL    HW166648  11.998   5.100   2.032  0.8057  0.1144 -0.8704
51641SOL    HW266649  11.967   4.961   1.981  2.7206  0.0712 -2.0144
51642SOL     OW66650   3.857  10.830  13.224  0.0061  0.1948 -0.3552
51642SOL    HW166651   3.856  10.859  13.132 -1.1213 -0.4738 -0.5718
51642SOL    HW266652   3.784  10.876  13.265 -0.1235 -0.2761 -0.0463
51643SOL     OW66653  10.744   6.356   2.485  0.0091  0.0267 -0.2981
51643SOL    HW166654  10.765   6.435   2.436 -0.8021 -0.6203 -1.7577
51643SOL    HW266655  10.693   6.387   2.560 -0.4486  0.8767 -0.9431
51644SOL     OW66656   7.648   9.856   9.200 -0.2067  0.2403 -0.4813
51644SOL    HW166657   7.612   9.802   9.129  0.3803  0.9809 -1.3556
51644SOL    HW266658   7.739   9.827   9.208  0.0505  0.9302 -0.8106
51645SOL     OW66659   8.230   9.169   1.689  0.2066 -0.1291  0.1689
51645SOL    HW166660   8.309   9.126   1.656 -0.6195 -0.4325 -1.5293
51645SOL    HW266661   8.197   9.220   1.615 -1.4049 -0.3408  0.6845
51646SOL     OW66662  10.848  12.932   6.107 -0.6680  0.3891 -0.5666
51646SOL    HW166663  10.831  12.846   6.068 -1.4769  0.3626 -0.1876
51646SOL    HW266664  10.854  12.915   6.201 -1.0870  0.7727 -0.4657
51647SOL     OW66665   7.635  13.041  10.066 -0.2139  0.3317 -0.5257
51647SOL    HW166666   7.646  13.027   9.972  2.9313 -0.8748 -0.1032
51647SOL    HW266667   7.600  12.957  10.098 -1.7493  0.9031 -0.6144
51648SOL     OW66668  10.173   4.052   7.728  0.3672 -0.5330  0.2761
51648SOL    HW166669  10.194   3.965   7.762  1.4223 -1.1661 -1.8372
51648SOL    HW266670  10.256   4.085   7.692 -0.2494  0.9287  0.1048
51649SOL     OW66671   6.679   2.605  11.076  0.6329  0.2460 -0.3208
51649SOL    HW166672   6.654   2.550  11.151 -1.5220  1.3728 -0.1134
51649SOL    HW266673   6.636   2.564  11.001  1.4383  0.0281 -0.6674
51650SOL     OW66674  11.154   5.425  12.297 -0.3163  0.3008 -0.3530
51650SOL    HW166675  11.217   5.353  12.294  1.5590  1.9103 -1.5432
51650SOL    HW266676  11.100   5.406  12.374  3.1228  0.0468  2.1874
51651SOL     OW66677  10.481  11.756   3.079 -0.4606 -0.0100  0.4866
51651SOL    HW166678  10.553  11.751   3.142  1.5062 -1.2937 -1.6678
51651SOL    HW266679  10.485  11.845   3.045  1.0668 -0.4327 -0.5576
51652SOL     OW66680   4.813  13.347   9.057 -0.8063  1.0907 -1.1115
51652SOL    HW166681   4.767  13.267   9.082  1.5437  0.1212  0.3837
51652SOL    HW266682   4.826  13.394   9.139  3.1660 -0.0145 -0.9209
51653SOL     OW66683   7.677   6.383   5.848 -0.0527  0.4807 -0.5837
51653SOL    HW166684   7.747   6.334   5.805 -1.9806 -3.1318  0.0074
51653SOL    HW266685   7.598   6.355   5.803 -1.6155  0.4621  2.0085
51654SOL     OW66686  13.230   1.607   4.784 -0.1780  0.7766 -0.2034
51654SOL    HW166687  13.150   1.628   4.832  0.7108  0.1504  1.6683
51654SOL    HW266688  13.210   1.525   4.739 -0.7038  0.8111 -0.0425
51655SOL     OW66689  11.803  10.827   9.645 -0.2774 -0.0133 -0.2246
51655SOL    HW166690  11.767  10.757   9.590  2.2673 -0.5397 -1.3925
51655SOL    HW266691  11.812  10.787   9.731 -1.1960 -0.2816 -0.2386
51656SOL     OW66692   8.561   8.492   2.982 -0.4027  0.1620  0.1067
51656SOL    HW166693   8.623   8.478   3.054 -0.1462 -1.9941 -0.4706
51656SOL    HW266694   8.494   8.424   2.994 -0.9435  0.4536 -1.0835
51657SOL     OW66695   8.324   1.987   6.221  0.2048 -0.1705  0.5965
51657SOL    HW166696   8.236   1.985   6.259 -0.3759 -0.2829 -0.6986
51657SOL    HW266697   8.338   2.079   6.199 -0.0612 -0.3031 -0.1935
51658SOL     OW66698  13.489   3.433  12.622  0.6404 -0.1001 -0.2932
51658SOL    HW166699  13.497   3.453  12.529 -0.1531 -0.4017 -0.4332
51658SOL    HW266700  13.418   3.369  12.627  2.4187 -2.1119  0.2505
51659SOL     OW66701   6.893   9.831   1.850 -0.1653 -0.3474 -0.0148
51659SOL    HW166702   6.862   9.916   1.818  1.8011 -0.0720 -1.3500
51659SOL    HW266703   6.946   9.853   1.927  3.2033  0.1648 -2.2641
51660SOL     OW66704   2.187   3.146   0.862 -0.0590  0.5160  0.2821
51660SOL    HW166705   2.221   3.099   0.786  0.4683 -0.2120  0.9560
51660SOL    HW266706   2.211   3.238   0.846 -0.9377  0.5497 -0.9549
51661SOL     OW66707  10.793   1.668   3.950 -0.0684  0.0131  0.3733
51661SOL    HW166708  10.869   1.697   3.900  0.6694 -1.3885  0.6108
51661SOL    HW266709  10.725   1.654   3.884 -0.4729  2.2267  0.2648
51662SOL     OW66710   2.387   4.331   0.199  0.1811 -0.4219 -0.0276
51662SOL    HW166711   2.425   4.381   0.271  1.0493 -1.0770 -0.0220
51662SOL    HW266712   2.384   4.394   0.126 -2.3771  0.8059  1.0068
51663SOL     OW66713  10.627   7.750   1.788  0.4663 -0.2654  0.4019
51663SOL    HW166714  10.564   7.817   1.816  1.0175 -0.8514  3.3239
51663SOL    HW266715  10.680   7.794   1.722  0.6146  2.1423  1.9875
51664SOL     OW66716  12.041   0.025  11.307 -0.7231  0.2701  0.1414
51664SOL    HW166717  12.116  -0.022  11.343  0.1699  1.1012 -0.5786
51664SOL    HW266718  11.997   0.063  11.382  0.2751  0.7747  0.4806
51665SOL     OW66719  12.350   7.221  10.421  0.1969 -0.3759  0.1013
51665SOL    HW166720  12.300   7.180  10.351 -0.3925 -0.3668  0.5081
51665SOL    HW266721  12.442   7.206  10.397  0.0181  0.1098 -0.9406
51666SOL     OW66722   0.922   6.219   4.871 -0.1711 -0.1751 -0.3016
51666SOL    HW166723   0.913   6.128   4.898  1.0620 -1.0146 -2.4785
51666SOL    HW266724   0.867   6.227   4.793  1.6995  0.1642 -1.6748
51667SOL     OW66725  10.953   2.024   7.073  0.0418  0.6619 -0.2749
51667SOL    HW166726  10.932   2.097   7.014  0.3568  0.1632 -1.0286
51667SOL    HW266727  10.918   1.947   7.028  0.6319  0.2268  0.0083
51668SOL     OW66728  12.411   6.928   6.608  0.1719  0.1785  0.0471
51668SOL    HW166729  12.507   6.929   6.609  0.1727  0.4262  0.9066
51668SOL    HW266730  12.388   6.904   6.519  1.0380  0.0841 -0.1612
51669SOL     OW66731  12.797   1.865   8.714 -0.1909  0.1443 -0.1185
51669SOL    HW166732  12.849   1.814   8.652 -1.6042 -1.8175  0.2189
51669SOL    HW266733  12.811   1.956   8.688  0.8959 -0.5026 -1.9793
51670SOL     OW66734  12.553   6.823   2.388 -0.2229  0.3791  0.2913
51670SOL    HW166735  12.580   6.888   2.453 -0.1478 -0.0942  0.7395
51670SOL    HW266736  12.575   6.739   2.429  2.9163  0.0886 -1.6402
51671SOL     OW66737   3.028   8.744  11.437  0.0723 -0.4339 -0.2876
51671SOL    HW166738   3.030   8.777  11.526 -2.0272  0.0071 -0.3656
51671SOL    HW266739   3.081   8.806  11.387  0.9914 -0.5083  0.5637
51672SOL     OW66740   2.060  13.440  11.578  0.5183 -0.4516 -0.5350
51672SOL    HW166741   2.100  13.385  11.644 -0.1928 -0.4002 -0.0511
51672SOL    HW266742   2.079  13.530  11.606  0.6285 -0.4365 -0.6594
51673SOL     OW66743  12.869   7.360  11.697 -0.6140  0.0407 -0.1359
51673SOL    HW166744  12.939   7.323  11.643 -0.4654  0.6470 -0.3686
51673SOL    HW266745  12.789   7.343  11.647 -0.6101 -0.4143  0.0029
51674SOL     OW66746   5.465   9.521   4.335  0.0875 -0.5724  0.3920
51674SOL    HW166747   5.393   9.571   4.373 -1.2681 -1.6852 -0.6163
51674SOL    HW266748   5.485   9.453   4.400  1.0301  0.4158  1.1702
51675SOL     OW66749  10.637  12.797  10.878 -0.3204 -0.3497  0.0763
51675SOL    HW166750  10.587  12.768  10.954 -1.5830  0.9865 -0.1947
51675SOL    HW266751  10.572  12.809  10.809  0.6460 -0.4458 -0.8916
51676SOL     OW66752   3.575  13.714  10.146  0.0767  0.2951  0.5326
51676SOL    HW166753   3.525  13.636  10.122  1.2253 -0.2927 -0.0638
51676SOL    HW266754   3.604  13.750  10.062 -1.5007  2.1245  0.7240
51677SOL     OW66755   2.637   6.534   8.473 -0.1117  0.4366 -0.1175
51677SOL    HW166756   2.668   6.459   8.421  0.0488 -0.6667  1.5141
51677SOL    HW266757   2.695   6.605   8.447  0.5325 -0.3173 -0.8222
51678SOL     OW66758   5.200   8.648   6.867 -0.8176  0.2779  0.3236
51678SOL    HW166759   5.247   8.629   6.786  0.2554  1.8023  0.5519
51678SOL    HW266760   5.217   8.572   6.923  0.4959  0.3071 -0.0032
51679SOL     OW66761   2.763   5.140   6.130 -0.2603 -0.0097 -0.3056
51679SOL    HW166762   2.725   5.162   6.045 -2.2417 -1.2439  0.1843
51679SOL    HW266763   2.818   5.063   6.112 -0.4915 -0.1296 -0.5163
51680SOL     OW66764   7.678   2.290   2.317  0.0807 -0.1577 -0.9109
51680SOL    HW166765   7.744   2.352   2.284 -0.8972  0.9638 -0.8388
51680SOL    HW266766   7.600   2.344   2.331 -0.4220 -1.1807  0.4020
51681SOL     OW66767   7.012   2.093   8.271 -0.4777  0.1870 -0.7544
51681SOL    HW166768   7.049   2.174   8.304  1.7593 -0.2958 -1.9127
51681SOL    HW266769   7.021   2.031   8.344  1.0801  0.0720 -1.0217
51682SOL     OW66770   6.609   4.252  11.264 -0.3108  0.1195  0.2047
51682SOL    HW166771   6.697   4.280  11.289 -0.1079 -0.3566  0.0258
51682SOL    HW266772   6.580   4.197  11.337  0.3279 -1.3715 -0.6341
51683SOL     OW66773   1.242   1.048   0.870  0.7349 -0.3948 -0.6426
51683SOL    HW166774   1.333   1.018   0.858  1.6551  1.5572  0.8004
51683SOL    HW266775   1.200   0.977   0.919  1.6783 -1.0395 -0.7253
51684SOL     OW66776  11.951  11.270   7.115  0.1253 -0.2928 -0.0609
51684SOL    HW166777  12.040  11.260   7.149 -0.8814 -0.3907  2.7657
51684SOL    HW266778  11.900  11.204   7.162 -1.7594  0.8929 -0.3570
51685SOL     OW66779   7.495   4.894   8.622  0.2450 -0.8531 -0.3821
51685SOL    HW166780   7.534   4.812   8.654  0.8318 -0.7402 -0.7852
51685SOL    HW266781   7.414   4.867   8.579 -1.1947 -0.9004  2.1800
51686SOL     OW66782   1.883   1.780  11.611 -0.1070  0.2238  0.0208
51686SOL    HW166783   1.905   1.810  11.522 -0.5963  0.5005 -0.0104
51686SOL    HW266784   1.911   1.688  11.612 -0.5474  0.0713 -0.5880
51687SOL     OW66785   5.518   5.784   0.701  0.5480 -0.9671  0.6746
51687SOL    HW166786   5.457   5.740   0.642  0.6118  0.4482 -0.5076
51687SOL    HW266787   5.487   5.760   0.789 -0.0654 -2.4340  0.0967
51688SOL     OW66788  11.261  10.220   6.788 -0.2963  0.5438  0.0113
51688SOL    HW166789  11.355  10.214   6.803 -0.2874  0.6890  0.0088
51688SOL    HW266790  11.248  10.182   6.701 -0.5002 -1.4687  0.8678
51689SOL     OW66791   8.630  10.884   7.036  0.0579 -0.1124 -0.2902
51689SOL    HW166792   8.675  10.967   7.021  1.1929 -0.4799  0.9101
51689SOL    HW266793   8.550  10.908   7.084  0.5811  0.2607  0.4123
51690SOL     OW66794   1.930   5.029   4.374  0.3817 -0.5710 -0.3976
51690SOL    HW166795   1.910   5.109   4.325  0.2196  0.5354  1.3904
51690SOL    HW266796   1.930   4.960   4.307  0.0406  0.8270 -1.9205
51691SOL     OW66797  11.611  10.159   3.072 -0.1730 -1.0385 -0.2940
51691SOL    HW166798  11.656  10.198   2.997 -1.3458  0.0588 -0.4683
51691SOL    HW266799  11.518  10.176   3.055 -0.5683 -2.1917  0.6330
51692SOL     OW66800  13.690   7.777  11.496  0.2085  0.3448 -0.0123
51692SOL    HW166801  13.734   7.762  11.580 -1.0880  0.3253  0.6917
51692SOL    HW266802  13.682   7.689  11.458  2.0220  0.4915 -0.8337
51693SOL     OW66803   6.010   1.684   5.019 -0.1493  0.4783  0.0400
51693SOL    HW166804   6.099   1.693   5.052  0.2824  1.3704 -1.2858
51693SOL    HW266805   5.976   1.606   5.062  1.7613 -0.7151 -0.5114
51694SOL     OW66806   4.795  13.164   6.047  0.2039 -0.5545  0.3037
51694SOL    HW166807   4.839  13.084   6.074 -2.9293 -3.1853 -1.5156
51694SOL    HW266808   4.710  13.161   6.092 -1.2974 -0.1131 -2.2771
51695SOL     OW66809   4.495  12.138  11.258 -0.6513 -0.4484  0.1565
51695SOL    HW166810   4.408  12.109  11.231 -0.2565 -1.0902 -0.4722
51695SOL    HW266811   4.530  12.064  11.308 -0.2472 -0.4348 -0.1002
51696SOL     OW66812   8.315   6.416   0.609  0.0897 -0.2411  0.4643
51696SOL    HW166813   8.388   6.365   0.573 -1.5465 -2.6366  0.3494
51696SOL    HW266814   8.254   6.424   0.536 -0.3830  0.5650  0.9340
51697SOL     OW66815   2.907   0.307  11.416 -0.2254  0.1518  0.5122
51697SOL    HW166816   2.836   0.328  11.355  0.3700  0.9333  0.0748
51697SOL    HW266817   2.907   0.380  11.479  0.1827  0.1498  0.5177
51698SOL     OW66818   7.425  10.537  10.213 -0.4353  0.7362  0.0113
51698SOL    HW166819   7.394  10.452  10.182 -0.8862  0.6255  0.7429
51698SOL    HW266820   7.369  10.601  10.168 -0.2873  0.6337 -0.3183
51699SOL     OW66821   4.938  11.631  12.629  0.0894 -0.2932  0.2574
51699SOL    HW166822   4.848  11.633  12.597 -0.7348 -0.4385  2.3893
51699SOL    HW266823   4.979  11.708  12.589 -1.5307  0.8624  0.6743
51700SOL     OW66824   6.946   9.826   2.968 -0.5428  0.1251 -0.7655
51700SOL    HW166825   6.909   9.909   2.937  1.1559  1.9247  1.5917
51700SOL    HW266826   7.041   9.839   2.963 -0.2404 -1.1480  0.8953
51701SOL     OW66827   0.562   6.366   2.989 -0.1854  0.1596  0.4821
51701SOL    HW166828   0.564   6.386   2.895 -0.5130  0.9567  0.6320
51701SOL    HW266829   0.598   6.278   2.996 -1.1224 -0.3202 -0.4971
51702SOL     OW66830   7.505   2.493  12.193 -0.3183 -0.2055  0.5647
51702SOL    HW166831   7.434   2.498  12.128  0.3650 -1.8590 -0.3764
51702SOL    HW266832   7.544   2.407  12.179  1.5123  0.4261  1.4527
51703SOL     OW66833   6.730   0.429   8.179  0.1413 -0.2615 -0.0075
51703SOL    HW166834   6.691   0.344   8.201 -1.8158  0.8558  1.1233
51703SOL    HW266835   6.702   0.487   8.249  1.4580  1.3426 -0.7474
51704SOL     OW66836   3.399  12.496   4.953 -0.0046  0.3113 -0.3920
51704SOL    HW166837   3.440  12.488   4.866 -1.0534 -0.5860 -0.8329
51704SOL    HW266838   3.310  12.465   4.940  0.0591 -0.6322  1.1998
51705SOL     OW66839  13.056   3.405   9.256  0.4083  0.0803  0.4100
51705SOL    HW166840  13.080   3.497   9.245 -0.8637  0.4036  0.0794
51705SOL    HW266841  12.986   3.407   9.321 -0.9929 -0.4046 -1.0131
51706SOL     OW66842  12.703   9.148   1.692  0.2575 -0.1838 -0.3283
51706SOL    HW166843  12.763   9.196   1.635  1.3069  0.5895  1.3629
51706SOL    HW266844  12.633   9.212   1.711 -0.7656 -0.8369 -1.6764
51707SOL     OW66845   5.605   4.203   9.011  0.0122  0.3027  0.1732
51707SOL    HW166846   5.604   4.205   8.915 -0.3332 -1.1063  0.1328
51707SOL    HW266847   5.516   4.179   9.036  0.5019 -0.9714  0.7766
51708SOL     OW66848   9.246   1.442  13.447 -0.5524  0.8103  0.2565
51708SOL    HW166849   9.313   1.495  13.403 -0.3065  0.7617  0.5671
51708SOL    HW266850   9.257   1.462  13.540  0.6906 -1.0430  0.5774
51709SOL     OW66851  10.688   6.220   7.254  0.4186 -0.0692 -0.3810
51709SOL    HW166852  10.687   6.153   7.323 -0.9118  1.0207  0.7164
51709SOL    HW266853  10.605   6.209   7.210  0.8159 -0.0528 -1.1431
51710SOL     OW66854   9.392  10.590   5.685  0.1550  0.2142  0.3174
51710SOL    HW166855   9.460  10.535   5.646 -0.2039  0.9020 -1.4005
51710SOL    HW266856   9.434  10.631   5.761  0.8214 -1.3762  0.8367
51711SOL     OW66857   6.372  12.268   4.367 -0.0043  0.2142 -0.5640
51711SOL    HW166858   6.365  12.183   4.409 -0.3752  0.7686  0.5293
51711SOL    HW266859   6.435  12.255   4.296  0.0269 -0.9306 -0.3396
51712SOL     OW66860   8.303   9.930   5.282  0.0708 -0.0332 -0.0434
51712SOL    HW166861   8.259   9.858   5.326  0.7647 -1.1692 -1.1282
51712SOL    HW266862   8.271  10.009   5.325 -0.5190 -1.0012  1.3373
51713SOL     OW66863   0.799   6.249  11.162 -0.0400 -0.2888 -0.7297
51713SOL    HW166864   0.733   6.298  11.113 -0.7944  0.5223  1.0307
51713SOL    HW266865   0.759   6.163  11.178 -0.2281 -0.1755 -0.5961
51714SOL     OW66866   1.800   9.797   4.504  0.5004  0.1473  0.4861
51714SOL    HW166867   1.795   9.888   4.533 -3.5626  0.2362  0.0797
51714SOL    HW266868   1.837   9.802   4.416 -0.2424  1.5474  0.2205
51715SOL     OW66869  12.001   6.038   3.454  0.4070 -0.6805 -0.1528
51715SOL    HW166870  11.984   5.959   3.402  0.1427 -0.5382 -0.2855
51715SOL    HW266871  11.917   6.056   3.496  0.0673  0.3598 -1.2418
51716SOL     OW66872  11.341   3.197  10.864 -0.1990  0.0965 -0.2903
51716SOL    HW166873  11.284   3.243  10.803  0.2402  1.4318  0.2664
51716SOL    HW266874  11.289   3.123  10.894 -0.2992 -0.8251 -2.5341
51717SOL     OW66875   0.571  12.625   6.684  0.2463 -0.4905 -0.7845
51717SOL    HW166876   0.658  12.608   6.650  0.6936 -0.1968  0.1669
51717SOL    HW266877   0.516  12.558   6.645  0.8142 -0.4334 -1.7094
51718SOL     OW66878   1.778   7.684   8.220 -1.1639 -0.1828  0.2351
51718SOL    HW166879   1.821   7.696   8.136  0.0174  0.6497  0.9269
51718SOL    HW266880   1.703   7.627   8.201  0.1410 -1.5687 -1.0499
51719SOL     OW66881   4.883   9.756   1.430 -0.2695  0.2289  0.4903
51719SOL    HW166882   4.847   9.844   1.422 -1.3357 -0.2937 -0.6508
51719SOL    HW266883   4.813   9.705   1.472 -1.1051 -0.8788 -2.0575
51720SOL     OW66884  11.948   3.817  13.086  0.3881  0.2805  0.6706
51720SOL    HW166885  11.864   3.820  13.132 -1.1215 -0.1021 -1.8148
51720SOL    HW266886  11.989   3.901  13.106 -0.5045  0.4029  2.1055
51721SOL     OW66887   3.036  11.618   2.038  1.0674 -0.2833  0.2818
51721SOL    HW166888   3.111  11.559   2.031 -0.1869 -1.7732 -1.7936
51721SOL    HW266889   2.967  11.565   2.077  0.0429 -0.1097 -1.2062
51722SOL     OW66890   0.093   3.910   3.110 -0.2277  0.2315  0.0206
51722SOL    HW166891   0.023   3.973   3.130 -0.4047  0.3684 -0.9852
51722SOL    HW266892   0.143   3.904   3.191 -0.6244  1.1379  0.3500
51723SOL     OW66893   7.421  11.969   4.425  0.2342  0.0866 -0.3384
51723SOL    HW166894   7.405  12.042   4.485  0.0628  0.4260 -0.7898
51723SOL    HW266895   7.454  12.011   4.345  1.1742 -0.4193 -0.2259
51724SOL     OW66896   9.300   4.462  10.800  0.2167 -0.2119  0.6321
51724SOL    HW166897   9.287   4.420  10.885 -0.4272  2.5447  2.0069
51724SOL    HW266898   9.215   4.458  10.758  0.1637 -0.2839  0.7430
51725SOL     OW66899   8.759  12.705   9.641 -0.2560 -0.1167  0.0967
51725SOL    HW166900   8.742  12.724   9.733  1.3855 -1.4196  0.7163
51725SOL    HW266901   8.848  12.671   9.639  0.0618  0.6599 -2.1139
51726SOL     OW66902  12.377   8.161   7.211  0.0240  0.1387 -0.1562
51726SOL    HW166903  12.433   8.150   7.134  1.2280 -3.0369  1.0195
51726SOL    HW266904  12.319   8.085   7.209 -0.1394  0.1703  1.9143
51727SOL     OW66905   0.654  10.588   9.084 -0.5062  0.2638 -0.1554
51727SOL    HW166906   0.670  10.528   9.157  0.2116 -0.7725 -1.1367
51727SOL    HW266907   0.699  10.668   9.110 -0.1007 -0.1515  0.4664
51728SOL     OW66908   7.898   1.421  12.304  0.1273 -0.2983 -0.2230
51728SOL    HW166909   7.828   1.468  12.350 -0.2833 -1.9925  0.9890
51728SOL    HW266910   7.975   1.435  12.359  0.2088 -0.3049 -0.3363
51729SOL     OW66911   9.204   3.299   8.902 -0.5055 -0.5788 -0.3030
51729SOL    HW166912   9.174   3.253   8.981 -1.1455 -0.7050 -0.6107
51729SOL    HW266913   9.153   3.259   8.831  0.4428 -0.8375 -0.8536
51730SOL     OW66914   4.896   5.175  11.504 -0.6843  0.1598  0.4169
51730SOL    HW166915   4.934   5.126  11.431 -0.6574 -0.1822  0.6562
51730SOL    HW266916   4.946   5.256  11.508 -1.5433  0.7835 -0.7896
51731SOL     OW66917   9.350   2.901   4.173  0.2350  0.5782 -0.0870
51731SOL    HW166918   9.296   2.946   4.107 -0.6978  0.4976  0.5986
51731SOL    HW266919   9.364   2.814   4.137  1.2853  1.1064 -1.0100
51732SOL     OW66920   4.382   9.710  13.138 -0.5274 -0.1521  0.0794
51732SOL    HW166921   4.333   9.634  13.168 -1.3453  0.7400  1.0751
51732SOL    HW266922   4.378   9.705  13.042 -1.5881 -0.7107  0.1406
51733SOL     OW66923   6.443   9.783   1.425 -0.9812 -0.2422  0.0137
51733SOL    HW166924   6.403   9.852   1.371 -0.9794 -0.4864 -0.3005
51733SOL    HW266925   6.534   9.781   1.398 -0.7075  0.4216  0.8389
51734SOL     OW66926   7.100   2.648   9.626  0.6704 -0.3960 -0.0076
51734SOL    HW166927   7.157   2.693   9.564 -0.0081  0.6331  0.0850
51734SOL    HW266928   7.135   2.671   9.712 -0.5242  1.1988  0.0938
51735SOL     OW66929  12.049   7.239   4.008  0.9182 -0.4057 -0.1497
51735SOL    HW166930  11.969   7.199   4.043  1.2183  0.2574  1.3349
51735SOL    HW266931  12.116   7.172   4.021  0.5311 -1.2452 -2.0348
51736SOL     OW66932  11.943   0.680   8.876 -0.3899  0.2836 -0.3699
51736SOL    HW166933  11.935   0.771   8.849  2.0043  0.9230  0.8184
51736SOL    HW266934  11.988   0.637   8.803  2.3437  1.0923  0.7114
51737SOL     OW66935   1.994  11.162  12.787  0.2883  0.7884  0.3797
51737SOL    HW166936   2.003  11.166  12.692  0.7961  0.9371  0.4306
51737SOL    HW266937   2.078  11.194  12.820  0.5023 -0.2403  0.8694
51738SOL     OW66938   7.415   2.174  11.762  0.0970  0.3411 -0.8958
51738SOL    HW166939   7.407   2.103  11.699 -0.0774 -1.8788  1.4356
51738SOL    HW266940   7.506   2.169  11.793  0.0420  1.0316 -0.6039
51739SOL     OW66941   6.161   9.449  10.020 -0.2906 -1.0782 -0.2734
51739SOL    HW166942   6.098   9.438  10.091  0.3702 -0.5475  0.4203
51739SOL    HW266943   6.195   9.361  10.004 -1.0386 -1.3317 -0.5026
51740SOL     OW66944   0.652  12.961  10.476  0.5949 -0.1424  0.1614
51740SOL    HW166945   0.734  12.928  10.438 -0.8397 -2.0488 -1.4769
51740SOL    HW266946   0.594  12.973  10.400 -0.8625  0.5634  1.3481
51741SOL     OW66947  11.801   0.360   8.164  0.1164  0.4698  0.2379
51741SOL    HW166948  11.795   0.297   8.236 -2.0920 -1.1005 -1.1977
51741SOL    HW266949  11.853   0.316   8.097 -0.9985  0.3436 -0.5695
51742SOL     OW66950   6.718  10.837   7.306  0.4495  0.1581  0.1769
51742SOL    HW166951   6.629  10.851   7.274  0.2060  0.3597  0.9249
51742SOL    HW266952   6.707  10.806   7.396  1.0362 -2.4086 -0.5351
51743SOL     OW66953   3.452   0.353   9.291  0.4225  0.4178 -0.1464
51743SOL    HW166954   3.534   0.328   9.334 -0.9341 -2.5389  1.0273
51743SOL    HW266955   3.455   0.308   9.206 -0.3162 -0.4593  0.2738
51744SOL     OW66956   9.960  10.804  13.419 -0.1450  0.2455  0.1374
51744SOL    HW166957   9.889  10.743  13.399 -0.8431  0.6200  1.3723
51744SOL    HW266958  10.014  10.805  13.340 -1.9002  0.4967 -1.1102
51745SOL     OW66959   6.442   1.165   3.333  0.4071  0.5675  0.1510
51745SOL    HW166960   6.400   1.083   3.358  1.5820 -0.7938 -1.9878
51745SOL    HW266961   6.526   1.165   3.380  0.0163  1.0245  0.8646
51746SOL     OW66962   0.008   7.833   9.135  0.0468 -0.0923 -0.2518
51746SOL    HW166963   0.007   7.755   9.190 -1.2826  0.3793  0.4388
51746SOL    HW266964  -0.003   7.906   9.197  0.5242  0.5902 -0.9553
51747SOL     OW66965   4.054   7.408  11.688 -0.5961  0.1550  0.3728
51747SOL    HW166966   4.099   7.492  11.698  0.8461 -0.4081 -1.0188
51747SOL    HW266967   4.118   7.343  11.716 -0.8310 -0.6278 -0.8681
51748SOL     OW66968  10.135  11.676   2.238 -0.6406 -0.4092 -0.7431
51748SOL    HW166969  10.216  11.665   2.189 -0.5501  1.1107 -0.9618
51748SOL    HW266970  10.066  11.667   2.172 -0.6800 -1.6428 -0.5665
51749SOL     OW66971   6.960   1.271  10.827  0.2259  0.7159 -0.0876
51749SOL    HW166972   6.949   1.183  10.792  1.4068  0.0047  1.2089
51749SOL    HW266973   6.889   1.280  10.891  1.3120 -0.1384  1.2907
51750SOL     OW66974  13.615  12.835   0.636  0.4471  0.2123 -0.4757
51750SOL    HW166975  13.618  12.743   0.662  0.8132 -0.2012 -1.9004
51750SOL    HW266976  13.689  12.876   0.680  0.1088 -0.0886  0.4022
51751SOL     OW66977   3.677   1.500   9.133  0.1740  0.2964 -0.4478
51751SOL    HW166978   3.707   1.536   9.050 -0.2281  3.2819  0.5860
51751SOL    HW266979   3.722   1.552   9.200 -1.1375 -0.5714  1.1939
51752SOL     OW66980  12.302   2.115   2.819  0.8863 -0.2939 -0.4260
51752SOL    HW166981  12.292   2.020   2.822  1.0448 -0.2948  0.8884
51752SOL    HW266982  12.269   2.140   2.733  0.1487 -1.4678 -0.5134
51753SOL     OW66983   9.044   7.682  13.333  0.5676  0.5114  0.4442
51753SOL    HW166984   9.118   7.642  13.377  1.2484 -0.2329 -1.3039
51753SOL    HW266985   9.072   7.692  13.242 -1.3660  0.4801 -0.2004
51754SOL     OW66986   6.859   8.277   9.630  0.0748  0.7623 -0.1525
51754SOL    HW166987   6.912   8.206   9.667  1.8886  1.0674 -1.9836
51754SOL    HW266988   6.771   8.240   9.623  0.7991 -1.0345 -0.3446
51755SOL     OW66989  10.137   1.186   1.941  0.1377 -0.1935 -0.1222
51755SOL    HW166990  10.073   1.145   1.999  1.8455 -0.3212  1.8045
51755SOL    HW266991  10.172   1.114   1.888  0.7639 -0.6678  0.9110
51756SOL     OW66992   3.510  12.358   2.834 -0.1948 -0.5880 -0.2674
51756SOL    HW166993   3.426  12.356   2.789 -0.2228 -1.7095 -0.1924
51756SOL    HW266994   3.489  12.373   2.926 -0.2070  0.5243 -0.4303
51757SOL     OW66995  11.599   6.410   3.643 -0.0014  0.1293  0.2180
51757SOL    HW166996  11.505   6.411   3.662 -0.6559 -1.9174 -2.3887
51757SOL    HW266997  11.612   6.483   3.582 -0.1406 -0.2585 -0.2831
51758SOL     OW66998   7.330   7.845  12.184  0.1239  0.1321 -0.5150
51758SOL    HW166999   7.240   7.837  12.153 -0.7629 -2.9329  2.1992
51758SOL    HW267000   7.329   7.922  12.241 -1.5009 -1.0535  1.2007
51759SOL     OW67001  13.403  12.817  10.648  1.1244 -0.0613  0.6401
51759SOL    HW167002  13.317  12.775  10.651  1.0299  0.0966  0.2422
51759SOL    HW267003  13.384  12.907  10.622  1.3831  0.0483  0.8400
51760SOL     OW67004   2.533   5.828   1.072 -0.5675  0.3627 -0.4581
51760SOL    HW167005   2.562   5.764   1.007 -0.2145 -2.0423  1.8765
51760SOL    HW267006   2.438   5.825   1.069 -0.5868  1.4948 -1.9136
51761SOL     OW67007  10.279   5.487   9.001 -0.5211 -0.5971 -0.4503
51761SOL    HW167008  10.289   5.489   9.097  1.1634  0.4526 -0.5926
51761SOL    HW267009  10.185   5.484   8.987 -1.0820  2.7921  1.2886
51762SOL     OW67010   4.339  10.236   4.723 -0.0117  0.1505  0.0187
51762SOL    HW167011   4.248  10.240   4.753  0.0418 -0.6233  0.2983
51762SOL    HW267012   4.380  10.313   4.762  0.0882 -0.8936  2.0778
51763SOL     OW67013   8.041  12.204   3.607 -0.1675  0.1035  0.7408
51763SOL    HW167014   8.132  12.233   3.596  0.7501 -2.1231  1.6904
51763SOL    HW267015   8.007  12.200   3.518  1.4243 -1.0413  0.1154
51764SOL     OW67016   6.626   9.411   2.114  0.3153 -0.0699  0.0418
51764SOL    HW167017   6.712   9.418   2.071  0.2622  1.1837  0.0950
51764SOL    HW267018   6.597   9.502   2.124 -1.5773 -0.4941 -1.0779
51765SOL     OW67019  10.052   9.044   2.297 -0.2793 -0.1585  0.0517
51765SOL    HW167020   9.970   9.046   2.248 -0.3435 -0.6192  0.1384
51765SOL    HW267021  10.049   9.122   2.353  0.0319  0.6624 -1.0514
51766SOL     OW67022   1.994  12.464   5.387 -0.4603  0.6627 -0.1197
51766SOL    HW167023   1.933  12.401   5.350 -0.7102  1.6135 -1.4040
51766SOL    HW267024   2.060  12.411   5.433 -1.1108 -0.4637 -0.4556
51767SOL     OW67025   7.143  12.913   3.425 -0.5288  0.1145 -0.2060
51767SOL    HW167026   7.096  12.858   3.488 -0.0545 -1.5334 -1.2397
51767SOL    HW267027   7.234  12.910   3.455 -0.6263  1.0485  0.2108
51768SOL     OW67028   5.520   9.372   5.187 -0.6462 -0.2184 -0.3599
51768SOL    HW167029   5.566   9.390   5.269 -0.0529 -0.6616 -0.5892
51768SOL    HW267030   5.549   9.441   5.128 -2.6402  1.3356  0.3736
51769SOL     OW67031  11.729   8.200   3.209  0.6342  0.3006  0.1092
51769SOL    HW167032  11.813   8.242   3.229  0.4060  1.1745 -0.6808
51769SOL    HW267033  11.750   8.107   3.203  1.8536  0.6314 -1.4871
51770SOL     OW67034  12.460  13.473   0.428  0.2744 -0.3470  0.4335
51770SOL    HW167035  12.532  13.454   0.367 -0.0909  0.6829 -0.3518
51770SOL    HW267036  12.485  13.556   0.469 -0.2431 -0.2283  0.5102
51771SOL     OW67037   9.819  13.485   7.080 -0.5338 -0.4510  0.3331
51771SOL    HW167038   9.785  13.561   7.127 -2.7106 -0.6643 -0.7499
51771SOL    HW267039   9.900  13.462   7.126  0.3144  2.5937  0.5973
51772SOL     OW67040  11.631   7.649   7.121  0.0330  0.1283  0.0316
51772SOL    HW167041  11.645   7.670   7.028  2.3875  1.3947  0.6031
51772SOL    HW267042  11.619   7.554   7.122  0.9467 -0.0408 -1.4802
51773SOL     OW67043   9.194   9.934   0.327 -0.5634  0.1315  0.3343
51773SOL    HW167044   9.131   9.902   0.262  0.3958 -1.4762  0.1289
51773SOL    HW267045   9.153  10.012   0.364 -2.1303 -0.1858 -0.6258
51774SOL     OW67046   7.422   3.367   0.341  0.3242 -0.6434  0.7929
51774SOL    HW167047   7.485   3.421   0.389  2.5827 -2.6888  0.2970
51774SOL    HW267048   7.457   3.279   0.344 -2.1455 -1.7789 -0.2382
51775SOL     OW67049   1.306   8.158   0.019 -0.1652 -0.3425  0.1296
51775SOL    HW167050   1.351   8.240   0.043 -1.6162  0.7579 -0.7728
51775SOL    HW267051   1.339   8.094   0.083  0.1786  1.1960  1.5806
51776SOL     OW67052   0.598   4.765   4.904  0.5313  0.8434 -0.0701
51776SOL    HW167053   0.528   4.830   4.893 -0.4737 -0.4008 -1.3873
51776SOL    HW267054   0.572   4.715   4.981  0.6821  1.2137  0.2277
51777SOL     OW67055   5.299  11.680  11.655  0.1874 -0.1338  0.5623
51777SOL    HW167056   5.379  11.728  11.676  1.5046 -1.6152 -0.7950
51777SOL    HW267057   5.329  11.605  11.604 -2.1168 -0.5891 -0.2340
51778SOL     OW67058  13.452   2.366  12.444  0.0907  0.2168  0.5167
51778SOL    HW167059  13.408   2.344  12.526  1.6833 -0.5831  1.1934
51778SOL    HW267060  13.540   2.393  12.470  0.8500 -0.6733 -0.9609
51779SOL     OW67061   4.028   3.923  13.710  0.1109 -0.5298 -0.1899
51779SOL    HW167062   4.002   3.984  13.641  2.1752  1.2829  0.5063
51779SOL    HW267063   3.963   3.937  13.779  0.4426  0.8134 -0.1155
51780SOL     OW67064   5.325   4.000   8.761 -0.1397  0.1035  1.0080
51780SOL    HW167065   5.317   3.978   8.854  0.0833 -1.0254  0.7711
51780SOL    HW267066   5.243   3.971   8.722 -0.8543  1.9110  1.0719
51781SOL     OW67067   0.081  13.422   9.856 -0.2776 -0.1284  0.1648
51781SOL    HW167068   0.085  13.329   9.877  0.1326  0.2448  1.8848
51781SOL    HW267069   0.017  13.427   9.785 -1.2739 -1.5938  0.8927
51782SOL     OW67070  10.188  12.632   9.239  0.1987 -0.2799  0.4132
51782SOL    HW167071  10.197  12.607   9.147 -0.4981 -1.3005  0.5970
51782SOL    HW267072  10.233  12.716   9.246  0.0305 -0.0552 -0.9164
51783SOL     OW67073   2.526   6.763   5.206 -0.0431 -0.0351 -0.3514
51783SOL    HW167074   2.607   6.713   5.219 -0.2465  0.2849  3.3123
51783SOL    HW267075   2.548   6.851   5.236 -1.3979  0.4277 -0.6604
51784SOL     OW67076   6.053  10.481   1.374  0.1767 -0.5541 -0.0277
51784SOL    HW167077   5.995  10.480   1.451  0.5462 -1.0779  0.2534
51784SOL    HW267078   6.133  10.523   1.405 -0.5359  1.4635 -0.7951
51785SOL     OW67079   7.415  11.193   2.031 -0.3177  0.0559 -0.3887
51785SOL    HW167080   7.340  11.252   2.024 -1.9920 -1.9513 -0.3747
51785SOL    HW267081   7.442  11.178   1.941 -0.4512  0.1531 -0.4459
51786SOL     OW67082   5.073   9.824   9.437  0.1030  0.1882 -0.0917
51786SOL    HW167083   4.994   9.876   9.420  0.0852  0.0854 -0.3218
51786SOL    HW267084   5.118   9.821   9.352 -0.7318 -1.6049 -0.5130
51787SOL     OW67085   7.567   1.246  10.505  0.2697  0.0452 -0.1688
51787SOL    HW167086   7.581   1.159  10.468  0.6810  0.2236 -0.4442
51787SOL    HW267087   7.474   1.249  10.524  0.2527 -0.4611 -0.1421
51788SOL     OW67088   2.404   1.324   0.355  0.3335  0.5365 -0.0672
51788SOL    HW167089   2.360   1.261   0.298  0.7298  2.1892 -2.3600
51788SOL    HW267090   2.353   1.323   0.436 -0.8506 -1.2376 -0.7754
51789SOL     OW67091   3.556  12.294  10.427  0.5607  0.0620 -0.8870
51789SOL    HW167092   3.571  12.361  10.494  0.2795  0.9089 -1.6380
51789SOL    HW267093   3.605  12.218  10.457 -2.5377 -0.9857  2.2928
51790SOL     OW67094   0.824  11.727   5.563 -0.2324 -0.2963  0.2099
51790SOL    HW167095   0.847  11.756   5.651 -0.2468 -1.3658  0.5784
51790SOL    HW267096   0.740  11.769   5.545  0.3651  0.9360  0.1939
51791SOL     OW67097   7.708   3.988   9.225  0.0512  0.2786  0.4174
51791SOL    HW167098   7.769   3.932   9.178  0.8375  1.8372 -0.4927
51791SOL    HW267099   7.637   3.929   9.251  0.2966 -0.9328 -1.4633
51792SOL     OW67100  13.167   5.861   1.805  0.1662  0.4964  0.0202
51792SOL    HW167101  13.085   5.813   1.787  0.1036 -0.3410  2.2493
51792SOL    HW267102  13.140   5.953   1.812 -0.3749  0.3791 -0.4664
51793SOL     OW67103   2.253  10.265   3.366  0.2576  0.3405  0.2230
51793SOL    HW167104   2.206  10.314   3.433 -0.3053  0.2652 -0.1132
51793SOL    HW267105   2.343  10.260   3.399 -0.1939 -0.4607  1.4189
51794SOL     OW67106   8.072  12.083   8.844  0.0911  0.0287 -0.5063
51794SOL    HW167107   7.977  12.089   8.849 -0.1487 -1.7531 -2.0151
51794SOL    HW267108   8.103  12.127   8.924 -2.0050 -0.1921  0.4936
51795SOL     OW67109   7.288  13.498  12.101 -0.3679  0.9569  0.1710
51795SOL    HW167110   7.307  13.483  12.008 -0.6691  3.3329 -0.3608
51795SOL    HW267111   7.275  13.411  12.138 -0.4207 -0.0498 -2.0581
51796SOL     OW67112  10.760   3.819   0.633 -0.5570  0.4860 -0.3857
51796SOL    HW167113  10.761   3.724   0.640  0.3324  0.4255 -1.1721
51796SOL    HW267114  10.853   3.845   0.634 -0.7838  1.3471 -0.1876
51797SOL     OW67115   9.358  10.148  12.698  0.2435 -0.1296 -0.0277
51797SOL    HW167116   9.443  10.117  12.665  1.7272  3.2188  0.2374
51797SOL    HW267117   9.361  10.131  12.792  0.7039  0.0549 -0.0046
51798SOL     OW67118  12.052   8.776   3.627  0.1418  0.0750 -0.2673
51798SOL    HW167119  12.106   8.847   3.660 -1.6887  0.9094  1.1299
51798SOL    HW267120  11.966   8.816   3.614 -1.3203 -2.1245  1.8667
51799SOL     OW67121   3.186   2.445   4.104 -0.3385 -0.0217 -0.1478
51799SOL    HW167122   3.241   2.380   4.060  0.2772  1.0185 -0.9651
51799SOL    HW267123   3.100   2.403   4.110 -0.4346 -0.2312 -2.3387
51800SOL     OW67124  11.520  11.754  12.129 -0.1110  0.0879  0.2981
51800SOL    HW167125  11.593  11.757  12.066 -1.2839 -1.4717 -1.2454
51800SOL    HW267126  11.545  11.686  12.191  0.0712  0.0898  0.2288
51801SOL     OW67127   0.863  11.734  11.675 -0.2309  0.5963  0.1773
51801SOL    HW167128   0.779  11.690  11.687  0.2636 -0.2854  0.4557
51801SOL    HW267129   0.893  11.704  11.589 -0.1398  0.8247  0.1284
51802SOL     OW67130   9.329   7.423   9.038  0.1989  0.0046  0.6461
51802SOL    HW167131   9.416   7.401   9.004 -0.0857 -0.6171  0.3145
51802SOL    HW267132   9.297   7.491   8.979  1.0519  1.3301  1.6365
51803SOL     OW67133   2.288   0.183   0.987  0.0548  0.5033  0.0694
51803SOL    HW167134   2.310   0.275   0.999 -0.4461  0.8430 -1.4420
51803SOL    HW267135   2.265   0.175   0.895 -0.8259 -0.9433  0.3784
51804SOL     OW67136  12.325   0.491  12.380 -0.2933  0.0794 -0.1549
51804SOL    HW167137  12.286   0.542  12.451  1.0874  0.0172  0.6859
51804SOL    HW267138  12.411   0.531  12.366 -0.1365 -0.5560 -1.0856
51805SOL     OW67139   5.079   5.802  13.270  0.6245  0.0356  0.0402
51805SOL    HW167140   5.018   5.817  13.197  0.1830 -1.0108  0.1733
51805SOL    HW267141   5.129   5.724  13.243  0.7842 -0.0756  0.6477
51806SOL     OW67142   8.729   4.086   5.770 -0.6371  0.6773 -0.4366
51806SOL    HW167143   8.776   4.017   5.722 -0.1489  0.5503  0.2088
51806SOL    HW267144   8.704   4.149   5.702 -2.2072 -0.7286 -1.2401
51807SOL     OW67145   4.368   9.610   2.981 -0.0707 -0.0906 -0.0574
51807SOL    HW167146   4.300   9.647   2.924 -1.5315 -1.9464  0.3853
51807SOL    HW267147   4.393   9.682   3.039  2.2364  2.2401 -3.5518
51808SOL     OW67148  10.387   4.008   6.729 -0.3376 -0.2129 -0.4951
51808SOL    HW167149  10.425   3.955   6.659 -0.6634 -0.7169 -0.2952
51808SOL    HW267150  10.463   4.036   6.781 -0.1878 -0.7207 -0.4357
51809SOL     OW67151  11.124  10.359   5.488  0.0834  0.0687  0.0571
51809SOL    HW167152  11.079  10.436   5.453 -1.3909  0.0921  1.8292
51809SOL    HW267153  11.151  10.385   5.576  2.7817 -0.2956 -0.5972
51810SOL     OW67154   0.026   6.687  10.920 -0.1667  0.3450  0.6478
51810SOL    HW167155  -0.014   6.767  10.888  2.6963  1.2602 -1.0962
51810SOL    HW267156   0.009   6.622  10.851 -0.7142  0.0264  1.0754
51811SOL     OW67157   0.821  12.758   9.126 -0.4375 -0.4512 -0.1023
51811SOL    HW167158   0.788  12.845   9.148  1.8790  0.6255 -0.6183
51811SOL    HW267159   0.825  12.712   9.210 -0.0123  0.5653  0.4543
51812SOL     OW67160  11.979   5.279   0.684 -0.2561 -0.9422 -0.2776
51812SOL    HW167161  12.046   5.343   0.708 -0.4869 -0.3735 -1.1232
51812SOL    HW267162  11.959   5.234   0.766 -1.7580  1.6310  0.8939
51813SOL     OW67163   4.398  13.623  10.107 -0.3488  0.3452 -0.0823
51813SOL    HW167164   4.375  13.692  10.169 -3.7187  1.2974 -2.1141
51813SOL    HW267165   4.314  13.596  10.069  1.1206 -3.0046 -1.3478
51814SOL     OW67166   7.423   0.137   2.956  0.3076 -0.8099 -0.2810
51814SOL    HW167167   7.476   0.211   2.927  1.0166 -1.6443 -1.2284
51814SOL    HW267168   7.460   0.113   3.041  1.8721 -1.7038 -1.1497
51815SOL     OW67169  12.286   3.737   9.199 -0.1083  0.0680  0.1158
51815SOL    HW167170  12.280   3.748   9.104  2.1344  2.6970  0.1647
51815SOL    HW267171  12.196   3.729   9.228 -0.8789 -0.2232 -2.1675
51816SOL     OW67172   4.229   0.918   2.840  0.0254  0.4212  0.2369
51816SOL    HW167173   4.318   0.890   2.861  0.2396 -1.1096 -2.2384
51816SOL    HW267174   4.239   1.002   2.796  0.1317  0.7495  0.8814
51817SOL     OW67175   9.637   8.267  13.442  0.0451 -0.2380 -0.3457
51817SOL    HW167176   9.660   8.201  13.508 -0.8836 -0.0175  0.2173
51817SOL    HW267177   9.636   8.218  13.360 -0.3530 -0.8680  0.0238
51818SOL     OW67178  12.824   7.278   4.260  0.2210 -0.6088 -0.2400
51818SOL    HW167179  12.870   7.335   4.199 -0.0785  0.1907  0.2657
51818SOL    HW267180  12.892   7.223   4.298  0.8556  0.8657  0.8281
51819SOL     OW67181   9.915   8.878  12.403 -0.1664  0.4646  0.0220
51819SOL    HW167182   9.891   8.889  12.495 -0.9779  2.2194 -0.3617
51819SOL    HW267183  10.007   8.903  12.398 -0.1898  0.6069  0.3082
51820SOL     OW67184   9.784   2.167  10.222  0.6126 -0.0355  0.5091
51820SOL    HW167185   9.765   2.237  10.284 -1.6311 -1.1965  1.2492
51820SOL    HW267186   9.788   2.088  10.276 -0.4013 -0.9358 -0.6772
51821SOL     OW67187  11.747   7.333   5.537  0.6497 -0.5578 -0.7376
51821SOL    HW167188  11.735   7.419   5.578 -2.6266 -2.0140  1.8157
51821SOL    HW267189  11.797   7.283   5.602  2.9184 -0.5665 -2.3886
51822SOL     OW67190  12.828   5.652   6.604 -0.1307 -0.0064 -0.6991
51822SOL    HW167191  12.812   5.559   6.592  0.3218  0.0028 -1.4540
51822SOL    HW267192  12.893   5.657   6.674 -1.8611 -0.1308  0.9849
51823SOL     OW67193   3.643   0.105   5.999  0.3319 -0.8112 -0.1373
51823SOL    HW167194   3.700   0.159   6.053  0.3108 -1.7992  0.9131
51823SOL    HW267195   3.560   0.103   6.047  0.4726 -2.1320  0.1022
51824SOL     OW67196   6.442   0.685  11.838 -0.6841  0.1388 -0.4468
51824SOL    HW167197   6.421   0.750  11.771  1.7546 -0.5300 -1.9775
51824SOL    HW267198   6.414   0.602  11.799 -0.2553 -0.1404 -0.1537
51825SOL     OW67199   6.146  12.621   5.898  0.4820  0.7287  0.3679
51825SOL    HW167200   6.171  12.596   5.987  2.0501 -0.7038 -0.4198
51825SOL    HW267201   6.203  12.569   5.842 -0.8777  1.1724 -1.5001
51826SOL     OW67202  11.320  12.662   5.546 -0.4979 -0.1841 -0.5683
51826SOL    HW167203  11.237  12.707   5.539 -0.2847  0.5251  0.9112
51826SOL    HW267204  11.367  12.710   5.615  0.3667 -1.6973 -0.0537
51827SOL     OW67205   1.727   1.590   1.409  0.5524 -0.2029 -0.1520
51827SOL    HW167206   1.670   1.518   1.438  0.1636  0.6370  1.2767
51827SOL    HW267207   1.812   1.570   1.448  0.2421  0.4943  0.9263
51828SOL     OW67208   6.030  11.786   2.555  0.0186  0.0702  0.0382
51828SOL    HW167209   6.073  11.848   2.496 -0.2289  0.4129  0.2095
51828SOL    HW267210   5.936  11.800   2.540 -0.1262  1.5510  1.8694
51829SOL     OW67211   2.656   0.098  12.275 -0.4230 -0.0639 -0.0914
51829SOL    HW167212   2.592   0.062  12.337 -0.6304 -2.0577 -1.3860
51829SOL    HW267213   2.733   0.042  12.285  0.0426  0.4645 -0.6474
51830SOL     OW67214   4.818   7.501  10.618  0.3045  0.1262 -0.2144
51830SOL    HW167215   4.890   7.454  10.575  0.3447 -0.3302  0.3479
51830SOL    HW267216   4.849   7.515  10.707 -0.7068 -0.9757  0.3413
51831SOL     OW67217   4.791   8.213   8.813  0.0647 -0.0748  0.4482
51831SOL    HW167218   4.702   8.241   8.836  0.3009  0.3886  0.8312
51831SOL    HW267219   4.845   8.248   8.884  0.7538  0.9643 -0.5578
51832SOL     OW67220  11.859  11.126   7.768  0.2156  0.1778 -0.2068
51832SOL    HW167221  11.797  11.107   7.839 -2.0868 -0.6762 -2.2656
51832SOL    HW267222  11.857  11.221   7.759 -1.8062  0.1169 -0.9558
51833SOL     OW67223   8.869  13.479   3.464  0.1634  0.4834  0.6574
51833SOL    HW167224   8.782  13.515   3.446 -0.3406 -1.1664 -0.4565
51833SOL    HW267225   8.853  13.405   3.522  0.9143  0.6179  1.0436
51834SOL     OW67226  12.437   2.735  12.950 -0.3627  0.3633  0.0480
51834SOL    HW167227  12.495   2.659  12.941 -1.7464 -0.8927  1.1444
51834SOL    HW267228  12.349   2.698  12.948 -1.1421  2.1703 -1.1316
51835SOL     OW67229   8.617   2.989  13.656 -0.1746  0.4830  0.3335
51835SOL    HW167230   8.656   2.912  13.696 -0.5935 -0.5838 -1.2140
51835SOL    HW267231   8.551   3.019  13.719  0.2406 -0.1967  1.1010
51836SOL     OW67232   8.137   4.909   8.858  0.2494 -0.0796 -0.0540
51836SOL    HW167233   8.047   4.928   8.886  0.1018  0.6623 -0.9729
51836SOL    HW267234   8.140   4.814   8.850 -0.4923 -0.1040 -0.1199
51837SOL     OW67235   3.355   3.953  10.132  0.3046  0.5898  0.3442
51837SOL    HW167236   3.320   3.941  10.043 -0.3779  0.7903  0.5810
51837SOL    HW267237   3.326   4.040  10.158 -0.9725 -0.1315  1.4212
51838SOL     OW67238  10.756  11.728   9.521  0.3698 -0.4108 -0.0930
51838SOL    HW167239  10.712  11.646   9.540 -0.7110  0.0743 -0.4403
51838SOL    HW267240  10.688  11.795   9.528  1.3791  0.5695  0.9399
51839SOL     OW67241   6.461  11.353   7.493  0.7511 -0.1444 -0.1186
51839SOL    HW167242   6.411  11.307   7.426  0.2921 -1.9250  1.3755
51839SOL    HW267243   6.544  11.376   7.451 -0.7219  1.6871 -2.2413
51840SOL     OW67244  12.715   8.486  11.113  0.2326 -0.2406 -0.8860
51840SOL    HW167245  12.679   8.574  11.126  1.5123  0.2348 -0.3682
51840SOL    HW267246  12.764   8.491  11.032  1.0522 -0.2141 -0.3982
51841SOL     OW67247   9.174   1.013  10.915 -0.4203  0.2838  0.0367
51841SOL    HW167248   9.089   1.056  10.906 -0.0856  0.7231 -1.2985
51841SOL    HW267249   9.184   1.000  11.009 -0.9943  2.2310  0.4207
51842SOL     OW67250   7.787   5.004  11.721 -0.1935  0.1081 -0.6762
51842SOL    HW167251   7.715   5.013  11.785  0.6075 -0.7861  0.3869
51842SOL    HW267252   7.844   4.938  11.759  2.0233  1.8888 -0.7320
51843SOL     OW67253   2.220  13.409  11.098 -0.0413 -0.5257  0.2275
51843SOL    HW167254   2.271  13.403  11.017 -0.7993 -0.6699 -0.2511
51843SOL    HW267255   2.153  13.341  11.090 -1.1678  0.5348  0.2148
51844SOL     OW67256   4.674   6.663   0.418  0.0980 -0.0071  0.0485
51844SOL    HW167257   4.609   6.728   0.391  0.4003  0.3764  0.2352
51844SOL    HW267258   4.650   6.639   0.507 -0.9737 -1.3660 -0.5702
51845SOL     OW67259   5.133   5.060   1.236  0.2683  0.1231 -0.1275
51845SOL    HW167260   5.150   5.143   1.191  0.2036  0.4067  0.3564
51845SOL    HW267261   5.219   5.032   1.268  0.2322  0.2041  0.0425
51846SOL     OW67262   8.246  10.244   2.818 -0.7487 -0.3821  0.5680
51846SOL    HW167263   8.233  10.155   2.851  2.1672 -1.6663 -1.3732
51846SOL    HW267264   8.177  10.255   2.752  0.7919 -2.6614 -1.6238
51847SOL     OW67265  12.402   0.556  11.953 -0.2805  0.1506  0.2926
51847SOL    HW167266  12.491   0.569  11.985  0.0745 -1.8187  0.2405
51847SOL    HW267267  12.388   0.627  11.890  1.7659 -0.2711 -0.7270
51848SOL     OW67268   3.289   9.304   5.502  0.7014 -0.0030 -0.0885
51848SOL    HW167269   3.290   9.256   5.585  1.6967  0.0592 -0.0563
51848SOL    HW267270   3.206   9.280   5.461  0.7631 -1.0106  0.3607
51849SOL     OW67271  13.583   8.764   1.639 -0.0022  0.0615  0.1622
51849SOL    HW167272  13.572   8.683   1.589  0.7837  0.0357  0.0186
51849SOL    HW267273  13.651   8.743   1.703  1.6275  1.1586 -1.1129
51850SOL     OW67274  13.082  10.835   2.202  0.3119  0.5751 -0.9034
51850SOL    HW167275  13.022  10.799   2.267 -0.4752  0.4780 -1.6612
51850SOL    HW267276  13.146  10.884   2.253 -0.1170  0.2567 -0.0399
51851SOL     OW67277  12.618   5.828   5.579  0.1278  0.3841 -0.3290
51851SOL    HW167278  12.647   5.745   5.617 -0.9042  0.1427 -0.0292
51851SOL    HW267279  12.526   5.835   5.605  0.1585  1.5473 -0.4845
51852SOL     OW67280  10.343   1.434  13.224 -0.3368  0.1520  0.2352
51852SOL    HW167281  10.391   1.352  13.212 -1.4311 -0.3908 -0.5629
51852SOL    HW267282  10.257   1.417  13.187 -0.5253  1.7368 -0.1048
51853SOL     OW67283   3.017  11.181   2.924  0.1696 -1.0122 -0.1640
51853SOL    HW167284   3.107  11.212   2.927 -0.1220 -0.2054  1.3926
51853SOL    HW267285   2.966  11.258   2.899 -0.1590 -1.2760 -0.3060
51854SOL     OW67286   2.170   2.446   7.602  0.3072 -0.0589 -0.1455
51854SOL    HW167287   2.235   2.430   7.669 -0.3583  1.0091  0.7981
51854SOL    HW267288   2.119   2.520   7.635 -0.6251 -0.0993 -1.4012
51855SOL     OW67289  11.803   2.580   2.166  0.0893 -0.0123 -0.2906
51855SOL    HW167290  11.849   2.616   2.089  1.4574  1.1511  1.0146
51855SOL    HW267291  11.738   2.647   2.187 -0.3277 -0.3620 -0.4589
51856SOL     OW67292   9.377  11.995  13.115  0.0326  0.4233  0.0020
51856SOL    HW167293   9.373  12.016  13.022 -0.6817  0.4609  0.0380
51856SOL    HW267294   9.469  11.975  13.131 -0.1403 -1.5740 -1.1643
51857SOL     OW67295  10.793  10.385   0.905  0.3584  0.1291  0.1279
51857SOL    HW167296  10.881  10.403   0.938 -0.1189 -0.0594  1.5817
51857SOL    HW267297  10.807  10.353   0.816  1.7078  0.7106  0.1026
51858SOL     OW67298   9.800   4.083  10.863 -0.6940  0.4716 -0.0078
51858SOL    HW167299   9.824   4.007  10.916 -1.3776  0.1722 -0.1314
51858SOL    HW267300   9.812   4.157  10.923  2.0754  0.5462 -0.4922
51859SOL     OW67301   8.857  10.028   9.193 -0.3449  0.1413  0.4778
51859SOL    HW167302   8.821  10.084   9.261  0.1027 -0.2554  1.0469
51859SOL    HW267303   8.934   9.987   9.233 -1.3048 -1.7975  0.5048
51860SOL     OW67304   4.081   2.662   1.584  0.4794 -0.2060 -0.4378
51860SOL    HW167305   4.060   2.579   1.627 -1.4375 -0.2626 -1.3932
51860SOL    HW267306   4.127   2.638   1.504 -0.3462 -0.3885 -0.8675
51861SOL     OW67307   7.753   3.213   2.671  0.2311  0.3501  0.5484
51861SOL    HW167308   7.713   3.147   2.614  1.3996 -1.2029  1.4177
51861SOL    HW267309   7.764   3.290   2.616 -1.9101  0.1254 -0.2994
51862SOL     OW67310  10.128   2.790   8.443 -0.4913  0.0421  0.5916
51862SOL    HW167311  10.123   2.830   8.530  0.0298  0.0986  0.6015
51862SOL    HW267312  10.158   2.861   8.386 -0.0147 -0.2058  0.5233
51863SOL     OW67313   6.183   4.819   2.404  0.5305  0.2488  0.5003
51863SOL    HW167314   6.204   4.896   2.351 -0.2863  0.8104  0.9797
51863SOL    HW267315   6.107   4.780   2.361  0.2936  0.3135  0.8560
51864SOL     OW67316  11.850   0.533   4.439  0.1965 -0.1810 -0.3423
51864SOL    HW167317  11.822   0.593   4.370  1.2129  0.5256 -0.1696
51864SOL    HW267318  11.864   0.589   4.515  2.9120 -0.2866 -0.6504
51865SOL     OW67319   2.138   5.222   7.401 -0.5860  0.0476  0.0443
51865SOL    HW167320   2.058   5.215   7.349 -0.7351  0.6756  0.1814
51865SOL    HW267321   2.182   5.138   7.388 -1.1585 -0.2233 -0.2063
51866SOL     OW67322   7.853   1.743   5.192  0.1655  0.4420 -0.0925
51866SOL    HW167323   7.925   1.745   5.129  1.2380  1.5900  1.1033
51866SOL    HW267324   7.871   1.816   5.252  0.7580 -2.1955  3.2439
51867SOL     OW67325   5.372   6.720  10.070 -0.4281 -0.4305  0.1570
51867SOL    HW167326   5.314   6.776  10.018  0.9364  0.4311 -0.5044
51867SOL    HW267327   5.431   6.781  10.115  0.3591 -1.2936  0.3363
51868SOL     OW67328   7.628  12.857   7.581 -0.1065 -0.4380  0.5623
51868SOL    HW167329   7.698  12.923   7.584 -0.4766 -0.0597  1.0405
51868SOL    HW267330   7.628  12.827   7.490 -0.1201  0.4395  0.2619
51869SOL     OW67331   4.662  10.757   2.944  0.1047 -0.0296 -0.5867
51869SOL    HW167332   4.660  10.731   3.037 -2.5164 -1.8411 -1.0273
51869SOL    HW267333   4.742  10.717   2.910  1.5006  1.2552  0.9619
51870SOL     OW67334   9.119   2.739   8.734 -0.3294 -0.1703 -0.8141
51870SOL    HW167335   9.148   2.827   8.758  0.0027 -0.2699 -0.8426
51870SOL    HW267336   9.138   2.731   8.641 -0.3157 -0.2884 -0.8020
51871SOL     OW67337  10.681   3.170   8.541 -0.8020 -0.6846 -0.3195
51871SOL    HW167338  10.665   3.244   8.599  0.2444  1.2480 -2.3571
51871SOL    HW267339  10.772   3.180   8.514 -0.9387 -2.1530 -1.4398
51872SOL     OW67340   8.659  10.689   5.278 -0.1558 -0.4198 -0.5764
51872SOL    HW167341   8.613  10.688   5.194  0.2136 -1.1311 -0.7814
51872SOL    HW267342   8.592  10.672   5.343 -0.7966  1.9118 -0.5114
51873SOL     OW67343   4.137   8.653   7.787  0.3454  0.0840  0.1753
51873SOL    HW167344   4.124   8.702   7.705  1.3150 -0.3706 -0.2652
51873SOL    HW267345   4.203   8.588   7.765  0.8667  0.1819  1.4216
51874SOL     OW67346   7.064   0.627  12.084 -0.4186  0.0447 -0.1870
51874SOL    HW167347   7.142   0.574  12.068 -0.4510 -0.2239  0.4880
51874SOL    HW267348   6.992   0.563  12.088 -0.1323 -0.2913  3.2388
51875SOL     OW67349   4.079  10.270   4.209  0.0358  0.2696 -0.2881
51875SOL    HW167350   4.004  10.228   4.251  0.4170 -0.2827 -0.1469
51875SOL    HW267351   4.080  10.235   4.120  1.5469 -1.6595  0.4063
51876SOL     OW67352   0.866   5.434  13.144 -0.9945  0.5373 -0.0555
51876SOL    HW167353   0.797   5.500  13.135 -2.0807 -0.6736 -0.9718
51876SOL    HW267354   0.942   5.471  13.099 -1.6008  1.1403 -0.5937
51877SOL     OW67355  11.649   8.707   9.827 -0.7539  0.4681 -0.3991
51877SOL    HW167356  11.635   8.657   9.907 -0.4220  0.6094 -0.2501
51877SOL    HW267357  11.744   8.702   9.812 -0.7994  0.5292 -0.7241
51878SOL     OW67358  12.250  13.017   3.814 -0.2877 -0.6914 -0.3826
51878SOL    HW167359  12.179  13.000   3.875  0.3649 -2.1324  0.0217
51878SOL    HW267360  12.222  13.095   3.765 -1.6985 -0.6790  0.3986
51879SOL     OW67361   2.379   0.756   9.295  0.3501 -0.1528  0.3686
51879SOL    HW167362   2.309   0.697   9.266  0.7449 -0.5491  0.2054
51879SOL    HW267363   2.403   0.723   9.382  0.5495 -0.2154  0.2909
51880SOL     OW67364   1.465  11.399   4.404 -0.1585  0.2268  0.1852
51880SOL    HW167365   1.443  11.343   4.329 -0.0928  0.3294  0.0876
51880SOL    HW267366   1.445  11.345   4.481 -1.0327  0.4264  0.1099
51881SOL     OW67367  10.529   2.494   2.399 -0.1392 -0.5666  0.7391
51881SOL    HW167368  10.450   2.522   2.353 -0.2068  0.9463  1.7130
51881SOL    HW267369  10.559   2.417   2.350 -3.0217 -2.1420  1.1956
51882SOL     OW67370   4.247   9.359   6.204 -0.0040 -0.0893  0.7457
51882SOL    HW167371   4.203   9.445   6.199 -1.3497 -0.8277 -1.7479
51882SOL    HW267372   4.311   9.361   6.134 -0.6806 -1.4204  0.0579
51883SOL     OW67373  11.140   6.478   1.851  0.1248 -0.3259  0.2992
51883SOL    HW167374  11.173   6.504   1.765  0.5917  0.2244  0.6392
51883SOL    HW267375  11.199   6.409   1.880  1.4341  1.0934  1.1876
51884SOL     OW67376   9.370  13.710   9.507  0.3982 -0.2263  0.7782
51884SOL    HW167377   9.427  13.717   9.430  0.1106 -1.8344  0.3977
51884SOL    HW267378   9.430  13.695   9.580  0.5935  0.2311  0.7184
51885SOL     OW67379   4.616   2.074  12.720  0.0168  0.4573  0.8375
51885SOL    HW167380   4.564   1.995  12.732  1.0427 -0.0398  2.3566
51885SOL    HW267381   4.560   2.133  12.670 -0.9370 -1.0530  0.0666
51886SOL     OW67382   7.911   3.284   7.002  0.2176 -0.0268  0.1709
51886SOL    HW167383   7.948   3.217   6.945 -0.8126 -0.3802 -0.1081
51886SOL    HW267384   7.985   3.313   7.057  0.7518 -1.1403  0.0653
51887SOL     OW67385   3.441  11.214   1.175  0.3658 -0.8128  0.5481
51887SOL    HW167386   3.513  11.166   1.215  1.4754 -0.4340 -0.9158
51887SOL    HW267387   3.365  11.156   1.184  1.1025 -1.7161  1.0657
51888SOL     OW67388  10.454  10.820   1.045  0.2464  0.2779  0.3483
51888SOL    HW167389  10.363  10.823   1.076  0.5612 -0.2810  1.3754
51888SOL    HW267390  10.485  10.733   1.070  1.5176  0.9836  1.3585
51889SOL     OW67391   5.600  10.458   9.745  0.1613  0.0058 -0.6127
51889SOL    HW167392   5.523  10.501   9.709  0.0874 -0.9267 -1.6176
51889SOL    HW267393   5.607  10.376   9.696  1.3909 -0.2457 -0.0582
51890SOL     OW67394   8.421   0.623   8.822 -0.2118  0.2474  0.1694
51890SOL    HW167395   8.476   0.687   8.775  2.0404 -2.2335 -0.8007
51890SOL    HW267396   8.365   0.586   8.754  0.3302 -0.6088  0.1727
51891SOL     OW67397   1.972   2.967   6.699  0.1107 -0.3286 -0.3295
51891SOL    HW167398   2.065   2.948   6.695 -0.1476 -2.6316  2.0101
51891SOL    HW267399   1.945   2.941   6.787 -2.8624 -0.3297 -1.1045
51892SOL     OW67400   8.485   7.201   4.187 -0.0584  0.0707 -0.3280
51892SOL    HW167401   8.463   7.124   4.135  0.9583 -0.9788  0.7348
51892SOL    HW267402   8.400   7.241   4.207 -0.7368 -1.5497  0.2285
51893SOL     OW67403   7.687  12.153  11.541 -0.3934 -0.3993 -0.0883
51893SOL    HW167404   7.600  12.130  11.573 -0.1861  1.4305  2.0189
51893SOL    HW267405   7.734  12.070  11.537 -1.1067 -1.0194  2.5096
51894SOL     OW67406   1.483  12.416   5.044 -0.1046 -0.0243  0.7134
51894SOL    HW167407   1.526  12.358   5.106  0.6674  0.2129  0.4088
51894SOL    HW267408   1.474  12.364   4.964  0.6025  0.2739  0.4354
51895SOL     OW67409   6.587   6.707   9.314 -0.0260  0.2802 -0.5460
51895SOL    HW167410   6.614   6.737   9.227  0.7758  1.1574 -0.0104
51895SOL    HW267411   6.662   6.727   9.370  0.5675 -2.6788 -0.1143
51896SOL     OW67412   2.033  10.168   2.149  0.0953 -0.4652  0.2516
51896SOL    HW167413   1.945  10.205   2.145 -0.9597 -2.8277 -0.0270
51896SOL    HW267414   2.083  10.219   2.086 -1.3452  0.2664 -0.3543
51897SOL     OW67415  13.215   7.441   5.225  0.1042  0.1717 -0.3736
51897SOL    HW167416  13.126   7.469   5.203 -0.0737 -0.6034 -0.6719
51897SOL    HW267417  13.250   7.512   5.279 -2.3751 -1.5156  3.9737
51898SOL     OW67418   3.648   1.102  11.090  0.1260  0.2172 -0.4693
51898SOL    HW167419   3.628   1.049  11.168 -1.5648  1.5719  0.0896
51898SOL    HW267420   3.635   1.043  11.016 -2.0503 -0.1260  0.1169
51899SOL     OW67421   5.268   7.272   8.435  0.4959  0.0643  0.5525
51899SOL    HW167422   5.298   7.290   8.524  0.3294  1.0493  0.4197
51899SOL    HW267423   5.172   7.268   8.442  0.5462 -2.3770  0.8478
51900SOL     OW67424   4.521   9.114  11.422 -0.0339  0.4432 -0.6334
51900SOL    HW167425   4.599   9.063  11.403  0.5950  1.4201 -0.7497
51900SOL    HW267426   4.481   9.070  11.497  0.9450  0.2594 -0.2011
51901SOL     OW67427   6.790  11.357   8.118 -0.7996  0.0176  0.0931
51901SOL    HW167428   6.720  11.369   8.054 -2.4315 -0.7397  1.6668
51901SOL    HW267429   6.800  11.262   8.126  0.5203  0.1085 -0.1917
51902SOL     OW67430   4.097   4.624   6.448 -0.0308 -0.0252 -0.5941
51902SOL    HW167431   4.127   4.580   6.528  1.6536  0.3311 -0.9897
51902SOL    HW267432   4.094   4.554   6.383  1.6766  0.2052 -0.9716
51903SOL     OW67433   7.699   4.505  12.656  0.1283 -0.3323  0.3753
51903SOL    HW167434   7.688   4.421  12.701  0.3265 -0.9648 -0.7012
51903SOL    HW267435   7.629   4.560  12.691 -0.5010 -1.2066  0.5387
51904SOL     OW67436   2.767   0.586   5.250  0.3877 -0.3924 -0.3771
51904SOL    HW167437   2.705   0.657   5.232  1.4348  0.9965  1.2127
51904SOL    HW267438   2.852   0.621   5.223  1.0579 -0.6504  1.2962
51905SOL     OW67439   9.873   6.709  10.766  0.2579 -0.1369 -0.5043
51905SOL    HW167440   9.818   6.641  10.727  0.7263 -0.8269  0.0206
51905SOL    HW267441   9.958   6.667  10.778  0.2120  0.1554  0.9805
51906SOL     OW67442   6.569   7.702   0.264  0.3971 -0.4764  0.0938
51906SOL    HW167443   6.565   7.618   0.218 -0.3344 -1.2202  1.4286
51906SOL    HW267444   6.654   7.702   0.308  0.6577 -0.2265 -0.3981
51907SOL     OW67445   7.957   9.365   6.614 -0.3107 -0.4675 -0.3203
51907SOL    HW167446   7.878   9.397   6.657  0.2711 -1.0019  1.2466
51907SOL    HW267447   7.926   9.311   6.542 -1.3385  0.3655 -0.5285
51908SOL     OW67448   4.272   1.844   2.816  0.2657 -0.2646 -0.1892
51908SOL    HW167449   4.308   1.755   2.820  0.4079 -0.5065 -3.5963
51908SOL    HW267450   4.178   1.831   2.830  0.3162 -0.9433 -0.4126
51909SOL     OW67451  13.704  10.884  11.688 -0.3684  0.0761  0.4501
51909SOL    HW167452  13.731  10.801  11.649  1.0111  0.4407  0.5737
51909SOL    HW267453  13.655  10.929  11.620  1.1460  0.2725 -0.5669
51910SOL     OW67454   9.313   5.226  12.870  0.1792 -0.4603  0.2426
51910SOL    HW167455   9.278   5.137  12.871  2.2099 -1.2996  0.6140
51910SOL    HW267456   9.347   5.240  12.958 -1.4965  1.3163  0.6749
51911SOL     OW67457   9.366   8.174   4.346  0.3422 -0.6100 -0.1493
51911SOL    HW167458   9.458   8.159   4.368  0.7758 -0.4249 -1.7404
51911SOL    HW267459   9.324   8.191   4.431  1.6187 -1.4136  0.6817
51912SOL     OW67460   8.003   0.027   2.510  0.3312 -0.0473  0.7006
51912SOL    HW167461   8.052  -0.051   2.534  0.1715  0.3209  2.3525
51912SOL    HW267462   7.936  -0.004   2.450  0.6945 -1.0596  0.8050
51913SOL     OW67463   3.895   1.241   5.706  0.1325 -0.2285  0.1379
51913SOL    HW167464   3.933   1.161   5.670 -0.7046 -0.7299  0.3299
51913SOL    HW267465   3.954   1.311   5.678  2.3914 -1.1475  2.1654
51914SOL     OW67466   1.336   9.539   1.450 -0.0585 -0.4252 -0.2031
51914SOL    HW167467   1.299   9.554   1.363  0.4254  0.1431 -0.3171
51914SOL    HW267468   1.427   9.514   1.433 -0.7693 -3.6046 -0.0384
51915SOL     OW67469   0.590   3.940   8.519  0.0755  0.1271 -0.1511
51915SOL    HW167470   0.538   4.010   8.558  0.6608  0.2682  0.4057
51915SOL    HW267471   0.543   3.860   8.542  0.9193  0.1212  1.7631
51916SOL     OW67472   1.869   8.123   8.452 -0.4879 -0.2094 -0.4785
51916SOL    HW167473   1.795   8.157   8.403 -1.7751 -2.3567 -0.1557
51916SOL    HW267474   1.898   8.047   8.402 -1.4525 -2.0863  1.6375
51917SOL     OW67475   2.384   6.553   6.267 -0.4732  0.3330 -0.4804
51917SOL    HW167476   2.419   6.639   6.246  0.8216  0.2139  0.9762
51917SOL    HW267477   2.344   6.564   6.354 -0.2512 -0.5278 -0.2590
51918SOL     OW67478   8.050   7.801   9.299 -0.2003 -0.4526  0.1138
51918SOL    HW167479   8.042   7.829   9.390 -2.7338  2.2518 -0.7795
51918SOL    HW267480   7.980   7.736   9.288  0.8215 -1.6176  0.3214
51919SOL     OW67481   1.159  11.265   5.200  0.2742  0.3976  0.1565
51919SOL    HW167482   1.249  11.257   5.230 -0.1179 -1.3581  1.0160
51919SOL    HW267483   1.106  11.258   5.280 -0.7196 -2.2255 -0.6338
51920SOL     OW67484   4.666   9.946  13.651  0.2506 -0.3730  0.0428
51920SOL    HW167485   4.705  10.028  13.682 -0.8042 -0.4843  1.8449
51920SOL    HW267486   4.596   9.973  13.593 -0.2941  0.0445  0.8741
51921SOL     OW67487  11.631   8.249   6.572 -0.0436  0.0879  0.1446
51921SOL    HW167488  11.593   8.280   6.654 -0.3792  1.2245 -0.4257
51921SOL    HW267489  11.701   8.189   6.600 -1.5244 -1.2496  1.2208
51922SOL     OW67490   2.362   9.426   7.827  0.0219 -0.5224 -0.4843
51922SOL    HW167491   2.432   9.361   7.822 -0.1210 -0.8788  1.4380
51922SOL    HW267492   2.342   9.446   7.736  2.2404 -0.8169 -1.0905
51923SOL     OW67493   7.549   3.390   7.633 -0.0338  0.5676 -0.2152
51923SOL    HW167494   7.572   3.443   7.558  0.4190  0.2557 -0.2976
51923SOL    HW267495   7.490   3.445   7.685 -1.9585  0.0964 -1.7779
51924SOL     OW67496  12.264   8.402   7.311  0.4352  0.2303  0.6273
51924SOL    HW167497  12.326   8.333   7.287 -0.3267 -0.8804  1.7692
51924SOL    HW267498  12.283   8.421   7.403 -0.6750  0.1164  0.8926
51925SOL     OW67499  11.133   6.268   7.413 -0.2137 -0.3470 -0.1048
51925SOL    HW167500  11.108   6.354   7.380  1.4135  0.1761 -0.0198
51925SOL    HW267501  11.049   6.225   7.432 -1.0796  0.7318 -1.3143
51926SOL     OW67502   2.988   2.980   7.828  0.0280  0.5221 -0.0780
51926SOL    HW167503   2.967   2.888   7.840  0.9929  0.4695  1.4427
51926SOL    HW267504   2.931   3.008   7.756  1.4710 -1.8552 -2.3178
51927SOL     OW67505   2.866  11.913   2.295  0.2959 -0.0281 -0.7012
51927SOL    HW167506   2.888  11.827   2.329  1.2314  0.3014 -0.4394
51927SOL    HW267507   2.938  11.970   2.324 -0.4987  0.9238 -0.5281
51928SOL     OW67508   1.665   7.887   9.111 -0.2358  0.1617 -0.1715
51928SOL    HW167509   1.716   7.891   9.192 -1.3102  0.0675  0.5222
51928SOL    HW267510   1.698   7.961   9.059  0.3128  0.3521  0.4344
51929SOL     OW67511  12.654   9.930   6.894  0.0837 -0.0551 -0.3572
51929SOL    HW167512  12.678   9.983   6.818  1.2536 -1.2382 -0.8631
51929SOL    HW267513  12.737   9.900   6.930 -0.5169 -1.5596 -0.1198
51930SOL     OW67514   8.558   0.607   9.277 -0.5962  0.3143 -0.4175
51930SOL    HW167515   8.648   0.622   9.247 -0.1968  0.2775  0.7148
51930SOL    HW267516   8.504   0.660   9.218 -0.0202 -1.0373 -2.2700
51931SOL     OW67517   9.818   9.364  10.099  0.6592  0.2611 -0.1850
51931SOL    HW167518   9.778   9.439  10.055 -1.2781 -0.1498  0.7575
51931SOL    HW267519   9.814   9.293  10.034 -2.7018 -0.5015  0.6333
51932SOL     OW67520  12.538   5.203   1.071 -0.7019  0.4123  0.3441
51932SOL    HW167521  12.511   5.208   1.163 -0.6203  1.6721  0.3191
51932SOL    HW267522  12.617   5.148   1.072 -1.2478 -0.3833  0.8832
51933SOL     OW67523   5.929  12.695   8.796 -0.0359 -0.1089  0.2806
51933SOL    HW167524   5.989  12.707   8.722  0.7627 -0.5913  0.8337
51933SOL    HW267525   5.847  12.668   8.756  1.3352 -3.9405 -0.2980
51934SOL     OW67526   9.252   9.774  10.999 -0.2176 -0.4681  0.2548
51934SOL    HW167527   9.263   9.834  10.925 -1.2431 -0.3074  0.2206
51934SOL    HW267528   9.166   9.734  10.985 -0.6283 -0.1129  1.5876
51935SOL     OW67529   9.097   0.565   7.574  0.1886 -0.2935 -0.7411
51935SOL    HW167530   9.170   0.581   7.514  0.6163  0.2318 -0.0992
51935SOL    HW267531   9.120   0.483   7.618  0.7351  0.2240 -0.0502
51936SOL     OW67532   4.503   9.595   8.962 -0.4952  0.2429  0.1319
51936SOL    HW167533   4.416   9.602   9.000  0.3132 -0.2692  2.1712
51936SOL    HW267534   4.510   9.672   8.905 -2.3110  0.2015 -0.2227
51937SOL     OW67535   0.252   9.309  10.348  0.9114 -0.0891 -0.8308
51937SOL    HW167536   0.240   9.223  10.388  0.6512  0.7275  0.9343
51937SOL    HW267537   0.306   9.357  10.410  0.0605  1.4006 -1.2076
51938SOL     OW67538   3.631   0.819   9.026 -0.0348 -0.0702  0.2131
51938SOL    HW167539   3.623   0.725   9.010  0.3335 -0.2176  0.8495
51938SOL    HW267540   3.713   0.843   8.983 -0.2000 -0.0125 -0.0686
51939SOL     OW67541   0.437   2.957  13.040 -0.1711 -0.1573  0.2867
51939SOL    HW167542   0.486   3.009  13.103  0.4089 -1.5722  1.0401
51939SOL    HW267543   0.504   2.911  12.989 -0.6701 -0.1086 -0.4353
51940SOL     OW67544   2.046   4.779   5.502 -0.4531 -0.4178  0.3104
51940SOL    HW167545   2.112   4.714   5.525 -1.1967 -0.8907  1.1769
51940SOL    HW267546   2.095   4.849   5.458  0.2929 -1.7630 -1.0971
51941SOL     OW67547   5.295   9.094   2.453  0.0872  0.2175 -0.0263
51941SOL    HW167548   5.276   9.018   2.397  0.9158 -0.0935  0.1058
51941SOL    HW267549   5.345   9.153   2.398  1.6823 -0.4788  0.6093
51942SOL     OW67550   9.586  10.748  10.913  0.4684  0.4699 -0.3476
51942SOL    HW167551   9.569  10.753  10.819  1.6580 -0.7060 -0.6596
51942SOL    HW267552   9.682  10.742  10.919  0.3022 -2.9738  0.6986
51943SOL     OW67553  12.972   9.200   7.113  0.6922 -0.1496 -0.0583
51943SOL    HW167554  12.897   9.141   7.120  0.2785  0.5356  2.9258
51943SOL    HW267555  12.976   9.224   7.021 -0.2507 -3.3241 -1.0486
51944SOL     OW67556   2.387   1.373   8.929 -0.2026  0.6713  0.0612
51944SOL    HW167557   2.354   1.285   8.948  0.8309  0.7968  2.9606
51944SOL    HW267558   2.450   1.360   8.858  0.1479 -1.0064  0.6203
51945SOL     OW67559   0.841   0.182   2.586  0.2770  0.2007  0.0720
51945SOL    HW167560   0.770   0.211   2.643  0.7059  1.9494 -0.2271
51945SOL    HW267561   0.919   0.181   2.643  0.3455  0.0522 -0.0236
51946SOL     OW67562   1.666   3.401  12.634  0.1446  0.7284 -0.0131
51946SOL    HW167563   1.583   3.360  12.610 -0.6411  1.1343  1.8566
51946SOL    HW267564   1.648   3.447  12.716  2.0571  1.3760  0.1068
51947SOL     OW67565  10.953   9.487  13.397 -0.2174  0.1721 -0.3781
51947SOL    HW167566  10.971   9.545  13.471 -0.5673  0.1637 -0.2893
51947SOL    HW267567  11.023   9.507  13.334 -0.4811  0.8702 -0.4549
51948SOL     OW67568   0.653  12.539  10.100 -0.0540 -0.1570  0.5679
51948SOL    HW167569   0.655  12.554  10.006 -0.1639  0.7243  0.6909
51948SOL    HW267570   0.626  12.624  10.137  2.4074  0.3080  1.5388
51949SOL     OW67571   2.422   9.504  12.357 -1.0769  0.0518 -0.3554
51949SOL    HW167572   2.333   9.474  12.340 -1.2353 -0.0149  0.5795
51949SOL    HW267573   2.472   9.423  12.373 -0.3235 -0.1261 -3.0863
51950SOL     OW67574   0.748   0.015   7.668  0.4469 -0.0631 -0.7575
51950SOL    HW167575   0.811   0.023   7.739 -0.1508  0.4693 -0.2734
51950SOL    HW267576   0.793   0.049   7.591  0.7565  0.2891 -0.4232
51951SOL     OW67577   1.905   4.277   8.947  0.1025 -0.1735  0.3282
51951SOL    HW167578   1.834   4.324   8.993  0.8527  0.0152  1.3397
51951SOL    HW267579   1.937   4.214   9.012  3.1088  2.0348  1.1955
51952SOL     OW67580   8.650  12.852   3.723  0.8990 -0.4577  0.6620
51952SOL    HW167581   8.566  12.871   3.682  0.1235 -0.7981  2.0364
51952SOL    HW267582   8.714  12.895   3.666 -0.3592  1.6511  0.7197
51953SOL     OW67583   0.047  12.386   3.557 -0.0962  0.4543  0.2218
51953SOL    HW167584   0.002  12.404   3.475 -0.1641  0.9282  0.3575
51953SOL    HW267585  -0.021  12.351   3.615  0.4407 -2.2701 -0.6749
51954SOL     OW67586   4.785   8.066   6.309 -0.3370 -0.0039  0.1346
51954SOL    HW167587   4.818   8.140   6.360  1.1400 -0.6431  0.1415
51954SOL    HW267588   4.805   8.087   6.218 -1.7867  0.5282 -0.0913
51955SOL     OW67589  11.242   6.843  11.246 -0.0428  0.4856  0.4835
51955SOL    HW167590  11.325   6.856  11.291 -0.1369 -0.4325  0.9326
51955SOL    HW267591  11.258   6.877  11.157  1.4309 -1.3901 -0.0456
51956SOL     OW67592  12.492  13.006   2.716 -0.2065 -0.0630  0.1815
51956SOL    HW167593  12.417  12.948   2.712  0.2854 -0.6715 -0.5761
51956SOL    HW267594  12.565  12.953   2.682  1.0120 -0.1860  2.7244
51957SOL     OW67595   9.347   7.573   0.780  0.5128 -0.1379 -0.1852
51957SOL    HW167596   9.392   7.507   0.832 -1.4309 -2.0927 -0.8110
51957SOL    HW267597   9.416   7.633   0.751  2.3701 -1.8843  0.4339
51958SOL     OW67598  11.399   2.545  11.573 -0.5481 -0.1558  0.6400
51958SOL    HW167599  11.385   2.496  11.492  2.1730 -0.7504  0.4426
51958SOL    HW267600  11.374   2.634  11.551 -0.5056 -0.4389 -0.6629
51959SOL     OW67601   0.397  13.425   0.284 -0.2447 -0.2505  0.4042
51959SOL    HW167602   0.434  13.416   0.372 -0.3971 -0.8139  0.4192
51959SOL    HW267603   0.304  13.441   0.299  0.0530  1.7384  0.3794
51960SOL     OW67604   7.298   2.769   6.886  0.1596  0.8737 -0.3580
51960SOL    HW167605   7.308   2.816   6.969  1.0560  1.5864 -0.8479
51960SOL    HW267606   7.219   2.716   6.898 -0.3088  1.7396  0.5787
51961SOL     OW67607   0.704   9.896  10.286  0.3130  0.3983 -0.3669
51961SOL    HW167608   0.731   9.808  10.312  1.1418  0.4090 -1.1152
51961SOL    HW267609   0.636   9.882  10.219 -1.6935  0.3710  1.5681
51962SOL     OW67610  12.190   4.844   8.678  0.0975  0.4135 -0.1149
51962SOL    HW167611  12.285   4.842   8.672  0.1487 -1.2017  0.7336
51962SOL    HW267612  12.164   4.917   8.622  1.8606  1.3326  0.1791
51963SOL     OW67613   0.662   4.710   0.240 -0.2211 -0.0051  0.1277
51963SOL    HW167614   0.748   4.753   0.233  0.1284 -0.5316  1.0366
51963SOL    HW267615   0.623   4.746   0.319 -0.7802  0.1148 -0.1978
51964SOL     OW67616   1.280   7.123   2.242  0.1936  0.4305  0.2679
51964SOL    HW167617   1.330   7.195   2.281  0.1844  0.5711  0.0218
51964SOL    HW267618   1.195   7.161   2.220  0.5501  0.6308 -0.8333
51965SOL     OW67619   3.329  10.138   8.091  0.8382  0.1846  0.0475
51965SOL    HW167620   3.354  10.097   8.008  0.1880  0.0193 -0.0682
51965SOL    HW267621   3.278  10.071   8.136 -2.1988  1.5318 -1.0893
51966SOL     OW67622   7.058  13.065   6.828 -0.0118  0.2799 -0.4542
51966SOL    HW167623   7.091  13.105   6.747  1.6179 -1.9970 -0.9826
51966SOL    HW267624   7.123  13.088   6.894  1.1113 -1.6026 -0.8282
51967SOL     OW67625  12.182   2.177   1.549  0.2897  0.2254  0.2754
51967SOL    HW167626  12.233   2.096   1.546 -1.1629 -0.6839 -1.9409
51967SOL    HW267627  12.111   2.158   1.611 -0.1075 -0.2596 -0.3174
51968SOL     OW67628  12.939   4.968   3.617 -0.0457  0.4811  0.5392
51968SOL    HW167629  13.001   5.031   3.580 -0.4214  1.5960  1.7156
51968SOL    HW267630  12.853   5.002   3.592 -0.2296 -0.9105 -0.8583
51969SOL     OW67631   3.623   5.639   8.148  0.6330  0.1386  0.1858
51969SOL    HW167632   3.625   5.568   8.083 -0.1901 -0.0596  0.3609
51969SOL    HW267633   3.700   5.691   8.129  1.3079 -0.8565  0.0998
51970SOL     OW67634   8.401   3.322   2.424  0.1425  0.5105 -0.0317
51970SOL    HW167635   8.387   3.265   2.499  0.2897 -0.3186 -0.6268
51970SOL    HW267636   8.358   3.404   2.448  0.5091  0.3898  1.1097
51971SOL     OW67637   2.360   9.965   1.627 -0.0628 -0.0759  0.2604
51971SOL    HW167638   2.360   9.950   1.533 -1.8570 -0.3498  0.2809
51971SOL    HW267639   2.405  10.049   1.638  2.7940 -1.3863 -0.5408
51972SOL     OW67640   6.275   1.264   4.580  0.4366  0.6458 -0.5502
51972SOL    HW167641   6.285   1.200   4.510 -0.0874 -0.1590  0.0982
51972SOL    HW267642   6.208   1.227   4.637  3.1189 -0.3322  2.1818
51973SOL     OW67643   7.501  12.935   7.826  0.1888 -0.5594 -0.5555
51973SOL    HW167644   7.557  12.893   7.760  2.1751 -0.3711  0.9253
51973SOL    HW267645   7.466  12.862   7.877  1.0597 -0.5914  0.0162
51974SOL     OW67646   6.638   0.689   6.379 -0.2807  0.2121  0.0947
51974SOL    HW167647   6.637   0.702   6.474  1.2628 -0.9541  0.2972
51974SOL    HW267648   6.558   0.640   6.361  0.3640 -1.2787  1.0917
51975SOL     OW67649   2.827  13.269   8.617  0.3282  0.0368 -0.6633
51975SOL    HW167650   2.906  13.217   8.634  0.4109  0.3908  0.0880
51975SOL    HW267651   2.860  13.359   8.607  0.0717  0.1089 -0.8746
51976SOL     OW67652  11.689  12.921   7.655  0.2011  0.0739  0.2369
51976SOL    HW167653  11.630  12.980   7.702  0.3878 -0.3978  1.0776
51976SOL    HW267654  11.631  12.858   7.613  0.0291  0.5521 -0.2642
51977SOL     OW67655   5.281   6.279   7.303  0.4381 -0.1558  0.3888
51977SOL    HW167656   5.328   6.213   7.354  1.5939  0.8533  0.6624
51977SOL    HW267657   5.285   6.358   7.356 -1.8857 -0.0965  0.5616
51978SOL     OW67658   5.004   7.383   6.214  0.0256  0.0342 -0.2024
51978SOL    HW167659   5.041   7.364   6.127  0.7318  2.4146 -0.4976
51978SOL    HW267660   4.980   7.297   6.249  2.7704 -1.3408 -1.3972
51979SOL     OW67661   9.543   7.495   7.631 -0.0335 -0.2618  0.0142
51979SOL    HW167662   9.535   7.590   7.640  1.2797 -0.2716  1.6501
51979SOL    HW267663   9.479   7.460   7.693 -0.3555 -0.4586 -0.4229
51980SOL     OW67664   4.035  13.052  12.168 -0.0226  0.4490  0.3484
51980SOL    HW167665   4.077  12.983  12.220  1.4401  1.8877  1.1724
51980SOL    HW267666   4.041  13.131  12.223 -1.6584  1.2718 -0.5508
51981SOL     OW67667  13.553   9.951   6.695  0.2745 -0.6738 -0.2483
51981SOL    HW167668  13.637   9.996   6.689  0.1557 -0.1944  1.1788
51981SOL    HW267669  13.528   9.958   6.788 -2.9428  2.1589 -1.1149
51982SOL     OW67670   8.127   9.393   1.484 -0.2714  0.1197  0.3677
51982SOL    HW167671   8.220   9.384   1.466 -0.3102 -0.5310  0.4536
51982SOL    HW267672   8.101   9.474   1.439  0.0572 -0.3873 -0.7709
51983SOL     OW67673   0.682   2.142   4.189 -0.6213  0.5590 -0.3682
51983SOL    HW167674   0.718   2.096   4.113  0.4139  1.4725 -0.4522
51983SOL    HW267675   0.663   2.073   4.252  2.4318  0.0803  0.1678
51984SOL     OW67676  13.367   3.736   2.851 -0.2590 -0.5893  0.1001
51984SOL    HW167677  13.459   3.760   2.864 -0.1740  0.6891 -2.2543
51984SOL    HW267678  13.369   3.642   2.835  0.8314 -0.3856 -1.1246
51985SOL     OW67679   6.261  10.823   1.650  0.6941 -0.0686  0.3679
51985SOL    HW167680   6.298  10.910   1.637  0.4102  0.2239  1.4078
51985SOL    HW267681   6.224  10.800   1.565 -3.3260  2.7991  1.0228
51986SOL     OW67682   2.391   2.923   9.784  0.5113 -0.1685  0.0744
51986SOL    HW167683   2.350   2.948   9.701  5.1091 -0.5852 -2.6673
51986SOL    HW267684   2.419   3.006   9.822 -1.3189 -0.0019  1.1559
51987SOL     OW67685   1.629   2.263  11.432 -0.3951 -0.2871 -0.9112
51987SOL    HW167686   1.567   2.253  11.359 -1.2335 -0.4915 -0.1883
51987SOL    HW267687   1.590   2.213  11.503 -0.6830  1.6104  0.3425
51988SOL     OW67688   0.051   5.485   3.980 -0.2643 -0.3049  0.1754
51988SOL    HW167689   0.118   5.424   4.010 -1.7422 -1.5917  0.9465
51988SOL    HW267690   0.063   5.489   3.885  0.8518 -0.5603  0.2975
51989SOL     OW67691   4.705   2.049   7.503  0.3155 -0.4024  0.0636
51989SOL    HW167692   4.761   1.978   7.471  1.5771  0.1404  1.0144
51989SOL    HW267693   4.705   2.039   7.598  0.7478  1.0262  0.2282
51990SOL     OW67694   1.798   2.011   8.870 -0.1924 -0.0362  0.2023
51990SOL    HW167695   1.821   1.953   8.797 -1.9440 -3.4534  2.1322
51990SOL    HW267696   1.734   2.073   8.832  1.4097  0.4865 -1.8340
51991SOL     OW67697   0.780   6.869   2.010 -0.1764 -0.6029  0.2543
51991SOL    HW167698   0.763   6.885   1.917  2.4825 -2.1853 -0.6456
51991SOL    HW267699   0.737   6.785   2.027  3.3862 -2.9293 -1.1062
51992SOL     OW67700   0.979   8.313   7.797  0.2306  0.1683 -0.8023
51992SOL    HW167701   0.932   8.283   7.719 -0.0511 -0.7441 -0.2949
51992SOL    HW267702   0.955   8.405   7.806 -0.1946  0.1262 -1.4503
51993SOL     OW67703   1.190   5.092   6.489  0.5042  0.0820  0.4482
51993SOL    HW167704   1.148   5.164   6.536 -0.8072  0.3854 -1.1019
51993SOL    HW267705   1.259   5.062   6.548  0.5782  2.0861  1.4797
51994SOL     OW67706   0.918   1.017   9.033  0.2496 -0.0289  0.0282
51994SOL    HW167707   0.847   1.023   9.098 -1.0580  1.2147 -1.4092
51994SOL    HW267708   0.991   1.064   9.073 -0.1266 -0.3049  1.0690
51995SOL     OW67709   7.034   1.438   2.537  0.3093  0.2304  0.3016
51995SOL    HW167710   6.993   1.396   2.462  0.9328  0.2735 -0.0700
51995SOL    HW267711   7.085   1.510   2.499 -1.6206  2.0934  0.9848
51996SOL     OW67712   7.409  10.983  12.286  0.0300  0.1755 -0.2282
51996SOL    HW167713   7.432  11.075  12.289  1.2712 -0.1001 -0.7586
51996SOL    HW267714   7.413  10.959  12.194  0.4604 -0.5822 -0.0252
51997SOL     OW67715   0.655   6.634   7.354  0.3615  0.0751  0.1667
51997SOL    HW167716   0.587   6.636   7.287  0.3661  0.9043  0.1796
51997SOL    HW267717   0.706   6.555   7.334  0.2384  0.2004 -0.6833
51998SOL     OW67718   1.744  10.677   0.501 -0.2901 -0.2765  0.5494
51998SOL    HW167719   1.783  10.731   0.570 -0.1166 -0.7738  0.8446
51998SOL    HW267720   1.706  10.602   0.548  0.5599 -1.0515  0.0441
51999SOL     OW67721   9.125  11.242  12.890 -0.5813  0.1090  0.0824
51999SOL    HW167722   9.032  11.234  12.913 -0.3382 -0.5447  0.8447
51999SOL    HW267723   9.132  11.199  12.804 -1.0324  0.4288 -0.1191
52000SOL     OW67724   4.451  10.012   9.650 -0.1601 -0.1480  0.8066
52000SOL    HW167725   4.426  10.066   9.575 -0.7486 -0.3621  0.8465
52000SOL    HW267726   4.544  10.033   9.665 -0.6708  1.7434  1.5695
52001SOL     OW67727   3.515   2.168   5.888 -0.1972 -0.2516  0.6619
52001SOL    HW167728   3.531   2.100   5.823 -0.0936 -0.7599  1.2082
52001SOL    HW267729   3.503   2.248   5.837 -1.1332 -0.8188 -0.0291
52002SOL     OW67730   8.631   1.723   0.130 -0.0568  0.3457  0.5579
52002SOL    HW167731   8.585   1.655   0.081  0.0509  0.7431 -0.1141
52002SOL    HW267732   8.691   1.675   0.187  0.6762 -0.1203 -0.5604
52003SOL     OW67733   4.781   9.258   6.169  0.3338 -0.4732  0.1325
52003SOL    HW167734   4.716   9.272   6.100 -2.0405  0.0643  2.3291
52003SOL    HW267735   4.760   9.171   6.205 -0.2350  0.3326  1.8614
52004SOL     OW67736   1.976   1.537  11.503  0.2558  0.1358  0.0156
52004SOL    HW167737   1.982   1.444  11.522  1.1639  0.2682  0.4549
52004SOL    HW267738   1.979   1.543  11.408  0.9353 -0.2500  0.0072
52005SOL     OW67739   5.754  13.264   8.730 -0.2665 -0.0770  0.1837
52005SOL    HW167740   5.763  13.182   8.777 -0.7639 -0.4928 -0.4240
52005SOL    HW267741   5.819  13.259   8.660  1.0889  0.9207  1.3232
52006SOL     OW67742  10.842   3.850  10.984 -0.5814  0.2687  0.2176
52006SOL    HW167743  10.865   3.767  11.025 -1.1720  1.1993  2.5673
52006SOL    HW267744  10.860   3.916  11.051 -1.4462  1.9218 -1.0936
52007SOL     OW67745   1.935  10.704  13.214 -0.7065  0.0676 -0.6539
52007SOL    HW167746   1.980  10.685  13.132  2.2575  1.6403  0.4688
52007SOL    HW267747   1.940  10.623  13.264  1.7583  0.4269 -0.2331
52008SOL     OW67748   2.169  13.016   9.031 -0.1719  0.2276 -0.0129
52008SOL    HW167749   2.087  13.065   9.038  1.1680  2.5125  1.0425
52008SOL    HW267750   2.224  13.070   8.975  0.9021 -0.8654 -0.0521
52009SOL     OW67751  11.711   9.677  10.017 -0.4603 -0.1361 -0.1763
52009SOL    HW167752  11.713   9.625   9.936 -0.0851 -1.3293  0.5791
52009SOL    HW267753  11.620   9.703  10.027 -0.7000 -0.8490 -0.4515
52010SOL     OW67754   8.440  11.440   4.744  0.4232 -0.4590  0.1750
52010SOL    HW167755   8.491  11.496   4.686  1.6323 -1.2211  0.4733
52010SOL    HW267756   8.365  11.494   4.770  0.7349  0.4611 -0.7696
52011SOL     OW67757   9.117   3.185  12.565  0.1479  1.0323  0.0336
52011SOL    HW167758   9.181   3.225  12.506  0.2388 -1.3564 -1.6035
52011SOL    HW267759   9.042   3.245  12.563  0.1197  0.9930 -2.5913
52012SOL     OW67760   2.600   7.232   5.550  0.1169  0.4769 -0.0197
52012SOL    HW167761   2.569   7.152   5.592  2.8184  1.5718  4.7650
52012SOL    HW267762   2.528   7.295   5.561 -0.2681 -0.0400  0.4636
52013SOL     OW67763   7.726   5.215   3.536 -0.4678  0.1136  0.1229
52013SOL    HW167764   7.727   5.301   3.579 -0.5688  0.5843 -0.7883
52013SOL    HW267765   7.685   5.231   3.451 -0.3697 -0.8164 -0.1144
52014SOL     OW67766   2.324   3.182   1.349  0.0694  0.0764  0.1152
52014SOL    HW167767   2.365   3.132   1.279  0.7423 -1.4073  1.5066
52014SOL    HW267768   2.231   3.158   1.345  0.4737 -1.8584  1.1494
52015SOL     OW67769  10.918   4.802   0.546 -0.3586 -0.0430 -0.1337
52015SOL    HW167770  11.003   4.812   0.503 -1.4335  1.7772 -1.9897
52015SOL    HW267771  10.858   4.780   0.475 -1.7104  0.0855  0.9258
52016SOL     OW67772  10.366   4.489   1.866 -0.0190  0.0034 -0.2943
52016SOL    HW167773  10.398   4.416   1.919  0.7220  0.3173 -0.3058
52016SOL    HW267774  10.434   4.555   1.872 -2.0108  2.0500  2.3154
52017SOL     OW67775  10.040  10.744   2.854 -0.0779 -0.1671 -0.0040
52017SOL    HW167776  10.082  10.673   2.904  1.9350  0.0745 -1.2425
52017SOL    HW267777  10.070  10.824   2.897 -0.1608 -0.0097 -0.2418
52018SOL     OW67778   7.721   1.240   8.176 -0.0215 -0.1615  0.7743
52018SOL    HW167779   7.681   1.326   8.193  1.1007  0.4721  0.2788
52018SOL    HW267780   7.789   1.232   8.242 -0.5765 -0.9995  1.2624
52019SOL     OW67781  13.434   3.789   5.264  0.5127 -0.3770 -0.1081
52019SOL    HW167782  13.497   3.722   5.238  2.1321  0.2690  1.8896
52019SOL    HW267783  13.436   3.788   5.360 -2.4844 -0.2484  0.0730
52020SOL     OW67784   1.818   8.600   3.680  0.3225  0.1226 -0.7123
52020SOL    HW167785   1.903   8.615   3.639 -0.3437  0.4123 -2.0288
52020SOL    HW267786   1.767   8.553   3.614 -0.2987 -0.7538  0.3483
52021SOL     OW67787   7.808   2.468  12.049  0.0060 -0.0850  0.5591
52021SOL    HW167788   7.749   2.543  12.046 -0.7083 -0.4772  2.6030
52021SOL    HW267789   7.753   2.395  12.077  0.9684 -1.0554  0.0234
52022SOL     OW67790   7.090   1.458   4.148 -0.3240 -0.3351  0.2893
52022SOL    HW167791   7.097   1.370   4.109 -0.4966 -1.0336  1.7723
52022SOL    HW267792   7.011   1.496   4.109  1.0561  0.1522 -2.2077
52023SOL     OW67793   2.435  12.803   0.525  0.4541 -0.1765  0.2776
52023SOL    HW167794   2.404  12.779   0.438 -0.5207 -1.1518  0.8589
52023SOL    HW267795   2.530  12.809   0.517  0.7615 -3.7938 -0.0915
52024SOL     OW67796   1.409   6.336   7.128  0.1447 -0.3682 -0.4394
52024SOL    HW167797   1.449   6.312   7.212  0.9692  1.3553 -0.2764
52024SOL    HW267798   1.319   6.359   7.150 -0.0959 -1.4135 -0.2989
52025SOL     OW67799   5.196   6.474  11.002  0.1060  0.4831 -0.0117
52025SOL    HW167800   5.153   6.392  11.025  1.2041  0.0901  0.7343
52025SOL    HW267801   5.280   6.470  11.048  0.8451  1.3209 -1.2568
52026SOL     OW67802   1.589  12.513   2.151 -1.0134  0.1556  0.5252
52026SOL    HW167803   1.589  12.587   2.212 -1.0179 -0.3407  1.1424
52026SOL    HW267804   1.578  12.436   2.207  0.7955 -0.4677  0.1001
52027SOL     OW67805   5.057  11.555  12.187 -0.2567  0.9214  0.4068
52027SOL    HW167806   5.126  11.612  12.152  0.4257 -0.3569 -0.4386
52027SOL    HW267807   5.099  11.511  12.261  0.6094 -1.3918 -1.3410
52028SOL     OW67808  13.217  13.268  11.889  0.5517 -0.2034  0.1016
52028SOL    HW167809  13.140  13.310  11.928  0.0247 -1.1282  0.0692
52028SOL    HW267810  13.277  13.341  11.872 -0.4557  0.5775 -0.2155
52029SOL     OW67811   6.610   9.846   0.063  0.0149  0.1817  0.1181
52029SOL    HW167812   6.604   9.756   0.097  1.5757  0.8516  2.4177
52029SOL    HW267813   6.700   9.854   0.033  0.3223  1.3432  1.2371
52030SOL     OW67814   9.092   5.812   0.267 -0.3168 -0.2718  0.5565
52030SOL    HW167815   9.039   5.738   0.298 -0.5211 -0.5605 -0.4417
52030SOL    HW267816   9.146   5.835   0.343 -1.8035 -0.0101  1.5925
52031SOL     OW67817  13.245   5.051  11.404 -0.4447  0.1817 -0.0605
52031SOL    HW167818  13.178   5.107  11.445 -0.2676  0.1703  0.2426
52031SOL    HW267819  13.224   5.055  11.310 -0.5292  0.6301 -0.0255
52032SOL     OW67820   1.076  12.079   3.527  0.8230  0.5144 -0.4421
52032SOL    HW167821   1.044  12.145   3.465  1.2495  0.6532 -0.5192
52032SOL    HW267822   1.170  12.073   3.509  0.9568  0.5876  0.2200
52033SOL     OW67823   2.707   0.120  10.150  0.5503 -0.0102 -0.4522
52033SOL    HW167824   2.683   0.197  10.099 -0.0458  1.3582  1.7190
52033SOL    HW267825   2.624   0.075  10.166  0.7511 -0.5142 -0.8036
52034SOL     OW67826   6.257   4.835  11.717 -0.1844  0.0333  0.4266
52034SOL    HW167827   6.225   4.803  11.633  0.7300  0.2167 -0.0073
52034SOL    HW267828   6.252   4.930  11.711 -1.9171  0.0444  1.3249
52035SOL     OW67829  12.514   3.327   4.165 -0.5469  0.1739  0.7216
52035SOL    HW167830  12.543   3.270   4.236  0.2171 -1.2521 -0.6832
52035SOL    HW267831  12.583   3.394   4.158  0.2228 -0.6440  0.2796
52036SOL     OW67832   9.859   8.482   0.724 -0.2516 -0.1071  0.1201
52036SOL    HW167833   9.828   8.539   0.654  2.1037  0.3880 -0.6108
52036SOL    HW267834   9.896   8.541   0.789  0.4580 -0.7034  0.2725
52037SOL     OW67835  11.512  10.308   4.042 -0.2327 -0.2323  0.4376
52037SOL    HW167836  11.435  10.252   4.041 -0.0531 -0.5237  1.5822
52037SOL    HW267837  11.586  10.247   4.041  0.0510  0.0515 -2.1259
52038SOL     OW67838   6.823   7.407  10.891  0.1867  0.2035  0.2324
52038SOL    HW167839   6.815   7.405  10.795 -1.5083 -1.3538  0.3643
52038SOL    HW267840   6.749   7.459  10.920  0.2785  0.0557  0.7394
52039SOL     OW67841   1.969  13.063   8.807 -0.1396  0.2055  0.2874
52039SOL    HW167842   2.019  13.121   8.750 -0.5037  0.6417  0.4093
52039SOL    HW267843   2.024  13.054   8.885 -1.2852  2.6901  1.5035
52040SOL     OW67844   2.135  10.059   3.241  0.1376 -0.5407  0.0295
52040SOL    HW167845   2.201  10.003   3.200 -0.0569 -1.5718  1.0573
52040SOL    HW267846   2.185  10.120   3.296  0.3284  0.0179 -0.7559
52041SOL     OW67847  11.063  13.091   3.330 -0.2374 -0.0325  0.2155
52041SOL    HW167848  11.156  13.069   3.336 -0.0450  0.1269 -1.5126
52041SOL    HW267849  11.062  13.187   3.324 -0.5413 -0.0091  0.6923
52042SOL     OW67850  12.900   5.402  13.656 -0.4487  0.2000 -0.1706
52042SOL    HW167851  12.850   5.473  13.696  0.2079  0.8837 -0.5565
52042SOL    HW267852  12.851   5.380  13.577 -0.7059  0.1483  0.0003
52043SOL     OW67853   7.796  11.859   5.122 -0.1960  0.0555 -0.4143
52043SOL    HW167854   7.702  11.877   5.129  0.0867  1.1907  0.9468
52043SOL    HW267855   7.814  11.797   5.193  0.0617 -0.2802 -0.7688
52044SOL     OW67856   5.806   2.323   4.509  0.5178 -0.3878  0.2208
52044SOL    HW167857   5.767   2.299   4.425  0.8535  0.3971 -0.1777
52044SOL    HW267858   5.879   2.263   4.520  2.3106  1.2751 -1.4964
52045SOL     OW67859   9.498   6.433   8.294  1.0167 -0.2177 -0.3296
52045SOL    HW167860   9.543   6.390   8.366  0.0356  0.0521  0.4663
52045SOL    HW267861   9.533   6.523   8.295  1.5548 -0.4149 -0.6855
52046SOL     OW67862   3.202   3.562   8.767 -0.3973 -0.1491  0.0785
52046SOL    HW167863   3.217   3.520   8.851 -0.5680  0.2066  0.2845
52046SOL    HW267864   3.276   3.622   8.756 -1.2215  1.0326  0.7426
52047SOL     OW67865   2.607   8.844   7.678 -0.0478 -0.7840  0.1620
52047SOL    HW167866   2.512   8.838   7.667  0.0225 -0.2456 -0.9126
52047SOL    HW267867   2.641   8.835   7.589  0.9409 -1.4590  0.5972
52048SOL     OW67868   6.024   8.573   7.128  0.6163 -0.3664  0.3715
52048SOL    HW167869   6.016   8.643   7.063 -0.6501 -1.5728 -0.8635
52048SOL    HW267870   6.000   8.613   7.211  1.9635  1.1482  0.0827
52049SOL     OW67871   2.681   8.273  13.507  0.2073  0.2094  0.3501
52049SOL    HW167872   2.617   8.208  13.477  1.6022 -0.5269 -1.1490
52049SOL    HW267873   2.683   8.339  13.437 -0.0102  1.0618  1.1156
52050SOL     OW67874   9.091   8.858   5.738 -0.0607 -0.0568 -0.2689
52050SOL    HW167875   9.070   8.935   5.685  0.1922 -0.3379 -0.7833
52050SOL    HW267876   9.038   8.868   5.817  0.3356  0.8959 -0.1070
52051SOL     OW67877  12.874  11.978   0.194  0.4897 -0.1157 -0.0275
52051SOL    HW167878  12.941  11.912   0.177  0.4941  0.5571 -3.1814
52051SOL    HW267879  12.918  12.062   0.182 -0.5730  0.3651 -0.7275
52052SOL     OW67880  13.719  13.103  11.615  0.2855  0.3958 -0.0227
52052SOL    HW167881  13.689  13.141  11.533  0.2594 -1.4554 -0.9105
52052SOL    HW267882  13.707  13.173  11.680  0.4600  1.9419 -1.5911
52053SOL     OW67883  12.094   3.331   5.658  0.1596 -0.0751  0.0450
52053SOL    HW167884  12.082   3.418   5.696 -0.3033 -0.2456  0.2957
52053SOL    HW267885  12.047   3.273   5.717  0.0218 -0.4296 -0.4109
52054SOL     OW67886  11.789   8.462  10.798  0.2973 -0.8010 -0.4435
52054SOL    HW167887  11.742   8.381  10.777  0.8355 -1.0415 -0.7271
52054SOL    HW267888  11.865   8.433  10.849 -0.1891 -0.3581  0.5571
52055SOL     OW67889   3.451  11.014   3.535 -0.1268  1.0057  0.5050
52055SOL    HW167890   3.479  11.103   3.513 -0.3318  1.1403  0.7839
52055SOL    HW267891   3.356  11.020   3.544 -0.1686  0.7046  0.2829
52056SOL     OW67892   8.249   7.847   2.816  0.3204 -0.5412 -0.0052
52056SOL    HW167893   8.193   7.775   2.842 -0.6471  0.1213 -0.2044
52056SOL    HW267894   8.215   7.876   2.732  0.9252 -0.0961 -0.1094
52057SOL     OW67895  12.419   6.049  11.645 -0.2189 -0.0307  0.1365
52057SOL    HW167896  12.331   6.045  11.608  0.1152  1.1717 -0.8380
52057SOL    HW267897  12.465   5.974  11.607 -1.0207 -1.1579  1.2879
52058SOL     OW67898   3.847  10.888   7.911 -0.1485 -0.1382  0.5348
52058SOL    HW167899   3.901  10.820   7.870  0.6000 -0.1327  1.4710
52058SOL    HW267900   3.910  10.948   7.951 -0.8469 -0.5292  2.3039
52059SOL     OW67901  10.760  12.491  11.654  0.1287 -0.4749 -0.2413
52059SOL    HW167902  10.768  12.433  11.579  2.8287  1.1392 -1.3456
52059SOL    HW267903  10.732  12.575  11.617  1.4285  0.3273  0.5113
52060SOL     OW67904   1.223   4.783   4.615 -0.3863  0.1458  0.1783
52060SOL    HW167905   1.244   4.735   4.535 -2.3625 -1.0066  0.3091
52060SOL    HW267906   1.233   4.875   4.591  1.2325 -0.2237 -0.7174
52061SOL     OW67907   1.288   5.894   5.809  0.5351  0.1398 -0.3755
52061SOL    HW167908   1.288   5.967   5.871 -1.3280 -1.7052  1.9974
52061SOL    HW267909   1.198   5.889   5.777  0.8974 -0.4579 -1.3466
52062SOL     OW67910  12.492   5.890   7.997 -0.1836  0.2088 -0.1285
52062SOL    HW167911  12.499   5.859   8.087  1.6882  0.1156 -0.2540
52062SOL    HW267912  12.495   5.985   8.004 -0.3753  0.2110 -0.0737
52063SOL     OW67913   8.391   8.745  11.175 -0.4028 -0.0558 -0.4215
52063SOL    HW167914   8.399   8.701  11.090 -1.3920  1.0406 -1.1240
52063SOL    HW267915   8.438   8.689  11.236 -1.0893 -1.7480 -1.3819
52064SOL     OW67916   3.897  12.870   2.370 -0.7798  0.4149  0.2604
52064SOL    HW167917   3.816  12.905   2.332  0.6172  1.9163 -1.5105
52064SOL    HW267918   3.883  12.873   2.465 -2.6362  0.9787  0.0047
52065SOL     OW67919   7.915  10.845   0.947 -0.1785 -0.0818 -0.1301
52065SOL    HW167920   7.862  10.767   0.931 -0.2889 -0.0077 -0.1245
52065SOL    HW267921   7.976  10.848   0.874  0.8534 -1.0372  0.6537
52066SOL     OW67922   5.196   2.905   2.076 -0.2154 -0.0409 -0.1356
52066SOL    HW167923   5.251   2.936   2.148 -1.6379  0.4851  0.7558
52066SOL    HW267924   5.171   2.984   2.029 -2.6363  0.1208  1.2673
52067SOL     OW67925   9.581   7.979  10.696 -0.2941  0.1824 -0.4359
52067SOL    HW167926   9.560   8.027  10.776  0.2351  0.0278 -0.1952
52067SOL    HW267927   9.677   7.975  10.695 -0.2057  1.6935 -1.9719
52068SOL     OW67928  13.169   7.201  13.400  0.1784 -0.6077  0.3587
52068SOL    HW167929  13.180   7.138  13.329 -1.9940 -1.0029  0.2881
52068SOL    HW267930  13.162   7.148  13.479 -2.9960 -0.6826  0.1502
52069SOL     OW67931   3.219   7.939   3.826  0.2866  0.1674 -0.3795
52069SOL    HW167932   3.229   7.890   3.908 -0.4734  1.4618  0.5188
52069SOL    HW267933   3.199   7.872   3.760 -1.2933 -0.7054  0.9242
52070SOL     OW67934   6.970   2.445   9.165  0.0572 -0.2757 -0.0493
52070SOL    HW167935   7.013   2.386   9.227  0.4142 -0.8217 -0.7985
52070SOL    HW267936   6.974   2.399   9.082 -0.6756  0.3206 -0.4287
52071SOL     OW67937   4.863   1.602   2.575 -0.1766 -0.2366  0.2293
52071SOL    HW167938   4.952   1.636   2.565  0.0510 -0.4678  1.3956
52071SOL    HW267939   4.867   1.513   2.540 -0.1535  0.0324 -0.4664
52072SOL     OW67940  11.191  11.144   6.819  0.5680  0.3057 -0.1098
52072SOL    HW167941  11.186  11.082   6.746 -0.1759 -0.2799  0.4163
52072SOL    HW267942  11.100  11.169   6.835  0.7125  0.3109  0.7098
52073SOL     OW67943   8.546   9.055   1.320  0.7868  0.2228  0.0263
52073SOL    HW167944   8.630   9.011   1.313  2.5389  3.4016 -0.7227
52073SOL    HW267945   8.524   9.081   1.231  0.4631  1.8953  0.5634
52074SOL     OW67946  12.566   4.272   2.481 -0.2185 -0.1733  0.2898
52074SOL    HW167947  12.553   4.347   2.538  0.3542  0.2211 -0.0866
52074SOL    HW267948  12.480   4.254   2.444 -0.3813  0.2292  0.4725
52075SOL     OW67949   7.575  12.392  10.932  0.1955 -0.4738  0.1993
52075SOL    HW167950   7.616  12.350  10.856  1.1181 -1.1438  1.0308
52075SOL    HW267951   7.482  12.368  10.925  0.6201 -2.3961  0.4290
52076SOL     OW67952  10.367   9.021   0.890 -0.1324 -0.0250  0.4469
52076SOL    HW167953  10.310   8.957   0.846  1.2840 -0.3744 -1.0234
52076SOL    HW267954  10.309   9.091   0.918 -1.3873 -0.7734 -0.2127
52077SOL     OW67955   2.561   8.097   7.383 -0.3733  0.2695  0.0596
52077SOL    HW167956   2.468   8.076   7.388 -0.1913 -0.8509 -0.8183
52077SOL    HW267957   2.606   8.017   7.413  0.3180  0.6050 -0.0451
52078SOL     OW67958   5.508  13.706   4.136 -0.4982  0.1466 -0.6828
52078SOL    HW167959   5.464  13.670   4.213 -1.0363 -2.5739 -2.1587
52078SOL    HW267960   5.600  13.682   4.148 -0.2495  1.3232 -0.0704
52079SOL     OW67961   3.436   4.090   3.419  0.4380  0.4439  0.3847
52079SOL    HW167962   3.456   4.028   3.349  1.4541 -1.5241  2.2936
52079SOL    HW267963   3.470   4.174   3.387  1.1833 -0.4477 -1.3133
52080SOL     OW67964   3.077  10.476   8.615  0.3228 -0.8897  0.1971
52080SOL    HW167965   2.992  10.515   8.594 -0.3481 -1.7578  1.2292
52080SOL    HW267966   3.060  10.382   8.618  0.8848 -0.9595  2.2428
52081SOL     OW67967  11.644  13.648   1.344  0.3407 -0.3010 -0.4969
52081SOL    HW167968  11.571  13.592   1.317 -0.0915  0.2100 -0.3993
52081SOL    HW267969  11.604  13.734   1.361  0.9670 -0.0090 -0.4713
52082SOL     OW67970  12.713  13.263   9.690  0.2082 -0.5465  0.3955
52082SOL    HW167971  12.786  13.313   9.727  1.2855 -1.5790 -0.2421
52082SOL    HW267972  12.752  13.179   9.665 -1.2110 -1.1281  0.0352
52083SOL     OW67973   0.218   5.760   4.083  0.2362 -0.0860  0.4675
52083SOL    HW167974   0.255   5.764   4.170  0.5303  0.4304  0.3185
52083SOL    HW267975   0.194   5.668   4.071 -0.6209 -0.0039  1.4249
52084SOL     OW67976   7.304  10.254   8.736 -0.3803 -0.1750  0.0583
52084SOL    HW167977   7.316  10.322   8.669 -1.6017 -0.1191 -0.1124
52084SOL    HW267978   7.336  10.295   8.817 -2.8416  1.3474  0.3530
52085SOL     OW67979   3.556   0.539   0.594 -0.2733  0.6133  0.1307
52085SOL    HW167980   3.553   0.525   0.500 -1.8119  0.5916  0.1575
52085SOL    HW267981   3.563   0.452   0.632 -0.1994  0.5836  0.0479
52086SOL     OW67982  13.008   3.363   6.924  0.5960  0.7171  0.1221
52086SOL    HW167983  12.990   3.372   7.018  0.3425 -0.4469  0.1976
52086SOL    HW267984  12.933   3.405   6.882  0.9572  1.7006  0.4218
52087SOL     OW67985   2.507  12.579  10.382 -0.0020  0.1136  0.4017
52087SOL    HW167986   2.591  12.534  10.398  0.5057  0.7957 -0.2872
52087SOL    HW267987   2.450  12.510  10.347  0.0911 -0.4792  1.3683
52088SOL     OW67988   4.203  13.353   9.726  0.5040  0.3181  0.1165
52088SOL    HW167989   4.178  13.281   9.669  0.0762 -0.7619  1.6031
52088SOL    HW267990   4.287  13.384   9.690  2.1653 -2.7421  0.9700
52089SOL     OW67991   2.137  13.358   4.749 -0.1901  0.1965  0.8996
52089SOL    HW167992   2.104  13.360   4.660  0.9940 -1.6116  0.3619
52089SOL    HW267993   2.071  13.309   4.798 -0.4467  0.4685  0.8238
52090SOL     OW67994  13.620   3.426   2.164 -0.1744  0.6593  0.6491
52090SOL    HW167995  13.544   3.380   2.128 -0.8243  1.8193  0.4965
52090SOL    HW267996  13.622   3.510   2.118  0.4834  1.1410  1.5141
52091SOL     OW67997   9.122   3.682   2.726 -0.3571  0.3454  0.1732
52091SOL    HW167998   9.138   3.665   2.634 -1.4799 -0.6107  0.1295
52091SOL    HW267999   9.029   3.700   2.732 -0.0962  1.5726  0.9718
52092SOL     OW68000  10.151  12.596   9.962  0.0202  0.6387  0.0598
52092SOL    HW168001  10.215  12.650   9.916 -0.2367  0.4941 -0.4738
52092SOL    HW268002  10.140  12.519   9.906 -1.5118  1.2009 -0.4755
52093SOL     OW68003   3.249  12.535  12.814  0.2451 -0.9669 -0.0363
52093SOL    HW168004   3.300  12.465  12.772  1.3826  0.0879 -0.4706
52093SOL    HW268005   3.158  12.506  12.805  0.6332 -2.0382 -0.8649
52094SOL     OW68006   1.662   0.246   0.225  0.3910 -0.1713  0.5842
52094SOL    HW168007   1.574   0.271   0.254 -0.5753  0.1974 -2.2795
52094SOL    HW268008   1.711   0.328   0.222  0.6064 -0.2625  1.4371
52095SOL     OW68009  12.892  13.335  13.248 -0.2393 -0.2242  0.1438
52095SOL    HW168010  12.920  13.308  13.160 -0.5723 -0.3460  0.0741
52095SOL    HW268011  12.971  13.370  13.288 -0.0907 -0.1398 -0.2161
52096SOL     OW68012  12.043   1.563   4.685  0.9928  0.0969 -0.3895
52096SOL    HW168013  11.961   1.604   4.657  1.3276  2.8983  2.1827
52096SOL    HW268014  12.021   1.471   4.698 -1.0431  0.2653 -2.0976
52097SOL     OW68015   5.382   9.219   1.350 -0.1527  0.0365  0.1221
52097SOL    HW168016   5.372   9.142   1.405 -2.0754 -0.8809 -1.3649
52097SOL    HW268017   5.458   9.265   1.385  0.2095 -1.8046  1.9047
52098SOL     OW68018   1.095   7.847   6.311 -0.4461 -0.3987 -0.1868
52098SOL    HW168019   1.122   7.758   6.336 -0.7556 -0.0990  1.3412
52098SOL    HW268020   1.003   7.837   6.288 -0.6420 -0.3955  0.5549
52099SOL     OW68021   2.822   4.018   8.599  0.3851 -0.2196 -0.0814
52099SOL    HW168022   2.876   3.979   8.667  0.5846  1.1046  0.5468
52099SOL    HW268023   2.732   4.011   8.632  0.5125  0.7122  0.4711
52100SOL     OW68024  10.677   2.219   3.656 -0.2584  0.0862  0.5211
52100SOL    HW168025  10.586   2.216   3.628 -0.2253  1.5008  0.2119
52100SOL    HW268026  10.696   2.129   3.684 -0.9752 -0.8739 -1.8212
52101SOL     OW68027   0.124  13.427  13.091  0.2172 -0.8419 -0.7933
52101SOL    HW168028   0.177  13.385  13.024 -1.0557 -0.8682 -1.8161
52101SOL    HW268029   0.145  13.520  13.084  0.6558 -0.9358 -0.7077
52102SOL     OW68030   8.193   0.324   5.467 -0.1996  0.1843  0.0703
52102SOL    HW168031   8.135   0.261   5.424  0.3718 -1.1928  1.2318
52102SOL    HW268032   8.156   0.334   5.555  1.6756 -1.3459  1.1143
52103SOL     OW68033  12.838   5.075   9.169 -0.7951  0.0513 -0.1472
52103SOL    HW168034  12.883   5.046   9.089  0.2652 -1.4985  0.9692
52103SOL    HW268035  12.745   5.070   9.146 -0.5236 -0.5799 -1.2298
52104SOL     OW68036   2.218   5.386   9.559 -0.5367  0.3978  0.1501
52104SOL    HW168037   2.173   5.464   9.524 -0.7000  0.2921  0.1226
52104SOL    HW268038   2.231   5.405   9.652  1.1896  1.2950 -0.2339
52105SOL     OW68039  13.175  10.041   6.493 -0.0557  0.1143 -0.1623
52105SOL    HW168040  13.183  10.021   6.586  2.9779 -1.0146 -0.5373
52105SOL    HW268041  13.214  10.128   6.484  1.8401 -0.7315 -0.6056
52106SOL     OW68042   0.051   7.315   4.245 -0.3631  0.0501 -0.0846
52106SOL    HW168043   0.046   7.404   4.211  0.6266 -0.2108 -0.9559
52106SOL    HW268044  -0.008   7.315   4.320  2.9757  2.7256  2.8549
52107SOL     OW68045   5.850   3.184   7.186 -0.3378 -0.7200  0.4951
52107SOL    HW168046   5.927   3.225   7.226 -0.9266 -0.6489  1.5883
52107SOL    HW268047   5.885   3.138   7.110  0.6543  0.0425  0.4691
52108SOL     OW68048  10.321   2.952   8.282  0.0188  0.2138  0.2346
52108SOL    HW168049  10.302   3.045   8.269 -0.5573 -0.0759 -1.3133
52108SOL    HW268050  10.406   2.950   8.326  1.1775  1.4864 -1.7884
52109SOL     OW68051  13.244   9.075  10.978 -0.0389 -0.5843  0.1952
52109SOL    HW168052  13.192   9.015  10.923  2.1694 -0.8060 -1.8152
52109SOL    HW268053  13.313   9.106  10.920  0.2824  2.1168  1.8867
52110SOL     OW68054  11.986   8.382  10.957  0.1595  0.2584 -0.6742
52110SOL    HW168055  12.003   8.290  10.974 -1.3033  0.2284  0.8876
52110SOL    HW268056  12.045   8.429  11.016  1.1385  0.3564 -1.7028
52111SOL     OW68057   6.972   3.187   9.269  0.5845  0.0440 -0.0593
52111SOL    HW168058   6.960   3.212   9.360 -0.6877  1.8096 -0.6566
52111SOL    HW268059   7.018   3.103   9.273 -1.1251 -0.9015  2.2450
52112SOL     OW68060   8.502   1.306   0.783  0.4221 -0.3001  0.2550
52112SOL    HW168061   8.455   1.377   0.827 -0.3008  1.2093 -2.6413
52112SOL    HW268062   8.443   1.231   0.789 -0.3947  0.3373  0.3967
52113SOL     OW68063   8.417   8.177   1.144  0.2326 -0.2190  0.1429
52113SOL    HW168064   8.369   8.233   1.205  0.2752 -1.2886  1.1735
52113SOL    HW268065   8.416   8.226   1.061 -0.3948  0.9437  0.8159
52114SOL     OW68066  12.924  12.092   2.958 -0.8006 -0.3542  0.0291
52114SOL    HW168067  12.874  12.012   2.971 -0.7380 -0.6378 -1.3164
52114SOL    HW268068  12.919  12.108   2.864 -0.5642  1.0617  0.2352
52115SOL     OW68069  13.482   7.673  11.142  0.3705  0.5782 -0.0795
52115SOL    HW168070  13.526   7.753  11.114  1.2188  0.7158  1.4957
52115SOL    HW268071  13.547   7.604  11.131 -0.5210 -0.0375 -1.9153
52116SOL     OW68072  13.602   4.831  12.576 -0.3768  0.6625  0.5546
52116SOL    HW168073  13.633   4.922  12.583  1.9244 -0.0971  0.9815
52116SOL    HW268074  13.638   4.800  12.493 -1.5214  0.2455  0.1963
52117SOL     OW68075   5.697  11.025   0.197  0.7309 -0.0274  0.2181
52117SOL    HW168076   5.698  10.935   0.230 -0.9579  0.3340  1.3992
52117SOL    HW268077   5.710  11.079   0.275  1.7629  0.7613 -0.4867
52118SOL     OW68078  10.181  11.429   4.310 -0.3266  0.6105 -0.3563
52118SOL    HW168079  10.191  11.334   4.321  1.3089  0.5427 -1.9560
52118SOL    HW268080  10.109  11.438   4.247  0.6943  0.3120 -1.6097
52119SOL     OW68081   6.361  11.196   2.803  0.1635  0.3682  0.0326
52119SOL    HW168082   6.353  11.216   2.710  1.2365  0.4790 -0.0436
52119SOL    HW268083   6.338  11.103   2.810  0.6213  0.2198 -0.4230
52120SOL     OW68084   5.741   3.274  11.991  0.2175 -0.4559  0.2267
52120SOL    HW168085   5.680   3.293  12.062 -1.6737  1.2209 -1.7233
52120SOL    HW268086   5.696   3.207  11.939 -0.3649  1.2135 -1.5525
52121SOL     OW68087  12.862   2.059   1.834 -0.0426  0.3231 -0.3633
52121SOL    HW168088  12.846   2.134   1.777  0.1132 -0.4071 -1.4017
52121SOL    HW268089  12.777   2.016   1.842  0.1879 -0.2977 -1.1194
52122SOL     OW68090   6.632  10.475   5.242 -0.0885  0.2148 -0.5158
52122SOL    HW168091   6.654  10.553   5.192 -0.9217  1.1729  0.5705
52122SOL    HW268092   6.679  10.485   5.325 -1.2077  0.2080  0.1348
52123SOL     OW68093   0.053   1.544  11.809 -0.0162 -0.1271  0.0172
52123SOL    HW168094  -0.001   1.529  11.732 -0.3359 -1.9771  0.5511
52123SOL    HW268095   0.140   1.514  11.784  0.0135 -0.1914  0.1969
52124SOL     OW68096   9.079   9.221   5.268  0.4247 -0.4673 -0.0323
52124SOL    HW168097   9.074   9.280   5.343 -0.9676 -0.6375  0.0438
52124SOL    HW268098   9.030   9.266   5.199  0.2906 -1.0303 -0.3123
52125SOL     OW68099  11.597  10.211   7.316  0.0358 -0.0695  0.0582
52125SOL    HW168100  11.602  10.282   7.252 -0.6769  0.3896  0.5061
52125SOL    HW268101  11.531  10.151   7.280  0.3034 -0.2760 -0.0910
52126SOL     OW68102   6.710   8.972   4.491  0.2117  0.0852 -0.0021
52126SOL    HW168103   6.696   8.878   4.480  1.6697 -0.4107  1.8335
52126SOL    HW268104   6.796   8.979   4.532  0.3460  2.2672 -0.5467
52127SOL     OW68105   4.872   0.747  11.220  0.1980  0.1695 -0.0723
52127SOL    HW168106   4.868   0.720  11.312  0.0764  2.6380  0.7077
52127SOL    HW268107   4.958   0.790  11.212  0.1760  0.0338 -1.1027
52128SOL     OW68108   9.479   4.892   2.275 -0.5533  0.1153  0.0968
52128SOL    HW168109   9.466   4.943   2.355 -1.2394  0.9433 -0.5160
52128SOL    HW268110   9.568   4.858   2.282  0.2845  2.1736  0.1183
52129SOL     OW68111  10.516   7.666   8.483  0.0644 -0.0405  0.0636
52129SOL    HW168112  10.423   7.685   8.488  0.0938 -0.2267  2.2544
52129SOL    HW268113  10.545   7.709   8.403 -2.4463 -2.6002 -2.4373
52130SOL     OW68114  10.989   7.875   9.095  0.1665  0.3250  0.0605
52130SOL    HW168115  11.080   7.873   9.123  1.0217  0.1759 -2.4652
52130SOL    HW268116  10.991   7.847   9.003 -2.4964 -0.2369  0.0822
52131SOL     OW68117   3.257   4.124   4.186  0.1647  0.0218 -0.1823
52131SOL    HW168118   3.291   4.130   4.096  0.2372 -0.3406 -0.1778
52131SOL    HW268119   3.335   4.110   4.240  0.4898  2.9073  0.2576
52132SOL     OW68120  12.145   1.934   6.536 -0.4865 -0.3677 -0.3006
52132SOL    HW168121  12.119   1.883   6.459 -0.5837 -2.0648  0.8085
52132SOL    HW268122  12.209   1.880   6.581  0.4634  1.1133  0.2258
52133SOL     OW68123   9.141   9.982  12.784 -0.1204 -0.0591  0.4037
52133SOL    HW168124   9.194   9.946  12.855  0.6010 -0.2264 -0.2220
52133SOL    HW268125   9.196  10.048  12.743 -0.7614  0.4744  0.3707
52134SOL     OW68126  11.378   5.078   4.560  0.1789 -0.4655  0.3937
52134SOL    HW168127  11.466   5.056   4.529  0.6861  0.0982  1.4027
52134SOL    HW268128  11.375   5.046   4.650  0.2984  1.8242  1.2810
52135SOL     OW68129  11.295   3.650   3.137 -0.1556  0.2044 -0.1500
52135SOL    HW168130  11.207   3.636   3.174  0.0095  0.1394  0.2256
52135SOL    HW268131  11.336   3.564   3.142 -0.0470  0.2505 -0.2627
52136SOL     OW68132   8.408   9.792   2.887 -0.0626  0.8161  0.2557
52136SOL    HW168133   8.401   9.843   2.967  0.3294  1.0392  0.1542
52136SOL    HW268134   8.446   9.853   2.823  1.5261  0.0742  0.4460
52137SOL     OW68135  10.518   4.378   1.112 -0.4954 -0.5192  0.3034
52137SOL    HW168136  10.462   4.396   1.036 -0.2990  1.4620  0.5589
52137SOL    HW268137  10.603   4.355   1.074 -0.0218  1.7343 -0.1746
52138SOL     OW68138   9.734  12.732  12.688  0.2323 -0.3951 -0.3529
52138SOL    HW168139   9.657  12.784  12.664 -1.4763 -2.5187  0.1212
52138SOL    HW268140   9.729  12.655  12.631 -0.6271 -2.7207  2.5696
52139SOL     OW68141  13.606   2.828   6.979 -0.2782  0.1468 -0.1803
52139SOL    HW168142  13.698   2.855   6.972  0.2861 -1.6940 -0.5259
52139SOL    HW268143  13.579   2.812   6.888 -0.9062  0.5591 -0.0707
52140SOL     OW68144  12.390   0.313   5.185  0.2922 -0.2068 -0.6420
52140SOL    HW168145  12.302   0.312   5.148  0.5995  0.5364 -1.4159
52140SOL    HW268146  12.444   0.269   5.119  0.5195 -0.5834 -0.2098
52141SOL     OW68147   5.601  12.652  13.574  0.1597  0.6877 -0.1832
52141SOL    HW168148   5.687  12.668  13.613  0.8795 -1.7111 -0.6698
52141SOL    HW268149   5.619  12.629  13.483 -1.2760  2.9873 -1.1561
52142SOL     OW68150   3.531   4.960   6.562  0.0490 -0.4468 -0.1088
52142SOL    HW168151   3.540   4.882   6.507  1.8398  0.7482 -1.6582
52142SOL    HW268152   3.437   4.967   6.579 -0.3237 -2.0680 -1.2524
52143SOL     OW68153  13.425   5.347   3.515 -0.1505 -0.2702  0.4291
52143SOL    HW168154  13.394   5.275   3.460 -1.8352  0.3967  0.4366
52143SOL    HW268155  13.476   5.304   3.584  3.3569 -1.0538 -2.3222
52144SOL     OW68156   9.660  10.526   7.009 -1.0596 -0.6056 -0.1241
52144SOL    HW168157   9.652  10.620   7.029 -0.0397 -0.4904 -0.1866
52144SOL    HW268158   9.658  10.522   6.913 -0.1764 -0.5401 -0.1532
52145SOL     OW68159   1.587  11.741  10.961  0.0857 -0.4240  0.6995
52145SOL    HW168160   1.503  11.696  10.968 -0.4671  0.7691  2.7718
52145SOL    HW268161   1.576  11.802  10.888 -0.7111 -0.5695  0.6926
52146SOL     OW68162   5.623  10.927  11.724  0.2559 -0.2296  0.0017
52146SOL    HW168163   5.582  10.847  11.692  1.2638 -1.1117  0.8396
52146SOL    HW268164   5.597  10.932  11.816  0.4356  0.2521  0.0301
52147SOL     OW68165   1.520  11.382   5.559  0.2808 -0.1985  0.1254
52147SOL    HW168166   1.426  11.396   5.564 -0.4345 -2.5996 -3.2579
52147SOL    HW268167   1.538  11.318   5.627 -0.6375 -0.2296  0.3532
52148SOL     OW68168  12.852   4.946   0.348 -0.5051 -0.1346 -1.3198
52148SOL    HW168169  12.768   4.954   0.393 -0.2083  1.0620 -0.9596
52148SOL    HW268170  12.862   5.028   0.300  1.8157  1.0836  0.9908
52149SOL     OW68171  11.676   3.957   4.322  0.2721  0.3375  0.0839
52149SOL    HW168172  11.755   3.979   4.272 -0.9000  2.3428 -1.0075
52149SOL    HW268173  11.673   3.862   4.321  1.9652  0.2519 -0.9956
52150SOL     OW68174  11.595   5.314   2.395 -0.2875 -0.7099  0.2555
52150SOL    HW168175  11.592   5.350   2.307  0.3447 -0.7222  0.2215
52150SOL    HW268176  11.673   5.354   2.435 -1.3508  0.4154  1.3038
52151SOL     OW68177  12.043   1.480  11.925 -0.1267 -0.2730  0.1498
52151SOL    HW168178  11.997   1.512  12.003 -1.9212  0.0948 -0.9914
52151SOL    HW268179  12.038   1.385  11.932  0.3458 -0.2523  0.8232
52152SOL     OW68180   4.494  12.989   3.400 -0.1997  0.2802 -0.2182
52152SOL    HW168181   4.488  12.952   3.488 -0.5490  1.0949  0.1189
52152SOL    HW268182   4.409  12.969   3.360 -0.9728  1.9368  0.4881
52153SOL     OW68183  10.192   9.107   3.925  0.0043  0.1332  0.0174
52153SOL    HW168184  10.188   9.013   3.907  0.0541 -0.2770  1.9855
52153SOL    HW268185  10.177   9.115   4.019 -1.4044  2.2232 -0.3093
52154SOL     OW68186   4.224   8.419   4.742 -0.8939  0.2498 -0.5922
52154SOL    HW168187   4.157   8.483   4.766 -0.4766  0.2737  0.5571
52154SOL    HW268188   4.307   8.464   4.759 -0.5983 -0.5449  0.1338
52155SOL     OW68189   1.231   3.812   7.686 -0.1626 -0.1982 -0.2226
52155SOL    HW168190   1.155   3.817   7.629 -0.5791 -1.1840  0.2243
52155SOL    HW268191   1.299   3.770   7.633 -0.7334 -1.6630  0.1690
52156SOL     OW68192   4.108   0.402  12.393  0.2899 -0.2309  0.3639
52156SOL    HW168193   4.088   0.443  12.309  2.5749  0.2479 -0.0156
52156SOL    HW268194   4.079   0.465  12.459 -1.4251 -0.5656 -0.0299
52157SOL     OW68195  11.696   2.273  11.647 -0.6699 -0.2910 -0.3685
52157SOL    HW168196  11.738   2.284  11.732 -1.1917  0.9249 -0.2511
52157SOL    HW268197  11.765   2.294  11.583 -0.7145  0.4061 -0.2000
52158SOL     OW68198   7.145   2.160   1.943  0.0716  0.1628  0.2523
52158SOL    HW168199   7.162   2.114   2.025 -0.4727  0.6743  0.6634
52158SOL    HW268200   7.140   2.091   1.877  3.1302 -0.1007  0.1490
52159SOL     OW68201   8.377  13.075  13.138 -0.4747  0.2725  0.5308
52159SOL    HW168202   8.430  13.151  13.113  0.3638 -0.8012 -1.1564
52159SOL    HW268203   8.441  13.004  13.146 -1.4292 -0.6292  0.3462
52160SOL     OW68204   0.009   3.736  10.931  0.2399 -0.1189 -0.2620
52160SOL    HW168205   0.033   3.733  11.023 -2.0135  0.5909  0.4084
52160SOL    HW268206   0.000   3.829  10.911  1.8450 -0.1985 -1.5625
52161SOL     OW68207  11.131   7.292   9.135  0.1538 -0.4704  0.0167
52161SOL    HW168208  11.122   7.376   9.180 -0.4993  0.6390 -2.0645
52161SOL    HW268209  11.059   7.239   9.168 -0.9337  0.6779 -0.4052
52162SOL     OW68210  13.133   4.109   7.317  0.1719  0.7068  0.0055
52162SOL    HW168211  13.123   4.014   7.316  0.9328  0.6212  0.2916
52162SOL    HW268212  13.162   4.130   7.406  0.7203  1.1295 -0.2674
52163SOL     OW68213   9.571   0.061   9.028 -0.3096  0.0068 -0.2952
52163SOL    HW168214   9.624   0.124   8.979 -1.7258  0.9147 -0.7450
52163SOL    HW268215   9.597  -0.024   8.994  0.2440  0.4867 -1.1060
52164SOL     OW68216  10.787   6.800   0.670 -0.2477  0.4283 -0.0566
52164SOL    HW168217  10.712   6.820   0.726 -1.1058  0.1907 -1.0861
52164SOL    HW268218  10.786   6.704   0.661 -1.1080  0.5607 -1.7583
52165SOL     OW68219   8.595  11.656   2.156 -0.1031 -0.5157  0.7494
52165SOL    HW168220   8.621  11.748   2.169  0.7081 -1.0464  3.6243
52165SOL    HW268221   8.509  11.662   2.114 -0.2303  1.5875  1.1601
52166SOL     OW68222  11.659   9.712   2.075  0.5473 -0.6577 -0.1117
52166SOL    HW168223  11.718   9.671   2.139  1.9918 -0.3922 -1.2318
52166SOL    HW268224  11.633   9.640   2.018 -0.8399 -0.9183  0.7974
52167SOL     OW68225   5.452  11.714  13.107  0.6155  0.5372  0.3357
52167SOL    HW168226   5.364  11.732  13.074  1.2375  0.9439 -1.1837
52167SOL    HW268227   5.443  11.632  13.157 -0.3547 -0.2056 -1.0086
52168SOL     OW68228   9.529  10.475  11.033 -0.3912  0.0741 -0.2049
52168SOL    HW168229   9.533  10.563  10.996 -0.8527 -0.1338 -0.7809
52168SOL    HW268230   9.457  10.433  10.985  0.2604 -0.8260 -0.4211
52169SOL     OW68231  13.731   2.693   3.316 -0.1409  0.4007  0.4192
52169SOL    HW168232  13.736   2.779   3.275 -3.9784  0.7764  0.3392
52169SOL    HW268233  13.731   2.632   3.243 -1.6215  0.6889  0.1507
52170SOL     OW68234  10.690   7.114   0.310  0.1476 -0.2348 -0.0197
52170SOL    HW168235  10.761   7.095   0.372  0.6381  1.9054  0.1775
52170SOL    HW268236  10.614   7.131   0.366  0.4904  1.2973  0.0271
52171SOL     OW68237   9.796   5.577   3.928  0.5567 -0.7184  0.2955
52171SOL    HW168238   9.850   5.571   3.849  0.6549  0.1241  0.2906
52171SOL    HW268239   9.816   5.663   3.964  0.5929 -1.1426  1.3033
52172SOL     OW68240   9.317   9.447   5.872 -0.1333  0.1870 -0.7449
52172SOL    HW168241   9.343   9.537   5.894 -1.8275  0.1412  1.8767
52172SOL    HW268242   9.227   9.456   5.840 -0.9413 -0.6714  1.1497
52173SOL     OW68243   1.226  10.835   2.124  0.0835  0.6128  0.3890
52173SOL    HW168244   1.306  10.871   2.161  0.3459  0.1118  0.3095
52173SOL    HW268245   1.245  10.825   2.030  0.5791 -1.2330  0.6593
52174SOL     OW68246   4.544   2.187   4.507 -0.6247  0.0066  0.1049
52174SOL    HW168247   4.568   2.243   4.434  1.4483  1.5188  1.7887
52174SOL    HW268248   4.589   2.104   4.490  2.0313  1.1856  0.7746
52175SOL     OW68249   8.911   6.753   9.802 -0.5737 -0.5327 -0.2309
52175SOL    HW168250   8.879   6.830   9.755  0.6882 -1.0395 -2.0340
52175SOL    HW268251   8.872   6.760   9.890 -1.1955  1.6652 -0.6275
52176SOL     OW68252  11.209   7.495   5.827  0.6566 -0.3384  0.0649
52176SOL    HW168253  11.191   7.456   5.741  0.6078 -0.9069  0.3297
52176SOL    HW268254  11.124   7.501   5.869  0.8576 -1.4324  0.6462
52177SOL     OW68255   9.624  13.693   0.312  0.4687  0.1035 -0.4818
52177SOL    HW168256   9.711  13.732   0.311  0.5541 -0.0520  0.3193
52177SOL    HW268257   9.638  13.602   0.338  0.0725  0.0609 -0.4078
52178SOL     OW68258  11.294  13.342   3.515  0.1223  0.0426  0.6059
52178SOL    HW168259  11.341  13.286   3.453 -1.8688  0.1120 -1.0766
52178SOL    HW268260  11.274  13.285   3.588  2.6285 -0.0198  1.3572
52179SOL     OW68261   4.975  12.815   5.162 -0.2575  0.1929  0.7359
52179SOL    HW168262   4.952  12.747   5.225 -1.0548 -0.8832 -0.6506
52179SOL    HW268263   5.069  12.804   5.148 -0.1375  0.2305  1.4626
52180SOL     OW68264   8.658   0.973   9.112  0.0159  0.3191 -0.3818
52180SOL    HW168265   8.714   0.896   9.122 -1.4053 -0.6299  0.6530
52180SOL    HW268266   8.610   0.978   9.195 -0.5327  1.8346 -0.7655
52181SOL     OW68267  10.248   8.673  10.727  0.0294  0.1260  0.2230
52181SOL    HW168268  10.176   8.709  10.675  0.6641  0.5118 -0.4081
52181SOL    HW268269  10.326   8.716  10.692  0.3398  1.7267  2.6159
52182SOL     OW68270   9.943   9.242   7.701  0.2612 -0.4193 -0.0193
52182SOL    HW168271  10.031   9.273   7.680  0.8010 -1.1959  1.0154
52182SOL    HW268272   9.906   9.309   7.759  0.7107 -0.7611  0.6758
52183SOL     OW68273   8.337   7.924   5.936 -0.3548  0.4232  0.5421
52183SOL    HW168274   8.379   7.949   5.854  0.5115 -0.3906  0.7221
52183SOL    HW268275   8.319   7.830   5.927 -0.9945  0.4928  0.9681
52184SOL     OW68276   5.454   9.595  11.769  0.2490  0.1287  0.5662
52184SOL    HW168277   5.437   9.669  11.827 -2.1067  0.4074 -0.3840
52184SOL    HW268278   5.542   9.566  11.793  1.1451  3.0163  1.1615
52185SOL     OW68279  10.755  11.206   2.455 -0.5613  0.3222  0.4158
52185SOL    HW168280  10.736  11.160   2.373  0.4225 -0.7409  0.7705
52185SOL    HW268281  10.720  11.294   2.441  1.3484  0.8070 -1.9155
52186SOL     OW68282   6.313  10.450  13.411 -0.0314 -0.2182  0.1286
52186SOL    HW168283   6.228  10.488  13.390 -0.1683 -1.2710 -1.3782
52186SOL    HW268284   6.374  10.493  13.351 -0.0838 -1.8247 -1.1426
52187SOL     OW68285   1.135   7.848   8.584  0.7566 -0.0762 -0.2330
52187SOL    HW168286   1.210   7.864   8.641 -0.8414  2.4047  1.3904
52187SOL    HW268287   1.081   7.786   8.632  0.7306 -0.1573 -0.3673
52188SOL     OW68288   6.108   2.900   1.615 -0.2679  0.1088 -0.3467
52188SOL    HW168289   6.157   2.818   1.600 -0.3155 -0.1622  0.8855
52188SOL    HW268290   6.174   2.969   1.602 -0.4912 -0.0227 -2.5469
52189SOL     OW68291   8.229   2.218  12.771 -0.2305  0.1416  0.2148
52189SOL    HW168292   8.179   2.176  12.840 -1.1133  0.3275 -0.2950
52189SOL    HW268293   8.251   2.304  12.807 -1.6173  0.6577 -0.1228
52190SOL     OW68294   9.076  11.796   1.317 -0.4194 -0.6778  0.3827
52190SOL    HW168295   9.057  11.793   1.411 -1.2003 -0.1963  0.2546
52190SOL    HW268296   9.001  11.843   1.279  0.1367 -0.4060 -0.4141
52191SOL     OW68297   6.689  11.700   6.867 -0.2240 -0.0599 -0.3588
52191SOL    HW168298   6.737  11.783   6.865 -2.2906  1.2453  0.8711
52191SOL    HW268299   6.739  11.643   6.808 -0.7472  3.1601 -4.4508
52192SOL     OW68300   0.633   1.035   4.000 -0.3263  0.1516  0.2996
52192SOL    HW168301   0.640   1.059   4.092  0.1027  1.3932 -0.0281
52192SOL    HW268302   0.723   1.044   3.967 -0.4334 -0.5253 -0.1805
52193SOL     OW68303   4.416   3.974   6.427 -1.0385  0.2657  0.6458
52193SOL    HW168304   4.374   3.919   6.493 -1.4191 -0.1756  0.0480
52193SOL    HW268305   4.390   4.063   6.450 -0.9268  0.1520  1.2535
52194SOL     OW68306   4.673  13.133  11.727  0.5738 -0.1539  0.4846
52194SOL    HW168307   4.735  13.120  11.799  0.1881 -0.8081  0.7047
52194SOL    HW268308   4.726  13.121  11.648  0.7843 -0.4371  0.6684
52195SOL     OW68309   9.549   8.111   6.224 -0.0646  0.1587  0.0352
52195SOL    HW168310   9.623   8.076   6.176 -0.2723  1.4016 -1.2613
52195SOL    HW268311   9.557   8.074   6.312  1.7655 -0.1479 -0.2317
52196SOL     OW68312   3.646  10.843  11.937  0.4359 -0.2254  0.3345
52196SOL    HW168313   3.660  10.930  11.976  1.6009 -0.4922  0.5468
52196SOL    HW268314   3.596  10.795  12.003  1.3385 -0.2746  1.0033
52197SOL     OW68315   5.401   1.662   5.825  0.2495 -0.1140 -0.0427
52197SOL    HW168316   5.476   1.603   5.819  2.2679  2.4090 -1.7656
52197SOL    HW268317   5.436   1.742   5.866 -1.6717  0.8807 -0.1993
52198SOL     OW68318  11.750   0.413  12.695  0.0903  0.5666  0.7112
52198SOL    HW168319  11.815   0.349  12.724  0.1461  0.1909 -0.2290
52198SOL    HW268320  11.802   0.489  12.667  0.0793  0.5728  0.7070
52199SOL     OW68321  13.178   6.818  13.132 -0.3554 -0.5258  0.0310
52199SOL    HW168322  13.111   6.885  13.146  1.1372  0.8617  0.9765
52199SOL    HW268323  13.202   6.827  13.040 -2.2413 -1.8603 -0.6536
52200SOL     OW68324   7.193   0.801  13.577 -0.0690 -0.3405 -0.0801
52200SOL    HW168325   7.146   0.726  13.613 -0.1760 -0.1146  0.2487
52200SOL    HW268326   7.279   0.799  13.619 -0.0845 -0.2556 -0.0438
52201SOL     OW68327   0.557  11.693   8.274 -0.1357  0.3323  0.2130
52201SOL    HW168328   0.634  11.746   8.292 -0.9220  1.2530  0.9362
52201SOL    HW268329   0.503  11.702   8.352 -0.2977 -1.5471  0.3737
52202SOL     OW68330  12.889   1.095  13.299 -0.6749 -0.8084  0.1547
52202SOL    HW168331  12.940   1.070  13.376 -1.5582 -1.3861  0.5718
52202SOL    HW268332  12.871   1.012  13.254 -0.4157 -0.5046 -0.5207
52203SOL     OW68333  13.626   2.482  10.707  0.3313  0.4772  0.1237
52203SOL    HW168334  13.594   2.496  10.617 -0.1312  0.3855  0.2697
52203SOL    HW268335  13.621   2.387  10.719 -0.8466  0.5850  0.6832
52204SOL     OW68336   0.959   4.164  12.437  0.0559 -0.2402  0.4095
52204SOL    HW168337   0.878   4.165  12.386  0.1118  0.6379  0.3185
52204SOL    HW268338   1.016   4.227  12.392  0.7490 -0.7737  0.5331
52205SOL     OW68339  13.743   8.480   5.392 -0.6288  0.3651 -0.5020
52205SOL    HW168340  13.752   8.416   5.463  0.3530 -0.7164 -1.5404
52205SOL    HW268341  13.762   8.564   5.433  0.6541 -0.3138  0.3901
52206SOL     OW68342   1.758   4.030   8.757  0.0294 -0.6555  0.4719
52206SOL    HW168343   1.745   4.101   8.694 -0.6184 -0.2838  1.0184
52206SOL    HW268344   1.744   4.070   8.842 -0.5620 -1.4863  0.7786
52207SOL     OW68345   3.129   5.655  11.669  0.1708  0.1504 -0.4611
52207SOL    HW168346   3.123   5.745  11.702  1.9990  0.0335  0.3418
52207SOL    HW268347   3.134   5.601  11.748 -0.1651 -0.5985 -0.9422
52208SOL     OW68348   2.624   7.015  12.553  0.5993  0.0403 -0.2906
52208SOL    HW168349   2.708   7.029  12.510 -0.0965  0.4356 -1.5837
52208SOL    HW268350   2.598   6.927  12.528  0.5752 -0.0307 -0.0104
52209SOL     OW68351   7.555   0.301   2.764 -0.2771 -0.1268 -0.1306
52209SOL    HW168352   7.511   0.365   2.708 -0.5316  1.0009  1.2754
52209SOL    HW268353   7.647   0.308   2.743 -0.3617  0.3544 -0.3413
52210SOL     OW68354   1.549   0.307   3.802 -0.2390  0.3228  0.0809
52210SOL    HW168355   1.506   0.383   3.843 -0.2441  0.8287 -0.8280
52210SOL    HW268356   1.530   0.234   3.862 -1.3317  0.7788  0.3298
52211SOL     OW68357   5.391   5.057   6.455 -0.5725 -0.5212  0.1394
52211SOL    HW168358   5.328   5.035   6.524 -1.0105  1.9489  0.6178
52211SOL    HW268359   5.419   5.146   6.477  0.7300 -0.4078 -1.8306
52212SOL     OW68360  12.267  10.692  11.331 -0.0969 -0.3828  0.1616
52212SOL    HW168361  12.172  10.690  11.341 -0.3432  0.1883 -1.7727
52212SOL    HW268362  12.281  10.715  11.239  1.9106 -1.5919  0.1186
52213SOL     OW68363  11.653   7.642   4.695 -0.1185 -0.0133 -0.4634
52213SOL    HW168364  11.637   7.654   4.788 -0.3790 -0.3900 -0.4581
52213SOL    HW268365  11.719   7.573   4.690  0.8173  0.8501 -0.5234
52214SOL     OW68366   9.549   4.174   1.963 -0.1310 -0.1825 -0.2800
52214SOL    HW168367   9.589   4.231   1.897  1.3628 -1.9051 -0.9435
52214SOL    HW268368   9.520   4.097   1.914 -3.5276  0.5420  0.3385
52215SOL     OW68369   1.528   8.818  10.611 -0.0659  0.3869  0.6091
52215SOL    HW168370   1.567   8.891  10.563 -2.8318  1.5197 -0.0587
52215SOL    HW268371   1.587   8.805  10.686  1.4042  2.1559 -0.1662
52216SOL     OW68372   5.366   6.761   7.759  0.0761 -0.6939 -0.1683
52216SOL    HW168373   5.368   6.730   7.849  0.0271  0.5404  0.2732
52216SOL    HW268374   5.273   6.770   7.739  0.1056  0.0577  0.0257
52217SOL     OW68375   8.411   9.355   1.442 -0.0509  0.4200  0.1503
52217SOL    HW168376   8.436   9.369   1.351 -0.7662 -1.6603 -0.4296
52217SOL    HW268377   8.475   9.292   1.476 -0.4755  0.2711  0.6972
52218SOL     OW68378   0.313   2.427  12.246 -0.2430 -0.1438  0.1027
52218SOL    HW168379   0.394   2.419  12.296  0.0745 -1.2241 -0.5588
52218SOL    HW268380   0.320   2.512  12.203  1.2648 -0.8580 -1.1674
52219SOL     OW68381  13.452   9.322  13.545 -0.1503  0.0885 -0.4939
52219SOL    HW168382  13.467   9.317  13.640 -0.8434  0.5498 -0.3546
52219SOL    HW268383  13.379   9.382  13.535 -0.5116 -0.4610 -1.2850
52220SOL     OW68384   4.705   9.489   9.104 -0.8688 -0.3331  0.0282
52220SOL    HW168385   4.771   9.494   9.035 -0.8834  1.4684  0.0985
52220SOL    HW268386   4.636   9.549   9.076 -1.7518 -0.9780  0.7365
52221SOL     OW68387  13.028  11.830  12.715 -0.0255  0.4969 -0.4399
52221SOL    HW168388  13.013  11.772  12.640  0.1687  0.3032 -0.3292
52221SOL    HW268389  13.002  11.916  12.683  1.4605  0.6922 -1.2350
52222SOL     OW68390   4.514   9.425   4.790 -0.3821  0.3030  0.1542
52222SOL    HW168391   4.522   9.420   4.695  0.5413  0.2987  0.2191
52222SOL    HW268392   4.547   9.341   4.822 -0.0275  0.5659  0.5003
52223SOL     OW68393   2.140   5.695   4.774 -0.3738  0.0675  0.1693
52223SOL    HW168394   2.158   5.688   4.868  3.4170  1.1144 -0.3468
52223SOL    HW268395   2.115   5.606   4.748 -1.5863 -0.2186  2.1127
52224SOL     OW68396  11.749   5.026  13.004 -0.0821  0.6697 -0.2036
52224SOL    HW168397  11.741   4.963  13.075 -2.2375 -0.3396 -1.2394
52224SOL    HW268398  11.760   5.110  13.047 -2.2546  0.2130  1.4012
52225SOL     OW68399   3.156   7.626   4.356 -0.4537 -0.2821 -0.2364
52225SOL    HW168400   3.164   7.719   4.379  1.4527  0.0784 -1.9926
52225SOL    HW268401   3.081   7.595   4.406 -0.8253  2.0732  0.8106
52226SOL     OW68402   9.171   5.031   4.168 -0.2377  0.3077  0.3172
52226SOL    HW168403   9.101   4.968   4.153  1.3425 -1.7586  0.9989
52226SOL    HW268404   9.130   5.103   4.215 -2.3778  0.3974 -1.5731
52227SOL     OW68405  12.251   8.795  12.090 -0.1277  0.3120  0.2457
52227SOL    HW168406  12.208   8.846  12.158  2.0669 -0.3848  2.3056
52227SOL    HW268407  12.242   8.705  12.118 -2.7631 -0.4802 -2.6429
52228SOL     OW68408  13.673   0.910   4.116  0.3134 -0.2120  0.5280
52228SOL    HW168409  13.732   0.848   4.073  1.1928 -0.3471  1.8589
52228SOL    HW268410  13.731   0.977   4.151 -0.5640  0.9713 -0.2198
52229SOL     OW68411   4.438   0.866  11.855 -0.1966 -0.1334 -0.3083
52229SOL    HW168412   4.450   0.868  11.950  0.5702 -2.1824 -0.3201
52229SOL    HW268413   4.494   0.937  11.822  0.8630 -0.4795  0.6749
52230SOL     OW68414   8.655  12.252   3.201 -0.3075  0.4907  0.1919
52230SOL    HW168415   8.653  12.260   3.105  0.6047 -0.7724  0.0478
52230SOL    HW268416   8.576  12.298   3.230 -0.6084  0.8843 -1.1605
52231SOL     OW68417   1.881  10.526   3.778  0.1772 -0.8812  0.5741
52231SOL    HW168418   1.951  10.516   3.714  0.4590 -1.3261  0.9537
52231SOL    HW268419   1.825  10.449   3.766 -0.9555  0.0523 -0.5692
52232SOL     OW68420   7.291   2.297   1.766  0.1249 -0.2103  0.3547
52232SOL    HW168421   7.254   2.285   1.853  0.7979  2.1953  1.0331
52232SOL    HW268422   7.334   2.382   1.769 -1.3494  0.7941 -2.8792
52233SOL     OW68423   9.869   4.996  10.559 -0.4709 -0.0230 -0.3052
52233SOL    HW168424   9.927   5.063  10.523  1.3692 -0.2044  2.0373
52233SOL    HW268425   9.824   5.039  10.631 -0.5151 -0.8494  0.1727
52234SOL     OW68426   7.438  12.981   4.012 -0.0539  0.3014 -0.0008
52234SOL    HW168427   7.443  12.888   4.031 -1.7385  0.1113 -0.3694
52234SOL    HW268428   7.351  12.994   3.975 -0.3736  2.2415  1.2865
52235SOL     OW68429  10.395   8.942   3.775 -0.0920  0.1788 -0.3536
52235SOL    HW168430  10.334   8.988   3.717 -1.4574 -1.2225 -0.1101
52235SOL    HW268431  10.481   8.956   3.736 -0.6595  1.4976 -1.2057
52236SOL     OW68432  13.735  13.676   1.428 -0.1593 -0.0576  0.0541
52236SOL    HW168433  13.702  13.598   1.473  0.4120 -0.6358 -0.5123
52236SOL    HW268434  13.706  13.665   1.337  1.3254 -0.4316 -0.3911
52237SOL     OW68435  12.446   6.090   8.307 -0.6102  0.0556 -0.5321
52237SOL    HW168436  12.467   6.133   8.224 -0.7357  1.7019  0.2592
52237SOL    HW268437  12.475   5.999   8.295  0.7507  0.6282 -1.8413
52238SOL     OW68438   2.527   1.103  10.851 -0.2920  0.4368  0.3013
52238SOL    HW168439   2.622   1.102  10.834 -0.0154  1.9891  1.5510
52238SOL    HW268440   2.504   1.195  10.850 -1.8778  0.0599 -0.2252
52239SOL     OW68441   7.433   5.530   7.532 -0.0040  0.2955  0.1069
52239SOL    HW168442   7.435   5.548   7.438 -0.3712 -0.3026 -0.0167
52239SOL    HW268443   7.420   5.436   7.538  1.1224  0.1672  0.7571
52240SOL     OW68444   6.633   9.532   6.117 -0.8578 -0.0568 -0.0917
52240SOL    HW168445   6.647   9.561   6.027  3.2044  0.2182  0.4184
52240SOL    HW268446   6.574   9.457   6.110 -1.1079  0.3070 -2.9035
52241SOL     OW68447   6.541   7.332   9.013 -0.2850  0.3014 -0.7422
52241SOL    HW168448   6.473   7.304   9.075 -1.2327  0.3431 -1.7241
52241SOL    HW268449   6.602   7.258   9.010  0.3115  0.6691  0.9282
52242SOL     OW68450  10.711  10.900   1.127 -0.2314 -0.0239  0.0249
52242SOL    HW168451  10.644  10.851   1.079  0.6990 -0.1948 -1.1625
52242SOL    HW268452  10.683  10.991   1.121 -1.5967 -0.2891  1.6327
52243SOL     OW68453   9.330   4.147  10.678 -0.2059  0.0279  0.0770
52243SOL    HW168454   9.410   4.157  10.625  0.7423  0.8105  1.5815
52243SOL    HW268455   9.264   4.119  10.616  0.6204  1.8219 -1.7472
52244SOL     OW68456   8.228   8.485   9.813  0.5561 -0.0120 -0.6168
52244SOL    HW168457   8.283   8.407   9.818  1.5702  0.6384 -1.3689
52244SOL    HW268458   8.265   8.545   9.878 -1.0085 -0.5910  0.9034
52245SOL     OW68459   3.202  11.126   2.400  0.3111  0.1705 -0.5005
52245SOL    HW168460   3.286  11.087   2.426 -1.4395 -1.4372  3.6792
52245SOL    HW268461   3.156  11.055   2.355 -0.9804 -1.2375  2.7306
52246SOL     OW68462  11.046   2.313   4.221  0.5490  0.3037  0.1856
52246SOL    HW168463  10.986   2.303   4.295  0.5739  0.0435  0.1719
52246SOL    HW268464  11.124   2.264   4.246  1.1808  1.5163  0.6556
52247SOL     OW68465   8.430   8.979   3.060  0.1831  0.9943 -0.1920
52247SOL    HW168466   8.423   9.066   3.100 -0.1659  1.7715 -1.8577
52247SOL    HW268467   8.488   8.992   2.985 -1.6920  0.3516 -1.8419
52248SOL     OW68468   0.000   4.172   4.965  0.4447  0.2364  0.1584
52248SOL    HW168469  -0.036   4.141   5.048 -0.6145  0.4599 -0.2091
52248SOL    HW268470   0.018   4.265   4.980  1.4089  0.0051  0.5136
52249SOL     OW68471   0.987  10.000   5.629 -0.0422 -0.7236 -0.0144
52249SOL    HW168472   0.954   9.934   5.568  0.8034 -1.3192  0.1549
52249SOL    HW268473   0.984   9.957   5.715 -0.7905 -0.0516  0.3140
52250SOL     OW68474   4.198   6.359   8.464  0.5610  0.0231 -0.4096
52250SOL    HW168475   4.245   6.415   8.526  0.6865 -1.0000  0.4678
52250SOL    HW268476   4.256   6.354   8.388  1.7872 -0.9706  0.5320
52251SOL     OW68477   3.196  12.160   4.828 -0.3136  0.4829 -0.0641
52251SOL    HW168478   3.174  12.238   4.879 -0.8203 -0.2735  0.8936
52251SOL    HW268479   3.237  12.195   4.748  0.4221  1.6917  0.8076
52252SOL     OW68480  10.907   2.688   7.806  0.6377 -0.0648  0.3763
52252SOL    HW168481  10.951   2.679   7.721  0.4317 -0.3420  0.2978
52252SOL    HW268482  10.918   2.781   7.829 -1.8937  0.7705 -1.3812
52253SOL     OW68483   8.995  10.755  10.707  0.0431 -0.0147 -0.3537
52253SOL    HW168484   8.977  10.733  10.798  2.0488  1.6289  0.5138
52253SOL    HW268485   9.024  10.673  10.667 -0.0884 -0.5687  0.6747
52254SOL     OW68486  11.937   1.145   8.171 -0.0064 -0.0202  0.0670
52254SOL    HW168487  11.964   1.166   8.082  1.8056  0.5845  0.7051
52254SOL    HW268488  11.887   1.063   8.163  0.5687 -0.2525 -1.4283
52255SOL     OW68489   6.816  10.895   1.639 -0.1667  0.3426 -0.0031
52255SOL    HW168490   6.751  10.957   1.671 -3.6214 -2.5039 -0.9274
52255SOL    HW268491   6.825  10.831   1.710  0.5652 -0.0567 -0.4421
52256SOL     OW68492  10.694   6.357   6.771 -0.4238 -0.7746  0.3303
52256SOL    HW168493  10.599   6.367   6.776 -0.2154  1.7489  0.3629
52256SOL    HW268494  10.710   6.324   6.683 -1.2302  1.3071 -0.6611
52257SOL     OW68495  11.064   7.700  12.856 -0.7377 -0.1394  0.8818
52257SOL    HW168496  11.040   7.641  12.785  0.3012 -1.0441  1.2558
52257SOL    HW268497  11.000   7.771  12.851 -2.1710 -1.4077  0.5701
52258SOL     OW68498   9.848  12.612   9.841  0.8743  0.3316 -0.2971
52258SOL    HW168499   9.821  12.523   9.819 -2.5283  0.4457  2.5202
52258SOL    HW268500   9.852  12.614   9.937  3.1376  2.7013 -0.3041
52259SOL     OW68501  11.608  11.527  10.658  0.5497  0.0621 -0.2129
52259SOL    HW168502  11.641  11.494  10.741  0.9778 -3.2479 -1.5436
52259SOL    HW268503  11.556  11.455  10.622  0.2703  1.4071 -2.7287
52260SOL     OW68504   3.663  10.807   7.677 -0.0097  0.4359  0.1318
52260SOL    HW168505   3.640  10.864   7.603 -0.7478  1.3698  1.0583
52260SOL    HW268506   3.711  10.864   7.737  3.0807 -0.9597 -0.8056
52261SOL     OW68507   2.379  10.870   2.863 -0.1945  0.4900 -0.0548
52261SOL    HW168508   2.340  10.937   2.918 -1.4670 -0.2336 -0.0378
52261SOL    HW268509   2.322  10.866   2.786 -0.0438 -0.4444 -0.1276
52262SOL     OW68510   4.026   8.393   6.134  0.0683  0.1937 -0.7807
52262SOL    HW168511   4.085   8.460   6.167 -1.0523  0.7151  0.2405
52262SOL    HW268512   4.082   8.316   6.120  1.0865  0.8550 -0.4528
52263SOL     OW68513  11.046   1.431   7.074  0.1260 -0.2670  0.3787
52263SOL    HW168514  11.066   1.485   7.151 -0.1825 -0.4073  0.5608
52263SOL    HW268515  11.120   1.371   7.067  1.4948  1.5091 -1.0476
52264SOL     OW68516   5.015   7.219   8.511  0.1115  0.6856  0.2905
52264SOL    HW168517   4.944   7.282   8.524 -0.6806  0.1007 -1.0695
52264SOL    HW268518   5.004   7.156   8.582  0.8206  1.9506  1.5835
52265SOL     OW68519   8.964  12.729   7.938  0.2500 -0.5822 -0.3915
52265SOL    HW168520   9.016  12.769   8.007 -1.5615 -0.1297  0.7702
52265SOL    HW268521   8.996  12.639   7.933  0.9990 -0.3708  0.4180
52266SOL     OW68522   0.005   8.522   8.556  0.1703  0.2309  0.3476
52266SOL    HW168523   0.012   8.591   8.491  0.1514 -0.0065  0.0929
52266SOL    HW268524  -0.027   8.446   8.507  3.0355 -0.8659 -0.0031
52267SOL     OW68525  11.169   3.254   3.595  0.3340  0.6930  0.3586
52267SOL    HW168526  11.214   3.337   3.578 -0.2777  0.6193 -2.1491
52267SOL    HW268527  11.197   3.198   3.523  0.5959 -1.2593  1.9134
52268SOL     OW68528   1.930  11.940   2.493  0.1291  0.0214 -0.2559
52268SOL    HW168529   1.861  11.899   2.545  0.9608 -1.0082  0.0852
52268SOL    HW268530   1.994  11.970   2.557  0.5326 -0.0632 -0.6078
52269SOL     OW68531   9.982   3.374   1.467  0.3577  0.0028 -0.1762
52269SOL    HW168532   9.971   3.469   1.476  0.4215 -0.0684  0.7046
52269SOL    HW268533  10.003   3.343   1.555 -0.0997 -0.8894 -0.3662
52270SOL     OW68534   8.126  11.161  10.088  0.4596 -0.1450  0.4667
52270SOL    HW168535   8.218  11.163  10.115  0.9482 -0.2894 -1.0661
52270SOL    HW268536   8.105  11.068  10.080  1.1229 -0.1607 -2.0055
52271SOL     OW68537   1.668   2.748   5.307 -0.6218  0.5073  0.3662
52271SOL    HW168538   1.640   2.731   5.398 -0.4183  1.4804  0.6174
52271SOL    HW268539   1.727   2.675   5.287 -1.5957 -0.3796  0.5880
52272SOL     OW68540   9.171   0.571   4.480 -0.5596 -0.0945  0.3186
52272SOL    HW168541   9.228   0.614   4.417  0.8392 -0.5484  1.2243
52272SOL    HW268542   9.090   0.553   4.432  0.4236 -0.3411 -1.2882
52273SOL     OW68543   2.780   7.689   8.512 -0.0700 -0.1634  0.0284
52273SOL    HW168544   2.790   7.743   8.434  1.5892  0.0481  0.3601
52273SOL    HW268545   2.787   7.599   8.479  0.5804 -0.0759 -0.0860
52274SOL     OW68546  13.042   1.151   4.861  0.5132 -0.1838 -0.5793
52274SOL    HW168547  13.127   1.191   4.840  0.3606 -0.7362 -2.4056
52274SOL    HW268548  13.007   1.207   4.930  3.1506 -1.0353  1.6159
52275SOL     OW68549  13.343   1.154   0.312  0.0767  0.3955  0.3510
52275SOL    HW168550  13.283   1.101   0.259  2.3338 -1.5094 -0.4479
52275SOL    HW268551  13.350   1.236   0.264 -1.9440  0.7455  0.5502
52276SOL     OW68552  11.223   2.045   1.818  0.3738 -0.3513 -0.3745
52276SOL    HW168553  11.272   2.127   1.816  0.8725 -0.6610 -1.6520
52276SOL    HW268554  11.282   1.983   1.862  0.6208 -0.4039 -0.7754
52277SOL     OW68555   7.242  12.616   0.921 -0.1366 -0.0203 -0.4178
52277SOL    HW168556   7.294  12.554   0.869 -2.8697 -3.4938  0.5829
52277SOL    HW268557   7.184  12.659   0.857  0.5581  0.2043 -0.9084
52278SOL     OW68558   2.381  12.001   2.096  0.4188 -0.2925  0.2411
52278SOL    HW168559   2.367  12.081   2.147  1.5549 -0.3090  0.6060
52278SOL    HW268560   2.468  11.971   2.123  1.4080  0.1176 -2.2651
52279SOL     OW68561  10.031   5.763  12.707 -0.2379  0.2585  0.5777
52279SOL    HW168562  10.008   5.729  12.620  1.2506 -1.5251  0.8178
52279SOL    HW268563  10.021   5.688  12.765 -0.2227  1.1692  1.7922
52280SOL     OW68564  11.559   3.734   3.240  0.6886  0.0345  0.5053
52280SOL    HW168565  11.490   3.767   3.297  0.6377 -0.0564  0.4978
52280SOL    HW268566  11.612   3.678   3.296 -0.3616 -1.4620  0.0823
52281SOL     OW68567  12.952  12.866   3.342 -0.2645  0.3242 -0.4664
52281SOL    HW168568  13.032  12.833   3.383 -0.5544 -0.3358 -0.4127
52281SOL    HW268569  12.883  12.805   3.371 -1.1791  2.0197  1.1098
52282SOL     OW68570   4.689  11.604  12.858 -0.3790  0.0821 -0.1143
52282SOL    HW168571   4.655  11.688  12.829 -0.4675  0.8603  2.0800
52282SOL    HW268572   4.709  11.616  12.950  0.0053 -2.1888  0.1714
52283SOL     OW68573   1.935   7.875   5.835  0.2487 -0.2663 -0.4156
52283SOL    HW168574   1.861   7.871   5.895 -0.9467  2.1017 -1.5704
52283SOL    HW268575   1.900   7.842   5.752  1.1267 -1.0673 -0.4861
52284SOL     OW68576   0.106   0.081  10.519 -0.1931 -0.5780 -0.3040
52284SOL    HW168577   0.064   0.154  10.565 -0.9733 -0.8647 -0.5598
52284SOL    HW268578   0.193   0.115  10.497 -0.1181 -0.1307  0.6071
52285SOL     OW68579   0.458  10.360   0.126  0.3007 -0.2170  0.0344
52285SOL    HW168580   0.375  10.342   0.170  0.8034  0.2339  1.2232
52285SOL    HW268581   0.436  10.364   0.033 -0.7796 -1.3526  0.2107
52286SOL     OW68582   9.484   8.834  10.656 -0.3671  0.3314 -0.5098
52286SOL    HW168583   9.437   8.803  10.734  3.0510 -1.4413  1.0551
52286SOL    HW268584   9.494   8.928  10.670 -2.1874  0.5470 -0.2943
52287SOL     OW68585   5.954   4.937   9.786  0.0505 -0.0121  0.2937
52287SOL    HW168586   5.916   4.849   9.778  2.5407 -1.2972  1.3760
52287SOL    HW268587   5.947   4.974   9.698 -1.2914 -1.1606 -0.1271
52288SOL     OW68588   8.503  10.047   9.194 -0.3593  0.1629 -0.2357
52288SOL    HW168589   8.565  10.117   9.173  1.0139 -1.3080 -1.2717
52288SOL    HW268590   8.542  10.002   9.269 -1.4584  0.7121  0.7084
52289SOL     OW68591   2.085   8.691  11.103  0.1085 -0.5165 -0.4191
52289SOL    HW168592   2.027   8.765  11.085  0.8388  0.0327 -0.5361
52289SOL    HW268593   2.169   8.731  11.125  0.4950 -1.3106 -0.4203
52290SOL     OW68594   6.830  13.509   0.637  0.3302 -0.4579 -0.2718
52290SOL    HW168595   6.824  13.556   0.721 -0.9571  0.2203 -0.7093
52290SOL    HW268596   6.816  13.417   0.660 -1.8067 -0.1083  0.1104
52291SOL     OW68597  11.794   7.195   4.861 -0.0397  0.1963 -1.0184
52291SOL    HW168598  11.758   7.151   4.785 -0.0845 -0.5843 -0.5567
52291SOL    HW268599  11.730   7.179   4.931  0.1657  0.6042 -0.7271
52292SOL     OW68600   0.536  13.503   3.018  0.1834  0.1208 -0.1681
52292SOL    HW168601   0.443  13.524   3.013  0.4930  1.3654 -1.3074
52292SOL    HW268602   0.546  13.458   3.101 -1.7356 -1.6427 -0.8127
52293SOL     OW68603   1.681   7.508   1.920  0.2396 -0.6051  0.1585
52293SOL    HW168604   1.766   7.479   1.888 -0.3214 -0.2364 -1.7907
52293SOL    HW268605   1.634   7.427   1.942  0.9946 -0.8180  1.0330
52294SOL     OW68606   6.730   0.505  13.409 -0.2396  0.5551 -0.4191
52294SOL    HW168607   6.795   0.440  13.432 -0.5806  0.5224  0.4708
52294SOL    HW268608   6.735   0.571  13.478 -1.0017  0.6580 -0.4460
52295SOL     OW68609  11.109  11.285   5.414  0.0826 -0.2871  0.1855
52295SOL    HW168610  11.064  11.352   5.362 -0.9614 -0.5524  0.7183
52295SOL    HW268611  11.193  11.272   5.369  0.2859  1.3319  0.0392
52296SOL     OW68612  11.140  10.914   5.159  0.1909  0.5224  0.2849
52296SOL    HW168613  11.123  10.847   5.226  1.8658  0.0366  0.2880
52296SOL    HW268614  11.100  10.880   5.080  2.6745 -1.5598 -0.2154
52297SOL     OW68615   1.919  11.695   5.284  0.0020  0.2558 -0.8911
52297SOL    HW168616   1.919  11.682   5.379 -0.5144 -0.8785 -1.0324
52297SOL    HW268617   1.873  11.619   5.249 -1.3118  1.4838 -1.9536
52298SOL     OW68618   6.580   2.999   9.714  0.2870 -0.0614 -0.2840
52298SOL    HW168619   6.636   2.922   9.716  0.1799 -0.1250  0.3904
52298SOL    HW268620   6.609   3.052   9.788  0.3509  0.5448 -0.7334
52299SOL     OW68621  10.581  11.896  13.711 -0.2383 -0.2868 -0.0601
52299SOL    HW168622  10.553  11.987  13.697 -0.7284 -0.5185 -0.5631
52299SOL    HW268623  10.563  11.852  13.629 -0.1675 -0.8904  0.2449
52300SOL     OW68624   4.282  13.653   4.543  0.0759  0.5645 -0.4610
52300SOL    HW168625   4.191  13.672   4.519  0.2340  0.1884 -1.3810
52300SOL    HW268626   4.286  13.558   4.546 -0.2536  0.5576  2.3403
52301SOL     OW68627   2.587  11.940   4.957 -0.8482  0.1829  0.1031
52301SOL    HW168628   2.502  11.903   4.980 -1.2691  1.3949  0.5714
52301SOL    HW268629   2.570  11.995   4.880 -0.3931  0.0887 -0.0737
52302SOL     OW68630  11.757   2.327   6.636 -0.1452  0.1140  0.2160
52302SOL    HW168631  11.753   2.234   6.614 -3.6679 -0.0858  1.0299
52302SOL    HW268632  11.758   2.329   6.731  2.0148  0.9650  0.2141
52303SOL     OW68633   1.246  13.571   9.894 -0.4299  0.2076  0.2185
52303SOL    HW168634   1.221  13.480   9.904  1.1966 -0.0798  2.1820
52303SOL    HW268635   1.244  13.586   9.799  0.0791 -2.1145 -0.2196
52304SOL     OW68636   1.721   0.015   6.278  0.0012 -0.0107 -0.0487
52304SOL    HW168637   1.728   0.018   6.374  0.1658 -1.8697  0.0463
52304SOL    HW268638   1.683   0.099   6.254  0.3981  0.6846  1.6121
52305SOL     OW68639  11.506   3.096   4.579 -0.1876 -0.2975 -0.2480
52305SOL    HW168640  11.581   3.039   4.598  0.4637 -0.3740 -2.6997
52305SOL    HW268641  11.538   3.157   4.513 -1.5297  1.4950  0.6708
52306SOL     OW68642   0.757   9.268   2.125  0.0754 -0.1725 -0.0145
52306SOL    HW168643   0.757   9.216   2.205  0.8599 -0.7721 -0.3797
52306SOL    HW268644   0.849   9.267   2.096  0.0771  1.3102 -0.1112
52307SOL     OW68645   8.150   8.486  10.119 -0.0806  0.0204  0.3185
52307SOL    HW168646   8.212   8.524  10.181  1.1131  1.0732 -1.4183
52307SOL    HW268647   8.070   8.538  10.129 -0.3995 -0.7177  1.8912
52308SOL     OW68648   9.177   8.467  10.517 -0.2371 -0.4059 -0.4861
52308SOL    HW168649   9.163   8.372  10.524  0.6317 -0.5360 -0.3722
52308SOL    HW268650   9.272   8.476  10.511 -0.2451  0.5200  0.5130
52309SOL     OW68651   7.633   6.677  11.982  0.1832 -0.0639 -0.2077
52309SOL    HW168652   7.606   6.725  12.060 -1.5276 -1.0458 -0.1517
52309SOL    HW268653   7.656   6.590  12.015 -1.6232 -0.8464 -0.8828
52310SOL     OW68654   0.052   6.883   3.180 -0.4403  0.3813 -0.5737
52310SOL    HW168655   0.024   6.950   3.118 -1.6422  0.9026  0.4788
52310SOL    HW268656   0.067   6.805   3.127  0.2921  1.2828 -1.7270
52311SOL     OW68657  11.441   6.711  12.590 -0.1042  0.1690 -0.1371
52311SOL    HW168658  11.386   6.650  12.542  0.0958 -0.5762  0.5651
52311SOL    HW268659  11.413   6.798  12.560 -0.3659 -0.2663 -1.1640
52312SOL     OW68660  12.222  12.478   3.268  0.1653  0.0665  0.0719
52312SOL    HW168661  12.216  12.522   3.353  1.3461  2.1497 -0.8268
52312SOL    HW268662  12.132  12.475   3.236 -0.4888 -1.8636  1.8439
52313SOL     OW68663   0.541   9.525   6.222 -0.1722 -0.1798 -0.1266
52313SOL    HW168664   0.572   9.500   6.309  0.6419  2.2285  0.3571
52313SOL    HW268665   0.616   9.567   6.181 -1.2285  0.8598 -1.0747
52314SOL     OW68666   8.234  11.045  10.622 -0.5539 -0.1652 -0.1010
52314SOL    HW168667   8.325  11.018  10.618 -0.4572  0.0738  0.4044
52314SOL    HW268668   8.202  11.036  10.533  0.2996  0.9181 -0.5342
52315SOL     OW68669   4.117  11.828   8.448  0.2256 -0.6762 -0.4545
52315SOL    HW168670   4.075  11.743   8.437  0.3742 -0.9986  1.1796
52315SOL    HW268671   4.210  11.811   8.436  0.6261 -1.4304  2.6726
52316SOL     OW68672   4.716   8.432   1.663 -0.4441 -0.8313  0.0704
52316SOL    HW168673   4.646   8.470   1.611 -0.2575  0.9348  1.0278
52316SOL    HW268674   4.751   8.505   1.713  2.3487 -1.5489 -0.6464
52317SOL     OW68675  10.088   1.022   1.228 -0.0174  0.3100  0.1502
52317SOL    HW168676  10.157   1.063   1.175  0.9855 -0.5280  0.7707
52317SOL    HW268677  10.012   1.018   1.170  1.6827 -2.7847 -2.1549
52318SOL     OW68678  13.252   1.250   6.182 -0.4606 -0.3540 -0.1323
52318SOL    HW168679  13.268   1.194   6.106  2.1766  1.4658 -1.0502
52318SOL    HW268680  13.334   1.248   6.231 -1.7769 -0.7147  2.2476
52319SOL     OW68681  12.741   4.448  11.352 -0.1773 -0.5064  0.2598
52319SOL    HW168682  12.771   4.358  11.364  0.1321 -0.5106 -0.4718
52319SOL    HW268683  12.719   4.454  11.259 -0.7190  0.0181  0.4158
52320SOL     OW68684  13.188   9.823   5.317 -0.0755 -0.2188 -0.0147
52320SOL    HW168685  13.201   9.755   5.383 -0.0751 -0.1763  0.0292
52320SOL    HW268686  13.274   9.833   5.276 -0.3150 -0.9664 -0.7229
52321SOL     OW68687   5.624   5.960   1.097 -0.5241  0.2697 -0.0346
52321SOL    HW168688   5.620   5.868   1.070 -0.3086  0.4089 -0.5533
52321SOL    HW268689   5.537   5.995   1.075 -0.2533  0.4592 -0.8641
52322SOL     OW68690   4.449   0.544   6.084  0.2440  0.6814  0.0089
52322SOL    HW168691   4.443   0.612   6.152 -1.4443 -0.5386  1.1666
52322SOL    HW268692   4.460   0.592   6.002  1.8190  2.2259  1.0613
52323SOL     OW68693  10.908   8.047   7.955 -0.3714 -0.3531 -0.3085
52323SOL    HW168694  10.837   7.996   7.915 -1.2273  0.5918 -0.0389
52323SOL    HW268695  10.914   8.125   7.900  0.8634 -0.6689 -0.6614
52324SOL     OW68696  11.436  13.613  10.899  0.2979 -0.1493  0.3831
52324SOL    HW168697  11.357  13.569  10.932 -0.5512  1.1902  0.2158
52324SOL    HW268698  11.463  13.560  10.824 -0.0242 -1.0335  0.8799
52325SOL     OW68699   9.835   2.056   5.956  0.1567  0.3228 -0.3206
52325SOL    HW168700   9.919   2.065   6.000 -0.5077  0.0766  1.0612
52325SOL    HW268701   9.820   2.142   5.916  1.2367  0.2395 -0.9451
52326SOL     OW68702   2.036   2.627  13.589  0.2898 -0.0893 -0.2907
52326SOL    HW168703   2.090   2.557  13.554  0.6281  0.3746 -0.7126
52326SOL    HW268704   2.028   2.608  13.682  0.1170 -0.8547 -0.4563
52327SOL     OW68705   8.659   0.514   3.441 -0.8495 -0.2103  1.0818
52327SOL    HW168706   8.659   0.564   3.522  0.6800 -1.5953  2.0007
52327SOL    HW268707   8.728   0.449   3.453 -0.9409 -0.7975 -1.1307
52328SOL     OW68708   9.022   7.190  12.545 -0.2009 -0.1409  0.0590
52328SOL    HW168709   8.951   7.249  12.522  0.4623  0.4875 -0.4193
52328SOL    HW268710   9.016   7.119  12.482 -0.6378 -0.2930  0.2662
52329SOL     OW68711   5.436  11.791   6.121  0.0780 -0.9136 -0.6451
52329SOL    HW168712   5.397  11.762   6.204  1.3276 -0.7655  0.0191
52329SOL    HW268713   5.457  11.884   6.135 -0.1889 -0.7396 -1.3278
52330SOL     OW68714   0.731  10.237  12.196  1.0048 -0.5052  0.4723
52330SOL    HW168715   0.717  10.268  12.285  0.8284  0.0186  0.2686
52330SOL    HW268716   0.705  10.311  12.141 -0.2786 -1.3045 -0.0525
52331SOL     OW68717   2.472  12.994   4.369  0.2580  0.1795  0.2483
52331SOL    HW168718   2.492  12.913   4.322 -1.4584  0.1630 -0.5222
52331SOL    HW268719   2.527  12.990   4.447  2.8206 -0.0370 -1.4467
52332SOL     OW68720   7.747   7.926   6.569  0.1727 -0.3262 -0.4156
52332SOL    HW168721   7.747   7.892   6.480 -0.8696  1.5639 -1.1862
52332SOL    HW268722   7.752   7.848   6.624  2.2358 -1.4846 -2.0963
52333SOL     OW68723   5.873   9.423   9.406  0.3126  0.2027 -0.5036
52333SOL    HW168724   5.856   9.375   9.325 -0.1774 -1.6774  0.6550
52333SOL    HW268725   5.804   9.490   9.408  1.0853  1.1176 -2.2094
52334SOL     OW68726  10.142   8.575   1.334 -0.2242  0.0572 -0.3198
52334SOL    HW168727  10.225   8.609   1.368 -0.4619  0.5101 -0.1828
52334SOL    HW268728  10.095   8.653   1.304 -0.7908 -0.1468  0.0272
52335SOL     OW68729   3.672   3.272   1.201  0.1052 -0.3832  0.1355
52335SOL    HW168730   3.745   3.217   1.228  0.6046  0.2294  0.0654
52335SOL    HW268731   3.674   3.346   1.263 -0.2066 -0.1642 -0.1136
52336SOL     OW68732   6.711   9.239   2.657  0.1332 -0.0088  0.1912
52336SOL    HW168733   6.697   9.266   2.748 -0.3586 -1.0627  0.4344
52336SOL    HW268734   6.728   9.321   2.610  0.0701  0.5723  1.1708
52337SOL     OW68735   3.612  13.611  11.208  0.4461 -0.1286  0.1250
52337SOL    HW168736   3.688  13.668  11.198  0.8013 -0.4970  0.6533
52337SOL    HW268737   3.536  13.670  11.200  0.7169 -0.0117 -2.1027
52338SOL     OW68738   9.840  11.819   6.096 -0.1068  0.1856 -0.4992
52338SOL    HW168739   9.886  11.746   6.136  0.3970  0.4376 -0.6044
52338SOL    HW268740   9.800  11.866   6.169  0.6335  0.5265 -0.3019
52339SOL     OW68741  11.842  10.330   7.437  0.0795 -0.1032 -0.7558
52339SOL    HW168742  11.802  10.412   7.468  0.4493  0.6221 -2.0988
52339SOL    HW268743  11.776  10.292   7.378 -0.8352 -1.7306  1.2205
52340SOL     OW68744   3.425  13.050   0.072 -0.7001 -0.1399  0.1647
52340SOL    HW168745   3.410  13.141   0.048 -0.7681 -0.7059 -2.0995
52340SOL    HW268746   3.521  13.040   0.073 -0.6997 -0.1360  0.1154
52341SOL     OW68747   3.424   1.577  10.373 -0.4037 -0.3226 -0.1187
52341SOL    HW168748   3.357   1.609  10.435  0.3670  0.3286  0.4055
52341SOL    HW268749   3.375   1.559  10.293 -0.9488  2.0486 -0.3986
52342SOL     OW68750  10.826   0.892   9.037 -0.2176  0.4320  0.2319
52342SOL    HW168751  10.846   0.859   8.949 -0.4838 -1.7919  0.9433
52342SOL    HW268752  10.751   0.839   9.065 -0.4529  1.4633  1.6036
52343SOL     OW68753   2.555  10.880  10.191  0.6436 -0.1528 -0.6224
52343SOL    HW168754   2.628  10.825  10.162  0.9161 -0.0754 -0.1007
52343SOL    HW268755   2.540  10.854  10.282 -0.8391 -1.0892 -1.1042
52344SOL     OW68756   0.768   7.581  10.150  0.2598  0.4472  0.8469
52344SOL    HW168757   0.853   7.542  10.174  0.6259  0.3044 -0.5880
52344SOL    HW268758   0.776   7.673  10.177  0.9989  0.5114  0.4481
52345SOL     OW68759  12.440   8.761  12.722  0.2774 -0.5095 -0.1544
52345SOL    HW168760  12.416   8.693  12.659 -0.9731 -0.4294  0.2018
52345SOL    HW268761  12.359   8.779  12.769  1.0438 -0.1290  1.0614
52346SOL     OW68762  11.661   0.692   9.818  0.0093  0.1633 -0.1980
52346SOL    HW168763  11.648   0.649   9.733  1.9492 -1.0082  0.0259
52346SOL    HW268764  11.600   0.765   9.818 -0.4994 -0.2025 -2.3393
52347SOL     OW68765  12.406   0.785   2.986 -0.2807 -0.0209  0.1386
52347SOL    HW168766  12.373   0.697   3.007 -2.3754  0.7088  0.1457
52347SOL    HW268767  12.352   0.814   2.913  0.9073  0.9843 -0.3778
52348SOL     OW68768   5.678   8.997   6.959  0.0380 -0.1526  0.1788
52348SOL    HW168769   5.674   8.966   6.869  0.2804  0.6519 -0.1224
52348SOL    HW268770   5.748   9.062   6.959  0.0543 -0.1592  0.9525
52349SOL     OW68771  12.080   6.164  12.579 -0.2694  0.0200 -0.0086
52349SOL    HW168772  12.115   6.224  12.512 -1.2975 -0.5999 -1.1391
52349SOL    HW268773  12.145   6.094  12.584  0.9001  1.1479  1.2578
52350SOL     OW68774   4.508   8.321  13.399  0.3760 -0.1771 -0.0843
52350SOL    HW168775   4.537   8.412  13.403 -1.9475  0.5924  0.8733
52350SOL    HW268776   4.510   8.299  13.306 -1.9460  1.9525 -0.7620
52351SOL     OW68777  10.868   8.077   0.247 -0.2092  0.3800  0.3364
52351SOL    HW168778  10.801   8.036   0.192 -1.3614  1.5908  0.7903
52351SOL    HW268779  10.829   8.080   0.334  1.3939 -1.0395  1.1684
52352SOL     OW68780   0.958   1.406   5.607  0.3009 -0.0626  0.0387
52352SOL    HW168781   0.920   1.471   5.667  0.4814 -0.3818  0.5063
52352SOL    HW268782   1.024   1.455   5.558 -1.2728  0.7245 -1.4046
52353SOL     OW68783   2.465  10.455   7.349 -0.1347  0.7035 -0.0080
52353SOL    HW168784   2.487  10.377   7.297 -1.4928 -0.0395  0.4759
52353SOL    HW268785   2.466  10.527   7.287  1.0376  0.2936 -0.4938
52354SOL     OW68786  12.321   8.574  10.499  0.2876 -0.3816  0.4570
52354SOL    HW168787  12.375   8.496  10.505 -0.0561 -0.6552  0.0065
52354SOL    HW268788  12.269   8.562  10.420 -0.2714 -0.0182  0.7615
52355SOL     OW68789   4.218   2.616   8.203 -0.1767 -0.1587 -0.1757
52355SOL    HW168790   4.311   2.628   8.222  0.6525 -0.9236 -3.2380
52355SOL    HW268791   4.175   2.690   8.246  1.7322 -0.0168  1.6724
52356SOL     OW68792  11.021   6.655   3.757  0.0489  0.2497 -0.1612
52356SOL    HW168793  11.038   6.612   3.841 -2.7450  0.0700  0.4142
52356SOL    HW268794  11.052   6.744   3.769  2.4739 -0.5411 -0.0537
52357SOL     OW68795   2.876   3.594   3.972  0.0606  0.0741 -0.1554
52357SOL    HW168796   2.947   3.530   3.972  0.8850  0.9476  1.2329
52357SOL    HW268797   2.808   3.554   4.026 -0.2611 -0.4849 -0.9575
52358SOL     OW68798  10.969   1.684   0.901  0.0684  0.1754  0.4851
52358SOL    HW168799  10.897   1.673   0.840  0.1966 -1.4055  0.5776
52358SOL    HW268800  10.973   1.778   0.917 -0.2051  0.5879 -1.6255
52359SOL     OW68801   7.224   8.130  12.640 -0.1354  0.0138 -0.0198
52359SOL    HW168802   7.224   8.069  12.714  0.2962  0.3210  0.2382
52359SOL    HW268803   7.140   8.176  12.647 -0.2621 -0.2274  0.0542
52360SOL     OW68804   2.795  12.369  10.326  0.1951 -0.2227  0.2171
52360SOL    HW168805   2.889  12.359  10.313  0.4745  1.6981  0.3940
52360SOL    HW268806   2.758  12.367  10.238  0.3827 -1.0534  0.1519
52361SOL     OW68807   5.651  11.366   5.434 -0.0010  0.1136 -0.7259
52361SOL    HW168808   5.620  11.367   5.343 -1.1376 -2.0785 -0.4206
52361SOL    HW268809   5.660  11.459   5.457 -2.1079  0.7799 -2.2936
52362SOL     OW68810   2.796   7.519   4.722  0.2864 -0.0566  0.5644
52362SOL    HW168811   2.738   7.582   4.678  1.2046 -0.1030 -0.7629
52362SOL    HW268812   2.737   7.448   4.749 -0.2846 -0.2334 -0.9969
52363SOL     OW68813   1.388   0.587  10.215  0.5377  0.2492 -0.2267
52363SOL    HW168814   1.306   0.625  10.182 -0.1266 -3.1996 -3.2659
52363SOL    HW268815   1.450   0.600  10.143  1.2394 -1.2406  0.0785
52364SOL     OW68816  11.191  12.001   1.888 -0.3279 -0.2437 -0.1396
52364SOL    HW168817  11.186  11.950   1.808 -1.2642  0.2862 -0.4398
52364SOL    HW268818  11.265  11.964   1.936  0.0335 -0.7832 -1.0900
52365SOL     OW68819   9.202   5.911   4.579 -0.2421  0.0754  0.4173
52365SOL    HW168820   9.241   5.991   4.543 -1.0204 -0.0161 -0.6937
52365SOL    HW268821   9.110   5.915   4.552 -0.3602 -1.0460  0.6098
52366SOL     OW68822   9.522   8.835   3.861 -0.2828  0.1367 -0.0534
52366SOL    HW168823   9.486   8.898   3.923  0.1695  0.4090 -0.0674
52366SOL    HW268824   9.614   8.827   3.886 -0.3489 -0.5616 -0.0109
52367SOL     OW68825   1.822  11.428   1.717  0.0743 -0.2442  0.4261
52367SOL    HW168826   1.823  11.470   1.803  1.1118 -0.5616  0.5842
52367SOL    HW268827   1.732  11.399   1.706 -0.4969  1.3211  0.6439
52368SOL     OW68828  13.409   6.017   5.120  0.5958  0.2197  0.3035
52368SOL    HW168829  13.463   6.040   5.195  0.9730  1.7619 -0.4046
52368SOL    HW268830  13.473   5.994   5.052  0.2520 -2.4057  0.7605
52369SOL     OW68831   5.629   5.235   2.386 -0.7492 -0.0877 -0.0883
52369SOL    HW168832   5.625   5.160   2.326 -0.1346 -0.9687  0.9508
52369SOL    HW268833   5.660   5.199   2.469  2.1516  1.6997 -0.2221
52370SOL     OW68834   1.361   7.327   3.993  0.7234  0.3155  0.3154
52370SOL    HW168835   1.425   7.316   3.922  0.2041 -0.2865 -0.0751
52370SOL    HW268836   1.364   7.421   4.013 -0.9037  1.0431 -2.2597
52371SOL     OW68837   5.789   4.054  11.058 -1.0680  0.3251 -0.1035
52371SOL    HW168838   5.863   4.083  11.111 -0.4847 -0.8030 -0.2672
52371SOL    HW268839   5.819   4.061  10.968 -1.3180  0.2685 -0.1925
52372SOL     OW68840   9.333   5.837   4.820  0.0533  0.2063  0.9697
52372SOL    HW168841   9.323   5.852   4.727 -0.6519  0.9092  1.1513
52372SOL    HW268842   9.288   5.911   4.862 -0.6484 -0.7057  1.8736
52373SOL     OW68843   0.859  11.227   8.889 -0.5135 -0.4039  0.2751
52373SOL    HW168844   0.856  11.247   8.982  0.8979  0.6642  0.1274
52373SOL    HW268845   0.883  11.134   8.885 -2.3130 -0.9396  0.9493
52374SOL     OW68846   7.918   1.475   1.018  0.1411  0.4662  0.0331
52374SOL    HW168847   7.981   1.542   0.993  2.5167 -1.1037  1.4645
52374SOL    HW268848   7.958   1.392   0.993 -1.3524 -0.6041  0.9990
52375SOL     OW68849   0.913   1.452   7.677  0.1851 -0.2262 -0.0396
52375SOL    HW168850   0.871   1.535   7.698  2.7113  1.2077 -0.2769
52375SOL    HW268851   0.882   1.431   7.589  1.9077  2.2336 -1.3573
52376SOL     OW68852   3.804   4.635   6.510  0.1484  0.0880  0.1946
52376SOL    HW168853   3.812   4.588   6.593 -1.0593 -1.0019 -0.2706
52376SOL    HW268854   3.889   4.677   6.498 -0.0727  1.4004  2.6346
52377SOL     OW68855   6.829  13.182   8.944  0.1850  0.3479 -0.4261
52377SOL    HW168856   6.736  13.193   8.967  0.6583 -0.2393  1.9222
52377SOL    HW268857   6.872  13.260   8.979  0.9568 -0.6437  0.9060
52378SOL     OW68858   2.563  11.397   6.696  0.4900  0.2064  0.5924
52378SOL    HW168859   2.589  11.312   6.660 -1.6051 -0.0112 -0.6118
52378SOL    HW268860   2.564  11.384   6.791  0.8508 -0.9689  0.4418
52379SOL     OW68861   8.770   0.611   4.435 -0.3051 -0.1649 -0.1553
52379SOL    HW168862   8.835   0.546   4.406  0.0284  0.2447 -0.3488
52379SOL    HW268863   8.686   0.569   4.421 -0.0681 -1.0112  0.8319
52380SOL     OW68864   6.622   5.625   3.614 -0.3316  0.4576 -0.4513
52380SOL    HW168865   6.622   5.647   3.708 -3.3277 -0.4871 -0.1207
52380SOL    HW268866   6.698   5.671   3.579  1.0401  0.6774  2.4591
52381SOL     OW68867   1.601   9.923   4.334 -0.7979 -0.9572 -0.1048
52381SOL    HW168868   1.613   9.930   4.429 -2.5874 -0.3647  0.1196
52381SOL    HW268869   1.517   9.966   4.318 -0.7444 -1.4665 -1.9099
52382SOL     OW68870   1.986   9.376   4.655  0.4174  0.0456 -0.2625
52382SOL    HW168871   1.949   9.434   4.722  1.0355  0.5240 -0.3309
52382SOL    HW268872   1.924   9.382   4.582  0.8748  1.2685 -0.5856
52383SOL     OW68873  10.951  12.575   2.906 -0.1588 -0.0741 -0.3361
52383SOL    HW168874  10.960  12.573   3.001  0.1454 -1.7216 -0.3814
52383SOL    HW268875  11.014  12.510   2.874  1.0063  1.6602 -1.7849
52384SOL     OW68876   9.580   1.393  13.428 -0.2490  0.1204 -0.3182
52384SOL    HW168877   9.509   1.336  13.455 -0.7785  0.8855 -0.0566
52384SOL    HW268878   9.609   1.437  13.508 -1.2876  1.7936 -0.8054
52385SOL     OW68879   3.632  12.113  13.343  0.1078  0.0884  0.1609
52385SOL    HW168880   3.603  12.180  13.281 -0.1727 -0.0044  0.1905
52385SOL    HW268881   3.664  12.163  13.418 -2.0146  0.2061  1.0600
52386SOL     OW68882  13.118   3.365   0.243 -0.3048  0.0806 -0.2984
52386SOL    HW168883  13.117   3.401   0.332  0.4773 -0.9940  0.1707
52386SOL    HW268884  13.034   3.392   0.205  0.1174  2.0970  0.1144
52387SOL     OW68885   9.224   7.612   2.629  0.2005  0.1878  0.0680
52387SOL    HW168886   9.142   7.654   2.601 -0.5884 -0.2761  1.5959
52387SOL    HW268887   9.245   7.552   2.557 -0.3035  0.9446 -0.7478
52388SOL     OW68888   8.186  12.728  13.216  0.1348 -0.3915  0.1642
52388SOL    HW168889   8.221  12.794  13.275  1.4665 -0.3922 -0.5744
52388SOL    HW268890   8.217  12.755  13.129  0.6053 -1.8957 -0.1689
52389SOL     OW68891   9.067   6.464   0.764 -0.0286  0.0367  0.5127
52389SOL    HW168892   9.116   6.538   0.801  0.1431 -0.0594  0.4756
52389SOL    HW268893   9.022   6.502   0.688 -0.3778  0.2338  0.8112
52390SOL     OW68894  12.589   3.349   1.717 -0.5268 -0.0908  0.1286
52390SOL    HW168895  12.525   3.420   1.721 -1.9131 -1.1960 -1.2075
52390SOL    HW268896  12.537   3.271   1.700  1.1581 -1.0391 -0.9849
52391SOL     OW68897   7.919  10.856   8.168  0.2918  0.5305 -0.5069
52391SOL    HW168898   8.002  10.827   8.206 -0.3880 -1.5728 -0.4837
52391SOL    HW268899   7.904  10.794   8.096 -1.0125  1.1950 -0.8264
52392SOL     OW68900  13.150   1.626  13.532 -0.0621  0.2853  0.9279
52392SOL    HW168901  13.163   1.721  13.535 -1.9155  0.5942  0.2982
52392SOL    HW268902  13.190   1.594  13.613  0.9130  1.5407  0.9776
52393SOL     OW68903   8.711  11.529   8.659 -0.1296  0.4737 -0.2674
52393SOL    HW168904   8.689  11.621   8.644  1.1023  0.9215  0.4987
52393SOL    HW268905   8.786  11.532   8.719 -0.2841 -1.0396  0.0352
52394SOL     OW68906  10.222   5.246   4.499  0.2718  0.5815  0.0101
52394SOL    HW168907  10.127   5.236   4.494  0.4974 -1.4259 -1.1092
52394SOL    HW268908  10.238   5.336   4.469 -1.2864  1.2005  0.9033
52395SOL     OW68909   1.442   8.081   5.056  0.6471 -0.9559 -0.2611
52395SOL    HW168910   1.519   8.024   5.052 -0.1420 -2.0168 -0.9671
52395SOL    HW268911   1.458   8.146   4.988  0.5515 -1.6684 -0.9778
52396SOL     OW68912   8.063   7.486  12.151 -0.0295  0.3918 -0.3534
52396SOL    HW168913   8.099   7.432  12.081  1.8305  0.4544  0.4858
52396SOL    HW268914   7.977   7.449  12.168  1.0211 -2.1696 -0.0270
52397SOL     OW68915  13.738  10.492   7.052  0.4374  0.3118 -0.0916
52397SOL    HW168916  13.826  10.474   7.086  1.0411  2.3664 -0.4151
52397SOL    HW268917  13.738  10.452   6.965  0.8949 -0.0794  0.0813
52398SOL     OW68918   0.560  11.415   3.700  0.0892 -0.0649  0.0772
52398SOL    HW168919   0.605  11.331   3.697 -1.5434 -0.9810 -0.7369
52398SOL    HW268920   0.488  11.401   3.762 -1.1244  0.1782 -1.2074
52399SOL     OW68921   8.030  10.709  12.641 -0.3164  0.1461 -0.1108
52399SOL    HW168922   8.082  10.699  12.721 -0.3324  0.2960 -0.0805
52399SOL    HW268923   7.988  10.624  12.629 -0.9755  0.3682  0.5045
52400SOL     OW68924   4.307   9.649   6.453 -0.5080  0.4515 -0.1472
52400SOL    HW168925   4.242   9.628   6.385 -0.6524  1.0131 -0.1847
52400SOL    HW268926   4.268   9.722   6.502  0.3953  1.2628 -0.6097
52401SOL     OW68927  12.994   2.978   2.072 -0.3600 -0.2498  0.0878
52401SOL    HW168928  12.962   3.013   1.989  2.3334 -0.2208 -1.0656
52401SOL    HW268929  13.012   3.055   2.126  0.1715 -0.1336 -0.2509
52402SOL     OW68930   1.153  13.222   6.116  0.6564 -0.2025 -0.1990
52402SOL    HW168931   1.201  13.251   6.194  0.3074  0.8208 -0.3570
52402SOL    HW268932   1.096  13.295   6.094 -0.9249 -1.3541 -0.0753
52403SOL     OW68933   8.595   1.229   0.548  0.1934  0.2505 -0.1348
52403SOL    HW168934   8.516   1.197   0.505 -0.4639  1.6287 -0.0162
52403SOL    HW268935   8.564   1.275   0.626  1.3062 -1.3047  1.2990
52404SOL     OW68936   5.330   6.531  11.486  0.1094 -0.0971 -0.1821
52404SOL    HW168937   5.373   6.489  11.560 -0.2848  0.5400  0.4194
52404SOL    HW268938   5.238   6.505  11.493  0.1718 -0.4982 -0.7855
52405SOL     OW68939   3.063   8.245   6.309 -0.3155 -0.1318  0.1178
52405SOL    HW168940   3.056   8.156   6.274 -0.6337  0.3532 -1.1316
52405SOL    HW268941   3.156   8.265   6.306 -0.2828 -0.2927  0.0253
52406SOL     OW68942   0.205  12.468   7.868  0.2024  0.3633  0.6031
52406SOL    HW168943   0.120  12.435   7.899 -1.1495  2.5713 -0.4256
52406SOL    HW268944   0.198  12.563   7.879  2.2772  0.6575 -0.2138
52407SOL     OW68945   8.794   2.798   6.371  0.0114  0.1315 -0.3094
52407SOL    HW168946   8.832   2.793   6.459 -0.6033 -0.0796 -0.0489
52407SOL    HW268947   8.868   2.786   6.312  1.1169  3.7722  0.0707
52408SOL     OW68948   7.726  10.455  11.182 -1.2583 -0.1194 -0.7613
52408SOL    HW168949   7.784  10.527  11.206  2.0011 -2.6864 -0.2724
52408SOL    HW268950   7.682  10.431  11.264  0.9468 -1.3262  0.1571
52409SOL     OW68951   2.093  13.034  11.856  0.2158  0.1374 -0.1482
52409SOL    HW168952   2.094  13.034  11.952  0.1982  0.6121 -0.1484
52409SOL    HW268953   2.139  13.114  11.832 -1.6798  1.1508 -0.5262
52410SOL     OW68954   3.654   1.176   4.615  0.0926  0.2871  0.0351
52410SOL    HW168955   3.640   1.084   4.593  3.6389 -0.1467 -0.9918
52410SOL    HW268956   3.613   1.225   4.544 -3.7796 -0.1954  1.6536
52411SOL     OW68957  13.008  11.395  13.169 -0.9449  0.4253  0.4585
52411SOL    HW168958  12.969  11.309  13.187 -3.4461  1.6678  1.5825
52411SOL    HW268959  13.071  11.379  13.098  0.5301 -2.7078  2.2790
52412SOL     OW68960  11.905   2.743   1.517 -0.0949  0.3480 -0.0783
52412SOL    HW168961  11.882   2.679   1.450 -0.2111 -0.1100  0.3926
52412SOL    HW268962  11.842   2.728   1.587 -1.5343  2.3959 -0.8122
52413SOL     OW68963   8.097  12.332   0.213 -0.1703  0.3330  0.3189
52413SOL    HW168964   8.091  12.388   0.291  0.2879 -0.7169  1.1352
52413SOL    HW268965   8.191  12.316   0.202 -0.3519 -2.9807  2.1653
52414SOL     OW68966  11.234   8.254  10.811 -0.6068  0.9084  0.5958
52414SOL    HW168967  11.298   8.316  10.848 -0.6177  1.1676  0.1868
52414SOL    HW268968  11.258   8.170  10.850  0.5259  0.8402 -0.1828
52415SOL     OW68969  12.980   9.393   3.417 -0.1315  0.1053 -0.1497
52415SOL    HW168970  13.051   9.329   3.412 -1.1242 -0.9936 -0.6481
52415SOL    HW268971  12.936   9.372   3.499 -0.9740 -0.4375 -0.7238
52416SOL     OW68972   4.553  12.880   7.356  1.0703 -0.2541 -0.7498
52416SOL    HW168973   4.507  12.811   7.404 -0.5187  0.6727 -0.8505
52416SOL    HW268974   4.522  12.961   7.397  1.9834  0.4408 -1.4054
52417SOL     OW68975  11.526   2.883  13.115  0.2170  0.5714  0.3676
52417SOL    HW168976  11.501   2.856  13.204 -0.0181  0.8049  0.3755
52417SOL    HW268977  11.532   2.978  13.120  1.3930  0.5137  0.4314
52418SOL     OW68978   3.744   5.441  10.588 -0.2035 -0.1201 -0.2653
52418SOL    HW168979   3.764   5.458  10.496 -2.3061  0.5511 -0.6560
52418SOL    HW268980   3.651   5.464  10.597  0.4510  1.9112  2.5075
52419SOL     OW68981   0.640   6.672   8.240  0.0186  0.3168 -0.4233
52419SOL    HW168982   0.593   6.595   8.208  0.1686 -0.4072  1.0121
52419SOL    HW268983   0.572   6.727   8.278  0.3463 -1.4031  2.9974
52420SOL     OW68984   1.519   8.437  11.494 -0.1350 -0.1426 -0.1166
52420SOL    HW168985   1.469   8.461  11.416  0.1865 -1.5081 -0.7659
52420SOL    HW268986   1.467   8.471  11.567 -1.0277  0.1360 -0.8592
52421SOL     OW68987   6.609  13.405   1.843 -0.0515 -0.0364  0.4397
52421SOL    HW168988   6.673  13.454   1.895 -0.6977  1.1079  0.1971
52421SOL    HW268989   6.583  13.332   1.898  1.9884 -0.9619  0.2736
52422SOL     OW68990  10.165  12.784  11.134  0.6200  0.1289 -0.0140
52422SOL    HW168991  10.143  12.738  11.053 -1.0311 -0.6673  0.8358
52422SOL    HW268992  10.158  12.877  11.112  1.6470 -0.0405 -1.1405
52423SOL     OW68993   8.932  13.136  10.343  0.0547 -0.2407 -0.2482
52423SOL    HW168994   8.890  13.204  10.396 -0.8953 -0.8210 -0.2463
52423SOL    HW268995   8.952  13.066  10.406 -1.1135 -0.9495 -0.6395
52424SOL     OW68996  10.888   9.975   4.887 -0.3832  0.4394 -0.5930
52424SOL    HW168997  10.971   9.936   4.860  0.9528  2.9036 -0.3481
52424SOL    HW268998  10.860   9.922   4.962  1.8808  0.5603  0.4158
52425SOL     OW68999  10.986   4.022   7.318 -0.1677 -0.7088 -0.4901
52425SOL    HW169000  11.069   3.978   7.300  0.9298  0.7218  0.7872
52425SOL    HW269001  10.961   3.990   7.405 -1.1541 -1.3614 -0.9889
52426SOL     OW69002   0.414   4.924   0.025  0.0239 -0.0328  0.0013
52426SOL    HW169003   0.483   4.913  -0.041  0.3969 -0.0276  0.3920
52426SOL    HW269004   0.340   4.960  -0.025  1.4476  3.5554  0.1670
52427SOL     OW69005   3.862   0.424  10.860  0.4592  0.2531 -0.1847
52427SOL    HW169006   3.948   0.436  10.820  1.7419  2.4663  2.8123
52427SOL    HW269007   3.879   0.368  10.936 -0.3560  1.9222  1.3033
52428SOL     OW69008   6.154   1.033   6.567  0.2465 -0.6276  0.1191
52428SOL    HW169009   6.070   1.035   6.613  0.0846 -0.6186 -0.1743
52428SOL    HW269010   6.136   0.983   6.487  0.4791 -0.4779 -0.0273
52429SOL     OW69011   5.857   0.379   8.286 -0.4794  0.3371  0.1093
52429SOL    HW169012   5.886   0.395   8.196  1.7775 -0.2704  0.6781
52429SOL    HW269013   5.764   0.404   8.285 -1.2013 -1.8337 -2.9517
52430SOL     OW69014  10.231   4.739   4.594 -0.6365  0.2118  0.3295
52430SOL    HW169015  10.270   4.801   4.657 -1.2419  0.0625  0.8670
52430SOL    HW269016  10.173   4.793   4.541  0.2202  0.4216 -0.4239
52431SOL     OW69017  11.822   6.311   1.669 -0.2228  0.0325  0.1026
52431SOL    HW169018  11.741   6.331   1.716 -0.3758  0.7189 -0.4381
52431SOL    HW269019  11.819   6.366   1.591  0.6958 -0.0514 -0.0034
52432SOL     OW69020   3.373   7.167   4.468  0.7012  0.0801  0.0222
52432SOL    HW169021   3.404   7.210   4.388  0.0030  0.4621 -0.0557
52432SOL    HW269022   3.299   7.113   4.439 -0.6980  1.5823  0.6584
52433SOL     OW69023  11.783   5.446   3.891  0.4749  0.5247 -0.1398
52433SOL    HW169024  11.728   5.523   3.906  1.0934  0.7407  1.1862
52433SOL    HW269025  11.723   5.372   3.896  0.3256  0.7311  1.6850
52434SOL     OW69026   5.583   0.961  12.513 -0.3705  0.3646 -0.0592
52434SOL    HW169027   5.585   0.870  12.484 -0.8093  0.4865 -0.4849
52434SOL    HW269028   5.611   0.958  12.604  2.8065  0.1761 -0.9206
52435SOL     OW69029   1.275   7.628   0.174  0.3864 -0.4702 -0.1035
52435SOL    HW169030   1.343   7.563   0.156  1.8682  0.8340  0.5969
52435SOL    HW269031   1.228   7.636   0.091  0.5948 -1.9239 -0.3958
52436SOL     OW69032  12.718   7.986   7.730  0.0176  0.8169 -0.0911
52436SOL    HW169033  12.772   8.037   7.670  0.0535 -0.0327 -0.7915
52436SOL    HW269034  12.677   7.920   7.676  0.2878 -0.1695  0.8683
52437SOL     OW69035   7.933  10.139   1.595  0.0034  0.0355 -0.0235
52437SOL    HW169036   7.974  10.110   1.677 -2.3174  0.4859  1.3985
52437SOL    HW269037   7.962  10.076   1.529  1.0601 -1.0067  1.3791
52438SOL     OW69038   6.984   4.117   6.793  0.3352 -0.2214  0.5464
52438SOL    HW169039   7.078   4.135   6.782  0.2229  2.2494  2.6240
52438SOL    HW269040   6.951   4.193   6.842 -3.4315  0.6194 -2.7813
52439SOL     OW69041   0.478   6.737  10.143  0.6761 -0.5149  0.2096
52439SOL    HW169042   0.422   6.726  10.220 -0.6110  2.1566 -0.2408
52439SOL    HW269043   0.531   6.813  10.162  0.4967  0.0731 -1.4346
52440SOL     OW69044   1.730   0.597   1.615 -0.3532  0.5540 -0.1805
52440SOL    HW169045   1.807   0.543   1.595 -0.1771  0.6243  0.2891
52440SOL    HW269046   1.683   0.548   1.682 -0.4626  0.7365 -0.1218
52441SOL     OW69047   2.384   6.123  12.738 -0.3411 -0.1522  0.1781
52441SOL    HW169048   2.413   6.049  12.792  0.0462  1.0414  1.6904
52441SOL    HW269049   2.458   6.184  12.739 -0.4464  0.0357 -1.4870
52442SOL     OW69050   6.007   9.764   1.705  0.2577 -0.0940  0.4194
52442SOL    HW169051   6.094   9.729   1.690 -0.2292 -0.8364 -0.7563
52442SOL    HW269052   6.016   9.859   1.691  0.8743 -0.1625  0.3555
52443SOL     OW69053   4.874  13.480  12.254  0.8007  0.7273 -0.6121
52443SOL    HW169054   4.796  13.524  12.221 -0.9887 -0.6116  1.5160
52443SOL    HW269055   4.946  13.517  12.204 -0.9928  3.3329 -1.4465
52444SOL     OW69056   8.503  12.700   8.639  0.5574 -0.4046 -0.1939
52444SOL    HW169057   8.481  12.679   8.548  1.9172  0.7070 -0.8139
52444SOL    HW269058   8.536  12.790   8.635 -0.3835  0.0611  1.5859
52445SOL     OW69059   3.539   4.733  11.625  0.0998  0.1290 -0.0355
52445SOL    HW169060   3.596   4.792  11.674  0.1485  0.7667 -0.8557
52445SOL    HW269061   3.597   4.662  11.597  0.2530  0.2132  0.0684
52446SOL     OW69062   9.561  12.587   4.621 -0.8826  0.2800 -0.1177
52446SOL    HW169063   9.565  12.497   4.588 -0.9403 -0.5013  1.8780
52446SOL    HW269064   9.569  12.642   4.543  2.8199 -1.3819 -1.1437
52447SOL     OW69065   2.496   0.453   2.688  0.2428 -0.5110 -0.3177
52447SOL    HW169066   2.448   0.379   2.726 -1.1351  0.9780  1.0236
52447SOL    HW269067   2.453   0.467   2.603  1.1104 -1.7631 -0.9981
52448SOL     OW69068  13.639   0.722   8.536 -0.2831 -0.0940  0.2336
52448SOL    HW169069  13.696   0.775   8.480 -0.6296 -0.3059 -0.3401
52448SOL    HW269070  13.567   0.696   8.478 -0.2211 -1.0141  0.5547
52449SOL     OW69071   5.314   1.599  13.509  0.3200  0.5522  0.1556
52449SOL    HW169072   5.276   1.573  13.425 -0.4882  1.4270  0.2388
52449SOL    HW269073   5.394   1.547  13.516 -1.0745 -1.7522  0.1983
52450SOL     OW69074   7.835   6.631   5.505  0.4926  0.2649 -0.4107
52450SOL    HW169075   7.769   6.592   5.562  2.5403 -0.4638  1.6707
52450SOL    HW269076   7.916   6.586   5.530  1.7631  0.9623 -2.9630
52451SOL     OW69077   4.954   3.167   8.391 -0.1922  0.1817 -0.5439
52451SOL    HW169078   4.948   3.072   8.389 -0.1748  0.1306  0.8936
52451SOL    HW269079   5.045   3.186   8.369 -0.1751 -0.1263 -0.7465
52452SOL     OW69080   4.044  12.727   7.725 -0.3346 -0.0799  0.0639
52452SOL    HW169081   4.101  12.804   7.730  0.4647 -0.6675  0.1882
52452SOL    HW269082   4.002  12.722   7.811 -0.6092  0.3674 -0.0379
52453SOL     OW69083   9.185  11.119   6.564  0.3115 -0.4079  0.0687
52453SOL    HW169084   9.213  11.103   6.654 -1.1448 -1.7409  0.3309
52453SOL    HW269085   9.266  11.134   6.516  1.0293  3.4696  2.0738
52454SOL     OW69086  12.100   9.436   2.298  0.5916 -0.0676 -0.3154
52454SOL    HW169087  12.185   9.424   2.255  1.9741 -0.3224  2.2842
52454SOL    HW269088  12.116   9.503   2.364 -0.7710 -1.2373  1.2941
52455SOL     OW69089   7.055  11.189   2.211 -0.1863  0.0326  0.4557
52455SOL    HW169090   7.120  11.127   2.247 -0.3271 -0.5000 -0.1972
52455SOL    HW269091   7.007  11.138   2.146  0.5097  1.1641 -0.9915
52456SOL     OW69092   6.098   8.395   6.482 -0.8923 -0.7395 -0.2514
52456SOL    HW169093   6.153   8.449   6.539 -0.6669  0.8182 -1.8757
52456SOL    HW269094   6.160   8.337   6.437 -0.8435 -0.6000 -0.3640
52457SOL     OW69095   2.037   9.926   4.749  0.0959  0.5197 -0.1883
52457SOL    HW169096   2.097   9.997   4.771  0.9273 -0.6975  1.7165
52457SOL    HW269097   1.961   9.970   4.712 -0.2732  2.6533  2.7204
52458SOL     OW69098  13.119   2.456  12.977 -0.4402  0.8837  0.4643
52458SOL    HW169099  13.145   2.377  12.930 -1.9509  0.4368  0.3316
52458SOL    HW269100  13.195   2.476  13.032 -0.3413 -1.2016  1.2091
52459SOL     OW69101  10.053   9.264   8.296 -0.4904 -0.2574  0.4313
52459SOL    HW169102  10.070   9.170   8.301  0.2813 -0.2249 -0.9839
52459SOL    HW269103   9.966   9.272   8.258 -0.8122 -0.3897  1.1248
52460SOL     OW69104   7.929   9.616  10.704 -0.6494  0.3827  0.2437
52460SOL    HW169105   8.010   9.568  10.687  0.9946  2.9465  0.2181
52460SOL    HW269106   7.894   9.576  10.783  0.3916 -1.1055 -0.0081
52461SOL     OW69107  11.419   6.219  11.563  0.2769  0.0457  0.0266
52461SOL    HW169108  11.495   6.167  11.537  1.2328  1.6611 -0.5575
52461SOL    HW269109  11.449   6.269  11.639  0.1434  1.4152 -0.7881
52462SOL     OW69110   9.037  13.629  11.295 -1.0690  0.1044  0.0820
52462SOL    HW169111   9.123  13.671  11.305 -1.1737 -0.2021  3.3684
52462SOL    HW269112   9.040  13.591  11.207  1.3610  1.7672 -0.6883
52463SOL     OW69113   0.272   4.062   6.680 -0.3817 -1.2029 -0.2480
52463SOL    HW169114   0.308   4.021   6.758  0.5094  0.3110  0.1658
52463SOL    HW269115   0.191   4.105   6.710 -0.9230 -1.9951 -0.5286
52464SOL     OW69116   8.719   9.334  12.277  0.5956  0.3784 -0.0369
52464SOL    HW169117   8.814   9.323  12.265  0.5361 -0.5151  0.2714
52464SOL    HW269118   8.680   9.278  12.211  0.2866 -1.7278  1.8132
52465SOL     OW69119  12.818  11.392   3.473  0.4820 -0.0561 -0.6152
52465SOL    HW169120  12.763  11.387   3.395 -0.1657 -3.1570 -0.0895
52465SOL    HW269121  12.802  11.479   3.509 -2.7172 -0.1835 -1.4811
52466SOL     OW69122   3.087   6.103  12.445 -0.5811  0.3472  0.0760
52466SOL    HW169123   3.094   6.053  12.363 -0.6898 -0.0972  0.3361
52466SOL    HW269124   3.146   6.058  12.505  0.6502  1.5534 -0.1871
52467SOL     OW69125   3.524   5.374  13.345 -0.6050 -0.1223 -0.2071
52467SOL    HW169126   3.605   5.332  13.314  0.8379  2.3005  0.0261
52467SOL    HW269127   3.504   5.440  13.279 -0.1680  1.9002  1.5725
52468SOL     OW69128  11.819  11.153   2.898 -0.5440 -0.0470 -0.0677
52468SOL    HW169129  11.890  11.091   2.878 -0.5057 -0.1846  0.4961
52468SOL    HW269130  11.782  11.174   2.812  0.8773  0.8748 -0.4873
52469SOL     OW69131   3.231   9.804   8.527 -0.0678 -0.3034 -0.2843
52469SOL    HW169132   3.270   9.727   8.486 -0.4894  0.5272 -2.3817
52469SOL    HW269133   3.139   9.780   8.541  0.3073 -0.9723  1.2957
52470SOL     OW69134   0.733  10.099   4.348  0.7705 -0.0967 -1.0270
52470SOL    HW169135   0.771  10.179   4.313 -1.2587  1.1016 -0.6448
52470SOL    HW269136   0.728  10.040   4.272  2.1789  0.1433 -1.3344
52471SOL     OW69137   0.968   8.515   1.265  0.2650 -0.3398  0.6216
52471SOL    HW169138   0.884   8.491   1.305 -0.6317 -1.0727 -1.5438
52471SOL    HW269139   0.956   8.496   1.172  3.4083 -2.0506  0.4535
52472SOL     OW69140  10.476  13.126   8.278  0.6628  0.4852  0.2238
52472SOL    HW169141  10.491  13.194   8.344  2.4391  0.6487 -0.2728
52472SOL    HW269142  10.553  13.132   8.221  0.3228 -1.2370 -0.4599
52473SOL     OW69143   1.788  11.775   1.099 -0.4499  0.2833 -0.6949
52473SOL    HW169144   1.837  11.766   1.181  0.4164 -1.9317 -1.3711
52473SOL    HW269145   1.853  11.760   1.030 -1.5749 -0.1328 -1.7030
52474SOL     OW69146  13.327   0.054  10.068 -0.3201 -0.4126  0.4890
52474SOL    HW169147  13.332  -0.041  10.056 -2.3015 -0.4735 -0.2844
52474SOL    HW269148  13.310   0.088   9.980 -0.9731  0.5284  0.9675
52475SOL     OW69149  11.991   1.444   7.669 -0.6394  0.3660  0.1199
52475SOL    HW169150  11.897   1.426   7.677 -0.6988  0.7663  0.3865
52475SOL    HW269151  12.033   1.365   7.702 -0.8651 -0.3871 -1.3142
52476SOL     OW69152   5.028   9.981   2.747  0.4964 -0.2930 -0.3615
52476SOL    HW169153   5.013  10.076   2.746 -1.9350 -0.6112 -2.0553
52476SOL    HW269154   4.992   9.952   2.830  2.1981  0.3138  0.6533
52477SOL     OW69155  13.312   2.646  13.446  0.0718  0.2947 -0.4900
52477SOL    HW169156  13.283   2.616  13.532  1.2306 -0.8844 -0.4680
52477SOL    HW269157  13.234   2.683  13.405 -0.3774  1.3852  1.2701
52478SOL     OW69158  11.683   9.805   9.009 -0.0324 -0.0192 -0.4426
52478SOL    HW169159  11.716   9.809   9.099 -0.3336  0.9880 -0.3600
52478SOL    HW269160  11.627   9.728   9.007  1.4827 -1.1694 -0.3039
52479SOL     OW69161   5.046  11.686  13.376  0.2132 -0.2803 -0.2936
52479SOL    HW169162   5.032  11.687  13.281  0.2299 -0.5428 -0.2987
52479SOL    HW269163   5.016  11.772  13.405  0.8112  0.0517 -0.6264
52480SOL     OW69164   8.474   6.653   1.694 -0.1636 -0.4150 -0.0269
52480SOL    HW169165   8.450   6.610   1.612 -1.6616  2.6192 -1.3426
52480SOL    HW269166   8.535   6.723   1.667 -2.2762  1.9902  1.0132
52481SOL     OW69167   2.591   0.579   2.201  0.2793 -0.6281 -0.8720
52481SOL    HW169168   2.666   0.523   2.182  2.0206  2.2586 -3.2193
52481SOL    HW269169   2.527   0.556   2.134  0.8539 -0.0512 -1.6246
52482SOL     OW69170  13.505   4.993  11.932 -0.0779 -0.2723 -0.0038
52482SOL    HW169171  13.515   5.039  11.849  1.5441 -0.4955  0.0443
52482SOL    HW269172  13.591   4.996  11.972 -0.7658 -0.4369  1.5534
52483SOL     OW69173  10.987   5.313   5.836 -0.1878  0.0593 -0.2917
52483SOL    HW169174  10.914   5.374   5.823  0.3142  1.0534  1.3031
52483SOL    HW269175  10.977   5.249   5.766 -1.2234  1.5026 -1.5396
52484SOL     OW69176   5.606   2.430   2.636 -0.2228 -0.6807 -0.4252
52484SOL    HW169177   5.584   2.440   2.729 -2.1915  0.0966 -0.9322
52484SOL    HW269178   5.588   2.338   2.617 -3.5864 -0.0338 -0.8786
52485SOL     OW69179   6.267   2.128   8.269  0.3415  0.4313 -0.1805
52485SOL    HW169180   6.278   2.218   8.302 -1.2606  0.1166  1.3772
52485SOL    HW269181   6.270   2.074   8.348 -0.3314 -0.7201 -0.9226
52486SOL     OW69182   0.960   5.995   9.223 -0.3701 -0.1743  0.1417
52486SOL    HW169183   1.008   5.915   9.244 -0.4618  0.2045  1.9236
52486SOL    HW269184   1.028   6.056   9.193 -0.2334 -0.7224 -0.7143
52487SOL     OW69185   3.684   5.042  10.874  0.2789  0.3035  0.0106
52487SOL    HW169186   3.665   5.097  10.798 -0.1531  0.6528  0.3698
52487SOL    HW269187   3.631   4.964  10.861  0.7117  0.0670 -0.3798
52488SOL     OW69188   0.325   0.819  12.834  0.1064  0.4033  0.1836
52488SOL    HW169189   0.317   0.725  12.819  0.3332  0.0642  1.9540
52488SOL    HW269190   0.272   0.859  12.766  2.0727 -0.8663 -2.2542
52489SOL     OW69191   0.547   6.432   2.722 -0.3488 -0.6434 -0.3250
52489SOL    HW169192   0.456   6.445   2.697 -0.6694  0.1045  1.1627
52489SOL    HW269193   0.585   6.519   2.724 -0.6183 -0.4753  2.6410
52490SOL     OW69194   0.288   2.677   9.755  0.4084 -0.2847 -0.0726
52490SOL    HW169195   0.302   2.756   9.702 -0.8626 -0.7156 -1.0942
52490SOL    HW269196   0.356   2.682   9.823 -0.4233  2.3477  0.6912
52491SOL     OW69197  10.716  12.723  12.899  0.2023 -0.1640 -0.0228
52491SOL    HW169198  10.718  12.738  12.994 -0.5804  3.1190 -0.4306
52491SOL    HW269199  10.805  12.741  12.870 -0.2348  1.8943 -0.2257
52492SOL     OW69200   3.754   1.092  10.640 -0.0388 -0.6978 -0.4290
52492SOL    HW169201   3.668   1.133  10.633 -0.0415 -0.7214 -0.5263
52492SOL    HW269202   3.802   1.122  10.563  0.0498 -0.6616 -0.3594
52493SOL     OW69203   9.040  11.410   0.210 -0.1922 -0.0938  0.5279
52493SOL    HW169204   8.968  11.384   0.152 -1.4949  1.0117  1.5820
52493SOL    HW269205   9.012  11.381   0.297  0.4797  0.6354  0.9960
52494SOL     OW69206   7.388   5.118  10.555  0.3887 -0.1004 -0.0268
52494SOL    HW169207   7.322   5.104  10.624 -0.4390  1.6715 -0.4062
52494SOL    HW269208   7.399   5.212  10.552  1.2375 -0.2230 -1.5845
52495SOL     OW69209   8.440   8.104  10.936  0.4015 -1.2232 -0.1511
52495SOL    HW169210   8.446   8.080  10.844 -0.1111  0.6536 -0.7159
52495SOL    HW269211   8.368   8.166  10.940  1.5652  0.1238  1.1847
52496SOL     OW69212   8.916   0.977  11.548  0.1161 -0.1099  0.2978
52496SOL    HW169213   8.871   0.921  11.612 -0.3538 -0.7027 -0.5208
52496SOL    HW269214   8.982   0.920  11.509 -0.6921 -0.2875 -0.8948
52497SOL     OW69215  10.701   5.003  10.475 -0.6569 -0.3927 -0.0574
52497SOL    HW169216  10.625   4.989  10.532 -1.8252 -1.9490 -1.8554
52497SOL    HW269217  10.714   5.098  10.475 -2.0845 -0.1605  0.9369
52498SOL     OW69218  12.008   2.097   1.769 -0.1835 -0.3243  0.0003
52498SOL    HW169219  11.960   2.020   1.800 -1.4115  0.7709  0.9350
52498SOL    HW269220  12.085   2.102   1.827 -1.1768  0.3020  1.3030
52499SOL     OW69221   2.018   6.543  10.338 -0.1329 -0.3276 -0.3430
52499SOL    HW169222   2.089   6.528  10.400 -0.7408  1.8850  1.0031
52499SOL    HW269223   2.046   6.618  10.286 -1.5337  0.7359  0.3640
52500SOL     OW69224  12.175   4.290   2.351  0.2507  0.7303  0.2916
52500SOL    HW169225  12.132   4.205   2.339  0.8204  0.3645  0.7943
52500SOL    HW269226  12.122   4.334   2.418 -0.3443  0.9834 -0.3389
52501SOL     OW69227   3.479   9.682   0.985  0.0752  0.0747  0.2798
52501SOL    HW169228   3.400   9.736   0.973 -0.6228 -1.1484 -0.8960
52501SOL    HW269229   3.512   9.668   0.896 -0.0013 -1.7653  0.5152
52502SOL     OW69230   6.217   1.847   6.041  0.3512  0.2269  0.4905
52502SOL    HW169231   6.263   1.766   6.019 -1.9423 -0.8658 -0.6382
52502SOL    HW269232   6.279   1.916   6.019  1.3845 -1.1454 -1.1820
52503SOL     OW69233  11.988   8.330   4.144 -0.0786 -0.4557 -0.1745
52503SOL    HW169234  11.924   8.399   4.164  0.1356 -0.7263  1.6270
52503SOL    HW269235  11.956   8.291   4.063 -1.5780  0.1690  0.0745
52504SOL     OW69236   1.487   4.861   1.309 -0.3684 -0.2397 -0.1263
52504SOL    HW169237   1.559   4.890   1.254 -0.1503 -0.5848 -0.0285
52504SOL    HW269238   1.431   4.938   1.319  0.0855  0.0840 -0.0450
52505SOL     OW69239  13.273   5.453   7.547  0.3121 -0.4727 -0.2374
52505SOL    HW169240  13.305   5.420   7.463  0.6685  0.5589 -0.5307
52505SOL    HW269241  13.248   5.544   7.528 -0.6046 -0.5612  0.5354
52506SOL     OW69242  13.546   1.892   7.272 -0.2096 -0.5756  0.2713
52506SOL    HW169243  13.561   1.863   7.182 -0.1355  0.9502 -0.2361
52506SOL    HW269244  13.506   1.978   7.263 -2.0958 -1.2316  1.6839
52507SOL     OW69245   4.602   4.540  12.362  0.1017 -0.1197 -0.1794
52507SOL    HW169246   4.622   4.466  12.306 -1.4756 -0.3108 -0.5251
52507SOL    HW269247   4.511   4.526  12.390  0.2970  0.8493  1.0384
52508SOL     OW69248   8.334   6.525   5.167  0.2507 -0.0309  0.1093
52508SOL    HW169249   8.285   6.601   5.199 -0.0477  0.7726 -2.1120
52508SOL    HW269250   8.415   6.526   5.219  0.2182  1.7627  0.2021
52509SOL     OW69251  11.450  12.751   6.749 -0.1464  0.1792 -0.5141
52509SOL    HW169252  11.499  12.680   6.708  0.8767  1.8428 -2.3572
52509SOL    HW269253  11.364  12.713   6.768  0.9187 -2.0330  0.2977
52510SOL     OW69254  13.601   5.967   0.656 -0.1177 -0.4750  0.6327
52510SOL    HW169255  13.679   6.022   0.659  0.4822 -1.3119  0.6814
52510SOL    HW269256  13.528   6.029   0.644  0.3748  0.4422  2.2057
52511SOL     OW69257   5.799   0.345   6.650 -0.5811 -0.0452  0.7192
52511SOL    HW169258   5.769   0.260   6.682  0.5725 -0.6416  0.2526
52511SOL    HW269259   5.747   0.361   6.571 -1.2562 -0.0004  1.1641
52512SOL     OW69260   4.606   3.215   5.885 -0.1566 -0.4965  0.5377
52512SOL    HW169261   4.689   3.176   5.914 -1.4937 -1.4330  3.4479
52512SOL    HW269262   4.539   3.151   5.910 -1.8934  0.8275 -0.5000
52513SOL     OW69263   3.184   4.215   4.744  0.1012  0.5511 -0.0419
52513SOL    HW169264   3.267   4.262   4.750  0.5889 -0.4025  1.3459
52513SOL    HW269265   3.152   4.213   4.835 -0.0285 -1.5166 -0.0912
52514SOL     OW69266   6.529  11.838   3.184 -0.8161  0.6392  0.2373
52514SOL    HW169267   6.625  11.832   3.181 -0.9040 -1.4188 -1.6875
52514SOL    HW269268   6.509  11.854   3.276  1.3749  1.4270  0.6408
52515SOL     OW69269   6.501  12.085  11.021  0.4369 -0.6095 -0.3280
52515SOL    HW169270   6.586  12.119  10.993  0.0844  0.2544 -0.3547
52515SOL    HW269271   6.445  12.093  10.944  0.3636 -1.3198 -0.3573
52516SOL     OW69272   6.500   6.039   1.871 -0.0478  0.0344 -0.1440
52516SOL    HW169273   6.458   6.028   1.956 -1.9462 -0.4843 -1.0948
52516SOL    HW269274   6.486   6.131   1.849  2.2991  0.7541  0.9579
52517SOL     OW69275  13.498  12.299  10.455 -0.0281  0.1716  0.1574
52517SOL    HW169276  13.581  12.321  10.414  0.1532  0.3940  0.6404
52517SOL    HW269277  13.511  12.210  10.489  0.4477  0.6822  1.3485
52518SOL     OW69278  10.580  11.448  12.476 -0.0554 -0.0289  0.2099
52518SOL    HW169279  10.529  11.387  12.423 -2.2685 -0.4619  2.6739
52518SOL    HW269280  10.602  11.519  12.416 -1.2409 -1.1217 -1.6161
52519SOL     OW69281  11.757  13.539   0.463 -0.3715 -0.1776 -0.4599
52519SOL    HW169282  11.672  13.499   0.447 -0.4696  0.2374 -0.9827
52519SOL    HW269283  11.765  13.606   0.396 -0.4176  1.0114  0.6909
52520SOL     OW69284   1.336   3.990   8.932  0.2131  0.5518 -0.2423
52520SOL    HW169285   1.336   3.964   8.840  1.2266 -0.3189 -0.0135
52520SOL    HW269286   1.294   4.076   8.932 -2.2227 -0.5420 -1.1589
52521SOL     OW69287   9.229   2.964   8.822 -0.5085  0.4013 -0.0642
52521SOL    HW169288   9.165   3.033   8.802 -0.7159  0.2757  0.1507
52521SOL    HW269289   9.311   2.994   8.784 -0.2349  1.4665  1.2861
52522SOL     OW69290   1.321   8.913   6.601  0.1552  0.4902  0.1754
52522SOL    HW169291   1.362   8.992   6.567 -0.1103 -0.1928 -1.8480
52522SOL    HW269292   1.384   8.843   6.583 -0.9571 -0.2361 -1.0754
52523SOL     OW69293  11.593   2.560  11.773 -0.3307 -0.0008  0.0743
52523SOL    HW169294  11.668   2.567  11.713 -0.3391 -1.8905 -0.2235
52523SOL    HW269295  11.523   2.526  11.718 -1.1636  0.9013  0.5612
52524SOL     OW69296  13.307  10.525   5.220  0.4224  0.6290 -0.4239
52524SOL    HW169297  13.259  10.525   5.137  1.8137  0.0796 -1.2761
52524SOL    HW269298  13.346  10.613   5.224  0.8325  0.4633 -0.6638
52525SOL     OW69299  12.125  12.552   2.740  0.2241 -0.3023 -0.0391
52525SOL    HW169300  12.064  12.535   2.668  1.1067 -0.2051 -0.8261
52525SOL    HW269301  12.181  12.623   2.708  0.6581 -0.2842  0.7281
52526SOL     OW69302   3.416   1.652  13.397  0.1159 -0.5017  0.3026
52526SOL    HW169303   3.336   1.623  13.352  0.2654 -1.7337  0.8027
52526SOL    HW269304   3.481   1.662  13.327  0.2646 -2.1188  0.1801
52527SOL     OW69305   5.495  12.461   5.816 -0.1060 -0.8692 -0.0109
52527SOL    HW169306   5.566  12.407   5.849  0.0755 -0.9846 -0.5748
52527SOL    HW269307   5.535  12.516   5.749 -0.1033  0.6076  1.1603
52528SOL     OW69308   1.389   4.669   4.825 -0.0196 -0.2677  0.7590
52528SOL    HW169309   1.346   4.681   4.741 -0.9457 -0.0347  1.2525
52528SOL    HW269310   1.331   4.712   4.888  0.3286 -0.9919  1.5966
52529SOL     OW69311   2.885   4.463   7.466  0.0627 -0.8141 -0.1328
52529SOL    HW169312   2.903   4.517   7.544 -0.3312 -1.2024  0.2339
52529SOL    HW269313   2.793   4.441   7.473 -0.1113 -0.3998 -1.0136
52530SOL     OW69314   4.176   5.092  13.084  0.1878  0.1125 -0.3068
52530SOL    HW169315   4.109   5.029  13.056 -0.0269 -0.0994  0.6395
52530SOL    HW269316   4.233   5.041  13.142  0.9695  0.3875 -0.8124
52531SOL     OW69317   1.533   1.070  13.422  0.0240 -0.1973  0.0061
52531SOL    HW169318   1.471   1.142  13.435 -1.5135 -1.5221  0.3952
52531SOL    HW269319   1.619   1.110  13.434 -0.7451  1.6383 -0.1428
52532SOL     OW69320   2.055   0.431   0.214 -0.0386 -0.1010 -0.2457
52532SOL    HW169321   1.970   0.437   0.259 -0.1814  3.4547 -0.7135
52532SOL    HW269322   2.042   0.363   0.148 -2.4639  0.1602 -0.1290
52533SOL     OW69323   2.565   3.239   9.514  0.0743  0.1247  0.3780
52533SOL    HW169324   2.510   3.310   9.546  1.4464  1.3230  0.1281
52533SOL    HW269325   2.654   3.265   9.535  0.6689 -1.1925 -0.3508
52534SOL     OW69326   2.377   4.757  13.297 -0.2227  0.0826  0.4379
52534SOL    HW169327   2.402   4.795  13.212  0.5451 -0.9421  0.1756
52534SOL    HW269328   2.397   4.825  13.361  0.9884  0.1945 -0.0358
52535SOL     OW69329   1.820  12.538   2.867  0.4204 -0.4790  0.0594
52535SOL    HW169330   1.731  12.533   2.833  0.8166 -1.3783 -0.9117
52535SOL    HW269331   1.809  12.537   2.962 -0.5679 -1.8379 -0.0395
52536SOL     OW69332   5.009   9.152   1.760  0.3247 -0.2651 -0.2513
52536SOL    HW169333   4.933   9.202   1.790  1.4894  1.8515 -0.5806
52536SOL    HW269334   5.016   9.173   1.667  1.4478 -0.1742 -0.1703
52537SOL     OW69335  11.276   2.172  10.172 -0.0499  0.9111 -0.3008
52537SOL    HW169336  11.205   2.230  10.145 -0.0118  1.1584  0.1256
52537SOL    HW269337  11.291   2.193  10.265 -0.3743 -0.1188 -0.0020
52538SOL     OW69338   5.523  13.565  10.576  0.1887  0.4516 -0.0338
52538SOL    HW169339   5.586  13.495  10.595  0.0691  0.7955  1.8104
52538SOL    HW269340   5.449  13.547  10.635 -0.2086  1.6489 -0.1396
52539SOL     OW69341   0.410   3.612   7.344 -0.2237  0.2964 -0.3258
52539SOL    HW169342   0.445   3.622   7.255 -0.2283  2.4562 -0.1432
52539SOL    HW269343   0.458   3.539   7.381  0.4046 -0.0823 -1.8044
52540SOL     OW69344   0.976  11.226   2.163  0.1023 -0.0291 -0.1916
52540SOL    HW169345   0.887  11.245   2.192 -1.0365 -2.3209 -1.9140
52540SOL    HW269346   0.998  11.142   2.204  2.0043  1.0153  1.1310
52541SOL     OW69347  11.060   5.312  13.112  0.5442  0.3732 -0.5055
52541SOL    HW169348  11.039   5.252  13.041  0.1611  0.2658 -0.3013
52541SOL    HW269349  11.125   5.372  13.074  2.0694 -1.0613 -0.2661
52542SOL     OW69350  10.286   1.005   7.253  0.1145  0.2986 -0.1813
52542SOL    HW169351  10.212   1.051   7.213 -0.1475  0.6074  0.6337
52542SOL    HW269352  10.267   1.007   7.347  1.3106  0.6547  0.0672
52543SOL     OW69353   9.503   1.288   0.446 -0.2682  0.3101  0.2944
52543SOL    HW169354   9.555   1.358   0.484 -1.4535  0.6887  1.2713
52543SOL    HW269355   9.448   1.257   0.517  0.6522 -2.0614  0.0589
52544SOL     OW69356   0.492  10.408   7.088  0.2248  0.1648  0.2235
52544SOL    HW169357   0.442  10.331   7.117  0.2188  0.1165  0.0857
52544SOL    HW269358   0.442  10.441   7.013  0.8450 -0.3699 -0.4385
52545SOL     OW69359  12.077   8.492   7.600 -0.3064  0.7354  0.4801
52545SOL    HW169360  12.069   8.576   7.645  0.1223  1.2734 -0.4092
52545SOL    HW269361  12.168   8.490   7.571  0.3255 -1.0285  2.3546
52546SOL     OW69362   2.561   1.063   7.669  0.9090  0.3523  0.3742
52546SOL    HW169363   2.548   0.999   7.739  1.6483 -1.2708 -0.9107
52546SOL    HW269364   2.477   1.067   7.624  1.0887 -0.3516 -0.0358
52547SOL     OW69365   8.775   6.165  10.052  0.7246  0.4211  0.4236
52547SOL    HW169366   8.718   6.238  10.029 -1.6649 -1.8364 -1.3549
52547SOL    HW269367   8.752   6.144  10.143  0.4980  1.0565  0.5155
52548SOL     OW69368   6.926  10.372  12.566  0.1545 -0.4007 -0.1715
52548SOL    HW169369   7.005  10.411  12.527 -0.2578  0.2418 -0.3939
52548SOL    HW269370   6.916  10.417  12.649 -0.2621 -0.1059 -0.3777
52549SOL     OW69371   0.110  11.138   1.293  0.1561 -0.7887 -0.3384
52549SOL    HW169372   0.030  11.172   1.251  0.5046  0.5766  0.0361
52549SOL    HW269373   0.107  11.173   1.382  1.7627  0.3718 -0.6828
52550SOL     OW69374  11.726   0.635   9.468  0.0779  0.2750 -0.1119
52550SOL    HW169375  11.651   0.612   9.523  0.0081  0.3621 -0.1706
52550SOL    HW269376  11.690   0.696   9.403  0.3641  0.9829  0.3751
52551SOL     OW69377  12.543   6.220   0.800 -0.2006 -0.3629  0.2543
52551SOL    HW169378  12.531   6.281   0.727 -0.1719 -1.7298 -0.9444
52551SOL    HW269379  12.484   6.147   0.780 -0.5908 -0.5350  1.8917
52552SOL     OW69380  12.219  13.487   5.916  0.2561 -0.1479 -0.2157
52552SOL    HW169381  12.161  13.563   5.922 -1.1791 -1.1721 -0.6611
52552SOL    HW269382  12.217  13.449   6.004 -0.4695 -0.6688 -0.4436
52553SOL     OW69383   8.026   7.823  12.092  0.5353 -0.1206  0.6572
52553SOL    HW169384   7.988   7.895  12.143  0.2539  1.6033 -1.8122
52553SOL    HW269385   7.951   7.776  12.058  0.5976  0.8279 -0.8938
52554SOL     OW69386   6.197   6.755   5.165 -0.2027 -0.2700  0.1933
52554SOL    HW169387   6.278   6.728   5.208 -0.3895 -0.7919  0.2247
52554SOL    HW269388   6.225   6.814   5.096  0.2708 -1.0186 -0.2665
52555SOL     OW69389   4.642  10.735   3.223  0.1567 -0.1752  0.2062
52555SOL    HW169390   4.552  10.765   3.215  0.1209 -0.3421  0.0135
52555SOL    HW269391   4.645  10.691   3.308 -0.6183 -2.5752 -0.9516
52556SOL     OW69392   8.845  10.174   6.487  0.6261  0.4570 -0.6563
52556SOL    HW169393   8.752  10.195   6.479  0.7214  0.9860 -0.3935
52556SOL    HW269394   8.891  10.254   6.460  0.9761  1.0962  1.5965
52557SOL     OW69395   6.430  13.556  10.441  0.0038 -0.0058 -0.0350
52557SOL    HW169396   6.415  13.492  10.510  2.2768 -1.4431 -0.7476
52557SOL    HW269397   6.346  13.563  10.396 -0.7497 -1.2308  1.1146
52558SOL     OW69398   3.479   4.669  12.499 -0.0182  0.0569 -0.1372
52558SOL    HW169399   3.434   4.616  12.433 -0.0343  0.4645 -0.4510
52558SOL    HW269400   3.534   4.606  12.545 -0.9907 -0.4693  0.3292
52559SOL     OW69401  10.478   8.470   8.926  0.0303  0.2231  0.1282
52559SOL    HW169402  10.480   8.412   8.850  1.5701  1.2091 -0.6309
52559SOL    HW269403  10.424   8.424   8.990 -0.7724 -0.9237 -1.3227
52560SOL     OW69404   7.706  10.454   1.648 -0.0475  0.8527 -0.5618
52560SOL    HW169405   7.659  10.496   1.576 -1.5938 -0.3421 -0.2916
52560SOL    HW269406   7.780  10.410   1.606 -1.8619 -1.2633 -1.7372
52561SOL     OW69407   6.514   2.982  11.559 -0.2881 -0.4262  0.1007
52561SOL    HW169408   6.462   3.020  11.488  1.7001 -0.3432 -1.4156
52561SOL    HW269409   6.534   2.894  11.528  0.3675 -0.4870  0.6888
52562SOL     OW69410   8.296   9.707   7.519 -0.1393  0.0392 -0.1880
52562SOL    HW169411   8.252   9.650   7.581  1.0067  0.5171  1.1131
52562SOL    HW269412   8.322   9.650   7.447  2.1793 -1.4299  1.6814
52563SOL     OW69413   4.440  10.026  12.573 -0.3037 -0.2730  0.0279
52563SOL    HW169414   4.471  10.115  12.554 -1.7925  0.4980  1.0494
52563SOL    HW269415   4.508   9.989  12.629 -0.4085  0.8265  0.9376
52564SOL     OW69416   3.297   5.530   8.625  0.3210 -0.5572 -0.0800
52564SOL    HW169417   3.334   5.521   8.537 -2.9647 -0.1053 -1.6435
52564SOL    HW269418   3.291   5.441   8.658  3.5111 -0.6034  0.6856
52565SOL     OW69419   5.765   3.540  13.247 -0.5859 -0.0893 -0.3283
52565SOL    HW169420   5.736   3.471  13.187  2.3673 -0.4584 -1.4883
52565SOL    HW269421   5.699   3.540  13.317 -2.5423 -1.6874 -2.0417
52566SOL     OW69422   1.871   4.792  12.605  0.5184 -0.4808  0.6240
52566SOL    HW169423   1.933   4.846  12.556 -0.1670  2.0095  2.3051
52566SOL    HW269424   1.798   4.780  12.545  1.4747 -1.1609 -0.4379
52567SOL     OW69425   2.596   8.171   6.026 -0.3455  1.0460  0.1450
52567SOL    HW169426   2.506   8.178   5.994 -0.7280 -0.4674  0.8360
52567SOL    HW269427   2.623   8.262   6.040 -1.3518  1.5707 -1.1624
52568SOL     OW69428   4.112  12.141   5.271  0.0160 -0.3104 -0.0109
52568SOL    HW169429   4.060  12.106   5.199  2.0894 -0.5564 -1.5153
52568SOL    HW269430   4.195  12.093   5.266  0.7288  0.6416  1.6937
52569SOL     OW69431   1.562   8.114   4.714  0.1068 -0.0244  0.3497
52569SOL    HW169432   1.565   8.148   4.625  0.4302 -0.5698  0.1418
52569SOL    HW269433   1.542   8.190   4.769  0.8110  0.4954 -0.0966
52570SOL     OW69434  12.430  11.068   0.257 -0.1015  0.2747  0.1917
52570SOL    HW169435  12.360  11.101   0.202  0.6879  0.3265 -0.8129
52570SOL    HW269436  12.497  11.137   0.255 -0.0705  0.2998  1.2612
52571SOL     OW69437   9.501  12.598   0.282  0.3547 -0.3361  0.3497
52571SOL    HW169438   9.574  12.590   0.343  1.2095 -0.4552 -0.6500
52571SOL    HW269439   9.423  12.586   0.336  1.0683 -0.2446  1.4389
52572SOL     OW69440   3.737   1.391   3.454 -0.3073 -0.5034 -0.0454
52572SOL    HW169441   3.742   1.312   3.400 -0.5182  0.2399 -1.1900
52572SOL    HW269442   3.808   1.447   3.421  0.1870 -0.4215  1.1173
52573SOL     OW69443  11.771   2.611   0.606 -0.1335 -0.3452 -0.3398
52573SOL    HW169444  11.789   2.520   0.631 -3.4548 -1.2669 -0.7624
52573SOL    HW269445  11.748   2.607   0.513  0.5756  1.1192 -0.6095
52574SOL     OW69446   5.758   9.720   5.731 -0.1931  0.4310 -0.5836
52574SOL    HW169447   5.793   9.691   5.647  0.2021 -0.4734 -0.1243
52574SOL    HW269448   5.676   9.672   5.741 -0.0497  0.2395 -0.2866
52575SOL     OW69449   9.605  12.920   0.264 -0.0195 -0.0781 -0.1434
52575SOL    HW169450   9.526  12.909   0.210  1.2441  0.0296 -2.0975
52575SOL    HW269451   9.678  12.905   0.203  1.4855 -0.8269  1.7510
52576SOL     OW69452   8.501   2.599  10.343 -0.8041 -0.0551  0.1046
52576SOL    HW169453   8.484   2.530  10.279 -1.5814  0.2170  0.0092
52576SOL    HW269454   8.438   2.583  10.413 -2.4346  1.7543 -0.8705
52577SOL     OW69455  11.031  13.586   8.700  0.5109 -1.0518  0.1959
52577SOL    HW169456  11.060  13.627   8.781  1.2130 -0.3066 -0.4138
52577SOL    HW269457  11.100  13.523   8.679  0.6530 -0.7930 -0.1375
52578SOL     OW69458   9.880   3.638   6.552  0.2045  0.0098 -0.7199
52578SOL    HW169459   9.883   3.653   6.646  0.8310 -1.8422 -0.4095
52578SOL    HW269460   9.790   3.658   6.527 -0.2261 -0.4044  0.4535
52579SOL     OW69461  12.446   6.319   7.630 -0.0892  0.0678 -0.5796
52579SOL    HW169462  12.501   6.298   7.554 -2.6361  0.3110 -2.6207
52579SOL    HW269463  12.427   6.234   7.670  2.6851  0.0631  0.9743
52580SOL     OW69464   2.316  11.334   3.655  0.4022 -0.0298  0.4402
52580SOL    HW169465   2.249  11.266   3.665  0.1705  0.2605  0.8503
52580SOL    HW269466   2.302  11.368   3.567  0.0871 -0.0493  0.4803
52581SOL     OW69467   3.698   9.417   9.150 -0.6038  0.6716  0.8953
52581SOL    HW169468   3.639   9.411   9.226 -0.4177  0.8952  1.0586
52581SOL    HW269469   3.732   9.506   9.153  0.5132  0.2544  1.3839
52582SOL     OW69470  11.793  12.805  12.712 -0.0473 -0.0404 -0.0366
52582SOL    HW169471  11.718  12.755  12.682  0.6816 -0.3813 -1.3564
52582SOL    HW269472  11.852  12.809  12.637  0.0734  2.5330  0.1078
52583SOL     OW69473   5.366  10.369   0.956 -0.0106 -0.2380  0.1761
52583SOL    HW169474   5.413  10.380   0.873 -0.2119 -1.7161 -0.1654
52583SOL    HW269475   5.344  10.458   0.983  1.2982  0.3613 -0.6336
52584SOL     OW69476  10.576   1.971  12.448 -0.3057  0.2089  0.2359
52584SOL    HW169477  10.622   2.048  12.416  1.6833 -1.7385 -2.0158
52584SOL    HW269478  10.492   1.972  12.401 -0.1517  0.8238 -0.0361
52585SOL     OW69479   4.426   3.201   8.037 -0.4292  0.1364  0.1393
52585SOL    HW169480   4.463   3.150   7.965  1.6521  2.3265 -0.4955
52585SOL    HW269481   4.379   3.272   7.993  2.8639  2.9202  0.6585
52586SOL     OW69482   2.797   0.733  11.041 -0.7535 -0.3115  0.3668
52586SOL    HW169483   2.873   0.718  11.096 -0.9822  0.6703  0.9683
52586SOL    HW269484   2.755   0.811  11.077 -2.8935 -1.6613  0.9802
52587SOL     OW69485   8.337  10.321   7.529 -0.1499  0.4318  0.1829
52587SOL    HW169486   8.393  10.279   7.595 -0.5738  1.9711  1.5704
52587SOL    HW269487   8.373  10.291   7.445  1.5903 -0.0814  1.0640
52588SOL     OW69488   7.946   8.632  10.241 -0.1593 -0.2576 -0.7834
52588SOL    HW169489   7.929   8.704  10.301  1.5942 -0.0321 -0.5076
52588SOL    HW269490   7.918   8.553  10.288 -2.8392  0.2499 -1.3938
52589SOL     OW69491  10.529  10.696   7.619  0.0029  0.0339 -0.1025
52589SOL    HW169492  10.465  10.729   7.681  0.7602  0.4595  0.4776
52589SOL    HW269493  10.604  10.670   7.674  0.6329  0.2928 -0.8248
52590SOL     OW69494   8.559   4.495   7.386 -0.6637 -1.0645  0.6961
52590SOL    HW169495   8.534   4.426   7.447 -0.6916 -1.1839  0.5513
52590SOL    HW269496   8.633   4.458   7.337 -0.0875 -0.6503  1.2443
52591SOL     OW69497   3.796   4.945   1.533 -0.0457  0.1134  0.5090
52591SOL    HW169498   3.842   5.012   1.584  3.1903 -0.1230 -1.7322
52591SOL    HW269499   3.706   4.977   1.527  0.9981  3.5557  0.7822
52592SOL     OW69500   4.915  10.693  12.857 -0.6893 -0.0784 -0.1657
52592SOL    HW169501   4.870  10.729  12.780 -1.3989  0.7843  0.6201
52592SOL    HW269502   4.853  10.708  12.929  0.5996  0.5912  0.8406
52593SOL     OW69503   7.736   9.828   7.254 -0.4303 -0.2273  0.5189
52593SOL    HW169504   7.681   9.755   7.282  0.7209 -1.3709 -0.0731
52593SOL    HW269505   7.794   9.845   7.328 -0.2252 -0.3998  0.3994
52594SOL     OW69506   0.144  11.671   9.538  0.0748 -0.2496 -0.1070
52594SOL    HW169507   0.068  11.626   9.500  1.4057 -1.9221 -0.8892
52594SOL    HW269508   0.142  11.757   9.496 -0.8559 -0.5961 -0.8380
52595SOL     OW69509   5.443  12.103   9.471 -0.1907 -0.2149  0.2948
52595SOL    HW169510   5.401  12.167   9.414  0.5354  1.7115  1.8147
52595SOL    HW269511   5.382  12.029   9.473 -1.2503  0.5745 -1.2169
52596SOL     OW69512   3.558   8.415  10.504  0.1971 -0.0869 -0.1278
52596SOL    HW169513   3.594   8.457  10.425 -3.2440  1.4222 -1.0991
52596SOL    HW269514   3.517   8.335  10.472  0.2368 -0.3242  0.4132
52597SOL     OW69515   1.614   2.274  10.389  0.4990  0.3707 -0.0472
52597SOL    HW169516   1.578   2.213  10.324 -1.6793 -1.4263  2.6426
52597SOL    HW269517   1.694   2.232  10.420 -0.2357 -0.4359  0.7792
52598SOL     OW69518   8.852   4.221   6.708 -0.1727 -0.6084 -0.2414
52598SOL    HW169519   8.802   4.157   6.757 -1.3572  1.0776  0.8773
52598SOL    HW269520   8.904   4.267   6.775  0.9135 -0.6232 -1.0496
52599SOL     OW69521   8.902   8.214   9.327 -0.1595  0.3805 -0.1731
52599SOL    HW169522   8.885   8.157   9.402 -0.9012  2.1788  1.1154
52599SOL    HW269523   8.829   8.198   9.267 -0.7279  0.4439  0.4901
52600SOL     OW69524  12.930   4.424   9.891  0.1331  0.3443 -0.2370
52600SOL    HW169525  12.990   4.476   9.837 -1.2521  1.0181 -1.2118
52600SOL    HW269526  12.893   4.487   9.952 -0.4855  0.2161 -0.4680
52601SOL     OW69527   3.617   9.122   8.291 -0.4960 -0.1251  0.4644
52601SOL    HW169528   3.666   9.053   8.336  0.0053 -1.4369 -1.9493
52601SOL    HW269529   3.634   9.200   8.343  1.4407 -1.1912  1.5772
52602SOL     OW69530   5.903  13.571   7.832  0.0651  0.3212  0.1178
52602SOL    HW169531   5.957  13.502   7.870  0.3310  0.9510  0.9170
52602SOL    HW269532   5.837  13.524   7.780 -0.0426 -0.5493  1.0131
52603SOL     OW69533   1.017   4.550  11.382  0.6480  0.1256  0.4479
52603SOL    HW169534   1.061   4.634  11.394  0.9935  0.0826 -0.4467
52603SOL    HW269535   1.086   4.489  11.356  0.2486 -0.1911  0.0946
52604SOL     OW69536   5.079   2.534   2.994  0.3699  0.7981 -0.1450
52604SOL    HW169537   4.995   2.554   2.953 -0.1182 -1.7710 -0.5733
52604SOL    HW269538   5.130   2.493   2.924  1.3681  0.8186  0.5494
52605SOL     OW69539   2.438   7.922   1.678 -0.2402 -0.4484  0.2729
52605SOL    HW169540   2.446   7.941   1.585  0.2150 -0.6255  0.2687
52605SOL    HW269541   2.501   7.851   1.693 -0.9304 -1.0115  0.5448
52606SOL     OW69542   6.787   4.955   9.141  0.2902  0.5858  0.0457
52606SOL    HW169543   6.801   4.950   9.046 -1.1193  0.0236 -0.1641
52606SOL    HW269544   6.695   4.932   9.152  0.4129  0.7454  1.5559
52607SOL     OW69545   4.359   3.153   2.907  0.4014  0.0925 -0.3878
52607SOL    HW169546   4.344   3.134   2.814  2.2002 -1.6648 -0.3701
52607SOL    HW269547   4.450   3.181   2.911  0.2502  0.4458  0.8325
52608SOL     OW69548  10.052   2.211   9.135 -0.2629  0.5579 -0.2689
52608SOL    HW169549  10.044   2.193   9.041  1.5747 -1.3064 -0.1104
52608SOL    HW269550  10.143   2.191   9.156 -0.6982  0.7233  1.9788
52609SOL     OW69551  10.147   1.315  12.187  0.3674  0.1099 -0.4516
52609SOL    HW169552  10.165   1.224  12.163  1.5873 -0.4230  2.0967
52609SOL    HW269553  10.063   1.335  12.146 -0.1576 -2.3324 -0.7085
52610SOL     OW69554   6.989   6.161   8.112 -0.3440  0.0336 -0.5650
52610SOL    HW169555   6.934   6.238   8.125 -0.1570  0.2802 -1.2007
52610SOL    HW269556   6.994   6.151   8.017  2.4657  1.3406 -0.6690
52611SOL     OW69557  13.459   3.975  10.426 -0.1675 -0.2161 -0.8542
52611SOL    HW169558  13.492   4.002  10.340  0.6494 -1.5202 -0.9749
52611SOL    HW269559  13.423   3.888  10.411  1.0859 -0.9759  0.3654
52612SOL     OW69560   9.421   6.436   3.588  0.1090  0.5674  0.2483
52612SOL    HW169561   9.427   6.527   3.561 -1.6953  0.5909 -0.2341
52612SOL    HW269562   9.420   6.439   3.683  0.3590  1.0193  0.2407
52613SOL     OW69563   9.151  10.693   5.599  0.7487  0.0526  0.1770
52613SOL    HW169564   9.243  10.681   5.622  0.8842  1.5714  0.5173
52613SOL    HW269565   9.153  10.748   5.522  0.1072  1.5883  1.2140
52614SOL     OW69566   0.235   2.441   7.579 -0.2598  0.2565 -0.1441
52614SOL    HW169567   0.256   2.354   7.546  0.9899  0.1656  0.8180
52614SOL    HW269568   0.290   2.500   7.527 -0.3544  0.3736 -0.1097
52615SOL     OW69569  11.638   8.756   0.171 -0.0142 -0.0169 -0.1986
52615SOL    HW169570  11.593   8.683   0.214 -1.7445 -0.2107 -2.1553
52615SOL    HW269571  11.628   8.739   0.078  1.7945  1.4262 -0.7193
52616SOL     OW69572   8.708   8.376   8.520  0.1377  0.4082 -0.5241
52616SOL    HW169573   8.733   8.467   8.537  0.8270  0.3645 -1.2993
52616SOL    HW269574   8.662   8.350   8.600  0.0602  1.3847 -0.2292
52617SOL     OW69575  10.428  12.372  10.852  0.7005  0.2031 -0.4203
52617SOL    HW169576  10.441  12.277  10.859  0.9725  0.3118  0.8496
52617SOL    HW269577  10.368  12.393  10.923  0.1400  0.9011 -1.0959
52618SOL     OW69578   0.547   8.680   0.224 -0.4278 -0.4713 -0.3728
52618SOL    HW169579   0.492   8.605   0.244 -2.2690  1.5674  3.1601
52618SOL    HW269580   0.486   8.749   0.198  0.4363  1.4735  2.3277
52619SOL     OW69581   3.555  10.708   6.760 -0.5740 -0.1681  0.9973
52619SOL    HW169582   3.510  10.655   6.694  0.1560 -0.5535  0.8009
52619SOL    HW269583   3.485  10.760   6.800 -1.3722 -1.4802  1.3957
52620SOL     OW69584   7.413  10.455   1.875 -0.0387 -0.1222 -0.1208
52620SOL    HW169585   7.342  10.438   1.936  0.8619 -1.5668  0.5829
52620SOL    HW269586   7.473  10.381   1.887  2.1264  1.5713  0.1060
52621SOL     OW69587   5.591   0.840   2.715 -0.1269 -0.3733  0.6385
52621SOL    HW169588   5.584   0.758   2.666  0.1947 -0.1916  0.2844
52621SOL    HW269589   5.659   0.890   2.669 -2.7565  1.6203 -1.3719
52622SOL     OW69590   6.867   5.500   1.712 -0.0908 -0.3759  0.1099
52622SOL    HW169591   6.890   5.583   1.669  0.1587 -0.6098 -0.2175
52622SOL    HW269592   6.912   5.504   1.797 -2.2292  0.9747  1.2520
52623SOL     OW69593  12.319   4.793   6.539  0.2519 -0.5012  0.3830
52623SOL    HW169594  12.240   4.790   6.485 -1.7187  1.0563  2.9587
52623SOL    HW269595  12.381   4.846   6.489 -0.8981 -0.4498 -1.0263
52624SOL     OW69596   3.954  11.772   5.292  0.1805 -0.1771  0.1722
52624SOL    HW169597   4.004  11.694   5.315 -1.2414 -1.5963 -1.2634
52624SOL    HW269598   3.919  11.804   5.376  2.1291 -0.0602  0.9841
52625SOL     OW69599   1.553   8.795   1.358 -0.7276  0.0931 -0.3155
52625SOL    HW169600   1.613   8.732   1.318  1.3326  0.9820  1.1913
52625SOL    HW269601   1.528   8.755   1.442 -1.5196  0.1563 -0.5056
52626SOL     OW69602   8.513   8.846   6.665 -0.0398 -0.0432  0.4363
52626SOL    HW169603   8.550   8.818   6.749 -0.5638  2.4523  1.5951
52626SOL    HW269604   8.424   8.811   6.666 -0.1722  0.2887  1.1161
52627SOL     OW69605   1.501  10.477   3.208  0.2397  0.9806 -0.0201
52627SOL    HW169606   1.456  10.394   3.194 -0.8540  1.7325 -1.2204
52627SOL    HW269607   1.515  10.511   3.119  0.9506  1.9360  0.4451
52628SOL     OW69608   8.522   4.031   1.434 -0.2255  0.1259 -0.1132
52628SOL    HW169609   8.478   4.109   1.468  1.4674  0.2376  2.0948
52628SOL    HW269610   8.458   3.961   1.446 -0.6848  0.6763  0.7714
52629SOL     OW69611  11.883   0.180   1.793  0.2316  0.4204 -0.0174
52629SOL    HW169612  11.812   0.116   1.791  0.2062  0.4151  0.8504
52629SOL    HW269613  11.957   0.134   1.832  0.3138  0.8109  0.3013
52630SOL     OW69614   9.288   0.637   6.105  0.1175 -0.5518  0.3287
52630SOL    HW169615   9.317   0.586   6.030  2.6083 -3.0135  2.7374
52630SOL    HW269616   9.326   0.724   6.091 -1.5462 -0.1612 -2.3305
52631SOL     OW69617  10.522   5.289  13.187  0.7781  0.3482 -0.2198
52631SOL    HW169618  10.532   5.382  13.169  1.2241  0.3101 -0.1824
52631SOL    HW269619  10.612   5.256  13.191  0.6118 -0.4474 -2.1230
52632SOL     OW69620   1.289   8.951   1.278  0.5341 -0.0169 -0.1952
52632SOL    HW169621   1.227   9.001   1.330  0.5488 -1.0450  0.8523
52632SOL    HW269622   1.252   8.862   1.275  0.8011 -0.0958 -1.5064
52633SOL     OW69623   4.583  12.041   6.512 -0.2502  0.3267 -0.3656
52633SOL    HW169624   4.532  12.055   6.591  0.1464 -0.6924  0.0865
52633SOL    HW269625   4.520  12.010   6.447 -0.6814  1.7048 -0.6536
52634SOL     OW69626   2.996   0.617   3.492  0.0151  0.3123 -0.0765
52634SOL    HW169627   2.981   0.526   3.517 -2.3067  0.2621 -1.4402
52634SOL    HW269628   3.054   0.612   3.416 -0.7461 -0.1100 -0.6441
52635SOL     OW69629  10.082  12.744   9.674  0.0572 -0.1753 -0.4159
52635SOL    HW169630  10.151  12.680   9.694 -0.5409 -0.6416  0.1846
52635SOL    HW269631  10.004  12.710   9.718  0.4163  2.5556  2.6788
52636SOL     OW69632  10.384  12.521   6.369  0.3594  0.2349 -0.3005
52636SOL    HW169633  10.313  12.578   6.339  1.3829  1.9465  0.3735
52636SOL    HW269634  10.391  12.539   6.463  0.5723 -1.2027 -0.0180
52637SOL     OW69635  10.521   9.802   6.402 -0.0870 -0.0977 -0.1035
52637SOL    HW169636  10.440   9.753   6.395 -0.2704  0.3325 -1.2294
52637SOL    HW269637  10.528   9.825   6.495  0.2799 -2.6673  0.5856
52638SOL     OW69638   3.358  10.850  11.781 -0.4538 -0.0235 -0.2110
52638SOL    HW169639   3.421  10.777  11.778 -0.3103  0.1298 -1.2288
52638SOL    HW269640   3.408  10.923  11.816 -0.0435  0.1043 -1.0439
52639SOL     OW69641   9.638   7.237   4.375 -0.2538  0.1418 -0.4723
52639SOL    HW169642   9.542   7.231   4.370 -0.3725  0.1189  1.2538
52639SOL    HW269643   9.664   7.162   4.427  0.6638  0.4560 -0.4662
52640SOL     OW69644   3.266   3.145   2.726  0.4500  0.2321 -0.2676
52640SOL    HW169645   3.291   3.057   2.754 -1.1731  0.3327  1.6536
52640SOL    HW269646   3.172   3.141   2.713 -0.3529  2.4631  3.4059
52641SOL     OW69647   4.785   4.019   6.221  0.1088  0.2874  0.0313
52641SOL    HW169648   4.872   3.985   6.202  0.3913  1.1887 -0.3867
52641SOL    HW269649   4.791   4.112   6.199 -1.1728  0.2144 -0.7443
52642SOL     OW69650   7.689   3.741   6.055 -0.4597 -0.0631  0.2418
52642SOL    HW169651   7.675   3.656   6.014  0.3902 -0.7127  1.2545
52642SOL    HW269652   7.713   3.720   6.145 -0.1066  1.2496  0.4675
52643SOL     OW69653  12.574   2.570   0.073  0.2637 -0.2259  0.1324
52643SOL    HW169654  12.543   2.624   0.146  0.1268  0.0605 -0.1317
52643SOL    HW269655  12.494   2.544   0.027  0.3733 -0.0524 -0.1579
52644SOL     OW69656   9.407   8.054   0.432 -0.0425  0.1446  0.0695
52644SOL    HW169657   9.341   8.079   0.497  0.7159  0.1977  0.8318
52644SOL    HW269658   9.376   8.092   0.350 -1.2672 -0.3337  0.2900
52645SOL     OW69659   1.223   3.268  12.202  0.2346 -0.5543 -0.0670
52645SOL    HW169660   1.309   3.308  12.189  0.1016  0.5261  1.9422
52645SOL    HW269661   1.197   3.239  12.115  1.1987  2.0725 -1.3615
52646SOL     OW69662   1.723   2.749   0.023  0.1169 -0.5303  0.0214
52646SOL    HW169663   1.689   2.832   0.057  0.2544  0.4878 -2.1878
52646SOL    HW269664   1.816   2.750   0.045  0.1708  0.0287 -0.2151
52647SOL     OW69665  11.414   4.323   3.669  0.4474 -0.5161  0.4859
52647SOL    HW169666  11.393   4.392   3.732 -1.1803 -0.4291 -0.1100
52647SOL    HW269667  11.428   4.369   3.586  0.6202 -0.8005  0.3551
52648SOL     OW69668   6.637   3.522   8.362 -0.4089 -0.2138 -0.8242
52648SOL    HW169669   6.632   3.529   8.458 -0.5643 -0.5076 -0.8091
52648SOL    HW269670   6.566   3.578   8.330  1.6175  2.5104 -0.8830
52649SOL     OW69671   1.138   1.134   8.373  0.1544  0.5835 -0.4291
52649SOL    HW169672   1.121   1.203   8.309 -2.0049  0.0484 -0.5179
52649SOL    HW269673   1.131   1.179   8.458  1.8193  1.0452 -0.4988
52650SOL     OW69674   3.981   5.695   7.091  0.3874  0.2376  0.0619
52650SOL    HW169675   4.032   5.619   7.117  0.4078  0.6536  1.3361
52650SOL    HW269676   4.047   5.760   7.066  0.6131  1.0214  2.3865
52651SOL     OW69677   2.669   6.431  10.512 -0.2536 -0.2936 -0.4618
52651SOL    HW169678   2.621   6.504  10.472 -0.0266 -0.5082 -1.1372
52651SOL    HW269679   2.754   6.432  10.469 -0.9072 -2.1887 -1.9856
52652SOL     OW69680   7.419   0.228  13.665  0.4920 -0.1545  0.3490
52652SOL    HW169681   7.429   0.148  13.717  0.2881 -0.8167 -0.6076
52652SOL    HW269682   7.509   0.262  13.657  0.5852 -0.3051  0.7129
52653SOL     OW69683   2.287   1.637   2.431 -0.4622 -0.1820  0.3329
52653SOL    HW169684   2.198   1.625   2.398 -0.0765 -0.2197 -0.7360
52653SOL    HW269685   2.292   1.580   2.508 -0.7972 -1.6208 -0.6712
52654SOL     OW69686   6.952  11.976   0.834  0.0738 -0.4646 -0.1746
52654SOL    HW169687   6.859  11.953   0.832 -0.1781  0.1253  2.0801
52654SOL    HW269688   6.993  11.909   0.888  0.1812  1.3513  2.2139
52655SOL     OW69689   3.356   1.872   6.959  0.2399  0.7138  0.5498
52655SOL    HW169690   3.307   1.825   7.027  0.0932  1.1642  0.7607
52655SOL    HW269691   3.431   1.815   6.940  0.4481  0.7213  1.3085
52656SOL     OW69692   3.832   2.266  13.081 -0.3987  0.2841  0.5593
52656SOL    HW169693   3.927   2.254  13.084 -0.2811  0.4292 -1.2843
52656SOL    HW269694   3.821   2.361  13.081 -0.6131  0.2745  1.5169
52657SOL     OW69695   8.243   0.039   9.716 -0.1998  0.0429 -0.4279
52657SOL    HW169696   8.154   0.022   9.747 -0.3517 -2.1257 -1.8574
52657SOL    HW269697   8.233   0.111   9.653 -0.7682  0.4152  0.0694
52658SOL     OW69698   7.633   8.541   7.070 -0.0300 -0.6417 -0.2607
52658SOL    HW169699   7.571   8.468   7.067  0.6674 -1.2216 -1.5478
52658SOL    HW269700   7.643   8.568   6.979  0.4784  0.4170  0.0914
52659SOL     OW69701   6.294  11.717  10.114 -0.2633  0.2183 -0.4116
52659SOL    HW169702   6.322  11.759  10.033 -0.7730  2.6652  0.5922
52659SOL    HW269703   6.331  11.772  10.183 -0.1069 -1.6219  1.0378
52660SOL     OW69704   1.479  11.429   8.952 -0.0055 -0.4547 -0.1702
52660SOL    HW169705   1.395  11.384   8.944 -1.0048  1.4802 -1.1690
52660SOL    HW269706   1.504  11.418   9.044 -1.8113 -0.3086  0.3610
52661SOL     OW69707   2.111   4.381   9.197 -0.0115  0.2194  0.1015
52661SOL    HW169708   2.117   4.314   9.265  1.0031 -1.1683 -1.2928
52661SOL    HW269709   2.190   4.369   9.144 -0.3339  1.8407 -0.8166
52662SOL     OW69710   1.586  12.319  12.909 -0.0267  0.4567 -0.0281
52662SOL    HW169711   1.666  12.331  12.858  0.6597 -1.6572  0.4277
52662SOL    HW269712   1.523  12.285  12.846  0.3964 -0.8023  0.1940
52663SOL     OW69713   2.871   8.475   9.560 -0.1439 -0.2098  0.0138
52663SOL    HW169714   2.951   8.514   9.524  0.2019 -1.5949 -0.8248
52663SOL    HW269715   2.818   8.549   9.588  0.0887  0.9338 -2.3166
52664SOL     OW69716  11.535  10.713  13.090  0.1512  0.4440 -0.2909
52664SOL    HW169717  11.507  10.710  13.181 -0.2296  2.1296 -0.3240
52664SOL    HW269718  11.502  10.632  13.052 -1.5005  0.6696  0.5707
52665SOL     OW69719  12.525   8.897   7.162 -0.0645 -0.6717 -0.6519
52665SOL    HW169720  12.585   8.830   7.130 -0.8553 -0.9943 -1.5204
52665SOL    HW269721  12.464   8.911   7.089 -1.1660 -0.5080  0.2719
52666SOL     OW69722   9.874  13.007  11.449 -0.3493 -0.4341 -0.6443
52666SOL    HW169723   9.928  12.943  11.401  0.4370 -0.7809  0.6520
52666SOL    HW269724   9.792  13.010  11.400  0.0314 -1.5711 -1.4017
52667SOL     OW69725   2.494   9.045   5.069 -0.5006 -0.5237  0.4118
52667SOL    HW169726   2.500   9.134   5.033  1.0783 -0.2783  1.1803
52667SOL    HW269727   2.428   9.002   5.015  0.2112  0.4871 -1.3636
52668SOL     OW69728   0.157  13.086   5.523 -0.0212  0.4235 -0.2944
52668SOL    HW169729   0.121  13.009   5.567  0.3856  0.7778  0.7053
52668SOL    HW269730   0.093  13.156   5.542 -0.8607  0.1686 -1.9542
52669SOL     OW69731   3.988   2.644  10.457 -0.4357 -0.2990  0.1208
52669SOL    HW169732   3.899   2.677  10.445 -0.0311  0.3054 -1.5256
52669SOL    HW269733   3.992   2.620  10.549 -2.0859  0.2906  0.3936
52670SOL     OW69734  12.420  12.242   0.692  0.0806  0.0805 -0.6006
52670SOL    HW169735  12.458  12.154   0.701 -2.6791 -1.0889  0.8800
52670SOL    HW269736  12.458  12.292   0.765 -2.3091 -1.6117  2.0373
52671SOL     OW69737  12.993   5.316   9.636  0.6434  0.1509 -0.4310
52671SOL    HW169738  13.062   5.341   9.698  1.5301  0.2802 -1.4412
52671SOL    HW269739  12.913   5.350   9.676  0.9600 -1.0549  1.3773
52672SOL     OW69740  10.246   4.565  10.465  0.0917 -0.2720 -0.5315
52672SOL    HW169741  10.217   4.505  10.534  0.3843  1.6478  1.3537
52672SOL    HW269742  10.338   4.579  10.482 -0.3575  2.1143  0.2446
52673SOL     OW69743   2.914   9.192   5.869  0.1711 -0.3770  0.4921
52673SOL    HW169744   2.842   9.229   5.818 -0.3332  0.1603  1.5625
52673SOL    HW269745   2.985   9.255   5.859  0.1541 -0.3884  0.2820
52674SOL     OW69746   4.231   4.409  12.599 -0.2603 -0.7269  0.0851
52674SOL    HW169747   4.298   4.340  12.591  0.4629 -0.1443  1.0141
52674SOL    HW269748   4.207   4.428  12.508  0.7966 -0.9904 -0.2716
52675SOL     OW69749   0.708  13.285  13.435 -0.0118 -0.2036  0.9226
52675SOL    HW169750   0.649  13.210  13.430 -0.6603  0.2595  1.4230
52675SOL    HW269751   0.667  13.343  13.500  0.5070  0.5556  0.5819
52676SOL     OW69752  10.529   2.861   2.791  0.1320  0.1120  0.2538
52676SOL    HW169753  10.531   2.790   2.727  0.1796  0.1327  0.2325
52676SOL    HW269754  10.619   2.867   2.824 -0.2919 -1.1702  1.7245
52677SOL     OW69755   9.752   0.705   2.104  0.2678  0.0610  0.4621
52677SOL    HW169756   9.770   0.798   2.088  2.1523 -0.5699 -1.4736
52677SOL    HW269757   9.836   0.669   2.134  0.0650 -1.3724 -0.6212
52678SOL     OW69758  13.396   0.457   0.286 -0.0114  0.0306  0.0294
52678SOL    HW169759  13.458   0.384   0.294 -0.0051 -0.1184 -1.2742
52678SOL    HW269760  13.422   0.518   0.355  2.7636  0.8171 -1.5744
52679SOL     OW69761  10.802   5.876   8.866  0.8534  0.8230 -0.5872
52679SOL    HW169762  10.820   5.956   8.915 -1.3291  0.6547  0.6059
52679SOL    HW269763  10.733   5.833   8.916 -0.3400 -0.1722 -2.9820
52680SOL     OW69764   8.573   3.129   4.592 -0.4590 -0.0846 -0.3723
52680SOL    HW169765   8.621   3.157   4.514  0.6511  1.5630  0.8462
52680SOL    HW269766   8.541   3.210   4.631  0.9003 -0.6243  2.0639
52681SOL     OW69767   6.861   4.430   9.334  0.0823  0.1024 -0.2158
52681SOL    HW169768   6.856   4.354   9.276 -0.6630  0.8602 -1.1922
52681SOL    HW269769   6.838   4.504   9.278  0.8167  1.0570  0.7091
52682SOL     OW69770   5.538   7.859   6.480  0.4288  0.3651  0.1395
52682SOL    HW169771   5.627   7.886   6.501  0.8617 -1.6527  1.2171
52682SOL    HW269772   5.482   7.916   6.533  1.2310 -0.0976  1.5402
52683SOL     OW69773   6.728  11.735  10.875  0.0793  0.3928  0.5832
52683SOL    HW169774   6.709  11.725  10.968 -0.7493 -2.0161  0.2430
52683SOL    HW269775   6.781  11.658  10.853 -0.7536  0.2642 -1.1659
52684SOL     OW69776  10.319  10.502   7.574 -0.1076  0.1179 -0.1098
52684SOL    HW169777  10.386  10.435   7.588 -0.8288 -0.7195 -0.4867
52684SOL    HW269778  10.365  10.585   7.579  1.2992 -0.4747 -2.0519
52685SOL     OW69779   7.168  13.490   2.252  0.4042 -0.3123 -0.6999
52685SOL    HW169780   7.179  13.560   2.187  2.0129 -0.6863 -0.8762
52685SOL    HW269781   7.241  13.501   2.312  0.4801 -1.6050 -0.5150
52686SOL     OW69782   2.528   1.587   2.339 -0.2297 -0.0797 -0.2630
52686SOL    HW169783   2.552   1.678   2.324 -1.5791  0.4406  0.5441
52686SOL    HW269784   2.433   1.588   2.348 -0.1266 -1.2247  1.8064
52687SOL     OW69785   9.373  10.613   7.745 -0.3242 -0.8221 -0.0654
52687SOL    HW169786   9.363  10.518   7.733 -2.3980 -0.4850 -1.6372
52687SOL    HW269787   9.322  10.633   7.823 -0.7683 -0.8965 -0.3292
52688SOL     OW69788  13.039   4.566  10.385 -0.8199  0.7617  0.0546
52688SOL    HW169789  13.014   4.634  10.448 -1.8993  0.3605  0.0901
52688SOL    HW269790  13.071   4.615  10.309  1.6458  1.2481  1.2934
52689SOL     OW69791  10.385   5.133   8.732  0.4900 -0.1588  0.1365
52689SOL    HW169792  10.350   5.123   8.643 -1.1651  0.2250  0.7154
52689SOL    HW269793  10.380   5.045   8.769  0.8782 -0.2533 -0.0230
52690SOL     OW69794   2.568   8.197  11.734  0.3732 -0.5246 -0.2480
52690SOL    HW169795   2.650   8.149  11.737  0.0653 -1.0120  0.8219
52690SOL    HW269796   2.530   8.185  11.821 -1.8332 -2.0429 -1.3369
52691SOL     OW69797   9.385   0.638   1.181 -0.6418 -0.4386  0.2348
52691SOL    HW169798   9.328   0.598   1.115 -2.4643 -1.4972  2.3382
52691SOL    HW269799   9.358   0.730   1.183  0.3714 -0.0622 -1.3735
52692SOL     OW69800   0.695   0.503   0.038 -0.3614 -0.5856  0.1464
52692SOL    HW169801   0.718   0.596   0.035  0.1400 -0.6436  1.4265
52692SOL    HW269802   0.651   0.493   0.122 -1.3274 -1.3245 -0.4287
52693SOL     OW69803   0.381  10.432   1.092 -0.0975 -0.0980  0.1088
52693SOL    HW169804   0.418  10.512   1.129 -0.6594 -0.2016  0.8979
52693SOL    HW269805   0.437  10.413   1.016  1.7557 -0.4710  1.4817
52694SOL     OW69806  10.508   8.399   1.451 -0.1818 -0.2333  0.1634
52694SOL    HW169807  10.520   8.433   1.539 -1.9284 -0.3469  0.4773
52694SOL    HW269808  10.434   8.338   1.458 -1.0779  0.5795 -1.5637
52695SOL     OW69809   0.003  12.159  10.183 -0.0733 -0.1595 -0.3552
52695SOL    HW169810   0.079  12.117  10.224  0.7591  0.0868 -1.5813
52695SOL    HW269811   0.010  12.251  10.209  0.4594 -0.0022 -1.0151
52696SOL     OW69812   8.928   7.644   0.961 -0.2538 -0.5359  0.2496
52696SOL    HW169813   8.848   7.683   0.996 -0.0461  0.6784 -0.5523
52696SOL    HW269814   8.924   7.663   0.867  1.6813  0.9323  0.3913
52697SOL     OW69815   0.580   9.831   1.582  0.2965 -0.2873 -0.0799
52697SOL    HW169816   0.602   9.738   1.577 -1.2162 -0.5996 -2.2238
52697SOL    HW269817   0.576   9.859   1.491 -1.1793  1.3926  0.4566
52698SOL     OW69818   3.834  10.185   4.286  0.1624  1.1099  0.2081
52698SOL    HW169819   3.796  10.186   4.374 -1.9525  3.1317 -0.6276
52698SOL    HW269820   3.795  10.109   4.244  1.2356  0.0921  0.9786
52699SOL     OW69821  10.230   3.009   3.233 -0.0130  0.4932  0.3142
52699SOL    HW169822  10.180   3.081   3.194  1.4219  1.5750  0.3799
52699SOL    HW269823  10.301   2.993   3.170  0.2454 -0.1965  0.7735
52700SOL     OW69824   8.652   1.682   4.666 -0.0340 -0.5756  0.0183
52700SOL    HW169825   8.584   1.683   4.600 -0.3649 -0.4578  0.3565
52700SOL    HW269826   8.733   1.700   4.618 -0.3432  0.0931 -0.2675
52701SOL     OW69827   5.397   8.589   8.728 -0.2295  0.1961 -0.2957
52701SOL    HW169828   5.428   8.626   8.645 -2.3097  1.1326 -0.7336
52701SOL    HW269829   5.316   8.544   8.706 -1.0075  0.7392  1.2407
52702SOL     OW69830   3.903   6.459   6.780  0.0211 -0.0008 -0.4727
52702SOL    HW169831   3.826   6.496   6.823  1.6161  1.5270  1.2672
52702SOL    HW269832   3.961   6.434   6.852  1.1336 -1.2097 -1.7230
52703SOL     OW69833  13.384   7.265   5.330  0.0948 -0.1526 -0.0956
52703SOL    HW169834  13.329   7.338   5.303  0.0843 -0.8928 -2.2485
52703SOL    HW269835  13.340   7.229   5.407 -0.2742  1.6398  0.5691
52704SOL     OW69836   4.907  11.585   4.525 -0.0728 -0.3684 -0.0687
52704SOL    HW169837   4.839  11.579   4.458  0.7864 -0.9178 -0.9183
52704SOL    HW269838   4.958  11.505   4.514  0.2885 -0.3031  1.0292
52705SOL     OW69839   3.324   9.925   8.257  0.1576 -0.1880 -0.2404
52705SOL    HW169840   3.382   9.917   8.332  0.6378 -0.4836 -0.6318
52705SOL    HW269841   3.237   9.906   8.291  0.5489 -1.7315 -0.0239
52706SOL     OW69842   9.256   7.207   4.065  0.5481  0.1742  0.1046
52706SOL    HW169843   9.318   7.218   3.993 -0.7311 -0.9308 -1.2257
52706SOL    HW269844   9.182   7.263   4.042 -0.0888 -0.5722  0.2994
52707SOL     OW69845  10.785   3.685   3.201  0.5716 -0.0598  0.3015
52707SOL    HW169846  10.699   3.722   3.180  0.8578  0.5460  0.1807
52707SOL    HW269847  10.780   3.595   3.169  0.4261  0.3523 -0.9084
52708SOL     OW69848   9.336  11.827   2.227  0.7108 -0.0272 -0.4808
52708SOL    HW169849   9.335  11.802   2.135 -0.5532 -0.7287 -0.2996
52708SOL    HW269850   9.355  11.920   2.227 -1.5482  0.4857 -1.6056
52709SOL     OW69851   9.172   7.916   0.264 -0.7610  0.4355  0.1670
52709SOL    HW169852   9.122   7.961   0.333  0.6878 -0.6573  2.0037
52709SOL    HW269853   9.228   7.985   0.227  0.2140  0.5743  1.7963
52710SOL     OW69854  13.226   7.973  12.695  0.3422 -0.0313  0.1319
52710SOL    HW169855  13.239   7.906  12.762 -1.7840  0.4835  1.1328
52710SOL    HW269856  13.216   7.924  12.614  0.2286 -0.8481  0.6270
52711SOL     OW69857   2.187   7.554   5.408  0.0504  0.3113  0.0127
52711SOL    HW169858   2.093   7.567   5.412  0.0429  0.1559  0.4125
52711SOL    HW269859   2.224   7.642   5.409 -0.1195  0.4280 -1.3626
52712SOL     OW69860   4.583   2.937   7.155 -0.4177 -0.1200  0.3896
52712SOL    HW169861   4.607   3.028   7.135 -0.5683 -0.5677 -2.0390
52712SOL    HW269862   4.490   2.932   7.133 -0.5568 -0.7299  1.0826
52713SOL     OW69863  10.299   7.782  11.483 -0.0679 -0.0879 -0.4660
52713SOL    HW169864  10.254   7.787  11.567 -0.0260  0.5489 -0.4720
52713SOL    HW269865  10.285   7.692  11.453 -0.2152 -0.2746  0.1456
52714SOL     OW69866  13.680   8.295  11.203 -0.2647  0.3052  0.7880
52714SOL    HW169867  13.650   8.382  11.176  0.5941  0.2859 -0.2922
52714SOL    HW269868  13.697   8.304  11.296  0.5101  1.5060  0.5484
52715SOL     OW69869   1.488   3.464   7.401 -0.0483 -0.3383 -0.1487
52715SOL    HW169870   1.556   3.430   7.459  0.8236  1.1950 -0.2030
52715SOL    HW269871   1.473   3.394   7.337  1.1873 -0.8657  0.1084
52716SOL     OW69872  10.098   2.642   6.398  0.7107  0.1537  1.0455
52716SOL    HW169873  10.043   2.668   6.324  0.6208 -0.9829  0.6848
52716SOL    HW269874  10.091   2.714   6.460 -0.6433  0.3388  0.7170
52717SOL     OW69875  12.368   4.179  11.014  0.4680  0.0586 -0.7589
52717SOL    HW169876  12.322   4.160  10.932 -0.6241 -0.7235  0.0059
52717SOL    HW269877  12.396   4.270  11.005 -1.7928  0.7904 -1.0325
52718SOL     OW69878   6.155  11.413   9.101 -0.5009  0.3126 -0.3099
52718SOL    HW169879   6.098  11.482   9.136 -0.5335  0.5105 -0.7445
52718SOL    HW269880   6.204  11.457   9.031 -0.5963 -0.1359 -0.6584
52719SOL     OW69881  11.674   4.528   9.615  0.5406 -0.1286  0.0911
52719SOL    HW169882  11.688   4.541   9.708  3.1949  1.0532 -0.3885
52719SOL    HW269883  11.734   4.457   9.591 -1.0465 -1.3145 -0.5181
52720SOL     OW69884   0.112   3.122   0.902 -0.5409  0.0610 -0.3078
52720SOL    HW169885   0.186   3.066   0.925 -0.9352 -0.4721 -0.3054
52720SOL    HW269886   0.120   3.198   0.960  1.2915  1.1388 -1.8601
52721SOL     OW69887   6.645   1.491   4.722 -0.2066 -0.0685 -0.1187
52721SOL    HW169888   6.646   1.586   4.732  0.4799 -0.1469  0.7239
52721SOL    HW269889   6.714   1.460   4.781  0.7318 -0.9844 -1.6220
52722SOL     OW69890   3.462   4.215  12.357 -0.7542  0.4012  0.2477
52722SOL    HW169891   3.404   4.250  12.289  0.8612 -0.8191 -1.8594
52722SOL    HW269892   3.452   4.120  12.350 -0.1885  0.2376  1.4324
52723SOL     OW69893   8.070   4.253   6.752  0.2440  0.2332  0.0985
52723SOL    HW169894   8.079   4.158   6.748 -1.7531  0.0401 -1.5858
52723SOL    HW269895   7.991   4.268   6.804  0.0771  0.9383 -0.3406
52724SOL     OW69896   8.283   7.771  11.176 -0.8407 -0.4087  0.1387
52724SOL    HW169897   8.357   7.787  11.234  0.4691 -0.2359 -1.5004
52724SOL    HW269898   8.230   7.851  11.183 -2.1448 -1.3720  2.9689
52725SOL     OW69899  12.765   1.518   4.082  0.3401  0.1120 -0.0324
52725SOL    HW169900  12.846   1.471   4.064  1.1467  1.7421 -0.8405
52725SOL    HW269901  12.764   1.590   4.019 -2.1430 -0.3118 -0.5970
52726SOL     OW69902   6.700   3.145   2.200 -0.4161 -0.0418 -0.2211
52726SOL    HW169903   6.661   3.231   2.184  0.0695  0.3911  0.8005
52726SOL    HW269904   6.630   3.095   2.244 -0.8636 -0.3496 -1.2591
52727SOL     OW69905   5.865   5.675   0.623  0.9046  0.3196  0.5189
52727SOL    HW169906   5.872   5.662   0.718  0.7042  1.3631  0.6929
52727SOL    HW269907   5.955   5.667   0.591  0.9080 -0.5241  0.7191
52728SOL     OW69908   5.659  10.073  13.414 -0.4727 -0.6794 -0.2489
52728SOL    HW169909   5.618   9.997  13.456 -2.2789  0.5305  0.2972
52728SOL    HW269910   5.753  10.053  13.414 -0.7329 -2.1315  1.4982
52729SOL     OW69911   3.775   4.776   8.675 -0.2525 -0.4534  0.0087
52729SOL    HW169912   3.685   4.809   8.675  0.3497  1.2408  0.1151
52729SOL    HW269913   3.786   4.740   8.586 -0.0740  2.1463 -1.1015
52730SOL     OW69914   3.495   9.245   5.342 -0.7282  0.0361 -0.4477
52730SOL    HW169915   3.437   9.283   5.409 -0.7412 -0.6671 -0.0538
52730SOL    HW269916   3.545   9.178   5.388  0.5938  0.7988 -0.7276
52731SOL     OW69917   9.482   2.738   0.749 -0.1144  0.0155  0.4750
52731SOL    HW169918   9.528   2.776   0.823  0.0135 -1.4688  1.1914
52731SOL    HW269919   9.432   2.666   0.786 -1.1104  0.0826 -0.6816
52732SOL     OW69920   1.429   9.883   2.610  0.1030 -0.3865 -0.2601
52732SOL    HW169921   1.508   9.831   2.627 -0.0804 -0.3578  0.7091
52732SOL    HW269922   1.364   9.818   2.584 -0.0510 -0.6344  0.6931
52733SOL     OW69923   6.298  13.282  13.530 -0.6066 -0.0771 -0.0360
52733SOL    HW169924   6.390  13.306  13.525  0.3046 -3.0417  0.7823
52733SOL    HW269925   6.266  13.326  13.609  0.4038  0.0026  0.3383
52734SOL     OW69926   8.489   1.264  12.491 -0.1426 -0.1756 -0.1254
52734SOL    HW169927   8.483   1.282  12.584  0.5872 -0.6891  0.0259
52734SOL    HW269928   8.562   1.202  12.482  1.0373  1.3094 -1.2422
52735SOL     OW69929   6.853  12.292   2.942  0.1217 -0.4775 -0.5435
52735SOL    HW169930   6.813  12.235   3.008  0.5979 -1.4453 -1.0722
52735SOL    HW269931   6.915  12.236   2.896  0.9202  0.5822 -0.8003
52736SOL     OW69932  12.224   1.425   7.185 -0.2728  0.2576  0.1996
52736SOL    HW169933  12.169   1.410   7.262 -1.5867  0.3395 -0.6738
52736SOL    HW269934  12.222   1.520   7.172 -0.9419  0.1566 -0.5252
52737SOL     OW69935   7.759   6.741  11.229 -0.1492  0.0984 -0.5486
52737SOL    HW169936   7.678   6.724  11.181 -0.9170  0.7529  0.4887
52737SOL    HW269937   7.733   6.741  11.321  1.3522 -1.4915 -0.0567
52738SOL     OW69938   1.042   6.836   8.457 -0.1842  0.4763 -0.0927
52738SOL    HW169939   1.035   6.785   8.538  0.9323  1.9661  1.0009
52738SOL    HW269940   1.135   6.855   8.449 -0.3758  0.9825 -1.3488
52739SOL     OW69941   4.921   1.755   3.919  0.7861  0.3089  0.1870
52739SOL    HW169942   4.978   1.713   3.984  2.4291  0.9166 -0.7914
52739SOL    HW269943   4.832   1.728   3.944  1.6885 -3.9724 -0.5093
52740SOL     OW69944  10.586   3.209   4.092 -0.7804  0.2872  0.0593
52740SOL    HW169945  10.662   3.168   4.133 -0.6466 -0.8065 -1.2094
52740SOL    HW269946  10.612   3.222   4.001 -2.4741 -1.1597 -0.6934
52741SOL     OW69947   7.831   2.873   0.510 -0.0154 -1.3116 -0.9800
52741SOL    HW169948   7.814   2.920   0.592  0.8129 -1.2622 -0.8289
52741SOL    HW269949   7.761   2.808   0.505 -1.4238  0.1759 -1.3971
52742SOL     OW69950   8.758   6.719  13.420  0.4514  0.4847 -0.2172
52742SOL    HW169951   8.663   6.708  13.433  0.7227 -1.3738  0.5719
52742SOL    HW269952   8.781   6.795  13.473 -0.2816 -0.3470  1.3632
52743SOL     OW69953   7.579   8.941   4.739  0.1226 -0.0640  0.0007
52743SOL    HW169954   7.634   8.884   4.791 -1.1220 -1.5300 -0.2192
52743SOL    HW269955   7.629   9.022   4.730  2.4670 -1.5008 -0.6449
52744SOL     OW69956   7.303  10.228   6.442 -0.2336  0.0656  0.1810
52744SOL    HW169957   7.306  10.134   6.423  0.2121  0.5571 -2.5308
52744SOL    HW269958   7.235  10.263   6.384  0.7771  1.6444 -0.1259
52745SOL     OW69959   0.170   5.423   3.000  0.3628 -0.2331  0.2672
52745SOL    HW169960   0.246   5.397   3.053  1.1857 -0.5164 -0.9939
52745SOL    HW269961   0.098   5.370   3.033  1.3093 -1.8798 -0.1775
52746SOL     OW69962  11.189   1.030   8.528  0.1287  0.0404 -0.4481
52746SOL    HW169963  11.123   1.097   8.514 -1.4463 -1.5194 -0.7865
52746SOL    HW269964  11.215   1.002   8.440  0.1492 -0.3704 -0.3170
52747SOL     OW69965  12.185   5.738  10.120  0.3358 -0.7012 -0.0014
52747SOL    HW169966  12.152   5.656  10.156  1.3648 -1.6191 -1.0199
52747SOL    HW269967  12.151   5.740  10.030  1.5346 -0.8034 -0.4860
52748SOL     OW69968   6.862   5.805   2.113 -0.3752  0.2383  0.0535
52748SOL    HW169969   6.847   5.896   2.136  1.1209  0.6698 -0.5619
52748SOL    HW269970   6.858   5.803   2.017 -0.9953 -0.4659  0.0841
52749SOL     OW69971   7.304   5.128   0.088  0.0841 -0.0520  0.1745
52749SOL    HW169972   7.290   5.220   0.112  1.3296  0.4096 -0.7172
52749SOL    HW269973   7.289   5.126  -0.007 -0.2264 -0.8459  0.2330
52750SOL     OW69974   6.037   4.342  13.052 -0.0483  0.4356 -0.1272
52750SOL    HW169975   6.040   4.247  13.060  0.0358  0.4897  0.5157
52750SOL    HW269976   5.952   4.360  13.012 -0.3123  0.1243  0.2826
52751SOL     OW69977   0.065  13.292  12.310  0.0520  0.2211  0.7749
52751SOL    HW169978   0.050  13.373  12.358 -0.9432  1.4477 -1.4574
52751SOL    HW269979   0.153  13.301  12.273  0.1749  0.0164  1.0162
52752SOL     OW69980   4.986   1.581   0.139 -0.1078 -0.6027  0.5162
52752SOL    HW169981   5.036   1.502   0.164  1.3374 -0.8521 -2.6250
52752SOL    HW269982   4.924   1.549   0.074  0.3803  0.8154 -0.6714
52753SOL     OW69983  10.878   9.482   3.621  0.1027 -0.2889  0.0918
52753SOL    HW169984  10.825   9.402   3.621 -1.2691  0.5758 -0.2863
52753SOL    HW269985  10.846   9.531   3.545 -0.0337  1.2257  1.1053
52754SOL     OW69986  13.726   0.831   8.312 -0.0190  0.2561  0.3135
52754SOL    HW169987  13.727   0.780   8.231 -1.1259  0.8326 -0.0819
52754SOL    HW269988  13.746   0.920   8.284  0.5285  0.3015  0.8187
52755SOL     OW69989  12.524   6.345  11.992 -0.2481  0.1411 -0.7555
52755SOL    HW169990  12.449   6.311  11.943 -1.3957  0.0019  1.0043
52755SOL    HW269991  12.485   6.401  12.059  1.2120 -0.1004  0.3354
52756SOL     OW69992   9.465   2.950   1.551 -0.0092  0.2945  0.5262
52756SOL    HW169993   9.412   2.933   1.628  0.0427 -0.7528  0.3483
52756SOL    HW269994   9.525   2.875   1.545  1.0859  1.1466  0.3818
52757SOL     OW69995   3.110   5.925  12.211 -0.6061  0.4025 -0.9835
52757SOL    HW169996   3.064   5.941  12.129 -1.2637  1.1547 -0.4807
52757SOL    HW269997   3.077   5.841  12.242 -2.4010  1.3349 -0.1669
52758SOL     OW69998   7.940   5.663   7.903  0.8300  0.0625 -0.6490
52758SOL    HW169999   7.891   5.743   7.919  0.5648 -0.3471  0.6575
52758SOL    HW270000   8.027   5.693   7.876  1.0988  0.8250  0.9610
52759SOL     OW70001  13.726  11.928   7.805 -0.5813  0.0693  0.0278
52759SOL    HW170002  13.764  12.005   7.847 -1.0685  1.0400 -1.2133
52759SOL    HW270003  13.749  11.855   7.862  0.6757  1.0084  0.7772
52760SOL     OW70004   7.853   7.560   9.545  0.1957 -0.1840  0.2167
52760SOL    HW170005   7.848   7.590   9.455 -1.7267 -1.9102 -0.3343
52760SOL    HW270006   7.838   7.466   9.540 -0.7401 -0.2132  2.4100
52761SOL     OW70007   0.656   8.950  11.231  0.3239 -0.4360 -0.1666
52761SOL    HW170008   0.738   9.000  11.227 -0.2016  0.5089  0.5451
52761SOL    HW270009   0.667   8.893  11.307 -0.4268  1.1141  1.1674
52762SOL     OW70010   9.703   5.137   4.312 -0.1880  0.2263 -0.1884
52762SOL    HW170011   9.695   5.053   4.268  0.6859 -0.2809  0.5903
52762SOL    HW270012   9.623   5.184   4.288 -0.5305 -0.6884 -0.9015
52763SOL     OW70013  12.665   0.255   8.473  0.0730  0.1776  0.2395
52763SOL    HW170014  12.672   0.348   8.452  2.9013 -0.2408 -1.1134
52763SOL    HW270015  12.580   0.228   8.438 -0.9903  2.2723  1.0310
52764SOL     OW70016   2.586   1.360  13.587  0.4704  0.4558 -0.0552
52764SOL    HW170017   2.612   1.414  13.512  1.4195  0.1581  0.0560
52764SOL    HW270018   2.590   1.419  13.662 -1.2021  0.9607 -0.3046
52765SOL     OW70019   0.377  11.523  11.393 -0.1924  0.1769  0.3980
52765SOL    HW170020   0.397  11.454  11.457 -0.4259  0.1898  0.4876
52765SOL    HW270021   0.461  11.566  11.377  0.4947 -1.6679 -1.5042
52766SOL     OW70022   0.030  10.265   4.755 -0.1292  0.6262 -0.0938
52766SOL    HW170023   0.044  10.175   4.784  1.0919  1.0291  0.6433
52766SOL    HW270024   0.020  10.259   4.660  0.2942 -0.2426 -0.0921
52767SOL     OW70025  13.516  13.272   3.575  0.3583 -0.0949 -0.2514
52767SOL    HW170026  13.564  13.327   3.513  0.7755  0.1868  0.3157
52767SOL    HW270027  13.577  13.202   3.597  0.1143 -0.3448 -0.3563
52768SOL     OW70028   3.871   2.122   1.468 -0.0301  0.4731 -0.0875
52768SOL    HW170029   3.951   2.106   1.516  0.0729 -0.0113 -0.4165
52768SOL    HW270030   3.801   2.088   1.524  0.1630 -0.9153 -0.6596
52769SOL     OW70031   4.739   1.875  13.697  0.4444 -0.0322  0.4332
52769SOL    HW170032   4.711   1.841  13.783 -0.6670 -0.9747 -0.2671
52769SOL    HW270033   4.692   1.957  13.688 -0.2445 -0.4285  0.3088
52770SOL     OW70034   8.238   6.520   4.909 -0.0912  0.4323  0.6803
52770SOL    HW170035   8.311   6.469   4.872  0.6157  1.7786  0.1576
52770SOL    HW270036   8.276   6.562   4.986 -0.3057  1.1186  0.4188
52771SOL     OW70037   2.908   2.979  10.901  0.0828  0.1200 -0.2491
52771SOL    HW170038   2.813   2.980  10.910 -0.1438  0.7761 -2.2094
52771SOL    HW270039   2.924   2.927  10.822  1.3918 -0.3677  0.3117
52772SOL     OW70040   5.167   4.552   2.168 -0.6841  0.2950 -0.2157
52772SOL    HW170041   5.077   4.528   2.190 -1.0750  0.4325 -1.5688
52772SOL    HW270042   5.173   4.645   2.189 -0.3633 -0.0497  1.3346
52773SOL     OW70043  10.215  11.408   2.730  0.4985 -0.3392  0.7166
52773SOL    HW170044  10.181  11.435   2.816 -1.6263 -1.4079  0.2920
52773SOL    HW270045  10.186  11.477   2.671 -0.3150 -0.8675  0.4785
52774SOL     OW70046   1.156  12.849   0.210 -0.1951  0.2157  0.0597
52774SOL    HW170047   1.183  12.877   0.123 -0.9088 -0.4380 -0.3759
52774SOL    HW270048   1.237  12.849   0.261  0.5951 -1.3957 -1.1339
52775SOL     OW70049   3.393   7.728   8.037  0.3078 -0.4064  0.2389
52775SOL    HW170050   3.441   7.704   7.958  0.8448 -0.9747  0.7260
52775SOL    HW270051   3.450   7.702   8.109 -0.2980 -0.1639  0.8232
52776SOL     OW70052   7.847   6.039  11.934 -0.1743  0.0431 -0.1529
52776SOL    HW170053   7.831   5.952  11.970 -0.0316  0.3579  0.6750
52776SOL    HW270054   7.897   6.085  12.001  1.6759  0.0597 -1.4469
52777SOL     OW70055   0.807   8.702   1.610 -0.5763  0.0923 -0.3548
52777SOL    HW170056   0.757   8.774   1.647 -0.2079 -0.1864  0.7070
52777SOL    HW270057   0.765   8.684   1.526 -0.7718  1.4263 -0.5540
52778SOL     OW70058   8.720   6.547   6.706  0.4852  0.1946  0.2713
52778SOL    HW170059   8.804   6.593   6.712  1.2462 -1.2187  0.9735
52778SOL    HW270060   8.718   6.514   6.616  0.6019  0.3608  0.2057
52779SOL     OW70061  12.339   2.394   7.868  0.4142  0.6623  0.5502
52779SOL    HW170062  12.305   2.449   7.798 -2.4669  0.8887  1.9645
52779SOL    HW270063  12.291   2.423   7.946  0.0942 -2.6127  1.7151
52780SOL     OW70064   5.803   0.940  10.535 -0.4299  0.3265  0.0712
52780SOL    HW170065   5.756   0.975  10.611 -1.0011  0.4554 -0.3391
52780SOL    HW270066   5.736   0.893  10.485  0.1578 -0.7021  0.2126
52781SOL     OW70067   0.877  11.688   6.916 -0.2566 -0.0349  0.5750
52781SOL    HW170068   0.831  11.678   6.999 -0.6225  1.3771  0.5654
52781SOL    HW270069   0.906  11.600   6.894  1.3015 -0.2216  2.9997
52782SOL     OW70070   6.035   6.149   5.620 -0.5867  0.0276  0.0097
52782SOL    HW170071   6.051   6.154   5.526  2.1469 -0.8702  0.3488
52782SOL    HW270072   6.024   6.240   5.647  2.3082  0.6593 -0.6691
52783SOL     OW70073  10.401   6.337   1.940 -0.1425 -0.2725  0.1196
52783SOL    HW170074  10.354   6.255   1.924  0.4612 -0.5121 -0.4551
52783SOL    HW270075  10.488   6.323   1.901 -0.2034  0.8189 -0.4474
52784SOL     OW70076   7.979   4.442  10.345  0.3913  0.1731  0.4228
52784SOL    HW170077   8.004   4.361  10.300  1.4315  0.4491  0.4706
52784SOL    HW270078   7.995   4.511  10.280 -1.6934  0.2666 -0.0668
52785SOL     OW70079   9.871   0.900   2.978  0.1146  0.1887 -0.0117
52785SOL    HW170080   9.949   0.860   2.939  1.0536  2.0843 -0.1954
52785SOL    HW270081   9.798   0.849   2.944  1.1947 -0.9618 -0.6958
52786SOL     OW70082   5.041  11.514  10.138  0.6192  0.6898  0.5492
52786SOL    HW170083   5.123  11.563  10.136  0.2685  1.2911 -1.7513
52786SOL    HW270084   4.973  11.581  10.146  0.2328  0.4645 -0.6589
52787SOL     OW70085   8.094   8.109   4.528 -0.5781  0.0463 -0.0110
52787SOL    HW170086   8.142   8.157   4.595  0.4324 -0.2606 -0.5052
52787SOL    HW270087   8.032   8.055   4.578 -1.6553  1.7244  0.5494
52788SOL     OW70088  13.540   5.552   6.813  0.7326  0.0558 -0.0060
52788SOL    HW170089  13.594   5.484   6.853 -0.8484 -1.4319 -0.3132
52788SOL    HW270090  13.451   5.519   6.818  0.0708  1.4747 -1.4532
52789SOL     OW70091   7.583  11.276   6.739 -0.1815  0.4390  0.5743
52789SOL    HW170092   7.651  11.289   6.805  1.0420  0.1224 -0.5889
52789SOL    HW270093   7.589  11.354   6.684  0.0742 -0.1598 -0.2484
52790SOL     OW70094   6.518  11.522   8.472  0.3912  0.3956  0.7794
52790SOL    HW170095   6.560  11.596   8.517  1.6147  3.0069 -4.0151
52790SOL    HW270096   6.435  11.557   8.441  0.0769 -0.9021  0.0989
52791SOL     OW70097   5.110   0.428   4.719  0.3614  0.0946  0.3160
52791SOL    HW170098   5.156   0.348   4.745  1.3785  0.7304  0.5201
52791SOL    HW270099   5.172   0.475   4.664  0.2910  1.3553  1.2695
52792SOL     OW70100   8.861   5.964  11.919 -0.5475 -0.1306  0.0235
52792SOL    HW170101   8.885   5.875  11.944 -0.4622 -0.0928  0.0765
52792SOL    HW270102   8.804   5.994  11.990  0.1014  0.1567  0.4362
52793SOL     OW70103   2.822  12.944   3.075  0.2159 -0.3221 -0.6564
52793SOL    HW170104   2.847  12.983   2.992  0.3551 -0.2441 -0.5766
52793SOL    HW270105   2.886  12.977   3.138  1.1124 -1.6595 -0.8247
52794SOL     OW70106   1.403  10.618   2.580  0.0476 -0.1134  0.3184
52794SOL    HW170107   1.353  10.673   2.520 -1.0571 -0.4947  0.8629
52794SOL    HW270108   1.339  10.557   2.617  1.3560 -2.3885 -0.9014
52795SOL     OW70109  12.493   1.860   0.300  0.1689 -0.2704 -0.0250
52795SOL    HW170110  12.570   1.896   0.256  0.4630 -1.4699 -0.5627
52795SOL    HW270111  12.511   1.766   0.304  0.7768 -0.1559  3.8780
52796SOL     OW70112   4.273   9.151   3.328 -0.2193 -0.4758  0.1412
52796SOL    HW170113   4.258   9.058   3.307 -2.2087  0.3965 -2.9030
52796SOL    HW270114   4.367   9.163   3.314 -0.2346 -1.6576 -1.2997
52797SOL     OW70115   3.105   9.663   9.315  0.4641  0.1959 -0.3189
52797SOL    HW170116   3.104   9.684   9.409  0.8351 -0.3072 -0.1974
52797SOL    HW270117   3.064   9.739   9.273 -1.5271 -0.3880  0.4116
52798SOL     OW70118   5.544   7.299   7.206 -0.3994 -0.3301 -0.2575
52798SOL    HW170119   5.603   7.368   7.177 -1.9936  0.5308 -1.6529
52798SOL    HW270120   5.584   7.218   7.176  0.4565  0.1644 -0.4726
52799SOL     OW70121   6.077   9.593   6.495 -0.0159  0.1307 -0.0231
52799SOL    HW170122   6.054   9.670   6.443  1.6462  0.4623 -0.3344
52799SOL    HW270123   6.000   9.576   6.548 -1.2836  0.5954 -1.6255
52800SOL     OW70124   1.561  11.691   9.005 -0.6976  0.5085 -0.2477
52800SOL    HW170125   1.543  11.645   9.087  1.3813 -1.0604 -0.6012
52800SOL    HW270126   1.564  11.623   8.939  1.4217  1.2438 -0.9751
52801SOL     OW70127  13.235  10.347  11.151  0.0505  0.4063  0.2829
52801SOL    HW170128  13.192  10.295  11.219  0.0081  0.1767  0.0819
52801SOL    HW270129  13.175  10.342  11.076 -0.0547  0.9141  0.3277
52802SOL     OW70130   8.333   8.789   6.112 -0.2415 -0.4272 -0.4020
52802SOL    HW170131   8.248   8.770   6.152  0.0656 -0.2846  0.3208
52802SOL    HW270132   8.345   8.883   6.126  0.3710 -0.5839  0.1551
52803SOL     OW70133   7.924  10.044  11.367  0.1603  0.0309 -0.2422
52803SOL    HW170134   7.907   9.952  11.347  0.3213  0.0426 -0.4418
52803SOL    HW270135   7.891  10.056  11.456  0.3812 -0.2856 -0.1152
52804SOL     OW70136  12.708   5.962  13.350  0.0532  0.2249 -0.0055
52804SOL    HW170137  12.621   5.974  13.388 -0.0901 -0.9447  0.0717
52804SOL    HW270138  12.748   5.894  13.404  2.0628  2.5796  1.6497
52805SOL     OW70139   9.692   6.627   3.858 -0.2739  0.3618 -0.7066
52805SOL    HW170140   9.625   6.566   3.888 -1.3395  1.1191 -1.4836
52805SOL    HW270141   9.774   6.578   3.866 -0.8307 -0.4117  0.7507
52806SOL     OW70142   8.457  11.611   6.302  0.2420 -0.5749 -0.2402
52806SOL    HW170143   8.460  11.553   6.225  0.8794 -0.6506 -0.1678
52806SOL    HW270144   8.446  11.698   6.265 -1.5149 -0.7935 -0.3171
52807SOL     OW70145  12.961   7.125  12.811  0.3999 -0.6808  0.0939
52807SOL    HW170146  12.909   7.200  12.783 -0.3788 -1.4215 -0.4564
52807SOL    HW270147  13.029   7.163  12.866  1.2660  0.6939 -1.8088
52808SOL     OW70148  10.678   9.523   9.397 -0.5989 -0.7291  0.1454
52808SOL    HW170149  10.749   9.479   9.351  0.1634  2.0324 -1.5195
52808SOL    HW270150  10.600   9.472   9.375 -0.2765  0.3132 -4.2906
52809SOL     OW70151   9.246   8.913   0.960 -0.2158 -0.0062  0.4564
52809SOL    HW170152   9.303   8.955   0.895 -0.9344  1.3001  0.6475
52809SOL    HW270153   9.215   8.833   0.916  1.4711 -0.5900  0.2299
52810SOL     OW70154   2.600   4.229   3.055  0.1770 -0.2822  0.2606
52810SOL    HW170155   2.558   4.278   2.984  0.1556 -0.3852  0.2031
52810SOL    HW270156   2.640   4.153   3.013 -0.8065 -0.9595  0.5122
52811SOL     OW70157   5.247  12.856   2.954  0.0906 -0.3308  0.3724
52811SOL    HW170158   5.340  12.836   2.965  0.5298  1.7801  0.9130
52811SOL    HW270159   5.223  12.902   3.035 -1.1613  0.0671 -0.2093
52812SOL     OW70160   0.458   3.120   1.547  0.6386  0.1142 -0.0853
52812SOL    HW170161   0.527   3.186   1.555  1.4581 -0.7134 -0.2698
52812SOL    HW270162   0.401   3.137   1.622  2.8149 -1.2260  2.0182
52813SOL     OW70163   4.674  13.308   5.843 -0.0709  0.3099 -0.0585
52813SOL    HW170164   4.752  13.342   5.801  0.2070  0.9352  0.9265
52813SOL    HW270165   4.706  13.254   5.916 -0.5217  1.5356  1.1005
52814SOL     OW70166   0.297   6.292  13.634 -0.8222  0.2251  0.4637
52814SOL    HW170167   0.376   6.243  13.656 -1.2431  0.1807  1.9961
52814SOL    HW270168   0.250   6.302  13.717 -1.7576  1.4513 -0.1607
52815SOL     OW70169   9.790   1.690  13.437 -0.5712  0.1018 -0.5177
52815SOL    HW170170   9.871   1.641  13.453 -0.9446 -0.3581  0.0032
52815SOL    HW270171   9.777   1.743  13.515 -0.4002  0.7130 -0.8990
52816SOL     OW70172   5.102   0.292   8.466 -0.3065 -0.3202  0.1034
52816SOL    HW170173   5.197   0.285   8.457 -0.2488  0.9854 -0.4172
52816SOL    HW270174   5.088   0.346   8.543 -0.5546  1.4060 -1.0854
52817SOL     OW70175   0.183   7.952   2.258  0.2684  0.1200  0.2938
52817SOL    HW170176   0.144   7.973   2.173 -0.2164 -0.9745  0.2318
52817SOL    HW270177   0.251   8.018   2.270  0.4410  0.2035 -1.0142
52818SOL     OW70178   0.304  13.619   5.641  0.7515  0.3441 -0.1688
52818SOL    HW170179   0.395  13.608   5.611  1.6454  2.7461  1.3887
52818SOL    HW270180   0.302  13.706   5.679 -1.0657 -1.2059  3.8656
52819SOL     OW70181   0.914  10.063   8.750  0.0382 -0.0449  0.5954
52819SOL    HW170182   0.879  10.145   8.785  0.3190 -0.4650  1.9099
52819SOL    HW270183   1.002  10.057   8.787  0.2514 -0.6409  0.0106
52820SOL     OW70184   5.152   1.537   0.428  0.0142 -0.3669  0.1968
52820SOL    HW170185   5.212   1.596   0.472  0.3217 -0.5976  0.0891
52820SOL    HW270186   5.196   1.513   0.347 -0.8115  0.5405 -0.5377
52821SOL     OW70187   8.796   0.098   3.886 -0.3439 -0.1689  0.1188
52821SOL    HW170188   8.841   0.053   3.958 -2.0680 -1.6599  0.3271
52821SOL    HW270189   8.836   0.185   3.884  0.0449 -0.2087  2.6140
52822SOL     OW70190  13.282  11.835  13.142  0.2924 -0.8954 -0.6199
52822SOL    HW170191  13.249  11.905  13.085  0.4020  0.3188  0.7501
52822SOL    HW270192  13.377  11.839  13.131  0.2607 -1.3345 -1.0946
52823SOL     OW70193  12.670  10.924   5.917  0.3386 -0.0629 -0.6975
52823SOL    HW170194  12.588  10.895   5.957  0.5621  1.1212  0.7116
52823SOL    HW270195  12.644  10.961   5.832 -0.9378  2.1835  0.5772
52824SOL     OW70196   6.666   6.526  10.486 -0.1510  0.3397  0.4739
52824SOL    HW170197   6.587   6.580  10.488 -0.3825 -0.0157  2.0828
52824SOL    HW270198   6.724   6.566  10.551  0.4938 -0.1571  0.2173
52825SOL     OW70199   7.730  12.543   7.206  0.7556  0.2373 -0.0422
52825SOL    HW170200   7.701  12.633   7.218 -1.6144 -0.4873  0.2582
52825SOL    HW270201   7.755  12.514   7.294  1.9316  0.7099 -0.2105
52826SOL     OW70202   2.570   8.294   9.041 -0.0065 -0.3212  0.1790
52826SOL    HW170203   2.493   8.238   9.030 -0.5300  0.2362  0.9073
52826SOL    HW270204   2.539   8.382   9.018 -0.2939  0.3374  2.7058
52827SOL     OW70205   8.280   6.887   6.657 -0.1932  0.1016 -0.1419
52827SOL    HW170206   8.215   6.872   6.588  1.2659 -0.8069 -1.3719
52827SOL    HW270207   8.362   6.856   6.620  1.0114  1.4120  1.2880
52828SOL     OW70208   7.759  13.599   3.550 -0.4355 -0.0695  0.1806
52828SOL    HW170209   7.787  13.603   3.642 -1.3591 -2.6455  0.6478
52828SOL    HW270210   7.830  13.555   3.505  0.6637  2.4241 -0.7366
52829SOL     OW70211   8.396   9.000  11.052  0.3488  0.1283 -0.1883
52829SOL    HW170212   8.387   8.923  11.108 -1.5441  0.4337  0.0047
52829SOL    HW270213   8.490   9.018  11.051  0.8063 -1.9730  0.0169
52830SOL     OW70214   6.677   3.836   0.079  0.1292  0.1168 -0.1112
52830SOL    HW170215   6.703   3.882   0.159 -1.1598 -1.8195  1.5021
52830SOL    HW270216   6.583   3.823   0.088  0.1288 -1.0756 -1.4416
52831SOL     OW70217   9.058   8.410   4.212  0.5291 -0.3092  0.3505
52831SOL    HW170218   8.998   8.357   4.265  1.8039 -2.1172  0.0904
52831SOL    HW270219   9.092   8.349   4.147  0.6396  1.3327 -1.2058
52832SOL     OW70220  13.279   9.601   9.305 -0.4161  0.1716 -0.0096
52832SOL    HW170221  13.326   9.634   9.228  0.1865  0.9904  0.6891
52832SOL    HW270222  13.198   9.565   9.269 -1.2274  2.5741 -0.8413
52833SOL     OW70223   5.208  11.412   9.375 -0.2161  0.1767  0.3385
52833SOL    HW170224   5.289  11.414   9.425  0.5594  4.5233 -0.7096
52833SOL    HW270225   5.236  11.414   9.284 -1.5679 -0.4584 -0.1248
52834SOL     OW70226  12.112   9.345   4.653 -0.2013 -0.2975  0.0431
52834SOL    HW170227  12.137   9.424   4.702 -0.6467 -0.9250  1.3441
52834SOL    HW270228  12.147   9.358   4.565  0.6388  0.8822  0.5348
52835SOL     OW70229  11.520   3.921  13.304 -0.3906  0.1265  0.0901
52835SOL    HW170230  11.504   4.009  13.338 -0.0841  0.6052 -0.9595
52835SOL    HW270231  11.435   3.877  13.308 -0.2455 -0.0677  2.0327
52836SOL     OW70232   5.673   9.273   2.725  0.0221  0.0734 -0.2840
52836SOL    HW170233   5.753   9.225   2.703  1.5910  0.8171  3.1390
52836SOL    HW270234   5.699   9.365   2.721 -1.0885  0.3931 -0.4468
52837SOL     OW70235   6.837   9.117  11.084 -0.3799 -0.2333 -0.1378
52837SOL    HW170236   6.896   9.144  11.155 -2.4917  1.7008  0.9972
52837SOL    HW270237   6.849   9.184  11.016 -1.1903  0.1079  0.0548
52838SOL     OW70238   3.229  13.369  12.086 -0.7268  0.2022 -0.2224
52838SOL    HW170239   3.257  13.289  12.042 -0.1842 -1.1428  2.3641
52838SOL    HW270240   3.307  13.398  12.135 -2.2257 -0.7034  3.0100
52839SOL     OW70241   6.154   3.144   6.142 -0.1473  0.4116 -0.2197
52839SOL    HW170242   6.183   3.170   6.054  1.5317  0.6553  0.3858
52839SOL    HW270243   6.065   3.111   6.128 -0.0700  0.8221 -1.9471
52840SOL     OW70244   9.461  13.471  13.582  0.4285  0.6567 -0.1109
52840SOL    HW170245   9.406  13.408  13.629 -0.3528  0.2958 -1.4484
52840SOL    HW270246   9.427  13.556  13.609  1.3425  0.5362  1.5341
52841SOL     OW70247   9.170   2.666  11.197 -0.4935  0.4694  0.4301
52841SOL    HW170248   9.260   2.658  11.230  0.1744 -1.2629 -1.5734
52841SOL    HW270249   9.166   2.753  11.158  0.0985  0.8085  1.1094
52842SOL     OW70250   5.558   5.478   3.997  0.3807 -0.1622 -0.4194
52842SOL    HW170251   5.510   5.561   3.997  0.0013 -0.3695 -1.1572
52842SOL    HW270252   5.650   5.504   3.989  0.2789  0.1991 -0.4509
52843SOL     OW70253   9.804   4.279  13.515 -0.5318 -0.0017 -0.1410
52843SOL    HW170254   9.745   4.344  13.477  0.0801  0.5757 -0.1151
52843SOL    HW270255   9.754   4.241  13.587 -0.9341  0.3651 -0.2223
52844SOL     OW70256   4.046  12.540   2.365 -0.4328  0.0311 -0.3271
52844SOL    HW170257   4.016  12.566   2.452 -1.7961 -1.1611 -0.4127
52844SOL    HW270258   4.006  12.455   2.349  1.5413 -0.8047 -1.2507
52845SOL     OW70259   8.522   6.881   7.895 -0.0951 -0.1054 -0.2541
52845SOL    HW170260   8.526   6.924   7.809 -0.1343 -2.1540 -1.3306
52845SOL    HW270261   8.432   6.848   7.900 -0.2376  0.4166  0.8210
52846SOL     OW70262   7.291   3.673   6.856 -0.5788  0.4292  0.4148
52846SOL    HW170263   7.251   3.592   6.888  0.7249  0.5535  2.5582
52846SOL    HW270264   7.250   3.742   6.909  1.0257  0.7475  1.2882
52847SOL     OW70265   1.529   8.254   3.578  0.2547 -0.3401 -0.1504
52847SOL    HW170266   1.475   8.240   3.500  0.3819 -1.7518 -0.0225
52847SOL    HW270267   1.582   8.175   3.584  1.6367  0.5967  0.2923
52848SOL     OW70268   6.847  12.233  13.250  0.1052 -0.1951  0.3624
52848SOL    HW170269   6.939  12.243  13.274 -0.0912  1.7692  0.4176
52848SOL    HW270270   6.814  12.166  13.310  2.2736 -3.7324 -1.9969
52849SOL     OW70271   5.276  13.655   8.346  0.8185 -0.1367 -0.6397
52849SOL    HW170272   5.309  13.726   8.292  1.3185  0.1749  0.0662
52849SOL    HW270273   5.201  13.692   8.392  0.6620 -0.2705 -0.7854
52850SOL     OW70274  10.118   6.283   2.350  0.4736 -0.3198  0.3359
52850SOL    HW170275  10.082   6.371   2.336 -1.0503 -0.8834  0.4601
52850SOL    HW270276  10.198   6.296   2.400  0.9683  1.0834 -0.7770
52851SOL     OW70277   5.094  11.770   4.378  0.3273  0.4431  0.0652
52851SOL    HW170278   5.140  11.816   4.448  0.6918 -0.2326  0.2825
52851SOL    HW270279   5.103  11.677   4.400 -0.1701  0.2538 -0.4965
52852SOL     OW70280  11.375   5.136   3.837 -0.0184 -0.2606  0.4953
52852SOL    HW170281  11.294   5.169   3.799 -0.4080 -0.6877  0.9479
52852SOL    HW270282  11.351   5.052   3.877  0.6500 -0.4076  0.6009
52853SOL     OW70283   0.981  12.428   7.357 -1.0246 -0.0956  0.1808
52853SOL    HW170284   1.052  12.368   7.334 -1.2620  0.3665 -1.9998
52853SOL    HW270285   0.903  12.387   7.318 -1.6695  0.2705  1.0533
52854SOL     OW70286   9.126   6.405  10.276  0.2049  0.2900  0.2781
52854SOL    HW170287   9.174   6.336  10.322  0.8579 -0.0471 -0.8830
52854SOL    HW270288   9.188   6.438  10.210 -0.2639  1.6541  0.4802
52855SOL     OW70289   7.101  12.707   4.120  0.2421  0.4451 -0.8445
52855SOL    HW170290   7.153  12.725   4.198 -2.0804 -0.5639  1.0594
52855SOL    HW270291   7.036  12.777   4.117 -0.2111  0.0161 -1.3931
52856SOL     OW70292   7.499   4.210  10.550  0.1125 -0.9814 -0.3941
52856SOL    HW170293   7.520   4.291  10.596  3.7022 -1.5975 -0.6922
52856SOL    HW270294   7.410   4.189  10.579 -0.2189  1.9840  1.1930
52857SOL     OW70295   5.568   5.969   4.097  0.4726  0.2589 -0.4350
52857SOL    HW170296   5.633   5.986   4.165 -0.1665 -1.3259  0.6102
52857SOL    HW270297   5.557   5.874   4.097 -2.5274  0.5097  0.1125
52858SOL     OW70298   9.621   7.147   9.745 -0.0350  0.1112  0.1072
52858SOL    HW170299   9.674   7.069   9.760  0.6318  0.6611  0.6683
52858SOL    HW270300   9.660   7.188   9.668  0.6785  0.7628  0.7922
52859SOL     OW70301  13.067   7.521   9.961  0.4106 -0.0644 -0.6892
52859SOL    HW170302  13.162   7.526   9.967  0.5570 -2.3464 -0.3531
52859SOL    HW270303  13.040   7.607   9.928  2.5493  0.6923 -0.5775
52860SOL     OW70304  13.026   8.025  12.369  0.1581 -0.0125 -0.2263
52860SOL    HW170305  13.029   7.959  12.438 -0.1523 -1.8376 -1.8998
52860SOL    HW270306  13.028   7.976  12.287 -1.5824  1.9691 -1.5709
52861SOL     OW70307  12.297   8.109   8.295 -0.1192  0.3126  0.1258
52861SOL    HW170308  12.366   8.076   8.237  0.4612  1.2180  0.2821
52861SOL    HW270309  12.281   8.199   8.265 -0.8841  0.2807  0.4123
52862SOL     OW70310   4.650  12.806   0.293 -0.2141 -0.2875  0.0235
52862SOL    HW170311   4.713  12.749   0.339 -0.2177  0.7374  1.3453
52862SOL    HW270312   4.569  12.755   0.290  0.1444 -0.8654  0.0069
52863SOL     OW70313  12.428   5.951  12.477  0.8337  0.4058 -0.0263
52863SOL    HW170314  12.426   5.880  12.414  2.2046  0.9038 -0.6567
52863SOL    HW270315  12.365   5.925  12.545 -1.1379  0.1378 -1.8561
52864SOL     OW70316   6.976   1.687  10.176 -0.4555  0.4105  0.3969
52864SOL    HW170317   6.959   1.726  10.090 -3.1411  0.7051  0.9511
52864SOL    HW270318   6.917   1.611  10.179  1.4835 -1.1537  1.0450
52865SOL     OW70319   1.372  13.290   1.929 -0.3936 -0.6246 -0.0773
52865SOL    HW170320   1.397  13.275   1.838  0.1169 -0.9809  0.1163
52865SOL    HW270321   1.385  13.206   1.972  0.4785 -0.1697  0.5756
52866SOL     OW70322   3.812  12.892   5.532 -0.2287  0.2189  0.1952
52866SOL    HW170323   3.816  12.848   5.447  1.4687  1.1493 -0.2614
52866SOL    HW270324   3.902  12.923   5.547 -0.2982 -0.5122  2.6680
52867SOL     OW70325   2.137   6.147  10.096 -0.4954 -0.5447 -0.1140
52867SOL    HW170326   2.164   6.079  10.158 -0.6593 -1.3097 -0.8545
52867SOL    HW270327   2.043   6.135  10.086 -0.3105 -1.1210 -1.2983
52868SOL     OW70328   0.016   9.727   0.529 -0.2431  0.5691 -0.6798
52868SOL    HW170329  -0.041   9.777   0.587  0.7882  1.9272 -0.7998
52868SOL    HW270330   0.104   9.761   0.545  0.1236  0.7725 -2.7905
52869SOL     OW70331   0.078  11.141   2.701  0.0976  0.3537  0.2700
52869SOL    HW170332   0.015  11.212   2.694 -1.0026 -0.3530  2.3108
52869SOL    HW270333   0.154  11.181   2.744 -0.6981  0.2561  1.8463
52870SOL     OW70334   3.273   8.060  12.071 -0.1040  0.6924 -0.5048
52870SOL    HW170335   3.227   7.997  12.125  1.2709  0.2068  0.1536
52870SOL    HW270336   3.212   8.080  12.000 -0.7470 -1.0351 -0.4912
52871SOL     OW70337   2.273  13.586   7.193  0.1515  0.7578 -0.1859
52871SOL    HW170338   2.272  13.666   7.141 -2.8763  0.3872 -0.8714
52871SOL    HW270339   2.199  13.595   7.254  0.0066 -1.2904  0.0278
52872SOL     OW70340   4.289  11.494   5.705  0.3034  0.1717 -0.8423
52872SOL    HW170341   4.267  11.584   5.728 -3.5673  0.0610 -3.1930
52872SOL    HW270342   4.287  11.493   5.609  0.3258 -2.4242 -0.8782
52873SOL     OW70343   3.105   5.294   5.179 -0.2549 -0.2725 -0.4824
52873SOL    HW170344   3.122   5.200   5.186 -0.0460 -0.4532 -2.8123
52873SOL    HW270345   3.010   5.301   5.184 -0.2728 -0.5862 -0.3056
52874SOL     OW70346   0.513   3.042   8.610 -0.1092  0.2838  0.5482
52874SOL    HW170347   0.529   2.971   8.547 -1.4210  0.2108  0.2657
52874SOL    HW270348   0.464   3.000   8.681  0.3204  0.6217  1.0508
52875SOL     OW70349   4.969  12.451   3.577 -0.0242  0.8013  0.1504
52875SOL    HW170350   5.003  12.375   3.530  1.6547  1.4575  0.2241
52875SOL    HW270351   4.897  12.483   3.523 -0.1532 -0.2919 -0.3485
52876SOL     OW70352   7.360   5.552   6.572 -0.0694 -0.3557  0.0557
52876SOL    HW170353   7.370   5.647   6.567  1.3834 -0.5130 -0.5270
52876SOL    HW270354   7.288   5.539   6.634  0.1558  1.0994  0.6745
52877SOL     OW70355  10.239  11.341   7.790  0.0076  0.5079 -0.0592
52877SOL    HW170356  10.267  11.395   7.716 -0.1173  2.5009  1.2680
52877SOL    HW270357  10.150  11.314   7.768  1.0564 -1.6467 -2.0267
52878SOL     OW70358   3.451   0.148  13.540 -0.4960  0.2245  0.2382
52878SOL    HW170359   3.424   0.240  13.537  1.0559  0.7204  0.3488
52878SOL    HW270360   3.479   0.128  13.451  0.6046  0.3472  0.5377
52879SOL     OW70361  12.245   8.154  10.720 -0.1578  0.0403  0.1694
52879SOL    HW170362  12.301   8.078  10.733 -1.3654 -1.8631 -3.9965
52879SOL    HW270363  12.266   8.212  10.792  3.0773 -2.8936  1.8831
52880SOL     OW70364  11.947  10.852   8.803 -0.1871 -0.0186  0.4102
52880SOL    HW170365  12.036  10.871   8.772  0.1298 -2.4380 -0.4125
52880SOL    HW270366  11.960  10.789   8.874 -1.1632  2.0264  2.5364
52881SOL     OW70367   8.237   9.688  11.221 -0.2259  0.5695 -0.7304
52881SOL    HW170368   8.177   9.622  11.257  1.6052 -0.1374  1.2887
52881SOL    HW270369   8.199   9.772  11.250  0.4769  0.0755  1.9561
52882SOL     OW70370   8.394   1.715  11.068 -0.0248 -0.1079  0.3286
52882SOL    HW170371   8.466   1.687  11.125  1.4092  0.9550 -0.8590
52882SOL    HW270372   8.387   1.645  11.002 -0.3015 -0.3604  0.6231
52883SOL     OW70373   2.397   2.885   5.908 -0.7393  0.4739 -0.2826
52883SOL    HW170374   2.376   2.796   5.881 -0.8426  1.0624 -2.3062
52883SOL    HW270375   2.461   2.915   5.843 -2.3561  2.5973 -1.0199
52884SOL     OW70376   6.293   3.236   4.997 -0.3466  0.2349  0.1083
52884SOL    HW170377   6.218   3.261   4.943  0.7747  1.9920 -0.7546
52884SOL    HW270378   6.312   3.146   4.972 -0.6547  0.5869 -1.5464
52885SOL     OW70379   6.866   2.869  12.259 -0.3014  0.1825  0.6188
52885SOL    HW170380   6.945   2.816  12.255  0.1795  0.6919  2.4924
52885SOL    HW270381   6.852   2.898  12.169  0.0352 -2.1598 -0.2555
52886SOL     OW70382  11.485   7.132   9.427  0.1401 -0.2127 -0.5250
52886SOL    HW170383  11.422   7.086   9.482  1.0226 -0.3855  0.3800
52886SOL    HW270384  11.566   7.133   9.479  0.5990  0.9076 -1.2217
52887SOL     OW70385   2.053   1.368   0.537 -0.2448  0.4021  0.6229
52887SOL    HW170386   2.054   1.308   0.463 -0.5644  1.5746 -0.3682
52887SOL    HW270387   2.079   1.315   0.612  1.1535 -0.5618 -0.5079
52888SOL     OW70388  11.832  10.651  10.622  0.3930 -0.3235  0.1481
52888SOL    HW170389  11.793  10.642  10.535  1.8947  2.4339 -0.9475
52888SOL    HW270390  11.803  10.573  10.670 -2.3326 -0.8427 -2.0758
52889SOL     OW70391   8.317   6.969  10.577 -0.3133  0.4907  0.1269
52889SOL    HW170392   8.239   6.971  10.522 -0.4558 -0.6017  0.2562
52889SOL    HW270393   8.336   7.061  10.596 -0.6305  0.8503 -1.2102
52890SOL     OW70394   7.355  11.411   0.466 -0.0269  0.2118 -0.7037
52890SOL    HW170395   7.351  11.351   0.541  0.6477  1.3676  0.2966
52890SOL    HW270396   7.436  11.388   0.421  0.6993  0.9401  0.1991
52891SOL     OW70397  12.920   1.839   6.377 -0.0155 -0.2429 -0.4218
52891SOL    HW170398  12.866   1.761   6.384  0.9133 -0.9210 -0.5749
52891SOL    HW270399  12.958   1.834   6.290  0.5589  0.0334 -0.1938
52892SOL     OW70400   0.248   9.005  10.458  0.5020  0.1611  0.6680
52892SOL    HW170401   0.288   8.937  10.512  1.0934  0.9228  1.1978
52892SOL    HW270402   0.266   8.978  10.368  1.2336 -0.0771  0.8850
52893SOL     OW70403   7.750  12.373  11.699 -0.6592  0.1792  0.8623
52893SOL    HW170404   7.723  12.295  11.650 -0.0012 -1.0178  2.3356
52893SOL    HW270405   7.702  12.366  11.782 -1.9841  2.3157  0.3525
52894SOL     OW70406   3.316   6.638   0.165 -0.2477 -0.7445 -0.3947
52894SOL    HW170407   3.387   6.700   0.179 -1.9036  0.6860  2.5240
52894SOL    HW270408   3.359   6.552   0.165  1.6459  0.1593 -0.3336
52895SOL     OW70409  11.034  10.396   1.058 -0.2339  0.2980  0.0723
52895SOL    HW170410  11.128  10.388   1.045 -0.3683 -1.3577 -0.0876
52895SOL    HW270411  11.023  10.479   1.105  1.2390  0.7926 -0.4123
52896SOL     OW70412   3.482   2.711  13.329 -0.5390  0.0966  0.0759
52896SOL    HW170413   3.512   2.719  13.238  0.5667  0.9682  0.4910
52896SOL    HW270414   3.412   2.776  13.336  0.7479  1.5021  0.3667
52897SOL     OW70415  13.552  10.340  12.582 -0.3678  0.1956 -0.3319
52897SOL    HW170416  13.587  10.267  12.633  0.2426  0.1392 -0.8244
52897SOL    HW270417  13.600  10.417  12.614 -0.9637  0.3839  0.1418
52898SOL     OW70418   1.386  11.347   7.702 -0.5899  0.5555  0.4254
52898SOL    HW170419   1.293  11.330   7.717 -0.3125  0.4528  2.3208
52898SOL    HW270420   1.408  11.413   7.768  0.4757  1.3458 -0.6704
52899SOL     OW70421   1.517   5.228  12.839  0.3509  0.6040  0.4231
52899SOL    HW170422   1.509   5.308  12.787 -1.4214  1.0694  1.3262
52899SOL    HW270423   1.469   5.247  12.920 -0.8049 -1.6315  0.3423
52900SOL     OW70424   0.719   1.495  11.180  0.3276 -0.2119  0.6350
52900SOL    HW170425   0.800   1.537  11.150  0.4390 -1.2892 -0.6498
52900SOL    HW270426   0.748   1.409  11.212 -0.3174 -0.6383  0.0812
52901SOL     OW70427   8.721   1.066  11.338  0.3862 -0.1062  0.4171
52901SOL    HW170428   8.663   1.127  11.383 -0.5768 -0.8979  0.2794
52901SOL    HW270429   8.777   1.031  11.407  1.1351  1.1101  0.4555
52902SOL     OW70430  12.962   1.415   3.399  0.1942 -0.1248 -0.2652
52902SOL    HW170431  12.971   1.506   3.372  0.2594 -0.0281  0.0813
52902SOL    HW270432  12.893   1.417   3.465 -0.1941 -0.4074 -0.6512
52903SOL     OW70433   4.042  10.807   4.433  0.0192  0.0236 -0.0139
52903SOL    HW170434   3.988  10.732   4.409  0.7236 -0.5549  0.1884
52903SOL    HW270435   4.044  10.860   4.354 -0.8145  0.0468 -0.0358
52904SOL     OW70436   6.782   5.815   5.516  0.5014 -0.0643  0.1853
52904SOL    HW170437   6.839   5.742   5.495 -1.1497 -0.5632 -3.1605
52904SOL    HW270438   6.695   5.776   5.528  0.1304  1.0552  1.4396
52905SOL     OW70439   4.164  11.175   1.267  0.2016  0.2027  0.3822
52905SOL    HW170440   4.176  11.269   1.280  0.5116  0.2357 -0.1279
52905SOL    HW270441   4.250  11.137   1.282 -0.1454 -0.1351  1.6674
52906SOL     OW70442  11.620   1.410  11.436  0.2865 -0.2532  0.1644
52906SOL    HW170443  11.631   1.325  11.392  0.3424 -0.4901  0.6300
52906SOL    HW270444  11.687   1.410  11.504  0.4473  0.2748  0.0047
52907SOL     OW70445   7.126  12.197   0.806 -0.9205  0.2694  0.8568
52907SOL    HW170446   7.169  12.215   0.889  3.6175 -2.9168 -0.4618
52907SOL    HW270447   7.056  12.135   0.828 -1.1625  1.0371  2.4185
52908SOL     OW70448   1.932  12.256   6.684  0.0128  0.7123  0.4854
52908SOL    HW170449   1.961  12.280   6.773  1.9536 -1.2112  0.4593
52908SOL    HW270450   2.013  12.239   6.637 -1.0649 -0.5477 -0.9967
52909SOL     OW70451   1.648   0.387  13.438 -0.2488 -0.2114 -0.3042
52909SOL    HW170452   1.572   0.429  13.397 -1.3556  0.0241  1.8409
52909SOL    HW270453   1.723   0.439  13.410 -1.0480  0.4014 -1.3547
52910SOL     OW70454   2.688  10.328   9.653 -0.1792 -0.2587  0.2583
52910SOL    HW170455   2.698  10.322   9.558 -1.1101  0.7659  0.0852
52910SOL    HW270456   2.748  10.398   9.679 -0.4472 -0.0599  0.3375
52911SOL     OW70457  13.058   9.419   9.232 -0.3686 -0.2682 -0.3394
52911SOL    HW170458  13.103   9.350   9.183  0.3043 -0.1027  0.0366
52911SOL    HW270459  12.983   9.375   9.273 -1.0933 -0.3623 -1.7045
52912SOL     OW70460  12.284   6.482  10.980 -0.2015  0.8070 -0.4740
52912SOL    HW170461  12.310   6.440  11.062 -2.3168  0.7866  0.2486
52912SOL    HW270462  12.253   6.410  10.924 -1.0201  1.0531 -0.3576
52913SOL     OW70463   4.544   1.507   8.571 -0.6122 -0.2532  0.5768
52913SOL    HW170464   4.463   1.458   8.587 -1.2014  0.4835 -0.0399
52913SOL    HW270465   4.533   1.589   8.620 -0.7259  0.3139 -0.3624
52914SOL     OW70466   4.469   1.690   1.971 -0.2403  0.0546 -0.2267
52914SOL    HW170467   4.389   1.644   1.998 -0.1797  0.7785  1.3391
52914SOL    HW270468   4.532   1.620   1.952 -1.7856 -0.5927 -3.5740
52915SOL     OW70469   2.074   5.948   3.026  0.1699  1.0558  0.5605
52915SOL    HW170470   2.165   5.978   3.036  0.9635 -0.7109 -0.9106
52915SOL    HW270471   2.036   5.961   3.113  1.8195  1.8444  1.2147
52916SOL     OW70472   3.517   2.899   1.081 -0.2276 -0.5362 -0.5762
52916SOL    HW170473   3.593   2.877   1.027  0.2387 -0.2629 -0.0413
52916SOL    HW270474   3.454   2.829   1.064  0.4052 -1.1316 -0.5164
52917SOL     OW70475   5.480  11.813   8.852 -0.5785  0.4185  0.3477
52917SOL    HW170476   5.456  11.770   8.934 -2.0400  1.0684  0.2950
52917SOL    HW270477   5.522  11.894   8.879 -0.8684  0.5324  0.4692
52918SOL     OW70478  13.147   9.579   6.140 -0.2762  0.0324  0.0278
52918SOL    HW170479  13.079   9.645   6.152 -0.3853 -0.0995  0.1387
52918SOL    HW270480  13.229   9.625   6.161 -0.3843  0.0375  0.4539
52919SOL     OW70481   4.806  12.319  10.857 -0.5483 -0.4097  0.0133
52919SOL    HW170482   4.775  12.334  10.947  0.8967 -1.8485  0.7964
52919SOL    HW270483   4.729  12.285  10.811 -0.8849 -1.3580  1.1981
52920SOL     OW70484   9.097   6.418   2.335 -0.6077  0.2758 -0.9608
52920SOL    HW170485   9.056   6.489   2.384  0.3452 -0.7566  1.4781
52920SOL    HW270486   9.049   6.340   2.363  1.4672 -0.6459  0.2166
52921SOL     OW70487   9.130  13.339   2.698 -0.5220 -0.3669 -0.0868
52921SOL    HW170488   9.152  13.261   2.648  0.2172 -0.1087 -0.1772
52921SOL    HW270489   9.137  13.411   2.636  1.6524  0.1161  0.6311
52922SOL     OW70490  13.742   3.458   7.266 -0.4326  0.0580  0.3835
52922SOL    HW170491  13.805   3.516   7.308 -0.4285  0.3313  0.0069
52922SOL    HW270492  13.684   3.430   7.337 -0.2571  0.2895  0.6205
52923SOL     OW70493   6.456  13.227   7.808  0.1671 -0.0297 -0.3362
52923SOL    HW170494   6.361  13.218   7.804  0.2027  0.0946 -2.1407
52923SOL    HW270495   6.486  13.213   7.718  1.8801 -0.2488  0.2207
52924SOL     OW70496   6.131  12.106   1.730 -0.6852  0.2967 -0.4692
52924SOL    HW170497   6.134  12.011   1.741  0.5073  0.1992 -1.4462
52924SOL    HW270498   6.101  12.118   1.640  0.4938  0.8074 -0.8113
52925SOL     OW70499   1.013   2.715   9.054 -0.0689 -0.0352  0.5009
52925SOL    HW170500   1.080   2.650   9.077 -0.8107 -0.3888  1.7225
52925SOL    HW270501   1.044   2.796   9.094  0.1239  0.0393  0.2078
52926SOL     OW70502   3.730   0.430   2.107  0.0949  0.0741 -0.5991
52926SOL    HW170503   3.816   0.455   2.143  0.7399  0.4815 -2.3396
52926SOL    HW270504   3.723   0.479   2.025 -1.9369  0.2461 -0.3739
52927SOL     OW70505  12.237   5.371   0.453 -0.2804 -1.0010  1.2204
52927SOL    HW170506  12.247   5.440   0.518  0.5247 -0.2811  0.3509
52927SOL    HW270507  12.294   5.300   0.483 -0.3474 -0.8985  1.5917
52928SOL     OW70508  10.900   9.614   8.876 -0.5681  0.2638  0.0181
52928SOL    HW170509  10.962   9.687   8.882  1.7954 -1.5526 -0.8473
52928SOL    HW270510  10.880   9.607   8.782 -1.4476  0.3098  0.1965
52929SOL     OW70511   3.306   8.372   7.197  0.1669 -0.2652  0.0476
52929SOL    HW170512   3.249   8.410   7.263  1.7524  0.7262  0.8926
52929SOL    HW270513   3.279   8.414   7.115  0.2454  0.8436  0.5758
52930SOL     OW70514   8.592   2.537   1.626  0.1281 -0.2163 -0.1013
52930SOL    HW170515   8.656   2.602   1.598 -2.1203  1.9032 -0.7234
52930SOL    HW270516   8.541   2.518   1.547 -0.4935 -1.2563  0.5189
52931SOL     OW70517  10.280   3.140   4.573 -0.3056  0.6414 -0.6194
52931SOL    HW170518  10.238   3.064   4.613 -0.3424  0.9004 -0.1557
52931SOL    HW270519  10.215   3.209   4.580 -0.3719  0.6494 -1.2801
52932SOL     OW70520   2.136  11.127  11.129  0.0062  0.1869 -0.0601
52932SOL    HW170521   2.182  11.117  11.213  0.7050  0.2188 -0.4350
52932SOL    HW270522   2.202  11.161  11.069 -0.6042  0.5796 -0.5216
52933SOL     OW70523   3.381   8.482   9.518  0.0708  0.0973 -0.1785
52933SOL    HW170524   3.319   8.493   9.446 -2.2203 -1.0059  1.4985
52933SOL    HW270525   3.391   8.569   9.555 -1.0883  0.1718 -0.0200
52934SOL     OW70526  11.743   5.035  12.682  0.2671 -0.0646 -0.4249
52934SOL    HW170527  11.668   4.978  12.667  0.4301 -0.2016 -0.7408
52934SOL    HW270528  11.777   5.008  12.767 -0.2589  0.2483 -0.1176
52935SOL     OW70529   8.022   1.716   9.492  0.0569  0.5872  0.3105
52935SOL    HW170530   8.006   1.806   9.518 -0.6212 -0.1616  2.7592
52935SOL    HW270531   8.098   1.689   9.544 -0.7608 -0.7233  0.8802
52936SOL     OW70532  13.620  10.605   0.947  0.4747 -0.1236  0.0172
52936SOL    HW170533  13.713  10.585   0.959  1.0057  1.2852 -1.4353
52936SOL    HW270534  13.595  10.653   1.026  1.1131 -0.0139  0.1544
52937SOL     OW70535   0.965  10.899   0.356  0.1604 -0.1113  0.5100
52937SOL    HW170536   0.898  10.961   0.329  1.0942  0.6455 -0.1434
52937SOL    HW270537   1.025  10.951   0.410  0.2809 -0.7532  1.0118
52938SOL     OW70538   7.304   9.142   9.186  0.0701 -0.2431 -0.4024
52938SOL    HW170539   7.396   9.139   9.160 -0.2128  0.4146 -1.5687
52938SOL    HW270540   7.289   9.058   9.230  0.8903 -0.9643 -1.4250
52939SOL     OW70541   9.857   3.749   6.820 -0.6325  0.2672  0.2443
52939SOL    HW170542   9.892   3.834   6.846  0.7201  0.6513 -2.4664
52939SOL    HW270543   9.767   3.768   6.791 -0.2390  0.8695 -0.6295
52940SOL     OW70544  10.270  11.134   8.927 -0.2845 -0.2416  0.3223
52940SOL    HW170545  10.254  11.047   8.891  0.0708 -0.1506 -0.0652
52940SOL    HW270546  10.184  11.164   8.958 -0.7301 -0.0531 -1.0509
52941SOL     OW70547  13.645   1.650  13.104 -0.7568  0.1542  0.6029
52941SOL    HW170548  13.610   1.567  13.072  0.0346  0.9759 -2.8231
52941SOL    HW270549  13.732   1.627  13.137 -0.3025 -0.3571 -0.8588
52942SOL     OW70550   8.904   8.194   8.681  0.5108 -0.5088  0.5853
52942SOL    HW170551   8.935   8.284   8.669  0.3155 -0.4095  0.8206
52942SOL    HW270552   8.972   8.151   8.732 -0.1946 -0.0102  1.9852
52943SOL     OW70553   2.017   1.308   3.898 -0.0143  0.7493  0.2710
52943SOL    HW170554   1.942   1.278   3.847 -1.0110 -0.2822  2.2649
52943SOL    HW270555   2.074   1.231   3.906 -0.5589  0.4861  1.8773
52944SOL     OW70556   2.162   8.156   6.445  0.0912  0.1602 -0.4019
52944SOL    HW170557   2.160   8.101   6.366 -0.1746 -0.1704 -0.1673
52944SOL    HW270558   2.249   8.195   6.444  0.0803  0.1844 -0.8776
52945SOL     OW70559   2.309   9.892  12.528 -0.0977  0.0628  0.2610
52945SOL    HW170560   2.244   9.927  12.588  0.3668  0.8327  0.3271
52945SOL    HW270561   2.310   9.798  12.546 -1.1464  0.0490  0.2915
52946SOL     OW70562  13.359   0.609  12.072  0.0822 -0.0903  0.0834
52946SOL    HW170563  13.362   0.513  12.064  0.1859 -0.1823  1.1534
52946SOL    HW270564  13.381   0.640  11.984 -0.0842 -1.0448 -0.3182
52947SOL     OW70565  11.304   4.744   3.103  0.1456  0.8359 -0.0499
52947SOL    HW170566  11.393   4.714   3.122 -0.2416 -0.1801  0.2093
52947SOL    HW270567  11.262   4.751   3.189 -0.5796 -0.5040 -0.2698
52948SOL     OW70568   4.062   3.337   6.242  0.1686 -0.1034  0.5552
52948SOL    HW170569   4.027   3.248   6.240 -0.5701  0.1742  0.6201
52948SOL    HW270570   4.154   3.328   6.218  0.4548 -1.0512  1.8791
52949SOL     OW70571   1.100   3.942  12.268  0.3360  0.0684 -0.0728
52949SOL    HW170572   1.028   3.992  12.308  0.4000  1.0539 -1.1490
52949SOL    HW270573   1.096   3.965  12.175  1.2567 -0.8622 -0.3514
52950SOL     OW70574   9.797   0.664  12.287  0.1085  0.1529  0.8348
52950SOL    HW170575   9.860   0.596  12.314  0.8520  0.3199 -0.4253
52950SOL    HW270576   9.850   0.743  12.280 -0.4566  0.5255  0.7633
52951SOL     OW70577  11.805   1.921   0.038  0.5580 -0.8578  0.0099
52951SOL    HW170578  11.784   1.829   0.030 -1.8193 -0.3469 -0.1695
52951SOL    HW270579  11.727   1.967   0.007  1.3446  1.2250  0.9173
52952SOL     OW70580   2.310   8.710   8.840  0.6639 -0.0661 -0.3700
52952SOL    HW170581   2.233   8.655   8.825  0.8109 -0.4308  0.1869
52952SOL    HW270582   2.293   8.789   8.789 -1.8466  1.5460  2.6219
52953SOL     OW70583   2.173   9.701   7.587  0.0606 -0.3042 -0.2718
52953SOL    HW170584   2.146   9.708   7.678  1.9044  3.6549  0.1743
52953SOL    HW270585   2.093   9.681   7.539 -1.4919  0.2486  1.9797
52954SOL     OW70586  12.823   3.068   4.486  0.2187  0.2317  0.0099
52954SOL    HW170587  12.880   3.035   4.555  0.6487 -0.9780 -0.8837
52954SOL    HW270588  12.849   3.019   4.408  1.0441  2.8446 -1.4891
52955SOL     OW70589  12.823  13.408  11.127 -0.5092 -0.0487  0.3056
52955SOL    HW170590  12.909  13.424  11.166 -0.3322  1.0421 -0.4897
52955SOL    HW270591  12.799  13.320  11.156  1.8589 -1.2959 -1.2649
52956SOL     OW70592   4.190   4.470  12.330  0.0035 -0.3881 -0.2413
52956SOL    HW170593   4.105   4.494  12.295 -0.3658  0.4011  1.1283
52956SOL    HW270594   4.201   4.378  12.307 -1.0503 -0.3948 -0.7383
52957SOL     OW70595  11.126  11.640   5.107  0.0140 -0.0773  0.1920
52957SOL    HW170596  11.087  11.650   5.194 -0.7671  1.5780 -0.3155
52957SOL    HW270597  11.129  11.546   5.093  1.0735 -0.4481  2.4128
52958SOL     OW70598   4.281   9.746   2.389  0.3184  0.7354  0.4854
52958SOL    HW170599   4.304   9.656   2.363 -2.9387 -0.8232  2.4359
52958SOL    HW270600   4.318   9.755   2.477 -1.7294  0.1467  1.4680
52959SOL     OW70601   3.385   5.270   1.090 -0.3861 -0.2176  0.0399
52959SOL    HW170602   3.393   5.344   1.029 -0.6566  0.1645  0.4628
52959SOL    HW270603   3.453   5.286   1.155 -1.2150  0.3024  0.7976
52960SOL     OW70604   3.849   1.165  11.497 -0.2298  0.5785 -0.1263
52960SOL    HW170605   3.866   1.130  11.410  0.9747 -0.5645  0.5247
52960SOL    HW270606   3.769   1.121  11.527 -0.6591  0.9947 -0.6478
52961SOL     OW70607   5.331   9.961   4.828  0.1485  0.0210 -0.0515
52961SOL    HW170608   5.281   9.898   4.881 -0.2139  0.2872 -0.0786
52961SOL    HW270609   5.330  10.042   4.880 -0.6685  0.4434 -0.7101
52962SOL     OW70610   3.205   2.064  12.352 -0.2317  0.2014  0.4234
52962SOL    HW170611   3.282   2.109  12.388  0.1872 -1.3193  1.4750
52962SOL    HW270612   3.136   2.131  12.353  0.7218  1.2204  0.6395
52963SOL     OW70613   1.112  11.843   7.123 -0.1843 -0.4441 -0.4842
52963SOL    HW170614   1.027  11.872   7.091  0.6286 -0.4285 -2.8400
52963SOL    HW270615   1.157  11.809   7.045  1.9317 -0.5314  0.6902
52964SOL     OW70616   6.810   1.150   8.334  0.3091 -0.0098 -0.0447
52964SOL    HW170617   6.783   1.230   8.289  0.9217 -0.5000 -1.3043
52964SOL    HW270618   6.729   1.100   8.344  0.4702 -0.8860 -2.6259
52965SOL     OW70619  13.228   6.523   4.322  0.6906 -0.8527 -0.4060
52965SOL    HW170620  13.146   6.573   4.320  0.5746 -1.0033  0.2223
52965SOL    HW270621  13.221   6.463   4.248 -0.8829 -2.5794  1.0416
52966SOL     OW70622   7.621  12.192  12.888  0.5687 -0.2834 -0.0485
52966SOL    HW170623   7.673  12.171  12.966 -1.9786 -2.0040  1.3155
52966SOL    HW270624   7.547  12.242  12.921 -1.1504 -1.9663 -1.1473
52967SOL     OW70625   4.265   4.693   8.972  0.1758 -0.3517 -0.5854
52967SOL    HW170626   4.349   4.693   9.018  0.4918  3.7873 -0.7627
52967SOL    HW270627   4.199   4.685   9.041  0.7329  0.5403  0.0786
52968SOL     OW70628  10.659   2.079  10.123  0.5648 -0.3566 -0.0298
52968SOL    HW170629  10.589   2.086  10.187 -0.1683 -0.8539 -0.7530
52968SOL    HW270630  10.680   2.169  10.100  0.9891 -0.1657  1.0539
52969SOL     OW70631   7.515   4.963  10.859 -0.0963 -0.3454  0.3548
52969SOL    HW170632   7.525   4.894  10.793  1.1142 -1.5823  1.7643
52969SOL    HW270633   7.425   4.994  10.847 -0.4366 -1.6775 -0.8008
52970SOL     OW70634  11.011   2.933  13.648 -0.4506 -0.1407  0.2306
52970SOL    HW170635  10.928   2.913  13.607  0.1656 -2.2220 -0.0962
52970SOL    HW270636  11.068   2.959  13.576 -0.5252  0.2831  0.3221
52971SOL     OW70637   2.458   9.364   2.941  0.2984  0.1825 -0.0644
52971SOL    HW170638   2.398   9.332   3.009 -0.8120 -1.8826 -1.9093
52971SOL    HW270639   2.429   9.454   2.925 -1.2693 -0.2403  0.2267
52972SOL     OW70640   9.031   2.623   7.626 -0.2713 -0.0967  0.2747
52972SOL    HW170641   9.108   2.670   7.595 -1.4771  1.6440 -0.2548
52972SOL    HW270642   9.014   2.658   7.713  0.2166 -1.3597  0.8953
52973SOL     OW70643   3.306   2.820   3.429 -0.0873 -0.1868 -0.2537
52973SOL    HW170644   3.234   2.770   3.390  0.1355 -0.1604 -0.7175
52973SOL    HW270645   3.384   2.786   3.384  0.0672  0.5707 -0.5651
52974SOL     OW70646  12.007   4.867   3.045  0.3850 -0.1510 -0.1128
52974SOL    HW170647  11.999   4.778   3.078  0.5509  0.0366  0.4482
52974SOL    HW270648  11.922   4.885   3.004  0.4207 -0.6309 -0.3991
52975SOL     OW70649  12.409   4.019   9.203  0.0223 -0.2398 -0.2301
52975SOL    HW170650  12.326   3.981   9.175  0.3056  0.5490 -2.3122
52975SOL    HW270651  12.404   4.110   9.176  0.5265  0.5093  2.0496
52976SOL     OW70652   4.208   1.570   8.870 -0.9695 -0.2209  0.5299
52976SOL    HW170653   4.159   1.535   8.944 -0.7041 -0.1775  0.7275
52976SOL    HW270654   4.300   1.563   8.896 -0.5314 -3.8482 -1.2778
52977SOL     OW70655   5.596   5.427   1.862  0.0488  0.1704  0.0465
52977SOL    HW170656   5.595   5.464   1.950 -1.0960 -2.0023  1.0074
52977SOL    HW270657   5.519   5.466   1.819 -1.3883 -1.2907  1.1798
52978SOL     OW70658  10.009  10.544  10.005 -0.5217 -0.1611  0.1716
52978SOL    HW170659  10.034  10.459   9.969  0.8397  0.8765 -1.4670
52978SOL    HW270660  10.091  10.592  10.012 -1.1179  0.6748  2.1424
52979SOL     OW70661   7.904  11.571   4.891  0.2472 -0.1945  0.1286
52979SOL    HW170662   7.940  11.509   4.828  2.0562  0.9425 -0.0049
52979SOL    HW270663   7.870  11.516   4.962  3.7199 -1.3878  1.0637
52980SOL     OW70664   3.496   1.180  10.194  0.1432 -0.0556 -0.1460
52980SOL    HW170665   3.414   1.160  10.238  0.6773 -1.4246  0.2650
52980SOL    HW270666   3.476   1.171  10.101 -0.6729  1.6428 -0.1717
52981SOL     OW70667   6.529  12.770  12.117 -0.8230 -0.4048  0.3320
52981SOL    HW170668   6.622  12.750  12.120 -0.2346  2.0347  0.5710
52981SOL    HW270669   6.501  12.767  12.209 -0.5935  0.3392  0.4361
52982SOL     OW70670   0.735   6.885   1.750 -0.2618 -0.2149  0.6264
52982SOL    HW170671   0.754   6.967   1.704  1.9977 -0.1330  1.5449
52982SOL    HW270672   0.678   6.837   1.690  2.3685 -0.0569 -2.3330
52983SOL     OW70673   0.867   0.681  12.607  0.3025 -0.4910 -0.4219
52983SOL    HW170674   0.932   0.685  12.537 -1.6209 -1.6485 -2.3918
52983SOL    HW270675   0.784   0.667  12.562 -0.9284 -2.1904  2.1432
52984SOL     OW70676   5.940   0.564  10.297  0.8406  0.6852  0.2706
52984SOL    HW170677   5.972   0.634  10.354  0.4218 -0.8417  2.4633
52984SOL    HW270678   6.011   0.551  10.234  0.7260  3.3716 -0.5294
52985SOL     OW70679  13.030   2.023   1.146 -0.1216 -0.0033 -0.4380
52985SOL    HW170680  12.991   1.962   1.208  0.5382 -1.2489 -1.2031
52985SOL    HW270681  12.991   2.000   1.061 -0.0101  0.7736 -0.7092
52986SOL     OW70682   7.904  11.344  13.039 -0.1170 -0.7314  0.0232
52986SOL    HW170683   7.876  11.381  12.955 -0.9308  0.7743  0.9191
52986SOL    HW270684   7.897  11.249  13.026 -3.2588 -0.5125 -0.6586
52987SOL     OW70685   4.192   9.375   8.422 -0.0229 -0.0119  0.0007
52987SOL    HW170686   4.204   9.404   8.331  0.8984 -2.7446 -0.8457
52987SOL    HW270687   4.113   9.322   8.420 -0.1119  0.0757  0.8610
52988SOL     OW70688   2.272   4.624   4.857 -0.1572 -0.3455 -0.0766
52988SOL    HW170689   2.178   4.622   4.875  0.0737 -1.0993  1.2262
52988SOL    HW270690   2.312   4.617   4.944  1.1166  1.3320 -0.4877
52989SOL     OW70691   9.427   3.406  11.865  0.0163  0.1010  0.3342
52989SOL    HW170692   9.434   3.360  11.781  0.4619  0.0859  0.3742
52989SOL    HW270693   9.512   3.450  11.874 -0.4810  1.1142  0.1883
52990SOL     OW70694   6.474  10.666   0.669 -0.2055  0.9087  0.0438
52990SOL    HW170695   6.404  10.606   0.695 -0.5995  2.2628  2.4522
52990SOL    HW270696   6.536  10.664   0.742  0.8796  1.8049 -0.8036
52991SOL     OW70697   0.686   1.739   4.595 -0.2801 -0.1676 -0.5879
52991SOL    HW170698   0.780   1.720   4.594 -0.3686 -0.8811  1.2668
52991SOL    HW270699   0.644   1.653   4.591 -0.8563  0.1223 -0.9627
52992SOL     OW70700   2.382   1.801   0.143 -0.6225 -0.1563  0.4037
52992SOL    HW170701   2.445   1.850   0.197 -0.7397  1.4810 -0.8478
52992SOL    HW270702   2.300   1.849   0.153 -1.1893 -1.1137  0.4552
52993SOL     OW70703   2.924   4.712   9.497  0.1639 -0.3208 -0.2759
52993SOL    HW170704   2.841   4.671   9.520 -0.8026  2.0655  0.8460
52993SOL    HW270705   2.980   4.697   9.573 -1.2565  2.9739  1.6018
52994SOL     OW70706   7.186   2.449   7.966  0.5656 -0.1527 -0.0895
52994SOL    HW170707   7.102   2.403   7.969  0.4235  0.1436  0.6728
52994SOL    HW270708   7.204   2.459   7.872  0.4013 -1.3808 -0.2655
52995SOL     OW70709  11.632   0.653   0.751  0.2256  0.1684 -0.5554
52995SOL    HW170710  11.677   0.695   0.825  0.3783 -0.9485  0.0057
52995SOL    HW270711  11.668   0.696   0.674  0.1712  1.2583  0.0073
52996SOL     OW70712   6.462   2.974   2.067 -0.0033  0.3777 -0.4320
52996SOL    HW170713   6.503   3.050   2.025 -1.1766  0.9304 -0.6083
52996SOL    HW270714   6.429   3.008   2.150  2.2936 -0.6964  1.0497
52997SOL     OW70715   3.156   7.570   0.710  0.0302 -0.1167  0.0927
52997SOL    HW170716   3.209   7.640   0.674 -2.8042  1.8817 -0.5330
52997SOL    HW270717   3.144   7.509   0.636  1.9396 -0.9848  0.4481
52998SOL     OW70718   6.860   8.125   9.009  0.0322  0.2277  0.2255
52998SOL    HW170719   6.865   8.188   9.082 -0.3956  1.2674 -0.6050
52998SOL    HW270720   6.774   8.084   9.019  0.0504  0.2345  0.4142
52999SOL     OW70721   3.342   3.213  10.294  0.1350 -1.0730 -0.0646
52999SOL    HW170722   3.339   3.261  10.377  1.1440  0.0139 -0.6372
52999SOL    HW270723   3.299   3.130  10.314  0.2731 -0.8046  1.5282
53000SOL     OW70724  12.093   6.020  10.460 -0.4206 -0.1207  0.5765
53000SOL    HW170725  12.034   6.035  10.533 -0.2612  0.2092  0.6362
53000SOL    HW270726  12.144   6.101  10.451  0.1042 -0.4385  0.6015
53001SOL     OW70727  11.249   8.271   6.375 -0.4951 -0.5432  0.2061
53001SOL    HW170728  11.183   8.252   6.309  0.0747 -0.2900 -0.4518
53001SOL    HW270729  11.310   8.332   6.331 -1.1977  1.2405  1.5834
53002SOL     OW70730   8.575   1.398   6.821  0.1044  0.2538 -0.2193
53002SOL    HW170731   8.546   1.475   6.772 -0.9471  0.8425  1.2454
53002SOL    HW270732   8.667   1.416   6.842  0.7358 -0.2278 -2.2826
53003SOL     OW70733   4.290  13.611  11.933  0.3110 -0.1998  0.0373
53003SOL    HW170734   4.229  13.646  11.998  0.5861  0.9778 -0.3114
53003SOL    HW270735   4.256  13.524  11.911 -0.7590  0.1070  0.4596
53004SOL     OW70736   5.029   2.417   4.384  0.5203  0.1667  0.0579
53004SOL    HW170737   5.015   2.355   4.313  0.7940 -0.0343  0.1794
53004SOL    HW270738   4.942   2.452   4.403  0.1694 -1.0387  0.7881
53005SOL     OW70739   5.566   0.629  12.804  0.8657 -0.5095 -0.0564
53005SOL    HW170740   5.540   0.545  12.765  0.1298  0.4136 -1.6809
53005SOL    HW270741   5.483   0.674  12.820  1.2664  0.0968  0.3468
53006SOL     OW70742   3.705  12.416   2.426  0.4129 -0.7663  0.3792
53006SOL    HW170743   3.705  12.505   2.391  0.3367 -0.2647  1.6031
53006SOL    HW270744   3.791  12.381   2.402  0.8064 -0.0361  0.6930
53007SOL     OW70745   4.983   2.700  10.541 -0.6377  0.2156  0.3519
53007SOL    HW170746   5.062   2.713  10.490  0.5467  1.4639  2.3551
53007SOL    HW270747   4.912   2.734  10.487  0.0011 -1.6932 -1.8278
53008SOL     OW70748  12.224   3.121   1.106 -0.4679 -0.0971 -0.0260
53008SOL    HW170749  12.174   3.042   1.087 -0.1400 -0.1842 -0.5339
53008SOL    HW270750  12.190   3.151   1.191  0.8139 -1.9110  1.2068
53009SOL     OW70751  10.698  13.622  11.365 -0.1923 -0.4073 -0.2873
53009SOL    HW170752  10.719  13.713  11.387  0.1196 -0.2832 -1.0765
53009SOL    HW270753  10.774  13.572  11.394 -0.7247 -0.5497  0.9510
53010SOL     OW70754   9.176   6.422   6.590 -0.1631 -0.1507  0.4448
53010SOL    HW170755   9.108   6.412   6.657 -1.9493 -3.1661 -1.5523
53010SOL    HW270756   9.218   6.336   6.586  1.4938  0.6507 -0.7343
53011SOL     OW70757   5.456   7.537   9.226 -0.4818  0.2730  0.0300
53011SOL    HW170758   5.544   7.503   9.245 -0.6260 -0.5374 -0.6667
53011SOL    HW270759   5.471   7.627   9.197  0.2547 -0.2023 -1.1719
53012SOL     OW70760  10.491   9.565   5.578 -0.6949  0.1879 -0.6626
53012SOL    HW170761  10.497   9.476   5.542 -1.7948  0.9016 -2.7574
53012SOL    HW270762  10.575   9.605   5.554 -1.0817  0.3862 -1.7598
53013SOL     OW70763  10.285   0.912   1.033  0.0459  0.0808 -0.2814
53013SOL    HW170764  10.343   0.876   0.966  1.5410  2.5871 -0.4569
53013SOL    HW270765  10.260   0.998   1.000 -0.8943  0.5243  1.4493
53014SOL     OW70766   1.075   8.606  12.886  0.3840 -0.3741 -0.3817
53014SOL    HW170767   1.168   8.598  12.904  0.5857  0.4250 -1.0109
53014SOL    HW270768   1.041   8.656  12.960  0.3528 -1.0953  0.1021
53015SOL     OW70769   8.102  12.876   9.764 -0.5061 -0.0706  0.1509
53015SOL    HW170770   8.135  12.950   9.814  0.0107 -0.6046  0.6185
53015SOL    HW270771   8.127  12.799   9.816  0.3815 -0.6723 -1.1042
53016SOL     OW70772  11.568   8.112   9.518 -0.4245  0.6582 -0.8157
53016SOL    HW170773  11.515   8.101   9.439 -1.0934 -0.3251 -0.2426
53016SOL    HW270774  11.545   8.037   9.573  2.8989 -0.9214 -1.3007
53017SOL     OW70775   4.380   2.855   8.240 -0.1405  0.2237 -0.1400
53017SOL    HW170776   4.447   2.808   8.190 -0.7902 -1.9275  0.8930
53017SOL    HW270777   4.401   2.836   8.331 -0.5336  1.8714  0.3144
53018SOL     OW70778   7.289   7.497   9.011 -0.2887 -0.3612 -0.0167
53018SOL    HW170779   7.337   7.579   9.025 -0.1976 -0.5733  1.0107
53018SOL    HW270780   7.357   7.434   8.987 -0.2653 -0.3016 -0.1101
53019SOL     OW70781   7.465   8.954   9.903 -0.1629  0.1610  0.0389
53019SOL    HW170782   7.534   8.962   9.970 -1.3632 -2.2995  1.7206
53019SOL    HW270783   7.513   8.956   9.820  1.8603 -0.5288  1.1036
53020SOL     OW70784   8.805   1.618  10.179 -0.3657  0.6664  0.3163
53020SOL    HW170785   8.778   1.599  10.269 -3.1819 -0.8750 -0.7407
53020SOL    HW270786   8.778   1.708  10.165 -2.2558  0.1433  0.3055
53021SOL     OW70787   8.264   5.939   7.074 -0.4763  0.2233  0.2728
53021SOL    HW170788   8.343   5.926   7.021 -0.4515  1.7166 -0.1060
53021SOL    HW270789   8.264   5.866   7.136  0.6690 -0.3450 -0.3633
53022SOL     OW70790   2.809  12.258   3.991 -0.2247  0.5967  0.3281
53022SOL    HW170791   2.782  12.166   3.987  1.1483  0.1360 -3.7680
53022SOL    HW270792   2.733  12.307   3.961 -0.8973  0.8631  2.3404
53023SOL     OW70793   4.275   3.817   8.209  0.2967 -0.0807  0.0900
53023SOL    HW170794   4.343   3.885   8.211 -0.8801  1.1417  1.2511
53023SOL    HW270795   4.195   3.863   8.234 -1.2551 -1.1888 -2.4761
53024SOL     OW70796   1.046   3.106   8.989  0.6950 -0.2266  0.1442
53024SOL    HW170797   1.048   3.050   9.066  0.4038 -0.7954 -0.2487
53024SOL    HW270798   1.074   3.192   9.020  0.4310 -0.4118  0.9058
53025SOL     OW70799   9.994   8.235  10.980  0.7217 -0.6061  0.8067
53025SOL    HW170800  10.074   8.237  10.927  0.1779 -0.0512 -0.0086
53025SOL    HW270801  10.025   8.248  11.070  1.3479  2.9153  0.2385
53026SOL     OW70802   3.356   0.683  12.551  0.6480  0.1403 -0.4401
53026SOL    HW170803   3.413   0.607  12.560  0.8397  0.2814 -0.4677
53026SOL    HW270804   3.320   0.696  12.639 -0.1751 -0.5997 -0.6540
53027SOL     OW70805   8.066   3.211  10.307  0.2927 -0.0284 -0.2696
53027SOL    HW170806   8.145   3.210  10.360  0.0598 -1.3171  0.0685
53027SOL    HW270807   8.038   3.120  10.302  0.2279  0.0562 -2.4981
53028SOL     OW70808  11.923  13.256   0.580 -0.6972 -0.0910  0.2394
53028SOL    HW170809  11.996  13.204   0.613 -1.5025 -1.5746 -0.2070
53028SOL    HW270810  11.930  13.340   0.625  1.2758 -0.1828  0.1918
53029SOL     OW70811   1.144  10.916   9.980  0.2147 -0.1760  0.8151
53029SOL    HW170812   1.148  10.855   9.906 -0.9873  0.0614  0.5248
53029SOL    HW270813   1.066  10.889  10.029 -0.9850  1.7352  0.0776
53030SOL     OW70814   1.892   8.350   4.925  0.2146 -0.0162  0.1066
53030SOL    HW170815   1.853   8.265   4.944 -0.7392  0.4897  0.4362
53030SOL    HW270816   1.933   8.377   5.008  1.4759 -0.6263 -0.2824
53031SOL     OW70817   5.110  12.807   0.615  0.1462  0.0078 -0.6573
53031SOL    HW170818   5.088  12.836   0.703  1.8212 -0.3280 -0.1108
53031SOL    HW270819   5.167  12.876   0.580  0.1444 -0.2528 -1.1810
53032SOL     OW70820   8.472   9.377   0.311 -0.4657 -0.4108  0.3326
53032SOL    HW170821   8.544   9.409   0.257  0.4945  0.2610  1.9279
53032SOL    HW270822   8.403   9.442   0.298  0.2629  0.5219  0.9514
53033SOL     OW70823   2.188   2.522  10.203 -0.0845  0.0725 -0.4671
53033SOL    HW170824   2.174   2.598  10.260  0.2905 -0.9159  0.9852
53033SOL    HW270825   2.277   2.532  10.171  0.1422  0.0009  0.1257
53034SOL     OW70826   5.758   2.238   6.876  0.1419  0.3867 -0.4489
53034SOL    HW170827   5.730   2.243   6.785  1.0231  0.8180 -0.7116
53034SOL    HW270828   5.725   2.318   6.916 -1.0338 -0.2295 -0.1411
53035SOL     OW70829   8.547  11.900   0.288  0.2197  0.0096 -0.4748
53035SOL    HW170830   8.473  11.843   0.311 -0.0278 -0.0123 -1.2868
53035SOL    HW270831   8.597  11.850   0.223  0.2234  0.5461 -0.8975
53036SOL     OW70832   1.216  13.111   8.679 -0.1735 -0.1610  0.2729
53036SOL    HW170833   1.209  13.016   8.687  0.3520 -0.2671 -0.4164
53036SOL    HW270834   1.208  13.143   8.768  2.4922 -1.0558  0.9362
53037SOL     OW70835  12.306   4.886   3.007  0.3463  0.2750 -0.3866
53037SOL    HW170836  12.231   4.836   2.974 -1.2138  1.6573  0.8522
53037SOL    HW270837  12.331   4.840   3.087 -1.1647  1.4261  0.8173
53038SOL     OW70838  12.154  12.017  12.612 -0.7662 -0.5529  0.0578
53038SOL    HW170839  12.149  12.086  12.678 -1.5021  0.4594 -1.0243
53038SOL    HW270840  12.235  11.970  12.633 -0.8496 -0.0912  1.5026
53039SOL     OW70841   2.784   9.958   9.442 -0.1573  0.4621  0.0056
53039SOL    HW170842   2.796   9.959   9.537  0.4808 -0.5448 -0.0512
53039SOL    HW270843   2.714   9.894   9.427  0.6535 -0.3869 -0.2755
53040SOL     OW70844  12.206   5.368  11.459 -0.5056  0.2033 -0.0632
53040SOL    HW170845  12.225   5.434  11.392  2.3626 -0.0740  0.3272
53040SOL    HW270846  12.286   5.364  11.511 -1.5850 -1.7020  1.5708
53041SOL     OW70847   2.719  11.458   0.919  0.5549 -0.2476 -0.2275
53041SOL    HW170848   2.812  11.447   0.936  0.5302 -0.9283 -0.5377
53041SOL    HW270849   2.712  11.460   0.823  0.4613  1.6341 -0.2217
53042SOL     OW70850   1.017  12.080   7.048  0.2109 -0.7820 -0.5906
53042SOL    HW170851   1.073  12.151   7.017 -1.1462  0.4065 -0.4507
53042SOL    HW270852   1.075  12.023   7.098  0.9743  1.5386  1.3928
53043SOL     OW70853   6.291   9.141   7.315 -0.9558 -0.3544 -0.1713
53043SOL    HW170854   6.225   9.073   7.301 -3.5825  2.0440 -0.4760
53043SOL    HW270855   6.259   9.189   7.392  1.2338  0.0998  0.5284
53044SOL     OW70856  11.525   2.086   1.181  0.7250  0.2250 -0.2340
53044SOL    HW170857  11.582   2.103   1.106  0.1206  1.6054 -0.4040
53044SOL    HW270858  11.546   2.155   1.244  0.5196 -0.3342  0.4643
53045SOL     OW70859   9.409   2.554   8.733 -0.4365 -1.6256 -0.1225
53045SOL    HW170860   9.476   2.614   8.764  0.2942 -1.5450 -1.7703
53045SOL    HW270861   9.364   2.525   8.812 -0.8307  1.0663  0.7467
53046SOL     OW70862   8.663   9.006   5.242  0.3758  0.2321 -0.0517
53046SOL    HW170863   8.592   9.070   5.232  0.1924 -0.1751 -1.6006
53046SOL    HW270864   8.709   9.008   5.158  2.1919  0.4298  0.8887
53047SOL     OW70865   2.565   3.367   0.262  0.0805 -0.3585 -0.2480
53047SOL    HW170866   2.550   3.314   0.341  1.4067 -0.8862 -0.3320
53047SOL    HW270867   2.599   3.450   0.295  0.3699 -0.4771 -0.2452
53048SOL     OW70868   5.012   9.961   3.214  0.7352  0.1456 -0.1381
53048SOL    HW170869   5.050  10.048   3.208 -0.3271  0.6023 -0.5333
53048SOL    HW270870   5.087   9.902   3.225  1.6257  0.9002 -1.8418
53049SOL     OW70871   3.896   5.977   0.340 -0.2695 -0.0091 -0.3316
53049SOL    HW170872   3.801   5.981   0.328 -0.3377  2.1360  0.4625
53049SOL    HW270873   3.913   5.890   0.376 -2.0174 -0.1637  0.1973
53050SOL     OW70874   9.473   1.358  12.829 -0.2593 -0.2895  0.2372
53050SOL    HW170875   9.396   1.349  12.885  0.7128 -1.2498  1.4770
53050SOL    HW270876   9.440   1.400  12.750 -1.8512  0.2922  1.1582
53051SOL     OW70877   7.546   5.925   0.043  0.0205  0.6709 -0.2184
53051SOL    HW170878   7.535   6.013   0.005  1.1827  0.5823 -0.7945
53051SOL    HW270879   7.536   5.938   0.137 -1.6495  1.1070 -0.4112
53052SOL     OW70880   9.278   9.436   3.403  0.5976  0.3834  0.1490
53052SOL    HW170881   9.296   9.353   3.447  0.8178 -0.2630 -1.1282
53052SOL    HW270882   9.360   9.458   3.358  0.0121  0.3790 -0.9579
53053SOL     OW70883   2.651   1.537   9.010 -0.1251 -0.4939  0.1044
53053SOL    HW170884   2.656   1.565   9.101  2.0263  0.1085 -0.1456
53053SOL    HW270885   2.566   1.568   8.980  0.3400  1.9790  1.0799
53054SOL     OW70886   5.104   2.136   1.922 -0.0719 -0.3332 -0.4270
53054SOL    HW170887   5.084   2.213   1.868  0.2308  1.1929  1.5207
53054SOL    HW270888   5.191   2.108   1.893  0.3757  0.8733 -0.3163
53055SOL     OW70889   3.148   5.463   8.348  0.2957  0.7177  0.0959
53055SOL    HW170890   3.112   5.518   8.278  1.3565  0.6256 -0.5324
53055SOL    HW270891   3.073   5.447   8.406 -0.6070  0.7914 -1.0067
53056SOL     OW70892  10.318  10.472   0.035 -0.5765  0.4871  0.4094
53056SOL    HW170893  10.241  10.512  -0.005  1.4258  0.4722 -4.0464
53056SOL    HW270894  10.380  10.461  -0.038  3.1374 -0.7777  3.4269
53057SOL     OW70895  12.156   4.603   6.935  0.0020 -0.1908  0.2922
53057SOL    HW170896  12.070   4.569   6.956  0.0116  0.6397  1.7757
53057SOL    HW270897  12.200   4.532   6.888 -1.2882 -0.8063 -0.0137
53058SOL     OW70898   2.709  12.102   1.124 -0.1175 -0.3291 -0.6458
53058SOL    HW170899   2.670  12.173   1.176  1.4984 -0.5993  1.0553
53058SOL    HW270900   2.657  12.099   1.044 -0.6716  2.3216 -0.4696
53059SOL     OW70901   1.208   9.183  12.940  0.4149 -0.0959 -0.5385
53059SOL    HW170902   1.189   9.233  13.019  1.5849  0.1637 -0.4136
53059SOL    HW270903   1.214   9.092  12.970 -2.5283 -0.5368 -0.8863
53060SOL     OW70904   3.603  10.314   7.744 -0.2118  0.1344 -0.2350
53060SOL    HW170905   3.597  10.406   7.767  1.2053  0.4604 -1.0804
53060SOL    HW270906   3.585  10.311   7.650  3.0648  0.0563 -0.9707
53061SOL     OW70907  11.531   3.165  13.245 -0.0605  0.2376 -0.1049
53061SOL    HW170908  11.594   3.184  13.315 -0.7909  0.9872  0.3658
53061SOL    HW270909  11.532   3.242  13.189  0.0245 -0.0804 -0.5437
53062SOL     OW70910  13.336  12.484   5.234 -0.0146 -0.2584 -0.1511
53062SOL    HW170911  13.426  12.507   5.210 -0.1414  0.7506  0.3116
53062SOL    HW270912  13.305  12.430   5.160  0.5370  0.4462 -0.9147
53063SOL     OW70913   7.440  12.563   6.559  0.1018  0.2094  0.2738
53063SOL    HW170914   7.435  12.470   6.582 -0.5315  0.3495  0.7309
53063SOL    HW270915   7.533  12.578   6.537 -0.2431 -1.1757 -2.6346
53064SOL     OW70916   1.372   1.213  12.355  0.6745 -0.0066 -0.3735
53064SOL    HW170917   1.419   1.275  12.299  0.8528 -0.7782 -1.1148
53064SOL    HW270918   1.281   1.220  12.328  0.3447  1.4301  1.0074
53065SOL     OW70919   5.577   9.221   9.811 -0.3457 -0.4876 -0.2664
53065SOL    HW170920   5.617   9.265   9.886 -0.7171  0.7047 -0.7460
53065SOL    HW270921   5.649   9.171   9.772  0.4719  0.8652 -0.5608
53066SOL     OW70922   7.174   7.314   5.580  0.5313 -0.6621 -0.0703
53066SOL    HW170923   7.129   7.304   5.663  0.2612 -0.3493 -0.1780
53066SOL    HW270924   7.261   7.346   5.604  0.6086 -1.0053  0.1182
53067SOL     OW70925   0.417   1.438  11.406  0.1540  0.4879 -0.4089
53067SOL    HW170926   0.485   1.372  11.400 -0.1732 -0.1696  2.0467
53067SOL    HW270927   0.463   1.522  11.399  0.9182  0.0381 -0.8143
53068SOL     OW70928   7.628   8.934   2.678 -0.1963 -0.3142 -0.4892
53068SOL    HW170929   7.713   8.978   2.676  0.1199 -0.9238 -1.5212
53068SOL    HW270930   7.593   8.946   2.589 -1.3573  0.2271  0.0221
53069SOL     OW70931   8.969  12.278   2.010 -0.3048 -0.0091 -0.1817
53069SOL    HW170932   9.024  12.335   2.064 -0.1386  0.5582 -0.9382
53069SOL    HW270933   9.032  12.231   1.954 -0.5051 -0.2954 -0.1678
53070SOL     OW70934   8.262   8.313   1.341 -0.1025 -0.9505  0.2239
53070SOL    HW170935   8.230   8.272   1.421  0.2429 -0.3073  0.7029
53070SOL    HW270936   8.195   8.377   1.318 -0.4127 -1.4434 -0.2513
53071SOL     OW70937   4.187   6.232  11.552  0.1481  0.1318  0.4240
53071SOL    HW170938   4.212   6.253  11.462 -1.7933 -0.2895 -0.2597
53071SOL    HW270939   4.188   6.136  11.555 -0.1378  0.1360  0.7451
53072SOL     OW70940   1.742  10.036   4.592 -0.0630 -0.1873  0.0242
53072SOL    HW170941   1.757  10.115   4.541  0.0999  0.9160  1.7037
53072SOL    HW270942   1.710  10.068   4.677 -1.7980 -1.9914  0.1437
53073SOL     OW70943   0.856  12.727   1.440  0.0537  0.8043  0.3978
53073SOL    HW170944   0.932  12.752   1.388 -0.1793 -1.2526 -1.0265
53073SOL    HW270945   0.828  12.808   1.482  0.8905  2.3379 -1.8515
53074SOL     OW70946  11.267   2.010   7.929  0.1181  0.4663  0.1796
53074SOL    HW170947  11.320   2.032   8.006  1.3068  1.2720 -0.8271
53074SOL    HW270948  11.271   2.088   7.874  0.0476 -0.4181 -1.1184
53075SOL     OW70949   9.633   8.602  10.615  0.2429 -0.1152  0.4387
53075SOL    HW170950   9.576   8.676  10.633 -0.6653 -1.0438  1.5648
53075SOL    HW270951   9.683   8.589  10.696  0.8428 -0.3431  0.0415
53076SOL     OW70952   7.181  10.592   4.471 -0.2640  0.0125  0.1952
53076SOL    HW170953   7.240  10.657   4.433 -1.7688  0.3606 -1.6955
53076SOL    HW270954   7.094  10.619   4.443 -1.0776 -2.0206  0.5719
53077SOL     OW70955   0.092   5.605  11.046 -0.3657  0.2640  0.0098
53077SOL    HW170956   0.101   5.535  10.981  0.9932 -0.4976  0.9611
53077SOL    HW270957   0.075   5.559  11.129 -2.9760  1.2506  0.1146
53078SOL     OW70958   3.993   1.520   2.079  0.8081 -0.2035 -0.2408
53078SOL    HW170959   3.914   1.571   2.061  1.2370 -0.0206 -1.8456
53078SOL    HW270960   3.969   1.461   2.149 -0.3728  0.7049  0.1472
53079SOL     OW70961   1.981   6.911  10.768  0.2992 -0.5131  0.6198
53079SOL    HW170962   1.966   7.005  10.762 -0.2790 -0.6291  0.1882
53079SOL    HW270963   1.912   6.872  10.715  0.1784 -1.2109  1.2762
53080SOL     OW70964   8.408   0.450   3.378  0.1349 -0.0202 -0.1276
53080SOL    HW170965   8.384   0.522   3.435 -0.3983 -0.8004  0.6615
53080SOL    HW270966   8.502   0.438   3.393 -0.1048 -0.5993  1.0666
53081SOL     OW70967  12.207   7.870   5.342  0.4483 -0.0235  0.0128
53081SOL    HW170968  12.195   7.775   5.344 -1.5161  0.1090 -2.1113
53081SOL    HW270969  12.182   7.896   5.254 -1.8941  2.8068  1.3498
53082SOL     OW70970   8.881   6.263   5.685  0.7387 -0.4327  0.0388
53082SOL    HW170971   8.826   6.186   5.693  0.7077 -0.4523 -0.3509
53082SOL    HW270972   8.967   6.229   5.657  1.1672 -0.4774  1.3480
53083SOL     OW70973   0.452   4.051   3.019 -0.6336  0.0260  0.4562
53083SOL    HW170974   0.381   4.084   2.964  0.6242 -0.9189 -1.8821
53083SOL    HW270975   0.483   3.972   2.974 -0.0832 -1.3491  3.0308
53084SOL     OW70976   4.107   0.144   3.639  0.5799 -0.3925  0.1814
53084SOL    HW170977   4.135   0.234   3.620  1.1939 -0.2768  1.5252
53084SOL    HW270978   4.096   0.142   3.734 -0.3271 -1.4948  0.0652
53085SOL     OW70979   7.840  10.080   8.725  0.5463  0.6120 -0.1190
53085SOL    HW170980   7.844   9.996   8.680  0.0362 -0.3259  1.5073
53085SOL    HW270981   7.927  10.119   8.711  0.7843 -0.1654 -0.8977
53086SOL     OW70982   4.070   1.235   8.786  0.0078  0.3186  0.7317
53086SOL    HW170983   4.118   1.297   8.730  0.8106 -0.5154  0.4707
53086SOL    HW270984   4.072   1.275   8.873  0.3894  0.7325  0.5404
53087SOL     OW70985   4.567   0.651   9.403  0.3864 -0.3449  0.2798
53087SOL    HW170986   4.591   0.635   9.494  4.5346  1.1853 -0.3496
53087SOL    HW270987   4.584   0.568   9.359  2.4380  0.0482  0.2716
53088SOL     OW70988   8.866   2.751   7.134 -1.0254  0.0335 -0.3261
53088SOL    HW170989   8.805   2.792   7.196 -1.0644 -1.0576  0.3918
53088SOL    HW270990   8.952   2.763   7.173 -0.8652  0.7820 -0.8923
53089SOL     OW70991   5.278  12.095  10.338 -0.1154 -0.5987  0.0947
53089SOL    HW170992   5.351  12.146  10.303 -1.2705  1.2056  0.1743
53089SOL    HW270993   5.249  12.040  10.265 -0.8802  1.2645 -1.0933
53090SOL     OW70994   5.640   9.646   8.860  0.3160  0.3041 -0.5417
53090SOL    HW170995   5.725   9.635   8.816  0.5355  0.2052 -0.0949
53090SOL    HW270996   5.662   9.678   8.948 -0.1578  1.2885 -0.7612
53091SOL     OW70997   1.308   3.373   7.615  0.5707  0.1857  0.1225
53091SOL    HW170998   1.338   3.330   7.534  1.0738 -0.4548  0.6367
53091SOL    HW270999   1.217   3.396   7.597  0.2543 -1.1595 -0.1660
53092SOL     OW71000   0.124   8.041   0.119  0.3066 -0.1044 -0.0195
53092SOL    HW171001   0.031   8.029   0.139  0.6746 -0.9223  1.3721
53092SOL    HW271002   0.127   8.062   0.026 -1.1618 -1.7499 -0.4819
53093SOL     OW71003   6.633   3.284   7.686  0.5998  0.7277  0.1133
53093SOL    HW171004   6.683   3.366   7.688 -2.7268  3.0448 -0.8816
53093SOL    HW271005   6.596   3.276   7.774  2.2808 -0.7518  0.7293
53094SOL     OW71006   6.929   8.046  11.724 -0.1178 -0.2532  0.6765
53094SOL    HW171007   6.884   7.998  11.793 -2.2113 -0.2334 -0.5907
53094SOL    HW271008   6.893   8.135  11.728  0.9648  0.2188  0.5849
53095SOL     OW71009   4.359  11.384   2.172  0.3168  0.6053 -0.1694
53095SOL    HW171010   4.392  11.312   2.225 -1.6507  0.0945  0.4408
53095SOL    HW271011   4.302  11.342   2.107 -1.4803  1.6121  0.6814
53096SOL     OW71012   3.179   1.076   8.322  0.1234  0.6182  0.0384
53096SOL    HW171013   3.265   1.078   8.279  0.3038  0.5714  0.3943
53096SOL    HW271014   3.193   1.022   8.400 -0.2474  0.5528  0.0595
53097SOL     OW71015   7.418  10.160   0.914  0.2190 -0.4456 -0.0117
53097SOL    HW171016   7.484  10.205   0.862  0.2919 -2.2645 -1.6202
53097SOL    HW271017   7.335  10.179   0.870  0.2057 -1.4902 -0.4689
53098SOL     OW71018  11.578   9.853  11.762  0.5910  0.1414  0.0464
53098SOL    HW171019  11.530   9.841  11.680 -0.0659 -1.1808  0.5921
53098SOL    HW271020  11.526   9.918  11.810 -0.9524 -1.5115  0.7696
53099SOL     OW71021   6.973   3.336   7.612 -0.0090  0.1752 -0.0755
53099SOL    HW171022   6.914   3.391   7.664 -0.5770 -0.9015  0.4416
53099SOL    HW271023   6.933   3.332   7.525  0.5170  1.3141 -0.3851
53100SOL     OW71024   9.241   3.423   2.688  0.3490  0.1306 -0.5961
53100SOL    HW171025   9.149   3.397   2.684  0.5355 -1.4645  2.5798
53100SOL    HW271026   9.244   3.490   2.757  1.7070 -0.7248  0.2164
53101SOL     OW71027   5.779  11.221   4.704  0.4835 -0.0333 -0.2813
53101SOL    HW171028   5.709  11.235   4.640  1.5866 -2.6047 -2.2535
53101SOL    HW271029   5.737  11.233   4.789 -1.9871 -0.0064 -1.4295
53102SOL     OW71030  12.875  12.071   8.201  0.2474 -0.2973  0.1688
53102SOL    HW171031  12.933  12.009   8.157  1.7773 -0.3479  2.1324
53102SOL    HW271032  12.892  12.155   8.157  0.4667 -0.6571 -0.4494
53103SOL     OW71033  12.291   2.118   1.135 -0.3056 -0.4587  0.1729
53103SOL    HW171034  12.307   2.045   1.195 -0.8990 -0.2600  0.5760
53103SOL    HW271035  12.320   2.195   1.184  2.5530 -0.5949 -1.0993
53104SOL     OW71036   9.756  13.698  10.130 -0.1573  0.0394  0.4596
53104SOL    HW171037   9.707  13.677  10.050 -0.0952 -1.2084  0.7194
53104SOL    HW271038   9.764  13.614  10.175 -0.2889  0.7409  1.8438
53105SOL     OW71039  11.310   6.051   3.190  0.2423 -0.6822 -0.0370
53105SOL    HW171040  11.215   6.052   3.179 -0.0262 -1.4181  1.7746
53105SOL    HW271041  11.338   5.968   3.151 -0.0092 -0.9246  0.2864
53106SOL     OW71042   1.362  11.521   5.255 -0.4327 -0.2144  0.1451
53106SOL    HW171043   1.416  11.506   5.333 -0.1296 -1.2694 -0.2521
53106SOL    HW271044   1.273  11.525   5.288 -0.3216 -0.8252  0.5355
53107SOL     OW71045   1.544  11.772   3.253 -0.5486  0.3718  0.7472
53107SOL    HW171046   1.576  11.682   3.253  0.0589  0.5439  2.2869
53107SOL    HW271047   1.605  11.818   3.311 -1.7652  1.4223  1.2372
53108SOL     OW71048  13.349   6.149   0.376 -0.6638  0.3092  0.1277
53108SOL    HW171049  13.318   6.145   0.285 -0.7950  2.0356  0.0587
53108SOL    HW271050  13.315   6.069   0.416 -0.1509 -0.7611 -1.4663
53109SOL     OW71051   4.531   9.051   8.769  0.2272 -0.2518  0.0166
53109SOL    HW171052   4.507   9.140   8.744  0.7036 -0.2367 -0.4000
53109SOL    HW271053   4.614   9.035   8.724 -0.0297 -1.0334 -0.1891
53110SOL     OW71054   3.820   4.944   1.084 -0.4748  0.1702 -0.5476
53110SOL    HW171055   3.787   4.989   1.006  1.3662  1.1374 -0.8390
53110SOL    HW271056   3.861   4.864   1.050 -1.2395 -0.3170 -0.3484
53111SOL     OW71057   5.144  11.387  13.329  0.3583 -0.0779  0.1791
53111SOL    HW171058   5.147  11.483  13.331  0.0209 -0.0350 -0.7302
53111SOL    HW271059   5.204  11.360  13.399  1.7664  0.7942 -0.6282
53112SOL     OW71060   9.265  12.211  11.406 -0.6326  0.2332 -0.2714
53112SOL    HW171061   9.174  12.203  11.379 -0.3482 -0.7780 -1.0113
53112SOL    HW271062   9.312  12.150  11.349  0.2889 -0.4269  1.1326
53113SOL     OW71063  11.560  10.143  11.429  0.1602  0.6679  0.1929
53113SOL    HW171064  11.629  10.152  11.363  0.3711  1.2176  0.4811
53113SOL    HW271065  11.551  10.048  11.441  0.2774  0.5688 -0.4553
53114SOL     OW71066   9.179   6.995   7.068 -0.7045 -0.2417 -0.3960
53114SOL    HW171067   9.262   7.036   7.093 -0.7598 -0.1143 -0.4218
53114SOL    HW271068   9.204   6.913   7.026 -0.6187 -0.5502  0.2519
53115SOL     OW71069   0.814   2.862   3.258 -0.0446  0.1386 -0.6185
53115SOL    HW171070   0.815   2.768   3.275  1.6251 -0.1112 -1.8441
53115SOL    HW271071   0.720   2.884   3.254 -0.5433 -1.9510 -2.6494
53116SOL     OW71072   1.407   1.694   4.888 -0.7045  0.5031  0.2187
53116SOL    HW171073   1.327   1.743   4.905 -0.3320  1.0081  0.5235
53116SOL    HW271074   1.478   1.753   4.913 -0.2586 -0.5219  1.5231
53117SOL     OW71075   6.194  10.681   6.389  0.2211 -0.5343  0.0435
53117SOL    HW171076   6.226  10.704   6.302  0.7144  0.5228  0.4742
53117SOL    HW271077   6.099  10.684   6.382  0.1907 -2.4813 -0.9518
53118SOL     OW71078   6.380   1.477   4.440 -0.3618  0.1522  0.3378
53118SOL    HW171079   6.323   1.479   4.363  0.3760 -1.5365 -0.2985
53118SOL    HW271080   6.337   1.417   4.500  0.1379 -0.2193  0.3341
53119SOL     OW71081   9.586  13.171   4.463 -0.1188  0.0372  0.1991
53119SOL    HW171082   9.559  13.100   4.522 -0.5283  0.1228  0.1202
53119SOL    HW271083   9.673  13.145   4.433 -0.2729 -0.4433  0.1557
53120SOL     OW71084   8.722   1.450   5.636 -0.3523 -0.1320  0.3696
53120SOL    HW171085   8.792   1.511   5.663 -0.8008 -0.0312  1.3630
53120SOL    HW271086   8.725   1.451   5.541 -0.4284  1.5473  0.3542
53121SOL     OW71087   6.289   6.961   6.062  0.2962 -0.2024 -0.5082
53121SOL    HW171088   6.342   6.955   5.982  0.0168 -0.3746 -0.6819
53121SOL    HW271089   6.286   7.055   6.081 -0.5048 -0.0512 -1.2989
53122SOL     OW71090  13.075   5.469   8.385 -0.5506  0.1240  0.1275
53122SOL    HW171091  13.055   5.376   8.379 -2.0543  0.4402 -0.1688
53122SOL    HW271092  13.079   5.498   8.294 -0.4560  0.4329  0.2292
53123SOL     OW71093   0.728   4.690  12.342 -0.6774 -0.1541  0.1467
53123SOL    HW171094   0.703   4.767  12.291  0.1372 -0.9274 -1.4785
53123SOL    HW271095   0.679   4.618  12.303 -0.0952 -0.7519  0.5083
53124SOL     OW71096  13.398   0.126  10.722  0.5108  0.4831 -0.3574
53124SOL    HW171097  13.448   0.092  10.648 -0.1486 -0.1308 -0.5344
53124SOL    HW271098  13.359   0.048  10.763 -2.3461  1.0563 -1.7271
53125SOL     OW71099   4.204   7.599  12.535 -0.2295 -0.4473 -0.1424
53125SOL    HW171100   4.172   7.582  12.623 -1.4585 -2.3147 -0.9034
53125SOL    HW271101   4.136   7.652  12.494  0.9222  1.5475  0.3604
53126SOL     OW71102   8.494   6.208   2.686  0.7607  0.4476 -0.2991
53126SOL    HW171103   8.491   6.163   2.601 -1.0816 -0.0057 -0.0246
53126SOL    HW271104   8.497   6.301   2.663  0.6317  0.3213 -0.8525
53127SOL     OW71105   9.410   9.678   1.169  0.1727 -0.1058  0.6159
53127SOL    HW171106   9.407   9.603   1.228  1.2719 -1.4432 -0.9039
53127SOL    HW271107   9.377   9.643   1.085 -0.2317  1.3861  0.1285
53128SOL     OW71108  11.894  10.589  11.654 -0.0099 -0.3478 -0.2049
53128SOL    HW171109  11.946  10.528  11.602 -0.6033 -0.1994 -0.9975
53128SOL    HW271110  11.927  10.579  11.743  0.8754 -0.7761 -0.5672
53129SOL     OW71111   9.136   4.594  12.382 -0.0714 -0.3134  0.1476
53129SOL    HW171112   9.086   4.648  12.443 -1.3888 -1.0411 -0.2531
53129SOL    HW271113   9.190   4.539  12.438  0.5808  0.7321  0.5781
53130SOL     OW71114  13.153   0.867   7.845 -0.1747  0.5158 -0.0928
53130SOL    HW171115  13.192   0.801   7.788  1.1362  0.0096  1.3288
53130SOL    HW271116  13.207   0.945   7.833  0.5646  0.1882  0.9552
53131SOL     OW71117   4.571  11.238   9.389  0.0699  0.0973  0.3647
53131SOL    HW171118   4.520  11.160   9.369  0.8608 -0.2781 -0.1863
53131SOL    HW271119   4.590  11.230   9.483  0.2132 -0.4059  0.2951
53132SOL     OW71120   5.472  12.081  10.594 -0.1894  0.1687  0.0330
53132SOL    HW171121   5.551  12.054  10.547 -0.2341 -1.6165  0.8932
53132SOL    HW271122   5.477  12.036  10.678 -1.2334  1.4810  0.8357
53133SOL     OW71123   2.336   3.938   4.081 -0.6806  0.5413  0.2437
53133SOL    HW171124   2.249   3.931   4.122 -0.5154  0.4079  0.5717
53133SOL    HW271125   2.326   3.893   3.997 -1.1301  1.1653 -0.0439
53134SOL     OW71126   9.750   2.086   1.201  0.0093  0.5731 -0.0325
53134SOL    HW171127   9.683   2.018   1.198  1.7105 -1.1815 -1.1557
53134SOL    HW271128   9.749   2.124   1.113  0.7046  0.2839 -0.1723
53135SOL     OW71129  12.068   8.162   0.012 -0.0658 -0.3609 -0.0031
53135SOL    HW171130  12.053   8.100  -0.060  0.2431 -0.3825 -0.0521
53135SOL    HW271131  12.023   8.242  -0.015  0.1000 -0.3496 -0.2486
53136SOL     OW71132  11.214   1.395   3.911  0.4194 -0.2942  0.7466
53136SOL    HW171133  11.168   1.387   3.995 -0.8519 -0.2940  0.0799
53136SOL    HW271134  11.274   1.469   3.924 -1.1229  0.9589  1.0927
53137SOL     OW71135   0.396   2.584  13.272 -0.0407  0.1446 -0.4644
53137SOL    HW171136   0.364   2.584  13.182 -0.4974 -2.0237 -0.3655
53137SOL    HW271137   0.374   2.497  13.306  0.5761  0.7101  1.5890
53138SOL     OW71138   3.726   9.683   9.128 -0.2782  0.5723 -0.1191
53138SOL    HW171139   3.699   9.746   9.061  0.6841  1.3135  0.1712
53138SOL    HW271140   3.695   9.721   9.211  0.1971  0.6089  0.0452
53139SOL     OW71141  11.539   0.501   3.878 -0.4125 -0.2692  0.2599
53139SOL    HW171142  11.482   0.554   3.933 -1.4622 -1.6973  0.5896
53139SOL    HW271143  11.627   0.539   3.892 -0.8062  0.0915  2.0655
53140SOL     OW71144   0.466  11.811   2.349 -0.6011  0.2105 -0.4008
53140SOL    HW171145   0.374  11.827   2.330 -1.2138  1.6012  2.9494
53140SOL    HW271146   0.468  11.725   2.391 -0.0449 -0.5995 -2.0017
53141SOL     OW71147   8.737  10.319   3.653 -0.5392 -0.0054 -0.1709
53141SOL    HW171148   8.808  10.368   3.694  0.6367 -1.5470 -0.2768
53141SOL    HW271149   8.699  10.267   3.725 -0.6330 -0.2374 -0.3843
53142SOL     OW71150   5.263  11.428  12.676  0.4749  0.2512 -0.0382
53142SOL    HW171151   5.275  11.492  12.606 -0.0127  0.7610  0.3440
53142SOL    HW271152   5.282  11.475  12.756 -3.4165  1.0667  0.6332
53143SOL     OW71153   0.171   6.315   4.153 -0.0661  0.0744 -0.1800
53143SOL    HW171154   0.157   6.250   4.223 -0.5992 -0.7355 -1.0143
53143SOL    HW271155   0.249   6.363   4.180 -0.7125  0.3058  1.3704
53144SOL     OW71156   8.392   8.720  12.357  0.3210  0.2004  0.3908
53144SOL    HW171157   8.345   8.636  12.360  0.1118  0.3222  0.6082
53144SOL    HW271158   8.432   8.723  12.270  1.4000 -0.7049  0.8340
53145SOL     OW71159   2.654   9.621   0.483  0.3411 -0.1543 -0.0562
53145SOL    HW171160   2.712   9.693   0.457  0.6499 -0.5679 -0.5385
53145SOL    HW271161   2.595   9.660   0.547 -0.7764  1.0435 -1.7080
53146SOL     OW71162   3.508  13.467   6.483  0.1845 -0.2342 -0.3535
53146SOL    HW171163   3.485  13.388   6.532 -0.7475  0.1481 -0.1454
53146SOL    HW271164   3.600  13.456   6.460  0.4083 -0.8003  0.7582
53147SOL     OW71165  11.643  12.475   4.808  0.5941 -0.3776  0.0700
53147SOL    HW171166  11.635  12.381   4.825 -1.2021 -0.3846 -0.5711
53147SOL    HW271167  11.619  12.485   4.716  2.1658  0.5693 -0.2612
53148SOL     OW71168   0.606   4.414   9.662  1.0309  0.6024 -0.6805
53148SOL    HW171169   0.692   4.454   9.651  2.1563 -1.3671  0.3584
53148SOL    HW271170   0.604   4.343   9.598  1.2243 -0.8921  0.8852
53149SOL     OW71171  13.339   7.813   8.697  0.2382  0.3838  0.4416
53149SOL    HW171172  13.286   7.838   8.772 -1.3317 -0.4975 -0.3192
53149SOL    HW271173  13.420   7.780   8.735 -0.0586  1.0362  1.6886
53150SOL     OW71174   1.725   1.842   6.424 -0.5377  0.0271  0.6839
53150SOL    HW171175   1.673   1.836   6.504  0.3592  0.4484  1.3275
53150SOL    HW271176   1.815   1.853   6.455 -0.1091 -0.2710 -0.3883
53151SOL     OW71177   4.382   6.856  13.548 -0.4965  0.3998 -0.1659
53151SOL    HW171178   4.420   6.779  13.507 -0.9178  0.0286  0.1294
53151SOL    HW271179   4.452   6.921  13.547  0.0422 -0.1702  0.1073
53152SOL     OW71180   1.859   5.943   8.455  0.0511  0.8317  0.7152
53152SOL    HW171181   1.911   5.970   8.379 -1.7650 -1.2185 -1.4113
53152SOL    HW271182   1.768   5.956   8.427 -0.7150 -1.7575  1.7896
53153SOL     OW71183  12.516   7.836  11.326  0.0117  0.1165 -0.2670
53153SOL    HW171184  12.572   7.907  11.356 -1.3839  1.7169 -1.2833
53153SOL    HW271185  12.559   7.804  11.246  1.3164 -1.0994  0.8724
53154SOL     OW71186  13.169   7.235  10.002  0.8928  1.2008 -0.0628
53154SOL    HW171187  13.147   7.327   9.985  0.6135  1.2317  0.4475
53154SOL    HW271188  13.099   7.204  10.060  0.6565  0.4955 -0.7087
53155SOL     OW71189  10.115  10.264   8.332 -0.4158 -0.2806 -0.2794
53155SOL    HW171190  10.134  10.334   8.269 -1.1737 -1.1603 -1.5244
53155SOL    HW271191  10.026  10.236   8.310 -0.8398 -0.3900  1.4265
53156SOL     OW71192   3.443  13.296  13.745 -0.5251  0.6732 -0.5949
53156SOL    HW171193   3.402  13.378  13.719  0.6254  1.7290  0.7363
53156SOL    HW271194   3.535  13.306  13.720 -0.8326 -1.3828 -2.9675
53157SOL     OW71195   2.072  11.491   4.050 -0.7643  0.3968  0.4226
53157SOL    HW171196   2.053  11.572   4.097  1.2690  1.3825 -0.3450
53157SOL    HW271197   2.165  11.496   4.028 -1.2351 -0.7079 -2.3054
53158SOL     OW71198   1.132   4.494   1.740 -0.6578 -0.0644 -0.2321
53158SOL    HW171199   1.040   4.521   1.740 -0.6364  0.1134  1.1723
53158SOL    HW271200   1.147   4.464   1.830  0.8550  0.6517 -0.2290
53159SOL     OW71201   6.199   3.273  12.749 -0.7640 -0.1342 -0.3450
53159SOL    HW171202   6.232   3.255  12.661 -0.1191  0.6723 -0.2728
53159SOL    HW271203   6.250   3.348  12.779 -0.2486 -1.0461  1.1292
53160SOL     OW71204   3.000   5.985   0.194 -0.0521 -0.2164 -0.3599
53160SOL    HW171205   2.996   6.055   0.129  0.1500 -0.1581 -0.3115
53160SOL    HW271206   2.909   5.965   0.215 -0.1943 -1.2891 -1.7986
53161SOL     OW71207   7.841   8.928   9.760 -0.1693 -0.3425 -0.3039
53161SOL    HW171208   7.748   8.905   9.769  0.0752 -0.8776  1.2198
53161SOL    HW271209   7.853   8.944   9.667 -2.1561  1.3840 -0.3336
53162SOL     OW71210  11.123   2.846   9.576 -0.4017 -0.2381  0.0798
53162SOL    HW171211  11.156   2.814   9.492  2.1064 -2.7884  1.8660
53162SOL    HW271212  11.042   2.796   9.590 -2.3260  2.0574 -1.8066
53163SOL     OW71213   7.527  11.562   8.815 -0.3787  0.2574  0.5816
53163SOL    HW171214   7.493  11.473   8.829 -0.2703  0.3000  1.1332
53163SOL    HW271215   7.591  11.575   8.885  0.3005  0.4261 -0.0541
53164SOL     OW71216   2.156   1.484   1.286  0.0807 -0.5430  0.1862
53164SOL    HW171217   2.251   1.478   1.272  0.2320 -1.4571  1.4449
53164SOL    HW271218   2.119   1.470   1.199  1.0829 -1.0839 -0.1853
53165SOL     OW71219  10.453   9.240  13.658  0.1779 -0.0875 -0.0882
53165SOL    HW171220  10.534   9.200  13.625  0.4174  0.5136 -0.2427
53165SOL    HW271221  10.383   9.186  13.622  0.4029  0.8681 -2.0773
53166SOL     OW71222   3.285  11.541   9.354 -0.0035 -0.2129 -0.3090
53166SOL    HW171223   3.192  11.554   9.372 -0.1166 -0.4273 -0.7272
53166SOL    HW271224   3.329  11.581   9.429 -0.4417 -0.4953  0.1055
53167SOL     OW71225  11.065  12.991   6.929 -0.5527 -0.0968 -0.4800
53167SOL    HW171226  10.979  12.948   6.925 -0.8677  0.5440 -0.6472
53167SOL    HW271227  11.049  13.080   6.899  0.5689 -0.5822 -2.8159
53168SOL     OW71228   7.303   2.731   9.227  0.5905 -0.6434  0.3560
53168SOL    HW171229   7.351   2.661   9.272  0.6888 -0.5011  0.4766
53168SOL    HW271230   7.370   2.780   9.180  0.5966 -0.3316  0.6749
53169SOL     OW71231   0.670  11.862   1.309 -0.4870 -0.6214  0.3297
53169SOL    HW171232   0.724  11.829   1.237 -1.3328 -0.0677 -0.5736
53169SOL    HW271233   0.604  11.794   1.322 -0.3516 -0.7084  0.5653
53170SOL     OW71234   1.072   0.958   3.081  0.3826 -0.6004  0.8151
53170SOL    HW171235   0.997   0.903   3.059 -0.0006  0.4016 -0.5011
53170SOL    HW271236   1.036   1.046   3.089  1.4275 -0.0527 -0.1124
53171SOL     OW71237   6.515  10.447   5.702  0.0205 -0.4189  0.5571
53171SOL    HW171238   6.492  10.361   5.666  2.9977 -1.3311  0.5619
53171SOL    HW271239   6.514  10.434   5.797 -0.6168 -0.0856  0.6059
53172SOL     OW71240   3.310   1.219   9.318  0.2168  0.4118 -0.2263
53172SOL    HW171241   3.272   1.180   9.239 -0.3758  0.8093 -0.1446
53172SOL    HW271242   3.384   1.271   9.285 -1.2823  2.3160 -0.8225
53173SOL     OW71243   4.520   1.794  12.911  0.5324  0.1242 -0.3354
53173SOL    HW171244   4.477   1.732  12.970 -0.3664  0.0166 -1.0846
53173SOL    HW271245   4.604   1.812  12.953 -0.2787  0.4486  1.2603
53174SOL     OW71246   6.963   8.042   9.338 -0.6190  0.2089 -0.1625
53174SOL    HW171247   6.974   8.038   9.433 -0.6943 -0.0384 -0.1610
53174SOL    HW271248   6.952   8.135   9.319  0.1634  0.3343 -0.0216
53175SOL     OW71249  12.844   8.409   7.717  0.3070 -0.2044 -0.3539
53175SOL    HW171250  12.915   8.453   7.764 -0.9170  0.7578  0.6574
53175SOL    HW271251  12.811   8.475   7.655 -0.4676 -0.2241  0.0209
53176SOL     OW71252   8.003   6.171   4.804  0.7023  0.1437  0.5146
53176SOL    HW171253   8.028   6.088   4.763  1.2854  0.6901 -0.2821
53176SOL    HW271254   8.076   6.192   4.863  1.5705  1.0815 -0.8212
53177SOL     OW71255  13.342  11.673  11.236 -0.3888  0.3769 -0.5681
53177SOL    HW171256  13.275  11.723  11.283 -0.4597  0.4932 -0.7876
53177SOL    HW271257  13.344  11.589  11.280 -0.8325  0.2986 -0.6875
53178SOL     OW71258  12.378   5.121   1.992  0.3623 -0.3445 -0.6503
53178SOL    HW171259  12.392   5.042   2.045 -1.3420  0.3316  0.9332
53178SOL    HW271260  12.355   5.088   1.905 -2.1452 -1.7365  0.4236
53179SOL     OW71261   3.885   1.962   3.459  0.2782 -0.2043  0.6553
53179SOL    HW171262   3.944   1.893   3.428 -1.2272 -1.6700  0.9192
53179SOL    HW271263   3.798   1.925   3.448 -0.5002  0.9496  2.5318
53180SOL     OW71264  12.911  12.279  10.452 -0.0726 -0.0478 -0.1497
53180SOL    HW171265  12.854  12.352  10.473  0.1554  0.0573  0.1047
53180SOL    HW271266  12.904  12.269  10.357 -0.7896 -0.2658 -0.0814
53181SOL     OW71267   5.498   7.246  12.687 -0.2254 -0.2649 -0.1409
53181SOL    HW171268   5.444   7.323  12.704 -0.8759 -0.9511  1.1211
53181SOL    HW271269   5.539   7.263  12.603 -0.6900  1.2603 -0.0935
53182SOL     OW71270   3.368   1.408   0.531 -0.2791  0.1204  0.9101
53182SOL    HW171271   3.335   1.496   0.551 -0.7057  0.4560 -1.0702
53182SOL    HW271272   3.289   1.355   0.521 -0.1403  0.1040 -0.3044
53183SOL     OW71273   7.191  13.027   3.922  0.0695 -0.4675  0.1415
53183SOL    HW171274   7.152  13.089   3.861  0.2656 -0.7179 -0.2450
53183SOL    HW271275   7.171  12.941   3.885  0.2136 -0.6225  0.4167
53184SOL     OW71276   8.847   6.039   7.639  0.0506  0.6341  0.1921
53184SOL    HW171277   8.831   5.965   7.581 -0.9430 -1.0120  2.4308
53184SOL    HW271278   8.940   6.056   7.630 -0.1130  0.7021 -2.1025
53185SOL     OW71279   7.383  10.338   3.613  0.1789 -0.0250 -0.2439
53185SOL    HW171280   7.344  10.279   3.548 -0.4913  0.1909 -0.0447
53185SOL    HW271281   7.335  10.420   3.604 -0.4663 -0.2368  1.0576
53186SOL     OW71282   8.611  12.907  11.661  0.1659  0.0921 -0.2914
53186SOL    HW171283   8.535  12.875  11.709  0.3633 -0.0975 -0.1063
53186SOL    HW271284   8.587  12.899  11.569  0.3446 -0.9067 -0.2529
53187SOL     OW71285   7.794   2.007  11.943  0.0747  0.2034 -0.1695
53187SOL    HW171286   7.715   2.004  11.997 -0.5646  1.0040 -1.0028
53187SOL    HW271287   7.866   2.019  12.004 -0.1209 -2.8981  0.8488
53188SOL     OW71288   1.035   4.250   0.392 -0.0355 -0.1806 -0.6056
53188SOL    HW171289   0.948   4.279   0.418  0.1152  0.9729 -1.3161
53188SOL    HW271290   1.021   4.162   0.357 -0.6732 -0.5865  0.6147
53189SOL     OW71291   5.674   6.535   8.267 -0.7194 -0.0039  0.5244
53189SOL    HW171292   5.735   6.462   8.273  0.3596  0.9795  2.7370
53189SOL    HW271293   5.719   6.600   8.214 -1.4599 -0.6774 -0.9944
53190SOL     OW71294   2.563   6.870   4.414  0.2278 -0.1312  0.2101
53190SOL    HW171295   2.496   6.830   4.469 -0.8618  0.7636 -0.4484
53190SOL    HW271296   2.619   6.918   4.475 -0.3843  0.0325  0.6449
53191SOL     OW71297   7.139  13.441   4.523 -0.0865  0.1205 -0.2690
53191SOL    HW171298   7.187  13.521   4.502  2.1529 -0.4088  2.2520
53191SOL    HW271299   7.200  13.370   4.503 -0.8421 -0.7624  0.4473
53192SOL     OW71300   3.393   3.263   0.641 -0.3168 -0.5394  0.1800
53192SOL    HW171301   3.372   3.248   0.549 -0.3011  0.0887  0.0649
53192SOL    HW271302   3.337   3.337   0.666 -0.1059 -0.5172  0.5921
53193SOL     OW71303   2.033   0.766   6.587  0.1238 -0.0991 -0.4604
53193SOL    HW171304   2.108   0.825   6.581  1.1892 -1.1343  1.7349
53193SOL    HW271305   2.069   0.679   6.573 -0.4561 -0.7109  1.5564
53194SOL     OW71306   1.010   4.312   5.301 -0.3945 -0.3255  0.5380
53194SOL    HW171307   1.099   4.290   5.272 -0.4317 -0.0363  0.1903
53194SOL    HW271308   0.953   4.262   5.243 -0.4635 -0.2119  0.5088
53195SOL     OW71309  11.452   2.143  10.454 -0.2226 -0.1382 -0.5719
53195SOL    HW171310  11.511   2.189  10.514 -1.6141  1.3442 -0.2767
53195SOL    HW271311  11.444   2.202  10.379 -3.4708  1.0747  0.5907
53196SOL     OW71312   1.823   3.177   8.826  0.5638  0.4477  0.6757
53196SOL    HW171313   1.739   3.158   8.785  0.7335  0.8790  0.1139
53196SOL    HW271314   1.855   3.092   8.857  1.2396 -0.2075 -1.6178
53197SOL     OW71315   3.112   3.840   7.381  0.5492 -0.2011  0.0603
53197SOL    HW171316   3.027   3.819   7.420  1.8270 -0.6970  2.8422
53197SOL    HW271317   3.165   3.762   7.397  1.3957 -0.1906 -2.2731
53198SOL     OW71318   3.868   7.734   3.061 -0.1631  0.1605 -0.7721
53198SOL    HW171319   3.850   7.742   3.154 -0.3987  0.2766 -0.8270
53198SOL    HW271320   3.925   7.658   3.053  0.2214  0.4187 -0.4841
53199SOL     OW71321   0.858   3.207   7.349  0.0584  0.1314  0.3918
53199SOL    HW171322   0.940   3.170   7.380  0.1423 -0.3336 -0.3586
53199SOL    HW271323   0.818   3.245   7.427  0.5198 -0.5064  0.9546
53200SOL     OW71324   8.355   8.495   5.397  0.1028 -0.2514  0.4696
53200SOL    HW171325   8.379   8.405   5.373  0.4965  0.1444 -0.6965
53200SOL    HW271326   8.318   8.487   5.485  0.9721 -1.4254  0.7584
53201SOL     OW71327  11.706   0.437   4.938  0.2170  0.0327 -0.5728
53201SOL    HW171328  11.711   0.367   4.872 -1.1179  1.7482 -2.6358
53201SOL    HW271329  11.789   0.483   4.929 -0.2222  0.6592 -1.5819
53202SOL     OW71330  11.971   8.743   1.996  0.1006  0.2573 -0.0145
53202SOL    HW171331  12.065   8.728   1.997 -0.0002 -0.4705 -0.5776
53202SOL    HW271332  11.961   8.833   1.965  0.6306  0.6172  0.8345
53203SOL     OW71333   1.567   2.808   2.363  0.0751  0.2158 -0.2956
53203SOL    HW171334   1.502   2.851   2.417 -0.6765 -1.0141 -0.1904
53203SOL    HW271335   1.651   2.844   2.393 -0.5318  2.1274 -0.7126
53204SOL     OW71336   4.464   2.122   1.693 -0.7065 -0.0524  0.1054
53204SOL    HW171337   4.431   2.054   1.751  0.6924 -0.7063  0.1765
53204SOL    HW271338   4.531   2.078   1.640 -0.0130  1.1846 -0.0783
53205SOL     OW71339   9.402  11.199   3.437  0.1221 -0.1119 -0.6281
53205SOL    HW171340   9.477  11.201   3.498 -0.1318 -0.7948 -0.2905
53205SOL    HW271341   9.343  11.134   3.474 -0.1161 -0.4101 -1.5275
53206SOL     OW71342  11.993   3.620   8.993 -0.3733  0.2603 -0.1052
53206SOL    HW171343  12.082   3.588   9.010 -0.3072 -0.1083 -1.0669
53206SOL    HW271344  11.990   3.632   8.898 -2.1980 -2.3972 -0.4967
53207SOL     OW71345  11.135   7.131  11.548 -0.6125 -0.4890 -0.5352
53207SOL    HW171346  11.132   7.225  11.532  1.2004 -0.3576 -0.2998
53207SOL    HW271347  11.227   7.108  11.538 -0.8331 -2.0295  0.6427
53208SOL     OW71348  11.778   7.100   9.288  0.4352  0.4027  0.0716
53208SOL    HW171349  11.769   7.039   9.216 -0.2816  0.7418 -0.1265
53208SOL    HW271350  11.697   7.092   9.338  0.6892  0.5742  0.5254
53209SOL     OW71351   4.633   3.197   2.909  0.0380 -0.3883 -0.7260
53209SOL    HW171352   4.669   3.194   2.998  0.7137  2.8062 -0.7497
53209SOL    HW271353   4.662   3.115   2.868  1.9368 -0.7777  1.2053
53210SOL     OW71354   0.153  13.647   1.759  0.4610  0.3318 -0.0191
53210SOL    HW171355   0.155  13.711   1.688 -0.4344  1.1858  0.7095
53210SOL    HW271356   0.060  13.636   1.780  0.5633 -1.3925 -0.2716
53211SOL     OW71357   6.687   4.842  11.073 -0.2668  0.0569 -0.0661
53211SOL    HW171358   6.655   4.931  11.058 -0.8970 -0.4826 -2.2943
53211SOL    HW271359   6.775   4.853  11.107  0.1943  1.5721 -1.6197
53212SOL     OW71360  11.964   0.437   8.646 -0.0322  0.3421 -0.1379
53212SOL    HW171361  11.898   0.382   8.688 -1.2562  2.1988  0.5173
53212SOL    HW271362  12.044   0.422   8.697  0.1938 -2.1016 -1.0819
53213SOL     OW71363   9.357   5.412   7.523 -0.7974 -0.3871  0.2940
53213SOL    HW171364   9.355   5.320   7.497  3.1800  0.2826 -3.4619
53213SOL    HW271365   9.310   5.458   7.453  0.3686  0.6478  0.1451
53214SOL     OW71366   5.273   5.010  12.158 -0.4584  0.0745 -0.6049
53214SOL    HW171367   5.184   4.975  12.155  0.0661 -1.2855 -2.6263
53214SOL    HW271368   5.304   5.004  12.068  1.3717  1.3872 -0.1145
53215SOL     OW71369  13.317   3.510   8.651 -0.1702  0.3225  0.3615
53215SOL    HW171370  13.392   3.523   8.594  0.0400 -0.9253  0.3269
53215SOL    HW271371  13.241   3.525   8.594  0.0397  1.8557  0.4684
53216SOL     OW71372   7.723   7.049   8.602  0.1876  0.1969  0.0475
53216SOL    HW171373   7.764   7.071   8.518  0.4528  1.5353  0.5016
53216SOL    HW271374   7.631   7.073   8.591  0.1381  0.0046  0.0258
53217SOL     OW71375   7.954   2.355  12.408 -0.1275  0.4091  1.1140
53217SOL    HW171376   8.045   2.354  12.380 -0.2272 -2.5045  0.6222
53217SOL    HW271377   7.927   2.447  12.399  2.0155  0.9139 -1.1201
53218SOL     OW71378  12.478  13.039   1.785 -0.3754  0.1735 -0.1234
53218SOL    HW171379  12.424  13.101   1.835  0.0750 -0.8587  1.7327
53218SOL    HW271380  12.568  13.061   1.808 -0.2170 -1.3326  0.8437
53219SOL     OW71381  11.058   3.932   1.364 -0.2328  0.2894  0.4159
53219SOL    HW171382  11.082   4.024   1.355  0.2763 -0.0257 -2.0618
53219SOL    HW271383  10.963   3.933   1.373 -0.0730  1.1243  2.7288
53220SOL     OW71384   2.437   2.933   6.858 -0.5042  0.0261 -0.7200
53220SOL    HW171385   2.429   3.027   6.866 -1.1503 -0.0876 -0.0404
53220SOL    HW271386   2.530   2.915   6.877 -1.0214  0.2015  2.4892
53221SOL     OW71387  13.169  10.953   3.804 -0.0731 -0.2351 -0.4353
53221SOL    HW171388  13.084  10.939   3.847  1.4783 -1.6536  2.4967
53221SOL    HW271389  13.219  10.874   3.825  2.3521  1.0343 -1.1277
53222SOL     OW71390  10.115   4.871   6.204  0.1527 -0.3308 -0.1327
53222SOL    HW171391  10.135   4.892   6.295  0.7267  2.1740 -0.7530
53222SOL    HW271392  10.141   4.950   6.155 -0.1653 -1.5781 -2.4618
53223SOL     OW71393  12.348  10.554   8.688 -0.1726 -0.0383 -0.4276
53223SOL    HW171394  12.266  10.601   8.672 -0.9024 -0.2667  2.2314
53223SOL    HW271395  12.397  10.611   8.748  0.8325 -0.7204 -0.5786
53224SOL     OW71396   0.682  12.119  12.544  0.2014 -0.3184  0.1301
53224SOL    HW171397   0.605  12.069  12.519 -1.3982  2.0989 -0.0445
53224SOL    HW271398   0.747  12.097  12.477 -0.8137 -1.2574 -0.5818
53225SOL     OW71399   8.051   4.808   1.062  0.0875 -0.4289  0.0166
53225SOL    HW171400   7.966   4.839   1.029  1.0394  1.5524 -0.7165
53225SOL    HW271401   8.111   4.819   0.989  0.7036 -3.5704 -0.1001
53226SOL     OW71402  10.845   3.742   4.349  0.0845  0.2149 -0.5980
53226SOL    HW171403  10.758   3.780   4.361  0.1054  0.2132 -0.4479
53226SOL    HW271404  10.835   3.650   4.372  0.4604  0.5176  0.8813
53227SOL     OW71405   8.706   0.191  12.503  0.5312 -0.1654  0.5022
53227SOL    HW171406   8.664   0.248  12.568 -0.2620  0.2004 -0.3096
53227SOL    HW271407   8.685   0.231  12.419  0.7626 -1.1493 -0.0400
53228SOL     OW71408   3.544   7.212   7.146 -0.0672 -0.1148  0.0806
53228SOL    HW171409   3.529   7.297   7.188  0.2736 -0.1946  0.3655
53228SOL    HW271410   3.511   7.148   7.209 -1.1430 -0.1610 -0.5053
53229SOL     OW71411  10.759  10.633  10.940  0.3117  0.1869  0.1627
53229SOL    HW171412  10.783  10.707  10.884  1.0037 -0.4904 -0.4576
53229SOL    HW271413  10.674  10.657  10.977  1.3544  2.1175  1.4395
53230SOL     OW71414   1.499   3.344  12.140  0.6075 -0.5918  0.0418
53230SOL    HW171415   1.502   3.252  12.167 -1.5920 -1.3555 -1.9316
53230SOL    HW271416   1.512   3.394  12.220  0.9382 -2.6301  1.3231
53231SOL     OW71417   9.373   0.100   2.370  0.2609  0.3581 -0.3935
53231SOL    HW171418   9.278   0.098   2.358  0.0913  0.6639  0.7681
53231SOL    HW271419   9.398   0.190   2.347  0.0286  0.7531  0.8265
53232SOL     OW71420   3.508   6.717   8.567  0.7238  0.2360  0.3875
53232SOL    HW171421   3.541   6.774   8.636  0.9726  1.0633 -0.3883
53232SOL    HW271422   3.452   6.654   8.612  0.2271  1.2508  1.2477
53233SOL     OW71423   2.127   3.243  13.245  0.1095  0.0343  0.1088
53233SOL    HW171424   2.180   3.212  13.318 -0.7342 -0.5260  0.5043
53233SOL    HW271425   2.136   3.338  13.247  0.5547 -0.0150  0.5920
53234SOL     OW71426   2.320   0.011   4.998  0.5636  1.0267  0.2284
53234SOL    HW171427   2.342  -0.067   4.947  0.8617  0.2956  1.4463
53234SOL    HW271428   2.332  -0.015   5.089 -1.8316  1.6955  0.8152
53235SOL     OW71429   9.352  11.798   2.978  0.0892 -0.8204 -0.3602
53235SOL    HW171430   9.314  11.719   3.016 -1.9094 -0.3717 -1.3239
53235SOL    HW271431   9.419  11.825   3.042  0.2529 -2.8020  0.3801
53236SOL     OW71432  12.791   5.167   4.977 -0.2641  0.1982  0.3147
53236SOL    HW171433  12.847   5.237   5.012 -0.4481  0.2422  0.5218
53236SOL    HW271434  12.718   5.162   5.038 -0.8029  0.5651 -0.2957
53237SOL     OW71435  12.745   6.757   6.783  0.0842  0.5969  0.6347
53237SOL    HW171436  12.701   6.682   6.824 -1.4758  1.5961  0.8640
53237SOL    HW271437  12.722   6.751   6.690  1.0220  0.1060  0.4154
53238SOL     OW71438  12.445   8.866  10.646  0.1863 -0.0378  0.2771
53238SOL    HW171439  12.367   8.863  10.591 -0.0824  0.3808  0.6384
53238SOL    HW271440  12.461   8.959  10.662 -0.6266 -0.1841  2.1650
53239SOL     OW71441  10.130   8.090   1.251 -0.4745  0.2627  0.2948
53239SOL    HW171442  10.047   8.054   1.218  0.1377 -0.6570 -0.2876
53239SOL    HW271443  10.146   8.167   1.197  0.2202 -0.8943 -1.2344
53240SOL     OW71444   0.207   9.242   5.569 -0.2607 -0.3665  0.2065
53240SOL    HW171445   0.223   9.153   5.601 -0.8430 -0.8159 -0.7049
53240SOL    HW271446   0.113   9.245   5.554 -0.2098  0.3266 -0.0021
53241SOL     OW71447  11.694   2.689   4.028  0.0249 -0.3419  0.5738
53241SOL    HW171448  11.702   2.761   4.090 -0.0367 -0.8156  1.1412
53241SOL    HW271449  11.773   2.637   4.042  1.6005  1.1831 -1.9193
53242SOL     OW71450   0.256   7.585  13.528 -0.1115  0.0625  0.5773
53242SOL    HW171451   0.169   7.546  13.516  0.5198 -0.9634 -0.8909
53242SOL    HW271452   0.261   7.653  13.461  1.2120 -1.7430 -1.2898
53243SOL     OW71453   0.991   2.896   1.332 -0.2960  0.2006  0.2247
53243SOL    HW171454   1.047   2.842   1.386  0.7656  1.3320  0.3064
53243SOL    HW271455   0.982   2.847   1.250 -1.1256 -1.0691  1.0490
53244SOL     OW71456  10.119  11.206   9.566 -0.1437 -0.1417 -0.3443
53244SOL    HW171457  10.131  11.263   9.490 -1.2833 -0.4077 -0.7498
53244SOL    HW271458  10.171  11.247   9.635  1.3561 -0.1853 -1.3879
53245SOL     OW71459   3.836   0.736   7.073 -0.6407  0.7310 -0.0250
53245SOL    HW171460   3.923   0.700   7.082 -1.0027 -0.5940 -1.5463
53245SOL    HW271461   3.850   0.826   7.042  0.1611  0.6245  0.0155
53246SOL     OW71462   1.791  13.175   3.857 -0.2899 -0.1864 -0.0865
53246SOL    HW171463   1.827  13.181   3.946  0.1853 -0.2974 -0.2652
53246SOL    HW271464   1.869  13.173   3.800 -0.6073  1.1167 -0.5945
53247SOL     OW71465  11.514  11.459   4.076 -0.3119 -0.5111  0.1387
53247SOL    HW171466  11.594  11.407   4.073  0.1663  0.2521 -0.8958
53247SOL    HW271467  11.464  11.422   4.149  1.4733 -0.2802  1.5517
53248SOL     OW71468   0.971   1.425   4.273  0.3554 -0.0923 -0.0617
53248SOL    HW171469   1.065   1.423   4.290  0.2573 -0.1198  0.4784
53248SOL    HW271470   0.962   1.487   4.200  0.7589  0.1393  0.0804
53249SOL     OW71471   3.244   3.047   8.335 -0.2767 -0.2869 -0.5608
53249SOL    HW171472   3.283   2.960   8.324 -0.0547 -0.1362 -1.0139
53249SOL    HW271473   3.212   3.070   8.248 -0.5383 -0.0115 -0.3931
53250SOL     OW71474   5.983   3.146  13.144  0.3481  0.6217  0.0594
53250SOL    HW171475   6.040   3.164  13.219  0.2161 -1.0215  0.6073
53250SOL    HW271476   6.042   3.112  13.077  0.1089 -0.8731  0.5512
53251SOL     OW71477   6.134   9.032   7.797 -0.2136  0.4991  0.5382
53251SOL    HW171478   6.092   9.020   7.882  1.3178  3.1831  1.7790
53251SOL    HW271479   6.226   9.048   7.817  0.4037  0.1942 -1.7220
53252SOL     OW71480   2.194   7.890   7.810  0.2911 -0.0655 -0.3515
53252SOL    HW171481   2.173   7.913   7.719 -0.9859  0.5205  0.0625
53252SOL    HW271482   2.186   7.973   7.858 -0.8552 -0.6918  0.5854
53253SOL     OW71483   1.838  10.832   5.591 -0.3156 -0.0620  0.4434
53253SOL    HW171484   1.775  10.876   5.534 -0.9286 -1.7791 -0.2915
53253SOL    HW271485   1.922  10.843   5.547 -0.7869 -1.3773 -0.8681
53254SOL     OW71486   3.859   9.793   8.131  0.2161 -0.7979  0.7322
53254SOL    HW171487   3.787   9.851   8.157  0.5201 -0.2991  0.4929
53254SOL    HW271488   3.932   9.853   8.113  0.0408 -1.1005 -1.2301
53255SOL     OW71489   9.829  12.323   3.800 -0.3120 -0.0307  0.2426
53255SOL    HW171490   9.745  12.367   3.788  0.4358  1.9319  1.6947
53255SOL    HW271491   9.835  12.308   3.895  0.6788 -0.7965  0.0746
53256SOL     OW71492  10.823  12.696   5.851  0.3252  0.1854  0.3086
53256SOL    HW171493  10.757  12.633   5.881  1.0129 -0.9576 -0.4995
53256SOL    HW271494  10.815  12.694   5.755  0.8002  0.8514  0.2490
53257SOL     OW71495   3.778   4.595   6.020 -0.1070 -0.3482 -0.0655
53257SOL    HW171496   3.823   4.571   5.939 -0.9026 -0.5476 -0.4644
53257SOL    HW271497   3.808   4.683   6.039  0.2812 -0.3959 -0.4429
53258SOL     OW71498  12.429  11.871   7.268  0.3047 -0.0136 -0.2547
53258SOL    HW171499  12.449  11.956   7.230 -0.1960 -0.4209 -1.4966
53258SOL    HW271500  12.515  11.834   7.291  0.5385  0.6977  0.0287
53259SOL     OW71501   1.594   0.572   1.075  0.2954  0.1012  0.0632
53259SOL    HW171502   1.512   0.542   1.037  0.4765 -0.7861  0.3589
53259SOL    HW271503   1.656   0.572   1.003  0.4456 -0.8347  0.1827
53260SOL     OW71504   5.914  11.719  10.566 -0.0214  0.3083 -0.1837
53260SOL    HW171505   5.885  11.775  10.493 -2.3510  0.7275  0.9714
53260SOL    HW271506   5.926  11.779  10.639 -0.9175 -0.4546  0.6262
53261SOL     OW71507   1.187   6.330   4.913  0.8347  0.5999  0.3427
53261SOL    HW171508   1.138   6.256   4.877  0.2784  1.2206 -0.2184
53261SOL    HW271509   1.120   6.395   4.933  1.4240  1.5682 -0.6814
53262SOL     OW71510   1.052   0.119   1.435  0.0423 -0.0479  0.5059
53262SOL    HW171511   1.058   0.168   1.352  0.7186 -0.0149  0.5683
53262SOL    HW271512   1.009   0.180   1.495 -0.1271  0.0595  0.2812
53263SOL     OW71513   2.795  13.444   8.100 -0.1380  0.9347  0.6949
53263SOL    HW171514   2.706  13.453   8.134  0.8849  0.3373  3.8681
53263SOL    HW271515   2.830  13.368   8.147  2.2662  1.5610  0.0224
53264SOL     OW71516   1.278   2.669   3.112  0.5427  0.0055 -0.1305
53264SOL    HW171517   1.373   2.654   3.107  0.4987 -0.1494 -0.6022
53264SOL    HW271518   1.261   2.736   3.046  0.2654 -0.2585 -0.3277
53265SOL     OW71519   2.760   9.117   2.367  0.0033 -0.0116  0.7557
53265SOL    HW171520   2.757   9.041   2.309  0.6888  0.8926 -0.4876
53265SOL    HW271521   2.731   9.083   2.452  1.0678 -1.8478  0.4352
53266SOL     OW71522  12.497  10.822  11.378  0.1795  0.4972 -0.1541
53266SOL    HW171523  12.556  10.748  11.360 -1.4945 -1.1891  0.9029
53266SOL    HW271524  12.410  10.781  11.388 -1.0447  2.7789 -0.8316
53267SOL     OW71525   0.872   1.162   1.713  0.4501  0.0764  0.2546
53267SOL    HW171526   0.781   1.161   1.682  0.3940 -1.8850  0.3632
53267SOL    HW271527   0.865   1.171   1.808  0.3167 -0.8594  0.3422
53268SOL     OW71528  11.693   3.603   1.442  0.3452 -0.3948 -0.1904
53268SOL    HW171529  11.737   3.643   1.367 -0.2768  0.3818 -0.1511
53268SOL    HW271530  11.678   3.512   1.415 -0.7103  0.1094 -1.3909
53269SOL     OW71531   4.077   0.787   2.586 -0.4252  0.3700  0.4729
53269SOL    HW171532   4.063   0.726   2.659 -0.9518 -0.4456 -0.2895
53269SOL    HW271533   4.034   0.867   2.614  2.3381  1.2565  2.5328
53270SOL     OW71534   5.372   0.287  11.846 -0.2251 -0.0631  0.5596
53270SOL    HW171535   5.463   0.308  11.864  0.3062 -1.2264 -0.5932
53270SOL    HW271536   5.335   0.263  11.931  0.3511  1.0178  1.1338
53271SOL     OW71537   1.125  11.915  13.121 -0.3641 -0.4271  0.0170
53271SOL    HW171538   1.062  11.987  13.120 -0.3293 -0.3659  1.2747
53271SOL    HW271539   1.077  11.842  13.159 -0.4771 -1.1650 -1.4899
53272SOL     OW71540   5.203   6.382   7.948 -0.4522 -0.5152 -0.2429
53272SOL    HW171541   5.213   6.424   7.863 -1.2102 -1.8662 -1.0283
53272SOL    HW271542   5.286   6.337   7.962 -0.6416 -0.9981 -0.6691
53273SOL     OW71543  12.208   1.554  11.412 -0.4587 -0.0100 -0.3711
53273SOL    HW171544  12.247   1.636  11.442 -1.3574  0.0718  0.6422
53273SOL    HW271545  12.269   1.522  11.345  1.2840  0.1661  1.0327
53274SOL     OW71546  10.286  11.006   6.887 -0.3849  0.0409  0.6543
53274SOL    HW171547  10.292  11.058   6.967  0.6371 -1.4839  1.6033
53274SOL    HW271548  10.203  11.034   6.847  0.6321  3.2247  0.4730
53275SOL     OW71549   0.201  11.929   1.509  0.1828  0.6251 -0.6192
53275SOL    HW171550   0.289  11.916   1.544  0.8814 -1.4665 -2.8316
53275SOL    HW271551   0.215  11.956   1.418 -1.4581  0.6261 -0.9052
53276SOL     OW71552   7.227   9.866   4.529 -0.1744 -0.3963 -0.3230
53276SOL    HW171553   7.170   9.806   4.481  1.3360 -2.4846  0.3623
53276SOL    HW271554   7.299   9.884   4.469 -0.4357  0.4948 -0.3889
53277SOL     OW71555   3.651  12.794   5.283  0.2155 -0.1682 -0.3927
53277SOL    HW171556   3.596  12.760   5.213 -0.2497  0.7998 -0.5098
53277SOL    HW271557   3.728  12.829   5.238 -0.0015  0.2934 -0.4067
53278SOL     OW71558   1.107   8.736   7.520  0.3313  0.6157 -0.2991
53278SOL    HW171559   1.187   8.692   7.551 -0.4651 -1.0801 -0.5322
53278SOL    HW271560   1.097   8.811   7.579  0.6166 -0.6991  1.5179
53279SOL     OW71561   3.624   0.575   8.951  0.3355 -0.6725  0.3124
53279SOL    HW171562   3.649   0.556   8.861 -1.6429  0.7148 -0.6018
53279SOL    HW271563   3.572   0.499   8.978 -0.2344 -0.4784 -0.2203
53280SOL     OW71564   4.794   5.611   5.438 -0.1972 -0.2071  0.1192
53280SOL    HW171565   4.801   5.601   5.533 -4.0428 -0.6768  0.5132
53280SOL    HW271566   4.768   5.702   5.425 -1.0739 -0.5199 -0.3610
53281SOL     OW71567   9.000   0.084   5.717  0.1011  0.1907 -0.0816
53281SOL    HW171568   9.030   0.016   5.656  1.2574  0.8501 -0.2883
53281SOL    HW271569   8.905   0.082   5.710  0.1935  0.0589 -1.7181
53282SOL     OW71570   4.232   7.226   5.507 -0.1482 -0.2461 -0.2595
53282SOL    HW171571   4.188   7.172   5.441  0.2619 -1.8993  0.7642
53282SOL    HW271572   4.319   7.188   5.516 -0.1699 -0.0264  1.1673
53283SOL     OW71573   8.092   3.455   8.237  0.2869  0.0517  0.6441
53283SOL    HW171574   8.101   3.416   8.150  0.9688  0.2677  0.6072
53283SOL    HW271575   8.087   3.380   8.296  0.0908 -0.0938  0.4443
53284SOL     OW71576   8.324  12.212   2.448 -0.6096  0.1251  0.0398
53284SOL    HW171577   8.270  12.248   2.377  2.3622  1.7909 -1.5800
53284SOL    HW271578   8.387  12.155   2.404  0.1238 -0.3281  1.5968
53285SOL     OW71579   9.176  11.239  13.645 -0.0468 -0.2103  0.6297
53285SOL    HW171580   9.238  11.176  13.608  0.3393  1.2386 -1.3509
53285SOL    HW271581   9.175  11.312  13.582 -2.5810  0.5187  1.3819
53286SOL     OW71582  11.030  11.692   4.853 -0.3649  0.0989 -0.3801
53286SOL    HW171583  11.048  11.658   4.941 -0.1516  1.9116  0.3227
53286SOL    HW271584  10.935  11.684   4.843 -0.2914 -0.9659 -0.3827
53287SOL     OW71585   1.787  10.096   3.643 -0.4903 -0.1863 -0.0540
53287SOL    HW171586   1.789  10.170   3.704 -0.9389 -0.0993 -0.1420
53287SOL    HW271587   1.879  10.079   3.623 -0.0412 -2.3352  3.1730
53288SOL     OW71588  11.823   8.999   1.938  0.0433 -0.0917  0.1172
53288SOL    HW171589  11.745   8.946   1.957  0.0866 -0.5117 -0.8539
53288SOL    HW271590  11.801   9.086   1.971  0.0647 -0.7443  1.9743
53289SOL     OW71591   2.098   3.640   9.349  0.2285  0.1561  0.4672
53289SOL    HW171592   2.041   3.700   9.301 -0.7025 -1.3872 -0.4308
53289SOL    HW271593   2.127   3.576   9.284  2.3543  0.3965  1.0833
53290SOL     OW71594  12.431   3.550   6.392 -0.3163 -0.3904  1.0991
53290SOL    HW171595  12.500   3.593   6.341  1.0939 -2.0102  1.5330
53290SOL    HW271596  12.359   3.539   6.330  0.3242  0.1237  0.2320
53291SOL     OW71597   7.408   0.733   7.752 -0.8382  0.0533 -0.0160
53291SOL    HW171598   7.363   0.729   7.667 -0.1280 -0.4774 -0.3822
53291SOL    HW271599   7.467   0.807   7.744 -0.9323  0.1399  0.0959
53292SOL     OW71600   3.737  11.834   0.492 -0.7721 -0.0945 -0.7300
53292SOL    HW171601   3.704  11.845   0.402 -0.0294 -1.8667 -1.2623
53292SOL    HW271602   3.659  11.837   0.547 -1.4476 -0.7295 -1.6214
53293SOL     OW71603   7.299   1.721   2.119  0.0612  0.5186 -0.2602
53293SOL    HW171604   7.344   1.786   2.174 -0.4448  0.3871  0.3115
53293SOL    HW271605   7.240   1.773   2.065 -0.4936  0.5256  0.3418
53294SOL     OW71606  13.461   5.566   5.184  0.3863  0.0762  0.4546
53294SOL    HW171607  13.541   5.607   5.154  0.3034  0.2737  0.5043
53294SOL    HW271608  13.449   5.597   5.274  0.3560 -0.1022  0.5138
53295SOL     OW71609   7.140   0.118   1.744 -0.0788 -0.3586 -0.0880
53295SOL    HW171610   7.092   0.166   1.676 -0.6164 -0.2026  0.3900
53295SOL    HW271611   7.109   0.156   1.826 -2.7873 -3.4349  0.5268
53296SOL     OW71612  12.397  10.295   5.300  0.4890 -0.8321  0.0640
53296SOL    HW171613  12.490  10.295   5.323  0.5962  0.0758 -0.3315
53296SOL    HW271614  12.354  10.331   5.378  0.5281 -0.7621  0.0543
53297SOL     OW71615   3.922  12.620   8.270 -0.0526 -0.7705  0.8257
53297SOL    HW171616   3.915  12.526   8.255  0.0774 -0.7360  0.5372
53297SOL    HW271617   4.014  12.634   8.292  0.5199 -0.3880 -1.5754
53298SOL     OW71618  10.043  13.111  12.807 -0.0660 -0.0588 -0.1252
53298SOL    HW171619   9.967  13.159  12.840  1.3818  1.5231  1.0771
53298SOL    HW271620  10.016  13.019  12.809 -1.8538  0.4453  0.5102
53299SOL     OW71621  13.006   0.102   6.862  0.2161 -0.1128  0.0925
53299SOL    HW171622  12.963   0.075   6.943 -1.9531  1.4153 -0.4667
53299SOL    HW271623  12.934   0.115   6.800  1.4773  2.4031 -0.9626
53300SOL     OW71624   2.077   0.497   0.627 -0.5362  0.1203  0.2109
53300SOL    HW171625   2.104   0.413   0.589 -1.1571 -0.8363  1.7858
53300SOL    HW271626   2.107   0.562   0.564  2.5770 -1.0374  0.2976
53301SOL     OW71627   4.753  12.082   5.263 -0.1767 -0.5868 -0.0494
53301SOL    HW171628   4.708  11.997   5.262  0.0947 -0.7364  0.2658
53301SOL    HW271629   4.789  12.089   5.351 -0.4024 -0.0342 -0.0023
53302SOL     OW71630   6.156   8.258   8.565 -0.0274 -0.3197  0.2056
53302SOL    HW171631   6.080   8.288   8.615  1.2756  0.0521  2.0688
53302SOL    HW271632   6.154   8.162   8.575  1.1876 -0.1761  2.6146
53303SOL     OW71633   1.884   6.746   4.029 -0.6907  0.1754  0.0901
53303SOL    HW171634   1.826   6.696   4.087 -0.7646 -0.6372 -0.6702
53303SOL    HW271635   1.941   6.794   4.089 -0.3872 -1.0857  0.8576
53304SOL     OW71636  12.367   3.139  13.497 -0.1002 -0.5523 -0.0691
53304SOL    HW171637  12.390   3.047  13.482 -0.4497 -0.5259 -0.7886
53304SOL    HW271638  12.450   3.186  13.490 -0.2109 -0.5606 -1.8337
53305SOL     OW71639   9.655   1.294   7.905  0.3764  0.9516 -0.5650
53305SOL    HW171640   9.566   1.277   7.937  0.3481  0.0358 -1.1142
53305SOL    HW271641   9.673   1.224   7.843  1.6041  0.9471 -0.2385
53306SOL     OW71642  10.305  12.729   3.051  0.0287  0.5224  0.0054
53306SOL    HW171643  10.279  12.819   3.031  2.3760  1.4363  0.7311
53306SOL    HW271644  10.325  12.730   3.145 -1.7513 -1.2985  0.4895
53307SOL     OW71645   6.467   3.740   5.034  0.1656  0.1008  0.1341
53307SOL    HW171646   6.489   3.668   4.975 -1.3365 -0.0152 -0.3204
53307SOL    HW271647   6.400   3.704   5.092  0.3309  0.7556  0.7548
53308SOL     OW71648   2.801   1.151   4.011  0.4062 -0.2270 -0.2067
53308SOL    HW171649   2.774   1.120   3.924 -1.4744  0.8083 -0.0445
53308SOL    HW271650   2.733   1.119   4.070  1.9627 -1.3927  1.0200
53309SOL     OW71651   0.940  10.877   7.865  0.0651  0.2046 -0.0544
53309SOL    HW171652   0.995  10.889   7.787  0.4033  0.9464  0.2875
53309SOL    HW271653   0.851  10.886   7.834  0.1355 -0.7727 -0.5775
53310SOL     OW71654   2.551   5.306   1.681  0.2150 -0.2142  0.7156
53310SOL    HW171655   2.504   5.228   1.710  0.7092 -0.6636  0.3226
53310SOL    HW271656   2.635   5.302   1.727  1.9489 -2.1280 -2.3381
53311SOL     OW71657  13.601   0.784  12.450 -0.0650  0.4890  0.4210
53311SOL    HW171658  13.633   0.694  12.454 -1.0785  0.0212 -1.2374
53311SOL    HW271659  13.613   0.811  12.359 -0.6290  1.7022  0.6822
53312SOL     OW71660   8.896   2.733   1.197 -0.1045 -0.1679 -0.3604
53312SOL    HW171661   8.806   2.760   1.180 -0.0879 -0.2689 -0.6054
53312SOL    HW271662   8.946   2.815   1.200  0.0645 -0.1983 -1.7917
53313SOL     OW71663   9.359   5.797   1.561 -0.7064  0.0511 -0.1844
53313SOL    HW171664   9.448   5.768   1.540 -0.5314  0.3062  0.1727
53313SOL    HW271665   9.314   5.718   1.590 -0.0153  0.2130  1.5001
53314SOL     OW71666  10.811  10.865   4.967 -0.1586 -0.2213  0.0496
53314SOL    HW171667  10.741  10.846   4.904 -2.7921 -0.4628  2.7860
53314SOL    HW271668  10.788  10.951   5.003  1.8814  0.4077 -0.0378
53315SOL     OW71669   9.404   7.781  10.785  0.2822  0.1779  0.1094
53315SOL    HW171670   9.459   7.709  10.756  2.4375  1.1905  1.4420
53315SOL    HW271671   9.445   7.859  10.749 -1.4613  0.8629 -0.5173
53316SOL     OW71672   4.687   2.109   6.064 -0.1257  0.0784  0.4262
53316SOL    HW171673   4.672   2.061   6.145 -1.2909  0.5673  0.5073
53316SOL    HW271674   4.729   2.191   6.092  2.0092 -0.8882  0.2760
53317SOL     OW71675   4.836   8.245   9.482 -0.6127 -0.0957 -0.1031
53317SOL    HW171676   4.906   8.300   9.446  0.5287 -0.3361  1.6072
53317SOL    HW271677   4.779   8.226   9.407  1.0700  0.2315 -1.5354
53318SOL     OW71678   6.419   2.880   8.834 -0.1828 -0.7015  0.0438
53318SOL    HW171679   6.422   2.856   8.741 -2.3441 -0.8149 -0.0516
53318SOL    HW271680   6.376   2.806   8.876  1.4235 -0.9841  1.3151
53319SOL     OW71681   8.271   7.160   9.257  0.0855 -0.2650 -0.4143
53319SOL    HW171682   8.214   7.236   9.244  1.3975  0.2056 -4.6650
53319SOL    HW271683   8.359   7.193   9.240  0.8168 -2.4419 -1.1245
53320SOL     OW71684  12.402   5.906   1.077  0.0717  0.2345  0.4983
53320SOL    HW171685  12.371   5.816   1.078 -0.0369  0.2401  2.5548
53320SOL    HW271686  12.474   5.907   1.014  0.8689 -1.5863  1.3253
53321SOL     OW71687  10.916   2.756  10.545 -0.0581 -0.1508  0.3472
53321SOL    HW171688  10.899   2.784  10.455 -0.4671 -0.4019  0.3437
53321SOL    HW271689  10.835   2.777  10.593 -0.2571 -1.0047  0.4164
53322SOL     OW71690   9.340   3.183   7.907  0.3711  0.4632  0.1949
53322SOL    HW171691   9.276   3.139   7.962 -0.8610  0.7677 -0.9420
53322SOL    HW271692   9.396   3.231   7.968  1.8961 -2.6944  1.5257
53323SOL     OW71693   8.188   5.914   1.054 -0.6037  0.2132 -0.0245
53323SOL    HW171694   8.218   5.830   1.018 -1.2058 -1.2321  2.6114
53323SOL    HW271695   8.184   5.900   1.148 -1.2112  3.0960  0.4752
53324SOL     OW71696  13.361   0.816   9.585 -0.9576 -0.1363  0.2196
53324SOL    HW171697  13.405   0.889   9.629 -0.7721  0.3123 -0.6886
53324SOL    HW271698  13.372   0.834   9.492 -1.4083 -1.0317 -0.0178
53325SOL     OW71699   7.284  10.604  12.571 -0.5526  0.0144  0.0937
53325SOL    HW171700   7.323  10.530  12.617  0.1160  0.4069  0.1690
53325SOL    HW271701   7.225  10.564  12.507  0.7383 -0.6332 -0.7174
53326SOL     OW71702  12.777   9.737   5.471 -0.4767  0.3589 -0.0657
53326SOL    HW171703  12.785   9.828   5.444 -0.9649  0.2023 -0.7615
53326SOL    HW271704  12.709   9.737   5.539  1.2375  0.8576  1.7481
53327SOL     OW71705   5.340  10.700   0.218  0.3873 -0.3261 -0.1926
53327SOL    HW171706   5.331  10.793   0.241 -1.6670 -0.3218 -0.7619
53327SOL    HW271707   5.302  10.694   0.130  0.1174 -1.7665  0.0067
53328SOL     OW71708  13.661  13.279   1.903  0.6055 -0.0552  0.0489
53328SOL    HW171709  13.632  13.246   1.818 -0.8888  0.2474  0.4018
53328SOL    HW271710  13.595  13.247   1.964  1.2929  0.2988  0.9913
53329SOL     OW71711   9.667   0.424   9.589 -0.1924 -0.1591  0.1864
53329SOL    HW171712   9.698   0.508   9.623 -2.0589  1.1876 -1.2886
53329SOL    HW271713   9.666   0.435   9.494  1.0244 -2.4325 -0.1622
53330SOL     OW71714   2.194   7.179   5.524  0.3559  0.1598  0.2808
53330SOL    HW171715   2.207   7.175   5.430  0.3480 -0.1039  0.2906
53330SOL    HW271716   2.249   7.252   5.553 -0.4130  0.8816 -0.0587
53331SOL     OW71717  10.583   5.510  10.870  0.2583 -0.9365 -0.5812
53331SOL    HW171718  10.497   5.543  10.895 -0.5786 -1.1817 -2.9329
53331SOL    HW271719  10.629   5.585  10.834  1.3659 -0.6376  1.3214
53332SOL     OW71720   8.178  11.730  13.593  0.1736 -1.0532  0.4983
53332SOL    HW171721   8.191  11.824  13.603 -0.3037 -1.0863  1.5356
53332SOL    HW271722   8.228  11.691  13.665  1.4140 -1.6856 -0.6524
53333SOL     OW71723   3.586   9.915   0.565  0.4816  0.4967 -0.1923
53333SOL    HW171724   3.550   9.827   0.574  0.7492  0.2865 -1.1725
53333SOL    HW271725   3.633   9.930   0.647  2.0976 -1.0325 -0.8035
53334SOL     OW71726   6.166   5.992   7.687  0.4347  0.0675 -0.0624
53334SOL    HW171727   6.188   6.071   7.737 -0.5247  0.2969  0.0194
53334SOL    HW271728   6.242   5.935   7.698  0.2320  0.0807  1.7516
53335SOL     OW71729  10.014   7.449   9.703  0.8596  0.9396  0.0484
53335SOL    HW171730  10.102   7.414   9.720  0.5110 -0.5128 -0.9671
53335SOL    HW271731   9.963   7.373   9.677 -0.5424  1.8824 -0.0302
53336SOL     OW71732   1.977   6.674  13.244 -0.5840  0.1847 -0.2042
53336SOL    HW171733   1.971   6.728  13.323  1.8849  0.3512 -0.0355
53336SOL    HW271734   1.978   6.584  13.277 -0.2062  0.2293 -0.0883
53337SOL     OW71735  10.121   2.254   6.909 -0.2288  0.5533  0.5136
53337SOL    HW171736  10.173   2.210   6.842  1.5709  1.3775  1.3103
53337SOL    HW271737  10.030   2.229   6.889  0.1747  1.1298 -2.4853
53338SOL     OW71738   2.864   2.781  12.264  0.0882  0.1253  0.1403
53338SOL    HW171739   2.801   2.832  12.315 -1.0399 -0.0874 -1.0096
53338SOL    HW271740   2.941   2.838  12.256  0.7436 -0.2012  2.9065
53339SOL     OW71741   9.452   1.663   3.764 -0.6665  0.1672 -0.0999
53339SOL    HW171742   9.468   1.569   3.763 -0.0484  0.2458  1.1358
53339SOL    HW271743   9.367   1.672   3.808 -2.8873 -0.0285 -3.8436
53340SOL     OW71744   1.383  11.360  11.843  0.1243 -0.5795 -0.2211
53340SOL    HW171745   1.423  11.352  11.757  2.2895  0.8096  0.5694
53340SOL    HW271746   1.450  11.403  11.897 -1.7278  0.0383  1.7426
53341SOL     OW71747   3.717   2.960   4.614  0.2041  0.2652 -0.5937
53341SOL    HW171748   3.751   3.048   4.597  1.7641 -0.1527  0.1864
53341SOL    HW271749   3.759   2.905   4.548  1.8301 -0.4114  0.9468
53342SOL     OW71750   6.614   1.246   2.564  0.6264  0.3545 -0.4689
53342SOL    HW171751   6.653   1.327   2.530  2.1804 -0.9695 -1.9941
53342SOL    HW271752   6.554   1.276   2.633  0.5601  2.8508 -1.5020
53343SOL     OW71753   2.364   8.775  11.684  0.1192 -0.5168  0.4151
53343SOL    HW171754   2.393   8.735  11.602  1.8781 -1.2219  1.3178
53343SOL    HW271755   2.444   8.779  11.738 -0.8989  0.3221  1.9326
53344SOL     OW71756   5.958   0.790   9.036  0.3772 -0.3118 -0.1486
53344SOL    HW171757   5.922   0.705   9.059 -1.5865  0.7719  1.0049
53344SOL    HW271758   6.041   0.770   8.992  0.4019 -2.7637  0.8771
53345SOL     OW71759  10.487   6.184   3.953  0.2529  0.0474  0.2314
53345SOL    HW171760  10.410   6.211   4.002 -0.7504  1.4828 -1.9859
53345SOL    HW271761  10.558   6.239   3.987 -0.1852  0.3029  0.7370
53346SOL     OW71762  10.577   2.171   6.595  0.3237  0.6204 -0.3328
53346SOL    HW171763  10.645   2.226   6.635 -0.5691 -0.2970  2.6849
53346SOL    HW271764  10.513   2.234   6.563  1.1428  1.4182 -0.4663
53347SOL     OW71765   2.825  10.524   8.520  0.3355  0.7405 -0.4256
53347SOL    HW171766   2.749  10.528   8.461  0.4199 -0.3119 -0.6230
53347SOL    HW271767   2.787  10.535   8.607  0.1120  1.4635 -0.6037
53348SOL     OW71768   3.068  13.387  11.837  0.0399  0.6326 -0.1592
53348SOL    HW171769   2.973  13.398  11.849  0.2358  1.5234  0.7151
53348SOL    HW271770   3.103  13.476  11.837  1.0072  0.2737  0.7804
53349SOL     OW71771   0.746   1.028   1.012 -0.1624  0.3982 -0.4065
53349SOL    HW171772   0.760   1.050   1.104  2.0982 -0.1516 -0.5564
53349SOL    HW271773   0.769   1.107   0.964 -0.9706  0.5635 -0.5350
53350SOL     OW71774  11.050   2.169   0.710  0.3587  0.2462  0.4247
53350SOL    HW171775  11.007   2.106   0.652  1.3886 -0.6600  0.6127
53350SOL    HW271776  11.144   2.150   0.701  0.6194  1.0417  1.2999
53351SOL     OW71777   7.025   0.477   8.566 -0.3330 -0.1857 -0.5463
53351SOL    HW171778   7.043   0.413   8.634 -0.3655  2.9514  2.7269
53351SOL    HW271779   6.934   0.460   8.541 -0.2394 -1.5784 -0.0281
53352SOL     OW71780   2.510  13.109   0.102 -0.4632 -0.1123 -0.6637
53352SOL    HW171781   2.545  13.022   0.122  1.2760  0.7541  0.2603
53352SOL    HW271782   2.469  13.138   0.184 -1.9152 -0.4363 -1.2542
53353SOL     OW71783   2.012   0.832   8.744 -0.4176  0.0519  0.1399
53353SOL    HW171784   2.063   0.864   8.669  1.3194 -1.1656  0.7422
53353SOL    HW271785   1.948   0.772   8.706  0.4590 -0.5687 -0.3883
53354SOL     OW71786   4.555  12.399   1.376 -0.6329 -0.4664 -0.1710
53354SOL    HW171787   4.594  12.313   1.358 -0.2679 -0.5770  1.0848
53354SOL    HW271788   4.538  12.399   1.470  0.7214  1.3819  0.1362
53355SOL     OW71789   2.664   3.541   7.834  0.0604  0.6045  0.0669
53355SOL    HW171790   2.604   3.466   7.838 -0.5674  1.1387  1.5614
53355SOL    HW271791   2.630   3.596   7.764  0.6535 -0.5788 -1.1982
53356SOL     OW71792  11.165  12.817  12.438  0.2925 -0.2622  0.4057
53356SOL    HW171793  11.218  12.772  12.504  0.0253 -0.0693  0.7560
53356SOL    HW271794  11.105  12.872  12.489  0.3854  0.2287 -0.0069
53357SOL     OW71795   5.898   2.885   0.090  0.4730 -0.7178  0.2491
53357SOL    HW171796   5.821   2.832   0.105  0.6688 -0.7420  1.1931
53357SOL    HW271797   5.972   2.829   0.116  0.7373 -0.3211  0.3680
53358SOL     OW71798   8.491   9.195   1.082  0.2236  0.3957 -0.3225
53358SOL    HW171799   8.518   9.117   1.033 -1.9997 -0.3700 -0.3972
53358SOL    HW271800   8.560   9.260   1.062  1.3747 -1.0721 -1.3895
53359SOL     OW71801   1.134   9.978  10.014 -0.3999  0.5394  0.3709
53359SOL    HW171802   1.150  10.071  10.030 -1.3156  0.7691 -0.0394
53359SOL    HW271803   1.073   9.952  10.083 -0.4048  0.3211  0.2843
53360SOL     OW71804   6.714   0.944   7.594  0.5548  0.5922 -0.7114
53360SOL    HW171805   6.623   0.972   7.609  0.1202 -1.5056  1.0604
53360SOL    HW271806   6.728   0.874   7.657  2.9995 -0.0771 -1.8896
53361SOL     OW71807   2.679   4.848   9.379  0.0019 -0.2029 -0.2829
53361SOL    HW171808   2.741   4.803   9.435 -1.2112 -0.5860  0.7954
53361SOL    HW271809   2.725   4.928   9.351  1.6013 -1.3235 -0.9760
53362SOL     OW71810   9.913   9.320   5.877 -0.4017  0.1579  0.3874
53362SOL    HW171811   9.999   9.287   5.853 -0.5829 -0.8703  1.1009
53362SOL    HW271812   9.904   9.301   5.970 -0.9906  1.1842  0.5550
53363SOL     OW71813   6.379   5.691   8.625  0.1958  0.4104 -0.1773
53363SOL    HW171814   6.474   5.678   8.631 -0.0474 -1.5586  0.2070
53363SOL    HW271815   6.368   5.762   8.562  1.9536  1.6288  0.8265
53364SOL     OW71816  12.540  11.757   6.655  0.3811 -0.3026  0.2599
53364SOL    HW171817  12.481  11.771   6.730 -1.1587 -2.9803 -0.3080
53364SOL    HW271818  12.493  11.696   6.599  2.8211 -0.8327 -1.3696
53365SOL     OW71819  10.076  10.691  11.471 -0.3919  0.1426  0.4220
53365SOL    HW171820  10.071  10.782  11.500 -0.7230 -0.2321  1.6064
53365SOL    HW271821   9.987  10.657  11.483 -1.0195  0.4050 -2.7212
53366SOL     OW71822  13.385   7.564   9.164 -0.1275 -0.1460  0.3187
53366SOL    HW171823  13.443   7.586   9.237 -0.8957  0.1840  0.8490
53366SOL    HW271824  13.372   7.470   9.171  0.4324 -0.2398  0.1259
53367SOL     OW71825   2.878   9.817  10.476  0.0763 -0.4961 -0.2531
53367SOL    HW171826   2.844   9.732  10.446 -1.5258 -1.0767  2.8102
53367SOL    HW271827   2.812   9.880  10.449  0.9065 -0.2791 -1.8796
53368SOL     OW71828   8.298  13.717   1.374 -0.2529  0.4370 -0.3366
53368SOL    HW171829   8.220  13.738   1.323 -0.1762 -0.4418 -0.8325
53368SOL    HW271830   8.294  13.777   1.449 -0.0665  2.1212 -1.6371
53369SOL     OW71831   3.101  10.728   1.535  0.3051  0.3257 -0.0459
53369SOL    HW171832   3.151  10.663   1.585  0.6342 -0.0939 -0.9101
53369SOL    HW271833   3.167  10.773   1.482  0.1667  1.7549  0.9355
53370SOL     OW71834   7.100   3.087   6.167 -0.0196  0.1537 -0.5144
53370SOL    HW171835   7.174   3.114   6.221  0.6325  0.6696 -1.6552
53370SOL    HW271836   7.026   3.084   6.229  0.9029 -0.2498  0.6029
53371SOL     OW71837  12.177   4.604   9.315 -0.6903 -0.8662  0.6697
53371SOL    HW171838  12.202   4.638   9.229  0.6792 -0.1433  1.3250
53371SOL    HW271839  12.147   4.515   9.298  1.5203 -1.4767 -0.3092
53372SOL     OW71840   4.735   3.289   6.303 -0.0947 -0.1289 -0.4646
53372SOL    HW171841   4.743   3.194   6.302  1.4784 -0.0389  0.2397
53372SOL    HW271842   4.717   3.311   6.395  2.8418  0.4003  0.0832
53373SOL     OW71843   6.804   4.649   9.164 -0.2110  0.0559 -0.2019
53373SOL    HW171844   6.831   4.642   9.072  2.5638 -1.1663  0.5917
53373SOL    HW271845   6.844   4.730   9.194 -0.6078  0.1505  0.0715
53374SOL     OW71846  12.407   1.035  10.995  0.6303 -0.6758 -0.1660
53374SOL    HW171847  12.405   1.018  11.089 -2.7387  0.1829  0.0318
53374SOL    HW271848  12.334   1.094  10.979  2.6529  1.3609 -2.9973
53375SOL     OW71849   3.517   1.628  11.354 -0.1511  0.9580  0.0393
53375SOL    HW171850   3.554   1.716  11.347  1.4325  0.4704  1.4239
53375SOL    HW271851   3.579   1.580  11.410 -1.9170 -0.5054  0.8843
53376SOL     OW71852  13.574  10.540   6.450  0.1269 -0.5156  1.0029
53376SOL    HW171853  13.604  10.602   6.516 -1.0394  0.0120  1.0602
53376SOL    HW271854  13.541  10.594   6.378 -1.6152 -1.0036  1.3759
53377SOL     OW71855   9.349  10.367   7.860  0.6960 -0.2011 -0.1539
53377SOL    HW171856   9.426  10.376   7.917  1.0747 -0.8384 -0.5543
53377SOL    HW271857   9.358  10.280   7.821 -1.4080 -1.2511  1.5034
53378SOL     OW71858   1.728   6.969  12.924  0.0169  0.5887 -0.3989
53378SOL    HW171859   1.806   7.018  12.897  0.0923  0.2390 -0.8257
53378SOL    HW271860   1.738   6.959  13.019  1.7372 -1.5617 -0.7509
53379SOL     OW71861  12.257   4.071  11.992  0.0952  0.1318  0.7385
53379SOL    HW171862  12.334   4.027  11.956  0.7041  1.0367  0.8922
53379SOL    HW271863  12.237   4.024  12.072  0.9707  0.3502  1.1004
53380SOL     OW71864  12.247  12.707   5.557  0.0674 -0.2375 -0.0092
53380SOL    HW171865  12.229  12.801   5.564 -2.1598 -0.4077 -2.0821
53380SOL    HW271866  12.342  12.699   5.569  0.2901  2.2326  0.3004
53381SOL     OW71867  11.358   8.559   9.003 -0.0839  0.6171  0.2773
53381SOL    HW171868  11.275   8.515   9.020 -0.2408  1.3330  1.5095
53381SOL    HW271869  11.341   8.651   9.024  0.9320  0.8258  0.2464
53382SOL     OW71870   3.145   0.722  10.462 -0.1178 -0.6265 -0.3430
53382SOL    HW171871   3.110   0.807  10.488 -1.3625 -1.4107  0.6138
53382SOL    HW271872   3.111   0.708  10.374 -2.1523 -1.3185  0.5215
53383SOL     OW71873  13.360   0.234   8.245  0.6127 -0.3678  0.3285
53383SOL    HW171874  13.380   0.148   8.282  1.9171 -0.7757 -1.1792
53383SOL    HW271875  13.407   0.235   8.161 -0.9345  1.0805 -0.5823
53384SOL     OW71876  11.593  11.623   9.111 -0.4353 -0.0125  0.2070
53384SOL    HW171877  11.593  11.675   9.192 -1.4164 -0.9446  0.8273
53384SOL    HW271878  11.615  11.535   9.140  1.0154 -0.0139 -0.8128
53385SOL     OW71879   2.522   4.881   6.600  0.0948 -0.0968  0.4238
53385SOL    HW171880   2.508   4.787   6.613 -2.5144  0.3533  1.2985
53385SOL    HW271881   2.457   4.906   6.535  1.2073  1.0362 -0.3005
53386SOL     OW71882   2.591  11.391  12.517  0.3463  0.2689 -0.4046
53386SOL    HW171883   2.616  11.299  12.515  0.7446  0.3783 -1.9723
53386SOL    HW271884   2.542  11.401  12.599 -1.2867 -1.7473 -1.0563
53387SOL     OW71885  13.416   9.882   8.386 -0.1950  0.2471 -0.1063
53387SOL    HW171886  13.356   9.829   8.334 -0.4342 -1.1893  1.5315
53387SOL    HW271887  13.372   9.892   8.471  0.1722  2.5186 -0.1140
53388SOL     OW71888   2.376   9.519   7.575 -0.2822 -0.5382 -0.7159
53388SOL    HW171889   2.327   9.452   7.527  0.2280 -1.2192 -0.3203
53388SOL    HW271890   2.314   9.591   7.587 -0.6150 -0.6308 -1.8040
53389SOL     OW71891   4.286   3.106   3.161 -0.1774 -0.1714  0.2920
53389SOL    HW171892   4.291   3.121   3.067 -0.0954 -1.9460 -0.0252
53389SOL    HW271893   4.341   3.174   3.200  0.2591  0.2215 -0.9837
53390SOL     OW71894   5.316  10.615   1.065 -0.5880 -1.0140 -0.2160
53390SOL    HW171895   5.249  10.683   1.061 -1.6223 -1.8638  1.5719
53390SOL    HW271896   5.399  10.662   1.059 -1.3124  0.1724 -1.2531
53391SOL     OW71897   0.506  13.425   4.763  0.2756  0.5789  0.0077
53391SOL    HW171898   0.591  13.406   4.723 -0.0707 -0.8325 -0.1129
53391SOL    HW271899   0.507  13.520   4.778  2.1481  0.4893  0.6662
53392SOL     OW71900   0.540  10.488   5.328  0.1637 -0.1499 -0.3481
53392SOL    HW171901   0.516  10.579   5.313  2.1555  0.5947  0.7194
53392SOL    HW271902   0.631  10.491   5.357  0.9263 -2.6406 -2.1372
53393SOL     OW71903   5.387   8.298  10.888 -0.1923  0.0352 -0.2454
53393SOL    HW171904   5.472   8.315  10.929 -0.9516  1.5380  0.8251
53393SOL    HW271905   5.401   8.319  10.795  0.5834  0.3268 -0.0707
53394SOL     OW71906   9.857   5.202   5.551 -0.2753  0.1410 -0.4801
53394SOL    HW171907   9.769   5.210   5.586 -0.5643 -0.2378 -1.1120
53394SOL    HW271908   9.846   5.207   5.456  0.3307 -0.3455 -0.5814
53395SOL     OW71909  11.449   3.134  10.032 -0.0330  0.1624 -0.5234
53395SOL    HW171910  11.532   3.088  10.044 -0.5310 -0.6668 -0.1748
53395SOL    HW271911  11.466   3.223  10.064  0.1633 -0.5592  1.5224
53396SOL     OW71912   3.886   3.851   4.383  0.2713 -0.4579  0.2042
53396SOL    HW171913   3.979   3.842   4.364  0.4901  1.4818  0.2282
53396SOL    HW271914   3.842   3.808   4.309  1.1662 -0.8421 -0.1132
53397SOL     OW71915   0.837  13.503   6.850  0.0672  0.3842 -0.2174
53397SOL    HW171916   0.791  13.420   6.833 -0.2661  0.3436  0.8538
53397SOL    HW271917   0.887  13.487   6.929  0.3322  1.0838 -0.2373
53398SOL     OW71918  11.362   3.845   1.794  0.2539 -0.0637 -0.1708
53398SOL    HW171919  11.424   3.772   1.797  0.8484  0.4632  2.1971
53398SOL    HW271920  11.279   3.806   1.767  1.0364 -1.2016 -1.0110
53399SOL     OW71921   8.837  10.367  10.938  0.4604 -0.5968  0.4557
53399SOL    HW171922   8.893  10.387  11.013  0.6317 -0.1978  0.2224
53399SOL    HW271923   8.749  10.360  10.974  0.1730  1.8570  0.3585
53400SOL     OW71924  13.678   1.399  11.056 -0.2824 -0.1746 -0.2368
53400SOL    HW171925  13.608   1.463  11.045 -2.0407 -0.5371  5.6869
53400SOL    HW271926  13.737   1.438  11.121  0.6729 -2.9616  0.7313
53401SOL     OW71927   8.882   0.667  10.261 -0.9169 -0.2694 -0.2895
53401SOL    HW171928   8.812   0.604  10.250 -2.2717  1.1207  0.0266
53401SOL    HW271929   8.848   0.748  10.225  0.7056  0.3507 -0.5408
53402SOL     OW71930   8.751   5.197   0.955  0.5025  0.1574 -0.0897
53402SOL    HW171931   8.688   5.264   0.982  0.2385 -1.1800  2.9944
53402SOL    HW271932   8.835   5.226   0.991  0.9815  0.1879 -1.1780
53403SOL     OW71933  10.545   3.626   2.732  0.2883  1.0887 -0.2988
53403SOL    HW171934  10.504   3.545   2.764  0.3680  1.0472 -0.2988
53403SOL    HW271935  10.520   3.692   2.796 -0.1002  1.1470 -0.5101
53404SOL     OW71936  10.908   9.451   7.525 -0.5133  0.6319  0.0432
53404SOL    HW171937  10.993   9.438   7.482  0.0312  3.5104  0.0347
53404SOL    HW271938  10.844   9.421   7.462  0.4476  0.3670 -0.8324
53405SOL     OW71939   9.003   9.353  12.156  0.6638 -0.1496  0.6204
53405SOL    HW171940   9.047   9.415  12.214 -0.6536  0.6436  0.8091
53405SOL    HW271941   9.060   9.276  12.155  1.5035  0.4361  1.6823
53406SOL     OW71942  12.356  11.588   2.885 -0.2893  0.1585 -0.0095
53406SOL    HW171943  12.312  11.664   2.846  0.6830  0.8840  0.2744
53406SOL    HW271944  12.394  11.542   2.811 -2.1598 -0.9447 -0.3633
53407SOL     OW71945  11.961   9.196  12.817 -0.0216  0.1950  0.5630
53407SOL    HW171946  11.882   9.143  12.831  0.8859 -0.9083  1.7706
53407SOL    HW271947  11.936   9.258  12.749 -1.8631 -0.2623  0.7598
53408SOL     OW71948   9.159   8.611   4.474 -0.3807 -0.2938 -0.8304
53408SOL    HW171949   9.178   8.669   4.548  0.3632  0.4580 -1.5975
53408SOL    HW271950   9.151   8.524   4.514 -1.0086  0.2406  0.2660
53409SOL     OW71951   7.631   1.548   3.035 -0.1945 -0.3596  0.1434
53409SOL    HW171952   7.668   1.629   3.071  0.0624  1.0210 -2.9652
53409SOL    HW271953   7.562   1.524   3.097  1.3047  0.8197  2.4328
53410SOL     OW71954   0.408  12.153   9.195 -0.0653 -0.5779 -0.3202
53410SOL    HW171955   0.332  12.164   9.138  0.3695  0.9997 -0.6583
53410SOL    HW271956   0.425  12.241   9.230  0.8046 -1.1555  0.7945
53411SOL     OW71957   0.294   7.823  11.273  0.0397  0.8884 -0.0630
53411SOL    HW171958   0.253   7.863  11.196 -0.4555 -0.6941 -0.6576
53411SOL    HW271959   0.364   7.769  11.238  0.7558  1.2763  0.7317
53412SOL     OW71960  12.760   6.170   5.132 -0.6149  0.1405 -0.0483
53412SOL    HW171961  12.744   6.179   5.226 -2.3071 -2.9270  0.0672
53412SOL    HW271962  12.695   6.226   5.090 -0.6563  0.5706  0.5912
53413SOL     OW71963   7.762   6.032   3.623 -0.3589 -0.2001 -0.1753
53413SOL    HW171964   7.851   5.996   3.622 -0.0241  0.5935  0.0897
53413SOL    HW271965   7.724   6.002   3.540 -0.6033 -2.3276  0.6445
53414SOL     OW71966   8.447  13.518   2.525  0.0356 -0.1276  0.4589
53414SOL    HW171967   8.524  13.575   2.516 -0.1750  0.4169  1.8758
53414SOL    HW271968   8.435  13.509   2.620 -1.8448  0.0462  0.2692
53415SOL     OW71969   2.893   9.463   5.655 -0.1325  0.2457 -0.0881
53415SOL    HW171970   2.969   9.436   5.707 -0.7524 -1.7103 -0.1309
53415SOL    HW271971   2.882   9.556   5.676  2.0055  0.4914  0.2235
53416SOL     OW71972  12.630  11.164   1.622 -0.4133 -0.2494  0.0564
53416SOL    HW171973  12.613  11.089   1.679  1.2140 -0.9332 -0.2926
53416SOL    HW271974  12.555  11.166   1.563 -0.9466 -1.0304  0.6854
53417SOL     OW71975   9.451   7.550   1.349 -0.0953  0.7026 -0.5980
53417SOL    HW171976   9.422   7.543   1.258 -0.2031  1.4309 -0.6240
53417SOL    HW271977   9.539   7.586   1.343 -0.0182  0.5476 -0.4171
53418SOL     OW71978   8.181   9.147   0.608  0.0329 -0.5842 -0.3511
53418SOL    HW171979   8.124   9.152   0.685 -1.0397 -4.5395 -0.6862
53418SOL    HW271980   8.122   9.156   0.533  0.5582 -0.2683 -0.7388
53419SOL     OW71981   1.112   2.002  11.562 -0.6260 -0.4124 -0.0064
53419SOL    HW171982   1.157   2.074  11.606 -0.2052 -1.1524  0.8009
53419SOL    HW271983   1.181   1.958  11.513 -0.2565 -1.9771  1.7923
53420SOL     OW71984  12.725   8.216   6.793  0.1311 -0.1734 -0.1255
53420SOL    HW171985  12.700   8.125   6.775  2.3385 -1.2874  1.8641
53420SOL    HW271986  12.642   8.263   6.798 -1.1661 -2.3454  0.1283
53421SOL     OW71987   1.192   6.053  10.063 -0.5821  0.1776  0.6886
53421SOL    HW171988   1.211   5.969  10.105 -0.1851  0.5669  1.2961
53421SOL    HW271989   1.277   6.087  10.036 -0.6216  0.8753  1.3942
53422SOL     OW71990   1.660   9.208  10.177  0.3635 -0.3630 -0.4874
53422SOL    HW171991   1.684   9.128  10.223 -0.1773 -0.7577 -0.8796
53422SOL    HW271992   1.725   9.216  10.107 -0.1059 -0.9446 -0.9965
53423SOL     OW71993  10.173   4.400   4.166  0.0187 -0.1320  0.3194
53423SOL    HW171994  10.156   4.452   4.245 -0.7027 -0.7835  0.5979
53423SOL    HW271995  10.150   4.459   4.094 -0.2844  0.1239  0.6184
53424SOL     OW71996   3.374   8.761   9.545  0.0408 -0.1313 -0.4013
53424SOL    HW171997   3.449   8.796   9.497  2.4737 -2.2917  1.5353
53424SOL    HW271998   3.380   8.800   9.632 -0.8463 -0.6303 -0.1015
53425SOL     OW71999   3.527   4.662  13.615  0.0991 -0.7166  0.1104
53425SOL    HW172000   3.451   4.679  13.670  0.2607 -0.8214  0.3704
53425SOL    HW272001   3.532   4.738  13.558  0.0303 -0.5218  0.3592
53426SOL     OW72002   9.958   1.592  10.124 -1.4472  0.0891  0.0167
53426SOL    HW172003   9.955   1.675  10.171 -0.2331  1.7544 -2.6072
53426SOL    HW272004   9.891   1.600  10.056 -0.4962 -0.5067 -1.0411
53427SOL     OW72005   6.616   6.120  12.328  0.1221 -0.8124  0.8515
53427SOL    HW172006   6.668   6.167  12.263  0.0490 -1.2629  0.4652
53427SOL    HW272007   6.584   6.189  12.387 -0.0465 -0.3669  0.2506
53428SOL     OW72008   8.640   2.167  11.082  0.1899 -0.1556  0.4326
53428SOL    HW172009   8.715   2.222  11.061 -0.3952  0.1852 -0.8351
53428SOL    HW272010   8.565   2.226  11.078 -0.4681 -1.0286 -1.0663
53429SOL     OW72011   9.818   7.988   8.220  0.0162  0.4303  0.0750
53429SOL    HW172012   9.740   7.978   8.275 -0.9036 -0.6327 -1.3903
53429SOL    HW272013   9.785   7.986   8.131  1.6649  0.6566 -0.5632
53430SOL     OW72014   9.164   3.012   8.030  0.3989 -0.2699 -0.3951
53430SOL    HW172015   9.133   2.973   8.111  0.4822 -0.9913 -0.7039
53430SOL    HW272016   9.228   2.950   7.995 -0.6831 -0.6965 -1.7344
53431SOL     OW72017   2.086   2.599   7.372  0.6008 -0.8700 -0.0347
53431SOL    HW172018   2.013   2.583   7.432  1.1840 -2.0300  0.3863
53431SOL    HW272019   2.136   2.518   7.373  1.0090 -0.6676 -1.5714
53432SOL     OW72020   9.269   5.206   8.028 -0.0725 -0.2315 -0.1758
53432SOL    HW172021   9.195   5.168   7.981  0.2121 -0.1117 -0.7323
53432SOL    HW272022   9.286   5.289   7.984  1.8925 -1.3122 -1.6748
53433SOL     OW72023   2.799   6.539   8.136 -0.1465 -0.1746  0.3047
53433SOL    HW172024   2.781   6.547   8.043 -0.0583 -0.9977  0.2101
53433SOL    HW272025   2.793   6.445   8.154  1.0347 -0.1554  0.8810
53434SOL     OW72026   6.021   5.158   9.371  0.7715 -0.0115  0.0367
53434SOL    HW172027   5.957   5.229   9.375 -0.4306 -1.1154  2.2224
53434SOL    HW272028   6.096   5.191   9.420 -0.1254 -0.4948  1.8141
53435SOL     OW72029   7.932  13.719  11.859 -0.5123  0.4260 -0.0892
53435SOL    HW172030   7.914  13.722  11.765  1.0569  0.8117 -0.4207
53435SOL    HW272031   7.999  13.786  11.872 -1.2847  0.9380  1.4627
53436SOL     OW72032   3.591   1.259   0.628  0.4080  0.3448  0.0917
53436SOL    HW172033   3.550   1.174   0.611  0.6965 -0.1701  1.7507
53436SOL    HW272034   3.524   1.323   0.606  0.4330 -0.2455 -1.8825
53437SOL     OW72035   4.866   4.877   9.839  0.2068 -0.2971 -0.0275
53437SOL    HW172036   4.852   4.800   9.783 -0.8571 -0.9865  1.1470
53437SOL    HW272037   4.796   4.937   9.815 -0.6260 -0.8498  0.9693
53438SOL     OW72038   1.155   8.094   6.272  0.2638  0.1405 -0.1831
53438SOL    HW172039   1.090   8.111   6.204  1.1730  0.9173 -0.8862
53438SOL    HW272040   1.157   7.999   6.280 -0.5338  0.0827 -0.5558
53439SOL     OW72041   4.134   3.741   1.137  0.4085  0.4645  0.3176
53439SOL    HW172042   4.222   3.704   1.125 -0.4950 -1.4680 -0.7323
53439SOL    HW272043   4.077   3.665   1.147 -1.7621  1.3784 -3.2457
53440SOL     OW72044   1.811  10.132   7.824 -0.1985 -0.1818  0.0812
53440SOL    HW172045   1.887  10.078   7.844  0.1491 -0.1129 -1.0177
53440SOL    HW272046   1.844  10.222   7.821 -0.2813 -0.1656 -0.5444
53441SOL     OW72047   1.706  12.168   4.016 -0.0948 -0.4211 -0.1159
53441SOL    HW172048   1.635  12.104   4.004 -1.1138  0.5571  0.4619
53441SOL    HW272049   1.752  12.138   4.094  0.4140 -1.2970 -0.7288
53442SOL     OW72050   6.675  11.154   8.791  0.0650  0.2496 -0.2585
53442SOL    HW172051   6.667  11.210   8.714 -0.4498  1.6257  0.7511
53442SOL    HW272052   6.592  11.106   8.794 -1.3646  2.6332  1.2192
53443SOL     OW72053   7.450   1.122   1.576 -0.7893  0.4630 -0.0771
53443SOL    HW172054   7.475   1.031   1.592 -0.5909 -0.0745 -2.9816
53443SOL    HW272055   7.518   1.173   1.621  1.1667 -0.9001 -1.3072
53444SOL     OW72056  10.343   0.686  10.795 -0.1652  0.6420  0.0703
53444SOL    HW172057  10.389   0.670  10.877 -0.3981 -1.5925 -0.1830
53444SOL    HW272058  10.412   0.705  10.732  0.0361  2.0243  0.6772
53445SOL     OW72059  10.083   7.563   1.504  0.0272  0.0841  0.0812
53445SOL    HW172060  10.010   7.510   1.471  0.1742 -1.3177  1.8663
53445SOL    HW272061  10.042   7.624   1.566  0.3645 -0.8183  1.2147
53446SOL     OW72062   4.780   8.644   9.252  0.0247 -0.1440  0.1142
53446SOL    HW172063   4.767   8.648   9.347  0.4040  0.8371  0.1356
53446SOL    HW272064   4.721   8.711   9.217 -0.2560 -0.6318 -0.3603
53447SOL     OW72065  10.763  10.930  12.058  0.3726 -0.5305  0.6970
53447SOL    HW172066  10.832  10.977  12.105  1.6334  0.9590 -2.3505
53447SOL    HW272067  10.699  10.998  12.035 -1.0262 -1.4990  1.5758
53448SOL     OW72068  11.834  13.160   9.319 -0.6348  0.2494 -0.1780
53448SOL    HW172069  11.823  13.196   9.407 -2.6347  0.0896 -0.3083
53448SOL    HW272070  11.907  13.099   9.327 -0.8336  0.1576  1.4104
53449SOL     OW72071  10.866   1.420   6.713  0.4752 -0.0427  0.0286
53449SOL    HW172072  10.947   1.371   6.700  1.7275  1.2011  2.4273
53449SOL    HW272073  10.847   1.460   6.628  0.5192 -2.9190 -1.4573
53450SOL     OW72074   4.950  10.304   6.028  0.0294 -0.5669 -0.2892
53450SOL    HW172075   5.035  10.291   6.071  0.6839 -0.0145 -1.3887
53450SOL    HW272076   4.900  10.224   6.050  0.9093 -1.0126  0.1551
53451SOL     OW72077  11.869  10.009  13.395 -0.5630 -0.2309  0.7547
53451SOL    HW172078  11.954  10.007  13.351 -1.6011  0.7999 -1.4160
53451SOL    HW272079  11.877   9.943  13.465  1.5037 -1.2044 -0.3124
53452SOL     OW72080  11.508   1.880   9.006 -0.7809  0.0918 -0.1411
53452SOL    HW172081  11.522   1.807   8.945  1.4308  0.7254 -0.5009
53452SOL    HW272082  11.513   1.839   9.092 -0.9644 -0.3951 -0.3533
53453SOL     OW72083   2.252   4.764   4.641 -0.1301  0.5287  0.3504
53453SOL    HW172084   2.158   4.764   4.623 -0.2417  2.3155  0.6582
53453SOL    HW272085   2.260   4.726   4.729 -0.2442 -2.1161 -0.6971
53454SOL     OW72086   5.816   1.471   7.864  0.3458  0.1587  0.0064
53454SOL    HW172087   5.729   1.511   7.868  0.3143  0.5503 -2.6934
53454SOL    HW272088   5.876   1.546   7.859  0.6235 -0.1041 -0.6852
53455SOL     OW72089   4.115   0.023   1.281 -0.1482  0.3443 -0.1981
53455SOL    HW172090   4.044   0.087   1.278  0.3522  0.9378  0.4072
53455SOL    HW272091   4.165   0.040   1.201  0.2070  0.9736  0.1550
53456SOL     OW72092   1.414   2.686  13.060  0.5064 -0.0229 -0.3046
53456SOL    HW172093   1.497   2.734  13.066  1.4085 -1.3536 -1.5338
53456SOL    HW272094   1.349   2.745  13.099  1.3947  2.5340 -2.4236
53457SOL     OW72095   3.274  11.098   2.037  0.0328  0.2669  0.0012
53457SOL    HW172096   3.328  11.063   1.966  0.2194  1.0868 -0.2713
53457SOL    HW272097   3.199  11.039   2.041  0.6932 -0.5891  0.0429
53458SOL     OW72098   3.738  12.244   4.110 -0.4190  0.2104 -0.1154
53458SOL    HW172099   3.720  12.243   4.016  2.5383 -0.2483 -0.7657
53458SOL    HW272100   3.771  12.156   4.129 -0.2074  0.5545  1.1899
53459SOL     OW72101  13.600   6.439   5.113 -0.3439 -0.0745  0.1685
53459SOL    HW172102  13.551   6.486   5.180 -0.5336  0.7977 -0.5683
53459SOL    HW272103  13.660   6.383   5.162 -2.7313 -1.9515  1.1358
53460SOL     OW72104   1.139  12.835   8.685 -0.6466 -0.0558 -0.2425
53460SOL    HW172105   1.102  12.811   8.770  0.5517 -1.0442  0.0269
53460SOL    HW272106   1.084  12.789   8.622  0.0601 -1.4780  0.1479
53461SOL     OW72107  13.487   2.536  10.448 -0.0122 -0.2042  0.1061
53461SOL    HW172108  13.557   2.582  10.402  0.1390 -0.3134  0.2247
53461SOL    HW272109  13.413   2.597  10.449  0.0740 -0.0995 -0.0420
53462SOL     OW72110  12.912   7.620  12.083  0.4265 -0.1489  0.3853
53462SOL    HW172111  12.875   7.612  11.995  0.3386 -0.0858  0.4153
53462SOL    HW272112  12.937   7.531  12.108  0.4380 -0.1684  0.3018
53463SOL     OW72113   2.031   8.311   6.092 -0.2718 -0.1944  0.8860
53463SOL    HW172114   2.095   8.243   6.112  0.0626 -0.6653 -1.5068
53463SOL    HW272115   2.081   8.392   6.092  0.5436 -0.6272 -1.5783
53464SOL     OW72116  11.897   6.325   9.257 -0.4414  0.0083 -0.0983
53464SOL    HW172117  11.935   6.401   9.301 -0.2265 -0.0376 -0.2018
53464SOL    HW272118  11.968   6.260   9.256 -1.4991 -1.3450  2.7102
53465SOL     OW72119   0.408   7.645   2.995 -0.1424 -0.1626  0.2946
53465SOL    HW172120   0.443   7.569   3.041  2.3132 -1.1726 -2.9333
53465SOL    HW272121   0.316   7.622   2.978 -0.1997 -1.1387  1.7362
53466SOL     OW72122  11.918   1.217   8.863 -0.4612 -0.5508 -0.3596
53466SOL    HW172123  11.934   1.310   8.875 -1.5572 -0.2357 -1.1899
53466SOL    HW272124  11.917   1.204   8.768  0.8666 -1.6426 -0.2580
53467SOL     OW72125   0.705   2.874  12.034 -0.1801  0.1624 -0.0104
53467SOL    HW172126   0.669   2.891  11.947 -0.6485 -0.3142  0.0865
53467SOL    HW272127   0.649   2.924  12.094  0.2738  0.6626 -0.0008
53468SOL     OW72128   1.105   3.891  13.393  0.2932 -0.5888  0.6386
53468SOL    HW172129   1.096   3.814  13.448 -0.4666 -0.1392  1.1566
53468SOL    HW272130   1.015   3.913  13.367  0.5003  0.1013  0.4788
53469SOL     OW72131  13.680   3.473   0.301 -0.1033  0.4188 -0.0170
53469SOL    HW172132  13.719   3.385   0.295  1.5197  1.1664 -1.3809
53469SOL    HW272133  13.589   3.460   0.275  0.1335 -0.8591 -0.2897
53470SOL     OW72134   0.840   5.465  12.088 -0.2457 -0.4628 -0.5252
53470SOL    HW172135   0.897   5.400  12.047  0.4098  0.0660 -0.4831
53470SOL    HW272136   0.845   5.446  12.182  0.5584  0.1053 -0.4396
53471SOL     OW72137   0.563  11.447   5.894 -0.4873 -0.3370  0.1704
53471SOL    HW172138   0.476  11.407   5.889 -1.4315  1.6455 -0.2893
53471SOL    HW272139   0.574  11.490   5.809  2.0611 -2.5996 -0.7911
53472SOL     OW72140  11.549   6.931  10.489  0.4387 -0.2309 -0.0128
53472SOL    HW172141  11.460   6.898  10.500  0.4794 -0.3415 -0.0107
53472SOL    HW272142  11.539   7.006  10.430  0.1866  0.5520  1.0057
53473SOL     OW72143  10.698  10.954   9.938  0.4884  0.1114 -0.5709
53473SOL    HW172144  10.655  10.927   9.857 -0.5479 -1.2388  0.3930
53473SOL    HW272145  10.784  10.911   9.936  0.2063 -0.4508 -0.6504
53474SOL     OW72146   7.929   7.603   8.759  0.2136  0.0666  0.7653
53474SOL    HW172147   7.835   7.607   8.781 -0.2918  0.1690 -1.1967
53474SOL    HW272148   7.948   7.689   8.723  1.1920  0.1723  1.5035
53475SOL     OW72149  12.481   1.317   7.224 -0.0379 -0.3392  0.3417
53475SOL    HW172150  12.526   1.301   7.307  1.9883  1.8174 -0.2119
53475SOL    HW272151  12.413   1.381   7.246  2.6920  3.0068  0.0120
53476SOL     OW72152   0.987   4.866   1.822 -0.1004  0.0520  0.1312
53476SOL    HW172153   0.899   4.869   1.784 -0.1971 -0.7692  0.2559
53476SOL    HW272154   0.973   4.841   1.913  0.2956 -0.7225 -0.0110
53477SOL     OW72155   2.712   6.588   7.349 -0.2642  0.2928 -0.0024
53477SOL    HW172156   2.673   6.672   7.373 -0.1089  0.2780  0.3112
53477SOL    HW272157   2.639   6.534   7.320 -0.6501 -0.1131  1.6397
53478SOL     OW72158   1.035   2.064   2.938 -0.1577  0.1929 -0.0457
53478SOL    HW172159   1.052   2.059   2.844  2.0568 -1.0536  0.3462
53478SOL    HW272160   0.995   1.979   2.959  0.1870  0.1004  0.2551
53479SOL     OW72161   9.025   4.744   4.104 -0.0282 -0.1369 -0.0324
53479SOL    HW172162   9.013   4.702   4.189 -0.8121 -1.5810 -0.8037
53479SOL    HW272163   8.945   4.722   4.055  0.1880  1.0811 -0.9698
53480SOL     OW72164   0.096   5.504   8.663 -0.2257  0.0469 -0.2393
53480SOL    HW172165   0.133   5.590   8.681 -1.0305  0.1595  1.0004
53480SOL    HW272166   0.171   5.451   8.636  0.7696  0.4367  1.5640
53481SOL     OW72167   9.499   4.282   6.724 -0.2692  0.8585  0.1970
53481SOL    HW172168   9.416   4.265   6.768 -0.1328 -0.4231 -0.0257
53481SOL    HW272169   9.475   4.337   6.649 -1.3262 -1.4592 -1.2818
53482SOL     OW72170   9.771   7.153   5.140  0.3135  0.4863 -0.0391
53482SOL    HW172171   9.816   7.072   5.120  1.5990  1.3504 -0.7633
53482SOL    HW272172   9.737   7.141   5.229 -1.2270 -1.5602 -0.8419
53483SOL     OW72173   8.387   0.844  12.989 -0.2595  0.1027 -0.1481
53483SOL    HW172174   8.456   0.878  13.046  0.0494 -0.2543 -0.3050
53483SOL    HW272175   8.366   0.916  12.930 -1.6357  1.0026  1.3665
53484SOL     OW72176   4.705   3.482  11.617 -0.4249  0.0221  0.1461
53484SOL    HW172177   4.794   3.457  11.590  0.3104  0.4485  2.0045
53484SOL    HW272178   4.649   3.452  11.545  1.3456  1.0381 -1.7742
53485SOL     OW72179   6.832   0.078   5.401 -0.0916  0.0959  0.1658
53485SOL    HW172180   6.867   0.132   5.473 -0.5802 -0.6480  0.9848
53485SOL    HW272181   6.910   0.052   5.352  0.3198  0.0796  0.8089
53486SOL     OW72182   4.277   6.117  10.999  0.2475 -0.1098  0.6748
53486SOL    HW172183   4.238   6.204  11.012 -1.2080 -0.6906  0.4294
53486SOL    HW272184   4.203   6.062  10.975  1.1859 -1.3870  0.6466
53487SOL     OW72185   8.181  13.494  10.325 -0.0916  0.0459  0.4597
53487SOL    HW172186   8.256  13.505  10.384 -0.0957 -0.1049  0.4930
53487SOL    HW272187   8.113  13.456  10.381 -0.3613  0.6544  0.5597
53488SOL     OW72188   7.023   3.412  12.276 -0.8736 -0.0819 -0.0983
53488SOL    HW172189   7.020   3.501  12.241 -1.8227 -0.1333 -0.1512
53488SOL    HW272190   7.076   3.420  12.356 -2.3342  0.8726  0.8258
53489SOL     OW72191   8.178   7.790   3.707  0.0805  0.5786  0.1692
53489SOL    HW172192   8.156   7.865   3.652 -0.4902  0.1118 -0.2522
53489SOL    HW272193   8.244   7.742   3.658 -0.2683  0.2804 -0.0132
53490SOL     OW72194   1.496   7.735   7.706  0.4177 -0.5413 -0.0567
53490SOL    HW172195   1.402   7.721   7.709  0.5471 -1.3284  0.8874
53490SOL    HW272196   1.526   7.685   7.630 -0.0129  0.3737 -0.8460
53491SOL     OW72197   8.857  10.287   1.223 -0.5726 -0.1515  0.6740
53491SOL    HW172198   8.845  10.380   1.203 -0.4683 -0.5415 -1.4892
53491SOL    HW272199   8.946  10.268   1.194 -0.6601 -0.9693  0.9259
53492SOL     OW72200   3.100   4.244   0.871  1.0311 -0.0130 -0.4801
53492SOL    HW172201   3.050   4.185   0.813  1.4330 -0.9421  0.1005
53492SOL    HW272202   3.052   4.243   0.953  0.2072  1.6634 -0.8855
53493SOL     OW72203  10.672   3.936  11.317  0.1290  0.6535 -0.4729
53493SOL    HW172204  10.763   3.961  11.303  0.9051 -2.0941 -0.7945
53493SOL    HW272205  10.624   3.982  11.248  1.5238  0.6549 -1.4874
53494SOL     OW72206   6.954   0.942   8.193  0.0407 -0.0547  0.0173
53494SOL    HW172207   7.049   0.954   8.200  0.1837 -0.5918 -0.8159
53494SOL    HW272208   6.917   1.016   8.241  0.8678 -0.3575  1.1775
53495SOL     OW72209   1.225   1.340   5.955  0.1055 -0.5480  0.4281
53495SOL    HW172210   1.169   1.302   5.888  0.8438 -0.8691 -0.0233
53495SOL    HW272211   1.288   1.271   5.976  0.8831  0.1001  0.2786
53496SOL     OW72212   3.663   3.412   6.470  0.2504  0.1169  0.3231
53496SOL    HW172213   3.745   3.449   6.438 -0.5433  1.5481 -0.1463
53496SOL    HW272214   3.689   3.337   6.524  2.2681  3.1901  4.1847
53497SOL     OW72215   5.323   5.246   9.698 -0.1422  0.4552  0.0810
53497SOL    HW172216   5.281   5.332   9.711 -3.1325 -1.0126  1.0178
53497SOL    HW272217   5.325   5.208   9.785 -0.1632 -0.9822 -0.5298
53498SOL     OW72218   3.346   4.110  11.724  0.2116 -0.2192 -0.0501
53498SOL    HW172219   3.407   4.184  11.735 -0.0876  0.0353 -0.0776
53498SOL    HW272220   3.316   4.118  11.634  0.1234 -0.3361 -0.0308
53499SOL     OW72221   3.723   8.982   6.827 -0.2761 -0.4294 -0.1318
53499SOL    HW172222   3.764   8.908   6.784 -0.5114 -0.3559 -0.4926
53499SOL    HW272223   3.657   8.944   6.884 -1.2487 -0.4661 -1.2306
53500SOL     OW72224   4.957  12.500   7.012 -0.0387  0.2491 -0.7734
53500SOL    HW172225   4.875  12.550   7.010 -0.9349 -1.0980  0.2875
53500SOL    HW272226   4.933  12.417   7.055  1.0972 -1.5808 -3.3790
53501SOL     OW72227   3.197   8.194   6.585 -0.1104 -0.1665  0.2105
53501SOL    HW172228   3.197   8.288   6.570  0.4850 -0.1471  0.3168
53501SOL    HW272229   3.176   8.183   6.678  2.4307 -0.0097  0.8632
53502SOL     OW72230   5.564   0.805   1.164  0.1312  0.3377  0.5069
53502SOL    HW172231   5.599   0.737   1.106 -0.2621  0.9295 -0.4618
53502SOL    HW272232   5.589   0.777   1.252  2.7090  0.5211 -0.0725
53503SOL     OW72233  11.480  13.592   1.083 -0.6372  0.4042 -0.5285
53503SOL    HW172234  11.415  13.530   1.051  0.7457 -0.8859 -0.9427
53503SOL    HW272235  11.557  13.539   1.102 -0.1594  1.6640  1.3870
53504SOL     OW72236  12.054  12.249   9.298  0.3263  0.2882 -0.3655
53504SOL    HW172237  12.029  12.329   9.252  0.6202  0.0569 -0.9299
53504SOL    HW272238  12.136  12.271   9.342 -0.3342  0.7471  0.7009
53505SOL     OW72239   5.649   4.496   8.950 -0.1232 -0.6674  0.0617
53505SOL    HW172240   5.621   4.408   8.974  0.5937 -1.1222 -0.6963
53505SOL    HW272241   5.658   4.494   8.854 -0.8408  0.4591 -0.0541
53506SOL     OW72242   8.471   0.714   5.216 -0.1296  0.7753  0.0417
53506SOL    HW172243   8.539   0.700   5.282  0.2272 -2.4532 -0.8595
53506SOL    HW272244   8.519   0.718   5.133 -0.9044  0.3284 -0.4390
53507SOL     OW72245  10.208   9.946   1.200 -0.5871 -0.5022 -0.0440
53507SOL    HW172246  10.188   9.896   1.279  3.4027 -1.2819  0.6672
53507SOL    HW272247  10.156  10.026   1.208 -1.6641 -1.3568  2.4325
53508SOL     OW72248   6.441   1.244   4.074 -0.3515  0.0676 -0.1927
53508SOL    HW172249   6.350   1.216   4.083  0.3381 -2.1543  0.3572
53508SOL    HW272250   6.482   1.177   4.021  1.1150  0.7510  0.0275
53509SOL     OW72251   1.548   8.494  10.372  0.5056  0.2325 -0.2050
53509SOL    HW172252   1.600   8.441  10.312 -0.3965 -0.0130 -0.7957
53509SOL    HW272253   1.495   8.430  10.420 -0.5839  0.5835 -0.9126
53510SOL     OW72254   3.196   7.811  12.186 -0.7640 -0.9309 -0.2296
53510SOL    HW172255   3.211   7.722  12.154 -1.0098 -0.6179 -1.2701
53510SOL    HW272256   3.143   7.800  12.264 -0.6033 -1.7111 -0.2212
53511SOL     OW72257  11.097   8.656   9.624 -0.3082 -0.0255  0.3985
53511SOL    HW172258  11.172   8.606   9.593 -2.1959 -2.3628 -0.7614
53511SOL    HW272259  11.102   8.740   9.578  0.3707 -1.0190 -1.3954
53512SOL     OW72260   1.898   8.139  11.415  0.0629 -0.1279  0.9014
53512SOL    HW172261   1.878   8.132  11.509  0.5208 -0.1339  0.9968
53512SOL    HW272262   1.858   8.222  11.389 -0.3784 -0.2991  1.0216
53513SOL     OW72263   9.558   1.152   6.206  0.2139 -0.3181  0.0335
53513SOL    HW172264   9.577   1.137   6.114  0.7878  0.0096  0.0935
53513SOL    HW272265   9.608   1.085   6.253 -0.6049 -0.9098  0.0770
53514SOL     OW72266   5.874   1.888   5.179 -0.0344 -0.2138 -0.3487
53514SOL    HW172267   5.921   1.841   5.110 -0.8507  0.2559 -1.2475
53514SOL    HW272268   5.783   1.886   5.151 -0.1640  1.3581 -0.0971
53515SOL     OW72269   9.621   5.375  10.392 -0.4840 -0.0799 -0.6714
53515SOL    HW172270   9.568   5.434  10.338  0.6730  1.8882  0.2143
53515SOL    HW272271   9.590   5.391  10.482  1.5543  1.1426 -0.1333
53516SOL     OW72272  11.491   6.707  13.175 -0.1389  0.8222  0.3354
53516SOL    HW172273  11.543   6.758  13.238 -0.5964  1.2215  0.4004
53516SOL    HW272274  11.416   6.764  13.155 -0.6663  0.1649  0.4162
53517SOL     OW72275  12.884   4.656  10.033 -0.1658  0.1227  0.2322
53517SOL    HW172276  12.969   4.677  10.071 -0.9970  2.1525  1.1789
53517SOL    HW272277  12.850   4.741  10.003 -2.0129 -0.5462  0.2879
53518SOL     OW72278  11.517   3.583   3.632 -0.2757  0.4028 -0.2098
53518SOL    HW172279  11.546   3.579   3.723  1.4693 -0.0858 -0.7448
53518SOL    HW272280  11.522   3.675   3.609 -1.3263  0.6117  0.3554
53519SOL     OW72281   1.378  12.325   2.331 -0.7559  0.2683  0.7382
53519SOL    HW172282   1.331  12.392   2.381 -1.2231  0.1018  0.5301
53519SOL    HW272283   1.469  12.333   2.359 -0.5388  1.9103 -0.2731
53520SOL     OW72284   4.215   4.322   9.226 -0.4116 -0.4768  0.5280
53520SOL    HW172285   4.179   4.261   9.163 -1.0515  1.8436 -1.5031
53520SOL    HW272286   4.299   4.348   9.189 -0.5575  0.5368  0.8755
53521SOL     OW72287   9.359  11.368   0.099 -0.2930 -0.2819 -0.6053
53521SOL    HW172288   9.291  11.312   0.061 -0.7812  0.0924 -0.3034
53521SOL    HW272289   9.311  11.429   0.156  0.4097 -0.8530  0.6550
53522SOL     OW72290  12.441  10.345   7.569  0.0450 -0.0823 -0.3921
53522SOL    HW172291  12.449  10.378   7.658  0.1511  0.9338 -0.7714
53522SOL    HW272292  12.361  10.386   7.534  0.7202  0.5861 -1.2022
53523SOL     OW72293   7.018   7.529   4.356  1.0087  0.4092 -0.2036
53523SOL    HW172294   6.947   7.592   4.362  0.1405 -0.5468 -0.2679
53523SOL    HW272295   6.975   7.445   4.341  2.1892 -0.0123 -1.5112
53524SOL     OW72296   5.251   0.703   7.062 -0.4389 -0.4061 -0.1360
53524SOL    HW172297   5.283   0.793   7.052  0.0512 -0.5590 -0.0039
53524SOL    HW272298   5.201   0.704   7.143 -0.4504 -0.2443 -0.1445
53525SOL     OW72299   5.258   1.507   5.448 -0.1206  0.2403 -0.3108
53525SOL    HW172300   5.224   1.521   5.536  0.7304  1.1606 -0.1029
53525SOL    HW272301   5.185   1.530   5.390 -0.3035  0.8371  0.1423
53526SOL     OW72302   6.260   7.470   6.932 -0.3256 -0.0744  0.0184
53526SOL    HW172303   6.221   7.544   6.887  0.3293  0.8604  0.9329
53526SOL    HW272304   6.212   7.465   7.015  1.0756  0.7502  0.9203
53527SOL     OW72305  11.510  12.929   7.386  0.5145 -0.2589 -0.7732
53527SOL    HW172306  11.507  12.892   7.298 -0.4054  1.1222 -1.3550
53527SOL    HW272307  11.471  12.862   7.442 -1.3495 -0.1157 -1.8286
53528SOL     OW72308  10.294   3.063  13.744  0.2090 -0.3823 -0.4966
53528SOL    HW172309  10.239   3.063  13.666  0.3991  1.3333 -0.6893
53528SOL    HW272310  10.375   3.021  13.716 -1.1384 -3.4901 -0.0352
53529SOL     OW72311   5.727  10.207   7.204 -0.2041  0.2748  0.3384
53529SOL    HW172312   5.688  10.258   7.275  0.6654  0.4701  0.6868
53529SOL    HW272313   5.815  10.186   7.235 -0.5708 -1.5526  0.2602
53530SOL     OW72314   6.393   3.159  12.959  0.3145 -0.4550 -0.0117
53530SOL    HW172315   6.340   3.219  12.907  1.5836 -0.3110 -1.2109
53530SOL    HW272316   6.341   3.078  12.962 -0.1341 -0.2116 -0.8542
53531SOL     OW72317   8.723   2.589   9.435 -0.1656 -0.2277  0.0494
53531SOL    HW172318   8.783   2.636   9.377 -0.2496 -0.8569 -0.5518
53531SOL    HW272319   8.637   2.601   9.396 -0.0236 -2.0306 -0.8970
53532SOL     OW72320   8.018   4.662  13.531 -0.1614 -0.2935 -0.2502
53532SOL    HW172321   8.062   4.651  13.615 -1.6670  3.0353  1.1620
53532SOL    HW272322   7.956   4.589  13.527 -1.2346  0.3384  2.4377
53533SOL     OW72323   2.225   7.326  11.840  0.4790  0.4150  0.8241
53533SOL    HW172324   2.269   7.309  11.923 -1.0152 -0.8327  1.3972
53533SOL    HW272325   2.257   7.258  11.781 -2.4678 -2.1914  1.9776
53534SOL     OW72326   3.644   0.718  12.144 -0.2914 -0.0618 -0.1041
53534SOL    HW172327   3.729   0.750  12.177 -0.1456  0.0501 -0.5782
53534SOL    HW272328   3.579   0.771  12.191 -0.0869  0.1326 -0.0347
53535SOL     OW72329   0.305   7.419   1.461 -0.2136  0.5264  0.1282
53535SOL    HW172330   0.257   7.492   1.499 -1.0258 -0.7868  1.7800
53535SOL    HW272331   0.242   7.378   1.401 -0.8345 -0.5359  1.4548
53536SOL     OW72332   7.845  10.309  10.781 -0.2859 -0.0577 -0.0393
53536SOL    HW172333   7.912  10.256  10.825 -0.9784 -1.5197 -0.6705
53536SOL    HW272334   7.885  10.335  10.699 -0.4840 -1.0001 -0.4539
53537SOL     OW72335   1.367  12.680   7.050 -0.2074  0.0657  0.6324
53537SOL    HW172336   1.438  12.735   7.084 -0.2478  1.0839 -0.8296
53537SOL    HW272337   1.401  12.591   7.055  1.0676  0.5088  0.2534
53538SOL     OW72338   6.653  13.132  13.082  0.1614  0.7520  0.0574
53538SOL    HW172339   6.606  13.181  13.150 -2.1259 -0.6677 -0.3950
53538SOL    HW272340   6.585  13.087  13.033  2.0301 -2.3630  0.0098
53539SOL     OW72341   6.691   7.565   9.223  0.2591 -0.1017  0.2436
53539SOL    HW172342   6.669   7.590   9.134  1.7041  0.3734 -0.0115
53539SOL    HW272343   6.787   7.563   9.225  0.2766  0.2744  1.8738
53540SOL     OW72344   0.472   1.188   6.975  0.2194  0.4427 -0.3004
53540SOL    HW172345   0.420   1.229   7.044 -1.3484 -0.3831 -0.9237
53540SOL    HW272346   0.442   1.230   6.894  0.1569 -0.3699 -0.7165
53541SOL     OW72347   7.954   9.854   3.775 -0.6174 -0.4555  0.0785
53541SOL    HW172348   8.046   9.877   3.786 -0.5832  0.0673 -1.2245
53541SOL    HW272349   7.945   9.770   3.821  0.2890 -0.0825  0.9759
53542SOL     OW72350  12.465   5.613   4.082 -0.3756 -0.3460  0.1730
53542SOL    HW172351  12.513   5.694   4.096 -3.0551  1.0119  2.4519
53542SOL    HW272352  12.419   5.627   3.999 -0.0094  0.0140  0.0270
53543SOL     OW72353  13.279   7.049   9.340  0.2632  0.0117 -0.6965
53543SOL    HW172354  13.254   7.064   9.432  1.5324 -1.1596 -0.1262
53543SOL    HW272355  13.373   7.033   9.344  0.4659  0.6955 -2.3188
53544SOL     OW72356  12.896  13.290   5.896  0.3153 -0.6127 -0.3113
53544SOL    HW172357  12.869  13.198   5.892  0.2644 -0.5932 -0.4080
53544SOL    HW272358  12.888  13.322   5.806  1.6513 -0.8886 -0.5500
53545SOL     OW72359   7.001   1.236   8.532  0.2526  0.1681 -0.1616
53545SOL    HW172360   7.017   1.265   8.443 -0.5188  0.6686 -0.1456
53545SOL    HW272361   6.910   1.205   8.532  0.3008  0.0025  0.4007
53546SOL     OW72362   8.827   0.154   0.386  0.0685 -0.3820  0.1704
53546SOL    HW172363   8.870   0.235   0.413  2.7369 -1.9639  1.0832
53546SOL    HW272364   8.790   0.173   0.300  3.6338  0.8850 -1.2355
53547SOL     OW72365   9.051  10.588   4.433  0.1824  0.4907  0.1112
53547SOL    HW172366   9.043  10.655   4.365 -2.1997 -0.0642 -0.2379
53547SOL    HW272367   8.971  10.596   4.485  0.1766 -1.5687  0.5191
53548SOL     OW72368   3.526   1.753   4.423 -0.1934  0.4751 -0.7850
53548SOL    HW172369   3.473   1.697   4.366  0.1417 -0.4731 -0.1936
53548SOL    HW272370   3.553   1.695   4.495  1.6098  0.9148 -1.0506
53549SOL     OW72371  11.705  11.069   8.458  0.1671  0.0327 -0.4598
53549SOL    HW172372  11.635  11.125   8.492  0.7952  0.4297  0.2123
53549SOL    HW272373  11.753  11.125   8.397  0.1298 -0.1246 -0.6356
53550SOL     OW72374   3.746   5.509  13.116  0.0812  0.4732 -0.1534
53550SOL    HW172375   3.706   5.456  13.046  0.1687 -1.2612  1.0398
53550SOL    HW272376   3.762   5.446  13.187  2.3927  1.6506  0.4590
53551SOL     OW72377   0.155   9.641  13.428  0.3607 -0.3812 -0.4656
53551SOL    HW172378   0.133   9.671  13.516 -0.3149 -1.2662 -0.3236
53551SOL    HW272379   0.159   9.546  13.435  0.6947 -0.4398 -1.3077
53552SOL     OW72380  10.491   8.652   7.571 -0.3247  0.8443  0.0124
53552SOL    HW172381  10.501   8.637   7.665  0.3780  0.2111 -0.1555
53552SOL    HW272382  10.533   8.576   7.530 -1.4758  0.6296 -0.8006
53553SOL     OW72383  11.236   7.661   8.695 -0.0219  0.1747 -0.0915
53553SOL    HW172384  11.280   7.713   8.764  0.6880  1.3943 -1.4041
53553SOL    HW272385  11.272   7.573   8.705  2.4783  1.0117 -0.7981
53554SOL     OW72386   3.509   4.859   7.450 -0.2668  0.4363 -0.0275
53554SOL    HW172387   3.604   4.859   7.438 -0.4300 -0.4851 -1.5134
53554SOL    HW272388   3.489   4.772   7.487 -0.4658  0.9223  1.0542
53555SOL     OW72389   2.824  11.844   4.649 -0.2803  0.1317  0.0974
53555SOL    HW172390   2.877  11.889   4.715 -0.8971  0.9252  0.0611
53555SOL    HW272391   2.735  11.876   4.663 -0.4915  0.0092 -0.8634
53556SOL     OW72392   1.584  12.352   9.198 -0.2684 -0.0149  0.6460
53556SOL    HW172393   1.563  12.350   9.105 -1.4878  1.1436  0.8570
53556SOL    HW272394   1.647  12.424   9.207  0.0120 -0.2622  0.7012
53557SOL     OW72395   9.346   0.911   0.335 -0.1582  0.0785  0.4217
53557SOL    HW172396   9.306   0.998   0.335  0.8424  0.5687  1.6738
53557SOL    HW272397   9.363   0.892   0.427  2.3131 -0.1710 -0.0190
53558SOL     OW72398   6.347   6.426   7.012  0.1682  0.0084 -0.0793
53558SOL    HW172399   6.310   6.432   7.099  0.4704 -1.2957  0.1549
53558SOL    HW272400   6.339   6.515   6.976  0.2750  0.6175  1.3539
53559SOL     OW72401   3.946  13.246   0.682 -0.2263 -0.0679 -0.3978
53559SOL    HW172402   3.908  13.332   0.697 -2.1016 -0.6864 -1.2376
53559SOL    HW272403   3.886  13.186   0.727  0.5689 -0.9982 -0.5561
53560SOL     OW72404   4.638   5.788   7.660  0.4505 -0.3579  0.1143
53560SOL    HW172405   4.725   5.828   7.661 -0.7982  2.6538 -1.0343
53560SOL    HW272406   4.631   5.748   7.574  1.2549 -2.1800  0.8351
53561SOL     OW72407   0.734  12.174   1.874 -0.7269 -0.6150 -0.7453
53561SOL    HW172408   0.642  12.146   1.869 -0.7285 -0.8584  0.4403
53561SOL    HW272409   0.730  12.270   1.871 -1.2063 -0.5262  1.5191
53562SOL     OW72410   4.131  10.674   2.768  0.0658 -0.1400 -0.6985
53562SOL    HW172411   4.152  10.580   2.770  1.5793  0.1554  2.1266
53562SOL    HW272412   4.191  10.711   2.704  0.3809 -0.9085 -0.8573
53563SOL     OW72413   7.610  13.166   4.355  0.0916  0.1598  0.1639
53563SOL    HW172414   7.609  13.173   4.260 -0.8448  1.8394  0.2626
53563SOL    HW272415   7.703  13.171   4.379  0.2194  1.8357 -0.5634
53564SOL     OW72416   5.726  12.539   6.697 -0.3749  0.7681 -0.2845
53564SOL    HW172417   5.805  12.586   6.667  0.9923 -0.7740  0.7446
53564SOL    HW272418   5.686  12.599   6.760  0.0636  1.4956 -0.6779
53565SOL     OW72419  10.617  10.775   4.736  0.2127  0.4424  0.0698
53565SOL    HW172420  10.575  10.860   4.751 -1.1842 -0.0279 -1.0053
53565SOL    HW272421  10.561  10.731   4.672  1.0282 -1.2100  0.4352
53566SOL     OW72422   5.288   8.686  12.336  0.2266 -0.5854 -0.5045
53566SOL    HW172423   5.267   8.716  12.248  0.5447 -0.8475 -0.6710
53566SOL    HW272424   5.291   8.590  12.329 -0.4750 -0.6526 -0.0485
53567SOL     OW72425   9.683   7.857   3.950 -0.0720  0.6020  0.5687
53567SOL    HW172426   9.590   7.869   3.966 -0.2971  1.2472 -1.0132
53567SOL    HW272427   9.702   7.914   3.876  1.4018 -0.1391  0.3378
53568SOL     OW72428   2.066   3.442   3.231 -0.3627 -0.4673 -0.2320
53568SOL    HW172429   2.152   3.447   3.191 -0.6330 -1.2016 -0.9388
53568SOL    HW272430   2.039   3.351   3.218 -1.7620  0.0404 -1.1534
53569SOL     OW72431   5.129  11.275   1.137 -0.3127 -0.1419 -0.2360
53569SOL    HW172432   5.071  11.215   1.090 -0.6241 -0.6538  0.7497
53569SOL    HW272433   5.171  11.220   1.204 -1.1734  0.8596  1.1884
53570SOL     OW72434  11.481  13.547   9.486  0.2541 -0.3437 -0.3846
53570SOL    HW172435  11.453  13.606   9.556  1.8074 -0.2546  0.1982
53570SOL    HW272436  11.402  13.534   9.433 -1.0190 -0.5549  1.4607
53571SOL     OW72437  13.090  13.590   6.809  0.2574  0.0762 -0.1491
53571SOL    HW172438  13.067  13.683   6.821 -0.0851  0.0571 -0.6139
53571SOL    HW272439  13.074  13.574   6.716  1.8109 -0.0496 -0.4216
53572SOL     OW72440  12.799   9.568   0.769  0.4476  0.2876  0.3736
53572SOL    HW172441  12.759   9.505   0.829 -0.6718  0.9073  0.3154
53572SOL    HW272442  12.735   9.578   0.699  0.8818  1.0299  0.0725
53573SOL     OW72443   9.203   4.323   6.213  0.0318  0.0761  0.4448
53573SOL    HW172444   9.204   4.304   6.306 -1.1695 -1.0768  0.2555
53573SOL    HW272445   9.133   4.387   6.202  0.4387  0.5142  0.3820
53574SOL     OW72446   0.116   4.003  13.371  0.1518  0.2032  0.7925
53574SOL    HW172447   0.181   4.021  13.439  1.2308  0.2230 -0.2048
53574SOL    HW272448   0.033   4.029  13.410  0.7532  0.3386  2.0503
53575SOL     OW72449   7.602   8.274   9.304  0.1368 -0.2892  0.4564
53575SOL    HW172450   7.522   8.264   9.356 -0.3291 -3.3044 -0.6110
53575SOL    HW272451   7.638   8.358   9.331 -3.9548  1.8017  0.1590
53576SOL     OW72452   8.856  13.301  11.812  0.0053  0.7729 -0.0455
53576SOL    HW172453   8.821  13.373  11.866  0.0491  1.1569 -0.5234
53576SOL    HW272454   8.783  13.241  11.802 -0.2470  1.1063 -0.2405
53577SOL     OW72455   4.549   8.647   1.195 -0.0493 -0.5257  0.5594
53577SOL    HW172456   4.620   8.584   1.209  0.8779  0.2801 -0.2951
53577SOL    HW272457   4.469   8.595   1.198  0.6357 -1.5902  0.7708
53578SOL     OW72458   3.983  13.529   6.245 -0.3971  0.2932 -0.0563
53578SOL    HW172459   3.932  13.465   6.294  0.0179 -0.3391 -0.4373
53578SOL    HW272460   4.063  13.540   6.297  0.2210 -0.6815 -0.7853
53579SOL     OW72461  11.457   9.893   7.530 -0.1696 -0.2766  0.3016
53579SOL    HW172462  11.482   9.985   7.534 -0.1818 -0.2083 -0.8425
53579SOL    HW272463  11.412   9.884   7.446 -0.1643 -1.3263  0.3989
53580SOL     OW72464  11.562   6.296   0.492 -0.2147 -0.0664  0.1193
53580SOL    HW172465  11.467   6.287   0.490 -0.2702  0.4853 -1.2692
53580SOL    HW272466  11.590   6.245   0.568 -1.5329 -1.0183 -0.0046
53581SOL     OW72467   9.465   7.217  11.407 -0.3798 -0.2118 -0.3180
53581SOL    HW172468   9.380   7.257  11.389  0.3412  1.1933 -0.8170
53581SOL    HW272469   9.502   7.202  11.320  0.2333  0.0179 -0.1031
53582SOL     OW72470  11.418   8.206  10.268 -0.3548 -0.0813  0.1314
53582SOL    HW172471  11.480   8.278  10.272 -1.2222  0.6617  3.2419
53582SOL    HW272472  11.385   8.207  10.179  3.3148  0.0695 -1.4105
53583SOL     OW72473  12.499  13.133   0.475  0.5595  0.1709  0.0131
53583SOL    HW172474  12.426  13.195   0.478 -1.0124 -1.6502  0.7783
53583SOL    HW272475  12.531  13.129   0.566 -0.7739 -1.6894  0.4622
53584SOL     OW72476  11.372   4.982  13.309 -0.3338  0.1294 -0.3425
53584SOL    HW172477  11.301   4.925  13.279 -0.3875 -0.1156  0.2407
53584SOL    HW272478  11.333   5.032  13.381 -0.6324  1.7298 -1.5801
53585SOL     OW72479  12.876  11.255  12.041  0.0236  0.0175 -0.2655
53585SOL    HW172480  12.965  11.265  12.007 -0.5357 -1.2716 -2.2963
53585SOL    HW272481  12.886  11.253  12.136  2.0333  0.9174 -0.4194
53586SOL     OW72482  10.946  13.180   1.122 -0.8733  0.0086 -0.3297
53586SOL    HW172483  11.009  13.108   1.129  0.1723  1.0727  2.3320
53586SOL    HW272484  10.870  13.151   1.173 -1.4030 -0.0947 -1.1518
53587SOL     OW72485   7.994   6.948  13.140  0.1230 -0.3281  0.1320
53587SOL    HW172486   7.935   6.898  13.197  2.2594 -1.3960  1.5452
53587SOL    HW272487   8.011   6.889  13.067  0.9620 -0.8563  0.7312
53588SOL     OW72488   4.156  10.320   0.593  0.2273 -0.1976  0.1088
53588SOL    HW172489   4.102  10.367   0.530 -0.1981  0.6495  1.0687
53588SOL    HW272490   4.125  10.230   0.589 -1.4796  0.3283  0.8364
53589SOL     OW72491   9.082   2.379   1.709 -0.4254  0.1206 -0.4146
53589SOL    HW172492   9.015   2.447   1.703 -0.5533  0.2603  1.6368
53589SOL    HW272493   9.048   2.318   1.775  0.8509 -0.5195 -0.3187
53590SOL     OW72494  10.927  13.505  13.175 -0.2728 -0.6011 -0.1769
53590SOL    HW172495  11.022  13.504  13.183 -0.3256 -1.4963  0.6024
53590SOL    HW272496  10.910  13.536  13.086  0.7646 -0.9657 -0.5144
53591SOL     OW72497  10.387   9.884   1.645  0.8424  0.0275  0.5013
53591SOL    HW172498  10.295   9.857   1.647  1.1715 -1.1805  2.0440
53591SOL    HW272499  10.427   9.830   1.577  1.0165 -1.8571  2.0095
53592SOL     OW72500  11.881  12.255   2.831  0.3467 -0.1382 -0.1619
53592SOL    HW172501  11.953  12.244   2.893 -0.4605 -1.3152  0.6267
53592SOL    HW272502  11.855  12.346   2.840  2.0396  0.4392 -0.8266
53593SOL     OW72503   0.013   3.370   1.631 -0.1478  0.3651  0.0282
53593SOL    HW172504  -0.059   3.433   1.639 -1.0600 -0.6995  0.4745
53593SOL    HW272505   0.092   3.424   1.629 -0.9911  1.6205 -1.4166
53594SOL     OW72506   2.940   3.569  10.578 -0.1396 -0.6618 -0.4172
53594SOL    HW172507   2.878   3.573  10.651 -0.6808 -1.5035 -0.8071
53594SOL    HW272508   3.026   3.584  10.617 -0.7139  2.9274 -0.1548
53595SOL     OW72509  12.623   7.042   9.848 -0.7558  0.4012 -0.4397
53595SOL    HW172510  12.529   7.036   9.860 -0.8326  0.9704 -0.7463
53595SOL    HW272511  12.651   7.113   9.906 -0.3269 -0.5936  0.6148
53596SOL     OW72512   3.716  11.539   2.510 -0.1749 -0.1448 -0.4694
53596SOL    HW172513   3.633  11.506   2.476 -0.1909 -3.7865  2.4907
53596SOL    HW272514   3.778  11.468   2.496  1.5427  1.0843  0.5408
53597SOL     OW72515   5.805   7.873  12.809  0.4054 -0.0670  0.0348
53597SOL    HW172516   5.833   7.964  12.819  0.2774 -0.1547  1.2502
53597SOL    HW272517   5.763   7.871  12.722 -0.3244  1.2208  0.3285
53598SOL     OW72518  12.033  12.871   0.766 -0.4844  0.1617  0.1727
53598SOL    HW172519  12.076  12.949   0.729 -0.8393 -0.0730 -0.7470
53598SOL    HW272520  11.941  12.882   0.746 -0.7932  0.3143  1.5366
53599SOL     OW72521   2.708  10.331  11.801 -0.4936  0.0143  0.7795
53599SOL    HW172522   2.728  10.417  11.766  1.5175 -0.0278  1.7219
53599SOL    HW272523   2.793  10.291  11.818 -1.3551 -2.3397 -0.0035
53600SOL     OW72524   1.272   5.985   9.499  0.3970  0.4671 -0.2003
53600SOL    HW172525   1.230   5.960   9.582 -0.2837 -0.5793 -0.8269
53600SOL    HW272526   1.211   6.047   9.459 -0.3043 -0.5927 -0.8328
53601SOL     OW72527   0.990   9.487   1.065 -0.0467 -0.6231 -0.0594
53601SOL    HW172528   0.998   9.492   0.969  0.6739 -0.7836 -0.0092
53601SOL    HW272529   0.925   9.418   1.079  2.2352 -3.0384 -0.3934
53602SOL     OW72530   5.035  10.583  10.991 -0.5990 -0.7840 -0.1383
53602SOL    HW172531   4.980  10.521  10.943  0.1795  0.0020 -2.1629
53602SOL    HW272532   5.001  10.581  11.080 -1.7955 -2.7036 -0.5845
53603SOL     OW72533   0.494  13.132  13.147 -0.0374  0.1737  0.0444
53603SOL    HW172534   0.441  13.151  13.070  1.4781 -0.9838 -1.3826
53603SOL    HW272535   0.462  13.047  13.178 -1.0618  0.9264  1.1134
53604SOL     OW72536   9.720  11.461   0.629  0.0367 -0.1467  0.9926
53604SOL    HW172537   9.731  11.526   0.698  0.0567  0.1841  0.6804
53604SOL    HW272538   9.647  11.407   0.659 -0.1067  0.1384  1.1654
53605SOL     OW72539   8.473  10.492   1.873 -0.1143  0.7015  0.4533
53605SOL    HW172540   8.541  10.553   1.844  2.0602 -2.0777 -0.7362
53605SOL    HW272541   8.418  10.478   1.796  1.0080 -0.8195 -0.0982
53606SOL     OW72542  10.491   0.988   6.449 -0.5486  0.0028 -0.3905
53606SOL    HW172543  10.474   0.896   6.466 -0.1738  0.0099  0.0456
53606SOL    HW272544  10.544   1.017   6.523 -1.1084  0.7046 -0.2555
53607SOL     OW72545  13.091   8.712  12.326 -0.1640 -0.1602  0.0460
53607SOL    HW172546  13.085   8.765  12.246  2.4840  0.1969 -0.0049
53607SOL    HW272547  13.010   8.662  12.328 -2.1522  2.7678 -0.7100
53608SOL     OW72548   1.287   3.005   0.112  0.0878  0.0955  0.1568
53608SOL    HW172549   1.267   2.929   0.058 -1.3863 -0.2790  1.1691
53608SOL    HW272550   1.271   2.976   0.202 -0.4576  1.5700  0.5710
53609SOL     OW72551   7.545  11.735   8.609 -0.1077  0.0320 -0.1793
53609SOL    HW172552   7.477  11.711   8.546  0.4531  0.2402 -0.8793
53609SOL    HW272553   7.547  11.661   8.671 -0.8650 -0.0368 -0.2250
53610SOL     OW72554   8.209   3.403  12.594 -0.3212  0.1468  0.1361
53610SOL    HW172555   8.170   3.488  12.613 -1.4134 -0.2853 -0.0333
53610SOL    HW272556   8.195   3.391  12.500 -0.8442 -0.5262  0.2914
53611SOL     OW72557   0.318   0.394   2.916  0.4808 -0.1182  0.1218
53611SOL    HW172558   0.278   0.410   3.002  0.1105  0.9924 -0.2445
53611SOL    HW272559   0.366   0.474   2.896  1.0011 -0.5690 -0.4843
53612SOL     OW72560   7.207   4.514   0.302 -0.0365 -0.0575  0.7336
53612SOL    HW172561   7.164   4.551   0.226  0.9322 -0.6475 -0.1278
53612SOL    HW272562   7.188   4.420   0.297 -0.2802 -0.0491  1.4275
53613SOL     OW72563  12.995   7.166  10.200  0.2613 -0.1458 -0.1842
53613SOL    HW172564  12.951   7.211  10.273 -1.5304 -2.8704  0.5740
53613SOL    HW272565  13.036   7.089  10.241  0.3327 -1.0465 -1.8720
53614SOL     OW72566   8.075  11.247   7.565  0.4844 -0.3074 -0.2836
53614SOL    HW172567   7.980  11.257   7.574  0.2830 -2.4080  0.5748
53614SOL    HW272568   8.086  11.209   7.478  0.4279 -1.0033  0.0056
53615SOL     OW72569   2.911   1.834   8.309 -0.1987 -0.4350 -0.1627
53615SOL    HW172570   2.835   1.834   8.367 -1.8313  0.2082 -2.1948
53615SOL    HW272571   2.909   1.920   8.267  0.8607 -0.9131 -1.2391
53616SOL     OW72572   2.546  10.044  13.174 -0.2220 -0.0022 -0.1661
53616SOL    HW172573   2.476  10.093  13.131 -1.1828 -1.4322 -0.3208
53616SOL    HW272574   2.607  10.022  13.103 -0.4732 -0.1574 -0.3366
53617SOL     OW72575  10.747   6.470   9.510  0.1123  0.3308 -0.0766
53617SOL    HW172576  10.653   6.449   9.511  0.5199 -1.7081 -0.3597
53617SOL    HW272577  10.790   6.390   9.541  1.9564 -0.2059 -3.4937
53618SOL     OW72578   8.788  10.713   6.316 -0.5045 -0.3888 -0.5907
53618SOL    HW172579   8.737  10.784   6.354  0.0222 -0.6827  0.7103
53618SOL    HW272580   8.790  10.732   6.222 -1.7995  0.3852 -0.4837
53619SOL     OW72581   2.757   8.376  10.504  0.2881  0.4693 -0.1768
53619SOL    HW172582   2.694   8.391  10.574  0.0481 -0.1676 -0.2495
53619SOL    HW272583   2.842   8.369  10.549  0.0594 -0.5475  0.1299
53620SOL     OW72584   3.063  13.477   4.635 -0.2692  0.4720 -0.4160
53620SOL    HW172585   3.056  13.514   4.547  2.7703  0.8302 -0.5866
53620SOL    HW272586   3.098  13.390   4.622  2.1404  1.2375  0.4703
53621SOL     OW72587   3.587   0.820  12.715  0.5039  0.1980  0.7840
53621SOL    HW172588   3.669   0.856  12.750  0.5714  0.6370  0.1880
53621SOL    HW272589   3.609   0.730  12.690  0.9288  0.4657  0.1900
53622SOL     OW72590   4.886   7.969   8.716  1.0283 -0.2261  0.4300
53622SOL    HW172591   4.860   8.056   8.746 -0.3878 -1.1571  2.0823
53622SOL    HW272592   4.919   7.983   8.627 -0.7079  1.7619  0.0320
53623SOL     OW72593   6.732  11.569   3.892  0.1022 -0.0409  0.2381
53623SOL    HW172594   6.772  11.540   3.974  0.2836  3.1692  1.4356
53623SOL    HW272595   6.771  11.655   3.875 -0.3075 -0.3684 -3.0066
53624SOL     OW72596   2.717   2.316  11.165  0.1022 -0.1903 -0.0731
53624SOL    HW172597   2.690   2.332  11.074 -0.4570  0.0965  0.1387
53624SOL    HW272598   2.635   2.316  11.214  0.4508  0.1655  0.5117
53625SOL     OW72599   9.356   6.718   3.574 -0.4696  0.2666 -0.4291
53625SOL    HW172600   9.415   6.793   3.570  0.3586 -0.3631 -0.3734
53625SOL    HW272601   9.312   6.717   3.489 -0.6126  0.9137 -0.3622
53626SOL     OW72602   8.786  12.439   3.988  0.5198  0.1119  0.2531
53626SOL    HW172603   8.770  12.524   3.948  1.6805  0.7168  1.0356
53626SOL    HW272604   8.859  12.453   4.048 -0.2020 -1.1016  1.4890
53627SOL     OW72605  10.838   2.266   6.280 -0.0690 -0.0268  1.0583
53627SOL    HW172606  10.921   2.217   6.283  0.4568  0.8510  1.3346
53627SOL    HW272607  10.772   2.200   6.262  0.7984 -0.6273 -0.0802
53628SOL     OW72608  13.034  10.909   5.555 -0.4299  0.6834 -0.0519
53628SOL    HW172609  13.039  10.981   5.617 -0.0961  0.5744  0.0500
53628SOL    HW272610  12.962  10.854   5.587 -0.0596  0.4633  0.4163
53629SOL     OW72611   8.009  12.269   8.416  0.3614 -0.4091 -0.3505
53629SOL    HW172612   7.944  12.212   8.458 -0.8144  1.2675  0.2456
53629SOL    HW272613   8.088  12.260   8.469 -0.6016  0.4357  1.2962
53630SOL     OW72614   7.277   4.761   1.019  0.2919  0.2337  0.1862
53630SOL    HW172615   7.233   4.844   0.998 -1.5809 -0.6292  0.4786
53630SOL    HW272616   7.244   4.738   1.106 -1.0132 -1.8908 -0.7913
53631SOL     OW72617  13.025  11.153   4.070 -0.2149 -0.7553  0.2323
53631SOL    HW172618  13.047  11.240   4.038  0.7521 -0.5331  1.4500
53631SOL    HW272619  12.983  11.110   3.995  0.6412  0.2417 -0.8567
53632SOL     OW72620   2.528   5.597   7.659  0.1159 -0.8401 -0.5075
53632SOL    HW172621   2.581   5.633   7.588  1.3806 -2.5478 -0.4953
53632SOL    HW272622   2.438   5.612   7.632  0.5751  0.7811 -1.2559
53633SOL     OW72623   0.292   1.595  12.239 -0.0872 -0.0567  0.1342
53633SOL    HW172624   0.279   1.526  12.303  0.1590 -0.0273  0.2175
53633SOL    HW272625   0.210   1.645  12.240  0.1317  0.3014  0.8583
53634SOL     OW72626   7.855   0.338  12.988  0.1601 -0.0733  0.3259
53634SOL    HW172627   7.771   0.340  13.033  0.0951  0.0449  0.1995
53634SOL    HW272628   7.844   0.274  12.918  0.1983 -0.1104  0.3532
53635SOL     OW72629   9.731   5.999  10.538 -0.3694 -0.3558  0.5799
53635SOL    HW172630   9.798   5.931  10.540 -0.2240 -0.2354  0.0654
53635SOL    HW272631   9.662   5.968  10.596 -0.9430 -1.6253 -0.7110
53636SOL     OW72632   7.431  13.376   6.727  0.3737 -0.2636 -0.1998
53636SOL    HW172633   7.445  13.399   6.635 -0.2806 -0.1575 -0.2807
53636SOL    HW272634   7.394  13.456   6.767 -0.4359 -0.6623 -0.1214
53637SOL     OW72635   3.489   0.248   9.686 -0.3527  0.0226  0.1486
53637SOL    HW172636   3.563   0.247   9.626 -0.5946  0.2286 -0.1618
53637SOL    HW272637   3.458   0.158   9.687 -0.5019  0.0644 -0.2414
53638SOL     OW72638   4.657  12.416  13.314  0.1730 -0.0616  0.2127
53638SOL    HW172639   4.725  12.471  13.274 -0.7676 -0.2422 -1.7722
53638SOL    HW272640   4.602  12.388  13.240 -1.6178 -0.5440  1.6470
53639SOL     OW72641   8.944   3.096   2.721 -0.1865  0.9141 -0.2901
53639SOL    HW172642   8.895   3.058   2.648  1.8614 -0.3040 -1.0931
53639SOL    HW272643   9.036   3.084   2.698  0.6882 -2.2728  3.7609
53640SOL     OW72644  10.563   6.608  13.612  0.2854 -0.4592 -0.2270
53640SOL    HW172645  10.534   6.568  13.530  1.1188 -1.2486 -0.1515
53640SOL    HW272646  10.487   6.602  13.669 -0.0916 -0.5082 -0.7231
53641SOL     OW72647   2.774   0.937   4.859  0.1713  0.3589  0.4270
53641SOL    HW172648   2.757   1.030   4.845  0.5471  0.1410 -1.7242
53641SOL    HW272649   2.722   0.915   4.936 -0.7773  2.0956  0.3368
53642SOL     OW72650   2.842  10.479  10.759  0.4481 -0.2408  0.4115
53642SOL    HW172651   2.784  10.404  10.773  1.1663 -0.8312  0.3473
53642SOL    HW272652   2.837  10.495  10.665 -1.1393  1.0094  0.6791
53643SOL     OW72653   5.898   2.080   0.639  0.1583 -0.2281  0.5533
53643SOL    HW172654   5.917   2.060   0.731  0.1627  1.9150  1.0774
53643SOL    HW272655   5.803   2.089   0.637  0.2376  0.7446  0.6091
53644SOL     OW72656   0.501  11.501   6.221  0.1880  0.1733 -0.0244
53644SOL    HW172657   0.497  11.414   6.181 -0.2981 -0.4437  1.3375
53644SOL    HW272658   0.439  11.553   6.169 -0.8841 -0.7681  0.2585
53645SOL     OW72659  10.628  11.441   0.929 -0.6314  0.5405 -0.2068
53645SOL    HW172660  10.666  11.459   0.843  0.4301 -0.4612  0.0235
53645SOL    HW272661  10.674  11.500   0.988 -1.7225  1.5961 -0.3766
53646SOL     OW72662   3.522   9.886  12.393 -0.5279 -0.0635 -0.0839
53646SOL    HW172663   3.490   9.975  12.375 -2.0852 -0.9574 -2.1037
53646SOL    HW272664   3.462   9.852  12.459  0.4023  0.5006  1.1131
53647SOL     OW72665   6.546   0.599   5.250 -0.3081 -0.1277 -0.1776
53647SOL    HW172666   6.454   0.578   5.268  0.0354 -1.5250  0.0504
53647SOL    HW272667   6.543   0.680   5.200 -1.6242  0.3120  0.5734
53648SOL     OW72668   6.574   2.707   7.767  0.0136  0.1729 -0.3242
53648SOL    HW172669   6.479   2.699   7.758 -0.3812  1.7118  1.8379
53648SOL    HW272670   6.598   2.779   7.709  0.0001 -0.6445 -1.3782
53649SOL     OW72671   2.782   7.434   8.698  0.5232  0.1623 -0.0523
53649SOL    HW172672   2.845   7.459   8.631  0.2682  2.3134  0.4525
53649SOL    HW272673   2.732   7.362   8.658  0.7281  1.0162 -1.9619
53650SOL     OW72674  10.805   0.092  11.514 -0.4664  0.3214 -0.4730
53650SOL    HW172675  10.740   0.118  11.578 -2.1221  0.7279 -2.2388
53650SOL    HW272676  10.870   0.162  11.517 -1.7150  1.5362 -0.8439
53651SOL     OW72677   9.381   7.900   3.147 -0.6918  0.1217 -0.4673
53651SOL    HW172678   9.449   7.910   3.213 -0.9454 -0.5835 -0.0940
53651SOL    HW272679   9.420   7.843   3.081 -0.5043  0.6792 -0.8538
53652SOL     OW72680   6.960  12.072   9.213  0.1292 -0.4169 -0.1339
53652SOL    HW172681   6.890  12.018   9.176  0.1558 -0.4433 -0.1449
53652SOL    HW272682   7.026  12.077   9.144 -0.3747  0.5738 -0.5613
53653SOL     OW72683   3.387   3.196   8.048  0.0606  0.3460 -0.2152
53653SOL    HW172684   3.354   3.107   8.033  0.6979  0.3578 -1.9075
53653SOL    HW272685   3.481   3.189   8.033  0.0929  1.3451 -0.5217
53654SOL     OW72686   7.393   7.709  12.486 -0.8605  0.6003  0.0364
53654SOL    HW172687   7.392   7.749  12.399 -0.7481  0.5792  0.0251
53654SOL    HW272688   7.479   7.732  12.522 -1.0661  0.9580  0.3074
53655SOL     OW72689   7.624   9.731  12.518  0.4118 -0.1293 -0.1031
53655SOL    HW172690   7.628   9.804  12.456 -0.9790 -1.8199 -2.3095
53655SOL    HW272691   7.540   9.741  12.562  0.6482  0.1218  0.2965
53656SOL     OW72692  13.269   6.497   4.025 -0.0743  0.1288  0.6962
53656SOL    HW172693  13.235   6.421   3.977 -0.7022  0.2236  0.9833
53656SOL    HW272694  13.251   6.571   3.967  1.2817 -0.0210  0.0450
53657SOL     OW72695   3.188  10.381   6.791 -0.2570  0.4193  0.7820
53657SOL    HW172696   3.275  10.375   6.831  1.6818  2.1243 -2.7265
53657SOL    HW272697   3.166  10.474   6.794 -0.4533  0.4722 -1.1068
53658SOL     OW72698   6.056   2.313   3.571 -0.2502 -0.2325 -0.5265
53658SOL    HW172699   6.104   2.235   3.598  0.4670 -0.6607 -2.7848
53658SOL    HW272700   5.975   2.310   3.621  0.1331 -1.9586  0.0625
53659SOL     OW72701   8.165   9.984   0.545 -0.3406 -0.4976 -0.8540
53659SOL    HW172702   8.077  10.017   0.562 -0.0359  0.2002 -0.6217
53659SOL    HW272703   8.151   9.902   0.497 -1.1433 -1.1012  0.3639
53660SOL     OW72704   0.884   9.467   7.533 -0.2773  0.0686  0.1829
53660SOL    HW172705   0.827   9.440   7.461  0.3523 -1.5636  0.2699
53660SOL    HW272706   0.972   9.445   7.505  0.1532  0.9655  0.7743
53661SOL     OW72707   1.307  10.951   3.337  1.0155  0.3723  0.0905
53661SOL    HW172708   1.261  10.961   3.420  0.9891 -1.5914  0.3701
53661SOL    HW272709   1.349  10.865   3.344  1.3183  0.3351 -1.7912
53662SOL     OW72710  13.291  13.091  10.363  0.2231  0.8634 -0.2293
53662SOL    HW172711  13.341  13.156  10.413  1.5478  0.3114 -0.7721
53662SOL    HW272712  13.226  13.058  10.425  0.3699  1.7710  0.4365
53663SOL     OW72713  11.558   9.136   5.205  0.2546  0.0803  0.4794
53663SOL    HW172714  11.589   9.085   5.130 -0.1578 -0.7114  0.8363
53663SOL    HW272715  11.510   9.073   5.259 -0.4110  0.8867  0.8524
53664SOL     OW72716   6.847  10.448   1.245 -0.0278  0.7311 -0.6668
53664SOL    HW172717   6.795  10.439   1.165  0.3016  0.4342 -0.8532
53664SOL    HW272718   6.836  10.539   1.272  1.3355  1.3752 -2.0909
53665SOL     OW72719   9.411   7.751   2.496 -0.2315  0.3757  0.8620
53665SOL    HW172720   9.401   7.841   2.525  0.6315  0.7436  0.0768
53665SOL    HW272721   9.362   7.699   2.560 -1.1023  1.4299  1.0760
53666SOL     OW72722  13.418  10.053   5.470 -0.3677  0.2890  0.5006
53666SOL    HW172723  13.358  10.041   5.544  0.1067 -0.0793  0.8335
53666SOL    HW272724  13.392  10.136   5.431 -2.3098 -0.7112 -0.4948
53667SOL     OW72725   6.907  13.099   6.098  0.4073  0.2926 -0.0201
53667SOL    HW172726   6.870  13.041   6.031  2.2444  0.0309 -0.9003
53667SOL    HW272727   6.859  13.078   6.178 -0.0386 -1.3430 -0.6648
53668SOL     OW72728  11.149   0.713   8.270 -0.2106 -0.2550 -0.3235
53668SOL    HW172729  11.238   0.715   8.235  0.0082  1.9952  0.2342
53668SOL    HW272730  11.155   0.658   8.348  0.3517 -1.2677 -1.0480
53669SOL     OW72731   1.449   4.533   9.170  0.0913  0.1073  0.1119
53669SOL    HW172732   1.410   4.530   9.258 -3.3102  0.1817 -1.2437
53669SOL    HW272733   1.477   4.624   9.159  1.4678 -0.1153  1.4005
53670SOL     OW72734   5.368   7.267   4.915 -0.1019  1.0032 -0.5437
53670SOL    HW172735   5.279   7.275   4.950  0.1850  0.5958  0.3197
53670SOL    HW272736   5.406   7.196   4.966  0.1989  0.0727 -2.0147
53671SOL     OW72737   1.793   5.923   1.175 -0.4198  0.4860 -0.2963
53671SOL    HW172738   1.718   5.967   1.216  0.1944  1.1023  0.1783
53671SOL    HW272739   1.802   5.967   1.091 -1.2870 -0.3565 -0.8548
53672SOL     OW72740   7.410   1.960  12.337  0.0430  0.4763 -0.0770
53672SOL    HW172741   7.469   1.932  12.407 -0.4153 -1.0066 -0.2556
53672SOL    HW272742   7.323   1.932  12.366 -0.3020  0.8276 -0.7530
53673SOL     OW72743  13.530   1.611  10.368  0.0126  0.3527  0.4250
53673SOL    HW172744  13.481   1.614  10.286 -0.3453 -2.3048  0.4507
53673SOL    HW272745  13.473   1.654  10.432 -0.5248  0.8089 -0.3506
53674SOL     OW72746   4.309   3.930   9.813 -0.0737 -0.0887  0.3442
53674SOL    HW172747   4.393   3.905   9.775  0.1787  0.7469  0.3246
53674SOL    HW272748   4.256   3.850   9.810  1.4666 -1.3315  2.4759
53675SOL     OW72749  11.450   6.723   8.722 -0.6852 -1.0303 -0.2412
53675SOL    HW172750  11.456   6.807   8.677 -1.5499 -0.3523  0.8323
53675SOL    HW272751  11.540   6.699   8.740 -0.4009 -0.6391 -1.1034
53676SOL     OW72752   3.402  11.038   5.322 -0.3330  0.3495  0.4969
53676SOL    HW172753   3.442  11.004   5.242  1.0378  3.0551 -0.0992
53676SOL    HW272754   3.458  11.005   5.393  0.4439  0.6230  0.0273
53677SOL     OW72755  12.040   0.320  12.192 -0.4666  0.7000 -0.4986
53677SOL    HW172756  12.012   0.348  12.105 -1.8157  0.1376 -0.2740
53677SOL    HW272757  12.045   0.401  12.243 -1.3497  0.8641 -0.6568
53678SOL     OW72758   9.890   1.015   3.281  0.4388 -0.0769 -0.1101
53678SOL    HW172759   9.895   0.957   3.357 -0.7770 -1.5256 -1.0727
53678SOL    HW272760   9.952   0.978   3.218 -1.0218 -0.9523 -1.0881
53679SOL     OW72761   8.659  13.410  10.363 -0.6452  0.1151  0.5950
53679SOL    HW172762   8.623  13.340  10.308 -0.2000  1.1779 -1.1303
53679SOL    HW272763   8.742  13.433  10.321 -0.2669  0.9343  1.7629
53680SOL     OW72764   1.216   0.892   7.315  0.2378  0.1125 -0.2008
53680SOL    HW172765   1.211   0.816   7.374  0.0625  0.6530  0.4974
53680SOL    HW272766   1.126   0.925   7.312  0.5808  1.2100  0.7580
53681SOL     OW72767   4.523   1.757   5.686  0.0510  0.6546  0.4561
53681SOL    HW172768   4.429   1.735   5.686 -0.0849  1.1056 -1.3554
53681SOL    HW272769   4.535   1.810   5.607  1.9073  0.3195  0.4828
53682SOL     OW72770   4.682  12.009  11.042  0.2000  0.3899 -0.3566
53682SOL    HW172771   4.655  12.046  11.126  0.7439  0.3301 -0.1528
53682SOL    HW272772   4.602  12.010  10.989 -0.7505 -1.7661  0.9273
53683SOL     OW72773   7.284   2.563   3.493  0.1336  0.1655  0.0276
53683SOL    HW172774   7.359   2.518   3.532  2.1113  1.4511 -2.0695
53683SOL    HW272775   7.237   2.495   3.446  0.6974 -0.4459  0.3326
53684SOL     OW72776  13.664   1.462   3.385  0.3780 -0.4405 -0.5206
53684SOL    HW172777  13.650   1.438   3.477 -1.6854  0.8147 -0.4352
53684SOL    HW272778  13.648   1.381   3.337 -1.9253 -0.4031  0.0505
53685SOL     OW72779  11.267   5.196  11.827  0.3157  0.4281  0.2218
53685SOL    HW172780  11.360   5.213  11.841  0.1508  2.3254 -0.7594
53685SOL    HW272781  11.231   5.280  11.797 -1.5118 -0.5330 -0.4205
53686SOL     OW72782   1.674   6.797   3.820 -0.2817 -0.2625 -0.2707
53686SOL    HW172783   1.752   6.853   3.819  0.3477 -1.0493  1.1916
53686SOL    HW272784   1.708   6.708   3.817 -1.1282 -0.6147  0.2362
53687SOL     OW72785   1.114  10.604   0.576  0.0046  0.5586  0.1037
53687SOL    HW172786   1.165  10.570   0.649 -0.5130 -0.2018  0.1203
53687SOL    HW272787   1.169  10.591   0.499 -0.4112 -0.9157  0.0164
53688SOL     OW72788   9.396  10.779   4.858  0.6399 -0.2529  1.1153
53688SOL    HW172789   9.473  10.755   4.909  2.1931 -0.9621 -1.3804
53688SOL    HW272790   9.396  10.717   4.784 -0.5536  1.6629 -0.5854
53689SOL     OW72791   0.529  10.013  12.462  0.2043 -0.0842  0.1999
53689SOL    HW172792   0.503  10.061  12.383  1.2616 -4.0381 -2.8564
53689SOL    HW272793   0.450   9.967  12.489 -0.3128  1.7025  1.9820
53690SOL     OW72794   2.913   2.455   2.194  0.3082  0.2557 -0.2189
53690SOL    HW172795   2.925   2.435   2.101  1.8179 -0.9034  0.1739
53690SOL    HW272796   2.995   2.426   2.235 -0.4088  0.5507  1.5064
53691SOL     OW72797   1.076  11.366   9.431 -0.4186 -0.1006 -0.2285
53691SOL    HW172798   1.162  11.324   9.422 -0.6741 -1.5623  2.7161
53691SOL    HW272799   1.094  11.446   9.482 -0.8376 -0.9370  1.3067
53692SOL     OW72800  12.671  12.280   3.683  0.0877 -0.1775  0.3080
53692SOL    HW172801  12.752  12.307   3.639  0.9647  1.6420  2.8502
53692SOL    HW272802  12.679  12.184   3.688  0.8953 -0.2657 -1.5762
53693SOL     OW72803   8.760  11.609   4.221 -0.2720 -0.4688  0.2953
53693SOL    HW172804   8.742  11.673   4.289 -0.0273  0.4223 -0.4478
53693SOL    HW272805   8.850  11.627   4.194  0.4577 -2.3218  1.3002
53694SOL     OW72806   6.060  12.344   8.820  0.2793  0.2838  0.7135
53694SOL    HW172807   6.139  12.311   8.861 -1.0053 -3.7396  0.3684
53694SOL    HW272808   6.089  12.382   8.737  1.8766 -0.7758  0.7586
53695SOL     OW72809   6.087   8.865   4.317 -0.4964  0.3028 -0.1982
53695SOL    HW172810   6.095   8.784   4.267 -0.4168  1.3093 -1.8587
53695SOL    HW272811   6.064   8.835   4.405  0.7451 -1.5881 -0.4403
53696SOL     OW72812  10.992  11.488   5.798 -0.3036  0.1388  0.1707
53696SOL    HW172813  10.931  11.434   5.849 -1.6069 -0.4789 -1.9500
53696SOL    HW272814  11.055  11.426   5.763  0.0874  0.4456  0.3314
53697SOL     OW72815   8.151   7.964   0.536 -0.2422  0.0656  0.0039
53697SOL    HW172816   8.108   7.892   0.582  0.6117 -0.6945 -0.3709
53697SOL    HW272817   8.244   7.955   0.557  0.1760 -0.2955 -1.8282
53698SOL     OW72818   5.914   5.348   7.057 -0.3216  0.0317 -0.0243
53698SOL    HW172819   5.894   5.434   7.094 -1.1223  0.0981 -0.5675
53698SOL    HW272820   5.829   5.314   7.029 -0.1747 -1.4045  1.1331
53699SOL     OW72821  13.371   3.082  13.564 -0.1299  0.0026 -0.2115
53699SOL    HW172822  13.419   3.008  13.603 -2.0688 -0.5150  1.3510
53699SOL    HW272823  13.386   3.154  13.625 -1.0491 -0.0781  0.1190
53700SOL     OW72824  13.067   7.080   0.151  0.2329  0.2725  0.5665
53700SOL    HW172825  13.021   7.102   0.232  0.6614 -1.0029  1.1777
53700SOL    HW272826  13.143   7.030   0.179  0.5613  0.0720 -0.6156
53701SOL     OW72827   2.168   7.558   4.813 -0.2214  0.3084  0.1711
53701SOL    HW172828   2.194   7.550   4.905  1.0427  0.8976 -0.1055
53701SOL    HW272829   2.188   7.649   4.791 -2.8509  0.9063 -0.0313
53702SOL     OW72830  13.072   5.199  12.248  0.1512 -0.1268 -0.1227
53702SOL    HW172831  13.066   5.294  12.239 -1.2595 -0.2091 -0.1697
53702SOL    HW272832  12.998   5.175  12.303 -0.8421 -1.4132 -1.9087
53703SOL     OW72833   7.390  11.916   8.407 -0.1012 -0.5837  0.2864
53703SOL    HW172834   7.359  11.830   8.437 -1.5298 -0.0248  0.5000
53703SOL    HW272835   7.436  11.898   8.325 -0.6001 -1.5265  0.1955
53704SOL     OW72836   6.406   0.266   7.884 -0.0395  0.3803  0.1060
53704SOL    HW172837   6.499   0.246   7.869  0.9275  3.0184  1.7986
53704SOL    HW272838   6.373   0.191   7.934  0.6479 -1.3801 -1.9121
53705SOL     OW72839   0.427   7.983   6.607 -1.1286  0.3700 -0.2889
53705SOL    HW172840   0.339   7.968   6.573 -1.1544  1.2822 -0.6386
53705SOL    HW272841   0.415   7.995   6.701 -1.2744 -0.2915 -0.2143
53706SOL     OW72842   2.591   2.690  12.853  0.1709 -0.1734 -0.3376
53706SOL    HW172843   2.587   2.596  12.870 -0.4527 -0.3643 -1.4485
53706SOL    HW272844   2.610   2.697  12.760 -0.0342  0.8040 -0.3173
53707SOL     OW72845  12.051  10.516  12.860  0.0613  0.0711  0.5978
53707SOL    HW172846  12.108  10.497  12.786  1.0151 -0.0447  1.3388
53707SOL    HW272847  12.092  10.472  12.934  0.4257  2.0802  1.6747
53708SOL     OW72848   1.840  10.706  12.581  0.4467 -0.1846 -0.0409
53708SOL    HW172849   1.784  10.646  12.532  1.3427 -1.4179  0.4191
53708SOL    HW272850   1.898  10.744  12.516 -0.4287  0.5854 -0.4083
53709SOL     OW72851   9.778   9.033   7.768  0.4221  0.0653  0.1448
53709SOL    HW172852   9.838   9.107   7.758  0.1651  0.5304  1.7116
53709SOL    HW272853   9.713   9.046   7.699  2.1752 -0.5625 -1.7289
53710SOL     OW72854   3.297   7.905   9.719  0.4830 -0.3779 -0.1656
53710SOL    HW172855   3.360   7.969   9.686  0.3200  0.8841  1.8104
53710SOL    HW272856   3.245   7.953   9.782  0.0299 -2.3575  1.0626
53711SOL     OW72857  10.107   4.081  12.616  0.2072  0.4340 -0.4468
53711SOL    HW172858  10.065   4.113  12.537  1.2328  1.2441 -0.6853
53711SOL    HW272859  10.038   4.081  12.682 -0.3188  1.0959 -0.9901
53712SOL     OW72860  13.561   6.545  10.469  0.3668  0.2070 -0.0510
53712SOL    HW172861  13.526   6.488  10.538 -0.7208  0.2475 -0.5519
53712SOL    HW272862  13.654   6.524  10.465 -0.0164 -1.5324 -0.2311
53713SOL     OW72863  10.161   5.616   0.595  0.3141  0.6618 -0.1347
53713SOL    HW172864  10.148   5.659   0.510 -1.0092  2.8808  1.0842
53713SOL    HW272865  10.072   5.599   0.626  0.7791 -2.6269 -0.2871
53714SOL     OW72866   8.807  12.343   1.283 -0.2359  0.3351  0.2931
53714SOL    HW172867   8.854  12.422   1.253  1.2164 -0.7577 -0.4545
53714SOL    HW272868   8.730  12.339   1.227 -0.4709  1.3654  0.5179
53715SOL     OW72869   8.223   8.099  13.440  0.1529  0.8554 -0.3913
53715SOL    HW172870   8.274   8.082  13.360 -0.5911 -1.9393 -0.3832
53715SOL    HW272871   8.165   8.171  13.417 -1.3947 -1.0774 -3.1378
53716SOL     OW72872   4.888   5.904   7.622  0.2491 -0.4438  0.1807
53716SOL    HW172873   4.922   5.817   7.644  1.0479 -0.5493 -1.3451
53716SOL    HW272874   4.957   5.964   7.651  1.0578 -0.5476 -1.4304
53717SOL     OW72875  10.288   8.742   3.572 -0.2488  0.0921  0.0139
53717SOL    HW172876  10.380   8.754   3.550 -0.3516  0.2339 -0.3570
53717SOL    HW272877  10.279   8.780   3.659 -0.2470  1.3973 -0.5198
53718SOL     OW72878  10.941   3.433   6.073 -0.0181  0.4537  0.4319
53718SOL    HW172879  10.985   3.462   5.993  1.0014 -3.2014 -0.4913
53718SOL    HW272880  10.855   3.402   6.044 -0.4469  0.9441  1.1221
53719SOL     OW72881  10.890   1.797  11.875  0.5576  0.0452  0.2070
53719SOL    HW172882  10.971   1.831  11.912  1.8697 -1.0812 -1.4661
53719SOL    HW272883  10.876   1.849  11.795 -0.7824  0.7001  0.8339
53720SOL     OW72884   0.085   7.656  11.001  0.2494 -0.1279  0.2972
53720SOL    HW172885   0.001   7.624  11.033  0.9795 -0.1407  2.3752
53720SOL    HW272886   0.150   7.604  11.048  1.4318 -0.1376 -1.2794
53721SOL     OW72887  11.497  12.680  10.223  0.4605 -0.0599 -0.0551
53721SOL    HW172888  11.460  12.654  10.307 -0.0325  0.9982  0.0698
53721SOL    HW272889  11.422  12.684  10.164  0.5611  0.7385 -0.1440
53722SOL     OW72890   0.051   7.369   4.962  0.1490  0.2315 -0.2579
53722SOL    HW172891   0.017   7.352   5.050  0.7917  2.0266  0.3903
53722SOL    HW272892   0.146   7.372   4.974  0.2552  0.2165 -1.0628
53723SOL     OW72893   5.275   2.523   0.647 -0.3333 -0.6194 -0.5720
53723SOL    HW172894   5.233   2.603   0.615 -0.4854 -0.3757  0.2158
53723SOL    HW272895   5.367   2.533   0.622 -0.1884  0.1886  0.2296
53724SOL     OW72896  12.236   9.274   3.837  0.0507  0.5322 -0.0593
53724SOL    HW172897  12.250   9.340   3.906 -0.4198 -0.0183  0.5707
53724SOL    HW272898  12.154   9.300   3.795  0.9916  1.6258 -1.3088
53725SOL     OW72899  10.519  13.023   5.589  0.4789  0.1614  0.7313
53725SOL    HW172900  10.459  13.093   5.562 -0.5916 -1.1520 -0.4436
53725SOL    HW272901  10.571  13.004   5.512  2.2346  1.0265  1.6371
53726SOL     OW72902   2.631   7.381  10.310 -0.6443 -0.3077  0.2252
53726SOL    HW172903   2.604   7.379  10.402 -0.6752 -1.3218  0.2023
53726SOL    HW272904   2.632   7.290  10.283  0.7061 -0.1344 -0.4008
53727SOL     OW72905   8.117   7.835   5.709  0.5989 -0.1727  0.1057
53727SOL    HW172906   8.107   7.815   5.802  0.1791  1.5156  0.4690
53727SOL    HW272907   8.059   7.910   5.695  0.3489 -0.6448 -1.6177
53728SOL     OW72908   4.302  13.017  10.129  0.1536  0.0905  0.4142
53728SOL    HW172909   4.362  13.008  10.202  0.6619 -0.3457 -0.0471
53728SOL    HW272910   4.337  12.960  10.061  0.0230  0.9145 -0.3791
53729SOL     OW72911  13.561   2.058   9.488  0.1449 -0.0396  0.2950
53729SOL    HW172912  13.632   2.118   9.511 -0.9493  0.6173  2.1429
53729SOL    HW272913  13.497   2.068   9.558 -2.3632  0.3215 -1.8724
53730SOL     OW72914   3.121   4.713   5.471 -0.4203  0.4167 -0.2351
53730SOL    HW172915   3.062   4.686   5.401  0.0792  1.3190 -1.0251
53730SOL    HW272916   3.199   4.659   5.460 -0.4130  0.4322 -0.2613
53731SOL     OW72917  12.764   7.842  12.127  0.2733  0.1247  0.1281
53731SOL    HW172918  12.793   7.886  12.208 -0.3746  1.1164 -0.1636
53731SOL    HW272919  12.836   7.782  12.106  0.2159 -0.5760  1.7445
53732SOL     OW72920  12.850   9.516  11.293  0.5669  0.1566 -0.2730
53732SOL    HW172921  12.919   9.558  11.345  1.7302 -1.5402 -0.3646
53732SOL    HW272922  12.889   9.505  11.206  0.1384 -0.7143 -0.3638
53733SOL     OW72923  13.082  12.105  11.210  0.4793 -0.0945  0.2293
53733SOL    HW172924  12.996  12.122  11.249  1.1536  1.3166  1.1969
53733SOL    HW272925  13.115  12.029  11.256  0.4794  0.4325  1.1250
53734SOL     OW72926   0.452   9.420   9.564  0.0733  0.2918  0.2490
53734SOL    HW172927   0.439   9.475   9.641  0.0081  0.5609  0.0459
53734SOL    HW272928   0.495   9.477   9.501  0.0053  0.1088  0.0369
53735SOL     OW72929  12.672   6.330   4.352 -0.0081 -0.5413 -0.1735
53735SOL    HW172930  12.653   6.243   4.318 -2.2685  0.5961 -2.1765
53735SOL    HW272931  12.730   6.369   4.286 -0.8244  0.1953 -0.4697
53736SOL     OW72932  11.283   8.655   8.716  0.1291 -0.3842  0.3686
53736SOL    HW172933  11.284   8.674   8.622  2.7169 -0.1596  0.3891
53736SOL    HW272934  11.190   8.650   8.738 -0.5490  0.5692 -1.9880
53737SOL     OW72935   9.257   0.580   6.526 -0.5264  0.4091  0.0815
53737SOL    HW172936   9.171   0.604   6.560 -0.8111  0.3761 -0.6063
53737SOL    HW272937   9.301   0.664   6.513 -1.1784  0.5396 -1.4289
53738SOL     OW72938   7.271   1.025  12.016  0.1545 -0.0514  0.0861
53738SOL    HW172939   7.212   0.989  12.082 -0.8924  1.0120 -0.2284
53738SOL    HW272940   7.359   1.000  12.046 -0.3739 -0.7020  1.1662
53739SOL     OW72941   7.882   4.179   2.159 -0.4176  0.4608 -0.2028
53739SOL    HW172942   7.972   4.148   2.152 -0.7998 -1.2584  1.6404
53739SOL    HW272943   7.851   4.185   2.069  1.6468  1.4939 -0.8852
53740SOL     OW72944   6.020  12.242   8.001 -0.7221  0.0477  0.0534
53740SOL    HW172945   5.980  12.217   8.084 -0.8816  0.8203  0.2148
53740SOL    HW272946   6.107  12.274   8.025 -0.0375 -1.4459 -0.2776
53741SOL     OW72947   7.462   1.224   5.307 -0.5547 -0.0400 -0.1191
53741SOL    HW172948   7.421   1.169   5.375  0.5720 -1.1543 -0.3128
53741SOL    HW272949   7.554   1.230   5.333 -0.3223  0.3725 -1.0061
53742SOL     OW72950   0.538   0.947   7.332 -0.7215  0.1844 -0.2148
53742SOL    HW172951   0.446   0.937   7.308 -1.0446  1.6784  0.2366
53742SOL    HW272952   0.586   0.909   7.259 -1.6941  0.1967 -0.8881
53743SOL     OW72953   2.681   0.923   0.505  0.2492 -0.4481 -0.4098
53743SOL    HW172954   2.753   0.984   0.521  1.2006 -1.6606  0.1640
53743SOL    HW272955   2.641   0.953   0.424  1.2893  0.3639 -0.6448
53744SOL     OW72956   0.977  13.681   6.695  0.4512  0.2333  0.3392
53744SOL    HW172957   0.941  13.762   6.730  1.9349 -0.4399  3.8327
53744SOL    HW272958   0.944  13.613   6.754  0.9137 -1.4351 -1.2509
53745SOL     OW72959   8.835   4.213   0.782  0.7273  0.2344 -0.2532
53745SOL    HW172960   8.860   4.195   0.691 -2.2800  0.5295 -1.2350
53745SOL    HW272961   8.900   4.277   0.812  1.4960  0.5462 -2.3775
53746SOL     OW72962   2.051   7.943   2.112 -0.1745 -0.0233 -0.1535
53746SOL    HW172963   2.061   7.898   2.196  2.1541  0.1831 -0.2491
53746SOL    HW272964   2.083   7.880   2.047 -3.2355 -0.7184 -1.1432
53747SOL     OW72965   0.667  10.859   0.572 -0.2247  0.8358  0.3147
53747SOL    HW172966   0.732  10.908   0.521 -0.3212 -0.7359 -1.4373
53747SOL    HW272967   0.711  10.777   0.593 -1.6656 -0.3826 -1.1604
53748SOL     OW72968  10.999   5.805   9.681  0.3214 -0.3699  0.1617
53748SOL    HW172969  10.939   5.764   9.743  2.1025 -1.0521  1.4983
53748SOL    HW272970  11.059   5.856   9.735  1.0258  0.2152 -1.1215
53749SOL     OW72971   3.262   9.919  11.505 -0.7052 -0.4580  0.2720
53749SOL    HW172972   3.344   9.900  11.551 -1.1522 -1.4086  0.7172
53749SOL    HW272973   3.255  10.014  11.508  1.8346 -0.0568 -2.3561
53750SOL     OW72974  10.300  13.270   3.387  0.1171  0.2123  0.5535
53750SOL    HW172975  10.320  13.240   3.299 -0.4658  0.1693  0.4337
53750SOL    HW272976  10.207  13.291   3.385  0.2290  0.7861  0.9922
53751SOL     OW72977   9.242   9.244   6.029 -0.5483  0.6161 -0.1258
53751SOL    HW172978   9.270   9.317   5.975 -0.4547  1.2763  0.7814
53751SOL    HW272979   9.306   9.175   6.011  0.4094  1.3632  0.2845
53752SOL     OW72980   9.113  10.367   2.378  0.4381  0.4234  0.3091
53752SOL    HW172981   9.062  10.372   2.458 -0.4468  0.5640 -0.2577
53752SOL    HW272982   9.183  10.305   2.398 -1.0208 -1.2121  0.4991
53753SOL     OW72983  11.880   7.484   3.459 -0.1623 -0.4445  0.3984
53753SOL    HW172984  11.852   7.552   3.520  2.9449  1.7158 -0.3598
53753SOL    HW272985  11.893   7.406   3.513 -1.3257  0.2505  1.7338
53754SOL     OW72986  13.626   5.310   3.740 -0.7917  0.0183  0.4327
53754SOL    HW172987  13.660   5.381   3.687 -1.2248 -0.0399  0.0661
53754SOL    HW272988  13.617   5.348   3.828 -2.7612  1.0078 -0.1362
53755SOL     OW72989   4.305   0.340   9.179 -0.4822 -0.5694  0.6498
53755SOL    HW172990   4.319   0.269   9.117 -1.6077  0.8783 -1.4048
53755SOL    HW272991   4.381   0.397   9.168 -0.8140 -0.1724  0.3808
53756SOL     OW72992   9.519   3.100   5.668 -0.2802 -0.4342 -0.7846
53756SOL    HW172993   9.550   3.155   5.740  0.7625  0.1253 -1.6217
53756SOL    HW272994   9.599   3.066   5.628 -0.8332 -0.7662 -1.6422
53757SOL     OW72995   1.155   1.781  12.969 -0.0225 -0.0285  0.6061
53757SOL    HW172996   1.186   1.815  12.885  1.5658 -2.3284  0.1688
53757SOL    HW272997   1.233   1.782  13.025 -0.3818 -1.0771  1.1579
53758SOL     OW72998   8.140  10.552   2.496  0.0414  0.1122 -0.5324
53758SOL    HW172999   8.081  10.606   2.443 -1.6035 -2.3652 -1.4097
53758SOL    HW273000   8.147  10.599   2.579 -0.9126  1.8761 -1.3869
53759SOL     OW73001  10.054  12.718   6.717  0.1746  0.4468  0.1674
53759SOL    HW173002  10.084  12.746   6.803  2.0483 -2.4056  0.5452
53759SOL    HW273003   9.958  12.719   6.724  0.2697  1.0814  1.9615
53760SOL     OW73004   6.933   8.832  10.620  0.2468 -0.1775  0.3076
53760SOL    HW173005   6.890   8.748  10.636 -1.5211  0.5980 -0.1040
53760SOL    HW273006   6.919   8.848  10.527 -0.0960  0.8940  0.5273
53761SOL     OW73007   2.962  11.407   5.127 -0.4632  0.3730 -0.2645
53761SOL    HW173008   3.053  11.437   5.130 -0.4842  0.4868 -0.7014
53761SOL    HW273009   2.928  11.425   5.215 -0.2146  0.8108 -0.2542
53762SOL     OW73010  10.681   0.318   8.012  0.1831  0.6250 -0.1141
53762SOL    HW173011  10.601   0.290   8.055  0.4013 -1.8566 -1.1807
53762SOL    HW273012  10.652   0.382   7.946 -0.6366  1.2253  0.8077
53763SOL     OW73013   0.228  11.723   4.351  0.1139  0.2020  0.1305
53763SOL    HW173014   0.277  11.715   4.433  0.1984  1.9111  0.2672
53763SOL    HW273015   0.281  11.674   4.288  0.6668 -0.1198  0.8202
53764SOL     OW73016   5.924   0.168   5.256 -0.2484  0.1751 -0.3447
53764SOL    HW173017   5.946   0.075   5.257 -0.4132  0.1380 -0.1905
53764SOL    HW273018   5.849   0.175   5.198  0.1511  0.2996 -0.8521
53765SOL     OW73019  11.462   1.946   7.419  0.4246 -1.2863 -0.5025
53765SOL    HW173020  11.401   1.901   7.478 -0.2042 -0.3474 -0.4203
53765SOL    HW273021  11.428   1.929   7.332  0.5750 -1.5289 -0.5152
53766SOL     OW73022   9.166   8.664   5.435 -0.1085  0.5540  0.4007
53766SOL    HW173023   9.208   8.737   5.480  1.0041  0.5940 -0.6700
53766SOL    HW273024   9.227   8.591   5.446 -0.3299  0.2839 -0.1290
53767SOL     OW73025   3.044   6.699  12.716 -0.4078 -0.2875  0.8260
53767SOL    HW173026   2.962   6.669  12.756  0.5525 -1.3527  2.1056
53767SOL    HW273027   3.029   6.792  12.698 -1.6039 -0.2485  1.8386
53768SOL     OW73028   6.294  10.640   3.433 -0.1265  0.8606  0.1022
53768SOL    HW173029   6.361  10.698   3.470  0.0581  0.4526  0.4098
53768SOL    HW273030   6.286  10.668   3.342  0.6673  0.7149 -0.0152
53769SOL     OW73031  11.038   9.259   4.475  0.2355  0.0300  0.4708
53769SOL    HW173032  11.110   9.229   4.418  0.5495  0.0857  0.8370
53769SOL    HW273033  11.031   9.191   4.542 -0.7083 -0.4739 -0.1155
53770SOL     OW73034   8.772   7.292   3.529  0.1391  0.5665  0.2956
53770SOL    HW173035   8.738   7.230   3.465  0.4873  0.8357 -0.1551
53770SOL    HW273036   8.813   7.238   3.597 -0.1682  0.2852  0.2563
53771SOL     OW73037   5.408   5.025   2.539 -0.4148  0.1882 -0.0219
53771SOL    HW173038   5.414   4.970   2.461 -1.1725  0.4380 -0.2723
53771SOL    HW273039   5.499   5.042   2.564 -0.1655 -0.1887 -0.6430
53772SOL     OW73040   6.990   5.347   5.098  0.6416 -0.4298  0.2139
53772SOL    HW173041   7.055   5.390   5.154 -0.2521 -0.0252  0.9785
53772SOL    HW273042   6.907   5.387   5.124  0.3302  0.7846 -2.3726
53773SOL     OW73043  11.888  11.381   5.599 -0.2043  0.5447  0.1934
53773SOL    HW173044  11.946  11.441   5.551 -1.1541  0.4014 -1.2035
53773SOL    HW273045  11.800  11.410   5.576 -0.6817 -0.4134  0.7611
53774SOL     OW73046   6.969   7.489  11.829 -0.2998  0.1758  0.2908
53774SOL    HW173047   6.886   7.536  11.824 -0.3354  0.1209  0.3715
53774SOL    HW273048   6.946   7.397  11.821 -0.2682  0.1468  0.5102
53775SOL     OW73049   0.399  10.637   1.605  0.2016  0.3012  0.2898
53775SOL    HW173050   0.378  10.729   1.624 -0.1615  0.1916  0.4211
53775SOL    HW273051   0.364  10.588   1.679 -0.3725 -0.0302 -0.1959
53776SOL     OW73052   8.699   2.346   6.445  0.4733  0.0323 -0.0274
53776SOL    HW173053   8.652   2.274   6.487 -1.5202  0.2705 -1.6980
53776SOL    HW273054   8.728   2.401   6.518 -3.0432  0.5741  1.1709
53777SOL     OW73055  10.305   7.660   5.145 -0.1055 -0.0744  0.9299
53777SOL    HW173056  10.349   7.685   5.064  1.0473 -1.2315  1.1701
53777SOL    HW273057  10.212   7.678   5.128  0.2156  0.4853 -0.3364
53778SOL     OW73058  13.462   5.225  10.930  0.2286 -0.0323 -0.1803
53778SOL    HW173059  13.374   5.221  10.968 -0.2443  1.1650 -1.1165
53778SOL    HW273060  13.521   5.207  11.004 -0.7789 -0.7427  0.4710
53779SOL     OW73061   1.131  10.713   3.828 -0.4052  0.6357  0.2291
53779SOL    HW173062   1.041  10.690   3.805 -1.0089  0.5577  2.4304
53779SOL    HW273063   1.184  10.668   3.762 -1.7295 -3.6693  1.7308
53780SOL     OW73064   9.016   3.827  12.879  0.0758  0.4353 -0.0130
53780SOL    HW173065   9.027   3.884  12.955  0.6877  0.5292 -0.1721
53780SOL    HW273066   8.968   3.751  12.912  0.0056  0.6505  0.3798
53781SOL     OW73067   2.744  13.485   0.215 -0.1465  0.0410  0.1816
53781SOL    HW173068   2.706  13.414   0.163 -0.6113 -0.4475  1.1500
53781SOL    HW273069   2.825  13.449   0.249  0.3597  0.4994 -0.5112
53782SOL     OW73070   0.652  13.185   3.133 -0.4476  0.4711 -0.3432
53782SOL    HW173071   0.612  13.264   3.169 -1.8451  0.0334 -0.8777
53782SOL    HW273072   0.593  13.114   3.157  0.4441 -0.3389 -0.4461
53783SOL     OW73073  10.446  13.003   6.696 -0.3780  0.0195 -0.0875
53783SOL    HW173074  10.430  12.912   6.722  2.2474 -0.3539  0.5090
53783SOL    HW273075  10.501  12.996   6.618  2.7764  0.9134  1.8566
53784SOL     OW73076  13.712   3.606   5.394  0.2661 -0.0083  0.2152
53784SOL    HW173077  13.763   3.535   5.356  1.0133  1.3989 -1.5682
53784SOL    HW273078  13.712   3.674   5.326 -0.3138  1.7423  1.8971
53785SOL     OW73079   6.464   9.017   6.195 -0.3326  0.3688  0.1600
53785SOL    HW173080   6.437   9.050   6.109 -2.0921  2.5844  1.4287
53785SOL    HW273081   6.419   9.074   6.257 -1.6101 -3.0109  2.6423
53786SOL     OW73082   7.850  13.619   5.384 -0.1810 -0.4343 -0.3100
53786SOL    HW173083   7.810  13.688   5.330  1.2261  0.5726 -0.1361
53786SOL    HW273084   7.901  13.667   5.450  1.1784 -1.6403 -0.4307
53787SOL     OW73085   7.359  11.448   5.188 -0.2792  0.1904  0.3764
53787SOL    HW173086   7.282  11.495   5.219 -0.9483 -1.3328  1.1100
53787SOL    HW273087   7.358  11.461   5.093 -0.6470  1.3040  0.5145
53788SOL     OW73088   8.119  10.748   4.095  0.0610  0.4506  0.3761
53788SOL    HW173089   8.130  10.658   4.064 -0.5219 -0.0513  1.5742
53788SOL    HW273090   8.026  10.755   4.115 -0.1313  1.6858 -0.7288
53789SOL     OW73091   4.432   2.543   5.647 -0.1226  0.3694  0.2321
53789SOL    HW173092   4.432   2.627   5.602  0.2723 -0.6987 -1.8899
53789SOL    HW273093   4.500   2.552   5.714  0.9946  1.2735 -0.9518
53790SOL     OW73094   4.927  11.087   4.329  0.5096  0.4333 -0.2055
53790SOL    HW173095   4.881  11.109   4.249 -0.1665 -0.6896 -0.1428
53790SOL    HW273096   4.896  10.999   4.352  0.4243  0.8631  1.4623
53791SOL     OW73097   0.324   9.107   8.636  0.0289  0.0228  0.0195
53791SOL    HW173098   0.289   9.150   8.714  1.0644 -0.1655  0.6059
53791SOL    HW273099   0.268   9.030   8.624 -1.5139  1.2003 -0.7369
53792SOL     OW73100   9.833   5.705  10.977  0.0608  0.2092 -0.4444
53792SOL    HW173101   9.779   5.635  10.942 -0.5510  0.9595 -1.0114
53792SOL    HW273102   9.781   5.785  10.967 -0.0761  0.5209  1.9561
53793SOL     OW73103  12.144   4.780   0.178 -0.4512 -0.0656 -0.2831
53793SOL    HW173104  12.139   4.725   0.099  0.5121 -0.8524  0.1907
53793SOL    HW273105  12.074   4.845   0.166  0.2344  0.3968 -2.2109
53794SOL     OW73106  13.171  12.611   5.432 -0.2295 -0.0680 -0.5623
53794SOL    HW173107  13.244  12.596   5.371 -1.2715  1.7740 -2.4117
53794SOL    HW273108  13.097  12.563   5.394 -0.7130  0.4978 -0.3518
53795SOL     OW73109   6.076   0.353   1.328  0.0611 -0.4983  0.3677
53795SOL    HW173110   6.118   0.415   1.388 -0.3874 -0.1550  0.3394
53795SOL    HW273111   6.106   0.380   1.241 -0.5935  0.0706  0.3018
53796SOL     OW73112  12.416   5.074  10.589 -0.1156  0.0405 -0.5490
53796SOL    HW173113  12.371   5.079  10.673 -2.6165  1.1844 -1.8560
53796SOL    HW273114  12.359   5.020  10.534  1.2766 -0.3749 -1.6481
53797SOL     OW73115   0.430   6.035  12.710 -0.1042  0.1837  0.0232
53797SOL    HW173116   0.506   5.997  12.752  0.7045 -0.2035 -1.6928
53797SOL    HW273117   0.445   6.130  12.713 -0.7110  0.2531  1.7245
53798SOL     OW73118  13.096   8.410   1.979 -0.6585 -0.1451  0.0546
53798SOL    HW173119  13.079   8.375   1.891 -0.4147  0.5948 -0.2951
53798SOL    HW273120  13.058   8.345   2.038 -1.9786 -0.0295 -0.6280
53799SOL     OW73121  12.530   0.598  12.878 -0.1457 -0.0628  0.5711
53799SOL    HW173122  12.592   0.612  12.950 -1.0680 -1.5259  1.7297
53799SOL    HW273123  12.447   0.579  12.922 -0.3892 -2.6073 -0.7932
53800SOL     OW73124   4.884  12.444   0.496 -0.7673 -0.0622  0.5294
53800SOL    HW173125   4.971  12.407   0.506 -0.1595  0.9952 -0.4861
53800SOL    HW273126   4.836  12.381   0.441  0.6015  1.0493 -2.1426
53801SOL     OW73127   8.338  11.103  13.608  0.4169  0.0466 -0.3436
53801SOL    HW173128   8.308  11.028  13.557 -2.2750  1.4568 -1.0499
53801SOL    HW273129   8.282  11.104  13.686  1.1965  0.6833  0.2348
53802SOL     OW73130   3.761  11.943   3.207  0.1408 -0.1367  0.6400
53802SOL    HW173131   3.772  12.006   3.277  2.5491 -1.3200  1.4356
53802SOL    HW273132   3.708  11.988   3.141 -1.3956  1.3165  2.7736
53803SOL     OW73133  11.162   7.709  13.129 -0.2202 -0.2001 -0.1569
53803SOL    HW173134  11.080   7.730  13.173 -0.6797  0.8376 -1.4236
53803SOL    HW273135  11.135   7.690  13.039  0.8559 -0.5902 -0.4018
53804SOL     OW73136   9.900   0.509   4.918  0.5405 -0.3288  0.9284
53804SOL    HW173137   9.875   0.549   4.835  1.5313 -1.6791 -0.0638
53804SOL    HW273138   9.989   0.477   4.903 -0.2179 -2.9966  1.5697
53805SOL     OW73139   3.005  13.320   5.767 -0.1753  0.2785  0.0199
53805SOL    HW173140   2.926  13.321   5.713  0.2410 -0.3862 -0.6215
53805SOL    HW273141   3.071  13.363   5.714  1.0477 -2.9919 -1.3506
53806SOL     OW73142   7.174   1.257  10.238  0.0588 -0.6393  0.0746
53806SOL    HW173143   7.203   1.210  10.159 -0.6237 -1.8114  0.4973
53806SOL    HW273144   7.086   1.223  10.255  0.2334 -0.4792  1.3999
53807SOL     OW73145   7.718  10.336   6.399 -0.0099 -0.3810  0.0669
53807SOL    HW173146   7.762  10.271   6.454 -0.7131 -0.7093  0.2551
53807SOL    HW273147   7.762  10.418   6.419 -0.2375 -0.5011  1.1074
53808SOL     OW73148  13.685   3.558   1.912 -0.4065  0.3465  0.3609
53808SOL    HW173149  13.746   3.630   1.929  0.0421 -0.0342  0.4215
53808SOL    HW273150  13.614   3.596   1.862 -0.6433  1.0328  1.1939
53809SOL     OW73151  12.866   0.130  10.572  0.6558  0.7830  0.1573
53809SOL    HW173152  12.888   0.168  10.487 -0.2310  0.7686 -0.0898
53809SOL    HW273153  12.940   0.075  10.594  1.1981  1.3231 -0.2858
53810SOL     OW73154   8.697   4.472   9.950  0.0324  0.2450  0.0037
53810SOL    HW173155   8.670   4.563   9.962 -1.4483  0.0892 -1.6755
53810SOL    HW273156   8.752   4.474   9.872 -1.7156 -0.5179 -1.3311
53811SOL     OW73157   9.884   9.097  11.159  0.0139  0.0653 -0.0010
53811SOL    HW173158   9.949   9.137  11.101  0.3180 -0.0572  0.2517
53811SOL    HW273159   9.843   9.171  11.204 -1.0202  0.2427 -1.1912
53812SOL     OW73160   1.174   9.908   3.918  0.5647  0.3965  0.0405
53812SOL    HW173161   1.190  10.000   3.940  2.9946 -0.2718  1.4340
53812SOL    HW273162   1.261   9.872   3.900 -0.3520 -1.6020 -0.6282
53813SOL     OW73163   0.751   9.352   9.794 -0.0489 -0.3226  0.5898
53813SOL    HW173164   0.791   9.439   9.802  0.8757 -0.7316  0.5431
53813SOL    HW273165   0.767   9.328   9.703 -1.3254 -0.0676  0.2820
53814SOL     OW73166   8.185   0.922   9.844 -0.0715  0.0108  0.0028
53814SOL    HW173167   8.205   0.856   9.910  0.4368 -0.2559 -0.4087
53814SOL    HW273168   8.204   0.878   9.761 -1.0091  0.2348 -0.3351
53815SOL     OW73169   7.717  10.569   0.979 -0.2140 -0.0013 -0.3737
53815SOL    HW173170   7.736  10.572   1.073  0.8111  0.4526 -0.5745
53815SOL    HW273171   7.799  10.537   0.940 -0.0146  1.5149 -1.2601
53816SOL     OW73172   2.008   6.564   0.721 -0.1932 -0.0257 -0.0609
53816SOL    HW173173   1.916   6.584   0.740  0.1489 -0.0655  1.7623
53816SOL    HW273174   2.045   6.648   0.695 -0.7201 -0.0026 -0.7832
53817SOL     OW73175   1.870   3.698   5.427  0.3085 -0.4864 -0.1744
53817SOL    HW173176   1.947   3.755   5.423  0.5639 -0.8060  0.0375
53817SOL    HW273177   1.870   3.664   5.517  0.2790 -0.9735 -0.3518
53818SOL     OW73178   1.110  11.044   6.909  0.1107  0.2643  0.8593
53818SOL    HW173179   1.068  11.109   6.853  1.1887 -0.1194 -0.4451
53818SOL    HW273180   1.157  11.095   6.976  0.7152  0.8337  0.0122
53819SOL     OW73181   3.724   1.746  11.011  0.4132 -0.2299  0.6658
53819SOL    HW173182   3.794   1.706  11.063  0.4817  1.0809  1.6181
53819SOL    HW273183   3.674   1.671  10.978  0.2846 -1.1386  2.7358
53820SOL     OW73184   9.308  10.292   0.185  0.0055 -0.0180 -0.1150
53820SOL    HW173185   9.337  10.283   0.094  1.5873  0.3437  0.3263
53820SOL    HW273186   9.236  10.355   0.180 -1.7886 -2.0464 -1.4284
53821SOL     OW73187  12.196   2.138   3.661 -0.0585  0.1137 -0.3713
53821SOL    HW173188  12.126   2.102   3.715 -0.2275 -0.4133 -0.9361
53821SOL    HW273189  12.259   2.067   3.652  0.6165  0.6291  0.2409
53822SOL     OW73190   5.930   1.033  11.773 -0.4882  0.1478  0.2361
53822SOL    HW173191   5.853   1.088  11.783  0.8807  2.0856  0.5342
53822SOL    HW273192   5.954   1.008  11.862  0.3314  1.1685  0.3166
53823SOL     OW73193  12.748   4.489   2.370  0.0474 -0.5812 -0.6226
53823SOL    HW173194  12.731   4.491   2.276 -1.8858  0.5866 -0.3037
53823SOL    HW273195  12.710   4.407   2.400 -1.0710 -0.0922 -0.6240
53824SOL     OW73196   5.870   7.911  12.109 -0.7201 -0.4205  0.3561
53824SOL    HW173197   5.927   7.876  12.041 -0.6671 -1.3581  0.8665
53824SOL    HW273198   5.839   7.994  12.074 -2.1198 -1.6749 -1.6129
53825SOL     OW73199   4.489   5.964   9.401  0.1514  0.0329 -0.4655
53825SOL    HW173200   4.570   5.957   9.350  0.6155 -1.6125  0.4044
53825SOL    HW273201   4.462   6.055   9.392  1.3840  0.2988 -1.8537
53826SOL     OW73202   9.105   6.431   3.020 -0.0078  0.7260  0.0003
53826SOL    HW173203   9.196   6.409   3.042  0.0449  0.8882 -0.0529
53826SOL    HW273204   9.062   6.347   3.011  0.4702  0.5997 -1.4192
53827SOL     OW73205  12.297   3.104   3.627  0.4679  0.1216 -0.3257
53827SOL    HW173206  12.225   3.050   3.595  1.2354 -0.1634 -1.6475
53827SOL    HW273207  12.323   3.156   3.551  1.2032  0.7277  0.3228
53828SOL     OW73208   0.515   6.607  12.952 -0.0910  0.8298  0.5110
53828SOL    HW173209   0.486   6.698  12.954  0.5658  1.0386  0.8870
53828SOL    HW273210   0.479   6.572  12.870  0.2858  1.6403 -0.0129
53829SOL     OW73211  11.456   3.708   4.592 -0.1021 -0.8594  0.0598
53829SOL    HW173212  11.519   3.759   4.541  0.0703  0.2705  1.3229
53829SOL    HW273213  11.394   3.675   4.528  0.1275  0.4628 -0.8876
53830SOL     OW73214   8.389   0.758   4.166 -0.1776  0.4179  0.0860
53830SOL    HW173215   8.298   0.735   4.188  0.6233 -1.1768  2.0388
53830SOL    HW273216   8.435   0.759   4.250  2.3708 -2.4233 -1.0996
53831SOL     OW73217  12.853   8.824   4.238  0.2966 -0.0862 -0.0432
53831SOL    HW173218  12.907   8.753   4.271  0.3555 -0.2002 -0.3765
53831SOL    HW273219  12.779   8.828   4.298  0.6445  0.0304  0.3793
53832SOL     OW73220  11.714  11.015   8.989  0.3557  0.0379 -0.0843
53832SOL    HW173221  11.649  11.048   8.927  0.4149  0.4693  0.0787
53832SOL    HW273222  11.747  10.935   8.948  0.8047  0.6171 -0.8863
53833SOL     OW73223  11.053   4.945   9.904  0.0632  0.1058 -0.4842
53833SOL    HW173224  11.122   5.010   9.886 -0.2099  0.6365  0.3123
53833SOL    HW273225  11.096   4.861   9.893  0.6947  0.4283 -0.5531
53834SOL     OW73226   0.222  11.392   6.143  0.0475  0.5067  0.3146
53834SOL    HW173227   0.183  11.367   6.059  2.4643  0.1719 -0.7779
53834SOL    HW273228   0.203  11.318   6.200 -0.6422  0.2343 -0.2387
53835SOL     OW73229  11.909   0.658   2.737 -0.2823 -0.7157 -0.0733
53835SOL    HW173230  11.918   0.592   2.668  0.5468 -1.2276  0.5108
53835SOL    HW273231  11.966   0.627   2.808  0.1130  0.6123  0.2169
53836SOL     OW73232   5.967   5.225  10.443  0.4257  0.4777 -0.1199
53836SOL    HW173233   5.879   5.187  10.441  0.8938 -0.6887  0.4009
53836SOL    HW273234   6.015   5.178  10.375  0.8126  0.6922 -0.0002
53837SOL     OW73235  10.210   4.958   7.478 -0.5066  0.5514  0.2229
53837SOL    HW173236  10.160   4.878   7.460 -0.3563  0.5672 -0.2865
53837SOL    HW273237  10.300   4.937   7.454 -0.7456  1.3988 -1.6449
53838SOL     OW73238   4.403   2.454   6.369  0.3514 -0.1039 -0.3352
53838SOL    HW173239   4.395   2.414   6.455  1.2687  0.2132 -0.0924
53838SOL    HW273240   4.338   2.409   6.315 -1.6334  1.0117  0.9867
53839SOL     OW73241   8.763  11.669  11.275  0.0032 -0.4201 -0.4305
53839SOL    HW173242   8.857  11.652  11.265  0.7528  2.9294 -0.1527
53839SOL    HW273243   8.750  11.675  11.370 -0.0531  1.0086 -0.5129
53840SOL     OW73244   6.957  11.044   0.179  0.3864 -0.1726  0.6148
53840SOL    HW173245   7.036  11.016   0.134 -0.5301 -0.4051 -0.8992
53840SOL    HW273246   6.968  11.138   0.190  0.3339  0.0104 -0.7460
53841SOL     OW73247   0.722   0.452   5.494 -0.4814  0.0295 -0.0182
53841SOL    HW173248   0.695   0.403   5.572 -0.8873  0.6625  0.2394
53841SOL    HW273249   0.640   0.469   5.447 -0.4066  0.9035  0.1536
53842SOL     OW73250  10.342   5.570  11.293 -0.4142  1.3660 -0.2337
53842SOL    HW173251  10.328   5.562  11.198  1.2293  0.4070 -0.4287
53842SOL    HW273252  10.290   5.498  11.331  0.9767  0.0904 -0.6500
53843SOL     OW73253   5.231   5.514  11.457 -0.0225  0.2169 -0.1975
53843SOL    HW173254   5.163   5.483  11.516  0.5709  1.6169  1.3036
53843SOL    HW273255   5.211   5.474  11.373 -1.6345 -0.8300  0.6529
53844SOL     OW73256  12.224  12.068   1.941  0.2689 -0.5221  0.5990
53844SOL    HW173257  12.242  12.056   2.034 -0.7807 -1.0351  0.7518
53844SOL    HW273258  12.211  11.979   1.907  2.3285 -0.4936 -0.4278
53845SOL     OW73259  10.011  13.478   2.592 -0.0881  0.2262 -0.1882
53845SOL    HW173260  10.012  13.533   2.514  0.4234  1.5479  0.7169
53845SOL    HW273261   9.960  13.401   2.567  2.1732 -0.5949 -2.6099
53846SOL     OW73262  13.725   3.493   2.831  0.6219 -0.5825  0.6200
53846SOL    HW173263  13.736   3.544   2.910  0.7251  0.8582 -0.2938
53846SOL    HW273264  13.635   3.510   2.803  1.6280  1.9260 -1.5166
53847SOL     OW73265   9.994  11.579   6.573  0.2734 -0.1485  0.0740
53847SOL    HW173266  10.046  11.512   6.529 -1.1993 -1.2173 -0.1055
53847SOL    HW273267  10.048  11.606   6.647  0.0161 -3.2464  1.5599
53848SOL     OW73268   5.519   7.221   9.751 -0.0868  0.0235  0.4166
53848SOL    HW173269   5.599   7.175   9.778  0.2833  0.0831 -0.5376
53848SOL    HW273270   5.481   7.165   9.683 -0.4839  0.3375  0.3783
53849SOL     OW73271   4.123  11.490   0.266  0.6375 -0.0970 -0.3286
53849SOL    HW173272   4.143  11.517   0.177 -3.1379  2.3303 -0.6780
53849SOL    HW273273   4.081  11.404   0.256 -0.4151  0.4824 -1.0318
53850SOL     OW73274  10.104   6.025   2.706  0.3010 -0.8192  0.5565
53850SOL    HW173275  10.142   5.980   2.630  1.2041  1.2145 -0.2850
53850SOL    HW273276  10.027   6.069   2.671  1.9805  2.0277  0.1431
53851SOL     OW73277   8.304   3.009   3.490 -0.1907  0.5476  0.4645
53851SOL    HW173278   8.353   3.069   3.547 -0.5360  1.1638  0.1150
53851SOL    HW273279   8.323   2.922   3.526 -0.8507  0.9577  1.8611
53852SOL     OW73280   2.988  12.378  12.248 -0.1160 -0.3088 -0.6356
53852SOL    HW173281   2.935  12.389  12.169 -0.1833 -0.9068 -0.6837
53852SOL    HW273282   2.985  12.463  12.291 -2.5154 -0.7128  0.2009
53853SOL     OW73283   6.044   9.281  12.006  0.1489  0.0226  0.2089
53853SOL    HW173284   6.130   9.303  12.042  0.1851 -0.1919  0.2523
53853SOL    HW273285   5.984   9.289  12.080 -0.0183  1.0784 -0.0210
53854SOL     OW73286   3.339   7.429   0.307 -0.7315 -0.3152  0.0851
53854SOL    HW173287   3.397   7.466   0.374  0.5445 -1.8407 -0.1118
53854SOL    HW273288   3.342   7.491   0.235 -0.6756  0.4478  0.7364
53855SOL     OW73289   7.970  13.000   4.860  0.2522  0.3356 -0.5213
53855SOL    HW173290   7.906  12.946   4.907 -0.1119 -0.0300 -1.4035
53855SOL    HW273291   8.010  13.054   4.927  1.6093 -1.9697  0.6443
53856SOL     OW73292  13.625   5.852   7.064  0.5844 -0.1503  0.0129
53856SOL    HW173293  13.692   5.809   7.012 -0.1760 -1.1566 -0.1705
53856SOL    HW273294  13.673   5.901   7.131  1.4838 -1.7071  0.5496
53857SOL     OW73295  12.606  10.238  13.494 -0.2199 -0.1788 -1.0070
53857SOL    HW173296  12.543  10.168  13.511 -0.3611 -0.0533 -1.0124
53857SOL    HW273297  12.569  10.315  13.539  0.0982 -0.1890 -0.7211
53858SOL     OW73298   0.178   5.260   3.504  0.0060 -0.4208  0.5601
53858SOL    HW173299   0.162   5.205   3.427 -1.6731  1.7006 -0.7589
53858SOL    HW273300   0.125   5.221   3.573 -0.5630 -0.9047 -0.1277
53859SOL     OW73301  11.894   2.024   1.267 -0.7852  0.3113 -0.4295
53859SOL    HW173302  11.840   2.033   1.346 -2.7821  2.1773 -1.8715
53859SOL    HW273303  11.975   2.071   1.289 -0.8954 -0.0345  0.8177
53860SOL     OW73304   9.828   3.391   5.511 -0.0863  0.0659  0.2054
53860SOL    HW173305   9.771   3.361   5.581 -1.2822 -2.4089 -1.6625
53860SOL    HW273306   9.909   3.341   5.522 -0.8113 -1.4284 -0.9320
53861SOL     OW73307   8.393   2.094   3.370 -0.7062 -0.1889  0.3742
53861SOL    HW173308   8.411   2.152   3.296 -0.8182 -2.0511 -1.1819
53861SOL    HW273309   8.341   2.023   3.333  0.6611 -2.0766  1.8519
53862SOL     OW73310   0.572   2.771   7.000  0.3342 -0.2222  0.4817
53862SOL    HW173311   0.599   2.784   6.909  0.0191  0.1329  0.4398
53862SOL    HW273312   0.654   2.761   7.048  0.5311  0.5443  0.3062
53863SOL     OW73313   5.433   4.767   9.403  0.4345 -0.0479 -0.0548
53863SOL    HW173314   5.414   4.691   9.458  0.9352 -0.5411 -0.5432
53863SOL    HW273315   5.352   4.782   9.354  0.8183 -1.2733 -1.1211
53864SOL     OW73316   1.234  11.434   2.260  0.1849 -0.1897 -0.4754
53864SOL    HW173317   1.294  11.359   2.260  0.3462 -0.0673  0.0059
53864SOL    HW273318   1.173  11.415   2.331 -0.9655 -0.7896 -1.5885
53865SOL     OW73319   7.555  13.245  11.762  0.2021 -0.0041 -0.6131
53865SOL    HW173320   7.619  13.204  11.705 -1.3601 -0.8513 -1.8205
53865SOL    HW273321   7.508  13.172  11.802 -0.6830  0.6035 -0.5180
53866SOL     OW73322   4.266   4.170   7.221 -0.5105 -0.1006 -0.3898
53866SOL    HW173323   4.323   4.095   7.236  0.3486  0.3886 -1.0741
53866SOL    HW273324   4.192   4.157   7.279  0.7329 -0.3036  1.2113
53867SOL     OW73325  13.439  11.588  12.746  0.5835 -0.3799  0.4016
53867SOL    HW173326  13.413  11.644  12.818  1.3106  1.0067 -0.3720
53867SOL    HW273327  13.535  11.595  12.743  0.8081 -2.4574  0.8934
53868SOL     OW73328   8.867   4.782   6.651  0.3802  0.6042 -0.3301
53868SOL    HW173329   8.826   4.747   6.572  0.1745  1.4638 -0.6035
53868SOL    HW273330   8.814   4.858   6.674 -0.5115 -0.5074  1.5160
53869SOL     OW73331   2.124   3.110  11.118  0.0135 -0.7117 -0.6339
53869SOL    HW173332   2.076   3.028  11.107  0.5517 -0.7777 -2.9651
53869SOL    HW273333   2.111   3.133  11.210 -2.0160 -2.2418 -0.4596
53870SOL     OW73334  10.615  11.188   0.114  0.1681  0.1658 -0.1755
53870SOL    HW173335  10.667  11.216   0.038 -1.3475  2.9451 -0.3099
53870SOL    HW273336  10.542  11.139   0.077  0.4395 -0.0994 -0.3579
53871SOL     OW73337   3.468  13.667  11.621  0.1392 -0.4047  0.2365
53871SOL    HW173338   3.503  13.756  11.631 -0.3933 -0.2107  0.3858
53871SOL    HW273339   3.541  13.617  11.585  0.0755  0.3639 -1.0167
53872SOL     OW73340   1.041  13.403   4.732 -0.2291 -0.3268  0.2429
53872SOL    HW173341   1.052  13.369   4.820  1.0983 -1.0918 -0.1897
53872SOL    HW273342   0.994  13.485   4.743 -1.0707 -0.9604  1.5547
53873SOL     OW73343  12.714   0.529  13.108  0.0874 -0.1970 -0.0409
53873SOL    HW173344  12.788   0.582  13.137  1.2473 -0.8700 -1.5833
53873SOL    HW273345  12.708   0.458  13.172 -2.0946  2.1295  2.6056
53874SOL     OW73346  11.792   0.722   0.954 -0.1181  0.2551 -0.5148
53874SOL    HW173347  11.748   0.649   0.998  0.0860 -0.0371 -0.7937
53874SOL    HW273348  11.808   0.786   1.024  0.5774 -0.3829 -0.0781
53875SOL     OW73349   0.933   3.808   6.623 -0.2901  0.2742 -0.1301
53875SOL    HW173350   0.994   3.750   6.578  0.5156 -0.0982  1.3644
53875SOL    HW273351   0.863   3.750   6.654  0.3351  0.1274  1.0575
53876SOL     OW73352   7.554   8.796   3.152 -0.3273 -0.2019  0.4944
53876SOL    HW173353   7.544   8.817   3.059 -2.9408 -1.6297  0.3541
53876SOL    HW273354   7.601   8.713   3.153  0.2127  0.0954  0.5122
53877SOL     OW73355   8.747   6.781   8.325 -0.1379  0.4489  0.5862
53877SOL    HW173356   8.750   6.869   8.289  0.9973 -0.7930 -2.7196
53877SOL    HW273357   8.839   6.756   8.335 -0.3125 -1.5276 -1.9348
53878SOL     OW73358  11.919   2.316  12.204  0.3689 -0.2630  0.5890
53878SOL    HW173359  11.893   2.362  12.284 -0.5445  0.6593 -0.2132
53878SOL    HW273360  11.913   2.382  12.136 -0.5164 -1.4499 -0.5271
53879SOL     OW73361   3.447  12.489   0.861  0.7763  0.1101 -0.0395
53879SOL    HW173362   3.525  12.531   0.825  0.7855 -0.0580 -0.2166
53879SOL    HW273363   3.374  12.522   0.809  0.7728 -0.0228 -0.1191
53880SOL     OW73364   2.333   2.766   2.732 -0.3167 -0.8354  0.5010
53880SOL    HW173365   2.404   2.778   2.668 -1.3627  0.8393 -0.4111
53880SOL    HW273366   2.277   2.699   2.694 -0.4907 -0.4457  0.0718
53881SOL     OW73367   8.035   1.205   7.444  0.0585 -0.3910 -0.0793
53881SOL    HW173368   7.985   1.163   7.374  1.9376 -3.5564  0.3041
53881SOL    HW273369   7.975   1.204   7.519  0.5196 -4.3143  0.4422
53882SOL     OW73370   3.035   5.932   7.577  0.2565  0.1450 -0.9079
53882SOL    HW173371   2.942   5.919   7.597  0.2029 -0.0144 -1.2539
53882SOL    HW273372   3.077   5.942   7.662 -0.1247  0.5236 -0.7641
53883SOL     OW73373   2.728   4.461  12.303 -0.3081  0.7355 -0.0489
53883SOL    HW173374   2.701   4.551  12.318  0.3905  0.9519 -0.0674
53883SOL    HW273375   2.659   4.424  12.248 -3.6198 -0.4268  4.3115
53884SOL     OW73376   4.338   7.617  13.222 -0.1134 -0.1935 -0.1323
53884SOL    HW173377   4.413   7.676  13.217 -0.2268 -0.1233 -2.2900
53884SOL    HW273378   4.284   7.651  13.294  1.1306  0.7043  0.4013
53885SOL     OW73379   2.927   6.142   1.444  0.2087 -0.0276  0.2896
53885SOL    HW173380   2.917   6.059   1.397 -1.0416 -0.6516  1.6034
53885SOL    HW273381   2.882   6.128   1.527  1.7206  1.2910  1.3957
53886SOL     OW73382  10.235   2.471  13.630 -0.3806  0.2191  0.1130
53886SOL    HW173383  10.155   2.471  13.682  0.2827  0.2212  1.1689
53886SOL    HW273384  10.266   2.380  13.633  0.1713  0.4122  0.5528
53887SOL     OW73385   4.663   0.586  11.841 -0.3636 -0.2711  0.4509
53887SOL    HW173386   4.701   0.669  11.871 -3.3534  0.8777  1.3838
53887SOL    HW273387   4.673   0.527  11.916 -1.6756  0.4818  1.2462
53888SOL     OW73388   9.061  10.657   6.344  0.2922 -0.1289  0.1230
53888SOL    HW173389   8.974  10.689   6.320 -0.1798 -0.4904  1.3136
53888SOL    HW273390   9.119  10.731   6.325 -0.4008  0.4584  0.2147
53889SOL     OW73391   2.988  12.174   7.063  0.3938 -0.2565  0.0008
53889SOL    HW173392   2.938  12.115   7.120  0.7817  0.0593  0.6695
53889SOL    HW273393   2.953  12.156   6.975 -0.0946 -0.8624  0.3059
53890SOL     OW73394  11.352   4.232   7.599  0.8165  0.0744 -0.0197
53890SOL    HW173395  11.422   4.190   7.649  0.9816 -1.0438 -1.1430
53890SOL    HW273396  11.291   4.161   7.579 -0.0597  0.8195 -0.0418
53891SOL     OW73397  11.241   7.815   9.142 -0.2849 -0.4149  0.3551
53891SOL    HW173398  11.229   7.792   9.234 -0.5921 -1.0383  0.1683
53891SOL    HW273399  11.293   7.743   9.106  0.9976  0.4892  0.3359
53892SOL     OW73400   2.788   9.537   2.297  0.2360  0.2234 -0.2713
53892SOL    HW173401   2.749   9.487   2.226 -0.0801 -1.5986  1.1279
53892SOL    HW273402   2.736   9.618   2.301 -1.8315 -1.0591 -0.0419
53893SOL     OW73403   4.409  13.143  11.290  0.2689 -0.4557  0.5134
53893SOL    HW173404   4.360  13.136  11.372  1.0491  1.3967  1.1967
53893SOL    HW273405   4.477  13.075  11.297 -0.6917 -1.4200  0.6324
53894SOL     OW73406   8.327   5.775   9.116 -0.0160  0.3595  0.6904
53894SOL    HW173407   8.344   5.854   9.168  1.0423  1.3452 -1.0783
53894SOL    HW273408   8.269   5.722   9.172 -0.2346  2.0798  2.1898
53895SOL     OW73409   7.552   2.602  12.684  0.1463  0.4552  0.2647
53895SOL    HW173410   7.631   2.548  12.675 -1.3375 -2.2038  1.7661
53895SOL    HW273411   7.510   2.598  12.598  0.2841 -0.4592  0.2292
53896SOL     OW73412   5.735  10.291   9.491  0.4054 -0.0785  0.3071
53896SOL    HW173413   5.662  10.229   9.485  0.3298  0.0925 -0.6313
53896SOL    HW273414   5.711  10.363   9.433  1.4652 -0.1849 -0.2923
53897SOL     OW73415   7.160   7.751   5.020 -0.1359 -0.0709  0.0940
53897SOL    HW173416   7.190   7.839   5.045  0.6548 -0.6033  1.1169
53897SOL    HW273417   7.161   7.702   5.101 -4.9700  0.0903  0.4879
53898SOL     OW73418   0.941   6.206   8.647 -0.3122  0.2314 -0.0972
53898SOL    HW173419   0.976   6.146   8.714  1.3289  0.3348 -0.8104
53898SOL    HW273420   0.866   6.160   8.610 -1.0298  0.0115  1.5487
53899SOL     OW73421   9.713   2.662   6.252  0.3850  0.2879  0.2014
53899SOL    HW173422   9.778   2.716   6.208  1.2647 -0.7756  0.1588
53899SOL    HW273423   9.741   2.662   6.344  0.7238 -0.5630  0.0994
53900SOL     OW73424   8.221   4.679  12.207 -0.0907 -0.3269  0.1252
53900SOL    HW173425   8.211   4.680  12.112 -0.6607 -3.0183  0.0832
53900SOL    HW273426   8.131   4.675  12.240  0.0731  1.3001  0.8486
53901SOL     OW73427  12.999   8.827  12.590 -0.5702  0.6096 -0.0197
53901SOL    HW173428  12.987   8.760  12.657 -1.1802  0.5526 -0.1789
53901SOL    HW273429  13.016   8.777  12.510 -0.8969  0.6487 -0.1134
53902SOL     OW73430   2.189   7.517   9.503 -0.1404  0.3762 -0.2871
53902SOL    HW173431   2.192   7.429   9.540  1.3964 -0.3881 -2.0775
53902SOL    HW273432   2.270   7.558   9.532  0.0475  0.5202 -0.9871
53903SOL     OW73433   2.789   0.291   5.250 -0.2366  0.7779 -0.3664
53903SOL    HW173434   2.747   0.263   5.332  0.7354 -0.0404 -0.1254
53903SOL    HW273435   2.771   0.385   5.245 -0.7386  0.7431  0.5341
53904SOL     OW73436   3.666   6.566   9.545 -0.1982  0.2736 -0.6038
53904SOL    HW173437   3.695   6.516   9.621 -1.2202  0.8659  0.1963
53904SOL    HW273438   3.738   6.626   9.527  1.2226 -1.6682 -1.8202
53905SOL     OW73439  11.057   9.582   4.225 -0.0532 -0.4671 -0.1681
53905SOL    HW173440  10.976   9.632   4.241 -1.2459 -2.8552  1.8673
53905SOL    HW273441  11.126   9.648   4.229 -1.5339  1.1241  2.3779
53906SOL     OW73442   2.351   1.193   5.821 -0.5640  0.1315  0.4956
53906SOL    HW173443   2.388   1.230   5.901 -0.6428 -1.5864  1.3616
53906SOL    HW273444   2.271   1.244   5.807 -0.7075  0.2599  1.6769
53907SOL     OW73445   7.242   8.100   9.191  0.2370 -0.4251 -0.4931
53907SOL    HW173446   7.193   8.137   9.265  1.1613 -1.5806  0.7526
53907SOL    HW273447   7.219   8.156   9.117 -1.4237  0.2452  0.4608
53908SOL     OW73448   9.400  13.674   3.560  0.1140  0.3725  0.3772
53908SOL    HW173449   9.390  13.762   3.525  1.5848  0.3436 -0.1978
53908SOL    HW273450   9.365  13.680   3.649 -1.7618  0.9674 -0.3504
53909SOL     OW73451   5.721  11.712   3.467  0.4401 -0.2783 -0.0605
53909SOL    HW173452   5.737  11.806   3.462 -1.6013  0.1012 -0.4861
53909SOL    HW273453   5.626  11.705   3.482  0.8731 -2.2172  2.5994
53910SOL     OW73454   1.466   4.750  13.498 -0.4640 -0.4578  0.4309
53910SOL    HW173455   1.485   4.727  13.589  0.5426  1.6838  0.8343
53910SOL    HW273456   1.544   4.722  13.450 -1.2112 -2.0655  0.0896
53911SOL     OW73457   1.482   0.905  12.457 -0.1603 -0.1384  0.3297
53911SOL    HW173458   1.418   0.917  12.528  0.8565 -0.5947  1.3618
53911SOL    HW273459   1.481   0.987  12.409 -1.0921  0.0723  0.6880
53912SOL     OW73460   1.993  10.089   4.263 -0.7596 -0.1548  0.1256
53912SOL    HW173461   2.030  10.122   4.181 -0.5213 -2.2328 -0.6676
53912SOL    HW273462   1.999  10.162   4.324  1.0971  0.7558 -1.0794
53913SOL     OW73463   6.675  13.699  11.394 -0.0722  0.3569  0.2524
53913SOL    HW173464   6.580  13.699  11.406 -0.0628  2.0622  0.6608
53913SOL    HW273465   6.710  13.675  11.480 -0.1144 -1.1466 -0.1251
53914SOL     OW73466   3.823  10.608   6.773  0.2211  0.2701 -0.2451
53914SOL    HW173467   3.740  10.656   6.771 -0.4971 -0.9401 -0.0989
53914SOL    HW273468   3.853  10.608   6.681  0.4928  1.3927 -0.1788
53915SOL     OW73469   5.746   1.897   7.400  0.0215  0.2049 -0.1235
53915SOL    HW173470   5.724   1.907   7.307  2.6332  0.3006 -0.8181
53915SOL    HW273471   5.704   1.816   7.427  2.1675 -1.8463 -2.4671
53916SOL     OW73472  12.563   7.614   7.775 -0.3124 -0.1104 -0.2384
53916SOL    HW173473  12.652   7.584   7.758 -0.3747  0.1739 -1.1321
53916SOL    HW273474  12.568   7.659   7.859  0.6511  0.9273 -0.8229
53917SOL     OW73475   7.145   5.873  10.798 -0.2592  0.2177  0.1968
53917SOL    HW173476   7.097   5.864  10.880 -0.0760 -1.0323  0.1897
53917SOL    HW273477   7.079   5.899  10.733 -1.2982 -2.8732 -0.1296
53918SOL     OW73478  12.564  10.964   9.178  0.2355 -0.1125  0.3015
53918SOL    HW173479  12.569  10.889   9.118  1.0456 -0.2909  0.5829
53918SOL    HW273480  12.488  11.014   9.147  0.0775 -0.6985 -0.2916
53919SOL     OW73481  10.418  10.806   7.234  0.4291 -0.4132  0.4448
53919SOL    HW173482  10.324  10.810   7.219  0.7925  0.9975 -1.8761
53919SOL    HW273483  10.438  10.885   7.284  0.2420 -1.4183  2.1832
53920SOL     OW73484   5.137   9.779   8.151  0.1899 -0.8871  0.6400
53920SOL    HW173485   5.193   9.761   8.075 -0.9356  1.8151 -0.9487
53920SOL    HW273486   5.048   9.775   8.116 -0.4088 -0.6238  2.0921
53921SOL     OW73487   9.469   1.042   4.338  0.5941  1.1110  0.4368
53921SOL    HW173488   9.442   1.099   4.266 -1.1301  1.7698  1.5354
53921SOL    HW273489   9.473   1.100   4.414  2.3777  0.4330  0.9063
53922SOL     OW73490   7.552   6.891   6.901 -0.1186  0.5722 -1.2119
53922SOL    HW173491   7.481   6.836   6.933  1.3229  0.7471  2.8775
53922SOL    HW273492   7.514   6.979   6.897 -0.4043  0.5175  0.0204
53923SOL     OW73493   5.081   2.859  13.457 -0.7626 -0.1910  1.0199
53923SOL    HW173494   5.140   2.832  13.527 -1.3384  0.7708  1.8970
53923SOL    HW273495   4.993   2.845  13.492 -1.0611  0.9183  0.7561
53924SOL     OW73496   0.204   6.276   8.123 -0.3561 -0.6709  0.3263
53924SOL    HW173497   0.161   6.361   8.109 -0.8829 -1.2186 -1.5390
53924SOL    HW273498   0.169   6.219   8.055  1.5266 -1.8278  0.2644
53925SOL     OW73499   1.257   1.093   6.325 -0.1168  0.3536 -0.5200
53925SOL    HW173500   1.285   1.050   6.244  1.3311 -1.0942  0.6689
53925SOL    HW273501   1.337   1.131   6.360 -0.3165 -0.6840  1.1539
53926SOL     OW73502  11.141   9.783   8.744  0.2333 -0.8570 -0.5053
53926SOL    HW173503  11.167   9.705   8.695 -1.5893 -2.3735  0.7600
53926SOL    HW273504  11.149   9.757   8.836  0.0741  0.6332 -0.0455
53927SOL     OW73505   3.993   3.406  13.742  0.3383  0.3019 -0.3462
53927SOL    HW173506   4.082   3.439  13.746  0.7971 -0.6473 -1.9201
53927SOL    HW273507   3.995   3.324  13.792 -0.0009  0.9300  0.7372
53928SOL     OW73508   2.055  10.737   5.093  0.3961 -0.3680 -0.7379
53928SOL    HW173509   2.055  10.809   5.029 -1.6634 -0.2185 -0.6388
53928SOL    HW273510   2.051  10.780   5.178 -2.2360 -0.5050 -0.7059
53929SOL     OW73511   4.905   6.139   3.335  0.1244  0.1913 -0.0845
53929SOL    HW173512   4.860   6.216   3.370  1.0104  0.7190 -0.0736
53929SOL    HW273513   4.934   6.091   3.413 -1.7516 -0.9941 -0.0563
53930SOL     OW73514   0.665   5.050   3.036 -0.0083  0.3293  0.1289
53930SOL    HW173515   0.754   5.023   3.012 -0.0211  1.0423 -0.7886
53930SOL    HW273516   0.612   4.970   3.026  0.3249  0.1756 -0.4846
53931SOL     OW73517   5.197  11.003  10.746 -0.4996  0.4185  0.7331
53931SOL    HW173518   5.206  11.096  10.763  1.1793  0.2343  1.0504
53931SOL    HW273519   5.105  10.991  10.722 -0.3416  2.4449 -1.1547
53932SOL     OW73520   0.705   8.234   0.810 -0.5134 -0.0009 -0.5151
53932SOL    HW173521   0.689   8.291   0.735  0.8638  1.0764 -0.0419
53932SOL    HW273522   0.698   8.292   0.886 -0.7477 -0.8263  0.1035
53933SOL     OW73523   1.633   0.981   6.337  0.4459  0.2883 -0.0106
53933SOL    HW173524   1.579   0.902   6.340 -1.3420  1.4715  1.2501
53933SOL    HW273525   1.641   1.001   6.244 -0.4332 -0.4876 -0.2702
53934SOL     OW73526  11.917   6.814   0.523 -0.2040  0.2503 -0.3828
53934SOL    HW173527  11.931   6.907   0.505  1.5694  0.6658  2.4756
53934SOL    HW273528  11.897   6.811   0.617  1.4592 -2.3720 -0.0272
53935SOL     OW73529  10.076   0.213  13.176  0.1348 -0.1281 -0.3021
53935SOL    HW173530  10.152   0.201  13.233 -0.5888 -1.9195  0.3710
53935SOL    HW273531  10.001   0.212  13.236 -0.6394 -1.9442 -1.2194
53936SOL     OW73532   4.394   8.790  12.613  0.6678 -0.2813 -0.6563
53936SOL    HW173533   4.299   8.803  12.605  0.2042 -0.3248  3.1101
53936SOL    HW273534   4.433   8.868  12.574 -1.0568  1.0284  0.1257
53937SOL     OW73535   8.771  12.147  12.899  0.4346  0.5784  0.1874
53937SOL    HW173536   8.703  12.194  12.948  1.2111  0.8692  1.0357
53937SOL    HW273537   8.724  12.084  12.845 -0.4345 -0.8545  2.4746
53938SOL     OW73538  10.344  13.694   3.935 -0.3162  0.3534  0.0693
53938SOL    HW173539  10.332  13.599   3.933  1.9408  0.0281 -0.8248
53938SOL    HW273540  10.330  13.722   3.845  1.1559  0.5056 -0.1450
53939SOL     OW73541  13.350   7.357   6.287 -0.3178  0.0028 -0.0078
53939SOL    HW173542  13.439   7.381   6.312 -0.3039 -0.2532  0.1900
53939SOL    HW273543  13.360   7.312   6.203 -0.3064  0.3620 -0.2005
53940SOL     OW73544   5.350   5.519   5.797 -0.4048  0.0284  0.5323
53940SOL    HW173545   5.420   5.553   5.742 -0.9855  0.3007 -0.0631
53940SOL    HW273546   5.292   5.473   5.735 -2.0344  1.8734  0.5867
53941SOL     OW73547   5.815  12.469   3.954  0.1299 -0.0508 -0.2348
53941SOL    HW173548   5.810  12.548   4.008  1.1893 -0.6786  0.8267
53941SOL    HW273549   5.726  12.456   3.922 -0.4356  0.5803  1.0241
53942SOL     OW73550   2.101   6.101  12.655  0.2321 -0.2264  0.6075
53942SOL    HW173551   2.184   6.110  12.702  0.3468  0.1522  0.3392
53942SOL    HW273552   2.105   6.014  12.615 -0.1134 -0.7925  1.7561
53943SOL     OW73553  10.269   0.986   1.747  0.0191 -0.3610  0.1856
53943SOL    HW173554  10.195   0.928   1.765 -1.4761  1.3813 -0.0166
53943SOL    HW273555  10.274   0.988   1.651 -2.4374  2.6611 -0.0231
53944SOL     OW73556   0.284   6.620   4.591 -0.0817  0.0802 -0.6619
53944SOL    HW173557   0.248   6.680   4.526 -0.9819  0.3345  0.0580
53944SOL    HW273558   0.289   6.671   4.671 -3.2724 -1.4141  0.6434
53945SOL     OW73559   0.968   6.373   9.027  1.1859  0.2656 -0.2111
53945SOL    HW173560   0.924   6.313   8.966  1.1684 -0.1531  0.2082
53945SOL    HW273561   1.061   6.368   9.002  1.0944  0.6012 -0.6306
53946SOL     OW73562   9.287   9.001   1.933  0.1510 -0.0111 -0.4497
53946SOL    HW173563   9.366   9.054   1.943  0.9743 -1.2072 -0.3738
53946SOL    HW273564   9.316   8.911   1.950 -1.8080 -0.2096  2.6079
53947SOL     OW73565   8.253  11.422  11.706 -0.4205  0.1326  0.0878
53947SOL    HW173566   8.161  11.408  11.684  0.5132 -2.0238 -3.2486
53947SOL    HW273567   8.276  11.349  11.764 -0.3986 -0.4306 -0.6196
53948SOL     OW73568  10.384   8.794   6.405 -0.7373  0.2513  0.1780
53948SOL    HW173569  10.299   8.766   6.372 -0.5195  0.9440 -1.0153
53948SOL    HW273570  10.413   8.862   6.345  1.8022 -1.6330 -0.9439
53949SOL     OW73571   6.097   9.390  12.405  0.2612 -0.7593  0.3883
53949SOL    HW173572   6.022   9.374  12.348  0.3057 -0.1026  0.1322
53949SOL    HW273573   6.094   9.319  12.469 -0.0641 -1.2409 -0.1466
53950SOL     OW73574   3.927   8.091   7.439 -0.1267  0.0580  0.3990
53950SOL    HW173575   3.954   8.020   7.380 -1.4978  1.3435 -1.9487
53950SOL    HW273576   3.837   8.071   7.462  0.3942 -0.4261  2.1662
53951SOL     OW73577   7.848   3.170   7.780 -0.1251 -0.0693 -0.1162
53951SOL    HW173578   7.909   3.178   7.853  0.1778 -0.1390 -0.3609
53951SOL    HW273579   7.900   3.134   7.709 -0.4287 -0.0347 -0.3584
53952SOL     OW73580  11.580  11.658   3.631 -0.0550  0.2827  0.8882
53952SOL    HW173581  11.656  11.600   3.629 -0.3731 -0.1609  1.4090
53952SOL    HW273582  11.513  11.608   3.676 -1.2742 -0.0531 -1.1639
53953SOL     OW73583   0.362  12.594   0.514 -0.5129  0.0665 -0.2595
53953SOL    HW173584   0.338  12.545   0.593  0.0285 -0.0749 -0.1758
53953SOL    HW273585   0.374  12.526   0.447  2.0979 -0.1459  0.3161
53954SOL     OW73586   4.479   3.408   3.744 -0.1035 -0.2619 -0.0074
53954SOL    HW173587   4.445   3.395   3.832  2.1767  0.1249  0.9890
53954SOL    HW273588   4.516   3.496   3.745 -0.0222 -0.2560 -1.3578
53955SOL     OW73589   6.693   5.414  13.734 -0.5040 -0.4810  0.3376
53955SOL    HW173590   6.740   5.497  13.744  1.7826 -1.6020 -0.3704
53955SOL    HW273591   6.674   5.409  13.640  0.5619 -1.3226  0.1468
53956SOL     OW73592  12.413   8.575   4.379  0.3117 -0.8021 -0.4074
53956SOL    HW173593  12.382   8.581   4.289 -0.0254 -1.2775 -0.3251
53956SOL    HW273594  12.342   8.533   4.427 -0.7418  2.0828  0.7088
53957SOL     OW73595   3.577   7.742  10.905  0.1977 -0.0947 -0.3058
53957SOL    HW173596   3.609   7.689  10.832  0.4624 -1.5698  0.8289
53957SOL    HW273597   3.650   7.742  10.968  0.3683  1.9970 -0.4285
53958SOL     OW73598   8.868   7.747   9.983  0.0176  0.2646  0.0463
53958SOL    HW173599   8.863   7.839  10.007  1.1873  0.5545 -0.7295
53958SOL    HW273600   8.805   7.704  10.041 -1.2506  1.6542 -0.2327
53959SOL     OW73601   7.904  11.981  12.782  0.2639  0.1333  0.5333
53959SOL    HW173602   7.885  12.065  12.740  0.9659 -0.1422 -0.3778
53959SOL    HW273603   7.961  12.003  12.855  1.1364  0.3851 -0.2034
53960SOL     OW73604   3.842   1.669   8.467 -0.0564 -0.1978  0.1247
53960SOL    HW173605   3.903   1.627   8.528 -0.7794  0.8928  1.6930
53960SOL    HW273606   3.756   1.638   8.495 -0.4505  0.8687  0.1266
53961SOL     OW73607  10.012   6.324  13.564  0.0356  0.4060  0.1209
53961SOL    HW173608  10.020   6.366  13.478 -0.5769  1.2326  0.4544
53961SOL    HW273609  10.098   6.285  13.580 -0.1162 -0.5958 -1.2909
53962SOL     OW73610   4.303   2.832  10.392  1.2816  0.1225 -0.3294
53962SOL    HW173611   4.366   2.904  10.393  1.0174  0.3644  1.2473
53962SOL    HW273612   4.218   2.875  10.382  1.0400  0.1525  1.4918
53963SOL     OW73613   4.309   7.843   4.038  0.2171 -0.3568 -0.1524
53963SOL    HW173614   4.333   7.751   4.046 -0.4681 -0.7024 -1.6681
53963SOL    HW273615   4.365   7.876   3.968  0.3685  0.3609  0.2965
53964SOL     OW73616  10.484   7.969   9.986  0.4165 -0.4555 -0.0486
53964SOL    HW173617  10.501   7.875   9.990 -1.5025 -0.8461 -0.0632
53964SOL    HW273618  10.526   7.998   9.905  0.5803 -1.4055 -0.3172
53965SOL     OW73619   6.644   4.056   9.674 -0.8014  0.1100 -0.5137
53965SOL    HW173620   6.612   4.126   9.732 -0.6684 -0.4420  0.2355
53965SOL    HW273621   6.653   4.099   9.589 -2.8317  0.4792 -0.6014
53966SOL     OW73622   0.600   3.778   3.954  0.1107  0.1303  0.0247
53966SOL    HW173623   0.637   3.795   3.868 -0.7867 -0.0655 -0.4121
53966SOL    HW273624   0.653   3.830   4.014  3.4906 -2.8623 -0.0289
53967SOL     OW73625   0.039  12.233   1.326  0.2357 -0.2567 -0.1938
53967SOL    HW173626  -0.009  12.281   1.259 -2.7073 -1.9171  0.5189
53967SOL    HW273627   0.066  12.152   1.283  1.7953  0.3300 -0.3691
53968SOL     OW73628  12.460   1.358  12.664  0.5245  0.0803  0.0581
53968SOL    HW173629  12.374   1.341  12.626  0.8086 -0.6953 -0.2626
53968SOL    HW273630  12.465   1.453  12.672 -0.8312  0.0799  1.1994
53969SOL     OW73631  11.828  10.655   3.385  0.3945  0.3067  0.4710
53969SOL    HW173632  11.755  10.614   3.432  1.0321 -0.0811  1.1416
53969SOL    HW273633  11.826  10.614   3.298 -1.1877  1.4899 -0.0950
53970SOL     OW73634   1.086  12.594  12.578 -0.1312  0.1208 -0.1109
53970SOL    HW173635   1.079  12.608  12.672 -0.3885 -1.7901  0.1843
53970SOL    HW273636   1.034  12.516  12.561  0.9955 -0.3437 -1.6287
53971SOL     OW73637   0.190  12.893   6.640 -0.0203  0.6933  0.2855
53971SOL    HW173638   0.165  12.984   6.656 -0.4864  0.2823  2.1186
53971SOL    HW273639   0.279  12.899   6.604  0.0300  1.8605  0.5520
53972SOL     OW73640   3.056   7.266  10.447 -0.0828 -0.0136  0.2095
53972SOL    HW173641   3.078   7.302  10.533  1.1097  0.4071 -0.2578
53972SOL    HW273642   3.125   7.296  10.389 -1.5770  0.8329 -1.2229
53973SOL     OW73643  11.466  10.753   5.795  0.0542 -0.5385  0.3099
53973SOL    HW173644  11.500  10.841   5.814 -0.2621 -0.5562  1.0199
53973SOL    HW273645  11.372  10.759   5.815 -0.3714 -0.5124 -1.5199
53974SOL     OW73646  12.056   0.539  12.830  0.0594 -0.1260 -0.1975
53974SOL    HW173647  11.998   0.481  12.781 -0.5449 -0.1179  0.4779
53974SOL    HW273648  12.091   0.483  12.900  0.5309 -0.0199 -0.3499
53975SOL     OW73649  13.564  10.447   8.014  0.1543 -0.5312  0.1562
53975SOL    HW173650  13.594  10.439   7.924 -2.4331  0.1081 -0.8385
53975SOL    HW273651  13.516  10.365   8.031 -1.4468  0.3310  0.0426
53976SOL     OW73652   0.418   0.652  10.021  0.4214  0.9547  0.2649
53976SOL    HW173653   0.414   0.593   9.946  1.5608  0.3157  0.6881
53976SOL    HW273654   0.404   0.739   9.983  0.8700  0.6340 -0.6760
53977SOL     OW73655  11.733   6.504  10.352  0.2716  0.1329  0.1455
53977SOL    HW173656  11.784   6.483  10.274 -0.1752  0.2992 -0.1971
53977SOL    HW273657  11.647   6.531  10.318  0.3963  1.1974  0.6377
53978SOL     OW73658   6.500  11.744   1.221 -0.4433 -0.0307 -0.1735
53978SOL    HW173659   6.453  11.807   1.274 -1.5343 -0.4090 -0.6673
53978SOL    HW273660   6.481  11.659   1.261 -0.2787 -0.1989 -0.4449
53979SOL     OW73661  11.117   4.486  10.661 -0.2869  1.0359 -0.3538
53979SOL    HW173662  11.167   4.404  10.656 -0.2894  0.9514  0.7486
53979SOL    HW273663  11.047   4.468  10.724 -0.3291  1.8581 -0.1542
53980SOL     OW73664  10.397  11.397   3.826  0.0094  0.5673 -0.5291
53980SOL    HW173665  10.368  11.309   3.800  0.3818  0.2681  0.0289
53980SOL    HW273666  10.488  11.384   3.854  0.2278  1.2300 -0.9328
53981SOL     OW73667   2.092   4.299   1.028  0.6842  0.6742 -0.1032
53981SOL    HW173668   2.175   4.345   1.040  0.4076  1.5382 -1.2566
53981SOL    HW273669   2.047   4.349   0.959  0.6482 -1.7067 -1.9290
53982SOL     OW73670  11.191   4.329   6.226  0.0037 -0.7804  0.1137
53982SOL    HW173671  11.159   4.418   6.244  1.4932 -0.7085  2.8899
53982SOL    HW273672  11.281   4.328   6.259  0.1440 -3.2462 -0.1324
53983SOL     OW73673   6.818   4.647   1.779  0.2259 -0.9242 -0.1853
53983SOL    HW173674   6.833   4.642   1.685 -1.0881 -1.1613 -0.4070
53983SOL    HW273675   6.744   4.588   1.795  0.0626 -0.4565  0.9075
53984SOL     OW73676   9.349   5.238   6.908 -0.2488  0.4882 -0.6496
53984SOL    HW173677   9.318   5.246   6.817 -1.6182  2.6013 -0.0779
53984SOL    HW273678   9.433   5.283   6.908  0.3079 -0.5342 -1.0950
53985SOL     OW73679   9.047   2.230  12.497 -0.1110 -0.1038  0.3064
53985SOL    HW173680   9.062   2.272  12.412  2.4133 -2.8390 -0.7557
53985SOL    HW273681   9.011   2.144  12.475 -0.3544 -0.4903  2.0853
53986SOL     OW73682   7.526  11.446   9.739 -0.0980 -0.2091 -0.7107
53986SOL    HW173683   7.543  11.449   9.833  0.8166 -2.3749 -0.7539
53986SOL    HW273684   7.440  11.488   9.729  0.5132  1.5710  0.8283
53987SOL     OW73685   5.128   7.800   5.951 -0.2143 -0.1452 -0.0156
53987SOL    HW173686   5.155   7.716   5.988 -1.0153 -0.1300  0.6516
53987SOL    HW273687   5.191   7.863   5.986 -1.1962 -0.0626  1.7590
53988SOL     OW73688  10.870  10.690   7.727 -0.6767 -0.1370  0.1543
53988SOL    HW173689  10.876  10.597   7.749  0.6506 -1.3016 -4.0757
53988SOL    HW273690  10.960  10.721   7.730 -0.8525  0.4425 -0.3580
53989SOL     OW73691   4.344  12.218   1.953  0.5747 -0.4886  0.3599
53989SOL    HW173692   4.302  12.230   2.038 -0.9825  0.3630 -0.4893
53989SOL    HW273693   4.431  12.185   1.974  0.1727 -0.4447  2.2731
53990SOL     OW73694  11.210   2.758   3.418 -0.0257 -0.4141 -0.0806
53990SOL    HW173695  11.130   2.771   3.367  0.0766  0.5955  0.0037
53990SOL    HW273696  11.274   2.726   3.355  1.2577  4.3428 -1.6306
53991SOL     OW73697   7.251  11.550  13.439  0.5800  0.2741  0.3322
53991SOL    HW173698   7.185  11.590  13.383  1.0382  0.4617 -0.0818
53991SOL    HW273699   7.333  11.591  13.413  1.5199 -2.6682 -1.9615
53992SOL     OW73700   5.658  12.175   8.674 -0.0106  0.1088  0.3158
53992SOL    HW173701   5.733  12.152   8.618  1.1616  3.8979  0.0672
53992SOL    HW273702   5.582  12.168   8.616  1.0047  2.4372 -1.4832
53993SOL     OW73703   0.314   5.558  13.508  0.0047 -0.1205 -0.0289
53993SOL    HW173704   0.288   5.469  13.483 -1.3001  0.2008  0.0902
53993SOL    HW273705   0.231   5.606  13.516  0.4819  0.4542  2.4074
53994SOL     OW73706  12.289   4.039   5.101 -0.9157  0.2767 -0.1998
53994SOL    HW173707  12.240   4.040   5.183 -0.3648 -0.9781  0.1604
53994SOL    HW273708  12.227   4.073   5.036 -2.1302 -0.8335  0.3255
53995SOL     OW73709   7.973  11.335   9.420  0.1218  0.0460  0.0205
53995SOL    HW173710   7.930  11.278   9.356  0.5595 -0.2142 -0.0464
53995SOL    HW273711   7.902  11.376   9.468 -0.2221  0.3797 -0.7559
53996SOL     OW73712   1.648   0.064   1.514  0.6809 -0.5607  0.1115
53996SOL    HW173713   1.588   0.082   1.587  1.4030  0.0463  0.5666
53996SOL    HW273714   1.616  -0.019   1.477  0.0059 -0.6220  0.8042
53997SOL     OW73715   4.558   0.134   8.210 -0.0888 -0.3400 -0.4712
53997SOL    HW173716   4.651   0.142   8.187 -0.0120  0.0578 -0.0262
53997SOL    HW273717   4.553   0.156   8.303 -0.6445 -0.2443 -0.5164
53998SOL     OW73718  11.421   5.604   6.802  0.6617  0.1551 -0.5625
53998SOL    HW173719  11.389   5.620   6.891 -1.1687 -2.6402 -0.5932
53998SOL    HW273720  11.490   5.539   6.813 -1.6859 -2.6589 -1.2559
53999SOL     OW73721   8.019   6.286   1.139 -0.2282  0.6763  0.2488
53999SOL    HW173722   8.017   6.336   1.057  1.2069 -0.6578 -0.6418
53999SOL    HW273723   7.967   6.208   1.121  1.6011 -0.5337 -0.0749
54000SOL     OW73724   6.470   0.600   7.752 -0.0778  0.6397  0.2629
54000SOL    HW173725   6.511   0.677   7.791  0.3971  0.3152  0.4120
54000SOL    HW273726   6.543   0.543   7.727 -0.3579  0.8678 -1.1784
54001SOL     OW73727  12.766   1.773  12.926 -0.2507 -0.0926 -0.1884
54001SOL    HW173728  12.740   1.683  12.908 -0.0921 -0.0022 -0.8911
54001SOL    HW273729  12.859   1.776  12.905 -0.1933  0.1676  0.0920
54002SOL     OW73730   3.060  12.571  10.482  0.7882 -0.5025 -0.0941
54002SOL    HW173731   3.074  12.655  10.439 -2.1489 -0.3173 -0.8682
54002SOL    HW273732   3.111  12.509  10.431  0.8784  0.4089 -1.1392
54003SOL     OW73733   7.291   3.935   8.158 -0.4952 -0.2228 -0.1394
54003SOL    HW173734   7.258   3.995   8.091 -2.0592  0.4276  1.1487
54003SOL    HW273735   7.304   3.852   8.111 -3.9051 -0.5203 -0.8654
54004SOL     OW73736   8.986   7.850  10.918 -0.0146  0.5538  0.0527
54004SOL    HW173737   9.041   7.928  10.915 -0.3098  0.8033  0.9689
54004SOL    HW273738   9.047   7.777  10.902  0.6284  0.8097  1.1990
54005SOL     OW73739  12.483   3.804   8.814  0.4331  0.1404 -0.4276
54005SOL    HW173740  12.401   3.838   8.849  0.8921  0.2933  0.5273
54005SOL    HW273741  12.504   3.863   8.742 -0.8750 -0.5829 -1.4500
54006SOL     OW73742   7.539   9.478   9.245 -0.2923 -0.3455 -0.4275
54006SOL    HW173743   7.522   9.562   9.289 -0.7589  0.0376 -1.3015
54006SOL    HW273744   7.611   9.497   9.185  0.0418 -0.7482 -0.1606
54007SOL     OW73745   8.864   3.591  11.409  0.2878  0.3216  0.9082
54007SOL    HW173746   8.927   3.646  11.362  0.0170 -1.0290 -1.1176
54007SOL    HW273747   8.911   3.509  11.425 -0.2891  0.0550  1.2703
54008SOL     OW73748   2.560   5.371   6.185 -0.2427  0.3164  0.2484
54008SOL    HW173749   2.504   5.417   6.123 -0.7972 -0.5283  0.1107
54008SOL    HW273750   2.509   5.296   6.213 -0.2956  1.0674  2.3188
54009SOL     OW73751   0.451   0.297   4.387  0.3520 -0.2534 -0.0735
54009SOL    HW173752   0.505   0.374   4.408 -1.0897  0.9633 -0.6160
54009SOL    HW273753   0.379   0.301   4.451 -0.1771 -0.6801 -0.6332
54010SOL     OW73754   3.812   6.921   9.340 -0.5091  0.4569 -0.3596
54010SOL    HW173755   3.814   6.994   9.403  0.2203 -0.2760  0.4960
54010SOL    HW273756   3.851   6.848   9.388 -3.7799 -1.3312 -0.1676
54011SOL     OW73757   0.408   4.772  10.444  0.2652 -0.2096 -0.5694
54011SOL    HW173758   0.455   4.736  10.368  0.2346 -0.1418 -0.6210
54011SOL    HW273759   0.433   4.715  10.517 -0.7646 -1.1046 -0.8890
54012SOL     OW73760  11.033  10.264   7.275 -0.3545  0.1282 -0.3128
54012SOL    HW173761  11.050  10.212   7.196 -0.1041  0.6606 -0.6114
54012SOL    HW273762  10.940  10.251   7.292  0.0339 -1.7877  0.5964
54013SOL     OW73763   8.838   1.129   8.639 -0.0049  0.6078 -0.2860
54013SOL    HW173764   8.893   1.059   8.602  1.2499  1.5598 -0.3074
54013SOL    HW273765   8.901   1.192   8.675 -1.0062  2.3780 -1.4309
54014SOL     OW73766   0.993  10.933   4.668  0.3400  0.3732 -0.3173
54014SOL    HW173767   0.911  10.899   4.632 -0.6791  2.3754  0.0287
54014SOL    HW273768   0.971  11.019   4.703  2.5041  0.7769  0.1955
54015SOL     OW73769   5.883  12.521   5.824 -0.2145  0.5725 -0.0270
54015SOL    HW173770   5.950  12.586   5.845  0.8129 -0.1162 -1.0330
54015SOL    HW273771   5.895  12.505   5.730 -1.7653  0.3930 -0.2148
54016SOL     OW73772   1.057  10.744   9.758 -0.3953  0.0174  0.1717
54016SOL    HW173773   0.997  10.673   9.738 -1.2452  0.5722  0.6694
54016SOL    HW273774   1.000  10.817   9.785  0.5458 -0.0160  2.4921
54017SOL     OW73775  13.475   5.823   0.286 -0.6806 -0.3007  0.1537
54017SOL    HW173776  13.521   5.802   0.367  0.6334 -0.1934 -0.5404
54017SOL    HW273777  13.527   5.782   0.218 -1.4064  0.1678 -0.7045
54018SOL     OW73778   8.723   9.289  11.825  0.6161 -0.7232 -0.2524
54018SOL    HW173779   8.798   9.234  11.800 -0.9327 -3.2146  0.2941
54018SOL    HW273780   8.651   9.258  11.770 -0.6587 -0.1948  1.0742
54019SOL     OW73781   5.180   3.858   6.474 -0.2412  0.3144 -0.9576
54019SOL    HW173782   5.144   3.788   6.419 -0.9392  0.1726 -0.3444
54019SOL    HW273783   5.116   3.929   6.468  1.1098  1.4573 -2.6413
54020SOL     OW73784  12.007   5.349   7.228  0.1461  0.4895  0.4983
54020SOL    HW173785  11.988   5.365   7.320  0.4227  1.9418  0.3376
54020SOL    HW273786  12.034   5.435   7.194  1.2228 -0.2723 -0.6517
54021SOL     OW73787   1.986   2.881   1.401  0.2101 -0.6156  0.9464
54021SOL    HW173788   1.966   2.795   1.364  1.1559 -0.9933  1.2697
54021SOL    HW273789   2.044   2.862   1.475  1.5404  0.3750  0.1985
54022SOL     OW73790   1.527  11.950   4.040 -0.1386 -0.0234 -0.0983
54022SOL    HW173791   1.469  11.934   4.114  0.8823 -0.1819  0.6928
54022SOL    HW273792   1.600  11.889   4.053 -1.3409 -2.2644 -2.8748
54023SOL     OW73793   8.166   4.783   6.751  0.0573  0.2826 -0.4719
54023SOL    HW173794   8.250   4.806   6.710 -0.1991  0.6364 -0.8057
54023SOL    HW273795   8.158   4.844   6.825  1.5769 -1.7869  1.5329
54024SOL     OW73796   1.458   1.588  11.460 -0.2860 -0.2515 -0.3458
54024SOL    HW173797   1.379   1.538  11.481 -0.4112 -0.0654 -0.3690
54024SOL    HW273798   1.525   1.522  11.445 -0.3492 -0.4070  0.0258
54025SOL     OW73799   1.712   9.321   7.875 -0.1502  0.3272 -0.0381
54025SOL    HW173800   1.648   9.391   7.860  0.7968  1.1371 -0.4201
54025SOL    HW273801   1.661   9.250   7.914 -1.6633  0.2401 -2.0124
54026SOL     OW73802   7.366   3.959  12.713 -0.1676 -0.3466  0.4740
54026SOL    HW173803   7.439   3.987  12.767 -1.3327  1.3173  1.2589
54026SOL    HW273804   7.358   3.865  12.730  1.7107 -0.5435  0.4204
54027SOL     OW73805   1.678   2.463  10.056 -0.6736 -0.3918 -0.7009
54027SOL    HW173806   1.624   2.538  10.032 -0.9708 -0.9648 -1.9227
54027SOL    HW273807   1.723   2.489  10.136 -1.6017  0.6691 -0.5112
54028SOL     OW73808   2.287  11.117  12.386  0.4572 -0.5857  0.6102
54028SOL    HW173809   2.343  11.146  12.314  0.2457 -0.8273  0.3469
54028SOL    HW273810   2.198  11.121  12.351  0.3797 -1.0393  0.7428
54029SOL     OW73811   5.067   4.425   8.325  0.8077  0.4806  0.5323
54029SOL    HW173812   5.007   4.466   8.386 -0.1629  0.0364 -0.1033
54029SOL    HW273813   5.011   4.371   8.268  1.7209  0.5983 -0.5089
54030SOL     OW73814  11.023   7.811  10.655 -0.2388 -0.6233  0.4869
54030SOL    HW173815  11.061   7.898  10.668 -0.4614 -0.6387  1.3362
54030SOL    HW273816  10.963   7.801  10.729 -0.6800 -1.2504  0.0480
54031SOL     OW73817   7.574  12.851  11.826 -0.1772 -0.2369  0.2071
54031SOL    HW173818   7.649  12.908  11.842  0.3457 -1.0552  0.7045
54031SOL    HW273819   7.590  12.815  11.739  0.2521 -0.7609  0.4941
54032SOL     OW73820   1.070   7.280   4.789 -0.0824 -0.3135 -0.0722
54032SOL    HW173821   1.154   7.320   4.768 -0.1135 -0.8310 -1.2939
54032SOL    HW273822   1.092   7.192   4.819 -0.1644 -0.3526 -0.1240
54033SOL     OW73823  10.521   6.611   3.818 -0.3508  0.3044  0.2837
54033SOL    HW173824  10.576   6.552   3.870 -0.6744  0.0747  0.3664
54033SOL    HW273825  10.580   6.645   3.751 -0.4890 -1.1743 -0.6309
54034SOL     OW73826  12.352   5.859   5.596 -0.0386 -0.2203 -0.6354
54034SOL    HW173827  12.317   5.842   5.508  0.8110 -0.8244 -0.8767
54034SOL    HW273828  12.368   5.771   5.632 -1.8006 -0.0368  0.7383
54035SOL     OW73829   7.957   9.977   7.978  0.4981  0.2158 -0.3642
54035SOL    HW173830   7.961   9.915   8.052  0.2455 -0.2875 -0.7609
54035SOL    HW273831   7.920  10.057   8.016  3.4670  1.1562  0.8068
54036SOL     OW73832  11.843   7.093   4.165 -0.8472  0.3341 -0.4680
54036SOL    HW173833  11.859   7.101   4.259  1.5609 -1.8757 -0.5655
54036SOL    HW273834  11.780   7.021   4.158  0.7570 -1.1675 -0.5007
54037SOL     OW73835   3.825   5.865   8.321  0.4162  0.6158 -0.1022
54037SOL    HW173836   3.823   5.865   8.225  0.6853  0.3040 -0.1080
54037SOL    HW273837   3.906   5.911   8.342 -1.3552  4.0017  0.0213
54038SOL     OW73838   3.234   9.229   8.959  0.0048  0.2135  0.2242
54038SOL    HW173839   3.251   9.136   8.966 -0.1930  0.1187 -0.4331
54038SOL    HW273840   3.313   9.265   8.919  0.1829  0.3700  0.7107
54039SOL     OW73841   0.334  10.617   6.277  0.4215  0.1079 -0.4305
54039SOL    HW173842   0.389  10.544   6.249 -3.0149 -3.1416  0.4319
54039SOL    HW273843   0.260  10.615   6.217  0.0830  2.8560 -0.2091
54040SOL     OW73844   5.166   8.855   3.190  0.5225  0.2197  0.3360
54040SOL    HW173845   5.071   8.866   3.179  0.5191 -0.4286 -0.4521
54040SOL    HW273846   5.199   8.943   3.210 -0.0728  0.7337 -0.8264
54041SOL     OW73847   0.294  12.628   6.105 -0.1613 -0.0684  0.4278
54041SOL    HW173848   0.251  12.707   6.139 -0.5953  0.0318 -0.3260
54041SOL    HW273849   0.384  12.634   6.137 -0.1784  0.7597  0.3458
54042SOL     OW73850   1.060  10.906  10.522 -0.3398 -0.0231 -0.0869
54042SOL    HW173851   1.115  10.959  10.465 -0.4011  1.4442  1.1342
54042SOL    HW273852   1.119  10.840  10.558 -0.3218 -1.0137 -1.8561
54043SOL     OW73853   3.701   1.766   5.831 -0.4596  0.1006 -0.0033
54043SOL    HW173854   3.727   1.857   5.846  0.2803  0.0748 -1.0118
54043SOL    HW273855   3.720   1.751   5.738 -1.4318 -0.8075 -0.0693
54044SOL     OW73856   6.535   7.519   1.056 -0.3861 -0.2026 -0.4020
54044SOL    HW173857   6.517   7.448   1.118 -0.2931  0.0936 -0.0361
54044SOL    HW273858   6.511   7.482   0.971 -0.8548 -0.4879 -0.1523
54045SOL     OW73859   2.670   5.038   1.063  0.8024 -0.5004  0.1407
54045SOL    HW173860   2.732   4.995   1.121 -0.4154  1.9579  3.6480
54045SOL    HW273861   2.676   5.131   1.087 -1.4847  0.3386 -2.1102
54046SOL     OW73862   4.051   8.136  11.249 -0.5019  0.4550 -0.1523
54046SOL    HW173863   4.027   8.089  11.329 -0.6312 -0.2128 -0.5797
54046SOL    HW273864   4.142   8.114  11.234 -0.2695  1.1463  0.1929
54047SOL     OW73865  12.333  12.941   4.126 -0.5441  0.3758  0.4060
54047SOL    HW173866  12.341  12.997   4.203  1.0743 -0.6449  1.0280
54047SOL    HW273867  12.390  12.981   4.061 -1.2534  0.7596  0.0036
54048SOL     OW73868   8.790   8.003  10.066 -0.0655  0.4413 -0.0677
54048SOL    HW173869   8.746   8.062  10.005 -0.0317  2.3425  1.6278
54048SOL    HW273870   8.726   7.989  10.136  0.3288 -0.7042  0.0982
54049SOL     OW73871   2.773   7.875  12.659 -0.6532  0.1279 -0.0190
54049SOL    HW173872   2.679   7.890  12.670 -0.0978  2.8318  2.1257
54049SOL    HW273873   2.804   7.952  12.612  0.6068 -0.3714 -0.0368
54050SOL     OW73874   9.590   3.100   6.057  0.1406 -0.5024 -0.1653
54050SOL    HW173875   9.652   3.058   6.117 -0.7585 -1.2105  0.3052
54050SOL    HW273876   9.516   3.125   6.113 -1.6878 -3.0675 -1.2074
54051SOL     OW73877   6.959   7.765   6.184  0.4689  0.2837 -0.2790
54051SOL    HW173878   6.985   7.857   6.189  0.1957  0.3446  0.0821
54051SOL    HW273879   7.018   7.720   6.244 -1.1003  0.6263  1.6567
54052SOL     OW73880  13.265   3.669   7.263 -0.3016 -0.0711  0.2176
54052SOL    HW173881  13.330   3.660   7.332 -0.6445  0.3498  0.5975
54052SOL    HW273882  13.191   3.616   7.292 -0.6954  0.6151  0.4781
54053SOL     OW73883  11.210   8.958   6.149 -0.2348  0.2229 -0.4377
54053SOL    HW173884  11.235   9.050   6.159  1.7403 -0.2819 -0.3636
54053SOL    HW273885  11.182   8.931   6.237  3.3867 -0.3550  0.6960
54054SOL     OW73886   8.908   1.764  11.453  0.1545 -0.4556 -0.4813
54054SOL    HW173887   8.970   1.747  11.382 -1.5558  0.8589 -2.4195
54054SOL    HW273888   8.836   1.810  11.410 -1.0790  0.1679  2.1065
54055SOL     OW73889   4.807   2.563   4.427 -0.1967  0.3039 -0.0481
54055SOL    HW173890   4.786   2.588   4.517 -0.3891  1.0706 -0.2960
54055SOL    HW273891   4.730   2.589   4.376 -0.2654 -0.5091 -0.3758
54056SOL     OW73892  12.256   3.493   8.650  0.2229 -0.3194 -0.4052
54056SOL    HW173893  12.311   3.515   8.725  1.0303 -0.3584 -0.9782
54056SOL    HW273894  12.168   3.483   8.687  0.8087 -1.5687  0.7361
54057SOL     OW73895  12.204   8.655   4.120 -0.1169 -0.0117  0.1695
54057SOL    HW173896  12.251   8.611   4.049 -0.4605 -0.2956  0.1172
54057SOL    HW273897  12.138   8.708   4.075 -0.0534  0.1443  0.2579
54058SOL     OW73898   0.110   5.403   9.975  0.3564 -0.1674  0.0169
54058SOL    HW173899   0.103   5.450  10.059 -1.9477 -1.5530  0.7156
54058SOL    HW273900   0.075   5.316   9.994  1.3458 -1.0768 -2.0288
54059SOL     OW73901   4.540  10.985   0.608 -0.1968 -0.4202 -0.1943
54059SOL    HW173902   4.582  10.930   0.542 -1.2279  0.0058 -1.2396
54059SOL    HW273903   4.494  10.922   0.665  3.6444 -1.1732  2.5262
54060SOL     OW73904  12.561   1.710   4.740 -0.0107  0.2843  0.5874
54060SOL    HW173905  12.542   1.804   4.748  1.4397  0.6809 -0.1441
54060SOL    HW273906  12.656   1.704   4.756 -0.2886 -1.2329  1.8481
54061SOL     OW73907   4.753  12.670   7.071  0.5824 -0.2741 -0.8202
54061SOL    HW173908   4.754  12.726   6.994  0.3026  1.3208  0.2990
54061SOL    HW273909   4.669  12.689   7.114  1.6914  0.6054  1.0786
54062SOL     OW73910  10.767  10.375   7.519  0.3745  0.1887  0.0881
54062SOL    HW173911  10.737  10.460   7.487 -2.0297 -0.5560  0.2405
54062SOL    HW273912  10.760  10.316   7.444  1.3882 -0.0711  0.1698
54063SOL     OW73913   5.285   8.732   9.638  0.5666 -0.7934  0.3943
54063SOL    HW173914   5.332   8.721   9.721 -0.6852  2.0049  1.6039
54063SOL    HW273915   5.197   8.759   9.663 -0.0128 -0.3641 -1.8634
54064SOL     OW73916   5.570   3.978   9.752  0.4358 -0.9803  0.3122
54064SOL    HW173917   5.652   3.985   9.703  0.1318 -1.1265 -0.2176
54064SOL    HW273918   5.592   4.012   9.839  0.7774  0.0175 -0.1492
54065SOL     OW73919   0.336  12.792  13.592  0.0840  0.4084 -0.4460
54065SOL    HW173920   0.392  12.827  13.523  0.9380 -1.0196 -0.5247
54065SOL    HW273921   0.250  12.780  13.550 -0.5046  3.1124 -0.1799
54066SOL     OW73922   6.616   0.692  11.549  0.4080  0.0020 -0.8569
54066SOL    HW173923   6.695   0.642  11.569  0.9684  1.3846  0.5946
54066SOL    HW273924   6.647   0.782  11.536 -1.0804  1.0136  1.7974
54067SOL     OW73925  10.786   7.662  12.995 -0.3287 -0.5623 -0.1067
54067SOL    HW173926  10.833   7.586  12.961  1.6391  0.8102 -0.6449
54067SOL    HW273927  10.822   7.675  13.083  1.7280  1.5244 -1.1514
54068SOL     OW73928   8.560   3.919  12.052  0.2510  0.5498  0.0721
54068SOL    HW173929   8.623   3.971  12.002  0.8424 -0.8745 -0.7313
54068SOL    HW273930   8.493   3.982  12.079  2.6478  2.4054  2.1497
54069SOL     OW73931  10.397   8.646   1.418  0.0537  0.2442  0.1857
54069SOL    HW173932  10.414   8.725   1.468 -0.8315 -0.0987  1.0748
54069SOL    HW273933  10.476   8.593   1.428  0.8074  1.1506 -0.7348
54070SOL     OW73934   6.951   0.172   6.621  0.1295 -0.2533  0.1558
54070SOL    HW173935   7.031   0.150   6.572 -0.0043 -0.5323  0.0649
54070SOL    HW273936   6.896   0.095   6.614 -0.5502  0.2815 -0.5966
54071SOL     OW73937   9.653   3.954   3.789  0.3430  0.2328  0.1280
54071SOL    HW173938   9.700   4.007   3.853 -0.1759 -0.3394  1.0079
54071SOL    HW273939   9.575   3.923   3.836 -0.0117 -0.2663 -0.7564
54072SOL     OW73940   9.917   1.135   9.869 -0.7563  0.9549 -0.5153
54072SOL    HW173941   9.862   1.159   9.943 -1.8949  0.0246 -1.0229
54072SOL    HW273942  10.006   1.153   9.898 -1.2816  1.9071  0.5587
54073SOL     OW73943   3.704  10.469   4.312 -0.2142  0.6626 -0.3711
54073SOL    HW173944   3.759  10.522   4.370 -1.2164 -0.7556  2.0025
54073SOL    HW273945   3.761  10.448   4.238  1.3238  2.0300  0.3601
54074SOL     OW73946   6.000   9.134   0.721  0.0172  0.4323 -0.1648
54074SOL    HW173947   6.061   9.060   0.718 -0.6297 -0.1202  0.0382
54074SOL    HW273948   5.959   9.135   0.634 -1.0664 -0.4032  0.3135
54075SOL     OW73949   2.955   3.910   1.491  0.3823 -0.1186  0.3888
54075SOL    HW173950   2.994   3.950   1.413  0.5479 -0.7481  0.1445
54075SOL    HW273951   2.977   3.970   1.562 -0.6286  0.9923 -0.1979
54076SOL     OW73952   5.790  11.894  12.746 -0.6656  0.1007  0.0201
54076SOL    HW173953   5.769  11.890  12.839 -0.5687 -3.4932  0.0216
54076SOL    HW273954   5.704  11.900  12.703 -0.8439 -0.3361  0.3081
54077SOL     OW73955   4.493   2.298   2.793 -0.4944  0.4041  0.3899
54077SOL    HW173956   4.423   2.234   2.791  1.3144 -1.7568  1.8767
54077SOL    HW273957   4.544   2.281   2.713 -0.1828  0.1978  0.6316
54078SOL     OW73958  10.766  11.713   4.886  0.5107 -0.2236  0.2938
54078SOL    HW173959  10.671  11.713   4.896  0.1128  0.0962 -2.5471
54078SOL    HW273960  10.781  11.757   4.802  3.1897 -0.2031  0.6960
54079SOL     OW73961   6.296   1.950  12.251  0.1329 -0.4522  0.4436
54079SOL    HW173962   6.363   1.990  12.306  1.5152 -3.0332  0.7964
54079SOL    HW273963   6.213   1.978  12.289  1.0444 -0.6157  2.6732
54080SOL     OW73964   9.824   3.417  10.710 -0.2630 -0.2221 -0.3277
54080SOL    HW173965   9.785   3.465  10.637  0.4731  1.5939  0.4053
54080SOL    HW273966   9.751   3.401  10.770 -0.5142  0.0894 -0.5468
54081SOL     OW73967   4.025  11.882  12.455 -0.5443 -0.2697 -0.5689
54081SOL    HW173968   4.057  11.932  12.379  0.1444  0.8433  0.4223
54081SOL    HW273969   3.932  11.904  12.460 -0.3058  0.7125 -0.3112
54082SOL     OW73970  11.534   0.428   0.586  0.0810 -0.2389 -0.3596
54082SOL    HW173971  11.562   0.463   0.502  3.1550 -0.7548  0.3291
54082SOL    HW273972  11.580   0.482   0.651 -1.6324 -0.3187  0.9943
54083SOL     OW73973   7.766   5.862   9.205  0.4149 -0.3336 -0.2156
54083SOL    HW173974   7.689   5.917   9.190 -0.5536 -1.9164 -1.2091
54083SOL    HW273975   7.785   5.823   9.120  1.3665 -1.1852  0.3732
54084SOL     OW73976   1.120   6.013   6.913  0.2841  0.3747  0.0040
54084SOL    HW173977   1.062   5.951   6.868  0.0214 -0.1333  1.0008
54084SOL    HW273978   1.091   6.009   7.005  3.9500 -2.4302  1.2905
54085SOL     OW73979   2.446  11.218   9.503  0.2130 -0.2891  0.4132
54085SOL    HW173980   2.388  11.243   9.431  0.7809 -0.9751 -0.2880
54085SOL    HW273981   2.390  11.167   9.562 -0.4724  0.9909  0.9180
54086SOL     OW73982   4.784   4.832   8.539  0.7294  0.0550 -0.1416
54086SOL    HW173983   4.791   4.878   8.455  0.6197 -0.9571 -0.7261
54086SOL    HW273984   4.712   4.876   8.585 -1.3407 -1.3029 -1.8873
54087SOL     OW73985   8.538   3.169   1.639  0.0462 -0.3221 -0.0517
54087SOL    HW173986   8.473   3.210   1.582 -0.3065 -0.6343  0.1165
54087SOL    HW273987   8.600   3.127   1.580  1.2776  1.6926 -0.2855
54088SOL     OW73988  11.347  13.556  13.719 -0.1239  0.3122  0.6689
54088SOL    HW173989  11.291  13.480  13.735 -2.0934  0.7819 -2.9854
54088SOL    HW273990  11.409  13.526  13.653  0.2631  1.3689  0.5319
54089SOL     OW73991  12.538   2.899   2.688 -0.2946 -0.3301 -0.1749
54089SOL    HW173992  12.536   2.812   2.648  1.6510  0.3425 -1.9330
54089SOL    HW273993  12.502   2.957   2.621 -2.8687  0.1360  1.4855
54090SOL     OW73994   8.597   1.873   0.786 -0.2456 -0.0292  0.3785
54090SOL    HW173995   8.587   1.868   0.691  0.7566  1.3022  0.1732
54090SOL    HW273996   8.507   1.874   0.820 -0.6774  1.6065 -0.7056
54091SOL     OW73997   6.431   2.068   7.547 -0.1826 -0.0198  0.0360
54091SOL    HW173998   6.400   2.156   7.524 -0.6553 -0.6997 -2.2033
54091SOL    HW273999   6.383   2.047   7.627  0.5330  2.0352  1.0758
54092SOL     OW74000   1.666  13.458   1.464 -0.1352 -0.1810  0.2900
54092SOL    HW174001   1.694  13.367   1.453 -0.1595 -0.4411  2.0633
54092SOL    HW274002   1.570  13.454   1.462 -0.1305 -0.0885 -0.2831
54093SOL     OW74003   8.209  12.762   8.327 -0.5131 -0.1627 -0.0249
54093SOL    HW174004   8.145  12.694   8.350 -0.5593  0.2832  1.2603
54093SOL    HW274005   8.293  12.716   8.326 -0.5018 -0.1985  1.1683
54094SOL     OW74006   8.589   6.715   5.455  0.0429  0.1766  0.1667
54094SOL    HW174007   8.594   6.782   5.522  0.7895  0.5963 -0.2933
54094SOL    HW274008   8.531   6.751   5.388 -3.4395 -1.5459  1.9799
54095SOL     OW74009  11.283   3.013   5.667  0.0132 -0.2157 -0.2283
54095SOL    HW174010  11.304   2.961   5.744  0.5142 -0.2446 -0.3852
54095SOL    HW274011  11.227   3.084   5.700  0.4850 -0.0481  0.2083
54096SOL     OW74012   7.362  10.781   5.729  0.5794 -0.1000  0.4374
54096SOL    HW174013   7.423  10.849   5.758  2.0178 -1.1381 -0.0789
54096SOL    HW274014   7.315  10.821   5.655  2.0640  0.0326 -0.4658
54097SOL     OW74015   3.671  12.807   4.085  0.1713 -0.6398  0.4840
54097SOL    HW174016   3.584  12.835   4.055  0.6517 -0.1852 -0.5445
54097SOL    HW274017   3.665  12.711   4.088  0.0171 -0.6912 -0.8792
54098SOL     OW74018   4.798   9.688   3.376  0.5626  0.0738 -0.1859
54098SOL    HW174019   4.860   9.616   3.362  0.1919 -0.1398 -0.7567
54098SOL    HW274020   4.749   9.693   3.294 -0.9169 -0.4694  0.6239
54099SOL     OW74021   9.222  11.392  12.514 -0.1634 -0.3352  0.7185
54099SOL    HW174022   9.260  11.307  12.495  0.4310  0.2060 -0.6338
54099SOL    HW274023   9.277  11.428  12.584 -0.8427 -1.3137  1.7965
54100SOL     OW74024  11.169   6.060   4.487 -0.4522 -0.0635 -0.3673
54100SOL    HW174025  11.202   6.104   4.408 -0.2540 -1.8085 -1.3232
54100SOL    HW274026  11.242   6.064   4.549 -0.5018  1.0735 -0.3572
54101SOL     OW74027   3.734   8.995   8.035  0.1695  0.0691  0.3031
54101SOL    HW174028   3.686   9.069   8.073  0.8061  0.2125  0.8432
54101SOL    HW274029   3.680   8.967   7.961 -0.2897  0.8015  0.3517
54102SOL     OW74030   2.697   2.407   9.432 -0.0314  0.3881 -0.1603
54102SOL    HW174031   2.606   2.415   9.462 -0.7176 -1.2104 -1.6131
54102SOL    HW274032   2.720   2.316   9.451  1.0754  0.6219 -0.3347
54103SOL     OW74033   4.761   2.785   6.577 -0.0000 -0.1257 -0.1672
54103SOL    HW174034   4.792   2.866   6.617  0.7182 -1.0273  1.1891
54103SOL    HW274035   4.784   2.794   6.484  3.1320 -0.1017  0.4712
54104SOL     OW74036  12.597   8.311   3.892 -0.0758 -0.2276 -0.2018
54104SOL    HW174037  12.606   8.364   3.971 -2.8945  0.8016 -0.4595
54104SOL    HW274038  12.503   8.309   3.875  0.0486 -3.7377 -1.3310
54105SOL     OW74039  10.624  12.402   5.367  0.0117 -0.5367  0.3272
54105SOL    HW174040  10.607  12.475   5.427  0.8040  0.1261 -0.2412
54105SOL    HW274041  10.651  12.444   5.286  3.9274 -1.4484  0.9724
54106SOL     OW74042  13.551   5.387  12.693 -0.2878  0.2945  0.2915
54106SOL    HW174043  13.613   5.395  12.620 -1.0066  1.1264 -0.2339
54106SOL    HW274044  13.465   5.397  12.653 -0.6658  1.4047  1.3473
54107SOL     OW74045   2.350  12.140   6.186 -0.5197  0.3232  0.3861
54107SOL    HW174046   2.386  12.137   6.275 -0.0944 -0.0961  0.2059
54107SOL    HW274047   2.382  12.223   6.150 -1.3181  0.8486  0.8797
54108SOL     OW74048  10.691   4.756  11.921  0.0230  0.0874  0.0310
54108SOL    HW174049  10.606   4.791  11.896 -0.5352 -1.0463  0.2524
54108SOL    HW274050  10.670   4.683  11.980  1.1666  0.1421  0.5328
54109SOL     OW74051   0.777   6.722  11.891  0.4376  0.0155 -0.0966
54109SOL    HW174052   0.801   6.666  11.965  2.0286 -0.4224 -0.8947
54109SOL    HW274053   0.858   6.767  11.868 -0.4087  1.3472 -0.5874
54110SOL     OW74054   4.349   1.967   4.539 -0.0204 -0.2000 -0.4027
54110SOL    HW174055   4.367   2.055   4.571 -1.5644  1.0305 -2.6326
54110SOL    HW274056   4.293   1.980   4.463 -2.4846 -3.2302  0.6633
54111SOL     OW74057   4.479  11.504   6.155 -0.5857  0.5249 -0.3863
54111SOL    HW174058   4.511  11.564   6.088 -0.1816 -0.1011 -0.7668
54111SOL    HW274059   4.415  11.449   6.110  1.1332 -1.2353 -0.8232
54112SOL     OW74060   9.460   8.626  13.188 -0.3364 -0.7372  0.6549
54112SOL    HW174061   9.379   8.587  13.220 -0.9218  1.2718  1.7933
54112SOL    HW274062   9.530   8.579  13.233 -0.9646 -0.9692  1.3955
54113SOL     OW74063  10.445  10.522   9.397  0.4079  0.4160 -0.2827
54113SOL    HW174064  10.539  10.506   9.387  0.6509 -0.1226  2.2579
54113SOL    HW274065  10.434  10.544   9.489 -2.4796 -3.6110  0.6041
54114SOL     OW74066  13.402   4.250   1.753 -0.5956  0.2955  0.1111
54114SOL    HW174067  13.496   4.246   1.737 -0.5824 -1.0321  0.4383
54114SOL    HW274068  13.385   4.342   1.773  0.6143  0.5646 -0.0430
54115SOL     OW74069  10.396  10.421   0.865 -0.2991 -0.4584 -0.0383
54115SOL    HW174070  10.313  10.413   0.912 -0.3840 -0.0721 -0.1234
54115SOL    HW274071  10.376  10.395   0.775 -0.7585  1.3942 -0.5062
54116SOL     OW74072   2.254   5.726   0.581  0.4864  0.2691  0.6780
54116SOL    HW174073   2.287   5.717   0.491 -0.8750 -0.9146  0.2547
54116SOL    HW274074   2.239   5.820   0.592  1.3550  0.5033 -0.0767
54117SOL     OW74075   1.135  10.991  12.315 -0.1008  0.6138  0.3266
54117SOL    HW174076   1.157  10.898  12.326 -0.7382  0.5066  0.7490
54117SOL    HW274077   1.219  11.035  12.313  0.2704 -0.0964 -1.0457
54118SOL     OW74078  12.330   9.934   8.093 -0.3447  0.6288  0.3166
54118SOL    HW174079  12.347   9.994   8.165  2.5975 -1.5505  1.6574
54118SOL    HW274080  12.252   9.885   8.120 -0.0961  0.7890  1.3709
54119SOL     OW74081  10.332   8.558   2.609  0.7625  0.4913 -0.0379
54119SOL    HW174082  10.278   8.517   2.542  0.2900  1.9031 -0.5718
54119SOL    HW274083  10.422   8.535   2.585  0.5891  0.8687 -1.0958
54120SOL     OW74084   8.754   6.884   4.678  0.6408  0.9550 -0.0566
54120SOL    HW174085   8.659   6.880   4.689  0.7376  0.3845  0.7114
54120SOL    HW274086   8.780   6.961   4.728  0.7825 -0.0617  1.5002
54121SOL     OW74087   0.704   0.769   0.890 -0.7067 -0.1352 -0.5303
54121SOL    HW174088   0.795   0.739   0.899 -1.2572 -1.6717  0.2624
54121SOL    HW274089   0.705   0.859   0.922  0.4858 -0.2354 -0.2407
54122SOL     OW74090   1.647   3.863   0.687 -0.8119  0.5052 -0.1375
54122SOL    HW174091   1.666   3.898   0.600  0.3883 -1.2571 -0.6398
54122SOL    HW274092   1.593   3.786   0.671 -0.2244 -0.0893  0.6150
54123SOL     OW74093   7.264   4.273   5.249  0.0620  0.9508 -0.1520
54123SOL    HW174094   7.190   4.300   5.195 -1.4128 -0.2070  1.2049
54123SOL    HW274095   7.322   4.349   5.248 -2.0324  2.6634  0.2943
54124SOL     OW74096   5.266   8.455   9.540  0.5522 -0.4484 -0.3311
54124SOL    HW174097   5.340   8.433   9.484 -0.1895  0.2103 -1.6161
54124SOL    HW274098   5.272   8.549   9.553  0.5985 -0.5594  0.5530
54125SOL     OW74099  10.275   9.763   3.645 -0.4790  0.0857  0.2288
54125SOL    HW174100  10.237   9.682   3.679  0.1016  0.3655  1.5815
54125SOL    HW274101  10.363   9.739   3.618  0.8985  0.8506  3.5945
54126SOL     OW74102  12.889  10.819  13.517 -0.2948  0.1914  0.3112
54126SOL    HW174103  12.830  10.770  13.460  0.8984 -1.1062  0.1496
54126SOL    HW274104  12.852  10.907  13.519 -1.5088 -0.2567 -0.8037
54127SOL     OW74105   9.727   2.266   1.679 -0.2895 -0.0012  0.3007
54127SOL    HW174106   9.819   2.286   1.697 -0.2751 -0.4836  0.7799
54127SOL    HW274107   9.722   2.263   1.583  0.0903  0.4860  0.2602
54128SOL     OW74108   3.841  10.832   7.071 -0.0836  0.1702  0.1991
54128SOL    HW174109   3.822  10.819   6.978  0.4848  0.9158 -0.0283
54128SOL    HW274110   3.911  10.897   7.073 -0.6291  0.7614  1.1765
54129SOL     OW74111   5.839   5.799  11.091  0.2640 -0.3954 -0.3117
54129SOL    HW174112   5.829   5.746  11.170 -1.1044 -0.9026 -0.7932
54129SOL    HW274113   5.917   5.853  11.107  0.5310 -1.1408  0.9933
54130SOL     OW74114  10.580   9.469  11.701  0.4087  0.5533  0.0975
54130SOL    HW174115  10.582   9.458  11.796  0.1467  1.7848  0.2560
54130SOL    HW274116  10.519   9.540  11.686  0.5739  0.4790 -0.9886
54131SOL     OW74117   4.302  11.213   1.941  0.4162  0.7035 -0.3618
54131SOL    HW174118   4.304  11.121   1.964  0.4446  0.8437  0.2271
54131SOL    HW274119   4.394  11.237   1.929  0.8715  1.5797  3.4614
54132SOL     OW74120  13.168   9.008  10.364 -0.3625  0.5661 -0.0209
54132SOL    HW174121  13.081   9.014  10.404 -1.7619  1.3234 -2.8752
54132SOL    HW274122  13.156   8.951  10.288  1.3846  1.4260 -1.0247
54133SOL     OW74123   0.504   3.417   6.685  0.2985 -0.2715 -0.3031
54133SOL    HW174124   0.561   3.340   6.690  1.0868  0.3069 -0.1314
54133SOL    HW274125   0.560   3.486   6.647 -0.5261  0.0951 -0.8682
54134SOL     OW74126  12.934   2.920   4.958  0.5826 -0.7589  0.0967
54134SOL    HW174127  12.899   3.009   4.970 -2.4971 -1.3679 -2.7797
54134SOL    HW274128  12.902   2.871   5.034  0.5787  0.1518  0.6961
54135SOL     OW74129  12.176   1.639   7.592  0.2021  0.4951  0.1261
54135SOL    HW174130  12.146   1.553   7.619 -1.1641  0.9708  0.2079
54135SOL    HW274131  12.143   1.698   7.660 -0.2884  1.2832 -0.7717
54136SOL     OW74132   7.021   1.259  12.750 -0.0822  0.6438 -0.1079
54136SOL    HW174133   7.061   1.344  12.732 -0.0668  0.4777 -0.8961
54136SOL    HW274134   6.988   1.230  12.665  0.9556 -0.6727 -0.0965
54137SOL     OW74135   2.698   0.330   8.774  0.0447  0.5891  0.6180
54137SOL    HW174136   2.763   0.381   8.726 -0.2920  0.8223  0.3994
54137SOL    HW274137   2.665   0.390   8.840 -0.5970  0.7779  0.1433
54138SOL     OW74138  12.045  12.400   7.555  0.6272 -0.6997  0.4088
54138SOL    HW174139  12.046  12.304   7.546 -0.4886 -0.7540  0.7186
54138SOL    HW274140  12.123  12.419   7.607  0.8470 -1.4459  0.3726
54139SOL     OW74141   4.757   1.396   3.598  0.0139  0.5854 -0.0489
54139SOL    HW174142   4.791   1.323   3.649 -0.3079  0.1620 -0.4311
54139SOL    HW274143   4.808   1.472   3.627  0.4904  0.1729  0.2044
54140SOL     OW74144   4.138  12.499   8.425 -0.1815 -0.3641  0.0269
54140SOL    HW174145   4.225  12.509   8.464 -0.1555  1.4309 -0.3984
54140SOL    HW274146   4.115  12.408   8.441  1.1209 -0.4736  1.4998
54141SOL     OW74147   0.189   1.880  13.243  0.7124 -0.2873 -0.2584
54141SOL    HW174148   0.109   1.931  13.236  1.8482  1.7802  0.7125
54141SOL    HW274149   0.167   1.809  13.303 -0.3135  0.4120  0.2213
54142SOL     OW74150   9.861  12.014   5.832  0.1805  0.3191  0.4265
54142SOL    HW174151   9.788  12.074   5.851 -2.3095 -1.3138 -2.9404
54142SOL    HW274152   9.930  12.071   5.798 -0.2404  1.7219  1.7829
54143SOL     OW74153  11.300   6.818   0.346 -0.5670 -0.1323 -0.1202
54143SOL    HW174154  11.306   6.785   0.257 -0.0369 -1.6022  0.4386
54143SOL    HW274155  11.391   6.829   0.374 -0.7218  1.4246 -0.1322
54144SOL     OW74156  12.270   8.075   1.505  0.1745 -0.1828  0.3984
54144SOL    HW174157  12.218   8.092   1.583  1.5796  0.1674  1.3100
54144SOL    HW274158  12.218   8.108   1.432 -0.3149  1.3431  1.3991
54145SOL     OW74159   2.343   4.997   9.131 -0.2751 -0.4642  0.1249
54145SOL    HW174160   2.338   4.970   9.222  0.9566  1.6094  0.8912
54145SOL    HW274161   2.385   5.083   9.134 -0.3820 -0.2438 -2.3889
54146SOL     OW74162   1.764   0.270   3.409 -0.2235 -0.5764 -0.5208
54146SOL    HW174163   1.738   0.178   3.400  2.8855 -1.6332  0.2806
54146SOL    HW274164   1.805   0.291   3.325  1.5159 -0.8315  0.2354
54147SOL     OW74165   3.739   8.414   8.357 -0.1842  0.3566  0.0103
54147SOL    HW174166   3.651   8.402   8.394  1.0640  0.1762  3.3354
54147SOL    HW274167   3.770   8.496   8.397  1.4137  0.0521 -0.5327
54148SOL     OW74168   5.597   7.840   9.270 -0.1955  0.2437 -0.1265
54148SOL    HW174169   5.545   7.842   9.190  0.8645  1.4577 -0.8251
54148SOL    HW274170   5.534   7.823   9.340 -1.5154  1.5653 -0.9495
54149SOL     OW74171   0.971   1.593   9.262 -0.2107  0.0397  0.4566
54149SOL    HW174172   0.909   1.612   9.191 -1.6131 -1.3309  1.2707
54149SOL    HW274173   1.057   1.609   9.223 -0.9443 -0.5540 -1.5289
54150SOL     OW74174   3.793  12.416  13.143 -0.1129 -0.1542 -0.0178
54150SOL    HW174175   3.704  12.401  13.177 -0.2462  1.3562  0.3807
54150SOL    HW274176   3.807  12.346  13.080 -1.8945 -0.0211 -0.6202
54151SOL     OW74177   3.712   8.292   3.082  0.0728 -0.3320 -0.2534
54151SOL    HW174178   3.620   8.281   3.059 -0.6181  2.0735  1.0060
54151SOL    HW274179   3.750   8.339   3.007  0.2604 -1.1495 -0.6850
54152SOL     OW74180  10.605   0.515   6.613  0.1254 -0.4223 -0.2133
54152SOL    HW174181  10.550   0.588   6.585  0.5934 -0.3842 -1.0639
54152SOL    HW274182  10.576   0.441   6.560  1.2874 -0.2535 -1.1316
54153SOL     OW74183   7.430   6.279   9.273 -0.2558  0.0032  0.0525
54153SOL    HW174184   7.463   6.221   9.342  0.1885  1.5286  1.1854
54153SOL    HW274185   7.338   6.254   9.262 -0.3278 -0.2849  1.1995
54154SOL     OW74186   5.889   2.303   1.416  0.5577  1.1375  0.0739
54154SOL    HW174187   5.796   2.309   1.390 -0.2386 -3.5416  0.9910
54154SOL    HW274188   5.935   2.288   1.333 -0.5317 -2.7869 -0.0223
54155SOL     OW74189  11.222  11.623   6.738 -0.2923  0.0005 -0.1136
54155SOL    HW174190  11.223  11.707   6.694 -1.3648  1.2919  2.1270
54155SOL    HW274191  11.283  11.569   6.689  0.4347  2.0698 -1.6172
54156SOL     OW74192   0.216   9.875   5.885  0.4727 -0.2065 -0.4023
54156SOL    HW174193   0.302   9.905   5.855  0.5010 -0.5385 -0.6581
54156SOL    HW274194   0.166   9.860   5.804 -0.3846  1.5553 -0.2659
54157SOL     OW74195   2.634   8.916   4.396  0.0813 -0.5135 -0.3444
54157SOL    HW174196   2.716   8.868   4.389  0.7116  0.7065 -2.1704
54157SOL    HW274197   2.660   9.006   4.415 -0.7700 -0.0239 -1.3632
54158SOL     OW74198   4.818   5.548   7.927  0.8860 -0.4180  0.1579
54158SOL    HW174199   4.751   5.485   7.901  1.0384 -0.4201 -0.2487
54158SOL    HW274200   4.819   5.545   8.022  0.1494 -0.2478  0.1725
54159SOL     OW74201   8.005   0.707   2.101 -0.6562  0.2528  0.1452
54159SOL    HW174202   7.977   0.686   2.012 -0.1209 -1.5165  0.3559
54159SOL    HW274203   7.924   0.722   2.149 -1.0323 -0.4775 -0.2539
54160SOL     OW74204  11.851   7.923  12.978 -0.0830 -0.5442  0.4571
54160SOL    HW174205  11.878   7.856  12.915  0.8342 -0.1296  0.3963
54160SOL    HW274206  11.930   7.973  12.996 -0.6160  0.1408  0.9782
54161SOL     OW74207   3.892   7.743   2.011 -0.2571  0.3494  0.2585
54161SOL    HW174208   3.850   7.670   2.056 -0.2062 -0.6787 -1.2896
54161SOL    HW274209   3.839   7.819   2.034 -2.1464 -0.6781 -0.4757
54162SOL     OW74210  11.641   5.484   2.891 -0.0809  0.0819 -0.2125
54162SOL    HW174211  11.650   5.401   2.843  2.0046  0.6766 -0.9452
54162SOL    HW274212  11.565   5.470   2.948 -1.0481 -1.5798 -1.7933
54163SOL     OW74213   0.256   7.701  11.514  0.4575 -0.1615  0.6404
54163SOL    HW174214   0.174   7.670  11.552  0.9472 -2.0340  0.2356
54163SOL    HW274215   0.230   7.747  11.434 -0.1641 -1.3838  0.1221
54164SOL     OW74216   8.525   0.448   5.608 -0.3006 -0.1664  0.2995
54164SOL    HW174217   8.541   0.527   5.659  2.0479 -0.0092 -0.5497
54164SOL    HW274218   8.559   0.469   5.520  1.3838 -2.4044  0.3297
54165SOL     OW74219  11.171   9.386   7.935 -0.2921 -0.1259 -0.0294
54165SOL    HW174220  11.082   9.419   7.948  0.2759  1.0714  0.9751
54165SOL    HW274221  11.200   9.424   7.852 -1.1479 -1.5473 -1.0179
54166SOL     OW74222  13.268   0.434   9.940  0.1553  0.0945 -0.2100
54166SOL    HW174223  13.178   0.457   9.915 -0.9701 -2.1970  1.4431
54166SOL    HW274224  13.300   0.380   9.868 -0.1507  0.0944 -0.3484
54167SOL     OW74225   0.139   3.633   6.065  0.6627 -0.0008 -0.0010
54167SOL    HW174226   0.188   3.553   6.078  0.9237  0.1043 -0.3453
54167SOL    HW274227   0.205   3.702   6.060  0.3911  0.4278  1.6349
54168SOL     OW74228   1.733  12.721   3.349 -0.5938  0.6537 -0.0654
54168SOL    HW174229   1.729  12.803   3.397 -0.0498  0.8032 -0.2597
54168SOL    HW274230   1.810  12.676   3.385 -0.1531  0.7899 -0.8093
54169SOL     OW74231  11.175   3.175   0.537 -0.8641 -0.0449  0.3091
54169SOL    HW174232  11.126   3.175   0.455 -0.7979 -0.9387  0.2640
54169SOL    HW274233  11.246   3.112   0.524 -1.4219 -0.9230  1.3797
54170SOL     OW74234   6.273  13.384   3.206  0.0721  0.3559  0.2244
54170SOL    HW174235   6.316  13.330   3.139 -0.3540 -1.0948  1.0665
54170SOL    HW274236   6.181  13.385   3.180  0.1714  1.2100 -0.1173
54171SOL     OW74237   0.420   9.705   7.815  0.4068 -0.2709  0.2700
54171SOL    HW174238   0.326   9.709   7.803  0.1391 -0.3200  2.0319
54171SOL    HW274239   0.448   9.797   7.814  0.1814 -0.1928  0.6990
54172SOL     OW74240  11.224  11.823   2.984 -0.1831 -0.5654  0.4586
54172SOL    HW174241  11.151  11.854   2.931  0.2854  0.0141  0.1434
54172SOL    HW274242  11.191  11.823   3.073 -0.6465 -0.5500  0.2890
54173SOL     OW74243  10.156   1.789   4.776 -0.0553  0.1517 -0.8325
54173SOL    HW174244  10.186   1.711   4.823 -0.8188  0.5975  0.4515
54173SOL    HW274245  10.185   1.862   4.831 -0.5407  0.7223 -1.3233
54174SOL     OW74246  13.269  12.445  12.108 -0.1695  0.2759 -0.2846
54174SOL    HW174247  13.175  12.452  12.120 -0.0444 -0.3414  1.3245
54174SOL    HW274248  13.290  12.355  12.131  0.8058  0.3689 -0.7472
54175SOL     OW74249   7.277   5.879   9.342 -0.2447 -0.2678 -0.1687
54175SOL    HW174250   7.243   5.795   9.311  1.9166 -1.8529  1.3922
54175SOL    HW274251   7.346   5.902   9.280 -1.6132  1.0458 -1.2729
54176SOL     OW74252   9.146   9.457   0.138  0.6393  0.5898 -0.0897
54176SOL    HW174253   9.110   9.381   0.183  3.9526 -0.5620  0.8339
54176SOL    HW274254   9.189   9.422   0.061  0.0066  1.8832 -1.0671
54177SOL     OW74255   3.497   9.318   3.875  0.2861 -0.4903  0.6050
54177SOL    HW174256   3.499   9.414   3.870  0.9124 -0.4816  0.9445
54177SOL    HW274257   3.410   9.294   3.844  1.0740  0.0260 -2.3551
54178SOL     OW74258  10.028  13.579   5.593  0.0525  0.0090  0.1896
54178SOL    HW174259  10.096  13.614   5.651  0.6849  0.4718 -0.8017
54178SOL    HW274260  10.010  13.492   5.628  1.9417 -0.5624 -0.1428
54179SOL     OW74261  10.337  10.526   3.942 -0.0028 -0.2147 -0.3585
54179SOL    HW174262  10.365  10.571   3.863  1.4000  0.3671  0.4336
54179SOL    HW274263  10.306  10.441   3.912 -1.1515  0.6275 -1.6988
54180SOL     OW74264   5.263   5.255  13.133  0.2624  0.4061  0.1159
54180SOL    HW174265   5.268   5.341  13.090  1.3517 -0.4758 -1.6260
54180SOL    HW274266   5.172   5.228  13.121  0.1498  0.8927 -0.1631
54181SOL     OW74267  11.764   9.862  12.055 -0.1043 -0.1374 -0.1121
54181SOL    HW174268  11.703   9.867  11.982  0.5112  0.4984 -0.5898
54181SOL    HW274269  11.831   9.800  12.027  0.3082  0.3553 -0.2203
54182SOL     OW74270  11.511   2.041   2.151 -0.3652 -0.3309 -0.4697
54182SOL    HW174271  11.507   1.946   2.143  1.3705 -0.4258 -0.5591
54182SOL    HW274272  11.482   2.060   2.240 -0.7225 -0.9500 -0.4552
54183SOL     OW74273   1.705  12.069   5.006  0.3199 -0.3785 -0.3025
54183SOL    HW174274   1.757  12.034   5.079 -0.0725 -1.5613 -0.5705
54183SOL    HW274275   1.678  11.992   4.957  0.1203  0.3702 -1.4035
54184SOL     OW74276   7.375   8.704  13.705 -0.2017  0.2180  0.2175
54184SOL    HW174277   7.397   8.618  13.667 -0.1547 -0.0379  0.8206
54184SOL    HW274278   7.426   8.766  13.652 -2.0970  0.1445 -1.8550
54185SOL     OW74279  13.234   5.911   6.233 -0.2969  0.1660 -0.4487
54185SOL    HW174280  13.330   5.910   6.238 -0.1750 -0.1404 -2.2645
54185SOL    HW274281  13.212   5.831   6.186 -1.3737  0.8510 -1.1347
54186SOL     OW74282   0.291   2.567   6.998 -0.6859 -0.2358 -0.1649
54186SOL    HW174283   0.366   2.512   6.973 -1.2303 -1.5031  0.8501
54186SOL    HW274284   0.330   2.636   7.053  0.1721  1.1830 -2.4207
54187SOL     OW74285   3.660   2.498  13.344 -0.2268  0.0195  0.1669
54187SOL    HW174286   3.582   2.543  13.376  0.4734  1.3343  0.0767
54187SOL    HW274287   3.675   2.534  13.257 -0.1508 -1.0532 -0.2909
54188SOL     OW74288  10.713  11.812   0.805  1.4139  0.0461 -0.6572
54188SOL    HW174289  10.777  11.880   0.828  0.8710  0.3565 -0.0429
54188SOL    HW274290  10.720  11.748   0.875 -1.6453  1.9532  1.6206
54189SOL     OW74291   4.995   2.895   6.303  0.1691  0.3922 -0.6971
54189SOL    HW174292   5.032   2.977   6.269 -1.6207  1.2719 -0.6368
54189SOL    HW274293   5.063   2.860   6.360  0.6083  2.3581  0.0582
54190SOL     OW74294  10.820   2.903   0.226  0.3949 -0.0585 -0.0714
54190SOL    HW174295  10.898   2.847   0.224  0.6751  0.3412 -1.0349
54190SOL    HW274296  10.805   2.927   0.135 -1.1623 -0.5138  0.0375
54191SOL     OW74297  12.205   5.619  12.195 -0.0973  0.1180 -0.4264
54191SOL    HW174298  12.127   5.627  12.249  0.2574 -1.8175  0.4491
54191SOL    HW274299  12.174   5.577  12.114  0.0673 -1.0242  0.0842
54192SOL     OW74300   4.109  13.081  13.398 -0.0162  0.1198  0.1460
54192SOL    HW174301   4.033  13.027  13.378 -0.0654  0.4408 -0.5604
54192SOL    HW274302   4.132  13.059  13.488  0.0688 -1.2101 -0.1844
54193SOL     OW74303   9.587   3.876   2.931 -0.3218  0.1890  0.4325
54193SOL    HW174304   9.619   3.788   2.948 -2.1632 -0.4507  0.7776
54193SOL    HW274305   9.575   3.880   2.836  2.6097  1.1548 -0.0096
54194SOL     OW74306   2.969   5.506   0.753  0.1093  0.1680  0.3429
54194SOL    HW174307   2.968   5.411   0.745 -0.3611  0.2614 -0.8524
54194SOL    HW274308   3.061   5.530   0.741  0.4210 -0.1920  1.7566
54195SOL     OW74309   8.303   2.010   7.932 -0.0137 -0.3934  0.0821
54195SOL    HW174310   8.263   1.977   8.013 -0.9394 -2.1310 -1.0160
54195SOL    HW274311   8.370   1.946   7.911  0.2291  0.0539 -0.5196
54196SOL     OW74312   7.889   9.059   6.008 -0.2989 -0.9002  0.3645
54196SOL    HW174313   7.816   9.118   5.988 -0.7241 -1.6981 -0.5489
54196SOL    HW274314   7.858   8.973   5.979  1.0803 -1.2296 -0.1951
54197SOL     OW74315   4.965   5.351  10.883 -0.7022  0.0839  0.2975
54197SOL    HW174316   4.956   5.395  10.967  0.2615  1.1595 -0.1460
54197SOL    HW274317   4.875   5.330  10.858 -1.4002  3.2344 -0.2219
54198SOL     OW74318   2.854   3.840   7.053 -0.3908  0.3524 -0.1109
54198SOL    HW174319   2.916   3.769   7.071  0.8534  1.4654  0.2352
54198SOL    HW274320   2.780   3.798   7.011  0.3083 -1.1458  0.0935
54199SOL     OW74321   8.509   9.601  11.227 -0.1387 -0.3820 -0.5324
54199SOL    HW174322   8.565   9.672  11.196 -0.9078  0.8732  0.8315
54199SOL    HW274323   8.421   9.637  11.223 -0.4051 -0.6973  1.5908
54200SOL     OW74324   9.924   9.592  12.857 -0.0454  0.2216 -0.1095
54200SOL    HW174325   9.956   9.636  12.779 -0.6723  0.6802 -0.1159
54200SOL    HW274326   9.907   9.502  12.828  2.4248 -0.4286  0.2081
54201SOL     OW74327  13.127   1.725   6.075  0.4550  0.8330 -0.5497
54201SOL    HW174328  13.179   1.721   5.994  0.8307  1.1946 -0.3316
54201SOL    HW274329  13.189   1.703   6.144 -0.1179 -0.5559 -0.4568
54202SOL     OW74330   0.280  10.846   7.981  0.0618 -1.0854 -0.2557
54202SOL    HW174331   0.322  10.762   7.965  0.3596 -0.6528 -1.9198
54202SOL    HW274332   0.251  10.876   7.894  2.6755  1.9477 -0.2694
54203SOL     OW74333   9.663   2.011   5.580 -0.2100  0.0817  0.1468
54203SOL    HW174334   9.682   2.104   5.595 -2.2131  0.3076  1.7537
54203SOL    HW274335   9.628   2.008   5.492 -2.0224  1.2430  0.7674
54204SOL     OW74336   5.197   7.651  13.418 -0.3884  0.4512  0.8406
54204SOL    HW174337   5.264   7.682  13.357 -1.1063  0.2475 -0.0738
54204SOL    HW274338   5.136   7.725  13.427 -0.6670  0.2354  0.7457
54205SOL     OW74339  10.505  11.334   2.034  0.4534 -0.7114  0.2089
54205SOL    HW174340  10.469  11.282   1.961 -0.6814  1.0966 -0.5795
54205SOL    HW274341  10.560  11.272   2.082  2.2672 -1.6927 -2.8641
54206SOL     OW74342   2.343  11.451   0.912  1.1001 -0.0841  0.5693
54206SOL    HW174343   2.425  11.413   0.942  1.6363  1.1301  0.6989
54206SOL    HW274344   2.302  11.487   0.991  0.3819 -0.7639  0.5252
54207SOL     OW74345   6.813   0.762   3.793 -0.2464  0.3461  0.2060
54207SOL    HW174346   6.754   0.687   3.806 -1.9262  1.3882 -0.9982
54207SOL    HW274347   6.870   0.735   3.721 -0.9976  0.2920 -0.3784
54208SOL     OW74348  12.535   5.950  10.870  0.0266 -0.4520  0.0866
54208SOL    HW174349  12.493   5.926  10.787  0.7460  0.1966 -0.4764
54208SOL    HW274350  12.469   6.003  10.915 -0.3579 -0.7808 -0.0827
54209SOL     OW74351  12.321  12.331   6.897 -0.5736 -0.4084 -1.0560
54209SOL    HW174352  12.378  12.403   6.870  0.2174 -0.4115  0.4669
54209SOL    HW274353  12.359  12.253   6.855 -0.5202 -0.1612 -1.4728
54210SOL     OW74354  11.489   4.669  10.402 -0.1076  0.2272  0.0200
54210SOL    HW174355  11.497   4.631  10.315  0.3770 -2.0707  1.0056
54210SOL    HW274356  11.396   4.685  10.413 -0.5784 -2.1995  0.1027
54211SOL     OW74357  13.184   9.303  12.732  0.1298  0.0572 -0.0129
54211SOL    HW174358  13.200   9.223  12.682 -0.1642  0.0201 -0.0472
54211SOL    HW274359  13.204   9.373  12.670  3.9363  0.1087  1.0141
54212SOL     OW74360  13.127   9.966  12.991 -0.4861  0.2288 -0.0959
54212SOL    HW174361  13.163   9.882  12.963 -0.9194  0.4532 -1.3596
54212SOL    HW274362  13.042   9.972  12.949 -1.2266  0.5473  1.3747
54213SOL     OW74363  11.669   4.264   0.367  0.3446 -0.4652 -0.2310
54213SOL    HW174364  11.719   4.343   0.349  0.0415  0.1917  1.5664
54213SOL    HW274365  11.728   4.192   0.342  2.0294  0.2878  1.3354
54214SOL     OW74366   1.188  12.677   3.547  0.3536  0.1126 -0.0753
54214SOL    HW174367   1.111  12.621   3.558  0.9554 -0.8261 -0.4749
54214SOL    HW274368   1.233  12.640   3.471  0.8230  1.0925 -0.2840
54215SOL     OW74369  13.315  10.556   8.020  0.1128  0.1722 -0.4119
54215SOL    HW174370  13.405  10.533   8.042  0.0575  0.2615 -0.0806
54215SOL    HW274371  13.282  10.481   7.970  0.4364  0.2327 -0.7166
54216SOL     OW74372  12.509   9.524   7.663  0.5225 -0.1407 -0.5326
54216SOL    HW174373  12.563   9.581   7.608 -0.0926 -0.4442 -1.4864
54216SOL    HW274374  12.437   9.580   7.693  0.0484 -0.3380 -1.2737
54217SOL     OW74375   8.792   9.919   9.803 -0.7567 -0.0617  0.6085
54217SOL    HW174376   8.788   9.870   9.721 -2.0001 -0.3892  0.8525
54217SOL    HW274377   8.872   9.886   9.845  1.1289  1.6427 -1.3648
54218SOL     OW74378   9.569  13.058   3.861  0.0739  0.5344 -0.0116
54218SOL    HW174379   9.616  12.978   3.884 -0.4256  0.8220  2.3619
54218SOL    HW274380   9.540  13.044   3.771  1.5341 -1.1637 -0.2869
54219SOL     OW74381   4.050  10.811   0.488 -0.2378  0.1978  0.0667
54219SOL    HW174382   3.957  10.831   0.492 -0.3076 -0.3253  1.3673
54219SOL    HW274383   4.061  10.732   0.541  0.9903  0.4285  0.1983
54220SOL     OW74384   8.972  12.304   2.502 -0.7446  0.1494  0.0945
54220SOL    HW174385   8.879  12.285   2.513 -0.6095 -1.5667 -1.2228
54220SOL    HW274386   8.992  12.368   2.570 -2.9724  0.8888  0.1271
54221SOL     OW74387  11.213   7.196   8.422  0.3079 -0.2745  0.0867
54221SOL    HW174388  11.249   7.166   8.339 -0.2038  1.8904 -1.0009
54221SOL    HW274389  11.145   7.131   8.443  0.1187 -0.6165 -1.4416
54222SOL     OW74390   4.293  10.624   9.775  0.1607 -0.2498  0.2139
54222SOL    HW174391   4.323  10.543   9.734 -0.3943 -0.5755  0.4483
54222SOL    HW274392   4.340  10.628   9.858  1.2387  0.3787 -0.4033
54223SOL     OW74393   4.248   8.496  11.409 -0.7677  0.4079 -0.1457
54223SOL    HW174394   4.248   8.411  11.451 -1.6776 -0.2123 -1.3269
54223SOL    HW274395   4.338   8.507  11.377 -0.1171  0.8164  1.7275
54224SOL     OW74396  13.237  12.594  13.140 -0.7535  0.5475  0.0562
54224SOL    HW174397  13.318  12.580  13.189 -1.2846 -0.8279  0.5788
54224SOL    HW274398  13.201  12.507  13.127 -2.2605  1.1475  0.0078
54225SOL     OW74399   7.871   3.169   1.957  0.3802  0.1876 -0.3250
54225SOL    HW174400   7.884   3.191   2.049  2.6921 -1.3088 -0.1976
54225SOL    HW274401   7.913   3.240   1.909 -2.5508  2.0322 -0.4098
54226SOL     OW74402  11.801   2.842   0.370  0.1125 -0.2130 -0.6322
54226SOL    HW174403  11.790   2.887   0.453 -1.0615 -0.0815 -0.8401
54226SOL    HW274404  11.740   2.769   0.374 -1.1520  0.7202 -1.9987
54227SOL     OW74405  11.302   9.524   8.849 -0.2023  0.4600 -0.0963
54227SOL    HW174406  11.344   9.440   8.830  0.3987  0.6452  0.3567
54227SOL    HW274407  11.216   9.500   8.883  0.0969  0.0018  0.3667
54228SOL     OW74408   1.921   8.375  11.857 -0.0941  0.5397  0.4690
54228SOL    HW174409   2.014   8.350  11.859  0.0264  0.4528 -2.5277
54228SOL    HW274410   1.879   8.314  11.917  1.5321 -0.5596  0.5709
54229SOL     OW74411   0.043  13.074  13.680  0.3141  0.4220 -1.0288
54229SOL    HW174412  -0.022  13.109  13.740 -0.8906 -0.2577 -1.9112
54229SOL    HW274413   0.118  13.052  13.736  0.3105  2.4250 -0.1907
54230SOL     OW74414   7.169   0.887   2.829  0.5962  0.2454 -0.2767
54230SOL    HW174415   7.224   0.817   2.795  0.4803  0.9016 -1.8961
54230SOL    HW274416   7.214   0.968   2.803 -0.1451  0.7768  0.0526
54231SOL     OW74417   1.945  12.371   4.558 -0.3463 -0.0619  0.6391
54231SOL    HW174418   1.946  12.464   4.535 -2.1205  0.3580  1.9797
54231SOL    HW274419   2.027  12.357   4.605 -0.6971  1.2308  1.7241
54232SOL     OW74420   6.055   1.143  10.123  0.3499 -0.4446 -0.1442
54232SOL    HW174421   6.001   1.093  10.062  1.5004  0.0206 -1.5973
54232SOL    HW274422   5.993   1.194  10.174 -0.6262 -0.3137 -1.4150
54233SOL     OW74423   0.277   2.661  11.840 -0.1820  0.3594 -0.1003
54233SOL    HW174424   0.204   2.703  11.794 -0.5697 -0.2213 -0.0269
54233SOL    HW274425   0.338   2.637  11.770 -1.4130 -1.7982 -0.5260
54234SOL     OW74426  11.115   8.265   0.869 -0.0898 -0.6701  0.5055
54234SOL    HW174427  11.200   8.310   0.859  0.1357 -1.2420 -0.2198
54234SOL    HW274428  11.138   8.173   0.875 -0.7456 -1.0069 -1.4591
54235SOL     OW74429   4.474  11.314  11.817 -0.3461  0.0185  0.1122
54235SOL    HW174430   4.539  11.344  11.880  1.5107 -2.1396 -0.6322
54235SOL    HW274431   4.464  11.387  11.756  0.1094  0.9939  1.1667
54236SOL     OW74432   7.224   0.860   6.400 -0.1549 -0.1463  0.0276
54236SOL    HW174433   7.132   0.885   6.388  0.1294  1.7475  1.2724
54236SOL    HW274434   7.272   0.921   6.344  0.4261  0.1536  0.8358
54237SOL     OW74435   2.139  10.819   0.707  0.1427 -0.0889 -0.0700
54237SOL    HW174436   2.203  10.778   0.764 -0.0245  0.8858  0.8351
54237SOL    HW274437   2.179  10.815   0.620  0.9600 -0.4389  0.3116
54238SOL     OW74438   6.758   8.595  10.751 -0.4074  0.4532  0.6185
54238SOL    HW174439   6.792   8.511  10.720  1.1383  0.4645  2.1591
54238SOL    HW274440   6.696   8.572  10.820  0.8893  0.5735  1.8556
54239SOL     OW74441   0.048   4.007   0.334  0.2292  0.3099 -0.3386
54239SOL    HW174442   0.073   3.915   0.330  1.2909  0.4321  1.8850
54239SOL    HW274443   0.131   4.055   0.324 -0.2444  1.0390 -0.9699
54240SOL     OW74444  12.615   2.264   4.975  0.4908  0.3308  0.1422
54240SOL    HW174445  12.592   2.285   4.884 -3.5941  0.4011  1.0193
54240SOL    HW274446  12.574   2.333   5.027  1.7379 -0.3511  2.1438
54241SOL     OW74447   9.279   5.175   1.965  0.1189  0.1837 -0.2658
54241SOL    HW174448   9.261   5.132   1.881  0.6957  0.4052 -0.5015
54241SOL    HW274449   9.242   5.263   1.955 -0.4132 -0.0067 -0.0406
54242SOL     OW74450  12.253   8.967   3.691  0.4319  0.1728 -0.1046
54242SOL    HW174451  12.305   8.969   3.611  2.0138 -2.7655  0.7200
54242SOL    HW274452  12.245   9.060   3.716  4.3659  0.9137 -0.9017
54243SOL     OW74453  11.036   9.389   6.837  0.7131 -0.1430 -0.2523
54243SOL    HW174454  11.128   9.393   6.863  0.7556 -0.9424 -0.2421
54243SOL    HW274455  11.023   9.297   6.811 -0.0393  0.0021 -0.4032
54244SOL     OW74456   2.151   9.357  10.548 -0.4499  0.1896 -0.5599
54244SOL    HW174457   2.113   9.278  10.589 -1.4866  1.7708  1.7587
54244SOL    HW274458   2.084   9.386  10.486  0.4587 -1.3435 -2.3826
54245SOL     OW74459  11.811   4.607  11.018 -0.2089 -0.0592  0.1070
54245SOL    HW174460  11.756   4.677  11.053 -0.2628 -0.3379  0.5881
54245SOL    HW274461  11.759   4.528  11.032 -0.1757 -0.1869 -0.4911
54246SOL     OW74462   7.114   3.179   1.596  0.2594 -0.2850 -0.4705
54246SOL    HW174463   7.132   3.113   1.529  1.4168  1.5558 -2.0875
54246SOL    HW274464   7.095   3.259   1.546  2.5125  1.5195  1.3434
54247SOL     OW74465   5.383   6.941  12.693 -0.6861  0.0410 -0.1800
54247SOL    HW174466   5.395   6.882  12.767 -1.5233  0.4209  0.2709
54247SOL    HW274467   5.368   7.027  12.732 -3.6249 -0.1597 -0.6573
54248SOL     OW74468   8.173   1.434   1.314 -0.3598  0.5172  0.2846
54248SOL    HW174469   8.251   1.484   1.337 -1.0265  1.2040  1.1166
54248SOL    HW274470   8.150   1.464   1.227  0.6770 -0.1803 -0.2521
54249SOL     OW74471   8.055   9.855  12.228 -0.7974 -0.3431 -0.6557
54249SOL    HW174472   8.054   9.825  12.137 -0.5422 -1.5249 -0.2817
54249SOL    HW274473   7.963   9.857  12.254 -0.7944 -1.1919 -0.5666
54250SOL     OW74474   8.132   4.392   8.712 -0.6913 -0.4166  0.1227
54250SOL    HW174475   8.088   4.372   8.794 -0.6906  0.4376  0.3360
54250SOL    HW274476   8.071   4.448   8.665  0.0546  0.5719  0.3141
54251SOL     OW74477  11.057  11.115   0.321 -0.2824 -0.3004 -0.2237
54251SOL    HW174478  11.014  11.029   0.325 -0.2276 -0.4412 -1.9578
54251SOL    HW274479  11.126  11.110   0.388 -2.2212 -0.4490  1.8527
54252SOL     OW74480  12.013   6.494  11.092 -0.1490  0.2939  0.4950
54252SOL    HW174481  12.098   6.480  11.049 -0.0274 -0.8268  1.0519
54252SOL    HW274482  11.969   6.558  11.037  1.8587  2.5041  1.2910
54253SOL     OW74483   9.327   4.129   9.627  0.0066  0.7618  0.5085
54253SOL    HW174484   9.407   4.165   9.665 -0.3891 -0.2462  2.4529
54253SOL    HW274485   9.270   4.205   9.615  1.2467  1.5209 -1.0687
54254SOL     OW74486  10.425   8.651   8.688 -0.0971  0.7487 -0.1442
54254SOL    HW174487  10.448   8.618   8.775 -0.2627  1.2841  0.1062
54254SOL    HW274488  10.445   8.578   8.629 -1.2854 -0.1343  0.4959
54255SOL     OW74489  11.294   7.867   7.142  0.2573 -0.0995  0.0106
54255SOL    HW174490  11.306   7.776   7.171 -1.3444 -0.0843  0.8361
54255SOL    HW274491  11.213   7.865   7.090  1.8293  0.3218 -2.6407
54256SOL     OW74492   9.625   2.893   6.806 -0.5784 -0.1025  0.0171
54256SOL    HW174493   9.634   2.888   6.711 -1.4205 -0.5107 -0.0480
54256SOL    HW274494   9.606   2.985   6.824 -0.5213 -0.0456 -0.2197
54257SOL     OW74495   5.427   3.287   8.107  0.3182 -0.0971  0.3514
54257SOL    HW174496   5.391   3.283   8.018  1.2464 -3.0364  0.0266
54257SOL    HW274497   5.474   3.371   8.110 -0.6417  0.5548 -1.5454
54258SOL     OW74498   5.142   9.610  13.522  0.4264 -0.3247 -0.2471
54258SOL    HW174499   5.070   9.616  13.459  0.2875  0.8960  0.0042
54258SOL    HW274500   5.140   9.694  13.568  3.7452  0.9996 -2.1499
54259SOL     OW74501   4.715  10.491   1.146 -0.1386  0.2535 -0.4906
54259SOL    HW174502   4.670  10.454   1.070  0.9135  0.1163 -1.0712
54259SOL    HW274503   4.808  10.473   1.130  0.0776 -0.1543  1.0389
54260SOL     OW74504   3.980  11.403   2.851 -0.2689 -0.3263 -0.0520
54260SOL    HW174505   3.996  11.488   2.892 -2.0304 -0.2553  0.5667
54260SOL    HW274506   4.010  11.415   2.760  0.3174  0.6602  0.2533
54261SOL     OW74507   0.321   1.916   1.569 -0.0183  0.6938 -0.2079
54261SOL    HW174508   0.238   1.901   1.523 -0.1024 -4.7635  1.0090
54261SOL    HW274509   0.299   1.903   1.662  1.9304  0.9543  0.3306
54262SOL     OW74510  10.300  10.571  10.831 -0.3331 -0.2999  0.2981
54262SOL    HW174511  10.304  10.628  10.755 -2.7806 -1.0469 -0.4798
54262SOL    HW274512  10.207  10.549  10.840  0.2738 -2.7230  1.6040
54263SOL     OW74513   8.951   1.691   8.997  0.9194 -0.3565 -0.5881
54263SOL    HW174514   8.959   1.605   8.957  2.4710 -0.5895  0.1500
54263SOL    HW274515   8.940   1.673   9.091 -2.1296  0.1856 -0.7529
54264SOL     OW74516   1.035   8.845  12.512  0.2144 -0.4272  0.5804
54264SOL    HW174517   1.045   8.846  12.417 -0.1417  0.3105  0.5442
54264SOL    HW274518   0.945   8.874  12.527  0.3348 -0.3401  1.1503
54265SOL     OW74519  11.227   8.716   8.001 -0.4696  0.9141 -0.0387
54265SOL    HW174520  11.311   8.760   8.012  0.2427 -0.6493  1.2846
54265SOL    HW274521  11.162   8.786   7.998  0.6720  2.0622  1.1766
54266SOL     OW74522   0.053   8.978   7.637  0.2088  0.3702 -0.0258
54266SOL    HW174523   0.099   8.907   7.593 -0.2350  0.1834 -0.1971
54266SOL    HW274524   0.091   9.058   7.599 -1.1656  0.2218 -1.8741
54267SOL     OW74525   7.339   0.330   0.993  0.2660 -0.3155  0.0933
54267SOL    HW174526   7.321   0.412   1.038  0.4283 -1.0309  1.5325
54267SOL    HW274527   7.256   0.281   0.998 -0.3360  0.3308 -2.1575
54268SOL     OW74528   9.643   4.282   1.266  0.3849  0.0077  0.1310
54268SOL    HW174529   9.714   4.345   1.277 -0.4619  1.1418 -0.6348
54268SOL    HW274530   9.579   4.327   1.210 -1.2927 -0.6792  1.3973
54269SOL     OW74531   8.291   3.081   5.265  0.0156 -0.1000 -0.4881
54269SOL    HW174532   8.237   3.058   5.341  0.4689 -1.5135 -0.5731
54269SOL    HW274533   8.232   3.072   5.190 -0.0361 -0.1116 -0.4465
54270SOL     OW74534   0.147   9.672   7.816  0.4301  0.4245  0.1027
54270SOL    HW174535   0.137   9.601   7.752 -1.1877 -0.4443  1.2298
54270SOL    HW274536   0.178   9.628   7.895  1.5826  1.3542  0.1897
54271SOL     OW74537   0.061   0.111   7.558 -0.2050 -1.0583 -0.1045
54271SOL    HW174538  -0.034   0.111   7.545 -0.0624 -1.1536 -1.2767
54271SOL    HW274539   0.087   0.201   7.539 -0.0979 -0.9408  0.5772
54272SOL     OW74540   6.262   1.679   5.140 -0.1355  0.0660 -0.1524
54272SOL    HW174541   6.262   1.651   5.231 -1.5597 -0.2129 -0.2073
54272SOL    HW274542   6.329   1.626   5.098  0.2955 -0.0478  0.6651
54273SOL     OW74543   5.413  11.119  13.087  0.0061  0.0324 -0.1595
54273SOL    HW174544   5.508  11.121  13.085  0.0983 -0.8674  1.5077
54273SOL    HW274545   5.386  11.175  13.014  1.7940  1.1215 -0.0363
54274SOL     OW74546   7.489   8.507   7.398  0.8340  0.0578  0.6743
54274SOL    HW174547   7.548   8.442   7.437  1.9283  1.3706  1.2751
54274SOL    HW274548   7.518   8.512   7.306 -0.7448 -1.9035 -0.0185
54275SOL     OW74549   6.619   5.179   4.379  0.2771 -0.2042 -0.5328
54275SOL    HW174550   6.528   5.160   4.355  1.0691 -1.7430 -2.6060
54275SOL    HW274551   6.645   5.250   4.320  0.9279 -0.9875 -1.2094
54276SOL     OW74552  13.080   1.474   6.663 -0.3530 -0.0934  0.1025
54276SOL    HW174553  13.017   1.482   6.735  0.5941 -0.6224  1.0147
54276SOL    HW274554  13.139   1.405   6.691  0.9324  0.7200 -0.5120
54277SOL     OW74555   0.079   6.623   3.053 -0.0361  0.3912  0.2099
54277SOL    HW174556   0.162   6.583   3.077 -0.4952 -0.1299  0.9927
54277SOL    HW274557   0.095   6.664   2.968  1.1736  0.7981  0.6173
54278SOL     OW74558   7.355  10.532  12.882  0.0481  0.2001 -0.4049
54278SOL    HW174559   7.344  10.496  12.970  1.3944  0.1395 -0.2356
54278SOL    HW274560   7.402  10.463  12.834  0.9491  0.9545 -0.6272
54279SOL     OW74561   3.298   9.041   8.591  0.0680  0.2891  0.8615
54279SOL    HW174562   3.379   9.038   8.540  0.3321  2.1032  1.0751
54279SOL    HW274563   3.293   8.956   8.634  0.1409 -1.0910 -1.6762
54280SOL     OW74564   5.414   8.031  13.262  0.3581  0.0053 -0.3135
54280SOL    HW174565   5.466   8.109  13.281  0.8951  0.0168 -1.7438
54280SOL    HW274566   5.454   7.962  13.316 -0.1248  0.6892  0.9632
54281SOL     OW74567   1.742   2.875   4.013 -0.0188  0.3285  0.0537
54281SOL    HW174568   1.822   2.822   4.011 -1.1794 -1.4870 -0.6887
54281SOL    HW274569   1.761   2.949   3.956  1.2296  0.0680  0.1066
54282SOL     OW74570   1.719   6.617   6.562  0.4821  0.2016 -0.7160
54282SOL    HW174571   1.636   6.595   6.519 -0.0319 -0.5108  0.5841
54282SOL    HW274572   1.785   6.569   6.513 -0.0809 -0.5451 -0.7673
54283SOL     OW74573   8.464   4.669   2.298  0.1360 -0.5391  0.4950
54283SOL    HW174574   8.485   4.720   2.220 -2.2002 -0.0852  0.0946
54283SOL    HW274575   8.409   4.598   2.267 -1.5148  0.1091  1.7766
54284SOL     OW74576   7.460   1.619   4.955 -0.2694  0.0802  0.4516
54284SOL    HW174577   7.365   1.617   4.963 -0.4489  1.3690 -1.0779
54284SOL    HW274578   7.482   1.711   4.944  1.0661 -0.2963 -0.2808
54285SOL     OW74579  13.696  12.092   0.995 -0.0244  0.1347  0.0778
54285SOL    HW174580  13.717  12.090   0.902  0.9731  2.5916  0.1650
54285SOL    HW274581  13.782  12.093   1.038 -0.4763 -1.2108  1.0443
54286SOL     OW74582   6.679   9.588   9.303 -0.0838  0.8109  0.1479
54286SOL    HW174583   6.771   9.614   9.304 -0.2247  1.6041 -1.9210
54286SOL    HW274584   6.674   9.523   9.232 -1.0391  0.4130  0.5635
54287SOL     OW74585   8.824   4.262  13.553 -0.2638  0.4102  0.0263
54287SOL    HW174586   8.834   4.356  13.541 -0.6423  0.3708 -0.6563
54287SOL    HW274587   8.731   4.246  13.536 -0.7994  0.2857  2.6657
54288SOL     OW74588  10.508   0.815   9.155 -0.2648  0.0847 -0.5702
54288SOL    HW174589  10.514   0.814   9.059 -0.9767  0.3976 -0.6226
54288SOL    HW274590  10.521   0.907   9.179  0.5430 -0.0909 -0.3181
54289SOL     OW74591   4.376   4.602   7.084 -0.2091  0.3781  0.5463
54289SOL    HW174592   4.405   4.512   7.103  0.0319  0.2169 -0.5031
54289SOL    HW274593   4.353   4.600   6.991  0.7299  1.6456  0.2609
54290SOL     OW74594  11.470   0.221   0.090 -0.2089  0.0523 -0.1400
54290SOL    HW174595  11.490   0.129   0.078  1.3552  0.4113 -0.5250
54290SOL    HW274596  11.473   0.258   0.002 -1.4376  0.3721 -0.0648
54291SOL     OW74597  11.094   8.156   9.977  0.8054  0.2139 -0.3718
54291SOL    HW174598  11.018   8.198  10.016  1.5910  0.7557  0.6365
54291SOL    HW274599  11.061   8.075   9.939 -0.4678  1.0015 -0.9990
54292SOL     OW74600  12.180  12.317   1.830  0.3094 -0.1188  0.1254
54292SOL    HW174601  12.192  12.224   1.852  0.3206  0.1093  1.1096
54292SOL    HW274602  12.087  12.324   1.807  0.1106 -0.2245  0.8541
54293SOL     OW74603  12.228  11.521  11.040  0.0397 -0.1756 -0.1871
54293SOL    HW174604  12.307  11.572  11.022  0.2426  0.1107  1.4185
54293SOL    HW274605  12.255  11.458  11.107 -1.3180  0.6104  1.1591
54294SOL     OW74606  11.874   7.464   7.931 -0.0851  0.5284  0.0967
54294SOL    HW174607  11.865   7.466   7.836 -1.4620  1.1469  0.2171
54294SOL    HW274608  11.805   7.404   7.960  1.4750 -1.1126  0.6252
54295SOL     OW74609   1.350   2.395  12.018  0.0484 -0.0647 -0.0445
54295SOL    HW174610   1.330   2.479  12.061  1.6138 -0.6243  1.9599
54295SOL    HW274611   1.412   2.419  11.948 -1.4552  0.7010 -1.1737
54296SOL     OW74612   6.122   1.909   7.492 -0.2263 -0.2881  0.3916
54296SOL    HW174613   6.097   1.887   7.402 -2.8830 -0.0219  0.9768
54296SOL    HW274614   6.082   1.995   7.507  2.4038  0.9175  1.0397
54297SOL     OW74615  10.645   8.935   1.892 -0.3326 -0.0766 -1.0325
54297SOL    HW174616  10.627   8.883   1.970  0.2445  1.5984  0.2622
54297SOL    HW274617  10.708   8.882   1.842 -0.6775 -1.1408 -0.3671
54298SOL     OW74618   0.490   6.635  10.804 -0.0100 -0.1308 -0.0327
54298SOL    HW174619   0.473   6.544  10.828 -1.0017 -0.3901 -1.5326
54298SOL    HW274620   0.422   6.685  10.848 -1.0426 -0.4503 -1.2056
54299SOL     OW74621   5.953   4.399   9.601  0.0721  0.0880 -0.1343
54299SOL    HW174622   5.948   4.376   9.508 -0.6948 -0.7540  0.1103
54299SOL    HW274623   6.042   4.433   9.612  0.6514 -1.1180 -0.8797
54300SOL     OW74624  13.396   5.783   4.773  0.6606  0.0181 -0.1428
54300SOL    HW174625  13.484   5.817   4.788 -0.1164  2.0977 -0.0170
54300SOL    HW274626  13.374   5.737   4.854  1.0014  0.9290  0.4801
54301SOL     OW74627  10.051  11.229   6.347 -0.1733  0.1090 -0.3689
54301SOL    HW174628   9.975  11.236   6.288 -1.0692 -0.1043  0.7274
54301SOL    HW274629  10.041  11.143   6.388 -1.4379  1.4820  2.5261
54302SOL     OW74630   2.067  11.934   1.748 -0.6468  0.0992 -0.1334
54302SOL    HW174631   2.030  12.006   1.799 -0.0303  0.7674 -0.6084
54302SOL    HW274632   2.117  11.977   1.678 -0.4529 -0.7902 -0.5556
54303SOL     OW74633   6.646   1.445   4.440  0.1297  0.0019  0.3348
54303SOL    HW174634   6.553   1.464   4.425  0.4092 -0.7758 -3.0977
54303SOL    HW274635   6.652   1.432   4.535 -3.5208 -1.1575  0.5790
54304SOL     OW74636   7.773  10.465  11.600  0.3701  0.1292  0.7293
54304SOL    HW174637   7.829  10.390  11.580  0.0102 -0.9396  3.2710
54304SOL    HW274638   7.834  10.533  11.630  0.6753  0.8311 -1.3563
54305SOL     OW74639   8.741   0.864   8.574 -0.8018 -0.4267  0.4088
54305SOL    HW174640   8.724   0.958   8.571 -1.8913 -0.6383 -2.3218
54305SOL    HW274641   8.827   0.858   8.616 -0.5959  1.7806  0.4563
54306SOL     OW74642   5.523   7.259  11.174  0.0714 -0.0643  0.1317
54306SOL    HW174643   5.468   7.331  11.143 -3.4517 -0.9886  3.4389
54306SOL    HW274644   5.504   7.187  11.114 -0.5860  0.2958 -0.1009
54307SOL     OW74645   2.398   6.648   5.894  0.0894 -0.2362  0.7402
54307SOL    HW174646   2.340   6.573   5.890 -0.5055  0.2653 -0.3800
54307SOL    HW274647   2.428   6.661   5.804  1.6110 -0.2202  1.2270
54308SOL     OW74648   6.557   9.534   5.370 -0.1078 -0.4446  0.3687
54308SOL    HW174649   6.480   9.577   5.331 -0.2691 -0.7920  0.3035
54308SOL    HW274650   6.551   9.554   5.463  0.7951  1.2065  0.1064
54309SOL     OW74651   8.096   5.734   8.830 -0.0200  0.1202 -0.1151
54309SOL    HW174652   8.143   5.658   8.796 -0.2956 -1.2912  2.3967
54309SOL    HW274653   8.165   5.799   8.848  0.6916 -0.9004  0.9908
54310SOL     OW74654   5.851   0.633   6.425 -0.5441 -0.1715 -0.9000
54310SOL    HW174655   5.758   0.646   6.405 -0.4123  1.5143 -0.5179
54310SOL    HW274656   5.869   0.543   6.397 -2.5097 -0.8631 -0.1429
54311SOL     OW74657  12.144  10.449  10.255 -0.2344 -0.0964  0.3517
54311SOL    HW174658  12.228  10.494  10.269 -0.0810 -0.3388  0.2152
54311SOL    HW274659  12.111  10.433  10.344  0.5293 -1.2404  0.4502
54312SOL     OW74660  13.110   9.462   9.950  0.4135 -0.1306 -0.3398
54312SOL    HW174661  13.046   9.528   9.921 -1.1503 -1.2790  0.4084
54312SOL    HW274662  13.182   9.472   9.888 -1.0571  0.2971 -2.0998
54313SOL     OW74663   0.586  10.428   1.635 -0.5811  0.3181 -0.5381
54313SOL    HW174664   0.639  10.421   1.556  0.3523  1.0382 -0.0006
54313SOL    HW274665   0.506  10.471   1.606  0.1323  1.4179 -0.9437
54314SOL     OW74666   6.315   3.890   8.394  0.4391  0.1586 -0.4058
54314SOL    HW174667   6.294   3.918   8.483 -0.0227 -0.0906 -0.4349
54314SOL    HW274668   6.268   3.807   8.383  0.8083 -0.0072 -0.7460
54315SOL     OW74669  13.603   7.683   7.444 -0.3022  0.8187 -0.2107
54315SOL    HW174670  13.587   7.598   7.485 -3.2734  0.3706 -2.0511
54315SOL    HW274671  13.696   7.680   7.421 -0.1498 -1.6351  0.3694
54316SOL     OW74672   7.564   6.662  13.595 -0.2241 -0.1004 -0.0391
54316SOL    HW174673   7.513   6.598  13.545 -1.4403 -0.9857  2.2179
54316SOL    HW274674   7.654   6.648  13.565 -0.7872 -1.0909 -1.4178
54317SOL     OW74675   0.636   9.029   9.471 -0.0391  0.2852  0.0067
54317SOL    HW174676   0.690   9.106   9.487 -1.0674  1.2193 -0.8685
54317SOL    HW274677   0.662   8.998   9.385 -0.5808  0.4768 -0.2300
54318SOL     OW74678   5.611   7.690   7.193  0.1135 -0.0889 -0.1903
54318SOL    HW174679   5.603   7.655   7.104 -2.1201 -1.7022  0.5553
54318SOL    HW274680   5.550   7.764   7.195 -0.5362 -0.6260  0.2337
54319SOL     OW74681   6.997   1.312  11.613 -0.4398  0.4439  0.2835
54319SOL    HW174682   6.940   1.236  11.598 -0.7060  0.9524 -1.5869
54319SOL    HW274683   6.942   1.375  11.657 -0.0805 -0.5826  2.3082
54320SOL     OW74684   2.499  10.783   8.441 -0.1653 -0.2315 -0.0686
54320SOL    HW174685   2.417  10.832   8.432 -0.5155 -0.8732 -0.5645
54320SOL    HW274686   2.538  10.787   8.353 -0.0363 -0.5478 -0.0259
54321SOL     OW74687   6.927   3.156  13.651 -0.0722  0.6382  0.5895
54321SOL    HW174688   6.839   3.118  13.644  0.5199 -1.0197  1.3745
54321SOL    HW274689   6.931   3.187  13.742  0.9674 -1.6980  1.4348
54322SOL     OW74690  11.019   0.603   7.503  0.1625 -0.3303  0.0164
54322SOL    HW174691  11.055   0.566   7.584  2.0852  0.7302 -0.2892
54322SOL    HW274692  11.096   0.617   7.448 -0.7853  1.6047 -0.8850
54323SOL     OW74693  13.573   3.413   6.504  0.3642  0.2048  1.1038
54323SOL    HW174694  13.588   3.500   6.466 -1.3527  0.1611  0.2714
54323SOL    HW274695  13.532   3.431   6.589  0.1237  0.2025  0.9867
54324SOL     OW74696  10.864  12.321   2.113 -0.1924 -0.3829 -0.4132
54324SOL    HW174697  10.922  12.397   2.116  1.4698 -1.6035 -0.1704
54324SOL    HW274698  10.863  12.289   2.204 -1.5459 -0.1915 -0.3427
54325SOL     OW74699   3.585  12.330  12.849  0.5698 -0.6447  0.0239
54325SOL    HW174700   3.657  12.276  12.881  2.3016  1.8124  0.5402
54325SOL    HW274701   3.508  12.300  12.898  1.3825 -2.7141  0.1245
54326SOL     OW74702   1.016   7.103   8.529 -0.2471  0.0608 -0.2524
54326SOL    HW174703   1.001   7.013   8.499 -1.8768 -0.1588  1.0492
54326SOL    HW274704   1.109   7.106   8.550  0.6785 -0.2137 -3.6295
54327SOL     OW74705   3.766   0.544   1.881 -0.2271  0.0952  0.1738
54327SOL    HW174706   3.703   0.505   1.820 -1.3042  1.5456  0.3076
54327SOL    HW274707   3.802   0.619   1.834 -0.5581  0.8169  1.0343
54328SOL     OW74708   2.947   6.242   5.797 -0.2814 -0.1586 -0.2528
54328SOL    HW174709   3.025   6.202   5.834  0.0367  2.0720  1.7131
54328SOL    HW274710   2.968   6.253   5.704  1.9800  0.8123  0.3061
54329SOL     OW74711  10.694   4.325   2.595  0.1845 -0.2383 -0.1434
54329SOL    HW174712  10.603   4.352   2.611  0.4279 -0.6855  2.5648
54329SOL    HW274713  10.720   4.280   2.676  1.6734 -3.4012 -2.1905
54330SOL     OW74714   8.867   9.536   0.355  0.3157  0.5515  0.5447
54330SOL    HW174715   8.845   9.459   0.303 -1.5576  1.6919 -0.4367
54330SOL    HW274716   8.884   9.502   0.443 -4.5867 -0.7222  1.2616
54331SOL     OW74717   2.638   1.497   0.288  0.6495  0.0194  0.5808
54331SOL    HW174718   2.585   1.490   0.368 -1.3125  0.9330 -0.5683
54331SOL    HW274719   2.575   1.505   0.217  2.3400 -1.0050 -1.1378
54332SOL     OW74720   1.011   9.608   4.962 -0.7925 -0.3960  0.1471
54332SOL    HW174721   1.073   9.671   4.999  0.6792 -1.1021 -1.0176
54332SOL    HW274722   1.003   9.540   5.029  0.1492 -0.5869  0.0712
54333SOL     OW74723  12.154   4.036   4.200  0.2548  0.6607  0.1868
54333SOL    HW174724  12.195   4.007   4.119  0.8334  0.4440  0.5490
54333SOL    HW274725  12.068   3.995   4.200  0.5818 -0.0484  0.0887
54334SOL     OW74726   4.943  11.508  10.918  0.0781  0.1114  0.3525
54334SOL    HW174727   4.932  11.594  10.958  2.7021  0.4076  0.5922
54334SOL    HW274728   5.038  11.497  10.908 -0.0680 -3.1733  1.2485
54335SOL     OW74729  11.310   8.208   1.652 -0.3147  0.1817 -0.4021
54335SOL    HW174730  11.346   8.223   1.564  0.8873 -0.9528 -0.1337
54335SOL    HW274731  11.380   8.237   1.711 -0.3899 -0.7366  0.1531
54336SOL     OW74732   0.897   8.816   5.166 -0.0416 -0.1701 -0.5011
54336SOL    HW174733   0.833   8.887   5.162 -1.5524 -1.4737 -0.5020
54336SOL    HW274734   0.848   8.742   5.202  1.9749 -0.7063  1.2946
54337SOL     OW74735   9.494  11.877   9.462 -0.5217  1.2169 -0.0776
54337SOL    HW174736   9.583  11.881   9.427 -0.2808 -1.3088  0.0251
54337SOL    HW274737   9.439  11.909   9.390  0.2788 -0.0240 -1.2952
54338SOL     OW74738   2.794   2.593   0.983 -0.4893  0.8017 -0.6362
54338SOL    HW174739   2.854   2.666   0.995  0.3022  0.0737 -0.0246
54338SOL    HW274740   2.774   2.563   1.072 -0.8543  0.3126 -0.8776
54339SOL     OW74741  12.284   2.153   8.030 -0.0663  0.0423 -0.3464
54339SOL    HW174742  12.343   2.154   7.955 -0.5940  2.3843 -0.7941
54339SOL    HW274743  12.224   2.226   8.015 -0.4730  0.3067  2.1459
54340SOL     OW74744   7.405   5.779   9.094 -0.3762  0.8214 -0.3285
54340SOL    HW174745   7.318   5.811   9.071 -0.0211  1.1416 -1.2887
54340SOL    HW274746   7.402   5.686   9.072 -1.5738 -0.0417  2.9412
54341SOL     OW74747   2.367   3.097  10.997 -0.1666 -0.3455 -0.6227
54341SOL    HW174748   2.334   3.101  10.907 -0.5833  0.2111 -0.4463
54341SOL    HW274749   2.290   3.111  11.052  0.0960 -0.6175 -0.1751
54342SOL     OW74750   4.247   3.766  11.377 -0.3439 -0.5594  0.0403
54342SOL    HW174751   4.258   3.844  11.323  0.3157 -1.1843 -0.7638
54342SOL    HW274752   4.337   3.737  11.396 -0.5693 -0.6073  1.1003
54343SOL     OW74753  11.214   2.877  10.823  0.1898  0.3753  0.2692
54343SOL    HW174754  11.184   2.949  10.879 -0.6033 -0.0773  0.4564
54343SOL    HW274755  11.236   2.918  10.740  0.1150  0.8854  0.4978
54344SOL     OW74756   9.266   6.063  12.064  0.8500  0.5667  0.3992
54344SOL    HW174757   9.193   6.124  12.057 -2.4959 -3.2350 -1.8557
54344SOL    HW274758   9.277   6.049  12.158 -1.2089  1.4584  0.8152
54345SOL     OW74759   1.751   5.244   3.762 -0.4936  0.3370  0.0020
54345SOL    HW174760   1.825   5.186   3.778 -0.5291  0.3768  0.3071
54345SOL    HW274761   1.675   5.185   3.758 -0.4195  0.2717 -0.5338
54346SOL     OW74762  10.616   1.486   9.177  0.2245  0.1163  0.0225
54346SOL    HW174763  10.708   1.461   9.178  0.4116  0.7549 -0.5929
54346SOL    HW274764  10.609   1.559   9.239  0.2931  0.5891 -0.5187
54347SOL     OW74765   9.857   8.283   2.673 -0.2749  0.1118  0.1477
54347SOL    HW174766   9.889   8.204   2.717 -2.6629 -1.2953 -0.4417
54347SOL    HW274767   9.822   8.337   2.745  0.4847  0.1905  0.4633
54348SOL     OW74768   7.459   1.212  13.299 -0.3784  0.5949 -0.3383
54348SOL    HW174769   7.395   1.146  13.326 -1.2747  1.8653  0.8177
54348SOL    HW274770   7.499   1.241  13.382  0.3184  1.1797 -0.8662
54349SOL     OW74771   5.550   3.841   6.697 -0.0548  0.4542  0.4289
54349SOL    HW174772   5.603   3.802   6.767  0.1848  1.7425  1.0072
54349SOL    HW274773   5.461   3.809   6.712  0.6246 -2.4283 -1.0576
54350SOL     OW74774   0.808   4.440   5.429  0.1144  0.3403  1.0978
54350SOL    HW174775   0.810   4.417   5.522  0.4355  1.2047  1.3187
54350SOL    HW274776   0.886   4.399   5.392  0.1413  0.2368  1.2699
54351SOL     OW74777  11.219  12.712   4.862 -0.1850  0.8207 -0.3898
54351SOL    HW174778  11.204  12.629   4.817 -0.3592  0.1912  0.8086
54351SOL    HW274779  11.304  12.701   4.905 -0.1013  1.3564 -0.4110
54352SOL     OW74780  12.709   8.391  12.134 -0.2356  0.4749 -0.7488
54352SOL    HW174781  12.656   8.401  12.212  0.8189 -0.2895  0.0908
54352SOL    HW274782  12.791   8.353  12.165 -0.3022 -1.1351 -2.4017
54353SOL     OW74783   8.058   6.124   0.642  0.5822 -0.3985 -0.0899
54353SOL    HW174784   8.036   6.031   0.646  0.7546 -0.4057  2.5267
54353SOL    HW274785   8.105   6.141   0.724  0.4257  2.0191 -0.4290
54354SOL     OW74786   4.539   8.086   9.289  0.4749 -0.1768 -0.5610
54354SOL    HW174787   4.451   8.062   9.320  0.4095  2.1863  1.3353
54354SOL    HW274788   4.592   8.008   9.307 -0.5891 -0.5522  1.2307
54355SOL     OW74789  12.170  11.110   5.544 -0.2353  0.7864 -0.3917
54355SOL    HW174790  12.183  11.140   5.454 -0.6283 -1.0146 -1.0824
54355SOL    HW274791  12.084  11.068   5.542 -0.8424  1.8956  1.1647
54356SOL     OW74792   8.083   4.263   0.431 -0.1797 -0.2840  0.4083
54356SOL    HW174793   8.161   4.264   0.486  0.0755  0.1586  0.0405
54356SOL    HW274794   8.101   4.195   0.365 -0.3658 -0.6130  0.6925
54357SOL     OW74795  10.090   1.045   7.062  0.2912 -0.0788  0.4221
54357SOL    HW174796  10.140   1.021   6.984  2.1379  1.6681  0.9638
54357SOL    HW274797  10.048   1.128   7.039  0.6807  0.3431  1.2028
54358SOL     OW74798  11.750  12.355  10.247  0.0196  0.2807 -0.0102
54358SOL    HW174799  11.667  12.335  10.291  0.1234 -1.2518 -0.4404
54358SOL    HW274800  11.736  12.329  10.156  0.3517  1.8767 -0.5513
54359SOL     OW74801   2.248  11.892   1.157  0.5010  0.1258  0.0217
54359SOL    HW174802   2.270  11.800   1.141  0.8211  0.0819  0.6621
54359SOL    HW274803   2.243  11.899   1.253 -1.9669  0.2104 -0.0635
54360SOL     OW74804   3.052  13.078   9.593  0.4100  0.4304  0.3313
54360SOL    HW174805   2.976  13.038   9.637 -0.8584  0.1803 -1.9438
54360SOL    HW274806   3.111  13.004   9.578  0.7283  0.4691  1.2766
54361SOL     OW74807  12.439   1.980  12.720  0.2050  0.2197 -0.6115
54361SOL    HW174808  12.440   2.074  12.742  0.5349 -0.0187  0.4318
54361SOL    HW274809  12.377   1.974  12.647 -0.8013  1.0800  0.1414
54362SOL     OW74810  10.263   5.513   0.072 -0.1076 -0.1273  0.2045
54362SOL    HW174811  10.230   5.595   0.109 -2.5608 -1.2170  0.5962
54362SOL    HW274812  10.306   5.470   0.146 -0.9468 -0.2430  0.6404
54363SOL     OW74813   2.374   5.867  11.030  0.0211 -0.1742  0.0550
54363SOL    HW174814   2.401   5.905  11.114  0.3339  1.8438 -0.9054
54363SOL    HW274815   2.452   5.821  10.998  0.3598  0.2932  0.2002
54364SOL     OW74816   6.366  12.602   5.036  0.7125 -0.3361 -0.0702
54364SOL    HW174817   6.396  12.515   5.065  0.8630 -0.4251 -0.4891
54364SOL    HW274818   6.287  12.585   4.986  1.1898 -0.3200 -0.8546
54365SOL     OW74819   4.409   0.807  10.666 -0.1690  0.0525  0.3622
54365SOL    HW174820   4.396   0.901  10.651  0.7062  0.0738 -0.3870
54365SOL    HW274821   4.477   0.803  10.733  1.3534 -0.0136 -1.1275
54366SOL     OW74822   2.016  13.625   5.308  0.2827  0.4621  0.1744
54366SOL    HW174823   2.096  13.677   5.301  1.2379 -0.9495  0.1285
54366SOL    HW274824   2.043  13.547   5.357 -1.1948  0.1881  0.5927
54367SOL     OW74825   6.256  10.772   4.679 -0.0849  0.3760 -0.2152
54367SOL    HW174826   6.346  10.786   4.708 -0.4358 -0.1949  1.2686
54367SOL    HW274827   6.217  10.717   4.748 -1.6157  0.7567 -0.7302
54368SOL     OW74828   7.132   4.463  12.061 -0.2298  0.3629 -0.1102
54368SOL    HW174829   7.100   4.375  12.081  0.2926  0.4886  1.4369
54368SOL    HW274830   7.068   4.521  12.101 -0.1079  0.6731 -0.3657
54369SOL     OW74831   7.329   9.433   9.480  0.3689 -0.7493 -0.4160
54369SOL    HW174832   7.294   9.454   9.393 -1.1942  0.6219  0.5006
54369SOL    HW274833   7.280   9.490   9.540  2.5196 -0.5010  1.2077
54370SOL     OW74834   0.286   8.435   5.292 -0.1730 -0.2835 -0.1927
54370SOL    HW174835   0.295   8.520   5.334  0.1307  0.0393 -0.8950
54370SOL    HW274836   0.218   8.390   5.342 -0.0116  0.1965  0.4621
54371SOL     OW74837   3.307   0.454   7.748 -0.2794  0.0919  0.2484
54371SOL    HW174838   3.295   0.379   7.807  0.4415 -0.1572  0.1001
54371SOL    HW274839   3.219   0.489   7.735 -0.9226 -1.8913 -1.2144
54372SOL     OW74840   0.532   7.163   4.654 -0.5228 -0.1338  0.0330
54372SOL    HW174841   0.604   7.123   4.703 -0.3730 -0.8519 -0.7374
54372SOL    HW274842   0.498   7.231   4.711  1.5981  1.1108 -0.0860
54373SOL     OW74843   7.521   0.742  13.289 -0.1582  0.2344  0.3796
54373SOL    HW174844   7.614   0.720  13.293  0.6027  2.6661 -1.1904
54373SOL    HW274845   7.481   0.691  13.359  2.8712  1.4388  3.2769
54374SOL     OW74846   2.466   4.324  10.051 -0.2025 -0.2242 -0.2901
54374SOL    HW174847   2.475   4.349  10.142 -0.0637  0.7377 -0.5611
54374SOL    HW274848   2.550   4.284  10.028  0.8606  2.1383 -0.7814
54375SOL     OW74849  12.899  12.064  12.698 -0.0916  0.1290 -0.0381
54375SOL    HW174850  12.873  12.088  12.610  0.2903  0.3007 -0.1048
54375SOL    HW274851  12.833  12.104  12.755  0.4609  1.2522 -0.1536
54376SOL     OW74852   2.369  11.972   9.975  0.0222  0.3027 -0.3510
54376SOL    HW174853   2.285  12.008  10.006  0.1166 -0.0931  0.4054
54376SOL    HW274854   2.435  12.026  10.018  0.1627 -0.6797  0.7265
54377SOL     OW74855   4.095   2.787   3.934  0.4384 -0.0612 -0.1668
54377SOL    HW174856   4.078   2.881   3.934  0.1283 -0.1004  0.7871
54377SOL    HW274857   4.190   2.780   3.927  0.7508  0.4497  2.4911
54378SOL     OW74858   2.018  13.061   3.538  0.2461  0.5933  0.2847
54378SOL    HW174859   1.935  13.013   3.547  0.6146 -0.0528  0.3458
54378SOL    HW274860   2.032  13.068   3.444  0.7496 -0.4374  0.2688
54379SOL     OW74861   6.036   3.782  10.727 -0.7785  0.0020 -0.0812
54379SOL    HW174862   6.104   3.834  10.684  0.0887  0.2830  1.5305
54379SOL    HW274863   5.958   3.837  10.725 -0.1991  0.8590  0.5210
54380SOL     OW74864   3.277   2.461   0.681 -0.3880 -0.7123  0.4259
54380SOL    HW174865   3.185   2.470   0.708  0.0348  0.6776  1.5244
54380SOL    HW274866   3.276   2.478   0.587 -1.1316  0.4572  0.6255
54381SOL     OW74867   0.180   5.522   7.728 -0.0687 -0.3718 -0.2130
54381SOL    HW174868   0.165   5.428   7.715 -2.1538 -0.1532  0.3190
54381SOL    HW274869   0.093   5.560   7.734  0.7394  1.5417  0.1478
54382SOL     OW74870  12.756  10.276   0.791 -0.0456 -0.0183 -0.0928
54382SOL    HW174871  12.741  10.363   0.754 -0.9328  0.0946  0.5084
54382SOL    HW274872  12.716  10.216   0.728 -0.7255  0.1090  0.2166
54383SOL     OW74873   4.613   2.617  11.234  0.2601 -0.3395  0.3305
54383SOL    HW174874   4.672   2.633  11.308  0.9450 -1.8982  0.1483
54383SOL    HW274875   4.559   2.543  11.262  0.4038 -0.8304 -0.6502
54384SOL     OW74876   6.518   5.934  12.627  0.0992 -0.2509 -0.1374
54384SOL    HW174877   6.610   5.934  12.604  0.3663  1.0816  0.8382
54384SOL    HW274878   6.498   6.025  12.650 -1.9896 -0.0367 -2.3482
54385SOL     OW74879   8.959  13.582   7.114 -0.0095  0.0562  0.0413
54385SOL    HW174880   8.904  13.601   7.190  0.6322 -0.0145  0.5360
54385SOL    HW274881   8.999  13.666   7.091 -1.5200  0.4566 -1.3153
54386SOL     OW74882   8.493  12.090   1.882 -0.0633  0.5217  0.4023
54386SOL    HW174883   8.583  12.118   1.896 -0.4221  0.9197  2.2016
54386SOL    HW274884   8.440  12.168   1.901 -0.8090  0.1991 -0.2928
54387SOL     OW74885  12.794   2.605  12.159 -0.2530 -0.2581  0.2890
54387SOL    HW174886  12.861   2.582  12.094 -2.4737 -2.8486 -1.3054
54387SOL    HW274887  12.717   2.628  12.107 -1.3808  0.1132  2.0326
54388SOL     OW74888   2.953   6.801  10.039 -0.3804  0.2953  0.2828
54388SOL    HW174889   2.887   6.823   9.973  0.7273  0.0402 -0.9577
54388SOL    HW274890   2.903   6.757  10.108 -1.9740  2.7777  0.8427
54389SOL     OW74891  10.580   6.840   3.163  0.1584  0.8783 -0.0265
54389SOL    HW174892  10.590   6.923   3.209  0.0308  1.1566 -0.5004
54389SOL    HW274893  10.649   6.841   3.097 -1.1652  1.5680 -1.4613
54390SOL     OW74894   7.472  12.446   8.043 -0.0196  0.5268  0.0313
54390SOL    HW174895   7.517  12.375   8.089  1.6375  0.5714 -1.3950
54390SOL    HW274896   7.432  12.498   8.112  0.6973 -0.5029  1.2658
54391SOL     OW74897   8.381  12.816  12.520  0.4687  0.2917 -0.8811
54391SOL    HW174898   8.355  12.872  12.447 -0.9587  0.2782 -0.4221
54391SOL    HW274899   8.412  12.735  12.479  1.3841  0.9503 -1.5117
54392SOL     OW74900   9.884   9.361   5.570 -0.2045 -0.1031 -0.6447
54392SOL    HW174901   9.812   9.332   5.513  0.9878 -1.1462 -1.6743
54392SOL    HW274902   9.851   9.348   5.659 -0.9453 -1.4725 -1.1010
54393SOL     OW74903   3.579   8.006  11.565  0.4305 -0.0698  0.4026
54393SOL    HW174904   3.552   8.098  11.569 -1.4650 -0.5947  0.6845
54393SOL    HW274905   3.561   7.972  11.652  1.4676 -0.6375  0.4066
54394SOL     OW74906   9.770   9.075   4.664  0.6567 -0.2299  0.1762
54394SOL    HW174907   9.820   9.153   4.638 -0.1314  1.1454  2.4806
54394SOL    HW274908   9.713   9.058   4.589  1.4320  0.8836 -0.7231
54395SOL     OW74909   6.500   9.098   2.558  0.2516 -0.0688  0.4878
54395SOL    HW174910   6.554   9.173   2.582  0.7896 -0.2634 -0.1164
54395SOL    HW274911   6.445   9.130   2.487  0.0135 -0.0584  0.6752
54396SOL     OW74912   9.126   8.000   5.802 -0.7847  0.4458  0.7580
54396SOL    HW174913   9.116   8.074   5.863  0.9599  1.7225 -0.4078
54396SOL    HW274914   9.181   7.937   5.850 -0.8013  0.7009  1.1190
54397SOL     OW74915   2.812  13.410   2.497 -0.2134 -0.1408 -0.8776
54397SOL    HW174916   2.743  13.358   2.456  0.4809 -1.3695 -0.5433
54397SOL    HW274917   2.878  13.346   2.523 -0.9178  0.4142  2.8855
54398SOL     OW74918  10.649   0.438   6.218 -0.4954 -0.0255  0.3428
54398SOL    HW174919  10.652   0.376   6.291  2.5207 -0.9927 -0.4757
54398SOL    HW274920  10.704   0.511   6.246 -1.2005  0.6834 -0.0869
54399SOL     OW74921   0.231   2.553   1.106  0.1304 -0.4096 -0.1358
54399SOL    HW174922   0.304   2.493   1.091 -1.0918 -1.3544 -2.8395
54399SOL    HW274923   0.213   2.591   1.021 -1.8629  0.6167  0.6725
54400SOL     OW74924  10.081  13.264   5.345 -0.1806  0.1852  0.3832
54400SOL    HW174925  10.007  13.208   5.370 -0.6406  0.9672  0.8194
54400SOL    HW274926  10.136  13.208   5.290 -0.2103 -0.9402  1.4497
54401SOL     OW74927   1.830   5.213   2.079  0.2105  0.1122  0.2128
54401SOL    HW174928   1.879   5.269   2.139  1.9284 -0.4980 -0.5687
54401SOL    HW274929   1.894   5.149   2.048 -1.1820 -0.9541 -0.5659
54402SOL     OW74930  12.089  13.744   7.979  0.5866  0.1920 -0.2676
54402SOL    HW174931  12.048  13.715   8.060  1.8033 -0.4907  0.1326
54402SOL    HW274932  12.180  13.763   8.003  0.5706  1.5029 -1.1534
54403SOL     OW74933   7.408  13.359   8.910 -0.3654 -0.0000  0.1883
54403SOL    HW174934   7.410  13.286   8.848  1.4579 -0.5197  0.7838
54403SOL    HW274935   7.438  13.321   8.993  1.6698  1.5946  0.2625
54404SOL     OW74936   0.030   2.526  12.463 -0.6072 -0.1398 -0.4302
54404SOL    HW174937   0.097   2.592  12.445 -1.4865  1.1176  0.6604
54404SOL    HW274938  -0.039   2.574  12.510 -1.1599 -1.8982  0.6551
54405SOL     OW74939  10.800   0.849   2.032 -0.2302  0.5002  0.5103
54405SOL    HW174940  10.809   0.820   2.123  0.4549  0.7055  0.5127
54405SOL    HW274941  10.740   0.923   2.036  0.1972  0.8367  0.8719
54406SOL     OW74942   7.856  13.104  10.295 -0.3160 -0.4234 -0.5559
54406SOL    HW174943   7.890  13.041  10.359  2.3618  0.5555 -0.8966
54406SOL    HW274944   7.815  13.050  10.228 -1.3104 -1.5782  0.9122
54407SOL     OW74945  13.262   3.355   8.975  0.2501 -0.1535 -0.5015
54407SOL    HW174946  13.247   3.303   8.896 -0.6898 -0.6691 -0.0026
54407SOL    HW274947  13.311   3.297   9.033 -0.5516 -0.4012 -0.0552
54408SOL     OW74948   7.577   4.273   8.530 -0.0705 -0.5037  0.6164
54408SOL    HW174949   7.626   4.342   8.576 -1.6228  0.0203  1.5667
54408SOL    HW274950   7.524   4.320   8.466  1.0276 -1.1138 -0.7782
54409SOL     OW74951   8.415  13.564   8.598  0.1107 -0.3252 -0.7623
54409SOL    HW174952   8.448  13.635   8.654  1.0487  1.4460 -3.3600
54409SOL    HW274953   8.493  13.532   8.553 -0.5769 -1.9067 -0.8700
54410SOL     OW74954   8.583  12.394  10.186  0.2939  0.0031 -0.0741
54410SOL    HW174955   8.661  12.401  10.240  0.5120  1.4769 -0.5344
54410SOL    HW274956   8.613  12.353  10.105  0.1611 -1.3094  0.5241
54411SOL     OW74957   6.487   1.243  11.721 -0.1674  0.3899  0.3722
54411SOL    HW174958   6.424   1.311  11.744  1.1890  1.5596  0.7439
54411SOL    HW274959   6.464   1.170  11.779 -0.6987  1.0770  1.0570
54412SOL     OW74960   5.180  11.003   4.848  0.0364 -0.3785  0.2255
54412SOL    HW174961   5.195  11.096   4.865  0.6525 -0.2846 -0.7140
54412SOL    HW274962   5.093  10.985   4.883 -0.4338  0.7548 -0.3154
54413SOL     OW74963   6.000  10.650   7.118 -0.6465  0.2066  0.3883
54413SOL    HW174964   5.919  10.601   7.131 -0.1850 -1.1489 -1.4785
54413SOL    HW274965   6.021  10.638   7.026  1.8632  0.1956  0.8896
54414SOL     OW74966  10.307   6.002   4.072 -1.0194  0.1000  0.2300
54414SOL    HW174967  10.296   5.917   4.028 -1.6060  0.1896  0.1891
54414SOL    HW274968  10.295   5.982   4.165 -0.1879 -0.0201  0.3196
54415SOL     OW74969   8.622   4.389   1.827 -0.6110  0.5970 -0.1685
54415SOL    HW174970   8.626   4.483   1.809 -1.6662  0.5210 -0.8927
54415SOL    HW274971   8.617   4.348   1.741 -0.2362 -0.1354  0.1419
54416SOL     OW74972  12.727   5.772  10.377 -0.0968  0.5190 -0.2734
54416SOL    HW174973  12.645   5.767  10.328 -0.4384 -0.8761  0.3946
54416SOL    HW274974  12.759   5.682  10.378  0.3460  0.6782  1.3012
54417SOL     OW74975   4.963  12.956   0.810 -0.7212 -0.4394 -0.2528
54417SOL    HW174976   4.949  13.039   0.765 -0.3120  0.0960  0.5795
54417SOL    HW274977   4.875  12.928   0.836 -0.8308 -0.1032 -0.2607
54418SOL     OW74978   2.312   0.484   2.972  0.2799 -0.4955  0.2488
54418SOL    HW174979   2.304   0.447   2.884  2.6346 -0.2411 -0.1520
54418SOL    HW274980   2.336   0.409   3.027  0.4572 -0.3774  0.3345
54419SOL     OW74981  13.466  10.222  10.795 -0.1193  0.2873 -0.5045
54419SOL    HW174982  13.463  10.205  10.889  1.3185 -1.4207 -0.7211
54419SOL    HW274983  13.433  10.142  10.755  0.7463  0.3900 -1.4656
54420SOL     OW74984   7.076  11.361   7.784  0.2747 -0.1855 -0.5826
54420SOL    HW174985   6.981  11.364   7.782  0.1502 -2.1989 -0.0892
54420SOL    HW274986   7.097  11.269   7.805  2.2835  0.4469  0.5121
54421SOL     OW74987   9.673  12.448  11.864  0.1836  0.5085  0.0613
54421SOL    HW174988   9.578  12.434  11.869 -0.0736  2.0696  0.0849
54421SOL    HW274989   9.684  12.510  11.791  1.2113  0.2081 -0.0534
54422SOL     OW74990   9.227   7.171   3.464 -0.1029  0.3889  0.3812
54422SOL    HW174991   9.192   7.118   3.535 -3.9236 -0.6596 -2.0029
54422SOL    HW274992   9.320   7.149   3.461 -0.3255 -1.5124  3.2841
54423SOL     OW74993  10.326  10.934  10.319 -0.6399 -0.1751 -0.0469
54423SOL    HW174994  10.337  10.982  10.401  0.3238  1.0733 -0.8603
54423SOL    HW274995  10.407  10.952  10.270 -1.8463  0.4489 -1.9179
54424SOL     OW74996   0.586   1.568  10.915 -0.6345  0.2458 -0.2326
54424SOL    HW174997   0.672   1.527  10.926 -0.5547  0.6743  0.9006
54424SOL    HW274998   0.525   1.506  10.953 -0.6474  0.6319  0.3857
54425SOL     OW74999   3.166   4.543   2.185 -0.2639 -0.3529  0.6332
54425SOL    HW175000   3.196   4.504   2.103  0.5147 -0.3109  0.8893
54425SOL    HW275001   3.085   4.589   2.162 -0.2706 -0.6878 -0.0217
54426SOL     OW75002   3.117  11.086   5.150 -0.2588 -0.5805  0.6035
54426SOL    HW175003   3.121  11.174   5.187 -0.1653 -0.3603  0.0714
54426SOL    HW275004   3.024  11.072   5.131 -0.1925 -0.3512  0.1025
54427SOL     OW75005   0.327   4.142   7.780 -0.1167 -0.3863  0.2744
54427SOL    HW175006   0.368   4.228   7.790 -0.5364 -0.2165  0.5816
54427SOL    HW275007   0.398   4.084   7.753  0.0615  0.1673 -0.4775
54428SOL     OW75008   2.854   1.721   2.348 -0.3406  0.5026 -0.0901
54428SOL    HW175009   2.791   1.779   2.306 -1.2658 -0.6398 -0.3096
54428SOL    HW275010   2.921   1.707   2.282 -0.8540  0.1766 -0.5469
54429SOL     OW75011   6.218  13.685  12.836  0.5204 -0.0477  0.1313
54429SOL    HW175012   6.267  13.628  12.776  0.2559 -0.5896  0.4292
54429SOL    HW275013   6.191  13.628  12.907 -2.4648 -0.3242 -1.0693
54430SOL     OW75014   5.649   7.202   8.930  0.0388  0.0676  0.0492
54430SOL    HW175015   5.599   7.260   8.986  0.7957 -0.0477  0.8638
54430SOL    HW275016   5.589   7.129   8.913  0.5163 -1.0438  2.6249
54431SOL     OW75017   0.890  13.552   2.928 -0.5888 -0.3592  0.3951
54431SOL    HW175018   0.815  13.525   2.875  0.5631 -2.4616 -0.2731
54431SOL    HW275019   0.897  13.485   2.996 -1.0979  1.4617  2.3776
54432SOL     OW75020   9.958  12.383   8.696 -0.0859 -0.5969 -0.5683
54432SOL    HW175021  10.032  12.397   8.637  0.1751 -0.0969 -0.1390
54432SOL    HW275022   9.967  12.293   8.726  1.4901  0.0144  0.9778
54433SOL     OW75023   2.319   3.456   1.032  0.1565  0.1334 -0.2900
54433SOL    HW175024   2.381   3.383   1.029  1.8742  1.5146 -0.0917
54433SOL    HW275025   2.309   3.482   0.941 -0.2817 -0.1925 -0.3383
54434SOL     OW75026   1.022   4.735   5.139 -0.0993  0.5786  0.3205
54434SOL    HW175027   1.096   4.739   5.079  0.4552 -0.8294  0.8642
54434SOL    HW275028   0.960   4.676   5.096 -1.2714  2.2918 -0.4649
54435SOL     OW75029   7.042   6.720   7.532 -0.1492  0.4141 -0.4019
54435SOL    HW175030   7.123   6.683   7.497 -0.6900  0.1883 -1.4571
54435SOL    HW275031   6.982   6.720   7.458 -1.0582  0.7582  0.3192
54436SOL     OW75032   9.991   3.517   7.364  0.0356 -0.5441 -0.5600
54436SOL    HW175033   9.918   3.464   7.397 -2.1686  0.4926 -3.3977
54436SOL    HW275034   9.986   3.507   7.269  1.5891  2.1584 -1.0021
54437SOL     OW75035  12.259   0.952   1.911  0.3274 -0.4689  0.2421
54437SOL    HW175036  12.235   0.860   1.924  0.0136 -0.3541  0.4892
54437SOL    HW275037  12.198   1.001   1.967 -0.0550 -0.0587 -0.5050
54438SOL     OW75038   0.286   4.832   0.254 -0.0003 -0.1872  0.3911
54438SOL    HW175039   0.315   4.857   0.166  0.4000  0.9259  0.8168
54438SOL    HW275040   0.211   4.889   0.271  0.9057  0.7614  1.3721
54439SOL     OW75041   8.335   4.334   5.547 -0.3337  0.0496  0.1522
54439SOL    HW175042   8.288   4.332   5.463 -1.1633 -1.3718  0.6295
54439SOL    HW275043   8.400   4.264   5.540  0.5066  0.7973  0.2110
54440SOL     OW75044   8.143   0.202   1.012 -0.0072  0.1080 -0.3743
54440SOL    HW175045   8.205   0.266   1.047 -1.8145  0.9763  1.4424
54440SOL    HW275046   8.157   0.206   0.917  1.6107  1.4007 -0.1450
54441SOL     OW75047   4.803   0.780   6.100 -0.2804 -0.2697  0.0742
54441SOL    HW175048   4.815   0.872   6.124 -0.3926 -0.7021  1.9313
54441SOL    HW275049   4.709   0.764   6.112 -0.3951 -0.4509 -0.9705
54442SOL     OW75050   7.428   2.682   5.276  0.3092 -0.5916 -0.1401
54442SOL    HW175051   7.454   2.628   5.201  3.6020  0.0741  0.3755
54442SOL    HW275052   7.343   2.719   5.250 -0.1294 -2.7635 -2.1953
54443SOL     OW75053   1.052   1.480   3.094 -0.1971 -0.1615  0.3855
54443SOL    HW175054   1.115   1.540   3.133 -0.5757 -1.3891  3.1574
54443SOL    HW275055   1.079   1.473   3.003  3.1752  0.0222  1.2164
54444SOL     OW75056  10.052   5.064  13.535  0.5868  0.0266  0.3786
54444SOL    HW175057  10.045   5.046  13.629  0.5079 -0.1674  0.3378
54444SOL    HW275058  10.138   5.030  13.511  2.1384  3.1421  1.0357
54445SOL     OW75059  10.929   2.248   7.880 -0.3927 -0.4439  0.0808
54445SOL    HW175060  10.940   2.254   7.785  0.6509 -0.2514  0.2010
54445SOL    HW275061  11.018   2.242   7.914 -0.6461  1.0335  1.1364
54446SOL     OW75062   8.299   3.209  12.006 -0.0206 -0.1881  0.1505
54446SOL    HW175063   8.320   3.302  11.999  0.2521 -0.2182  0.5583
54446SOL    HW275064   8.308   3.189  12.099  1.0036 -0.8772 -0.0747
54447SOL     OW75065   4.306   2.502  11.020  0.0826  0.0210 -0.0471
54447SOL    HW175066   4.353   2.585  11.032 -1.0389  0.5269  0.9743
54447SOL    HW275067   4.353   2.440  11.075 -0.9032  0.7206  1.6398
54448SOL     OW75068   2.902   7.803   7.750 -0.6354  0.2177  0.1450
54448SOL    HW175069   2.892   7.898   7.738  1.3374  0.6387  1.2772
54448SOL    HW275070   2.981   7.781   7.701 -2.0035 -1.2157 -1.5182
54449SOL     OW75071  13.391   9.336   6.297  0.2729  0.1433  0.2416
54449SOL    HW175072  13.376   9.428   6.319 -1.0127 -0.0294  0.2049
54449SOL    HW275073  13.350   9.325   6.210  0.2861 -0.4851  0.3081
54450SOL     OW75074  11.730   0.323   4.142  0.0223  0.5129  0.3399
54450SOL    HW175075  11.769   0.332   4.055 -0.8424  1.2760  0.0128
54450SOL    HW275076  11.685   0.239   4.139  0.8937  0.0303  0.4295
54451SOL     OW75077   2.702   2.128   7.717  0.7732  0.0882  0.1212
54451SOL    HW175078   2.647   2.136   7.794 -0.9380 -1.6481 -0.8370
54451SOL    HW275079   2.742   2.041   7.724  2.9367  1.0414  0.4505
54452SOL     OW75080  13.626   4.682   7.387 -0.3890  0.5402  0.7016
54452SOL    HW175081  13.708   4.703   7.431  0.1605 -0.1905  0.0562
54452SOL    HW275082  13.563   4.670   7.458 -0.0203  1.3963  1.1924
54453SOL     OW75083   4.969  11.987  13.047  0.7016 -0.6584  0.3403
54453SOL    HW175084   4.956  11.990  12.952  1.1041 -0.2353  0.2942
54453SOL    HW275085   4.925  12.066  13.079  0.4856 -0.8508  0.5147
54454SOL     OW75086  12.651   9.203   2.753  0.3219 -0.0954 -0.2762
54454SOL    HW175087  12.710   9.278   2.756  0.4373 -0.2035  0.6673
54454SOL    HW275088  12.686   9.147   2.684  0.6644  0.3747 -0.4861
54455SOL     OW75089   1.977   6.289  11.092 -0.0491 -0.0722 -0.4329
54455SOL    HW175090   2.039   6.307  11.163 -1.7327  1.2336  0.8107
54455SOL    HW275091   1.897   6.262  11.138 -0.7023 -0.7893 -1.9378
54456SOL     OW75092   2.291   4.352   1.996  0.6117 -0.5360  0.5056
54456SOL    HW175093   2.298   4.288   1.925 -0.3222 -0.5166  0.3825
54456SOL    HW275094   2.262   4.432   1.953  0.9988 -0.2490  0.7756
54457SOL     OW75095  11.305   7.974  13.178  0.0243 -0.8925 -0.1805
54457SOL    HW175096  11.209   7.971  13.182  0.0049  0.0849  0.6254
54457SOL    HW275097  11.332   7.883  13.191 -0.7919 -1.2272 -0.6982
54458SOL     OW75098   1.410   5.725  13.082 -0.0365  0.3948  0.3573
54458SOL    HW175099   1.356   5.784  13.030  0.0518  1.0331  0.9731
54458SOL    HW275100   1.351   5.694  13.152 -0.0873 -0.2692  0.0335
54459SOL     OW75101  13.100   4.591   7.897 -0.1148 -0.5097  0.0397
54459SOL    HW175102  13.048   4.514   7.875  1.3933 -1.1698 -1.3878
54459SOL    HW275103  13.055   4.630   7.972 -0.6912 -3.0201  1.0843
54460SOL     OW75104   5.752   3.144   6.313 -0.2966  0.3809  0.0813
54460SOL    HW175105   5.668   3.189   6.320 -0.1175  0.6349  0.7331
54460SOL    HW275106   5.800   3.172   6.391  0.8650  1.2322 -0.8862
54461SOL     OW75107  12.307   2.756   6.037 -0.1655 -0.2673  0.0584
54461SOL    HW175108  12.212   2.759   6.045 -0.0170 -0.1294  2.4507
54461SOL    HW275109  12.330   2.836   5.990 -1.1780 -0.1351 -0.2409
54462SOL     OW75110   2.096   9.752   3.715  0.1041 -0.1864  0.6122
54462SOL    HW175111   2.023   9.757   3.653 -1.3878 -0.8187  2.2051
54462SOL    HW275112   2.117   9.843   3.734  0.1931  0.0078 -0.3761
54463SOL     OW75113   3.580   1.343   4.400  0.1531  0.3368 -0.3092
54463SOL    HW175114   3.576   1.332   4.306  2.1405 -0.3537 -0.3644
54463SOL    HW275115   3.625   1.427   4.413  3.2975 -1.2098 -0.1123
54464SOL     OW75116   0.203   9.405   0.136  0.0121 -0.3592 -0.4740
54464SOL    HW175117   0.145   9.475   0.165 -0.4961  0.1498 -2.6117
54464SOL    HW275118   0.151   9.325   0.147  0.1229 -0.2894  0.7096
54465SOL     OW75119   3.333   5.056  10.896 -0.2649  0.2024  0.4894
54465SOL    HW175120   3.252   5.087  10.855  0.5305  3.1082  0.8932
54465SOL    HW275121   3.403   5.084  10.838  0.6103  0.1416  1.4730
54466SOL     OW75122  10.678  10.905   2.993  0.1574  0.2080 -0.6526
54466SOL    HW175123  10.701  10.917   2.901  2.2372 -0.5703 -0.2908
54466SOL    HW275124  10.680  10.810   3.006  1.9501  0.3871  0.6417
54467SOL     OW75125   5.533   7.466  12.944  0.2965 -0.3464 -0.0590
54467SOL    HW175126   5.598   7.479  12.874  1.0301 -2.0233  0.2658
54467SOL    HW275127   5.451   7.496  12.905  0.1844 -3.3685 -2.6164
54468SOL     OW75128  13.166   4.472   2.860  0.6327  0.0436  0.4524
54468SOL    HW175129  13.192   4.417   2.786  1.5639  0.1221  0.7082
54468SOL    HW275130  13.166   4.561   2.825 -0.5722 -0.0734  0.1190
54469SOL     OW75131  11.763   3.535  10.697 -0.1542  0.2461  0.3500
54469SOL    HW175132  11.824   3.598  10.735 -0.6888  1.0753 -0.1343
54469SOL    HW275133  11.725   3.490  10.772 -0.5573  1.2585  0.7690
54470SOL     OW75134   3.703  11.854  13.735  0.1850 -0.1257 -0.2761
54470SOL    HW175135   3.729  11.941  13.766  0.1320 -0.5841  1.1445
54470SOL    HW275136   3.786  11.808  13.721  0.2365 -0.7460  1.7527
54471SOL     OW75137  12.333   0.737   8.821 -0.5400 -0.0355  0.5707
54471SOL    HW175138  12.302   0.808   8.877  2.3119  1.6255  0.2578
54471SOL    HW275139  12.291   0.753   8.737 -1.0868  0.3821  0.9150
54472SOL     OW75140   1.072   9.685  13.051  0.4353  0.0682 -0.5998
54472SOL    HW175141   1.066   9.775  13.017  0.0353 -0.3413 -1.6451
54472SOL    HW275142   1.072   9.630  12.973 -2.2211 -1.0165  0.0632
54473SOL     OW75143   3.874   9.498  11.387  0.1188  0.1735 -0.3740
54473SOL    HW175144   3.800   9.440  11.369 -0.6046  0.7943  0.4943
54473SOL    HW275145   3.949   9.440  11.397 -0.8687 -0.8003  2.1103
54474SOL     OW75146  11.543   5.688   2.337  0.6167 -0.1450 -0.1676
54474SOL    HW175147  11.563   5.636   2.415  0.7513  1.4823  0.9264
54474SOL    HW275148  11.454   5.719   2.352  1.4470  2.1129  0.5381
54475SOL     OW75149   3.012   2.006   3.073  0.0951 -0.0396  0.1854
54475SOL    HW175150   3.077   1.941   3.048  1.0911  1.2816 -0.8573
54475SOL    HW275151   3.050   2.051   3.148 -1.3706 -1.7452  2.0404
54476SOL     OW75152   3.853   6.643  12.114  0.1725  0.1634  0.0191
54476SOL    HW175153   3.816   6.562  12.151  0.6742  0.2165  0.6432
54476SOL    HW275154   3.908   6.613  12.041 -0.7992  0.0583 -0.6987
54477SOL     OW75155   7.093  12.938   9.535 -0.2709 -0.2631 -0.0273
54477SOL    HW175156   7.181  12.918   9.567 -0.8807 -0.0779  1.8835
54477SOL    HW275157   7.094  13.033   9.520 -0.3429 -0.1373  0.7161
54478SOL     OW75158   5.293  12.736   1.315 -0.1688 -0.4805  0.0798
54478SOL    HW175159   5.373  12.784   1.293  0.3433 -0.8193  1.1218
54478SOL    HW275160   5.263  12.775   1.398  0.2455 -1.9041  0.9313
54479SOL     OW75161   3.064  11.769   2.590  0.3954  0.2328  0.1703
54479SOL    HW175162   3.079  11.859   2.560  0.5089  0.4420  0.8301
54479SOL    HW275163   3.055  11.777   2.685  0.4772 -0.4650  0.2420
54480SOL     OW75164   1.794  10.570  13.571  0.0408 -0.2143 -0.7211
54480SOL    HW175165   1.847  10.503  13.528 -0.3108 -0.8409 -0.2020
54480SOL    HW275166   1.854  10.609  13.635 -0.4196 -1.7446  0.7092
54481SOL     OW75167   8.269   4.318   9.475 -0.2090 -0.1786  0.2593
54481SOL    HW175168   8.210   4.257   9.519 -0.1992 -0.1058  0.3768
54481SOL    HW275169   8.225   4.403   9.482  0.2224 -0.0040  0.9485
54482SOL     OW75170   3.899   6.439  13.178 -0.4279  0.2809  0.3032
54482SOL    HW175171   3.805   6.458  13.179 -0.2915  0.9559  0.6211
54482SOL    HW275172   3.903   6.344  13.171 -1.1191  0.3788 -2.5243
54483SOL     OW75173   3.076   7.778  10.329  0.1983  0.7265  0.0188
54483SOL    HW175174   3.030   7.844  10.276  1.6624  3.6034  2.0902
54483SOL    HW275175   3.010   7.745  10.390 -0.4434  0.5225 -0.7659
54484SOL     OW75176   9.032  11.619   2.412  0.4012 -0.6169 -0.2631
54484SOL    HW175177   9.080  11.548   2.454 -0.3192 -0.7291  0.3793
54484SOL    HW275178   8.940  11.595   2.421  0.1549  0.3360 -0.1342
54485SOL     OW75179  13.377   9.666   4.501  0.0285 -0.8304  0.3993
54485SOL    HW175180  13.296   9.682   4.452 -0.3425 -1.1168  0.9060
54485SOL    HW275181  13.445   9.660   4.434 -0.6242 -2.2163 -0.1729
54486SOL     OW75182   5.381  12.678   4.581 -0.0426 -0.2105  0.1240
54486SOL    HW175183   5.336  12.690   4.498  0.5191 -0.7823 -0.2729
54486SOL    HW275184   5.323  12.719   4.646  0.5529  2.2163 -0.7937
54487SOL     OW75185   0.520  13.582   9.690  0.3767  0.0096 -0.6608
54487SOL    HW175186   0.527  13.516   9.621  2.5314 -0.1549 -0.3591
54487SOL    HW275187   0.509  13.665   9.643  0.6105 -0.2407 -1.1690
54488SOL     OW75188   6.584   8.199   1.926 -0.6495 -0.0790 -0.0180
54488SOL    HW175189   6.549   8.253   1.855 -0.9120 -0.5118 -0.2210
54488SOL    HW275190   6.677   8.222   1.930  0.1394 -2.3303 -2.6463
54489SOL     OW75191  13.287   6.114  10.556 -0.6604  0.1265  0.0022
54489SOL    HW175192  13.351   6.081  10.619 -0.8252 -0.7139 -0.2666
54489SOL    HW275193  13.248   6.036  10.518  0.3219  0.5791 -2.0823
54490SOL     OW75194   8.840   8.936   4.956  0.0568  0.1231  0.3346
54490SOL    HW175195   8.906   8.952   4.888  0.1322 -1.2519  0.0556
54490SOL    HW275196   8.878   8.867   5.010 -0.7984 -0.0910  0.6783
54491SOL     OW75197   0.518   0.870   8.840 -0.2780  0.0989 -0.1289
54491SOL    HW175198   0.498   0.793   8.787 -0.6722  0.1467 -0.0568
54491SOL    HW275199   0.528   0.836   8.929 -0.1373  0.0868 -0.1497
54492SOL     OW75200  11.660   1.282   5.654  0.2207  0.2788 -0.3809
54492SOL    HW175201  11.588   1.255   5.710  0.7503 -2.1887 -0.7967
54492SOL    HW275202  11.627   1.360   5.609 -2.5861 -1.2764 -1.2680
54493SOL     OW75203   7.421   0.698   1.519  0.8803  0.2065 -0.3930
54493SOL    HW175204   7.430   0.603   1.533 -1.2122 -0.2055 -1.4302
54493SOL    HW275205   7.511   0.730   1.517  1.6209 -1.5680  1.1445
54494SOL     OW75206   5.923  10.124   4.646  0.2202 -0.4917  0.2402
54494SOL    HW175207   5.836  10.158   4.623  0.0084 -0.3496  1.2270
54494SOL    HW275208   5.909  10.031   4.659  0.2106 -0.4677  0.4054
54495SOL     OW75209  12.756   1.530   5.610  0.0617  0.3151 -0.0401
54495SOL    HW175210  12.813   1.601   5.638  1.2188  0.2008 -1.9504
54495SOL    HW275211  12.677   1.574   5.578  0.8649  0.7891 -1.4358
54496SOL     OW75212   6.610   2.781   0.077 -0.1698 -0.3260 -0.1882
54496SOL    HW175213   6.675   2.733   0.027 -0.1429 -0.5371  0.0497
54496SOL    HW275214   6.568   2.838   0.013 -0.5864 -1.0621 -0.5844
54497SOL     OW75215   1.915  11.595   6.924  0.5071  0.2727  0.0555
54497SOL    HW175216   1.987  11.607   6.985  0.7491  1.5054 -0.4540
54497SOL    HW275217   1.955  11.599   6.838  0.0635 -0.7617 -0.2193
54498SOL     OW75218   6.926   8.156   7.350  0.0074 -0.3424 -0.2821
54498SOL    HW175219   6.885   8.071   7.364  0.2756 -0.1422  2.0714
54498SOL    HW275220   6.854   8.219   7.358  0.2062 -0.2044  0.4706
54499SOL     OW75221   6.017  12.339   5.074  0.0259 -0.5954 -0.2202
54499SOL    HW175222   6.099  12.294   5.091  0.5724 -0.8714 -3.1431
54499SOL    HW275223   5.969  12.282   5.014 -1.3810  0.5345 -0.2346
54500SOL     OW75224  10.128   6.215   9.675  0.0086  0.0843 -0.0773
54500SOL    HW175225  10.083   6.276   9.616  0.4473 -0.2660 -0.7855
54500SOL    HW275226  10.208   6.192   9.629 -0.7816 -2.1032 -0.4846
54501SOL     OW75227   9.268   7.043   9.664 -0.0204  0.3529  0.0628
54501SOL    HW175228   9.348   7.005   9.628 -1.0605 -2.0534  0.1303
54501SOL    HW275229   9.202   7.030   9.595 -0.6325  1.2436  0.4564
54502SOL     OW75230  13.349  13.640   3.536 -0.4973 -0.1214 -0.5713
54502SOL    HW175231  13.429  13.687   3.513 -1.5655  2.7890  1.1502
54502SOL    HW275232  13.343  13.649   3.631 -2.0355 -1.7736 -0.4550
54503SOL     OW75233   2.390   2.271   2.494 -0.1651  0.3008 -0.8267
54503SOL    HW175234   2.336   2.264   2.415 -0.2919  2.2970 -0.9784
54503SOL    HW275235   2.480   2.271   2.462 -0.2309  2.0438 -1.1230
54504SOL     OW75236   2.838   6.623   0.547 -0.3339 -0.1026 -0.1112
54504SOL    HW175237   2.854   6.615   0.452 -1.0401 -2.1884 -0.1150
54504SOL    HW275238   2.918   6.590   0.587  0.7463  2.5546  0.1212
54505SOL     OW75239   8.068   2.347   5.952  0.1156 -0.5672  0.0827
54505SOL    HW175240   8.073   2.384   6.040  1.1596  0.4227 -0.3688
54505SOL    HW275241   8.159   2.342   5.922 -0.2598 -0.2046 -1.2021
54506SOL     OW75242  12.665   7.190   2.089  0.0183 -0.8937  0.1150
54506SOL    HW175243  12.634   7.132   2.159 -0.6291 -2.6981 -1.5479
54506SOL    HW275244  12.759   7.175   2.085 -0.1609 -2.0419 -0.3975
54507SOL     OW75245   0.072   3.592   8.298  0.3976  0.5331 -0.2699
54507SOL    HW175246  -0.002   3.641   8.262  0.0831  0.9849  0.9177
54507SOL    HW275247   0.036   3.549   8.376  1.2441  0.2902 -0.0056
54508SOL     OW75248  10.773   9.048   2.333 -0.5307  0.3388  0.2526
54508SOL    HW175249  10.794   9.120   2.274  0.7765  0.5761  0.9474
54508SOL    HW275250  10.796   9.081   2.420 -2.0900 -0.1169  0.8708
54509SOL     OW75251  13.081   8.107   8.727  0.5449 -0.0609 -0.4081
54509SOL    HW175252  13.095   8.037   8.791  0.0927  0.0787 -0.1446
54509SOL    HW275253  13.149   8.094   8.661  1.3286  0.0824  0.3541
54510SOL     OW75254   3.001   6.541   4.026  0.2062 -0.0355  0.1501
54510SOL    HW175255   2.918   6.500   4.049  0.5170 -1.3050 -0.8808
54510SOL    HW275256   3.042   6.559   4.110 -1.6789  1.9307  0.7438
54511SOL     OW75257   5.707   4.152  13.396  0.4344 -0.4602  0.6366
54511SOL    HW175258   5.724   4.092  13.323 -0.6182 -1.0515  0.8556
54511SOL    HW275259   5.615   4.136  13.419 -0.0530  1.5947  0.3702
54512SOL     OW75260   7.472   5.103  12.991 -0.1495 -0.4534  0.9720
54512SOL    HW175261   7.539   5.056  12.942 -0.1266  1.0603 -0.5621
54512SOL    HW275262   7.520   5.155  13.055  0.3359  1.4538 -0.8239
54513SOL     OW75263  11.535   0.584   7.550 -0.0061 -0.1976  0.0713
54513SOL    HW175264  11.529   0.537   7.466 -1.5187 -1.2420  0.7274
54513SOL    HW275265  11.620   0.557   7.585 -0.0078 -0.9345 -0.4580
54514SOL     OW75266   1.149   9.230   6.866 -0.1490 -0.0777 -0.0935
54514SOL    HW175267   1.145   9.323   6.887  0.2868 -0.1500  0.3191
54514SOL    HW275268   1.216   9.225   6.797 -1.7152  0.1847 -1.7096
54515SOL     OW75269  11.713   3.345  10.027 -0.2482 -0.1912  0.1385
54515SOL    HW175270  11.618   3.337  10.018 -0.2982 -0.2235  0.6853
54515SOL    HW275271  11.739   3.271  10.082  0.1760 -0.5336 -0.5121
54516SOL     OW75272   2.979   6.796   7.846 -0.3733 -0.1902 -0.5831
54516SOL    HW175273   2.927   6.786   7.766  0.4184  0.5016 -1.2117
54516SOL    HW275274   3.021   6.711   7.859 -0.8098 -0.4220 -0.6818
54517SOL     OW75275   9.788   0.749   2.511  0.2518 -0.5755  0.2244
54517SOL    HW175276   9.759   0.699   2.435 -0.8373  0.8656 -0.3571
54517SOL    HW275277   9.707   0.765   2.561  0.3404  1.5310 -0.2099
54518SOL     OW75278   7.077   4.938   0.742  0.3332  0.4086 -0.2035
54518SOL    HW175279   7.083   4.845   0.722  3.3836  0.4222  0.1359
54518SOL    HW275280   7.096   4.944   0.836  0.2765  1.3765 -0.2417
54519SOL     OW75281   2.481  10.047   6.634  0.1213  0.0912  0.0063
54519SOL    HW175282   2.440   9.968   6.669 -1.1681  0.3711 -0.8200
54519SOL    HW275283   2.419  10.117   6.654  0.6535  0.6929 -0.4146
54520SOL     OW75284   7.317   4.251   1.459 -0.3355  0.1865  0.1170
54520SOL    HW175285   7.258   4.187   1.418 -0.5693  0.4071  0.1123
54520SOL    HW275286   7.394   4.199   1.483 -0.4878 -0.0825  0.0329
54521SOL     OW75287   8.339  10.939   9.487  0.1051  0.0265  0.7994
54521SOL    HW175288   8.292  11.022   9.488  1.0514  0.5938  0.1277
54521SOL    HW275289   8.276  10.876   9.451 -0.1430  0.7583 -0.0721
54522SOL     OW75290   5.098   8.309   0.805  0.2392 -0.1080 -0.5223
54522SOL    HW175291   5.106   8.398   0.839  0.0413  0.0598 -0.9034
54522SOL    HW275292   5.028   8.315   0.739 -0.0244 -0.6187 -0.2942
54523SOL     OW75293  10.407   5.726   7.341  0.5954 -0.6248 -0.0907
54523SOL    HW175294  10.319   5.761   7.352  0.2809 -1.3212 -0.3218
54523SOL    HW275295  10.436   5.706   7.430 -0.4182 -2.5843 -0.1365
54524SOL     OW75296   7.669  11.122   9.635 -0.0126 -0.2751 -0.2935
54524SOL    HW175297   7.631  11.074   9.562  0.4818 -0.0887 -0.6830
54524SOL    HW275298   7.611  11.105   9.709 -0.5869 -0.3693 -0.7617
54525SOL     OW75299   3.733   3.628   5.972 -0.2610  0.0847 -0.2038
54525SOL    HW175300   3.811   3.580   6.000 -0.4562 -0.4382 -0.5243
54525SOL    HW275301   3.713   3.687   6.044  0.8710  0.7748 -0.4260
54526SOL     OW75302   7.709   4.037  10.571  0.2465 -0.5861 -0.2207
54526SOL    HW175303   7.785   4.089  10.594  0.0434  0.2786 -1.4190
54526SOL    HW275304   7.635   4.098  10.573 -0.1033 -0.9612 -0.9517
54527SOL     OW75305  10.205   3.431   0.732  0.1111 -0.0761  0.0388
54527SOL    HW175306  10.288   3.396   0.764  1.0855  2.1268  0.0795
54527SOL    HW275307  10.148   3.431   0.809 -0.0691 -1.8528 -0.0525
54528SOL     OW75308   9.005   3.546  10.256 -0.5417  0.2121  0.1519
54528SOL    HW175309   9.064   3.472  10.270 -0.0164  0.4146 -0.9556
54528SOL    HW275310   9.025   3.578  10.168 -2.1841  0.3846 -0.2013
54529SOL     OW75311   0.555   8.340   7.483  0.2523 -0.0993 -0.5672
54529SOL    HW175312   0.469   8.363   7.519  0.7942  0.5213  0.3565
54529SOL    HW275313   0.537   8.319   7.391 -0.6964  1.3176 -0.7406
54530SOL     OW75314   2.917  11.134   6.081  0.0620 -0.0172 -0.0345
54530SOL    HW175315   2.980  11.101   6.017  0.1074  3.6586 -2.1648
54530SOL    HW275316   2.970  11.172   6.151  0.0805 -0.9089  0.4454
54531SOL     OW75317   5.137   3.713  12.987 -0.1277 -0.2253  0.0950
54531SOL    HW175318   5.054   3.671  13.010 -0.3420  0.7023  1.0478
54531SOL    HW275319   5.204   3.660  13.030 -0.1728 -1.1223 -0.8753
54532SOL     OW75320  10.015  11.184   8.763 -0.8376 -0.0848 -0.1801
54532SOL    HW175321  10.077  11.194   8.690 -1.0227 -0.0297 -0.3317
54532SOL    HW275322  10.018  11.091   8.785  1.7392  0.4110  1.9779
54533SOL     OW75323  13.242   0.163   6.616  0.9322  0.1456  0.2051
54533SOL    HW175324  13.225   0.074   6.586 -0.6521  0.4703  0.0504
54533SOL    HW275325  13.285   0.206   6.542  0.5874 -0.1547 -0.1730
54534SOL     OW75326   3.332   8.965  12.417  0.0449  0.2245  0.2168
54534SOL    HW175327   3.369   8.995  12.500 -0.3253  0.3898  0.3255
54534SOL    HW275328   3.297   9.044  12.376 -0.8655 -0.0396  0.4674
54535SOL     OW75329   0.938   3.342   0.129  0.2805 -0.1451 -0.5164
54535SOL    HW175330   1.016   3.386   0.165  0.6274 -1.8599  0.9962
54535SOL    HW275331   0.964   3.250   0.121 -1.4040 -0.6578 -0.5101
54536SOL     OW75332  12.126   5.773  13.091 -0.2498  0.2386  0.5817
54536SOL    HW175333  12.041   5.731  13.080 -0.4464  0.8857 -0.5990
54536SOL    HW275334  12.190   5.703  13.077 -0.5721  0.2355 -1.0395
54537SOL     OW75335  13.336   8.547   2.817 -0.0690 -0.1015  1.1234
54537SOL    HW175336  13.316   8.640   2.814  0.8077  0.0877  0.3371
54537SOL    HW275337  13.376   8.529   2.731 -0.6437 -1.3001  1.0879
54538SOL     OW75338   5.691  11.113  13.123 -0.0089  0.0961  0.0906
54538SOL    HW175339   5.709  11.094  13.031  1.4613 -1.4387  0.6486
54538SOL    HW275340   5.767  11.164  13.152  0.5124 -1.1277  0.9301
54539SOL     OW75341  11.242  12.503   2.438  0.1860 -0.4568 -0.7494
54539SOL    HW175342  11.249  12.569   2.507  1.8500 -1.8311  0.4856
54539SOL    HW275343  11.297  12.431   2.468  0.1838 -1.5186 -3.0757
54540SOL     OW75344   8.327   0.226   2.145 -0.0420 -0.1204  0.1965
54540SOL    HW175345   8.409   0.222   2.095 -0.4678 -0.3794 -0.4934
54540SOL    HW275346   8.264   0.264   2.084 -0.2562  0.8142  0.9843
54541SOL     OW75347   7.163   8.408  11.634  0.3024 -0.1177 -0.5099
54541SOL    HW175348   7.080   8.456  11.639  0.4095  0.0779 -0.6067
54541SOL    HW275349   7.157   8.343  11.703  1.3638  1.8857  1.6069
54542SOL     OW75350   4.429   3.993   1.265 -0.5551 -0.2906  0.1110
54542SOL    HW175351   4.445   4.050   1.340 -0.8956 -1.0899  0.8144
54542SOL    HW275352   4.350   4.029   1.224  1.1569  1.8081 -1.5409
54543SOL     OW75353   7.250   0.557   1.128 -0.4495  0.1948  0.0420
54543SOL    HW175354   7.258   0.552   1.223  2.6150 -0.1896 -0.1336
54543SOL    HW275355   7.221   0.646   1.111  0.3793  0.7410  1.3239
54544SOL     OW75356  12.547   8.630   8.870  0.2042  0.3973 -0.1625
54544SOL    HW175357  12.539   8.717   8.909 -0.8653 -0.7478  2.4738
54544SOL    HW275358  12.456   8.599   8.862  0.5419 -0.3106 -1.4663
54545SOL     OW75359   3.049   4.309   1.164 -0.6508  0.6963  0.0286
54545SOL    HW175360   3.142   4.300   1.141 -1.2488  0.7555 -2.6178
54545SOL    HW275361   3.034   4.403   1.166 -0.6029  0.6961  0.8169
54546SOL     OW75362   7.350   1.356  11.098 -0.0354 -0.1926  0.3652
54546SOL    HW175363   7.263   1.353  11.138 -0.0328  0.2757  0.4140
54546SOL    HW275364   7.335   1.344  11.004 -0.2353  0.6748  0.2768
54547SOL     OW75365   6.088   8.608   4.146 -0.4599  0.0556 -0.3940
54547SOL    HW175366   6.122   8.522   4.169  0.7064  0.6102  0.0519
54547SOL    HW275367   6.116   8.621   4.055  1.2584  0.8210  0.2049
54548SOL     OW75368  12.335   4.759   1.683  0.1068 -0.0587  0.2805
54548SOL    HW175369  12.240   4.749   1.675 -0.1698 -2.0669  4.0288
54548SOL    HW275370  12.372   4.688   1.629 -0.3975  1.0537 -1.6174
54549SOL     OW75371   0.444  10.971   8.592 -0.3881 -0.5276  0.2491
54549SOL    HW175372   0.536  10.948   8.601 -0.0618  0.8101  0.5174
54549SOL    HW275373   0.433  10.988   8.498 -0.5501 -1.4023  0.1031
54550SOL     OW75374  13.095   0.749  11.362 -0.0729 -0.3574 -0.2337
54550SOL    HW175375  13.146   0.692  11.419  1.6981  2.6261  1.4313
54550SOL    HW275376  13.160   0.792  11.307 -0.5974  3.3507  1.7382
54551SOL     OW75377  12.972  10.612   6.490  0.0467  0.1074 -0.3667
54551SOL    HW175378  12.967  10.535   6.433 -0.0413  0.6639 -1.1266
54551SOL    HW275379  12.906  10.596   6.558  0.3539 -0.6944 -0.2412
54552SOL     OW75380   8.129   8.446   3.553  0.3212 -0.5682 -0.7559
54552SOL    HW175381   8.149   8.376   3.615 -1.0639  0.0794  0.4807
54552SOL    HW275382   8.153   8.410   3.467 -0.0081 -2.4014 -0.1139
54553SOL     OW75383   0.261   5.589  11.318  0.1283 -0.0372  0.1379
54553SOL    HW175384   0.311   5.550  11.246  0.2553  0.4300 -0.0342
54553SOL    HW275385   0.244   5.516  11.378 -1.1452 -0.7303 -0.9955
54554SOL     OW75386   7.560   6.825  12.194 -0.1291  0.0694  0.3934
54554SOL    HW175387   7.519   6.757  12.246 -0.6408  0.7355  0.8712
54554SOL    HW275388   7.644   6.840  12.235 -0.1641 -0.0241  0.4980
54555SOL     OW75389   1.264  13.004  12.887  0.0099 -0.5583 -0.1414
54555SOL    HW175390   1.332  12.986  12.822 -0.0407  0.6717 -0.5525
54555SOL    HW275391   1.303  13.069  12.945 -1.3299  1.3707 -1.3045
54556SOL     OW75392   0.071   4.313  10.230  0.1672 -0.4022 -0.5318
54556SOL    HW175393   0.115   4.283  10.151  0.6917  1.0847 -0.8325
54556SOL    HW275394  -0.018   4.335  10.201 -0.0740 -1.1621 -0.4032
54557SOL     OW75395  13.647   9.622  13.227 -0.6588 -0.1944  0.0120
54557SOL    HW175396  13.634   9.527  13.228 -1.0343 -0.1873  2.1350
54557SOL    HW275397  13.724   9.635  13.282 -1.6815  0.8100  1.2707
54558SOL     OW75398   4.756   7.054  11.866 -0.0787  0.6641  0.2209
54558SOL    HW175399   4.675   7.069  11.914  0.2758  0.9595  0.7450
54558SOL    HW275400   4.791   7.142  11.849  1.5628  0.5398  2.5113
54559SOL     OW75401  11.696   1.794   5.085  0.0086  0.0938  0.0634
54559SOL    HW175402  11.759   1.724   5.066 -0.7407 -0.2797 -1.1227
54559SOL    HW275403  11.637   1.757   5.151 -0.0750 -0.2066 -0.1829
54560SOL     OW75404   0.189   4.623   8.110 -0.3990 -0.3820  0.0462
54560SOL    HW175405   0.212   4.638   8.019 -0.7064  0.1315  0.0441
54560SOL    HW275406   0.272   4.622   8.157 -0.2665 -0.2351 -0.1868
54561SOL     OW75407   6.559  10.969   9.601  0.1595 -0.3405  0.1892
54561SOL    HW175408   6.538  10.969   9.694  1.9270 -0.6638  0.6274
54561SOL    HW275409   6.474  10.974   9.557 -0.9939 -3.4410  1.7470
54562SOL     OW75410  11.443   5.156   8.049  0.4439 -0.1077 -0.3095
54562SOL    HW175411  11.433   5.175   8.143  1.6395  2.2572 -0.5876
54562SOL    HW275412  11.354   5.160   8.015 -0.2315 -2.6509  0.9288
54563SOL     OW75413   4.067   6.330   9.236 -0.3311  0.1097 -0.0074
54563SOL    HW175414   4.069   6.341   9.141 -0.4999 -0.5783 -0.0962
54563SOL    HW275415   3.977   6.351   9.261 -0.6079 -0.8526 -0.1554
54564SOL     OW75416   3.207  11.829   3.405 -0.7830  0.0737 -0.1854
54564SOL    HW175417   3.175  11.746   3.369  1.4066 -0.3025 -1.4089
54564SOL    HW275418   3.265  11.864   3.338  2.1168  0.2229  2.1918
54565SOL     OW75419   2.506   4.868   7.594  0.2735 -0.0003 -0.3597
54565SOL    HW175420   2.448   4.915   7.654  1.4138 -1.4955  2.0519
54565SOL    HW275421   2.482   4.776   7.606  1.5076 -0.4422 -1.1623
54566SOL     OW75422   9.025  13.288  12.844 -0.0264 -0.1038  0.3920
54566SOL    HW175423   8.996  13.315  12.757 -0.9441 -1.3988  0.2716
54566SOL    HW275424   8.983  13.350  12.903  0.0468  0.3670 -0.0384
54567SOL     OW75425   6.658   0.662   7.527 -0.1982  0.1102 -0.3373
54567SOL    HW175426   6.688   0.572   7.517 -1.7628 -0.7002  1.6486
54567SOL    HW275427   6.683   0.686   7.617 -3.9868 -0.1534  0.9510
54568SOL     OW75428   0.606   2.303  13.677  0.2800  0.0084  0.1868
54568SOL    HW175429   0.633   2.293  13.768 -1.8545 -0.7960  0.7968
54568SOL    HW275430   0.662   2.372  13.642  1.9647 -0.5031  1.7429
54569SOL     OW75431   6.775   1.663   5.704 -0.2023  0.0964 -0.5512
54569SOL    HW175432   6.713   1.681   5.633 -0.2105 -3.0036 -1.4765
54569SOL    HW275433   6.744   1.581   5.742  1.3220  0.3439  1.3666
54570SOL     OW75434   0.361  11.014   1.919 -0.3354 -0.3775 -0.0000
54570SOL    HW175435   0.378  11.010   1.825  0.8245 -1.1960  0.2257
54570SOL    HW275436   0.447  11.001   1.960  0.0951  4.2514  1.2042
54571SOL     OW75437   6.464  13.693   6.538  0.0403  0.4833 -0.0471
54571SOL    HW175438   6.548  13.707   6.493  1.7175 -0.1661  2.6172
54571SOL    HW275439   6.448  13.776   6.584 -0.5768  0.4757 -0.2486
54572SOL     OW75440   1.957  11.372   1.467  0.2965  0.0394 -0.1335
54572SOL    HW175441   2.029  11.315   1.493 -1.9984 -3.1094 -0.0192
54572SOL    HW275442   1.913  11.393   1.549 -1.5792 -2.1063 -0.5013
54573SOL     OW75443   2.833   8.369   6.689  0.6664  0.4199 -0.2070
54573SOL    HW175444   2.812   8.313   6.614 -1.9071  0.6710  0.2211
54573SOL    HW275445   2.790   8.326   6.763 -0.4786  2.3657  0.3218
54574SOL     OW75446   4.167   0.951   9.572  0.6382 -0.0365  0.3840
54574SOL    HW175447   4.142   0.868   9.614 -0.6576  0.5316  0.7745
54574SOL    HW275448   4.161   1.016   9.641  0.9299  0.5175 -0.0988
54575SOL     OW75449   7.425  10.586   9.888 -0.0782  0.5292 -1.2055
54575SOL    HW175450   7.332  10.571   9.905  0.1239  0.2110 -0.3326
54575SOL    HW275451   7.452  10.648   9.956  0.5310 -0.0217 -0.9354
54576SOL     OW75452   8.534  12.153   6.670  0.3301 -0.1607 -0.3313
54576SOL    HW175453   8.619  12.198   6.664  0.1201  0.6116  1.6717
54576SOL    HW275454   8.541  12.099   6.748 -1.6638  1.4637  1.0840
54577SOL     OW75455   6.564   3.383   9.636 -0.2419 -0.0955  0.9620
54577SOL    HW175456   6.622   3.459   9.634  0.1600 -0.3666  1.9728
54577SOL    HW275457   6.575   3.342   9.550  0.4733  0.2841  0.8678
54578SOL     OW75458   4.551  10.139   6.963 -0.4528  0.2622 -0.8155
54578SOL    HW175459   4.511  10.213   6.917  0.4858  0.5640 -1.1726
54578SOL    HW275460   4.534  10.157   7.056  2.1029  2.4299 -0.6424
54579SOL     OW75461  12.174   2.531   3.150  0.0424  0.2891 -0.2713
54579SOL    HW175462  12.200   2.440   3.137 -1.3395 -0.0935 -0.4710
54579SOL    HW275463  12.186   2.572   3.064  1.7294  0.6033  0.0778
54580SOL     OW75464  12.267   1.154  12.054 -0.1817 -0.3307 -0.1148
54580SOL    HW175465  12.279   1.204  11.973 -1.1860 -0.8413 -0.5951
54580SOL    HW275466  12.195   1.198  12.099 -1.7522 -1.8737 -1.0090
54581SOL     OW75467   7.452   1.202   7.170  0.0939  0.0621  0.1744
54581SOL    HW175468   7.423   1.181   7.081 -1.2980 -0.7626  0.7863
54581SOL    HW275469   7.406   1.284   7.191  0.9358  0.6112 -0.0892
54582SOL     OW75470  13.148   0.108   3.969 -0.0509  0.0242 -0.9449
54582SOL    HW175471  13.101   0.191   3.959 -1.7649 -0.7508  0.0942
54582SOL    HW275472  13.232   0.122   3.926 -0.0260  2.5072 -0.2297
54583SOL     OW75473   3.639   6.761   2.556  0.3387 -0.3526  0.3784
54583SOL    HW175474   3.659   6.767   2.650  0.0287  0.2973  0.4074
54583SOL    HW275475   3.544   6.774   2.551  0.3459 -0.4473 -0.0217
54584SOL     OW75476   0.847   1.289   3.421 -0.0015 -0.0389 -0.2435
54584SOL    HW175477   0.831   1.343   3.344  0.9540  0.2856 -0.2350
54584SOL    HW275478   0.765   1.292   3.471  0.4056  2.5395  0.4446
54585SOL     OW75479   8.903   6.083   0.588 -0.2977  0.1630 -0.4547
54585SOL    HW175480   8.892   6.164   0.539 -1.2864  0.4007  0.1525
54585SOL    HW275481   8.941   6.110   0.671  1.1908 -0.2211 -0.9762
54586SOL     OW75482   4.852  10.009   0.744  0.6407 -0.2999  0.4780
54586SOL    HW175483   4.811   9.924   0.756  0.7453 -0.4849 -0.3604
54586SOL    HW275484   4.938   9.989   0.708 -0.0672  0.1844 -1.6346
54587SOL     OW75485  12.136   1.750  13.397 -0.4156 -0.7668 -0.3359
54587SOL    HW175486  12.068   1.786  13.341 -1.0855 -0.3120  0.7429
54587SOL    HW275487  12.191   1.698  13.337 -1.2363 -0.4997 -1.3572
54588SOL     OW75488  10.176   5.769   3.226 -0.7331  0.1964 -0.2602
54588SOL    HW175489  10.212   5.834   3.165  0.2053 -0.1976 -0.1254
54588SOL    HW275490  10.090   5.805   3.249 -0.7556  0.7671 -1.1601
54589SOL     OW75491   7.344   4.080  11.727 -0.1425  0.3701 -0.3239
54589SOL    HW175492   7.369   4.103  11.638 -1.0668  0.0535 -0.6755
54589SOL    HW275493   7.248   4.074  11.725 -0.0673 -2.0361  0.0945
54590SOL     OW75494   7.064  11.733  10.901 -0.3998  0.3985  0.5234
54590SOL    HW175495   7.121  11.752  10.975  1.2255  0.0284 -0.5857
54590SOL    HW275496   7.060  11.638  10.896  0.5142  0.4008 -0.5877
54591SOL     OW75497  11.310   1.717   3.455  0.0091 -0.4567  0.3282
54591SOL    HW175498  11.239   1.740   3.395  0.6450 -0.2742 -0.3713
54591SOL    HW275499  11.389   1.722   3.401  0.8497  1.6172  1.6179
54592SOL     OW75500   5.914  11.769  12.441  0.0035 -0.0395  0.2517
54592SOL    HW175501   5.877  11.853  12.412  0.2469  0.0663  0.2455
54592SOL    HW275502   5.842  11.726  12.488  0.0152  0.3741  0.6551
54593SOL     OW75503   7.793   0.871   4.316 -0.6274 -0.3419  0.0855
54593SOL    HW175504   7.710   0.869   4.363 -1.4021  3.1420 -0.8406
54593SOL    HW275505   7.852   0.920   4.373 -0.1840 -0.0694 -0.5848
54594SOL     OW75506  13.680   8.145   2.046 -0.4053 -0.4456 -0.4197
54594SOL    HW175507  13.603   8.120   2.098 -0.3584  0.4160  0.0860
54594SOL    HW275508  13.656   8.229   2.007 -0.0017 -0.5392 -0.8749
54595SOL     OW75509  10.813   3.062   1.226 -0.1314  0.0920 -0.2663
54595SOL    HW175510  10.892   3.079   1.277 -0.3713  1.4042 -0.2971
54595SOL    HW275511  10.795   2.969   1.239  2.8144 -0.8875 -2.2447
54596SOL     OW75512  11.324   0.987   5.744  0.0395  0.0762 -0.1499
54596SOL    HW175513  11.309   0.912   5.801 -0.0353  0.7268  0.7035
54596SOL    HW275514  11.245   0.994   5.691 -0.5044  0.3602  0.6993
54597SOL     OW75515   1.312   9.766  10.796 -0.0492  0.2151  0.6480
54597SOL    HW175516   1.237   9.784  10.853  0.6341 -0.2610  1.7180
54597SOL    HW275517   1.362   9.847  10.797 -0.6944  0.6397 -0.3182
54598SOL     OW75518  12.106   2.670  10.578  0.2033 -0.3618 -0.4307
54598SOL    HW175519  12.083   2.761  10.560 -1.0686 -0.7034 -0.6026
54598SOL    HW275520  12.128   2.669  10.671 -2.1895 -0.3073  0.1905
54599SOL     OW75521  13.177   8.067   5.845 -0.0425 -0.1184  0.5663
54599SOL    HW175522  13.127   7.989   5.870 -0.6987 -0.6991 -2.2730
54599SOL    HW275523  13.111   8.127   5.808  0.6628  1.2736  1.4657
54600SOL     OW75524  12.749   0.448   7.985 -0.8457  0.0259  0.4259
54600SOL    HW175525  12.719   0.389   8.054  1.3733 -0.0556  1.4061
54600SOL    HW275526  12.800   0.515   8.031  1.9167 -0.8008 -1.1810
54601SOL     OW75527   6.107  13.455   7.627 -1.0592 -0.1238 -0.0547
54601SOL    HW175528   6.135  13.364   7.612 -2.4691 -0.6426  0.2817
54601SOL    HW275529   6.110  13.465   7.722 -1.2830  0.0539 -0.0666
54602SOL     OW75530   7.081   6.692   0.408 -0.3232 -0.5936  0.2253
54602SOL    HW175531   7.158   6.725   0.363 -0.0859 -2.3023 -0.7106
54602SOL    HW275532   7.113   6.667   0.495  0.1621 -1.1964 -0.1233
54603SOL     OW75533   8.218   5.254   8.001 -1.1614 -0.4791 -0.1094
54603SOL    HW175534   8.150   5.290   8.056  0.4785  0.8277  1.1683
54603SOL    HW275535   8.246   5.327   7.946 -0.3661 -0.8115 -0.1621
54604SOL     OW75536  11.922   2.616   1.001  0.1685 -0.3297  0.3440
54604SOL    HW175537  11.941   2.534   0.955 -0.4536 -0.0149 -0.4973
54604SOL    HW275538  11.928   2.683   0.933  0.3312  0.2794  0.9588
54605SOL     OW75539  10.166   8.784  10.302  0.2657 -0.0917 -0.0499
54605SOL    HW175540  10.206   8.827  10.377  1.0298 -1.9186  0.6589
54605SOL    HW275541  10.240   8.759  10.246  0.3323 -3.6703  1.3597
54606SOL     OW75542   0.365   2.773   7.189 -0.9705  0.5301 -0.0121
54606SOL    HW175543   0.378   2.839   7.258  2.1788 -0.9204  0.9738
54606SOL    HW275544   0.448   2.774   7.141 -1.5952 -1.3476 -1.1941
54607SOL     OW75545   5.891  12.125   6.261 -0.0985  0.0724  0.2726
54607SOL    HW175546   5.819  12.085   6.211 -1.4750  1.3516  1.1767
54607SOL    HW275547   5.928  12.052   6.311 -0.5394 -0.6584 -0.4247
54608SOL     OW75548   7.799   4.151   7.793  1.0011 -0.2333 -0.3499
54608SOL    HW175549   7.877   4.196   7.827  0.5469 -0.1420  0.5918
54608SOL    HW275550   7.813   4.059   7.817  1.0021 -0.2819 -0.5356
54609SOL     OW75551   8.298   3.121   5.943  0.2418  0.1211 -0.3882
54609SOL    HW175552   8.316   3.031   5.969 -1.1340  0.0699  0.5068
54609SOL    HW275553   8.322   3.173   6.020 -0.1821  0.3697 -0.4183
54610SOL     OW75554  10.169  11.361   2.007  0.3023 -0.0829  0.3310
54610SOL    HW175555  10.145  11.291   1.946  0.1456  2.1171 -2.2778
54610SOL    HW275556  10.085  11.387   2.047 -0.0187  0.3144 -0.5950
54611SOL     OW75557  13.604   4.178   7.973  0.1653 -0.2528 -0.3585
54611SOL    HW175558  13.619   4.092   8.014 -0.1218  0.8322  2.1955
54611SOL    HW275559  13.689   4.222   7.979  0.2003 -0.1686 -1.2913
54612SOL     OW75560  13.182  12.066   2.927  0.0873 -0.1787  0.3066
54612SOL    HW175561  13.194  11.983   2.973  0.8596 -0.6662 -0.7460
54612SOL    HW275562  13.088  12.081   2.927 -0.1589 -1.6238 -0.4709
54613SOL     OW75563  11.379   0.800  11.401 -0.0650  0.3781 -0.4563
54613SOL    HW175564  11.455   0.743  11.415  0.0417  0.6257  0.0000
54613SOL    HW275565  11.401   0.849  11.321 -0.1183 -0.1469 -0.7996
54614SOL     OW75566   9.945  10.230   6.865  0.4839 -0.4659 -0.3423
54614SOL    HW175567   9.935  10.295   6.935  1.8157 -1.6500  1.0100
54614SOL    HW275568  10.038  10.209   6.863  0.2338 -1.6557 -1.3856
54615SOL     OW75569   1.939   1.944   7.207 -0.3945 -0.0659 -0.0757
54615SOL    HW175570   1.910   1.993   7.285  1.7068 -0.4954  1.0619
54615SOL    HW275571   1.925   2.005   7.135  0.6006  1.6394  1.0811
54616SOL     OW75572   5.095   1.971   1.349  0.4875 -0.3863 -0.7665
54616SOL    HW175573   5.156   2.031   1.306  0.1892  0.5419  0.0746
54616SOL    HW275574   5.146   1.892   1.366  2.6256  1.5324  3.0727
54617SOL     OW75575   2.512   3.108  11.286 -1.1927 -0.0382 -0.1867
54617SOL    HW175576   2.440   3.111  11.349  0.0495  0.0196  1.2790
54617SOL    HW275577   2.481   3.162  11.213 -2.2090  0.8991  0.8756
54618SOL     OW75578   6.359  10.279  10.866 -0.0404 -0.0511  0.3688
54618SOL    HW175579   6.452  10.276  10.891 -0.5137  1.8859  2.6775
54618SOL    HW275580   6.316  10.326  10.937 -2.2196  2.3682 -2.2785
54619SOL     OW75581   2.250  10.864  11.338 -0.4655  0.2256  0.2661
54619SOL    HW175582   2.290  10.950  11.331 -1.1312  0.4802 -0.5944
54619SOL    HW275583   2.156  10.881  11.341 -0.5719 -0.2334  4.2247
54620SOL     OW75584   8.407   6.534   7.843  0.0583 -0.4323 -0.2557
54620SOL    HW175585   8.378   6.458   7.793 -0.3609 -1.1310  1.0056
54620SOL    HW275586   8.426   6.500   7.930  0.2605  0.8445  0.2244
54621SOL     OW75587  11.331   5.205   0.251  0.1925 -0.1178 -0.0218
54621SOL    HW175588  11.272   5.144   0.296 -2.2096  1.6304 -0.5800
54621SOL    HW275589  11.362   5.263   0.320  0.4499 -0.4407  0.1319
54622SOL     OW75590   2.917  13.634  11.259 -0.1577  0.1357  0.0590
54622SOL    HW175591   2.917  13.594  11.172 -0.8182 -0.5593  0.3702
54622SOL    HW275592   3.004  13.614  11.293 -0.1715 -0.2745 -0.1362
54623SOL     OW75593  10.145  12.980  10.203 -0.0584  0.1842 -0.7768
54623SOL    HW175594  10.050  12.968  10.203  0.0268 -0.5827 -1.7833
54623SOL    HW275595  10.158  13.074  10.217 -0.9309  0.1517  0.3938
54624SOL     OW75596   8.073  13.021   5.313 -0.3810  0.2721 -0.9735
54624SOL    HW175597   8.027  13.018   5.229 -2.0754  1.4179 -0.1360
54624SOL    HW275598   8.150  12.965   5.300 -1.9025 -1.6011 -2.4811
54625SOL     OW75599   7.539   2.002  12.058 -0.7757 -0.1215  0.5285
54625SOL    HW175600   7.493   1.967  11.982 -0.5669  1.5264 -0.4033
54625SOL    HW275601   7.493   1.964  12.133 -1.2603 -1.4367 -0.4024
54626SOL     OW75602   4.008  12.807  13.064 -0.4990  0.0483 -0.1957
54626SOL    HW175603   3.924  12.795  13.019 -0.8239 -1.5587  0.7445
54626SOL    HW275604   4.021  12.725  13.112  1.3820  0.4620  0.0749
54627SOL     OW75605   0.745   6.365   5.331 -0.0769 -0.3333 -0.4945
54627SOL    HW175606   0.775   6.417   5.406  1.1239 -0.0499 -1.1335
54627SOL    HW275607   0.793   6.283   5.339 -0.4000 -0.5351 -0.6200
54628SOL     OW75608   0.935   1.905   9.941  0.2947 -0.5831 -0.0600
54628SOL    HW175609   0.983   1.986   9.955  1.5603 -1.3163  0.0014
54628SOL    HW275610   0.843   1.928   9.956  0.2383  1.5068 -2.8697
54629SOL     OW75611  13.403  12.658   1.041 -0.5197  0.3205 -0.3204
54629SOL    HW175612  13.330  12.718   1.026 -0.3984  0.3109 -0.9634
54629SOL    HW275613  13.473  12.714   1.074 -0.8160  0.3268  0.3218
54630SOL     OW75614   0.180   6.952   6.838  0.3847 -0.1151 -0.0336
54630SOL    HW175615   0.089   6.982   6.839  0.4955  0.2170  1.1210
54630SOL    HW275616   0.175   6.863   6.804 -0.5527 -0.6097  1.2922
54631SOL     OW75617   1.470   6.613  12.303  0.3000  0.6723  0.2506
54631SOL    HW175618   1.515   6.614  12.387 -0.0562 -3.3740  0.6697
54631SOL    HW275619   1.377   6.607  12.326  0.2762 -2.3011 -0.2368
54632SOL     OW75620   5.091   6.774   9.758 -0.9193 -0.3566  0.2119
54632SOL    HW175621   4.997   6.760   9.751 -1.2883  1.6465  0.5332
54632SOL    HW275622   5.118   6.799   9.670 -1.0297  0.7002  0.4583
54633SOL     OW75623  11.868   6.368   4.606  0.1014 -0.0154 -0.4277
54633SOL    HW175624  11.937   6.301   4.602  0.7221  0.6312 -0.8287
54633SOL    HW275625  11.837   6.365   4.697  0.6837 -0.2937 -0.2288
54634SOL     OW75626   1.626  11.925   8.891  0.3697  0.0731 -0.2675
54634SOL    HW175627   1.598  11.840   8.925  3.1161 -1.1598 -0.8097
54634SOL    HW275628   1.696  11.953   8.950  1.0776  0.8143 -1.4022
54635SOL     OW75629   9.055  13.008   2.815  0.1607 -0.1514  0.9999
54635SOL    HW175630   9.136  13.055   2.834 -1.2649  3.0405 -0.2196
54635SOL    HW275631   9.077  12.952   2.741  1.3406  0.3575  0.9492
54636SOL     OW75632   6.207   9.390  13.216 -0.1896 -0.0693 -0.6293
54636SOL    HW175633   6.278   9.368  13.277 -2.3487 -1.2987  1.6027
54636SOL    HW275634   6.164   9.306  13.199 -1.2143  0.6760 -1.8092
54637SOL     OW75635   3.790  12.826   8.593  0.2988  0.1687  0.8090
54637SOL    HW175636   3.749  12.746   8.625 -1.7191  1.5282  1.8771
54637SOL    HW275637   3.717  12.885   8.575  1.6923  1.6178 -0.4004
54638SOL     OW75638  12.808   5.094   2.673  0.6223 -0.9227 -0.0891
54638SOL    HW175639  12.843   5.179   2.645 -1.1635 -0.0783  0.1173
54638SOL    HW275640  12.757   5.064   2.598  0.6614 -1.4739  0.1040
54639SOL     OW75641   1.589  12.256   4.438  0.8188  0.1655  0.2912
54639SOL    HW175642   1.571  12.275   4.530  0.5389 -1.3266  0.5693
54639SOL    HW275643   1.659  12.191   4.440  0.6188 -0.0853 -0.5332
54640SOL     OW75644   4.273   4.913   9.948 -0.5629 -0.6628  0.3551
54640SOL    HW175645   4.333   4.856   9.997 -0.5831 -1.0196 -0.0325
54640SOL    HW275646   4.320   4.996   9.942 -0.4626 -0.6858  0.7784
54641SOL     OW75647   7.304   3.647   2.426  0.1459  0.2649 -0.2525
54641SOL    HW175648   7.369   3.586   2.461 -0.2912 -0.3798 -0.5450
54641SOL    HW275649   7.238   3.653   2.495 -1.2886 -1.8759 -1.3330
54642SOL     OW75650  13.102   7.276   6.348 -0.1598  1.0299  0.0561
54642SOL    HW175651  13.187   7.318   6.337 -0.1182  0.4258 -2.6955
54642SOL    HW275652  13.122   7.182   6.351 -0.6528  0.9324  0.5519
54643SOL     OW75653  13.272  11.358   7.636  0.0265  0.1211  0.4395
54643SOL    HW175654  13.321  11.276   7.643  1.5540  1.0214  0.7346
54643SOL    HW275655  13.280  11.398   7.722 -1.3005  0.2834  0.5039
54644SOL     OW75656   2.211  10.415   2.297 -0.3768 -0.3431 -0.0647
54644SOL    HW175657   2.196  10.324   2.321  2.5358 -1.0249 -0.3778
54644SOL    HW275658   2.281  10.444   2.355  0.2233  1.0013 -1.3752
54645SOL     OW75659  11.172   2.549   5.200  0.5832  0.3475 -0.3935
54645SOL    HW175660  11.227   2.471   5.192  1.6893  1.0847 -0.1628
54645SOL    HW275661  11.205   2.608   5.132  2.0715  1.9427  1.5759
54646SOL     OW75662   6.486   1.463   6.074  0.2855 -0.4630  0.4991
54646SOL    HW175663   6.395   1.445   6.100  0.9245 -0.1840  3.1669
54646SOL    HW275664   6.537   1.395   6.117  1.5910  0.9920  1.3556
54647SOL     OW75665   7.651   1.736   6.290  0.0146  0.2612  0.3731
54647SOL    HW175666   7.723   1.729   6.227  1.3616 -0.1298  1.8755
54647SOL    HW275667   7.660   1.824   6.326 -2.1322  1.3404 -1.4872
54648SOL     OW75668   4.185   7.517   9.941  0.5134 -0.2878 -0.4959
54648SOL    HW175669   4.154   7.514   9.851 -4.8837  2.3116  0.8217
54648SOL    HW275670   4.192   7.610   9.961  0.3037 -0.7295  2.0292
54649SOL     OW75671   0.067   6.127   7.922  0.2463  0.3740  0.0643
54649SOL    HW175672   0.071   6.155   7.831  0.0766  0.1875 -0.0035
54649SOL    HW275673   0.024   6.041   7.919 -0.1353  0.5521  0.3610
54650SOL     OW75674   6.986   9.352   8.575 -0.8875  0.1471 -0.0394
54650SOL    HW175675   6.925   9.369   8.646 -0.1250 -1.6310  1.1002
54650SOL    HW275676   7.067   9.393   8.602 -1.3900  2.2545 -1.4225
54651SOL     OW75677   0.905  10.559   1.734  1.2457 -0.4447  0.6352
54651SOL    HW175678   0.906  10.644   1.779  0.1542 -0.7467  1.2573
54651SOL    HW275679   0.899  10.495   1.804 -1.9934 -0.8738  0.1156
54652SOL     OW75680   1.823   0.067   1.185  1.0785 -0.5171 -0.4258
54652SOL    HW175681   1.754   0.132   1.201 -0.6532 -2.5984  1.2087
54652SOL    HW275682   1.858   0.090   1.099 -2.3344  0.1293 -1.8246
54653SOL     OW75683  11.530  10.335   8.487  0.4949  0.3496 -0.2472
54653SOL    HW175684  11.583  10.414   8.498  0.7436  0.0990  0.3538
54653SOL    HW275685  11.592  10.267   8.463  0.1234  0.6021 -2.0764
54654SOL     OW75686   3.489  11.615   5.863 -0.1413  0.4243  0.0047
54654SOL    HW175687   3.522  11.690   5.913 -1.4237  1.3429 -0.4528
54654SOL    HW275688   3.451  11.557   5.929  0.2073  0.5190  0.2937
54655SOL     OW75689   9.653   4.800   5.266 -0.3108  0.5176 -0.6609
54655SOL    HW175690   9.621   4.807   5.176  1.9021  1.8127 -1.4162
54655SOL    HW275691   9.721   4.867   5.272  1.8419 -1.6668  0.9712
54656SOL     OW75692   8.576   0.596  13.447 -0.6820  0.8227 -0.7178
54656SOL    HW175693   8.604   0.583  13.538  2.1713 -0.8872 -1.7202
54656SOL    HW275694   8.634   0.665  13.414 -1.0590  0.7737 -1.4957
54657SOL     OW75695  12.959   5.283   2.558  0.0073  0.5864  0.1434
54657SOL    HW175696  12.995   5.241   2.480  2.5651 -0.4392  1.7237
54657SOL    HW275697  13.022   5.352   2.579 -1.0883  1.3949  0.8485
54658SOL     OW75698  13.311   7.650  11.873 -0.4656  0.2404 -0.2227
54658SOL    HW175699  13.406   7.650  11.865 -0.3394 -0.1154  1.0108
54658SOL    HW275700  13.280   7.600  11.797  0.3671 -0.1733 -0.2958
54659SOL     OW75701  11.385   1.545   4.744 -1.0801 -0.5103  0.1154
54659SOL    HW175702  11.414   1.636   4.741 -1.3394 -0.3135  1.9697
54659SOL    HW275703  11.290   1.551   4.753 -1.5219 -1.0898 -3.0677
54660SOL     OW75704  13.467  10.304   6.589  0.0583 -0.2236 -0.2871
54660SOL    HW175705  13.540  10.243   6.586 -0.7098 -1.1362 -0.7653
54660SOL    HW275706  13.501  10.384   6.549  1.3745  0.0342  1.2275
54661SOL     OW75707   5.453   3.458  11.743  0.0787  0.6810  0.4384
54661SOL    HW175708   5.528   3.468  11.802  1.1308 -1.4727 -0.3894
54661SOL    HW275709   5.481   3.501  11.662  0.1436  0.5270  0.3766
54662SOL     OW75710  12.840   9.356  11.712 -0.1999 -0.3349 -0.3162
54662SOL    HW175711  12.810   9.347  11.622  1.5771 -0.5574 -0.9332
54662SOL    HW275712  12.847   9.266  11.745 -0.3603 -0.2796 -0.1298
54663SOL     OW75713  11.331   5.437   5.008  0.0931 -0.0770 -0.0790
54663SOL    HW175714  11.283   5.486   4.941  0.5197  0.1813 -0.2078
54663SOL    HW275715  11.342   5.500   5.080 -0.9721 -0.5741  0.5272
54664SOL     OW75716   5.335   4.171   2.062 -0.2914  0.3384 -0.2920
54664SOL    HW175717   5.401   4.177   1.993  0.5316  1.6376  0.5548
54664SOL    HW275718   5.267   4.114   2.027 -0.0839  1.2699 -2.3203
54665SOL     OW75719   4.039  12.875   3.598 -0.4459  0.6133  0.2395
54665SOL    HW175720   3.984  12.934   3.547  0.6136  0.5335 -1.0624
54665SOL    HW275721   4.015  12.891   3.689 -1.6555  1.5217 -0.2249
54666SOL     OW75722   8.186   1.708   6.131 -0.5286 -0.1670  0.2673
54666SOL    HW175723   8.229   1.635   6.085 -0.6895  0.3462 -0.7323
54666SOL    HW275724   8.254   1.775   6.138 -0.2036 -0.6386  1.7377
54667SOL     OW75725   3.666   8.237  12.843 -1.1449 -0.7601 -0.2303
54667SOL    HW175726   3.611   8.167  12.809  2.0866 -3.7638  0.1030
54667SOL    HW275727   3.644   8.242  12.936 -2.6127 -0.0233 -0.5952
54668SOL     OW75728  13.460   3.540   5.505 -0.1205 -0.3237  0.0794
54668SOL    HW175729  13.481   3.582   5.588  0.4148  0.9617 -0.6758
54668SOL    HW275730  13.542   3.541   5.456 -0.6645 -0.1397 -0.8526
54669SOL     OW75731   1.410  12.214  11.523 -0.4380  0.0666 -0.4628
54669SOL    HW175732   1.470  12.179  11.457 -0.5872  0.6515 -0.9176
54669SOL    HW275733   1.467  12.256  11.587 -0.3667  1.0606 -1.1542
54670SOL     OW75734   7.633   1.550   4.329 -0.2828 -0.3534  0.2400
54670SOL    HW175735   7.697   1.478   4.329 -1.6450 -1.6474  1.5477
54670SOL    HW275736   7.606   1.557   4.421 -2.1315  0.0354 -0.2948
54671SOL     OW75737  12.264   2.927   2.424  0.1013  0.2525  0.3355
54671SOL    HW175738  12.224   2.840   2.424  1.8960 -0.6106  1.8935
54671SOL    HW275739  12.242   2.962   2.337 -2.3838 -0.8858  0.3998
54672SOL     OW75740   9.757   0.065   7.591 -0.3369  0.3307 -0.1445
54672SOL    HW175741   9.822   0.026   7.651 -0.0782  0.7668 -0.1362
54672SOL    HW275742   9.674   0.028   7.619 -0.2887  0.9254  0.8297
54673SOL     OW75743   9.996  12.514   5.910 -0.8062  0.0875  0.5065
54673SOL    HW175744  10.016  12.443   5.971 -1.5321 -1.2629 -0.7804
54673SOL    HW275745  10.031  12.593   5.953 -1.8023 -0.6993  2.9251
54674SOL     OW75746   3.493  11.384  13.382 -0.6514  0.3141  0.5845
54674SOL    HW175747   3.465  11.469  13.415 -0.8502  0.1608  0.8093
54674SOL    HW275748   3.503  11.397  13.287  0.8142  1.0006  0.8129
54675SOL     OW75749   6.144   6.485   7.822 -0.1365 -0.0472 -0.0011
54675SOL    HW175750   6.079   6.551   7.845 -0.2888 -0.4659  0.8191
54675SOL    HW275751   6.220   6.505   7.877  0.2013  0.0681 -0.5036
54676SOL     OW75752  12.673  13.613  11.045  0.3982  0.0139  0.4678
54676SOL    HW175753  12.718  13.539  11.084  0.5878 -1.1025 -1.6787
54676SOL    HW275754  12.708  13.618  10.956 -0.9905  1.4889 -0.0503
54677SOL     OW75755   5.357   1.235   5.497  0.3689 -0.1910 -0.3090
54677SOL    HW175756   5.324   1.203   5.580  2.0097  1.9011  1.2535
54677SOL    HW275757   5.304   1.312   5.478  0.2860 -0.4102 -1.0144
54678SOL     OW75758  10.455   9.977   8.532  0.3593  0.1976  0.1341
54678SOL    HW175759  10.489   9.962   8.620  0.8494  2.1704  0.3364
54678SOL    HW275760  10.367  10.014   8.545  0.2210  0.0013 -0.2130
54679SOL     OW75761   8.683   2.709   3.047 -0.2696  0.2843 -0.6567
54679SOL    HW175762   8.606   2.692   2.992 -0.4172 -2.3394  0.2121
54679SOL    HW275763   8.646   2.734   3.132 -0.3349 -2.5541  0.2529
54680SOL     OW75764  12.136   1.315   4.063 -0.3320  0.0394 -0.0726
54680SOL    HW175765  12.138   1.370   4.141 -1.2185  0.4835 -0.3506
54680SOL    HW275766  12.186   1.237   4.088 -1.0384 -0.0556  1.1269
54681SOL     OW75767   1.360   1.840  12.413 -0.3978  0.3579  0.4206
54681SOL    HW175768   1.271   1.866  12.390  0.0954  0.7667 -1.1827
54681SOL    HW275769   1.382   1.893  12.489 -0.7620  1.8601 -0.4869
54682SOL     OW75770  10.166   0.765  11.810 -0.0413 -0.0545  0.2351
54682SOL    HW175771  10.259   0.789  11.804 -0.2059  0.5044 -0.1269
54682SOL    HW275772  10.164   0.673  11.786  0.4638 -0.1704  0.5979
54683SOL     OW75773   2.321   8.131  10.315 -0.6031  0.2097 -0.2008
54683SOL    HW175774   2.394   8.133  10.376 -3.4585  1.3209  3.4865
54683SOL    HW275775   2.299   8.222  10.300 -1.9353 -0.1127 -0.3064
54684SOL     OW75776  12.171   7.428   6.364  0.8193  0.1828 -0.2201
54684SOL    HW175777  12.180   7.360   6.430  0.5195  1.8438  1.6029
54684SOL    HW275778  12.252   7.478   6.369  0.1030  1.3526  0.1250
54685SOL     OW75779   0.343   2.932   6.159 -0.1363  0.4787 -0.4976
54685SOL    HW175780   0.253   2.958   6.175  0.0413  1.3716 -0.8809
54685SOL    HW275781   0.348   2.841   6.189 -0.8634  0.7753  0.5473
54686SOL     OW75782   4.330   2.223   8.115 -0.5310  0.0124 -0.2057
54686SOL    HW175783   4.353   2.139   8.075 -1.1233 -0.8721  1.2129
54686SOL    HW275784   4.235   2.226   8.110 -0.6385 -0.2040  1.2173
54687SOL     OW75785   7.508   3.083  12.916  0.1192  0.1266  0.6996
54687SOL    HW175786   7.489   3.024  12.843  1.7675 -0.0555  0.3799
54687SOL    HW275787   7.425   3.093  12.961 -0.8860  0.0325 -1.0430
54688SOL     OW75788   3.752   9.284   8.893  0.4177 -0.1339  0.7544
54688SOL    HW175789   3.804   9.359   8.863 -0.8034  0.8650  1.0601
54688SOL    HW275790   3.726   9.308   8.982  0.3611 -1.1223  1.0123
54689SOL     OW75791  11.876   5.274  13.107  0.4655  0.2643  0.1370
54689SOL    HW175792  11.855   5.271  13.014 -0.7454 -0.8270  0.4141
54689SOL    HW275793  11.850   5.362  13.135 -0.2414  0.2168 -0.3371
54690SOL     OW75794  13.179  11.154   3.203 -0.5299  0.0260  0.1345
54690SOL    HW175795  13.238  11.226   3.226  1.3307 -1.6376  0.8368
54690SOL    HW275796  13.107  11.162   3.267 -0.2422  1.0923  0.3549
54691SOL     OW75797   7.704  11.018   5.140  0.3496  0.6368 -0.2733
54691SOL    HW175798   7.697  11.113   5.130  1.9025  0.6312 -1.8977
54691SOL    HW275799   7.763  11.006   5.215  0.0011  0.9496  0.0515
54692SOL     OW75800   2.269  10.035   8.832  0.4465  0.2637 -0.1287
54692SOL    HW175801   2.303  10.028   8.743 -0.0289  0.7812 -0.3562
54692SOL    HW275802   2.182  10.073   8.822  0.1132 -0.3056  0.5075
54693SOL     OW75803  10.201   3.867  11.909  0.0121 -0.2080 -0.8338
54693SOL    HW175804  10.246   3.783  11.919  2.0130  0.9605  1.1807
54693SOL    HW275805  10.267   3.925  11.871  0.1264  1.3881  1.5327
54694SOL     OW75806   2.301   1.652   7.205 -0.5196  0.4554  0.7890
54694SOL    HW175807   2.383   1.663   7.253  0.1406 -1.6209  0.1960
54694SOL    HW275808   2.235   1.638   7.273  0.2072 -1.2555  1.1710
54695SOL     OW75809   2.511   2.446  10.985  0.0443  0.2986  1.0239
54695SOL    HW175810   2.479   2.425  11.073 -0.6519 -1.1046  0.4630
54695SOL    HW275811   2.533   2.539  10.989 -2.7964  1.0270  1.8487
54696SOL     OW75812   7.183  10.128  11.990  0.3840 -0.0060  0.1309
54696SOL    HW175813   7.275  10.151  12.004  0.3326 -1.1539  2.9126
54696SOL    HW275814   7.136  10.177  12.057 -0.8020 -0.9102 -0.0093
54697SOL     OW75815   3.417   9.999   1.957 -0.5057  0.1663  0.1281
54697SOL    HW175816   3.356  10.020   1.887 -0.3756 -0.9382 -0.3504
54697SOL    HW275817   3.379   9.921   1.999  0.2256 -0.1352  0.2478
54698SOL     OW75818  11.738   0.357  13.212  0.1940 -0.2412  0.0612
54698SOL    HW175819  11.740   0.443  13.169 -3.1242 -0.2235 -0.3518
54698SOL    HW275820  11.773   0.373  13.300  0.3826  1.3591 -0.2772
54699SOL     OW75821   8.909   6.887   9.068 -0.0722 -0.6176  0.3525
54699SOL    HW175822   8.845   6.929   9.010 -0.3560  0.7247  1.5663
54699SOL    HW275823   8.994   6.906   9.029 -0.2788 -0.0940  0.1578
54700SOL     OW75824   9.470   7.157   7.659  0.3772 -0.8799  0.2002
54700SOL    HW175825   9.478   7.169   7.564 -0.5881 -1.6970 -0.0012
54700SOL    HW275826   9.480   7.063   7.672  1.8141 -0.6341  1.0741
54701SOL     OW75827   0.526  11.515   5.350  0.1099 -0.5297 -0.9474
54701SOL    HW175828   0.430  11.514   5.346  0.1140 -0.9539 -1.0545
54701SOL    HW275829   0.551  11.603   5.321 -0.3638  0.9378  2.6146
54702SOL     OW75830   7.597  11.867   1.502 -0.6231  0.6074  0.3952
54702SOL    HW175831   7.504  11.848   1.491 -0.8862  2.3756 -1.0085
54702SOL    HW275832   7.598  11.948   1.554  0.1585  0.2981  0.8673
54703SOL     OW75833  13.361  11.608   0.817  0.7777 -0.1814  0.0372
54703SOL    HW175834  13.341  11.605   0.723  1.3758 -0.0583 -0.1049
54703SOL    HW275835  13.398  11.523   0.836  0.6814 -0.1958  0.1549
54704SOL     OW75836   2.522   2.632   2.106  0.0137 -0.2617 -0.2510
54704SOL    HW175837   2.558   2.553   2.147 -0.3491 -0.2259  0.1470
54704SOL    HW275838   2.429   2.614   2.096  0.4107 -1.1645 -3.1469
54705SOL     OW75839   9.064  11.342   7.042 -0.2619  0.2756  0.3424
54705SOL    HW175840   9.038  11.432   7.059  0.6181  0.4970  0.5454
54705SOL    HW275841   8.985  11.301   7.006 -0.5080  1.2714 -0.3026
54706SOL     OW75842   3.233  10.148   5.205  0.2392  0.4062  0.3635
54706SOL    HW175843   3.321  10.149   5.242  0.6828 -1.9698 -0.4027
54706SOL    HW275844   3.247  10.154   5.110 -0.1237 -2.5292  0.0212
54707SOL     OW75845   7.859   4.257  12.822 -0.0515 -0.5452 -0.0196
54707SOL    HW175846   7.882   4.291  12.908 -0.0083  0.6874 -0.4952
54707SOL    HW275847   7.943   4.250  12.776 -0.0201 -1.6535  0.1853
54708SOL     OW75848  11.153   5.018   9.205  0.1382 -0.2919 -0.3913
54708SOL    HW175849  11.193   5.103   9.222  0.1873 -0.3583 -0.1704
54708SOL    HW275850  11.066   5.023   9.245  0.4310 -0.6112  0.2984
54709SOL     OW75851  12.756   5.553   3.398  0.4793  0.3922  0.3572
54709SOL    HW175852  12.682   5.603   3.433  0.9305  0.2671  1.5116
54709SOL    HW275853  12.768   5.480   3.459  1.4059  0.2737  0.0523
54710SOL     OW75854   1.640  13.114   7.717  0.0012  0.3504 -0.7458
54710SOL    HW175855   1.579  13.185   7.697  1.2132  1.6553 -0.0688
54710SOL    HW275856   1.591  13.034   7.701 -1.8007  1.3434 -0.4315
54711SOL     OW75857   4.106  12.852  10.773  0.4727  0.0305 -0.5237
54711SOL    HW175858   4.168  12.895  10.832  0.6768 -1.1073  0.1232
54711SOL    HW275859   4.020  12.885  10.799  0.3129 -1.9655  1.8816
54712SOL     OW75860   4.563  13.735   2.118 -0.3992 -0.2054  0.4717
54712SOL    HW175861   4.503  13.809   2.115 -1.5961 -1.1730 -0.4203
54712SOL    HW275862   4.509  13.660   2.095  0.9888 -1.2260  0.4540
54713SOL     OW75863   0.522   6.663   6.901 -0.0534 -0.5874  0.0118
54713SOL    HW175864   0.494   6.753   6.885  1.0684 -0.3892 -0.9836
54713SOL    HW275865   0.484   6.612   6.829  0.6569 -0.6191 -0.3467
54714SOL     OW75866   8.377   4.435   9.802 -0.1778  0.5612 -0.4498
54714SOL    HW175867   8.289   4.404   9.782 -1.4454  2.6980  1.2981
54714SOL    HW275868   8.375   4.529   9.781  1.1875  0.9692  0.9992
54715SOL     OW75869   0.669   1.152  10.955 -0.0041 -0.2395 -0.3517
54715SOL    HW175870   0.752   1.171  10.999 -1.9360 -0.1736  3.6885
54715SOL    HW275871   0.661   1.057  10.959 -1.0490 -0.1161  1.3481
54716SOL     OW75872  10.024   3.604  12.553  0.1847  0.2822  0.2754
54716SOL    HW175873  10.084   3.660  12.504  0.7317 -0.6794 -0.1656
54716SOL    HW275874  10.005   3.531  12.495 -0.1861 -0.2210  1.0092
54717SOL     OW75875   6.804   0.216   1.510 -0.4559 -0.1708  0.1739
54717SOL    HW175876   6.830   0.144   1.453 -0.7083 -0.2381  0.1449
54717SOL    HW275877   6.828   0.295   1.460  1.8714 -0.2068  1.1223
54718SOL     OW75878   0.289   2.156   9.752  0.2109  0.2416 -0.3014
54718SOL    HW175879   0.325   2.178   9.666  0.1439 -0.0512 -0.4040
54718SOL    HW275880   0.313   2.231   9.807 -0.8265  1.0297 -0.8738
54719SOL     OW75881   8.060   6.100   9.854  1.0012 -0.1406  0.0528
54719SOL    HW175882   8.086   6.012   9.825 -0.8286 -0.2822 -1.3089
54719SOL    HW275883   8.098   6.159   9.788  2.7956  0.2234  1.3218
54720SOL     OW75884   0.456   9.419   5.902 -0.3252  0.4902  0.5906
54720SOL    HW175885   0.507   9.400   5.980 -0.8216  0.8647  1.0093
54720SOL    HW275886   0.384   9.474   5.932 -1.5569 -0.8281  0.2049
54721SOL     OW75887  11.204  11.714   8.147  0.1346  0.1367  0.4377
54721SOL    HW175888  11.246  11.689   8.229 -1.0127 -0.8930  0.7358
54721SOL    HW275889  11.189  11.631   8.101  0.5315  0.6750 -0.7118
54722SOL     OW75890   4.571   3.051   5.670  0.0404 -0.4604 -0.0676
54722SOL    HW175891   4.606   3.111   5.736 -0.6770  0.9811 -0.9313
54722SOL    HW275892   4.644   3.036   5.610 -0.1471  0.6832 -0.6028
54723SOL     OW75893   0.152   7.024  10.671 -0.1077  1.0778  0.3475
54723SOL    HW175894   0.108   6.963  10.613  0.4054 -0.4217  1.4855
54723SOL    HW275895   0.081   7.076  10.710 -0.6651  0.3070  0.3666
54724SOL     OW75896   4.693   7.257   5.397 -0.8711  0.1729  0.2731
54724SOL    HW175897   4.777   7.237   5.440 -0.0474  0.6925 -1.0424
54724SOL    HW275898   4.715   7.321   5.330 -2.3240  0.2377 -0.1714
54725SOL     OW75899   2.031  12.260  11.847 -0.3363 -0.2704 -0.1288
54725SOL    HW175900   2.081  12.304  11.915  0.4070 -1.2618 -0.0163
54725SOL    HW275901   2.047  12.167  11.861 -2.4611 -0.6535  0.0889
54726SOL     OW75902   9.766   3.259   1.884  0.1158 -0.2414  0.2532
54726SOL    HW175903   9.723   3.184   1.842  2.1995 -0.9499 -0.7809
54726SOL    HW275904   9.801   3.224   1.966  0.6357 -0.2819  0.0193
54727SOL     OW75905   3.005   7.247   9.738  0.0616 -0.3586  0.5091
54727SOL    HW175906   2.944   7.249   9.664  0.2149 -1.4668  0.3351
54727SOL    HW275907   3.028   7.154   9.748  1.7697  0.0363  0.5350
54728SOL     OW75908  13.505  12.928  11.978 -0.4174  0.5851  0.0944
54728SOL    HW175909  13.484  12.836  11.988  1.8230  0.1326  1.2977
54728SOL    HW275910  13.451  12.973  12.044  0.7113 -0.2744  1.6735
54729SOL     OW75911  11.975   6.376   3.505 -0.3868 -0.3369 -0.3568
54729SOL    HW175912  11.908   6.311   3.482 -0.8144  0.2579 -0.8029
54729SOL    HW275913  12.049   6.323   3.537 -0.2701 -1.1216 -1.8144
54730SOL     OW75914   8.446   0.222   8.032 -0.0051  0.1416  0.0777
54730SOL    HW175915   8.510   0.256   8.094 -1.5706  0.9120  1.3768
54730SOL    HW275916   8.458   0.127   8.034  3.2460  0.3552 -2.2545
54731SOL     OW75917   7.641   1.585   9.539  0.3673 -0.2017 -0.2681
54731SOL    HW175918   7.598   1.620   9.617 -0.2312  0.1357 -0.7408
54731SOL    HW275919   7.572   1.539   9.492  1.0082 -1.5518  0.0424
54732SOL     OW75920   8.262   2.581   9.137  0.1446 -0.2320  0.2507
54732SOL    HW175921   8.349   2.596   9.100  0.6094  2.2429  2.0639
54732SOL    HW275922   8.248   2.487   9.129  3.3548 -0.8549  0.6662
54733SOL     OW75923   1.534  11.025  13.313 -0.0030  0.0875  0.4446
54733SOL    HW175924   1.519  11.061  13.226 -0.1991 -0.6745  0.1508
54733SOL    HW275925   1.573  10.939  13.297 -0.7724 -0.3930  1.0837
54734SOL     OW75926   1.958   1.513  13.378 -0.1038  0.5185 -0.2135
54734SOL    HW175927   2.045   1.551  13.361  1.8761 -1.4238  3.9228
54734SOL    HW275928   1.950   1.442  13.315  1.0323  1.1371 -1.1001
54735SOL     OW75929   3.061   9.735  13.015 -0.0045 -0.0295 -0.3217
54735SOL    HW175930   3.147   9.758  13.050 -0.4923 -0.4272  1.2169
54735SOL    HW275931   3.006   9.812  13.034 -0.0579  0.1402 -1.1155
54736SOL     OW75932   9.469   7.535   9.795 -0.6763  0.3213 -0.2172
54736SOL    HW175933   9.458   7.572   9.882  1.0441  0.5531 -0.0638
54736SOL    HW275934   9.406   7.582   9.740 -0.8940  1.0498  0.6410
54737SOL     OW75935   2.168   9.728   8.870  0.0344  0.0456 -0.1274
54737SOL    HW175936   2.107   9.697   8.937  0.7734 -0.0553  0.5059
54737SOL    HW275937   2.254   9.708   8.905  0.6889  3.9250  0.9514
54738SOL     OW75938   8.586   8.649  10.299  0.1497 -0.2440 -0.3192
54738SOL    HW175939   8.580   8.706  10.375  0.2040 -1.0879  0.3428
54738SOL    HW275940   8.590   8.708  10.224  1.3161  0.6359  0.4015
54739SOL     OW75941   9.166   8.951   7.603  0.1191 -0.9196  0.0376
54739SOL    HW175942   9.156   9.026   7.545  2.6408 -1.0703 -0.7338
54739SOL    HW275943   9.117   8.880   7.561 -2.1801  0.1764  0.7096
54740SOL     OW75944   3.595  12.733   1.802  0.6293 -0.0818 -0.0240
54740SOL    HW175945   3.664  12.798   1.790  2.4406 -1.6551  1.1650
54740SOL    HW275946   3.542  12.739   1.723  1.7326  1.6616 -0.6826
54741SOL     OW75947   3.979   0.881   6.746 -0.5345 -0.2056  0.6677
54741SOL    HW175948   4.064   0.904   6.785  0.3214  0.4941 -1.4696
54741SOL    HW275949   3.915   0.902   6.813  0.8886  0.5312  1.8373
54742SOL     OW75950   0.033   9.460   7.119  0.1395  0.1248  0.0308
54742SOL    HW175951  -0.011   9.518   7.057 -0.3320 -1.5267 -1.2698
54742SOL    HW275952   0.121   9.495   7.127 -0.1291  0.9965 -0.7388
54743SOL     OW75953   7.694   7.043   9.322 -0.0481  0.0425  0.0390
54743SOL    HW175954   7.735   7.016   9.239 -2.6385  0.3095 -1.4150
54743SOL    HW275955   7.628   6.977   9.339  0.8098 -0.3248  2.2784
54744SOL     OW75956   4.682   2.517  13.269 -0.5915  0.3090  0.0984
54744SOL    HW175957   4.596   2.476  13.267 -1.4323  1.9968 -1.2739
54744SOL    HW275958   4.743   2.446  13.290 -2.2294 -1.0476  0.4321
54745SOL     OW75959   0.908   4.934   2.992  0.1785 -0.0366 -0.2714
54745SOL    HW175960   0.947   4.993   3.058 -0.2101  0.6561 -0.6563
54745SOL    HW275961   0.897   4.851   3.039  0.1082  0.3829  0.4806
54746SOL     OW75962  12.507   8.978   0.017  0.1311 -0.5636 -0.6896
54746SOL    HW175963  12.462   8.906  -0.027  1.7494 -1.7786 -0.4166
54746SOL    HW275964  12.556   9.022  -0.052 -1.8957  1.1890 -1.1186
54747SOL     OW75965   0.206   2.444   4.755  0.0790  0.2391 -0.2290
54747SOL    HW175966   0.248   2.509   4.699  0.0597  0.8190  0.4173
54747SOL    HW275967   0.273   2.419   4.818  0.1561 -0.5452 -0.6139
54748SOL     OW75968  11.358   6.422   4.785 -0.0959  0.0827 -0.1646
54748SOL    HW175969  11.328   6.493   4.728 -0.5984  1.2292  1.4652
54748SOL    HW275970  11.452   6.416   4.770 -0.2780  0.0832 -1.3915
54749SOL     OW75971   0.507   7.484  11.720 -0.6214  0.1261  0.0112
54749SOL    HW175972   0.556   7.498  11.801 -0.9964  1.0487  0.0901
54749SOL    HW275973   0.501   7.571  11.680 -4.0969  0.5503  1.1064
54750SOL     OW75974   1.323   0.665   9.009 -0.0308 -0.2641 -0.0838
54750SOL    HW175975   1.307   0.618   9.091  1.0437 -0.2918  0.1246
54750SOL    HW275976   1.402   0.716   9.026 -0.7458  1.0529 -0.5558
54751SOL     OW75977   1.226  12.526   8.975  0.9690  0.0230  0.2411
54751SOL    HW175978   1.207  12.433   8.993 -1.1006  0.4686  0.5993
54751SOL    HW275979   1.250  12.562   9.060  1.4758 -0.1011  0.1556
54752SOL     OW75980  13.735   2.523   3.119  0.3763  0.3306  0.4482
54752SOL    HW175981  13.661   2.534   3.060 -0.8304 -0.4851  1.7523
54752SOL    HW275982  13.757   2.430   3.112  1.3249  0.5672  0.0579
54753SOL     OW75983   7.894   9.891   4.723 -0.1381 -0.1256  0.5072
54753SOL    HW175984   7.985   9.893   4.753  0.3795  0.6828 -1.0049
54753SOL    HW275985   7.846   9.942   4.789  0.6176  0.0211  0.9533
54754SOL     OW75986   7.290   2.911   7.128  0.3430 -0.4118  0.2061
54754SOL    HW175987   7.235   2.988   7.143 -1.2837 -1.1372 -1.5543
54754SOL    HW275988   7.346   2.905   7.205 -0.9984  1.2755  1.3738
54755SOL     OW75989   9.780  13.174   0.748 -0.3351  0.2542 -0.0330
54755SOL    HW175990   9.775  13.259   0.792  1.2193  1.2351 -1.6203
54755SOL    HW275991   9.702  13.171   0.693 -0.1914  0.8577 -0.2834
54756SOL     OW75992   6.135  12.625  11.881 -0.0556  0.0778  0.2500
54756SOL    HW175993   6.088  12.684  11.822 -0.6799  1.6634  2.2290
54756SOL    HW275994   6.219  12.668  11.898 -0.1042 -0.0686  0.9159
54757SOL     OW75995  10.144  11.915   1.739  0.6570 -0.1842  0.0240
54757SOL    HW175996  10.089  11.936   1.663 -1.4419 -1.3860  1.1244
54757SOL    HW275997  10.218  11.866   1.702 -1.0870 -2.0526 -1.1410
54758SOL     OW75998   4.300   3.311   6.142  0.6959 -0.5114 -0.3135
54758SOL    HW175999   4.374   3.366   6.168  0.0784 -0.0562  0.5200
54758SOL    HW276000   4.311   3.299   6.048  0.2975  1.9026 -0.7413
54759SOL     OW76001  13.359   2.956  11.329 -0.4437  0.5304 -0.2583
54759SOL    HW176002  13.433   3.016  11.331 -1.1364  1.3932  0.9295
54759SOL    HW276003  13.310   2.980  11.250  1.4491 -1.2467 -2.0702
54760SOL     OW76004  11.658   8.376   2.334 -0.6108  0.1537  0.7789
54760SOL    HW176005  11.751   8.390   2.349 -0.5654  0.1230  0.5450
54760SOL    HW276006  11.652   8.287   2.299 -0.5002  0.8209 -1.0561
54761SOL     OW76007   8.749  11.690   2.472  0.2317  0.1798  0.1213
54761SOL    HW176008   8.691  11.749   2.423  0.5741 -1.1796 -2.0444
54761SOL    HW276009   8.690  11.642   2.530 -0.3052  1.2609  0.5105
54762SOL     OW76010   0.584   9.990  13.720  0.2517 -0.0705 -0.3218
54762SOL    HW176011   0.572  10.063  13.660  2.0094  0.1508 -0.4667
54762SOL    HW276012   0.534   9.918  13.681 -0.3885  0.6740 -0.8994
54763SOL     OW76013   1.186   3.264  11.567  0.8173  0.0938 -0.6069
54763SOL    HW176014   1.174   3.181  11.521  1.5254 -1.0225  1.1508
54763SOL    HW276015   1.112   3.270  11.627  0.2472  1.2316 -1.3801
54764SOL     OW76016   7.203   7.630   7.130  0.0721  0.5004  0.3928
54764SOL    HW176017   7.210   7.635   7.035  0.7965  0.9633  0.4612
54764SOL    HW276018   7.127   7.685   7.151 -1.1824 -0.9757 -0.0275
54765SOL     OW76019   5.832   2.136  12.464  0.0895 -0.3655 -0.0258
54765SOL    HW176020   5.903   2.192  12.495  0.1776  0.3920 -1.4808
54765SOL    HW276021   5.755   2.194  12.462 -0.2372 -0.7916  0.1723
54766SOL     OW76022   2.610   9.166   2.069  0.3589  0.2008  0.0359
54766SOL    HW176023   2.645   9.079   2.050  2.0252  0.7697  0.3151
54766SOL    HW276024   2.587   9.162   2.162  0.1008 -0.0385 -0.0354
54767SOL     OW76025   3.103   2.366   2.379  0.0650  0.4748  0.0784
54767SOL    HW176026   3.185   2.322   2.356 -0.0893  0.7093 -0.9431
54767SOL    HW276027   3.130   2.450   2.416  0.2882  1.7450 -2.7059
54768SOL     OW76028   0.583  11.931   4.509 -0.4164  0.2429 -0.2280
54768SOL    HW176029   0.622  11.908   4.425 -0.5193 -1.0668  0.0546
54768SOL    HW276030   0.637  11.886   4.574 -1.3339 -0.1605  0.2829
54769SOL     OW76031  12.170   2.720   2.084 -0.6102  0.7313  0.1157
54769SOL    HW176032  12.211   2.715   2.171  1.8706 -1.7766 -1.0601
54769SOL    HW276033  12.111   2.646   2.081 -0.6856  0.8056 -0.3373
54770SOL     OW76034   9.784   7.509   1.641  0.7181 -0.1558 -0.2878
54770SOL    HW176035   9.790   7.413   1.639 -0.1251 -0.2712  1.2830
54770SOL    HW276036   9.762   7.533   1.551 -0.4429 -1.5452 -0.4122
54771SOL     OW76037   1.786   0.509   6.162 -0.0090 -0.2653  0.3211
54771SOL    HW176038   1.762   0.576   6.226 -0.9421  0.2261 -0.5195
54771SOL    HW276039   1.854   0.551   6.109  0.2737 -0.4300  0.5472
54772SOL     OW76040  13.433   7.600  13.453 -0.0531  0.1384 -0.1743
54772SOL    HW176041  13.397   7.653  13.524  0.9007  0.7422 -0.1131
54772SOL    HW276042  13.433   7.659  13.377 -0.7146 -0.3798 -0.5812
54773SOL     OW76043   8.923   6.649   6.948 -0.3598 -0.3419 -0.1931
54773SOL    HW176044   8.869   6.603   7.013 -0.2455  0.1213  0.2401
54773SOL    HW276045   8.926   6.590   6.873 -1.9453 -0.1159 -0.4562
54774SOL     OW76046   1.138   1.923  10.541  0.1233 -0.5000 -0.1218
54774SOL    HW176047   1.181   1.973  10.472 -1.9229  0.3591 -0.8420
54774SOL    HW276048   1.083   1.860  10.494 -0.2504 -0.8472  0.7564
54775SOL     OW76049   2.336   7.559   2.252 -0.1965  0.2006  0.2944
54775SOL    HW176050   2.355   7.470   2.282  0.9795  0.3725  0.1275
54775SOL    HW276051   2.295   7.547   2.167  0.3754 -0.1846  0.0644
54776SOL     OW76052   0.088  13.577   9.023  0.3581  0.0027 -0.2945
54776SOL    HW176053   0.035  13.558   8.945  0.7634  0.6887 -0.7506
54776SOL    HW276054   0.078  13.672   9.035  1.2567  0.0940 -0.2276
54777SOL     OW76055   9.885   5.632   5.049  0.6910 -0.1002 -0.4504
54777SOL    HW176056   9.938   5.626   5.128  1.0523  0.9745 -0.5889
54777SOL    HW276057   9.913   5.558   4.996 -1.2811 -2.3159  1.3885
54778SOL     OW76058   6.967   3.813   8.369  0.3494 -0.6902 -0.1520
54778SOL    HW176059   6.903   3.837   8.303  0.4783 -0.7832 -0.3096
54778SOL    HW276060   7.014   3.895   8.389 -1.6019  0.0242  1.9323
54779SOL     OW76061   9.954   2.443   1.470  0.0145  0.4860 -0.2285
54779SOL    HW176062   9.862   2.446   1.444 -0.9376  2.4835  2.8916
54779SOL    HW276063  10.002   2.464   1.390 -2.3157  0.9861 -1.5921
54780SOL     OW76064   0.560   7.422   6.108  0.1533  0.3492 -0.3809
54780SOL    HW176065   0.569   7.458   6.196  0.2912 -2.3890  0.8533
54780SOL    HW276066   0.650   7.414   6.076  0.0552  2.4069 -1.3242
54781SOL     OW76067   1.875   3.669   0.201 -0.0480  0.2054 -0.2459
54781SOL    HW176068   1.903   3.719   0.278  0.8978  1.9929 -1.6572
54781SOL    HW276069   1.808   3.723   0.161 -1.6288 -1.4358  0.0903
54782SOL     OW76070   5.895   8.993  12.215 -0.2378  0.0305  0.2789
54782SOL    HW176071   5.961   8.942  12.168  1.2397  1.2251  0.9467
54782SOL    HW276072   5.939   9.020  12.296 -1.9624 -0.1076  1.3105
54783SOL     OW76073   7.752   8.214  12.702  0.5710  0.0283  0.6065
54783SOL    HW176074   7.730   8.291  12.755  0.1897  1.9947 -2.2083
54783SOL    HW276075   7.667   8.176  12.679  0.7272 -0.7129  1.2273
54784SOL     OW76076   5.720   8.413   7.333 -0.8250 -0.5728  0.7831
54784SOL    HW176077   5.724   8.435   7.426  1.2706  3.1116  0.0479
54784SOL    HW276078   5.634   8.445   7.304 -1.1287 -0.9303  1.2785
54785SOL     OW76079   5.378   4.340   4.024  0.3393  0.0732  0.3050
54785SOL    HW176080   5.380   4.435   4.021  1.1443  0.1299  2.0327
54785SOL    HW276081   5.419   4.313   3.942  0.7111  1.2013  0.1057
54786SOL     OW76082   3.106   6.823  10.360 -0.1293  0.7169  0.0379
54786SOL    HW176083   3.025   6.840  10.408 -0.9529 -0.1767 -0.9945
54786SOL    HW276084   3.118   6.901  10.306 -0.7995  0.4804 -0.4645
54787SOL     OW76085   5.247   6.352   8.284  0.2200 -0.2088  0.1052
54787SOL    HW176086   5.265   6.434   8.239  1.4210 -1.5260 -2.0219
54787SOL    HW276087   5.334   6.311   8.295 -0.4670 -1.9085 -0.4448
54788SOL     OW76088   4.557   1.740   4.858  0.2887  0.2588  0.2364
54788SOL    HW176089   4.601   1.785   4.930  1.3396 -1.5955  0.8255
54788SOL    HW276090   4.597   1.653   4.857 -0.4259 -0.0912 -1.9525
54789SOL     OW76091   1.019  11.353  10.073  0.7296  0.0958  0.0370
54789SOL    HW176092   1.023  11.346  10.168  0.3292 -2.5030 -0.0770
54789SOL    HW276093   0.932  11.322  10.050  1.0679  0.0252 -1.2107
54790SOL     OW76094   6.579   1.980   8.240  0.7734  0.2999  0.1793
54790SOL    HW176095   6.506   2.042   8.236  1.3673  1.0464  0.6159
54790SOL    HW276096   6.657   2.035   8.235  1.3133 -0.4353  0.3975
54791SOL     OW76097   9.859  13.261   1.440 -0.0611 -0.1386 -0.1638
54791SOL    HW176098   9.928  13.291   1.499 -0.6621 -1.3680  1.2380
54791SOL    HW276099   9.788  13.324   1.454 -0.5691 -0.9686  1.2396
54792SOL     OW76100  11.002   5.129  12.923 -0.2497 -0.2373 -0.2796
54792SOL    HW176101  11.093   5.098  12.922 -0.1747 -0.0174 -0.1534
54792SOL    HW276102  10.963   5.089  12.844  0.0571 -0.0306 -0.5386
54793SOL     OW76103  10.738   4.670   6.503 -0.1231 -0.1344 -0.0632
54793SOL    HW176104  10.745   4.674   6.598  0.1419  0.1930 -0.0974
54793SOL    HW276105  10.741   4.576   6.482  0.3080 -0.1826  0.2106
54794SOL     OW76106   6.936   1.703   8.408 -0.3400 -0.1957  0.7608
54794SOL    HW176107   6.910   1.641   8.339  0.6047 -0.9477  1.0465
54794SOL    HW276108   7.016   1.744   8.374 -0.5785  0.3546  0.8703
54795SOL     OW76109   5.522   8.976   0.473 -0.4389  0.5296 -0.3130
54795SOL    HW176110   5.444   9.031   0.475 -0.3374  0.7171 -1.2835
54795SOL    HW276111   5.574   9.006   0.548 -0.3773  1.7660 -0.8256
54796SOL     OW76112   4.456  11.936   9.337 -0.2185 -0.8604 -0.1587
54796SOL    HW176113   4.430  11.986   9.259  0.7737 -0.9009 -0.5417
54796SOL    HW276114   4.419  11.849   9.323  1.2832 -1.3436 -1.3966
54797SOL     OW76115   5.257   1.111   0.368 -0.5758 -0.3962 -0.2472
54797SOL    HW176116   5.333   1.076   0.322  0.0747  0.4026  0.2166
54797SOL    HW276117   5.290   1.140   0.452 -1.7038 -1.5682  0.6464
54798SOL     OW76118  11.866   9.290  13.104 -0.3393 -0.5899  0.1819
54798SOL    HW176119  11.907   9.244  13.178  0.6885 -1.0826 -0.6721
54798SOL    HW276120  11.918   9.265  13.028  0.1656  1.8452 -0.3690
54799SOL     OW76121   1.909   0.146   1.514 -0.3720 -0.6027  1.1997
54799SOL    HW176122   1.814   0.148   1.527 -0.7658  1.3878 -1.1732
54799SOL    HW276123   1.923   0.084   1.443 -0.2549  0.7977 -0.0736
54800SOL     OW76124  10.533   6.240   8.375  0.7677  0.2723 -0.3570
54800SOL    HW176125  10.494   6.176   8.434  0.6906 -0.6516 -1.3830
54800SOL    HW276126  10.613   6.269   8.419 -0.2486  1.0427  1.0707
54801SOL     OW76127   6.334  13.708  11.850  0.0830  0.0386  0.3565
54801SOL    HW176128   6.322  13.779  11.787 -1.7174 -0.7064 -0.2355
54801SOL    HW276129   6.418  13.669  11.826  0.3147  0.9445 -0.3751
54802SOL     OW76130   9.211   9.584   1.841  0.4877 -0.1127 -0.0351
54802SOL    HW176131   9.138   9.631   1.883 -0.0811  0.5106 -1.6624
54802SOL    HW276132   9.282   9.588   1.905 -0.5235  0.3141  1.0959
54803SOL     OW76133   8.944   9.176  10.284  0.2925  0.4380  0.6503
54803SOL    HW176134   8.971   9.085  10.290 -2.4688 -0.3752  2.7724
54803SOL    HW276135   9.020   9.226  10.314  1.4793 -1.1842  0.4847
54804SOL     OW76136  10.212  11.134  10.082  0.0996 -0.1967  0.0100
54804SOL    HW176137  10.131  11.184  10.080  1.1265  1.5825  0.8903
54804SOL    HW276138  10.189  11.053  10.129 -1.1910  0.2034  0.1007
54805SOL     OW76139  13.018   1.408   5.549 -0.4107  0.0656 -0.1587
54805SOL    HW176140  12.928   1.432   5.571 -0.0838 -0.0739  1.4632
54805SOL    HW276141  13.065   1.491   5.547  0.0773 -0.0822  2.3452
54806SOL     OW76142   1.789   4.420   5.451 -0.0806  0.0828  0.0167
54806SOL    HW176143   1.769   4.374   5.370 -1.7751 -0.4415  0.6833
54806SOL    HW276144   1.733   4.498   5.449  1.3294  1.1371 -0.2022
54807SOL     OW76145   4.134   9.225  13.575 -0.1074  0.2893 -0.3526
54807SOL    HW176146   4.081   9.305  13.571  0.4024  0.7025  0.8022
54807SOL    HW276147   4.216   9.248  13.532 -0.0710  0.2976 -0.2784
54808SOL     OW76148  11.340   0.684   1.609 -1.0014  0.0058 -0.0377
54808SOL    HW176149  11.373   0.745   1.543 -0.2604  0.0408  0.3510
54808SOL    HW276150  11.374   0.718   1.692 -0.1419 -1.1904  0.1415
54809SOL     OW76151  10.438  12.564   1.465  0.1915 -0.5330  0.0295
54809SOL    HW176152  10.419  12.657   1.454 -0.9679 -0.8281 -0.6189
54809SOL    HW276153  10.532  12.560   1.483  0.0885  0.8212  0.9536
54810SOL     OW76154   7.100   6.772   5.241  0.6218  0.0865 -0.3423
54810SOL    HW176155   7.112   6.753   5.148 -1.1939 -1.0859 -0.3896
54810SOL    HW276156   7.158   6.711   5.286  0.1296 -0.6426 -0.6793
54811SOL     OW76157  10.058   7.176   5.384  0.3693  0.0980 -0.1454
54811SOL    HW176158  10.139   7.176   5.332  1.2568  0.4842  1.1937
54811SOL    HW276159  10.030   7.267   5.384  0.7579  0.2253  0.6096
54812SOL     OW76160   6.200  11.087   0.023 -0.4858  0.0925  0.7871
54812SOL    HW176161   6.261  11.081   0.096  0.1212  1.2101  0.4068
54812SOL    HW276162   6.239  11.154  -0.035 -0.9804 -0.6997 -0.5108
54813SOL     OW76163   5.587  11.151  11.483 -0.0467  0.3083  0.1504
54813SOL    HW176164   5.550  11.143  11.395 -1.5245  1.2134  0.6421
54813SOL    HW276165   5.609  11.062  11.508  2.2509  0.2204 -1.8431
54814SOL     OW76166   8.750   2.737  12.336 -0.5046  0.1403 -0.3610
54814SOL    HW176167   8.810   2.683  12.285 -0.3902  0.1096 -0.1964
54814SOL    HW276168   8.740   2.689  12.419  0.6322  1.0273  0.3160
54815SOL     OW76169   1.607  13.665   0.450 -0.2912  0.1063 -0.7899
54815SOL    HW176170   1.611  13.570   0.438  0.8268  0.3726 -3.4648
54815SOL    HW276171   1.695  13.689   0.480 -0.7493  0.2565  0.4561
54816SOL     OW76172  10.682   7.780  13.415 -0.2389  0.4733 -0.2991
54816SOL    HW176173  10.684   7.839  13.490 -0.2452  0.1014 -0.0053
54816SOL    HW276174  10.595   7.795  13.376 -1.4290 -1.4081  1.4608
54817SOL     OW76175   8.544  13.327   3.923  0.1189  0.1093 -0.0412
54817SOL    HW176176   8.568  13.357   4.011 -2.6793  2.1283  0.1424
54817SOL    HW276177   8.490  13.249   3.938 -1.1481  1.0019  0.1185
54818SOL     OW76178  11.151   8.067   9.449  0.3686  0.3395 -0.0979
54818SOL    HW176179  11.139   8.107   9.534  1.1348  2.1027 -0.7758
54818SOL    HW276180  11.160   7.973   9.467  2.1365  0.8473  1.9159
54819SOL     OW76181   4.214  13.542  12.629  0.4815 -0.5524 -0.1652
54819SOL    HW176182   4.189  13.575  12.543 -2.2889  0.6629  1.0044
54819SOL    HW276183   4.157  13.466  12.644  1.1712 -0.9626  0.4766
54820SOL     OW76184   1.599   7.479   2.244 -0.3605 -0.1345 -0.6851
54820SOL    HW176185   1.514   7.468   2.202 -1.1322  1.9897  0.1686
54820SOL    HW276186   1.656   7.515   2.175 -0.9675  1.1116 -0.5602
54821SOL     OW76187   1.960  10.133   6.559  0.5555 -0.1705  0.2289
54821SOL    HW176188   1.959  10.128   6.463 -0.2258  0.7464  0.1778
54821SOL    HW276189   1.874  10.100   6.586  1.0942 -1.2598  0.6757
54822SOL     OW76190   3.132   2.024   4.532 -0.0296 -0.0076 -0.6228
54822SOL    HW176191   3.168   2.084   4.597 -0.6134  0.1982 -0.4814
54822SOL    HW276192   3.166   2.055   4.448 -0.3496  0.5441 -0.5543
54823SOL     OW76193   9.838  10.145   0.758 -0.1193  0.3804  0.2971
54823SOL    HW176194   9.770  10.086   0.726  1.0510  0.0361 -1.7658
54823SOL    HW276195   9.829  10.143   0.853 -1.7789 -1.0873  0.1559
54824SOL     OW76196   8.483   1.607   4.275  0.2356  0.5494 -0.1613
54824SOL    HW176197   8.496   1.516   4.299 -0.9215  0.5856  0.6620
54824SOL    HW276198   8.452   1.604   4.185 -0.5434  0.0677  0.1112
54825SOL     OW76199  10.980   1.266   7.922  0.0899  0.4554 -0.0804
54825SOL    HW176200  11.057   1.251   7.977  0.5107  1.0866 -0.4840
54825SOL    HW276201  10.911   1.213   7.962  1.0169 -1.0339 -0.3660
54826SOL     OW76202   7.776  12.427   2.475  0.5945  0.4200 -0.2882
54826SOL    HW176203   7.814  12.435   2.388 -0.7826 -0.0966 -0.9494
54826SOL    HW276204   7.789  12.513   2.514 -1.2584  1.5660 -2.0403
54827SOL     OW76205   4.122   5.068   9.178  0.0625  0.2018 -0.4422
54827SOL    HW176206   4.032   5.101   9.190 -0.0171  0.1871 -0.9504
54827SOL    HW276207   4.178   5.144   9.192 -0.0740  0.3708 -0.7945
54828SOL     OW76208   0.693   8.070   8.583  0.2214  0.2881  0.1398
54828SOL    HW176209   0.704   8.096   8.675 -0.3528 -0.4850  0.4438
54828SOL    HW276210   0.608   8.026   8.581  0.2005  0.3504 -0.7819
54829SOL     OW76211   8.985   9.278   9.246  0.1274 -0.7039  0.0329
54829SOL    HW176212   8.922   9.350   9.243  0.1735 -0.6144  0.9072
54829SOL    HW276213   8.964   9.224   9.169 -0.5111 -0.2630 -0.1088
54830SOL     OW76214   1.563   2.114   5.637  0.4090 -0.3606 -0.4102
54830SOL    HW176215   1.523   2.093   5.721  0.1360 -1.0188 -0.7019
54830SOL    HW276216   1.655   2.089   5.646  0.6016  0.4688  0.0119
54831SOL     OW76217   2.254   4.584  12.489 -0.2883 -0.3803 -0.4725
54831SOL    HW176218   2.328   4.566  12.547  0.2285  1.4337 -0.4786
54831SOL    HW276219   2.205   4.502  12.485  1.6245 -1.5981 -0.3285
54832SOL     OW76220  11.686   9.105  11.940  0.0899 -0.0043  0.9393
54832SOL    HW176221  11.776   9.072  11.933 -0.4556 -1.4123  0.0173
54832SOL    HW276222  11.656   9.109  11.849 -0.7543  0.5043  1.2382
54833SOL     OW76223   6.588   4.001   2.941 -0.0600 -0.2414  0.4796
54833SOL    HW176224   6.658   4.050   2.984 -0.1419 -1.0481  1.5620
54833SOL    HW276225   6.633   3.928   2.899  0.0477  0.6431 -1.0368
54834SOL     OW76226   1.400   3.028   4.131  0.1282 -0.3190 -0.6655
54834SOL    HW176227   1.489   2.991   4.131 -0.2031 -1.1579 -1.3383
54834SOL    HW276228   1.344   2.952   4.148 -0.4294  0.3195  0.4302
54835SOL     OW76229   5.380  10.341  11.915 -0.1611  0.1258  0.0247
54835SOL    HW176230   5.429  10.407  11.964 -0.3139 -0.3665  0.8477
54835SOL    HW276231   5.288  10.360  11.934 -0.2444  0.2195 -0.4525
54836SOL     OW76232   7.263   3.668  10.827  0.1461  0.0453  0.2987
54836SOL    HW176233   7.337   3.729  10.826  0.4920 -0.3615  0.7325
54836SOL    HW276234   7.187   3.723  10.806  0.7183  0.2555 -1.3293
54837SOL     OW76235  13.437   4.970   3.933 -0.1708  0.1107  0.3629
54837SOL    HW176236  13.431   4.917   4.013  2.7977  0.2825  0.8306
54837SOL    HW276237  13.431   5.060   3.964  0.7374  0.1695  0.4069
54838SOL     OW76238  13.631   3.834   1.510 -0.0901 -0.2851 -0.2212
54838SOL    HW176239  13.574   3.759   1.522  0.0043 -0.1138  1.4443
54838SOL    HW276240  13.686   3.836   1.588 -0.6578  1.9997  0.1977
54839SOL     OW76241   5.233  10.038   3.810 -0.1981 -0.0506 -0.2481
54839SOL    HW176242   5.230   9.964   3.871  1.5789 -1.1594 -1.4118
54839SOL    HW276243   5.319  10.076   3.823  0.0429 -0.0361 -1.7145
54840SOL     OW76244   1.674   1.869   2.768 -0.3071 -0.3755  0.1877
54840SOL    HW176245   1.615   1.941   2.746 -1.0521 -0.7867  0.7524
54840SOL    HW276246   1.622   1.790   2.752 -0.3301 -0.7238  1.7641
54841SOL     OW76247   4.559   7.942   6.356  0.2982  0.0870  0.0476
54841SOL    HW176248   4.641   7.992   6.354  0.8833 -0.8613 -0.1379
54841SOL    HW276249   4.557   7.897   6.272  0.2177 -0.8931  0.5692
54842SOL     OW76250   1.583  11.634   5.463  0.0153  0.3506  0.4526
54842SOL    HW176251   1.547  11.566   5.520  0.3669  0.8500  1.2863
54842SOL    HW276252   1.674  11.642   5.489  0.4304 -0.0475 -0.8116
54843SOL     OW76253  11.518   0.674   1.856  0.1009 -0.1792 -0.0073
54843SOL    HW176254  11.482   0.618   1.924  0.7093 -1.3220 -0.5990
54843SOL    HW276255  11.571   0.738   1.904 -1.9760  1.0114  0.7972
54844SOL     OW76256  13.645   4.223   0.713  0.2103  0.2634  0.2703
54844SOL    HW176257  13.680   4.238   0.625  2.1181  0.1932  0.9679
54844SOL    HW276258  13.691   4.146   0.745 -1.5952 -0.6542  0.7772
54845SOL     OW76259   5.248   1.375   7.514  0.0745 -0.2986 -0.3068
54845SOL    HW176260   5.163   1.384   7.558  0.6033 -1.4959  1.0245
54845SOL    HW276261   5.277   1.287   7.536  1.2071 -0.2765 -1.6001
54846SOL     OW76262   6.984   9.533   4.482  0.1871 -0.2585  0.7899
54846SOL    HW176263   7.007   9.618   4.445  0.3255  0.1487  1.7611
54846SOL    HW276264   6.894   9.518   4.453 -0.4978  1.0901  2.0752
54847SOL     OW76265   7.491  11.750   9.957 -0.2920  0.3025 -0.2282
54847SOL    HW176266   7.553  11.746   9.884 -1.9062 -1.0381 -1.6292
54847SOL    HW276267   7.442  11.831   9.941  0.7192  1.1013  0.5963
54848SOL     OW76268   2.966  11.742   1.416  0.0908 -0.1599  0.1262
54848SOL    HW176269   2.916  11.801   1.473 -1.7032 -0.0101 -1.4918
54848SOL    HW276270   3.028  11.799   1.371  0.1157  0.0619  0.4386
54849SOL     OW76271   6.353  12.996  13.468 -0.2479 -0.2928  0.9633
54849SOL    HW176272   6.356  13.091  13.481  0.7889 -0.3668  1.3640
54849SOL    HW276273   6.386  12.982  13.380 -0.5959 -0.2670  0.8292
54850SOL     OW76274   4.133  10.747   1.457  0.1150 -1.0672 -0.3898
54850SOL    HW176275   4.165  10.813   1.520 -1.5829  0.5607 -1.1421
54850SOL    HW276276   4.212  10.701   1.429  1.5377  1.2827 -0.5115
54851SOL     OW76277   2.617  13.417   4.829 -0.0845  0.7722 -0.5555
54851SOL    HW176278   2.587  13.381   4.745  0.3991  0.4148 -0.5791
54851SOL    HW276279   2.538  13.425   4.882 -0.3423  0.6708 -0.9218
54852SOL     OW76280   1.407   7.492   3.456  0.6859 -0.0264 -0.4782
54852SOL    HW176281   1.401   7.558   3.526 -2.6210 -0.0830 -0.5157
54852SOL    HW276282   1.441   7.541   3.381  3.0458  0.3489  0.7382
54853SOL     OW76283   2.800  12.280   2.196 -0.3015 -0.4398  0.0586
54853SOL    HW176284   2.792  12.285   2.291  0.4508  0.0625  0.1059
54853SOL    HW276285   2.719  12.318   2.163 -0.0797  0.4589  0.5024
54854SOL     OW76286   2.076   7.473   7.439 -0.2859  0.2091  0.3851
54854SOL    HW176287   2.047   7.414   7.509 -1.8974 -0.3056 -0.6674
54854SOL    HW276288   2.133   7.419   7.384  0.2176  0.3498  0.7572
54855SOL     OW76289   5.534  13.341   5.285 -0.1901  0.3214 -0.5550
54855SOL    HW176290   5.477  13.328   5.209 -1.2317 -0.5445  0.3306
54855SOL    HW276291   5.481  13.311   5.359  1.2776 -0.0657  0.3632
54856SOL     OW76292   1.414   6.079   7.622 -0.2817  0.3998  0.1658
54856SOL    HW176293   1.507   6.099   7.613  0.0039 -0.4287  1.1236
54856SOL    HW276294   1.387   6.126   7.700 -0.5567  0.2695  0.1500
54857SOL     OW76295   8.195   2.260  10.897 -0.0302 -0.3594  0.5806
54857SOL    HW176296   8.284   2.274  10.865  0.1097 -0.9709  0.6760
54857SOL    HW276297   8.202   2.180  10.950 -0.7547 -0.7456  0.1010
54858SOL     OW76298  11.170  13.005   5.248  0.3729 -0.3434 -0.4994
54858SOL    HW176299  11.226  13.012   5.326 -0.4687  0.9954  0.0232
54858SOL    HW276300  11.205  12.930   5.200  1.1375 -0.9824  0.9893
54859SOL     OW76301   9.237   0.303   2.709 -0.3076 -0.3179  0.7075
54859SOL    HW176302   9.194   0.255   2.638  0.4245  0.4847 -0.3150
54859SOL    HW276303   9.306   0.244   2.739  0.7976  0.1398 -0.7606
54860SOL     OW76304   2.799   5.978  13.690 -0.3617 -0.7852  0.0355
54860SOL    HW176305   2.717   5.968  13.641  0.8304  0.8071 -2.4897
54860SOL    HW276306   2.848   5.897  13.672 -0.8910 -1.2554  0.6461
54861SOL     OW76307   0.103   2.617  11.467 -0.0560 -0.0045 -0.3492
54861SOL    HW176308   0.057   2.569  11.536  1.4036 -0.5302  0.3218
54861SOL    HW276309   0.119   2.552  11.399 -1.8981  0.6251 -1.4312
54862SOL     OW76310  11.322   9.728   0.216  0.3777  0.1291 -0.7262
54862SOL    HW176311  11.350   9.815   0.186  1.2696 -0.3319 -1.2604
54862SOL    HW276312  11.333   9.672   0.139  1.1671 -0.7449  0.0042
54863SOL     OW76313   4.639   8.356   1.378 -0.3769  0.7252 -0.0281
54863SOL    HW176314   4.628   8.278   1.433 -0.1217  0.3562 -0.4872
54863SOL    HW276315   4.618   8.429   1.436 -0.0318  0.3522  0.5873
54864SOL     OW76316   4.742   9.384  12.204 -0.2602 -0.0426 -0.3584
54864SOL    HW176317   4.730   9.453  12.139 -1.0705  0.1586 -0.0100
54864SOL    HW276318   4.704   9.306  12.163 -0.0995 -0.0904 -0.4186
54865SOL     OW76319  12.065   5.982   7.476  0.4474 -0.1762  0.1510
54865SOL    HW176320  12.033   5.983   7.567  0.7849  1.0819  0.2724
54865SOL    HW276321  12.119   5.904   7.471  1.6002  0.4828  1.4752
54866SOL     OW76322   1.234   3.696   2.642  0.4229  0.5034 -0.7907
54866SOL    HW176323   1.258   3.615   2.685 -1.3090  0.8875  1.0098
54866SOL    HW276324   1.317   3.743   2.631  1.0059  0.2572  1.9137
54867SOL     OW76325  12.093   6.400   2.328 -0.7854  0.3351  0.5519
54867SOL    HW176326  12.032   6.367   2.262 -0.6943 -0.2749  0.7626
54867SOL    HW276327  12.066   6.358   2.410  0.5482 -0.8010  0.4623
54868SOL     OW76328   8.737  10.503   6.670  0.8940  0.1128 -0.1100
54868SOL    HW176329   8.722  10.597   6.654  2.0158  0.5601  1.2250
54868SOL    HW276330   8.705  10.489   6.759 -1.3113 -1.3196 -1.0336
54869SOL     OW76331   0.084   4.733   2.456  0.1262 -0.3948 -0.1545
54869SOL    HW176332   0.114   4.784   2.532  0.1352 -0.3377 -0.1959
54869SOL    HW276333   0.145   4.756   2.386  1.0360 -1.6082  0.2221
54870SOL     OW76334   4.141   3.095   0.975  0.1466  0.1776  0.0282
54870SOL    HW176335   4.125   3.064   1.064 -0.5264 -1.4444 -0.6301
54870SOL    HW276336   4.236   3.103   0.969  0.1729  0.8128  1.0360
54871SOL     OW76337   6.131   2.433   0.804 -0.2213  0.4335  0.1827
54871SOL    HW176338   6.159   2.367   0.868 -0.5105  0.9797  0.8843
54871SOL    HW276339   6.142   2.390   0.719 -2.6343 -1.4295  0.6804
54872SOL     OW76340   7.857   4.438   6.153 -0.3713 -0.4898 -0.5919
54872SOL    HW176341   7.846   4.348   6.183 -2.2668 -0.4613 -1.0531
54872SOL    HW276342   7.801   4.444   6.076 -2.2891  1.7143  0.8270
54873SOL     OW76343   4.771  12.879   2.576 -0.2277  0.2345  0.6589
54873SOL    HW176344   4.820  12.954   2.611  2.5037 -1.5171  0.8965
54873SOL    HW276345   4.815  12.858   2.493 -0.1695 -1.7417  1.1364
54874SOL     OW76346   1.857   3.415  13.195 -0.6910  0.2313  0.3384
54874SOL    HW176347   1.952   3.402  13.192 -0.6361  0.4427  0.8736
54874SOL    HW276348   1.833   3.438  13.106 -0.1324  0.8178  0.3291
54875SOL     OW76349   8.997   2.094  10.111  0.3120 -0.0516  0.2644
54875SOL    HW176350   9.050   2.047  10.176  0.6346  0.0056  0.0451
54875SOL    HW276351   9.032   2.183  10.112 -0.2782  0.1788  0.6556
54876SOL     OW76352   3.265   9.004   0.168 -0.2566 -0.3601 -0.3590
54876SOL    HW176353   3.277   9.089   0.124  0.9318 -1.0493 -1.4689
54876SOL    HW276354   3.173   9.003   0.193 -0.1149  1.6167  0.4964
54877SOL     OW76355  11.846   7.717  12.784  0.4623  0.2577 -0.1905
54877SOL    HW176356  11.879   7.719  12.694  0.3894 -0.9831 -0.2611
54877SOL    HW276357  11.812   7.629  12.795 -1.6831  1.0787  0.3090
54878SOL     OW76358  12.655   8.016   7.253 -0.2257 -0.3619  0.2459
54878SOL    HW176359  12.622   7.987   7.168  0.0274  0.4064 -0.1247
54878SOL    HW276360  12.734   8.067   7.232 -1.0202  1.1524  0.8099
54879SOL     OW76361   4.267   9.745   3.821 -0.0760  0.7090 -0.0191
54879SOL    HW176362   4.190   9.776   3.773  0.3510  2.1000  0.1358
54879SOL    HW276363   4.246   9.655   3.845 -1.0896  0.6153 -1.1435
54880SOL     OW76364   7.680   2.217  10.966 -0.3298 -0.3704  0.3821
54880SOL    HW176365   7.613   2.173  11.018 -0.8295 -1.4542 -1.1118
54880SOL    HW276366   7.744   2.149  10.947  1.4303  0.7154  2.0374
54881SOL     OW76367   5.873   1.151   6.625 -0.0301  0.0074 -0.2787
54881SOL    HW176368   5.872   1.237   6.667 -0.6181 -0.7168  1.2575
54881SOL    HW276369   5.796   1.106   6.659  1.0362 -1.6499  0.1036
54882SOL     OW76370   8.903   6.339   3.933  0.3699 -0.4847 -0.0549
54882SOL    HW176371   8.937   6.424   3.962 -1.5759 -0.4069  2.3466
54882SOL    HW276372   8.954   6.318   3.856  1.0881  2.7706 -0.6199
54883SOL     OW76373   4.432  11.880  10.922  0.0062  0.3190  0.4251
54883SOL    HW176374   4.359  11.853  10.977  0.7828  1.1619  1.9308
54883SOL    HW276375   4.493  11.807  10.924 -0.3231  0.0283  0.0109
54884SOL     OW76376  11.235   8.011  10.592  0.0878  0.0191  0.0773
54884SOL    HW176377  11.325   7.983  10.610 -0.7442 -1.9375  1.6981
54884SOL    HW276378  11.221   8.085  10.651  0.2139 -0.6079  0.9197
54885SOL     OW76379   3.870   0.176   6.475  0.0186 -0.5024 -0.7776
54885SOL    HW176380   3.821   0.098   6.449 -1.0962  0.4667 -1.6981
54885SOL    HW276381   3.871   0.173   6.571  0.4763 -1.9106 -0.7989
54886SOL     OW76382  13.280   8.562   0.194 -0.1833 -0.4525 -0.0899
54886SOL    HW176383  13.303   8.471   0.173  3.3100  0.6280 -1.7343
54886SOL    HW276384  13.328   8.582   0.274  0.1726  0.3161 -0.4835
54887SOL     OW76385   4.131  11.441   1.365  0.4390 -0.2351  0.2866
54887SOL    HW176386   4.197  11.489   1.413  0.5817 -0.5243  0.3824
54887SOL    HW276387   4.047  11.472   1.399  0.5337 -0.1441  0.4315
54888SOL     OW76388   4.388   7.730  11.099  0.1963 -0.4709  0.0663
54888SOL    HW176389   4.358   7.681  11.023  0.8009 -0.6866 -0.0415
54888SOL    HW276390   4.438   7.667  11.150  1.0513  0.0378 -0.1155
54889SOL     OW76391   6.909  12.564   2.975  0.0606  0.4764  0.0936
54889SOL    HW176392   6.890  12.583   2.883  1.2483  0.3131 -0.2024
54889SOL    HW276393   6.904  12.469   2.981  0.8462  0.4244 -0.0112
54890SOL     OW76394   1.340  11.456  13.078  0.2796  0.0162 -0.4307
54890SOL    HW176395   1.356  11.530  13.019  0.3494 -0.2114 -0.7004
54890SOL    HW276396   1.425  11.438  13.118  0.3355 -0.1273 -0.6116
54891SOL     OW76397   4.204   8.827   1.774  0.9547 -0.1940  0.1025
54891SOL    HW176398   4.243   8.899   1.824  1.4066 -0.9236  0.8025
54891SOL    HW276399   4.124   8.805   1.822  1.2414 -0.7062  0.3471
54892SOL     OW76400  12.679  10.635   7.554 -0.2688 -0.1033  0.2897
54892SOL    HW176401  12.592  10.638   7.594 -0.1613 -0.6820  0.5689
54892SOL    HW276402  12.671  10.692   7.477 -1.1588 -0.8667 -0.2147
54893SOL     OW76403   2.284  11.727   0.431  0.4312  0.6734  0.2384
54893SOL    HW176404   2.224  11.667   0.476 -0.3638  1.1361 -0.1849
54893SOL    HW276405   2.335  11.670   0.372  0.4199  0.2761  0.6111
54894SOL     OW76406   0.521  10.276   7.798  0.4672  0.1359  0.0164
54894SOL    HW176407   0.611  10.245   7.808  0.6162  0.4459 -0.3271
54894SOL    HW276408   0.517  10.309   7.708 -0.3290 -0.9698 -0.3672
54895SOL     OW76409  10.475   4.246   1.958 -0.5580 -1.1967  0.1451
54895SOL    HW176410  10.520   4.211   1.881 -1.3962  1.3631 -1.6648
54895SOL    HW276411  10.541   4.303   2.000 -1.0095 -0.1149 -0.5585
54896SOL     OW76412   8.820   8.933   6.863 -0.0695 -0.4917  0.2136
54896SOL    HW176413   8.818   8.984   6.945  1.8002 -0.5708  0.3398
54896SOL    HW276414   8.748   8.871   6.873 -0.4379  0.0810  1.4164
54897SOL     OW76415   1.658   2.430   4.071  0.3001 -0.1627  0.6291
54897SOL    HW176416   1.620   2.380   3.998  0.0090  2.0793 -0.8752
54897SOL    HW276417   1.652   2.372   4.146 -3.0480 -1.2131 -0.2799
54898SOL     OW76418   2.219   6.894   6.000  0.1182 -0.4280 -0.1848
54898SOL    HW176419   2.176   6.896   5.914 -2.2275 -1.7751  0.8553
54898SOL    HW276420   2.245   6.803   6.011 -1.1242 -0.6578  1.1750
54899SOL     OW76421  12.259  11.798  13.290 -0.4860 -0.1062  0.6894
54899SOL    HW176422  12.337  11.763  13.333 -0.6495 -1.2529  0.1021
54899SOL    HW276423  12.209  11.720  13.265 -0.0059  0.4250 -2.2690
54900SOL     OW76424  11.967  13.461   0.110 -0.2075 -0.3392  0.6597
54900SOL    HW176425  11.998  13.532   0.166  1.8180 -0.2232 -0.5195
54900SOL    HW276426  11.998  13.381   0.152  0.0664 -0.3392  0.4604
54901SOL     OW76427   9.895   7.936   0.194  0.0404 -0.1949  0.4852
54901SOL    HW176428   9.940   8.020   0.203 -1.5528  0.7368  0.2339
54901SOL    HW276429   9.812   7.949   0.240 -0.8206 -1.1550 -0.7414
54902SOL     OW76430   6.607  11.754   0.119 -0.4809 -0.2101 -0.0522
54902SOL    HW176431   6.515  11.777   0.130 -0.4541  0.7902 -1.6014
54902SOL    HW276432   6.604  11.675   0.064 -0.4061  0.2047 -0.6565
54903SOL     OW76433  12.083  10.524   7.817  0.2172  0.3313 -0.3979
54903SOL    HW176434  12.011  10.527   7.880  0.5636 -0.6732  0.0652
54903SOL    HW276435  12.140  10.597   7.842  1.2825 -1.0856  1.6511
54904SOL     OW76436   9.288  12.516   9.332  0.6527  0.4408  0.2010
54904SOL    HW176437   9.336  12.596   9.353 -0.0583  0.8156  0.4156
54904SOL    HW276438   9.268  12.477   9.418  1.7712 -0.4385  0.0821
54905SOL     OW76439  12.635   3.815   0.681  0.3720  0.0241  0.2508
54905SOL    HW176440  12.645   3.780   0.769  1.7655  1.1721  0.5957
54905SOL    HW276441  12.581   3.894   0.693 -0.1040 -0.2536 -0.0450
54906SOL     OW76442   7.839  10.246   3.755 -0.1049  0.5379  0.4084
54906SOL    HW176443   7.854  10.340   3.743  1.1502  0.1048 -2.0168
54906SOL    HW276444   7.922  10.212   3.787 -0.8922  0.3688  2.3796
54907SOL     OW76445   7.784   7.728   6.738 -0.2426  0.5171 -0.2954
54907SOL    HW176446   7.817   7.638   6.739 -0.8145  0.2916  1.8006
54907SOL    HW276447   7.722   7.733   6.811 -1.4535  2.1870 -1.3318
54908SOL     OW76448   8.885  11.742  11.669 -0.1044 -0.2880 -0.0303
54908SOL    HW176449   8.812  11.802  11.679 -0.4466 -0.6544 -0.3155
54908SOL    HW276450   8.935  11.750  11.751 -1.5787 -1.5281  1.0463
54909SOL     OW76451   1.017  11.984   8.460  0.0130  0.1803 -0.0853
54909SOL    HW176452   1.008  11.914   8.525  2.4739 -1.9219 -1.7706
54909SOL    HW276453   1.107  12.015   8.471 -0.2781  1.4001 -0.9702
54910SOL     OW76454   5.582  11.666   1.593 -0.3410 -0.1311  0.2559
54910SOL    HW176455   5.626  11.638   1.513  0.1424  1.8689 -0.2341
54910SOL    HW276456   5.653  11.679   1.656 -0.6112 -0.5480  0.6561
54911SOL     OW76457  11.967  13.453   6.981 -0.1612  0.0817  0.4844
54911SOL    HW176458  11.946  13.521   6.916 -0.0800 -0.1151  0.2489
54911SOL    HW276459  11.897  13.389   6.970 -0.7619  0.5725  1.3520
54912SOL     OW76460   2.492  10.115   1.237  0.2811 -0.1699 -0.1684
54912SOL    HW176461   2.511  10.089   1.147  1.1990 -0.0236 -0.0299
54912SOL    HW276462   2.500  10.211   1.235 -0.7029 -0.0780 -0.1485
54913SOL     OW76463   0.003   5.927  13.463 -0.4349  0.4411  0.1370
54913SOL    HW176464   0.056   5.969  13.531 -0.0878 -1.0948  0.8698
54913SOL    HW276465  -0.072   5.985  13.452  0.6748  1.9426  0.0953
54914SOL     OW76466  12.616   9.279   5.368 -0.0951  0.1460 -0.2038
54914SOL    HW176467  12.598   9.244   5.455 -0.9839  1.2437  0.0781
54914SOL    HW276468  12.605   9.374   5.377 -0.2547  0.2794 -1.5238
54915SOL     OW76469   3.702  12.490   1.888 -0.3349 -0.8204 -0.0426
54915SOL    HW176470   3.673  12.572   1.847  1.4447 -1.5093 -2.9882
54915SOL    HW276471   3.666  12.422   1.832 -1.0247 -2.1010  1.8477
54916SOL     OW76472   7.215   7.709   5.743 -0.0912 -0.5878  0.1139
54916SOL    HW176473   7.121   7.708   5.762  0.0527 -0.0769  0.9021
54916SOL    HW276474   7.246   7.623   5.774 -0.2049 -0.5425  0.3577
54917SOL     OW76475  11.524  13.151   3.638  1.0992  0.0478  0.4486
54917SOL    HW176476  11.454  13.095   3.670 -1.7370  2.4718 -1.0413
54917SOL    HW276477  11.535  13.217   3.706 -0.4240  1.4907 -0.6162
54918SOL     OW76478   2.582  13.124   7.802 -0.0010 -0.2293  0.2731
54918SOL    HW176479   2.493  13.106   7.770 -0.6945 -0.9098  2.4098
54918SOL    HW276480   2.573  13.207   7.849  0.0231 -1.2164  2.0897
54919SOL     OW76481   9.116   5.422   3.761 -0.2908 -0.1373 -0.1829
54919SOL    HW176482   9.034   5.458   3.794 -0.0009 -1.4710  2.2490
54919SOL    HW276483   9.180   5.445   3.828  0.9221 -0.7565 -1.1091
54920SOL     OW76484   0.414  10.509   2.345  0.0166  0.1981 -0.1590
54920SOL    HW176485   0.484  10.482   2.404 -0.4176 -0.9758 -0.1663
54920SOL    HW276486   0.333  10.485   2.391 -0.3521  0.2146 -0.7834
54921SOL     OW76487   6.866   0.282   8.458 -0.5312  0.3509  0.6769
54921SOL    HW176488   6.821   0.220   8.400  0.7583 -0.8775  0.9183
54921SOL    HW276489   6.802   0.301   8.526 -1.4196  0.3445 -0.1312
54922SOL     OW76490   0.288   3.420   1.830 -0.3490  0.5140 -0.3219
54922SOL    HW176491   0.296   3.445   1.739  3.2495  2.0433  0.2673
54922SOL    HW276492   0.253   3.330   1.827  0.6464  0.1240 -3.2453
54923SOL     OW76493   0.015  12.301  12.348  0.0320 -0.2158  0.7729
54923SOL    HW176494   0.037  12.329  12.259  1.1324  2.8933  1.9196
54923SOL    HW276495  -0.077  12.325  12.358 -0.1169 -0.6424  0.4924
54924SOL     OW76496   4.510  12.028  13.688  0.0719  0.0088 -0.3167
54924SOL    HW176497   4.605  12.040  13.694  0.0400  1.1767 -1.4848
54924SOL    HW276498   4.477  12.113  13.657 -1.5226  0.0576  1.3614
54925SOL     OW76499  13.182   2.898  12.268 -0.5822 -0.2134  0.4505
54925SOL    HW176500  13.277   2.901  12.274 -0.4195 -1.0642 -1.1499
54925SOL    HW276501  13.161   2.805  12.268 -1.2500 -0.0895 -0.9870
54926SOL     OW76502  12.852   0.812   6.024  0.3143  0.1753 -0.1583
54926SOL    HW176503  12.793   0.793   5.951  0.6582  0.7048 -0.5843
54926SOL    HW276504  12.794   0.837   6.096  0.0148  1.7348 -0.8780
54927SOL     OW76505  10.259   9.531   2.449  0.0189  0.2340 -0.2338
54927SOL    HW176506  10.338   9.531   2.503  0.4289  0.0847 -0.8313
54927SOL    HW276507  10.193   9.575   2.504  0.5546  0.5126  0.1977
54928SOL     OW76508   9.859  10.008   2.050  0.6036  0.0968 -0.0687
54928SOL    HW176509   9.826  10.089   2.090  1.0675  1.1731 -1.7441
54928SOL    HW276510   9.783   9.970   2.006  1.0508  1.6407 -2.4090
54929SOL     OW76511   2.167   2.962   8.143 -0.4977 -0.1478  0.8141
54929SOL    HW176512   2.198   2.966   8.234 -0.5017 -1.6576  0.9041
54929SOL    HW276513   2.236   3.005   8.092 -1.3449  2.4418  1.6816
54930SOL     OW76514  12.763   3.635   7.779  0.0911 -0.0047 -0.0915
54930SOL    HW176515  12.775   3.562   7.839 -0.8065 -1.7609 -1.9312
54930SOL    HW276516  12.775   3.713   7.833 -0.2668 -1.4770  2.2514
54931SOL     OW76517   3.102   3.890  12.453  0.1290 -0.5255 -0.0752
54931SOL    HW176518   3.047   3.927  12.522  0.0762  3.1346 -1.8093
54931SOL    HW276519   3.041   3.845  12.395 -0.4742 -0.0268  0.1532
54932SOL     OW76520   1.551  13.342  10.583  0.0185  0.4463 -0.1246
54932SOL    HW176521   1.592  13.277  10.640  0.9091  0.3551 -0.8550
54932SOL    HW276522   1.548  13.421  10.636 -0.8249 -0.0975  0.6773
54933SOL     OW76523   6.616  12.633   9.429  0.1880 -0.3627 -0.0285
54933SOL    HW176524   6.541  12.682   9.395  1.0067  0.2187 -1.0359
54933SOL    HW276525   6.613  12.549   9.383  0.0021 -0.4452  0.1333
54934SOL     OW76526   9.141   4.595   7.688 -0.4566 -0.0735 -0.3534
54934SOL    HW176527   9.145   4.633   7.775  0.7033 -0.0409 -0.4091
54934SOL    HW276528   9.232   4.586   7.661 -0.7977 -0.0389 -1.5840
54935SOL     OW76529   5.347   8.237  11.754  0.0535 -0.4859 -0.8204
54935SOL    HW176530   5.392   8.172  11.700 -0.3760 -0.8044 -0.8003
54935SOL    HW276531   5.407   8.253  11.828  0.4898 -0.3014 -1.2071
54936SOL     OW76532   3.613   2.098   5.274  0.1447  0.0932  0.3674
54936SOL    HW176533   3.541   2.133   5.327  0.6905  0.4239  0.9003
54936SOL    HW276534   3.573   2.026   5.225 -0.2322 -0.6730  1.7357
54937SOL     OW76535   9.639   2.438   8.990 -0.0075  0.5804 -0.1420
54937SOL    HW176536   9.594   2.507   9.038  0.9776 -0.2511  2.1311
54937SOL    HW276537   9.728   2.439   9.025  0.0730 -1.7244 -0.1345
54938SOL     OW76538  12.234  13.611   1.721  0.3828 -0.1594 -0.3935
54938SOL    HW176539  12.241  13.649   1.809 -1.0932 -2.6631  0.9215
54938SOL    HW276540  12.234  13.687   1.662  1.7691  1.5919  1.7004
54939SOL     OW76541   0.412   4.604   5.938  0.4762 -0.3044 -0.3733
54939SOL    HW176542   0.480   4.560   5.988 -1.2281 -2.4089  0.2206
54939SOL    HW276543   0.403   4.690   5.980  3.1899  0.3403 -0.9385
54940SOL     OW76544  12.153   0.730   3.480  0.1368  0.0505 -0.3253
54940SOL    HW176545  12.117   0.814   3.452 -0.3960 -0.1820 -0.3351
54940SOL    HW276546  12.106   0.708   3.560  2.1083  1.0320  1.1991
54941SOL     OW76547  13.703  13.034   3.390  0.0426  0.0272 -0.1235
54941SOL    HW176548  13.759  12.972   3.437  0.2181  0.0628 -0.2836
54941SOL    HW276549  13.738  13.120   3.412 -1.4013  0.2135  1.6815
54942SOL     OW76550   5.307  12.435   3.384  0.2845 -0.0064 -0.1362
54942SOL    HW176551   5.221  12.444   3.344  1.2337 -0.1902 -2.3789
54942SOL    HW276552   5.357  12.510   3.350  1.0899 -0.0349  0.9259
54943SOL     OW76553   9.047   7.177   1.750  0.1035  0.1777 -0.3540
54943SOL    HW176554   9.014   7.252   1.800  0.8883  0.1362  0.2422
54943SOL    HW276555   9.112   7.137   1.808 -1.0841 -1.6243 -0.1860
54944SOL     OW76556   0.549  12.390   9.235 -0.5113 -0.1774  0.6067
54944SOL    HW176557   0.553  12.422   9.145 -0.7893 -1.9197 -0.0769
54944SOL    HW276558   0.519  12.465   9.287  3.1839  2.0004 -0.0931
54945SOL     OW76559   6.088   6.136   7.130 -0.1537 -0.0167  0.1288
54945SOL    HW176560   6.065   6.126   7.038 -1.2562  2.1668  0.1120
54945SOL    HW276561   6.120   6.226   7.137 -0.2331 -0.0923  1.9015
54946SOL     OW76562   5.944   6.184   6.188 -0.3299  0.3650  0.1478
54946SOL    HW176563   5.900   6.230   6.117 -0.3989  0.4944  0.2742
54946SOL    HW276564   5.966   6.252   6.252 -0.8768  0.1614  0.5655
54947SOL     OW76565   0.148   4.049   0.034  0.3527 -0.6406 -0.4201
54947SOL    HW176566   0.208   4.070  -0.038 -0.5395 -0.5950 -1.1672
54947SOL    HW276567   0.174   4.108   0.105  0.9321 -0.3547 -0.8605
54948SOL     OW76568   6.513  13.670   7.703 -0.5153 -0.5916  0.8870
54948SOL    HW176569   6.482  13.699   7.617 -2.0886 -0.4983  1.4558
54948SOL    HW276570   6.596  13.626   7.685  0.8308  2.2105 -0.2787
54949SOL     OW76571   3.920   9.187   6.752 -0.1092 -0.7005  0.4798
54949SOL    HW176572   3.841   9.137   6.773  0.1427 -1.3139  0.0191
54949SOL    HW276573   3.981   9.166   6.823 -0.1606 -0.6866  0.5282
54950SOL     OW76574  12.388   7.579   6.310 -0.0938 -0.2711  0.2494
54950SOL    HW176575  12.478   7.587   6.340 -0.4819 -2.7856  2.4242
54950SOL    HW276576  12.384   7.633   6.231  3.2481  0.0403  0.1679
54951SOL     OW76577   5.388   9.110   9.079  0.2633 -0.0273  0.3269
54951SOL    HW176578   5.414   9.019   9.065  0.0960  0.0445 -0.4574
54951SOL    HW276579   5.293   9.109   9.072  0.2283  0.1450  0.7299
54952SOL     OW76580   6.231   8.087   6.537  0.2480 -0.3728 -0.5027
54952SOL    HW176581   6.197   8.118   6.621  1.4220  1.3934 -0.6131
54952SOL    HW276582   6.299   8.025   6.560 -0.2892 -0.8599 -0.1929
54953SOL     OW76583   5.167   0.200  11.000  0.3755  1.1399  0.3831
54953SOL    HW176584   5.145   0.275  10.945  1.6880  0.9691 -0.4270
54953SOL    HW276585   5.245   0.227  11.047 -0.8004  1.3275  2.3187
54954SOL     OW76586   0.815  11.074   2.938  0.1535 -0.2083  0.1329
54954SOL    HW176587   0.835  10.987   2.974  1.2326 -0.4748 -1.0335
54954SOL    HW276588   0.887  11.091   2.877  0.0400  1.5779  0.4502
54955SOL     OW76589  10.517   3.769   2.510  0.4649  0.3132 -0.1779
54955SOL    HW176590  10.523   3.692   2.567  0.1088  0.6794  0.3604
54955SOL    HW276591  10.550   3.738   2.425 -0.1526 -0.5779 -0.1141
54956SOL     OW76592   5.212   7.906  11.152 -0.1815 -0.1586 -0.5117
54956SOL    HW176593   5.281   7.865  11.204 -0.5198 -1.2236 -0.8570
54956SOL    HW276594   5.136   7.848  11.165 -1.2866  1.4567  0.5699
54957SOL     OW76595   2.302   4.270   7.422 -0.2128  0.2247  0.6176
54957SOL    HW176596   2.218   4.284   7.466  0.2568 -1.2622  2.0551
54957SOL    HW276597   2.360   4.235   7.489  1.4096  0.6332 -0.4946
54958SOL     OW76598   1.434  12.422   9.452 -0.4983 -0.2726 -0.0082
54958SOL    HW176599   1.497  12.369   9.404 -0.1312 -1.1063  1.3517
54958SOL    HW276600   1.487  12.483   9.502 -0.9177  1.9010 -2.0201
54959SOL     OW76601   5.148   2.076   7.417  0.0808  0.4710 -0.6008
54959SOL    HW176602   5.144   2.155   7.470 -0.2336  1.3332 -1.8849
54959SOL    HW276603   5.241   2.067   7.394  0.4831 -0.7225  1.2325
54960SOL     OW76604   2.727   1.447  11.910 -0.7189  1.0546 -0.3152
54960SOL    HW176605   2.688   1.384  11.971  0.1794  0.0159 -0.7743
54960SOL    HW276606   2.716   1.532  11.952 -0.9545  0.4624  0.8518
54961SOL     OW76607   6.677   4.222   7.315  0.7290 -0.3682 -0.2127
54961SOL    HW176608   6.747   4.178   7.363  0.8219 -0.9962 -0.9017
54961SOL    HW276609   6.605   4.228   7.377  0.3580 -2.4065 -0.3720
54962SOL     OW76610   6.476  11.793   5.639  0.2276  0.1045 -0.5028
54962SOL    HW176611   6.442  11.783   5.550  1.6558 -0.5731 -1.0060
54962SOL    HW276612   6.539  11.865   5.633  0.2807  0.0982 -0.0408
54963SOL     OW76613   9.738  13.606   2.151 -0.4956  0.2860 -0.2296
54963SOL    HW176614   9.738  13.518   2.188  1.5081  0.1721 -0.3991
54963SOL    HW276615   9.655  13.612   2.102 -2.5576 -0.0771  2.9306
54964SOL     OW76616  11.853   6.466   2.037 -0.6687  0.9230  0.1305
54964SOL    HW176617  11.908   6.388   2.045 -0.0245  0.8124 -3.4823
54964SOL    HW276618  11.769   6.440   2.076 -0.0673 -1.1357  0.1832
54965SOL     OW76619  12.580  12.372   5.781  0.4751 -0.1385 -0.3784
54965SOL    HW176620  12.544  12.404   5.863 -1.3144  0.7851 -1.4409
54965SOL    HW276621  12.543  12.430   5.714  1.7581 -0.9215 -1.8596
54966SOL     OW76622   0.153   2.197   2.319 -0.2626  0.2266 -0.0926
54966SOL    HW176623   0.241   2.236   2.321  0.9575 -2.1825  3.4245
54966SOL    HW276624   0.157   2.132   2.249  0.7009  0.3173 -0.1392
54967SOL     OW76625   3.402   9.115   7.806  0.3714  0.3739 -0.7236
54967SOL    HW176626   3.488   9.076   7.793 -0.1002 -1.1425  0.4367
54967SOL    HW276627   3.402   9.144   7.897  0.1804  1.8068 -1.1507
54968SOL     OW76628   1.818  11.158   8.888  0.2087 -0.0503  0.3859
54968SOL    HW176629   1.804  11.221   8.959  0.2863 -0.9461  1.2233
54968SOL    HW276630   1.821  11.073   8.932  1.2671 -0.5415 -0.5711
54969SOL     OW76631   1.896   1.680   3.058  0.3966  0.2107 -0.5409
54969SOL    HW176632   1.928   1.668   2.968  1.8162 -1.5070  0.1366
54969SOL    HW276633   1.811   1.636   3.059  1.6667 -2.4618 -0.3762
54970SOL     OW76634  11.989  13.112   4.199 -0.3340  0.2386  0.2418
54970SOL    HW176635  12.004  13.165   4.277  1.2999 -0.0622  0.1860
54970SOL    HW276636  11.935  13.167   4.142  0.4283  1.4263  0.6258
54971SOL     OW76637  11.122   8.054   0.458  0.0527 -0.0102 -0.2859
54971SOL    HW176638  11.125   7.987   0.390 -3.8408  0.1671 -0.8230
54971SOL    HW276639  11.034   8.048   0.494  0.6890  2.5799  2.0536
54972SOL     OW76640   8.677  12.308  13.411 -0.3031 -0.3156  0.4803
54972SOL    HW176641   8.711  12.397  13.408 -2.0660  0.3582 -0.3974
54972SOL    HW276642   8.712  12.272  13.493 -1.3990  1.9379  2.0249
54973SOL     OW76643  11.004   5.508  11.323 -0.0336  0.5471  0.3328
54973SOL    HW176644  10.922   5.459  11.332  0.2769  0.0187  0.3119
54973SOL    HW276645  11.009   5.560  11.403 -0.4352  0.6545  0.2938
54974SOL     OW76646  11.153  12.996   7.789 -0.4299 -0.5863 -0.3824
54974SOL    HW176647  11.170  13.003   7.695  2.1606 -2.0326 -0.0953
54974SOL    HW276648  11.135  13.086   7.816  1.0385  0.2286 -1.8963
54975SOL     OW76649   3.469   2.177   1.649  0.1978 -0.5042  0.1253
54975SOL    HW176650   3.426   2.151   1.730 -0.7332  0.8400  0.0835
54975SOL    HW276651   3.399   2.184   1.585  0.0696  3.3737  0.4558
54976SOL     OW76652  12.375   0.874   6.826 -0.4585  0.5540 -0.4009
54976SOL    HW176653  12.419   0.800   6.868  0.8095  1.3109 -0.3533
54976SOL    HW276654  12.433   0.898   6.753 -1.2062  1.0623 -0.8413
54977SOL     OW76655   7.461   3.451  13.126 -0.1121  0.1350 -0.4309
54977SOL    HW176656   7.422   3.375  13.170 -0.2224 -0.7685 -2.0123
54977SOL    HW276657   7.388   3.509  13.107 -0.4335 -0.6226 -1.5913
54978SOL     OW76658  11.068   0.065   7.979 -0.0182 -0.2925 -0.4995
54978SOL    HW176659  11.011   0.123   8.029 -0.5312 -0.8623 -0.4069
54978SOL    HW276660  11.094  -0.003   8.041  2.0536  0.7887 -0.0978
54979SOL     OW76661   8.264   5.454   1.569  0.2277 -0.8558  0.0482
54979SOL    HW176662   8.229   5.455   1.480 -0.6580 -1.6446  0.3723
54979SOL    HW276663   8.208   5.393   1.617 -1.0844  1.5879  1.8699
54980SOL     OW76664   9.983   5.803   9.833  0.3231 -0.0401 -0.1616
54980SOL    HW176665  10.075   5.779   9.832  0.2359 -0.3538 -0.6486
54980SOL    HW276666   9.939   5.736   9.781  0.0288  0.9340 -1.2100
54981SOL     OW76667  12.821  13.505   0.916 -0.4511  0.1038  0.2169
54981SOL    HW176668  12.807  13.418   0.954 -0.5049 -0.7921 -1.6917
54981SOL    HW276669  12.751  13.559   0.953 -0.4425 -0.6624  1.4105
54982SOL     OW76670   9.906   6.735   4.637  0.0158  0.0537  0.5895
54982SOL    HW176671   9.838   6.692   4.585  0.3557 -0.6429  0.7072
54982SOL    HW276672   9.949   6.664   4.684 -0.1002  0.6411  1.6193
54983SOL     OW76673   3.444  11.888   6.763 -0.1010 -0.6397 -0.3653
54983SOL    HW176674   3.447  11.818   6.828 -0.4052  0.3132  0.6963
54983SOL    HW276675   3.522  11.941   6.781 -0.6113  0.0855 -0.2392
54984SOL     OW76676   3.084  11.222  12.245 -0.0700  0.3387  0.1408
54984SOL    HW176677   3.147  11.294  12.232  1.9804 -1.4105 -0.1234
54984SOL    HW276678   3.082  11.176  12.161  0.9818 -1.6301  1.1253
54985SOL     OW76679   6.199  11.394   2.368 -0.6185 -1.0578 -0.5941
54985SOL    HW176680   6.192  11.468   2.307 -0.7011  0.9480  1.7051
54985SOL    HW276681   6.123  11.403   2.425  0.1846 -2.0333  0.6665
54986SOL     OW76682   0.602   5.028  12.471  0.1337 -0.1575 -0.1098
54986SOL    HW176683   0.622   4.969  12.544  0.5233  0.1805  0.0545
54986SOL    HW276684   0.621   5.115  12.504 -0.4850  0.0711 -0.3430
54987SOL     OW76685   1.623   4.160   5.264 -0.2022  0.2274  0.2245
54987SOL    HW176686   1.594   4.187   5.351 -1.7746  0.0917 -0.2352
54987SOL    HW276687   1.564   4.205   5.203 -1.2119 -2.1197 -0.6519
54988SOL     OW76688   3.489   5.571   4.166 -0.3657  0.3592 -0.2294
54988SOL    HW176689   3.418   5.510   4.145  0.1233 -0.1678 -0.3741
54988SOL    HW276690   3.490   5.576   4.261 -0.8877  0.7229 -0.2376
54989SOL     OW76691   8.218  10.987   2.696 -0.3798  0.0898 -0.1412
54989SOL    HW176692   8.289  11.040   2.732 -2.0642  2.4615 -0.0696
54989SOL    HW276693   8.139  11.018   2.740 -1.6642 -1.5594 -1.1275
54990SOL     OW76694   3.652   4.779   9.362 -0.0960 -0.1083 -0.0851
54990SOL    HW176695   3.643   4.721   9.286  0.5474 -1.3909  0.7711
54990SOL    HW276696   3.606   4.733   9.432  0.0900  0.6182  0.5222
54991SOL     OW76697   3.178   6.327  10.729  0.4122 -0.1069 -0.5094
54991SOL    HW176698   3.131   6.246  10.707  0.2305 -0.4316  0.9933
54991SOL    HW276699   3.235   6.303  10.801  0.4399  1.0807 -0.1214
54992SOL     OW76700   2.822   5.080   8.463 -0.5944 -0.0028 -0.2046
54992SOL    HW176701   2.773   5.008   8.503  0.5735 -1.3903 -1.1947
54992SOL    HW276702   2.895   5.038   8.417  0.5278  1.8562 -0.2572
54993SOL     OW76703  11.785   7.198   1.784 -0.1709 -0.2347 -0.3047
54993SOL    HW176704  11.875   7.167   1.795 -0.4090 -0.3484  1.6937
54993SOL    HW276705  11.734   7.118   1.771 -0.1697 -0.3106  0.1287
54994SOL     OW76706   0.689   2.092  12.644 -0.3078 -0.3959 -0.7707
54994SOL    HW176707   0.784   2.107  12.650 -0.2992 -0.4445 -0.7771
54994SOL    HW276708   0.654   2.126  12.727 -0.0337 -2.2135  0.1539
54995SOL     OW76709   9.911   5.293  13.000  0.3049  0.6778 -0.1271
54995SOL    HW176710   9.999   5.257  13.007  0.5518  1.5151  1.6534
54995SOL    HW276711   9.861   5.226  12.955  2.0430  0.5558 -2.0257
54996SOL     OW76712   5.257  13.034   2.755  0.3792 -0.1290 -0.0940
54996SOL    HW176713   5.352  13.041   2.745  0.5467  2.1119  2.0554
54996SOL    HW276714   5.245  12.962   2.817  0.7003 -0.0978  0.0082
54997SOL     OW76715   7.765   1.018  11.130  0.8831  0.0943 -0.1039
54997SOL    HW176716   7.703   1.078  11.088  0.8742  0.2472  0.1239
54997SOL    HW276717   7.849   1.037  11.087  0.6812 -0.4619 -0.7631
54998SOL     OW76718  12.635  13.647   2.072  0.3234 -0.2864 -0.2861
54998SOL    HW176719  12.621  13.710   2.142 -0.9847  0.6815 -1.3696
54998SOL    HW276720  12.692  13.692   2.010 -1.2933  0.2179 -1.4738
54999SOL     OW76721  10.756   3.360   8.988 -0.0797  0.4891  0.0620
54999SOL    HW176722  10.741   3.346   9.082  1.2244  1.5745  0.4439
54999SOL    HW276723  10.842   3.323   8.971 -0.0927  0.7536 -0.6219
55000SOL     OW76724   0.546   6.039   1.022 -0.0185 -0.3428 -0.2225
55000SOL    HW176725   0.568   5.967   0.963  2.9533  1.1027 -1.0684
55000SOL    HW276726   0.524   5.997   1.105 -1.2022 -2.2913 -1.4487
55001SOL     OW76727   8.503  12.312  12.678  0.2873  0.1771 -0.2648
55001SOL    HW176728   8.592  12.324  12.647  0.3577  0.2087 -0.0544
55001SOL    HW276729   8.449  12.318  12.599  0.5759 -1.1434 -0.5824
55002SOL     OW76730   6.944   6.203   7.455 -0.5330 -0.1723 -0.1781
55002SOL    HW176731   6.970   6.125   7.405 -0.2980 -1.8733  2.3961
55002SOL    HW276732   7.024   6.231   7.498 -1.3531 -0.9258  1.9579
55003SOL     OW76733   5.006   6.214  10.261 -0.1822  0.4048  0.2697
55003SOL    HW176734   4.957   6.287  10.223  0.1102  0.3486 -0.2266
55003SOL    HW276735   5.092   6.220  10.220  0.5718  1.1189  1.8760
55004SOL     OW76736   7.809   8.740   4.101 -0.0515  0.0962  0.1269
55004SOL    HW176737   7.790   8.767   4.191 -1.0487  0.8182 -0.2882
55004SOL    HW276738   7.725   8.714   4.065  0.6849 -2.7412  0.1669
55005SOL     OW76739   9.968   2.852  10.774 -0.2378 -0.0628  0.0312
55005SOL    HW176740  10.015   2.802  10.840  1.6068 -0.3066 -1.4030
55005SOL    HW276741   9.938   2.787  10.711  1.0873  0.4454 -1.1839
55006SOL     OW76742   2.559   6.922   0.520 -0.2325  0.2738 -0.0989
55006SOL    HW176743   2.518   7.007   0.501 -0.3610  0.2552  0.0894
55006SOL    HW276744   2.642   6.944   0.561 -0.9779  0.3228  1.4876
55007SOL     OW76745  12.842   2.363   8.818  0.1810 -0.1994 -0.1995
55007SOL    HW176746  12.895   2.384   8.895 -0.7500  2.5381 -0.1924
55007SOL    HW276747  12.863   2.433   8.755 -1.9399 -0.1535 -0.9258
55008SOL     OW76748   5.977  11.102  11.110  0.3118  0.1831  0.3349
55008SOL    HW176749   5.932  11.171  11.061  1.0246  1.2741  1.1603
55008SOL    HW276750   5.961  11.022  11.060 -0.3431  0.9868 -0.7777
55009SOL     OW76751   2.555  12.845   3.133  0.1684 -0.3285  0.0567
55009SOL    HW176752   2.536  12.756   3.165 -0.9729  0.0669  0.5291
55009SOL    HW276753   2.632  12.834   3.077 -0.6170 -1.8085 -0.8072
55010SOL     OW76754   4.271   0.856   1.957  0.1559  0.2686 -0.6235
55010SOL    HW176755   4.334   0.928   1.952 -1.5663  2.0083  1.2066
55010SOL    HW276756   4.198   0.885   1.903  0.2421 -1.0452 -1.4808
55011SOL     OW76757   9.424   2.794   4.684 -0.2741 -0.2957  0.5978
55011SOL    HW176758   9.472   2.828   4.608  0.2391 -0.4436  0.8529
55011SOL    HW276759   9.486   2.735   4.727 -0.3738  0.1915  1.4323
55012SOL     OW76760   1.586  10.242   4.004  0.0885  0.4246 -0.0653
55012SOL    HW176761   1.542  10.326   3.993  1.2338  0.9283 -1.1223
55012SOL    HW276762   1.578  10.222   4.097  1.7214  2.8528  0.7071
55013SOL     OW76763  13.075  10.469   4.999 -0.4093  0.0980 -0.1423
55013SOL    HW176764  13.134  10.394   4.992  0.8188  1.1744 -4.0397
55013SOL    HW276765  13.009  10.453   4.931 -2.4766  0.7903  1.5749
55014SOL     OW76766   7.307  11.213  10.011 -0.5806  0.6063  0.4656
55014SOL    HW176767   7.212  11.208  10.016 -0.6294  2.3865  1.9035
55014SOL    HW276768   7.337  11.208  10.102  0.7515 -0.2953  0.0162
55015SOL     OW76769   2.819   1.973   3.900  0.0273 -0.4508  0.5290
55015SOL    HW176770   2.759   1.901   3.921 -0.6523 -0.1384 -0.2894
55015SOL    HW276771   2.772   2.052   3.929 -0.2343 -0.1526 -0.6618
55016SOL     OW76772  12.950  10.044   0.837  0.2147 -0.2540 -0.3427
55016SOL    HW176773  12.871  10.093   0.812  0.2406 -1.0373 -2.0606
55016SOL    HW276774  12.917   9.958   0.864  0.4559 -0.4670 -0.7303
55017SOL     OW76775   0.656   4.721   7.659 -0.2313 -0.7299 -0.2173
55017SOL    HW176776   0.737   4.688   7.697  0.4219  1.4581  0.4402
55017SOL    HW276777   0.683   4.799   7.609 -1.9089  0.0328  0.0022
55018SOL     OW76778  11.494   3.461   8.463 -0.4222 -0.6082 -0.0588
55018SOL    HW176779  11.539   3.404   8.525  1.3027  0.3016 -0.4111
55018SOL    HW276780  11.512   3.550   8.494 -2.6248 -0.2060  0.1886
55019SOL     OW76781   1.264   5.875   0.933 -0.0851 -0.0199 -0.2197
55019SOL    HW176782   1.210   5.920   0.998  1.8504  0.4872  1.1461
55019SOL    HW276783   1.261   5.783   0.959 -0.7936 -0.0925 -0.5445
55020SOL     OW76784  12.420  10.982   6.024 -0.4866 -0.3649 -0.5367
55020SOL    HW176785  12.439  11.028   6.106  3.6426 -0.7703 -1.0597
55020SOL    HW276786  12.394  11.051   5.963 -2.0471  0.1336  0.6240
55021SOL     OW76787  10.384   0.070   9.047  0.1012  0.3627 -0.4315
55021SOL    HW176788  10.292   0.083   9.070  0.1589  0.8126 -0.4434
55021SOL    HW276789  10.382   0.005   8.976 -0.2429  0.7264 -0.7637
55022SOL     OW76790   9.934   4.542   1.825  0.1738 -0.5340 -0.5234
55022SOL    HW176791   9.885   4.601   1.768 -1.3015  0.1185  1.3154
55022SOL    HW276792   9.869   4.511   1.888  2.0072 -0.0046  1.7374
55023SOL     OW76793   7.180  10.536  10.023  0.3585 -0.1606 -0.1829
55023SOL    HW176794   7.158  10.617  10.070  0.6036 -0.9522  1.3619
55023SOL    HW276795   7.116  10.472  10.054  0.3215 -0.6344 -1.2059
55024SOL     OW76796   8.432  12.613  12.334 -0.6035 -0.3474 -0.1804
55024SOL    HW176797   8.486  12.572  12.267 -0.8343 -1.6814  0.4083
55024SOL    HW276798   8.342  12.596  12.307 -0.7138  0.1915 -0.1659
55025SOL     OW76799   3.761  13.454   4.663  0.2307  0.0644  0.7550
55025SOL    HW176800   3.764  13.404   4.745  2.9017  2.7846  2.5587
55025SOL    HW276801   3.720  13.536   4.687 -2.5787 -0.4624 -1.7307
55026SOL     OW76802   8.473   1.315  12.761  0.3133  0.2328 -0.0032
55026SOL    HW176803   8.502   1.302  12.851  0.0736  2.0373  0.3594
55026SOL    HW276804   8.514   1.397  12.733 -2.4665  1.6642 -0.2421
55027SOL     OW76805  10.964   8.475   0.784  0.4133  0.1021  0.3634
55027SOL    HW176806  11.025   8.406   0.808  0.3037 -0.8086 -1.7017
55027SOL    HW276807  10.989   8.499   0.694 -1.9941 -0.0759 -0.4367
55028SOL     OW76808   3.956  12.056  13.149 -0.5706  0.1436 -0.0598
55028SOL    HW176809   3.888  12.059  13.217 -1.4290  0.1441 -0.8995
55028SOL    HW276810   4.021  11.995  13.184 -0.5797  0.7820  1.1289
55029SOL     OW76811   0.639   4.692  10.281  0.3053  0.0749  0.2684
55029SOL    HW176812   0.618   4.674  10.189  1.3987  0.8981 -0.1708
55029SOL    HW276813   0.681   4.612  10.312  0.3437 -0.0484 -0.0927
55030SOL     OW76814  11.763   5.905   3.601  0.6384 -0.5490  0.0171
55030SOL    HW176815  11.790   5.980   3.654  0.1570 -0.8595  0.7130
55030SOL    HW276816  11.812   5.831   3.636  0.3223 -0.7531  0.0376
55031SOL     OW76817   6.437   0.435   6.542  0.0221  0.3052  0.1030
55031SOL    HW176818   6.429   0.522   6.582  1.3203  1.5008 -2.0358
55031SOL    HW276819   6.531   0.418   6.539 -0.2228 -1.3708  0.7837
55032SOL     OW76820   4.417   3.097  11.886  0.2025 -0.2234  0.1076
55032SOL    HW176821   4.323   3.113  11.888  0.2049  0.1352 -1.5413
55032SOL    HW276822   4.456   3.179  11.915  0.0358  0.3614 -1.2614
55033SOL     OW76823  12.732   2.683   3.945  0.3360  0.0125  0.0360
55033SOL    HW176824  12.740   2.771   3.907  0.0961 -0.5942 -1.4816
55033SOL    HW276825  12.639   2.665   3.945  0.4040 -0.3434  0.1325
55034SOL     OW76826  12.912   6.631   8.923  0.2122  0.1934  0.3665
55034SOL    HW176827  12.866   6.596   8.847  0.8029 -2.1180  1.0124
55034SOL    HW276828  12.844   6.641   8.990 -0.0235  0.6690  0.0619
55035SOL     OW76829   9.687   9.085   1.065 -0.4732 -0.0634  0.4059
55035SOL    HW176830   9.706   9.033   0.987 -0.6070 -0.3783  0.5828
55035SOL    HW276831   9.715   9.174   1.041 -1.3619  0.0345 -0.3276
55036SOL     OW76832  10.099   7.513   4.779 -0.2944 -0.1547 -0.6800
55036SOL    HW176833  10.146   7.430   4.784 -0.3834 -0.1302  1.1699
55036SOL    HW276834  10.099   7.535   4.685  1.2567 -1.3448 -1.0004
55037SOL     OW76835   2.807  10.732   4.677  0.1148 -0.5492  0.0713
55037SOL    HW176836   2.849  10.803   4.724 -1.0294 -0.0174  0.3321
55037SOL    HW276837   2.799  10.661   4.741 -1.7288  0.2822  0.8393
55038SOL     OW76838   4.048   7.615   1.505  0.0931  0.6117 -0.0247
55038SOL    HW176839   3.962   7.622   1.546 -0.2249 -0.2878 -0.5131
55038SOL    HW276840   4.049   7.684   1.439 -0.5776  0.1242 -0.5637
55039SOL     OW76841   1.999   4.795   4.536 -0.2290 -0.0940 -0.0426
55039SOL    HW176842   1.975   4.860   4.470 -0.6609  0.7813  0.9650
55039SOL    HW276843   1.924   4.792   4.596 -0.3821 -1.7922 -0.2571
55040SOL     OW76844   6.437   7.348   7.621 -0.3929 -0.5225 -0.4482
55040SOL    HW176845   6.379   7.293   7.568  0.2946 -0.7428 -0.9892
55040SOL    HW276846   6.388   7.428   7.636  0.3339  0.6715 -3.6769
55041SOL     OW76847   6.798   7.639  10.354 -0.1746  0.4515  0.2199
55041SOL    HW176848   6.795   7.549  10.320 -0.0190  0.4198  0.2909
55041SOL    HW276849   6.860   7.635  10.426  0.1277  0.7050 -0.0271
55042SOL     OW76850   7.332   1.242  10.842  0.0643  0.3043  0.3894
55042SOL    HW176851   7.269   1.172  10.824  2.0679 -1.5713  0.3714
55042SOL    HW276852   7.319   1.304  10.770 -1.6226 -0.0982  0.2906
55043SOL     OW76853   1.097  12.768   5.159 -0.2902  0.3795  0.7348
55043SOL    HW176854   1.110  12.693   5.101 -0.5249  1.4715 -0.7601
55043SOL    HW276855   1.156  12.751   5.233  0.9086 -0.4600 -0.3668
55044SOL     OW76856   0.628   3.135  11.562 -0.3406 -0.1846  0.0235
55044SOL    HW176857   0.577   3.165  11.487 -0.2868 -2.2079 -0.8879
55044SOL    HW276858   0.702   3.088  11.524  0.5604  0.0824  1.3522
55045SOL     OW76859  12.214   9.334   8.663 -0.0527 -0.5738  0.0026
55045SOL    HW176860  12.254   9.289   8.588  2.0342 -0.5794  1.0458
55045SOL    HW276861  12.288   9.353   8.721 -1.0318  2.8284  0.3442
55046SOL     OW76862   3.414   2.496   2.287 -0.1943  0.4692  0.2339
55046SOL    HW176863   3.404   2.446   2.207 -0.2317  0.9433 -0.0652
55046SOL    HW276864   3.363   2.576   2.272 -0.7270  0.2785  0.9772
55047SOL     OW76865   1.526   7.068   5.516  0.6323 -0.0410 -0.3606
55047SOL    HW176866   1.547   7.101   5.428  1.0906  0.1883 -0.1669
55047SOL    HW276867   1.461   7.130   5.550 -0.5250 -0.8422 -1.0221
55048SOL     OW76868   0.403   4.880   9.527 -0.6852 -0.6471 -0.3788
55048SOL    HW176869   0.346   4.881   9.604 -2.3915  0.0897 -1.5720
55048SOL    HW276870   0.448   4.796   9.531 -1.1343 -0.8434  1.1221
55049SOL     OW76871   7.398   6.576   0.046 -0.2452 -0.2596 -0.4784
55049SOL    HW176872   7.346   6.501   0.018  0.6146 -0.7629 -0.7676
55049SOL    HW276873   7.450   6.599  -0.032 -1.0903  1.1651 -0.6645
55050SOL     OW76874   6.614   7.285  11.671 -0.2749 -0.6152 -0.5254
55050SOL    HW176875   6.631   7.237  11.589 -2.4687  1.0522 -2.0774
55050SOL    HW276876   6.540   7.239  11.710 -0.2427 -0.4564 -0.2780
55051SOL     OW76877   2.656   1.891  13.063  0.0304  0.2232 -0.0291
55051SOL    HW176878   2.678   1.889  13.156  1.8106 -0.6639 -0.4322
55051SOL    HW276879   2.583   1.830  13.054 -0.5574  0.7714  0.8548
55052SOL     OW76880  11.297   7.520  12.972 -0.1528  0.0654 -0.1650
55052SOL    HW176881  11.338   7.455  13.028 -0.8988 -0.1194  0.1813
55052SOL    HW276882  11.280   7.594  13.031  1.7991  1.0936 -0.8082
55053SOL     OW76883   1.768   5.816   9.158  0.1720  0.1644 -0.1345
55053SOL    HW176884   1.757   5.908   9.182 -1.0585  0.0871 -0.3506
55053SOL    HW276885   1.808   5.819   9.071 -2.4307  0.5787 -1.4011
55054SOL     OW76886   6.897  10.033   8.110  0.0279 -0.1064 -0.3310
55054SOL    HW176887   6.865   9.943   8.108 -0.9115  0.1576  1.2105
55054SOL    HW276888   6.992  10.025   8.116 -0.1468 -1.0916  2.2629
55055SOL     OW76889  11.003   0.948  12.030 -0.1956  0.3117  0.4453
55055SOL    HW176890  10.986   1.039  12.057  1.4881  0.4219  1.2536
55055SOL    HW276891  11.095   0.947  12.006 -0.3328 -1.0790 -0.0832
55056SOL     OW76892   9.655   2.069  12.873 -0.1606  0.1981  0.4101
55056SOL    HW176893   9.637   2.152  12.918 -1.0561  1.0270 -1.3533
55056SOL    HW276894   9.750   2.069  12.860 -0.1205  0.8320  0.6584
55057SOL     OW76895   2.888   1.197   7.815  0.3779 -0.1050  0.2588
55057SOL    HW176896   2.963   1.169   7.867  0.4824  0.0475  0.1889
55057SOL    HW276897   2.818   1.135   7.838  1.1010 -1.5425 -1.1730
55058SOL     OW76898   0.429   3.767  11.316 -0.3993  0.0897  0.2782
55058SOL    HW176899   0.485   3.829  11.362 -1.2151  0.9012  0.2234
55058SOL    HW276900   0.483   3.734  11.244  0.3039  0.1380  0.7778
55059SOL     OW76901  11.268   8.479   4.709  0.3597 -0.0712 -0.3889
55059SOL    HW176902  11.255   8.400   4.762  0.6590  0.5553  0.6308
55059SOL    HW276903  11.235   8.550   4.763 -1.0070  0.4004 -1.7688
55060SOL     OW76904  10.442   3.011  10.447  0.1049  0.0851  0.1437
55060SOL    HW176905  10.391   2.977  10.521  0.1933  1.3372  0.8062
55060SOL    HW276906  10.464   3.101  10.473  0.9721  0.2120 -0.9886
55061SOL     OW76907   8.501   3.574   4.527  0.0062 -0.2319  0.6218
55061SOL    HW176908   8.431   3.603   4.585  0.3035 -1.0508  1.4129
55061SOL    HW276909   8.578   3.565   4.583  0.6889  0.3974 -0.1859
55062SOL     OW76910   1.766   8.090  11.182 -1.0724  0.3095 -0.1783
55062SOL    HW176911   1.686   8.058  11.224 -1.1917 -1.1185 -1.4047
55062SOL    HW276912   1.826   8.108  11.254 -1.1358 -2.3953  0.6448
55063SOL     OW76913   5.879  13.622   8.223 -0.1321 -0.2947  0.0539
55063SOL    HW176914   5.839  13.584   8.302  0.0607  0.1614  0.3782
55063SOL    HW276915   5.943  13.557   8.195 -0.6642 -0.7535 -0.1121
55064SOL     OW76916   9.657  10.458   0.526 -0.3593 -0.2515  0.1624
55064SOL    HW176917   9.565  10.483   0.537 -0.7539 -0.9072 -1.3515
55064SOL    HW276918   9.704  10.541   0.520 -1.0638  0.1124 -0.4799
55065SOL     OW76919   0.105  11.313  12.495 -0.3322  0.2273 -0.2978
55065SOL    HW176920   0.105  11.259  12.416 -1.6781 -0.4198  0.1177
55065SOL    HW276921   0.013  11.322  12.518  0.0200  0.6499  1.0391
55066SOL     OW76922   8.399  11.702   4.898  0.1752 -0.0722  0.0209
55066SOL    HW176923   8.450  11.769   4.944 -0.6188  1.0354 -0.6616
55066SOL    HW276924   8.339  11.669   4.965  1.0305 -0.6135  0.5416
55067SOL     OW76925   3.293   1.114   0.160 -0.1269 -0.1412 -0.2003
55067SOL    HW176926   3.269   1.181   0.224  0.0206 -1.1035  0.8888
55067SOL    HW276927   3.373   1.148   0.119  1.5154 -0.8236  2.2488
55068SOL     OW76928   8.573   9.911   6.379 -0.4641 -0.3897 -0.0525
55068SOL    HW176929   8.555  10.005   6.380  0.4282 -0.0992 -2.7237
55068SOL    HW276930   8.667   9.904   6.393 -0.6779 -1.0244  1.2927
55069SOL     OW76931   0.469   0.126  13.184 -0.2132 -0.2377  0.4181
55069SOL    HW176932   0.557   0.121  13.220  0.4669 -1.8959 -1.2825
55069SOL    HW276933   0.438   0.214  13.207  1.6657  0.1930  1.4850
55070SOL     OW76934   3.907  11.511  11.597 -0.0655  0.5819  0.2131
55070SOL    HW176935   3.957  11.431  11.611  2.1462  1.8768  0.1498
55070SOL    HW276936   3.883  11.508  11.504  0.5509  0.2821  0.0597
55071SOL     OW76937   1.182  12.238   2.843 -0.6174 -0.3717  0.4556
55071SOL    HW176938   1.131  12.303   2.891 -1.3779  0.2289 -1.0778
55071SOL    HW276939   1.118  12.176   2.809 -0.4079  0.3911 -1.4970
55072SOL     OW76940  10.668   3.521  10.988 -0.5041  0.0619 -0.3336
55072SOL    HW176941  10.743   3.503  10.931 -1.4222  0.9473 -1.9127
55072SOL    HW276942  10.633   3.434  11.010  0.0192 -0.3173 -0.9563
55073SOL     OW76943   7.063   5.579   0.732 -0.0089  0.4514  0.7450
55073SOL    HW176944   7.023   5.500   0.769 -0.1670 -0.5532 -1.3953
55073SOL    HW276945   6.998   5.612   0.671  1.1502  0.5853 -0.4755
55074SOL     OW76946  13.535   4.054  11.676  0.3850  0.0679  0.3945
55074SOL    HW176947  13.467   4.116  11.704  0.6241  1.0573 -1.1020
55074SOL    HW276948  13.593   4.047  11.753 -0.4321  0.5830  1.0819
55075SOL     OW76949   7.228   3.472   4.831 -0.0093  0.0126  0.4163
55075SOL    HW176950   7.278   3.391   4.839 -0.5583 -0.4124 -0.3396
55075SOL    HW276951   7.260   3.527   4.903 -0.3262 -1.2446  1.5618
55076SOL     OW76952   0.598  12.772   2.462  0.3006  0.0043 -0.3730
55076SOL    HW176953   0.582  12.856   2.505  0.5286 -0.3876  0.5065
55076SOL    HW276954   0.639  12.718   2.530  0.3592 -0.7442 -0.9920
55077SOL     OW76955   0.785   2.468   4.009 -0.4490 -0.3266 -0.3561
55077SOL    HW176956   0.696   2.464   3.973 -0.4652 -0.3170 -0.3165
55077SOL    HW276957   0.776   2.438   4.099 -0.4098 -0.3388 -0.3562
55078SOL     OW76958   7.794   3.997  10.160 -0.0245  0.4233  0.2205
55078SOL    HW176959   7.837   3.970  10.079  0.6443  1.3898  0.2349
55078SOL    HW276960   7.754   3.917  10.194 -0.6142  0.0645 -1.2318
55079SOL     OW76961   4.368   8.034   8.971  0.3699 -0.4159 -0.6114
55079SOL    HW176962   4.298   8.018   9.033  0.1402 -0.6935 -0.9373
55079SOL    HW276963   4.411   7.950   8.960  2.3060  0.2330  1.4126
55080SOL     OW76964   2.076   5.615   2.585 -0.4610  0.4849  0.0474
55080SOL    HW176965   2.005   5.597   2.523 -0.5920  0.0867  0.3104
55080SOL    HW276966   2.131   5.679   2.539 -1.5249  1.5840  0.2404
55081SOL     OW76967   9.159  13.302   8.785  0.5442 -0.9410 -0.5389
55081SOL    HW176968   9.155  13.334   8.875  0.8579 -1.3444 -0.3795
55081SOL    HW276969   9.068  13.291   8.759  0.4434 -0.4757 -0.4008
55082SOL     OW76970  10.418   9.210  10.269 -0.4599 -0.2398 -0.4127
55082SOL    HW176971  10.355   9.188  10.338 -0.3618  0.5030 -0.0786
55082SOL    HW276972  10.364   9.242  10.197 -0.5125 -0.3167 -0.4081
55083SOL     OW76973   7.075  10.166   8.303  0.3808 -0.0915 -1.1827
55083SOL    HW176974   7.008  10.146   8.368 -0.0699 -2.6584 -2.3107
55083SOL    HW276975   7.130  10.233   8.345 -1.0149 -0.2211  1.0229
55084SOL     OW76976  13.556   5.535   9.912 -0.9129 -0.1263  0.5535
55084SOL    HW176977  13.545   5.443   9.938  1.2534 -0.4168  0.5569
55084SOL    HW276978  13.545   5.584   9.994 -1.0400 -0.4483  0.7324
55085SOL     OW76979   7.773  13.510  12.332  0.5285  0.1725  0.0639
55085SOL    HW176980   7.760  13.449  12.259  1.0321  0.8471 -0.5991
55085SOL    HW276981   7.826  13.461  12.395  0.5106 -0.2472 -0.2453
55086SOL     OW76982  13.672   2.522   5.565 -0.1904 -0.0094 -0.4216
55086SOL    HW176983  13.767   2.518   5.557 -0.1668  1.0917 -1.0230
55086SOL    HW276984  13.653   2.616   5.570 -1.3173 -0.1568 -1.4453
55087SOL     OW76985   1.404   7.361   8.131 -0.0810 -0.2050 -0.4732
55087SOL    HW176986   1.336   7.318   8.183 -0.4503 -1.1991 -1.7281
55087SOL    HW276987   1.474   7.296   8.126  0.4464  0.3376 -0.2436
55088SOL     OW76988   3.973  10.254   7.093 -0.3810  0.1195 -0.2926
55088SOL    HW176989   3.885  10.270   7.058 -0.6474 -0.2718  0.1854
55088SOL    HW276990   4.018  10.338   7.084 -0.3269 -0.0353 -1.8621
55089SOL     OW76991   9.154   8.538   1.515  0.1550 -0.4434 -0.3187
55089SOL    HW176992   9.151   8.458   1.463  2.9524 -0.7486 -0.1635
55089SOL    HW276993   9.140   8.608   1.452 -0.5178 -0.9634 -0.7624
55090SOL     OW76994   9.365   0.377   4.989 -0.0920 -0.5775  0.1492
55090SOL    HW176995   9.449   0.363   4.945 -0.3373 -0.3547 -0.3920
55090SOL    HW276996   9.356   0.472   4.993 -0.7224 -0.5951 -0.5776
55091SOL     OW76997  12.260  10.233   8.004  0.6101 -0.4712 -0.5333
55091SOL    HW176998  12.322  10.270   7.942  0.0300  0.1409 -0.7630
55091SOL    HW276999  12.179  10.221   7.953 -0.1537  0.8892  0.2966
55092SOL     OW77000   4.410  11.126   5.991  0.9180 -0.2173  0.2693
55092SOL    HW177001   4.501  11.151   5.974  1.4482 -0.6613  2.2134
55092SOL    HW277002   4.363  11.210   5.995  1.0625 -0.0138 -1.4223
55093SOL     OW77003   7.060   9.482   2.492 -0.0965 -0.2877  0.4095
55093SOL    HW177004   6.999   9.516   2.427  0.1131 -0.9626 -0.1433
55093SOL    HW277005   7.134   9.543   2.489  0.4314 -0.9640 -0.8229
55094SOL     OW77006  11.244   4.880   1.571 -0.4878  0.0858  0.1953
55094SOL    HW177007  11.284   4.962   1.541 -1.1582 -0.3013 -1.9369
55094SOL    HW277008  11.215   4.899   1.660  0.4407  1.7743  0.1949
55095SOL     OW77009   3.739  13.167   9.003 -0.7003 -0.2146  0.1687
55095SOL    HW177010   3.676  13.235   8.979 -0.4642 -0.2537 -0.6040
55095SOL    HW277011   3.821  13.195   8.961 -0.7319 -1.2484 -0.6186
55096SOL     OW77012  12.589   3.592  10.223 -0.0413  0.0854 -0.2059
55096SOL    HW177013  12.552   3.504  10.219  1.5087 -0.7780  2.1697
55096SOL    HW277014  12.552   3.630  10.303  0.7048  0.8949 -0.2333
55097SOL     OW77015   5.500  13.674  11.839  0.7418 -0.3970 -0.2057
55097SOL    HW177016   5.470  13.589  11.870  0.2478 -0.8551 -1.8197
55097SOL    HW277017   5.421  13.728  11.835  0.8631 -0.2214 -0.2434
55098SOL     OW77018   2.924   4.948  12.018  0.0236 -0.0932  0.1115
55098SOL    HW177019   2.922   4.994  11.934 -0.0038 -1.4004 -0.6302
55098SOL    HW277020   3.006   4.898  12.016  0.1968  0.1412  1.0233
55099SOL     OW77021   1.144   1.873   9.744  0.5651 -0.6824 -0.1779
55099SOL    HW177022   1.139   1.861   9.649  1.3223 -1.0365 -0.1822
55099SOL    HW277023   1.054   1.864   9.774  0.2995 -0.4197 -0.8831
55100SOL     OW77024   5.172   2.270  12.069 -0.4092 -0.0402 -0.4476
55100SOL    HW177025   5.132   2.275  12.156  0.2177  0.2939 -0.1733
55100SOL    HW277026   5.209   2.181  12.064  1.0582  0.5013  0.3106
55101SOL     OW77027   5.039   1.894   4.609  0.6514  0.6090  0.0650
55101SOL    HW177028   4.944   1.880   4.612  0.5432  0.2218 -2.5297
55101SOL    HW277029   5.049   1.989   4.621  0.0850  0.4827  1.7376
55102SOL     OW77030   0.771   6.676  10.341  1.0527 -0.1031  0.2230
55102SOL    HW177031   0.698   6.736  10.327  0.4671 -1.0808 -1.0971
55102SOL    HW277032   0.838   6.704  10.280  0.4284 -1.2775 -1.0820
55103SOL     OW77033   0.821  13.681   1.337  0.4100 -0.2296 -0.3755
55103SOL    HW177034   0.844  13.598   1.379 -0.1519 -0.1768  0.0558
55103SOL    HW277035   0.872  13.746   1.383  0.2717 -0.2489 -0.1913
55104SOL     OW77036   8.190  10.793   7.161 -0.1698  0.0167  0.3835
55104SOL    HW177037   8.170  10.856   7.091  1.4931  1.1180  0.8494
55104SOL    HW277038   8.216  10.714   7.115 -1.7791 -0.1974 -0.2147
55105SOL     OW77039   6.228  12.844  12.417  0.2846  0.6776 -0.5654
55105SOL    HW177040   6.138  12.868  12.398  0.1765  0.1308 -0.7614
55105SOL    HW277041   6.280  12.912  12.375 -0.0686  2.1604  1.2764
55106SOL     OW77042  11.678  10.369  10.291  0.0577 -0.1716 -0.2289
55106SOL    HW177043  11.648  10.301  10.231  1.8002 -1.4141  0.2053
55106SOL    HW277044  11.657  10.335  10.378  1.3962 -0.4348  0.0161
55107SOL     OW77045   2.654   7.625   2.529  0.3377 -0.4576  0.6730
55107SOL    HW177046   2.624   7.536   2.545 -0.5285  0.0341  1.9621
55107SOL    HW277047   2.646   7.669   2.614 -1.1021  1.3588 -0.3233
55108SOL     OW77048  13.258   4.122   7.074  0.1669 -0.3528  0.4907
55108SOL    HW177049  13.231   4.043   7.029  1.0007 -0.1555 -0.3802
55108SOL    HW277050  13.199   4.128   7.149 -1.9142 -0.1732 -1.0790
55109SOL     OW77051   2.502  13.647  13.152 -0.2390 -1.2231  0.0822
55109SOL    HW177052   2.411  13.654  13.123  0.6359  1.1353 -2.5911
55109SOL    HW277053   2.508  13.705  13.228 -0.5047  0.5687 -1.2151
55110SOL     OW77054   9.306  11.437  12.038  0.4206  0.2066 -0.5854
55110SOL    HW177055   9.298  11.457  11.945 -1.0719  0.4125 -0.4382
55110SOL    HW277056   9.290  11.343  12.044  1.1913  0.0692 -0.5984
55111SOL     OW77057  10.067  10.539   7.698  0.1056  0.1777 -0.3923
55111SOL    HW177058  10.157  10.524   7.671  0.3779  0.4399  0.3417
55111SOL    HW277059  10.015  10.528   7.618  0.8103  0.2954 -0.8701
55112SOL     OW77060   5.249   5.991   7.004 -0.0536 -0.4979  0.3103
55112SOL    HW177061   5.208   5.905   7.001 -1.4420  0.1114  0.9964
55112SOL    HW277062   5.214   6.032   7.083  1.1074  0.4582  0.3620
55113SOL     OW77063   0.596   0.663   7.871 -0.1603  0.0001  0.2626
55113SOL    HW177064   0.591   0.602   7.797 -1.4253 -0.0332  0.3521
55113SOL    HW277065   0.523   0.638   7.928  2.1733 -1.5752  2.8196
55114SOL     OW77066  10.844   2.645   9.539  0.0589  0.0533  0.1775
55114SOL    HW177067  10.779   2.705   9.503 -0.3892 -1.3488 -1.4704
55114SOL    HW277068  10.844   2.570   9.479  0.9598 -1.3760  1.8554
55115SOL     OW77069  10.487  11.186   9.543  0.0763 -0.2075 -0.1267
55115SOL    HW177070  10.438  11.145   9.615  3.3251 -0.9093  1.9195
55115SOL    HW277071  10.565  11.132   9.534  1.2057  1.6115 -2.1949
55116SOL     OW77072  13.474   4.713  11.258  0.0772  0.4336 -0.5658
55116SOL    HW177073  13.450   4.622  11.239  1.1442 -0.0324  0.1957
55116SOL    HW277074  13.395   4.750  11.297 -0.2776 -0.2599 -0.5993
55117SOL     OW77075   6.653   8.454  12.831 -0.5699 -0.3749  0.0337
55117SOL    HW177076   6.635   8.421  12.744 -0.7216 -3.5408  1.1394
55117SOL    HW277077   6.570   8.442  12.879  0.7637 -3.5096  1.8631
55118SOL     OW77078   0.191   1.043   9.686  0.4652  0.5796 -0.6881
55118SOL    HW177079   0.100   1.071   9.676  0.8603  1.1564 -3.4752
55118SOL    HW277080   0.185   0.948   9.700 -0.5854  0.8764  1.1613
55119SOL     OW77081   8.950   1.403  11.696  0.3651 -0.2804 -0.3824
55119SOL    HW177082   9.027   1.418  11.641  0.1775 -0.8978 -0.8253
55119SOL    HW277083   8.896   1.481  11.684  0.0037 -0.7133 -1.6237
55120SOL     OW77084   2.900  12.494   9.895 -0.0756  0.3994 -0.8687
55120SOL    HW177085   2.863  12.474   9.809 -1.1425 -0.4215 -0.2557
55120SOL    HW277086   2.832  12.543   9.940 -0.7591 -1.6913  0.5148
55121SOL     OW77087  10.888   7.484   8.775  0.1929  0.8244  0.4136
55121SOL    HW177088  10.900   7.410   8.835 -1.3737  0.3270  0.1664
55121SOL    HW277089  10.929   7.455   8.693  0.4049  0.6136  0.5921
55122SOL     OW77090  12.213   0.238   2.742  0.1411 -0.6169 -0.4733
55122SOL    HW177091  12.303   0.204   2.746 -0.3187 -1.7859  0.5021
55122SOL    HW277092  12.222   0.324   2.701  2.1053  0.6425  2.3142
55123SOL     OW77093  11.753  11.413   8.495  0.0357  0.1480  0.2715
55123SOL    HW177094  11.812  11.355   8.447  0.8021  1.1493 -0.0517
55123SOL    HW277095  11.807  11.448   8.566 -0.4865  0.2520  0.6194
55124SOL     OW77096   5.281  10.320  13.589 -0.5115 -0.3014 -0.3431
55124SOL    HW177097   5.278  10.325  13.493 -1.0457  0.5219 -0.2967
55124SOL    HW277098   5.372  10.341  13.611 -1.0534  2.9054 -0.5628
55125SOL     OW77099   0.239  10.028  13.683  0.0192 -0.3327 -0.0366
55125SOL    HW177100   0.214  10.034  13.775 -1.6455 -1.1932 -0.4012
55125SOL    HW277101   0.209  10.110  13.645  0.1685 -0.2353  0.0527
55126SOL     OW77102   6.380   8.430   9.451  0.4838 -0.1299  0.0823
55126SOL    HW177103   6.298   8.480   9.442 -0.1715 -1.2040 -0.0650
55126SOL    HW277104   6.352   8.339   9.454  1.7149 -0.5385 -0.3369
55127SOL     OW77105   1.493   9.029   6.956  0.2536  0.3074  0.4515
55127SOL    HW177106   1.415   8.975   6.968 -0.5283  1.2439 -0.3098
55127SOL    HW277107   1.547   8.981   6.894 -0.4330  0.3794 -0.2108
55128SOL     OW77108  13.376   0.867   3.720 -0.1309  0.1868  0.1593
55128SOL    HW177109  13.374   0.920   3.640 -3.8095 -0.8765 -0.6645
55128SOL    HW277110  13.386   0.931   3.791 -0.8434  1.6384 -0.9901
55129SOL     OW77111   8.086   2.958   7.236  0.1577 -0.9000  0.6419
55129SOL    HW177112   8.110   2.905   7.312 -1.3818 -1.4633  0.7754
55129SOL    HW277113   8.006   2.917   7.203 -0.0341  0.2420 -0.3787
55130SOL     OW77114   9.182  12.660  13.669  0.3670  0.1762 -0.3966
55130SOL    HW177115   9.137  12.588  13.625 -0.0873  0.7208 -0.8481
55130SOL    HW277116   9.272  12.657  13.635  0.1047  0.3922 -1.1243
55131SOL     OW77117   2.757  10.777  11.355  0.0077 -0.0003 -0.3665
55131SOL    HW177118   2.842  10.735  11.371 -0.1222  0.9630  4.5286
55131SOL    HW277119   2.693  10.709  11.374 -0.1961  0.4829  0.8256
55132SOL     OW77120  11.366   7.504   4.599 -0.0710  0.1174  0.7320
55132SOL    HW177121  11.433   7.548   4.651  0.0935 -1.1657  1.6485
55132SOL    HW277122  11.415   7.460   4.530 -0.3595  2.6466 -1.2607
55133SOL     OW77123   5.329   6.952   9.260 -0.2952  0.7656 -0.1446
55133SOL    HW177124   5.281   6.916   9.185 -0.8545  0.1835  0.4855
55133SOL    HW277125   5.419   6.959   9.229 -0.0767 -1.5234 -0.2051
55134SOL     OW77126   0.672  13.018   5.290 -0.0563  0.3233  0.1624
55134SOL    HW177127   0.714  13.074   5.225 -0.9459  1.3990  0.4901
55134SOL    HW277128   0.708  12.931   5.273  0.1240  0.6781 -1.4064
55135SOL     OW77129   3.801  11.266   0.402 -0.0702 -0.3933  0.1167
55135SOL    HW177130   3.873  11.248   0.342  0.1521 -0.1819  0.3171
55135SOL    HW277131   3.732  11.204   0.377 -0.3332  0.3019 -0.9637
55136SOL     OW77132   2.366   5.530   9.325 -0.6044 -0.0222  0.7252
55136SOL    HW177133   2.274   5.509   9.341 -0.8197 -1.1637 -1.5824
55136SOL    HW277134   2.414   5.476   9.388 -1.4521 -0.8076  0.7108
55137SOL     OW77135   1.189  11.004   4.114  0.2833 -0.5148 -0.4566
55137SOL    HW177136   1.183  10.912   4.088  0.9480 -0.8001  0.3680
55137SOL    HW277137   1.108  11.043   4.079 -0.4627 -1.5983 -0.0244
55138SOL     OW77138   6.228   3.439   5.443  0.0648 -0.0273  0.1868
55138SOL    HW177139   6.257   3.373   5.380 -1.1765 -0.6029  0.1993
55138SOL    HW277140   6.134   3.447   5.428  0.1240  1.4544  0.4674
55139SOL     OW77141   0.341  13.039   6.989  0.3085  0.4648 -0.3597
55139SOL    HW177142   0.414  13.091   6.955  0.8646 -0.3602 -0.4413
55139SOL    HW277143   0.342  12.959   6.937 -1.1548  0.7651 -0.9011
55140SOL     OW77144   3.709   1.171   0.843 -0.0514 -0.2926 -0.2877
55140SOL    HW177145   3.739   1.087   0.808  1.6903 -0.3165  1.1044
55140SOL    HW277146   3.663   1.213   0.770  1.8465 -1.0961 -2.0522
55141SOL     OW77147   9.378   6.614  12.778  0.1501  0.0981  0.2818
55141SOL    HW177148   9.373   6.549  12.708  0.8774  1.2292 -0.8529
55141SOL    HW277149   9.467   6.607  12.812  0.0321  0.0765  0.5961
55142SOL     OW77150  10.176  10.193   5.244  0.1980  0.3387  0.4434
55142SOL    HW177151  10.133  10.147   5.172  2.2617  0.9295 -1.2515
55142SOL    HW277152  10.187  10.127   5.312  1.6797 -1.3524 -1.3108
55143SOL     OW77153   9.788  10.326  13.361  0.6545 -0.2299 -0.2327
55143SOL    HW177154   9.789  10.333  13.457 -2.6660 -0.6303 -0.0659
55143SOL    HW277155   9.845  10.251  13.343 -1.3787 -2.4543  1.8175
55144SOL     OW77156   1.893   8.939  11.416  0.2936 -0.4431  0.1258
55144SOL    HW177157   1.898   8.899  11.503 -0.3504  3.7366  2.3484
55144SOL    HW277158   1.982   8.969  11.398 -0.0316  0.8302  0.5450
55145SOL     OW77159   1.564   6.129  13.070 -0.0116 -0.0262 -0.1966
55145SOL    HW177160   1.552   6.130  13.165  1.3176  0.5418 -0.0232
55145SOL    HW277161   1.647   6.085  13.056 -0.6376 -0.9615 -1.1784
55146SOL     OW77162   8.738  12.985   3.073  0.5660  0.4891 -0.3219
55146SOL    HW177163   8.775  12.999   3.160  1.2056 -1.4530 -0.2268
55146SOL    HW277164   8.796  12.920   3.033 -0.8902 -0.1931 -1.4069
55147SOL     OW77165   0.682  12.534   1.285 -0.5292  0.0283  0.5549
55147SOL    HW177166   0.716  12.589   1.354 -2.1600 -0.1095  1.5229
55147SOL    HW277167   0.593  12.513   1.312 -0.6332 -1.4565 -0.7482
55148SOL     OW77168   6.082  11.773   1.394  0.5776  0.4675 -0.3288
55148SOL    HW177169   6.129  11.690   1.403  1.1975  0.8106 -0.3166
55148SOL    HW277170   6.131  11.821   1.327  0.6340  1.0977  0.1573
55149SOL     OW77171   1.928  13.310   4.569  0.3439 -0.1351 -0.0718
55149SOL    HW177172   1.885  13.268   4.644  0.5962  2.4202  1.6231
55149SOL    HW277173   1.860  13.367   4.532  1.0534  0.8247  0.0662
55150SOL     OW77174   8.432   8.925   3.457 -0.3661  0.1988 -0.2824
55150SOL    HW177175   8.479   8.871   3.393 -0.0749 -0.5696  0.5749
55150SOL    HW277176   8.439   9.014   3.422  0.1810 -0.1472 -1.0858
55151SOL     OW77177  10.637   3.447   5.054 -0.2256  0.0149 -0.1741
55151SOL    HW177178  10.574   3.456   4.982 -0.2761  0.9071 -0.0221
55151SOL    HW277179  10.721   3.434   5.010 -0.2956  0.2844 -0.3880
55152SOL     OW77180   0.378   6.078  11.219 -0.1768 -0.2110 -0.2121
55152SOL    HW177181   0.341   6.000  11.177  1.3412 -0.5665 -0.9733
55152SOL    HW277182   0.463   6.049  11.252 -0.5641  0.5550  1.5569
55153SOL     OW77183   9.463   6.534   9.337 -0.1832 -0.5881  0.3126
55153SOL    HW177184   9.384   6.540   9.390 -0.6666 -1.7317 -0.2535
55153SOL    HW277185   9.534   6.551   9.399 -0.7636 -1.4285  1.2355
55154SOL     OW77186   9.756  11.931   5.049 -0.2364 -0.4296 -0.1412
55154SOL    HW177187   9.808  11.935   5.130 -0.5235  1.0432  0.0015
55154SOL    HW277188   9.684  11.993   5.064 -0.3435 -0.2049 -1.4867
55155SOL     OW77189   6.005   2.531   1.488 -0.6939 -0.0755 -0.5347
55155SOL    HW177190   5.969   2.447   1.516  0.1059  0.0228  0.8877
55155SOL    HW277191   6.096   2.512   1.465 -0.2736  0.5110  0.5611
55156SOL     OW77192   4.485   6.200   0.902 -0.2122  0.2533 -0.6703
55156SOL    HW177193   4.490   6.174   0.810  1.7738 -2.1114  0.0127
55156SOL    HW277194   4.416   6.146   0.939 -0.1257  0.2485 -0.5135
55157SOL     OW77195   7.060  10.287   8.863  0.6300 -0.0565 -0.1827
55157SOL    HW177196   7.130  10.306   8.802  2.8444  0.0707  2.2088
55157SOL    HW277197   7.053  10.367   8.917 -0.6951 -0.4236  0.2256
55158SOL     OW77198   4.606   1.041   9.622  0.3866  0.1642 -0.6603
55158SOL    HW177199   4.698   1.048   9.650  0.7853  0.6547 -2.0327
55158SOL    HW277200   4.589   1.122   9.575 -0.9100  0.2708 -0.0359
55159SOL     OW77201   4.732   4.224   2.498 -0.7673 -0.3714  0.0453
55159SOL    HW177202   4.687   4.215   2.414 -0.6011 -0.3152 -0.0521
55159SOL    HW277203   4.815   4.266   2.475 -0.0619 -1.7178  0.0324
55160SOL     OW77204   1.690   8.792   5.194 -0.1419  0.0470  0.2314
55160SOL    HW177205   1.673   8.737   5.270  2.6653 -1.6410 -0.1834
55160SOL    HW277206   1.670   8.736   5.119  0.4120  0.4448 -0.2283
55161SOL     OW77207   7.799   0.808   9.077 -0.0893  0.0964 -0.1707
55161SOL    HW177208   7.890   0.787   9.100 -0.4600 -0.3624  0.9771
55161SOL    HW277209   7.751   0.798   9.160 -1.0890  0.9077 -0.6283
55162SOL     OW77210   5.179   8.830   1.858  0.4321  0.2878 -0.4715
55162SOL    HW177211   5.215   8.828   1.770  0.7214  1.2891 -0.3884
55162SOL    HW277212   5.198   8.918   1.890  0.7860 -0.2285  0.7887
55163SOL     OW77213   2.354   1.869  13.584  0.6315  0.1761 -0.5578
55163SOL    HW177214   2.318   1.953  13.611  0.2775  0.2935 -1.3583
55163SOL    HW277215   2.398   1.835  13.661  1.4682  1.4647 -0.4599
55164SOL     OW77216   2.127   1.527   8.892  0.3826  0.1381 -0.1995
55164SOL    HW177217   2.108   1.440   8.926  1.7323  0.3493  1.2207
55164SOL    HW277218   2.212   1.518   8.848  0.3597  0.6651 -0.3649
55165SOL     OW77219   2.830   7.875   3.766 -0.0684 -0.4649  0.1374
55165SOL    HW177220   2.868   7.961   3.749 -2.5273  0.2552 -2.5151
55165SOL    HW277221   2.869   7.847   3.849  1.2454  2.9166  0.8106
55166SOL     OW77222   9.577   2.975  11.298  0.0776  0.0554 -0.2540
55166SOL    HW177223   9.642   3.007  11.235 -0.9253  2.7810 -0.0291
55166SOL    HW277224   9.623   2.973  11.382  0.2727  0.6222 -0.3407
55167SOL     OW77225   9.520  13.367   3.805  0.4667  0.2289 -0.2647
55167SOL    HW177226   9.487  13.366   3.895  0.3812 -1.0565 -0.2922
55167SOL    HW277227   9.614  13.348   3.814  0.3411 -0.5513 -0.4670
55168SOL     OW77228   6.775  11.780  11.318  0.8121 -0.2883  0.2159
55168SOL    HW177229   6.740  11.765  11.405 -0.9332 -2.6922 -0.7715
55168SOL    HW277230   6.700  11.810  11.267  1.5379  0.0091 -0.7019
55169SOL     OW77231  12.105   7.942   2.696 -0.1130  0.0221  0.4143
55169SOL    HW177232  12.022   7.904   2.669  0.1868 -0.8968  0.7418
55169SOL    HW277233  12.147   7.969   2.614 -0.3617 -0.2990  0.1801
55170SOL     OW77234   0.271  12.304  12.840  0.8075  0.4223 -0.0669
55170SOL    HW177235   0.310  12.231  12.792 -2.6130 -2.0082  0.4289
55170SOL    HW277236   0.211  12.345  12.777  2.0089  2.3485 -0.0568
55171SOL     OW77237   3.065   0.950   0.439 -0.1716  0.1290  0.1661
55171SOL    HW177238   3.053   0.857   0.418 -0.7475 -0.1070  1.4113
55171SOL    HW277239   3.027   0.959   0.527 -2.5154  2.0758 -0.9211
55172SOL     OW77240   3.065   1.337   2.769 -0.2825  0.3566 -0.2041
55172SOL    HW177241   3.120   1.372   2.699  1.0169 -0.4657  0.3738
55172SOL    HW277242   3.029   1.255   2.733  0.9499 -0.4317  0.3125
55173SOL     OW77243   5.134  12.460   4.287 -0.3845 -0.0540 -0.3011
55173SOL    HW177244   5.145  12.387   4.348 -0.6405  0.4164  0.3206
55173SOL    HW277245   5.048  12.497   4.309 -1.1654 -0.7966 -1.9510
55174SOL     OW77246   4.234   8.266  13.515 -0.2728 -0.2559  0.3484
55174SOL    HW177247   4.196   8.193  13.465 -0.3487  1.4635 -2.3036
55174SOL    HW277248   4.316   8.286  13.468 -0.2346  1.3157  1.0584
55175SOL     OW77249  12.516   4.541  10.064  0.4646 -0.2301 -0.3031
55175SOL    HW177250  12.461   4.588  10.001  1.1928  0.2503 -0.5950
55175SOL    HW277251  12.569   4.482  10.010  1.5509  0.6371 -0.2416
55176SOL     OW77252   3.437  11.009   7.926  0.7833  0.4885  0.2438
55176SOL    HW177253   3.478  10.923   7.928 -0.4711 -0.1285  0.2940
55176SOL    HW277254   3.435  11.032   7.833 -0.5927 -0.4054  0.0305
55177SOL     OW77255   7.196  10.909   4.030  0.2305  0.4875 -0.1815
55177SOL    HW177256   7.250  10.971   4.080  0.8737  1.2137 -1.7100
55177SOL    HW277257   7.117  10.899   4.083  0.7574  1.4388  0.8445
55178SOL     OW77258   1.647  12.615   2.621 -0.0098 -1.2192  0.1434
55178SOL    HW177259   1.575  12.646   2.675  0.8184 -1.0032  1.1644
55178SOL    HW277260   1.700  12.694   2.604  0.5921 -1.5637  0.3782
55179SOL     OW77261  10.516   0.049  10.090  0.4243 -0.6485  0.1153
55179SOL    HW177262  10.536   0.076  10.001 -0.2729  2.5801  0.8001
55179SOL    HW277263  10.601   0.039  10.132  0.7393  0.2079 -0.3034
55180SOL     OW77264  10.957   3.519   0.104 -0.6162 -0.3520  0.2767
55180SOL    HW177265  10.982   3.430   0.076  1.9063  0.9442 -2.0756
55180SOL    HW277266  10.886   3.544   0.045 -2.4929 -1.2599  1.9988
55181SOL     OW77267   8.200   8.334   0.788 -0.4979 -0.2705 -0.2364
55181SOL    HW177268   8.186   8.426   0.767 -0.9575 -0.7661 -2.3626
55181SOL    HW277269   8.123   8.308   0.837 -0.7366  0.2900 -0.3092
55182SOL     OW77270   3.534   1.868   6.035 -0.2104  0.1505 -0.2858
55182SOL    HW177271   3.558   1.949   6.079 -2.3553  1.8695 -2.0368
55182SOL    HW277272   3.602   1.856   5.968  1.2044 -0.6436  1.2405
55183SOL     OW77273   4.716   6.381  11.012  0.0783 -0.0016  0.1158
55183SOL    HW177274   4.686   6.304  10.963 -0.0201 -0.7560  1.3281
55183SOL    HW277275   4.781   6.422  10.955 -1.6382  0.4535 -1.6542
55184SOL     OW77276  12.462  13.651   9.527  0.1012  0.5060 -0.5030
55184SOL    HW177277  12.438  13.560   9.548 -1.4536  0.2646 -2.9468
55184SOL    HW277278  12.406  13.704   9.584  1.7467  0.0400  1.6977
55185SOL     OW77279   4.681   4.500  13.031  0.5414 -0.1639  0.0188
55185SOL    HW177280   4.601   4.501  12.978  1.5557  1.7685 -1.6162
55185SOL    HW277281   4.705   4.408  13.037 -1.0059 -0.6504 -0.6762
55186SOL     OW77282  11.078   2.694   8.453  0.1247  0.1565 -0.3809
55186SOL    HW177283  11.139   2.664   8.520 -0.0309  0.7032  0.0161
55186SOL    HW277284  11.108   2.782   8.432 -0.7300  0.5685  0.0813
55187SOL     OW77285   3.571   5.445  13.679 -0.3041  0.4947  0.6166
55187SOL    HW177286   3.577   5.415  13.588 -0.2097  4.0905 -0.7049
55187SOL    HW277287   3.656   5.424  13.718 -0.7052 -2.0518  0.3251
55188SOL     OW77288   0.823   8.401   5.995  0.2712  0.3083  0.4509
55188SOL    HW177289   0.863   8.433   5.914  1.1070  2.1207  1.5127
55188SOL    HW277290   0.897   8.382   6.052 -0.3182  0.5319  1.3053
55189SOL     OW77291   6.157  12.518   4.883  0.3551 -0.5710 -1.2706
55189SOL    HW177292   6.080  12.494   4.935  1.3040 -0.6513  0.1872
55189SOL    HW277293   6.155  12.461   4.807 -1.0273 -0.5461 -1.2636
55190SOL     OW77294   8.124   3.479   4.451 -0.3194  0.1775 -0.1064
55190SOL    HW177295   8.093   3.506   4.538 -0.3285 -1.3927  0.4059
55190SOL    HW277296   8.093   3.548   4.392  0.2326  1.5956  1.2130
55191SOL     OW77297   6.797  10.345   1.650 -0.0617 -0.2407 -0.3404
55191SOL    HW177298   6.737  10.409   1.688 -1.0754 -1.0675 -0.5076
55191SOL    HW277299   6.884  10.383   1.664 -0.5735  0.6908  0.4640
55192SOL     OW77300  11.143   0.911   1.126 -0.2395 -0.1496 -0.1107
55192SOL    HW177301  11.229   0.903   1.167  0.1454  2.2966 -0.2532
55192SOL    HW277302  11.092   0.838   1.161  0.9739  0.1072  2.3933
55193SOL     OW77303   1.145  11.785   7.403  0.3641 -0.5543  0.8457
55193SOL    HW177304   1.147  11.783   7.307  1.6188  0.1228  0.8324
55193SOL    HW277305   1.066  11.835   7.424  0.0833 -0.6916  0.1633
55194SOL     OW77306  12.264  11.856   3.388 -0.2843  0.2168  0.2458
55194SOL    HW177307  12.218  11.774   3.375  1.7863 -0.7342 -1.6967
55194SOL    HW277308  12.352  11.841   3.354  0.1260  3.3092 -0.4355
55195SOL     OW77309   8.856   9.215   2.787 -0.0646 -0.3958 -0.4268
55195SOL    HW177310   8.882   9.193   2.698 -1.2660 -1.1297 -0.6160
55195SOL    HW277311   8.797   9.289   2.777  1.3232  0.8179 -0.0525
55196SOL     OW77312   5.621   9.665   8.032  0.3453  0.2620 -0.0289
55196SOL    HW177313   5.672   9.605   7.977  2.4247  1.8343  0.0512
55196SOL    HW277314   5.565   9.713   7.970  0.2273 -0.2817 -0.3454
55197SOL     OW77315   4.307   6.630   6.060  0.1648 -0.7352 -0.2641
55197SOL    HW177316   4.216   6.606   6.046 -0.2770  0.2258  0.7951
55197SOL    HW277317   4.319   6.709   6.007  0.7860 -1.5800 -1.4442
55198SOL     OW77318   2.204  11.830   6.976  0.3163 -0.4223  0.4380
55198SOL    HW177319   2.166  11.744   6.997 -0.6588 -0.1933 -0.2815
55198SOL    HW277320   2.133  11.892   6.992  0.4551  0.0594 -0.6942
55199SOL     OW77321   9.708   0.556   9.351  0.2761 -0.2515  0.4814
55199SOL    HW177322   9.673   0.640   9.379 -0.4905  0.2225 -1.6979
55199SOL    HW277323   9.802   0.571   9.342  0.0167  0.7209 -0.9021
55200SOL     OW77324   7.484   9.748  12.217  0.2462  0.0305 -0.3239
55200SOL    HW177325   7.478   9.734  12.123  0.5706 -1.4042 -0.1533
55200SOL    HW277326   7.510   9.663  12.253 -0.2365  0.4459  1.0989
55201SOL     OW77327   3.149  12.627   2.814  0.0602  0.0312  0.3140
55201SOL    HW177328   3.129  12.577   2.735  1.1782 -0.2647  0.2092
55201SOL    HW277329   3.068  12.624   2.865 -0.3406 -0.6654 -0.3390
55202SOL     OW77330   5.665  12.184  10.934 -0.2929 -0.1894 -0.1662
55202SOL    HW177331   5.731  12.160  10.999 -0.8382  1.6936  1.1916
55202SOL    HW277332   5.582  12.175  10.980 -0.7466  0.4520 -0.8338
55203SOL     OW77333  12.651  10.183   4.636 -0.0055 -0.1228 -0.7099
55203SOL    HW177334  12.607  10.268   4.630 -0.0056 -0.2032 -2.1173
55203SOL    HW277335  12.684  10.167   4.548  1.4430 -0.8220 -0.0681
55204SOL     OW77336   9.987   0.720   8.442 -0.1382  0.2681  0.2034
55204SOL    HW177337  10.057   0.655   8.435  0.2450  0.5317  1.4550
55204SOL    HW277338  10.032   0.802   8.460 -0.6245  0.9148 -1.3177
55205SOL     OW77339   5.051  13.599  11.743  0.3591  0.1594  0.3472
55205SOL    HW177340   5.096  13.628  11.823 -0.7447  2.5662  0.2136
55205SOL    HW277341   4.962  13.580  11.772  0.3373 -0.4078 -0.0765
55206SOL     OW77342   2.910   3.994   5.356  0.2309 -0.3657  0.5727
55206SOL    HW177343   2.892   4.009   5.449 -0.5638 -0.2667  0.4080
55206SOL    HW277344   3.003   4.013   5.347  0.2461 -0.0548  1.2867
55207SOL     OW77345   5.198   1.188   5.734  0.6173  0.0328  1.3271
55207SOL    HW177346   5.134   1.116   5.737  1.6227 -0.9769 -0.0692
55207SOL    HW277347   5.189   1.231   5.819 -1.0815 -0.8048  1.6193
55208SOL     OW77348   3.855   5.844   8.933 -0.1354 -0.1304  0.4642
55208SOL    HW177349   3.923   5.848   8.866 -1.7692  0.7023 -1.2677
55208SOL    HW277350   3.787   5.789   8.894 -1.0986  0.3010  1.4865
55209SOL     OW77351   6.103   0.050   1.284 -0.4994 -0.1407 -0.3435
55209SOL    HW177352   6.101   0.145   1.268  0.9400  0.1562  1.0075
55209SOL    HW277353   6.110   0.042   1.379 -0.3502 -1.6024 -0.4613
55210SOL     OW77354  13.422   0.106   1.734  0.2346 -0.7453  0.0486
55210SOL    HW177355  13.336   0.144   1.754  0.1508 -0.3739 -0.9864
55210SOL    HW277356  13.480   0.182   1.722  0.6085 -0.9899  0.2653
55211SOL     OW77357  10.922   4.455   7.409 -0.3618 -0.0072  0.1000
55211SOL    HW177358  10.995   4.436   7.468  0.0917 -0.5758 -0.6302
55211SOL    HW277359  10.963   4.474   7.325 -0.9462  1.7132  0.1600
55212SOL     OW77360   8.118   6.965   9.327  0.2350 -0.6888 -0.2494
55212SOL    HW177361   8.168   7.046   9.334 -0.5938 -0.1679 -0.2606
55212SOL    HW277362   8.178   6.903   9.284  0.6449  0.1081 -0.8397
55213SOL     OW77363   4.977   6.289   8.052 -0.2268  0.1822 -0.2811
55213SOL    HW177364   5.069   6.308   8.033 -0.3764  2.1755  0.6269
55213SOL    HW277365   4.941   6.257   7.970  1.1550 -0.1256 -0.7906
55214SOL     OW77366   9.494   9.036   4.733  0.3752 -0.4409  0.9823
55214SOL    HW177367   9.586   9.014   4.744  0.9816  1.0175 -0.5960
55214SOL    HW277368   9.457   8.962   4.686  1.5065  0.2089 -1.0683
55215SOL     OW77369   5.359   2.759   4.069  0.0100  0.0513  0.1564
55215SOL    HW177370   5.348   2.677   4.117  0.5017  1.8054  3.5982
55215SOL    HW277371   5.454   2.773   4.067 -0.0199  0.1883 -1.1580
55216SOL     OW77372  10.508  10.898   2.492 -0.7005 -0.0862 -0.4117
55216SOL    HW177373  10.431  10.954   2.480 -1.3533 -0.6431  0.9198
55216SOL    HW277374  10.473  10.819   2.533  0.3882 -0.9525 -1.1123
55217SOL     OW77375  12.609   1.437   0.952  0.0935  0.1411 -0.2618
55217SOL    HW177376  12.595   1.391   1.034 -0.3216  0.0490 -0.3841
55217SOL    HW277377  12.534   1.495   0.944  1.0218  1.4696  0.3094
55218SOL     OW77378   0.261   5.660   8.329 -0.4507  0.0220 -0.4671
55218SOL    HW177379   0.340   5.708   8.302 -0.6832  1.2642  0.8867
55218SOL    HW277380   0.213   5.723   8.384 -1.2005 -1.4831  0.6796
55219SOL     OW77381  10.583   6.919  12.269 -0.0694 -0.3198  0.2269
55219SOL    HW177382  10.498   6.949  12.301  0.6420  3.0283 -0.7205
55219SOL    HW277383  10.647   6.956  12.331  0.8121 -1.8724  0.3054
55220SOL     OW77384   3.879   2.323   2.748  0.2407 -0.0963  0.6145
55220SOL    HW177385   3.949   2.362   2.801  1.4182  2.1407 -2.2941
55220SOL    HW277386   3.918   2.242   2.714  0.1557 -0.5550  1.5572
55221SOL     OW77387   0.300   0.901  11.590  0.0523  0.2002  0.0066
55221SOL    HW177388   0.338   0.971  11.642  1.2030  0.0280 -0.5694
55221SOL    HW277389   0.358   0.826  11.604  0.2044  0.0631 -1.2421
55222SOL     OW77390   4.657   4.174   9.437 -0.1744  0.2936 -0.1764
55222SOL    HW177391   4.672   4.158   9.530  0.3017  1.2363 -0.0789
55222SOL    HW277392   4.591   4.109   9.412  1.7178 -1.8509  0.1220
55223SOL     OW77393  10.368  11.548   0.278  0.1541  0.2752  0.1625
55223SOL    HW177394  10.446  11.578   0.230  0.1025  1.1736  0.6212
55223SOL    HW277395  10.381  11.581   0.367 -1.0003  0.9092  0.1112
55224SOL     OW77396  13.058   3.088  12.104 -0.4183 -0.5412  0.2420
55224SOL    HW177397  13.111   3.025  12.154  1.5195  1.2512  0.6030
55224SOL    HW277398  13.032   3.154  12.169 -0.0611  0.4633 -0.6118
55225SOL     OW77399   5.459   1.595   1.508 -0.6389  0.1516  0.4564
55225SOL    HW177400   5.493   1.523   1.454  0.6026 -0.2397  1.7070
55225SOL    HW277401   5.393   1.553   1.563 -0.9165  0.2679  0.2144
55226SOL     OW77402   2.607  10.442   9.353 -0.2465 -0.0985 -0.3420
55226SOL    HW177403   2.683  10.492   9.323 -0.1043 -0.4859 -0.6388
55226SOL    HW277404   2.625  10.352   9.326 -1.3161 -0.0185 -1.4107
55227SOL     OW77405   6.587   3.805   0.657  0.0270 -0.0034  0.4273
55227SOL    HW177406   6.654   3.771   0.717 -1.6788 -1.4555  1.6220
55227SOL    HW277407   6.514   3.744   0.667 -1.6691  1.7973 -0.4594
55228SOL     OW77408   0.059   5.622   9.752  0.3437  0.0287  0.0018
55228SOL    HW177409  -0.020   5.626   9.806  0.0148 -1.2383 -0.3691
55228SOL    HW277410   0.035   5.567   9.678  0.8324  1.6404 -1.4051
55229SOL     OW77411   1.107  10.258   1.689  0.0123  0.5067  0.4255
55229SOL    HW177412   1.048  10.304   1.748  1.4563  1.4661  1.1536
55229SOL    HW277413   1.065  10.265   1.603 -1.3369  0.4313  1.0491
55230SOL     OW77414   2.139   0.244  12.645 -0.0790 -0.4441  0.5736
55230SOL    HW177415   2.083   0.297  12.701 -1.7352  1.0600 -2.2698
55230SOL    HW277416   2.168   0.304  12.576  0.7776 -2.4285 -0.8970
55231SOL     OW77417  13.047   6.930   3.548 -0.0563 -0.1141  0.0122
55231SOL    HW177418  13.060   7.001   3.611  1.8771 -1.3844  1.1731
55231SOL    HW277419  13.089   6.961   3.468  0.0480  0.3897  0.2596
55232SOL     OW77420   0.053   0.049   5.065 -0.2441  0.3318  0.2789
55232SOL    HW177421   0.054  -0.045   5.083  0.8907  0.0890 -0.9171
55232SOL    HW277422   0.127   0.084   5.115  0.5504  0.2576 -0.8128
55233SOL     OW77423   1.707   4.142  10.184 -0.0979  0.2068 -0.9965
55233SOL    HW177424   1.679   4.067  10.237 -0.8226  1.1201 -0.0647
55233SOL    HW277425   1.802   4.145  10.195 -0.4115  2.0091  2.5926
55234SOL     OW77426  10.339   4.910   1.795 -0.3672 -0.3960  0.0310
55234SOL    HW177427  10.368   4.847   1.729 -0.0910  0.3368 -0.5652
55234SOL    HW277428  10.394   4.987   1.780  0.7286 -0.7035  2.0616
55235SOL     OW77429  12.610   1.146  11.974 -0.8474  0.1375 -0.0005
55235SOL    HW177430  12.683   1.158  12.034  1.4146 -1.9010 -2.1361
55235SOL    HW277431  12.564   1.068  12.008 -1.6206  0.9639  0.9055
55236SOL     OW77432   4.765   7.066  12.743 -0.2595  0.7969 -0.1273
55236SOL    HW177433   4.770   6.978  12.704 -0.6484  0.5901  0.2753
55236SOL    HW277434   4.679   7.098  12.718 -1.1988  0.0173  1.8466
55237SOL     OW77435   0.033  13.148  12.852 -0.4593  0.1889 -0.5082
55237SOL    HW177436  -0.033  13.179  12.790 -0.6489 -1.3865 -1.1528
55237SOL    HW277437  -0.017  13.103  12.920 -0.1677  0.7347  0.0746
55238SOL     OW77438  10.099  13.494   0.196 -0.3355  0.0186  0.0127
55238SOL    HW177439  10.140  13.441   0.128 -2.7837 -1.1184 -0.7215
55238SOL    HW277440  10.085  13.433   0.269 -1.1616  0.1959  0.0200
55239SOL     OW77441   8.257   5.823   5.928 -0.3041  0.1528 -0.8325
55239SOL    HW177442   8.328   5.826   5.864 -0.9452  0.0087 -1.5629
55239SOL    HW277443   8.187   5.775   5.884 -1.2013  1.1036 -0.4757
55240SOL     OW77444   7.796  11.667   5.324  0.0390 -0.5741  0.4977
55240SOL    HW177445   7.859  11.656   5.395  0.3764  1.0988  0.4958
55240SOL    HW277446   7.728  11.603   5.342  0.8766 -1.2234  1.4676
55241SOL     OW77447   0.719  10.059   7.008 -0.0811  0.1392 -0.3419
55241SOL    HW177448   0.746  10.107   7.087  0.1405 -1.4583  0.6104
55241SOL    HW277449   0.635  10.097   6.984 -0.7717 -0.1616  1.4322
55242SOL     OW77450   0.252   0.599   3.602  0.2756  0.0882  0.7553
55242SOL    HW177451   0.178   0.584   3.543  0.0494  2.1228  0.4698
55242SOL    HW277452   0.213   0.596   3.690  0.0622  0.0335  0.6601
55243SOL     OW77453  12.701   5.126   2.936 -0.3662  0.0703  0.2004
55243SOL    HW177454  12.656   5.050   2.972 -0.5267  0.1587  0.1900
55243SOL    HW277455  12.747   5.093   2.860 -0.4129 -0.0229  0.2124
55244SOL     OW77456  10.687   7.947  10.619 -0.5361  0.7828 -0.0277
55244SOL    HW177457  10.735   7.900  10.551 -2.5560 -0.4821 -0.6568
55244SOL    HW277458  10.729   7.921  10.701 -2.0480 -2.8945 -0.2497
55245SOL     OW77459   9.354  12.088   6.992 -0.8768  0.2545  0.3779
55245SOL    HW177460   9.327  12.117   6.905  0.3761 -0.6921 -0.3617
55245SOL    HW277461   9.356  12.169   7.044  4.0973  2.1372 -2.0241
55246SOL     OW77462   5.645   2.266  10.369 -0.5212 -0.1743  0.9658
55246SOL    HW177463   5.555   2.282  10.397 -0.5028  0.7163  0.5427
55246SOL    HW277464   5.693   2.252  10.450 -0.6692  1.3144  1.3358
55247SOL     OW77465  12.914   2.427   5.528 -0.3427  0.1118  0.3050
55247SOL    HW177466  13.006   2.437   5.503 -0.6755 -0.0571 -1.0512
55247SOL    HW277467  12.874   2.382   5.454 -1.7554  1.1560  0.4017
55248SOL     OW77468   9.795   1.113   4.642  0.4077  0.1842 -0.2214
55248SOL    HW177469   9.771   1.202   4.618  0.9472 -0.2521 -2.6273
55248SOL    HW277470   9.884   1.102   4.609 -0.3795 -1.8722 -1.8815
55249SOL     OW77471   5.539  10.096  11.551 -0.4904  0.0280  0.1546
55249SOL    HW177472   5.546  10.130  11.641  2.1941 -1.3885  0.5910
55249SOL    HW277473   5.560  10.170  11.495  0.9207  0.2075  0.8815
55250SOL     OW77474   3.545   0.020   8.200  0.4950  0.0240  0.5559
55250SOL    HW177475   3.604   0.096   8.203  0.0839  0.4451 -1.0271
55250SOL    HW277476   3.506   0.023   8.113 -0.3667 -1.3987  0.8523
55251SOL     OW77477  13.575   3.086  12.161 -0.0028  0.2864  0.4528
55251SOL    HW177478  13.534   3.112  12.244 -0.1314 -0.5501  0.6623
55251SOL    HW277479  13.502   3.086  12.098  0.4718  3.0911 -0.2075
55252SOL     OW77480   4.734  11.310   6.253  0.0794 -0.2605 -0.1133
55252SOL    HW177481   4.783  11.289   6.174 -0.3617  0.2852 -0.5446
55252SOL    HW277482   4.741  11.232   6.308  0.7672 -0.4711 -0.5000
55253SOL     OW77483   5.720   0.522  10.103  0.6566  0.1228 -0.2156
55253SOL    HW177484   5.741   0.578  10.029  0.7482 -1.7393 -1.6690
55253SOL    HW277485   5.784   0.545  10.170  2.8419 -0.4882 -1.9781
55254SOL     OW77486   4.019  12.020  10.876 -0.0758  0.0463  0.2729
55254SOL    HW177487   4.059  11.989  10.795 -0.4779  0.6409 -0.1579
55254SOL    HW277488   4.080  11.992  10.945  1.1319  1.0180 -0.3685
55255SOL     OW77489   0.381   9.163   5.770 -0.5635  0.0631  0.2729
55255SOL    HW177490   0.365   9.242   5.719 -0.3944 -0.4709 -0.6228
55255SOL    HW277491   0.468   9.177   5.808 -0.4828  0.2553  0.0228
55256SOL     OW77492   2.401   6.704  11.796  0.1932  0.3088 -0.0726
55256SOL    HW177493   2.457   6.635  11.761 -2.3775 -1.3259 -1.3355
55256SOL    HW277494   2.324   6.703  11.738 -1.2686  2.2086  1.6859
55257SOL     OW77495   8.659   3.749  12.708  0.1128  0.2283 -0.1819
55257SOL    HW177496   8.687   3.833  12.671  0.7750 -0.0830 -0.4099
55257SOL    HW277497   8.738   3.714  12.749 -0.3361  0.0426  0.5505
55258SOL     OW77498   1.289   8.937   5.967 -0.3614 -0.1736  0.1460
55258SOL    HW177499   1.357   8.876   5.998  0.8489  1.1745  0.2683
55258SOL    HW277500   1.328   9.024   5.979 -1.4099  0.5696 -1.4865
55259SOL     OW77501  10.738   7.916   9.316  0.3860 -0.0267  0.4978
55259SOL    HW177502  10.687   7.952   9.388 -1.0066  0.8181 -0.8350
55259SOL    HW277503  10.823   7.959   9.322  0.0807  0.4845  1.2956
55260SOL     OW77504   2.183  12.428   3.294 -0.5370  0.3179  0.1450
55260SOL    HW177505   2.187  12.399   3.203 -1.4346 -0.5052  0.3522
55260SOL    HW277506   2.125  12.366   3.337  0.8180 -0.0377  1.5733
55261SOL     OW77507   6.207   7.594  11.548  0.8537 -0.0671  0.4347
55261SOL    HW177508   6.165   7.643  11.477  1.5392 -1.1561 -0.7728
55261SOL    HW277509   6.271   7.656  11.585 -0.3179  0.9016  0.9207
55262SOL     OW77510   3.325  10.447  13.308 -0.1350 -0.2695  0.3842
55262SOL    HW177511   3.283  10.525  13.272  1.4693  0.6021  0.3065
55262SOL    HW277512   3.322  10.460  13.403 -0.0363 -0.1906  0.3776
55263SOL     OW77513   1.749  10.733   6.885  0.7146 -0.4716 -0.1935
55263SOL    HW177514   1.729  10.791   6.812  2.1851  2.5447  1.5573
55263SOL    HW277515   1.842  10.713   6.875  0.8918 -0.1605  0.7318
55264SOL     OW77516  12.209   5.000   3.921  0.7109  0.0273 -0.1077
55264SOL    HW177517  12.267   4.934   3.885 -0.7168 -1.6788  0.5608
55264SOL    HW277518  12.124   4.983   3.880 -0.7316 -1.3573  3.0747
55265SOL     OW77519  12.815  10.356   5.650 -0.2378  0.0914 -0.1532
55265SOL    HW177520  12.859  10.277   5.681  0.5985  0.6141  0.0210
55265SOL    HW277521  12.727  10.327   5.625  0.1269 -0.9203 -0.2708
55266SOL     OW77522   5.312  11.540   8.404 -0.4311 -0.4069  0.4554
55266SOL    HW177523   5.361  11.544   8.485  0.2173 -2.8854  0.2662
55266SOL    HW277524   5.286  11.448   8.396  0.3070 -0.4635 -2.5588
55267SOL     OW77525   9.876   6.076   6.891 -0.5375  0.3480  0.2292
55267SOL    HW177526   9.913   6.128   6.963 -1.2538 -0.2290  1.0426
55267SOL    HW277527   9.946   6.016   6.867 -0.0151  1.0712 -0.1124
55268SOL     OW77528  12.138  10.396   3.244  0.1157  0.4392 -0.0215
55268SOL    HW177529  12.043  10.384   3.239 -0.1552  1.3978  1.8395
55268SOL    HW277530  12.172  10.310   3.268 -0.3869  0.3365  0.3353
55269SOL     OW77531   6.041   7.234   1.927 -0.5818  0.0856 -0.4260
55269SOL    HW177532   5.947   7.217   1.936 -0.4152 -0.9883 -0.5866
55269SOL    HW277533   6.081   7.147   1.924  0.5764  0.5111  1.2981
55270SOL     OW77534   5.924  10.014   9.144  0.0954  0.2468 -0.2192
55270SOL    HW177535   5.900  10.102   9.117 -1.5486 -0.3532 -0.8556
55270SOL    HW277536   5.947  10.022   9.237  1.1381  1.5142 -0.5598
55271SOL     OW77537   9.738   3.097   9.800 -0.1175  0.2953 -0.2532
55271SOL    HW177538   9.806   3.160   9.822  0.8761 -0.9857  0.4930
55271SOL    HW277539   9.659   3.150   9.787  0.8830  1.7519 -0.5576
55272SOL     OW77540  10.640   1.287   4.525  0.0292  0.0244  0.0671
55272SOL    HW177541  10.568   1.289   4.588  0.6554 -0.3509  0.8188
55272SOL    HW277542  10.664   1.379   4.513  0.5782  0.0536  1.1971
55273SOL     OW77543   7.429   2.907   7.381 -0.1593  0.2078  0.1456
55273SOL    HW177544   7.427   2.856   7.462 -1.2341  2.0848  1.3975
55273SOL    HW277545   7.516   2.948   7.380  0.5387 -1.2136 -0.6376
55274SOL     OW77546   5.116   5.875   8.560  0.0361 -0.3554  0.0899
55274SOL    HW177547   5.197   5.835   8.592  1.0760  0.4634 -1.4123
55274SOL    HW277548   5.103   5.952   8.616  1.0180  0.2332 -0.4667
55275SOL     OW77549   7.355   3.437  10.684 -0.2568 -0.3321  0.1679
55275SOL    HW177550   7.269   3.395  10.679 -0.9344  1.0744 -0.4641
55275SOL    HW277551   7.346   3.502  10.754  0.9265 -1.5096  1.4672
55276SOL     OW77552  11.467  12.632   4.939 -0.2669  0.2159 -0.1739
55276SOL    HW177553  11.489  12.568   4.871 -1.9096 -0.9166  0.2740
55276SOL    HW277554  11.476  12.583   5.021  0.1599  1.0939  0.3113
55277SOL     OW77555  11.210   9.993   9.730  0.1350  0.0116 -0.0409
55277SOL    HW177556  11.305  10.005   9.735 -0.0015  0.6473  1.2568
55277SOL    HW277557  11.184   9.971   9.819 -0.9882  0.1804 -0.3169
55278SOL     OW77558  10.086   6.644  12.885  0.4595  0.4277 -0.1631
55278SOL    HW177559  10.162   6.648  12.827 -0.8711  0.6445 -2.0112
55278SOL    HW277560  10.020   6.699  12.841 -1.9704 -2.5588 -0.5872
55279SOL     OW77561   7.390   3.559   9.139  0.0473 -0.1361  0.9769
55279SOL    HW177562   7.451   3.521   9.202 -0.2054  0.0880  1.3645
55279SOL    HW277563   7.333   3.615   9.192 -0.0739  0.1747  0.5263
55280SOL     OW77564   5.362  11.349   3.205  0.3256 -0.1288 -0.2508
55280SOL    HW177565   5.407  11.416   3.154  1.1814 -0.8012 -0.4031
55280SOL    HW277566   5.296  11.397   3.255  0.7054  0.7765 -0.5960
55281SOL     OW77567   6.797   7.920   9.762 -0.4038 -0.4547  0.5072
55281SOL    HW177568   6.778   7.857   9.692 -0.1507 -1.6270  1.4537
55281SOL    HW277569   6.711   7.938   9.802 -0.4878 -0.1180  0.1834
55282SOL     OW77570   8.090   7.890  13.536 -0.2963  0.6573  0.3025
55282SOL    HW177571   7.996   7.890  13.518  0.1394 -0.8696 -2.5590
55282SOL    HW277572   8.121   7.974  13.502 -0.4993  0.7475  0.3415
55283SOL     OW77573   1.870   3.788  12.812  0.2283 -0.3563  0.1192
55283SOL    HW177574   1.843   3.874  12.843 -1.0552 -1.1177  1.2132
55283SOL    HW277575   1.815   3.770  12.736 -0.6018 -0.8325  0.8144
55284SOL     OW77576   4.497   2.834   8.501  0.5808 -0.0587 -0.1831
55284SOL    HW177577   4.538   2.909   8.457  0.4758  0.0578 -0.0820
55284SOL    HW277578   4.429   2.873   8.556 -0.1409 -0.3137 -0.8901
55285SOL     OW77579  11.597   0.818   0.350 -0.3404 -0.3587  0.0027
55285SOL    HW177580  11.684   0.857   0.343 -0.5296  0.1382  0.3587
55285SOL    HW277581  11.537   0.893   0.355 -0.7025 -0.6836  0.7603
55286SOL     OW77582   6.649   3.959   7.969 -0.3290 -0.2365 -0.3563
55286SOL    HW177583   6.708   3.890   7.939  0.9910  0.5676  0.2690
55286SOL    HW277584   6.689   4.040   7.937 -1.6774  0.2870 -0.8082
55287SOL     OW77585   4.429  13.247  11.710  0.0893 -0.3013  0.0948
55287SOL    HW177586   4.519  13.216  11.704 -0.2870 -1.2239 -1.4178
55287SOL    HW277587   4.381  13.192  11.648 -1.3534  0.7492  0.2312
55288SOL     OW77588  13.421   7.149   0.313 -1.0290 -0.5475  0.4521
55288SOL    HW177589  13.394   7.060   0.334 -0.8634 -0.4654  1.0366
55288SOL    HW277590  13.516   7.149   0.326 -0.9323 -0.4714 -0.2417
55289SOL     OW77591  11.076   9.023   0.088  0.2012 -0.0545 -0.4123
55289SOL    HW177592  11.094   8.959   0.157 -1.6692  0.6605  0.8212
55289SOL    HW277593  11.149   9.015   0.028  1.1463 -1.7623  0.8881
55290SOL     OW77594  10.712   2.387  10.108 -0.0370 -0.5538  0.4365
55290SOL    HW177595  10.625   2.421  10.086  0.0030 -1.4879 -1.2817
55290SOL    HW277596  10.759   2.463  10.143 -1.5103 -0.0206  1.3877
55291SOL     OW77597   4.718  12.646   8.705 -0.0616 -0.4045 -0.0170
55291SOL    HW177598   4.804  12.667   8.670  0.3624  0.2006  1.3056
55291SOL    HW277599   4.661  12.638   8.628  0.6164  1.7711 -0.8196
55292SOL     OW77600   6.808   2.175   9.810  0.0295 -0.3245  0.0408
55292SOL    HW177601   6.895   2.136   9.798  1.1297  2.4138 -1.7938
55292SOL    HW277602   6.766   2.165   9.725  0.0942  1.7419 -0.2760
55293SOL     OW77603   2.523   0.565   0.296 -0.6764  0.1867  0.4694
55293SOL    HW177604   2.430   0.585   0.281 -1.0855 -2.3317 -0.8698
55293SOL    HW277605   2.524   0.519   0.380 -0.5550  0.6544  0.7272
55294SOL     OW77606  11.895   0.401  13.468  0.4863 -0.1713  0.2833
55294SOL    HW177607  11.867   0.313  13.495 -0.6373  0.5612  1.6413
55294SOL    HW277608  11.871   0.458  13.542  1.0299  1.3112 -0.6344
55295SOL     OW77609   0.323  10.557   8.856 -0.2333 -0.2128  0.6275
55295SOL    HW177610   0.309  10.603   8.939 -0.6469 -0.7441  0.8615
55295SOL    HW277611   0.418  10.551   8.847 -0.1757  0.8173  0.5169
55296SOL     OW77612   3.757   0.704   8.083 -0.2688 -0.5515  0.4609
55296SOL    HW177613   3.701   0.658   8.021 -0.0619  0.8777 -0.8532
55296SOL    HW277614   3.843   0.706   8.040  0.1058 -0.3376  1.2059
55297SOL     OW77615   8.129  12.798  12.646 -0.2262 -0.2676 -0.2008
55297SOL    HW177616   8.168  12.780  12.732  0.9676  0.6568 -0.5191
55297SOL    HW277617   8.193  12.763  12.583 -0.2946  0.5410 -0.7363
55298SOL     OW77618  10.623  10.599   0.959  0.0583 -0.6975 -0.5936
55298SOL    HW177619  10.553  10.548   0.920 -0.4225 -0.1718 -0.4343
55298SOL    HW277620  10.697  10.538   0.965 -0.5980 -1.4630 -0.0938
55299SOL     OW77621   4.904  10.775   2.140 -0.1470 -0.3432 -0.6027
55299SOL    HW177622   4.863  10.861   2.151 -1.9683 -1.3732  1.2157
55299SOL    HW277623   4.865  10.739   2.061 -0.3986 -0.0564 -0.6086
55300SOL     OW77624  13.142   1.231   1.682 -0.4532  0.5744 -0.2208
55300SOL    HW177625  13.149   1.174   1.759 -0.1753  1.5087  0.4679
55300SOL    HW277626  13.214   1.204   1.625 -0.8949 -0.3920 -0.3543
55301SOL     OW77627   9.189   5.504   8.370 -0.2844  0.1778 -0.2332
55301SOL    HW177628   9.139   5.481   8.448 -2.2914  0.9088 -1.2229
55301SOL    HW277629   9.206   5.597   8.379 -1.4534  0.5061 -1.0998
55302SOL     OW77630   0.226  10.320   5.998  0.6404 -0.1094 -0.4110
55302SOL    HW177631   0.223  10.412   5.972 -1.0509 -1.0801 -4.3523
55302SOL    HW277632   0.312  10.289   5.968  1.0608  0.0243  0.5909
55303SOL     OW77633   0.716   4.347   7.025 -0.3038 -0.1951  0.2207
55303SOL    HW177634   0.733   4.405   6.951 -1.0173 -0.2418  0.0135
55303SOL    HW277635   0.679   4.403   7.093 -1.9319 -0.5586 -0.3368
55304SOL     OW77636  11.909   0.047   7.272  0.4619 -0.4297  0.5564
55304SOL    HW177637  11.914   0.065   7.179  3.4481  0.3299  0.7396
55304SOL    HW277638  11.831   0.094   7.302  0.2876  0.5630 -1.2988
55305SOL     OW77639   7.253   4.156   6.767 -0.4275 -1.0028  0.5132
55305SOL    HW177640   7.310   4.166   6.691  0.6213  2.1673  1.5579
55305SOL    HW277641   7.310   4.173   6.842 -2.2764  0.3065  1.7144
55306SOL     OW77642   2.751  12.436  12.955 -0.3165  0.0454  0.6529
55306SOL    HW177643   2.708  12.520  12.938 -0.8396 -0.0350  1.5183
55306SOL    HW277644   2.733  12.419  13.047 -0.5739 -1.2201  0.3807
55307SOL     OW77645   7.946   7.086  12.874  0.2067 -0.5139 -0.2249
55307SOL    HW177646   8.001   7.064  12.949  0.4559 -1.0421 -0.5575
55307SOL    HW277647   8.007   7.117  12.807 -0.0002 -0.1737 -0.2573
55308SOL     OW77648   4.859   1.361   7.893  0.0299 -0.7511  0.6497
55308SOL    HW177649   4.782   1.417   7.886 -1.0709 -2.3253 -0.6202
55308SOL    HW277650   4.825   1.277   7.925  1.2699 -1.3345  0.4892
55309SOL     OW77651  10.922   7.389   8.500 -0.3983 -0.0698  0.3773
55309SOL    HW177652  10.969   7.408   8.419 -0.7682 -1.1180 -0.0925
55309SOL    HW277653  10.830   7.382   8.475 -0.4727 -0.7912  0.8015
55310SOL     OW77654   3.319   4.441  11.494  0.8234 -0.1827 -0.0396
55310SOL    HW177655   3.302   4.517  11.549  1.5233 -0.6569  0.8595
55310SOL    HW277656   3.367   4.381  11.550  0.0782 -1.4013 -0.6552
55311SOL     OW77657  12.680   5.788   5.287  0.7918 -0.0802 -0.3605
55311SOL    HW177658  12.722   5.703   5.287  1.9425  0.4608  0.3126
55311SOL    HW277659  12.654   5.802   5.379  1.8038  0.8319 -0.1875
55312SOL     OW77660   9.006   6.938   1.113  0.7069  0.2168  0.8827
55312SOL    HW177661   8.910   6.939   1.121  0.5627  0.6565 -0.7120
55312SOL    HW277662   9.025   6.866   1.054  1.4144 -0.2032  1.6069
55313SOL     OW77663  10.624  12.106   2.516  0.7107  0.2116 -0.0725
55313SOL    HW177664  10.668  12.184   2.482 -0.0995  0.5742 -0.3327
55313SOL    HW277665  10.545  12.099   2.463  0.4164 -0.3773  0.4311
55314SOL     OW77666   9.847   3.410   8.725 -0.0693 -0.4157 -0.2438
55314SOL    HW177667   9.854   3.453   8.810  3.1518  0.0721 -0.6466
55314SOL    HW277668   9.793   3.469   8.672 -0.0137  0.5269  0.7288
55315SOL     OW77669   6.164   3.090  12.387  0.0346  0.4309  0.5345
55315SOL    HW177670   6.200   3.049  12.466 -1.6119 -0.0710  1.0614
55315SOL    HW277671   6.085   3.135  12.416  0.9450  2.7615 -0.3241
55316SOL     OW77672   4.279   5.231   9.695 -0.0368 -0.3099 -0.4059
55316SOL    HW177673   4.188   5.212   9.717  0.4455 -2.1978  0.0958
55316SOL    HW277674   4.294   5.184   9.613 -0.1006  1.7948 -1.7006
55317SOL     OW77675   8.504   7.513   0.525  0.3091  0.3804 -0.4971
55317SOL    HW177676   8.468   7.429   0.553 -0.1087  0.3722 -1.0261
55317SOL    HW277677   8.576   7.490   0.467 -2.7265  0.1692 -4.6783
55318SOL     OW77678   3.702   9.211   7.201 -0.1790  0.1496  0.2190
55318SOL    HW177679   3.666   9.296   7.174  0.1695  0.3201  0.2883
55318SOL    HW277680   3.725   9.168   7.118 -0.7305 -0.0451  0.1645
55319SOL     OW77681  11.956   5.531   1.069  0.4899 -0.5715 -0.5235
55319SOL    HW177682  11.972   5.550   0.976  0.2818 -0.4499 -0.5347
55319SOL    HW277683  12.037   5.490   1.099  1.3021  1.1507 -0.2628
55320SOL     OW77684   0.062   6.415   0.711  0.0727 -0.0278 -0.5049
55320SOL    HW177685   0.023   6.335   0.746  0.6042 -0.5126 -1.0102
55320SOL    HW277686   0.080   6.468   0.789 -2.5318  0.7035 -0.2852
55321SOL     OW77687   7.053   7.121   3.925 -0.3366 -0.4525 -0.2169
55321SOL    HW177688   7.086   7.207   3.900 -2.3395  0.6376  0.6226
55321SOL    HW277689   6.992   7.097   3.855  1.9948 -2.4148 -1.7285
55322SOL     OW77690   7.151   3.750   8.967  0.0348 -0.5423 -0.3480
55322SOL    HW177691   7.105   3.710   9.040  1.1254  0.4455  0.9294
55322SOL    HW277692   7.085   3.801   8.921 -0.6486 -1.1307 -0.0360
55323SOL     OW77693   0.176   5.761   8.738  0.1728 -0.1403 -0.0033
55323SOL    HW177694   0.117   5.831   8.768 -1.9282 -1.4087 -0.9622
55323SOL    HW277695   0.248   5.763   8.801  0.7284  3.4795 -0.4948
55324SOL     OW77696  10.052   7.463  11.588  0.2422  1.0016  0.2620
55324SOL    HW177697  10.096   7.438  11.669  1.9685  1.3564 -0.5318
55324SOL    HW277698  10.120   7.461  11.521 -1.3786 -0.5181 -1.4712
55325SOL     OW77699   6.527  12.866   1.191  0.6196 -0.2550 -0.3508
55325SOL    HW177700   6.501  12.811   1.117  0.1369  0.3719 -0.6609
55325SOL    HW277701   6.602  12.916   1.158  0.5118 -0.0990 -0.3605
55326SOL     OW77702  13.272  13.183   6.283 -0.3386 -0.2319  0.3525
55326SOL    HW177703  13.287  13.149   6.195 -2.7326  1.8865 -1.0273
55326SOL    HW277704  13.243  13.107   6.333 -0.0739 -1.2716 -0.9971
55327SOL     OW77705   4.417   2.022   1.077  0.4358 -0.1639  0.3442
55327SOL    HW177706   4.499   1.983   1.106 -0.1177  0.6650  3.4352
55327SOL    HW277707   4.351   1.986   1.136 -1.1066  0.7254 -0.7523
55328SOL     OW77708   5.127  13.567  12.106 -0.2127  0.1239  0.2354
55328SOL    HW177709   5.147  13.644  12.053 -0.6831 -0.3863 -0.6991
55328SOL    HW277710   5.176  13.496  12.064 -0.6780 -0.3078  0.4171
55329SOL     OW77711   8.073   2.277   8.205  0.4891  0.8051  0.1986
55329SOL    HW177712   8.120   2.215   8.261 -0.1094  0.4016  0.2642
55329SOL    HW277713   8.142   2.331   8.165  1.1569 -1.0228 -1.2302
55330SOL     OW77714   4.145  13.260  10.011  0.1503  0.7142  0.2554
55330SOL    HW177715   4.233  13.250  10.047  0.2209 -2.0134 -0.5107
55330SOL    HW277716   4.153  13.332   9.948  2.8769 -1.8485 -2.6511
55331SOL     OW77717   6.875   1.751   2.616 -0.1803  0.1687 -0.0065
55331SOL    HW177718   6.858   1.658   2.631  1.8084 -0.1469  0.5767
55331SOL    HW277719   6.842   1.795   2.694  0.5955 -0.2707  0.5705
55332SOL     OW77720   7.700  13.024   5.272 -0.2365 -0.0771 -0.2106
55332SOL    HW177721   7.723  12.943   5.317  0.8817 -1.7636 -3.4790
55332SOL    HW277722   7.605  13.028   5.275 -0.2531 -0.8919  0.9574
55333SOL     OW77723   4.238  13.002   3.059  0.0655 -0.0425 -0.4204
55333SOL    HW177724   4.194  13.012   2.975 -2.8626 -0.8022  0.8989
55333SOL    HW277725   4.240  12.907   3.074 -1.3582  0.1369  1.2228
55334SOL     OW77726   9.922   0.205   8.007 -0.3824  0.0457  0.2605
55334SOL    HW177727   9.979   0.161   8.071  0.0061  1.3317  0.8397
55334SOL    HW277728   9.910   0.293   8.043  1.5019  1.5130 -2.3789
55335SOL     OW77729   7.989   9.266   3.094  0.1120 -0.7299  0.2727
55335SOL    HW177730   7.976   9.315   3.175  1.8219 -1.5947  1.1412
55335SOL    HW277731   8.061   9.311   3.050  0.6508 -1.5266  0.3157
55336SOL     OW77732  10.449   0.188   1.843 -0.6235  0.6712 -0.1239
55336SOL    HW177733  10.452   0.214   1.935  0.5688  1.2459 -0.3158
55336SOL    HW277734  10.360   0.153   1.832 -1.5144  2.5376  0.7125
55337SOL     OW77735   1.139   6.708  11.111 -0.3540 -0.1198  0.0543
55337SOL    HW177736   1.224   6.750  11.096 -1.3500  1.2067 -2.6086
55337SOL    HW277737   1.130   6.704  11.206  1.7070  1.8156  0.4088
55338SOL     OW77738   3.333  10.607   8.577  0.0335 -0.0494 -0.3495
55338SOL    HW177739   3.338  10.552   8.499 -1.2667  1.1394 -1.3319
55338SOL    HW277740   3.244  10.593   8.610  0.7748 -1.0608  1.3675
55339SOL     OW77741  12.974  12.448   0.181 -0.7366 -0.4972  0.6253
55339SOL    HW177742  12.984  12.359   0.147  0.8106 -0.4189  0.8130
55339SOL    HW277743  12.938  12.436   0.269  0.2433 -1.0061  0.9726
55340SOL     OW77744  10.116  13.336   7.617  0.1996 -0.3872 -0.2598
55340SOL    HW177745  10.094  13.402   7.551  1.0524 -2.7591 -3.1797
55340SOL    HW277746  10.212  13.336   7.620  0.2183 -1.4280 -0.3370
55341SOL     OW77747   0.393   3.333  10.157  0.0175  0.1134 -0.2263
55341SOL    HW177748   0.353   3.309  10.074 -2.1968 -0.7067  1.0069
55341SOL    HW277749   0.346   3.412  10.184 -0.5884 -0.6470  1.0637
55342SOL     OW77750   7.576   8.112  12.272 -0.2242 -0.0949 -0.0937
55342SOL    HW177751   7.579   8.170  12.349 -1.9453  0.8399 -0.6692
55342SOL    HW277752   7.558   8.171  12.199 -0.8691 -1.2334 -0.8796
55343SOL     OW77753   7.600  11.535  13.065 -0.0966  0.5745 -0.1956
55343SOL    HW177754   7.625  11.609  13.010  1.6802  0.2780  0.1242
55343SOL    HW277755   7.554  11.475  13.007  1.8676  0.1998 -1.4431
55344SOL     OW77756  11.083   5.855   9.150 -0.0400 -0.3391  0.1905
55344SOL    HW177757  11.074   5.934   9.204 -1.9214 -1.0874  1.0570
55344SOL    HW277758  11.068   5.783   9.210  0.4882 -1.3239 -0.8283
55345SOL     OW77759   1.428   0.588   5.621 -0.1586 -0.1641 -0.2645
55345SOL    HW177760   1.346   0.632   5.642 -1.0210 -0.9109 -1.9150
55345SOL    HW277761   1.496   0.654   5.637 -0.8884  0.0523  2.4239
55346SOL     OW77762   2.702   3.802   3.949 -0.2471  0.8845  0.0344
55346SOL    HW177763   2.746   3.885   3.969 -1.0576  1.0415  1.2390
55346SOL    HW277764   2.771   3.737   3.955  0.3573  1.4306 -0.7088
55347SOL     OW77765   3.483  10.662   5.716  0.6371  0.1737 -0.5429
55347SOL    HW177766   3.455  10.752   5.735 -0.1424 -0.0673 -0.5225
55347SOL    HW277767   3.480  10.618   5.801 -0.5282 -0.2774 -0.7928
55348SOL     OW77768   6.058   8.829   3.169 -0.1275 -0.4915  0.2607
55348SOL    HW177769   6.148   8.798   3.159 -0.1756 -0.5603  0.0393
55348SOL    HW277770   6.034   8.862   3.082 -0.2676 -0.3439  0.3546
55349SOL     OW77771  13.641   5.862   7.638  0.2774 -0.0251  0.1708
55349SOL    HW177772  13.637   5.859   7.734 -2.6105 -2.7470  0.1112
55349SOL    HW277773  13.730   5.833   7.617 -0.0081 -2.6521  2.0756
55350SOL     OW77774   4.889  13.487   7.741 -0.4812  0.7293 -0.3741
55350SOL    HW177775   4.812  13.535   7.710  0.7061  3.7185  0.9421
55350SOL    HW277776   4.897  13.513   7.833  1.4114 -0.4788 -0.1493
55351SOL     OW77777   3.399   0.475   3.913 -0.1368 -0.1687 -0.2418
55351SOL    HW177778   3.348   0.555   3.913  2.2470  1.4519 -1.1026
55351SOL    HW277779   3.490   0.504   3.911  0.8376 -2.9039 -0.2856
55352SOL     OW77780  13.178   5.673   1.411 -0.0217 -0.4687 -0.0787
55352SOL    HW177781  13.255   5.728   1.394 -0.4941  0.5092  0.8354
55352SOL    HW277782  13.104   5.729   1.391 -0.5189 -0.6613  1.1579
55353SOL     OW77783   9.124   9.374   8.944  0.0973  0.3085 -0.0592
55353SOL    HW177784   9.051   9.318   8.972 -0.5975  1.0633 -0.3026
55353SOL    HW277785   9.199   9.316   8.942 -0.2098 -0.2140  1.5004
55354SOL     OW77786   2.530   5.804   4.827  0.1109  0.0926 -0.0674
55354SOL    HW177787   2.480   5.755   4.892  0.0149  0.6748  0.3016
55354SOL    HW277788   2.540   5.743   4.754  0.5556 -0.7008  0.6410
55355SOL     OW77789   7.314   2.420   8.208  0.5461 -0.0147  0.2447
55355SOL    HW177790   7.402   2.442   8.180  0.7651  0.4688  1.2795
55355SOL    HW277791   7.267   2.401   8.127  1.3636  0.5875 -0.3795
55356SOL     OW77792   8.261  13.039  12.856  0.1231 -0.0437  0.1729
55356SOL    HW177793   8.272  13.037  12.951 -1.0291 -2.2778  0.3154
55356SOL    HW277794   8.343  13.004  12.821  0.7770  1.3244  0.2850
55357SOL     OW77795   7.360   7.948   4.649  0.3114  0.4639  0.2297
55357SOL    HW177796   7.275   7.919   4.616  1.6239 -1.0653 -2.1360
55357SOL    HW277797   7.372   8.035   4.612 -0.8634  1.4062  1.9440
55358SOL     OW77798   2.097   4.724   2.545 -0.5609 -0.6466 -0.2019
55358SOL    HW177799   2.037   4.682   2.483 -0.5235  0.5435 -1.0669
55358SOL    HW277800   2.181   4.680   2.531 -0.9503 -1.5460  0.2213
55359SOL     OW77801  10.597   7.515   6.257 -0.0344  0.0783 -0.9005
55359SOL    HW177802  10.508   7.488   6.279  0.0703  0.2437 -0.2435
55359SOL    HW277803  10.639   7.528   6.342  0.4972  0.3906 -1.2094
55360SOL     OW77804  13.667   7.044   6.812  0.3185 -0.3292  0.3184
55360SOL    HW177805  13.673   7.133   6.846 -1.7392 -0.2536  0.6437
55360SOL    HW277806  13.618   7.053   6.730  2.1155 -0.9254 -0.8685
55361SOL     OW77807   9.915   7.006   7.410  0.2054 -0.3570 -0.9519
55361SOL    HW177808   9.965   6.943   7.357  1.3477  1.9988 -2.9027
55361SOL    HW277809   9.895   7.077   7.348  0.0994  1.7788  1.3896
55362SOL     OW77810   0.994   3.038   4.431 -0.7535  0.3569 -0.0301
55362SOL    HW177811   1.025   3.117   4.475  2.4593 -0.2584 -0.9198
55362SOL    HW277812   0.970   3.067   4.343  0.3118  0.3711 -0.3193
55363SOL     OW77813  12.862   1.382   1.667 -0.3704  0.2552 -0.1483
55363SOL    HW177814  12.820   1.361   1.584 -0.5833  3.0099 -0.8456
55363SOL    HW277815  12.954   1.360   1.653 -0.5142  0.0992 -0.8968
55364SOL     OW77816   0.110  10.196   2.285  0.1207 -0.2430 -0.1989
55364SOL    HW177817   0.184  10.155   2.330  0.5175  0.5460 -0.1051
55364SOL    HW277818   0.061  10.241   2.355 -0.7846 -1.2306 -0.1714
55365SOL     OW77819   9.189   0.765  11.248  0.4451 -0.3588 -0.1017
55365SOL    HW177820   9.171   0.856  11.271 -0.6451 -0.4278 -0.6429
55365SOL    HW277821   9.206   0.722  11.333 -1.6187 -0.1926  0.4527
55366SOL     OW77822  12.275   7.325   3.564  0.2655 -0.4714 -0.1297
55366SOL    HW177823  12.209   7.269   3.605  0.2814 -0.4525 -0.0782
55366SOL    HW277824  12.297   7.389   3.632 -0.5226  0.2516 -0.5378
55367SOL     OW77825   8.169  12.601   4.253 -0.0432  0.1865 -0.3427
55367SOL    HW177826   8.254  12.602   4.209  0.3143 -2.0363  0.1562
55367SOL    HW277827   8.186  12.640   4.339 -0.0253  1.6398 -0.9861
55368SOL     OW77828   9.822   4.213   7.658 -0.3643 -0.0477 -0.1392
55368SOL    HW177829   9.790   4.136   7.704 -0.0385 -0.5804 -0.7748
55368SOL    HW277830   9.758   4.282   7.676  0.0156 -0.0805  1.5138
55369SOL     OW77831   6.923   6.558  11.395  0.6199 -0.5144  0.1508
55369SOL    HW177832   7.017   6.573  11.402  0.4294 -0.1784  2.6383
55369SOL    HW277833   6.907   6.555  11.300  2.7841  1.5335 -0.3824
55370SOL     OW77834   6.208  13.141   6.832 -0.1220 -0.8355  0.6876
55370SOL    HW177835   6.228  13.227   6.795 -1.6489  0.2446  2.2354
55370SOL    HW277836   6.252  13.080   6.773  1.7360  1.0047 -0.0022
55371SOL     OW77837   7.798  12.701   7.767  0.3586 -0.1404  0.4719
55371SOL    HW177838   7.841  12.772   7.815 -0.0370  0.5316 -0.1631
55371SOL    HW277839   7.854  12.686   7.691  0.5610 -0.6780  0.7160
55372SOL     OW77840   9.793   7.472  11.539 -0.5899  0.2367 -0.7708
55372SOL    HW177841   9.887   7.476  11.556 -0.9984  1.8317  1.5888
55372SOL    HW277842   9.775   7.380  11.521  1.4218 -0.0625 -1.5183
55373SOL     OW77843   0.747   0.496   8.991 -0.4308 -0.7418  1.0045
55373SOL    HW177844   0.826   0.532   8.951 -1.5482  1.8632  0.9086
55373SOL    HW277845   0.778   0.458   9.074  0.8083  1.4504  1.6395
55374SOL     OW77846   5.388  13.520   3.979  0.2690 -0.3325 -0.0982
55374SOL    HW177847   5.436  13.592   4.021  0.5912  0.0772 -1.1343
55374SOL    HW277848   5.343  13.476   4.051  0.6885  0.4361  0.6546
55375SOL     OW77849  11.517   9.549   1.889  0.4707  0.1767  0.1257
55375SOL    HW177850  11.455   9.584   1.825  1.4581  0.5963 -0.6336
55375SOL    HW277851  11.541   9.463   1.855  0.6625  0.2159  0.1601
55376SOL     OW77852   1.713   5.359   7.159 -0.7639 -0.0711 -0.4727
55376SOL    HW177853   1.795   5.329   7.199 -1.4968 -2.2775 -0.4999
55376SOL    HW277854   1.740   5.426   7.096  0.7665  0.8276  1.0545
55377SOL     OW77855   7.687   5.147   6.110  0.1553  0.4724  0.1953
55377SOL    HW177856   7.657   5.109   6.027 -0.2699  1.3187 -0.0489
55377SOL    HW277857   7.607   5.157   6.162  0.4159 -0.0148  0.6905
55378SOL     OW77858  11.063   7.325  13.287 -0.2037 -0.7300  0.8501
55378SOL    HW177859  11.068   7.274  13.368  0.8059  0.0162  1.2851
55378SOL    HW277860  11.143   7.377  13.287 -1.5517  1.4498  0.8181
55379SOL     OW77861   8.457   2.403   9.740 -0.2056 -0.0204  0.2822
55379SOL    HW177862   8.455   2.460   9.663  0.4467  0.7032  0.7906
55379SOL    HW277863   8.466   2.463   9.814 -1.1662 -0.6842  0.9594
55380SOL     OW77864   5.228  13.048   8.501  0.2337 -0.0634  0.0267
55380SOL    HW177865   5.288  13.119   8.477 -0.8447  0.2061 -2.0866
55380SOL    HW277866   5.164  13.091   8.559  1.2785 -0.0609  1.2327
55381SOL     OW77867   8.684   3.030   3.573  0.1994  0.1469  0.6883
55381SOL    HW177868   8.712   2.969   3.505  1.1032  0.1449  1.0526
55381SOL    HW277869   8.741   3.011   3.647  0.7369  1.6662  0.6895
55382SOL     OW77870  12.443   9.191   8.475  0.3119 -0.0470  0.1953
55382SOL    HW177871  12.503   9.191   8.401 -0.3533  0.3213 -0.3531
55382SOL    HW277872  12.498   9.212   8.551  0.9687 -0.2939 -0.2039
55383SOL     OW77873   0.541   7.313  10.944  0.6077  0.7968  0.3519
55383SOL    HW177874   0.551   7.337  10.852 -1.9093  1.1164  0.1026
55383SOL    HW277875   0.448   7.295  10.954  0.8724  0.5082  2.7931
55384SOL     OW77876   0.241  13.162   8.297  0.1207  0.1522  0.5555
55384SOL    HW177877   0.163  13.209   8.328 -0.3186  0.4569 -0.9580
55384SOL    HW277878   0.253  13.092   8.361  0.1499  1.6293  2.2693
55385SOL     OW77879   4.619   1.757   0.217 -0.2878  0.5944 -0.0255
55385SOL    HW177880   4.596   1.840   0.260 -1.7834 -0.8328  2.0724
55385SOL    HW277881   4.703   1.733   0.256 -0.8681  0.1060  0.9596
55386SOL     OW77882  10.824   9.567   0.048 -0.1467  0.3731 -0.4791
55386SOL    HW177883  10.789   9.520   0.124  0.6119 -0.6475 -0.7354
55386SOL    HW277884  10.754   9.626   0.021 -0.2144  1.1980  1.3757
55387SOL     OW77885   9.400  12.101   2.118 -0.7055  0.3128  0.3979
55387SOL    HW177886   9.492  12.073   2.117 -0.5890  0.6965  0.3401
55387SOL    HW277887   9.369  12.082   2.029 -0.3422  1.3005  0.0520
55388SOL     OW77888   7.419   0.995   3.704 -0.9521  0.7369 -0.8687
55388SOL    HW177889   7.454   0.951   3.627 -1.8713  1.6077 -1.8144
55388SOL    HW277890   7.328   0.964   3.710 -0.7822  0.3822  0.1071
55389SOL     OW77891  12.953  11.717   6.925 -0.2773  0.1029 -0.4728
55389SOL    HW177892  13.030  11.740   6.976 -1.0481  0.5054  0.5471
55389SOL    HW277893  12.884  11.775   6.957 -1.0967 -0.4853 -1.1070
55390SOL     OW77894   9.514   0.305   4.539 -0.3217  0.4161  0.5767
55390SOL    HW177895   9.598   0.263   4.555  0.8390  1.4750 -2.0875
55390SOL    HW277896   9.511   0.377   4.602  0.3380 -0.1807  1.3060
55391SOL     OW77897  10.577   8.672   5.470 -0.3609 -0.1189  0.3365
55391SOL    HW177898  10.490   8.662   5.508 -0.1214  1.6429  1.4639
55391SOL    HW277899  10.560   8.700   5.380 -1.0230  1.3370  0.8683
55392SOL     OW77900   8.254  11.439   0.379 -0.0916 -0.7338  0.1121
55392SOL    HW177901   8.270  11.422   0.472  1.3033  0.1374  0.0615
55392SOL    HW277902   8.165  11.473   0.375 -0.1063 -0.6360  1.1447
55393SOL     OW77903   9.790  11.566   9.063  0.0722  0.1226  0.3899
55393SOL    HW177904   9.854  11.635   9.082  0.6603 -0.2350 -0.2294
55393SOL    HW277905   9.841  11.498   9.019 -0.3968 -0.9168  1.3884
55394SOL     OW77906  11.718   6.343   5.741  0.8160  0.5923 -0.0973
55394SOL    HW177907  11.700   6.278   5.809  0.5291  0.4471 -0.3076
55394SOL    HW277908  11.762   6.415   5.787  0.0599  0.7760  0.3716
55395SOL     OW77909  13.625   2.486   5.268  0.1980  0.3416  0.1886
55395SOL    HW177910  13.607   2.503   5.361  1.2383  0.2149  0.4174
55395SOL    HW277911  13.666   2.567   5.237 -1.6174  1.0336 -0.5994
55396SOL     OW77912   1.091   9.218   1.149 -0.3367 -0.6650 -0.1613
55396SOL    HW177913   0.997   9.199   1.143 -0.3378 -0.5960 -0.3772
55396SOL    HW277914   1.119   9.174   1.230 -0.8010  0.3577  0.5738
55397SOL     OW77915  11.094   5.816   7.588 -0.1008  0.4330  0.2826
55397SOL    HW177916  11.153   5.881   7.551 -0.8676  1.1644  0.3099
55397SOL    HW277917  11.115   5.735   7.543  0.7383  0.7395  0.1092
55398SOL     OW77918   1.733   8.172   6.894  0.1273 -0.0808  0.4587
55398SOL    HW177919   1.729   8.117   6.816  0.6729 -0.9174  0.9939
55398SOL    HW277920   1.727   8.109   6.967  0.6750  0.5817  1.0892
55399SOL     OW77921   0.879   5.581  11.392 -0.2979  0.6378 -0.0295
55399SOL    HW177922   0.837   5.496  11.398  0.4012  0.0974 -1.9515
55399SOL    HW277923   0.941   5.583  11.465 -1.8054  0.4303  1.3147
55400SOL     OW77924   1.806   2.786   9.825 -0.4199  0.3667  0.2840
55400SOL    HW177925   1.735   2.750   9.877 -0.7561  0.4260 -0.1266
55400SOL    HW277926   1.834   2.864   9.873 -1.7823  1.3226 -0.4048
55401SOL     OW77927   6.968  11.846  13.729 -0.0542  0.2713  0.1756
55401SOL    HW177928   6.951  11.754  13.712 -0.9195  0.2722  0.9896
55401SOL    HW277929   7.051  11.847  13.777  1.0986  0.0972 -1.7202
55402SOL     OW77930   9.690   8.518   1.650  0.0220  0.9096  0.1345
55402SOL    HW177931   9.729   8.444   1.697 -2.4363 -1.3419 -1.0430
55402SOL    HW277932   9.682   8.487   1.560 -0.8412  2.7352 -0.4558
55403SOL     OW77933  12.984   4.857   6.871 -0.0484 -0.5188 -0.1871
55403SOL    HW177934  13.041   4.799   6.821  0.2840 -0.2009 -0.1823
55403SOL    HW277935  13.008   4.843   6.962  1.4278  1.0385 -0.2796
55404SOL     OW77936   5.958   1.147   8.166 -0.9942  0.3257  0.7077
55404SOL    HW177937   6.014   1.168   8.240  1.5155 -0.8568 -0.7527
55404SOL    HW277938   5.901   1.077   8.197 -1.4330  1.2704  2.1028
55405SOL     OW77939   7.797   7.553   0.006  0.1447  0.6226  0.2378
55405SOL    HW177940   7.742   7.513  -0.061 -0.2914  0.8155  0.4751
55405SOL    HW277941   7.886   7.534  -0.022  0.0028  1.4894 -0.8837
55406SOL     OW77942   1.831   4.076   0.124  0.2211 -0.0045 -0.4883
55406SOL    HW177943   1.862   4.135   0.055  0.1648  0.3495 -0.2151
55406SOL    HW277944   1.906   4.020   0.143 -0.3171 -1.3954 -2.1602
55407SOL     OW77945   5.848   5.196   8.267  0.0826 -0.5260 -0.0264
55407SOL    HW177946   5.907   5.231   8.200  0.7740  0.8418  1.2263
55407SOL    HW277947   5.879   5.107   8.282 -0.2425 -0.9389 -1.6852
55408SOL     OW77948   9.781  13.349   2.498  0.0731  0.0522  0.1447
55408SOL    HW177949   9.771  13.364   2.404  0.0216  1.7137  0.3857
55408SOL    HW277950   9.776  13.436   2.537  2.6303 -0.3156  1.4693
55409SOL     OW77951   6.918   4.018   6.221  0.4360  0.3670  0.2973
55409SOL    HW177952   6.934   4.107   6.189  0.2953  0.2385 -0.1382
55409SOL    HW277953   6.894   3.968   6.143  0.4110 -0.0305  0.5550
55410SOL     OW77954   2.630   0.415   2.992 -0.4358 -0.1883 -0.0779
55410SOL    HW177955   2.552   0.388   3.040 -1.1389 -0.2452 -1.2031
55410SOL    HW277956   2.605   0.407   2.900  0.5443  0.8269 -0.4557
55411SOL     OW77957   6.727  12.524   2.227 -0.4694 -0.0317 -0.2196
55411SOL    HW177958   6.815  12.514   2.192 -0.5010 -1.9495  0.1249
55411SOL    HW277959   6.731  12.602   2.283  0.4019  1.1813 -1.8992
55412SOL     OW77960  11.495   1.665  10.763  0.3602  0.0850 -0.4077
55412SOL    HW177961  11.487   1.611  10.684 -2.3132 -0.1871 -0.0313
55412SOL    HW277962  11.501   1.602  10.835  1.9827  0.3436 -0.2664
55413SOL     OW77963   3.049   1.149   6.173 -0.6250 -0.0847  0.0094
55413SOL    HW177964   3.046   1.244   6.174 -1.1851 -0.0899 -0.7049
55413SOL    HW277965   3.132   1.127   6.129 -0.4263  0.0628  0.3040
55414SOL     OW77966  10.625   9.152   6.099 -0.9132 -0.2882  0.3872
55414SOL    HW177967  10.660   9.221   6.042 -0.4110 -0.5796  0.3379
55414SOL    HW277968  10.625   9.191   6.186  0.0986 -0.4767  0.4858
55415SOL     OW77969   4.041   4.825   0.566 -0.3018  0.8120 -0.3208
55415SOL    HW177970   3.970   4.843   0.627  0.4505  1.2168  0.4521
55415SOL    HW277971   4.054   4.731   0.571 -0.0834  0.8737  0.3311
55416SOL     OW77972   2.296  12.563   0.562  0.3435  0.3570 -0.0435
55416SOL    HW177973   2.260  12.648   0.587 -0.2322 -0.3465  1.6927
55416SOL    HW277974   2.382  12.560   0.603  0.5328  0.2574 -0.4413
55417SOL     OW77975   4.250   7.183  10.772  0.5640 -0.3397  0.3526
55417SOL    HW177976   4.231   7.100  10.729 -0.6111  1.0772 -2.1323
55417SOL    HW277977   4.167   7.230  10.773  1.6383  1.7987 -0.7976
55418SOL     OW77978   8.800   8.285   9.733  0.3955 -0.2175  0.3670
55418SOL    HW177979   8.855   8.263   9.807  2.5227  1.7544 -0.5115
55418SOL    HW277980   8.758   8.367   9.758  0.9432  0.3378 -0.5011
55419SOL     OW77981   2.051   2.752  10.337  0.4793  0.0121 -0.1692
55419SOL    HW177982   2.042   2.727  10.429 -1.2460  0.1840 -0.2578
55419SOL    HW277983   1.979   2.813  10.322  0.0873 -0.8226 -1.9134
55420SOL     OW77984   0.884   7.114   3.432  0.1119 -0.3502  0.8878
55420SOL    HW177985   0.916   7.178   3.496 -1.3431 -0.2998  1.6011
55420SOL    HW277986   0.953   7.110   3.366  0.6357  1.3033  1.2757
55421SOL     OW77987  12.292   4.981   4.707  0.0714  0.2462  0.4106
55421SOL    HW177988  12.268   4.907   4.763 -0.3370  0.2276  0.2137
55421SOL    HW277989  12.378   4.958   4.672  0.3961  0.3172  1.1321
55422SOL     OW77990   6.535   5.630  11.137 -0.1544 -0.3779 -0.0897
55422SOL    HW177991   6.466   5.598  11.078 -1.1660 -0.1581  0.9209
55422SOL    HW277992   6.496   5.621  11.225  1.0888 -0.1599  0.4961
55423SOL     OW77993   9.429  10.599  11.885 -0.2396 -0.6885 -0.0652
55423SOL    HW177994   9.451  10.537  11.954 -1.3872 -2.5986 -1.3104
55423SOL    HW277995   9.436  10.685  11.926  2.4504 -1.5215  1.4512
55424SOL     OW77996   5.263   6.637  12.715 -0.6164  0.0762 -0.0947
55424SOL    HW177997   5.332   6.688  12.757 -1.4389 -0.7892  2.4553
55424SOL    HW277998   5.188   6.695  12.712 -0.5110  0.1950 -0.5838
55425SOL     OW77999   3.801   0.983   0.680 -0.2325 -0.2957 -0.1211
55425SOL    HW178000   3.742   0.914   0.713 -3.0830  1.7734 -0.4720
55425SOL    HW278001   3.810   0.964   0.586  1.4370 -1.7528  0.2783
55426SOL     OW78002   7.687   1.605   4.651 -0.1051 -0.1679  0.0044
55426SOL    HW178003   7.650   1.558   4.726 -4.9855  2.8916 -0.0478
55426SOL    HW278004   7.758   1.658   4.688 -0.0675 -1.3111  1.6605
55427SOL     OW78005   5.284   2.413   4.962  0.0037  0.4453 -0.2011
55427SOL    HW178006   5.198   2.455   4.969  0.1781  0.9367 -0.8958
55427SOL    HW278007   5.266   2.320   4.973 -0.5975  0.5606 -0.1678
55428SOL     OW78008  13.644  12.840  13.631  0.0405  0.2940  0.0420
55428SOL    HW178009  13.677  12.930  13.634  0.3834  0.2175 -0.9004
55428SOL    HW278010  13.566  12.845  13.576  0.2680 -0.0380 -0.3176
55429SOL     OW78011   0.841   6.210   0.071  0.6020 -0.1727  0.7512
55429SOL    HW178012   0.823   6.129   0.023  1.1993 -0.7196  1.4262
55429SOL    HW278013   0.876   6.270   0.004  2.6505 -1.3427  0.6858
55430SOL     OW78014   0.689   1.214   7.629 -0.4044 -0.2399 -0.1162
55430SOL    HW178015   0.637   1.229   7.550 -0.5751  0.8235  0.1783
55430SOL    HW278016   0.669   1.288   7.686  3.1539  1.5649 -0.9075
55431SOL     OW78017   0.144  13.480   8.445 -0.0421 -0.2820  0.1051
55431SOL    HW178018   0.175  13.459   8.533  2.1696 -1.9241 -0.9848
55431SOL    HW278019   0.095  13.403   8.418  0.2375 -0.2509 -0.4973
55432SOL     OW78020   5.235   0.078  13.565  0.4804 -0.5660  0.0114
55432SOL    HW178021   5.185   0.040  13.493  1.3919  0.9965 -1.5183
55432SOL    HW278022   5.176   0.072  13.641 -2.1274  1.3146 -1.7007
55433SOL     OW78023   4.478  13.207   5.406 -0.1222 -0.8843  0.2494
55433SOL    HW178024   4.427  13.147   5.461 -0.0587  0.1768  1.4972
55433SOL    HW278025   4.569  13.185   5.424 -0.1051 -0.6721  0.4320
55434SOL     OW78026  12.785   8.889   7.871 -0.1460  0.0747 -0.2676
55434SOL    HW178027  12.704   8.923   7.833 -0.7857 -2.4040 -1.3412
55434SOL    HW278028  12.845   8.881   7.797 -0.1500 -1.3876 -0.1375
55435SOL     OW78029   7.678  12.403  13.694  0.3552  0.4197 -0.5434
55435SOL    HW178030   7.729  12.467  13.645 -2.0018  2.9035 -0.0411
55435SOL    HW278031   7.701  12.319  13.656  0.2386  1.9811 -4.4882
55436SOL     OW78032   2.208  10.731   9.775  0.1889  0.1059  0.0467
55436SOL    HW178033   2.223  10.668   9.704 -1.5950  0.6811 -0.8991
55436SOL    HW278034   2.116  10.753   9.768  0.5784  2.1993  0.9141
55437SOL     OW78035   4.644  10.985  11.973  0.1720  0.6083  0.3450
55437SOL    HW178036   4.571  10.929  11.944  1.4645 -0.4227 -1.1021
55437SOL    HW278037   4.647  11.055  11.908  1.7769 -0.5553 -0.9063
55438SOL     OW78038   7.476   1.391  13.531 -0.7056  0.4381 -0.0122
55438SOL    HW178039   7.488   1.390  13.625  1.4967  0.2729 -0.2450
55438SOL    HW278040   7.390   1.431  13.518 -0.6009  1.4235  2.0025
55439SOL     OW78041   5.698   5.753   9.977  0.3769  0.6469  0.1705
55439SOL    HW178042   5.788   5.725   9.963  0.2068 -0.2792  0.7694
55439SOL    HW278043   5.705   5.841  10.012  0.9855  1.0810 -0.9992
55440SOL     OW78044   6.669   7.848   9.532  0.2608  0.0181 -0.4224
55440SOL    HW178045   6.625   7.765   9.550  1.7949 -0.1854  3.3779
55440SOL    HW278046   6.613   7.915   9.571  1.1511  0.2190  0.5634
55441SOL     OW78047   6.201  12.746   9.670  0.1208  0.4603 -0.2146
55441SOL    HW178048   6.149  12.810   9.718  2.7437  3.2885 -0.8203
55441SOL    HW278049   6.157  12.737   9.586 -1.5243 -0.3623  0.6890
55442SOL     OW78050  10.410   2.769   7.553 -0.5119  0.0320  0.1601
55442SOL    HW178051  10.382   2.691   7.507 -0.2986  0.7599 -1.2473
55442SOL    HW278052  10.441   2.737   7.638  0.5449 -1.5239 -0.7708
55443SOL     OW78053   2.058  10.873   7.959  0.3967 -0.4169  0.5698
55443SOL    HW178054   2.024  10.787   7.983  0.7020 -0.2284  1.7388
55443SOL    HW278055   1.986  10.933   7.978  1.3714  0.0312  3.3981
55444SOL     OW78056   5.047   1.209   4.503 -0.6627 -0.2596  0.2777
55444SOL    HW178057   4.964   1.248   4.530  0.8081  2.8179  0.8126
55444SOL    HW278058   5.045   1.213   4.407 -1.2980 -0.5956  0.2753
55445SOL     OW78059   8.272   7.168   4.580 -0.3201 -0.0180  0.0116
55445SOL    HW178060   8.366   7.162   4.596 -0.3139 -0.1700 -0.0760
55445SOL    HW278061   8.233   7.166   4.667 -0.2252  0.3393  0.0602
55446SOL     OW78062   5.276   9.055   9.494  0.4690 -0.5045  0.2404
55446SOL    HW178063   5.335   9.057   9.569 -0.0205 -0.5574  0.6374
55446SOL    HW278064   5.242   9.144   9.487  0.5842 -0.4775  0.0240
55447SOL     OW78065   6.628   9.096   1.259 -0.4297  0.8892 -0.6678
55447SOL    HW178066   6.712   9.132   1.286 -0.9837 -0.3560  3.4648
55447SOL    HW278067   6.568   9.171   1.260 -0.1380  1.1332  0.5811
55448SOL     OW78068   3.528  13.682   8.890 -0.1528  0.2978  0.1585
55448SOL    HW178069   3.436  13.705   8.903  0.1931  2.1529 -0.3667
55448SOL    HW278070   3.561  13.750   8.831  0.8381 -2.0213 -2.1399
55449SOL     OW78071   2.138   9.391  11.354 -0.1317 -0.0117 -0.3936
55449SOL    HW178072   2.197   9.345  11.414 -0.5261 -3.1193 -2.1373
55449SOL    HW278073   2.195   9.447  11.302  0.4878  1.0496  1.3464
55450SOL     OW78074  13.482   0.894  13.697  0.1337  0.4892 -0.0488
55450SOL    HW178075  13.421   0.892  13.624 -0.4839  0.7195  0.4464
55450SOL    HW278076  13.496   0.987  13.715 -1.3938  0.4881  1.4588
55451SOL     OW78077   0.718   3.701   7.464 -0.0212 -0.2854  0.7118
55451SOL    HW178078   0.649   3.699   7.530 -0.6659  0.7274  0.0923
55451SOL    HW278079   0.674   3.730   7.384  0.5325 -2.4233 -0.4417
55452SOL     OW78080   3.726   4.781   5.200 -0.2491  0.3681  0.1725
55452SOL    HW178081   3.632   4.771   5.214 -0.1657 -1.3019 -0.2182
55452SOL    HW278082   3.764   4.766   5.286 -0.2710 -0.5791  0.0320
55453SOL     OW78083   2.685   8.356   7.457  0.3035  0.8813  0.2055
55453SOL    HW178084   2.623   8.401   7.400 -0.7955  1.1707  1.5643
55453SOL    HW278085   2.659   8.264   7.452  0.2997  0.8869  0.1227
55454SOL     OW78086  10.941   2.300   7.277  0.5316 -0.3188  0.1369
55454SOL    HW178087  10.851   2.330   7.267  1.0795  1.0824 -0.9602
55454SOL    HW278088  10.937   2.230   7.343 -1.7914 -2.2753 -1.8808
55455SOL     OW78089   6.440   4.320   7.556 -0.0145  0.4293  0.3999
55455SOL    HW178090   6.346   4.316   7.571 -0.2210 -1.8609 -0.9721
55455SOL    HW278091   6.478   4.300   7.641 -0.9203 -2.4805  0.2312
55456SOL     OW78092   4.065   9.699   0.282  0.0136 -0.0024  0.3568
55456SOL    HW178093   4.126   9.663   0.347  0.5478  0.6490  0.2216
55456SOL    HW278094   4.022   9.772   0.327 -0.3874 -0.2124  0.3205
55457SOL     OW78095   5.284   5.248  11.745 -0.2588 -0.0840  0.3426
55457SOL    HW178096   5.211   5.298  11.710 -0.5637 -0.3912  0.5408
55457SOL    HW278097   5.346   5.242  11.672 -0.7233 -0.3932 -0.0340
55458SOL     OW78098  11.933  12.445   9.591  0.2337 -0.0087  0.1936
55458SOL    HW178099  11.877  12.442   9.513  0.9462 -1.8150 -0.2951
55458SOL    HW278100  11.947  12.354   9.614  1.3802  0.4547  1.4841
55459SOL     OW78101   2.805   0.665   5.635 -0.2191 -0.2197  0.0419
55459SOL    HW178102   2.786   0.633   5.547  0.2151  0.2817 -0.2415
55459SOL    HW278103   2.726   0.645   5.686 -0.8342  0.2994 -0.6886
55460SOL     OW78104   8.341  12.071   3.038  0.1758  0.1102  0.1978
55460SOL    HW178105   8.395  12.051   2.961 -0.5045 -2.9829  0.4206
55460SOL    HW278106   8.261  12.109   3.002  0.8946  1.1114 -0.3948
55461SOL     OW78107   6.625   1.710   9.820 -0.4798  0.2138  0.0609
55461SOL    HW178108   6.576   1.792   9.819 -1.2721 -0.2576 -1.1780
55461SOL    HW278109   6.619   1.680   9.911 -1.3077  0.8621  0.2293
55462SOL     OW78110   1.002   4.629  10.444  0.1521  0.1947 -0.0913
55462SOL    HW178111   0.956   4.561  10.495  0.0050  0.1912 -0.2263
55462SOL    HW278112   1.021   4.587  10.360  1.2782 -0.1260  0.3037
55463SOL     OW78113   6.099  12.864   9.410  0.2617 -0.4055  0.4234
55463SOL    HW178114   6.093  12.951   9.450  0.0800 -0.1179 -0.2117
55463SOL    HW278115   6.157  12.877   9.335  1.7317 -1.2341  1.3605
55464SOL     OW78116   5.408  12.531   8.353  0.0430  0.3624  0.0508
55464SOL    HW178117   5.444  12.597   8.293  0.8055  0.5417  0.6804
55464SOL    HW278118   5.470  12.458   8.348 -0.1843  0.1563  0.2125
55465SOL     OW78119  13.065  11.485  11.666 -0.0467  0.7496  0.6670
55465SOL    HW178120  13.044  11.392  11.659  1.5839  0.2851  1.5406
55465SOL    HW278121  13.038  11.509  11.755 -1.0981  1.3193  0.2229
55466SOL     OW78122  12.041  11.896   7.174 -0.0380 -0.4235  0.4867
55466SOL    HW178123  11.992  11.910   7.093  0.9900  0.6324  0.0115
55466SOL    HW278124  12.060  11.803   7.174  0.5461 -0.3381 -0.8687
55467SOL     OW78125   6.221  10.586  12.802 -0.2117 -0.5364  0.2734
55467SOL    HW178126   6.154  10.565  12.867  0.8344 -1.1603  1.1612
55467SOL    HW278127   6.262  10.666  12.835  0.3390 -0.8681  0.4046
55468SOL     OW78128   5.547   8.557   4.297  0.3342  0.2979 -0.2057
55468SOL    HW178129   5.550   8.511   4.381 -1.8685  1.4389  0.5770
55468SOL    HW278130   5.555   8.649   4.320  2.5734  0.4964 -1.5564
55469SOL     OW78131   3.121   2.433   7.533  0.6548  0.3547 -0.0795
55469SOL    HW178132   3.069   2.388   7.599  1.5969  0.7612  0.9668
55469SOL    HW278133   3.084   2.522   7.529  0.7838  0.4162  0.1083
55470SOL     OW78134   5.341  11.586   0.227  0.2506  0.4216  0.0866
55470SOL    HW178135   5.337  11.617   0.317 -0.2555 -0.0954  0.2485
55470SOL    HW278136   5.259  11.616   0.187 -1.0359 -1.9716  0.6903
55471SOL     OW78137   8.675   0.472  10.277 -0.3045 -0.4549 -0.2809
55471SOL    HW178138   8.593   0.521  10.285  0.0914  0.1445  0.1981
55471SOL    HW278139   8.651   0.394  10.227 -0.8846  0.3939 -1.3728
55472SOL     OW78140   6.686   3.964  10.532  0.2354 -0.1284  0.3157
55472SOL    HW178141   6.640   3.932  10.454 -0.0244  1.2987 -0.1466
55472SOL    HW278142   6.672   4.059  10.531  0.5669 -0.0302  1.8880
55473SOL     OW78143   1.530   8.983   6.196 -0.2599  0.2954  0.1838
55473SOL    HW178144   1.535   8.889   6.182  0.9031  0.3293  0.2621
55473SOL    HW278145   1.614   9.017   6.163  0.4127  0.9933  2.4508
55474SOL     OW78146   3.288   8.392   8.181  0.1198  0.3682 -0.4037
55474SOL    HW178147   3.216   8.359   8.127 -1.4849  2.1457  0.5086
55474SOL    HW278148   3.348   8.318   8.189 -1.1092 -0.8899 -2.0093
55475SOL     OW78149  12.306   6.369  11.499 -0.6225  0.0403  0.0003
55475SOL    HW178150  12.221   6.361  11.542 -1.3884 -1.2772 -1.6403
55475SOL    HW278151  12.291   6.337  11.410  1.1589  1.5943 -0.9272
55476SOL     OW78152   1.944   5.665   6.114 -0.0020 -0.6431 -0.2143
55476SOL    HW178153   1.872   5.609   6.142  0.8237 -1.4407  0.3731
55476SOL    HW278154   1.909   5.754   6.120 -1.0779 -1.0404 -0.3970
55477SOL     OW78155   0.018   6.748   2.732 -0.3588  0.1958 -0.3357
55477SOL    HW178156   0.106   6.740   2.769 -1.3216  0.6617  2.2650
55477SOL    HW278157   0.005   6.666   2.684  1.0703 -0.3946  0.2087
55478SOL     OW78158   2.823  10.594   9.250  0.3769  0.5956 -0.0544
55478SOL    HW178159   2.915  10.577   9.231  0.5839 -0.8443  1.8839
55478SOL    HW278160   2.806  10.681   9.214  1.6627 -0.2904 -3.0709
55479SOL     OW78161   4.712  12.934  13.459 -0.3688 -0.4147 -0.1381
55479SOL    HW178162   4.801  12.961  13.436 -0.1222  0.8594  2.0110
55479SOL    HW278163   4.691  12.865  13.396  1.3404  0.6460 -1.9810
55480SOL     OW78164   5.570  12.577   7.383 -0.1664  0.0730  0.0854
55480SOL    HW178165   5.663  12.586   7.360  0.0310 -0.8292  0.4991
55480SOL    HW278166   5.568  12.507   7.448 -1.3234 -1.2548 -1.2823
55481SOL     OW78167   4.639   0.348  13.215 -0.4542  0.5661 -0.3355
55481SOL    HW178168   4.544   0.352  13.231 -0.5657  3.2259 -1.0808
55481SOL    HW278169   4.678   0.397  13.288  0.2007  0.7523 -0.7993
55482SOL     OW78170   5.033   4.543   0.136  0.2528 -0.1502 -0.1952
55482SOL    HW178171   5.059   4.476   0.200 -0.8709  0.4225  0.9047
55482SOL    HW278172   5.115   4.568   0.093  0.7400 -2.0077 -0.4380
55483SOL     OW78173  12.772   8.813   2.644 -0.0959  0.3416 -0.7173
55483SOL    HW178174  12.760   8.720   2.624  0.0208  0.5112 -1.6359
55483SOL    HW278175  12.779   8.817   2.740  1.1823 -0.7483 -0.7384
55484SOL     OW78176  10.909   2.962   4.461  0.4087 -0.3012 -0.2923
55484SOL    HW178177  10.961   2.889   4.429 -0.5935 -1.1767  0.0245
55484SOL    HW278178  10.842   2.921   4.516  0.4806  0.9387  0.7595
55485SOL     OW78179   1.742   3.050  11.465  0.1814 -0.3372 -0.4487
55485SOL    HW178180   1.806   3.107  11.422  0.6075 -0.6711 -0.2608
55485SOL    HW278181   1.749   2.966  11.419  0.6983 -0.7211  0.3149
55486SOL     OW78182   3.966   6.804   2.790 -0.4390 -0.0062 -0.4738
55486SOL    HW178183   3.880   6.796   2.831  0.1021 -1.4600  0.4439
55486SOL    HW278184   3.947   6.840   2.703 -1.6519  2.6072  0.7683
55487SOL     OW78185   9.374  10.032   5.212 -0.1563 -0.4102  0.4761
55487SOL    HW178186   9.402   9.949   5.174  0.1109 -0.3780  0.5997
55487SOL    HW278187   9.290  10.051   5.170 -0.1875 -0.7093  0.4005
55488SOL     OW78188   8.188  13.379   3.837 -0.0370  0.4375  0.4724
55488SOL    HW178189   8.244  13.314   3.795 -0.6339 -0.5612  1.1773
55488SOL    HW278190   8.249  13.438   3.881  0.4924 -0.8021  1.4643
55489SOL     OW78191  13.661  10.514   4.824 -0.4188  0.1689 -0.3681
55489SOL    HW178192  13.667  10.559   4.739 -0.9565 -0.7415 -0.9078
55489SOL    HW278193  13.714  10.435   4.812 -0.8104 -0.1538  0.0167
55490SOL     OW78194   2.968  12.897   2.168 -0.5087  0.2725 -0.0936
55490SOL    HW178195   2.880  12.924   2.195  0.2894  3.4410 -0.3374
55490SOL    HW278196   3.011  12.873   2.251 -1.2585 -0.3407  0.1360
55491SOL     OW78197   1.208   7.318   3.377 -0.2595  0.5619 -0.5985
55491SOL    HW178198   1.297   7.337   3.406 -0.7137 -1.1287  2.3274
55491SOL    HW278199   1.161   7.400   3.391  0.0095  0.3661  1.8546
55492SOL     OW78200  12.564  11.299  12.253  0.2876 -0.0855  0.3829
55492SOL    HW178201  12.637  11.351  12.287 -0.9414  1.4134  0.8478
55492SOL    HW278202  12.590  11.208  12.268  3.3233  0.1966 -2.0597
55493SOL     OW78203   1.700   3.836   5.291 -0.4824  0.3868  0.3415
55493SOL    HW178204   1.719   3.929   5.294 -0.6890  0.5006 -1.0141
55493SOL    HW278205   1.756   3.797   5.358 -1.2409  1.6027  1.7405
55494SOL     OW78206  12.753  13.573  11.585 -0.3086 -0.4164 -0.4024
55494SOL    HW178207  12.819  13.518  11.544  0.0508  0.2935 -0.7961
55494SOL    HW278208  12.751  13.546  11.676 -0.6418 -1.5611 -0.7313
55495SOL     OW78209   9.852   0.434  12.477 -0.2839 -0.2000 -0.1966
55495SOL    HW178210   9.869   0.523  12.506 -0.9448 -0.2598  0.4016
55495SOL    HW278211   9.768   0.411  12.516 -2.1534  0.3171 -3.5671
55496SOL     OW78212  13.620  12.695   3.394  0.4218 -0.4134  0.4301
55496SOL    HW178213  13.591  12.604   3.386 -0.0730 -0.4154  1.8780
55496SOL    HW278214  13.715  12.690   3.388  0.3825 -0.9754  0.1356
55497SOL     OW78215  10.356   0.454   3.018 -0.0392  0.4686  0.0996
55497SOL    HW178216  10.387   0.395   3.086 -1.0941 -1.0902 -0.7088
55497SOL    HW278217  10.432   0.466   2.960  0.6605  1.2632  1.1497
55498SOL     OW78218   5.048   7.918   9.897 -0.0229  0.8562  0.3035
55498SOL    HW178219   5.135   7.891   9.869  0.7286  1.0103  2.2756
55498SOL    HW278220   5.038   8.007   9.862 -0.0926  0.2359 -1.3062
55499SOL     OW78221   7.422   3.114   2.482  0.4037  0.2364 -0.4919
55499SOL    HW178222   7.411   3.024   2.450  1.9682 -0.4073  0.6330
55499SOL    HW278223   7.373   3.168   2.420  0.6910 -1.2458 -2.0794
55500SOL     OW78224  12.772   4.307   3.085 -0.1391  0.1633 -0.1131
55500SOL    HW178225  12.726   4.366   3.143  0.3065  1.4237 -0.9903
55500SOL    HW278226  12.839   4.361   3.043 -0.5965 -0.6036 -1.9746
55501SOL     OW78227  10.322   7.965   8.035  0.2048 -0.3466 -0.1763
55501SOL    HW178228  10.343   8.009   8.117 -0.6908  1.2117 -0.7569
55501SOL    HW278229  10.270   7.889   8.062 -0.8796  0.6545  0.6766
55502SOL     OW78230   6.613   3.070  12.716  0.1764 -0.2897 -0.2435
55502SOL    HW178231   6.623   3.035  12.627 -1.5674 -0.7056 -0.3234
55502SOL    HW278232   6.587   3.161  12.703  0.0183 -0.3233 -0.1749
55503SOL     OW78233   8.461   8.509   8.739 -0.7071  0.0095 -0.5955
55503SOL    HW178234   8.484   8.601   8.749  0.1741 -0.2496 -0.1115
55503SOL    HW278235   8.540   8.461   8.763 -0.2732 -0.8416 -3.3866
55504SOL     OW78236  13.081  12.776  12.789  0.2601  0.3569  0.8264
55504SOL    HW178237  13.034  12.788  12.872  1.4792  1.9669  1.3381
55504SOL    HW278238  13.172  12.794  12.811  0.9359 -1.2666 -0.4534
55505SOL     OW78239   2.066  13.036   7.919 -1.0414 -0.4404  0.3490
55505SOL    HW178240   1.997  13.028   7.984  0.1712 -0.8238  1.6399
55505SOL    HW278241   2.131  13.094   7.960 -0.4101 -0.3887 -0.6746
55506SOL     OW78242  11.577   6.793   2.726 -0.2284 -0.2939 -0.0771
55506SOL    HW178243  11.591   6.704   2.692  0.0134  0.3465 -1.7172
55506SOL    HW278244  11.650   6.844   2.691 -0.8734  0.7657  0.0883
55507SOL     OW78245  12.915  10.916   9.729  0.5901  0.0134  0.2059
55507SOL    HW178246  12.992  10.885   9.683 -0.0185 -1.0675 -0.1228
55507SOL    HW278247  12.843  10.865   9.692  0.1782 -1.5899  2.8927
55508SOL     OW78248  10.414   2.382   6.460 -0.0432 -0.5612 -0.5403
55508SOL    HW178249  10.410   2.477   6.451 -0.4766 -0.4185  0.8355
55508SOL    HW278250  10.330   2.359   6.500  1.4248 -1.0528  2.5665
55509SOL     OW78251   0.939   3.540   2.322 -0.0001  0.2452 -0.1166
55509SOL    HW178252   0.915   3.559   2.231 -0.6678  1.1414  0.2288
55509SOL    HW278253   0.908   3.617   2.371 -0.0118 -0.4070  0.9201
55510SOL     OW78254   3.078   5.695   8.575 -0.4484  0.1102 -0.1450
55510SOL    HW178255   3.168   5.671   8.596  0.1620  2.0361 -0.4229
55510SOL    HW278256   3.026   5.658   8.647  0.8040  0.7404  1.1278
55511SOL     OW78257  11.349   8.294   3.136  0.8331  0.5036 -0.3326
55511SOL    HW178258  11.327   8.211   3.178  0.5665  0.9084  0.3456
55511SOL    HW278259  11.367   8.271   3.045 -2.4964  0.0991 -1.0298
55512SOL     OW78260   0.561   4.760   7.121  0.2144 -0.0680 -0.4136
55512SOL    HW178261   0.468   4.742   7.134  0.4192 -0.3433  0.7642
55512SOL    HW278262   0.605   4.682   7.153  0.8609  0.0567 -0.9769
55513SOL     OW78263   7.067  11.745   8.966 -0.0136 -0.3103  0.2956
55513SOL    HW178264   7.041  11.704   9.049  0.7707 -2.2561 -0.3689
55513SOL    HW278265   7.160  11.763   8.976 -0.0309 -0.0623  0.0290
55514SOL     OW78266   2.767   5.494   0.501 -0.4251  0.3508 -0.1126
55514SOL    HW178267   2.841   5.438   0.476 -1.5750 -0.5869 -1.6014
55514SOL    HW278268   2.805   5.559   0.561  1.7363  0.2880 -1.3079
55515SOL     OW78269   5.021   1.342   1.859 -0.0932 -0.0796  0.3153
55515SOL    HW178270   4.974   1.359   1.941  1.8466  2.4458  1.0151
55515SOL    HW278271   5.102   1.393   1.866  1.3499 -1.8041 -2.1273
55516SOL     OW78272   4.547  13.053   0.403 -0.3522 -0.9139  0.1504
55516SOL    HW178273   4.476  13.044   0.467  2.2226 -1.4006  3.1969
55516SOL    HW278274   4.567  12.963   0.377  0.3413 -0.9655  0.8123
55517SOL     OW78275   3.737   5.469   2.063  0.1818 -0.0667 -0.0584
55517SOL    HW178276   3.803   5.406   2.094 -2.1266 -2.4783  0.3124
55517SOL    HW278277   3.734   5.536   2.131  0.8494 -0.9791  0.8970
55518SOL     OW78278   4.367   3.483   8.209  0.3577 -0.2814 -0.2805
55518SOL    HW178279   4.399   3.441   8.289  1.0848  1.8808  0.6514
55518SOL    HW278280   4.445   3.497   8.156  0.2491  0.4775 -0.2553
55519SOL     OW78281  11.696  12.421  10.552  0.0735 -0.1143  0.1936
55519SOL    HW178282  11.777  12.451  10.512 -0.1580  1.8425  1.0434
55519SOL    HW278283  11.627  12.453  10.494 -0.1585  0.4622  0.7691
55520SOL     OW78284   9.021   0.149  10.720  0.0055 -0.6404 -0.2612
55520SOL    HW178285   9.040   0.223  10.662 -1.3125 -0.0767 -0.0077
55520SOL    HW278286   9.096   0.145  10.780 -0.8859  1.9249  1.1552
55521SOL     OW78287   2.601   3.999   8.745 -0.1101  0.3573  0.0894
55521SOL    HW178288   2.510   4.025   8.730 -0.7308 -1.9924 -0.5850
55521SOL    HW278289   2.600   3.963   8.834  0.2737  0.7388  0.2493
55522SOL     OW78290   1.309   9.342   0.336 -0.4227 -0.9054 -0.1934
55522SOL    HW178291   1.347   9.425   0.366 -0.8790 -0.5993 -0.4616
55522SOL    HW278292   1.280   9.300   0.417 -0.5956 -0.6032 -0.0936
55523SOL     OW78293   9.026   8.104   9.843  0.1403 -0.4893 -0.7814
55523SOL    HW178294   9.104   8.085   9.896 -0.3877  0.4239  0.3745
55523SOL    HW278295   9.013   8.025   9.790  1.1609 -1.1101 -0.1477
55524SOL     OW78296   2.918   7.175   3.156  0.1125 -0.0722  0.4243
55524SOL    HW178297   2.961   7.141   3.235  1.2708 -0.5221 -0.3803
55524SOL    HW278298   2.934   7.270   3.160  0.1669 -0.0930  0.7373
55525SOL     OW78299  13.157   1.992   9.504  0.3860 -0.4612 -0.2924
55525SOL    HW178300  13.078   2.037   9.475  0.4633 -0.5751 -0.6880
55525SOL    HW278301  13.125   1.913   9.547  0.2950 -0.7683 -0.9070
55526SOL     OW78302   6.316  11.581   8.917 -0.1860 -0.8826 -0.7929
55526SOL    HW178303   6.385  11.546   8.860  0.8534  1.7635 -1.3336
55526SOL    HW278304   6.288  11.661   8.873 -1.5375 -0.3684  0.9278
55527SOL     OW78305   3.682   6.016  12.946 -0.1282 -0.1502 -0.1399
55527SOL    HW178306   3.662   5.927  12.974  2.2377 -0.5477  0.4765
55527SOL    HW278307   3.630   6.028  12.866 -2.7036 -0.9933  1.2621
55528SOL     OW78308   6.911   2.437   2.828 -0.0658 -0.3187 -0.7052
55528SOL    HW178309   6.996   2.439   2.785 -0.3125 -0.8590 -1.2321
55528SOL    HW278310   6.916   2.360   2.885  0.7660  1.1373  1.3459
55529SOL     OW78311   1.400  12.394   7.500  0.4326  0.2974  0.0348
55529SOL    HW178312   1.398  12.431   7.589  1.4687  0.4093  0.0189
55529SOL    HW278313   1.430  12.466   7.445 -1.7964  0.7585 -0.7074
55530SOL     OW78314   5.616  12.881   7.418 -0.7054  0.2393  0.3063
55530SOL    HW178315   5.628  12.976   7.426 -2.1371  0.5951 -1.1939
55530SOL    HW278316   5.607  12.866   7.323  0.3035 -1.5247  0.4395
55531SOL     OW78317   3.354   5.538   1.188 -0.1864 -0.4024  0.0358
55531SOL    HW178318   3.371   5.458   1.238 -2.1095 -0.6086  0.4448
55531SOL    HW278319   3.411   5.603   1.228 -0.9416 -0.8094  1.9075
55532SOL     OW78320   2.265   9.277   8.280  0.3247 -0.6728  0.3586
55532SOL    HW178321   2.241   9.227   8.357 -0.1705 -1.4178 -0.2611
55532SOL    HW278322   2.280   9.211   8.212 -0.0607 -0.0053 -0.4008
55533SOL     OW78323   3.357   6.774   2.568 -0.1419 -0.1562 -0.0052
55533SOL    HW178324   3.319   6.717   2.500  1.3210 -1.2000  0.0004
55533SOL    HW278325   3.305   6.757   2.646 -0.3941 -0.6849 -0.2848
55534SOL     OW78326   7.824   2.674   9.073 -0.8106  0.7030  0.0245
55534SOL    HW178327   7.890   2.702   9.137 -0.2322  0.2827 -0.3898
55534SOL    HW278328   7.808   2.752   9.020 -1.0479  0.9594  0.4660
55535SOL     OW78329   4.940   3.528   0.500 -0.1115 -0.6865 -0.3038
55535SOL    HW178330   4.860   3.564   0.537  0.2396 -0.4727  0.2574
55535SOL    HW278331   5.006   3.596   0.514  0.2951 -1.0841 -0.2670
55536SOL     OW78332  10.712   2.899   5.157 -0.5365 -0.1782  0.7520
55536SOL    HW178333  10.724   2.834   5.088 -1.6954  1.1167 -0.7579
55536SOL    HW278334  10.776   2.876   5.224 -0.7087 -2.6717  0.1522
55537SOL     OW78335   7.411   8.725   7.220 -0.1574  0.4539 -0.3457
55537SOL    HW178336   7.391   8.816   7.243  1.0317  0.6010  0.1715
55537SOL    HW278337   7.340   8.700   7.160 -0.8566  1.5039  0.0017
55538SOL     OW78338  11.313   2.356  11.747 -0.0535  0.1533  0.5222
55538SOL    HW178339  11.341   2.269  11.719 -1.4609 -0.3244  0.5699
55538SOL    HW278340  11.340   2.414  11.675  1.2464 -0.2354  0.6699
55539SOL     OW78341  11.471   8.678  11.640  0.0514  0.2378 -0.3609
55539SOL    HW178342  11.407   8.608  11.644 -0.5957  0.8265 -0.2367
55539SOL    HW278343  11.443   8.732  11.565  1.9908 -1.0150 -2.1017
55540SOL     OW78344  10.975   3.864   9.477 -0.1436  0.3269 -0.3007
55540SOL    HW178345  10.978   3.850   9.382  0.0516  1.7619 -0.5334
55540SOL    HW278346  10.968   3.959   9.487  2.8854  0.5457  1.1218
55541SOL     OW78347   2.232   2.542   8.064 -0.2546 -0.4543  0.1547
55541SOL    HW178348   2.148   2.516   8.101  0.9061 -1.7410  2.0116
55541SOL    HW278349   2.273   2.597   8.131  0.7221 -0.4880 -0.3865
55542SOL     OW78350   3.553  10.313   0.740  0.0037 -0.0375  0.0199
55542SOL    HW178351   3.529  10.392   0.693 -0.8011  0.3878  1.1010
55542SOL    HW278352   3.472  10.264   0.749  0.3249 -0.5560  0.1286
55543SOL     OW78353  10.512   7.100   7.113 -0.0863 -0.0641 -0.0348
55543SOL    HW178354  10.445   7.089   7.179  0.2605 -0.0125  0.3269
55543SOL    HW278355  10.488   7.039   7.043  1.4744 -2.8038  1.6660
55544SOL     OW78356  12.161  10.240   8.626  0.3429  0.0012  0.6901
55544SOL    HW178357  12.069  10.252   8.650  0.6662  1.0462  1.5069
55544SOL    HW278358  12.208  10.303   8.681  1.6458 -1.1756  0.9707
55545SOL     OW78359   2.063   3.107   1.989 -0.6322  0.0375 -0.4265
55545SOL    HW178360   2.041   3.147   1.905 -0.5303  0.8966 -0.0582
55545SOL    HW278361   2.000   3.036   2.000 -0.9713  0.2516 -0.9832
55546SOL     OW78362   7.901  11.675   7.951 -0.0394  0.1563 -0.4336
55546SOL    HW178363   7.870  11.585   7.948  0.9067 -0.3375  2.3785
55546SOL    HW278364   7.822  11.728   7.940 -1.1168 -1.0572  1.1298
55547SOL     OW78365   4.988   5.140  13.114  0.4417 -0.0912  0.0999
55547SOL    HW178366   4.911   5.112  13.063  0.9498  1.2947 -1.5416
55547SOL    HW278367   5.039   5.060  13.126 -0.3972 -0.7154 -0.3351
55548SOL     OW78368  12.109   0.860   7.567  0.0560 -0.7858  0.3866
55548SOL    HW178369  12.169   0.820   7.503 -0.6206 -0.2884 -0.5741
55548SOL    HW278370  12.036   0.799   7.573 -0.5703 -0.1328 -0.4306
55549SOL     OW78371   8.094   0.312   3.747 -0.4480 -0.1052  0.3844
55549SOL    HW178372   8.137   0.244   3.696  1.0701  0.1776  1.2073
55549SOL    HW278373   8.031   0.265   3.801 -0.1727 -0.7332  0.1715
55550SOL     OW78374   5.585   5.408   7.807  0.3760 -0.1256 -0.0597
55550SOL    HW178375   5.603   5.501   7.820 -0.9478  0.0929  0.2969
55550SOL    HW278376   5.512   5.405   7.745 -0.5084 -0.8743  0.9789
55551SOL     OW78377   0.857   8.523   8.638  0.1793  0.1234  0.1450
55551SOL    HW178378   0.843   8.577   8.716 -0.2942  2.9071 -1.7084
55551SOL    HW278379   0.947   8.539   8.613  0.0809 -0.0732 -0.3540
55552SOL     OW78380   3.425   8.487   3.272 -0.6870  0.4396  0.1800
55552SOL    HW178381   3.365   8.543   3.322 -3.0571 -0.4665 -1.4471
55552SOL    HW278382   3.510   8.531   3.279 -1.7155  2.3662  1.7694
55553SOL     OW78383   0.214  11.564   3.398 -0.2963 -0.6637  0.3075
55553SOL    HW178384   0.166  11.485   3.424 -0.6635  0.0681  2.0322
55553SOL    HW278385   0.295  11.561   3.449 -0.3479  0.0922  0.4496
55554SOL     OW78386   8.231  13.684   8.181 -0.1234  0.0339  0.0549
55554SOL    HW178387   8.208  13.620   8.248 -0.9131  0.2914  0.0405
55554SOL    HW278388   8.323  13.666   8.161 -0.0933 -0.5260  0.6687
55555SOL     OW78389   6.187  13.037   0.310 -0.0172 -0.5780 -0.6466
55555SOL    HW178390   6.237  13.056   0.231  1.6027 -0.8802  0.2634
55555SOL    HW278391   6.105  13.085   0.298  1.0955  1.2050 -1.5263
55556SOL     OW78392   8.846   7.235  10.562 -0.0948  0.6609 -0.0243
55556SOL    HW178393   8.806   7.223  10.648 -1.5922  0.2119 -0.7520
55556SOL    HW278394   8.861   7.146  10.530  0.5578  0.8245 -0.1873
55557SOL     OW78395   7.944   2.763   2.393  0.5989  0.2463 -0.6127
55557SOL    HW178396   7.945   2.755   2.297 -1.6048  1.2683 -0.7762
55557SOL    HW278397   8.000   2.691   2.423  0.1351 -1.0495 -2.6081
55558SOL     OW78398   6.754  11.430   3.023  0.4131 -1.1504 -0.1651
55558SOL    HW178399   6.734  11.346   2.981 -0.0299 -0.7811 -0.7161
55558SOL    HW278400   6.670  11.476   3.025  0.5400 -0.9455  0.6566
55559SOL     OW78401   8.975   3.248   9.348 -0.6046 -0.3703  0.4891
55559SOL    HW178402   8.943   3.185   9.413 -2.1961 -0.5624 -0.4268
55559SOL    HW278403   8.914   3.322   9.354  0.7056  0.7152  0.9166
55560SOL     OW78404  13.462  10.950   5.331 -0.1265 -0.1577 -0.1871
55560SOL    HW178405  13.408  10.915   5.402 -0.8219 -0.7291 -0.9725
55560SOL    HW278406  13.526  10.882   5.313 -1.0996 -0.8243 -1.3082
55561SOL     OW78407   5.483   0.281   1.347  0.2821  0.4805  0.2552
55561SOL    HW178408   5.422   0.354   1.359  0.5121  0.7592 -0.2528
55561SOL    HW278409   5.533   0.279   1.429 -1.8433 -1.1488  1.6312
55562SOL     OW78410   4.137   1.775   8.173 -0.5325  0.5889  0.3960
55562SOL    HW178411   4.130   1.863   8.209 -1.6861 -0.0794  1.9709
55562SOL    HW278412   4.226   1.747   8.193 -0.6815  0.8107  1.4470
55563SOL     OW78413   3.508  11.331   6.020 -0.1333 -0.2545  0.0757
55563SOL    HW178414   3.423  11.288   6.029  0.1317 -0.8565 -0.2563
55563SOL    HW278415   3.564  11.287   6.084 -0.1636  0.3938  0.5620
55564SOL     OW78416   3.731   7.586   3.812  0.6094  0.1132  0.2230
55564SOL    HW178417   3.732   7.669   3.859 -0.8069 -0.0826  0.6659
55564SOL    HW278418   3.797   7.533   3.855  1.2393  0.8621  0.1994
55565SOL     OW78419   3.914   7.951  13.347 -0.4116 -0.6342 -0.2519
55565SOL    HW178420   3.968   8.030  13.346  0.6051 -1.2931  0.5891
55565SOL    HW278421   3.910   7.924  13.255 -1.3512  0.7434 -0.6582
55566SOL     OW78422   9.530   3.144  13.719 -0.2391 -0.6612 -0.0850
55566SOL    HW178423   9.509   3.062  13.765  0.1199 -0.9334 -0.3973
55566SOL    HW278424   9.588   3.117  13.648  0.7894  0.0044  0.4634
55567SOL     OW78425   4.799   4.220   7.291  0.4903 -0.5133  0.0846
55567SOL    HW178426   4.753   4.303   7.279  1.2215 -0.0335  0.5348
55567SOL    HW278427   4.737   4.165   7.338  1.3104  1.0718  3.3181
55568SOL     OW78428   3.506   5.709   4.846 -0.3313 -0.2304  1.1050
55568SOL    HW178429   3.471   5.687   4.759 -3.1874 -0.8424  2.3088
55568SOL    HW278430   3.559   5.787   4.831 -0.8596 -0.2290 -1.1533
55569SOL     OW78431   6.208   6.869   7.669  0.5105  0.3203  0.0165
55569SOL    HW178432   6.248   6.955   7.665  2.0929 -0.4008 -1.0321
55569SOL    HW278433   6.128   6.881   7.718 -0.1003  2.6934 -1.4220
55570SOL     OW78434  12.549   9.769   3.080  0.8749  0.5664  0.0860
55570SOL    HW178435  12.610   9.828   3.035  0.8860  0.3920 -0.1300
55570SOL    HW278436  12.484   9.748   3.013  1.2781 -0.2487 -0.0577
55571SOL     OW78437   0.864   0.123  12.401  0.0688 -0.7622 -0.1750
55571SOL    HW178438   0.923   0.062  12.357 -0.4669 -1.0757 -0.4616
55571SOL    HW278439   0.917   0.201  12.414  0.4406 -0.9080 -0.7623
55572SOL     OW78440   1.358   9.052   0.456  0.3316  0.1443  0.4176
55572SOL    HW178441   1.297   9.026   0.387 -1.6946 -0.4222  2.3331
55572SOL    HW278442   1.403   8.971   0.480  0.3571  0.1530  0.3979
55573SOL     OW78443   2.742   2.426   7.854 -0.4320  0.2603 -0.8631
55573SOL    HW178444   2.664   2.410   7.801 -1.1239  1.1050 -0.1349
55573SOL    HW278445   2.737   2.518   7.878 -0.1767 -0.0945  0.7004
55574SOL     OW78446   8.041   3.512   3.457  0.1869 -0.3622  0.1474
55574SOL    HW178447   8.050   3.599   3.496  0.6914 -0.4485  0.2226
55574SOL    HW278448   8.071   3.452   3.525  2.3873 -0.4374 -0.8140
55575SOL     OW78449   3.667   8.531   9.462  0.7590  0.1382 -0.4842
55575SOL    HW178450   3.687   8.565   9.550  1.3880  3.2044 -1.7028
55575SOL    HW278451   3.573   8.514   9.463  0.9761 -1.2541  1.1605
55576SOL     OW78452   9.062   0.127   9.273 -0.1223  0.2728  0.2895
55576SOL    HW178453   9.073   0.198   9.337 -2.2496  1.0012 -0.0599
55576SOL    HW278454   9.085   0.048   9.321  4.1039  1.1944  0.2041
55577SOL     OW78455   7.518  13.596  13.515 -0.0678  0.1401  0.4497
55577SOL    HW178456   7.475  13.513  13.492 -1.2275 -0.1702  3.2995
55577SOL    HW278457   7.451  13.662  13.499  0.1270  0.2838  0.2180
55578SOL     OW78458   4.373   7.770   6.046  0.0328  0.5325 -0.2090
55578SOL    HW178459   4.406   7.848   6.003 -0.2743  2.1374  2.3146
55578SOL    HW278460   4.449   7.730   6.087  0.0371 -0.0326 -0.7429
55579SOL     OW78461   8.374   0.588   8.051  0.4642  0.1643  0.4519
55579SOL    HW178462   8.292   0.602   8.005  0.1564  0.7066  1.1517
55579SOL    HW278463   8.424   0.530   7.993 -0.8912 -1.2201  0.5949
55580SOL     OW78464  11.410  11.866   4.535  0.0955  0.2925 -0.1522
55580SOL    HW178465  11.505  11.854   4.535  0.1950  0.6225 -2.2925
55580SOL    HW278466  11.379  11.813   4.608  1.9113  0.1057  0.5354
55581SOL     OW78467  11.046   2.592   7.223  0.0322 -0.2578 -0.0110
55581SOL    HW178468  10.992   2.542   7.162 -0.6237  0.2581  0.1434
55581SOL    HW278469  10.987   2.613   7.295  0.8138 -0.9269  0.8525
55582SOL     OW78470   7.959   9.769   8.162 -0.7378  0.1968  0.1858
55582SOL    HW178471   8.033   9.820   8.195 -2.3450  1.3497  2.2988
55582SOL    HW278472   7.974   9.680   8.194 -0.4246  0.5019  0.9060
55583SOL     OW78473   1.835  10.129  10.810 -0.6878  0.4994  0.2015
55583SOL    HW178474   1.769  10.196  10.830 -1.5820 -0.1180 -0.5951
55583SOL    HW278475   1.841  10.077  10.889  0.6022  1.9722  1.1193
55584SOL     OW78476   0.391  10.415   2.856  0.1202  0.4721  0.7480
55584SOL    HW178477   0.309  10.386   2.815 -0.1658  1.2408  0.7567
55584SOL    HW278478   0.363  10.457   2.938  0.5529  0.4167  0.9249
55585SOL     OW78479   7.520  13.195  10.302  0.0642 -0.1099 -0.2259
55585SOL    HW178480   7.599  13.166  10.256 -1.4237 -0.8428 -2.4973
55585SOL    HW278481   7.490  13.117  10.348 -0.3471 -0.3786 -0.9321
55586SOL     OW78482   3.356   3.633  13.334 -0.1458  0.1265 -0.2346
55586SOL    HW178483   3.406   3.636  13.415 -0.0658 -2.5147 -0.1054
55586SOL    HW278484   3.265   3.646  13.361 -0.1440 -0.9416  0.3488
55587SOL     OW78485   4.020   0.869  10.983  0.2035  0.1184 -0.5503
55587SOL    HW178486   4.088   0.834  10.925 -1.2034 -0.7065 -1.7405
55587SOL    HW278487   3.998   0.954  10.946  0.2148  0.1690 -0.4442
55588SOL     OW78488  11.899   2.182   0.262 -0.0506  0.0233  0.0201
55588SOL    HW178489  11.951   2.112   0.304  0.8578  0.9163  0.4239
55588SOL    HW278490  11.879   2.147   0.176  0.1158 -0.8777  0.3324
55589SOL     OW78491   1.078   1.646   5.127  0.8430  0.0042  0.1125
55589SOL    HW178492   1.082   1.655   5.222  1.5293  0.7997  0.0203
55589SOL    HW278493   0.993   1.684   5.103 -0.4799 -2.4708  0.6137
55590SOL     OW78494   1.135   8.087  11.057 -0.1440  0.2205 -1.0088
55590SOL    HW178495   1.057   8.114  11.010 -0.2232  2.6638  0.4132
55590SOL    HW278496   1.207   8.106  10.997 -0.3165  2.5186 -0.5817
55591SOL     OW78497   6.826   4.295   2.814 -0.4024 -0.3899 -0.3055
55591SOL    HW178498   6.889   4.309   2.885 -0.2019  1.3247 -0.7715
55591SOL    HW278499   6.741   4.319   2.853 -0.7618 -2.3299  0.2077
55592SOL     OW78500   7.586   9.723   1.696  0.0282  0.0148  0.1841
55592SOL    HW178501   7.592   9.794   1.632 -1.3174 -0.5991 -0.6657
55592SOL    HW278502   7.507   9.743   1.746  1.1653  0.5966  1.8419
55593SOL     OW78503  12.985   8.603   9.708 -0.4537  0.1709 -0.2939
55593SOL    HW178504  13.001   8.693   9.678 -0.7506 -0.1211 -1.4026
55593SOL    HW278505  13.007   8.604   9.801  1.3638  0.9311 -0.6851
55594SOL     OW78506  12.588  12.641   0.003 -0.1903 -0.1253  0.3552
55594SOL    HW178507  12.558  12.723   0.041 -1.2585 -0.2456 -0.1964
55594SOL    HW278508  12.509  12.588  -0.007  0.6597 -1.9050  2.2355
55595SOL     OW78509   3.660   4.344   9.312 -0.1833 -0.0685 -0.5025
55595SOL    HW178510   3.646   4.277   9.245 -1.1260 -1.0812  0.6621
55595SOL    HW278511   3.755   4.350   9.319 -0.0456 -1.9212 -0.0619
55596SOL     OW78512  11.893  12.514   4.943 -0.4667  0.2844  0.2660
55596SOL    HW178513  11.954  12.525   4.870 -0.5937 -1.0079 -0.0779
55596SOL    HW278514  11.809  12.496   4.900 -0.7619  0.5719  0.7301
55597SOL     OW78515  13.561   2.173   4.898 -0.3029  0.8810 -0.2903
55597SOL    HW178516  13.536   2.196   4.987 -1.8265 -1.9189  0.1247
55597SOL    HW278517  13.656   2.178   4.897  0.0288 -2.0221  2.5295
55598SOL     OW78518   3.035   9.014   2.806 -0.4961  0.0052 -0.0776
55598SOL    HW178519   3.030   9.088   2.745 -1.0639  0.0532  0.0254
55598SOL    HW278520   3.008   9.050   2.890  1.6262  0.2824  0.5400
55599SOL     OW78521  12.185   2.747   7.993  0.1244  0.9924  0.1896
55599SOL    HW178522  12.268   2.790   8.012  0.3056  0.8727 -0.3098
55599SOL    HW278523  12.189   2.665   8.042  1.0771  0.1537 -1.2175
55600SOL     OW78524   7.542   4.855  10.620 -0.0410  0.4114 -0.7579
55600SOL    HW178525   7.496   4.926  10.576  0.1673  0.4228 -0.9616
55600SOL    HW278526   7.544   4.784  10.556 -1.5520 -0.3225 -0.0360
55601SOL     OW78527   4.222   0.842   8.676 -0.1412 -0.1391 -0.0456
55601SOL    HW178528   4.142   0.790   8.682 -0.2707  0.0741  0.0847
55601SOL    HW278529   4.231   0.882   8.762 -1.0784  1.5723 -0.7028
55602SOL     OW78530   5.788  12.508   4.793 -0.6827 -0.0937  0.7967
55602SOL    HW178531   5.819  12.465   4.714  1.4714  0.4727  1.2890
55602SOL    HW278532   5.758  12.594   4.764  2.0302  0.9448  0.7880
55603SOL     OW78533   1.592   1.990   1.049 -0.5517  0.6793  0.3592
55603SOL    HW178534   1.554   1.903   1.062  1.0670 -0.6510 -2.7020
55603SOL    HW278535   1.676   1.987   1.093 -0.8867  1.0318  1.0264
55604SOL     OW78536  10.391   3.689   6.565  0.0333 -0.2437 -0.1290
55604SOL    HW178537  10.403   3.728   6.478 -0.0213 -0.1036 -0.0748
55604SOL    HW278538  10.325   3.620   6.552  1.6693 -1.7781 -0.6515
55605SOL     OW78539   8.016   1.232   0.933  0.1710  0.2494  0.2694
55605SOL    HW178540   8.062   1.246   0.850 -1.6741 -0.0097 -0.8654
55605SOL    HW278541   7.992   1.139   0.931 -0.7786  0.4798  0.5950
55606SOL     OW78542  11.842  10.034  12.599  0.0105  0.1040  0.4341
55606SOL    HW178543  11.934  10.009  12.605 -0.0034  0.3892  2.4511
55606SOL    HW278544  11.795   9.951  12.605  0.1008 -0.2014 -2.0363
55607SOL     OW78545   4.592   9.407   0.293 -0.4346 -0.2544  0.3904
55607SOL    HW178546   4.625   9.421   0.204  1.8554 -0.4623  1.1612
55607SOL    HW278547   4.497   9.414   0.284 -0.1733  1.8264 -1.7002
55608SOL     OW78548   7.731  13.540  11.975  0.0683  0.1299  0.1302
55608SOL    HW178549   7.805  13.600  11.963 -0.7827  0.7971 -2.2567
55608SOL    HW278550   7.666  13.592  12.023  0.1270  0.4498 -0.1318
55609SOL     OW78551  12.520  10.534   9.337  0.4524 -0.2829  0.8274
55609SOL    HW178552  12.459  10.608   9.331 -0.8615 -1.4630 -2.0765
55609SOL    HW278553  12.603  10.569   9.303 -0.1204 -0.0315 -0.3876
55610SOL     OW78554   9.160   6.991   3.663  0.1904  0.8501  0.2247
55610SOL    HW178555   9.142   6.916   3.606 -0.1195  0.9192  0.2322
55610SOL    HW278556   9.252   6.980   3.688  0.3849  0.9071 -0.4274
55611SOL     OW78557   6.618  10.993   2.239 -0.1264 -0.1776  0.0324
55611SOL    HW178558   6.674  10.944   2.179  0.7551 -1.5506  1.8760
55611SOL    HW278559   6.666  11.073   2.257 -0.3456  0.1976 -0.9517
55612SOL     OW78560   3.317   9.052   5.253 -0.2132 -0.0347 -1.0114
55612SOL    HW178561   3.239   9.094   5.219 -0.3670  1.1126  0.6229
55612SOL    HW278562   3.380   9.123   5.265  0.9042 -0.8561 -1.7899
55613SOL     OW78563   5.941   2.478   5.798  0.1139 -0.3128  0.0929
55613SOL    HW178564   5.954   2.408   5.862  0.0710 -2.0644 -1.7098
55613SOL    HW278565   6.009   2.542   5.818  2.1334 -2.2871 -0.0134
55614SOL     OW78566  12.797   7.423   6.946  0.1807  0.5142 -0.2539
55614SOL    HW178567  12.885   7.435   6.983 -0.0631  2.7657 -0.2842
55614SOL    HW278568  12.780   7.504   6.897 -1.0921 -0.7521 -2.0315
55615SOL     OW78569   8.021   8.583   0.941 -0.1543 -0.2023 -0.1084
55615SOL    HW178570   7.969   8.520   0.991 -2.7446  1.9338  0.1015
55615SOL    HW278571   8.052   8.645   1.007  0.2627  0.1473 -0.6266
55616SOL     OW78572  11.814   2.896   8.818 -0.4397  0.4945 -0.6851
55616SOL    HW178573  11.857   2.977   8.790 -2.3029  1.5947 -0.5112
55616SOL    HW278574  11.885   2.832   8.821  0.9063  1.8368 -1.8698
55617SOL     OW78575   1.204  13.471   3.692  0.3235  0.1096 -0.0520
55617SOL    HW178576   1.286  13.481   3.645 -0.0946  0.6282 -0.6887
55617SOL    HW278577   1.174  13.383   3.668  1.0230 -0.3529  0.7320
55618SOL     OW78578   7.358   1.400   5.128  0.3233  0.6046  0.1115
55618SOL    HW178579   7.404   1.334   5.180 -0.9279 -2.1260 -1.9717
55618SOL    HW278580   7.269   1.401   5.163  0.7586  2.5530  1.2486
55619SOL     OW78581  12.744   4.545  11.829 -0.5538 -0.4651  0.3695
55619SOL    HW178582  12.756   4.598  11.908 -1.2640 -0.7262  0.6611
55619SOL    HW278583  12.814   4.480  11.834 -0.9602 -0.8563  1.1053
55620SOL     OW78584   0.604  11.512  13.020 -0.3192 -0.0849 -0.4230
55620SOL    HW178585   0.531  11.538  12.964  0.0792  1.0990 -0.4141
55620SOL    HW278586   0.681  11.521  12.964  0.0010  0.3749  0.0859
55621SOL     OW78587  13.130  13.650   1.869  0.1780  0.0485 -0.5634
55621SOL    HW178588  13.220  13.682   1.861  0.4482 -0.8202 -1.1942
55621SOL    HW278589  13.137  13.577   1.932 -0.2012  0.3722 -0.1368
55622SOL     OW78590  10.977  13.366   1.331  0.2674  0.5130  0.5257
55622SOL    HW178591  10.969  13.296   1.266  1.0272  0.0766  0.8933
55622SOL    HW278592  10.984  13.446   1.279 -0.1980  0.2870  0.0958
55623SOL     OW78593  12.067  10.672   0.991 -0.0994 -0.0181 -0.3095
55623SOL    HW178594  12.053  10.582   1.018  0.9741 -0.0426  0.2185
55623SOL    HW278595  12.034  10.725   1.063  0.4190 -0.0275 -0.0591
55624SOL     OW78596   7.280  13.385  11.862  0.6734  0.2926  0.6117
55624SOL    HW178597   7.367  13.376  11.822 -0.0500  1.7722 -1.4259
55624SOL    HW278598   7.222  13.334  11.806 -0.3040  2.1266 -0.1330
55625SOL     OW78599   2.031   0.576   3.498 -0.6874 -0.6795  0.3635
55625SOL    HW178600   2.038   0.495   3.548 -2.2842 -1.6716 -0.9306
55625SOL    HW278601   1.947   0.613   3.525 -1.3068 -0.9391 -1.0974
55626SOL     OW78602   5.306   7.474  11.224  0.5503 -0.0942  0.1406
55626SOL    HW178603   5.337   7.542  11.163  2.1563  0.7683  1.8146
55626SOL    HW278604   5.247   7.420  11.172  0.6508  1.5132 -1.7520
55627SOL     OW78605   4.395  13.539   9.616 -0.0280 -0.1725  0.1952
55627SOL    HW178606   4.361  13.574   9.533 -1.2908  2.3879  1.6609
55627SOL    HW278607   4.408  13.617   9.671  1.4787 -1.7208  2.1807
55628SOL     OW78608   4.402   8.248  11.241  0.3060  0.3782 -0.2251
55628SOL    HW178609   4.375   8.159  11.218  0.5814  0.3322 -0.3902
55628SOL    HW278610   4.474   8.235  11.303  0.9741  0.4651 -0.9685
55629SOL     OW78611   4.117   7.208   8.231  0.2325 -0.5197 -0.0037
55629SOL    HW178612   4.044   7.270   8.227 -0.7322 -1.6346 -0.0550
55629SOL    HW278613   4.191   7.257   8.194 -0.4752  0.6292  0.0318
55630SOL     OW78614   3.663  11.184  11.021 -0.2035 -0.1823 -0.1585
55630SOL    HW178615   3.637  11.220  11.106 -0.3036 -2.0023  0.6218
55630SOL    HW278616   3.756  11.164  11.031 -0.1685 -0.2133 -0.5533
55631SOL     OW78617   3.583   8.996  10.264  0.1827 -0.1119  0.6424
55631SOL    HW178618   3.607   9.089  10.268  0.1707 -0.1517  2.6446
55631SOL    HW278619   3.513   8.993  10.199 -0.6688  1.5211  1.3996
55632SOL     OW78620   3.541   9.578   6.599 -0.2453 -0.1412 -0.1657
55632SOL    HW178621   3.486   9.628   6.658 -0.2626  0.0191 -0.3173
55632SOL    HW278622   3.490   9.571   6.518 -1.1062 -2.0767  0.4716
55633SOL     OW78623  13.105   4.307  12.128 -0.8201 -0.3162 -0.3080
55633SOL    HW178624  13.093   4.374  12.061 -0.0875  0.9951  0.8095
55633SOL    HW278625  13.029   4.250  12.120 -0.5089 -0.4981 -2.5510
55634SOL     OW78626   9.190   2.271  10.713 -0.1696 -0.0348 -0.4041
55634SOL    HW178627   9.168   2.317  10.632 -1.1810 -0.7203 -0.5404
55634SOL    HW278628   9.108   2.230  10.740  0.2468 -0.1480  0.7615
55635SOL     OW78629  12.682   0.377  12.639  0.4345  0.3296 -0.8223
55635SOL    HW178630  12.614   0.336  12.585  1.3707 -0.1309 -1.6832
55635SOL    HW278631  12.683   0.325  12.719  0.0810  0.0426 -0.9990
55636SOL     OW78632   9.370   6.731   1.446 -0.0425 -0.3755 -0.5799
55636SOL    HW178633   9.395   6.683   1.525 -0.9131 -0.1204 -0.1429
55636SOL    HW278634   9.312   6.800   1.477 -1.4720 -1.0638 -1.5753
55637SOL     OW78635   4.160   9.958   1.561  0.2841  0.4924 -0.3974
55637SOL    HW178636   4.235   9.988   1.612 -0.4501  1.7250  0.0201
55637SOL    HW278637   4.188   9.876   1.522  1.0456 -0.2519  1.5921
55638SOL     OW78638   7.812   2.585   1.774 -0.0397 -0.8147  0.7076
55638SOL    HW178639   7.726   2.553   1.800 -0.3160 -2.3287 -1.7144
55638SOL    HW278640   7.806   2.680   1.779 -1.6397 -0.9219  1.2076
55639SOL     OW78641   6.629  11.100   3.421 -0.5138 -0.2552  0.0974
55639SOL    HW178642   6.685  11.173   3.395 -0.6666  0.1564  0.9026
55639SOL    HW278643   6.633  11.099   3.517  1.2618 -2.6856  0.1012
55640SOL     OW78644   0.484  11.756   2.674 -0.1278 -0.0359  0.5345
55640SOL    HW178645   0.546  11.693   2.712 -1.2310 -0.2140  2.1196
55640SOL    HW278646   0.516  11.769   2.585  2.4569  0.2286  1.3969
55641SOL     OW78647   7.950   6.956   0.665  0.0568 -0.4562 -0.2552
55641SOL    HW178648   8.008   6.963   0.742 -0.8524 -0.5227  0.4580
55641SOL    HW278649   7.941   7.046   0.635 -0.9138 -0.1940  0.7524
55642SOL     OW78650  12.634  10.470   3.880  0.1503  0.4148  0.1743
55642SOL    HW178651  12.553  10.426   3.906  1.3332 -0.5491  2.5569
55642SOL    HW278652  12.698  10.400   3.870  0.8520  1.2022 -1.1439
55643SOL     OW78653   2.265  10.822  12.497  0.2684  0.0816  0.4991
55643SOL    HW178654   2.298  10.912  12.499 -1.8091  0.8910  0.9837
55643SOL    HW278655   2.341  10.768  12.517  1.1368  1.8756  2.4339
55644SOL     OW78656   1.891   5.822   8.695  0.1810 -0.2054 -0.0790
55644SOL    HW178657   1.881   5.860   8.608  1.8409  1.0547  0.2189
55644SOL    HW278658   1.801   5.809   8.726 -0.4436  0.8055 -1.3555
55645SOL     OW78659   8.941   6.227   8.182  0.5975 -0.6215  0.1392
55645SOL    HW178660   8.898   6.273   8.254  0.3496  0.8849 -0.9261
55645SOL    HW278661   8.997   6.292   8.142  0.1192 -1.1920 -1.5344
55646SOL     OW78662   0.740   0.390   8.527 -0.2676  0.1302 -0.0756
55646SOL    HW178663   0.664   0.436   8.564 -0.4474  0.0703 -0.3701
55646SOL    HW278664   0.770   0.333   8.597 -0.0464  0.6936  0.2970
55647SOL     OW78665  10.042   9.564  13.564  0.7013  0.3034  0.0948
55647SOL    HW178666   9.971   9.582  13.626  1.9490  0.7097  1.4597
55647SOL    HW278667  10.032   9.631  13.497 -2.1894 -1.6153 -1.6240
55648SOL     OW78668   8.614   7.099  11.857  0.4837  0.5562  0.3674
55648SOL    HW178669   8.651   7.177  11.815  0.0961  0.8831  0.6190
55648SOL    HW278670   8.689   7.052  11.893  1.2501 -1.2671 -3.1253
55649SOL     OW78671   6.602  12.152   8.775 -0.2133  0.2141 -0.7018
55649SOL    HW178672   6.538  12.121   8.711 -0.4390  0.1611 -0.4473
55649SOL    HW278673   6.572  12.118   8.859  0.8889 -0.9751 -0.7524
55650SOL     OW78674   6.354   4.113   7.869 -0.6851  0.4740  0.3207
55650SOL    HW178675   6.332   4.198   7.907 -1.3383  0.1600  0.6524
55650SOL    HW278676   6.296   4.051   7.913  1.6343 -0.5737  2.1250
55651SOL     OW78677   3.418   7.359   9.348 -0.8067  0.2497  0.1263
55651SOL    HW178678   3.441   7.275   9.387 -1.9283 -0.4297 -0.6113
55651SOL    HW278679   3.493   7.415   9.366 -0.9890 -0.1996  2.6659
55652SOL     OW78680   4.065   8.628   9.129  0.1044  0.4525  0.2777
55652SOL    HW178681   3.998   8.694   9.114  0.3957  0.7425  0.2362
55652SOL    HW278682   4.017   8.550   9.158 -0.8699 -1.0221 -4.3608
55653SOL     OW78683   4.805   5.768  10.903  0.8001  0.1493 -0.7833
55653SOL    HW178684   4.721   5.812  10.893  0.2222 -0.9689 -0.9639
55653SOL    HW278685   4.852   5.787  10.821  0.5130  0.3199 -0.9082
55654SOL     OW78686   9.891  12.628   7.063  0.4788 -0.0457  0.2102
55654SOL    HW178687   9.941  12.553   7.092 -0.7083 -0.5130  1.1464
55654SOL    HW278688   9.817  12.632   7.124 -0.8970  0.2942 -1.4149
55655SOL     OW78689   0.829  11.214   9.848 -0.8182 -0.1686  0.0901
55655SOL    HW178690   0.798  11.211   9.938  0.4656  1.4872  0.6425
55655SOL    HW278691   0.751  11.232   9.796 -1.3175  0.5707  1.0706
55656SOL     OW78692   4.600  11.339   7.888  0.6679 -0.1889 -0.0418
55656SOL    HW178693   4.641  11.364   7.971 -0.6734  0.6621  0.3920
55656SOL    HW278694   4.522  11.289   7.913  1.2491 -1.5812 -0.8509
55657SOL     OW78695   0.243  11.860   7.612  0.0421  0.3409  0.0874
55657SOL    HW178696   0.270  11.941   7.569  1.6068 -1.3579 -2.4077
55657SOL    HW278697   0.149  11.869   7.623 -0.1571  1.6997 -2.0526
55658SOL     OW78698   1.814   4.987  10.671  0.3020 -0.1681 -0.0580
55658SOL    HW178699   1.757   5.064  10.665 -0.7432 -0.9971 -1.4404
55658SOL    HW278700   1.859   4.997  10.755 -0.0559  1.7662 -0.0407
55659SOL     OW78701   4.456   7.704   7.311 -0.0247 -0.2733 -0.0347
55659SOL    HW178702   4.402   7.783   7.311  0.7677  0.4084 -3.1946
55659SOL    HW278703   4.397   7.635   7.343 -2.0848  0.8465 -1.1982
55660SOL     OW78704  10.690  11.720   5.410  0.0262 -0.4672 -0.4986
55660SOL    HW178705  10.656  11.693   5.495  0.3645  0.1108 -0.1687
55660SOL    HW278706  10.654  11.808   5.397  1.8981  0.4413  0.1731
55661SOL     OW78707   8.519   2.119   8.510 -0.3823 -0.0460 -0.2745
55661SOL    HW178708   8.569   2.043   8.541 -1.4750 -0.8654 -0.4742
55661SOL    HW278709   8.586   2.179   8.477  0.4956 -0.9822 -0.2601
55662SOL     OW78710  12.561   7.966   5.750  0.1584  0.2485 -0.1355
55662SOL    HW178711  12.528   8.021   5.821  1.8701 -0.8991  1.6468
55662SOL    HW278712  12.503   7.890   5.749  0.1917  0.2190  0.1144
55663SOL     OW78713   7.543  11.468   0.060  0.2141  0.3868 -0.7910
55663SOL    HW178714   7.624  11.473   0.112  0.0249  0.3722 -0.4930
55663SOL    HW278715   7.567  11.507  -0.024  1.3052 -2.0244 -1.6950
55664SOL     OW78716   7.938   3.748   2.355 -0.0941  0.1555  0.2956
55664SOL    HW178717   7.900   3.760   2.269  0.4021  1.5613  0.2447
55664SOL    HW278718   7.868   3.709   2.408 -0.8899  0.6988 -0.3442
55665SOL     OW78719   6.426  12.865   6.032 -0.1391  0.8840 -0.0728
55665SOL    HW178720   6.400  12.956   6.018  0.8212  1.0431 -0.8665
55665SOL    HW278721   6.406  12.821   5.949  0.7712  0.6955 -0.1977
55666SOL     OW78722   3.151   4.619  11.352  0.0844 -0.0134  0.2182
55666SOL    HW178723   3.072   4.660  11.386 -1.7917 -1.9038 -1.6045
55666SOL    HW278724   3.215   4.628  11.423 -1.7029  1.6624  1.7160
55667SOL     OW78725   0.556   6.845   2.810 -0.0893 -0.0847  0.1314
55667SOL    HW178726   0.642   6.846   2.852  0.2827 -0.4298 -0.6186
55667SOL    HW278727   0.560   6.915   2.744  0.6105 -1.8865 -1.8337
55668SOL     OW78728   2.987   7.712   8.932 -0.2503 -0.0531 -0.3966
55668SOL    HW178729   3.016   7.785   8.987  2.9761 -1.0867 -0.5525
55668SOL    HW278730   3.013   7.737   8.843 -0.8202 -0.6116 -0.7304
55669SOL     OW78731   6.883   6.804   8.970  0.4996  0.2487  0.1706
55669SOL    HW178732   6.896   6.736   8.904 -1.5256  1.2107 -1.3417
55669SOL    HW278733   6.957   6.795   9.030  2.5240 -0.5754 -2.3170
55670SOL     OW78734   8.680   4.192   9.039 -0.8087 -0.4078  0.8110
55670SOL    HW178735   8.643   4.106   9.054  0.2403 -0.5780  2.6373
55670SOL    HW278736   8.768   4.175   9.007 -0.8889  0.0000  0.3572
55671SOL     OW78737   0.644   4.147   9.183 -0.3293  0.0564 -0.0338
55671SOL    HW178738   0.726   4.102   9.204  0.5050  1.7955  0.6137
55671SOL    HW278739   0.593   4.140   9.264  0.7276  2.1399  0.8981
55672SOL     OW78740   4.668   7.758  10.830 -0.3511  0.7816 -0.0989
55672SOL    HW178741   4.679   7.783  10.738  2.3648 -0.7737 -0.3036
55672SOL    HW278742   4.754   7.726  10.857 -1.1460  0.8503  2.9210
55673SOL     OW78743   2.555  12.844  11.656 -0.4196  0.1429 -0.4081
55673SOL    HW178744   2.538  12.793  11.576 -0.8363  1.4679 -1.1942
55673SOL    HW278745   2.606  12.919  11.626  1.4977 -0.5342  0.9795
55674SOL     OW78746   6.237   9.890  13.626 -0.5508  0.4010 -0.7532
55674SOL    HW178747   6.176   9.880  13.553 -0.6937 -0.0223 -0.5799
55674SOL    HW278748   6.197   9.841  13.698 -0.9505  1.7002 -0.0560
55675SOL     OW78749   7.408  12.803   2.167  0.1200  0.3013 -0.0850
55675SOL    HW178750   7.492  12.762   2.146 -0.1556 -0.7313  0.7417
55675SOL    HW278751   7.429  12.896   2.179  0.8791  0.3056 -1.3224
55676SOL     OW78752   5.504  12.076   4.943 -0.4154 -0.1079 -0.3531
55676SOL    HW178753   5.513  12.172   4.945  0.9249 -0.1974 -0.7406
55676SOL    HW278754   5.489  12.055   4.851  0.8053 -0.3481 -0.5256
55677SOL     OW78755   1.207  10.093   8.551  0.1024 -0.2474 -0.2962
55677SOL    HW178756   1.200  10.045   8.634  0.0588 -1.5888 -1.0492
55677SOL    HW278757   1.282  10.052   8.506  0.0736  0.4070 -0.9610
55678SOL     OW78758   9.579   0.346   7.611 -0.0991 -0.4940 -0.4351
55678SOL    HW178759   9.538   0.262   7.593 -0.6256 -0.0655 -1.3212
55678SOL    HW278760   9.672   0.333   7.589 -0.2746 -0.6979 -1.0723
55679SOL     OW78761  11.074  11.345   7.118  0.4824 -0.0317 -0.5421
55679SOL    HW178762  11.080  11.409   7.047  2.1741  0.6795  0.2019
55679SOL    HW278763  11.040  11.395   7.192  1.9126  0.0792  0.0743
55680SOL     OW78764  13.153   4.968   1.977  0.6806 -0.0969 -0.0481
55680SOL    HW178765  13.172   4.921   1.896 -2.5852 -0.2049 -0.8974
55680SOL    HW278766  13.160   4.901   2.046  0.6912 -0.6834 -0.6076
55681SOL     OW78767   3.807   8.986   2.997  0.3485 -0.1403  0.1040
55681SOL    HW178768   3.856   9.062   2.965 -0.6928  0.6403  0.2944
55681SOL    HW278769   3.732   9.024   3.043  0.3910 -1.2765  1.1629
55682SOL     OW78770   7.699   2.158   0.296  0.2942 -0.7112  0.3771
55682SOL    HW178771   7.693   2.253   0.284  1.2618 -0.4835  1.4919
55682SOL    HW278772   7.786   2.136   0.262  0.0540 -1.2156  0.0814
55683SOL     OW78773  11.932  10.683   1.988 -0.0573 -0.5606 -0.1976
55683SOL    HW178774  11.957  10.764   1.944 -0.4331 -0.0128  0.5673
55683SOL    HW278775  12.014  10.636   2.001  0.3931  0.4575  0.8114
55684SOL     OW78776   1.047   3.390   4.823  0.3544  0.2514  0.0797
55684SOL    HW178777   1.039   3.484   4.805  1.7781  0.5788  0.9634
55684SOL    HW278778   0.966   3.368   4.868  0.6879  1.4553  1.3452
55685SOL     OW78779  11.433   5.574   0.285  0.3058  0.2754 -0.0806
55685SOL    HW178780  11.455   5.528   0.204  0.9631 -2.0998  1.3502
55685SOL    HW278781  11.360   5.632   0.261 -1.1892 -2.1513 -1.8476
55686SOL     OW78782   9.833  12.397  13.579  0.4710  0.9254  0.2824
55686SOL    HW178783   9.739  12.407  13.562  0.0743 -0.8316  1.2079
55686SOL    HW278784   9.873  12.392  13.493 -0.5609 -0.3377 -0.1550
55687SOL     OW78785  12.563   0.140   6.842  0.0338 -0.3677  0.7494
55687SOL    HW178786  12.572   0.235   6.845 -0.2878 -0.3544  1.4938
55687SOL    HW278787  12.634   0.111   6.784 -0.0618  0.3403  0.2660
55688SOL     OW78788   2.163   0.837   6.237  0.1143 -0.3412 -0.8486
55688SOL    HW178789   2.243   0.786   6.251  0.6196  0.2995 -1.2885
55688SOL    HW278790   2.177   0.917   6.288  0.6587  0.6657 -2.4653
55689SOL     OW78791   5.250   8.520  12.931  0.1823  0.7104  0.5772
55689SOL    HW178792   5.299   8.454  12.882 -0.8213  0.5383 -0.2242
55689SOL    HW278793   5.290   8.519  13.018 -0.0758 -1.2491  0.7104
55690SOL     OW78794  10.808   9.014  10.155 -0.1654  0.1495  0.0277
55690SOL    HW178795  10.797   9.095  10.105  1.3832 -0.1957 -0.9427
55690SOL    HW278796  10.857   9.040  10.233 -0.3865  0.2886  0.1187
55691SOL     OW78797  12.050   3.781   9.330 -0.4549  0.3622  0.2486
55691SOL    HW178798  12.034   3.749   9.419 -0.1034 -0.1482  0.1380
55691SOL    HW278799  11.966   3.772   9.286 -0.4539 -0.0671  0.3310
55692SOL     OW78800  10.096   2.913  12.909 -0.1362  0.0464 -0.0267
55692SOL    HW178801  10.031   2.977  12.936 -0.7621 -1.0233  1.1229
55692SOL    HW278802  10.149   2.958  12.843 -0.6639  1.6612  0.6144
55693SOL     OW78803  13.433   1.168  11.539  0.1301  0.5144 -0.4461
55693SOL    HW178804  13.449   1.261  11.522 -0.5754  0.8729  0.7580
55693SOL    HW278805  13.483   1.123  11.471  1.5664  1.7307 -0.2580
55694SOL     OW78806   5.487   5.053   6.138  0.2223  0.3016  0.3113
55694SOL    HW178807   5.556   5.073   6.201 -1.4063  1.3490  1.8676
55694SOL    HW278808   5.470   4.959   6.150  1.7868 -0.1325 -0.5876
55695SOL     OW78809   7.210   6.278   9.540 -0.3568 -0.0584  0.4597
55695SOL    HW178810   7.287   6.286   9.596 -0.1347  1.1691  0.0174
55695SOL    HW278811   7.138   6.262   9.601  0.3972 -2.7307  0.7853
55696SOL     OW78812  13.041  13.399   8.716 -0.0303 -0.2942 -0.4160
55696SOL    HW178813  12.974  13.450   8.761  0.2441  0.0264 -0.3663
55696SOL    HW278814  13.010  13.309   8.721 -0.6316 -0.1100 -0.7019
55697SOL     OW78815   3.131  13.554   9.164  0.0794 -0.4540  0.0382
55697SOL    HW178816   3.156  13.569   9.255 -0.8662 -1.9680  0.5845
55697SOL    HW278817   3.048  13.505   9.169  0.0751 -0.6837 -1.6218
55698SOL     OW78818   6.804  12.676   4.793 -0.1934  0.4339  0.6150
55698SOL    HW178819   6.749  12.619   4.740  1.1713  0.6351 -1.1083
55698SOL    HW278820   6.776  12.659   4.883 -1.2763 -1.3421  0.0052
55699SOL     OW78821   1.439   5.570   0.295 -0.5978  0.7023 -0.2109
55699SOL    HW178822   1.376   5.586   0.225 -2.2848  2.1338  1.5111
55699SOL    HW278823   1.439   5.475   0.307 -0.5543  0.4760 -1.8535
55700SOL     OW78824  13.050   0.298   3.006 -0.2249  0.2319 -0.0159
55700SOL    HW178825  13.001   0.219   2.985 -1.2014  0.9586 -0.5033
55700SOL    HW278826  13.130   0.266   3.048 -0.0089 -1.0756 -1.3517
55701SOL     OW78827   0.335   0.270   8.737  0.4166  0.0847  0.1324
55701SOL    HW178828   0.411   0.313   8.777  0.4183  0.1456  0.0626
55701SOL    HW278829   0.284   0.341   8.699  0.8060 -0.0399 -0.6509
55702SOL     OW78830   4.683   5.419  12.369 -0.1676 -0.2879  0.1085
55702SOL    HW178831   4.748   5.350  12.362  0.2730 -0.4048  3.4901
55702SOL    HW278832   4.734   5.499  12.380 -0.6400  0.0433 -0.0571
55703SOL     OW78833   0.210   3.303   2.379 -0.1246  0.5885 -0.0424
55703SOL    HW178834   0.229   3.262   2.464  0.5910 -1.2790 -1.0476
55703SOL    HW278835   0.115   3.313   2.378 -0.3126 -0.9644  0.3177
55704SOL     OW78836   9.341   7.728  12.623 -0.0035 -0.1771 -0.2404
55704SOL    HW178837   9.247   7.726  12.608 -0.1339  2.6818 -0.4938
55704SOL    HW278838   9.376   7.771  12.545  1.7144 -2.2054 -0.6836
55705SOL     OW78839  10.249   6.490   7.526 -0.1230 -0.6591 -0.3139
55705SOL    HW178840  10.179   6.436   7.490 -0.5006 -0.2857 -0.1409
55705SOL    HW278841  10.206   6.570   7.556  0.2017 -0.8810  0.8010
55706SOL     OW78842   2.792  12.481   3.625  0.1784  0.0676  0.2653
55706SOL    HW178843   2.734  12.489   3.700  1.8205  0.3376  1.5590
55706SOL    HW278844   2.829  12.393   3.632 -0.2617 -0.2123 -0.7064
55707SOL     OW78845   1.680  13.206   8.695 -0.6879 -0.8445 -0.6757
55707SOL    HW178846   1.728  13.287   8.712 -2.0880  0.2553 -1.7892
55707SOL    HW278847   1.676  13.163   8.780  0.7955 -0.1666 -0.2301
55708SOL     OW78848   1.443  10.142   1.500 -0.4325 -0.4212  0.7688
55708SOL    HW178849   1.371  10.093   1.461 -1.1063  0.8180  0.3876
55708SOL    HW278850   1.521  10.092   1.478 -1.0089 -0.8672 -0.3320
55709SOL     OW78851  12.775   7.714   8.246  0.2478 -0.0674 -0.2184
55709SOL    HW178852  12.805   7.798   8.280 -0.1341  0.2459 -0.6354
55709SOL    HW278853  12.685   7.707   8.278  0.2409 -0.2602 -0.2821
55710SOL     OW78854   1.361   1.352   0.567 -0.6105  0.0347 -0.3303
55710SOL    HW178855   1.362   1.399   0.650 -1.2003 -0.1736 -0.1980
55710SOL    HW278856   1.417   1.275   0.582  1.2449  1.2133 -0.8817
55711SOL     OW78857   0.944   7.390   1.287 -0.4027  0.6953  0.0827
55711SOL    HW178858   0.978   7.475   1.314  0.5259 -0.2005  1.9033
55711SOL    HW278859   1.021   7.338   1.267 -0.8219 -0.3151  0.9547
55712SOL     OW78860   4.714  11.238  10.815  0.2596 -0.7177 -0.0116
55712SOL    HW178861   4.622  11.256  10.833  0.0493  0.7211 -2.1392
55712SOL    HW278862   4.755  11.324  10.809  1.3678 -1.2671 -0.7616
55713SOL     OW78863   3.043   3.146   0.660  0.1649 -0.1486 -0.3699
55713SOL    HW178864   3.114   3.083   0.646 -0.0884 -0.0555 -2.3841
55713SOL    HW278865   3.028   3.144   0.754  2.2063 -0.8605  0.0022
55714SOL     OW78866   0.285   0.733   2.594 -0.8280 -0.1705  0.1966
55714SOL    HW178867   0.277   0.674   2.519  0.9259 -0.1720 -0.0355
55714SOL    HW278868   0.196   0.764   2.610 -1.3692 -0.8315 -1.3430
55715SOL     OW78869  10.017   7.313   8.656 -0.2779  0.1747  0.1938
55715SOL    HW178870   9.924   7.293   8.664 -0.3840  0.1677 -0.9371
55715SOL    HW278871  10.022   7.408   8.660 -0.1763  0.1351  1.6061
55716SOL     OW78872   3.617   9.061   5.506 -0.3432  0.3163  0.4910
55716SOL    HW178873   3.588   8.981   5.461  0.8590  0.1782 -0.0762
55716SOL    HW278874   3.624   9.035   5.598  1.1150 -0.5657  0.1514
55717SOL     OW78875   4.588   9.612   3.161 -0.3796  0.2412  0.2366
55717SOL    HW178876   4.576   9.533   3.109  0.6688  0.5094 -0.4457
55717SOL    HW278877   4.549   9.592   3.245 -1.6956 -0.3757 -0.4938
55718SOL     OW78878  10.523  11.703   5.043 -0.2936 -0.0449  0.5728
55718SOL    HW178879  10.519  11.796   5.063  1.3232  0.1280  0.2547
55718SOL    HW278880  10.457  11.663   5.100 -0.6483  1.2180  1.0900
55719SOL     OW78881  12.145   4.052   7.760 -0.2432 -0.2406  0.0376
55719SOL    HW178882  12.222   4.070   7.706 -0.9026 -0.5898 -1.0636
55719SOL    HW278883  12.136   3.956   7.756 -1.5108 -0.1031 -0.9893
55720SOL     OW78884   9.820  13.729  11.104  0.4933 -0.2480 -0.5315
55720SOL    HW178885   9.872  13.731  11.185 -1.3816  0.3583  0.7264
55720SOL    HW278886   9.846  13.808  11.058  0.6940  0.0477  0.0676
55721SOL     OW78887   3.166   9.851   3.389 -0.1304 -0.0351 -0.2037
55721SOL    HW178888   3.134   9.937   3.415 -2.1987 -1.0154  0.7572
55721SOL    HW278889   3.142   9.843   3.296 -0.8006  0.0929 -0.0502
55722SOL     OW78890  11.782   1.087   5.454  0.1993  0.0500 -0.1996
55722SOL    HW178891  11.715   1.054   5.394 -0.5151  2.6501 -0.9735
55722SOL    HW278892  11.734   1.145   5.513  1.3178 -0.5080  1.3188
55723SOL     OW78893   4.264   4.532   8.083 -0.1599  0.2140  0.3884
55723SOL    HW178894   4.206   4.593   8.037  0.1697  0.2563  0.0211
55723SOL    HW278895   4.309   4.587   8.147  1.8836  0.9128 -1.4933
55724SOL     OW78896   5.273  12.692   4.329 -0.8052  0.4971  0.0794
55724SOL    HW178897   5.205  12.628   4.307 -0.8686  1.3039 -2.4634
55724SOL    HW278898   5.351  12.661   4.283 -0.2556  1.1055  0.5832
55725SOL     OW78899   3.876   5.066   9.539  0.4347 -0.4059  0.1188
55725SOL    HW178900   3.787   5.100   9.526  0.4271 -0.4734 -0.0067
55725SOL    HW278901   3.932   5.130   9.495  0.5463  0.2741  1.2153
55726SOL     OW78902   1.058   4.913   6.764 -0.3817 -0.0539  0.3150
55726SOL    HW178903   0.995   4.959   6.708 -1.1041  0.9487  1.8664
55726SOL    HW278904   1.139   4.963   6.756  0.2534 -1.2563 -1.5665
55727SOL     OW78905  12.442   9.802   7.500  0.6876  0.5540  0.0437
55727SOL    HW178906  12.520   9.778   7.552  0.5182 -2.5205 -0.9614
55727SOL    HW278907  12.369   9.763   7.547 -0.0973  1.9367  0.0324
55728SOL     OW78908   4.545   4.397   1.039 -0.3465 -0.0350  0.0990
55728SOL    HW178909   4.537   4.340   0.962  0.0405 -1.3490  0.9893
55728SOL    HW278910   4.557   4.485   1.003 -1.0078 -0.4940 -1.3264
55729SOL     OW78911   6.664  11.385   7.304 -0.2745  0.2575  0.0059
55729SOL    HW178912   6.598  11.350   7.244  2.5312 -3.5487 -1.2433
55729SOL    HW278913   6.709  11.453   7.253 -0.0761 -0.6094 -1.0085
55730SOL     OW78914   7.605   0.701   7.347 -0.3710 -0.1459  0.5962
55730SOL    HW178915   7.583   0.779   7.398 -0.3725  0.8197 -0.8275
55730SOL    HW278916   7.643   0.640   7.411  0.7146  1.4628  1.5389
55731SOL     OW78917   1.401  10.221   4.913  0.2005 -0.1780 -0.1915
55731SOL    HW178918   1.403  10.199   4.820  1.0804 -1.2215  0.0615
55731SOL    HW278919   1.487  10.258   4.932 -0.0539  0.2532  0.1635
55732SOL     OW78920  13.074   8.496  10.422 -0.5084  0.4070 -0.5277
55732SOL    HW178921  13.077   8.412  10.468 -0.2681  0.4357 -0.4885
55732SOL    HW278922  13.149   8.545  10.455 -1.1222  0.9727  0.0638
55733SOL     OW78923   2.922   6.757   2.683 -0.0001 -0.1546  0.6692
55733SOL    HW178924   2.847   6.753   2.742 -0.5677  1.3398  0.1005
55733SOL    HW278925   2.910   6.839   2.635  2.8458  0.9670  1.6753
55734SOL     OW78926   6.266   0.644   9.837  0.3056  0.1492  0.3398
55734SOL    HW178927   6.188   0.648   9.893 -0.2449 -2.2556 -0.1483
55734SOL    HW278928   6.233   0.611   9.754  1.5086  1.3385 -0.6413
55735SOL     OW78929  12.179   6.693   4.779  0.3448  0.2359 -0.1692
55735SOL    HW178930  12.124   6.688   4.857  0.5801 -0.4753 -0.0361
55735SOL    HW278931  12.231   6.772   4.791  0.9539 -0.2855  0.7954
55736SOL     OW78932  12.496   0.562   7.548  0.0672  0.3389  0.7091
55736SOL    HW178933  12.469   0.473   7.569 -0.4523  0.7552  1.8623
55736SOL    HW278934  12.542   0.593   7.626  2.4762  0.2426 -0.5866
55737SOL     OW78935   9.225   6.499   6.986 -0.1753 -0.3451 -0.0368
55737SOL    HW178936   9.158   6.485   6.919 -1.9886 -0.6025  1.7340
55737SOL    HW278937   9.225   6.418   7.037  1.3366 -0.2558  0.1305
55738SOL     OW78938  12.668   8.537   2.902 -0.0436  0.2358 -0.1144
55738SOL    HW178939  12.762   8.517   2.898  0.4124  1.9597  0.7447
55738SOL    HW278940  12.663   8.628   2.875 -1.3005  0.5649  1.1474
55739SOL     OW78941   2.232   5.184   0.637  0.5029 -0.3666 -0.2923
55739SOL    HW178942   2.205   5.274   0.618  1.9222  0.5822  1.7556
55739SOL    HW278943   2.327   5.186   0.632  0.6268 -1.4364  0.9222
55740SOL     OW78944   2.275   2.943   9.526  0.3663  0.3278 -0.2928
55740SOL    HW178945   2.251   2.875   9.463 -1.4242  0.5298  0.1194
55740SOL    HW278946   2.369   2.956   9.513  1.1771 -3.4504  0.8268
55741SOL     OW78947   4.103  12.029   8.955 -0.4193 -0.3348  0.0018
55741SOL    HW178948   4.186  11.980   8.952 -0.3146 -0.1807  0.3300
55741SOL    HW278949   4.123  12.107   9.007 -0.2888  0.6277 -1.4328
55742SOL     OW78950  11.022  12.035   3.825  0.3330 -0.8910 -0.1653
55742SOL    HW178951  11.072  11.960   3.857  1.8758 -0.4954 -1.4982
55742SOL    HW278952  11.088  12.104   3.814 -0.4538 -0.3968 -2.1538
55743SOL     OW78953   2.895   4.257   1.646 -0.3948  0.4344 -0.5760
55743SOL    HW178954   2.806   4.241   1.677 -0.0879 -0.9892 -0.3906
55743SOL    HW278955   2.938   4.172   1.651  0.5728  0.8101 -1.9890
55744SOL     OW78956   3.954   5.293   2.155  0.6045  0.4606  0.4154
55744SOL    HW178957   3.931   5.202   2.174 -4.6377  1.2464 -0.6530
55744SOL    HW278958   3.936   5.339   2.237 -2.5188  1.1184 -0.4893
55745SOL     OW78959  12.603  12.529   4.327 -0.4848 -0.2301 -0.3120
55745SOL    HW178960  12.698  12.522   4.325 -0.1152  1.2650  3.5833
55745SOL    HW278961  12.572  12.438   4.322  0.9228 -0.6748 -3.0590
55746SOL     OW78962   4.737  11.922   4.484  0.0386 -0.2748 -0.2881
55746SOL    HW178963   4.726  12.004   4.435  0.1808  0.5670  1.0624
55746SOL    HW278964   4.806  11.876   4.436 -1.0788 -0.3236 -1.9519
55747SOL     OW78965  11.511  10.993  13.146 -0.0033  0.1457 -0.2294
55747SOL    HW178966  11.602  11.015  13.163  0.0806 -0.5271  0.1988
55747SOL    HW278967  11.511  10.900  13.127 -0.8843 -0.4027  2.1345
55748SOL     OW78968   2.581   8.661   9.141  0.3910  0.4646  0.0298
55748SOL    HW178969   2.577   8.625   9.053  0.9152  0.1022  0.1506
55748SOL    HW278970   2.533   8.599   9.195  0.7091  0.2938  0.1213
55749SOL     OW78971  11.125   4.632   8.315 -0.5218  0.8515  0.3107
55749SOL    HW178972  11.203   4.631   8.260  0.7774  1.1388  2.0501
55749SOL    HW278973  11.137   4.707   8.374 -1.5136  0.1920  1.4128
55750SOL     OW78974  10.196  12.139   5.351  0.0061 -0.4313 -0.1194
55750SOL    HW178975  10.252  12.182   5.416 -0.3546  1.6108 -1.0509
55750SOL    HW278976  10.171  12.056   5.391  0.9847  0.0992  1.7058
55751SOL     OW78977  11.554   4.583   1.560 -0.1228 -0.0787  0.2625
55751SOL    HW178978  11.637   4.630   1.554 -0.2556  0.0090 -1.0999
55751SOL    HW278979  11.550   4.529   1.482 -0.7365 -1.1294  0.9949
55752SOL     OW78980  10.516   7.852   6.642  0.4200 -0.3727  0.5385
55752SOL    HW178981  10.432   7.824   6.679  0.5787 -1.3187  0.1997
55752SOL    HW278982  10.577   7.781   6.663  0.8078 -0.3544 -0.4545
55753SOL     OW78983   9.243   6.577  10.933  0.3118 -0.2025  0.1173
55753SOL    HW178984   9.298   6.604  10.859  0.3862  1.2868  0.6874
55753SOL    HW278985   9.155   6.570  10.896 -0.0752  2.7032  0.2633
55754SOL     OW78986   1.669  13.041   2.732  0.4328  0.1352 -0.0156
55754SOL    HW178987   1.602  13.077   2.791 -3.2110 -2.1121 -2.3930
55754SOL    HW278988   1.704  12.966   2.780 -1.3043 -0.7042  0.0037
55755SOL     OW78989   9.258   8.316  11.075 -0.2218 -0.3242  0.0140
55755SOL    HW178990   9.233   8.401  11.040  1.5746  0.8344  1.3589
55755SOL    HW278991   9.341   8.332  11.120  0.0593 -2.7512  0.5037
55756SOL     OW78992  13.282   3.388   3.735 -0.2994  0.3165 -0.1800
55756SOL    HW178993  13.319   3.381   3.823 -1.1801  1.2134  0.2838
55756SOL    HW278994  13.322   3.468   3.699 -1.6035  1.2088  0.2676
55757SOL     OW78995   1.414  10.969   6.870 -0.5463 -0.2987 -0.0643
55757SOL    HW178996   1.420  10.884   6.826 -0.9475 -1.2016  1.5363
55757SOL    HW278997   1.323  10.975   6.898 -0.8173  1.2263 -1.1903
55758SOL     OW78998   0.399   9.194   2.490  0.3638  0.4783 -0.1887
55758SOL    HW178999   0.454   9.130   2.535  0.5258 -0.4287 -1.6113
55758SOL    HW279000   0.405   9.171   2.398 -1.0268  1.4423 -0.5669
55759SOL     OW79001   1.750   9.196  11.369 -0.3858 -0.5404 -0.3368
55759SOL    HW179002   1.800   9.276  11.383 -0.0831 -1.0093  1.5914
55759SOL    HW279003   1.808   9.125  11.396 -1.9836 -1.1003  1.9639
55760SOL     OW79004  12.666   8.128   5.123 -0.6512 -0.2317  0.1067
55760SOL    HW179005  12.760   8.111   5.120 -0.8854 -1.7342  0.4841
55760SOL    HW279006  12.652   8.198   5.059  0.5093 -1.0568 -1.1115
55761SOL     OW79007  10.285   5.335   1.080 -0.0219  0.3191 -0.0161
55761SOL    HW179008  10.211   5.282   1.049 -0.6441  1.2811 -0.2114
55761SOL    HW279009  10.300   5.398   1.010  1.3609 -0.2226 -0.2198
55762SOL     OW79010  13.179   0.170   1.510  0.4706 -0.0966 -0.3670
55762SOL    HW179011  13.094   0.200   1.478  0.8985  0.6893 -0.7889
55762SOL    HW279012  13.178   0.191   1.604  1.3532  2.7578 -0.9100
55763SOL     OW79013   9.832   1.839   4.481  0.8589 -0.2493 -0.1085
55763SOL    HW179014   9.919   1.821   4.517  0.6356 -0.1846  0.4789
55763SOL    HW279015   9.782   1.875   4.555  0.6049  0.5856 -0.6685
55764SOL     OW79016   8.308   1.034   8.273  0.2465 -0.0275 -0.5038
55764SOL    HW179017   8.340   0.954   8.232 -0.7116 -1.2846  1.1030
55764SOL    HW279018   8.216   1.040   8.246  0.0533  0.0115  0.1552
55765SOL     OW79019  11.412  13.416   7.753  0.2192 -0.5973 -0.2586
55765SOL    HW179020  11.400  13.322   7.736 -0.4704 -0.5025 -0.3442
55765SOL    HW279021  11.377  13.429   7.841  1.3686 -0.6168  0.2119
55766SOL     OW79022   2.989   3.492  12.454 -0.2049  0.3724  0.2589
55766SOL    HW179023   2.911   3.548  12.459  0.5132  1.3402  0.9348
55766SOL    HW279024   3.062   3.550  12.476  0.5997 -0.7484  0.6453
55767SOL     OW79025   3.486   0.883  13.664 -0.2906 -0.3737 -0.4054
55767SOL    HW179026   3.481   0.890  13.569 -0.9253  1.2725 -0.2833
55767SOL    HW279027   3.500   0.790  13.681 -2.8798 -1.1441 -1.9920
55768SOL     OW79028   7.169   1.561   4.684  0.4031 -0.0727 -0.1441
55768SOL    HW179029   7.119   1.508   4.622 -1.8822  2.8260 -1.0103
55768SOL    HW279030   7.232   1.609   4.630  0.4453  0.2592  0.1923
55769SOL     OW79031  11.145   4.863   3.521 -0.0212  0.1052  0.6290
55769SOL    HW179032  11.181   4.774   3.528  0.1859  0.2532  1.5585
55769SOL    HW279033  11.060   4.857   3.566 -0.7888 -0.0277 -0.7849
55770SOL     OW79034   5.599   0.170  12.717 -0.2831 -0.0196  0.3410
55770SOL    HW179035   5.551   0.245  12.752  0.4462  0.3653  0.5345
55770SOL    HW279036   5.591   0.103  12.786 -1.1943 -0.2472  0.0380
55771SOL     OW79037   9.952  13.312  12.974  0.0543  0.6384 -0.3143
55771SOL    HW179038  10.025  13.318  13.036 -0.4259 -0.8951  0.4666
55771SOL    HW279039   9.878  13.351  13.020  0.3730  2.2863 -1.1469
55772SOL     OW79040   2.268  12.199   1.171 -0.6351  0.1647 -0.1265
55772SOL    HW179041   2.331  12.268   1.149 -0.9969  0.8098  0.7740
55772SOL    HW279042   2.280  12.132   1.104  2.4252 -0.6853  1.1221
55773SOL     OW79043  10.134  11.966   2.036  0.2434  0.0463  0.1248
55773SOL    HW179044  10.127  11.950   1.942  0.8734  1.5467 -0.2159
55773SOL    HW279045  10.221  11.934   2.059  0.4193  0.4321  0.0117
55774SOL     OW79046   1.297  12.538   8.698  0.1244 -0.0316 -0.2428
55774SOL    HW179047   1.288  12.536   8.793 -1.8150 -1.5501 -0.3835
55774SOL    HW279048   1.390  12.520   8.682  0.6804  1.2204  1.3484
55775SOL     OW79049  13.221  12.631   6.747  0.2398 -0.5397 -0.1790
55775SOL    HW179050  13.278  12.569   6.792  0.7100  0.8285  1.2137
55775SOL    HW279051  13.142  12.634   6.800  0.4788  0.4911  0.1544
55776SOL     OW79052   9.496   7.911   5.836  0.3525  0.3536  0.3401
55776SOL    HW179053   9.413   7.943   5.871  0.3836 -0.0039  0.7433
55776SOL    HW279054   9.481   7.818   5.820 -0.3580  0.8539 -2.5892
55777SOL     OW79055   8.866   8.041   7.674  0.5847  0.2323 -0.3015
55777SOL    HW179056   8.821   8.125   7.673  0.4835  0.1735 -0.8328
55777SOL    HW279057   8.887   8.026   7.767 -0.7225  0.1307 -0.0102
55778SOL     OW79058  10.169   2.589   6.061 -0.0594 -0.2253 -0.0966
55778SOL    HW179059  10.230   2.516   6.072 -0.4559 -0.2843  2.3376
55778SOL    HW279060  10.222   2.667   6.075 -0.2813 -0.2232  0.7822
55779SOL     OW79061   6.835   1.725   9.636  0.6785  0.3933 -0.2155
55779SOL    HW179062   6.796   1.707   9.550  2.1118 -1.5397 -0.5225
55779SOL    HW279063   6.761   1.724   9.696  0.0585 -2.0018 -0.9402
55780SOL     OW79064  12.438   9.345   8.045 -0.3033 -0.3785  0.0066
55780SOL    HW179065  12.374   9.409   8.076  0.1164  0.0150  0.0690
55780SOL    HW279066  12.522   9.391   8.049  0.1362 -1.2232  0.9459
55781SOL     OW79067   0.644   0.115   5.367  0.2470 -0.0551  0.1152
55781SOL    HW179068   0.696   0.084   5.293 -1.2329  0.5332 -1.2326
55781SOL    HW279069   0.679   0.067   5.443  0.7678 -1.8831 -1.1996
55782SOL     OW79070   3.937   7.621   8.077 -0.5895  0.1469  0.4748
55782SOL    HW179071   3.922   7.709   8.040 -1.0237 -0.0053  0.2906
55782SOL    HW279072   4.028   7.602   8.054 -1.0609 -0.2557 -1.1978
55783SOL     OW79073   2.984  13.147   5.370  0.3379  0.1921  0.9077
55783SOL    HW179074   2.895  13.132   5.341  0.1062 -1.0699  2.1565
55783SOL    HW279075   2.989  13.242   5.387 -0.2556  0.5290 -0.6602
55784SOL     OW79076   7.387  13.263   5.723  0.1003  0.4943  0.1436
55784SOL    HW179077   7.302  13.267   5.679  0.5004  1.8475 -0.5586
55784SOL    HW279078   7.366  13.261   5.816 -0.7070 -0.1820 -0.0313
55785SOL     OW79079   2.983  11.709   1.784  0.0945  0.0414  0.3615
55785SOL    HW179080   2.905  11.764   1.792 -0.1208 -0.3229  0.8068
55785SOL    HW279081   2.984  11.657   1.864 -1.5779 -3.0141 -1.4130
55786SOL     OW79082   8.472  12.046   3.282 -0.3265 -0.2222  0.1075
55786SOL    HW179083   8.552  12.090   3.255  0.0616 -0.0550  1.4521
55786SOL    HW279084   8.409  12.065   3.213  0.4395  0.6882 -0.3559
55787SOL     OW79085   8.414   9.865   9.768  0.0969 -0.4207  0.2889
55787SOL    HW179086   8.483   9.837   9.828 -0.3934 -3.1952 -0.3039
55787SOL    HW279087   8.447   9.844   9.681  0.3767  2.6242 -0.4629
55788SOL     OW79088  11.581   0.694  10.233 -0.3604 -0.0429 -0.2150
55788SOL    HW179089  11.513   0.688  10.300 -0.5390 -2.4511 -0.5083
55788SOL    HW279090  11.650   0.636  10.265 -0.5198 -1.3678 -2.1455
55789SOL     OW79091   6.990  11.245  10.107 -0.2401 -0.5367  0.1043
55789SOL    HW179092   6.906  11.287  10.092 -1.1311 -1.4721  2.0964
55789SOL    HW279093   6.969  11.166  10.158  1.6037 -2.1159 -1.4249
55790SOL     OW79094   1.867   7.416  12.493 -0.2247  0.3473  0.9036
55790SOL    HW179095   1.917   7.488  12.454 -0.7672  1.7610  2.6815
55790SOL    HW279096   1.881   7.426  12.587  0.4550 -2.4954  1.1822
55791SOL     OW79097   4.921  13.323   9.763  0.0433 -0.5852  0.3287
55791SOL    HW179098   4.923  13.308   9.669  0.4388 -1.7469  0.5048
55791SOL    HW279099   4.897  13.415   9.772 -0.7908 -0.6567 -0.8862
55792SOL     OW79100   9.286   9.658   7.809 -0.1100 -0.0362 -0.0867
55792SOL    HW179101   9.201   9.700   7.823 -0.6755 -1.1552 -0.0474
55792SOL    HW279102   9.289   9.588   7.874  0.7294 -0.2020 -0.2883
55793SOL     OW79103   6.106   0.954   2.923 -0.2427  0.1873 -0.3396
55793SOL    HW179104   6.080   0.871   2.881  0.4815  0.0913 -0.6068
55793SOL    HW279105   6.069   0.948   3.011 -1.2981  0.1449 -0.7642
55794SOL     OW79106   8.959   9.977   7.177  0.2249  0.4975 -0.5927
55794SOL    HW179107   9.027   9.911   7.189  0.0402  0.3633 -0.2801
55794SOL    HW279108   8.936   9.969   7.084  1.0981  1.0057 -0.8658
55795SOL     OW79109   8.216   5.984  12.080  0.0271 -0.3178  0.2145
55795SOL    HW179110   8.137   5.950  12.121 -0.5099  1.4504  0.7073
55795SOL    HW279111   8.256   6.040  12.146  3.3065 -3.2940  1.0983
55796SOL     OW79112  11.758   2.895   7.895 -0.5673 -0.5626 -0.0437
55796SOL    HW179113  11.827   2.901   7.961  0.2572 -0.3242 -0.9074
55796SOL    HW279114  11.676   2.903   7.945 -0.0992 -3.1620  1.2907
55797SOL     OW79115  11.736  10.564   4.965 -0.9298 -0.2068  0.0929
55797SOL    HW179116  11.707  10.537   4.877  0.5877  1.3099 -0.9478
55797SOL    HW279117  11.771  10.652   4.952  3.6658 -1.6130  1.2377
55798SOL     OW79118  13.572  13.680   0.111  0.2711 -0.2216 -0.2333
55798SOL    HW179119  13.594  13.750   0.050  3.0304 -1.5404 -0.9612
55798SOL    HW279120  13.512  13.623   0.062 -2.4337  1.7866  0.5617
55799SOL     OW79121  12.782  10.694   5.436 -0.0770 -0.4438  0.6456
55799SOL    HW179122  12.857  10.674   5.492  0.8134 -1.2369 -0.7877
55799SOL    HW279123  12.782  10.790   5.431  1.4564 -0.4493 -0.1181
55800SOL     OW79124   7.268   2.803   0.060 -0.0472 -0.1505 -0.2263
55800SOL    HW179125   7.208   2.738   0.096  2.4600 -1.5299  1.7930
55800SOL    HW279126   7.316   2.756  -0.008  2.0499 -0.6476  1.5087
55801SOL     OW79127   5.175   7.956   1.932 -0.0434 -0.4817 -0.3152
55801SOL    HW179128   5.165   7.921   1.844  0.3597  0.5029 -0.7740
55801SOL    HW279129   5.270   7.961   1.946 -0.0566 -2.5873  1.0139
55802SOL     OW79130  11.454   7.389   9.635 -0.1880 -0.2144  0.0980
55802SOL    HW179131  11.521   7.347   9.689 -0.5439 -0.3791  0.4215
55802SOL    HW279132  11.484   7.480   9.627 -0.1687 -0.1660  0.6475
55803SOL     OW79133  13.505   1.310  10.445  0.4962  0.1515 -0.7953
55803SOL    HW179134  13.489   1.404  10.452  0.2320  0.0961 -0.6376
55803SOL    HW279135  13.599   1.302  10.430  0.8194  0.3511  0.9420
55804SOL     OW79136   4.213  10.305   7.737 -0.2307 -0.4898 -0.0237
55804SOL    HW179137   4.155  10.240   7.776 -0.5677 -0.4512 -0.4554
55804SOL    HW279138   4.222  10.373   7.804 -0.2273 -0.7693  0.2595
55805SOL     OW79139  10.623  11.897   8.918  0.0145  0.8341  0.2458
55805SOL    HW179140  10.632  11.952   8.840 -1.5965  0.1811 -0.4422
55805SOL    HW279141  10.679  11.821   8.901 -0.3397  0.6889 -0.2923
55806SOL     OW79142   4.120   2.978  13.249 -0.1878  0.0040  0.4858
55806SOL    HW179143   4.167   3.050  13.291  0.8643  0.2843 -1.0854
55806SOL    HW279144   4.046   3.020  13.205 -0.6462 -0.1395  1.1081
55807SOL     OW79145   4.147   5.330   8.934  0.0181  0.0496 -0.2129
55807SOL    HW179146   4.199   5.257   8.968  0.4400  0.7672  0.7294
55807SOL    HW279147   4.205   5.406   8.943 -0.0691  0.3780 -2.0092
55808SOL     OW79148   2.151   6.782  10.133 -0.4170 -0.0200 -0.0058
55808SOL    HW179149   2.245   6.803  10.135 -0.0801 -1.3492 -0.7360
55808SOL    HW279150   2.111   6.847  10.191  1.0466  0.1383  0.8810
55809SOL     OW79151   9.838   5.656   0.028 -0.2062  0.0838 -0.2227
55809SOL    HW179152   9.759   5.618  -0.010 -0.1134  0.6781 -1.0477
55809SOL    HW279153   9.907   5.592   0.010 -0.1115  0.4745 -1.3232
55810SOL     OW79154   9.515   1.604   1.138 -0.0646 -0.6988 -0.3916
55810SOL    HW179155   9.425   1.580   1.116  0.0714 -1.4774 -0.0974
55810SOL    HW279156   9.513   1.622   1.232 -0.0568 -0.0083 -0.5139
55811SOL     OW79157   9.286   2.733  10.634  0.5342  0.5984  0.1768
55811SOL    HW179158   9.205   2.782  10.647  0.2358 -0.0155  0.6489
55811SOL    HW279159   9.309   2.701  10.721 -0.6426 -2.2382 -0.4696
55812SOL     OW79160   7.222   9.424   4.478 -0.8761 -0.4571 -0.3348
55812SOL    HW179161   7.128   9.443   4.483 -0.6605  0.5808  0.1798
55812SOL    HW279162   7.264   9.498   4.522  0.1278 -1.5821  0.6644
55813SOL     OW79163  12.938  10.772   1.514 -0.2904 -0.0197  0.2004
55813SOL    HW179164  13.028  10.783   1.545 -0.2433  1.3948 -0.3666
55813SOL    HW279165  12.900  10.859   1.522 -0.8740 -0.0512 -1.8301
55814SOL     OW79166   9.241   8.697   8.483 -0.0023 -0.0020 -0.2840
55814SOL    HW179167   9.318   8.642   8.472 -0.2472 -0.2720 -0.6896
55814SOL    HW279168   9.251   8.766   8.417  0.9800  1.2478  1.0958
55815SOL     OW79169   5.211   2.205   0.222  0.4086 -0.1588 -0.1296
55815SOL    HW179170   5.218   2.155   0.141  0.4906  0.5932 -0.5863
55815SOL    HW279171   5.117   2.202   0.244  0.3517 -0.1555 -0.3737
55816SOL     OW79172   2.479   6.215   1.325 -0.2743  0.3427  0.0122
55816SOL    HW179173   2.497   6.262   1.244 -1.0862  1.7001  0.5883
55816SOL    HW279174   2.417   6.270   1.372  1.5152  0.5219  2.3712
55817SOL     OW79175   7.290  13.308   2.094 -0.5316  0.1075  0.0247
55817SOL    HW179176   7.240  13.338   2.169 -0.5352 -0.4976  0.2681
55817SOL    HW279177   7.243  13.342   2.018  0.2053  1.8769  0.3003
55818SOL     OW79178   4.296  11.512   3.125 -0.0653 -0.2267  0.3481
55818SOL    HW179179   4.300  11.605   3.101  0.2312  0.4194  2.6519
55818SOL    HW279180   4.294  11.466   3.041  0.8982  1.7987 -0.8744
55819SOL     OW79181   0.145   3.443  12.621 -0.6060  0.0284  0.2760
55819SOL    HW179182   0.136   3.353  12.589  1.9943  0.3186 -1.5640
55819SOL    HW279183   0.194   3.434  12.703 -1.1901 -0.2685  0.6001
55820SOL     OW79184  12.211   5.919   1.298 -0.0022 -0.2450  0.2359
55820SOL    HW179185  12.295   5.875   1.291 -0.0372 -0.6361  1.9990
55820SOL    HW279186  12.232   6.006   1.333 -0.3071 -0.2471  0.4264
55821SOL     OW79187  10.693   9.779  12.918  0.4440 -0.1958  0.4011
55821SOL    HW179188  10.759   9.727  12.873 -0.1391 -1.3690  0.8515
55821SOL    HW279189  10.640   9.715  12.966 -0.3635  0.8060  0.9042
55822SOL     OW79190   2.615   9.698   3.915  0.1669 -0.0521 -0.6014
55822SOL    HW179191   2.636   9.725   3.826  0.2631  0.2353 -0.4935
55822SOL    HW279192   2.561   9.770   3.949 -0.8422 -0.6838 -0.8119
55823SOL     OW79193   1.584   1.195   3.508 -0.4066 -0.2463  0.0071
55823SOL    HW179194   1.670   1.182   3.549 -0.0562  1.0765 -0.2447
55823SOL    HW279195   1.545   1.108   3.506  1.7078 -1.2495 -1.5939
55824SOL     OW79196   0.075   4.971   5.700  0.1081  0.3278  0.3319
55824SOL    HW179197  -0.007   4.975   5.749 -0.1598  0.1885 -0.0918
55824SOL    HW279198   0.072   4.886   5.656  0.4443  0.3553  0.2561
55825SOL     OW79199   6.584   8.297   6.737 -0.5456 -0.5552 -0.1151
55825SOL    HW179200   6.577   8.209   6.774  1.2623 -0.3778  0.7474
55825SOL    HW279201   6.605   8.353   6.812  0.8004  0.2012 -1.0163
55826SOL     OW79202  11.228   7.708   5.130  0.7103  0.2837 -0.1616
55826SOL    HW179203  11.201   7.768   5.060  1.3977  1.1553  0.3067
55826SOL    HW279204  11.313   7.674   5.102  0.0925 -0.9137 -0.6774
55827SOL     OW79205   2.788   5.871   7.727 -0.9272  0.6107  0.5968
55827SOL    HW179206   2.833   5.787   7.737 -0.9196  0.5514  0.0536
55827SOL    HW279207   2.729   5.858   7.653 -0.4489  1.2881  0.0814
55828SOL     OW79208   8.923   6.014   1.094  0.3100 -0.0823 -0.2977
55828SOL    HW179209   8.903   6.084   1.032 -0.7051 -0.3088 -0.2504
55828SOL    HW279210   9.014   6.028   1.118  0.7755 -0.0540 -1.9341
55829SOL     OW79211   2.932   7.919   6.339 -0.2996  0.1606 -0.0169
55829SOL    HW179212   2.846   7.956   6.316 -0.2869  0.0273 -0.2893
55829SOL    HW279213   2.957   7.869   6.261  0.3633  0.8126 -0.2291
55830SOL     OW79214   8.538  11.856   2.372  0.0954  0.2683 -0.1327
55830SOL    HW179215   8.452  11.825   2.398  0.6253 -0.4428  0.8243
55830SOL    HW279216   8.521  11.937   2.324 -0.9968  1.1556  1.6536
55831SOL     OW79217  12.532   1.853   7.467 -0.5637 -0.0245  0.0803
55831SOL    HW179218  12.501   1.938   7.497  0.8530  0.7640 -0.5895
55831SOL    HW279219  12.520   1.855   7.372 -0.6877 -0.6541  0.0752
55832SOL     OW79220   8.980  11.554   3.156 -1.0338  0.7371 -0.1261
55832SOL    HW179221   8.918  11.605   3.103 -1.9481  1.2326  1.3588
55832SOL    HW279222   8.932  11.532   3.235 -0.3122 -1.5869 -0.2477
55833SOL     OW79223  13.148   3.295   6.042  0.0065  0.4897 -0.3017
55833SOL    HW179224  13.108   3.224   6.093 -4.2525  3.0794  0.4776
55833SOL    HW279225  13.148   3.262   5.952 -2.6467 -0.2878 -0.1000
55834SOL     OW79226   7.094  11.465  10.255  0.3890 -0.0006 -0.6035
55834SOL    HW179227   7.067  11.394  10.197  0.3167 -0.0153 -0.5523
55834SOL    HW279228   7.148  11.423  10.321  0.8127  0.0797 -0.8946
55835SOL     OW79229  12.006  13.477   6.661 -0.1796 -0.5453 -0.1085
55835SOL    HW179230  11.948  13.413   6.702 -2.3872  1.6732  0.4530
55835SOL    HW279231  11.983  13.560   6.701  0.4837  1.1179 -2.8662
55836SOL     OW79232  11.279  10.991   4.792 -0.3484  0.4600 -0.0894
55836SOL    HW179233  11.216  10.944   4.848  0.2256  0.1412  0.2957
55836SOL    HW279234  11.342  10.923   4.766 -1.0930  0.3945 -1.8561
55837SOL     OW79235   1.467   0.886   0.863 -0.2463 -0.1238  0.0440
55837SOL    HW179236   1.550   0.867   0.819 -0.9361 -1.4103 -0.7763
55837SOL    HW279237   1.432   0.800   0.886 -0.5954  0.4693  1.8847
55838SOL     OW79238  10.068   8.967   7.528  0.6695 -0.3636 -0.0027
55838SOL    HW179239  10.084   8.916   7.607  2.2568  0.2587  0.1011
55838SOL    HW279240  10.150   9.012   7.511 -1.1030  3.6540  0.9412
55839SOL     OW79241  13.091   9.060   9.458  0.2664  0.5346  0.0960
55839SOL    HW179242  13.064   8.984   9.408  0.9644 -0.0237  0.5474
55839SOL    HW279243  13.183   9.072   9.435  1.0752 -0.6974  2.3879
55840SOL     OW79244   0.683   3.657   3.388 -0.3515 -0.1940  0.4726
55840SOL    HW179245   0.591   3.657   3.361 -0.5260 -3.6974  0.6542
55840SOL    HW279246   0.682   3.617   3.475  1.1826  2.1220  1.6673
55841SOL     OW79247   3.354   7.769  11.036 -0.3808 -0.3245 -0.2157
55841SOL    HW179248   3.366   7.722  11.119 -1.1107 -1.5133 -0.7580
55841SOL    HW279249   3.409   7.722  10.974  1.8504  1.8086 -0.0360
55842SOL     OW79250   9.806  11.476  13.116  0.3431  0.1633 -0.2225
55842SOL    HW179251   9.873  11.463  13.184 -0.5004  1.3849  0.9168
55842SOL    HW279252   9.724  11.479  13.165 -0.2429  1.5423 -1.2417
55843SOL     OW79253   1.849   1.769   4.819 -0.2272 -0.0724 -0.3404
55843SOL    HW179254   1.928   1.779   4.872 -0.2705 -0.0457 -0.2813
55843SOL    HW279255   1.777   1.767   4.883 -0.4508  1.7465 -0.4761
55844SOL     OW79256  12.948   0.056   6.369  0.1737  0.2047 -0.0712
55844SOL    HW179257  12.856   0.036   6.355  0.2153 -0.0266 -0.0149
55844SOL    HW279258  12.991   0.028   6.288  0.5516 -2.0302  0.8464
55845SOL     OW79259   9.892   7.662   0.327  0.1001 -0.0991 -0.0739
55845SOL    HW179260   9.932   7.672   0.414  1.3514  0.5123 -0.6981
55845SOL    HW279261   9.881   7.752   0.296 -0.1750 -0.3235 -0.6192
55846SOL     OW79262  12.235   0.376  10.313 -0.2989  0.1835  0.1482
55846SOL    HW179263  12.185   0.437  10.259 -0.1056  0.2384  0.0273
55846SOL    HW279264  12.169   0.325  10.360 -0.4625  0.5395  0.3104
55847SOL     OW79265  13.075   1.497  12.677 -0.2923  0.3313  0.1834
55847SOL    HW179266  13.046   1.494  12.585  0.2396 -1.6765  0.0266
55847SOL    HW279267  13.076   1.405  12.704  0.0970  0.8507  2.0463
55848SOL     OW79268   1.306   0.998   6.076  0.0962  0.5933 -0.0682
55848SOL    HW179269   1.366   0.951   6.018 -0.1166 -0.3556  0.4454
55848SOL    HW279270   1.236   1.029   6.019 -0.1988 -0.4754 -0.3163
55849SOL     OW79271   3.622   1.190   6.214  0.2161 -0.0429  0.2705
55849SOL    HW179272   3.564   1.232   6.150 -0.7428  0.2617  1.3042
55849SOL    HW279273   3.688   1.146   6.160 -1.4320 -1.0992 -1.0306
55850SOL     OW79274   0.048   2.087   2.544  0.2301 -0.1767  0.2444
55850SOL    HW179275   0.068   2.143   2.469 -0.9470  0.5735  0.4608
55850SOL    HW279276  -0.036   2.119   2.576  0.0195 -1.4264  1.0099
55851SOL     OW79277   3.334   2.130   6.606 -0.1314  0.0991  0.0383
55851SOL    HW179278   3.339   2.165   6.517 -0.4470  0.8707  0.3150
55851SOL    HW279279   3.240   2.124   6.623 -0.1383 -1.9435 -0.3928
55852SOL     OW79280   5.035  13.258  11.567  0.0663  0.2129  0.3990
55852SOL    HW179281   5.033  13.223  11.477  1.0976  0.4148  0.2843
55852SOL    HW279282   5.083  13.192  11.616 -0.6630  0.0113  0.8613
55853SOL     OW79283   2.852   5.885   8.947 -0.4706  0.7900 -0.4817
55853SOL    HW179284   2.773   5.927   8.912 -0.3091  1.9588  0.4824
55853SOL    HW279285   2.865   5.926   9.032  0.5681 -0.1823 -0.1461
55854SOL     OW79286   9.556   7.187   4.686  0.3062 -0.1250 -0.1769
55854SOL    HW179287   9.504   7.110   4.711  2.1110 -1.3306  0.0387
55854SOL    HW279288   9.618   7.198   4.758  1.9638 -0.2563 -1.5266
55855SOL     OW79289  13.234   2.551  11.037 -0.3952 -0.2022  0.6295
55855SOL    HW179290  13.233   2.468  10.990  0.1466  0.1827 -0.0718
55855SOL    HW279291  13.226   2.527  11.129 -0.9167 -0.9920  0.3808
55856SOL     OW79292   0.866   9.836   1.458  0.6588 -0.0616  0.1558
55856SOL    HW179293   0.863   9.753   1.410 -3.0380  0.8182 -1.4445
55856SOL    HW279294   0.841   9.813   1.547  2.1451 -0.9494  0.3777
55857SOL     OW79295   2.596  12.605   4.592 -0.2864  0.8268  0.0270
55857SOL    HW179296   2.652  12.563   4.657 -0.3338  0.1598 -0.3479
55857SOL    HW279297   2.526  12.541   4.577 -0.2175  0.9266 -0.7445
55858SOL     OW79298   2.914   1.546   5.494 -0.4122  0.0936 -0.4117
55858SOL    HW179299   2.920   1.635   5.460  1.7042 -0.5946 -2.0461
55858SOL    HW279300   2.944   1.554   5.585  1.3971  0.8393 -1.0247
55859SOL     OW79301   5.717   4.753   2.371 -0.6630  0.3148 -0.4883
55859SOL    HW179302   5.631   4.734   2.334  0.0018 -3.6034 -0.4538
55859SOL    HW279303   5.714   4.717   2.459  0.8726  0.3751 -0.3756
55860SOL     OW79304   1.266  11.110   7.117 -0.1501 -0.1896  0.1124
55860SOL    HW179305   1.335  11.050   7.144  1.8841  1.6679 -0.7065
55860SOL    HW279306   1.244  11.159   7.196 -1.2214 -1.3540  0.5797
55861SOL     OW79307  13.348   5.851  11.013  0.2889  0.0493  0.4054
55861SOL    HW179308  13.315   5.860  11.102  0.6117 -1.1405  0.6676
55861SOL    HW279309  13.439   5.821  11.024 -0.0861 -1.4421 -0.3042
55862SOL     OW79310   3.302  12.878   2.799  0.0864  0.8150 -0.5457
55862SOL    HW179311   3.268  12.793   2.827  1.7748  1.2214  3.5921
55862SOL    HW279312   3.375  12.856   2.740  0.0478 -0.6059 -0.1220
55863SOL     OW79313   5.394  12.601   5.334  0.1303  0.1767  0.0191
55863SOL    HW179314   5.333  12.581   5.404  0.7649  1.4451  0.9686
55863SOL    HW279315   5.448  12.522   5.325 -0.1988 -0.1292  0.6878
55864SOL     OW79316   2.278   2.209   5.688 -0.3366  0.1502 -0.0113
55864SOL    HW179317   2.295   2.303   5.679 -0.4456  0.1067 -0.7364
55864SOL    HW279318   2.292   2.191   5.781 -3.6186  1.5832  0.9296
55865SOL     OW79319  11.059   4.264  12.986  0.0397  0.7122  0.0879
55865SOL    HW179320  10.981   4.277  13.039  0.9406 -2.0755  2.3372
55865SOL    HW279321  11.030   4.210  12.912 -0.3924  0.7588  0.2222
55866SOL     OW79322   7.711   8.110  10.254  0.5741 -0.0381  0.0612
55866SOL    HW179323   7.711   8.190  10.201  2.0897  0.6082  0.9652
55866SOL    HW279324   7.634   8.118  10.310 -1.7131 -1.2421 -2.6629
55867SOL     OW79325  10.906   7.778   8.060  0.5691 -0.0647 -0.3621
55867SOL    HW179326  10.938   7.866   8.081  0.0611  0.4394 -1.6279
55867SOL    HW279327  10.932   7.763   7.970  2.1452 -1.9325  0.3300
55868SOL     OW79328   7.846  13.132   4.667 -0.3758  0.2675  0.5739
55868SOL    HW179329   7.793  13.064   4.625  3.1577 -1.6195 -1.2983
55868SOL    HW279330   7.897  13.085   4.733  1.0482  1.3458  0.2995
55869SOL     OW79331   6.083   4.550   8.392  0.0669 -0.1694  0.4483
55869SOL    HW179332   6.148   4.589   8.450  1.8989 -2.2939 -0.0351
55869SOL    HW279333   6.094   4.596   8.309  1.4306 -0.8938  0.1980
55870SOL     OW79334   0.848   7.540   3.899 -0.1596 -0.0338 -0.1262
55870SOL    HW179335   0.798   7.617   3.872 -2.1407 -0.1834  2.6733
55870SOL    HW279336   0.939   7.570   3.902 -0.3087  0.9760 -2.9726
55871SOL     OW79337   7.269  11.715   5.131 -0.1852  0.0043 -0.2152
55871SOL    HW179338   7.198  11.658   5.158 -0.6418  0.0556 -1.2356
55871SOL    HW279339   7.301  11.756   5.211 -1.0453 -0.3250  0.2985
55872SOL     OW79340  13.172   6.687   2.793 -0.4342 -0.3016  0.5634
55872SOL    HW179341  13.251   6.659   2.838 -0.3165  0.4001  0.8078
55872SOL    HW279342  13.186   6.780   2.774  0.1183 -0.8339 -2.1661
55873SOL     OW79343  10.491   6.016  11.622 -0.2931 -0.2291 -0.5128
55873SOL    HW179344  10.548   6.066  11.563 -2.0100  1.6005 -0.7538
55873SOL    HW279345  10.406   6.060  11.615 -0.8551 -0.6012  2.5149
55874SOL     OW79346   0.371  10.202   9.437 -0.2967 -0.2341  0.1551
55874SOL    HW179347   0.279  10.218   9.456 -0.5326 -1.6389  0.3358
55874SOL    HW279348   0.386  10.112   9.467  0.9772 -0.2328 -0.4159
55875SOL     OW79349   6.629   1.839   4.092 -0.2523 -0.2973 -0.3193
55875SOL    HW179350   6.657   1.764   4.041 -0.9153 -0.7435 -0.0325
55875SOL    HW279351   6.554   1.808   4.142 -0.2303  0.4127  0.1739
55876SOL     OW79352   3.046  12.274   0.049  0.7010  0.2055 -0.2318
55876SOL    HW179353   3.128  12.272   0.098  0.4166  0.5211  0.2699
55876SOL    HW279354   2.978  12.281   0.116  0.2574 -0.1496 -0.6369
55877SOL     OW79355   7.186  11.970  12.799  0.0622  1.0677  0.3384
55877SOL    HW179356   7.154  12.023  12.726 -2.8529 -1.2521 -0.2832
55877SOL    HW279357   7.266  11.929  12.765 -0.0586  1.6993 -0.7619
55878SOL     OW79358   3.604  12.702  11.039 -0.3332  0.1166 -0.4051
55878SOL    HW179359   3.553  12.642  11.094  1.0508 -1.7144 -1.0160
55878SOL    HW279360   3.582  12.675  10.949  1.9989 -1.0737 -0.6892
55879SOL     OW79361   0.861   4.465   9.586  0.1360 -1.1577  0.0506
55879SOL    HW179362   0.935   4.521   9.612  0.6474 -0.3986 -2.6587
55879SOL    HW279363   0.892   4.376   9.602  0.7791 -0.7932  0.9385
55880SOL     OW79364   9.102   8.512   3.739  0.1625  0.1108 -0.0846
55880SOL    HW179365   9.110   8.443   3.672 -0.6490 -0.0770 -0.0082
55880SOL    HW279366   9.031   8.567   3.706  0.4822  0.6349  0.1009
55881SOL     OW79367   6.542  13.445  11.396 -0.3518  0.4247  0.2203
55881SOL    HW179368   6.463  13.496  11.415  0.2447  1.0222  1.1663
55881SOL    HW279369   6.557  13.394  11.476  0.4830  0.6724  0.2320
55882SOL     OW79370  12.866  10.024   4.161  0.2419 -0.0840  0.1862
55882SOL    HW179371  12.850   9.930   4.171  1.1381 -0.0818  1.9042
55882SOL    HW279372  12.813  10.049   4.085  0.5916 -2.1171 -0.7884
55883SOL     OW79373   4.399   4.452   2.000  0.6556  0.6483  0.3243
55883SOL    HW179374   4.318   4.499   1.982  0.7095  0.4197 -0.5363
55883SOL    HW279375   4.382   4.363   1.970  0.8663  0.3332  1.1180
55884SOL     OW79376   5.944  12.220   8.261  0.0931  0.9768 -0.1265
55884SOL    HW179377   5.988  12.227   8.345 -0.5301  1.4917  0.1654
55884SOL    HW279378   5.871  12.282   8.267 -1.2906 -0.5969 -0.2050
55885SOL     OW79379  12.217   4.613   9.030 -0.4436  0.0150 -0.4872
55885SOL    HW179380  12.272   4.563   8.970  1.6967  2.6247 -0.8612
55885SOL    HW279381  12.144   4.644   8.976  1.2733  2.0299 -1.7857
55886SOL     OW79382   5.378   7.634  10.567 -0.3146  0.2620 -0.0290
55886SOL    HW179383   5.372   7.542  10.594 -1.1624  0.6066  1.0514
55886SOL    HW279384   5.399   7.631  10.474 -0.2559 -1.0246  0.0112
55887SOL     OW79385   3.152  10.157  10.709  0.0712  0.3545 -0.0854
55887SOL    HW179386   3.234  10.186  10.668  0.7636  0.2839  1.1949
55887SOL    HW279387   3.174  10.147  10.802 -1.4604  0.5663  0.3208
55888SOL     OW79388   5.017   2.204   0.986  0.4167 -0.1083  0.5063
55888SOL    HW179389   4.997   2.111   1.000 -0.8863 -0.0188 -0.5709
55888SOL    HW279390   5.075   2.204   0.910  0.0791 -0.0201  0.2474
55889SOL     OW79391   1.768  12.282   9.705 -0.1053  0.5202 -0.1652
55889SOL    HW179392   1.857  12.288   9.672 -0.5479 -0.1963 -1.5537
55889SOL    HW279393   1.725  12.361   9.672  0.3509  1.6147  1.7092
55890SOL     OW79394   1.106  11.203   8.560  0.2997  0.6759  0.2736
55890SOL    HW179395   1.059  11.215   8.478 -1.1378 -0.1107  0.9563
55890SOL    HW279396   1.095  11.286   8.607 -1.0310  0.2554  0.7282
55891SOL     OW79397   0.920  10.673  11.680 -0.1862  0.3111  0.6220
55891SOL    HW179398   0.901  10.644  11.769 -1.0156 -1.6064 -0.1108
55891SOL    HW279399   1.007  10.712  11.685 -0.4356  0.7290  2.3474
55892SOL     OW79400   5.440   2.101  12.934 -0.2773  0.3265 -0.1731
55892SOL    HW179401   5.529   2.121  12.907 -0.2596 -1.6186 -1.8671
55892SOL    HW279402   5.449   2.060  13.021  0.3417  1.0978  0.1303
55893SOL     OW79403  10.946   8.712   9.107  0.3148 -0.0299  0.0945
55893SOL    HW179404  10.877   8.760   9.060  0.2310  0.4251  0.6675
55893SOL    HW279405  10.998   8.781   9.149  1.2424 -0.3616 -0.4964
55894SOL     OW79406   8.994   6.322  12.232 -0.7767  0.4094 -0.6298
55894SOL    HW179407   8.968   6.276  12.312 -0.0860  1.0290 -0.0346
55894SOL    HW279408   9.014   6.253  12.170  0.9359 -0.1492  0.4691
55895SOL     OW79409   4.891   2.038   8.915 -0.2230  0.4313  0.2195
55895SOL    HW179410   4.865   1.967   8.857  2.0877  0.0113 -0.3970
55895SOL    HW279411   4.922   1.994   8.994  1.2633  0.7182 -0.1828
55896SOL     OW79412   7.732   0.281   7.796 -0.3095  0.1976  0.2179
55896SOL    HW179413   7.720   0.273   7.890  0.0992  0.7202  0.3170
55896SOL    HW279414   7.689   0.363   7.773  0.3854  0.5392  0.1014
55897SOL     OW79415   1.162   0.410  10.955 -0.5106  0.8850  0.0440
55897SOL    HW179416   1.198   0.397  11.043 -1.0678  3.9249  0.8272
55897SOL    HW279417   1.211   0.483  10.919 -2.7572  2.1248 -0.6710
55898SOL     OW79418   9.244  10.409   1.117  0.0400 -0.1353  0.0771
55898SOL    HW179419   9.281  10.483   1.071 -0.7851  0.0044 -0.3906
55898SOL    HW279420   9.319  10.357   1.145  0.5751 -0.1193 -1.2582
55899SOL     OW79421  12.257  10.016   3.656 -0.0915  0.4940  0.2038
55899SOL    HW179422  12.174  10.030   3.611 -0.2763 -0.0777  0.3553
55899SOL    HW279423  12.305   9.954   3.600 -0.3372 -0.2439  0.7875
55900SOL     OW79424  11.335  13.724   8.615 -0.0131 -0.8347 -0.0305
55900SOL    HW179425  11.298  13.722   8.703 -0.6994 -1.8165 -0.3221
55900SOL    HW279426  11.265  13.760   8.561  0.9578  1.3209  0.0387
55901SOL     OW79427   6.266   2.638   0.941  0.2289 -0.5003  0.2338
55901SOL    HW179428   6.212   2.580   0.888 -1.9575  2.7199 -1.4107
55901SOL    HW279429   6.236   2.624   1.031 -1.4390 -0.7626 -0.3379
55902SOL     OW79430   1.390   6.130  12.819  0.2844  0.0698  1.0091
55902SOL    HW179431   1.437   6.211  12.798  1.4773 -0.7530  0.3694
55902SOL    HW279432   1.423   6.105  12.905 -0.1306  0.3000  1.2344
55903SOL     OW79433   6.456   3.559   4.759  0.1670 -0.1847  0.0478
55903SOL    HW179434   6.469   3.535   4.851  0.9751  0.9427  0.2614
55903SOL    HW279435   6.386   3.623   4.760  1.2670  1.0671  0.1138
55904SOL     OW79436   9.465   3.893   7.033  0.5796  0.1857 -0.1840
55904SOL    HW179437   9.512   3.906   6.951  0.7499 -1.0173 -0.3037
55904SOL    HW279438   9.501   3.812   7.068  0.0492  0.3460  0.7573
55905SOL     OW79439  11.478  12.190   8.396 -0.1865 -0.1483  0.2143
55905SOL    HW179440  11.530  12.111   8.409 -0.5638 -0.6614 -1.1920
55905SOL    HW279441  11.538  12.253   8.357  0.3551  0.6151  2.1619
55906SOL     OW79442   2.997   6.552   2.523 -0.2321  0.2299 -0.0654
55906SOL    HW179443   2.980   6.637   2.563 -0.8421  0.2812 -0.4192
55906SOL    HW279444   2.924   6.539   2.462 -0.0860 -0.4919 -0.0985
55907SOL     OW79445   1.209  10.973   4.863 -0.0954 -0.2049 -0.4461
55907SOL    HW179446   1.296  11.009   4.846 -0.0868 -0.2335 -0.4627
55907SOL    HW279447   1.184  10.931   4.781  0.4133 -1.3141 -0.0528
55908SOL     OW79448   2.543   0.907   6.232  0.2133 -0.1795 -0.1478
55908SOL    HW179449   2.530   0.995   6.266 -0.7318 -0.7991  1.1894
55908SOL    HW279450   2.634   0.906   6.201 -0.0513  1.5280 -1.0729
55909SOL     OW79451   6.695   1.737   1.698  0.1798 -0.1946 -0.5073
55909SOL    HW179452   6.616   1.792   1.690 -0.3580 -1.1258 -1.9862
55909SOL    HW279453   6.765   1.792   1.663  0.3447  0.8490  1.3147
55910SOL     OW79454   8.094   0.323   7.894 -0.2301 -0.4526 -0.4633
55910SOL    HW179455   8.136   0.246   7.856  1.3419 -0.4947  1.1843
55910SOL    HW279456   8.097   0.307   7.989 -3.5866 -0.1911 -0.1965
55911SOL     OW79457   3.846   5.596   4.980  0.1074  0.0009 -0.1777
55911SOL    HW179458   3.831   5.670   5.038  0.7103  1.0650 -1.3165
55911SOL    HW279459   3.814   5.626   4.894 -0.3984 -1.3687 -0.5021
55912SOL     OW79460  11.511   4.531   4.934  0.1064 -0.3768  0.0501
55912SOL    HW179461  11.559   4.597   4.885  1.2323 -0.8902  0.4127
55912SOL    HW279462  11.471   4.578   5.007  1.1790 -0.1363  0.4975
55913SOL     OW79463  12.856   6.486  10.032 -0.1303 -0.2475  0.8832
55913SOL    HW179464  12.862   6.541   9.954 -1.3296 -0.6616  0.4637
55913SOL    HW279465  12.764   6.457  10.033  0.3475 -1.8240  1.3562
55914SOL     OW79466   9.438   5.220   1.558 -0.4633 -0.5167  0.2120
55914SOL    HW179467   9.491   5.240   1.482 -1.9888 -0.2649 -0.8369
55914SOL    HW279468   9.421   5.126   1.551 -0.9141 -0.4251  0.0150
55915SOL     OW79469   9.985   5.483  11.003  0.4879 -0.1511 -0.0026
55915SOL    HW179470   9.905   5.434  11.021  0.2016  0.7820  1.3698
55915SOL    HW279471   9.957   5.575  11.002  0.8792  0.0508 -3.1600
55916SOL     OW79472  11.610  12.493  12.895  0.4621 -0.8223  0.1512
55916SOL    HW179473  11.687  12.438  12.880  1.1920  0.4251 -0.8773
55916SOL    HW279474  11.601  12.545  12.815  1.2665  2.2941  1.9235
55917SOL     OW79475   6.047  12.863  10.787  0.0332  0.1712  0.5792
55917SOL    HW179476   6.021  12.857  10.879 -0.1975  1.9656  0.6737
55917SOL    HW279477   5.988  12.803  10.741  1.2079 -1.9704  1.7556
55918SOL     OW79478   8.046  10.606   1.606 -0.5965  0.0985  0.7916
55918SOL    HW179479   8.103  10.661   1.660  0.5247  0.2409 -0.4668
55918SOL    HW279480   7.968  10.659   1.591 -0.7350  0.2236  1.8799
55919SOL     OW79481   9.014   4.090  11.989  0.6764  0.4515 -0.6924
55919SOL    HW179482   9.050   4.153  11.927 -0.4086 -0.1378 -1.9685
55919SOL    HW279483   9.073   4.015  11.983  2.3677  1.5190  1.3326
55920SOL     OW79484   9.766   3.905   2.131  0.0522  0.0289 -0.2130
55920SOL    HW179485   9.731   3.841   2.193  0.6782 -0.1887 -0.0737
55920SOL    HW279486   9.734   3.990   2.163 -0.3978 -0.1684 -0.1330
55921SOL     OW79487   3.842   3.190   4.490 -0.4196  0.0734  0.3443
55921SOL    HW179488   3.885   3.200   4.405  1.2611 -0.3935  1.0963
55921SOL    HW279489   3.878   3.261   4.543 -0.0554 -0.7345  1.1946
55922SOL     OW79490   9.043   3.221   5.148  0.3953 -0.1059 -0.2023
55922SOL    HW179491   9.131   3.247   5.123  1.2434 -1.2971  1.3897
55922SOL    HW279492   9.053   3.183   5.235 -1.6049 -0.7809 -0.2173
55923SOL     OW79493  12.463   2.032  11.539  0.1567  0.1525 -0.2691
55923SOL    HW179494  12.520   2.096  11.582 -1.5536  1.7533 -0.2981
55923SOL    HW279495  12.464   2.057  11.447  1.6022 -1.5794 -0.7909
55924SOL     OW79496  13.745  13.242   1.254  0.3323  0.1691 -0.0454
55924SOL    HW179497  13.796  13.267   1.330 -0.6239 -0.5986  0.8840
55924SOL    HW279498  13.654  13.247   1.284 -0.0091 -1.4447 -0.7117
55925SOL     OW79499   0.721  10.998   8.597  0.0681 -0.1040 -0.1698
55925SOL    HW179500   0.790  10.991   8.663  0.5016  0.5478 -0.5570
55925SOL    HW279501   0.745  10.934   8.531  0.4270  0.2781 -0.4133
55926SOL     OW79502   4.287   8.415   0.736 -0.0506 -0.3822 -0.1936
55926SOL    HW179503   4.373   8.391   0.771 -0.0442  0.6392  0.5200
55926SOL    HW279504   4.301   8.429   0.643  1.3670  3.1405  0.3982
55927SOL     OW79505   8.723  12.266   1.552 -0.0494 -0.4217 -0.7162
55927SOL    HW179506   8.734  12.349   1.598 -1.3451 -0.8358  0.4058
55927SOL    HW279507   8.759  12.282   1.465  1.7266  0.6358  0.1508
55928SOL     OW79508  13.586   6.874   3.926 -0.1486  0.0984 -0.2392
55928SOL    HW179509  13.659   6.905   3.979 -0.9673 -1.1967  1.7840
55928SOL    HW279510  13.531   6.826   3.988 -1.9279 -0.2604 -2.0098
55929SOL     OW79511   5.043   3.781   6.828  0.1672 -0.6805  0.4595
55929SOL    HW179512   5.016   3.702   6.876  0.6530 -0.8566  0.4481
55929SOL    HW279513   4.961   3.824   6.805 -0.0970 -1.0736  0.6511
55930SOL     OW79514   0.641   3.717   9.742  0.1531 -0.0751 -1.0076
55930SOL    HW179515   0.674   3.627   9.745 -0.4850 -0.3063  1.0981
55930SOL    HW279516   0.700   3.762   9.682  0.7597 -1.7911 -1.7749
55931SOL     OW79517   9.240   6.444  13.249  0.5489  0.3568  0.0545
55931SOL    HW179518   9.196   6.368  13.287  1.2370  0.0943  0.3509
55931SOL    HW279519   9.240   6.509  13.319  1.7004 -0.0794  0.4785
55932SOL     OW79520   3.290   5.735  11.407  0.1073 -0.3218  0.5178
55932SOL    HW179521   3.262   5.708  11.494 -0.5740 -1.4655 -0.0242
55932SOL    HW279522   3.303   5.653  11.359  1.4493  0.2548 -0.1716
55933SOL     OW79523   4.876   8.460  12.697  0.3136  0.0575 -0.2896
55933SOL    HW179524   4.918   8.531  12.745 -0.5552  0.4428 -0.0686
55933SOL    HW279525   4.801   8.502  12.654 -0.9339 -0.9505  0.8513
55934SOL     OW79526   5.506   0.055   4.475  0.0711  0.4387 -1.0252
55934SOL    HW179527   5.489  -0.028   4.430 -0.3837  0.2890 -0.5954
55934SOL    HW279528   5.441   0.115   4.439 -0.6499  0.1767 -0.2131
55935SOL     OW79529   8.749   4.326  12.196  0.0238  0.4118 -0.3264
55935SOL    HW179530   8.834   4.364  12.172 -0.5659  3.3428  1.7389
55935SOL    HW279531   8.771   4.256  12.257  1.0134 -0.8169 -1.9890
55936SOL     OW79532   4.338   9.739   5.213 -0.2703 -0.2210 -0.2527
55936SOL    HW179533   4.395   9.784   5.150 -1.0759 -0.6200 -1.3035
55936SOL    HW279534   4.352   9.646   5.196 -0.5531 -0.3299  0.0989
55937SOL     OW79535   6.276   1.431   3.072 -0.0916 -0.1883 -0.0796
55937SOL    HW179536   6.264   1.440   2.977  0.3053 -0.6623 -0.1823
55937SOL    HW279537   6.188   1.428   3.108 -0.3452 -2.9738 -0.7249
55938SOL     OW79538   3.534   7.076  11.468 -0.1086 -0.3262  0.4625
55938SOL    HW179539   3.511   6.994  11.512  1.6875 -1.0298  0.1769
55938SOL    HW279540   3.591   7.121  11.530  1.9027 -1.0198 -0.7705
55939SOL     OW79541   4.635   6.304   6.665  0.2689  0.2598  0.0877
55939SOL    HW179542   4.679   6.336   6.586 -0.8272  2.5737  0.3388
55939SOL    HW279543   4.546   6.283   6.636  0.4612 -0.8977  0.3064
55940SOL     OW79544   7.679  11.829  10.164  0.0100  0.3929 -0.0679
55940SOL    HW179545   7.625  11.792  10.093 -1.6046  1.4280  0.5931
55940SOL    HW279546   7.744  11.760  10.181  0.4673  0.1064 -2.5389
55941SOL     OW79547   3.902  11.797   5.562  0.2629 -0.1153 -0.3258
55941SOL    HW179548   3.816  11.833   5.586 -0.2325 -2.0360  1.1021
55941SOL    HW279549   3.962  11.833   5.627  0.3529  0.4374 -0.7107
55942SOL     OW79550   4.983   4.364   7.104 -0.0173  0.2007  0.8657
55942SOL    HW179551   4.964   4.386   7.195  0.1389  0.1479  0.9113
55942SOL    HW279552   4.955   4.441   7.054  1.9083  1.1752  1.1661
55943SOL     OW79553   8.504   3.704  13.348 -0.3286 -0.3264  0.2658
55943SOL    HW179554   8.529   3.649  13.274  0.2445 -0.1121  0.2960
55943SOL    HW279555   8.413   3.729  13.330  0.2059  0.7596 -1.0150
55944SOL     OW79556   4.546   9.796   2.022 -0.4769  0.8280 -0.1271
55944SOL    HW179557   4.464   9.813   1.976 -1.6337 -0.7697  1.2269
55944SOL    HW279558   4.521   9.798   2.115  0.2690 -2.7915  0.2881
55945SOL     OW79559   0.827  11.846   0.587  0.3017 -0.0301  0.2997
55945SOL    HW179560   0.747  11.815   0.543 -0.3755 -0.5576  1.8366
55945SOL    HW279561   0.843  11.782   0.656  1.0248  1.0495  1.1715
55946SOL     OW79562   8.838   7.605   8.702 -0.0793  0.4019  0.1241
55946SOL    HW179563   8.929   7.581   8.716  0.3351  1.9260  0.1124
55946SOL    HW279564   8.791   7.561   8.773  0.8091  0.5031  0.7875
55947SOL     OW79565   5.811  10.852   2.776 -0.8530 -0.7749 -0.0127
55947SOL    HW179566   5.826  10.804   2.694  0.4640 -1.3695  0.5436
55947SOL    HW279567   5.811  10.784   2.843  2.0455  0.0270  0.9147
55948SOL     OW79568   5.027   0.903   3.384  0.0495 -0.5303 -0.4069
55948SOL    HW179569   5.039   0.809   3.398  1.7623 -0.1306  1.2132
55948SOL    HW279570   5.063   0.920   3.297  0.0645 -1.3088 -0.5574
55949SOL     OW79571  13.485   6.345   9.617 -0.4435 -0.5722 -0.1919
55949SOL    HW179572  13.470   6.422   9.672  0.1156 -0.4725 -0.1668
55949SOL    HW279573  13.398   6.313   9.595 -0.6745 -0.4451  0.5200
55950SOL     OW79574   0.700   1.298  13.160  0.0849 -0.2194 -0.2105
55950SOL    HW179575   0.739   1.301  13.073  0.6748  0.9577  0.0784
55950SOL    HW279576   0.666   1.209  13.168 -2.2184  0.2984 -2.6177
55951SOL     OW79577  11.034   2.326  10.162 -0.3998  0.2667  0.2451
55951SOL    HW179578  10.986   2.291  10.237 -0.4358  0.5332  0.3484
55951SOL    HW279579  10.990   2.289  10.086  0.5819 -1.2498  0.3712
55952SOL     OW79580  11.908   8.680   3.891  0.0864 -0.4445 -0.2141
55952SOL    HW179581  11.922   8.648   3.802  0.7792 -0.1153 -0.2249
55952SOL    HW279582  11.849   8.616   3.930 -0.3991 -0.4744 -0.9764
55953SOL     OW79583   0.164   8.278   8.737 -0.1327  0.2164  0.4844
55953SOL    HW179584   0.226   8.261   8.667  0.9452  1.5513  1.0688
55953SOL    HW279585   0.087   8.225   8.715  0.3944  0.1834 -1.3928
55954SOL     OW79586   0.021  11.478  13.087  0.1412  0.4304 -0.0068
55954SOL    HW179587   0.076  11.533  13.031  0.9912 -0.0806  0.3191
55954SOL    HW279588   0.079  11.447  13.156 -0.4554 -0.4400  0.1267
55955SOL     OW79589   3.775   9.325   5.671 -0.0493 -0.1020  0.4353
55955SOL    HW179590   3.744   9.397   5.615 -0.4637 -1.6691 -1.4950
55955SOL    HW279591   3.817   9.265   5.610  2.2196 -0.5154  2.3070
55956SOL     OW79592   9.309   9.138   1.424 -0.3666  0.1326  0.2674
55956SOL    HW179593   9.229   9.191   1.426  0.3031  1.1726  0.1999
55956SOL    HW279594   9.285   9.058   1.472 -1.6523  0.1044 -0.3787
55957SOL     OW79595   5.736  10.685   9.697 -0.1040  0.0869  0.5635
55957SOL    HW179596   5.691  10.603   9.718  1.3142 -0.4342  1.7088
55957SOL    HW279597   5.670  10.753   9.713 -0.4781 -0.6459  2.3740
55958SOL     OW79598   5.877   1.461   2.035 -0.0692 -0.4378  0.0087
55958SOL    HW179599   5.822   1.402   2.086  0.3524  0.2675  1.3181
55958SOL    HW279600   5.950   1.483   2.093  0.2346  0.6979 -0.7611
55959SOL     OW79601   1.051   7.756   1.670  0.5854  0.4044  0.1434
55959SOL    HW179602   0.973   7.811   1.674 -0.5675 -0.9529 -1.7380
55959SOL    HW279603   1.061   7.736   1.577  1.2948 -2.0028  0.6613
55960SOL     OW79604  10.052  12.143   5.086  0.1853  0.1996 -0.0019
55960SOL    HW179605  10.134  12.106   5.119 -0.5039  0.6230  2.4081
55960SOL    HW279606   9.989  12.071   5.093  0.2694 -0.0666 -1.6580
55961SOL     OW79607   8.349   8.021   7.260  0.6612 -0.5214 -0.5964
55961SOL    HW179608   8.349   8.093   7.197  0.9637  1.3007  1.3401
55961SOL    HW279609   8.273   8.037   7.315 -1.1441 -3.5645 -1.9500
55962SOL     OW79610  11.953   5.959   0.410 -0.4778 -0.4212  0.4194
55962SOL    HW179611  11.865   5.994   0.394 -0.0284  0.5607  0.0279
55962SOL    HW279612  11.972   5.906   0.333 -0.6128 -0.4048  0.3740
55963SOL     OW79613  13.039  10.514   1.349 -0.1552  0.0841 -0.2317
55963SOL    HW179614  12.948  10.513   1.319  0.2402  0.7456 -1.4946
55963SOL    HW279615  13.038  10.571   1.427 -0.7972  0.1894 -0.3145
55964SOL     OW79616   6.345  11.379   1.235  0.5814 -0.2410 -0.0815
55964SOL    HW179617   6.408  11.348   1.170  0.6234  1.3036 -0.8162
55964SOL    HW279618   6.288  11.438   1.186  0.2136  0.4540  1.1548
55965SOL     OW79619   8.796   1.187   6.977 -0.4802  0.0226 -0.5601
55965SOL    HW179620   8.813   1.260   7.037 -1.0701 -0.8238  0.6835
55965SOL    HW279621   8.702   1.170   6.985 -0.4161 -0.6409 -1.1075
55966SOL     OW79622   0.407  12.247   3.485  0.1193  0.1865 -0.0816
55966SOL    HW179623   0.374  12.248   3.575  2.0029 -1.4554  0.6956
55966SOL    HW279624   0.432  12.156   3.469 -0.6679  0.3237 -2.4962
55967SOL     OW79625   4.979   5.999  11.088 -0.6726 -0.1673 -0.4010
55967SOL    HW179626   5.015   5.980  11.001  1.7345 -0.1023  0.5214
55967SOL    HW279627   5.007   5.926  11.142 -1.5310  0.1603  0.5160
55968SOL     OW79628   6.904   9.525   2.101 -0.4648  0.1857 -0.0265
55968SOL    HW179629   6.866   9.511   2.187 -1.5472  0.6239 -0.4176
55968SOL    HW279630   6.976   9.587   2.116 -0.0896 -0.4063  0.6746
55969SOL     OW79631   0.476   9.464   2.460  0.2833  0.4356 -0.1532
55969SOL    HW179632   0.432   9.379   2.454 -0.5465  0.7193  1.4138
55969SOL    HW279633   0.412   9.527   2.427  0.2540  0.6271  0.2591
55970SOL     OW79634  11.164   6.253   8.369  0.5123  0.9652  0.4486
55970SOL    HW179635  11.174   6.165   8.332 -2.9420 -0.2566  1.8984
55970SOL    HW279636  11.211   6.248   8.453  0.1962  0.4090  0.6028
55971SOL     OW79637   4.630  12.247   5.732  0.6280 -0.2988  0.0513
55971SOL    HW179638   4.715  12.287   5.711  0.5326 -1.1874 -2.2948
55971SOL    HW279639   4.627  12.167   5.679 -1.7053 -0.2585  0.0276
55972SOL     OW79640  12.546   2.603   2.692  0.4751  0.1943  0.2322
55972SOL    HW179641  12.624   2.577   2.742  2.0111  0.1491 -2.0191
55972SOL    HW279642  12.559   2.563   2.606 -2.4948 -0.4977  0.0027
55973SOL     OW79643   2.576   1.452  11.336 -0.0592  0.0571 -0.9539
55973SOL    HW179644   2.573   1.443  11.431  1.5637 -0.1154 -0.9025
55973SOL    HW279645   2.491   1.491  11.314  0.0374  1.3307  0.6978
55974SOL     OW79646   3.647   9.760  12.598 -0.4352 -0.1682 -0.7249
55974SOL    HW179647   3.613   9.671  12.592 -3.3835  0.8122 -0.1140
55974SOL    HW279648   3.630   9.798  12.511  0.5552 -0.0987 -0.8959
55975SOL     OW79649   8.200   3.647   7.112  0.4111  0.4849  0.4167
55975SOL    HW179650   8.213   3.632   7.206 -1.3513 -0.3781  0.5709
55975SOL    HW279651   8.166   3.736   7.106 -1.7004 -0.2152  0.9015
55976SOL     OW79652  13.665  11.581  12.534  0.0037  1.0962 -0.8159
55976SOL    HW179653  13.646  11.674  12.521  1.0024  1.2708 -1.0908
55976SOL    HW279654  13.743  11.580  12.590  0.6520  0.4502 -1.6974
55977SOL     OW79655   8.635  10.410   2.512  0.7478 -0.4819  0.3388
55977SOL    HW179656   8.649  10.427   2.419 -0.7829 -1.2481 -0.0784
55977SOL    HW279657   8.586  10.328   2.514 -1.8245  0.9204  1.5992
55978SOL     OW79658   9.692   2.261   1.416  0.1150  0.2297  0.6075
55978SOL    HW179659   9.727   2.204   1.348  1.3719  0.0175  1.4125
55978SOL    HW279660   9.603   2.281   1.387  0.9291  0.9331 -1.5918
55979SOL     OW79661   7.460  11.834   0.606  0.8814 -0.4827  0.5929
55979SOL    HW179662   7.400  11.907   0.623 -0.4301 -1.4264  0.1928
55979SOL    HW279663   7.507  11.822   0.688  0.1696 -0.0240  1.0765
55980SOL     OW79664  12.348   9.398   3.389 -0.6764  0.3220 -0.8455
55980SOL    HW179665  12.288   9.457   3.344 -3.5228  1.0771  3.3331
55980SOL    HW279666  12.292   9.335   3.433  1.7684 -0.6195  1.2030
55981SOL     OW79667   3.407  12.750  13.315 -0.1812 -0.0775  0.0478
55981SOL    HW179668   3.439  12.831  13.355  1.3933 -0.3387 -0.6237
55981SOL    HW279669   3.476  12.724  13.255 -1.9686 -0.3316 -2.0100
55982SOL     OW79670   1.552  13.718   4.266 -0.2354 -0.3695 -0.1639
55982SOL    HW179671   1.544  13.626   4.290 -0.5159 -0.5475 -0.9130
55982SOL    HW279672   1.641  13.742   4.293 -0.8814 -0.2628  1.9819
55983SOL     OW79673  10.856   6.750   6.118 -0.2995 -0.3282  0.3317
55983SOL    HW179674  10.829   6.841   6.105 -0.7582 -0.3767  0.8913
55983SOL    HW279675  10.899   6.726   6.036  2.2992  1.2210  1.1407
55984SOL     OW79676  12.521   5.092   9.850  0.1919  0.0576  0.0518
55984SOL    HW179677  12.458   5.089   9.921  0.2168 -1.4615  0.0307
55984SOL    HW279678  12.586   5.025   9.872 -0.3757 -1.2032 -1.9108
55985SOL     OW79679   0.883   5.376   8.145 -0.1718 -0.3150 -0.0219
55985SOL    HW179680   0.797   5.400   8.110  0.1218  1.5675  0.4304
55985SOL    HW279681   0.914   5.306   8.087 -1.7690 -0.6520 -0.5096
55986SOL     OW79682   9.397  11.423  11.185 -0.1598 -0.1226 -0.1276
55986SOL    HW179683   9.354  11.341  11.163 -0.2319  0.3041 -1.6841
55986SOL    HW279684   9.333  11.491  11.164  0.6170  0.4269 -0.7902
55987SOL     OW79685   5.076  12.147   8.735 -0.0077 -0.5079  0.3380
55987SOL    HW179686   5.148  12.203   8.766  0.4812 -0.3805 -0.9709
55987SOL    HW279687   5.106  12.058   8.752  2.4618 -0.7656 -3.8903
55988SOL     OW79688  10.322  13.069   4.040  0.3923 -0.1379  0.6222
55988SOL    HW179689  10.289  13.152   4.072 -1.1014 -1.5703  3.1259
55988SOL    HW279690  10.347  13.021   4.119 -0.2597 -2.6242 -0.5699
55989SOL     OW79691   9.263   5.697   9.295 -0.6922  0.1960 -0.3040
55989SOL    HW179692   9.332   5.694   9.362  0.0703 -0.6714 -1.1014
55989SOL    HW279693   9.193   5.749   9.335  1.0725  2.5755 -0.0896
55990SOL     OW79694   0.381   9.994  11.251  0.5369 -0.4470  0.3072
55990SOL    HW179695   0.406  10.086  11.253 -1.0310 -0.0043  1.1830
55990SOL    HW279696   0.411   9.963  11.166  2.6627  0.3862  0.6768
55991SOL     OW79697  10.745  12.992   4.203  0.0235 -0.6878  0.3983
55991SOL    HW179698  10.821  13.039   4.171  0.1985 -1.4515 -0.3367
55991SOL    HW279699  10.781  12.920   4.254 -0.2448  0.0002  1.6123
55992SOL     OW79700  12.052   8.183   2.773 -0.3549 -0.7604 -0.0481
55992SOL    HW179701  11.977   8.174   2.832 -0.6240 -0.4164 -0.3296
55992SOL    HW279702  12.065   8.095   2.738 -1.2318 -0.6419 -0.7102
55993SOL     OW79703   8.643   0.563   2.217  0.2155 -0.1096  0.5525
55993SOL    HW179704   8.626   0.529   2.130  1.0529  1.3235 -0.2165
55993SOL    HW279705   8.739   0.560   2.225  0.2831  1.4327  0.6747
55994SOL     OW79706   7.862  11.707   1.345 -0.4644 -0.2550  0.0249
55994SOL    HW179707   7.813  11.674   1.270  1.1441 -1.9804 -0.3326
55994SOL    HW279708   7.941  11.653   1.348  0.3616  0.9555  1.9012
55995SOL     OW79709  13.482   5.976   2.777 -0.4162 -0.2771 -0.0344
55995SOL    HW179710  13.577   5.969   2.770 -0.3173  0.3808  0.4767
55995SOL    HW279711  13.461   5.937   2.862 -0.3329  1.5274  0.8620
55996SOL     OW79712   0.924  12.110   5.447 -1.0223  0.1004 -0.1372
55996SOL    HW179713   0.914  12.026   5.404 -0.4800 -0.1960  0.2989
55996SOL    HW279714   0.921  12.174   5.376 -2.8791 -0.1529 -0.3447
55997SOL     OW79715   5.913  11.155   3.456  0.0082 -0.2773  0.7236
55997SOL    HW179716   5.984  11.138   3.517  0.7006 -3.5859 -0.7917
55997SOL    HW279717   5.833  11.145   3.508  0.6008 -0.9990  1.5056
55998SOL     OW79718   1.499  11.732   7.383 -0.3436 -0.3807 -0.3788
55998SOL    HW179719   1.556  11.807   7.367 -2.2366  0.7241 -2.6881
55998SOL    HW279720   1.423  11.769   7.428 -0.6154 -1.2296 -0.1182
55999SOL     OW79721  11.933   2.219   9.059 -0.1037  0.5196 -0.5562
55999SOL    HW179722  11.964   2.139   9.101 -0.9510  0.0524 -0.7843
55999SOL    HW279723  11.909   2.276   9.132  0.2250  0.4518 -0.3942
56000SOL     OW79724   3.264  13.705   3.422 -0.3733  1.0389 -0.0692
56000SOL    HW179725   3.190  13.751   3.463 -1.1173 -1.7925  2.1029
56000SOL    HW279726   3.329  13.697   3.492  0.5590  0.5709 -0.9682
56001SOL     OW79727  13.075   4.825  10.512 -0.6328  0.0395 -0.5079
56001SOL    HW179728  13.074   4.883  10.435 -1.4563  1.1278  0.2847
56001SOL    HW279729  13.061   4.884  10.586  0.5511 -0.9290  0.5345
56002SOL     OW79730   3.529   1.193   4.952  0.3919  0.0113  0.3258
56002SOL    HW179731   3.613   1.223   4.918 -0.3305 -0.3443 -1.8894
56002SOL    HW279732   3.549   1.162   5.040  2.9408 -1.6126 -0.7168
56003SOL     OW79733   7.791   8.888   3.322 -0.0213 -0.1021 -0.1835
56003SOL    HW179734   7.778   8.793   3.319 -1.6091  0.0972 -1.0137
56003SOL    HW279735   7.834   8.909   3.239  0.3689 -0.1033  0.0194
56004SOL     OW79736   7.647   7.264   7.423 -0.7212 -0.0907  0.1189
56004SOL    HW179737   7.632   7.244   7.515  2.1809  1.3986  1.0141
56004SOL    HW279738   7.729   7.219   7.401  1.1288  3.2215 -0.3220
56005SOL     OW79739   3.240   6.939   7.429  0.1309  0.5609  0.0167
56005SOL    HW179740   3.149   6.920   7.450  0.7542 -2.3670  0.5196
56005SOL    HW279741   3.242   6.941   7.333 -0.4758  0.7538  0.0052
56006SOL     OW79742   2.656   8.913   0.238 -0.3217  0.4325 -0.4148
56006SOL    HW179743   2.645   8.985   0.299 -1.8108 -0.1519  0.0673
56006SOL    HW279744   2.574   8.864   0.244  0.8432 -1.6094 -0.3141
56007SOL     OW79745  13.137   3.242   1.112 -0.5395  0.2750  0.4599
56007SOL    HW179746  13.209   3.286   1.066 -1.5674  2.7596  1.0412
56007SOL    HW279747  13.180   3.192   1.182  0.7613 -0.4135 -0.7717
56008SOL     OW79748  10.967   9.667   7.189 -0.7650  0.3105 -0.3193
56008SOL    HW179749  11.049   9.655   7.236 -1.0171  0.4891  0.1685
56008SOL    HW279750  10.993   9.671   7.097 -0.0758  1.8110 -0.0797
56009SOL     OW79751   1.012  10.450   9.563  0.3511  0.1093  0.2808
56009SOL    HW179752   0.962  10.525   9.530  4.2299  2.6034 -0.5226
56009SOL    HW279753   1.041  10.404   9.485 -0.6844 -1.3823  0.7370
56010SOL     OW79754   1.050   4.874   8.488  0.0302 -0.0153  0.0515
56010SOL    HW179755   1.062   4.969   8.485  1.2064 -0.1645 -0.7967
56010SOL    HW279756   1.052   4.853   8.581 -3.8648  1.1476  0.5753
56011SOL     OW79757   0.856  10.169   9.270  0.4296 -0.6972 -0.1482
56011SOL    HW179758   0.916  10.243   9.287  0.1494 -0.5110  0.0299
56011SOL    HW279759   0.906  10.092   9.296 -0.0821 -0.4145  1.8577
56012SOL     OW79760   7.454  10.588   2.376  0.2011  0.3800 -0.2074
56012SOL    HW179761   7.454  10.672   2.423 -0.2185  0.1820  0.1503
56012SOL    HW279762   7.434  10.523   2.443  1.3580 -0.1068 -0.3213
56013SOL     OW79763  13.068   9.953  11.428 -0.2518  0.1348 -0.0346
56013SOL    HW179764  13.004   9.882  11.419  0.0199  0.0581 -1.6562
56013SOL    HW279765  13.072   9.971  11.522 -1.6262 -0.7982  0.2179
56014SOL     OW79766   1.262   4.016   6.692 -0.1980 -0.3335  0.5687
56014SOL    HW179767   1.341   4.063   6.719  0.3839 -0.2433 -1.1793
56014SOL    HW279768   1.208   4.012   6.771  1.4972 -0.3065  1.7738
56015SOL     OW79769   3.893   4.849   4.351 -0.5944 -0.2028  0.0853
56015SOL    HW179770   3.906   4.854   4.256 -2.1800  0.2253 -0.1487
56015SOL    HW279771   3.806   4.811   4.361 -1.8802  2.7351  1.2403
56016SOL     OW79772   4.936   4.465  13.281  0.4857 -0.6011  0.0532
56016SOL    HW179773   4.886   4.388  13.308 -0.8851  0.5540  0.9510
56016SOL    HW279774   4.969   4.503  13.362 -0.6714  0.9312 -0.1562
56017SOL     OW79775   2.985   8.914   9.323 -0.0616  0.1300 -0.0311
56017SOL    HW179776   2.962   8.978   9.256  0.1259  0.5229  0.2778
56017SOL    HW279777   2.964   8.957   9.406  1.1036  0.2269  0.2298
56018SOL     OW79778   8.940  12.383   5.030  0.4527  0.4269  0.0497
56018SOL    HW179779   9.036  12.380   5.025  0.7680  4.6003 -0.6916
56018SOL    HW279780   8.913  12.415   4.944 -1.4456  0.7969  0.7308
56019SOL     OW79781   6.753  11.255  12.709 -0.2183  0.4547  0.0260
56019SOL    HW179782   6.820  11.293  12.651 -0.4167 -0.9670 -1.1877
56019SOL    HW279783   6.679  11.316  12.703 -0.0228  0.6258 -0.7758
56020SOL     OW79784   7.711   2.186   9.401  0.1754  0.0132 -0.3353
56020SOL    HW179785   7.672   2.246   9.337  1.1892 -0.7585 -1.7265
56020SOL    HW279786   7.690   2.225   9.486 -1.9966  0.5897 -1.0705
56021SOL     OW79787  11.433  11.061   7.563  0.2143 -0.0707 -0.0006
56021SOL    HW179788  11.496  11.120   7.604  0.5023 -0.0696 -0.4362
56021SOL    HW279789  11.470  10.973   7.576 -0.3276 -0.1823  0.8499
56022SOL     OW79790   4.041   2.177   1.160  0.0757 -0.1586 -0.2504
56022SOL    HW179791   4.079   2.139   1.082 -1.7098  0.1306 -1.3214
56022SOL    HW279792   3.983   2.109   1.195  0.7140 -0.2181  0.7357
56023SOL     OW79793   2.217  11.981  10.704 -0.2107 -0.0495  0.1532
56023SOL    HW179794   2.134  11.935  10.700 -0.3865  0.1854  0.8871
56023SOL    HW279795   2.216  12.025  10.789 -0.5673  2.3127 -0.9942
56024SOL     OW79796   5.361  12.629  12.062  0.2229 -0.1774 -0.3371
56024SOL    HW179797   5.402  12.705  12.103  0.5398 -0.5431  0.0329
56024SOL    HW279798   5.425  12.559  12.071 -0.5251 -0.7939  0.3530
56025SOL     OW79799   8.642   2.811   5.669  0.3728  0.2393 -0.3959
56025SOL    HW179800   8.605   2.806   5.757  1.1025  0.2872 -0.0757
56025SOL    HW279801   8.633   2.722   5.635  1.9793 -0.3329  0.5435
56026SOL     OW79802   6.222  10.969   3.951 -0.0063 -0.3752  0.1013
56026SOL    HW179803   6.249  11.059   3.931  0.2636 -0.5734 -0.4272
56026SOL    HW279804   6.231  10.922   3.869 -0.9743 -0.6961  0.1625
56027SOL     OW79805   2.940   8.594   7.866 -0.1526  0.1319  0.2845
56027SOL    HW179806   2.968   8.510   7.830 -1.2416  0.2529 -0.8998
56027SOL    HW279807   3.021   8.637   7.892  0.6504 -0.1844 -1.5580
56028SOL     OW79808   1.552   1.737   5.226 -0.1480  0.2978 -0.2426
56028SOL    HW179809   1.458   1.751   5.238 -0.5735 -1.2349 -1.5306
56028SOL    HW279810   1.577   1.676   5.295  0.0775  1.1976  0.5035
56029SOL     OW79811   7.549   9.422   4.731  0.4612  0.2887 -0.0489
56029SOL    HW179812   7.539   9.390   4.820  1.9168  1.8319  0.7315
56029SOL    HW279813   7.576   9.346   4.680  0.9936 -0.3258  1.1256
56030SOL     OW79814  12.396   1.758   0.599 -0.2331 -0.4728 -0.7640
56030SOL    HW179815  12.488   1.731   0.603 -0.3449 -1.3594 -2.9214
56030SOL    HW279816  12.399   1.851   0.576  0.1451 -0.5877 -1.2040
56031SOL     OW79817   1.820  12.886   4.342 -0.2930  0.2357 -0.4444
56031SOL    HW179818   1.854  12.939   4.414 -0.5808 -1.3410  0.9132
56031SOL    HW279819   1.895  12.834   4.313 -0.6390 -0.5693  0.0720
56032SOL     OW79820  13.271  12.677   2.201  0.6276  0.2248 -0.2879
56032SOL    HW179821  13.317  12.714   2.125  3.2416 -1.3629  0.3837
56032SOL    HW279822  13.298  12.732   2.274 -0.0549  0.3890 -0.1571
56033SOL     OW79823   8.375   0.555   3.078  0.0464  0.2930  0.0626
56033SOL    HW179824   8.309   0.486   3.067  1.0260 -1.1652  2.5398
56033SOL    HW279825   8.408   0.542   3.167  2.4789  2.0560 -0.5059
56034SOL     OW79826   2.661   0.031  11.206 -0.1969 -0.0496  0.3517
56034SOL    HW179827   2.734  -0.031  11.207  2.3502  2.6113 -2.2341
56034SOL    HW279828   2.624   0.025  11.294  1.2824 -3.5145  0.9269
56035SOL     OW79829   9.207   7.279   2.680 -0.9255  0.2909  0.6502
56035SOL    HW179830   9.160   7.204   2.643 -0.5699  0.4926 -0.2189
56035SOL    HW279831   9.287   7.241   2.716 -1.0397  0.1671  0.7789
56036SOL     OW79832   0.883  11.488   2.248 -0.1134 -0.5665 -0.1486
56036SOL    HW179833   0.935  11.568   2.238  0.0566 -0.3748  1.9696
56036SOL    HW279834   0.946  11.417   2.237  0.4764 -0.3404  1.5183
56037SOL     OW79835  11.901   9.660   5.809 -0.0134 -0.0306 -0.2439
56037SOL    HW179836  11.902   9.756   5.811  0.9950 -0.0558  0.8319
56037SOL    HW279837  11.992   9.634   5.815 -0.4224 -1.0940  2.7924
56038SOL     OW79838   2.976   0.431  12.294  0.1981  0.6399 -0.0370
56038SOL    HW179839   2.931   0.367  12.240  0.3758  2.1927 -2.1349
56038SOL    HW279840   3.069   0.410  12.285  0.2379  0.9918 -0.5023
56039SOL     OW79841   0.738  11.251  10.116 -0.2918 -0.5884 -0.0356
56039SOL    HW179842   0.644  11.236  10.130 -0.1333 -1.5140  0.0657
56039SOL    HW279843   0.762  11.318  10.180 -1.1430  0.6054 -0.8990
56040SOL     OW79844   3.290  10.511   8.069 -0.1189 -0.4675  0.2923
56040SOL    HW179845   3.261  10.440   8.011  0.3371  1.1132 -2.0114
56040SOL    HW279846   3.210  10.560   8.090  0.0848  1.0145 -2.0241
56041SOL     OW79847   8.213  12.816   8.962  0.2447  0.1676 -0.6473
56041SOL    HW179848   8.219  12.731   8.920  0.1399 -0.9576  1.4788
56041SOL    HW279849   8.265  12.808   9.041  0.8341  2.3391 -0.7429
56042SOL     OW79850  11.679  12.258   8.141 -0.0438  0.2678  0.6989
56042SOL    HW179851  11.723  12.307   8.071 -1.5308 -1.3390 -1.4877
56042SOL    HW279852  11.718  12.171   8.138  1.1191  0.6124  3.1600
56043SOL     OW79853   5.593  13.373   2.222  0.1914 -0.1583 -0.2615
56043SOL    HW179854   5.512  13.412   2.189  0.6272 -0.1423 -1.3373
56043SOL    HW279855   5.628  13.439   2.284 -0.1082  0.2703 -0.5435
56044SOL     OW79856   6.584  12.241   6.252 -0.1420 -0.6359 -0.2322
56044SOL    HW179857   6.583  12.158   6.204 -1.2537  0.0723 -1.5007
56044SOL    HW279858   6.566  12.308   6.186 -0.6290  0.4953  0.9888
56045SOL     OW79859   8.118   1.783   0.721  0.6359  0.6441  0.0457
56045SOL    HW179860   8.131   1.770   0.627  1.8550 -0.7825  0.3910
56045SOL    HW279861   8.062   1.861   0.726 -0.4132  0.0877 -1.8906
56046SOL     OW79862  10.436   1.016  11.919  0.4218  0.0396 -0.0176
56046SOL    HW179863  10.514   1.061  11.951  0.4112  0.8474 -1.0530
56046SOL    HW279864  10.436   1.032  11.825 -1.0697  0.1857 -0.0235
56047SOL     OW79865  13.601  13.686   7.181 -0.5585 -0.5191  0.2950
56047SOL    HW179866  13.602  13.778   7.206 -1.3602  0.1716 -1.9325
56047SOL    HW279867  13.693  13.659   7.180 -0.4225 -0.2619  2.5746
56048SOL     OW79868   2.019   7.342   5.705  0.5945 -0.1529  0.6992
56048SOL    HW179869   1.968   7.281   5.652  1.4896 -1.2234  1.0225
56048SOL    HW279870   2.110   7.328   5.677  0.8527  0.7599  1.0535
56049SOL     OW79871   2.143  12.476   0.375 -0.4653 -0.5518  0.0261
56049SOL    HW179872   2.184  12.391   0.362  1.2246  0.5362 -2.5227
56049SOL    HW279873   2.198  12.519   0.441  1.2994  0.0693 -1.7644
56050SOL     OW79874   0.628   7.895   5.642  0.1520 -0.6300 -0.1642
56050SOL    HW179875   0.609   7.806   5.670 -0.3845 -0.9276 -1.4208
56050SOL    HW279876   0.717   7.891   5.607  0.3466 -0.5359  0.3116
56051SOL     OW79877   4.783   3.412   9.193 -0.2231  0.0230 -0.3358
56051SOL    HW179878   4.696   3.452   9.199 -0.5779 -0.8202  0.5352
56051SOL    HW279879   4.768   3.327   9.151  0.4722  0.6313 -1.8857
56052SOL     OW79880   7.254   2.881  13.302 -0.0508 -0.0753  0.0016
56052SOL    HW179881   7.295   2.846  13.223  1.7759  2.1391 -0.1308
56052SOL    HW279882   7.326   2.895  13.363 -1.0863  0.6530  1.1182
56053SOL     OW79883  10.995  12.594   6.551  0.3369  0.6675 -0.2209
56053SOL    HW179884  11.010  12.534   6.625  0.6058  1.3111  0.2563
56053SOL    HW279885  10.905  12.625   6.563 -0.7891 -1.6349 -1.9508
56054SOL     OW79886  12.616  12.523   6.080 -0.8719  0.1016 -0.3598
56054SOL    HW179887  12.533  12.488   6.112 -0.6224 -0.4149 -0.2588
56054SOL    HW279888  12.604  12.618   6.079 -0.8821  0.1417  1.2699
56055SOL     OW79889   2.355  11.532   4.017  0.5754  0.8363  0.0640
56055SOL    HW179890   2.391  11.487   4.093 -2.1655 -0.9265  0.4857
56055SOL    HW279891   2.415  11.510   3.946  1.0335 -0.9316  0.9197
56056SOL     OW79892  12.173   9.808  12.322  0.2628 -0.0364  0.0821
56056SOL    HW179893  12.254   9.849  12.291 -0.6641  0.3638 -2.0175
56056SOL    HW279894  12.107   9.835  12.258 -0.8840 -2.9335 -0.1048
56057SOL     OW79895   3.802   5.505   6.393  0.3312  0.8331  0.1577
56057SOL    HW179896   3.892   5.480   6.413  0.6762  0.9245 -1.1773
56057SOL    HW279897   3.774   5.559   6.467  1.1932  0.3888  0.8165
56058SOL     OW79898   8.341  10.068   8.083  0.2593 -0.1011 -0.0960
56058SOL    HW179899   8.411  10.089   8.145 -0.6912  0.2308  0.9065
56058SOL    HW279900   8.260  10.090   8.130 -0.5234 -0.5410 -1.1920
56059SOL     OW79901   0.619  10.378   2.725  0.2273 -0.2168  0.3021
56059SOL    HW179902   0.530  10.388   2.758 -0.5402 -1.0829 -1.3910
56059SOL    HW279903   0.655  10.467   2.725 -1.4203  0.5003 -1.0191
56060SOL     OW79904   9.829  11.951   1.210 -0.5728  0.5328  0.1149
56060SOL    HW179905   9.894  11.969   1.143  0.3179  2.5177  1.4120
56060SOL    HW279906   9.792  11.866   1.186  1.9509 -0.3308 -1.0860
56061SOL     OW79907   9.641   9.469   4.596 -0.0177  0.0479 -0.1601
56061SOL    HW179908   9.577   9.447   4.529 -1.7475  2.4294  0.6011
56061SOL    HW279909   9.596   9.453   4.679  0.7728  0.6904  0.4069
56062SOL     OW79910   7.650   0.039  12.614  1.1094  0.7986  0.0675
56062SOL    HW179911   7.652   0.040  12.709 -1.2749  1.6722  0.1786
56062SOL    HW279912   7.622  -0.050  12.591  0.8122  0.8436  0.2455
56063SOL     OW79913   2.209   3.741  10.927  0.1774  0.0662 -0.1632
56063SOL    HW179914   2.145   3.800  10.967  1.2151  0.1517  1.5165
56063SOL    HW279915   2.211   3.665  10.985  1.6899  0.1476 -0.0554
56064SOL     OW79916   5.544   0.513   1.893 -0.0882  0.2659 -0.4166
56064SOL    HW179917   5.610   0.464   1.844 -1.1921  0.3329 -2.0515
56064SOL    HW279918   5.593   0.558   1.962  1.3096 -1.0337 -0.5156
56065SOL     OW79919   7.797   3.785   1.330  0.1245 -0.1675 -0.8131
56065SOL    HW179920   7.888   3.769   1.304  0.8470  2.1263  0.1034
56065SOL    HW279921   7.798   3.872   1.369 -2.3158 -0.4670  0.0710
56066SOL     OW79922   0.806   5.539   8.686  0.0383  0.0663  0.2375
56066SOL    HW179923   0.758   5.490   8.753 -0.5006 -0.0538 -0.2226
56066SOL    HW279924   0.896   5.507   8.693  0.3590  1.2102  1.9667
56067SOL     OW79925  12.073   5.184  12.575 -0.0349  0.0444 -0.1800
56067SOL    HW179926  12.083   5.092  12.600 -1.5404 -0.6467 -1.9282
56067SOL    HW279927  12.140   5.199  12.509 -0.3562 -0.0609 -0.5329
56068SOL     OW79928   9.101  13.706  10.173 -0.5689 -0.0986 -0.3950
56068SOL    HW179929   9.102  13.780  10.114  0.7410 -0.5667 -1.0140
56068SOL    HW279930   9.155  13.734  10.248  0.1141 -0.4768 -0.7315
56069SOL     OW79931  10.275   8.384   7.450  0.1131 -0.4575  0.0108
56069SOL    HW179932  10.242   8.426   7.530  2.1608 -0.1767  0.7685
56069SOL    HW279933  10.273   8.453   7.384 -0.6738 -0.4240  0.0563
56070SOL     OW79934  12.668  12.059  12.470 -0.2210  0.0768  0.0446
56070SOL    HW179935  12.650  12.032  12.560  0.5954  0.8630  0.4647
56070SOL    HW279936  12.632  11.989  12.416  1.1497 -1.4823  1.0461
56071SOL     OW79937   2.468  10.642  12.542 -0.3358  0.0091 -0.0710
56071SOL    HW179938   2.544  10.624  12.597  0.8264  1.0222 -1.2746
56071SOL    HW279939   2.504  10.655  12.455 -1.9233  0.3216 -0.7217
56072SOL     OW79940  11.842  10.601  13.738  0.0829 -0.2597  0.4622
56072SOL    HW179941  11.930  10.590  13.774  0.2967  0.5091  0.1893
56072SOL    HW279942  11.796  10.656  13.802  0.2573  0.5557 -0.1125
56073SOL     OW79943   9.463  10.930   5.263 -0.3623 -0.0716 -0.4250
56073SOL    HW179944   9.428  10.923   5.352  1.1133  0.2425  0.2071
56073SOL    HW279945   9.423  10.856   5.217 -1.1470 -0.2521  0.4954
56074SOL     OW79946   6.892   9.906   5.244 -0.1789 -0.1776  0.4835
56074SOL    HW179947   6.830   9.890   5.173 -0.4139  1.8127  0.1762
56074SOL    HW279948   6.848   9.970   5.300  0.6821 -0.4594  1.5108
56075SOL     OW79949   2.232  12.001  11.593 -0.0723 -0.1988  0.0826
56075SOL    HW179950   2.189  12.077  11.553 -2.9021 -0.5503  2.1034
56075SOL    HW279951   2.322  12.029  11.608 -0.7243  2.3379 -0.3255
56076SOL     OW79952   9.527   8.847   6.139 -0.4964  0.2451  0.5756
56076SOL    HW179953   9.561   8.760   6.161 -0.1331  0.5316  1.1609
56076SOL    HW279954   9.489   8.880   6.220  0.3737  1.0902  0.6522
56077SOL     OW79955   9.475  12.532  10.909  0.0697  0.1125  0.0452
56077SOL    HW179956   9.535  12.487  10.968 -0.7763 -0.6185  0.3623
56077SOL    HW279957   9.528  12.550  10.831  1.2520  1.2637  1.0532
56078SOL     OW79958   3.723  11.768   4.437 -0.0865  0.3988 -0.0516
56078SOL    HW179959   3.756  11.679   4.419  0.5515  0.8124 -1.0477
56078SOL    HW279960   3.631  11.755   4.459  0.1308 -0.5619  0.3460
56079SOL     OW79961   5.116   2.195   3.032  0.0553 -0.0099  0.2327
56079SOL    HW179962   5.030   2.235   3.023 -0.4342 -0.9078  0.7834
56079SOL    HW279963   5.173   2.247   2.975 -1.6002 -1.6376 -3.2301
56080SOL     OW79964  11.098   6.622   9.684 -0.1681  0.4649  0.4042
56080SOL    HW179965  11.161   6.686   9.651 -0.4029 -0.1247 -1.3287
56080SOL    HW279966  11.013   6.666   9.674 -0.2539  0.2239  0.0499
56081SOL     OW79967   1.545   8.910   8.513  0.4597  0.3008 -0.0051
56081SOL    HW179968   1.504   8.996   8.516  0.9751  0.5261  1.7001
56081SOL    HW279969   1.638   8.927   8.525  0.5663 -0.4784  0.3622
56082SOL     OW79970   9.298   2.446   5.263 -0.3315 -0.2742  0.0103
56082SOL    HW179971   9.229   2.476   5.321 -1.6125 -2.1941 -0.4269
56082SOL    HW279972   9.379   2.470   5.307 -1.2258  2.0062  0.5549
56083SOL     OW79973   4.514   0.918  12.144 -0.0443 -0.3215 -0.4380
56083SOL    HW179974   4.480   0.892  12.230  0.4079 -1.7707 -0.6723
56083SOL    HW279975   4.487   1.009  12.135 -2.2486 -0.8310  0.1853
56084SOL     OW79976   4.669   8.894  13.204 -0.4704 -0.5702 -0.2164
56084SOL    HW179977   4.631   8.970  13.160  0.4565  0.6482  0.9814
56084SOL    HW279978   4.739   8.865  13.146  0.7602  1.0338  0.3766
56085SOL     OW79979  11.875   8.517  10.015  0.2467  0.9850 -0.3575
56085SOL    HW179980  11.898   8.566   9.936 -2.2146  0.7510 -1.3022
56085SOL    HW279981  11.782   8.534  10.028  0.2004 -0.3596  1.5342
56086SOL     OW79982   8.628  13.174   6.522  0.0154 -0.2731  0.2018
56086SOL    HW179983   8.720  13.195   6.536 -0.3894  1.1561  0.9193
56086SOL    HW279984   8.625  13.141   6.432  1.2884 -0.7854  0.3277
56087SOL     OW79985  11.100   6.980   2.634 -0.3253 -0.3550  0.4337
56087SOL    HW179986  11.098   6.885   2.622 -1.2120 -0.4842  1.4350
56087SOL    HW279987  11.052   7.014   2.558 -0.1960 -0.7174  0.1853
56088SOL     OW79988  13.732  12.285   4.391 -0.1401 -0.2860  0.1446
56088SOL    HW179989  13.666  12.229   4.350 -1.5030  0.8040  0.7632
56088SOL    HW279990  13.780  12.228   4.450  1.6838 -1.8565 -2.6039
56089SOL     OW79991   9.452   5.574   0.304  0.0318 -0.1425  0.2475
56089SOL    HW179992   9.469   5.655   0.256 -0.1418 -0.0894  0.2742
56089SOL    HW279993   9.534   5.525   0.299  0.3409  0.3024  0.7583
56090SOL     OW79994   5.805   0.531   0.953  0.2369  0.0848 -0.6070
56090SOL    HW179995   5.821   0.507   1.044 -0.1969 -1.4587 -0.9151
56090SOL    HW279996   5.733   0.475   0.925 -0.7328  1.6846 -1.4423
56091SOL     OW79997   0.770   6.037   5.641 -0.3353 -0.5500  0.1355
56091SOL    HW179998   0.700   5.991   5.687 -0.8109 -0.2270 -0.2669
56091SOL    HW279999   0.728   6.114   5.603  0.0315 -0.8675 -0.9450
56092SOL     OW80000   2.693  11.137  11.424 -0.1284  0.2643 -0.1122
56092SOL    HW180001   2.635  11.156  11.350  0.8112 -0.2289 -1.0003
56092SOL    HW280002   2.705  11.042  11.420 -0.0527  0.2396  0.6706
56093SOL     OW80003   1.557   6.011   7.924 -0.0352  0.3333  0.1821
56093SOL    HW180004   1.526   5.995   8.013  0.5305  0.1309  0.3451
56093SOL    HW280005   1.498   6.079   7.890  0.1702  0.9068  0.9484
56094SOL     OW80006   8.281   4.115   0.232 -0.2232 -0.4560  0.1607
56094SOL    HW180007   8.365   4.071   0.249  0.1847  0.5243  0.7226
56094SOL    HW280008   8.239   4.060   0.166  1.1394 -0.6319 -0.5984
56095SOL     OW80009   5.461  10.987   1.853 -0.5819  0.1860 -0.0129
56095SOL    HW180010   5.433  11.079   1.862 -0.2099  0.2772  0.2678
56095SOL    HW280011   5.528  10.977   1.921 -2.8457 -1.1994  2.1578
56096SOL     OW80012   9.296   6.110   6.876  0.2046 -0.1009  0.1923
56096SOL    HW180013   9.329   6.132   6.789  2.8875  0.0742  1.1434
56096SOL    HW280014   9.360   6.148   6.936 -1.7426  0.1067  2.2933
56097SOL     OW80015   8.589  10.850   4.624  0.3491 -0.2647  0.4109
56097SOL    HW180016   8.646  10.815   4.693  0.2470 -0.7138  0.2654
56097SOL    HW280017   8.536  10.776   4.596 -0.5087  0.2108  0.7381
56098SOL     OW80018   6.009   5.419  12.781  0.3692  0.2615  0.7330
56098SOL    HW180019   5.951   5.402  12.855 -0.1731 -3.2083 -0.3407
56098SOL    HW280020   6.066   5.342  12.776  0.2680  0.2622 -2.5437
56099SOL     OW80021   3.898   8.468   9.275  0.4557 -0.0011  0.2862
56099SOL    HW180022   3.807   8.483   9.300  0.0646  0.2438 -1.1757
56099SOL    HW280023   3.927   8.397   9.332 -0.0544  1.1201  2.0291
56100SOL     OW80024   3.076  11.610   6.769  0.0788  0.4811 -0.0738
56100SOL    HW180025   3.056  11.701   6.750 -1.9023 -0.2063 -1.6641
56100SOL    HW280026   3.171  11.607   6.778  0.2434  2.5622 -0.6858
56101SOL     OW80027   8.092   7.594   5.135  0.2460 -0.5282  0.0888
56101SOL    HW180028   8.053   7.545   5.207 -0.9285 -0.2093 -0.3106
56101SOL    HW280029   8.024   7.655   5.107  1.4357  0.8605  0.1210
56102SOL     OW80030   2.074   0.534   0.887  0.1714 -0.4180 -0.0020
56102SOL    HW180031   2.074   0.630   0.879  2.4832 -0.3888 -0.1277
56102SOL    HW280032   2.072   0.502   0.797 -1.1092 -0.5320  0.0457
56103SOL     OW80033   7.573   1.164  13.744 -0.3620  0.3705 -0.2104
56103SOL    HW180034   7.547   1.074  13.761  0.7955  0.2938  1.4126
56103SOL    HW280035   7.492   1.214  13.752 -0.6786 -0.2957  1.0349
56104SOL     OW80036   0.463   8.124   9.854  0.1625 -0.1744  0.7488
56104SOL    HW180037   0.546   8.172   9.851  1.0911 -1.7515 -0.3704
56104SOL    HW280038   0.489   8.032   9.856 -1.5767 -0.6911  0.7894
56105SOL     OW80039  12.079   2.367   2.290  0.2033  0.2545 -0.5590
56105SOL    HW180040  12.087   2.274   2.270 -0.6595  0.2678 -1.0081
56105SOL    HW280041  12.164   2.391   2.326  0.0408 -1.0075  0.8136
56106SOL     OW80042   0.552   4.712   5.679 -0.1850  0.0838 -0.3291
56106SOL    HW180043   0.645   4.734   5.684 -0.3994  1.5159 -1.6457
56106SOL    HW280044   0.531   4.676   5.765  1.6320 -0.5063 -0.0884
56107SOL     OW80045   8.861  11.116   8.306  0.2267  0.4514 -0.4788
56107SOL    HW180046   8.799  11.120   8.234  1.0470  0.0180 -1.2383
56107SOL    HW280047   8.946  11.106   8.264  0.5125 -2.6322  0.5437
56108SOL     OW80048   4.516  12.271  12.830 -0.2810 -0.1509  0.0520
56108SOL    HW180049   4.593  12.290  12.776  0.7555 -2.4729  0.5869
56108SOL    HW280050   4.539  12.307  12.917 -0.9821  1.5178 -0.4040
56109SOL     OW80051   9.003  12.494   4.163  0.0848  0.2589 -0.3203
56109SOL    HW180052   9.001  12.496   4.258 -2.1572 -0.3792 -0.2896
56109SOL    HW280053   9.008  12.586   4.137 -2.0711  0.6727  0.4785
56110SOL     OW80054   1.354   7.534  12.333 -0.0161  0.2537 -0.2807
56110SOL    HW180055   1.396   7.451  12.310  0.0529 -0.3834  1.9315
56110SOL    HW280056   1.406   7.601  12.290  1.1578 -0.7341 -0.4340
56111SOL     OW80057  10.338   7.225   3.248 -0.0819 -0.4839 -0.4822
56111SOL    HW180058  10.293   7.252   3.168 -0.9916  0.0794  0.2069
56111SOL    HW280059  10.329   7.299   3.307 -2.2819 -2.0614  1.3176
56112SOL     OW80060  11.539   8.554  13.364 -0.4403  0.2841  1.1482
56112SOL    HW180061  11.528   8.509  13.281  0.1246  0.8374  0.7707
56112SOL    HW280062  11.512   8.644  13.347  2.7532  1.2481  0.6637
56113SOL     OW80063  12.219   4.560  12.760  0.1781 -0.1316 -0.2816
56113SOL    HW180064  12.237   4.467  12.753 -0.2080 -0.0838 -2.4801
56113SOL    HW280065  12.300   4.603  12.730 -0.4158  0.1819 -1.5004
56114SOL     OW80066   0.212   1.562   3.963  0.5298 -0.1665  0.7602
56114SOL    HW180067   0.289   1.537   3.912  0.0815 -0.3952  0.1771
56114SOL    HW280068   0.227   1.654   3.987 -0.6119  1.0243 -2.4811
56115SOL     OW80069   9.258   5.785   4.247  0.2358  0.2905  0.8093
56115SOL    HW180070   9.191   5.721   4.272 -0.4289  1.4489  2.1445
56115SOL    HW280071   9.329   5.770   4.309  0.9567 -0.4511 -0.1515
56116SOL     OW80072   9.213  11.121   7.214 -0.1040  0.1589  0.0377
56116SOL    HW180073   9.148  11.108   7.283  1.3090  0.4593  1.4901
56116SOL    HW280074   9.187  11.202   7.171 -0.4010  0.5642  0.9598
56117SOL     OW80075   4.094  11.357   3.871 -0.4105 -0.0445 -0.5417
56117SOL    HW180076   4.041  11.309   3.807  0.4482 -0.4640 -0.9482
56117SOL    HW280077   4.136  11.426   3.821 -0.2746  0.0558 -0.2913
56118SOL     OW80078   5.877  10.381  11.346  0.2927  0.5116  0.3235
56118SOL    HW180079   5.867  10.430  11.265 -0.3806  1.6575  1.0838
56118SOL    HW280080   5.965  10.344  11.341 -0.3853 -0.9964 -1.7510
56119SOL     OW80081  12.938   9.522  13.474 -0.1842 -0.0594  0.2929
56119SOL    HW180082  12.863   9.471  13.444 -0.9926  2.0066 -1.4545
56119SOL    HW280083  12.902   9.584  13.537  0.2778  0.1552  0.3550
56120SOL     OW80084  10.019  12.108   2.233 -0.0170 -0.5175 -0.0063
56120SOL    HW180085  10.039  12.045   2.302 -0.5866 -0.9727 -0.2463
56120SOL    HW280086  10.052  12.068   2.153 -2.8136 -1.8582 -0.6132
56121SOL     OW80087  11.404   7.570  10.545  0.1045  0.1406 -0.0966
56121SOL    HW180088  11.476   7.630  10.565  0.6210 -0.6501  0.4890
56121SOL    HW280089  11.447   7.493  10.508 -0.3420 -0.7402  1.1812
56122SOL     OW80090   2.121   1.428   9.650 -0.6764  0.6063 -0.4331
56122SOL    HW180091   2.199   1.400   9.602 -0.2252  0.1625  0.5306
56122SOL    HW280092   2.155   1.456   9.736 -1.8115 -1.8170  0.8932
56123SOL     OW80093  10.682  12.063   8.645  0.2714 -0.2835 -0.0632
56123SOL    HW180094  10.737  12.132   8.681  0.5081  0.2335 -1.3693
56123SOL    HW280095  10.721  12.043   8.560 -1.1664 -0.3714 -0.7245
56124SOL     OW80096   2.815   9.163  10.234 -0.6620  0.7462 -0.4503
56124SOL    HW180097   2.834   9.254  10.213  0.0412  0.8362  0.4688
56124SOL    HW280098   2.720   9.156  10.231 -0.6530  1.0851 -2.1408
56125SOL     OW80099   0.752   9.102   3.089  0.3322 -0.6192 -0.4286
56125SOL    HW180100   0.741   9.027   3.147 -1.9962  0.1865  0.3100
56125SOL    HW280101   0.766   9.176   3.148 -1.9889  0.2019 -0.7968
56126SOL     OW80102   8.851   0.041   8.053 -0.2167 -0.4056  0.4712
56126SOL    HW180103   8.836  -0.045   8.092 -1.0832 -1.3470 -1.7428
56126SOL    HW280104   8.826   0.103   8.121 -2.8575 -1.9332  1.0532
56127SOL     OW80105  10.984   5.531   4.757  0.1560 -0.1680  0.5596
56127SOL    HW180106  10.940   5.499   4.836 -1.6051 -2.1723 -1.1219
56127SOL    HW280107  10.917   5.582   4.711  0.5921 -0.5216 -0.4842
56128SOL     OW80108   3.935  13.481  10.735  0.3123  0.1038  0.5461
56128SOL    HW180109   3.927  13.389  10.761  3.3588 -0.8017 -1.1242
56128SOL    HW280110   4.004  13.516  10.792 -0.5879  1.2703  0.9428
56129SOL     OW80111  11.391  13.522   4.871  0.4516  0.0643 -0.3550
56129SOL    HW180112  11.367  13.613   4.858 -0.6226  0.1238  1.6305
56129SOL    HW280113  11.442  13.522   4.952  0.7399 -1.0509 -0.5160
56130SOL     OW80114   8.382   0.437   0.471  0.4229 -0.9358  0.0574
56130SOL    HW180115   8.397   0.516   0.418 -1.5941 -0.2057  0.5047
56130SOL    HW280116   8.387   0.365   0.409 -0.1066 -0.2402 -0.8158
56131SOL     OW80117  12.773  13.745  12.373  0.1834  0.2091 -0.2430
56131SOL    HW180118  12.783  13.815  12.309 -0.6864  0.7576  0.1984
56131SOL    HW280119  12.682  13.717  12.363  0.8323 -1.7300 -1.2741
56132SOL     OW80120   3.242   9.621   0.230  0.6267 -0.1054 -0.3454
56132SOL    HW180121   3.228   9.608   0.324  0.5720  0.6830 -0.2350
56132SOL    HW280122   3.169   9.677   0.202  1.2485  0.5982 -0.6143
56133SOL     OW80123   5.447  10.228   3.849 -0.0164 -0.4712 -0.0535
56133SOL    HW180124   5.428  10.229   3.756 -0.0224  0.2045 -0.0523
56133SOL    HW280125   5.518  10.292   3.860 -0.6614  0.1664  0.5257
56134SOL     OW80126  12.881  13.521   3.735  0.3412  0.1718 -0.6794
56134SOL    HW180127  12.936  13.599   3.732  1.9139 -0.8539  0.3182
56134SOL    HW280128  12.902  13.479   3.819 -1.8872 -0.3348 -0.3204
56135SOL     OW80129   7.546   4.294   0.343 -0.2939 -0.7499 -0.3577
56135SOL    HW180130   7.556   4.211   0.298 -2.8626 -1.3240  0.0107
56135SOL    HW280131   7.561   4.360   0.276  0.2422 -1.5114 -1.0045
56136SOL     OW80132  12.268   7.748  11.814  0.6479  0.0377  0.0683
56136SOL    HW180133  12.361   7.764  11.831  0.7352  1.3117 -1.4370
56136SOL    HW280134  12.247   7.802  11.739 -1.1520 -0.8096 -0.1012
56137SOL     OW80135   9.383   0.236  13.277 -0.6291  0.4279 -0.4086
56137SOL    HW180136   9.432   0.257  13.356 -0.5397  0.5165 -0.4874
56137SOL    HW280137   9.435   0.168  13.234 -0.7725  0.2473 -0.2979
56138SOL     OW80138  13.090  13.107   0.902  0.0190  0.4450  0.3607
56138SOL    HW180139  13.060  13.121   0.812  1.5239  0.4088 -0.1724
56138SOL    HW280140  13.142  13.185   0.923  0.9670 -0.2369  0.6259
56139SOL     OW80141  12.755   7.267  11.930 -0.6858 -0.6189 -0.1342
56139SOL    HW180142  12.811   7.318  11.871  1.8729 -1.4111  1.4581
56139SOL    HW280143  12.712   7.204  11.873 -1.5021  1.2559 -1.6882
56140SOL     OW80144   3.236  10.786   2.198 -0.5846  0.1046 -0.0306
56140SOL    HW180145   3.222  10.728   2.123  1.1803 -0.4436  0.0304
56140SOL    HW280146   3.150  10.827   2.213 -1.3504 -0.9473 -1.3542
56141SOL     OW80147   8.820  10.986   2.090 -0.6783 -0.3662 -0.4484
56141SOL    HW180148   8.887  10.983   2.158 -1.9702 -0.2863  0.8622
56141SOL    HW280149   8.792  10.895   2.080  0.9517 -0.7187 -2.4119
56142SOL     OW80150  13.610  10.428   9.995 -0.0455  0.2823  0.0087
56142SOL    HW180151  13.673  10.439   9.924 -0.0817 -0.2093 -0.1004
56142SOL    HW280152  13.593  10.517  10.025  1.1345  0.3992  0.4152
56143SOL     OW80153   6.306   8.210   0.109  0.1082  0.1934  0.4550
56143SOL    HW180154   6.253   8.282   0.143 -0.5165  0.6683 -1.3867
56143SOL    HW280155   6.303   8.222   0.014  1.3222 -1.3475  0.1926
56144SOL     OW80156   1.069   3.366   9.845 -0.5405 -0.4318  0.3265
56144SOL    HW180157   1.146   3.361   9.902 -0.2007  2.8580  0.2935
56144SOL    HW280158   1.052   3.274   9.821  1.9618 -1.4917  2.1292
56145SOL     OW80159   0.289   6.488  13.041  0.6764 -0.4466  0.4498
56145SOL    HW180160   0.358   6.553  13.033 -0.4171  0.9402  1.5932
56145SOL    HW280161   0.208   6.537  13.027 -0.4708 -0.6357  4.8185
56146SOL     OW80162   4.465   1.059  13.125 -0.1162  0.1122  0.1824
56146SOL    HW180163   4.421   0.976  13.144 -0.7082  0.3771 -0.0075
56146SOL    HW280164   4.397   1.126  13.136  0.8046  0.7855  2.1808
56147SOL     OW80165   2.874   6.870   6.347  0.2580  0.0259 -0.4597
56147SOL    HW180166   2.806   6.808   6.320 -1.0442 -0.2489  3.0121
56147SOL    HW280167   2.830   6.929   6.408  2.7294  1.0356  0.4597
56148SOL     OW80168  11.927   5.227  11.900 -0.5341  0.2057 -0.3565
56148SOL    HW180169  11.833   5.243  11.909 -0.6067 -0.4690  0.1578
56148SOL    HW280170  11.951   5.271  11.819 -1.0917  1.2449  0.0165
56149SOL     OW80171   3.365   3.823   9.019  0.0684  0.0605 -0.6266
56149SOL    HW180172   3.364   3.864   9.106 -0.6733  1.1407 -1.1201
56149SOL    HW280173   3.426   3.877   8.968  0.8318 -0.8253 -0.6756
56150SOL     OW80174   1.423   1.977   1.794  0.1086 -0.0307  0.4586
56150SOL    HW180175   1.364   2.032   1.846 -0.8073 -0.0030 -0.5750
56150SOL    HW280176   1.455   1.911   1.855  0.9281  1.4006  1.6417
56151SOL     OW80177   4.706   4.049  13.369  0.2039 -0.2502  0.1248
56151SOL    HW180178   4.780   4.070  13.426 -0.1463 -0.3778  0.6257
56151SOL    HW280179   4.643   4.005  13.426 -0.1180 -0.4440 -0.3746
56152SOL     OW80180   8.099  10.032   2.895 -0.2259 -0.0253 -0.4502
56152SOL    HW180181   8.077  10.035   2.988 -1.2805  0.5501 -0.6963
56152SOL    HW280182   8.017  10.052   2.850  0.5156  0.9009 -1.4716
56153SOL     OW80183   5.055   2.622   6.288 -0.0753 -0.1570 -0.1714
56153SOL    HW180184   4.980   2.571   6.321 -0.2382 -0.9760 -1.6870
56153SOL    HW280185   5.016   2.704   6.258 -0.5108 -0.8024 -1.4802
56154SOL     OW80186   3.697  10.315  12.050 -0.4057 -0.3690 -0.5103
56154SOL    HW180187   3.728  10.344  12.135  1.2936 -1.9359 -0.5361
56154SOL    HW280188   3.704  10.220  12.053 -1.6245 -0.5420 -1.9353
56155SOL     OW80189   8.077   2.034   0.415 -0.1317 -0.8452 -0.7302
56155SOL    HW180190   7.993   2.079   0.422 -0.9542 -2.3957 -0.1753
56155SOL    HW280191   8.069   1.981   0.336 -0.1988 -1.9941  0.0237
56156SOL     OW80192   0.073  13.640   6.157 -0.1817 -0.2672 -0.1953
56156SOL    HW180193   0.014  13.566   6.168 -0.6569  0.1006 -0.2650
56156SOL    HW280194   0.152  13.602   6.119 -0.8898 -0.5582 -1.4428
56157SOL     OW80195   0.612   2.847   1.255 -0.7493 -0.1882  0.0725
56157SOL    HW180196   0.704   2.823   1.238 -0.2524  0.0407  2.1783
56157SOL    HW280197   0.564   2.809   1.182  0.7510 -2.3250  0.0817
56158SOL     OW80198   8.167   4.729   5.531 -0.3578 -0.0952  0.0312
56158SOL    HW180199   8.085   4.721   5.483 -0.9908 -0.4821  1.1648
56158SOL    HW280200   8.232   4.686   5.474 -0.6215  1.4495 -1.5349
56159SOL     OW80201   3.728   0.743  11.235  0.3865 -0.6235  0.2857
56159SOL    HW180202   3.766   0.675  11.292  2.6113 -0.3904 -0.8029
56159SOL    HW280203   3.751   0.715  11.146 -1.1889  0.1080 -0.3920
56160SOL     OW80204   0.338   6.457   5.501  0.3542  0.2497 -0.6795
56160SOL    HW180205   0.284   6.383   5.527  0.2387  0.6175  0.1416
56160SOL    HW280206   0.371   6.433   5.414  0.0195 -0.5966 -0.5811
56161SOL     OW80207   3.487   1.322  10.430  0.3066  0.2074 -0.1983
56161SOL    HW180208   3.499   1.294  10.339  1.1960 -0.6178  0.1588
56161SOL    HW280209   3.464   1.415  10.423 -0.6904 -0.0976 -1.3065
56162SOL     OW80210   0.086  11.045   9.851 -0.3536 -0.1265 -0.4337
56162SOL    HW180211   0.148  11.088   9.792 -1.7058  1.3268 -0.8552
56162SOL    HW280212   0.008  11.031   9.798 -0.4365 -1.9514  0.0853
56163SOL     OW80213   7.955   6.891  10.813 -0.4725  0.0299 -0.3236
56163SOL    HW180214   7.956   6.803  10.850 -2.7163  0.1149  0.0495
56163SOL    HW280215   8.048   6.912  10.799  0.1550 -2.0114  0.4246
56164SOL     OW80216  10.044   9.799  13.388  0.2114 -0.3016 -0.2313
56164SOL    HW180217  10.100   9.877  13.385 -1.8784  1.2829  0.0292
56164SOL    HW280218   9.970   9.820  13.332 -0.8590 -1.7503  0.5735
56165SOL     OW80219   8.962   6.770  11.076  0.3205  0.3137 -0.0823
56165SOL    HW180220   9.056   6.778  11.088  1.0036 -2.5787 -2.4196
56165SOL    HW280221   8.928   6.745  11.162  1.6951  1.1376  0.7212
56166SOL     OW80222   9.251   7.900   4.542  0.9825  0.3895  0.1785
56166SOL    HW180223   9.306   7.862   4.611  0.4863 -1.8333 -0.5571
56166SOL    HW280224   9.284   7.862   4.461  0.8008  2.0578 -0.7144
56167SOL     OW80225   9.522  13.522   8.436 -0.0011  0.2681 -0.6594
56167SOL    HW180226   9.617  13.512   8.437  0.1028  1.0646  1.0174
56167SOL    HW280227   9.502  13.551   8.347  1.4166  0.7768 -0.8424
56168SOL     OW80228   7.820   1.730   6.077 -0.4957  0.1748  0.4563
56168SOL    HW180229   7.846   1.798   6.014  1.1645 -0.6065  0.2256
56168SOL    HW280230   7.812   1.650   6.024  3.8402 -1.1966  1.4394
56169SOL     OW80231   1.793  11.736  10.577  0.2540 -0.1082  0.1547
56169SOL    HW180232   1.731  11.801  10.543  0.7797  0.5842  0.5068
56169SOL    HW280233   1.737  11.665  10.610 -0.3527  0.5209  0.5054
56170SOL     OW80234  12.997   8.856  12.095  0.0522 -0.2492  0.7263
56170SOL    HW180235  12.932   8.915  12.134 -1.7316 -2.3034  1.0864
56170SOL    HW280236  12.994   8.875  12.002 -0.8980 -0.1234  0.7729
56171SOL     OW80237   1.687   1.556  13.376 -0.7657 -0.4840  0.6622
56171SOL    HW180238   1.783   1.561  13.382 -0.7266  1.8071 -0.4967
56171SOL    HW280239   1.669   1.561  13.282 -2.0436  0.3591  0.9233
56172SOL     OW80240   7.239   1.123   2.496 -0.0629  0.0204 -0.1596
56172SOL    HW180241   7.285   1.176   2.431 -1.2506  0.1689 -0.8889
56172SOL    HW280242   7.211   1.045   2.448 -1.1395  0.2311  0.1226
56173SOL     OW80243   9.968   3.287   6.310  0.4330  0.1905 -0.0893
56173SOL    HW180244   9.990   3.344   6.384 -0.2630 -0.7513  0.8760
56173SOL    HW280245   9.877   3.310   6.289  0.1466 -0.5256  0.3064
56174SOL     OW80246   5.280   2.070  13.427 -0.2046 -0.1715  0.0600
56174SOL    HW180247   5.288   2.032  13.340  1.5749 -0.1755  0.1857
56174SOL    HW280248   5.268   2.164  13.411  0.2561 -0.1533 -0.2021
56175SOL     OW80249   7.414   3.086   4.026  0.1075 -0.3162 -0.3752
56175SOL    HW180250   7.376   3.067   4.112 -2.8902  2.0499 -0.9956
56175SOL    HW280251   7.493   3.137   4.045 -0.7765  0.6106  0.9997
56176SOL     OW80252   0.455   9.218  13.559 -0.0885  0.1590 -0.5589
56176SOL    HW180253   0.480   9.269  13.482 -1.0789  0.7813 -0.4941
56176SOL    HW280254   0.458   9.280  13.631 -1.4874  0.2020 -0.5078
56177SOL     OW80255   1.944  10.045  13.063 -0.2279  0.3316 -0.0427
56177SOL    HW180256   2.024  10.014  13.105 -1.3367 -0.3689  1.6768
56177SOL    HW280257   1.937  10.137  13.088 -0.0043  0.3782 -0.1485
56178SOL     OW80258   4.754  11.164   0.699 -0.6884 -0.3178 -0.3433
56178SOL    HW180259   4.663  11.133   0.705 -0.5381 -0.5030  1.2945
56178SOL    HW280260   4.754  11.247   0.747 -0.6564  1.3771 -3.0510
56179SOL     OW80261   8.383   3.808   1.480 -0.1822  0.0127  0.5022
56179SOL    HW180262   8.326   3.802   1.403  1.2191 -1.1747 -0.5075
56179SOL    HW280263   8.332   3.769   1.551 -0.9874 -0.1498 -0.1518
56180SOL     OW80264   5.220   2.269   1.432  0.0143 -0.5580 -0.1431
56180SOL    HW180265   5.269   2.350   1.419  2.8394 -2.1635 -0.5324
56180SOL    HW280266   5.144   2.277   1.375 -1.2493  2.7972  1.7595
56181SOL     OW80267   7.044   1.980   9.073 -0.5604 -0.5895  0.2189
56181SOL    HW180268   7.125   2.022   9.044  0.1539 -1.6744  0.5637
56181SOL    HW280269   7.047   1.987   9.169 -1.4803  0.4238  0.1880
56182SOL     OW80270   4.005   9.841   3.903  0.0021 -0.0636  0.2264
56182SOL    HW180271   3.989   9.762   3.954 -1.1605  1.1131  1.8153
56182SOL    HW280272   4.038   9.904   3.967  2.0969  0.4080 -1.2378
56183SOL     OW80273   9.145   2.305   3.454 -0.4351 -0.2387 -0.2233
56183SOL    HW180274   9.159   2.296   3.359 -0.3508  2.5230 -0.5391
56183SOL    HW280275   9.112   2.394   3.465  1.0553  0.0671  2.5152
56184SOL     OW80276   6.546   7.329   6.652  0.2310  0.3163 -0.2424
56184SOL    HW180277   6.529   7.243   6.615 -2.6058  0.8350 -0.3370
56184SOL    HW280278   6.561   7.313   6.745  2.1774 -0.4661 -0.6529
56185SOL     OW80279   3.986  12.395   3.904  0.0090 -0.2725 -0.0301
56185SOL    HW180280   4.023  12.320   3.950 -0.0504  0.0767  0.5969
56185SOL    HW280281   3.982  12.464   3.970  1.1718  0.6601 -0.8925
56186SOL     OW80282   1.391  13.350   0.990 -0.1833 -0.4382 -0.3062
56186SOL    HW180283   1.399  13.298   0.910  0.4880  2.8543 -2.5431
56186SOL    HW280284   1.331  13.421   0.968  0.2784  0.7799  2.0148
56187SOL     OW80285   9.090   4.220  11.777 -0.4056  0.2253  0.3922
56187SOL    HW180286   9.168   4.274  11.768 -0.8042  1.1459  2.0059
56187SOL    HW280287   9.058   4.209  11.687  0.2230  1.8819 -0.0802
56188SOL     OW80288   2.935   4.645   6.483 -0.6392 -0.1442  0.2160
56188SOL    HW180289   3.015   4.640   6.430  0.1478  0.8324  1.2696
56188SOL    HW280290   2.920   4.555   6.512 -0.5510 -0.5250 -0.8828
56189SOL     OW80291   3.147   3.190   0.222  0.7905 -0.3856 -0.8317
56189SOL    HW180292   3.197   3.151   0.294  0.6852  0.3980 -0.3277
56189SOL    HW280293   3.133   3.281   0.248 -0.8692 -0.5660 -0.9820
56190SOL     OW80294   2.333   4.881   7.798 -0.0610  0.2767 -0.0159
56190SOL    HW180295   2.238   4.890   7.798 -0.1009 -0.0902 -0.5362
56190SOL    HW280296   2.363   4.937   7.869 -0.6886  0.1529  0.3483
56191SOL     OW80297   4.690   0.757   3.060  0.7152 -0.2327  0.2500
56191SOL    HW180298   4.708   0.694   3.129  1.2309 -0.4047 -0.0308
56191SOL    HW280299   4.658   0.704   2.987 -3.7003  0.2563  1.5433
56192SOL     OW80300  13.430   8.046   5.703 -0.2288 -1.0273  0.4177
56192SOL    HW180301  13.419   8.051   5.609  0.4116 -1.4465  0.3109
56192SOL    HW280302  13.344   8.067   5.739 -0.7857 -2.0114 -0.2906
56193SOL     OW80303   9.323   1.020   5.853 -0.4025 -0.4816 -0.6733
56193SOL    HW180304   9.343   1.081   5.782  1.2523 -0.6446 -0.3815
56193SOL    HW280305   9.332   0.933   5.813 -0.0935 -0.5660 -0.4191
56194SOL     OW80306   8.592  10.504   0.112  0.4783 -0.6722  0.5316
56194SOL    HW180307   8.665  10.553   0.149  1.9110 -1.6611 -0.8345
56194SOL    HW280308   8.593  10.421   0.158  0.2776 -0.7173  0.4548
56195SOL     OW80309   6.345   3.769  12.533 -0.4925 -0.4302 -0.0005
56195SOL    HW180310   6.268   3.809  12.574 -1.3324  0.0444 -1.9495
56195SOL    HW280311   6.418   3.793  12.591 -1.4734  1.0462  0.6786
56196SOL     OW80312   4.885   9.951   2.533 -0.1870 -0.2544 -0.1943
56196SOL    HW180313   4.809   9.920   2.583 -1.5384  2.5411 -0.3048
56196SOL    HW280314   4.953   9.964   2.598  0.3270 -2.8698 -0.0990
56197SOL     OW80315  12.410   3.377   4.474  0.1639  0.3655 -0.3753
56197SOL    HW180316  12.478   3.444   4.481 -1.3418  2.1001 -1.4281
56197SOL    HW280317  12.456   3.300   4.439  1.5689  1.4950 -1.1114
56198SOL     OW80318  12.491  12.662   0.875  0.4569  0.0794  0.0784
56198SOL    HW180319  12.467  12.569   0.880  0.2244  0.0503 -1.2275
56198SOL    HW280320  12.413  12.709   0.904  0.2260 -0.1183 -0.2088
56199SOL     OW80321   5.548  10.733   3.475  0.2997 -0.6081 -0.1198
56199SOL    HW180322   5.502  10.650   3.460  0.9210 -0.7986 -1.0247
56199SOL    HW280323   5.576  10.728   3.567 -0.5779 -0.9325  0.1423
56200SOL     OW80324   8.615  11.615   5.079 -0.0154  0.1527 -0.1904
56200SOL    HW180325   8.697  11.587   5.119 -0.5780 -0.0528  0.8608
56200SOL    HW280326   8.585  11.538   5.030  0.1567  0.0608 -0.1537
56201SOL     OW80327   7.998  10.398   8.488  0.0328  0.1211  0.4447
56201SOL    HW180328   7.906  10.418   8.507 -0.2923 -3.3805  3.5669
56201SOL    HW280329   8.045  10.477   8.514 -1.8726  0.9756  1.5300
56202SOL     OW80330  13.606   3.819   9.727  0.2714  0.0388 -0.1059
56202SOL    HW180331  13.525   3.802   9.776  0.9710  1.4334  1.6358
56202SOL    HW280332  13.676   3.808   9.791  1.3387  0.5962 -1.1303
56203SOL     OW80333   0.867   5.476   2.359  0.2582  0.2700  0.2056
56203SOL    HW180334   0.801   5.436   2.302 -1.3991  2.0174  0.7950
56203SOL    HW280335   0.945   5.423   2.346 -0.7142 -0.7465 -1.9473
56204SOL     OW80336   6.402   2.546   3.211  0.3883  0.0276  0.3186
56204SOL    HW180337   6.449   2.602   3.273  0.4202  0.4367 -0.0689
56204SOL    HW280338   6.440   2.568   3.126 -1.2683  1.1782 -0.1564
56205SOL     OW80339   6.794   1.507   8.277 -0.3403 -0.3489 -0.5767
56205SOL    HW180340   6.708   1.483   8.313 -0.3230  0.7462  0.2590
56205SOL    HW280341   6.811   1.441   8.210 -0.8256 -1.9259  0.7778
56206SOL     OW80342   5.665  12.005   2.294 -0.0110  0.4895  0.6107
56206SOL    HW180343   5.672  11.936   2.360  1.6256  0.4810  0.4550
56206SOL    HW280344   5.634  11.960   2.215  1.2276 -0.1267  0.4531
56207SOL     OW80345   0.920   0.141   8.355  0.3471 -0.2810  0.0457
56207SOL    HW180346   0.977   0.109   8.286 -0.2323 -0.4101 -0.3825
56207SOL    HW280347   0.960   0.109   8.436  1.1376  0.0414 -0.2110
56208SOL     OW80348   7.904   3.023  10.921  0.6518  0.1195 -0.4214
56208SOL    HW180349   7.856   2.945  10.947 -0.6116  0.3587 -1.8917
56208SOL    HW280350   7.977   2.989  10.868  1.4480 -0.1668  0.8146
56209SOL     OW80351   7.441   4.068  11.462 -0.2515  0.1408  0.3691
56209SOL    HW180352   7.533   4.078  11.440 -0.0188  0.6331  1.4687
56209SOL    HW280353   7.394   4.115  11.393  0.1064 -2.4329 -1.7859
56210SOL     OW80354   0.740  11.779  12.316 -0.7511 -0.8071 -0.6488
56210SOL    HW180355   0.804  11.720  12.275  0.6798 -1.9348  2.8186
56210SOL    HW280356   0.675  11.719  12.354 -0.8845  0.0455  0.4763
56211SOL     OW80357  11.275   2.644   6.039  0.2055 -0.7335  0.3907
56211SOL    HW180358  11.201   2.638   6.100  0.0290 -1.4976  0.1070
56211SOL    HW280359  11.306   2.734   6.049 -0.1426 -0.6955  1.2331
56212SOL     OW80360   9.327  13.414   3.437  0.0797 -0.3315 -0.3999
56212SOL    HW180361   9.322  13.374   3.524 -0.8253 -1.9423 -1.1421
56212SOL    HW280362   9.348  13.506   3.453  0.9159 -0.8171  1.4579
56213SOL     OW80363   2.568   9.874  11.891 -0.7353 -0.0303 -0.7055
56213SOL    HW180364   2.661   9.889  11.878 -0.7075  0.0570 -0.3995
56213SOL    HW280365   2.533   9.863  11.802 -0.2728 -1.0131 -0.7826
56214SOL     OW80366   8.018  13.168   8.319  0.0061 -0.6943 -1.2571
56214SOL    HW180367   8.052  13.210   8.399 -0.4413 -0.9676 -0.9184
56214SOL    HW280368   7.924  13.159   8.335 -0.1732 -0.2661 -2.0391
56215SOL     OW80369   6.984   1.239   0.582 -0.0014  0.4833 -1.2843
56215SOL    HW180370   6.900   1.284   0.591  0.2019  0.7880 -0.9163
56215SOL    HW280371   6.963   1.147   0.597 -0.2508  0.5728 -1.0765
56216SOL     OW80372  13.154   2.738   9.529  0.3610  0.1063  0.1392
56216SOL    HW180373  13.142   2.818   9.477 -0.3764  0.2245  0.4811
56216SOL    HW280374  13.080   2.682   9.504  0.3461 -0.0839  0.6056
56217SOL     OW80375  11.200  12.770  12.146 -0.3997  0.0641 -0.1800
56217SOL    HW180376  11.262  12.833  12.108 -1.3119  0.3126 -1.3433
56217SOL    HW280377  11.172  12.810  12.228 -0.2618  0.7550 -0.4578
56218SOL     OW80378   8.875  10.671  11.356  0.2813 -0.1424 -0.4156
56218SOL    HW180379   8.926  10.600  11.396  0.5170 -0.4260 -1.1794
56218SOL    HW280380   8.827  10.711  11.428  1.5698  0.1106  0.3315
56219SOL     OW80381  11.876   6.044   9.616  0.3107 -0.0779  0.7392
56219SOL    HW180382  11.846   6.119   9.668  0.7460  0.5367  0.1241
56219SOL    HW280383  11.818   6.044   9.540  1.1106  0.4242  0.1082
56220SOL     OW80384   5.404   3.822  12.909  0.4566 -0.0651 -0.1287
56220SOL    HW180385   5.310   3.811  12.923  0.5099 -0.8566 -0.3260
56220SOL    HW280386   5.414   3.913  12.882 -0.2229  0.0959  0.1516
56221SOL     OW80387   2.645  10.447   8.336 -0.2016  0.2589  0.3721
56221SOL    HW180388   2.661  10.365   8.289 -0.0674  1.6626 -2.2684
56221SOL    HW280389   2.557  10.473   8.309 -1.1306 -0.0257  2.9023
56222SOL     OW80390   8.170  13.157   0.946  0.4241 -0.2189  0.1201
56222SOL    HW180391   8.208  13.079   0.906 -0.1601 -0.1327 -0.6265
56222SOL    HW280392   8.220  13.230   0.909 -2.1959  0.1429 -3.1575
56223SOL     OW80393  12.044   8.102   2.287 -0.2989 -0.3553  0.5800
56223SOL    HW180394  12.118   8.067   2.336  0.5495  2.2990  1.3438
56223SOL    HW280395  12.074   8.102   2.196 -0.2498 -1.3503  0.5814
56224SOL     OW80396   0.074   1.559   8.759  0.4782 -0.5829 -0.1815
56224SOL    HW180397   0.057   1.506   8.836 -1.3877 -1.1258 -0.9037
56224SOL    HW280398  -0.013   1.589   8.731  1.4315  3.3517  0.5085
56225SOL     OW80399   3.910  10.156  12.397 -0.4975 -0.1545 -0.1485
56225SOL    HW180400   3.894  10.113  12.481 -1.6839 -0.5058 -0.5226
56225SOL    HW280401   4.004  10.145  12.381 -0.7679 -2.8760 -0.3271
56226SOL     OW80402  12.519  10.383   6.068 -0.1916 -0.4081 -0.1898
56226SOL    HW180403  12.590  10.447   6.071 -0.7704  0.4054 -2.4137
56226SOL    HW280404  12.440  10.433   6.090 -0.7569 -0.0976 -2.6616
56227SOL     OW80405   9.618   1.372   8.750  0.1103  0.5873 -0.1721
56227SOL    HW180406   9.543   1.360   8.808  0.9696  0.8034  1.0264
56227SOL    HW280407   9.598   1.452   8.701  0.6809  2.1385  1.9997
56228SOL     OW80408  12.220  12.944   3.521 -0.0803  0.3809  0.3442
56228SOL    HW180409  12.189  12.977   3.605 -1.0741 -0.1967  0.2086
56228SOL    HW280410  12.212  13.019   3.461  1.2979  1.0111  0.8890
56229SOL     OW80411   0.893   7.662  12.252 -0.0524  1.0267 -0.2253
56229SOL    HW180412   0.887   7.754  12.278  0.1243  1.5879 -2.0160
56229SOL    HW280413   0.986   7.649  12.231  0.0626  0.2130  0.6932
56230SOL     OW80414   4.281   1.580   1.365  0.1063  0.2019  0.2284
56230SOL    HW180415   4.351   1.523   1.332 -0.8085 -0.1521 -1.2147
56230SOL    HW280416   4.275   1.650   1.300 -1.8545 -0.5877 -0.5133
56231SOL     OW80417  12.741  13.585  10.784  0.3324 -0.2520  0.3915
56231SOL    HW180418  12.717  13.575  10.692 -1.1078 -1.6106  0.8682
56231SOL    HW280419  12.817  13.528  10.795 -0.4590 -1.3383  0.3682
56232SOL     OW80420   4.342   4.324  13.262  0.0380 -0.5267 -0.0019
56232SOL    HW180421   4.411   4.284  13.210  0.3906 -0.1990  0.2140
56232SOL    HW280422   4.372   4.316  13.352 -0.4415 -0.8381  0.1366
56233SOL     OW80423  11.764   3.534   1.975 -0.7218  0.6261  0.1029
56233SOL    HW180424  11.779   3.601   2.042  1.4138 -0.2005  0.5330
56233SOL    HW280425  11.840   3.539   1.918 -0.9570 -0.8459 -0.3763
56234SOL     OW80426   7.452  10.582   6.904  0.3027  0.8245 -0.7289
56234SOL    HW180427   7.502  10.663   6.890  1.3804  0.7595  2.0479
56234SOL    HW280428   7.518  10.516   6.925 -0.7869  0.2695  1.1716
56235SOL     OW80429   7.224  10.533   8.662  0.1589 -0.1303 -0.0711
56235SOL    HW180430   7.298  10.547   8.720  1.0898  0.6127 -1.3749
56235SOL    HW280431   7.211  10.617   8.618 -0.2559 -0.7558 -1.2027
56236SOL     OW80432   7.014   8.476   9.541  0.0341 -0.0329 -0.4630
56236SOL    HW180433   6.949   8.406   9.545  0.7954 -0.9559 -2.7229
56236SOL    HW280434   6.970   8.547   9.496 -0.6718  0.9530  1.6517
56237SOL     OW80435   0.996  10.395   7.653 -0.1820 -0.2061  0.0717
56237SOL    HW180436   1.057  10.338   7.699  0.4336  1.1748  1.0444
56237SOL    HW280437   0.972  10.461   7.718 -0.8817  0.6300 -1.0112
56238SOL     OW80438   3.855   6.723   8.692  0.7896  0.5382  0.0377
56238SOL    HW180439   3.927   6.758   8.743 -0.4934  0.5842  1.9369
56238SOL    HW280440   3.786   6.790   8.697 -0.4415 -0.7223  0.8030
56239SOL     OW80441   2.755   5.170   8.948 -0.3508 -0.3442  0.4816
56239SOL    HW180442   2.706   5.099   8.907  1.9808 -1.7585 -0.0831
56239SOL    HW280443   2.695   5.207   9.013 -2.1687 -1.8252 -0.2720
56240SOL     OW80444   4.259   9.515   8.662  0.4236 -0.2741  0.2174
56240SOL    HW180445   4.218   9.477   8.584  0.6480 -1.7138  0.7636
56240SOL    HW280446   4.336   9.461   8.677  0.2045 -0.2284  1.6246
56241SOL     OW80447   9.908   9.613   4.379 -0.2166 -0.5199  0.5141
56241SOL    HW180448   9.818   9.636   4.358 -0.5912 -1.5319  0.9258
56241SOL    HW280449   9.902   9.526   4.421  1.2479 -2.3527 -2.7117
56242SOL     OW80450  13.452   9.465   4.863 -0.2838  0.4871  0.0209
56242SOL    HW180451  13.446   9.380   4.819  0.3090  0.1753  0.5263
56242SOL    HW280452  13.512   9.450   4.936  1.3545  1.8063 -0.9918
56243SOL     OW80453  10.377   7.930  10.807 -0.6633 -0.2525 -0.4053
56243SOL    HW180454  10.397   7.956  10.717  1.8953 -2.0259 -0.4645
56243SOL    HW280455  10.352   7.838  10.800 -2.5984  0.1488  0.5265
56244SOL     OW80456   2.726   8.575   4.800 -0.0026  0.3680 -0.0055
56244SOL    HW180457   2.716   8.579   4.705 -0.5819 -2.1855 -0.1334
56244SOL    HW280458   2.670   8.644   4.834 -2.9053 -1.1053 -1.4339
56245SOL     OW80459  12.870   3.819   5.448  0.5531  0.1051  0.2855
56245SOL    HW180460  12.893   3.908   5.477  0.1213  0.1896  0.3816
56245SOL    HW280461  12.779   3.827   5.420  0.8306 -0.0766 -0.6897
56246SOL     OW80462   8.774   2.208  13.065  0.5386 -0.2444  0.5185
56246SOL    HW180463   8.723   2.276  13.021 -0.0762 -0.9217  0.1647
56246SOL    HW280464   8.865   2.234  13.052  0.3472 -0.0841 -0.6113
56247SOL     OW80465  11.706   0.829  13.319 -1.0759  0.6388  0.3583
56247SOL    HW180466  11.669   0.743  13.297 -1.1421  0.8396 -0.3384
56247SOL    HW280467  11.631   0.888  13.312 -1.0267  0.7539  0.8256
56248SOL     OW80468  12.041  12.088  11.129  0.0137  0.4916  0.2055
56248SOL    HW180469  12.074  12.133  11.051 -2.0460  2.1159  0.1749
56248SOL    HW280470  12.002  12.008  11.094  2.4427 -0.7319  0.0886
56249SOL     OW80471   8.109   5.733  10.429  0.9146  0.2194 -0.0093
56249SOL    HW180472   8.158   5.806  10.468 -0.9405  1.8842 -0.5961
56249SOL    HW280473   8.035   5.720  10.487  0.1773  0.1337 -0.9411
56250SOL     OW80474   8.723   8.758   4.614  0.4060  0.1206 -0.5945
56250SOL    HW180475   8.807   8.762   4.659  0.0983 -0.1918  0.0170
56250SOL    HW280476   8.728   8.679   4.560 -0.4506 -1.4355  1.4422
56251SOL     OW80477   6.272   0.169  13.719  0.2037  0.4022  0.0486
56251SOL    HW180478   6.209   0.237  13.696  0.7111  1.0585  0.5750
56251SOL    HW280479   6.237   0.090  13.679  0.0601  1.1380 -1.3319
56252SOL     OW80480   9.730   3.281  11.501  0.0789 -0.0064 -0.2866
56252SOL    HW180481   9.805   3.338  11.516  0.7217 -0.3907 -1.8648
56252SOL    HW280482   9.654   3.333  11.527  0.8238  0.7101  0.4795
56253SOL     OW80483   8.153  12.678  10.578  0.1359 -0.0662 -0.5369
56253SOL    HW180484   8.158  12.645  10.489  1.4337  1.0862 -0.9309
56253SOL    HW280485   8.062  12.665  10.604 -0.8748  1.6901 -2.8745
56254SOL     OW80486   6.991   2.659   5.389 -0.1012 -0.0664  0.4534
56254SOL    HW180487   6.950   2.584   5.345  2.3196 -0.6078 -1.0806
56254SOL    HW280488   6.943   2.735   5.357  0.1368 -0.6568 -1.4510
56255SOL     OW80489   0.719   9.956   5.069 -0.6223  0.2855 -0.5318
56255SOL    HW180490   0.719   9.993   4.981 -0.3956  2.4784  0.3151
56255SOL    HW280491   0.628   9.964   5.098 -0.5592  0.2134 -0.3150
56256SOL     OW80492   8.330   3.789   2.963 -0.5821 -0.3789  0.4749
56256SOL    HW180493   8.400   3.832   3.011 -1.0081  2.1628 -0.9965
56256SOL    HW280494   8.374   3.747   2.889 -0.4849  0.1892  0.2100
56257SOL     OW80495  13.514   7.069   2.338  0.4401  0.3553  0.1208
56257SOL    HW180496  13.441   7.074   2.400  1.0732  1.6601  0.8009
56257SOL    HW280497  13.576   7.009   2.380  0.2371  0.1018  0.0609
56258SOL     OW80498   6.578   8.886  12.070 -0.0304 -0.3658 -0.2783
56258SOL    HW180499   6.484   8.903  12.077  0.3515  3.2098 -1.5081
56258SOL    HW280500   6.615   8.928  12.148  0.6754 -0.1067 -0.7449
56259SOL     OW80501   2.955   6.944   1.607 -0.3282 -0.0757  0.7642
56259SOL    HW180502   2.901   6.973   1.533  0.0422  1.0386  0.9140
56259SOL    HW280503   2.920   6.990   1.683 -0.3657 -0.8065  1.2077
56260SOL     OW80504   1.872   4.818   5.766 -0.3806  0.4223  0.1898
56260SOL    HW180505   1.879   4.807   5.671 -1.4811  0.6832  0.0619
56260SOL    HW280506   1.866   4.728   5.800  1.1731  0.2820  0.1317
56261SOL     OW80507   8.698   6.166   4.075  0.4783 -0.7011 -0.4387
56261SOL    HW180508   8.668   6.208   3.995 -0.9827 -3.0311 -1.2078
56261SOL    HW280509   8.639   6.200   4.143 -0.1623 -0.8958 -0.8919
56262SOL     OW80510   6.454   1.100   9.148 -0.3076 -0.3313  0.3116
56262SOL    HW180511   6.509   1.178   9.141  0.1863 -0.8358 -2.5556
56262SOL    HW280512   6.370   1.133   9.182 -1.2144  2.1784 -3.6853
56263SOL     OW80513   9.133   0.515   8.255 -0.3615 -0.0072 -0.0409
56263SOL    HW180514   9.217   0.524   8.210  0.7249 -0.9299  1.6470
56263SOL    HW280515   9.156   0.520   8.348 -2.0877 -0.9025  0.4855
56264SOL     OW80516  13.060  11.148  10.170  0.3697  0.3060 -0.4724
56264SOL    HW180517  12.976  11.106  10.152  0.9477 -1.3944  0.5264
56264SOL    HW280518  13.055  11.232  10.126 -2.0810  0.5049  0.0434
56265SOL     OW80519   1.528   8.342  10.880  0.8616  0.2418 -0.8267
56265SOL    HW180520   1.502   8.412  10.939 -0.3242 -2.5293  2.2892
56265SOL    HW280521   1.624   8.340  10.886  0.9274  1.6180 -1.1087
56266SOL     OW80522   6.369   5.596  11.342 -0.3513 -0.4108 -0.6982
56266SOL    HW180523   6.313   5.652  11.396 -0.3331 -1.7519  0.8011
56266SOL    HW280524   6.320   5.514  11.335  0.5073 -0.8982 -1.1373
56267SOL     OW80525   7.289   1.549   9.693 -0.6400 -0.2190  0.1627
56267SOL    HW180526   7.359   1.496   9.655  0.0601  1.9435 -1.8479
56267SOL    HW280527   7.334   1.626   9.728 -1.9541  1.4348 -1.5822
56268SOL     OW80528  11.169   5.787   1.730 -0.4197  0.0165  0.1439
56268SOL    HW180529  11.155   5.708   1.679 -0.9999  0.1950  0.0107
56268SOL    HW280530  11.200   5.756   1.815  2.4810 -0.1999 -0.8974
56269SOL     OW80531   9.039   8.032   0.472  0.1588 -0.3073  0.7049
56269SOL    HW180532   9.114   8.069   0.518 -0.2022  0.6168  0.5889
56269SOL    HW280533   8.963   8.059   0.523 -0.3990  2.2391 -1.2488
56270SOL     OW80534   9.778   4.880   8.440  0.2484  0.0569  0.6916
56270SOL    HW180535   9.769   4.835   8.524 -0.2784  2.0609  1.7566
56270SOL    HW280536   9.694   4.924   8.426  0.2201 -0.4634 -1.0469
56271SOL     OW80537   3.927  12.760   0.934 -0.0020 -0.0920  0.5515
56271SOL    HW180538   3.910  12.851   0.959 -0.6806  0.2895 -1.1429
56271SOL    HW280539   3.947  12.716   1.017  0.1950  1.5536  1.4288
56272SOL     OW80540   2.675   9.292   5.756 -0.2098  0.0812  0.0268
56272SOL    HW180541   2.725   9.368   5.730 -2.9645  2.1455  0.2949
56272SOL    HW280542   2.602   9.288   5.694 -0.1818 -2.3832  0.0233
56273SOL     OW80543   3.496  13.331   3.997  0.1168  0.1070 -0.1399
56273SOL    HW180544   3.403  13.353   3.991  0.1097  0.3272  0.5769
56273SOL    HW280545   3.539  13.392   3.937 -0.1661  0.2921 -0.1586
56274SOL     OW80546   3.207   8.657   3.384 -0.0669 -0.1279 -0.4672
56274SOL    HW180547   3.244   8.734   3.427 -1.2472  0.4198 -0.3911
56274SOL    HW280548   3.185   8.598   3.456  0.6165 -0.4501 -0.5120
56275SOL     OW80549   1.496   3.478   8.235 -0.5562 -0.3223 -0.0985
56275SOL    HW180550   1.547   3.446   8.161  1.5643  1.5860  0.4112
56275SOL    HW280551   1.541   3.558   8.262 -2.8227  0.4970  1.5806
56276SOL     OW80552   6.346   1.599   1.298 -0.7538 -0.5278 -0.5403
56276SOL    HW180553   6.437   1.619   1.320 -0.4043 -1.0933 -1.4111
56276SOL    HW280554   6.320   1.533   1.362  0.2139 -2.0825 -1.6910
56277SOL     OW80555   1.761  11.078   1.641 -0.1857 -0.1979 -0.0975
56277SOL    HW180556   1.765  11.133   1.719 -0.9335  0.9687 -0.8557
56277SOL    HW280557   1.831  11.013   1.654 -0.5480 -0.2743  1.7043
56278SOL     OW80558  12.001   6.539   5.107  0.5948 -0.2565  0.2215
56278SOL    HW180559  11.909   6.528   5.128  0.5422 -1.9272 -0.6243
56278SOL    HW280560  12.048   6.517   5.187  0.2893 -1.8003  0.0056
56279SOL     OW80561   4.651  11.922  13.197  0.0504 -0.5610  0.7431
56279SOL    HW180562   4.690  11.926  13.109 -1.1450 -2.7817  0.0458
56279SOL    HW280563   4.726  11.911  13.256  0.7801 -0.4470 -0.1355
56280SOL     OW80564   8.078   0.460   3.510  0.3054  0.3929 -0.5337
56280SOL    HW180565   8.087   0.420   3.596  0.4483 -1.3618 -1.3259
56280SOL    HW280566   8.137   0.536   3.512 -0.0318  0.6422  1.0377
56281SOL     OW80567   9.978   1.703   3.503 -0.9982 -0.7408  1.0385
56281SOL    HW180568   9.906   1.748   3.546 -1.8211 -1.4784  0.4531
56281SOL    HW280569  10.014   1.645   3.570 -1.6754 -1.1995  1.0095
56282SOL     OW80570  10.317  12.103   3.208  0.5824  0.3944 -0.2858
56282SOL    HW180571  10.262  12.161   3.260  0.8981 -0.2059  0.7655
56282SOL    HW280572  10.264  12.024   3.196  0.4967  0.5449 -0.9289
56283SOL     OW80573   7.051   0.035  12.085 -0.1865 -0.4680  0.4901
56283SOL    HW180574   7.035   0.111  12.029  1.4943 -0.9416 -0.7142
56283SOL    HW280575   6.967  -0.011  12.087 -0.7642  0.5097 -0.1572
56284SOL     OW80576  12.024  10.825   5.788 -0.1165  0.4392  0.3779
56284SOL    HW180577  12.017  10.871   5.704  0.3240  1.6507  0.9733
56284SOL    HW280578  12.118  10.812   5.800 -0.2648 -1.1083 -0.0145
56285SOL     OW80579   3.889  11.004  11.222 -0.3855 -1.1054 -0.1111
56285SOL    HW180580   3.865  10.919  11.257  0.2939 -1.9993 -1.6865
56285SOL    HW280581   3.924  10.985  11.135 -2.4472  0.9985 -1.5240
56286SOL     OW80582   6.701   9.873  13.005 -0.3213 -0.1400 -0.3521
56286SOL    HW180583   6.666   9.876  13.094  0.2170  0.3758 -0.1501
56286SOL    HW280584   6.645   9.933  12.955  0.1665  0.5727 -0.0622
56287SOL     OW80585  10.962   9.142  12.056  0.0173 -0.0479 -0.8966
56287SOL    HW180586  11.023   9.164  12.127  0.7270 -1.4313 -1.0482
56287SOL    HW280587  10.880   9.120  12.100  0.2759 -0.3174 -0.5425
56288SOL     OW80588  10.032   1.420   1.712  0.3085  0.8449  0.5396
56288SOL    HW180589   9.956   1.369   1.684  0.6541 -0.8479  2.4730
56288SOL    HW280590  10.107   1.374   1.673  0.6213 -0.2040  2.2791
56289SOL     OW80591   2.325   2.706   8.325  0.6771  0.4846 -0.1539
56289SOL    HW180592   2.246   2.758   8.341  0.0635 -0.2259 -0.7963
56289SOL    HW280593   2.397   2.764   8.351 -0.0078  1.4841 -0.4150
56290SOL     OW80594   3.956   1.560   3.369  0.2913  0.0578  0.3283
56290SOL    HW180595   4.030   1.539   3.426  1.3602 -2.0783 -1.6721
56290SOL    HW280596   3.985   1.636   3.319  0.8587 -0.3376  0.0489
56291SOL     OW80597  10.333   0.389  10.138 -0.2007 -0.1243  0.3057
56291SOL    HW180598  10.351   0.331  10.213  0.5010 -0.2071  0.0839
56291SOL    HW280599  10.311   0.329  10.067  0.3237 -0.1196  0.1312
56292SOL     OW80600   0.780   0.425  13.546 -0.2751 -0.1740 -0.1848
56292SOL    HW180601   0.719   0.464  13.608 -1.1936 -0.5350 -0.8365
56292SOL    HW280602   0.828   0.499  13.510 -0.5703  0.1532  0.0870
56293SOL     OW80603  11.355   7.442   3.117 -0.2061 -0.5542 -0.1551
56293SOL    HW180604  11.390   7.507   3.056 -1.2871  1.9524  1.7115
56293SOL    HW280605  11.264   7.430   3.090 -0.4296 -0.1151  0.3744
56294SOL     OW80606   0.083   0.378   1.237  0.1986  0.0033  0.1350
56294SOL    HW180607   0.108   0.470   1.226  2.1705 -0.5249 -0.3175
56294SOL    HW280608   0.019   0.361   1.169 -1.1318  1.3342  0.9967
56295SOL     OW80609  10.540  12.541   5.610  0.1934 -0.0738 -0.7879
56295SOL    HW180610  10.484  12.581   5.676 -1.5214 -0.6254 -1.8545
56295SOL    HW280611  10.568  12.458   5.650  1.3031  0.7378  0.2212
56296SOL     OW80612   5.576   0.273   7.117 -0.0973 -0.0890  0.5156
56296SOL    HW180613   5.492   0.303   7.153 -0.5611 -1.9750  1.1278
56296SOL    HW280614   5.551   0.218   7.043  0.6321 -0.2281  0.3697
56297SOL     OW80615  12.149  10.529  12.387 -0.0609 -0.6161 -0.0821
56297SOL    HW180616  12.114  10.512  12.475  0.5873  1.6654  0.6930
56297SOL    HW280617  12.230  10.577  12.403 -0.3345  0.5516 -1.9497
56298SOL     OW80618   6.148   6.887  12.258 -0.3698  0.1510 -0.1037
56298SOL    HW180619   6.152   6.806  12.309 -0.3755 -0.1670 -0.6029
56298SOL    HW280620   6.170   6.861  12.169 -0.2802  0.7165 -0.2542
56299SOL     OW80621  13.589   2.724   2.461 -0.7336 -0.1757 -0.3583
56299SOL    HW180622  13.523   2.730   2.392 -0.3750 -0.9298 -0.7838
56299SOL    HW280623  13.657   2.786   2.434 -0.9051  0.0264 -0.3277
56300SOL     OW80624   2.058   0.918   2.359  0.0200  0.3924 -0.0359
56300SOL    HW180625   2.095   0.977   2.425  0.1687  2.0467 -1.5237
56300SOL    HW280626   1.988   0.968   2.318 -0.7378 -0.9672 -0.4842
56301SOL     OW80627   4.471   3.710   0.085 -0.1169  0.4803  0.4223
56301SOL    HW180628   4.376   3.719   0.093 -0.0700  1.6319 -0.0908
56301SOL    HW280629   4.501   3.687   0.173 -1.0583 -2.0405  0.1664
56302SOL     OW80630   8.005   2.160   0.970  0.3237  0.0606  0.1538
56302SOL    HW180631   8.006   2.242   1.018  0.2299  0.4555 -0.5124
56302SOL    HW280632   8.096   2.132   0.967  0.7046  1.3172 -1.5921
56303SOL     OW80633   3.754  10.043   6.501  0.0698  0.5405 -0.3780
56303SOL    HW180634   3.799  10.020   6.420 -0.8034  0.9496 -1.0002
56303SOL    HW280635   3.748   9.960   6.549  0.5451  0.2818 -0.7595
56304SOL     OW80636   3.733  11.551   6.095  0.1900  0.0830  0.0020
56304SOL    HW180637   3.646  11.511   6.094  0.1147  0.2560 -0.5139
56304SOL    HW280638   3.717  11.645   6.103  0.1064  0.6120 -4.1816
56305SOL     OW80639   4.667  11.183   0.259 -0.2257 -0.2399  0.7034
56305SOL    HW180640   4.653  11.200   0.166 -0.2859 -1.6957  0.4135
56305SOL    HW280641   4.580  11.194   0.298 -0.1057  0.8567  0.6860
56306SOL     OW80642  13.562   5.256   5.780 -0.0813 -0.2341 -1.0231
56306SOL    HW180643  13.611   5.252   5.862  1.3655 -0.2130 -1.8488
56306SOL    HW280644  13.614   5.314   5.724 -0.8840 -0.4792 -2.0514
56307SOL     OW80645   1.619   7.764   8.779  0.0128 -0.2362 -0.4694
56307SOL    HW180646   1.622   7.672   8.752 -1.9168 -1.6286  3.3608
56307SOL    HW280647   1.680   7.769   8.852 -0.2417  1.4580 -0.3462
56308SOL     OW80648   4.127  11.569   2.215 -0.1672  0.1901  0.2946
56308SOL    HW180649   4.162  11.654   2.241  1.1872 -0.0100 -0.7818
56308SOL    HW280650   4.197  11.507   2.233 -0.5719 -0.4718 -0.3483
56309SOL     OW80651  11.205   3.206  10.146 -0.3058 -0.4533  0.1567
56309SOL    HW180652  11.241   3.217  10.234 -0.0430 -2.3105  0.3146
56309SOL    HW280653  11.277   3.168  10.095 -0.6219  0.1045 -0.7275
56310SOL     OW80654   9.591   9.737  10.236  0.1235 -0.5536 -0.3586
56310SOL    HW180655   9.648   9.697  10.301  0.4198 -0.2566 -0.4295
56310SOL    HW280656   9.513   9.682  10.235  0.9377 -1.7296 -1.1941
56311SOL     OW80657   4.004   7.390   7.156  0.1905  0.1981 -0.6737
56311SOL    HW180658   3.941   7.331   7.114  0.5569  0.6163 -1.8519
56311SOL    HW280659   3.974   7.396   7.247 -0.4940 -0.9218 -0.7995
56312SOL     OW80660   5.260   8.872  10.770  0.4808 -0.3277 -0.4209
56312SOL    HW180661   5.166   8.882  10.759  0.6041 -1.2944 -2.8036
56312SOL    HW280662   5.270   8.850  10.863 -1.3903  1.8696  0.4061
56313SOL     OW80663  11.673   3.828  12.101 -0.1626  0.1801  0.4005
56313SOL    HW180664  11.708   3.886  12.169  0.7738  0.6124 -0.4239
56313SOL    HW280665  11.715   3.743  12.118  0.1022  0.2981  0.3412
56314SOL     OW80666   7.074   6.500  12.043  0.5174 -0.7933  0.2373
56314SOL    HW180667   7.062   6.593  12.025 -1.5321 -0.7274  1.5108
56314SOL    HW280668   7.048   6.456  11.962  0.7855 -0.2800 -0.1302
56315SOL     OW80669  10.184  12.144   4.843  0.1310 -0.4521  0.4259
56315SOL    HW180670  10.269  12.187   4.845 -1.0795  2.3545 -1.2651
56315SOL    HW280671  10.144  12.166   4.927  0.7549 -1.1628  0.9240
56316SOL     OW80672   3.472   9.319   2.124  0.3844  0.0553 -0.2184
56316SOL    HW180673   3.562   9.346   2.104 -0.3624  1.1429 -2.3163
56316SOL    HW280674   3.482   9.231   2.162  2.2906 -0.0896 -0.9409
56317SOL     OW80675   1.258  12.494   6.218 -0.3588  0.1031 -0.3666
56317SOL    HW180676   1.347  12.477   6.248 -0.0478  1.2686 -0.5617
56317SOL    HW280677   1.227  12.410   6.184  0.1512 -0.6600  0.9876
56318SOL     OW80678   7.433   0.169  11.702  0.1549 -0.1003 -0.8594
56318SOL    HW180679   7.430   0.128  11.788 -0.6215  0.1311 -0.7692
56318SOL    HW280680   7.342   0.179  11.676  0.3917 -0.7015 -1.9771
56319SOL     OW80681   3.473   8.188   6.610  0.3336  0.2627  0.0582
56319SOL    HW180682   3.476   8.130   6.686  0.8737 -1.1716 -1.0051
56319SOL    HW280683   3.386   8.175   6.572  1.6043 -2.8516 -2.2953
56320SOL     OW80684  11.517   3.771   2.152  0.1676 -0.2736 -0.2896
56320SOL    HW180685  11.597   3.730   2.120  1.5226  1.6993  0.4037
56320SOL    HW280686  11.519   3.757   2.247 -0.8891 -1.1004 -0.3593
56321SOL     OW80687   5.055  12.844   7.356 -0.3550 -0.5863  0.1344
56321SOL    HW180688   5.015  12.764   7.321 -3.4384  1.1108 -0.6204
56321SOL    HW280689   4.998  12.870   7.428  1.4617  0.1828  1.3738
56322SOL     OW80690   1.572  13.710   0.763 -0.3001  0.5204  0.2184
56322SOL    HW180691   1.609  13.644   0.705  2.9537  2.9430 -0.7594
56322SOL    HW280692   1.616  13.696   0.847 -1.8706 -0.3462  0.9452
56323SOL     OW80693   0.626   8.060   7.026  0.0489  0.2744 -0.1034
56323SOL    HW180694   0.690   8.126   7.000  1.1594 -0.9860 -0.6787
56323SOL    HW280695   0.668   8.014   7.099  0.8295 -2.0039 -1.8776
56324SOL     OW80696   5.347   8.635   3.711 -0.7854  0.2744  0.3231
56324SOL    HW180697   5.418   8.684   3.671 -0.5474 -0.0654  0.3254
56324SOL    HW280698   5.362   8.544   3.684 -1.3487  0.2339  0.1358
56325SOL     OW80699   8.643   5.587   9.774  0.2929 -0.1627  0.0047
56325SOL    HW180700   8.661   5.606   9.682 -0.4350 -1.3562 -0.3976
56325SOL    HW280701   8.669   5.667   9.820  1.6357  0.0731 -1.1098
56326SOL     OW80702   7.170  10.129   4.559 -0.1551 -0.0755  0.0431
56326SOL    HW180703   7.215  10.148   4.641  1.3484  1.2073 -1.0292
56326SOL    HW280704   7.195  10.039   4.538 -2.6798 -1.4197  2.2431
56327SOL     OW80705   5.418  11.037   3.569  0.0380  0.5001  0.0492
56327SOL    HW180706   5.339  10.998   3.532  0.5295 -0.5509  0.0743
56327SOL    HW280707   5.470  10.962   3.598  0.6270  1.2161  0.8928
56328SOL     OW80708   4.241   2.867   3.319  0.1786 -0.6007 -0.3304
56328SOL    HW180709   4.291   2.873   3.401  0.4607  0.3594 -0.5600
56328SOL    HW280710   4.269   2.944   3.268 -0.0147 -1.1637 -1.3158
56329SOL     OW80711   0.142   6.810  13.333 -0.2973  0.4162  0.1577
56329SOL    HW180712   0.163   6.887  13.280  1.7485 -0.2676 -0.1276
56329SOL    HW280713   0.227   6.767  13.347 -1.3152 -1.5286  0.7001
56330SOL     OW80714   9.747  12.241   4.805  0.2063 -0.0487 -0.1827
56330SOL    HW180715   9.679  12.219   4.869 -1.3899 -0.5261 -1.9528
56330SOL    HW280716   9.805  12.301   4.851 -1.4209  0.3931  1.3969
56331SOL     OW80717   7.720   5.521  13.137  0.0765 -0.4550 -0.0451
56331SOL    HW180718   7.639   5.568  13.120 -0.4490 -0.7081  1.5944
56331SOL    HW280719   7.760   5.568  13.211 -0.2827 -2.2833  1.4034
56332SOL     OW80720  11.387   3.381   3.090  0.9391 -0.0065 -0.5870
56332SOL    HW180721  11.303   3.354   3.129 -0.1641  1.8597 -1.5097
56332SOL    HW280722  11.408   3.311   3.029 -1.0353  0.3877 -1.8191
56333SOL     OW80723   8.054  11.271   2.379 -0.1643  0.2486  0.4565
56333SOL    HW180724   8.142  11.284   2.413 -0.1196 -0.2908  0.5608
56333SOL    HW280725   8.060  11.192   2.326 -0.7196 -0.1402  0.9674
56334SOL     OW80726   4.176   8.959   8.559 -0.0694 -0.5804 -0.7758
56334SOL    HW180727   4.177   8.948   8.654  0.4967  0.5495 -0.6384
56334SOL    HW280728   4.268   8.962   8.534 -0.1945 -2.1091 -1.5387
56335SOL     OW80729   5.723   9.319  11.328  0.0356 -0.3111  0.4270
56335SOL    HW180730   5.654   9.347  11.267 -0.9715 -1.9455  0.7508
56335SOL    HW280731   5.702   9.365  11.409 -0.2616 -0.2495  0.3186
56336SOL     OW80732   7.042   6.159  10.995  0.3799  0.1409 -0.4083
56336SOL    HW180733   6.950   6.158  10.967  0.3599  1.7212 -0.4941
56336SOL    HW280734   7.062   6.068  11.016 -0.4850 -0.6570 -2.7148
56337SOL     OW80735   7.692   0.874   5.020 -0.4801  0.4031  0.0244
56337SOL    HW180736   7.643   0.850   4.942  1.5969 -0.0826 -1.2221
56337SOL    HW280737   7.779   0.836   5.005  0.2595  1.1584  2.1320
56338SOL     OW80738   1.456  10.116   7.258  0.0959 -0.3118 -0.4061
56338SOL    HW180739   1.365  10.093   7.275  0.6297 -0.6052  2.6305
56338SOL    HW280740   1.493  10.131   7.345  2.3436  2.2369 -1.6687
56339SOL     OW80741   8.254   8.439   6.394 -0.0058 -0.5780 -0.5038
56339SOL    HW180742   8.175   8.487   6.368  0.1046 -1.6424 -3.1379
56339SOL    HW280743   8.222   8.373   6.456 -1.2639 -1.0765 -1.6260
56340SOL     OW80744  10.746   4.433   8.175 -0.0790  0.3017 -0.2155
56340SOL    HW180745  10.730   4.519   8.135 -0.8488  0.9218  1.3808
56340SOL    HW280746  10.661   4.389   8.173 -0.0566  0.2268  0.4736
56341SOL     OW80747   6.781  10.546  10.228 -0.2158  0.4035 -0.6775
56341SOL    HW180748   6.731  10.625  10.251 -0.3403  0.4460 -1.0995
56341SOL    HW280749   6.742  10.515  10.146 -0.4335 -0.3296 -0.3060
56342SOL     OW80750   0.083   5.334   7.131 -0.1438 -0.0645 -0.4516
56342SOL    HW180751   0.140   5.259   7.149 -2.3690 -1.8168 -0.2677
56342SOL    HW280752   0.031   5.345   7.211 -1.3278  0.2658 -1.2350
56343SOL     OW80753  10.447  10.245   9.701  0.2333  0.7735  0.1938
56343SOL    HW180754  10.535  10.212   9.689 -0.2536 -0.6356  0.3601
56343SOL    HW280755  10.399  10.173   9.742 -1.1027  1.3433 -0.3054
56344SOL     OW80756   6.001  11.033   6.438 -0.1791  0.1923  0.3455
56344SOL    HW180757   5.973  11.092   6.509 -2.1292 -0.3920  0.1303
56344SOL    HW280758   6.079  11.074   6.402 -1.1757  2.3817  0.5416
56345SOL     OW80759   4.821   3.476  11.967  0.0726  0.0817 -0.1295
56345SOL    HW180760   4.805   3.555  11.915 -0.6686  1.1278  1.6191
56345SOL    HW280761   4.913   3.483  11.992  0.8384 -1.1084 -2.2922
56346SOL     OW80762   1.040   2.742   2.991 -0.0518 -0.2553  0.2171
56346SOL    HW180763   1.053   2.745   3.086 -0.4045 -2.9829  0.4216
56346SOL    HW280764   1.063   2.830   2.961 -0.4246  0.8317  2.8681
56347SOL     OW80765  12.156   0.914   6.985  0.0504  0.2758 -0.0372
56347SOL    HW180766  12.195   0.988   7.031  0.0636  1.1705 -1.4243
56347SOL    HW280767  12.215   0.899   6.910 -2.4839  2.0712 -2.5753
56348SOL     OW80768  12.631   3.698   5.714 -0.2047 -0.2465  0.3925
56348SOL    HW180769  12.545   3.692   5.672 -0.5222 -0.6791  1.0832
56348SOL    HW280770  12.615   3.672   5.805  0.1797  1.9747  1.1639
56349SOL     OW80771  12.567   1.822   7.179 -0.3101  0.2469 -0.0988
56349SOL    HW180772  12.605   1.775   7.105  0.1866 -2.1106  1.5181
56349SOL    HW280773  12.475   1.795   7.179 -0.0805 -0.6100  0.6839
56350SOL     OW80774   4.934   9.466   6.860 -0.5134 -0.2429 -0.2662
56350SOL    HW180775   4.885   9.537   6.819  1.6582  0.6916 -1.4271
56350SOL    HW280776   4.961   9.410   6.788 -0.1819 -0.9578  0.3885
56351SOL     OW80777   0.940   4.091   2.263  0.6353  0.1659 -0.0756
56351SOL    HW180778   0.999   4.018   2.244  0.6301 -0.4979  2.1416
56351SOL    HW280779   0.911   4.122   2.177  0.2944 -2.7204 -1.0941
56352SOL     OW80780   8.523  12.211   4.949  0.0156  0.0218  1.1566
56352SOL    HW180781   8.524  12.249   5.037  2.6519  0.3704  1.0605
56352SOL    HW280782   8.601  12.155   4.946 -0.7104 -0.9766 -0.5597
56353SOL     OW80783   2.703   6.568   0.042 -0.4339  0.2841  0.6479
56353SOL    HW180784   2.783   6.525   0.072  0.4633  1.2156 -0.3640
56353SOL    HW280785   2.646   6.567   0.119  0.5229 -0.4237  1.3778
56354SOL     OW80786   6.793   0.953  10.138  0.4223  0.3685 -0.1490
56354SOL    HW180787   6.745   1.022  10.093 -0.4755 -0.3723 -0.3582
56354SOL    HW280788   6.793   0.880  10.077  0.4041 -0.1786  0.4905
56355SOL     OW80789   5.779   0.065   1.514  0.7075 -0.1209 -0.0523
56355SOL    HW180790   5.718   0.113   1.569  0.8303  1.8310 -1.5242
56355SOL    HW280791   5.723   0.013   1.455  0.5475 -0.4434  0.3758
56356SOL     OW80792   6.022  10.448  12.191 -0.2969  0.0279  0.3302
56356SOL    HW180793   6.023  10.531  12.239  0.4091 -0.2786  0.8711
56356SOL    HW280794   5.929  10.428  12.179 -0.4917  1.3864 -0.6823
56357SOL     OW80795   0.869   2.746   8.617 -0.3665 -0.0813 -0.3321
56357SOL    HW180796   0.954   2.712   8.589  0.0365  0.4126  0.2575
56357SOL    HW280797   0.865   2.834   8.578  0.0210  0.4496  0.7928
56358SOL     OW80798   9.189   1.538   7.858  0.1731 -0.1480  0.3875
56358SOL    HW180799   9.179   1.621   7.811  0.6921  0.3316  1.0940
56358SOL    HW280800   9.189   1.471   7.790 -2.4690  0.2085 -0.0705
56359SOL     OW80801  12.885   6.261   9.140 -0.4188  0.0985  0.2783
56359SOL    HW180802  12.967   6.276   9.186 -0.6625  0.1313  0.7144
56359SOL    HW280803  12.911   6.235   9.052  0.0715 -0.4175  0.5678
56360SOL     OW80804  11.152   1.895  12.002 -0.2237  0.4501  0.3452
56360SOL    HW180805  11.168   1.801  12.010 -0.2353  0.4363  0.2173
56360SOL    HW280806  11.217   1.925  11.939  0.1264  0.6262  0.7850
56361SOL     OW80807   0.782   2.397  12.457  0.2593  0.1771  0.6506
56361SOL    HW180808   0.863   2.396  12.406  1.0579 -1.5118  1.8241
56361SOL    HW280809   0.811   2.416  12.546 -0.4969 -1.1416  1.2133
56362SOL     OW80810   5.932   3.004  10.089  0.4790  0.1406 -0.4857
56362SOL    HW180811   5.899   3.088  10.055 -0.0308 -1.4633 -4.4725
56362SOL    HW280812   5.854   2.962  10.128  0.2321  0.5893 -0.4851
56363SOL     OW80813   7.305   3.859   3.204  0.9815  0.6351 -0.2078
56363SOL    HW180814   7.278   3.855   3.113 -0.1834 -0.9432  0.1766
56363SOL    HW280815   7.306   3.953   3.224  0.7570  0.9751 -1.6881
56364SOL     OW80816   7.405   5.117   6.269 -0.0874  0.2950 -0.0201
56364SOL    HW180817   7.321   5.123   6.224  0.9295 -0.0520 -2.0409
56364SOL    HW280818   7.395   5.175   6.345 -2.2281  0.0534 -0.0438
56365SOL     OW80819   5.500   8.648   0.045  0.2293  0.6954 -0.0946
56365SOL    HW180820   5.500   8.604  -0.040 -0.2771  1.0474 -0.2822
56365SOL    HW280821   5.507   8.741   0.024  0.7776  0.7411  0.2799
56366SOL     OW80822  11.281   4.695   1.981 -0.5177 -0.6549  0.1124
56366SOL    HW180823  11.240   4.643   1.912 -0.8640  0.2937 -0.4141
56366SOL    HW280824  11.216   4.762   2.002 -0.7049 -1.3280  1.8559
56367SOL     OW80825  12.013   4.713  13.448 -0.5702 -0.2439 -0.3016
56367SOL    HW180826  11.921   4.688  13.442 -0.7084  0.3287 -0.6584
56367SOL    HW280827  12.058   4.652  13.390 -0.7543 -0.3731 -0.3105
56368SOL     OW80828   8.392   8.657   4.199  0.9378  0.5092  0.1710
56368SOL    HW180829   8.478   8.655   4.157  0.5492 -2.2960 -0.7214
56368SOL    HW280830   8.330   8.639   4.128 -0.5430  3.0586  0.6815
56369SOL     OW80831   0.477   1.399   1.806 -0.9006 -0.5738  0.1832
56369SOL    HW180832   0.516   1.422   1.890  1.2615 -1.3180 -0.5301
56369SOL    HW280833   0.411   1.466   1.790  0.8469  1.4736  1.0255
56370SOL     OW80834  10.233  11.815   8.079  0.1807  0.2255  0.0136
56370SOL    HW180835  10.269  11.841   8.164 -1.3380  0.4435  0.6186
56370SOL    HW280836  10.174  11.742   8.100  0.1464 -0.0233 -0.9286
56371SOL     OW80837   3.910   5.482  10.996  0.5818 -0.2808 -0.3568
56371SOL    HW180838   3.976   5.501  10.929  0.5081  0.0363 -0.3444
56371SOL    HW280839   3.945   5.521  11.076  0.2869  0.0695 -0.3946
56372SOL     OW80840  10.311   5.807  13.419 -0.2517  0.1195  0.0528
56372SOL    HW180841  10.395   5.843  13.389 -0.3374 -0.2146 -0.6095
56372SOL    HW280842  10.333   5.755  13.496  0.2653 -0.5488 -0.5287
56373SOL     OW80843   5.880   0.579   2.067  0.3448  0.2417  0.0961
56373SOL    HW180844   5.928   0.600   2.147  0.4475 -0.2526  0.1719
56373SOL    HW280845   5.882   0.483   2.063  1.5307  0.2966 -1.2445
56374SOL     OW80846   3.238   4.868   8.441 -0.4532  0.0041  0.1701
56374SOL    HW180847   3.192   4.951   8.436 -1.7486 -0.6923  0.2552
56374SOL    HW280848   3.230   4.831   8.353  2.2444  1.0242 -0.6167
56375SOL     OW80849  11.195   2.860   0.957  0.0846 -0.5052  0.1245
56375SOL    HW180850  11.239   2.939   0.925  0.4200  0.1223  2.0118
56375SOL    HW280851  11.267   2.802   0.985 -0.1313  0.5170  3.2104
56376SOL     OW80852  12.853   0.431   3.409  0.2590 -0.4701  0.2007
56376SOL    HW180853  12.918   0.491   3.445  0.0613 -0.5540  0.7111
56376SOL    HW280854  12.855   0.447   3.315  0.5419  0.0029  0.2822
56377SOL     OW80855   6.681  12.467   4.664  0.6187 -0.5339 -0.9140
56377SOL    HW180856   6.597  12.425   4.683 -0.1611  0.8413 -1.1829
56377SOL    HW280857   6.745  12.395   4.667 -0.7343 -1.8597 -2.1107
56378SOL     OW80858   4.550  12.754   5.133  0.4485 -0.3135  0.7543
56378SOL    HW180859   4.560  12.786   5.043  0.6410  0.4512  1.0446
56378SOL    HW280860   4.605  12.676   5.137  1.4361  0.3665  0.5677
56379SOL     OW80861  13.475   8.987   2.912  0.0355  0.0130  0.4919
56379SOL    HW180862  13.407   8.921   2.924 -0.5647  0.5689  0.1718
56379SOL    HW280863  13.431   9.070   2.925  0.1785  0.4851 -1.6766
56380SOL     OW80864   9.803  11.550   2.301 -0.7848 -0.1576  0.0615
56380SOL    HW180865   9.711  11.544   2.326 -1.6555 -3.1162 -3.0721
56380SOL    HW280866   9.811  11.633   2.256 -1.2387  1.2025  2.3199
56381SOL     OW80867   3.762   6.956   5.296 -0.0481  0.2895 -0.1394
56381SOL    HW180868   3.824   6.892   5.330 -1.5629 -1.5727 -0.6643
56381SOL    HW280869   3.683   6.944   5.349 -0.6064  1.2286 -0.7221
56382SOL     OW80870   6.772   1.451   3.125  0.1662 -0.2610  0.5047
56382SOL    HW180871   6.843   1.391   3.148  0.1454  0.2431  1.9803
56382SOL    HW280872   6.694   1.414   3.167  0.1091  0.6613  1.2373
56383SOL     OW80873   1.737   9.441   0.121  0.0323 -0.8881 -0.5407
56383SOL    HW180874   1.686   9.405   0.048 -0.1151 -1.0119 -0.3753
56383SOL    HW280875   1.818   9.390   0.121 -0.5881 -1.9059  0.3231
56384SOL     OW80876  10.508   8.970   1.282 -0.2632 -0.1442 -0.3416
56384SOL    HW180877  10.596   9.005   1.266 -0.9104  1.0945 -1.3407
56384SOL    HW280878  10.519   8.875   1.276  1.1908 -0.0709  0.5876
56385SOL     OW80879   7.803  11.853   7.383 -0.9274  0.0242 -0.0593
56385SOL    HW180880   7.866  11.786   7.409 -1.3834 -0.4867 -0.2746
56385SOL    HW280881   7.719  11.808   7.377 -1.9447  1.2143  3.0623
56386SOL     OW80882  12.630   3.437   7.187 -0.3261  0.2233  0.6649
56386SOL    HW180883  12.633   3.523   7.230  1.1322  0.0793  0.9102
56386SOL    HW280884  12.552   3.395   7.223  1.1843 -0.1765  3.8401
56387SOL     OW80885   1.870   7.168   8.323 -0.9035 -0.6305  0.2251
56387SOL    HW180886   1.900   7.254   8.351 -0.3423 -0.8092  0.1857
56387SOL    HW280887   1.902   7.159   8.233  0.2586 -1.4389  0.6993
56388SOL     OW80888  12.116   7.080   5.639  0.1511  0.0079 -0.2780
56388SOL    HW180889  12.083   7.159   5.684 -0.1823 -1.2661  1.8573
56388SOL    HW280890  12.053   7.012   5.662  1.1461 -1.1852 -0.9862
56389SOL     OW80891   7.226   2.278   4.424 -0.0133 -0.9298  0.6199
56389SOL    HW180892   7.153   2.218   4.408 -0.2686 -0.9010  1.6112
56389SOL    HW280893   7.291   2.255   4.357 -0.3272 -1.9610  0.6497
56390SOL     OW80894  12.791  12.163  11.893 -0.7135 -0.4855 -0.4317
56390SOL    HW180895  12.779  12.257  11.883 -0.9931 -0.5710 -0.9169
56390SOL    HW280896  12.886  12.152  11.903 -0.7671 -0.0637  0.6839
56391SOL     OW80897   6.240   9.138   2.722 -0.5171  0.4059 -0.5059
56391SOL    HW180898   6.222   9.182   2.640 -1.4787  0.4146 -0.3031
56391SOL    HW280899   6.313   9.078   2.702  0.1486  1.3606 -1.0145
56392SOL     OW80900   8.222  11.510   5.533 -0.5347 -0.0284  0.0420
56392SOL    HW180901   8.191  11.459   5.607  1.8241 -1.0781  0.4062
56392SOL    HW280902   8.234  11.446   5.463  1.1919  0.1805  0.0914
56393SOL     OW80903   2.751   1.325   6.209 -0.1489 -0.5163 -0.0456
56393SOL    HW180904   2.758   1.413   6.172 -0.7679 -1.0567 -1.5064
56393SOL    HW280905   2.722   1.340   6.299  1.3601  0.8311  0.2685
56394SOL     OW80906   1.572   3.749   4.525  0.3360  0.3602  0.1174
56394SOL    HW180907   1.563   3.830   4.475  2.0159  0.7959  0.4448
56394SOL    HW280908   1.655   3.712   4.494  0.4006 -0.3842  1.1480
56395SOL     OW80909  11.561   0.489   6.818 -0.2983  0.5409  0.3925
56395SOL    HW180910  11.531   0.525   6.902 -0.3769  0.7361  0.2818
56395SOL    HW280911  11.652   0.465   6.833 -0.5338 -0.1485  0.7646
56396SOL     OW80912   1.524   6.344  11.894 -0.1250  0.5993  0.0601
56396SOL    HW180913   1.451   6.405  11.905  0.1677  1.0815 -0.5976
56396SOL    HW280914   1.491   6.261  11.927 -0.3925  1.2000  1.3801
56397SOL     OW80915   0.908   6.278   2.302 -0.3901  0.7798  0.2885
56397SOL    HW180916   0.911   6.371   2.325 -0.5236  0.4901  1.5923
56397SOL    HW280917   0.927   6.233   2.385 -0.4532 -0.3545 -0.2964
56398SOL     OW80918  13.656   7.401   7.249  0.0375 -0.2671 -0.5412
56398SOL    HW180919  13.738   7.449   7.259 -0.6030  0.9511 -1.0028
56398SOL    HW280920  13.682   7.319   7.206  1.2403 -0.7108  0.9185
56399SOL     OW80921   1.542  10.136   0.142 -0.3691  0.2598  0.1025
56399SOL    HW180922   1.480  10.064   0.128 -1.1506  0.9219  0.1199
56399SOL    HW280923   1.540  10.185   0.060  1.1177 -0.4434 -0.3811
56400SOL     OW80924   7.186   9.391  13.152  0.0745 -0.2988  0.1373
56400SOL    HW180925   7.137   9.367  13.231  0.0626 -1.0500 -0.0861
56400SOL    HW280926   7.249   9.319  13.140  0.5216  0.1330 -0.1694
56401SOL     OW80927  12.462   9.055   4.281 -0.0412 -0.4891 -0.1555
56401SOL    HW180928  12.417   9.056   4.197  1.0242 -0.8109 -0.7547
56401SOL    HW280929  12.397   9.086   4.344 -0.5719  0.6841 -1.2383
56402SOL     OW80930   3.800   8.715  11.786  0.5315 -0.0970 -0.2931
56402SOL    HW180931   3.708   8.738  11.780 -0.4375 -2.1731  3.4247
56402SOL    HW280932   3.834   8.766  11.860  2.4266  0.6174 -1.5654
56403SOL     OW80933   0.458  10.421  12.185  0.7522 -0.4556 -0.5686
56403SOL    HW180934   0.517  10.482  12.142 -1.6752  2.3994 -0.1501
56403SOL    HW280935   0.495  10.410  12.273 -0.3377  3.1089  0.4955
56404SOL     OW80936  12.756   5.338   4.528 -0.0268  0.5646  0.7543
56404SOL    HW180937  12.789   5.275   4.592  1.4301  0.0429 -0.4323
56404SOL    HW280938  12.806   5.319   4.448 -2.0072  0.9622 -0.6480
56405SOL     OW80939   1.679   6.808   1.809 -0.2039  0.4384 -0.1945
56405SOL    HW180940   1.602   6.799   1.751 -0.7135 -0.1157  0.5488
56405SOL    HW280941   1.740   6.863   1.759 -0.5343 -0.2079 -1.3534
56406SOL     OW80942   1.313  10.273   9.328  0.1518  0.2909  0.9223
56406SOL    HW180943   1.365  10.243   9.403  3.4935  2.1929 -0.4202
56406SOL    HW280944   1.344  10.219   9.255 -1.9367 -0.4690  0.5227
56407SOL     OW80945  12.518   5.094   9.179 -0.4059  0.2275 -0.1173
56407SOL    HW180946  12.431   5.056   9.174 -0.1254 -0.2700 -1.7761
56407SOL    HW280947  12.553   5.063   9.262 -1.1562 -1.0368 -0.2515
56408SOL     OW80948   3.960  12.148   2.560 -0.1885 -0.0716 -0.1687
56408SOL    HW180949   3.882  12.160   2.615 -0.6906 -1.4840 -0.5314
56408SOL    HW280950   4.010  12.080   2.604  1.6556  1.8236  0.8735
56409SOL     OW80951   8.640   8.895  12.332  0.4852  0.0164 -0.2768
56409SOL    HW180952   8.727   8.876  12.366  0.6734  0.3027 -0.5915
56409SOL    HW280953   8.605   8.962  12.392  1.2820  1.4011 -1.3021
56410SOL     OW80954   9.741   3.582   2.422 -0.0636 -0.4767 -0.1089
56410SOL    HW180955   9.781   3.645   2.482  1.4616 -0.1741 -1.3469
56410SOL    HW280956   9.663   3.551   2.467 -0.4166  1.6958  0.8803
56411SOL     OW80957  12.827   8.467  12.691 -0.0152 -0.1352 -0.1216
56411SOL    HW180958  12.744   8.492  12.733 -0.3829  0.3156 -1.0869
56411SOL    HW280959  12.828   8.371  12.696 -1.7564 -0.3401 -2.1455
56412SOL     OW80960  13.545   5.004   6.806  0.3888  0.1280 -0.1315
56412SOL    HW180961  13.627   5.026   6.850  0.5933  1.2937 -1.0376
56412SOL    HW280962  13.499   4.946   6.866  0.1802  2.4241  2.0653
56413SOL     OW80963   7.817   1.227   7.628 -0.1559 -0.2165  0.5725
56413SOL    HW180964   7.768   1.172   7.567  1.6770 -0.6257 -0.6121
56413SOL    HW280965   7.797   1.191   7.714 -0.4795 -1.5435 -0.0324
56414SOL     OW80966   9.438   4.922   3.560  0.0038 -0.1633 -0.2420
56414SOL    HW180967   9.488   5.000   3.534 -1.2737  0.9044  0.4040
56414SOL    HW280968   9.351   4.936   3.523 -0.0674 -1.6527 -0.7236
56415SOL     OW80969   0.204   5.599   7.188 -0.4632 -0.6609 -0.6029
56415SOL    HW180970   0.177   5.654   7.115  0.0426  0.0387 -0.2750
56415SOL    HW280971   0.193   5.509   7.156  0.0784 -0.3628 -1.6524
56416SOL     OW80972  10.937   6.833  12.528 -0.0581 -0.0312  1.2013
56416SOL    HW180973  10.988   6.893  12.473 -0.5200  0.5215  1.3707
56416SOL    HW280974  10.864   6.886  12.560 -2.0997 -1.3537 -0.9121
56417SOL     OW80975  13.370   9.347   4.068  0.3356  0.5363  0.5353
56417SOL    HW180976  13.287   9.394   4.079 -0.7827 -0.9527 -0.9931
56417SOL    HW280977  13.392   9.318   4.156  0.4076  2.7612  1.3195
56418SOL     OW80978  12.796   9.070   2.577  0.0316 -0.3997  0.4234
56418SOL    HW180979  12.788   8.978   2.604 -0.3374 -1.0191 -1.6485
56418SOL    HW280980  12.890   9.085   2.569  0.0555 -0.9839 -0.4490
56419SOL     OW80981  13.431  10.186   3.878 -0.3534 -0.2247 -0.5962
56419SOL    HW180982  13.458  10.179   3.786  1.1685 -0.2644 -0.1640
56419SOL    HW280983  13.475  10.113   3.922 -0.5464  0.1815  0.2964
56420SOL     OW80984   5.536   1.681   6.692 -0.6784 -0.3413  0.2375
56420SOL    HW180985   5.502   1.642   6.772 -0.4559 -0.1762  0.4150
56420SOL    HW280986   5.533   1.611   6.628  2.4474 -1.6083  1.2847
56421SOL     OW80987   3.228  10.357  10.928 -1.0680 -0.6011  0.3015
56421SOL    HW180988   3.212  10.418  10.856 -1.3123  0.1165  0.9587
56421SOL    HW280989   3.147  10.357  10.978 -0.1650  0.6063  1.8387
56422SOL     OW80990   9.932  12.663   8.468 -0.2030 -0.3147 -0.2257
56422SOL    HW180991   9.975  12.591   8.514 -0.4092  0.8970  1.9991
56422SOL    HW280992  10.003  12.716   8.432 -0.0188 -0.8619 -0.6851
56423SOL     OW80993   6.135  13.049   3.443  0.7872  0.0151  0.8759
56423SOL    HW180994   6.106  13.018   3.529 -0.7944 -0.9748  0.0458
56423SOL    HW280995   6.182  12.974   3.406  0.8291  0.1787  0.5952
56424SOL     OW80996   2.321   3.719   3.897  0.8177  0.3116 -0.0481
56424SOL    HW180997   2.333   3.642   3.841 -1.6632 -1.0344  1.1165
56424SOL    HW280998   2.313   3.684   3.985 -1.5600  1.7115  0.3958
56425SOL     OW80999   1.636   1.328  13.561  0.5324  0.0502 -0.3188
56425SOL    HW181000   1.672   1.378  13.488 -0.6542  1.9297  0.3133
56425SOL    HW281001   1.588   1.393  13.613  0.6919 -1.3711  1.7142
56426SOL     OW81002  11.577  10.999   5.818  0.3303 -0.2229 -0.1756
56426SOL    HW181003  11.667  11.018   5.842  0.6377 -2.0080  0.2166
56426SOL    HW281004  11.527  11.013   5.898  0.5284 -0.8471  0.0648
56427SOL     OW81005  11.192  13.417   8.986 -0.0886 -0.0264 -0.0101
56427SOL    HW181006  11.238  13.347   8.939 -0.4475  0.1785 -0.6915
56427SOL    HW281007  11.248  13.437   9.061  0.7706 -0.0214 -0.6300
56428SOL     OW81008   5.293   3.799   6.716  0.8179 -0.2738 -0.1752
56428SOL    HW181009   5.245   3.832   6.639 -0.3790  0.4759  0.8585
56428SOL    HW281010   5.227   3.750   6.766  1.2957  0.2141  0.9553
56429SOL     OW81011   2.337   0.338  13.428 -0.0045  0.0078  0.0392
56429SOL    HW181012   2.413   0.299  13.384  0.0852  0.8930 -0.6066
56429SOL    HW281013   2.313   0.412  13.373 -1.1900 -0.1076  0.3722
56430SOL     OW81014   6.720   5.365   8.245  0.1183 -0.5127 -0.4578
56430SOL    HW181015   6.683   5.317   8.171 -0.1546 -0.1470 -0.5573
56430SOL    HW281016   6.792   5.309   8.275 -1.1697 -1.7462  0.4181
56431SOL     OW81017   4.188  13.506   0.713 -0.5037  0.1342  0.2364
56431SOL    HW181018   4.132  13.498   0.636 -2.5950 -2.9798  1.8411
56431SOL    HW281019   4.188  13.599   0.733 -3.3741  0.5516 -1.1407
56432SOL     OW81020   4.804  13.565   9.650  0.0757 -0.2852  0.1923
56432SOL    HW181021   4.861  13.637   9.622  0.8686 -1.5315 -1.5853
56432SOL    HW281022   4.731  13.608   9.695  0.6536  1.6046 -0.5882
56433SOL     OW81023   8.628  13.660  12.430  0.1644 -0.2212  0.3153
56433SOL    HW181024   8.541  13.696  12.448  0.1305 -1.2776  2.4544
56433SOL    HW281025   8.676  13.734  12.392 -1.5567  0.4527 -0.6983
56434SOL     OW81026   9.471   5.836   1.228  0.5838 -0.0436 -0.6188
56434SOL    HW181027   9.549   5.854   1.280  0.2983 -1.5138  0.3849
56434SOL    HW281028   9.476   5.898   1.155  1.0253  2.0957  1.1025
56435SOL     OW81029   5.559   6.176  11.236 -0.3661  0.2947 -0.0131
56435SOL    HW181030   5.618   6.242  11.198  1.6129 -1.5713 -0.3574
56435SOL    HW281031   5.582   6.095  11.192 -0.9911 -1.1244  2.1345
56436SOL     OW81032  10.078  12.444   1.381 -0.2086  0.1845 -0.0258
56436SOL    HW181033  10.085  12.507   1.453 -0.8224  0.3613 -0.1181
56436SOL    HW281034  10.063  12.360   1.425 -0.5222  0.2828  0.0592
56437SOL     OW81035   5.582   3.939   8.741  0.0210  0.8390 -0.0594
56437SOL    HW181036   5.490   3.961   8.754  0.0255 -0.0293  1.8228
56437SOL    HW281037   5.624   4.022   8.719 -1.1871  1.2534 -0.8928
56438SOL     OW81038   0.441  13.441  12.007  0.0903 -0.0776  0.7556
56438SOL    HW181039   0.437  13.508  12.075  1.2383  1.2933 -0.4789
56438SOL    HW281040   0.531  13.408  12.011  0.2455  0.1966 -0.2500
56439SOL     OW81041  12.811   7.483   2.287  0.3888 -0.6781 -0.5695
56439SOL    HW181042  12.733   7.443   2.323  0.5439  0.1190  0.7403
56439SOL    HW281043  12.796   7.486   2.193 -3.3092  3.5945 -0.1973
56440SOL     OW81044   9.439   5.584   1.764  0.4792  0.4464 -0.6475
56440SOL    HW181045   9.502   5.596   1.694 -0.5009 -0.1732 -1.6682
56440SOL    HW281046   9.381   5.514   1.734 -0.1239  0.3308  0.6688
56441SOL     OW81047   6.901   1.148  12.519 -0.2865  0.1969  0.1267
56441SOL    HW181048   6.934   1.180  12.435 -0.8894 -1.0215 -0.5924
56441SOL    HW281049   6.807   1.139  12.506 -0.3318 -0.3851  0.8039
56442SOL     OW81050   6.749   3.271   1.710 -0.2908 -0.0486 -0.2829
56442SOL    HW181051   6.747   3.181   1.675 -0.9955 -0.1317 -0.0336
56442SOL    HW281052   6.742   3.327   1.632 -2.8339 -0.2338 -0.2567
56443SOL     OW81053   5.826  12.982  11.856 -0.5080 -0.5526 -0.2223
56443SOL    HW181054   5.801  13.013  11.769  0.2983  0.6512 -0.0397
56443SOL    HW281055   5.877  12.903  11.840  0.7165  0.3568 -0.9276
56444SOL     OW81056   8.070   2.299   8.912 -0.2190 -0.3923  0.1433
56444SOL    HW181057   8.033   2.386   8.903 -0.4797 -0.4834  0.3560
56444SOL    HW281058   8.105   2.296   9.001 -1.2187 -0.8928  0.5369
56445SOL     OW81059   5.731   4.382  10.528 -0.3075  0.3580  0.0135
56445SOL    HW181060   5.827   4.388  10.535 -0.1561  0.2595 -1.5966
56445SOL    HW281061   5.702   4.472  10.518 -0.2825  0.3071 -0.5239
56446SOL     OW81062   5.636   0.109  10.244  0.1430  0.6114 -0.0518
56446SOL    HW181063   5.626   0.199  10.214  1.2432  0.8651  0.2923
56446SOL    HW281064   5.621   0.114  10.339 -0.8188  0.2455 -0.1720
56447SOL     OW81065  10.424   0.243  12.211 -0.1634 -0.3186 -0.2536
56447SOL    HW181066  10.467   0.310  12.159 -1.5409  0.0470 -0.9657
56447SOL    HW281067  10.336   0.237  12.175 -0.9717 -0.5045  1.6408
56448SOL     OW81068  11.745  11.686   1.818  1.0645 -0.2052 -0.3829
56448SOL    HW181069  11.745  11.747   1.744  2.9806  1.3474  0.7975
56448SOL    HW281070  11.724  11.601   1.779  2.3742  0.4770 -2.7928
56449SOL     OW81071   3.737   2.774  10.480  0.0731  0.3832  0.0784
56449SOL    HW181072   3.670   2.799  10.416 -2.2290  0.7859  2.4632
56449SOL    HW281073   3.692   2.712  10.538  1.4200  1.4906  2.4280
56450SOL     OW81074   2.742   6.080  11.220 -0.2114 -0.1123 -0.9017
56450SOL    HW181075   2.709   6.091  11.131 -0.6955 -2.2774 -1.0554
56450SOL    HW281076   2.824   6.031  11.210 -0.2469 -0.3468 -0.1541
56451SOL     OW81077  11.384   0.600   8.663  0.1483 -0.5521 -0.0958
56451SOL    HW181078  11.354   0.608   8.753 -1.6683  0.1828 -0.7232
56451SOL    HW281079  11.474   0.568   8.670  1.0936  2.2324  2.0538
56452SOL     OW81080   9.498  13.126   8.381 -0.7755  0.1072  0.9825
56452SOL    HW181081   9.537  13.155   8.298 -0.1748 -1.4411  0.7044
56452SOL    HW281082   9.418  13.178   8.388 -1.2564 -0.2981 -0.9667
56453SOL     OW81083   5.904   1.374   4.724  0.1661  0.1755 -0.2193
56453SOL    HW181084   5.828   1.328   4.759  0.1801  0.7661  0.6215
56453SOL    HW281085   5.971   1.306   4.714 -0.0702 -0.1242  0.2306
56454SOL     OW81086   3.127  10.032   2.096  0.7037  0.5182  0.2359
56454SOL    HW181087   3.180   9.953   2.088  0.9200  0.6941 -0.0692
56454SOL    HW281088   3.156  10.088   2.024 -1.7749 -0.4520 -1.6363
56455SOL     OW81089   3.092  11.904   9.767  1.3734 -0.2405  0.2498
56455SOL    HW181090   3.170  11.959   9.774  1.9759 -1.0463 -0.0685
56455SOL    HW281091   3.028  11.946   9.825  2.0302  0.4394  0.4913
56456SOL     OW81092   7.701   5.341   7.512 -0.2129  0.4952 -0.5631
56456SOL    HW181093   7.781   5.376   7.473  0.2728 -0.0800 -0.1114
56456SOL    HW281094   7.716   5.346   7.606 -1.4226  1.9886 -0.4108
56457SOL     OW81095   1.811   6.454   2.616 -0.2027  0.1155  0.6955
56457SOL    HW181096   1.743   6.513   2.647 -0.3534  1.5278 -2.0050
56457SOL    HW281097   1.893   6.502   2.629  0.3502 -1.3286  3.3609
56458SOL     OW81098   7.443   5.828   1.352  0.3706 -0.3782 -0.4715
56458SOL    HW181099   7.519   5.787   1.309  1.5881 -0.1296  1.3353
56458SOL    HW281100   7.368   5.775   1.324  1.3678 -1.3734 -1.3528
56459SOL     OW81101   8.504  11.953   4.703  0.3089 -0.5251 -0.3291
56459SOL    HW181102   8.466  11.998   4.628 -0.0896 -0.5468 -0.1463
56459SOL    HW281103   8.481  11.861   4.690 -1.1571 -0.3233  0.6192
56460SOL     OW81104   6.135  12.097   8.477  0.3287  0.0256 -0.1517
56460SOL    HW181105   6.143  12.190   8.497  0.3351  0.0801 -0.4034
56460SOL    HW281106   6.225  12.069   8.459  0.2806  0.0616 -0.4642
56461SOL     OW81107   8.440   1.794   1.140 -0.6537  0.0054 -0.1042
56461SOL    HW181108   8.517   1.846   1.119 -0.7802 -0.0938 -0.8605
56461SOL    HW281109   8.396   1.782   1.055 -0.6398 -1.3133  0.0590
56462SOL     OW81110   7.735   0.603   8.878 -0.2000  0.3597  0.1349
56462SOL    HW181111   7.767   0.693   8.873  0.2012  0.2308  0.3391
56462SOL    HW281112   7.787   0.555   8.814 -0.6092  0.3288 -0.1739
56463SOL     OW81113   3.694   9.387   5.197 -0.5281 -0.2376  0.0932
56463SOL    HW181114   3.636   9.354   5.265  1.8186 -0.7672  1.9884
56463SOL    HW281115   3.717   9.475   5.225 -1.0939  0.3302 -1.1333
56464SOL     OW81116   5.866   3.295  11.039 -0.3902  0.2183  0.1913
56464SOL    HW181117   5.937   3.349  11.073 -0.8114  1.1554 -0.3649
56464SOL    HW281118   5.862   3.317  10.946 -0.7383 -0.6035  0.0010
56465SOL     OW81119   1.292   3.358   3.168 -0.8229  0.3484  0.1329
56465SOL    HW181120   1.387   3.369   3.180 -0.4012 -0.4277 -1.9671
56465SOL    HW281121   1.264   3.307   3.244 -0.1099  2.8046  2.1769
56466SOL     OW81122   7.698  12.105   3.722  0.2891 -1.2202  0.0908
56466SOL    HW181123   7.623  12.157   3.750 -1.0978 -3.4429  0.8094
56466SOL    HW281124   7.774  12.163   3.734 -1.2279  0.9399 -0.1970
56467SOL     OW81125   6.851   8.660   3.723  0.4912 -0.2420 -0.1632
56467SOL    HW181126   6.852   8.604   3.646 -0.7232 -0.0213 -0.3635
56467SOL    HW281127   6.766   8.644   3.763  0.4923  0.7787  0.2798
56468SOL     OW81128   3.854   4.458   6.702 -0.1577 -0.0183 -0.3204
56468SOL    HW181129   3.924   4.509   6.743  0.8953 -0.6721 -1.2285
56468SOL    HW281130   3.810   4.414   6.774 -1.4070  2.4719  0.5573
56469SOL     OW81131  11.026  11.647   5.558  0.8884  0.0496 -0.7359
56469SOL    HW181132  11.012  11.592   5.635  0.0469  0.1742 -0.7923
56469SOL    HW281133  10.971  11.724   5.573  1.2305  0.3829 -1.1576
56470SOL     OW81134  10.984   1.327   5.110  0.3668  0.4311  0.2646
56470SOL    HW181135  11.031   1.305   5.191 -1.6273  1.8046  1.9013
56470SOL    HW281136  11.002   1.420   5.096  0.3987  0.2904 -0.6897
56471SOL     OW81137  10.766  13.601   5.599  0.8742  0.7159  0.4969
56471SOL    HW181138  10.680  13.633   5.627  0.2618  0.0486 -0.5260
56471SOL    HW281139  10.748  13.556   5.516  1.9950 -0.5856  0.9230
56472SOL     OW81140   7.629  13.676   0.695 -0.1940  0.1758 -0.2981
56472SOL    HW181141   7.604  13.681   0.787 -0.7717  1.3737 -0.5036
56472SOL    HW281142   7.682  13.596   0.689 -2.0359 -1.1815  0.6157
56473SOL     OW81143   7.243   6.929   6.243  0.0552 -0.2141 -0.1042
56473SOL    HW181144   7.189   6.850   6.248  0.2002 -0.7386 -4.0017
56473SOL    HW281145   7.328   6.902   6.278 -0.6474 -0.9187  1.1359
56474SOL     OW81146   7.989   7.629   1.247  0.3102  0.6268 -0.4540
56474SOL    HW181147   7.922   7.697   1.248 -1.0638 -0.6537 -1.1544
56474SOL    HW281148   7.988   7.595   1.157 -0.1095 -1.2841  0.2104
56475SOL     OW81149   9.494  10.033   6.191  0.4653  0.4232 -0.3734
56475SOL    HW181150   9.457  10.014   6.105 -0.0934 -0.7321  0.1026
56475SOL    HW281151   9.484   9.951   6.241 -0.1319  1.3491  1.1054
56476SOL     OW81152   9.084   8.847  11.215 -0.1529 -0.6223  0.2697
56476SOL    HW181153   9.154   8.848  11.280  1.5088  2.1817 -1.3286
56476SOL    HW281154   9.066   8.754  11.199  3.1531 -1.4875  0.8641
56477SOL     OW81155  13.097   1.776   0.868 -0.2883 -0.3761  0.4378
56477SOL    HW181156  13.103   1.859   0.820  0.4087 -1.7659 -2.0191
56477SOL    HW281157  13.007   1.774   0.902 -0.1503  1.6007  1.0486
56478SOL     OW81158   6.359   5.166   8.760  0.0860  0.2332 -0.0572
56478SOL    HW181159   6.383   5.246   8.713 -0.2559  1.0149  1.0692
56478SOL    HW281160   6.338   5.195   8.848 -1.8554 -0.8536 -0.1003
56479SOL     OW81161  11.283  10.636   1.878 -0.4086 -0.0025  0.0043
56479SOL    HW181162  11.328  10.643   1.963  0.4300 -0.9117 -0.3420
56479SOL    HW281163  11.297  10.720   1.836  1.6210 -0.4890 -0.3836
56480SOL     OW81164  13.212  11.385   8.773 -0.4906 -0.2379 -0.1168
56480SOL    HW181165  13.280  11.319   8.785 -0.2366  0.3583  2.1313
56480SOL    HW281166  13.163  11.384   8.855 -2.0706  0.6192 -1.0092
56481SOL     OW81167   0.788   2.915  11.733  0.6066  0.1264 -0.3751
56481SOL    HW181168   0.848   2.894  11.661  0.4851 -2.3281  0.1407
56481SOL    HW281169   0.845   2.935  11.807  0.8549 -1.5214 -0.0747
56482SOL     OW81170   8.863  11.352   1.785 -0.0003 -0.4067  0.0410
56482SOL    HW181171   8.902  11.283   1.732 -0.1982 -0.0415 -0.5840
56482SOL    HW281172   8.839  11.309   1.867  3.4834 -0.2672  1.2767
56483SOL     OW81173   0.202   6.163  11.501  0.1054  0.0030 -0.3417
56483SOL    HW181174   0.256   6.108  11.445  0.4517 -0.6272  0.5806
56483SOL    HW281175   0.112   6.136  11.483 -0.0934  1.9609 -2.8608
56484SOL     OW81176  12.248   7.809   9.705 -0.2594  0.4010  0.3698
56484SOL    HW181177  12.329   7.771   9.740  0.0285  2.0229  1.5712
56484SOL    HW281178  12.232   7.760   9.625  2.6831  0.9181 -0.6605
56485SOL     OW81179  12.060   4.289  11.937 -1.1207  0.3627  0.5152
56485SOL    HW181180  12.100   4.206  11.961  0.1414  0.8701  0.2725
56485SOL    HW281181  11.979   4.265  11.892  0.4512 -0.8582 -1.8565
56486SOL     OW81182   9.742  10.058   9.027  0.2395  0.2846  0.0464
56486SOL    HW181183   9.679  10.098   8.966  0.6509  0.5830 -0.1873
56486SOL    HW281184   9.698  10.060   9.112 -0.9912 -1.5342 -0.4800
56487SOL     OW81185   1.893   4.518   4.316 -0.0344 -0.2515 -0.2294
56487SOL    HW181186   1.904   4.597   4.369 -1.5835 -1.4324  2.0189
56487SOL    HW281187   1.800   4.516   4.294 -0.6290 -2.6779  2.0103
56488SOL     OW81188   5.663  13.452   0.890  0.2333 -0.1314 -0.7782
56488SOL    HW181189   5.599  13.523   0.895 -0.4747 -0.8025  0.2056
56488SOL    HW281190   5.631  13.386   0.952  1.2854 -0.9766 -1.0886
56489SOL     OW81191   3.223   5.781   8.948  0.2496  0.0290  0.0395
56489SOL    HW181192   3.288   5.807   8.883 -0.6045  0.4381 -0.6694
56489SOL    HW281193   3.222   5.853   9.012  0.6139 -0.0642  0.1524
56490SOL     OW81194   9.313   1.543   0.537 -0.2477  0.6367 -0.1398
56490SOL    HW181195   9.337   1.530   0.445  0.4252  1.1551 -0.0397
56490SOL    HW281196   9.305   1.454   0.572  1.4899  0.4267 -0.1888
56491SOL     OW81197   2.687  11.386   8.329  0.0269  0.0629  0.5241
56491SOL    HW181198   2.651  11.469   8.359  0.0347  0.5028 -0.6565
56491SOL    HW281199   2.670  11.325   8.401  1.4188  1.4223  2.0932
56492SOL     OW81200  12.459   5.412  12.743  0.2094 -0.2034 -0.0188
56492SOL    HW181201  12.392   5.419  12.811  0.0038 -0.4193 -0.1980
56492SOL    HW281202  12.420   5.455  12.667 -0.8451 -2.6736 -0.9583
56493SOL     OW81203   6.682  11.369   5.475 -0.4823  0.3216  0.5951
56493SOL    HW181204   6.687  11.418   5.393  0.6226 -0.0398  0.4248
56493SOL    HW281205   6.611  11.411   5.524 -2.1200 -0.3284 -1.0917
56494SOL     OW81206  13.737   4.277   4.603  0.5453  0.0908 -0.6064
56494SOL    HW181207  13.804   4.309   4.664 -1.9861  1.6990  1.5629
56494SOL    HW281208  13.786   4.255   4.524  3.6382  0.9880  0.8695
56495SOL     OW81209  11.709   5.126   6.655 -0.4112 -0.4455  0.8392
56495SOL    HW181210  11.786   5.073   6.633 -0.7664 -1.2300  1.4340
56495SOL    HW281211  11.635   5.070   6.632 -0.7958 -0.6685  2.4536
56496SOL     OW81212   7.266   6.248  10.821  0.0576  0.7665 -0.2463
56496SOL    HW181213   7.194   6.275  10.879  0.8744 -0.1260  1.2379
56496SOL    HW281214   7.333   6.214  10.880  0.9339 -0.2027 -1.7384
56497SOL     OW81215   2.214   1.448   9.953 -0.0818 -0.3972  0.5268
56497SOL    HW181216   2.226   1.356   9.977 -0.0201 -0.8798 -1.2401
56497SOL    HW281217   2.126   1.470   9.984 -0.6759 -1.5000 -0.3364
56498SOL     OW81218   2.191  12.017   5.565  0.4355 -0.8379 -0.4355
56498SOL    HW181219   2.191  11.965   5.645  1.0336  1.1107  0.9028
56498SOL    HW281220   2.283  12.024   5.540  0.4515  0.2709 -0.1001
56499SOL     OW81221  12.357   7.541   4.146 -0.0736  0.1783 -0.9276
56499SOL    HW181222  12.354   7.544   4.050 -0.6094  0.4499 -0.9071
56499SOL    HW281223  12.441   7.499   4.166  1.5602  2.9064 -1.4845
56500SOL     OW81224   4.938   5.441   7.033 -0.7438 -0.0132 -0.3350
56500SOL    HW181225   4.861   5.492   7.009 -1.9092 -2.4298 -2.0752
56500SOL    HW281226   5.006   5.469   6.971 -0.2277  1.8720  0.9895
56501SOL     OW81227   6.683   2.649   7.372  0.7136 -0.1097  0.4528
56501SOL    HW181228   6.710   2.694   7.292  3.2363  0.1249  1.3437
56501SOL    HW281229   6.655   2.720   7.430  2.3474  0.1303  0.9969
56502SOL     OW81230   0.266   9.717   7.455  0.3422  0.0406  1.0074
56502SOL    HW181231   0.181   9.673   7.455 -0.0663  0.7758  1.9246
56502SOL    HW281232   0.245   9.809   7.469  1.2512  0.3394  0.4430
56503SOL     OW81233   4.346   2.441  12.927  0.1597  0.1803 -0.4204
56503SOL    HW181234   4.363   2.530  12.895 -1.0634  0.0864 -1.4120
56503SOL    HW281235   4.374   2.443  13.018  0.5211  1.4740 -0.5304
56504SOL     OW81236   7.071   3.767   7.886  0.0094 -0.2493 -0.2096
56504SOL    HW181237   7.047   3.848   7.931 -0.5529  0.0451 -1.0287
56504SOL    HW281238   7.126   3.720   7.950 -0.6507  0.2207  0.7319
56505SOL     OW81239   6.298  11.849  10.947 -0.0362  0.1773 -0.0523
56505SOL    HW181240   6.337  11.928  10.982 -0.1886 -0.4586  1.6848
56505SOL    HW281241   6.277  11.796  11.024  1.0038 -2.0219 -1.1640
56506SOL     OW81242  12.237   8.800   2.206 -0.3120 -0.2097 -0.2702
56506SOL    HW181243  12.208   8.768   2.292 -1.1633 -2.5365 -1.3139
56506SOL    HW281244  12.325   8.833   2.221 -0.3740 -0.7101  1.4605
56507SOL     OW81245   0.160   4.810  13.345  0.0125 -0.3435  0.1026
56507SOL    HW181246   0.109   4.730  13.330 -0.2002 -0.0462 -0.8701
56507SOL    HW281247   0.129   4.870  13.278 -1.7320  1.5202  2.4404
56508SOL     OW81248   7.596  12.196   6.346  0.0144  0.0694  0.2013
56508SOL    HW181249   7.636  12.133   6.287 -1.0729 -0.8689  0.4288
56508SOL    HW281250   7.627  12.171   6.433  0.3017  0.4180  0.2002
56509SOL     OW81251  13.725   6.461  12.022 -0.0939  0.0262 -0.1650
56509SOL    HW181252  13.676   6.413  11.955  0.3734  0.2850 -0.7029
56509SOL    HW281253  13.727   6.552  11.990  2.6277 -0.3301 -1.3423
56510SOL     OW81254   9.519   1.534   4.672 -0.5330 -0.1448  0.1996
56510SOL    HW181255   9.553   1.474   4.738  2.0241  1.3602  0.3805
56510SOL    HW281256   9.445   1.577   4.714 -1.0853 -1.6516  0.8005
56511SOL     OW81257   6.715   4.118  10.942 -0.7089 -0.7193  0.2316
56511SOL    HW181258   6.656   4.193  10.953 -0.3424 -0.4887  0.6247
56511SOL    HW281259   6.802   4.157  10.929 -0.2788 -1.0943  1.8190
56512SOL     OW81260   7.336  11.718   4.506  0.4300 -0.0574 -0.1987
56512SOL    HW181261   7.393  11.793   4.485  1.2215 -0.5815  0.0071
56512SOL    HW281262   7.274  11.753   4.570  1.2975  0.2461  0.5087
56513SOL     OW81263   3.469  10.463   5.300 -0.3781  0.4707 -0.1738
56513SOL    HW181264   3.396  10.489   5.356 -0.7025 -0.6902 -0.0403
56513SOL    HW281265   3.456  10.513   5.219 -1.0611  0.6014  0.0093
56514SOL     OW81266  12.649  12.634  12.575  0.4776  0.1673 -0.3725
56514SOL    HW181267  12.681  12.723  12.559  0.4833  0.5528  1.4988
56514SOL    HW281268  12.615  12.637  12.664 -0.5938 -1.4261 -0.6902
56515SOL     OW81269  10.165   8.571   0.927  0.0716 -0.1610 -0.0302
56515SOL    HW181270  10.254   8.536   0.920 -0.1711 -0.5718 -1.3657
56515SOL    HW281271  10.124   8.519   0.996  0.9405  0.2445  0.8214
56516SOL     OW81272   7.938  10.545   6.188  0.2178 -0.3735  0.2118
56516SOL    HW181273   7.894  10.608   6.130 -1.6774 -0.5175  1.3997
56516SOL    HW281274   7.990  10.491   6.129  0.1842  0.9229 -1.0813
56517SOL     OW81275   4.756   8.860  13.461 -0.4224 -0.4652 -0.2161
56517SOL    HW181276   4.687   8.796  13.479  0.4295 -1.4092 -0.2153
56517SOL    HW281277   4.746   8.879  13.368 -0.4279 -0.9270 -0.3149
56518SOL     OW81278   0.955   0.858   9.370 -0.9062 -0.2788 -0.4286
56518SOL    HW181279   0.907   0.793   9.319  0.4922 -1.3254 -0.4882
56518SOL    HW281280   1.030   0.881   9.315  0.4379 -1.1502  0.9522
56519SOL     OW81281   8.575   6.067   7.506  0.4031 -0.1055 -0.2649
56519SOL    HW181282   8.614   5.981   7.488  0.4998 -0.2607  0.6573
56519SOL    HW281283   8.650   6.126   7.515  0.4626 -0.3656  1.3076
56520SOL     OW81284   4.990   8.764   7.931  0.3836 -0.3232 -0.4958
56520SOL    HW181285   5.068   8.801   7.890  1.0384 -0.0944  0.8679
56520SOL    HW281286   4.932   8.743   7.859 -0.0451  3.2961 -1.3845
56521SOL     OW81287   4.312   5.955   0.874 -0.0941 -0.4011  0.3689
56521SOL    HW181288   4.273   5.872   0.846 -1.7277 -0.1834  1.8016
56521SOL    HW281289   4.294   6.015   0.802 -1.3861 -0.6235  0.4810
56522SOL     OW81290  10.886   8.954   9.773 -0.4100 -0.2753  0.0819
56522SOL    HW181291  10.980   8.960   9.756 -0.4088 -1.2155 -0.3210
56522SOL    HW281292  10.849   8.917   9.693 -1.4881  2.2848 -0.6906
56523SOL     OW81293   4.729   2.719   1.872 -0.4240 -0.1042 -0.2113
56523SOL    HW181294   4.694   2.803   1.844  0.0122  0.3412  0.5335
56523SOL    HW281295   4.660   2.656   1.852 -2.2104  0.8827  2.2825
56524SOL     OW81296  10.647   5.027   6.574  0.8815  0.6888  0.4520
56524SOL    HW181297  10.656   4.972   6.651  2.1673  1.1987  0.7053
56524SOL    HW281298  10.611   5.109   6.607 -0.8271  0.1147  0.1097
56525SOL     OW81299   9.257   9.314  12.522  0.5105 -0.7201  0.1815
56525SOL    HW181300   9.352   9.306  12.511  0.5401  0.6647 -0.7522
56525SOL    HW281301   9.247   9.377  12.593  0.3311  1.6302 -1.8333
56526SOL     OW81302   5.964  12.393   3.438  0.3203 -0.2105 -0.6843
56526SOL    HW181303   5.926  12.418   3.523  1.3015  0.0195 -0.2991
56526SOL    HW281304   5.896  12.340   3.396 -1.0036  1.3684 -0.6413
56527SOL     OW81305  13.704   3.324  10.938 -0.4043 -0.2084 -0.8320
56527SOL    HW181306  13.763   3.393  10.907  0.5810 -0.4301  0.4803
56527SOL    HW281307  13.757   3.244  10.936 -0.4506 -0.3146  0.8961
56528SOL     OW81308   6.796   5.255  13.206 -0.1567  0.5579  0.3333
56528SOL    HW181309   6.788   5.231  13.114 -1.5500 -2.4337  1.1281
56528SOL    HW281310   6.858   5.193  13.243  0.4986  1.8018  1.4235
56529SOL     OW81311   0.016  10.846  11.216  0.2103 -0.0040  0.6071
56529SOL    HW181312   0.086  10.840  11.282  0.7341 -1.0030 -0.0228
56529SOL    HW281313  -0.065  10.834  11.266  0.4963  0.7875  1.2889
56530SOL     OW81314   6.012   4.071  13.109  0.7848  0.1305 -0.5767
56530SOL    HW181315   5.919   4.074  13.130  1.0608  2.2048  0.6198
56530SOL    HW281316   6.056   4.058  13.193  1.6323  1.3279 -0.8017
56531SOL     OW81317   0.040   1.540  11.474  1.1036 -0.1176 -0.5462
56531SOL    HW181318   0.061   1.447  11.466  1.8281  0.1175 -1.8045
56531SOL    HW281319   0.125   1.582  11.488  0.6099  0.2269  1.6470
56532SOL     OW81320  10.723   5.375   1.530 -0.2743 -0.3990  0.3676
56532SOL    HW181321  10.668   5.412   1.598  0.2959 -0.1182  0.6767
56532SOL    HW281322  10.667   5.310   1.487 -0.6379 -0.5700  1.0876
56533SOL     OW81323  13.292  11.602   0.489 -0.4166  0.4259 -0.8001
56533SOL    HW181324  13.281  11.520   0.537 -2.0644  1.5330  0.8421
56533SOL    HW281325  13.356  11.581   0.421 -0.2512 -2.0168 -0.0008
56534SOL     OW81326   6.691   6.988  13.450  0.1497  0.6545 -0.3807
56534SOL    HW181327   6.616   7.040  13.479  0.1207 -0.3921  1.6051
56534SOL    HW281328   6.652   6.914  13.404 -0.0929  0.0125  0.8137
56535SOL     OW81329  12.564   5.791   2.275 -0.0036  0.1072  0.2625
56535SOL    HW181330  12.482   5.742   2.276  0.7616 -1.2523  2.3763
56535SOL    HW281331  12.628   5.730   2.238  0.1592  1.0945 -1.2032
56536SOL     OW81332   5.874   0.542   4.560 -0.0369  0.2634 -0.4086
56536SOL    HW181333   5.888   0.475   4.493 -0.9609  0.5812 -0.9285
56536SOL    HW281334   5.780   0.556   4.561 -0.3487 -1.2351  2.4457
56537SOL     OW81335   8.695   4.186   3.587  0.1632  0.3291  0.0481
56537SOL    HW181336   8.617   4.174   3.642  0.6926  0.3333  0.8129
56537SOL    HW281337   8.664   4.169   3.498 -0.6294 -0.0333  0.3799
56538SOL     OW81338   9.167   4.873   9.376 -0.1536  0.1720 -0.2872
56538SOL    HW181339   9.125   4.958   9.392 -0.2320  0.4539 -1.8285
56538SOL    HW281340   9.104   4.809   9.407 -0.5289  0.6602 -0.0254
56539SOL     OW81341   4.914   9.178   4.734  0.6087  0.3677  0.3868
56539SOL    HW181342   4.834   9.150   4.691  1.1972 -0.1286 -0.4023
56539SOL    HW281343   4.884   9.214   4.818 -0.2892 -1.7086  1.0389
56540SOL     OW81344   2.105  13.055   6.506  0.2563 -0.3386  0.1232
56540SOL    HW181345   2.172  12.989   6.487  1.5364  1.7222 -3.3604
56540SOL    HW281346   2.027  13.024   6.461  0.9624  0.5881 -1.8309
56541SOL     OW81347  11.755  11.116  13.214 -0.2470  0.7589  0.3358
56541SOL    HW181348  11.836  11.067  13.220 -0.3485  0.4854 -0.3870
56541SOL    HW281349  11.731  11.135  13.305 -1.9366 -3.3659  0.9830
56542SOL     OW81350   7.508  13.049   2.267 -0.4892 -0.3674 -0.2824
56542SOL    HW181351   7.545  13.064   2.180  0.0157 -0.5492 -0.1020
56542SOL    HW281352   7.537  13.123   2.319 -1.0529 -0.0951 -0.3423
56543SOL     OW81353   0.008  10.783  10.228 -0.4085 -0.4246 -0.3123
56543SOL    HW181354   0.048  10.697  10.225  0.5368 -0.0153 -0.0073
56543SOL    HW281355  -0.006  10.800  10.321 -0.7263 -0.3035 -0.3785
56544SOL     OW81356   6.741   8.960   0.000 -0.1963  0.4154 -0.6669
56544SOL    HW181357   6.703   9.012  -0.070  0.8544  0.4338 -1.2303
56544SOL    HW281358   6.822   8.924  -0.036 -0.0274 -0.2127  0.2767
56545SOL     OW81359   3.879   0.140   2.642  0.1929  0.1253 -0.0095
56545SOL    HW181360   3.865   0.045   2.640 -0.7076  0.2511  0.0493
56545SOL    HW281361   3.878   0.166   2.550  1.7026 -0.0797 -0.1164
56546SOL     OW81362  12.858  12.196   1.849  0.0408 -0.0456 -0.2520
56546SOL    HW181363  12.764  12.208   1.861  0.1840 -0.9985  2.3124
56546SOL    HW281364  12.871  12.101   1.850  1.0292  0.0691 -0.7287
56547SOL     OW81365  11.380  13.703  13.213 -0.5874 -0.0526 -0.4824
56547SOL    HW181366  11.313  13.732  13.151  0.5986  0.4431 -1.5721
56547SOL    HW281367  11.462  13.737  13.178  0.3861 -1.5189  0.2704
56548SOL     OW81368  10.809  11.115  12.542  0.2194 -0.9003  0.7564
56548SOL    HW181369  10.901  11.116  12.569  0.1027  2.6580  1.6058
56548SOL    HW281370  10.764  11.164  12.611 -1.9678 -0.8142 -0.6477
56549SOL     OW81371  10.216   1.100   4.175 -0.2876  0.1094  0.1926
56549SOL    HW181372  10.298   1.123   4.218 -1.2830 -0.9514  2.8556
56549SOL    HW281373  10.203   1.008   4.197 -1.4173 -0.2015 -1.5858
56550SOL     OW81374   2.189   6.700   5.655  0.0193  0.2977 -0.0881
56550SOL    HW181375   2.196   6.791   5.626  1.7188  0.4324  0.6027
56550SOL    HW281376   2.274   6.662   5.634 -1.1844 -1.6206 -1.8081
56551SOL     OW81377  13.131   4.739  10.985  0.2328  0.3211 -0.3224
56551SOL    HW181378  13.052   4.723  11.036  0.3611 -0.9987 -0.5036
56551SOL    HW281379  13.187   4.664  11.003  0.1505 -0.3642 -2.6007
56552SOL     OW81380   7.365  10.077   1.720 -0.0177  0.4020  0.0500
56552SOL    HW181381   7.349   9.987   1.690  2.3674  0.0005 -0.2764
56552SOL    HW281382   7.383  10.068   1.813  2.9563  0.0311 -0.4595
56553SOL     OW81383   1.522   4.603  11.267  0.3110  0.2959  0.6904
56553SOL    HW181384   1.581   4.552  11.211 -0.1467  1.0910 -0.5353
56553SOL    HW281385   1.526   4.692  11.232 -1.7043  0.3462  0.4929
56554SOL     OW81386   2.297   4.164   2.392  0.2898 -0.4490 -0.0430
56554SOL    HW181387   2.318   4.245   2.345  0.2294  0.0700  0.8022
56554SOL    HW281388   2.322   4.094   2.332  1.8186  0.1767 -0.1769
56555SOL     OW81389  11.393   4.465   3.433  0.1670 -0.5261  0.2725
56555SOL    HW181390  11.472   4.455   3.380 -0.3102 -0.3884 -0.4779
56555SOL    HW281391  11.322   4.474   3.369 -0.4528 -0.6186  0.9352
56556SOL     OW81392   5.455   2.729  11.540  0.5234 -0.0111 -0.3520
56556SOL    HW181393   5.505   2.751  11.462  1.6651 -1.5344 -0.0875
56556SOL    HW281394   5.373   2.691  11.506 -0.0786  1.5909 -0.7760
56557SOL     OW81395   8.885   4.911   1.364 -0.2962 -0.3509  0.1795
56557SOL    HW181396   8.972   4.903   1.403  0.0069 -1.5918 -0.7085
56557SOL    HW281397   8.885   4.998   1.324  0.9793 -0.7752 -0.8121
56558SOL     OW81398   6.007   0.004   4.286 -0.6790  0.4035  0.1793
56558SOL    HW181399   6.080   0.062   4.308 -0.1809 -0.5722  1.2025
56558SOL    HW281400   6.033  -0.035   4.203 -2.5329  4.0373 -2.4083
56559SOL     OW81401   8.660   9.422   3.110  0.4819  0.0266 -0.3068
56559SOL    HW181402   8.667   9.458   3.022  0.0391 -2.3902 -1.4299
56559SOL    HW281403   8.735   9.363   3.118  0.2424 -0.1648  0.7409
56560SOL     OW81404  10.377   9.100  13.229 -1.2238 -0.0356  0.2756
56560SOL    HW181405  10.329   9.125  13.150 -0.4180 -1.5161 -0.7283
56560SOL    HW281406  10.311   9.098  13.298 -1.8155  1.9611 -0.1886
56561SOL     OW81407   3.386   4.810   9.110  0.6729 -0.5677 -0.1225
56561SOL    HW181408   3.443   4.738   9.137  2.7921  1.1358  0.2408
56561SOL    HW281409   3.365   4.792   9.019  1.6512 -1.3476 -0.2000
56562SOL     OW81410   3.586   5.612   5.190  0.3829  0.1533  0.0846
56562SOL    HW181411   3.664   5.658   5.161 -0.0730 -0.2680 -1.9647
56562SOL    HW281412   3.603   5.520   5.169 -0.5995  0.0418 -0.2980
56563SOL     OW81413   8.437   7.142   4.898 -0.0237  0.5469  0.1324
56563SOL    HW181414   8.482   7.091   4.965 -0.0976  0.6199  0.2373
56563SOL    HW281415   8.484   7.121   4.817  1.2801  1.9040  0.4959
56564SOL     OW81416   0.918  10.223   2.548  0.1314 -0.0048  0.6975
56564SOL    HW181417   0.931  10.237   2.454 -1.3989  1.5524  0.6758
56564SOL    HW281418   1.000  10.182   2.577  0.5404 -0.7446 -1.3408
56565SOL     OW81419  13.047   1.729  12.842 -0.3062  0.0589 -0.1561
56565SOL    HW181420  13.064   1.648  12.793  0.8864 -0.1590  0.5527
56565SOL    HW281421  13.110   1.726  12.914 -0.4887  1.4546  0.0918
56566SOL     OW81422   3.140  12.148   4.548 -0.3270  0.3596  0.4613
56566SOL    HW181423   3.052  12.161   4.583 -0.2343  0.1611  0.7681
56566SOL    HW281424   3.131  12.169   4.454 -1.3245 -2.1857 -0.0980
56567SOL     OW81425  13.493   1.077   4.567  0.6903  0.2578  0.2482
56567SOL    HW181426  13.426   1.022   4.525 -1.3068  2.5925  0.1572
56567SOL    HW281427  13.522   1.137   4.498 -0.5014  2.2186  1.3610
56568SOL     OW81428   0.934  10.133   9.651  0.4804 -0.1228 -0.4315
56568SOL    HW181429   0.869  10.175   9.595  0.5792  0.2280 -0.2873
56568SOL    HW281430   0.887  10.109   9.730  0.7615  1.2178  0.1862
56569SOL     OW81431   2.783  11.456   4.498 -0.4919  0.5275  0.3722
56569SOL    HW181432   2.706  11.408   4.528 -1.4881  0.3914 -2.1352
56569SOL    HW281433   2.811  11.409   4.419  3.0035 -0.2070  1.8241
56570SOL     OW81434   0.280  13.209  12.971 -0.0447  0.4130 -0.2339
56570SOL    HW181435   0.339  13.220  12.897 -0.0101  0.8177 -0.1440
56570SOL    HW281436   0.200  13.173  12.932  1.7667 -4.8826  0.1533
56571SOL     OW81437  12.158   8.785   7.383 -0.6894 -0.0392 -0.1052
56571SOL    HW181438  12.248   8.802   7.355 -0.9956  0.1120 -1.0430
56571SOL    HW281439  12.146   8.842   7.459  0.8084 -1.9371  1.6707
56572SOL     OW81440   6.875   4.415   7.662 -0.5549 -0.0993  0.7577
56572SOL    HW181441   6.823   4.494   7.675 -1.1636  0.2446 -2.7548
56572SOL    HW281442   6.966   4.446   7.663 -0.7835  0.6836 -0.4529
56573SOL     OW81443  12.867   7.311   5.729 -0.1582 -0.6931 -0.4328
56573SOL    HW181444  12.773   7.292   5.737  0.0259 -1.3744  0.1464
56573SOL    HW281445  12.887   7.362   5.808 -0.2475  0.3386 -1.0540
56574SOL     OW81446   9.185   0.225   0.163  0.7276 -0.7752 -0.3677
56574SOL    HW181447   9.245   0.292   0.129 -1.5401  2.0994  0.8383
56574SOL    HW281448   9.205   0.221   0.256 -1.7152  1.3084  0.3518
56575SOL     OW81449   6.074   5.876  10.060  0.4504  0.4389  1.1129
56575SOL    HW181450   6.048   5.968  10.065  2.1067  1.0444 -0.5081
56575SOL    HW281451   6.033   5.844   9.980  3.7190  1.1784 -1.0164
56576SOL     OW81452  12.053   4.820  11.785 -0.1302  0.0928 -0.0911
56576SOL    HW181453  12.086   4.897  11.739  1.5713  0.7872  2.1104
56576SOL    HW281454  12.120   4.800  11.850 -0.2116 -3.6407 -0.8915
56577SOL     OW81455   1.548   8.638   1.832 -0.3835 -0.4939  0.1314
56577SOL    HW181456   1.578   8.691   1.906  0.9177 -0.5625 -0.3125
56577SOL    HW281457   1.558   8.548   1.863 -0.2391 -0.5150  0.0254
56578SOL     OW81458  10.437   4.552   5.596  0.0855 -0.5185  0.0885
56578SOL    HW181459  10.464   4.484   5.535  2.0948  1.3527 -1.2546
56578SOL    HW281460  10.505   4.553   5.663 -0.0974 -0.0248  0.2689
56579SOL     OW81461  10.655   3.151   6.741 -0.1053  0.0482  0.3343
56579SOL    HW181462  10.564   3.138   6.769 -0.0929  0.2043  0.4473
56579SOL    HW281463  10.666   3.091   6.667 -0.9325  1.5273 -1.0617
56580SOL     OW81464   6.665  11.101   6.850 -0.3915 -0.3845 -0.0893
56580SOL    HW181465   6.692  11.121   6.761 -0.8481  1.7725  0.2054
56580SOL    HW281466   6.730  11.145   6.905 -0.7868 -0.6990  0.6428
56581SOL     OW81467  10.539  10.659  11.182  0.1758 -0.2559  0.8846
56581SOL    HW181468  10.515  10.738  11.230 -0.4976 -0.3215  0.6778
56581SOL    HW281469  10.538  10.686  11.090 -1.6789 -0.8748  0.6858
56582SOL     OW81470   0.963   9.557  13.267 -0.2748 -0.4975 -0.5260
56582SOL    HW181471   0.976   9.614  13.191 -1.0807  0.5923  0.1245
56582SOL    HW281472   0.979   9.613  13.343  3.3019 -2.2086  0.2167
56583SOL     OW81473   9.509   5.630   6.638 -0.5120  0.2925 -0.2765
56583SOL    HW181474   9.583   5.661   6.586 -1.6027 -0.1979 -2.2066
56583SOL    HW281475   9.514   5.681   6.719  2.5295 -0.4747  0.1246
56584SOL     OW81476   4.928  10.345  12.374  0.0423 -0.0109 -0.0138
56584SOL    HW181477   4.920  10.296  12.292  0.3699  0.6275 -0.4339
56584SOL    HW281478   5.000  10.406  12.358 -0.4538  0.7072  0.4478
56585SOL     OW81479  11.442  12.117   7.552 -0.2596  0.0335 -0.5013
56585SOL    HW181480  11.405  12.035   7.587 -0.8068  0.4078 -0.1828
56585SOL    HW281481  11.367  12.177   7.549  0.3131  0.7850  0.0750
56586SOL     OW81482   5.565  11.681   4.730  0.7822 -0.2718 -0.0798
56586SOL    HW181483   5.578  11.683   4.825 -0.6223 -0.0164  0.1210
56586SOL    HW281484   5.651  11.656   4.696  0.7659 -2.6740  1.3770
56587SOL     OW81485  11.346   3.577   6.739  0.5116 -0.0886  0.0586
56587SOL    HW181486  11.323   3.493   6.699  1.3395 -0.1366 -0.3247
56587SOL    HW281487  11.434   3.565   6.773  0.4687  0.4944  0.3919
56588SOL     OW81488   8.819   3.705   2.134 -0.6463  0.3152 -0.2021
56588SOL    HW181489   8.794   3.663   2.216  1.5181  0.5543  0.6506
56588SOL    HW281490   8.779   3.792   2.137 -2.8625 -0.6290 -0.7160
56589SOL     OW81491   6.940  10.751   0.332 -0.2493  0.3972 -0.1670
56589SOL    HW181492   6.904  10.707   0.255  0.2063  0.3006 -0.3339
56589SOL    HW281493   6.975  10.834   0.297  0.4017  0.1347 -0.1628
56590SOL     OW81494  13.363  11.996  13.518 -0.7785 -0.5454  0.0533
56590SOL    HW181495  13.353  11.989  13.613 -3.6556 -2.5082 -0.2581
56590SOL    HW281496  13.417  11.920  13.494  1.0486  0.6506  0.1406
56591SOL     OW81497   3.504   2.136   3.724  0.4921 -0.0946 -0.0360
56591SOL    HW181498   3.472   2.174   3.643  0.2025 -1.6977 -0.7085
56591SOL    HW281499   3.598   2.156   3.725  0.1261  1.8665  0.3899
56592SOL     OW81500   8.247   7.494   1.353  0.2604 -0.3677  0.3578
56592SOL    HW181501   8.265   7.400   1.341  0.2310 -0.5957  1.9467
56592SOL    HW281502   8.174   7.511   1.294 -1.8370 -2.1039  2.2531
56593SOL     OW81503  11.594   7.592   1.293  0.4507 -0.1674 -0.2945
56593SOL    HW181504  11.523   7.537   1.325  1.1602 -0.7689  0.2931
56593SOL    HW281505  11.581   7.596   1.198 -0.5872  0.0661 -0.1581
56594SOL     OW81506   6.503   3.941  11.767 -0.0175  0.1279  0.4511
56594SOL    HW181507   6.413   3.973  11.759 -0.0302  0.6625  2.2128
56594SOL    HW281508   6.494   3.845  11.773 -0.4695  0.1720  0.4930
56595SOL     OW81509   7.526   0.777   2.748  0.0952 -0.2770  0.4222
56595SOL    HW181510   7.578   0.719   2.803  1.8138 -0.1530 -0.9893
56595SOL    HW281511   7.523   0.860   2.796  1.6168 -0.1539  0.3502
56596SOL     OW81512   2.328   6.206   2.610  0.2838 -1.0490  0.2295
56596SOL    HW181513   2.342   6.189   2.703 -1.4602  0.5311  0.8456
56596SOL    HW281514   2.408   6.250   2.582  0.6375 -1.1162  1.1022
56597SOL     OW81515   7.150  10.898   5.037 -0.1842  0.3222  0.6810
56597SOL    HW181516   7.086  10.947   5.088  0.5708  1.0688  0.9414
56597SOL    HW281517   7.233  10.941   5.055  0.4212 -0.7241  0.4690
56598SOL     OW81518   0.013   0.481   0.181 -0.3417  0.2601 -0.4281
56598SOL    HW181519  -0.031   0.431   0.250  0.5082 -0.3707 -0.3216
56598SOL    HW281520   0.092   0.515   0.222 -0.7797  1.4943 -0.5776
56599SOL     OW81521   1.206  10.477   9.800 -0.1400 -0.3802  0.1034
56599SOL    HW181522   1.254  10.557   9.776  1.9071 -1.8339 -0.9884
56599SOL    HW281523   1.163  10.450   9.719 -0.3441 -0.6968  0.3151
56600SOL     OW81524  13.034   5.527   5.004 -0.1135  0.5120  0.3157
56600SOL    HW181525  13.073   5.611   4.978  0.0573 -0.0442 -1.2800
56600SOL    HW281526  12.969   5.508   4.936 -1.7942  0.4350  1.8605
56601SOL     OW81527  10.014   6.301   0.342 -0.3954  0.0606  0.3517
56601SOL    HW181528  10.029   6.386   0.300  1.2892 -0.0353  0.6772
56601SOL    HW281529  10.102   6.265   0.353 -1.0863 -1.7690  0.1543
56602SOL     OW81530   8.290   1.641   2.939 -0.2831  0.1572 -0.1265
56602SOL    HW181531   8.291   1.673   2.849 -1.7807 -0.2636 -0.3164
56602SOL    HW281532   8.350   1.566   2.938 -2.2841 -1.5410 -1.4791
56603SOL     OW81533   3.854   4.161  11.693 -0.3137  0.1655  0.1938
56603SOL    HW181534   3.946   4.165  11.721 -0.9663  2.7366  2.4237
56603SOL    HW281535   3.810   4.111  11.763 -0.8841  0.6118  0.1631
56604SOL     OW81536   0.678   5.468   1.244  0.3066  0.7362  0.2573
56604SOL    HW181537   0.671   5.554   1.202  1.6506  0.8751  0.2714
56604SOL    HW281538   0.771   5.445   1.236  0.3840  0.2486  2.1101
56605SOL     OW81539   2.307   8.682   6.305  0.2415 -0.6081 -0.4302
56605SOL    HW181540   2.249   8.699   6.379  1.0878 -0.7279  0.2696
56605SOL    HW281541   2.392   8.717   6.331  0.1255  1.1503 -2.1309
56606SOL     OW81542   7.827   7.870   3.116 -0.7561  0.5288  0.3188
56606SOL    HW181543   7.895   7.889   3.180  1.7501  0.4667 -2.1203
56606SOL    HW281544   7.806   7.956   3.078 -1.4127  0.4404  0.4847
56607SOL     OW81545   1.378  11.298  10.181  0.1295 -0.3742 -0.3397
56607SOL    HW181546   1.469  11.274  10.161  0.3760  0.3134 -0.0754
56607SOL    HW281547   1.326  11.232  10.136  0.7955 -2.1257  1.2973
56608SOL     OW81548   2.693   1.003  12.038  0.5861 -0.3440 -0.1177
56608SOL    HW181549   2.721   1.076  12.093  0.0039 -0.0328 -0.2282
56608SOL    HW281550   2.600   1.019  12.022  1.2939  1.1961 -3.6504
56609SOL     OW81551  12.577   7.414   4.234  0.0911  0.0734  0.1092
56609SOL    HW181552  12.592   7.396   4.327  0.4871  1.0746  0.2516
56609SOL    HW281553  12.659   7.389   4.192  0.4572  1.0246  0.2388
56610SOL     OW81554  13.274   0.041  11.140 -0.1439  0.1236 -0.1407
56610SOL    HW181555  13.354   0.074  11.181  0.8210 -0.0368 -1.8192
56610SOL    HW281556  13.297  -0.047  11.112 -0.8277  0.1662 -0.8540
56611SOL     OW81557   2.633   0.875   9.351 -0.0429  0.1991 -0.3083
56611SOL    HW181558   2.687   0.807   9.310 -1.9628 -2.3047  0.9845
56611SOL    HW281559   2.544   0.838   9.350 -0.8836  1.9359  2.0571
56612SOL     OW81560   0.522   0.472  11.838 -0.9081 -0.0740  0.0332
56612SOL    HW181561   0.443   0.511  11.874 -1.4206 -0.0201 -1.1162
56612SOL    HW281562   0.592   0.532  11.864 -0.9913 -0.8952  2.3382
56613SOL     OW81563   8.123   2.750  10.863 -0.1022 -0.2985 -0.7620
56613SOL    HW181564   8.115   2.845  10.870 -0.2080 -0.3439 -0.2299
56613SOL    HW281565   8.211   2.736  10.829 -0.5573  0.0338 -2.1067
56614SOL     OW81566   3.769  10.105   8.877  0.5633  0.4358 -0.4116
56614SOL    HW181567   3.767  10.133   8.785  2.3027  1.7278 -0.1095
56614SOL    HW281568   3.768  10.187   8.927 -2.0262 -0.2453  0.8425
56615SOL     OW81569   0.820   7.559   1.839 -0.0085  0.1404  0.2512
56615SOL    HW181570   0.899   7.541   1.890  0.5438  0.1784 -0.5549
56615SOL    HW281571   0.838   7.518   1.754 -0.3249  1.2189 -0.3560
56616SOL     OW81572   1.073   4.078  12.012 -0.6024  0.5075  0.3660
56616SOL    HW181573   1.091   4.012  11.945 -1.1734  1.9774 -1.3319
56616SOL    HW281574   1.147   4.138  12.008  0.5445 -0.5986  2.7739
56617SOL     OW81575   0.157  11.065   8.851  0.3571  0.6536 -0.1325
56617SOL    HW181576   0.192  11.138   8.801 -1.1340  0.0008 -2.2589
56617SOL    HW281577   0.192  10.987   8.808 -0.6194  0.0752  0.0809
56618SOL     OW81578  10.004  13.581   4.075  0.2353  0.4568  0.6192
56618SOL    HW181579   9.980  13.607   4.164 -0.6603  0.3746  0.4117
56618SOL    HW281580   9.988  13.487   4.072 -2.2488  0.8319 -0.3588
56619SOL     OW81581  10.967   3.015   4.095  0.4260  0.0982 -0.0432
56619SOL    HW181582  11.014   3.059   4.166 -4.2455  2.2993  2.0908
56619SOL    HW281583  10.950   3.083   4.030  0.2082 -0.6475 -0.7902
56620SOL     OW81584   8.437  10.980  12.693 -0.2414 -0.1700  0.1023
56620SOL    HW181585   8.380  11.003  12.766  0.1210  1.1599 -0.0108
56620SOL    HW281586   8.382  10.990  12.615 -0.2633 -0.2987  0.1019
56621SOL     OW81587  13.394   1.329   5.131 -0.1004 -0.1318 -0.3266
56621SOL    HW181588  13.321   1.268   5.141  0.8874 -1.5756 -1.2662
56621SOL    HW281589  13.354   1.411   5.104 -1.3944 -0.8456 -0.6817
56622SOL     OW81590   7.323  10.916   6.707 -0.1495 -0.1226 -0.2817
56622SOL    HW181591   7.350  10.994   6.658 -1.4113 -0.3230 -1.3501
56622SOL    HW281592   7.281  10.860   6.641 -1.0422 -0.8324  0.8636
56623SOL     OW81593   5.498  12.360   6.775 -0.1510  0.2013 -0.0101
56623SOL    HW181594   5.417  12.397   6.739 -0.6566  0.2257  1.1309
56623SOL    HW281595   5.471  12.276   6.812  0.6675 -0.5423 -1.0431
56624SOL     OW81596  11.500  13.443   0.408  0.0566  0.2941  0.6445
56624SOL    HW181597  11.488  13.357   0.448 -0.7245 -1.2585 -2.6613
56624SOL    HW281598  11.417  13.488   0.422 -0.3607 -0.3927  0.4191
56625SOL     OW81599   7.352   2.655   5.677  0.2574  0.6750  0.1622
56625SOL    HW181600   7.339   2.749   5.668  1.0285  0.8210  0.5026
56625SOL    HW281601   7.346   2.639   5.772 -1.2733  0.1619 -0.0005
56626SOL     OW81602   8.775  11.872   2.044  0.1911 -0.3668 -0.5415
56626SOL    HW181603   8.846  11.894   2.103  0.3288  0.2900 -0.9353
56626SOL    HW281604   8.744  11.957   2.011  1.5781 -0.7450 -3.1002
56627SOL     OW81605   6.004  10.083   5.092 -0.1339  0.8049  0.0365
56627SOL    HW181606   6.023  10.117   5.004 -1.8959  1.7111 -0.0394
56627SOL    HW281607   6.002  10.161   5.147  0.6358  0.2699  0.8398
56628SOL     OW81608   9.050   8.799  12.233 -0.0678 -0.0249 -0.2184
56628SOL    HW181609   9.106   8.876  12.225 -0.9096  0.4991 -1.3428
56628SOL    HW281610   8.968   8.824  12.191 -0.7738 -1.1446  0.4291
56629SOL     OW81611  10.298  10.487   9.103 -0.5188  0.3520  0.0557
56629SOL    HW181612  10.368  10.436   9.062 -1.2933  0.2703 -1.2153
56629SOL    HW281613  10.340  10.531   9.177  0.3311 -1.6053  0.8177
56630SOL     OW81614   0.270  11.158  11.037  0.1443 -0.4875 -0.4514
56630SOL    HW181615   0.226  11.090  10.986 -0.5499  0.3849 -1.0533
56630SOL    HW281616   0.351  11.175  10.989 -0.2974  0.0146 -1.0397
56631SOL     OW81617   2.512   3.320   7.726  0.2607 -0.5504 -0.4547
56631SOL    HW181618   2.569   3.331   7.650 -0.2901  0.3820 -0.7448
56631SOL    HW281619   2.543   3.239   7.767  1.0620 -0.6572 -1.2315
56632SOL     OW81620   0.464   2.309   4.290  0.1036 -0.2287  1.1140
56632SOL    HW181621   0.411   2.229   4.296 -1.8563  1.0264  1.2205
56632SOL    HW281622   0.530   2.288   4.224 -1.7464 -1.2339 -0.5474
56633SOL     OW81623  11.693   8.621   1.222 -0.6047  0.4688  0.0208
56633SOL    HW181624  11.776   8.667   1.235 -0.7502  1.6211 -2.5117
56633SOL    HW281625  11.676   8.628   1.127 -3.7318  0.5683  0.4669
56634SOL     OW81626   5.390  11.581   5.512 -0.1348  0.7712 -0.1846
56634SOL    HW181627   5.480  11.612   5.522  0.2519 -0.3098 -0.2259
56634SOL    HW281628   5.376  11.522   5.586 -0.8980  1.1143 -0.0423
56635SOL     OW81629   5.618  10.649   0.279  0.1779  0.5335 -0.5634
56635SOL    HW181630   5.526  10.654   0.256  0.5237  1.1394 -1.9285
56635SOL    HW281631   5.635  10.729   0.329  0.3992  1.4971 -2.1051
56636SOL     OW81632   1.977   6.369   6.543  0.6831 -0.2876 -0.1997
56636SOL    HW181633   1.955   6.404   6.457  1.3102 -0.3172 -0.3769
56636SOL    HW281634   1.927   6.288   6.549 -1.0937  0.8135  0.3828
56637SOL     OW81635   4.717   4.537   9.886  0.1572  0.7613 -0.2537
56637SOL    HW181636   4.711   4.620   9.934  1.8981  1.5723 -1.3399
56637SOL    HW281637   4.714   4.562   9.794 -3.2575 -0.7853 -0.6869
56638SOL     OW81638   0.758   2.284   9.493  0.4418  0.3855 -0.3438
56638SOL    HW181639   0.771   2.259   9.584 -1.0693  0.6525 -0.0318
56638SOL    HW281640   0.792   2.210   9.443 -1.3838 -1.1448  0.5115
56639SOL     OW81641  10.155   2.560   3.538 -0.0787 -0.0549 -0.0457
56639SOL    HW181642  10.092   2.599   3.598  0.8439  0.0999  0.8498
56639SOL    HW281643  10.224   2.525   3.594 -0.6498 -2.6637 -0.8350
56640SOL     OW81644   9.830  13.204   1.047 -0.3371 -0.4536 -0.0741
56640SOL    HW181645   9.894  13.233   0.982 -0.9871  2.5344  0.4521
56640SOL    HW281646   9.858  13.116   1.071  2.5868  0.0958 -1.0849
56641SOL     OW81647  13.314   1.706   5.866  0.4453  0.2652 -0.1511
56641SOL    HW181648  13.297   1.612   5.855 -3.9618  0.8603 -0.2801
56641SOL    HW281649  13.281   1.746   5.786 -0.6821  2.1056  1.1494
56642SOL     OW81650   6.435   6.587   5.896 -0.4287 -0.0650  0.0775
56642SOL    HW181651   6.426   6.496   5.868 -0.8499 -0.1462  0.4598
56642SOL    HW281652   6.346   6.613   5.923 -0.6731  0.9843 -1.5817
56643SOL     OW81653   5.173  10.780   2.802  0.1861 -0.4249 -0.1726
56643SOL    HW181654   5.192  10.689   2.775 -2.2305 -0.4126 -2.3187
56643SOL    HW281655   5.219  10.833   2.738  1.3191 -0.1053  0.8822
56644SOL     OW81656   5.778   6.505   6.907  0.9552  0.6819 -0.5623
56644SOL    HW181657   5.750   6.413   6.900 -0.1237  1.0307 -1.1228
56644SOL    HW281658   5.845   6.515   6.839  1.9548  0.0175  0.3003
56645SOL     OW81659   7.135   0.398   3.960  0.2161  0.4273  1.2567
56645SOL    HW181660   7.143   0.383   3.866 -0.7058  1.7163  0.9499
56645SOL    HW281661   7.225   0.409   3.990  0.4684  0.8527  0.3701
56646SOL     OW81662  13.340   7.777  12.125  0.1533  0.6503  0.3280
56646SOL    HW181663  13.326   7.717  12.051  0.5873 -0.0484  0.8005
56646SOL    HW281664  13.425   7.752  12.160 -1.0904 -0.7528  2.6037
56647SOL     OW81665   9.212  12.996   1.009  0.1939 -0.7022  0.2456
56647SOL    HW181666   9.221  12.903   1.031 -0.3930 -0.6799  0.5919
56647SOL    HW281667   9.195  12.997   0.915  1.7725 -0.8495 -0.0787
56648SOL     OW81668  11.696  11.828   4.676 -0.2743 -0.5049 -0.0846
56648SOL    HW181669  11.761  11.798   4.739  0.6876 -1.2697 -1.3852
56648SOL    HW281670  11.686  11.755   4.615  0.4293  0.9475 -2.0346
56649SOL     OW81671   7.523   3.560   2.670 -0.5428  0.2666 -0.0705
56649SOL    HW181672   7.488   3.649   2.675 -0.9712  0.0793  0.3501
56649SOL    HW281673   7.534   3.534   2.762  0.2040  0.1246 -0.1875
56650SOL     OW81674   6.701  11.965   6.650  0.7778 -0.3143 -0.4890
56650SOL    HW181675   6.688  12.057   6.671 -0.5969 -0.6814  0.4475
56650SOL    HW281676   6.785  11.943   6.691  1.2011  0.5456 -0.8689
56651SOL     OW81677   4.130   0.032  10.155 -0.0695  0.1881 -0.0325
56651SOL    HW181678   4.165   0.077  10.079 -1.1548 -0.9221 -1.2488
56651SOL    HW281679   4.061  -0.024  10.120  0.1851 -1.2479  1.6071
56652SOL     OW81680   9.028  10.782   4.221 -0.2017  0.5086  0.5485
56652SOL    HW181681   8.934  10.792   4.204 -0.0450  2.3040  0.5907
56652SOL    HW281682   9.065  10.869   4.206  1.5415 -0.2635  0.0931
56653SOL     OW81683   7.563   3.085   0.472  0.4050  0.0300 -0.0673
56653SOL    HW181684   7.483   3.084   0.526 -0.6043 -0.2559 -1.5089
56653SOL    HW281685   7.532   3.068   0.383  2.0904 -0.0636 -0.6721
56654SOL     OW81686   4.959   4.366   2.354  0.2576  0.0484  0.2814
56654SOL    HW181687   4.917   4.318   2.283 -1.6142  0.0653  1.2905
56654SOL    HW281688   5.019   4.303   2.394 -0.8822 -0.9367  0.5083
56655SOL     OW81689  11.604   8.085   2.597 -0.7182  0.2379  0.2294
56655SOL    HW181690  11.693   8.113   2.573 -0.8653  2.5029  1.9959
56655SOL    HW281691  11.610   7.990   2.606  1.2013  0.1978 -0.8815
56656SOL     OW81692  10.264   9.852  10.037 -0.0623 -0.5997  0.5432
56656SOL    HW181693  10.338   9.912  10.027 -1.7576  1.6917  0.9558
56656SOL    HW281694  10.257   9.808   9.952  1.3852 -0.4571  0.3253
56657SOL     OW81695   3.560   0.743   1.920  0.0349 -0.0739  0.0861
56657SOL    HW181696   3.493   0.687   1.959  1.4471 -1.0820  1.1653
56657SOL    HW281697   3.615   0.684   1.870 -0.0115  0.7840 -1.0205
56658SOL     OW81698   8.076   8.681   5.942 -0.4709 -0.2717  0.2350
56658SOL    HW181699   8.133   8.727   5.881 -1.3824  0.3758 -0.1534
56658SOL    HW281700   8.105   8.710   6.029 -1.9616  2.2666 -0.0146
56659SOL     OW81701  11.510   5.215   9.984  0.2369  0.5369  0.1491
56659SOL    HW181702  11.434   5.205   9.926  0.7549  2.3485 -0.9228
56659SOL    HW281703  11.582   5.237   9.926  1.8382 -1.9147  1.0660
56660SOL     OW81704  13.448   8.407  12.524 -0.2070  0.3612 -0.4606
56660SOL    HW181705  13.447   8.390  12.430  1.0282 -0.9390 -0.2776
56660SOL    HW281706  13.412   8.495  12.533 -2.0077 -0.1738 -1.9733
56661SOL     OW81707   3.329  12.063  12.078 -0.0120 -0.5595 -0.8143
56661SOL    HW181708   3.275  12.047  12.001 -0.3131  2.1799 -1.2680
56661SOL    HW281709   3.298  12.147  12.112  2.3656 -0.0480  0.3080
56662SOL     OW81710   0.455  11.412   3.241  0.1921 -0.4632 -0.1287
56662SOL    HW181711   0.410  11.485   3.198  0.7008 -0.1528 -0.1407
56662SOL    HW281712   0.500  11.452   3.315  0.8922 -0.6750 -0.4316
56663SOL     OW81713   3.905  12.930  13.366  0.6792 -0.1432 -0.2503
56663SOL    HW181714   3.889  12.965  13.279  0.8034  0.8653  0.1261
56663SOL    HW281715   3.827  12.955  13.417  0.6280 -0.6857 -0.0558
56664SOL     OW81716   5.456   6.153   8.334 -0.0882  0.3047 -0.1414
56664SOL    HW181717   5.479   6.083   8.395 -0.3235  0.2074 -0.1662
56664SOL    HW281718   5.496   6.126   8.251 -1.8477 -0.8043 -0.6778
56665SOL     OW81719  13.132  10.061   2.696  0.3255  0.1491 -0.1903
56665SOL    HW181720  13.096   9.979   2.664  0.6259  0.5593 -1.6776
56665SOL    HW281721  13.066  10.094   2.757  0.2969 -1.2679  0.5803
56666SOL     OW81722  12.320   2.593   7.598 -0.2823 -0.2444  0.1382
56666SOL    HW181723  12.391   2.535   7.574  0.9022  1.1754  0.0867
56666SOL    HW281724  12.243   2.557   7.553 -0.0233 -2.7661  1.5130
56667SOL     OW81725   2.705   8.364   8.354 -0.2378 -0.1074  0.2723
56667SOL    HW181726   2.625   8.411   8.331  0.0640  0.4768  0.3894
56667SOL    HW281727   2.734   8.405   8.436 -0.4103 -1.0572  0.8314
56668SOL     OW81728   2.497   7.121  13.211 -0.2115 -0.0844 -0.0207
56668SOL    HW181729   2.539   7.207  13.211  0.6778 -0.4895  1.0965
56668SOL    HW281730   2.568   7.059  13.224 -0.6693 -1.1241 -2.1002
56669SOL     OW81731   3.519   6.669   7.117  0.0215  0.0623 -1.0313
56669SOL    HW181732   3.525   6.754   7.074 -0.3402  0.3705 -0.4938
56669SOL    HW281733   3.497   6.690   7.208  0.6795 -0.5783 -0.7163
56670SOL     OW81734  12.290   3.729   0.214  0.4429 -0.1809 -0.1734
56670SOL    HW181735  12.269   3.641   0.245  0.2891 -1.2028 -2.9240
56670SOL    HW281736  12.298   3.720   0.119  0.5239  2.7704 -0.5401
56671SOL     OW81737   4.163   0.867   3.667  0.1811  0.7150 -0.0674
56671SOL    HW181738   4.131   0.954   3.692 -1.7401 -0.1527  0.6618
56671SOL    HW281739   4.139   0.811   3.741 -0.4561 -0.8107 -1.3826
56672SOL     OW81740  11.760   6.779   9.783  0.4664 -0.4785  0.0887
56672SOL    HW181741  11.805   6.802   9.864 -0.0083 -1.2213  0.5772
56672SOL    HW281742  11.675   6.823   9.789  1.0580  0.8497 -0.7905
56673SOL     OW81743   5.497   9.207   3.062 -0.1895 -0.2177 -0.0003
56673SOL    HW181744   5.420   9.219   3.007  0.3849  0.7416 -0.6112
56673SOL    HW281745   5.461   9.203   3.151 -0.9865 -0.2602 -0.3116
56674SOL     OW81746  11.949   2.554   3.595  0.3421 -0.0009  0.1412
56674SOL    HW181747  11.885   2.486   3.617  0.2191  0.0558 -0.0442
56674SOL    HW281748  12.002   2.563   3.675  0.1181 -0.0461  0.2967
56675SOL     OW81749   9.303   5.230  11.169  0.2858  0.4699  0.0732
56675SOL    HW181750   9.300   5.135  11.183 -1.5905  0.4988  0.1592
56675SOL    HW281751   9.353   5.263  11.244  0.6774 -0.4158  0.2226
56676SOL     OW81752   9.856   4.508   2.706 -0.4548  0.2842 -0.0637
56676SOL    HW181753   9.767   4.514   2.739 -1.4897  2.2899 -2.7796
56676SOL    HW281754   9.860   4.573   2.636  2.7603 -0.6747 -0.9733
56677SOL     OW81755   9.594  10.987   4.020  0.1344 -0.7095 -0.2207
56677SOL    HW181756   9.666  10.983   3.956 -1.0403 -1.2319 -1.5537
56677SOL    HW281757   9.613  11.065   4.072  1.8537 -1.0323 -0.2998
56678SOL     OW81758  12.055  11.698   9.838 -0.3030  0.4996 -0.1302
56678SOL    HW181759  12.044  11.617   9.788 -1.6584  0.3600  0.3555
56678SOL    HW281760  12.127  11.679   9.898 -0.7847 -0.4376  0.1626
56679SOL     OW81761   2.838  13.135   9.314  0.0670  1.1808  0.3525
56679SOL    HW181762   2.833  13.221   9.356  1.3777  0.9910  0.9401
56679SOL    HW281763   2.826  13.072   9.385  2.3189  0.8609  0.5499
56680SOL     OW81764   8.382   4.930   9.409  0.4572 -0.5743 -0.2291
56680SOL    HW181765   8.295   4.905   9.441  1.4600 -2.1471  1.5390
56680SOL    HW281766   8.425   4.846   9.390  1.9822  0.1027  0.0718
56681SOL     OW81767  12.282   1.970  13.490 -0.0918 -0.4805 -0.3150
56681SOL    HW181768  12.305   1.933  13.575 -2.4327 -0.8152  0.2286
56681SOL    HW281769  12.239   1.898  13.443 -1.0745  0.3831 -0.7941
56682SOL     OW81770   0.557  10.161   1.644  0.3102  0.2160  0.9999
56682SOL    HW181771   0.543  10.256   1.652 -0.3201  0.2560 -0.3215
56682SOL    HW281772   0.650  10.149   1.664  0.6870  1.2865  0.0309
56683SOL     OW81773  10.265   7.507  11.392 -0.6386  0.2022  0.3837
56683SOL    HW181774  10.323   7.439  11.425  1.2757  1.6093  0.0447
56683SOL    HW281775  10.237   7.476  11.306  1.9039  0.6936 -0.7162
56684SOL     OW81776   5.941  13.200  10.724 -0.1500 -0.0841 -0.1443
56684SOL    HW181777   5.919  13.138  10.654  0.1437  0.2428 -0.5327
56684SOL    HW281778   5.894  13.280  10.701  0.7115  0.3363 -0.5079
56685SOL     OW81779   8.999  11.481   7.817 -0.1877  0.3662 -0.3449
56685SOL    HW181780   8.908  11.481   7.848 -0.4727  1.0749 -1.1481
56685SOL    HW281781   9.039  11.558   7.858 -0.4957  1.1582 -1.4839
56686SOL     OW81782   3.095  10.157   9.822 -0.6685  0.3072  0.0645
56686SOL    HW181783   3.021  10.098   9.807 -1.7834  1.4031  1.0468
56686SOL    HW281784   3.103  10.208   9.742  2.8247 -3.6223 -2.5124
56687SOL     OW81785   1.958  10.453  12.707  0.1511  0.0985  0.7577
56687SOL    HW181786   1.888  10.490  12.653  0.3305  0.1358  0.5460
56687SOL    HW281787   2.038  10.474  12.659  0.2485 -0.6751  0.5696
56688SOL     OW81788   4.249  10.877   2.509  0.6864 -0.0301 -0.1588
56688SOL    HW181789   4.297  10.812   2.560 -1.2132 -1.7166 -0.4208
56688SOL    HW281790   4.314  10.912   2.449  2.1430 -0.4969  1.0777
56689SOL     OW81791  10.154  10.149   3.284 -0.2173  0.1801  0.2677
56689SOL    HW181792  10.124  10.086   3.350 -2.4834  2.4988  1.6335
56689SOL    HW281793  10.198  10.217   3.334 -1.5115  1.7284 -0.6069
56690SOL     OW81794   9.577   2.682  10.100 -0.4708  0.3204  0.4593
56690SOL    HW181795   9.650   2.619  10.104  0.0925  0.9943  0.9538
56690SOL    HW281796   9.530   2.658  10.020 -0.2282 -0.6937  0.6052
56691SOL     OW81797   0.108  11.464  11.914 -0.8944 -0.0780 -0.7154
56691SOL    HW181798   0.168  11.535  11.937  0.0147  0.5070 -4.3333
56691SOL    HW281799   0.146  11.387  11.957  1.2850  0.6772 -1.1379
56692SOL     OW81800   7.497   1.655   6.063 -0.2062 -0.0792 -0.3389
56692SOL    HW181801   7.429   1.719   6.041  1.5244  1.3908 -1.7218
56692SOL    HW281802   7.536   1.688   6.143  0.6872  0.6493 -1.0528
56693SOL     OW81803  11.735   9.568  11.002  0.4739  0.1605  0.0114
56693SOL    HW181804  11.684   9.554  10.922  0.6241 -1.0999  0.1174
56693SOL    HW281805  11.762   9.480  11.028  0.7183  0.5959  1.2603
56694SOL     OW81806   4.086   7.176   5.722  0.9151 -0.5511 -0.1095
56694SOL    HW181807   4.068   7.083   5.710 -0.0404 -0.1417 -2.4210
56694SOL    HW281808   4.152   7.197   5.657 -0.3641  0.7561 -1.0617
56695SOL     OW81809   6.636   7.769  10.803 -0.4698 -0.1589  0.1050
56695SOL    HW181810   6.573   7.834  10.836 -0.9967 -0.5773 -0.0604
56695SOL    HW281811   6.696   7.820  10.748 -0.8817  0.1865 -0.0342
56696SOL     OW81812  11.581   3.379   4.517  0.0585 -0.6255  0.1953
56696SOL    HW181813  11.507   3.366   4.458 -0.2511  0.5192  0.2983
56696SOL    HW281814  11.616   3.465   4.492  1.1559 -1.0113  0.3641
56697SOL     OW81815   9.786   2.437   3.320  0.5673 -0.1659 -0.6227
56697SOL    HW181816   9.713   2.376   3.333  1.0495 -0.3649  1.3583
56697SOL    HW281817   9.763   2.513   3.372  1.4777  0.0296 -0.5071
56698SOL     OW81818   0.551  10.910   2.655 -0.6455 -0.9237 -0.0251
56698SOL    HW181819   0.555  10.998   2.691 -0.7526 -1.5884  1.6882
56698SOL    HW281820   0.467  10.905   2.610 -0.0474  0.2572 -1.3562
56699SOL     OW81821   6.992   4.989   9.777  0.1299 -0.3725  0.0555
56699SOL    HW181822   7.038   5.009   9.859 -0.3573  0.5442  0.1192
56699SOL    HW281823   6.907   5.032   9.786  0.7488  1.3625 -1.6644
56700SOL     OW81824   1.278   3.759   0.448 -0.2953 -0.5761 -0.6733
56700SOL    HW181825   1.287   3.754   0.543  0.7106  3.4822 -0.3743
56700SOL    HW281826   1.361   3.728   0.415  0.1998  0.0484 -0.0547
56701SOL     OW81827   4.519  12.167   4.220 -0.4251  0.3995 -0.4648
56701SOL    HW181828   4.465  12.190   4.295  0.6449  0.6352  0.2528
56701SOL    HW281829   4.602  12.140   4.257 -0.7022 -2.0381 -1.4185
56702SOL     OW81830   1.358   5.078  10.323  0.3163 -0.3894  0.2794
56702SOL    HW181831   1.422   5.016  10.290  0.5086 -0.4409  0.7329
56702SOL    HW281832   1.282   5.024  10.346 -0.2417 -0.2202 -1.0956
56703SOL     OW81833   8.763   1.211   6.189  0.0342  0.1187  0.3008
56703SOL    HW181834   8.761   1.248   6.277  0.9123 -1.6184  1.0914
56703SOL    HW281835   8.688   1.151   6.186  0.0702  0.0897 -0.1046
56704SOL     OW81836   5.088   6.921  11.124  0.3268 -0.1436  0.9430
56704SOL    HW181837   5.053   6.832  11.128 -0.1483  0.0534  1.3160
56704SOL    HW281838   5.071   6.950  11.034  1.8619 -0.9674  0.3631
56705SOL     OW81839  10.640   6.154   5.290  0.2089 -0.0422 -0.4149
56705SOL    HW181840  10.718   6.170   5.236 -0.4154 -1.6187 -1.8588
56705SOL    HW281841  10.670   6.091   5.356 -0.0544 -1.4845 -1.6247
56706SOL     OW81842   7.233   5.222   9.839  0.0068 -0.2308 -0.0200
56706SOL    HW181843   7.225   5.153   9.773  1.8722  0.2553 -0.8374
56706SOL    HW281844   7.297   5.187   9.902  1.2764  0.8617 -0.6563
56707SOL     OW81845  10.353   1.120   6.773  0.0815 -0.2793  0.9072
56707SOL    HW181846  10.315   1.032   6.781 -0.5824 -0.0453  0.4188
56707SOL    HW281847  10.277   1.178   6.762  0.5732  0.1994 -0.0495
56708SOL     OW81848   0.886   0.949   1.371  0.4550 -0.1481 -0.5102
56708SOL    HW181849   0.908   0.881   1.307 -0.1128 -0.5421 -0.2897
56708SOL    HW281850   0.971   0.986   1.395  0.5891  1.3493 -2.9280
56709SOL     OW81851   9.080   0.475   2.861 -0.1140 -0.2564 -0.0057
56709SOL    HW181852   9.090   0.467   2.955 -0.2092  1.3815  0.1833
56709SOL    HW281853   9.158   0.435   2.824  1.0058  1.0174  0.8887
56710SOL     OW81854   9.371  12.603   5.025 -0.3382 -0.2602 -0.1135
56710SOL    HW181855   9.434  12.666   4.991 -0.1667  0.2426  1.0745
56710SOL    HW281856   9.314  12.583   4.951  3.0509 -3.2120 -2.2375
56711SOL     OW81857   5.263   1.747   1.363 -0.5830  0.3740 -0.3461
56711SOL    HW181858   5.321   1.683   1.403  1.0084  3.0901  2.0714
56711SOL    HW281859   5.309   1.775   1.283 -0.6180 -0.4594 -0.6642
56712SOL     OW81860   7.024   9.962   0.054 -0.0751  0.7486 -0.1483
56712SOL    HW181861   7.067   9.932  -0.026 -0.5157 -1.1710  0.2840
56712SOL    HW281862   7.095   9.966   0.119 -0.2876 -1.3798  0.2894
56713SOL     OW81863  11.028   3.941   4.338  0.1025  0.5230 -0.2862
56713SOL    HW181864  10.967   4.008   4.307 -0.3366  0.5251  0.5620
56713SOL    HW281865  10.978   3.859   4.333 -0.5124  0.7208  1.8181
56714SOL     OW81866   0.117   2.019  10.619 -0.4670 -0.4456  0.4225
56714SOL    HW181867   0.090   1.949  10.678  0.8339 -1.0120  0.3759
56714SOL    HW281868   0.102   1.984  10.531 -2.0941  0.2746  0.3756
56715SOL     OW81869   1.306   4.451  11.325  0.1658 -0.2258  0.5048
56715SOL    HW181870   1.387   4.495  11.298 -0.8373  0.8777 -0.8704
56715SOL    HW281871   1.310   4.451  11.421  0.2501  2.9076  0.6016
56716SOL     OW81872   3.034   8.050   7.459 -0.6501 -0.0270  0.5054
56716SOL    HW181873   3.129   8.058   7.466 -0.5814 -1.1427  1.0891
56716SOL    HW281874   3.003   8.140   7.450  0.3573  0.4980  1.8940
56717SOL     OW81875   6.830   3.753  13.243  0.8673 -0.6015  0.2394
56717SOL    HW181876   6.789   3.671  13.216 -1.0744  0.1429  0.7602
56717SOL    HW281877   6.757   3.814  13.253  2.2908  1.3322 -0.5501
56718SOL     OW81878   6.800   2.459   0.813 -0.0104 -0.1459 -0.1227
56718SOL    HW181879   6.712   2.445   0.778  0.6831  1.2143 -2.6274
56718SOL    HW281880   6.790   2.532   0.874 -0.3275  1.5069 -2.0575
56719SOL     OW81881  12.565   2.604   9.123  0.1104  0.1538  0.2279
56719SOL    HW181882  12.615   2.538   9.171 -0.1162 -0.5688 -0.5199
56719SOL    HW281883  12.532   2.559   9.046 -0.4932  1.0040 -0.0308
56720SOL     OW81884  11.983   2.263   8.657  0.1175 -0.1517  0.1236
56720SOL    HW181885  11.908   2.239   8.712  0.6031  1.0098  1.3725
56720SOL    HW281886  11.991   2.357   8.669  0.1571  0.1703 -2.1372
56721SOL     OW81887   1.315   6.047  10.897 -0.0254 -0.5670  0.3511
56721SOL    HW181888   1.351   6.062  10.985  1.4642  2.0327 -0.5848
56721SOL    HW281889   1.270   6.129  10.875 -0.9086 -1.3997 -1.0798
56722SOL     OW81890   1.426   5.824   4.134  0.0591  0.1186 -0.0539
56722SOL    HW181891   1.365   5.857   4.068 -0.0308 -0.9180 -0.4914
56722SOL    HW281892   1.512   5.854   4.105 -0.2621  2.2089  0.9385
56723SOL     OW81893   7.709   8.662  13.447  0.5040 -0.0748 -0.2489
56723SOL    HW181894   7.788   8.638  13.494 -0.2634 -1.2316  0.5025
56723SOL    HW281895   7.640   8.610  13.488 -0.5992  0.7004 -1.0671
56724SOL     OW81896   3.446  11.288  11.998  0.0082  0.0574  0.2714
56724SOL    HW181897   3.375  11.270  11.936  0.6701 -0.2163 -0.4264
56724SOL    HW281898   3.526  11.280  11.945  0.4878  2.7512  0.4469
56725SOL     OW81899   4.706   6.548   5.867 -0.1494 -0.3925  0.4410
56725SOL    HW181900   4.773   6.528   5.932  0.0221 -0.4015  0.2616
56725SOL    HW281901   4.669   6.463   5.844 -0.9195 -0.3081  1.2753
56726SOL     OW81902  11.369   1.829  13.168  0.0174  0.0937 -0.2945
56726SOL    HW181903  11.310   1.824  13.243  0.6052  1.7469  0.3426
56726SOL    HW281904  11.433   1.896  13.193  2.7796 -2.2877 -0.5473
56727SOL     OW81905   0.728   7.876   7.203  0.1531 -0.7408  0.4504
56727SOL    HW181906   0.748   7.787   7.230  1.3653 -0.1958  1.5054
56727SOL    HW281907   0.790   7.894   7.132  1.5611 -0.0174  1.7828
56728SOL     OW81908   4.187  10.070   5.583 -0.0505 -0.6300 -0.3131
56728SOL    HW181909   4.180   9.975   5.584  0.3857 -0.6875 -1.6958
56728SOL    HW281910   4.135  10.098   5.509 -2.2634  0.4450  1.5194
56729SOL     OW81911   3.187   5.639   4.820 -0.0680  0.2455 -0.2365
56729SOL    HW181912   3.117   5.579   4.793  0.0117  0.1991 -0.3400
56729SOL    HW281913   3.150   5.726   4.805 -0.3454  0.2324  0.3183
56730SOL     OW81914   0.081   7.066   4.084 -0.2870 -0.0246  0.3412
56730SOL    HW181915   0.047   7.108   4.163 -0.1102  0.8775 -0.0606
56730SOL    HW281916   0.068   7.130   4.014  0.0851 -0.5916 -0.2616
56731SOL     OW81917  12.823   1.772  10.910  0.4201  0.5306  0.3956
56731SOL    HW181918  12.765   1.752  10.984 -1.4499  0.3867 -1.0487
56731SOL    HW281919  12.807   1.701  10.848  2.1953  0.4831 -0.0628
56732SOL     OW81920   4.329   9.536  13.607 -0.5311 -0.0199  0.1280
56732SOL    HW181921   4.267   9.596  13.649  0.3666 -0.8808  2.8765
56732SOL    HW281922   4.408   9.588  13.594 -0.4675 -0.0170  0.5074
56733SOL     OW81923  10.917   3.152   5.370  0.1088 -0.4291  0.0030
56733SOL    HW181924  10.857   3.079   5.354  1.6753 -1.5902 -0.7703
56733SOL    HW281925  10.865   3.215   5.420 -0.9210 -2.6328  1.8937
56734SOL     OW81926   0.020   8.273   8.168 -0.0581 -0.4939  0.4158
56734SOL    HW181927  -0.043   8.201   8.161  0.7535 -1.2853  1.0251
56734SOL    HW281928  -0.034   8.351   8.177 -0.9642 -1.0215 -0.2219
56735SOL     OW81929   4.319   7.203  13.096 -0.1024  0.8748  0.0806
56735SOL    HW181930   4.247   7.225  13.155 -1.4415 -0.7441 -0.8629
56735SOL    HW281931   4.325   7.278  13.037 -3.0136 -0.0690 -1.6334
56736SOL     OW81932  12.347   0.610   6.933  0.2729  0.3718  0.1799
56736SOL    HW181933  12.413   0.543   6.951 -0.4960 -0.5566 -0.3705
56736SOL    HW281934  12.317   0.638   7.019  0.5592 -0.0279  0.4149
56737SOL     OW81935   9.927   0.835   3.517  0.2002  0.3571 -0.3740
56737SOL    HW181936   9.970   0.759   3.476 -1.6545  0.7455 -3.2730
56737SOL    HW281937   9.850   0.799   3.560 -0.9536  0.5517 -2.1702
56738SOL     OW81938   0.277   8.696   6.703 -0.4133 -0.4925  0.9435
56738SOL    HW181939   0.349   8.684   6.640  1.2137 -1.5615  2.8909
56738SOL    HW281940   0.251   8.788   6.692 -0.8632 -0.8689 -1.8964
56739SOL     OW81941  12.053   3.118   2.478  0.5853 -0.5666  0.6272
56739SOL    HW181942  12.062   3.022   2.479 -1.0929 -0.8595 -2.1379
56739SOL    HW281943  12.109   3.146   2.406  0.9226  0.5389  1.3076
56740SOL     OW81944  12.069   2.543   4.937  0.4915  0.2815 -0.2957
56740SOL    HW181945  12.040   2.474   4.878  0.1080 -0.1348  0.3791
56740SOL    HW281946  11.991   2.567   4.987  0.5062  1.5163 -0.8274
56741SOL     OW81947   0.743   2.242   1.101  0.7239 -0.5733 -0.2407
56741SOL    HW181948   0.707   2.252   1.189  0.7849 -1.9181 -0.0478
56741SOL    HW281949   0.668   2.252   1.043  0.7350  0.6343 -0.0685
56742SOL     OW81950   3.670  13.380  11.791  0.3424  0.3835 -0.2014
56742SOL    HW181951   3.612  13.434  11.845 -0.4091 -2.7241  2.4958
56742SOL    HW281952   3.758  13.411  11.810 -0.0508  0.5993  1.4518
56743SOL     OW81953   9.579  11.408   8.458 -0.0656  0.0657 -0.0982
56743SOL    HW181954   9.660  11.456   8.437  0.1706 -0.1465  0.3309
56743SOL    HW281955   9.512  11.453   8.407  0.1764  0.7761  0.1936
56744SOL     OW81956   2.017  10.497   5.797  0.1043 -0.0858 -0.2705
56744SOL    HW181957   2.095  10.484   5.851  0.1154 -0.8234 -0.4572
56744SOL    HW281958   2.000  10.591   5.802  0.7406  0.0131  0.1374
56745SOL     OW81959   1.740   0.309   4.692 -0.2596  0.4963  0.5485
56745SOL    HW181960   1.771   0.398   4.701  0.1663  0.3104  0.9530
56745SOL    HW281961   1.815   0.260   4.660 -0.7490  0.4507 -0.5754
56746SOL     OW81962  11.944   8.963  11.883  0.3352 -0.1414  0.2442
56746SOL    HW181963  12.030   9.003  11.873  0.6057 -0.6780  0.3392
56746SOL    HW281964  11.938   8.902  11.810 -0.5746  0.9321 -0.6003
56747SOL     OW81965  12.209   9.132  10.384  0.4304 -0.0755 -0.3426
56747SOL    HW181966  12.140   9.188  10.419  0.7883  0.4369 -0.4467
56747SOL    HW281967  12.288   9.186  10.388  1.0136 -0.9915  0.6470
56748SOL     OW81968   5.611  12.624   5.622  0.4016  0.5986  0.0440
56748SOL    HW181969   5.665  12.689   5.667  0.8516 -0.1394  0.6144
56748SOL    HW281970   5.642  12.624   5.532  1.9520 -0.3732  0.5294
56749SOL     OW81971   0.303   3.162   5.691  0.1707 -0.4062  0.8173
56749SOL    HW181972   0.386   3.147   5.736 -0.0952 -1.7773  0.8821
56749SOL    HW281973   0.280   3.077   5.653 -0.6093  0.2393 -0.2267
56750SOL     OW81974   1.391   8.997  11.675  0.0170  0.2723  0.5106
56750SOL    HW181975   1.406   8.938  11.601 -0.2355 -0.9942  1.4398
56750SOL    HW281976   1.384   9.084  11.635 -0.9793 -0.4832 -1.0514
56751SOL     OW81977  13.047   5.551   9.390 -0.3847 -0.3692 -0.4074
56751SOL    HW181978  13.088   5.601   9.460  0.0504 -0.1146 -0.8329
56751SOL    HW281979  13.002   5.616   9.336  1.6398 -0.1481 -1.9643
56752SOL     OW81980   1.729  11.765  12.180  0.1990 -0.3623 -0.2411
56752SOL    HW181981   1.761  11.778  12.269  0.0769 -0.9950 -0.0982
56752SOL    HW281982   1.802  11.724  12.134  0.7068  1.0899 -0.7784
56753SOL     OW81983   3.889   0.927   1.042  0.6005 -0.1326 -0.1706
56753SOL    HW181984   3.907   0.913   1.135  0.6198  0.8162 -0.0164
56753SOL    HW281985   3.840   0.850   1.015  0.2300 -0.2301  0.7357
56754SOL     OW81986   3.249   0.373   2.768 -0.1348 -0.1474 -0.2413
56754SOL    HW181987   3.238   0.280   2.789 -0.5285  0.6134  3.6916
56754SOL    HW281988   3.159   0.406   2.760 -0.0319  0.1554 -0.1491
56755SOL     OW81989  13.679   0.875   5.186 -0.0581 -0.4702 -0.2106
56755SOL    HW181990  13.684   0.959   5.232 -0.7674 -1.0007  0.8750
56755SOL    HW281991  13.715   0.893   5.099  0.1352  0.8660  0.1259
56756SOL     OW81992  11.852   0.754   0.185  0.4682 -0.2116 -0.1528
56756SOL    HW181993  11.843   0.849   0.195  2.2676 -0.0362  0.0477
56756SOL    HW281994  11.769   0.727   0.147 -0.4664  1.3060  0.6608
56757SOL     OW81995   1.786   4.250   2.278  0.0024 -0.2729 -0.1484
56757SOL    HW181996   1.860   4.195   2.250  0.5878  0.2665  0.3024
56757SOL    HW281997   1.710   4.214   2.231  0.9742  0.8144 -2.7658
56758SOL     OW81998   3.079   2.766   5.399  0.6351  0.1748  0.1485
56758SOL    HW181999   3.072   2.826   5.324 -0.7090 -0.3103 -0.1275
56758SOL    HW282000   2.991   2.762   5.436  0.5906 -1.9460 -0.0824
56759SOL     OW82001   8.484  12.895  10.709  0.4226  0.5617 -0.3140
56759SOL    HW182002   8.445  12.829  10.653 -0.2039  0.3707  0.3283
56759SOL    HW282003   8.507  12.848  10.789  1.5470  0.7709 -0.4950
56760SOL     OW82004  13.436  13.482   5.883  0.1353  0.4173  0.2981
56760SOL    HW182005  13.347  13.469   5.916 -0.0866 -0.9214 -0.7138
56760SOL    HW282006  13.449  13.577   5.885 -0.6428  0.5262  2.1286
56761SOL     OW82007   4.414  11.224   5.154  0.0154 -0.4315 -0.6403
56761SOL    HW182008   4.475  11.187   5.090  0.2519 -0.6188 -0.3128
56761SOL    HW282009   4.396  11.152   5.214  1.5244  0.3046  0.7856
56762SOL     OW82010  10.347   3.224   9.359 -0.2997  0.7478 -0.1366
56762SOL    HW182011  10.269   3.185   9.399 -1.0583  2.5383  0.2366
56762SOL    HW282012  10.335   3.318   9.370  2.0375  1.0883  0.1370
56763SOL     OW82013   3.380   3.688   9.817 -0.0088 -0.2464  0.1219
56763SOL    HW182014   3.403   3.632   9.891 -0.3156  0.0876  0.4784
56763SOL    HW282015   3.464   3.721   9.785  0.0973  0.0263  0.6616
56764SOL     OW82016   8.896  10.919   6.062  0.3112  0.5564  0.8189
56764SOL    HW182017   8.854  10.840   6.028  1.2178  1.3433 -2.5080
56764SOL    HW282018   8.825  10.972   6.096 -0.6527 -0.5056  0.5141
56765SOL     OW82019   7.664   3.712  11.796  0.0634 -0.0603  0.2174
56765SOL    HW182020   7.674   3.721  11.891  0.6276 -1.4278  0.3098
56765SOL    HW282021   7.588   3.767  11.775  0.8279  1.4582  1.2225
56766SOL     OW82022  12.435   8.187  13.636  0.0938  0.0054 -0.0949
56766SOL    HW182023  12.528   8.167  13.625  0.2260  1.4373 -2.1321
56766SOL    HW282024  12.389   8.119  13.586  0.3260  1.5782 -2.6782
56767SOL     OW82025  11.508   9.358   0.564 -0.4563 -0.0849  0.5453
56767SOL    HW182026  11.565   9.318   0.629  2.8935  2.0373 -0.7713
56767SOL    HW282027  11.482   9.442   0.603 -0.1890  0.2483  0.0285
56768SOL     OW82028   0.471   4.228   6.424 -0.0187 -0.2162 -0.2674
56768SOL    HW182029   0.528   4.157   6.394  0.2702 -0.1926  0.2214
56768SOL    HW282030   0.382   4.192   6.415  0.1908 -1.3385  1.6896
56769SOL     OW82031   1.555   8.507  13.648 -0.4068 -0.6104  0.4583
56769SOL    HW182032   1.628   8.549  13.694 -0.8892 -3.0182  3.8320
56769SOL    HW282033   1.499   8.579  13.620  1.4721  1.1380  0.9729
56770SOL     OW82034  12.185   5.827   2.579 -0.1051 -0.5695 -0.1435
56770SOL    HW182035  12.260   5.769   2.565 -0.9651 -1.7265 -0.0446
56770SOL    HW282036  12.224   5.909   2.610  1.1450 -1.0207 -0.4555
56771SOL     OW82037   2.050  10.211   3.002  0.5397 -0.4910 -0.3172
56771SOL    HW182038   2.042  10.133   3.056 -1.2742 -0.0359  0.1491
56771SOL    HW282039   2.127  10.257   3.036  0.1511 -0.8378  1.0589
56772SOL     OW82040   8.883  10.438   6.401  0.1547 -0.0564 -0.2261
56772SOL    HW182041   8.964  10.477   6.370  0.6191 -1.7968 -1.3452
56772SOL    HW282042   8.821  10.511   6.408  1.2332  0.9882 -1.2945
56773SOL     OW82043   8.437   8.975  12.183  0.4342 -1.0683 -0.4368
56773SOL    HW182044   8.507   8.939  12.237  0.1668  0.1842  0.8099
56773SOL    HW282045   8.356   8.946  12.226  0.2153  0.5956  0.3646
56774SOL     OW82046   9.627   5.524  10.871  0.4996 -0.1072  0.2508
56774SOL    HW182047   9.552   5.562  10.916  0.2995 -2.3397  1.9492
56774SOL    HW282048   9.605   5.529  10.778 -1.0995  0.5772  0.6421
56775SOL     OW82049  11.788   5.286   8.318 -0.5406 -0.5444 -0.2559
56775SOL    HW182050  11.876   5.321   8.303 -0.9491 -0.0222 -1.6158
56775SOL    HW282051  11.767   5.240   8.236 -1.4687 -0.7862  0.1084
56776SOL     OW82052   1.676  12.639   4.560 -0.3144  0.1617 -0.9941
56776SOL    HW182053   1.664  12.730   4.532 -0.5671  0.5990  0.4728
56776SOL    HW282054   1.770  12.623   4.546 -0.0945  0.9313 -0.4623
56777SOL     OW82055  11.440   1.911  12.131 -0.3697  0.4900  0.3047
56777SOL    HW182056  11.406   1.999  12.115 -0.5251  0.5000  0.6772
56777SOL    HW282057  11.497   1.893  12.057 -0.5399  0.8048  0.0975
56778SOL     OW82058  11.080   7.713   0.362 -0.6009 -0.0032  0.2096
56778SOL    HW182059  11.053   7.791   0.314 -1.6100  1.0528  2.3446
56778SOL    HW282060  11.176   7.718   0.364 -0.5648  0.1871 -1.1976
56779SOL     OW82061  13.457  11.824   0.497  0.6889  0.4750 -0.0165
56779SOL    HW182062  13.377  11.771   0.488  0.2167  1.0158  0.9514
56779SOL    HW282063  13.493  11.798   0.581  1.5152  0.2793 -0.4241
56780SOL     OW82064   0.778   9.310   6.254 -0.4496 -0.3885  0.0947
56780SOL    HW182065   0.712   9.332   6.320 -1.3488 -1.8532 -0.2755
56780SOL    HW282066   0.787   9.215   6.260 -0.6083 -0.5679 -1.9093
56781SOL     OW82067  10.387   1.458   7.416 -0.0618 -0.4514  0.4440
56781SOL    HW182068  10.434   1.520   7.360  0.4483 -0.1714  1.1811
56781SOL    HW282069  10.445   1.382   7.422 -0.5851 -0.9269 -0.2687
56782SOL     OW82070  11.641   7.034   2.331  0.0790  0.0396  0.1233
56782SOL    HW182071  11.703   7.085   2.382 -0.1068 -0.2757  0.6699
56782SOL    HW282072  11.563   7.089   2.326  0.0139 -0.0301  0.3811
56783SOL     OW82073   6.142   0.981  13.592  0.0308  0.4956  0.4420
56783SOL    HW182074   6.236   0.983  13.571  0.2007 -2.1527  0.6605
56783SOL    HW282075   6.122   1.071  13.617  2.2215  1.4097 -0.8015
56784SOL     OW82076   1.241  10.756   2.413 -0.0786  0.5889 -0.2413
56784SOL    HW182077   1.147  10.737   2.421 -0.2818  0.7351 -1.9324
56784SOL    HW282078   1.251  10.789   2.324  1.8013 -0.7619 -0.5939
56785SOL     OW82079   0.315  11.389   2.206 -0.0367  0.7963 -0.2870
56785SOL    HW182080   0.263  11.390   2.286 -0.9624 -1.1684 -0.8177
56785SOL    HW282081   0.284  11.465   2.157 -1.8797  0.1226 -0.2419
56786SOL     OW82082  13.329   8.331  10.583  0.0107  0.2707  0.7320
56786SOL    HW182083  13.301   8.253  10.535  0.7493  0.3446  0.1769
56786SOL    HW282084  13.367   8.297  10.664  0.4549  0.0406  0.4303
56787SOL     OW82085  10.165   4.891   2.908  0.5130 -0.0000  0.1676
56787SOL    HW182086  10.260   4.902   2.908  0.6376 -0.9397  0.9607
56787SOL    HW282087  10.145   4.865   2.998 -0.5920  0.9689  0.2215
56788SOL     OW82088  13.131  10.668   6.162 -0.0272 -0.8661  0.0519
56788SOL    HW182089  13.085  10.613   6.099 -2.8800  0.0392  1.2229
56788SOL    HW282090  13.063  10.701   6.221  2.0070  1.2534  1.4102
56789SOL     OW82091   7.489   2.171  13.135 -0.6514  0.4742 -1.0039
56789SOL    HW182092   7.443   2.130  13.062 -1.3684  1.5800 -1.2020
56789SOL    HW282093   7.489   2.265  13.113  0.9218  0.6067 -0.5741
56790SOL     OW82094   2.809   5.501   6.190 -0.1308  0.1650 -0.3267
56790SOL    HW182095   2.728   5.516   6.141 -0.0093 -0.3707 -0.6969
56790SOL    HW282096   2.878   5.530   6.131 -0.0186  0.0875 -0.2335
56791SOL     OW82097   2.154   0.648   3.137 -0.1907 -0.1191  0.1050
56791SOL    HW182098   2.208   0.631   3.060  1.3247 -1.0495  1.3106
56791SOL    HW282099   2.117   0.735   3.122  0.5307 -0.0482 -1.3936
56792SOL     OW82100   1.204   4.578   6.006  0.1957  0.1915  0.0631
56792SOL    HW182101   1.296   4.604   6.004 -0.0262  1.0043 -0.0891
56792SOL    HW282102   1.161   4.649   6.055 -0.5233  0.4035 -0.8588
56793SOL     OW82103   3.225   0.210   7.950 -0.0412 -0.0857  0.6044
56793SOL    HW182104   3.184   0.173   8.027 -0.0026  0.9735  1.1599
56793SOL    HW282105   3.193   0.157   7.877 -1.2218 -0.1951  1.1808
56794SOL     OW82106  13.107   4.317   9.398 -1.0396  0.2301  0.4403
56794SOL    HW182107  13.154   4.379   9.343 -1.5603  1.2082  1.0534
56794SOL    HW282108  13.153   4.234   9.386 -0.8612  0.5215 -1.0789
56795SOL     OW82109   8.842   6.690   6.403  0.0939 -0.4356  0.5233
56795SOL    HW182110   8.812   6.602   6.422 -0.5281 -0.6918 -1.3752
56795SOL    HW282111   8.843   6.695   6.307 -1.4345  2.0969  0.5299
56796SOL     OW82112  10.653   9.908  12.178 -0.0401 -0.5395 -0.4161
56796SOL    HW182113  10.602   9.900  12.097  0.0569  1.0694 -0.6691
56796SOL    HW282114  10.711   9.832  12.178 -0.1719 -0.6573 -1.7658
56797SOL     OW82115   2.541  13.380   7.880  0.2468 -0.2543  0.5293
56797SOL    HW182116   2.449  13.397   7.859  0.6939 -0.2175 -1.5790
56797SOL    HW282117   2.586  13.462   7.861  0.8517 -0.5493  0.6686
56798SOL     OW82118   8.727   4.703   1.245 -0.1094 -0.3750 -0.1076
56798SOL    HW182119   8.757   4.769   1.307  1.2210 -0.1579 -0.9304
56798SOL    HW282120   8.751   4.738   1.159 -0.2926 -1.4747 -0.6244
56799SOL     OW82121   0.111   6.050   9.036  0.1596  0.5115  0.0557
56799SOL    HW182122   0.069   6.133   9.062  1.9308  1.6077 -0.4333
56799SOL    HW282123   0.089   6.041   8.943 -1.1722 -0.3270  0.4132
56800SOL     OW82124  12.629  13.566   4.063 -0.2718  0.2297  0.2714
56800SOL    HW182125  12.688  13.611   4.003  0.3604 -0.0602  0.6706
56800SOL    HW282126  12.626  13.476   4.032  0.8231 -0.1566  1.2316
56801SOL     OW82127   4.951   2.377   8.495 -0.2258 -0.5413 -0.2164
56801SOL    HW182128   4.975   2.364   8.586 -0.5050  0.4633  0.0099
56801SOL    HW282129   4.945   2.472   8.485 -1.1513 -0.6753 -1.0320
56802SOL     OW82130   1.827  11.367  10.667  0.1085 -0.1223  0.2552
56802SOL    HW182131   1.863  11.445  10.710 -0.2754 -0.8904  2.0822
56802SOL    HW282132   1.745  11.398  10.628  1.5464  1.1187 -2.0325
56803SOL     OW82133   6.309  13.488   1.100  0.0987  0.1694  0.3455
56803SOL    HW182134   6.303  13.472   1.194  0.7212 -2.1370  0.0455
56803SOL    HW282135   6.284  13.405   1.059  2.3533  0.2444 -1.4488
56804SOL     OW82136   1.327   8.535  11.660 -0.1685 -0.0383  0.4146
56804SOL    HW182137   1.246   8.483  11.658  0.2354 -0.6721 -1.0081
56804SOL    HW282138   1.307   8.614  11.610  0.4589 -0.8596 -1.2428
56805SOL     OW82139   6.784   7.031   5.363 -0.5386  0.3049 -0.1256
56805SOL    HW182140   6.877   7.008   5.372 -1.3132 -3.0284  1.0614
56805SOL    HW282141   6.775   7.113   5.411  1.6577  0.3404  0.3539
56806SOL     OW82142  12.587   3.535   0.763 -0.1743 -0.1014  0.2493
56806SOL    HW182143  12.598   3.603   0.697  1.0748  0.2229  0.7641
56806SOL    HW282144  12.527   3.472   0.723  0.0985  0.3776 -0.9545
56807SOL     OW82145   6.881   6.298  10.612 -0.3903 -0.2172  0.5228
56807SOL    HW182146   6.920   6.385  10.604 -0.5776 -0.3080 -2.5540
56807SOL    HW282147   6.953   6.237  10.598 -0.6998 -0.4808  0.0367
56808SOL     OW82148   6.106   8.046   4.560 -0.1614  0.3509 -0.3699
56808SOL    HW182149   6.148   8.106   4.622 -0.3422  0.1936 -0.0918
56808SOL    HW282150   6.016   8.037   4.593 -0.2443  0.2249 -0.6273
56809SOL     OW82151   1.101   9.269   8.159 -0.1262 -0.1562 -0.1787
56809SOL    HW182152   1.037   9.339   8.174  2.4555  1.9735  1.9576
56809SOL    HW282153   1.050   9.188   8.165 -2.5571  1.3890  2.0461
56810SOL     OW82154   0.910   7.914   8.393  0.3071 -0.3155 -0.3317
56810SOL    HW182155   0.904   8.001   8.431 -0.8387 -0.0779 -1.0276
56810SOL    HW282156   0.978   7.870   8.445 -0.7403  0.1987  1.5495
56811SOL     OW82157   3.362   5.316   7.495  0.6648 -0.2035  0.5472
56811SOL    HW182158   3.370   5.318   7.400  1.0744 -0.4692  0.5740
56811SOL    HW282159   3.329   5.228   7.514 -0.9877  0.3824  0.5448
56812SOL     OW82160   0.025   7.510   1.884 -0.0241 -0.6140 -0.4969
56812SOL    HW182161   0.093   7.535   1.947 -0.6524  0.8690 -0.3647
56812SOL    HW282162  -0.001   7.422   1.910  0.8182 -0.6299  0.3510
56813SOL     OW82163   8.116   2.489   4.202  0.2636  0.1516  0.2381
56813SOL    HW182164   8.175   2.556   4.234  0.2175  1.2691 -1.8544
56813SOL    HW282165   8.171   2.428   4.154 -0.1171  0.6319 -0.8393
56814SOL     OW82166   5.083   0.369  12.418 -0.2556  0.2591  0.1371
56814SOL    HW182167   5.176   0.376  12.441 -0.1175  1.9562 -0.7937
56814SOL    HW282168   5.064   0.276  12.426  2.6582 -0.9249 -3.6771
56815SOL     OW82169   8.257   8.521   2.649  0.2988 -0.9806  0.6482
56815SOL    HW182170   8.210   8.532   2.732 -0.6790  1.3800 -0.1340
56815SOL    HW282171   8.338   8.572   2.660 -0.1266 -0.1307 -0.0279
56816SOL     OW82172   3.217   0.487   1.506 -0.7746 -0.0619 -0.2933
56816SOL    HW182173   3.139   0.482   1.561  0.4197 -3.0448  1.4242
56816SOL    HW282174   3.268   0.559   1.542 -2.5534  1.8120 -1.3345
56817SOL     OW82175   8.410  11.994   9.905  0.2154 -0.1563 -0.4957
56817SOL    HW182176   8.351  12.066   9.926  1.2090  0.6500 -0.4030
56817SOL    HW282177   8.371  11.952   9.828 -0.5390  0.2693 -0.3582
56818SOL     OW82178   4.062  10.533   3.737 -0.9811  0.2190  0.7513
56818SOL    HW182179   3.968  10.549   3.728 -1.3356 -1.4519  1.1670
56818SOL    HW282180   4.077  10.530   3.832 -0.6482 -0.2301  0.6893
56819SOL     OW82181   0.772   0.911   2.363  0.2863 -0.2184  0.2235
56819SOL    HW182182   0.845   0.854   2.337 -2.6318 -5.1612  1.5238
56819SOL    HW282183   0.785   0.925   2.457 -1.2665 -2.9247  0.9464
56820SOL     OW82184   7.510   5.025  13.558 -0.0574  0.4584  0.6040
56820SOL    HW182185   7.519   4.985  13.644  2.5059  1.5613  0.9177
56820SOL    HW282186   7.487   4.952  13.500 -0.0562 -0.6130  1.9060
56821SOL     OW82187   5.631   2.920  13.028 -0.0731  0.1816 -0.1128
56821SOL    HW182188   5.709   2.900  13.081 -0.4447 -0.4507  0.2089
56821SOL    HW282189   5.646   3.009  12.997  0.7757  0.0758 -0.0444
56822SOL     OW82190  12.710   0.118  10.298  0.1248 -0.1172  0.2133
56822SOL    HW182191  12.625   0.074  10.302  0.0867  0.0282  1.7495
56822SOL    HW282192  12.719   0.160  10.384  0.9000  1.4880 -0.5980
56823SOL     OW82193   9.472   2.751   8.518  0.1777 -0.2169 -0.2681
56823SOL    HW182194   9.476   2.672   8.571 -0.8412 -0.0231  0.1328
56823SOL    HW282195   9.558   2.756   8.475 -0.0926 -2.0929 -1.1352
56824SOL     OW82196   5.342   2.921   9.731  0.2069  0.0139  0.5952
56824SOL    HW182197   5.429   2.884   9.748 -0.8364 -2.6156  0.5981
56824SOL    HW282198   5.296   2.912   9.815 -0.3670  0.5345  0.3382
56825SOL     OW82199   6.201   3.502   9.965 -0.1614 -0.4015  0.1205
56825SOL    HW182200   6.131   3.477   9.905  0.6294  0.4042 -1.1841
56825SOL    HW282201   6.196   3.597   9.969  0.2540 -0.4023  0.7703
56826SOL     OW82202  11.120  10.827   5.446  0.4327  0.1114  0.0339
56826SOL    HW182203  11.215  10.838   5.443  0.3486  1.0599  0.4059
56826SOL    HW282204  11.089  10.899   5.502 -0.4521 -0.5326  0.4049
56827SOL     OW82205   0.348   6.502   1.819  0.1062 -0.3002  0.2381
56827SOL    HW182206   0.274   6.511   1.880  0.1005 -0.0768  0.1979
56827SOL    HW282207   0.411   6.448   1.867  0.2582  0.1844  0.5915
56828SOL     OW82208   5.862  13.523   1.781 -0.1765  0.3803  0.2848
56828SOL    HW182209   5.867  13.510   1.687 -1.3622  1.3225  0.0650
56828SOL    HW282210   5.892  13.441   1.819  0.4336  0.0375 -0.9068
56829SOL     OW82211  12.658   9.870   5.955  0.0367 -0.3595 -0.2305
56829SOL    HW182212  12.746   9.906   5.944  0.3707 -0.8317  0.7091
56829SOL    HW282213  12.627   9.853   5.866  0.7286  0.2011 -0.5863
56830SOL     OW82214   2.011   5.291   1.852 -0.2818  0.0500 -0.0403
56830SOL    HW182215   2.090   5.334   1.817 -0.8548  1.9358  0.8133
56830SOL    HW282216   1.995   5.218   1.792  1.4626  0.2888 -0.8817
56831SOL     OW82217  13.254   1.469  13.735  0.5580  0.1036 -0.5900
56831SOL    HW182218  13.268   1.427  13.819 -0.8087 -0.0610 -0.4148
56831SOL    HW282219  13.338   1.462  13.690  0.8061 -1.4413  0.0381
56832SOL     OW82220   8.955   3.332   1.238 -0.4205  0.4694 -0.3231
56832SOL    HW182221   8.995   3.327   1.151 -0.5278  1.5015 -0.4482
56832SOL    HW282222   8.967   3.423   1.264 -1.6215  0.5051  0.1531
56833SOL     OW82223   0.824   7.068   8.847 -0.3587 -0.3333 -0.5533
56833SOL    HW182224   0.843   6.979   8.818  1.2270  0.1931 -1.1949
56833SOL    HW282225   0.882   7.083   8.921 -1.8706 -0.4125  0.7097
56834SOL     OW82226  13.270  13.564   0.241  0.2466 -0.6137  0.4119
56834SOL    HW182227  13.253  13.656   0.223  0.5193 -0.4782  0.8590
56834SOL    HW282228  13.339  13.540   0.179  1.6626  0.0276  1.6819
56835SOL     OW82229   0.279  13.345   5.540  0.4378  0.2090 -0.0502
56835SOL    HW182230   0.269  13.250   5.548 -0.7882  0.3485  0.3896
56835SOL    HW282231   0.365  13.358   5.501  0.9967 -1.0545  0.7268
56836SOL     OW82232   1.785   2.215  11.878  0.0706  0.4979 -0.3553
56836SOL    HW182233   1.738   2.296  11.898 -2.1799 -0.5274 -1.1951
56836SOL    HW282234   1.792   2.215  11.783  1.4186  0.3893 -0.2743
56837SOL     OW82235  10.388   2.286   4.685 -0.5465  0.3393  0.0307
56837SOL    HW182236  10.386   2.361   4.625 -1.6349 -0.8232 -1.4838
56837SOL    HW282237  10.427   2.215   4.634 -2.3606 -0.9468  0.3259
56838SOL     OW82238   7.239   8.842   6.731 -0.2333 -0.8320  0.4198
56838SOL    HW182239   7.320   8.796   6.711 -1.1604 -2.4881  0.2704
56838SOL    HW282240   7.252   8.930   6.696  1.7700 -0.8146  1.0950
56839SOL     OW82241   8.880  12.369  11.131  0.2365  0.2853 -0.5487
56839SOL    HW182242   8.833  12.437  11.181  1.2004  0.7070 -0.1844
56839SOL    HW282243   8.910  12.414  11.053 -0.8690 -0.2606 -1.3147
56840SOL     OW82244  13.210   4.382   6.853  0.6219 -0.7512 -0.0851
56840SOL    HW182245  13.212   4.361   6.759 -1.5050 -0.0096 -0.3468
56840SOL    HW282246  13.203   4.298   6.897  0.1746 -1.0292 -0.6774
56841SOL     OW82247   1.015   2.989  13.161  0.0211 -0.3324  0.0109
56841SOL    HW182248   0.937   2.961  13.207  0.6152 -0.3650  1.0143
56841SOL    HW282249   0.985   3.062  13.106 -0.8313 -0.7458 -0.0892
56842SOL     OW82250   9.795  12.337   9.771 -0.2000  0.4867 -0.5032
56842SOL    HW182251   9.835  12.250   9.759  0.4256  0.2082  2.7200
56842SOL    HW282252   9.702  12.324   9.753  0.2270 -0.2114 -2.4753
56843SOL     OW82253   1.465   2.005  11.617 -0.3045  0.3325 -0.1462
56843SOL    HW182254   1.495   1.944  11.684  1.1649 -0.2367 -1.2414
56843SOL    HW282255   1.408   1.953  11.561 -0.6293  0.5029  0.0243
56844SOL     OW82256   7.280   8.501   4.105  0.0507 -0.1406 -0.1680
56844SOL    HW182257   7.203   8.534   4.150 -0.7333 -1.4870 -0.4653
56844SOL    HW282258   7.335   8.464   4.175 -0.2831 -0.5257 -0.1040
56845SOL     OW82259   8.683  10.590   7.717  0.0995  0.3040 -0.4665
56845SOL    HW182260   8.607  10.533   7.717  0.2833  0.0579 -1.0524
56845SOL    HW282261   8.749  10.543   7.769  0.2415 -0.0102 -0.9246
56846SOL     OW82262   9.609   3.647  11.120  0.4294  0.0791  0.0960
56846SOL    HW182263   9.690   3.598  11.135  0.8455  0.9467  0.7640
56846SOL    HW282264   9.576   3.614  11.036  1.1878 -0.6625  0.0774
56847SOL     OW82265   6.095   7.857   0.665 -0.3976  0.7770  0.3041
56847SOL    HW182266   6.016   7.851   0.718 -1.1505 -0.4383 -0.8764
56847SOL    HW282267   6.091   7.944   0.625 -2.1776  0.0834 -1.1992
56848SOL     OW82268   9.096   1.920   2.583  0.1409  0.6074  0.6465
56848SOL    HW182269   9.066   1.966   2.504 -0.4465 -0.2314  0.3703
56848SOL    HW282270   9.042   1.841   2.586 -0.3347  0.9649  2.2814
56849SOL     OW82271   0.005  11.598   2.547  0.8353 -0.1990 -0.2040
56849SOL    HW182272  -0.014  11.670   2.488 -1.2971  0.7614  1.5349
56849SOL    HW282273   0.078  11.629   2.601  0.3448  0.4030  0.1120
56850SOL     OW82274   4.966  10.475   7.667  0.2881 -0.4757 -0.0236
56850SOL    HW182275   4.884  10.516   7.693  0.9046  1.3226 -0.7354
56850SOL    HW282276   4.969  10.393   7.716 -0.5957  0.7280  2.1727
56851SOL     OW82277   4.433  10.986   8.879 -0.3872 -0.3540  0.4267
56851SOL    HW182278   4.444  10.921   8.949  1.3672  1.5594  2.0788
56851SOL    HW282279   4.399  11.063   8.924 -2.8958 -0.1736 -1.5554
56852SOL     OW82280   4.324   4.192   1.871  0.0151 -0.2387  0.1768
56852SOL    HW182281   4.415   4.161   1.871  0.4512  0.9529  1.3119
56852SOL    HW282282   4.271   4.112   1.869  1.0957 -1.0037  0.9930
56853SOL     OW82283   0.054  10.329   1.696  0.9277 -0.5688 -0.4604
56853SOL    HW182284   0.086  10.287   1.616 -2.1915  0.8161 -2.6187
56853SOL    HW282285  -0.008  10.266   1.733  1.5831 -0.7601  0.3595
56854SOL     OW82286   3.366  11.653   1.967 -0.4368 -0.2343 -0.1878
56854SOL    HW182287   3.337  11.660   1.876 -2.5148 -1.5014  0.2999
56854SOL    HW282288   3.304  11.707   2.017 -0.6749 -1.2659  0.6832
56855SOL     OW82289   8.514   3.701   9.220 -0.1262 -0.0764  0.2463
56855SOL    HW182290   8.420   3.702   9.237  0.0500 -0.8744  1.3537
56855SOL    HW282291   8.529   3.616   9.179  0.0687  0.1884 -0.2372
56856SOL     OW82292   9.539   3.579  10.866  0.3355 -0.1537  0.6535
56856SOL    HW182293   9.547   3.484  10.862  0.5506 -0.1380  0.6890
56856SOL    HW282294   9.579   3.610  10.784  2.9060  0.0580  1.8886
56857SOL     OW82295  13.692   5.031  11.449  0.1557  0.2854  0.1865
56857SOL    HW182296  13.708   4.996  11.362  1.5398  0.0519  0.5151
56857SOL    HW282297  13.767   5.089  11.466 -0.5457  1.0280  0.8665
56858SOL     OW82298   8.541   4.174   3.351  1.0461 -0.0881  0.0802
56858SOL    HW182299   8.462   4.135   3.387  1.6310 -0.8601  0.5590
56858SOL    HW282300   8.515   4.263   3.326  0.2640 -0.0316  1.0556
56859SOL     OW82301   5.624  10.430   7.415 -0.2132  0.2801  0.4308
56859SOL    HW182302   5.699  10.490   7.415 -1.1788  1.5423  0.2745
56859SOL    HW282303   5.579  10.448   7.333 -0.4119 -0.8380  0.2834
56860SOL     OW82304   8.418  12.187   9.248  0.0562  0.0151 -0.1920
56860SOL    HW182305   8.400  12.158   9.338 -1.1519  0.4481 -0.2752
56860SOL    HW282306   8.427  12.282   9.255 -1.0369  0.1686 -0.6584
56861SOL     OW82307  11.222   8.886   0.342 -0.1021  0.5367 -0.2686
56861SOL    HW182308  11.259   8.846   0.421  1.1477 -0.9112 -1.5149
56861SOL    HW282309  11.278   8.962   0.325 -0.0942  0.5845 -0.0359
56862SOL     OW82310  10.029   1.744  11.790  0.0309 -0.3941 -0.6558
56862SOL    HW182311   9.976   1.718  11.865  0.5995  0.9676  0.2547
56862SOL    HW282312  10.119   1.720  11.814  0.3197  0.7408 -0.5499
56863SOL     OW82313   3.476   0.202  11.589 -0.1346 -0.0316  0.1125
56863SOL    HW182314   3.387   0.221  11.562 -0.6485  0.7644  2.1825
56863SOL    HW282315   3.529   0.272  11.550 -0.3414 -0.6170 -1.2794
56864SOL     OW82316   2.874  10.929   9.707  0.5432 -0.4237 -0.2400
56864SOL    HW182317   2.817  10.993   9.665 -1.5839 -1.9613  0.1764
56864SOL    HW282318   2.942  10.911   9.642  0.3798  1.1532 -0.8961
56865SOL     OW82319   7.915  12.102   5.080  0.3567  0.1216  0.5918
56865SOL    HW182320   7.839  12.159   5.097  0.7002  0.7014  0.2115
56865SOL    HW282321   7.891  12.019   5.121 -1.4956 -0.4624 -1.5053
56866SOL     OW82322   2.569   2.810   8.408  0.8082  0.2373  0.3639
56866SOL    HW182323   2.636   2.869   8.372  0.7457  1.5539  2.2605
56866SOL    HW282324   2.619   2.734   8.438  1.1353  0.1476 -0.3708
56867SOL     OW82325   4.092  10.700  11.787 -0.2873  0.2910 -0.3341
56867SOL    HW182326   4.137  10.784  11.785  0.0015  0.1313 -0.8445
56867SOL    HW282327   4.159  10.636  11.761  0.0333 -0.3674  1.9292
56868SOL     OW82328   1.554   3.068  12.191 -0.2794  0.0978 -0.0268
56868SOL    HW182329   1.551   3.021  12.274  1.2149 -0.6285 -0.3611
56868SOL    HW282330   1.636   3.041  12.151 -0.8029  0.7248 -1.5816
56869SOL     OW82331   0.804   4.754   1.383 -0.5909  0.3839  0.1039
56869SOL    HW182332   0.889   4.711   1.388 -0.2060  1.1738  0.5695
56869SOL    HW282333   0.783   4.755   1.289 -0.1511  0.0680 -0.0012
56870SOL     OW82334   9.940   5.048  12.016  0.1173  0.3964  0.3050
56870SOL    HW182335   9.982   5.019  12.097  1.7068  2.4636  0.3133
56870SOL    HW282336  10.013   5.072  11.959 -1.0231  1.0801 -0.9091
56871SOL     OW82337   9.504   7.182   8.059 -0.2883 -0.3974  0.4936
56871SOL    HW182338   9.561   7.207   7.985 -0.3794 -0.0916  0.5267
56871SOL    HW282339   9.461   7.102   8.029 -0.7985  0.0639 -0.0394
56872SOL     OW82340  10.140   7.698   1.776 -0.6450 -0.5001  0.1171
56872SOL    HW182341  10.177   7.639   1.841 -0.0506 -0.2450  0.0111
56872SOL    HW282342  10.055   7.723   1.812  1.1389  2.5799  2.6410
56873SOL     OW82343   8.562   5.083   9.290  0.0484 -0.2570  0.2614
56873SOL    HW182344   8.516   5.025   9.351 -2.4925  0.2910 -1.0337
56873SOL    HW282345   8.577   5.030   9.212 -1.7213  0.5602 -0.6889
56874SOL     OW82346  13.665   5.900   7.908  0.0196  0.4844  0.4295
56874SOL    HW182347  13.614   5.936   7.981  0.4885  0.5561  0.7223
56874SOL    HW282348  13.659   5.805   7.920  0.3330  0.5017  0.7251
56875SOL     OW82349   0.861   9.632  10.233  0.2269  0.5680 -0.6508
56875SOL    HW182350   0.948   9.633  10.193 -0.0998 -1.0660 -1.5068
56875SOL    HW282351   0.872   9.579  10.312  0.2511  1.4270 -0.0554
56876SOL     OW82352   7.094   7.599  13.449  0.0093  0.0638  0.6767
56876SOL    HW182353   7.081   7.614  13.356  1.0913  1.8646  0.7837
56876SOL    HW282354   7.042   7.667  13.492  0.9748  0.3933  1.3420
56877SOL     OW82355  12.692   2.954   3.630  0.1030 -0.0989 -0.2174
56877SOL    HW182356  12.661   3.038   3.597 -0.7083  0.3056  1.4941
56877SOL    HW282357  12.779   2.973   3.667 -0.7106  0.3759  1.5633
56878SOL     OW82358   5.529   0.234   9.555 -0.1676 -0.1043  0.2361
56878SOL    HW182359   5.570   0.148   9.550  0.6537  0.2512  0.6901
56878SOL    HW282360   5.602   0.296   9.558 -0.7278  0.5549  0.7971
56879SOL     OW82361   5.235   8.471  11.882  0.0998  0.7966  0.2335
56879SOL    HW182362   5.311   8.497  11.933  1.4196 -2.0313 -0.1241
56879SOL    HW282363   5.271   8.426  11.805 -1.9065 -0.1860 -0.2218
56880SOL     OW82364  10.844   5.208   8.218 -0.5240 -0.2031 -1.0071
56880SOL    HW182365  10.863   5.180   8.308  1.7734  1.0554 -1.0113
56880SOL    HW282366  10.798   5.134   8.179 -0.1260 -1.4409  0.7352
56881SOL     OW82367   2.675   4.028   6.830  0.1718 -0.1942 -0.1313
56881SOL    HW182368   2.717   3.986   6.755  0.0921 -1.0905  0.3097
56881SOL    HW282369   2.747   4.047   6.891  0.1292 -0.2772 -0.0551
56882SOL     OW82370   7.147   5.112   7.073  0.2930 -0.1583  0.3971
56882SOL    HW182371   7.136   5.022   7.102  0.3080 -0.8369 -1.5664
56882SOL    HW282372   7.103   5.116   6.988  0.6015  1.5929  0.2742
56883SOL     OW82373  10.644  13.526   3.586  0.2643  0.2061 -0.1904
56883SOL    HW182374  10.599  13.453   3.629  0.6388 -0.5215 -1.0028
56883SOL    HW282375  10.598  13.537   3.503  2.2250 -1.2935 -1.5547
56884SOL     OW82376   3.309   4.863   1.598  0.0620  0.6715  0.6186
56884SOL    HW182377   3.253   4.850   1.674 -0.9099  2.0149  0.1656
56884SOL    HW282378   3.319   4.775   1.561 -1.3031  0.3174  1.0363
56885SOL     OW82379   2.549   3.461   6.272 -0.1976  0.2578  0.1034
56885SOL    HW182380   2.570   3.449   6.180 -0.5432  0.5070 -0.0057
56885SOL    HW282381   2.568   3.553   6.290  1.3113 -0.1229  0.6550
56886SOL     OW82382   4.847  12.247   7.135  0.7007  0.0037 -0.2019
56886SOL    HW182383   4.868  12.206   7.219 -0.4690 -1.2787 -0.5003
56886SOL    HW282384   4.766  12.296   7.153 -0.1624 -1.1578 -0.8092
56887SOL     OW82385   2.796   8.707   8.771 -0.7903  0.7971  0.1644
56887SOL    HW182386   2.768   8.790   8.811 -0.2824  0.8855  0.3482
56887SOL    HW282387   2.867   8.732   8.713 -1.0694  0.5707 -0.2751
56888SOL     OW82388   3.775   4.392   5.509 -0.2630  0.1941  0.1606
56888SOL    HW182389   3.722   4.424   5.435  0.1929 -0.2916 -0.3824
56888SOL    HW282390   3.864   4.388   5.476 -0.1472 -0.6515  0.5273
56889SOL     OW82391   8.630  11.980   0.779  0.3307 -0.2980  0.2838
56889SOL    HW182392   8.634  11.997   0.873  1.1417 -2.0563  0.6078
56889SOL    HW282393   8.661  12.061   0.738  1.7308 -0.1326  1.6006
56890SOL     OW82394   4.548   2.374   8.116 -0.3349 -0.2923 -0.6727
56890SOL    HW182395   4.461   2.334   8.120 -0.7405  0.5676 -0.8755
56890SOL    HW282396   4.599   2.314   8.061 -0.9675 -0.4771 -1.0665
56891SOL     OW82397  13.273   9.100   6.754 -0.5253 -0.0865  0.0959
56891SOL    HW182398  13.349   9.146   6.719 -1.2299  1.2259  0.2670
56891SOL    HW282399  13.303   9.009   6.763  0.4925  0.0580 -1.4246
56892SOL     OW82400   5.379   0.525   5.394 -0.2364 -0.2700  0.0544
56892SOL    HW182401   5.406   0.461   5.459  0.3836  0.3307  0.4038
56892SOL    HW282402   5.322   0.585   5.443  0.7590  0.5652  0.2301
56893SOL     OW82403  12.645   4.073  12.344 -0.5234 -0.0084 -0.0384
56893SOL    HW182404  12.636   3.991  12.296 -0.6637  0.1302 -0.2480
56893SOL    HW282405  12.642   4.142  12.277  1.3494  0.1027 -0.0676
56894SOL     OW82406  13.423   7.686   6.882  0.4129  0.6985 -0.2078
56894SOL    HW182407  13.389   7.642   6.804  1.7805 -1.5724  0.3964
56894SOL    HW282408  13.464   7.766   6.848 -1.4858  1.2515 -1.4272
56895SOL     OW82409   9.471   1.766   9.524 -0.3295  0.0632 -0.4184
56895SOL    HW182410   9.511   1.852   9.530 -2.1134  1.2033 -2.8755
56895SOL    HW282411   9.416   1.759   9.602  0.6887  0.6412  0.3672
56896SOL     OW82412   3.167  13.392   2.693  0.2118  0.6894 -0.2317
56896SOL    HW182413   3.106  13.326   2.660 -1.6108  1.1130  2.0291
56896SOL    HW282414   3.157  13.467   2.634  0.4128 -0.1183 -1.3192
56897SOL     OW82415   6.860   8.911   3.594 -0.0167  0.0046  0.6728
56897SOL    HW182416   6.931   8.901   3.530 -3.7949 -1.1926 -3.9991
56897SOL    HW282417   6.849   8.823   3.631 -1.7419 -1.1328 -2.1946
56898SOL     OW82418  12.519   3.800   6.254  0.3440  0.2024 -0.2833
56898SOL    HW182419  12.428   3.826   6.266  0.4949  0.9319 -0.6259
56898SOL    HW282420  12.535   3.814   6.160  0.8790  0.3331 -0.1759
56899SOL     OW82421   0.997  10.781   0.833  0.2028 -0.0266  0.1526
56899SOL    HW182422   1.047  10.830   0.767 -0.8255  0.0620 -0.5946
56899SOL    HW282423   0.934  10.731   0.781 -0.0956 -0.5818  1.0412
56900SOL     OW82424   8.760   5.940   4.233  0.4487 -0.4459 -0.5845
56900SOL    HW182425   8.746   6.030   4.202 -1.7978 -1.1621 -1.8406
56900SOL    HW282426   8.738   5.885   4.159 -1.0812 -2.1125  1.0022
56901SOL     OW82427   3.695  13.731  12.051  0.1764 -0.8653 -0.1851
56901SOL    HW182428   3.641  13.660  12.018  0.2027 -2.0576  2.0957
56901SOL    HW282429   3.645  13.767  12.124  0.2726  1.3581 -1.1269
56902SOL     OW82430  12.308  12.989  11.817 -0.0393 -0.2842 -0.0481
56902SOL    HW182431  12.293  13.038  11.736  0.1690 -0.0126  0.0760
56902SOL    HW282432  12.256  12.909  11.806  0.9375 -0.8320 -0.9852
56903SOL     OW82433   3.973   1.721   1.370  0.1311  0.2803  0.0679
56903SOL    HW182434   3.906   1.737   1.436  1.2119 -0.0612  1.2847
56903SOL    HW282435   3.941   1.646   1.320 -0.9089  0.8250 -0.1241
56904SOL     OW82436   3.795  13.648   3.477  0.3607  0.3532  0.1412
56904SOL    HW182437   3.714  13.670   3.432  1.2346 -3.8265 -4.3354
56904SOL    HW282438   3.859  13.710   3.442  0.0597  0.3153 -0.4920
56905SOL     OW82439   8.069   3.103   0.483  0.4626 -0.0185  0.2580
56905SOL    HW182440   8.049   3.022   0.434  2.0259  0.6315 -1.5712
56905SOL    HW282441   7.987   3.124   0.528  0.2772 -3.1348  1.6334
56906SOL     OW82442   8.772  12.567  11.271 -0.2287 -0.1513 -0.0612
56906SOL    HW182443   8.819  12.581  11.353 -1.8551 -0.2007  0.9141
56906SOL    HW282444   8.766  12.654  11.232  0.3405 -0.0935 -0.0367
56907SOL     OW82445   7.634   1.177   7.389  0.0495 -0.0127 -0.2647
56907SOL    HW182446   7.555   1.162   7.338 -0.6653  0.8383  0.5571
56907SOL    HW282447   7.677   1.251   7.347 -0.1546  0.2166 -0.0691
56908SOL     OW82448  13.211   6.522   7.898 -0.0175  0.0068  0.4781
56908SOL    HW182449  13.286   6.577   7.923 -0.2870  1.5846 -1.8862
56908SOL    HW282450  13.135   6.569   7.933  0.0120 -1.8619  3.3337
56909SOL     OW82451   4.557   0.844   2.617 -0.0452  0.6458 -0.3468
56909SOL    HW182452   4.522   0.930   2.640 -0.8136  0.0661  0.7335
56909SOL    HW282453   4.598   0.812   2.697 -0.6225 -0.3907 -0.4448
56910SOL     OW82454   7.641   0.277  11.905  0.1483 -0.4521 -0.4197
56910SOL    HW182455   7.704   0.261  11.835 -0.3777  1.1164 -1.2907
56910SOL    HW282456   7.557   0.287  11.860 -0.6573 -1.8605  0.6643
56911SOL     OW82457  12.802   4.046  12.589  0.9451 -0.4070 -0.4220
56911SOL    HW182458  12.756   4.017  12.510 -1.9219  0.5485  0.7683
56911SOL    HW282459  12.794   3.972  12.649  0.8058 -0.1680 -0.1459
56912SOL     OW82460   2.275   1.993  11.659  0.4631 -0.1771 -0.1761
56912SOL    HW182461   2.189   1.972  11.695 -0.2754  0.5353 -1.4205
56912SOL    HW282462   2.280   1.944  11.577  1.5814 -0.7969  0.2287
56913SOL     OW82463   8.338   3.938   9.421  0.7637 -0.0327  0.2635
56913SOL    HW182464   8.252   3.951   9.461  0.7659 -0.2155  0.3267
56913SOL    HW282465   8.326   3.965   9.330 -0.1191 -2.7170 -0.4809
56914SOL     OW82466   6.164   0.315   0.447 -0.5370  0.1886  0.0909
56914SOL    HW182467   6.220   0.308   0.525  1.6057  2.1404 -1.1594
56914SOL    HW282468   6.076   0.297   0.479  0.3665  0.1579  2.8036
56915SOL     OW82469   1.864   9.377   0.456 -0.6414  0.1876  0.0992
56915SOL    HW182470   1.949   9.420   0.460 -1.0352  1.6288 -3.4582
56915SOL    HW282471   1.825   9.408   0.374 -4.3800 -0.8435  1.2706
56916SOL     OW82472   2.362   7.143   5.200  0.5956  0.0323 -0.3520
56916SOL    HW182473   2.399   7.232   5.196  0.2755  0.3583  2.4218
56916SOL    HW282474   2.269   7.156   5.182  0.6736  0.1428 -0.6931
56917SOL     OW82475   8.492   9.451   4.358  0.0201 -1.0256 -0.0236
56917SOL    HW182476   8.466   9.406   4.438 -0.3249 -0.6826  0.0595
56917SOL    HW282477   8.533   9.383   4.304  2.6830 -0.7581  1.4897
56918SOL     OW82478   2.345   6.204  10.774 -0.1468  0.1071  0.1735
56918SOL    HW182479   2.432   6.181  10.742 -0.4539 -2.0852  0.7439
56918SOL    HW282480   2.286   6.178  10.703 -0.4139  0.3886  0.2917
56919SOL     OW82481   9.750  12.327   8.139  0.2979 -0.1266 -0.4320
56919SOL    HW182482   9.843  12.343   8.124  0.6144 -1.9451 -0.6830
56919SOL    HW282483   9.745  12.295   8.229 -0.3250  1.4681  0.1337
56920SOL     OW82484   6.548   4.908   1.834  0.2236 -0.1453  0.4489
56920SOL    HW182485   6.559   4.937   1.744 -0.5492 -2.7633 -0.5841
56920SOL    HW282486   6.635   4.918   1.874  0.4022  1.7243 -0.3145
56921SOL     OW82487   8.114  13.121  10.528 -0.5276  0.0142  0.2473
56921SOL    HW182488   8.199  13.133  10.572  0.3320 -1.8896 -0.7297
56921SOL    HW282489   8.067  13.203  10.543  1.1883  0.8509  1.4613
56922SOL     OW82490   0.224  11.885   6.816 -0.1095 -0.0110  0.4655
56922SOL    HW182491   0.276  11.926   6.885 -1.4787 -0.7524  2.0351
56922SOL    HW282492   0.136  11.920   6.830 -0.3156  0.2360 -1.2860
56923SOL     OW82493   5.041  12.731   2.842 -0.3705 -0.2815 -0.0495
56923SOL    HW182494   5.104  12.771   2.902  0.1388 -0.6773 -0.3127
56923SOL    HW282495   4.978  12.688   2.900  0.6022 -1.4123  0.2163
56924SOL     OW82496   1.431  11.230   4.622 -0.5671  0.1199  0.0872
56924SOL    HW182497   1.450  11.141   4.650  2.0899  0.6066  0.1186
56924SOL    HW282498   1.372  11.265   4.689  0.2809 -0.8639  1.3943
56925SOL     OW82499   2.682   8.551   1.648 -0.3022  0.1717  0.0449
56925SOL    HW182500   2.649   8.462   1.635 -0.6308  0.1093  1.1989
56925SOL    HW282501   2.639   8.581   1.728 -3.6181  2.9526 -2.4506
56926SOL     OW82502   6.827   1.365   8.049 -0.0584 -0.5065  0.3859
56926SOL    HW182503   6.906   1.323   8.016 -0.1870 -0.8355  0.4963
56926SOL    HW282504   6.822   1.448   8.000  0.0724 -0.7184  0.0082
56927SOL     OW82505   6.421   7.627   9.894  0.3026  0.4703  0.1963
56927SOL    HW182506   6.340   7.643   9.846  1.7290  4.1692 -1.3289
56927SOL    HW282507   6.400   7.648   9.985 -0.6334  0.5561 -0.0320
56928SOL     OW82508   4.808  13.407  11.603 -0.7623  0.0294  0.1985
56928SOL    HW182509   4.819  13.445  11.516 -1.4042  1.2308  0.6260
56928SOL    HW282510   4.876  13.340  11.609  1.7203  2.3815  0.1185
56929SOL     OW82511   8.882  10.069   3.358 -0.0387  0.7011 -0.2923
56929SOL    HW182512   8.924  10.018   3.427 -1.8716 -1.1653 -0.4757
56929SOL    HW282513   8.954  10.114   3.315  1.5360 -0.7821  0.6474
56930SOL     OW82514   1.802   9.093   9.192  0.3439 -0.5098 -0.3231
56930SOL    HW182515   1.734   9.147   9.151 -0.8113 -0.8193  1.1204
56930SOL    HW282516   1.770   9.078   9.281  1.8656 -1.4639  0.0891
56931SOL     OW82517   7.760   6.966  10.638 -0.3318 -0.0853 -0.2678
56931SOL    HW182518   7.809   6.954  10.719  0.2270  1.4210 -0.3456
56931SOL    HW282519   7.770   7.059  10.618  1.0106 -0.7230 -2.9951
56932SOL     OW82520   2.636  13.547  12.392  0.2278  0.2109 -0.4506
56932SOL    HW182521   2.628  13.548  12.297 -1.1165  1.8952 -0.3790
56932SOL    HW282522   2.597  13.463  12.419  2.9257 -1.4966 -1.4468
56933SOL     OW82523   2.528   1.843   3.826 -0.1396 -0.1774  0.0423
56933SOL    HW182524   2.506   1.826   3.734 -0.0461  2.7104 -0.6284
56933SOL    HW282525   2.591   1.775   3.849  0.6374 -0.3679 -2.3787
56934SOL     OW82526  12.507   0.439   3.336 -0.5530  0.6098 -0.4931
56934SOL    HW182527  12.470   0.527   3.344 -0.7077  0.3724  2.1605
56934SOL    HW282528  12.601   0.452   3.345 -0.6488  0.4438  0.9692
56935SOL     OW82529   0.882   5.633   8.429 -0.0196 -0.4925 -0.6438
56935SOL    HW182530   0.797   5.640   8.386  0.0794  2.2650 -0.6078
56935SOL    HW282531   0.862   5.602   8.518 -0.9652 -0.1393 -0.7281
56936SOL     OW82532   4.345  11.681   2.846  0.1813  0.4387  0.2511
56936SOL    HW182533   4.364  11.756   2.902 -2.6599  1.3810  0.1101
56936SOL    HW282534   4.362  11.712   2.757  0.0268  0.5453  0.2599
56937SOL     OW82535   5.683   9.632   9.375  0.6153 -0.4017 -0.0898
56937SOL    HW182536   5.731   9.709   9.408  0.8323 -0.1321 -1.0159
56937SOL    HW282537   5.610   9.668   9.326 -1.7537 -0.7794  2.8379
56938SOL     OW82538   0.776   6.028   2.743  0.2233 -0.7322 -0.6577
56938SOL    HW182539   0.757   6.027   2.837 -1.5393  1.1525 -0.9399
56938SOL    HW282540   0.692   6.049   2.702  1.7947  3.0950 -2.3442
56939SOL     OW82541   6.650  13.397  13.263  0.2222  0.1894  0.3230
56939SOL    HW182542   6.736  13.414  13.225 -0.8208 -0.5791 -2.6319
56939SOL    HW282543   6.593  13.464  13.224 -1.3161 -1.8842 -1.1595
56940SOL     OW82544   9.788   4.360   8.635  0.1059 -0.1018 -0.3085
56940SOL    HW182545   9.800   4.436   8.578  0.7315 -1.2687 -1.7907
56940SOL    HW282546   9.734   4.300   8.585  0.4701 -1.0716  0.4247
56941SOL     OW82547   7.716  10.287  13.196 -0.1138 -0.0982 -0.2649
56941SOL    HW182548   7.671  10.372  13.196  0.1720  0.0887 -1.7613
56941SOL    HW282549   7.774  10.291  13.120 -0.1441 -1.6643 -0.3973
56942SOL     OW82550   2.688   1.478   3.251 -0.0445 -0.1174 -0.2612
56942SOL    HW182551   2.620   1.540   3.224 -1.5465 -1.3361  0.5759
56942SOL    HW282552   2.695   1.490   3.346  0.4961 -0.4276 -0.2565
56943SOL     OW82553   0.528   1.574   4.281  0.4889  0.6772 -0.2822
56943SOL    HW182554   0.577   1.544   4.204  1.2135 -0.8182  0.7246
56943SOL    HW282555   0.493   1.494   4.320  0.1020  1.4180  0.9451
56944SOL     OW82556   3.037   6.015  10.144 -0.3881  0.2081  0.0685
56944SOL    HW182557   3.001   5.998  10.232 -1.7946 -1.2945 -0.7341
56944SOL    HW282558   2.975   5.973  10.085  1.1640  0.1486 -1.5956
56945SOL     OW82559   6.192  10.238  12.465  0.4625 -0.5797  0.9076
56945SOL    HW182560   6.192  10.326  12.503  0.1333 -0.3620  0.4151
56945SOL    HW282561   6.211  10.252  12.373  2.2282 -1.1807  1.1386
56946SOL     OW82562   9.088  11.998   9.781 -0.2941  0.2719 -0.7460
56946SOL    HW182563   9.092  12.061   9.709  2.1272 -0.8791 -1.7376
56946SOL    HW282564   9.180  11.981   9.803 -0.9286 -0.3377  1.8338
56947SOL     OW82565  11.086   0.261  12.114  0.2129 -0.5992 -0.6320
56947SOL    HW182566  11.051   0.350  12.117  1.0740 -0.1732 -2.2564
56947SOL    HW282567  11.031   0.212  12.175 -2.4968  0.2722 -2.1934
56948SOL     OW82568  11.573   6.903   3.009 -0.1387  0.0794  0.3320
56948SOL    HW182569  11.580   6.862   2.923 -0.6617  0.2507  0.2079
56948SOL    HW282570  11.495   6.865   3.048  0.0380  0.0806  0.6902
56949SOL     OW82571   0.544   3.380   7.360 -0.0380 -0.4093 -0.3928
56949SOL    HW182572   0.637   3.372   7.338 -0.2702  2.7347 -3.2743
56949SOL    HW282573   0.504   3.303   7.319  1.1161 -1.1912 -0.1236
56950SOL     OW82574   9.072  12.188   7.949  0.5137 -0.1217  0.5745
56950SOL    HW182575   9.076  12.134   8.028  0.8828  0.2551  0.8197
56950SOL    HW282576   8.984  12.174   7.914  1.0342 -2.0121 -0.1701
56951SOL     OW82577   3.566  10.188   6.708  0.0439 -0.2714  0.0344
56951SOL    HW182578   3.520  10.119   6.755  0.5847 -0.9638 -0.4377
56951SOL    HW282579   3.502  10.220   6.645 -0.3567 -0.0190  0.5602
56952SOL     OW82580   0.132  10.634   2.401 -0.2736 -0.2587 -0.1243
56952SOL    HW182581   0.083  10.573   2.345 -0.4878  0.8432 -1.1863
56952SOL    HW282582   0.142  10.712   2.347  1.0800  0.1988  0.7539
56953SOL     OW82583  10.451  12.437   0.154  0.4374 -0.3595  0.2319
56953SOL    HW182584  10.480  12.355   0.193  0.2029 -0.2407  0.6687
56953SOL    HW282585  10.359  12.444   0.179  0.3921 -0.0870 -0.0087
56954SOL     OW82586   9.596   7.214   1.782  0.5014 -0.1490 -0.3567
56954SOL    HW182587   9.583   7.256   1.697  1.7506 -0.9184 -0.9605
56954SOL    HW282588   9.623   7.125   1.760  0.9799 -0.3158  0.8483
56955SOL     OW82589  10.951   4.950   4.615  0.1679  0.0173 -0.0197
56955SOL    HW182590  10.960   5.044   4.597  0.4555  0.3150  1.5771
56955SOL    HW282591  10.962   4.942   4.709 -0.3226 -1.5816 -0.0668
56956SOL     OW82592  12.763  10.287   8.404 -0.5237 -0.5154  0.8423
56956SOL    HW182593  12.799  10.376   8.406  1.4650 -1.2719  2.3873
56956SOL    HW282594  12.743  10.272   8.312 -0.9140  1.5049  0.5411
56957SOL     OW82595   4.919  13.267  11.297 -0.5996  0.1261 -0.5325
56957SOL    HW182596   4.836  13.290  11.257  0.2259  1.3728 -1.6007
56957SOL    HW282597   4.949  13.347  11.340 -0.8873 -0.8557  1.6503
56958SOL     OW82598  13.110   9.984   7.525  0.3434  0.0023  0.6840
56958SOL    HW182599  13.115   9.897   7.485  1.0716  0.3769 -0.0907
56958SOL    HW282600  13.062  10.036   7.462  1.3574  0.5618  0.3463
56959SOL     OW82601   9.569   3.512   6.937  0.0753 -0.0954  0.3298
56959SOL    HW182602   9.494   3.507   6.997 -0.6070 -0.6141 -0.5381
56959SOL    HW282603   9.535   3.478   6.855  1.4770 -0.9758  0.1009
56960SOL     OW82604   4.912   6.817   7.179 -0.1582  0.0081  0.1537
56960SOL    HW182605   4.908   6.869   7.259  2.6289 -1.3135  1.3015
56960SOL    HW282606   4.855   6.742   7.196 -2.2813  1.3625 -0.5640
56961SOL     OW82607   7.852   1.567  12.610  0.2448 -0.2362 -0.7227
56961SOL    HW182608   7.925   1.626  12.592  0.2760 -0.1807 -0.4289
56961SOL    HW282609   7.887   1.480  12.594  1.3502 -0.4681  2.3226
56962SOL     OW82610   1.267   2.591   7.822 -0.4116 -0.0729 -0.9016
56962SOL    HW182611   1.312   2.648   7.759 -1.3045 -0.3599 -1.8335
56962SOL    HW282612   1.279   2.634   7.906  0.7806  0.3505 -1.2622
56963SOL     OW82613   5.414  10.274   3.068  0.1900  0.4887 -0.3060
56963SOL    HW182614   5.454  10.225   3.140 -1.5804 -0.5381  0.0393
56963SOL    HW282615   5.434  10.366   3.088  2.0654  0.0527 -0.0133
56964SOL     OW82616   3.556   9.203   5.795 -0.2811 -0.7095  0.1999
56964SOL    HW182617   3.591   9.115   5.781  0.2994 -0.4853  0.2117
56964SOL    HW282618   3.622   9.262   5.756 -0.6396 -0.2789  0.2305
56965SOL     OW82619  11.019  11.070   1.189 -0.1433  0.0400 -0.3076
56965SOL    HW182620  11.009  11.006   1.259 -2.2804 -3.1553 -3.1764
56965SOL    HW282621  10.937  11.120   1.191 -0.0221  0.2344 -0.2421
56966SOL     OW82622   2.566   9.849  10.716 -0.0255 -0.3868 -0.0235
56966SOL    HW182623   2.635   9.790  10.746  1.3579  1.7287  1.2339
56966SOL    HW282624   2.593   9.873  10.627 -0.0771 -0.8838 -0.1784
56967SOL     OW82625   1.671   7.179   7.601  0.9695 -0.1467 -1.0805
56967SOL    HW182626   1.606   7.169   7.672  2.1607  0.9313  0.2241
56967SOL    HW282627   1.629   7.239   7.539  0.5123  0.1708 -0.4865
56968SOL     OW82628   2.019   0.616  13.142  0.0826 -0.1811 -0.2032
56968SOL    HW182629   1.974   0.700  13.127  0.3136 -0.3113 -1.8083
56968SOL    HW282630   1.949   0.558  13.172 -0.2360  0.3892  0.1839
56969SOL     OW82631  10.597   4.838  13.423 -0.3327  0.1912  0.1851
56969SOL    HW182632  10.660   4.908  13.442  1.7019 -1.1734 -1.0783
56969SOL    HW282633  10.556   4.820  13.507  1.0163  1.1167  1.1002
56970SOL     OW82634   5.697   5.801   7.675  0.4989 -0.9818  0.8841
56970SOL    HW182635   5.763   5.858   7.716  0.2626 -1.0359  1.3512
56970SOL    HW282636   5.652   5.761   7.749 -1.8695  1.0739  0.7011
56971SOL     OW82637   4.494   9.877   3.389 -0.0203 -0.4399 -0.8559
56971SOL    HW182638   4.461   9.880   3.299 -1.8789  1.3749 -0.2099
56971SOL    HW282639   4.580   9.918   3.384  0.3287 -1.2589 -1.9362
56972SOL     OW82640   6.893  13.432  13.143 -0.1218  0.2096  0.2215
56972SOL    HW182641   6.931  13.386  13.068  0.5000 -0.3562  0.8733
56972SOL    HW282642   6.868  13.517  13.108 -0.7732 -0.4033 -0.8708
56973SOL     OW82643  12.663   4.211   3.462 -0.2585  0.0699 -0.1576
56973SOL    HW182644  12.581   4.183   3.422 -0.0140 -1.0877  0.1317
56973SOL    HW282645  12.637   4.279   3.524 -1.0291 -0.4039  0.0542
56974SOL     OW82646   7.411   6.781   9.596  0.1067 -0.2791 -0.2929
56974SOL    HW182647   7.456   6.781   9.511 -0.1293 -2.0006 -0.4622
56974SOL    HW282648   7.481   6.783   9.660  0.3425 -0.3677 -0.5451
56975SOL     OW82649   9.101  10.733   1.771 -0.4453  0.0909 -0.3387
56975SOL    HW182650   9.070  10.653   1.814  0.3114 -0.4816 -0.8438
56975SOL    HW282651   9.092  10.715   1.678 -0.2215  0.5793 -0.4573
56976SOL     OW82652   4.418   4.678   8.287  0.1326  0.2196 -0.0017
56976SOL    HW182653   4.509   4.705   8.274 -0.4374  3.0636  1.1862
56976SOL    HW282654   4.418   4.635   8.373  0.3367  0.3285  0.0539
56977SOL     OW82655   3.247   1.454   7.701  0.7574  0.0360 -0.1746
56977SOL    HW182656   3.275   1.540   7.671 -1.3146  1.4721  1.6711
56977SOL    HW282657   3.161   1.469   7.741  0.0912 -2.9850 -0.1870
56978SOL     OW82658   3.764  11.875   7.161  0.3432  0.5211  0.2621
56978SOL    HW182659   3.794  11.814   7.228  1.1008  1.0545  0.4156
56978SOL    HW282660   3.798  11.960   7.188 -1.7006  1.2561  0.6811
56979SOL     OW82661   3.585   5.899   9.495  0.2712 -0.3087  0.6126
56979SOL    HW182662   3.634   5.970   9.454 -0.5466 -0.2056 -0.2164
56979SOL    HW282663   3.593   5.826   9.434 -1.0365 -0.1281  0.1888
56980SOL     OW82664   6.338   9.427   7.922  0.5118  0.1248 -0.2252
56980SOL    HW182665   6.262   9.478   7.893  0.6878 -0.1957 -1.2833
56980SOL    HW282666   6.318   9.404   8.013 -1.1524 -0.8445 -0.7865
56981SOL     OW82667   1.043  12.984  11.000 -0.3657  0.5127  0.5216
56981SOL    HW182668   1.110  12.916  10.998 -0.7118  0.1323 -1.8121
56981SOL    HW282669   0.971  12.945  11.050  0.7634  0.5743  2.2417
56982SOL     OW82670   4.392   6.707   2.695 -0.4255  0.2096 -0.7520
56982SOL    HW182671   4.392   6.640   2.764 -0.8218 -0.6840 -1.5902
56982SOL    HW282672   4.358   6.785   2.738 -2.0142 -0.7048 -0.2410
56983SOL     OW82673   8.674   7.566  10.627 -0.3692 -0.2477  0.3670
56983SOL    HW182674   8.727   7.560  10.548 -2.2036 -1.4744 -0.8313
56983SOL    HW282675   8.589   7.599  10.598 -0.9240 -0.1963  1.9134
56984SOL     OW82676   8.108  13.370  12.753 -0.3630  0.0615 -1.0823
56984SOL    HW182677   8.160  13.323  12.819 -0.4394  0.4113 -0.7658
56984SOL    HW282678   8.160  13.365  12.673 -1.1860 -2.1067 -1.5520
56985SOL     OW82679   5.250  11.279   4.812 -0.3345  0.3807  0.2115
56985SOL    HW182680   5.162  11.261   4.777 -0.2622  1.2508 -0.4491
56985SOL    HW282681   5.239  11.361   4.860  0.0944  0.4138  0.2488
56986SOL     OW82682   4.994   9.973   5.093 -0.0686 -0.0759 -0.2607
56986SOL    HW182683   4.947   9.895   5.064 -1.7564  0.4845  0.8357
56986SOL    HW282684   4.967   9.986   5.184  2.2845  0.2560  0.4639
56987SOL     OW82685  12.080  11.745   0.891 -0.4327 -0.0743  0.5217
56987SOL    HW182686  12.039  11.705   0.967 -0.4610 -0.4090  0.3317
56987SOL    HW282687  12.023  11.722   0.818 -1.6575  2.1115  0.6908
56988SOL     OW82688   7.156   1.670   2.447 -0.3956 -0.4957  0.1067
56988SOL    HW182689   7.221   1.740   2.439  1.3197 -2.0544 -0.0492
56988SOL    HW282690   7.073   1.717   2.461  0.6862  1.5562  0.0695
56989SOL     OW82691   4.767   2.080   9.427 -0.2526 -0.1626 -0.1946
56989SOL    HW182692   4.858   2.080   9.454  0.3170 -0.7676 -1.9833
56989SOL    HW282693   4.755   2.162   9.379 -0.3557 -0.5608 -0.8613
56990SOL     OW82694   8.195  11.511  12.768  0.0127  0.4536  0.9171
56990SOL    HW182695   8.251  11.537  12.841  1.6953 -1.6992  0.4875
56990SOL    HW282696   8.231  11.557  12.693  1.1210 -0.7150  0.6932
56991SOL     OW82697  10.989   9.600   9.656 -0.0631  0.1220 -0.8488
56991SOL    HW182698  10.965   9.682   9.613 -0.2542  0.5630  0.0767
56991SOL    HW282699  10.909   9.549   9.656 -0.6082  0.9040  0.6876
56992SOL     OW82700   4.513  12.975   1.539  0.2055  0.0281  0.1862
56992SOL    HW182701   4.486  12.958   1.448 -0.8576 -0.2615  0.5366
56992SOL    HW282702   4.599  13.015   1.531 -0.3163  0.9991 -1.0086
56993SOL     OW82703   3.890   5.874  13.232 -0.5470 -0.6523  0.7762
56993SOL    HW182704   3.866   5.898  13.322  1.5675 -0.9395  1.4589
56993SOL    HW282705   3.822   5.812  13.206 -1.0459 -0.7962  2.2907
56994SOL     OW82706   8.434   4.071   5.427  0.1572 -0.0888  0.1150
56994SOL    HW182707   8.378   4.068   5.350 -1.4396  1.1586  1.1681
56994SOL    HW282708   8.411   3.993   5.477  0.7163 -0.5483 -0.3295
56995SOL     OW82709   3.710   8.691   4.123  0.1023  0.0035  0.1862
56995SOL    HW182710   3.653   8.765   4.142  0.0845 -0.1334  0.6813
56995SOL    HW282711   3.672   8.618   4.172  0.3628 -0.2281  0.0462
56996SOL     OW82712   8.204   0.879   7.867  0.1398 -0.2162  0.0093
56996SOL    HW182713   8.160   0.796   7.852 -0.0295  0.0246 -0.9226
56996SOL    HW282714   8.246   0.870   7.952 -0.3177 -1.0566  0.1516
56997SOL     OW82715   0.074   1.979   3.060 -0.2088  0.5476 -0.0718
56997SOL    HW182716   0.105   1.974   3.150  0.2834  0.4757 -0.2417
56997SOL    HW282717   0.064   1.888   3.033  0.1212  0.5646 -0.2510
56998SOL     OW82718   2.212   7.846   8.253  0.2834 -0.1905 -0.0494
56998SOL    HW182719   2.231   7.785   8.182  1.1053  0.1634 -0.1464
56998SOL    HW282720   2.274   7.917   8.241 -0.2962  0.4109  0.3814
56999SOL     OW82721  10.352   5.308   9.297  0.0313 -0.2730  0.3951
56999SOL    HW182722  10.278   5.299   9.357 -0.3113  0.5145  0.1109
56999SOL    HW282723  10.414   5.241   9.325 -0.1876 -0.0331  1.5256
57000SOL     OW82724   3.581  13.066   8.634  0.2750  0.5365  0.4224
57000SOL    HW182725   3.581  13.090   8.541 -0.9025  0.7537  0.4670
57000SOL    HW282726   3.632  13.135   8.676  0.8230  0.4319 -0.0612
57001SOL     OW82727   0.827  12.947   0.971  0.1695  0.1674  0.1250
57001SOL    HW182728   0.846  12.979   1.059  1.0492 -1.8267  0.7070
57001SOL    HW282729   0.888  12.995   0.914  1.6495 -0.5967  1.0034
57002SOL     OW82730   6.044   5.482  10.326  0.0430  0.0126 -0.7245
57002SOL    HW182731   6.061   5.391  10.348  0.0733 -0.4175 -2.3791
57002SOL    HW282732   5.973   5.508  10.384  1.6512 -0.2676  1.4984
57003SOL     OW82733  10.075   1.617   8.910  0.1145  0.1655  0.0394
57003SOL    HW182734  10.136   1.680   8.948  1.8518  0.8207 -3.3990
57003SOL    HW282735  10.115   1.532   8.928 -0.5864  0.1983  1.9703
57004SOL     OW82736   7.716   7.235  10.308 -0.2500  0.0457  0.1139
57004SOL    HW182737   7.742   7.237  10.400 -0.3555  0.8271  0.1327
57004SOL    HW282738   7.646   7.300  10.302 -0.8419 -0.6207 -0.3417
57005SOL     OW82739   8.828  12.504   3.349 -0.2003 -0.3315  0.0439
57005SOL    HW182740   8.763  12.548   3.406  0.2587  0.0407  0.2879
57005SOL    HW282741   8.793  12.516   3.261 -0.3301  0.1144  0.1477
57006SOL     OW82742   5.694   6.507   7.640  0.0356  0.5170  0.4878
57006SOL    HW182743   5.743   6.438   7.684 -1.7092 -0.6872  0.6603
57006SOL    HW282744   5.602   6.480   7.648 -0.5539  1.7950 -1.2595
57007SOL     OW82745   0.071   5.676  13.560  0.4391 -0.4662 -0.1976
57007SOL    HW182746   0.062   5.695  13.654 -2.6941 -0.0783 -0.4644
57007SOL    HW282747   0.030   5.750  13.517 -0.1846 -1.6878 -1.7871
57008SOL     OW82748   7.505   2.655   1.088  0.4825 -0.0639 -0.2889
57008SOL    HW182749   7.414   2.683   1.094  0.1646 -1.3129  1.3412
57008SOL    HW282750   7.505   2.585   1.023  0.2230 -0.2589 -0.0809
57009SOL     OW82751   8.084   7.445   0.534 -0.4137  0.0986 -0.0346
57009SOL    HW182752   8.139   7.417   0.461  0.4418  1.4647  0.0390
57009SOL    HW282753   8.140   7.507   0.583 -0.5751 -1.4969  2.3361
57010SOL     OW82754  11.585   4.102   2.426 -0.5504 -0.2580  0.2496
57010SOL    HW182755  11.555   4.177   2.477  0.9980  0.3718  0.2804
57010SOL    HW282756  11.507   4.047   2.416 -1.8684  1.6024 -0.2533
57011SOL     OW82757   2.961  10.802   8.681 -0.3087 -0.0866  0.1506
57011SOL    HW182758   2.880  10.823   8.634 -0.1999 -1.1337 -0.5353
57011SOL    HW282759   2.952  10.709   8.703 -0.5805  0.4489  2.6693
57012SOL     OW82760   8.328   3.083   0.383  0.0864  0.1877  0.1312
57012SOL    HW182761   8.236   3.096   0.407  0.3410 -0.7140  1.7422
57012SOL    HW282762   8.374   3.155   0.425  0.2731 -0.1688  0.5505
57013SOL     OW82763  11.842   5.152   7.168 -0.3585  0.2541 -0.2616
57013SOL    HW182764  11.914   5.211   7.188 -0.6048  0.5685 -0.3063
57013SOL    HW282765  11.811   5.179   7.082 -1.9833  1.6012  0.6790
57014SOL     OW82766  11.434   8.328  10.582 -0.1470 -0.0842  0.1850
57014SOL    HW182767  11.415   8.355  10.672 -0.6975  2.0976 -0.5327
57014SOL    HW282768  11.351   8.338  10.536  0.7477  1.5867 -1.1732
57015SOL     OW82769   6.749   5.280   0.217 -0.0769  0.2621  0.3356
57015SOL    HW182770   6.661   5.255   0.248 -0.1536  1.6681  1.3617
57015SOL    HW282771   6.732   5.343   0.147  0.1302 -1.2997 -1.1896
57016SOL     OW82772   0.502   2.708   1.033 -0.3307 -0.1909 -0.4196
57016SOL    HW182773   0.537   2.644   0.971 -0.1514  1.3279 -1.9450
57016SOL    HW282774   0.408   2.688   1.038  0.1792 -2.6145  1.6914
57017SOL     OW82775   1.821   0.009  12.157 -0.0173 -0.1578 -0.0009
57017SOL    HW182776   1.845   0.020  12.065 -1.7497  1.4697 -0.3178
57017SOL    HW282777   1.875  -0.065  12.187 -1.0549 -2.2865 -2.9190
57018SOL     OW82778   3.789  13.001   4.216 -0.2429  0.5042  0.1180
57018SOL    HW182779   3.728  12.941   4.174 -0.4466  0.1737  0.8833
57018SOL    HW282780   3.764  13.001   4.308  1.9341 -0.9292  0.7744
57019SOL     OW82781   6.655   2.557   6.520 -0.1800  0.2135 -0.3012
57019SOL    HW182782   6.690   2.508   6.595 -1.1444 -0.5629 -0.3316
57019SOL    HW282783   6.567   2.582   6.547 -0.6765 -0.3958 -1.3045
57020SOL     OW82784   5.225   9.675   8.671  0.1938 -0.2835 -0.4758
57020SOL    HW182785   5.280   9.616   8.723  1.3014  2.1509  1.3806
57020SOL    HW282786   5.286   9.721   8.613 -0.1175  1.0444  0.1899
57021SOL     OW82787   2.713  12.958   6.222 -0.0789 -0.1330 -0.6238
57021SOL    HW182788   2.625  12.962   6.260 -0.2332  1.1231 -1.0773
57021SOL    HW282789   2.728  13.045   6.186  1.3913 -0.2995 -0.4944
57022SOL     OW82790   1.234   5.362   9.939 -0.0072 -0.4287  0.0495
57022SOL    HW182791   1.199   5.432   9.883 -0.7859  1.3448  2.5584
57022SOL    HW282792   1.325   5.386   9.953 -0.3781  0.3856  1.2379
57023SOL     OW82793   8.486   7.002  13.576 -0.2404 -0.2274  0.6193
57023SOL    HW182794   8.395   7.002  13.547 -0.7945  1.3937  2.1712
57023SOL    HW282795   8.498   6.916  13.616 -1.0738 -0.4851  0.3493
57024SOL     OW82796  11.114  10.553   5.166  0.1239  0.2614 -0.2783
57024SOL    HW182797  11.054  10.513   5.103 -1.5593 -1.0835  2.0214
57024SOL    HW282798  11.180  10.597   5.112 -2.0887  0.5771 -2.9466
57025SOL     OW82799   3.687   8.239   2.747 -0.0019  0.4027  0.2551
57025SOL    HW182800   3.602   8.275   2.722  0.1819  0.5681 -0.1599
57025SOL    HW282801   3.667   8.169   2.809 -0.8912 -3.0159 -3.4420
57026SOL     OW82802   3.781   0.548  10.143  0.7579 -0.0206 -0.0875
57026SOL    HW182803   3.795   0.456  10.121  0.6759  0.1569 -0.9183
57026SOL    HW282804   3.760   0.590  10.059  0.6623  0.7298  0.3017
57027SOL     OW82805   6.738   2.465   5.940  0.5507  0.2908  0.6517
57027SOL    HW182806   6.826   2.499   5.956  1.0037 -0.8469  0.6699
57027SOL    HW282807   6.751   2.370   5.930 -0.5828  0.1937 -0.0017
57028SOL     OW82808   1.844  13.584   7.549  0.1706  0.1933  0.2113
57028SOL    HW182809   1.880  13.592   7.637 -1.2346  1.4147  0.7109
57028SOL    HW282810   1.817  13.492   7.542 -1.4491  0.4961  1.8005
57029SOL     OW82811  10.714   6.646   8.284 -0.2813 -0.2998 -0.0393
57029SOL    HW182812  10.740   6.609   8.369  0.3743 -0.6551 -0.3836
57029SOL    HW282813  10.761   6.593   8.220 -0.5909  0.1178 -0.6149
57030SOL     OW82814   7.292   6.578   6.350  0.6638 -0.2174 -0.3716
57030SOL    HW182815   7.283   6.598   6.256  0.1060  2.5849  0.2062
57030SOL    HW282816   7.368   6.628   6.378  0.6023 -0.7489  0.7774
57031SOL     OW82817   9.125   9.617  11.787  0.2449 -0.4808  0.1801
57031SOL    HW182818   9.041   9.573  11.772  0.7806 -1.2131 -0.8182
57031SOL    HW282819   9.101   9.704  11.818 -0.8497 -1.4604  2.2560
57032SOL     OW82820   2.615  10.815   9.196  0.1240  0.0220  0.3570
57032SOL    HW182821   2.588  10.901   9.165 -0.2050 -0.1786  0.0783
57032SOL    HW282822   2.590  10.813   9.288 -1.9097 -0.5957 -0.1660
57033SOL     OW82823   3.882   8.712  10.477 -0.0168 -0.2094  0.1694
57033SOL    HW182824   3.874   8.784  10.414 -1.6391  0.4711  1.0909
57033SOL    HW282825   3.795   8.672  10.478  0.7655 -1.9941 -0.0687
57034SOL     OW82826   9.363   0.424  12.369  0.4574 -0.0812 -0.4972
57034SOL    HW182827   9.418   0.490  12.328  0.8182  0.0484  0.1758
57034SOL    HW282828   9.344   0.459  12.456  0.1440 -0.5849 -0.3554
57035SOL     OW82829   7.711  11.587   1.120 -0.5940  0.8102 -0.2102
57035SOL    HW182830   7.726  11.499   1.153 -0.8453 -0.2082 -2.5905
57035SOL    HW282831   7.617  11.592   1.106 -0.7450  1.9144  0.9759
57036SOL     OW82832   6.685   7.520  10.646 -0.8938  0.0267  0.0755
57036SOL    HW182833   6.689   7.594  10.707 -0.3136 -0.2983  0.4407
57036SOL    HW282834   6.670   7.560  10.561 -0.6120  0.5669  0.2713
57037SOL     OW82835   8.278  12.866   1.793  0.4337 -0.5405 -0.7024
57037SOL    HW182836   8.338  12.940   1.785 -0.1497 -0.0774 -0.9423
57037SOL    HW282837   8.295  12.813   1.715  0.8711 -0.6776 -0.5165
57038SOL     OW82838   7.098   0.378   5.889  0.3895  0.1724  0.0404
57038SOL    HW182839   7.052   0.461   5.879 -0.5613 -0.2819  0.5272
57038SOL    HW282840   7.150   0.369   5.809 -0.8698  0.4028 -0.8241
57039SOL     OW82841   8.208   4.845   0.852  0.7815 -0.5010  0.7916
57039SOL    HW182842   8.266   4.769   0.849  1.2694 -0.0879 -1.9777
57039SOL    HW282843   8.266   4.921   0.851  0.2493 -0.0528  1.8232
57040SOL     OW82844   2.390   1.022  11.530  0.2141 -0.1034  0.1332
57040SOL    HW182845   2.317   1.071  11.491 -0.3911 -1.3751 -0.3726
57040SOL    HW282846   2.361   1.003  11.619  0.0478 -0.3452  0.0291
57041SOL     OW82847  13.615   2.898  11.034 -0.1237 -0.4096 -0.5666
57041SOL    HW182848  13.653   2.846  11.105 -1.6069 -0.4927  0.1882
57041SOL    HW282849  13.585   2.833  10.970  3.1177 -0.3339 -2.4208
57042SOL     OW82850   1.629   4.492   8.175 -0.1411 -0.6609 -0.2075
57042SOL    HW182851   1.630   4.426   8.106  1.8552 -1.7706  0.7921
57042SOL    HW282852   1.594   4.447   8.251 -3.3675  0.8504 -0.6374
57043SOL     OW82853   8.110   9.383   2.560  0.0533  0.0404  0.1106
57043SOL    HW182854   8.018   9.395   2.536  0.0726 -1.1961 -0.6528
57043SOL    HW282855   8.145   9.323   2.494  1.9712  2.0817 -0.8339
57044SOL     OW82856   5.478  12.709   7.993  0.1178 -0.0962 -0.1077
57044SOL    HW182857   5.443  12.736   7.908 -1.2991  0.3890  0.5913
57044SOL    HW282858   5.406  12.661   8.034 -0.2911  2.1061  1.9662
57045SOL     OW82859  11.365  10.043   0.118  0.7646 -0.0801 -0.1273
57045SOL    HW182860  11.295  10.050   0.053  0.2926  1.5092  0.5092
57045SOL    HW282861  11.446  10.046   0.067  0.4023  1.1460 -0.6555
57046SOL     OW82862   3.777   7.458   8.637  0.1345  0.2927 -0.0639
57046SOL    HW182863   3.748   7.380   8.590 -0.3347 -0.9935  2.2425
57046SOL    HW282864   3.870   7.465   8.616  0.1024 -0.6548 -0.5990
57047SOL     OW82865   1.187   2.503   4.661 -0.0350  0.1922  0.3457
57047SOL    HW182866   1.279   2.492   4.686  1.2072  3.8515 -1.7704
57047SOL    HW282867   1.152   2.567   4.723 -0.6893 -0.0734  0.2573
57048SOL     OW82868   1.528   9.961  10.446  0.1068  0.0623  0.3162
57048SOL    HW182869   1.580  10.006  10.380  0.5499 -0.6181  0.1991
57048SOL    HW282870   1.497  10.031  10.504 -0.2911  0.6660 -0.6068
57049SOL     OW82871  11.629  10.449   1.940  0.3877 -0.2165  0.0080
57049SOL    HW182872  11.561  10.410   1.995 -0.6707  2.0503  0.4515
57049SOL    HW282873  11.688  10.493   2.002 -0.4945  1.8793 -0.5462
57050SOL     OW82874   7.664   9.242   1.999  0.0952 -0.0737 -0.6754
57050SOL    HW182875   7.696   9.155   1.974  0.7809 -0.1693  0.4793
57050SOL    HW282876   7.625   9.277   1.919 -0.2238 -1.4564 -1.1496
57051SOL     OW82877  12.595  11.919   0.443 -0.0254 -0.0062 -0.4367
57051SOL    HW182878  12.540  11.956   0.513  1.3221  1.4856 -0.1147
57051SOL    HW282879  12.578  11.825   0.447 -1.0638  0.2033  0.9404
57052SOL     OW82880  11.052   0.288   4.655 -0.7246  0.1679 -0.1701
57052SOL    HW182881  11.133   0.266   4.702 -0.9109  0.1333  0.1387
57052SOL    HW282882  11.082   0.319   4.569 -0.3953 -0.0817 -0.1498
57053SOL     OW82883  11.742   5.497  13.228 -0.5450 -0.0430 -0.3948
57053SOL    HW182884  11.727   5.573  13.285 -2.5810 -1.0035  0.4799
57053SOL    HW282885  11.739   5.422  13.288 -0.7481 -0.9472 -1.5125
57054SOL     OW82886  11.367   7.104   2.584 -0.0620  0.0846 -0.1944
57054SOL    HW182887  11.290   7.097   2.640  0.9628 -0.3797  1.2119
57054SOL    HW282888  11.440   7.113   2.646  1.2663 -1.7980 -1.4124
57055SOL     OW82889   5.504   1.034  10.953  0.1300 -0.0860  0.2633
57055SOL    HW182890   5.583   1.087  10.965 -1.7471  3.2645 -0.8083
57055SOL    HW282891   5.486   0.997  11.040  3.4474 -2.0846  0.2686
57056SOL     OW82892  10.261   6.134   7.017  0.4900  0.1081 -0.0643
57056SOL    HW182893  10.326   6.189   7.061  0.2137  0.0383  0.4373
57056SOL    HW282894  10.285   6.045   7.042  0.0466  0.0993  0.3348
57057SOL     OW82895  10.525   1.043   5.003 -0.6430 -0.7045 -0.0225
57057SOL    HW182896  10.572   0.992   4.937 -0.7942 -1.2077  0.2565
57057SOL    HW282897  10.589   1.054   5.074 -0.5745 -0.4105 -0.1295
57058SOL     OW82898   7.572   9.874  11.760 -0.8608  0.1286 -0.4264
57058SOL    HW182899   7.510   9.830  11.701 -1.7723  1.2526 -0.3531
57058SOL    HW282900   7.645   9.899  11.704 -0.8771 -0.4249 -0.7020
57059SOL     OW82901   2.984  10.028  12.700  0.5458 -0.1726  0.1091
57059SOL    HW182902   3.071  10.069  12.695  0.0224  0.8466 -1.2195
57059SOL    HW282903   2.936  10.081  12.763  0.5892 -0.1827  0.1511
57060SOL     OW82904   3.236  10.430  13.583 -0.1944 -0.0910  0.1350
57060SOL    HW182905   3.144  10.447  13.605 -0.1583 -0.1699  0.3561
57060SOL    HW282906   3.282  10.440  13.666  0.1264  0.8089 -0.1429
57061SOL     OW82907   1.645   5.379  11.035  0.5482  0.0506 -0.3403
57061SOL    HW182908   1.554   5.397  11.013  0.7333 -0.5230 -1.6396
57061SOL    HW282909   1.690   5.461  11.016  0.5393 -0.1279 -1.1593
57062SOL     OW82910   0.739  13.001   9.570  0.0237  0.5567  0.4970
57062SOL    HW182911   0.773  13.090   9.564  0.5212  0.4125  1.0788
57062SOL    HW282912   0.649  13.007   9.537  0.3753  1.0804 -0.3969
57063SOL     OW82913   1.167   9.410  12.243 -0.0894  0.4431  0.1057
57063SOL    HW182914   1.236   9.371  12.296 -0.8745  0.8196  1.4356
57063SOL    HW282915   1.158   9.351  12.168 -0.3468 -1.2306  1.4035
57064SOL     OW82916  12.905   9.437   6.414  0.2044  0.6001  0.1618
57064SOL    HW182917  12.930   9.502   6.349 -0.8539  0.2263 -0.6441
57064SOL    HW282918  12.888   9.358   6.363 -1.4847  0.5290  0.7716
57065SOL     OW82919   2.604   7.025   3.875  0.4076  0.0580 -0.4442
57065SOL    HW182920   2.601   7.044   3.968  0.2668 -0.6843 -0.2941
57065SOL    HW282921   2.578   6.933   3.868  1.5617 -0.2439 -1.1009
57066SOL     OW82922  13.718   9.457   6.318 -0.5200  0.4943 -0.0835
57066SOL    HW182923  13.687   9.539   6.356 -0.2914  0.4986  0.0992
57066SOL    HW282924  13.650   9.393   6.340 -1.1803  0.8309 -1.0756
57067SOL     OW82925   4.256   0.694  11.041 -0.2545 -0.0677  0.0552
57067SOL    HW182926   4.226   0.696  10.950 -0.3013 -4.1586 -0.2234
57067SOL    HW282927   4.180   0.663  11.090  0.6409 -0.9323  0.9350
57068SOL     OW82928   4.903   4.071  10.353  0.4571  0.0637 -0.0156
57068SOL    HW182929   4.971   4.126  10.392 -0.0700  1.2027 -0.6577
57068SOL    HW282930   4.823   4.124  10.361 -0.2658 -1.0387  0.2647
57069SOL     OW82931   7.769   4.165   9.701 -0.0330 -0.2954  0.1918
57069SOL    HW182932   7.767   4.070   9.700 -2.4028 -0.3138  0.7306
57069SOL    HW282933   7.765   4.190   9.609 -1.1392 -0.7443  0.1074
57070SOL     OW82934   0.388  10.943   8.302  0.1836 -0.4438  1.1189
57070SOL    HW182935   0.339  10.887   8.242  1.6420 -0.8662  0.2679
57070SOL    HW282936   0.322  11.001   8.340 -1.0534 -1.3834  0.4814
57071SOL     OW82937   8.343   8.066   2.970  0.5923 -0.2072  0.1033
57071SOL    HW182938   8.330   8.006   2.897  0.7830  1.4209 -1.3379
57071SOL    HW282939   8.352   8.009   3.047 -1.5753 -1.9086 -0.7888
57072SOL     OW82940  12.346   3.003   4.601 -0.3550  0.3255 -0.6071
57072SOL    HW182941  12.275   2.944   4.573 -0.9759  0.4189  0.7206
57072SOL    HW282942  12.310   3.091   4.593  0.4126  0.5386 -2.1259
57073SOL     OW82943  11.836   1.216   1.958 -0.2790  0.2441 -0.2602
57073SOL    HW182944  11.767   1.194   2.020 -0.0078  0.5479  0.1476
57073SOL    HW282945  11.791   1.228   1.874 -0.7356  0.5928  0.0368
57074SOL     OW82946   4.069   9.293  12.534 -1.0861 -0.2384  0.0949
57074SOL    HW182947   4.000   9.234  12.564  0.1000 -1.5390  0.4321
57074SOL    HW282948   4.148   9.262  12.579  0.2598 -0.5613 -2.2822
57075SOL     OW82949   7.220  12.517  13.277 -0.0510 -0.2272  0.1215
57075SOL    HW182950   7.149  12.544  13.218  1.7637  0.3033 -1.9206
57075SOL    HW282951   7.180  12.450  13.333 -1.6898 -1.2920 -2.1707
57076SOL     OW82952   8.637   6.820   2.894 -0.0506 -0.6155 -0.0295
57076SOL    HW182953   8.709   6.768   2.928 -0.5764 -1.9628 -0.8659
57076SOL    HW282954   8.676   6.904   2.871  0.5646 -0.0800  2.6370
57077SOL     OW82955   2.615   9.517  11.235 -0.5770  0.2307 -0.3683
57077SOL    HW182956   2.639   9.569  11.158 -1.2134  3.0426  1.1967
57077SOL    HW282957   2.520   9.509  11.229 -0.7715  1.4420  0.6162
57078SOL     OW82958   5.207   3.810  12.414 -0.4461  0.4178  0.3630
57078SOL    HW182959   5.208   3.897  12.454  0.8894  0.2272  0.8209
57078SOL    HW282960   5.116   3.796  12.388 -0.7196  1.8636  0.4575
57079SOL     OW82961   1.938   2.262  10.792  0.7545  0.1701 -0.2956
57079SOL    HW182962   1.847   2.260  10.819  1.1702 -0.7606  1.1435
57079SOL    HW282963   1.935   2.254  10.696 -0.6995  1.8355 -0.4281
57080SOL     OW82964   1.097  10.058   6.046  0.1943  0.2725  0.2260
57080SOL    HW182965   1.137   9.994   6.105 -1.2946 -0.1142  0.8554
57080SOL    HW282966   1.136  10.142   6.071 -0.9374  0.2260  2.2898
57081SOL     OW82967  10.385   4.127   3.496 -0.1504  0.2214 -0.2476
57081SOL    HW182968  10.469   4.100   3.533 -1.0181 -1.0580  0.8767
57081SOL    HW282969  10.376   4.075   3.416 -0.0647  0.0586 -0.1521
57082SOL     OW82970   3.703  12.991   0.122 -0.0313 -0.1370 -0.5296
57082SOL    HW182971   3.790  13.019   0.150 -0.7622  0.7383  1.0382
57082SOL    HW282972   3.677  12.925   0.186 -2.1357  2.6087  1.7748
57083SOL     OW82973  12.192   0.452   3.528 -0.3956 -0.0454  0.0106
57083SOL    HW182974  12.168   0.399   3.453  0.5938  0.2109 -0.5095
57083SOL    HW282975  12.178   0.542   3.500  0.1149  0.0581  0.0660
57084SOL     OW82976  13.239   9.251   3.429  0.1423 -0.7156  0.2283
57084SOL    HW182977  13.301   9.319   3.406  0.5823 -0.9736  0.6399
57084SOL    HW282978  13.262   9.226   3.519 -0.7307 -0.6182  0.4880
57085SOL     OW82979   0.167   4.325   3.134 -0.1914 -0.0008 -0.4799
57085SOL    HW182980   0.215   4.250   3.170  0.9038  1.1355  0.5318
57085SOL    HW282981   0.235   4.389   3.111 -0.9360 -0.1213 -3.4123
57086SOL     OW82982   7.752  13.622   5.738 -0.2586  0.6215 -0.3563
57086SOL    HW182983   7.748  13.660   5.825 -1.3328 -0.6991  0.2103
57086SOL    HW282984   7.671  13.572   5.730  0.6715 -0.8075 -1.3897
57087SOL     OW82985  13.553   2.100   5.634  0.1960  0.2041  0.8437
57087SOL    HW182986  13.519   2.154   5.705  1.0430 -1.1851  2.3833
57087SOL    HW282987  13.620   2.045   5.675  1.7389  0.3107 -1.3193
57088SOL     OW82988   1.260   6.206   0.199 -0.1303 -0.3630 -0.6443
57088SOL    HW182989   1.348   6.244   0.200 -0.4670  0.4611 -1.3969
57088SOL    HW282990   1.206   6.269   0.248 -0.3541 -0.7340 -0.4088
57089SOL     OW82991   6.260   2.832   1.946 -0.1076 -0.0153 -0.3459
57089SOL    HW182992   6.234   2.765   2.009 -0.0081 -0.3703 -0.6783
57089SOL    HW282993   6.325   2.884   1.993 -0.0685 -0.2457 -0.1395
57090SOL     OW82994   6.053   4.561   7.769 -0.1981  0.4952  0.3112
57090SOL    HW182995   6.084   4.623   7.835  0.8236 -1.1625  1.4742
57090SOL    HW282996   5.963   4.588   7.750  0.1090  2.1017  1.0139
57091SOL     OW82997   8.493   1.375   1.110  0.2830 -0.7628 -0.1983
57091SOL    HW182998   8.412   1.410   1.071  1.0717  2.1968  0.6093
57091SOL    HW282999   8.478   1.280   1.113 -2.9003 -0.4085 -0.6693
57092SOL     OW83000   1.865  10.965  10.558 -0.0838 -0.5106  0.1493
57092SOL    HW183001   1.810  11.033  10.520  1.5251  0.0995 -1.2385
57092SOL    HW283002   1.857  10.977  10.653 -1.1686  0.4780 -0.0471
57093SOL     OW83003  12.873  12.359   3.532 -0.0927 -0.4526  0.2443
57093SOL    HW183004  12.945  12.422   3.536 -0.2747 -0.2540  0.3600
57093SOL    HW283005  12.833  12.374   3.446 -0.1585 -0.3863  0.2868
57094SOL     OW83006  10.181   8.446   7.769 -0.1390 -0.2768 -0.0257
57094SOL    HW183007  10.246   8.513   7.745  0.5141 -0.8484  0.1184
57094SOL    HW283008  10.107   8.496   7.803  1.4868  0.3013  2.9560
57095SOL     OW83009   0.045   0.358   3.235 -0.3416  0.7218 -0.0300
57095SOL    HW183010   0.067   0.437   3.186  0.0760  0.7168  0.1480
57095SOL    HW283011   0.129   0.316   3.253 -0.5381  0.3916  0.1365
57096SOL     OW83012   4.783   8.528   5.495  0.1072 -0.3921 -0.2788
57096SOL    HW183013   4.764   8.541   5.588 -0.6360  0.3263 -0.5098
57096SOL    HW283014   4.699   8.546   5.452 -0.0725 -2.5399 -0.9608
57097SOL     OW83015   5.834  11.963   3.083 -0.1904 -0.1015 -0.5518
57097SOL    HW183016   5.896  11.954   3.010 -0.6122  0.7902 -1.0457
57097SOL    HW283017   5.817  12.057   3.088 -1.0008 -0.2678  0.0029
57098SOL     OW83018  12.553   0.029  11.222 -0.3396  0.1078 -0.8394
57098SOL    HW183019  12.607  -0.011  11.153 -2.5161  0.8200 -3.0982
57098SOL    HW283020  12.534   0.117  11.191 -1.9328  0.2409  0.3494
57099SOL     OW83021  10.601   5.904   1.389 -0.5409 -0.2435  0.2040
57099SOL    HW183022  10.567   5.912   1.300  0.0324  1.8646  0.1285
57099SOL    HW283023  10.596   5.810   1.408 -0.5619 -0.7617 -2.0787
57100SOL     OW83024  12.193   5.891  12.628 -0.0538 -0.3707  0.1440
57100SOL    HW183025  12.183   5.883  12.723  0.4938  0.9754  0.3469
57100SOL    HW283026  12.164   5.807  12.593  1.0080 -1.3943  1.6034
57101SOL     OW83027  10.346  10.112   0.756  0.6041 -0.1221 -0.0664
57101SOL    HW183028  10.265  10.148   0.793 -0.2007  0.5902 -2.3645
57101SOL    HW283029  10.377  10.050   0.822 -2.8360 -1.8737  0.1302
57102SOL     OW83030   7.413   1.497   9.400  0.5857 -0.3234 -0.1181
57102SOL    HW183031   7.410   1.587   9.370 -0.8091 -0.0224  0.8757
57102SOL    HW283032   7.341   1.453   9.355  2.2874 -1.4145 -1.9366
57103SOL     OW83033   1.370   2.305   5.076  0.5140  0.2595  0.0398
57103SOL    HW183034   1.338   2.237   5.016  1.3130 -0.6281  0.5841
57103SOL    HW283035   1.439   2.350   5.027  2.1224 -1.3457  0.6791
57104SOL     OW83036   0.476   2.598   0.743 -0.4827 -0.1015 -0.2279
57104SOL    HW183037   0.551   2.565   0.692  0.4700 -0.3656  1.2917
57104SOL    HW283038   0.469   2.690   0.718  1.1696  0.2650  0.5303
57105SOL     OW83039   4.681  10.180   9.690  0.0814  0.2948  0.0230
57105SOL    HW183040   4.656  10.271   9.674  0.6382  0.5038  0.3096
57105SOL    HW283041   4.708  10.178   9.782 -1.3731 -0.4983  0.4587
57106SOL     OW83042  10.375  11.830   9.652  0.3743  0.2800 -0.1959
57106SOL    HW183043  10.315  11.813   9.725 -0.4086  2.2604 -0.3275
57106SOL    HW283044  10.419  11.912   9.675  0.7103  0.5219 -1.5853
57107SOL     OW83045   3.365   0.935   3.390 -0.5792 -0.0556 -0.1343
57107SOL    HW183046   3.403   0.966   3.308  0.5135 -2.1925 -0.5098
57107SOL    HW283047   3.284   0.891   3.364 -1.4684  1.3131  0.2421
57108SOL     OW83048   4.116   6.418   0.482 -0.0767  0.0880  0.6144
57108SOL    HW183049   4.164   6.488   0.525 -0.9342  0.2117  1.4192
57108SOL    HW283050   4.105   6.351   0.549 -2.2372  0.6776  0.9266
57109SOL     OW83051   5.424  11.598   6.715  0.2791  0.2644  0.2123
57109SOL    HW183052   5.389  11.687   6.712 -0.7128 -0.1261 -0.0647
57109SOL    HW283053   5.397  11.564   6.800 -0.4160 -0.1823 -0.1705
57110SOL     OW83054  12.114  10.080   6.720 -0.1219 -0.4726 -0.0984
57110SOL    HW183055  12.073   9.998   6.747 -1.1434 -0.2098 -0.8003
57110SOL    HW283056  12.160  10.059   6.639  0.9346 -0.7062  0.5521
57111SOL     OW83057   8.754   6.021  11.233 -0.0957 -0.3777  0.2279
57111SOL    HW183058   8.675   6.074  11.217  0.4530  0.4963  0.3479
57111SOL    HW283059   8.764   6.022  11.328  1.1170  1.1304  0.1189
57112SOL     OW83060  12.613   9.631   6.858 -0.3467  0.2227 -0.0503
57112SOL    HW183061  12.662   9.626   6.776 -0.0586  1.2298  0.0416
57112SOL    HW283062  12.639   9.553   6.907 -0.2269 -0.1887 -0.7523
57113SOL     OW83063   7.245  13.332  10.673  0.4609 -0.4017  0.1532
57113SOL    HW183064   7.222  13.255  10.725 -0.2924 -1.1738 -1.2591
57113SOL    HW283065   7.330  13.311  10.634  1.6854  0.7298  2.0582
57114SOL     OW83066   6.668   1.562   5.355  0.3006 -0.1621  0.2453
57114SOL    HW183067   6.604   1.559   5.426  0.7161  0.7881  0.6737
57114SOL    HW283068   6.735   1.499   5.382  0.8708  0.7926  1.1235
57115SOL     OW83069   7.098   6.133   6.377  0.9158  0.0835 -0.4459
57115SOL    HW183070   7.057   6.112   6.294  2.1578  2.1859 -1.6775
57115SOL    HW283071   7.188   6.157   6.355  0.9995  1.6993  1.3272
57116SOL     OW83072   3.475   8.858  10.660  0.1200 -0.6055 -0.2021
57116SOL    HW183073   3.507   8.870  10.571  1.3083 -2.0706 -0.0092
57116SOL    HW283074   3.397   8.914  10.665  1.2408  1.1740 -1.4587
57117SOL     OW83075   2.430   7.017   5.881 -0.0125  0.4528  0.0892
57117SOL    HW183076   2.354   7.012   5.822  0.1291  2.3706 -0.3111
57117SOL    HW283077   2.399   6.976   5.962 -1.2087  0.4654 -0.3350
57118SOL     OW83078   7.338   3.120   5.928 -0.0187  0.1053 -0.3989
57118SOL    HW183079   7.365   3.090   6.015 -1.6734  1.5802  0.6953
57118SOL    HW283080   7.411   3.174   5.898  0.0812  0.5408  0.5911
57119SOL     OW83081   2.952   5.202   0.987 -0.0372  0.4248 -0.4070
57119SOL    HW183082   2.995   5.287   0.998  0.2590  0.3410 -0.8943
57119SOL    HW283083   2.968   5.156   1.069 -1.1565  1.2511  0.3080
57120SOL     OW83084   9.847   0.437   3.402 -0.4944 -0.8609  0.3803
57120SOL    HW183085   9.854   0.502   3.332  1.2821 -0.8642  0.5074
57120SOL    HW283086   9.844   0.353   3.357  0.2757 -0.8409  0.2739
57121SOL     OW83087   7.931   4.820  13.110 -0.1401 -0.0157 -0.1609
57121SOL    HW183088   7.935   4.871  13.029 -2.0452  1.4927  0.6001
57121SOL    HW283089   7.914   4.730  13.082  0.9379  0.1636 -1.4700
57122SOL     OW83090   7.707   6.621  12.359  0.8863  0.2109  0.0889
57122SOL    HW183091   7.758   6.694  12.323  2.4860 -0.2626  1.2667
57122SOL    HW283092   7.771   6.551  12.371 -0.1409 -0.5683  1.2238
57123SOL     OW83093   1.018   0.337   0.242 -0.1162 -0.1189 -0.8685
57123SOL    HW183094   0.961   0.318   0.317  0.7548 -1.0096 -0.4065
57123SOL    HW283095   1.014   0.259   0.188  1.8657 -0.8670 -0.0245
57124SOL     OW83096  12.245   7.236   9.464  0.1607 -0.3041  0.2560
57124SOL    HW183097  12.326   7.283   9.442 -0.1270  0.3572  0.6095
57124SOL    HW283098  12.189   7.248   9.387 -0.0464  0.2383  0.4865
57125SOL     OW83099  11.668   5.712   7.809 -0.1118 -0.1944  0.1303
57125SOL    HW183100  11.595   5.730   7.749 -0.2865  0.5560  0.5562
57125SOL    HW283101  11.634   5.733   7.896  0.2531 -0.9433  0.4654
57126SOL     OW83102   2.327  12.520   9.162  0.1646  0.3442 -0.3336
57126SOL    HW183103   2.300  12.571   9.086  0.4076 -2.3122 -2.3355
57126SOL    HW283104   2.266  12.546   9.231 -0.2171  2.6631 -1.4467
57127SOL     OW83105   1.920   1.382   3.306  0.4258  0.5157  0.6019
57127SOL    HW183106   1.923   1.476   3.324  0.2933  0.5508  0.4406
57127SOL    HW283107   2.009   1.352   3.322  1.1644  1.1296 -1.9019
57128SOL     OW83108   8.343  11.935  11.994  0.2509  0.8146 -0.1108
57128SOL    HW183109   8.258  11.898  12.013  0.0787  1.9978  1.6484
57128SOL    HW283110   8.329  11.987  11.915 -0.1678 -0.4908 -0.9260
57129SOL     OW83111   6.510   1.955   3.420 -0.0884  0.0895 -0.3219
57129SOL    HW183112   6.563   1.884   3.385  0.9420 -0.2231  1.7691
57129SOL    HW283113   6.559   1.989   3.494 -1.9272  1.0549  0.5340
57130SOL     OW83114  13.303   3.843   1.620  0.0775  0.3758  0.2084
57130SOL    HW183115  13.310   3.937   1.604  0.8252  0.1825 -0.7199
57130SOL    HW283116  13.213   3.829   1.648  0.2035  1.4850  1.2273
57131SOL     OW83117   0.464  10.456  13.093 -0.2037 -0.2851 -0.5637
57131SOL    HW183118   0.466  10.522  13.024  0.2129 -1.4296 -1.6672
57131SOL    HW283119   0.556  10.437  13.110 -0.2285  0.8078  1.1717
57132SOL     OW83120   9.575   4.111   8.908 -0.2369 -0.1145 -0.1514
57132SOL    HW183121   9.631   4.179   8.871  0.6656 -0.8719 -0.1913
57132SOL    HW283122   9.594   4.113   9.002 -0.0782 -0.4370 -0.1769
57133SOL     OW83123  12.066  11.862   1.732  0.2877  0.7602  0.1724
57133SOL    HW183124  12.006  11.848   1.805  0.6905  1.0081  0.5500
57133SOL    HW283125  12.149  11.826   1.762  0.7541  1.8807  0.2783
57134SOL     OW83126   0.046   0.921  13.066  0.4128  0.1088  0.7687
57134SOL    HW183127   0.031   1.005  13.022 -2.2140 -1.6680 -2.1167
57134SOL    HW283128   0.140   0.919  13.082  0.9682  2.4667 -1.5557
57135SOL     OW83129   7.446  13.474   4.777 -0.0781 -0.0003 -0.2509
57135SOL    HW183130   7.397  13.556   4.786  0.5895  0.4444 -0.6246
57135SOL    HW283131   7.513  13.493   4.712 -0.2683 -1.0176 -0.7656
57136SOL     OW83132   3.857   6.079   2.741 -0.0098 -0.0746 -0.3569
57136SOL    HW183133   3.830   6.171   2.732 -0.5797 -0.1126  0.7970
57136SOL    HW283134   3.812   6.034   2.670 -0.1489  0.4566 -0.6121
57137SOL     OW83135   6.983  13.321   1.217 -0.1131  0.7903 -0.0371
57137SOL    HW183136   6.992  13.255   1.148  0.9936 -0.6539  1.3899
57137SOL    HW283137   7.018  13.401   1.179 -0.3048  0.2566 -1.4059
57138SOL     OW83138   2.698  10.768   8.919  0.0899 -0.2800 -0.1469
57138SOL    HW183139   2.665  10.851   8.885 -0.5285 -0.2227  0.5635
57138SOL    HW283140   2.668  10.765   9.010 -1.0946 -1.8953 -0.5391
57139SOL     OW83141   4.015   1.550   7.018 -0.5767  0.1011  0.1852
57139SOL    HW183142   4.021   1.644   7.002 -1.1726  0.2620  0.8212
57139SOL    HW283143   3.948   1.542   7.087  0.7814 -0.6478  1.4729
57140SOL     OW83144   3.910   4.765  10.113 -0.7105  0.1337  0.2522
57140SOL    HW183145   3.957   4.685  10.135  0.5331  0.8792  0.4236
57140SOL    HW283146   3.865   4.790  10.194 -2.0295 -0.9658 -0.1086
57141SOL     OW83147   1.460  11.079  12.834 -0.1482 -0.0621 -0.4930
57141SOL    HW183148   1.541  11.129  12.846 -0.2948  0.3474 -1.1663
57141SOL    HW283149   1.435  11.054  12.923 -0.7467  2.1362  0.0120
57142SOL     OW83150   2.882   0.361   0.673  0.4076  0.4036  0.3242
57142SOL    HW183151   2.870   0.275   0.712  3.3946  0.0172  0.6089
57142SOL    HW283152   2.905   0.343   0.582  0.6149  0.9163  0.2701
57143SOL     OW83153   6.479   8.746   8.550 -0.2762 -0.5735 -0.1520
57143SOL    HW183154   6.500   8.654   8.534 -0.9826 -1.0384  1.4526
57143SOL    HW283155   6.387   8.754   8.527 -0.4958 -0.5276  0.7197
57144SOL     OW83156  10.614   1.662   8.940 -0.0152 -0.0437  0.2157
57144SOL    HW183157  10.582   1.696   9.024 -0.9135  0.2938 -0.2508
57144SOL    HW283158  10.611   1.567   8.951  1.6648 -0.0305  1.2077
57145SOL     OW83159   2.975  12.715   9.158  0.0188  0.0495  0.5873
57145SOL    HW183160   2.959  12.700   9.251 -1.7743 -2.2571 -0.0039
57145SOL    HW283161   2.923  12.792   9.137  1.5805  1.4966  1.7167
57146SOL     OW83162   8.063   6.414   0.870  0.6454 -0.0526  0.0394
57146SOL    HW183163   8.127   6.343   0.874  0.2022 -0.4523  0.1921
57146SOL    HW283164   7.984   6.372   0.836 -0.4084 -0.2318  2.5096
57147SOL     OW83165  13.575   4.984  10.157  0.2677 -0.4580 -0.1169
57147SOL    HW183166  13.562   5.046  10.228 -0.9806  0.4511 -1.0983
57147SOL    HW283167  13.502   4.922  10.166 -0.1183 -0.1104 -0.8294
57148SOL     OW83168   8.306   2.834   2.602 -0.0448  0.9246 -0.2146
57148SOL    HW183169   8.303   2.789   2.686  2.4191  1.1413  0.0593
57148SOL    HW283170   8.214   2.851   2.581 -0.8032 -0.4404  1.6946
57149SOL     OW83171   1.617   8.927  13.215  0.0532 -0.2400 -0.0050
57149SOL    HW183172   1.610   9.009  13.263 -0.5043 -0.7826  0.8604
57149SOL    HW283173   1.632   8.953  13.124 -3.4707  0.9193 -0.3731
57150SOL     OW83174   0.665   5.932   3.816  0.0175  0.4858  0.1755
57150SOL    HW183175   0.582   5.911   3.859 -0.9592 -0.8521 -2.1785
57150SOL    HW283176   0.642   5.946   3.724  2.1001  2.4738 -0.1209
57151SOL     OW83177  10.443   4.692   7.837  0.7078 -0.2572  0.2067
57151SOL    HW183178  10.397   4.762   7.790  0.7945 -0.6083 -0.4162
57151SOL    HW283179  10.383   4.616   7.831 -0.3087  0.2598  2.5850
57152SOL     OW83180   9.478   4.682  12.475  0.0924  0.0803 -0.3229
57152SOL    HW183181   9.570   4.696  12.455  0.3938 -0.6981  0.4245
57152SOL    HW283182   9.457   4.747  12.542  0.9521 -1.5962  1.7070
57153SOL     OW83183   5.810  12.402   3.660 -0.1668 -0.4925 -0.1031
57153SOL    HW183184   5.760  12.390   3.740  1.5114  1.9825  1.4572
57153SOL    HW283185   5.744  12.427   3.595 -1.4002 -1.2102  0.8219
57154SOL     OW83186  12.419   3.966   0.790 -0.0905  0.0342  0.3285
57154SOL    HW183187  12.400   4.030   0.859 -2.6224  0.7635 -0.8989
57154SOL    HW283188  12.393   3.882   0.828  0.3632  0.1524  0.9145
57155SOL     OW83189   6.763  10.096   9.719 -0.5829  0.5451  0.1043
57155SOL    HW183190   6.737  10.004   9.724 -0.1352  0.4825  1.9888
57155SOL    HW283191   6.722  10.128   9.638 -0.9112 -1.2405 -0.4853
57156SOL     OW83192   0.956   5.918   8.385 -0.1823  0.9235  0.3866
57156SOL    HW183193   0.878   5.928   8.440 -0.2026  0.4920  0.4359
57156SOL    HW283194   0.935   5.848   8.325 -1.1588  3.0384 -1.9086
57157SOL     OW83195   5.985   2.097   4.514 -0.3034 -0.3371 -0.3050
57157SOL    HW183196   6.057   2.053   4.561 -1.0490 -3.1399 -1.6214
57157SOL    HW283197   6.024   2.126   4.432  0.1656  1.5673  0.5249
57158SOL     OW83198   9.193   2.761   8.470  0.2050  0.5734  0.3760
57158SOL    HW183199   9.286   2.778   8.459 -0.0910  2.4827  0.3710
57158SOL    HW283200   9.155   2.781   8.384 -0.2376  0.0627  0.4483
57159SOL     OW83201   3.876  12.880   3.886 -0.2552 -0.4071 -0.0453
57159SOL    HW183202   3.825  12.866   3.966  0.5800  0.4644  0.6490
57159SOL    HW283203   3.836  12.956   3.845 -0.3520 -0.5401 -0.2022
57160SOL     OW83204  13.326   5.292   4.411  0.2404 -0.1318  0.0511
57160SOL    HW183205  13.326   5.238   4.332  2.3286  2.1650 -1.6882
57160SOL    HW283206  13.396   5.355   4.397 -0.5886  1.6366  2.9226
57161SOL     OW83207   5.374  10.192   9.429 -0.9534 -0.2654  0.7541
57161SOL    HW183208   5.461  10.155   9.415 -1.2538 -0.5057 -0.5477
57161SOL    HW283209   5.364  10.193   9.525 -0.0620 -1.4902  0.8884
57162SOL     OW83210  10.489   2.773  11.282  0.2479  0.0152  0.7643
57162SOL    HW183211  10.437   2.782  11.202 -0.3167  0.1071  1.1307
57162SOL    HW283212  10.578   2.754  11.252 -0.1025 -0.6649  0.1225
57163SOL     OW83213  13.615   6.198   0.282 -0.1707 -0.0607  0.7591
57163SOL    HW183214  13.522   6.189   0.305 -0.5712  0.5406 -0.4819
57163SOL    HW283215  13.654   6.242   0.357 -0.7202 -1.0220  1.6276
57164SOL     OW83216   0.444   9.985   7.793 -0.8339 -0.0172 -0.4453
57164SOL    HW183217   0.510  10.013   7.729 -0.8672 -0.0771 -0.5051
57164SOL    HW283218   0.493   9.978   7.875 -0.5889 -0.8377 -0.6519
57165SOL     OW83219  10.158   0.191   3.381 -0.0394  0.6372 -0.6015
57165SOL    HW183220  10.090   0.138   3.424  0.5728  0.0502 -0.3414
57165SOL    HW283221  10.112   0.238   3.312 -0.0727 -2.7436 -3.1004
57166SOL     OW83222  11.413   5.130   2.353 -0.1784 -0.6076 -0.2265
57166SOL    HW183223  11.484   5.193   2.369  0.7829 -1.8238  0.4146
57166SOL    HW283224  11.339   5.166   2.401  0.4311 -0.0892  0.3595
57167SOL     OW83225   5.899   0.532  10.578 -0.2337  0.1849 -0.6774
57167SOL    HW183226   5.900   0.481  10.498 -1.8775  1.5874 -1.6729
57167SOL    HW283227   5.833   0.600  10.562  1.9675  2.7639  0.4702
57168SOL     OW83228   4.834   2.544   7.305 -0.1685  0.1458 -0.2863
57168SOL    HW183229   4.788   2.481   7.250  0.8204 -1.1710  0.3360
57168SOL    HW283230   4.855   2.496   7.384  1.0347  1.1296  0.0221
57169SOL     OW83231   7.981   0.162   6.430  0.2149  0.1926  0.0494
57169SOL    HW183232   7.970   0.136   6.521 -1.2719  1.3455  0.2338
57169SOL    HW283233   8.061   0.216   6.430  2.4466 -2.8712 -0.0790
57170SOL     OW83234   3.758   2.603   7.891  0.2481  0.5995  0.3308
57170SOL    HW183235   3.736   2.517   7.926 -0.2099  0.0687 -1.1489
57170SOL    HW283236   3.844   2.623   7.928  1.0210 -1.1525 -0.3849
57171SOL     OW83237  13.355  12.874   3.654  0.0595  0.3395 -0.5981
57171SOL    HW183238  13.267  12.838   3.648  0.5082 -0.6599 -1.5762
57171SOL    HW283239  13.407  12.804   3.694  0.8361  0.0557 -2.0292
57172SOL     OW83240  10.312   6.088  11.227 -0.4122  0.0507  0.3936
57172SOL    HW183241  10.218   6.086  11.211 -0.8820  1.3508  2.5486
57172SOL    HW283242  10.347   6.142  11.156 -1.4358  0.4495  0.1778
57173SOL     OW83243   5.867   0.744   2.577  0.7455  0.1785 -0.1086
57173SOL    HW183244   5.846   0.838   2.584 -1.2036 -0.2944  1.1549
57173SOL    HW283245   5.878   0.729   2.484  1.2648  1.6981 -0.3260
57174SOL     OW83246  12.209   7.413   9.179 -0.2221 -0.6413 -0.3285
57174SOL    HW183247  12.297   7.399   9.143  0.2563 -1.2738  1.0120
57174SOL    HW283248  12.159   7.336   9.150 -0.3778 -0.2392 -1.1639
57175SOL     OW83249   7.696   1.424  10.959 -0.1596  0.9087 -0.0496
57175SOL    HW183250   7.650   1.452  10.880 -0.4958  0.3576 -0.0537
57175SOL    HW283251   7.652   1.472  11.030 -1.0713  0.0414 -0.0013
57176SOL     OW83252  11.677   2.275   8.014  0.4645 -0.6101 -0.1610
57176SOL    HW183253  11.720   2.281   7.928  0.7427  1.3594  0.0725
57176SOL    HW283254  11.738   2.225   8.068  0.3669 -1.7168 -1.0442
57177SOL     OW83255   7.663  10.442  10.922  0.1068 -0.0191 -0.9737
57177SOL    HW183256   7.691  10.469  11.009 -0.5061  1.7258 -1.2867
57177SOL    HW283257   7.735  10.388  10.890  0.4891 -0.4204  0.4703
57178SOL     OW83258   3.998  11.477   4.322  0.0202 -0.5249 -0.0799
57178SOL    HW183259   4.087  11.500   4.348  0.0555 -0.9789  0.2063
57178SOL    HW283260   3.964  11.426   4.396 -0.6637  0.1043  0.0554
57179SOL     OW83261   9.807   1.994  11.330  0.4826  0.4351  0.1830
57179SOL    HW183262   9.712   2.008  11.324  0.6070  1.1385 -0.2282
57179SOL    HW283263   9.822   1.968  11.421 -0.0463  0.7682  0.3688
57180SOL     OW83264   3.863   1.917   0.933  0.6895 -0.6003 -0.0103
57180SOL    HW183265   3.810   1.941   1.009  2.4469 -0.7511  1.3115
57180SOL    HW283266   3.922   1.992   0.921 -0.0037 -0.2796 -1.6738
57181SOL     OW83267   7.799   7.623   4.824  0.3080 -0.5111 -0.3174
57181SOL    HW183268   7.787   7.670   4.741 -0.8583 -2.0541 -1.0775
57181SOL    HW283269   7.834   7.689   4.884  2.5111  0.3390 -2.3687
57182SOL     OW83270   1.480   4.530   8.428  0.1461 -0.1291 -0.0939
57182SOL    HW183271   1.459   4.436   8.432 -0.0853 -0.0942 -0.5161
57182SOL    HW283272   1.504   4.552   8.518 -4.5223  0.5427  1.2334
57183SOL     OW83273  12.524  10.445   7.307 -0.9792  0.3840 -0.1361
57183SOL    HW183274  12.553  10.370   7.255  0.3507  1.2474 -0.7148
57183SOL    HW283275  12.514  10.410   7.396  1.1722 -0.2018 -0.0522
57184SOL     OW83276   5.046  11.621   2.673 -0.1239  0.0884 -0.5251
57184SOL    HW183277   5.019  11.535   2.705 -1.0002  1.0867  1.6167
57184SOL    HW283278   5.141  11.618   2.672 -0.0726 -0.2273  1.6461
57185SOL     OW83279   4.674   4.775   6.998  0.0336  0.4524 -0.4040
57185SOL    HW183280   4.586   4.755   7.031 -0.2258 -0.0916 -1.3846
57185SOL    HW283281   4.733   4.740   7.065 -0.4918  0.0555 -0.1379
57186SOL     OW83282   8.153  12.602   9.346 -0.2381 -0.6288  0.1517
57186SOL    HW183283   8.151  12.678   9.404  0.1977 -1.1343  0.8485
57186SOL    HW283284   8.152  12.527   9.405 -0.0898 -1.1616 -0.5119
57187SOL     OW83285   1.153   4.737   3.332  0.5223  0.1396 -0.2691
57187SOL    HW183286   1.241   4.759   3.300  1.3662 -0.6066  1.4414
57187SOL    HW283287   1.162   4.650   3.369 -0.5867  0.6217  1.2166
57188SOL     OW83288  12.592   2.441  12.895  0.5139 -0.4961 -0.0084
57188SOL    HW183289  12.687   2.445  12.908  0.9378 -0.2229 -2.5304
57188SOL    HW283290  12.579   2.484  12.810 -1.5500 -2.9355 -1.0194
57189SOL     OW83291   7.563   0.468   6.873 -0.1368  0.2977  0.4794
57189SOL    HW183292   7.511   0.388   6.870  1.2017 -0.7331  2.5421
57189SOL    HW283293   7.565   0.492   6.965  2.1100  0.9071  0.3332
57190SOL     OW83294   5.441   8.715   8.398  0.0790 -0.7760 -0.9024
57190SOL    HW183295   5.528   8.676   8.390  1.8855  2.5376  0.5769
57190SOL    HW283296   5.389   8.673   8.330  3.2102 -1.9062 -2.7859
57191SOL     OW83297   9.361   1.476  11.365  0.1111  0.3358  0.0033
57191SOL    HW183298   9.434   1.415  11.358  0.3850  0.5928  0.5333
57191SOL    HW283299   9.315   1.468  11.282 -0.4441 -1.3294  0.4253
57192SOL     OW83300   8.627  11.579   0.763 -0.7243  0.6040  0.3858
57192SOL    HW183301   8.553  11.567   0.704  0.0236  3.4036 -1.3036
57192SOL    HW283302   8.587  11.602   0.847 -1.7734  0.2724 -0.0065
57193SOL     OW83303   2.655  10.792   6.328  0.6258 -0.2957  0.4734
57193SOL    HW183304   2.731  10.824   6.376  0.0445  2.2941 -0.2007
57193SOL    HW283305   2.663  10.831   6.241 -0.7365 -1.1532 -0.0756
57194SOL     OW83306   9.031   6.928   2.240 -0.0209 -0.7107  0.3002
57194SOL    HW183307   9.083   6.907   2.161  1.0318  2.3102  0.0761
57194SOL    HW283308   9.094   6.923   2.312 -0.3135 -0.6735  0.5617
57195SOL     OW83309   8.751  12.329   7.838 -0.6644  0.0430 -0.5210
57195SOL    HW183310   8.682  12.263   7.823  0.1963 -1.0130  0.0135
57195SOL    HW283311   8.773  12.320   7.931  0.8074 -0.2757 -0.8715
57196SOL     OW83312   3.260   2.421   3.710 -0.1123 -0.2900 -0.0910
57196SOL    HW183313   3.316   2.359   3.664  0.5931  0.5628 -0.4047
57196SOL    HW283314   3.297   2.507   3.690 -1.0183  0.2338  0.4063
57197SOL     OW83315   0.165   6.769  11.505  0.0742 -0.5324 -0.0046
57197SOL    HW183316   0.125   6.692  11.545 -0.8691  0.7161  1.6069
57197SOL    HW283317   0.100   6.839  11.518  2.1600  1.2976  1.5710
57198SOL     OW83318   8.864   4.235  11.500 -0.1183 -0.4955  0.3497
57198SOL    HW183319   8.885   4.153  11.457  0.4234 -0.2370  0.1081
57198SOL    HW283320   8.848   4.297  11.428  1.9310  0.2377  0.4516
57199SOL     OW83321  13.127   5.568  11.119 -0.2112 -0.0034  0.3828
57199SOL    HW183322  13.117   5.531  11.207 -1.5871 -1.6386 -0.4088
57199SOL    HW283323  13.103   5.660  11.130 -2.2593 -0.5741  1.4310
57200SOL     OW83324  12.962   1.001   2.608 -0.4174 -0.1101 -0.0275
57200SOL    HW183325  12.913   1.079   2.582  2.2911  1.1465 -1.7954
57200SOL    HW283326  12.979   1.015   2.701 -1.2159  0.6632  0.0273
57201SOL     OW83327   2.330   2.105   5.951  0.0791 -0.2952 -1.2258
57201SOL    HW183328   2.365   2.018   5.934 -0.4955 -0.5554 -1.1073
57201SOL    HW283329   2.407   2.161   5.960  0.5309 -1.1888  0.8749
57202SOL     OW83330   8.484  10.488   4.059 -0.5545  0.6134  0.1953
57202SOL    HW183331   8.394  10.461   4.079 -0.6139  0.9440  0.3806
57202SOL    HW283332   8.477  10.582   4.041 -0.3900  0.4631 -0.6806
57203SOL     OW83333   9.076   7.141   5.327 -0.2994 -0.2115 -0.1034
57203SOL    HW183334   8.999   7.176   5.372 -0.6502 -2.4004  1.1754
57203SOL    HW283335   9.082   7.191   5.246 -0.8562  2.5487  1.4419
57204SOL     OW83336   2.172   6.480   4.209 -0.4251  0.0015 -0.5785
57204SOL    HW183337   2.169   6.563   4.162  1.3778  0.7918  0.5855
57204SOL    HW283338   2.094   6.433   4.180 -1.7454  2.2806 -0.9444
57205SOL     OW83339  10.098  11.213   3.489 -0.1944  0.3966 -0.5522
57205SOL    HW183340  10.042  11.257   3.552 -1.1742  0.0250 -1.1426
57205SOL    HW283341  10.171  11.180   3.541 -1.6606 -1.1050  0.6419
57206SOL     OW83342  11.455   1.806   4.881  0.5806 -0.3386 -0.3464
57206SOL    HW183343  11.493   1.832   4.965  0.1451  0.2101 -0.3145
57206SOL    HW283344  11.527   1.812   4.819  0.6217  0.4099 -0.2361
57207SOL     OW83345  13.419   4.093   5.629 -0.3435  0.2590 -0.2624
57207SOL    HW183346  13.376   4.008   5.620  0.4408 -0.2064  0.2150
57207SOL    HW283347  13.477   4.099   5.553 -0.0890  0.1725 -0.0777
57208SOL     OW83348   5.943  13.370   0.047 -0.1406 -0.2481 -0.4202
57208SOL    HW183349   5.971  13.321   0.124  0.6385  2.6093  1.2862
57208SOL    HW283350   6.022  13.416   0.018 -1.4392  2.6821  0.3156
57209SOL     OW83351  13.356   6.130   7.022 -0.0331  0.0540  0.2788
57209SOL    HW183352  13.264   6.144   7.000 -0.6528 -0.1860  2.5171
57209SOL    HW283353  13.397   6.216   7.014 -0.4526  0.1779 -0.6214
57210SOL     OW83354  12.890  10.030  11.912 -0.0876  1.0213 -0.2644
57210SOL    HW183355  12.834  10.092  11.959  1.2283  1.5015  0.7346
57210SOL    HW283356  12.934   9.981  11.981 -0.5070 -0.5180 -1.0379
57211SOL     OW83357  13.236   2.581   2.632 -0.1397  0.0080  0.4712
57211SOL    HW183358  13.261   2.564   2.542  1.4039  1.6811  0.5104
57211SOL    HW283359  13.307   2.636   2.667 -1.2816  0.4272  2.3241
57212SOL     OW83360   3.450   9.623  11.560 -0.2954 -0.7111  0.2233
57212SOL    HW183361   3.493   9.706  11.581 -1.6927  0.0656  0.1339
57212SOL    HW283362   3.385   9.646  11.494  1.4524 -2.4564 -2.2810
57213SOL     OW83363   4.084   3.655   8.786  0.3756 -0.4945  0.2921
57213SOL    HW183364   4.045   3.568   8.787 -0.7575 -0.0015  0.8050
57213SOL    HW283365   4.038   3.701   8.716 -0.5944  0.3462  1.4308
57214SOL     OW83366   9.779  11.741  12.981  0.0406  0.9151 -0.7143
57214SOL    HW183367   9.757  11.694  13.062 -2.0475  2.0650 -0.5469
57214SOL    HW283368   9.839  11.810  13.009 -1.4176  1.9133  0.0780
57215SOL     OW83369  12.639   8.787  12.378  0.3432  0.7942  0.5840
57215SOL    HW183370  12.591   8.867  12.401  1.6496  1.4189  1.2572
57215SOL    HW283371  12.671   8.754  12.461 -0.0115 -0.3349  0.2806
57216SOL     OW83372   4.537   0.470   7.737 -0.1322  0.3518  0.2003
57216SOL    HW183373   4.475   0.400   7.719  1.8161 -1.2325 -0.8127
57216SOL    HW283374   4.547   0.471   7.832 -0.4113 -0.5706  0.2440
57217SOL     OW83375   8.559   0.372  12.951  0.4231 -0.1249  0.1416
57217SOL    HW183376   8.495   0.434  12.985 -0.9865 -0.8136 -1.1188
57217SOL    HW283377   8.537   0.289  12.991  2.2987  0.1079  1.8101
57218SOL     OW83378   6.578  13.125   6.547 -0.3029  0.1168  0.3757
57218SOL    HW183379   6.498  13.075   6.564  0.0957 -0.9420 -0.6905
57218SOL    HW283380   6.612  13.148   6.634 -0.4926 -1.5081  0.9139
57219SOL     OW83381   8.362   2.808   5.254  0.3994 -0.1035 -0.1148
57219SOL    HW183382   8.363   2.886   5.310 -1.2688 -0.3217  0.2591
57219SOL    HW283383   8.285   2.758   5.282  2.4859 -2.9290  1.0154
57220SOL     OW83384   6.077   0.964  10.667  0.5763  0.7452  0.5127
57220SOL    HW183385   6.117   1.007  10.592  0.1464  1.0930  0.4827
57220SOL    HW283386   5.992   0.934  10.636  0.4274  0.8251  0.8393
57221SOL     OW83387   7.013   4.702  12.415  0.2336  0.0415 -0.2059
57221SOL    HW183388   6.954   4.678  12.343 -0.6963  0.3567  0.4425
57221SOL    HW283389   7.100   4.697  12.376 -0.2712  0.4704 -1.4420
57222SOL     OW83390  13.378   9.065  13.613  0.0160 -0.5619 -0.3506
57222SOL    HW183391  13.310   9.077  13.547 -0.4597 -0.2166  0.1911
57222SOL    HW283392  13.427   9.147  13.611 -0.5080 -0.2223  0.2860
57223SOL     OW83393  10.403   0.692   0.786  0.0222  0.1282  0.2916
57223SOL    HW183394  10.461   0.669   0.860  1.4607  1.8522 -0.2366
57223SOL    HW283395  10.328   0.634   0.797 -0.0479  0.6162  3.3940
57224SOL     OW83396   3.690   2.316  12.088  0.0427  0.2543 -0.7072
57224SOL    HW183397   3.746   2.387  12.119 -0.1996  0.1241  0.0310
57224SOL    HW283398   3.648   2.282  12.166 -1.0653  0.3429 -1.2467
57225SOL     OW83399   4.747  13.709   0.974 -0.1114  0.1344  0.1081
57225SOL    HW183400   4.652  13.701   0.968 -0.2357  0.3731  1.4870
57225SOL    HW283401   4.768  13.784   0.918 -0.5844 -0.5961 -1.0907
57226SOL     OW83402   1.157  11.119   2.433 -0.3567  0.1938  0.0962
57226SOL    HW183403   1.252  11.114   2.422 -0.3976 -0.8871  0.2103
57226SOL    HW283404   1.144  11.192   2.494  0.2785  1.5382 -1.3055
57227SOL     OW83405   6.143  13.043   1.759 -0.2126  0.1807  0.0658
57227SOL    HW183406   6.202  13.001   1.822 -1.8655 -0.0435  1.5160
57227SOL    HW283407   6.184  13.025   1.674  1.4865 -0.4767  0.9646
57228SOL     OW83408   6.375   9.188   2.335  0.7047  0.0242 -0.3084
57228SOL    HW183409   6.302   9.220   2.388  0.7238 -1.8151  0.9426
57228SOL    HW283410   6.365   9.232   2.251 -1.4137  0.3812  0.0744
57229SOL     OW83411   5.517  11.437   1.235  0.5842 -0.0053 -0.0123
57229SOL    HW183412   5.516  11.531   1.217  1.3176  0.2036  0.9336
57229SOL    HW283413   5.439  11.422   1.288  0.4277  0.0578 -0.2240
57230SOL     OW83414   6.379   7.005   0.839  0.3100 -0.5798  0.5447
57230SOL    HW183415   6.290   6.993   0.871 -0.0293  0.8330  0.2050
57230SOL    HW283416   6.408   6.916   0.816 -0.2588 -1.3284  2.4963
57231SOL     OW83417   6.563   8.600   3.738 -0.2270 -0.0455 -0.1751
57231SOL    HW183418   6.543   8.693   3.742 -0.3325 -0.1156  1.4272
57231SOL    HW283419   6.478   8.557   3.734 -0.2274 -0.1330  0.7569
57232SOL     OW83420   2.593   2.463  13.056 -0.2763  0.1161  0.3257
57232SOL    HW183421   2.662   2.430  12.998 -0.2883  0.3766  0.1590
57232SOL    HW283422   2.609   2.420  13.140 -0.3872 -0.4312  0.0690
57233SOL     OW83423   2.268   0.624   4.954  0.2534 -0.1547  0.1744
57233SOL    HW183424   2.328   0.580   4.894  0.6606  1.1583 -0.4134
57233SOL    HW283425   2.323   0.685   5.003 -0.5433  0.9246 -0.2303
57234SOL     OW83426   2.732   5.655   8.665 -0.4276  0.0873  0.3581
57234SOL    HW183427   2.780   5.578   8.696 -1.5432 -0.8774 -0.2000
57234SOL    HW283428   2.640   5.630   8.671 -0.7725  0.7109 -1.4738
57235SOL     OW83429   0.222   0.307   5.409 -0.7231  0.4394 -0.4452
57235SOL    HW183430   0.312   0.339   5.401 -0.0564 -1.3508 -0.5773
57235SOL    HW283431   0.168   0.386   5.405  0.8075  1.5128 -0.8832
57236SOL     OW83432  12.522   9.438   6.226  0.0297  0.2458 -0.0709
57236SOL    HW183433  12.500   9.408   6.315  0.8540 -3.8363 -1.0430
57236SOL    HW283434  12.449   9.407   6.172  1.0234 -0.1885 -1.2164
57237SOL     OW83435   9.909   5.523   4.436 -0.2307  0.5444  0.0518
57237SOL    HW183436   9.964   5.496   4.362 -0.2621  1.7273 -0.4096
57237SOL    HW283437   9.889   5.615   4.420 -1.1378  0.5290  0.9806
57238SOL     OW83438  13.033   8.064  13.412 -0.1783  0.2616 -0.4078
57238SOL    HW183439  13.042   8.117  13.333 -0.1857  1.1488  0.1657
57238SOL    HW283440  12.952   8.096  13.453 -1.3112 -1.5938 -1.0593
57239SOL     OW83441   0.107  12.187   2.412 -0.0396 -0.4124  0.0948
57239SOL    HW183442   0.166  12.157   2.344  0.6359  1.9918 -0.4857
57239SOL    HW283443   0.021  12.153   2.386  0.6791 -1.9493 -0.3446
57240SOL     OW83444  11.766  13.569  13.679  0.0879  0.1820  0.1148
57240SOL    HW183445  11.817  13.577  13.598 -0.0314 -0.1505  0.0031
57240SOL    HW283446  11.831  13.555  13.747  0.0797 -3.8657 -0.4696
57241SOL     OW83447  13.632  10.152  10.393 -0.0968 -0.6487 -0.4164
57241SOL    HW183448  13.658  10.065  10.364  2.8701  0.2975 -0.9296
57241SOL    HW283449  13.627  10.145  10.489  0.6778 -1.2349 -0.4161
57242SOL     OW83450   6.363   7.718  12.085  0.8661 -0.0432  0.6433
57242SOL    HW183451   6.359   7.705  12.179  1.2919 -0.2442  0.6373
57242SOL    HW283452   6.367   7.630  12.048  1.9184  0.0403  0.5080
57243SOL     OW83453   1.428   7.492   4.375 -0.1498 -0.3659  0.1077
57243SOL    HW183454   1.428   7.588   4.378  0.3222 -0.3562 -0.0234
57243SOL    HW283455   1.341   7.467   4.404  0.1522  0.0693  1.4803
57244SOL     OW83456   2.300  11.085   2.563 -0.1800  0.5484  0.4364
57244SOL    HW183457   2.255  11.019   2.508 -0.4260  1.0832 -0.0170
57244SOL    HW283458   2.296  11.165   2.511  2.2061  0.4134 -0.0901
57245SOL     OW83459   6.520   9.791  10.429  0.0358 -0.0574  0.0731
57245SOL    HW183460   6.443   9.803  10.484 -0.2206  1.5665 -0.5867
57245SOL    HW283461   6.591   9.771  10.490 -0.4355  0.7375  0.8955
57246SOL     OW83462  12.402   7.259   9.022  0.2889  0.6617  0.0071
57246SOL    HW183463  12.324   7.205   9.035  0.6385  0.1385 -0.0444
57246SOL    HW283464  12.411   7.266   8.927  0.5919  0.2955  0.0062
57247SOL     OW83465  12.344   8.486   7.551  0.1550  0.1493 -0.1076
57247SOL    HW183466  12.384   8.571   7.536  0.0709  0.0755 -0.8246
57247SOL    HW283467  12.393   8.448   7.624  1.1909  0.1902 -0.7598
57248SOL     OW83468   4.283   9.840   6.665  0.7977 -0.1848 -0.9182
57248SOL    HW183469   4.194   9.863   6.692  1.3096  2.7934 -1.4787
57248SOL    HW283470   4.309   9.770   6.725 -0.7477  1.1177  1.4284
57249SOL     OW83471   0.901   7.027   3.777 -0.1775 -0.2953 -0.1563
57249SOL    HW183472   0.867   7.098   3.832  0.5212 -1.3416  1.7034
57249SOL    HW283473   0.829   7.007   3.716 -0.5136  1.7272 -0.5015
57250SOL     OW83474   1.960  11.260  13.526 -0.5857  0.6135 -0.6749
57250SOL    HW183475   1.915  11.270  13.610 -1.0176 -0.7238 -0.7320
57250SOL    HW283476   1.906  11.198  13.477  1.4181 -1.2648 -0.6462
57251SOL     OW83477   9.260  11.585   3.123 -0.6181 -0.0936  0.2528
57251SOL    HW183478   9.166  11.579   3.103 -0.1509 -0.8323 -1.9971
57251SOL    HW283479   9.279  11.505   3.172 -1.0669 -0.2027  0.2509
57252SOL     OW83480  12.073  12.446   6.831  0.1479 -0.5181  0.0421
57252SOL    HW183481  12.160  12.468   6.865 -0.6838  0.0887  1.9297
57252SOL    HW283482  12.027  12.529   6.825 -0.4069 -0.8651 -0.6911
57253SOL     OW83483   2.210   7.608   1.504  0.8531 -0.0776  0.1835
57253SOL    HW183484   2.121   7.619   1.539  1.3770 -0.4583  1.7352
57253SOL    HW283485   2.216   7.671   1.433 -0.4957  0.3161  0.3899
57254SOL     OW83486   2.852  10.309   8.843  0.3870  0.5448  0.2286
57254SOL    HW183487   2.945  10.296   8.824  0.0676  0.2716 -1.3112
57254SOL    HW283488   2.844  10.403   8.859  0.8093  0.7117 -0.4714
57255SOL     OW83489   7.375   5.280   1.452  0.2426  0.5049  0.0109
57255SOL    HW183490   7.421   5.316   1.528 -1.6710  0.6195  1.1680
57255SOL    HW283491   7.321   5.210   1.488 -0.9502  0.7787 -1.1937
57256SOL     OW83492   1.351   5.191   4.357 -0.2195 -0.6521  0.2723
57256SOL    HW183493   1.350   5.237   4.273 -2.3280 -1.1213 -0.0067
57256SOL    HW283494   1.296   5.245   4.415  0.5212 -0.7770  1.1156
57257SOL     OW83495  10.229   4.841   4.876  0.0022  0.2254  0.6535
57257SOL    HW183496  10.157   4.817   4.935  0.1347 -0.2227  0.6354
57257SOL    HW283497  10.306   4.842   4.932  0.1681 -0.4328  0.4530
57258SOL     OW83498   4.474   9.897   3.743  0.6303  0.9615  0.3160
57258SOL    HW183499   4.522   9.845   3.679  0.0054  1.0361 -0.2213
57258SOL    HW283500   4.405   9.839   3.775  1.1313  0.8191  1.1669
57259SOL     OW83501   2.405  12.964   2.218 -0.1027 -0.2403  0.4883
57259SOL    HW183502   2.318  12.924   2.216 -1.2127  1.9410 -2.9308
57259SOL    HW283503   2.402  13.026   2.290 -0.5778 -1.6601  1.7363
57260SOL     OW83504   3.314   6.454   7.249  0.1642 -0.0672 -0.3863
57260SOL    HW183505   3.361   6.373   7.232  1.2127  0.4278  0.1083
57260SOL    HW283506   3.238   6.427   7.301  0.6023 -0.7140 -0.0702
57261SOL     OW83507   0.384   5.788   7.276  0.1476 -0.2264  0.2840
57261SOL    HW183508   0.399   5.782   7.370 -0.7581  1.0990  0.5422
57261SOL    HW283509   0.330   5.712   7.254 -0.2216 -0.1548  0.9548
57262SOL     OW83510   4.889  12.710   0.409 -0.1757  0.2752  0.0213
57262SOL    HW183511   4.967  12.761   0.432 -0.3465  0.3747  0.3813
57262SOL    HW283512   4.892  12.634   0.467  0.0769 -0.1247 -0.5127
57263SOL     OW83513   3.952   3.820  10.658 -0.2667 -0.1306  0.5025
57263SOL    HW183514   3.991   3.733  10.662 -0.1508 -0.0676  0.8820
57263SOL    HW283515   3.859   3.806  10.675 -0.1916 -0.1499  0.9322
57264SOL     OW83516   8.766   1.073   0.358  0.4668 -0.3716  0.1888
57264SOL    HW183517   8.701   1.025   0.306  0.4712  1.6009 -1.7737
57264SOL    HW283518   8.728   1.079   0.445 -0.9417 -1.2088 -0.3393
57265SOL     OW83519   8.894   9.346   4.484  0.4122  0.2431  0.0385
57265SOL    HW183520   8.983   9.319   4.461  0.2172 -1.2400  0.8780
57265SOL    HW283521   8.838   9.288   4.432 -0.1010  1.5602 -0.9410
57266SOL     OW83522   1.346   0.928   7.072  0.3747 -0.1129  0.1695
57266SOL    HW183523   1.405   0.855   7.092 -0.0563 -0.8580 -1.1369
57266SOL    HW283524   1.273   0.917   7.133 -0.1448 -1.3692 -0.6322
57267SOL     OW83525   1.239  12.960   3.320  0.4360  0.4419 -0.6362
57267SOL    HW183526   1.218  12.988   3.231  0.8038 -0.9326 -1.1795
57267SOL    HW283527   1.163  12.984   3.372 -0.4952 -0.2315 -1.6511
57268SOL     OW83528   5.664   2.144  13.444 -0.2464  0.2444 -0.5643
57268SOL    HW183529   5.698   2.137  13.533  0.1860  0.5280 -0.7058
57268SOL    HW283530   5.639   2.054  13.421 -1.4625  0.3437  0.2635
57269SOL     OW83531   9.529   2.250   5.802 -0.4349  0.8603  0.0288
57269SOL    HW183532   9.492   2.247   5.714  1.2683 -0.0395 -0.6943
57269SOL    HW283533   9.477   2.188   5.852  0.6248 -1.1225 -1.2140
57270SOL     OW83534   4.938   0.289  11.735 -0.7001 -0.3216  0.3396
57270SOL    HW183535   4.872   0.225  11.760 -0.0717 -0.4055  1.9568
57270SOL    HW283536   4.976   0.317  11.819  0.6855  0.3808 -0.4918
57271SOL     OW83537   0.016   5.606   9.348 -0.3553  0.0514 -0.1573
57271SOL    HW183538  -0.033   5.686   9.364  2.2360  1.5215  1.0491
57271SOL    HW283539   0.031   5.605   9.254 -1.9705 -0.0310 -0.4329
57272SOL     OW83540   0.005   9.251  13.649 -0.4068  0.3652 -0.2542
57272SOL    HW183541  -0.071   9.285  13.697 -1.5751  1.1833 -2.5259
57272SOL    HW283542   0.024   9.319  13.584  2.0862  0.0121  0.0279
57273SOL     OW83543   2.333   6.248   6.289  0.2010  0.4938  0.1597
57273SOL    HW183544   2.319   6.187   6.217  2.4157 -0.3861  0.4006
57273SOL    HW283545   2.347   6.333   6.247 -1.4148  0.5845 -0.2530
57274SOL     OW83546   7.487  12.667   7.052  0.0267  0.5389 -0.2164
57274SOL    HW183547   7.455  12.697   7.137 -1.4280 -1.3194 -0.0452
57274SOL    HW283548   7.418  12.692   6.990  1.0809  1.8897 -0.9079
57275SOL     OW83549  13.355   4.542  10.044 -0.2573  0.1613 -0.3593
57275SOL    HW183550  13.449   4.546  10.061 -0.1508  0.0043 -0.8994
57275SOL    HW283551  13.329   4.454  10.071 -0.1423  0.0098 -0.7428
57276SOL     OW83552   4.883   2.560  12.035 -0.1635 -0.6619  0.3691
57276SOL    HW183553   4.937   2.556  12.114  1.9746 -1.0135 -1.0589
57276SOL    HW283554   4.889   2.651  12.006 -1.2515 -0.4419  0.7575
57277SOL     OW83555   8.787  10.649   9.938 -0.3106  0.2230  0.0632
57277SOL    HW183556   8.877  10.618   9.932 -0.3309  0.3561 -1.4604
57277SOL    HW283557   8.741  10.601   9.869 -1.0277  1.3301 -0.2619
57278SOL     OW83558   7.201  10.246   6.078 -0.0885 -0.6587 -0.1855
57278SOL    HW183559   7.205  10.150   6.081 -0.1292 -0.6461  0.6629
57278SOL    HW283560   7.115  10.267   6.115  0.2492 -0.2753  0.4047
57279SOL     OW83561   1.290   7.377  12.616 -0.3820 -0.3219 -0.2831
57279SOL    HW183562   1.282   7.344  12.527  0.2774  1.6125 -1.1270
57279SOL    HW283563   1.384   7.375  12.634 -0.1071  2.3957 -0.9859
57280SOL     OW83564   9.464  11.854   1.720 -0.6337 -0.1819 -0.5290
57280SOL    HW183565   9.529  11.783   1.727  1.2068  1.3806 -0.8588
57280SOL    HW283566   9.463  11.876   1.628  0.2262  1.4218 -0.1834
57281SOL     OW83567   1.615   5.601   9.170  0.0766 -0.4558 -0.3204
57281SOL    HW183568   1.683   5.668   9.162  1.1961 -1.1966  2.2032
57281SOL    HW283569   1.533   5.649   9.154  0.8418  1.5351  1.1967
57282SOL     OW83570   4.825   5.435   9.091 -0.5400 -0.2683  0.0135
57282SOL    HW183571   4.863   5.494   9.025 -1.3889 -0.9906 -1.1763
57282SOL    HW283572   4.834   5.483   9.173  0.9539  0.4901 -0.5369
57283SOL     OW83573   5.618   7.589  10.706 -0.5437 -0.5679  0.2480
57283SOL    HW183574   5.569   7.628  10.634  0.1125 -0.8200 -0.3488
57283SOL    HW283575   5.553   7.574  10.774 -1.2662 -0.8006 -0.4862
57284SOL     OW83576  10.490  11.668   4.121 -0.1286  0.0382  0.0079
57284SOL    HW183577  10.457  11.758   4.119 -0.6975 -0.1255 -3.1131
57284SOL    HW283578  10.422  11.617   4.078  1.7886 -1.2389 -1.6635
57285SOL     OW83579   7.515  12.006   8.680 -0.3659  0.1819 -0.3625
57285SOL    HW183580   7.525  11.916   8.651 -0.6413 -0.3193  1.0241
57285SOL    HW283581   7.519  12.001   8.776 -0.5108  1.6245 -0.2585
57286SOL     OW83582  11.042   8.939   0.763 -0.2068  0.8078 -0.3783
57286SOL    HW183583  11.080   9.027   0.761 -0.6019  1.0220  0.9237
57286SOL    HW283584  10.963   8.946   0.709  1.2286  0.4845 -2.6938
57287SOL     OW83585   0.891   2.715   1.753  0.2024 -0.3714 -0.2464
57287SOL    HW183586   0.796   2.705   1.741  0.1313  0.4449 -0.4574
57287SOL    HW283587   0.902   2.808   1.774  1.0176 -0.3227 -0.8535
57288SOL     OW83588  11.797   9.773   8.334  0.5967  0.1229  0.0887
57288SOL    HW183589  11.744   9.814   8.403  1.0063 -1.0157  1.1177
57288SOL    HW283590  11.875   9.742   8.379  1.2538  0.0470 -1.0548
57289SOL     OW83591   5.195  13.479   9.514  0.6094  0.4387  0.1144
57289SOL    HW183592   5.196  13.496   9.608 -1.8489  2.2833 -0.1138
57289SOL    HW283593   5.108  13.506   9.485  1.5389  0.6206 -2.8265
57290SOL     OW83594   0.768   8.149   3.917 -0.3773  0.5883 -0.3120
57290SOL    HW183595   0.854   8.160   3.958 -0.1178 -2.5959  0.2487
57290SOL    HW283596   0.787   8.122   3.828 -0.6424 -1.5300  0.2000
57291SOL     OW83597   7.618   3.029   7.716  0.0791  0.3414  0.4261
57291SOL    HW183598   7.687   3.090   7.744 -1.3830  1.5822  1.4961
57291SOL    HW283599   7.606   2.970   7.791  0.5024 -0.3789 -0.0626
57292SOL     OW83600   0.003   8.159  10.678 -0.0579  0.4887 -0.6793
57292SOL    HW183601   0.022   8.243  10.637 -0.1976  0.4140 -0.8955
57292SOL    HW283602   0.054   8.095  10.629  1.2173  0.6268  0.4029
57293SOL     OW83603   7.051   7.268   5.835  0.0385  0.2885 -0.7157
57293SOL    HW183604   6.971   7.216   5.829  0.6785 -0.8171 -0.0058
57293SOL    HW283605   7.051   7.300   5.926  0.1599  0.7096 -0.8611
57294SOL     OW83606   5.693   4.396   8.151 -0.3666 -0.9764  0.4533
57294SOL    HW183607   5.616   4.452   8.144  0.0331 -0.5986 -2.3536
57294SOL    HW283608   5.658   4.310   8.173 -1.0640  0.0556  3.9568
57295SOL     OW83609   2.283   8.871   7.192  0.4876 -0.0760  0.0962
57295SOL    HW183610   2.333   8.933   7.138  0.0154 -0.4380 -0.7807
57295SOL    HW283611   2.252   8.805   7.130 -1.4052  0.3309  0.5355
57296SOL     OW83612   9.605   6.278   4.861  0.3105  0.6511 -0.7787
57296SOL    HW183613   9.566   6.366   4.859 -2.2056 -0.3365  0.8758
57296SOL    HW283614   9.655   6.276   4.943  0.5549  0.5918 -0.9267
57297SOL     OW83615  10.203  10.266  10.264  0.0676  0.4537  0.1019
57297SOL    HW183616  10.190  10.337  10.328 -0.9257  0.8868 -0.5542
57297SOL    HW283617  10.146  10.196  10.295  1.2946 -0.2009  0.9321
57298SOL     OW83618  12.946   3.017  10.542  0.3246  0.3134  0.1787
57298SOL    HW183619  13.010   3.032  10.612 -0.6413  0.1184  1.1439
57298SOL    HW283620  12.868   2.988  10.588 -0.6465  1.0908 -0.9214
57299SOL     OW83621   3.371  13.581   5.273 -0.8842  0.2564  0.1449
57299SOL    HW183622   3.328  13.611   5.354  0.0065 -0.9293  1.1013
57299SOL    HW283623   3.309  13.520   5.234 -1.1373  0.4996  0.1646
57300SOL     OW83624   1.489   9.186   8.841 -0.2391 -0.0154 -0.1482
57300SOL    HW183625   1.583   9.171   8.837 -0.0593  1.1356 -0.7092
57300SOL    HW283626   1.456   9.151   8.757 -0.1458  0.5916 -0.4423
57301SOL     OW83627   0.922   9.907   5.287 -0.6800  0.7091  0.2781
57301SOL    HW183628   0.890   9.838   5.345 -1.9470  0.6183 -0.4678
57301SOL    HW283629   0.842   9.948   5.254  0.0350  1.5972 -0.3883
57302SOL     OW83630   4.542   6.118   2.108 -0.8326  0.0001 -0.0465
57302SOL    HW183631   4.613   6.173   2.141 -0.0022 -0.7400 -0.5404
57302SOL    HW283632   4.493   6.093   2.186  0.6102 -1.0645  0.5732
57303SOL     OW83633   3.294  10.869   1.404 -0.1613  0.3255  0.9909
57303SOL    HW183634   3.362  10.933   1.425  0.1576  0.4122 -0.2476
57303SOL    HW283635   3.244  10.909   1.334 -0.0085 -0.7320  0.2471
57304SOL     OW83636  13.615   3.207   3.251  0.2758 -0.3854 -0.2407
57304SOL    HW183637  13.588   3.167   3.169 -1.4925  0.0577  0.0758
57304SOL    HW283638  13.710   3.201   3.251  0.2010 -3.6320 -0.6823
57305SOL     OW83639   1.071   7.459  11.129 -0.6284  0.2602 -0.3940
57305SOL    HW183640   1.062   7.536  11.185 -1.1926  0.4479 -0.7326
57305SOL    HW283641   1.062   7.384  11.188 -3.3027  0.4192 -0.4789
57306SOL     OW83642   9.032   0.012  13.281 -0.2345  0.6676  0.3782
57306SOL    HW183643   8.945  -0.016  13.308 -0.0430 -0.3192 -0.0067
57306SOL    HW283644   9.091  -0.020  13.350 -0.0243  0.2103 -0.0133
57307SOL     OW83645   2.018  10.119   8.547  0.1020 -0.0409 -0.5300
57307SOL    HW183646   1.938  10.085   8.587 -0.4333 -0.6941 -2.1003
57307SOL    HW283647   1.990  10.200   8.503  0.3843 -0.0830 -0.7892
57308SOL     OW83648  11.547   4.390   5.346 -0.4777  0.0466 -0.2462
57308SOL    HW183649  11.567   4.301   5.373 -0.7526 -0.6048 -2.0308
57308SOL    HW283650  11.551   4.387   5.250  0.7220  2.2274 -0.3381
57309SOL     OW83651   1.397   8.209   7.415 -0.3513  0.0402 -0.4633
57309SOL    HW183652   1.381   8.196   7.508 -0.3946  0.5024 -0.4020
57309SOL    HW283653   1.379   8.124   7.375  1.5524 -0.7063  0.1827
57310SOL     OW83654  12.462   7.833   3.880 -0.4370 -0.9372 -0.3807
57310SOL    HW183655  12.435   7.740   3.880 -0.1195 -1.0659 -2.1991
57310SOL    HW283656  12.412   7.871   3.808  0.8842 -0.1389 -0.8879
57311SOL     OW83657   8.199   3.112   4.138 -0.3080  0.0572 -0.1515
57311SOL    HW183658   8.214   3.126   4.044 -1.0708 -1.1137 -0.4738
57311SOL    HW283659   8.284   3.127   4.179  0.1535  0.0865 -1.0950
57312SOL     OW83660  12.398   1.879   6.028  0.2676 -0.0867  0.1878
57312SOL    HW183661  12.343   1.833   6.091  0.4340 -0.4977  0.0354
57312SOL    HW283662  12.478   1.827   6.023  1.9737  2.0410  2.6384
57313SOL     OW83663   8.246   4.798   1.859 -0.4633 -0.3526  0.1186
57313SOL    HW183664   8.283   4.742   1.791 -0.2202 -0.6911  0.5220
57313SOL    HW283665   8.296   4.879   1.854  0.0092 -0.6265  0.3352
57314SOL     OW83666   7.219   8.533   5.679 -0.1575 -0.0051 -0.6957
57314SOL    HW183667   7.221   8.591   5.755  1.3184 -1.1351  0.1869
57314SOL    HW283668   7.301   8.550   5.633  1.1569 -2.4886  0.5236
57315SOL     OW83669   2.463   9.532   0.900 -0.1394 -0.5552 -0.1108
57315SOL    HW183670   2.506   9.465   0.847  0.2887 -0.2380 -0.1679
57315SOL    HW283671   2.496   9.518   0.988 -1.0321 -1.2335  0.1266
57316SOL     OW83672   0.712  11.615   6.352  0.6837 -0.6198 -0.0392
57316SOL    HW183673   0.649  11.654   6.413  0.3667  2.5487 -2.1189
57316SOL    HW283674   0.662  11.550   6.303  0.4293 -1.7408  1.6283
57317SOL     OW83675  13.055  13.310   0.132 -0.4713  0.4531  0.0183
57317SOL    HW183676  13.115  13.281   0.063 -0.3240 -1.0192  0.7111
57317SOL    HW283677  13.041  13.403   0.115  0.1273  0.2870 -1.5562
57318SOL     OW83678   9.149   8.503   2.595 -0.4850 -0.2085 -0.5630
57318SOL    HW183679   9.179   8.583   2.552 -0.7121  0.0536 -0.2350
57318SOL    HW283680   9.073   8.475   2.543 -1.2713  0.5636  0.1365
57319SOL     OW83681   9.463   3.026  12.117 -0.2794  0.7548 -0.0248
57319SOL    HW183682   9.392   3.058  12.061  0.3725  0.1162 -1.2521
57319SOL    HW283683   9.543   3.044  12.068  0.5260  2.1861  1.6751
57320SOL     OW83684  10.421   3.383   0.305 -0.0643 -0.3835 -0.0932
57320SOL    HW183685  10.484   3.371   0.375 -1.3594  2.0297  1.6508
57320SOL    HW283686  10.343   3.336   0.334 -0.4498  0.2245 -0.1181
57321SOL     OW83687  11.550   3.390  12.396  0.1439 -0.2337 -0.3611
57321SOL    HW183688  11.628   3.445  12.389 -0.6714  1.3056  1.6501
57321SOL    HW283689  11.502   3.405  12.315  0.9389  0.3981 -0.7255
57322SOL     OW83690   4.722   6.911   5.630  0.3908 -0.7646  0.3239
57322SOL    HW183691   4.755   6.821   5.625 -1.1819 -1.3210 -0.8516
57322SOL    HW283692   4.629   6.904   5.609  0.3717  1.2337 -0.5612
57323SOL     OW83693   0.046   6.611  12.988  0.2525 -0.3953  0.3918
57323SOL    HW183694   0.059   6.682  12.925 -0.0867 -0.7665 -0.1108
57323SOL    HW283695   0.013   6.655  13.066 -0.3555 -0.0349 -0.0525
57324SOL     OW83696   4.922   0.143  11.133 -0.2472  0.5158  0.4526
57324SOL    HW183697   4.947   0.109  11.219 -0.3627 -0.8209 -0.0226
57324SOL    HW283698   5.005   0.154  11.087 -0.3448 -3.1736 -0.8490
57325SOL     OW83699  11.050  11.709   0.419 -0.0607  0.6576  0.3642
57325SOL    HW183700  11.134  11.665   0.432 -0.9113 -1.1312  0.1171
57325SOL    HW283701  11.030  11.747   0.505  1.5355  2.1577  0.1104
57326SOL     OW83702   9.806   1.553   2.594  0.3343  0.3113  1.1759
57326SOL    HW183703   9.886   1.519   2.635  1.0998  0.0411 -0.4488
57326SOL    HW283704   9.735   1.506   2.637  1.2416 -1.9495  0.3847
57327SOL     OW83705   1.289  12.932   2.315  0.5523  0.2511 -0.2576
57327SOL    HW183706   1.193  12.941   2.318  0.6198  1.4349 -1.1160
57327SOL    HW283707   1.321  13.022   2.319  1.7318 -0.1899  1.9292
57328SOL     OW83708   3.241   2.000   3.551  0.2240  0.3198 -0.0185
57328SOL    HW183709   3.261   1.932   3.615  0.3452  0.2117 -0.1705
57328SOL    HW283710   3.161   2.041   3.584  0.4925  0.5116  0.3943
57329SOL     OW83711   7.935   1.250   7.042  0.1270 -0.8039 -0.1378
57329SOL    HW183712   7.980   1.331   7.067  0.7606 -1.4833  0.9520
57329SOL    HW283713   7.843   1.266   7.065  0.1125 -0.1255 -0.6207
57330SOL     OW83714   7.788   7.156  13.556 -0.5454 -0.0706 -0.0322
57330SOL    HW183715   7.863   7.123  13.508  0.0293  3.2057 -1.6835
57330SOL    HW283716   7.712   7.124  13.507 -0.0695  0.1047 -0.8995
57331SOL     OW83717  11.138  10.714  10.806 -0.3469  0.7057  0.3568
57331SOL    HW183718  11.051  10.692  10.773 -0.4937 -0.5998  1.5095
57331SOL    HW283719  11.195  10.643  10.774  0.3493  1.6370 -0.5338
57332SOL     OW83720  13.213   0.032  13.133 -0.1083  0.4057  0.0691
57332SOL    HW183721  13.127  -0.009  13.135  0.6208 -1.3723 -1.4773
57332SOL    HW283722  13.199   0.117  13.092 -1.1604  0.2470  0.0830
57333SOL     OW83723  12.058   4.615   8.802  0.3212 -0.3384  0.0533
57333SOL    HW183724  12.097   4.693   8.762 -0.3315 -0.3078 -0.5405
57333SOL    HW283725  11.972   4.608   8.761 -1.2361  0.8190  2.8392
57334SOL     OW83726   2.448   7.949   1.399 -0.6494 -0.1876 -0.9831
57334SOL    HW183727   2.429   8.008   1.326  1.8617  2.6411  0.4612
57334SOL    HW283728   2.533   7.910   1.376  0.1046  0.6380  0.2864
57335SOL     OW83729   5.367   0.809   6.526 -0.5060 -0.2566 -0.2576
57335SOL    HW183730   5.335   0.883   6.475 -0.7440  0.9793  1.6155
57335SOL    HW283731   5.291   0.752   6.535 -0.5445 -0.3330 -0.9694
57336SOL     OW83732   6.573   9.461  13.131  0.0874 -0.6070 -0.1896
57336SOL    HW183733   6.583   9.554  13.152 -1.0024 -0.7811  1.2272
57336SOL    HW283734   6.495   9.433  13.180  1.6084 -2.7886  1.1460
57337SOL     OW83735   6.792   9.223   7.382 -0.2773 -0.4905 -0.1284
57337SOL    HW183736   6.736   9.299   7.371 -0.0095 -0.3057 -0.2350
57337SOL    HW283737   6.857   9.231   7.312 -0.3298 -0.8916 -0.2272
57338SOL     OW83738   9.770   5.686  10.188  0.0020 -0.0813  0.2715
57338SOL    HW183739   9.846   5.741  10.169  0.2406 -0.4605  0.1016
57338SOL    HW283740   9.778   5.613  10.127 -0.9197  0.2553 -0.2820
57339SOL     OW83741   4.480  13.221   9.812  0.3495 -0.2499  0.3069
57339SOL    HW183742   4.505  13.236   9.903 -0.8784  0.4210  0.5452
57339SOL    HW283743   4.550  13.263   9.762  0.4871  0.2966  0.9446
57340SOL     OW83744  10.707   3.699   5.829  0.1280  0.0019  0.0134
57340SOL    HW183745  10.705   3.672   5.738  0.3453  0.3110 -0.0857
57340SOL    HW283746  10.757   3.781   5.829  0.7163 -0.3520  0.5071
57341SOL     OW83747   0.728   6.876   7.195  0.3552  0.1717  0.5309
57341SOL    HW183748   0.823   6.866   7.205  0.5049  1.4527  0.6364
57341SOL    HW283749   0.691   6.839   7.275  0.8501  0.6693  0.9980
57342SOL     OW83750   3.435   1.530   5.298 -0.6285  0.6445  0.1221
57342SOL    HW183751   3.500   1.528   5.368 -0.3171  2.4546 -0.0547
57342SOL    HW283752   3.407   1.440   5.288 -1.5266  0.4414  3.3758
57343SOL     OW83753   6.222  12.114   3.243 -0.1337 -0.0360  0.1431
57343SOL    HW183754   6.237  12.207   3.262 -0.5218  0.5736 -2.1632
57343SOL    HW283755   6.150  12.088   3.300 -0.1858  1.1599  0.6371
57344SOL     OW83756   8.188   0.578  11.594 -0.1489 -0.0255  0.1705
57344SOL    HW183757   8.223   0.553  11.509 -0.6666 -1.3761  0.3221
57344SOL    HW283758   8.164   0.671  11.585 -0.0420 -0.1156 -1.0966
57345SOL     OW83759   7.755   8.759   7.804  0.1100  0.0081 -0.7433
57345SOL    HW183760   7.832   8.743   7.750  0.8486  2.9613 -0.7486
57345SOL    HW283761   7.682   8.731   7.750  1.0728 -1.1559 -1.4864
57346SOL     OW83762   4.410  11.849   6.325 -0.2457 -0.8330 -0.6996
57346SOL    HW183763   4.368  11.926   6.288  0.5099 -0.5380 -0.9679
57346SOL    HW283764   4.481  11.828   6.264  1.0316 -0.3238  0.5530
57347SOL     OW83765  13.033  11.205   3.468  0.4869 -0.5201  0.1313
57347SOL    HW183766  13.086  11.235   3.542  2.0175  1.2543 -1.5540
57347SOL    HW283767  12.967  11.274   3.456 -1.4100 -2.0253  1.3226
57348SOL     OW83768   3.165   8.352   4.766  0.1000  0.3302  0.6972
57348SOL    HW183769   3.242   8.372   4.819 -0.1661 -2.1598  2.2025
57348SOL    HW283770   3.091   8.367   4.823 -0.2836 -0.8776  0.5603
57349SOL     OW83771  10.448  12.201   5.245  0.0293  0.5212  0.5713
57349SOL    HW183772  10.526  12.213   5.299 -0.0754 -1.5658  1.2778
57349SOL    HW283773  10.375  12.207   5.307 -0.0120 -4.2401  1.3480
57350SOL     OW83774   9.222   5.023   1.746  0.4139  0.1905 -0.1828
57350SOL    HW183775   9.242   4.933   1.770 -0.1209  0.5499  1.7711
57350SOL    HW283776   9.167   5.015   1.668  2.7574 -1.0141 -1.8164
57351SOL     OW83777  11.039   0.902   7.712 -0.0025  0.0026  0.1291
57351SOL    HW183778  10.991   0.864   7.785  1.3150  2.5621  2.4810
57351SOL    HW283779  11.104   0.835   7.689  0.9413 -0.0823  2.7697
57352SOL     OW83780   1.188   5.941   2.225 -0.1634 -0.0749  0.5933
57352SOL    HW183781   1.184   5.987   2.308 -0.8019 -0.9322  1.0489
57352SOL    HW283782   1.108   5.889   2.222  0.2175 -0.6430 -0.2038
57353SOL     OW83783   3.407  11.019   7.626 -0.5401 -0.4689  0.0913
57353SOL    HW183784   3.479  10.991   7.570 -0.8560 -1.6435  0.2348
57353SOL    HW283785   3.329  11.006   7.573 -0.5869  2.4942 -0.7218
57354SOL     OW83786  10.236   0.310   9.505  0.2848  0.6201  0.1743
57354SOL    HW183787  10.215   0.378   9.440  1.0965  1.0009  0.3014
57354SOL    HW283788  10.320   0.337   9.542  0.5165 -0.3467  0.3823
57355SOL     OW83789   5.875   7.648  12.944  0.2750  0.2636  0.3353
57355SOL    HW183790   5.860   7.577  12.881 -1.7921  0.0430  1.0126
57355SOL    HW283791   5.862   7.728  12.894 -0.1160  0.1127  0.1936
57356SOL     OW83792   8.716   9.815   1.369  0.4090  0.3911 -0.1533
57356SOL    HW183793   8.651   9.869   1.415 -1.7514  0.0387 -2.5851
57356SOL    HW283794   8.771   9.879   1.324  0.0305  0.6653 -0.2418
57357SOL     OW83795   8.155   0.688   3.841 -0.0275  0.3396 -0.0143
57357SOL    HW183796   8.142   0.717   3.932  0.9390 -0.1582  0.2908
57357SOL    HW283797   8.201   0.605   3.849  0.1500  0.3396 -0.9750
57358SOL     OW83798   8.582   8.767   9.356  0.5619  0.2827 -0.2054
57358SOL    HW183799   8.663   8.799   9.317 -0.8101  0.8465 -2.8365
57358SOL    HW283800   8.548   8.704   9.292  0.1777 -1.9691  2.0609
57359SOL     OW83801   3.369   6.564   6.842 -0.2568 -0.1590 -0.3440
57359SOL    HW183802   3.320   6.563   6.923  0.8484  1.1487  0.3840
57359SOL    HW283803   3.373   6.657   6.817  0.6944 -0.3715 -1.0695
57360SOL     OW83804   5.397   3.147  11.268  0.2931  0.0252 -0.2021
57360SOL    HW183805   5.411   3.225  11.321  1.8869  1.0386 -1.9873
57360SOL    HW283806   5.484   3.107  11.260  0.0729 -0.1897 -1.8589
57361SOL     OW83807   7.062   8.162   0.569  0.2118  0.3813 -0.5056
57361SOL    HW183808   7.074   8.223   0.642  2.5523  0.4677 -0.8791
57361SOL    HW283809   7.096   8.079   0.601 -2.5986 -0.7577 -0.1394
57362SOL     OW83810  10.746   6.461   9.956  0.0871  0.2872 -0.1842
57362SOL    HW183811  10.816   6.457   9.891  0.1258  0.3536 -0.1462
57362SOL    HW283812  10.783   6.419  10.033 -0.0048  0.0925 -0.2456
57363SOL     OW83813   3.230   1.103   9.067  0.1932 -0.3985  0.1527
57363SOL    HW183814   3.192   1.091   8.980  0.9368  0.5682 -0.3246
57363SOL    HW283815   3.318   1.066   9.059  0.7489  0.8831  0.0785
57364SOL     OW83816   6.167  10.515  12.521 -0.3336 -0.1394 -0.0991
57364SOL    HW183817   6.205  10.558  12.598  0.1329 -0.1251 -0.3386
57364SOL    HW283818   6.221  10.544  12.448  2.5442 -4.0369  0.1356
57365SOL     OW83819   9.083   8.689   8.743 -0.1369 -0.3867  0.0676
57365SOL    HW183820   9.114   8.686   8.652  1.2213  0.7103  0.4636
57365SOL    HW283821   9.112   8.606   8.781  0.0727 -0.4681 -0.2641
57366SOL     OW83822  10.439  10.579   8.706  0.5914  0.2191 -0.0217
57366SOL    HW183823  10.356  10.583   8.754  0.0154  0.8095 -1.0407
57366SOL    HW283824  10.506  10.577   8.774 -0.2474 -0.0110  0.8148
57367SOL     OW83825  12.739  12.914  11.736 -0.0944 -0.4558  0.8124
57367SOL    HW183826  12.750  12.836  11.683 -0.2963 -0.7187  1.1528
57367SOL    HW283827  12.766  12.986  11.679  0.0883 -0.7712  0.4979
57368SOL     OW83828   0.652  13.715   4.103 -0.1080 -0.5597 -0.6035
57368SOL    HW183829   0.634  13.809   4.107  0.7517 -0.3774 -0.7352
57368SOL    HW283830   0.630  13.683   4.190  0.2524 -0.1026 -0.3383
57369SOL     OW83831   9.499   9.784  10.634  0.0994 -0.4015  0.4589
57369SOL    HW183832   9.532   9.695  10.631 -0.0290 -0.4328 -0.6004
57369SOL    HW283833   9.518   9.819  10.547 -1.2478  0.0781  0.3319
57370SOL     OW83834   1.169   9.430   1.652  0.0785  0.4517 -0.7075
57370SOL    HW183835   1.238   9.455   1.589 -0.7053  1.2004 -1.2905
57370SOL    HW283836   1.115   9.509   1.660 -0.0356  0.2527  0.6677
57371SOL     OW83837   3.610   5.383   6.737 -0.2765 -0.3447  0.5083
57371SOL    HW183838   3.635   5.476   6.733  0.1674 -0.5011 -1.0825
57371SOL    HW283839   3.542   5.374   6.670 -0.8372 -1.0346  1.1535
57372SOL     OW83840   8.928   7.115  13.313 -0.2716  0.2008  0.4250
57372SOL    HW183841   8.993   7.109  13.243 -0.6106 -1.1498  0.1911
57372SOL    HW283842   8.963   7.059  13.383 -0.4566  0.6698  0.8953
57373SOL     OW83843  13.603   6.131   6.682 -0.3758 -0.0927 -0.4082
57373SOL    HW183844  13.637   6.088   6.603  0.2905  0.4885 -0.4532
57373SOL    HW283845  13.624   6.070   6.753  0.2835  0.0022 -0.5100
57374SOL     OW83846   1.335   4.329   6.021 -0.2059 -0.3895  0.1346
57374SOL    HW183847   1.400   4.375   5.969 -0.6851  0.3475  0.1765
57374SOL    HW283848   1.280   4.398   6.059 -0.3838 -0.9502  0.9309
57375SOL     OW83849  11.664   1.452   8.150 -0.4124 -0.0935  0.3654
57375SOL    HW183850  11.698   1.509   8.080  1.3189 -2.4877 -0.9031
57375SOL    HW283851  11.580   1.421   8.117  0.5270 -1.4455 -0.9131
57376SOL     OW83852   5.223   7.323  12.897  0.1834 -0.1323  0.2417
57376SOL    HW183853   5.231   7.396  12.835 -2.7560  0.1016  0.0037
57376SOL    HW283854   5.222   7.365  12.983  1.3037 -0.1818  0.2883
57377SOL     OW83855   3.873   9.161   5.487  0.1987  0.1136  0.1135
57377SOL    HW183856   3.792   9.110   5.483  1.2234 -1.4866 -1.1199
57377SOL    HW283857   3.899   9.173   5.396  0.4551  2.1591  0.4020
57378SOL     OW83858   0.242   1.126   1.246 -0.9256 -0.1417  0.4328
57378SOL    HW183859   0.192   1.200   1.212 -2.3517 -1.2193  0.0574
57378SOL    HW283860   0.320   1.122   1.191 -1.8180 -0.1213 -0.8856
57379SOL     OW83861   3.520   3.147  12.164  0.0029  0.6057  0.0362
57379SOL    HW183862   3.614   3.151  12.181  0.2640  0.8892 -1.3342
57379SOL    HW283863   3.513   3.150  12.068 -1.4323  1.4747  0.1368
57380SOL     OW83864   8.157   1.904  12.159  0.4102 -0.0331  0.0496
57380SOL    HW183865   8.121   1.816  12.146  0.6869 -0.0984 -0.2938
57380SOL    HW283866   8.080   1.961  12.166  0.2361 -0.1908 -0.5442
57381SOL     OW83867   8.911  13.567  11.543 -0.1403 -0.2743 -0.3103
57381SOL    HW183868   8.963  13.587  11.464  1.3941  0.3814  0.8019
57381SOL    HW283869   8.975  13.532  11.605 -1.5765 -2.1725  0.1878
57382SOL     OW83870   1.703   4.544   3.798  0.0784  0.2119 -0.2092
57382SOL    HW183871   1.784   4.595   3.805  0.1778  0.2167 -1.2182
57382SOL    HW283872   1.633   4.608   3.809  0.2023  0.1910  0.7856
57383SOL     OW83873   8.186  13.365   9.859  0.0233  0.0456 -0.1356
57383SOL    HW183874   8.150  13.434   9.803 -0.5511 -0.5078 -0.4528
57383SOL    HW283875   8.240  13.412   9.923  0.5609  0.7036 -1.0461
57384SOL     OW83876   9.526   9.674  13.556 -0.0716  0.5529  0.2630
57384SOL    HW183877   9.611   9.709  13.529 -0.3504  0.7505 -0.3716
57384SOL    HW283878   9.537   9.652  13.648  1.0460 -0.5602 -0.1048
57385SOL     OW83879  13.215   7.291   1.556 -0.3146  0.0111 -0.0839
57385SOL    HW183880  13.231   7.197   1.563 -2.2660 -0.2628  1.3184
57385SOL    HW283881  13.257   7.328   1.634  1.1399  0.4561 -1.0317
57386SOL     OW83882   2.978   4.169  12.882  0.4279  0.3461 -0.3667
57386SOL    HW183883   2.893   4.180  12.839  0.3175  0.2977 -0.1629
57386SOL    HW283884   2.957   4.131  12.968  0.7167 -0.4659 -0.6412
57387SOL     OW83885   0.119   2.096   7.816 -0.4315  0.4173 -0.2825
57387SOL    HW183886   0.201   2.100   7.767  1.6252 -0.8142  2.7519
57387SOL    HW283887   0.103   2.187   7.843 -0.5552  0.7969 -1.5927
57388SOL     OW83888  13.543  13.459   2.218 -0.4837 -0.2387  0.2268
57388SOL    HW183889  13.630  13.466   2.179  0.1154 -1.2943  1.3345
57388SOL    HW283890  13.556  13.483   2.310 -1.8418  2.0469 -0.1035
57389SOL     OW83891  10.535   0.238   6.399  0.2740 -0.1008 -0.2034
57389SOL    HW183892  10.457   0.286   6.373 -1.4838 -2.8493 -0.3833
57389SOL    HW283893  10.555   0.181   6.324  0.9610 -1.1684  0.7520
57390SOL     OW83894   9.044   7.558   6.941 -0.3009  0.2572  0.2622
57390SOL    HW183895   9.019   7.593   6.855  0.9878  0.3913 -0.0755
57390SOL    HW283896   9.101   7.484   6.922 -1.1447 -0.6296  1.0112
57391SOL     OW83897   0.144   4.524  11.683 -0.2114 -0.1839  0.0352
57391SOL    HW183898   0.103   4.606  11.712 -0.9915 -0.4861 -0.1954
57391SOL    HW283899   0.071   4.468  11.659  0.2478 -1.4625  1.4738
57392SOL     OW83900   7.318   7.774   6.101  0.0392  0.0627 -0.1209
57392SOL    HW183901   7.252   7.731   6.156  0.8495  1.0746  1.7376
57392SOL    HW283902   7.396   7.720   6.110  0.4136  0.6738  0.4317
57393SOL     OW83903   7.134  10.879   3.746 -0.5789 -0.1181  0.2747
57393SOL    HW183904   7.185  10.955   3.718  0.0226 -0.7281 -0.3229
57393SOL    HW283905   7.132  10.885   3.841 -0.2345  0.4562  0.2486
57394SOL     OW83906   6.047   2.915   8.530  0.0633 -0.2914  0.3612
57394SOL    HW183907   6.125   2.967   8.516 -0.3246  0.5583  1.2121
57394SOL    HW283908   6.033   2.918   8.625 -0.8543 -0.6317  0.2485
57395SOL     OW83909   4.466   2.490   4.892  0.0176 -0.2093 -0.0914
57395SOL    HW183910   4.530   2.543   4.940 -0.8852  1.4211 -0.6218
57395SOL    HW283911   4.516   2.413   4.862  1.1483 -0.1139  1.4409
57396SOL     OW83912   0.774  13.382   4.688 -0.5327 -0.1234 -0.1400
57396SOL    HW183913   0.859  13.339   4.690 -0.6937 -0.5950 -1.6181
57396SOL    HW283914   0.793  13.471   4.657 -0.4090  0.3332  1.1775
57397SOL     OW83915  10.935  13.046   3.928 -0.1579 -0.1206  0.1126
57397SOL    HW183916  10.870  13.047   3.857 -0.6646  1.0019  0.5681
57397SOL    HW283917  10.954  13.138   3.944  1.2838 -0.4261  0.2454
57398SOL     OW83918   9.570  11.245   1.784  0.2052 -0.5152 -0.5487
57398SOL    HW183919   9.479  11.244   1.811  0.3220 -1.7968 -0.1475
57398SOL    HW283920   9.603  11.330   1.814 -0.4327 -0.7005  0.7511
57399SOL     OW83921   7.905  11.232  10.709  0.3588  0.4956 -0.1857
57399SOL    HW183922   7.939  11.199  10.792  1.6878 -1.3879 -1.3899
57399SOL    HW283923   7.965  11.302  10.684  0.6892  0.2364 -0.1293
57400SOL     OW83924   8.512   5.046  10.461 -0.1946  0.5402  0.0146
57400SOL    HW183925   8.455   5.107  10.414  1.1588  0.6629 -1.5981
57400SOL    HW283926   8.533   5.090  10.543 -0.7375  1.4070 -0.3030
57401SOL     OW83927  11.199  10.849   3.560 -0.3235 -0.3648 -0.3952
57401SOL    HW183928  11.210  10.789   3.634  0.8172  0.6653  0.3165
57401SOL    HW283929  11.135  10.914   3.590  0.7493  0.5257  0.0321
57402SOL     OW83930   0.717   2.661   9.758 -0.4414 -0.3900 -0.6656
57402SOL    HW183931   0.690   2.618   9.677 -2.2875  1.2043 -0.9831
57402SOL    HW283932   0.810   2.643   9.765 -0.8555 -3.4754 -1.3104
57403SOL     OW83933   6.094   9.043   9.081  0.4363 -0.3912  0.3679
57403SOL    HW183934   6.059   9.120   9.034  0.8025  0.2129  1.0653
57403SOL    HW283935   6.100   9.072   9.172 -0.1886 -1.5248  0.7869
57404SOL     OW83936   2.417   7.604  10.724  0.4261  0.2981  0.3933
57404SOL    HW183937   2.361   7.625  10.649  0.5087  2.2077  0.8251
57404SOL    HW283938   2.359   7.611  10.800  0.7769  0.2496  0.6713
57405SOL     OW83939  13.181   7.842   6.786 -0.5610 -0.3613  0.3797
57405SOL    HW183940  13.240   7.809   6.718 -0.7427  0.0905 -0.0035
57405SOL    HW283941  13.205   7.934   6.796 -0.7760 -0.3365  0.6741
57406SOL     OW83942   7.300  12.073  10.438  0.1442 -0.1730 -0.0083
57406SOL    HW183943   7.390  12.040  10.450  0.4987  0.6953 -0.2417
57406SOL    HW283944   7.245  11.995  10.449  0.9906 -0.9341 -0.9723
57407SOL     OW83945  11.531   7.125   6.841  0.1106  0.3503  0.5929
57407SOL    HW183946  11.542   7.098   6.932 -0.6326  1.5123  1.0505
57407SOL    HW283947  11.436   7.122   6.826  0.1969  0.4846 -0.0421
57408SOL     OW83948   8.619   5.632   9.460  0.4346  0.3181 -0.1963
57408SOL    HW183949   8.548   5.694   9.444 -0.1205 -0.3129 -0.2286
57408SOL    HW283950   8.592   5.552   9.414  0.8861 -0.1128  0.2657
57409SOL     OW83951  11.700   1.901   5.865 -0.3699 -0.1794  0.8273
57409SOL    HW183952  11.731   1.813   5.845  0.7953  0.4789 -0.4063
57409SOL    HW283953  11.758   1.932   5.934  1.3518  0.7601 -0.9412
57410SOL     OW83954   7.296   8.451  10.659 -0.1773 -0.3119  0.3295
57410SOL    HW183955   7.324   8.366  10.692 -0.1802  0.0346  1.2713
57410SOL    HW283956   7.344   8.514  10.712 -2.0448  0.2923  1.3856
57411SOL     OW83957   6.211   7.041   1.629  0.1893  0.0892  0.2440
57411SOL    HW183958   6.299   7.034   1.667  0.7494 -0.7482 -1.1359
57411SOL    HW283959   6.152   7.033   1.704  1.2816  0.2635  1.1474
57412SOL     OW83960  10.539   1.944  10.777 -0.2046 -0.4343 -0.7760
57412SOL    HW183961  10.465   1.883  10.771 -0.8530  0.2812 -0.2313
57412SOL    HW283962  10.612   1.895  10.740 -0.7765 -1.4434 -0.6324
57413SOL     OW83963   5.273   1.753   9.801  0.1117  0.1171 -0.6880
57413SOL    HW183964   5.298   1.708   9.882 -0.3882 -0.4016 -0.8133
57413SOL    HW283965   5.183   1.783   9.817  1.4362  3.9193  0.6020
57414SOL     OW83966   8.614  12.377  10.562  0.3219 -0.4855  0.0889
57414SOL    HW183967   8.590  12.294  10.603 -0.1471 -0.6611 -0.5268
57414SOL    HW283968   8.530  12.417  10.538  0.5733 -0.2172 -0.3576
57415SOL     OW83969  13.412   5.875   3.919  0.4512  0.3325  0.9589
57415SOL    HW183970  13.494   5.867   3.869 -0.3818 -2.3829 -0.1453
57415SOL    HW283971  13.428   5.824   3.998 -0.2546 -0.4666  0.5943
57416SOL     OW83972   4.547   2.653   8.726 -0.0950  0.0275 -0.4193
57416SOL    HW183973   4.543   2.731   8.670  1.0772  1.2735  1.1493
57416SOL    HW283974   4.459   2.645   8.763 -0.5424 -0.1032 -1.4767
57417SOL     OW83975  13.106   9.274   4.732 -0.3324  0.3492 -0.0203
57417SOL    HW183976  13.154   9.340   4.682 -1.0352  1.1630  0.3616
57417SOL    HW283977  13.134   9.288   4.823 -0.0123 -0.3048 -0.0060
57418SOL     OW83978  12.837   1.251   5.933 -0.0503 -0.3270  0.2071
57418SOL    HW183979  12.872   1.205   6.010  1.4056 -0.4975 -0.5223
57418SOL    HW283980  12.879   1.338   5.936  0.3601 -0.4852 -0.6037
57419SOL     OW83981   9.108   1.916   8.156  0.0486 -0.3913 -0.0304
57419SOL    HW183982   9.174   1.983   8.134  0.0226 -0.0588  0.8643
57419SOL    HW283983   9.077   1.942   8.242 -0.5491 -1.1158 -0.0283
57420SOL     OW83984   5.226   1.809  12.844  0.4723 -0.7287  0.1261
57420SOL    HW183985   5.211   1.738  12.781  0.3332 -1.3299  0.8315
57420SOL    HW283986   5.252   1.884  12.789  1.6200 -1.5899 -0.5607
57421SOL     OW83987   6.104  13.431   7.942 -0.0666  0.3875  0.6619
57421SOL    HW183988   6.156  13.356   7.913  1.0828  1.6609 -0.7254
57421SOL    HW283989   6.163  13.482   7.998  0.1242  1.6773 -0.6535
57422SOL     OW83990   0.057   1.633   7.668  0.1460  0.2515 -0.1427
57422SOL    HW183991   0.143   1.675   7.669 -0.0099  0.6758 -1.6101
57422SOL    HW283992   0.054   1.588   7.583 -0.6753 -0.6376  0.3379
57423SOL     OW83993  13.027   8.733   5.387 -0.3424  0.5074  0.1466
57423SOL    HW183994  13.041   8.791   5.312 -0.8740  1.5617  0.8263
57423SOL    HW283995  12.932   8.738   5.402 -0.1934  0.6086  1.0988
57424SOL     OW83996   6.375  10.196  13.486 -0.0463 -0.3528 -0.5585
57424SOL    HW183997   6.342  10.286  13.484 -1.1541 -0.7539 -0.8157
57424SOL    HW283998   6.465  10.205  13.519 -1.0474  0.5684  2.1836
57425SOL     OW83999  13.116   6.091   4.609  0.0184 -0.4400 -0.3408
57425SOL    HW184000  13.153   6.156   4.550  0.7791 -0.0822  0.5070
57425SOL    HW284001  13.179   6.085   4.681 -1.1375 -0.4714  0.7021
57426SOL     OW84002   3.473  11.452   2.713  0.1259 -0.7458 -0.0008
57426SOL    HW184003   3.493  11.524   2.654 -0.3396 -1.9875 -1.7386
57426SOL    HW284004   3.557  11.408   2.726  0.3441 -0.1278  0.7901
57427SOL     OW84005   0.700   6.324  13.392 -0.1725  0.0526  0.0413
57427SOL    HW184006   0.731   6.233  13.395 -1.6406 -0.5229 -0.6425
57427SOL    HW284007   0.681   6.339  13.299 -4.3725 -0.6490  0.5557
57428SOL     OW84008  10.527   0.924   0.674 -0.0889 -0.0283 -0.2314
57428SOL    HW184009  10.486   0.946   0.590 -0.1533  0.4738 -0.0746
57428SOL    HW284010  10.500   0.834   0.691 -1.7195  0.5015  0.1966
57429SOL     OW84011  12.036   2.932  10.628 -0.7450  0.3861 -0.4803
57429SOL    HW184012  12.101   2.981  10.678 -0.1602  0.3999 -1.2529
57429SOL    HW284013  11.953   2.949  10.674 -0.1371 -0.1277  0.8788
57430SOL     OW84014   6.054  11.401  11.392 -0.4837  0.0939  0.2091
57430SOL    HW184015   6.122  11.338  11.416 -1.5246 -0.1574  2.7614
57430SOL    HW284016   5.978  11.347  11.369 -0.0993  0.3911 -2.0152
57431SOL     OW84017   6.667   4.906   3.453 -0.9879 -0.0796  0.2190
57431SOL    HW184018   6.625   4.870   3.375  0.3165  0.0704 -0.5726
57431SOL    HW284019   6.659   4.837   3.519  0.0913 -1.2131 -0.7982
57432SOL     OW84020   5.324  11.901  10.133  0.0392  0.2967  0.3238
57432SOL    HW184021   5.370  11.970  10.085 -0.3761 -0.7934 -1.7676
57432SOL    HW284022   5.245  11.885  10.082 -0.1992 -1.2756  1.1335
57433SOL     OW84023   8.983   2.805  13.640  0.5488 -0.1679 -0.5801
57433SOL    HW184024   9.013   2.879  13.694  0.8577 -1.2672  0.8065
57433SOL    HW284025   9.019   2.823  13.553  0.0073  1.6735 -0.4656
57434SOL     OW84026   5.552   4.994   3.179  0.0034 -0.0105  0.1875
57434SOL    HW184027   5.518   5.056   3.244 -2.0003 -0.9286  0.0843
57434SOL    HW284028   5.478   4.977   3.121  1.1541 -0.8236 -1.1126
57435SOL     OW84029   4.642   9.630  12.778  0.3941  0.2868 -0.2345
57435SOL    HW184030   4.650   9.569  12.704  1.9250  1.8334 -1.4331
57435SOL    HW284031   4.720   9.611  12.832 -0.0726 -0.0013  0.3502
57436SOL     OW84032   5.103   1.938  13.039  0.2186  0.5044  0.2351
57436SOL    HW184033   5.155   1.920  12.961  0.9876 -1.3497  1.1304
57436SOL    HW284034   5.032   1.875  13.036  0.1472  0.5440  0.9401
57437SOL     OW84035   2.949   5.787  12.675  0.0509 -0.2123 -0.2872
57437SOL    HW184036   2.949   5.781  12.579  3.1110  0.0053 -0.3833
57437SOL    HW284037   3.006   5.861  12.694 -2.9897  1.8547  1.7447
57438SOL     OW84038   1.496  10.799   9.936  0.4591 -0.0278 -0.1572
57438SOL    HW184039   1.585  10.765   9.925  0.2485 -0.3627 -0.8691
57438SOL    HW284040   1.453  10.780   9.853 -0.7542 -1.2944  0.7269
57439SOL     OW84041  11.682   2.424   0.985 -0.2918 -0.2441 -0.0567
57439SOL    HW184042  11.731   2.345   1.005  1.4216  0.5391 -0.9078
57439SOL    HW284043  11.736   2.495   1.018 -1.8660  0.5927  0.8239
57440SOL     OW84044   7.860   5.644   8.743 -0.0304 -0.3346  0.7641
57440SOL    HW184045   7.864   5.559   8.786  0.1475  0.0771  1.5872
57440SOL    HW284046   7.941   5.688   8.769 -0.3529  0.2752  0.7621
57441SOL     OW84047   8.361  11.278   5.778  0.4003  0.2367 -0.1379
57441SOL    HW184048   8.272  11.255   5.802  0.9458 -0.2308  1.6171
57441SOL    HW284049   8.376  11.232   5.695 -1.0961  0.6705 -0.6815
57442SOL     OW84050   2.026   5.242   4.124 -0.3399  0.4576  0.3731
57442SOL    HW184051   1.943   5.289   4.134 -0.1156  0.9872 -0.1591
57442SOL    HW284052   2.083   5.278   4.192 -0.6566 -0.1818  0.9916
57443SOL     OW84053  12.742   0.341   7.346  0.4394 -1.1491 -0.1244
57443SOL    HW184054  12.651   0.315   7.361  0.4375 -1.5846 -0.8602
57443SOL    HW284055  12.749   0.427   7.388 -1.3183  0.6197 -3.1125
57444SOL     OW84056   6.031   7.904  11.002 -0.1457 -0.3735 -1.0104
57444SOL    HW184057   5.976   7.854  11.062 -0.0432  0.2927 -0.3346
57444SOL    HW284058   6.121   7.883  11.029 -0.0625  1.9999  0.9600
57445SOL     OW84059   3.660   3.440   8.684 -0.4673 -0.4927 -0.3441
57445SOL    HW184060   3.676   3.486   8.602  0.4859  1.1132  0.6739
57445SOL    HW284061   3.580   3.479   8.719  1.2747  1.8948  1.3834
57446SOL     OW84062   8.944   9.656  11.379  0.1723 -0.3176  0.2726
57446SOL    HW184063   9.023   9.693  11.418  1.0469 -1.7159 -0.0727
57446SOL    HW284064   8.935   9.701  11.295  0.8413 -0.4264  0.1369
57447SOL     OW84065   0.860   9.806   8.762 -0.0932  0.2755  0.2890
57447SOL    HW184066   0.768   9.799   8.787 -0.0713  1.4615  0.8006
57447SOL    HW284067   0.874   9.900   8.751  1.2656  0.1889  1.0474
57448SOL     OW84068   6.694   5.847   6.238  0.6765 -0.3495  0.2292
57448SOL    HW184069   6.697   5.916   6.304  1.6755 -1.0700  0.9658
57448SOL    HW284070   6.775   5.858   6.189  0.4293 -0.4679 -0.2131
57449SOL     OW84071  12.240   7.013   0.354  0.0399 -0.7527  0.3745
57449SOL    HW184072  12.330   7.002   0.384 -0.0094  0.8215  1.2009
57449SOL    HW284073  12.248   7.047   0.264  0.2727 -0.5881  0.4586
57450SOL     OW84074   5.114   4.070   6.802 -0.0225  0.6017  0.1534
57450SOL    HW184075   5.092   3.977   6.809 -1.1593  0.5545 -2.5751
57450SOL    HW284076   5.210   4.072   6.794 -0.0734 -0.4768 -0.9404
57451SOL     OW84077  11.547   7.847   2.367  0.4958  0.1795  0.1970
57451SOL    HW184078  11.548   7.836   2.462 -0.3653  1.4704  0.3732
57451SOL    HW284079  11.622   7.796   2.336  0.0684 -1.2566  1.4423
57452SOL     OW84080   1.151   1.839   4.517 -0.4085  0.0335 -0.2287
57452SOL    HW184081   1.085   1.907   4.501 -1.0065 -0.5827 -0.4446
57452SOL    HW284082   1.107   1.775   4.572  0.3195  0.0704  0.4148
57453SOL     OW84083   6.461   7.190   1.950 -0.3571  0.3672 -0.3994
57453SOL    HW184084   6.396   7.259   1.939  0.5509  1.1904 -0.6593
57453SOL    HW284085   6.504   7.210   2.033 -0.5417 -0.2772 -0.1382
57454SOL     OW84086   0.897   2.964   1.873  0.1301  0.2417  0.3077
57454SOL    HW184087   0.818   3.017   1.860  0.3007  0.2779 -0.6439
57454SOL    HW284088   0.969   3.023   1.850  0.2587 -0.9271 -2.8305
57455SOL     OW84089   6.479  10.558  10.378  0.3477 -0.1488  0.1550
57455SOL    HW184090   6.552  10.614  10.353  0.5942 -0.1006  0.9522
57455SOL    HW284091   6.402  10.615  10.375  0.8418  0.7543  2.7303
57456SOL     OW84092  10.486   6.293  10.130  0.0150 -0.1103 -0.3117
57456SOL    HW184093  10.443   6.355  10.071  0.3192  0.4676  0.0693
57456SOL    HW284094  10.462   6.207  10.095  1.5022  0.2013 -2.2542
57457SOL     OW84095   2.429   4.544   3.067 -0.6064 -0.0522  0.6390
57457SOL    HW184096   2.403   4.459   3.030  1.7766 -0.9494  0.8648
57457SOL    HW284097   2.470   4.590   2.995  0.2416 -0.0758  1.0951
57458SOL     OW84098   8.466   6.877   5.261  0.3016 -0.1232  0.0818
57458SOL    HW184099   8.395   6.855   5.322  0.4552  1.0155  0.6854
57458SOL    HW284100   8.421   6.907   5.182  0.1119 -0.1407  0.1818
57459SOL     OW84101  10.426   8.900   4.757 -0.1761 -0.4515 -0.2597
57459SOL    HW184102  10.421   8.904   4.852 -0.0697 -1.4667 -0.1984
57459SOL    HW284103  10.364   8.965   4.726 -2.3456 -2.0440  0.5061
57460SOL     OW84104   7.179   0.875  11.220  0.3734 -0.1337 -0.0653
57460SOL    HW184105   7.138   0.954  11.187 -1.2886 -0.9290  0.0178
57460SOL    HW284106   7.250   0.906  11.276  0.3497  1.2670 -0.7844
57461SOL     OW84107   1.613   6.883   7.060  0.3793  0.5821  0.3315
57461SOL    HW184108   1.526   6.922   7.067 -0.1755 -0.6454  0.5516
57461SOL    HW284109   1.673   6.958   7.062 -0.6895  1.4965 -0.4736
57462SOL     OW84110   5.488   9.577   3.182 -0.1371 -0.1793  0.3972
57462SOL    HW184111   5.515   9.602   3.270 -1.2802  0.5987  0.5458
57462SOL    HW284112   5.460   9.659   3.141 -0.1917 -0.6204 -0.4820
57463SOL     OW84113   0.212  11.285  12.748 -0.5347  0.2037  0.2814
57463SOL    HW184114   0.173  11.359  12.795 -0.7954 -0.7883  1.6872
57463SOL    HW284115   0.194  11.303  12.656  0.3645  2.4362  0.4632
57464SOL     OW84116  12.942   5.239   6.137 -0.1885 -0.3859 -0.2871
57464SOL    HW184117  13.023   5.250   6.187  0.5642  0.1103 -1.5437
57464SOL    HW284118  12.957   5.289   6.056 -1.0954 -1.6355 -1.2721
57465SOL     OW84119   3.684  10.436   2.380 -0.2917  0.0438  0.2777
57465SOL    HW184120   3.688  10.413   2.287 -0.0950  0.0505  0.2838
57465SOL    HW284121   3.628  10.513   2.384 -1.5155 -0.8266  0.3283
57466SOL     OW84122   8.582   6.519   6.937  0.2783  0.1296  0.0521
57466SOL    HW184123   8.633   6.455   6.987  0.7561  1.7103  1.6839
57466SOL    HW284124   8.636   6.540   6.861  0.2906 -1.0503 -0.2961
57467SOL     OW84125  11.322   8.133   2.552 -0.5118  0.0985  0.1331
57467SOL    HW184126  11.411   8.132   2.586 -0.2834  1.7548 -0.3285
57467SOL    HW284127  11.332   8.154   2.459 -1.4029  1.0193  0.2281
57468SOL     OW84128   3.464  11.372   7.321 -1.1615  0.0929  0.1953
57468SOL    HW184129   3.507  11.372   7.407 -1.7769 -0.2825  0.5180
57468SOL    HW284130   3.533  11.394   7.259 -0.3663 -1.0680  0.6311
57469SOL     OW84131   8.255   2.881   4.577 -0.2832  0.1456 -0.2642
57469SOL    HW184132   8.220   2.894   4.489 -1.8854 -0.9592  0.1603
57469SOL    HW284133   8.348   2.860   4.563 -0.5875 -0.3313 -1.7262
57470SOL     OW84134   1.609   8.842  11.464  0.1272 -0.2902 -0.4795
57470SOL    HW184135   1.598   8.796  11.547  1.9825  1.6305  0.9329
57470SOL    HW284136   1.686   8.897  11.477  0.1736  0.4716 -3.3211
57471SOL     OW84137   7.273  13.251  12.187 -0.6951 -0.0482  0.0706
57471SOL    HW184138   7.242  13.212  12.268 -1.0698  0.3815  0.1367
57471SOL    HW284139   7.351  13.200  12.164 -1.6578 -1.4020 -0.3277
57472SOL     OW84140   8.507   0.542   6.263 -0.2095  0.4293  0.0822
57472SOL    HW184141   8.422   0.523   6.225 -0.4761  0.2077  0.7707
57472SOL    HW284142   8.570   0.515   6.196 -0.5345 -3.0828  0.9781
57473SOL     OW84143   9.394  10.109  12.994  0.1408 -0.1299 -0.1657
57473SOL    HW184144   9.335  10.134  13.065 -2.0183 -1.8084 -1.2370
57473SOL    HW284145   9.460  10.054  13.036 -0.9937 -0.9437  0.6016
57474SOL     OW84146  13.005   2.602   0.999 -0.2399  0.3315 -0.4371
57474SOL    HW184147  12.928   2.544   1.001  0.4342 -0.5870  2.0182
57474SOL    HW284148  13.073   2.549   0.957  0.1612 -0.4710  1.1307
57475SOL     OW84149   4.843   0.667   9.466  0.1278 -0.4940 -0.4478
57475SOL    HW184150   4.902   0.740   9.448  1.6324 -1.2166  1.2392
57475SOL    HW284151   4.784   0.665   9.390  1.4576  1.0506 -1.6059
57476SOL     OW84152   8.792  10.974  11.801  0.1630  0.0107 -0.1450
57476SOL    HW184153   8.815  11.049  11.855 -1.3781  0.6083 -0.2806
57476SOL    HW284154   8.725  10.928  11.852  0.3535 -0.7111 -0.5317
57477SOL     OW84155   4.707  13.723   9.039  0.0365 -0.1139  0.8464
57477SOL    HW184156   4.629  13.671   9.023  0.9624 -0.8990 -1.5780
57477SOL    HW284157   4.715  13.726   9.135 -2.2247 -1.0464  1.1276
57478SOL     OW84158   3.457   9.128   6.827  0.0428  0.0939 -0.4631
57478SOL    HW184159   3.472   9.223   6.817  0.3025 -0.0769 -2.1099
57478SOL    HW284160   3.539   9.088   6.798 -0.1215 -0.6495  0.0677
57479SOL     OW84161   2.263   4.788   0.943 -0.1887  0.0094 -0.5060
57479SOL    HW184162   2.282   4.698   0.973 -2.9491 -0.9027 -1.2254
57479SOL    HW284163   2.205   4.823   1.011  0.3604  1.0427 -0.5644
57480SOL     OW84164   2.596   0.993  12.572  0.0791 -0.2293 -0.2304
57480SOL    HW184165   2.540   1.038  12.635 -0.6822 -1.3292 -0.0879
57480SOL    HW284166   2.679   1.040  12.576 -1.6692  3.5380 -2.7989
57481SOL     OW84167   7.672  11.412   0.407  0.1359 -0.4713  0.3943
57481SOL    HW184168   7.652  11.319   0.394  4.6992 -1.5189 -0.5739
57481SOL    HW284169   7.669  11.424   0.502 -0.3468 -1.5950  0.5410
57482SOL     OW84170   1.097   4.414   7.211  0.1771 -0.0533 -0.1407
57482SOL    HW184171   1.053   4.493   7.181  0.2470 -0.6843 -2.0113
57482SOL    HW284172   1.150   4.386   7.137  0.8363 -1.3852  0.7857
57483SOL     OW84173   6.771   6.334  12.923  0.3518  0.5947  0.0311
57483SOL    HW184174   6.710   6.307  12.992  0.7233 -1.1895 -0.2883
57483SOL    HW284175   6.837   6.386  12.968  1.5005 -1.8664  1.4148
57484SOL     OW84176  13.586   6.137   3.658  0.1571 -0.0068  0.4215
57484SOL    HW184177  13.626   6.208   3.609 -1.2780  1.4383  1.2420
57484SOL    HW284178  13.502   6.122   3.615  0.1980 -0.8363  0.5967
57485SOL     OW84179   0.885  13.534  12.319  0.1055 -0.0079 -0.3342
57485SOL    HW184180   0.950  13.533  12.389  0.0526  2.4743 -0.1738
57485SOL    HW284181   0.812  13.482  12.354  1.0598 -0.9187  0.3852
57486SOL     OW84182   0.235   1.321   2.193 -0.2007 -0.1754 -0.5059
57486SOL    HW184183   0.258   1.296   2.104 -0.3371  0.3176 -0.6845
57486SOL    HW284184   0.209   1.239   2.235 -0.8565 -0.3068 -1.1389
57487SOL     OW84185  10.690   8.941   4.154  0.1690 -0.0482 -0.0190
57487SOL    HW184186  10.599   8.958   4.179 -0.2059 -1.0929 -0.6241
57487SOL    HW284187  10.712   9.013   4.096 -0.0289  0.6086  0.7033
57488SOL     OW84188   7.863  10.835   6.713  0.1460 -0.0084  0.1917
57488SOL    HW184189   7.897  10.898   6.777 -0.2352  0.1742  0.2161
57488SOL    HW284190   7.806  10.778   6.764 -0.5791  0.4594 -0.0674
57489SOL     OW84191  13.386   5.917   9.721  0.1088 -0.0250  0.0573
57489SOL    HW184192  13.478   5.946   9.721 -0.1792  1.1628 -2.1220
57489SOL    HW284193  13.359   5.926   9.629 -1.7364 -1.8912  0.3524
57490SOL     OW84194  11.159   7.891  11.014  0.0571 -0.5368  0.3386
57490SOL    HW184195  11.125   7.970  11.058  1.3772  0.5311 -0.4833
57490SOL    HW284196  11.251   7.911  10.998  0.0125 -1.5598 -1.4251
57491SOL     OW84197  12.067  13.513   4.258 -0.0466  0.1547 -0.2787
57491SOL    HW184198  12.042  13.459   4.333  2.2088  0.9344  1.1376
57491SOL    HW284199  12.102  13.450   4.194  0.3424 -0.3163  0.3769
57492SOL     OW84200   0.283  12.561   2.120 -0.0108 -0.2275 -0.4518
57492SOL    HW184201   0.290  12.602   2.206 -0.8626 -2.5315  0.8055
57492SOL    HW284202   0.191  12.573   2.095 -0.2822 -1.2983 -0.0507
57493SOL     OW84203  12.321   0.966   3.326  0.4787 -0.4009  0.6005
57493SOL    HW184204  12.379   1.031   3.366  0.9271 -1.3157  1.4896
57493SOL    HW284205  12.233   0.995   3.350  0.6016  0.4913  0.0179
57494SOL     OW84206   1.309   5.484   3.139 -0.3767  0.1427 -0.0732
57494SOL    HW184207   1.282   5.576   3.137  0.2393  0.3895  1.5886
57494SOL    HW284208   1.379   5.478   3.074 -0.4284  0.8428 -0.2024
57495SOL     OW84209   9.208   6.135  10.811 -0.3563  0.2689  0.3692
57495SOL    HW184210   9.167   6.194  10.874 -0.9984  0.0876  0.1293
57495SOL    HW284211   9.148   6.135  10.736  0.5769  0.7864 -0.4146
57496SOL     OW84212   5.981  11.330   5.412 -0.5251  0.1147 -0.4959
57496SOL    HW184213   6.064  11.313   5.367 -0.0966  0.1058  0.2733
57496SOL    HW284214   5.917  11.275   5.367  0.0444 -0.4603 -0.6173
57497SOL     OW84215  10.940   1.597  12.141 -0.3665 -0.1740 -0.3520
57497SOL    HW184216  10.947   1.668  12.204 -0.1910 -0.5860  0.0976
57497SOL    HW284217  11.027   1.591  12.102 -0.0641 -0.8834  0.4224
57498SOL     OW84218   7.431   9.057  11.350  0.2552  0.3266  0.2183
57498SOL    HW184219   7.406   8.986  11.408 -0.0721 -0.0393 -0.3609
57498SOL    HW284220   7.503   9.101  11.395 -0.3198  0.3581  1.1184
57499SOL     OW84221   6.340  12.805   8.238  0.1673 -0.2329 -0.1433
57499SOL    HW184222   6.414  12.831   8.292  1.0013 -2.2526 -0.2470
57499SOL    HW284223   6.377  12.794   8.150 -0.1465 -1.6438 -0.1146
57500SOL     OW84224   4.624  11.872   9.779 -0.8504 -0.1684 -0.0019
57500SOL    HW184225   4.616  11.835   9.867 -1.3500  1.1155  0.5264
57500SOL    HW284226   4.547  11.839   9.732  0.0307 -1.8089 -0.3483
57501SOL     OW84227   2.131   9.064  11.384 -0.1883  1.0058 -0.3007
57501SOL    HW184228   2.098   9.109  11.462 -0.0204  0.2048  0.2444
57501SOL    HW284229   2.223   9.087  11.380 -0.2125  1.1041 -0.3019
57502SOL     OW84230   2.973   8.944  13.311  0.1380 -0.3448  0.2389
57502SOL    HW184231   2.890   8.937  13.264 -0.4527 -2.0648  1.4450
57502SOL    HW284232   2.981   9.037  13.331 -1.6996 -0.1927  0.4293
57503SOL     OW84233   3.824   2.285   7.175  0.1645 -0.3709 -0.0003
57503SOL    HW184234   3.729   2.296   7.172  0.2032 -0.1972 -0.9507
57503SOL    HW284235   3.858   2.372   7.195  0.1930  0.0238 -1.5999
57504SOL     OW84236  11.723   9.608   7.874 -0.3380  0.2758  0.1005
57504SOL    HW184237  11.736   9.642   7.962  0.2131 -1.4518  0.7308
57504SOL    HW284238  11.659   9.667   7.834 -1.0662  0.7403  1.8746
57505SOL     OW84239   4.188  11.006   3.559 -0.0931  0.0234  0.4569
57505SOL    HW184240   4.112  11.039   3.607  0.0640  1.6658 -0.3317
57505SOL    HW284241   4.160  10.922   3.524 -2.4593  1.5541 -1.7312
57506SOL     OW84242   0.744  13.537   8.332 -0.2183 -0.4339 -0.1159
57506SOL    HW184243   0.770  13.496   8.250 -0.0698 -0.6218  0.0257
57506SOL    HW284244   0.699  13.617   8.305 -1.1801 -1.0645 -0.4127
57507SOL     OW84245   8.018   9.453   3.298  0.1188 -0.2760  0.0852
57507SOL    HW184246   8.004   9.423   3.388  2.3217  0.9482  0.9295
57507SOL    HW284247   7.962   9.530   3.290  0.4823  0.0664  0.7117
57508SOL     OW84248  10.326  11.098   7.820 -0.0281 -0.1179 -0.2795
57508SOL    HW184249  10.391  11.097   7.890  1.6625  0.4351 -1.7563
57508SOL    HW284250  10.278  11.180   7.833 -0.0373 -0.2323  0.4571
57509SOL     OW84251   5.207   3.851  10.431 -0.1455 -0.0989 -0.5003
57509SOL    HW184252   5.287   3.799  10.421 -0.6994 -0.6068 -2.9807
57509SOL    HW284253   5.221   3.927  10.374 -0.1985  1.4864  1.5007
57510SOL     OW84254  13.539   5.996   9.116  0.2349 -0.9222 -0.9463
57510SOL    HW184255  13.564   6.062   9.051 -0.1180 -0.3781 -0.5355
57510SOL    HW284256  13.504   5.924   9.064 -0.4049 -0.3398 -1.3480
57511SOL     OW84257  10.197  12.210  10.276 -0.2575 -0.0820 -0.3300
57511SOL    HW184258  10.230  12.193  10.187  0.5608  0.0962 -0.0671
57511SOL    HW284259  10.264  12.266  10.316 -1.1583  0.7597  0.0348
57512SOL     OW84260   2.582   4.924   9.635 -0.3040 -0.3994 -0.8300
57512SOL    HW184261   2.604   4.917   9.542  0.1235  1.1279 -0.8719
57512SOL    HW284262   2.503   4.870   9.645  0.1162 -1.2455 -1.8900
57513SOL     OW84263  13.005   5.495  13.047  0.0812  0.1781 -0.3569
57513SOL    HW184264  13.082   5.538  13.084 -0.2988 -0.6528  1.4967
57513SOL    HW284265  13.010   5.405  13.078 -1.5593  0.0597 -0.3212
57514SOL     OW84266   7.478  10.026   3.756  0.4046  0.4319 -0.4750
57514SOL    HW184267   7.488   9.931   3.748 -0.2237  0.3881 -0.8511
57514SOL    HW284268   7.465  10.056   3.666  1.6301  1.0121 -0.4734
57515SOL     OW84269   3.833  10.575   9.479  0.7459 -0.4852 -0.2845
57515SOL    HW184270   3.872  10.530   9.554  0.6810 -2.4344 -1.3343
57515SOL    HW284271   3.906  10.620   9.436  0.8877  0.1356  0.6018
57516SOL     OW84272  10.687   0.962   4.767 -0.0714  0.3476 -0.0338
57516SOL    HW184273  10.642   0.939   4.686 -0.6900  0.4560  0.2685
57516SOL    HW284274  10.724   0.880   4.799  0.1480  0.3014 -0.4104
57517SOL     OW84275  11.978   1.382   6.183  0.6837  0.5068 -0.5575
57517SOL    HW184276  11.985   1.455   6.245  1.4433  0.2589 -0.3329
57517SOL    HW284277  11.885   1.374   6.165  0.2319 -0.6084  1.9734
57518SOL     OW84278   1.406   5.831   7.058  0.4330 -0.2786  0.0200
57518SOL    HW184279   1.391   5.906   7.116  1.6461 -1.8875  2.6099
57518SOL    HW284280   1.346   5.763   7.091  0.9551 -1.1514 -0.7949
57519SOL     OW84281   8.421   3.361   8.462 -0.2158 -0.1727  0.0752
57519SOL    HW184282   8.371   3.440   8.481  0.0249  0.1009 -0.4045
57519SOL    HW284283   8.355   3.291   8.460 -0.5008  0.0948  0.0061
57520SOL     OW84284   0.928   6.053  13.491  0.2806  0.6897  0.3437
57520SOL    HW184285   0.896   5.985  13.551  0.5020 -1.0841 -1.4258
57520SOL    HW284286   0.947   6.128  13.547 -0.1035 -0.6606  2.3859
57521SOL     OW84287   9.635   6.198   2.740  0.1191  0.3512  0.3190
57521SOL    HW184288   9.646   6.231   2.650 -1.5096  0.9300  0.2757
57521SOL    HW284289   9.627   6.278   2.793 -1.2293  0.0504  0.6115
57522SOL     OW84290  10.215   7.356  11.789 -0.0969 -0.0696 -0.0127
57522SOL    HW184291  10.242   7.374  11.879  0.3805  0.3687 -0.2373
57522SOL    HW284292  10.183   7.266  11.791  0.6180 -0.3236  0.4408
57523SOL     OW84293   8.094   3.212   5.098  0.0308  0.0479  0.0158
57523SOL    HW184294   8.073   3.124   5.130 -0.4668 -0.3126 -1.2759
57523SOL    HW284295   8.105   3.264   5.178 -0.3033 -1.0331  0.7859
57524SOL     OW84296   9.956  11.418  13.345 -0.5100  0.1168 -0.1596
57524SOL    HW184297   9.946  11.482  13.416 -1.0461  1.0176 -1.0332
57524SOL    HW284298  10.051  11.402  13.341 -0.4392  0.3112  0.5386
57525SOL     OW84299   6.718   0.919   6.614 -0.4208  0.4829  0.3993
57525SOL    HW184300   6.657   0.845   6.624 -0.7424  0.3570 -1.9656
57525SOL    HW284301   6.805   0.880   6.624 -0.6154  0.6217  3.5541
57526SOL     OW84302  11.940   8.285   7.146 -0.1941 -0.2535 -0.0414
57526SOL    HW184303  11.934   8.239   7.230 -1.6599 -0.2884 -0.1457
57526SOL    HW284304  11.999   8.358   7.164 -0.3584 -0.3467  0.9783
57527SOL     OW84305   6.759   6.401   5.830 -0.0733 -0.1234  0.3466
57527SOL    HW184306   6.750   6.331   5.765 -0.1511  0.8033 -0.6554
57527SOL    HW284307   6.726   6.479   5.786  1.2838  0.8275  0.9605
57528SOL     OW84308   3.821  11.574   3.712 -0.1933 -0.3228 -0.4185
57528SOL    HW184309   3.893  11.516   3.685  0.4004  0.4066 -0.4283
57528SOL    HW284310   3.855  11.620   3.788  0.0590  1.3602 -1.4992
57529SOL     OW84311   2.965   1.509   6.823  0.0167  0.0302 -0.3068
57529SOL    HW184312   2.981   1.548   6.908 -0.3340  0.0302 -0.2431
57529SOL    HW284313   3.053   1.495   6.786  0.2670 -1.7165  0.8333
57530SOL     OW84314   3.897  11.086  10.208 -0.5533 -0.4363  0.4636
57530SOL    HW184315   3.937  11.171  10.190 -1.1300 -0.0591  0.9198
57530SOL    HW284316   3.969  11.032  10.241 -0.3551  0.1316  0.9681
57531SOL     OW84317   8.218   0.520  11.344 -0.3950 -0.1039  0.0243
57531SOL    HW184318   8.164   0.576  11.289 -1.5199  0.1063  1.2770
57531SOL    HW284319   8.198   0.431  11.315  0.4002  0.0662 -1.0906
57532SOL     OW84320   0.318   5.362   9.518  0.0149  0.1848 -0.2345
57532SOL    HW184321   0.410   5.343   9.538 -0.3157 -0.4493  0.7511
57532SOL    HW284322   0.281   5.277   9.496 -0.9029 -0.0057  1.8132
57533SOL     OW84323  10.449   9.263   5.147 -0.2991 -0.0132 -0.9484
57533SOL    HW184324  10.391   9.282   5.221  0.1887  0.9259 -0.7935
57533SOL    HW284325  10.454   9.168   5.144  0.1102 -0.0564  0.5805
57534SOL     OW84326  13.336   6.534   9.062 -0.3981 -0.2111 -0.3094
57534SOL    HW184327  13.286   6.616   9.065  1.8436  1.2777 -0.4992
57534SOL    HW284328  13.309   6.492   8.980 -0.3391  1.2582 -1.1217
57535SOL     OW84329   5.351   3.862   9.399  0.5632  0.5917  0.1688
57535SOL    HW184330   5.393   3.814   9.327 -2.8549  0.8399 -2.2367
57535SOL    HW284331   5.390   3.949   9.394  2.8734 -0.3004  1.0178
57536SOL     OW84332  12.578  10.729   9.041 -0.3960  0.3929 -0.1541
57536SOL    HW184333  12.527  10.655   9.074  1.1921 -0.0067  1.5644
57536SOL    HW284334  12.666  10.693   9.027  0.2892  1.8588  0.2888
57537SOL     OW84335   3.057   9.451   4.727  0.7482  0.7289  0.3537
57537SOL    HW184336   3.032   9.499   4.647  0.8854  0.9022  0.4149
57537SOL    HW284337   3.140   9.490   4.753 -0.4107  2.3273  1.9151
57538SOL     OW84338  10.767   2.540  12.850  0.0814 -0.3686  0.2153
57538SOL    HW184339  10.675   2.569  12.852  0.2977  0.3221  0.4364
57538SOL    HW284340  10.797   2.549  12.940 -0.2747 -2.7728  0.6324
57539SOL     OW84341   5.499   1.406  10.200 -0.2460 -0.6131 -0.1851
57539SOL    HW184342   5.594   1.415  10.189 -0.2407  0.3014  0.4629
57539SOL    HW284343   5.481   1.450  10.283 -1.3013 -0.3817 -0.5292
57540SOL     OW84344  13.622   6.544   4.842 -0.0828  0.3100 -0.5637
57540SOL    HW184345  13.641   6.637   4.834  0.1466  0.3051 -0.0973
57540SOL    HW284346  13.621   6.528   4.937  1.5407 -0.4954 -0.6530
57541SOL     OW84347  13.513   9.836   9.233  0.1760 -0.2175  0.2185
57541SOL    HW184348  13.467   9.787   9.166  0.2622 -2.3174  1.5867
57541SOL    HW284349  13.445   9.884   9.280  0.0426  0.6993 -0.8553
57542SOL     OW84350  11.712  12.565   4.126  0.0933  0.4293  0.2139
57542SOL    HW184351  11.726  12.492   4.066 -1.9294  0.1219  0.0584
57542SOL    HW284352  11.724  12.526   4.213 -0.8737 -0.0919  0.1283
57543SOL     OW84353   1.585   2.664   8.348  0.7851  0.1588  0.3158
57543SOL    HW184354   1.633   2.626   8.274 -1.1511  0.4597 -1.1804
57543SOL    HW284355   1.608   2.757   8.347  1.2691  0.0413  0.5051
57544SOL     OW84356   1.984  11.598  11.443  0.2727 -0.8204 -0.4782
57544SOL    HW184357   1.964  11.599  11.349  0.2944 -0.2276 -0.4800
57544SOL    HW284358   2.026  11.513  11.457 -0.1407 -1.1024 -0.9155
57545SOL     OW84359   0.784   6.706   8.004 -0.2961 -0.3135 -0.3409
57545SOL    HW184360   0.742   6.726   8.087  1.6284 -0.5104  0.7403
57545SOL    HW284361   0.800   6.791   7.963  2.4548  0.1679  1.4686
57546SOL     OW84362   8.916   5.514  12.583  0.2583 -0.1347  0.0796
57546SOL    HW184363   8.925   5.449  12.653  0.4792 -0.4400 -0.2330
57546SOL    HW284364   8.821   5.524  12.573  0.1315 -2.2666 -1.5620
57547SOL     OW84365  11.734   6.983  10.770  0.5824 -0.0855  0.0761
57547SOL    HW184366  11.664   6.918  10.769  1.1624 -0.7973 -2.7137
57547SOL    HW284367  11.773   6.978  10.682  0.7606  3.9258 -0.2828
57548SOL     OW84368   8.871   5.453   0.038 -0.3512  0.7720  0.4848
57548SOL    HW184369   8.904   5.529  -0.009 -1.5552  0.4947 -0.9043
57548SOL    HW284370   8.802   5.488   0.095 -0.7605  0.7614  0.0019
57549SOL     OW84371   8.470   1.238   7.259 -0.3205 -0.3206 -0.0617
57549SOL    HW184372   8.402   1.294   7.295  0.3465  0.5774 -0.1794
57549SOL    HW284373   8.544   1.248   7.319  0.4751  0.4631 -1.1406
57550SOL     OW84374   0.719   9.946  11.706  0.0926  0.0427 -0.9070
57550SOL    HW184375   0.801   9.962  11.753  0.8687 -0.2340 -2.1255
57550SOL    HW284376   0.652   9.984  11.762  1.1460  1.0907 -0.3093
57551SOL     OW84377   3.472  13.002  13.423  0.0759  0.4881  0.5954
57551SOL    HW184378   3.558  13.019  13.461  0.7683 -2.2176  0.4058
57551SOL    HW284379   3.419  13.078  13.448  2.1205  1.5710  1.8662
57552SOL     OW84380   0.236   6.632   9.941 -0.2833  0.7017  0.1960
57552SOL    HW184381   0.280   6.579  10.007 -0.4453  0.5289  0.1649
57552SOL    HW284382   0.281   6.613   9.859  0.4523  1.5311  0.3909
57553SOL     OW84383   3.388  10.752   9.396  0.7519  0.6372 -0.0106
57553SOL    HW184384   3.475  10.748   9.434  0.1911 -1.4068  1.2238
57553SOL    HW284385   3.336  10.691   9.448 -0.6058 -0.7549 -2.7545
57554SOL     OW84386   4.862   1.200  10.547  0.6453  0.1774 -0.1627
57554SOL    HW184387   4.774   1.221  10.578  1.4443  1.1044  1.6134
57554SOL    HW284388   4.911   1.282  10.552  1.4392 -0.1416 -1.8641
57555SOL     OW84389   2.962   2.304   7.720  0.4205 -0.0325 -0.2511
57555SOL    HW184390   2.879   2.261   7.699  0.6454 -1.6771  1.8609
57555SOL    HW284391   2.939   2.370   7.785  0.5818  0.5475 -0.7747
57556SOL     OW84392  12.848   0.455  12.426  0.5231 -0.2923 -0.0032
57556SOL    HW184393  12.861   0.550  12.433  0.5900 -0.3561  0.9606
57556SOL    HW284394  12.799   0.432  12.506 -1.6086 -0.7283 -1.3437
57557SOL     OW84395   3.090   4.452   9.029  0.1674  0.0323 -0.1227
57557SOL    HW184396   3.059   4.540   9.052  1.4363  0.4543  0.0664
57557SOL    HW284397   3.138   4.423   9.106 -0.4258 -0.9354 -0.1031
57558SOL     OW84398  10.633  11.528   8.013 -0.2847 -0.2746  0.2530
57558SOL    HW184399  10.624  11.461   8.081 -0.3590 -0.6644 -0.1416
57558SOL    HW284400  10.727  11.539   8.003 -0.2730 -0.1867  0.4436
57559SOL     OW84401   9.891  12.083   9.731 -0.7375 -0.2711 -0.5886
57559SOL    HW184402   9.972  12.076   9.780 -1.6748  0.3522  1.1408
57559SOL    HW284403   9.852  11.996   9.735 -0.1516 -0.5831 -1.4650
57560SOL     OW84404   8.866   4.051   1.511 -0.1033  0.0742 -0.4622
57560SOL    HW184405   8.795   3.989   1.529  1.2601 -1.0599  1.2584
57560SOL    HW284406   8.857   4.117   1.580  1.3200 -0.8485  0.6545
57561SOL     OW84407  13.213   9.983   0.959  0.5607 -0.3607 -0.1860
57561SOL    HW184408  13.196  10.053   1.022  0.2762  0.3263 -1.0206
57561SOL    HW284409  13.144   9.992   0.894  1.5348 -0.3171 -1.2462
57562SOL     OW84410   5.776   8.577  11.036  0.0174 -0.0850  0.3826
57562SOL    HW184411   5.724   8.620  10.969  0.7183  0.4633  0.1740
57562SOL    HW284412   5.810   8.498  10.993  0.1183  0.0449  0.2218
57563SOL     OW84413   9.299   3.243   7.408  0.1898  0.0949  0.4157
57563SOL    HW184414   9.337   3.211   7.490 -1.5836  0.3252  1.3598
57563SOL    HW284415   9.247   3.318   7.433  0.8160  1.1115 -1.1743
57564SOL     OW84416   9.278  10.681   0.415 -0.0706  0.4334  0.2856
57564SOL    HW184417   9.335  10.752   0.444 -0.4784  0.9833 -0.2369
57564SOL    HW284418   9.312  10.603   0.459  1.6915  0.5689 -0.7516
57565SOL     OW84419  11.650   8.199  13.386 -0.3246  0.2406  0.4253
57565SOL    HW184420  11.660   8.105  13.371  1.6417  0.5708 -0.8651
57565SOL    HW284421  11.693   8.215  13.470  1.1621  0.2147 -0.2956
57566SOL     OW84422   3.516   7.202   5.560 -0.0556  0.1784 -0.6114
57566SOL    HW184423   3.485   7.126   5.610  1.1397 -1.1576 -1.8200
57566SOL    HW284424   3.603   7.220   5.595 -0.1285  0.6818 -0.6871
57567SOL     OW84425   2.491   6.519   2.326 -0.1742  0.1120 -0.1260
57567SOL    HW184426   2.490   6.541   2.233  2.4679 -1.4496 -0.6131
57567SOL    HW284427   2.524   6.429   2.330 -1.3595 -0.3169  2.2908
57568SOL     OW84428   0.537   2.912   2.191  0.2347  0.4629 -0.4529
57568SOL    HW184429   0.591   2.961   2.253  1.6219 -0.5773 -0.7768
57568SOL    HW284430   0.598   2.885   2.123  0.3834 -4.2881  1.1796
57569SOL     OW84431   7.452  12.020   7.342  0.1196  0.2277  0.2068
57569SOL    HW184432   7.482  11.941   7.388 -1.5446 -1.8245 -1.9846
57569SOL    HW284433   7.487  12.011   7.254 -2.0155  0.7103 -0.7469
57570SOL     OW84434   1.582   0.764   6.687  0.2967 -0.3191 -0.4153
57570SOL    HW184435   1.530   0.839   6.714 -0.9884 -1.2097 -0.3444
57570SOL    HW284436   1.556   0.748   6.596  1.4487  0.0408 -0.8258
57571SOL     OW84437   8.847   1.239  11.121  0.8096 -0.0690 -0.8085
57571SOL    HW184438   8.812   1.178  11.187 -0.3529  1.2786 -0.1327
57571SOL    HW284439   8.850   1.187  11.041 -1.2581 -0.7317 -0.5220
57572SOL     OW84440   2.705   2.894   7.124  0.2826  0.0359  0.3327
57572SOL    HW184441   2.729   2.802   7.117 -0.7793 -0.1838 -0.6249
57572SOL    HW284442   2.672   2.904   7.213  2.4204  0.0121  1.1828
57573SOL     OW84443   0.043   4.391   5.898  0.1046  0.2108  0.4850
57573SOL    HW184444   0.109   4.378   5.965  0.1121  0.3329  0.5013
57573SOL    HW284445   0.092   4.422   5.821  0.1281 -0.1770  0.3441
57574SOL     OW84446   2.392   8.134   1.879 -0.0647 -0.3871 -0.3029
57574SOL    HW184447   2.397   8.059   1.820 -2.3267 -0.6958 -0.1894
57574SOL    HW284448   2.421   8.208   1.826  0.8418 -1.1089 -0.8487
57575SOL     OW84449   0.552   4.299   5.873  0.2669  0.1359  0.6902
57575SOL    HW184450   0.630   4.242   5.877  0.3947  0.1571 -1.0305
57575SOL    HW284451   0.587   4.388   5.876  0.5585  0.2100 -2.3114
57576SOL     OW84452  10.674  12.743   6.225 -0.5907 -0.0044  0.4853
57576SOL    HW184453  10.606  12.808   6.209 -0.8791 -0.4720 -0.2832
57576SOL    HW284454  10.719  12.773   6.304  1.5784  3.0578 -1.6646
57577SOL     OW84455   6.844   0.108   4.075  0.0678  0.2516  0.1580
57577SOL    HW184456   6.836   0.085   4.167  1.2330 -1.3303 -0.0909
57577SOL    HW284457   6.933   0.141   4.066 -0.9481  3.2676  0.1086
57578SOL     OW84458   0.639  12.455  12.478 -0.1078  0.3284  0.1168
57578SOL    HW184459   0.697  12.412  12.414  0.6428 -0.7093  1.4313
57578SOL    HW284460   0.636  12.546  12.450  2.4117  0.4958  0.1047
57579SOL     OW84461   1.332   5.762  11.085 -0.1690 -0.1692  0.4530
57579SOL    HW184462   1.374   5.838  11.124  2.4510 -0.1944 -1.9536
57579SOL    HW284463   1.260   5.799  11.033 -0.4429  0.3822  1.2064
57580SOL     OW84464   7.868  11.770  11.285 -0.1868 -0.2150  0.0298
57580SOL    HW184465   7.914  11.744  11.365 -0.5691 -1.2993 -0.0922
57580SOL    HW284466   7.815  11.846  11.311  1.4374  0.8962  0.2343
57581SOL     OW84467   6.858  12.304   9.292  0.5247 -0.2871 -0.6740
57581SOL    HW184468   6.915  12.228   9.280  0.1162 -0.4627 -1.5498
57581SOL    HW284469   6.881  12.337   9.379  1.5547 -0.6932 -0.7775
57582SOL     OW84470   9.957  11.454   3.735 -0.1795 -0.2584 -0.4500
57582SOL    HW184471   9.897  11.521   3.769 -0.0624  0.0422 -0.8309
57582SOL    HW284472  10.034  11.504   3.707  0.2158 -0.6294 -0.0502
57583SOL     OW84473   3.254   9.475   8.050 -0.0579  0.4630 -0.6466
57583SOL    HW184474   3.231   9.383   8.035  4.2842 -1.0425  0.3189
57583SOL    HW284475   3.245   9.486   8.145 -1.3248  1.3571 -0.8468
57584SOL     OW84476   5.044  13.737   1.694  0.0496 -0.0969  0.3537
57584SOL    HW184477   5.140  13.731   1.699  0.0752  0.4240  0.5938
57584SOL    HW284478   5.027  13.781   1.611  0.0883  1.0722  0.9391
57585SOL     OW84479   0.786   3.050   5.293  0.3345  0.3431  0.1115
57585SOL    HW184480   0.720   3.118   5.280  0.7602  0.7748  0.1603
57585SOL    HW284481   0.862   3.080   5.243 -0.1641 -1.1346 -1.6161
57586SOL     OW84482   0.673   7.650   0.107 -0.1310  0.1880  0.2837
57586SOL    HW184483   0.584   7.638   0.139  0.1550 -0.5095  0.8637
57586SOL    HW284484   0.666   7.641   0.012 -0.6824  0.1760  0.3238
57587SOL     OW84485   8.610  10.244   7.115  0.0049 -0.2743 -0.1962
57587SOL    HW184486   8.640  10.178   7.053 -0.6403 -2.7925  1.9879
57587SOL    HW284487   8.688  10.269   7.164  0.2671  0.7511 -1.0831
57588SOL     OW84488   0.209   0.990  13.372 -0.5774 -0.0346 -0.0921
57588SOL    HW184489   0.114   0.987  13.377 -0.5534  0.0569  0.4834
57588SOL    HW284490   0.234   1.056  13.437 -0.2261  1.2649 -1.4707
57589SOL     OW84491  10.004   5.509   6.474  0.3633  0.6239 -0.1307
57589SOL    HW184492  10.076   5.458   6.512  0.4017  0.3669 -0.5356
57589SOL    HW284493   9.970   5.453   6.404 -1.5673 -0.1668  1.3286
57590SOL     OW84494   1.071   8.038   8.172  0.0212  0.1062  0.3157
57590SOL    HW184495   1.136   8.086   8.223  0.2302 -0.8370  0.9537
57590SOL    HW284496   1.002   8.016   8.235 -1.6712  2.2934 -0.6115
57591SOL     OW84497  10.276   7.080   3.494  0.2252 -0.3555  0.1096
57591SOL    HW184498  10.304   7.077   3.403 -0.2254 -2.2001 -0.0161
57591SOL    HW284499  10.356   7.102   3.543  0.1862  1.9796 -0.7804
57592SOL     OW84500  13.119  11.238   1.713  0.4843  0.2730 -0.4726
57592SOL    HW184501  13.202  11.262   1.754  0.1074 -0.0150  0.4894
57592SOL    HW284502  13.079  11.176   1.775 -0.8353  1.0855 -0.4848
57593SOL     OW84503   3.372   0.917   2.482 -0.1141 -0.1796  0.3989
57593SOL    HW184504   3.313   0.853   2.522 -1.5036 -0.6426 -2.1457
57593SOL    HW284505   3.318   0.994   2.466  0.5256  0.1978 -0.0283
57594SOL     OW84506  10.113  10.552   6.064  0.3803  0.0432  0.0189
57594SOL    HW184507  10.185  10.604   6.099 -0.5584  1.3089  0.1346
57594SOL    HW284508  10.124  10.465   6.103  1.7149  0.2702  0.1808
57595SOL     OW84509  10.601   0.183   0.735 -0.6480  0.6180 -0.3784
57595SOL    HW184510  10.659   0.122   0.690 -1.8681 -1.0063  0.1603
57595SOL    HW284511  10.655   0.261   0.751  0.4721  0.3392 -2.5411
57596SOL     OW84512   5.360   4.022   7.376 -0.2300 -0.3660  0.4737
57596SOL    HW184513   5.313   3.940   7.394 -1.3311  0.6193  2.3845
57596SOL    HW284514   5.315   4.088   7.429  1.3000  1.2937 -0.1809
57597SOL     OW84515   2.710   6.312   4.807 -0.1940  0.0236 -0.1038
57597SOL    HW184516   2.671   6.369   4.872 -0.2092  1.1093 -1.0364
57597SOL    HW284517   2.783   6.363   4.771 -1.1547  0.1174 -2.0535
57598SOL     OW84518   0.078   5.858   1.407 -0.1232 -0.1171 -0.9722
57598SOL    HW184519   0.084   5.805   1.486  0.3190  0.5699 -0.5360
57598SOL    HW284520   0.102   5.798   1.336  1.3326 -0.2593 -0.3871
57599SOL     OW84521   5.368   2.719   7.025  0.5860  0.0902 -0.2252
57599SOL    HW184522   5.409   2.805   7.028  0.6946  0.0971 -1.4767
57599SOL    HW284523   5.391   2.684   6.939 -2.2186  0.1917 -1.1005
57600SOL     OW84524   4.569   0.681   8.765 -0.2839  0.3145 -0.0625
57600SOL    HW184525   4.612   0.762   8.793  2.0851  0.1175 -2.6256
57600SOL    HW284526   4.501   0.710   8.704  0.5051  0.4677 -0.9108
57601SOL     OW84527   7.918   3.122   4.073 -0.1513 -0.4517 -0.4337
57601SOL    HW184528   8.000   3.134   4.122 -1.0765 -0.2663  1.1637
57601SOL    HW284529   7.869   3.203   4.089 -0.9091 -0.8257 -0.8329
57602SOL     OW84530   3.144   2.365  11.794 -0.3014  0.2315 -0.1637
57602SOL    HW184531   3.078   2.328  11.736 -0.9953  0.1842  0.6267
57602SOL    HW284532   3.222   2.374  11.740 -1.1206  0.8488 -1.2867
57603SOL     OW84533  11.411   1.873   1.877  0.2977 -0.3023  0.4985
57603SOL    HW184534  11.447   1.874   1.965  0.1610 -0.0837  0.5526
57603SOL    HW284535  11.370   1.787   1.869  0.8897 -0.5787  0.4106
57604SOL     OW84536   2.552   3.874  13.300 -0.4028  0.4787  0.7697
57604SOL    HW184537   2.603   3.864  13.381 -0.8025  0.1897  0.9859
57604SOL    HW284538   2.462   3.856  13.326 -0.3834 -0.7637  0.0104
57605SOL     OW84539   2.130   7.865   3.470  0.2314  0.7011 -0.4372
57605SOL    HW184540   2.180   7.812   3.532 -1.9416 -0.4443  0.4581
57605SOL    HW284541   2.193   7.886   3.401  1.2245 -3.5810 -1.1701
57606SOL     OW84542   3.022   4.056   7.938 -0.1963 -0.1451 -0.2194
57606SOL    HW184543   3.113   4.068   7.966  0.7015 -3.6531 -1.1623
57606SOL    HW284544   3.025   4.062   7.842 -1.3688  1.4846 -0.2058
57607SOL     OW84545   9.432   4.458  10.551  0.3365 -0.0543  0.4104
57607SOL    HW184546   9.381   4.476  10.630  1.8096  1.6127  1.0371
57607SOL    HW284547   9.365   4.441  10.483 -1.1349  2.7338  1.0203
57608SOL     OW84548   1.379  13.528   5.974 -0.2839 -0.3936  0.2595
57608SOL    HW184549   1.328  13.490   5.902 -1.0481 -1.3319  1.2549
57608SOL    HW284550   1.388  13.621   5.951  0.4161 -0.8649 -1.5470
57609SOL     OW84551   4.286   1.498   5.532 -0.0920 -0.7349 -0.2564
57609SOL    HW184552   4.303   1.424   5.590 -0.2082 -0.4679  0.1175
57609SOL    HW284553   4.355   1.493   5.466 -0.0793 -1.1553 -0.2115
57610SOL     OW84554   0.503   8.611  12.956 -0.1506  0.0644  0.4568
57610SOL    HW184555   0.505   8.515  12.961  0.1934  0.0496  0.1187
57610SOL    HW284556   0.456   8.630  12.875  0.8345  0.1532 -0.1139
57611SOL     OW84557  11.943   5.241   6.251 -0.4369  0.1147 -0.0957
57611SOL    HW184558  11.978   5.242   6.162 -1.5976  1.5342 -0.5745
57611SOL    HW284559  11.984   5.317   6.294  0.4367 -0.7994  0.7311
57612SOL     OW84560  10.707   4.421   4.196  0.1225  0.8405 -0.3216
57612SOL    HW184561  10.716   4.453   4.286 -0.3951  0.0779  0.0065
57612SOL    HW284562  10.639   4.354   4.200  0.7763  0.0962 -1.0926
57613SOL     OW84563  11.274   5.919   7.271 -0.5533 -0.2136 -0.1881
57613SOL    HW184564  11.361   5.901   7.235 -0.8352 -2.0463 -0.0479
57613SOL    HW284565  11.292   5.967   7.352  0.4383 -1.6873  0.5220
57614SOL     OW84566   6.777   6.004   8.169  0.1938  0.2807  0.4451
57614SOL    HW184567   6.800   5.944   8.098  0.6292 -0.7950  1.4694
57614SOL    HW284568   6.826   6.084   8.149 -0.1570  0.2218 -0.7682
57615SOL     OW84569  11.820   0.623   6.286  0.2602  0.1687 -0.5790
57615SOL    HW184570  11.850   0.545   6.333  1.5737  0.8605 -0.2164
57615SOL    HW284571  11.882   0.634   6.214 -0.0061  0.7768 -0.7256
57616SOL     OW84572   4.035  11.651   9.599  0.0729 -0.1947  0.5192
57616SOL    HW184573   4.021  11.746   9.603 -0.7304 -0.1741 -1.3263
57616SOL    HW284574   4.130  11.641   9.597  0.1639  0.6394 -0.1265
57617SOL     OW84575   5.598   2.695   6.538  0.1832  0.1754 -0.9381
57617SOL    HW184576   5.688   2.705   6.509  0.3340 -0.6548 -0.7551
57617SOL    HW284577   5.555   2.777   6.510  0.9922  0.5948 -0.9762
57618SOL     OW84578   8.677   7.659   8.228 -0.4805  0.8006 -0.1464
57618SOL    HW184579   8.735   7.671   8.302 -0.3214  1.1778 -0.3273
57618SOL    HW284580   8.719   7.706   8.156  1.3117 -2.6039 -1.5493
57619SOL     OW84581   2.215  11.487   3.474  0.0415 -0.1403  0.6413
57619SOL    HW184582   2.125  11.457   3.462  0.8720 -1.6559 -3.1283
57619SOL    HW284583   2.251  11.493   3.385  3.5069  1.0514  1.9333
57620SOL     OW84584   0.412   4.683   2.072 -0.0591  0.1144 -0.2748
57620SOL    HW184585   0.400   4.666   1.978  0.7250 -2.6958  0.0272
57620SOL    HW284586   0.475   4.755   2.076  1.0937 -0.7278 -1.9741
57621SOL     OW84587   5.226   9.275   3.782 -0.2349 -0.6050  0.1230
57621SOL    HW184588   5.144   9.313   3.749  0.5129 -0.7511 -2.0615
57621SOL    HW284589   5.287   9.283   3.709  1.8286 -0.2045  1.8101
57622SOL     OW84590  10.188   7.704   8.040  0.0117 -0.0299 -0.7512
57622SOL    HW184591  10.113   7.665   8.084 -0.0624  0.0880 -0.7726
57622SOL    HW284592  10.257   7.638   8.047 -0.0601 -0.0927 -0.6350
57623SOL     OW84593   5.773   1.664   1.533  0.4155  0.7722 -0.0758
57623SOL    HW184594   5.864   1.691   1.548 -0.2686  2.5336  1.3125
57623SOL    HW284595   5.721   1.740   1.561 -1.5408 -0.8695  0.9643
57624SOL     OW84596   0.120   0.558  10.496 -0.0095 -0.2937 -0.3340
57624SOL    HW184597   0.191   0.595  10.548  1.1944 -2.7182 -0.1431
57624SOL    HW284598   0.128   0.602  10.411  0.0051  1.3755  0.4967
57625SOL     OW84599   9.602  10.547   4.007  0.2829 -0.4306 -0.0022
57625SOL    HW184600   9.508  10.558   4.016  0.3753  0.3071  0.1429
57625SOL    HW284601   9.615  10.453   3.997 -0.4773 -0.5241 -0.1485
57626SOL     OW84602   5.609  11.801  11.059  0.3296  0.0794 -0.0575
57626SOL    HW184603   5.649  11.875  11.106  0.4325  0.7052 -1.1107
57626SOL    HW284604   5.518  11.802  11.088  0.7725 -0.6348  1.4612
57627SOL     OW84605  13.538   1.598   9.080 -0.2385 -0.3222 -0.1590
57627SOL    HW184606  13.460   1.639   9.042 -0.5467 -0.0310  0.7567
57627SOL    HW284607  13.506   1.515   9.116  0.1559 -0.8507 -0.9771
57628SOL     OW84608   6.245   1.009   4.855 -0.5620 -0.0691  0.4118
57628SOL    HW184609   6.335   1.009   4.824 -0.6694 -2.4221 -0.0549
57628SOL    HW284610   6.244   1.074   4.926  1.3585  0.3391  0.1198
57629SOL     OW84611  12.514  12.932   3.202  0.2040  0.2735 -0.3817
57629SOL    HW184612  12.458  12.855   3.188 -1.2863  1.1629  0.4358
57629SOL    HW284613  12.595  12.911   3.156 -0.9242 -0.9307 -1.9520
57630SOL     OW84614  10.291   3.626  10.777  0.7112  0.4062 -0.2374
57630SOL    HW184615  10.325   3.716  10.781  1.1690  0.3307 -1.8452
57630SOL    HW284616  10.218   3.630  10.717 -0.0591 -0.0889  0.6422
57631SOL     OW84617  11.345   0.803   4.310 -0.1289  0.2755  0.3248
57631SOL    HW184618  11.384   0.890   4.302  0.2235  0.1541  0.7048
57631SOL    HW284619  11.263   0.818   4.356 -0.6410  0.5575 -0.6504
57632SOL     OW84620   3.372   4.387   8.034 -0.1254 -0.3373 -0.0855
57632SOL    HW184621   3.304   4.351   7.976 -0.6282  0.0607  0.2448
57632SOL    HW284622   3.326   4.453   8.086  0.1244 -1.2438  1.3393
57633SOL     OW84623   5.682   1.662   0.675 -0.6780 -0.1965 -0.3456
57633SOL    HW184624   5.649   1.677   0.763 -1.8860  2.4728 -1.1269
57633SOL    HW284625   5.777   1.660   0.684 -0.6964  1.8856  0.8497
57634SOL     OW84626   6.674  11.414   6.036  0.4591  0.2335  0.0232
57634SOL    HW184627   6.724  11.339   6.070 -0.1980 -1.4699 -2.4720
57634SOL    HW284628   6.740  11.471   5.997  0.6643 -1.2429 -1.8982
57635SOL     OW84629   9.096  12.738  11.719 -0.1422  0.9638  0.3704
57635SOL    HW184630   9.020  12.795  11.724 -0.2257  0.9524 -0.5898
57635SOL    HW284631   9.135  12.758  11.634  0.5152  0.4573  0.5478
57636SOL     OW84632  10.922  11.417   6.638  0.0509 -0.2360 -0.6018
57636SOL    HW184633  10.995  11.384   6.586  0.8722 -1.6995  1.3362
57636SOL    HW284634  10.939  11.384   6.726 -1.9138  1.0840  0.3431
57637SOL     OW84635  11.616  13.376   9.674 -0.1062 -0.2468 -0.3545
57637SOL    HW184636  11.598  13.464   9.639  0.3958 -0.4674 -1.1894
57637SOL    HW284637  11.699  13.351   9.634 -0.1291 -1.0145  0.0610
57638SOL     OW84638   9.531  12.987   1.876 -0.6182  0.1682 -0.5174
57638SOL    HW184639   9.614  12.976   1.831 -0.6201 -0.6995 -0.3279
57638SOL    HW284640   9.555  12.995   1.968 -0.8174 -2.0261 -0.2136
57639SOL     OW84641  10.021   4.545   4.634 -0.6571 -0.3249 -0.0747
57639SOL    HW184642  10.051   4.627   4.674 -1.2130  0.5726 -1.4544
57639SOL    HW284643   9.937   4.566   4.595  0.6520 -0.5880 -3.3884
57640SOL     OW84644   7.741   0.223   1.684  0.5841 -0.4480 -0.1623
57640SOL    HW184645   7.680   0.284   1.727 -0.4937 -1.7530  0.2317
57640SOL    HW284646   7.686   0.150   1.657  1.9299 -1.5255 -0.0772
57641SOL     OW84647   2.749   9.321   8.707  0.1564 -0.0407 -0.3827
57641SOL    HW184648   2.782   9.231   8.696 -1.9088 -0.7754 -0.9871
57641SOL    HW284649   2.781   9.367   8.630 -0.8034 -0.9256 -1.3328
57642SOL     OW84650   1.153  11.484  11.752  0.3493 -0.4296 -0.2775
57642SOL    HW184651   1.219  11.433  11.799  0.6155  0.8986  0.8607
57642SOL    HW284652   1.203  11.554  11.709 -0.0937 -0.6419 -1.1681
57643SOL     OW84653  11.577  11.143  11.645  0.4245 -0.5527  0.1028
57643SOL    HW184654  11.572  11.107  11.557 -2.5499  1.3203 -0.6294
57643SOL    HW284655  11.560  11.068  11.702  1.2375 -1.5626 -0.9208
57644SOL     OW84656   9.273   0.002  13.611 -0.1898 -0.2340  0.5770
57644SOL    HW184657   9.309  -0.005  13.700  0.9708 -0.9752  0.0771
57644SOL    HW284658   9.347   0.032  13.558 -0.6310 -0.6480 -0.2909
57645SOL     OW84659   0.138   4.720   1.054  0.0446  0.7611  0.1182
57645SOL    HW184660   0.090   4.801   1.072  0.0638  0.6723  0.5752
57645SOL    HW284661   0.204   4.746   0.989 -0.0319  1.0855  0.1666
57646SOL     OW84662   9.099   2.897  12.481 -0.4601  0.3185  0.1697
57646SOL    HW184663   9.103   2.915  12.387 -0.7449 -0.4738 -0.0032
57646SOL    HW284664   9.116   2.982  12.522 -0.9702  0.8145 -0.5997
57647SOL     OW84665  10.796   7.468  13.361 -0.2902 -0.2861 -0.0026
57647SOL    HW184666  10.822   7.531  13.429 -1.4170  0.5439 -0.3082
57647SOL    HW284667  10.879   7.439  13.323  0.3260 -0.1730  1.1912
57648SOL     OW84668   0.298   6.396   1.543 -0.5587 -0.4651  0.6542
57648SOL    HW184669   0.304   6.459   1.615 -0.8105 -0.3671  0.5905
57648SOL    HW284670   0.312   6.311   1.584  1.4733 -0.2544  0.4923
57649SOL     OW84671   6.567   3.393  12.104  0.0290 -0.2206 -0.6606
57649SOL    HW184672   6.626   3.462  12.134  0.4775  0.1545 -2.2726
57649SOL    HW284673   6.595   3.315  12.150  1.2980  0.1184 -0.8283
57650SOL     OW84674   3.147   9.574   3.452  0.3350  0.0829  0.2165
57650SOL    HW184675   3.152   9.670   3.448 -1.4125  0.1779 -0.1258
57650SOL    HW284676   3.079   9.555   3.516 -2.0689 -0.8083 -2.3859
57651SOL     OW84677  13.257   3.714   5.056  0.0131  0.0906  0.7459
57651SOL    HW184678  13.177   3.702   5.107  0.1387  1.2279  1.2516
57651SOL    HW284679  13.320   3.751   5.119  0.4538  0.6567 -0.0096
57652SOL     OW84680   9.305  10.401   2.147 -0.1278  0.0341  0.4711
57652SOL    HW184681   9.308  10.306   2.154 -1.4310 -0.1189 -0.6776
57652SOL    HW284682   9.224  10.427   2.191  0.4453  0.6721  1.1809
57653SOL     OW84683   6.444   2.141   1.218 -0.9518 -0.0354 -0.4128
57653SOL    HW184684   6.366   2.143   1.274 -1.5093 -0.3038 -1.1491
57653SOL    HW284685   6.479   2.053   1.229  0.0797  0.5216  0.9940
57654SOL     OW84686   6.575  12.571   1.313 -0.3578  0.2249 -0.1503
57654SOL    HW184687   6.535  12.650   1.348  0.3774 -0.2356  1.8771
57654SOL    HW284688   6.655  12.601   1.270  0.3005  0.5438  1.2546
57655SOL     OW84689  10.801   5.378   6.399  0.7835  0.3256 -0.3968
57655SOL    HW184690  10.859   5.447   6.433  0.5496  0.0349  0.6262
57655SOL    HW284691  10.815   5.380   6.304  0.6030  1.9531 -0.4312
57656SOL     OW84692   8.564   8.330   3.454 -0.1093 -0.2603 -0.9063
57656SOL    HW184693   8.598   8.393   3.390  2.3618 -0.6560 -0.1114
57656SOL    HW284694   8.642   8.282   3.484 -1.4161 -1.2937  1.0863
57657SOL     OW84695   0.648  12.526   6.044 -0.3959  0.4200  0.0263
57657SOL    HW184696   0.609  12.614   6.046  0.4363  0.8520 -1.2723
57657SOL    HW284697   0.643  12.495   6.134  0.0974  2.1762  0.6962
57658SOL     OW84698   7.534  12.697   8.659  0.2389 -0.0212  0.0862
57658SOL    HW184699   7.525  12.767   8.594 -0.2782  0.8346  1.0650
57658SOL    HW284700   7.566  12.741   8.738  2.8298 -1.3391 -0.1049
57659SOL     OW84701   9.729   8.844   9.027  0.1558  0.0701  0.2568
57659SOL    HW184702   9.662   8.789   8.986 -1.1431  2.6575 -1.3706
57659SOL    HW284703   9.713   8.835   9.121 -1.3707 -0.7023 -0.0399
57660SOL     OW84704  12.150   3.099   0.065  0.1433 -0.2016 -0.6013
57660SOL    HW184705  12.129   3.087   0.158  4.1190  0.5968  0.5784
57660SOL    HW284706  12.210   3.028   0.044  1.6480  1.3269 -1.6653
57661SOL     OW84707   5.890   6.573  12.415 -0.4334 -0.0818  0.2355
57661SOL    HW184708   5.906   6.593  12.508 -1.2168  1.6603  0.0434
57661SOL    HW284709   5.809   6.620  12.395 -0.1523 -0.2539 -1.3946
57662SOL     OW84710   5.468  11.719   9.104 -0.2705 -0.2638  0.0740
57662SOL    HW184711   5.480  11.624   9.096 -1.9903 -0.7326  2.0826
57662SOL    HW284712   5.540  11.748   9.159  0.9724 -0.1421 -1.5469
57663SOL     OW84713   6.513   7.031   9.946 -0.2279 -0.1089  0.2035
57663SOL    HW184714   6.450   6.968   9.911 -0.1283  0.3751 -0.8988
57663SOL    HW284715   6.596   6.983   9.948 -0.0019  0.1653 -1.3114
57664SOL     OW84716  13.189   3.798  11.946  0.0681 -0.6561  0.4202
57664SOL    HW184717  13.189   3.719  11.892  0.5024  0.9772 -2.1421
57664SOL    HW284718  13.282   3.818  11.958  0.0195  0.7585 -1.1187
57665SOL     OW84719   7.881  10.914   4.947 -0.2131 -0.4775 -0.8450
57665SOL    HW184720   7.853  10.824   4.964 -0.0141 -0.0539  2.3380
57665SOL    HW284721   7.807  10.968   4.972 -0.4240  0.3008 -2.9748
57666SOL     OW84722   2.830  10.985   5.197  0.2733 -0.1762 -0.1445
57666SOL    HW184723   2.799  10.895   5.203 -2.1800  0.6763  1.4243
57666SOL    HW284724   2.779  11.023   5.126 -1.3115  0.8396  1.4615
57667SOL     OW84725  12.540   9.333  12.471  0.0534  0.0112 -0.1619
57667SOL    HW184726  12.586   9.412  12.442 -0.5475 -0.0158 -1.2678
57667SOL    HW284727  12.610   9.271  12.493  0.5272  0.6513  0.1745
57668SOL     OW84728   0.768   8.753   3.404  0.3702  0.4105  0.1677
57668SOL    HW184729   0.783   8.787   3.492 -0.5132  0.3267  0.3605
57668SOL    HW284730   0.736   8.664   3.417 -0.1820  0.5467 -0.2211
57669SOL     OW84731  10.473   6.050   3.432 -0.3670 -0.1580  0.1034
57669SOL    HW184732  10.454   6.144   3.429 -0.7329 -0.2494 -0.6282
57669SOL    HW284733  10.531   6.035   3.357 -0.1947 -0.4931  0.3043
57670SOL     OW84734   3.271  10.261   2.833 -0.1313 -0.4789  0.6971
57670SOL    HW184735   3.343  10.323   2.820  0.0372 -0.2451  2.4604
57670SOL    HW284736   3.207  10.283   2.765  0.8078  0.2823  0.0330
57671SOL     OW84737  11.657  12.018   6.525 -0.0355 -0.3519  0.6232
57671SOL    HW184738  11.735  11.999   6.473  1.1024 -0.5178  2.3214
57671SOL    HW284739  11.689  12.029   6.614 -2.1177 -1.9423  1.6657
57672SOL     OW84740  13.612   0.243  11.166 -0.7082 -0.1290 -0.1314
57672SOL    HW184741  13.602   0.338  11.171  0.2193 -0.0479  0.5754
57672SOL    HW284742  13.602   0.222  11.073  0.2831  0.8214 -0.4687
57673SOL     OW84743  12.198   2.011   5.564  0.0304 -0.1741 -0.4106
57673SOL    HW184744  12.246   2.026   5.646  3.7264 -1.8308 -2.0297
57673SOL    HW284745  12.138   2.085   5.558  0.2125  0.4820  3.3105
57674SOL     OW84746   0.787  12.320   9.549  0.0759  0.2033  0.1551
57674SOL    HW184747   0.750  12.338   9.636  0.2046 -0.9397  0.4637
57674SOL    HW284748   0.714  12.335   9.489 -0.3819 -0.2269  0.5860
57675SOL     OW84749   6.822   8.266   0.397 -0.2505 -0.0493  0.4082
57675SOL    HW184750   6.745   8.268   0.454  0.5772  1.1881  1.5689
57675SOL    HW284751   6.896   8.270   0.458  0.6743  1.5400 -0.7389
57676SOL     OW84752   4.307  11.143  12.271 -0.8403  0.8891 -0.4935
57676SOL    HW184753   4.296  11.053  12.241 -1.2944  1.2921 -1.5926
57676SOL    HW284754   4.400  11.151  12.291 -0.5814  0.5042 -1.5132
57677SOL     OW84755   6.512   1.442   3.706 -0.0829  0.1174 -0.4595
57677SOL    HW184756   6.533   1.419   3.615 -2.7106 -0.1043 -1.1076
57677SOL    HW284757   6.582   1.404   3.758  1.1058 -0.3909 -2.3318
57678SOL     OW84758   1.946   9.683   5.831  0.1922  0.8121  0.2795
57678SOL    HW184759   1.929   9.594   5.800 -1.0913  0.7658  1.0255
57678SOL    HW284760   1.961   9.734   5.751 -3.8523  0.8944 -0.6709
57679SOL     OW84761   8.141  11.906   4.758  0.0083  0.2625 -0.1345
57679SOL    HW184762   8.200  11.981   4.748  0.2800  0.1124  0.3094
57679SOL    HW284763   8.147  11.883   4.851 -2.3084  1.5155  0.3962
57680SOL     OW84764   1.086   8.546   9.790  0.5248 -0.0197 -0.0008
57680SOL    HW184765   1.150   8.479   9.767  0.4888 -0.0370 -0.0527
57680SOL    HW284766   1.091   8.553   9.886 -0.2078 -0.8517  0.1217
57681SOL     OW84767   7.292   7.013  10.523 -0.4186  0.5423 -0.0994
57681SOL    HW184768   7.366   7.065  10.493  0.4473 -0.2088  0.6692
57681SOL    HW284769   7.268   7.052  10.608  0.7913 -0.7730  0.9036
57682SOL     OW84770   7.590   5.273   5.499  0.4162 -0.4191 -0.0758
57682SOL    HW184771   7.603   5.241   5.588 -0.4491 -0.5333  0.0119
57682SOL    HW284772   7.679   5.282   5.465  0.8575  1.1583  1.3369
57683SOL     OW84773   1.360   2.657  10.215  0.4786  0.1261 -0.0337
57683SOL    HW184774   1.449   2.647  10.250  1.7013 -0.9802 -3.1046
57683SOL    HW284775   1.320   2.571  10.226  1.2158 -0.5224 -2.0276
57684SOL     OW84776  12.348   6.820   8.232 -0.5710 -0.3099 -0.1545
57684SOL    HW184777  12.435   6.788   8.257 -1.7162 -3.2949  0.4185
57684SOL    HW284778  12.358   6.850   8.142  0.8955 -1.3393 -0.3680
57685SOL     OW84779   0.917   4.805  12.727 -0.3847  0.2330 -0.2125
57685SOL    HW184780   0.839   4.827  12.678 -0.6440 -1.2335 -0.5105
57685SOL    HW284781   0.988   4.805  12.663 -0.3706  0.3095 -0.1965
57686SOL     OW84782   7.340   6.754   6.990  0.0119 -0.3079 -0.1570
57686SOL    HW184783   7.262   6.797   6.954 -1.6653 -0.5475  2.8476
57686SOL    HW284784   7.342   6.668   6.948 -2.9263 -1.2951  1.4305
57687SOL     OW84785   5.436  12.068   3.668  0.0054  0.3188  0.6335
57687SOL    HW184786   5.343  12.045   3.664 -0.1107  0.5868  1.4930
57687SOL    HW284787   5.437  12.164   3.663  0.3024  0.2736 -0.2707
57688SOL     OW84788   2.511   0.669  13.400 -0.2375 -0.1893  0.4010
57688SOL    HW184789   2.499   0.762  13.379 -1.3165  0.0799  2.0899
57688SOL    HW284790   2.438   0.625  13.355 -1.3962  0.1498  1.8873
57689SOL     OW84791  11.043   2.485   3.347  0.7256 -0.1427  0.2918
57689SOL    HW184792  11.094   2.465   3.268 -0.6993  1.3699 -1.0839
57689SOL    HW284793  11.058   2.410   3.404  0.8557 -1.9021 -1.9007
57690SOL     OW84794   5.558   7.740   8.550  0.6947  0.3131 -0.1560
57690SOL    HW184795   5.495   7.702   8.489  0.2619  1.2268 -0.2971
57690SOL    HW284796   5.533   7.832   8.556 -0.0983  0.0087  2.4069
57691SOL     OW84797   3.414  13.597   2.221  0.3574 -0.2856  0.0339
57691SOL    HW184798   3.348  13.528   2.218 -0.9011  0.9184 -1.4288
57691SOL    HW284799   3.410  13.630   2.311 -0.6813 -0.5429  0.0922
57692SOL     OW84800   7.128  11.928   4.224  0.3063 -0.0243  0.2771
57692SOL    HW184801   7.189  11.895   4.158  1.1765 -1.1251  1.5565
57692SOL    HW284802   7.184  11.973   4.287 -0.3760  0.1301  0.7769
57693SOL     OW84803   3.540  11.046   9.409 -0.1610  0.1289 -0.5056
57693SOL    HW184804   3.555  10.960   9.448 -0.3571 -0.0092 -0.7325
57693SOL    HW284805   3.446  11.060   9.418 -0.0237  0.6594  0.2237
57694SOL     OW84806   3.034   9.631  12.762  0.0669  0.1779 -0.5004
57694SOL    HW184807   3.033   9.649  12.856  0.1897  0.0396 -0.4718
57694SOL    HW284808   3.002   9.712  12.721 -0.1242  0.1871 -0.3326
57695SOL     OW84809  12.340  12.020  10.160 -0.2965 -0.0223  0.0297
57695SOL    HW184810  12.391  11.951  10.117 -0.6407  0.8577 -1.8943
57695SOL    HW284811  12.250  11.986  10.161 -0.1043 -0.5336  1.1690
57696SOL     OW84812   5.573   1.267   9.920 -0.4747 -0.1823 -0.0928
57696SOL    HW184813   5.538   1.244  10.006 -0.5424 -0.2381 -0.1357
57696SOL    HW284814   5.663   1.295   9.938 -0.2637 -0.8488 -0.0838
57697SOL     OW84815   9.636   1.173   4.005  0.2299 -0.7657 -0.5600
57697SOL    HW184816   9.722   1.211   3.988 -0.7104  1.2206 -1.0759
57697SOL    HW284817   9.616   1.197   4.095 -0.1079 -0.5772 -0.6856
57698SOL     OW84818   4.526   9.840   1.625 -0.2709 -0.4443 -0.1345
57698SOL    HW184819   4.480   9.811   1.546  2.6393 -0.9278 -1.8191
57698SOL    HW284820   4.571   9.761   1.656 -2.2692 -0.5668  2.8340
57699SOL     OW84821   6.837   5.803  13.065  0.1876  0.1248  0.5585
57699SOL    HW184822   6.813   5.896  13.074 -0.1630  0.0323  0.5979
57699SOL    HW284823   6.929   5.799  13.090  0.0323  0.3554  1.1818
57700SOL     OW84824   0.922   0.335   3.732 -0.2709 -0.1343 -0.4920
57700SOL    HW184825   0.843   0.355   3.682 -0.2450  0.3509 -0.3465
57700SOL    HW284826   0.909   0.380   3.816  0.5554  0.7150 -0.7979
57701SOL     OW84827   3.088   0.125   8.804 -0.1500 -0.3961  0.1283
57701SOL    HW184828   3.015   0.092   8.751  0.5082  0.4470 -1.3831
57701SOL    HW284829   3.120   0.201   8.755  0.5528  0.3892  1.7345
57702SOL     OW84830   9.992   0.811   9.499 -0.2703  0.3075  0.1362
57702SOL    HW184831   9.998   0.767   9.584 -0.0067  0.5543  0.2479
57702SOL    HW284832  10.082   0.836   9.479 -0.2712 -0.0988 -0.4033
57703SOL     OW84833   9.351   3.094   0.558 -0.4334 -0.0965  0.3987
57703SOL    HW184834   9.302   3.102   0.640  1.6380 -0.4366  1.7451
57703SOL    HW284835   9.352   3.000   0.540  1.6787 -0.4117  1.7398
57704SOL     OW84836   2.385   5.945  11.826 -0.4583 -0.4501  0.4072
57704SOL    HW184837   2.410   5.896  11.904  0.4513  1.1402  1.1501
57704SOL    HW284838   2.292   5.964  11.839 -0.6865 -1.4951  0.3600
57705SOL     OW84839   4.275   5.511   8.019  0.3703  0.2164  0.3872
57705SOL    HW184840   4.257   5.444   7.953  1.8234 -0.8173  0.9954
57705SOL    HW284841   4.355   5.553   7.989 -1.2649  2.7885 -0.7739
57706SOL     OW84842   5.917   8.814   0.701  0.9495  0.6807  0.5424
57706SOL    HW184843   5.997   8.853   0.737  0.7445  0.4292  1.3101
57706SOL    HW284844   5.890   8.751   0.768  0.5297  0.2112 -0.0613
57707SOL     OW84845  13.213   3.596  11.707  0.7512 -0.6436  0.3017
57707SOL    HW184846  13.176   3.636  11.628  1.1438  0.0543  0.4736
57707SOL    HW284847  13.308   3.602  11.695  0.8661  1.6135  1.8754
57708SOL     OW84848  11.413  13.664   0.715  0.1132  0.8060  0.1674
57708SOL    HW184849  11.459  13.608   0.778 -0.9442 -0.7719 -0.3943
57708SOL    HW284850  11.475  13.673   0.643 -0.3163 -1.2006 -0.5301
57709SOL     OW84851   7.079   5.520  12.700  0.5023 -0.4323 -0.6510
57709SOL    HW184852   7.015   5.449  12.696  1.5120 -1.3154 -1.8213
57709SOL    HW284853   7.037   5.594  12.656 -0.9197  0.0459  1.3734
57710SOL     OW84854   2.634   2.707  11.802 -0.0702  0.1076 -0.4752
57710SOL    HW184855   2.651   2.660  11.884 -0.1788  1.7623  0.5393
57710SOL    HW284856   2.681   2.790  11.812  1.1834 -0.2373 -2.7493
57711SOL     OW84857   1.531  12.381   0.906 -0.3549  1.0029  0.3124
57711SOL    HW184858   1.569  12.450   0.852 -1.2253  2.9170  2.0060
57711SOL    HW284859   1.591  12.307   0.897  0.8146  2.0879 -1.2837
57712SOL     OW84860   1.498   5.977   1.072 -0.2495  0.2290 -0.2928
57712SOL    HW184861   1.446   6.035   1.127 -0.4764 -0.8107  0.6309
57712SOL    HW284862   1.434   5.922   1.027 -0.0268 -1.8283  1.7073
57713SOL     OW84863   5.372   2.096   1.891 -0.3177  0.0493 -0.3528
57713SOL    HW184864   5.442   2.143   1.846 -0.3990 -0.3928 -0.9522
57713SOL    HW284865   5.413   2.015   1.921 -0.0387  0.7209  1.1472
57714SOL     OW84866   4.526   3.419  10.491  0.2197 -0.6676 -0.0909
57714SOL    HW184867   4.575   3.495  10.461  0.7897 -0.6328  0.9155
57714SOL    HW284868   4.590   3.348  10.496  0.1655 -0.6575  1.0889
57715SOL     OW84869  11.194   7.688   3.423 -0.9069  0.0606 -0.1263
57715SOL    HW184870  11.230   7.775   3.444 -1.6814  1.2027 -3.0030
57715SOL    HW284871  11.106   7.689   3.460 -0.8751  0.4680 -0.0564
57716SOL     OW84872   0.791   3.885  13.635  0.2791  0.1069 -0.2617
57716SOL    HW184873   0.775   3.792  13.624 -0.1820  0.1205  0.2228
57716SOL    HW284874   0.823   3.915  13.550  1.4307 -0.6917 -0.1237
57717SOL     OW84875   8.670   1.538  12.435 -0.3396  0.1671 -0.2478
57717SOL    HW184876   8.687   1.464  12.378  2.1653  2.1400 -2.3400
57717SOL    HW284877   8.597   1.585  12.393  1.2347  1.3943 -1.7689
57718SOL     OW84878   9.722   0.364   5.407  0.2248 -0.1795  0.1568
57718SOL    HW184879   9.635   0.398   5.385 -0.4249 -0.8194  1.5830
57718SOL    HW284880   9.783   0.420   5.360 -0.9422  0.7179 -0.3196
57719SOL     OW84881   7.849  10.277   8.059 -0.3134  0.1657 -0.5658
57719SOL    HW184882   7.921  10.338   8.072 -0.3033  0.1654 -0.6171
57719SOL    HW284883   7.829  10.244   8.146  0.4138 -0.5970 -0.6788
57720SOL     OW84884   8.193  11.276  11.318  0.1724 -0.3736  0.5011
57720SOL    HW184885   8.100  11.295  11.317  0.4315  0.9990  0.1701
57720SOL    HW284886   8.220  11.280  11.226  0.5384 -0.8497  0.5833
57721SOL     OW84887  13.503  10.956   6.432  0.8402  0.2875  0.0028
57721SOL    HW184888  13.483  10.882   6.488  3.1666 -0.2046  0.2971
57721SOL    HW284889  13.498  10.921   6.343  3.4408 -0.7363  0.1789
57722SOL     OW84890   7.015   1.745  10.854  0.5684 -0.1070 -0.1058
57722SOL    HW184891   7.049   1.660  10.826  1.6953  0.6041 -0.9837
57722SOL    HW284892   7.029   1.747  10.949  0.2266 -1.0180 -0.0288
57723SOL     OW84893   8.784   7.120  11.243 -0.5236 -0.2793  0.1683
57723SOL    HW184894   8.695   7.155  11.240 -0.0204  1.2085  1.0757
57723SOL    HW284895   8.812   7.134  11.334  1.2382  0.9286 -0.4982
57724SOL     OW84896   5.888   3.818   8.168  0.0447 -0.1775  0.4117
57724SOL    HW184897   5.845   3.868   8.098  1.7448 -1.4273 -1.6348
57724SOL    HW284898   5.975   3.856   8.175  0.3631 -0.9716  0.8923
57725SOL     OW84899  13.367   9.792   6.536 -0.0098 -0.4060 -0.9867
57725SOL    HW184900  13.392   9.856   6.602 -0.5228  0.5171 -1.6616
57725SOL    HW284901  13.309   9.840   6.477 -1.2499 -1.7688 -0.9330
57726SOL     OW84902   5.763   5.503   8.613 -0.0341 -0.5673 -0.0702
57726SOL    HW184903   5.758   5.408   8.609 -1.3118 -0.5673  0.8640
57726SOL    HW284904   5.719   5.534   8.534 -1.0914 -0.7473  0.4392
57727SOL     OW84905   9.276  13.654   6.252 -0.1396  0.2739  0.6512
57727SOL    HW184906   9.332  13.731   6.243  0.5078 -0.3591 -1.2855
57727SOL    HW284907   9.189  13.685   6.227  0.0911  0.4307  0.0112
57728SOL     OW84908  13.545  10.747   1.224  0.0384 -0.2785 -0.7451
57728SOL    HW184909  13.616  10.789   1.174  0.5549  1.5532  1.3780
57728SOL    HW284910  13.473  10.811   1.220 -0.1196 -0.3834  0.3427
57729SOL     OW84911   2.899   9.944   2.246 -0.6870 -0.0353 -0.6917
57729SOL    HW184912   2.944   9.897   2.317 -0.0415  1.2259 -0.2468
57729SOL    HW284913   2.968   9.993   2.202 -1.1819 -0.3564 -1.8598
57730SOL     OW84914  11.122  12.352   4.457 -0.0567 -0.6669  0.1600
57730SOL    HW184915  11.051  12.329   4.397 -0.4549  1.6010 -0.3496
57730SOL    HW284916  11.164  12.269   4.478 -1.3898 -1.7993 -1.3983
57731SOL     OW84917   4.417  11.958  11.636 -0.1170  0.3169 -0.4399
57731SOL    HW184918   4.374  12.034  11.598 -3.4308 -1.1965 -0.0010
57731SOL    HW284919   4.430  11.981  11.728  0.9170  1.0881 -0.7487
57732SOL     OW84920   0.575  12.377   8.073  0.2952  0.2514 -0.3278
57732SOL    HW184921   0.571  12.424   7.990  1.0236 -0.0958 -0.5690
57732SOL    HW284922   0.650  12.415   8.119  0.7155 -0.4698 -0.4064
57733SOL     OW84923  12.395   4.360   4.548 -0.3303 -0.4800  0.0733
57733SOL    HW184924  12.441   4.378   4.466 -1.4428 -0.6837 -0.6164
57733SOL    HW284925  12.313   4.318   4.521 -1.4624  0.9086  1.1724
57734SOL     OW84926   6.648   4.101   0.788 -0.4754  0.0094  0.5205
57734SOL    HW184927   6.638   4.121   0.881 -0.2153  1.5120  0.2540
57734SOL    HW284928   6.692   4.016   0.787 -1.3318 -0.4781  1.7512
57735SOL     OW84929   1.226   2.738   0.034 -0.4219  0.0587  0.4359
57735SOL    HW184930   1.168   2.662   0.037  0.4405 -0.5863  1.5487
57735SOL    HW284931   1.286   2.720  -0.037  1.0559 -1.3092  1.9569
57736SOL     OW84932   3.919   3.233   2.915  0.0910  0.0927 -0.2830
57736SOL    HW184933   3.848   3.275   2.962 -0.3437  0.4898 -1.2855
57736SOL    HW284934   3.964   3.181   2.982  0.0963  1.4203  0.7842
57737SOL     OW84935   4.815   4.677   8.751 -0.4679 -0.2919 -0.5192
57737SOL    HW184936   4.823   4.590   8.711 -1.9628 -0.0230 -1.4831
57737SOL    HW284937   4.795   4.735   8.677 -0.4427  0.7149  0.2437
57738SOL     OW84938  13.036   8.903  11.235  0.4829 -0.3528  0.8579
57738SOL    HW184939  13.022   8.843  11.162 -0.4970  0.8665 -0.0053
57738SOL    HW284940  13.075   8.849  11.304  0.3570 -1.7856 -0.1571
57739SOL     OW84941  13.634   2.301  10.228 -0.0567  0.0638  0.1393
57739SOL    HW184942  13.684   2.257  10.159  0.4339 -0.2124  0.6642
57739SOL    HW284943  13.542   2.287  10.204  0.0638  2.0984 -1.8159
57740SOL     OW84944   5.863  11.013   5.286  0.6126 -0.0535 -0.2823
57740SOL    HW184945   5.908  10.946   5.234 -0.5141  0.3557 -1.8595
57740SOL    HW284946   5.854  11.087   5.226 -0.9629  0.3645  0.4307
57741SOL     OW84947   5.632   7.887  12.580  0.6535  0.0748 -0.2390
57741SOL    HW184948   5.551   7.939  12.590  1.0165  0.7065 -0.5259
57741SOL    HW284949   5.636   7.866  12.487  1.2783  0.8134 -0.3880
57742SOL     OW84950  13.641   6.407   2.241  0.1202  0.8212 -0.2837
57742SOL    HW184951  13.601   6.363   2.316  2.3760  0.6328  0.8707
57742SOL    HW284952  13.735   6.407   2.259  0.7184  1.1434 -2.9214
57743SOL     OW84953   7.711  11.395   4.015  0.7061 -0.4942 -0.1527
57743SOL    HW184954   7.725  11.473   3.960 -0.6748  1.1419  1.6728
57743SOL    HW284955   7.671  11.331   3.956  0.0985  0.8830 -1.2926
57744SOL     OW84956  12.853   8.649   9.198  0.2626  0.3288 -0.7415
57744SOL    HW184957  12.840   8.682   9.109 -1.1376 -1.3622 -1.2245
57744SOL    HW284958  12.898   8.566   9.187 -0.3018 -0.1066  0.0904
57745SOL     OW84959   4.477   8.884   4.622  0.2936  0.1861  0.0282
57745SOL    HW184960   4.469   8.907   4.714 -0.0016  0.0387  0.0397
57745SOL    HW284961   4.568   8.857   4.612  0.2697 -0.0150  0.3270
57746SOL     OW84962   2.596  11.529   0.631 -0.1937  0.0113  0.1205
57746SOL    HW184963   2.572  11.439   0.612  0.8441 -0.3585  0.4832
57746SOL    HW284964   2.646  11.557   0.554 -0.0691  0.0968  0.2313
57747SOL     OW84965  10.522  11.944   9.320 -0.0606 -0.4432  0.0835
57747SOL    HW184966  10.516  12.032   9.283 -0.0695  0.0383  1.2168
57747SOL    HW284967  10.435  11.906   9.306  0.0600 -0.4321 -0.7664
57748SOL     OW84968   4.603   9.337   2.094 -0.1123  0.0252  0.3355
57748SOL    HW184969   4.512   9.322   2.066 -0.2320 -0.7792  1.1387
57748SOL    HW284970   4.595   9.379   2.179  0.2735 -0.1690  0.4673
57749SOL     OW84971   8.950   1.919  10.678 -0.9250  0.1025  0.0578
57749SOL    HW184972   8.936   2.004  10.720 -0.0938  0.9157 -1.2308
57749SOL    HW284973   8.876   1.909  10.620  0.6549  1.6827 -2.4345
57750SOL     OW84974  10.915   7.754   1.874  0.3083  0.5143 -0.5810
57750SOL    HW184975  10.915   7.846   1.847 -0.6340  1.0096  0.9794
57750SOL    HW284976  10.994   7.745   1.927 -0.4812  0.9340  0.7316
57751SOL     OW84977   2.496   8.079   0.902  0.4081 -0.3213 -0.2837
57751SOL    HW184978   2.542   7.997   0.888  1.3869  0.4065 -1.4404
57751SOL    HW284979   2.419   8.074   0.845  1.1940  0.1259 -1.3941
57752SOL     OW84980   5.342  11.154   6.781  0.3665  0.0754  0.0753
57752SOL    HW184981   5.249  11.159   6.798  0.1592 -3.7040  0.9774
57752SOL    HW284982   5.349  11.147   6.685 -0.3002  0.0969  0.0261
57753SOL     OW84983   0.932   0.007   3.689 -0.0549 -0.3093  0.0089
57753SOL    HW184984   0.915  -0.076   3.645  3.0104 -0.9860 -0.0975
57753SOL    HW284985   0.934  -0.014   3.782  0.2649 -0.2634  0.0136
57754SOL     OW84986  10.984  12.501   1.575  0.4096 -0.2773  0.2480
57754SOL    HW184987  11.018  12.505   1.665  2.0407  1.0406 -0.3611
57754SOL    HW284988  11.048  12.447   1.528 -0.3131 -0.7720 -0.1845
57755SOL     OW84989  12.039  10.776   2.999 -0.2637 -0.7195 -0.2492
57755SOL    HW184990  12.015  10.840   2.932  1.3787  1.5830  1.2676
57755SOL    HW284991  11.956  10.735   3.023 -1.3459  0.7143 -1.3761
57756SOL     OW84992   9.372   3.418   3.910  0.2699 -0.2630 -0.2068
57756SOL    HW184993   9.423   3.349   3.868  1.2051  1.3401 -1.8486
57756SOL    HW284994   9.286   3.413   3.868  0.5916  0.0642 -0.9240
57757SOL     OW84995   0.335   7.660   0.893 -0.1156 -0.0808  0.5263
57757SOL    HW184996   0.423   7.625   0.875  0.9983  1.0102  3.2830
57757SOL    HW284997   0.338   7.749   0.860  0.0040  0.1160  1.0596
57758SOL     OW84998  12.316   9.912   9.732 -0.3143  0.1922 -0.0966
57758SOL    HW184999  12.361   9.878   9.809  0.1920  1.3701  0.1447
57758SOL    HW285000  12.337  10.005   9.731 -2.6542  0.7940 -0.0338
57759SOL     OW85001   9.789   8.078   7.514 -0.0419 -0.3641  0.3252
57759SOL    HW185002   9.810   8.107   7.603 -0.9911  1.5373 -0.0288
57759SOL    HW285003   9.803   8.155   7.459  1.9021 -1.8624 -1.4614
57760SOL     OW85004  10.686  10.263  12.093 -0.2629  0.0488  0.6615
57760SOL    HW185005  10.754  10.211  12.136 -1.7641  0.0186  3.2165
57760SOL    HW285006  10.724  10.351  12.087  0.8765 -0.4819 -0.1862
57761SOL     OW85007   1.748   0.537   0.869  0.4021  0.3982  0.3032
57761SOL    HW185008   1.841   0.535   0.895  0.3208  0.4888  0.6074
57761SOL    HW285009   1.749   0.516   0.776  0.5450 -2.2399  0.8162
57762SOL     OW85010  10.134   3.218   6.058  0.0771 -0.5491 -0.1606
57762SOL    HW185011  10.203   3.283   6.069 -0.1989 -0.2375 -0.2679
57762SOL    HW285012  10.077   3.230   6.133  0.4349 -1.1766  0.2195
57763SOL     OW85013   1.896   0.702   8.101  0.0279 -0.1100 -0.4532
57763SOL    HW185014   1.826   0.646   8.137  0.0377  1.1243  1.6509
57763SOL    HW285015   1.853   0.750   8.030  0.1444 -3.0172 -2.6969
57764SOL     OW85016   5.606   1.284  13.364  0.9642  0.6409 -0.3577
57764SOL    HW185017   5.674   1.302  13.299  1.4504 -1.3566 -0.4649
57764SOL    HW285018   5.544   1.226  13.320  0.7461  0.1002  0.6141
57765SOL     OW85019   4.377  10.895   6.155  0.6439  0.4353  0.0129
57765SOL    HW185020   4.386  10.968   6.094  0.0330  2.2464  1.9539
57765SOL    HW285021   4.460  10.892   6.202  1.3139 -1.2895 -1.1935
57766SOL     OW85022   7.566   8.357  10.070  0.4315 -0.3856 -0.1372
57766SOL    HW185023   7.572   8.452  10.075  0.7572 -0.4928  2.5170
57766SOL    HW285024   7.607   8.335   9.986  0.7737  1.7418 -0.5836
57767SOL     OW85025   1.825   7.002   3.323 -0.3463  0.5036  0.1275
57767SOL    HW185026   1.762   7.063   3.285 -1.4086 -0.3755  0.4203
57767SOL    HW285027   1.777   6.959   3.394  0.2443 -0.9372 -0.3028
57768SOL     OW85028   7.167   6.125   9.323 -0.3261 -0.0550 -0.0662
57768SOL    HW185029   7.217   6.046   9.342 -1.6082 -0.6390  1.0702
57768SOL    HW285030   7.175   6.178   9.402  0.6648  1.0552 -0.8834
57769SOL     OW85031   3.117   8.581   8.883 -0.3334 -0.0093  0.2772
57769SOL    HW185032   3.164   8.655   8.921  1.2185 -0.4067 -0.7756
57769SOL    HW285033   3.174   8.506   8.900 -1.6365 -0.8922  0.8684
57770SOL     OW85034   9.219   7.624   5.581  0.8451  0.1147 -0.0571
57770SOL    HW185035   9.177   7.541   5.558  0.0551  0.0190  1.5709
57770SOL    HW285036   9.312   7.608   5.571  0.6672 -0.7199 -0.4865
57771SOL     OW85037   6.565  11.531   2.703  0.0408 -0.0745  0.3498
57771SOL    HW185038   6.572  11.511   2.797  1.4584  1.0334  0.5201
57771SOL    HW285039   6.499  11.600   2.699 -0.2937 -0.3820  0.4825
57772SOL     OW85040   5.383   2.253  11.775 -0.1980  0.1269 -0.1438
57772SOL    HW185041   5.294   2.244  11.741  0.7430  0.1175 -2.7816
57772SOL    HW285042   5.440   2.247  11.698  2.0751  0.7912  1.3679
57773SOL     OW85043   8.631   2.744   5.134 -0.0627 -0.4621 -0.3856
57773SOL    HW185044   8.547   2.783   5.158  1.1383  2.1820 -0.1246
57773SOL    HW285045   8.624   2.729   5.040 -0.6007  0.4162 -0.4978
57774SOL     OW85046  11.240   6.139   4.139 -0.0276  0.0041 -0.3059
57774SOL    HW185047  11.330   6.130   4.108 -0.3282  0.3965 -1.3538
57774SOL    HW285048  11.187   6.132   4.059 -1.0581 -1.9540  0.4661
57775SOL     OW85049   6.408   6.742  11.908  0.5863  0.4236 -0.3751
57775SOL    HW185050   6.408   6.647  11.892  0.6255  0.9053 -4.4923
57775SOL    HW285051   6.318   6.762  11.935  0.5325 -0.7618  0.3653
57776SOL     OW85052   8.954   5.931   7.195  0.4784 -0.6498  0.6229
57776SOL    HW185053   9.016   5.861   7.212 -1.3810 -2.4474  0.4085
57776SOL    HW285054   8.960   5.948   7.101  1.2768 -0.1376  0.7552
57777SOL     OW85055  12.579   3.300   5.582  0.4347 -0.0468 -0.1943
57777SOL    HW185056  12.667   3.271   5.557  0.1600 -0.0651 -1.1862
57777SOL    HW285057  12.588   3.329   5.673  1.4755  0.0258 -0.3100
57778SOL     OW85058   7.958   2.730  11.796  0.5167 -0.1309  0.2425
57778SOL    HW185059   8.049   2.725  11.766  0.6010 -0.1812  0.5052
57778SOL    HW285060   7.956   2.681  11.878  0.3466  0.2257  0.4586
57779SOL     OW85061   2.028  13.721   2.103 -0.7685 -0.3942  0.1290
57779SOL    HW185062   2.051  13.795   2.158 -0.0044  0.7610 -1.6516
57779SOL    HW285063   1.940  13.740   2.072 -0.8302 -0.5730  0.1905
57780SOL     OW85064   2.789   7.383   4.042  0.4308  0.0418 -0.1861
57780SOL    HW185065   2.743   7.360   3.962 -0.8087 -1.1455  0.8170
57780SOL    HW285066   2.876   7.343   4.032 -0.1839 -1.3084 -0.3665
57781SOL     OW85067   0.450   3.762   7.074  0.6221  0.2754  0.1517
57781SOL    HW185068   0.473   3.679   7.032  1.6774  1.0838 -0.9473
57781SOL    HW285069   0.534   3.804   7.089  0.0575  1.6630 -0.4234
57782SOL     OW85070   0.349   1.190   4.623  0.2255 -0.5167 -0.0296
57782SOL    HW185071   0.404   1.245   4.567  0.0060 -1.3046 -1.0715
57782SOL    HW285072   0.410   1.127   4.662  0.1525 -1.1249 -0.8548
57783SOL     OW85073   8.428   2.262   6.770  0.3186 -0.1763 -0.2498
57783SOL    HW185074   8.473   2.277   6.853  1.6373  1.7825 -1.2324
57783SOL    HW285075   8.489   2.209   6.719  0.3665  0.2172 -0.6166
57784SOL     OW85076  12.669  12.267   1.328  0.1032  0.2950 -0.1921
57784SOL    HW185077  12.751  12.251   1.376  0.2660  0.0518 -0.5483
57784SOL    HW285078  12.615  12.190   1.346 -0.0017  0.4003 -0.0549
57785SOL     OW85079   7.620   3.998   5.313 -0.1406 -0.3864  0.8064
57785SOL    HW185080   7.556   4.019   5.245 -0.8270  0.1955  1.6230
57785SOL    HW285081   7.696   4.052   5.290 -0.8015  0.7183  1.1670
57786SOL     OW85082  12.715   9.177   4.859 -0.0295  0.3102 -0.0577
57786SOL    HW185083  12.667   9.097   4.837 -2.1848  1.9093 -1.5171
57786SOL    HW285084  12.736   9.217   4.775  0.5543  1.5485  0.6527
57787SOL     OW85085   1.210  13.517   3.130 -0.1560  0.3059  0.0064
57787SOL    HW185086   1.252  13.502   3.045 -1.8346  2.7524 -1.3723
57787SOL    HW285087   1.209  13.431   3.171  0.5937 -1.0165 -2.5079
57788SOL     OW85088   0.231   7.305  11.347 -0.5211  0.2709 -0.3484
57788SOL    HW185089   0.262   7.357  11.273  1.4039  0.6823  0.6836
57788SOL    HW285090   0.213   7.219  11.310  1.3665  0.1779 -1.1602
57789SOL     OW85091   5.171  11.076   5.334  0.2886 -0.2769 -0.3084
57789SOL    HW185092   5.114  11.152   5.325 -2.2705 -2.2431 -1.9951
57789SOL    HW285093   5.241  11.091   5.270  0.1080  0.8729 -0.2549
57790SOL     OW85094   3.788   5.426   9.467 -0.3838 -0.0803  0.1334
57790SOL    HW185095   3.758   5.488   9.534  1.8265 -0.1725  1.3018
57790SOL    HW285096   3.806   5.481   9.391  0.2329  0.5640  0.7183
57791SOL     OW85097   7.948   4.430  10.599  0.1090 -0.2457  0.3060
57791SOL    HW185098   8.017   4.490  10.629 -0.2192 -1.6221  4.3756
57791SOL    HW285099   7.959   4.427  10.504  2.0474  3.8342  0.1884
57792SOL     OW85100   6.222   1.701  13.716  0.1649 -0.7496  0.2354
57792SOL    HW185101   6.228   1.697  13.620  2.3745 -0.6628  0.3078
57792SOL    HW285102   6.217   1.609  13.742  1.1533 -0.8673  0.0655
57793SOL     OW85103   4.740   9.827   7.880  0.1767 -0.1321 -0.1192
57793SOL    HW185104   4.736   9.782   7.796 -0.1171  0.2719 -0.3300
57793SOL    HW285105   4.817   9.792   7.924 -0.9629 -2.0999  0.4519
57794SOL     OW85106   8.847   8.204  11.261 -0.2310  0.3354 -0.3943
57794SOL    HW185107   8.927   8.250  11.286 -0.5593 -0.0672  1.5597
57794SOL    HW285108   8.877   8.118  11.231  0.2023  0.9675 -1.8737
57795SOL     OW85109  11.030   6.744   8.256 -0.0104 -0.3595 -0.2900
57795SOL    HW185110  11.054   6.664   8.303  0.2667 -0.6425 -0.8975
57795SOL    HW285111  10.957   6.781   8.306 -1.8569 -2.3268 -1.3264
57796SOL     OW85112   9.951   7.356   9.043  0.1511 -0.8689  0.1118
57796SOL    HW185113   9.868   7.402   9.048 -0.5342 -1.7911 -1.8250
57796SOL    HW285114  10.017   7.425   9.036 -0.6094 -0.1559 -0.1365
57797SOL     OW85115  12.130  12.010   9.153 -0.5550 -0.9313 -0.1944
57797SOL    HW185116  12.124  12.026   9.059 -0.7979  0.4615  0.0338
57797SOL    HW285117  12.088  12.086   9.193  0.9820 -0.6982  1.0859
57798SOL     OW85118   8.940   6.693   6.661 -0.7791 -0.5931 -0.5627
57798SOL    HW185119   8.909   6.728   6.577 -2.4299 -1.2734 -0.2738
57798SOL    HW285120   9.035   6.707   6.659 -0.6584 -1.2201 -2.8491
57799SOL     OW85121   7.319   9.008   7.611 -0.4419 -0.3837 -0.2746
57799SOL    HW185122   7.260   8.992   7.685 -0.1483 -2.3140 -0.4088
57799SOL    HW285123   7.260   9.017   7.536 -0.7186  1.1748  0.0976
57800SOL     OW85124   4.949   0.442  10.626  0.1894  0.0347  0.1507
57800SOL    HW185125   4.881   0.504  10.652  1.7841  2.0438 -0.1756
57800SOL    HW285126   4.952   0.377  10.696 -0.2520  1.4269  1.5004
57801SOL     OW85127   0.453   8.426   0.316 -0.4816  0.1752 -0.2599
57801SOL    HW185128   0.392   8.355   0.298  1.5429 -1.1751 -2.3940
57801SOL    HW285129   0.539   8.384   0.317  0.5694  2.1735  1.4465
57802SOL     OW85130   2.621   8.378   3.059  0.2783  0.0417 -0.9113
57802SOL    HW185131   2.532   8.388   3.026 -0.0073 -0.8204 -0.4330
57802SOL    HW285132   2.659   8.308   3.005  0.2358 -0.4738 -0.2941
57803SOL     OW85133   4.299  11.303  10.314  0.6076 -0.1303 -0.0045
57803SOL    HW185134   4.235  11.294  10.384  1.9094 -0.2731  1.2009
57803SOL    HW285135   4.381  11.325  10.358  1.4397 -0.0998 -1.4861
57804SOL     OW85136   1.749   4.113   2.543 -0.0056  0.1195  0.2622
57804SOL    HW185137   1.700   4.055   2.485 -0.0344  0.0068  0.3998
57804SOL    HW285138   1.734   4.200   2.507  1.4194 -0.1040 -0.9612
57805SOL     OW85139   2.219   2.602  11.895 -0.5567 -0.4750  0.3063
57805SOL    HW185140   2.196   2.676  11.951  1.2585  1.4008 -1.2921
57805SOL    HW285141   2.270   2.545  11.952 -0.3103  0.4702  1.0610
57806SOL     OW85142  11.382   5.048   8.601  0.0813  0.1926  0.0034
57806SOL    HW185143  11.294   5.026   8.632  0.9819 -2.8747  0.7149
57806SOL    HW285144  11.398   5.136   8.635 -3.5385  1.8859 -2.1683
57807SOL     OW85145   4.118  10.465   9.341 -0.0033 -0.2228  0.5095
57807SOL    HW185146   4.110  10.424   9.427  0.8959 -0.7080  0.3764
57807SOL    HW285147   4.037  10.443   9.296 -1.2025  1.3677  1.7640
57808SOL     OW85148   1.439  12.242  12.655 -0.3888 -0.0525  0.4765
57808SOL    HW185149   1.374  12.196  12.603  0.5096 -1.6127  0.6799
57808SOL    HW285150   1.389  12.305  12.706 -1.5981 -0.4392 -0.2074
57809SOL     OW85151   1.901   1.733   8.160 -0.0646  0.0168 -0.0965
57809SOL    HW185152   1.867   1.727   8.250  0.7441  1.0418  0.2927
57809SOL    HW285153   1.864   1.656   8.116 -1.6158  0.2528  0.7184
57810SOL     OW85154   4.999   7.718  11.171 -0.2663  0.0115 -0.2290
57810SOL    HW185155   4.918   7.724  11.221 -0.7943 -3.1909 -0.4982
57810SOL    HW285156   4.973   7.683  11.086  1.3591 -1.1100 -0.3211
57811SOL     OW85157   1.366   1.346   0.862 -0.0618  0.3869 -0.5131
57811SOL    HW185158   1.302   1.275   0.864 -2.2887  2.2732 -0.0189
57811SOL    HW285159   1.404   1.346   0.950 -0.3740  0.0889 -0.3731
57812SOL     OW85160   1.400   3.084   5.361  0.0728 -0.5573  0.0431
57812SOL    HW185161   1.321   3.138   5.360 -2.5276 -3.8888  2.6812
57812SOL    HW285162   1.467   3.141   5.398 -2.1372  1.2706  1.5230
57813SOL     OW85163   5.618  10.193  11.104  0.1645 -0.0339  0.7473
57813SOL    HW185164   5.632  10.110  11.148  1.0644  0.3974  1.2873
57813SOL    HW285165   5.523  10.205  11.106  0.0124 -1.1131  0.5219
57814SOL     OW85166   2.354   6.912   2.496 -0.0208 -0.3174  0.0174
57814SOL    HW185167   2.449   6.911   2.487  0.1812 -0.3122  1.7387
57814SOL    HW285168   2.321   6.924   2.407  1.5917 -0.0621 -0.5745
57815SOL     OW85169   4.685   5.274   8.337 -0.2122  0.3657 -0.2394
57815SOL    HW185170   4.644   5.218   8.271 -0.1959 -0.6249  0.5799
57815SOL    HW285171   4.623   5.276   8.410 -0.8807  2.5721 -0.7684
57816SOL     OW85172   0.301   6.285   9.098  0.2908 -0.5927  0.6346
57816SOL    HW185173   0.249   6.254   9.024  1.4595  1.1699 -1.0062
57816SOL    HW285174   0.391   6.259   9.077  0.8050  0.9145  0.8452
57817SOL     OW85175   8.707   4.612  12.224 -0.1256 -0.2428 -0.2899
57817SOL    HW185176   8.627   4.566  12.250  0.9059 -0.1741  3.6356
57817SOL    HW285177   8.770   4.542  12.206 -0.8517 -0.2916 -3.0004
57818SOL     OW85178   6.554  11.780  11.802  0.1160  0.9664 -1.1100
57818SOL    HW185179   6.647  11.800  11.794  0.1771  0.6259 -1.2998
57818SOL    HW285180   6.516  11.808  11.719 -0.0490  1.6080 -0.8242
57819SOL     OW85181  10.420   0.577   6.206 -0.7499 -0.3147  0.3669
57819SOL    HW185182  10.366   0.505   6.237  0.0201 -1.0247  0.0840
57819SOL    HW285183  10.503   0.537   6.181 -0.5102  0.5764 -0.3546
57820SOL     OW85184  10.655   2.616   0.112 -0.4931  0.0073 -0.4947
57820SOL    HW185185  10.578   2.598   0.164 -1.0140 -1.0354 -1.5759
57820SOL    HW285186  10.728   2.606   0.173 -1.1960  1.5634  0.6782
57821SOL     OW85187   9.199   6.020  11.227  0.0718  0.4013 -0.4254
57821SOL    HW185188   9.142   5.952  11.263  2.1048 -1.1896 -0.0055
57821SOL    HW285189   9.255   6.046  11.300  0.4607  1.3181 -1.0236
57822SOL     OW85190   1.284   1.664   8.235 -0.0709 -0.0000  0.4558
57822SOL    HW185191   1.363   1.684   8.185  0.5127 -0.3484  1.2153
57822SOL    HW285192   1.217   1.647   8.169  0.5244  0.1767 -0.2007
57823SOL     OW85193   0.059   3.952   5.261  0.1065  0.0788  0.5354
57823SOL    HW185194   0.100   4.037   5.244  1.6071 -0.3694  1.7166
57823SOL    HW285195   0.052   3.948   5.356  0.8130 -1.4373  0.5464
57824SOL     OW85196   5.473  12.260  13.692 -0.1778  0.2424  0.3104
57824SOL    HW185197   5.408  12.270  13.622 -0.5337 -0.3728  0.5485
57824SOL    HW285198   5.488  12.166  13.698  0.5153  0.3578  0.4666
57825SOL     OW85199   5.754   3.844   9.006 -0.7554 -0.1044 -0.0116
57825SOL    HW185200   5.665   3.854   8.971 -0.4558  1.0493 -0.5206
57825SOL    HW285201   5.773   3.928   9.048 -0.4765 -0.8898  1.5096
57826SOL     OW85202   4.890   5.840   7.363 -0.0248 -0.0566 -0.0179
57826SOL    HW185203   4.875   5.842   7.458 -4.6357 -0.4028 -0.5155
57826SOL    HW285204   4.854   5.755   7.336 -0.1527  0.6677 -2.2488
57827SOL     OW85205  13.431   6.598  12.631 -0.0637 -0.0883 -0.2386
57827SOL    HW185206  13.526   6.601  12.626 -0.0420 -1.9452 -1.7501
57827SOL    HW285207  13.404   6.690  12.628  1.6614  0.4865  0.5915
57828SOL     OW85208   1.706   4.886   1.884 -0.2477  0.2516 -0.2322
57828SOL    HW185209   1.736   4.901   1.794 -0.6305 -1.0875 -0.6144
57828SOL    HW285210   1.626   4.937   1.891 -0.9989 -0.7416 -1.1550
57829SOL     OW85211  13.364   3.638   9.208  0.1916  0.1718 -0.3120
57829SOL    HW185212  13.449   3.603   9.181  0.4089  0.3907  0.0827
57829SOL    HW285213  13.378   3.668   9.297 -0.3739 -0.0420 -0.1493
57830SOL     OW85214  13.042   6.760  12.099 -0.1865 -0.2586  0.2110
57830SOL    HW185215  12.957   6.801  12.086 -0.8427 -1.3454  0.9607
57830SOL    HW285216  13.031   6.670  12.069  0.8179 -0.3042 -0.0718
57831SOL     OW85217   8.414   3.627  13.590  0.4679 -0.4623  0.2065
57831SOL    HW185218   8.477   3.599  13.656 -0.6766  2.3755  2.7589
57831SOL    HW285219   8.466   3.674  13.525  1.1951  1.1850  1.8856
57832SOL     OW85220  13.171  10.012   9.974 -0.1003  0.4187  0.0656
57832SOL    HW185221  13.215  10.062   9.906 -1.3831 -0.2039 -1.2860
57832SOL    HW285222  13.187   9.921   9.951 -1.9840  0.1719 -0.4444
57833SOL     OW85223  10.949  12.075   1.969  0.0837  0.1381  0.0532
57833SOL    HW185224  11.041  12.059   1.952 -0.3781 -0.6003 -2.0412
57833SOL    HW285225  10.945  12.166   1.999  1.3132  0.7928 -1.6560
57834SOL     OW85226   6.985   3.296  11.791  0.3802  0.1490  0.1309
57834SOL    HW185227   6.948   3.275  11.877 -1.3999  0.1033 -0.5991
57834SOL    HW285228   7.005   3.390  11.796 -2.2761  0.8290 -0.2089
57835SOL     OW85229   3.737  11.924   1.624  0.3769 -0.4138  0.3300
57835SOL    HW185230   3.689  11.898   1.703  1.2297 -1.9093  0.3926
57835SOL    HW285231   3.779  12.007   1.648 -0.8764  0.1034  0.7990
57836SOL     OW85232   7.732  10.357  12.200 -0.5999 -0.1109  0.4158
57836SOL    HW185233   7.808  10.394  12.156 -1.5762  1.1746 -0.2325
57836SOL    HW285234   7.735  10.264  12.178  1.7908 -0.4772  1.9193
57837SOL     OW85235   7.398   0.142  12.991 -0.3538 -0.0912 -0.4533
57837SOL    HW185236   7.409   0.084  13.067 -0.0117  1.9739  1.1703
57837SOL    HW285237   7.335   0.096  12.935 -0.5721 -1.7360  1.0460
57838SOL     OW85238   5.604   2.679   4.939  0.0676  0.5470 -0.0610
57838SOL    HW185239   5.563   2.602   4.978 -0.0634 -0.3112 -1.8168
57838SOL    HW285240   5.689   2.686   4.983 -0.8609  0.8215  1.7755
57839SOL     OW85241   9.890   4.179  10.347  0.4455 -0.2512  0.0268
57839SOL    HW185242   9.843   4.193  10.265  1.5629  0.4595 -0.5036
57839SOL    HW285243   9.821   4.181  10.414 -0.7056 -2.3596 -0.9648
57840SOL     OW85244   4.252   7.257   9.362 -1.3305 -0.2759 -0.4810
57840SOL    HW185245   4.190   7.200   9.316  0.5313 -1.7635 -1.2788
57840SOL    HW285246   4.282   7.318   9.295 -1.5173  0.0963 -0.2300
57841SOL     OW85247  10.882   3.829   2.256 -0.3734  0.0235  0.5800
57841SOL    HW185248  10.824   3.899   2.224  0.7078  0.9167  0.5156
57841SOL    HW285249  10.909   3.782   2.177 -0.5913 -0.0684  0.5591
57842SOL     OW85250  10.560   8.458   6.763 -0.5642  0.2153  0.1296
57842SOL    HW185251  10.545   8.467   6.857 -0.4628  1.7709  0.0277
57842SOL    HW285252  10.508   8.382   6.737 -0.6062 -0.2258  1.4290
57843SOL     OW85253  12.727   9.019   9.364  0.5262 -0.8387 -0.4499
57843SOL    HW185254  12.778   9.099   9.373  1.1828 -1.3484  0.5215
57843SOL    HW285255  12.660   9.040   9.299  0.5577  0.5589 -0.0566
57844SOL     OW85256  11.852   5.090  10.037  0.3498 -0.3754 -0.8610
57844SOL    HW185257  11.824   5.027  10.104  0.1898 -1.7297 -2.1403
57844SOL    HW285258  11.770   5.119   9.996  0.5122 -0.5121 -1.2867
57845SOL     OW85259  10.301  13.126   5.195  0.2824 -0.1728  0.0537
57845SOL    HW185260  10.358  13.049   5.198 -0.2686 -0.6806 -1.3495
57845SOL    HW285261  10.317  13.164   5.109 -0.1738  0.7244  0.3531
57846SOL     OW85262   3.756  12.137   6.645  0.0997 -0.0300 -0.0049
57846SOL    HW185263   3.768  12.063   6.586 -1.3830 -1.3951  1.2987
57846SOL    HW285264   3.793  12.212   6.598  3.0684 -1.7955 -0.7735
57847SOL     OW85265   3.547   8.755   0.019 -0.0811 -0.3987  0.3114
57847SOL    HW185266   3.629   8.802   0.006 -0.8741  0.3428 -3.2438
57847SOL    HW285267   3.569   8.663   0.003 -0.1705  0.0245 -2.9761
57848SOL     OW85268   7.966   6.047   1.000 -0.0766 -0.1315 -0.5343
57848SOL    HW185269   8.051   6.010   1.020  0.1864  1.1670  1.0122
57848SOL    HW285270   7.918   5.977   0.957  1.1617 -1.4558  0.1766
57849SOL     OW85271   7.648   5.512  12.347  0.2597 -0.2631  0.6316
57849SOL    HW185272   7.573   5.453  12.337  0.1782 -0.4791  2.3607
57849SOL    HW285273   7.697   5.477  12.421  1.0602  0.9599  0.7045
57850SOL     OW85274   9.039   1.543  10.014 -0.3262 -0.1733  0.4169
57850SOL    HW185275   8.973   1.566  10.079 -0.2450  1.3403  0.0157
57850SOL    HW285276   8.996   1.557   9.930  0.2782  0.1598  0.1537
57851SOL     OW85277   6.217   1.317  12.215  0.3616  0.1257  0.3548
57851SOL    HW185278   6.165   1.376  12.161 -0.9522 -0.0133  1.4356
57851SOL    HW285279   6.253   1.253  12.153 -3.4623 -1.8040 -0.1234
57852SOL     OW85280   6.533  12.487  13.319 -0.0395 -0.2083  0.4186
57852SOL    HW185281   6.623  12.493  13.351 -0.3242  0.3152  1.1369
57852SOL    HW285282   6.537  12.424  13.247  0.9273 -0.0664  0.3443
57853SOL     OW85283   1.746   4.119  10.596  0.3149  0.3744  0.2756
57853SOL    HW185284   1.818   4.105  10.656  0.7133 -0.2776 -0.3382
57853SOL    HW285285   1.669   4.087  10.643  0.7494 -0.9421  0.1135
57854SOL     OW85286   0.191   9.367  13.451  0.2418 -0.3736 -0.1985
57854SOL    HW185287   0.215   9.313  13.527 -0.3383 -1.2321 -0.6043
57854SOL    HW285288   0.264   9.355  13.390 -0.1716 -1.2364 -0.5461
57855SOL     OW85289  10.193   7.287   2.642  0.5304  0.2199 -0.1392
57855SOL    HW185290  10.154   7.239   2.569  2.2241 -1.9771  0.3130
57855SOL    HW285291  10.147   7.254   2.719  1.2157 -0.1570  0.1110
57856SOL     OW85292  12.349   5.464  12.509 -0.1396  0.5204 -0.2333
57856SOL    HW185293  12.424   5.504  12.465 -0.0457  1.7302  0.9501
57856SOL    HW285294  12.322   5.393  12.451  2.2369 -0.2996 -0.4398
57857SOL     OW85295   6.120   0.417  12.878  0.6282  0.5354 -0.0008
57857SOL    HW185296   6.110   0.341  12.820 -0.3339  0.2526  0.5111
57857SOL    HW285297   6.190   0.392  12.937  0.9733  0.4381 -0.4445
57858SOL     OW85298  12.754   4.129   6.293 -0.2211 -0.3743  0.0674
57858SOL    HW185299  12.728   4.041   6.320  1.4960 -0.9147  0.0566
57858SOL    HW285300  12.837   4.117   6.247  1.6069  1.5247  2.5631
57859SOL     OW85301  12.714   4.995   4.413  0.9622  0.2826  0.3235
57859SOL    HW185302  12.779   5.021   4.478  1.9934  1.5147 -1.1046
57859SOL    HW285303  12.709   5.070   4.353 -0.4424 -0.5182 -0.6268
57860SOL     OW85304   2.476   9.172   0.297  0.6316 -0.5340 -0.1039
57860SOL    HW185305   2.382   9.177   0.280  0.6435 -0.9598 -0.2888
57860SOL    HW285306   2.517   9.178   0.211  0.8241  0.8322  0.0665
57861SOL     OW85307  12.134   1.875   8.961  0.2001  0.7043  0.3998
57861SOL    HW185308  12.081   1.867   8.882 -1.3636 -0.5006  1.5066
57861SOL    HW285309  12.189   1.796   8.961  0.5553  0.9466  0.2896
57862SOL     OW85310   5.054  12.999   9.647  0.1175 -0.5577  0.0335
57862SOL    HW185311   5.105  12.939   9.701  1.2917 -0.4275 -0.9063
57862SOL    HW285312   5.118  13.060   9.611 -0.4248 -1.4263 -2.5748
57863SOL     OW85313   7.685   3.432   7.394  0.4664  0.1300 -0.2588
57863SOL    HW185314   7.780   3.438   7.389  0.3701  1.1229 -1.1991
57863SOL    HW285315   7.661   3.378   7.318  0.3240 -0.7930  0.4260
57864SOL     OW85316  13.511  13.419   8.436 -0.4503  0.0119 -0.6188
57864SOL    HW185317  13.472  13.475   8.503  0.7560 -0.3722  0.4538
57864SOL    HW285318  13.530  13.478   8.363  1.4142  1.2087  0.7423
57865SOL     OW85319   0.605  12.303   8.759 -0.7402  0.0077 -0.3638
57865SOL    HW185320   0.665  12.378   8.754 -0.0183 -0.5205  0.0762
57865SOL    HW285321   0.648  12.243   8.821 -2.0019 -0.1443  0.3931
57866SOL     OW85322   9.150   1.183   2.204 -0.3754 -0.0110  0.3296
57866SOL    HW185323   9.123   1.259   2.254  0.5532  1.0950 -0.7731
57866SOL    HW285324   9.214   1.217   2.141  0.6611 -1.8285  0.3182
57867SOL     OW85325   8.888   4.924   3.621  0.0593  0.2856 -0.0299
57867SOL    HW185326   8.848   4.966   3.545 -0.8490  0.1178  0.3324
57867SOL    HW285327   8.957   4.983   3.649 -0.3068  0.8660 -0.3455
57868SOL     OW85328   2.008   9.604   8.344  0.1952  0.6301 -0.6025
57868SOL    HW185329   2.038   9.554   8.420 -1.8955 -1.3207 -0.9645
57868SOL    HW285330   2.041   9.555   8.269 -2.0209 -0.4336 -0.9651
57869SOL     OW85331  10.899   0.418   6.430 -0.0862 -0.1897  0.2027
57869SOL    HW185332  10.866   0.495   6.476  0.7802 -0.3768  1.1783
57869SOL    HW285333  10.948   0.453   6.356  0.6266  0.2371  0.8593
57870SOL     OW85334   9.888  12.484  12.947  0.1164  0.3208 -0.0714
57870SOL    HW185335   9.821  12.530  12.997 -1.7915 -0.0446 -2.1423
57870SOL    HW285336   9.919  12.415  13.006 -2.0997 -0.1753  0.5938
57871SOL     OW85337   0.682   5.223  12.036  0.1525 -0.1535 -0.3160
57871SOL    HW185338   0.751   5.169  11.998  1.3034  1.1710 -0.1913
57871SOL    HW285339   0.722   5.309  12.048 -1.7084  0.8684 -0.8549
57872SOL     OW85340   3.460   6.166  10.602 -0.1598  0.0281  0.3576
57872SOL    HW185341   3.366   6.160  10.586 -0.2818  1.4639  0.4460
57872SOL    HW285342   3.472   6.249  10.647  1.4488  1.2807 -2.1395
57873SOL     OW85343   7.770   5.008  10.885  0.4629 -0.1539 -0.1447
57873SOL    HW185344   7.677   4.992  10.867  0.7003 -0.3844 -1.1948
57873SOL    HW285345   7.806   4.920  10.900  0.5279 -0.0698  0.1946
57874SOL     OW85346  12.748   9.418   0.114  0.8378  0.2548 -0.5265
57874SOL    HW185347  12.758   9.329   0.148  1.1561  0.6831  0.5338
57874SOL    HW285348  12.700   9.406   0.032  1.6399 -0.9702 -0.8531
57875SOL     OW85349   8.082   7.392  11.652  0.4679  0.2009 -0.1776
57875SOL    HW185350   8.102   7.464  11.593 -0.8920  0.0518 -0.8503
57875SOL    HW285351   8.111   7.314  11.605  2.2678  0.2940  0.6978
57876SOL     OW85352   0.081   7.675  10.702  0.5620  0.2881 -0.5848
57876SOL    HW185353   0.120   7.589  10.687 -0.6006 -0.4755  0.5161
57876SOL    HW285354   0.089   7.689  10.796 -0.0788  0.9623 -0.6197
57877SOL     OW85355  11.808   8.924   7.877 -0.0494  0.7035 -0.0255
57877SOL    HW185356  11.849   9.007   7.904  0.2195  0.7796 -0.6425
57877SOL    HW285357  11.857   8.857   7.924 -1.1514  0.9578  1.5430
57878SOL     OW85358   8.398  12.530  11.734 -0.0815  0.3461 -0.4671
57878SOL    HW185359   8.424  12.558  11.646 -0.0910  2.8260  0.2458
57878SOL    HW285360   8.308  12.498  11.723  0.0000  0.3946 -1.3972
57879SOL     OW85361   9.024   5.639   8.858 -0.4262  0.4143  0.3274
57879SOL    HW185362   9.047   5.655   8.767 -1.1763 -0.8259 -0.0988
57879SOL    HW285363   9.050   5.719   8.904  1.2747  0.5114 -0.7193
57880SOL     OW85364  10.862   1.977   5.357  0.3380  0.1924 -0.1807
57880SOL    HW185365  10.901   2.008   5.439  0.6467 -0.6853  0.0138
57880SOL    HW285366  10.821   2.055   5.319 -0.9535  0.3499  1.4324
57881SOL     OW85367  11.325   7.316   8.928 -0.6155  1.3869 -0.5545
57881SOL    HW185368  11.314   7.271   8.844  0.3115  0.3025 -0.1341
57881SOL    HW285369  11.261   7.275   8.986  0.0965  0.6988 -0.2238
57882SOL     OW85370   2.743  11.820   2.899  0.6290 -0.0874 -0.3321
57882SOL    HW185371   2.663  11.857   2.862  1.4394  0.9733 -1.1195
57882SOL    HW285372   2.727  11.818   2.994  0.1347  1.3340 -0.3517
57883SOL     OW85373  10.572  10.118   3.590 -0.3424  0.2910 -0.3106
57883SOL    HW185374  10.537  10.064   3.520  1.1996  0.3024 -1.1289
57883SOL    HW285375  10.555  10.068   3.670  2.2942 -2.1906 -1.1385
57884SOL     OW85376   8.697  11.901   5.212  0.1332  0.4218 -0.1113
57884SOL    HW185377   8.716  11.971   5.149 -0.4173 -1.0035 -1.9140
57884SOL    HW285378   8.651  11.834   5.162  0.6960 -1.2970  1.5447
57885SOL     OW85379  11.749   3.435   7.032  0.5593 -0.5292 -0.1196
57885SOL    HW185380  11.839   3.414   7.008  0.2776  0.0292 -1.8525
57885SOL    HW285381  11.720   3.362   7.087  2.4332 -0.1138  1.5186
57886SOL     OW85382   5.651  11.091   4.494 -0.3055 -0.0633  0.2166
57886SOL    HW185383   5.563  11.079   4.460 -0.0477  0.4759 -0.6942
57886SOL    HW285384   5.706  11.101   4.416  0.5934 -0.5833  0.7564
57887SOL     OW85385   1.614   5.493  11.330  0.0228 -0.6659  0.2327
57887SOL    HW185386   1.570   5.415  11.297  0.1189 -0.0040 -1.5852
57887SOL    HW285387   1.544   5.557  11.342 -0.0142 -0.9151  1.3813
57888SOL     OW85388   7.824   2.233   1.462 -0.2848 -0.5835 -0.3516
57888SOL    HW185389   7.776   2.159   1.425 -1.0161  0.3446 -1.3138
57888SOL    HW285390   7.757   2.295   1.488  0.3352 -0.0882  0.1043
57889SOL     OW85391   6.757   1.321   2.104 -0.0161 -0.3631 -0.2330
57889SOL    HW185392   6.725   1.349   2.018  1.3783 -0.0772 -0.6868
57889SOL    HW285393   6.780   1.229   2.092 -2.3150 -1.1004  0.5947
57890SOL     OW85394   4.190   8.892   1.308 -0.0108 -0.5965  0.7903
57890SOL    HW185395   4.165   8.938   1.389 -0.9560 -1.4345  0.9909
57890SOL    HW285396   4.109   8.889   1.257  0.2940 -1.1227  0.3326
57891SOL     OW85397  11.170   4.366  12.303 -0.3712 -0.2570  0.0432
57891SOL    HW185398  11.229   4.386  12.376 -1.5991  0.7621  0.8074
57891SOL    HW285399  11.221   4.310  12.245  0.6079 -1.2047  1.7429
57892SOL     OW85400   7.696  10.588   8.173  0.3787  0.1258 -0.0682
57892SOL    HW185401   7.781  10.544   8.173  0.5204  0.3866  0.7320
57892SOL    HW285402   7.640  10.531   8.227  0.1765  0.2016 -0.1968
57893SOL     OW85403   2.622   5.394   0.837 -1.1558 -0.7809 -0.3922
57893SOL    HW185404   2.598   5.302   0.824 -0.1683 -1.2412  0.8717
57893SOL    HW285405   2.717   5.393   0.847 -1.3727 -0.0111  2.4620
57894SOL     OW85406   6.639  11.554   5.243  0.0416 -0.2093 -0.0932
57894SOL    HW185407   6.552  11.520   5.222  0.4529 -1.8741  0.7714
57894SOL    HW285408   6.694  11.528   5.169  0.2924 -1.2674  0.4370
57895SOL     OW85409   8.757  11.045   3.050  0.1495  0.0780 -0.1034
57895SOL    HW185410   8.773  11.037   3.144 -0.9017 -3.7943 -0.1020
57895SOL    HW285411   8.691  11.113   3.043 -1.1036 -0.7896  2.1956
57896SOL     OW85412   4.500   1.649   9.458  0.2644 -0.3704 -0.0151
57896SOL    HW185413   4.579   1.597   9.472 -0.0464 -1.1983 -1.1311
57896SOL    HW285414   4.487   1.648   9.363  0.0675  1.5191 -0.0351
57897SOL     OW85415  13.207  13.375   8.983 -0.2099 -0.6115  0.0883
57897SOL    HW185416  13.128  13.332   9.016 -0.0107 -0.8798  0.2256
57897SOL    HW285417  13.190  13.388   8.890 -1.0917  0.8595  0.4291
57898SOL     OW85418   0.376   5.111  11.130  0.0673  0.2114  0.3480
57898SOL    HW185419   0.301   5.064  11.167  1.3474 -1.5977  0.7878
57898SOL    HW285420   0.362   5.108  11.035  0.2308 -1.2776  0.3581
57899SOL     OW85421   0.271   1.194   8.318 -0.5286 -0.6473 -0.2955
57899SOL    HW185422   0.221   1.119   8.286 -3.2526  1.5249 -1.5608
57899SOL    HW285423   0.322   1.224   8.243 -1.2104  0.0694 -0.4894
57900SOL     OW85424   2.673   0.131   9.002 -0.1803 -0.1763  0.5110
57900SOL    HW185425   2.656   0.208   9.056  0.8992 -0.2850  1.0454
57900SOL    HW285426   2.697   0.168   8.916 -0.3461  0.0631  0.5668
57901SOL     OW85427   9.100   9.694   0.532 -0.0649 -0.1369 -0.3137
57901SOL    HW185428   9.066   9.637   0.463  0.1430  1.0200 -1.4003
57901SOL    HW285429   9.059   9.779   0.515  0.2217  0.2399  0.8202
57902SOL     OW85430  13.210   4.719   4.783  0.0291 -0.1842  0.4181
57902SOL    HW185431  13.198   4.650   4.718  0.3768  0.8312 -0.7695
57902SOL    HW285432  13.170   4.685   4.863  0.6953 -1.9720  0.0213
57903SOL     OW85433   8.578   8.714  12.573  0.4925 -0.6559 -0.1229
57903SOL    HW185434   8.581   8.749  12.485  1.4397  0.8606  0.4800
57903SOL    HW285435   8.557   8.621  12.561  0.3773 -0.4278 -1.9072
57904SOL     OW85436  10.322  12.718   0.829  0.3824  1.0158 -0.1548
57904SOL    HW185437  10.262  12.644   0.819  1.6743  0.0184 -0.7976
57904SOL    HW285438  10.337  12.724   0.923  2.0069 -1.0272 -0.2228
57905SOL     OW85439   4.025  12.127   1.441 -0.0462 -0.0358  0.0405
57905SOL    HW185440   4.066  12.068   1.504 -0.3669 -0.1493  0.1463
57905SOL    HW285441   3.954  12.075   1.403  0.4858 -0.1603 -0.8180
57906SOL     OW85442  12.899  12.919   6.453 -0.0053  0.0268 -0.2938
57906SOL    HW185443  12.978  12.865   6.458 -0.5940 -1.1573 -2.3377
57906SOL    HW285444  12.929  13.000   6.410  0.1369 -0.4026 -1.0322
57907SOL     OW85445   4.349  10.599   7.828 -0.9103  0.3087 -0.2983
57907SOL    HW185446   4.415  10.530   7.817  0.0681  1.4169 -1.6706
57907SOL    HW285447   4.387  10.659   7.891 -2.2476 -0.9071  1.7852
57908SOL     OW85448  11.753  13.303   6.990 -0.6703  0.2387  0.8296
57908SOL    HW185449  11.700  13.326   6.913  0.4836  1.5552  0.4039
57908SOL    HW285450  11.763  13.208   6.983  0.9405  0.4935 -1.7269
57909SOL     OW85451   6.308   6.547  10.182  0.2635 -0.5021  0.1853
57909SOL    HW185452   6.254   6.571  10.257 -1.4766 -0.7887 -0.8952
57909SOL    HW285453   6.269   6.465  10.150  2.2228 -1.4758  0.1563
57910SOL     OW85454   9.354   5.137   2.215 -0.3035 -0.2984 -0.4606
57910SOL    HW185455   9.406   5.057   2.222 -1.7471 -1.1975  0.4570
57910SOL    HW285456   9.318   5.135   2.127  1.1727  0.3461 -1.1168
57911SOL     OW85457   6.223   3.394  13.214 -0.4874 -0.2397  0.5699
57911SOL    HW185458   6.173   3.446  13.151  0.8285  0.7309  0.2754
57911SOL    HW285459   6.160   3.373  13.283 -1.5956 -0.1063 -0.3756
57912SOL     OW85460   7.138  10.558   7.951  0.1779  0.3725  0.3381
57912SOL    HW185461   7.163  10.471   7.920  2.2388  0.9738  0.1898
57912SOL    HW285462   7.127  10.548   8.045  1.4546  0.1518  0.4790
57913SOL     OW85463   6.315   0.615   3.631  0.3299  0.0433  0.2008
57913SOL    HW185464   6.342   0.532   3.670 -1.3429  0.1704  1.7273
57913SOL    HW285465   6.308   0.595   3.537 -1.0779 -1.8781  0.6445
57914SOL     OW85466   7.808   1.487  11.847 -0.3733  0.1127  0.3080
57914SOL    HW185467   7.794   1.581  11.846  0.6698  0.2779 -0.5689
57914SOL    HW285468   7.896   1.475  11.812 -1.4609 -1.3444 -2.2852
57915SOL     OW85469   1.126   1.509   2.840 -0.2979  0.1473 -0.4359
57915SOL    HW185470   1.169   1.452   2.776  1.7012 -0.5009  1.3555
57915SOL    HW285471   1.117   1.593   2.795 -0.9786 -0.8557 -2.2719
57916SOL     OW85472   9.060   6.668   8.767 -0.1635  0.5282  0.0099
57916SOL    HW185473   9.006   6.707   8.836 -0.7633 -1.2676  0.6293
57916SOL    HW285474   9.011   6.590   8.740  0.4423  0.7752 -1.9303
57917SOL     OW85475   8.696   1.430   3.152 -0.4571  0.2196  0.1936
57917SOL    HW185476   8.742   1.351   3.178 -0.1246 -0.0620 -1.1483
57917SOL    HW285477   8.700   1.487   3.228  1.2492 -0.1910  0.4391
57918SOL     OW85478   9.709   3.099   5.245 -0.2904  0.2574  0.0177
57918SOL    HW185479   9.631   3.073   5.294 -0.0509 -0.6557 -0.0638
57918SOL    HW285480   9.716   3.193   5.259 -0.0415 -0.0041  2.0379
57919SOL     OW85481  13.161   5.528   2.353 -0.1074  0.1671  0.2251
57919SOL    HW185482  13.221   5.567   2.418 -1.0693 -1.0696  1.9370
57919SOL    HW285483  13.211   5.527   2.272  1.6155  0.6527  1.2285
57920SOL     OW85484   9.567   5.475   3.805 -0.2650 -0.1936  0.0180
57920SOL    HW185485   9.643   5.504   3.855 -0.2284 -0.6108  0.2062
57920SOL    HW285486   9.600   5.404   3.751 -0.2581  0.3714 -0.7440
57921SOL     OW85487  11.058  12.418   0.038  0.4068  0.3499 -0.1492
57921SOL    HW185488  10.987  12.478   0.059 -0.0659 -0.1251 -0.3828
57921SOL    HW285489  11.051  12.404  -0.057  0.5837  0.0178 -0.1151
57922SOL     OW85490   9.712   8.650  13.710 -0.8559 -1.1429 -0.0243
57922SOL    HW185491   9.697   8.557  13.726  0.0261 -1.5335 -1.3019
57922SOL    HW285492   9.743   8.654  13.619  0.1281  0.2929  0.3452
57923SOL     OW85493   1.272   0.678  12.522 -0.0126  0.2586 -0.4193
57923SOL    HW185494   1.233   0.711  12.603 -0.1484 -2.1138  0.5774
57923SOL    HW285495   1.351   0.632  12.551  1.3832  1.5644 -1.9576
57924SOL     OW85496   1.023   9.164   4.631 -0.5739  0.1371 -0.1879
57924SOL    HW185497   1.065   9.182   4.715 -0.0116 -2.0251  0.0533
57924SOL    HW285498   1.038   9.071   4.616 -1.7976  0.1854 -2.0755
57925SOL     OW85499   9.689   4.519   9.528  0.6304 -0.1800 -0.3499
57925SOL    HW185500   9.753   4.535   9.459  1.2471 -1.7983 -0.1895
57925SOL    HW285501   9.604   4.530   9.486  0.8448  4.1435 -0.0902
57926SOL     OW85502   8.148  10.785   1.341  0.0921  0.2851  0.1397
57926SOL    HW185503   8.159  10.766   1.434  1.7015  0.7746  0.0681
57926SOL    HW285504   8.153  10.700   1.298 -1.1906 -0.0096  0.5090
57927SOL     OW85505   4.686   5.172   2.888  0.2106  0.7022  0.1900
57927SOL    HW185506   4.613   5.137   2.837  1.6533 -1.0539 -0.7809
57927SOL    HW285507   4.679   5.131   2.974  0.8064 -0.5497 -0.3417
57928SOL     OW85508   0.837  13.641  10.721  0.0648 -0.1000 -0.1285
57928SOL    HW185509   0.914  13.698  10.714  1.5500 -2.1748 -2.2708
57928SOL    HW285510   0.778  13.674  10.654 -1.2082  1.7215  1.7557
57929SOL     OW85511   2.637   9.987  10.467 -0.0806  0.3072  0.0758
57929SOL    HW185512   2.551   9.998  10.427  0.7056  0.4928 -1.6626
57929SOL    HW285513   2.653  10.069  10.513 -0.9699  0.1188  0.7627
57930SOL     OW85514   7.909   3.797   8.350  0.6064 -0.1387  0.4563
57930SOL    HW185515   7.920   3.853   8.427 -0.5872 -0.6646  1.0368
57930SOL    HW285516   7.816   3.803   8.330  0.9056  0.0240 -1.0019
57931SOL     OW85517   6.173  13.452   0.017 -0.2799 -0.2056 -0.0840
57931SOL    HW185518   6.264  13.455   0.047 -0.3884 -1.4179  0.4027
57931SOL    HW285519   6.168  13.519  -0.052  0.8077  0.3205  0.3262
57932SOL     OW85520  13.348   6.906   7.969  0.3990  0.1011 -0.0775
57932SOL    HW185521  13.258   6.934   7.983 -1.1237 -4.4983  0.9121
57932SOL    HW285522  13.362   6.916   7.874 -0.2075  2.8957  0.0315
57933SOL     OW85523   8.883   8.608   4.309 -0.3561  0.0023 -0.9001
57933SOL    HW185524   8.828   8.560   4.371 -1.0200 -1.0095 -2.2324
57933SOL    HW285525   8.936   8.541   4.266  1.5261  0.9020 -0.0841
57934SOL     OW85526   9.867   8.475   9.070  0.3059 -0.0131  0.4660
57934SOL    HW185527   9.821   8.506   8.992  1.3284  1.4931  0.4099
57934SOL    HW285528   9.953   8.449   9.038  0.4299 -0.2174  0.9592
57935SOL     OW85529  12.827   9.299   1.987 -0.6220 -0.1849 -0.2442
57935SOL    HW185530  12.734   9.282   2.005 -0.5374  1.6529  2.5437
57935SOL    HW285531  12.826   9.355   1.910 -1.8014 -0.4555 -0.4515
57936SOL     OW85532   9.524   4.367   8.426  0.0008 -0.4508 -0.3133
57936SOL    HW185533   9.470   4.402   8.356 -1.0928 -1.2561  0.0919
57936SOL    HW285534   9.497   4.415   8.504  0.3840 -0.3637 -0.2310
57937SOL     OW85535   5.276  10.570  10.738 -0.0947 -0.2181 -0.1306
57937SOL    HW185536   5.292  10.641  10.799  1.2112  0.3762 -1.1220
57937SOL    HW285537   5.236  10.612  10.662 -0.7945 -0.7988 -0.0971
57938SOL     OW85538   3.193   1.794  11.998  0.2783 -0.1953 -0.2356
57938SOL    HW185539   3.169   1.709  12.034 -1.4099  0.6391  0.7524
57938SOL    HW285540   3.180   1.785  11.903 -2.5414 -0.3321  0.0646
57939SOL     OW85541   8.420   2.008   2.808 -0.9765  0.3966 -0.6952
57939SOL    HW185542   8.421   2.009   2.904  0.3360  0.7744 -0.6979
57939SOL    HW285543   8.476   1.934   2.785  0.9237  1.9234 -1.1645
57940SOL     OW85544   3.392  13.409   1.591  0.6147  0.0639  0.0220
57940SOL    HW185545   3.424  13.483   1.642  0.3346  0.1471  0.0816
57940SOL    HW285546   3.470  13.361   1.566  0.8226  0.5477 -0.2708
57941SOL     OW85547  11.918   9.287   4.828  0.3250  0.6569 -0.0816
57941SOL    HW185548  11.997   9.302   4.776  1.3017 -1.2737  0.7497
57941SOL    HW285549  11.947   9.235   4.903 -1.8654 -0.9173 -0.2167
57942SOL     OW85550   1.467  10.619   0.886 -0.0193  0.0323 -0.0637
57942SOL    HW185551   1.435  10.709   0.898 -0.1522  0.0977 -0.8494
57942SOL    HW285552   1.498  10.593   0.972 -1.3160  0.3213  0.5139
57943SOL     OW85553   3.991  13.482  13.454  0.7678 -0.1550  0.3139
57943SOL    HW185554   3.951  13.414  13.508  1.3420 -0.8551 -0.1266
57943SOL    HW285555   3.943  13.562  13.476 -1.3714 -1.0818 -0.7344
57944SOL     OW85556   1.613   4.492   4.279  0.0949  0.1057  0.0222
57944SOL    HW185557   1.544   4.510   4.214  0.6867  0.3556 -0.5476
57944SOL    HW285558   1.566   4.455   4.354 -0.4952 -1.1921 -0.9436
57945SOL     OW85559  11.440   3.270  13.570  0.5092  0.2869  0.2367
57945SOL    HW185560  11.459   3.335  13.502 -1.3033  2.7545  1.9529
57945SOL    HW285561  11.346   3.279  13.587  0.7897 -0.6427  2.6752
57946SOL     OW85562   0.577   9.884   6.702  0.3295  0.2386 -0.0641
57946SOL    HW185563   0.534   9.888   6.787 -0.4373  0.8940 -0.4715
57946SOL    HW285564   0.605   9.973   6.684 -0.0882  0.2358 -0.7805
57947SOL     OW85565  11.497   3.714   6.157 -0.2956 -0.1235 -0.0551
57947SOL    HW185566  11.434   3.779   6.128 -0.0545  0.0320 -0.2355
57947SOL    HW285567  11.583   3.754   6.139 -0.1250  0.1665  1.2371
57948SOL     OW85568   7.433   1.254  11.920 -0.3119  0.5820  0.5547
57948SOL    HW185569   7.396   1.215  11.999 -1.6385  2.0980  0.7380
57948SOL    HW285570   7.507   1.306  11.951  1.6511 -1.8349  0.2764
57949SOL     OW85571   5.313  12.063   1.391 -0.1902 -0.5334 -0.1988
57949SOL    HW185572   5.263  12.064   1.473 -0.9208 -2.8922 -0.5422
57949SOL    HW285573   5.246  12.063   1.322  0.4007  0.6056 -0.7885
57950SOL     OW85574  10.295  10.067  10.797 -0.2618  0.2161 -0.3243
57950SOL    HW185575  10.250  10.115  10.866  0.2223  0.0760  0.0890
57950SOL    HW285576  10.365  10.126  10.768  0.8576 -0.5514  0.7535
57951SOL     OW85577   4.229   3.515   6.845  0.1340 -0.3953 -0.5012
57951SOL    HW185578   4.174   3.444   6.878  1.8194 -2.0493 -1.0896
57951SOL    HW285579   4.228   3.503   6.750  2.6011 -1.3906 -0.4717
57952SOL     OW85580   7.410  12.439   3.420  0.2833 -0.3557  0.1081
57952SOL    HW185581   7.379  12.513   3.368  1.4173  0.0380 -0.0446
57952SOL    HW285582   7.344  12.428   3.488 -0.7993 -0.3505 -0.9156
57953SOL     OW85583  10.546  10.667   4.169  0.5072  0.2139 -0.0895
57953SOL    HW185584  10.488  10.630   4.236  0.0777 -1.4078 -1.3211
57953SOL    HW285585  10.486  10.703   4.103  0.9282  1.9739  0.4319
57954SOL     OW85586   4.809  12.071   1.666 -0.6485  0.0673  0.3157
57954SOL    HW185587   4.797  12.145   1.724  0.0425  0.8122 -0.4607
57954SOL    HW285588   4.807  11.994   1.723 -0.6980  0.7308  1.2178
57955SOL     OW85589   0.057   1.504   9.488 -0.8690  0.1325  0.1385
57955SOL    HW185590   0.052   1.599   9.476  0.7670  0.3045  0.5401
57955SOL    HW285591   0.139   1.491   9.536 -0.2330 -1.6050 -1.3449
57956SOL     OW85592   6.483   3.800   8.897  0.2279  0.8560 -0.3719
57956SOL    HW185593   6.460   3.730   8.837  0.1851  1.3163 -0.9040
57956SOL    HW285594   6.400   3.845   8.914 -0.0621 -0.2333  1.3122
57957SOL     OW85595   2.598   9.043   0.526 -0.4025  0.2954  0.4218
57957SOL    HW185596   2.530   9.068   0.463  0.4451  0.1631 -0.5782
57957SOL    HW285597   2.652   9.122   0.536 -0.6069  0.3501  1.0779
57958SOL     OW85598  13.110   6.232   1.073  0.1459 -0.0288 -0.2000
57958SOL    HW185599  13.090   6.159   1.014  1.5136 -0.6783  0.1006
57958SOL    HW285600  13.186   6.275   1.033  1.4811 -0.8364  1.3421
57959SOL     OW85601  13.735   1.665   0.408  0.2627 -0.4371  0.4452
57959SOL    HW185602  13.708   1.599   0.472  1.4754 -1.3946  0.0221
57959SOL    HW285603  13.812   1.627   0.365  0.9213  1.1969  0.0771
57960SOL     OW85604   2.131  13.256   4.312  0.3032  0.9658  0.0670
57960SOL    HW185605   2.134  13.319   4.384 -0.2229 -0.0757  1.0314
57960SOL    HW285606   2.085  13.180   4.349  2.4182 -0.6784 -0.4981
57961SOL     OW85607  11.739  10.919   6.602  1.0478  0.3866 -0.3212
57961SOL    HW185608  11.717  10.992   6.660  1.8361 -0.1409  0.6889
57961SOL    HW285609  11.835  10.920   6.597  1.0520 -0.3548 -0.5860
57962SOL     OW85610   8.202   9.193   3.626  0.4779  0.0143 -0.1523
57962SOL    HW185611   8.126   9.249   3.609 -0.1227 -1.0285 -1.0271
57962SOL    HW285612   8.238   9.174   3.540  0.6442 -0.9754  0.1190
57963SOL     OW85613   9.149   3.264   0.043  0.7956 -0.1816  0.2113
57963SOL    HW185614   9.144   3.292   0.134 -0.4645  0.5772 -0.0712
57963SOL    HW285615   9.116   3.338  -0.008  1.0138 -0.7714 -0.8342
57964SOL     OW85616   9.245   3.244   2.420  0.4030  0.4205 -0.6877
57964SOL    HW185617   9.265   3.322   2.471  0.3027  1.0202 -1.5578
57964SOL    HW285618   9.210   3.182   2.485  1.1570  0.8209  0.1290
57965SOL     OW85619   4.436   2.668  12.010  0.3866  0.1261 -0.4781
57965SOL    HW185620   4.471   2.584  12.040 -0.2049 -0.3549 -1.1067
57965SOL    HW285621   4.480   2.733  12.065  0.3476 -0.6372  0.4887
57966SOL     OW85622   4.786   1.778  13.445 -0.2930  0.1609  0.1543
57966SOL    HW185623   4.777   1.809  13.535  1.5779  3.5184 -0.6248
57966SOL    HW285624   4.858   1.716  13.447 -1.3982 -1.1356  1.1803
57967SOL     OW85625   8.688   6.734  10.555 -0.5582 -0.3964  0.9343
57967SOL    HW185626   8.716   6.710  10.466 -0.3879 -0.4091  0.9920
57967SOL    HW285627   8.761   6.709  10.611 -0.8234 -0.7580  1.1302
57968SOL     OW85628   4.088   6.804  11.710 -0.4230  0.3398 -0.7546
57968SOL    HW185629   4.157   6.793  11.645  0.8943  0.9818  0.4727
57968SOL    HW285630   4.088   6.722  11.759  1.1588  1.1343  0.7319
57969SOL     OW85631  11.442  13.424   7.132 -0.1036  0.0351 -0.0138
57969SOL    HW185632  11.456  13.337   7.095  1.3035  0.0229  0.4721
57969SOL    HW285633  11.433  13.409   7.226 -0.6898  0.3471 -0.0152
57970SOL     OW85634  11.640   1.548   9.346  0.5375 -0.7851 -0.4875
57970SOL    HW185635  11.685   1.504   9.273 -1.1702 -1.8264 -0.9685
57970SOL    HW285636  11.630   1.480   9.412  1.2040 -0.0933  0.3508
57971SOL     OW85637  10.631   9.833   7.714  0.5866 -0.4554 -0.1609
57971SOL    HW185638  10.692   9.771   7.755  0.9651  0.3223  0.4780
57971SOL    HW285639  10.585   9.781   7.648  1.0551 -1.3611  0.2066
57972SOL     OW85640   1.679  10.015   1.437  0.1924  0.2628 -0.1740
57972SOL    HW185641   1.722  10.009   1.522  0.3323  1.5755 -0.1324
57972SOL    HW285642   1.685  10.108   1.413 -0.9548  0.1423 -1.0376
57973SOL     OW85643  12.528  11.836   5.334 -0.2540 -0.3261 -0.4985
57973SOL    HW185644  12.483  11.792   5.261  2.2350 -1.2975 -1.5848
57973SOL    HW285645  12.509  11.781   5.410 -0.5974 -0.9009 -0.9869
57974SOL     OW85646   5.442  10.727   5.232  0.0906 -0.1950  0.0200
57974SOL    HW185647   5.415  10.675   5.156 -0.7841  0.2670 -0.0046
57974SOL    HW285648   5.510  10.785   5.200 -0.4113  0.1330 -0.4628
57975SOL     OW85649  13.317  11.929   6.068 -0.4417  0.2603 -0.7524
57975SOL    HW185650  13.231  11.904   6.035 -0.5374  2.1895 -2.1181
57975SOL    HW285651  13.312  12.024   6.078  0.8418  0.1628  1.2919
57976SOL     OW85652   8.444   1.263   9.909 -1.0354  0.5237 -0.4501
57976SOL    HW185653   8.472   1.329   9.971 -0.8637 -1.1341  1.3286
57976SOL    HW285654   8.349   1.269   9.908 -1.0068  1.0137 -0.5952
57977SOL     OW85655   6.128  10.708   7.363 -0.4438  0.2383 -0.0429
57977SOL    HW185656   6.059  10.660   7.317 -1.2745  0.1444  1.2497
57977SOL    HW285657   6.093  10.795   7.377  0.0515  0.4609 -0.1575
57978SOL     OW85658   8.053   3.677   6.490  0.2715  0.1035 -0.0298
57978SOL    HW185659   8.059   3.586   6.520  1.2911  0.5198  1.1176
57978SOL    HW285660   8.077   3.674   6.398 -1.2898 -0.9900 -0.4410
57979SOL     OW85661   1.129   7.899  13.210 -0.1471 -0.0613 -0.1203
57979SOL    HW185662   1.049   7.857  13.241  0.2963 -1.2353 -0.5070
57979SOL    HW285663   1.171   7.833  13.154  0.2755  1.1263 -1.2578
57980SOL     OW85664   9.107   1.358   2.705 -0.1340  0.2617 -0.5445
57980SOL    HW185665   9.024   1.404   2.717 -2.1579 -2.8057 -1.5703
57980SOL    HW285666   9.137   1.340   2.794 -1.6568 -0.3212 -0.1179
57981SOL     OW85667   7.723   1.220   0.265  0.4136 -0.1852 -0.5182
57981SOL    HW185668   7.664   1.163   0.314 -0.1295  2.0086  1.5866
57981SOL    HW285669   7.678   1.237   0.182 -1.5017  0.6404  0.6360
57982SOL     OW85670   3.479   0.314   2.645 -0.3359  0.4698  0.1763
57982SOL    HW185671   3.451   0.258   2.573 -0.1361  1.1044 -0.4080
57982SOL    HW285672   3.401   0.365   2.668 -0.8897 -0.9449  1.5892
57983SOL     OW85673  13.187   9.949  10.522  0.0036 -0.3576 -0.2326
57983SOL    HW185674  13.192   9.865  10.477 -0.2635 -1.4966  1.7621
57983SOL    HW285675  13.115   9.939  10.585 -0.7759  1.7611 -0.6803
57984SOL     OW85676  12.757  13.233   8.412  0.5487  0.0351  0.1458
57984SOL    HW185677  12.792  13.226   8.323  1.6823 -1.4089  0.6756
57984SOL    HW285678  12.746  13.143   8.441 -3.0228  0.3754  0.3137
57985SOL     OW85679   6.276   3.215   7.077 -0.6359 -0.0476 -0.0055
57985SOL    HW185680   6.226   3.167   7.012 -1.0958  1.1353 -0.5561
57985SOL    HW285681   6.364   3.223   7.040  0.0538 -2.2156  1.0077
57986SOL     OW85682  10.817   5.236  13.217 -0.3770 -0.1815  0.1936
57986SOL    HW185683  10.899   5.268  13.177 -1.0775  0.9007 -0.4368
57986SOL    HW285684  10.841   5.216  13.307  0.2011  1.9399  0.5706
57987SOL     OW85685   2.991   1.173   4.892  0.3308  0.6166  0.2182
57987SOL    HW185686   3.019   1.103   4.951  0.4509 -0.4461 -1.0237
57987SOL    HW285687   3.033   1.151   4.808 -1.8713  0.5440 -0.9659
57988SOL     OW85688   2.142   5.865   8.601  0.2375  0.4169 -0.0873
57988SOL    HW185689   2.059   5.835   8.638 -0.4852  0.6797 -1.4484
57988SOL    HW285690   2.205   5.852   8.672 -0.8220 -0.4268  0.7441
57989SOL     OW85691  11.678   6.398  11.681 -0.6558 -0.2341  0.2173
57989SOL    HW185692  11.637   6.484  11.666 -0.2879 -0.1328 -0.2097
57989SOL    HW285693  11.613   6.351  11.734 -1.1546  0.0654 -0.1103
57990SOL     OW85694   2.788   8.344  10.039 -0.8931  0.1028 -0.6586
57990SOL    HW185695   2.695   8.336  10.059 -0.5568 -0.3753  0.8062
57990SOL    HW285696   2.816   8.255  10.018 -0.1252 -0.3700  2.0249
57991SOL     OW85697   4.984   9.825  11.097 -0.8508 -0.1099  0.4429
57991SOL    HW185698   5.050   9.854  11.033 -0.2651 -0.3606  0.9217
57991SOL    HW285699   4.962   9.905  11.146 -1.4891  0.1333 -0.2314
57992SOL     OW85700   3.189  13.466   5.626  0.2872  0.4105 -0.1202
57992SOL    HW185701   3.161  13.532   5.563  0.8666 -0.0341 -0.8484
57992SOL    HW285702   3.261  13.508   5.674 -0.9900  1.2288  1.1592
57993SOL     OW85703   2.846   8.661   9.048  0.0666 -0.3618 -0.5454
57993SOL    HW185704   2.852   8.661   8.953 -1.4648  0.3563 -0.6588
57993SOL    HW285705   2.758   8.691   9.067  0.4852 -0.0924  1.1225
57994SOL     OW85706   5.612   7.027   5.634  0.4525  0.1745 -0.5641
57994SOL    HW185707   5.684   7.053   5.576  1.3306 -0.2947  0.2828
57994SOL    HW285708   5.638   7.061   5.719 -0.7749  0.7660 -0.4130
57995SOL     OW85709   2.767  11.210  10.584 -0.1288  0.3772  0.1121
57995SOL    HW185710   2.788  11.179  10.496  0.3394  0.0360  0.3351
57995SOL    HW285711   2.676  11.183  10.598 -0.4500  1.0714 -0.5304
57996SOL     OW85712   1.817   7.790  11.021  0.3761 -0.7509  0.0216
57996SOL    HW185713   1.867   7.857  10.974 -2.1563  1.1981 -0.0971
57996SOL    HW285714   1.827   7.814  11.113 -1.1098  0.3248 -0.0565
57997SOL     OW85715  13.141   6.165   5.581 -0.3115  0.0104 -0.6797
57997SOL    HW185716  13.060   6.117   5.599 -0.5129  1.2289  2.2035
57997SOL    HW285717  13.133   6.193   5.489 -3.0811 -0.0803 -0.5393
57998SOL     OW85718   4.010  13.124   1.894  0.3298  0.0511 -0.4455
57998SOL    HW185719   3.953  13.061   1.938 -0.0919 -1.5276 -3.0595
57998SOL    HW285720   4.098  13.104   1.928 -0.0128 -0.8924 -0.0802
57999SOL     OW85721  10.938  10.870   3.854 -0.5428  0.1035  0.2456
57999SOL    HW185722  10.874  10.913   3.910 -0.3868  2.0092 -0.9404
57999SOL    HW285723  10.908  10.887   3.765  1.4798  0.9597 -0.3464
58000SOL     OW85724   3.211   7.953   1.355  0.6339  0.4731  0.0727
58000SOL    HW185725   3.179   7.932   1.267  3.3650 -1.4031 -0.6025
58000SOL    HW285726   3.175   8.039   1.374 -1.7912  0.0319 -1.9513
58001SOL     OW85727   1.531   1.785   8.889 -0.1262 -0.5470 -0.1596
58001SOL    HW185728   1.502   1.753   8.803 -0.3377  0.0254 -0.2993
58001SOL    HW285729   1.505   1.716   8.950  1.0761 -1.5218 -0.6946
58002SOL     OW85730   4.551   7.373   3.567 -0.5582 -0.5552 -0.1196
58002SOL    HW185731   4.529   7.287   3.532 -0.8454 -0.1356 -0.9974
58002SOL    HW285732   4.471   7.403   3.611 -0.5567 -0.6136 -0.0784
58003SOL     OW85733   9.643   4.886  12.418 -0.2643 -0.3772  0.0008
58003SOL    HW185734   9.666   4.900  12.326 -1.3594 -0.4410 -0.2955
58003SOL    HW285735   9.590   4.963  12.440  0.6595  0.0495  0.8307
58004SOL     OW85736   1.415  10.945   1.364  0.1741 -0.2642 -0.0038
58004SOL    HW185737   1.406  10.850   1.368 -1.2067 -0.1509  0.1227
58004SOL    HW285738   1.336  10.979   1.405  1.8843  0.9848  2.5175
58005SOL     OW85739   7.971  10.501   7.167  0.2278 -0.3371  0.1867
58005SOL    HW185740   7.968  10.539   7.079  0.4776  0.6752  0.5978
58005SOL    HW285741   8.060  10.518   7.198  0.3602 -1.3144  0.3745
58006SOL     OW85742   3.942   8.504   2.231 -0.2709  0.3539 -0.0982
58006SOL    HW185743   4.014   8.498   2.169 -1.1660 -1.7851 -1.0028
58006SOL    HW285744   3.979   8.474   2.314  0.4187  1.3828 -0.0123
58007SOL     OW85745   6.312   1.961   5.255  0.9470 -0.0935 -0.3500
58007SOL    HW185746   6.399   1.966   5.293  1.0009  0.9080 -0.5739
58007SOL    HW285747   6.301   1.869   5.231  1.4152 -0.4880  0.8748
58008SOL     OW85748   5.491   5.217  10.773 -0.3106 -0.3272  0.3740
58008SOL    HW185749   5.524   5.258  10.693 -0.3993 -1.6634 -0.3641
58008SOL    HW285750   5.398   5.240  10.775 -0.0891  0.6153  0.6901
58009SOL     OW85751   5.483   7.528   7.810  0.3326  0.0266 -0.3667
58009SOL    HW185752   5.412   7.464   7.807  0.0132 -0.2141  4.4848
58009SOL    HW285753   5.556   7.486   7.765 -1.3410 -1.4729 -1.8126
58010SOL     OW85754   3.038  12.203   7.684  0.6525  0.2391  0.3888
58010SOL    HW185755   3.052  12.108   7.684  0.1373  0.1088 -2.1711
58010SOL    HW285756   3.125  12.239   7.702  1.1665 -0.7036 -0.0940
58011SOL     OW85757   5.472  13.707  10.891 -0.1335 -0.0780  0.0630
58011SOL    HW185758   5.457  13.796  10.860 -1.8085  0.0008  0.9642
58011SOL    HW285759   5.440  13.707  10.981 -0.2094 -1.5990  0.0618
58012SOL     OW85760  13.404   6.318   7.873 -0.3748  0.0736 -0.1691
58012SOL    HW185761  13.457   6.375   7.818 -0.0500 -1.6832 -1.7695
58012SOL    HW285762  13.327   6.371   7.895 -0.6568  0.7741 -2.5815
58013SOL     OW85763   0.340   7.202  13.006  0.0452 -0.0267 -0.0633
58013SOL    HW185764   0.391   7.169  12.932  0.5577  1.5590 -0.4642
58013SOL    HW285765   0.404   7.238  13.067 -0.3812 -1.2558  1.1579
58014SOL     OW85766   3.124   0.122   2.489 -0.7094  0.2500  0.4047
58014SOL    HW185767   3.088   0.036   2.469  0.2864 -0.3499  1.1508
58014SOL    HW285768   3.115   0.131   2.584 -0.8611  1.0018  0.3277
58015SOL     OW85769  11.057   6.506   0.703 -0.0545 -0.3232 -0.3006
58015SOL    HW185770  11.081   6.539   0.617 -2.0776  1.1588 -0.3681
58015SOL    HW285771  10.980   6.451   0.688 -1.3309  1.0880  0.6186
58016SOL     OW85772   7.513  11.470  13.412  0.2480 -0.4503  0.4143
58016SOL    HW185773   7.579  11.477  13.343  0.5683  1.0357  0.8323
58016SOL    HW285774   7.559  11.498  13.492 -1.3343  2.5943  0.4002
58017SOL     OW85775   6.837   7.290   4.280  0.1707  0.2772  0.2845
58017SOL    HW185776   6.748   7.319   4.304 -0.9084 -0.2206 -2.7201
58017SOL    HW285777   6.828   7.196   4.264  1.1756  0.2741 -0.3047
58018SOL     OW85778  11.551   8.039   6.257 -0.0242 -0.3096 -0.0117
58018SOL    HW185779  11.530   8.090   6.335  0.5337 -0.6195  0.3514
58018SOL    HW285780  11.475   7.982   6.245  1.3911 -3.0242  2.6118
58019SOL     OW85781   6.741   0.535  10.266  0.6023  0.0447 -0.1535
58019SOL    HW185782   6.749   0.566  10.356  1.0919 -0.2997 -0.0770
58019SOL    HW285783   6.651   0.503  10.259  0.4625  0.3711  0.1132
58020SOL     OW85784   6.106   4.863   8.521 -0.5354 -0.2271 -0.0022
58020SOL    HW185785   6.172   4.931   8.538 -1.1856  0.1226  1.3072
58020SOL    HW285786   6.156   4.783   8.509  0.1389 -0.0054  1.1742
58021SOL     OW85787  11.919   1.742   2.744 -0.0972 -0.2795 -0.1542
58021SOL    HW185788  11.989   1.690   2.784  0.7267 -0.6130 -1.9429
58021SOL    HW285789  11.947   1.833   2.756 -0.4636 -0.3080  1.0510
58022SOL     OW85790   0.081   9.632  12.588  0.5774 -0.1571  0.3571
58022SOL    HW185791   0.149   9.610  12.651  0.0540  0.8032  1.2892
58022SOL    HW285792   0.004   9.650  12.641  0.2285  1.0752 -0.5209
58023SOL     OW85793  11.752   1.928   3.957 -0.1305  0.0460 -0.6833
58023SOL    HW185794  11.660   1.901   3.955 -0.7808  1.9767  0.4923
58023SOL    HW285795  11.765   1.977   3.875 -1.1316  2.4884  0.5116
58024SOL     OW85796   9.939   4.730   0.088 -0.5114  0.0809  0.0145
58024SOL    HW185797   9.890   4.809   0.109 -0.9054  0.0292 -0.6709
58024SOL    HW285798  10.028   4.748   0.119 -0.1761  1.4618 -1.5604
58025SOL     OW85799   7.291   5.029   9.650  0.1965 -0.3972 -0.2441
58025SOL    HW185800   7.369   4.974   9.665 -0.9201 -2.4037 -1.4130
58025SOL    HW285801   7.323   5.099   9.593  1.9009  0.9062  2.1254
58026SOL     OW85802  10.733   5.689  11.856  0.0588  0.5757 -0.6976
58026SOL    HW185803  10.778   5.756  11.908  1.4601 -0.1425 -0.9263
58026SOL    HW285804  10.683   5.739  11.791 -1.9966  1.5192  1.4293
58027SOL     OW85805   4.486   4.287   9.727 -0.3383 -0.9695  0.0719
58027SOL    HW185806   4.558   4.229   9.703  1.0423  1.7155 -3.0003
58027SOL    HW285807   4.441   4.306   9.644 -1.0652  1.7960  0.9686
58028SOL     OW85808  12.573   2.365  10.135 -0.0622 -0.0438  0.5354
58028SOL    HW185809  12.508   2.427  10.100  0.0211 -0.2590 -0.0089
58028SOL    HW285810  12.653   2.417  10.143 -0.3273  0.2520  1.3152
58029SOL     OW85811   4.578   8.357  12.381  0.1501  0.0010  0.1627
58029SOL    HW185812   4.556   8.442  12.419  1.2075 -0.0946  1.0364
58029SOL    HW285813   4.605   8.377  12.291  0.8911  0.6735  0.5164
58030SOL     OW85814   9.653   9.067   5.280  0.0423  0.0096  0.1679
58030SOL    HW185815   9.595   8.991   5.281  0.4806 -0.3933 -1.5618
58030SOL    HW285816   9.627   9.117   5.203 -1.0707  2.3462  1.9473
58031SOL     OW85817   9.183  12.707  12.173 -0.2133 -0.2117  0.0540
58031SOL    HW185818   9.121  12.649  12.216 -1.1817  1.1211  0.4962
58031SOL    HW285819   9.265  12.694  12.220 -0.1162 -1.9969 -0.5457
58032SOL     OW85820   0.925   5.893  12.134 -0.0273 -1.4461 -0.3190
58032SOL    HW185821   0.948   5.898  12.227 -0.3419 -2.3381 -0.1773
58032SOL    HW285822   0.831   5.875  12.135 -0.7884  1.8672 -0.8694
58033SOL     OW85823   0.066   5.695   7.428  0.0854  0.1353  0.3535
58033SOL    HW185824   0.126   5.664   7.359 -2.0158  1.5284 -2.2707
58033SOL    HW285825   0.001   5.626   7.436  0.2281  0.0543  0.8902
58034SOL     OW85826   1.473  10.371   9.002  0.3229  0.6474  0.8269
58034SOL    HW185827   1.563  10.386   8.973 -0.2675  0.1958 -1.3986
58034SOL    HW285828   1.472  10.279   9.030  0.2613  0.2521 -0.4220
58035SOL     OW85829   5.374  11.825   2.554 -0.2144 -0.2889  0.4640
58035SOL    HW185830   5.430  11.902   2.558 -0.1478 -0.3560  0.8256
58035SOL    HW285831   5.418  11.766   2.492 -0.5162  0.1610 -0.1950
58036SOL     OW85832  10.116   7.149   7.152 -0.1258  0.0617 -0.3758
58036SOL    HW185833  10.118   7.087   7.079  0.0359  0.2352 -0.5214
58036SOL    HW285834  10.192   7.127   7.205 -0.7479 -0.6509  0.2381
58037SOL     OW85835   7.756   7.568   9.914 -0.2311  0.4039 -0.5685
58037SOL    HW185836   7.833   7.606   9.956 -0.3187  1.6750 -1.5091
58037SOL    HW285837   7.768   7.473   9.923 -0.2383  0.5686  2.2813
58038SOL     OW85838   4.242  12.469  11.775 -0.1190  0.3210  0.0114
58038SOL    HW185839   4.228  12.552  11.821 -0.4915 -0.2421  0.9440
58038SOL    HW285840   4.330  12.477  11.737  0.6130  0.4485  1.6495
58039SOL     OW85841   1.776   7.644   6.345  0.0501  0.3679  0.0537
58039SOL    HW185842   1.738   7.557   6.353 -1.7806  0.7113 -3.2085
58039SOL    HW285843   1.701   7.704   6.351  0.9446  1.5542 -0.1158
58040SOL     OW85844   6.571  10.471   7.139  0.1788  0.3731  0.0632
58040SOL    HW185845   6.636  10.532   7.106 -1.5970  2.2703 -0.0884
58040SOL    HW285846   6.525  10.518   7.208 -3.1997  0.4421 -1.9874
58041SOL     OW85847   0.541  11.900  10.632  0.0362 -0.5583 -0.0619
58041SOL    HW185848   0.519  11.962  10.563  0.4767  1.3447  1.4221
58041SOL    HW285849   0.614  11.848  10.597 -0.4097 -0.3242 -1.3671
58042SOL     OW85850   2.190  12.422  13.185 -0.4965 -0.3481 -0.1746
58042SOL    HW185851   2.254  12.374  13.237 -0.9048 -1.4690 -0.6646
58042SOL    HW285852   2.151  12.484  13.246 -0.9109 -1.5676  0.8559
58043SOL     OW85853   3.046   7.345  11.530  0.2223 -0.4304 -0.1845
58043SOL    HW185854   3.085   7.408  11.589  0.7365 -1.2504  0.3696
58043SOL    HW285855   3.108   7.272  11.528  1.3964  0.4770 -3.5096
58044SOL     OW85856   8.247  11.922  11.031  0.1179 -0.4372  0.1244
58044SOL    HW185857   8.220  11.935  10.940  0.5023 -1.1735 -0.1015
58044SOL    HW285858   8.177  11.868  11.069  0.0188 -0.2325  0.2376
58045SOL     OW85859  12.799   4.464  10.388  0.5497 -0.0337  0.1154
58045SOL    HW185860  12.787   4.396  10.321  2.6283 -1.4501  1.0900
58045SOL    HW285861  12.893   4.481  10.388  0.2444  1.9001  0.8749
58046SOL     OW85862   9.304  13.593   9.158 -0.2576 -0.0624  0.4429
58046SOL    HW185863   9.390  13.592   9.201 -0.3614 -0.3457  0.6455
58046SOL    HW285864   9.324  13.606   9.065  0.1270 -1.9967  0.2221
58047SOL     OW85865   3.752   9.587   3.851 -0.8902 -0.2447 -0.1071
58047SOL    HW185866   3.771   9.497   3.825 -0.3533  0.2363 -1.4239
58047SOL    HW285867   3.810   9.602   3.926 -0.1117 -0.6119 -0.6174
58048SOL     OW85868  10.199  12.943   5.763  0.2341  0.6893  0.1547
58048SOL    HW185869  10.133  12.977   5.703 -0.1648  1.2324  0.8922
58048SOL    HW285870  10.221  13.017   5.819  2.6369  1.0118 -1.0511
58049SOL     OW85871   4.304   5.538   9.030 -0.3275 -0.4111 -0.7112
58049SOL    HW185872   4.394   5.505   9.027 -0.2732 -0.3647  0.2236
58049SOL    HW285873   4.313   5.631   9.011 -0.1911 -0.4282 -0.7368
58050SOL     OW85874   4.646   5.095   9.324  0.1245  0.9850 -0.2294
58050SOL    HW185875   4.593   5.174   9.340 -1.1895  0.0425  0.3041
58050SOL    HW285876   4.603   5.052   9.250 -2.1801 -1.6192  2.3573
58051SOL     OW85877   7.007  12.675  10.880 -0.0038 -0.3485 -1.6637
58051SOL    HW185878   7.060  12.604  10.842  0.0197 -1.4214  0.2417
58051SOL    HW285879   6.970  12.636  10.959  0.0703  1.8254 -0.5117
58052SOL     OW85880   5.266   3.196  10.992 -0.5682  0.2134 -0.2401
58052SOL    HW185881   5.308   3.180  11.077  1.3088  1.9754 -0.7506
58052SOL    HW285882   5.265   3.111  10.949 -1.5120 -0.7060  1.4958
58053SOL     OW85883   1.798   2.980  10.027  0.1714 -0.1334  0.7343
58053SOL    HW185884   1.706   2.968  10.053  0.3031 -0.1736  1.1938
58053SOL    HW285885   1.848   2.943  10.100  0.5693 -2.7616 -0.7614
58054SOL     OW85886   1.317   6.443  11.437  0.3310 -0.6009 -0.3056
58054SOL    HW185887   1.257   6.452  11.511 -0.1057  1.2255 -0.8427
58054SOL    HW285888   1.260   6.434  11.361  0.7467  0.2597 -0.7214
58055SOL     OW85889   9.628   5.726   7.911 -0.4981 -0.8437 -0.2860
58055SOL    HW185890   9.563   5.721   7.981  0.4349  0.1416  0.6822
58055SOL    HW285891   9.592   5.790   7.849 -0.0453  0.3982  0.7091
58056SOL     OW85892   5.279   6.058  12.012 -0.6082  0.1089  0.0152
58056SOL    HW185893   5.215   6.039  11.944 -0.7462  1.6808 -0.3258
58056SOL    HW285894   5.308   6.147  11.994  2.1782 -0.7555 -0.2332
58057SOL     OW85895   8.361  10.436   3.359 -0.3262  0.3477 -0.0904
58057SOL    HW185896   8.357  10.341   3.345  0.1053  0.1641  0.9447
58057SOL    HW285897   8.424  10.447   3.430 -2.4127  1.1780  1.7769
58058SOL     OW85898  10.401   4.388  13.241  0.4560 -0.2392 -0.6178
58058SOL    HW185899  10.361   4.410  13.157 -2.3862 -1.6635  0.2315
58058SOL    HW285900  10.452   4.309  13.223  0.1020 -0.3721 -1.0725
58059SOL     OW85901   3.575   9.842  11.055 -0.2072 -0.7624  0.0000
58059SOL    HW185902   3.629   9.860  11.132  1.6001 -1.1557 -1.1069
58059SOL    HW285903   3.589   9.749  11.037  0.4754 -0.3861 -1.5593
58060SOL     OW85904  13.162   0.582  10.549 -0.1051 -0.0818  0.2164
58060SOL    HW185905  13.159   0.490  10.576 -0.3018 -0.0795  0.2025
58060SOL    HW285906  13.255   0.600  10.537 -0.0790 -0.3314  0.0350
58061SOL     OW85907   1.330   0.875  13.463  0.4840 -0.4496 -0.0355
58061SOL    HW185908   1.395   0.944  13.450  0.6440 -0.4928  0.5304
58061SOL    HW285909   1.381   0.794  13.470  0.3017 -0.6198 -0.6184
58062SOL     OW85910  12.797   5.183  12.803  0.2310 -0.4367  0.2701
58062SOL    HW185911  12.852   5.114  12.840  1.7775  0.7177  0.2725
58062SOL    HW285912  12.752   5.222  12.877 -0.1422 -1.0280  0.3507
58063SOL     OW85913  13.454   9.131  12.052  0.0148 -0.4493 -0.3074
58063SOL    HW185914  13.451   9.103  12.143 -0.2637 -0.3754 -0.2931
58063SOL    HW285915  13.389   9.077  12.008  0.9646 -1.3128 -0.6909
58064SOL     OW85916   3.169   7.934   0.410  0.1700  0.0947  0.2186
58064SOL    HW185917   3.163   7.893   0.324 -1.0753 -2.2197  1.3038
58064SOL    HW285918   3.230   7.879   0.459 -0.8172  0.0305  1.4471
58065SOL     OW85919   3.454   3.762   0.112 -0.0830 -0.3261  0.0111
58065SOL    HW185920   3.535   3.780   0.160  0.6525 -1.9768 -0.5441
58065SOL    HW285921   3.423   3.679   0.147 -1.2871  0.0293 -0.1502
58066SOL     OW85922  13.223  10.734  12.739 -0.2653  0.5284 -0.3681
58066SOL    HW185923  13.220  10.643  12.771  0.5038  0.7311  0.3054
58066SOL    HW285924  13.202  10.727  12.646 -0.7687 -0.2779 -0.2085
58067SOL     OW85925   1.649   2.880   6.157 -0.2434  0.5504  0.0035
58067SOL    HW185926   1.743   2.869   6.172 -0.3204 -1.0806 -0.5168
58067SOL    HW285927   1.632   2.972   6.177  1.9000  1.5425 -2.2367
58068SOL     OW85928   7.402   6.496   6.905 -0.7312 -0.2587  0.3932
58068SOL    HW185929   7.489   6.486   6.866 -0.8111 -1.9206  0.5521
58068SOL    HW285930   7.414   6.470   6.996 -1.0126  1.4348  0.9401
58069SOL     OW85931  11.603   1.607   0.487  0.0585  0.1684  0.1681
58069SOL    HW185932  11.594   1.553   0.408 -1.5548 -1.5291  1.4089
58069SOL    HW285933  11.542   1.680   0.474  0.5574  0.4509 -0.5810
58070SOL     OW85934  13.079  13.375   4.965  0.9650  0.0972  0.5495
58070SOL    HW185935  13.053  13.462   4.997  0.6690  0.2284 -0.0219
58070SOL    HW285936  13.157  13.353   5.015  0.4521  0.2513  1.4242
58071SOL     OW85937   6.176  13.713  10.534 -0.1032 -0.1537  0.4777
58071SOL    HW185938   6.149  13.624  10.514 -1.8568  0.2957  0.7289
58071SOL    HW285939   6.134  13.766  10.467  0.1972  0.5906  0.8638
58072SOL     OW85940  10.329   6.635   7.187  0.0017 -0.1327 -0.3420
58072SOL    HW185941  10.386   6.701   7.226 -2.0882  0.9763  1.0270
58072SOL    HW285942  10.346   6.555   7.237 -1.7496  0.9634  2.1738
58073SOL     OW85943   6.477   8.915  10.824 -0.6562 -0.0995 -0.4851
58073SOL    HW185944   6.483   8.921  10.920  1.1281 -1.2084 -0.4958
58073SOL    HW285945   6.537   8.982  10.792  1.4241 -2.0133 -0.7600
58074SOL     OW85946   4.894   7.089  13.182  0.1319 -0.5511  0.2958
58074SOL    HW185947   4.963   7.050  13.128  0.7676 -0.9945  1.3827
58074SOL    HW285948   4.938   7.160  13.230 -0.3699 -0.2827  0.3635
58075SOL     OW85949  10.453  10.177  13.491 -0.1753 -0.5230  0.0438
58075SOL    HW185950  10.409  10.220  13.418 -1.2758 -0.5319  0.6876
58075SOL    HW285951  10.384  10.131  13.537  0.6670 -1.3328  0.5338
58076SOL     OW85952  12.142   1.318  12.226 -0.4797  0.0754  0.6881
58076SOL    HW185953  12.077   1.303  12.294 -0.6412  3.7291  1.5188
58076SOL    HW285954  12.165   1.411  12.234  1.1014  0.1492 -2.8534
58077SOL     OW85955   6.984   3.133   5.646 -0.3792 -0.4030  0.4991
58077SOL    HW185956   7.023   3.143   5.733 -0.0274  0.4943  0.2438
58077SOL    HW285957   7.057   3.145   5.586 -0.9220  0.7130  0.0324
58078SOL     OW85958  10.879   0.742  10.393 -0.2239 -0.1266  0.1565
58078SOL    HW185959  10.920   0.665  10.433  0.4003  0.1633  0.0960
58078SOL    HW285960  10.804   0.707  10.345 -0.7615 -0.5248  1.2654
58079SOL     OW85961   0.107   6.759   8.277 -0.4328  0.5673 -0.2393
58079SOL    HW185962   0.020   6.735   8.243 -0.4375  0.6121 -0.2606
58079SOL    HW285963   0.093   6.842   8.322 -1.0318 -0.9082  2.4741
58080SOL     OW85964   3.966   0.191   9.043 -0.1105 -0.4578 -0.5251
58080SOL    HW185965   3.952   0.114   8.989  0.4633 -1.1119  0.2163
58080SOL    HW285966   3.895   0.188   9.107 -2.0802  1.5048 -2.4710
58081SOL     OW85967   7.317   8.432   6.737  0.2129  0.0163 -0.5394
58081SOL    HW185968   7.239   8.388   6.770 -0.5630  0.9982 -1.0034
58081SOL    HW285969   7.292   8.462   6.649  1.6711 -1.0848 -1.3560
58082SOL     OW85970   5.654   8.847   3.860  0.2130  0.0319  0.0810
58082SOL    HW185971   5.735   8.845   3.911  0.2875  2.2580  0.1685
58082SOL    HW285972   5.682   8.830   3.770  0.7311  0.3174  0.1832
58083SOL     OW85973   3.143   1.018   2.997 -0.3824  0.3036 -0.0685
58083SOL    HW185974   3.207   1.080   3.033  0.6584 -0.3811 -0.6881
58083SOL    HW285975   3.136   1.043   2.905 -0.8233  0.2144 -0.0574
58084SOL     OW85976   5.180   1.351   2.846  0.6769  0.1004  0.4812
58084SOL    HW185977   5.163   1.437   2.808 -0.7586 -0.8918 -1.3036
58084SOL    HW285978   5.112   1.341   2.913 -1.2396 -0.8134 -1.4608
58085SOL     OW85979   1.587   2.779  11.705 -0.1793  0.1837  0.0087
58085SOL    HW185980   1.587   2.747  11.615 -1.3660 -1.6846  0.6265
58085SOL    HW285981   1.504   2.826  11.713 -0.5856 -0.5956  0.4284
58086SOL     OW85982   9.278  13.414   1.054 -0.2737  0.1076 -0.3275
58086SOL    HW185983   9.260  13.335   1.104 -0.3184  1.3180  1.7057
58086SOL    HW285984   9.374  13.419   1.052 -0.1733  1.6209  2.4984
58087SOL     OW85985   6.218   8.919   6.421  0.4554 -0.4641 -0.2214
58087SOL    HW185986   6.219   8.910   6.326  1.2313 -0.8211 -0.1845
58087SOL    HW285987   6.309   8.931   6.445  0.1834  0.4509  0.4101
58088SOL     OW85988  11.224  13.190   8.480  0.1955 -0.3358 -0.6186
58088SOL    HW185989  11.225  13.234   8.565  2.8250 -2.8473  0.8272
58088SOL    HW285990  11.310  13.148   8.473 -1.0625 -2.8630 -3.0862
58089SOL     OW85991   8.059  12.447   3.961 -0.0708 -0.1100  0.6722
58089SOL    HW185992   8.059  12.511   3.890  1.2806  1.1808  1.7653
58089SOL    HW285993   7.993  12.479   4.022  1.2960  0.8608  1.6967
58090SOL     OW85994  10.241   8.247   8.731 -0.2058 -0.8578  0.3849
58090SOL    HW185995  10.192   8.265   8.651 -0.8425  1.1962  1.1879
58090SOL    HW285996  10.329   8.279   8.714 -0.0789 -1.2942  0.1947
58091SOL     OW85997  10.117   6.559   6.670  0.6436 -0.1259  0.8391
58091SOL    HW185998  10.113   6.563   6.575  1.3422  0.3184  0.8196
58091SOL    HW285999  10.028   6.539   6.698  0.3745  0.0485  0.1090
58092SOL     OW86000  13.672  11.970   6.221  0.1191 -0.0000 -0.7575
58092SOL    HW186001  13.759  11.957   6.183  0.2641  0.7297 -0.6796
58092SOL    HW286002  13.645  12.057   6.191 -0.5478 -0.1827 -0.7051
58093SOL     OW86003   5.584   5.381   0.620  0.1108  0.1693  0.0698
58093SOL    HW186004   5.511   5.439   0.643  0.3719  0.3849  0.3679
58093SOL    HW286005   5.620   5.420   0.540 -1.3346 -1.0670 -1.2624
58094SOL     OW86006   2.718   5.715   9.388  0.1914 -0.2950  0.0773
58094SOL    HW186007   2.723   5.693   9.481 -0.6702 -0.4545  0.0958
58094SOL    HW286008   2.796   5.769   9.372  0.3861 -0.3269  0.8700
58095SOL     OW86009   3.644   9.867   6.246 -0.3747  0.2318  0.1788
58095SOL    HW186010   3.651   9.776   6.217 -0.9512 -0.1444  1.1617
58095SOL    HW286011   3.722   9.909   6.212 -0.3732 -0.4955 -0.7623
58096SOL     OW86012   5.824  10.569   5.833 -0.4157 -0.0532  0.6096
58096SOL    HW186013   5.890  10.548   5.899 -0.7496 -1.1589  0.6075
58096SOL    HW286014   5.859  10.646   5.788 -0.4956  1.1484  2.5000
58097SOL     OW86015  13.581   2.160   8.474  0.0467 -0.4350  0.1714
58097SOL    HW186016  13.606   2.251   8.460  0.6084 -0.5684  0.2929
58097SOL    HW286017  13.642   2.110   8.419  1.3312 -0.8876  1.9482
58098SOL     OW86018   6.414   4.357  11.772 -0.4785 -0.1846  0.3119
58098SOL    HW186019   6.388   4.430  11.716 -0.7800 -0.8763 -0.4718
58098SOL    HW286020   6.351   4.288  11.752  0.2812 -0.9320  0.4419
58099SOL     OW86021   2.174  11.648   3.692  0.6239 -0.1080 -0.4356
58099SOL    HW186022   2.215  11.567   3.660  0.3113 -1.0274  1.3800
58099SOL    HW286023   2.112  11.619   3.758 -0.6262  1.5334 -0.8337
58100SOL     OW86024   2.699   8.631  12.532  0.3580 -0.3274 -0.5734
58100SOL    HW186025   2.779   8.679  12.510  2.2207 -1.5440  2.6873
58100SOL    HW286026   2.705   8.617  12.627 -1.8533 -3.7537 -0.7455
58101SOL     OW86027  11.780   1.104   7.714  0.6849  0.2926  0.1631
58101SOL    HW186028  11.713   1.048   7.753 -0.1454  1.5834  0.6556
58101SOL    HW286029  11.809   1.056   7.636  0.2150 -0.9359  0.7200
58102SOL     OW86030  11.572   5.158  11.255 -0.3557  0.2074 -0.4528
58102SOL    HW186031  11.500   5.166  11.192 -0.6053  1.1037 -0.0795
58102SOL    HW286032  11.536   5.194  11.336 -1.4119 -4.4549  1.4746
58103SOL     OW86033   8.331   6.753  13.093  0.4611 -0.1515 -0.1549
58103SOL    HW186034   8.307   6.661  13.082  0.4602 -0.2919  0.9109
58103SOL    HW286035   8.297   6.796  13.015 -2.7408 -0.4442  0.8878
58104SOL     OW86036   0.672   1.870  12.853  0.3592  0.1192  0.1408
58104SOL    HW186037   0.762   1.877  12.887  0.7053  1.3731 -0.9406
58104SOL    HW286038   0.673   1.923  12.774 -1.3967  0.2674  0.1959
58105SOL     OW86039  11.284   3.826  12.559 -0.2706  0.3591 -0.4378
58105SOL    HW186040  11.245   3.770  12.626 -0.9524  1.7788  0.4126
58105SOL    HW286041  11.377   3.806  12.562 -0.6265 -1.5831 -1.0256
58106SOL     OW86042   2.310  11.015  11.629 -0.0038  0.1807 -0.2999
58106SOL    HW186043   2.241  11.013  11.696  1.1131  1.4254  0.9591
58106SOL    HW286044   2.313  10.926  11.595 -1.1782 -0.2742  0.7108
58107SOL     OW86045  10.739   0.332   2.700  0.0737  0.3633  0.7054
58107SOL    HW186046  10.730   0.357   2.608 -0.1201  1.4177  0.9972
58107SOL    HW286047  10.687   0.252   2.708 -2.0251  1.6064  0.4210
58108SOL     OW86048  11.952   8.288   6.836  0.6154 -0.0143 -0.1305
58108SOL    HW186049  11.954   8.380   6.811  0.2080  0.1751  0.5086
58108SOL    HW286050  11.927   8.288   6.928 -0.4962 -0.8087 -0.4009
58109SOL     OW86051   3.534   6.876  10.961  1.1995 -0.1408  0.3572
58109SOL    HW186052   3.557   6.948  11.019 -0.9783 -0.8577  2.2140
58109SOL    HW286053   3.581   6.800  10.997  3.1963  0.1632 -1.3803
58110SOL     OW86054   7.463   2.224   4.279  0.0811  0.7036 -0.1197
58110SOL    HW186055   7.527   2.235   4.209  0.9978 -2.7332 -0.0095
58110SOL    HW286056   7.513   2.184   4.351 -1.4266  1.4632  1.4090
58111SOL     OW86057   3.055   3.820  10.021 -0.2789 -0.3232  0.0634
58111SOL    HW186058   3.132   3.852   9.973 -0.3394  0.9093  0.7527
58111SOL    HW286059   3.089   3.753  10.080  0.4418  0.7589  0.9289
58112SOL     OW86060   3.697   3.734  11.654  0.2740  0.0976 -0.6640
58112SOL    HW186061   3.708   3.814  11.602  0.2393  0.4649 -0.1238
58112SOL    HW286062   3.786   3.711  11.682  0.2934 -0.0999 -0.8932
58113SOL     OW86063   8.841   0.431  13.066  0.0937 -0.0539  0.2961
58113SOL    HW186064   8.779   0.499  13.091 -0.3794 -0.5289  0.4159
58113SOL    HW286065   8.839   0.368  13.137  1.6126  0.5078  0.8910
58114SOL     OW86066   5.648  11.429   5.841 -0.1362 -0.4567  0.1974
58114SOL    HW186067   5.558  11.423   5.809 -0.5906 -0.6885  1.4646
58114SOL    HW286068   5.691  11.490   5.781 -1.6113  1.0092  0.5730
58115SOL     OW86069   7.137  10.077   9.021 -0.0606  0.1868  0.1837
58115SOL    HW186070   7.095  10.004   8.976 -1.4978  0.5396  0.9130
58115SOL    HW286071   7.105  10.155   8.977 -1.5178  0.5427  1.7741
58116SOL     OW86072  12.045   7.872  10.356 -0.6028 -0.0152 -0.4509
58116SOL    HW186073  12.054   7.954  10.406  0.6664  0.0452 -0.7397
58116SOL    HW286074  12.135   7.848  10.333 -0.8987 -1.7304 -0.0044
58117SOL     OW86075  13.021   5.452  12.388  0.6134  0.4102  0.1414
58117SOL    HW186076  13.021   5.401  12.469 -0.3793  0.8464  0.4266
58117SOL    HW286077  13.114   5.466  12.369  0.8612  0.9200  1.5966
58118SOL     OW86078   2.048   4.207   2.646 -0.3582  0.0759 -0.2642
58118SOL    HW186079   2.099   4.127   2.635 -0.8381 -0.2690  0.0097
58118SOL    HW286080   1.959   4.184   2.619 -0.3449  0.7262 -0.9269
58119SOL     OW86081   2.558   3.138   9.807  0.0760  0.0511 -0.1955
58119SOL    HW186082   2.583   3.141   9.714 -0.1716 -0.9884 -0.3082
58119SOL    HW286083   2.631   3.091   9.849  0.3679  0.8481  0.2079
58120SOL     OW86084   0.528   7.242  13.670 -0.1201 -0.0901 -0.3092
58120SOL    HW186085   0.523   7.208  13.580 -0.0286  1.1450 -0.7923
58120SOL    HW286086   0.445   7.215  13.709 -0.0781 -0.8134 -0.6882
58121SOL     OW86087   4.524  10.372  10.873  0.3212  0.1300  0.4165
58121SOL    HW186088   4.489  10.369  10.962 -0.4346  0.2070  0.1317
58121SOL    HW286089   4.489  10.453  10.837 -2.0183 -1.4019 -0.9932
58122SOL     OW86090   9.722   4.553   9.999 -0.0297 -0.3848  0.3990
58122SOL    HW186091   9.747   4.474   9.952 -1.8972  0.0260 -1.4447
58122SOL    HW286092   9.626   4.553   9.997 -0.0868  1.4492  1.1379
58123SOL     OW86093  12.718  13.649   6.297  0.3452  0.1758  0.1247
58123SOL    HW186094  12.781  13.586   6.261 -0.7812 -0.9514  0.0469
58123SOL    HW286095  12.658  13.666   6.224 -1.3309 -1.3070  1.0808
58124SOL     OW86096   2.905   7.505   7.262 -0.4048  0.0139 -0.1213
58124SOL    HW186097   2.811   7.517   7.249 -0.4708  0.7487  0.9295
58124SOL    HW286098   2.922   7.415   7.233 -1.1560  0.3365 -1.6987
58125SOL     OW86099   1.451   7.754   3.505  0.1668  0.2536 -0.1759
58125SOL    HW186100   1.409   7.766   3.590 -1.3354  1.7384 -1.0730
58125SOL    HW286101   1.539   7.790   3.516 -0.0911  0.6442  0.6794
58126SOL     OW86102   7.415  12.018  10.897 -0.2048 -0.5246  0.2552
58126SOL    HW186103   7.475  11.956  10.939  0.2873  0.5096  1.1095
58126SOL    HW286104   7.342  11.963  10.867 -0.7338 -1.3175  2.7199
58127SOL     OW86105  10.499   4.235   4.234 -0.1123 -0.3974 -0.1691
58127SOL    HW186106  10.505   4.140   4.225  0.1840 -0.6322  2.0135
58127SOL    HW286107  10.406   4.254   4.233 -0.1604 -0.5698 -1.4736
58128SOL     OW86108  11.781   2.927   7.414 -0.2900  0.1396  0.1607
58128SOL    HW186109  11.815   2.911   7.326 -0.7558 -0.5779  0.1021
58128SOL    HW286110  11.851   2.898   7.473  0.1892  1.0090  0.0333
58129SOL     OW86111   1.952   5.129   7.197  0.4259  0.2366 -0.3426
58129SOL    HW186112   1.886   5.108   7.131 -0.2114  0.1064  0.3168
58129SOL    HW286113   2.036   5.119   7.152  0.0910 -1.7430 -0.6289
58130SOL     OW86114  10.472   2.906   4.310  0.0255  0.1662 -0.5083
58130SOL    HW186115  10.547   2.885   4.255  2.3932  1.2109  2.0776
58130SOL    HW286116  10.506   2.965   4.377 -3.3913  1.6476  0.1843
58131SOL     OW86117  11.160   6.472  10.472 -0.2470 -0.0315  0.0040
58131SOL    HW186118  11.203   6.387  10.464  0.6427  0.3284  0.7618
58131SOL    HW286119  11.090   6.470  10.407  1.8185 -0.0760 -2.3507
58132SOL     OW86120   9.901   9.989   8.535 -0.0069  0.3887  0.4695
58132SOL    HW186121   9.896  10.021   8.445  1.5911  2.1097  0.9330
58132SOL    HW286122   9.815   9.951   8.551 -0.2215 -0.2913 -1.8725
58133SOL     OW86123   3.123   2.470   0.182  0.2992  0.1202  0.5017
58133SOL    HW186124   3.184   2.542   0.166 -1.3760  1.1947 -1.5317
58133SOL    HW286125   3.148   2.403   0.118  0.2389 -0.0311  0.6366
58134SOL     OW86126  11.296   6.836  10.568 -0.0225 -0.4505  0.0006
58134SOL    HW186127  11.260   6.780  10.500 -0.9153 -0.3820  0.4005
58134SOL    HW286128  11.369   6.787  10.604 -0.6732 -1.2863  0.2151
58135SOL     OW86129   3.753   4.044   9.922 -0.0565 -0.0849 -0.2185
58135SOL    HW186130   3.707   4.113   9.970 -2.5042 -2.4796  1.1085
58135SOL    HW286131   3.734   4.062   9.830 -2.4694 -0.1030  0.2133
58136SOL     OW86132   7.301   3.324  10.991 -0.3105  0.4233 -0.1533
58136SOL    HW186133   7.380   3.276  10.966 -0.0175  0.7439  0.1372
58136SOL    HW286134   7.304   3.327  11.086 -0.1812  1.2459 -0.1777
58137SOL     OW86135   3.740   5.598  10.321  0.1311 -0.1913  0.0738
58137SOL    HW186136   3.826   5.636  10.301  0.5204 -1.6038 -1.0772
58137SOL    HW286137   3.683   5.629  10.250  0.0145 -0.3397  0.1029
58138SOL     OW86138   2.258  12.353   5.970  0.2516  0.1021 -0.2612
58138SOL    HW186139   2.211  12.425   5.927  0.3653  0.9065  0.8910
58138SOL    HW286140   2.341  12.393   5.997  0.2271 -0.3918  0.5803
58139SOL     OW86141   5.520   5.224   2.871 -0.1953 -0.1966 -0.3922
58139SOL    HW186142   5.529   5.310   2.911 -1.1282 -0.1762 -0.2054
58139SOL    HW286143   5.602   5.211   2.823 -0.0227  0.7593 -0.3736
58140SOL     OW86144   0.712  10.503  12.067  0.2290  0.4144  0.2044
58140SOL    HW186145   0.777  10.526  12.001 -0.6510  1.7023 -0.2667
58140SOL    HW286146   0.720  10.571  12.134 -0.9056  0.8591 -0.0786
58141SOL     OW86147   3.054   4.242   5.009 -0.5380 -0.4770  0.5026
58141SOL    HW186148   3.031   4.149   5.012 -1.6425 -0.2682 -0.6500
58141SOL    HW286149   2.970   4.287   5.002 -0.0478  0.6616  1.5791
58142SOL     OW86150  10.538   4.465   0.308 -0.0303  0.4691  0.3207
58142SOL    HW186151  10.544   4.370   0.313 -0.6301  0.3307 -1.0645
58142SOL    HW286152  10.617   4.492   0.262 -0.8681  0.3947 -1.2550
58143SOL     OW86153   6.414   8.735   9.494  0.5792  0.3439  0.6131
58143SOL    HW186154   6.347   8.667   9.492 -1.1407  1.9830  0.1539
58143SOL    HW286155   6.482   8.702   9.435  0.2071 -1.3284  1.0436
58144SOL     OW86156   6.612   4.608   9.523 -0.4349  0.1101 -0.7773
58144SOL    HW186157   6.643   4.644   9.606 -1.7514 -0.0347 -0.1984
58144SOL    HW286158   6.600   4.515   9.541 -3.2566  0.4784 -0.2615
58145SOL     OW86159  11.256   3.967   7.492 -0.3358 -0.8549  0.1081
58145SOL    HW186160  11.267   3.872   7.494  0.9585 -0.7356 -0.6272
58145SOL    HW286161  11.294   3.995   7.409 -0.0731  0.3785  0.6152
58146SOL     OW86162  12.621   9.664  12.965  0.0127 -0.0858  0.2446
58146SOL    HW186163  12.637   9.670  12.871  1.3905 -3.6535  0.0748
58146SOL    HW286164  12.704   9.633  13.002 -0.7654  0.2861  2.5105
58147SOL     OW86165   1.988   5.612  13.492  1.0563  0.4708 -0.1855
58147SOL    HW186166   1.947   5.624  13.406 -0.6204  2.3305  0.7693
58147SOL    HW286167   1.915   5.618  13.554  2.3875  0.6017  1.4445
58148SOL     OW86168   0.323   8.311   7.017 -0.4324  0.0492  0.2112
58148SOL    HW186169   0.312   8.383   6.956  0.9832  2.2311  2.3818
58148SOL    HW286170   0.246   8.316   7.074  0.0037  0.2839  0.7843
58149SOL     OW86171   0.692   5.952  12.340 -0.4800  0.4219  0.3291
58149SOL    HW186172   0.681   5.947  12.435 -1.3205 -1.5941  0.1681
58149SOL    HW286173   0.611   5.916  12.304  0.5878 -0.6753 -1.1079
58150SOL     OW86174   9.201   0.087   2.019 -0.1653 -0.1163 -0.4029
58150SOL    HW186175   9.178   0.108   1.928  0.3789 -0.5742 -0.6523
58150SOL    HW286176   9.273   0.146   2.040 -0.4225  0.1276 -0.1985
58151SOL     OW86177   7.597   5.047   1.504 -0.2357 -0.6123  0.0279
58151SOL    HW186178   7.572   5.029   1.414 -0.3355  1.7668 -0.4795
58151SOL    HW286179   7.544   4.986   1.556 -0.4532 -1.7522 -1.4764
58152SOL     OW86180   7.816  11.286   6.875 -0.2547 -0.0380 -0.5909
58152SOL    HW186181   7.868  11.351   6.923  0.8713 -1.6932  0.5327
58152SOL    HW286182   7.872  11.260   6.802 -1.5041  1.6352 -2.2228
58153SOL     OW86183   5.652  11.194   3.556 -0.2954  0.6625 -0.5585
58153SOL    HW186184   5.644  11.249   3.479  0.6002  1.4743 -0.0944
58153SOL    HW286185   5.579  11.133   3.550 -0.3165  0.8063 -1.9654
58154SOL     OW86186  10.187   2.099   4.488  0.3723 -0.1328 -0.2832
58154SOL    HW186187  10.114   2.155   4.512 -0.4549 -1.0918 -0.5057
58154SOL    HW286188  10.249   2.158   4.444  0.0884  0.8299  0.5671
58155SOL     OW86189  11.831  13.572   6.026  0.0085 -0.2909  0.0090
58155SOL    HW186190  11.878  13.615   5.955 -0.0991 -1.4243 -0.7724
58155SOL    HW286191  11.784  13.643   6.070  0.5788  0.5130 -0.6526
58156SOL     OW86192   0.047   0.114   2.626  0.1595 -0.1214  0.2322
58156SOL    HW186193   0.105   0.187   2.646  1.2167 -0.8641 -0.0495
58156SOL    HW286194   0.015   0.133   2.537 -0.1415  0.3601  0.4426
58157SOL     OW86195   4.347   5.518   9.684 -0.4612 -1.0146 -0.2108
58157SOL    HW186196   4.342   5.423   9.692  1.7575 -1.3113 -1.6764
58157SOL    HW286197   4.440   5.537   9.673 -0.9647  1.2299 -1.1726
58158SOL     OW86198   6.455  12.368   0.912  0.0063 -0.0196 -0.0319
58158SOL    HW186199   6.539  12.379   0.868 -0.7567 -0.5388 -1.6717
58158SOL    HW286200   6.406  12.309   0.856 -0.8607 -1.0705  1.7597
58159SOL     OW86201  12.454   6.855  13.596 -0.3370  0.1158 -0.1244
58159SOL    HW186202  12.460   6.775  13.648 -0.7661 -0.1017 -0.4106
58159SOL    HW286203  12.429   6.923  13.658  1.5699  0.3656  0.4443
58160SOL     OW86204   5.961   1.203  11.339  0.0369  0.2899 -0.8085
58160SOL    HW186205   6.001   1.200  11.252 -0.2448 -2.3285 -0.9220
58160SOL    HW286206   5.913   1.121  11.346  0.0938  0.4054  1.8660
58161SOL     OW86207   5.454   4.255   5.913  0.4953  0.1334  0.3253
58161SOL    HW186208   5.430   4.204   5.835  0.9445  0.5323 -0.0791
58161SOL    HW286209   5.431   4.346   5.889 -0.8417  0.0703  1.2482
58162SOL     OW86210   5.914  10.853   0.144 -0.4224 -0.9209  0.2323
58162SOL    HW186211   5.884  10.917   0.078 -1.5448 -0.1650  1.4342
58162SOL    HW286212   5.961  10.906   0.208  0.4074 -1.6164  0.2080
58163SOL     OW86213  12.636   2.652   5.171  0.2468  0.0276 -0.6467
58163SOL    HW186214  12.607   2.714   5.237  1.3339  0.0686 -0.1856
58163SOL    HW286215  12.729   2.671   5.159  0.3753 -0.8729 -1.2010
58164SOL     OW86216   2.333   2.462   5.816 -0.0039 -0.4957  0.3620
58164SOL    HW186217   2.415   2.505   5.840 -0.0768 -0.5513  0.7137
58164SOL    HW286218   2.277   2.471   5.893 -0.0897 -1.0496  0.3683
58165SOL     OW86219   1.875   1.913   4.442 -0.3423  0.6512 -0.1564
58165SOL    HW186220   1.904   1.822   4.450 -0.2421  0.7599  0.8299
58165SOL    HW286221   1.878   1.931   4.348  0.9294  0.0555 -0.2468
58166SOL     OW86222   1.887   8.661   1.645  0.1327 -0.4187  0.0191
58166SOL    HW186223   1.923   8.584   1.601  2.6109  1.3955 -1.4183
58166SOL    HW286224   1.915   8.653   1.736  1.7889 -0.4624 -0.4734
58167SOL     OW86225   1.778   9.595   6.033 -0.3099  0.2292 -0.2926
58167SOL    HW186226   1.687   9.587   6.002 -0.3919 -0.7992  0.1543
58167SOL    HW286227   1.823   9.642   5.963 -0.3183 -2.6771 -2.4634
58168SOL     OW86228  13.152   5.101  12.609  0.3864  0.3766  0.6855
58168SOL    HW186229  13.075   5.154  12.585 -0.5492 -1.5658 -0.9188
58168SOL    HW286230  13.227   5.156  12.588 -0.5207  2.1144  1.7724
58169SOL     OW86231   7.714   9.277   5.981 -0.0327  0.3131  0.0068
58169SOL    HW186232   7.738   9.311   6.067 -0.0540  0.0454  0.1204
58169SOL    HW286233   7.757   9.336   5.919  0.3463  0.2498  0.2051
58170SOL     OW86234  11.703   7.745   9.522  0.1240  0.2147  0.3782
58170SOL    HW186235  11.726   7.795   9.600 -1.2258  0.6666  0.5032
58170SOL    HW286236  11.637   7.797   9.477  1.1664  0.1565 -1.3087
58171SOL     OW86237   8.294   2.135   4.496  0.1366  0.2815 -0.9068
58171SOL    HW186238   8.285   2.039   4.491 -2.3986  0.4678 -1.6567
58171SOL    HW286239   8.268   2.156   4.585  3.5497  0.1452  0.2500
58172SOL     OW86240   0.990  11.218  12.392 -0.6511 -0.2589  0.5161
58172SOL    HW186241   1.032  11.138  12.361  1.3532  0.6575  0.7474
58172SOL    HW286242   1.055  11.286  12.379 -1.7693  1.0989  1.6989
58173SOL     OW86243   5.286   5.803   9.250 -0.4599 -0.2799  0.2640
58173SOL    HW186244   5.281   5.740   9.321  0.5569  0.0144  0.6185
58173SOL    HW286245   5.261   5.887   9.291  4.0189  0.7363  1.4489
58174SOL     OW86246  10.096   0.277   9.769 -0.3338  0.5994  0.0432
58174SOL    HW186247  10.127   0.256   9.680 -0.2056  1.9389 -0.2464
58174SOL    HW286248  10.002   0.257   9.767 -0.9840  3.3604 -1.3421
58175SOL     OW86249   1.419   4.645   4.119 -0.1973  0.9791 -0.4731
58175SOL    HW186250   1.488   4.693   4.072 -0.4614  0.2179 -1.6802
58175SOL    HW286251   1.352   4.629   4.053 -1.6387  1.8574  0.7177
58176SOL     OW86252   1.713   6.226   6.327 -0.3190 -0.0585  0.2427
58176SOL    HW186253   1.627   6.196   6.359 -0.1528 -1.3723 -0.4788
58176SOL    HW286254   1.697   6.251   6.236  0.7132 -3.8985 -1.1685
58177SOL     OW86255   0.896  11.785   6.624 -0.6178 -0.0671  0.3449
58177SOL    HW186256   0.922  11.780   6.716 -0.0958 -0.8780  0.1725
58177SOL    HW286257   0.968  11.832   6.582 -0.2253 -0.8229  0.1488
58178SOL     OW86258   2.349   6.538   3.332 -0.0167 -0.4816  0.1547
58178SOL    HW186259   2.265   6.538   3.285  0.4022 -1.1232 -0.6195
58178SOL    HW286260   2.335   6.598   3.405 -1.4400 -1.2766  0.5729
58179SOL     OW86261   2.726   7.052   2.851 -0.4463 -0.2637 -0.1664
58179SOL    HW186262   2.749   6.960   2.847 -1.8448 -0.6028 -1.1181
58179SOL    HW286263   2.793   7.097   2.800  0.2848 -0.7375  0.3712
58180SOL     OW86264  12.079  13.723  10.149 -0.5402  0.0947  0.0701
58180SOL    HW186265  12.135  13.662  10.100  1.3491  2.0252 -0.3058
58180SOL    HW286266  12.090  13.697  10.240  1.0206  0.4367  0.0040
58181SOL     OW86267   0.721   3.798   8.939  0.1408 -0.0997  0.2415
58181SOL    HW186268   0.765   3.715   8.922  0.1853  0.2454 -1.5308
58181SOL    HW286269   0.645   3.775   8.993  0.8836 -1.0843  0.8957
58182SOL     OW86270   9.452   2.787   5.575  0.0740  0.1322  0.0306
58182SOL    HW186271   9.543   2.800   5.602 -0.0592 -0.2568  0.6750
58182SOL    HW286272   9.400   2.825   5.645 -0.2722 -0.5057  0.1279
58183SOL     OW86273   1.839   6.911   1.620 -0.0435 -1.0159 -0.2299
58183SOL    HW186274   1.834   6.964   1.541  1.1441 -0.0510  0.3022
58183SOL    HW286275   1.891   6.834   1.595 -0.4022 -1.1404 -0.5957
58184SOL     OW86276   6.384   9.570   1.008  0.1106  0.1745 -0.1305
58184SOL    HW186277   6.451   9.633   1.036  0.1815  0.4237 -0.8318
58184SOL    HW286278   6.365   9.519   1.086  1.6955 -0.4243 -0.0998
58185SOL     OW86279  12.228   0.388   1.153  0.0010  0.0204 -0.3319
58185SOL    HW186280  12.283   0.452   1.199  0.9517  0.3598 -1.8939
58185SOL    HW286281  12.257   0.392   1.062 -2.0434 -0.4063 -1.0539
58186SOL     OW86282   7.623   8.552   3.061 -0.2644  0.4307  0.4984
58186SOL    HW186283   7.670   8.573   2.980  0.1472  1.1978  0.9268
58186SOL    HW286284   7.539   8.517   3.031  0.4961 -0.7884 -0.2746
58187SOL     OW86285   7.600   5.242   1.133  0.0009 -0.1009 -0.2936
58187SOL    HW186286   7.564   5.181   1.197 -1.0617 -0.3854 -1.1315
58187SOL    HW286287   7.681   5.275   1.173 -1.0169  0.3077  1.4997
58188SOL     OW86288   9.676  11.391   4.435  0.2133  0.2110 -0.4354
58188SOL    HW186289   9.589  11.362   4.463  0.8118 -1.0571  0.1925
58188SOL    HW286290   9.714  11.314   4.393  1.2647  0.5615 -0.1510
58189SOL     OW86291  11.179   3.638  11.803 -0.2090  0.1644  0.8389
58189SOL    HW186292  11.165   3.571  11.869 -1.2790  0.6261  1.0991
58189SOL    HW286293  11.159   3.720  11.848  1.6490  0.7489  0.7061
58190SOL     OW86294  13.032   1.807   0.270 -0.3621 -0.2799 -0.3931
58190SOL    HW186295  13.122   1.775   0.271 -0.1624  0.2326 -1.0378
58190SOL    HW286296  12.982   1.736   0.228 -0.4427 -0.9892  0.8663
58191SOL     OW86297   0.220   8.197   3.986  0.2073 -0.7027  0.8630
58191SOL    HW186298   0.204   8.242   4.068  1.5371 -1.0108  1.3120
58191SOL    HW286299   0.149   8.132   3.980 -0.9041  0.4766  0.8836
58192SOL     OW86300   6.173  12.124   5.849  0.4298 -0.1645  0.5268
58192SOL    HW186301   6.200  12.034   5.833 -1.3180 -0.5863 -0.2526
58192SOL    HW286302   6.080  12.125   5.829  0.1645  1.5496  1.6707
58193SOL     OW86303   0.690   0.491  12.206 -0.1328  0.5899  0.0259
58193SOL    HW186304   0.644   0.432  12.266 -0.9751 -0.8252 -1.9330
58193SOL    HW286305   0.735   0.434  12.144  1.4411  2.0085 -0.2129
58194SOL     OW86306   9.568   6.858   4.083  0.0436  0.7625 -0.0933
58194SOL    HW186307   9.624   6.781   4.078 -0.9808  0.0833 -2.6325
58194SOL    HW286308   9.628   6.932   4.088  1.0802 -0.0872  0.4436
58195SOL     OW86309   9.437  13.297   3.015 -0.1953 -0.3830 -0.7589
58195SOL    HW186310   9.472  13.261   3.096  0.1935  0.0845 -0.7186
58195SOL    HW286311   9.495  13.369   2.993 -2.1755  1.6806  0.3058
58196SOL     OW86312  13.735   5.843   0.406  0.0548 -0.4767 -0.1363
58196SOL    HW186313  13.827   5.840   0.432  0.3126  0.3864 -0.9227
58196SOL    HW286314  13.691   5.884   0.480  0.3509 -0.5508  0.0871
58197SOL     OW86315   2.490   6.784   6.146 -0.0251  0.0215  0.5595
58197SOL    HW186316   2.556   6.853   6.135  1.4730 -1.4392 -0.0560
58197SOL    HW286317   2.473   6.753   6.057 -1.4839  0.2817  0.7275
58198SOL     OW86318   6.680   5.977   9.661  0.1328  0.0153 -0.2606
58198SOL    HW186319   6.643   5.908   9.606  0.0546 -0.0667 -0.1038
58198SOL    HW286320   6.652   6.058   9.619 -0.0487 -0.0472 -0.2574
58199SOL     OW86321   8.585   8.901   7.913  0.2319 -0.0611  0.1039
58199SOL    HW186322   8.513   8.958   7.939  0.5561 -0.1457  1.2567
58199SOL    HW286323   8.658   8.928   7.969  1.4946  0.8722 -1.8785
58200SOL     OW86324   6.168  12.253  12.642  0.4146 -0.3182  0.6018
58200SOL    HW186325   6.150  12.160  12.649 -0.3791 -0.1446  0.9715
58200SOL    HW286326   6.082  12.295  12.645  0.3468  0.2408 -3.6346
58201SOL     OW86327   5.562   0.292   4.809  0.6516  0.4924 -0.9620
58201SOL    HW186328   5.549   0.201   4.785  2.8448 -0.2641  0.3957
58201SOL    HW286329   5.657   0.306   4.800  0.8957  1.6032  2.0757
58202SOL     OW86330  11.221  13.536   2.642 -0.3144 -0.3062  0.1399
58202SOL    HW186331  11.305  13.581   2.638  0.6842 -2.1963 -1.8599
58202SOL    HW286332  11.230  13.474   2.714 -0.3379  0.0740  0.4770
58203SOL     OW86333   3.618  10.908  13.355  0.5229  0.4051 -0.1408
58203SOL    HW186334   3.578  10.878  13.273 -1.1073  0.2207  0.6842
58203SOL    HW286335   3.569  10.987  13.378 -0.1215 -0.4214  1.4553
58204SOL     OW86336   9.715   2.483  12.422 -0.3646 -0.5845  0.3184
58204SOL    HW186337   9.639   2.453  12.372 -1.0201 -0.2156  1.0653
58204SOL    HW286338   9.687   2.477  12.514  0.9021 -1.4781  0.6685
58205SOL     OW86339   1.095   8.058   5.866  0.3217  0.3712 -0.0755
58205SOL    HW186340   1.159   8.009   5.917  0.5798  0.8975  0.1142
58205SOL    HW286341   1.015   8.054   5.918  0.1598 -0.4094 -0.3832
58206SOL     OW86342   8.798   9.784   0.251  0.0990 -0.0932 -0.1485
58206SOL    HW186343   8.715   9.785   0.298  0.3916 -0.0147  0.3843
58206SOL    HW286344   8.841   9.703   0.281 -0.4671 -0.9912 -1.6607
58207SOL     OW86345  12.364   9.544   6.526 -0.1460  0.0193  0.0852
58207SOL    HW186346  12.421   9.593   6.466 -0.3183 -0.2152 -0.2645
58207SOL    HW286347  12.327   9.612   6.583  0.8331  0.1357  0.6212
58208SOL     OW86348   9.414  13.157   6.979  0.2732 -0.5488  0.4001
58208SOL    HW186349   9.415  13.147   7.074 -0.7380 -0.5269  0.4199
58208SOL    HW286350   9.489  13.105   6.949  0.5796 -0.5821  1.1994
58209SOL     OW86351   6.383   0.431   5.543  0.7501  0.0360  0.4625
58209SOL    HW186352   6.420   0.428   5.455  0.9490  2.2640  0.4215
58209SOL    HW286353   6.441   0.490   5.592 -1.0206  1.2594  1.2087
58210SOL     OW86354   5.796   9.788   7.650 -0.0734 -0.0588  0.0227
58210SOL    HW186355   5.888   9.813   7.647 -0.4527  1.4197 -0.0314
58210SOL    HW286356   5.788   9.720   7.583  0.7129  0.7409 -0.9126
58211SOL     OW86357   6.081   9.754  10.136 -0.6480  0.2923  0.4106
58211SOL    HW186358   6.135   9.702  10.195 -0.3667  0.8738  0.6764
58211SOL    HW286359   6.000   9.769  10.184 -1.1442 -0.7539 -0.0693
58212SOL     OW86360  12.443   4.286   9.122 -0.1843  0.0664  0.9661
58212SOL    HW186361  12.445   4.359   9.060  1.0633  0.0426  0.9514
58212SOL    HW286362  12.534   4.256   9.127 -0.6208 -1.2792  1.2235
58213SOL     OW86363   8.615   5.954   2.585  0.4307  0.0407 -0.2039
58213SOL    HW186364   8.678   5.966   2.656 -0.7353 -0.6169  0.9807
58213SOL    HW286365   8.668   5.928   2.510  1.5617 -0.7318  0.8202
58214SOL     OW86366  13.698   9.040   1.735 -0.1514  0.2252  0.2288
58214SOL    HW186367  13.727   8.954   1.764  0.7165  0.8329  1.2609
58214SOL    HW286368  13.728   9.100   1.803  0.1557  1.4693 -0.9433
58215SOL     OW86369   8.621  10.667   7.428  0.6305  0.2732 -0.0547
58215SOL    HW186370   8.672  10.586   7.423 -0.1745 -0.4059  1.8143
58215SOL    HW286371   8.574  10.661   7.512 -0.9072  1.8272 -0.7429
58216SOL     OW86372   4.792   7.179   7.011 -0.0021 -0.2601  0.0502
58216SOL    HW186373   4.850   7.221   6.947  0.1342 -1.8523 -0.9402
58216SOL    HW286374   4.835   7.191   7.095  0.1227  1.3621 -0.2139
58217SOL     OW86375   6.869   8.007   6.741  0.1989  0.1874 -0.5216
58217SOL    HW186376   6.946   7.997   6.797  1.4287  1.4410 -1.8976
58217SOL    HW286377   6.826   7.921   6.744  0.7021 -0.0385  1.5984
58218SOL     OW86378   7.284   9.745   1.765 -0.5420 -0.1893  0.5103
58218SOL    HW186379   7.298   9.652   1.747  1.0706  0.2084 -0.4251
58218SOL    HW286380   7.327   9.759   1.849  1.4990  0.2156 -0.5521
58219SOL     OW86381   9.010   6.076   1.377 -0.2545 -0.0919  0.1742
58219SOL    HW186382   9.040   5.988   1.355  0.1077 -0.0908  0.6395
58219SOL    HW286383   8.924   6.084   1.335 -1.2727 -1.4276  1.8869
58220SOL     OW86384   2.480   8.686   8.058  0.2394  0.4214  0.1901
58220SOL    HW186385   2.405   8.704   8.002  0.9213 -0.8740 -1.2220
58220SOL    HW286386   2.556   8.698   8.001  0.8726 -4.0676 -0.2692
58221SOL     OW86387   4.181   6.199   4.780  0.4450  0.0917 -0.5079
58221SOL    HW186388   4.220   6.287   4.784 -0.4725  0.4928 -0.0488
58221SOL    HW286389   4.115   6.206   4.711  1.2873 -0.6383 -1.4194
58222SOL     OW86390   7.205  12.490  10.802  0.3916  0.4298  0.1812
58222SOL    HW186391   7.198  12.418  10.740  2.5748 -0.3484  0.7463
58222SOL    HW286392   7.255  12.454  10.875 -1.6956  1.4497  2.2502
58223SOL     OW86393  10.759   0.911  13.070  0.6952  0.0896  0.3177
58223SOL    HW186394  10.709   0.903  13.151 -0.9268  0.0095 -0.6347
58223SOL    HW286395  10.829   0.847  13.077  1.4980  1.1152  2.2625
58224SOL     OW86396   8.616  10.068   0.439  0.2968 -0.0446  0.0231
58224SOL    HW186397   8.622  10.056   0.533 -1.0138  2.8587  0.6077
58224SOL    HW286398   8.531  10.030   0.415  0.5346 -0.5889  0.0253
58225SOL     OW86399   3.429   0.018   6.167  0.1725 -0.1858 -0.0867
58225SOL    HW186400   3.353   0.070   6.139  0.8074  0.6929 -0.1982
58225SOL    HW286401   3.398  -0.029   6.245 -0.6903 -0.3524 -0.5197
58226SOL     OW86402   3.080   6.338   1.547  0.3997  0.1962 -0.2287
58226SOL    HW186403   3.116   6.399   1.483  2.3745 -0.8561 -0.1716
58226SOL    HW286404   3.030   6.275   1.494 -0.3653  0.9426 -0.4246
58227SOL     OW86405  13.379  10.949   5.035  0.3772 -0.2950 -0.1329
58227SOL    HW186406  13.435  10.931   5.111 -0.9151  2.1882  1.5703
58227SOL    HW286407  13.292  10.919   5.062 -0.1838  1.0145 -0.3732
58228SOL     OW86408   0.285   4.114   3.243  0.5293 -0.1727 -0.0236
58228SOL    HW186409   0.343   4.083   3.174  1.4766 -2.5039  1.6604
58228SOL    HW286410   0.338   4.108   3.323 -1.2791 -0.0952  1.2444
58229SOL     OW86411   5.407  11.471   1.971  0.5812 -0.3599  0.1820
58229SOL    HW186412   5.500  11.493   1.977  0.8667 -1.6653  0.9569
58229SOL    HW286413   5.365  11.528   2.035  0.6847  0.9686 -0.8990
58230SOL     OW86414   9.713   5.433   8.555 -0.0677  0.1646 -0.1401
58230SOL    HW186415   9.779   5.494   8.523 -0.6635  1.6991  1.3933
58230SOL    HW286416   9.758   5.379   8.619 -0.2006  1.0316  0.7082
58231SOL     OW86417  12.702  11.436   5.755 -0.8714  0.2273 -0.0584
58231SOL    HW186418  12.709  11.507   5.692 -4.2538  0.4455 -0.3622
58231SOL    HW286419  12.643  11.373   5.714  1.7597 -2.7284  0.3231
58232SOL     OW86420   8.231  13.122   8.802 -0.1341 -0.2212 -0.7385
58232SOL    HW186421   8.211  13.215   8.804 -0.6050 -0.3225  0.6312
58232SOL    HW286422   8.313  13.114   8.851 -1.7101 -0.8161  2.0375
58233SOL     OW86423   0.065   5.341  11.775 -0.2123 -0.2420 -0.3064
58233SOL    HW186424   0.144   5.392  11.756 -0.4899  0.0683 -0.6394
58233SOL    HW286425   0.051   5.353  11.868  0.5992 -0.9672 -0.0744
58234SOL     OW86426   0.130   3.401  11.843 -0.2683  0.5396 -0.3977
58234SOL    HW186427   0.096   3.362  11.763 -0.5018  0.9333 -0.4918
58234SOL    HW286428   0.208   3.349  11.864 -0.7962 -0.2307 -0.2972
58235SOL     OW86429  11.305   2.056   6.912 -0.5646 -0.5311 -0.3040
58235SOL    HW186430  11.333   2.112   6.840  0.5871 -1.6322 -0.7456
58235SOL    HW286431  11.273   1.976   6.870  0.6588 -1.4261  0.3933
58236SOL     OW86432   5.494   9.518   3.696 -0.0060 -0.7589  0.1187
58236SOL    HW186433   5.453   9.466   3.627 -2.7863 -2.0852  2.5551
58236SOL    HW286434   5.449   9.602   3.694  0.3343 -0.5774 -0.0428
58237SOL     OW86435   4.361   5.313  13.473 -0.1270  0.3237 -0.1674
58237SOL    HW186436   4.368   5.355  13.558  0.1221 -0.1540  0.0557
58237SOL    HW286437   4.312   5.374  13.419  1.6424  1.6676 -0.3476
58238SOL     OW86438  12.086   7.680   1.132 -0.1135 -0.4924 -0.5074
58238SOL    HW186439  12.089   7.769   1.096  1.2770 -0.4607 -0.3779
58238SOL    HW286440  12.005   7.677   1.183 -0.4230  0.5383 -0.9096
58239SOL     OW86441   8.080  11.695  11.482 -0.3171  0.0265  0.6255
58239SOL    HW186442   8.116  11.757  11.545  0.4401 -0.7687  1.0021
58239SOL    HW286443   8.153  11.676  11.422 -1.4843  2.1345 -1.6548
58240SOL     OW86444   4.859  11.787   8.799 -0.3268  0.2313 -0.1258
58240SOL    HW186445   4.887  11.703   8.835 -1.6823 -0.4620 -0.6204
58240SOL    HW286446   4.884  11.851   8.866  2.3746 -0.2740 -0.5162
58241SOL     OW86447   9.523  11.459   6.080 -0.0494 -0.1079  0.3176
58241SOL    HW186448   9.479  11.526   6.132  0.9307  1.0090 -0.2602
58241SOL    HW286449   9.595  11.505   6.037 -0.1750 -1.2336 -1.1748
58242SOL     OW86450   2.851   3.084   7.575 -0.0007  1.0355  0.2075
58242SOL    HW186451   2.912   3.062   7.505 -0.0825  1.0983  0.1160
58242SOL    HW286452   2.862   3.178   7.588  0.2402  0.9730  0.4952
58243SOL     OW86453   8.868  12.370   3.628 -0.4652  0.3185  0.5143
58243SOL    HW186454   8.855  12.428   3.552 -0.2336  1.5695  1.3886
58243SOL    HW286455   8.955  12.395   3.661 -0.6020 -0.1555  1.2297
58244SOL     OW86456  10.312   3.801   7.766  0.0539  0.1707  0.3392
58244SOL    HW186457  10.345   3.753   7.842 -1.3229  1.9919  2.2139
58244SOL    HW286458  10.391   3.831   7.721  0.9330 -0.2413  1.5312
58245SOL     OW86459  10.341  11.614   4.438 -0.1261 -0.4657  0.5469
58245SOL    HW186460  10.348  11.611   4.534 -0.1799  0.6835  0.6095
58245SOL    HW286461  10.270  11.554   4.417 -1.6625  0.9343  1.4583
58246SOL     OW86462   5.359  13.604   5.940 -0.3986 -0.1911  0.6991
58246SOL    HW186463   5.335  13.518   5.906 -0.4300  0.2007 -0.2869
58246SOL    HW286464   5.455  13.602   5.944 -0.2690  0.3959 -1.1932
58247SOL     OW86465   9.433   5.171   6.097 -0.6441 -0.1094  0.4380
58247SOL    HW186466   9.494   5.180   6.170 -1.6172 -0.8854  1.3872
58247SOL    HW286467   9.428   5.077   6.082 -0.2917  0.0578 -0.7840
58248SOL     OW86468   9.747  11.562   5.404 -0.0943  0.4109 -0.3098
58248SOL    HW186469   9.833  11.603   5.416  0.1043 -0.2583  0.6263
58248SOL    HW286470   9.722  11.533   5.492 -1.1984  0.4375 -0.6061
58249SOL     OW86471   9.532   0.055  13.506 -0.1563  0.7436  0.3254
58249SOL    HW186472   9.545   0.150  13.503  1.2334  0.5515 -0.6235
58249SOL    HW286473   9.606   0.022  13.556 -0.5158  0.1276  0.4631
58250SOL     OW86474   2.616   0.080   4.432 -0.3601  0.4056  0.0144
58250SOL    HW186475   2.633   0.161   4.480  0.1340  1.1132 -1.3132
58250SOL    HW286476   2.702   0.039   4.424 -0.4772  0.1758 -0.0633
58251SOL     OW86477   2.361  11.364   4.257  0.0359  0.2396 -0.7464
58251SOL    HW186478   2.270  11.382   4.279  0.4702  2.4101 -0.5100
58251SOL    HW286479   2.357  11.296   4.191 -1.7285 -0.0628 -0.3688
58252SOL     OW86480  11.585  13.038   3.152  0.6420 -0.1225  0.0876
58252SOL    HW186481  11.667  12.990   3.136  1.0489  0.5874 -0.0105
58252SOL    HW286482  11.523  13.001   3.089  1.0879 -0.1880 -0.3217
58253SOL     OW86483   6.914   1.218   1.595  0.1425  0.4987  0.2191
58253SOL    HW186484   6.925   1.274   1.519 -0.8189  3.1267  1.8692
58253SOL    HW286485   7.002   1.210   1.632  0.4754 -0.1202 -0.6721
58254SOL     OW86486   3.781  12.032   5.961  0.2432 -0.2203 -0.8005
58254SOL    HW186487   3.767  12.126   5.971  1.3772 -0.0282 -0.8742
58254SOL    HW286488   3.820  12.022   5.874 -2.0515 -1.0295 -1.8263
58255SOL     OW86489   2.337   5.589   0.046  0.0792  0.2311  0.1663
58255SOL    HW186490   2.339   5.589  -0.050  1.9571  1.3383  0.1362
58255SOL    HW286491   2.423   5.556   0.071  0.0989  1.1873  1.4366
58256SOL     OW86492   8.388   3.891  10.048  0.5368  0.2800  0.1287
58256SOL    HW186493   8.383   3.850  10.135  1.7515 -0.6051 -0.1940
58256SOL    HW286494   8.399   3.984  10.066  0.2074  0.1767  0.9126
58257SOL     OW86495   8.974   3.028   2.062  0.5410 -0.1097  0.0240
58257SOL    HW186496   8.969   2.972   2.140  1.5049 -0.0237  0.1604
58257SOL    HW286497   9.039   3.095   2.085  1.9659 -0.9602 -1.3945
58258SOL     OW86498   8.400  12.384   6.135 -0.2256 -0.5299 -0.1234
58258SOL    HW186499   8.475  12.426   6.179 -0.6657 -0.7741  0.8790
58258SOL    HW286500   8.440  12.325   6.071  0.4263 -0.1863 -0.0435
58259SOL     OW86501  11.632   6.033  11.044 -0.6388  0.5586  0.5330
58259SOL    HW186502  11.687   6.049  10.967 -0.2254  1.9091  1.0743
58259SOL    HW286503  11.635   5.939  11.057  0.7887  0.5102 -0.0204
58260SOL     OW86504  10.120  13.547   5.343  0.3408 -0.3231  0.0965
58260SOL    HW186505  10.080  13.563   5.428 -0.8785 -0.0271 -0.5234
58260SOL    HW286506  10.118  13.452   5.333  0.5204 -0.3612  0.4045
58261SOL     OW86507   6.340   3.569   9.560 -0.3805  0.8609  0.7203
58261SOL    HW186508   6.277   3.506   9.594 -1.3255  1.2708 -0.2160
58261SOL    HW286509   6.425   3.538   9.593 -1.0616  0.3706  2.1007
58262SOL     OW86510   1.370   8.179   7.086 -0.3423 -0.0202 -0.5406
58262SOL    HW186511   1.402   8.191   6.996  1.3855 -0.6447 -0.0492
58262SOL    HW286512   1.392   8.260   7.131  1.1951 -0.6747 -0.0468
58263SOL     OW86513   0.134   9.074   5.827 -0.0052  0.0804  0.2368
58263SOL    HW186514   0.131   9.012   5.754  0.9736 -1.7684  1.7030
58263SOL    HW286515   0.220   9.115   5.821  0.3623 -0.5943  0.7277
58264SOL     OW86516   8.841  13.353   5.120  0.4379  0.4945  0.1424
58264SOL    HW186517   8.761  13.367   5.170 -0.4281  0.3837 -1.1593
58264SOL    HW286518   8.840  13.423   5.054  0.6690 -0.3425 -0.7722
58265SOL     OW86519  11.484   9.303  10.297  0.2112  0.1246  0.0888
58265SOL    HW186520  11.487   9.287  10.391 -0.0629  1.6609  0.3753
58265SOL    HW286521  11.573   9.288  10.267  0.4855  0.4240  0.7385
58266SOL     OW86522  11.391   6.333   7.491 -0.3380 -0.2651  0.5677
58266SOL    HW186523  11.304   6.319   7.454 -0.7261  0.4274  1.1793
58266SOL    HW286524  11.437   6.251   7.476 -0.5546 -0.1004 -1.2027
58267SOL     OW86525   4.068   7.336   7.771 -0.3284 -0.1236 -0.2270
58267SOL    HW186526   4.014   7.264   7.803 -1.0638  0.0828 -0.9835
58267SOL    HW286527   4.019   7.415   7.794  0.3387  0.1327  0.3450
58268SOL     OW86528   0.697   8.938  12.097  0.3838  0.2909 -0.3077
58268SOL    HW186529   0.676   9.022  12.139  1.2419  1.0271 -1.2917
58268SOL    HW286530   0.776   8.956  12.045  1.0947 -1.3471  0.1209
58269SOL     OW86531   9.653   4.522  12.220  1.1801 -0.0366 -0.2115
58269SOL    HW186532   9.662   4.604  12.172  1.1401  0.4342  0.5654
58269SOL    HW286533   9.602   4.465  12.162 -0.8152  1.2819  0.1871
58270SOL     OW86534  13.112   8.071   9.853  0.1933  0.1369  0.4099
58270SOL    HW186535  13.121   8.120   9.935 -1.3737  0.2511  0.5495
58270SOL    HW286536  13.201   8.066   9.818  0.6398  1.6711  1.2137
58271SOL     OW86537  10.847   8.778  13.208 -0.4355 -0.3687 -0.7258
58271SOL    HW186538  10.908   8.796  13.137  0.3157 -1.3204 -0.3488
58271SOL    HW286539  10.792   8.856  13.214  1.1091  0.7557 -0.7159
58272SOL     OW86540   3.293   8.362   4.523 -0.6183 -0.5675  0.5934
58272SOL    HW186541   3.233   8.384   4.593 -0.7823  0.7912  0.0452
58272SOL    HW286542   3.252   8.396   4.444  0.8769  0.4693  0.2086
58273SOL     OW86543  11.380  12.399   5.691 -0.3127 -0.1760  0.4102
58273SOL    HW186544  11.461  12.414   5.643  0.5541 -0.9058  1.5770
58273SOL    HW286545  11.321  12.469   5.662  0.8204  0.5270 -0.2645
58274SOL     OW86546   8.908   3.329  12.646  0.0302  0.0153 -0.0696
58274SOL    HW186547   8.832   3.314  12.589  0.4491  0.0765 -0.6608
58274SOL    HW286548   8.902   3.260  12.712 -0.3047 -0.2468 -0.3617
58275SOL     OW86549   2.490   6.656  12.185 -0.2379 -0.3372  0.2495
58275SOL    HW186550   2.497   6.561  12.193 -0.2712 -0.4778 -1.1221
58275SOL    HW286551   2.424   6.681  12.250  1.9105 -0.8450  2.7870
58276SOL     OW86552  13.296   8.798  13.722 -0.4323 -0.1731  0.1814
58276SOL    HW186553  13.333   8.884  13.705  0.1015 -0.4930 -0.3057
58276SOL    HW286554  13.367   8.749  13.764 -0.4550 -0.6329 -0.3053
58277SOL     OW86555   4.932   4.764  10.360  0.2002  0.5768  0.1390
58277SOL    HW186556   4.885   4.834  10.405 -0.6833 -0.3242  0.6667
58277SOL    HW286557   4.951   4.700  10.429 -0.0422 -0.2371 -0.5257
58278SOL     OW86558   3.795   7.936   8.268  0.6008  0.5670 -0.2200
58278SOL    HW186559   3.805   8.030   8.250  1.6447 -0.0614 -3.6685
58278SOL    HW286560   3.705   7.927   8.298 -0.1691  2.4719 -1.7142
58279SOL     OW86561  13.079   3.959   1.206  0.0763  0.0046  0.0246
58279SOL    HW186562  13.061   3.865   1.211 -2.8350  0.4238 -0.5720
58279SOL    HW286563  13.072   3.980   1.113 -2.7035  1.2698  0.4117
58280SOL     OW86564   1.315   0.813   3.165 -0.1902 -0.1071 -0.1176
58280SOL    HW186565   1.324   0.734   3.112 -0.8956 -0.9258  0.9540
58280SOL    HW286566   1.230   0.849   3.140  0.1988  0.4194 -0.7203
58281SOL     OW86567  12.587  12.406   8.226 -0.0434 -0.0333 -0.3637
58281SOL    HW186568  12.600  12.423   8.133 -2.7665  0.5945 -0.7362
58281SOL    HW286569  12.555  12.316   8.231 -0.8140  0.2430 -0.1606
58282SOL     OW86570   7.545   2.856   4.339 -0.4761 -0.2422  0.4448
58282SOL    HW186571   7.479   2.875   4.272 -1.1781 -0.2334  1.1287
58282SOL    HW286572   7.508   2.783   4.389  1.1227 -1.9113 -0.6754
58283SOL     OW86573   0.985  11.969   9.793 -0.6422  0.4459 -0.0470
58283SOL    HW186574   1.031  11.994   9.873  1.2900  2.0122 -1.5551
58283SOL    HW286575   0.902  12.016   9.796 -0.0548  1.4598  0.4662
58284SOL     OW86576   7.744   6.523  10.876 -0.3051  0.9664  0.0280
58284SOL    HW186577   7.765   6.502  10.785  0.7780 -0.2587  0.5311
58284SOL    HW286578   7.654   6.553  10.873 -0.5911  0.0754 -1.3425
58285SOL     OW86579  12.765  13.062  13.267 -0.2598  0.6052 -0.0624
58285SOL    HW186580  12.830  13.129  13.287 -0.2191 -0.1586  2.6978
58285SOL    HW286581  12.684  13.095  13.305 -0.6526 -0.0716 -0.2891
58286SOL     OW86582   2.255   9.676   8.620  0.1938  0.4780  0.0625
58286SOL    HW186583   2.241   9.691   8.714 -0.1317 -0.8716  0.2514
58286SOL    HW286584   2.235   9.760   8.579  0.3369  1.0866  1.2010
58287SOL     OW86585  13.703   4.296  13.505 -0.2295  0.0429 -0.3623
58287SOL    HW186586  13.618   4.334  13.527 -0.1786  0.3779 -0.7324
58287SOL    HW286587  13.690   4.201  13.512 -1.2460 -0.0292 -2.5334
58288SOL     OW86588   6.510   2.936  13.607  0.5865  0.2647 -0.1335
58288SOL    HW186589   6.575   2.976  13.549  0.1280  1.2305 -0.0027
58288SOL    HW286590   6.456   3.009  13.636  0.6593 -0.2396  1.3377
58289SOL     OW86591   4.846   0.535  11.615  0.1738 -0.0868 -0.3862
58289SOL    HW186592   4.884   0.450  11.639 -2.1200 -0.8484  0.8844
58289SOL    HW286593   4.760   0.536  11.658  0.7872  3.6330  1.1355
58290SOL     OW86594  13.492   5.812   3.356 -0.0445  0.0501 -0.0970
58290SOL    HW186595  13.583   5.786   3.347 -0.0177  0.1329 -0.0693
58290SOL    HW286596  13.443   5.730   3.359  0.2323 -0.1073  2.3132
58291SOL     OW86597   9.636  11.176  11.912  0.2492  0.6163  0.2006
58291SOL    HW186598   9.654  11.265  11.880  1.2156  0.8375  1.3151
58291SOL    HW286599   9.551  11.154  11.874 -0.3783  2.3261  0.5257
58292SOL     OW86600   2.442   0.041  12.098 -0.0364  0.0267 -0.1824
58292SOL    HW186601   2.487   0.021  12.016 -0.6893 -0.4714 -0.4198
58292SOL    HW286602   2.513   0.065  12.159  0.5876 -1.1237 -0.4393
58293SOL     OW86603   9.900  12.589   6.489  0.2738 -0.0089  0.2150
58293SOL    HW186604   9.817  12.556   6.525  0.2998 -0.1065  0.1851
58293SOL    HW286605   9.879  12.678   6.460  0.3275  0.1759  0.7289
58294SOL     OW86606  11.940   4.598   3.258  0.5184  0.0738  0.2334
58294SOL    HW186607  11.871   4.650   3.300  1.4668  1.8951 -0.3616
58294SOL    HW286608  11.892   4.534   3.205 -0.7080  0.8662  0.3421
58295SOL     OW86609  12.711   1.924   6.652 -0.4166 -0.2818 -0.6743
58295SOL    HW186610  12.655   1.878   6.589  1.7524 -1.4022 -1.9193
58295SOL    HW286611  12.711   2.015   6.621 -0.2119 -0.6143 -1.7004
58296SOL     OW86612   1.815  13.337  11.919  0.5525  0.4694  0.4235
58296SOL    HW186613   1.758  13.374  11.851  1.1837 -2.8191 -2.1805
58296SOL    HW286614   1.759  13.273  11.964  1.0054  0.3833  0.8687
58297SOL     OW86615   4.495  11.952   2.330  0.1850  0.1593 -0.1659
58297SOL    HW186616   4.477  11.936   2.423  2.5319  0.0686  0.3377
58297SOL    HW286617   4.468  11.871   2.286  0.8290 -0.5630  0.7215
58298SOL     OW86618  12.192   5.520   1.187  0.9763  0.4593  0.2636
58298SOL    HW186619  12.192   5.536   1.281  0.4162 -0.8103  0.4983
58298SOL    HW286620  12.264   5.573   1.153  0.7197  1.5075  1.2935
58299SOL     OW86621   9.954   2.151   8.880  0.3035  0.4753 -0.1479
58299SOL    HW186622   9.872   2.103   8.891  0.8995 -0.3871  0.7584
58299SOL    HW286623   9.927   2.242   8.866 -0.8033  0.3026  0.6947
58300SOL     OW86624  13.311   1.141  12.472 -0.5685  0.3757 -0.0205
58300SOL    HW186625  13.300   1.212  12.534 -1.9013 -0.0315  0.2328
58300SOL    HW286626  13.261   1.167  12.394 -1.1316 -0.2937  0.1020
58301SOL     OW86627   7.791   7.239  10.623 -0.2845  0.7060  0.2523
58301SOL    HW186628   7.879   7.274  10.607 -0.0907 -0.0030 -0.2839
58301SOL    HW286629   7.773   7.263  10.714  1.7256 -1.7192  1.4101
58302SOL     OW86630   3.413   2.900   5.701  0.1678 -0.0938 -0.3638
58302SOL    HW186631   3.328   2.868   5.729 -0.2128  0.3791 -0.9719
58302SOL    HW286632   3.414   2.992   5.728  0.5672 -0.1492 -0.1783
58303SOL     OW86633  13.072   3.856   7.798  0.2051 -0.6388 -0.2206
58303SOL    HW186634  13.109   3.939   7.827 -0.4009 -0.7774  1.0448
58303SOL    HW286635  12.997   3.842   7.856  0.1411 -1.9376 -0.5806
58304SOL     OW86636   6.258   7.219   9.431  0.5852 -0.4074  0.4890
58304SOL    HW186637   6.254   7.139   9.379 -0.9100 -0.2326  0.2700
58304SOL    HW286638   6.168   7.252   9.430  1.1564  1.2296  0.6571
58305SOL     OW86639   5.288   3.690  11.692 -0.2413  0.0975 -0.0161
58305SOL    HW186640   5.295   3.600  11.725 -2.4734  0.4850  1.7916
58305SOL    HW286641   5.318   3.744  11.766  2.7748  0.9115 -1.6639
58306SOL     OW86642  11.965   0.818   4.576 -0.4106  0.2093  0.4964
58306SOL    HW186643  11.889   0.825   4.518 -0.3341 -1.1893  0.1958
58306SOL    HW286644  12.036   0.790   4.519  0.2987  1.2734  0.8217
58307SOL     OW86645   4.295   6.311  11.267 -0.5290  0.2668 -0.7199
58307SOL    HW186646   4.269   6.334  11.177  1.8430  0.6049 -1.3801
58307SOL    HW286647   4.354   6.237  11.256 -1.2686 -0.5685  0.7147
58308SOL     OW86648  10.621   3.325   1.592 -0.3672  1.0539 -0.4193
58308SOL    HW186649  10.572   3.247   1.618 -1.7765  1.6757 -1.0923
58308SOL    HW286650  10.630   3.317   1.497  3.7096 -0.6174 -0.1009
58309SOL     OW86651   0.604  10.670   8.814 -0.1751 -0.4349 -0.0561
58309SOL    HW186652   0.627  10.627   8.896  0.6704  0.0067 -0.0541
58309SOL    HW286653   0.590  10.762   8.839  0.2216 -0.2718 -0.4282
58310SOL     OW86654   5.722  13.687   9.637  0.5026 -0.0846  0.0327
58310SOL    HW186655   5.777  13.634   9.696 -0.6116  0.8525  1.9932
58310SOL    HW286656   5.632  13.662   9.659  0.0009  1.6197  0.0722
58311SOL     OW86657   3.447   2.421   3.053  0.2791 -0.1882 -0.4585
58311SOL    HW186658   3.427   2.387   2.965 -0.3574  2.6696 -1.5354
58311SOL    HW286659   3.479   2.510   3.037 -1.3063  0.9867  2.2615
58312SOL     OW86660  10.218   5.992  10.295  0.2096 -0.6974 -0.0170
58312SOL    HW186661  10.162   6.042  10.236  0.5129 -1.4979 -1.0176
58312SOL    HW286662  10.237   6.052  10.367  0.5427  0.6109 -1.1604
58313SOL     OW86663   9.569   8.153   1.013  0.0439 -0.5063  0.1146
58313SOL    HW186664   9.542   8.105   1.092 -0.3664 -2.1725 -0.9770
58313SOL    HW286665   9.639   8.099   0.976 -0.0370  0.0306 -0.8527
58314SOL     OW86666   2.338   0.940   8.700 -0.0361  0.1001 -0.8906
58314SOL    HW186667   2.357   0.995   8.624  0.6408  0.4508 -0.4845
58314SOL    HW286668   2.415   0.884   8.710  0.6891  1.2495  0.5342
58315SOL     OW86669   7.957  12.139   2.704 -0.3497 -0.1702 -0.4018
58315SOL    HW186670   8.024  12.202   2.676 -0.9902 -0.0669 -1.7952
58315SOL    HW286671   7.911  12.116   2.623 -0.8626 -1.5754  0.2683
58316SOL     OW86672   0.694  10.327   8.550 -0.8508 -0.0338  0.0198
58316SOL    HW186673   0.641  10.302   8.474 -0.2535 -1.2066 -0.0494
58316SOL    HW286674   0.679  10.421   8.561  0.7601  0.6826 -2.9297
58317SOL     OW86675   0.381   0.888   9.907  0.3073 -0.4377 -0.2388
58317SOL    HW186676   0.334   0.948   9.964  0.0443 -2.1122  1.4060
58317SOL    HW286677   0.473   0.905   9.925  0.2690 -2.4924  2.5848
58318SOL     OW86678  11.544   9.960   8.801 -0.4188  0.0828 -0.2217
58318SOL    HW186679  11.586   9.926   8.880  1.9330  2.4647 -0.2793
58318SOL    HW286680  11.516  10.049   8.826 -1.1948  0.2381 -1.5807
58319SOL     OW86681   4.188  11.944  10.478 -0.6034 -0.4476  0.2553
58319SOL    HW186682   4.281  11.919  10.471  0.5165  2.0780  3.6034
58319SOL    HW286683   4.159  11.904  10.560 -2.3760 -0.7806 -0.5052
58320SOL     OW86684   3.820   7.076   8.281 -0.8195 -0.0369 -0.3475
58320SOL    HW186685   3.750   7.088   8.217  0.2299  0.4724 -1.4443
58320SOL    HW286686   3.898   7.059   8.228 -0.3797 -2.2116  0.8711
58321SOL     OW86687   3.175   2.786   6.722  0.4319 -0.4627  0.2400
58321SOL    HW186688   3.154   2.700   6.687 -0.4433  0.8107 -2.6833
58321SOL    HW286689   3.110   2.801   6.790  0.1255 -1.7850  0.2643
58322SOL     OW86690   0.774   8.405   1.439 -0.1345  0.3696  0.3743
58322SOL    HW186691   0.844   8.352   1.480  1.0460  1.8977  0.4296
58322SOL    HW286692   0.698   8.347   1.438  0.9813 -1.1792  0.8202
58323SOL     OW86693  10.137   5.893   8.836  0.8497 -0.2604  0.6595
58323SOL    HW186694  10.142   5.985   8.810  0.2692 -0.5216 -0.4367
58323SOL    HW286695  10.063   5.858   8.787 -0.4747 -0.7484  2.8668
58324SOL     OW86696   0.854   5.721   4.048  0.4231  0.6909 -0.2640
58324SOL    HW186697   0.809   5.789   4.099 -0.8907 -1.1148  1.1513
58324SOL    HW286698   0.883   5.658   4.114  0.1161 -0.9402 -1.6218
58325SOL     OW86699  11.376   6.762   6.815  0.4663  0.1736 -0.3654
58325SOL    HW186700  11.290   6.720   6.812  0.2016  0.5495  1.0068
58325SOL    HW286701  11.359   6.848   6.853  1.2220  0.9375 -1.6812
58326SOL     OW86702   1.326  10.140   2.619  0.1122  0.3960 -0.0985
58326SOL    HW186703   1.294  10.170   2.704  1.9738 -0.1858  0.8690
58326SOL    HW286704   1.297  10.049   2.613 -1.1406  0.8249 -0.6972
58327SOL     OW86705   0.560   6.803  11.217  0.7501  0.0163  0.0955
58327SOL    HW186706   0.536   6.871  11.155  1.0138  1.6245  1.6733
58327SOL    HW286707   0.655   6.805  11.220  0.7908 -0.8233 -0.2336
58328SOL     OW86708   6.647   1.009  12.030 -0.3583  0.0838  0.5124
58328SOL    HW186709   6.553   1.021  12.045 -0.1138  0.4119  1.8927
58328SOL    HW286710   6.685   1.095  12.051  0.0874  0.5309 -1.8077
58329SOL     OW86711  12.532   7.485   9.058 -0.3537 -0.0889 -0.6407
58329SOL    HW186712  12.513   7.392   9.063 -2.5405  0.3552  0.2409
58329SOL    HW286713  12.453   7.525   9.022 -0.2969  1.6267  0.9345
58330SOL     OW86714   9.352  10.453   5.380  0.2313 -0.5940 -0.3784
58330SOL    HW186715   9.409  10.388   5.340 -0.8705 -2.0203  0.2734
58330SOL    HW286716   9.406  10.532   5.387  2.2252 -1.9571  0.4604
58331SOL     OW86717  11.756   6.301   7.408  0.0701 -0.2794  0.2934
58331SOL    HW186718  11.793   6.386   7.381  2.2711 -0.4108  2.4579
58331SOL    HW286719  11.828   6.239   7.395 -0.4964 -1.2345  1.4978
58332SOL     OW86720   0.655  12.866   1.949 -0.0772  0.2396 -0.9538
58332SOL    HW186721   0.598  12.890   2.022  1.3902  0.6597  0.0930
58332SOL    HW286722   0.597  12.823   1.886 -1.3478 -0.2962  0.5386
58333SOL     OW86723   4.541  13.010   7.640  0.1261 -0.5642  0.0375
58333SOL    HW186724   4.615  13.019   7.700  0.6843 -0.0560 -0.7104
58333SOL    HW286725   4.486  13.086   7.658 -0.9844 -1.6485  1.5763
58334SOL     OW86726   7.655  10.695   0.674 -0.0378  0.4149 -0.0218
58334SOL    HW186727   7.654  10.623   0.611  0.5308  0.3146  0.0782
58334SOL    HW286728   7.679  10.772   0.623 -1.5536  0.7339 -0.3158
58335SOL     OW86729   2.390   1.279   9.197 -0.8953 -0.2538 -0.2633
58335SOL    HW186730   2.406   1.187   9.178  1.6764 -0.0879  0.7436
58335SOL    HW286731   2.397   1.323   9.112 -1.8183 -0.9138 -0.6993
58336SOL     OW86732  10.385   1.435  11.394 -0.0645 -0.0481  0.2548
58336SOL    HW186733  10.330   1.359  11.412  0.5785 -0.6215 -0.1341
58336SOL    HW286734  10.372   1.453  11.301 -0.5718  0.6222  0.4449
58337SOL     OW86735   8.627  11.892   5.492  0.1749  0.1392  0.4745
58337SOL    HW186736   8.674  11.896   5.409 -0.1007 -1.1940  0.2364
58337SOL    HW286737   8.539  11.864   5.469 -0.2538  0.9458  1.0979
58338SOL     OW86738   1.023   9.600   8.692 -0.1511 -0.3380 -0.5023
58338SOL    HW186739   0.952   9.537   8.680 -0.6796  0.3604 -1.1300
58338SOL    HW286740   0.981   9.686   8.685  0.2699  0.1330  1.9747
58339SOL     OW86741   1.428  11.691   0.518 -0.0866  0.1777 -0.2616
58339SOL    HW186742   1.519  11.690   0.488 -0.2204  1.5948 -0.7841
58339SOL    HW286743   1.410  11.600   0.542  1.0106 -0.4171 -1.5450
58340SOL     OW86744   3.720   5.281  12.441 -0.3649 -0.0777  0.4640
58340SOL    HW186745   3.648   5.224  12.415  0.0587 -0.2516 -0.3540
58340SOL    HW286746   3.715   5.283  12.537 -2.2433  0.9591  0.3931
58341SOL     OW86747   5.332  12.960  10.252  0.2528  0.5140 -0.9110
58341SOL    HW186748   5.312  12.991  10.164 -1.3221  2.4017  0.0299
58341SOL    HW286749   5.268  12.891  10.268 -2.0003  2.6066 -0.0479
58342SOL     OW86750   6.023   7.259   7.073  0.0145  0.2624  0.0270
58342SOL    HW186751   6.096   7.204   7.045  0.0150  0.6491 -0.7639
58342SOL    HW286752   6.033   7.266   7.167 -0.3817 -1.6687  0.2517
58343SOL     OW86753   2.617   9.820   3.636  0.5305 -0.3318  0.1037
58343SOL    HW186754   2.709   9.812   3.608  0.2335 -1.5051 -0.6227
58343SOL    HW286755   2.567   9.782   3.563 -0.5284  0.1147  0.5790
58344SOL     OW86756   5.334   6.517   4.165  0.4728 -0.0566 -0.2974
58344SOL    HW186757   5.317   6.572   4.241  1.7742  0.9734 -0.7179
58344SOL    HW286758   5.370   6.577   4.099  2.9531 -1.5078 -0.4153
58345SOL     OW86759   0.165   3.945   2.180  0.1965 -0.5733  0.2217
58345SOL    HW186760   0.189   4.011   2.245 -1.8389 -0.0974  0.5467
58345SOL    HW286761   0.216   3.969   2.102 -0.3231  1.2846  0.4066
58346SOL     OW86762   1.643   1.782   4.980  0.5390  0.1988 -0.5307
58346SOL    HW186763   1.620   1.723   5.052  1.6182  1.0109  0.5180
58346SOL    HW286764   1.669   1.864   5.022 -0.3356  1.2423 -1.9301
58347SOL     OW86765  13.515  11.477   2.208 -0.2860  0.0385  0.1570
58347SOL    HW186766  13.439  11.462   2.152  0.1939 -1.9807 -0.0386
58347SOL    HW286767  13.590  11.473   2.148  0.1554 -1.1167  0.7480
58348SOL     OW86768  10.110  12.666   2.184 -0.3005 -0.0854 -0.6841
58348SOL    HW186769  10.151  12.581   2.197  0.2627  0.2066 -0.5498
58348SOL    HW286770  10.018  12.652   2.209 -0.7431 -1.1993 -2.7276
58349SOL     OW86771   6.389  12.701  11.901  0.0529 -0.3732  0.4264
58349SOL    HW186772   6.431  12.725  11.984 -0.7116 -0.7733  0.9440
58349SOL    HW286773   6.430  12.758  11.837 -1.5879  2.2759  1.5776
58350SOL     OW86774   0.326  12.133  12.617 -0.4819  0.2337 -0.0210
58350SOL    HW186775   0.346  12.226  12.602  0.2648  0.2856  1.1926
58350SOL    HW286776   0.256  12.114  12.554 -1.4133  1.9177  0.4296
58351SOL     OW86777   0.115   5.448  10.827  0.2252 -0.2796  0.0856
58351SOL    HW186778   0.178   5.429  10.757  0.6513  1.1530  0.0468
58351SOL    HW286779   0.036   5.401  10.800  0.1338  0.8292 -1.7800
58352SOL     OW86780  11.162   0.500  11.125 -0.3949 -0.1431 -0.5881
58352SOL    HW186781  11.257   0.500  11.134 -0.5099  0.5053  0.8898
58352SOL    HW286782  11.143   0.575  11.068 -0.2024  2.2382  2.2423
58353SOL     OW86783   8.341  13.363   6.948  0.4740 -0.2297  0.0918
58353SOL    HW186784   8.289  13.326   6.876  0.6831 -2.8139  1.1348
58353SOL    HW286785   8.311  13.315   7.026  4.7193 -2.4369  0.6645
58354SOL     OW86786   6.667  12.464  12.445 -0.7096  0.7558  0.4565
58354SOL    HW186787   6.591  12.420  12.482 -1.5494  0.1566 -1.7936
58354SOL    HW286788   6.677  12.543  12.497 -0.9941 -0.5975  2.7157
58355SOL     OW86789  11.200   9.568  11.338  0.3846  0.2187  0.4263
58355SOL    HW186790  11.121   9.526  11.304 -1.9158  4.0815  0.3991
58355SOL    HW286791  11.262   9.565  11.265  0.5612 -3.2202  0.5630
58356SOL     OW86792   3.704   8.171   8.679  0.1888 -0.2655 -0.4141
58356SOL    HW186793   3.640   8.118   8.726  0.7120  0.7132  1.4823
58356SOL    HW286794   3.763   8.107   8.640 -1.5743 -1.1695 -1.7505
58357SOL     OW86795  11.803   6.911   9.094 -0.2613  0.2516  0.2123
58357SOL    HW186796  11.724   6.857   9.095 -0.2112  0.1808  0.4730
58357SOL    HW286797  11.804   6.952   9.008  0.6744 -1.5718 -0.6866
58358SOL     OW86798   4.248   0.761   0.811 -0.6452  0.2043  0.0846
58358SOL    HW186799   4.204   0.846   0.811  0.7474  0.9742 -1.5547
58358SOL    HW286800   4.191   0.705   0.758  0.0981  1.1161 -1.7778
58359SOL     OW86801   2.905   1.664   6.240  0.1168 -0.1730 -0.5113
58359SOL    HW186802   2.830   1.686   6.295 -0.0759 -0.5279 -0.6313
58359SOL    HW286803   2.868   1.628   6.160  0.4177 -0.7551 -0.3963
58360SOL     OW86804   1.728   1.329   3.914 -0.5078  0.0588  0.0742
58360SOL    HW186805   1.748   1.315   3.821 -1.6158 -0.8287 -0.0582
58360SOL    HW286806   1.781   1.263   3.959  1.5075  1.7163  0.2835
58361SOL     OW86807   1.563  10.425   9.631 -0.0508  0.4073 -0.0633
58361SOL    HW186808   1.606  10.362   9.573 -0.5496 -0.3065  0.3192
58361SOL    HW286809   1.559  10.380   9.716  0.6276  1.4080  0.5314
58362SOL     OW86810   5.506  13.301   6.158  0.5131  0.8302  0.4472
58362SOL    HW186811   5.443  13.343   6.216  0.4434  0.5006  0.6087
58362SOL    HW286812   5.583  13.358   6.161  0.1974  1.2763  0.1872
58363SOL     OW86813  13.417   7.505  11.485  0.3774  0.0949 -0.1395
58363SOL    HW186814  13.352   7.489  11.416  0.4133  0.4450 -0.2580
58363SOL    HW286815  13.499   7.518  11.437  0.6879 -1.0744  0.0450
58364SOL     OW86816   9.289  10.054  13.643 -0.3122  0.4073  0.0014
58364SOL    HW186817   9.317  10.092  13.560 -2.1767 -1.3860 -1.5437
58364SOL    HW286818   9.195  10.068  13.646 -0.0489  2.3514  2.9325
58365SOL     OW86819   6.340  11.559   0.637 -0.1948 -0.6417  0.3740
58365SOL    HW186820   6.413  11.567   0.698  1.0865 -0.4567 -1.1283
58365SOL    HW286821   6.376  11.514   0.561 -0.9184  1.7307 -1.5003
58366SOL     OW86822   0.097   6.515   0.950 -0.0644  0.1857  0.2157
58366SOL    HW186823   0.182   6.471   0.957  0.8946  1.9939  0.7892
58366SOL    HW286824   0.094   6.572   1.027 -2.1119 -0.2949  0.5422
58367SOL     OW86825   5.824  11.988   9.814 -0.2734 -0.2433 -0.4131
58367SOL    HW186826   5.898  11.990   9.753  0.0261 -0.0094 -0.0414
58367SOL    HW286827   5.749  11.962   9.760  0.1460 -0.8278 -0.7182
58368SOL     OW86828   8.217   0.810  11.758  0.5396  0.2181 -0.3374
58368SOL    HW186829   8.186   0.885  11.706 -1.3995 -0.0199  0.3776
58368SOL    HW286830   8.162   0.811  11.836  0.6463 -1.7760 -0.1763
58369SOL     OW86831  10.053   7.975  11.114 -0.3383 -0.0221  0.3376
58369SOL    HW186832  10.062   7.880  11.119  1.4696  0.1885  2.1119
58369SOL    HW286833  10.028   7.992  11.023 -3.4310 -2.3273  0.5836
58370SOL     OW86834   3.710   0.339   1.009  0.0758  0.1697 -0.2975
58370SOL    HW186835   3.767   0.386   1.070  2.5867 -3.0828  0.1805
58370SOL    HW286836   3.770   0.295   0.949 -2.2196  0.6830 -3.1985
58371SOL     OW86837  13.056   4.646   3.441 -0.0707 -0.0615 -0.1251
58371SOL    HW186838  13.086   4.584   3.375  1.6620  0.4399  0.1353
58371SOL    HW286839  12.990   4.700   3.396 -0.7216 -1.2923 -0.6866
58372SOL     OW86840  13.078  12.529   8.033 -0.4697  0.0631 -0.2702
58372SOL    HW186841  13.170  12.528   8.007 -0.6667 -0.3531 -0.9707
58372SOL    HW286842  13.032  12.566   7.958 -0.9827 -0.6124 -0.2958
58373SOL     OW86843  12.401   9.804   6.755  0.0894 -0.1717  0.4045
58373SOL    HW186844  12.329   9.807   6.691  0.0287  0.0474  0.4819
58373SOL    HW286845  12.478   9.834   6.706  0.0586 -0.0777  0.4124
58374SOL     OW86846  12.039   9.155   1.118 -0.5716  0.1955  0.0674
58374SOL    HW186847  12.093   9.232   1.102 -0.9600  0.2331 -1.2036
58374SOL    HW286848  12.091   9.081   1.086 -1.7558  0.3707 -2.6131
58375SOL     OW86849  13.360   5.028   5.751 -0.0843  0.1085  0.2651
58375SOL    HW186850  13.441   5.079   5.758  0.8724 -1.3571  0.3261
58375SOL    HW286851  13.291   5.094   5.744  1.1598  1.4011 -0.4188
58376SOL     OW86852  10.512   5.982   3.780 -0.2051 -0.2692 -0.1366
58376SOL    HW186853  10.494   6.063   3.828  1.4720  0.0112  0.0982
58376SOL    HW286854  10.436   5.970   3.723 -1.7936 -0.0571  1.8180
58377SOL     OW86855   4.649  13.050   0.828 -0.1707  0.5988 -0.8903
58377SOL    HW186856   4.587  13.079   0.761 -0.5125  0.1660 -0.7636
58377SOL    HW286857   4.705  13.126   0.842 -1.9000  1.6958  0.4398
58378SOL     OW86858   7.579  10.337  11.393 -0.6342  0.0703 -0.5697
58378SOL    HW186859   7.620  10.255  11.417 -0.4480  0.5583  0.8578
58378SOL    HW286860   7.576  10.388  11.474  0.6135  2.0589 -1.6871
58379SOL     OW86861   3.370  11.063   4.668 -0.1705  0.1329  0.1169
58379SOL    HW186862   3.386  10.969   4.659  0.8321  0.1937  1.0851
58379SOL    HW286863   3.311  11.070   4.744  0.7545  0.3471  0.8332
58380SOL     OW86864   1.936   0.094   2.651 -1.0182 -0.2598  0.0191
58380SOL    HW186865   1.865   0.150   2.682  0.2190  0.1941  2.1970
58380SOL    HW286866   2.008   0.110   2.711  0.3406 -2.0991 -1.0047
58381SOL     OW86867   5.454  12.061   9.949  0.0150  0.0561 -0.0738
58381SOL    HW186868   5.421  12.115   9.878 -0.2094  2.6195  1.8330
58381SOL    HW286869   5.544  12.091   9.962  0.2719 -0.8343  0.2929
58382SOL     OW86870   9.877   2.008  10.893 -0.2966  0.7453 -0.1755
58382SOL    HW186871   9.804   2.046  10.844 -0.6377  1.1342  0.6255
58382SOL    HW286872   9.955   2.035  10.844 -0.6774  0.1795 -1.1404
58383SOL     OW86873   9.386  12.317   7.127  0.6033  0.0445  0.0332
58383SOL    HW186874   9.418  12.388   7.072 -0.2439  0.0426 -0.4707
58383SOL    HW286875   9.425  12.334   7.213  0.3421  1.1596 -0.0549
58384SOL     OW86876   1.984  10.893  11.382  0.3297  0.1552 -0.4348
58384SOL    HW186877   1.890  10.912  11.392  0.6601  2.5793 -1.2505
58384SOL    HW286878   2.011  10.860  11.468 -0.9845  0.8571  0.2845
58385SOL     OW86879   6.560  12.071   1.388  0.0320  0.0537  0.1786
58385SOL    HW186880   6.563  12.135   1.316  1.2294 -1.4929 -1.2044
58385SOL    HW286881   6.473  12.032   1.380 -0.0656  0.3072 -0.0463
58386SOL     OW86882  13.524   1.614   0.180  0.0338 -1.2257  0.1189
58386SOL    HW186883  13.589   1.618   0.250  0.3175  0.5250 -0.2109
58386SOL    HW286884  13.570   1.645   0.102 -1.6129  2.0241  0.2674
58387SOL     OW86885   3.135   1.581   9.311 -0.3177  0.1086  0.1610
58387SOL    HW186886   3.153   1.627   9.393  0.1532  0.0857  0.0741
58387SOL    HW286887   3.044   1.551   9.320  0.0520 -0.8033  1.1237
58388SOL     OW86888  10.608   8.474   1.188 -0.0909  0.2577 -0.2074
58388SOL    HW186889  10.697   8.456   1.221 -0.7911  2.6171  3.6123
58388SOL    HW286890  10.551   8.458   1.263 -2.6125  1.2491 -1.7886
58389SOL     OW86891   9.654  11.124   2.823 -0.3297  0.8932 -0.0906
58389SOL    HW186892   9.642  11.091   2.734  0.3912  1.2466 -0.3257
58389SOL    HW286893   9.711  11.201   2.813  1.5873 -0.3189  0.8883
58390SOL     OW86894   8.312  11.389   7.275  0.2682 -0.3951  0.2751
58390SOL    HW186895   8.288  11.475   7.242 -0.8495 -0.5754  0.5885
58390SOL    HW286896   8.407  11.393   7.286 -0.0300  1.9657  3.4727
58391SOL     OW86897  11.260   1.170   4.511 -0.3215 -0.6669  0.0377
58391SOL    HW186898  11.198   1.180   4.440  0.1220 -0.3271 -0.3035
58391SOL    HW286899  11.207   1.176   4.591 -0.9085 -1.6389 -0.2574
58392SOL     OW86900   5.930   8.024  12.502  0.0647 -0.1724 -0.3009
58392SOL    HW186901   5.839   7.994  12.501  0.1414 -0.9411  3.1654
58392SOL    HW286902   5.926   8.114  12.534  0.5652 -1.4047  3.7474
58393SOL     OW86903   2.117   5.558  11.209  0.1965 -0.7155  0.3238
58393SOL    HW186904   2.157   5.636  11.248 -0.4306 -0.3290  0.2116
58393SOL    HW286905   2.023   5.568  11.226 -0.4576  0.6286 -3.1551
58394SOL     OW86906   1.875   6.453   5.392 -0.2259  0.0490  0.0073
58394SOL    HW186907   1.781   6.446   5.381 -0.4851 -2.0310  2.6074
58394SOL    HW286908   1.908   6.365   5.380  1.5529  0.8747 -1.6566
58395SOL     OW86909   4.045   3.470   2.818 -0.1907 -0.2305 -0.8197
58395SOL    HW186910   4.027   3.377   2.824  0.0802 -0.3179 -1.2905
58395SOL    HW286911   4.017   3.506   2.903 -0.1115 -0.7668 -0.5629
58396SOL     OW86912   3.986   4.444   0.721  0.4305  0.5046 -0.3503
58396SOL    HW186913   3.909   4.449   0.778  0.6247  1.4283 -0.1640
58396SOL    HW286914   3.990   4.352   0.696 -0.8812  0.4870 -0.5695
58397SOL     OW86915   3.766   9.425   8.333 -0.3118  0.2625  0.0418
58397SOL    HW186916   3.785   9.425   8.427  0.2950  0.0108 -0.0751
58397SOL    HW286917   3.841   9.469   8.293 -2.2787  3.9274 -0.0379
58398SOL     OW86918   8.637   0.063  11.355  0.4934 -0.7364  0.2606
58398SOL    HW186919   8.661   0.048  11.447  1.4006 -0.4881  0.0792
58398SOL    HW286920   8.711   0.112  11.319 -0.6046  0.6900 -0.1702
58399SOL     OW86921  10.404  10.584   4.405  0.1066  0.7228 -0.6048
58399SOL    HW186922  10.356  10.509   4.369 -2.0872  1.7750 -0.0065
58399SOL    HW286923  10.469  10.545   4.464 -1.5762 -0.7040  0.3874
58400SOL     OW86924   9.850   5.529   1.552 -0.6412  0.1209  0.1260
58400SOL    HW186925   9.909   5.549   1.624 -1.7277  0.5509  0.9234
58400SOL    HW286926   9.885   5.448   1.514  0.7508  0.6552  0.2169
58401SOL     OW86927   9.383   2.656   9.871 -0.1526  0.0621  0.1848
58401SOL    HW186928   9.416   2.739   9.837 -1.2790  1.1554  1.6067
58401SOL    HW286929   9.288   2.661   9.858 -0.3424 -0.5754  1.1545
58402SOL     OW86930  11.769  11.653   9.627 -0.3773  0.0749 -0.3099
58402SOL    HW186931  11.804  11.738   9.652 -2.2526  0.7590  0.1853
58402SOL    HW286932  11.800  11.593   9.694 -2.2463  1.1744  1.6833
58403SOL     OW86933   5.779   8.000   6.429  0.8127  0.0106 -0.6466
58403SOL    HW186934   5.835   7.923   6.417 -1.8453 -2.0782 -0.7959
58403SOL    HW286935   5.777   8.042   6.344  0.7449 -0.9508 -1.1390
58404SOL     OW86936  12.473   0.229   9.066 -0.5068  0.2034 -0.2494
58404SOL    HW186937  12.522   0.153   9.097 -0.4583 -0.0725 -1.0064
58404SOL    HW286938  12.471   0.288   9.142  0.0129 -0.2697  0.1404
58405SOL     OW86939   1.322  10.924   4.592 -0.5940 -0.4116  0.1641
58405SOL    HW186940   1.275  11.007   4.589 -0.7090 -0.5101 -1.6078
58405SOL    HW286941   1.305  10.883   4.507  1.7062 -0.9840 -0.0853
58406SOL     OW86942   6.531   1.648   2.162  0.0515  0.1908 -0.1973
58406SOL    HW186943   6.527   1.741   2.184 -0.0738 -0.2971  2.0980
58406SOL    HW286944   6.597   1.642   2.094 -0.0351  1.9735 -0.4825
58407SOL     OW86945   3.595   9.787   7.342  0.3408  0.5603 -0.4558
58407SOL    HW186946   3.608   9.710   7.287 -1.9892  0.4362 -0.9333
58407SOL    HW286947   3.583   9.752   7.430 -0.4446  0.3608 -0.6307
58408SOL     OW86948   9.613   6.610   2.504 -0.1477  0.3075 -0.2396
58408SOL    HW186949   9.570   6.563   2.576 -1.1879 -0.9702 -1.6236
58408SOL    HW286950   9.549   6.674   2.475  0.1326  0.5791 -0.2661
58409SOL     OW86951  10.402   9.678  11.658 -0.3241 -0.4627  0.1704
58409SOL    HW186952  10.314   9.715  11.658 -1.3637 -2.4131 -3.6693
58409SOL    HW286953  10.451   9.735  11.598  0.0106 -1.2830 -0.3601
58410SOL     OW86954   2.053   1.709   0.765 -0.4012 -0.3021  0.5284
58410SOL    HW186955   1.959   1.722   0.766 -0.6093 -1.0528 -1.9243
58410SOL    HW286956   2.076   1.687   0.855 -2.9659 -2.4955  0.7576
58411SOL     OW86957   3.140   9.524   0.477 -0.5502 -0.8125  0.2653
58411SOL    HW186958   3.049   9.539   0.501 -1.1728 -3.5377 -0.0304
58411SOL    HW286959   3.140   9.438   0.435  2.0221 -0.4638 -0.6592
58412SOL     OW86960   5.515   3.602  13.375 -0.4578 -0.1515 -0.5442
58412SOL    HW186961   5.434   3.552  13.390 -1.5568  2.1014  1.9379
58412SOL    HW286962   5.489   3.671  13.315 -0.4605  0.6596  0.3671
58413SOL     OW86963   3.277  13.366  13.082  0.5029 -0.1460 -0.0202
58413SOL    HW186964   3.322  13.332  13.160 -1.1724  0.2053  1.1671
58413SOL    HW286965   3.229  13.292  13.048  0.0407  0.0577  0.1822
58414SOL     OW86966   3.457   0.453   4.946 -0.0839 -0.2426  0.1836
58414SOL    HW186967   3.422   0.528   4.994  0.5726  1.0319 -1.2407
58414SOL    HW286968   3.386   0.426   4.888  0.0990  0.1102 -0.2117
58415SOL     OW86969  13.576   9.277   1.502  0.1314 -0.2210 -0.0196
58415SOL    HW186970  13.537   9.330   1.433  0.7375 -2.0176 -1.8648
58415SOL    HW286971  13.670   9.280   1.485  0.4034  0.1584  1.4185
58416SOL     OW86972   6.274  13.199   6.545  0.7491 -0.2686  0.1848
58416SOL    HW186973   6.328  13.147   6.605  2.1458 -1.9622 -2.3174
58416SOL    HW286974   6.334  13.263   6.507  0.7983 -1.3329 -1.6915
58417SOL     OW86975   1.935  12.772   9.072 -0.5629 -0.5300 -0.4237
58417SOL    HW186976   2.011  12.765   9.130  0.5123 -0.2725 -1.7606
58417SOL    HW286977   1.915  12.865   9.069 -1.6552 -0.7007  0.7927
58418SOL     OW86978  12.205   0.821   8.584  0.0325 -0.6892 -0.4111
58418SOL    HW186979  12.122   0.854   8.551 -0.9518 -3.5170 -1.0590
58418SOL    HW286980  12.237   0.764   8.514  1.1285 -1.8043  0.9439
58419SOL     OW86981   8.035   2.174  13.448  0.0201  0.0362 -0.7175
58419SOL    HW186982   7.942   2.157  13.465  0.0384 -0.8683 -1.4351
58419SOL    HW286983   8.067   2.216  13.528 -1.1326  0.8881 -0.6938
58420SOL     OW86984   9.027  13.189  11.032 -0.3471  0.2042 -0.2199
58420SOL    HW186985   8.962  13.177  11.101  0.2816  0.5572  0.4396
58420SOL    HW286986   9.046  13.282  11.033  0.8341 -0.0214  0.2155
58421SOL     OW86987   5.792   6.093   0.924 -0.2797  0.0624  0.3452
58421SOL    HW186988   5.859   6.141   0.973  0.0315  0.9289 -0.8644
58421SOL    HW286989   5.736   6.053   0.991  1.3660 -0.5801  1.3761
58422SOL     OW86990   1.821  13.461   2.437 -0.5045  0.1805 -0.1593
58422SOL    HW186991   1.789  13.539   2.483 -1.8026 -0.5121  0.1617
58422SOL    HW286992   1.814  13.483   2.344 -1.0381  0.3902 -0.0719
58423SOL     OW86993  12.585   6.696   5.682  0.4465 -0.6655 -0.2997
58423SOL    HW186994  12.559   6.747   5.606 -1.4681 -1.5256 -0.2770
58423SOL    HW286995  12.613   6.612   5.646 -1.7950 -1.5956 -0.0647
58424SOL     OW86996  13.290   5.646   4.994  0.0854  0.0399 -0.3238
58424SOL    HW186997  13.264   5.727   5.038  0.7318 -0.0246  0.1874
58424SOL    HW286998  13.339   5.597   5.060 -2.0124 -1.6938  0.0337
58425SOL     OW86999   5.873   1.137   7.491  0.1157 -0.4685  0.1189
58425SOL    HW187000   5.868   1.121   7.585 -0.7171 -1.9481 -0.1395
58425SOL    HW287001   5.963   1.115   7.467  0.1589 -0.6858  0.4788
58426SOL     OW87002   0.506   7.212   5.553  0.3043  0.0121 -0.0210
58426SOL    HW187003   0.420   7.222   5.512  0.2780 -1.9334 -0.5590
58426SOL    HW287004   0.509   7.120   5.580  2.6483 -0.2834 -1.0509
58427SOL     OW87005  11.676  11.463  11.703  0.6449  0.1057 -0.1236
58427SOL    HW187006  11.765  11.459  11.668  1.5280 -0.2694  1.9856
58427SOL    HW287007  11.644  11.373  11.696  1.2265 -0.2074  0.9177
58428SOL     OW87008   5.609   1.766   1.287 -0.0562  0.2669 -0.1074
58428SOL    HW187009   5.552   1.794   1.215 -0.1270 -1.1340 -0.6329
58428SOL    HW287010   5.551   1.716   1.345  0.3348  0.0331  0.0862
58429SOL     OW87011   0.549   6.486   1.107 -0.1668 -0.2912  0.0492
58429SOL    HW187012   0.611   6.413   1.093 -0.2944 -0.6220  1.1358
58429SOL    HW287013   0.492   6.456   1.178 -2.0454 -0.2807 -1.3743
58430SOL     OW87014   9.038  10.875  12.887  0.3943  0.4950 -0.0365
58430SOL    HW187015   9.023  10.834  12.973 -2.1494  2.3864  0.5322
58430SOL    HW287016   8.971  10.836  12.831 -0.4906  2.0343 -0.1011
58431SOL     OW87017  11.138   6.357   0.927  0.3610 -0.4727 -0.5095
58431SOL    HW187018  11.135   6.414   1.004  2.5086 -0.5694 -0.3017
58431SOL    HW287019  11.115   6.415   0.854  0.5393  0.1834 -0.0586
58432SOL     OW87020   3.297   0.024  13.123 -0.2619  0.1292 -0.3121
58432SOL    HW187021   3.365   0.041  13.189 -0.0672  1.2413 -0.7703
58432SOL    HW287022   3.217   0.062  13.160 -0.3602 -0.0772 -0.3110
58433SOL     OW87023   6.132   3.490   5.114 -0.2459 -0.0460  0.0272
58433SOL    HW187024   6.167   3.412   5.071 -0.1282 -0.6694  1.1876
58433SOL    HW287025   6.053   3.512   5.065 -0.6132 -1.2746  0.0305
58434SOL     OW87026  10.989   6.081  11.968 -0.5008 -0.5034 -0.7440
58434SOL    HW187027  11.080   6.077  11.998 -1.2894 -0.1262  2.0106
58434SOL    HW287028  10.957   5.991  11.974 -0.5027 -0.5193 -0.9990
58435SOL     OW87029   1.138   5.761   0.357  0.0040  0.6588  0.6082
58435SOL    HW187030   1.197   5.836   0.362  0.6821  0.3768 -1.8430
58435SOL    HW287031   1.109   5.759   0.266  0.5337 -2.4188  0.3953
58436SOL     OW87032   7.225   9.259  10.054 -0.2509  0.4041 -0.2990
58436SOL    HW187033   7.212   9.341  10.006  2.7418  0.8379 -0.5699
58436SOL    HW287034   7.235   9.193   9.985  1.0150  0.4957 -0.2216
58437SOL     OW87035   7.724   9.376   0.993 -0.0810 -0.3618 -0.5847
58437SOL    HW187036   7.766   9.422   1.065  0.5937 -1.1055 -0.4921
58437SOL    HW287037   7.721   9.440   0.922 -2.8403  1.1624  0.7567
58438SOL     OW87038   6.494   7.476   6.402  0.1459 -0.3396  0.1526
58438SOL    HW187039   6.512   7.570   6.393 -0.0995 -0.2488  0.5814
58438SOL    HW287040   6.525   7.455   6.491 -0.8555 -0.4149  0.4947
58439SOL     OW87041  13.139   6.938   4.233  0.3028  0.1261  0.3247
58439SOL    HW187042  13.116   6.955   4.141  0.3404 -0.7982  0.1316
58439SOL    HW287043  13.125   6.844   4.243 -1.5386  0.4939  1.7981
58440SOL     OW87044   9.530  10.787  12.228  0.2403  0.0399  0.2192
58440SOL    HW187045   9.533  10.805  12.134  0.8194 -0.1142  0.2073
58440SOL    HW287046   9.437  10.771  12.246 -0.0966  1.5232 -0.0432
58441SOL     OW87047   0.000  11.248  11.482 -0.4975  0.2118  0.1301
58441SOL    HW187048  -0.062  11.183  11.515  1.0485 -1.7785 -0.6598
58441SOL    HW287049   0.022  11.219  11.394 -0.4362  2.3633 -0.6222
58442SOL     OW87050   0.080   9.442  11.126  0.6396 -0.1235 -0.0044
58442SOL    HW187051   0.140   9.510  11.094  0.0559 -0.0036 -0.8778
58442SOL    HW287052   0.051   9.474  11.211  0.6332  0.5531 -0.2549
58443SOL     OW87053   5.733   0.441   6.893  0.5290 -0.0255 -0.0548
58443SOL    HW187054   5.763   0.411   6.807  0.4115 -1.0019  0.2345
58443SOL    HW287055   5.785   0.391   6.956 -1.2498 -1.3344  0.4487
58444SOL     OW87056   2.933   0.901  10.547 -0.2374  0.5781  0.3373
58444SOL    HW187057   2.921   0.863  10.634 -1.5814  0.5412  0.1581
58444SOL    HW287058   2.914   0.994  10.559 -1.4624  0.3935 -0.1129
58445SOL     OW87059   7.234   3.372   9.668  0.1530 -0.5993  0.4841
58445SOL    HW187060   7.282   3.315   9.728  1.7220 -1.7832 -1.7463
58445SOL    HW287061   7.270   3.352   9.582 -2.5431  0.4376 -1.0049
58446SOL     OW87062   4.499   9.404   7.162 -0.7496 -0.2956  0.1074
58446SOL    HW187063   4.490   9.494   7.194 -1.5014  0.1010 -1.1358
58446SOL    HW287064   4.506   9.351   7.241  2.4472  1.0546  0.9378
58447SOL     OW87065  10.467   7.087  10.175 -0.1752 -0.4151  0.3303
58447SOL    HW187066  10.405   7.040  10.232  0.7105 -1.3737  0.5315
58447SOL    HW287067  10.518   7.018  10.134  2.1516  0.3608  1.7283
58448SOL     OW87068   6.482  11.796  11.489  0.1794  0.5351  0.0340
58448SOL    HW187069   6.386  11.795  11.485  0.1374  0.4050  0.9308
58448SOL    HW287070   6.509  11.822  11.401 -0.6063 -2.5564 -1.2397
58449SOL     OW87071   2.177  11.562   7.380  0.0135  0.4349 -0.3556
58449SOL    HW187072   2.118  11.493   7.409  0.9246 -0.2349 -0.0323
58449SOL    HW287073   2.144  11.641   7.423  1.2962 -0.5168  2.6415
58450SOL     OW87074   6.671  11.787   4.757 -0.1485  0.0120  0.2801
58450SOL    HW187075   6.735  11.828   4.816  0.8811  0.4941 -1.1085
58450SOL    HW287076   6.643  11.858   4.699 -0.9653 -0.4956  0.0385
58451SOL     OW87077   6.256  13.314   5.859 -0.0414  0.1383 -0.2502
58451SOL    HW187078   6.166  13.282   5.866 -0.1015  0.0823 -1.1300
58451SOL    HW287079   6.249  13.396   5.809  0.4311 -0.0963 -0.7199
58452SOL     OW87080  13.411   6.661  11.021 -0.0612 -0.3549 -0.2636
58452SOL    HW187081  13.497   6.675  11.062 -0.3648  0.3740  0.1378
58452SOL    HW287082  13.355   6.633  11.094 -0.0022 -1.5733 -0.6551
58453SOL     OW87083   0.285  10.871   1.695 -0.2051  0.2023  0.1586
58453SOL    HW187084   0.342  10.921   1.636  0.1426  0.8730  1.0445
58453SOL    HW287085   0.224  10.936   1.731 -0.4969 -0.2200  0.4426
58454SOL     OW87086   4.931  13.480   1.739  0.8554 -0.3262 -0.0102
58454SOL    HW187087   4.928  13.573   1.719 -3.1065 -0.7810 -2.5915
58454SOL    HW287088   4.953  13.438   1.656 -1.7047 -1.7513 -0.0681
58455SOL     OW87089  10.579   6.955   9.208  0.2668 -0.3648 -0.1496
58455SOL    HW187090  10.599   6.998   9.291  0.4514  0.0433 -0.4031
58455SOL    HW287091  10.611   7.016   9.141  0.2219 -0.7417 -0.5175
58456SOL     OW87092   1.721   8.427   3.491  0.5306 -0.3191 -0.5598
58456SOL    HW187093   1.768   8.383   3.420 -1.2146 -2.9306 -0.2354
58456SOL    HW287094   1.659   8.362   3.523  0.6701  1.0500  2.8779
58457SOL     OW87095   7.231   6.492  10.476  0.3926  0.8229 -0.3218
58457SOL    HW187096   7.181   6.536  10.544  1.5172  1.5813  0.0460
58457SOL    HW287097   7.165   6.444  10.425 -0.8316  2.5902 -0.4801
58458SOL     OW87098   9.613   1.110   7.604  0.8332  0.2052 -0.6357
58458SOL    HW187099   9.519   1.122   7.596  0.7805 -0.6348 -1.4226
58458SOL    HW287100   9.649   1.147   7.524  1.3835  2.3726  0.5329
58459SOL     OW87101   9.131  11.125  12.232 -0.3634  0.9378 -0.3131
58459SOL    HW187102   9.079  11.194  12.191 -1.6425 -0.4288 -1.1080
58459SOL    HW287103   9.067  11.067  12.273  0.5507 -0.5124 -0.8380
58460SOL     OW87104   6.689   6.941   7.477  0.2816  0.2979  0.2882
58460SOL    HW187105   6.624   6.994   7.431 -0.8901  0.6162  2.1956
58460SOL    HW287106   6.703   6.988   7.560  1.4616 -0.8102  0.7456
58461SOL     OW87107   0.193   9.931   9.932  0.1152  0.1576  0.1875
58461SOL    HW187108   0.104   9.898   9.921  0.1569 -0.2367  0.9250
58461SOL    HW287109   0.248   9.870   9.883 -0.1135  1.0752 -1.2671
58462SOL     OW87110  10.474   8.451  11.605 -0.6803  0.3008 -0.1027
58462SOL    HW187111  10.531   8.528  11.605  2.0039 -1.5451  0.6491
58462SOL    HW287112  10.497   8.405  11.524 -1.0110 -0.5357  0.2713
58463SOL     OW87113   4.148  11.073   0.392  0.1241 -0.0352 -0.0591
58463SOL    HW187114   4.090  11.013   0.439 -1.4454  1.8069  0.4910
58463SOL    HW287115   4.202  11.016   0.337 -2.6606 -1.8353 -1.1132
58464SOL     OW87116  13.660  11.489  11.382  0.2056 -0.0506 -0.1383
58464SOL    HW187117  13.582  11.508  11.433 -0.0616  0.7537 -0.8196
58464SOL    HW287118  13.698  11.412  11.424 -0.3587  0.1938  0.8603
58465SOL     OW87119  11.967  10.873   1.614 -0.2035 -0.3123  0.9078
58465SOL    HW187120  11.891  10.891   1.558  0.4315  1.2526  0.4972
58465SOL    HW287121  11.964  10.779   1.629 -2.4324 -0.2643  1.1827
58466SOL     OW87122   3.892   8.851   3.346 -0.7171  0.1921 -0.7124
58466SOL    HW187123   3.940   8.854   3.263 -0.0921  0.6908 -0.3465
58466SOL    HW287124   3.961   8.849   3.413 -1.2123  0.3090 -0.1926
58467SOL     OW87125  10.888   1.323   5.424 -0.3954 -0.6748  0.6649
58467SOL    HW187126  10.938   1.390   5.471  0.2523 -1.3252  0.9208
58467SOL    HW287127  10.954   1.261   5.392 -0.8402 -0.4101 -0.8626
58468SOL     OW87128   0.982  13.567   0.169  0.4403 -0.5745  0.1110
58468SOL    HW187129   1.064  13.617   0.178  0.5723 -0.8494  0.4535
58468SOL    HW287130   0.971  13.523   0.253  0.7221 -1.7348 -0.4372
58469SOL     OW87131   4.521   9.421   6.410 -0.0419 -0.1745  0.4323
58469SOL    HW187132   4.492   9.335   6.379  1.7460 -0.8938  0.5993
58469SOL    HW287133   4.441   9.471   6.424 -1.1001 -1.6891 -0.0423
58470SOL     OW87134   9.779   9.318  11.300  0.3508 -0.5014  0.4651
58470SOL    HW187135   9.848   9.346  11.360  0.4379 -0.7735  0.4911
58470SOL    HW287136   9.711   9.282  11.357 -0.5362  1.2528  0.5728
58471SOL     OW87137   2.777   8.517   4.327 -0.6254 -0.2819  0.1256
58471SOL    HW187138   2.754   8.586   4.266  0.5044 -0.6000 -0.6812
58471SOL    HW287139   2.698   8.463   4.333 -0.9521  0.1101 -0.5481
58472SOL     OW87140   0.928  11.130   5.375  0.0104  0.2669 -0.0952
58472SOL    HW187141   0.890  11.042   5.366  1.7935 -0.5927  0.2807
58472SOL    HW287142   0.854  11.189   5.364 -1.9229 -1.3215  2.8043
58473SOL     OW87143   0.109   3.164   3.962 -0.0691  0.3203 -0.5899
58473SOL    HW187144   0.019   3.133   3.970  0.4060 -1.5128 -1.8261
58473SOL    HW287145   0.159   3.108   4.021  0.2645  1.5449  0.3404
58474SOL     OW87146   0.545   5.086   5.614  0.1980 -0.0354  0.1349
58474SOL    HW187147   0.561   5.100   5.521 -0.4652 -0.1953 -0.0075
58474SOL    HW287148   0.619   5.031   5.643  0.4767  0.1250 -0.2611
58475SOL     OW87149   5.852   3.685   9.205  0.3919 -0.1735  0.2070
58475SOL    HW187150   5.863   3.601   9.162 -1.0168  0.6990 -2.0484
58475SOL    HW287151   5.811   3.741   9.139 -0.6113  1.6938  2.2611
58476SOL     OW87152   2.547  11.371   2.230 -0.1839  0.6281 -0.0945
58476SOL    HW187153   2.524  11.463   2.222  1.3492  1.0338 -0.2033
58476SOL    HW287154   2.606  11.368   2.305  3.0731  0.4820 -2.4427
58477SOL     OW87155   7.654  10.521   0.460 -0.0019 -0.0129 -0.4873
58477SOL    HW187156   7.575  10.477   0.428 -0.8133  1.8150 -1.1521
58477SOL    HW287157   7.663  10.598   0.403  1.1900  0.8178  0.7635
58478SOL     OW87158   7.602   9.887   5.859 -0.6721  0.4707  0.0055
58478SOL    HW187159   7.658   9.829   5.909 -1.7208 -0.5419  0.0492
58478SOL    HW287160   7.604   9.970   5.906  0.0588  0.1777  0.5028
58479SOL     OW87161   1.613   4.493   2.755  0.2702  0.2909  0.0631
58479SOL    HW187162   1.590   4.434   2.826 -0.7357  1.3481  0.6460
58479SOL    HW287163   1.568   4.575   2.775  0.5410  0.8481 -1.4225
58480SOL     OW87164   3.196   3.895   3.793  0.2093  0.1410 -0.6497
58480SOL    HW187165   3.129   3.829   3.778  1.1911 -0.3783 -3.4648
58480SOL    HW287166   3.273   3.845   3.820  0.0942  0.4893  0.3382
58481SOL     OW87167   5.660   1.580   9.001  0.1499  0.9401 -0.1831
58481SOL    HW187168   5.566   1.563   8.999  0.5786 -1.9266 -1.2880
58481SOL    HW287169   5.700   1.493   8.996  2.8636  2.1144 -0.7199
58482SOL     OW87170  11.875   5.821   3.356 -0.4224 -0.6305  0.3117
58482SOL    HW187171  11.814   5.845   3.427 -0.2586  0.1822  0.1912
58482SOL    HW287172  11.819   5.806   3.280 -0.3810  3.6130 -0.7984
58483SOL     OW87173   2.512   8.956   0.943 -0.0691  0.0698  0.6932
58483SOL    HW187174   2.448   8.973   1.012 -0.8471 -0.4328  0.1174
58483SOL    HW287175   2.586   9.013   0.964 -0.8007  0.8395  1.2448
58484SOL     OW87176   4.430   5.558   6.058  0.4098 -0.3404 -0.3352
58484SOL    HW187177   4.380   5.640   6.057  1.5932  0.4044 -0.4117
58484SOL    HW287178   4.454   5.546   6.149  0.3667 -0.5245 -0.3478
58485SOL     OW87179  12.423  11.129   6.301 -0.3237 -0.0642  0.2771
58485SOL    HW187180  12.423  11.068   6.375  0.5654  1.2634  1.4438
58485SOL    HW287181  12.506  11.176   6.310 -0.6819  0.8431 -0.9789
58486SOL     OW87182  12.721  12.625  13.187 -0.1630  0.4600 -0.5506
58486SOL    HW187183  12.691  12.603  13.099  2.1335 -0.5822 -1.1541
58486SOL    HW287184  12.807  12.665  13.174 -0.3045  1.4410  1.1657
58487SOL     OW87185   1.823   7.119   2.947 -0.4297  0.4094 -0.5701
58487SOL    HW187186   1.770   7.194   2.974 -1.0618 -0.4808  0.7638
58487SOL    HW287187   1.906   7.131   2.992 -1.0891 -0.4870  0.9487
58488SOL     OW87188   4.421   0.644   1.823 -0.3336  0.1744 -0.1785
58488SOL    HW187189   4.379   0.711   1.877 -1.3215 -1.4840  1.2318
58488SOL    HW287190   4.389   0.561   1.859  4.3888 -1.3307  1.2861
58489SOL     OW87191   8.767   3.559  13.203  0.3203  0.4261  0.2104
58489SOL    HW187192   8.843   3.543  13.146  0.3902  0.5802  0.2588
58489SOL    HW287193   8.743   3.650  13.185 -0.0233  0.2932 -0.0044
58490SOL     OW87194   8.485   2.905   1.212 -0.3144 -0.0317 -0.0356
58490SOL    HW187195   8.427   2.935   1.142  0.2703 -0.2575 -0.6237
58490SOL    HW287196   8.523   2.824   1.179 -0.1232 -0.2054  0.5949
58491SOL     OW87197   6.508   4.107   0.066  0.0226  0.2628  0.6728
58491SOL    HW187198   6.419   4.076   0.051 -0.1133  0.2541  1.4228
58491SOL    HW287199   6.525   4.087   0.158  0.9825 -0.1686  0.4090
58492SOL     OW87200  13.208  12.834   7.050  0.3780  0.3356 -0.1661
58492SOL    HW187201  13.168  12.879   7.124  1.4979  0.7055  0.2389
58492SOL    HW287202  13.149  12.761   7.032  1.1112 -1.0462  2.4651
58493SOL     OW87203   5.807   2.391   9.790 -0.2235  0.1317 -0.8149
58493SOL    HW187204   5.883   2.386   9.848 -0.6760  1.3891 -0.0575
58493SOL    HW287205   5.844   2.384   9.702  0.3518 -2.9895 -0.4172
58494SOL     OW87206   3.322   4.052   1.294  0.1364  0.4281 -0.2873
58494SOL    HW187207   3.358   4.049   1.382  0.1766 -1.3235 -0.3311
58494SOL    HW287208   3.390   4.094   1.241  1.2143 -0.8262  0.0501
58495SOL     OW87209   4.075   0.951   1.729 -0.0760  0.5899 -0.1472
58495SOL    HW187210   4.125   0.898   1.667 -0.7738 -1.1159  0.6906
58495SOL    HW287211   4.013   0.999   1.674  0.1195  0.0309 -0.8758
58496SOL     OW87212  13.031  11.145   9.266 -0.1774  0.1306  0.7177
58496SOL    HW187213  13.014  11.051   9.261 -0.8656  0.3355 -1.3383
58496SOL    HW287214  12.977  11.175   9.340 -1.5538 -0.7594  0.1091
58497SOL     OW87215  13.370   2.265  11.107 -0.3176  0.1889 -1.1323
58497SOL    HW187216  13.456   2.302  11.130 -0.2523 -0.4025 -0.3949
58497SOL    HW287217  13.389   2.178  11.073 -0.6514 -0.1679 -0.4436
58498SOL     OW87218   7.485  13.728   3.516  0.3766 -0.0304  0.2513
58498SOL    HW187219   7.434  13.647   3.509 -0.6639  0.1971  3.4782
58498SOL    HW287220   7.576  13.699   3.512  0.1037 -0.7913 -2.6750
58499SOL     OW87221   7.992   6.422   1.740 -0.0933 -0.0598 -0.5643
58499SOL    HW187222   8.009   6.351   1.678  2.3664 -0.3087  0.2949
58499SOL    HW287223   8.072   6.474   1.740 -1.8480  2.8793 -1.2620
58500SOL     OW87224   0.318   1.144  10.488  0.0482  0.2212 -0.4162
58500SOL    HW187225   0.315   1.082  10.561 -0.3719 -0.9018 -1.3533
58500SOL    HW287226   0.276   1.223  10.521  0.0464 -0.2023  0.6134
58501SOL     OW87227   1.668   8.061   2.798  0.3224  0.7930 -0.7644
58501SOL    HW187228   1.709   8.144   2.823  0.9625  0.3490 -0.2930
58501SOL    HW287229   1.580   8.085   2.769 -0.2629  1.4267  1.3458
58502SOL     OW87230  10.025   2.761   4.750  0.3466 -0.0958 -0.4285
58502SOL    HW187231  10.032   2.713   4.832 -0.2636  0.0982 -0.2529
58502SOL    HW287232  10.064   2.704   4.684  0.6024 -0.3633 -0.0438
58503SOL     OW87233   6.232   1.796   6.577  0.2834 -0.4023 -0.2647
58503SOL    HW187234   6.215   1.716   6.628  0.7287 -1.3116 -1.5098
58503SOL    HW287235   6.216   1.867   6.639  0.2689 -1.4604  0.9938
58504SOL     OW87236  12.663   8.304   2.489 -0.4463 -0.1798  0.7425
58504SOL    HW187237  12.575   8.316   2.522  0.1466  0.1012  2.3133
58504SOL    HW287238  12.652   8.291   2.395 -2.2333 -1.2058  1.0534
58505SOL     OW87239  10.989   4.221   3.002  0.6250  0.3664  0.5970
58505SOL    HW187240  11.013   4.146   3.056  1.2341  0.3128  0.2683
58505SOL    HW287241  11.069   4.274   2.998  0.2092  1.0332  0.8182
58506SOL     OW87242   5.292   1.798   9.069  0.7814  0.3075  0.0615
58506SOL    HW187243   5.204   1.833   9.057  0.4283 -0.6421 -0.2631
58506SOL    HW287244   5.342   1.831   8.994  0.0762 -0.9911 -1.0274
58507SOL     OW87245   5.007   3.851  10.620 -0.1786 -0.1914 -0.1566
58507SOL    HW187246   4.945   3.778  10.618 -0.5876  0.1490 -2.1092
58507SOL    HW287247   5.026   3.869  10.528 -0.6539  2.6460  0.1982
58508SOL     OW87248   2.780  13.552  13.047  0.0374 -0.2571  0.0155
58508SOL    HW187249   2.773  13.457  13.042  2.6983 -0.5638  0.6597
58508SOL    HW287250   2.705  13.579  13.099 -0.9596 -1.9402 -0.4633
58509SOL     OW87251  10.940   6.990   1.969  0.0606  0.3452  0.2371
58509SOL    HW187252  10.928   7.085   1.966  1.2075  0.5110  0.3774
58509SOL    HW287253  11.011   6.976   2.031  0.7831 -0.5087 -0.7335
58510SOL     OW87254   1.676   4.430   7.018 -0.0761 -0.0114 -0.9015
58510SOL    HW187255   1.622   4.409   6.941  0.4965 -1.6208 -0.8965
58510SOL    HW287256   1.759   4.461   6.981 -0.1524  0.1736 -0.9197
58511SOL     OW87257  13.578  12.706   3.698  0.1992 -0.3039  0.0960
58511SOL    HW187258  13.603  12.699   3.605  0.3813  0.1926  0.1063
58511SOL    HW287259  13.661  12.724   3.743  0.0338 -0.0533  0.2983
58512SOL     OW87260   6.846   4.332   1.918 -0.4987  0.8268 -0.1386
58512SOL    HW187261   6.933   4.313   1.883 -0.9431 -4.3708  0.7562
58512SOL    HW287262   6.862   4.379   2.000  1.4658  0.0892 -0.0524
58513SOL     OW87263  13.525   5.307   4.026  0.4584  0.0734 -0.2431
58513SOL    HW187264  13.521   5.402   4.033 -2.4286 -0.0703  1.6867
58513SOL    HW287265  13.533   5.276   4.116 -2.4566 -1.5051 -0.4084
58514SOL     OW87266   6.463  12.363   5.163  0.0110  0.3730 -0.1280
58514SOL    HW187267   6.500  12.274   5.167 -1.2125 -0.1426  3.0868
58514SOL    HW287268   6.376  12.350   5.124  0.3952  0.4314 -1.0282
58515SOL     OW87269   1.588   3.501   2.563 -0.2726  0.2250 -0.6413
58515SOL    HW187270   1.654   3.559   2.524  0.2028  0.8686  1.0267
58515SOL    HW287271   1.635   3.420   2.581  0.4730  1.0757  1.6322
58516SOL     OW87272   9.822   1.731   8.818  0.1536 -0.0224  0.0847
58516SOL    HW187273   9.791   1.758   8.904 -1.3347 -2.8195  0.5619
58516SOL    HW287274   9.905   1.686   8.836 -0.5232 -1.2719  0.2437
58517SOL     OW87275   1.057   6.062   1.109 -0.5161  0.1575 -0.3073
58517SOL    HW187276   1.043   6.154   1.085  0.7327  0.1311 -1.2872
58517SOL    HW287277   0.999   6.013   1.051 -1.6422  0.3398  0.6431
58518SOL     OW87278   3.904  12.896   6.689 -0.1063 -0.0448  0.1133
58518SOL    HW187279   3.910  12.989   6.669  0.2687 -0.3846 -1.5113
58518SOL    HW287280   3.863  12.857   6.612 -0.8050 -1.1560  1.0100
58519SOL     OW87281   2.530  13.158  10.258  0.0932  0.5448 -0.8315
58519SOL    HW187282   2.452  13.211  10.271 -1.3060 -0.9197 -2.7607
58519SOL    HW287283   2.593  13.193  10.321 -1.6700  2.5975 -0.0803
58520SOL     OW87284  13.067   6.668   5.993 -0.7445 -0.3966  0.6969
58520SOL    HW187285  12.983   6.652   5.949  0.3663  0.8100 -2.0944
58520SOL    HW287286  13.112   6.584   5.990 -1.0217 -0.5313  0.2734
58521SOL     OW87287   5.584   0.091  10.513  0.3871  0.1136 -0.0094
58521SOL    HW187288   5.534   0.150  10.570 -0.2822  1.0380 -1.5171
58521SOL    HW287289   5.566   0.004  10.547 -0.0310  0.6350  1.1615
58522SOL     OW87290  13.034   0.123   0.465 -0.1122 -0.2402 -0.1559
58522SOL    HW187291  12.980   0.173   0.526  0.9157  0.5737  0.0999
58522SOL    HW287292  13.078   0.058   0.520  0.3588  0.1072 -0.1222
58523SOL     OW87293   4.545   0.128   5.081 -0.0895 -0.2092  0.5459
58523SOL    HW187294   4.504   0.048   5.049  0.4770 -0.5193  0.5694
58523SOL    HW287295   4.619   0.097   5.134 -0.5533  0.3095  1.5173
58524SOL     OW87296   2.912   6.409  10.386  0.0706  0.4229 -0.4149
58524SOL    HW187297   2.938   6.499  10.370 -0.2102  0.5086 -0.3977
58524SOL    HW287298   2.959   6.358  10.319  1.1668  0.4334  0.3373
58525SOL     OW87299   9.646  10.528   2.553  0.0027 -0.5389 -0.4907
58525SOL    HW187300   9.720  10.558   2.605 -0.6818 -0.9082  0.7484
58525SOL    HW287301   9.682  10.510   2.466  1.6287 -1.8788  0.4074
58526SOL     OW87302  11.212   3.855   5.096  0.4450 -0.3631 -0.4301
58526SOL    HW187303  11.228   3.801   5.173 -1.2333 -0.2285  0.0423
58526SOL    HW287304  11.207   3.793   5.024  0.4462 -0.6425 -0.1901
58527SOL     OW87305   4.380   4.633   5.250  0.3530  0.2876  0.4099
58527SOL    HW187306   4.355   4.678   5.332 -1.1715  0.1736  0.0374
58527SOL    HW287307   4.367   4.699   5.182 -2.0917 -0.7041 -0.1681
58528SOL     OW87308   6.658   1.158   3.505 -0.6434  0.5091 -0.1124
58528SOL    HW187309   6.728   1.094   3.492  0.4232  1.9902 -2.3516
58528SOL    HW287310   6.630   1.145   3.596  0.6586 -1.9413  0.0379
58529SOL     OW87311   7.307   1.427   9.947  0.1805 -0.2521  0.2311
58529SOL    HW187312   7.290   1.490   9.877  2.0196  0.9124  0.7605
58529SOL    HW287313   7.250   1.353   9.927 -0.4842  0.6941 -1.6089
58530SOL     OW87314  10.587   8.866   9.916  0.4341  0.0401 -0.4278
58530SOL    HW187315  10.662   8.816   9.947 -0.8172 -1.1053  0.9280
58530SOL    HW287316  10.593   8.862   9.821  0.9426 -1.8656 -0.3493
58531SOL     OW87317   8.102  10.226  11.355  0.0198  0.2885 -0.4638
58531SOL    HW187318   8.037  10.155  11.363  1.1601 -0.8998 -1.2668
58531SOL    HW287319   8.094  10.255  11.264  0.8671 -0.1395 -0.6821
58532SOL     OW87320   8.612  13.082   6.063  0.0818  0.5835 -0.0567
58532SOL    HW187321   8.632  13.150   5.999  0.9674 -0.4367 -0.8905
58532SOL    HW287322   8.577  13.009   6.011 -1.5876  0.6433  0.8952
58533SOL     OW87323   4.670   3.056   1.553 -0.0459  0.2854  0.1241
58533SOL    HW187324   4.697   3.116   1.484 -0.0906 -0.3132 -0.4181
58533SOL    HW287325   4.641   2.978   1.507  0.4871 -0.3474  0.8481
58534SOL     OW87326   0.635  12.216   4.331 -0.4742  0.2068 -0.3136
58534SOL    HW187327   0.648  12.128   4.298 -0.5805 -0.1378  0.5336
58534SOL    HW287328   0.563  12.208   4.394  3.0338 -0.3242  4.2015
58535SOL     OW87329  10.009   5.451   9.019 -0.3633 -1.1468  0.4569
58535SOL    HW187330   9.924   5.454   9.062 -0.2480 -0.7229  0.6567
58535SOL    HW287331  10.052   5.374   9.056 -0.8431 -1.6427  0.0035
58536SOL     OW87332   3.466  12.263   1.048 -0.6436 -0.2301 -0.2983
58536SOL    HW187333   3.461  12.351   1.009  1.5115  0.2257  0.3042
58536SOL    HW287334   3.486  12.205   0.975 -0.3530  0.0466 -0.4411
58537SOL     OW87335   6.909   9.491  13.054  0.0934 -0.4300 -0.5729
58537SOL    HW187336   7.002   9.493  13.077  0.6032  1.0870 -2.4752
58537SOL    HW287337   6.871   9.566  13.099  0.2766  0.2250 -1.4781
58538SOL     OW87338   8.057   0.200   0.468 -0.1305  0.0496  0.0572
58538SOL    HW187339   8.067   0.136   0.398 -2.6131 -0.2229 -0.1253
58538SOL    HW287340   8.009   0.153   0.536 -1.3455  1.4816  0.2235
58539SOL     OW87341   1.687   3.410   7.604 -0.0512 -0.6472 -0.3740
58539SOL    HW187342   1.779   3.390   7.590  0.2613  1.3184 -1.4611
58539SOL    HW287343   1.687   3.499   7.640 -1.4622 -1.2474  1.2406
58540SOL     OW87344  13.583   8.639   0.147  0.1192  0.5734  0.3191
58540SOL    HW187345  13.612   8.604   0.231 -1.9194  0.7051  1.1412
58540SOL    HW287346  13.624   8.583   0.082  0.6553 -0.3868  1.4548
58541SOL     OW87347  10.886   8.965   8.152 -0.5516  0.2088 -0.2699
58541SOL    HW187348  10.909   8.981   8.060  0.8937  0.6192  0.1387
58541SOL    HW287349  10.806   8.913   8.147 -1.4035  1.5570 -1.7428
58542SOL     OW87350   4.330   2.702   0.239 -0.4113 -0.0003 -0.3674
58542SOL    HW187351   4.372   2.626   0.199 -1.3996 -0.3134 -0.8256
58542SOL    HW287352   4.379   2.777   0.205 -1.2007 -0.2548 -2.1665
58543SOL     OW87353   3.013   9.625   8.620 -0.0399 -0.3780  0.6747
58543SOL    HW187354   3.027   9.530   8.615 -0.6928 -0.5001  1.0121
58543SOL    HW287355   2.918   9.635   8.623 -0.0255  0.3578 -0.5875
58544SOL     OW87356   5.560   7.384   8.352  0.1451  0.1605 -0.1852
58544SOL    HW187357   5.628   7.434   8.307 -1.1863  0.5892 -1.8048
58544SOL    HW287358   5.493   7.449   8.373 -2.2692 -0.9796 -3.5567
58545SOL     OW87359   2.777   1.910   3.035  0.0976 -0.3990  0.1713
58545SOL    HW187360   2.808   1.833   2.986  1.0850 -0.6463  1.1511
58545SOL    HW287361   2.857   1.956   3.060 -0.4590  0.5626  0.2291
58546SOL     OW87362  10.943   7.594  11.120  0.0120 -0.0023 -0.1205
58546SOL    HW187363  10.874   7.660  11.118 -0.6146 -0.6094  0.6434
58546SOL    HW287364  10.998   7.619  11.195  0.4962  0.3439 -0.5819
58547SOL     OW87365   3.067   4.068   6.193 -0.3104 -0.0027  0.2877
58547SOL    HW187366   3.031   4.141   6.244  0.5513  1.1242 -0.6572
58547SOL    HW287367   3.012   4.063   6.115  0.5309  0.6225 -0.3560
58548SOL     OW87368   4.330   2.823   4.916 -0.9610  0.0023  0.4519
58548SOL    HW187369   4.274   2.901   4.910  1.3038  1.6696 -0.6208
58548SOL    HW287370   4.297   2.765   4.848  0.3614  2.2659 -2.3514
58549SOL     OW87371  10.256   1.302   1.640 -0.0919 -0.0439 -0.6870
58549SOL    HW187372  10.207   1.225   1.609 -0.7701  0.3756 -0.6870
58549SOL    HW287373  10.347   1.280   1.625 -0.1026 -1.7502  1.2898
58550SOL     OW87374  13.398   1.226   2.399  0.5915 -0.4449  0.2813
58550SOL    HW187375  13.420   1.137   2.373 -0.8278 -0.4569 -1.0283
58550SOL    HW287376  13.450   1.281   2.340  0.2351 -0.4384 -0.0335
58551SOL     OW87377   1.460  11.789  10.304 -0.7284  0.1803 -0.0231
58551SOL    HW187378   1.485  11.795  10.212  0.5037  0.5036  0.3090
58551SOL    HW287379   1.470  11.696  10.325  0.9842  0.3908  0.2779
58552SOL     OW87380   1.627   9.984   8.830 -0.4136  0.1418 -0.1136
58552SOL    HW187381   1.581   9.981   8.914 -0.8268 -1.0997 -0.3590
58552SOL    HW287382   1.705   9.930   8.842 -0.8510 -0.6554 -0.7214
58553SOL     OW87383   9.813   6.201   4.232 -0.0516  0.4903 -0.3399
58553SOL    HW187384   9.905   6.180   4.247 -0.0465  1.6439  1.7677
58553SOL    HW287385   9.805   6.210   4.138  1.7424 -0.6654 -0.6559
58554SOL     OW87386   5.291  12.412  10.803 -0.3249  0.7693  0.0736
58554SOL    HW187387   5.351  12.457  10.743  1.2911 -0.4656  0.6804
58554SOL    HW287388   5.231  12.365  10.746  1.0614 -0.2271 -0.6274
58555SOL     OW87389   8.354   1.097  11.660  0.4230 -0.1446  0.4291
58555SOL    HW187390   8.301   1.130  11.733 -1.4124 -2.0290  0.0524
58555SOL    HW287391   8.412   1.032  11.700  2.6070  1.8946  0.8354
58556SOL     OW87392  13.649  13.521   0.831 -0.0474  0.3163 -0.0206
58556SOL    HW187393  13.584  13.571   0.879  0.0718 -0.8173  1.4170
58556SOL    HW287394  13.719  13.506   0.895 -0.7139 -2.8728  0.1443
58557SOL     OW87395  12.542   7.010   9.259  0.1586 -0.1637 -0.4579
58557SOL    HW187396  12.569   6.967   9.340 -1.8020  1.1451  0.9845
58557SOL    HW287397  12.451   6.983   9.246  0.6260 -0.9264 -2.6830
58558SOL     OW87398  12.606  12.286   6.328  0.4569 -0.5955 -0.2040
58558SOL    HW187399  12.543  12.358   6.339 -0.0957 -1.2920  1.5586
58558SOL    HW287400  12.581  12.245   6.245 -0.6235 -0.0730 -0.1575
58559SOL     OW87401   7.958   1.309   8.290  0.0620 -0.0903 -0.0337
58559SOL    HW187402   7.976   1.321   8.383  0.1029 -1.7678  0.2044
58559SOL    HW287403   7.950   1.398   8.255  0.7007  0.5723  1.4349
58560SOL     OW87404   7.491   0.905   4.792 -0.5319 -0.2065  0.1784
58560SOL    HW187405   7.536   0.978   4.751  0.9522 -0.3590  1.4321
58560SOL    HW287406   7.398   0.925   4.783 -0.1743  2.2010  1.1220
58561SOL     OW87407  12.941   0.549   6.095  0.2249 -0.2388  0.6603
58561SOL    HW187408  12.930   0.642   6.076 -0.7500 -0.5387 -0.3657
58561SOL    HW287409  12.868   0.527   6.152 -0.3685 -0.6497 -0.2208
58562SOL     OW87410   4.607   8.828   7.894  0.0405  0.3866  0.2347
58562SOL    HW187411   4.641   8.891   7.830 -0.4082  1.0889  0.6694
58562SOL    HW287412   4.512   8.832   7.884  0.0419 -1.2237 -0.6528
58563SOL     OW87413   6.828   2.476   6.817 -0.0370  0.4259  0.4607
58563SOL    HW187414   6.780   2.396   6.795  0.9227 -0.2011  0.5714
58563SOL    HW287415   6.827   2.480   6.912  0.0130  0.4942  0.4586
58564SOL     OW87416  10.035   2.959   0.326 -0.3177 -0.4211 -0.4093
58564SOL    HW187417  10.117   2.922   0.295  0.5039  0.7129  0.3618
58564SOL    HW287418   9.999   3.004   0.250  1.8438  2.6285  0.1946
58565SOL     OW87419   0.225  11.385   3.702  0.2804  0.1742  0.4577
58565SOL    HW187420   0.185  11.307   3.741 -1.0313  0.2706 -0.6009
58565SOL    HW287421   0.220  11.452   3.771 -0.8293 -0.0088  0.5742
58566SOL     OW87422   4.958   4.271  13.736 -0.1745 -0.4438 -0.1971
58566SOL    HW187423   4.914   4.352  13.707 -0.2914 -0.0057  1.1325
58566SOL    HW287424   5.032   4.302  13.788 -0.4619 -1.1872  0.6727
58567SOL     OW87425   9.251   4.857   5.245 -0.7566 -0.6133 -0.8655
58567SOL    HW187426   9.252   4.951   5.259  0.6762 -0.5017 -1.5516
58567SOL    HW287427   9.258   4.846   5.150  1.0575 -1.3954 -0.6854
58568SOL     OW87428   1.535  12.367  13.168 -0.4997 -0.3356 -0.2898
58568SOL    HW187429   1.561  12.459  13.159  0.8662 -0.7385 -0.8196
58568SOL    HW287430   1.555  12.329  13.083 -0.6646 -1.2096  0.0542
58569SOL     OW87431   7.215   4.665   1.262  0.2762 -0.1417 -0.0422
58569SOL    HW187432   7.297   4.660   1.311  0.5474 -1.3177 -0.5793
58569SOL    HW287433   7.156   4.604   1.306  0.5443 -1.2557 -1.1667
58570SOL     OW87434   0.716   3.142   8.784  0.5614  0.2307  0.0413
58570SOL    HW187435   0.777   3.070   8.772  1.2209  0.8320 -0.3510
58570SOL    HW287436   0.646   3.125   8.722  0.3638 -0.4304  0.4449
58571SOL     OW87437   1.694   6.902   6.400 -0.5116 -0.2524 -0.6800
58571SOL    HW187438   1.614   6.886   6.450 -1.4428 -0.6560 -2.2335
58571SOL    HW287439   1.670   6.971   6.338  0.0419 -1.0393 -1.8079
58572SOL     OW87440   3.886  12.737   9.396  0.1651 -0.1877  0.4752
58572SOL    HW187441   3.801  12.776   9.374  0.2700 -0.3759 -0.2887
58572SOL    HW287442   3.884  12.650   9.355  0.2985 -0.6301  1.3816
58573SOL     OW87443   8.241   2.735  12.948  0.2798  0.4199  0.6116
58573SOL    HW187444   8.329   2.704  12.970  0.2940  1.4747  2.1863
58573SOL    HW287445   8.255   2.802  12.881  0.6180  0.0966  0.3582
58574SOL     OW87446  10.410   5.403   0.254  0.1774  0.1364 -0.4694
58574SOL    HW187447  10.395   5.382   0.346  0.8549  0.5490 -0.2545
58574SOL    HW287448  10.504   5.390   0.241  0.2493  0.9488 -0.8646
58575SOL     OW87449   6.591  12.005   9.013  0.2564  0.4275  0.5185
58575SOL    HW187450   6.524  11.943   9.042 -0.2047  0.9375  0.5770
58575SOL    HW287451   6.664  11.951   8.984 -0.2612 -0.1486  0.2750
58576SOL     OW87452   6.825  10.619   4.988  0.5484 -0.3527 -0.6583
58576SOL    HW187453   6.763  10.662   4.929  1.3265  1.6658 -0.0844
58576SOL    HW287454   6.907  10.665   4.974  0.6588  0.5357  2.2819
58577SOL     OW87455  13.099  12.979   9.096  0.2446  0.2209 -0.1216
58577SOL    HW187456  13.194  12.989   9.101  0.2502  0.0959  0.0404
58577SOL    HW287457  13.066  13.068   9.093  0.4731  0.3055 -2.4478
58578SOL     OW87458   0.544   7.835  13.553  0.2195  0.2855  0.7011
58578SOL    HW187459   0.591   7.892  13.492  1.3621 -0.8074  0.4999
58578SOL    HW287460   0.536   7.752  13.506 -0.0313 -0.1795  1.5494
58579SOL     OW87461  13.592   4.461   5.388  0.5933  0.4528 -0.5040
58579SOL    HW187462  13.612   4.382   5.338 -0.4777 -0.5128  0.5584
58579SOL    HW287463  13.497   4.466   5.388  0.4922 -0.0758  2.1604
58580SOL     OW87464   6.479   1.216   5.257 -0.6144 -0.0217 -0.4342
58580SOL    HW187465   6.440   1.283   5.312 -3.4159 -1.5242 -0.4115
58580SOL    HW287466   6.502   1.145   5.318 -0.1233 -0.1437 -0.7530
58581SOL     OW87467   0.621   5.438  10.657 -0.1075  0.6739  0.2628
58581SOL    HW187468   0.551   5.504  10.648  0.0971  0.9243  0.5023
58581SOL    HW287469   0.666   5.440  10.573 -2.4123 -1.8382 -1.1863
58582SOL     OW87470  12.606   0.349  11.744  0.4449 -0.0958 -0.3260
58582SOL    HW187471  12.530   0.393  11.706  0.7753 -1.6119 -3.0165
58582SOL    HW287472  12.587   0.256  11.736  2.7451 -0.5343 -1.5958
58583SOL     OW87473   9.255   3.607   3.461  0.5341  0.1708  0.0056
58583SOL    HW187474   9.312   3.659   3.404  1.9718 -0.4649  0.8080
58583SOL    HW287475   9.313   3.571   3.527 -1.1604  1.2706  2.2222
58584SOL     OW87476   1.742   1.875  13.225  0.1006  0.6162 -0.0650
58584SOL    HW187477   1.670   1.870  13.288  0.3028 -1.5748  0.0581
58584SOL    HW287478   1.698   1.887  13.141 -0.6455 -2.4527 -0.2350
58585SOL     OW87479   8.805   5.187  11.248  0.8812 -0.4774 -0.9180
58585SOL    HW187480   8.882   5.174  11.302  0.1094 -0.2849  0.2746
58585SOL    HW287481   8.760   5.102  11.249 -0.7463  0.3108  1.4056
58586SOL     OW87482  12.016  13.741  12.994  0.2430 -0.2221 -0.8071
58586SOL    HW187483  12.104  13.716  12.966  0.1911 -2.3497  0.6972
58586SOL    HW287484  11.958  13.681  12.946 -0.2549 -0.0181 -0.4679
58587SOL     OW87485   6.494   9.839   1.848 -0.0120  0.5469  0.2512
58587SOL    HW187486   6.546   9.878   1.918  0.7431  2.0399 -1.0615
58587SOL    HW287487   6.404   9.847   1.877  0.2958  1.0475  1.0903
58588SOL     OW87488   4.531   8.317  13.120 -0.1327  0.0043 -0.2488
58588SOL    HW187489   4.482   8.391  13.083 -1.2785 -1.2696 -1.3743
58588SOL    HW287490   4.618   8.325  13.083 -0.7699 -0.2430 -1.8860
58589SOL     OW87491   9.738   9.215   7.491  0.5723 -0.3369 -0.0380
58589SOL    HW187492   9.682   9.139   7.502 -0.1435  0.4138  2.0059
58589SOL    HW287493   9.815   9.197   7.546  0.5208  0.2756  0.2496
58590SOL     OW87494   6.639   2.058   3.641  0.3236 -0.0802 -0.0966
58590SOL    HW187495   6.589   2.117   3.698  0.0881 -0.2244 -0.1504
58590SOL    HW287496   6.626   1.971   3.680  1.7011  0.0466  0.7193
58591SOL     OW87497   8.964   4.131   1.931 -0.4687 -0.6898 -0.2889
58591SOL    HW187498   9.006   4.049   1.905  2.1812 -0.0479  1.5117
58591SOL    HW287499   8.966   4.185   1.852  0.9615 -1.1799 -0.6275
58592SOL     OW87500   7.286  11.021   1.497  0.3940 -0.3150  0.2847
58592SOL    HW187501   7.214  11.065   1.451  0.6630  0.8048  0.9000
58592SOL    HW287502   7.344  10.991   1.428  1.0558  1.7838 -0.1379
58593SOL     OW87503   8.292   7.617   9.413 -0.4641  0.4041  0.1545
58593SOL    HW187504   8.302   7.689   9.475  0.8742  0.0294  0.3879
58593SOL    HW287505   8.218   7.644   9.358 -1.9878  0.5604  2.1340
58594SOL     OW87506   4.830   7.124   0.648 -0.4739  0.7472 -0.0634
58594SOL    HW187507   4.890   7.051   0.654  0.1443  1.2331 -0.2271
58594SOL    HW287508   4.766   7.109   0.718  0.2163  0.5657  0.5353
58595SOL     OW87509  13.698   9.515   8.754  0.3861 -0.2310 -0.7143
58595SOL    HW187510  13.724   9.448   8.691  1.3268  0.3592 -0.9826
58595SOL    HW287511  13.781   9.550   8.787 -0.0832  0.9668 -0.7606
58596SOL     OW87512  10.070   4.685  12.163 -0.3567 -0.5023  0.3480
58596SOL    HW187513  10.137   4.622  12.191  0.4498 -0.3378 -1.1022
58596SOL    HW287514   9.993   4.632  12.145  0.1863 -1.0438 -0.4525
58597SOL     OW87515   4.545   4.522   5.452 -0.1404 -0.2517 -0.3758
58597SOL    HW187516   4.496   4.456   5.502  0.7844 -0.7595 -0.1083
58597SOL    HW287517   4.490   4.541   5.376 -1.0863 -0.2518  0.2952
58598SOL     OW87518   7.768  13.526  13.635  0.0443  0.1122 -0.7865
58598SOL    HW187519   7.767  13.443  13.587  0.3487 -0.0713 -0.4727
58598SOL    HW287520   7.688  13.571  13.606 -0.1522 -0.3152 -0.9126
58599SOL     OW87521   0.865   6.655   6.314  0.3276 -0.3272  0.2535
58599SOL    HW187522   0.944   6.620   6.274 -0.8975 -2.6410 -0.3412
58599SOL    HW287523   0.836   6.724   6.254  1.2647 -0.2483 -0.1194
58600SOL     OW87524   9.782   9.628   7.049  0.1938  0.3204  0.3452
58600SOL    HW187525   9.835   9.560   7.090  0.4358  0.9471  1.0905
58600SOL    HW287526   9.835   9.660   6.976 -0.2266 -0.7811 -0.4721
58601SOL     OW87527   9.676   0.261   3.069 -0.3433 -0.5596  0.1366
58601SOL    HW187528   9.700   0.280   3.159 -2.0900 -1.9004  0.9441
58601SOL    HW287529   9.648   0.170   3.070 -0.7690 -0.4860 -1.6840
58602SOL     OW87530  11.717   9.411   3.458  0.1594 -0.5323  0.2580
58602SOL    HW187531  11.680   9.424   3.546  0.3904  0.3591  0.2374
58602SOL    HW287532  11.655   9.456   3.400  1.4268  1.3465  0.2655
58603SOL     OW87533   6.234   3.961  11.661 -0.3190  0.3747 -0.4491
58603SOL    HW187534   6.163   3.918  11.709 -0.7875  0.0798 -1.3879
58603SOL    HW287535   6.230   3.924  11.573  0.5314  0.9024 -0.7266
58604SOL     OW87536  11.113   9.877   1.837  0.1834  0.3886 -0.3102
58604SOL    HW187537  11.163   9.900   1.758 -1.1451 -0.2521 -1.3852
58604SOL    HW287538  11.026   9.856   1.804 -0.2597 -0.4166  1.2849
58605SOL     OW87539   5.602   4.307   9.593 -0.2560 -0.2403 -0.0475
58605SOL    HW187540   5.560   4.290   9.677  0.7027 -1.1168  0.2718
58605SOL    HW287541   5.682   4.254   9.595  1.3335  2.0007 -0.2701
58606SOL     OW87542   3.272  12.037  13.531 -0.5026 -0.0306  0.1595
58606SOL    HW187543   3.183  12.002  13.524 -0.3087 -0.6493  0.6656
58606SOL    HW287544   3.324  11.981  13.474  0.0245 -1.3797  1.8725
58607SOL     OW87545   4.511   3.053   7.838  0.2121 -0.2277 -0.8631
58607SOL    HW187546   4.604   3.039   7.823  0.7160  1.4890  0.3244
58607SOL    HW287547   4.474   3.067   7.751  1.4637  1.1579 -1.2092
58608SOL     OW87548   6.106   3.035   1.844 -0.3730  0.1773 -0.2127
58608SOL    HW187549   6.143   2.958   1.887  0.9556  0.5162 -0.6763
58608SOL    HW287550   6.063   3.001   1.766 -1.0371 -0.2262  0.3161
58609SOL     OW87551   5.587  12.678  10.314 -0.5741  0.0365  0.0274
58609SOL    HW187552   5.502  12.659  10.275 -0.5926 -0.4751  0.3099
58609SOL    HW287553   5.616  12.595  10.352  1.6280 -0.7615 -2.9765
58610SOL     OW87554  12.229   4.439  10.456 -0.5351  0.0838 -0.6056
58610SOL    HW187555  12.263   4.441  10.367 -0.9619  0.3023 -0.7651
58610SOL    HW287556  12.305   4.415  10.510 -0.0780  0.7730 -0.9293
58611SOL     OW87557   9.207  13.168  13.034  0.0772 -0.2759  0.0394
58611SOL    HW187558   9.165  13.175  12.948 -0.6942 -1.3740  0.2951
58611SOL    HW287559   9.288  13.218  13.026 -1.1978  1.8174 -0.5124
58612SOL     OW87560  10.614   6.118   6.260  0.0467  0.0914  0.2701
58612SOL    HW187561  10.705   6.101   6.237  0.1178  2.1021 -1.1676
58612SOL    HW287562  10.566   6.103   6.178 -0.4589  2.0050  0.1736
58613SOL     OW87563   9.076   3.074   5.765  0.6050 -0.0798 -0.3299
58613SOL    HW187564   9.120   3.106   5.686 -1.3200  0.1662 -1.3508
58613SOL    HW287565   9.148   3.055   5.826  2.0671  1.1831 -1.5704
58614SOL     OW87566   9.756   2.372  11.874  0.4936 -0.0263 -0.1298
58614SOL    HW187567   9.780   2.400  11.963 -0.3143  2.7656 -0.6776
58614SOL    HW287568   9.836   2.384  11.823  1.0453 -1.9297  0.2288
58615SOL     OW87569  12.478   9.296   4.022 -0.1853  0.9621  0.0979
58615SOL    HW187570  12.459   9.220   3.968  1.2429  0.4363  0.2855
58615SOL    HW287571  12.553   9.338   3.979  1.8274 -0.1769  2.2595
58616SOL     OW87572  13.633   0.202  10.856 -0.2347 -0.0555  0.0620
58616SOL    HW187573  13.684   0.257  10.797 -0.7190 -1.0695 -1.3482
58616SOL    HW287574  13.548   0.192  10.813 -1.1170  0.3423  1.6264
58617SOL     OW87575   8.935   6.015   0.118  0.0483 -0.2927 -0.1735
58617SOL    HW187576   9.023   6.011   0.078 -0.0641  0.6509 -0.5372
58617SOL    HW287577   8.939   5.952   0.190  1.2520  0.2320  0.2503
58618SOL     OW87578  13.521  10.808  11.328  0.2010  0.4667 -0.6476
58618SOL    HW187579  13.460  10.741  11.299 -1.0357  0.5876  1.4815
58618SOL    HW287580  13.473  10.890  11.318 -0.4868  0.4725  2.0157
58619SOL     OW87581   6.801   4.819  11.710 -0.0356  0.0758  0.0448
58619SOL    HW187582   6.830   4.878  11.641 -2.7157  0.8092 -0.5548
58619SOL    HW287583   6.763   4.877  11.776 -2.6775 -0.8694 -0.5264
58620SOL     OW87584  10.167   7.820   4.215  0.3094  1.0740  0.2281
58620SOL    HW187585  10.165   7.891   4.150  2.9406  1.6964  0.6997
58620SOL    HW287586  10.200   7.744   4.167  0.3856  1.0005  0.3949
58621SOL     OW87587  11.446   0.884   3.781 -0.0210  0.4978 -0.0597
58621SOL    HW187588  11.451   0.923   3.868 -1.2786 -1.0859  0.7681
58621SOL    HW287589  11.355   0.855   3.772  0.4585 -0.7491 -1.2747
58622SOL     OW87590  13.435   4.737   5.857  0.1022  0.0554 -0.1522
58622SOL    HW187591  13.495   4.811   5.848  0.4288 -0.0286  1.0839
58622SOL    HW287592  13.389   4.754   5.940 -0.0761 -0.9428 -0.0354
58623SOL     OW87593   3.005   9.909   0.432  0.5566  0.2967  0.2518
58623SOL    HW187594   3.067   9.873   0.496 -0.0279 -2.1017 -0.4151
58623SOL    HW287595   3.002   9.842   0.363 -2.5192  0.4659  0.1213
58624SOL     OW87596  12.866  13.225   0.360  0.2119  0.3610 -0.1438
58624SOL    HW187597  12.890  13.145   0.406 -1.7204 -0.5654 -0.6557
58624SOL    HW287598  12.921  13.224   0.281  1.7394  0.6836  0.8841
58625SOL     OW87599   8.781  11.836   1.166 -0.6780 -0.2267  0.1433
58625SOL    HW187600   8.782  11.755   1.114 -1.7325  0.1539 -0.5117
58625SOL    HW287601   8.743  11.811   1.249 -0.1326 -0.5856  0.2940
58626SOL     OW87602   4.335   6.987   9.026 -0.1981  0.1055 -0.2074
58626SOL    HW187603   4.415   6.935   9.016 -0.1974 -0.0202  0.3745
58626SOL    HW287604   4.283   6.937   9.090 -0.3552  0.6346  0.0822
58627SOL     OW87605   3.050   3.243  10.603 -0.4367 -0.0603  0.2378
58627SOL    HW187606   3.075   3.152  10.586 -1.3831  0.1349 -2.7477
58627SOL    HW287607   3.008   3.241  10.689 -0.8367 -2.5335  0.0510
58628SOL     OW87608  11.888   5.339   5.103 -0.1493  0.1836 -0.1851
58628SOL    HW187609  11.797   5.369   5.108 -0.0196  0.4028  1.8764
58628SOL    HW287610  11.887   5.268   5.040 -1.6174  0.6292 -0.6971
58629SOL     OW87611  10.817   4.679  10.184 -0.0039 -0.0835  0.6488
58629SOL    HW187612  10.910   4.695  10.168  0.4156 -0.7700  2.2824
58629SOL    HW287613  10.813   4.591  10.222 -1.0314  0.8635  2.9268
58630SOL     OW87614   4.266   1.579   3.776 -0.3983  0.1177  0.6400
58630SOL    HW187615   4.256   1.524   3.699 -0.3976  0.0573  0.6833
58630SOL    HW287616   4.186   1.632   3.778 -0.0446  0.6921  0.1441
58631SOL     OW87617   0.782   7.949   1.321  0.5266 -0.8248  0.1232
58631SOL    HW187618   0.801   7.891   1.248 -0.7079  0.4183 -1.2633
58631SOL    HW287619   0.791   8.037   1.285 -1.7728 -0.1723  0.9661
58632SOL     OW87620  11.323   8.737   8.435  0.0513 -0.1727  0.0926
58632SOL    HW187621  11.236   8.773   8.418  1.1673  2.0733 -1.4430
58632SOL    HW287622  11.349   8.697   8.351  0.7382 -0.2585  0.3377
58633SOL     OW87623   2.311   1.738   5.399  0.1648 -0.4714 -0.5416
58633SOL    HW187624   2.318   1.771   5.489  0.7778 -0.0106 -0.7514
58633SOL    HW287625   2.248   1.666   5.405  3.3606 -3.4322  1.0895
58634SOL     OW87626   2.761   5.355   9.561  0.0924 -0.0960 -0.1311
58634SOL    HW187627   2.792   5.439   9.595 -0.7860  0.1028  0.2087
58634SOL    HW287628   2.800   5.290   9.619 -0.7526  0.1966  0.8063
58635SOL     OW87629   5.945   8.246  11.804  0.1547 -0.3469  0.6452
58635SOL    HW187630   5.883   8.206  11.865  0.4095  0.3697  1.4047
58635SOL    HW287631   5.914   8.336  11.794  1.2607  0.1351  1.3322
58636SOL     OW87632   6.004   9.603   3.320  1.0695 -0.0040  0.2391
58636SOL    HW187633   5.994   9.529   3.380 -1.5603  0.6401  0.7207
58636SOL    HW287634   6.028   9.676   3.377  0.3683  0.2054  0.2812
58637SOL     OW87635   9.677   0.800   8.046 -0.2775  0.4989 -0.5339
58637SOL    HW187636   9.591   0.817   8.086 -0.5746  0.4165 -1.1194
58637SOL    HW287637   9.709   0.723   8.093  0.1681  1.4149  0.7287
58638SOL     OW87638  13.618  12.293  12.766 -0.3536  0.9839 -0.4118
58638SOL    HW187639  13.577  12.207  12.771  1.3102 -0.0332 -2.4798
58638SOL    HW287640  13.627  12.321  12.857 -0.9501 -0.9982  0.3127
58639SOL     OW87641  11.908   9.149  10.350  0.3237  0.0158 -0.5628
58639SOL    HW187642  11.960   9.209  10.403 -0.5374  0.9699 -0.7610
58639SOL    HW287643  11.885   9.077  10.409  1.2508 -0.0557 -0.2820
58640SOL     OW87644   3.849  12.550  11.121  0.4355  0.3125  0.0843
58640SOL    HW187645   3.924  12.570  11.064  0.3520 -1.3682 -0.6642
58640SOL    HW287646   3.774  12.587  11.076  0.4987 -0.1836 -0.4419
58641SOL     OW87647  10.084   7.904  13.181 -0.2522 -0.1570 -0.1113
58641SOL    HW187648  10.169   7.924  13.141 -1.0210 -0.2330 -1.8323
58641SOL    HW287649  10.024   7.968  13.143 -0.8239  0.5293  1.8202
58642SOL     OW87650   9.555  12.841  12.908 -0.0199 -0.5455  0.3571
58642SOL    HW187651   9.612  12.782  12.859  1.4344  1.0722 -0.0029
58642SOL    HW287652   9.545  12.917  12.851  0.1123  0.5663  1.7566
58643SOL     OW87653   0.070   5.781  10.740  0.2005 -0.5197  0.2629
58643SOL    HW187654   0.036   5.706  10.789 -0.1623 -0.4800  0.0728
58643SOL    HW287655   0.004   5.798  10.673  0.2217  0.0523  0.3870
58644SOL     OW87656   3.190   3.189   5.641  0.0025 -0.2764  0.1930
58644SOL    HW187657   3.216   3.270   5.684 -0.4193 -0.1189  0.1524
58644SOL    HW287658   3.113   3.160   5.689  0.0266 -0.5433  0.0723
58645SOL     OW87659   0.415   2.801   3.349  0.9470  0.6598 -0.3081
58645SOL    HW187660   0.458   2.880   3.315  1.2612  0.9356  0.6845
58645SOL    HW287661   0.413   2.741   3.275 -0.7046  2.1440 -1.5402
58646SOL     OW87662   4.664  10.228   2.628 -0.5843  0.1423 -0.6323
58646SOL    HW187663   4.642  10.188   2.545 -0.0854  1.2910 -1.3472
58646SOL    HW287664   4.704  10.312   2.605 -0.0143  0.2906  0.7449
58647SOL     OW87665   8.601   1.644  10.868 -0.0176 -0.0746 -0.0340
58647SOL    HW187666   8.540   1.571  10.873  0.9146 -0.8099  1.0432
58647SOL    HW287667   8.661   1.621  10.797 -0.1867  0.0059 -0.2018
58648SOL     OW87668  11.560   5.677  12.740  0.1757 -0.3376  0.3557
58648SOL    HW187669  11.603   5.752  12.699 -1.7878 -0.6247 -2.5133
58648SOL    HW287670  11.505   5.715  12.809 -0.8724  0.9364 -1.1281
58649SOL     OW87671   8.006   8.427  10.569 -0.3386  0.1024  0.2686
58649SOL    HW187672   7.955   8.429  10.488  1.2274 -2.4139 -0.9067
58649SOL    HW287673   8.074   8.493  10.557  0.2134 -0.6264 -0.7563
58650SOL     OW87674   2.306   4.988  11.508 -0.0059 -0.2500 -0.6315
58650SOL    HW187675   2.296   5.078  11.540  0.9030 -0.4600  0.2831
58650SOL    HW287676   2.393   4.987  11.468  0.4903 -1.0214  0.4283
58651SOL     OW87677   1.489   5.680  13.453 -0.6985  0.0593  0.3201
58651SOL    HW187678   1.402   5.717  13.437 -0.6966  0.1676  0.5686
58651SOL    HW287679   1.515   5.715  13.538 -0.5744 -0.2843  0.4231
58652SOL     OW87680   6.709   0.455  12.550 -0.7627 -0.2554 -0.4502
58652SOL    HW187681   6.785   0.500  12.586 -0.3832  0.0000 -1.5407
58652SOL    HW287682   6.744   0.374  12.513 -1.0951 -0.3517 -0.5590
58653SOL     OW87683  11.640   7.379   8.313  0.1747 -0.3711  0.3248
58653SOL    HW187684  11.726   7.400   8.348  1.1273 -0.7207 -1.6563
58653SOL    HW287685  11.579   7.434   8.362  1.2372 -1.5284  3.1522
58654SOL     OW87686   2.122   0.754   0.509  0.2715  0.4294  0.5973
58654SOL    HW187687   2.175   0.830   0.533 -0.0741  0.6444  0.6914
58654SOL    HW287688   2.039   0.767   0.554 -0.0946  0.4188 -0.0527
58655SOL     OW87689  11.740   9.923   9.256 -0.0779  0.4604 -0.1994
58655SOL    HW187690  11.718   9.997   9.201  0.7283 -0.5958 -2.0169
58655SOL    HW287691  11.706   9.946   9.343  0.7698  3.2311 -0.5204
58656SOL     OW87692  10.720  12.948  10.019 -0.4605 -0.2058  0.2464
58656SOL    HW187693  10.738  12.876   9.958 -0.6925  0.3084 -0.4428
58656SOL    HW287694  10.640  12.920  10.065  0.3578 -1.1197  1.1675
58657SOL     OW87695   3.198  10.732   4.844 -0.0204 -0.0083  0.0023
58657SOL    HW187696   3.231  10.718   4.933 -0.5173  0.4903  0.2712
58657SOL    HW287697   3.209  10.647   4.801  0.3469 -0.2186  0.4970
58658SOL     OW87698   4.276   9.842   1.935  0.0566  0.6994  0.0103
58658SOL    HW187699   4.257   9.908   1.868  1.5873  0.2806 -0.8872
58658SOL    HW287700   4.285   9.893   2.016 -3.2443  1.0693  0.2940
58659SOL     OW87701   6.824  13.472  11.241 -0.3234 -0.7023  0.3030
58659SOL    HW187702   6.738  13.502  11.270  0.8094  0.2470  3.0027
58659SOL    HW287703   6.811  13.378  11.224 -1.7852 -0.7086  1.1894
58660SOL     OW87704   2.969   0.621  13.003  0.3700  0.8141  0.3495
58660SOL    HW187705   2.989   0.583  12.917 -0.7811 -1.1124  0.8592
58660SOL    HW287706   2.913   0.696  12.985 -1.2013 -0.5345 -0.5472
58661SOL     OW87707   5.617   1.055   9.658 -0.5438  0.1167  0.0904
58661SOL    HW187708   5.609   1.006   9.576  1.4794 -0.7870  0.3608
58661SOL    HW287709   5.556   1.127   9.650 -0.9393 -0.4001 -1.8934
58662SOL     OW87710   3.918   3.246   9.473 -0.2157  0.3621  0.1068
58662SOL    HW187711   3.886   3.325   9.517 -2.7823 -0.5800  0.1350
58662SOL    HW287712   4.010   3.240   9.497  0.5737  4.2225 -1.2411
58663SOL     OW87713   9.630  13.265   2.730  0.2392  0.1652 -0.1756
58663SOL    HW187714   9.622  13.360   2.723  1.3315  0.2882 -0.0108
58663SOL    HW287715   9.682  13.252   2.810 -0.1893 -0.5859 -0.0098
58664SOL     OW87716  11.765   5.726  13.390  0.3593 -0.0617 -0.1904
58664SOL    HW187717  11.804   5.801  13.345  0.1464  0.3199  0.2534
58664SOL    HW287718  11.828   5.703  13.458  1.4274 -1.6334 -1.6488
58665SOL     OW87719   2.648  11.940   0.354  0.4447 -0.0963 -0.1836
58665SOL    HW187720   2.732  11.909   0.388  1.8801  2.1699 -1.4146
58665SOL    HW287721   2.671  12.003   0.286 -2.2891 -0.6228 -1.7465
58666SOL     OW87722   1.067   3.848   5.885  0.1446  0.3881 -0.4046
58666SOL    HW187723   1.073   3.852   5.789 -0.2073 -0.4123 -0.4731
58666SOL    HW287724   1.128   3.777   5.909  0.1806  0.5422 -0.0439
58667SOL     OW87725   8.533   3.635  12.464  0.1188  0.3077 -0.6949
58667SOL    HW187726   8.469   3.704  12.449  0.0829  0.8551  1.6561
58667SOL    HW287727   8.593   3.671  12.529  1.9684 -0.7544 -1.7032
58668SOL     OW87728   7.704   6.744   7.364 -0.0253  0.2814 -0.8235
58668SOL    HW187729   7.618   6.759   7.326 -0.1833  1.8946  0.0755
58668SOL    HW287730   7.756   6.819   7.334  0.4831  0.3714  0.2596
58669SOL     OW87731   8.745   6.808  12.616 -0.2266 -0.1352  0.0652
58669SOL    HW187732   8.782   6.896  12.609 -0.9521  0.1722 -0.0666
58669SOL    HW287733   8.753   6.787  12.709 -0.2539  0.1677  0.1400
58670SOL     OW87734   1.475  11.070  10.583  0.0846  0.1355 -0.6059
58670SOL    HW187735   1.559  11.111  10.565 -0.4758  2.5015  1.5330
58670SOL    HW287736   1.496  10.993  10.637  0.8976  0.2586 -0.7394
58671SOL     OW87737   3.694   6.608   0.906  0.3868 -0.0164 -0.8281
58671SOL    HW187738   3.656   6.530   0.947 -1.1974  0.4117 -1.4230
58671SOL    HW287739   3.782   6.580   0.879  0.1456 -1.3559 -0.3202
58672SOL     OW87740  12.973   9.174  11.247  0.3297  0.7764  0.0020
58672SOL    HW187741  12.928   9.193  11.165  0.2954  0.6462 -0.0095
58672SOL    HW287742  13.007   9.085  11.236 -1.6700 -0.1768  0.9924
58673SOL     OW87743   2.139   0.211   8.735 -0.2508  0.1875 -0.0844
58673SOL    HW187744   2.232   0.200   8.756 -0.5575 -2.3744  0.1833
58673SOL    HW287745   2.105   0.267   8.805  0.7562 -0.2144  0.7535
58674SOL     OW87746   5.336   6.041   9.722 -0.1534 -0.1357 -0.2231
58674SOL    HW187747   5.360   6.044   9.814 -0.0798  0.5439 -0.2587
58674SOL    HW287748   5.247   6.006   9.722  0.0196 -0.5828  0.0683
58675SOL     OW87749   2.322  11.138   3.415 -0.3274 -0.0980 -0.2952
58675SOL    HW187750   2.308  11.226   3.380  0.2402  0.7659  1.5335
58675SOL    HW287751   2.238  11.115   3.455 -0.2990 -0.1507 -0.2661
58676SOL     OW87752   6.876   6.686  12.572 -0.0339 -0.4145  0.5008
58676SOL    HW187753   6.822   6.608  12.586  0.4847 -0.8196  0.3003
58676SOL    HW287754   6.847   6.748  12.639 -2.2283  0.1899 -0.9071
58677SOL     OW87755   3.872   6.225   8.892  0.6535  0.1440 -0.5448
58677SOL    HW187756   3.913   6.301   8.849  2.2975  0.2782  1.1584
58677SOL    HW287757   3.872   6.157   8.824  1.1191  1.0208 -1.4541
58678SOL     OW87758   6.524   2.754  10.730  0.1094  0.1222  1.0125
58678SOL    HW187759   6.600   2.789  10.684 -1.2094 -1.6178 -2.8744
58678SOL    HW287760   6.561   2.689  10.790  1.8975  2.2695  2.4043
58679SOL     OW87761   3.101   5.069   9.529 -0.3212  0.0937 -0.0469
58679SOL    HW187762   3.106   5.011   9.453  0.3595  0.9667 -0.6925
58679SOL    HW287763   3.160   5.142   9.507  0.2504  0.1312  1.5168
58680SOL     OW87764   4.836   7.886   3.905 -0.0957 -0.6995 -0.6246
58680SOL    HW187765   4.809   7.892   3.814 -0.3670  2.5585 -0.4174
58680SOL    HW287766   4.759   7.912   3.955  0.4519 -1.1587  0.4999
58681SOL     OW87767  11.450   7.279   1.894  0.6157  0.6340 -0.0939
58681SOL    HW187768  11.514   7.275   1.823 -0.0861  0.1881 -0.7135
58681SOL    HW287769  11.375   7.230   1.861  0.6141 -0.3537  1.3056
58682SOL     OW87770   9.486  10.412  12.077 -0.4712 -0.3031  0.0738
58682SOL    HW187771   9.566  10.360  12.082 -0.1938 -0.0687 -1.3632
58682SOL    HW287772   9.418  10.357  12.115  0.4961 -0.1607  2.1797
58683SOL     OW87773  12.551  12.887   8.778  0.6498 -0.1731 -0.2147
58683SOL    HW187774  12.633  12.881   8.730  0.3651 -2.7501 -0.4751
58683SOL    HW287775  12.572  12.856   8.866 -0.0225 -0.8175 -0.2732
58684SOL     OW87776   6.294   0.496   7.049 -0.0428 -0.3171 -0.7810
58684SOL    HW187777   6.336   0.436   6.988  0.3347 -3.1084  1.9826
58684SOL    HW287778   6.367   0.532   7.101 -0.5168  0.4636 -0.6348
58685SOL     OW87779   0.069   8.339   5.628 -0.4828  0.0827  0.6303
58685SOL    HW187780   0.121   8.326   5.708 -1.2982  2.0307  1.5563
58685SOL    HW287781   0.117   8.293   5.560  0.8906 -0.6181  2.0139
58686SOL     OW87782   0.844   7.929  11.222  0.0223  0.4609  0.1936
58686SOL    HW187783   0.926   7.970  11.196 -0.0831  1.1989  0.9766
58686SOL    HW287784   0.782   7.953  11.153  0.9425 -2.0013 -1.6523
58687SOL     OW87785  10.845   0.061  11.186  0.4046  0.3307 -0.2718
58687SOL    HW187786  10.897   0.139  11.201  1.3252 -0.6519  2.1389
58687SOL    HW287787  10.899  -0.011  11.218 -1.0079 -1.1415 -1.0191
58688SOL     OW87788  13.176  10.363   1.677 -0.1115  0.6468 -0.0162
58688SOL    HW187789  13.147  10.314   1.600 -0.5065  0.7031  0.0980
58688SOL    HW287790  13.096  10.398   1.716  0.1806  1.6423 -0.2637
58689SOL     OW87791   9.791   9.565   0.328 -0.4344 -0.2051  0.8374
58689SOL    HW187792   9.837   9.622   0.390 -0.7822 -1.0721  1.9310
58689SOL    HW287793   9.770   9.486   0.379 -1.1930 -0.7304 -0.2473
58690SOL     OW87794   7.081   4.615   7.678  0.4227 -0.1515 -0.3998
58690SOL    HW187795   7.161   4.663   7.658  0.0352  0.5438 -0.3204
58690SOL    HW287796   7.012   4.661   7.630 -0.4057  1.0721  1.8105
58691SOL     OW87797   2.273   4.470  11.200  0.1016  0.6286 -0.6788
58691SOL    HW187798   2.215   4.505  11.268 -0.2398  0.9984 -1.1497
58691SOL    HW287799   2.228   4.392  11.168 -0.3495  1.1495 -1.3330
58692SOL     OW87800   7.883   6.526   0.293  0.4137 -0.6536 -0.0644
58692SOL    HW187801   7.871   6.444   0.341 -1.2274  0.4183  1.4912
58692SOL    HW287802   7.929   6.501   0.213  0.3763 -3.0026  0.5893
58693SOL     OW87803   0.428   0.261   8.106  0.2991 -0.3313 -0.4364
58693SOL    HW187804   0.450   0.287   8.196 -0.1080 -1.9822  0.1603
58693SOL    HW287805   0.382   0.178   8.115 -0.0458 -0.3638 -2.1671
58694SOL     OW87806   6.358   7.978   9.579  0.3504  0.4922  0.1900
58694SOL    HW187807   6.329   7.928   9.502  0.1389  1.4252 -0.3510
58694SOL    HW287808   6.300   8.054   9.581  0.1632  0.3376  1.4495
58695SOL     OW87809   4.107   7.820   5.160  0.4230  0.1103  0.7628
58695SOL    HW187810   4.107   7.724   5.157  0.4694  0.1100  0.7902
58695SOL    HW287811   4.017   7.844   5.136  0.8330  0.1094 -0.8770
58696SOL     OW87812   0.691   3.738   1.270  0.1795  0.7399 -0.5841
58696SOL    HW187813   0.675   3.829   1.244  0.2226  0.7953 -0.4159
58696SOL    HW287814   0.721   3.744   1.361 -1.4818  0.4457  0.0254
58697SOL     OW87815   7.526  10.244  10.109 -0.1069 -0.3255  0.4770
58697SOL    HW187816   7.528  10.149  10.101  0.6398 -0.3649  1.0100
58697SOL    HW287817   7.572  10.262  10.191 -2.6093  0.3432  1.8536
58698SOL     OW87818   9.528   6.138   7.799 -0.0201 -0.4480 -0.4497
58698SOL    HW187819   9.452   6.188   7.830  0.6744 -1.0246  2.4344
58698SOL    HW287820   9.562   6.189   7.726 -1.8284  1.0218 -0.3355
58699SOL     OW87821   5.783  11.701   7.534 -0.2746 -0.3370  0.1399
58699SOL    HW187822   5.724  11.627   7.524 -0.2819 -0.1567 -1.4879
58699SOL    HW287823   5.796  11.733   7.444 -1.0133  2.2034  0.8535
58700SOL     OW87824   0.537   5.772   5.058 -0.0846  0.4635  0.2162
58700SOL    HW187825   0.451   5.744   5.088  0.1262 -0.0724  0.3385
58700SOL    HW287826   0.523   5.797   4.966 -0.9510  3.1342  0.9714
58701SOL     OW87827   5.138   1.484   4.047 -0.2303  0.4312  0.4052
58701SOL    HW187828   5.097   1.415   4.100  0.4353  0.6258  1.1850
58701SOL    HW287829   5.110   1.464   3.957  0.6346 -1.3676  0.5016
58702SOL     OW87830   4.049   0.431   9.116  0.2807 -0.3402 -0.1838
58702SOL    HW187831   4.012   0.346   9.093 -1.2256  0.0198  0.7539
58702SOL    HW287832   4.125   0.410   9.170 -0.0989 -1.1033  0.0690
58703SOL     OW87833   7.309  12.619   4.333  0.5739 -0.6876  0.6585
58703SOL    HW187834   7.282  12.527   4.337  0.4522 -0.6266  1.3343
58703SOL    HW287835   7.368  12.623   4.258 -1.9958 -0.6518 -1.5424
58704SOL     OW87836   5.338   9.319  12.809 -0.1805 -0.3258 -0.4567
58704SOL    HW187837   5.291   9.261  12.870 -0.1654 -0.9108 -0.9960
58704SOL    HW287838   5.272   9.384  12.783 -1.0648 -1.7876 -2.0770
58705SOL     OW87839   2.436  13.310   6.837 -0.2885  0.5026 -0.0933
58705SOL    HW187840   2.351  13.320   6.879 -0.4806  1.0680 -0.6026
58705SOL    HW287841   2.499  13.337   6.903 -0.5606  0.9613 -0.0219
58706SOL     OW87842   8.574   6.456   2.592  0.0781  0.6893  0.1116
58706SOL    HW187843   8.494   6.502   2.566  0.3778  0.8835 -0.5118
58706SOL    HW287844   8.592   6.398   2.518  1.4962  1.9673 -0.6105
58707SOL     OW87845   1.758   6.571   4.195  0.5038  0.1037  0.0601
58707SOL    HW187846   1.693   6.502   4.180  0.5230 -0.3012  1.6746
58707SOL    HW287847   1.713   6.636   4.248  0.0028  2.1941 -2.6684
58708SOL     OW87848   0.033   4.981   4.824 -0.0379 -0.0868  0.1467
58708SOL    HW187849  -0.009   5.018   4.902 -0.9554 -0.1079 -0.3271
58708SOL    HW287850   0.026   4.886   4.836 -1.9640 -0.1300 -0.8484
58709SOL     OW87851  10.244  13.712   3.687  0.5791  0.1215 -0.2844
58709SOL    HW187852  10.265  13.628   3.645  0.8787  0.0188  0.0613
58709SOL    HW287853  10.256  13.777   3.618  1.7691  0.0297 -0.1951
58710SOL     OW87854   2.248   9.136   6.482 -0.0399 -0.6685  0.0726
58710SOL    HW187855   2.262   9.184   6.401 -0.2610  1.0271  0.9843
58710SOL    HW287856   2.332   9.140   6.527 -0.1885 -0.7089  0.3570
58711SOL     OW87857   1.843   4.412   7.269  0.2790  0.1324 -0.0302
58711SOL    HW187858   1.857   4.320   7.291 -0.8231 -0.0779 -0.1768
58711SOL    HW287859   1.761   4.413   7.219  0.4181  1.1605 -0.2633
58712SOL     OW87860   6.827   2.149  12.517 -0.2580  0.1330  0.2774
58712SOL    HW187861   6.828   2.235  12.475 -0.1151  0.3083  0.6395
58712SOL    HW287862   6.745   2.147  12.566 -0.3434 -0.0059  0.1321
58713SOL     OW87863  13.030  12.351  10.141 -0.3619  0.4922  0.0813
58713SOL    HW187864  13.033  12.411  10.066 -1.3892 -0.2841 -0.6191
58713SOL    HW287865  13.085  12.392  10.207 -0.5502  1.8932 -0.5943
58714SOL     OW87866   7.779   9.737  11.072  0.5613 -0.2157  0.9339
58714SOL    HW187867   7.725   9.811  11.099 -0.2366 -0.1233 -0.7594
58714SOL    HW287868   7.727   9.693  11.004  2.2420 -0.6136 -0.1542
58715SOL     OW87869  12.512   6.160   5.567  0.5388 -0.3413 -0.1032
58715SOL    HW187870  12.460   6.098   5.617 -0.7664 -0.0697 -1.0796
58715SOL    HW287871  12.509   6.128   5.477  0.9072  0.4430 -0.4071
58716SOL     OW87872   4.067   9.823   6.003  0.4393  0.3593 -0.1791
58716SOL    HW187873   4.012   9.831   5.925 -1.2039 -1.0600  0.7374
58716SOL    HW287874   4.005   9.835   6.076  1.3805 -1.0441  0.9023
58717SOL     OW87875   6.775  13.556   3.437 -0.1733  0.5583 -0.3019
58717SOL    HW187876   6.745  13.470   3.469  0.9046  0.0618 -0.5649
58717SOL    HW287877   6.755  13.616   3.509  0.2264 -0.1556  0.4302
58718SOL     OW87878   4.810   6.756  10.761 -0.2334  0.6252 -0.5143
58718SOL    HW187879   4.736   6.805  10.726 -2.5434 -1.9347  0.4761
58718SOL    HW287880   4.830   6.797  10.845 -1.5170  0.4673 -0.1198
58719SOL     OW87881  10.534   2.208   3.326 -0.3549 -0.1582 -0.3592
58719SOL    HW187882  10.511   2.244   3.411  0.2908  1.4625 -0.8259
58719SOL    HW287883  10.625   2.234   3.312 -0.6365  0.1823 -1.7977
58720SOL     OW87884   4.015   3.141   3.158  0.4279  0.3347 -0.4445
58720SOL    HW187885   4.111   3.140   3.157  0.5014 -2.6618 -0.1626
58720SOL    HW287886   3.991   3.058   3.198 -2.3370  1.4138  0.3709
58721SOL     OW87887   4.158  12.000  13.321  0.0785 -0.9042  0.2392
58721SOL    HW187888   4.117  12.035  13.400  2.8344  0.5138  1.1698
58721SOL    HW287889   4.241  11.964  13.351  0.1650 -2.5547 -1.7152
58722SOL     OW87890   6.471   8.977   6.513  0.3099 -0.1745  0.2306
58722SOL    HW187891   6.511   9.008   6.594  1.1492 -0.2305 -0.1543
58722SOL    HW287892   6.544   8.944   6.461 -0.2879 -0.6284 -0.3317
58723SOL     OW87893  12.256   0.246   6.402  0.4567  0.2097 -0.2062
58723SOL    HW187894  12.279   0.193   6.478 -0.7634 -0.4477 -0.2676
58723SOL    HW287895  12.338   0.286   6.374  1.1303 -0.4944  0.7243
58724SOL     OW87896   9.908   5.506  12.821 -0.2000 -0.3711 -0.2014
58724SOL    HW187897   9.915   5.456  12.902 -0.3160  0.6873  0.4757
58724SOL    HW287898   9.896   5.439  12.753 -1.2893 -1.2161  0.7727
58725SOL     OW87899   0.570   8.467   8.567 -0.4235  0.4730 -0.0682
58725SOL    HW187900   0.581   8.396   8.504  0.0150  0.3505  0.1395
58725SOL    HW287901   0.659   8.491   8.591 -0.5841  0.6842  0.3203
58726SOL     OW87902   8.901   4.936   8.041 -0.1255 -0.3838  0.1359
58726SOL    HW187903   8.818   4.890   8.032  0.0490 -0.9725  1.2995
58726SOL    HW287904   8.920   4.933   8.135  0.9158  0.2641 -0.0345
58727SOL     OW87905   5.724   6.277   9.383 -0.0748  0.0758 -0.3339
58727SOL    HW187906   5.694   6.356   9.429 -1.2557 -0.3900 -0.2756
58727SOL    HW287907   5.714   6.207   9.447 -0.1899 -0.3195 -0.7792
58728SOL     OW87908   2.510   1.371  10.883  0.2556 -0.1117 -0.3021
58728SOL    HW187909   2.550   1.349  10.967  1.4487  0.0274 -0.8187
58728SOL    HW287910   2.501   1.466  10.885  0.8287 -0.0461 -0.5536
58729SOL     OW87911   0.074  13.074  12.527 -0.1234 -0.1625  0.4760
58729SOL    HW187912   0.073  13.074  12.431 -0.2563  1.3525  0.4541
58729SOL    HW287913  -0.014  13.045  12.552 -0.1538 -0.3630  0.1504
58730SOL     OW87914   6.929   1.816   5.530 -0.3737  0.1605 -0.0673
58730SOL    HW187915   6.970   1.743   5.485 -0.0715  0.0346  0.4018
58730SOL    HW287916   6.883   1.776   5.604  1.2763  0.5847  1.2490
58731SOL     OW87917  10.763  12.038  13.247  0.6684  0.5555 -0.1227
58731SOL    HW187918  10.754  12.126  13.283  1.3185  0.0822  1.2474
58731SOL    HW287919  10.840  12.001  13.290  0.1389 -0.8520 -0.3062
58732SOL     OW87920  12.335  10.072   7.634 -0.1178  0.2483 -0.0920
58732SOL    HW187921  12.396  10.073   7.560  0.0271  1.6025  0.0217
58732SOL    HW287922  12.298  10.161   7.636 -1.4907 -0.3141  0.3404
58733SOL     OW87923   2.328   0.101   6.358 -0.5036  0.1189  0.6975
58733SOL    HW187924   2.321   0.036   6.428 -1.4613 -0.9731 -0.3643
58733SOL    HW287925   2.390   0.166   6.391 -0.4126 -0.7250  2.2650
58734SOL     OW87926   6.234   9.042  12.323  0.1382 -0.0327 -0.5641
58734SOL    HW187927   6.166   9.060  12.389 -2.0305 -1.1502 -2.3412
58734SOL    HW287928   6.230   9.117  12.264  0.6512  0.0041 -0.5582
58735SOL     OW87929   3.496   9.284   8.832 -0.1246 -0.0585 -0.1372
58735SOL    HW187930   3.478   9.275   8.739 -1.4989 -0.6647  0.1601
58735SOL    HW287931   3.587   9.312   8.837  0.1576 -0.6663 -1.6309
58736SOL     OW87932  11.881   6.462   4.345  0.0370  0.6077  0.9848
58736SOL    HW187933  11.903   6.434   4.434  2.5605 -1.2276 -0.1132
58736SOL    HW287934  11.965   6.480   4.303 -1.1084  2.0911 -0.8805
58737SOL     OW87935   1.753   0.364   9.441  0.1368 -0.0971 -0.0249
58737SOL    HW187936   1.683   0.324   9.389 -0.1672  0.2753  0.0913
58737SOL    HW287937   1.802   0.416   9.377 -0.0654  0.1339  0.0065
58738SOL     OW87938  13.392   6.966   7.457 -0.1585 -0.4752  0.6488
58738SOL    HW187939  13.471   6.959   7.511  1.0828 -0.3816 -1.0822
58738SOL    HW287940  13.396   7.055   7.422 -0.5214 -0.7901 -0.2088
58739SOL     OW87941  10.202   1.151  13.117 -0.0470 -0.0677 -0.0472
58739SOL    HW187942  10.148   1.163  13.195 -0.4026 -0.3263 -0.2549
58739SOL    HW287943  10.145   1.175  13.044 -0.5496 -2.2523 -0.4354
58740SOL     OW87944   8.178   6.902   8.571 -0.2016 -0.4212 -0.0044
58740SOL    HW187945   8.212   6.985   8.537 -1.9471  1.5992  2.7876
58740SOL    HW287946   8.087   6.899   8.542 -1.2475  0.5663  2.8620
58741SOL     OW87947  10.955   1.763   2.216  0.4179 -0.3234 -0.9513
58741SOL    HW187948  10.916   1.723   2.139  0.3211 -0.7492 -0.6823
58741SOL    HW287949  11.008   1.694   2.255  2.0174  0.4504 -1.6992
58742SOL     OW87950   1.872   3.567  11.868 -0.0389 -0.1239  0.2796
58742SOL    HW187951   1.837   3.480  11.851 -1.3618 -0.6220  4.5588
58742SOL    HW287952   1.967   3.554  11.872 -0.2319 -1.4392  1.0295
58743SOL     OW87953  11.374   3.394  11.451  0.6909 -0.5522 -0.1527
58743SOL    HW187954  11.444   3.350  11.500 -0.8016 -1.5309  1.2123
58743SOL    HW287955  11.359   3.476  11.497  0.4489 -0.6860  0.0107
58744SOL     OW87956  11.297   0.039  10.514 -0.1790 -1.0281 -0.1448
58744SOL    HW187957  11.259  -0.047  10.530  0.0891 -1.1450 -0.1271
58744SOL    HW287958  11.283   0.055  10.421 -1.0951 -0.6650  0.0519
58745SOL     OW87959   9.741  12.077   3.332 -0.0378 -0.1707 -0.4774
58745SOL    HW187960   9.766  12.132   3.407 -0.4663 -0.7731  0.1230
58745SOL    HW287961   9.696  12.002   3.371 -1.2456  0.0353 -1.4144
58746SOL     OW87962   7.988  12.727   7.588  0.4948  0.2872 -0.8728
58746SOL    HW187963   7.984  12.778   7.507 -1.2882  1.5423 -0.0565
58746SOL    HW287964   8.042  12.779   7.647 -0.5777  0.8143 -0.3351
58747SOL     OW87965   1.796   4.782   6.599  0.4688  0.3890 -0.2616
58747SOL    HW187966   1.743   4.725   6.543  1.9167 -0.1606 -1.1009
58747SOL    HW287967   1.760   4.769   6.687 -0.5777 -0.2040 -0.7553
58748SOL     OW87968   2.995  10.557   1.330  0.0740 -0.8479  0.3751
58748SOL    HW187969   3.053  10.566   1.255 -1.5534 -0.6907 -0.9274
58748SOL    HW287970   3.034  10.612   1.397  0.5554  0.5694 -1.0101
58749SOL     OW87971  11.304   1.034   8.268 -0.2654 -0.3138 -0.6641
58749SOL    HW187972  11.343   0.946   8.269  0.9342  0.2069 -0.2549
58749SOL    HW287973  11.365   1.088   8.318 -1.0616  0.7345 -0.7919
58750SOL     OW87974   4.528  10.720  13.182  0.0560  0.0856 -0.9470
58750SOL    HW187975   4.557  10.783  13.247 -0.6609 -1.0530  0.5433
58750SOL    HW287976   4.556  10.756  13.098  1.1041  1.5395  0.0013
58751SOL     OW87977   9.056   9.644   9.315 -0.0471  0.8032 -0.4528
58751SOL    HW187978   9.015   9.621   9.398  0.4472  1.4524 -0.0155
58751SOL    HW287979   9.147   9.618   9.324  0.3444  2.1442 -0.2370
58752SOL     OW87980  10.192   7.050  11.780  0.4260 -0.2314  0.7021
58752SOL    HW187981  10.221   7.058  11.870 -0.5956 -0.6944  1.0938
58752SOL    HW287982  10.215   6.960  11.755 -0.3549 -0.5002  0.9145
58753SOL     OW87983   0.018   0.285   6.467  0.4677  0.4736  0.1419
58753SOL    HW187984   0.038   0.198   6.433  2.6972  0.4255  1.3952
58753SOL    HW287985   0.025   0.343   6.390 -1.9046 -0.4620 -0.8889
58754SOL     OW87986   6.090  12.971   4.525 -0.2548  0.6852  0.2172
58754SOL    HW187987   6.113  12.954   4.617 -2.3218 -2.0185  0.3547
58754SOL    HW287988   6.158  12.925   4.475  0.4128  1.4805  0.3647
58755SOL     OW87989  12.544   5.905   4.462 -0.4904 -0.2790  0.5645
58755SOL    HW187990  12.512   5.915   4.552 -0.1453 -1.2167  0.7975
58755SOL    HW287991  12.576   5.816   4.458  4.1520  1.1062  1.0334
58756SOL     OW87992   0.124  11.546   1.315  0.5649  0.0871  0.5763
58756SOL    HW187993   0.162  11.524   1.230 -1.6154 -0.6842 -0.2902
58756SOL    HW287994   0.199  11.556   1.373  2.2776  2.5565 -1.8076
58757SOL     OW87995   9.697   5.544   6.937 -0.6242  0.0610 -0.0189
58757SOL    HW187996   9.749   5.590   6.872 -0.4314 -0.1975 -0.0461
58757SOL    HW287997   9.624   5.603   6.955 -1.5802 -0.5383 -1.6683
58758SOL     OW87998  10.780   1.318   3.765  0.5766  0.3144 -0.4950
58758SOL    HW187999  10.805   1.403   3.801  0.7596  0.6785 -1.4436
58758SOL    HW288000  10.792   1.256   3.837 -1.6948  1.3997  0.9216
58759SOL     OW88001  13.561  13.096   9.453  0.6645 -0.5403  0.8567
58759SOL    HW188002  13.520  13.162   9.397 -1.1247 -1.1090  1.4085
58759SOL    HW288003  13.638  13.139   9.489  0.3081  0.7658  0.1126
58760SOL     OW88004   8.041   3.869   0.431  0.1310  0.4844  0.1027
58760SOL    HW188005   8.089   3.834   0.507  1.9645 -0.4368 -1.3956
58760SOL    HW288006   7.986   3.937   0.468 -1.0356 -1.6451  2.6744
58761SOL     OW88007   2.560   5.940   5.139  0.4018 -0.0076  0.3161
58761SOL    HW188008   2.518   5.861   5.105 -0.1779  1.1003 -1.7252
58761SOL    HW288009   2.499   5.975   5.204 -0.2186 -0.2508 -0.1314
58762SOL     OW88010  12.418   5.509   4.621 -0.2167  0.1732  0.1220
58762SOL    HW188011  12.415   5.576   4.553 -1.3630 -0.3148 -0.3350
58762SOL    HW288012  12.411   5.558   4.703 -2.6381  0.5518 -0.2550
58763SOL     OW88013   3.236   0.139   9.438  0.4246  0.3641 -0.0072
58763SOL    HW188014   3.267   0.221   9.400  0.7323 -0.0970 -0.7717
58763SOL    HW288015   3.163   0.113   9.381 -0.0245  0.3837  0.5545
58764SOL     OW88016   1.571   8.220   9.118  0.0411  0.2357 -0.1199
58764SOL    HW188017   1.475   8.228   9.110 -0.2798 -2.2163  0.5391
58764SOL    HW288018   1.588   8.241   9.210 -0.2229 -1.6329  0.4002
58765SOL     OW88019  11.003  11.039   2.502 -0.4120  0.0909  0.0628
58765SOL    HW188020  10.969  10.953   2.530  0.1883 -0.4996 -0.9659
58765SOL    HW288021  10.928  11.097   2.506 -0.4784 -0.0429  2.4408
58766SOL     OW88022  11.469  13.553  10.268  0.1546 -0.0696  0.3349
58766SOL    HW188023  11.500  13.630  10.220 -0.6301 -1.3663 -2.4900
58766SOL    HW288024  11.496  13.479  10.214 -1.5119 -1.6006  1.4895
58767SOL     OW88025  12.878   0.602  10.154 -0.0808  0.1801 -0.2519
58767SOL    HW188026  12.835   0.524  10.189 -0.4747  0.1622 -0.7541
58767SOL    HW288027  12.839   0.675  10.201  2.0988 -0.0295  2.0787
58768SOL     OW88028   1.391  11.355   1.063  0.0728  0.5114 -0.1814
58768SOL    HW188029   1.469  11.368   1.009  0.8476 -1.8444  0.2786
58768SOL    HW288030   1.423  11.357   1.153 -0.4578 -0.0871  0.0276
58769SOL     OW88031   4.022  12.557  10.169  0.5524  0.0229 -0.2382
58769SOL    HW188032   4.090  12.594  10.113  0.0820  2.3765  0.6253
58769SOL    HW288033   4.004  12.625  10.234 -1.5388 -1.1250  0.4970
58770SOL     OW88034  10.002   4.106   5.230  0.1973 -0.2682  0.1978
58770SOL    HW188035  10.010   4.011   5.220  0.9067 -0.2502  0.5307
58770SOL    HW288036   9.916   4.127   5.194  1.7226 -0.4525 -4.0831
58771SOL     OW88037  11.236  13.110  10.187 -0.7000  0.0088 -0.2174
58771SOL    HW188038  11.308  13.047  10.177 -0.7911  0.0150 -0.9759
58771SOL    HW288039  11.279  13.190  10.218 -0.8409 -0.9869  2.9314
58772SOL     OW88040  10.337  13.508   7.501 -0.2340  0.0761 -0.2022
58772SOL    HW188041  10.397  13.487   7.572 -0.0472  1.8362  0.1946
58772SOL    HW288042  10.349  13.437   7.438  3.7408  1.2424 -1.0549
58773SOL     OW88043  10.980   9.328   4.154 -0.7435  0.4677  0.2520
58773SOL    HW188044  11.005   9.409   4.198 -0.6910  0.3361  0.4683
58773SOL    HW288045  11.014   9.259   4.211  0.8378  0.2847 -0.8620
58774SOL     OW88046   0.881   1.181   3.045  1.2622  0.2761 -0.8079
58774SOL    HW188047   0.883   1.276   3.061 -0.6014  0.3680 -0.8663
58774SOL    HW288048   0.797   1.153   3.081  1.6614 -1.3202 -1.0537
58775SOL     OW88049   5.209   4.228   7.166 -0.2642  0.2932 -0.2281
58775SOL    HW188050   5.238   4.289   7.234 -0.1877 -0.1185  0.1157
58775SOL    HW288051   5.145   4.278   7.115  0.7415  1.0904 -0.7607
58776SOL     OW88052   2.167   6.319   4.443 -0.0020  0.3052  0.2644
58776SOL    HW188053   2.175   6.390   4.380 -1.6065 -0.1170 -0.4640
58776SOL    HW288054   2.235   6.256   4.417 -0.7079  0.0886 -1.1553
58777SOL     OW88055   7.515   7.031  11.128 -0.0504  0.3432 -0.2203
58777SOL    HW188056   7.513   7.078  11.212 -1.2562  1.1700 -0.6883
58777SOL    HW288057   7.607   7.029  11.104  0.1939  1.0919  0.5895
58778SOL     OW88058   5.885  13.694   9.941  0.0863 -0.4769  0.0343
58778SOL    HW188059   5.845  13.781   9.940  1.4890  0.2181  0.8200
58778SOL    HW288060   5.811  13.634   9.940 -0.9577  0.7424  0.5613
58779SOL     OW88061   4.673   2.081  10.276  0.4385  0.3126  0.4845
58779SOL    HW188062   4.675   2.170  10.241 -2.6759 -0.0053 -0.8029
58779SOL    HW288063   4.642   2.092  10.366 -0.4069  0.5065  0.1750
58780SOL     OW88064  12.171   5.081   9.757 -0.2663 -0.0984 -0.4967
58780SOL    HW188065  12.144   5.170   9.780 -0.7188 -0.5169  0.6915
58780SOL    HW288066  12.266   5.081   9.772 -0.4534 -0.1676  0.8219
58781SOL     OW88067   7.107  13.084  10.527  0.0191  0.4224  0.3683
58781SOL    HW188068   7.182  13.054  10.578  0.3070  0.4022 -0.0613
58781SOL    HW288069   7.084  13.168  10.566  0.3539  0.4948  0.4143
58782SOL     OW88070  13.699   7.980   8.179 -0.0159  0.1818 -0.8979
58782SOL    HW188071  13.713   7.902   8.125  0.2605 -1.0275  0.8329
58782SOL    HW288072  13.615   7.966   8.222  0.4219  0.4306  0.0687
58783SOL     OW88073  13.571   0.946   7.259  0.3563 -0.0534 -0.4398
58783SOL    HW188074  13.640   0.881   7.272 -1.4024 -2.2308 -1.3170
58783SOL    HW288075  13.578   0.970   7.166  0.1404 -0.0210 -0.4471
58784SOL     OW88076  10.441  11.545  10.030 -0.4423 -0.1289 -0.7672
58784SOL    HW188077  10.430  11.451  10.048  0.3721 -0.1088 -0.1292
58784SOL    HW288078  10.510  11.549   9.964 -0.5988  0.0138 -0.9224
58785SOL     OW88079   4.336   8.184  10.828  0.2882  0.2804 -0.0789
58785SOL    HW188080   4.385   8.107  10.855 -1.4001 -1.7219 -2.2783
58785SOL    HW288081   4.371   8.205  10.741 -0.8609  0.4627 -0.5193
58786SOL     OW88082   8.232   3.553   2.485 -0.4590  0.1203 -0.1002
58786SOL    HW188083   8.287   3.614   2.534 -0.6887 -0.5678  1.0407
58786SOL    HW288084   8.145   3.565   2.521 -0.2486 -1.9214  1.2279
58787SOL     OW88085   2.566   0.752   4.071 -0.1852 -0.6065  0.2499
58787SOL    HW188086   2.596   0.841   4.053 -0.1049 -0.5164  0.8166
58787SOL    HW288087   2.630   0.717   4.133 -0.4248 -0.9293  0.3195
58788SOL     OW88088   1.772   6.654   7.057 -0.5387  0.3129 -0.2572
58788SOL    HW188089   1.866   6.663   7.042 -0.6130  1.1441 -0.2457
58788SOL    HW288090   1.741   6.743   7.069 -1.4310  0.0933 -0.8566
58789SOL     OW88091   6.892   2.913   9.953  0.5040  0.2256 -0.5762
58789SOL    HW188092   6.868   2.857   9.880 -0.0538  0.0333 -0.2472
58789SOL    HW288093   6.929   2.991   9.911  0.7066 -0.1133 -1.0477
58790SOL     OW88094   0.497  10.393   6.628  0.0845  0.4828 -0.5231
58790SOL    HW188095   0.578  10.385   6.679  0.0821 -1.1658 -0.7135
58790SOL    HW288096   0.499  10.482   6.594  0.4576  1.3735  1.7020
58791SOL     OW88097  11.036   3.337   2.446 -0.0177  0.1878 -0.5121
58791SOL    HW188098  11.009   3.385   2.367 -0.4305  0.0372 -0.4649
58791SOL    HW288099  10.959   3.285   2.470 -0.2279  0.9674  0.5614
58792SOL     OW88100   0.556  11.165   4.026 -0.2409 -0.7076 -0.5183
58792SOL    HW188101   0.604  11.101   3.973  0.5013 -0.4965 -0.1272
58792SOL    HW288102   0.621  11.195   4.090 -0.7887 -0.1003 -0.2409
58793SOL     OW88103   6.152   0.401  10.619 -0.3513  0.1666  0.6627
58793SOL    HW188104   6.057   0.404  10.607 -0.6331 -1.0143  2.3438
58793SOL    HW288105   6.178   0.493  10.626 -1.2960  0.5194 -0.1503
58794SOL     OW88106  10.414   1.344   3.237  0.2299  0.2616  0.4019
58794SOL    HW188107  10.493   1.375   3.282  0.9182  0.6280 -1.0202
58794SOL    HW288108  10.385   1.419   3.185 -0.0263 -0.4174 -0.4589
58795SOL     OW88109   6.908   6.320   6.986 -0.5123  0.9337 -0.2282
58795SOL    HW188110   6.950   6.401   7.014  0.6682  0.3509 -0.2539
58795SOL    HW288111   6.819   6.325   7.021  0.4537  0.8667  2.4314
58796SOL     OW88112  12.241  13.091   4.466 -0.1556 -0.1849  0.6187
58796SOL    HW188113  12.307  13.111   4.401 -1.0562 -1.2798 -0.6808
58796SOL    HW288114  12.230  12.996   4.461 -0.1705 -0.3157  2.4588
58797SOL     OW88115  10.544   9.820  11.948 -0.1928  0.2138 -0.2412
58797SOL    HW188116  10.498   9.904  11.952  0.7567  0.7554 -0.3635
58797SOL    HW288117  10.512   9.779  11.867  0.7589  1.3398 -1.2291
58798SOL     OW88118   4.225   3.797   3.663  0.0389  0.9204 -0.3193
58798SOL    HW188119   4.272   3.720   3.632 -0.8919  0.1673  0.0833
58798SOL    HW288120   4.155   3.810   3.599 -1.4110 -0.1689  0.9656
58799SOL     OW88121   2.591   0.879  11.368 -0.3413  0.2271  0.3409
58799SOL    HW188122   2.594   0.785  11.384 -1.0042  0.2045  0.3909
58799SOL    HW288123   2.519   0.910  11.424  0.3808  0.8822  0.9247
58800SOL     OW88124   5.742   7.714   5.964 -0.6625 -0.1795 -0.2020
58800SOL    HW188125   5.677   7.782   5.949  0.3682  1.0316  0.6261
58800SOL    HW288126   5.749   7.709   6.059  1.7487  1.0284 -0.2585
58801SOL     OW88127   3.974  12.809   1.398 -0.1229  0.2018 -0.4835
58801SOL    HW188128   3.960  12.769   1.312  1.7498  1.0652 -1.2545
58801SOL    HW288129   4.012  12.895   1.378 -1.1089  1.0675  1.1940
58802SOL     OW88130  12.523   2.019   2.021  0.6709 -0.1613  0.2602
58802SOL    HW188131  12.565   1.936   1.997 -1.0415 -1.8559  2.5382
58802SOL    HW288132  12.503   2.061   1.938  0.6542 -2.5680 -1.0502
58803SOL     OW88133  11.254   3.694   7.497  0.0549 -0.3744  0.3580
58803SOL    HW188134  11.229   3.602   7.492 -1.2951  0.0308 -1.3032
58803SOL    HW288135  11.344   3.696   7.465  0.3417 -1.1657  1.0589
58804SOL     OW88136   1.053   4.820   9.517  0.0618 -0.3441 -0.4270
58804SOL    HW188137   1.113   4.762   9.563  0.7156  2.6045  2.8467
58804SOL    HW288138   0.971   4.815   9.567 -0.1893  0.7296 -0.6905
58805SOL     OW88139   6.779   0.625   0.725  0.1780  0.5939 -0.0635
58805SOL    HW188140   6.694   0.646   0.763  0.1659 -1.0487  0.8755
58805SOL    HW288141   6.758   0.584   0.641  0.0780  0.6621 -0.0732
58806SOL     OW88142   6.321   9.989   1.249  0.0255  0.0083  0.1710
58806SOL    HW188143   6.406  10.030   1.263  0.1903 -0.4118  0.4330
58806SOL    HW288144   6.317   9.974   1.154  0.0836  0.3595  0.1105
58807SOL     OW88145   3.956  10.210   5.469 -0.0634 -0.5767  0.2594
58807SOL    HW188146   4.018  10.256   5.525  2.1931 -3.6238  0.5193
58807SOL    HW288147   3.886  10.182   5.529  0.4918 -0.7168  0.8550
58808SOL     OW88148   6.961   8.398   8.387  0.4831 -0.0643  0.0172
58808SOL    HW188149   6.887   8.444   8.427 -0.4956 -0.4022 -1.3476
58808SOL    HW288150   7.001   8.349   8.459  0.7732  1.8730  1.2449
58809SOL     OW88151   2.942   8.488   9.838  0.4079  0.2600  0.2881
58809SOL    HW188152   2.883   8.446   9.900  0.9939  0.4095  0.9546
58809SOL    HW288153   2.891   8.494   9.757 -0.0970 -0.6313  0.5268
58810SOL     OW88154   9.009  13.257   0.919  0.2001 -0.4321  0.2752
58810SOL    HW188155   8.939  13.202   0.953 -0.0839  0.4110  1.0981
58810SOL    HW288156   8.965  13.317   0.858  0.4041 -0.7033 -0.1400
58811SOL     OW88157   3.038   8.840   9.762 -0.6835  0.4230  0.0427
58811SOL    HW188158   2.950   8.843   9.722 -0.8097 -1.4090  0.0852
58811SOL    HW288159   3.077   8.760   9.726  0.3711  0.3754  1.2402
58812SOL     OW88160   0.033   0.694   3.769 -0.4689  0.5139  0.3289
58812SOL    HW188161   0.079   0.702   3.853  1.1700  0.6809 -0.5486
58812SOL    HW288162  -0.022   0.616   3.779  0.6440 -0.1948  1.1535
58813SOL     OW88163  13.123   5.803   7.992 -0.6393 -0.0617 -0.2042
58813SOL    HW188164  13.191   5.816   7.926 -0.1182  0.8140  0.4855
58813SOL    HW288165  13.041   5.818   7.945 -0.2441  1.3809 -0.4965
58814SOL     OW88166   9.929  12.751   9.205 -0.3300 -0.0338  0.0643
58814SOL    HW188167  10.006  12.698   9.226 -0.9230 -0.5247  1.1158
58814SOL    HW288168   9.917  12.806   9.282 -0.2027  1.0711 -0.6902
58815SOL     OW88169   7.397   6.989  13.632  0.3885  0.0465 -0.2255
58815SOL    HW188170   7.352   6.933  13.569  1.3814  0.1862 -1.0809
58815SOL    HW288171   7.473   7.023  13.584  1.1010  0.2483  1.0119
58816SOL     OW88172   4.337   3.982   7.749  0.1447 -0.3107  0.4984
58816SOL    HW188173   4.260   4.030   7.781 -0.6945 -1.3655  0.1475
58816SOL    HW288174   4.355   3.918   7.817  0.0200 -0.7883  0.0893
58817SOL     OW88175   2.582  11.411   9.640 -0.0531 -0.3491 -0.5544
58817SOL    HW188176   2.581  11.368   9.725  0.4656  0.0963 -0.3157
58817SOL    HW288177   2.538  11.350   9.581 -0.7309 -0.5136  0.1004
58818SOL     OW88178   7.889   8.180  12.454  0.5295  0.4902 -0.1511
58818SOL    HW188179   7.880   8.266  12.413  0.1871  1.0529  1.0322
58818SOL    HW288180   7.833   8.186  12.532  1.6862 -0.2717  0.7591
58819SOL     OW88181   2.828   6.414  12.416  0.0249 -0.1471 -0.1403
58819SOL    HW188182   2.855   6.406  12.508 -0.1078  2.3694  0.1808
58819SOL    HW288183   2.905   6.387  12.366 -0.1245 -2.2386  0.6301
58820SOL     OW88184   9.322   1.251   9.477 -0.3700  0.0911  0.0226
58820SOL    HW188185   9.288   1.174   9.430 -2.9031  0.5160  0.9868
58820SOL    HW288186   9.377   1.214   9.545 -0.8835 -0.8529 -0.0468
58821SOL     OW88187   5.109  11.593   3.672 -0.0122 -0.3055 -0.2361
58821SOL    HW188188   5.166  11.657   3.715  1.4706 -1.2276 -0.7617
58821SOL    HW288189   5.052  11.646   3.617  0.5804  0.6309  0.0105
58822SOL     OW88190   4.935  10.890   7.598  0.2782  0.1251 -0.1712
58822SOL    HW188191   5.026  10.865   7.582  0.0044 -1.2203  0.2977
58822SOL    HW288192   4.895  10.813   7.639 -1.2704  0.4295 -1.0274
58823SOL     OW88193  10.774   0.452   7.698  0.5710 -0.3966  0.0605
58823SOL    HW188194  10.815   0.366   7.687  1.7655 -0.1393  2.0648
58823SOL    HW288195  10.690   0.434   7.739  1.0485 -0.6064  0.9740
58824SOL     OW88196   6.753   8.673   6.528 -0.1155 -0.1586  0.1816
58824SOL    HW188197   6.706   8.719   6.458  0.4725 -1.0385 -0.8156
58824SOL    HW288198   6.769   8.586   6.493  1.2292 -0.2486  0.9597
58825SOL     OW88199   3.616   2.553  10.646 -0.0760 -0.1428  0.4212
58825SOL    HW188200   3.686   2.513  10.698 -0.7830  0.0074  1.5160
58825SOL    HW288201   3.627   2.516  10.559  2.4938  1.2346  0.0593
58826SOL     OW88202   9.636  13.557  12.879 -0.1102  0.2328  0.2900
58826SOL    HW188203   9.693  13.578  12.806 -0.7957 -0.5568 -0.4925
58826SOL    HW288204   9.565  13.621  12.873  0.7024  1.2840  1.3250
58827SOL     OW88205   9.989   3.518  13.305 -0.4876 -0.1883 -0.5068
58827SOL    HW188206   9.980   3.574  13.382  0.6569 -1.2914  0.4881
58827SOL    HW288207   9.988   3.429  13.341 -1.6447 -0.8026 -1.9706
58828SOL     OW88208   0.390   3.974   5.566 -0.3183 -0.1460 -0.2050
58828SOL    HW188209   0.360   4.061   5.594 -1.8629 -0.8942  0.5766
58828SOL    HW288210   0.484   3.975   5.582 -0.5000  0.9627  1.0154
58829SOL     OW88211   6.008   5.543   7.413 -0.2661 -0.0990  0.0392
58829SOL    HW188212   5.986   5.574   7.325 -0.1741 -1.3345 -0.4385
58829SOL    HW288213   6.027   5.450   7.402 -1.2283 -0.5161  1.5389
58830SOL     OW88214   8.075  12.461  12.732 -0.2038  0.1040  0.1889
58830SOL    HW188215   7.988  12.453  12.772 -0.6475  1.9377 -0.3477
58830SOL    HW288216   8.134  12.478  12.806 -0.1426 -1.7515  0.6362
58831SOL     OW88217  11.052  10.076   7.538 -0.3000 -0.3587  0.2599
58831SOL    HW188218  11.059  10.137   7.612 -2.1144 -0.7067  0.7755
58831SOL    HW288219  10.959  10.053   7.535 -0.3259 -0.1791 -2.3047
58832SOL     OW88220   4.894   6.529   0.964  0.5174 -0.9562 -0.1781
58832SOL    HW188221   4.818   6.480   0.934  0.4604  0.2291 -2.1313
58832SOL    HW288222   4.895   6.608   0.910  1.8858  0.1196  1.3121
58833SOL     OW88223  12.868   5.173   4.696  0.0052  0.7768  0.0854
58833SOL    HW188224  12.957   5.140   4.682 -0.2323  0.1037  0.1013
58833SOL    HW288225  12.854   5.165   4.791 -0.6555 -0.7076 -0.1085
58834SOL     OW88226  10.432   0.015   1.387  0.2840 -0.0204 -0.3094
58834SOL    HW188227  10.475   0.100   1.378  0.0773  0.4944  2.6729
58834SOL    HW288228  10.339   0.034   1.386  0.0952 -0.6845 -2.8586
58835SOL     OW88229  10.140   1.824   9.471 -0.2184  0.1305 -0.2862
58835SOL    HW188230  10.104   1.865   9.550 -0.9899  0.9190 -1.0305
58835SOL    HW288231  10.157   1.733   9.497 -1.2392  0.1603  0.5448
58836SOL     OW88232   6.906   8.624   4.424  0.4393  0.2691 -0.2247
58836SOL    HW188233   6.962   8.667   4.489  1.0979 -0.3079 -0.3943
58836SOL    HW288234   6.817   8.650   4.448  0.8023  1.6883 -0.3111
58837SOL     OW88235   3.598   3.885   6.906 -0.5923 -0.3771 -0.4152
58837SOL    HW188236   3.596   3.955   6.841 -3.2918  0.0628  0.0358
58837SOL    HW288237   3.648   3.921   6.978  0.6837 -0.1026 -1.4048
58838SOL     OW88238  11.667  11.260   8.000  0.8022  0.0043  0.2973
58838SOL    HW188239  11.697  11.172   8.024  0.3484 -0.1439  0.3409
58838SOL    HW288240  11.572  11.257   8.015  0.7933  0.5147  0.3352
58839SOL     OW88241  10.368   1.863   2.827  0.2825 -0.3224  0.5131
58839SOL    HW188242  10.343   1.879   2.736 -0.6745 -0.5170  0.7303
58839SOL    HW288243  10.286   1.842   2.871  0.8700 -1.2779  1.2006
58840SOL     OW88244   1.392   2.155  13.170 -0.0467  0.3981 -0.5326
58840SOL    HW188245   1.360   2.245  13.171  0.7560  0.6886 -0.0832
58840SOL    HW288246   1.483   2.161  13.196 -0.1136 -0.5992  0.0198
58841SOL     OW88247   4.507   3.542  11.372 -0.9380 -0.0081 -0.3066
58841SOL    HW188248   4.522   3.636  11.385  0.0710  0.1519 -2.2101
58841SOL    HW288249   4.531   3.527  11.280  2.2213 -2.7567  0.7931
58842SOL     OW88250  10.455   6.670   7.686  0.0783  0.2730  0.1567
58842SOL    HW188251  10.414   6.680   7.772 -0.3601 -0.7231  0.0797
58842SOL    HW288252  10.543   6.636   7.705  0.1819  0.5739  0.2278
58843SOL     OW88253   9.581   3.306  10.820  1.0276 -0.4484  0.2535
58843SOL    HW188254   9.626   3.229  10.855  1.2083 -0.7937 -0.7127
58843SOL    HW288255   9.540   3.275  10.739  0.3439  0.2482  0.3231
58844SOL     OW88256   2.156  12.225   5.017 -0.6731  0.1368 -0.4020
58844SOL    HW188257   2.065  12.252   5.032 -0.4811  0.4916  0.1480
58844SOL    HW288258   2.203  12.253   5.095  0.1264  0.9464 -1.1372
58845SOL     OW88259   7.524   0.173   8.035 -0.2605  0.4992  1.1149
58845SOL    HW188260   7.519   0.156   8.129 -0.5828 -1.6792  0.7501
58845SOL    HW288261   7.438   0.148   8.001 -0.1992  1.4051  0.2359
58846SOL     OW88262   1.432   1.982   6.997  0.2721 -0.6568  0.3737
58846SOL    HW188263   1.399   1.911   7.053  1.0083 -0.4636  1.0745
58846SOL    HW288264   1.521   1.954   6.973  0.7446  0.2163  1.0291
58847SOL     OW88265   3.536   1.761  13.129  0.3157 -0.0806 -0.1164
58847SOL    HW188266   3.611   1.702  13.123  1.1409  0.9472 -0.2626
58847SOL    HW288267   3.478   1.732  13.059  1.5239  0.3493 -1.3598
58848SOL     OW88268   1.543   8.413   7.302  0.2481 -0.5667 -0.2534
58848SOL    HW188269   1.609   8.383   7.239 -0.1327  0.7196 -1.3267
58848SOL    HW288270   1.500   8.333   7.332  0.6729 -1.2494 -1.3820
58849SOL     OW88271   1.943   1.680  13.144  0.4450 -0.0860  1.2509
58849SOL    HW188272   2.014   1.716  13.091 -0.4850 -0.0721 -0.0357
58849SOL    HW288273   1.899   1.757  13.179 -0.6204  0.0452 -0.2657
58850SOL     OW88274   8.914   7.075   0.314 -0.2894  0.5835  0.1489
58850SOL    HW188275   8.930   6.992   0.269 -0.3755  0.1267  0.9289
58850SOL    HW288276   8.820   7.091   0.302 -0.2904  0.5162  0.0716
58851SOL     OW88277   6.125   2.709   0.093  0.1928 -0.4343 -0.4547
58851SOL    HW188278   6.202   2.659   0.066  0.5110 -0.5399  0.6033
58851SOL    HW288279   6.071   2.647   0.141  0.3493  0.0994  0.4339
58852SOL     OW88280   3.901  12.652   6.798  0.4151  0.1705  0.4538
58852SOL    HW188281   3.941  12.725   6.752 -0.3892 -0.6964 -1.7353
58852SOL    HW288282   3.971  12.588   6.808  0.2578 -0.2908 -1.0840
58853SOL     OW88283  10.438   8.508   5.930  0.5787 -0.4589  0.1899
58853SOL    HW188284  10.462   8.518   5.838 -2.3654 -0.6877 -0.7329
58853SOL    HW288285  10.391   8.589   5.951 -1.3757 -1.6001  0.5049
58854SOL     OW88286   7.115   6.282  11.602  0.3687 -0.9258 -0.3398
58854SOL    HW188287   7.138   6.271  11.509  2.7671  1.2772 -0.0923
58854SOL    HW288288   7.195   6.315  11.643 -1.3589  0.5960  2.0316
58855SOL     OW88289   0.723   2.460  10.781  0.7536  0.2949 -0.0540
58855SOL    HW188290   0.641   2.431  10.741  1.4313  1.3748 -2.4549
58855SOL    HW288291   0.782   2.386  10.771 -0.2878 -1.1509  3.2668
58856SOL     OW88292   5.348  13.351   6.460 -0.0980 -0.4008  0.7922
58856SOL    HW188293   5.369  13.258   6.446  0.7364 -0.0576 -0.3531
58856SOL    HW288294   5.428  13.388   6.497  0.5246  0.3758 -1.1898
58857SOL     OW88295   9.040   6.409   7.623  0.6303 -0.7218  0.3042
58857SOL    HW188296   9.027   6.471   7.552 -1.8366  0.6271  1.8042
58857SOL    HW288297   8.973   6.342   7.610 -2.4150  1.4403  3.1243
58858SOL     OW88298   9.120   4.412   5.906 -0.2259 -0.5069 -0.0581
58858SOL    HW188299   9.053   4.350   5.880  1.2604 -2.2165 -0.0316
58858SOL    HW288300   9.088   4.449   5.988  0.4106 -4.0327  1.9991
58859SOL     OW88301   9.477   9.529   5.304  0.6026 -0.0688  0.4702
58859SOL    HW188302   9.518   9.512   5.389 -2.0215 -1.3063  1.6146
58859SOL    HW288303   9.435   9.446   5.281  1.4905  0.1329 -2.2486
58860SOL     OW88304   4.124  10.455   1.133 -0.2046 -0.1150  0.0309
58860SOL    HW188305   4.105  10.460   1.039  1.4993  1.1612 -0.2948
58860SOL    HW288306   4.219  10.459   1.138 -0.2358 -0.8501  1.8025
58861SOL     OW88307   6.735   7.778   6.789  0.4657  0.0775  0.1549
58861SOL    HW188308   6.751   7.684   6.785  0.8093  0.1625 -0.4800
58861SOL    HW288309   6.717   7.795   6.882 -1.7159 -0.9626 -0.0134
58862SOL     OW88310   5.813   9.340   4.524  0.1719  0.5246  0.3885
58862SOL    HW188311   5.793   9.317   4.615 -0.2553 -0.4028  0.0732
58862SOL    HW288312   5.835   9.257   4.483  0.5627  0.9670 -0.3127
58863SOL     OW88313  12.098   5.641   8.868  0.4754  0.2475  0.1429
58863SOL    HW188314  12.047   5.676   8.942 -0.1710  0.6930 -0.4962
58863SOL    HW288315  12.181   5.688   8.872  0.5309  0.1176  0.7066
58864SOL     OW88316   1.816   0.503   2.077  0.3662 -0.4696 -0.7631
58864SOL    HW188317   1.824   0.498   2.173  0.9799 -0.2935 -0.8007
58864SOL    HW288318   1.728   0.470   2.059  0.3792 -0.8531 -0.1649
58865SOL     OW88319   3.225  13.361   1.892  0.1188 -0.0255  0.1664
58865SOL    HW188320   3.172  13.302   1.838  2.4283 -1.0914 -1.0660
58865SOL    HW288321   3.237  13.439   1.838 -0.2661  0.2554  0.4828
58866SOL     OW88322   0.564   9.027  10.458 -0.4459 -0.1309 -0.1982
58866SOL    HW188323   0.514   8.965  10.512 -2.7046  1.5683 -0.1904
58866SOL    HW288324   0.547   9.112  10.498  0.6367  0.7698 -1.5865
58867SOL     OW88325   0.726   1.156   1.286 -0.3320  0.5381 -0.2111
58867SOL    HW188326   0.789   1.108   1.340 -0.0986  1.6767  0.5641
58867SOL    HW288327   0.651   1.171   1.344 -1.0231 -0.1497 -0.9012
58868SOL     OW88328   9.337   4.102   4.161  0.1367 -0.1123  0.1852
58868SOL    HW188329   9.371   4.067   4.079 -0.0659 -0.0265  0.0641
58868SOL    HW288330   9.254   4.057   4.175 -0.4001  0.7207 -0.2653
58869SOL     OW88331  12.621   6.776   8.245  0.1779  0.1647  0.0647
58869SOL    HW188332  12.705   6.732   8.253  0.2985  0.1511 -1.1260
58869SOL    HW288333  12.642   6.863   8.211 -0.3157 -0.0097 -0.7090
58870SOL     OW88334  12.778  12.659  13.570 -0.2420 -0.1665 -0.5687
58870SOL    HW188335  12.741  12.717  13.503 -1.2130 -0.4980 -0.3380
58870SOL    HW288336  12.711  12.657  13.639  0.4937 -0.2872  0.1584
58871SOL     OW88337   2.989   2.692   2.341  0.0724  0.1631  0.4981
58871SOL    HW188338   3.083   2.687   2.324  0.0424 -3.1713  0.8087
58871SOL    HW288339   2.950   2.632   2.278 -1.8318  1.0076  0.8046
58872SOL     OW88340   9.614   5.675  11.370 -0.4361  0.5761  0.0187
58872SOL    HW188341   9.610   5.736  11.296 -1.9770  0.0145 -0.4061
58872SOL    HW288342   9.662   5.723  11.438  0.9077  1.1517 -1.2810
58873SOL     OW88343   5.699  11.608  12.506 -0.1199 -0.2865  0.2258
58873SOL    HW188344   5.700  11.531  12.448 -0.5271 -0.3693  0.3249
58873SOL    HW288345   5.608  11.615  12.535 -0.3214  0.8777 -0.6300
58874SOL     OW88346   3.339   0.732   4.222 -0.0654  0.1585  0.2527
58874SOL    HW188347   3.257   0.687   4.240 -0.0808  0.1337  0.1211
58874SOL    HW288348   3.326   0.820   4.259  0.1253 -0.0751  0.8953
58875SOL     OW88349   7.183   1.607  11.962 -0.0510 -0.1359  0.1009
58875SOL    HW188350   7.266   1.568  11.990 -0.8989 -2.4384 -0.3788
58875SOL    HW288351   7.152   1.656  12.038  2.6331  2.5067 -0.3188
58876SOL     OW88352  12.649   5.995  11.450 -0.2533  0.1081 -0.0921
58876SOL    HW188353  12.605   5.913  11.475  0.8087 -0.2161  0.7640
58876SOL    HW288354  12.667   6.038  11.533 -0.6277  1.1355 -0.5322
58877SOL     OW88355   5.041   9.268   6.053  0.5129 -0.1739  0.5511
58877SOL    HW188356   5.096   9.244   6.128  1.3074  0.5331  0.2120
58877SOL    HW288357   4.951   9.258   6.085  0.7765 -2.3495  0.8276
58878SOL     OW88358   2.499   3.396   4.941  0.3245 -0.3659  0.1475
58878SOL    HW188359   2.497   3.373   4.848  0.3994 -1.0366  0.3060
58878SOL    HW288360   2.476   3.489   4.944 -1.1142 -0.6812 -0.4272
58879SOL     OW88361   4.701   2.671   5.637  0.1973  0.7575 -0.8026
58879SOL    HW188362   4.773   2.727   5.607  2.0734 -1.0143  0.1447
58879SOL    HW288363   4.744   2.593   5.672 -2.0399  0.7162  2.2608
58880SOL     OW88364   9.981   8.006   6.003  0.1767 -0.1170 -0.9684
58880SOL    HW188365   9.977   8.053   5.920  0.1256  2.0537  0.2041
58880SOL    HW288366  10.063   8.034   6.043  0.2694 -1.2437 -0.3258
58881SOL     OW88367  12.614   4.690   0.664  0.4504  0.1462 -0.2319
58881SOL    HW188368  12.687   4.638   0.630  0.3530 -1.1622  1.4475
58881SOL    HW288369  12.568   4.631   0.724 -0.3779  1.8008  0.8399
58882SOL     OW88370   2.934   8.783   2.689  0.2170  0.3363 -0.1792
58882SOL    HW188371   2.973   8.862   2.725 -0.2194  0.2537  0.4876
58882SOL    HW288372   2.923   8.725   2.764 -0.7285  0.1672 -0.4406
58883SOL     OW88373  12.885   1.279   9.852  0.1332 -0.3847 -0.2246
58883SOL    HW188374  12.806   1.252   9.899 -1.2503  2.0841 -0.9424
58883SOL    HW288375  12.945   1.309   9.920 -0.9465  0.9945  0.1566
58884SOL     OW88376   2.899   4.521   1.757 -0.1005  0.4336 -0.0236
58884SOL    HW188377   2.924   4.429   1.741 -0.5402  0.4052 -0.5606
58884SOL    HW288378   2.958   4.571   1.702  0.4597  0.5066  0.6291
58885SOL     OW88379   2.682   0.767   6.418 -0.4254 -0.1772  0.5189
58885SOL    HW188380   2.775   0.788   6.429  0.1809 -1.7140 -1.0637
58885SOL    HW288381   2.643   0.847   6.383  0.9246 -0.2802 -1.4208
58886SOL     OW88382  11.228  13.489  11.047  0.4482  0.0964 -0.4187
58886SOL    HW188383  11.199  13.568  11.001  1.3737  0.6245 -0.1162
58886SOL    HW288384  11.271  13.522  11.126  3.7687 -0.5111 -1.8423
58887SOL     OW88385   0.323  10.847  11.426 -0.4435 -0.1001  0.2153
58887SOL    HW188386   0.283  10.921  11.471 -0.6787 -0.0900 -0.0086
58887SOL    HW288387   0.375  10.803  11.493 -2.1277 -1.0780  0.9597
58888SOL     OW88388   7.249  10.473   3.252  0.2515  0.2199  0.5187
58888SOL    HW188389   7.197  10.458   3.331  0.2838 -0.5223  0.4052
58888SOL    HW288390   7.188  10.515   3.191  0.3342  1.1662  1.0661
58889SOL     OW88391  10.474  10.293   3.079 -0.3616 -0.0412 -0.2451
58889SOL    HW188392  10.567  10.275   3.063  0.5373  1.4528  2.6344
58889SOL    HW288393  10.428  10.237   3.016  2.3833 -3.2102  0.2368
58890SOL     OW88394  13.591  12.697  12.622  0.1679  0.2435 -0.4977
58890SOL    HW188395  13.636  12.686  12.539  0.4622 -0.7869 -0.2166
58890SOL    HW288396  13.656  12.671  12.688 -0.3139  0.2836 -0.0034
58891SOL     OW88397  12.624   2.280   9.449  0.3631  0.0360  0.8703
58891SOL    HW188398  12.563   2.352   9.466  2.0695  1.5192  0.9753
58891SOL    HW288399  12.567   2.206   9.427 -1.4554  1.7797 -0.7945
58892SOL     OW88400  10.707   0.792   8.204 -0.0310  0.5371  0.1504
58892SOL    HW188401  10.784   0.761   8.156  0.1183 -0.5126  1.0386
58892SOL    HW288402  10.632   0.759   8.154  0.1179 -0.2032  0.4190
58893SOL     OW88403   8.027   9.293  12.458  0.1282 -0.1337  0.1016
58893SOL    HW188404   8.110   9.272  12.414  0.3642  0.9911 -0.0166
58893SOL    HW288405   8.044   9.273  12.550  0.2908 -0.5892 -0.0225
58894SOL     OW88406   7.607  10.457  12.441 -0.1098 -0.1916 -0.0233
58894SOL    HW188407   7.573  10.400  12.372  0.0763  0.8659 -1.0204
58894SOL    HW288408   7.548  10.442  12.515  0.0715 -1.8245 -0.1709
58895SOL     OW88409   4.914   6.180   9.381  0.6598  0.1263  0.1457
58895SOL    HW188410   4.900   6.225   9.464  0.6939 -0.3503  0.4091
58895SOL    HW288411   4.885   6.243   9.315 -0.1399  0.1941  0.5521
58896SOL     OW88412   7.294   8.562   9.475 -0.1553  0.3215 -0.4121
58896SOL    HW188413   7.308   8.632   9.411 -0.8784  0.3032 -0.5993
58896SOL    HW288414   7.203   8.573   9.502  0.0583  0.1406  0.3965
58897SOL     OW88415   3.185   3.505  10.734  0.1439 -0.0335 -0.5460
58897SOL    HW188416   3.217   3.481  10.822 -0.2000  0.2933 -0.3300
58897SOL    HW288417   3.141   3.426  10.703  1.4267 -0.6081 -0.9832
58898SOL     OW88418   9.467   4.887   6.046 -0.3905 -0.0834  0.0579
58898SOL    HW188419   9.430   4.801   6.067 -0.6116 -0.2017 -0.7671
58898SOL    HW288420   9.546   4.893   6.099 -1.6764  0.2598  2.0353
58899SOL     OW88421  12.718   0.661   1.143  0.0157 -0.0968  0.1123
58899SOL    HW188422  12.626   0.667   1.114  0.0063 -1.5089 -0.2517
58899SOL    HW288423  12.769   0.675   1.064  0.0815 -0.1635  0.1423
58900SOL     OW88424   2.953  11.353  10.862  0.0532  0.2762 -0.0734
58900SOL    HW188425   2.932  11.265  10.893 -1.4870  0.3597 -0.7692
58900SOL    HW288426   2.873  11.382  10.819  0.3815  2.1986  0.5255
58901SOL     OW88427   7.316   6.608   7.574 -0.0205  0.1930 -0.2838
58901SOL    HW188428   7.374   6.684   7.574 -0.1896  0.3227 -0.5736
58901SOL    HW288429   7.376   6.533   7.579  0.1181  0.3550  0.6129
58902SOL     OW88430   2.008   1.516  11.218 -0.2139  0.2773  0.2451
58902SOL    HW188431   1.974   1.456  11.152  0.2427 -0.8757  1.0386
58902SOL    HW288432   2.063   1.577  11.169 -1.3428  0.5973 -0.6858
58903SOL     OW88433   8.936   9.291   2.406 -0.1883 -0.1713  0.0890
58903SOL    HW188434   8.994   9.305   2.480 -0.1904 -1.2282  0.3008
58903SOL    HW288435   8.924   9.379   2.369  1.3400  0.1071  0.1727
58904SOL     OW88436  11.641  11.049   3.407 -0.0186 -0.4817 -0.0305
58904SOL    HW188437  11.716  10.991   3.397  0.0558 -0.3333 -0.3413
58904SOL    HW288438  11.571  10.992   3.440  0.3859 -0.5082  0.7913
58905SOL     OW88439   3.266   4.737   3.994 -0.8490  0.1297  0.4602
58905SOL    HW188440   3.323   4.665   4.021  0.0743  1.3056  1.7885
58905SOL    HW288441   3.325   4.811   3.982 -2.0925  1.4610  2.1103
58906SOL     OW88442  12.483   5.928   5.147 -0.3592 -0.6563  0.3169
58906SOL    HW188443  12.566   5.894   5.182 -0.3207 -0.2823  0.5879
58906SOL    HW288444  12.478   6.017   5.180 -1.3511 -0.9960  1.1513
58907SOL     OW88445   0.786  10.946   6.418 -0.2789 -0.1999 -0.0647
58907SOL    HW188446   0.740  11.011   6.471  1.0968 -0.9088  2.1104
58907SOL    HW288447   0.852  10.998   6.371 -0.2020  0.1846  0.4578
58908SOL     OW88448   8.876  13.161   6.919 -0.4371  0.0705  0.2606
58908SOL    HW188449   8.831  13.226   6.973 -0.9925 -0.2030  0.1265
58908SOL    HW288450   8.808  13.121   6.866 -0.3064 -1.4076  1.1372
58909SOL     OW88451  13.514   0.235   9.381  0.0217  0.1031  0.8107
58909SOL    HW188452  13.565   0.313   9.404 -1.2233  1.4323 -0.6898
58909SOL    HW288453  13.434   0.270   9.341 -0.3223 -1.9485 -0.4155
58910SOL     OW88454   3.031  10.444   5.438  0.0494  0.1310  0.0519
58910SOL    HW188455   3.050  10.350   5.432  0.0040  0.1363 -0.2013
58910SOL    HW288456   3.115  10.485   5.455 -0.0262 -0.0124  0.8349
58911SOL     OW88457  12.784   8.131  11.004  0.1292 -0.4288 -0.1510
58911SOL    HW188458  12.694   8.158  11.024 -0.0576 -0.3168 -1.0836
58911SOL    HW288459  12.774   8.065  10.935  0.7885  0.0310 -0.6994
58912SOL     OW88460  11.695  10.463   7.206 -0.1166  0.2326  0.1774
58912SOL    HW188461  11.635  10.526   7.246 -1.4805 -0.6767 -0.3582
58912SOL    HW288462  11.747  10.514   7.144  0.2672  1.1863  1.2541
58913SOL     OW88463  11.221   8.990   2.084 -0.1802 -0.0505 -0.2241
58913SOL    HW188464  11.179   8.924   2.029 -0.0856 -1.3317  1.1941
58913SOL    HW288465  11.311   8.994   2.052 -0.0260 -1.0564  0.0733
58914SOL     OW88466   9.534   2.548   1.953  0.3551 -0.3884 -0.0864
58914SOL    HW188467   9.448   2.584   1.975  0.1028 -1.2477  0.3943
58914SOL    HW288468   9.526   2.519   1.862 -0.0406 -0.9481  0.1218
58915SOL     OW88469   9.248  11.813  13.673  0.1935  0.4242  0.5028
58915SOL    HW188470   9.285  11.752  13.610  1.4144  1.4210  0.2107
58915SOL    HW288471   9.311  11.815  13.746 -0.3005  0.6154  0.9318
58916SOL     OW88472   5.052   7.588   6.977 -0.2834 -0.1042  0.2567
58916SOL    HW188473   4.990   7.626   6.915 -1.3369 -0.7424  0.8889
58916SOL    HW288474   5.008   7.594   7.062  1.3703  1.3146  1.0792
58917SOL     OW88475  12.223   0.122   3.514  0.4157 -0.1256 -0.1555
58917SOL    HW188476  12.252   0.168   3.435  1.2244  1.4303  0.9967
58917SOL    HW288477  12.297   0.127   3.574 -0.2337 -1.1502  0.7818
58918SOL     OW88478   6.881   2.227   5.136 -0.1378  0.6875  0.5115
58918SOL    HW188479   6.818   2.241   5.065  1.1328  0.4149 -0.7215
58918SOL    HW288480   6.900   2.133   5.133  0.1875  0.7335  0.9929
58919SOL     OW88481   4.214   1.539   3.474  0.1163 -0.5238 -0.0429
58919SOL    HW188482   4.276   1.511   3.406  0.0105 -1.0280  0.0690
58919SOL    HW288483   4.233   1.632   3.486  0.7735 -0.6415 -0.1005
58920SOL     OW88484   4.117   2.253   6.364 -0.4032  0.5310 -0.2208
58920SOL    HW188485   4.177   2.244   6.291  1.7132  1.3395  1.3147
58920SOL    HW288486   4.117   2.347   6.385 -1.6312  0.4438  0.3143
58921SOL     OW88487   3.353   3.001   1.690  0.5124  0.0087  0.3779
58921SOL    HW188488   3.330   2.909   1.700 -0.2711  0.1752  0.1814
58921SOL    HW288489   3.426   3.015   1.751 -0.1125 -0.4642  1.2476
58922SOL     OW88490   3.716   3.894  10.825 -0.2750 -0.1416 -0.1234
58922SOL    HW188491   3.744   3.872  10.914  0.9071 -1.4719 -0.7868
58922SOL    HW288492   3.688   3.811  10.787  0.8860  0.0674 -1.5337
58923SOL     OW88493  10.298   0.408   6.394 -0.4452 -0.4707 -0.1252
58923SOL    HW188494  10.264   0.493   6.423 -0.9160 -0.1358 -1.5977
58923SOL    HW288495  10.221   0.350   6.395 -0.8073 -0.0943 -1.9939
58924SOL     OW88496   5.458  12.878   5.900 -0.2800 -0.2556  0.0696
58924SOL    HW188497   5.403  12.874   5.822  0.2297 -0.9685 -0.2711
58924SOL    HW288498   5.464  12.787   5.930 -0.2200 -0.0277  0.7598
58925SOL     OW88499  12.733   6.228   2.611  0.3655 -0.8047 -0.6038
58925SOL    HW188500  12.742   6.195   2.700  0.7589 -0.1697 -0.3997
58925SOL    HW288501  12.786   6.308   2.609 -0.9088  0.0674 -0.9563
58926SOL     OW88502   1.666   5.244   0.188  0.0611  0.1847  0.0086
58926SOL    HW188503   1.692   5.175   0.127 -2.1668 -1.6270  0.9864
58926SOL    HW288504   1.604   5.298   0.139 -2.5975 -1.9116  0.7934
58927SOL     OW88505   5.785  10.428   5.510  0.0221  0.2040  0.1986
58927SOL    HW188506   5.707  10.425   5.453  0.3581 -2.7905 -0.2719
58927SOL    HW288507   5.751  10.411   5.598  0.0018  0.0679  0.1654
58928SOL     OW88508   1.796  13.322   6.863  0.5198  0.4452 -0.4174
58928SOL    HW188509   1.853  13.354   6.793  1.0145  1.0774  0.2660
58928SOL    HW288510   1.809  13.383   6.935  0.1249 -0.2791  0.2863
58929SOL     OW88511   3.971  10.225   1.246  0.4808  0.2981 -0.1459
58929SOL    HW188512   3.947  10.295   1.186 -0.6267 -0.0419 -0.1386
58929SOL    HW288513   3.899  10.162   1.238  2.1708 -1.5891 -1.2929
58930SOL     OW88514   1.429   5.357   1.661 -0.2678 -0.1708 -0.0138
58930SOL    HW188515   1.523   5.368   1.644 -0.1012  0.4624  1.1468
58930SOL    HW288516   1.390   5.341   1.575  0.7183  0.9238 -0.6941
58931SOL     OW88517  10.955   6.935   1.250  0.0177  0.2224  0.3351
58931SOL    HW188518  10.921   6.929   1.161  1.1740 -1.7777 -0.0304
58931SOL    HW288519  10.881   6.965   1.303 -1.5418 -1.3988 -0.8416
58932SOL     OW88520  12.635   9.918  11.096  0.3679 -0.0376  0.3212
58932SOL    HW188521  12.608   9.926  11.188  1.7808  0.4025  0.7219
58932SOL    HW288522  12.590   9.840  11.065 -0.0457 -0.2584  1.4336
58933SOL     OW88523   1.762   8.664  13.434  0.1556 -0.2213 -0.2059
58933SOL    HW188524   1.709   8.720  13.490 -0.9167  0.0615 -1.4470
58933SOL    HW288525   1.848   8.662  13.476 -0.4813  0.3215  1.1872
58934SOL     OW88526   8.999   4.405   1.858 -0.8817 -0.3087 -0.0219
58934SOL    HW188527   9.049   4.379   1.936  0.1699 -0.1402 -0.6221
58934SOL    HW288528   8.982   4.499   1.871  0.2067 -0.0310 -0.4600
58935SOL     OW88529  11.869   7.802   4.566 -0.1400  0.2292 -0.1367
58935SOL    HW188530  11.861   7.734   4.499  0.7155  0.9540 -1.0017
58935SOL    HW288531  11.781   7.808   4.604 -0.0524 -1.9015  0.5330
58936SOL     OW88532   7.113   8.786  12.782  0.4851  0.4105 -0.6561
58936SOL    HW188533   7.105   8.869  12.736 -0.3582 -0.3710 -2.0037
58936SOL    HW288534   7.025   8.749  12.779  1.0267 -0.9128 -0.8411
58937SOL     OW88535   6.550   3.331   7.946 -0.1901 -0.2327  0.3842
58937SOL    HW188536   6.486   3.323   8.017 -0.6500 -0.4874 -0.0583
58937SOL    HW288537   6.632   3.353   7.991 -0.9784  2.1573  0.8385
58938SOL     OW88538  12.137  13.179   6.548  0.1557  0.3890  0.1284
58938SOL    HW188539  12.152  13.085   6.545 -0.4366  0.2991 -0.0813
58938SOL    HW288540  12.057  13.193   6.497  0.9890  1.1708 -1.0217
58939SOL     OW88541   3.649   2.599  12.621  0.3131 -0.3726  0.4767
58939SOL    HW188542   3.605   2.560  12.546  0.3831  0.8956 -0.2610
58939SOL    HW288543   3.687   2.680  12.587 -1.0807  1.1253  2.2215
58940SOL     OW88544   3.908  12.385  10.678  0.8587 -0.2250  0.1184
58940SOL    HW188545   3.916  12.451  10.609  1.2314 -0.0109  0.3689
58940SOL    HW288546   3.929  12.302  10.635 -0.3730 -0.3027 -0.3942
58941SOL     OW88547   3.053   5.382   0.202 -0.5437  0.0533  0.2197
58941SOL    HW188548   3.109   5.304   0.202  0.9872  1.0226  2.3802
58941SOL    HW288549   3.008   5.378   0.286 -1.0830  1.0681 -0.0147
58942SOL     OW88550  10.039   6.567   4.313 -0.3360 -0.5636  0.1686
58942SOL    HW188551  10.090   6.487   4.325 -1.8945 -1.5333  0.6822
58942SOL    HW288552  10.104   6.634   4.294  0.9914 -2.0445 -0.8401
58943SOL     OW88553   8.533   3.718   7.699 -0.0095  0.6231 -0.1975
58943SOL    HW188554   8.537   3.689   7.608 -0.2206 -0.0516 -0.0023
58943SOL    HW288555   8.599   3.787   7.706 -1.0412  1.7772 -1.2344
58944SOL     OW88556  12.130  10.317   2.626 -0.3374  0.3883 -0.3742
58944SOL    HW188557  12.188  10.392   2.637  0.6360 -0.4740  0.5714
58944SOL    HW288558  12.128  10.274   2.712  0.0586 -1.3046 -1.1579
58945SOL     OW88559  11.327  10.526   3.542  0.3581 -0.2593  0.1911
58945SOL    HW188560  11.279  10.490   3.467  0.0212 -1.7179  1.0820
58945SOL    HW288561  11.271  10.507   3.617  0.9231  0.7637  0.8907
58946SOL     OW88562   5.809   3.016   8.678  0.2573  0.3796  0.2310
58946SOL    HW188563   5.887   3.011   8.734  1.5610 -2.1415 -1.6118
58946SOL    HW288564   5.738   2.981   8.731  1.0527 -0.1904  0.9478
58947SOL     OW88565   3.705  12.200   5.604 -0.0582  0.0799 -0.1537
58947SOL    HW188566   3.646  12.157   5.542 -1.3750  0.0447  1.0916
58947SOL    HW288567   3.658  12.279   5.632  1.9280  1.9435 -1.6997
58948SOL     OW88568  10.263   3.319  13.565  0.2469  0.1044  0.2146
58948SOL    HW188569  10.346   3.286  13.601 -0.1932  1.0602  2.2107
58948SOL    HW288570  10.284   3.407  13.535  0.3687 -0.3327 -1.0568
58949SOL     OW88571  11.400   1.735   7.031 -0.0704 -0.5379 -0.2560
58949SOL    HW188572  11.369   1.798   7.095  0.9714  1.5779 -1.7115
58949SOL    HW288573  11.422   1.657   7.082  1.3358  1.2650  2.0724
58950SOL     OW88574  10.404  13.537   0.219 -0.4539  0.2447 -0.4729
58950SOL    HW188575  10.428  13.451   0.255  0.1798 -0.0335 -1.5358
58950SOL    HW288576  10.309  13.541   0.230 -0.2332  0.4915  1.8859
58951SOL     OW88577   9.350  11.674   8.621  0.1783 -0.1752 -0.1579
58951SOL    HW188578   9.439  11.708   8.612  0.7645 -1.1141  1.4872
58951SOL    HW288579   9.321  11.707   8.706  0.0467 -2.1248  0.6100
58952SOL     OW88580   3.238   9.242   9.251 -0.1599 -0.2364  0.1083
58952SOL    HW188581   3.319   9.234   9.302  0.6415  2.6286 -0.5022
58952SOL    HW288582   3.266   9.282   9.169 -1.9268 -1.3437 -1.0931
58953SOL     OW88583  11.819   6.252  10.438 -0.4855  0.2682 -0.3076
58953SOL    HW188584  11.888   6.250  10.371  0.0380 -0.0104  0.2236
58953SOL    HW288585  11.793   6.344  10.443 -0.0035  0.4143 -0.3802
58954SOL     OW88586   8.200   2.138  12.014  0.0849 -0.0779  0.4075
58954SOL    HW188587   8.146   2.210  12.045  0.2758 -0.0250  0.6187
58954SOL    HW288588   8.171   2.062  12.066 -2.2364 -0.8987 -1.8292
58955SOL     OW88589   8.425  10.794   6.844 -0.1449  0.1558 -0.0718
58955SOL    HW188590   8.421  10.838   6.759  0.8641 -0.1109 -0.2683
58955SOL    HW288591   8.513  10.814   6.877  0.1651 -1.3025  0.0560
58956SOL     OW88592   5.152   6.694   7.224 -0.5190 -0.5429  0.0387
58956SOL    HW188593   5.073   6.746   7.213 -0.4475 -0.1774  1.0866
58956SOL    HW288594   5.193   6.691   7.138 -1.4427 -0.3629 -0.4089
58957SOL     OW88595   5.589   4.448  12.458 -0.2530 -0.2868  0.5814
58957SOL    HW188596   5.672   4.426  12.416 -1.1184 -1.3563 -0.6209
58957SOL    HW288597   5.524   4.444  12.388 -1.6388 -1.3881  1.8493
58958SOL     OW88598  12.221  10.800  11.027 -0.3007  1.2416 -0.3971
58958SOL    HW188599  12.170  10.754  10.961  0.8744  0.6605 -0.9312
58958SOL    HW288600  12.309  10.807  10.989  0.5483  0.4365  1.2867
58959SOL     OW88601  12.986   5.210   1.272 -0.3587  0.3914 -0.0356
58959SOL    HW188602  12.996   5.248   1.359 -2.9098  1.0195  0.0573
58959SOL    HW288603  13.024   5.275   1.213  0.6872  0.3037  0.5043
58960SOL     OW88604  11.391   7.719   8.000  0.5438  0.0546  0.2096
58960SOL    HW188605  11.443   7.798   7.992 -0.7699  0.8951 -0.4611
58960SOL    HW288606  11.455   7.649   8.011  1.7831  1.0730 -0.2721
58961SOL     OW88607   4.446   4.576   8.765  0.1570 -0.2371  0.1789
58961SOL    HW188608   4.370   4.584   8.823  0.1996  1.0809  0.0936
58961SOL    HW288609   4.521   4.595   8.822  0.2673  0.2331 -0.1222
58962SOL     OW88610   9.284  12.310  10.955  0.0398  0.2099  1.1032
58962SOL    HW188611   9.340  12.388  10.960 -0.2899  0.3774  2.5431
58962SOL    HW288612   9.346  12.237  10.944  0.4960  0.4805  1.7790
58963SOL     OW88613   3.937   9.487   1.218  0.3168 -0.0046  0.1164
58963SOL    HW188614   3.847   9.463   1.195  0.8838 -0.3944 -1.9754
58963SOL    HW288615   3.930   9.528   1.304 -1.4399 -2.8330  1.4858
58964SOL     OW88616  10.625  10.696   7.069  0.0172  0.1132 -0.1087
58964SOL    HW188617  10.590  10.667   6.985  1.0619  1.5671 -1.1011
58964SOL    HW288618  10.556  10.750   7.106  0.6876  2.0801 -1.5537
58965SOL     OW88619   6.393   8.800   8.077  0.2898  0.6486 -0.1804
58965SOL    HW188620   6.388   8.860   8.152 -0.0907  0.0460  0.2876
58965SOL    HW288621   6.322   8.737   8.092 -2.2938  2.6037 -2.9301
58966SOL     OW88622   5.703  12.617   8.712  0.1145  0.6456  0.9900
58966SOL    HW188623   5.720  12.576   8.627 -0.2358  1.5655  0.4603
58966SOL    HW288624   5.629  12.568   8.749  0.7754 -0.2717  1.1402
58967SOL     OW88625   9.672   7.459  12.667 -0.1058 -0.5273  0.6427
58967SOL    HW188626   9.693   7.374  12.705 -1.4889 -1.4376 -0.5034
58967SOL    HW288627   9.577   7.468  12.680 -0.1963  0.2298 -0.3901
58968SOL     OW88628  13.669  12.931   7.949 -0.5962 -0.1002 -0.3468
58968SOL    HW188629  13.605  12.873   7.989 -1.3763  0.6111 -0.5465
58968SOL    HW288630  13.661  12.914   7.855  0.0548 -0.5628 -0.3229
58969SOL     OW88631  10.218   7.738   0.272 -0.4696  0.1081 -0.5047
58969SOL    HW188632  10.310   7.710   0.266 -0.1970  0.7565  0.4240
58969SOL    HW288633  10.192   7.753   0.181  0.3264 -0.1473 -0.7830
58970SOL     OW88634   1.737   9.319   2.230 -0.5410 -0.3421 -0.1642
58970SOL    HW188635   1.683   9.344   2.155 -0.2117 -1.1832 -0.7073
58970SOL    HW288636   1.688   9.347   2.307 -0.2837  1.7518 -0.7092
58971SOL     OW88637   3.812   2.540  12.191  0.3742  0.4884  0.3942
58971SOL    HW188638   3.860   2.541  12.108  0.0447 -0.6899  0.1817
58971SOL    HW288639   3.761   2.621  12.190  0.6115  0.6359 -0.4087
58972SOL     OW88640  12.151   7.041   6.911  0.1075  0.2121 -0.3019
58972SOL    HW188641  12.069   7.018   6.954  0.8635 -0.5783  0.8049
58972SOL    HW288642  12.172   7.128   6.944  1.1474 -0.7476  1.7896
58973SOL     OW88643  12.782   6.568   8.674 -0.0669  0.3416  0.1271
58973SOL    HW188644  12.809   6.629   8.605 -1.7947  0.5445 -0.4225
58973SOL    HW288645  12.730   6.502   8.628  1.9527 -1.7614  0.6689
58974SOL     OW88646   3.260  10.506   4.694  0.2679  0.2239  0.4585
58974SOL    HW188647   3.233  10.414   4.696 -0.8959  0.5696  1.3539
58974SOL    HW288648   3.237  10.535   4.606 -0.6727  0.0206  0.6234
58975SOL     OW88649   3.637   9.896   2.800  0.0631  0.0927  0.0332
58975SOL    HW188650   3.568   9.962   2.800 -0.8338 -0.8100  0.4867
58975SOL    HW288651   3.690   9.916   2.723 -1.2234  0.2893 -0.8240
58976SOL     OW88652   2.551   6.191  11.402 -0.6263 -0.2062  0.5845
58976SOL    HW188653   2.515   6.145  11.478 -0.0858  0.0677  1.0117
58976SOL    HW288654   2.634   6.147  11.383  0.2691  1.0231  1.4610
58977SOL     OW88655  10.895   9.057   7.591 -0.4329 -0.1520 -0.5233
58977SOL    HW188656  10.893   8.961   7.593 -1.0681 -0.1670 -1.4835
58977SOL    HW288657  10.900   9.079   7.498  1.7647  0.7282 -0.2505
58978SOL     OW88658   8.808  12.606  12.194  0.0447 -0.1007 -0.2737
58978SOL    HW188659   8.885  12.582  12.144 -0.0971  0.9798 -1.0494
58978SOL    HW288660   8.816  12.701  12.206  0.1967 -0.3398  1.9675
58979SOL     OW88661   3.446   4.458  13.242 -0.1189  0.1718 -0.0687
58979SOL    HW188662   3.440   4.524  13.173 -1.4151  1.3966  1.1563
58979SOL    HW288663   3.539   4.453  13.263  0.0891  0.9727 -0.7666
58980SOL     OW88664   8.262  12.554  13.440  0.0619 -0.0946 -0.2620
58980SOL    HW188665   8.181  12.515  13.474  0.3716 -0.8480 -0.3523
58980SOL    HW288666   8.232  12.625  13.384 -0.5023  0.3218  0.5376
58981SOL     OW88667   9.001   0.364   8.036  0.9018 -0.2603 -0.0728
58981SOL    HW188668   8.932   0.326   8.091  1.8495 -0.8244  0.7664
58981SOL    HW288669   9.053   0.417   8.097  0.4584  1.2412 -0.9469
58982SOL     OW88670  13.469   3.764   0.679 -0.4793 -0.5701 -1.0003
58982SOL    HW188671  13.530   3.728   0.614  1.4129  0.6953 -0.0238
58982SOL    HW288672  13.502   3.733   0.763 -0.8961  0.5267 -0.4173
58983SOL     OW88673   4.740   9.284   1.742 -0.6187 -0.6300 -0.1666
58983SOL    HW188674   4.681   9.208   1.735 -2.6352  0.5775  2.1966
58983SOL    HW288675   4.744   9.303   1.835  1.5221  0.9580 -0.5068
58984SOL     OW88676   8.398   7.816   2.553 -0.0746  0.3349  0.2532
58984SOL    HW188677   8.419   7.894   2.500 -0.0848  0.3545  0.2781
58984SOL    HW288678   8.339   7.765   2.497  1.5990 -0.6987 -0.6383
58985SOL     OW88679  12.186   2.277   5.294 -0.0455 -0.2485  0.5745
58985SOL    HW188680  12.261   2.227   5.327  0.3128  0.6230  1.1039
58985SOL    HW288681  12.210   2.299   5.203 -0.2215 -1.0536  0.3249
58986SOL     OW88682   3.686   2.093  11.514 -0.1597 -0.2851 -0.7387
58986SOL    HW188683   3.703   2.180  11.477  0.0519 -0.0591 -0.1375
58986SOL    HW288684   3.626   2.110  11.587  1.6018 -0.3330  0.7942
58987SOL     OW88685  10.971   5.183  10.041  0.4016 -0.2012 -0.4838
58987SOL    HW188686  10.974   5.104   9.987 -0.4977 -1.7946  1.6516
58987SOL    HW288687  11.053   5.183  10.089 -0.6076 -1.3077  1.3616
58988SOL     OW88688   2.512   7.985   4.160  0.6745 -0.3416 -0.4281
58988SOL    HW188689   2.440   7.968   4.100 -0.5848  0.4352  0.8070
58988SOL    HW288690   2.515   8.080   4.169  1.8924 -0.3565 -0.4819
58989SOL     OW88691   6.819  12.832   9.167  0.1477  0.2381 -0.2250
58989SOL    HW188692   6.906  12.868   9.148 -0.7457  2.6839 -0.0266
58989SOL    HW288693   6.786  12.886   9.239 -2.5803  1.2280 -2.0588
58990SOL     OW88694   0.211   2.285  10.147 -0.0460 -0.2982  0.2077
58990SOL    HW188695   0.179   2.368  10.110  1.4670 -0.0105 -0.5238
58990SOL    HW288696   0.229   2.305  10.239 -2.7071 -0.7053  0.9022
58991SOL     OW88697   0.113   2.708   2.776 -0.0387 -0.7193  0.0721
58991SOL    HW188698   0.047   2.776   2.765  0.5000 -0.2428 -0.2639
58991SOL    HW288699   0.083   2.636   2.720  0.5548  0.1242 -1.4003
58992SOL     OW88700   9.674   6.089  11.454  0.6525 -0.4866  0.0795
58992SOL    HW188701   9.725   6.014  11.484  2.2304  0.0678 -1.0543
58992SOL    HW288702   9.740   6.157  11.438 -0.6427  0.8505  0.2178
58993SOL     OW88703   4.645  11.295   0.011  0.0538  0.2536 -0.2259
58993SOL    HW188704   4.687  11.369  -0.032  0.1260  0.7678  0.7122
58993SOL    HW288705   4.551  11.308  -0.005  0.1362 -0.0757 -1.0234
58994SOL     OW88706  11.696   5.302   4.365 -0.1974  0.4080  0.9389
58994SOL    HW188707  11.699   5.230   4.302  1.0545 -0.7420  2.2481
58994SOL    HW288708  11.786   5.310   4.396 -0.5271  1.8578  1.5892
58995SOL     OW88709   9.161   8.232   5.572 -0.0072 -0.0865  0.3221
58995SOL    HW188710   9.186   8.162   5.631 -0.1497  1.1555  1.9379
58995SOL    HW288711   9.066   8.224   5.564  0.0614 -0.5092 -0.0829
58996SOL     OW88712  10.386   1.876   7.058  0.8071  0.1845 -0.1676
58996SOL    HW188713  10.324   1.925   7.112 -0.9868  0.2183 -2.1465
58996SOL    HW288714  10.470   1.887   7.103 -0.0648  2.5895  1.0508
58997SOL     OW88715   5.989  10.839   4.007  0.1387 -0.4049  0.2241
58997SOL    HW188716   6.051  10.911   3.993 -0.4304  0.0416 -0.0616
58997SOL    HW288717   6.036  10.777   4.063  1.6903 -1.1906 -1.8529
58998SOL     OW88718  10.174   9.333   0.174 -0.2660 -0.2050  0.2122
58998SOL    HW188719  10.155   9.366   0.262  0.0098 -0.0733  0.2259
58998SOL    HW288720  10.204   9.410   0.126  2.9296 -0.8238  0.9690
58999SOL     OW88721   2.165   6.029  10.970 -0.1144  0.3517 -0.0711
58999SOL    HW188722   2.206   6.116  10.969 -0.9000  0.7422  0.4456
58999SOL    HW288723   2.235   5.970  10.997  0.7303  0.6450 -1.5401
59000SOL     OW88724   7.739   0.602   4.331 -0.3973  0.1678  0.1091
59000SOL    HW188725   7.748   0.696   4.317 -2.5351  0.8293  2.5379
59000SOL    HW288726   7.650   0.582   4.304  0.4193 -1.5030 -1.6153
59001SOL     OW88727  10.285   2.748   4.969  0.1523  0.2692 -0.9265
59001SOL    HW188728  10.255   2.839   4.970 -0.7205  0.0060  0.5471
59001SOL    HW288729  10.205   2.697   4.977  0.3085 -0.8189 -4.6296
59002SOL     OW88730   1.281   1.698   3.883  0.2394  0.0295  0.1092
59002SOL    HW188731   1.260   1.684   3.791 -2.8148  0.8143  0.5630
59002SOL    HW288732   1.284   1.793   3.893  0.9638 -0.0503  0.7392
59003SOL     OW88733   2.390   2.017  13.237  0.0838 -0.3349  0.6182
59003SOL    HW188734   2.391   1.967  13.155  1.2700  0.9035 -0.1690
59003SOL    HW288735   2.457   1.974  13.291  0.0194 -0.5213  0.5535
59004SOL     OW88736   2.264   0.312   2.145  0.0518 -0.6092  0.1458
59004SOL    HW188737   2.219   0.358   2.215  0.3002  0.2678 -0.2523
59004SOL    HW288738   2.197   0.299   2.078 -0.2397 -1.6420  0.6213
59005SOL     OW88739  12.408   2.729   4.663  0.4201  0.2282 -0.4001
59005SOL    HW188740  12.363   2.705   4.582 -0.3520  0.2916 -0.0054
59005SOL    HW288741  12.480   2.666   4.670 -0.2693 -0.5866 -0.4937
59006SOL     OW88742   8.069   1.513   4.418  0.2385 -0.2264 -0.0449
59006SOL    HW188743   8.000   1.469   4.467 -0.3072  1.3516  0.6794
59006SOL    HW288744   8.091   1.452   4.348 -0.0025 -1.9037  1.2773
59007SOL     OW88745   9.855   0.828  13.403 -0.4637  0.0410  0.1993
59007SOL    HW188746   9.787   0.769  13.372  0.2236 -0.1632 -0.9917
59007SOL    HW288747   9.855   0.900  13.340  1.5138 -0.7724 -0.8216
59008SOL     OW88748   6.911  13.743   0.544 -0.2677  0.0565 -0.2095
59008SOL    HW188749   7.006  13.757   0.549 -0.5459  1.8591  2.3913
59008SOL    HW288750   6.898  13.656   0.582  0.3066  0.3603  0.7379
59009SOL     OW88751   3.566  13.253  10.290  0.3048 -0.2844 -0.5506
59009SOL    HW188752   3.479  13.269  10.254  0.3596 -0.6479 -0.8547
59009SOL    HW288753   3.601  13.340  10.309  0.2171 -0.0983 -1.2376
59010SOL     OW88754   6.101   9.983   7.144 -0.5876 -0.0483 -0.0715
59010SOL    HW188755   6.025   9.999   7.088  0.1773  0.9831 -0.8386
59010SOL    HW288756   6.076  10.020   7.229 -0.5493  1.2534 -0.6106
59011SOL     OW88757   1.376  12.809  10.371 -0.1880  0.1253 -0.3393
59011SOL    HW188758   1.314  12.881  10.359  0.2362  0.3878 -1.0159
59011SOL    HW288759   1.380  12.796  10.465 -0.9113  0.4214 -0.2630
59012SOL     OW88760   2.041  13.455  10.593  0.5911  0.2545 -0.1527
59012SOL    HW188761   2.106  13.525  10.591 -0.1135  1.0433  1.9116
59012SOL    HW288762   1.958  13.500  10.611 -0.1373 -0.9576 -0.3625
59013SOL     OW88763   2.031  10.430  11.826  0.1377 -0.2612 -0.1456
59013SOL    HW188764   2.024  10.422  11.922  1.2365  0.8440  0.0512
59013SOL    HW288765   1.957  10.380  11.793 -1.6826  1.2866  1.3610
59014SOL     OW88766   1.975  12.386  12.792 -0.2584 -0.5053  0.3433
59014SOL    HW188767   1.946  12.349  12.875 -1.4772 -2.6063 -0.9460
59014SOL    HW288768   1.964  12.316  12.729  2.4179  0.3959 -1.3177
59015SOL     OW88769   0.798   8.854   3.661  0.2001  0.4890  0.5367
59015SOL    HW188770   0.825   8.842   3.752 -0.8563 -0.1630  0.7815
59015SOL    HW288771   0.712   8.895   3.667  0.5535  1.3729 -0.1999
59016SOL     OW88772   5.492  12.352   5.298 -0.0664  0.2938  0.2119
59016SOL    HW188773   5.436  12.275   5.303  0.4540 -0.3215 -2.0555
59016SOL    HW288774   5.576  12.323   5.335 -0.2773  0.2039  0.6233
59017SOL     OW88775   1.655   1.863  12.946  0.6543 -0.2240  0.2500
59017SOL    HW188776   1.655   1.788  12.886  0.4266  0.9656 -1.3067
59017SOL    HW288777   1.563   1.888  12.954  0.6083 -0.7575  1.6516
59018SOL     OW88778  10.243  10.519   0.358 -1.2290 -0.0199  0.6451
59018SOL    HW188779  10.333  10.514   0.325 -1.3159  2.8265 -0.2841
59018SOL    HW288780  10.208  10.431   0.345  0.4659 -0.4345 -1.8164
59019SOL     OW88781   8.781  10.136   2.707 -0.3260  0.1437  0.1216
59019SOL    HW188782   8.793  10.143   2.802 -1.5097  0.6629  0.2579
59019SOL    HW288783   8.777  10.042   2.690  0.4704  0.0336  0.4997
59020SOL     OW88784  11.883   0.556  11.729  0.1664 -0.0760  0.1308
59020SOL    HW188785  11.825   0.617  11.684 -2.1570 -2.2289  0.0347
59020SOL    HW288786  11.891   0.481  11.670  3.5765  0.2915 -0.1090
59021SOL     OW88787   8.197   2.276   1.717 -0.0659  0.7629 -0.8125
59021SOL    HW188788   8.108   2.302   1.697 -0.6662  0.6995  1.5153
59021SOL    HW288789   8.196   2.180   1.713  0.0103  0.7791 -1.2148
59022SOL     OW88790   2.262   4.505   1.667  0.0367  0.8471  0.4448
59022SOL    HW188791   2.176   4.498   1.626 -0.1212  2.1692  0.5091
59022SOL    HW288792   2.244   4.533   1.756  0.5300  1.0014  0.5005
59023SOL     OW88793  10.421   0.580  12.577 -0.2850 -0.0929 -0.2105
59023SOL    HW188794  10.411   0.673  12.593  0.5252 -0.1123  0.5072
59023SOL    HW288795  10.381   0.565  12.491 -1.9388  0.5926  0.4111
59024SOL     OW88796   3.288  12.248   7.766  0.3006 -0.0655 -0.0173
59024SOL    HW188797   3.370  12.209   7.797 -0.5802 -1.9027  0.1850
59024SOL    HW288798   3.242  12.273   7.846  0.5162  0.6569 -0.1162
59025SOL     OW88799   2.840   6.701   7.063 -0.3976  0.7936  0.5611
59025SOL    HW188800   2.881   6.678   7.146  0.1292  3.2598  1.0526
59025SOL    HW288801   2.912   6.735   7.009 -0.2361 -2.7993 -1.8853
59026SOL     OW88802   9.859   8.438   0.270  0.0916  0.6087 -0.1203
59026SOL    HW188803   9.824   8.402   0.352 -0.8230  0.3391 -0.6189
59026SOL    HW288804   9.859   8.364   0.209  1.3240  0.6604 -0.2147
59027SOL     OW88805   3.181  12.707   0.269  0.3238  0.1349 -0.1147
59027SOL    HW188806   3.205  12.766   0.197 -1.1833 -0.2928 -1.0153
59027SOL    HW288807   3.246  12.724   0.337 -0.1218  2.9690 -0.2771
59028SOL     OW88808   5.376  11.632  12.508 -1.0391  0.1373 -0.0505
59028SOL    HW188809   5.384  11.618  12.413 -0.8731 -0.3633  0.0344
59028SOL    HW288810   5.395  11.725  12.520 -0.2002  0.0189 -0.4125
59029SOL     OW88811   8.669   5.793   7.878  0.2954 -0.2907 -0.5574
59029SOL    HW188812   8.753   5.783   7.833  1.0861 -0.1210  0.8249
59029SOL    HW288813   8.681   5.746   7.961  0.4167  2.9160  1.3960
59030SOL     OW88814   2.978   0.486   6.363  0.2195 -0.0786 -0.3732
59030SOL    HW188815   2.915   0.415   6.370 -1.0992  1.2110  3.8818
59030SOL    HW288816   3.057   0.453   6.406 -0.3188  0.8148  1.4048
59031SOL     OW88817   1.325   7.111   7.374  0.5549 -0.2407 -0.0252
59031SOL    HW188818   1.281   7.138   7.294  3.1803  1.7102 -0.9677
59031SOL    HW288819   1.263   7.128   7.444 -0.3241  2.0416 -1.2854
59032SOL     OW88820   6.932  10.448  13.112 -0.2805 -0.0563 -0.6460
59032SOL    HW188821   6.901  10.396  13.037  1.6059 -0.1591 -1.4060
59032SOL    HW288822   6.896  10.404  13.189 -2.4757  0.1940 -1.4716
59033SOL     OW88823   0.315   6.704  10.360  0.4600 -0.1767  0.7494
59033SOL    HW188824   0.237   6.653  10.382 -1.2309  1.6836 -0.5995
59033SOL    HW288825   0.319   6.772  10.427 -1.8585  2.5040 -1.5815
59034SOL     OW88826   6.595   3.616   1.754 -0.0014 -0.4082  0.3663
59034SOL    HW188827   6.641   3.550   1.701  0.1959 -0.2455  0.3350
59034SOL    HW288828   6.513   3.573   1.780 -0.4588 -0.2230 -0.7122
59035SOL     OW88829  11.841   7.507   9.290  0.9360  0.0571 -0.0633
59035SOL    HW188830  11.800   7.570   9.230  0.4642  0.7034  0.9023
59035SOL    HW288831  11.898   7.560   9.345 -0.1716 -0.1705  1.3840
59036SOL     OW88832   6.370  13.125   6.007 -0.0408  0.1458  0.5964
59036SOL    HW188833   6.337  13.147   6.095 -2.7212 -1.4127  0.0780
59036SOL    HW288834   6.341  13.198   5.952  0.6707  0.5797  0.7822
59037SOL     OW88835   8.348   3.009  12.228 -0.2867  0.4055 -0.1152
59037SOL    HW188836   8.377   2.969  12.146 -0.2266 -2.2062  1.0919
59037SOL    HW288837   8.424   3.004  12.285 -1.0667 -0.1443  0.8987
59038SOL     OW88838  10.004   9.858   7.272  0.1348  0.0156  0.2805
59038SOL    HW188839  10.039   9.770   7.263 -0.0018 -0.1539  1.2437
59038SOL    HW288840  10.076   9.910   7.306 -0.4209 -0.2946  2.0866
59039SOL     OW88841   5.056   0.934  12.019 -0.4159  0.4153  0.4144
59039SOL    HW188842   4.961   0.921  12.024 -0.5854  1.2053 -0.4828
59039SOL    HW288843   5.066   1.015  11.968  0.7797 -0.8003 -1.3825
59040SOL     OW88844   4.428  13.170   7.280  0.6354 -0.2703  0.6130
59040SOL    HW188845   4.476  13.236   7.231  1.3245  0.3325  2.0280
59040SOL    HW288846   4.398  13.107   7.214  0.2993  1.2316 -0.7165
59041SOL     OW88847   4.469  10.436   8.742 -0.3519  0.1477 -0.3206
59041SOL    HW188848   4.491  10.414   8.651 -0.5208 -0.6566 -0.1794
59041SOL    HW288849   4.544  10.486   8.774 -0.1081  0.0742 -0.7793
59042SOL     OW88850  13.014   7.533   4.681 -0.0669 -0.4658 -0.0423
59042SOL    HW188851  12.975   7.448   4.698  0.4497 -0.2587  2.5124
59042SOL    HW288852  13.106   7.515   4.665 -0.2464 -0.4976 -1.1362
59043SOL     OW88853   1.642   7.321   1.069 -0.1181  1.0178  0.6702
59043SOL    HW188854   1.572   7.295   1.009 -0.2699  0.8693  0.9078
59043SOL    HW288855   1.611   7.292   1.155  1.0267 -0.7009  0.5561
59044SOL     OW88856  13.065   6.628   3.313  0.2632 -0.2045 -0.2743
59044SOL    HW188857  13.004   6.699   3.292 -1.4984 -1.7343 -0.5124
59044SOL    HW288858  13.104   6.655   3.397  0.2749  1.4277 -0.7751
59045SOL     OW88859   2.975   8.456   3.658  0.3137  0.4887 -0.2817
59045SOL    HW188860   3.070   8.441   3.662  0.3007  0.5617  1.0878
59045SOL    HW288861   2.944   8.426   3.744 -0.4276  3.6832  0.6895
59046SOL     OW88862   6.296   2.500   1.429  0.1778  0.0040 -0.1067
59046SOL    HW188863   6.320   2.439   1.499  0.1432 -0.2926 -0.3524
59046SOL    HW288864   6.375   2.552   1.415  0.3716 -0.3277 -0.2495
59047SOL     OW88865  12.656   0.040   6.015  0.5772  0.3978 -0.6576
59047SOL    HW188866  12.710   0.119   6.020  2.2905 -0.7684  0.1812
59047SOL    HW288867  12.566   0.071   6.030  1.2883  2.0922  0.3328
59048SOL     OW88868  13.225  12.165  11.501  0.0050  0.3017 -0.5177
59048SOL    HW188869  13.258  12.161  11.591 -1.2122 -0.3508 -0.0755
59048SOL    HW288870  13.244  12.255  11.473  2.0012  0.0099 -0.2778
59049SOL     OW88871   8.796   2.058   0.033 -0.4772 -0.0440 -0.2906
59049SOL    HW188872   8.792   2.149   0.062  2.4446  0.0531  0.1789
59049SOL    HW288873   8.857   2.017   0.094 -1.1692 -2.1551 -0.9381
59050SOL     OW88874   9.881   2.835  13.553 -0.0219 -0.1535 -0.1703
59050SOL    HW188875   9.976   2.823  13.564 -0.2262  0.2561  2.5945
59050SOL    HW288876   9.845   2.747  13.564 -0.0418 -0.2289 -0.7586
59051SOL     OW88877   9.417   7.008   6.356 -0.1004  0.0458 -0.0146
59051SOL    HW188878   9.326   6.982   6.349 -0.3859  0.8871  0.4621
59051SOL    HW288879   9.416   7.087   6.411  0.7091  1.1111 -1.4478
59052SOL     OW88880   6.824  13.279   7.775  0.2621 -0.3137 -0.5392
59052SOL    HW188881   6.817  13.205   7.715 -0.3217  0.5060 -1.5171
59052SOL    HW288882   6.901  13.259   7.828  0.6983 -1.1569 -1.4452
59053SOL     OW88883   4.515   4.784  12.010  0.0887  0.7940  0.3216
59053SOL    HW188884   4.592   4.733  11.985  0.7448  0.3663  2.9028
59053SOL    HW288885   4.454   4.719  12.046 -0.3235  1.4510  0.8391
59054SOL     OW88886   9.344   2.948   1.780  0.2600  0.2032 -0.2634
59054SOL    HW188887   9.303   2.864   1.800 -0.2193  0.0030 -1.9769
59054SOL    HW288888   9.287   3.013   1.821  0.1521 -0.2591  0.3298
59055SOL     OW88889   7.708  10.110   8.963  0.4490 -1.0893  0.5421
59055SOL    HW188890   7.717  10.126   8.870  0.1448  0.3438  0.7331
59055SOL    HW288891   7.789  10.066   8.989 -0.1760 -3.1011 -0.6768
59056SOL     OW88892  10.584   9.523  11.963 -0.2371 -0.8312  0.3240
59056SOL    HW188893  10.622   9.604  11.995  0.6591 -0.4977 -1.4611
59056SOL    HW288894  10.639   9.454  11.998  0.3454 -0.5164  0.0373
59057SOL     OW88895  12.368   1.181   1.522  0.1695 -0.2262  0.2637
59057SOL    HW188896  12.452   1.184   1.568 -0.5320  1.4638  1.5358
59057SOL    HW288897  12.312   1.126   1.576 -0.3852  1.0338  1.0242
59058SOL     OW88898  12.059   7.837   3.119  0.7641  0.3725  0.1692
59058SOL    HW188899  12.093   7.762   3.070  1.3885  0.0154  1.1024
59058SOL    HW288900  12.130   7.859   3.180  0.3552  1.3542  0.3022
59059SOL     OW88901  10.447   0.709   6.510 -0.6061  0.3278 -0.2260
59059SOL    HW188902  10.472   0.677   6.423 -0.0192 -4.0916  1.3101
59059SOL    HW288903  10.368   0.660   6.531  0.6894 -0.7618  2.6487
59060SOL     OW88904   7.884  12.904  13.054  0.0486 -0.5656  0.1274
59060SOL    HW188905   7.962  12.933  13.101  0.0463  0.7791 -0.6532
59060SOL    HW288906   7.836  12.985  13.033 -0.9999 -1.2802 -0.3662
59061SOL     OW88907   6.089  12.345   1.420  0.6663 -0.4772 -0.2514
59061SOL    HW188908   6.074  12.251   1.436  0.1392 -0.2380  0.7455
59061SOL    HW288909   6.002  12.380   1.401  0.9669 -0.3175 -1.4411
59062SOL     OW88910  12.655  10.654   0.757  0.1748  0.3357  0.1823
59062SOL    HW188911  12.620  10.588   0.817  1.1393  0.5399  0.9813
59062SOL    HW288912  12.589  10.660   0.688  0.7386 -2.5263 -0.7140
59063SOL     OW88913  11.295   1.541   6.783  1.0452  0.1922 -0.1336
59063SOL    HW188914  11.276   1.522   6.875 -0.1604  2.9819  0.3090
59063SOL    HW288915  11.390   1.554   6.780  1.3026 -1.3617  0.3555
59064SOL     OW88916   7.904   5.191  13.606 -0.7164 -0.1602  0.3959
59064SOL    HW188917   7.917   5.097  13.621  0.0981 -0.5578 -2.2638
59064SOL    HW288918   7.818   5.198  13.565 -1.1225  0.3815  1.3015
59065SOL     OW88919   8.801   5.276   8.434 -0.1657  0.2375 -0.1161
59065SOL    HW188920   8.796   5.224   8.354 -0.0052 -0.4598  0.3170
59065SOL    HW288921   8.854   5.223   8.494 -1.9355 -0.1654  1.1441
59066SOL     OW88922  10.704   5.306   2.609  0.3112 -0.3233  0.4504
59066SOL    HW188923  10.666   5.362   2.677 -0.5211 -1.3738  0.8853
59066SOL    HW288924  10.673   5.218   2.631  1.3435 -0.9191 -0.3790
59067SOL     OW88925   0.960  13.183  12.767 -0.0324  0.0250 -0.0579
59067SOL    HW188926   1.007  13.232  12.700  2.9620 -0.2077  1.6849
59067SOL    HW288927   0.886  13.239  12.790  1.8266  2.6115  0.0655
59068SOL     OW88928   3.750  12.368   7.984 -0.0473 -0.5997  0.1933
59068SOL    HW188929   3.838  12.345   8.015  0.4923  0.8764 -0.1402
59068SOL    HW288930   3.720  12.435   8.045 -0.5864 -0.4867 -0.1902
59069SOL     OW88931  11.470   4.579  13.134 -0.1669  0.4943  0.1484
59069SOL    HW188932  11.385   4.623  13.128  0.2763  1.1846 -1.3637
59069SOL    HW288933  11.449   4.486  13.131 -1.1231  0.4669  3.3971
59070SOL     OW88934   4.218   5.788  11.117 -0.1507 -0.4575 -0.2143
59070SOL    HW188935   4.140   5.811  11.065  0.7558  2.9582 -0.2935
59070SOL    HW288936   4.186   5.786  11.208 -0.0571  3.5593  0.0806
59071SOL     OW88937   3.282   4.707  11.597  0.0180  0.4327  0.7897
59071SOL    HW188938   3.231   4.778  11.559 -0.2399 -0.0865  0.1428
59071SOL    HW288939   3.373   4.737  11.591  0.0391  0.1521 -0.7634
59072SOL     OW88940   0.084  10.335   9.844  0.7361  0.0627 -0.4152
59072SOL    HW188941   0.018  10.266   9.835 -0.7853  1.4679 -0.5234
59072SOL    HW288942   0.168  10.289   9.842 -0.2422 -2.1008  2.1533
59073SOL     OW88943   4.454   5.726   0.123 -0.2606 -0.2030  0.2278
59073SOL    HW188944   4.420   5.803   0.169 -0.5194 -0.8972  1.2104
59073SOL    HW288945   4.386   5.660   0.132 -0.9362  0.0469 -2.3473
59074SOL     OW88946  10.965  13.185   4.853  0.1296  0.2137 -0.5221
59074SOL    HW188947  10.994  13.096   4.871 -0.2352  0.5184  1.9021
59074SOL    HW288948  11.043  13.229   4.817  0.2512 -1.0883 -1.9274
59075SOL     OW88949   6.001   1.844   3.680 -0.4662  0.1848  0.1244
59075SOL    HW188950   5.999   1.849   3.584 -1.5303 -0.9360  0.0686
59075SOL    HW288951   5.991   1.751   3.699 -0.6634  0.4469  1.3456
59076SOL     OW88952  10.457  11.599   2.130  0.1906 -0.5840 -0.2662
59076SOL    HW188953  10.413  11.526   2.085 -0.7003 -0.0486 -0.2894
59076SOL    HW288954  10.533  11.558   2.172 -0.3090 -1.5358 -0.2517
59077SOL     OW88955   5.667   1.149   0.748  0.2071 -0.0664 -0.5464
59077SOL    HW188956   5.632   1.102   0.823  0.5073 -2.2006 -1.6719
59077SOL    HW288957   5.754   1.178   0.776  1.1333 -2.5438 -0.6338
59078SOL     OW88958   1.903   3.849  11.932  0.8289  0.3663 -0.5060
59078SOL    HW188959   1.875   3.759  11.916  1.4430  0.3167 -1.3610
59078SOL    HW288960   1.848   3.879  12.005  0.3465 -0.5605 -0.4781
59079SOL     OW88961   6.588  10.247   2.178 -0.0013  0.4020  0.2470
59079SOL    HW188962   6.515  10.308   2.168  0.0336  0.3606 -0.2891
59079SOL    HW288963   6.560  10.167   2.134  0.3439  0.3690  0.0803
59080SOL     OW88964   7.865   5.792  10.599 -0.0197 -0.2791  0.0997
59080SOL    HW188965   7.887   5.722  10.661 -0.2498 -0.3619  0.0916
59080SOL    HW288966   7.769   5.787  10.592  0.0252 -0.4342 -0.4493
59081SOL     OW88967   2.263   5.624  12.547 -0.1158 -0.2620 -0.3584
59081SOL    HW188968   2.212   5.553  12.586 -0.3777 -0.1845 -0.5540
59081SOL    HW288969   2.317   5.657  12.618  0.1758 -0.8096 -0.3213
59082SOL     OW88970   2.719  10.103   7.746 -0.3804  0.0904  0.5430
59082SOL    HW188971   2.646  10.050   7.778 -1.0965  0.4644 -0.4082
59082SOL    HW288972   2.771  10.043   7.693  0.3458 -0.3193  1.6778
59083SOL     OW88973   0.436   1.738   9.723 -0.6121 -0.4004 -0.3361
59083SOL    HW188974   0.500   1.789   9.772 -1.7927 -0.9792  1.9329
59083SOL    HW288975   0.467   1.743   9.632  1.9232  0.3489  0.4711
59084SOL     OW88976  11.886  12.136   0.441  0.1237  0.2805 -0.2364
59084SOL    HW188977  11.817  12.162   0.503  0.5155  0.8203 -0.0177
59084SOL    HW288978  11.945  12.210   0.439  0.9183 -0.3377 -0.1172
59085SOL     OW88979  11.147   7.749  10.126  0.1516  0.1129  0.3205
59085SOL    HW188980  11.152   7.655  10.147 -0.8392  0.3545  1.8383
59085SOL    HW288981  11.149   7.792  10.211 -4.1090  1.1968  0.0965
59086SOL     OW88982   2.378   2.218   0.453  0.2977 -0.1689 -0.1769
59086SOL    HW188983   2.458   2.258   0.489 -0.6446  3.6130 -1.7523
59086SOL    HW288984   2.316   2.221   0.526  0.3590  1.0869 -0.1437
59087SOL     OW88985  12.528  10.544  11.784  0.7368  0.3874  0.4572
59087SOL    HW188986  12.487  10.630  11.789  1.7984  0.8650  1.3247
59087SOL    HW288987  12.454  10.482  11.783 -0.0200  1.2716  0.5103
59088SOL     OW88988   9.981   8.322   7.642 -0.5189 -0.4026 -0.3070
59088SOL    HW188989  10.030   8.396   7.677  1.0031  1.0271 -4.8500
59088SOL    HW288990  10.038   8.247   7.657  0.5669  0.3261 -0.6598
59089SOL     OW88991  13.232   8.391   1.012 -0.1246  0.2918 -0.4325
59089SOL    HW188992  13.327   8.406   1.005 -0.2637  1.6076  0.1458
59089SOL    HW288993  13.206   8.364   0.924  0.7365  0.2817 -0.6950
59090SOL     OW88994   5.252   7.437  12.195  0.5105 -0.0186  0.0791
59090SOL    HW188995   5.230   7.388  12.274  1.5095 -0.6786 -0.0331
59090SOL    HW288996   5.264   7.369  12.128 -2.8444  0.6077 -1.3486
59091SOL     OW88997  13.519  13.183   3.107  0.1123 -0.0292  0.5400
59091SOL    HW188998  13.533  13.096   3.144 -0.1053  0.1011  0.9337
59091SOL    HW288999  13.599  13.231   3.126  1.1898 -0.8240 -1.6870
59092SOL     OW89000   6.471   5.711   4.857  0.3540 -0.3048 -0.4420
59092SOL    HW189001   6.451   5.617   4.850 -1.7796  0.0736 -0.1505
59092SOL    HW289002   6.506   5.735   4.772  1.3716 -1.4455 -0.3706
59093SOL     OW89003  13.495  11.367   3.474 -0.1455 -0.4155 -0.1547
59093SOL    HW189004  13.510  11.287   3.524 -0.7478 -1.3023 -1.3253
59093SOL    HW289005  13.582  11.397   3.450  0.2818  0.9716  2.7330
59094SOL     OW89006   6.595   2.619   9.358  0.1204 -0.3416  0.2821
59094SOL    HW189007   6.507   2.583   9.370 -0.4959  0.2069 -1.9761
59094SOL    HW289008   6.654   2.548   9.382 -0.8834 -0.5738  2.2702
59095SOL     OW89009   1.911  12.865  10.437 -0.3043 -0.2039  0.1699
59095SOL    HW189010   1.900  12.770  10.442  1.6522 -0.4963 -0.3466
59095SOL    HW289011   1.823  12.899  10.422 -0.7509 -2.1506 -2.2858
59096SOL     OW89012  10.052   5.182   7.605 -0.2848 -0.2892  0.0662
59096SOL    HW189013  10.080   5.109   7.551 -0.8120 -1.5335  1.4120
59096SOL    HW289014   9.969   5.210   7.567  1.6205  2.1213 -2.7184
59097SOL     OW89015   6.517   1.434   7.921 -0.2326  0.8138 -0.2349
59097SOL    HW189016   6.493   1.509   7.976  1.4803 -0.0857  1.9217
59097SOL    HW289017   6.601   1.459   7.882 -1.7098  1.7022 -3.1723
59098SOL     OW89018   2.506   6.771   3.908 -0.3515  0.2912 -0.6391
59098SOL    HW189019   2.415   6.766   3.878 -0.1219 -0.2004 -1.2862
59098SOL    HW289020   2.535   6.680   3.910 -0.3225  0.3055  1.0378
59099SOL     OW89021   3.196   9.221   3.116  0.1367  0.0754 -0.0882
59099SOL    HW189022   3.162   9.132   3.127  1.5640 -0.4769  0.1118
59099SOL    HW289023   3.182   9.262   3.201 -1.6094  0.4658 -0.5254
59100SOL     OW89024  12.851   9.352  12.791  0.7128 -0.0645 -0.0702
59100SOL    HW189025  12.868   9.376  12.882 -1.1577  0.4879  0.1737
59100SOL    HW289026  12.757   9.334  12.788  0.6807  0.2206 -1.9578
59101SOL     OW89027   9.216   3.701   5.589  0.1429 -0.7904 -0.0500
59101SOL    HW189028   9.207   3.609   5.564  1.0717 -1.0942  0.6948
59101SOL    HW289029   9.239   3.745   5.507 -1.4446 -1.0098 -0.6537
59102SOL     OW89030  10.460   8.339  11.989 -0.4233  0.6365  0.2712
59102SOL    HW189031  10.527   8.394  12.031  0.0333  0.5792 -0.3683
59102SOL    HW289032  10.403   8.401  11.943  0.2947  0.5764 -0.7402
59103SOL     OW89033   9.341  10.500  11.335 -0.4967 -0.3892  0.0368
59103SOL    HW189034   9.375  10.418  11.301  0.3924  0.1251 -0.3594
59103SOL    HW289035   9.405  10.566  11.309 -1.4543  0.5206 -0.1222
59104SOL     OW89036  13.188   8.380  11.293  0.7194 -0.0425  0.1451
59104SOL    HW189037  13.099   8.361  11.264  1.0154  0.8712 -1.5052
59104SOL    HW289038  13.236   8.299  11.277  0.3030 -0.3803  0.5707
59105SOL     OW89039  12.241   5.498   7.336  0.4656 -0.3122  0.0918
59105SOL    HW189040  12.232   5.408   7.365 -0.4922 -0.7609 -1.4620
59105SOL    HW289041  12.286   5.492   7.251 -0.3974  0.5669 -0.4605
59106SOL     OW89042   5.164   7.752  10.237 -0.1648 -0.0878  0.1383
59106SOL    HW189043   5.224   7.687  10.276 -2.0677 -1.0077  1.7387
59106SOL    HW289044   5.077   7.718  10.256 -1.2559  0.7700 -2.8527
59107SOL     OW89045   8.594  11.259   0.552  0.1186  0.1494  0.4332
59107SOL    HW189046   8.622  11.313   0.625 -0.7539  1.9336 -0.4764
59107SOL    HW289047   8.656  11.186   0.549  0.6487  0.4812  2.4050
59108SOL     OW89048  12.001  12.712   2.950 -0.1846 -0.0570  0.1631
59108SOL    HW189049  12.047  12.792   2.975 -0.3954 -0.0681  0.6075
59108SOL    HW289050  12.066  12.659   2.905 -0.8403  1.7514 -3.2057
59109SOL     OW89051   3.174  11.708   1.138  0.1427 -0.2382  0.2313
59109SOL    HW189052   3.175  11.800   1.164 -0.7401 -0.3636  0.7656
59109SOL    HW289053   3.209  11.707   1.050 -0.2245  0.6747  0.0676
59110SOL     OW89054   6.642  12.188  11.934  0.4779  0.7829  0.0315
59110SOL    HW189055   6.712  12.201  11.869 -0.2254  1.7834 -0.5522
59110SOL    HW289056   6.589  12.268  11.929 -1.0663 -0.2008  0.0374
59111SOL     OW89057   4.210  11.519   9.340 -0.1882 -0.1942  0.4446
59111SOL    HW189058   4.236  11.538   9.430 -1.3785  1.9282  0.4024
59111SOL    HW289059   4.272  11.451   9.311 -0.9077 -2.2998  3.3989
59112SOL     OW89060   1.948   9.315   3.236 -0.3914  0.2177 -0.0330
59112SOL    HW189061   1.858   9.346   3.221  0.0116  0.7379 -1.5581
59112SOL    HW289062   1.942   9.220   3.225 -0.9082  0.1369  0.7984
59113SOL     OW89063   8.890   9.908   7.779 -0.2486 -0.1331  0.3894
59113SOL    HW189064   8.977   9.881   7.808 -0.4193  0.0405  1.0636
59113SOL    HW289065   8.900   9.999   7.751 -0.9126  1.1083  3.7719
59114SOL     OW89066   1.542  10.452  11.734  0.1833 -0.7249 -0.3172
59114SOL    HW189067   1.456  10.437  11.772  0.7276 -1.4805  0.6847
59114SOL    HW289068   1.553  10.381  11.671 -0.1802 -0.2443 -0.9350
59115SOL     OW89069   4.023   1.860   6.233  0.3861 -0.2757 -0.5755
59115SOL    HW189070   3.940   1.813   6.233  0.5191 -0.5290 -1.2505
59115SOL    HW289071   4.030   1.897   6.321 -1.5969  1.7844 -1.1864
59116SOL     OW89072  12.075   5.412   7.788  0.3158 -0.1371  0.7121
59116SOL    HW189073  12.099   5.384   7.877  1.9602  0.1188  0.3808
59116SOL    HW289074  12.006   5.477   7.802  0.8654  0.2353  1.8383
59117SOL     OW89075   8.646   9.129   5.975  0.5068 -0.1262 -0.1016
59117SOL    HW189076   8.657   9.035   5.965  4.3447  0.1678 -0.2589
59117SOL    HW289077   8.680   9.148   6.063 -0.3094  1.1216 -0.0230
59118SOL     OW89078   8.437   1.483   5.422 -0.5487 -0.5865 -0.2306
59118SOL    HW189079   8.509   1.467   5.362 -0.1847 -1.2827  0.3753
59118SOL    HW289080   8.430   1.403   5.474 -1.0822 -0.1450  0.4050
59119SOL     OW89081   1.076  10.118   6.607  0.1093 -0.1618  0.0430
59119SOL    HW189082   1.036  10.079   6.685  0.2600  0.6612  0.5364
59119SOL    HW289083   1.045  10.208   6.606 -0.6091 -0.3901 -1.3488
59120SOL     OW89084   2.546  11.280   4.017 -0.2157  0.2691  0.3698
59120SOL    HW189085   2.525  11.204   3.963 -0.7697  0.5772  0.1416
59120SOL    HW289086   2.594  11.339   3.958 -0.5930  0.4929  0.2853
59121SOL     OW89087  12.881  10.274   7.714  0.3214  0.2834 -0.6927
59121SOL    HW189088  12.820  10.200   7.719 -1.2735  1.5879  0.4332
59121SOL    HW289089  12.854  10.331   7.786  2.3886  1.3216 -0.6758
59122SOL     OW89090   0.662   5.587  12.513  0.5143  0.4207 -0.0111
59122SOL    HW189091   0.587   5.582  12.455  0.6607 -0.0420 -0.1699
59122SOL    HW289092   0.646   5.663  12.568 -0.3374  0.0102  0.3236
59123SOL     OW89093   1.366   3.004   1.873  0.5083 -0.2191  0.3858
59123SOL    HW189094   1.307   2.983   1.800  1.7234  1.5842 -1.2036
59123SOL    HW289095   1.389   2.919   1.910 -0.8522 -1.1343 -0.7637
59124SOL     OW89096   4.911   6.749  11.878 -0.4377  0.5327 -0.2793
59124SOL    HW189097   4.842   6.695  11.840  0.1182  0.1464 -0.7551
59124SOL    HW289098   4.890   6.753  11.971 -0.7189 -0.1612 -0.3054
59125SOL     OW89099   8.572   7.273   6.679  0.3280 -0.0737  0.1387
59125SOL    HW189100   8.647   7.241   6.729  0.6293  0.9280  0.3696
59125SOL    HW289101   8.599   7.267   6.588  0.6080  0.0703  0.2112
59126SOL     OW89102   0.939   5.112   8.028  0.2520  0.5033 -1.0580
59126SOL    HW189103   0.988   5.091   8.107 -0.5763  2.5327  0.0580
59126SOL    HW289104   0.883   5.036   8.013 -0.7427  0.7019  1.2697
59127SOL     OW89105  13.390   7.342   4.091  0.0636  0.4696  0.0959
59127SOL    HW189106  13.442   7.291   4.153 -0.1579  0.9373  0.6687
59127SOL    HW289107  13.387   7.287   4.012  0.8203  0.1249  0.2997
59128SOL     OW89108  11.101  12.360  12.374 -0.2302 -0.9934  0.2768
59128SOL    HW189109  11.023  12.412  12.355  0.0600 -0.6673 -0.0374
59128SOL    HW289110  11.081  12.317  12.457  0.3280  1.2114  1.6243
59129SOL     OW89111   8.956   1.945   6.915  0.0557 -0.6041  0.0277
59129SOL    HW189112   8.932   2.012   6.851  2.1127 -0.8807 -1.1333
59129SOL    HW289113   8.919   1.976   6.998 -1.8154  0.2824 -1.0692
59130SOL     OW89114  12.462   1.269   8.257 -0.0731 -0.5829 -0.2874
59130SOL    HW189115  12.436   1.361   8.253 -0.6229 -0.7602 -0.7711
59130SOL    HW289116  12.382   1.221   8.276 -0.0098 -1.0716 -1.1861
59131SOL     OW89117  11.688  11.853  12.658 -0.0051 -0.2145  1.0491
59131SOL    HW189118  11.598  11.823  12.671 -0.5611  1.5727  1.5686
59131SOL    HW289119  11.739  11.772  12.647 -1.8853 -1.2108 -0.9183
59132SOL     OW89120   0.389   0.118   9.209 -0.4572 -0.4305 -0.2067
59132SOL    HW189121   0.380   0.170   9.129  2.3980  0.3050 -0.1349
59132SOL    HW289122   0.382   0.027   9.179  1.1079 -0.1883 -1.4404
59133SOL     OW89123  10.633   7.676   0.906 -0.1436  0.0692  0.6020
59133SOL    HW189124  10.593   7.762   0.889  0.5581  0.0655 -1.3039
59133SOL    HW289125  10.597   7.619   0.839 -0.2410 -1.0291  1.5698
59134SOL     OW89126  12.273   6.104   6.276  0.3668 -0.1652 -0.0527
59134SOL    HW189127  12.222   6.035   6.318  0.2163  0.0278  0.0839
59134SOL    HW289128  12.208   6.171   6.253  0.6785  0.4938  0.9449
59135SOL     OW89129  11.992  10.743  11.425 -0.2417 -0.1860  0.3024
59135SOL    HW189130  11.920  10.690  11.392 -0.8277  0.7226  0.0912
59135SOL    HW289131  11.990  10.731  11.520 -0.5526 -0.3127  0.2784
59136SOL     OW89132  10.299  10.208   0.105 -0.5268  0.3059 -0.2556
59136SOL    HW189133  10.311  10.298   0.075 -1.1098  0.5310  0.1636
59136SOL    HW289134  10.386  10.179   0.133 -0.5420  1.1646  0.7534
59137SOL     OW89135  12.758  10.635   4.684  0.0316  0.2737 -0.4764
59137SOL    HW189136  12.778  10.667   4.596 -0.0625  0.9765 -0.2528
59137SOL    HW289137  12.667  10.660   4.698  0.0966  0.3149 -0.1184
59138SOL     OW89138   7.186   0.825   4.983  0.2657 -0.0105 -0.4284
59138SOL    HW189139   7.277   0.844   5.005  0.7325 -0.4022 -1.9137
59138SOL    HW289140   7.188   0.796   4.892 -1.3890  0.2912 -0.6074
59139SOL     OW89141  12.038   7.048   7.417  0.0997  0.5132  0.0140
59139SOL    HW189142  12.001   7.116   7.474  0.0035  0.2873  0.2190
59139SOL    HW289143  12.104   7.095   7.365  1.4952  0.3712  1.5798
59140SOL     OW89144  11.547   7.438  12.850 -0.0664  0.0225 -0.4482
59140SOL    HW189145  11.507   7.357  12.883  0.1232  0.7830  1.8130
59140SOL    HW289146  11.475   7.486  12.810  0.0558 -1.7798 -3.1172
59141SOL     OW89147   8.005   9.789   5.916 -0.0083  0.4856 -0.2420
59141SOL    HW189148   7.950   9.823   5.987 -1.0275  0.4226 -0.9688
59141SOL    HW289149   8.094   9.794   5.949 -0.5201 -0.2436  1.3302
59142SOL     OW89150   2.644   7.833   7.486 -0.2696  0.0816  0.6691
59142SOL    HW189151   2.648   7.873   7.572 -0.8465 -0.1908  0.8267
59142SOL    HW289152   2.733   7.801   7.469 -0.3135 -0.4672  1.4500
59143SOL     OW89153   9.138  13.349  11.378 -0.0296 -0.2738  0.3610
59143SOL    HW189154   9.175  13.429  11.341  1.4574 -1.1376 -0.1302
59143SOL    HW289155   9.151  13.356  11.472 -0.3890  0.2763  0.3742
59144SOL     OW89156  13.709   5.411   5.619 -0.2679  0.0401  0.6382
59144SOL    HW189157  13.802   5.390   5.625 -0.2424 -0.8334 -1.7456
59144SOL    HW289158  13.706   5.494   5.570 -0.7490 -0.6848 -0.6056
59145SOL     OW89159   4.776   0.963  10.278 -0.2702 -0.5989  0.6897
59145SOL    HW189160   4.830   1.000  10.207  1.5758  0.9497  2.7550
59145SOL    HW289161   4.694   1.013  10.274  0.5430  0.8010  0.7687
59146SOL     OW89162   1.049   9.150   5.538 -0.9312  0.1220 -0.3105
59146SOL    HW189163   1.036   9.064   5.577 -1.0674  0.6710  0.9281
59146SOL    HW289164   1.010   9.211   5.601  0.5754  1.2134 -0.3619
59147SOL     OW89165  11.291   9.069   8.352  0.2586  0.1895 -0.0536
59147SOL    HW189166  11.249   9.037   8.272  0.1266  2.0439 -0.7801
59147SOL    HW289167  11.257   9.012   8.421 -0.6140 -0.6516 -1.1396
59148SOL     OW89168  10.449   9.833   4.213 -0.1599 -0.9709 -0.1415
59148SOL    HW189169  10.425   9.899   4.278 -0.6231 -1.3279  0.0601
59148SOL    HW289170  10.403   9.754   4.241 -1.4279 -0.8022 -1.6129
59149SOL     OW89171  11.359  11.809  13.480  0.0729  0.2678  0.0855
59149SOL    HW189172  11.274  11.766  13.471  0.4845 -0.4192 -0.5796
59149SOL    HW289173  11.348  11.866  13.556 -0.4285 -1.1646  1.1480
59150SOL     OW89174   1.615   5.077   7.691 -0.0828  0.2979  0.1615
59150SOL    HW189175   1.523   5.094   7.673 -0.1887 -0.4554 -0.0501
59150SOL    HW289176   1.652   5.055   7.605 -0.1620 -1.4065  0.5281
59151SOL     OW89177  10.636  10.418  13.313  0.2145 -0.1390 -0.0194
59151SOL    HW189178  10.632  10.374  13.228  0.1002  0.6485 -0.4403
59151SOL    HW289179  10.681  10.356  13.371  1.1921 -0.2967 -0.9104
59152SOL     OW89180   3.846   1.337  12.816 -0.1394  0.0007 -0.6447
59152SOL    HW189181   3.876   1.428  12.820 -2.7575  0.9830 -1.0510
59152SOL    HW289182   3.866   1.310  12.726  0.4976  0.2199 -0.5758
59153SOL     OW89183   2.257  12.411  11.977  0.2854  0.4351 -0.2284
59153SOL    HW189184   2.275  12.328  12.022 -0.9042 -0.0162 -0.5488
59153SOL    HW289185   2.324  12.415  11.908  1.0153  0.2762  0.4579
59154SOL     OW89186   5.058   1.463   5.019  0.3080 -0.6979 -0.0745
59154SOL    HW189187   5.062   1.409   4.941 -0.1657 -1.8175  0.6537
59154SOL    HW289188   5.026   1.548   4.988  0.1641 -1.1127 -1.0944
59155SOL     OW89189   5.379  11.000   0.799 -0.9328  0.0497 -0.0329
59155SOL    HW189190   5.426  11.071   0.756 -2.1893  1.1108  0.2990
59155SOL    HW289191   5.287  11.016   0.779 -1.2606 -1.3617  0.2338
59156SOL     OW89192   4.617  11.111   4.949 -0.1235 -0.4013  0.7917
59156SOL    HW189193   4.642  11.025   4.985  0.6175 -0.2696  0.6036
59156SOL    HW289194   4.557  11.090   4.877  1.0696 -0.8339 -0.0985
59157SOL     OW89195   7.966   2.078  12.503  0.1242 -0.1601 -0.0799
59157SOL    HW189196   8.048   2.037  12.528  0.5327  0.5572 -0.2273
59157SOL    HW289197   7.986   2.171  12.495 -1.5471  0.7197  3.7196
59158SOL     OW89198   8.551   2.343   9.293  0.1621 -0.1812 -0.1579
59158SOL    HW189199   8.533   2.312   9.204 -0.2669  0.7947 -0.4278
59158SOL    HW289200   8.521   2.434   9.293  0.6180 -0.0167  0.8439
59159SOL     OW89201   6.164   9.585   4.781  0.3605 -0.2943 -0.2763
59159SOL    HW189202   6.152   9.679   4.771  2.5092 -0.1424 -2.2157
59159SOL    HW289203   6.211   9.574   4.864  2.0525  0.5860 -1.0756
59160SOL     OW89204   7.818   1.528   6.947 -0.5111  0.7128 -0.7165
59160SOL    HW189205   7.794   1.605   6.998 -0.4764  1.6207 -2.0150
59160SOL    HW289206   7.736   1.498   6.908 -0.3411  0.7572 -1.1078
59161SOL     OW89207   7.887  12.098  10.848  0.7211  0.1153 -0.3200
59161SOL    HW189208   7.949  12.168  10.864 -0.5504  1.6568 -1.7814
59161SOL    HW289209   7.809  12.123  10.898  0.4497 -0.5873 -0.3764
59162SOL     OW89210   8.607   8.727   6.868 -0.0746 -0.1461  0.4186
59162SOL    HW189211   8.569   8.721   6.956  0.2807  1.1074  0.6720
59162SOL    HW289212   8.625   8.636   6.844 -1.2765 -0.6085  1.1458
59163SOL     OW89213  10.014  12.103   6.124 -0.1393 -0.3347  0.4178
59163SOL    HW189214  10.098  12.076   6.162 -0.7768  0.1195  2.2902
59163SOL    HW289215  10.015  12.068   6.035  1.1969 -2.0423  1.0468
59164SOL     OW89216   0.360   2.097   2.605  0.0543  0.5834  0.4919
59164SOL    HW189217   0.269   2.071   2.589  0.5325 -0.1392 -1.1527
59164SOL    HW289218   0.378   2.065   2.694 -0.7950 -0.7070  0.2279
59165SOL     OW89219   9.037   2.287   8.283 -0.4855 -0.1992  0.5793
59165SOL    HW189220   9.119   2.250   8.315 -0.8885  1.1206  3.3776
59165SOL    HW289221   8.981   2.211   8.264  1.4643 -1.1478 -1.9582
59166SOL     OW89222   7.290  12.646   1.683  0.3779 -0.0365 -0.7142
59166SOL    HW189223   7.325  12.562   1.651  0.2256  0.1378 -1.3556
59166SOL    HW289224   7.324  12.711   1.621 -0.6036  0.2075 -1.0131
59167SOL     OW89225  12.533   4.600  11.426  0.2173  0.2944  0.6144
59167SOL    HW189226  12.596   4.533  11.400 -0.6206 -0.9814  1.6640
59167SOL    HW289227  12.517   4.651  11.347  0.9140 -0.7379 -0.2160
59168SOL     OW89228   8.837   4.277  12.523  0.4527 -0.5169  0.1825
59168SOL    HW189229   8.756   4.328  12.512  0.6729 -0.1228  0.3589
59168SOL    HW289230   8.807   4.193  12.558  0.1358 -0.3141  0.4060
59169SOL     OW89231   3.743  12.284   1.216 -0.4032  0.4662 -0.1874
59169SOL    HW189232   3.741  12.202   1.265 -0.4723  1.5980  1.7994
59169SOL    HW289233   3.806  12.339   1.262  0.0678  1.3630 -1.8052
59170SOL     OW89234   1.882   9.490   3.896 -0.3264  0.1041 -0.0040
59170SOL    HW189235   1.952   9.447   3.944 -1.0520 -0.0854  0.9154
59170SOL    HW289236   1.925   9.561   3.848  0.5017 -0.0928  0.4366
59171SOL     OW89237   3.389   8.800   3.051  0.3923  0.4543 -0.5139
59171SOL    HW189238   3.478   8.778   3.076  1.0760  1.9294 -1.5118
59171SOL    HW289239   3.394   8.890   3.020 -1.2828  0.2995 -1.3800
59172SOL     OW89240  10.298  12.324  13.536 -0.4387  0.2779 -0.4366
59172SOL    HW189241  10.235  12.394  13.551  0.5083  0.8033  1.3085
59172SOL    HW289242  10.359  12.360  13.471  0.1050  1.1546  0.5310
59173SOL     OW89243   3.204   2.977   9.349  0.5236  0.4277  0.5388
59173SOL    HW189244   3.163   3.062   9.332  2.6656  1.9173  2.1930
59173SOL    HW289245   3.149   2.937   9.416  0.9701  1.8177  1.8027
59174SOL     OW89246   8.191   2.657   7.939 -0.7055 -0.5275 -0.2035
59174SOL    HW189247   8.169   2.745   7.972  0.5571 -0.8634  1.6753
59174SOL    HW289248   8.254   2.673   7.869  0.8485  0.0678  1.2573
59175SOL     OW89249   1.361  12.843   0.564  0.1683  0.6960 -0.1759
59175SOL    HW189250   1.426  12.828   0.632 -1.0261  0.4761  0.9654
59175SOL    HW289251   1.330  12.756   0.540 -0.3230  0.8401 -0.0746
59176SOL     OW89252   1.472  10.360   7.751 -0.0707  0.5032  0.0647
59176SOL    HW189253   1.499  10.354   7.659  0.3110 -0.5828  0.2381
59176SOL    HW289254   1.398  10.421   7.750 -0.9591 -0.5424 -1.1710
59177SOL     OW89255   9.019   0.474   5.054 -0.2123  0.2482 -0.0284
59177SOL    HW189256   8.948   0.489   4.991 -1.2449 -0.2981  0.9570
59177SOL    HW289257   9.050   0.385   5.034 -2.4121 -1.0884  1.8871
59178SOL     OW89258   5.371   6.868   6.336 -0.0712 -0.2220 -0.0923
59178SOL    HW189259   5.368   6.794   6.275 -0.4676 -0.8511  0.6716
59178SOL    HW289260   5.400   6.830   6.418 -0.7920  0.3728  0.4482
59179SOL     OW89261   5.351  12.191   0.478  0.3589 -0.2856 -0.2244
59179SOL    HW189262   5.433  12.225   0.515  1.1914 -1.1311 -1.2089
59179SOL    HW289263   5.338  12.243   0.399 -1.1222  1.1500  0.8955
59180SOL     OW89264   8.577   4.129   5.049  0.3096 -0.2847 -0.7662
59180SOL    HW189265   8.644   4.068   5.080 -0.2298 -0.1739  0.7111
59180SOL    HW289266   8.625   4.211   5.035  0.2303  0.3901  2.2773
59181SOL     OW89267   3.147   1.789   6.273  0.2724 -0.2682 -0.5743
59181SOL    HW189268   3.059   1.759   6.247  0.7390  0.7248 -3.7525
59181SOL    HW289269   3.193   1.709   6.297 -0.7217 -1.1547 -1.4914
59182SOL     OW89270  11.000   5.277   2.948  0.2442 -0.4696 -0.2915
59182SOL    HW189271  10.912   5.267   2.910  1.2812  0.3296 -3.1473
59182SOL    HW289272  11.012   5.372   2.956 -0.1801 -0.5705  2.9673
59183SOL     OW89273   4.837   7.357   7.775 -0.8032 -0.6983  0.1590
59183SOL    HW189274   4.875   7.288   7.830  1.2555  0.0760 -0.2227
59183SOL    HW289275   4.897   7.431   7.783 -2.5078  0.8071 -0.1032
59184SOL     OW89276   9.545  12.124   5.038  0.0153 -0.2627 -0.1838
59184SOL    HW189277   9.495  12.097   4.961 -1.2118 -0.9918  0.8212
59184SOL    HW289278   9.513  12.213   5.057  0.0301 -0.2386 -0.2723
59185SOL     OW89279   6.512  13.329   2.102  0.1631  0.1664 -0.3563
59185SOL    HW189280   6.516  13.419   2.135  0.5741  0.0351 -0.0323
59185SOL    HW289281   6.453  13.284   2.163 -0.6854  0.3973 -0.9807
59186SOL     OW89282   8.906   7.581   7.232  0.4843  0.6034  0.6273
59186SOL    HW189283   8.880   7.665   7.193 -0.7666 -0.2058 -0.3871
59186SOL    HW289284   8.996   7.568   7.203 -0.3165  0.1591 -1.9198
59187SOL     OW89285  11.710   7.825  12.130  0.4491  0.1928  0.2587
59187SOL    HW189286  11.658   7.753  12.094  1.3307  0.1963 -1.0632
59187SOL    HW289287  11.766   7.783  12.196 -1.4788  0.2597  2.0709
59188SOL     OW89288   9.906  11.074   4.121 -0.6263 -0.0635  0.4094
59188SOL    HW189289   9.890  11.044   4.031 -0.8670 -0.4450  0.5783
59188SOL    HW289290   9.990  11.035   4.144 -0.2552  0.5425  0.1361
59189SOL     OW89291   8.323  11.336   2.467 -0.2783 -0.1790 -0.4328
59189SOL    HW189292   8.290  11.381   2.544  0.2159 -1.8507  0.7943
59189SOL    HW289293   8.418  11.349   2.470 -0.2724 -0.0628 -0.9045
59190SOL     OW89294   7.666   8.112   0.057  0.1439 -0.0783  0.0848
59190SOL    HW189295   7.674   8.028   0.011 -0.6818  0.7345 -1.6240
59190SOL    HW289296   7.741   8.114   0.116  1.9441 -0.6941 -2.0489
59191SOL     OW89297   8.196   8.557   9.428 -0.1271  0.2520  0.4448
59191SOL    HW189298   8.261   8.527   9.365 -0.6828 -2.6056  1.0824
59191SOL    HW289299   8.187   8.484   9.489 -2.5603  1.2919  1.4472
59192SOL     OW89300   5.708   8.100   0.922  0.1309  0.2423 -0.2221
59192SOL    HW189301   5.715   8.142   1.008  0.0520 -1.5454  0.7062
59192SOL    HW289302   5.773   8.029   0.924 -1.3476 -1.2105 -0.7747
59193SOL     OW89303   2.086   3.630   5.194 -0.7216  0.4069  0.0193
59193SOL    HW189304   2.115   3.599   5.108 -1.5973  1.1241 -0.5449
59193SOL    HW289305   2.159   3.684   5.225 -1.3324  2.1284 -1.3569
59194SOL     OW89306   0.969  11.248   2.773 -0.0118 -1.1765 -0.4732
59194SOL    HW189307   0.882  11.288   2.779 -0.0727 -1.2965 -0.5382
59194SOL    HW289308   1.012  11.295   2.702 -0.0038 -1.0797 -0.4046
59195SOL     OW89309   2.284   1.705   3.032 -0.3804 -0.3005 -0.2028
59195SOL    HW189310   2.354   1.765   3.004 -0.6564 -0.5864 -1.5685
59195SOL    HW289311   2.238   1.683   2.951  0.4937 -3.3723  0.0165
59196SOL     OW89312  13.514   9.137   8.513 -0.0398  0.4229 -0.4440
59196SOL    HW189313  13.537   9.113   8.423  0.5545  0.2845 -0.2609
59196SOL    HW289314  13.441   9.078   8.535  0.4131 -0.1766 -0.5224
59197SOL     OW89315   2.047  11.352  11.532  0.0200  0.1566  0.1027
59197SOL    HW189316   1.966  11.304  11.546 -0.0954  0.0270 -0.9137
59197SOL    HW289317   2.112  11.306  11.586 -0.1628 -0.9537 -0.5855
59198SOL     OW89318   2.339   3.590  10.266 -0.2764  0.1180 -0.2175
59198SOL    HW189319   2.431   3.617  10.263  0.0481 -0.9852 -1.9917
59198SOL    HW289320   2.331   3.527  10.195 -2.2438 -0.3903  0.3995
59199SOL     OW89321   1.749  11.004  11.787  0.1472 -0.3104 -0.1603
59199SOL    HW189322   1.794  10.926  11.820 -0.4144 -0.4746  0.2292
59199SOL    HW289323   1.731  11.055  11.866 -0.0697 -0.0959 -0.3488
59200SOL     OW89324   7.230   3.916   4.625  0.4234  0.1342 -0.1002
59200SOL    HW189325   7.219   3.822   4.636  1.2144  0.1857  1.3850
59200SOL    HW289326   7.176   3.938   4.549  0.1519 -1.4907 -0.4093
59201SOL     OW89327  13.049  11.935   2.563 -0.1078 -0.2574  0.2081
59201SOL    HW189328  13.074  11.842   2.569 -0.9786 -0.5670 -0.5887
59201SOL    HW289329  13.127  11.979   2.531  1.0624 -0.3122  2.7554
59202SOL     OW89330   7.972   8.765   0.199  0.0304  0.3309 -0.1138
59202SOL    HW189331   7.993   8.837   0.258  1.1046 -0.9234  1.0921
59202SOL    HW289332   8.054   8.745   0.155 -0.4792  0.4326 -1.1541
59203SOL     OW89333   4.475  13.707  12.315  0.0243  0.0355  0.3508
59203SOL    HW189334   4.466  13.616  12.344  0.8342 -0.7159 -1.6045
59203SOL    HW289335   4.385  13.740  12.314 -0.3972 -1.0762  0.1109
59204SOL     OW89336  10.718   2.102   4.198  0.7894 -0.7900  0.1181
59204SOL    HW189337  10.791   2.113   4.259 -0.0297 -2.2450  1.4621
59204SOL    HW289338  10.757   2.063   4.120  1.5161 -1.1866  0.6663
59205SOL     OW89339  10.035   1.084  12.678 -0.1407 -0.0544  0.5527
59205SOL    HW189340   9.963   1.145  12.663  0.7765  1.2130  1.0444
59205SOL    HW289341  10.099   1.135  12.729  1.2675 -0.9866 -0.2012
59206SOL     OW89342   1.897   3.763   5.074 -0.2068 -0.3111 -0.4161
59206SOL    HW189343   1.959   3.712   5.126 -1.3355 -1.1207  0.1763
59206SOL    HW289344   1.859   3.825   5.136 -1.0844 -0.8445 -0.3998
59207SOL     OW89345   6.206  10.923   8.101  0.6070 -0.0742  0.0477
59207SOL    HW189346   6.163  10.876   8.030 -0.9982  1.2393  0.1080
59207SOL    HW289347   6.152  10.904   8.178  0.2035  1.4338  0.1666
59208SOL     OW89348   4.658   0.633  10.157 -0.6849 -0.3028  0.0544
59208SOL    HW189349   4.679   0.638  10.251 -0.1475  1.3154 -0.1208
59208SOL    HW289350   4.572   0.593  10.154  0.2462 -2.5645  1.0868
59209SOL     OW89351  10.356   6.918   5.745 -0.2373  0.1825  1.1298
59209SOL    HW189352  10.389   6.970   5.672  0.5831 -2.4591 -0.4963
59209SOL    HW289353  10.383   6.967   5.823  0.1616  2.3292 -0.2678
59210SOL     OW89354  10.864   9.999   0.276 -1.0738 -0.1275 -0.0789
59210SOL    HW189355  10.934   9.938   0.298 -1.8279 -0.9337  0.1217
59210SOL    HW289356  10.861  10.000   0.181  0.9163  1.9057 -0.2296
59211SOL     OW89357  13.501   1.433  13.637  0.0164 -0.4014  0.1860
59211SOL    HW189358  13.560   1.507  13.651 -0.6900  0.4535 -1.0883
59211SOL    HW289359  13.540   1.384  13.564  0.2094 -1.0011  0.6841
59212SOL     OW89360   8.127   8.567   1.363  0.3763  0.0412 -0.6131
59212SOL    HW189361   8.048   8.531   1.402  0.9805 -1.2750 -0.5455
59212SOL    HW289362   8.134   8.655   1.401  0.1472 -0.6461  1.1397
59213SOL     OW89363  12.983  13.648  13.138 -0.3638  0.9741  0.6992
59213SOL    HW189364  12.944  13.595  13.069  1.5986  0.0179  0.2447
59213SOL    HW289365  12.924  13.637  13.213 -1.0424 -0.2752  0.0169
59214SOL     OW89366   3.297   0.133  12.393 -0.5521 -0.0933  0.5097
59214SOL    HW189367   3.218   0.089  12.361 -0.1710 -0.7624  0.4934
59214SOL    HW289368   3.284   0.138  12.488  0.0156 -1.4746  0.6791
59215SOL     OW89369   5.832   9.846   9.396  0.2758  0.1097  0.1050
59215SOL    HW189370   5.889   9.770   9.402 -1.1708 -0.9461  1.0472
59215SOL    HW289371   5.892   9.921   9.397  1.6528 -0.9532  1.0145
59216SOL     OW89372   0.559  12.296   3.773 -0.2356 -0.5644  0.7706
59216SOL    HW189373   0.467  12.297   3.747 -0.6706  4.3126  1.6374
59216SOL    HW289374   0.558  12.265   3.864 -1.3298  1.0501  1.3430
59217SOL     OW89375   9.329   2.616   2.536 -0.0375  0.4593  0.3330
59217SOL    HW189376   9.370   2.678   2.476  1.0477 -0.3650  0.1833
59217SOL    HW289377   9.235   2.624   2.520  0.1805  1.0262 -0.6972
59218SOL     OW89378  10.883  11.334   1.517 -0.4866  0.0635 -0.2580
59218SOL    HW189379  10.822  11.366   1.451  0.9632 -0.1298 -1.7508
59218SOL    HW289380  10.859  11.242   1.529  0.2254 -0.3389 -1.7269
59219SOL     OW89381  10.650   1.173  11.963 -0.0897  0.7536 -0.4714
59219SOL    HW189382  10.730   1.183  12.014  1.0437 -0.9692 -1.8358
59219SOL    HW289383  10.634   1.260  11.926  1.8779  0.8309 -1.2145
59220SOL     OW89384   7.126  13.432   5.633 -0.1016 -0.1259  0.0281
59220SOL    HW189385   7.036  13.462   5.629 -0.4033 -1.0058 -0.0336
59220SOL    HW289386   7.120  13.337   5.630  0.8506 -0.1889 -0.4342
59221SOL     OW89387   1.451  11.937   4.962 -0.0088  0.1784  0.2255
59221SOL    HW189388   1.406  11.856   4.987  0.8906 -0.6009 -0.5928
59221SOL    HW289389   1.507  11.912   4.888 -0.8027  1.8471 -1.0386
59222SOL     OW89390   2.375   6.523   8.968 -0.0381 -0.2989 -0.3348
59222SOL    HW189391   2.387   6.613   8.938  1.3095 -0.1271  0.6150
59222SOL    HW289392   2.362   6.531   9.063 -0.0337 -1.0959 -0.2588
59223SOL     OW89393   4.331   4.693  10.792 -0.7478 -0.7031 -0.0571
59223SOL    HW189394   4.389   4.679  10.867  0.3909  0.5552 -0.6554
59223SOL    HW289395   4.389   4.687  10.716 -1.6844 -0.8557 -0.7783
59224SOL     OW89396   4.163   8.204   4.365  0.1705  0.7716  0.5288
59224SOL    HW189397   4.228   8.185   4.297 -1.9534  0.2762 -1.5160
59224SOL    HW289398   4.143   8.119   4.403 -0.7927  0.5652 -0.3780
59225SOL     OW89399  13.558   6.868   2.864 -0.0826 -0.1766 -0.4855
59225SOL    HW189400  13.649   6.839   2.859  0.9917  2.8989 -0.5445
59225SOL    HW289401  13.559   6.941   2.925 -2.6688 -0.4085 -0.0465
59226SOL     OW89402   1.846   8.300   3.277  0.1718 -0.4092  0.1153
59226SOL    HW189403   1.939   8.319   3.286  0.3530 -0.8717 -0.6808
59226SOL    HW289404   1.839   8.205   3.281 -0.4177 -0.3376  1.3448
59227SOL     OW89405  10.112   3.076   9.413  0.0047  0.0842  0.2279
59227SOL    HW189406  10.078   3.084   9.324  0.9860 -0.4661 -0.2157
59227SOL    HW289407  10.034   3.072   9.469 -0.6401 -0.7808 -0.7141
59228SOL     OW89408   8.020  10.388   9.406  0.2135 -0.1834  0.3182
59228SOL    HW189409   8.001  10.479   9.428 -2.3060 -0.8409  1.1882
59228SOL    HW289410   8.104  10.391   9.360 -0.7061  2.8171 -1.4120
59229SOL     OW89411   5.016   1.915   0.097 -0.0266 -0.1989 -0.1312
59229SOL    HW189412   4.965   1.918   0.016 -0.4888  0.0016  0.1589
59229SOL    HW289413   5.013   1.823   0.124 -1.7087  0.0681  0.7757
59230SOL     OW89414  10.762  13.225   6.522  0.6510 -0.0006  0.3705
59230SOL    HW189415  10.817  13.293   6.484  0.1939 -0.8114 -1.9096
59230SOL    HW289416  10.816  13.185   6.590  1.6419  1.3327  0.4016
59231SOL     OW89417  11.804  12.702   8.183 -0.0974 -0.8334  0.0164
59231SOL    HW189418  11.877  12.672   8.128  0.5522  1.4165 -0.4257
59231SOL    HW289419  11.737  12.730   8.121  0.3692  1.0798  0.3300
59232SOL     OW89420   5.681   3.728   6.885 -0.2431 -0.2798 -0.7032
59232SOL    HW189421   5.706   3.635   6.890  0.0467 -0.1766 -0.1803
59232SOL    HW289422   5.764   3.775   6.888 -0.4903  0.1053  1.9931
59233SOL     OW89423   5.961  10.148   7.329  0.0051  0.2344  0.2643
59233SOL    HW189424   6.030  10.190   7.381  0.7929 -1.3268  0.5428
59233SOL    HW289425   5.906  10.103   7.394 -0.3141  0.1209 -0.0806
59234SOL     OW89426  12.538   9.624   8.754  0.2734 -0.4811  0.2531
59234SOL    HW189427  12.567   9.590   8.669  0.9958  4.3231 -1.7545
59234SOL    HW289428  12.613   9.672   8.787 -1.0436  0.4387  2.0620
59235SOL     OW89429  13.113  10.729   9.638  0.3252 -0.4444  0.0442
59235SOL    HW189430  13.116  10.740   9.733  3.2033  1.6479 -0.1405
59235SOL    HW289431  13.111  10.634   9.625  1.0967 -0.8106  2.2064
59236SOL     OW89432   6.181   4.216   7.639  0.0396  0.0114 -0.6121
59236SOL    HW189433   6.199   4.224   7.733  0.3453 -1.1431 -0.5565
59236SOL    HW289434   6.162   4.123   7.626 -1.0844  0.3477 -1.5148
59237SOL     OW89435   9.839   1.227   1.654  0.4299 -0.4390 -0.1490
59237SOL    HW189436   9.766   1.166   1.642  1.3676 -1.5686 -0.3526
59237SOL    HW289437   9.907   1.194   1.595  0.9898  0.7852 -0.2112
59238SOL     OW89438   0.208  10.368   7.224 -0.1989  0.0974  0.2367
59238SOL    HW189439   0.192  10.274   7.219  0.6556 -0.0861  0.7121
59238SOL    HW289440   0.278  10.376   7.288  0.9205  0.9206 -1.0543
59239SOL     OW89441   7.383   8.214   5.487 -0.3570 -0.6115  0.7674
59239SOL    HW189442   7.473   8.202   5.517 -0.5782 -0.0520  1.7116
59239SOL    HW289443   7.367   8.141   5.427  2.0126  1.3837 -2.6147
59240SOL     OW89444   4.107   9.382   1.594 -0.0606 -0.3936 -0.1415
59240SOL    HW189445   4.107   9.308   1.533 -0.0416 -1.9703  1.6814
59240SOL    HW289446   4.181   9.366   1.652  1.6214  2.5238 -1.2771
59241SOL     OW89447   7.886   9.712   3.271  0.1779  0.1857 -0.4369
59241SOL    HW189448   7.928   9.793   3.241  0.8722  0.1051  0.2515
59241SOL    HW289449   7.868   9.663   3.192  0.9937  0.4319 -0.7844
59242SOL     OW89450   7.452  10.139  13.373 -0.1224  0.2122 -0.6374
59242SOL    HW189451   7.426  10.229  13.390 -0.0182  0.1095  0.0869
59242SOL    HW289452   7.420  10.121  13.285 -2.3321  0.1668  0.1185
59243SOL     OW89453   5.397   9.053   6.864 -0.6078  0.5033  0.0212
59243SOL    HW189454   5.483   9.058   6.906 -1.5642 -0.5917  2.2679
59243SOL    HW289455   5.400   8.972   6.813 -0.2118  0.6262 -0.1559
59244SOL     OW89456   0.273   9.877  11.491  0.3072  0.4469 -0.2404
59244SOL    HW189457   0.254   9.790  11.454 -1.2333  1.0752 -1.0296
59244SOL    HW289458   0.306   9.928  11.417 -0.3591  0.9948 -0.1664
59245SOL     OW89459   3.683   2.002  12.520 -0.1370  0.3773  0.1131
59245SOL    HW189460   3.763   2.047  12.547  0.0325  0.2999 -0.2535
59245SOL    HW289461   3.708   1.952  12.443 -0.7859  1.1814 -0.6448
59246SOL     OW89462  12.090   4.797  12.370 -0.1204 -0.1930  0.5841
59246SOL    HW189463  12.162   4.838  12.322 -0.4648  0.8904  0.9728
59246SOL    HW289464  12.014   4.805  12.313 -0.7823  2.0461  1.6607
59247SOL     OW89465  11.516   4.865  12.781 -0.1984 -0.1793 -0.3703
59247SOL    HW189466  11.503   4.906  12.867  1.2174  0.6860 -0.5473
59247SOL    HW289467  11.552   4.779  12.801 -0.7798 -0.3650 -0.0818
59248SOL     OW89468  10.298   3.021  12.766 -0.3428 -0.2762 -0.4553
59248SOL    HW189469  10.336   3.109  12.770 -0.5087 -0.0768 -2.3468
59248SOL    HW289470  10.372   2.962  12.769 -0.2157 -0.0840  0.6043
59249SOL     OW89471   4.143   6.280   3.921 -0.3915 -0.0149 -0.5417
59249SOL    HW189472   4.222   6.239   3.886 -0.0587  0.2746 -0.1525
59249SOL    HW289473   4.176   6.354   3.973 -0.8553 -0.5105  0.4820
59250SOL     OW89474  10.226   7.076   4.585 -0.4669  0.1060 -0.2266
59250SOL    HW189475  10.317   7.074   4.557 -0.2645 -1.9903  0.4192
59250SOL    HW289476  10.191   6.990   4.560 -1.7049  0.1392  1.2554
59251SOL     OW89477   6.071   5.727   7.818 -0.4947  0.0836  0.0706
59251SOL    HW189478   6.146   5.717   7.760  0.3418  0.1119  1.1202
59251SOL    HW289479   6.059   5.641   7.858 -0.8928  0.1347  0.0684
59252SOL     OW89480   5.443   7.179   5.429  0.4757 -0.1785 -0.1009
59252SOL    HW189481   5.397   7.242   5.484  0.9350  0.8575 -0.8631
59252SOL    HW289482   5.478   7.114   5.490 -0.7598 -0.2047  0.6228
59253SOL     OW89483  12.242   8.520  12.163 -0.1903  0.2271  0.1880
59253SOL    HW189484  12.194   8.440  12.145  0.4372  0.1359 -1.2149
59253SOL    HW289485  12.296   8.499  12.239 -0.3034 -0.5576  0.0603
59254SOL     OW89486  11.222   4.590   3.618  0.0448 -0.0364 -0.2415
59254SOL    HW189487  11.247   4.574   3.709 -0.3162  0.0208 -0.1313
59254SOL    HW289488  11.279   4.532   3.567 -0.0376 -0.3766  0.0494
59255SOL     OW89489   4.740   2.331   5.760 -0.2123 -0.4382 -0.0333
59255SOL    HW189490   4.673   2.367   5.818  0.9051  0.5197  0.7075
59255SOL    HW289491   4.811   2.395   5.762  0.1699 -0.7521 -1.8932
59256SOL     OW89492  11.187  10.961  13.380 -0.5112  0.0846  0.5377
59256SOL    HW189493  11.237  10.917  13.449 -0.3338  0.9636  0.9926
59256SOL    HW289494  11.247  10.967  13.306 -0.0623  0.7860  0.9495
59257SOL     OW89495   7.717   6.131   6.089 -0.1523  0.3006 -0.4507
59257SOL    HW189496   7.721   6.093   6.177 -1.2679 -0.2730 -0.6401
59257SOL    HW289497   7.800   6.179   6.081  0.4522 -0.5253  0.5021
59258SOL     OW89498   1.894  12.488   4.845 -0.0278 -0.1076  0.1044
59258SOL    HW189499   1.980  12.514   4.813  0.2127 -1.6943 -0.6272
59258SOL    HW289500   1.849  12.571   4.861  2.2773  0.8677  2.4194
59259SOL     OW89501  13.411   5.781   2.365 -0.2520  0.1862  0.6077
59259SOL    HW189502  13.399   5.857   2.308  0.3203 -1.1224 -1.3506
59259SOL    HW289503  13.464   5.814   2.438 -0.1656  1.6920 -0.1050
59260SOL     OW89504   2.808  11.918   0.845  0.2647 -0.0382  0.2268
59260SOL    HW189505   2.796  11.886   0.934  0.5015 -0.5534  0.0770
59260SOL    HW289506   2.868  11.992   0.853  1.5520 -1.0749  0.3153
59261SOL     OW89507  11.990   5.096   7.616 -0.5113 -0.0916 -0.2332
59261SOL    HW189508  12.017   5.023   7.560  0.4666 -0.5281  0.7794
59261SOL    HW289509  12.050   5.093   7.691 -0.9222  1.3087  0.1874
59262SOL     OW89510   7.663   3.607  13.066  0.0272 -0.3250 -0.1763
59262SOL    HW189511   7.689   3.642  13.152  0.3172 -0.6337 -0.1389
59262SOL    HW289512   7.588   3.551  13.085 -1.7329  1.7959 -0.4720
59263SOL     OW89513   0.275   2.365  11.931  0.9536 -0.0758  0.1499
59263SOL    HW189514   0.288   2.458  11.913 -0.0435  0.0777  0.1523
59263SOL    HW289515   0.244   2.362  12.021 -0.9930 -0.1937 -0.4597
59264SOL     OW89516   6.968   0.533  12.356  0.5350  0.2533 -0.6710
59264SOL    HW189517   6.895   0.573  12.310 -1.4368 -0.9839  1.2077
59264SOL    HW289518   6.939   0.444  12.375  2.4366 -0.2083  0.3351
59265SOL     OW89519   5.579  10.712  10.908 -0.1396  0.3067  0.3382
59265SOL    HW189520   5.594  10.631  10.956  0.7231  0.4789  0.3663
59265SOL    HW289521   5.483  10.721  10.906 -0.2263 -0.4511  0.7571
59266SOL     OW89522  13.681   6.922   9.434  1.2440 -0.5196  0.4644
59266SOL    HW189523  13.698   6.828   9.438 -1.4858 -1.0532  1.4767
59266SOL    HW289524  13.660   6.946   9.524  2.1452  1.1499  0.2662
59267SOL     OW89525   3.456  13.119   9.346  0.5225 -0.7645 -0.4846
59267SOL    HW189526   3.500  13.187   9.396  0.4200 -0.5765 -0.6504
59267SOL    HW289527   3.386  13.164   9.299  0.2721 -1.0315 -0.3712
59268SOL     OW89528  11.993   1.612  10.160  0.2804  0.0746  0.6374
59268SOL    HW189529  12.044   1.681  10.118  1.0098 -0.6942  0.2079
59268SOL    HW289530  12.055   1.539  10.168 -0.3379 -0.3696  1.5069
59269SOL     OW89531  10.925   8.911   4.291  0.1204  0.2808 -0.4374
59269SOL    HW189532  10.838   8.900   4.252 -0.6762  0.3247  1.2237
59269SOL    HW289533  10.985   8.877   4.226 -0.9688  1.9273 -2.4079
59270SOL     OW89534   7.224   2.747   4.794  0.3376 -0.5357 -1.0559
59270SOL    HW189535   7.161   2.769   4.863  0.5064 -1.2267 -0.6698
59270SOL    HW289536   7.309   2.760   4.835  0.4465 -1.9091 -0.7940
59271SOL     OW89537  10.075  11.448   0.848 -0.0282  0.0345 -0.0221
59271SOL    HW189538  10.042  11.426   0.760 -0.6118 -1.4667  0.5367
59271SOL    HW289539  10.170  11.445   0.839  0.0072  2.4002 -1.1747
59272SOL     OW89540  12.885   3.280   1.234 -0.0562  0.8804 -0.2111
59272SOL    HW189541  12.970   3.247   1.206 -0.4543  0.6626 -1.1937
59272SOL    HW289542  12.821   3.220   1.196 -0.7201  1.8956 -0.7576
59273SOL     OW89543  12.856   9.685  10.424 -0.4825 -0.3527 -0.1283
59273SOL    HW189544  12.848   9.780  10.419 -0.2131  0.1387  4.3780
59273SOL    HW289545  12.767   9.653  10.436 -0.4664 -0.5743 -0.5715
59274SOL     OW89546   0.397   9.957   9.190 -0.0868  0.0040  0.4791
59274SOL    HW189547   0.360  10.025   9.134 -1.0444 -0.9779 -0.1208
59274SOL    HW289548   0.437  10.005   9.262 -0.6316  1.2042  0.0153
59275SOL     OW89549   8.162   5.851   1.335  0.1005 -0.3587  0.3762
59275SOL    HW189550   8.253   5.860   1.365 -0.0198  1.8509  0.2220
59275SOL    HW289551   8.154   5.758   1.312  2.8092 -0.3559 -1.0700
59276SOL     OW89552  10.666   2.394  11.351 -0.3262  0.4447 -0.0521
59276SOL    HW189553  10.723   2.433  11.417  0.8473 -0.8066 -0.2847
59276SOL    HW289554  10.592   2.360  11.400  1.6536 -2.6322  1.0581
59277SOL     OW89555  12.150   7.915   3.962  0.1432 -0.3263 -0.3944
59277SOL    HW189556  12.217   7.909   4.030 -0.4422 -1.1783  0.1284
59277SOL    HW289557  12.090   7.982   3.995  0.6087  0.2692 -0.7505
59278SOL     OW89558   9.221  10.414   6.037  0.1090 -0.5329  0.4235
59278SOL    HW189559   9.128  10.403   6.017  0.3226 -0.3353 -0.7523
59278SOL    HW289560   9.262  10.333   6.009  0.3887 -0.3415  0.2706
59279SOL     OW89561  10.286   8.174   4.358 -0.2754 -0.0740 -0.0870
59279SOL    HW189562  10.197   8.141   4.365 -0.4692  0.6881  1.2436
59279SOL    HW289563  10.285   8.259   4.403  0.3534  1.5095 -2.7954
59280SOL     OW89564   4.193  11.589   6.170  0.1156 -0.3454 -0.7367
59280SOL    HW189565   4.230  11.662   6.121  0.2052  0.5243  0.5776
59280SOL    HW289566   4.113  11.624   6.208  0.5959 -0.6663  0.6059
59281SOL     OW89567   7.532  12.882   4.717 -0.5165  0.0756  0.4055
59281SOL    HW189568   7.595  12.921   4.657  0.1597  1.4521  1.9365
59281SOL    HW289569   7.447  12.913   4.687 -0.2815 -0.0387 -0.3896
59282SOL     OW89570   1.523   1.287   1.104 -0.0870 -0.2864  0.3439
59282SOL    HW189571   1.456   1.329   1.157  1.6046  2.5732  0.4462
59282SOL    HW289572   1.577   1.239   1.167 -2.3500 -3.3426  0.1642
59283SOL     OW89573  11.837   1.628   0.007 -0.2919  0.7623  0.0382
59283SOL    HW189574  11.799   1.639  -0.080 -0.4513 -0.9564 -0.1553
59283SOL    HW289575  11.932   1.626  -0.008 -0.2217  2.3118  0.1654
59284SOL     OW89576  11.858   5.471  12.423  0.2805  0.1656 -0.3273
59284SOL    HW189577  11.807   5.460  12.503  2.3949  0.1355  1.1055
59284SOL    HW289578  11.818   5.411  12.360 -0.4527 -1.0604  1.2381
59285SOL     OW89579   4.961  11.058  12.397 -0.0621  0.2950 -0.2527
59285SOL    HW189580   4.977  11.115  12.322 -0.3900  1.9305  0.8563
59285SOL    HW289581   4.891  10.999  12.368  0.2018  0.5325 -1.4053
59286SOL     OW89582  10.612   4.141   3.049 -0.0920  0.4179 -0.1917
59286SOL    HW189583  10.531   4.112   3.006  1.3388 -0.8486 -2.1431
59286SOL    HW289584  10.619   4.084   3.126 -0.1019 -0.8174 -1.0688
59287SOL     OW89585   3.436   2.467   8.072  0.3965 -0.1584 -0.5164
59287SOL    HW189586   3.510   2.422   8.031  0.7256 -0.4578  0.3657
59287SOL    HW289587   3.421   2.419   8.153 -0.8455 -0.1615 -0.7327
59288SOL     OW89588   0.193   6.708  11.827 -0.4447 -0.0508 -0.4061
59288SOL    HW189589   0.277   6.688  11.787  0.3937 -3.2512  2.5549
59288SOL    HW289590   0.129   6.658  11.776  0.4382 -3.0208  1.1855
59289SOL     OW89591  10.445   9.012   8.200  0.6768 -0.2570  0.5208
59289SOL    HW189592  10.420   9.100   8.229  0.3801 -0.3127  0.4390
59289SOL    HW289593  10.391   8.953   8.253 -2.4737 -0.3252 -2.4125
59290SOL     OW89594  11.062   4.822   3.985  0.3219 -0.2558 -0.7737
59290SOL    HW189595  11.080   4.908   4.023 -2.3964  1.4511 -2.9088
59290SOL    HW289596  11.028   4.770   4.057 -0.4462  1.3477  0.0792
59291SOL     OW89597   9.541  12.920   9.793 -0.5283 -0.4957  0.2014
59291SOL    HW189598   9.501  12.852   9.848 -1.3708  0.4560  0.7816
59291SOL    HW289599   9.511  12.899   9.704  1.1506 -2.2719 -0.0228
59292SOL     OW89600   6.960   2.880   1.555 -0.0013 -0.2651  0.0786
59292SOL    HW189601   7.043   2.831   1.556  0.8892  1.1572  1.7837
59292SOL    HW289602   6.939   2.890   1.463  2.0544 -0.1516 -0.4279
59293SOL     OW89603   4.231   9.143  12.384 -0.0545 -0.4241  1.2224
59293SOL    HW189604   4.139   9.169  12.389 -0.1554 -0.2064 -0.6976
59293SOL    HW289605   4.240   9.104  12.297  2.0378  1.1532  0.6377
59294SOL     OW89606  13.313  11.891  10.734 -0.0675 -0.0979  0.0986
59294SOL    HW189607  13.302  11.807  10.690 -1.0748  1.1858 -2.2859
59294SOL    HW289608  13.226  11.911  10.768  0.7174 -1.1367  3.0317
59295SOL     OW89609  13.278   0.980   2.695 -0.0491 -0.3926  0.1153
59295SOL    HW189610  13.248   1.063   2.659  1.8406  0.2115 -0.1670
59295SOL    HW289611  13.357   0.959   2.645  0.0012 -1.9179  0.7768
59296SOL     OW89612   6.588   1.839  12.900  0.2766 -0.1646 -0.2435
59296SOL    HW189613   6.633   1.873  12.977  0.9512  1.1328 -1.1701
59296SOL    HW289614   6.525   1.907  12.877 -0.2997 -0.7827 -0.5276
59297SOL     OW89615   6.153   9.785   8.297  0.1538  0.2181  0.2825
59297SOL    HW189616   6.230   9.753   8.251 -0.0376 -0.5618  0.4876
59297SOL    HW289617   6.183   9.861   8.346  0.7715 -0.0365  0.3005
59298SOL     OW89618   5.258  13.148   9.321  0.1089 -0.0090  0.3671
59298SOL    HW189619   5.249  13.181   9.410  2.5192 -0.8556  0.9968
59298SOL    HW289620   5.238  13.224   9.265 -2.0876  0.3618  1.5448
59299SOL     OW89621   8.844   2.074  11.291  0.3876 -0.4070  0.0016
59299SOL    HW189622   8.929   2.112  11.268 -0.3888  0.7083 -1.1653
59299SOL    HW289623   8.796   2.071  11.209 -1.8277  1.9029  1.1023
59300SOL     OW89624  12.645   4.998   7.140 -0.1078  0.4785  0.0725
59300SOL    HW189625  12.686   4.953   7.065  0.3506 -0.9150  1.1170
59300SOL    HW289626  12.718   5.027   7.193 -0.4339  1.5240 -0.0338
59301SOL     OW89627   5.306   1.804   3.898  0.0099  0.3141 -0.0463
59301SOL    HW189628   5.364   1.858   3.844 -0.7528  1.0374 -0.1591
59301SOL    HW289629   5.327   1.714   3.874 -0.3541  0.6234 -1.5872
59302SOL     OW89630   1.363   5.022   5.822 -0.1463 -0.6152 -0.4061
59302SOL    HW189631   1.282   5.024   5.873  0.7164 -0.1934  1.0008
59302SOL    HW289632   1.341   5.067   5.740 -0.8104  1.3694  0.7906
59303SOL     OW89633   7.883   2.694   2.680 -0.1265 -0.2854  0.2642
59303SOL    HW189634   7.949   2.750   2.639 -0.0675 -1.5928 -1.5673
59303SOL    HW289635   7.829   2.664   2.607 -1.3323 -1.0717  1.4440
59304SOL     OW89636   6.002   9.852   6.479  0.3933  0.0123  0.2846
59304SOL    HW189637   5.955   9.897   6.549  1.1701 -0.6797  1.2919
59304SOL    HW289638   6.061   9.919   6.444 -1.0880  0.7944 -0.7865
59305SOL     OW89639   5.592   5.605  12.034 -0.2096  0.4752 -0.0729
59305SOL    HW189640   5.579   5.525  12.085  1.1833 -0.8175 -1.6305
59305SOL    HW289641   5.579   5.578  11.943  0.6736  1.9173 -0.6661
59306SOL     OW89642   1.918   5.399  13.208 -0.1022  0.7654  0.1523
59306SOL    HW189643   1.993   5.357  13.249 -0.2916 -0.6229 -0.8662
59306SOL    HW289644   1.862   5.326  13.180  0.3966  1.5356 -3.3115
59307SOL     OW89645   7.259   9.422   2.690  0.0320  0.5268 -0.1672
59307SOL    HW189646   7.197   9.426   2.617  0.1741  0.0641 -0.3206
59307SOL    HW289647   7.219   9.474   2.759  0.1768  1.4833 -0.7876
59308SOL     OW89648   1.237   3.097  10.427  0.5398  0.1253  0.4288
59308SOL    HW189649   1.206   3.166  10.369 -1.0674 -0.2158  0.8422
59308SOL    HW289650   1.237   3.018  10.373  1.8064  0.3014  0.1250
59309SOL     OW89651   6.342  13.144  10.993 -0.1039 -0.4640  0.2950
59309SOL    HW189652   6.362  13.217  11.052 -0.8229 -0.9119  1.1402
59309SOL    HW289653   6.280  13.180  10.930 -2.0280 -0.7470  1.8859
59310SOL     OW89654   2.787   8.209   4.943 -0.7715  0.0566 -0.5301
59310SOL    HW189655   2.703   8.254   4.955  0.5758  2.8912 -0.8294
59310SOL    HW289656   2.848   8.278   4.917  1.5543 -1.9902 -0.9478
59311SOL     OW89657   1.242   6.973  11.499  0.1214  0.3411 -0.1910
59311SOL    HW189658   1.249   7.037  11.429  1.1097  0.9307  0.4299
59311SOL    HW289659   1.194   7.018  11.569  0.1394  0.1400 -0.0465
59312SOL     OW89660  13.654  13.352  13.653  0.6251  0.3841  0.3375
59312SOL    HW189661  13.682  13.271  13.610  0.3604  0.0908  0.7010
59312SOL    HW289662  13.687  13.422  13.597  0.3532  0.0153 -0.3029
59313SOL     OW89663   6.485   8.961   9.308 -0.1847  0.4330  0.4418
59313SOL    HW189664   6.401   8.918   9.322 -0.5555  1.5254  1.8722
59313SOL    HW289665   6.463   9.044   9.266  0.2008  0.6090  0.5783
59314SOL     OW89666   2.975  11.581   6.359 -0.3498  0.2300  0.6309
59314SOL    HW189667   2.891  11.535   6.360 -0.4154  0.2701 -0.9562
59314SOL    HW289668   2.959  11.661   6.409 -1.2764  0.2677  0.2878
59315SOL     OW89669  13.735  11.091   6.534  0.4901  0.1561 -0.2829
59315SOL    HW189670  13.706  11.103   6.624  0.2683  2.3294 -0.5887
59315SOL    HW289671  13.663  11.042   6.492  1.4410 -2.6440  1.0856
59316SOL     OW89672   9.153   2.146  13.671  0.5734  0.0710  0.0863
59316SOL    HW189673   9.232   2.127  13.622 -0.2004  1.5055 -1.8496
59316SOL    HW289674   9.084   2.098  13.625  0.0641  0.1124  0.7845
59317SOL     OW89675   7.633   8.697   4.527  0.1737 -0.3917  0.7101
59317SOL    HW189676   7.678   8.654   4.599  1.2200  0.5420  0.6327
59317SOL    HW289677   7.563   8.748   4.569  0.7367  0.0918  1.0779
59318SOL     OW89678  12.995   4.623   3.954 -0.7700  0.3704 -0.8042
59318SOL    HW189679  13.027   4.623   3.863  1.7494  1.9994 -0.0500
59318SOL    HW289680  12.990   4.716   3.977 -0.8872 -0.0173  0.8525
59319SOL     OW89681   7.497   0.456   4.305 -0.1214 -0.1638 -0.1800
59319SOL    HW189682   7.416   0.445   4.355 -0.1574  0.2760 -0.1394
59319SOL    HW289683   7.468   0.478   4.217 -0.0776  3.0976  0.5100
59320SOL     OW89684   5.313   0.999   0.774  0.5848  0.4109  0.1393
59320SOL    HW189685   5.333   1.079   0.725  0.3822 -0.5256 -1.5445
59320SOL    HW289686   5.223   0.978   0.750  0.3806  0.0824  1.1616
59321SOL     OW89687   6.994   8.978   6.500 -0.0739 -1.1889 -0.0000
59321SOL    HW189688   7.084   8.983   6.467 -0.4288 -3.1268 -1.4684
59321SOL    HW289689   6.942   9.017   6.430 -0.4025  0.2468  0.9953
59322SOL     OW89690   3.055   1.307  13.352 -0.4650  0.1096 -0.8105
59322SOL    HW189691   3.018   1.223  13.377 -2.1335  0.4517 -1.9616
59322SOL    HW289692   3.083   1.346  13.435  1.8901 -2.1952 -0.3815
59323SOL     OW89693  11.104   9.997  10.773 -0.1873 -0.1247  0.8319
59323SOL    HW189694  11.027  10.052  10.789 -0.1414 -0.2721  1.5992
59323SOL    HW289695  11.074   9.908  10.790  0.5028 -0.0656  2.6045
59324SOL     OW89696  11.786  11.859   5.513  0.2234 -0.6341 -0.2756
59324SOL    HW189697  11.719  11.816   5.566  0.3644  1.5214  1.8738
59324SOL    HW289698  11.741  11.884   5.433 -1.4603  0.3153  0.8943
59325SOL     OW89699   1.755  12.262   3.429  0.3244 -0.2217  0.3730
59325SOL    HW189700   1.845  12.246   3.399  1.4805  0.9442  2.9463
59325SOL    HW289701   1.759  12.253   3.524 -1.8944  1.6845  0.7332
59326SOL     OW89702   4.890  10.900  12.078 -0.0979  0.9396  0.3161
59326SOL    HW189703   4.821  10.947  12.031 -0.6517  0.9635  1.1261
59326SOL    HW289704   4.855  10.889  12.167 -0.3719 -1.6985 -0.0165
59327SOL     OW89705   1.284   7.484   6.017  0.2487  0.4091  0.6613
59327SOL    HW189706   1.269   7.567   5.971 -1.2526 -0.6798 -0.9716
59327SOL    HW289707   1.362   7.447   5.977  0.2733  0.5241  0.6044
59328SOL     OW89708  12.541   7.915  12.822 -0.0746 -0.2616 -0.5583
59328SOL    HW189709  12.575   8.004  12.810 -2.2097  0.6142 -0.5596
59328SOL    HW289710  12.454   7.917  12.782 -0.1494 -2.3965 -0.6229
59329SOL     OW89711  11.455  10.090   6.051  0.7149 -0.2942  0.1900
59329SOL    HW189712  11.516  10.095   6.125  0.3018 -1.5906  0.6577
59329SOL    HW289713  11.465  10.001   6.018 -0.9366 -0.5710  0.3308
59330SOL     OW89714  13.688  10.160   7.040  0.0639 -0.1528  0.2327
59330SOL    HW189715  13.726  10.150   6.952 -1.7719  1.3889 -0.8243
59330SOL    HW289716  13.613  10.217   7.026  0.6075  1.4112  3.0754
59331SOL     OW89717  11.074  12.878   9.440 -0.0479 -0.6813 -0.2768
59331SOL    HW189718  11.029  12.832   9.511 -0.8478 -1.0080 -0.9804
59331SOL    HW289719  11.052  12.970   9.454 -0.3988 -0.7703 -0.2313
59332SOL     OW89720   1.580   4.471   1.416 -0.3512 -0.0099  0.1268
59332SOL    HW189721   1.628   4.427   1.486 -1.9328 -2.1145  0.0011
59332SOL    HW289722   1.591   4.413   1.340  0.1933  1.5332 -1.0297
59333SOL     OW89723  12.955   2.544   0.703  0.5506  0.0851 -0.4679
59333SOL    HW189724  12.982   2.636   0.706  0.5431  0.0661  0.9872
59333SOL    HW289725  12.860   2.548   0.714  0.3018 -0.0234 -2.2852
59334SOL     OW89726   2.888   8.754   0.747 -0.2355  0.0906  0.0351
59334SOL    HW189727   2.801   8.780   0.716 -0.2574  0.7648  0.6269
59334SOL    HW289728   2.873   8.724   0.837  0.2821  1.2262  0.5234
59335SOL     OW89729   7.996   0.259  10.109  0.3335 -0.0145  0.5881
59335SOL    HW189730   7.905   0.283  10.089  0.8726  0.9975 -0.8456
59335SOL    HW289731   8.030   0.333  10.159  0.3567 -0.4265  1.1893
59336SOL     OW89732   5.262   3.748   8.571  0.2093  0.1482  0.0313
59336SOL    HW189733   5.206   3.814   8.611  0.5343  1.8332 -2.1298
59336SOL    HW289734   5.347   3.790   8.564  1.1015 -1.4412  0.8649
59337SOL     OW89735   6.324   1.627   8.408  0.0382  0.0651  0.0051
59337SOL    HW189736   6.412   1.598   8.432 -0.6423 -2.1602  0.0858
59337SOL    HW289737   6.320   1.718   8.436  2.8414  0.7555 -1.5222
59338SOL     OW89738  11.506   4.385   4.046  0.1141 -0.5075  0.0177
59338SOL    HW189739  11.486   4.370   4.138  0.0870 -1.2084 -0.0940
59338SOL    HW289740  11.595   4.420   4.046 -0.5455  1.2457  0.4203
59339SOL     OW89741  12.393   7.656   5.047  0.6163 -0.0701  0.0345
59339SOL    HW189742  12.390   7.652   5.143  2.2072 -2.4095  0.0883
59339SOL    HW289743  12.343   7.579   5.019  0.1635  0.5968 -1.0121
59340SOL     OW89744   2.021   9.045   8.791  0.3694 -0.3394  0.1669
59340SOL    HW189745   2.095   9.001   8.750  0.9103  0.1685  0.5707
59340SOL    HW289746   2.013   9.004   8.877  0.7560  0.1946  0.4699
59341SOL     OW89747   1.901   4.312   1.723 -0.8769 -0.1466  0.2585
59341SOL    HW189748   1.975   4.257   1.749  0.1285  0.1891 -1.7216
59341SOL    HW289749   1.862   4.340   1.806  0.6979 -1.0180  1.3449
59342SOL     OW89750  11.840   3.110  13.230  0.3308 -0.1815 -0.1142
59342SOL    HW189751  11.784   3.080  13.302  0.0483  0.8687  0.1085
59342SOL    HW289752  11.862   3.200  13.252 -0.9170  0.6705 -2.0097
59343SOL     OW89753  11.521  11.251   8.545 -0.0188  0.0612  0.2387
59343SOL    HW189754  11.470  11.303   8.607  0.1905 -1.5136  1.8156
59343SOL    HW289755  11.602  11.301   8.532  1.0731 -0.7212  3.2921
59344SOL     OW89756   4.165  12.095  10.173 -0.2999 -0.2526 -0.0480
59344SOL    HW189757   4.074  12.070  10.153 -0.5678  0.6179  0.0440
59344SOL    HW289758   4.157  12.170  10.231  0.4869 -0.7818  0.7771
59345SOL     OW89759   0.961   0.096   7.830  0.4736  0.0871  0.1934
59345SOL    HW189760   1.014   0.020   7.854 -1.2346 -0.8192  1.2873
59345SOL    HW289761   1.005   0.170   7.871  1.7236 -0.4048 -0.2157
59346SOL     OW89762  12.482   9.900  12.697 -0.0233  0.0796 -0.2007
59346SOL    HW189763  12.539   9.823  12.690 -0.9938 -0.6618 -0.1524
59346SOL    HW289764  12.484   9.939  12.610  1.1441  0.5036 -0.0012
59347SOL     OW89765   5.494   2.844   4.361 -0.0975  0.6097  0.5463
59347SOL    HW189766   5.405   2.851   4.328  0.2789 -0.7229 -0.8682
59347SOL    HW289767   5.513   2.750   4.361  1.7671  0.9347 -0.5098
59348SOL     OW89768  11.031   5.742   2.459  0.3793  0.2636  0.4769
59348SOL    HW189769  11.084   5.676   2.415 -0.3494 -0.3255  0.4747
59348SOL    HW289770  11.009   5.703   2.544 -1.7810 -0.3871 -0.3250
59349SOL     OW89771  13.364  12.656   2.631 -0.2990 -0.0037 -0.3331
59349SOL    HW189772  13.401  12.568   2.637  1.1110  0.5901  0.0930
59349SOL    HW289773  13.439  12.713   2.619 -1.0233  1.3286  1.1024
59350SOL     OW89774   9.133   0.367  10.557 -0.0671  0.4041 -0.2596
59350SOL    HW189775   9.092   0.345  10.473  0.1545  1.1028 -0.5520
59350SOL    HW289776   9.105   0.456  10.576 -0.6237  0.0407  0.7253
59351SOL     OW89777   7.142  12.219   2.620  0.1514 -0.5471 -0.1625
59351SOL    HW189778   7.205  12.287   2.645  0.8557 -1.7357  1.4656
59351SOL    HW289779   7.110  12.247   2.535  0.8999  1.4854  0.1598
59352SOL     OW89780   0.509   7.016   7.392 -0.0440  0.5104  0.3553
59352SOL    HW189781   0.545   6.946   7.446 -0.6784 -0.0513  0.0728
59352SOL    HW289782   0.441   6.973   7.340  0.3008  1.1072 -0.6196
59353SOL     OW89783   3.774   7.079   2.498 -0.3735  0.2471  0.5586
59353SOL    HW189784   3.787   6.988   2.524  1.1877  0.3085  0.1134
59353SOL    HW289785   3.846   7.097   2.437 -2.5858  0.7993 -2.0252
59354SOL     OW89786  11.662  12.641   1.081 -0.0013  0.3253 -0.2494
59354SOL    HW189787  11.658  12.552   1.046  1.2018  0.7884 -1.6685
59354SOL    HW289788  11.658  12.697   1.004 -1.9656  1.5901  0.6872
59355SOL     OW89789   4.723   9.863   7.249 -0.2020  0.1674  1.1791
59355SOL    HW189790   4.795   9.926   7.257 -0.0484 -0.0923  1.9582
59355SOL    HW289791   4.716   9.846   7.155 -0.0523  1.1183  0.9922
59356SOL     OW89792   6.550   5.778  12.885  0.4612 -0.0106  0.0009
59356SOL    HW189793   6.496   5.699  12.877 -1.3296  1.2096 -0.6121
59356SOL    HW289794   6.544   5.819  12.799 -0.6988  2.0298  0.9903
59357SOL     OW89795   9.557   2.913   6.540  0.4152  0.0063  0.5182
59357SOL    HW189796   9.610   2.842   6.502 -0.4420 -1.0718  1.2607
59357SOL    HW289797   9.488   2.927   6.475  0.8915  0.5557  0.1196
59358SOL     OW89798  13.101   4.714   8.317 -0.2193 -0.1877  0.3794
59358SOL    HW189799  13.028   4.654   8.334  0.2765 -0.3864  2.0590
59358SOL    HW289800  13.179   4.660   8.329  0.2260  0.0728 -1.1974
59359SOL     OW89801   7.387   4.243   7.038  0.2676  0.1712 -0.2708
59359SOL    HW189802   7.377   4.169   7.097  0.3470 -0.5865 -1.1810
59359SOL    HW289803   7.365   4.320   7.091 -0.3920 -0.5516  0.5305
59360SOL     OW89804   7.928   5.836   5.126  0.4060 -0.4700  0.1195
59360SOL    HW189805   7.843   5.841   5.170  0.8490 -0.0389  0.9490
59360SOL    HW289806   7.909   5.793   5.043 -0.5054 -1.0345  0.5978
59361SOL     OW89807  12.286  11.512   6.853  0.6379  0.1243  0.0267
59361SOL    HW189808  12.357  11.459   6.889  0.3387 -0.0921  0.3045
59361SOL    HW289809  12.300  11.599   6.890 -0.0897 -0.2608  1.2837
59362SOL     OW89810   6.614  10.526   7.577 -0.5138  0.7137  0.2764
59362SOL    HW189811   6.525  10.517   7.544 -0.7215  1.5315  0.5964
59362SOL    HW289812   6.634  10.441   7.616 -0.0441 -0.5184 -2.3833
59363SOL     OW89813   1.554  10.409   2.212 -0.3094  0.6013  0.4697
59363SOL    HW189814   1.522  10.344   2.276  1.4339 -0.9312 -0.1333
59363SOL    HW289815   1.533  10.371   2.127  1.0033  0.6535  0.1034
59364SOL     OW89816  13.409  10.727   4.795  0.1367 -0.2838 -0.5238
59364SOL    HW189817  13.381  10.776   4.872  3.1071 -2.8135  2.4642
59364SOL    HW289818  13.355  10.649   4.795 -1.4617  0.7323 -2.5576
59365SOL     OW89819   0.202   4.197   6.446 -0.2493 -0.1049 -0.6091
59365SOL    HW189820   0.183   4.271   6.504 -0.2833  1.1074 -2.1123
59365SOL    HW289821   0.224   4.125   6.505  0.4615  1.2877  0.8803
59366SOL     OW89822   3.367  12.237  12.969 -0.0350  0.6240 -0.1627
59366SOL    HW189823   3.332  12.156  12.931  0.1974  1.6868 -2.9317
59366SOL    HW289824   3.296  12.271  13.023 -0.0778 -1.4379  1.2062
59367SOL     OW89825   5.633  11.035  11.155 -0.1211 -0.4477 -0.3694
59367SOL    HW189826   5.664  10.987  11.079 -1.5274 -0.5274 -0.9372
59367SOL    HW289827   5.662  11.125  11.141  0.2875 -0.6143 -0.6047
59368SOL     OW89828   2.411   7.676   6.304  0.2121  0.6297  0.2128
59368SOL    HW189829   2.470   7.670   6.229 -1.5467  0.8916 -1.2585
59368SOL    HW289830   2.402   7.585   6.334  1.1417  0.5570  0.3120
59369SOL     OW89831   1.972   2.320  13.521 -0.5830  0.0760 -0.7075
59369SOL    HW189832   1.991   2.359  13.436 -2.8108  2.5461 -0.2191
59369SOL    HW289833   1.877   2.318  13.526 -0.5135 -0.2283  1.6004
59370SOL     OW89834   4.356  10.205   5.408  0.0610 -0.1613 -0.1199
59370SOL    HW189835   4.446  10.226   5.433  0.4430 -0.8695 -0.8682
59370SOL    HW289836   4.313  10.181   5.490  0.5278  0.2470  0.2525
59371SOL     OW89837   4.049   1.787   7.913  0.2311  0.5337 -0.0130
59371SOL    HW189838   3.997   1.713   7.881 -2.1789  2.6125 -1.2140
59371SOL    HW289839   4.074   1.762   8.002 -0.6619 -1.6177 -0.3008
59372SOL     OW89840   8.226   0.305   1.359 -0.0526  0.0144 -0.7650
59372SOL    HW189841   8.277   0.338   1.285  0.3717 -0.6772 -0.7921
59372SOL    HW289842   8.168   0.239   1.321 -0.5096  0.3347 -0.6284
59373SOL     OW89843   6.580  11.793   9.647 -0.2670 -0.1419  0.2236
59373SOL    HW189844   6.506  11.742   9.615 -0.6670  1.7816 -2.3252
59373SOL    HW289845   6.543  11.849   9.715 -1.0199  0.3013 -0.5336
59374SOL     OW89846   1.050   7.294   8.891  0.0183  0.1840  0.3294
59374SOL    HW189847   1.039   7.204   8.922  0.4427 -0.0738 -0.2495
59374SOL    HW289848   0.982   7.305   8.825 -0.9978  0.7907  1.4262
59375SOL     OW89849  12.839  13.340   5.624  0.5140  0.3674 -0.5760
59375SOL    HW189850  12.880  13.392   5.555  0.6906  0.8290 -0.1301
59375SOL    HW289851  12.746  13.340   5.601  0.6466  0.0461 -1.1191
59376SOL     OW89852   1.541  11.126   2.890  0.0647 -0.1136  0.0549
59376SOL    HW189853   1.469  11.178   2.925  0.9649  2.1773 -1.2902
59376SOL    HW289854   1.539  11.141   2.796  1.8848 -0.5152 -0.0872
59377SOL     OW89855  11.316   2.223   7.721  0.0861  0.1982 -0.9041
59377SOL    HW189856  11.243   2.262   7.674  0.6872  0.8112 -1.3528
59377SOL    HW289857  11.391   2.280   7.700  0.2989  0.7320  1.0798
59378SOL     OW89858   1.456  12.574   0.170 -0.1028  0.0052 -0.2891
59378SOL    HW189859   1.443  12.479   0.176  0.1660 -0.1807 -2.0630
59378SOL    HW289860   1.455  12.604   0.261 -0.2953 -1.6796  0.3044
59379SOL     OW89861   3.199  12.912   0.067 -0.0225  0.0379 -0.1336
59379SOL    HW189862   3.190  12.896  -0.027  0.7289 -0.0586 -0.1903
59379SOL    HW289863   3.268  12.978   0.074 -0.1133  0.0871  0.3475
59380SOL     OW89864   2.512   5.538   1.528 -0.3179  0.2658 -0.4191
59380SOL    HW189865   2.542   5.574   1.445  0.5662  0.2215 -0.1306
59380SOL    HW289866   2.540   5.447   1.527  0.6676  0.5468  0.3756
59381SOL     OW89867  13.416   8.461   1.687  0.0520  0.1690 -0.3738
59381SOL    HW189868  13.506   8.436   1.666  0.0938  1.5960 -2.1608
59381SOL    HW289869  13.371   8.461   1.602 -0.9064  2.1346  0.0745
59382SOL     OW89870  13.649   3.332   9.219 -0.8609  0.2771 -0.0258
59382SOL    HW189871  13.554   3.322   9.227 -0.7884 -0.2158  0.2416
59382SOL    HW289872  13.668   3.410   9.271 -1.1036  0.3073  0.0204
59383SOL     OW89873   4.049   0.612   0.702  0.5302 -0.1556  0.0426
59383SOL    HW189874   4.108   0.545   0.666  0.6313 -0.1132  0.1269
59383SOL    HW289875   3.962   0.572   0.697  0.5826 -0.2720  0.0398
59384SOL     OW89876   7.543   3.536   6.876  0.6883  0.7834 -0.5327
59384SOL    HW189877   7.464   3.585   6.855 -0.6084 -0.8273  0.3168
59384SOL    HW289878   7.591   3.592   6.938  0.0931  1.6696 -0.8606
59385SOL     OW89879  13.563   3.317  11.711 -0.3066 -0.5033  0.7662
59385SOL    HW189880  13.573   3.362  11.794 -0.5726 -0.8522  0.9941
59385SOL    HW289881  13.468   3.305  11.701 -0.2735 -0.5004  0.4382
59386SOL     OW89882   8.334   1.593  12.549  0.1114 -0.0208 -0.5433
59386SOL    HW189883   8.383   1.569  12.471 -0.6304 -0.9888 -0.7251
59386SOL    HW289884   8.389   1.564  12.622  0.2567 -0.2074 -0.7271
59387SOL     OW89885   8.581   7.607  11.708 -0.0016  0.0207 -0.2239
59387SOL    HW189886   8.641   7.594  11.781  1.5775  1.3189 -1.2007
59387SOL    HW289887   8.554   7.699  11.716  0.7665  0.3955 -1.6378
59388SOL     OW89888   3.560  10.405  12.852 -0.5533  0.3667 -0.6739
59388SOL    HW189889   3.533  10.414  12.943  1.5703  0.5180 -0.0302
59388SOL    HW289890   3.622  10.332  12.851 -0.7046  0.2163 -2.0475
59389SOL     OW89891   8.347   9.041   7.094 -0.3558 -0.0692 -0.1342
59389SOL    HW189892   8.289   9.043   7.018  0.5782  0.0853 -0.8649
59389SOL    HW289893   8.320   8.963   7.143 -0.7000 -0.4024 -0.8463
59390SOL     OW89894   5.742  13.683  10.778  0.9562 -0.3413 -0.2889
59390SOL    HW189895   5.658  13.695  10.821  1.5805  1.1241  0.6030
59390SOL    HW289896   5.741  13.593  10.746 -1.0513 -0.2549 -0.5582
59391SOL     OW89897   2.140   4.089   1.514  0.3601 -0.1742  0.2400
59391SOL    HW189898   2.192   4.110   1.592  0.1517  0.9904  0.0837
59391SOL    HW289899   2.173   4.148   1.446  0.2951 -0.9316 -0.4650
59392SOL     OW89900   3.382   5.595   7.434 -0.3677  0.1025  0.2005
59392SOL    HW189901   3.319   5.593   7.362 -0.3962  0.0136  0.2287
59392SOL    HW289902   3.362   5.518   7.487  1.5760 -1.5698 -1.3151
59393SOL     OW89903   3.655  11.757   8.831  0.3257  0.4495 -0.6417
59393SOL    HW189904   3.599  11.811   8.774 -0.2651  1.4128  0.8037
59393SOL    HW289905   3.594  11.712   8.889  0.9475 -0.1928 -0.4672
59394SOL     OW89906   6.325  11.352   9.495 -0.6331 -0.8990  0.4298
59394SOL    HW189907   6.335  11.442   9.464 -0.1622 -1.5313 -1.3861
59394SOL    HW289908   6.351  11.355   9.587  3.4073  0.1322 -0.5482
59395SOL     OW89909  13.125   0.859  12.642  0.0042 -0.0516 -0.1836
59395SOL    HW189910  13.100   0.889  12.729  0.2155  1.7915 -0.7309
59395SOL    HW289911  13.221   0.861  12.643 -0.0034  0.5043 -0.6375
59396SOL     OW89912   3.797   1.442   0.861  0.2748  0.5995 -0.1000
59396SOL    HW189913   3.739   1.478   0.794  1.7665 -0.5327 -2.0940
59396SOL    HW289914   3.777   1.349   0.863  1.4979  0.3150 -0.2997
59397SOL     OW89915   0.300   3.332  11.616 -0.0952  0.1721  0.0711
59397SOL    HW189916   0.215   3.349  11.575  0.1974  0.4434 -0.4386
59397SOL    HW289917   0.358   3.398  11.579  1.0874 -1.8559 -1.9949
59398SOL     OW89918   3.486  12.175   6.630  0.5880 -0.4550 -0.0031
59398SOL    HW189919   3.484  12.253   6.685  1.9533 -0.8659  0.6840
59398SOL    HW289920   3.572  12.136   6.648  1.0494 -0.6628 -2.3376
59399SOL     OW89921   1.232   5.044   3.504  0.6704 -0.1871  0.2442
59399SOL    HW189922   1.275   4.972   3.550 -0.8986 -1.5939 -0.3869
59399SOL    HW289923   1.271   5.123   3.541  3.5704 -1.3190 -0.0957
59400SOL     OW89924  12.150   1.845  10.086 -0.4216  0.0894  0.3373
59400SOL    HW189925  12.208   1.892  10.025 -0.2075 -1.3037 -0.5897
59400SOL    HW289926  12.208   1.784  10.132 -0.7998  0.2137  0.9860
59401SOL     OW89927  12.968   5.037   5.734 -0.4070 -0.4488  0.2975
59401SOL    HW189928  13.041   5.096   5.717  0.1054 -0.7008  1.5077
59401SOL    HW289929  13.009   4.951   5.745 -1.1340 -1.0457 -1.3692
59402SOL     OW89930   5.208  10.223  12.172  0.4620 -0.5316 -0.2828
59402SOL    HW189931   5.279  10.204  12.111  0.0708 -0.2316 -0.8425
59402SOL    HW289932   5.129  10.195  12.127 -0.1693  2.3694 -1.2088
59403SOL     OW89933   7.979   7.098   0.279 -0.7042  0.1015 -0.3189
59403SOL    HW189934   8.035   7.035   0.233  0.3818  1.1604 -0.5044
59403SOL    HW289935   7.924   7.136   0.210 -0.1110  0.6214 -0.5161
59404SOL     OW89936   0.057   0.366  10.131  0.4009  0.4213 -0.2188
59404SOL    HW189937   0.042   0.447  10.181  0.8493  0.2630  0.1724
59404SOL    HW289938  -0.027   0.320  10.137 -0.2217  1.3468 -1.3672
59405SOL     OW89939  11.464  13.316   2.570  0.3373  0.2412 -0.2358
59405SOL    HW189940  11.390  13.271   2.529 -0.5716  1.0984  0.4185
59405SOL    HW289941  11.456  13.406   2.540  0.5288  0.5578  0.6384
59406SOL     OW89942   9.028  10.421   9.205 -0.1403  0.4399  0.1025
59406SOL    HW189943   9.065  10.391   9.288  4.1869 -0.6517 -1.9647
59406SOL    HW289944   9.065  10.508   9.192  0.8831 -0.2025 -1.5304
59407SOL     OW89945   6.815   1.409   9.303  0.0409 -0.1908  0.4082
59407SOL    HW189946   6.902   1.412   9.264  0.5496 -1.8826  1.3235
59407SOL    HW289947   6.830   1.383   9.394 -1.4534 -1.1827  0.4121
59408SOL     OW89948   4.039  10.557  12.527  0.8477  0.0505 -0.0566
59408SOL    HW189949   4.056  10.643  12.488 -1.4879  0.4280 -0.4058
59408SOL    HW289950   4.104  10.499  12.489 -0.1815  0.7818 -3.1676
59409SOL     OW89951   4.737  11.609  13.132  0.1050 -0.1562  0.9752
59409SOL    HW189952   4.832  11.618  13.124  0.1596  0.8267  2.2997
59409SOL    HW289953   4.723  11.517  13.153  0.5541 -0.8189 -1.3524
59410SOL     OW89954   7.139   7.692   9.685 -0.2932  0.8398  0.6017
59410SOL    HW189955   7.110   7.727   9.769  1.7865  0.2424  1.6407
59410SOL    HW289956   7.059   7.677   9.636 -1.5644  1.2000  2.4793
59411SOL     OW89957  11.622   4.672   5.755 -0.3021 -0.2124  0.3974
59411SOL    HW189958  11.663   4.669   5.842  1.2032  0.0781 -0.2776
59411SOL    HW289959  11.695   4.689   5.695 -1.4619  0.5273 -0.8319
59412SOL     OW89960  10.839   9.672  11.147 -0.0581  0.0715 -0.3638
59412SOL    HW189961  10.893   9.594  11.136 -0.6047 -0.4815  0.6555
59412SOL    HW289962  10.897   9.736  11.188 -0.2127 -0.6331  1.0527
59413SOL     OW89963   8.018   5.302   8.212 -0.2386  0.0489  0.4178
59413SOL    HW189964   7.936   5.292   8.164  1.4702  1.1863 -2.9863
59413SOL    HW289965   8.030   5.396   8.220 -0.2069 -0.0932  2.8077
59414SOL     OW89966  11.163   2.827   5.457  0.2558  0.0121 -0.4453
59414SOL    HW189967  11.113   2.753   5.492 -0.9658  0.6216 -0.8355
59414SOL    HW289968  11.181   2.883   5.533  2.3843 -1.2931  0.1061
59415SOL     OW89969   1.217   7.302   2.905 -0.0558  0.0984 -0.3710
59415SOL    HW189970   1.213   7.209   2.882  0.4071 -0.1979  0.6941
59415SOL    HW289971   1.310   7.324   2.901 -0.1726  0.5463 -0.7182
59416SOL     OW89972   9.118   3.679  12.184  0.4222  0.3818  0.0498
59416SOL    HW189973   9.146   3.760  12.227  2.8764 -0.3966  0.1038
59416SOL    HW289974   9.144   3.609  12.244 -0.6933 -0.4951 -0.4568
59417SOL     OW89975  10.114  12.557   4.077 -0.5115  0.0549  0.2376
59417SOL    HW189976  10.175  12.488   4.104 -0.6727  0.1582  0.8669
59417SOL    HW289977  10.047  12.559   4.146 -1.1032  0.1018 -0.3250
59418SOL     OW89978   0.773   6.570   8.943  0.1827 -0.0317 -0.1052
59418SOL    HW189979   0.790   6.526   8.859 -0.0395  0.5630 -0.4655
59418SOL    HW289980   0.826   6.521   9.006  1.1758  0.1500 -0.7666
59419SOL     OW89981   9.491   5.116   9.846 -0.2858 -0.7527 -0.1217
59419SOL    HW189982   9.523   5.084   9.762 -2.5706  1.0050 -1.7874
59419SOL    HW289983   9.467   5.037   9.894 -0.1573 -1.7745 -1.6538
59420SOL     OW89984   8.600   9.606   6.744 -0.6344  0.3573  0.0450
59420SOL    HW189985   8.681   9.653   6.722 -1.1667  1.2803  0.0020
59420SOL    HW289986   8.628   9.517   6.762  0.1198  0.0348 -2.3739
59421SOL     OW89987   3.950   8.100   3.123 -0.1801 -0.1037 -0.1872
59421SOL    HW189988   3.949   8.023   3.066 -0.3808 -0.6516  0.5484
59421SOL    HW289989   3.859   8.110   3.153  0.0440 -0.2093  0.5478
59422SOL     OW89990  11.329   0.100   1.422  0.1760 -0.1367 -0.6022
59422SOL    HW189991  11.373   0.017   1.444  1.0583  0.3486 -0.4812
59422SOL    HW289992  11.401   0.160   1.403 -0.4746  0.3207 -1.7257
59423SOL     OW89993   2.024   8.465   2.987  0.4837  0.4635 -0.7158
59423SOL    HW189994   2.001   8.535   2.925 -0.9204  1.5048  0.8789
59423SOL    HW289995   2.071   8.510   3.057  0.0770 -0.2666  0.0460
59424SOL     OW89996  13.439  12.039   9.821  0.0620  0.2530 -0.2664
59424SOL    HW189997  13.529  12.055   9.852  0.6708 -0.6032 -1.5147
59424SOL    HW289998  13.450  12.000   9.734 -1.5535  0.9979 -0.8412
59425SOL     OW89999  10.667  11.001   2.710  0.3412 -0.0443  0.5201
59425SOL    HW190000  10.612  10.989   2.633 -1.3502  2.5465  1.1899
59425SOL    HW290001  10.732  11.066   2.683  1.9385 -1.6740  0.3129
59426SOL     OW90002   5.417   4.190   8.539  0.5130 -0.0380  0.3702
59426SOL    HW190003   5.401   4.265   8.482  1.6064  0.5350  0.7920
59426SOL    HW290004   5.329   4.164   8.569  0.0776  0.7477 -0.1758
59427SOL     OW90005  11.137   4.806   0.257 -0.1052 -0.4977  0.1989
59427SOL    HW190006  11.219   4.829   0.301  0.6500 -0.2930 -1.2535
59427SOL    HW290007  11.152   4.718   0.223 -0.8124 -0.7994  0.6549
59428SOL     OW90008   5.571   3.280  12.180 -0.4336  0.1108  0.1710
59428SOL    HW190009   5.504   3.340  12.213 -0.6761 -0.4074  0.6560
59428SOL    HW290010   5.593   3.225  12.256  0.6011  0.3190  0.0380
59429SOL     OW90011   3.796   0.216  12.330 -0.4057 -0.0850  0.7013
59429SOL    HW190012   3.889   0.220  12.354 -0.0590  0.1907 -0.6022
59429SOL    HW290013   3.767   0.130  12.359  0.3435 -0.3017  0.8233
59430SOL     OW90014   9.798   9.479  11.071 -0.1071 -0.4192  0.1138
59430SOL    HW190015   9.773   9.429  11.149 -1.3569  0.1577  0.1152
59430SOL    HW290016   9.878   9.525  11.096  1.0836 -2.3744  0.1109
59431SOL     OW90017   3.504  10.572  10.587 -0.2049  0.0670 -0.1121
59431SOL    HW190018   3.443  10.642  10.612 -0.5768 -0.3534  0.2001
59431SOL    HW290019   3.580  10.586  10.643 -0.3398  0.1359  0.0570
59432SOL     OW90020   6.291   9.207   0.405 -0.3621  0.0198 -0.0719
59432SOL    HW190021   6.382   9.182   0.422 -0.8792 -0.3820  2.6506
59432SOL    HW290022   6.244   9.125   0.399 -0.6965  0.2360 -0.4315
59433SOL     OW90023   5.887   2.152   3.388  0.3929 -0.1020 -0.5440
59433SOL    HW190024   5.959   2.119   3.441 -0.1046  1.2438  1.0551
59433SOL    HW290025   5.912   2.242   3.366 -0.3065  0.0214 -0.8707
59434SOL     OW90026  10.711   5.956   5.462  0.0138  0.1460  0.2807
59434SOL    HW190027  10.800   5.955   5.496  0.6104 -0.4112 -1.2005
59434SOL    HW290028  10.704   5.875   5.412 -1.0018  0.6543 -0.4384
59435SOL     OW90029   4.405  10.334  13.006  0.2145  0.1700 -0.5713
59435SOL    HW190030   4.356  10.283  13.070 -0.4642 -0.7660 -1.7783
59435SOL    HW290031   4.485  10.284  12.991  1.5872  1.6644  1.3500
59436SOL     OW90032   6.729  12.020  13.059 -0.1443 -0.4591 -0.0584
59436SOL    HW190033   6.787  11.974  13.120  0.3754 -1.1432 -1.0251
59436SOL    HW290034   6.776  12.017  12.975 -0.1137  1.8350 -0.1678
59437SOL     OW90035   8.241   8.024  11.450 -0.1096  0.8973  0.3318
59437SOL    HW190036   8.221   7.998  11.360  0.5301 -0.3950  0.5305
59437SOL    HW290037   8.155   8.032  11.493 -0.3699 -0.1553  0.0347
59438SOL     OW90038  12.364   9.401   2.451 -0.0210 -0.3794  0.6991
59438SOL    HW190039  12.351   9.364   2.538  1.3266 -1.7300  0.3609
59438SOL    HW290040  12.447   9.364   2.421  0.7409  1.8967 -0.2222
59439SOL     OW90041   2.771   9.179   3.713 -0.3501  0.2113  0.1237
59439SOL    HW190042   2.851   9.137   3.684 -0.4003  0.6095 -0.6176
59439SOL    HW290043   2.800   9.255   3.764 -0.2365  0.7995 -0.7907
59440SOL     OW90044   7.930  12.273   1.007  0.3959 -0.3960  0.3361
59440SOL    HW190045   7.906  12.291   0.916  2.4457  0.5930 -0.0764
59440SOL    HW290046   7.884  12.339   1.058  1.1108  0.6189 -0.2840
59441SOL     OW90047   0.748   2.054  13.483 -0.5298 -0.2863 -0.0672
59441SOL    HW190048   0.732   2.121  13.550 -0.5787  1.3934 -1.6720
59441SOL    HW290049   0.803   2.098  13.418  0.4633 -2.2119 -0.6191
59442SOL     OW90050   1.738   7.908   2.400 -0.2674  0.3941  0.3770
59442SOL    HW190051   1.754   7.976   2.334 -1.0611  0.6998  0.4928
59442SOL    HW290052   1.757   7.950   2.483  2.3126 -0.4525  0.2996
59443SOL     OW90053  11.447  12.734   4.347 -0.0646 -0.2279 -0.5608
59443SOL    HW190054  11.379  12.799   4.326 -0.4735 -0.5141 -0.1308
59443SOL    HW290055  11.418  12.654   4.303 -1.1777 -0.9718  1.4108
59444SOL     OW90056   9.959   7.073   8.994  0.1612 -0.2191  0.0036
59444SOL    HW190057   9.955   7.168   8.993 -1.9670 -0.2745 -0.8929
59444SOL    HW290058  10.023   7.051   8.926 -0.5737  0.5568 -0.9636
59445SOL     OW90059   1.761   5.733   3.408  0.3574 -0.1678 -0.0200
59445SOL    HW190060   1.718   5.684   3.479 -0.5079 -1.9891 -1.6824
59445SOL    HW290061   1.690   5.750   3.345  1.1426  1.1864 -0.5608
59446SOL     OW90062   5.834   6.549   6.300 -0.3835  0.1323 -0.0393
59446SOL    HW190063   5.787   6.630   6.322  0.2154  0.8123 -1.1600
59446SOL    HW290064   5.899   6.576   6.235  1.9633 -0.6529  1.8090
59447SOL     OW90065   5.138   6.403  13.022 -0.6363 -0.7531  0.1676
59447SOL    HW190066   5.057   6.352  13.019 -1.1988 -0.0229  1.7553
59447SOL    HW290067   5.109   6.494  13.026  0.3424 -0.2567 -2.1672
59448SOL     OW90068   2.921   9.024   8.615  0.5279  0.3712  0.0191
59448SOL    HW190069   2.848   9.011   8.555  0.5595  0.7627 -0.1091
59448SOL    HW290070   2.951   8.936   8.637 -1.1214  0.1075  1.4926
59449SOL     OW90071   9.178  11.895   5.682  0.2678  0.3490  0.0879
59449SOL    HW190072   9.182  11.919   5.775 -0.5213  0.5571  0.0754
59449SOL    HW290073   9.120  11.820   5.680 -0.7475  1.1251 -0.3775
59450SOL     OW90074  10.824   6.803   6.942 -0.0623 -0.9032  0.5281
59450SOL    HW190075  10.809   6.712   6.915 -1.8348 -0.7950  1.0232
59450SOL    HW290076  10.887   6.797   7.013 -0.1932 -1.7501  0.5885
59451SOL     OW90077   4.732   0.632   2.115 -0.5353 -0.4257  0.4572
59451SOL    HW190078   4.782   0.710   2.091 -1.0360  0.1557  1.2518
59451SOL    HW290079   4.786   0.559   2.086  0.1053  0.2084  0.0184
59452SOL     OW90080  10.050   9.425   4.704  0.0725 -0.2854 -0.0081
59452SOL    HW190081  10.060   9.370   4.782  0.5913  0.4736  0.4711
59452SOL    HW290082  10.002   9.370   4.642  0.5599 -1.2670  0.4676
59453SOL     OW90083  10.346   7.829   7.382  0.0708 -0.1280  0.0821
59453SOL    HW190084  10.352   7.906   7.326 -0.4086 -1.1245 -1.4161
59453SOL    HW290085  10.273   7.848   7.441 -1.2150 -0.1128 -1.4359
59454SOL     OW90086   1.461  13.268   5.841 -0.3249  0.1119  0.0935
59454SOL    HW190087   1.551  13.277   5.874 -0.4503 -1.8774  1.1040
59454SOL    HW290088   1.413  13.339   5.883  0.6567  0.9639 -0.1576
59455SOL     OW90089   5.568  11.599   8.108  0.2224  0.0890  0.4704
59455SOL    HW190090   5.499  11.535   8.123  0.2514 -0.6073 -1.8881
59455SOL    HW290091   5.602  11.578   8.021  2.1274  1.6033  0.7647
59456SOL     OW90092  13.650   4.911  11.194  0.0675 -0.1841  0.2662
59456SOL    HW190093  13.651   4.905  11.099  1.6029  1.4218  0.1280
59456SOL    HW290094  13.591   4.841  11.222  0.5995 -1.5515 -1.7914
59457SOL     OW90095   0.055   8.503   8.832  0.8697  0.3907  0.4545
59457SOL    HW190096   0.078   8.415   8.803  1.7728  0.7209  0.1417
59457SOL    HW290097   0.051   8.555   8.752  1.6058  0.9070  0.7354
59458SOL     OW90098   6.528   0.026   7.431 -0.1077  0.2258 -0.0850
59458SOL    HW190099   6.623   0.036   7.425  0.2666 -1.2981  2.1063
59458SOL    HW290100   6.503  -0.013   7.348  1.6842 -2.2461  0.4357
59459SOL     OW90101  13.694   0.502   0.478 -0.5400 -0.8318 -0.4793
59459SOL    HW190102  13.602   0.515   0.454 -0.3795 -0.8882 -1.1348
59459SOL    HW290103  13.719   0.583   0.523 -1.1714 -1.1843  0.5415
59460SOL     OW90104   4.150  10.993   0.721  0.1874 -0.3012 -0.5040
59460SOL    HW190105   4.148  10.922   0.656 -2.0770  0.6411 -1.5644
59460SOL    HW290106   4.221  10.969   0.780 -2.0519 -4.9264  0.8157
59461SOL     OW90107   1.051   8.729   2.709 -0.0075 -0.3497 -0.7318
59461SOL    HW190108   0.981   8.763   2.764  1.0922 -1.5835  1.5858
59461SOL    HW290109   1.007   8.674   2.644 -1.2147 -1.1826  0.7376
59462SOL     OW90110   7.497   4.713  12.698  0.1940 -0.0964 -0.0394
59462SOL    HW190111   7.567   4.741  12.639 -0.1883  0.9960  0.0089
59462SOL    HW290112   7.427   4.776  12.684 -0.6857 -1.0216  0.1192
59463SOL     OW90113   7.617   2.020   5.894 -0.0893 -0.0112  0.3156
59463SOL    HW190114   7.683   2.084   5.869 -0.3951  0.3090  0.3203
59463SOL    HW290115   7.582   1.988   5.811  0.1852 -0.3009  0.3112
59464SOL     OW90116  11.865   9.880   5.566  0.3076 -0.7359 -0.0239
59464SOL    HW190117  11.905   9.794   5.575 -0.3712 -0.9509  1.1406
59464SOL    HW290118  11.873   9.901   5.473  1.4845 -1.5522 -0.1211
59465SOL     OW90119  12.373   3.071  10.548  0.1602 -0.3845  0.3043
59465SOL    HW190120  12.412   3.023  10.621  1.6080  0.6459  0.2331
59465SOL    HW290121  12.428   3.049  10.473 -0.3358 -0.1340 -0.1355
59466SOL     OW90122  11.041   5.978   5.982 -0.0387  0.2096  0.7386
59466SOL    HW190123  10.963   5.930   5.956  0.6206 -0.8161  0.5879
59466SOL    HW290124  11.091   5.915   6.035  1.5365  0.1940 -0.6706
59467SOL     OW90125  11.364  13.169   7.605  0.0093  0.4026  0.1316
59467SOL    HW190126  11.313  13.094   7.574 -0.9627  0.0532  2.4226
59467SOL    HW290127  11.439  13.131   7.649  1.2506  0.8959 -1.4456
59468SOL     OW90128  10.087   2.281   8.128 -0.0295 -0.1833  0.0408
59468SOL    HW190129  10.100   2.187   8.119 -0.3186 -0.1736 -0.4983
59468SOL    HW290130  10.176   2.317   8.125  0.0906 -0.4475  0.3901
59469SOL     OW90131   9.381   9.666   2.470  0.6342 -0.1874  0.2271
59469SOL    HW190132   9.373   9.730   2.400  0.1638  1.1562  1.4492
59469SOL    HW290133   9.332   9.589   2.440  1.6746 -0.2232 -1.5057
59470SOL     OW90134   2.281   5.459   7.448  0.4218  0.4882 -0.0820
59470SOL    HW190135   2.224   5.387   7.423  0.4515  0.6457 -0.6075
59470SOL    HW290136   2.369   5.431   7.422  0.2600  1.2836 -1.5739
59471SOL     OW90137  10.609  10.956   8.444 -0.0485  0.1096  0.4807
59471SOL    HW190138  10.575  10.868   8.460 -2.1055  0.8326  0.4292
59471SOL    HW290139  10.538  11.014   8.471  1.3996  1.7830  0.8645
59472SOL     OW90140   9.322   8.446   5.537 -0.2774  0.4452 -0.4234
59472SOL    HW190141   9.296   8.500   5.611  1.3177  0.9269 -0.1878
59472SOL    HW290142   9.286   8.359   5.557  1.7384  0.0462  1.9275
59473SOL     OW90143   4.605   6.105   7.741 -0.0953 -0.8970  0.2668
59473SOL    HW190144   4.517   6.069   7.753  0.1647 -1.5264  0.3127
59473SOL    HW290145   4.599   6.195   7.773 -0.5044 -1.2055  1.0757
59474SOL     OW90146   5.274   8.491   9.108 -0.1158 -0.5524  0.2701
59474SOL    HW190147   5.196   8.437   9.120  0.0057 -0.7744  0.0704
59474SOL    HW290148   5.240   8.579   9.091 -0.3555 -0.8541 -0.9155
59475SOL     OW90149   3.856  10.899   1.328 -0.4304  0.5351  0.1408
59475SOL    HW190150   3.874  10.807   1.306 -0.5929  0.5989 -0.2623
59475SOL    HW290151   3.816  10.935   1.250  0.5220  1.2191 -0.0518
59476SOL     OW90152  11.120   0.614  12.586 -0.0142  0.0219  0.1957
59476SOL    HW190153  11.102   0.632  12.494  0.2876  1.0831  0.3397
59476SOL    HW290154  11.038   0.579  12.620 -1.7666  4.0528  0.6699
59477SOL     OW90155  11.086   2.318  13.411 -0.0352  0.1525 -0.2916
59477SOL    HW190156  11.036   2.296  13.489 -1.2673  1.1989 -0.7505
59477SOL    HW290157  11.144   2.243  13.397 -0.2582 -0.3297  1.2320
59478SOL     OW90158  12.722   1.617   9.247 -0.1986 -0.6412  0.1117
59478SOL    HW190159  12.798   1.576   9.289  0.7383 -0.7472 -1.5814
59478SOL    HW290160  12.760   1.673   9.179 -1.5778  0.8063  0.4666
59479SOL     OW90161  10.266  10.438   6.685 -0.3364  0.1607  0.3354
59479SOL    HW190162  10.277  10.472   6.773  2.3980  0.2302  0.0537
59479SOL    HW290163  10.198  10.493   6.646 -0.9577  0.6898  2.0981
59480SOL     OW90164   9.570   9.190  11.905 -0.0112  0.1386 -0.4108
59480SOL    HW190165   9.541   9.159  11.819  0.2167 -1.0265 -0.0832
59480SOL    HW290166   9.548   9.118  11.964 -0.9696  1.2794  0.6566
59481SOL     OW90167  13.080   8.201   9.080 -0.2245 -1.0420  0.3928
59481SOL    HW190168  13.122   8.130   9.128  2.6022 -0.6171 -1.2324
59481SOL    HW290169  13.098   8.182   8.988  0.0799  1.4451 -0.1187
59482SOL     OW90170   6.883   6.745   3.685 -0.3899  0.2674  0.3756
59482SOL    HW190171   6.855   6.655   3.667  1.6626 -0.5002  0.7175
59482SOL    HW290172   6.932   6.771   3.608  0.2468  0.5533  0.8670
59483SOL     OW90173  11.694   1.109   5.971  0.0168  0.0170 -0.1612
59483SOL    HW190174  11.676   1.149   6.056 -0.1307 -0.1844 -0.0948
59483SOL    HW290175  11.626   1.145   5.913 -1.4342 -1.6798  0.3753
59484SOL     OW90176   2.661   4.295  13.587  0.1469 -0.0319 -0.6637
59484SOL    HW190177   2.597   4.244  13.636  0.2324 -0.7286 -1.2554
59484SOL    HW290178   2.664   4.253  13.501  1.5179 -0.1195 -0.5948
59485SOL     OW90179  12.604   2.649   9.809 -0.2978  0.3153 -0.7195
59485SOL    HW190180  12.579   2.557   9.819  1.9911 -0.3418 -0.4110
59485SOL    HW290181  12.647   2.653   9.723  0.9124  0.7369 -0.1219
59486SOL     OW90182   8.661   0.933   0.900 -0.5611 -0.6559 -0.1901
59486SOL    HW190183   8.671   0.868   0.970  1.4214 -1.4794 -1.1506
59486SOL    HW290184   8.728   0.998   0.919  1.4767 -1.9538 -2.3351
59487SOL     OW90185   1.080  10.457   0.236  0.6770  0.1508 -0.2169
59487SOL    HW190186   1.051  10.548   0.244  0.7873  0.2416 -0.8298
59487SOL    HW290187   1.091  10.443   0.142  0.6904 -0.4884 -0.1250
59488SOL     OW90188  13.220   7.708  11.210  0.0535  0.2068 -0.7753
59488SOL    HW190189  13.316   7.700  11.213  0.0117 -0.4995 -1.2755
59488SOL    HW290190  13.188   7.627  11.250 -0.3520  1.4086  1.5382
59489SOL     OW90191   2.503   3.015   2.514  0.0518  0.5849  0.0337
59489SOL    HW190192   2.515   2.927   2.478 -0.5063  0.4362  0.1945
59489SOL    HW290193   2.446   3.059   2.451  0.5965  0.9428 -0.2143
59490SOL     OW90194   7.515  12.638  11.148  0.7218  0.1988  0.1651
59490SOL    HW190195   7.578  12.708  11.132  0.8497  0.0721  0.1167
59490SOL    HW290196   7.544  12.566  11.092  0.5022  0.1599  0.1019
59491SOL     OW90197   2.377   7.728  13.689 -0.4588 -0.4809 -0.5339
59491SOL    HW190198   2.283   7.725  13.705 -0.5848 -0.0078 -1.1618
59491SOL    HW290199   2.385   7.751  13.596  0.2494 -2.9738 -1.1645
59492SOL     OW90200   9.861   9.980  11.508 -0.1077 -0.4961 -0.2573
59492SOL    HW190201   9.804   9.940  11.573 -0.8186  0.1848 -0.4379
59492SOL    HW290202   9.813   9.971  11.426  0.0592  0.0378 -0.4175
59493SOL     OW90203  10.213   0.210  11.259 -0.4427 -0.4831  0.0009
59493SOL    HW190204  10.210   0.301  11.289  0.1807 -0.5384  0.2534
59493SOL    HW290205  10.306   0.189  11.258 -0.6026 -1.2166  0.2379
59494SOL     OW90206   1.948   9.976   2.470  0.4768 -0.3933 -0.2625
59494SOL    HW190207   1.872  10.025   2.438 -0.1222 -1.3663 -0.3783
59494SOL    HW290208   2.000   9.958   2.392 -0.5165 -1.9708 -0.6011
59495SOL     OW90209  11.066   8.804   1.887 -0.2536  0.0547  0.1702
59495SOL    HW190210  10.983   8.838   1.853 -1.5106 -2.5834  0.2772
59495SOL    HW290211  11.103   8.756   1.813  1.1236  1.0556  0.1871
59496SOL     OW90212   5.520   2.658   1.037 -0.1668 -0.1046  0.1528
59496SOL    HW190213   5.539   2.577   0.989 -1.9159 -1.4903  1.6396
59496SOL    HW290214   5.533   2.636   1.129 -2.1942  0.7865  0.7159
59497SOL     OW90215   5.563   2.436   8.843 -0.0514 -0.2162 -0.0986
59497SOL    HW190216   5.658   2.435   8.848 -0.0309  0.2209 -0.2969
59497SOL    HW290217   5.534   2.382   8.916  0.3434  0.1449  0.3306
59498SOL     OW90218   3.336   0.681   1.657  0.2445 -1.1894 -0.1048
59498SOL    HW190219   3.303   0.694   1.746 -0.3592  0.7612 -0.5678
59498SOL    HW290220   3.429   0.659   1.669 -0.2321 -2.7058  1.0487
59499SOL     OW90221  12.203   8.885  10.477  0.4664 -0.2757  0.0454
59499SOL    HW190222  12.222   8.976  10.457 -2.1434  0.2825 -0.2355
59499SOL    HW290223  12.224   8.838  10.396 -1.8982  0.7274 -1.2576
59500SOL     OW90224   3.089  12.253   4.024  0.2181 -0.1559 -0.0493
59500SOL    HW190225   3.130  12.332   3.990 -1.6254  0.4785 -0.9152
59500SOL    HW290226   3.001  12.253   3.986 -0.0505 -2.2846  0.4548
59501SOL     OW90227   6.693  12.598   5.932 -0.0492  0.0293 -0.1328
59501SOL    HW190228   6.675  12.650   5.854 -0.0425  0.3035  0.0471
59501SOL    HW290229   6.787  12.610   5.948  0.4932 -1.9818 -1.4895
59502SOL     OW90230   9.706   0.452  11.943  0.6657 -0.3675  0.2396
59502SOL    HW190231   9.785   0.491  11.907 -0.4275  2.0796  0.3362
59502SOL    HW290232   9.674   0.395  11.873  0.4142  1.6935 -1.4310
59503SOL     OW90233   5.530   9.609   4.991  0.1122  0.2141 -0.0668
59503SOL    HW190234   5.441   9.634   4.965  0.2311  0.4857 -0.2143
59503SOL    HW290235   5.571   9.580   4.909  0.4409  0.9273 -0.1593
59504SOL     OW90236   0.400   3.561   6.343 -0.2753 -0.0869  0.2108
59504SOL    HW190237   0.434   3.473   6.327 -1.0628 -0.5350  0.8805
59504SOL    HW290238   0.460   3.599   6.407  0.1498 -0.0861 -0.1925
59505SOL     OW90239   0.571   3.023   4.321  0.0990 -0.1076  0.1484
59505SOL    HW190240   0.636   2.979   4.376  0.5427 -0.3281 -0.5251
59505SOL    HW290241   0.490   2.973   4.334  0.4924 -0.8833 -0.2887
59506SOL     OW90242  12.099  13.129  12.628  0.0222 -0.1297  0.2239
59506SOL    HW190243  12.187  13.163  12.638 -0.1254  0.2958  0.0708
59506SOL    HW290244  12.051  13.197  12.581 -0.4831 -0.2026  0.6230
59507SOL     OW90245   0.425   8.093   1.223  0.0128 -0.5719 -0.1959
59507SOL    HW190246   0.377   8.114   1.143  1.4155  0.2404 -0.8650
59507SOL    HW290247   0.482   8.020   1.198  0.7721 -0.0302 -0.0878
59508SOL     OW90248   6.867   4.881  10.096  0.1792  0.1472  0.0795
59508SOL    HW190249   6.943   4.933  10.071 -0.3314 -0.4348 -3.1231
59508SOL    HW290250   6.838   4.840  10.014 -2.3119 -1.3470  1.5796
59509SOL     OW90251  11.546   0.047   5.367 -0.6499 -0.6703 -0.3466
59509SOL    HW190252  11.605  -0.029   5.364 -1.9602 -1.6873 -1.7618
59509SOL    HW290253  11.590   0.109   5.426  1.3101 -1.8036 -0.5257
59510SOL     OW90254   8.676   6.086   0.198  0.2321  0.4884  0.1814
59510SOL    HW190255   8.728   6.009   0.220 -0.5106  0.3944  1.6981
59510SOL    HW290256   8.731   6.134   0.135  0.1657 -1.8637 -1.8235
59511SOL     OW90257   3.794   3.420   9.725  0.1148 -0.2905  0.3608
59511SOL    HW190258   3.753   3.337   9.747  0.4905 -0.8039 -0.8232
59511SOL    HW290259   3.807   3.464   9.810  0.2739 -1.5915  1.0261
59512SOL     OW90260   0.624  11.151   7.883  0.3379 -0.2053 -0.2257
59512SOL    HW190261   0.614  11.076   7.942  1.9168 -1.2128 -1.1780
59512SOL    HW290262   0.611  11.228   7.940 -2.7762 -1.1227  0.4926
59513SOL     OW90263   1.465   4.253   1.809 -0.1301  0.3959 -0.1632
59513SOL    HW190264   1.534   4.204   1.764  0.0867  1.0877 -0.5856
59513SOL    HW290265   1.428   4.311   1.743  0.6052  1.8666  0.6660
59514SOL     OW90266  13.374   1.360   2.760  0.4373  1.1832  0.2562
59514SOL    HW190267  13.377   1.453   2.784  1.4087  1.9493 -2.5151
59514SOL    HW290268  13.458   1.344   2.718  0.5377 -1.1772  1.2269
59515SOL     OW90269   1.126   2.023  13.176  0.0928  0.2040  0.4139
59515SOL    HW190270   1.104   1.967  13.250  1.1762 -0.8893 -0.0784
59515SOL    HW290271   1.217   2.047  13.190  0.4779 -0.4569 -0.8308
59516SOL     OW90272   0.422   6.326   9.511  0.5407  0.4588 -0.1224
59516SOL    HW190273   0.500   6.373   9.483  1.3368 -0.3160  0.7491
59516SOL    HW290274   0.354   6.393   9.515  1.0953  1.1112 -1.0671
59517SOL     OW90275   0.524   4.200   0.714  0.0904 -0.0388  0.0139
59517SOL    HW190276   0.524   4.238   0.626  2.1838  0.1306  0.0390
59517SOL    HW290277   0.565   4.115   0.703  0.2204 -0.0793  0.8113
59518SOL     OW90278   8.576   4.444   9.154  0.1536 -0.0304  0.2189
59518SOL    HW190279   8.622   4.378   9.102  0.4585  0.2555  0.1268
59518SOL    HW290280   8.538   4.504   9.089  2.6635  1.8081  0.3131
59519SOL     OW90281   6.773  13.691   1.833 -0.3234 -0.0437 -0.2393
59519SOL    HW190282   6.767  13.673   1.927  0.8445  0.7900  0.0096
59519SOL    HW290283   6.857  13.655   1.807  1.0098  2.7671 -0.2053
59520SOL     OW90284  13.708   6.791   4.553 -0.4947  0.0054 -0.3472
59520SOL    HW190285  13.727   6.781   4.646 -2.4683  0.9403  0.2024
59520SOL    HW290286  13.631   6.737   4.538 -1.6434  1.6996 -0.8613
59521SOL     OW90287   5.262   7.815  11.487  0.2222  0.0581 -0.9767
59521SOL    HW190288   5.242   7.721  11.491 -0.4215  0.1501 -1.8286
59521SOL    HW290289   5.347   7.820  11.443  1.1364 -0.2033  0.6535
59522SOL     OW90290   2.492  10.398   1.177 -0.2943 -0.5319 -0.2006
59522SOL    HW190291   2.532  10.389   1.091  0.5122  0.8244 -0.0151
59522SOL    HW290292   2.563  10.431   1.233 -1.3666  0.8717  0.4139
59523SOL     OW90293   3.666   0.213   5.018 -0.3651 -0.7081 -0.3290
59523SOL    HW190294   3.759   0.193   5.032 -0.4065 -0.8671 -0.2858
59523SOL    HW290295   3.633   0.235   5.105 -0.1951  0.0673 -0.4536
59524SOL     OW90296   1.151  11.218   5.874  0.3006  0.3684  0.4758
59524SOL    HW190297   1.170  11.311   5.862  1.5130  0.0806  0.0236
59524SOL    HW290298   1.233  11.180   5.905  0.4006 -0.8730 -1.1542
59525SOL     OW90299   5.436  12.029  13.020  0.5519 -0.0651  0.3405
59525SOL    HW190300   5.492  11.970  13.071 -1.6529 -1.2613  1.4899
59525SOL    HW290301   5.400  12.089  13.085  1.8343  1.8647 -0.6539
59526SOL     OW90302   9.031   8.905   3.109 -0.2435  0.4775  0.4700
59526SOL    HW190303   8.942   8.927   3.139 -0.8336 -0.9442 -0.1754
59526SOL    HW290304   9.029   8.810   3.097  0.6349  0.7067 -1.8941
59527SOL     OW90305   0.855  13.738  12.010  0.0336 -0.2255 -0.1968
59527SOL    HW190306   0.762  13.731  11.989 -0.4069 -0.2822  1.5992
59527SOL    HW290307   0.891  13.651  11.992 -0.5173 -0.5433  0.2490
59528SOL     OW90308   2.937   1.825   5.881 -0.3072  0.2625 -0.3252
59528SOL    HW190309   3.016   1.833   5.935  1.0839  0.8966 -2.3368
59528SOL    HW290310   2.943   1.738   5.843 -1.5204 -0.3580  0.7979
59529SOL     OW90311  10.858   6.996   0.514  0.7304 -0.0184  0.2276
59529SOL    HW190312  10.952   6.979   0.502  0.7835 -2.0996  2.6213
59529SOL    HW290313  10.835   6.946   0.592 -2.2851  0.9101  0.0570
59530SOL     OW90314   5.085  11.505   2.276 -0.3333 -0.2778 -0.2179
59530SOL    HW190315   5.039  11.473   2.199 -0.2527  1.2577 -0.9466
59530SOL    HW290316   5.016  11.536   2.334 -0.3278  0.6947 -0.6964
59531SOL     OW90317   5.229  12.582   3.622  0.5889 -0.3004 -0.1740
59531SOL    HW190318   5.173  12.514   3.584  0.9873  0.6866 -2.7134
59531SOL    HW290319   5.239  12.647   3.553  1.9812  1.3154  1.4317
59532SOL     OW90320  10.895  10.754   9.967  0.1010  0.3448 -0.0464
59532SOL    HW190321  10.917  10.662   9.949  0.2430  0.3730 -0.0174
59532SOL    HW290322  10.980  10.798   9.972  0.1773  0.0747  2.0796
59533SOL     OW90323  12.689  12.344   9.073 -0.8281  0.0204 -0.0881
59533SOL    HW190324  12.736  12.384   9.000 -1.2568 -0.4635 -0.6360
59533SOL    HW290325  12.598  12.341   9.045 -1.2862  1.3567  1.1549
59534SOL     OW90326   3.637   4.680   5.650  0.2823  0.1700  0.4779
59534SOL    HW190327   3.575   4.734   5.602  2.1073 -0.0572 -2.3944
59534SOL    HW290328   3.608   4.590   5.634  0.8667  0.0941 -0.1862
59535SOL     OW90329   3.343  10.355   9.311 -0.3203 -0.1774  0.0903
59535SOL    HW190330   3.300  10.440   9.323  1.0063  0.5422 -0.0457
59535SOL    HW290331   3.390  10.363   9.228  0.8172 -0.5942  0.6753
59536SOL     OW90332   8.330  13.114   1.181  0.3839  0.1733  0.4791
59536SOL    HW190333   8.266  13.149   1.119  0.7107  0.7930  0.4831
59536SOL    HW290334   8.296  13.141   1.267  2.4082  3.6391  0.3559
59537SOL     OW90335  10.811  10.461   5.654 -0.2363  0.2033 -0.4428
59537SOL    HW190336  10.810  10.372   5.688  1.6174  0.5653  0.7290
59537SOL    HW290337  10.900  10.492   5.670 -0.6741  2.0916 -1.3160
59538SOL     OW90338   6.025   9.667   8.538  0.4961  0.0031  0.1254
59538SOL    HW190339   6.058   9.750   8.503  0.1179  0.3325  0.5261
59538SOL    HW290340   6.094   9.604   8.519  1.6486  0.7985  1.4742
59539SOL     OW90341  12.797   5.439   3.699 -0.2717  0.0567  0.4641
59539SOL    HW190342  12.850   5.517   3.685  0.2710 -0.6354 -1.8909
59539SOL    HW290343  12.711   5.472   3.724 -0.1944  1.4520 -0.9721
59540SOL     OW90344   2.743   6.105  11.837  0.6285  0.3912  0.3613
59540SOL    HW190345   2.655   6.136  11.858  0.1885  0.5566 -1.4979
59540SOL    HW290346   2.738   6.079  11.745  2.1024 -1.1895  0.6610
59541SOL     OW90347   0.579   5.458   7.468 -0.0169  0.0285 -0.0456
59541SOL    HW190348   0.669   5.446   7.496 -0.3430 -0.1539  0.9753
59541SOL    HW290349   0.542   5.370   7.466 -0.6016  0.2271  1.0891
59542SOL     OW90350   1.434   5.764   4.704  0.7722 -0.3465  0.6126
59542SOL    HW190351   1.394   5.737   4.787  1.0071 -0.3905  0.7132
59542SOL    HW290352   1.366   5.750   4.639  0.6692 -0.5527  0.7624
59543SOL     OW90353   0.896   5.816  11.238  0.0814  0.7838  0.2603
59543SOL    HW190354   0.913   5.742  11.295 -0.9820  1.4283  1.4605
59543SOL    HW290355   0.977   5.867  11.240  0.3353  0.3765  0.5155
59544SOL     OW90356   9.932  12.853   3.777  0.1869  0.0168  0.4601
59544SOL    HW190357   9.970  12.770   3.749 -1.0502 -1.0178  1.7350
59544SOL    HW290358  10.007  12.906   3.803  0.9464 -0.9868  0.3645
59545SOL     OW90359   6.770  11.279   4.768  0.3036  0.2631  0.6852
59545SOL    HW190360   6.811  11.193   4.776 -1.7027 -0.6084  2.6649
59545SOL    HW290361   6.819  11.335   4.828  1.6022  0.5571 -0.5933
59546SOL     OW90362   5.528   2.988  13.444 -0.9808 -0.1710 -0.4732
59546SOL    HW190363   5.611   2.945  13.464 -0.8021  1.5127  3.1561
59546SOL    HW290364   5.546   3.082  13.456 -2.9668  0.4170 -1.5779
59547SOL     OW90365   4.362   5.690  10.522 -0.5676  0.8943 -0.2625
59547SOL    HW190366   4.410   5.638  10.587 -1.5621 -0.0161 -0.2389
59547SOL    HW290367   4.421   5.695  10.447 -0.0152  0.6844  0.1476
59548SOL     OW90368  12.188  12.524  13.650  0.2102 -0.2006  0.0063
59548SOL    HW190369  12.151  12.574  13.723 -0.7171 -0.4272 -0.2972
59548SOL    HW290370  12.204  12.589  13.582  1.5896  0.1018  0.5814
59549SOL     OW90371  13.010   5.640   1.100 -0.0123 -0.1469  0.4243
59549SOL    HW190372  13.043   5.703   1.163  0.8146 -1.6863  1.5986
59549SOL    HW290373  12.920   5.623   1.128  0.4584 -1.0764  1.4402
59550SOL     OW90374  10.553   5.764   3.036  0.2028  0.2019 -0.3884
59550SOL    HW190375  10.532   5.751   2.944 -0.9403 -0.5381 -0.0287
59550SOL    HW290376  10.503   5.698   3.083  1.0594  0.3195  0.7489
59551SOL     OW90377  12.511  13.105  11.505  0.1273  0.1494  0.3472
59551SOL    HW190378  12.603  13.083  11.491 -0.4827 -1.4163 -1.6449
59551SOL    HW290379  12.510  13.200  11.510  1.9065  0.1779  1.0857
59552SOL     OW90380   9.401   4.803   8.587  0.1873 -0.0482 -0.5306
59552SOL    HW190381   9.491   4.790   8.619  0.1350 -0.6418 -0.6035
59552SOL    HW290382   9.408   4.873   8.523  0.8840 -1.1262 -1.6915
59553SOL     OW90383   0.685   8.671   7.445 -0.5398 -0.5397  0.3462
59553SOL    HW190384   0.614   8.712   7.494 -1.5591 -2.1450  0.2807
59553SOL    HW290385   0.702   8.730   7.372 -0.8016  0.5735  1.1687
59554SOL     OW90386   0.588   1.847   3.302 -0.0978  0.4801 -0.1948
59554SOL    HW190387   0.606   1.930   3.345 -0.2940  0.7950 -0.7024
59554SOL    HW290388   0.640   1.782   3.349  0.5616  1.0016 -0.2045
59555SOL     OW90389   4.154  10.361  10.372  0.1570  0.1161 -0.3690
59555SOL    HW190390   4.211  10.378  10.296 -0.0391  2.3610 -0.0533
59555SOL    HW290391   4.079  10.419  10.360 -1.3585 -1.6349  0.0658
59556SOL     OW90392   2.316   6.687  11.491 -0.2523 -0.3583 -0.2639
59556SOL    HW190393   2.366   6.664  11.413  1.6669 -2.3186  1.4198
59556SOL    HW290394   2.338   6.779  11.508  0.4889 -0.3607 -1.1842
59557SOL     OW90395   5.812   4.437   5.899  0.4915 -0.2717  0.2740
59557SOL    HW190396   5.802   4.370   5.832 -0.9632  0.2412 -0.0563
59557SOL    HW290397   5.734   4.427   5.955  0.8448  0.3824  0.9059
59558SOL     OW90398   2.173  11.021  11.864 -0.0216 -0.2616  0.0493
59558SOL    HW190399   2.125  11.096  11.898  0.4292 -0.3797  1.0073
59558SOL    HW290400   2.161  10.953  11.930  1.2208 -0.3758  0.1943
59559SOL     OW90401   1.604   7.879   7.897  0.4040 -0.0834 -0.0979
59559SOL    HW190402   1.560   7.830   7.828 -0.7841  0.4676  0.2397
59559SOL    HW290403   1.550   7.865   7.975  0.5169  1.0325  0.2068
59560SOL     OW90404   1.011   6.733   1.490 -0.5565 -0.0826  0.2202
59560SOL    HW190405   1.029   6.641   1.508  0.0826  0.3419  2.0621
59560SOL    HW290406   0.921   6.735   1.459 -0.6190 -1.3079  0.2761
59561SOL     OW90407   6.849  11.368   0.058  0.0317  0.3739 -0.3095
59561SOL    HW190408   6.768  11.418   0.058 -1.2983 -1.6443  0.5448
59561SOL    HW290409   6.837  11.303  -0.011  1.2298  0.4832 -0.6444
59562SOL     OW90410   8.743   9.870   2.687 -0.4956 -0.0209  0.5256
59562SOL    HW190411   8.750   9.825   2.771  0.0622  0.1145  0.5525
59562SOL    HW290412   8.651   9.896   2.681 -0.1497  1.6970  1.9808
59563SOL     OW90413   8.439   2.230   1.853 -0.2459  0.4374 -0.0328
59563SOL    HW190414   8.366   2.292   1.841 -0.3418  0.6679  1.5568
59563SOL    HW290415   8.434   2.173   1.776 -3.4627 -0.9369  1.0351
59564SOL     OW90416   9.203   1.729   6.083  0.1867  0.4681  0.1366
59564SOL    HW190417   9.153   1.647   6.089  0.5716  0.2933  1.3715
59564SOL    HW290418   9.294   1.703   6.101  0.3884  1.0918  0.0582
59565SOL     OW90419   3.529   5.621  11.023 -0.4100  0.3768 -0.0560
59565SOL    HW190420   3.439   5.613  10.991  0.0730 -0.1842 -1.3221
59565SOL    HW290421   3.577   5.553  10.976  0.6749  0.6542  0.6309
59566SOL     OW90422   7.636  12.973   5.853  0.5397 -0.1358  0.1805
59566SOL    HW190423   7.625  12.878   5.850  1.3399 -0.2709  0.9633
59566SOL    HW290424   7.601  13.004   5.769 -0.0757 -1.0776  0.0726
59567SOL     OW90425   8.453  13.260   2.361  0.3567  0.0889  0.1687
59567SOL    HW190426   8.457  13.189   2.425  0.3084  0.1039  0.1886
59567SOL    HW290427   8.451  13.340   2.414 -2.8097  0.0434  0.2808
59568SOL     OW90428   4.166  12.003   6.023  0.3065  0.4729 -0.4659
59568SOL    HW190429   4.241  12.011   6.082 -1.2599  0.2748  1.6950
59568SOL    HW290430   4.091  12.033   6.076 -1.4290 -1.2296 -1.8088
59569SOL     OW90431   7.589   0.991  10.410  0.1627 -0.0475 -0.2124
59569SOL    HW190432   7.576   1.011  10.317  0.7764  1.3606 -0.0202
59569SOL    HW290433   7.672   0.943  10.413  0.0497 -0.2587 -0.4028
59570SOL     OW90434  12.347   3.765   3.778 -0.0417  0.2532 -0.2303
59570SOL    HW190435  12.281   3.717   3.727  1.1194 -3.3319  1.3367
59570SOL    HW290436  12.411   3.793   3.713 -1.1116  0.3168 -1.3033
59571SOL     OW90437   2.599  12.401   2.039 -0.2939  0.2883 -0.4020
59571SOL    HW190438   2.505  12.417   2.029 -0.7551 -1.9982 -0.3745
59571SOL    HW290439   2.628  12.374   1.952 -0.0665 -0.6583 -0.0481
59572SOL     OW90440   4.153  12.415   3.573  0.5581 -0.1532 -0.2595
59572SOL    HW190441   4.190  12.329   3.591 -0.6385 -0.6750 -0.1795
59572SOL    HW290442   4.062  12.408   3.601 -0.3047  0.2879 -2.6830
59573SOL     OW90443   0.706   3.082   7.160 -0.2821 -0.2474  0.0994
59573SOL    HW190444   0.716   3.135   7.239 -1.3945  0.6612 -0.3518
59573SOL    HW290445   0.795   3.053   7.140  0.1041  0.0205  1.3212
59574SOL     OW90446  11.757  10.224   4.033  0.4972  0.2841  0.1981
59574SOL    HW190447  11.813  10.151   4.060 -1.0951 -0.6147  1.1877
59574SOL    HW290448  11.760  10.221   3.937  1.3161 -0.3830  0.2296
59575SOL     OW90449   7.290  11.967   3.681 -0.3807  0.4181 -0.4479
59575SOL    HW190450   7.221  12.028   3.653 -1.8249 -1.8823 -2.3426
59575SOL    HW290451   7.350  11.964   3.607 -0.5832 -0.7612 -0.5793
59576SOL     OW90452   1.156   1.740   7.690 -0.4537 -0.3390 -0.1553
59576SOL    HW190453   1.215   1.809   7.659 -0.8028 -0.1190 -0.3428
59576SOL    HW290454   1.194   1.712   7.774 -0.3155  0.0914 -0.0705
59577SOL     OW90455   6.862   3.098   1.970 -0.6735  0.6838 -0.6640
59577SOL    HW190456   6.789   3.086   1.909  0.4738 -1.0110 -1.7833
59577SOL    HW290457   6.821   3.093   2.057 -1.8274 -1.0572 -1.2451
59578SOL     OW90458   8.767   9.772  12.792  0.1068  0.2921 -0.1780
59578SOL    HW190459   8.798   9.863  12.797 -1.7583  1.0033 -0.7638
59578SOL    HW290460   8.740   9.751  12.881 -0.3268  0.6468 -0.2227
59579SOL     OW90461   7.839  13.046   7.632 -0.8229  0.0647  0.0139
59579SOL    HW190462   7.924  13.018   7.665 -0.8891 -0.3149 -0.1400
59579SOL    HW290463   7.790  13.072   7.710 -0.8221 -0.4042  0.1735
59580SOL     OW90464   9.678   3.494   0.057  0.2284  0.0912 -0.0999
59580SOL    HW190465   9.605   3.470   0.113  1.8244  0.0687  2.1163
59580SOL    HW290466   9.643   3.491  -0.032 -2.3124 -0.2957  0.8479
59581SOL     OW90467   5.512  12.042   2.914 -0.5290  0.3682  0.2317
59581SOL    HW190468   5.527  12.131   2.884 -3.2984  0.8931  0.1299
59581SOL    HW290469   5.596  11.998   2.901  0.5241  2.5685 -1.0406
59582SOL     OW90470   9.737  11.901   6.576  0.1538  0.3729 -0.1835
59582SOL    HW190471   9.711  11.883   6.666 -1.3072 -0.7982 -0.7979
59582SOL    HW290472   9.777  11.819   6.546 -0.5207  0.3150 -0.9737
59583SOL     OW90473   1.226   8.180   0.673 -0.5488 -0.6291  0.1673
59583SOL    HW190474   1.304   8.225   0.640  0.2598 -1.5529  0.7615
59583SOL    HW290475   1.175   8.161   0.594 -0.6345  0.7918 -0.1477
59584SOL     OW90476   0.523  12.857   8.913  0.1812  0.4510 -0.0436
59584SOL    HW190477   0.570  12.941   8.916 -0.4665  0.8034  1.5191
59584SOL    HW290478   0.442  12.877   8.865  0.4116  0.5018 -0.4149
59585SOL     OW90479  13.508  12.838   7.431 -0.3299 -0.0191 -0.4552
59585SOL    HW190480  13.557  12.757   7.446  0.4796  0.6784  0.9547
59585SOL    HW290481  13.551  12.878   7.356 -1.3439 -1.3054 -1.7835
59586SOL     OW90482   8.069  11.553   4.550 -0.6101  0.3968  0.3116
59586SOL    HW190483   8.087  11.515   4.636 -0.1528  0.0358  0.0638
59586SOL    HW290484   8.134  11.512   4.492  0.5826  2.3105  0.2096
59587SOL     OW90485  12.462   1.175   7.490 -0.1449 -0.1602  0.8599
59587SOL    HW190486  12.467   1.081   7.475  1.4063 -0.2145  1.5748
59587SOL    HW290487  12.533   1.194   7.551 -1.1711  1.2985  1.6702
59588SOL     OW90488   0.031  10.031  11.493  0.4426  0.7701  0.2360
59588SOL    HW190489   0.085   9.954  11.472 -1.1613 -0.2611 -0.3217
59588SOL    HW290490   0.025  10.031  11.589 -0.7178 -0.7040  0.2031
59589SOL     OW90491   0.854   8.587   4.068 -0.1264  0.1378  0.4408
59589SOL    HW190492   0.837   8.601   3.975  1.8742  0.2959  0.0589
59589SOL    HW290493   0.770   8.558   4.103 -1.0645  0.5749 -1.2957
59590SOL     OW90494  12.842  12.929   7.471  0.1725 -0.0569  0.0738
59590SOL    HW190495  12.891  12.893   7.545 -2.5770 -1.8649  1.1764
59590SOL    HW290496  12.790  13.000   7.508 -0.8334 -0.6313 -0.2045
59591SOL     OW90497   5.890  10.933   0.947  0.1305 -0.4535 -0.2280
59591SOL    HW190498   5.986  10.925   0.954  0.0580 -0.0556  1.6301
59591SOL    HW290499   5.877  11.015   0.899  0.7322 -0.4169 -0.3441
59592SOL     OW90500   9.022   5.227  12.201  0.2714 -0.3223 -0.1004
59592SOL    HW190501   9.034   5.278  12.281  0.1962  0.9707 -0.8891
59592SOL    HW290502   9.110   5.204  12.173  0.3312 -0.1847 -0.0240
59593SOL     OW90503  11.564  13.574  10.525 -0.4002 -0.0524  0.3671
59593SOL    HW190504  11.509  13.559  10.448 -0.0758  0.2575  0.0697
59593SOL    HW290505  11.522  13.523  10.594  0.0356 -1.4125 -0.3219
59594SOL     OW90506   1.855   7.483  13.682 -0.0266 -0.2478  0.2296
59594SOL    HW190507   1.887   7.549  13.621  0.9870 -0.4060  0.5750
59594SOL    HW290508   1.932   7.457  13.733 -0.3770 -1.7906  0.0198
59595SOL     OW90509   8.781   2.934   4.339 -0.7332 -0.4051 -0.1767
59595SOL    HW190510   8.818   2.902   4.256 -0.3221  1.3554 -0.7313
59595SOL    HW290511   8.834   2.892   4.406  2.1402  1.6869 -0.9411
59596SOL     OW90512   4.754   1.169  12.030 -0.6163  0.4297  0.1956
59596SOL    HW190513   4.791   1.086  12.059 -1.0664  0.1815  0.0689
59596SOL    HW290514   4.752   1.223  12.109  0.2091  0.5269  0.1604
59597SOL     OW90515  12.982   8.884   0.835  0.2269 -0.1609  0.3706
59597SOL    HW190516  12.901   8.832   0.835  0.2378 -0.1957 -0.5856
59597SOL    HW290517  12.957   8.968   0.798  0.7561 -0.3877 -0.5141
59598SOL     OW90518   0.600   4.462   9.331 -0.7732  0.6190 -0.0948
59598SOL    HW190519   0.587   4.458   9.237  2.0794  0.1906 -0.5414
59598SOL    HW290520   0.685   4.504   9.342 -0.7759  0.1427  2.2598
59599SOL     OW90521  10.071  12.502   3.392  0.3978 -0.0057 -0.1415
59599SOL    HW190522  10.116  12.583   3.366  0.6693  0.2424  1.0238
59599SOL    HW290523   9.991  12.501   3.339 -0.4705  1.9244  1.0235
59600SOL     OW90524   9.676   1.778   1.567  0.0966  0.5484 -0.2471
59600SOL    HW190525   9.766   1.808   1.558 -0.5158  2.2721 -1.1183
59600SOL    HW290526   9.624   1.845   1.522 -1.6075 -0.4761  0.1067
59601SOL     OW90527   7.354   3.216  12.643  0.6355 -0.4826  0.0928
59601SOL    HW190528   7.291   3.239  12.710  0.2955  0.3265 -0.4853
59601SOL    HW290529   7.309   3.233  12.560  1.5315 -0.0615 -0.3313
59602SOL     OW90530  11.070   9.540  11.741 -0.0214  0.7350 -1.2475
59602SOL    HW190531  10.997   9.534  11.679 -0.4258  1.7310 -0.8899
59602SOL    HW290532  11.137   9.589  11.694  0.2002  0.3153 -1.3725
59603SOL     OW90533   5.524   9.935   9.830  0.4484 -0.2368  0.4688
59603SOL    HW190534   5.619   9.943   9.822  0.4281 -0.4268  0.0250
59603SOL    HW290535   5.504   9.846   9.801  0.0744  0.0025 -0.0240
59604SOL     OW90536  13.454  11.751   2.691 -0.0082  0.1933 -0.0226
59604SOL    HW190537  13.467  11.688   2.620 -1.1121  1.0669 -1.0273
59604SOL    HW290538  13.496  11.831   2.660 -0.9449  0.7320  0.0812
59605SOL     OW90539   7.121  11.918  10.103 -0.1728 -0.1981 -0.1365
59605SOL    HW190540   7.166  11.932  10.187  0.6887  0.3407 -0.6665
59605SOL    HW290541   7.137  11.826  10.082 -1.0237 -0.5379  0.6332
59606SOL     OW90542  10.987   3.017   3.440 -0.8201 -0.6226  0.2880
59606SOL    HW190543  10.984   3.004   3.535 -0.9947  0.5741  0.4614
59606SOL    HW290544  10.986   2.929   3.404 -1.3544 -1.0841  1.3838
59607SOL     OW90545  10.047   1.380   4.639  0.1009 -0.3524  0.2654
59607SOL    HW190546  10.081   1.407   4.724  0.2138 -0.1797  0.1661
59607SOL    HW290547   9.954   1.363   4.654  0.4073 -1.6847  0.7359
59608SOL     OW90548   3.048   2.592  13.488  0.5200 -0.3015  0.2701
59608SOL    HW190549   3.039   2.619  13.397  0.3557 -1.4902 -0.0919
59608SOL    HW290550   3.140   2.568  13.497  0.3898 -0.8505  0.2063
59609SOL     OW90551  11.099  10.149   0.818  0.4290 -0.2412 -0.4210
59609SOL    HW190552  11.006  10.161   0.841  0.8759 -1.2900  2.2447
59609SOL    HW290553  11.135  10.238   0.817 -0.5296  0.1693 -1.3826
59610SOL     OW90554   0.760   8.458   3.822  0.1672  0.0437 -0.3110
59610SOL    HW190555   0.751   8.370   3.856 -0.5361  0.3287  0.2637
59610SOL    HW290556   0.848   8.461   3.785  0.1683 -0.9127 -0.4019
59611SOL     OW90557   8.570   2.885   8.785  0.3500  0.1053  0.2620
59611SOL    HW190558   8.526   2.937   8.718  0.8026  0.6321  0.3579
59611SOL    HW290559   8.504   2.871   8.853 -0.5927 -1.7804 -0.9729
59612SOL     OW90560  10.320   5.664   8.750  0.0842 -0.1638  0.0046
59612SOL    HW190561  10.317   5.626   8.838  3.6144  1.3112  0.9619
59612SOL    HW290562  10.263   5.741   8.755  1.2737  0.6831  1.5445
59613SOL     OW90563   7.668  11.824  12.241  0.0261 -0.4230  0.1422
59613SOL    HW190564   7.761  11.812  12.222  0.1123 -0.8357  0.8004
59613SOL    HW290565   7.665  11.870  12.324 -0.3546 -0.7464  0.3135
59614SOL     OW90566   5.989  12.479   4.237  0.0923  0.6390 -0.6233
59614SOL    HW190567   6.020  12.393   4.211  0.7574  1.3656 -2.4193
59614SOL    HW290568   6.034  12.540   4.177 -0.3079  2.2330  0.6159
59615SOL     OW90569   3.591  13.345  12.907 -0.1250 -0.1970 -0.6746
59615SOL    HW190570   3.584  13.439  12.889  2.0422 -0.1781 -1.6975
59615SOL    HW290571   3.542  13.333  12.989  0.8701  2.1129  0.3488
59616SOL     OW90572  10.687   0.438   0.771 -0.2875  0.3741 -0.1753
59616SOL    HW190573  10.636   0.484   0.704 -1.8853 -0.1452  0.6299
59616SOL    HW290574  10.669   0.486   0.852  1.7028  1.0512 -0.0722
59617SOL     OW90575   0.026   4.534   6.594  0.3793  0.6135 -0.2292
59617SOL    HW190576   0.112   4.500   6.617  1.0692 -0.3369 -3.6502
59617SOL    HW290577  -0.035   4.483   6.648  1.8253 -0.1616  0.7373
59618SOL     OW90578   7.429   1.126  13.032 -0.3159  0.3204 -0.1780
59618SOL    HW190579   7.496   1.146  12.967 -2.2534  2.2961 -1.7085
59618SOL    HW290580   7.462   1.164  13.113  1.0651 -0.0646 -0.5402
59619SOL     OW90581   4.291   0.244   8.241 -0.5675  0.4931 -0.5646
59619SOL    HW190582   4.239   0.240   8.161  1.3816  0.4596 -1.9033
59619SOL    HW290583   4.375   0.204   8.217 -0.2373 -0.3685  1.7674
59620SOL     OW90584  10.064   6.111   1.432 -0.4269  0.0570  0.7314
59620SOL    HW190585  10.015   6.135   1.353  0.4960  0.1408  0.1653
59620SOL    HW290586   9.998   6.075   1.491 -1.0598 -0.5081 -0.2783
59621SOL     OW90587  12.894   3.653   3.092 -0.3803  0.5572  0.1874
59621SOL    HW190588  12.887   3.746   3.111  0.9984  0.6727  0.2475
59621SOL    HW290589  12.897   3.648   2.997 -1.6386  0.4591  0.1400
59622SOL     OW90590   7.653   6.931   6.112 -0.2364 -0.1102 -0.1263
59622SOL    HW190591   7.704   6.876   6.051  1.1944  0.2481  0.6915
59622SOL    HW290592   7.712   6.945   6.186 -1.2133  1.1119  0.4533
59623SOL     OW90593   1.286  11.078   3.089  0.5094  0.1146 -0.5444
59623SOL    HW190594   1.197  11.076   3.125  0.3989 -0.5202 -0.8409
59623SOL    HW290595   1.336  11.021   3.147  0.2867 -1.0805 -1.4810
59624SOL     OW90596   0.804   0.320   1.090 -0.0817  0.1566 -0.4783
59624SOL    HW190597   0.749   0.349   1.018  0.3563 -0.4359 -1.0614
59624SOL    HW290598   0.838   0.235   1.062  0.2516  0.0109  0.3396
59625SOL     OW90599   3.058  10.438   7.078  0.2817  0.3245  0.4082
59625SOL    HW190600   3.147  10.418   7.050  0.0773 -0.3953  0.2394
59625SOL    HW290601   3.031  10.361   7.128  0.2975  1.1852  1.7924
59626SOL     OW90602   3.128   2.580  10.014 -0.2489  0.4501 -0.4083
59626SOL    HW190603   3.120   2.559   9.921 -0.4684  0.2566 -0.3475
59626SOL    HW290604   3.136   2.495  10.056  1.1803  0.5755 -0.3680
59627SOL     OW90605   5.701   4.451   1.865  0.4888  0.5859  0.0384
59627SOL    HW190606   5.648   4.403   1.928 -0.2468  1.1796 -0.1178
59627SOL    HW290607   5.639   4.507   1.819  0.9591 -0.0615 -1.4424
59628SOL     OW90608   2.017   9.968   0.837 -0.4228  0.0071 -0.1327
59628SOL    HW190609   2.020   9.892   0.895  1.3194  0.6920  0.7494
59628SOL    HW290610   1.929   9.968   0.801 -1.0669 -1.3073  1.3691
59629SOL     OW90611   9.847  13.564   0.147  0.6460  0.0748 -0.2701
59629SOL    HW190612   9.933  13.528   0.168  0.0170 -0.3153  1.8633
59629SOL    HW290613   9.787  13.491   0.161  0.0049  0.0036 -2.8422
59630SOL     OW90614   7.944  13.646   6.318  0.1671  0.3017 -0.8089
59630SOL    HW190615   7.986  13.726   6.349  0.4551  0.0479 -0.5428
59630SOL    HW290616   8.002  13.576   6.345 -1.5128 -0.2925  1.6181
59631SOL     OW90617   1.295  12.598   2.498  0.1985 -0.1116 -0.3692
59631SOL    HW190618   1.222  12.560   2.451 -1.6820  1.6147  0.9837
59631SOL    HW290619   1.308  12.540   2.573  0.4794 -0.5963 -0.7806
59632SOL     OW90620   7.733   1.470  10.473  0.4338  0.6894  0.0177
59632SOL    HW190621   7.817   1.427  10.491  0.1234 -0.7743 -1.7611
59632SOL    HW290622   7.668   1.403  10.489 -0.2204  1.0690 -0.9771
59633SOL     OW90623  10.717   0.129   1.106  0.6281 -0.3438 -0.0417
59633SOL    HW190624  10.739   0.107   1.196  1.9790 -2.6354 -0.8390
59633SOL    HW290625  10.798   0.114   1.057  0.5903  2.9529 -1.3878
59634SOL     OW90626   1.538   8.968   3.298 -0.2563 -0.1517  0.8258
59634SOL    HW190627   1.586   8.932   3.223  0.2463  0.7991  0.6840
59634SOL    HW290628   1.572   8.920   3.373  0.5342  0.1385  0.6598
59635SOL     OW90629  11.056   6.826   5.155 -0.7301 -0.1510  0.3361
59635SOL    HW190630  11.038   6.757   5.218 -1.0367 -0.0236  0.3886
59635SOL    HW290631  11.141   6.861   5.181 -1.6925  1.2220  1.8910
59636SOL     OW90632  10.243   4.019   1.286  0.0297 -0.0337  0.3472
59636SOL    HW190633  10.200   4.098   1.253  0.6021  0.7732  1.4699
59636SOL    HW290634  10.175   3.975   1.338  0.0004  0.2369  0.5398
59637SOL     OW90635   8.286  11.401  13.216 -0.5035  0.1078  0.2497
59637SOL    HW190636   8.304  11.481  13.266  2.1518  0.9677 -1.8238
59637SOL    HW290637   8.325  11.331  13.270 -0.0434  0.6451  0.6354
59638SOL     OW90638   9.538  11.910  13.496 -0.0265  0.6541  0.7568
59638SOL    HW190639   9.619  11.930  13.449 -0.4285 -1.3704 -0.9939
59638SOL    HW290640   9.565  11.892  13.585  1.3440  0.7722  0.3857
59639SOL     OW90641   6.857   3.388   8.606  1.0352 -0.1462  0.2848
59639SOL    HW190642   6.819   3.319   8.552  0.7335 -0.0609  0.3891
59639SOL    HW290643   6.786   3.451   8.619  1.2107  0.0144  0.4765
59640SOL     OW90644  10.119   3.251   4.213  0.2393 -0.2533  0.2260
59640SOL    HW190645  10.194   3.192   4.208  1.7000  1.0438  3.6967
59640SOL    HW290646  10.073   3.224   4.292 -0.5850  1.5514  0.4006
59641SOL     OW90647   9.473  12.021   6.590  0.4734  0.7158 -0.1103
59641SOL    HW190648   9.439  11.950   6.536  0.1185  0.1319  0.8731
59641SOL    HW290649   9.561  11.992   6.615 -0.3214 -0.2324  1.7671
59642SOL     OW90650   8.666   6.314   4.711 -0.2453 -0.5201  0.5162
59642SOL    HW190651   8.597   6.249   4.722  0.4469 -0.9692  2.4243
59642SOL    HW290652   8.741   6.279   4.758  1.0142  0.4180 -0.6985
59643SOL     OW90653   6.020  13.113   9.486 -0.0219 -0.5944 -0.5204
59643SOL    HW190654   5.934  13.096   9.526  0.7722  1.3403  2.2989
59643SOL    HW290655   6.021  13.208   9.471  1.3514 -0.7010 -1.2476
59644SOL     OW90656   2.942   4.090   6.914  0.4178 -0.0141  0.5075
59644SOL    HW190657   2.956   4.012   6.968  0.1373 -0.8000 -0.5160
59644SOL    HW290658   3.027   4.134   6.913  0.3891  0.0924  1.6845
59645SOL     OW90659   3.438   3.282   4.927  0.4245  0.1782 -0.0882
59645SOL    HW190660   3.402   3.222   4.862  0.0912 -1.5934  1.6391
59645SOL    HW290661   3.445   3.230   5.007  1.3099  2.1197  1.1846
59646SOL     OW90662   3.087   1.161   8.010 -0.2641  0.3419 -1.0272
59646SOL    HW190663   3.181   1.144   8.004  0.0609  1.7767 -0.5662
59646SOL    HW290664   3.081   1.245   8.056 -1.8508 -0.6413  0.7031
59647SOL     OW90665   5.361   3.053  12.575 -0.5863  0.1981  0.6673
59647SOL    HW190666   5.431   3.062  12.510 -0.1513 -0.0739  1.0846
59647SOL    HW290667   5.402   3.080  12.657 -1.9186  3.2988  0.4167
59648SOL     OW90668   1.653   4.944   0.856  0.2503 -0.2782  0.2156
59648SOL    HW190669   1.640   4.857   0.818  2.6585 -0.4755 -0.3376
59648SOL    HW290670   1.584   4.952   0.922  0.2777 -2.8476  0.6765
59649SOL     OW90671   3.252   8.411  12.935 -0.1114 -0.0018 -0.5063
59649SOL    HW190672   3.294   8.353  12.872  1.7479  1.6718 -0.9319
59649SOL    HW290673   3.189   8.356  12.981  2.5485 -2.7356  0.1778
59650SOL     OW90674   7.261   5.038   1.560 -0.5484 -0.6148 -0.6085
59650SOL    HW190675   7.240   4.998   1.475 -0.1461 -1.9282 -0.1012
59650SOL    HW290676   7.327   4.980   1.598  1.7593  1.6951 -0.7987
59651SOL     OW90677   4.471  11.287   8.717  0.6640 -0.5577 -0.1006
59651SOL    HW190678   4.476  11.325   8.805  1.8449 -0.9363  0.0124
59651SOL    HW290679   4.379  11.259   8.709  0.6511 -0.9805  1.2136
59652SOL     OW90680   0.134   2.939  13.617 -0.0500  0.2273 -0.0644
59652SOL    HW190681   0.130   2.941  13.521 -0.3092  1.1119 -0.0430
59652SOL    HW290682   0.132   2.846  13.639 -0.1073  0.0180 -0.9118
59653SOL     OW90683   5.561   1.078   5.335  0.6135 -0.5787  0.2957
59653SOL    HW190684   5.488   1.119   5.382 -0.6130 -1.2792 -0.9281
59653SOL    HW290685   5.629   1.066   5.402  0.4330  1.9225  1.0472
59654SOL     OW90686   1.764   6.982  13.229  0.6698  0.3047 -0.2324
59654SOL    HW190687   1.738   7.071  13.253  0.3509  0.4257 -1.0015
59654SOL    HW290688   1.809   6.949  13.307 -0.4977  0.6076  0.5922
59655SOL     OW90689   2.081   2.248  11.895 -0.6566 -0.0863  0.5391
59655SOL    HW190690   2.072   2.166  11.945 -1.6987 -1.5305 -1.8066
59655SOL    HW290691   1.992   2.280  11.886 -0.1254  2.3114  2.8152
59656SOL     OW90692   5.291   9.322   8.342 -0.3316  0.0123  0.2679
59656SOL    HW190693   5.285   9.416   8.357  2.1265  0.0790  1.1257
59656SOL    HW290694   5.373   9.310   8.294 -1.3153 -1.5978 -1.1584
59657SOL     OW90695   9.614   3.173   6.865 -0.0763 -0.0228 -0.1520
59657SOL    HW190696   9.566   3.250   6.836 -1.9222 -1.9943 -2.7922
59657SOL    HW290697   9.698   3.177   6.819  1.4595  2.1186  2.5224
59658SOL     OW90698  12.415   4.708   9.436 -0.1655  0.3363 -0.1808
59658SOL    HW190699  12.441   4.662   9.516  1.0693 -0.2244 -0.8677
59658SOL    HW290700  12.332   4.668   9.411 -0.2860  0.1365  0.5112
59659SOL     OW90701  12.700   7.937   4.535 -0.5072  0.0689  0.2485
59659SOL    HW190702  12.781   7.898   4.566  0.3556  1.6685  0.0869
59659SOL    HW290703  12.670   7.878   4.465  0.0112 -1.0141  0.9221
59660SOL     OW90704   9.622   2.150   7.356 -0.4632 -0.3135  0.4401
59660SOL    HW190705   9.692   2.089   7.376 -1.4384 -1.3720  0.7429
59660SOL    HW290706   9.598   2.188   7.440  0.2056  0.6006  0.2419
59661SOL     OW90707  12.882   4.623   0.559  0.6483 -0.6660  0.2696
59661SOL    HW190708  12.911   4.703   0.516  0.0615 -1.2823 -1.3870
59661SOL    HW290709  12.925   4.553   0.509  0.4325 -1.4136  1.1061
59662SOL     OW90710   4.437   0.301   3.486 -0.0517  0.8876 -0.1054
59662SOL    HW190711   4.352   0.335   3.513 -1.1688 -1.1351 -0.8180
59662SOL    HW290712   4.438   0.313   3.391  0.4793  0.9546 -0.0941
59663SOL     OW90713   9.316   4.521  11.726  0.7120  0.3672 -0.4487
59663SOL    HW190714   9.372   4.457  11.768 -1.0949 -0.4024  0.9382
59663SOL    HW290715   9.293   4.583  11.796  0.6200  1.2290 -1.2187
59664SOL     OW90716   7.657   7.090  12.905  0.0149 -0.2861 -0.0981
59664SOL    HW190717   7.752   7.084  12.908  0.1441  0.7172  3.9031
59664SOL    HW290718   7.628   7.002  12.879  2.0084 -0.8600 -0.5054
59665SOL     OW90719   5.155   0.751   3.609 -0.4896 -0.0105 -0.0500
59665SOL    HW190720   5.225   0.699   3.568  1.0488  1.5430  0.4550
59665SOL    HW290721   5.186   0.765   3.699 -0.9312  1.5594 -0.1128
59666SOL     OW90722  10.914  10.723  10.312  0.2997  0.2498  0.0301
59666SOL    HW190723  10.982  10.732  10.245  1.9109  0.7640  1.6778
59666SOL    HW290724  10.940  10.646  10.363 -1.0981 -0.3418 -0.1048
59667SOL     OW90725   1.188   4.404   8.523  0.1446 -0.2750 -0.1183
59667SOL    HW190726   1.209   4.486   8.477 -1.8232  0.1734 -0.3146
59667SOL    HW290727   1.109   4.372   8.480 -0.7022 -0.8164  1.7518
59668SOL     OW90728   8.832   7.668   3.676 -0.5300 -0.0528 -0.4666
59668SOL    HW190729   8.784   7.630   3.603 -0.7248 -0.5260 -0.0904
59668SOL    HW290730   8.810   7.762   3.673  0.7245  0.2272 -1.9925
59669SOL     OW90731   8.348   1.717   6.987 -0.0156 -0.3768  0.1080
59669SOL    HW190732   8.378   1.668   7.063 -0.3313 -1.2215 -0.3029
59669SOL    HW290733   8.320   1.802   7.022 -0.2144 -0.7783  0.9295
59670SOL     OW90734   6.379   6.338   5.820 -0.1625 -0.0813  0.5172
59670SOL    HW190735   6.342   6.291   5.895 -0.9833 -1.3660 -0.6477
59670SOL    HW290736   6.388   6.272   5.752  1.4773  0.8516 -0.2378
59671SOL     OW90737   8.206   1.790  10.096 -0.1989 -0.1889 -0.0459
59671SOL    HW190738   8.271   1.853  10.065 -2.1184  2.3277  0.6782
59671SOL    HW290739   8.222   1.782  10.189 -0.5618  0.0391  0.0407
59672SOL     OW90740  12.490   9.981  13.343  0.3601 -0.5130 -0.0502
59672SOL    HW190741  12.569   9.963  13.292 -0.5562 -0.9980 -1.3558
59672SOL    HW290742  12.482   9.906  13.402  0.8399 -0.4804  0.0631
59673SOL     OW90743   3.274   5.545   9.092  0.4139 -0.2904  0.4569
59673SOL    HW190744   3.367   5.563   9.107  0.8693 -1.4145 -0.8511
59673SOL    HW290745   3.249   5.607   9.023  0.3443 -0.3872  0.3955
59674SOL     OW90746   4.262   6.276   2.456 -0.1452 -0.2114 -0.1674
59674SOL    HW190747   4.281   6.367   2.435 -1.5019  0.9472  3.0566
59674SOL    HW290748   4.167   6.269   2.448 -0.1650 -1.0332  0.6516
59675SOL     OW90749   3.304  11.217  11.727 -0.2512  0.0834 -0.3937
59675SOL    HW190750   3.375  11.280  11.716 -0.5466  0.3208 -0.9805
59675SOL    HW290751   3.256  11.220  11.644 -1.5759  0.7031  0.3594
59676SOL     OW90752   2.870   8.442   3.949 -0.1157  0.6790 -0.3080
59676SOL    HW190753   2.797   8.391   3.915 -1.1224  0.3420  2.1915
59676SOL    HW290754   2.901   8.393   4.025  1.8793  1.4936 -0.5413
59677SOL     OW90755   7.413   3.866  13.082 -0.0478 -0.2087  0.0990
59677SOL    HW190756   7.428   3.863  13.176 -1.0340  0.1233  0.2743
59677SOL    HW290757   7.381   3.779  13.059  0.7808 -0.4848 -0.0439
59678SOL     OW90758  11.434  10.316   5.078 -0.2697  0.2155 -0.1462
59678SOL    HW190759  11.378  10.262   5.022 -0.3013 -1.0340  1.0351
59678SOL    HW290760  11.514  10.328   5.027 -0.1413 -1.2389 -0.3405
59679SOL     OW90761   2.320   3.032   0.643 -0.6027  0.0151 -0.0734
59679SOL    HW190762   2.252   2.988   0.592 -1.0763 -1.9329  2.0959
59679SOL    HW290763   2.401   2.986   0.621 -0.6595 -0.2629  0.3024
59680SOL     OW90764  13.542  10.015   1.573 -0.4040  0.3187  0.6890
59680SOL    HW190765  13.552  10.071   1.650 -0.6279 -0.4142  1.2599
59680SOL    HW290766  13.454  10.032   1.541 -0.6460 -0.0643  1.1496
59681SOL     OW90767   6.168   7.313   6.436  0.1256  0.2585  0.4492
59681SOL    HW190768   6.174   7.218   6.420  0.5371  0.2596  0.5843
59681SOL    HW290769   6.223   7.327   6.513 -1.1390  0.3855  1.3456
59682SOL     OW90770   1.955   0.815   9.404  0.4042  0.1569  0.5459
59682SOL    HW190771   2.010   0.815   9.325  0.0487 -2.2211  0.2344
59682SOL    HW290772   1.917   0.903   9.406  1.2900  0.6479 -1.2996
59683SOL     OW90773   4.654   8.268   8.128 -0.2527  0.1729  0.3344
59683SOL    HW190774   4.695   8.302   8.207  0.9271  0.4893 -0.3991
59683SOL    HW290775   4.712   8.294   8.057 -1.1537 -0.3366 -0.6213
59684SOL     OW90776   0.131  10.318   0.841  0.3039 -0.1229 -0.4308
59684SOL    HW190777   0.123  10.400   0.891  1.3054  0.2159 -0.8048
59684SOL    HW290778   0.204  10.333   0.782  1.0888 -1.6074  0.1008
59685SOL     OW90779   0.789   0.187   2.923 -0.1117 -0.1827 -0.3626
59685SOL    HW190780   0.880   0.187   2.895  0.8334  1.6829  2.2821
59685SOL    HW290781   0.780   0.108   2.976  0.0812 -0.2085 -0.3686
59686SOL     OW90782   0.934  11.511   8.474  0.0418  0.1045 -0.5813
59686SOL    HW190783   0.938  11.487   8.567  0.7672  0.2661 -0.5651
59686SOL    HW290784   0.842  11.534   8.459 -0.0812  0.0689  0.0953
59687SOL     OW90785  12.145   7.951   7.197  0.1227  0.2763 -0.0854
59687SOL    HW190786  12.211   7.885   7.176 -0.1929 -0.4407  1.1127
59687SOL    HW290787  12.123   7.936   7.289 -2.7939 -0.5136 -0.8008
59688SOL     OW90788  10.068  10.526   5.338 -0.0815  0.4362  0.2477
59688SOL    HW190789  10.012  10.481   5.275  0.5995 -2.4234  1.5356
59688SOL    HW290790  10.129  10.577   5.284 -1.6190  0.7885 -1.2535
59689SOL     OW90791   3.490   9.873   4.388  0.1338  0.1859  0.0210
59689SOL    HW190792   3.482   9.885   4.482 -1.6265  0.3706 -0.1181
59689SOL    HW290793   3.520   9.783   4.377 -0.2391 -0.0257  0.7344
59690SOL     OW90794   9.683   1.146  10.056 -0.1753  0.5336  0.0442
59690SOL    HW190795   9.639   1.226  10.028  0.6484  1.1941  0.6055
59690SOL    HW290796   9.612   1.081  10.063 -1.2544  1.8241  1.8996
59691SOL     OW90797   9.508   4.049   6.111  0.3668 -0.6570  0.5992
59691SOL    HW190798   9.422   4.037   6.152 -0.2136 -1.1674 -0.7166
59691SOL    HW290799   9.498   4.126   6.055 -0.0655 -2.1438 -1.5238
59692SOL     OW90800   6.576   2.605   8.035  0.2460  0.1077  0.0525
59692SOL    HW190801   6.480   2.604   8.038  0.2142 -0.7446  3.7531
59692SOL    HW290802   6.597   2.642   7.949 -3.3416 -1.1517 -1.5760
59693SOL     OW90803   8.060  13.308   8.559 -0.1561 -0.4080 -0.5165
59693SOL    HW190804   8.023  13.389   8.525  0.3239  0.5093  1.0720
59693SOL    HW290805   8.037  13.308   8.652  0.7573 -1.5704 -0.2666
59694SOL     OW90806   6.844  11.427   3.675  0.3919 -0.0343  0.4457
59694SOL    HW190807   6.815  11.507   3.719 -1.1556 -1.1125  1.5110
59694SOL    HW290808   6.908  11.388   3.736  0.8458  0.1955  0.1157
59695SOL     OW90809   9.413   0.451  11.160 -0.0506  0.3044  0.4073
59695SOL    HW190810   9.428   0.374  11.106  0.4510  0.1707  0.7232
59695SOL    HW290811   9.410   0.524  11.098 -1.6949 -0.0896 -0.0072
59696SOL     OW90812   3.594   1.269   4.123  0.4429 -0.0741 -0.5350
59696SOL    HW190813   3.550   1.333   4.067 -0.4570  0.1391  0.3876
59696SOL    HW290814   3.545   1.188   4.109  1.6911 -0.6373 -1.8392
59697SOL     OW90815  12.973  13.631   5.037  0.0722  0.3874  0.1806
59697SOL    HW190816  12.984  13.693   5.110 -1.7811  0.6099  0.3311
59697SOL    HW290817  12.880  13.608   5.040  0.4267 -1.2942 -0.7897
59698SOL     OW90818   1.284   9.076   6.238  0.1990 -0.0935  0.0993
59698SOL    HW190819   1.371   9.039   6.220 -0.1806 -0.6809 -0.5735
59698SOL    HW290820   1.230   9.048   6.164 -0.8527 -0.6763  1.0508
59699SOL     OW90821   8.530   7.547   2.598 -0.4323  0.4674  0.2228
59699SOL    HW190822   8.481   7.628   2.613 -0.0249  0.5872  0.9284
59699SOL    HW290823   8.484   7.505   2.525 -0.1417  1.7431 -0.7280
59700SOL     OW90824  11.391  10.322  13.671  0.0531  0.3091  0.0677
59700SOL    HW190825  11.344  10.247  13.634  0.4269  0.6877 -1.2128
59700SOL    HW290826  11.321  10.384  13.695 -0.1894  0.0978 -0.0896
59701SOL     OW90827  11.232  10.700   6.311 -0.1676 -0.0352  0.3939
59701SOL    HW190828  11.286  10.776   6.334  0.5556  0.3440 -2.2436
59701SOL    HW290829  11.205  10.663   6.395  1.0813  1.9871  1.7590
59702SOL     OW90830  11.055   2.068   5.958  0.6339  0.1197 -0.2104
59702SOL    HW190831  11.107   2.127   5.903  1.2266  0.3414  0.5550
59702SOL    HW290832  10.995   2.025   5.898  1.6126 -0.0403 -1.1148
59703SOL     OW90833   3.377   0.395  11.768 -0.2747  0.1762 -0.3230
59703SOL    HW190834   3.424   0.329  11.716 -0.4951 -0.7954  0.6816
59703SOL    HW290835   3.388   0.367  11.859 -1.9004  0.5118  0.0091
59704SOL     OW90836   7.711   9.662   3.522  0.0161  0.1489 -0.3264
59704SOL    HW190837   7.755   9.655   3.437 -1.0004  1.5731 -1.0060
59704SOL    HW290838   7.768   9.719   3.574 -1.3148  2.7456 -1.5064
59705SOL     OW90839   2.077  12.745   5.314 -0.2523 -0.4298  0.1346
59705SOL    HW190840   2.034  12.667   5.349 -1.7199 -0.2588 -1.2116
59705SOL    HW290841   2.006  12.801   5.284  0.6996  1.9172  1.9460
59706SOL     OW90842  13.358  12.153   6.923  1.1164 -0.1817  0.1361
59706SOL    HW190843  13.279  12.102   6.903  0.0297  1.9378 -1.4064
59706SOL    HW290844  13.338  12.197   7.006  1.0317 -0.2988  0.1780
59707SOL     OW90845   7.102  10.128   1.668 -0.3303  0.3124  0.6753
59707SOL    HW190846   7.174  10.132   1.731 -0.5977  0.4424  0.9743
59707SOL    HW290847   7.074  10.219   1.657 -0.6687  0.2283  0.8148
59708SOL     OW90848  12.157   8.190   5.278 -0.2973 -0.3018  0.2988
59708SOL    HW190849  12.073   8.227   5.251 -0.7861 -1.6908 -0.1599
59708SOL    HW290850  12.196   8.158   5.197  0.4260 -0.1980  0.5980
59709SOL     OW90851   8.667  12.738  12.902  0.4753  0.1433  0.0812
59709SOL    HW190852   8.671  12.649  12.936 -0.0706  0.3280  0.6431
59709SOL    HW290853   8.744  12.781  12.939  0.3262  0.1178  0.4190
59710SOL     OW90854   6.100  11.707   2.811 -0.4004 -0.3703 -0.4571
59710SOL    HW190855   6.080  11.752   2.729 -1.3421  1.0565  0.5037
59710SOL    HW290856   6.019  11.713   2.861  0.5228 -0.1332  1.0571
59711SOL     OW90857   0.987   9.668   3.232  0.4261  0.0926  0.0458
59711SOL    HW190858   0.902   9.632   3.258  0.7928  0.9465  2.7481
59711SOL    HW290859   0.966   9.752   3.191 -0.0592  0.0929  0.2789
59712SOL     OW90860   1.755   5.972   4.789 -0.7096  0.0951 -0.1267
59712SOL    HW190861   1.663   5.996   4.775 -0.9784 -0.6717  0.2861
59712SOL    HW290862   1.772   5.903   4.725 -1.0842 -1.3448  1.2890
59713SOL     OW90863   6.549  13.277   8.905  0.0321 -0.0133  0.0886
59713SOL    HW190864   6.566  13.254   8.813  0.4769  0.4373  0.0529
59713SOL    HW290865   6.544  13.372   8.905 -0.6079 -0.0429  0.4323
59714SOL     OW90866   6.060   1.541   3.470 -0.1507 -0.3358  0.0578
59714SOL    HW190867   6.120   1.612   3.445 -0.6370  0.0317 -0.0992
59714SOL    HW290868   6.041   1.557   3.562 -0.1829 -0.3155  0.0480
59715SOL     OW90869   1.818  10.609  11.667  0.1350  0.4551  0.6569
59715SOL    HW190870   1.870  10.597  11.746 -0.9151 -0.2916  1.2585
59715SOL    HW290871   1.749  10.671  11.693 -0.1390  0.3033  0.2993
59716SOL     OW90872  13.441   1.003  11.309  0.4999 -0.1233  0.1797
59716SOL    HW190873  13.467   1.059  11.235  1.9562  0.1269  0.8374
59716SOL    HW290874  13.355   1.037  11.335  0.3107  0.2822 -0.9095
59717SOL     OW90875  11.322   5.592   2.492  0.6696  0.8119 -0.3927
59717SOL    HW190876  11.345   5.523   2.555  0.7761  1.8892  0.7977
59717SOL    HW290877  11.260   5.550   2.432  0.5339 -0.2499  0.4557
59718SOL     OW90878  10.327   5.214   0.781  0.1794  1.0008 -0.5001
59718SOL    HW190879  10.274   5.148   0.825  0.0404 -0.1867 -2.3296
59718SOL    HW290880  10.392   5.241   0.846 -1.9678  1.7331  1.4540
59719SOL     OW90881  12.074   4.505  11.115  0.3521 -0.2076  0.6863
59719SOL    HW190882  12.062   4.411  11.126  1.0591 -0.7311 -2.0532
59719SOL    HW290883  11.992   4.535  11.076  0.4397  0.1532  0.7758
59720SOL     OW90884   4.849   0.070   0.070  0.1205  0.5998 -0.1203
59720SOL    HW190885   4.860   0.162   0.094  0.2166  0.7559 -0.7429
59720SOL    HW290886   4.937   0.041   0.043  0.9965 -0.7523  3.5820
59721SOL     OW90887   5.476   1.473   6.886  0.4444 -0.0140  0.0365
59721SOL    HW190888   5.516   1.386   6.885 -0.2085 -0.3658  1.7771
59721SOL    HW290889   5.401   1.465   6.827 -0.9846 -1.3663  1.9499
59722SOL     OW90890   8.439   9.272   0.566 -0.5473 -0.4789 -0.2891
59722SOL    HW190891   8.425   9.309   0.479 -1.6503  1.4240  0.6241
59722SOL    HW290892   8.359   9.222   0.585  0.5220 -2.6419 -1.1103
59723SOL     OW90893   6.884   4.245   1.287 -0.1163  0.1734 -0.9894
59723SOL    HW190894   6.930   4.163   1.306 -0.2342  0.4330  0.5239
59723SOL    HW290895   6.882   4.249   1.191 -2.8902 -3.1776 -1.2523
59724SOL     OW90896   1.570  11.121   8.721 -0.2429  0.3180  0.2323
59724SOL    HW190897   1.626  11.117   8.798 -1.1150  0.4209  0.8860
59724SOL    HW290898   1.485  11.151   8.754 -0.8636 -0.4268 -0.6275
59725SOL     OW90899   7.331   8.425   8.129  0.5875  0.4904 -0.7275
59725SOL    HW190900   7.390   8.362   8.170  1.8023  1.4886 -0.8896
59725SOL    HW290901   7.257   8.431   8.190 -0.2734 -2.1155 -1.3922
59726SOL     OW90902   9.376   9.670   2.106 -0.3109 -0.0618  0.1180
59726SOL    HW190903   9.372   9.740   2.171  0.1941 -0.0442  0.1327
59726SOL    HW290904   9.423   9.708   2.032 -3.0457  0.7680 -1.3534
59727SOL     OW90905   3.876   3.207  13.523  0.0860  0.1540  0.4931
59727SOL    HW190906   3.835   3.285  13.561  1.6060  1.2438 -0.0145
59727SOL    HW290907   3.890   3.229  13.431  1.5698 -0.2480  0.5956
59728SOL     OW90908   9.750   6.002  12.052 -0.4664 -0.4349  0.0348
59728SOL    HW190909   9.822   6.066  12.051 -1.3391  0.5732 -0.0973
59728SOL    HW290910   9.784   5.928  12.002  0.2086  0.3459 -0.7093
59729SOL     OW90911  10.118   5.486   7.459  0.3371 -0.3215 -0.2468
59729SOL    HW190912  10.139   5.553   7.523 -2.0933  1.8080 -1.5240
59729SOL    HW290913  10.064   5.423   7.506  1.1569 -0.4906  0.5065
59730SOL     OW90914  12.231   8.074   5.522 -0.4140 -0.2213 -0.0073
59730SOL    HW190915  12.197   8.139   5.461  1.3527 -0.8975 -1.8489
59730SOL    HW290916  12.236   7.993   5.471  0.7428 -0.9286  1.1549
59731SOL     OW90917   1.294  10.395   2.434  0.0351  0.5827 -0.3304
59731SOL    HW190918   1.220  10.402   2.374  0.1210  0.6616 -0.4261
59731SOL    HW290919   1.272  10.320   2.489 -0.2176  0.7383 -0.2182
59732SOL     OW90920   6.638   1.613  10.067 -0.1255  0.0768 -0.3345
59732SOL    HW190921   6.553   1.570  10.078  0.3651 -1.3528 -1.6522
59732SOL    HW290922   6.701   1.550  10.101  0.4943  0.5376 -0.6146
59733SOL     OW90923   7.813   8.009   3.962  0.6490  0.3483 -0.0459
59733SOL    HW190924   7.761   7.942   4.007 -1.1694  0.7230 -1.4766
59733SOL    HW290925   7.887   7.960   3.925 -0.3218 -0.8016 -0.5510
59734SOL     OW90926   0.059   0.223   3.918 -0.1326 -0.0217 -0.1847
59734SOL    HW190927   0.034   0.288   3.853  0.3380  2.8109  2.2899
59734SOL    HW290928  -0.020   0.211   3.971 -0.4122 -2.0673 -0.9411
59735SOL     OW90929   3.453  13.226   6.576 -0.2805  0.2233  0.1638
59735SOL    HW190930   3.386  13.162   6.550  1.3110 -0.3155 -3.2506
59735SOL    HW290931   3.518  13.174   6.623 -1.1073  0.2963  1.4348
59736SOL     OW90932   9.429   1.914   2.783 -0.3769 -0.6653  0.2531
59736SOL    HW190933   9.409   1.823   2.758  2.7183 -1.0177 -1.5360
59736SOL    HW290934   9.495   1.905   2.852 -1.3132  0.3013  1.3082
59737SOL     OW90935   9.454   5.812   5.881  0.3862 -0.1057  0.1197
59737SOL    HW190936   9.484   5.831   5.970  1.5854 -1.7220  0.1137
59737SOL    HW290937   9.387   5.744   5.892 -0.8033  1.0000 -0.1146
59738SOL     OW90938   1.542   8.111   6.155  0.0720  0.3631  0.4547
59738SOL    HW190939   1.483   8.102   6.230  2.0520  0.2523  2.0801
59738SOL    HW290940   1.587   8.193   6.170 -0.9160  1.4063 -1.7604
59739SOL     OW90941   1.749  12.851   0.917  0.4748 -0.0390  0.2484
59739SOL    HW190942   1.687  12.874   0.987 -0.8028 -0.0828 -0.8162
59739SOL    HW290943   1.794  12.773   0.950  0.2316  0.2049  1.2064
59740SOL     OW90944   7.683   8.281   5.056  0.4703  0.6179 -0.2773
59740SOL    HW190945   7.658   8.329   5.136  0.1280 -0.4622  0.2857
59740SOL    HW290946   7.736   8.208   5.087  0.5248  0.3142 -1.0616
59741SOL     OW90947   4.782  12.140   3.302 -0.3945  0.0680  0.4092
59741SOL    HW190948   4.734  12.092   3.235 -2.6941  1.4667  0.9158
59741SOL    HW290949   4.783  12.231   3.270 -0.7533  0.5935  1.7873
59742SOL     OW90950   5.932  11.897   4.651  0.2886 -0.4259  0.1025
59742SOL    HW190951   5.970  11.822   4.697 -0.3412 -0.3124  0.8347
59742SOL    HW290952   5.939  11.875   4.559 -0.3016 -1.5897  0.3216
59743SOL     OW90953   4.663   8.622   7.522 -0.4462 -0.6887 -0.0762
59743SOL    HW190954   4.648   8.533   7.555 -0.7400 -0.8550 -0.6489
59743SOL    HW290955   4.577   8.654   7.496 -0.5846  0.3663  1.5800
59744SOL     OW90956   0.802   4.130   5.827 -0.0685  0.1068  0.8423
59744SOL    HW190957   0.816   4.123   5.921  1.7031 -0.9482  0.5262
59744SOL    HW290958   0.890   4.135   5.789 -0.5531 -2.7718 -0.9847
59745SOL     OW90959  13.464   4.891  11.513  0.2391  0.2443 -0.0184
59745SOL    HW190960  13.391   4.946  11.487  0.8701  0.2718 -1.8732
59745SOL    HW290961  13.542   4.946  11.501  0.6878 -0.2641  0.4616
59746SOL     OW90962   9.535  12.289   9.726  0.5174 -0.5048  0.1787
59746SOL    HW190963   9.464  12.326   9.780  2.1545 -0.3668  2.3751
59746SOL    HW290964   9.501  12.203   9.699 -0.4070 -0.5465  1.3730
59747SOL     OW90965   3.454   7.663   5.937 -0.7313 -0.1499 -0.0203
59747SOL    HW190966   3.477   7.756   5.944 -1.3647 -0.0108  0.2675
59747SOL    HW290967   3.386   7.650   6.002  0.6783 -1.2590  1.3093
59748SOL     OW90968   4.429   2.188   0.585  0.3234 -0.0809 -0.4223
59748SOL    HW190969   4.451   2.266   0.636  0.3881 -1.0711  1.1317
59748SOL    HW290970   4.484   2.119   0.622  0.7432 -0.7507 -2.1889
59749SOL     OW90971  12.242   5.070  10.788  0.0215  0.0378  0.1633
59749SOL    HW190972  12.169   5.016  10.758  0.1579 -0.2590  0.3639
59749SOL    HW290973  12.211   5.110  10.869  0.7018 -1.4845  1.2215
59750SOL     OW90974   0.821   3.765   1.506  0.0001 -0.0697 -0.2800
59750SOL    HW190975   0.770   3.770   1.586 -0.0184  1.1201 -0.3507
59750SOL    HW290976   0.850   3.673   1.501 -1.1727 -0.4893  0.3350
59751SOL     OW90977  10.394  11.360  12.662  0.0261 -0.0984 -0.0603
59751SOL    HW190978  10.462  11.402  12.609  0.9550 -1.8647 -0.3102
59751SOL    HW290979  10.333  11.324  12.597  1.3582 -2.5859 -0.0214
59752SOL     OW90980   9.472   4.122   7.176  0.1744  0.5833  0.1757
59752SOL    HW190981   9.568   4.132   7.172  0.5246  0.6865  4.3542
59752SOL    HW290982   9.455   4.036   7.139  2.1456 -0.1811  0.9048
59753SOL     OW90983   1.414  10.147   4.627  0.0613  0.6121 -0.2660
59753SOL    HW190984   1.377  10.234   4.612 -0.9599  0.2007 -0.2395
59753SOL    HW290985   1.403  10.102   4.543 -1.4169 -0.1825  0.3088
59754SOL     OW90986   7.772   0.939   3.812 -0.1521 -0.4652  0.2781
59754SOL    HW190987   7.775   0.921   3.906  0.3145 -1.1485  0.1409
59754SOL    HW290988   7.821   0.867   3.772 -0.1998 -0.0916 -0.4778
59755SOL     OW90989   4.463  11.140   7.014  0.3925 -0.3775 -0.2588
59755SOL    HW190990   4.505  11.070   7.064 -0.4554 -1.6952 -1.3272
59755SOL    HW290991   4.369  11.123   7.024  0.1589  0.8605 -0.2001
59756SOL     OW90992   8.708  12.339   2.320 -0.1245  0.0240  0.0178
59756SOL    HW190993   8.752  12.271   2.268  1.6884  1.2522 -0.1644
59756SOL    HW290994   8.707  12.305   2.409  1.8861  0.1976  0.1613
59757SOL     OW90995   0.572   7.572   0.590 -0.3045  0.1427  0.0856
59757SOL    HW190996   0.586   7.645   0.529 -0.6449  0.2297  0.1074
59757SOL    HW290997   0.556   7.614   0.674 -1.3179  0.0811 -0.0587
59758SOL     OW90998   3.412   9.201   6.393 -0.0984 -0.4190  0.1583
59758SOL    HW190999   3.320   9.228   6.388  0.1249  0.8080  1.9232
59758SOL    HW291000   3.412   9.127   6.454 -0.1146 -1.6210 -1.2468
59759SOL     OW91001   5.128  10.268   6.791 -0.0910  0.7727  0.5001
59759SOL    HW191002   5.130  10.363   6.793 -0.3912  0.7587  1.7793
59759SOL    HW291003   5.081  10.247   6.710 -2.3701  1.7611  1.4878
59760SOL     OW91004  10.931   1.011   9.704 -0.3127  1.0459  0.1008
59760SOL    HW191005  10.858   1.028   9.645 -0.1079 -2.0658 -1.2343
59760SOL    HW291006  10.966   0.927   9.675  0.4069 -0.2392  4.0829
59761SOL     OW91007   9.292   2.508   9.523 -0.2614  0.3055 -0.0491
59761SOL    HW191008   9.241   2.434   9.492  1.1248 -0.3223 -0.9358
59761SOL    HW291009   9.350   2.472   9.590  0.5067  0.5285 -0.5698
59762SOL     OW91010   5.395   4.575   2.736  0.2003  0.2659 -0.6474
59762SOL    HW191011   5.486   4.606   2.734  0.7422 -1.1694  0.1913
59762SOL    HW291012   5.359   4.611   2.816  0.4666 -0.2820 -0.2753
59763SOL     OW91013  13.615   2.489   0.832 -0.0411  0.1012  0.0950
59763SOL    HW191014  13.646   2.488   0.922 -0.7808  0.5652  0.3634
59763SOL    HW291015  13.585   2.579   0.818  0.3332  0.1048 -0.7020
59764SOL     OW91016   3.680  13.229   7.703 -0.0964  0.3085 -0.3877
59764SOL    HW191017   3.601  13.281   7.713 -0.2116 -0.0501  0.6479
59764SOL    HW291018   3.732  13.247   7.781  2.0831  2.5524 -2.1875
59765SOL     OW91019  12.693  10.784   9.657 -0.0105 -0.0289 -0.4553
59765SOL    HW191020  12.632  10.771   9.584  0.4114  1.6200 -1.1400
59765SOL    HW291021  12.637  10.780   9.735 -0.7764  0.0709 -0.9843
59766SOL     OW91022   0.389   8.054   1.879 -0.7507 -0.3078  0.6586
59766SOL    HW191023   0.428   8.119   1.938 -0.9427 -0.1140  0.5746
59766SOL    HW291024   0.295   8.059   1.896 -0.8061 -0.2673  0.3547
59767SOL     OW91025  12.653  11.924   8.263 -0.1621 -0.3708  0.2206
59767SOL    HW191026  12.676  11.865   8.191 -0.1616  0.4601 -0.4710
59767SOL    HW291027  12.718  11.994   8.259 -0.3699 -0.1364  0.8080
59768SOL     OW91028   4.997   9.689   6.622 -0.4746  0.4240 -0.2307
59768SOL    HW191029   5.010   9.709   6.529  0.9342  0.5014 -0.0374
59768SOL    HW291030   4.962   9.600   6.623 -1.4304  0.7773 -0.8642
59769SOL     OW91031  10.884   6.279  11.315 -0.1013 -0.4054  0.4043
59769SOL    HW191032  10.963   6.331  11.331  0.3765 -1.2165  0.7583
59769SOL    HW291033  10.909   6.190  11.338 -0.3692 -1.1149 -1.8021
59770SOL     OW91034   7.568   7.272  10.048  0.6846 -0.1066  0.2506
59770SOL    HW191035   7.536   7.323   9.973 -0.8892 -1.0025  0.2717
59770SOL    HW291036   7.659   7.253  10.027  0.2458 -0.4472 -1.5139
59771SOL     OW91037  10.785   2.305   3.330  0.0579 -0.8000 -0.4766
59771SOL    HW191038  10.874   2.276   3.310  0.5376  0.0415  0.3408
59771SOL    HW291039  10.797   2.373   3.397 -1.1832 -0.4963 -0.5463
59772SOL     OW91040   2.198   2.858   7.371 -0.3418  0.7009  0.2005
59772SOL    HW191041   2.276   2.851   7.426  1.3362  0.9773 -1.9792
59772SOL    HW291042   2.169   2.768   7.358  1.7337  0.2126 -1.6802
59773SOL     OW91043   9.132  10.406   8.447  0.8762 -0.0686  0.1835
59773SOL    HW191044   9.153  10.485   8.497  0.7068  1.0681 -1.4597
59773SOL    HW291045   9.136  10.335   8.511  2.7915  1.0203  1.3621
59774SOL     OW91046   3.841   1.358  12.262 -0.1231  0.2076 -0.4392
59774SOL    HW191047   3.904   1.306  12.213 -0.7049 -0.7728 -0.1649
59774SOL    HW291048   3.760   1.350  12.212 -1.0214 -1.7011  1.1991
59775SOL     OW91049   1.436   5.105  10.972 -0.1813 -0.1616  0.5266
59775SOL    HW191050   1.467   5.168  11.037 -2.1343  1.1513  0.2811
59775SOL    HW291051   1.443   5.152  10.889  1.4909 -1.5209 -0.1646
59776SOL     OW91052   9.142   5.411   8.971  0.2855 -0.3104 -0.2680
59776SOL    HW191053   9.180   5.401   9.058 -1.4952 -1.1707  0.4539
59776SOL    HW291054   9.134   5.505   8.958  0.0308 -0.1874  0.7483
59777SOL     OW91055  13.406   3.461   5.931 -0.1821 -0.5120  0.0371
59777SOL    HW191056  13.451   3.470   6.015  1.7146  0.9064 -1.0363
59777SOL    HW291057  13.372   3.372   5.931  0.9605 -0.9982  1.7634
59778SOL     OW91058   1.564  11.198   9.636 -0.0450 -0.1725  0.5575
59778SOL    HW191059   1.551  11.218   9.729  0.9088 -2.4286  1.2478
59778SOL    HW291060   1.658  11.188   9.626 -0.3009 -2.5467 -0.0040
59779SOL     OW91061  12.945  10.896   1.826 -0.4867 -0.0481  0.1932
59779SOL    HW191062  13.020  10.889   1.767 -0.6442  0.0054 -0.0161
59779SOL    HW291063  12.871  10.914   1.768 -0.5107  0.7931  0.4717
59780SOL     OW91064  10.595   6.368   1.105  0.5045  0.0939  0.3767
59780SOL    HW191065  10.671   6.311   1.116  0.1368 -0.6857 -0.9331
59780SOL    HW291066  10.523   6.321   1.146  0.0990 -0.6471 -1.1305
59781SOL     OW91067   4.971  11.695   8.361 -0.4896  0.1246 -0.1916
59781SOL    HW191068   4.980  11.627   8.428 -1.7258 -0.3512 -0.4666
59781SOL    HW291069   4.946  11.773   8.410  0.4359  0.2596  0.0768
59782SOL     OW91070   3.272  10.118   4.418 -0.1919 -0.5551 -0.2283
59782SOL    HW191071   3.207  10.178   4.452 -0.5763 -0.2445 -1.4425
59782SOL    HW291072   3.351  10.134   4.470 -0.7670 -0.1607  0.5251
59783SOL     OW91073  11.133   7.145  10.342  0.0744  0.1284  0.1178
59783SOL    HW191074  11.091   7.084  10.281  0.0013  0.5297 -0.2342
59783SOL    HW291075  11.095   7.230  10.322 -1.3477  0.0100  1.9594
59784SOL     OW91076   5.373   4.677   8.972 -0.1003  0.3851 -0.0037
59784SOL    HW191077   5.462   4.643   8.975  0.6129  2.2159  0.1246
59784SOL    HW291078   5.375   4.757   9.024 -2.0405  0.0143  0.7634
59785SOL     OW91079   9.572  13.464  10.467  0.0345 -0.4747  0.5748
59785SOL    HW191080   9.597  13.474  10.559  2.5222 -0.9006  0.0290
59785SOL    HW291081   9.547  13.372  10.459 -0.8466 -0.2755  0.9463
59786SOL     OW91082   6.147   7.351  10.612  0.4208  0.0879 -0.1738
59786SOL    HW191083   6.055   7.340  10.637  0.5789  0.7750  0.8136
59786SOL    HW291084   6.175   7.264  10.585  0.2033 -0.7828  2.1402
59787SOL     OW91085  12.033  12.672   7.988 -0.4733  0.4925  0.0161
59787SOL    HW191086  12.081  12.591   7.974 -2.3852 -1.6226  4.1434
59787SOL    HW291087  11.960  12.667   7.926 -0.2212 -0.6205 -0.2107
59788SOL     OW91088  12.983   1.265  11.590 -0.6991 -0.1288  0.5824
59788SOL    HW191089  13.074   1.290  11.573 -0.4986 -0.2503  1.4138
59788SOL    HW291090  12.990   1.185  11.642 -1.3202 -1.2680 -1.0087
59789SOL     OW91091   5.209   0.745   4.077  0.4205 -0.6698  0.4951
59789SOL    HW191092   5.183   0.698   4.157  1.6143  0.3291  1.5036
59789SOL    HW291093   5.212   0.837   4.104 -1.0091 -0.0709 -1.2121
59790SOL     OW91094   6.604  10.281   9.534  0.6620 -0.1787 -0.0740
59790SOL    HW191095   6.526  10.320   9.495  0.3427 -1.7537 -1.1166
59790SOL    HW291096   6.677  10.333   9.500  0.1095  1.1838  0.7528
59791SOL     OW91097   7.986   4.921   5.700 -0.6480  0.2887 -0.6734
59791SOL    HW191098   7.934   4.999   5.681  0.7723  1.4282 -0.1239
59791SOL    HW291099   7.946   4.884   5.779  0.8066  2.6256  1.2991
59792SOL     OW91100   6.620  12.399   3.949  0.1217 -0.5770  0.6441
59792SOL    HW191101   6.596  12.422   3.860 -0.6116  0.7191  1.1488
59792SOL    HW291102   6.705  12.440   3.963  0.7995 -1.7754  0.1778
59793SOL     OW91103  10.110  11.680  12.646 -0.0441 -0.1927 -0.2509
59793SOL    HW191104  10.024  11.687  12.688 -0.3984 -1.6506 -0.6756
59793SOL    HW291105  10.147  11.768  12.651 -1.3921  0.3601  0.3112
59794SOL     OW91106   3.690   8.325   5.886 -0.2354 -0.3961 -0.2172
59794SOL    HW191107   3.758   8.260   5.871 -0.2224 -0.2605 -0.7821
59794SOL    HW291108   3.716   8.369   5.967  1.4657  1.0162 -1.4290
59795SOL     OW91109   3.599  11.828   9.308 -0.3638  0.4670  0.0916
59795SOL    HW191110   3.589  11.902   9.249  0.6359  1.2716  0.9040
59795SOL    HW291111   3.584  11.751   9.253  0.7514  1.1863 -1.2639
59796SOL     OW91112   7.981   3.910   6.373  0.4012  0.2241 -0.1037
59796SOL    HW191113   8.042   3.951   6.434  0.6339 -0.6123  0.2445
59796SOL    HW291114   7.978   3.818   6.401 -0.2012  0.0327 -0.7772
59797SOL     OW91115   6.091   0.716   8.440  0.3898 -0.1414 -0.2203
59797SOL    HW191116   6.134   0.686   8.360 -2.0696  1.8177 -2.4579
59797SOL    HW291117   6.139   0.794   8.466  0.1921  0.1922 -0.8273
59798SOL     OW91118   8.078   5.452   0.886  0.4619  0.5631  0.3514
59798SOL    HW191119   8.101   5.364   0.857  0.1339  0.0217  1.6698
59798SOL    HW291120   7.997   5.472   0.840  0.1460 -0.1264  0.5980
59799SOL     OW91121   1.721   9.649  12.514 -0.0039  0.2528 -0.4311
59799SOL    HW191122   1.761   9.577  12.464  0.9645 -0.9791  1.9381
59799SOL    HW291123   1.631   9.621  12.528  0.3702 -0.5974  0.4919
59800SOL     OW91124   4.400   1.688   8.267 -0.1134  0.7231 -0.6195
59800SOL    HW191125   4.434   1.772   8.236 -0.8565  0.5632 -1.9245
59800SOL    HW291126   4.431   1.624   8.203  0.1940  0.0327  0.1970
59801SOL     OW91127  13.551  12.824   9.383  0.0927 -0.7415 -0.3317
59801SOL    HW191128  13.606  12.773   9.443 -0.4909 -0.9071  0.0709
59801SOL    HW291129  13.564  12.915   9.410  1.9994 -0.5228 -1.7511
59802SOL     OW91130   0.304  12.435  13.073 -0.2741 -0.1231 -0.0003
59802SOL    HW191131   0.385  12.418  13.123  0.0432  0.9266 -0.1445
59802SOL    HW291132   0.317  12.386  12.992  0.8390  1.1120 -0.6095
59803SOL     OW91133   1.109   2.108  13.507 -0.1177  0.3982 -0.3699
59803SOL    HW191134   1.037   2.081  13.563 -0.0101  0.2579 -0.2969
59803SOL    HW291135   1.150   2.026  13.479 -0.1505  0.4711 -0.6240
59804SOL     OW91136   5.375   3.183   2.409  0.2258 -0.0102  0.1734
59804SOL    HW191137   5.302   3.206   2.353 -1.2727 -0.9536  1.6402
59804SOL    HW291138   5.425   3.118   2.359 -1.1286 -0.9089 -0.0436
59805SOL     OW91139  11.506  12.501   8.141 -0.0149 -0.4454  0.3689
59805SOL    HW191140  11.535  12.409   8.138 -0.1172 -0.4683  0.1030
59805SOL    HW291141  11.538  12.532   8.226  1.0938 -0.3661 -0.0538
59806SOL     OW91142  11.210   6.952   5.364 -0.3787 -0.3511  0.1420
59806SOL    HW191143  11.232   6.982   5.452 -1.0599 -0.1614  0.2545
59806SOL    HW291144  11.123   6.989   5.347 -0.4516 -0.7697 -0.4265
59807SOL     OW91145   3.797   6.886  12.609 -0.0940 -0.2840  0.3742
59807SOL    HW191146   3.746   6.923  12.682  3.0225  2.0377  1.5879
59807SOL    HW291147   3.861   6.829  12.651  0.7455 -0.1665 -0.7132
59808SOL     OW91148  13.711   7.909  13.555 -0.1195  0.1466 -0.3407
59808SOL    HW191149  13.748   7.845  13.615 -0.2806 -1.1273 -1.5486
59808SOL    HW291150  13.616   7.904  13.569 -0.1357  0.0864 -0.4667
59809SOL     OW91151   8.267  10.152   9.592 -0.4656  0.0202  0.2888
59809SOL    HW191152   8.219  10.137   9.674 -1.6798  1.4753 -0.1258
59809SOL    HW291153   8.255  10.070   9.543 -1.4272 -0.1259  0.7369
59810SOL     OW91154   1.070   1.206   5.298 -0.8757 -0.1824  0.1623
59810SOL    HW191155   1.108   1.194   5.385 -0.0441 -1.7868 -0.3743
59810SOL    HW291156   0.990   1.256   5.313  0.2019  1.2076  1.6182
59811SOL     OW91157   5.251  12.280  12.375  0.7779 -0.6501 -0.3093
59811SOL    HW191158   5.318  12.219  12.343  1.6311  0.9445 -1.7346
59811SOL    HW291159   5.291  12.324  12.450  1.3688  0.3068 -1.1650
59812SOL     OW91160  12.682  13.457  11.825 -0.2729 -0.2763  0.5970
59812SOL    HW191161  12.647  13.368  11.826  0.3292 -0.5153  0.6155
59812SOL    HW291162  12.713  13.471  11.915  0.2033 -0.2784  0.4349
59813SOL     OW91163   7.492   2.240  10.403 -0.5208  0.0811 -0.2582
59813SOL    HW191164   7.562   2.174  10.406  0.5920  1.1760 -0.7786
59813SOL    HW291165   7.482   2.269  10.493 -1.4917 -1.2363  0.0863
59814SOL     OW91166  13.183   3.142   2.584  0.2807  0.2076  0.3924
59814SOL    HW191167  13.123   3.216   2.579  1.1942  1.0473  1.2913
59814SOL    HW291168  13.173   3.097   2.501 -0.4520  1.2253 -0.0920
59815SOL     OW91169   5.900   3.921   6.739  0.3812 -0.4426  0.1464
59815SOL    HW191170   5.829   3.982   6.758 -0.1512 -1.3992  1.3318
59815SOL    HW291171   5.980   3.972   6.753  0.0045  1.0051 -2.3365
59816SOL     OW91172   5.896   2.857  13.232  0.1076 -0.0237 -0.1829
59816SOL    HW191173   5.917   2.766  13.211 -1.1073 -0.3842  0.0947
59816SOL    HW291174   5.949   2.908  13.170 -0.1726 -0.9513 -1.2331
59817SOL     OW91175   8.410  11.288  13.438  0.2449 -0.5893 -0.3946
59817SOL    HW191176   8.372  11.227  13.501 -0.2974  1.4801  1.3841
59817SOL    HW291177   8.503  11.266  13.435 -0.4077 -3.7046 -2.4654
59818SOL     OW91178   3.229  11.405   1.503  0.2886  0.1781  0.3509
59818SOL    HW191179   3.171  11.353   1.446 -0.2160  1.3146 -0.2089
59818SOL    HW291180   3.190  11.398   1.590  0.7226 -1.0785  0.4743
59819SOL     OW91181  11.440   2.391  11.347  0.3338  0.4250 -0.4313
59819SOL    HW191182  11.379   2.326  11.380 -0.3206  0.1161 -2.1263
59819SOL    HW291183  11.519   2.342  11.326  0.5326  0.5144  0.1119
59820SOL     OW91184   9.080   7.253   8.467 -0.3247  0.2055  0.0227
59820SOL    HW191185   9.016   7.184   8.454 -1.3489  1.2060 -0.3883
59820SOL    HW291186   9.139   7.219   8.534 -0.2820 -1.4091 -0.7775
59821SOL     OW91187  13.025   4.274   3.980  0.3398 -0.7224 -0.0371
59821SOL    HW191188  13.036   4.302   3.889 -2.3665 -0.5134 -0.4025
59821SOL    HW291189  13.108   4.232   4.003  1.0553 -0.9248 -2.6453
59822SOL     OW91190   6.560   3.289   9.382 -0.2252  0.2055  0.1982
59822SOL    HW191191   6.627   3.267   9.318 -0.7346  0.7367 -0.5366
59822SOL    HW291192   6.510   3.359   9.341  0.9087  2.2866  2.1539
59823SOL     OW91193   8.489  12.294  12.936 -0.0895 -0.0560  0.0514
59823SOL    HW191194   8.487  12.315  12.843 -2.3158  0.8609  0.2541
59823SOL    HW291195   8.408  12.245  12.952 -0.4167  0.9407  1.7144
59824SOL     OW91196  12.977  11.825  10.544 -0.2910 -0.1344 -0.1949
59824SOL    HW191197  12.981  11.919  10.563 -0.6353 -0.0846 -0.3709
59824SOL    HW291198  13.044  11.812  10.477  1.8233 -0.5332  1.8930
59825SOL     OW91199   5.240   3.383  10.372  0.3061 -0.2485  0.0367
59825SOL    HW191200   5.290   3.362  10.292  1.0433 -1.5675  0.8048
59825SOL    HW291201   5.281   3.329  10.440  1.5364  2.8457  1.9680
59826SOL     OW91202  10.778   3.756   1.480 -0.0652 -0.2197  0.2130
59826SOL    HW191203  10.836   3.767   1.404  1.3347  1.6624  1.4496
59826SOL    HW291204  10.809   3.677   1.523  0.1866 -0.4068 -0.3068
59827SOL     OW91205   8.852   7.738  12.770  0.2759 -0.3010  0.8743
59827SOL    HW191206   8.769   7.706  12.735  0.4724 -0.3460  0.4370
59827SOL    HW291207   8.859   7.697  12.856  0.4436 -1.3094  0.3907
59828SOL     OW91208   8.643   0.023   6.733  0.3366 -0.1437  0.4547
59828SOL    HW191209   8.659  -0.072   6.727  0.7215 -0.3815  3.6640
59828SOL    HW291210   8.575   0.039   6.668  1.8047 -2.1723 -1.7491
59829SOL     OW91211   5.693   1.762  12.325 -0.1627 -0.3982  0.3289
59829SOL    HW191212   5.759   1.706  12.284 -1.3613 -0.3266 -1.8487
59829SOL    HW291213   5.737   1.800  12.401  1.3514 -2.6190  0.6518
59830SOL     OW91214   1.275   2.583  10.960 -0.5170 -0.0210 -0.2781
59830SOL    HW191215   1.198   2.570  10.906 -1.1043 -2.0776  0.9585
59830SOL    HW291216   1.255   2.661  11.012 -0.6895  0.9040 -1.6971
59831SOL     OW91217   0.063  10.281   1.385 -0.0090  0.3442  0.4615
59831SOL    HW191218   0.007  10.206   1.367 -0.1103  0.5444 -0.0693
59831SOL    HW291219   0.147  10.259   1.346  0.1688  0.2157  0.9089
59832SOL     OW91220  13.115   5.756   2.125  0.2623 -0.2187  0.0762
59832SOL    HW191221  13.186   5.792   2.072  0.5342 -1.4127 -0.3967
59832SOL    HW291222  13.148   5.757   2.215  1.7589 -2.6830 -0.3554
59833SOL     OW91223   3.945  11.769   1.008 -0.2251  0.0228 -0.7558
59833SOL    HW191224   3.898  11.688   1.032  0.3318  0.2712  1.4545
59833SOL    HW291225   3.886  11.839   1.036  1.1526  0.3351  1.6404
59834SOL     OW91226   2.198  11.925  13.743 -0.1927  0.0832  0.4875
59834SOL    HW191227   2.157  11.922  13.829  1.8498 -0.4719  1.5164
59834SOL    HW291228   2.167  11.847  13.698 -2.3516  1.0806  0.1378
59835SOL     OW91229   6.685   6.020   5.912 -0.4130 -0.8800 -0.3304
59835SOL    HW191230   6.673   6.078   5.838  1.0267 -0.9408 -0.6363
59835SOL    HW291231   6.663   6.073   5.988  1.1942  0.2177 -0.5742
59836SOL     OW91232  12.155   5.855   6.833 -0.3653  0.9473 -0.1753
59836SOL    HW191233  12.164   5.930   6.774 -1.3930 -0.2713 -1.9904
59836SOL    HW291234  12.245   5.829   6.853  0.0238  2.9745  0.9982
59837SOL     OW91235   8.750   3.781  12.251 -0.0421  0.3479 -0.1922
59837SOL    HW191236   8.666   3.804  12.211 -0.7665 -0.8036  0.5751
59837SOL    HW291237   8.800   3.740  12.181  0.8340  3.0989 -1.2735
59838SOL     OW91238  13.359   6.803   9.685  0.2134  0.4862 -0.0746
59838SOL    HW191239  13.351   6.868   9.616 -1.5372  0.8127  0.3945
59838SOL    HW291240  13.315   6.725   9.651  0.1376  0.3537  0.3182
59839SOL     OW91241   2.528   6.467   0.811 -0.2887  0.2587  0.0013
59839SOL    HW191242   2.495   6.403   0.749 -1.2268  0.9603 -0.2371
59839SOL    HW291243   2.515   6.552   0.768 -2.0257  0.8566  1.5765
59840SOL     OW91244   3.584   6.870   5.486  0.4572  0.0500  0.6636
59840SOL    HW191245   3.496   6.838   5.467  1.6150 -2.9789 -0.2775
59840SOL    HW291246   3.584   6.885   5.581 -0.8859 -0.4947  0.7717
59841SOL     OW91247   0.842   0.564   5.840 -0.7710 -0.2318 -0.5045
59841SOL    HW191248   0.871   0.634   5.898 -0.3433 -1.8269  1.2965
59841SOL    HW291249   0.760   0.596   5.803 -0.9545  0.9322  0.8325
59842SOL     OW91250   5.895   0.796   7.262  1.0668  0.3325 -0.3425
59842SOL    HW191251   5.826   0.739   7.228  0.1387  0.3796  1.3779
59842SOL    HW291252   5.926   0.845   7.186 -1.1199  0.6444 -1.0756
59843SOL     OW91253   2.499   6.394  10.040 -0.1707 -0.1204 -0.0433
59843SOL    HW191254   2.490   6.299  10.040 -0.0383 -0.1352  0.4175
59843SOL    HW291255   2.540   6.414   9.955 -0.5165 -0.4382 -0.2888
59844SOL     OW91256   1.929   2.247   2.058  0.5240  0.4101  0.5098
59844SOL    HW191257   1.921   2.160   2.019  0.4933  0.2376  0.8985
59844SOL    HW291258   2.023   2.267   2.054  0.6716 -0.0721  1.3362
59845SOL     OW91259   9.824   0.280  13.316  0.4003  0.1904  0.5649
59845SOL    HW191260   9.788   0.331  13.388  1.3457  0.6115  0.7556
59845SOL    HW291261   9.781   0.315  13.238 -0.0976  0.2201  0.8470
59846SOL     OW91262   6.275   4.749   9.296 -0.2166  0.7126 -0.2254
59846SOL    HW191263   6.257   4.801   9.375  0.3335  1.0151 -0.2971
59846SOL    HW291264   6.277   4.658   9.328 -0.1464  0.8206  0.0832
59847SOL     OW91265   7.443   5.865  11.239  0.1299 -0.2101  0.1529
59847SOL    HW191266   7.473   5.843  11.151  0.0141  1.9273 -0.4948
59847SOL    HW291267   7.485   5.801  11.296  0.1778 -1.6709 -1.4468
59848SOL     OW91268   7.178   1.782   2.716  0.3322 -0.3034 -0.1227
59848SOL    HW191269   7.235   1.735   2.777 -0.6566 -1.6509 -0.1946
59848SOL    HW291270   7.182   1.731   2.636  0.4027  0.5950 -0.7078
59849SOL     OW91271  10.225   1.413   9.040 -0.4636  0.2771  0.2999
59849SOL    HW191272  10.161   1.343   9.024 -0.0651 -0.1901  0.6834
59849SOL    HW291273  10.223   1.426   9.135  0.9114 -0.6578  0.4938
59850SOL     OW91274   5.004   9.964  11.617  0.1011 -0.0493 -0.4861
59850SOL    HW191275   5.093   9.936  11.594  1.0394  0.8589  1.6928
59850SOL    HW291276   4.956   9.883  11.632  0.5758 -0.5549 -1.6125
59851SOL     OW91277   0.335  11.252   4.408  0.0623 -0.6282  0.1453
59851SOL    HW191278   0.271  11.208   4.464  1.0759 -2.3320  0.0325
59851SOL    HW291279   0.283  11.285   4.334 -1.0985  0.5631  1.4433
59852SOL     OW91280   7.214   7.405   8.050  0.1923  0.6221 -0.4548
59852SOL    HW191281   7.143   7.468   8.066 -0.9188 -0.6516 -0.0913
59852SOL    HW291282   7.277   7.423   8.120  0.3674  1.9407 -0.9231
59853SOL     OW91283   8.089   3.383   0.666  0.1817  0.9475  0.0257
59853SOL    HW191284   8.113   3.468   0.630  0.1737  0.6033 -0.8273
59853SOL    HW291285   8.058   3.333   0.591 -0.0040  0.2578  0.5480
59854SOL     OW91286   4.097   3.209   3.602 -0.0015  0.3369 -0.3109
59854SOL    HW191287   4.044   3.130   3.589 -2.2665  1.7448 -0.2138
59854SOL    HW291288   4.184   3.186   3.569 -0.8823 -1.8212 -1.3022
59855SOL     OW91289  12.049   9.155   2.353 -0.1270  0.2747 -0.0505
59855SOL    HW191290  12.093   9.130   2.433 -0.2614  1.1024  0.2929
59855SOL    HW291291  12.086   9.241   2.330 -1.7450  1.1523  0.4281
59856SOL     OW91292   6.360   7.015  12.041 -0.6191 -0.2957 -0.4970
59856SOL    HW191293   6.395   7.044  11.957 -1.2006 -2.0834 -1.3821
59856SOL    HW291294   6.382   6.922  12.046 -0.4490 -0.1991  1.4208
59857SOL     OW91295   9.964  11.350   2.846  0.3512  0.3138 -0.0658
59857SOL    HW191296  10.019  11.282   2.809 -1.8731 -2.0518  0.6660
59857SOL    HW291297   9.889  11.355   2.786 -0.3321  0.8936  0.8086
59858SOL     OW91298  13.451   9.395  11.687 -0.4774 -0.5180  0.0330
59858SOL    HW191299  13.507   9.332  11.733 -0.3754  0.6191  1.5159
59858SOL    HW291300  13.371   9.346  11.667  0.8137 -2.0525 -1.7654
59859SOL     OW91301   6.801   8.732   9.638 -0.0835  0.0389  0.4076
59859SOL    HW191302   6.743   8.658   9.618 -0.3299  0.4451 -0.4102
59859SOL    HW291303   6.797   8.787   9.560  0.9313  0.3851  0.5942
59860SOL     OW91304   9.795   6.432   4.354 -0.7320  0.0013 -0.0220
59860SOL    HW191305   9.784   6.346   4.314 -0.2246 -0.2997  0.4708
59860SOL    HW291306   9.864   6.474   4.303  1.9917 -1.4615  2.1571
59861SOL     OW91307  13.144   1.190   5.729  0.5842 -0.0725 -0.3937
59861SOL    HW191308  13.080   1.256   5.702 -0.1921  0.3724  2.2172
59861SOL    HW291309  13.094   1.109   5.736  0.5462  0.0064  0.4303
59862SOL     OW91310   2.100  11.236  10.755 -0.2947 -0.4920  0.4603
59862SOL    HW191311   2.108  11.286  10.836 -0.6649 -0.6432  0.5908
59862SOL    HW291312   2.007  11.241  10.733 -0.7431 -2.7211  1.5275
59863SOL     OW91313  10.997   5.953   3.538  0.7544  0.0957 -0.3708
59863SOL    HW191314  11.046   5.904   3.603 -1.1750  1.3372  2.1968
59863SOL    HW291315  10.961   5.887   3.479  1.7934 -1.1502  0.3564
59864SOL     OW91316   5.396  13.284  10.585  0.0569  0.4583  0.2258
59864SOL    HW191317   5.355  13.250  10.665 -0.6949 -1.1517 -0.7822
59864SOL    HW291318   5.474  13.229  10.574 -0.0052  0.4714 -0.2966
59865SOL     OW91319   7.462   2.412   5.927 -0.1613  0.6678 -0.5985
59865SOL    HW191320   7.502   2.462   5.855 -0.1825 -1.1246 -1.9384
59865SOL    HW291321   7.372   2.442   5.930 -0.6332 -0.3528 -2.5145
59866SOL     OW91322  10.794   1.798  10.807  0.1464  0.2637  0.0910
59866SOL    HW191323  10.796   1.705  10.783 -0.6976 -0.1407  1.4655
59866SOL    HW291324  10.824   1.844  10.728 -1.0083 -1.0747 -1.1986
59867SOL     OW91325  13.035   0.585   4.812 -0.3960  0.1993 -0.2744
59867SOL    HW191326  13.013   0.589   4.719 -0.5561 -0.6133 -0.2830
59867SOL    HW291327  12.981   0.513   4.846 -0.2096  0.3769  0.4103
59868SOL     OW91328   0.892  11.844   5.314 -0.2909 -0.3823 -0.4011
59868SOL    HW191329   0.815  11.810   5.269 -0.5966  0.3112 -0.4085
59868SOL    HW291330   0.898  11.792   5.394 -0.1388 -1.1595 -0.9092
59869SOL     OW91331   6.263   6.544  11.036 -0.1790  0.1107  0.1003
59869SOL    HW191332   6.280   6.616  11.096 -1.2037  1.0621 -0.7159
59869SOL    HW291333   6.350   6.518  11.005  0.1433  2.2274 -0.9671
59870SOL     OW91334   7.558   0.863   4.446  0.6132  0.2064  0.3230
59870SOL    HW191335   7.568   0.806   4.523  0.3264  1.3732  1.2617
59870SOL    HW291336   7.573   0.951   4.480 -0.0204  0.8019 -0.8725
59871SOL     OW91337   4.417  12.931   9.899  0.3458  0.1772 -0.1563
59871SOL    HW191338   4.439  13.005   9.844  3.7084 -1.0504 -0.6933
59871SOL    HW291339   4.358  12.877   9.846 -2.4515  2.4359  0.3787
59872SOL     OW91340   4.301  12.328   9.793  0.1285  0.0137  0.1533
59872SOL    HW191341   4.223  12.329   9.737  0.3468  0.9291 -0.1513
59872SOL    HW291342   4.272  12.368   9.875  0.2391  0.2288  0.0874
59873SOL     OW91343   2.040  13.711   6.851  0.1336 -0.0791 -0.1742
59873SOL    HW191344   2.026  13.645   6.919  2.7908 -0.2452  0.3248
59873SOL    HW291345   2.134  13.728   6.853  0.2288  0.4150 -3.3701
59874SOL     OW91346  12.667   6.911   5.035 -0.0816 -0.5829  0.5988
59874SOL    HW191347  12.758   6.898   5.008 -0.2695 -0.4426 -0.1133
59874SOL    HW291348  12.673   6.972   5.109  0.4472 -1.1346  1.0261
59875SOL     OW91349   7.785   1.380   3.793 -0.3157  0.0864 -0.2137
59875SOL    HW191350   7.756   1.317   3.727 -2.5743 -1.0225  1.6838
59875SOL    HW291351   7.713   1.442   3.800 -0.9633 -0.8238  2.3289
59876SOL     OW91352   2.999   9.295   0.348 -0.2630  0.6478 -0.6597
59876SOL    HW191353   2.983   9.324   0.259  0.7692  1.2578 -0.6620
59876SOL    HW291354   2.911   9.282   0.386 -0.7049  0.4893 -1.7086
59877SOL     OW91355  13.274   7.603   4.152  0.1290 -0.0665 -0.5889
59877SOL    HW191356  13.271   7.534   4.086 -1.5108  0.3945 -1.0298
59877SOL    HW291357  13.309   7.679   4.105 -0.2004  0.0195 -0.6953
59878SOL     OW91358   1.547   5.473   2.208  0.0210  0.0722  0.2999
59878SOL    HW191359   1.588   5.399   2.165  0.9099 -0.4370  1.9220
59878SOL    HW291360   1.453   5.456   2.203  0.2182 -1.2037  0.7130
59879SOL     OW91361   5.526  12.289   2.800 -0.1808 -0.1691  0.4864
59879SOL    HW191362   5.595  12.351   2.780  0.7235 -1.2691  0.1235
59879SOL    HW291363   5.445  12.341   2.797  0.5451  0.9615  0.1362
59880SOL     OW91364   4.471  12.397   4.561 -0.5212 -0.1802 -1.0780
59880SOL    HW191365   4.422  12.324   4.523 -1.4675 -0.4415  0.5611
59880SOL    HW291366   4.438  12.404   4.651  2.8476 -0.8073  0.3950
59881SOL     OW91367   9.187   4.324   1.633  0.0244 -0.1718  0.1085
59881SOL    HW191368   9.094   4.323   1.610  0.3053 -0.0396 -1.0817
59881SOL    HW291369   9.200   4.242   1.681 -0.3500 -1.0658 -1.2572
59882SOL     OW91370   8.071   9.024   9.559 -0.1425 -0.0610  0.5788
59882SOL    HW191371   8.157   9.016   9.600 -0.0234  1.6448  0.7468
59882SOL    HW291372   8.073   8.963   9.486  1.2263 -0.0424  0.5752
59883SOL     OW91373  10.365  12.782   2.324  0.1352 -0.0643  0.0693
59883SOL    HW191374  10.377  12.854   2.262  2.5797  0.5852  1.2234
59883SOL    HW291375  10.277  12.748   2.303  0.4061  0.7944 -3.0025
59884SOL     OW91376  10.739   4.267   9.468 -0.5328 -0.4886 -0.1308
59884SOL    HW191377  10.707   4.314   9.545  0.8191  0.4084 -0.0654
59884SOL    HW291378  10.832   4.290   9.464 -0.1878 -1.9203 -1.0346
59885SOL     OW91379   7.392   3.817  11.700  0.2705 -0.3315  0.2891
59885SOL    HW191380   7.312   3.798  11.650  2.2771 -2.0763 -2.5418
59885SOL    HW291381   7.394   3.913  11.707 -0.9100 -0.1189 -1.6678
59886SOL     OW91382   4.018   2.339   1.376  0.5474 -0.2414  0.4917
59886SOL    HW191383   4.023   2.288   1.295 -0.5423 -0.2135  0.4004
59886SOL    HW291384   3.943   2.303   1.422  0.5449  0.4338  1.0223
59887SOL     OW91385   0.858   5.519   0.943  0.3702  0.0669  0.2543
59887SOL    HW191386   0.926   5.570   0.897  0.9595 -0.3708  0.6309
59887SOL    HW291387   0.892   5.430   0.945 -0.0681 -0.0940  0.7485
59888SOL     OW91388  10.501   6.722  11.702  0.4120  0.6606 -0.4299
59888SOL    HW191389  10.519   6.628  11.691 -0.4098  0.6761 -2.2701
59888SOL    HW291390  10.581   6.757  11.741  0.1734 -1.0386  1.7770
59889SOL     OW91391   9.297  13.393   6.469 -0.0442  0.4878  0.2633
59889SOL    HW191392   9.354  13.377   6.544  0.4268 -2.5078 -0.5960
59889SOL    HW291393   9.349  13.367   6.393 -1.5301  0.5637 -0.8198
59890SOL     OW91394   8.426   9.491   0.746 -0.1483 -0.1489  0.9282
59890SOL    HW191395   8.367   9.555   0.707 -0.9498 -1.0581  0.6086
59890SOL    HW291396   8.416   9.412   0.693  0.6651 -0.6176  1.4321
59891SOL     OW91397   8.406   1.262   3.817  0.1817  0.0775 -0.2966
59891SOL    HW191398   8.497   1.276   3.790  0.4937 -0.8163  0.2587
59891SOL    HW291399   8.362   1.345   3.797  0.8956  0.1869 -1.4705
59892SOL     OW91400  11.173   1.989   2.288  0.0008  0.0492  0.5663
59892SOL    HW191401  11.241   2.015   2.351  1.1416 -1.3626 -0.0125
59892SOL    HW291402  11.169   1.893   2.296 -0.3383 -0.0918 -0.9912
59893SOL     OW91403   1.546   8.579   5.381  0.2530 -0.5048  0.0201
59893SOL    HW191404   1.511   8.542   5.463 -1.1499  0.2090 -0.2312
59893SOL    HW291405   1.482   8.553   5.314 -1.1650  2.7481 -0.0877
59894SOL     OW91406   0.206   4.384   0.720 -0.3248  0.1823 -0.1670
59894SOL    HW191407   0.272   4.321   0.690  0.6485  0.9723  0.2586
59894SOL    HW291408   0.161   4.340   0.791 -0.0083 -0.2335 -0.2190
59895SOL     OW91409   8.573   4.092   6.885 -0.0605 -0.8641  0.3566
59895SOL    HW191410   8.555   4.068   6.794  0.0508  0.0014  0.0981
59895SOL    HW291411   8.533   4.179   6.895 -0.5043 -1.1656  1.2752
59896SOL     OW91412  12.041  10.262   0.783  0.7668  0.2951 -0.2215
59896SOL    HW191413  11.982  10.324   0.826  0.8152 -0.6041  1.1857
59896SOL    HW291414  12.120  10.313   0.766  0.3571  0.9468 -0.2535
59897SOL     OW91415   5.971   4.147   3.451  0.3134  0.2858  0.6345
59897SOL    HW191416   5.930   4.118   3.370 -0.0787  0.3472  0.8046
59897SOL    HW291417   5.907   4.123   3.519  0.6440  0.2183  0.9227
59898SOL     OW91418   3.759   7.750  11.119  0.4070  0.4156 -0.1422
59898SOL    HW191419   3.804   7.829  11.087  0.5363  0.4806  0.1971
59898SOL    HW291420   3.705   7.781  11.191  1.6680 -0.0537  1.0476
59899SOL     OW91421   0.329   6.442   0.579 -0.3639 -0.2930  0.2981
59899SOL    HW191422   0.330   6.511   0.513 -1.4740 -0.3063  0.2558
59899SOL    HW291423   0.240   6.408   0.578 -0.3113 -0.5362  1.5583
59900SOL     OW91424  12.517   1.435  10.153 -0.1266  0.6535  0.0886
59900SOL    HW191425  12.495   1.367  10.216  0.7919  0.6487  0.4224
59900SOL    HW291426  12.450   1.429  10.086 -0.4309 -0.1378  0.4592
59901SOL     OW91427   6.526   9.291  12.232  0.0983 -0.8258 -0.1803
59901SOL    HW191428   6.575   9.246  12.301  0.0415 -1.0577 -0.2897
59901SOL    HW291429   6.583   9.289  12.156 -0.0075 -0.9447 -0.2586
59902SOL     OW91430   1.560  10.245  12.338  0.3594 -0.1480  0.0560
59902SOL    HW191431   1.645  10.202  12.328  0.1034 -0.6373 -0.0357
59902SOL    HW291432   1.506  10.208  12.268  0.5630  1.4071 -0.9600
59903SOL     OW91433  10.045   1.468   3.901 -0.2110 -0.2406  0.4321
59903SOL    HW191434  10.040   1.522   3.980  1.0536 -0.1521  0.4746
59903SOL    HW291435  10.111   1.402   3.921 -0.0451 -0.3630 -0.4546
59904SOL     OW91436   2.236   6.266  11.926  0.8539 -0.1792  0.8673
59904SOL    HW191437   2.186   6.348  11.922 -0.7930 -1.1384 -3.0757
59904SOL    HW291438   2.185   6.209  11.983 -1.9095 -0.5440 -1.6907
59905SOL     OW91439   5.192   7.938   6.364  0.1182  0.1863  0.0271
59905SOL    HW191440   5.207   7.924   6.458 -0.4782  0.2611  0.1333
59905SOL    HW291441   5.152   7.857   6.334 -2.6422  1.2804  0.4880
59906SOL     OW91442  11.320   0.661   3.128  0.8569  0.0471  0.2918
59906SOL    HW191443  11.328   0.668   3.223 -2.1444 -1.0077  0.7304
59906SOL    HW291444  11.311   0.568   3.111 -0.9432  0.3745 -0.7486
59907SOL     OW91445   3.405   6.958  11.247  0.5959 -0.1729  0.1045
59907SOL    HW191446   3.453   7.038  11.265  1.9611 -1.0075  0.2859
59907SOL    HW291447   3.427   6.899  11.319 -2.5725  0.1549  1.5367
59908SOL     OW91448  13.371   0.383   4.153 -0.6232 -0.0619 -0.5673
59908SOL    HW191449  13.375   0.378   4.248 -0.1421  1.4778 -0.4683
59908SOL    HW291450  13.323   0.465   4.135 -0.4918 -0.1976 -1.6388
59909SOL     OW91451   7.808   3.521   8.217 -0.1283  0.4675  0.6258
59909SOL    HW191452   7.770   3.434   8.227  0.2027  0.3600  0.9447
59909SOL    HW291453   7.897   3.513   8.251  0.2712  0.6522 -0.3346
59910SOL     OW91454   3.516   2.361   9.100  0.1706 -0.1322  0.2225
59910SOL    HW191455   3.493   2.452   9.118  0.3060  0.0864 -0.6824
59910SOL    HW291456   3.536   2.324   9.186  0.2967  0.7405  0.5758
59911SOL     OW91457  13.480  11.070   8.416  0.0877  0.2116  0.7415
59911SOL    HW191458  13.547  11.018   8.371  2.4057  1.6376  2.2961
59911SOL    HW291459  13.429  11.007   8.466  1.5736 -0.7760  1.0693
59912SOL     OW91460   0.047   8.459   3.371  0.2926 -0.5745  0.5260
59912SOL    HW191461   0.095   8.487   3.294 -1.2985 -0.8924 -0.6437
59912SOL    HW291462  -0.018   8.528   3.387  1.3490  0.0765  2.3431
59913SOL     OW91463   9.533   3.981  11.566  0.0719 -0.3313  0.4216
59913SOL    HW191464   9.524   3.943  11.479  3.6207 -1.4909  0.4199
59913SOL    HW291465   9.537   3.905  11.625  1.5190  0.2352  1.1033
59914SOL     OW91466  10.893   8.160   6.360 -0.6226 -0.2453  0.2070
59914SOL    HW191467  10.856   8.184   6.445 -0.3795  1.5004 -0.1304
59914SOL    HW291468  10.817   8.154   6.301 -0.8432 -1.9638  0.6210
59915SOL     OW91469  11.813   2.007   6.083 -0.1885  0.2516 -0.1064
59915SOL    HW191470  11.777   2.079   6.134  0.7664  0.8153 -0.2087
59915SOL    HW291471  11.900   1.993   6.120 -0.3331 -0.8001 -0.1397
59916SOL     OW91472   9.041  12.177   0.210  0.2524 -0.3545 -0.7818
59916SOL    HW191473   9.044  12.094   0.164 -0.0206 -0.5657 -0.4258
59916SOL    HW291474   9.126  12.184   0.253 -0.2223 -1.1352  0.3527
59917SOL     OW91475  12.522  11.490   1.572  0.0094  0.2764 -0.3529
59917SOL    HW191476  12.606  11.474   1.528 -0.0250  0.8908 -0.6531
59917SOL    HW291477  12.541  11.473   1.664  0.7289  1.2908 -0.2823
59918SOL     OW91478   6.600   0.407  11.865 -0.2931 -0.6836 -0.2407
59918SOL    HW191479   6.599   0.390  11.771  0.7814 -1.2842 -0.1657
59918SOL    HW291480   6.508   0.414  11.890 -0.5800  0.0266 -1.4211
59919SOL     OW91481  10.793   3.382  13.513 -0.1579 -0.0583  0.5061
59919SOL    HW191482  10.832   3.298  13.488 -2.4288 -1.1769  0.3975
59919SOL    HW291483  10.804   3.437  13.436  1.2455 -0.2738  0.5246
59920SOL     OW91484   7.961  13.327   3.680 -0.2478 -0.3223 -0.5910
59920SOL    HW191485   7.953  13.248   3.735 -0.5394 -1.8984 -2.7828
59920SOL    HW291486   8.049  13.361   3.701 -0.7603 -0.1677  1.6344
59921SOL     OW91487  13.084   2.286   4.733  0.7436 -0.3942  0.3573
59921SOL    HW191488  13.174   2.280   4.700  1.5056 -0.3045  2.2562
59921SOL    HW291489  13.054   2.196   4.737  1.3104 -0.5585  1.0983
59922SOL     OW91490   1.811   2.841   0.827  0.3560  0.7145 -0.2987
59922SOL    HW191491   1.853   2.927   0.816 -0.0637  0.7613 -1.6238
59922SOL    HW291492   1.882   2.785   0.860  0.2292  1.9283  2.3100
59923SOL     OW91493  10.091   7.241   5.048 -0.7532  0.2745  0.3954
59923SOL    HW191494  10.023   7.175   5.062 -0.3580 -0.3657 -0.6025
59923SOL    HW291495  10.096   7.250   4.953  0.2785  0.6105  0.4686
59924SOL     OW91496   3.273   7.505   3.972  0.2103 -0.2191 -0.0509
59924SOL    HW191497   3.229   7.469   3.895 -0.4191 -0.6518  0.5008
59924SOL    HW291498   3.366   7.492   3.954  0.0230 -3.0214  0.5003
59925SOL     OW91499   9.468   9.293  10.026 -0.2019 -0.5166  0.4336
59925SOL    HW191500   9.424   9.362  10.077 -0.9994 -0.8555  0.2175
59925SOL    HW291501   9.410   9.278   9.952 -0.4262 -1.9355  0.8666
59926SOL     OW91502   0.715   6.629   4.112 -0.2041  0.2765 -0.2512
59926SOL    HW191503   0.657   6.701   4.085 -1.6915 -0.5614  0.5632
59926SOL    HW291504   0.704   6.563   4.045 -0.0672  0.1686 -0.1674
59927SOL     OW91505   9.656  10.925   0.358  0.3765 -0.2979  0.5182
59927SOL    HW191506   9.718  10.997   0.351 -0.4319  0.2614 -3.0013
59927SOL    HW291507   9.571  10.967   0.368  0.1169 -0.8504  0.6758
59928SOL     OW91508   2.809   0.671   9.187  0.3511  0.0157 -0.5470
59928SOL    HW191509   2.875   0.606   9.211  1.1934  0.8661 -0.5093
59928SOL    HW291510   2.857   0.753   9.179 -1.0347  1.1380  1.6495
59929SOL     OW91511  13.074   4.624   9.752 -0.0698 -0.4034  0.0450
59929SOL    HW191512  13.072   4.715   9.783  0.2147 -0.0335 -0.9914
59929SOL    HW291513  13.042   4.628   9.662 -0.9187 -1.4664  0.2815
59930SOL     OW91514   3.683   2.846   9.520 -0.3600  0.1711  0.3515
59930SOL    HW191515   3.687   2.907   9.446 -1.1378 -0.2224 -0.0328
59930SOL    HW291516   3.675   2.759   9.479 -1.2409 -0.0151  0.8886
59931SOL     OW91517   2.450   8.377   9.459  0.4540  0.3912  0.7094
59931SOL    HW191518   2.540   8.390   9.488  0.3976  1.5791  0.3960
59931SOL    HW291519   2.411   8.320   9.526  1.3474  0.1315  1.0129
59932SOL     OW91520   8.276   6.038   6.106  0.5555  0.0698 -0.3195
59932SOL    HW191521   8.200   6.087   6.076 -0.6564 -0.9897  0.8807
59932SOL    HW291522   8.277   5.959   6.050  1.1617  0.3651 -0.7426
59933SOL     OW91523  10.329  12.947  11.990 -0.2558  0.4658  0.2565
59933SOL    HW191524  10.325  12.960  12.085  0.3902  1.4046  0.1677
59933SOL    HW291525  10.422  12.952  11.969 -0.4163  0.4784 -0.4619
59934SOL     OW91526  10.315   5.774   8.028  0.9380  0.3614 -0.5171
59934SOL    HW191527  10.343   5.865   8.035  1.1242  0.2954 -0.3804
59934SOL    HW291528  10.390   5.723   8.060  0.5501  0.1959  0.1539
59935SOL     OW91529   9.326  10.123   2.166  0.1152  0.1982  0.0245
59935SOL    HW191530   9.416  10.155   2.157  0.0598  0.3576  0.0312
59935SOL    HW291531   9.313  10.067   2.090  1.0188 -1.7585  1.2221
59936SOL     OW91532  12.239  13.619   7.728  0.0566 -0.3965  0.0714
59936SOL    HW191533  12.330  13.607   7.755  0.3968  0.5841 -0.6192
59936SOL    HW291534  12.218  13.539   7.679  0.7811 -0.3111 -0.3930
59937SOL     OW91535   6.819   4.178   7.802 -0.1945 -0.9061 -1.0441
59937SOL    HW191536   6.898   4.130   7.777  0.6661 -0.0383 -0.0876
59937SOL    HW291537   6.847   4.270   7.805 -1.4088 -0.5181 -1.3183
59938SOL     OW91538   4.267   6.359   2.147 -0.4474 -0.3789  0.2051
59938SOL    HW191539   4.355   6.386   2.174  0.7452 -0.7341 -2.8968
59938SOL    HW291540   4.215   6.439   2.149  0.5113  0.2607  0.1118
59939SOL     OW91541   6.249   3.400  10.865 -0.3653 -0.2326  0.5854
59939SOL    HW191542   6.254   3.304  10.864  1.4780 -0.1752 -0.3333
59939SOL    HW291543   6.340   3.429  10.874 -0.9157  1.4474  1.2232
59940SOL     OW91544  11.889  13.206   6.451  0.3995  0.1611  0.3776
59940SOL    HW191545  11.803  13.165   6.454 -0.0849  1.1833  1.2885
59940SOL    HW291546  11.872  13.296   6.425  1.3534  0.0249 -0.8035
59941SOL     OW91547   6.628  12.835  11.440 -0.1089  0.3676 -0.4737
59941SOL    HW191548   6.568  12.816  11.368 -0.5192 -0.6479  0.1177
59941SOL    HW291549   6.627  12.930  11.448 -1.1429  0.4033 -0.8929
59942SOL     OW91550   2.698  10.736  11.970  0.3676  0.3664  0.1657
59942SOL    HW191551   2.674  10.644  11.974 -3.2271  1.2006  0.7835
59942SOL    HW291552   2.730  10.756  12.058  0.8997 -0.2050  0.1094
59943SOL     OW91553  11.139  11.259   2.412 -0.2057  0.5815  0.4737
59943SOL    HW191554  11.137  11.286   2.503  1.5609 -1.6983  1.2960
59943SOL    HW291555  11.104  11.170   2.412 -2.2212  1.2866 -1.4567
59944SOL     OW91556   9.793   3.100   7.094  0.6310 -0.4488  0.1404
59944SOL    HW191557   9.759   3.011   7.108 -0.8070  0.3682  2.4770
59944SOL    HW291558   9.739   3.136   7.024 -0.4223 -0.6588  0.8124
59945SOL     OW91559   7.692   1.490  10.022 -0.5064 -0.1147  0.9379
59945SOL    HW191560   7.699   1.565  10.081  0.6085  0.7703 -0.2532
59945SOL    HW291561   7.770   1.496   9.966 -2.2174 -0.0123 -1.6057
59946SOL     OW91562   9.371   8.884  11.257 -0.2892 -0.2922 -0.3234
59946SOL    HW191563   9.396   8.902  11.166 -1.8619 -0.5214 -0.8280
59946SOL    HW291564   9.449   8.843  11.295  0.5333  0.1756 -1.4459
59947SOL     OW91565   2.720   5.941  10.619  1.0136  0.6639  0.8903
59947SOL    HW191566   2.682   6.027  10.632 -1.5819 -0.3625  0.6980
59947SOL    HW291567   2.736   5.908  10.708 -0.8123  0.2148  1.0819
59948SOL     OW91568   7.050   2.639   6.868 -0.4260 -0.0052  0.1046
59948SOL    HW191569   7.030   2.627   6.961  1.3294  1.2114  0.6887
59948SOL    HW291570   7.043   2.734   6.853  0.7596 -0.0041 -0.6187
59949SOL     OW91571  10.553   4.986   5.469  0.0111  0.3990 -0.4129
59949SOL    HW191572  10.499   4.907   5.467 -0.0067  0.0399  3.9444
59949SOL    HW291573  10.495   5.056   5.439 -2.7322 -0.1614  2.9587
59950SOL     OW91574  13.743   1.826  11.166  0.0371 -0.2930 -0.3182
59950SOL    HW191575  13.774   1.841  11.255 -0.8029 -0.4276  0.0065
59950SOL    HW291576  13.823   1.818  11.114  0.5357  0.1966  0.3469
59951SOL     OW91577   3.927  10.025   9.138 -0.0753 -0.3421  0.0817
59951SOL    HW191578   3.973   9.946   9.111 -0.7333 -0.7242  0.0582
59951SOL    HW291579   3.878  10.052   9.061 -0.1377 -0.1175  0.1987
59952SOL     OW91580  11.033  12.734   7.532  0.6443 -0.4423  0.9906
59952SOL    HW191581  10.952  12.683   7.521 -1.2462  2.2699  1.2525
59952SOL    HW291582  11.062  12.713   7.620 -1.3884  0.5303  1.9666
59953SOL     OW91583   9.191   9.112   4.150 -0.2389  0.1773 -0.2757
59953SOL    HW191584   9.115   9.115   4.209 -0.1927 -1.1013 -0.1181
59953SOL    HW291585   9.155   9.129   4.063 -0.7478 -0.5896 -0.2241
59954SOL     OW91586   3.638   6.435  13.183  0.4093  0.0500 -0.7877
59954SOL    HW191587   3.641   6.342  13.205 -1.0227  0.2598  0.4957
59954SOL    HW291588   3.545   6.455  13.176  0.7211  1.0206 -2.8785
59955SOL     OW91589   2.067  12.226  11.572 -0.3657 -0.5383  0.4703
59955SOL    HW191590   2.048  12.307  11.525 -1.7244 -1.6171 -0.9416
59955SOL    HW291591   2.060  12.249  11.665 -0.0731  1.0774  0.1208
59956SOL     OW91592   5.655   4.078   6.727 -0.3371  0.3292  0.6140
59956SOL    HW191593   5.567   4.100   6.759 -0.6116 -0.5446  0.4957
59956SOL    HW291594   5.648   3.987   6.699  0.7892  0.0270  1.2465
59957SOL     OW91595   8.622   6.691   3.237  0.4368 -0.6947 -0.3513
59957SOL    HW191596   8.619   6.650   3.323 -1.4673 -0.7037 -0.3917
59957SOL    HW291597   8.606   6.620   3.175  0.8809 -0.5301 -0.6627
59958SOL     OW91598   2.008  13.059   4.456 -0.0301  0.1514 -0.4818
59958SOL    HW191599   2.050  13.015   4.530 -1.9102 -1.9131 -0.5292
59958SOL    HW291600   1.990  13.148   4.487  0.8176 -0.1276  0.8721
59959SOL     OW91601  13.035  13.542   7.995  0.0097  0.7119  0.0292
59959SOL    HW191602  13.110  13.521   8.050  0.2763 -0.8525 -0.9048
59959SOL    HW291603  13.045  13.636   7.976  0.0257  1.2572  2.4172
59960SOL     OW91604   0.643  12.174  11.028  0.1836  0.1000  0.1308
59960SOL    HW191605   0.642  12.102  11.091 -0.4296 -1.9295 -2.0107
59960SOL    HW291606   0.733  12.176  10.996  0.0653 -0.1367 -0.2266
59961SOL     OW91607   4.043   8.180  12.964 -0.1159  0.9507  0.3278
59961SOL    HW191608   4.041   8.198  12.870  1.8440  0.4790  0.1510
59961SOL    HW291609   4.101   8.247  13.000  0.2918  0.2554  0.9848
59962SOL     OW91610   0.594  10.782  12.906 -0.2455  0.2071  0.0408
59962SOL    HW191611   0.620  10.855  12.851 -0.6948  0.7534  0.5474
59962SOL    HW291612   0.672  10.727  12.911  0.1769  0.7836 -0.1252
59963SOL     OW91613   0.657  13.695   3.735 -0.0324  0.2778 -0.7847
59963SOL    HW191614   0.597  13.758   3.775  0.7314  0.7371 -0.3413
59963SOL    HW291615   0.704  13.746   3.669 -1.3306 -0.4824 -2.3682
59964SOL     OW91616   9.647   4.932  13.308 -0.0662  0.3661  0.4416
59964SOL    HW191617   9.654   4.888  13.224  0.6907  0.4627  0.4490
59964SOL    HW291618   9.574   4.994  13.297 -2.8502 -2.5224  1.1957
59965SOL     OW91619  10.480  10.799  13.065 -0.0625 -0.7737 -0.2026
59965SOL    HW191620  10.407  10.755  13.021 -0.8057 -0.7673  0.9740
59965SOL    HW291621  10.548  10.805  12.998 -0.7293 -1.7812 -1.0139
59966SOL     OW91622   8.000   7.556   0.989 -0.6167 -0.3682 -0.3015
59966SOL    HW191623   7.910   7.532   0.966 -0.1812 -1.8982 -0.4665
59966SOL    HW291624   8.054   7.485   0.955  0.5985  0.1612  0.4426
59967SOL     OW91625   1.299   5.078   4.780  0.1515  0.1142  0.0155
59967SOL    HW191626   1.287   5.053   4.689  0.6748  0.5542 -0.1800
59967SOL    HW291627   1.391   5.104   4.786  0.3035 -0.5862  0.8347
59968SOL     OW91628   7.155  13.735   0.032 -0.1800 -0.3178  0.2265
59968SOL    HW191629   7.131  13.778   0.114  0.9620 -1.1434  1.0356
59968SOL    HW291630   7.243  13.768   0.014 -0.8653  0.7581 -1.3245
59969SOL     OW91631  12.103  11.910   0.255 -0.0514 -0.2170  0.1874
59969SOL    HW191632  12.074  11.945   0.171 -2.3869 -0.3525  0.8856
59969SOL    HW291633  12.156  11.981   0.292  1.1147 -0.1898 -1.3855
59970SOL     OW91634   6.178   6.502   8.415 -0.7957 -0.0850  0.2343
59970SOL    HW191635   6.134   6.451   8.484 -0.1657 -0.5445  0.2980
59970SOL    HW291636   6.202   6.584   8.458 -1.9485  0.3572  0.0917
59971SOL     OW91637   7.030  11.924   5.366  0.0113 -0.4311 -0.0533
59971SOL    HW191638   7.050  11.936   5.458  2.1514  1.1789 -0.6470
59971SOL    HW291639   7.076  11.844   5.341 -2.1071 -1.9385  0.6229
59972SOL     OW91640   7.596   2.831   6.167 -0.3444 -0.0342 -0.3372
59972SOL    HW191641   7.559   2.751   6.130 -1.9485  0.8804 -0.8006
59972SOL    HW291642   7.594   2.817   6.262  0.0055 -0.7872 -0.4344
59973SOL     OW91643   9.942  10.038  12.090 -0.0428 -0.2104 -0.2015
59973SOL    HW191644   9.919  10.084  12.010 -0.0610  1.9839  1.0005
59973SOL    HW291645   9.880  10.069  12.155  1.4062 -0.1419  1.2271
59974SOL     OW91646   8.956   8.561   2.089 -0.2013 -0.1608  0.3999
59974SOL    HW191647   8.993   8.473   2.079  0.4992 -0.0557  1.8962
59974SOL    HW291648   9.029   8.620   2.068 -1.1755  0.1534 -2.5679
59975SOL     OW91649   2.347   0.287  12.250  0.0893 -0.3397 -0.6610
59975SOL    HW191650   2.338   0.331  12.165 -1.5203 -0.2751 -0.4906
59975SOL    HW291651   2.334   0.194  12.231  1.3212 -0.5241 -0.6955
59976SOL     OW91652  12.866   7.750  11.628 -0.2725 -0.1148  0.0832
59976SOL    HW191653  12.845   7.797  11.547 -0.4447  1.7620  1.1559
59976SOL    HW291654  12.924   7.809  11.676  0.2221 -1.4033  1.1306
59977SOL     OW91655  12.705  10.440   5.133 -0.1323 -0.8278 -0.0420
59977SOL    HW191656  12.676  10.371   5.074 -0.6809 -0.3201 -0.3770
59977SOL    HW291657  12.658  10.424   5.215 -0.1011 -0.9696 -0.0525
59978SOL     OW91658   9.511   3.919   5.863  0.3535  0.3422  0.2591
59978SOL    HW191659   9.560   3.982   5.809 -1.6489  0.2212 -1.8674
59978SOL    HW291660   9.494   3.966   5.945  0.5615  1.8737 -0.5287
59979SOL     OW91661   4.964   7.733   9.716 -0.1479  0.5197  0.6065
59979SOL    HW191662   4.948   7.660   9.775 -1.3956  1.4499  1.4601
59979SOL    HW291663   4.978   7.808   9.774  1.0707  0.9976 -0.2543
59980SOL     OW91664   6.843   5.065   7.346  0.9092  0.1573  0.3372
59980SOL    HW191665   6.808   5.150   7.374 -0.3648 -0.4695  0.7301
59980SOL    HW291666   6.818   5.058   7.253 -0.5913 -0.5231  0.7505
59981SOL     OW91667   0.940   0.820   5.952  0.3563  0.0548 -0.5284
59981SOL    HW191668   0.869   0.856   6.005  0.3917 -0.0166 -0.4325
59981SOL    HW291669   0.986   0.897   5.918  1.6417  0.1480  1.2769
59982SOL     OW91670   0.190   9.558  12.964  0.3254 -0.3835  0.2450
59982SOL    HW191671   0.249   9.492  12.928 -0.6626 -0.7183 -0.8233
59982SOL    HW291672   0.107   9.512  12.977 -0.2152  0.5010  0.0283
59983SOL     OW91673   1.844   2.036  12.794 -0.2090  0.5385  0.1721
59983SOL    HW191674   1.928   2.003  12.762  0.5941  2.5915  0.0246
59983SOL    HW291675   1.800   1.958  12.830  0.2250 -1.2752 -2.8818
59984SOL     OW91676   4.510   8.398  10.012 -0.0245  0.3074  0.1301
59984SOL    HW191677   4.555   8.326  10.056  1.6872  1.6090  0.6651
59984SOL    HW291678   4.532   8.389   9.920 -0.8827 -0.5597  0.0025
59985SOL     OW91679   5.099   4.709   8.500 -0.7149  0.2504 -0.1124
59985SOL    HW191680   5.009   4.686   8.523 -0.9990  2.7511  1.7280
59985SOL    HW291681   5.151   4.679   8.575 -0.5740  2.0041  0.5247
59986SOL     OW91682   8.126   8.013  11.203  0.4111  0.9625 -0.6136
59986SOL    HW191683   8.032   8.018  11.185 -0.0384  1.3666  1.6263
59986SOL    HW291684   8.165   8.080  11.147 -0.4447  0.0751 -2.3771
59987SOL     OW91685  11.677  10.112  10.759  0.2694 -0.0028  0.3923
59987SOL    HW191686  11.716  10.048  10.819  1.1071  1.3987  1.3907
59987SOL    HW291687  11.592  10.133  10.799 -0.5741 -1.3468 -0.5850
59988SOL     OW91688   8.382  12.933  13.468  0.3061 -0.0940  0.1384
59988SOL    HW191689   8.311  12.957  13.528  0.6693 -0.2073  0.6194
59988SOL    HW291690   8.375  12.996  13.397 -0.2871 -0.1128  0.1731
59989SOL     OW91691   8.888  11.042   1.790  0.1327  0.0117 -0.2320
59989SOL    HW191692   8.909  11.072   1.878 -0.4728  0.1152 -0.1155
59989SOL    HW291693   8.799  11.005   1.798  1.2457 -2.9506 -0.0638
59990SOL     OW91694   9.660   2.638  10.770  0.0557  0.5881 -0.1153
59990SOL    HW191695   9.747   2.656  10.734 -0.0283 -1.1783 -1.3618
59990SOL    HW291696   9.641   2.712  10.828  2.9714  0.3466  1.2984
59991SOL     OW91697   1.440   2.029  12.617 -0.3525 -0.2347  0.0274
59991SOL    HW191698   1.499   2.102  12.601  0.1134 -0.0811  2.1250
59991SOL    HW291699   1.496   1.952  12.618 -0.2774 -0.1861  1.1829
59992SOL     OW91700   3.009  10.959   9.288  0.0363 -0.2745  0.4812
59992SOL    HW191701   2.938  11.023   9.296 -0.7815 -1.0264 -0.5677
59992SOL    HW291702   3.018  10.923   9.377 -0.8598 -0.1162  0.6513
59993SOL     OW91703   1.707  10.019  12.414  0.1414 -0.2456  0.6117
59993SOL    HW191704   1.766   9.971  12.473 -0.7084  0.5039  2.1412
59993SOL    HW291705   1.628   9.966  12.412 -0.0666  0.0624  0.6694
59994SOL     OW91706   6.659   7.638  12.175 -0.0586  0.2207  0.1355
59994SOL    HW191707   6.628   7.558  12.217  0.5755 -0.1719 -0.1182
59994SOL    HW291708   6.580   7.688  12.155 -0.5489 -0.8519 -0.7152
59995SOL     OW91709   0.818  13.020   6.604  0.2295 -0.3935 -0.2409
59995SOL    HW191710   0.838  13.006   6.697 -0.5673  0.1191  0.0224
59995SOL    HW291711   0.904  13.031   6.563  0.6631 -1.9781  0.1915
59996SOL     OW91712   8.696   1.363   5.327  0.0100 -0.0379 -0.0530
59996SOL    HW191713   8.726   1.365   5.236  2.2156  1.4682  0.6308
59996SOL    HW291714   8.744   1.290   5.366  1.6926  1.3673  0.6465
59997SOL     OW91715  11.038  12.696  11.965 -0.1922  0.0481  0.0442
59997SOL    HW191716  11.100  12.737  12.024  0.8522 -1.5445  0.1114
59997SOL    HW291717  10.961  12.679  12.019 -1.0462  2.6436 -0.2037
59998SOL     OW91718   0.751   8.489   1.752 -0.1527 -0.1043  0.2148
59998SOL    HW191719   0.766   8.421   1.687 -2.3237 -0.9181  0.4750
59998SOL    HW291720   0.772   8.571   1.707  0.4384 -0.8012 -0.7952
59999SOL     OW91721   3.872   0.052   7.891  0.0699  0.2928  0.0068
59999SOL    HW191722   3.819  -0.017   7.931 -0.8348 -1.0294 -3.1541
59999SOL    HW291723   3.816   0.130   7.894 -0.4144 -0.0597  0.3132
60000SOL     OW91724   7.897   4.537   8.634  0.3432 -0.5031  0.6334
60000SOL    HW191725   7.811   4.539   8.675  1.0440 -1.5332  2.2577
60000SOL    HW291726   7.879   4.542   8.540 -1.5410 -1.6653  0.8809
60001SOL     OW91727  10.936   2.690   9.777  0.3998  0.7833  0.1868
60001SOL    HW191728  11.017   2.639   9.773  1.0579  1.5873  1.9495
60001SOL    HW291729  10.897   2.681   9.690  0.7185 -2.2909  0.2460
60002SOL     OW91730   5.232   8.966   4.536 -0.0269  0.2459  0.1902
60002SOL    HW191731   5.246   8.928   4.449  1.0746  1.8591 -0.3966
60002SOL    HW291732   5.208   9.057   4.518 -0.0341  0.5386  1.5795
60003SOL     OW91733   2.008   2.839  12.536 -0.2187 -0.0584 -0.2453
60003SOL    HW191734   2.012   2.830  12.441 -2.4444 -1.8370 -0.2538
60003SOL    HW291735   2.079   2.785  12.569  1.0777  1.2053 -0.8519
60004SOL     OW91736   5.928   9.223   2.517  1.0155 -0.0085  0.0598
60004SOL    HW191737   5.908   9.317   2.508  0.8949 -0.0842 -0.5474
60004SOL    HW291738   5.881   9.182   2.444  0.8963 -0.5694  0.4496
60005SOL     OW91739   4.234   0.013   2.431  0.0274 -0.3978  0.2889
60005SOL    HW191740   4.204   0.093   2.473 -0.5090 -0.4770  0.0635
60005SOL    HW291741   4.189   0.011   2.347  0.8878 -0.3732 -0.1910
60006SOL     OW91742   0.684   9.633   0.489 -0.1581  0.0563 -0.2677
60006SOL    HW191743   0.727   9.652   0.572 -1.9236 -0.8557  0.9272
60006SOL    HW291744   0.669   9.718   0.449  1.2502  0.4722  0.0525
60007SOL     OW91745   9.910   8.120  13.154 -0.0437  0.3652 -0.4250
60007SOL    HW191746   9.892   8.207  13.119 -0.9832  0.1250 -0.5536
60007SOL    HW291747   9.940   8.136  13.243  2.5079  1.0016 -1.2968
60008SOL     OW91748   4.219   2.122   8.787  0.4727  0.1090 -0.4406
60008SOL    HW191749   4.272   2.048   8.757  1.0508 -0.1063  1.0536
60008SOL    HW291750   4.254   2.143   8.873 -1.3568  0.4828  0.2477
60009SOL     OW91751   5.449   0.867   7.565  0.4172 -0.1171  0.8818
60009SOL    HW191752   5.371   0.848   7.616 -1.6712  1.3006 -1.5411
60009SOL    HW291753   5.467   0.786   7.516 -0.2322 -0.1104  0.6255
60010SOL     OW91754  12.944   6.305   1.283 -0.1817 -0.4198  0.3541
60010SOL    HW191755  12.860   6.259   1.276 -0.1181 -0.5152  0.2166
60010SOL    HW291756  12.999   6.264   1.217 -0.4613  0.5802 -0.5307
60011SOL     OW91757  13.310   7.341   4.987  0.3326  0.4497  0.3121
60011SOL    HW191758  13.270   7.364   5.071 -0.4091 -2.8396  1.0132
60011SOL    HW291759  13.388   7.291   5.010 -0.1996 -1.0132 -0.9037
60012SOL     OW91760  11.328   1.195  13.236 -0.3072 -0.3989 -0.0397
60012SOL    HW191761  11.415   1.233  13.247 -0.1628 -0.8999  0.6217
60012SOL    HW291762  11.343   1.100  13.241 -0.8797 -0.4884  0.0245
60013SOL     OW91763  12.328  10.810   6.961 -0.0541 -0.5969 -0.1037
60013SOL    HW191764  12.295  10.764   7.039  0.4828 -0.2796  0.3201
60013SOL    HW291765  12.332  10.902   6.988  0.3670 -0.5210 -0.4271
60014SOL     OW91766   9.217  10.626  10.947 -0.1171 -0.2999  0.0378
60014SOL    HW191767   9.132  10.653  10.982 -0.7140 -0.8815 -0.9034
60014SOL    HW291768   9.247  10.558  11.007 -0.2373  0.0216  0.4672
60015SOL     OW91769   5.449  12.381   0.268  0.4300 -0.2492  0.6037
60015SOL    HW191770   5.409  12.361   0.183  0.6959  0.5900  0.2690
60015SOL    HW291771   5.434  12.475   0.280  1.3942 -0.1278  0.9541
60016SOL     OW91772   8.692   9.442   8.930  0.1948  0.3506 -0.8656
60016SOL    HW191773   8.750   9.504   8.886 -1.9491  2.5006 -0.8341
60016SOL    HW291774   8.643   9.495   8.993 -0.5538 -1.7045  0.3942
60017SOL     OW91775   7.801   5.271   6.334  0.3358 -0.0177  0.2622
60017SOL    HW191776   7.745   5.267   6.411 -0.4890  0.4143 -0.2863
60017SOL    HW291777   7.826   5.181   6.316 -0.5562 -0.2775  0.2756
60018SOL     OW91778   9.299   3.264   4.786 -0.1628 -0.3564  0.0613
60018SOL    HW191779   9.323   3.176   4.756  0.2021  0.2410 -1.5155
60018SOL    HW291780   9.249   3.302   4.713 -1.8798  0.1383  1.4038
60019SOL     OW91781   5.344  12.539   2.779  0.5242 -0.0541  0.0141
60019SOL    HW191782   5.252  12.563   2.774  0.3132 -1.0279 -1.1132
60019SOL    HW291783   5.384  12.584   2.704  0.5256 -1.4247 -0.8370
60020SOL     OW91784  11.105   5.388   1.968  0.2276  0.0620  0.5556
60020SOL    HW191785  11.066   5.300   1.973  0.1772  0.1114  1.0009
60020SOL    HW291786  11.157   5.396   2.048  0.9280  0.1065  0.1036
60021SOL     OW91787   5.828  10.146   0.065 -0.1527 -0.2985  0.9755
60021SOL    HW191788   5.840  10.210   0.134 -0.7897 -1.0440  1.8006
60021SOL    HW291789   5.867  10.066   0.100 -2.6870 -1.3650  1.5627
60022SOL     OW91790   0.578  11.557   2.078 -0.2991 -0.0769  0.8505
60022SOL    HW191791   0.590  11.509   2.160  0.4762 -1.3218  0.0460
60022SOL    HW291792   0.486  11.542   2.055  0.1355 -2.0538  0.1467
60023SOL     OW91793   3.475  12.569   8.413 -0.4077  0.0767 -0.0721
60023SOL    HW191794   3.530  12.647   8.404  0.1298 -0.3563 -0.6118
60023SOL    HW291795   3.537  12.496   8.411 -0.9729 -0.3995 -0.2633
60024SOL     OW91796   3.758  12.461   0.192  0.5961 -0.0971 -0.1234
60024SOL    HW191797   3.794  12.507   0.268  2.7981 -2.3771  0.3766
60024SOL    HW291798   3.834  12.445   0.136 -0.8633  0.8474 -2.4961
60025SOL     OW91799  13.504  11.195   0.070  0.1747 -0.2144 -0.2227
60025SOL    HW191800  13.433  11.142   0.035 -0.6998  0.0820  1.0528
60025SOL    HW291801  13.569  11.131   0.099  0.0813 -0.5067 -0.6396
60026SOL     OW91802   7.536   8.910   8.760 -0.2185 -0.0424 -0.1042
60026SOL    HW191803   7.575   8.992   8.791 -0.3124  0.9023 -2.2913
60026SOL    HW291804   7.541   8.915   8.665  1.0920 -3.2609 -0.3417
60027SOL     OW91805  10.730   8.152   0.838  0.1402 -0.3296  0.5230
60027SOL    HW191806  10.707   8.073   0.888  0.3090 -2.0605 -1.9189
60027SOL    HW291807  10.811   8.128   0.793  0.5648  1.5269  0.2540
60028SOL     OW91808   5.862   5.375   9.407  0.1340 -0.2922  0.4598
60028SOL    HW191809   5.780   5.382   9.358 -1.4807  1.0030  3.1358
60028SOL    HW291810   5.894   5.465   9.413  1.3498 -0.6845  0.1639
60029SOL     OW91811   2.831   1.979  11.339  0.5993  0.2974 -0.3659
60029SOL    HW191812   2.889   2.049  11.311  0.4617  0.2580 -0.7464
60029SOL    HW291813   2.838   1.980  11.435  0.7579  0.6897 -0.3786
60030SOL     OW91814   2.024   0.738   4.885  0.2822 -0.2307  0.0795
60030SOL    HW191815   2.039   0.806   4.951 -0.7958 -0.4669  0.6011
60030SOL    HW291816   2.096   0.676   4.896  0.4069  0.0131  0.6751
60031SOL     OW91817   5.163  11.408   9.873 -0.4921 -0.1361  0.5336
60031SOL    HW191818   5.156  11.427   9.966  1.1081  0.7406  0.5005
60031SOL    HW291819   5.180  11.492   9.832  0.9730 -0.7882 -0.2870
60032SOL     OW91820   8.921   2.974   3.317  0.5355  0.1112 -0.3754
60032SOL    HW191821   8.953   2.973   3.227  2.4312  1.1339  0.2519
60032SOL    HW291822   8.882   3.061   3.328  1.0549  0.2927  0.0390
60033SOL     OW91823  12.154  11.642   2.449  0.2340  0.0156 -0.0934
60033SOL    HW191824  12.146  11.590   2.369  0.0506  0.3410 -0.2875
60033SOL    HW291825  12.133  11.580   2.519 -3.5546  0.6019 -0.4955
60034SOL     OW91826   9.235  12.411   9.095  0.2572 -0.0762 -0.1860
60034SOL    HW191827   9.260  12.427   9.186 -0.1981 -2.4103  0.4296
60034SOL    HW291828   9.309  12.363   9.058  0.3507  0.6842 -1.0190
60035SOL     OW91829   1.588   4.191  13.671  0.1030 -0.3978 -0.4252
60035SOL    HW191830   1.535   4.207  13.593 -0.8937 -0.5485  0.2033
60035SOL    HW291831   1.665   4.247  13.660  0.2781 -0.8739 -1.7987
60036SOL     OW91832  11.724  12.775   0.831  0.1325  0.3316  0.4098
60036SOL    HW191833  11.745  12.723   0.754 -0.9428  0.1049  0.2545
60036SOL    HW291834  11.653  12.833   0.803  0.7759  1.3465  0.7992
60037SOL     OW91835   6.722   9.969   5.943  0.0450 -0.0215  0.2829
60037SOL    HW191836   6.690   9.906   5.879 -3.7693  0.8025  1.1462
60037SOL    HW291837   6.719  10.053   5.899  2.6249 -0.0181 -0.0373
60038SOL     OW91838  13.355   6.901  11.636 -0.4044 -0.4371  0.4796
60038SOL    HW191839  13.298   6.860  11.571  1.4102  0.1597 -1.5941
60038SOL    HW291840  13.320   6.872  11.720 -0.6601 -4.3066 -0.7703
60039SOL     OW91841   1.481  11.527   1.402  0.2542  0.2406 -0.2619
60039SOL    HW191842   1.429  11.467   1.454 -2.1253 -0.0970 -2.7802
60039SOL    HW291843   1.560  11.478   1.379 -0.6757 -1.1718 -0.5311
60040SOL     OW91844  10.967   0.417   9.775 -0.2426  0.6657  0.6814
60040SOL    HW191845  10.920   0.357   9.717  1.0158  0.6086 -0.3323
60040SOL    HW291846  10.978   0.369   9.857 -2.7427  1.0353  1.3127
60041SOL     OW91847   2.312   3.340   6.441 -0.0215  0.6534 -0.1926
60041SOL    HW191848   2.375   3.381   6.381 -1.1637  1.9177 -0.5811
60041SOL    HW291849   2.295   3.407   6.507 -0.8020  0.2559  0.0228
60042SOL     OW91850   2.617  12.360  12.139  0.2837 -0.6276 -0.1329
60042SOL    HW191851   2.710  12.383  12.136  0.0997  0.0881 -0.6500
60042SOL    HW291852   2.578  12.425  12.197 -0.3005  0.6755 -1.8762
60043SOL     OW91853  11.461   6.135   4.526  0.5439  0.1604  0.2359
60043SOL    HW191854  11.524   6.132   4.598  1.8666 -0.3095 -0.9006
60043SOL    HW291855  11.479   6.219   4.482  0.3684  0.0316 -0.0879
60044SOL     OW91856  12.957  12.679   1.905 -0.4110 -0.1201  0.2036
60044SOL    HW191857  12.914  12.604   1.863 -0.2348  0.5234 -1.1955
60044SOL    HW291858  13.000  12.642   1.982 -0.8914 -1.3301 -0.0855
60045SOL     OW91859   7.281  10.218   7.622 -0.4375 -0.3701  0.5716
60045SOL    HW191860   7.308  10.308   7.638 -0.9206 -0.1815  0.3365
60045SOL    HW291861   7.363  10.168   7.621 -0.1494  0.1036  0.4601
60046SOL     OW91862   8.840   2.680   8.260  0.0521 -0.1628 -0.2604
60046SOL    HW191863   8.768   2.624   8.288  0.4711 -1.1669 -1.1309
60046SOL    HW291864   8.846   2.667   8.165  1.0709  0.2668 -0.2712
60047SOL     OW91865   0.109   0.430   1.594 -0.5268 -0.4864 -0.4308
60047SOL    HW191866   0.101   0.525   1.592 -0.1506 -0.3862  1.1415
60047SOL    HW291867   0.166   0.409   1.520  0.1411  0.6028 -0.2471
60048SOL     OW91868   5.272   9.792   8.944 -0.5114  0.2826  0.4722
60048SOL    HW191869   5.196   9.813   8.891 -0.4580 -0.7332 -0.0304
60048SOL    HW291870   5.325   9.734   8.889 -0.8784 -1.5091  1.9089
60049SOL     OW91871  11.937   8.420   3.726  0.1658  0.0257 -0.3888
60049SOL    HW191872  11.869   8.427   3.659  0.3519  0.8036 -0.5074
60049SOL    HW291873  11.919   8.338   3.771  0.1443 -0.5960 -1.5079
60050SOL     OW91874   5.591  12.233   6.085  0.7882 -0.3200  0.2696
60050SOL    HW191875   5.657  12.227   6.016  1.7215 -0.8648  1.1849
60050SOL    HW291876   5.608  12.318   6.127  0.3425 -0.0745 -0.0330
60051SOL     OW91877   6.639  10.534  12.231  0.5217  0.5315 -0.8219
60051SOL    HW191878   6.706  10.595  12.200 -0.7687  1.1673 -2.5430
60051SOL    HW291879   6.687  10.454  12.250  2.1977  1.8768  1.0241
60052SOL     OW91880  10.368   5.279   3.434 -0.2463 -0.4642  0.1522
60052SOL    HW191881  10.393   5.198   3.479 -1.0895 -0.8985 -0.1402
60052SOL    HW291882  10.378   5.348   3.500 -0.6347 -0.9726  0.7503
60053SOL     OW91883  10.230  11.224   8.219 -0.4206  0.2124 -0.2900
60053SOL    HW191884  10.201  11.291   8.156 -0.7945  3.3341  2.8608
60053SOL    HW291885  10.149  11.188   8.254 -0.2631  0.2969  0.1604
60054SOL     OW91886  10.010   9.740   8.155  0.3359 -0.5908  0.4307
60054SOL    HW191887   9.991   9.656   8.114  0.6194 -0.6592  0.4354
60054SOL    HW291888   9.945   9.748   8.225 -0.0883 -0.5151  0.0351
60055SOL     OW91889   6.418   3.557   7.743 -0.0962 -0.4446  0.1573
60055SOL    HW191890   6.331   3.556   7.783 -0.0126 -0.9045  0.3364
60055SOL    HW291891   6.473   3.508   7.804  0.4281  0.3579  0.3479
60056SOL     OW91892  12.254  10.936   5.299  0.5559 -0.0491  0.2352
60056SOL    HW191893  12.281  10.885   5.223 -1.2175  3.0191 -2.7588
60056SOL    HW291894  12.159  10.930   5.299  0.4535  1.1466  1.3015
60057SOL     OW91895   5.493   4.950  10.385  0.2289 -0.2218 -0.2624
60057SOL    HW191896   5.404   4.964  10.353  0.3935 -0.0545 -0.6450
60057SOL    HW291897   5.536   4.901  10.316  0.9889  1.3164 -0.9294
60058SOL     OW91898   9.789   7.241   9.291 -0.1584 -0.4120 -0.5517
60058SOL    HW191899   9.884   7.238   9.279  0.0792  0.2600  0.8918
60058SOL    HW291900   9.756   7.283   9.212  1.0339  1.7551  0.0289
60059SOL     OW91901   8.918   7.098   3.680  0.1714 -0.2306  0.2094
60059SOL    HW191902   9.002   7.055   3.665  0.0083 -0.7036  0.6291
60059SOL    HW291903   8.935   7.157   3.753  0.1382 -0.3250  0.2932
60060SOL     OW91904  10.897   5.008   1.004  0.2324 -0.2886  0.1773
60060SOL    HW191905  10.854   4.926   1.029  0.5526 -0.3166  0.6611
60060SOL    HW291906  10.969   5.017   1.067 -0.0108  0.5441  0.3425
60061SOL     OW91907   3.996   1.717   9.498  0.2186 -0.2968  0.6439
60061SOL    HW191908   4.062   1.755   9.441  0.0718 -2.5087 -1.1221
60061SOL    HW291909   3.929   1.683   9.439 -1.7503  0.4377  2.3134
60062SOL     OW91910   0.276   0.132   5.189 -0.4216  0.1405 -0.0148
60062SOL    HW191911   0.252   0.183   5.266 -0.9491  0.5499 -0.4449
60062SOL    HW291912   0.301   0.197   5.123  1.2646 -0.2503  0.2005
60063SOL     OW91913   8.396  11.402   2.800 -0.1064 -0.1913 -0.2516
60063SOL    HW191914   8.306  11.414   2.767 -0.1587 -2.3659 -1.0892
60063SOL    HW291915   8.396  11.446   2.885 -2.2406 -0.8360  0.1530
60064SOL     OW91916  12.959  13.621   8.520  0.2317 -0.2043  0.2641
60064SOL    HW191917  13.026  13.555   8.500 -0.8588 -1.0159 -0.8695
60064SOL    HW291918  12.890  13.572   8.565  0.7434  0.7981  2.2758
60065SOL     OW91919   5.678   1.748   0.939  0.2246  0.0394 -0.0337
60065SOL    HW191920   5.650   1.839   0.949  1.8617  0.5933 -0.1556
60065SOL    HW291921   5.754   1.739   0.997 -0.4941 -1.5490  0.7384
60066SOL     OW91922   0.107   5.496   3.683  0.2534  0.5060 -0.0826
60066SOL    HW191923   0.164   5.445   3.626 -0.2016  1.1964 -1.1836
60066SOL    HW291924   0.107   5.584   3.645  0.1768  1.0608  1.1644
60067SOL     OW91925   5.329   9.334   6.853 -0.1435 -0.1191  0.3808
60067SOL    HW191926   5.324   9.239   6.863  0.4419 -0.1158  0.7868
60067SOL    HW291927   5.365   9.347   6.765  0.8080 -0.3104  0.7223
60068SOL     OW91928   0.542  12.024  12.783 -0.5977  0.3339  0.3130
60068SOL    HW191929   0.450  12.040  12.764 -0.5579  1.7235  1.1217
60068SOL    HW291930   0.588  12.063  12.708 -0.6612 -0.6748 -0.2651
60069SOL     OW91931  13.644   2.635   3.745 -0.5081 -0.1624  0.7277
60069SOL    HW191932  13.616   2.674   3.662 -0.7778 -0.4036  0.7050
60069SOL    HW291933  13.604   2.689   3.813  1.7149  1.5711  0.7587
60070SOL     OW91934   2.392  10.711   4.343  0.3826 -0.0575  0.1923
60070SOL    HW191935   2.470  10.733   4.394  0.1317  1.9111 -0.1975
60070SOL    HW291936   2.366  10.624   4.375  0.3304  1.0070  3.3520
60071SOL     OW91937   2.867   2.456   4.103  0.0574  0.0531  0.8590
60071SOL    HW191938   2.847   2.516   4.030  1.1270 -0.3483  0.1963
60071SOL    HW291939   2.800   2.389   4.099  0.4446 -0.2970 -0.1709
60072SOL     OW91940   1.314  12.648  13.304 -0.0909 -0.8106  0.1282
60072SOL    HW191941   1.247  12.613  13.363 -1.0664 -1.1408 -1.1053
60072SOL    HW291942   1.397  12.628  13.346 -0.7644  0.1383  2.0133
60073SOL     OW91943  13.711   0.130   2.356  0.0059  0.3757 -0.6000
60073SOL    HW191944  13.667   0.175   2.285  0.9703  3.0826  0.3791
60073SOL    HW291945  13.803   0.125   2.328  0.0192 -0.4427 -0.4243
60074SOL     OW91946  12.344   1.537   6.125  0.5711 -0.4667 -0.2995
60074SOL    HW191947  12.260   1.582   6.124  1.5079  1.3900 -1.7849
60074SOL    HW291948  12.322   1.445   6.137 -1.6411  0.0188 -0.2878
60075SOL     OW91949   6.856   0.008  11.831 -0.3487 -0.3165  0.1907
60075SOL    HW191950   6.791   0.032  11.765 -3.1804 -2.4107  1.9646
60075SOL    HW291951   6.913  -0.055  11.787 -0.1108  0.7916 -1.1352
60076SOL     OW91952  11.151   2.998   6.431  0.3130 -0.0801  0.1933
60076SOL    HW191953  11.139   2.904   6.416 -0.3984 -0.0156  0.3201
60076SOL    HW291954  11.215   3.025   6.365 -0.6116 -0.3660 -0.8529
60077SOL     OW91955   4.680   2.020   6.908  0.5316  0.1532 -0.3044
60077SOL    HW191956   4.637   1.935   6.911 -0.4007  0.5944 -0.7475
60077SOL    HW291957   4.649   2.065   6.986  1.9696 -0.3329  0.5794
60078SOL     OW91958   6.079   9.590   5.221  0.0701  0.1101 -0.7718
60078SOL    HW191959   6.075   9.686   5.216 -0.1453  0.1121 -0.5681
60078SOL    HW291960   6.056   9.561   5.133  0.8056  0.2608 -1.0220
60079SOL     OW91961  10.753   7.816   5.533  0.0007  0.4490  0.6097
60079SOL    HW191962  10.768   7.729   5.570  2.2891  0.6053  0.1775
60079SOL    HW291963  10.677   7.805   5.476 -0.4711 -0.9736  1.4544
60080SOL     OW91964   7.191   5.444   4.196  0.1454  0.0937  0.6009
60080SOL    HW191965   7.113   5.480   4.238  0.2149  1.2660 -0.2183
60080SOL    HW291966   7.176   5.349   4.193 -0.8923  0.2351  1.1348
60081SOL     OW91967   7.527   3.855   2.144  0.0812  0.0900 -0.4241
60081SOL    HW191968   7.491   3.943   2.154  0.6202  0.4729 -1.6930
60081SOL    HW291969   7.450   3.798   2.138 -0.2886  0.2052  2.1558
60082SOL     OW91970  11.600   8.216   0.692 -0.4488  0.1013  0.2799
60082SOL    HW191971  11.517   8.189   0.652 -0.1176 -0.5964  0.0434
60082SOL    HW291972  11.647   8.261   0.622 -0.5774  0.4028  0.3841
60083SOL     OW91973   0.311  10.321   0.648  0.1495  0.3552  1.0083
60083SOL    HW191974   0.319  10.231   0.616  0.5161  0.1538  1.6468
60083SOL    HW291975   0.307  10.374   0.569 -1.1623 -0.3077  0.6091
60084SOL     OW91976   0.121   0.710   1.623 -0.1492 -0.7542 -0.1434
60084SOL    HW191977   0.186   0.779   1.610 -0.0579 -1.2172 -2.5515
60084SOL    HW291978   0.074   0.705   1.540 -1.9580 -1.8006  0.8612
60085SOL     OW91979   1.126  12.989   8.976 -0.0938  0.3129  0.0675
60085SOL    HW191980   1.060  13.032   9.030 -0.2736 -1.0730  0.9787
60085SOL    HW291981   1.112  12.896   8.989 -0.7764 -0.1590 -3.1676
60086SOL     OW91982  12.151   1.862  11.736 -0.4119 -0.2197 -0.7644
60086SOL    HW191983  12.207   1.850  11.659 -0.2803  3.3225 -1.3861
60086SOL    HW291984  12.209   1.899  11.803 -0.5270 -3.2398  1.1783
60087SOL     OW91985   2.402   4.390  13.433 -0.3985 -0.1545  0.5349
60087SOL    HW191986   2.374   4.481  13.423  1.4094  0.4438  0.6471
60087SOL    HW291987   2.471   4.393  13.499 -0.6652 -1.7013  0.9239
60088SOL     OW91988   1.985   8.220   1.296 -0.4735  0.5835  0.1975
60088SOL    HW191989   2.017   8.163   1.366 -0.1765 -1.0438 -1.1909
60088SOL    HW291990   1.894   8.193   1.283 -0.4485  0.6938 -0.2073
60089SOL     OW91991  10.094  10.267   0.778 -0.2713  0.3695  0.6076
60089SOL    HW191992  10.008  10.228   0.766  0.9528 -2.3254 -0.2024
60089SOL    HW291993  10.087  10.353   0.736 -2.8616  0.7776  1.6846
60090SOL     OW91994   6.253  12.293   6.475 -0.0645  0.3235 -0.0184
60090SOL    HW191995   6.286  12.205   6.493 -1.5759 -0.2939 -0.1452
60090SOL    HW291996   6.329  12.340   6.440  0.1498 -1.7708 -2.7065
60091SOL     OW91997   1.326   1.893  13.637  0.0312 -0.4588 -0.3802
60091SOL    HW191998   1.328   1.971  13.581 -0.5854 -0.5216 -0.4926
60091SOL    HW291999   1.362   1.924  13.721  3.0828 -0.8863 -1.4060
60092SOL     OW92000   0.742   4.113  12.983 -0.3514  0.7918  0.0636
60092SOL    HW192001   0.716   4.119  12.891 -1.5489 -0.3485  0.2911
60092SOL    HW292002   0.720   4.023  13.008  1.8144  0.4446  0.9450
60093SOL     OW92003  10.023   2.694   9.756  0.6080  0.0261 -0.3889
60093SOL    HW192004  10.065   2.614   9.787 -2.1008 -0.8035  1.5723
60093SOL    HW292005  10.062   2.764   9.808  1.3658 -0.3221 -0.4790
60094SOL     OW92006   3.190   8.632   7.626  0.2710 -0.4172 -0.3967
60094SOL    HW192007   3.228   8.716   7.649 -0.0448  0.0550 -1.5520
60094SOL    HW292008   3.242   8.568   7.674  1.1530  0.3606 -0.2962
60095SOL     OW92009   7.278   9.109  12.301  0.2696  0.6462  0.2681
60095SOL    HW192010   7.270   9.181  12.238 -0.7868 -0.3246 -0.7525
60095SOL    HW292011   7.372   9.088  12.300  0.1698  0.0196 -1.7869
60096SOL     OW92012   1.401   6.440   2.102  0.0376 -0.3878 -0.1704
60096SOL    HW192013   1.453   6.481   2.171 -1.8926 -0.2110  1.2643
60096SOL    HW292014   1.465   6.400   2.044  1.9000  2.2740 -0.1308
60097SOL     OW92015  10.449   5.682   1.108 -0.4124 -0.8378 -0.1681
60097SOL    HW192016  10.437   5.634   1.026  1.0202  0.6617 -1.3063
60097SOL    HW292017  10.507   5.626   1.160 -0.4005 -1.2684 -0.6386
60098SOL     OW92018   0.527  13.466   2.331  0.1709  0.1529  0.1348
60098SOL    HW192019   0.579  13.386   2.342  0.9047  0.7127  0.8907
60098SOL    HW292020   0.535  13.511   2.415  0.0768  1.2099 -0.4094
60099SOL     OW92021  13.479  12.522   1.425 -0.3097 -0.3386 -0.0498
60099SOL    HW192022  13.399  12.484   1.461  0.6553 -3.0338 -0.5070
60099SOL    HW292023  13.544  12.510   1.494  0.4914 -1.3729 -0.9631
60100SOL     OW92024  10.284  12.344   1.015  0.1854 -0.0256 -0.7429
60100SOL    HW192025  10.346  12.374   1.082  0.5722  0.5898 -1.3673
60100SOL    HW292026  10.200  12.339   1.061  0.3679  0.7824 -0.3143
60101SOL     OW92027   0.617  12.697  12.395  0.3930  0.0952  0.7649
60101SOL    HW192028   0.628  12.699  12.300  1.5751 -1.2049  0.8457
60101SOL    HW292029   0.701  12.725  12.431 -0.2153  1.1367  1.4605
60102SOL     OW92030   7.264   3.140  11.746 -0.3295 -0.3756 -0.0201
60102SOL    HW192031   7.312   3.183  11.816 -1.2730  1.5156 -0.4565
60102SOL    HW292032   7.178   3.182  11.747 -0.7148 -1.0546 -1.6180
60103SOL     OW92033  12.764   0.009   1.373 -0.2827  0.2936  0.0972
60103SOL    HW192034  12.713  -0.071   1.358 -0.7558  0.7921 -1.1089
60103SOL    HW292035  12.834   0.006   1.307 -0.3107  0.8773  0.0350
60104SOL     OW92036   1.500   2.667  10.581  0.4552  0.5873  0.2315
60104SOL    HW192037   1.408   2.646  10.568 -0.5072  3.2223  1.8533
60104SOL    HW292038   1.542   2.644  10.499 -2.2319  2.0708 -1.7331
60105SOL     OW92039  11.650   9.494   3.711 -0.4258  0.4364 -0.2693
60105SOL    HW192040  11.594   9.572   3.720 -0.7361  0.1983 -0.1005
60105SOL    HW292041  11.701   9.492   3.791 -3.0531 -1.5823  1.5332
60106SOL     OW92042   1.915   3.321   0.564  0.5252  0.5451  0.0904
60106SOL    HW192043   1.966   3.398   0.587  0.8081  0.2867  0.3341
60106SOL    HW292044   1.896   3.332   0.471  1.9538  0.1283 -0.2831
60107SOL     OW92045  10.368   4.326   6.081 -0.2931  0.1763  0.0780
60107SOL    HW192046  10.444   4.385   6.085 -0.3863  0.5238 -1.8852
60107SOL    HW292047  10.397   4.254   6.025 -0.8973 -0.5140  0.6462
60108SOL     OW92048   7.634   0.244   1.365  0.2692 -0.3811  0.4560
60108SOL    HW192049   7.589   0.284   1.439 -1.7334  1.6310 -1.6856
60108SOL    HW292050   7.598   0.155   1.360  0.0645 -0.3658  1.5794
60109SOL     OW92051   0.160   9.540   9.105  0.2435  0.0336  0.4953
60109SOL    HW192052   0.095   9.610   9.103  0.5223  0.2936  0.5461
60109SOL    HW292053   0.224   9.568   9.170  0.1050 -0.4921  0.8710
60110SOL     OW92054   2.472   9.593   1.511 -0.1382  0.0386  0.6299
60110SOL    HW192055   2.385   9.556   1.500  0.8767 -2.0373 -1.0042
60110SOL    HW292056   2.522   9.525   1.556  0.9245  0.7546  0.5616
60111SOL     OW92057   4.710  12.207   8.878  0.9540 -0.2772 -0.7348
60111SOL    HW192058   4.657  12.284   8.899 -0.0088 -1.3055  0.8778
60111SOL    HW292059   4.647  12.146   8.839  0.9112 -1.4379  1.0139
60112SOL     OW92060   1.845   9.629   6.291 -0.3691 -0.4440 -0.2133
60112SOL    HW192061   1.811   9.606   6.205 -0.3859  0.7549 -0.5372
60112SOL    HW292062   1.790   9.700   6.321  0.0126 -0.4549  0.5395
60113SOL     OW92063  11.319   1.465   3.536  0.2474  0.2544 -0.3286
60113SOL    HW192064  11.334   1.559   3.528 -0.6541  0.4413  0.0406
60113SOL    HW292065  11.392   1.425   3.490 -0.1229  1.1564 -1.7512
60114SOL     OW92066   8.291  11.454   3.481  0.4097  0.8129  0.2835
60114SOL    HW192067   8.208  11.406   3.477  1.6146 -1.3667  0.4153
60114SOL    HW292068   8.279  11.516   3.553 -1.5202  1.4451 -0.4986
60115SOL     OW92069  12.889   4.718   0.157  0.3086 -0.1864  0.1171
60115SOL    HW192070  12.975   4.713   0.115  1.6175 -1.8556  2.7421
60115SOL    HW292071  12.893   4.795   0.213  0.2585 -0.5155  0.5757
60116SOL     OW92072   1.487   7.015   2.003 -0.1772  0.4592  0.2259
60116SOL    HW192073   1.522   6.930   2.029 -1.4440 -0.0050  0.4859
60116SOL    HW292074   1.416   7.031   2.065  1.1515  2.5622  1.3513
60117SOL     OW92075   7.169   3.400  12.795  0.5009  0.1760 -0.8158
60117SOL    HW192076   7.142   3.374  12.882  1.4735 -1.9161 -1.0831
60117SOL    HW292077   7.187   3.494  12.803  1.4723 -0.1264  1.4889
60118SOL     OW92078   8.007   6.712   5.790 -0.0443  0.5828 -0.3631
60118SOL    HW192079   8.100   6.716   5.813  0.0715 -0.1793 -0.6809
60118SOL    HW292080   8.003   6.746   5.701  0.4515 -2.5486 -1.7127
60119SOL     OW92081   2.233   8.842   0.226 -0.4172 -0.2381  0.0284
60119SOL    HW192082   2.251   8.921   0.175 -1.6308 -0.1401 -0.2750
60119SOL    HW292083   2.142   8.852   0.254  0.3686  0.0359  2.7940
60120SOL     OW92084   9.114   2.321   9.402  0.5274 -0.0553  0.4028
60120SOL    HW192085   9.048   2.313   9.470 -0.0007  0.0037 -0.0958
60120SOL    HW292086   9.064   2.333   9.321  1.0631 -2.0975 -0.2990
60121SOL     OW92087   3.476   8.904  12.894 -0.6275 -0.0385 -0.5505
60121SOL    HW192088   3.533   8.833  12.865 -0.6102 -0.0078 -0.5916
60121SOL    HW292089   3.529   8.954  12.956 -0.2276  0.6288 -1.4131
60122SOL     OW92090   5.081   0.023   8.485  0.3483  0.4317  0.4460
60122SOL    HW192091   5.074   0.118   8.474 -1.4672  0.4015  1.0154
60122SOL    HW292092   5.092   0.011   8.580 -0.0818  0.0563  0.4510
60123SOL     OW92093   4.969   1.482   8.708  0.2163  1.1469  0.4806
60123SOL    HW192094   5.006   1.442   8.629 -0.1127  2.5104 -0.3924
60123SOL    HW292095   5.044   1.522   8.752  0.4213  0.2720  0.9512
60124SOL     OW92096   7.083  11.366   5.918 -0.2308 -0.1301  0.3671
60124SOL    HW192097   6.996  11.394   5.892  1.0532  0.6810 -3.7954
60124SOL    HW292098   7.121  11.442   5.961 -0.2013  1.0842 -1.6996
60125SOL     OW92099   6.459   7.690  13.741 -0.4442 -0.4133  0.3816
60125SOL    HW192100   6.495   7.722  13.823 -0.2265 -2.4255  1.1470
60125SOL    HW292101   6.377   7.646  13.767 -0.4895 -0.8707 -0.4967
60126SOL     OW92102   0.115   0.929  12.694 -0.0906 -0.1815 -0.4582
60126SOL    HW192103   0.151   0.903  12.610  0.7608 -1.4038  0.2557
60126SOL    HW292104   0.032   0.881  12.701 -0.4373  0.3496 -0.8190
60127SOL     OW92105  12.396  10.886   5.551 -0.6239 -0.7628 -0.3119
60127SOL    HW192106  12.434  10.960   5.505 -0.3037 -0.3829  0.5427
60127SOL    HW292107  12.313  10.869   5.506 -0.5699 -0.0605 -0.6824
60128SOL     OW92108   6.664  10.753  11.211 -0.1175 -0.0382 -0.3682
60128SOL    HW192109   6.629  10.707  11.135 -0.9221  0.9258 -0.5918
60128SOL    HW292110   6.751  10.716  11.223 -1.0388 -2.2432 -0.0254
60129SOL     OW92111   7.711  12.632   9.753  0.2652 -0.3213 -0.3742
60129SOL    HW192112   7.660  12.583   9.689 -1.8796  1.0362  0.2178
60129SOL    HW292113   7.721  12.719   9.715  1.8992 -0.4539 -0.3216
60130SOL     OW92114   2.763   6.377   4.481  0.4142  0.1991  0.5586
60130SOL    HW192115   2.739   6.294   4.522  1.3372  0.1173  0.9697
60130SOL    HW292116   2.693   6.394   4.418  0.9887 -1.6958 -0.6798
60131SOL     OW92117  11.572   8.979   9.916  0.6812  0.3534  0.0609
60131SOL    HW192118  11.589   8.913   9.849  0.2553 -0.0997  0.3921
60131SOL    HW292119  11.640   8.965   9.982  0.2448 -0.1473  0.4155
60132SOL     OW92120   2.335  10.530   8.481  0.3095 -0.0646 -0.2256
60132SOL    HW192121   2.395  10.604   8.473  1.8021 -0.9327  1.8969
60132SOL    HW292122   2.349  10.498   8.570 -2.7138 -0.8733  0.0583
60133SOL     OW92123   2.999  11.698   5.693 -0.1456 -0.1093  0.3585
60133SOL    HW192124   3.046  11.650   5.625 -0.8526 -3.0625  1.7684
60133SOL    HW292125   3.065  11.719   5.759 -0.0775 -0.6104  0.4557
60134SOL     OW92126   7.733  11.269   4.294  0.2937  0.4845 -0.3089
60134SOL    HW192127   7.777  11.237   4.215  0.6190  0.7406 -0.2323
60134SOL    HW292128   7.665  11.328   4.261  0.4738  0.6445 -0.3981
60135SOL     OW92129  10.320   6.545   4.953  0.9227  0.5232 -0.3335
60135SOL    HW192130  10.225   6.557   4.948  0.8907  0.3265 -0.2261
60135SOL    HW292131  10.336   6.519   5.044  0.9849 -0.2441 -0.5578
60136SOL     OW92132   0.904  10.674   1.074 -0.0928 -0.4549  0.0166
60136SOL    HW192133   0.851  10.751   1.096  1.1028  0.2917  0.3484
60136SOL    HW292134   0.947  10.697   0.992  0.0938 -0.8729 -0.0048
60137SOL     OW92135  13.487   9.410   4.301  0.1138  0.2467  0.2626
60137SOL    HW192136  13.494   9.396   4.396 -0.6123  1.4175  0.5079
60137SOL    HW292137  13.517   9.500   4.288  1.4751 -0.3323 -0.8140
60138SOL     OW92138  12.505   5.808  11.564 -0.3144 -0.0277 -0.1506
60138SOL    HW192139  12.424   5.761  11.546 -0.5281  0.3787 -0.2614
60138SOL    HW292140  12.527   5.784  11.654 -1.8557  1.7366  0.7437
60139SOL     OW92141   2.410   5.156   6.994  0.4502 -0.3188  0.8131
60139SOL    HW192142   2.413   5.247   7.022  0.7828 -0.2294  0.4886
60139SOL    HW292143   2.495   5.120   7.018  1.6980  0.3840 -2.1545
60140SOL     OW92144   4.170   7.948  12.919 -0.3366 -0.0343 -0.8067
60140SOL    HW192145   4.094   7.999  12.948  0.4537  0.4651  0.4547
60140SOL    HW292146   4.192   7.985  12.833  1.3264  3.1339  0.8073
60141SOL     OW92147   4.847   3.946   9.564  0.1175  0.4059  0.3812
60141SOL    HW192148   4.899   3.952   9.484 -0.2830  0.3263  0.1162
60141SOL    HW292149   4.877   3.865   9.606  0.8213  0.7985  0.6673
60142SOL     OW92150  10.908  11.437   8.320  0.5844 -0.1858 -0.3282
60142SOL    HW192151  10.856  11.455   8.398 -0.6121  1.8340 -1.4902
60142SOL    HW292152  10.938  11.524   8.291 -0.8098 -0.5572 -3.2576
60143SOL     OW92153   6.707  10.001   9.342 -0.1816 -0.4070  1.1374
60143SOL    HW192154   6.676  10.056   9.270 -0.4828 -0.7294  1.0190
60143SOL    HW292155   6.791  10.039   9.365 -0.9990  0.9787  1.9964
60144SOL     OW92156  11.459   1.812  12.563  0.4597 -0.0200 -0.3216
60144SOL    HW192157  11.471   1.883  12.500  0.6120  0.9517  0.7748
60144SOL    HW292158  11.489   1.848  12.646  1.0687 -1.5637  0.1572
60145SOL     OW92159   1.531   9.066   9.784  0.8382  0.4784  0.1203
60145SOL    HW192160   1.508   9.100   9.871 -0.0396 -0.7113  0.3781
60145SOL    HW292161   1.488   8.981   9.779  0.5494  0.6838 -1.6415
60146SOL     OW92162  11.885   6.262   9.792  0.3574  0.0426  0.4297
60146SOL    HW192163  11.945   6.278   9.719  0.9656 -0.8055  0.7213
60146SOL    HW292164  11.854   6.349   9.818  1.8043  0.5499  0.5527
60147SOL     OW92165   8.204   6.987   5.815  0.0682  0.2170 -0.8162
60147SOL    HW192166   8.191   6.998   5.721 -1.2176 -1.9454 -0.9525
60147SOL    HW292167   8.216   6.892   5.827  0.1514  0.4325  1.2141
60148SOL     OW92168   1.595   3.199  10.899  0.0692 -0.8797  0.4277
60148SOL    HW192169   1.589   3.189  10.994 -0.3651 -1.1406  0.3758
60148SOL    HW292170   1.574   3.112  10.865  1.5266 -1.1364  0.1300
60149SOL     OW92171   3.016  10.469   2.120 -0.3799 -0.4530  0.1274
60149SOL    HW192172   3.091  10.409   2.126 -0.0533  0.0707  2.2173
60149SOL    HW292173   3.052  10.550   2.087 -0.4549 -0.8309 -0.9021
60150SOL     OW92174   6.958   5.495  13.237  0.4572  0.1714 -0.1616
60150SOL    HW192175   7.005   5.538  13.166 -0.0071  1.5500  0.3266
60150SOL    HW292176   6.920   5.416  13.197 -0.1077  1.1026 -1.5356
60151SOL     OW92177   2.699  10.930   2.118  0.6649 -0.1059  0.2032
60151SOL    HW192178   2.617  10.884   2.136  0.0272  0.9540  0.0886
60151SOL    HW292179   2.744  10.934   2.203 -0.7832  1.8943  0.9649
60152SOL     OW92180   7.074   1.262   8.014 -0.8445  0.2344 -0.5045
60152SOL    HW192181   7.115   1.246   7.929 -2.0834  2.2979 -1.5832
60152SOL    HW292182   7.090   1.182   8.064 -0.2559 -1.1472 -2.7522
60153SOL     OW92183  11.930   0.260  12.799  0.5174  0.4172  0.6082
60153SOL    HW192184  11.868   0.196  12.763  2.5717  0.0888 -2.7549
60153SOL    HW292185  12.016   0.222  12.782  1.8085  3.7289 -1.0879
60154SOL     OW92186   8.781   3.052   4.741  1.1710 -0.0168 -0.7819
60154SOL    HW192187   8.704   3.078   4.692  1.2218  1.0416 -0.3073
60154SOL    HW292188   8.822   3.134   4.768  0.5362 -0.5142  2.0118
60155SOL     OW92189   2.831   6.946   8.043  0.3006  0.2586 -0.2607
60155SOL    HW192190   2.764   6.879   8.054 -0.1853  0.9516  1.2993
60155SOL    HW292191   2.875   6.922   7.962 -0.4924 -1.3779 -0.2617
60156SOL     OW92192   1.097   3.084   3.983  0.3837  0.0889 -0.0425
60156SOL    HW192193   1.150   3.007   4.006  2.8847  1.9984  1.0197
60156SOL    HW292194   1.145   3.127   3.913 -0.5698  1.1250 -0.0870
60157SOL     OW92195   3.997   2.815  11.482  0.4144  0.3038  0.1121
60157SOL    HW192196   4.029   2.853  11.400 -2.4410  0.1401 -1.2103
60157SOL    HW292197   4.076   2.793  11.531  2.2248  1.0428 -2.2873
60158SOL     OW92198   6.901   6.843   6.990  0.4155 -0.4311 -0.0388
60158SOL    HW192199   6.916   6.748   6.988 -0.3017 -0.5529  0.0506
60158SOL    HW292200   6.870   6.859   7.079  2.0048  0.1282  0.4417
60159SOL     OW92201  12.496  12.319  10.954 -0.2732  0.2851 -0.1183
60159SOL    HW192202  12.406  12.290  10.967 -0.3545  0.0570 -1.1649
60159SOL    HW292203  12.545  12.276  11.025 -0.9226  0.1498  0.2570
60160SOL     OW92204   0.411  12.307   8.364  0.3726 -1.0275 -0.1753
60160SOL    HW192205   0.450  12.343   8.285  2.1665  0.2231  1.1672
60160SOL    HW292206   0.378  12.221   8.339  1.5837 -0.9846 -2.0770
60161SOL     OW92207  12.404   6.717  12.486 -0.4260 -0.1684  0.2316
60161SOL    HW192208  12.475   6.745  12.429 -1.1232 -0.3147 -0.7334
60161SOL    HW292209  12.446   6.703  12.571  0.5656  0.3966 -0.1469
60162SOL     OW92210   1.153   6.399   7.151  0.0213  0.5730 -0.7110
60162SOL    HW192211   1.089   6.411   7.081 -2.1217  0.1904  1.0789
60162SOL    HW292212   1.137   6.472   7.211 -0.2919 -0.7557  0.8781
60163SOL     OW92213  13.551   1.477  11.661 -0.7539 -0.1527 -0.2336
60163SOL    HW192214  13.568   1.501  11.570 -1.6272  1.3206 -0.0381
60163SOL    HW292215  13.585   1.388  11.670 -1.8817 -0.8511 -2.3590
60164SOL     OW92216   4.393   2.379   9.638 -0.7107  0.0149  0.2279
60164SOL    HW192217   4.371   2.342   9.553 -1.9472  0.3324  0.3966
60164SOL    HW292218   4.377   2.307   9.700  2.2737 -0.9611  0.0520
60165SOL     OW92219  13.385   3.727   9.872 -0.1231  0.5102  0.2448
60165SOL    HW192220  13.290   3.730   9.866 -0.0502 -0.0365 -2.9863
60165SOL    HW292221  13.404   3.643   9.914 -0.9985  1.1008  1.9302
60166SOL     OW92222   1.460  10.999  10.956 -0.3042  0.6476  0.1972
60166SOL    HW192223   1.517  11.047  11.016  1.6244  1.3920 -2.0890
60166SOL    HW292224   1.390  11.061  10.935 -0.2446  0.8628  0.6197
60167SOL     OW92225   0.173  11.338   1.046  0.0054 -0.4183 -0.2346
60167SOL    HW192226   0.166  11.254   1.093  1.0322  0.4166  1.5034
60167SOL    HW292227   0.125  11.323   0.964 -0.1952 -2.5681  0.1998
60168SOL     OW92228   9.637  11.612  10.954  0.5760 -0.2040 -0.1078
60168SOL    HW192229   9.731  11.598  10.948  0.5786 -0.2967  0.1179
60168SOL    HW292230   9.609  11.556  11.028  0.0811 -1.5286 -1.2479
60169SOL     OW92231   3.438   1.896   0.821  0.3923 -0.0771  0.4005
60169SOL    HW192232   3.402   1.809   0.839 -1.7640  0.8693  1.0572
60169SOL    HW292233   3.388   1.926   0.746 -0.2362  1.2993  1.3358
60170SOL     OW92234   0.328   1.212   1.945 -0.1538 -0.0401  0.2284
60170SOL    HW192235   0.401   1.245   1.892 -0.6599 -2.1298 -1.9339
60170SOL    HW292236   0.250   1.244   1.900 -0.5992 -0.4919  0.6720
60171SOL     OW92237   2.363   4.585   7.395  0.2454  0.2781  0.3402
60171SOL    HW192238   2.312   4.547   7.467 -1.2540  0.2952 -0.6718
60171SOL    HW292239   2.307   4.654   7.359  1.3834  0.9385 -0.2324
60172SOL     OW92240   2.431   3.629   3.431  0.2524  0.8427  0.3601
60172SOL    HW192241   2.477   3.690   3.372 -2.2843  1.4224 -1.1410
60172SOL    HW292242   2.362   3.682   3.471 -0.3864 -0.4527  1.0307
60173SOL     OW92243  12.280  11.500   1.407  0.7154  0.4299 -0.1500
60173SOL    HW192244  12.356  11.513   1.464 -1.1503 -0.7078  2.9110
60173SOL    HW292245  12.219  11.570   1.433 -0.5289 -0.6490 -0.0673
60174SOL     OW92246   9.699   1.802   5.320  0.0747  0.2858 -0.8717
60174SOL    HW192247   9.672   1.740   5.388  2.0502  0.1937 -0.1026
60174SOL    HW292248   9.666   1.764   5.239 -0.9408 -0.4402 -0.1425
60175SOL     OW92249   0.877   0.045   7.251  0.4573  0.3623 -0.0412
60175SOL    HW192250   0.840   0.122   7.207  2.4652  1.1842 -0.4351
60175SOL    HW292251   0.938   0.082   7.316 -1.6236 -0.8378  2.8098
60176SOL     OW92252   7.038  10.377   9.797 -0.2158 -0.1813  0.1559
60176SOL    HW192253   6.943  10.379   9.799 -0.4667 -3.2880  3.6814
60176SOL    HW292254   7.065  10.441   9.863 -0.0264 -0.8443  0.7358
60177SOL     OW92255  10.101  10.622   4.163 -0.0454 -0.5881 -0.2170
60177SOL    HW192256  10.142  10.535   4.160  0.0188 -0.5770  0.2731
60177SOL    HW292257  10.097  10.649   4.071  1.6630 -0.3027 -0.2357
60178SOL     OW92258   0.411   3.983   2.007 -0.4188  0.5052  0.3104
60178SOL    HW192259   0.362   4.033   1.943  0.9575  2.5364  0.7331
60178SOL    HW292260   0.441   4.048   2.071  0.0890 -1.1133  1.8215
60179SOL     OW92261   5.597   0.631   5.546 -0.4976 -0.2982  0.2231
60179SOL    HW192262   5.583   0.559   5.608  1.3045  0.4189  1.5411
60179SOL    HW292263   5.559   0.707   5.589 -0.5987 -0.0786 -0.2556
60180SOL     OW92264   4.084  12.331   2.767 -0.0301  0.2495  0.0745
60180SOL    HW192265   4.007  12.301   2.815  0.4531 -1.4404 -0.1444
60180SOL    HW292266   4.086  12.278   2.688  1.7378 -0.2709  0.4162
60181SOL     OW92267  10.041  11.598  12.970 -0.2605 -0.0920  0.6354
60181SOL    HW192268  10.045  11.506  12.942  0.4844 -0.1614  0.9486
60181SOL    HW292269   9.947  11.618  12.972 -0.4861 -1.1212  1.4290
60182SOL     OW92270  11.081   9.390  10.192 -0.1021 -0.1937 -0.2035
60182SOL    HW192271  11.048   9.391  10.282 -1.4268 -1.1344 -0.6406
60182SOL    HW292272  11.003   9.379  10.138  0.6343  0.6902 -1.5067
60183SOL     OW92273   4.099  11.009   1.054 -0.5991 -0.4320 -0.5899
60183SOL    HW192274   4.105  11.068   1.129 -0.7855  0.3398 -1.1751
60183SOL    HW292275   4.190  10.993   1.029 -0.5526 -0.2705 -0.5261
60184SOL     OW92276   7.455   9.322   3.970  0.0089  0.1959  0.8125
60184SOL    HW192277   7.385   9.309   4.033 -1.0362 -0.3911 -0.4187
60184SOL    HW292278   7.471   9.235   3.933 -0.9604  0.8351 -1.2858
60185SOL     OW92279   0.709   1.775  12.080  0.2890  0.1369 -0.3765
60185SOL    HW192280   0.749   1.795  11.996 -1.6072  4.0141 -0.6094
60185SOL    HW292281   0.646   1.846  12.094 -2.9457 -2.8590  2.1439
60186SOL     OW92282  13.188   1.274  10.691 -0.6921  0.0430  0.3176
60186SOL    HW192283  13.218   1.217  10.620 -1.6389 -0.2489  0.1228
60186SOL    HW292284  13.152   1.351  10.646 -1.6979 -0.3372  0.4232
60187SOL     OW92285   4.488   3.024   6.851 -0.3183 -0.2962 -0.1781
60187SOL    HW192286   4.454   3.022   6.941  0.0558 -0.9683 -0.0453
60187SOL    HW292287   4.480   2.934   6.820  0.2316 -0.2186 -0.5620
60188SOL     OW92288   0.034   9.541   3.735  0.5117  0.0052  0.6241
60188SOL    HW192289   0.073   9.457   3.712 -1.0809 -1.3754  2.6657
60188SOL    HW292290   0.100   9.584   3.789  1.5640  0.3755 -0.8925
60189SOL     OW92291   9.227   8.642  13.613 -0.3333 -0.2790 -0.2960
60189SOL    HW192292   9.160   8.710  13.616  1.3990  1.4775  1.2951
60189SOL    HW292293   9.296   8.678  13.557  0.6153 -0.6678  0.5793
60190SOL     OW92294   6.795   2.452   3.753  0.3552 -0.6754 -0.4540
60190SOL    HW192295   6.737   2.376   3.751 -0.3961 -0.0946 -0.9395
60190SOL    HW292296   6.823   2.457   3.845 -0.7467 -0.6768 -0.1041
60191SOL     OW92297   7.747   2.922   7.255  0.1615 -0.2044  0.1450
60191SOL    HW192298   7.784   2.846   7.301  1.7582 -0.8503 -2.0294
60191SOL    HW292299   7.693   2.884   7.185 -0.4974  0.7092  0.1317
60192SOL     OW92300  12.871  10.513  12.930  0.5710  0.2282 -0.3606
60192SOL    HW192301  12.861  10.576  12.859 -0.4062 -1.4930 -1.8024
60192SOL    HW292302  12.853  10.564  13.009  0.4838  1.9075 -1.4111
60193SOL     OW92303  11.287   4.361   4.904  0.0056  0.3592 -0.1428
60193SOL    HW192304  11.279   4.358   4.809  1.5680  0.3624 -0.3029
60193SOL    HW292305  11.366   4.412   4.920  0.5178 -0.7563  1.1081
60194SOL     OW92306   5.869   0.590   8.568 -0.0181 -0.3145  0.1226
60194SOL    HW192307   5.872   0.500   8.534 -0.6714 -0.0461 -0.6682
60194SOL    HW292308   5.946   0.632   8.531 -0.2763 -0.2579 -0.3493
60195SOL     OW92309  12.799   3.106   5.459 -0.3499  0.2628  0.2890
60195SOL    HW192310  12.746   3.112   5.380 -1.0221  2.1927  0.8068
60195SOL    HW292311  12.860   3.035   5.443 -2.6185 -1.5934 -0.6194
60196SOL     OW92312   4.545   9.354   6.779  0.0054 -0.6685  0.8000
60196SOL    HW192313   4.454   9.340   6.752  0.4147 -0.7791 -0.5927
60196SOL    HW292314   4.558   9.293   6.851 -0.8426 -1.1286  0.5801
60197SOL     OW92315   7.346   1.820   7.752  0.1428  0.7590 -0.3572
60197SOL    HW192316   7.308   1.902   7.721  0.4505  0.0324 -2.8338
60197SOL    HW292317   7.273   1.758   7.755  0.2990  0.5658 -0.5556
60198SOL     OW92318   6.539   5.095  11.990 -0.0205 -0.1076 -0.4548
60198SOL    HW192319   6.627   5.073  11.961 -0.1719 -1.4555  0.0363
60198SOL    HW292320   6.551   5.170  12.048  0.5673  0.9370 -1.8815
60199SOL     OW92321   4.023   6.564  11.892 -0.4710 -0.6463 -0.3753
60199SOL    HW192322   4.013   6.473  11.865  0.6252 -0.2618 -2.2835
60199SOL    HW292323   4.109   6.567  11.935 -0.6704 -0.5859  0.0188
60200SOL     OW92324   8.420  11.152  12.343 -0.3008 -0.2436 -0.0816
60200SOL    HW192325   8.471  11.099  12.282 -1.9314 -0.1374 -1.6082
60200SOL    HW292326   8.360  11.090  12.384  0.3419 -0.1932  0.9950
60201SOL     OW92327  13.097  11.949   2.055 -0.3465 -0.1015  0.3248
60201SOL    HW192328  13.064  11.872   2.100 -0.3326  0.1715  0.8012
60201SOL    HW292329  13.079  11.932   1.962 -0.6092 -0.5447  0.4562
60202SOL     OW92330   8.193   3.520   7.927 -0.0121 -0.6064  0.3675
60202SOL    HW192331   8.219   3.546   7.839  0.6563 -0.2322  0.6642
60202SOL    HW292332   8.098   3.535   7.930  0.2401  1.2296  0.3215
60203SOL     OW92333   8.200   1.782   1.501 -0.6469 -0.7534  0.2265
60203SOL    HW192334   8.274   1.737   1.462 -0.1438 -0.2861  0.6247
60203SOL    HW292335   8.233   1.818   1.583 -1.1150  0.0531  0.0810
60204SOL     OW92336   6.386  10.639   3.916 -0.0855 -0.2967 -0.0859
60204SOL    HW192337   6.480  10.629   3.902  0.2200  1.9519 -0.1313
60204SOL    HW292338   6.373  10.621   4.009  0.5382  0.1530  0.0958
60205SOL     OW92339   3.937   4.588   8.540  0.1944  0.4202 -0.0912
60205SOL    HW192340   3.950   4.500   8.506  0.8016  0.7968 -0.8549
60205SOL    HW292341   3.924   4.575   8.634  0.5826 -0.4539 -0.1468
60206SOL     OW92342   8.604   7.859   2.752  0.6569  0.6772  0.7476
60206SOL    HW192343   8.627   7.777   2.795  0.5930  0.8078  1.0311
60206SOL    HW292344   8.512   7.848   2.727  0.9601  0.2242 -0.2297
60207SOL     OW92345   7.620   1.446   1.293  0.5206  0.1425  0.0057
60207SOL    HW192346   7.620   1.407   1.380  0.1992  0.8221  0.3222
60207SOL    HW292347   7.700   1.500   1.291  2.1032 -2.0934 -1.1805
60208SOL     OW92348   1.234  13.367  10.940 -0.1747  0.1987  0.0280
60208SOL    HW192349   1.271  13.450  10.970  0.8129 -0.2340  0.0275
60208SOL    HW292350   1.174  13.341  11.009  0.0688  0.5455  0.3726
60209SOL     OW92351   0.516  12.898   1.594 -0.0751  0.0501  0.5081
60209SOL    HW192352   0.518  12.884   1.500 -0.0064  1.1349  0.3434
60209SOL    HW292353   0.529  12.810   1.631 -0.3893 -0.4255 -0.4769
60210SOL     OW92354   6.919   4.315   6.957 -0.0341  0.3794  0.4050
60210SOL    HW192355   6.922   4.410   6.969  3.6225  1.0000 -3.2587
60210SOL    HW292356   6.965   4.280   7.033  1.0304  1.8247  0.4728
60211SOL     OW92357  10.962   1.428  13.045  0.2514  0.7536 -0.5208
60211SOL    HW192358  11.003   1.514  13.042 -0.8664  1.2951 -0.6040
60211SOL    HW292359  10.869   1.444  13.030  0.0149 -0.4649 -0.5195
60212SOL     OW92360  12.831   0.785   8.754 -0.2964 -0.2002  0.2902
60212SOL    HW192361  12.742   0.774   8.788 -1.8657 -2.6498 -3.9041
60212SOL    HW292362  12.834   0.875   8.722 -1.9232 -0.5807 -1.0078
60213SOL     OW92363   8.617   4.757   1.498  0.1109  0.2704  0.0937
60213SOL    HW192364   8.624   4.678   1.550  2.8719 -0.2662 -0.9109
60213SOL    HW292365   8.695   4.808   1.521 -0.5667  1.7727 -0.7571
60214SOL     OW92366   2.051   9.166   4.825  0.3455 -0.1581  0.3042
60214SOL    HW192367   2.055   9.102   4.754 -2.5300 -2.0632  1.6747
60214SOL    HW292368   2.042   9.251   4.781  1.1238 -0.9885 -1.5564
60215SOL     OW92369   2.447  10.020  11.157  0.3716  0.6190 -0.0228
60215SOL    HW192370   2.396   9.942  11.135  1.3450 -0.3001  0.8557
60215SOL    HW292371   2.383  10.082  11.192 -0.4679  0.3626 -1.0518
60216SOL     OW92372  12.449   7.311  12.298  0.2772  0.0136 -0.9203
60216SOL    HW192373  12.460   7.225  12.259 -0.1425  0.0047 -1.0296
60216SOL    HW292374  12.363   7.307  12.341  1.2816 -0.4223  1.1639
60217SOL     OW92375   4.419   2.312   1.038  0.3706 -0.8648 -0.5219
60217SOL    HW192376   4.505   2.341   1.070  0.1243  0.1382 -0.7365
60217SOL    HW292377   4.431   2.219   1.019  1.4675 -0.7029 -0.7175
60218SOL     OW92378   5.175  10.948   7.827 -0.4430  0.1785  0.3801
60218SOL    HW192379   5.182  10.898   7.746  1.5868 -1.6392  1.5518
60218SOL    HW292380   5.173  11.039   7.799  1.1248 -0.3405 -1.7295
60219SOL     OW92381   4.985  11.309   4.491  0.1503 -0.0040 -0.3583
60219SOL    HW192382   4.959  11.238   4.432 -1.7035 -0.0359  0.4127
60219SOL    HW292383   4.950  11.283   4.576  2.8846 -0.0190  0.8388
60220SOL     OW92384   7.045  12.611   6.597 -0.2142 -0.3731 -1.3264
60220SOL    HW192385   7.019  12.689   6.646 -1.0578 -0.9011 -0.8987
60220SOL    HW292386   7.130  12.587   6.635  0.1340  0.4285 -1.5846
60221SOL     OW92387   8.053   4.869   1.679  0.2433 -0.9612 -0.0624
60221SOL    HW192388   8.118   4.930   1.643 -0.4971 -1.0238 -1.5983
60221SOL    HW292389   8.102   4.817   1.743  1.2807  0.1455  0.0833
60222SOL     OW92390   0.372  10.264   8.196  0.5822  0.1918  0.1417
60222SOL    HW192391   0.345  10.309   8.115 -2.7139  0.0032  0.9971
60222SOL    HW292392   0.405  10.180   8.167  0.3984  0.5186 -1.0734
60223SOL     OW92393   8.833   6.362   7.852  0.3564  0.2188 -0.4662
60223SOL    HW192394   8.923   6.330   7.851  0.0831 -0.6139 -0.1033
60223SOL    HW292395   8.780   6.285   7.830 -0.3613  0.3172  0.7950
60224SOL     OW92396   9.047  10.263   9.451 -0.8549  0.4106  0.4413
60224SOL    HW192397   9.009  10.336   9.500 -1.5352 -0.4859  1.3070
60224SOL    HW292398   9.063  10.195   9.517 -0.4167 -0.2981 -0.3644
60225SOL     OW92399   2.242  12.515   0.130 -0.1516 -0.5632 -0.0374
60225SOL    HW192400   2.176  12.510   0.062  0.4526 -2.8691 -0.5438
60225SOL    HW292401   2.194  12.503   0.212 -0.4455 -2.2192 -0.4036
60226SOL     OW92402   4.746   8.989   2.413 -0.0435  0.0813  0.2681
60226SOL    HW192403   4.700   9.001   2.330 -0.8200  1.8443  0.9153
60226SOL    HW292404   4.839   8.989   2.389 -0.0926  3.5558 -0.3758
60227SOL     OW92405   5.608  13.185   5.652 -0.4036 -0.3097 -0.0526
60227SOL    HW192406   5.672  13.241   5.608  1.9576 -2.0548  0.9486
60227SOL    HW292407   5.597  13.226   5.738  0.0660 -0.4628  0.0868
60228SOL     OW92408  11.157   5.755   6.532  0.5577 -0.3461 -0.2532
60228SOL    HW192409  11.231   5.709   6.491  1.3505  0.2174  0.5088
60228SOL    HW292410  11.197   5.812   6.597 -0.4923  0.6834 -0.4769
60229SOL     OW92411   8.546   5.251   7.114 -0.2416  0.3054 -0.1466
60229SOL    HW192412   8.520   5.168   7.156  0.1694 -0.1643 -0.7983
60229SOL    HW292413   8.630   5.272   7.155 -0.5199  0.5919  0.2786
60230SOL     OW92414  10.126   4.067   5.888 -0.3840 -0.1493  0.1263
60230SOL    HW192415  10.116   4.162   5.899 -0.9463 -0.1025 -0.7396
60230SOL    HW292416  10.114   4.032   5.976 -0.9262  0.5204  0.3311
60231SOL     OW92417   0.201   8.966   6.692  0.2462  0.1071 -0.3111
60231SOL    HW192418   0.170   9.003   6.774 -1.3828  0.0934 -0.8962
60231SOL    HW292419   0.252   9.036   6.651 -0.2598  0.6463 -0.0204
60232SOL     OW92420   9.809   0.737   1.606 -0.2009  0.1367 -0.2585
60232SOL    HW192421   9.767   0.800   1.547 -1.0963  0.4099  0.6185
60232SOL    HW292422   9.842   0.668   1.550 -2.1961 -0.2820 -0.9836
60233SOL     OW92423   4.165   0.628   2.036  0.0672  0.0151 -0.6917
60233SOL    HW192424   4.214   0.575   1.973  2.0522  0.6478  0.2380
60233SOL    HW292425   4.192   0.718   2.020  1.2194  0.1312  1.4783
60234SOL     OW92426  12.789  12.587  10.738 -0.0428 -0.4601  0.3321
60234SOL    HW192427  12.874  12.620  10.707 -0.5375 -0.2896 -0.8975
60234SOL    HW292428  12.811  12.511  10.791  0.8464 -0.9805 -0.7352
60235SOL     OW92429  12.156  10.402  11.206  0.1916 -0.1375  0.3750
60235SOL    HW192430  12.157  10.311  11.175  1.0274 -0.4559  1.2710
60235SOL    HW292431  12.248  10.423  11.223  0.2526  1.5544 -1.6464
60236SOL     OW92432   8.697   6.843  13.182 -0.7495  0.7854 -0.1963
60236SOL    HW192433   8.732   6.908  13.244 -1.1742  0.7387  0.1006
60236SOL    HW292434   8.659   6.775  13.238  0.3908 -0.1147 -0.5072
60237SOL     OW92435   3.253   9.805   2.046 -0.1132 -0.5140 -0.1530
60237SOL    HW192436   3.180   9.793   2.106 -0.3172 -0.1025 -0.3153
60237SOL    HW292437   3.265   9.719   2.005  0.7661 -1.1299  1.2966
60238SOL     OW92438   1.370   1.055   8.284 -0.3768  0.4787  0.6383
60238SOL    HW192439   1.289   1.070   8.332 -1.0091  0.1829 -0.3130
60238SOL    HW292440   1.396   1.142   8.253 -0.0255  0.6536  1.4026
60239SOL     OW92441   6.845   1.438  10.092  0.5184  0.4587 -0.3894
60239SOL    HW192442   6.872   1.373  10.158 -2.4366  0.3023  0.8192
60239SOL    HW292443   6.856   1.393  10.008  0.9252 -0.6791  0.2469
60240SOL     OW92444   7.146  11.601   1.567 -0.3540  0.2227  0.2501
60240SOL    HW192445   7.055  11.630   1.567 -0.4248  0.1109  1.7134
60240SOL    HW292446   7.143  11.515   1.610  0.3862  0.0004 -0.1312
60241SOL     OW92447  10.880   0.257   9.558 -0.7146 -0.0097  0.7093
60241SOL    HW192448  10.814   0.304   9.508  0.4580  3.3145  2.0211
60241SOL    HW292449  10.863   0.164   9.538 -1.8799  0.9076 -3.7317
60242SOL     OW92450  10.705   3.899   9.653 -0.0182 -0.4404 -0.3313
60242SOL    HW192451  10.616   3.925   9.674 -0.3370 -0.4285 -1.6139
60242SOL    HW292452  10.759   3.942   9.720 -0.7222  1.7392 -1.0935
60243SOL     OW92453   5.985  11.210  12.747  0.1098  0.2367  0.7746
60243SOL    HW192454   6.041  11.187  12.673  0.9805 -3.7916  2.4456
60243SOL    HW292455   5.897  11.187  12.718  0.4465 -1.3076  0.9113
60244SOL     OW92456   5.171   8.403  12.301 -0.4241  0.1609  0.0661
60244SOL    HW192457   5.122   8.371  12.226 -0.6635 -1.3000  0.7873
60244SOL    HW292458   5.262   8.384  12.280 -0.4005  0.6156 -0.2441
60245SOL     OW92459   3.655   9.422   2.535 -0.7264  0.1039  0.1564
60245SOL    HW192460   3.627   9.450   2.622 -2.9626  0.3266 -0.5468
60245SOL    HW292461   3.640   9.327   2.535  0.5544 -0.1157  0.4140
60246SOL     OW92462   7.522  11.065   9.886 -0.6179 -0.1630 -0.8538
60246SOL    HW192463   7.469  10.986   9.896 -1.2397  0.2673 -0.7586
60246SOL    HW292464   7.463  11.137   9.906  1.0218  0.2253  3.9734
60247SOL     OW92465   1.940   5.022   3.955 -0.3593  0.1966 -0.0109
60247SOL    HW192466   2.003   5.026   3.882 -1.2090 -0.4513 -0.8005
60247SOL    HW292467   1.961   5.098   4.009 -0.2378  1.1659 -1.3731
60248SOL     OW92468   0.147   7.057   3.725  0.0282  0.4967  0.3085
60248SOL    HW192469   0.113   7.141   3.756  0.9587  0.6564  0.9123
60248SOL    HW292470   0.240   7.058   3.748 -0.2129 -1.2362  1.5052
60249SOL     OW92471  10.229   9.562   0.063  0.0868  0.3543 -0.5328
60249SOL    HW192472  10.194   9.569  -0.026 -0.4416 -1.4660 -0.5001
60249SOL    HW292473  10.221   9.651   0.099 -2.6626  0.4647 -1.2098
60250SOL     OW92474   7.240   0.366  10.373  0.6902 -0.0516 -0.2183
60250SOL    HW192475   7.170   0.321  10.325  0.6677 -0.0798 -0.1589
60250SOL    HW292476   7.309   0.300  10.381  0.8338  0.0593 -0.5152
60251SOL     OW92477   2.184  10.577  12.322 -0.1279 -0.1060 -0.4500
60251SOL    HW192478   2.099  10.575  12.278 -0.8146  1.4618  0.7462
60251SOL    HW292479   2.224  10.659  12.294  0.0996  0.1572  0.6232
60252SOL     OW92480  12.217   7.416   4.970 -0.7865  0.1398 -0.2205
60252SOL    HW192481  12.181   7.331   4.943  0.6675 -0.8352  0.7798
60252SOL    HW292482  12.145   7.457   5.020 -0.3658 -2.1510  2.5085
60253SOL     OW92483   5.253  11.764   3.791 -0.2453  0.6748 -0.7159
60253SOL    HW192484   5.185  11.805   3.844 -0.1075 -1.1866  1.0144
60253SOL    HW292485   5.335  11.786   3.836 -0.0348 -0.0941 -0.7143
60254SOL     OW92486   1.083   4.984   5.198  0.2089 -0.2881 -0.6532
60254SOL    HW192487   1.178   4.982   5.211  0.0335  0.1306  0.8838
60254SOL    HW292488   1.058   4.892   5.190  0.5805 -0.4927  0.3934
60255SOL     OW92489   8.667   3.247   9.018  0.1415  0.0296 -0.0834
60255SOL    HW192490   8.606   3.233   9.090 -0.2112 -0.7069 -0.5057
60255SOL    HW292491   8.702   3.335   9.032 -0.6526  0.2755  0.4406
60256SOL     OW92492  11.030   1.652   4.284 -0.0675  0.4457  0.2166
60256SOL    HW192493  11.006   1.579   4.227 -1.3069  0.6441  0.4680
60256SOL    HW292494  11.087   1.707   4.230 -1.1478  0.5892 -0.8167
60257SOL     OW92495  11.915   7.431   2.413 -0.4558 -0.0759 -0.1318
60257SOL    HW192496  11.951   7.494   2.476  0.1374 -1.9360  1.4976
60257SOL    HW292497  11.986   7.415   2.352  0.5748 -1.5240  1.3577
60258SOL     OW92498  10.714  13.486   8.103  0.4368 -0.1064  0.2261
60258SOL    HW192499  10.794  13.516   8.060 -0.4164  2.5602  0.3361
60258SOL    HW292500  10.679  13.419   8.044  1.5256  0.3570 -1.0059
60259SOL     OW92501   8.297   4.180   7.027  0.4778  0.3523 -0.1274
60259SOL    HW192502   8.392   4.169   7.036  0.5283 -0.9843 -1.7054
60259SOL    HW292503   8.287   4.241   6.954  0.1884 -1.2619 -1.5181
60260SOL     OW92504   9.122   1.478   6.212  0.0221 -0.0154  0.2609
60260SOL    HW192505   9.162   1.395   6.237  0.9418  0.1325 -0.6307
60260SOL    HW292506   9.123   1.530   6.292  0.0283 -0.6379  0.6692
60261SOL     OW92507   5.117   2.785   3.901 -0.4818  0.3847 -0.3495
60261SOL    HW192508   5.152   2.799   3.813 -0.2414  1.5394 -0.0783
60261SOL    HW292509   5.192   2.798   3.959 -0.7912  0.3115  0.0710
60262SOL     OW92510  12.289   8.545   0.535  0.3894 -0.2092 -0.1751
60262SOL    HW192511  12.313   8.503   0.617 -0.1638  0.5359  0.3761
60262SOL    HW292512  12.358   8.518   0.473  1.9110  0.7907  1.0146
60263SOL     OW92513   5.685   1.215  11.193  0.2790  0.2813  0.0831
60263SOL    HW192514   5.729   1.290  11.233  1.9332 -0.8047  0.3799
60263SOL    HW292515   5.700   1.225  11.099  0.4863  0.3479  0.1228
60264SOL     OW92516   0.820   1.671   8.999 -0.0014  0.3947 -0.0894
60264SOL    HW192517   0.897   1.725   9.020  1.6476 -1.3314 -1.3559
60264SOL    HW292518   0.795   1.699   8.911  2.2424 -2.1829 -1.7244
60265SOL     OW92519   3.580   2.327   0.641  0.1933 -0.0331  0.2300
60265SOL    HW192520   3.495   2.368   0.622 -0.1111 -0.4344  0.7030
60265SOL    HW292521   3.589   2.259   0.575  1.2401  1.5208 -1.3033
60266SOL     OW92522   3.938   3.396   8.774  0.4394 -0.0517 -0.3811
60266SOL    HW192523   3.846   3.379   8.755  0.4881 -0.1128 -0.5641
60266SOL    HW292524   3.986   3.341   8.712  0.6096 -1.3762  0.8460
60267SOL     OW92525  10.645   1.261   8.432  1.1699  0.1847 -0.0053
60267SOL    HW192526  10.668   1.314   8.509 -1.4428  1.0640  0.2770
60267SOL    HW292527  10.705   1.291   8.363  2.6623  0.3315  1.2889
60268SOL     OW92528   5.368   3.952   0.524  0.1339 -0.1373  0.6417
60268SOL    HW192529   5.315   3.898   0.583 -0.7409  1.2983  1.2284
60268SOL    HW292530   5.458   3.931   0.546 -0.1892 -0.8834  1.3038
60269SOL     OW92531  12.764   6.711   3.090 -0.3079 -0.0751 -0.1472
60269SOL    HW192532  12.819   6.634   3.075  0.2046  0.2184  0.1893
60269SOL    HW292533  12.714   6.721   3.010  1.3312  0.6091 -1.1496
60270SOL     OW92534   6.775   1.923   9.347  0.1019 -0.4900 -0.5091
60270SOL    HW192535   6.809   1.840   9.315  1.6006  0.6102 -1.9764
60270SOL    HW292536   6.688   1.902   9.382 -0.1491 -2.4374 -2.1175
60271SOL     OW92537   8.827  10.874   5.424  0.1622  0.1550  0.2363
60271SOL    HW192538   8.782  10.806   5.374  0.7232 -1.0082  1.2459
60271SOL    HW292539   8.877  10.923   5.359 -1.8836  0.9590 -0.7858
60272SOL     OW92540   6.656   3.700   7.036  0.0291 -0.0632  0.4000
60272SOL    HW192541   6.688   3.635   6.973 -0.7059 -0.5554  0.5229
60272SOL    HW292542   6.693   3.671   7.120  0.6520  0.3460  0.2752
60273SOL     OW92543   8.109   9.941   9.218  0.1828 -0.5480  0.9222
60273SOL    HW192544   8.145   9.992   9.291  1.9756  1.4931 -1.2280
60273SOL    HW292545   8.186   9.915   9.167 -0.9660 -2.6506  0.1483
60274SOL     OW92546   1.479   5.677  12.059  0.4468  0.4626 -0.8940
60274SOL    HW192547   1.406   5.632  12.101 -0.3333  0.8922 -1.7639
60274SOL    HW292548   1.554   5.658  12.115  0.1536 -1.9208 -1.1998
60275SOL     OW92549   7.479  13.448   0.129 -0.2484  0.3641 -0.2700
60275SOL    HW192550   7.452  13.423   0.218  2.9951  2.3096  1.4987
60275SOL    HW292551   7.496  13.365   0.085 -0.1399 -0.6735  1.5938
60276SOL     OW92552   4.339   8.901  10.604 -0.5182  0.1997  0.6943
60276SOL    HW192553   4.413   8.839  10.599  0.8619  1.7893  0.3579
60276SOL    HW292554   4.275   8.866  10.542  0.6319 -0.4136 -0.2032
60277SOL     OW92555   9.689  11.184   2.063 -0.7510 -0.3368  0.5278
60277SOL    HW192556   9.598  11.166   2.088 -0.7586  0.2118  0.9270
60277SOL    HW292557   9.741  11.131   2.122 -0.8236 -2.0928 -0.9158
60278SOL     OW92558   4.556  13.181  10.308  0.1273  0.8253  0.7205
60278SOL    HW192559   4.512  13.261  10.338 -1.6544 -0.1168  0.8059
60278SOL    HW292560   4.644  13.208  10.284 -0.3885  2.7736  0.9188
60279SOL     OW92561   2.037   3.061  13.614  0.8740  0.4910  0.4686
60279SOL    HW192562   1.941   3.059  13.612  0.8827 -0.0372  0.2829
60279SOL    HW292563   2.058   3.086  13.704  0.5624  0.7948  0.4598
60280SOL     OW92564  12.758   7.894   2.798 -0.6234 -0.6728  1.3746
60280SOL    HW192565  12.737   7.865   2.709  0.2368 -2.7079  1.7767
60280SOL    HW292566  12.762   7.989   2.791 -1.3455 -0.7226 -0.5836
60281SOL     OW92567   8.597  13.410   5.228 -0.0847  0.7035  0.2377
60281SOL    HW192568   8.534  13.464   5.180 -0.3136 -0.0232 -0.2877
60281SOL    HW292569   8.574  13.320   5.206 -0.1546  0.3496  1.6574
60282SOL     OW92570   5.513   3.167   0.028 -0.3594  0.1213 -0.0024
60282SOL    HW192571   5.577   3.143  -0.040 -1.1185  1.3234 -1.1889
60282SOL    HW292572   5.442   3.103   0.018 -1.3872  1.4542 -1.7202
60283SOL     OW92573   4.996  10.412  10.639  0.3557  0.0257 -0.3911
60283SOL    HW192574   4.947  10.405  10.721  0.8707 -0.0157 -0.0850
60283SOL    HW292575   4.986  10.503  10.613  0.6872  0.1840  0.0305
60284SOL     OW92576   5.189   2.332  13.359  0.2894 -0.1704  0.3802
60284SOL    HW192577   5.263   2.390  13.341  0.1169  0.0625  0.4135
60284SOL    HW292578   5.119   2.364  13.302  0.3803 -0.7289 -0.0479
60285SOL     OW92579   8.135  11.743   8.876  0.3359  0.2691  0.3205
60285SOL    HW192580   8.118  11.837   8.883 -0.8795  0.1549 -0.8496
60285SOL    HW292581   8.060  11.702   8.919  0.5912 -0.1766  0.3391
60286SOL     OW92582   6.579  10.941   8.297  0.0299 -0.3720 -1.0049
60286SOL    HW192583   6.552  10.872   8.358  0.6604 -0.3481 -0.6991
60286SOL    HW292584   6.543  10.914   8.213 -1.8150  0.1426 -0.4416
60287SOL     OW92585   0.852   4.621   4.956  0.3366  0.3210  0.2751
60287SOL    HW192586   0.825   4.529   4.961  1.1996 -0.0938 -1.8011
60287SOL    HW292587   0.772   4.669   4.937  0.2184 -0.3053 -0.9035
60288SOL     OW92588  12.251   3.952  12.247  0.8046 -0.4959 -0.8253
60288SOL    HW192589  12.342   3.945  12.219  1.6367 -0.9336  1.7402
60288SOL    HW292590  12.250   3.916  12.336 -1.1641  2.5693  0.5920
60289SOL     OW92591   5.802  11.103   0.555  0.3341 -0.4502  0.0599
60289SOL    HW192592   5.845  11.171   0.605 -1.3250 -0.3974  1.5090
60289SOL    HW292593   5.754  11.150   0.487  0.3723 -0.2989  0.1374
60290SOL     OW92594  10.260  10.464   6.367  0.1015  0.0722 -0.3279
60290SOL    HW192595  10.202  10.415   6.425  1.1277 -1.0335 -0.1974
60290SOL    HW292596  10.243  10.428   6.280 -0.8901  1.2043 -0.6282
60291SOL     OW92597   2.292   2.665  10.799  0.2877  0.4975  0.2217
60291SOL    HW192598   2.207   2.707  10.813  0.4403  0.2196  2.3698
60291SOL    HW292599   2.321   2.641  10.887  1.7399 -1.1146 -0.6436
60292SOL     OW92600  11.045   0.105  10.310 -0.6390 -0.3434 -0.3890
60292SOL    HW192601  11.111   0.080  10.245 -0.8279 -1.1377 -0.2937
60292SOL    HW292602  11.075   0.188  10.345 -1.0449  0.6155 -2.2023
60293SOL     OW92603   1.780   2.505   2.481  0.3474 -0.2159  0.1508
60293SOL    HW192604   1.799   2.418   2.446  0.0300 -0.4411  0.5232
60293SOL    HW292605   1.690   2.499   2.512 -0.3414  0.8108 -1.5306
60294SOL     OW92606   2.747   3.309   6.889  0.0150 -0.2997 -0.0487
60294SOL    HW192607   2.718   3.231   6.936 -1.4201  0.1871 -0.0725
60294SOL    HW292608   2.686   3.317   6.816 -1.1163  1.8834  1.0367
60295SOL     OW92609   8.204   9.846   8.239  0.5113 -0.6329  0.3367
60295SOL    HW192610   8.260   9.863   8.163  1.3282 -1.6611  0.6825
60295SOL    HW292611   8.237   9.907   8.306  0.4207 -0.4011  0.1726
60296SOL     OW92612   4.814   6.283   9.135 -0.2096 -0.2384  0.2359
60296SOL    HW192613   4.855   6.230   9.066  2.1104  1.9430 -0.1867
60296SOL    HW292614   4.747   6.334   9.089 -0.6832 -0.8934  0.1787
60297SOL     OW92615   5.174   6.526   8.788 -0.3407  0.2605  0.7345
60297SOL    HW192616   5.261   6.494   8.812  0.2581  1.3613  0.1013
60297SOL    HW292617   5.120   6.511   8.866  0.5269  0.0023  1.2936
60298SOL     OW92618   0.989   2.838  12.362  0.1488 -0.1208  0.1573
60298SOL    HW192619   0.895   2.829  12.378 -0.6046  1.7030 -2.5572
60298SOL    HW292620   1.015   2.754  12.325 -0.4036 -0.6223  0.8728
60299SOL     OW92621   4.205  11.579   3.755 -0.5250  0.1260  0.0357
60299SOL    HW192622   4.172  11.669   3.753  0.0809  0.3453 -0.4129
60299SOL    HW292623   4.250  11.568   3.671 -0.3847 -0.5132  0.1896
60300SOL     OW92624   5.779   9.275   3.039  0.6957 -0.5163  0.3264
60300SOL    HW192625   5.761   9.210   3.107 -0.5667 -0.8677 -0.3093
60300SOL    HW292626   5.698   9.279   2.988  2.2266 -1.7086 -2.3628
60301SOL     OW92627   6.131   0.135  10.943 -0.5031 -0.1633  0.4285
60301SOL    HW192628   6.200   0.104  10.884 -0.1437  1.7502 -0.1975
60301SOL    HW292629   6.060   0.164  10.885  0.4525  3.1945  0.7347
60302SOL     OW92630   5.130  10.164   8.397  0.7208 -0.0288 -1.2146
60302SOL    HW192631   5.112  10.256   8.382 -1.2631 -0.0936  0.3731
60302SOL    HW292632   5.046  10.120   8.382  0.6254 -1.0517  1.6133
60303SOL     OW92633   5.544   6.031   7.660  0.7819 -0.1296 -0.1156
60303SOL    HW192634   5.598   5.952   7.654  0.8439  0.0177 -1.9802
60303SOL    HW292635   5.492   6.019   7.739  3.5766 -0.2360  1.8477
60304SOL     OW92636   5.603   7.131  11.427  0.4418 -0.6249 -0.2034
60304SOL    HW192637   5.568   7.113  11.340  2.1193  0.1208 -1.0591
60304SOL    HW292638   5.559   7.212  11.454  0.7856 -0.2065 -0.8689
60305SOL     OW92639   8.118   0.447   4.934  0.8462 -0.5541  0.1600
60305SOL    HW192640   8.170   0.519   4.971  1.1899 -0.8346  0.2257
60305SOL    HW292641   8.156   0.431   4.848 -0.6825  0.8710 -0.8373
60306SOL     OW92642   4.823   0.249   2.323  0.4361 -0.1153  0.2316
60306SOL    HW192643   4.807   0.177   2.384 -3.3786 -1.2477 -1.7630
60306SOL    HW292644   4.883   0.213   2.258  1.1854 -0.3050  1.0040
60307SOL     OW92645   2.273  12.446   9.735 -0.6324  0.4693 -0.5319
60307SOL    HW192646   2.340  12.411   9.676  0.8760  0.2947  1.1882
60307SOL    HW292647   2.300  12.417   9.822 -2.6881  0.8384  0.2965
60308SOL     OW92648  12.357   5.703   8.840 -0.2972 -0.3244 -0.3999
60308SOL    HW192649  12.421   5.703   8.911 -2.0624  0.3355  1.2434
60308SOL    HW292650  12.385   5.776   8.784 -1.8600  2.8646  2.5648
60309SOL     OW92651   5.128   9.597  12.383 -0.3239 -0.2416  0.6732
60309SOL    HW192652   5.096   9.661  12.319  0.4923 -0.6405 -0.1575
60309SOL    HW292653   5.166   9.650  12.453 -0.1780  0.1889  0.2746
60310SOL     OW92654   7.466   7.187   9.496  0.4862  0.0694 -0.0970
60310SOL    HW192655   7.537   7.124   9.484 -0.4971 -1.6544  2.3502
60310SOL    HW292656   7.387   7.139   9.470  0.0239  1.5775 -1.6658
60311SOL     OW92657   7.444   3.679   9.911  0.1465  0.0165  0.5953
60311SOL    HW192658   7.428   3.772   9.897  1.3385  0.1781  0.1548
60311SOL    HW292659   7.416   3.662  10.001 -0.2261  0.7625  0.6240
60312SOL     OW92660   0.283   5.320   2.219  0.1766 -0.0416  0.0182
60312SOL    HW192661   0.356   5.380   2.203 -1.1479  1.3144 -1.2250
60312SOL    HW292662   0.216   5.374   2.261  0.2548 -1.5253  2.2081
60313SOL     OW92663   8.777   0.741   6.339 -0.0995  0.1539 -0.8310
60313SOL    HW192664   8.777   0.671   6.404  0.1780  1.1603  0.2935
60313SOL    HW292665   8.847   0.717   6.279 -1.5059 -1.7007 -1.8267
60314SOL     OW92666  11.705   8.418   4.737 -0.2334 -0.2467 -0.0801
60314SOL    HW192667  11.703   8.443   4.645 -0.6632 -1.7875 -0.5252
60314SOL    HW292668  11.695   8.322   4.736 -0.3347 -0.2853  1.5711
60315SOL     OW92669   1.819   8.992   6.361  0.1423 -0.8413 -0.3684
60315SOL    HW192670   1.773   9.065   6.320 -0.7441 -0.9016  0.4934
60315SOL    HW292671   1.855   9.029   6.442 -0.4556 -1.3964  0.1567
60316SOL     OW92672   7.793   8.032   3.579 -0.0157 -0.6569  0.0992
60316SOL    HW192673   7.785   8.061   3.670  1.8184 -0.3224  0.1974
60316SOL    HW292674   7.886   8.042   3.559 -0.3961 -0.6299 -1.8614
60317SOL     OW92675   1.623   2.446  13.393  0.0179 -0.0119  0.0503
60317SOL    HW192676   1.586   2.484  13.473 -1.4475  0.8465 -0.9972
60317SOL    HW292677   1.697   2.503  13.372 -0.5250  0.6781 -0.0308
60318SOL     OW92678  11.762   8.771  10.638  0.4657 -0.6023 -0.1403
60318SOL    HW192679  11.711   8.690  10.633  0.1397 -0.3321 -3.5636
60318SOL    HW292680  11.844   8.751  10.594  1.8983  0.0478  2.0433
60319SOL     OW92681   8.324   9.495  12.109  0.0364 -0.3410  0.0459
60319SOL    HW192682   8.290   9.533  12.028  0.1903 -0.7854 -0.2299
60319SOL    HW292683   8.254   9.509  12.173  0.0015  0.2013 -0.1102
60320SOL     OW92684   5.705  13.366  10.623  0.1486  0.0480 -0.3314
60320SOL    HW192685   5.665  13.282  10.648  0.5900 -0.2304 -0.5579
60320SOL    HW292686   5.737  13.352  10.534 -1.4547  1.0446 -1.1329
60321SOL     OW92687  11.879   7.854   2.552 -0.2737  0.7849  0.3026
60321SOL    HW192688  11.862   7.934   2.502  0.6592  0.5346 -0.4471
60321SOL    HW292689  11.943   7.806   2.499  0.3607  0.2661  1.4939
60322SOL     OW92690   8.424  11.017  11.797  0.5309 -0.1106  0.5286
60322SOL    HW192691   8.466  11.092  11.755 -1.2568  0.4095 -0.4484
60322SOL    HW292692   8.411  10.955  11.725  0.2660 -0.5467  0.9538
60323SOL     OW92693   9.636   6.016   6.605 -0.5919  0.3772  0.0353
60323SOL    HW192694   9.690   5.966   6.666  0.6364  0.8462 -0.6419
60323SOL    HW292695   9.619   6.098   6.650 -1.8145 -0.2422  0.7572
60324SOL     OW92696   9.230   1.068   9.087 -0.3038  0.0315  0.0074
60324SOL    HW192697   9.188   1.042   9.005  1.8862  1.1380 -1.5687
60324SOL    HW292698   9.183   1.148   9.113 -1.0095 -0.3237 -0.1461
60325SOL     OW92699   4.229   1.352   4.138 -0.3974  0.5316  0.1414
60325SOL    HW192700   4.258   1.270   4.097  0.4600 -0.6564  2.9018
60325SOL    HW292701   4.301   1.413   4.123  1.1943 -0.7367  2.1864
60326SOL     OW92702  13.451   3.413  12.363 -0.1747 -0.2825  0.3307
60326SOL    HW192703  13.412   3.435  12.279 -0.8569  0.2984  0.7920
60326SOL    HW292704  13.392   3.347  12.401  0.1138 -0.5213  0.3704
60327SOL     OW92705   1.577   5.285   0.643  0.4645  0.2826  0.4864
60327SOL    HW192706   1.633   5.329   0.579  1.6199 -1.1171  0.5004
60327SOL    HW292707   1.574   5.345   0.718  1.1523  0.8118  0.0966
60328SOL     OW92708  12.484   9.675   3.767 -0.8781 -0.2598 -0.0965
60328SOL    HW192709  12.421   9.710   3.830 -1.5928 -4.0170  1.5410
60328SOL    HW292710  12.432   9.623   3.706  0.2724 -0.3314 -1.0712
60329SOL     OW92711   3.238   4.285  12.163  0.0713 -0.3534  0.9404
60329SOL    HW192712   3.144   4.302  12.166  0.0151 -0.8091  2.2418
60329SOL    HW292713   3.245   4.193  12.136  0.2000 -0.0404 -0.1760
60330SOL     OW92714   4.173   5.763  10.682  0.4696 -0.2130  0.4952
60330SOL    HW192715   4.110   5.792  10.616  0.8290  1.3331  0.7974
60330SOL    HW292716   4.248   5.731  10.631  1.1463  1.8608  0.0922
60331SOL     OW92717   3.244   0.954  10.988  0.4707  0.2986 -0.0489
60331SOL    HW192718   3.171   1.015  10.992  1.1745  1.0994  1.0428
60331SOL    HW292719   3.301   0.989  10.919  0.5900  0.5650  0.1820
60332SOL     OW92720   4.886   1.724  13.013 -0.0175 -0.0009  0.0577
60332SOL    HW192721   4.869   1.806  12.968 -2.2131  0.4983  1.6392
60332SOL    HW292722   4.853   1.656  12.955 -1.1187  0.4911  0.0951
60333SOL     OW92723  13.683   8.423  11.766 -0.0292  0.8299  0.3261
60333SOL    HW192724  13.686   8.403  11.859  0.3607  2.4459  0.6852
60333SOL    HW292725  13.728   8.507  11.757  1.0178  0.1530 -1.4875
60334SOL     OW92726  13.590   9.746   3.021 -0.4260  0.3314 -0.1556
60334SOL    HW192727  13.623   9.660   3.048 -0.8605 -0.6560 -2.4971
60334SOL    HW292728  13.669   9.799   3.009  0.1458 -0.8062 -1.8771
60335SOL     OW92729  10.665  12.069   9.112 -0.7328 -0.1668  0.0194
60335SOL    HW192730  10.702  12.009   9.178  2.9898  0.3877 -1.3209
60335SOL    HW292731  10.652  12.014   9.035  0.2900  0.1714 -0.4255
60336SOL     OW92732  12.324   6.068   9.860  0.0571 -0.6216 -0.0982
60336SOL    HW192733  12.270   6.124   9.916  0.1595  1.1429 -1.6633
60336SOL    HW292734  12.261   6.023   9.803  0.1147  0.1355 -0.7767
60337SOL     OW92735   7.424   4.825   7.019 -0.6067 -0.3927 -0.1840
60337SOL    HW192736   7.402   4.874   6.940 -0.7408 -1.6613 -0.9611
60337SOL    HW292737   7.442   4.736   6.988  3.1359 -0.0924  0.6989
60338SOL     OW92738   0.928   3.426  12.018 -0.0686 -0.0978 -0.2580
60338SOL    HW192739   0.843   3.405  11.979  0.2922 -0.1379 -1.0569
60338SOL    HW292740   0.910   3.438  12.111 -0.8420 -0.7248 -0.3138
60339SOL     OW92741   3.561   8.803   1.170  0.5693  0.4196 -0.5482
60339SOL    HW192742   3.517   8.735   1.120  0.3116  2.0827 -2.7420
60339SOL    HW292743   3.491   8.860   1.202  0.8849  0.7231 -0.3838
60340SOL     OW92744  13.037   4.515   7.369  0.2989 -0.0455  0.2036
60340SOL    HW192745  13.101   4.452   7.402  0.5182 -0.8235 -1.5930
60340SOL    HW292746  13.056   4.522   7.276 -1.3188  0.8033 -0.1000
60341SOL     OW92747   6.722  11.185  11.847 -0.0993 -0.4171  0.0952
60341SOL    HW192748   6.705  11.279  11.860  1.4997 -0.1438  0.3313
60341SOL    HW292749   6.790  11.164  11.910  0.7027 -1.3832 -1.0517
60342SOL     OW92750   1.634   3.065   0.926 -0.0907 -0.0151 -0.1728
60342SOL    HW192751   1.625   3.066   1.022 -0.9758 -0.9348 -0.2288
60342SOL    HW292752   1.683   2.985   0.908 -1.9802 -1.1249 -0.6109
60343SOL     OW92753   6.444   6.699   5.593 -0.4897  0.0979 -0.6278
60343SOL    HW192754   6.493   6.675   5.671  0.6827 -0.4747 -1.5078
60343SOL    HW292755   6.482   6.782   5.565  1.0717 -1.0699 -2.1528
60344SOL     OW92756   5.515   5.541  13.223 -0.4317  0.5794 -0.1428
60344SOL    HW192757   5.546   5.549  13.314  1.2351 -0.5290 -0.5710
60344SOL    HW292758   5.420   5.543  13.230 -0.3265  1.0225  1.5829
60345SOL     OW92759   1.935   7.712   1.265  0.4115 -0.4221 -0.1541
60345SOL    HW192760   1.971   7.628   1.236  0.2431 -0.2386 -0.9131
60345SOL    HW292761   2.008   7.773   1.257  0.2008 -0.2431 -0.8070
60346SOL     OW92762   7.542  12.977   1.115  0.4685 -0.3515  0.3751
60346SOL    HW192763   7.468  13.009   1.166 -0.4824 -3.9269  1.5079
60346SOL    HW292764   7.502  12.933   1.040  1.6850  0.5558 -0.8739
60347SOL     OW92765  12.329   8.648   2.968  0.2553 -0.1034  0.2066
60347SOL    HW192766  12.298   8.565   2.930  1.8495  0.2912 -2.1252
60347SOL    HW292767  12.361   8.623   3.055 -1.1997 -1.5256  0.3946
60348SOL     OW92768  12.803   5.255   5.669 -0.3379 -0.0815 -0.0926
60348SOL    HW192769  12.720   5.232   5.712 -0.5416 -0.1094 -0.4906
60348SOL    HW292770  12.866   5.193   5.704 -0.6271 -0.4814 -0.2615
60349SOL     OW92771  11.629   0.668   1.595  0.5922  0.0999 -0.4419
60349SOL    HW192772  11.638   0.573   1.590  1.9074  0.2439 -1.1555
60349SOL    HW292773  11.592   0.684   1.682 -2.8000 -1.2198 -1.4730
60350SOL     OW92774   4.241   1.227   1.684 -0.2514  0.0300 -0.5163
60350SOL    HW192775   4.164   1.226   1.740 -1.5799 -1.9267 -2.2014
60350SOL    HW292776   4.210   1.261   1.600  1.3380  1.5140 -0.5759
60351SOL     OW92777   7.537   9.667   9.717 -0.0131  0.0733 -0.7401
60351SOL    HW192778   7.612   9.726   9.715  1.1740 -1.1052  2.3931
60351SOL    HW292779   7.540   9.628   9.805 -2.9789 -1.7386 -1.3180
60352SOL     OW92780  10.025   6.469  12.535  0.6304  0.4519 -0.3868
60352SOL    HW192781  10.028   6.408  12.608  1.1750  0.9594  0.0273
60352SOL    HW292782  10.045   6.416  12.458 -1.5911 -0.4388 -0.4359
60353SOL     OW92783   3.052   7.673   3.748  0.1296  0.1721  0.0315
60353SOL    HW192784   2.973   7.687   3.800  1.0451  0.7522  1.3147
60353SOL    HW292785   3.075   7.582   3.765 -0.1350  0.0567 -0.2009
60354SOL     OW92786   1.070   7.630   3.590  1.0465 -0.4565  0.4914
60354SOL    HW192787   1.037   7.587   3.512  1.1199  0.3401  0.0019
60354SOL    HW292788   1.009   7.703   3.605  0.3579 -1.2807  1.8688
60355SOL     OW92789  11.968   2.712   9.903  0.3478 -0.1214  0.1891
60355SOL    HW192790  11.886   2.685   9.944  0.4594  1.4139  1.4850
60355SOL    HW292791  11.990   2.640   9.844 -0.7620 -1.5672  1.4762
60356SOL     OW92792   1.907   0.414  10.958 -0.5331 -0.3971 -0.8175
60356SOL    HW192793   1.994   0.373  10.959 -0.7181 -0.8396  1.2611
60356SOL    HW292794   1.905   0.463  10.876  2.0914  0.4461 -0.4709
60357SOL     OW92795   7.064   0.972   2.352 -0.0201  0.2608  0.0381
60357SOL    HW192796   7.081   0.922   2.431  0.2319 -0.9081 -0.7311
60357SOL    HW292797   6.986   1.024   2.372 -0.8607 -1.1563  0.5546
60358SOL     OW92798   3.644   4.408   1.328  0.0163 -0.1441 -0.2215
60358SOL    HW192799   3.556   4.378   1.352  0.9480 -2.2087  0.8530
60358SOL    HW292800   3.639   4.504   1.334 -2.3208 -0.1489 -0.8991
60359SOL     OW92801   5.541   7.541   4.371  0.2716  0.0313  0.3551
60359SOL    HW192802   5.532   7.499   4.286  0.0330 -0.5987  0.6797
60359SOL    HW292803   5.460   7.592   4.381 -0.8171 -1.7385  1.1726
60360SOL     OW92804   3.395  12.478   9.950 -0.6050  0.2913 -0.2286
60360SOL    HW192805   3.477  12.510   9.989 -1.1780  3.8267 -1.5297
60360SOL    HW292806   3.350  12.435  10.023  1.3915  0.2496  1.0940
60361SOL     OW92807   4.714   8.111   6.677  0.0689  0.7690 -0.6226
60361SOL    HW192808   4.753   8.179   6.622 -0.9573  1.8196 -0.1091
60361SOL    HW292809   4.785   8.080   6.732  0.5483  1.4501 -0.8518
60362SOL     OW92810   1.698  11.234   1.105 -0.5567 -0.2698 -0.1056
60362SOL    HW192811   1.663  11.275   1.185 -1.2203  2.0285 -1.4768
60362SOL    HW292812   1.676  11.296   1.035  1.4081 -1.4396 -1.8595
60363SOL     OW92813   0.944   1.183  12.705  0.1032 -0.4823  0.4757
60363SOL    HW192814   0.928   1.090  12.723  1.3142 -0.6603  0.7254
60363SOL    HW292815   0.988   1.215  12.783  1.0279 -0.0672 -0.2032
60364SOL     OW92816   7.510   1.906   5.155  0.2228  0.3499  0.2075
60364SOL    HW192817   7.563   1.838   5.197  0.3632  0.1466 -0.2922
60364SOL    HW292818   7.453   1.938   5.225 -0.5572 -0.9863  0.2129
60365SOL     OW92819   4.835   0.033   4.925 -0.0660 -0.1403  0.5704
60365SOL    HW192820   4.829  -0.030   4.854 -2.6183 -0.0744  0.6425
60365SOL    HW292821   4.832  -0.019   5.005  2.8253 -0.2167  0.7352
60366SOL     OW92822  11.143   6.179   7.828  0.3542 -0.1069  0.4134
60366SOL    HW192823  11.109   6.221   7.907  0.0252 -0.6739  0.5726
60366SOL    HW292824  11.091   6.100   7.817  0.9478 -0.4661  0.0926
60367SOL     OW92825  11.562   6.031   2.866  0.0852  0.1680  0.3836
60367SOL    HW192826  11.492   6.072   2.814  0.8745 -0.4570 -1.2468
60367SOL    HW292827  11.518   5.962   2.915 -0.3108 -1.0182 -1.5279
60368SOL     OW92828  11.923  12.150   7.246  0.3927  0.2905  0.3128
60368SOL    HW192829  11.953  12.060   7.234 -1.5865 -0.2572 -1.1279
60368SOL    HW292830  11.947  12.195   7.164 -0.7657  0.3861  0.0067
60369SOL     OW92831  12.966   9.491  12.552  1.5708 -0.2764 -0.0613
60369SOL    HW192832  12.944   9.440  12.631 -0.0262 -2.4171 -1.7424
60369SOL    HW292833  13.050   9.455  12.523  0.4711 -2.0933 -1.2166
60370SOL     OW92834   3.465   5.172  10.695  0.0935  0.3407  0.0331
60370SOL    HW192835   3.457   5.267  10.686  1.7835  0.4360 -0.6584
60370SOL    HW292836   3.417   5.137  10.620 -0.7109  0.6147  0.4018
60371SOL     OW92837   6.557   1.916   6.163 -0.5032  0.0489 -0.5824
60371SOL    HW192838   6.527   1.867   6.086 -0.6384 -0.6744 -0.0791
60371SOL    HW292839   6.488   1.979   6.180  0.3506  1.5088 -2.1587
60372SOL     OW92840   3.659  13.298  12.581  0.0676 -0.4054  0.5558
60372SOL    HW192841   3.682  13.234  12.648 -0.9573 -0.3362  0.9759
60372SOL    HW292842   3.564  13.303  12.582  0.1042  0.8886  0.3056
60373SOL     OW92843   2.354  12.849  12.679  0.4173 -0.3713 -0.6221
60373SOL    HW192844   2.275  12.886  12.639  0.0708 -1.9319 -1.4456
60373SOL    HW292845   2.323  12.808  12.760  0.1589 -1.9106 -1.4664
60374SOL     OW92846  12.119   7.154   5.967 -0.2757 -0.0954  0.3972
60374SOL    HW192847  12.069   7.103   5.903  1.2004 -1.0216 -0.0741
60374SOL    HW292848  12.195   7.099   5.988  0.8404  1.4653  0.6726
60375SOL     OW92849   8.100   6.285   5.619 -0.2784  0.8340  0.0946
60375SOL    HW192850   8.140   6.303   5.534  0.1110 -3.6222 -0.9084
60375SOL    HW292851   8.166   6.235   5.667 -1.7011  0.3696  1.6797
60376SOL     OW92852   2.412   4.536   6.622  0.2856 -0.8755  0.2198
60376SOL    HW192853   2.361   4.514   6.701  0.0976 -0.1234  0.3100
60376SOL    HW292854   2.496   4.567   6.656  1.3722 -3.3799  0.0549
60377SOL     OW92855  10.263   5.617  12.251  0.1313  0.6135  0.0698
60377SOL    HW192856  10.185   5.562  12.258  0.0543  0.5313 -1.1316
60377SOL    HW292857  10.278   5.624  12.156  0.3856  2.3024  0.1984
60378SOL     OW92858  11.228   5.257   6.280 -0.3111 -0.1749 -0.6118
60378SOL    HW192859  11.148   5.309   6.291  0.3649  0.9432 -0.9014
60378SOL    HW292860  11.202   5.169   6.308 -1.2896  0.4518  0.5623
60379SOL     OW92861  13.428   5.657  10.483  0.3874  1.2090  0.0474
60379SOL    HW192862  13.421   5.576  10.534 -1.1438  1.0595 -0.3437
60379SOL    HW292863  13.411   5.630  10.393 -0.3516  1.9919 -0.0586
60380SOL     OW92864   1.730   6.136  12.317  0.1895  0.0409  0.1712
60380SOL    HW192865   1.703   6.055  12.273 -0.7833  0.5680 -0.2506
60380SOL    HW292866   1.676   6.139  12.396  0.3728  0.1645  0.2913
60381SOL     OW92867  11.876  12.711   4.509  0.0402  0.1242 -0.6029
60381SOL    HW192868  11.804  12.774   4.520 -0.0689  0.0496 -0.8714
60381SOL    HW292869  11.837  12.638   4.462  0.1532 -0.1762 -0.2341
60382SOL     OW92870   0.959   5.813  11.623 -0.1911 -0.0189 -0.1085
60382SOL    HW192871   1.027   5.763  11.578 -0.3838  1.3343 -2.0007
60382SOL    HW292872   0.885   5.753  11.629 -0.0451 -0.3301 -1.3036
60383SOL     OW92873  11.255   6.100   0.253  0.2198  0.4640 -0.3339
60383SOL    HW192874  11.337   6.116   0.206  0.2877 -0.8593 -0.7100
60383SOL    HW292875  11.261   6.008   0.281 -0.4750  0.7988  0.9670
60384SOL     OW92876  12.333   6.780  13.323 -0.8132  0.4474 -0.4788
60384SOL    HW192877  12.346   6.803  13.415 -0.2412 -1.4007 -0.0432
60384SOL    HW292878  12.253   6.825  13.297 -2.6266 -1.1982  1.8025
60385SOL     OW92879   5.811  11.352   2.060  0.2610  0.1131  0.2577
60385SOL    HW192880   5.754  11.276   2.066 -0.5551  0.5586 -1.2409
60385SOL    HW292881   5.870  11.332   1.988  0.2081  0.7825  0.0224
60386SOL     OW92882   9.344   6.958   3.888 -0.2848  0.7286 -0.2469
60386SOL    HW192883   9.423   6.906   3.871 -2.0207 -1.5730 -1.9397
60386SOL    HW292884   9.372   7.049   3.874  2.0581  0.0065 -0.7838
60387SOL     OW92885   0.690   1.203  10.424  0.9681  0.1500  0.2475
60387SOL    HW192886   0.742   1.240  10.352 -0.1136  2.1845  0.4456
60387SOL    HW292887   0.710   1.259  10.499 -1.2903  0.8574  0.3905
60388SOL     OW92888  13.595  13.460  12.857 -0.2030  0.8333 -0.0740
60388SOL    HW192889  13.565  13.451  12.948 -2.5565  0.8449 -0.7893
60388SOL    HW292890  13.576  13.374  12.818  0.9875  0.7594 -0.5369
60389SOL     OW92891  13.190   7.130   5.551 -0.1577  0.2724  0.3280
60389SOL    HW192892  13.151   7.217   5.542  0.7553  0.5570 -1.2325
60389SOL    HW292893  13.116   7.069   5.548 -0.6000  0.8189 -2.1789
60390SOL     OW92894   8.365   6.360   7.044  0.5721  0.4248  0.1390
60390SOL    HW192895   8.422   6.436   7.031 -1.6171  2.0832 -0.3685
60390SOL    HW292896   8.328   6.342   6.957 -0.6927  0.2707  0.6844
60391SOL     OW92897   9.087   9.117   5.646  0.4512  0.1093  0.1613
60391SOL    HW192898   9.063   9.185   5.583 -0.0374 -0.6253 -0.4671
60391SOL    HW292899   9.086   9.162   5.731 -1.0480  0.6171 -0.0945
60392SOL     OW92900   2.217   4.597  10.106  0.5314 -0.1902 -0.3796
60392SOL    HW192901   2.172   4.646  10.175 -1.0733 -2.0739 -0.0205
60392SOL    HW292902   2.181   4.509  10.111  1.4710 -0.7792 -2.6788
60393SOL     OW92903   4.588   3.087   0.332 -0.3116  0.1937  0.1763
60393SOL    HW192904   4.609   3.179   0.349 -0.8203  0.4767 -0.6972
60393SOL    HW292905   4.610   3.043   0.414 -0.9338  1.2280  0.9327
60394SOL     OW92906   7.410   0.078   5.319 -0.2928  0.8617 -0.3363
60394SOL    HW192907   7.328   0.127   5.319  0.1924  1.7023  0.0684
60394SOL    HW292908   7.423   0.053   5.411  0.0479  0.9906 -0.3472
60395SOL     OW92909   7.381  10.740   4.664  0.0981 -0.1114 -0.3122
60395SOL    HW192910   7.349  10.829   4.677 -0.9793 -0.6870  1.1058
60395SOL    HW292911   7.334  10.708   4.587  2.6414  1.4788 -2.7504
60396SOL     OW92912   9.804  10.304   2.066 -0.0732 -0.1334  0.2226
60396SOL    HW192913   9.809  10.318   1.971 -0.9870 -0.7870  0.0650
60396SOL    HW292914   9.810  10.392   2.103 -2.7689  0.5023 -0.6038
60397SOL     OW92915  12.194  10.485   9.117 -0.0275 -0.1779  0.4819
60397SOL    HW192916  12.267  10.477   9.056 -1.6839 -2.9924 -1.3504
60397SOL    HW292917  12.226  10.445   9.198  0.7187 -0.6974 -0.0576
60398SOL     OW92918  13.538  12.599   4.634  0.9198  0.4717  0.2593
60398SOL    HW192919  13.583  12.618   4.552  0.4025 -1.4074 -0.5223
60398SOL    HW292920  13.506  12.684   4.665  1.0194  1.2012 -1.5416
60399SOL     OW92921   9.399  13.335   4.583  0.7012  0.4486 -0.0029
60399SOL    HW192922   9.431  13.253   4.545  0.1344 -0.2218  0.9071
60399SOL    HW292923   9.478  13.382   4.611  1.0193  0.1107 -0.3306
60400SOL     OW92924  11.038   2.431   8.954  0.4599 -0.3408  0.3285
60400SOL    HW192925  11.059   2.408   8.863  0.4909 -0.5336  0.3845
60400SOL    HW292926  11.122   2.439   8.997  0.4869  0.6606  0.1240
60401SOL     OW92927  13.514   3.698   2.141  0.1905 -0.5120  1.1479
60401SOL    HW192928  13.477   3.785   2.128 -0.1810 -0.2748  3.3873
60401SOL    HW292929  13.604   3.714   2.169  0.3034 -0.8840  1.0086
60402SOL     OW92930   0.216   3.963   8.776  0.0751 -0.0327  0.4308
60402SOL    HW192931   0.180   3.920   8.854  1.1680  1.0270  1.5593
60402SOL    HW292932   0.293   3.911   8.753  0.1520  0.0562  0.4861
60403SOL     OW92933  11.082   4.623   9.586 -0.0193  0.4434  0.5085
60403SOL    HW192934  11.128   4.640   9.668  0.1977 -0.8770  0.6798
60403SOL    HW292935  11.018   4.695   9.579 -0.3888  0.3071  2.0907
60404SOL     OW92936   3.731   5.615   9.643 -0.3324  0.0489 -0.4618
60404SOL    HW192937   3.810   5.665   9.661 -1.0108  1.4253 -1.1247
60404SOL    HW292938   3.709   5.574   9.726  0.8223  0.0154 -0.1554
60405SOL     OW92939  11.413   9.203   6.494 -0.6574 -0.0152  0.2900
60405SOL    HW192940  11.425   9.200   6.399 -1.6364  0.6733  0.1256
60405SOL    HW292941  11.418   9.112   6.521  0.8907 -0.1110 -0.2408
60406SOL     OW92942   7.945   5.586  10.764  0.0656  0.1947 -0.2061
60406SOL    HW192943   8.000   5.546  10.832  0.1807 -1.1825 -1.0808
60406SOL    HW292944   7.915   5.513  10.711 -0.4047  1.2039 -1.3807
60407SOL     OW92945  12.278   5.145   2.939  0.2568  0.1645 -0.2990
60407SOL    HW192946  12.301   5.053   2.954  0.8309  0.3098 -0.2849
60407SOL    HW292947  12.301   5.162   2.848  0.8558  0.4967 -0.0955
60408SOL     OW92948   9.309   6.636   5.250 -0.0674  0.4564 -0.7453
60408SOL    HW192949   9.255   6.558   5.260  1.0991 -0.5876 -2.1528
60408SOL    HW292950   9.248   6.709   5.259 -1.3116 -0.6133 -0.1713
60409SOL     OW92951   0.973   8.607  11.742 -0.1245  0.4990 -0.2554
60409SOL    HW192952   0.955   8.692  11.702 -0.1418 -0.5125 -2.5244
60409SOL    HW292953   0.989   8.548  11.668 -1.1692 -1.7341  1.1842
60410SOL     OW92954  11.878   8.121   6.656  0.0880  0.1484  0.0036
60410SOL    HW192955  11.960   8.131   6.607  0.5709  2.0231  1.0769
60410SOL    HW292956  11.899   8.153   6.744 -1.5206 -0.4004  0.6168
60411SOL     OW92957   2.001   8.378   3.654 -0.4786  0.2790  0.3254
60411SOL    HW192958   2.062   8.335   3.714 -0.6526  0.8806  0.9421
60411SOL    HW292959   1.914   8.357   3.688 -0.7434 -1.9472 -1.4721
60412SOL     OW92960   6.225  12.109  13.160  0.0588  0.5066  0.9147
60412SOL    HW192961   6.174  12.061  13.095  0.0186 -0.1439  1.4200
60412SOL    HW292962   6.316  12.088  13.140  0.0341  0.0639  1.2452
60413SOL     OW92963  13.022   3.024   6.939 -0.5784 -0.0611  0.4021
60413SOL    HW192964  12.965   2.980   6.876 -2.0584  1.1522  0.8304
60413SOL    HW292965  13.070   3.088   6.886 -2.3405  1.4549  0.5333
60414SOL     OW92966  13.715   5.273   2.657 -0.2933 -0.1722  0.2878
60414SOL    HW192967  13.685   5.229   2.737  0.6769 -0.3937  0.5436
60414SOL    HW292968  13.637   5.316   2.622 -0.7577 -0.1792  1.2885
60415SOL     OW92969   3.294  13.263   5.488 -0.6468 -0.0533  0.9053
60415SOL    HW192970   3.277  13.340   5.542 -2.3051 -1.1529  2.0565
60415SOL    HW292971   3.209  13.243   5.449  0.3940  0.4610 -1.9028
60416SOL     OW92972   2.577   5.826   6.479  0.2198 -0.7295  0.3466
60416SOL    HW192973   2.523   5.870   6.545  1.3263 -0.6301  1.2107
60416SOL    HW292974   2.531   5.744   6.461 -0.6287 -0.2956  0.4672
60417SOL     OW92975   8.313   5.187   3.683 -0.1355  0.1044 -0.1705
60417SOL    HW192976   8.373   5.155   3.615 -0.1976  1.2878 -0.8057
60417SOL    HW292977   8.225   5.173   3.646 -0.1594  1.1075 -0.5112
60418SOL     OW92978   0.058   7.186  13.332  0.3558 -0.2607 -0.2506
60418SOL    HW192979   0.142   7.229  13.344 -0.5500  2.1368 -1.7809
60418SOL    HW292980   0.077   7.113  13.273  1.2440  0.9882 -1.5968
60419SOL     OW92981   7.400  11.924   2.336 -0.7002  0.4430 -0.2225
60419SOL    HW192982   7.379  12.017   2.323  0.6225  1.2357  2.6370
60419SOL    HW292983   7.324  11.887   2.380 -0.7872  0.4201 -0.3896
60420SOL     OW92984   9.079   0.088   3.102  0.3359  0.3070 -0.3818
60420SOL    HW192985   9.126   0.048   3.028  0.8451 -0.3383  0.2804
60420SOL    HW292986   9.124   0.171   3.117  0.4060  0.3129 -0.6131
60421SOL     OW92987  12.257  10.912  10.006  0.5497  0.4709 -0.0873
60421SOL    HW192988  12.200  10.852   9.958  0.5388  0.4832 -0.0894
60421SOL    HW292989  12.339  10.911   9.956  1.2490 -1.0861  1.0025
60422SOL     OW92990   9.902  12.316  11.911  0.2494  0.9808  0.4645
60422SOL    HW192991   9.816  12.355  11.895  0.1685  0.4716 -0.4029
60422SOL    HW292992   9.948  12.381  11.965  0.5283  2.8541 -1.8596
60423SOL     OW92993   6.286   7.481  11.286 -0.2821  0.9781 -0.3025
60423SOL    HW192994   6.254   7.522  11.367 -0.5459 -0.7417  0.4947
60423SOL    HW292995   6.212   7.488  11.225  0.1358  2.8726 -0.6767
60424SOL     OW92996   5.773  11.616   6.088 -0.0577  0.1578  0.2266
60424SOL    HW192997   5.733  11.648   6.169 -0.4999  1.2000 -0.3839
60424SOL    HW292998   5.717  11.649   6.018  0.9010  0.1701 -0.5675
60425SOL     OW92999   1.415   4.822   3.559 -0.0127 -0.4666  0.1933
60425SOL    HW193000   1.413   4.798   3.466 -0.7608 -0.0903  0.1015
60425SOL    HW293001   1.495   4.783   3.592  0.6079 -0.0467 -0.7648
60426SOL     OW93002  11.565   2.008  12.403 -0.0847 -0.4660  0.2059
60426SOL    HW193003  11.590   2.037  12.315  0.2382  0.4837  0.6011
60426SOL    HW293004  11.589   2.081  12.460 -1.4161 -0.5685  0.9315
60427SOL     OW93005   9.750   7.995   0.914 -0.2404  0.7547 -0.4463
60427SOL    HW193006   9.790   7.965   0.996  0.0410  0.2475 -0.7621
60427SOL    HW293007   9.813   7.970   0.847 -1.0910 -0.0746 -0.9602
60428SOL     OW93008   0.704   2.506   7.409 -0.1004  0.5412 -0.4345
60428SOL    HW193009   0.738   2.595   7.395  0.7426  0.1778 -0.7697
60428SOL    HW293010   0.738   2.481   7.495 -0.3366  0.5437 -0.3403
60429SOL     OW93011   1.962   8.935   7.135  0.1955 -0.1301 -0.7181
60429SOL    HW193012   1.917   8.856   7.106  1.4657 -0.8083 -0.9442
60429SOL    HW293013   1.909   8.969   7.206 -0.9867 -0.5360 -1.3845
60430SOL     OW93014  11.348   8.032   0.859  0.3045  0.5562 -0.1747
60430SOL    HW193015  11.340   8.068   0.947 -0.5755  0.0806 -0.0495
60430SOL    HW293016  11.283   7.962   0.855  1.7323 -0.8371 -0.5084
60431SOL     OW93017   3.384  11.658   0.629 -0.7285  0.2062 -0.3750
60431SOL    HW193018   3.408  11.751   0.625  1.0559 -0.2505 -1.4904
60431SOL    HW293019   3.466  11.612   0.609 -1.2357 -1.6623  1.5410
60432SOL     OW93020   9.541   5.022   8.477  0.4462  0.5662 -0.2996
60432SOL    HW193021   9.564   5.053   8.389 -1.3088 -0.2201 -1.0845
60432SOL    HW293022   9.523   5.102   8.527 -0.1040  0.9712 -1.1244
60433SOL     OW93023   9.218  11.032   3.610  0.0211 -0.0762 -0.2705
60433SOL    HW193024   9.155  10.968   3.578 -0.7551 -0.0646  1.1425
60433SOL    HW293025   9.294  10.980   3.636  0.3400 -0.1605 -1.3482
60434SOL     OW93026   8.363   0.364   1.130 -0.0669 -0.1034 -0.6419
60434SOL    HW193027   8.446   0.348   1.176 -0.2216  0.6958 -0.0658
60434SOL    HW293028   8.380   0.441   1.076 -1.3385  2.2429  2.0211
60435SOL     OW93029   6.217   9.732   6.301  0.0296 -0.5222 -0.2245
60435SOL    HW193030   6.231   9.645   6.264 -0.0410 -0.7181  0.2005
60435SOL    HW293031   6.235   9.793   6.229 -1.1960 -0.9373 -0.9001
60436SOL     OW93032  10.585   7.146   4.623 -0.3784 -0.2316  0.9018
60436SOL    HW193033  10.534   7.166   4.701  0.2684  0.5615  1.1294
60436SOL    HW293034  10.615   7.231   4.591 -1.5518 -0.4092 -0.8623
60437SOL     OW93035   1.631   9.797   3.386  0.1509  0.9880 -0.2110
60437SOL    HW193036   1.715   9.825   3.423 -0.3335  3.2647 -0.6714
60437SOL    HW293037   1.650   9.779   3.294  0.5529 -0.8256  0.1779
60438SOL     OW93038   9.272   5.949  13.301 -0.3182 -0.6052  0.2461
60438SOL    HW193039   9.353   5.955  13.353 -0.6073  1.0661  0.5707
60438SOL    HW293040   9.302   5.946  13.210  0.1456  2.0226  0.2326
60439SOL     OW93041  10.633   5.949   9.253 -0.2633 -0.0710  0.2555
60439SOL    HW193042  10.697   5.924   9.319  0.7249 -1.2975 -1.0929
60439SOL    HW293043  10.555   5.973   9.302  1.0941  1.1280  1.9407
60440SOL     OW93044   3.318   6.788   9.346  0.0690 -0.3509 -1.1063
60440SOL    HW193045   3.367   6.710   9.372 -0.1767  0.3528  1.8977
60440SOL    HW293046   3.231   6.756   9.324 -0.6182 -0.8754  1.9302
60441SOL     OW93047  12.454   3.117  13.167 -0.0228 -0.0606  0.5074
60441SOL    HW193048  12.489   3.139  13.081  0.1500  0.1440  0.6288
60441SOL    HW293049  12.367   3.156  13.169 -1.3079 -2.5912 -0.7170
60442SOL     OW93050   4.211  10.568   8.557  0.2499  0.1857 -0.1574
60442SOL    HW193051   4.178  10.658   8.551  0.8954  0.4435  0.0783
60442SOL    HW293052   4.282  10.572   8.621 -2.5198 -1.3623  3.3336
60443SOL     OW93053  10.911   5.055  13.460 -0.2813 -0.1808 -0.7524
60443SOL    HW193054  10.958   4.971  13.455  1.2859  0.5464  0.7252
60443SOL    HW293055  10.841   5.039  13.524  0.0343 -0.3669 -0.4458
60444SOL     OW93056   3.241   9.837   5.717  0.6386  0.2971 -0.0766
60444SOL    HW193057   3.152   9.839   5.753  0.8374  1.6472  0.3865
60444SOL    HW293058   3.298   9.841   5.793  1.3127 -4.4138  0.0169
60445SOL     OW93059  11.892   8.125   8.430  0.3863  0.5232 -0.6197
60445SOL    HW193060  11.855   8.089   8.350 -0.7499 -0.0126  0.1167
60445SOL    HW293061  11.953   8.058   8.462 -0.3699  0.0124 -0.2070
60446SOL     OW93062   0.755   2.921   4.483  0.9463  0.0365 -0.2142
60446SOL    HW193063   0.742   2.942   4.575 -1.4696  1.6067 -0.8430
60446SOL    HW293064   0.842   2.957   4.462  1.1328  0.4701  1.1975
60447SOL     OW93065   3.115   9.875  10.984  0.2619 -0.0596  0.2482
60447SOL    HW193066   3.026   9.909  10.975  0.5763  0.9405  0.8383
60447SOL    HW293067   3.143   9.902  11.071  1.7953  1.1779 -0.5739
60448SOL     OW93068  11.172  11.424  11.773  0.0278 -0.4930 -0.0393
60448SOL    HW193069  11.210  11.476  11.845 -0.8023 -0.7965  0.6339
60448SOL    HW293070  11.201  11.335  11.790 -0.1027 -0.5531 -0.1302
60449SOL     OW93071  11.689  11.752  11.882 -0.4455 -0.2653  0.3162
60449SOL    HW193072  11.767  11.702  11.905 -1.6028 -1.7223  1.2992
60449SOL    HW293073  11.673  11.731  11.790 -0.5772 -1.3090  0.5552
60450SOL     OW93074   2.774   9.729   3.267  0.0048 -0.2589  0.1608
60450SOL    HW193075   2.735   9.811   3.296 -3.5331 -2.1878  1.4228
60450SOL    HW293076   2.789   9.679   3.347 -0.9393 -2.0196 -0.6924
60451SOL     OW93077  10.908   0.797   0.790  0.6564 -0.7375  0.2321
60451SOL    HW193078  10.840   0.803   0.857  1.5903 -2.2989  1.3871
60451SOL    HW293079  10.886   0.717   0.742  0.2376  0.1401 -1.1042
60452SOL     OW93080   9.860   5.108   6.479  0.3298 -0.0387  0.1313
60452SOL    HW193081   9.872   5.176   6.413 -0.8988 -0.8906 -1.0128
60452SOL    HW293082   9.766   5.108   6.497  0.5227 -0.4617  1.1861
60453SOL     OW93083   5.793  12.786   6.820  0.3465  0.0591 -0.2034
60453SOL    HW193084   5.872  12.744   6.856  0.2298  0.1349  0.1485
60453SOL    HW293085   5.827  12.855   6.763  0.5355  0.1944  0.0696
60454SOL     OW93086  11.885  13.691   6.825 -0.4381 -0.1567 -0.6024
60454SOL    HW193087  11.864  13.720   6.736  0.3213  2.7495  0.0428
60454SOL    HW293088  11.874  13.770   6.878  0.1835 -1.5494  1.7132
60455SOL     OW93089   8.670   8.780  10.844  0.5267  0.3780  0.0674
60455SOL    HW193090   8.638   8.708  10.898 -2.7676  0.9284 -0.9465
60455SOL    HW293091   8.667   8.857  10.901  2.1195  0.1109  0.5583
60456SOL     OW93092   7.210   0.601   4.337  0.1652  0.3833 -0.1374
60456SOL    HW193093   7.262   0.679   4.317  0.0003  0.5840  0.2228
60456SOL    HW293094   7.152   0.627   4.408 -0.6009  0.2363 -0.6838
60457SOL     OW93095   1.206   7.630   4.856  0.0104 -0.5154 -1.1601
60457SOL    HW193096   1.148   7.682   4.801 -0.3784 -1.2637 -1.4726
60457SOL    HW293097   1.259   7.695   4.904 -1.1560  0.1769 -0.7772
60458SOL     OW93098   0.475   4.915   8.167  0.2260 -0.2008  0.3205
60458SOL    HW193099   0.390   4.953   8.190 -0.5796 -1.2943 -0.7549
60458SOL    HW293100   0.537   4.986   8.184 -0.9745  0.8680  0.4444
60459SOL     OW93101  12.873   8.048   0.446  0.4499  0.2284 -0.3749
60459SOL    HW193102  12.890   8.015   0.534  0.6787  0.6684 -0.2556
60459SOL    HW293103  12.941   8.113   0.431 -0.5692  1.3636 -0.2398
60460SOL     OW93104   9.481  10.072   8.001  0.0448  0.2852 -0.3343
60460SOL    HW193105   9.505  10.155   8.042  2.8543 -0.0629 -1.0301
60460SOL    HW293106   9.562  10.021   8.003 -0.6364 -1.0755 -3.1148
60461SOL     OW93107   4.921   1.483   5.619  0.2965  0.0591  0.6207
60461SOL    HW193108   4.994   1.501   5.679  1.8513 -0.4116 -1.0544
60461SOL    HW293109   4.958   1.427   5.552 -0.8731  1.9634 -1.7821
60462SOL     OW93110   6.597  11.158   4.391 -0.4012  0.3855 -0.1565
60462SOL    HW193111   6.551  11.174   4.473 -0.2450 -2.6047  0.6040
60462SOL    HW293112   6.688  11.184   4.408 -0.6435  1.0457  0.1483
60463SOL     OW93113   4.790   1.096   1.822  0.1433 -0.0558 -0.2388
60463SOL    HW193114   4.717   1.040   1.796  0.2025 -2.0248  3.2806
60463SOL    HW293115   4.779   1.108   1.917  3.5918  0.7565  0.2088
60464SOL     OW93116   1.773   6.394   8.072 -0.3413  0.2181 -0.2322
60464SOL    HW193117   1.834   6.466   8.056 -0.0227 -0.1148 -0.5576
60464SOL    HW293118   1.823   6.315   8.050 -0.5156 -0.1400  0.5925
60465SOL     OW93119   1.496   9.378   2.890 -0.6448 -0.1197  0.2663
60465SOL    HW193120   1.547   9.423   2.822 -2.1376 -1.3368 -1.7536
60465SOL    HW293121   1.478   9.292   2.853 -3.9107  0.1454  0.9799
60466SOL     OW93122  12.916  12.122   2.690 -0.7253  0.0957  0.3817
60466SOL    HW193123  12.948  12.203   2.650  1.5343  0.9469  3.5065
60466SOL    HW293124  12.970  12.053   2.650 -1.2367  0.3690 -0.8123
60467SOL     OW93125   3.184   4.145   0.111  0.2785 -0.6061  0.2838
60467SOL    HW193126   3.156   4.190   0.191 -0.5829  1.2823 -0.9851
60467SOL    HW293127   3.279   4.148   0.114  0.2673  1.6221  0.1578
60468SOL     OW93128  11.359   4.041   0.506  0.2466  0.0171  0.1311
60468SOL    HW193129  11.360   4.017   0.598  1.5513 -0.2826  0.0592
60468SOL    HW293130  11.392   4.131   0.504  0.4224 -0.0491 -0.0527
60469SOL     OW93131   4.074   4.217   6.529  0.7344  0.5054 -0.1174
60469SOL    HW193132   4.059   4.149   6.464  0.3664  0.5059 -0.0322
60469SOL    HW293133   4.117   4.172   6.601 -1.4747 -0.1216  0.8899
60470SOL     OW93134   1.327   0.095  11.940  0.3626  1.0049  0.0490
60470SOL    HW193135   1.394   0.125  12.001  0.7789  2.2229 -0.9587
60470SOL    HW293136   1.350   0.138  11.857 -0.1180 -0.6786 -0.9966
60471SOL     OW93137  12.608   8.320   4.916  0.0932 -0.0688  0.1305
60471SOL    HW193138  12.529   8.288   4.872 -0.9067 -0.3112  2.0097
60471SOL    HW293139  12.583   8.404   4.953  0.1527 -0.8791  2.1283
60472SOL     OW93140  12.438   7.547   8.560 -0.0420 -0.1703  0.5581
60472SOL    HW193141  12.410   7.502   8.480 -0.1176  1.0149 -0.1129
60472SOL    HW293142  12.369   7.611   8.577  0.0658 -0.2841  1.4742
60473SOL     OW93143   4.326   6.723  11.540 -0.1985  0.7505  0.3478
60473SOL    HW193144   4.395   6.670  11.502 -0.7493 -0.4066  0.9223
60473SOL    HW293145   4.356   6.742  11.629 -1.2777 -1.1133  1.1690
60474SOL     OW93146   8.306   3.501   6.919 -0.1153  0.0773 -0.0434
60474SOL    HW193147   8.253   3.421   6.924 -2.1008  1.2959 -0.6982
60474SOL    HW293148   8.255   3.567   6.965  2.0404  0.7648  1.5365
60475SOL     OW93149  13.065   9.404  11.858  0.9462  0.3717 -0.4286
60475SOL    HW193150  13.124   9.361  11.796  0.8974  0.2145 -0.3658
60475SOL    HW293151  12.978   9.372  11.835  0.9387  0.2383 -0.2196
60476SOL     OW93152   7.677   8.259   3.021 -0.0075 -0.5562  0.0859
60476SOL    HW193153   7.675   8.174   2.977 -1.3542  0.5411 -2.1107
60476SOL    HW293154   7.743   8.309   2.975 -1.3393  0.5656 -0.6846
60477SOL     OW93155   0.874  10.719  11.944 -0.0983 -0.2144  0.1594
60477SOL    HW193156   0.795  10.773  11.955 -0.6671 -1.3260  1.7592
60477SOL    HW293157   0.912  10.712  12.031  2.0191  0.5720 -0.6223
60478SOL     OW93158  11.385   8.652   4.238  0.2715  0.0280  0.4414
60478SOL    HW193159  11.330   8.643   4.315  0.5604 -0.4921  0.5920
60478SOL    HW293160  11.450   8.719   4.262  1.5883 -1.5270  1.3949
60479SOL     OW93161  10.641   2.931   3.331 -0.1696  0.5993 -0.0982
60479SOL    HW193162  10.693   2.996   3.283 -0.0873 -0.6123 -1.7155
60479SOL    HW293163  10.640   2.854   3.275 -0.5743 -0.7088  1.6021
60480SOL     OW93164   1.088   5.417   2.738  0.0816  0.5435 -0.1977
60480SOL    HW193165   1.003   5.450   2.712 -1.0847 -2.2130 -0.2555
60480SOL    HW293166   1.086   5.417   2.833 -0.1675  0.0775 -0.2011
60481SOL     OW93167   5.031   4.300   0.273 -0.0883  0.5831 -0.2545
60481SOL    HW193168   5.082   4.236   0.323 -1.0085 -1.3602 -1.6390
60481SOL    HW293169   4.940   4.273   0.287 -0.3718 -0.3994 -3.2820
60482SOL     OW93170   3.674   0.753   5.282  0.1926 -0.5681  0.1262
60482SOL    HW193171   3.696   0.799   5.363  0.5687 -0.6606  0.0765
60482SOL    HW293172   3.654   0.664   5.310 -0.2360 -0.4571  0.1851
60483SOL     OW93173   9.536   2.904   9.726 -0.3698 -0.0960 -0.0236
60483SOL    HW193174   9.593   2.979   9.744 -1.7108  1.1252 -0.6147
60483SOL    HW293175   9.596   2.834   9.702  1.0499  0.2317  2.2158
60484SOL     OW93176  12.218  10.855   2.236 -0.8258  0.3510  0.2565
60484SOL    HW193177  12.203  10.783   2.297 -0.9133  0.5506  0.4682
60484SOL    HW293178  12.272  10.917   2.285  0.2006 -0.0760 -0.2852
60485SOL     OW93179  12.249  12.652   6.231 -0.0966  0.3142  0.9064
60485SOL    HW193180  12.318  12.703   6.189  0.8882  0.7253  2.8834
60485SOL    HW293181  12.176  12.713   6.241 -0.4264  0.1445 -0.3525
60486SOL     OW93182   4.821   5.401   8.772  0.5487  0.2997 -0.0547
60486SOL    HW193183   4.791   5.488   8.747 -0.7646 -0.6980 -2.3607
60486SOL    HW293184   4.916   5.406   8.771  0.4886  1.6012 -0.5699
60487SOL     OW93185   8.013   2.317  12.127  0.8162  0.3802 -0.0947
60487SOL    HW193186   7.935   2.355  12.086  1.1292 -0.3494 -1.4209
60487SOL    HW293187   8.035   2.378  12.198 -1.2820  0.3041  0.6946
60488SOL     OW93188   7.516  13.023  10.898  0.1849  0.1557  0.1068
60488SOL    HW193189   7.547  13.061  10.980 -0.7151 -0.2509  0.6517
60488SOL    HW293190   7.559  12.937  10.895  0.7442  0.4414 -0.1892
60489SOL     OW93191   9.836   1.561   0.566  0.0665  0.1349 -0.4314
60489SOL    HW193192   9.925   1.552   0.601  0.0742  1.2293 -0.1265
60489SOL    HW293193   9.848   1.579   0.473  0.4148  4.1270  0.2236
60490SOL     OW93194   6.279   7.188  13.521  0.1257  0.0110  0.1356
60490SOL    HW193195   6.215   7.161  13.455 -0.2940 -0.2156  0.6322
60490SOL    HW293196   6.340   7.114  13.525 -0.5290 -0.5078  0.8594
60491SOL     OW93197   0.346   7.658   3.533  0.5678 -0.5932 -0.1783
60491SOL    HW193198   0.372   7.686   3.620  0.3110  0.4360 -0.4220
60491SOL    HW293199   0.427   7.629   3.492  0.7054 -0.9869  0.3589
60492SOL     OW93200   2.251   7.463  13.595  0.0083  0.4853 -0.0050
60492SOL    HW193201   2.294   7.381  13.570 -0.4624  0.4993 -0.9108
60492SOL    HW293202   2.244   7.512  13.513 -2.0840  0.3100  0.0290
60493SOL     OW93203  13.730   2.558  10.290 -0.0421 -0.3720 -0.3600
60493SOL    HW193204  13.680   2.477  10.275  1.1484 -1.0012 -1.0960
60493SOL    HW293205  13.724   2.605  10.207  0.8313 -0.6052 -0.5656
60494SOL     OW93206   0.143   9.375   2.987  0.2583 -0.2403  0.4090
60494SOL    HW193207   0.193   9.379   2.906 -1.1103 -2.2630 -0.6029
60494SOL    HW293208   0.209   9.371   3.056  1.4459  2.0108 -0.4939
60495SOL     OW93209  12.172   5.051   0.639 -0.6132 -0.0071  0.1396
60495SOL    HW193210  12.240   5.078   0.700  0.3172  0.0882 -0.9123
60495SOL    HW293211  12.094   5.099   0.668  0.0611  0.8145  0.6511
60496SOL     OW93212   9.980   7.074   6.200  0.0142 -0.2745  0.5600
60496SOL    HW193213   9.886   7.061   6.208 -0.0643 -0.1286 -0.1109
60496SOL    HW293214   9.990   7.146   6.137  0.5937 -0.8321  0.0004
60497SOL     OW93215  12.232   8.732   7.051 -0.6171 -0.1983 -0.3216
60497SOL    HW193216  12.210   8.804   7.109 -0.0518  1.1603 -1.7176
60497SOL    HW293217  12.180   8.658   7.083  0.3025  0.2284  2.3831
60498SOL     OW93218  10.501  10.244   6.194 -0.1549 -0.0299  0.4142
60498SOL    HW193219  10.500  10.191   6.114 -0.5169  1.3178 -0.4999
60498SOL    HW293220  10.419  10.223   6.238 -0.0308 -0.6602  0.3506
60499SOL     OW93221   0.573   2.818   9.002  0.0543 -0.6045  0.6993
60499SOL    HW193222   0.638   2.767   8.953 -0.2434  0.7383 -1.2175
60499SOL    HW293223   0.618   2.845   9.082  0.7790 -2.3496  0.9070
60500SOL     OW93224   3.520   7.309   8.005  0.9137  0.0335 -0.1197
60500SOL    HW193225   3.433   7.284   8.036  0.1562  0.6071 -1.6766
60500SOL    HW293226   3.570   7.326   8.084 -0.7593  0.9186  0.7859
60501SOL     OW93227   3.971   1.017   3.001  0.8241 -0.4821 -0.6586
60501SOL    HW193228   3.884   1.051   2.978  0.7202 -0.7229 -0.6249
60501SOL    HW293229   3.996   0.964   2.926  0.6490 -0.9597 -0.3864
60502SOL     OW93230   5.078   6.880  11.660 -0.0508 -0.4650  0.8985
60502SOL    HW193231   5.064   6.883  11.565 -1.0754  1.1712  1.0672
60502SOL    HW293232   5.000   6.834  11.693  0.0641 -0.5907  0.9949
60503SOL     OW93233  12.544   5.943   2.839 -0.9590 -0.3840  0.8485
60503SOL    HW193234  12.524   5.921   2.748  1.1630  1.9256 -0.2833
60503SOL    HW293235  12.458   5.953   2.881 -1.9856 -0.9840 -1.0192
60504SOL     OW93236  12.490  10.562   6.301 -0.5512 -0.0732  0.3974
60504SOL    HW193237  12.518  10.636   6.248  0.1061 -0.2215  0.5228
60504SOL    HW293238  12.571  10.518   6.325 -0.9640 -1.1858 -0.1811
60505SOL     OW93239  10.676   7.714   8.198  0.1835  0.1690  0.2126
60505SOL    HW193240  10.758   7.727   8.151  1.5127 -3.0922  1.3317
60505SOL    HW293241  10.668   7.791   8.254  1.7632  1.1725 -0.8484
60506SOL     OW93242   2.743   5.081  11.707 -0.0843 -0.1682  0.2362
60506SOL    HW193243   2.769   5.171  11.726 -0.6334  0.1311 -0.3848
60506SOL    HW293244   2.654   5.074  11.740 -0.6455  0.0249 -1.1716
60507SOL     OW93245   5.300  11.239   2.307 -0.1314  0.6868  0.5862
60507SOL    HW193246   5.320  11.324   2.268 -1.1275  0.7680  0.2275
60507SOL    HW293247   5.269  11.259   2.395  0.0519  0.6551  0.6596
60508SOL     OW93248  10.389   7.239   6.790 -0.1034 -0.3012  0.7997
60508SOL    HW193249  10.372   7.302   6.860  0.4915  1.5896 -0.6699
60508SOL    HW293250  10.475   7.263   6.757 -0.0267 -1.6798 -0.0537
60509SOL     OW93251  10.714   4.307   8.629 -0.1611 -0.1726  0.3627
60509SOL    HW193252  10.730   4.372   8.696 -0.7957  0.1191  0.2421
60509SOL    HW293253  10.780   4.239   8.644  2.0430  1.5790 -0.9504
60510SOL     OW93254  12.110  11.428  10.200  0.2118  0.2277  0.3211
60510SOL    HW193255  12.144  11.515  10.220 -1.7555  1.0511  0.2595
60510SOL    HW293256  12.061  11.403  10.279  2.2034 -1.6449  1.0656
60511SOL     OW93257   8.880   3.938   1.044 -0.1601  0.3930 -0.2301
60511SOL    HW193258   8.784   3.931   1.049 -0.1996  1.2979  0.7958
60511SOL    HW293259   8.904   3.986   1.123  1.2031 -0.2723 -0.2109
60512SOL     OW93260   7.149  11.836   9.635  0.1909  0.0267  0.3393
60512SOL    HW193261   7.114  11.850   9.723  0.7609 -0.8158  0.7176
60512SOL    HW293262   7.073  11.847   9.577 -0.6537 -1.3957  1.1037
60513SOL     OW93263   8.623  11.253  10.670  0.1882 -0.2531  0.2794
60513SOL    HW193264   8.680  11.321  10.634  0.2619 -0.4299  0.0612
60513SOL    HW293265   8.630  11.181  10.608 -1.6161  0.3383 -0.6603
60514SOL     OW93266  11.938  13.555   2.689  0.5602 -0.2121  0.0986
60514SOL    HW193267  11.955  13.648   2.682 -0.5502 -0.0180 -0.2226
60514SOL    HW293268  11.997  13.524   2.758  0.5694  0.8180  0.5598
60515SOL     OW93269   2.635   9.694   0.003  0.8050 -1.1683 -0.1002
60515SOL    HW193270   2.685   9.723  -0.074  0.3959 -0.0787  0.0363
60515SOL    HW293271   2.557   9.652  -0.034 -0.0454  0.5028 -0.3156
60516SOL     OW93272  12.909  11.951  13.277  0.5372  0.3364  0.5269
60516SOL    HW193273  12.955  11.866  13.281 -0.1521 -0.0759 -0.0864
60516SOL    HW293274  12.881  11.958  13.186  2.5922  2.3210 -0.0382
60517SOL     OW93275  11.364  13.234   4.518  0.5015 -0.0793 -0.3377
60517SOL    HW193276  11.291  13.252   4.578  1.5388  0.4572  0.7972
60517SOL    HW293277  11.325  13.182   4.448 -0.8054 -0.4751  0.6466
60518SOL     OW93278   0.394  10.929  13.269 -0.4357  0.2116  0.0415
60518SOL    HW193279   0.421  11.020  13.281 -1.3276  0.6947 -1.4313
60518SOL    HW293280   0.438  10.882  13.341  0.8077  1.6258  0.2676
60519SOL     OW93281   8.606   1.355   8.401  0.3631 -0.2305  0.8538
60519SOL    HW193282   8.540   1.298   8.440 -0.9101  0.0238 -0.8086
60519SOL    HW293283   8.665   1.376   8.473 -1.0004 -0.9830  2.2527
60520SOL     OW93284   9.137   0.761  12.606  0.1928  0.2494  0.3459
60520SOL    HW193285   9.168   0.843  12.567 -3.8214  0.6818 -2.4561
60520SOL    HW293286   9.103   0.787  12.692  0.6389  1.1434  0.2655
60521SOL     OW93287   9.354  11.400  10.372  0.2209  0.3270 -0.7406
60521SOL    HW193288   9.443  11.421  10.344 -0.1722  0.3766 -1.9892
60521SOL    HW293289   9.322  11.339  10.306 -0.9650  0.9417 -0.7533
60522SOL     OW93290  12.928   2.421   6.229  0.0530 -0.0698 -0.6080
60522SOL    HW193291  12.982   2.403   6.307  0.2925 -2.4928 -1.2518
60522SOL    HW293292  12.838   2.411   6.260  0.1112 -0.1120 -0.4485
60523SOL     OW93293   9.586  12.726   4.866  0.0083  0.3463 -0.5658
60523SOL    HW193294   9.547  12.809   4.838 -0.9430  0.0931 -0.0568
60523SOL    HW293295   9.564  12.664   4.796 -0.9387  0.0932 -0.0573
60524SOL     OW93296   0.110   4.482   2.280 -0.0583  0.0166 -0.2763
60524SOL    HW193297   0.132   4.551   2.217  2.0596 -1.1882 -0.9621
60524SOL    HW293298   0.123   4.523   2.366  1.3072  0.4618 -0.6686
60525SOL     OW93299   2.178   3.110   5.603 -0.1997 -0.9675  0.5748
60525SOL    HW193300   2.124   3.182   5.570  0.5573 -1.1490 -1.2135
60525SOL    HW293301   2.122   3.033   5.595 -0.3501 -0.8679  0.6478
60526SOL     OW93302  12.809  10.974   0.234  0.9978  0.7554  0.1580
60526SOL    HW193303  12.789  10.934   0.319  0.6516 -0.0715 -0.2942
60526SOL    HW293304  12.756  11.054   0.232  1.8661  1.3812  1.1711
60527SOL     OW93305  11.520   6.361   9.121 -0.3769 -0.1868 -0.1666
60527SOL    HW193306  11.575   6.283   9.121 -1.0849 -0.6990  0.3142
60527SOL    HW293307  11.580   6.433   9.137  0.1122 -0.7676  0.6995
60528SOL     OW93308   4.325  12.117  12.655 -0.2082  0.0559  0.0019
60528SOL    HW193309   4.264  12.064  12.707  0.8326 -0.8059  0.3809
60528SOL    HW293310   4.373  12.169  12.719  2.4245 -2.3885  0.2209
60529SOL     OW93311  11.717   6.658   3.811 -0.0473 -0.9001 -0.5380
60529SOL    HW193312  11.776   6.640   3.738  0.1866  1.5143 -1.0255
60529SOL    HW293313  11.773   6.652   3.889  0.2753 -1.0685 -0.7794
60530SOL     OW93314   8.674   1.441  13.200  1.0097  0.2113 -0.3101
60530SOL    HW193315   8.691   1.531  13.228 -1.6336  0.2949  1.3922
60530SOL    HW293316   8.716   1.386  13.266 -1.5669  0.3606  1.5991
60531SOL     OW93317   0.797   3.774   4.797  0.4355  0.2956 -0.0449
60531SOL    HW193318   0.885   3.737   4.799 -0.1316 -1.0810  0.0138
60531SOL    HW293319   0.764   3.755   4.709  1.0522  2.9528 -0.9479
60532SOL     OW93320   0.520   3.257  11.338  0.4284 -0.1027 -0.8818
60532SOL    HW193321   0.501   3.350  11.355  2.4224  0.2935 -0.5269
60532SOL    HW293322   0.541   3.254  11.245 -0.5036 -0.3820 -1.0917
60533SOL     OW93323   9.008  11.280   8.812 -0.4902 -0.0217  0.3389
60533SOL    HW193324   9.097  11.311   8.797 -1.1356  1.5071 -0.6460
60533SOL    HW293325   9.018  11.189   8.839  1.4097  0.4386  1.3232
60534SOL     OW93326   9.490  10.908   2.571 -0.2270 -0.3052  0.5787
60534SOL    HW193327   9.584  10.889   2.578 -0.6305 -3.0500 -0.2939
60534SOL    HW293328   9.449  10.823   2.558 -3.2583  0.2912  4.3540
60535SOL     OW93329   6.510   4.774   8.434  0.2637 -0.7529 -0.1844
60535SOL    HW193330   6.482   4.741   8.348 -2.1067  0.7933 -0.1124
60535SOL    HW293331   6.572   4.844   8.413 -1.9415  1.1229 -0.8616
60536SOL     OW93332   3.139   8.728   3.137  0.3086  0.3262 -0.2815
60536SOL    HW193333   3.143   8.692   3.225  1.0849 -0.1786 -0.5136
60536SOL    HW293334   3.230   8.746   3.113  0.0359  1.3362 -0.6319
60537SOL     OW93335   1.058  12.334   6.869  1.1083  0.7696  0.2116
60537SOL    HW193336   1.074  12.322   6.775  0.8888  0.9253  0.1543
60537SOL    HW293337   1.097  12.420   6.888  0.9355  0.8468  0.2129
60538SOL     OW93338   9.048   3.877   1.813 -0.2368  0.0461  0.6080
60538SOL    HW193339   9.082   3.789   1.826 -0.6301  0.0260  1.5640
60538SOL    HW293340   8.954   3.870   1.827 -0.1982  0.7255  1.2925
60539SOL     OW93341  12.154  13.103   0.677  0.7942  0.6631 -0.1780
60539SOL    HW193342  12.218  13.044   0.638  0.6848 -0.8183  1.7185
60539SOL    HW293343  12.205  13.180   0.703  1.2174  0.7998 -1.3599
60540SOL     OW93344   7.677  12.926   3.030 -0.4018  0.6431 -0.0393
60540SOL    HW193345   7.679  13.004   2.973  3.1412 -0.9334 -2.4444
60540SOL    HW293346   7.747  12.942   3.093  2.7564 -1.6654 -2.5957
60541SOL     OW93347   8.042   1.930   4.375 -0.4587  0.4616 -0.0050
60541SOL    HW193348   8.095   1.853   4.353  1.0051  1.6348 -0.7603
60541SOL    HW293349   8.015   1.915   4.466 -0.7610 -1.2287 -0.3302
60542SOL     OW93350   7.715  11.485   7.125  0.0432  0.2653  0.4940
60542SOL    HW193351   7.782  11.494   7.194  0.1784  2.0839  0.1857
60542SOL    HW293352   7.695  11.391   7.123  0.3219  0.0915  2.7279
60543SOL     OW93353   4.380   5.867   6.841  0.3293 -0.3013  0.0694
60543SOL    HW193354   4.428   5.898   6.917  0.0218 -0.9849  0.5510
60543SOL    HW293355   4.437   5.800   6.802 -0.1557 -1.0169  0.5639
60544SOL     OW93356   1.118   0.039   1.831  0.4167 -0.1857  0.1672
60544SOL    HW193357   1.126   0.001   1.919 -1.1976 -0.3081  0.2897
60544SOL    HW293358   1.044  -0.007   1.792  1.7178 -0.8649 -1.6731
60545SOL     OW93359   3.969   4.491  10.131  0.2853 -0.3132  0.0993
60545SOL    HW193360   4.027   4.445  10.192  0.1437 -2.1736 -1.0671
60545SOL    HW293361   3.986   4.450  10.047 -2.8606 -1.1449 -0.2688
60546SOL     OW93362   9.475  12.798   1.506  0.4472 -0.0781  0.0259
60546SOL    HW193363   9.450  12.817   1.597 -0.9556 -1.1276 -0.1250
60546SOL    HW293364   9.507  12.708   1.508 -0.3973 -0.4096 -0.6504
60547SOL     OW93365   5.029  11.907   3.907 -0.4158  0.1283 -0.1671
60547SOL    HW193366   4.945  11.916   3.952 -1.0360  0.3990 -1.3340
60547SOL    HW293367   5.023  11.968   3.833  1.2778  1.0296  0.3777
60548SOL     OW93368   0.752   1.401  12.912 -0.1569 -0.2913  0.1425
60548SOL    HW193369   0.712   1.480  12.949  2.8440 -0.4495  4.5126
60548SOL    HW293370   0.803   1.432  12.837 -1.4998  1.2969 -0.1741
60549SOL     OW93371   8.512   1.054   3.537  0.2316  0.3185  0.3515
60549SOL    HW193372   8.455   1.007   3.598  1.6878 -1.8759  0.1340
60549SOL    HW293373   8.496   1.012   3.453  0.3302  1.3904 -0.2122
60550SOL     OW93374   0.227  12.082  11.523 -0.1171 -0.1399 -0.2092
60550SOL    HW193375   0.293  12.082  11.593 -0.5029 -0.8108  0.1685
60550SOL    HW293376   0.270  12.126  11.449  0.6054 -0.2071  0.1625
60551SOL     OW93377   8.506   2.080   2.461 -0.3781 -0.3349  0.3039
60551SOL    HW193378   8.571   2.085   2.532  0.0016  0.8854 -0.0978
60551SOL    HW293379   8.482   2.171   2.444  0.6448 -0.4224 -2.1120
60552SOL     OW93380  13.519   1.452  12.996 -0.0401  0.0735 -0.0831
60552SOL    HW193381  13.529   1.460  12.901  0.5711  0.4530  0.0117
60552SOL    HW293382  13.424   1.442  13.009 -0.1959  0.7165 -0.6797
60553SOL     OW93383   1.383  11.973   4.674 -0.2594  0.1978  0.8267
60553SOL    HW193384   1.369  12.034   4.602  0.9864  0.6627  0.9553
60553SOL    HW293385   1.428  12.024   4.741 -0.0046 -0.6230  1.3071
60554SOL     OW93386   3.971   5.713   0.493 -0.6811 -0.4045  0.5811
60554SOL    HW193387   4.047   5.656   0.486  0.0547  0.2686  2.4472
60554SOL    HW293388   3.898   5.659   0.464  0.5743 -0.7556 -2.2565
60555SOL     OW93389   7.409   7.994   0.060 -0.1025  0.5549  0.6130
60555SOL    HW193390   7.490   8.033   0.095  0.5486 -0.8513  0.7473
60555SOL    HW293391   7.413   7.903   0.089 -0.1495 -0.3660 -2.0843
60556SOL     OW93392   1.132   2.267   8.106  0.3197 -0.4272 -0.5357
60556SOL    HW193393   1.082   2.338   8.147  1.1585 -0.1791  0.0885
60556SOL    HW293394   1.104   2.188   8.154 -2.1702 -0.9133 -2.5876
60557SOL     OW93395  10.988   9.889   6.384  0.1036  0.0274  0.4471
60557SOL    HW193396  11.078   9.870   6.410  0.4099  0.8517  0.0138
60557SOL    HW293397  10.964   9.816   6.326  0.1609 -0.6829  1.2998
60558SOL     OW93398  10.919   5.626   5.722  0.6722  0.0712  0.0215
60558SOL    HW193399  10.863   5.549   5.736  1.4512 -0.7434 -1.1638
60558SOL    HW293400  10.869   5.698   5.760 -0.6284 -0.8246  0.1033
60559SOL     OW93401   3.172  10.704   3.636  0.1940  0.4276 -0.0868
60559SOL    HW193402   3.120  10.715   3.556  1.1193  0.6790 -0.6695
60559SOL    HW293403   3.108  10.686   3.704 -0.5348 -1.3335 -1.1601
60560SOL     OW93404   8.247   5.508   6.054 -0.4460  0.3717 -0.1054
60560SOL    HW193405   8.223   5.430   6.104  0.6082  0.0900 -0.0002
60560SOL    HW293406   8.171   5.527   6.000 -1.2430  0.1091  0.8997
60561SOL     OW93407   1.636  11.618   2.901  0.0326 -0.3990 -0.3985
60561SOL    HW193408   1.666  11.546   2.957  1.3093  0.7657  0.4741
60561SOL    HW293409   1.611  11.576   2.819  2.3993 -1.6869 -0.5421
60562SOL     OW93410  13.116   8.270  10.069  0.1578 -0.0138 -0.0706
60562SOL    HW193411  13.142   8.348  10.020 -1.5832 -0.6425 -2.1466
60562SOL    HW293412  13.039   8.298  10.119  0.9101  0.1670  1.0232
60563SOL     OW93413   8.834   5.289   6.510  0.3307  0.4045  0.1528
60563SOL    HW193414   8.753   5.286   6.457 -0.8676  0.3376  1.9169
60563SOL    HW293415   8.894   5.230   6.463 -1.1095 -0.6487 -0.4774
60564SOL     OW93416   1.551  13.173   3.419 -0.2401  0.0284  0.4165
60564SOL    HW193417   1.607  13.204   3.490  1.9854  1.3886 -1.7551
60564SOL    HW293418   1.509  13.094   3.454  2.0475 -0.3367  2.6607
60565SOL     OW93419   1.757   8.101   8.980 -0.1071 -0.1346  0.2646
60565SOL    HW193420   1.825   8.164   8.956 -0.0468 -0.1302  0.4439
60565SOL    HW293421   1.689   8.154   9.023 -0.4168 -0.0749 -0.2778
60566SOL     OW93422   0.683   7.428   1.129  0.4760  0.0334 -0.0061
60566SOL    HW193423   0.737   7.507   1.129 -0.0004  0.4025  2.0867
60566SOL    HW293424   0.707   7.382   1.209 -0.6918 -0.9514 -0.1919
60567SOL     OW93425   1.439  12.444   1.200 -0.9174 -0.1864  0.6105
60567SOL    HW193426   1.468  12.436   1.109  0.8266 -0.2993  1.1362
60567SOL    HW293427   1.364  12.504   1.196 -0.8646 -0.1762 -0.8876
60568SOL     OW93428   9.426  11.423   4.185  0.7422 -0.3747 -0.4902
60568SOL    HW193429   9.371  11.444   4.261  2.7814 -0.0316  0.9599
60568SOL    HW293430   9.367  11.377   4.125 -1.1890  0.2282  0.8394
60569SOL     OW93431   8.525   2.898   4.235 -0.2683  0.0188 -0.3718
60569SOL    HW193432   8.601   2.899   4.293  0.5239  1.2253 -1.3822
60569SOL    HW293433   8.482   2.982   4.249 -1.1250 -0.4375 -0.1969
60570SOL     OW93434   9.768   5.270   5.301 -0.0524  0.4055 -0.2306
60570SOL    HW193435   9.813   5.335   5.247  0.2939  1.3543  1.1443
60570SOL    HW293436   9.681   5.306   5.314 -0.6398 -0.5497 -1.3696
60571SOL     OW93437  13.434   1.610   1.916  0.0285 -0.0687  0.8316
60571SOL    HW193438  13.441   1.697   1.954 -1.0193 -0.2431  1.4852
60571SOL    HW293439  13.521   1.572   1.924  1.2749  1.8981 -2.0077
60572SOL     OW93440   1.540   8.638   6.976  0.3357  0.2975  0.5052
60572SOL    HW193441   1.465   8.679   6.933 -0.8387 -1.9991  0.2140
60572SOL    HW293442   1.562   8.563   6.921  0.8844 -0.8377  2.1769
60573SOL     OW93443   6.758   0.900   4.338 -0.4115  0.1273  0.2630
60573SOL    HW193444   6.681   0.942   4.376 -0.6968  1.1977 -1.3773
60573SOL    HW293445   6.810   0.971   4.302  1.0636 -0.6373  0.7971
60574SOL     OW93446   9.693   5.957   9.647 -0.3069  0.4756  0.3295
60574SOL    HW193447   9.648   5.898   9.708 -1.8721  2.9054  1.6775
60574SOL    HW293448   9.774   5.980   9.691 -1.3156  2.0175  1.5198
60575SOL     OW93449  12.992   3.899   4.757 -0.1020  0.2446  0.1795
60575SOL    HW193450  12.948   3.935   4.834 -1.0503  0.0691 -0.2528
60575SOL    HW293451  13.077   3.941   4.755 -0.0638  0.2339  1.3309
60576SOL     OW93452   6.258   3.443   6.847  0.0625  1.1103 -0.0816
60576SOL    HW193453   6.271   3.443   6.942  2.0844 -0.9902 -0.2799
60576SOL    HW293454   6.297   3.525   6.817  1.1236  0.9178  0.7244
60577SOL     OW93455   3.201   0.989   6.749  0.1967  0.8493  0.0893
60577SOL    HW193456   3.175   0.938   6.673  0.7196 -0.9868  1.0776
60577SOL    HW293457   3.296   0.980   6.753  0.0593 -0.5338  1.8479
60578SOL     OW93458   9.443  10.008   0.150  0.4633  0.0233 -0.3749
60578SOL    HW193459   9.399   9.931   0.186  0.5649  0.9244  1.7716
60578SOL    HW293460   9.400  10.022   0.065  0.1608 -2.1169 -0.6257
60579SOL     OW93461  12.431   4.885   7.615 -0.7360  0.0656 -0.0289
60579SOL    HW193462  12.500   4.843   7.564 -0.7869  0.9649 -0.8759
60579SOL    HW293463  12.412   4.824   7.686  1.7912  0.3305  0.9794
60580SOL     OW93464   2.300   0.422   1.790 -0.0885 -0.1877  0.7278
60580SOL    HW193465   2.242   0.497   1.797  0.0347 -0.0872  0.6769
60580SOL    HW293466   2.244   0.351   1.758  0.0715  0.2255 -0.5355
60581SOL     OW93467   9.869   8.243   0.070 -0.0637  0.0101  0.3899
60581SOL    HW193468   9.811   8.167   0.076 -1.2189  0.7861 -0.5480
60581SOL    HW293469   9.928   8.223  -0.002 -1.2592  0.5504 -0.7792
60582SOL     OW93470   0.807   8.759   9.385  0.4326  0.1740 -0.3932
60582SOL    HW193471   0.755   8.756   9.304 -0.8942  2.4844  0.2898
60582SOL    HW293472   0.755   8.709   9.448  0.7569 -0.3931 -0.5627
60583SOL     OW93473   4.942  12.216   8.177 -0.0817  0.5543 -0.1474
60583SOL    HW193474   4.902  12.143   8.222  0.2498  0.3754 -0.1428
60583SOL    HW293475   4.870  12.278   8.164 -0.7588 -0.4904 -1.6684
60584SOL     OW93476   2.487  12.989   6.400  0.4210  0.1535  0.2896
60584SOL    HW193477   2.514  13.021   6.486  1.4025 -0.1119  0.0918
60584SOL    HW293478   2.409  12.936   6.417  0.2785  0.5520  0.9351
60585SOL     OW93479  10.485   5.889   1.981  0.0449 -0.3387  0.2541
60585SOL    HW193480  10.438   5.952   2.036  0.1297  0.1913 -0.2683
60585SOL    HW293481  10.576   5.893   2.011  0.4665  1.2848 -1.0731
60586SOL     OW93482   9.213  13.415   2.934  0.1646  0.2370  0.1910
60586SOL    HW193483   9.201  13.393   2.842  0.3652  0.9908 -0.0200
60586SOL    HW293484   9.279  13.354   2.966 -1.4494 -1.4832  0.4082
60587SOL     OW93485   8.559  10.507   3.568  0.2505  0.5959 -0.2779
60587SOL    HW193486   8.597  10.425   3.597 -0.7411  0.1223 -0.2805
60587SOL    HW293487   8.629  10.550   3.519  1.4164  0.6723  1.4050
60588SOL     OW93488  12.652   8.466  10.320 -0.6186  0.2979  0.7714
60588SOL    HW193489  12.599   8.492  10.245  0.5682  1.3048  0.2317
60588SOL    HW293490  12.626   8.525  10.390 -0.6552  0.3730  0.6938
60589SOL     OW93491   5.971  12.470  10.782  0.6412 -0.4903 -0.1581
60589SOL    HW193492   6.013  12.527  10.846  0.3731  1.3306 -1.5305
60589SOL    HW293493   6.040  12.411  10.754  1.1286 -0.3712  0.7454
60590SOL     OW93494   6.633   8.462   6.962 -0.4238 -0.0906  0.1882
60590SOL    HW193495   6.559   8.521   6.977  0.1884  0.6300  0.5137
60590SOL    HW293496   6.710   8.519   6.971  0.2066 -1.0340  0.9447
60591SOL     OW93497   7.833   9.456   1.224  0.3014  0.1131  0.1509
60591SOL    HW193498   7.796   9.479   1.309  0.4548  0.8073  0.0321
60591SOL    HW293499   7.859   9.364   1.233  1.5915  0.5623  1.3138
60592SOL     OW93500   7.363   2.243   0.650  0.7206  0.1293  0.2066
60592SOL    HW193501   7.329   2.225   0.738 -3.1023 -0.1661 -1.1282
60592SOL    HW293502   7.362   2.157   0.607  0.0237  0.6467 -0.8481
60593SOL     OW93503   2.240   0.032   7.760 -0.3843 -0.0961  0.1014
60593SOL    HW193504   2.162   0.058   7.711 -1.0847 -1.3351  0.5190
60593SOL    HW293505   2.260   0.107   7.816 -0.7007  0.5978 -0.7038
60594SOL     OW93506   2.756   8.816  13.658  0.3002 -0.0866 -0.1217
60594SOL    HW193507   2.713   8.751  13.714 -0.3417 -0.0451 -0.5592
60594SOL    HW293508   2.846   8.819  13.690  0.2933 -1.0622  0.0297
60595SOL     OW93509   0.107  11.106   5.426  0.4746 -0.2974 -0.5134
60595SOL    HW193510   0.046  11.177   5.404 -0.4973 -0.7806  0.5609
60595SOL    HW293511   0.181  11.151   5.468 -0.3072  0.0639  0.5118
60596SOL     OW93512  13.535   9.356   9.803  0.2270 -0.1903 -0.1680
60596SOL    HW193513  13.501   9.377   9.890  1.2199  0.6202  0.0416
60596SOL    HW293514  13.626   9.330   9.819  0.5724  0.4614 -1.0008
60597SOL     OW93515   1.924   1.666   3.772  0.0816  0.0755 -0.2922
60597SOL    HW193516   2.001   1.664   3.829 -1.3905 -1.2265  1.8203
60597SOL    HW293517   1.850   1.675   3.832 -1.4159  4.3089 -2.3498
60598SOL     OW93518  10.765   6.565   7.139  0.7947  0.2103 -0.3912
60598SOL    HW193519  10.687   6.591   7.090  0.2966  1.2870  0.8997
60598SOL    HW293520  10.765   6.470   7.136 -1.5875  0.1011  1.0446
60599SOL     OW93521   7.026  10.822   9.175 -0.6438 -0.2356 -0.5006
60599SOL    HW193522   7.023  10.918   9.184  0.3277 -0.2371 -0.0845
60599SOL    HW293523   7.073  10.808   9.093  0.6071 -0.3654  0.2219
60600SOL     OW93524   3.653   8.752   3.091  0.0823  0.4237 -0.1891
60600SOL    HW193525   3.694   8.837   3.108  0.2270  0.4166 -0.4966
60600SOL    HW293526   3.721   8.688   3.110  0.5098  0.4470 -1.5491
60601SOL     OW93527   3.958   0.068  11.433 -0.4939 -0.5227 -0.1827
60601SOL    HW193528   3.958   0.000  11.501 -2.1451 -0.9997 -0.6239
60601SOL    HW293529   3.900   0.034  11.365 -2.5836  1.9140  0.2196
60602SOL     OW93530  11.682   8.217  10.825 -0.0507 -0.0518 -0.0540
60602SOL    HW193531  11.662   8.184  10.737 -0.9898  0.8584 -0.2047
60602SOL    HW293532  11.749   8.158  10.858 -0.4276 -1.0318 -0.9845
60603SOL     OW93533  13.015   3.293  12.276  0.1564 -0.3998 -0.4802
60603SOL    HW193534  12.933   3.341  12.270 -0.6079 -1.4648  0.9476
60603SOL    HW293535  13.075   3.353  12.319 -0.3226 -0.1479 -0.1545
60604SOL     OW93536   6.848   4.263   6.502 -0.3760  0.2285 -0.0185
60604SOL    HW193537   6.796   4.304   6.432 -1.0629 -3.3001 -1.7769
60604SOL    HW293538   6.808   4.295   6.583 -1.8905  1.6630 -1.2503
60605SOL     OW93539   4.077   7.974   4.816 -0.5037 -0.6202  0.0905
60605SOL    HW193540   4.125   7.892   4.823 -1.1073 -1.1709 -1.6782
60605SOL    HW293541   4.087   8.015   4.902  0.2692 -2.2759  0.8354
60606SOL     OW93542   0.795   4.884  10.134  0.6831  0.2423 -0.1272
60606SOL    HW193543   0.751   4.828  10.071  1.6189  0.0525 -0.6271
60606SOL    HW293544   0.758   4.858  10.219  0.2179 -0.2712 -0.4826
60607SOL     OW93545   4.271   8.989   7.641 -0.1606 -0.0100 -0.1895
60607SOL    HW193546   4.256   9.083   7.644  0.3082  0.0357  1.6275
60607SOL    HW293547   4.272   8.961   7.732  0.3363 -1.6766 -0.6606
60608SOL     OW93548  13.730   7.739  10.157 -0.0472  0.3544  0.5132
60608SOL    HW193549  13.688   7.820  10.186  0.0448  0.7641 -0.4774
60608SOL    HW293550  13.802   7.768  10.101  0.2109 -0.4073  0.4336
60609SOL     OW93551   3.516   0.077   3.999  0.3209 -0.0449 -1.1862
60609SOL    HW193552   3.465   0.071   3.919  0.8670  0.4208 -1.5769
60609SOL    HW293553   3.543  -0.013   4.018  0.8673 -0.0555 -1.9804
60610SOL     OW93554  12.842  11.073  12.670 -0.1616  0.2933 -0.6955
60610SOL    HW193555  12.901  11.010  12.628 -0.7693  0.7017 -2.2196
60610SOL    HW293556  12.847  11.051  12.763  1.7218 -0.2296 -0.8787
60611SOL     OW93557   0.572   8.399   6.600  0.4347 -0.0801  0.0479
60611SOL    HW193558   0.493   8.360   6.637  0.8747  0.2982  1.4554
60611SOL    HW293559   0.541   8.472   6.547 -0.4500 -2.4648 -3.0234
60612SOL     OW93560   4.771  10.622   6.718  0.5647  0.3068 -0.2472
60612SOL    HW193561   4.752  10.575   6.799  0.7532  0.0003 -0.3813
60612SOL    HW293562   4.799  10.555   6.657 -1.5040  0.2585 -1.1911
60613SOL     OW93563   5.486  10.461   8.430  0.4792  0.0938 -0.3773
60613SOL    HW193564   5.463  10.370   8.447 -1.3167  0.6201  0.2320
60613SOL    HW293565   5.440  10.511   8.498  0.9758  1.4950 -1.0272
60614SOL     OW93566   5.401  11.893   1.816 -0.4725 -0.2592 -0.3407
60614SOL    HW193567   5.421  11.962   1.753  1.9002 -0.9211 -0.3933
60614SOL    HW293568   5.338  11.837   1.771 -0.1864  0.2659 -1.4323
60615SOL     OW93569  13.434  13.239  13.473  0.2024 -0.3607 -0.0532
60615SOL    HW193570  13.400  13.241  13.384  0.0876  2.2568 -0.0390
60615SOL    HW293571  13.524  13.209  13.465  0.4312  0.5703 -1.1695
60616SOL     OW93572  13.027   8.646   4.063 -0.6608  0.6662 -0.2891
60616SOL    HW193573  12.957   8.682   4.008 -2.4281  1.1369  2.0833
60616SOL    HW293574  12.981   8.613   4.140  1.2817 -3.3908 -0.6260
60617SOL     OW93575   8.733  13.398   9.599 -1.0985  0.0501 -0.1916
60617SOL    HW193576   8.748  13.485   9.635 -1.5427 -0.0270  0.1867
60617SOL    HW293577   8.638  13.387   9.600 -1.1001 -0.0789 -1.0966
60618SOL     OW93578  10.208   4.824   3.887 -0.0118  0.4193 -0.1693
60618SOL    HW193579  10.290   4.776   3.899 -0.7546 -0.4670  1.7196
60618SOL    HW293580  10.141   4.756   3.883 -0.9215  1.2175  0.8779
60619SOL     OW93581   7.490   1.345   7.939  0.1919 -0.1560 -0.1023
60619SOL    HW193582   7.500   1.269   7.997  1.0921 -0.8776 -1.1737
60619SOL    HW293583   7.551   1.329   7.867 -0.4500  1.0234 -0.9454
60620SOL     OW93584   9.757   7.544   9.555 -0.3168 -0.1049  0.0806
60620SOL    HW193585   9.809   7.565   9.477 -0.1345  0.6053  0.3806
60620SOL    HW293586   9.745   7.628   9.599  2.0871 -0.8077  2.3601
60621SOL     OW93587  10.521   0.171   5.890 -0.9549  0.2921 -0.5638
60621SOL    HW193588  10.604   0.205   5.856 -0.3940  0.0417  0.4822
60621SOL    HW293589  10.474   0.141   5.813  0.3900 -0.5232 -1.1104
60622SOL     OW93590   9.403  12.528  13.265  0.2681  0.2797  0.2051
60622SOL    HW193591   9.406  12.523  13.361  0.4102 -1.2103  0.1394
60622SOL    HW293592   9.461  12.601  13.244 -0.8538  1.5533  1.2983
60623SOL     OW93593  11.991  13.453  11.358  0.4437 -0.1282 -0.6736
60623SOL    HW193594  12.025  13.540  11.339  2.4484 -0.5407  0.7150
60623SOL    HW293595  12.069  13.397  11.363 -0.1284 -0.9203  3.9752
60624SOL     OW93596   9.985  10.384  12.710  0.1873 -0.6152  0.0626
60624SOL    HW193597  10.025  10.439  12.643 -0.5491 -0.0796  0.0532
60624SOL    HW293598   9.923  10.442  12.755  1.5674 -0.5646  2.0769
60625SOL     OW93599   9.464  11.425   8.976  0.4532 -0.1562 -0.0628
60625SOL    HW193600   9.509  11.504   8.947  0.1168 -0.7141 -2.2727
60625SOL    HW293601   9.520  11.353   8.948 -0.8864 -0.7897 -1.2171
60626SOL     OW93602  12.260  11.102  12.775  0.3252  0.4587 -0.5081
60626SOL    HW193603  12.304  11.160  12.837 -0.8010  0.2788  0.5107
60626SOL    HW293604  12.256  11.017  12.820 -0.1154  0.2058 -1.0015
60627SOL     OW93605  13.544   3.264  10.714  0.2266 -0.0098  0.0113
60627SOL    HW193606  13.597   3.197  10.671 -0.9432 -0.5531 -0.6218
60627SOL    HW293607  13.588   3.279  10.798  0.9545 -0.9858 -0.1775
60628SOL     OW93608   5.271   6.685   6.975  0.2881  0.6534 -0.1851
60628SOL    HW193609   5.322   6.608   6.950 -0.5911  0.1263 -0.3941
60628SOL    HW293610   5.319   6.759   6.937  1.6849  0.3242  0.8504
60629SOL     OW93611   4.455   9.805   2.589 -0.3974  0.7947  0.2722
60629SOL    HW193612   4.491   9.873   2.646  1.8588 -0.6814  0.7672
60629SOL    HW293613   4.489   9.723   2.625 -1.0725 -0.4049 -1.6548
60630SOL     OW93614  11.181   0.653  11.714  0.0239  0.1322 -0.0729
60630SOL    HW193615  11.101   0.630  11.762  0.5698  0.7080  1.1812
60630SOL    HW293616  11.151   0.711  11.644 -0.8719 -1.2148 -0.8518
60631SOL     OW93617  11.493   0.418   8.232  0.4931  0.2955  0.4257
60631SOL    HW193618  11.587   0.432   8.219  1.0798 -1.8252  1.8304
60631SOL    HW293619  11.484   0.402   8.326 -1.1703 -0.3494  0.1957
60632SOL     OW93620   9.206   3.485   3.174 -0.1088  0.2927 -0.5597
60632SOL    HW193621   9.227   3.485   3.267  1.5201 -1.9460 -0.8343
60632SOL    HW293622   9.289   3.507   3.131 -0.6882  0.6821 -1.4928
60633SOL     OW93623  13.149  10.677   8.204 -0.9125  0.3252  0.1888
60633SOL    HW193624  13.180  10.608   8.146 -0.9169 -0.2732  0.8905
60633SOL    HW293625  13.168  10.758   8.157  0.7592 -0.0688  0.1419
60634SOL     OW93626   6.091   0.914   6.316  0.5693 -0.1405 -0.0691
60634SOL    HW193627   6.051   0.880   6.237 -0.7810 -0.7302  0.8309
60634SOL    HW293628   6.137   0.839   6.354 -0.6111 -0.4466  0.8077
60635SOL     OW93629   1.208   1.484   5.554  0.2267 -0.1734  0.4052
60635SOL    HW193630   1.272   1.469   5.623  0.4029 -0.7455  0.1205
60635SOL    HW293631   1.259   1.523   5.483  0.2880 -0.7395  0.1335
60636SOL     OW93632   8.249   1.932  12.571  0.2027 -0.8286 -0.4398
60636SOL    HW193633   8.234   1.838  12.583 -0.1616 -0.6803  0.3280
60636SOL    HW293634   8.287   1.961  12.653 -0.6593 -0.1130 -0.2761
60637SOL     OW93635   3.465   5.773   8.331 -0.6049  0.3298  0.0600
60637SOL    HW193636   3.512   5.737   8.255 -2.1289 -1.3839 -0.1323
60637SOL    HW293637   3.387   5.812   8.294 -1.2258 -0.2812  0.7012
60638SOL     OW93638   8.591   5.667   0.809 -0.2449 -0.1332  0.3622
60638SOL    HW193639   8.644   5.731   0.764  0.1067  0.2378  1.2797
60638SOL    HW293640   8.550   5.715   0.882 -0.5432 -0.7759  0.6372
60639SOL     OW93641  12.930   2.146  11.444 -0.4157 -0.1052 -0.0445
60639SOL    HW193642  12.884   2.230  11.444  1.3085  0.9265  1.7217
60639SOL    HW293643  12.963   2.136  11.355  0.3264  1.6981 -0.0058
60640SOL     OW93644  10.525   4.971   6.316  0.6914  0.6936 -0.1772
60640SOL    HW193645  10.505   4.878   6.320  0.6641  0.7255  1.0410
60640SOL    HW293646  10.585   4.986   6.389  3.2659  1.0766 -2.2364
60641SOL     OW93647   5.176  11.725   4.085  0.5910  0.6800 -0.3439
60641SOL    HW193648   5.100  11.735   4.027 -0.2779 -1.2173  0.3685
60641SOL    HW293649   5.146  11.761   4.169  0.5534  0.1733 -0.1347
60642SOL     OW93650   6.553   2.401   0.647  0.5767  0.3198  0.0434
60642SOL    HW193651   6.479   2.460   0.633  0.2357 -0.2475 -0.5966
60642SOL    HW293652   6.582   2.378   0.559  1.6988  0.7458  0.2774
60643SOL     OW93653  12.671  12.108   4.641 -0.4911  0.4711  0.4073
60643SOL    HW193654  12.760  12.084   4.666 -0.5214  1.6800  1.8093
60643SOL    HW293655  12.663  12.200   4.666 -1.1565  1.3161 -2.5523
60644SOL     OW93656   7.842   5.679   9.832 -0.4795 -0.2199 -0.2536
60644SOL    HW193657   7.784   5.629   9.776  0.1091  0.8876 -1.9157
60644SOL    HW293658   7.854   5.762   9.787  1.7348 -0.0972  0.4259
60645SOL     OW93659  12.223   8.297   7.743  0.1029 -0.1001 -0.4964
60645SOL    HW193660  12.182   8.380   7.716  0.5628  0.0496 -0.7351
60645SOL    HW293661  12.305   8.323   7.783 -0.5118 -0.3320  0.9618
60646SOL     OW93662  13.165   1.740  11.741 -0.5761 -0.4715 -0.3437
60646SOL    HW193663  13.122   1.763  11.824 -0.5394 -1.0065 -0.1739
60646SOL    HW293664  13.252   1.711  11.767 -0.8408 -1.4208 -0.4871
60647SOL     OW93665   8.386   5.193   9.049  0.1217 -0.2431 -0.0979
60647SOL    HW193666   8.453   5.180   9.116  0.3421 -0.6426 -0.3911
60647SOL    HW293667   8.385   5.288   9.034  0.2303 -0.1763  0.3009
60648SOL     OW93668  10.590   6.331  13.028  0.6785 -0.5298 -0.6548
60648SOL    HW193669  10.575   6.417  13.068 -1.1009  0.0557 -2.3974
60648SOL    HW293670  10.644   6.350  12.952 -0.3016 -0.8274 -1.4370
60649SOL     OW93671  10.020   9.702  12.618  0.5016 -0.0025  0.3548
60649SOL    HW193672  10.074   9.775  12.589 -1.0033  1.5959  1.3812
60649SOL    HW293673  10.070   9.624  12.593  2.5737  1.3559 -0.0130
60650SOL     OW93674  11.854   9.965   4.006 -0.3129 -0.1546 -0.1498
60650SOL    HW193675  11.931   9.958   3.949 -0.5752 -1.0272 -0.4128
60650SOL    HW293676  11.791   9.904   3.968 -0.5708 -0.5968  0.9579
60651SOL     OW93677   3.770   8.484   6.094 -0.4009 -0.4979 -0.0051
60651SOL    HW193678   3.864   8.465   6.091  0.1546  2.0539 -2.0481
60651SOL    HW293679   3.751   8.495   6.188  1.5001 -0.4219  0.4115
60652SOL     OW93680  11.762   2.991   5.536 -0.2226 -0.1369 -0.1596
60652SOL    HW193681  11.667   3.006   5.530 -0.2393 -0.2318 -0.1248
60652SOL    HW293682  11.796   3.019   5.451 -0.2988 -0.2336 -0.2224
60653SOL     OW93683   3.062   0.775  11.362  0.4446 -0.0159 -0.0524
60653SOL    HW193684   3.079   0.733  11.278  1.7713 -0.5782  0.4779
60653SOL    HW293685   3.036   0.704  11.420 -0.0555  0.3128  0.1346
60654SOL     OW93686  13.489   4.730  10.951  0.3281 -0.1910 -0.1922
60654SOL    HW193687  13.483   4.674  11.028  0.8929  0.2144  0.1551
60654SOL    HW293688  13.528   4.674  10.884 -0.5952 -0.6819 -0.3283
60655SOL     OW93689   8.268   5.640   8.086  0.3207  0.3000  0.4079
60655SOL    HW193690   8.308   5.727   8.092  0.2150  0.3749  0.0806
60655SOL    HW293691   8.326   5.592   8.027 -0.3472  0.5716 -0.4849
60656SOL     OW93692   7.384   9.130   0.943  0.2569  0.1550 -0.1710
60656SOL    HW193693   7.370   9.194   0.873 -2.0089  0.5462  0.5855
60656SOL    HW293694   7.357   9.175   1.023  0.9162 -0.9572  0.7106
60657SOL     OW93695  11.651   4.859   8.040  0.1225  0.6553 -0.1984
60657SOL    HW193696  11.662   4.764   8.044  0.2356  0.6483 -0.6302
60657SOL    HW293697  11.569   4.876   8.087 -0.4623  0.2317 -1.0410
60658SOL     OW93698   6.422   6.782   6.246 -0.0437 -0.0632  0.2652
60658SOL    HW193699   6.410   6.840   6.171  1.6307  1.1533  0.8889
60658SOL    HW293700   6.514   6.755   6.243 -0.7019 -2.6055  0.1110
60659SOL     OW93701   9.348   2.635   7.211 -1.0881 -0.8422  0.4696
60659SOL    HW193702   9.393   2.695   7.270 -0.8483  0.5133 -1.0291
60659SOL    HW293703   9.380   2.657   7.124 -3.1496 -1.1909 -0.4511
60660SOL     OW93704  11.725   3.690  11.279  0.1526  0.2530 -0.1825
60660SOL    HW193705  11.679   3.699  11.362  0.4485 -0.8309  0.1059
60660SOL    HW293706  11.665   3.641  11.223 -0.2284  1.3488 -0.7750
60661SOL     OW93707   3.699   0.488   3.312  0.0821 -0.3396 -0.4531
60661SOL    HW193708   3.757   0.550   3.269  1.4149 -0.0228  1.6934
60661SOL    HW293709   3.736   0.402   3.291  1.8421 -0.1229  1.4466
60662SOL     OW93710   5.826   4.575   2.866  0.2258  0.1968 -0.2216
60662SOL    HW193711   5.887   4.501   2.861 -0.8492 -0.6473 -1.2568
60662SOL    HW293712   5.850   4.619   2.948  1.5460 -0.6996 -0.0843
60663SOL     OW93713   8.677   3.103   7.873 -0.2038 -0.1438 -0.2038
60663SOL    HW193714   8.638   3.191   7.869  0.0231 -0.0786 -1.7709
60663SOL    HW293715   8.771   3.119   7.871 -0.1652 -0.4199 -0.8502
60664SOL     OW93716   2.203   4.216   0.040 -0.3082 -0.1396 -0.1156
60664SOL    HW193717   2.199   4.120   0.043  2.1804 -0.4770 -3.0914
60664SOL    HW293718   2.285   4.238   0.083  0.1689  0.4405 -1.2752
60665SOL     OW93719   8.149   3.290   1.790  0.2536  0.0256 -0.1083
60665SOL    HW193720   8.119   3.199   1.785  1.3261 -0.3435 -0.0048
60665SOL    HW293721   8.228   3.292   1.735  1.9083  0.1949  2.1431
60666SOL     OW93722  10.544   7.413   2.392 -0.3607  0.4088 -0.4062
60666SOL    HW193723  10.450   7.430   2.399 -0.3175  0.7469 -0.6007
60666SOL    HW293724  10.585   7.498   2.408 -0.1102  0.3760 -0.8497
60667SOL     OW93725  12.581   6.903   9.005 -0.6852 -0.4785  0.5082
60667SOL    HW193726  12.658   6.854   9.035  0.3033  1.0222  0.5184
60667SOL    HW293727  12.556   6.956   9.080 -0.2055  0.8672 -0.2567
60668SOL     OW93728   9.446   6.755   9.185 -0.4472 -0.1772 -0.1177
60668SOL    HW193729   9.379   6.807   9.229 -2.5647 -2.4835 -0.3653
60668SOL    HW293730   9.458   6.678   9.242  3.3673  0.8940  0.8190
60669SOL     OW93731  10.886   5.305   7.028  0.3676  0.1259 -0.0925
60669SOL    HW193732  10.915   5.348   7.108 -0.6375  0.3341  0.1839
60669SOL    HW293733  10.961   5.255   6.997  1.3083  1.4244  0.0400
60670SOL     OW93734   3.336   8.880   5.463 -0.5243  0.0583  0.2667
60670SOL    HW193735   3.296   8.912   5.545 -1.4980  1.0545 -0.5543
60670SOL    HW293736   3.314   8.948   5.399 -0.6145 -1.1674 -1.0343
60671SOL     OW93737   7.693  11.040   7.013 -0.1277 -0.3868  0.0727
60671SOL    HW193738   7.695  11.096   6.935 -0.0409  0.3862  0.6185
60671SOL    HW293739   7.718  10.954   6.981 -3.0379 -0.8381 -1.3241
60672SOL     OW93740   3.333   8.393   6.901  0.3278 -0.1723 -0.5223
60672SOL    HW193741   3.254   8.414   6.950  1.2842  1.0763  0.5830
60672SOL    HW293742   3.319   8.305   6.868 -2.0355  0.4880 -1.4778
60673SOL     OW93743   7.436   7.586  12.850 -0.4148  0.3563  0.3916
60673SOL    HW193744   7.422   7.550  12.937 -1.8969  0.0147  0.0350
60673SOL    HW293745   7.402   7.520  12.790 -0.8616  1.2610 -0.3807
60674SOL     OW93746  10.677  13.713   5.041  0.6763 -0.5422  0.0740
60674SOL    HW193747  10.582  13.725   5.041  0.5304 -1.5929  0.3601
60674SOL    HW293748  10.699  13.705   4.948  0.7205  1.2781 -0.1027
60675SOL     OW93749   0.227   5.771   5.197  0.0160 -0.3389  0.3880
60675SOL    HW193750   0.241   5.676   5.192  2.6088 -0.2380  2.9455
60675SOL    HW293751   0.230   5.800   5.106  0.8594 -2.5309 -0.3584
60676SOL     OW93752   4.687  12.617  11.325  0.0139 -0.0616  0.2406
60676SOL    HW193753   4.736  12.659  11.254 -0.2810 -0.9575 -0.5103
60676SOL    HW293754   4.697  12.676  11.399  1.4695  0.2309 -0.1607
60677SOL     OW93755   9.700   4.938   3.951  0.9157  0.5133 -0.3093
60677SOL    HW193756   9.720   5.031   3.939 -0.0295  0.8851  0.7213
60677SOL    HW293757   9.628   4.922   3.890  1.9279  0.1039 -1.4249
60678SOL     OW93758   8.758   7.487   1.485  0.1479 -0.3548 -0.5180
60678SOL    HW193759   8.756   7.392   1.480 -2.0124 -0.4567  0.8163
60678SOL    HW293760   8.759   7.516   1.394  1.2955 -1.6167 -0.9379
60679SOL     OW93761   9.001   8.030   4.432 -0.1747 -0.0626  0.6255
60679SOL    HW193762   9.038   8.002   4.348  0.8616  1.5273  0.5085
60679SOL    HW293763   9.074   8.022   4.494 -0.7111 -0.4866  1.2068
60680SOL     OW93764  13.336   7.622   2.385  0.5546 -0.3223  0.4904
60680SOL    HW193765  13.346   7.558   2.456 -0.3958  0.6209  1.5041
60680SOL    HW293766  13.403   7.597   2.321 -0.2697 -2.7841  0.5023
60681SOL     OW93767   2.409   1.723   2.073 -0.2691  0.1171  0.0240
60681SOL    HW193768   2.315   1.738   2.061 -0.2069  0.1740 -0.4396
60681SOL    HW293769   2.423   1.635   2.037 -0.0764  0.2752 -0.2911
60682SOL     OW93770   6.722   0.758   6.032 -0.0064  0.3431  0.0112
60682SOL    HW193771   6.714   0.820   6.105 -1.2987  0.6553 -0.3674
60682SOL    HW293772   6.669   0.683   6.058  1.0752 -0.3696  0.2076
60683SOL     OW93773  10.078   4.665  13.541 -0.4656 -0.0392  0.0956
60683SOL    HW193774  10.159   4.644  13.586 -0.3217  1.8118  0.8292
60683SOL    HW293775  10.023   4.706  13.609 -2.1523 -1.5374 -0.3003
60684SOL     OW93776   6.759  10.365   4.273 -0.1811 -0.4504  1.0626
60684SOL    HW193777   6.690  10.302   4.254 -0.3582  0.1101 -0.2760
60684SOL    HW293778   6.770  10.361   4.368 -2.3913 -0.2070  1.3777
60685SOL     OW93779   4.697   2.258   1.144  0.2455  0.4330 -0.4952
60685SOL    HW193780   4.712   2.164   1.139 -0.0163  0.3711 -0.1363
60685SOL    HW293781   4.785   2.296   1.142  0.4152  0.1258  0.4335
60686SOL     OW93782   7.208   7.246  11.182  0.4743 -0.1333  0.6950
60686SOL    HW193783   7.278   7.294  11.137  1.9803  0.2479  3.2217
60686SOL    HW293784   7.185   7.175  11.122  1.6253  0.8853 -1.0555
60687SOL     OW93785   3.058   9.952  12.061  0.4219 -0.0700  0.0906
60687SOL    HW193786   3.029   9.926  11.973  0.0501 -2.2271  0.7925
60687SOL    HW293787   3.152   9.936  12.060  0.6778  1.2933 -0.3236
60688SOL     OW93788   2.918  12.450  11.223 -0.3131 -0.4833 -0.0631
60688SOL    HW193789   2.896  12.476  11.134 -1.6708  0.3551  0.4815
60688SOL    HW293790   3.005  12.412  11.217  0.0200  0.4597 -1.5809
60689SOL     OW93791   5.743   7.296   4.041 -0.0032  0.1894 -0.7004
60689SOL    HW193792   5.661   7.344   4.051 -0.4736 -0.7920  0.3995
60689SOL    HW293793   5.760   7.260   4.128  0.5675 -1.2493 -1.3728
60690SOL     OW93794  13.005  10.218   5.388 -0.2883  0.7419  0.1757
60690SOL    HW193795  13.055  10.169   5.323 -2.7557 -2.4466  0.4244
60690SOL    HW293796  12.963  10.288   5.339 -1.5069 -1.1523 -1.6428
60691SOL     OW93797   7.866   9.575   2.500  0.1164  0.8023 -0.2556
60691SOL    HW193798   7.789   9.633   2.501 -0.0140  0.6683 -1.4724
60691SOL    HW293799   7.930   9.621   2.554 -0.7627  0.9844  0.6659
60692SOL     OW93800  13.674   5.134   6.594 -0.0104 -0.6479  0.0414
60692SOL    HW193801  13.635   5.111   6.679  1.9029 -1.6155  0.7167
60692SOL    HW293802  13.728   5.210   6.613 -0.1433 -0.4196 -0.4878
60693SOL     OW93803  11.165   0.327  10.405 -1.0233  0.1328  0.1209
60693SOL    HW193804  11.144   0.420  10.418  1.5657  0.8126  0.0342
60693SOL    HW293805  11.230   0.308  10.472 -1.6666 -1.7198  0.2638
60694SOL     OW93806  11.069   7.345   6.333  0.3423  0.4434 -0.5125
60694SOL    HW193807  10.985   7.300   6.325 -0.4111  1.8141 -0.7995
60694SOL    HW293808  11.121   7.312   6.260 -0.3119  0.2874 -0.9161
60695SOL     OW93809  10.308  11.099   5.706 -0.1703 -0.4170 -0.0305
60695SOL    HW193810  10.396  11.064   5.719  0.7204  1.5278 -0.4519
60695SOL    HW293811  10.322  11.184   5.663 -2.2620 -0.1374 -0.2653
60696SOL     OW93812   7.387  10.999  11.463 -0.2731  0.1020  0.0687
60696SOL    HW193813   7.313  10.956  11.421  0.1126 -0.4269 -0.0855
60696SOL    HW293814   7.464  10.951  11.431 -0.0417 -1.2649  2.4061
60697SOL     OW93815   5.565   8.831   5.200  0.0844 -0.2187 -0.1836
60697SOL    HW193816   5.481   8.852   5.160  0.0311  2.0531  0.9545
60697SOL    HW293817   5.546   8.758   5.258 -1.2600  0.6464  0.5098
60698SOL     OW93818   2.153   9.482   5.501  0.0228  0.7992  0.3025
60698SOL    HW193819   2.099   9.451   5.574  1.5096  0.9539  1.5183
60698SOL    HW293820   2.164   9.575   5.517  0.9839  0.6913  0.3180
60699SOL     OW93821   7.604   0.355   2.363 -0.0482  0.0305  0.2318
60699SOL    HW193822   7.589   0.263   2.385 -1.2411 -0.1795 -1.2583
60699SOL    HW293823   7.532   0.402   2.406 -0.3734  0.0521 -0.3281
60700SOL     OW93824  10.406   0.351  12.760  0.2567 -0.1551 -0.1561
60700SOL    HW193825  10.390   0.441  12.731  2.0625  0.1966 -0.2138
60700SOL    HW293826  10.361   0.344  12.844  1.0852  1.2329  0.4521
60701SOL     OW93827   4.888  12.823   4.898 -0.2497  0.1618  0.3356
60701SOL    HW193828   4.944  12.891   4.862  1.2815 -1.5155 -0.6503
60701SOL    HW293829   4.903  12.826   4.992  0.8009  0.3623  0.1712
60702SOL     OW93830   5.146   7.472  10.635 -0.9578 -0.2094 -0.3279
60702SOL    HW193831   5.100   7.451  10.554 -0.3890  1.0977 -1.0069
60702SOL    HW293832   5.134   7.566  10.647 -0.3263 -0.2390  0.6561
60703SOL     OW93833  12.884   8.339  13.388 -0.3746  0.2980  0.4984
60703SOL    HW193834  12.911   8.381  13.470 -0.4443  0.0372  0.6567
60703SOL    HW293835  12.838   8.260  13.416  0.9660 -0.6300  0.1977
60704SOL     OW93836  12.289  13.270  11.938 -0.1660  0.1663  0.0438
60704SOL    HW193837  12.373  13.313  11.954  0.3586 -0.1425 -1.6881
60704SOL    HW293838  12.310  13.176  11.938 -0.5858  0.0694 -0.0231
60705SOL     OW93839  11.037   6.111   0.540 -0.2206 -0.5826 -0.0505
60705SOL    HW193840  11.090   6.057   0.600  0.4999 -0.0767 -0.2127
60705SOL    HW293841  11.098   6.179   0.510 -0.1401 -1.6191 -2.4676
60706SOL     OW93842   9.642   0.537   1.066 -0.4150 -0.1879  0.7607
60706SOL    HW193843   9.715   0.597   1.087 -0.0899 -1.2758  3.0355
60706SOL    HW293844   9.564   0.592   1.072  0.1310  1.1085 -2.1521
60707SOL     OW93845   9.949  11.662  12.399 -0.4799  0.8551  0.0740
60707SOL    HW193846  10.011  11.671  12.327 -0.5250 -0.0482 -0.0862
60707SOL    HW293847   9.995  11.697  12.475 -0.9562  3.1912 -0.6394
60708SOL     OW93848   0.027   3.021  11.976  0.2485 -0.1407 -0.3489
60708SOL    HW193849   0.080   3.101  11.980 -0.9799  0.7088 -0.2432
60708SOL    HW293850  -0.037   3.031  12.047 -1.9643  0.3414 -2.2573
60709SOL     OW93851   9.022   9.874   0.134 -0.0387 -0.4189  0.9510
60709SOL    HW193852   9.012   9.952   0.080  1.4618 -0.4909  0.5312
60709SOL    HW293853   8.933   9.854   0.164 -0.8974 -0.1956 -1.2215
60710SOL     OW93854   4.731   1.388  11.548 -0.0442  0.2690 -0.1261
60710SOL    HW193855   4.807   1.398  11.606 -1.4824 -0.0032  1.9113
60710SOL    HW293856   4.769   1.358  11.465  2.0623  0.0097  0.8440
60711SOL     OW93857   6.033   6.138   6.867 -0.1282 -0.1538 -0.5158
60711SOL    HW193858   6.085   6.099   6.797 -1.1962 -1.0066 -0.8504
60711SOL    HW293859   5.984   6.209   6.825 -0.9851 -0.8477 -0.7151
60712SOL     OW93860   6.412   2.565   4.289  0.6491 -0.2819 -0.0374
60712SOL    HW193861   6.336   2.537   4.239  1.1524 -0.8982 -0.4705
60712SOL    HW293862   6.439   2.647   4.248  0.0662  0.0845  0.2902
60713SOL     OW93863   9.655  11.849   3.442  0.1057  0.0995  0.1327
60713SOL    HW193864   9.599  11.780   3.475 -0.5121  1.2831  1.6871
60713SOL    HW293865   9.738  11.837   3.488  0.2086  0.0330 -0.0672
60714SOL     OW93866   9.975   5.647   1.837 -0.3175  0.2176 -0.2787
60714SOL    HW193867   9.931   5.732   1.825  1.2901  1.1328  0.0252
60714SOL    HW293868  10.065   5.670   1.862 -0.7067 -1.5489  3.3084
60715SOL     OW93869   4.922   9.095   8.018 -0.4602  0.0309  0.3379
60715SOL    HW193870   4.962   9.182   8.005  0.0913 -0.6451 -3.6035
60715SOL    HW293871   4.828   9.113   8.023 -0.4445  0.8594 -1.4686
60716SOL     OW93872   9.207  10.875   9.616 -1.0761 -0.7859 -0.3297
60716SOL    HW193873   9.229  10.825   9.695 -1.1375  2.2185  1.7384
60716SOL    HW293874   9.115  10.898   9.627 -1.1966 -0.6512 -1.4995
60717SOL     OW93875   8.385   7.673  11.438  0.3352 -0.0815  0.0041
60717SOL    HW193876   8.465   7.684  11.387 -0.8351 -0.8100 -2.0985
60717SOL    HW293877   8.415   7.671  11.529  2.4450  1.9302 -0.5483
60718SOL     OW93878   1.654   8.367   5.137  0.0795  0.2925  0.1734
60718SOL    HW193879   1.641   8.456   5.103  1.2996  0.1314 -0.7966
60718SOL    HW293880   1.646   8.311   5.059 -3.1694 -0.7712  1.1045
60719SOL     OW93881   2.381   3.425   4.043  0.4561 -0.3441 -0.0325
60719SOL    HW193882   2.313   3.437   3.977 -0.0645 -0.7525  0.4306
60719SOL    HW293883   2.409   3.334   4.032 -0.1257 -0.6280  0.7739
60720SOL     OW93884  12.059   0.299   2.429  0.0218  0.1481  0.0352
60720SOL    HW193885  11.999   0.241   2.382 -0.0745  0.2063  0.0864
60720SOL    HW293886  12.146   0.267   2.406 -0.0352 -0.1833  0.2754
60721SOL     OW93887  13.461   0.966   9.855  0.0438 -0.1979 -0.0086
60721SOL    HW193888  13.505   0.945   9.938 -0.6810  0.0037  0.4332
60721SOL    HW293889  13.427   1.054   9.868 -0.5926 -0.3992 -0.3027
60722SOL     OW93890  12.810   0.325   1.570 -0.3976  0.3365 -0.0562
60722SOL    HW193891  12.782   0.248   1.619 -0.3885  1.0256  1.0562
60722SOL    HW293892  12.870   0.291   1.504 -0.2392 -0.5798  0.5439
60723SOL     OW93893  12.645   8.425   4.346 -0.2251 -0.0279  0.2999
60723SOL    HW193894  12.587   8.352   4.325 -0.7481  0.6648 -0.8343
60723SOL    HW293895  12.586   8.501   4.352  0.5069  0.6452 -0.6250
60724SOL     OW93896  10.761  11.508   1.955 -0.0065  0.1814  0.1644
60724SOL    HW193897  10.677  11.466   1.933 -0.5832  0.8835  0.9326
60724SOL    HW293898  10.762  11.509   2.051  0.4406  1.0235  0.1582
60725SOL     OW93899   4.726   3.324   6.586  0.0232  0.1503  0.4247
60725SOL    HW193900   4.676   3.387   6.533 -2.0525 -2.3302 -0.7816
60725SOL    HW293901   4.694   3.338   6.675  0.9241  1.9436  0.5180
60726SOL     OW93902   0.151   3.488   3.191  1.0095 -0.0263 -0.0630
60726SOL    HW193903   0.188   3.493   3.279 -0.3018 -1.1001  0.5748
60726SOL    HW293904   0.129   3.396   3.179  0.0590  0.3123 -1.0589
60727SOL     OW93905   1.453   4.707   1.822 -0.1961 -0.3738 -0.0663
60727SOL    HW193906   1.548   4.715   1.823 -0.3725  3.3206  1.1497
60727SOL    HW293907   1.431   4.698   1.730  1.3044 -3.2677 -0.2703
60728SOL     OW93908   7.959  11.470   6.640 -0.3848  0.2499  0.4454
60728SOL    HW193909   7.993  11.382   6.658 -0.4217  0.0300 -0.5232
60728SOL    HW293910   7.890  11.457   6.576  1.0562  1.1786 -1.3948
60729SOL     OW93911   4.625   2.501   9.585 -0.0328 -0.1605  0.0454
60729SOL    HW193912   4.530   2.495   9.595  0.1044 -0.3961  1.4758
60729SOL    HW293913   4.644   2.595   9.586 -0.1036 -0.1271  1.8001
60730SOL     OW93914   6.620  13.688   5.240  0.8555 -0.4249 -0.1978
60730SOL    HW193915   6.666  13.741   5.306  0.4853 -0.6819  0.2772
60730SOL    HW293916   6.599  13.606   5.286 -0.4040 -0.1711 -0.2849
60731SOL     OW93917   7.447  12.259  10.043 -0.2183  0.1981  0.0172
60731SOL    HW193918   7.381  12.205  10.000  0.2343  0.2707 -0.7942
60731SOL    HW293919   7.476  12.207  10.118 -0.6954 -0.1305 -0.0230
60732SOL     OW93920   0.163   3.511   4.596  0.8422 -0.1974  0.0611
60732SOL    HW193921   0.105   3.557   4.657  0.9366 -1.5791  1.2553
60732SOL    HW293922   0.205   3.581   4.545 -1.6695  0.8534 -0.7000
60733SOL     OW93923   4.675  11.487   2.532  0.0475 -0.4131  0.3002
60733SOL    HW193924   4.689  11.464   2.623  0.7963  5.0199  1.8791
60733SOL    HW293925   4.581  11.505   2.526 -0.3642 -2.5227 -0.6621
60734SOL     OW93926   1.392   5.992   8.177 -0.3773 -0.1914  0.5039
60734SOL    HW193927   1.375   5.898   8.182  2.1272 -0.8019 -0.8533
60734SOL    HW293928   1.305   6.032   8.182 -1.7606 -2.6856 -1.3222
60735SOL     OW93929   8.577  13.730   0.494  0.0659 -0.1983  0.0664
60735SOL    HW193930   8.492  13.718   0.535 -0.4899 -0.5692 -1.1509
60735SOL    HW293931   8.562  13.711   0.402  1.3822  0.1343 -0.2361
60736SOL     OW93932  10.158   3.305   6.717 -0.3969 -0.2620 -0.3627
60736SOL    HW193933  10.248   3.332   6.699 -0.1590 -1.1533 -0.5596
60736SOL    HW293934  10.167   3.227   6.772 -1.0759  0.6653  1.1287
60737SOL     OW93935   5.203   2.190   6.164 -0.4421  0.0445  0.2137
60737SOL    HW193936   5.175   2.212   6.076  0.2427  0.4161  0.0776
60737SOL    HW293937   5.153   2.250   6.220  0.8129  1.4479 -0.1001
60738SOL     OW93938   4.150   3.445   9.310 -0.6339 -0.1265 -0.3914
60738SOL    HW193939   4.219   3.487   9.259  0.7593 -1.6384  0.1418
60738SOL    HW293940   4.155   3.486   9.396 -0.6780  0.0489 -0.4725
60739SOL     OW93941   8.959   6.467  11.938  0.6378  0.7029  0.2098
60739SOL    HW193942   8.983   6.406  12.008  1.7878  0.9202  0.0140
60739SOL    HW293943   9.029   6.459  11.873 -0.7066  0.0433 -1.2399
60740SOL     OW93944   5.025  13.146   3.692 -0.3432 -0.0627 -0.1238
60740SOL    HW193945   4.973  13.140   3.772  1.5134  1.1465  1.2550
60740SOL    HW293946   5.115  13.126   3.719  0.1406 -0.9978 -2.1970
60741SOL     OW93947   1.172   2.141  12.555  0.3226  0.1941  0.2450
60741SOL    HW193948   1.256   2.124  12.598  0.5878  2.3891  0.7252
60741SOL    HW293949   1.173   2.235  12.538 -1.3716 -0.0107 -1.2202
60742SOL     OW93950   9.283   5.410   1.636  0.5384  0.3304 -0.4837
60742SOL    HW193951   9.232   5.418   1.555 -1.4525 -2.7127  0.2792
60742SOL    HW293952   9.348   5.342   1.617 -0.7955 -1.3699  0.7417
60743SOL     OW93953   0.458  12.023   5.590  0.2089 -0.7359 -0.7105
60743SOL    HW193954   0.415  12.019   5.676  0.8234 -1.0526 -0.4058
60743SOL    HW293955   0.402  12.079   5.537 -1.5441 -2.5315 -0.8786
60744SOL     OW93956  13.232   1.911  11.495  0.3266 -0.0494 -0.2826
60744SOL    HW193957  13.249   1.970  11.421  0.7670  2.9918  2.0260
60744SOL    HW293958  13.310   1.919  11.550 -0.5012 -1.2042  1.1322
60745SOL     OW93959   3.414   0.329   3.274 -0.0431  0.0586  0.1346
60745SOL    HW193960   3.406   0.385   3.197  0.2848 -0.3034 -0.1686
60745SOL    HW293961   3.508   0.328   3.293 -0.0565 -0.2986  0.1994
60746SOL     OW93962  13.739   8.840   9.244 -0.1664  0.3453  0.9330
60746SOL    HW193963  13.813   8.889   9.279  0.4393  0.4682 -0.4275
60746SOL    HW293964  13.665   8.901   9.247  0.2420  0.8608  0.5798
60747SOL     OW93965   4.242  13.434   1.856  0.3008 -0.0693 -0.5157
60747SOL    HW193966   4.205  13.376   1.788 -2.6245 -1.4219  1.9517
60747SOL    HW293967   4.174  13.500   1.870  1.1214  0.5581  0.6678
60748SOL     OW93968   2.030   9.540   2.524 -0.3673 -0.2763  0.3141
60748SOL    HW193969   2.064   9.589   2.448 -1.5261  2.4844  1.4570
60748SOL    HW293970   2.107   9.526   2.579  0.0892 -0.2630 -0.3073
60749SOL     OW93971  13.421  12.714   0.097 -0.0898 -0.1875  0.0172
60749SOL    HW193972  13.378  12.702   0.013 -2.3591  0.9351  0.9452
60749SOL    HW293973  13.390  12.641   0.151 -0.6853  0.5109  0.6348
60750SOL     OW93974   9.435   5.944  13.679 -0.2743 -0.0658 -0.1529
60750SOL    HW193975   9.516   5.992  13.694 -0.0525 -0.1456 -1.0394
60750SOL    HW293976   9.394   5.938  13.765  0.4770  0.3055  0.2367
60751SOL     OW93977  11.934   2.789   4.394 -0.1790  0.2234  0.1317
60751SOL    HW193978  12.007   2.841   4.427  0.6067 -1.8089  1.8448
60751SOL    HW293979  11.963   2.698   4.406 -1.9310 -0.6448 -1.6618
60752SOL     OW93980   1.694   8.263   3.044  0.6071 -0.0132 -0.6939
60752SOL    HW193981   1.731   8.306   2.967  1.1198  1.6250  0.4152
60752SOL    HW293982   1.746   8.295   3.118  2.1600 -3.8663  0.1222
60753SOL     OW93983   2.277   7.075   7.132 -0.6140 -0.6133  0.8004
60753SOL    HW193984   2.352   7.087   7.073 -1.2168  0.4245  0.2113
60753SOL    HW293985   2.218   7.017   7.084 -2.1461  1.9972 -0.7207
60754SOL     OW93986   6.250  11.568   1.485  0.1738 -0.4969  0.0412
60754SOL    HW193987   6.221  11.477   1.482 -1.3739 -0.0220  0.0154
60754SOL    HW293988   6.346  11.562   1.485  0.2213 -2.0691 -2.9635
60755SOL     OW93989  11.892   5.867  10.296  0.3566 -0.1340 -0.1533
60755SOL    HW193990  11.980   5.900  10.314  0.3174 -0.1841  0.1309
60755SOL    HW293991  11.905   5.778  10.265  0.2711 -1.1163  2.4002
60756SOL     OW93992   3.546   4.925  12.253 -0.4420 -0.2111 -0.2165
60756SOL    HW193993   3.562   4.851  12.195 -1.6449  0.1231 -0.9932
60756SOL    HW293994   3.452   4.943  12.246 -0.5480  0.1217  1.4982
60757SOL     OW93995   9.090  10.085   1.897  0.2915  0.1088  0.2796
60757SOL    HW193996   9.053  10.095   1.984 -1.5050 -1.2245 -0.2522
60757SOL    HW293997   9.171  10.035   1.910 -0.0826 -0.2718  1.1645
60758SOL     OW93998   1.027   0.258   8.703  0.8379  0.3872  0.7723
60758SOL    HW193999   1.012   0.230   8.793  0.2945  0.5570  0.7420
60758SOL    HW294000   1.051   0.178   8.656  0.4507  0.1743  0.9296
60759SOL     OW94001  10.585   1.411   1.352 -0.1384 -0.4143  0.4774
60759SOL    HW194002  10.623   1.495   1.327 -0.4043  0.6316  3.2306
60759SOL    HW294003  10.621   1.349   1.289  2.1730  1.3187 -0.0620
60760SOL     OW94004  10.945   4.527   3.754  0.0203 -0.0492 -0.3128
60760SOL    HW194005  10.970   4.514   3.663 -2.0045 -1.7172 -0.6961
60760SOL    HW294006  10.921   4.620   3.760  0.0116  0.0342 -1.4887
60761SOL     OW94007   4.144  12.988   5.859  0.0061 -0.0468  0.6096
60761SOL    HW194008   4.199  12.931   5.912  0.0705  0.9668  1.6627
60761SOL    HW294009   4.091  13.036   5.922 -0.3320  0.7815 -0.2738
60762SOL     OW94010   4.667   9.454   7.894 -0.1411  0.1599 -0.2718
60762SOL    HW194011   4.609   9.530   7.886 -0.6041  0.0632  1.6073
60762SOL    HW294012   4.727   9.477   7.965 -1.1536 -1.6877  1.3037
60763SOL     OW94013  11.893  11.981   6.401  0.2692 -0.3441 -0.8962
60763SOL    HW194014  11.915  11.983   6.308 -1.0534  0.9971 -1.2213
60763SOL    HW294015  11.919  12.067   6.434 -0.9281 -0.1172 -0.4666
60764SOL     OW94016  10.989  13.529   0.371  0.5834 -0.5623  0.1007
60764SOL    HW194017  10.991  13.588   0.295 -0.2590  0.4471  0.8404
60764SOL    HW294018  10.991  13.441   0.333 -1.6932 -0.1341 -1.2119
60765SOL     OW94019  12.883   2.714   0.010  0.2842  0.1804 -0.2278
60765SOL    HW194020  12.916   2.716  -0.080 -0.6044  1.3998 -0.5528
60765SOL    HW294021  12.858   2.622   0.024  4.6320 -1.1218  0.4218
60766SOL     OW94022   9.718  12.516   8.633  0.2318  0.2564 -0.1233
60766SOL    HW194023   9.799  12.468   8.648 -0.9742 -1.7293  0.4375
60766SOL    HW294024   9.663  12.455   8.583 -1.0477  1.4000 -0.1697
60767SOL     OW94025  12.355   4.148  13.553  0.9236 -0.4192 -0.1252
60767SOL    HW194026  12.274   4.165  13.506  0.1569 -2.3921  0.3852
60767SOL    HW294027  12.366   4.225  13.609 -0.2868  0.1379 -0.6081
60768SOL     OW94028   0.003   6.734   8.646  0.1823  0.2599 -0.3904
60768SOL    HW194029  -0.082   6.776   8.631 -0.2197 -0.6071 -0.5992
60768SOL    HW294030   0.067   6.800   8.619 -0.4111  1.0080 -0.0206
60769SOL     OW94031   1.127  13.685  11.394 -0.3360  0.5330  0.0299
60769SOL    HW194032   1.219  13.666  11.414 -0.2561  0.5325 -0.3188
60769SOL    HW294033   1.087  13.600  11.380 -0.3890  0.5333  0.1847
60770SOL     OW94034   9.062  10.633   6.650  0.1928 -0.1673 -0.1791
60770SOL    HW194035   8.981  10.603   6.690  0.4993  0.9341  1.3821
60770SOL    HW294036   9.048  10.623   6.556 -2.2016  1.0349 -0.0389
60771SOL     OW94037   5.055  11.222  12.188 -0.7400 -0.4008  0.4958
60771SOL    HW194038   5.098  11.159  12.131 -2.2531 -1.2957  0.2706
60771SOL    HW294039   5.112  11.299  12.188  0.4033 -1.2265 -0.4035
60772SOL     OW94040   0.491   4.940  10.729  0.3105  0.0300  0.3808
60772SOL    HW194041   0.481   4.988  10.647 -0.4691 -1.7875 -0.6429
60772SOL    HW294042   0.401   4.927  10.760  0.5053 -0.7175  0.6493
60773SOL     OW94043   7.731   3.606   0.793  0.0536 -0.2306 -0.2564
60773SOL    HW194044   7.722   3.605   0.698  1.1524 -1.1407 -0.3657
60773SOL    HW294045   7.730   3.699   0.816 -1.5407 -0.0328 -0.9954
60774SOL     OW94046  11.886   2.998   3.700 -0.0488  0.4042  0.0322
60774SOL    HW194047  11.918   2.919   3.745 -1.5286  0.0270  0.4925
60774SOL    HW294048  11.808   2.967   3.652 -0.7659  1.6174  0.3835
60775SOL     OW94049  13.387   9.086   6.460 -0.4438  0.4909 -0.0067
60775SOL    HW194050  13.386   9.161   6.401  1.9634  1.8110  1.4373
60775SOL    HW294051  13.448   9.111   6.529 -2.6241 -1.1786  2.7683
60776SOL     OW94052   4.398   1.380   3.054  0.9108 -0.2166 -0.0178
60776SOL    HW194053   4.324   1.335   3.014  1.3045  0.3619 -1.4506
60776SOL    HW294054   4.442   1.312   3.106 -2.0962 -0.0185  3.2001
60777SOL     OW94055   5.452   2.237   2.137 -0.8435 -0.2123 -0.2049
60777SOL    HW194056   5.389   2.278   2.197 -0.4418  0.7155 -0.4110
60777SOL    HW294057   5.469   2.151   2.176 -0.7607  0.2853  0.9032
60778SOL     OW94058   0.270   8.381   4.871 -0.6230 -0.4081 -0.1889
60778SOL    HW194059   0.179   8.400   4.892 -1.0833 -0.8539 -1.6273
60778SOL    HW294060   0.293   8.307   4.928 -0.8013  0.3893  0.9410
60779SOL     OW94061   5.510   2.466  12.826 -0.2304  0.0410 -0.2408
60779SOL    HW194062   5.548   2.418  12.753  2.7385  1.2219  0.3583
60779SOL    HW294063   5.516   2.558  12.800 -1.3473  0.3641  0.5470
60780SOL     OW94064   8.350   3.816   3.589 -0.0969 -0.3849 -0.5240
60780SOL    HW194065   8.394   3.738   3.623  0.4706  0.0824 -0.1664
60780SOL    HW294066   8.390   3.888   3.637 -2.0332 -0.0136  0.6213
60781SOL     OW94067  10.869   2.952   7.511 -0.1523  0.3499 -0.2731
60781SOL    HW194068  10.844   2.997   7.592  0.7348 -3.6445  2.5159
60781SOL    HW294069  10.787   2.918   7.476 -0.3326  0.4597  0.0398
60782SOL     OW94070   6.798   2.942   8.638  0.4959 -0.1679 -0.4511
60782SOL    HW194071   6.726   3.000   8.614  0.9152  0.6914  0.3507
60782SOL    HW294072   6.763   2.854   8.621 -0.9730  0.1973  0.5065
60783SOL     OW94073   6.921  13.436  13.521  0.2419 -0.5135  0.4327
60783SOL    HW194074   6.909  13.408  13.612  0.6965  0.2371  0.7300
60783SOL    HW294075   6.874  13.520  13.515 -0.1987 -0.7919 -0.1612
60784SOL     OW94076  12.230   2.384   5.650  0.3514  0.4425  0.2545
60784SOL    HW194077  12.320   2.403   5.678  0.6701  1.0262 -1.0761
60784SOL    HW294078  12.190   2.340   5.725  2.6487 -2.6342 -0.1013
60785SOL     OW94079   3.629  13.526   5.214 -0.6339 -0.2339  0.1918
60785SOL    HW194080   3.608  13.477   5.134 -0.6839 -0.9751  0.6605
60785SOL    HW294081   3.544  13.556   5.247 -0.6050  0.1651 -0.0808
60786SOL     OW94082   0.429   4.688   8.299  0.4806  0.2549  0.8306
60786SOL    HW194083   0.356   4.723   8.349  0.0744  1.2585 -0.3926
60786SOL    HW294084   0.461   4.763   8.247  0.0739 -0.9647 -1.3085
60787SOL     OW94085   2.428  11.547  13.166 -0.8543 -0.2465  0.7770
60787SOL    HW194086   2.427  11.452  13.155  0.4491 -0.0193 -2.2413
60787SOL    HW294087   2.505  11.576  13.116 -0.8600  2.3739  2.1097
60788SOL     OW94088   9.409  13.398   1.911  0.5015 -0.0208  0.1817
60788SOL    HW194089   9.430  13.489   1.931  0.6883  0.0523 -0.3500
60788SOL    HW294090   9.492  13.358   1.887  0.0508  0.3795 -2.3637
60789SOL     OW94091  11.143  11.613   1.678  0.2853  0.1149  0.4577
60789SOL    HW194092  11.165  11.700   1.644 -1.9963  0.9291  0.8488
60789SOL    HW294093  11.213  11.593   1.740  0.5804  1.9345  0.7730
60790SOL     OW94094   8.938  12.962   9.203 -0.1832 -0.0503 -0.6706
60790SOL    HW194095   8.978  12.924   9.125 -0.1670 -0.2819 -0.5505
60790SOL    HW294096   8.876  12.895   9.233 -1.8270  0.9290 -1.7397
60791SOL     OW94097   6.886   0.212  13.250  0.0911 -0.4178 -0.9229
60791SOL    HW194098   6.845   0.202  13.336  1.0996 -0.2433 -0.4138
60791SOL    HW294099   6.813   0.230  13.191 -0.4123  1.5719  0.2415
60792SOL     OW94100   2.583   2.968   9.014  0.3686 -0.5294 -0.3668
60792SOL    HW194101   2.506   2.913   9.030 -0.8064  0.7836 -1.2203
60792SOL    HW294102   2.658   2.909   9.021 -0.7947 -2.0707 -0.5838
60793SOL     OW94103   8.228   9.853   3.570  0.2010  0.1760 -0.3165
60793SOL    HW194104   8.241   9.948   3.572 -1.3641  0.4350 -1.0498
60793SOL    HW294105   8.198   9.835   3.481 -1.8534 -0.6345  0.4797
60794SOL     OW94106  12.384   6.333   6.716  0.2324 -0.6425 -0.2951
60794SOL    HW194107  12.320   6.399   6.688  1.2489  1.3423  1.7543
60794SOL    HW294108  12.375   6.330   6.811  2.0412 -1.5396 -0.1212
60795SOL     OW94109   0.336   6.192   7.451 -0.4288 -0.2217  0.8704
60795SOL    HW194110   0.318   6.232   7.366 -1.8714  0.0935  1.2839
60795SOL    HW294111   0.262   6.133   7.465  1.7932 -3.4499  0.1159
60796SOL     OW94112   3.659   6.155  13.470  0.3638 -0.0181 -0.1015
60796SOL    HW194113   3.734   6.215  13.471  0.0066  0.4204  1.2964
60796SOL    HW294114   3.588   6.205  13.510 -1.2465  0.2319 -2.9944
60797SOL     OW94115   7.437   2.293   0.192 -0.2615 -0.3507 -0.3565
60797SOL    HW194116   7.380   2.217   0.181  0.7730 -1.3320  0.7294
60797SOL    HW294117   7.497   2.288   0.116 -1.0387  0.1773 -1.0183
60798SOL     OW94118   1.151  12.131   1.563 -0.2157  0.1434  0.1284
60798SOL    HW194119   1.182  12.065   1.501  0.4993  1.0165 -0.4583
60798SOL    HW294120   1.101  12.081   1.628 -2.2291 -0.6592 -1.9002
60799SOL     OW94121   3.535  10.654  11.775  0.3034  0.4290 -0.0043
60799SOL    HW194122   3.512  10.625  11.863 -0.1752 -0.1221 -0.3096
60799SOL    HW294123   3.619  10.698  11.786 -0.4370  1.6514  0.9631
60800SOL     OW94124  10.337  12.371   4.944 -0.5596 -0.5587  0.2119
60800SOL    HW194125  10.293  12.421   5.013 -0.7549 -0.4010 -0.0232
60800SOL    HW294126  10.430  12.393   4.954 -0.5662 -0.6697  0.5306
60801SOL     OW94127   9.395   3.309  10.570  0.2405 -0.4041 -0.0480
60801SOL    HW194128   9.316   3.302  10.624 -0.2301  1.0680 -0.4921
60801SOL    HW294129   9.385   3.240  10.504  0.0811 -1.2101  0.7916
60802SOL     OW94130   5.728   0.970   3.648  0.3256 -0.4510 -0.1741
60802SOL    HW194131   5.681   0.888   3.636 -1.9152  0.4220  1.7828
60802SOL    HW294132   5.780   0.957   3.727 -0.4826  0.1685  0.4721
60803SOL     OW94133   3.013   5.310   4.848  0.1919 -0.7486  0.1213
60803SOL    HW194134   2.931   5.261   4.835  0.4104 -1.1681  0.2910
60803SOL    HW294135   3.002   5.354   4.932  1.0466 -2.7037  1.3348
60804SOL     OW94136  12.103  12.968  12.838 -0.4872  0.3974 -0.0281
60804SOL    HW194137  12.075  13.030  12.770 -1.3115 -0.2279 -0.2794
60804SOL    HW294138  12.103  12.883  12.794  1.5922  0.3166  0.0396
60805SOL     OW94139   0.141   8.095   9.821  0.6179 -0.0336 -0.4901
60805SOL    HW194140   0.090   8.167   9.859 -0.1729 -1.7500  1.8891
60805SOL    HW294141   0.226   8.099   9.865 -0.4949 -2.3783  2.1392
60806SOL     OW94142   0.996  11.434   8.735 -0.2495 -0.3874  0.7456
60806SOL    HW194143   0.935  11.379   8.784 -0.9074  0.3426  0.7717
60806SOL    HW294144   1.075  11.437   8.789 -0.7872  0.0062  1.5212
60807SOL     OW94145   2.507   2.178   7.894  0.0295 -0.1824  0.2273
60807SOL    HW194146   2.473   2.102   7.941  0.7620 -0.1758  0.7880
60807SOL    HW294147   2.448   2.250   7.919 -0.0895 -0.3581  0.4594
60808SOL     OW94148   5.842   3.555   8.334  0.4706  0.1277  0.3627
60808SOL    HW194149   5.774   3.537   8.399  0.6233 -2.8345 -0.1710
60808SOL    HW294150   5.812   3.634   8.289 -3.1028 -1.5227 -0.4275
60809SOL     OW94151   0.249   9.955   9.494 -1.1001  0.0071 -1.3748
60809SOL    HW194152   0.193  10.007   9.436 -2.5686 -0.8900 -0.8032
60809SOL    HW294153   0.205   9.958   9.579 -0.5156 -1.0913 -1.0135
60810SOL     OW94154  11.106   2.121   3.046 -0.3440  0.0146 -0.2410
60810SOL    HW194155  11.052   2.046   3.073 -1.1295  1.0023  1.0342
60810SOL    HW294156  11.126   2.103   2.954 -4.4200  0.4338 -1.4236
60811SOL     OW94157   5.650   6.318   2.984  0.1215 -0.0165  0.8855
60811SOL    HW194158   5.569   6.366   2.997  0.5136  0.2004  2.6669
60811SOL    HW294159   5.667   6.325   2.890 -1.9759 -0.1954  0.4488
60812SOL     OW94160   8.382   7.066   7.170  0.0654  0.0504  0.0427
60812SOL    HW194161   8.470   7.070   7.132 -0.5325 -0.0930 -1.4335
60812SOL    HW294162   8.383   7.134   7.238  0.9615  0.8775 -0.7469
60813SOL     OW94163  10.548   4.548   5.176  0.0169 -0.4946 -0.4527
60813SOL    HW194164  10.528   4.638   5.199  0.8985 -0.5677  0.7010
60813SOL    HW294165  10.627   4.554   5.121  0.9354 -0.6213  0.8065
60814SOL     OW94166  12.049   3.770   7.392  0.2524  0.4017  0.1061
60814SOL    HW194167  12.078   3.681   7.413 -0.2169  0.7337  2.4479
60814SOL    HW294168  11.953   3.765   7.392  0.2203  0.6036 -1.3700
60815SOL     OW94169   7.750  10.108   2.150 -0.4925 -0.1020 -0.0854
60815SOL    HW194170   7.834  10.152   2.143  0.5559 -2.1109 -0.9120
60815SOL    HW294171   7.771  10.014   2.148 -2.4952 -0.7471  2.7832
60816SOL     OW94172  10.404   2.910   6.812 -0.0093 -0.2352  0.7768
60816SOL    HW194173  10.357   2.830   6.836  2.3303 -1.2966  2.1188
60816SOL    HW294174  10.392   2.918   6.717  0.3727 -2.6336  0.4765
60817SOL     OW94175  11.367  10.578   7.378  0.2755  0.1819 -0.0691
60817SOL    HW194176  11.286  10.577   7.329  0.4123  3.2089 -0.5361
60817SOL    HW294177  11.435  10.597   7.313  0.7856  1.6677  0.8353
60818SOL     OW94178  13.300   5.349   0.153  0.2507 -0.0058  0.4101
60818SOL    HW194179  13.293   5.400   0.072 -0.3202  0.3979  0.7014
60818SOL    HW294180  13.256   5.403   0.218  1.1753 -0.0756  1.1149
60819SOL     OW94181   1.930  12.640   4.539 -0.1336 -0.6082  0.5048
60819SOL    HW194182   1.992  12.640   4.612 -0.0980 -2.9788  0.5460
60819SOL    HW294183   1.974  12.690   4.470  1.7930 -2.1011  0.5842
60820SOL     OW94184   6.045   3.306   4.905 -0.3065  0.3964 -0.0941
60820SOL    HW194185   5.960   3.263   4.902  0.0905 -0.3745 -1.2979
60820SOL    HW294186   6.041   3.371   4.834  0.2472  0.0498 -0.4496
60821SOL     OW94187  12.472   7.024   0.661 -0.3740 -0.1167 -0.1854
60821SOL    HW194188  12.393   7.078   0.667 -0.1356  0.4078 -1.4376
60821SOL    HW294189  12.445   6.938   0.691 -1.2472  0.2379  0.0608
60822SOL     OW94190   4.746   0.900   3.378  0.3575  0.0640 -0.3074
60822SOL    HW194191   4.841   0.895   3.386  0.2932 -0.8736  0.0752
60822SOL    HW294192   4.714   0.822   3.425 -0.5771  0.1446 -0.7790
60823SOL     OW94193   3.304   2.483   7.340 -0.2579  0.4020  0.0390
60823SOL    HW194194   3.237   2.471   7.408 -1.0014 -2.5141 -1.0439
60823SOL    HW294195   3.262   2.539   7.275 -1.4290 -0.7292 -0.2338
60824SOL     OW94196   1.114   1.943  12.369 -0.1991  0.4950 -0.1954
60824SOL    HW194197   1.127   2.014  12.432 -1.5603 -0.5570  1.3454
60824SOL    HW294198   1.068   1.984  12.295 -0.7938  1.2638  0.5901
60825SOL     OW94199  12.404  11.842   5.904  0.2169 -0.5051 -0.4591
60825SOL    HW194200  12.459  11.920   5.901 -1.1340  0.4422 -2.2766
60825SOL    HW294201  12.315  11.875   5.896 -0.6598 -2.0437  1.8258
60826SOL     OW94202   1.772  12.380   4.249  0.1769 -0.2271  0.0837
60826SOL    HW194203   1.721  12.325   4.308 -0.0238 -2.0006 -1.6452
60826SOL    HW294204   1.785  12.326   4.171  1.5007  1.5584 -1.0054
60827SOL     OW94205  13.132  10.153   7.728 -0.0037  0.1184  0.3904
60827SOL    HW194206  13.119  10.119   7.639 -0.8079  1.0324  0.1429
60827SOL    HW294207  13.048  10.192   7.751 -0.2033 -1.1658  2.0529
60828SOL     OW94208   4.732   6.638   5.604  0.0409  0.6115 -0.1252
60828SOL    HW194209   4.740   6.606   5.694 -0.2520 -0.1215 -0.3437
60828SOL    HW294210   4.739   6.558   5.551 -2.0955  0.6951 -0.6366
60829SOL     OW94211  10.683   9.654   5.116 -0.0998 -0.5526  1.1249
60829SOL    HW194212  10.727   9.582   5.162  0.8106 -0.8962 -0.2030
60829SOL    HW294213  10.746   9.726   5.118 -0.0479 -0.5678  0.4710
60830SOL     OW94214   0.396   7.860  11.971 -0.0033 -0.1624 -0.9157
60830SOL    HW194215   0.433   7.932  12.023  0.5526 -1.5979  0.7420
60830SOL    HW294216   0.460   7.847  11.901  1.0357 -0.4807  0.0617
60831SOL     OW94217   6.990  13.354  10.462 -0.2825  0.0663  0.4817
60831SOL    HW194218   6.913  13.302  10.487 -1.8955  0.8466 -2.3516
60831SOL    HW294219   6.993  13.425  10.526 -2.1073  0.1575  0.5269
60832SOL     OW94220   0.024  10.042   9.172 -0.1535  0.1063  0.8226
60832SOL    HW194221   0.107  10.089   9.157  0.5006 -0.3599  2.7061
60832SOL    HW294222  -0.024  10.098   9.233 -0.8261 -0.1085  0.5008
60833SOL     OW94223   0.238   1.866   9.266 -0.6777 -0.5503  0.1242
60833SOL    HW194224   0.201   1.928   9.204 -0.5389 -0.2464  0.3449
60833SOL    HW294225   0.315   1.830   9.221  0.3850  0.8781  0.7431
60834SOL     OW94226  12.634   3.526   2.662  0.0612 -0.5854 -0.1817
60834SOL    HW194227  12.639   3.437   2.697  0.5894 -0.0330  1.2061
60834SOL    HW294228  12.541   3.540   2.645 -0.3691 -0.5670  1.9095
60835SOL     OW94229   9.352   4.233   9.313 -0.1869  0.6283  0.1301
60835SOL    HW194230   9.351   4.248   9.218 -0.7806  1.5531  0.2572
60835SOL    HW294231   9.325   4.142   9.323  1.3768  0.0359 -0.6355
60836SOL     OW94232   3.820   6.888   7.759  0.3786 -0.4431  0.0064
60836SOL    HW194233   3.744   6.830   7.760 -0.1593  0.2182  1.7128
60836SOL    HW294234   3.895   6.828   7.765  0.0586 -1.1097 -1.8591
60837SOL     OW94235  12.510   1.622   1.392  0.0494 -0.0900  0.6048
60837SOL    HW194236  12.553   1.677   1.326  2.2258 -2.4565 -0.1104
60837SOL    HW294237  12.416   1.638   1.379  0.5011  1.3802 -1.3416
60838SOL     OW94238   3.714   7.677   6.891 -0.0085 -0.1387  0.3206
60838SOL    HW194239   3.621   7.652   6.895  0.5442 -2.2381  1.1360
60838SOL    HW294240   3.737   7.693   6.982 -0.0300  2.4184 -0.0594
60839SOL     OW94241   1.253   3.563   0.664  0.0065 -0.1287 -0.2140
60839SOL    HW194242   1.236   3.645   0.710  0.0415 -0.7489  0.9441
60839SOL    HW294243   1.166   3.525   0.650  0.0425 -0.3182  0.0661
60840SOL     OW94244   8.059   0.032   1.239 -0.1010  0.1743  0.2538
60840SOL    HW194245   8.082   0.087   1.164 -0.7763  2.0242  1.3406
60840SOL    HW294246   7.963   0.032   1.240 -0.1130  0.9694  1.6332
60841SOL     OW94247   0.592   6.218  12.065  0.2321  1.0509  0.1138
60841SOL    HW194248   0.613   6.125  12.062 -0.4431  0.8975  0.0108
60841SOL    HW294249   0.662   6.260  12.014  0.5934  0.6165  0.2481
60842SOL     OW94250   5.111  13.577   2.653  0.9151  0.3266  0.7810
60842SOL    HW194251   5.099  13.488   2.688  0.6601 -0.5406 -1.3821
60842SOL    HW294252   5.155  13.564   2.569 -0.8361  2.0883 -0.4821
60843SOL     OW94253   1.261  10.050   7.035  0.4973  0.3882 -0.0372
60843SOL    HW194254   1.351  10.080   7.020  0.1215  1.6100  0.0255
60843SOL    HW294255   1.207  10.126   7.014 -0.4794 -0.1172  0.5864
60844SOL     OW94256   3.611   8.713   2.065 -0.4079 -0.1371  0.4013
60844SOL    HW194257   3.665   8.755   1.998 -0.6542  2.4094  1.6944
60844SOL    HW294258   3.522   8.739   2.044 -0.8752 -1.9415 -0.0436
60845SOL     OW94259   1.694  13.486   5.644 -0.1200  0.1824  0.1980
60845SOL    HW194260   1.669  13.577   5.633 -1.4967  0.0778  1.9872
60845SOL    HW294261   1.669  13.465   5.734 -0.2257 -2.0761 -0.2995
60846SOL     OW94262   2.926   3.244  13.671  0.5464 -0.3748 -0.4315
60846SOL    HW194263   2.903   3.151  13.671 -1.3842  0.0663 -0.2400
60846SOL    HW294264   2.923   3.268  13.764 -1.3114  0.3767 -0.6441
60847SOL     OW94265   8.912   2.153   9.051  0.4593  0.2054  0.0051
60847SOL    HW194266   8.954   2.235   9.076  2.2686 -0.6770 -0.0327
60847SOL    HW294267   8.891   2.164   8.958 -0.2697  0.9982  0.2502
60848SOL     OW94268   9.743  11.556   5.957  0.2713  0.5260  0.3032
60848SOL    HW194269   9.718  11.646   5.937  2.5381  1.0659 -0.4060
60848SOL    HW294270   9.821  11.565   6.012  0.8976 -0.9867 -0.2847
60849SOL     OW94271   6.494   5.140   7.204  0.5975 -0.0297  0.9314
60849SOL    HW194272   6.495   5.203   7.277  0.2416 -1.6375  2.3984
60849SOL    HW294273   6.414   5.089   7.218  1.4210 -1.5148  0.4502
60850SOL     OW94274   3.542   4.237  12.020 -0.5471  0.3725  0.7698
60850SOL    HW194275   3.460   4.189  12.033 -1.1152  0.9173 -0.6498
60850SOL    HW294276   3.606   4.170  11.997 -1.3508  0.2349 -1.2605
60851SOL     OW94277   1.157   6.315   7.494 -0.7531  0.6115 -0.6200
60851SOL    HW194278   1.240   6.269   7.503 -0.4311  1.4488  1.0616
60851SOL    HW294279   1.093   6.245   7.479 -0.0882 -0.3019  0.5751
60852SOL     OW94280   9.215  11.557   5.021 -0.2242  0.1424 -0.5324
60852SOL    HW194281   9.226  11.463   5.006 -0.7362 -0.5700  2.7604
60852SOL    HW294282   9.266  11.574   5.100 -0.5846  2.5493 -0.7580
60853SOL     OW94283  11.554  11.079   0.517  0.3420 -0.0802  0.4033
60853SOL    HW194284  11.614  11.123   0.577 -0.8673  0.8565  0.9645
60853SOL    HW294285  11.542  11.140   0.445 -1.8886  0.9255  1.5186
60854SOL     OW94286  11.838  12.135   5.596  0.1549 -0.1168  0.0523
60854SOL    HW194287  11.901  12.195   5.557 -0.1883 -0.2159 -0.6877
60854SOL    HW294288  11.845  12.056   5.542 -0.4965 -0.1721  0.0400
60855SOL     OW94289   1.632   6.512   1.379  0.0371 -0.2236  0.0334
60855SOL    HW194290   1.705   6.515   1.316  0.0710 -0.9346  0.0361
60855SOL    HW294291   1.605   6.421   1.381 -0.6759 -0.0161  0.2501
60856SOL     OW94292   1.626  10.835  12.714  0.4912  0.2061 -0.5190
60856SOL    HW194293   1.711  10.813  12.676  0.6808 -0.9009  0.4750
60856SOL    HW294294   1.646  10.864  12.803 -0.1623 -0.0395 -0.2832
60857SOL     OW94295   2.143  10.308   1.936  0.0714  0.2839  0.1721
60857SOL    HW194296   2.144  10.284   1.843 -0.3132  2.6656 -0.5088
60857SOL    HW294297   2.074  10.374   1.943  0.8999  1.0292  1.9148
60858SOL     OW94298   5.988   2.756  11.212  0.2397 -0.5586  0.4225
60858SOL    HW194299   5.975   2.822  11.144 -1.5781 -1.3779 -0.0793
60858SOL    HW294300   6.082   2.738  11.211  0.5357  0.9281 -0.4412
60859SOL     OW94301   3.344   4.363   1.348 -0.8243  0.3569 -0.4212
60859SOL    HW194302   3.333   4.376   1.254  0.1288  0.6627 -0.5005
60859SOL    HW294303   3.303   4.278   1.365 -2.5100  1.0595 -0.7955
60860SOL     OW94304  12.431   4.774   3.226  0.0279 -0.2045  0.5367
60860SOL    HW194305  12.363   4.719   3.265 -2.1255  3.0449  1.8006
60860SOL    HW294306  12.461   4.830   3.297  0.9637  1.3398 -0.9836
60861SOL     OW94307   1.684   1.469   5.026  0.3729  0.3942 -0.1370
60861SOL    HW194308   1.605   1.489   4.975  0.0587  0.7045  0.4605
60861SOL    HW294309   1.685   1.374   5.033 -0.0217  0.3985 -0.0259
60862SOL     OW94310  13.008   8.708  10.662 -0.6171  0.3132 -0.2516
60862SOL    HW194311  12.927   8.752  10.687 -1.1968 -0.8818  0.0137
60862SOL    HW294312  13.001   8.697  10.567 -1.6501 -1.4379 -0.0182
60863SOL     OW94313  11.240   0.343   4.473  0.0456  0.2731  0.1626
60863SOL    HW194314  11.324   0.315   4.509 -0.7758 -0.1785  1.8517
60863SOL    HW294315  11.245   0.322   4.380  1.3286 -0.9597  0.4793
60864SOL     OW94316   0.485   6.764   3.725 -0.1928 -0.2779  0.0101
60864SOL    HW194317   0.554   6.803   3.671  0.5969  0.4949  1.5157
60864SOL    HW294318   0.526   6.688   3.766  0.1976  0.8534  1.8385
60865SOL     OW94319  10.971   2.026   6.710 -0.2347  0.2736  0.2319
60865SOL    HW194320  10.902   1.966   6.680 -0.4609  0.1438  0.9937
60865SOL    HW294321  11.030   1.970   6.761  1.7729 -0.1400 -2.3453
60866SOL     OW94322   1.983   7.920   5.185  0.3922  0.1910 -0.1834
60866SOL    HW194323   2.011   7.987   5.247 -1.3409  0.7834  0.0263
60866SOL    HW294324   1.901   7.886   5.222 -0.1264 -0.1714 -1.6071
60867SOL     OW94325  13.326   5.118   2.769 -0.2459 -0.0406 -0.2314
60867SOL    HW194326  13.240   5.141   2.806 -0.7038  0.4252 -1.5119
60867SOL    HW294327  13.340   5.027   2.793 -0.2316  0.4066  1.5858
60868SOL     OW94328  12.776   8.244   0.869  0.6968  0.0620  0.6729
60868SOL    HW194329  12.747   8.335   0.865 -0.2639 -0.2124  1.0908
60868SOL    HW294330  12.698   8.195   0.896  1.4667 -0.7439  1.5004
60869SOL     OW94331   0.353   1.668   6.780  0.4461 -0.4685  0.4854
60869SOL    HW194332   0.414   1.665   6.855 -0.9528 -0.9021  1.6530
60869SOL    HW294333   0.340   1.577   6.756  1.7177 -0.2871 -1.0393
60870SOL     OW94334   6.499   7.054  11.534 -0.0524  0.2745  0.0731
60870SOL    HW194335   6.565   7.070  11.468  0.4596 -1.8029  0.0200
60870SOL    HW294336   6.416   7.071  11.490  0.0225 -4.0244 -2.2922
60871SOL     OW94337  13.291  13.204   7.231  0.6683  0.2658 -1.1168
60871SOL    HW194338  13.370  13.214   7.178  0.4309 -2.6998 -2.2446
60871SOL    HW294339  13.276  13.110   7.234 -1.3646  0.5502  1.3286
60872SOL     OW94340  11.541   8.991   8.178  0.6378 -0.0584  0.4107
60872SOL    HW194341  11.598   8.971   8.253 -0.2369  0.9298  1.3706
60872SOL    HW294342  11.472   9.046   8.215 -1.8271 -2.4011 -0.3716
60873SOL     OW94343   3.770   2.807  12.462 -0.4465 -0.9605  0.2304
60873SOL    HW194344   3.800   2.894  12.487 -2.6352 -0.6613  2.1997
60873SOL    HW294345   3.736   2.817  12.373 -1.2044  0.3688  0.6443
60874SOL     OW94346  13.505   0.087   6.238 -0.2336  0.3173  0.0358
60874SOL    HW194347  13.518   0.181   6.222  1.2212 -0.4289 -4.4537
60874SOL    HW294348  13.583   0.060   6.285 -1.8389  1.5754  3.8917
60875SOL     OW94349   5.330   1.765   2.849  0.5661 -0.2484  0.0601
60875SOL    HW194350   5.314   1.758   2.755 -1.5646 -0.7405  0.4021
60875SOL    HW294351   5.368   1.680   2.873 -0.0577 -0.5997 -0.1664
60876SOL     OW94352   8.705   2.416   8.573  0.2776 -0.1024  0.4049
60876SOL    HW194353   8.693   2.482   8.641  1.2933 -0.4348  0.9338
60876SOL    HW294354   8.691   2.464   8.491  1.3500  0.8823  0.7598
60877SOL     OW94355   6.713   3.636  10.348  0.3092 -0.1382 -0.0573
60877SOL    HW194356   6.766   3.666  10.274  0.3913 -2.2192 -0.9207
60877SOL    HW294357   6.652   3.573  10.309  1.7823 -2.9889  1.8706
60878SOL     OW94358  12.944   4.011   9.494  0.0949 -0.5715  0.2727
60878SOL    HW194359  12.899   4.050   9.419 -1.3382 -1.8169  0.4360
60878SOL    HW294360  12.895   4.042   9.571  2.2873  1.7110  0.8951
60879SOL     OW94361   6.716  12.594  10.974  0.2728  0.1049 -0.2372
60879SOL    HW194362   6.758  12.509  10.986  0.0202  0.0569  0.3142
60879SOL    HW294363   6.643  12.576  10.915 -1.5978 -0.6556  2.1737
60880SOL     OW94364  11.156   1.808   0.683 -0.3791 -0.6180 -0.4707
60880SOL    HW194365  11.080   1.762   0.718  0.3302 -0.7676  0.9195
60880SOL    HW294366  11.133   1.824   0.591 -1.3731 -2.1665 -0.5386
60881SOL     OW94367  12.311   8.354   3.775  0.1045 -0.2184  0.0054
60881SOL    HW194368  12.296   8.337   3.868 -0.8383 -1.4723 -0.3559
60881SOL    HW294369  12.285   8.446   3.764  0.7932  0.1259  1.0787
60882SOL     OW94370   8.457  12.198   4.168  0.1449 -0.1376 -0.4898
60882SOL    HW194371   8.494  12.287   4.169 -0.7480  0.2588  0.8199
60882SOL    HW294372   8.366  12.211   4.141 -0.4410 -0.4111  1.2113
60883SOL     OW94373   0.058   0.562  12.492  0.2697  0.2367  0.3407
60883SOL    HW194374   0.116   0.572  12.417 -0.0073  1.9174  0.3239
60883SOL    HW294375   0.114   0.578  12.568 -0.0106  1.2253  0.3517
60884SOL     OW94376   8.992  10.391   0.073 -0.8116 -0.7238  0.5157
60884SOL    HW194377   9.030  10.478   0.086  2.3907 -2.0324  1.0566
60884SOL    HW294378   8.999  10.376  -0.021 -0.3470 -0.7674  0.5520
60885SOL     OW94379   6.842  10.784  13.152  0.7395  0.0002  0.1790
60885SOL    HW194380   6.783  10.794  13.228  0.7543  0.2054  0.1641
60885SOL    HW294381   6.913  10.729  13.185  0.2841 -0.6865  0.0539
60886SOL     OW94382  13.704   8.095  11.004  0.1069  0.8515  0.3397
60886SOL    HW194383  13.741   8.125  10.921  0.7702  0.6090  0.5383
60886SOL    HW294384  13.696   8.175  11.057  0.6778  0.8595  0.4186
60887SOL     OW94385  10.231   9.985   7.360  0.0101 -0.5235 -0.2357
60887SOL    HW194386  10.225   9.956   7.451  1.2738 -0.9344 -0.2706
60887SOL    HW294387  10.309  10.040   7.358 -0.9068  0.8171 -0.7365
60888SOL     OW94388   7.479   8.772   6.349 -0.3372 -0.2639  0.1407
60888SOL    HW194389   7.422   8.708   6.391  0.5410 -1.2753 -0.1692
60888SOL    HW294390   7.559   8.723   6.329 -0.7111  0.1409 -2.7571
60889SOL     OW94391  11.866  12.997  12.323  0.3682  0.4901 -0.1466
60889SOL    HW194392  11.830  12.929  12.267 -1.1145  1.5167 -0.5075
60889SOL    HW294393  11.943  12.958  12.363  0.5538 -0.7816 -1.6993
60890SOL     OW94394   4.192  13.654   3.250  0.1714  0.5462 -0.0932
60890SOL    HW194395   4.251  13.708   3.304  0.2208 -0.5171  0.9696
60890SOL    HW294396   4.229  13.566   3.255 -1.8498 -0.3230  1.2247
60891SOL     OW94397   2.356  11.122   6.323 -0.0429 -0.3769 -0.3234
60891SOL    HW194398   2.400  11.072   6.392  1.4140  1.5040  0.1621
60891SOL    HW294399   2.424  11.141   6.259 -1.0345 -0.7285 -1.5219
60892SOL     OW94400   7.563   2.960   9.883 -0.4738  0.0685  0.4190
60892SOL    HW194401   7.529   2.956   9.973 -1.2786  1.9395  0.2464
60892SOL    HW294402   7.597   3.049   9.874 -1.0075  0.1260 -1.3315
60893SOL     OW94403   0.928   3.381   1.704 -0.8998 -0.6036 -1.2097
60893SOL    HW194404   1.003   3.410   1.653 -0.9033 -1.5287 -1.7665
60893SOL    HW294405   0.899   3.460   1.751 -1.9671  0.7947 -3.9410
60894SOL     OW94406   6.598   3.013  11.966  0.6832  0.2926  0.5386
60894SOL    HW194407   6.560   2.926  11.958  0.3729  0.2338  2.2006
60894SOL    HW294408   6.530   3.065  12.009  1.5441  0.8441  1.2712
60895SOL     OW94409   9.315   1.540   7.334  0.7910  0.0992  0.4319
60895SOL    HW194410   9.266   1.556   7.414 -0.6095 -1.2611 -0.1171
60895SOL    HW294411   9.378   1.472   7.357 -2.7109 -3.8966 -0.5883
60896SOL     OW94412   6.802   8.986   3.135 -0.2018  0.1711  0.5232
60896SOL    HW194413   6.835   9.069   3.101 -2.1565  0.8409  0.1019
60896SOL    HW294414   6.710   9.004   3.157 -0.6248 -1.8311  0.6054
60897SOL     OW94415   6.830   6.889  10.121 -0.9187  0.1487 -0.4168
60897SOL    HW194416   6.765   6.837  10.074 -0.2142 -0.3360 -0.8792
60897SOL    HW294417   6.862   6.951  10.056  0.6921 -1.0966 -0.8790
60898SOL     OW94418   6.767   7.899   0.019 -0.0781  0.5148  0.5423
60898SOL    HW194419   6.732   7.986   0.039  0.7336  0.8128  0.6840
60898SOL    HW294420   6.691   7.849  -0.012 -0.8020  0.8940  1.6599
60899SOL     OW94421   2.901   9.979   6.216 -0.0703  0.1668  0.7356
60899SOL    HW194422   2.828  10.041   6.208 -1.0519 -0.6334  2.7525
60899SOL    HW294423   2.960  10.020   6.279 -0.7671 -0.9050  2.1456
60900SOL     OW94424   7.306  13.513   4.163  0.4233  0.2361  0.0072
60900SOL    HW194425   7.316  13.434   4.110  1.5601 -0.3506  1.0618
60900SOL    HW294426   7.215  13.539   4.150  0.1524 -0.9991 -0.6972
60901SOL     OW94427  12.701   4.415   4.985 -0.1654 -0.0680  0.1166
60901SOL    HW194428  12.726   4.413   5.078  1.5627  0.7065 -0.2794
60901SOL    HW294429  12.658   4.500   4.974 -2.3530 -1.0600  0.6260
60902SOL     OW94430   8.539   4.115  13.740 -0.3331 -0.6270 -0.1228
60902SOL    HW194431   8.597   4.160  13.801 -1.3440  0.1527  0.3114
60902SOL    HW294432   8.523   4.030  13.780 -2.2948  0.4497  1.6607
60903SOL     OW94433  11.081   8.969   9.196  0.0529  0.6036  0.4045
60903SOL    HW194434  11.008   8.999   9.142  0.0464 -0.5289 -0.2566
60903SOL    HW294435  11.158   9.010   9.155 -0.1279  1.2282  0.6724
60904SOL     OW94436   9.454   7.994   1.441  0.3988 -0.6600 -0.5323
60904SOL    HW194437   9.526   7.971   1.500 -0.2771 -0.7410  0.2757
60904SOL    HW294438   9.377   7.955   1.481 -0.2836  0.4073 -0.7738
60905SOL     OW94439  11.351  10.400   8.268  0.1746 -0.8056 -0.3278
60905SOL    HW194440  11.420  10.401   8.334 -0.6137 -0.8500  0.5156
60905SOL    HW294441  11.306  10.316   8.282 -1.4052  0.1422  0.5906
60906SOL     OW94442   4.651  11.790   5.338 -0.6570 -0.4270 -0.3030
60906SOL    HW194443   4.721  11.725   5.339 -0.2135  0.0608  0.3362
60906SOL    HW294444   4.599  11.766   5.261 -0.3125 -1.3338 -0.2715
60907SOL     OW94445   2.338  12.872   6.863 -0.2093  1.0389 -0.3484
60907SOL    HW194446   2.355  12.829   6.779 -0.8273 -2.2968  1.0979
60907SOL    HW294447   2.423  12.870   6.908 -0.2133  1.4795 -0.3174
60908SOL     OW94448  12.963   0.523   0.104 -0.2591 -0.4620  0.2788
60908SOL    HW194449  12.971   0.428   0.103  2.1885 -0.3285 -0.0343
60908SOL    HW294450  13.051   0.554   0.127 -0.5167  1.7500 -1.3672
60909SOL     OW94451  12.048   7.598  10.916 -0.3348  0.2053 -0.0874
60909SOL    HW194452  12.130   7.563  10.882  0.1985 -0.0937  1.4434
60909SOL    HW294453  12.011   7.526  10.968 -1.6444  0.2872 -0.8430
60910SOL     OW94454  12.810   1.414  11.096 -0.6199  0.4543  0.2166
60910SOL    HW194455  12.752   1.451  11.029  1.4300 -0.3478 -2.1667
60910SOL    HW294456  12.796   1.319  11.089  1.6349  0.1615 -1.1832
60911SOL     OW94457   6.855   4.786  13.686 -0.7375 -0.0453 -0.3457
60911SOL    HW194458   6.838   4.692  13.683 -1.1010  0.0180 -3.1375
60911SOL    HW294459   6.935   4.798  13.635 -0.6199  1.1674  0.0913
60912SOL     OW94460   3.080  12.027  10.116 -0.5390 -0.5527  0.5770
60912SOL    HW194461   3.025  12.025  10.038 -0.9536  1.8133  0.7270
60912SOL    HW294462   3.032  11.976  10.181 -0.8076 -1.4658 -0.3109
60913SOL     OW94463   2.991   4.937  11.080 -0.1307  0.3176 -0.3064
60913SOL    HW194464   3.015   5.007  11.021  0.4139  1.4572  1.1966
60913SOL    HW294465   3.075   4.903  11.113 -0.4105 -0.4691 -0.3673
60914SOL     OW94466   0.936   3.303   6.468  0.1177  0.5612  0.3135
60914SOL    HW194467   1.020   3.349   6.459  1.2163 -1.4642 -0.2101
60914SOL    HW294468   0.887   3.327   6.389  0.0444  1.9944  0.7635
60915SOL     OW94469  11.675  13.671  12.201 -0.5481  0.3109 -0.4898
60915SOL    HW194470  11.764  13.695  12.176 -1.0257  1.0164 -1.6157
60915SOL    HW294471  11.685  13.616  12.279  0.9558 -0.8442 -1.4412
60916SOL     OW94472  11.859  10.864   4.994  0.2945  0.1588  0.3161
60916SOL    HW194473  11.811  10.873   5.076 -0.4564  0.8636 -0.1750
60916SOL    HW294474  11.823  10.933   4.938  2.0846  0.9096  0.0085
60917SOL     OW94475   3.488  12.690   7.416  0.8659 -0.6778 -0.0377
60917SOL    HW194476   3.457  12.660   7.502 -1.3673 -0.9712 -0.8731
60917SOL    HW294477   3.548  12.762   7.436  0.0603 -0.4399  1.7617
60918SOL     OW94478   6.926  13.246   3.817 -0.1882 -0.3279 -0.2679
60918SOL    HW194479   6.890  13.334   3.807  2.3584  0.7377 -0.8188
60918SOL    HW294480   6.954  13.241   3.908  0.0826 -0.4035 -0.3552
60919SOL     OW94481   1.277  11.947   8.973  0.1388  0.3023  0.1234
60919SOL    HW194482   1.206  11.941   9.038  1.2370  0.4152  1.3738
60919SOL    HW294483   1.321  11.862   8.978 -1.0860 -0.5682 -2.1337
60920SOL     OW94484   6.315   1.728   6.911 -0.0443  0.5772 -0.1836
60920SOL    HW194485   6.254   1.800   6.925 -0.4990  0.1825 -0.1222
60920SOL    HW294486   6.309   1.674   6.990  0.5680  0.6666 -0.0666
60921SOL     OW94487  11.096   8.916  13.554  0.9550 -0.3380 -0.4457
60921SOL    HW194488  11.042   8.890  13.629  1.9244  0.5715  0.5968
60921SOL    HW294489  11.053   8.994  13.519  0.4328 -0.8331 -0.9461
60922SOL     OW94490   3.953  11.532   5.569 -0.1137  1.0868 -0.0353
60922SOL    HW194491   3.910  11.608   5.608  0.3674  0.7914  1.1111
60922SOL    HW294492   3.999  11.568   5.493  0.0632  1.9448  0.4552
60923SOL     OW94493   4.531  13.097   3.009  0.3106 -0.4212  0.9226
60923SOL    HW194494   4.452  13.056   3.043 -2.3082  0.9397 -2.8084
60923SOL    HW294495   4.571  13.031   2.953  0.0896 -0.1811  0.4719
60924SOL     OW94496  10.989   4.145   9.632 -0.3245 -0.4486 -0.5020
60924SOL    HW194497  11.054   4.141   9.702 -0.4050 -2.2515 -0.4791
60924SOL    HW294498  11.008   4.227   9.586 -0.7674  1.2089  2.0696
60925SOL     OW94499   4.896   2.555  13.621 -1.1556  0.4547  0.0696
60925SOL    HW194500   4.852   2.553  13.706  0.0102 -2.7683  0.7468
60925SOL    HW294501   4.989   2.551  13.643 -0.8552 -1.4309 -1.2910
60926SOL     OW94502   8.044   5.910   3.556  0.0332  0.7172  0.2998
60926SOL    HW194503   8.060   5.996   3.594  1.0646  0.4106  0.5894
60926SOL    HW294504   8.122   5.892   3.502  0.2789 -0.4321  1.0006
60927SOL     OW94505  11.686  12.853   4.342 -0.3681  0.4168 -0.0945
60927SOL    HW194506  11.658  12.932   4.295 -1.5031 -0.1690 -0.4477
60927SOL    HW294507  11.610  12.795   4.338  0.3022 -0.5327  0.5299
60928SOL     OW94508   3.284   8.437  11.174  0.1069  0.0508  0.3978
60928SOL    HW194509   3.324   8.517  11.139  0.8577  0.2065  1.5445
60928SOL    HW294510   3.355   8.395  11.223 -0.0869 -1.6613 -0.6869
60929SOL     OW94511   5.020   1.495   6.126  0.5236  0.1990 -0.3819
60929SOL    HW194512   4.965   1.510   6.049 -0.4459 -1.3126 -0.0109
60929SOL    HW294513   4.994   1.564   6.188 -0.9071 -0.4186 -0.2581
60930SOL     OW94514  11.942   8.998   6.050  0.0942 -0.4478 -0.1479
60930SOL    HW194515  11.855   8.967   6.025  0.0251  0.0681 -0.5660
60930SOL    HW294516  12.001   8.958   5.985  0.1320 -0.5078 -0.0786
60931SOL     OW94517  11.378   6.077  11.142  0.1011 -0.0474  0.0776
60931SOL    HW194518  11.356   6.111  11.055 -0.6200  1.7641  0.9297
60931SOL    HW294519  11.473   6.067  11.140  0.1314  0.3216 -0.7944
60932SOL     OW94520   2.191   3.514   8.428 -0.1249  0.2588  0.2277
60932SOL    HW194521   2.256   3.455   8.466 -0.4553  0.3163  0.8845
60932SOL    HW294522   2.109   3.464   8.428 -0.2521  0.4650  0.1180
60933SOL     OW94523   1.814  12.727   7.082  0.0290 -0.7660  0.1437
60933SOL    HW194524   1.792  12.766   6.997  0.1648  1.3551  1.0151
60933SOL    HW294525   1.897  12.683   7.067  1.7094  2.2299 -0.2081
60934SOL     OW94526   3.161  11.610  11.639 -0.2996  0.0820  0.0272
60934SOL    HW194527   3.227  11.652  11.694  2.0287 -1.8213 -1.1463
60934SOL    HW294528   3.176  11.645  11.551 -0.7025 -0.5526 -0.3061
60935SOL     OW94529   9.188   1.496   2.994 -0.0229  0.7074  0.1969
60935SOL    HW194530   9.137   1.578   2.991 -1.1941 -0.0244 -1.2506
60935SOL    HW294531   9.126   1.430   3.024  0.9250  0.3228  1.3869
60936SOL     OW94532   4.751   3.284  12.682  0.4389 -0.6233 -0.0188
60936SOL    HW194533   4.824   3.340  12.710  0.6836 -0.9494 -0.0073
60936SOL    HW294534   4.784   3.195  12.689  1.0420 -0.7122 -2.6650
60937SOL     OW94535   5.808   2.425   7.223  0.2147  0.2119  0.4766
60937SOL    HW194536   5.768   2.461   7.143  0.7439 -1.5523 -0.6442
60937SOL    HW294537   5.737   2.374   7.264  0.4677 -0.4669  0.0832
60938SOL     OW94538  12.471  10.399   9.118 -0.5359  0.7948  0.4166
60938SOL    HW194539  12.519  10.318   9.134  0.4135  1.3160  0.2636
60938SOL    HW294540  12.480  10.449   9.199 -2.1891  0.2415  0.9845
60939SOL     OW94541   0.871   0.383   9.225 -0.1222 -0.3355 -0.0939
60939SOL    HW194542   0.940   0.360   9.287  1.3266  0.2316 -1.4171
60939SOL    HW294543   0.789   0.365   9.271  0.8113 -4.4750  0.3489
60940SOL     OW94544   1.592  10.302  11.487 -0.4215 -0.3105  0.3320
60940SOL    HW194545   1.579  10.207  11.488 -0.2552 -0.4096  3.5824
60940SOL    HW294546   1.507  10.338  11.458 -0.8229 -1.3918  0.1192
60941SOL     OW94547   1.436   4.824   7.529  0.9881 -0.3660 -0.0760
60941SOL    HW194548   1.513   4.800   7.580 -0.0042  0.0504  1.7052
60941SOL    HW294549   1.428   4.919   7.541  0.1218 -0.4231 -0.1244
60942SOL     OW94550   7.012  11.837   6.073 -0.1959  0.1051 -0.1074
60942SOL    HW194551   6.954  11.872   6.141 -1.2371  1.1442 -1.4701
60942SOL    HW294552   7.018  11.908   6.009 -1.2578 -1.6759 -2.3143
60943SOL     OW94553   0.049   4.436   5.077 -0.5082  0.2120  0.0149
60943SOL    HW194554  -0.027   4.491   5.060 -0.6350 -0.1172 -0.5309
60943SOL    HW294555   0.121   4.480   5.032 -1.1020 -1.3553 -2.7061
60944SOL     OW94556   6.505   0.383   2.199  0.0562  0.7171 -0.0504
60944SOL    HW194557   6.453   0.343   2.129  0.2108 -1.0042  0.7906
60944SOL    HW294558   6.440   0.418   2.260 -0.0764  1.0223 -0.3563
60945SOL     OW94559   9.933   6.223  12.075  0.6106  0.2979  0.1727
60945SOL    HW194560   9.972   6.270  12.001 -0.8172  1.4493  0.0858
60945SOL    HW294561   9.979   6.257  12.151  2.8853 -1.7263 -0.1901
60946SOL     OW94562  13.596   3.979   7.731  0.6877 -0.5259  0.5074
60946SOL    HW194563  13.556   4.065   7.747  0.4987 -0.5535  0.1888
60946SOL    HW294564  13.545   3.942   7.659 -1.0071 -2.0267  2.3476
60947SOL     OW94565   2.059   3.672   6.069  0.2618 -0.0966  0.1130
60947SOL    HW194566   1.972   3.712   6.058  0.4225 -0.0362 -1.0151
60947SOL    HW294567   2.092   3.710   6.150  0.3228  1.9508 -0.7968
60948SOL     OW94568   2.059   8.950   1.998  0.9777  0.0139  0.2117
60948SOL    HW194569   2.134   8.982   2.047  1.0315 -0.5500  0.5017
60948SOL    HW294570   2.091   8.871   1.953  0.6966  0.0437 -0.0455
60949SOL     OW94571   0.248  11.000  11.921  0.2674  0.0716 -0.0399
60949SOL    HW194572   0.324  11.029  11.870 -0.0104  0.5213 -0.2083
60949SOL    HW294573   0.279  10.925  11.970  0.8659  0.3462  0.0106
60950SOL     OW94574  12.778   8.960   6.034  0.5951 -0.0332 -0.1902
60950SOL    HW194575  12.777   8.866   6.053  1.7153 -0.1155 -0.4879
60950SOL    HW294576  12.808   8.966   5.944 -0.6743  0.5645 -0.5953
60951SOL     OW94577   0.438   3.531  11.521  0.2980  0.2337  0.1956
60951SOL    HW194578   0.490   3.543  11.600  2.8252 -0.2310 -1.2790
60951SOL    HW294579   0.459   3.607  11.467  0.0097 -0.3348 -0.7405
60952SOL     OW94580   0.005  12.314   5.569 -0.0950  0.5564  0.4324
60952SOL    HW194581  -0.081  12.301   5.529  0.5159 -0.2756 -0.6635
60952SOL    HW294582   0.063  12.337   5.495  0.7476  0.4802  1.0516
60953SOL     OW94583   0.801   7.777  12.685 -0.3091 -0.2532  0.2958
60953SOL    HW194584   0.783   7.862  12.645  0.2733 -0.1322  0.2763
60953SOL    HW294585   0.878   7.744  12.638 -0.7369 -0.9450  0.0764
60954SOL     OW94586   9.412   0.642   3.050  0.8560  0.0157 -0.2778
60954SOL    HW194587   9.404   0.619   3.142  0.1645  3.6068  0.7335
60954SOL    HW294588   9.427   0.559   3.005  0.9823 -1.9001  3.0024
60955SOL     OW94589   2.938   5.780   5.556  0.9749 -0.1832 -0.3097
60955SOL    HW194590   3.000   5.785   5.483  0.8093 -1.7805 -0.6000
60955SOL    HW294591   2.853   5.768   5.515  0.3480  2.2821  0.0767
60956SOL     OW94592   4.248  12.720   9.360  0.1301 -0.2334 -0.5020
60956SOL    HW194593   4.203  12.656   9.304  0.6448  0.1536 -1.3643
60956SOL    HW294594   4.273  12.670   9.437 -0.8752 -0.6995 -0.4537
60957SOL     OW94595  12.037   1.728   4.023 -0.4368  0.8571 -0.2647
60957SOL    HW194596  12.075   1.661   3.966 -0.9255 -0.0294  0.4351
60957SOL    HW294597  12.099   1.737   4.095 -1.1236  0.0222  0.4415
60958SOL     OW94598   3.569   0.809  11.845 -0.7683  0.2046 -0.5055
60958SOL    HW194599   3.495   0.791  11.903 -0.4269 -0.6007 -0.2993
60958SOL    HW294600   3.626   0.866  11.897  0.1348 -1.5048  0.4755
60959SOL     OW94601   6.584   0.819   5.066 -0.0920 -0.0510 -0.6410
60959SOL    HW194602   6.567   0.751   5.001 -1.7629 -0.1629 -0.1468
60959SOL    HW294603   6.630   0.888   5.018 -1.3840 -0.0760 -2.0017
60960SOL     OW94604   1.755   3.428  11.133  0.0473  0.2477  0.1820
60960SOL    HW194605   1.695   3.431  11.208  0.2363  1.9192  0.3151
60960SOL    HW294606   1.745   3.514  11.092  2.2359  0.5415  0.1320
60961SOL     OW94607   1.800   4.798  11.796 -0.4187  0.1291 -0.3068
60961SOL    HW194608   1.749   4.876  11.816 -0.1558  0.4145 -0.7192
60961SOL    HW294609   1.845   4.777  11.878 -1.5315 -0.3981  0.1932
60962SOL     OW94610   6.984  13.357   6.547 -0.0245  0.2060 -0.1142
60962SOL    HW194611   6.965  13.263   6.549 -2.3743  0.6018 -0.1862
60962SOL    HW294612   7.014  13.374   6.457 -1.7074 -0.1750 -0.7911
60963SOL     OW94613   1.025  10.157   0.957 -0.5516  0.2471 -0.0981
60963SOL    HW194614   0.975  10.098   1.013 -0.1759 -0.6484 -0.6731
60963SOL    HW294615   1.039  10.235   1.010  0.6322 -0.9412  1.4133
60964SOL     OW94616  12.915   5.647   2.466 -0.1876 -0.0931  0.9348
60964SOL    HW194617  12.928   5.739   2.446  0.5103 -0.2432  0.6570
60964SOL    HW294618  12.985   5.602   2.418 -1.9312 -1.0134 -0.9198
60965SOL     OW94619   2.475   2.633   3.735  0.0773 -0.3610  0.3103
60965SOL    HW194620   2.390   2.607   3.770  0.5832  0.2111  2.0492
60965SOL    HW294621   2.453   2.686   3.658 -1.1551 -0.0811  0.8288
60966SOL     OW94622   1.235   0.060   3.617 -0.0398  0.0330 -0.3000
60966SOL    HW194623   1.226  -0.010   3.552 -0.2903 -0.1547 -0.0644
60966SOL    HW294624   1.146   0.079   3.645  0.0741  0.0440  0.0621
60967SOL     OW94625   4.974   8.551  10.024  0.1097 -0.0092  0.2047
60967SOL    HW194626   4.932   8.479   9.977  0.8766 -0.0072 -0.5171
60967SOL    HW294627   5.032   8.507  10.087  1.2458 -0.0600 -0.8388
60968SOL     OW94628   5.425   3.131   5.159  0.0817 -0.0951  0.0866
60968SOL    HW194629   5.461   3.194   5.098 -0.0584  1.5973  1.6661
60968SOL    HW294630   5.451   3.163   5.245 -0.7614 -1.7069  1.0004
60969SOL     OW94631   7.566   0.741   1.786  0.0462  0.0235  0.3517
60969SOL    HW194632   7.592   0.760   1.696  0.1499  1.2457  0.6126
60969SOL    HW294633   7.646   0.752   1.838 -0.8049  4.0266  1.1855
60970SOL     OW94634   1.471  10.982   6.582  0.7184  0.2365  0.5669
60970SOL    HW194635   1.376  10.977   6.587  0.6386  1.3730  0.3634
60970SOL    HW294636   1.493  11.069   6.614  1.7178 -0.1035  0.8583
60971SOL     OW94637   6.475  10.573   7.895 -0.2152  0.7310 -0.2188
60971SOL    HW194638   6.489  10.486   7.931  1.5422 -0.6620 -3.8446
60971SOL    HW294639   6.555  10.621   7.916  1.0365 -0.2448 -2.4500
60972SOL     OW94640   9.412  10.974  10.027 -0.3752 -0.4144 -0.0929
60972SOL    HW194641   9.335  11.031  10.026  0.8745  1.3497  0.2827
60972SOL    HW294642   9.431  10.961  10.120 -1.2095 -2.3055 -0.1437
60973SOL     OW94643   5.743  10.690   7.413  0.3741 -0.7076  0.1371
60973SOL    HW194644   5.816  10.652   7.461  0.0471 -1.3075  0.1732
60973SOL    HW294645   5.780  10.767   7.369  1.0767 -1.1294 -0.0269
60974SOL     OW94646   6.088   0.267   6.569  0.0139  0.2683  0.0488
60974SOL    HW194647   5.998   0.280   6.598 -0.0733 -0.6284  0.2069
60974SOL    HW294648   6.129   0.354   6.577 -0.7794  0.6416  0.1360
60975SOL     OW94649  10.311   4.834   4.198  0.2248 -0.2471  0.9547
60975SOL    HW194650  10.338   4.789   4.278 -0.7619 -1.2206  0.7573
60975SOL    HW294651  10.355   4.787   4.128  0.0296 -0.2277  0.8202
60976SOL     OW94652  10.613   4.354  12.944  1.3078  0.8635 -0.5263
60976SOL    HW194653  10.642   4.324  12.857  1.8461 -0.8842  0.2122
60976SOL    HW294654  10.663   4.434  12.959  2.7726  0.0790 -0.9849
60977SOL     OW94655   9.465   8.141   9.349  0.3000 -0.6848  0.3187
60977SOL    HW194656   9.442   8.165   9.439  1.2346  2.1757 -0.0888
60977SOL    HW294657   9.547   8.092   9.358 -0.3507 -1.6735  1.0751
60978SOL     OW94658   9.594   9.164  10.254  0.1830 -0.3387  0.2614
60978SOL    HW194659   9.687   9.187  10.265  1.7584 -5.1390 -0.8106
60978SOL    HW294660   9.578   9.171  10.160  0.0339 -1.2573  0.2111
60979SOL     OW94661  12.876   6.239  12.897  0.0213 -0.3831 -0.2767
60979SOL    HW194662  12.970   6.231  12.916 -0.0347 -0.7406 -0.1557
60979SOL    HW294663  12.868   6.213  12.805 -0.1969 -2.0277  0.1831
60980SOL     OW94664  13.228   7.058   0.730 -0.2045  0.1446  0.3287
60980SOL    HW194665  13.265   7.130   0.781  1.6024 -0.1001 -0.5713
60980SOL    HW294666  13.248   6.979   0.781  0.5990  0.0086 -0.1773
60981SOL     OW94667   2.077   8.287  12.840  0.0160 -0.0092  0.0282
60981SOL    HW194668   2.000   8.296  12.784  0.1004 -2.8881 -0.7092
60981SOL    HW294669   2.145   8.338  12.795 -0.8219  0.6111 -0.5791
60982SOL     OW94670   5.860   8.055  13.567 -0.3158 -0.1670 -0.2334
60982SOL    HW194671   5.798   8.034  13.637  0.5142  1.2386  0.9806
60982SOL    HW294672   5.897   7.971  13.542  0.9006 -0.5629  2.5207
60983SOL     OW94673   1.153  10.739   0.247  0.2134  0.1047  0.5354
60983SOL    HW194674   1.239  10.777   0.234 -0.6137  1.7622 -0.4599
60983SOL    HW294675   1.100  10.809   0.285 -0.8985 -0.6122  0.3842
60984SOL     OW94676  10.884  13.248   5.529  0.3052  0.1087 -0.5928
60984SOL    HW194677  10.838  13.301   5.594  0.3937 -1.3264  0.7118
60984SOL    HW294678  10.905  13.309   5.459  0.7338  1.8823  0.9769
60985SOL     OW94679  13.008   4.098  13.015  0.0740 -0.3146  0.0130
60985SOL    HW194680  13.012   4.113  12.921  0.5618  0.2393  0.1187
60985SOL    HW294681  12.953   4.169  13.048  1.4253  0.6072  0.3674
60986SOL     OW94682   2.294   6.090   1.127 -0.3018 -0.7749 -0.0484
60986SOL    HW194683   2.358   6.150   1.165 -0.4421 -0.5836 -0.1142
60986SOL    HW294684   2.209   6.122   1.157 -0.4364 -0.4403 -0.7541
60987SOL     OW94685  12.148  11.451  11.393  0.5652 -0.2966 -0.2377
60987SOL    HW194686  12.196  11.380  11.435 -2.2848 -1.5070  1.2447
60987SOL    HW294687  12.107  11.410  11.316  0.7202  0.3292 -0.6618
60988SOL     OW94688  13.503   0.176   4.734  0.1692 -0.3766 -0.1033
60988SOL    HW194689  13.598   0.170   4.746  0.1576 -0.2200  0.0662
60988SOL    HW294690  13.488   0.142   4.646  0.5879  1.4658 -0.9130
60989SOL     OW94691   9.996   1.237  12.970 -0.5197 -0.1582 -0.2838
60989SOL    HW194692   9.996   1.323  13.014  0.0387 -0.4222  0.2477
60989SOL    HW294693   9.952   1.253  12.886  1.1814  1.0782 -1.0039
60990SOL     OW94694  11.454   9.608   0.618  0.3018 -0.0454  0.0385
60990SOL    HW194695  11.380   9.631   0.675  0.7587  0.2376  0.5204
60990SOL    HW294696  11.523   9.669   0.643  0.1628  0.8333 -1.5693
60991SOL     OW94697   5.262  11.108   3.819 -0.5186  0.5042  0.1866
60991SOL    HW194698   5.281  11.181   3.878 -0.6843  0.5556  0.1750
60991SOL    HW294699   5.208  11.146   3.750 -1.3661  0.1770  0.6599
60992SOL     OW94700   8.560   0.337   4.216  0.0413 -0.3170 -0.1348
60992SOL    HW194701   8.538   0.377   4.299 -0.4559 -0.4894 -0.1824
60992SOL    HW294702   8.641   0.288   4.233  0.2537  0.1182  0.0973
60993SOL     OW94703  10.793  12.795   8.822 -0.3394 -0.3572  0.5176
60993SOL    HW194704  10.843  12.789   8.741  2.6092  0.7648  2.0860
60993SOL    HW294705  10.786  12.889   8.838  0.1630 -0.5563  2.0951
60994SOL     OW94706   5.345  10.751   2.234  0.3945  0.1926 -0.3407
60994SOL    HW194707   5.296  10.670   2.215  1.1794 -1.0741  2.4617
60994SOL    HW294708   5.432  10.720   2.261  1.2230  2.1161 -0.6543
60995SOL     OW94709   3.566  12.878   1.368  0.2316 -0.1532 -0.1186
60995SOL    HW194710   3.493  12.925   1.410  1.4741  1.7133  0.0808
60995SOL    HW294711   3.542  12.786   1.375 -1.2421  0.2915  1.5946
60996SOL     OW94712  12.126  13.179   7.441 -0.6652 -0.3540 -0.0838
60996SOL    HW194713  12.049  13.141   7.398 -0.2512  0.4437 -1.6097
60996SOL    HW294714  12.176  13.219   7.370  1.6148 -1.5764  0.7103
60997SOL     OW94715   7.065   1.728  11.135 -0.1094 -0.6765  0.2452
60997SOL    HW194716   7.045   1.803  11.190 -0.6684 -1.6508  1.4126
60997SOL    HW294717   7.092   1.660  11.195  0.4856 -1.3934 -0.7993
60998SOL     OW94718   1.618   8.805  10.038 -0.3208 -0.7114 -0.0033
60998SOL    HW194719   1.704   8.794  10.080 -0.0553 -0.2866 -0.4121
60998SOL    HW294720   1.565   8.849  10.104  0.7153  1.8939 -0.7517
60999SOL     OW94721   4.995   5.082   8.764 -0.2064  0.0503 -0.8622
60999SOL    HW194722   5.018   4.989   8.758  0.5701  0.2872 -1.7462
60999SOL    HW294723   4.968   5.106   8.676  1.9551  1.2398 -1.2759
61000SOL     OW94724   6.424  11.610   9.401  0.1966  0.1678  0.4755
61000SOL    HW194725   6.412  11.620   9.306 -0.1203 -0.3218  0.4624
61000SOL    HW294726   6.506  11.562   9.409 -1.4346 -2.8777  0.3036
61001SOL     OW94727   7.754   6.078  11.229  0.1467  0.1639  0.3115
61001SOL    HW194728   7.810   6.002  11.245 -0.8335 -0.6655 -0.1222
61001SOL    HW294729   7.774   6.104  11.139  0.4573  0.4052  0.4483
61002SOL     OW94730   7.700  10.129   1.731  0.2910  0.1320  0.3190
61002SOL    HW194731   7.769  10.123   1.665  0.9676  1.8800  0.7925
61002SOL    HW294732   7.648  10.050   1.720  0.4109  0.3404 -2.2713
61003SOL     OW94733   7.998   4.463   1.950 -0.3465  0.9602  0.3816
61003SOL    HW194734   7.908   4.440   1.928 -0.0333  1.0349 -1.1075
61003SOL    HW294735   8.018   4.538   1.894  0.6070  1.0097  0.7643
61004SOL     OW94736   3.128  13.043   2.662 -0.2584  0.2862  0.1501
61004SOL    HW194737   3.063  13.058   2.730 -0.1083  0.5642  0.2315
61004SOL    HW294738   3.193  12.985   2.702  0.8596  1.9588  0.8992
61005SOL     OW94739   9.967  12.378   4.958 -0.4981 -0.0188 -0.0067
61005SOL    HW194740   9.917  12.399   5.036 -0.2390  0.3694  0.0562
61005SOL    HW294741  10.023  12.305   4.985 -2.1400 -1.5553 -0.5170
61006SOL     OW94742  10.282   2.829   8.042  0.4919  0.2512  0.3263
61006SOL    HW194743  10.314   2.877   8.118 -0.1665 -0.5190  1.0957
61006SOL    HW294744  10.361   2.811   7.990  0.7562  2.0927  0.0371
61007SOL     OW94745  12.389  10.987   9.721  0.1903 -0.5054  0.0696
61007SOL    HW194746  12.458  10.998   9.786 -0.3000  0.3664  0.4555
61007SOL    HW294747  12.357  11.076   9.705 -1.8350 -1.0089  1.0017
61008SOL     OW94748  11.985  12.069  10.643  0.4667  0.0354  0.0455
61008SOL    HW194749  12.022  11.983  10.625  1.0184  0.4587 -0.9261
61008SOL    HW294750  11.928  12.055  10.719  2.0521 -0.7878  1.1573
61009SOL     OW94751  10.805   4.408   5.427 -0.2743 -0.0459 -0.1941
61009SOL    HW194752  10.802   4.313   5.418  2.0912 -0.2526  0.6019
61009SOL    HW294753  10.804   4.440   5.336 -0.9661 -0.7959 -0.4707
61010SOL     OW94754   8.812   0.184   6.880  0.6261  0.2372 -0.0439
61010SOL    HW194755   8.790   0.194   6.972  2.2722 -0.1745  0.4255
61010SOL    HW294756   8.749   0.120   6.847 -0.5593  1.0683  0.5444
61011SOL     OW94757  12.141   4.771   9.553 -0.1777  0.3741  0.2277
61011SOL    HW194758  12.170   4.754   9.464  0.0907  0.6932  0.2522
61011SOL    HW294759  12.139   4.867   9.560 -1.1111  0.3637  0.2653
61012SOL     OW94760  11.966   9.559  12.913 -0.3788  0.1448 -0.4124
61012SOL    HW194761  12.029   9.541  12.983 -0.4413  0.9060 -0.1515
61012SOL    HW294762  11.927   9.474  12.893 -0.4293 -0.0636  0.5487
61013SOL     OW94763   0.290  10.170   9.879 -0.0298  0.3460 -1.0833
61013SOL    HW194764   0.371  10.153   9.831  1.3926  0.2041  1.2025
61013SOL    HW294765   0.266  10.085   9.918 -0.7826  0.5765 -1.0175
61014SOL     OW94766   5.426   8.577   6.036  0.4710 -0.3273  0.6745
61014SOL    HW194767   5.429   8.493   6.081 -0.9872 -0.8320 -0.1208
61014SOL    HW294768   5.418   8.642   6.106 -0.2823 -0.9912  1.2107
61015SOL     OW94769   9.544   4.471   2.843 -0.7290  0.3243  0.8207
61015SOL    HW194770   9.579   4.384   2.858 -0.1302  0.7071  1.7134
61015SOL    HW294771   9.450   4.459   2.840 -0.6234 -0.4432  0.2751
61016SOL     OW94772   9.502   7.854   2.756 -0.8892  0.6674  0.3452
61016SOL    HW194773   9.569   7.910   2.794 -0.6735  1.1968 -0.7627
61016SOL    HW294774   9.463   7.907   2.687 -2.8606  0.5874  1.3368
61017SOL     OW94775   4.694  10.388   1.392 -0.5586 -0.6196  0.5051
61017SOL    HW194776   4.702  10.421   1.303  0.1718 -1.6705  0.1557
61017SOL    HW294777   4.648  10.457   1.440  1.3040  1.0912 -0.0429
61018SOL     OW94778   7.320   1.418   4.401 -0.5532  0.5893  0.0408
61018SOL    HW194779   7.241   1.454   4.362 -0.8909  0.9742  1.0579
61018SOL    HW294780   7.364   1.373   4.329 -1.6834  0.3859 -0.5349
61019SOL     OW94781   0.624   5.441  12.946  0.5853  0.9562 -0.6651
61019SOL    HW194782   0.529   5.454  12.943  0.9260  4.0390 -2.9267
61019SOL    HW294783   0.656   5.515  12.997  1.7752 -0.9985  1.6153
61020SOL     OW94784   0.991   4.516   9.947  0.1635  0.0448  0.3223
61020SOL    HW194785   1.072   4.489   9.904  0.8764  1.0915  0.9417
61020SOL    HW294786   0.985   4.610   9.930  0.9968  0.7253  3.2328
61021SOL     OW94787  10.862   1.975   1.020 -0.0300 -0.1309  0.2187
61021SOL    HW194788  10.812   2.001   0.943  0.5762  1.8564  0.4369
61021SOL    HW294789  10.798   1.931   1.076 -1.0743  0.6494 -0.3245
61022SOL     OW94790   1.380   2.271   2.898  0.2266 -0.3693 -0.2203
61022SOL    HW194791   1.463   2.315   2.883 -0.7403  1.4043 -0.6303
61022SOL    HW294792   1.360   2.228   2.815  0.0492  0.4369 -0.6065
61023SOL     OW94793  10.042   7.557  10.460 -0.1622 -0.2838  0.8650
61023SOL    HW194794  10.034   7.467  10.429  1.2001 -0.4592  0.9424
61023SOL    HW294795  10.005   7.610  10.390  0.5504 -0.8195  0.0615
61024SOL     OW94796  12.703  13.030  12.977  0.0820  0.5594 -0.4638
61024SOL    HW194797  12.729  13.118  12.949 -2.6109  1.0261 -1.8389
61024SOL    HW294798  12.685  13.039  13.070  1.2460  1.0722 -0.2726
61025SOL     OW94799  13.150  11.467   5.980  0.0713  0.3955 -0.1957
61025SOL    HW194800  13.057  11.461   6.003  0.2318 -1.0066  0.1927
61025SOL    HW294801  13.164  11.396   5.918  1.0394  0.1028  0.3285
61026SOL     OW94802   0.796   2.182  11.413 -0.3768  0.0126  0.1501
61026SOL    HW194803   0.800   2.161  11.506 -0.2124  1.1542  0.4273
61026SOL    HW294804   0.712   2.228  11.403 -0.2127  0.2486 -0.1738
61027SOL     OW94805   4.765  10.098   6.673 -0.1928 -0.2248  0.2181
61027SOL    HW194806   4.728  10.173   6.627  1.7319  0.9983  0.5431
61027SOL    HW294807   4.689  10.054   6.712 -1.5779  0.3285 -1.7115
61028SOL     OW94808   1.465   3.196   0.472  1.0046  0.2787 -0.0716
61028SOL    HW194809   1.374   3.170   0.453  0.4741  2.0293 -0.1011
61028SOL    HW294810   1.483   3.157   0.557 -0.1768  0.7629  0.4317
61029SOL     OW94811   5.098   3.901   9.346 -0.6669 -0.9714 -0.3708
61029SOL    HW194812   5.037   3.832   9.375 -0.8114 -1.7973 -2.4785
61029SOL    HW294813   5.185   3.862   9.359 -0.6862 -0.9435 -0.1414
61030SOL     OW94814   1.500   5.978   8.872  0.1678 -0.3119  0.3655
61030SOL    HW194815   1.432   6.005   8.811  1.1014 -1.3192 -1.1949
61030SOL    HW294816   1.535   6.060   8.906 -0.3509  0.2828 -0.4930
61031SOL     OW94817   5.099  12.122   4.166  0.1440 -0.6976  0.5935
61031SOL    HW194818   5.192  12.136   4.185  0.1904 -0.6920  0.3653
61031SOL    HW294819   5.092  12.131   4.071 -0.4364  1.4184  0.7707
61032SOL     OW94820   0.006   0.394  13.549 -0.2900  0.2668  0.0652
61032SOL    HW194821   0.057   0.314  13.535 -0.8837 -0.2338  0.6811
61032SOL    HW294822  -0.053   0.398  13.474 -1.4467 -0.8281  0.8644
61033SOL     OW94823  11.278   0.377  11.450 -0.3262 -0.4072  0.1283
61033SOL    HW194824  11.312   0.415  11.369 -0.9907 -2.1147 -1.0069
61033SOL    HW294825  11.319   0.429  11.520  0.9664  0.5336 -1.2625
61034SOL     OW94826  13.256  10.671   2.633 -0.5692  0.0316 -0.1485
61034SOL    HW194827  13.188  10.604   2.644  0.5313 -0.9938  0.5563
61034SOL    HW294828  13.241  10.731   2.706  0.5864 -1.3757  1.2973
61035SOL     OW94829   6.406   4.722  10.867 -0.0212 -0.2194 -0.1559
61035SOL    HW194830   6.396   4.746  10.775 -0.3677 -0.0945 -0.0889
61035SOL    HW294831   6.501   4.713  10.880  0.2555  2.1848  0.0531
61036SOL     OW94832  10.619   9.379   9.964 -0.3489  0.2738  0.2753
61036SOL    HW194833  10.555   9.309   9.970  0.9645 -1.0984 -0.8736
61036SOL    HW294834  10.594   9.429   9.886  0.2657 -0.5942 -0.4933
61037SOL     OW94835   5.017  12.942  13.640 -0.2638 -0.3423  0.2670
61037SOL    HW194836   5.021  13.006  13.710  1.5549 -0.0946 -0.0147
61037SOL    HW294837   5.033  12.993  13.560 -0.2954 -0.9185 -0.1119
61038SOL     OW94838   4.141  13.705   5.064  0.2800  0.3252 -0.0329
61038SOL    HW194839   4.060  13.752   5.083 -1.0149 -0.8860 -2.1935
61038SOL    HW294840   4.126  13.662   4.980  3.0819 -0.1850 -0.4018
61039SOL     OW94841   0.998   6.815   1.759  0.8938  0.5223 -0.2585
61039SOL    HW194842   0.910   6.845   1.782  1.2411 -0.4715  2.9045
61039SOL    HW294843   0.987   6.767   1.677 -1.5288  0.3725  0.0998
61040SOL     OW94844  11.416   4.904   8.193 -0.3143  0.8022  0.4929
61040SOL    HW194845  11.429   4.928   8.285  3.5487 -1.5577  0.8060
61040SOL    HW294846  11.410   4.987   8.147  1.0340  2.1730  2.5916
61041SOL     OW94847  12.594  11.351   5.220  0.0074 -0.7158  0.4882
61041SOL    HW194848  12.588  11.413   5.148 -1.2040 -0.2441  0.9678
61041SOL    HW294849  12.541  11.276   5.192  0.2849 -0.9206  0.5081
61042SOL     OW94850   6.810   4.729  10.334  0.1941  0.3089 -0.7831
61042SOL    HW194851   6.820   4.786  10.258  0.5052  0.3185 -0.7400
61042SOL    HW294852   6.900   4.716  10.366  0.1445 -0.3243 -0.8831
61043SOL     OW94853   4.923   3.262  12.459 -0.4253  0.3460 -0.3014
61043SOL    HW194854   4.839   3.279  12.502  0.0931  1.5924  0.2761
61043SOL    HW294855   4.988   3.280  12.526  0.3342  0.1868 -0.9787
61044SOL     OW94856   3.140   7.410   0.496  0.7057 -0.1903 -0.2689
61044SOL    HW194857   3.093   7.474   0.443 -0.1342 -1.0086 -0.5189
61044SOL    HW294858   3.214   7.383   0.442  1.1851  0.7053 -0.0828
61045SOL     OW94859   1.323   6.695   2.040  0.7002  0.1971  0.0525
61045SOL    HW194860   1.411   6.728   2.058  0.8492  0.6609 -1.4118
61045SOL    HW294861   1.279   6.768   1.996 -1.0036  0.5928  2.2713
61046SOL     OW94862   2.286  13.188   2.536 -0.2063 -0.1342 -0.0038
61046SOL    HW194863   2.203  13.212   2.577 -0.6547 -1.9402  0.2015
61046SOL    HW294864   2.274  13.208   2.443 -1.3201 -1.4451 -0.1696
61047SOL     OW94865   0.879   7.349   2.362 -0.0970 -0.1308 -0.1212
61047SOL    HW194866   0.814   7.348   2.292  0.0307  0.2690 -0.2467
61047SOL    HW294867   0.915   7.260   2.362  0.9525  0.2539 -1.5432
61048SOL     OW94868   0.573   8.290  12.276  0.5039  0.2008 -0.3893
61048SOL    HW194869   0.556   8.375  12.236 -1.5864  0.5406  1.0343
61048SOL    HW294870   0.669   8.284  12.280  0.7468  1.2473 -2.9470
61049SOL     OW94871   4.460  12.383   5.890  1.1947  0.6529 -0.4552
61049SOL    HW194872   4.469  12.339   5.975  0.5268 -1.9995 -1.6437
61049SOL    HW294873   4.533  12.349   5.838  0.0095  0.0039 -1.7811
61050SOL     OW94874   5.488  12.340   1.537 -0.2120 -0.1620  0.0285
61050SOL    HW194875   5.469  12.418   1.589 -2.2239 -0.1361 -0.6290
61050SOL    HW294876   5.445  12.356   1.453 -1.9406 -2.5180  0.3518
61051SOL     OW94877   7.839   2.367   1.113 -0.2259 -0.1324  0.1094
61051SOL    HW194878   7.775   2.413   1.169 -0.1739 -0.9026  0.8218
61051SOL    HW294879   7.789   2.297   1.072 -1.1959  2.4765 -3.7251
61052SOL     OW94880   9.958  11.548  11.886 -0.4731 -0.9304  0.4659
61052SOL    HW194881   9.988  11.457  11.880  0.2748 -0.6565 -0.1456
61052SOL    HW294882  10.011  11.586  11.957 -2.7362 -1.6782  2.6886
61053SOL     OW94883   5.123   4.444  10.095 -0.3534  0.4097  0.2140
61053SOL    HW194884   5.113   4.537  10.113 -1.8645 -0.1855  3.2442
61053SOL    HW294885   5.034   4.410  10.097  0.1962 -1.1586 -0.5477
61054SOL     OW94886   8.879  13.645  13.483  0.3582 -0.5789 -0.0712
61054SOL    HW194887   8.881  13.655  13.579  0.2553 -1.6347  0.0494
61054SOL    HW294888   8.787  13.654  13.460  0.2613 -1.2661  0.0402
61055SOL     OW94889   3.332   2.460  10.170  0.2279 -0.2244 -0.1664
61055SOL    HW194890   3.285   2.477  10.251  1.6972 -0.1848  0.7081
61055SOL    HW294891   3.339   2.546  10.128  0.1400 -0.1122  0.0459
61056SOL     OW94892   2.200   3.005   2.945 -0.1628  0.1921 -0.1229
61056SOL    HW194893   2.222   3.041   3.031 -1.0559  0.4417  0.0122
61056SOL    HW294894   2.232   2.915   2.948 -0.9114 -0.0626  0.7868
61057SOL     OW94895   1.699   2.472   9.096  0.0962 -0.5280 -0.2144
61057SOL    HW194896   1.629   2.527   9.061  0.7543  0.7056  0.3432
61057SOL    HW294897   1.676   2.459   9.188  0.2760 -0.6284 -0.1834
61058SOL     OW94898  11.087  11.571   4.170  0.3078 -0.1237 -0.1528
61058SOL    HW194899  11.042  11.498   4.128  1.0216 -0.6676  0.0077
61058SOL    HW294900  11.018  11.634   4.190 -0.4206 -1.0592  0.3451
61059SOL     OW94901   2.868   3.192   0.276 -0.1242 -0.0561  0.1014
61059SOL    HW194902   2.879   3.286   0.264 -0.7190 -0.1005 -0.8256
61059SOL    HW294903   2.948   3.154   0.239 -1.1103 -0.0696 -2.2028
61060SOL     OW94904   2.413   3.249   5.642  0.2323  0.1525  0.6219
61060SOL    HW194905   2.327   3.214   5.621 -0.0813  1.7944 -1.1574
61060SOL    HW294906   2.470   3.172   5.649 -0.9357 -0.8333 -0.3930
61061SOL     OW94907  10.373   6.096   9.615 -0.0065  0.2570 -0.0821
61061SOL    HW194908  10.462   6.095   9.648 -0.3151 -0.1710  0.7500
61061SOL    HW294909  10.337   6.010   9.636 -0.9391  0.7710  0.5106
61062SOL     OW94910  10.570  12.742   7.535 -0.0344 -0.4312  0.2517
61062SOL    HW194911  10.534  12.671   7.482 -0.2941  0.9755 -1.5710
61062SOL    HW294912  10.595  12.701   7.618 -1.0434 -2.4342 -0.3856
61063SOL     OW94913   0.415   8.588  11.819 -0.2193  0.4943  0.3259
61063SOL    HW194914   0.372   8.536  11.888 -1.5492  0.6099 -0.3796
61063SOL    HW294915   0.506   8.560  11.822 -0.6704 -1.0627  0.7199
61064SOL     OW94916  11.990  12.098   7.771  0.0600  0.1474  0.4303
61064SOL    HW194917  12.060  12.046   7.811 -0.8079 -1.3396  0.0652
61064SOL    HW294918  12.036  12.156   7.710  0.9778 -0.9772  0.0115
61065SOL     OW94919  13.106   0.147   3.431  0.1624 -0.3202 -0.1630
61065SOL    HW194920  13.058   0.205   3.491  0.6020 -0.1159 -0.0060
61065SOL    HW294921  13.053   0.067   3.428 -0.1325 -0.1366  0.0936
61066SOL     OW94922   3.165  11.215   9.911  0.0220  0.3571 -0.4228
61066SOL    HW194923   3.104  11.162   9.859 -1.1425  2.2858 -1.1655
61066SOL    HW294924   3.247  11.213   9.861  0.0189 -0.7606 -0.3986
61067SOL     OW94925   3.973  10.739   8.136 -0.0265  0.0629 -0.3665
61067SOL    HW194926   4.036  10.810   8.125 -1.6718  1.5948 -0.2349
61067SOL    HW294927   3.894  10.768   8.090 -1.8338 -0.2306  2.3110
61068SOL     OW94928   5.496   4.065  13.097 -0.3326  0.0943 -0.0594
61068SOL    HW194929   5.423   4.127  13.089  3.1697  4.7350 -0.2303
61068SOL    HW294930   5.518   4.042  13.007  0.7235  1.9788 -0.3492
61069SOL     OW94931   7.565   7.110   6.409  0.1613 -0.2433  0.2839
61069SOL    HW194932   7.593   7.165   6.483 -0.6794  0.3458  0.1759
61069SOL    HW294933   7.634   7.044   6.401  1.1320  0.7210  0.4941
61070SOL     OW94934  13.706   0.727   9.946  0.3996  0.2238  0.1420
61070SOL    HW194935  13.703   0.694  10.036 -0.1936  1.1842  0.4849
61070SOL    HW294936  13.621   0.703   9.909  0.2305  0.7593  0.1770
61071SOL     OW94937  10.454  11.825   0.725  0.1305 -0.1539  0.2003
61071SOL    HW194938  10.425  11.911   0.754  1.0760 -0.2146  1.4286
61071SOL    HW294939  10.550  11.833   0.719  0.0515 -0.4588 -1.9878
61072SOL     OW94940   8.422   2.707   3.942 -0.6143 -0.0032  0.0849
61072SOL    HW194941   8.348   2.702   4.003 -0.6338  0.2633  0.0870
61072SOL    HW294942   8.410   2.792   3.898 -1.2817 -0.7191 -1.1736
61073SOL     OW94943   1.800  10.642   1.798  0.1205 -0.5695 -0.2755
61073SOL    HW194944   1.713  10.644   1.758  0.6509  0.1459 -1.4396
61073SOL    HW294945   1.861  10.647   1.725  1.2127 -2.7819  0.3792
61074SOL     OW94946   8.252   1.082   1.659 -0.7516  0.8143  0.0615
61074SOL    HW194947   8.334   1.082   1.709  0.0187  0.6979 -1.1539
61074SOL    HW294948   8.212   0.997   1.679 -0.2324  0.5751  0.1169
61075SOL     OW94949   4.158  11.785  11.033  0.1917 -0.4981  0.4171
61075SOL    HW194950   4.216  11.775  11.109  2.0083  1.8446 -0.5135
61075SOL    HW294951   4.070  11.770  11.067  1.0488 -0.6600  2.7119
61076SOL     OW94952   1.105   6.142   8.441  0.0303  0.4583 -0.0454
61076SOL    HW194953   1.047   6.068   8.425  0.1656  0.1258  0.9331
61076SOL    HW294954   1.068   6.186   8.518  0.7143  0.6064  0.2083
61077SOL     OW94955  10.938  10.501   9.899  0.1413  0.2191  0.4036
61077SOL    HW194956  10.857  10.452   9.913  0.2576 -0.0157  0.2707
61077SOL    HW294957  10.962  10.482   9.808  0.3238  0.3138  0.4314
61078SOL     OW94958   6.320   0.306  12.590 -0.3114 -0.0255 -0.4964
61078SOL    HW194959   6.264   0.275  12.662  0.6219  0.7055  0.5789
61078SOL    HW294960   6.260   0.316  12.516 -1.4522 -0.0909  0.3847
61079SOL     OW94961   4.841  10.058  10.786  0.6569 -0.2912 -0.5474
61079SOL    HW194962   4.823  10.094  10.699  1.1452  0.7705 -0.2251
61079SOL    HW294963   4.755  10.029  10.818 -0.3475  3.0922  0.2484
61080SOL     OW94964   8.035   2.907   7.844 -0.1166 -0.1413  0.2095
61080SOL    HW194965   7.971   2.837   7.825 -1.1935  1.2536 -1.6620
61080SOL    HW294966   8.114   2.879   7.798  0.2658 -1.2546  1.4701
61081SOL     OW94967   7.842  12.912   8.702  0.9536  0.4465 -0.1619
61081SOL    HW194968   7.878  12.842   8.755  0.0640 -0.0388 -0.1744
61081SOL    HW294969   7.910  12.931   8.637  1.3493 -0.1520  0.0718
61082SOL     OW94970   6.277  13.377   2.380 -0.4137 -0.3231 -0.5190
61082SOL    HW194971   6.328  13.451   2.414  1.0015 -0.6393 -1.8628
61082SOL    HW294972   6.215  13.416   2.319 -1.3146 -0.0237  0.5474
61083SOL     OW94973   4.892  13.166   2.982 -0.4771  0.0239 -0.4332
61083SOL    HW194974   4.806  13.141   3.017 -1.2364  1.3631 -1.2669
61083SOL    HW294975   4.892  13.262   2.985  0.1409  0.1237 -2.3671
61084SOL     OW94976  10.499   9.128   9.938  0.3937  0.3139  0.6280
61084SOL    HW194977  10.511   9.033   9.938  0.1376  0.2747  1.3445
61084SOL    HW294978  10.404   9.140   9.932  0.4930  0.5514 -0.8108
61085SOL     OW94979   1.154   0.503   1.292 -0.4540 -0.2835 -0.5238
61085SOL    HW194980   1.241   0.493   1.255 -0.4253  0.1714 -0.5906
61085SOL    HW294981   1.113   0.417   1.282 -0.2568 -0.3106 -1.1206
61086SOL     OW94982  13.059   6.762   1.734 -0.0737  0.1433  0.3363
61086SOL    HW194983  13.017   6.731   1.814  2.6424 -1.9553  1.1327
61086SOL    HW294984  13.063   6.685   1.677  2.4768  0.2424  0.2803
61087SOL     OW94985   7.730   2.928   8.955  0.0771 -0.0724 -0.1415
61087SOL    HW194986   7.674   2.998   8.922  0.1209  0.2253  0.4033
61087SOL    HW294987   7.817   2.967   8.961  0.5105 -0.7436 -1.6735
61088SOL     OW94988   4.724   7.411   6.680  0.0672  0.2995 -0.1173
61088SOL    HW194989   4.716   7.348   6.608 -1.7131 -0.2105  0.4776
61088SOL    HW294990   4.797   7.378   6.732 -0.9609 -1.4334  0.3024
61089SOL     OW94991  11.098  12.460   4.690  0.0223 -0.4849 -0.2145
61089SOL    HW194992  11.143  12.395   4.744 -0.7444 -0.7262  0.1401
61089SOL    HW294993  11.094  12.419   4.603  0.0173 -0.6887 -0.1188
61090SOL     OW94994  11.418   5.905   4.841  0.4233  0.1429  0.0253
61090SOL    HW194995  11.512   5.919   4.833  0.3525  0.0931 -1.0888
61090SOL    HW294996  11.403   5.820   4.801 -0.3531  1.0812 -1.8018
61091SOL     OW94997  10.956   4.583  13.359  0.3454  0.1402 -0.1064
61091SOL    HW194998  10.927   4.536  13.437 -0.4563 -0.7900 -0.9372
61091SOL    HW294999  10.900   4.551  13.289  0.4949  1.5728 -0.9263
61092SOL     OW95000   2.459   0.256   4.944 -0.3803 -0.1950  0.2315
61092SOL    HW195001   2.443   0.334   4.997  0.8852 -0.7036  1.4465
61092SOL    HW295002   2.389   0.195   4.970 -0.9520  0.2656 -0.1982
61093SOL     OW95003   0.768   4.106   1.510  0.3105  0.7845  0.2625
61093SOL    HW195004   0.808   4.024   1.540 -0.8140  0.2721  0.4059
61093SOL    HW295005   0.733   4.086   1.424  1.7557  1.6938 -0.5841
61094SOL     OW95006   0.551   0.639   5.298  0.1460  0.4135  0.4519
61094SOL    HW195007   0.592   0.661   5.215 -1.1032  1.9060  0.1746
61094SOL    HW295008   0.492   0.566   5.277 -0.1697  0.7883  0.0100
61095SOL     OW95009   6.324   5.222   4.934 -0.3246 -0.6426  0.2465
61095SOL    HW195010   6.335   5.135   4.894 -0.4863 -0.8256  0.6016
61095SOL    HW295011   6.286   5.205   5.019 -1.1391 -0.1674 -0.0130
61096SOL     OW95012   4.383   0.300   7.260  1.0872  0.2469  0.1047
61096SOL    HW195013   4.317   0.297   7.191  2.2584 -0.9923 -1.0348
61096SOL    HW295014   4.337   0.274   7.340  0.3212 -1.3270 -0.8055
61097SOL     OW95015   9.838   8.445   3.923 -0.1038  0.3070 -0.5322
61097SOL    HW195016   9.902   8.381   3.893  0.0406  0.1909  0.0344
61097SOL    HW295017   9.754   8.401   3.915 -0.0839  0.3349 -0.9252
61098SOL     OW95018  10.368   6.817  12.097  0.0170  0.0524  0.1607
61098SOL    HW195019  10.289   6.763  12.088 -0.3543  0.1791  2.0742
61098SOL    HW295020  10.429   6.761  12.147  1.0103  0.1084 -0.9368
61099SOL     OW95021  13.377   1.400   0.213  0.3415  0.0560 -0.0150
61099SOL    HW195022  13.341   1.443   0.290 -0.7302  1.5676 -1.3026
61099SOL    HW295023  13.457   1.449   0.193  1.3798 -1.1936  0.8809
61100SOL     OW95024  10.402   0.226  10.341  0.2802  0.4031  0.0171
61100SOL    HW195025  10.464   0.246  10.411  0.2358  0.4676  0.0383
61100SOL    HW295026  10.332   0.178  10.384  0.6746 -0.3235 -0.1421
61101SOL     OW95027  11.011   7.090  11.017  0.4901 -0.2480 -0.4137
61101SOL    HW195028  11.049   7.010  11.051  0.6375  0.1215  0.2982
61101SOL    HW295029  11.078   7.125  10.958  0.9912  0.0670  0.3395
61102SOL     OW95030   4.537  11.902   4.658  0.2134 -0.1518 -0.4599
61102SOL    HW195031   4.614  11.883   4.605 -0.6431  2.8955 -3.1172
61102SOL    HW295032   4.464  11.862   4.611 -0.4034  1.4116 -0.8867
61103SOL     OW95033   2.037   7.499  11.735  0.7200 -0.0761  0.2356
61103SOL    HW195034   2.039   7.569  11.800  0.5436 -0.9670  1.2299
61103SOL    HW295035   2.106   7.438  11.762  0.7435 -0.3953 -0.4971
61104SOL     OW95036  11.672  10.152  11.151  0.0333 -0.2615 -0.2638
61104SOL    HW195037  11.731  10.092  11.106  0.0809  0.9399 -1.8732
61104SOL    HW295038  11.713  10.238  11.143 -2.5807  0.9435 -2.9122
61105SOL     OW95039  12.322  12.643   1.962  0.1548  0.1034 -0.0822
61105SOL    HW195040  12.365  12.689   1.890 -0.1275  1.4816  0.6072
61105SOL    HW295041  12.320  12.706   2.034  1.6004 -1.6560  1.5977
61106SOL     OW95042   6.077   1.737   5.571  0.4367 -0.3049  0.4074
61106SOL    HW195043   5.994   1.751   5.526  0.5011 -3.2311 -0.8957
61106SOL    HW295044   6.083   1.807   5.635 -1.6374  1.6799 -1.4186
61107SOL     OW95045   1.460  12.211   6.910  0.0702  0.1069 -0.6742
61107SOL    HW195046   1.454  12.125   6.952 -0.2861  0.7635  0.6575
61107SOL    HW295047   1.446  12.193   6.817 -0.4445 -1.2215 -0.3644
61108SOL     OW95048   6.221   9.267   6.715 -0.2525  0.2358 -0.0105
61108SOL    HW195049   6.138   9.315   6.719 -0.9243 -0.8357 -0.5310
61108SOL    HW295050   6.271   9.311   6.646 -0.7075  0.4198 -0.2293
61109SOL     OW95051   9.799   9.740   9.681 -0.1026 -0.0428  0.2630
61109SOL    HW195052   9.781   9.713   9.591 -0.6265  1.0888  0.0132
61109SOL    HW295053   9.875   9.798   9.675 -1.2858  1.5832  0.2622
61110SOL     OW95054   5.858  12.778  13.007 -0.0821  0.6535 -0.0840
61110SOL    HW195055   5.815  12.857  13.042 -1.4781 -0.7124  1.4555
61110SOL    HW295056   5.907  12.743  13.080  1.9908  0.9827 -1.2503
61111SOL     OW95057   8.196  11.244   7.824  0.1710 -0.6564 -0.8003
61111SOL    HW195058   8.162  11.306   7.888  1.2835  0.0545 -0.8815
61111SOL    HW295059   8.144  11.262   7.745  0.7511  0.4789 -0.9489
61112SOL     OW95060  13.109  10.848  12.104 -0.0770  0.3627 -0.1456
61112SOL    HW195061  13.049  10.775  12.090 -0.4436  0.4465  0.8746
61112SOL    HW295062  13.196  10.810  12.102 -0.3009 -0.6848  3.0992
61113SOL     OW95063   6.600   4.378   2.944 -0.0800  0.0758 -0.1765
61113SOL    HW195064   6.528   4.419   2.896 -0.0072 -0.0332 -0.3818
61113SOL    HW295065   6.562   4.353   3.028 -0.4930 -0.6713 -0.5673
61114SOL     OW95066   6.042   2.615  13.136  0.4230  0.1704 -0.1363
61114SOL    HW195067   6.061   2.605  13.229 -1.2296  1.1700  0.3587
61114SOL    HW295068   6.116   2.665  13.101  0.6170  0.5641  0.8275
61115SOL     OW95069   7.542   8.332  12.437 -0.4282 -0.0221 -0.4108
61115SOL    HW195070   7.457   8.377  12.430 -0.8002 -0.8539 -1.3865
61115SOL    HW295071   7.606   8.403  12.441 -1.1462  0.6201  0.2124
61116SOL     OW95072  12.384   7.194   2.363  0.1373 -0.2686 -0.7827
61116SOL    HW195073  12.334   7.244   2.298  0.2367 -0.4049 -0.9654
61116SOL    HW295074  12.331   7.199   2.443  1.9104  3.3203  0.3524
61117SOL     OW95075   9.758  12.214  11.341  0.1392 -0.1970  0.3512
61117SOL    HW195076   9.734  12.260  11.421  2.9748  1.8092  0.1845
61117SOL    HW295077   9.850  12.236  11.327  0.3419 -2.2154 -2.3316
61118SOL     OW95078   6.944   4.606  10.983 -0.3183 -0.0605  0.2077
61118SOL    HW195079   6.935   4.554  11.063  2.3653 -0.3904  0.4041
61118SOL    HW295080   7.026   4.654  10.996  0.6281 -0.7373 -2.6470
61119SOL     OW95081   6.979   9.056  13.007  0.1058  0.2523  0.1343
61119SOL    HW195082   6.918   9.121  13.041 -0.3290 -0.7240  1.2911
61119SOL    HW295083   7.065   9.087  13.035 -0.1506  0.0503  1.1625
61120SOL     OW95084   0.750   0.042  11.091  0.0988  0.4969  0.2361
61120SOL    HW195085   0.777   0.100  11.020 -0.4394  0.1818 -0.2355
61120SOL    HW295086   0.654   0.046  11.090  0.0133 -1.0694 -0.3857
61121SOL     OW95087   8.357   0.030  12.081 -0.4505 -0.6275 -0.1817
61121SOL    HW195088   8.383  -0.046  12.132 -0.2829 -0.6367 -0.2801
61121SOL    HW295089   8.263   0.018  12.066 -0.3995 -0.8791 -0.3021
61122SOL     OW95090  10.290  13.445  10.333  0.0037 -0.5071 -0.4016
61122SOL    HW195091  10.379  13.412  10.343 -0.3074 -1.5163 -0.8282
61122SOL    HW295092  10.301  13.538  10.313  0.8302  0.3856  3.4198
61123SOL     OW95093   8.742   0.104   5.636 -0.0607  0.3555  0.3746
61123SOL    HW195094   8.750   0.167   5.564 -0.7450  1.3512  1.1440
61123SOL    HW295095   8.745   0.019   5.593 -0.7304  0.9299 -0.8869
61124SOL     OW95096   4.371   0.786   3.881  0.6317  0.1672 -0.1587
61124SOL    HW195097   4.378   0.739   3.798  1.1724 -0.7912  0.4099
61124SOL    HW295098   4.278   0.778   3.905  0.7035 -0.5879 -0.0956
61125SOL     OW95099  12.535   5.644   2.806  0.6268 -0.0330  0.0824
61125SOL    HW195100  12.561   5.660   2.897  1.9131  0.7694 -0.4045
61125SOL    HW295101  12.604   5.684   2.754 -0.3146 -0.1004 -1.2625
61126SOL     OW95102   5.298  10.091   5.092 -0.2723 -0.2110  0.2681
61126SOL    HW195103   5.211  10.131   5.095 -0.6937 -1.0277 -0.6341
61126SOL    HW295104   5.356  10.163   5.067 -0.4684  0.6397  2.0826
61127SOL     OW95105  13.012   2.681   6.894  0.1827  0.1805 -0.0182
61127SOL    HW195106  13.050   2.674   6.981 -0.8912 -0.1948  0.4400
61127SOL    HW295107  13.078   2.728   6.842  0.5207  1.0871  1.1903
61128SOL     OW95108  11.141   8.411   8.509  0.4261  0.2143  0.4102
61128SOL    HW195109  11.121   8.456   8.592  0.0690 -0.0178  0.4532
61128SOL    HW295110  11.117   8.474   8.442 -2.3186 -0.7174  0.3979
61129SOL     OW95111   4.073   6.061   3.061 -0.3260  0.1738 -0.0634
61129SOL    HW195112   3.981   6.036   3.055 -0.2218 -0.5532  1.0897
61129SOL    HW295113   4.104   6.021   3.143  1.0095  0.4145 -0.4207
61130SOL     OW95114  10.153   7.279  10.342  0.2717 -0.0303 -0.7043
61130SOL    HW195115  10.089   7.228  10.394 -0.2678 -0.7363 -2.0090
61130SOL    HW295116  10.238   7.252  10.376 -0.0088 -1.7679 -1.2814
61131SOL     OW95117   4.629  12.037  12.156  0.2296  0.1146 -0.5371
61131SOL    HW195118   4.652  12.084  12.076 -0.0016 -0.7036 -1.0981
61131SOL    HW295119   4.603  12.106  12.217  2.9262  0.9891 -0.2585
61132SOL     OW95120   8.789   0.367   8.730  0.5106  0.0829 -0.5697
61132SOL    HW195121   8.855   0.417   8.777  0.2434 -0.6945  0.6678
61132SOL    HW295122   8.777   0.287   8.781 -1.0948  0.0183 -0.9638
61133SOL     OW95123   5.374   2.955  13.696  0.2892  0.2449 -0.0823
61133SOL    HW195124   5.418   2.871  13.710  1.4220  0.7784 -0.3226
61133SOL    HW295125   5.379   2.971  13.602 -1.9710 -0.4761 -0.3846
61134SOL     OW95126  11.314  12.975   4.235  0.3621 -0.0438 -0.2586
61134SOL    HW195127  11.251  13.011   4.298  0.0271 -0.5491 -0.2978
61134SOL    HW295128  11.265  12.970   4.153  0.8618  0.8203 -0.6318
61135SOL     OW95129  13.608  11.873   4.203 -0.4596 -0.1141 -0.0730
61135SOL    HW195130  13.684  11.919   4.239 -0.7436  0.2280  0.1013
61135SOL    HW295131  13.630  11.780   4.211 -0.2356 -0.0260  0.3529
61136SOL     OW95132   0.522   5.042   7.372 -0.2479 -0.4666 -0.0063
61136SOL    HW195133   0.440   4.994   7.382  0.0966 -1.1776 -0.5067
61136SOL    HW295134   0.510   5.121   7.425 -0.3458 -1.7030  1.9228
61137SOL     OW95135  12.495   4.737  11.184  0.7788  0.1253 -0.6315
61137SOL    HW195136  12.399   4.739  11.184  0.7641  0.4649 -2.1683
61137SOL    HW295137  12.521   4.818  11.228  0.3846 -0.2569  0.3408
61138SOL     OW95138   1.709   7.687  10.069 -0.4029 -0.1141  0.3355
61138SOL    HW195139   1.716   7.594  10.091  2.3885 -0.1475 -0.3810
61138SOL    HW295140   1.705   7.732  10.154  0.4292 -0.7694  0.7264
61139SOL     OW95141   2.540   8.472   7.669  0.1259  0.2161 -0.3387
61139SOL    HW195142   2.614   8.460   7.610  1.3948  1.6255  0.8848
61139SOL    HW295143   2.578   8.511   7.747 -1.6246 -0.8367  1.1139
61140SOL     OW95144  10.517   9.714   8.134  0.8160  0.0071  0.4566
61140SOL    HW195145  10.484   9.724   8.045  3.5650 -0.4901 -0.7197
61140SOL    HW295146  10.463   9.774   8.186 -1.8213 -0.7202 -1.2072
61141SOL     OW95147   8.600   1.344  11.084  0.1335  0.0148 -0.0495
61141SOL    HW195148   8.579   1.251  11.082  0.2699 -0.1350  2.6255
61141SOL    HW295149   8.695   1.347  11.084  0.1507  0.0463  1.4006
61142SOL     OW95150   3.741   9.384  13.420 -0.5297 -0.1951 -0.3842
61142SOL    HW195151   3.811   9.364  13.482 -0.1981  2.3596  0.1850
61142SOL    HW295152   3.664   9.338  13.454  0.3020 -1.1048  0.3136
61143SOL     OW95153   9.335   2.449   8.214 -0.2071  0.2378 -0.0221
61143SOL    HW195154   9.353   2.443   8.121  0.7080 -1.3071  0.2146
61143SOL    HW295155   9.304   2.361   8.238  1.0019  0.1607  1.3976
61144SOL     OW95156  13.607   7.409   6.300  0.2551  0.0758  0.1624
61144SOL    HW195157  13.650   7.492   6.320  1.5416 -0.3344 -0.7325
61144SOL    HW295158  13.637   7.388   6.211 -1.0105 -0.7577 -0.0918
61145SOL     OW95159   2.051   7.521  10.034  0.3722  0.2382  0.1461
61145SOL    HW195160   2.033   7.615  10.035  0.2609  0.2526 -1.3014
61145SOL    HW295161   2.147   7.515  10.026  0.2601  0.2850 -1.7058
61146SOL     OW95162  13.521   5.564   4.029  0.1786  0.7291  0.0583
61146SOL    HW195163  13.521   5.613   4.111  2.5096  2.1064 -0.6693
61146SOL    HW295164  13.614   5.557   4.005 -0.1678 -2.4038 -0.9010
61147SOL     OW95165   2.172  13.678  10.552 -0.3334  0.4128 -0.4354
61147SOL    HW195166   2.150  13.764  10.515  1.5470  1.8585  1.6246
61147SOL    HW295167   2.267  13.672  10.545 -0.3775 -1.2811 -0.0040
61148SOL     OW95168   5.554   6.730   9.851  0.2597 -0.2676 -0.3529
61148SOL    HW195169   5.568   6.824   9.843  1.5477 -0.3045  0.9947
61148SOL    HW295170   5.478   6.722   9.909  1.0650 -0.0311  0.7655
61149SOL     OW95171   3.120   1.453   6.168 -0.2842 -0.0048  0.3511
61149SOL    HW195172   3.049   1.497   6.217  1.3455  0.9941  1.9556
61149SOL    HW295173   3.193   1.452   6.229  1.5406  0.2695 -1.7175
61150SOL     OW95174   7.331   9.737   3.911 -0.0330  0.4116 -0.1884
61150SOL    HW195175   7.267   9.705   3.974  2.7854  0.5483  3.0281
61150SOL    HW295176   7.300   9.825   3.888 -0.8366  0.6070  1.5321
61151SOL     OW95177  12.343   8.110   2.218  0.1100  0.4589  0.5237
61151SOL    HW195178  12.281   8.109   2.145 -1.6273  1.7384  1.8788
61151SOL    HW295179  12.369   8.202   2.226  1.5873  0.0741  0.5214
61152SOL     OW95180  12.959   5.351  10.003 -0.3491  0.0796 -0.3221
61152SOL    HW195181  12.952   5.430  10.057  1.7137 -0.6963  1.2176
61152SOL    HW295182  13.036   5.367   9.948  0.3358 -0.9622  0.2912
61153SOL     OW95183   6.704   8.986   7.482  0.1290 -0.4172  0.0573
61153SOL    HW195184   6.722   9.076   7.455 -1.8153 -0.6803 -2.4415
61153SOL    HW295185   6.755   8.932   7.421 -2.1964 -0.9877 -1.5199
61154SOL     OW95186   1.330   6.260  13.334 -0.3289  0.1145  0.1272
61154SOL    HW195187   1.240   6.290  13.341 -1.1506 -1.5668 -2.0860
61154SOL    HW295188   1.323   6.169  13.306  2.0193  0.4523 -1.9703
61155SOL     OW95189   3.252  12.668   0.999 -0.2862  0.4358  0.1824
61155SOL    HW195190   3.273  12.692   1.089  2.1915  1.7260 -0.6346
61155SOL    HW295191   3.299  12.586   0.984 -0.3186  0.4592 -0.0514
61156SOL     OW95192   6.087   9.553   2.564  0.6502 -0.6103  0.2765
61156SOL    HW195193   6.010   9.592   2.522 -0.8016 -1.0188  2.4109
61156SOL    HW295194   6.153   9.623   2.562 -0.3554  0.3598 -0.0475
61157SOL     OW95195  12.449  13.656  11.908  0.0585 -0.1109 -0.0626
61157SOL    HW195196  12.428  13.607  11.987  0.7754  0.9129  0.7964
61157SOL    HW295197  12.532  13.619  11.878  1.1341  1.2007  1.1705
61158SOL     OW95198   5.085   1.426   3.785 -0.0839 -0.5464  1.2586
61158SOL    HW195199   5.100   1.492   3.718 -2.6045 -0.4963  0.6412
61158SOL    HW295200   5.094   1.343   3.738  1.9395 -0.6724  1.7793
61159SOL     OW95201  12.506   4.872  12.522 -0.5919  0.1487  0.1356
61159SOL    HW195202  12.488   4.949  12.469  0.6802 -0.9803 -2.0627
61159SOL    HW295203  12.600   4.877  12.542 -0.3267 -1.1523 -0.6604
61160SOL     OW95204   6.335   9.163   4.091 -0.4586 -0.3780  0.1711
61160SOL    HW195205   6.347   9.070   4.070 -1.5529 -0.7994  1.2867
61160SOL    HW295206   6.309   9.203   4.008 -0.4354 -1.1625 -0.2245
61161SOL     OW95207   6.733   3.499  10.588  0.1467 -0.0953  0.2416
61161SOL    HW195208   6.765   3.411  10.570  0.3938  0.0776 -0.1881
61161SOL    HW295209   6.721   3.538  10.501 -2.6631 -0.6376  0.2801
61162SOL     OW95210   3.977   5.057   7.422 -0.2396 -0.1426 -0.2587
61162SOL    HW195211   3.988   5.043   7.328  0.2028 -1.6173 -0.0062
61162SOL    HW295212   3.882   5.069   7.434 -0.2174  0.8616 -0.9727
61163SOL     OW95213  10.948   6.330   6.056  0.0490  0.7730 -0.0286
61163SOL    HW195214  10.928   6.298   5.968  1.7745 -0.2399 -0.1019
61163SOL    HW295215  10.922   6.259   6.114  2.0934 -0.0628 -0.0399
61164SOL     OW95216  12.556   1.227   6.966  0.8233  0.1841 -0.8181
61164SOL    HW195217  12.535   1.265   7.051 -0.3668 -0.3007 -0.8665
61164SOL    HW295218  12.506   1.278   6.903 -0.1670 -0.9137 -0.9624
61165SOL     OW95219  12.075   4.628  13.707  0.3636 -0.0706  0.3603
61165SOL    HW195220  12.026   4.675  13.639  2.2419  0.2596 -0.8390
61165SOL    HW295221  12.153   4.595  13.662  1.6005  0.0148  2.3240
61166SOL     OW95222   0.129   1.109   0.502  0.3186 -0.1568 -0.1427
61166SOL    HW195223   0.208   1.161   0.511  1.2746 -1.0491 -2.5204
61166SOL    HW295224   0.062   1.170   0.471  0.3995  0.3629  0.6978
61167SOL     OW95225   7.946   1.204  13.081  0.0336  0.1983  0.3510
61167SOL    HW195226   8.013   1.136  13.081  0.3230  0.4353 -1.3495
61167SOL    HW295227   7.899   1.192  13.163  1.2950 -0.8330  0.9515
61168SOL     OW95228   5.248  12.905   6.945  0.2563 -0.1712  0.3380
61168SOL    HW195229   5.225  12.893   6.853  1.7567  0.4065 -0.1345
61168SOL    HW295230   5.343  12.893   6.949  0.0660 -1.6307  2.0696
61169SOL     OW95231   1.341   2.932   2.943 -0.3883 -0.5930  0.2345
61169SOL    HW195232   1.430   2.922   2.909 -0.4245  1.1974 -0.4961
61169SOL    HW295233   1.284   2.902   2.872 -0.4006  0.2554 -0.1205
61170SOL     OW95234   8.407  12.660   4.147  0.1590  0.8577  0.2049
61170SOL    HW195235   8.466  12.734   4.129  0.5330  0.2373 -1.3127
61170SOL    HW295236   8.462  12.582   4.135 -0.7694  0.2887 -0.5142
61171SOL     OW95237   1.910   6.013   7.811  0.0078 -0.0038  0.2972
61171SOL    HW195238   1.973   5.966   7.756 -2.5343 -3.3707 -0.0130
61171SOL    HW295239   1.877   5.947   7.871 -1.3686  2.2707  2.2166
61172SOL     OW95240   4.034  13.197   8.967 -0.6665 -0.0178  0.2176
61172SOL    HW195241   4.029  13.104   8.991 -0.7468 -0.0980 -0.1098
61172SOL    HW295242   4.116  13.204   8.918 -0.3555  0.2023  0.7640
61173SOL     OW95243   1.799  11.076   3.828  0.3195 -0.4459 -0.3587
61173SOL    HW195244   1.802  11.164   3.789  0.5157 -0.7788 -1.1188
61173SOL    HW295245   1.818  11.090   3.920 -0.3600  0.3913 -0.3363
61174SOL     OW95246   2.004   3.299   3.523  0.8851  0.3835  0.4368
61174SOL    HW195247   1.986   3.216   3.480  0.4670  1.8212 -2.3965
61174SOL    HW295248   1.918   3.339   3.535  1.1918  1.2389 -0.1035
61175SOL     OW95249  13.402   2.404   6.147 -0.3115 -0.2091  0.4770
61175SOL    HW195250  13.478   2.405   6.089  0.3353 -0.6833  1.2970
61175SOL    HW295251  13.332   2.443   6.095  0.0026 -1.4627 -0.9744
61176SOL     OW95252   4.196   1.084   0.572 -0.9325 -0.5279 -0.2756
61176SOL    HW195253   4.217   1.114   0.661 -0.7189 -0.3330 -0.3922
61176SOL    HW295254   4.208   0.989   0.576  0.2131 -0.4064 -0.4013
61177SOL     OW95255   5.919  12.407   7.324 -0.1508 -0.8580  0.0858
61177SOL    HW195256   5.829  12.376   7.324 -0.8978  1.1213  0.8545
61177SOL    HW295257   5.972  12.328   7.334 -1.8368 -1.9844  0.4856
61178SOL     OW95258   9.143   1.321  10.904 -0.1376  0.1608 -0.1457
61178SOL    HW195259   9.207   1.345  10.837  0.2101  3.2103  1.1410
61178SOL    HW295260   9.059   1.326  10.860  0.2657 -0.6795 -1.0398
61179SOL     OW95261   7.067   0.641   5.146  0.0602  0.0538 -0.4082
61179SOL    HW195262   7.109   0.707   5.090  1.3215 -1.2264 -1.0247
61179SOL    HW295263   6.999   0.690   5.193  2.3030  2.3040  0.7755
61180SOL     OW95264   9.645   0.965   4.806 -0.0099 -0.0461 -0.0198
61180SOL    HW195265   9.697   1.011   4.740  0.7834 -2.5861 -1.2965
61180SOL    HW295266   9.559   0.955   4.766  0.2100 -0.7913 -0.3314
61181SOL     OW95267   7.473   9.288  12.445  0.1004  0.1165  0.1190
61181SOL    HW195268   7.436   9.328  12.524 -0.6545  1.0486 -0.6726
61181SOL    HW295269   7.403   9.234  12.410  0.5042 -0.4587  0.1981
61182SOL     OW95270   5.435   6.133  12.371 -0.0696 -0.2603  0.2059
61182SOL    HW195271   5.498   6.067  12.401 -0.8892 -1.6177 -0.9587
61182SOL    HW295272   5.461   6.151  12.281 -0.9938 -0.4150 -0.1012
61183SOL     OW95273   0.225   3.391  13.128  0.6436  0.7578 -0.4193
61183SOL    HW195274   0.214   3.474  13.083  0.2877  0.7702 -0.3145
61183SOL    HW295275   0.238   3.414  13.220  0.1937  0.6830 -0.3365
61184SOL     OW95276   0.223  11.140   0.780 -0.2183  0.2669  0.4436
61184SOL    HW195277   0.284  11.213   0.795  0.8426 -0.6595  0.7656
61184SOL    HW295278   0.234  11.119   0.687  1.0041 -0.7738  0.7891
61185SOL     OW95279   9.204   7.823  12.078 -0.5414  0.1327 -0.1382
61185SOL    HW195280   9.190   7.895  12.016 -0.3115  0.6381  0.3861
61185SOL    HW295281   9.296   7.801  12.069 -1.0202 -1.4173 -1.6879
61186SOL     OW95282   2.282   7.023   4.423  0.2302  0.2520  0.1992
61186SOL    HW195283   2.268   7.102   4.370  2.1257 -0.0711 -0.8605
61186SOL    HW295284   2.240   7.042   4.506  2.1485  3.1449  0.6335
61187SOL     OW95285  10.689   0.904  12.803  0.4380  0.0651  0.2195
61187SOL    HW195286  10.667   0.814  12.781  0.4049 -0.0361  0.6576
61187SOL    HW295287  10.697   0.904  12.898 -2.9292  1.2658  0.6209
61188SOL     OW95288  11.995   5.825   9.088 -0.2777  0.3883  0.4532
61188SOL    HW195289  11.991   5.872   9.005  0.0137 -0.7037 -0.2043
61188SOL    HW295290  11.923   5.761   9.083  1.7660 -2.0217 -0.4848
61189SOL     OW95291   5.825  13.511   9.097 -0.0799 -0.1117 -0.0595
61189SOL    HW195292   5.754  13.551   9.047 -0.3567  1.4206  1.4621
61189SOL    HW295293   5.816  13.547   9.185 -0.0838 -3.3016  1.3604
61190SOL     OW95294   0.285   3.917  11.129  0.1424  0.9596 -0.0854
61190SOL    HW195295   0.303   3.975  11.203 -2.2787  1.7264  0.0168
61190SOL    HW295296   0.292   3.829  11.165 -0.6100  1.3181  0.9957
61191SOL     OW95297   0.406   6.359  11.703  0.0258  0.1685 -0.3048
61191SOL    HW195298   0.352   6.337  11.627 -1.8395 -0.2328  1.0881
61191SOL    HW295299   0.407   6.280  11.756 -0.5474  1.1190  1.1640
61192SOL     OW95300   9.544   0.033  10.279  0.1288  0.0622  0.1244
61192SOL    HW195301   9.618  -0.012  10.239 -0.9857 -1.5530 -0.1928
61192SOL    HW295302   9.486   0.052  10.206 -0.0394  0.8285  0.4473
61193SOL     OW95303   1.679   0.500   7.236  0.4441  0.5289  0.4162
61193SOL    HW195304   1.663   0.458   7.320  0.6289 -1.7265 -0.6228
61193SOL    HW295305   1.678   0.429   7.172 -0.5330  2.2614 -1.6291
61194SOL     OW95306   1.422   1.652   8.694  0.5404  0.3851 -0.3410
61194SOL    HW195307   1.407   1.577   8.751  1.3144 -0.0987 -0.7525
61194SOL    HW295308   1.358   1.642   8.624  0.3006  0.3932 -0.1232
61195SOL     OW95309   6.203  12.384  11.743 -0.5872  0.5406  0.6281
61195SOL    HW195310   6.198  12.454  11.808  0.7802  0.4671  0.8427
61195SOL    HW295311   6.270  12.413  11.681 -0.9771  0.0301 -0.0551
61196SOL     OW95312   0.983  11.798   3.129 -0.5515 -0.2797  0.4547
61196SOL    HW195313   1.024  11.863   3.187 -1.8485  1.2183 -0.2258
61196SOL    HW295314   1.055  11.742   3.101  0.5072  0.4375  1.6206
61197SOL     OW95315   5.645  12.593   9.413 -0.2367 -0.1086  0.0844
61197SOL    HW195316   5.693  12.511   9.403 -1.0270 -0.4934 -0.6588
61197SOL    HW295317   5.700  12.658   9.369  0.5494 -0.1554  0.9523
61198SOL     OW95318   8.049  11.142  12.649  0.1307  0.0526 -0.9478
61198SOL    HW195319   8.100  11.212  12.690 -0.4627  1.1849 -2.0715
61198SOL    HW295320   7.974  11.130  12.707 -0.1081  0.8307 -1.0861
61199SOL     OW95321   5.736   2.876   6.225  0.1583 -0.1246  0.1731
61199SOL    HW195322   5.751   2.962   6.265  1.7378 -0.8541  1.2333
61199SOL    HW295323   5.642   2.863   6.232  0.1121  0.7428  1.6741
61200SOL     OW95324  11.776   3.084   2.359 -0.6216  0.4366  0.7472
61200SOL    HW195325  11.713   3.115   2.423 -1.0203 -0.5962  0.8750
61200SOL    HW295326  11.861   3.094   2.402 -0.6489  2.0942  0.4626
61201SOL     OW95327   9.616   5.884   4.129  0.0153 -0.2360  0.3586
61201SOL    HW195328   9.613   5.924   4.216  0.8001  1.1221 -0.1890
61201SOL    HW295329   9.708   5.858   4.118  0.1088  0.3530 -0.3543
61202SOL     OW95330  12.682   6.404   0.204 -0.1976 -0.2886 -0.2400
61202SOL    HW195331  12.712   6.447   0.284 -1.3322  0.4871 -0.2142
61202SOL    HW295332  12.715   6.460   0.133 -0.2917 -0.2623 -0.2636
61203SOL     OW95333   3.172   8.798  13.556  0.0245 -0.0942 -0.2310
61203SOL    HW195334   3.261   8.766  13.542  0.1187  0.1658 -0.2333
61203SOL    HW295335   3.115   8.726  13.528  0.2327 -1.4149  2.3880
61204SOL     OW95336   4.542  10.552   3.777 -0.2427  0.1144  0.3486
61204SOL    HW195337   4.498  10.613   3.717 -0.0447 -0.8151 -0.7686
61204SOL    HW295338   4.474  10.526   3.839 -0.8010  0.0957 -0.2600
61205SOL     OW95339   5.755   9.518  13.598 -0.2925 -0.5655 -0.5171
61205SOL    HW195340   5.668   9.505  13.559 -0.5729  2.7227 -1.2769
61205SOL    HW295341   5.815   9.483  13.532 -0.9592 -2.9355  0.0405
61206SOL     OW95342   0.609   5.708  11.221 -0.4266 -0.4821 -0.5773
61206SOL    HW195343   0.696   5.668  11.228 -1.0797 -1.7761  0.5560
61206SOL    HW295344   0.560   5.650  11.164 -1.3814 -1.3557  1.0655
61207SOL     OW95345  12.130  11.126   0.470  0.1217 -0.1490 -0.0620
61207SOL    HW195346  12.124  11.030   0.479 -1.3860 -0.2283 -1.3584
61207SOL    HW295347  12.200  11.151   0.529  2.0851 -2.2934 -1.2792
61208SOL     OW95348   8.396  10.586  11.156 -0.0092  0.4642  0.4550
61208SOL    HW195349   8.311  10.554  11.187 -0.8704  2.9453  0.8685
61208SOL    HW295350   8.374  10.642  11.081  1.4204 -0.0101 -0.3428
61209SOL     OW95351  12.072  13.639  10.874  0.2650 -0.0654 -0.7048
61209SOL    HW195352  12.048  13.719  10.828  1.1951  1.3278  1.0752
61209SOL    HW295353  12.118  13.670  10.952 -0.0428 -2.3254  0.4520
61210SOL     OW95354   7.340  10.806   3.129  0.2696  0.6739 -0.4788
61210SOL    HW195355   7.349  10.749   3.206  3.1498 -1.5802 -2.2588
61210SOL    HW295356   7.253  10.786   3.094 -0.1213 -0.0491  0.8308
61211SOL     OW95357   0.673   7.012   2.220 -0.3187 -0.4360  0.1746
61211SOL    HW195358   0.703   6.970   2.140 -0.4498 -0.2994  0.0532
61211SOL    HW295359   0.702   7.103   2.211 -0.9905 -0.2409 -0.0612
61212SOL     OW95360   0.815   8.980  12.761  0.0413  0.1676 -0.1263
61212SOL    HW195361   0.765   8.926  12.700 -0.6019 -0.3045  0.8013
61212SOL    HW295362   0.815   8.931  12.843  0.1479  1.1945  0.5113
61213SOL     OW95363   9.353   3.474   1.885 -0.2540  0.3281  0.9975
61213SOL    HW195364   9.360   3.391   1.836 -0.7615 -0.4756  2.2441
61213SOL    HW295365   9.268   3.510   1.861  0.7155  1.4701 -0.9800
61214SOL     OW95366   9.834  12.158  11.629 -0.0348  0.1295 -0.0423
61214SOL    HW195367   9.781  12.228  11.593 -0.0562 -0.1910 -0.6422
61214SOL    HW295368   9.779  12.080  11.622  0.2436 -0.0727 -0.0017
61215SOL     OW95369  10.411  10.012   3.790  0.2906  0.1818 -0.6398
61215SOL    HW195370  10.381   9.938   3.738  0.6206  0.2343 -0.9105
61215SOL    HW295371  10.355  10.011   3.868 -2.0076  1.6195 -2.1370
61216SOL     OW95372   5.878  13.686  11.401  0.8315 -0.2388 -0.2528
61216SOL    HW195373   5.861  13.592  11.397  1.1114 -0.4307  2.0015
61216SOL    HW295374   5.930  13.704  11.322 -1.4344 -1.4212 -2.1115
61217SOL     OW95375   3.034  11.540   3.028 -0.0521  0.2825  0.5007
61217SOL    HW195376   3.024  11.557   3.121 -1.3473 -0.0244  0.4352
61217SOL    HW295377   3.129  11.535   3.014  0.1775  1.3242  1.6031
61218SOL     OW95378   8.403   3.668   8.495  0.1722  0.7180 -0.0795
61218SOL    HW195379   8.364   3.729   8.559  2.7064  1.8708  0.5215
61218SOL    HW295380   8.335   3.656   8.429 -1.6213  1.5754  1.4984
61219SOL     OW95381   8.374   6.574  13.511 -0.0456 -0.0925 -0.2544
61219SOL    HW195382   8.413   6.489  13.489 -0.0453 -0.6697  1.7650
61219SOL    HW295383   8.283   6.553  13.533 -0.5737  0.7355 -1.5380
61220SOL     OW95384   8.970   3.777   6.990 -0.0779 -0.3692  0.2111
61220SOL    HW195385   9.047   3.824   7.020  0.3274 -0.4651 -0.6479
61220SOL    HW295386   8.953   3.812   6.903  0.0769 -1.6236 -0.3448
61221SOL     OW95387   7.092   6.852  13.650 -0.1787  0.0026  0.4788
61221SOL    HW195388   7.054   6.927  13.696  2.0927  1.3850  0.2331
61221SOL    HW295389   7.093   6.782  13.715  0.2993  1.0535  1.6310
61222SOL     OW95390   0.184   3.135   2.613 -0.2473  0.0437  0.3021
61222SOL    HW195391   0.270   3.096   2.629  0.3022  0.7005 -0.9072
61222SOL    HW295392   0.144   3.080   2.546 -0.2179  0.5031 -0.0960
61223SOL     OW95393   6.647  13.120  10.106 -0.3864  0.1693 -0.2112
61223SOL    HW195394   6.707  13.064  10.155 -2.8011 -0.5967  2.1078
61223SOL    HW295395   6.669  13.209  10.133 -1.0540 -0.1893  1.6425
61224SOL     OW95396   9.709   5.026   6.154 -0.0328  0.1960 -0.2800
61224SOL    HW195397   9.755   5.022   6.070 -0.2988  0.4935 -0.4392
61224SOL    HW295398   9.759   4.966   6.211 -1.5145 -2.2751 -1.4328
61225SOL     OW95399   6.356   3.264   9.831  0.3904 -0.4430 -0.9651
61225SOL    HW195400   6.291   3.323   9.869  0.9331 -0.2372 -0.3358
61225SOL    HW295401   6.422   3.321   9.794  0.3107 -0.6548 -1.4346
61226SOL     OW95402  11.195   4.025   2.676 -0.0258  0.0911  0.2708
61226SOL    HW195403  11.113   3.977   2.685 -0.3551  0.7866  1.1385
61226SOL    HW295404  11.168   4.116   2.658  0.5610  0.2055 -0.0529
61227SOL     OW95405  13.180  13.109   9.382 -0.1915  0.0105  0.4312
61227SOL    HW195406  13.246  13.153   9.436  0.8478  0.1593 -0.9282
61227SOL    HW295407  13.214  13.020   9.369 -0.5850 -0.1188  0.2526
61228SOL     OW95408   0.242   9.056   1.283  0.2569  0.7520 -0.5207
61228SOL    HW195409   0.282   9.003   1.214  0.8440  0.5943 -0.0731
61228SOL    HW295410   0.288   9.140   1.277  1.6315  0.1501  0.8404
61229SOL     OW95411   4.358  12.668  10.308 -0.2013  0.0951  0.5942
61229SOL    HW195412   4.401  12.738  10.258 -0.8224 -0.6428 -1.0488
61229SOL    HW295413   4.413  12.657  10.386  0.8056  1.3005  0.0994
61230SOL     OW95414   5.861   3.517   1.044 -0.0053 -0.3784  0.2908
61230SOL    HW195415   5.844   3.589   1.105  1.1081  0.1629 -0.0120
61230SOL    HW295416   5.918   3.555   0.977 -0.9857 -1.0257 -0.9633
61231SOL     OW95417   0.909  11.464   9.669  0.4651  0.1779 -0.2252
61231SOL    HW195418   0.884  11.373   9.653  1.4465  0.2438 -2.4458
61231SOL    HW295419   0.997  11.459   9.706  1.0466  0.2364 -1.5617
61232SOL     OW95420   1.176   8.375   0.275 -0.3841 -0.1930 -0.2045
61232SOL    HW195421   1.178   8.283   0.302  1.1396  0.0054  0.4305
61232SOL    HW295422   1.256   8.387   0.224 -0.6538  0.7496 -0.4265
61233SOL     OW95423  10.712  10.385  11.495 -0.0750  0.1872 -0.1035
61233SOL    HW195424  10.726  10.308  11.441  0.5866 -0.9285  1.5755
61233SOL    HW295425  10.734  10.459  11.439  1.4458 -0.9605 -1.0832
61234SOL     OW95426   7.555   1.215   6.449  0.0573 -0.0002 -0.1234
61234SOL    HW195427   7.602   1.216   6.533  1.2276  1.2325 -0.7620
61234SOL    HW295428   7.584   1.294   6.404 -0.0487 -0.9572 -1.9723
61235SOL     OW95429   0.619   7.234   7.759  0.3198 -0.2099 -0.4402
61235SOL    HW195430   0.548   7.281   7.802 -0.0927  0.5109 -1.8572
61235SOL    HW295431   0.580   7.153   7.729 -0.2447  0.6614 -2.1907
61236SOL     OW95432   9.562   5.323  10.013 -0.4846  0.3196 -0.0576
61236SOL    HW195433   9.526   5.256   9.955  2.0529  0.5208 -2.0941
61236SOL    HW295434   9.606   5.275  10.082 -0.6477 -0.0555 -0.2125
61237SOL     OW95435   8.475  12.524   1.805  0.0939  0.3555  0.2870
61237SOL    HW195436   8.447  12.447   1.853  0.4766 -0.2955 -0.5037
61237SOL    HW295437   8.459  12.503   1.713  0.6070  1.0388  0.0267
61238SOL     OW95438   7.718   7.165  11.890  0.3952  0.6002  0.4257
61238SOL    HW195439   7.629   7.153  11.923  0.3649  0.9816  0.4800
61238SOL    HW295440   7.725   7.258  11.870  0.0635  0.1967 -1.7106
61239SOL     OW95441   7.992  12.817   7.345  0.1862  0.1865  0.5532
61239SOL    HW195442   7.904  12.807   7.309  0.8998  0.8044 -1.4825
61239SOL    HW295443   8.045  12.752   7.299  1.1767  1.1035  0.3621
61240SOL     OW95444   0.336   5.166   1.638 -0.6386 -0.0147 -0.1385
61240SOL    HW195445   0.351   5.191   1.547  0.2046  0.5024  0.1326
61240SOL    HW295446   0.411   5.111   1.661 -0.7974 -0.0626  0.2758
61241SOL     OW95447   6.500   7.077  13.031  0.0315  0.0592 -0.8156
61241SOL    HW195448   6.550   7.148  12.991  0.9009 -1.0280 -1.7409
61241SOL    HW295449   6.506   7.005  12.967 -0.3785 -1.0101  0.3094
61242SOL     OW95450   2.839   5.806   8.476 -0.1220 -0.2568  0.3074
61242SOL    HW195451   2.793   5.753   8.542 -0.1329 -1.3125 -0.5189
61242SOL    HW295452   2.931   5.782   8.486 -0.0050  0.2827  0.5529
61243SOL     OW95453   2.474  11.821   3.712 -0.3233 -0.3051 -0.0554
61243SOL    HW195454   2.471  11.771   3.630 -0.6917  1.4205 -1.1711
61243SOL    HW295455   2.412  11.777   3.769 -1.7155 -0.3365 -1.4977
61244SOL     OW95456   0.263  11.585   3.858  0.0323  0.3616  0.1587
61244SOL    HW195457   0.326  11.531   3.905 -0.3778 -0.2216  0.0464
61244SOL    HW295458   0.316  11.642   3.803  0.4919  0.5436  0.7796
61245SOL     OW95459   9.376   5.714   3.395 -0.6719  0.2695  0.1543
61245SOL    HW195460   9.419   5.713   3.481 -0.6082  0.0748  0.1225
61245SOL    HW295461   9.350   5.805   3.382 -2.2643 -0.0039  1.1564
61246SOL     OW95462   9.427   7.799   4.725 -0.0304  0.2537  0.4803
61246SOL    HW195463   9.433   7.785   4.819  0.6619  0.6792  0.5021
61246SOL    HW295464   9.447   7.714   4.687  0.2520  0.2217  0.7018
61247SOL     OW95465  12.008   3.059   8.444 -0.4233  0.2484  0.1598
61247SOL    HW195466  11.995   2.968   8.470 -0.2214  0.4918  1.1378
61247SOL    HW295467  12.103   3.072   8.450 -0.4382  0.4938 -0.1019
61248SOL     OW95468   0.702   0.406  13.199 -0.1289  0.1678  0.3384
61248SOL    HW195469   0.693   0.346  13.125 -1.0184 -0.6891  1.1247
61248SOL    HW295470   0.766   0.471  13.169  3.7206 -3.0920  0.7022
61249SOL     OW95471   6.346  13.434   9.280  0.4697 -0.0919  0.4273
61249SOL    HW195472   6.255  13.434   9.251  0.6679  2.6874 -0.4277
61249SOL    HW295473   6.346  13.482   9.362  1.0231 -1.2353  1.1313
61250SOL     OW95474  13.448   0.665  10.128 -0.2746 -0.2680 -0.7595
61250SOL    HW195475  13.421   0.639  10.040 -0.3878  1.4157 -1.2427
61250SOL    HW295476  13.374   0.643  10.184 -0.7151 -0.1454 -1.2930
61251SOL     OW95477   5.821   3.117  13.365 -0.3725 -0.2525 -0.1842
61251SOL    HW195478   5.726   3.126  13.366 -0.2672  1.4382 -1.0621
61251SOL    HW295479   5.837   3.042  13.308 -1.1479  1.0828 -2.2703
61252SOL     OW95480   4.540   5.064  11.678  0.3829  0.4107  0.1054
61252SOL    HW195481   4.498   5.053  11.763 -0.0589  1.0283 -0.0187
61252SOL    HW295482   4.540   5.159  11.664  0.3750  0.3078 -0.6161
61253SOL     OW95483  11.514   3.849   3.626 -0.1327 -0.2855  0.1756
61253SOL    HW195484  11.578   3.916   3.605  0.5953 -0.5084  1.5881
61253SOL    HW295485  11.507   3.851   3.721 -1.6580 -0.7942  0.1071
61254SOL     OW95486   3.528   1.490   5.557  0.2749  0.5911  0.3795
61254SOL    HW195487   3.548   1.405   5.597  1.9424  0.8962  0.2825
61254SOL    HW295488   3.481   1.538   5.625 -1.7521 -0.7763  0.0420
61255SOL     OW95489  13.527   7.853   7.099  0.4420  0.4077 -0.2286
61255SOL    HW195490  13.494   7.770   7.134  0.6778  1.2533  2.1849
61255SOL    HW295491  13.523   7.842   7.004  0.1710 -2.2332  0.0082
61256SOL     OW95492   3.570   4.360   7.610  0.1832 -0.6911 -0.1232
61256SOL    HW195493   3.597   4.361   7.702  0.0604 -0.8982 -0.0859
61256SOL    HW295494   3.552   4.268   7.591  1.0886 -0.7795 -0.6103
61257SOL     OW95495   5.207  12.302   2.384  0.3292  0.1227  0.4311
61257SOL    HW195496   5.161  12.231   2.429 -1.1860 -0.4632 -1.8644
61257SOL    HW295497   5.286  12.260   2.349  0.1942 -0.0552  0.3401
61258SOL     OW95498  11.642   4.720   1.270  0.1901  0.4393 -0.0595
61258SOL    HW195499  11.547   4.730   1.276  0.2730  0.5570  1.4288
61258SOL    HW295500  11.656   4.626   1.265 -0.0888  0.4826 -2.8502
61259SOL     OW95501   8.695   9.296   7.250 -0.2544 -0.7261 -0.1191
61259SOL    HW195502   8.776   9.346   7.243  0.6146 -1.8419  1.4011
61259SOL    HW295503   8.652   9.330   7.329  0.2304 -2.1361  0.7978
61260SOL     OW95504  12.929   3.857  10.221 -0.8801 -0.0724 -0.0977
61260SOL    HW195505  12.899   3.939  10.182  0.5979  0.9040  0.7027
61260SOL    HW295506  13.024   3.868  10.230 -0.8424 -1.2812  1.4050
61261SOL     OW95507   2.589   3.120   5.248 -0.4601 -0.6321 -0.0914
61261SOL    HW195508   2.569   3.027   5.256  0.4341 -0.8017  0.3450
61261SOL    HW295509   2.678   3.128   5.281 -1.3929  0.7676  2.4077
61262SOL     OW95510   2.821   3.210   3.756 -0.2016 -0.0195  0.6118
61262SOL    HW195511   2.890   3.265   3.717 -0.4122  0.3473  0.7471
61262SOL    HW295512   2.742   3.263   3.747 -0.3324 -0.1268  1.1263
61263SOL     OW95513  13.175  13.191   4.275 -0.3571  0.4834 -0.2821
61263SOL    HW195514  13.250  13.132   4.271  0.7376  1.8332 -0.2375
61263SOL    HW295515  13.136  13.187   4.188 -0.3512 -0.3379 -0.2591
61264SOL     OW95516  13.638  12.316  11.635 -0.8434 -0.1674 -0.0693
61264SOL    HW195517  13.571  12.360  11.583 -1.4521  0.2496  1.0324
61264SOL    HW295518  13.658  12.236  11.587 -1.9546 -0.1685 -0.5454
61265SOL     OW95519   9.855  11.016  13.611 -0.4033  0.1877  0.5690
61265SOL    HW195520   9.922  11.006  13.543  0.9827  0.1918  1.8874
61265SOL    HW295521   9.888  10.965  13.685 -0.7478  1.9906  2.0363
61266SOL     OW95522   9.948  10.015   9.667  0.6179 -0.4328 -0.0356
61266SOL    HW195523   9.987  10.061   9.592  0.9383  1.3178  1.1282
61266SOL    HW295524   9.863  10.057   9.680  0.3938 -0.9865  0.3312
61267SOL     OW95525  10.298  10.308  12.856  0.1551 -0.5779  0.1986
61267SOL    HW195526  10.268  10.371  12.921  1.9993  1.0951 -0.4631
61267SOL    HW295527  10.330  10.362  12.784  1.2316 -2.2875 -0.6611
61268SOL     OW95528   3.000   7.010  11.328  0.6023 -0.3043  0.6830
61268SOL    HW195529   2.961   6.927  11.356 -1.4374  0.7356  1.1407
61268SOL    HW295530   2.925   7.063  11.300  1.9404  1.0790 -0.4355
61269SOL     OW95531   4.758  13.491  10.217  0.4946  0.5210 -0.0876
61269SOL    HW195532   4.798  13.410  10.247 -1.0015 -0.2132  0.0059
61269SOL    HW295533   4.713  13.526  10.295  1.7837  1.8789  0.0894
61270SOL     OW95534   5.674  11.740   5.853 -0.0752  0.7935  0.5718
61270SOL    HW195535   5.699  11.723   5.762 -0.2231  2.2891  0.2162
61270SOL    HW295536   5.579  11.731   5.855  0.0285 -0.3367  0.8505
61271SOL     OW95537  13.408   4.848  10.373 -0.0457 -0.2841  0.4086
61271SOL    HW195538  13.433   4.847  10.465  0.3705  0.7874  0.3302
61271SOL    HW295539  13.431   4.761  10.340  0.0279 -0.5910  1.2566
61272SOL     OW95540   3.156  12.239   4.287 -0.1531 -0.2328 -0.4280
61272SOL    HW195541   3.126  12.241   4.196 -0.0897  2.4852 -0.4648
61272SOL    HW295542   3.250  12.254   4.282 -0.1627  0.0185  0.0900
61273SOL     OW95543   9.474   5.682   3.633  0.2785  0.1274 -0.6542
61273SOL    HW195544   9.501   5.596   3.665 -1.4299 -1.1324 -2.3142
61273SOL    HW295545   9.479   5.739   3.709  0.1217 -1.7784  0.8645
61274SOL     OW95546  12.411   4.309   3.100  0.4327 -0.2734 -0.4342
61274SOL    HW195547  12.486   4.359   3.130  0.7185 -0.0628 -1.4686
61274SOL    HW295548  12.439   4.270   3.017 -1.6311  2.5494 -2.6426
61275SOL     OW95549  11.775   2.210   8.840  0.0621  0.2749  0.1965
61275SOL    HW195550  11.757   2.116   8.837 -2.2988  0.5847  2.0965
61275SOL    HW295551  11.817   2.224   8.925  0.1880  0.9766  0.0261
61276SOL     OW95552   3.906   4.069   8.869 -0.1597 -0.4700 -0.2679
61276SOL    HW195553   3.974   4.002   8.875 -1.4119 -1.8259 -0.5878
61276SOL    HW295554   3.872   4.077   8.958  0.0229 -0.2206 -0.2202
61277SOL     OW95555   2.319   3.812   9.181  0.6252  0.0057 -0.1007
61277SOL    HW195556   2.251   3.862   9.137  0.7226 -0.5128 -0.8710
61277SOL    HW295557   2.307   3.830   9.274 -0.1925  0.3704 -0.2748
61278SOL     OW95558  13.121   1.253   4.514  0.3703  0.1532  0.4165
61278SOL    HW195559  13.084   1.322   4.460 -0.6131 -1.1182 -0.6065
61278SOL    HW295560  13.046   1.203   4.545  1.1120 -1.5869 -0.4461
61279SOL     OW95561   0.347   8.205   4.404  0.5073 -0.5740 -0.0734
61279SOL    HW195562   0.369   8.189   4.495  1.3601  0.1690 -0.1422
61279SOL    HW295563   0.268   8.152   4.389 -0.5104  0.3936  1.4953
61280SOL     OW95564   8.016   8.339  12.213  0.0817  0.4381 -1.0000
61280SOL    HW195565   8.100   8.356  12.255 -0.5373 -1.2394  1.1129
61280SOL    HW295566   8.039   8.297  12.130  1.3600 -0.1646 -0.3800
61281SOL     OW95567   7.303   1.787   9.034 -0.0031  0.6186 -0.6595
61281SOL    HW195568   7.231   1.803   8.972 -0.2249  1.5674 -0.1739
61281SOL    HW295569   7.369   1.853   9.012 -0.2428  1.2144  0.3439
61282SOL     OW95570   0.254  11.625   2.038  0.0388  0.2654  0.0875
61282SOL    HW195571   0.244  11.701   2.095  2.3163  0.4992  0.2635
61282SOL    HW295572   0.241  11.659   1.950  1.2816  0.9315  0.1454
61283SOL     OW95573   1.378  10.038   2.056  0.3047  0.2427  0.2419
61283SOL    HW195574   1.303  10.008   2.004 -0.9762  0.6103  1.8058
61283SOL    HW295575   1.390   9.971   2.123 -0.2048  1.3338  1.4747
61284SOL     OW95576  13.130   3.989   9.112 -0.2034  0.3553 -0.2065
61284SOL    HW195577  13.116   3.975   9.018  0.2970  0.4252 -0.2963
61284SOL    HW295578  13.110   4.082   9.126  1.2502  0.7624 -0.5632
61285SOL     OW95579  12.286   4.719   8.389 -0.0485 -0.3378 -0.2135
61285SOL    HW195580  12.326   4.757   8.468 -1.4074  0.1703  0.2618
61285SOL    HW295581  12.277   4.792   8.329  2.9835 -1.1071 -1.7738
61286SOL     OW95582  13.685   7.876   4.133 -0.0852 -0.1914 -0.3804
61286SOL    HW195583  13.653   7.847   4.218  1.6143 -0.8160  0.0862
61286SOL    HW295584  13.678   7.972   4.136 -0.2348 -0.2229  0.3732
61287SOL     OW95585   0.489   4.440   2.195 -0.4126 -0.2046  0.2897
61287SOL    HW195586   0.459   4.375   2.131  0.9185 -0.0533 -0.5269
61287SOL    HW295587   0.446   4.521   2.168  0.0350 -0.1704 -0.3692
61288SOL     OW95588  11.205   7.071   1.323  0.3391  0.1384 -0.4703
61288SOL    HW195589  11.259   7.000   1.287  0.3668  0.3564 -0.8583
61288SOL    HW295590  11.115   7.043   1.306  0.2985 -0.4022  0.5043
61289SOL     OW95591   0.879   6.465   8.122 -0.4957 -0.0801 -0.2497
61289SOL    HW195592   0.889   6.457   8.217  0.6271  0.5188 -0.2970
61289SOL    HW295593   0.847   6.554   8.108 -1.1109 -0.3241 -0.4113
61290SOL     OW95594   0.329   0.892   1.597  0.3675 -0.0449 -0.4872
61290SOL    HW195595   0.313   0.981   1.566  0.4900  0.2367  0.2261
61290SOL    HW295596   0.360   0.844   1.520  2.5165  1.1118 -0.4117
61291SOL     OW95597   1.786   1.333  10.062 -0.4673 -0.0876 -0.4455
61291SOL    HW195598   1.800   1.246  10.101  0.2468  0.4431  0.5383
61291SOL    HW295599   1.810   1.322   9.970 -0.7744 -1.0252 -0.4259
61292SOL     OW95600   1.293   4.851  13.277 -0.4114  0.4370 -0.3331
61292SOL    HW195601   1.296   4.918  13.208 -0.7924  1.0192  0.2076
61292SOL    HW295602   1.312   4.899  13.357 -0.2189 -0.1969 -0.0000
61293SOL     OW95603   8.045   8.222  11.980 -0.2749  0.3590 -0.2013
61293SOL    HW195604   8.133   8.187  11.990 -0.7469 -0.9315 -0.4023
61293SOL    HW295605   8.057   8.302  11.928  0.8055  0.4068  0.0927
61294SOL     OW95606   2.292   0.113  13.610  0.4806 -0.0765 -0.0946
61294SOL    HW195607   2.205   0.079  13.588  1.3703 -0.9014 -2.6973
61294SOL    HW295608   2.283   0.208  13.604 -0.8502  0.0449  2.4349
61295SOL     OW95609   8.782   7.541   5.154 -0.2371  0.0627  0.2767
61295SOL    HW195610   8.744   7.556   5.240  0.3743 -0.5483  0.6613
61295SOL    HW295611   8.747   7.456   5.127 -0.5630  0.3311 -0.1549
61296SOL     OW95612  11.142  11.048   6.332 -0.4242  0.1887  0.6539
61296SOL    HW195613  11.116  10.958   6.312  1.0089 -0.1749  0.3675
61296SOL    HW295614  11.190  11.078   6.255 -2.0535  1.7196  0.1495
61297SOL     OW95615   8.286   7.168   9.921 -0.1883  0.5925  0.3283
61297SOL    HW195616   8.344   7.148   9.847  0.1224  0.5557  0.5816
61297SOL    HW295617   8.214   7.219   9.882  0.8680  2.1008  0.3044
61298SOL     OW95618  10.803   0.631  12.340 -0.0090  0.1787  0.1781
61298SOL    HW195619  10.837   0.718  12.360  1.2632  0.1245 -1.4536
61298SOL    HW295620  10.753   0.642  12.259 -2.4799 -0.0908  1.6030
61299SOL     OW95621   8.927   2.310   1.922 -0.3463  0.4494  0.6603
61299SOL    HW195622   8.931   2.227   1.970 -0.4928 -0.1390 -0.3240
61299SOL    HW295623   8.852   2.300   1.864  0.5078  0.6973 -0.5170
61300SOL     OW95624   1.839  12.107   0.494  0.2441 -0.3257  0.0724
61300SOL    HW195625   1.921  12.078   0.533  1.0246  1.4016 -0.2035
61300SOL    HW295626   1.800  12.028   0.457  1.0999 -1.4091  1.4140
61301SOL     OW95627   5.737   8.831   6.151  0.0045 -0.2599 -0.0957
61301SOL    HW195628   5.810   8.772   6.131 -0.0307 -0.0763 -0.8003
61301SOL    HW295629   5.702   8.855   6.065 -1.8054 -1.4679  0.2636
61302SOL     OW95630   8.546   1.366   4.650  0.3767 -0.2040  0.2627
61302SOL    HW195631   8.527   1.450   4.691  0.6222 -0.6705  1.3805
61302SOL    HW295632   8.622   1.332   4.699  0.4250 -0.9659 -0.3182
61303SOL     OW95633  12.571  10.134  11.657 -0.2519 -0.6090  0.6216
61303SOL    HW195634  12.571  10.040  11.678 -1.1966 -0.7516 -0.0006
61303SOL    HW295635  12.657  10.149  11.618 -0.6856 -1.5664 -0.7528
61304SOL     OW95636   9.714   2.056   3.349  0.1761 -0.2224  0.0993
61304SOL    HW195637   9.802   2.071   3.382 -0.4887  1.0326  1.3963
61304SOL    HW295638   9.672   2.001   3.415  0.4500 -2.2414 -1.3121
61305SOL     OW95639   9.463  11.157   6.520 -0.2354  0.2484 -0.5836
61305SOL    HW195640   9.458  11.228   6.457  0.8445  0.8211 -0.0589
61305SOL    HW295641   9.555  11.129   6.518 -0.6715 -1.2414 -0.8844
61306SOL     OW95642   6.269   5.197   9.027 -0.2724  0.3347  0.0432
61306SOL    HW195643   6.176   5.213   9.008 -0.3101 -2.0689 -2.5224
61306SOL    HW295644   6.275   5.102   9.037  1.9308  0.4242  0.0037
61307SOL     OW95645  13.018   1.811   7.716 -0.6865  0.4585  0.2339
61307SOL    HW195646  13.105   1.771   7.718 -0.4915  0.8686  0.0854
61307SOL    HW295647  12.958   1.739   7.737 -0.6977 -0.9328 -3.6592
61308SOL     OW95648   3.468   4.782   5.307 -0.0923  0.0704  0.3557
61308SOL    HW195649   3.440   4.852   5.248 -0.5589 -0.5054 -0.1129
61308SOL    HW295650   3.478   4.825   5.392  0.4577  0.8856 -0.0989
61309SOL     OW95651   0.820   7.288  13.097  0.2209  0.2806 -0.2187
61309SOL    HW195652   0.867   7.290  13.180  0.1936  2.2173 -0.2056
61309SOL    HW295653   0.867   7.223  13.045 -0.0282 -1.2830  1.4204
61310SOL     OW95654  12.344   6.963   5.188  0.1210  0.5574  0.6352
61310SOL    HW195655  12.360   6.944   5.280 -0.4627  0.0597  0.6414
61310SOL    HW295656  12.270   7.024   5.188 -0.6137 -0.3062  0.4684
61311SOL     OW95657   1.091   5.378   5.417 -0.2639  0.3290  0.0521
61311SOL    HW195658   1.113   5.376   5.510  1.0717  0.8997 -0.2441
61311SOL    HW295659   1.081   5.285   5.393  1.9559  0.0191  0.1830
61312SOL     OW95660   4.251  12.205   0.235 -0.2735  0.2741 -0.1795
61312SOL    HW195661   4.200  12.188   0.314 -0.2210  1.0478  0.0262
61312SOL    HW295662   4.280  12.118   0.205 -0.0275  0.0028  0.8260
61313SOL     OW95663   1.858   2.546  10.246 -0.5986 -0.3619  0.2577
61313SOL    HW195664   1.882   2.513  10.332 -0.7493 -0.3378  0.3075
61313SOL    HW295665   1.906   2.628  10.237 -0.1659 -0.6303  0.1032
61314SOL     OW95666  12.571   2.091   7.963 -0.0422  0.6488 -0.9165
61314SOL    HW195667  12.618   2.056   7.887  0.8326  0.5887 -0.3599
61314SOL    HW295668  12.617   2.173   7.983 -0.4090  0.7758 -0.5841
61315SOL     OW95669   5.044  13.248  12.046  0.0071  0.2320  0.0658
61315SOL    HW195670   5.137  13.226  12.036  0.0867  0.5607  0.0680
61315SOL    HW295671   5.006  13.172  12.090  0.1391 -0.1927 -0.5460
61316SOL     OW95672   7.931  10.128   6.973 -0.1635 -0.4873  0.2099
61316SOL    HW195673   7.999  10.148   6.908 -0.6892 -0.8452 -0.4659
61316SOL    HW295674   7.979  10.095   7.049  0.3972 -1.3415 -0.4913
61317SOL     OW95675  10.267   7.082  12.034 -0.1442 -0.0262 -0.1289
61317SOL    HW195676  10.260   6.989  12.055 -2.1926  0.1956  0.3739
61317SOL    HW295677  10.346   7.112  12.080  0.3996 -1.4325 -0.0978
61318SOL     OW95678   8.467  10.754   1.308  0.3927  0.4015  0.0924
61318SOL    HW195679   8.470  10.713   1.394 -1.6056  1.3838  0.6951
61318SOL    HW295680   8.457  10.680   1.247 -0.0045 -0.2104  0.8728
61319SOL     OW95681   3.575   9.296   0.405 -0.2282 -0.2207  0.6245
61319SOL    HW195682   3.602   9.214   0.363 -1.7492 -1.1456  1.3492
61319SOL    HW295683   3.581   9.278   0.499  1.3688  1.2067  0.8512
61320SOL     OW95684   1.276   1.209   5.117 -0.2352 -0.3293 -0.0907
61320SOL    HW195685   1.199   1.208   5.173  1.4231  0.1685  2.3431
61320SOL    HW295686   1.298   1.302   5.107  0.1909 -0.4738 -0.5494
61321SOL     OW95687  13.248   3.746   0.224  0.2933  0.4177  0.2390
61321SOL    HW195688  13.173   3.738   0.283 -0.1532  3.2444  0.2043
61321SOL    HW295689  13.226   3.689   0.151 -2.1931  1.6065 -0.0662
61322SOL     OW95690  11.407   0.107   3.165 -0.1171  0.0050  0.1332
61322SOL    HW195691  11.399   0.029   3.221  1.2762  0.8997  1.6718
61322SOL    HW295692  11.480   0.087   3.107 -0.2779 -0.1408 -0.0202
61323SOL     OW95693   1.924   7.904   8.280 -0.5087  0.0956 -0.7186
61323SOL    HW195694   1.859   7.834   8.268 -1.3233  0.7553 -0.2540
61323SOL    HW295695   2.008   7.860   8.266 -1.0502 -0.7186 -1.6315
61324SOL     OW95696  12.969  10.270   3.339  0.2784 -0.2367  0.3380
61324SOL    HW195697  13.019  10.213   3.281  0.5761  0.4834 -0.1190
61324SOL    HW295698  12.906  10.313   3.282  0.7114  0.6325  0.5026
61325SOL     OW95699  12.306  12.638   4.112  0.2657 -0.5592 -0.3348
61325SOL    HW195700  12.295  12.731   4.097  0.8943 -0.1004  1.6359
61325SOL    HW295701  12.395  12.619   4.083  0.6543 -0.1918  0.5558
61326SOL     OW95702   5.834   3.452   6.948  0.0671  0.1902 -1.1777
61326SOL    HW195703   5.866   3.380   6.893 -2.3021 -1.2502 -0.7771
61326SOL    HW295704   5.880   3.441   7.031  1.5773  0.7014 -1.9016
61327SOL     OW95705  10.374   4.304   2.311  0.1622 -0.1230 -0.3054
61327SOL    HW195706  10.313   4.356   2.260 -1.0470 -1.9304 -0.7965
61327SOL    HW295707  10.445   4.283   2.249  1.7078  2.4994  0.4361
61328SOL     OW95708   1.518   5.515   4.101  0.3360  0.1140 -0.2762
61328SOL    HW195709   1.525   5.495   4.195  0.9857 -1.0509 -0.5557
61328SOL    HW295710   1.602   5.487   4.064 -0.8874 -2.0294 -1.6348
61329SOL     OW95711   8.507   3.783  10.939  0.1640  0.2451 -0.3183
61329SOL    HW195712   8.595   3.806  10.967 -0.5536 -0.1561  2.6613
61329SOL    HW295713   8.504   3.687  10.945 -1.1323  0.3540  2.2755
61330SOL     OW95714   6.068  11.694   6.941  0.1324  0.2053 -0.6066
61330SOL    HW195715   6.152  11.736   6.921  0.0285  0.3528 -0.7341
61330SOL    HW295716   6.030  11.748   7.009  0.6759 -0.5352  0.3133
61331SOL     OW95717   3.180  10.037   4.065 -0.6548 -0.1103  0.6993
61331SOL    HW195718   3.170  10.010   3.974 -0.6917  0.3847  0.5571
61331SOL    HW295719   3.096  10.077   4.088 -0.5882 -0.0838  0.9004
61332SOL     OW95720   1.794   6.984   4.707  0.5643 -0.1343 -0.0203
61332SOL    HW195721   1.799   7.056   4.644 -2.1097 -0.7052 -1.0313
61332SOL    HW295722   1.817   7.024   4.791  0.9948  1.4218 -0.8437
61333SOL     OW95723   0.854   2.149   3.561 -0.2568 -0.2409  0.2412
61333SOL    HW195724   0.889   2.233   3.531  0.0571 -0.4749 -0.0492
61333SOL    HW295725   0.777   2.133   3.506  0.5896 -0.8992 -0.7877
61334SOL     OW95726  12.952   1.036   6.660  0.3647 -0.2576 -0.0751
61334SOL    HW195727  12.991   1.107   6.611 -1.9892  0.5727 -0.8728
61334SOL    HW295728  12.881   1.077   6.710 -0.7015 -1.9353 -0.1289
61335SOL     OW95729  12.258   3.992   0.586  0.3087  1.4024  0.3349
61335SOL    HW195730  12.307   3.989   0.668  0.3107  0.8392  0.3195
61335SOL    HW295731  12.179   3.940   0.603  0.0440  1.7366  0.1500
61336SOL     OW95732   1.689   0.804   7.908 -0.6586  0.3304 -0.1870
61336SOL    HW195733   1.619   0.773   7.852 -0.0936 -2.4610  0.4714
61336SOL    HW295734   1.660   0.890   7.938 -1.8763  1.0448 -3.0752
61337SOL     OW95735  10.984   5.938  13.274  0.0049 -0.0433  0.1533
61337SOL    HW195736  11.052   5.872  13.285  1.4774  1.2329 -0.8289
61337SOL    HW295737  11.028   6.009  13.227 -2.0776  0.7526 -0.6659
61338SOL     OW95738   7.550  13.137  12.215 -0.4673 -0.2753  0.5237
61338SOL    HW195739   7.637  13.138  12.175 -0.5705 -2.6181  0.1041
61338SOL    HW295740   7.558  13.195  12.292  1.8713 -1.5183  1.3069
61339SOL     OW95741   5.525   6.446   7.190  0.0985 -0.1142 -0.4779
61339SOL    HW195742   5.531   6.540   7.171 -0.6678  0.2142  0.8273
61339SOL    HW295743   5.469   6.440   7.267  3.4557 -1.3156  2.1357
61340SOL     OW95744   3.146   7.668  12.532  0.1553  0.2091 -0.1935
61340SOL    HW195745   3.173   7.750  12.573  0.0268 -0.1551  0.6232
61340SOL    HW295746   3.105   7.695  12.450  0.1254  0.9613  0.0651
61341SOL     OW95747   7.455   9.705   5.659  0.7107  0.0458  0.3417
61341SOL    HW195748   7.372   9.687   5.704  2.1404 -2.0788  2.3366
61341SOL    HW295749   7.494   9.777   5.709  0.5458  0.3775  0.0036
61342SOL     OW95750   1.277   1.583   6.876 -0.5230  0.1141 -0.1042
61342SOL    HW195751   1.272   1.536   6.959  0.7081 -0.8840 -0.5618
61342SOL    HW295752   1.274   1.515   6.809 -2.7529  0.9753 -0.9683
61343SOL     OW95753   6.347   0.257   7.573 -0.0237  0.1317  0.1686
61343SOL    HW195754   6.385   0.233   7.657 -0.3868 -0.8556  0.0671
61343SOL    HW295755   6.389   0.198   7.510  0.6018  1.1841 -0.4306
61344SOL     OW95756   2.171   4.563   2.767  0.0647  0.3895  0.5632
61344SOL    HW195757   2.085   4.587   2.732 -0.1825 -0.1898  0.7685
61344SOL    HW295758   2.185   4.623   2.840  0.4526  1.4119 -0.3318
61345SOL     OW95759   5.777   6.716   7.785 -0.0612 -0.7151 -0.3300
61345SOL    HW195760   5.735   6.649   7.732 -2.8666 -1.8576  2.9991
61345SOL    HW295761   5.835   6.668   7.843 -0.3631 -0.0195  0.5662
61346SOL     OW95762  13.439   4.511  11.080 -0.1862 -0.7821 -0.0921
61346SOL    HW195763  13.494   4.490  11.004 -1.4074 -2.0922 -0.6589
61346SOL    HW295764  13.399   4.427  11.104  0.8827 -0.6117  2.6152
61347SOL     OW95765   8.939   5.511   6.378  0.5509 -0.8087 -0.7719
61347SOL    HW195766   8.874   5.462   6.428  2.3016 -2.1106  0.3457
61347SOL    HW295767   8.939   5.469   6.292  0.3666 -1.2030 -0.5814
61348SOL     OW95768   0.637   2.440   1.636 -0.3796  0.0543  0.0445
61348SOL    HW195769   0.605   2.429   1.725 -0.0160  0.8360  0.2810
61348SOL    HW295770   0.571   2.399   1.581 -0.8504  0.0005  0.6428
61349SOL     OW95771   5.380   1.459   3.848 -0.4257  0.8029 -0.2190
61349SOL    HW195772   5.313   1.437   3.913 -1.2592  0.4350 -1.1598
61349SOL    HW295773   5.454   1.492   3.899 -1.2025  0.9099  0.8793
61350SOL     OW95774  11.688  10.973  10.368 -0.0872 -0.3804  0.2494
61350SOL    HW195775  11.763  11.024  10.339  0.3850 -0.7131  0.8685
61350SOL    HW295776  11.704  10.885  10.335 -0.3147 -0.4054  0.2002
61351SOL     OW95777  10.551   3.879  10.316 -0.0214 -0.1377  0.4822
61351SOL    HW195778  10.539   3.873  10.221  0.1741 -0.9545  0.4997
61351SOL    HW295779  10.621   3.816  10.335  1.3748  1.4649  0.9142
61352SOL     OW95780  10.698   6.763  12.965  0.1295 -0.2406  0.4794
61352SOL    HW195781  10.738   6.694  12.913 -0.2895  0.3206 -0.6264
61352SOL    HW295782  10.773   6.811  13.002  0.4271 -0.8353  0.6582
61353SOL     OW95783   7.235  13.637   8.041 -0.4783 -0.6077 -0.0417
61353SOL    HW195784   7.208  13.605   8.127 -0.8687 -0.5720 -0.1443
61353SOL    HW295785   7.315  13.590   8.021 -0.4101 -0.6461  0.3245
61354SOL     OW95786   3.841  13.640   9.679  0.0173  0.5960 -0.3274
61354SOL    HW195787   3.885  13.556   9.670  0.1419  0.6442 -0.1743
61354SOL    HW295788   3.784  13.645   9.602  0.9428  0.9305 -1.0252
61355SOL     OW95789   0.413   2.523   5.868  0.2869  0.1247  0.0026
61355SOL    HW195790   0.345   2.557   5.809  0.1508  0.3256  0.2737
61355SOL    HW295791   0.365   2.495   5.946  0.4805 -0.0324  0.0662
61356SOL     OW95792   9.668   5.384   4.103 -0.3310 -0.4313  0.6654
61356SOL    HW195793   9.573   5.395   4.107 -0.1274  2.2232  0.0299
61356SOL    HW295794   9.699   5.461   4.057  2.3062 -0.3039  2.4314
61357SOL     OW95795   1.495   9.826  11.840  0.2031 -0.9253 -0.2932
61357SOL    HW195796   1.555   9.757  11.866  1.9498  0.7855  0.4522
61357SOL    HW295797   1.434   9.834  11.913 -0.3409 -2.0037 -0.6179
61358SOL     OW95798   5.044   8.776  10.427 -0.6797  0.5725  0.2217
61358SOL    HW195799   5.097   8.698  10.409 -1.2723  0.0117  0.8259
61358SOL    HW295800   4.966   8.764  10.373 -0.6319  0.9054  0.0788
61359SOL     OW95801   8.722   9.360  10.313 -0.3580 -0.3231  0.6238
61359SOL    HW195802   8.741   9.402  10.229  1.6271 -0.3979  0.9821
61359SOL    HW295803   8.798   9.304  10.329 -0.9519 -0.7142  2.2380
61360SOL     OW95804   1.163   0.434   2.344  0.0364 -0.3706  0.0771
61360SOL    HW195805   1.173   0.425   2.439  0.6203 -0.8036 -0.0187
61360SOL    HW295806   1.120   0.352   2.317 -0.1676 -0.2298 -0.0286
61361SOL     OW95807   1.213   9.200   2.993  0.7374  0.3169 -0.1261
61361SOL    HW195808   1.294   9.171   2.950  0.0958 -1.7822 -0.0286
61361SOL    HW295809   1.243   9.250   3.068  1.9780 -0.7041  0.0974
61362SOL     OW95810   2.159  12.758  12.863  0.5916  0.0659  0.3738
61362SOL    HW195811   2.197  12.818  12.927 -0.5254 -0.5923  1.7169
61362SOL    HW295812   2.092  12.810  12.817  0.9592  0.3667  0.1746
61363SOL     OW95813  10.884   0.008   3.906 -0.3900  0.0070 -0.0598
61363SOL    HW195814  10.815  -0.025   3.849 -0.0626 -0.4278 -0.2023
61363SOL    HW295815  10.930   0.074   3.854 -0.3516 -0.0942 -0.1522
61364SOL     OW95816   4.980   9.066   9.687  0.2047 -0.0169  0.6022
61364SOL    HW195817   5.043   9.135   9.709 -0.9837  1.7827 -1.3367
61364SOL    HW295818   4.906   9.081   9.746  0.7785 -0.9799  1.6048
61365SOL     OW95819   1.318   0.691   0.166 -0.0941 -0.0397 -0.2919
61365SOL    HW195820   1.251   0.725   0.107  0.3129  1.2708 -0.0190
61365SOL    HW295821   1.271   0.671   0.247 -0.0876  1.4541  0.1096
61366SOL     OW95822   5.446   5.880  12.115  0.5573 -0.5505 -0.2035
61366SOL    HW195823   5.392   5.952  12.083 -1.0760 -0.4108  2.5684
61366SOL    HW295824   5.399   5.801  12.090 -1.0583 -0.4300  2.1551
61367SOL     OW95825   0.514   2.296  11.130  0.5159  0.1714  0.2344
61367SOL    HW195826   0.525   2.303  11.225  2.6778 -0.2674  0.0691
61367SOL    HW295827   0.592   2.249  11.101 -0.4562 -0.3241 -1.6982
61368SOL     OW95828   8.668   2.436   1.136  0.0327 -0.7175  0.3107
61368SOL    HW195829   8.627   2.353   1.112  1.9828 -1.5981 -0.2019
61368SOL    HW295830   8.715   2.463   1.057 -1.0348  1.2136  0.2765
61369SOL     OW95831  12.541   1.281   0.598 -0.1424  0.1015  0.4241
61369SOL    HW195832  12.538   1.207   0.537 -1.1135  0.1767  0.3630
61369SOL    HW295833  12.606   1.256   0.663  0.0777 -0.4806 -0.0103
61370SOL     OW95834   8.663   0.530   7.906  0.0862 -0.3693 -0.3818
61370SOL    HW195835   8.741   0.476   7.895 -0.4396 -1.1749 -0.2451
61370SOL    HW295836   8.590   0.473   7.883 -0.3953  0.7998 -1.9102
61371SOL     OW95837   0.653   0.747   3.759 -0.0885  0.2549 -0.8048
61371SOL    HW195838   0.724   0.746   3.695  1.2493 -1.1937  0.5978
61371SOL    HW295839   0.592   0.680   3.729 -0.0114  0.3242 -1.1222
61372SOL     OW95840   0.578  11.839   2.112 -0.4704  0.2945 -0.2157
61372SOL    HW195841   0.598  11.748   2.088  1.0970 -0.0133  2.0429
61372SOL    HW295842   0.505  11.831   2.173 -0.2477  0.5565  0.0816
61373SOL     OW95843   4.722   2.911   2.241 -0.1686 -0.5590  0.0370
61373SOL    HW195844   4.650   2.960   2.201 -0.8460  0.4197  2.2813
61373SOL    HW295845   4.793   2.974   2.248  0.6456 -1.2785 -1.3585
61374SOL     OW95846  11.621  11.655   0.401 -0.0974  0.7321 -0.0347
61374SOL    HW195847  11.680  11.679   0.330 -0.5642 -1.4585 -1.2313
61374SOL    HW295848  11.655  11.572   0.434 -0.6354  1.0765  1.4721
61375SOL     OW95849   5.620   0.618   4.712  0.2874  0.2858  0.0966
61375SOL    HW195850   5.634   0.601   4.805 -0.3561 -2.3745 -0.2003
61375SOL    HW295851   5.533   0.655   4.706  0.8183  1.6542  0.6306
61376SOL     OW95852   9.652  10.983   9.728 -0.3691  0.7482 -0.2818
61376SOL    HW195853   9.664  11.010   9.819  2.8847 -0.6510 -0.1240
61376SOL    HW295854   9.713  11.037   9.678  0.2299 -0.6465 -1.1236
61377SOL     OW95855   0.256  11.850  10.698  0.0120  0.2370 -0.3435
61377SOL    HW195856   0.341  11.855  10.654  1.3769  0.8788  2.1684
61377SOL    HW295857   0.238  11.939  10.727 -0.1178 -0.3403  1.5391
61378SOL     OW95858   6.516  10.434   6.215 -0.2183 -0.0808 -0.2102
61378SOL    HW195859   6.543  10.485   6.292  1.4312  0.6837 -1.2345
61378SOL    HW295860   6.477  10.355   6.252  1.4827 -0.2320  1.4590
61379SOL     OW95861   8.316   7.522   7.892  0.7155  0.3293  0.5168
61379SOL    HW195862   8.240   7.539   7.948  0.5061 -0.1190  0.3777
61379SOL    HW295863   8.336   7.429   7.907  0.0505 -0.0760 -0.8601
61380SOL     OW95864  11.819   8.146   2.904  0.3279  0.5069 -0.1197
61380SOL    HW195865  11.817   8.237   2.931  0.0657  0.0408  1.5684
61380SOL    HW295866  11.738   8.108   2.939  0.9119 -0.5842  0.1239
61381SOL     OW95867  11.133   9.878   7.979  0.0611 -0.0794 -0.3239
61381SOL    HW195868  11.080   9.832   8.045  1.2069 -0.6693  0.2026
61381SOL    HW295869  11.170   9.809   7.925 -0.4956  0.3850 -1.3153
61382SOL     OW95870   4.275  12.106   3.267 -0.3652 -0.2820 -0.2087
61382SOL    HW195871   4.333  12.171   3.304 -0.6046  0.2412 -0.7413
61382SOL    HW295872   4.234  12.149   3.192 -1.3965 -0.6504  0.1205
61383SOL     OW95873  11.251   9.602  12.234  0.6073 -0.0898 -0.6098
61383SOL    HW195874  11.202   9.619  12.154  0.1118 -0.9149 -0.4960
61383SOL    HW295875  11.187   9.618  12.304  0.6524 -0.6540 -0.4382
61384SOL     OW95876  11.826  13.526   0.950  0.3745  0.2879 -0.3120
61384SOL    HW195877  11.899  13.588   0.957  0.6706 -0.1549  0.9186
61384SOL    HW295878  11.866  13.441   0.965 -0.3717  0.0291  0.3119
61385SOL     OW95879   9.552   0.904   6.782 -0.2881  0.6878 -0.3814
61385SOL    HW195880   9.566   0.812   6.804 -0.9180  0.4207 -1.0783
61385SOL    HW295881   9.510   0.941   6.860 -3.3785 -0.4677 -1.3561
61386SOL     OW95882   2.019  10.842   7.374  0.5647  0.0077 -0.5203
61386SOL    HW195883   2.043  10.785   7.300  1.4229 -1.7754  1.0521
61386SOL    HW295884   2.055  10.798   7.451 -0.7176  1.5497  1.0402
61387SOL     OW95885   2.505   6.429   7.240 -0.1704 -0.5815  0.4053
61387SOL    HW195886   2.421   6.421   7.285 -1.3593 -0.0850 -1.5497
61387SOL    HW295887   2.507   6.354   7.180 -0.5334  0.8309 -1.4718
61388SOL     OW95888   5.850   4.665   9.759  0.0005 -0.4462 -0.4127
61388SOL    HW195889   5.839   4.598   9.692 -2.6646  1.1872 -1.7629
61388SOL    HW295890   5.761   4.683   9.789  0.9338  0.4390  2.0426
61389SOL     OW95891  10.084  12.153   8.847 -0.0525  0.2962 -0.2387
61389SOL    HW195892  10.167  12.145   8.800  0.8407 -0.2522  1.3514
61389SOL    HW295893  10.087  12.083   8.912 -0.5127  1.9541  1.6669
61390SOL     OW95894   2.123   1.672   4.797  0.1395 -0.3161 -0.5169
61390SOL    HW195895   2.107   1.759   4.835  1.2465  1.2190 -3.2611
61390SOL    HW295896   2.195   1.637   4.849 -1.3293 -0.3672  1.6394
61391SOL     OW95897   2.828   0.335   1.667 -0.4668 -0.2379  0.4290
61391SOL    HW195898   2.883   0.261   1.641  0.7496 -0.0073  2.1676
61391SOL    HW295899   2.759   0.295   1.720 -0.7487 -0.2933  0.0237
61392SOL     OW95900  13.393   3.100  10.379 -0.4287  0.1187  0.1657
61392SOL    HW195901  13.453   3.051  10.436 -0.5599 -0.5453 -0.2508
61392SOL    HW295902  13.416   3.071  10.290 -2.4110 -1.3781  0.0782
61393SOL     OW95903   0.896   3.628  11.075  0.1582 -0.3485  0.0841
61393SOL    HW195904   0.869   3.694  11.011  0.3455 -0.5868 -0.2442
61393SOL    HW295905   0.977   3.592  11.039 -0.0053 -0.8406  0.2006
61394SOL     OW95906   9.042  13.305   4.104  0.5039 -0.0251  0.0641
61394SOL    HW195907   8.953  13.339   4.099  0.2673 -0.6838 -0.2450
61394SOL    HW295908   9.096  13.376   4.069  0.0159  0.0429 -0.5735
61395SOL     OW95909   2.505  12.315   0.158 -0.5885  0.0944  0.1472
61395SOL    HW195910   2.563  12.372   0.209 -1.0243  0.7668 -0.1082
61395SOL    HW295911   2.427  12.306   0.212 -1.1539  1.0105 -0.4913
61396SOL     OW95912   1.899  12.540  12.159  0.3620 -0.5280 -0.3639
61396SOL    HW195913   1.952  12.573  12.231 -0.2576 -1.3666  0.5076
61396SOL    HW295914   1.930  12.588  12.082  1.9607 -0.5934  0.2135
61397SOL     OW95915   3.361   1.546   2.860  0.4136  0.5113  0.4082
61397SOL    HW195916   3.286   1.588   2.817 -1.3491 -1.2671  1.5191
61397SOL    HW295917   3.415   1.514   2.788 -1.0536 -0.0347 -0.5186
61398SOL     OW95918  12.597   0.727  12.117 -0.0961 -0.6764  0.0831
61398SOL    HW195919  12.534   0.799  12.108 -0.2122 -1.1032 -4.0673
61398SOL    HW295920  12.680   0.764  12.088  0.3664 -1.6083  0.1781
61399SOL     OW95921  11.348  11.852  10.831  0.4548  0.3348  0.1119
61399SOL    HW195922  11.302  11.776  10.865  1.4207  0.2782  1.3612
61399SOL    HW295923  11.309  11.926  10.878  2.5006  0.1618  2.2313
61400SOL     OW95924  12.126   4.525  12.291 -0.0335  0.7059  0.3084
61400SOL    HW195925  12.217   4.516  12.264 -0.0699 -2.0635  0.8801
61400SOL    HW295926  12.088   4.587  12.229  1.7291  0.2923 -1.2385
61401SOL     OW95927   7.971   7.393   6.541  0.3850  0.0009  0.0272
61401SOL    HW195928   7.919   7.385   6.621  1.3293  1.9302  0.8990
61401SOL    HW295929   7.911   7.431   6.477  0.4945  1.6886  0.8645
61402SOL     OW95930   5.646   0.703  12.488 -0.0813 -0.1642  0.1020
61402SOL    HW195931   5.710   0.705  12.417 -0.4012 -0.9635 -0.2285
61402SOL    HW295932   5.669   0.623  12.537 -0.1620  0.1258  0.6130
61403SOL     OW95933   7.563   5.003   3.661  0.3833  0.2931 -0.7482
61403SOL    HW195934   7.614   5.071   3.615  2.4234 -0.0461  0.8824
61403SOL    HW295935   7.592   4.921   3.621 -0.2895  0.1895 -1.0488
61404SOL     OW95936   0.314   8.150  10.068 -0.1578 -0.0898 -0.0260
61404SOL    HW195937   0.369   8.188  10.135 -0.2765  2.0882 -1.0644
61404SOL    HW295938   0.375   8.119  10.000 -0.1124 -0.5542  0.2237
61405SOL     OW95939   5.512   2.612   5.533  0.4273 -0.0189 -0.3341
61405SOL    HW195940   5.543   2.588   5.445  0.8340 -1.0739  0.0780
61405SOL    HW295941   5.426   2.569   5.540  0.8863 -0.8840  0.1814
61406SOL     OW95942   7.370   1.009   2.108 -0.3155 -0.1224 -0.0109
61406SOL    HW195943   7.392   0.920   2.137 -0.4214  0.0104  0.4699
61406SOL    HW295944   7.331   0.996   2.021  2.0017 -0.3467 -1.1088
61407SOL     OW95945   3.057   2.842   8.911  0.3466 -0.2091  0.2022
61407SOL    HW195946   3.103   2.911   8.864 -0.8725  0.6868  0.2770
61407SOL    HW295947   3.123   2.806   8.971  1.0417  0.8029  0.0778
61408SOL     OW95948  11.834   9.609   2.270 -0.1383 -0.3776 -0.4835
61408SOL    HW195949  11.847   9.624   2.364  0.9777 -0.5631 -0.5863
61408SOL    HW295950  11.905   9.550   2.246  0.6099  0.9842 -1.7700
61409SOL     OW95951  12.982   1.390   0.345 -0.3614  0.2312  0.1976
61409SOL    HW195952  12.983   1.378   0.250 -1.0235 -2.2132  0.4332
61409SOL    HW295953  12.891   1.411   0.366 -0.6276 -1.1404  0.4609
61410SOL     OW95954   3.164   9.832   9.563 -0.4148  0.4901  0.3961
61410SOL    HW195955   3.182   9.802   9.652 -0.0540  0.1102  0.1994
61410SOL    HW295956   3.220   9.908   9.551  0.4599 -0.1840  0.0789
61411SOL     OW95957   7.986   5.470   7.253 -0.3279 -0.2622  0.0345
61411SOL    HW195958   7.922   5.523   7.206 -1.0111 -1.3623 -0.3316
61411SOL    HW295959   7.970   5.490   7.345 -1.1478 -0.4480 -0.0579
61412SOL     OW95960   8.557   3.556  10.127 -0.8399  0.0383 -0.2631
61412SOL    HW195961   8.622   3.615  10.089 -0.4515 -0.4049 -0.2922
61412SOL    HW295962   8.499   3.614  10.177 -1.0924  0.5635 -1.1589
61413SOL     OW95963   2.672   8.226   9.530  0.5107 -0.0510 -0.4893
61413SOL    HW195964   2.761   8.232   9.566  1.4253 -0.7267 -2.4681
61413SOL    HW295965   2.686   8.213   9.436 -1.7082  0.0318 -0.8678
61414SOL     OW95966  12.671   7.786  11.117  0.0887  0.0923  0.1571
61414SOL    HW195967  12.746   7.726  11.121 -1.3631 -1.8022  1.1439
61414SOL    HW295968  12.668   7.815  11.026  2.2075  0.5231  0.1735
61415SOL     OW95969   4.377   9.395  10.848 -0.0731  0.1597 -0.0120
61415SOL    HW195970   4.316   9.365  10.915 -0.5184  2.2392  0.5630
61415SOL    HW295971   4.362   9.336  10.774 -0.9120 -0.9897  1.0341
61416SOL     OW95972  11.748  10.694   0.268 -0.5178 -0.3104  0.0331
61416SOL    HW195973  11.653  10.682   0.259 -0.8305  0.8686  1.3773
61416SOL    HW295974  11.758  10.786   0.291  0.9389 -0.5130  0.2945
61417SOL     OW95975  12.810  10.683   8.825  0.2722  0.5457 -0.1696
61417SOL    HW195976  12.789  10.592   8.844  1.0690  0.6200  1.2793
61417SOL    HW295977  12.890  10.700   8.875 -0.7851  2.5129  1.0052
61418SOL     OW95978   4.668   2.781   7.623 -0.1233  0.0532  0.2887
61418SOL    HW195979   4.608   2.791   7.549 -0.2707  0.8354  0.5133
61418SOL    HW295980   4.720   2.861   7.624 -2.7166  1.9407  3.3524
61419SOL     OW95981  12.538   0.169  10.627  0.6974 -0.0789  0.1390
61419SOL    HW195982  12.524   0.076  10.611 -0.2901 -0.0051  0.4940
61419SOL    HW295983  12.461   0.196  10.678  0.7155  1.0394 -0.4086
61420SOL     OW95984   7.493   6.436   5.279  0.0264  0.0640  0.8486
61420SOL    HW195985   7.461   6.346   5.274 -0.4162  0.2961 -1.0040
61420SOL    HW295986   7.563   6.433   5.345  0.2189 -1.6834  0.6051
61421SOL     OW95987  12.454   9.479   2.907 -0.1788  0.0520  0.2903
61421SOL    HW195988  12.437   9.408   2.970  1.5611 -2.4369 -1.8653
61421SOL    HW295989  12.369   9.496   2.867 -0.5064 -1.3157  0.3705
61422SOL     OW95990   7.986   1.904   0.202  0.3362  0.2664 -0.8413
61422SOL    HW195991   8.054   1.862   0.149  1.0224  0.3543 -0.0405
61422SOL    HW295992   7.962   1.983   0.152 -0.1917 -0.4918 -1.8122
61423SOL     OW95993  10.114   7.321   1.237  0.2572 -0.1318 -0.0306
61423SOL    HW195994  10.092   7.246   1.182 -0.3466 -0.3578  0.5179
61423SOL    HW295995  10.139   7.389   1.174  0.5483 -0.6941 -0.5428
61424SOL     OW95996   6.821  13.719   3.648  0.0894 -0.2578 -0.3388
61424SOL    HW195997   6.914  13.734   3.631  0.1318 -0.2506 -0.1025
61424SOL    HW295998   6.792  13.799   3.693  0.6414 -1.4014  2.2240
61425SOL     OW95999   1.235   9.545   1.186  0.3032 -0.4677  0.0735
61425SOL    HW196000   1.294   9.471   1.169 -0.9663 -1.2460 -1.1333
61425SOL    HW296001   1.155   9.523   1.139 -0.6074  1.0405  0.8508
61426SOL     OW96002   2.318   3.488   8.145 -0.6165  0.3800  0.4828
61426SOL    HW196003   2.257   3.542   8.196  0.4229  1.1937  0.8949
61426SOL    HW296004   2.404   3.524   8.165  0.0055 -0.7372 -0.1147
61427SOL     OW96005   5.010  13.439   4.759 -0.9974 -0.1363 -1.3460
61427SOL    HW196006   4.927  13.486   4.757 -1.0192 -0.1037 -0.2123
61427SOL    HW296007   4.988  13.351   4.789 -0.3258  0.6680  1.9020
61428SOL     OW96008   9.570   2.117   0.857  0.3750  0.4420  0.0305
61428SOL    HW196009   9.586   2.181   0.926  1.5664  0.5349 -0.3098
61428SOL    HW296010   9.637   2.135   0.791  0.4265 -0.8434 -0.2976
61429SOL     OW96011   6.746   2.784   2.460  0.4073 -0.4036  0.2778
61429SOL    HW196012   6.825   2.731   2.468  0.5531 -0.4049 -0.9528
61429SOL    HW296013   6.697   2.743   2.388 -1.5454 -1.4275  2.0689
61430SOL     OW96014   5.259   1.349   2.422 -0.1619 -0.0134  0.0419
61430SOL    HW196015   5.330   1.326   2.483 -1.4675 -0.6770  1.3881
61430SOL    HW296016   5.304   1.376   2.343  1.6087 -0.1617  0.9313
61431SOL     OW96017   6.257   7.880   9.341 -0.0425  0.4384 -0.2535
61431SOL    HW196018   6.267   7.855   9.250 -0.2219  0.6653 -0.3365
61431SOL    HW296019   6.172   7.926   9.345 -0.1485  0.2186  0.0702
61432SOL     OW96020   9.444   5.518   5.999  0.2131 -0.4935 -0.3790
61432SOL    HW196021   9.388   5.441   5.987 -1.0503  0.6642 -2.4773
61432SOL    HW296022   9.485   5.531   5.914  2.3316 -0.2229  0.6214
61433SOL     OW96023  11.563   2.380   8.822  0.0248 -0.1222  0.0133
61433SOL    HW196024  11.637   2.320   8.833  0.2979  0.5936  2.8475
61433SOL    HW296025  11.486   2.328   8.845 -0.1424 -0.2520 -0.7907
61434SOL     OW96026   8.187  12.617   5.355  0.5510  0.0081 -0.3326
61434SOL    HW196027   8.178  12.682   5.285  0.0443 -1.0865 -1.3164
61434SOL    HW296028   8.262  12.647   5.407 -0.5941  2.2094  0.1744
61435SOL     OW96029  12.207   7.127   7.212 -0.2658 -0.3782  0.0372
61435SOL    HW196030  12.298   7.141   7.189  0.1642  1.1368  2.2893
61435SOL    HW296031  12.165   7.099   7.131  1.7941  0.8022 -1.5242
61436SOL     OW96032   7.273   5.303  13.097  0.0658  0.0477  0.2744
61436SOL    HW196033   7.312   5.375  13.145 -0.7535  1.0932 -0.5755
61436SOL    HW296034   7.347   5.251  13.066  1.0821  2.9558 -2.8432
61437SOL     OW96035   5.745  13.138   1.744 -0.2254 -0.9168  0.1551
61437SOL    HW196036   5.778  13.127   1.833 -0.5503 -0.7147  0.3009
61437SOL    HW296037   5.681  13.209   1.751  0.6527 -0.0380 -0.4690
61438SOL     OW96038  12.303  11.649   1.687 -0.2231 -0.4887  0.3316
61438SOL    HW196039  12.382  11.600   1.663 -0.8019 -1.9080  1.1777
61438SOL    HW296040  12.248  11.585   1.733 -1.0177  0.9806  1.5233
61439SOL     OW96041   7.782   4.556  12.410 -0.1036  0.2080 -0.1138
61439SOL    HW196042   7.812   4.468  12.385  0.7116  0.2983  0.5033
61439SOL    HW296043   7.740   4.543  12.495  0.9928  0.5807  0.4949
61440SOL     OW96044   2.193   0.598   5.665  0.2653 -1.0431  0.0402
61440SOL    HW196045   2.243   0.546   5.728  0.9259 -0.6451 -0.1389
61440SOL    HW296046   2.208   0.555   5.580  3.4916  1.1461 -0.7002
61441SOL     OW96047   6.524  10.195   7.191 -0.1252 -0.3911  0.2941
61441SOL    HW196048   6.529  10.149   7.107  1.5852  1.3069 -0.6075
61441SOL    HW296049   6.554  10.284   7.172 -1.9448  0.7326  2.2594
61442SOL     OW96050   1.258   3.872   9.185  0.0043  0.5943  0.0897
61442SOL    HW196051   1.275   3.946   9.244 -0.5536  0.1462  0.8283
61442SOL    HW296052   1.268   3.909   9.097 -2.2590  2.1012  0.3714
61443SOL     OW96053   8.105  10.121   8.232 -0.6182  0.1187 -0.1608
61443SOL    HW196054   8.030  10.105   8.291  1.1214 -1.5583  1.7549
61443SOL    HW296055   8.138  10.207   8.258 -3.4168  2.2573 -2.9550
61444SOL     OW96056   2.161   9.950   5.140 -0.1880  0.1078 -0.1086
61444SOL    HW196057   2.133  10.031   5.096  0.0275  0.5435  0.5390
61444SOL    HW296058   2.165   9.885   5.070 -2.9616 -0.0575 -0.2623
61445SOL     OW96059   3.202   1.202   1.195 -0.2031 -0.4006 -0.5211
61445SOL    HW196060   3.147   1.151   1.136  0.1018 -0.6254 -0.6135
61445SOL    HW296061   3.180   1.293   1.175 -0.3783 -0.4860 -0.7161
61446SOL     OW96062  11.555  12.760   8.340  0.2569  0.2220  0.2262
61446SOL    HW196063  11.606  12.693   8.385  0.8033 -0.1955 -0.9667
61446SOL    HW296064  11.469  12.757   8.382 -0.5399 -2.9124 -1.2934
61447SOL     OW96065   8.209  12.869   0.563 -0.0275 -0.0120  0.7079
61447SOL    HW196066   8.161  12.787   0.552 -1.0655  0.6191  0.4242
61447SOL    HW296067   8.210  12.908   0.476 -0.2254  0.6415  0.9914
61448SOL     OW96068   2.858  12.476   5.644  0.4673  0.3200 -0.2907
61448SOL    HW196069   2.810  12.549   5.682 -0.1527  0.1685 -0.7508
61448SOL    HW296070   2.899  12.432   5.718 -1.8357 -0.7929  0.4075
61449SOL     OW96071   5.620   0.265   1.615  0.0420 -0.2434  0.4954
61449SOL    HW196072   5.649   0.275   1.706  1.8056 -0.7882  0.0133
61449SOL    HW296073   5.658   0.340   1.569 -0.7383 -0.0406  0.1503
61450SOL     OW96074   5.326  10.324   8.068 -0.2333 -0.2597 -0.1906
61450SOL    HW196075   5.267  10.255   8.098 -1.2072  0.9961  0.9117
61450SOL    HW296076   5.329  10.314   7.973  1.2850 -3.0577  0.0372
61451SOL     OW96077   1.432  13.652   3.341  0.0553  0.4947 -0.5827
61451SOL    HW196078   1.369  13.656   3.269 -0.4180 -3.1569 -0.5148
61451SOL    HW296079   1.380  13.630   3.418  1.0852  0.3085  0.0779
61452SOL     OW96080  12.810   7.295   0.059  0.1162 -0.3123 -0.0558
61452SOL    HW196081  12.871   7.259   0.122 -0.0076 -0.2507  0.1000
61452SOL    HW296082  12.747   7.345   0.111  0.7292  0.7832 -0.3297
61453SOL     OW96083  11.020   9.721  12.351 -0.2383 -1.1985 -0.0038
61453SOL    HW196084  11.019   9.719  12.447 -1.9962 -2.5349 -0.0140
61453SOL    HW296085  10.938   9.679  12.325  1.3957 -3.3697 -2.1215
61454SOL     OW96086  13.441   2.010   0.665 -0.3108 -0.0595 -0.0818
61454SOL    HW196087  13.528   1.982   0.692  0.0908 -0.2899 -1.5354
61454SOL    HW296088  13.418   1.952   0.592 -2.0528 -0.5688  0.8085
61455SOL     OW96089   0.006   3.400   0.718 -0.0441  0.0459 -0.3744
61455SOL    HW196090  -0.078   3.357   0.704 -0.2333 -0.0739  0.9902
61455SOL    HW296091   0.016   3.403   0.813  1.1233  0.7854 -0.4980
61456SOL     OW96092  11.650   6.252   5.255 -0.0786  0.2153 -0.7655
61456SOL    HW196093  11.675   6.210   5.173 -1.7486  1.0614 -1.7760
61456SOL    HW296094  11.668   6.345   5.241 -0.1271  0.3303 -0.0805
61457SOL     OW96095   2.397   9.654  10.885 -0.4968 -0.4002 -0.1231
61457SOL    HW196096   2.480   9.632  10.926 -0.7796 -0.4001  0.4681
61457SOL    HW296097   2.409   9.632  10.793  1.4232  3.0487 -0.8649
61458SOL     OW96098   0.914   3.693   2.103 -0.4553 -0.4471  0.3187
61458SOL    HW196099   0.822   3.706   2.125 -0.2980  0.9116  0.2190
61458SOL    HW296100   0.954   3.779   2.111  0.1716 -0.3564 -2.7055
61459SOL     OW96101  11.465  11.839   5.166  0.2306 -0.0325  0.7134
61459SOL    HW196102  11.517  11.889   5.103  0.2148  0.7040  1.2689
61459SOL    HW296103  11.375  11.847   5.135  0.3270 -0.4371  0.3259
61460SOL     OW96104   9.441   5.959   3.166  0.1355  0.1398  0.4677
61460SOL    HW196105   9.410   5.988   3.080  1.4428 -0.5855 -0.3019
61460SOL    HW296106   9.362   5.942   3.216 -0.7955 -2.0650 -1.5267
61461SOL     OW96107   3.571   3.213   4.293  0.4193 -0.3381  0.1475
61461SOL    HW196108   3.499   3.149   4.289  0.2793 -0.1585 -0.2938
61461SOL    HW296109   3.646   3.167   4.256  0.2779 -0.2007 -0.3230
61462SOL     OW96110  10.600   0.707   9.831  0.4366  0.0405 -0.0133
61462SOL    HW196111  10.680   0.741   9.870 -0.0473 -1.2590  2.2832
61462SOL    HW296112  10.547   0.784   9.813  1.5807  0.8136 -0.1437
61463SOL     OW96113  12.217   6.739   2.838 -0.1535 -0.4945 -0.1216
61463SOL    HW196114  12.174   6.709   2.918  0.4986 -1.8214 -0.2473
61463SOL    HW296115  12.152   6.795   2.795 -2.1636 -3.1531 -0.7787
61464SOL     OW96116   7.520   8.092   2.785 -0.1073 -0.1212  0.7175
61464SOL    HW196117   7.548   8.003   2.803  3.4759  0.9733  1.3494
61464SOL    HW296118   7.583   8.125   2.721  0.0044  2.5825  2.0758
61465SOL     OW96119   7.319   9.511   7.515 -0.4152  0.3674  0.1626
61465SOL    HW196120   7.322   9.440   7.451 -0.8957 -0.0570  0.5967
61465SOL    HW296121   7.242   9.491   7.569 -0.3413  1.0206  0.5169
61466SOL     OW96122   7.618   3.683   8.069 -0.6046 -0.6026  0.3298
61466SOL    HW196123   7.565   3.630   8.010 -1.9316 -0.4121  1.2871
61466SOL    HW296124   7.681   3.622   8.108  0.6208 -0.6361 -1.5866
61467SOL     OW96125   0.121   6.863  12.044  0.1752 -0.1316 -0.1076
61467SOL    HW196126   0.136   6.804  11.970 -0.9780  1.8550 -2.0612
61467SOL    HW296127   0.192   6.928  12.038 -0.1992  0.3160  0.2291
61468SOL     OW96128   9.858   2.411   4.552 -0.0770  0.2547 -0.0001
61468SOL    HW196129   9.791   2.410   4.484  0.5879 -1.9602 -0.7244
61468SOL    HW296130   9.941   2.406   4.504  0.4918  0.4952  0.9277
61469SOL     OW96131  12.932   1.407   8.076 -0.4029 -0.2843  0.3535
61469SOL    HW196132  12.967   1.440   7.993  0.0303  0.6928  0.8990
61469SOL    HW296133  13.010   1.393   8.130 -0.7611  1.5146  1.4459
61470SOL     OW96134  12.149   6.073   2.918  0.4571  0.0216 -0.2405
61470SOL    HW196135  12.107   6.158   2.933 -1.4657 -1.1392  1.4284
61470SOL    HW296136  12.205   6.087   2.842  0.0066  2.7035 -0.1700
61471SOL     OW96137  12.191   3.158   2.255 -0.2216  0.0783  0.9816
61471SOL    HW196138  12.145   3.136   2.174  1.4487 -1.7872  0.4659
61471SOL    HW296139  12.228   3.245   2.239  0.4542 -0.4437 -0.4749
61472SOL     OW96140   1.501   3.611   3.813 -0.1147  0.2412  0.6089
61472SOL    HW196141   1.420   3.625   3.862  0.7999  0.3258  2.1705
61472SOL    HW296142   1.571   3.633   3.875  1.1824 -2.6221  0.3208
61473SOL     OW96143  11.216   1.583   1.049 -0.2432 -0.1720 -0.2713
61473SOL    HW196144  11.248   1.671   1.028  0.1723 -0.1944  0.2534
61473SOL    HW296145  11.249   1.566   1.137 -1.5798 -0.2656  0.2258
61474SOL     OW96146   4.528   8.589   1.515  0.1095 -0.2353  0.6431
61474SOL    HW196147   4.451   8.641   1.491  0.6397 -0.3649 -1.5638
61474SOL    HW296148   4.594   8.653   1.538 -0.0089 -0.0366  0.4340
61475SOL     OW96149   1.686   4.626  12.502  0.7235 -0.3589 -0.0917
61475SOL    HW196150   1.665   4.571  12.426 -1.1038 -1.1313  0.9013
61475SOL    HW296151   1.744   4.571  12.555  0.6824 -0.4636 -0.1545
61476SOL     OW96152   2.019  11.007   9.780 -0.1263  0.4194 -0.0677
61476SOL    HW196153   1.992  10.953   9.854 -2.1388 -0.4832 -1.4018
61476SOL    HW296154   1.972  11.089   9.792 -0.9121  0.0566 -0.6468
61477SOL     OW96155  12.056   3.499   0.080  0.0554  0.6095  0.4182
61477SOL    HW196156  12.060   3.468   0.170  0.4494  0.7726  0.4578
61477SOL    HW296157  12.129   3.455   0.036  0.5814  1.4281  0.4564
61478SOL     OW96158   0.590  11.824   5.482 -0.2061  0.1538 -0.0363
61478SOL    HW196159   0.522  11.886   5.509 -0.6918 -0.2575 -0.3053
61478SOL    HW296160   0.581  11.818   5.386 -0.5041 -0.7190  0.0364
61479SOL     OW96161   8.785  11.603   1.042 -0.5948  0.4001  0.4673
61479SOL    HW196162   8.697  11.565   1.044 -0.4586  0.0877  1.7201
61479SOL    HW296163   8.837  11.540   0.992 -0.9503  0.2805  0.2435
61480SOL     OW96164   4.109  12.145   8.072  0.1574 -0.4390  0.1458
61480SOL    HW196165   4.092  12.057   8.039 -0.0188  0.0340 -1.0594
61480SOL    HW296166   4.200  12.142   8.100  0.8831 -0.4021 -2.0096
61481SOL     OW96167   0.469   7.019   7.687 -0.7476 -0.2851 -0.4898
61481SOL    HW196168   0.518   6.949   7.645  0.8362  0.0918  0.6476
61481SOL    HW296169   0.406   6.974   7.743  0.7232 -0.8581  0.7708
61482SOL     OW96170   8.775   6.991   6.590  0.2721 -0.3504  0.2553
61482SOL    HW196171   8.735   7.041   6.519  1.2796 -0.3017 -0.2854
61482SOL    HW296172   8.712   6.920   6.606 -1.6884  1.5875  1.7374
61483SOL     OW96173   3.416  11.640   5.236  0.3535  0.1678  0.1683
61483SOL    HW196174   3.469  11.594   5.301  0.1030 -0.8095 -0.2978
61483SOL    HW296175   3.480  11.668   5.170  0.5999  1.1111  0.7900
61484SOL     OW96176   8.848  10.382   4.863  0.1532 -0.0185 -0.2430
61484SOL    HW196177   8.880  10.456   4.811  1.0419 -1.0622 -1.2330
61484SOL    HW296178   8.781  10.420   4.920  0.5304  1.5280 -0.7747
61485SOL     OW96179  12.788   0.097   4.683  0.9934  0.5104 -0.5741
61485SOL    HW196180  12.725   0.090   4.611  1.7913 -0.5811 -1.2001
61485SOL    HW296181  12.871   0.068   4.645  1.9821  2.2950  0.1300
61486SOL     OW96182  12.864   4.258   8.158 -0.4337  0.3439 -0.9458
61486SOL    HW196183  12.925   4.283   8.227  0.1875  0.6325 -1.5914
61486SOL    HW296184  12.817   4.182   8.194 -0.6598  0.9564  0.0859
61487SOL     OW96185   2.351   2.770  11.090  0.5864  0.2395  0.2382
61487SOL    HW196186   2.319   2.844  11.142 -1.1674 -0.3822  0.1124
61487SOL    HW296187   2.445   2.787  11.080  0.2047  2.5597  0.0044
61488SOL     OW96188   9.488   7.026   1.478 -0.1207 -0.8451 -0.2702
61488SOL    HW196189   9.525   6.991   1.558  2.0005  0.2761 -0.6617
61488SOL    HW296190   9.394   7.030   1.493  0.2617 -0.2420  2.3342
61489SOL     OW96191   6.367   5.295   7.969  0.2657 -0.4882 -0.4222
61489SOL    HW196192   6.375   5.340   7.885 -3.2891 -1.2467 -1.3213
61489SOL    HW296193   6.420   5.348   8.029  1.4800  1.0915 -2.7335
61490SOL     OW96194   8.211   6.904   7.003 -0.4143  0.3817  0.4474
61490SOL    HW196195   8.281   6.930   7.063 -0.3474  0.2539  0.4251
61490SOL    HW296196   8.139   6.878   7.060 -0.1064 -0.4167  0.4860
61491SOL     OW96197   1.490  10.776   3.816 -0.2057  0.4782 -0.3918
61491SOL    HW196198   1.468  10.819   3.899 -1.3520  0.6482 -0.7640
61491SOL    HW296199   1.548  10.838   3.772  0.4390  0.3708  0.2952
61492SOL     OW96200  12.356   9.883  10.324 -0.1738 -0.6085 -0.2291
61492SOL    HW196201  12.407   9.840  10.255  0.3580 -1.4788  0.6840
61492SOL    HW296202  12.278   9.915  10.279  0.7171 -0.0739 -1.4773
61493SOL     OW96203  11.040  10.581  13.557 -0.5089 -0.0185 -0.6550
61493SOL    HW196204  11.071  10.544  13.639  0.0917 -1.1920 -1.3741
61493SOL    HW296205  11.035  10.675  13.572 -1.2285 -0.2920  0.9762
61494SOL     OW96206   6.231   7.184  11.090 -0.0189  0.4514  0.2083
61494SOL    HW196207   6.246   7.101  11.046 -2.7662  0.6733 -1.3521
61494SOL    HW296208   6.141   7.208  11.068 -0.1779  2.6351  2.6663
61495SOL     OW96209   9.034  12.979  13.669 -0.1387 -0.1409  0.0243
61495SOL    HW196210   9.051  12.953  13.759  1.9082 -0.3354 -0.3698
61495SOL    HW296211   8.979  13.056  13.676 -0.4080 -0.4426  1.4261
61496SOL     OW96212   1.354   5.941   3.472 -0.0112 -0.2589 -0.0411
61496SOL    HW196213   1.408   5.890   3.412 -0.1601 -0.1168 -0.2947
61496SOL    HW296214   1.329   6.019   3.423  1.0629  0.5677  0.6741
61497SOL     OW96215   0.350  10.012   4.861 -0.2142 -0.3426 -0.2421
61497SOL    HW196216   0.324   9.927   4.826 -0.4968  0.0184 -0.9391
61497SOL    HW296217   0.345  10.071   4.786  0.8470  0.1105  0.0272
61498SOL     OW96218   4.688  12.066   2.578  0.2648  0.1768  0.4168
61498SOL    HW196219   4.633  11.989   2.589 -0.3897  0.6625  0.5750
61498SOL    HW296220   4.770  12.043   2.621  0.2369 -0.5964  0.0792
61499SOL     OW96221   3.214  11.367   4.721 -0.3377  0.2441  0.2303
61499SOL    HW196222   3.272  11.411   4.783  0.6703 -0.8403  0.1012
61499SOL    HW296223   3.272  11.314   4.666 -1.1175  1.6190 -2.0835
61500SOL     OW96224  11.570   6.668  11.731  0.9457 -0.3669 -0.6693
61500SOL    HW196225  11.572   6.720  11.651  1.8218  0.1139 -0.3439
61500SOL    HW296226  11.478   6.670  11.759  0.3479 -1.6567 -2.3684
61501SOL     OW96227   6.256  12.782   6.492  0.0134  0.1107  0.2232
61501SOL    HW196228   6.330  12.766   6.434  0.1379 -3.5677  1.1730
61501SOL    HW296229   6.197  12.707   6.477 -2.1905  1.4685  1.5074
61502SOL     OW96230   2.302  13.597   4.081 -0.2043 -0.3896  0.3822
61502SOL    HW196231   2.377  13.642   4.043 -0.2800  0.2148  0.9412
61502SOL    HW296232   2.339  13.532   4.141 -0.1307  0.7315  1.5917
61503SOL     OW96233   9.397   2.828   3.200 -0.0964 -0.1269  0.6379
61503SOL    HW196234   9.333   2.767   3.164  0.2349  0.9162 -1.9186
61503SOL    HW296235   9.344   2.887   3.255 -1.0620 -0.3633 -0.0061
61504SOL     OW96236   6.979  13.489   3.276  0.2669  0.0839  0.0592
61504SOL    HW196237   6.908  13.506   3.338  0.9634  0.4261  0.7771
61504SOL    HW296238   6.988  13.394   3.276 -1.3931 -0.1306 -1.4315
61505SOL     OW96239   1.716  12.838   2.459  0.1396 -0.0623 -0.5713
61505SOL    HW196240   1.694  12.926   2.488  0.9225  0.1339 -0.5395
61505SOL    HW296241   1.632  12.796   2.440 -0.2379  0.6591 -0.4989
61506SOL     OW96242   3.514   3.877   7.557 -0.3489  0.1334  0.3382
61506SOL    HW196243   3.506   3.822   7.479 -1.0958 -1.1325  1.2880
61506SOL    HW296244   3.551   3.820   7.624  0.1315  1.1653  0.9802
61507SOL     OW96245  10.347   8.762   7.918  0.2623 -0.0699  0.3268
61507SOL    HW196246  10.379   8.712   7.843 -0.3067 -1.4214  0.9540
61507SOL    HW296247  10.413   8.830   7.932  0.6280 -0.1031 -1.0663
61508SOL     OW96248   9.585   4.673   6.300  0.2108  0.0832 -0.2984
61508SOL    HW196249   9.577   4.580   6.321 -1.3294  0.0239 -1.0505
61508SOL    HW296250   9.680   4.689   6.299  0.7283 -2.2268 -3.2232
61509SOL     OW96251  10.008   9.712   6.317  0.2145 -0.2144  0.1115
61509SOL    HW196252   9.955   9.737   6.393  0.8296 -2.0803  1.2201
61509SOL    HW296253   9.967   9.632   6.284  0.3981  0.1645 -1.0782
61510SOL     OW96254   1.127   3.010  10.657  0.0120 -0.8780 -0.3236
61510SOL    HW196255   1.167   3.045  10.578 -2.3696  3.4075  0.0529
61510SOL    HW296256   1.050   2.963  10.626 -0.1385 -0.4318 -0.6400
61511SOL     OW96257   1.565   1.841   2.466  0.2277  1.0637  0.2958
61511SOL    HW196258   1.558   1.782   2.540  2.0878 -0.6221 -0.7873
61511SOL    HW296259   1.510   1.802   2.398  0.4693  1.2689 -0.0234
61512SOL     OW96260  13.298  12.520   0.251  0.2181  0.2338  0.4819
61512SOL    HW196261  13.231  12.508   0.319 -0.8123  0.3852 -0.4896
61512SOL    HW296262  13.331  12.432   0.234  0.7018  0.2293  1.3811
61513SOL     OW96263   5.550  10.425   0.731  1.4900  0.4538 -0.0647
61513SOL    HW196264   5.547  10.415   0.636  0.4786  1.3213 -0.1397
61513SOL    HW296265   5.586  10.512   0.745  0.8284  0.6695  0.3254
61514SOL     OW96266   2.816   3.485   4.527  0.3488  0.0088  0.3104
61514SOL    HW196267   2.834   3.428   4.602 -1.0041 -2.1514 -0.8918
61514SOL    HW296268   2.819   3.574   4.562 -0.3143 -0.9326  2.9267
61515SOL     OW96269  13.051   5.185   9.267 -0.2482 -0.0011  0.7832
61515SOL    HW196270  13.120   5.120   9.269 -0.2349  0.0230  1.3910
61515SOL    HW296271  12.975   5.139   9.231  0.8749  0.7951 -3.0814
61516SOL     OW96272   3.790   6.105   1.018 -0.9314  0.2691 -0.5561
61516SOL    HW196273   3.876   6.063   1.019 -1.0966 -0.2155 -2.3206
61516SOL    HW296274   3.794   6.166   0.944 -2.0022  0.4879 -0.4514
61517SOL     OW96275   6.429  10.208   6.551  0.2614  0.6524 -0.1586
61517SOL    HW196276   6.507  10.165   6.517 -0.3659 -1.3508  0.7904
61517SOL    HW296277   6.460  10.290   6.589  1.8437  0.0217 -0.0529
61518SOL     OW96278   3.170  13.602  13.426  0.3109  0.1563  0.1978
61518SOL    HW196279   3.114  13.536  13.385  0.7656 -0.4268  0.4969
61518SOL    HW296280   3.109  13.662  13.469 -0.1148 -1.7879  2.5943
61519SOL     OW96281   9.673   8.932  13.743 -0.1470 -0.1927 -0.0856
61519SOL    HW196282   9.763   8.955  13.721  0.4886 -2.2324  0.1104
61519SOL    HW296283   9.667   8.838  13.723 -1.6762 -0.5131  1.5958
61520SOL     OW96284   4.657  13.338   8.814 -0.2777  0.0689  0.2778
61520SOL    HW196285   4.718  13.320   8.886  1.0529  1.2203 -0.5043
61520SOL    HW296286   4.702  13.403   8.761 -1.1805 -0.8089 -1.6485
61521SOL     OW96287   6.528  12.823  10.053  0.2549 -0.4637  0.1460
61521SOL    HW196288   6.493  12.898  10.099  0.0281  0.3074 -1.2301
61521SOL    HW296289   6.455  12.760  10.049  0.1355 -0.3409  0.4178
61522SOL     OW96290   4.351   2.120   4.793 -0.4997  0.2571  0.1007
61522SOL    HW196291   4.328   2.080   4.876 -1.2648  0.3824 -0.0502
61522SOL    HW296292   4.268   2.150   4.756 -0.1800  0.1616 -0.7257
61523SOL     OW96293   0.010  13.319   5.643 -0.2384  0.1070 -0.0559
61523SOL    HW196294   0.027  13.322   5.737 -1.8414 -3.1614  0.4595
61523SOL    HW296295  -0.084  13.335   5.634 -0.4067 -1.2107 -0.9050
61524SOL     OW96296  12.210   5.018   7.777 -0.2997  0.2749  0.0020
61524SOL    HW196297  12.279   5.029   7.711  0.3165  0.5168  0.6610
61524SOL    HW296298  12.242   4.947   7.833 -1.0798 -0.3111 -0.2851
61525SOL     OW96299   5.270   4.974  11.024 -0.2355  0.2290  0.1077
61525SOL    HW196300   5.248   5.049  10.969 -1.6492 -0.0548  0.2549
61525SOL    HW296301   5.312   4.912  10.964  2.1995  1.6292  0.2453
61526SOL     OW96302   8.726  13.086  13.144  0.0855 -0.4417 -0.3524
61526SOL    HW196303   8.772  13.008  13.112  0.5189 -0.1803 -0.3690
61526SOL    HW296304   8.738  13.084  13.239 -0.1210 -0.5298 -0.3262
61527SOL     OW96305   6.270   6.718   8.568  0.1563  0.0917  0.2310
61527SOL    HW196306   6.190   6.761   8.599 -0.0831 -0.0260 -0.2024
61527SOL    HW296307   6.315   6.785   8.517 -0.2522 -0.1808 -0.5060
61528SOL     OW96308  11.303   0.305   2.208  0.2105  0.1377 -0.4280
61528SOL    HW196309  11.235   0.341   2.152  0.9743  2.4057  0.0200
61528SOL    HW296310  11.268   0.312   2.297  0.3534 -0.2894 -0.3339
61529SOL     OW96311   8.606   3.327   0.725 -0.0150 -0.2542  0.2758
61529SOL    HW196312   8.675   3.393   0.711  1.2052 -1.4658  0.3503
61529SOL    HW296313   8.641   3.270   0.794 -1.2713 -0.6880  0.5800
61530SOL     OW96314   0.133  12.207   5.284 -0.2848  0.3364  0.1084
61530SOL    HW196315   0.228  12.200   5.298 -0.0779  0.2313 -1.2359
61530SOL    HW296316   0.099  12.121   5.309 -0.0071  0.2982  0.3701
61531SOL     OW96317  13.230   1.067   1.912 -0.3334  0.1488 -0.0268
61531SOL    HW196318  13.287   1.130   1.955  0.0941 -1.4891  1.9379
61531SOL    HW296319  13.237   0.988   1.964 -2.2983 -0.9774 -1.3172
61532SOL     OW96320   8.638  13.704   4.137  0.0415  0.0278 -0.0383
61532SOL    HW196321   8.682  13.778   4.179 -0.4893  0.0896  0.4287
61532SOL    HW296322   8.708  13.643   4.115  0.3335 -0.0568  1.0430
61533SOL     OW96323  11.817   3.567   0.341  0.1016  0.0299  0.1490
61533SOL    HW196324  11.871   3.489   0.356  2.2606  1.4663  0.2229
61533SOL    HW296325  11.861   3.636   0.389 -1.8023  1.3363  0.1368
61534SOL     OW96326   6.884   6.556  10.260  0.3377 -0.0996  0.1138
61534SOL    HW196327   6.802   6.525  10.298  0.6824 -0.0122  0.9463
61534SOL    HW296328   6.909   6.631  10.314  0.5819  0.3355 -0.6013
61535SOL     OW96329  12.989   0.265   6.588 -0.1753 -0.8227  0.0946
61535SOL    HW196330  13.059   0.208   6.557  1.3678  0.7806  0.5091
61535SOL    HW296331  12.909   0.213   6.576  1.1746 -3.2180  0.8383
61536SOL     OW96332   5.790   3.151   5.777  0.0383  0.6390  0.4812
61536SOL    HW196333   5.730   3.160   5.851  0.8026  0.3659  1.1523
61536SOL    HW296334   5.856   3.218   5.792  1.6343 -1.0327  1.4931
61537SOL     OW96335   2.948   5.555  11.885  0.4205 -0.1841  0.2318
61537SOL    HW196336   2.950   5.480  11.945  1.8208  0.9051  1.6530
61537SOL    HW296337   2.912   5.627  11.937 -0.6751  0.2146 -1.0283
61538SOL     OW96338   8.175  10.242  13.065  0.6125 -0.2425 -0.3089
61538SOL    HW196339   8.213  10.160  13.095 -0.5813  0.0787  2.4628
61538SOL    HW296340   8.219  10.309  13.117  0.1214  0.6597 -1.0306
61539SOL     OW96341   8.815  12.115   0.355  0.0944  1.0079 -0.0483
61539SOL    HW196342   8.897  12.141   0.313  0.9890  0.1833  1.0971
61539SOL    HW296343   8.795  12.029   0.317  0.5386  0.5733  0.6545
61540SOL     OW96344  11.827   3.586  12.803 -0.2506 -0.3818 -0.2249
61540SOL    HW196345  11.869   3.508  12.840 -0.4396 -0.7869 -0.8571
61540SOL    HW296346  11.892   3.623  12.744  0.4440  0.8486  1.2503
61541SOL     OW96347  12.814  10.020   5.409  0.5912  0.0418 -0.1929
61541SOL    HW196348  12.755  10.047   5.338 -0.6293  1.6214  1.3127
61541SOL    HW296349  12.883  10.086   5.410  0.2915  0.3524  0.4318
61542SOL     OW96350   0.816   3.685   4.439 -0.0148  0.1296  0.4371
61542SOL    HW196351   0.857   3.599   4.429 -0.4151  0.0790 -0.8224
61542SOL    HW296352   0.763   3.677   4.518  1.1271 -0.2965  1.1920
61543SOL     OW96353   1.045   0.041  13.526 -0.2522  0.1510 -0.0621
61543SOL    HW196354   1.010   0.119  13.567 -1.8423 -0.5080 -0.1112
61543SOL    HW296355   0.992  -0.031  13.561 -0.9652 -0.5523 -2.4075
61544SOL     OW96356  12.145   6.930  10.633  0.1565 -0.2335  0.5598
61544SOL    HW196357  12.117   6.932  10.725  0.2815  0.0813  0.5926
61544SOL    HW296358  12.135   7.020  10.604 -5.4572 -1.0993 -1.4170
61545SOL     OW96359   4.981   0.745  11.476  0.2234 -0.2173  0.1547
61545SOL    HW196360   4.943   0.666  11.515  0.0053 -0.4601 -0.5308
61545SOL    HW296361   4.947   0.817  11.529 -1.5511 -0.3910 -0.6846
61546SOL     OW96362   4.857  12.928   3.296  0.3486 -0.5349  0.4783
61546SOL    HW196363   4.808  12.853   3.263 -0.0933 -0.8165  1.7128
61546SOL    HW296364   4.883  12.903   3.385  1.8951  0.0014  0.2069
61547SOL     OW96365   1.842  12.116   8.939  0.1550 -0.6299 -0.4005
61547SOL    HW196366   1.783  12.131   8.866  1.3799 -0.5331 -1.3990
61547SOL    HW296367   1.873  12.203   8.965 -0.8897 -0.5899  0.7817
61548SOL     OW96368   8.418   6.811  12.520 -0.3614  0.0459  0.4295
61548SOL    HW196369   8.449   6.846  12.603 -1.0101 -0.9413  1.1112
61548SOL    HW296370   8.364   6.880  12.483  1.2967  1.1690 -0.0191
61549SOL     OW96371   3.602   7.407  13.419  0.0357 -0.2633  0.5292
61549SOL    HW196372   3.579   7.499  13.435 -1.4873 -0.7339  1.1943
61549SOL    HW296373   3.689   7.411  13.379  0.3699  1.4203  1.3403
61550SOL     OW96374   7.948   0.361   9.167 -0.4524  1.2254 -1.0059
61550SOL    HW196375   7.852   0.356   9.157 -0.2355  0.3524 -3.2698
61550SOL    HW296376   7.967   0.455   9.163 -1.3053  1.5982  1.4556
61551SOL     OW96377   8.253   4.131  11.823  0.2333 -0.3001  0.4221
61551SOL    HW196378   8.282   4.152  11.735  1.6584 -1.4271  0.5745
61551SOL    HW296379   8.182   4.068  11.811  0.8346 -0.9276  0.0597
61552SOL     OW96380   2.683  11.441  10.947 -0.5387 -0.2023  0.1408
61552SOL    HW196381   2.725  11.508  10.892  0.0650 -0.7826 -0.1148
61552SOL    HW296382   2.618  11.401  10.889  0.4135 -1.1290 -0.3201
61553SOL     OW96383   8.661   7.833   7.602 -0.6289  0.5858 -0.0736
61553SOL    HW196384   8.668   7.884   7.520 -0.7333  0.8221  0.0612
61553SOL    HW296385   8.744   7.787   7.609 -0.5282  0.7461 -0.1947
61554SOL     OW96386   7.035   8.817   8.357 -0.0746  0.0584 -0.6110
61554SOL    HW196387   7.016   8.885   8.422  0.4955 -0.8857  0.5746
61554SOL    HW296388   6.959   8.818   8.298 -1.1086  0.2022  0.6964
61555SOL     OW96389   3.966  12.686   4.343  0.1605  0.7845  0.0563
61555SOL    HW196390   3.971  12.700   4.438  0.4849 -2.2439  0.5865
61555SOL    HW296391   4.013  12.760   4.305  0.2545  1.9298  2.2501
61556SOL     OW96392  12.716   7.819   1.487 -0.8174  0.2033 -0.8258
61556SOL    HW196393  12.698   7.799   1.579  0.1258  1.9996 -0.2007
61556SOL    HW296394  12.737   7.734   1.448  0.3405 -0.4261  0.9997
61557SOL     OW96395  13.558   5.203   4.262 -0.1817 -0.0418 -0.6044
61557SOL    HW196396  13.616   5.262   4.312  1.1650  2.0321 -4.2419
61557SOL    HW296397  13.592   5.115   4.280  3.3718  0.9898 -1.4643
61558SOL     OW96398   4.285   8.254  11.597 -0.3002 -0.1961  0.1276
61558SOL    HW196399   4.234   8.246  11.678  0.7032  1.2681  0.9550
61558SOL    HW296400   4.340   8.176  11.595 -0.5634 -0.4002  0.6792
61559SOL     OW96401   9.236   4.124  10.116 -0.6872  0.0912  0.1690
61559SOL    HW196402   9.287   4.093  10.192  0.0890  1.7449  0.3483
61559SOL    HW296403   9.271   4.074  10.042  1.3191  1.2664  0.2658
61560SOL     OW96404   0.103   1.615  12.910 -0.2224 -0.1976 -0.4401
61560SOL    HW196405   0.010   1.628  12.931 -0.2864 -0.1023 -0.7728
61560SOL    HW296406   0.102   1.585  12.819  0.0938  0.0749 -0.5296
61561SOL     OW96407   1.928  10.355   2.483  0.2162 -0.4848 -0.1811
61561SOL    HW196408   1.887  10.273   2.459 -2.3342  0.3797  0.8871
61561SOL    HW296409   1.984  10.333   2.558 -0.5098 -1.2695  0.1486
61562SOL     OW96410   5.709   7.204   6.408 -0.3294 -0.0758 -0.3449
61562SOL    HW196411   5.659   7.135   6.452  0.7504 -1.6706 -1.4903
61562SOL    HW296412   5.791   7.161   6.381  2.5739  2.7620  2.9253
61563SOL     OW96413  11.547   1.886  11.559  0.2059 -0.6226  0.2515
61563SOL    HW196414  11.611   1.872  11.629 -0.0058 -1.7093  0.2578
61563SOL    HW296415  11.511   1.798  11.542 -0.4605 -0.2144 -0.5330
61564SOL     OW96416  10.313  13.362   6.571 -0.5136 -0.3818  0.4590
61564SOL    HW196417  10.398  13.404   6.586 -0.1959 -1.3433  1.3922
61564SOL    HW296418  10.308  13.293   6.636 -2.7285  0.6806  1.5168
61565SOL     OW96419   5.762   4.966  13.207  0.4848 -0.0536  0.5412
61565SOL    HW196420   5.698   5.027  13.171 -0.0139  0.4696  2.2086
61565SOL    HW296421   5.771   4.898  13.140 -1.7949 -0.1278  0.2286
61566SOL     OW96422   1.505   2.672  11.446  0.3251  0.5557  0.0520
61566SOL    HW196423   1.414   2.643  11.450  0.8947 -1.2363  1.0761
61566SOL    HW296424   1.524   2.679  11.353 -0.8397  0.9750 -0.1771
61567SOL     OW96425   9.144  10.601   0.706 -0.1248  0.2833  0.3885
61567SOL    HW196426   9.119  10.538   0.774 -1.1401  0.0530 -0.1752
61567SOL    HW296427   9.232  10.574   0.680 -0.1469 -0.2805  0.8704
61568SOL     OW96428   4.907   5.643   8.895  0.0561  0.7304  0.1178
61568SOL    HW196429   4.949   5.600   8.820 -1.0719  0.6676 -0.5056
61568SOL    HW296430   4.974   5.702   8.929  0.5697  0.8131 -0.9856
61569SOL     OW96431   4.371   3.975   2.417  0.5278 -0.2182  0.2416
61569SOL    HW196432   4.362   3.900   2.477 -0.6289 -0.7131 -0.5152
61569SOL    HW296433   4.287   4.020   2.423 -0.4333 -1.4216 -2.4646
61570SOL     OW96434   2.191   9.921   8.538  0.3776 -0.0922  0.2937
61570SOL    HW196435   2.211   9.917   8.444 -1.5043  1.7028 -0.2546
61570SOL    HW296436   2.127   9.992   8.546 -0.6378 -1.1865  2.7667
61571SOL     OW96437   8.358  13.263  10.251  0.0466  0.5395 -0.6563
61571SOL    HW196438   8.349  13.294  10.341  2.0396 -1.0248  0.1472
61571SOL    HW296439   8.355  13.343  10.198 -1.5979  1.4467  0.7256
61572SOL     OW96440   3.403  11.582  12.437 -0.3621  0.1135  0.0729
61572SOL    HW196441   3.369  11.522  12.502 -0.6608  0.9696  0.7302
61572SOL    HW296442   3.453  11.527  12.376  0.3027 -0.6423  1.2718
61573SOL     OW96443  10.270   0.859   4.345 -0.5336  0.3385  0.6505
61573SOL    HW196444  10.336   0.790   4.352 -0.5898  0.0013 -1.5102
61573SOL    HW296445  10.186   0.812   4.346 -0.5984  0.4316 -0.1297
61574SOL     OW96446   7.486   4.259   6.613  0.4536 -0.6500 -0.0191
61574SOL    HW196447   7.481   4.169   6.582  1.3507 -0.3617 -1.0645
61574SOL    HW296448   7.545   4.302   6.551 -0.5419  0.8426  0.0330
61575SOL     OW96449  11.074   8.998   1.313 -0.1299  0.0867 -0.2487
61575SOL    HW196450  11.077   9.028   1.403  1.3626 -1.9904  0.4623
61575SOL    HW296451  11.161   8.963   1.295 -0.0086  1.4373 -2.9064
61576SOL     OW96452   1.139   3.227   2.939 -0.4563  0.5648 -0.0650
61576SOL    HW196453   1.230   3.226   2.969 -0.6184 -1.1633  0.4885
61576SOL    HW296454   1.088   3.251   3.016 -0.6678 -1.3968  0.4665
61577SOL     OW96455   7.517  13.128  11.153  0.1406 -0.3387  0.5797
61577SOL    HW196456   7.496  13.211  11.111  0.7772 -1.0044 -1.1468
61577SOL    HW296457   7.607  13.139  11.183  1.0080 -1.0768 -1.5735
61578SOL     OW96458  10.389   5.212   6.545 -0.4053  0.2934 -0.2883
61578SOL    HW196459  10.445   5.215   6.622 -0.1593  0.3649 -0.4696
61578SOL    HW296460  10.302   5.192   6.580 -0.4150  0.9275  0.0768
61579SOL     OW96461   8.569   7.521  12.455 -0.2851  0.1909 -0.7744
61579SOL    HW196462   8.548   7.452  12.392 -0.7721  0.1490 -0.5697
61579SOL    HW296463   8.526   7.600  12.419 -0.7380  0.1223 -0.3983
61580SOL     OW96464  11.015   5.063   7.187  0.4780 -0.2837  0.3029
61580SOL    HW196465  10.930   5.048   7.227  0.3543 -0.3356  0.0239
61580SOL    HW296466  10.996   5.076   7.094  0.7054  0.3908  0.3482
61581SOL     OW96467   4.662   1.310   7.303 -0.1549  0.0249 -0.7115
61581SOL    HW196468   4.719   1.322   7.379  0.1502  2.1938 -1.2156
61581SOL    HW296469   4.578   1.346   7.330 -0.9546 -1.9545 -0.4239
61582SOL     OW96470  13.713   7.640  13.173  0.4774 -0.2530  0.3353
61582SOL    HW196471  13.798   7.634  13.129  0.2838 -0.7851  0.0178
61582SOL    HW296472  13.680   7.550  13.173  0.3808 -0.2283  1.3887
61583SOL     OW96473  13.372   6.392   0.561  0.0155  0.3437  0.0097
61583SOL    HW196474  13.383   6.344   0.479  0.4267  0.8087 -0.2122
61583SOL    HW296475  13.370   6.324   0.628  0.5809  0.0143 -0.2990
61584SOL     OW96476   5.537   3.237   8.603 -0.3528 -0.1703 -0.0999
61584SOL    HW196477   5.543   3.150   8.562 -1.3610 -0.4433  0.2903
61584SOL    HW296478   5.445   3.262   8.590 -0.1035  0.7685 -0.0679
61585SOL     OW96479  10.951   0.898   4.990 -0.9029  0.4649  0.3788
61585SOL    HW196480  10.954   0.872   5.082  0.3944  0.4376  0.3421
61585SOL    HW296481  10.997   0.982   4.987 -0.2748  0.1084 -0.3480
61586SOL     OW96482  12.338   1.065  12.579 -1.2346 -1.1106  0.1279
61586SOL    HW196483  12.340   1.059  12.483 -1.6091  0.1052  0.0375
61586SOL    HW296484  12.289   0.987  12.606  1.4844 -3.1983 -0.4522
61587SOL     OW96485   9.781  13.225   4.209 -0.0640 -0.3179 -0.4250
61587SOL    HW196486   9.867  13.252   4.179  0.0806  0.1917  0.4241
61587SOL    HW296487   9.795  13.194   4.299 -0.7465 -0.3123 -0.3081
61588SOL     OW96488   5.089   8.546  13.533  0.6360 -0.2286  0.5797
61588SOL    HW196489   5.004   8.506  13.548  1.4538 -2.2524  0.0793
61588SOL    HW296490   5.069   8.637  13.509 -1.5579 -1.2244 -1.8450
61589SOL     OW96491   8.845  10.660   7.219  0.0002 -0.0503 -0.3519
61589SOL    HW196492   8.779  10.665   7.149  1.2450 -0.1877 -1.5726
61589SOL    HW296493   8.814  10.591   7.276 -1.5059  0.6508 -0.2571
61590SOL     OW96494  12.206  12.896   3.014 -0.3755 -0.1615  0.7594
61590SOL    HW196495  12.237  12.941   3.092  0.7708  1.1531 -0.3904
61590SOL    HW296496  12.259  12.817   3.008  1.0111  0.7758  0.2236
61591SOL     OW96497  13.558  11.207  11.985 -0.1640  0.2459  0.3172
61591SOL    HW196498  13.511  11.232  11.905 -0.2580 -0.1614  0.2419
61591SOL    HW296499  13.616  11.135  11.957  0.8130  1.0113  0.3091
61592SOL     OW96500   1.477   1.413  12.136  0.3833  0.1017 -0.1678
61592SOL    HW196501   1.543   1.439  12.071 -0.2431 -0.6758 -1.1537
61592SOL    HW296502   1.470   1.488  12.195  1.4859  0.5519 -0.5881
61593SOL     OW96503   0.747   4.901   4.668  0.6155 -0.8959 -0.0283
61593SOL    HW196504   0.680   4.969   4.660  1.5420 -0.0027 -0.3591
61593SOL    HW296505   0.712   4.840   4.733 -0.7070 -0.6858 -0.5194
61594SOL     OW96506  11.240   4.132   5.777  0.1219 -0.1855 -0.5728
61594SOL    HW196507  11.209   4.042   5.771 -0.1002 -0.1445 -0.1118
61594SOL    HW296508  11.247   4.161   5.686  0.8947 -0.9024 -0.7609
61595SOL     OW96509   9.930   2.657   1.127  0.3499  0.0001  0.4698
61595SOL    HW196510   9.994   2.728   1.134 -0.9764  1.1510  1.6344
61595SOL    HW296511   9.983   2.578   1.118  1.8835  1.0720 -0.4471
61596SOL     OW96512   3.045   6.896  12.338 -0.3359 -0.0887 -0.4017
61596SOL    HW196513   3.041   6.916  12.245  2.3182 -0.3113 -0.6282
61596SOL    HW296514   3.039   6.800  12.343  2.2208 -0.3399 -0.6645
61597SOL     OW96515   9.358   2.550  10.252  0.4392 -0.1598  0.0952
61597SOL    HW196516   9.280   2.602  10.269  1.5093  1.3190  0.6152
61597SOL    HW296517   9.391   2.583  10.168  1.0417 -0.0917  0.3543
61598SOL     OW96518  10.023   8.869  13.473  0.0494  0.0792  0.0852
61598SOL    HW196519  10.070   8.787  13.489  2.5166  1.6130  1.3450
61598SOL    HW296520   9.993   8.897  13.560 -1.1424  0.3301 -0.3882
61599SOL     OW96521   7.607   4.892   7.441  0.4258 -0.6893 -0.3481
61599SOL    HW196522   7.601   4.809   7.487  1.6077 -0.0017  1.1663
61599SOL    HW296523   7.545   4.949   7.487  1.1834 -0.1542  0.0234
61600SOL     OW96524   1.270  11.745  11.645  0.1029 -0.8275 -0.4819
61600SOL    HW196525   1.201  11.812  11.652  1.1553  0.2314  0.2295
61600SOL    HW296526   1.350  11.795  11.628  0.9351 -1.9117  0.1139
61601SOL     OW96527   7.070   6.166   7.834  0.2070 -0.2916 -0.1505
61601SOL    HW196528   7.163   6.154   7.851 -0.2758 -2.6007  1.2772
61601SOL    HW296529   7.060   6.261   7.821  2.6804  0.0392 -0.0620
61602SOL     OW96530   3.938  12.994   9.223 -0.6101  0.1519  0.4310
61602SOL    HW196531   3.866  12.952   9.271 -0.8086  1.0049  0.8923
61602SOL    HW296532   3.947  12.942   9.143 -1.5837 -0.1028  0.4778
61603SOL     OW96533  11.148  11.306   5.675  0.0626 -0.1094  0.1645
61603SOL    HW196534  11.240  11.289   5.694  0.0447 -0.9794 -0.4889
61603SOL    HW296535  11.140  11.297   5.580 -0.3663  1.6218  0.0035
61604SOL     OW96536   2.103   8.223   2.931  0.2268 -0.0576  0.0833
61604SOL    HW196537   2.108   8.238   2.837  1.9249 -0.1298  0.1467
61604SOL    HW296538   2.048   8.294   2.964 -2.2433 -1.2344 -1.1893
61605SOL     OW96539   3.410   1.958   2.120  0.2179  0.3982 -0.3087
61605SOL    HW196540   3.463   1.879   2.130 -0.4781 -0.0575 -0.2135
61605SOL    HW296541   3.469   2.029   2.147  0.1806 -0.2702  1.7079
61606SOL     OW96542   4.253  10.085   1.810  0.2708  0.3556  0.5693
61606SOL    HW196543   4.302  10.167   1.808 -0.7243  0.9565  0.1823
61606SOL    HW296544   4.161  10.112   1.809 -0.1516 -0.7640 -2.4444
61607SOL     OW96545   0.461  11.925   9.441 -0.0623 -0.0938  0.0317
61607SOL    HW196546   0.387  11.959   9.490  0.0499  0.4462 -0.1650
61607SOL    HW296547   0.504  12.003   9.405 -0.6631 -0.4932 -1.6720
61608SOL     OW96548   6.510   3.590  11.378  1.0536  0.4379  0.2827
61608SOL    HW196549   6.425   3.560  11.408  1.3329  1.3817  2.1953
61608SOL    HW296550   6.555   3.511  11.348 -0.6338  0.0002 -1.2369
61609SOL     OW96551   8.793   7.058   2.724 -0.7236  0.3723 -0.2452
61609SOL    HW196552   8.738   7.100   2.659 -0.2196  1.8753  0.2668
61609SOL    HW296553   8.798   7.121   2.796  1.0234 -0.0463  0.0495
61610SOL     OW96554   4.790   0.247   7.063 -0.2343  0.4906 -0.4772
61610SOL    HW196555   4.756   0.165   7.029 -0.7906  0.9846 -1.1582
61610SOL    HW296556   4.840   0.284   6.991  0.4434  0.5169 -0.0045
61611SOL     OW96557   1.323   4.560  12.493 -0.0455 -0.2475  0.4607
61611SOL    HW196558   1.243   4.538  12.540  0.4084  0.9726  1.8917
61611SOL    HW296559   1.388   4.573  12.562  0.3515  2.8199 -0.3598
61612SOL     OW96560   1.065   6.830   9.167  0.2641  0.2389  0.9073
61612SOL    HW196561   1.081   6.762   9.102 -0.1806  0.7305  0.2695
61612SOL    HW296562   1.148   6.837   9.216  0.4237 -0.5020  0.7472
61613SOL     OW96563  11.868   7.896   7.473 -0.2126  0.2093  0.4562
61613SOL    HW196564  11.852   7.893   7.567 -0.4645  2.0073  0.5082
61613SOL    HW296565  11.805   7.834   7.436 -1.1150  0.5450  1.3775
61614SOL     OW96566   6.241   5.225   2.711  0.5206 -0.5474 -0.2979
61614SOL    HW196567   6.161   5.233   2.763  0.3604 -0.4099 -0.5640
61614SOL    HW296568   6.311   5.222   2.775  0.2991 -0.6861 -0.0610
61615SOL     OW96569   9.929   0.963  10.870  0.5625 -0.8358  0.3759
61615SOL    HW196570   9.987   0.902  10.824  0.8823  1.1277 -2.0326
61615SOL    HW296571   9.979   1.044  10.876 -1.6845  0.8504 -1.5215
61616SOL     OW96572   9.125   8.080  10.980 -0.4261 -0.1399 -0.4288
61616SOL    HW196573   9.194   8.138  11.010  0.8080 -1.7985  0.1317
61616SOL    HW296574   9.044   8.124  11.004  0.4498  1.3669 -0.1246
61617SOL     OW96575   5.190  11.805   9.089 -0.4508 -0.2949 -0.6545
61617SOL    HW196576   5.280  11.777   9.104  0.0573  0.9852 -1.1641
61617SOL    HW296577   5.138  11.751   9.148  0.7844 -0.1412  0.6177
61618SOL     OW96578   2.707   2.542   3.180  0.0052 -0.1070  0.4270
61618SOL    HW196579   2.664   2.519   3.263 -2.0032  0.7449 -0.3212
61618SOL    HW296580   2.729   2.457   3.141 -0.3207 -0.5532  1.1805
61619SOL     OW96581   3.721   3.121  10.566 -0.4907  0.2122  0.2012
61619SOL    HW196582   3.686   3.097  10.652 -0.8238  0.2838  0.0908
61619SOL    HW296583   3.705   3.216  10.560 -1.0982  0.0895 -0.2164
61620SOL     OW96584  11.879   6.922  11.188  0.2601 -0.1224 -0.3994
61620SOL    HW196585  11.909   6.836  11.216  0.1295  0.0259  0.1973
61620SOL    HW296586  11.857   6.910  11.095  3.5648  0.0999 -1.3591
61621SOL     OW96587   4.210   5.220   0.194 -0.2045 -0.3042 -0.4389
61621SOL    HW196588   4.238   5.186   0.279  0.6772 -0.4170 -0.7645
61621SOL    HW296589   4.179   5.144   0.146  0.8111 -0.5050 -0.7956
61622SOL     OW96590   3.380   1.672   0.236 -0.2113 -0.2081 -0.6771
61622SOL    HW196591   3.445   1.608   0.264  0.9473  0.3719 -1.9256
61622SOL    HW296592   3.420   1.716   0.162 -1.0280  1.8860  0.0485
61623SOL     OW96593   3.412   7.034   6.345 -0.5955 -0.2448  0.4185
61623SOL    HW196594   3.394   7.128   6.341 -0.9935 -0.3782 -1.4303
61623SOL    HW296595   3.508   7.028   6.342 -0.5722  0.0914  0.4361
61624SOL     OW96596  10.827   5.190  12.578 -0.1168 -0.0648 -0.0494
61624SOL    HW196597  10.892   5.141  12.628 -0.4766 -0.3870  0.1026
61624SOL    HW296598  10.758   5.127  12.559 -0.2244  0.1861 -0.5148
61625SOL     OW96599   0.550  11.781   3.967  0.1391 -0.0729 -0.4441
61625SOL    HW196600   0.638  11.772   4.003 -0.4692 -0.7075  0.9544
61625SOL    HW296601   0.556  11.857   3.908  2.0140 -1.1249 -1.7194
61626SOL     OW96602  10.391   7.403   5.612 -0.3700 -1.1833 -1.2683
61626SOL    HW196603  10.455   7.461   5.652 -2.8825 -0.4020  2.0774
61626SOL    HW296604  10.401   7.418   5.518  1.8698  1.5764 -0.7389
61627SOL     OW96605  12.795   3.713  13.255 -0.1081 -0.5889  0.0774
61627SOL    HW196606  12.886   3.686  13.245  0.1876  0.7222 -0.9718
61627SOL    HW296607  12.770   3.746  13.169 -0.8657  1.1400  0.9221
61628SOL     OW96608  11.950  12.433   2.547  0.1083 -0.3955 -0.2218
61628SOL    HW196609  11.967  12.345   2.582  0.2537  0.2986  1.5480
61628SOL    HW296610  11.859  12.450   2.570  0.5890  0.5887  1.0702
61629SOL     OW96611  12.798  11.966   4.993  0.3404 -0.2064  0.5382
61629SOL    HW196612  12.807  11.875   4.965  0.4070 -0.1189  0.2702
61629SOL    HW296613  12.865  12.013   4.943 -0.3659  0.1560 -0.0958
61630SOL     OW96614  12.864   2.672  11.438 -0.5393  0.1008 -0.3142
61630SOL    HW196615  12.831   2.734  11.503 -2.0967 -1.5332  0.5292
61630SOL    HW296616  12.952   2.705  11.417 -1.2894  2.5614  0.0695
61631SOL     OW96617   7.930   6.760  12.805  0.3991  0.0238  0.0152
61631SOL    HW196618   7.860   6.763  12.740  0.4819 -1.1285 -0.1614
61631SOL    HW296619   7.886   6.767  12.889  0.3515  2.2520 -0.1441
61632SOL     OW96620  12.253  13.545   8.623  0.2773 -0.0455  0.4125
61632SOL    HW196621  12.317  13.489   8.579 -1.6348 -0.7475 -1.6304
61632SOL    HW296622  12.217  13.490   8.693  0.3928 -0.3742  0.2156
61633SOL     OW96623  13.514  12.771  10.354  0.2834  0.2723  0.4573
61633SOL    HW196624  13.579  12.792  10.287  1.2393  2.1057  1.8765
61633SOL    HW296625  13.436  12.747  10.304  0.4062  3.1724 -1.3908
61634SOL     OW96626  12.357   0.605   8.182  0.5632  0.0898  0.0265
61634SOL    HW196627  12.422   0.535   8.177  1.0276  0.5989 -1.8807
61634SOL    HW296628  12.383   0.667   8.114  0.5682  2.5167  2.1213
61635SOL     OW96629  11.972   3.111   7.044 -0.4199 -0.2957 -0.1308
61635SOL    HW196630  11.981   3.193   7.092  1.1832 -0.2041 -0.5032
61635SOL    HW296631  11.891   3.120   6.996 -0.1512  1.1953 -0.3657
61636SOL     OW96632   1.282  10.912   9.243  0.2896  0.2756 -0.4004
61636SOL    HW196633   1.309  10.987   9.296 -0.7644 -0.5717  1.4525
61636SOL    HW296634   1.351  10.847   9.257  0.4932  0.3924 -0.8565
61637SOL     OW96635   8.088   2.641   9.805  0.0863 -0.0068 -0.4982
61637SOL    HW196636   8.167   2.690   9.829  0.4794 -0.1965 -1.3745
61637SOL    HW296637   8.016   2.701   9.822  0.5288  0.7086 -1.1032
61638SOL     OW96638  11.588   4.250  11.994  0.5014  0.2549  0.1109
61638SOL    HW196639  11.606   4.324  12.052  2.7734  0.5524 -0.8376
61638SOL    HW296640  11.669   4.240  11.943 -1.2835 -0.1241 -2.8673
61639SOL     OW96641  10.944   0.711   3.243  0.1874 -0.1621  0.0418
61639SOL    HW196642  10.932   0.737   3.334  0.6741 -1.8840  0.6285
61639SOL    HW296643  10.859   0.727   3.202 -0.5089 -0.8306  1.1789
61640SOL     OW96644  13.122   3.435   7.319  0.0110  0.1921 -0.1860
61640SOL    HW196645  13.175   3.366   7.359 -0.5119 -0.0248  0.1413
61640SOL    HW296646  13.046   3.390   7.283  0.2402  0.4517 -1.0114
61641SOL     OW96647   1.528  13.054   6.321  0.4564 -0.2490  0.3062
61641SOL    HW196648   1.476  13.120   6.367  1.7278  0.2152  1.1203
61641SOL    HW296649   1.463  12.995   6.282 -0.7506  1.7747 -0.9337
61642SOL     OW96650   6.040   3.526  10.784  1.0614 -0.3549  0.1075
61642SOL    HW196651   6.106   3.494  10.846 -0.3732  0.3136  2.1088
61642SOL    HW296652   6.059   3.619  10.775  2.1274 -0.7159 -1.6416
61643SOL     OW96653   1.623  13.550   6.141  0.6079  0.4525 -0.5982
61643SOL    HW196654   1.642  13.636   6.179  0.3485 -0.7233  2.3760
61643SOL    HW296655   1.528  13.552   6.127  0.1013 -0.2641  2.1767
61644SOL     OW96656  11.950   4.326  12.340 -0.5419  0.1286  0.4071
61644SOL    HW196657  12.029   4.378  12.326  0.2761 -1.2354 -0.2249
61644SOL    HW296658  11.928   4.339  12.432  0.3130  0.6580  0.5411
61645SOL     OW96659   9.718   6.416   5.938 -0.7471 -0.6864 -0.3511
61645SOL    HW196660   9.746   6.500   5.975 -0.2996 -0.6030 -0.8830
61645SOL    HW296661   9.653   6.384   6.001 -0.7301 -0.0704 -0.0053
61646SOL     OW96662   0.015  12.780  13.168 -0.5582 -0.0630  0.4816
61646SOL    HW196663   0.096  12.795  13.118 -1.5664  0.3682 -1.0872
61646SOL    HW296664   0.033  12.701  13.219  1.0219  0.3025  0.5377
61647SOL     OW96665   1.866   8.859   2.447  0.4044  0.5233 -0.3531
61647SOL    HW196666   1.874   8.919   2.521  2.0648 -0.5201  0.3626
61647SOL    HW296667   1.856   8.917   2.371  1.4782  1.7171  0.3731
61648SOL     OW96668   2.791   7.538   7.771  0.2304  0.5875 -0.1669
61648SOL    HW196669   2.736   7.546   7.693 -0.0352  1.9733  0.1452
61648SOL    HW296670   2.863   7.599   7.757  1.7909 -1.2579 -0.5982
61649SOL     OW96671   3.712   2.341   8.406 -0.1198 -0.0054  0.1790
61649SOL    HW196672   3.677   2.296   8.328 -0.0742  0.5858 -0.1880
61649SOL    HW296673   3.681   2.288   8.480  1.0987 -1.4666 -0.2787
61650SOL     OW96674   4.779   4.325   7.584  0.4266  0.0731 -0.3913
61650SOL    HW196675   4.819   4.285   7.507  0.1297  2.7708 -2.0900
61650SOL    HW296676   4.827   4.288   7.658  1.0893 -2.2288 -1.8726
61651SOL     OW96677   9.845   2.890   4.615 -0.8473  0.1474 -0.0842
61651SOL    HW196678   9.862   2.982   4.596  1.6446  0.0846  1.4218
61651SOL    HW296679   9.925   2.859   4.656 -1.1862 -2.9968 -1.4881
61652SOL     OW96680  12.529  13.161  12.424  0.0067  0.1558 -0.0613
61652SOL    HW196681  12.537  13.186  12.332  0.7100  1.9640  0.4444
61652SOL    HW296682  12.618  13.167  12.458 -0.0724 -1.5139  0.5216
61653SOL     OW96683   7.481  12.955   1.900 -0.1272 -0.0187 -0.0845
61653SOL    HW196684   7.485  12.880   1.841  0.3797 -0.6559  0.7206
61653SOL    HW296685   7.390  12.957   1.930 -0.2177 -0.1169 -0.3505
61654SOL     OW96686   9.694   6.991   2.460 -0.2901 -0.1203 -0.3984
61654SOL    HW196687   9.747   7.027   2.389 -1.2177 -0.4626 -1.2971
61654SOL    HW296688   9.610   7.037   2.452 -0.5270 -0.4347  0.2441
61655SOL     OW96689  12.882   2.374   4.198  0.0039  0.0983 -0.4306
61655SOL    HW196690  12.965   2.373   4.245 -1.1533 -0.4630  1.7140
61655SOL    HW296691  12.902   2.419   4.116  2.3144  0.3541  0.1975
61656SOL     OW96692  13.672   9.816  11.148  0.3461  0.1871 -0.0050
61656SOL    HW196693  13.683   9.730  11.107 -1.8714  0.1719 -0.7296
61656SOL    HW296694  13.730   9.874  11.100  0.2045 -0.4899 -1.0106
61657SOL     OW96695   4.012   9.940   4.288 -0.0485  0.0810  0.4041
61657SOL    HW196696   3.927   9.936   4.245  0.2118 -0.5034 -0.0784
61657SOL    HW296697   4.044   9.850   4.286 -0.2694 -0.0992  2.3512
61658SOL     OW96698   7.684  12.193   6.617 -0.3341 -0.5433  0.0239
61658SOL    HW196699   7.716  12.143   6.693 -1.4862 -2.0998 -0.4552
61658SOL    HW296700   7.760  12.243   6.588  0.5663 -1.1299  1.2573
61659SOL     OW96701   8.018   5.512  13.296 -0.5969 -0.0491 -0.7075
61659SOL    HW196702   7.942   5.567  13.319 -0.7741 -0.2131 -0.8981
61659SOL    HW296703   7.980   5.430  13.267 -0.3336 -0.2182 -0.5764
61660SOL     OW96704   1.115  10.338   1.315  0.1394 -0.1295  0.5644
61660SOL    HW196705   1.044  10.303   1.261  1.0516 -1.9556  0.4634
61660SOL    HW296706   1.071  10.392   1.380 -1.2713 -0.6178  0.0556
61661SOL     OW96707  11.965  13.517  13.209 -0.2972 -0.2543 -0.2623
61661SOL    HW196708  11.973  13.527  13.114  4.3128  1.1519  0.0170
61661SOL    HW296709  11.953  13.423  13.222  1.6117 -0.8520 -2.2516
61662SOL     OW96710   0.474   1.537  10.200  0.3148 -0.1029  0.0207
61662SOL    HW196711   0.451   1.446  10.219  3.1769 -1.1939 -1.2074
61662SOL    HW296712   0.498   1.575  10.285  0.4878 -0.9444  0.3526
61663SOL     OW96713   1.079   2.885   2.413  0.3660 -0.2266  0.0324
61663SOL    HW196714   1.028   2.958   2.446  0.5444  0.0398 -0.2776
61663SOL    HW296715   1.057   2.880   2.320  1.9477  0.7794 -0.4278
61664SOL     OW96716   7.030   4.232   9.804 -0.3450 -0.7186  0.2313
61664SOL    HW196717   7.074   4.215   9.888  0.0904  1.9494  0.6356
61664SOL    HW296718   6.955   4.173   9.804  0.2036 -1.4902  2.0396
61665SOL     OW96719   7.394   5.215   8.690 -0.0340 -0.4043  0.2813
61665SOL    HW196720   7.432   5.169   8.765  0.7118 -0.8578 -0.3536
61665SOL    HW296721   7.310   5.171   8.675 -0.8839  0.6522  1.7419
61666SOL     OW96722  11.139   4.667   4.884  0.0737  0.1792  0.0430
61666SOL    HW196723  11.226   4.694   4.912  0.0648  1.1083 -0.7560
61666SOL    HW296724  11.084   4.678   4.962  0.4101  0.8789  0.1879
61667SOL     OW96725   7.823  10.909   5.383  0.1957  0.7389  0.0803
61667SOL    HW196726   7.748  10.911   5.441  0.7267  0.9813  0.7668
61667SOL    HW296727   7.834  10.816   5.361 -0.1407  0.6741  0.1883
61668SOL     OW96728   8.115   8.447  11.827  0.3333  0.4426 -0.1448
61668SOL    HW196729   8.101   8.520  11.768 -0.0362 -0.0401 -0.6618
61668SOL    HW296730   8.201   8.464  11.867  0.8637  0.4686 -1.2653
61669SOL     OW96731   7.040  10.638   9.372  0.1748 -0.0113  0.4369
61669SOL    HW196732   6.960  10.659   9.324 -0.5057  0.4344  1.7356
61669SOL    HW296733   7.102  10.706   9.346  0.1831 -0.4100 -0.6445
61670SOL     OW96734   1.515   9.631  10.846 -0.1202 -0.3122 -0.7102
61670SOL    HW196735   1.479   9.591  10.925  1.1911 -0.4205 -0.1429
61670SOL    HW296736   1.443   9.684  10.811 -1.4111 -1.9434 -0.6562
61671SOL     OW96737  11.609   1.858  11.270  0.0130 -0.4548 -0.1363
61671SOL    HW196738  11.574   1.857  11.359  0.8844 -2.0299  0.2406
61671SOL    HW296739  11.642   1.947  11.257  2.4069 -0.8678  2.1982
61672SOL     OW96740  13.563   6.377   6.744  0.0678 -0.1807 -0.8150
61672SOL    HW196741  13.645   6.426   6.736  0.9804 -1.0623  1.9908
61672SOL    HW296742  13.578   6.296   6.695  0.6315 -0.0603 -0.8504
61673SOL     OW96743   0.216   8.413   4.173  0.2276  0.0840 -0.0518
61673SOL    HW196744   0.154   8.485   4.179 -0.3437 -0.4950  1.7046
61673SOL    HW296745   0.283   8.433   4.239  0.6958 -0.4050 -0.3665
61674SOL     OW96746  11.896  12.932  11.928 -0.4273 -0.3681  1.0273
61674SOL    HW196747  11.813  12.898  11.896  0.1564 -0.9033  0.0118
61674SOL    HW296748  11.874  13.016  11.968 -1.4941 -0.6528  1.0661
61675SOL     OW96749   2.805  11.931   5.744  0.3425 -0.4424  0.5087
61675SOL    HW196750   2.743  11.873   5.788 -0.7014 -0.3462 -0.7850
61675SOL    HW296751   2.859  11.873   5.691  0.8020 -0.4405  0.9683
61676SOL     OW96752   7.401  12.568   9.470  0.0714 -0.2570  0.3550
61676SOL    HW196753   7.341  12.494   9.472 -1.9722  1.2380 -1.1657
61676SOL    HW296754   7.388  12.612   9.554 -3.6974  1.9092 -1.0886
61677SOL     OW96755  10.268  10.377  11.761 -0.0542  0.2076  0.2900
61677SOL    HW196756  10.272  10.472  11.755 -1.1432  0.3098  0.9697
61677SOL    HW296757  10.324  10.356  11.836  1.9591  0.0920 -1.1430
61678SOL     OW96758  12.073  12.923   7.818 -0.1131 -0.1052  0.5150
61678SOL    HW196759  12.131  12.993   7.789 -0.8078  0.0823 -0.4672
61678SOL    HW296760  12.131  12.854   7.849  0.6270  0.1303 -0.3267
61679SOL     OW96761   8.106  12.599   4.879 -0.1960  0.6187  0.0725
61679SOL    HW196762   8.049  12.635   4.948 -0.0157 -0.3372  0.7460
61679SOL    HW296763   8.062  12.519   4.851 -0.7143  1.4397 -1.5753
61680SOL     OW96764   6.417   0.103   2.943  0.2518 -0.4868 -0.0547
61680SOL    HW196765   6.456   0.018   2.923 -2.2558 -1.6857 -0.2584
61680SOL    HW296766   6.332   0.082   2.982  0.0975  1.9396  1.1392
61681SOL     OW96767   3.976   2.896   7.325 -0.0502 -0.3298 -0.0020
61681SOL    HW196768   3.981   2.989   7.349  0.3664  0.2414 -2.1118
61681SOL    HW296769   3.891   2.867   7.357  0.3645  0.3836  1.8845
61682SOL     OW96770   1.315   1.848  11.431 -0.0276  0.2330 -0.1132
61682SOL    HW196771   1.328   1.753  11.435  1.7020  0.4196 -0.5426
61682SOL    HW296772   1.322   1.869  11.338 -0.4052  0.7817 -0.0226
61683SOL     OW96773   8.603   6.657   7.331  0.2999 -0.3231  0.3999
61683SOL    HW196774   8.525   6.662   7.386  0.0340 -1.3591  0.1477
61683SOL    HW296775   8.675   6.647   7.394  0.2729  0.9140  0.6433
61684SOL     OW96776  12.080   4.308   5.314  0.0269  0.2671 -0.1928
61684SOL    HW196777  12.125   4.362   5.249 -1.4895  1.1197 -0.5964
61684SOL    HW296778  11.997   4.285   5.271 -0.5838  0.0536  1.0793
61685SOL     OW96779   5.152   3.612   9.212  0.0077 -0.2831  0.0489
61685SOL    HW196780   5.111   3.535   9.251  0.2040 -0.4149 -0.0028
61685SOL    HW296781   5.079   3.665   9.181 -0.3054  0.8885  2.5347
61686SOL     OW96782   2.355   8.960   4.488  0.3389 -0.0464  0.6205
61686SOL    HW196783   2.344   9.027   4.421  1.4619  0.4342  0.9052
61686SOL    HW296784   2.448   8.940   4.489 -0.1340 -2.8151 -0.5780
61687SOL     OW96785   6.958   9.217   9.373 -0.4696  0.1043 -0.0661
61687SOL    HW196786   6.863   9.221   9.385 -0.2925  2.4928  1.0701
61687SOL    HW296787   6.970   9.212   9.278 -1.7295  1.7288 -0.3590
61688SOL     OW96788   9.566   9.766   2.649 -0.6594 -0.2761 -0.1534
61688SOL    HW196789   9.524   9.851   2.635 -1.7189 -0.7057  0.3129
61688SOL    HW296790   9.514   9.705   2.596 -2.7536 -1.3897  2.9005
61689SOL     OW96791  13.219   9.995   6.228 -0.9093 -0.0737  0.2937
61689SOL    HW196792  13.198  10.015   6.319 -1.3717 -1.4744  0.5168
61689SOL    HW296793  13.313  10.016   6.220 -0.9945  0.5757  0.9246
61690SOL     OW96794   9.614   9.291   9.669  0.6998 -0.0217 -0.1684
61690SOL    HW196795   9.666   9.229   9.619 -0.4642 -0.2200 -1.1911
61690SOL    HW296796   9.560   9.237   9.727  1.6518  0.1863  0.9658
61691SOL     OW96797  10.606   4.446   3.581 -0.2705 -0.6265 -0.2171
61691SOL    HW196798  10.523   4.479   3.614  0.8899  1.6064  0.6507
61691SOL    HW296799  10.631   4.508   3.513 -0.3636 -2.5670 -2.1498
61692SOL     OW96800   3.110   3.059   8.084  0.1016  0.3315  0.1871
61692SOL    HW196801   3.102   2.982   8.141  0.7808 -0.3527 -0.6046
61692SOL    HW296802   3.067   3.033   8.003  1.2004  0.3975 -0.4419
61693SOL     OW96803   0.218  10.742   0.465 -0.1227 -0.1756  0.1319
61693SOL    HW196804   0.293  10.727   0.407  1.6183  0.7446  2.0564
61693SOL    HW296805   0.160  10.666   0.448  1.4085 -1.1442 -1.0748
61694SOL     OW96806   4.015   9.575  10.505  0.5537 -0.3474  1.0146
61694SOL    HW196807   3.968   9.658  10.511 -1.0855 -1.3196  2.7616
61694SOL    HW296808   4.078   9.577  10.577 -0.6430 -1.2271  2.1452
61695SOL     OW96809  13.078  12.930  10.744 -0.1459  0.4071  0.3056
61695SOL    HW196810  13.158  12.982  10.737 -0.0838  0.2459 -0.1517
61695SOL    HW296811  13.066  12.919  10.839 -0.1441  1.2250  0.4088
61696SOL     OW96812   7.873  13.145   4.383  0.2899 -0.0764  0.5435
61696SOL    HW196813   7.929  13.168   4.457  0.9328 -1.0936  0.3844
61696SOL    HW296814   7.922  13.078   4.335  1.4410  2.6873 -2.6312
61697SOL     OW96815   5.722  10.496   9.260 -0.6139  0.0589 -0.0874
61697SOL    HW196816   5.762  10.576   9.225  0.2859 -0.1760  0.3629
61697SOL    HW296817   5.638  10.489   9.215 -0.8271  1.3995  0.0588
61698SOL     OW96818   9.122  13.282   7.583  0.0870 -0.1203 -0.1520
61698SOL    HW196819   9.087  13.224   7.515 -1.8656 -0.6641  1.2297
61698SOL    HW296820   9.109  13.370   7.549  1.4416 -0.4084 -1.5146
61699SOL     OW96821   1.538  11.194   6.990  0.2141 -0.2224  0.5388
61699SOL    HW196822   1.459  11.143   6.976 -0.1126  0.6643 -1.2134
61699SOL    HW296823   1.604  11.130   7.016 -1.0767 -0.9585  2.2113
61700SOL     OW96824  11.923   1.694   3.713  0.0109  0.4210  0.0710
61700SOL    HW196825  11.918   1.605   3.748  1.2973  0.7947  1.2599
61700SOL    HW296826  11.967   1.684   3.629 -0.2521 -0.1002 -0.0144
61701SOL     OW96827   2.029   3.429   0.860 -0.1982 -0.6968  0.1543
61701SOL    HW196828   1.938   3.401   0.876 -0.4138 -0.8298 -1.1677
61701SOL    HW296829   2.065   3.443   0.947 -2.2976  2.0126  0.7326
61702SOL     OW96830   1.594   7.467  13.037  0.0015  0.0137  0.1979
61702SOL    HW196831   1.586   7.439  13.128 -1.2059 -1.7267 -0.3943
61702SOL    HW296832   1.686   7.455  13.015  0.1296 -0.3812  0.9357
61703SOL     OW96833  11.020  13.622   6.623 -0.2586 -0.1780 -0.1008
61703SOL    HW196834  11.116  13.614   6.620 -0.2807 -0.7321  0.4888
61703SOL    HW296835  11.002  13.708   6.584  0.5127  0.1592  0.2685
61704SOL     OW96836   7.557  10.317   7.248 -0.6937  0.2011 -0.4744
61704SOL    HW196837   7.589  10.407   7.250  0.3509 -0.1636 -0.1590
61704SOL    HW296838   7.636  10.264   7.248 -1.2762 -0.7628  1.6294
61705SOL     OW96839   4.304   2.036   5.790  0.7663 -0.4128  0.0908
61705SOL    HW196840   4.333   1.951   5.756 -2.5925 -2.4250  1.7336
61705SOL    HW296841   4.245   2.070   5.722  0.6319 -0.3468  0.2384
61706SOL     OW96842  11.321   5.829  10.806 -0.5155 -0.0287  0.3502
61706SOL    HW196843  11.407   5.871  10.814 -0.3036  0.0913 -1.8422
61706SOL    HW296844  11.285   5.832  10.894  1.2419  0.9857  1.1008
61707SOL     OW96845   4.586   7.125  11.315  0.6583  0.5433 -0.2586
61707SOL    HW196846   4.612   7.061  11.249  2.7076  0.3145  0.6781
61707SOL    HW296847   4.632   7.205  11.291  0.8481  0.6634  0.4774
61708SOL     OW96848   7.147   8.320  13.188  0.7798  0.1631 -0.3711
61708SOL    HW196849   7.101   8.398  13.218  0.5684  0.2176 -0.8322
61708SOL    HW296850   7.081   8.268  13.143  0.7207 -0.6958  0.6723
61709SOL     OW96851   1.038   9.705  11.996 -0.4080 -0.5389 -0.1062
61709SOL    HW196852   1.041   9.703  12.092  0.8813  2.3726  0.0331
61709SOL    HW296853   1.007   9.618  11.971  0.4029 -1.8359  2.9001
61710SOL     OW96854   3.144   4.603   2.435 -0.0947 -0.5479 -0.2002
61710SOL    HW196855   3.237   4.600   2.457 -0.2923  2.2284  1.4042
61710SOL    HW296856   3.141   4.580   2.342  2.0603 -1.4900 -0.1003
61711SOL     OW96857   1.098   6.166   6.648  0.3407  0.1459 -0.0903
61711SOL    HW196858   1.091   6.141   6.740 -2.2153 -0.3053 -0.3317
61711SOL    HW296859   1.064   6.090   6.600  0.3918  0.8758 -1.3291
61712SOL     OW96860  12.102   9.183   5.035 -0.3050  0.0041  0.9513
61712SOL    HW196861  12.187   9.218   5.007 -0.6290 -0.1338 -0.2654
61712SOL    HW296862  12.092   9.213   5.125  0.6494  0.7481  0.8238
61713SOL     OW96863   9.303  11.413   0.384  0.1976  0.2575  0.1410
61713SOL    HW196864   9.273  11.333   0.342 -0.3636  1.5073 -1.9779
61713SOL    HW296865   9.247  11.423   0.461 -1.4172 -0.1138 -0.9408
61714SOL     OW96866   9.778  11.557   0.060  0.6422  0.0590 -0.0001
61714SOL    HW196867   9.860  11.517   0.031 -0.1568 -0.8908 -1.0252
61714SOL    HW296868   9.772  11.534   0.153  2.6650  2.1489  0.7186
61715SOL     OW96869   6.259   0.368   2.546 -0.0102 -0.0721 -0.0122
61715SOL    HW196870   6.320   0.294   2.544 -0.6904 -0.6473 -0.9745
61715SOL    HW296871   6.314   0.445   2.559  0.8780 -0.6131 -0.4697
61716SOL     OW96872   4.550  10.513   9.388  0.4088 -0.1771 -0.1823
61716SOL    HW196873   4.488  10.584   9.375  1.6710  0.7073 -1.7697
61716SOL    HW296874   4.634  10.548   9.357  1.1605 -2.2320 -0.6628
61717SOL     OW96875   7.606   9.939  13.533  0.4141 -0.4624 -0.0983
61717SOL    HW196876   7.533  10.001  13.531  1.4089  0.7382 -0.4644
61717SOL    HW296877   7.634   9.933  13.442  1.2000 -0.3695  0.1294
61718SOL     OW96878   1.358   5.378  12.606  0.0745 -0.2107  0.3373
61718SOL    HW196879   1.374   5.467  12.639  1.9165 -0.0100 -0.9436
61718SOL    HW296880   1.314   5.392  12.521  0.2955 -0.5302  0.1714
61719SOL     OW96881   9.662   1.860   9.035 -0.3349  0.1703  0.0352
61719SOL    HW196882   9.575   1.894   9.055  0.4675  2.2311  0.2286
61719SOL    HW296883   9.722   1.917   9.083  1.2072 -0.1589 -1.4177
61720SOL     OW96884  10.316   7.019   9.050 -0.1379  0.1114  0.1373
61720SOL    HW196885  10.350   6.932   9.030  2.2083  1.1657 -0.8476
61720SOL    HW296886  10.275   7.048   8.969  0.8497  0.6475 -0.1938
61721SOL     OW96887   9.692  11.549  12.803  0.4639 -0.5764 -0.3375
61721SOL    HW196888   9.705  11.587  12.716  0.3035  0.8990  0.2422
61721SOL    HW296889   9.731  11.613  12.863  2.4916 -2.5336  0.5931
61722SOL     OW96890  10.088  10.560   7.326 -0.8449 -0.0266 -0.6473
61722SOL    HW196891  10.090  10.653   7.304 -0.4890  0.0100 -0.4777
61722SOL    HW296892  10.018  10.552   7.390 -0.0997  0.3410  0.2449
61723SOL     OW96893  11.795   1.938   2.314 -0.1447  0.0204 -0.4898
61723SOL    HW196894  11.840   1.855   2.305  0.1653 -0.1155  1.7013
61723SOL    HW296895  11.843   1.998   2.257  0.0772 -1.1094 -1.5309
61724SOL     OW96896   9.380   6.077  11.485 -0.5306 -0.0018 -0.8366
61724SOL    HW196897   9.469   6.112  11.490 -0.2027 -0.6825 -1.5471
61724SOL    HW296898   9.379   6.004  11.547 -0.5280 -0.1200 -0.9744
61725SOL     OW96899   5.464   9.271   4.505 -0.0223  0.6469 -0.2283
61725SOL    HW196900   5.499   9.183   4.493  0.7225  0.5573  2.0530
61725SOL    HW296901   5.388   9.276   4.446  0.9348 -0.8800 -1.6586
61726SOL     OW96902   8.577   5.737  10.168 -0.1996 -0.3633 -0.1111
61726SOL    HW196903   8.553   5.656  10.124 -0.0789  0.1178 -1.0807
61726SOL    HW296904   8.497   5.767  10.211 -0.3109 -0.8401  0.0159
61727SOL     OW96905   3.681  12.998   1.807  0.0662  0.4410 -0.3795
61727SOL    HW196906   3.611  13.062   1.815  1.2635  1.7230  0.3668
61727SOL    HW296907   3.714  13.009   1.718 -1.0418 -0.6170 -0.9595
61728SOL     OW96908  12.188   4.058   3.556 -0.2247  0.1752  0.0724
61728SOL    HW196909  12.129   3.982   3.558 -1.6766  1.1341 -2.2364
61728SOL    HW296910  12.135   4.130   3.589 -0.5084  1.0807 -2.1625
61729SOL     OW96911   4.237  10.855   8.138 -0.1735 -0.1525  0.2364
61729SOL    HW196912   4.261  10.768   8.170  1.0214  0.0842  0.0534
61729SOL    HW296913   4.294  10.914   8.186  1.2948  0.2579 -1.8706
61730SOL     OW96914   8.472  10.556  11.510 -0.2461  0.6311  0.4017
61730SOL    HW196915   8.536  10.552  11.581  1.3264 -1.2108 -0.9801
61730SOL    HW296916   8.485  10.642  11.471  1.6536  0.2309  0.0152
61731SOL     OW96917   1.273   2.697   6.916 -0.3391  0.1977 -0.0051
61731SOL    HW196918   1.330   2.644   6.973 -1.6719 -0.3470  0.8667
61731SOL    HW296919   1.328   2.717   6.840  1.5256  0.9704  1.4530
61732SOL     OW96920  10.206  10.068   9.792  0.0434  0.1647 -0.5275
61732SOL    HW196921  10.120  10.043   9.757 -0.0200  0.3801 -0.5290
61732SOL    HW296922  10.187  10.141   9.851  0.4176  1.3711 -1.8486
61733SOL     OW96923   0.091   4.770   6.497 -0.2895  0.0388 -0.6733
61733SOL    HW196924   0.062   4.688   6.537  1.2823 -0.2843 -0.1305
61733SOL    HW296925   0.109   4.829   6.570  2.0357 -0.3632 -0.8327
61734SOL     OW96926   4.882   5.856  10.642  0.4968 -0.1299 -0.0903
61734SOL    HW196927   4.896   5.941  10.600 -0.0740  0.3586  0.6774
61734SOL    HW296928   4.858   5.797  10.571 -0.9146  0.7895 -0.4155
61735SOL     OW96929  10.287   1.628   2.461  0.5842  0.3476  0.2466
61735SOL    HW196930  10.254   1.630   2.552 -2.2120  0.9144 -0.6708
61735SOL    HW296931  10.329   1.713   2.449  0.3785  0.5432  0.8321
61736SOL     OW96932  12.293  10.103  11.282 -0.2934 -0.7168 -0.4924
61736SOL    HW196933  12.295  10.028  11.341 -3.2023  0.3697  1.1873
61736SOL    HW296934  12.334  10.174  11.331 -0.4745 -0.4103 -0.7782
61737SOL     OW96935   0.395   8.110   2.259  0.4846  0.3343 -0.1203
61737SOL    HW196936   0.404   8.114   2.354  1.5524 -1.2816 -0.1128
61737SOL    HW296937   0.466   8.165   2.226  2.0041 -1.4211  0.0470
61738SOL     OW96938  12.646   7.725   8.974  0.1615 -0.3372 -0.1184
61738SOL    HW196939  12.576   7.759   8.918 -1.3272  0.2103  1.9565
61738SOL    HW296940  12.623   7.633   8.989  1.1240 -0.7744 -1.1878
61739SOL     OW96941   2.895   0.061   8.590  0.4416  0.1924  0.4378
61739SOL    HW196942   2.807   0.099   8.595  0.4012  0.2023 -0.2810
61739SOL    HW296943   2.948   0.128   8.546  0.6077 -0.1557  0.0993
61740SOL     OW96944  11.678  13.376   7.765 -0.3069  0.0527  0.3367
61740SOL    HW196945  11.731  13.456   7.767 -2.3799  1.8754 -4.0395
61740SOL    HW296946  11.588  13.408   7.773 -1.1220 -2.0469  0.1167
61741SOL     OW96947  13.654   1.518   4.987 -1.0734  0.0423  0.2328
61741SOL    HW196948  13.564   1.549   4.997 -1.5773 -1.0318 -0.7973
61741SOL    HW296949  13.668   1.514   4.893 -0.0253 -0.0666  0.3774
61742SOL     OW96950   9.692   1.053   5.418  0.6425 -0.0306 -0.2236
61742SOL    HW196951   9.751   1.117   5.380  0.3508 -0.1302 -0.8601
61742SOL    HW296952   9.745   0.974   5.428  1.6027  0.8311  2.4807
61743SOL     OW96953   5.656  13.310   3.378 -0.2547 -0.4249  0.6127
61743SOL    HW196954   5.740  13.344   3.409 -0.7898  0.0258  1.6275
61743SOL    HW296955   5.670  13.294   3.285  0.8962 -0.1750  0.7230
61744SOL     OW96956   7.610   9.612   5.333 -0.6318  0.2178  0.3312
61744SOL    HW196957   7.652   9.694   5.360  0.1060 -0.1032  0.1817
61744SOL    HW296958   7.614   9.556   5.411  2.9302 -1.2909 -0.7386
61745SOL     OW96959   0.421   0.341   7.832 -0.1714  0.3826 -0.1627
61745SOL    HW196960   0.465   0.311   7.911  1.1352  0.2746 -0.8957
61745SOL    HW296961   0.469   0.299   7.760 -0.6059  1.3679 -1.0583
61746SOL     OW96962  12.521  10.728  13.005  0.4521 -0.3532 -0.4340
61746SOL    HW196963  12.598  10.710  13.058  0.5717  0.4531 -0.3227
61746SOL    HW296964  12.549  10.796  12.944 -0.4864  0.8439  0.4042
61747SOL     OW96965  10.570   3.881   7.694 -0.2995  0.0682 -0.1206
61747SOL    HW196966  10.614   3.911   7.773 -1.6244 -0.1783  0.7231
61747SOL    HW296967  10.624   3.807   7.664  0.1213  0.0629  0.6279
61748SOL     OW96968  10.919   2.575   1.212 -0.0279  0.1063 -0.2382
61748SOL    HW196969  10.966   2.493   1.224 -0.6647 -0.8243 -3.2443
61748SOL    HW296970  10.936   2.599   1.121 -1.3746  2.3575  0.0244
61749SOL     OW96971   2.128   8.605   4.805  0.3649  0.0231  0.1069
61749SOL    HW196972   2.161   8.692   4.784 -0.6831  0.4101 -0.0021
61749SOL    HW296973   2.163   8.587   4.892 -0.4484  1.1062  0.6779
61750SOL     OW96974  13.577   8.109   8.998  0.1430 -0.7030  0.1617
61750SOL    HW196975  13.625   8.192   9.001 -0.2061 -0.3913 -1.4684
61750SOL    HW296976  13.546   8.096   9.087 -0.0185  1.0740  0.4159
61751SOL     OW96977   0.290  11.335   9.217 -0.4885 -0.0813 -0.1311
61751SOL    HW196978   0.361  11.278   9.186 -0.4839  0.0278 -0.3210
61751SOL    HW296979   0.239  11.354   9.138 -0.9151 -0.4215  0.0567
61752SOL     OW96980   8.425  11.485   3.050 -0.2973  0.2027  0.3399
61752SOL    HW196981   8.411  11.566   3.099 -0.0941  0.0902  0.5877
61752SOL    HW296982   8.370  11.421   3.095 -0.4756  0.2047  0.1294
61753SOL     OW96983  10.515  10.418  12.321  0.0129  0.0307 -0.2118
61753SOL    HW196984  10.492  10.481  12.253  1.9223 -1.3143 -2.2451
61753SOL    HW296985  10.485  10.334  12.287  0.1895 -0.5629  1.0538
61754SOL     OW96986  10.903   4.469   8.394  0.1724  0.0874  0.1945
61754SOL    HW196987  10.977   4.528   8.380  1.3183 -1.1169  0.9183
61754SOL    HW296988  10.869   4.452   8.306  1.1609  0.1660 -0.2161
61755SOL     OW96989   3.435   5.142   0.787 -0.0500 -0.2272  0.3311
61755SOL    HW196990   3.471   5.217   0.741  2.2007 -1.9404 -0.9208
61755SOL    HW296991   3.440   5.166   0.879  1.9530  0.6777  0.0507
61756SOL     OW96992   5.747  11.600   4.965 -0.1257  0.3812  0.9827
61756SOL    HW196993   5.793  11.541   5.025 -0.3882 -1.5935 -0.6700
61756SOL    HW296994   5.812  11.622   4.898 -1.0020 -1.0758 -0.4300
61757SOL     OW96995   9.255   8.427   4.882 -0.1774  0.3072  0.6253
61757SOL    HW196996   9.277   8.336   4.860  1.5170  0.9667 -0.6256
61757SOL    HW296997   9.243   8.427   4.977 -1.3246 -1.4125  0.5363
61758SOL     OW96998   6.869   7.635  12.473 -0.5006  1.2581 -0.5343
61758SOL    HW196999   6.872   7.629  12.377 -0.3055  0.9992 -0.5128
61758SOL    HW297000   6.956   7.609  12.501 -1.1603 -0.7823 -0.1905
61759SOL     OW97001   8.166   3.195   0.823  0.1983  0.1346 -0.3013
61759SOL    HW197002   8.146   3.273   0.771 -0.8726  0.1300  0.0896
61759SOL    HW297003   8.110   3.126   0.787 -1.7492  0.5109  1.7901
61760SOL     OW97004   6.703   3.389   7.027  0.5250 -0.2847 -0.4591
61760SOL    HW197005   6.670   3.310   6.983 -1.5017 -0.1522  0.7082
61760SOL    HW297006   6.625   3.429   7.066  1.8677  0.9637  1.0722
61761SOL     OW97007   6.213   2.655   9.267  0.1065 -0.0237  0.1737
61761SOL    HW197008   6.257   2.617   9.343  0.6614 -0.2552 -0.2593
61761SOL    HW297009   6.153   2.720   9.305  1.8095  1.3179  0.7386
61762SOL     OW97010   1.739   7.320  11.018  0.1788  0.1502  0.7698
61762SOL    HW197011   1.728   7.405  10.975 -0.1925 -0.7612 -1.0440
61762SOL    HW297012   1.761   7.342  11.108  1.0087  2.1818  0.1454
61763SOL     OW97013   8.355   6.007  11.763  0.0303  0.1974 -0.7707
61763SOL    HW197014   8.317   6.082  11.807  1.0288  1.1838 -1.5209
61763SOL    HW297015   8.438   6.040  11.727 -0.9351 -0.3888 -3.7963
61764SOL     OW97016   4.137   7.500  13.591 -0.0847  0.6757  0.0060
61764SOL    HW197017   4.144   7.565  13.521  0.7910  0.9041  0.2937
61764SOL    HW297018   4.216   7.513  13.643  0.8883 -1.6240 -0.7757
61765SOL     OW97019   1.798  11.851  11.532  0.2601 -0.3945 -0.1273
61765SOL    HW197020   1.816  11.923  11.473 -0.6901  1.0400  1.2541
61765SOL    HW297021   1.866  11.786  11.512  1.8297  1.3303 -0.6533
61766SOL     OW97022   1.387   0.320   1.248 -0.4491  0.1295 -0.6975
61766SOL    HW197023   1.359   0.326   1.339 -2.1047  2.1725 -1.2700
61766SOL    HW297024   1.407   0.227   1.235 -3.8455 -0.9446  0.7529
61767SOL     OW97025   4.548   3.551   9.288 -0.0925 -0.2065  0.2173
61767SOL    HW197026   4.510   3.518   9.369 -0.9842 -0.0423 -0.1313
61767SOL    HW297027   4.493   3.516   9.219  1.8523 -2.0834 -0.5168
61768SOL     OW97028  12.976   8.562   2.380  0.0458  0.3589  0.1151
61768SOL    HW197029  12.976   8.592   2.289 -0.0084  2.5582  0.7764
61768SOL    HW297030  13.025   8.480   2.378  0.2763  0.4822 -1.8515
61769SOL     OW97031   5.084   0.725   9.687 -0.1888  0.2781 -0.0601
61769SOL    HW197032   5.037   0.739   9.769 -0.7237  0.0488 -0.3282
61769SOL    HW297033   5.045   0.647   9.649  0.6961 -0.1677 -0.0829
61770SOL     OW97034   0.430   6.626  11.704 -0.5338 -0.3251  0.0819
61770SOL    HW197035   0.429   6.531  11.696  1.6690 -0.3754 -0.2802
61770SOL    HW297036   0.485   6.656  11.632 -1.3741  1.2740  0.0392
61771SOL     OW97037   7.089   6.805  13.361  0.2602 -0.0169 -0.4343
61771SOL    HW197038   7.171   6.813  13.312  0.0590  0.9891 -0.6288
61771SOL    HW297039   7.112   6.831  13.451  0.1483  0.2997 -0.4971
61772SOL     OW97040  11.325   3.189  12.084 -0.2243  0.1488 -0.0215
61772SOL    HW197041  11.295   3.099  12.094  1.0609 -0.2394  0.5774
61772SOL    HW297042  11.339   3.220  12.174  1.7369  0.0778 -0.2505
61773SOL     OW97043   0.227  11.545   8.464  0.1554  0.5327  0.6006
61773SOL    HW197044   0.314  11.547   8.504  0.0854 -0.1005  0.7961
61773SOL    HW297045   0.168  11.566   8.536  0.1877  1.6427  0.3173
61774SOL     OW97046  12.291  11.084   7.777 -0.2111  0.3902 -0.4894
61774SOL    HW197047  12.266  11.061   7.867 -0.5155  0.0708 -0.6509
61774SOL    HW297048  12.285  11.179   7.774 -2.2579  0.2875 -0.7497
61775SOL     OW97049  13.174   9.688   1.710  0.3571 -0.5775  0.7124
61775SOL    HW197050  13.226   9.628   1.764 -0.7386 -1.6259  0.6447
61775SOL    HW297051  13.228   9.766   1.703  0.8399 -0.6499  2.7773
61776SOL     OW97052   0.850   4.626   9.349 -0.0312  0.5110 -0.4982
61776SOL    HW197053   0.874   4.635   9.441 -0.5998 -0.6117 -0.2150
61776SOL    HW297054   0.913   4.563   9.314  0.2496  1.0169 -0.9050
61777SOL     OW97055   3.395   0.813  11.158 -0.1047  0.1886  0.2315
61777SOL    HW197056   3.328   0.865  11.114  1.1908  0.0604 -2.0527
61777SOL    HW297057   3.453   0.877  11.199 -0.1040  0.4243 -0.1371
61778SOL     OW97058   5.067   3.091   9.639  0.6324  0.3303 -0.3773
61778SOL    HW197059   5.144   3.147   9.625  1.1505 -0.4818 -0.8748
61778SOL    HW297060   5.012   3.105   9.562  0.6310  0.3619 -0.3710
61779SOL     OW97061   6.601  12.121   4.782 -0.3158 -0.2121  0.0603
61779SOL    HW197062   6.554  12.197   4.748 -0.8141 -0.9181 -0.8622
61779SOL    HW297063   6.582  12.051   4.720  1.9189 -0.5382 -0.3130
61780SOL     OW97064   3.686  11.999  12.765  0.3098  0.3304 -0.4536
61780SOL    HW197065   3.608  11.993  12.711 -0.1411  0.6614  0.1441
61780SOL    HW297066   3.701  11.910  12.796  0.8700  0.0444 -1.5220
61781SOL     OW97067   9.777   8.999   1.635 -0.4289 -0.4152 -0.1947
61781SOL    HW197068   9.693   9.030   1.601 -0.4722  0.1784  0.4382
61781SOL    HW297069   9.785   8.910   1.601 -1.5536 -0.6671  0.1498
61782SOL     OW97070  13.075  11.504   8.221 -0.2134 -0.1350 -0.0656
61782SOL    HW197071  12.999  11.562   8.224  0.7659  1.1370  1.4781
61782SOL    HW297072  13.045  11.424   8.265 -1.0332 -0.1464 -0.6205
61783SOL     OW97073   9.360   1.623   8.043 -0.2463  0.2543  0.0695
61783SOL    HW197074   9.389   1.691   7.982 -0.1388  0.8784  0.8043
61783SOL    HW297075   9.303   1.567   7.991  2.2678 -1.0619 -1.4665
61784SOL     OW97076   6.755  12.720   3.170 -0.2183  0.0794 -0.2312
61784SOL    HW197077   6.811  12.663   3.117 -0.3399  1.4029 -1.8701
61784SOL    HW297078   6.720  12.784   3.108 -1.8989  0.5666  1.1236
61785SOL     OW97079   8.761   3.369   6.209 -0.4190  0.0513 -0.1255
61785SOL    HW197080   8.822   3.421   6.156 -1.5085  1.2997 -0.2037
61785SOL    HW297081   8.805   3.285   6.220  2.3504  1.5707  1.7140
61786SOL     OW97082   2.416   2.733   9.283 -0.2240  0.1919 -0.4449
61786SOL    HW197083   2.378   2.692   9.361  0.2363  0.5920 -0.0053
61786SOL    HW297084   2.456   2.814   9.315  0.9265 -0.1712 -0.8997
61787SOL     OW97085   7.879   1.173   5.753  0.3098  0.3090  0.2437
61787SOL    HW197086   7.879   1.084   5.791  0.7097  0.6382  1.0388
61787SOL    HW297087   7.798   1.177   5.703  0.1312 -0.4013  0.4595
61788SOL     OW97088   2.385   2.092   9.375 -0.1829 -0.0430 -0.2681
61788SOL    HW197089   2.299   2.087   9.333 -0.3290  0.6350 -0.0615
61788SOL    HW297090   2.441   2.034   9.322 -0.7334 -0.3997 -0.4706
61789SOL     OW97091   0.150   4.375  11.065 -0.7254  0.0384 -0.1922
61789SOL    HW197092   0.174   4.379  11.158 -0.7789  1.5109 -0.2160
61789SOL    HW297093   0.173   4.286  11.038  0.2465 -0.0936  0.9773
61790SOL     OW97094   0.653   6.711   0.738 -0.3569  0.2188  0.0467
61790SOL    HW197095   0.592   6.779   0.765 -0.5704  1.4046 -3.0530
61790SOL    HW297096   0.622   6.682   0.652  3.2102  0.8036 -1.6653
61791SOL     OW97097  10.134   3.034   9.103 -0.2912 -0.2557 -0.7597
61791SOL    HW197098  10.192   3.109   9.120  1.7206 -1.3441 -2.4010
61791SOL    HW297099  10.192   2.958   9.105 -2.2914 -1.8474  0.9426
61792SOL     OW97100  10.853   3.480   4.396 -0.0126  0.1295 -0.0461
61792SOL    HW197101  10.901   3.398   4.407  2.7858  1.7634  1.1293
61792SOL    HW297102  10.872   3.507   4.307  2.2886  1.2759  0.7291
61793SOL     OW97103   3.999  11.377   6.129  0.7981  0.6887  0.1822
61793SOL    HW197104   4.068  11.426   6.172 -0.3614  1.2812  1.4371
61793SOL    HW297105   3.925  11.437   6.125 -0.4771 -0.7491  1.2484
61794SOL     OW97106   9.282   2.608   1.967 -0.1259 -0.0697  0.1095
61794SOL    HW197107   9.267   2.516   1.945 -0.1147 -0.2512  0.8303
61794SOL    HW297108   9.204   2.654   1.937  0.1162 -0.2205 -0.7732
61795SOL     OW97109   6.524  10.183   5.613  0.2436  0.1293 -0.9268
61795SOL    HW197110   6.441  10.172   5.566 -1.2203  2.3856  0.8682
61795SOL    HW297111   6.523  10.116   5.681 -0.8973  1.0520  0.0149
61796SOL     OW97112   7.496   2.257   6.315  0.6295 -0.2059 -0.0198
61796SOL    HW197113   7.428   2.228   6.255  0.8353  0.7745 -0.7385
61796SOL    HW297114   7.578   2.237   6.271  0.8425 -1.3949  0.8494
61797SOL     OW97115   1.200   1.090  10.045 -0.1151 -0.4167  0.3766
61797SOL    HW197116   1.250   1.069   9.966 -0.2554 -2.6666  0.8155
61797SOL    HW297117   1.265   1.125  10.106  0.4105 -0.6674 -0.0337
61798SOL     OW97118  12.033   1.756   1.718 -0.6896 -0.4417  0.4002
61798SOL    HW197119  12.038   1.806   1.799 -0.0017 -0.3298  0.2923
61798SOL    HW297120  11.939   1.742   1.705 -1.1821  3.0123 -0.8693
61799SOL     OW97121   1.175   4.947  13.733 -0.0134  0.0657 -0.0379
61799SOL    HW197122   1.157   5.006  13.659  0.5677 -0.4014 -0.5642
61799SOL    HW297123   1.144   4.995  13.809 -0.8181  0.4750 -0.6019
61800SOL     OW97124   5.353   4.340   2.643  0.2183 -0.0652 -0.0230
61800SOL    HW197125   5.346   4.433   2.663  1.4018 -0.0211  0.2468
61800SOL    HW297126   5.340   4.296   2.727 -0.5305 -0.1641 -0.1826
61801SOL     OW97127   6.569  12.296   0.315  0.0501 -0.5957  0.4206
61801SOL    HW197128   6.567  12.218   0.259  1.5006  0.1602 -0.7810
61801SOL    HW297129   6.544  12.264   0.402  3.5642 -3.1105  0.7394
61802SOL     OW97130  13.170   0.578  12.799 -0.2646 -0.2287  0.2732
61802SOL    HW197131  13.166   0.552  12.707  1.1330 -2.0069  0.6545
61802SOL    HW297132  13.087   0.622  12.815 -1.1948 -1.2453 -1.4507
61803SOL     OW97133   1.402   7.253  12.968  0.0044  0.0400  0.9923
61803SOL    HW197134   1.424   7.184  12.906 -0.4943 -0.9241  1.8534
61803SOL    HW297135   1.484   7.301  12.980  0.3494 -0.3711  0.3480
61804SOL     OW97136   9.992  11.080   6.832 -0.0148 -0.7570  0.0367
61804SOL    HW197137   9.951  11.077   6.918  1.1142 -0.8317  0.5912
61804SOL    HW297138   9.949  11.153   6.787 -0.7420 -0.8370  0.5920
61805SOL     OW97139  11.599   9.334   7.364  0.4644  0.2403  0.4162
61805SOL    HW197140  11.641   9.415   7.392  0.4305  0.4324 -0.0921
61805SOL    HW297141  11.513   9.337   7.406 -0.1037  1.1670 -0.7544
61806SOL     OW97142  10.389   2.788   2.392  0.0115  0.0536 -0.7802
61806SOL    HW197143  10.367   2.720   2.328 -1.5791  0.6362 -0.9012
61806SOL    HW297144  10.341   2.763   2.471  1.0458 -0.0373 -0.1617
61807SOL     OW97145   5.206   5.115   6.922  0.5295  0.1063 -0.0392
61807SOL    HW197146   5.205   5.098   6.828  0.6151  2.9579 -0.6619
61807SOL    HW297147   5.115   5.137   6.943  0.6512  0.2406  0.3585
61808SOL     OW97148   1.847   2.849   5.804 -0.1089  0.8394  0.5005
61808SOL    HW197149   1.781   2.797   5.848 -0.9615  0.1861 -1.4329
61808SOL    HW297150   1.863   2.923   5.863 -2.6871  1.1118  0.9785
61809SOL     OW97151   2.026   0.075  10.776  0.3681 -0.5450 -0.0331
61809SOL    HW197152   2.038   0.141  10.844  0.4083 -0.1533 -0.4135
61809SOL    HW297153   1.978   0.121  10.707 -0.6122 -1.2302  0.1740
61810SOL     OW97154   8.801  13.434   2.579  0.5705 -0.0104 -0.2014
61810SOL    HW197155   8.840  13.402   2.660  0.3563  0.4962  0.1070
61810SOL    HW297156   8.707  13.428   2.593  0.4989  1.6424  0.2499
61811SOL     OW97157   9.537   3.629   8.313 -0.7748  0.3560 -0.3543
61811SOL    HW197158   9.534   3.686   8.236  1.2684  1.5941  0.3870
61811SOL    HW297159   9.629   3.605   8.321 -1.2203 -1.1414  0.7591
61812SOL     OW97160  12.948   8.210   6.612 -0.6001 -0.8223  0.5273
61812SOL    HW197161  12.866   8.231   6.657 -1.2517 -1.6012 -0.2507
61812SOL    HW297162  12.929   8.225   6.519  0.2136 -0.7956  0.3562
61813SOL     OW97163   2.277   1.231  12.120  0.6907 -0.3879 -0.0429
61813SOL    HW197164   2.182   1.234  12.130  0.6278  0.7572 -0.7851
61813SOL    HW297165   2.292   1.246  12.026  1.5551 -2.1015 -0.2180
61814SOL     OW97166   2.692  12.677   2.425 -0.2265 -0.1392  0.0118
61814SOL    HW197167   2.724  12.748   2.480 -1.8751  0.5038  0.1877
61814SOL    HW297168   2.771  12.634   2.394  0.8051  1.4822  0.2690
61815SOL     OW97169  13.020   0.983  12.422  0.2781 -0.1256 -0.1169
61815SOL    HW197170  13.064   0.956  12.503 -1.3705 -0.7222  0.6363
61815SOL    HW297171  12.929   0.998  12.449  0.1261  1.6984 -1.4610
61816SOL     OW97172   2.528   4.667  11.224 -0.3366 -0.0241 -0.2611
61816SOL    HW197173   2.512   4.724  11.148 -0.9482  0.0049 -0.1169
61816SOL    HW297174   2.460   4.600  11.218  1.1522 -1.5390 -1.1679
61817SOL     OW97175   0.645   4.823  13.674 -0.1222 -0.2052  0.3438
61817SOL    HW197176   0.702   4.878  13.620  0.0928 -0.7981 -0.0503
61817SOL    HW297177   0.693   4.812  13.756 -1.6479  2.9903  1.8464
61818SOL     OW97178   1.301   8.078   5.698 -0.3469 -0.1408  0.4557
61818SOL    HW197179   1.224   8.076   5.755 -1.6584 -0.4175 -1.2260
61818SOL    HW297180   1.323   8.171   5.691  0.4130 -0.1715  2.1028
61819SOL     OW97181  10.664   0.268   7.355  0.0203  0.2057 -0.0556
61819SOL    HW197182  10.617   0.243   7.434  0.7992  1.4072  0.8112
61819SOL    HW297183  10.736   0.322   7.385  0.1115  1.0307 -1.6189
61820SOL     OW97184   4.416   8.143   7.295  0.0290 -0.1076  0.1813
61820SOL    HW197185   4.338   8.198   7.293  0.5147  0.6384  1.1753
61820SOL    HW297186   4.454   8.151   7.207 -0.5706  0.1418 -0.0608
61821SOL     OW97187   8.298   3.176   3.882  0.0980  0.2580 -0.4775
61821SOL    HW197188   8.263   3.265   3.876 -2.4119 -0.4588  1.5240
61821SOL    HW297189   8.349   3.164   3.802 -1.0789  2.8382 -1.7153
61822SOL     OW97190   1.752   3.054   1.502 -0.4825  0.0100  0.4588
61822SOL    HW197191   1.788   2.976   1.461 -1.6498 -0.5136  0.3714
61822SOL    HW297192   1.757   3.121   1.434 -0.5688 -0.3205  0.1188
61823SOL     OW97193  10.335  11.487   1.038  0.5054 -0.0452  0.1988
61823SOL    HW197194  10.285  11.430   1.096 -1.8381  1.6889  0.0662
61823SOL    HW297195  10.397  11.429   0.994 -0.2954 -2.0663  1.5795
61824SOL     OW97196   0.133  11.941   2.808  0.0889 -0.5066 -0.3062
61824SOL    HW197197   0.112  12.024   2.767 -0.4945 -0.2301  0.5233
61824SOL    HW297198   0.227  11.947   2.828 -0.4559  1.1253  2.2297
61825SOL     OW97199   6.758   5.207  10.665  0.8603 -0.3447  0.2579
61825SOL    HW197200   6.695   5.278  10.677 -0.8395 -2.0550  2.5512
61825SOL    HW297201   6.744   5.178  10.575 -0.3954  0.4743  0.1554
61826SOL     OW97202   0.424   3.911  12.091 -0.4684 -0.7336  0.1765
61826SOL    HW197203   0.474   3.939  12.168  0.3776 -0.6490 -0.3880
61826SOL    HW297204   0.485   3.856  12.042 -0.8733 -0.4637 -0.6348
61827SOL     OW97205   7.271  13.446  13.021  0.0525 -0.1137  0.1321
61827SOL    HW197206   7.204  13.410  12.963  0.5029  1.2115 -1.2556
61827SOL    HW297207   7.354  13.428  12.976  0.6148 -1.0465  1.4591
61828SOL     OW97208   0.921  10.596   7.280 -0.3091  0.3558 -0.1009
61828SOL    HW197209   0.830  10.571   7.263 -0.6997  1.6261  0.0262
61828SOL    HW297210   0.945  10.652   7.206  0.5827 -0.4311 -0.4394
61829SOL     OW97211   4.625   3.331   0.438 -0.3555 -0.4655  0.3120
61829SOL    HW197212   4.667   3.316   0.522 -0.8620 -1.4231  0.4079
61829SOL    HW297213   4.579   3.415   0.448  0.3245 -0.1276  0.6761
61830SOL     OW97214   3.290   4.854   0.208 -0.5942  0.2984  0.7643
61830SOL    HW197215   3.290   4.937   0.161 -0.5187  1.0375  2.0145
61830SOL    HW297216   3.377   4.816   0.190 -1.4637 -0.7083 -1.7476
61831SOL     OW97217   9.532  12.812   0.956  0.3979 -0.8026  0.4032
61831SOL    HW197218   9.562  12.870   1.026 -1.3056  0.0711  0.4681
61831SOL    HW297219   9.572  12.848   0.876 -3.2176  2.7758 -0.1383
61832SOL     OW97220   4.791   9.473   7.114 -0.6405  0.4557  0.5935
61832SOL    HW197221   4.820   9.452   7.025  0.4391  0.1486  1.0096
61832SOL    HW297222   4.700   9.441   7.117 -1.4120  2.2529 -1.0221
61833SOL     OW97223   0.570   4.809   3.070 -0.0449  0.6651  0.3679
61833SOL    HW197224   0.500   4.762   3.024  0.0075  1.5301 -0.6451
61833SOL    HW297225   0.610   4.743   3.127  0.2413 -0.6276 -1.2521
61834SOL     OW97226   7.778   3.549  12.810 -0.0023 -0.4129 -0.1311
61834SOL    HW197227   7.721   3.476  12.784  1.1299 -2.1727  1.9852
61834SOL    HW297228   7.740   3.581  12.892 -0.5177  1.5224 -1.0559
61835SOL     OW97229   4.352  12.969  12.860 -0.3365  0.5161  0.2621
61835SOL    HW197230   4.358  12.936  12.770  0.8648  3.7639 -1.0222
61835SOL    HW297231   4.265  13.009  12.865 -0.1405  0.9434  0.2897
61836SOL     OW97232   7.585  11.798   0.839  0.0269  0.2663 -0.7229
61836SOL    HW197233   7.657  11.737   0.821 -1.5613 -1.2881 -2.2538
61836SOL    HW297234   7.539  11.759   0.914  1.0046  1.5355  0.5945
61837SOL     OW97235   7.652   5.477   7.116 -0.1608 -0.3339 -0.6592
61837SOL    HW197236   7.623   5.568   7.108 -0.8055 -0.5163 -0.4511
61837SOL    HW297237   7.746   5.481   7.099  0.2376  0.6847  1.4046
61838SOL     OW97238   2.398   7.124  10.154  0.4601  0.4068  0.3449
61838SOL    HW197239   2.493   7.114  10.155  0.4824  0.4098  2.2648
61838SOL    HW297240   2.365   7.048  10.202 -0.5176  0.4726 -0.1819
61839SOL     OW97241  11.836  13.067   5.945  0.4658 -0.0955  0.3219
61839SOL    HW197242  11.895  13.028   5.881 -1.3827  1.4295 -2.5266
61839SOL    HW297243  11.825  13.158   5.916 -2.4642 -0.0396  1.2512
61840SOL     OW97244   3.898   7.671   5.510  0.6383 -0.0818 -0.0076
61840SOL    HW197245   3.900   7.604   5.578 -0.0033 -1.2258 -1.0802
61840SOL    HW297246   3.910   7.754   5.557  0.0509 -0.8247  1.5030
61841SOL     OW97247   4.704  10.558  13.316 -0.0673 -0.7805  0.5094
61841SOL    HW197248   4.714  10.574  13.410  0.9358 -0.0558  0.2889
61841SOL    HW297249   4.629  10.613  13.291 -0.4019 -1.0548  0.9034
61842SOL     OW97250   8.890  11.635  13.543  0.1393  0.1930 -0.0922
61842SOL    HW197251   8.881  11.724  13.509 -1.1341 -0.4556 -1.5196
61842SOL    HW297252   8.804  11.614  13.580 -0.4623 -1.3960 -2.2160
61843SOL     OW97253   2.572   6.699   9.710 -0.0527 -0.0916  0.3174
61843SOL    HW197254   2.603   6.622   9.662  1.0031 -0.1724  1.1157
61843SOL    HW297255   2.483   6.713   9.676  0.3535 -0.6347 -1.0570
61844SOL     OW97256   8.763  12.364   6.647 -0.6867 -0.4034  0.5028
61844SOL    HW197257   8.832  12.311   6.686 -1.1688 -0.8808  0.7183
61844SOL    HW297258   8.805  12.406   6.572 -0.2430 -0.9376  0.4436
61845SOL     OW97259   9.269  12.219   8.271  0.8608  0.0743  0.0719
61845SOL    HW197260   9.209  12.151   8.240 -2.4936  2.5491  0.5091
61845SOL    HW297261   9.224  12.257   8.347  2.0569  3.3686 -0.7003
61846SOL     OW97262  10.116   5.053   0.082  0.0576 -0.3684  0.3958
61846SOL    HW197263  10.114   5.090   0.170  0.7162  0.0591  0.2326
61846SOL    HW297264  10.154   4.966   0.094 -0.0912 -0.4098  0.5701
61847SOL     OW97265  13.217   8.944   6.011 -0.8358  0.3939  0.5832
61847SOL    HW197266  13.145   8.993   6.050 -1.1773 -0.6314  1.2910
61847SOL    HW297267  13.195   8.852   6.027  0.6941  0.0542  0.9708
61848SOL     OW97268   0.687   0.871   0.522 -0.0787  0.1432 -0.3239
61848SOL    HW197269   0.663   0.831   0.439 -0.9961 -0.8988  0.4113
61848SOL    HW297270   0.605   0.873   0.572  0.7868 -0.8412  1.1949
61849SOL     OW97271  13.116  12.436   9.666 -0.5560 -0.5111 -0.2411
61849SOL    HW197272  13.150  12.352   9.695  0.2612 -0.0150  0.2640
61849SOL    HW297273  13.079  12.418   9.579  1.8798 -0.8956 -1.2775
61850SOL     OW97274  10.492   5.709   4.457  0.3043  0.1981  0.0133
61850SOL    HW197275  10.512   5.749   4.542  0.8822  1.3989 -0.6732
61850SOL    HW297276  10.573   5.715   4.407  0.3206 -1.5652 -0.2426
61851SOL     OW97277   1.676   1.796   8.619 -0.1077 -0.2547 -0.4175
61851SOL    HW197278   1.695   1.731   8.687  2.8600  0.1809 -0.7079
61851SOL    HW297279   1.590   1.832   8.644 -1.8187 -4.0281 -0.1294
61852SOL     OW97280   5.590   3.799  10.080  0.1629  0.6005  0.0395
61852SOL    HW197281   5.621   3.890  10.082 -1.6948  1.3001  2.7691
61852SOL    HW297282   5.636   3.756  10.152  1.0342 -0.7022 -1.2348
61853SOL     OW97283   2.057   0.207   4.161 -0.2181  0.1715  0.1544
61853SOL    HW197284   2.119   0.225   4.091  0.2091 -0.8741  0.2605
61853SOL    HW297285   1.973   0.196   4.116 -0.5088  2.3001  0.0711
61854SOL     OW97286  13.396   8.226   9.852 -0.1425  0.5383  0.5161
61854SOL    HW197287  13.340   8.303   9.840 -0.2123  0.5444  0.8675
61854SOL    HW297288  13.483   8.261   9.870 -0.3246  0.5461  1.4067
61855SOL     OW97289  12.096   6.535   1.921  0.0767 -0.2085  0.1451
61855SOL    HW197290  12.007   6.505   1.942 -0.5198  1.3484  0.0014
61855SOL    HW297291  12.131   6.565   2.005  0.9178 -1.8439  0.4124
61856SOL     OW97292   3.585   2.756  11.941 -0.0944  0.5299  0.5287
61856SOL    HW197293   3.528   2.790  11.872 -1.9376 -3.2104 -0.0106
61856SOL    HW297294   3.629   2.680  11.901  2.8098  1.2670  1.9981
61857SOL     OW97295   0.175   0.622   9.586  0.3991  0.1771  0.5376
61857SOL    HW197296   0.142   0.539   9.622  0.4324  0.4168  1.1290
61857SOL    HW297297   0.175   0.682   9.660  1.5326  0.3731  0.3940
61858SOL     OW97298  13.465  12.027  10.545  0.0255  0.1718  0.0270
61858SOL    HW197299  13.556  12.030  10.576  0.6561 -2.8482 -1.2091
61858SOL    HW297300  13.413  12.015  10.624  1.0315 -1.3200  0.4912
61859SOL     OW97301  13.212   6.592   9.549 -0.4435  0.3521  0.0878
61859SOL    HW197302  13.266   6.569   9.474 -1.5467  2.3037 -1.4237
61859SOL    HW297303  13.123   6.570   9.521 -1.0540  2.4980  0.1280
61860SOL     OW97304  11.098   1.987  13.702 -0.1681  0.8343  0.4936
61860SOL    HW197305  11.160   1.915  13.689  0.1927  0.7005  2.6200
61860SOL    HW297306  11.017   1.955  13.663  0.1291 -0.5586  0.9492
61861SOL     OW97307   9.418   0.185   1.807  0.3605 -0.2140 -0.0696
61861SOL    HW197308   9.487   0.236   1.765  1.2042  0.8965  2.4510
61861SOL    HW297309   9.377   0.246   1.868 -3.0208 -0.8020 -1.5275
61862SOL     OW97310   2.342   9.005   5.650 -0.0838  0.1977  0.2368
61862SOL    HW197311   2.394   8.930   5.623 -0.1061  0.7240 -1.4279
61862SOL    HW297312   2.385   9.080   5.609 -1.5877  0.7514 -0.4398
61863SOL     OW97313   9.556   1.685   0.377  0.1898  0.0426 -0.0979
61863SOL    HW197314   9.538   1.591   0.374  0.7448 -0.0482 -0.8842
61863SOL    HW297315   9.503   1.717   0.450  0.4225 -0.9678  0.5365
61864SOL     OW97316  10.009  13.390   8.496  0.1133 -0.1792 -0.3764
61864SOL    HW197317  10.058  13.327   8.443 -1.2221 -1.1788 -0.4776
61864SOL    HW297318  10.007  13.351   8.583  1.1580  0.8233  0.1354
61865SOL     OW97319  12.663   7.800   9.478 -0.5307 -0.2328  0.3395
61865SOL    HW197320  12.621   7.882   9.502 -1.4307 -0.6065  0.1004
61865SOL    HW297321  12.627   7.779   9.392 -0.3598 -0.8959  0.4220
61866SOL     OW97322  12.690   9.910  13.111 -0.4695 -0.3360 -0.0074
61866SOL    HW197323  12.615   9.886  13.056 -0.6522 -0.6083  0.3585
61866SOL    HW297324  12.744   9.832  13.113 -0.7517 -0.5197  0.6689
61867SOL     OW97325   2.451   6.393  12.237  0.1234 -0.3545 -0.4933
61867SOL    HW197326   2.367   6.425  12.203 -0.6088  0.1203  1.6336
61867SOL    HW297327   2.455   6.302  12.210 -0.7738 -0.2087 -1.1644
61868SOL     OW97328   9.871   9.528   1.530  0.6178 -0.9085 -0.0030
61868SOL    HW197329   9.838   9.483   1.452 -0.6119  2.1233 -1.3900
61868SOL    HW297330   9.964   9.504   1.534  0.6401 -1.4418 -2.2051
61869SOL     OW97331   1.013   3.202   5.158  0.3275  0.4926 -0.0178
61869SOL    HW197332   0.963   3.176   5.081  0.1477 -0.2473  0.3399
61869SOL    HW297333   1.056   3.284   5.133  1.0463 -0.2228 -1.2404
61870SOL     OW97334   3.927   9.481   7.752 -0.2583  0.3881 -0.2467
61870SOL    HW197335   3.931   9.496   7.847  1.4842 -1.7548  0.1025
61870SOL    HW297336   3.852   9.423   7.741 -0.0081  0.0214 -0.0587
61871SOL     OW97337   6.060   8.746   8.927  0.0982  0.2539  0.2539
61871SOL    HW197338   6.143   8.787   8.902 -0.1221  1.1043  0.8811
61871SOL    HW297339   6.079   8.653   8.927  1.5169  0.4954  1.9685
61872SOL     OW97340   7.104  13.606   9.724 -0.1256  0.5692 -0.2612
61872SOL    HW197341   7.047  13.682   9.718 -1.2390 -0.1088  1.1039
61872SOL    HW297342   7.131  13.603   9.816 -2.0814 -1.9933  0.3616
61873SOL     OW97343   7.542   7.335   5.411 -0.0542 -0.0842 -0.6164
61873SOL    HW197344   7.475   7.306   5.349 -2.0194  1.1140  0.8001
61873SOL    HW297345   7.599   7.259   5.422 -2.0907 -1.7446 -0.7690
61874SOL     OW97346  13.534   2.391   3.827 -0.1080  0.3780 -0.7166
61874SOL    HW197347  13.590   2.463   3.798 -1.5365  2.0953  0.5406
61874SOL    HW297348  13.445   2.425   3.818 -0.8223 -1.1238  0.2290
61875SOL     OW97349   2.089   6.723   7.440 -0.6299 -0.4710 -0.1478
61875SOL    HW197350   2.137   6.688   7.365  1.9277  1.9035  0.2209
61875SOL    HW297351   2.130   6.683   7.516 -1.4373 -0.8468  0.1034
61876SOL     OW97352   5.279   5.733   9.928 -0.0027 -0.2885 -0.0565
61876SOL    HW197353   5.231   5.791   9.869 -1.8371  0.8186  2.3260
61876SOL    HW297354   5.223   5.727  10.006  1.4677 -3.0299  0.9262
61877SOL     OW97355   9.008   2.302   7.195 -0.1134 -0.1942 -0.1314
61877SOL    HW197356   9.102   2.287   7.208 -0.2838 -0.3505  1.0493
61877SOL    HW297357   9.001   2.328   7.103  1.2483  1.1356  0.0917
61878SOL     OW97358   4.762  11.041   7.890  0.4869 -0.6317 -0.6096
61878SOL    HW197359   4.795  10.952   7.899 -1.2228 -1.3703 -1.1743
61878SOL    HW297360   4.796  11.088   7.966  0.2420 -2.1482  0.4746
61879SOL     OW97361   3.702  11.498   7.211  0.4454  0.8217 -0.5250
61879SOL    HW197362   3.678  11.540   7.129  3.7853  1.8815 -1.1124
61879SOL    HW297363   3.723  11.571   7.270 -0.3760  0.0477  0.7918
61880SOL     OW97364   0.202   7.092   7.992 -0.0073 -0.3381 -0.5390
61880SOL    HW197365   0.235   7.102   8.081 -0.0680 -1.2702 -0.4013
61880SOL    HW297366   0.142   7.166   7.980  1.0171  0.5564 -0.2959
61881SOL     OW97367  11.175   5.370   6.989 -0.8127  0.1048 -0.3291
61881SOL    HW197368  11.223   5.290   6.966  1.7758  1.1319  1.1326
61881SOL    HW297369  11.144   5.354   7.078  0.7172  1.0767  0.4251
61882SOL     OW97370  13.313   4.094  12.304 -0.4048  0.1090  0.8686
61882SOL    HW197371  13.227   4.083  12.262 -0.8590  0.3559  1.7174
61882SOL    HW297372  13.340   4.004  12.324 -1.3417  0.1019  2.2885
61883SOL     OW97373  10.167   2.583  10.522 -0.0531  0.6290 -0.1303
61883SOL    HW197374  10.232   2.628  10.577 -0.4617  0.3762  0.5828
61883SOL    HW297375  10.188   2.490  10.531 -1.2728  0.4354  1.1633
61884SOL     OW97376   2.256   8.362   2.132  0.3368 -0.2695 -0.0412
61884SOL    HW197377   2.246   8.289   2.193 -1.4013 -0.6889 -0.7626
61884SOL    HW297378   2.332   8.411   2.165  0.4918 -1.4315  1.4364
61885SOL     OW97379   5.100  12.036   4.874 -0.1002  0.0924 -0.7835
61885SOL    HW197380   5.016  12.073   4.847 -1.7699 -2.9431 -0.2960
61885SOL    HW297381   5.094  12.031   4.969  1.1112  0.8101 -0.6587
61886SOL     OW97382   0.979  11.766   9.224 -0.0713 -0.7422 -0.1406
61886SOL    HW197383   0.935  11.721   9.296 -0.4543 -1.9031 -1.0725
61886SOL    HW297384   0.908  11.798   9.169  0.2134 -1.6453 -1.0614
61887SOL     OW97385   8.341  11.541  10.456  0.0600 -0.2205  0.5613
61887SOL    HW197386   8.420  11.522  10.506 -0.2445  0.1927  1.2108
61887SOL    HW297387   8.270  11.539  10.521 -0.5212 -0.9395 -0.0668
61888SOL     OW97388   4.249   1.372  10.374 -0.0186 -0.2788 -0.4600
61888SOL    HW197389   4.340   1.365  10.346  0.3702  0.7400  0.4833
61888SOL    HW297390   4.227   1.465  10.363 -0.6842 -0.3610  0.0814
61889SOL     OW97391   2.789   0.588   0.312  0.1596 -0.1163  0.5805
61889SOL    HW197392   2.694   0.598   0.299  0.2066 -0.0061  0.3235
61889SOL    HW297393   2.803   0.610   0.404  0.1701  1.5157  0.2018
61890SOL     OW97394   6.684  11.677   1.689  0.1996  0.7316  0.0249
61890SOL    HW197395   6.728  11.680   1.773 -0.7503 -1.1411  0.6549
61890SOL    HW297396   6.592  11.690   1.709  0.0659  1.2244 -0.8508
61891SOL     OW97397   4.776  11.885   7.460 -0.1180 -0.1991  0.2573
61891SOL    HW197398   4.832  11.863   7.385  0.8121  1.8438  0.3046
61891SOL    HW297399   4.826  11.855   7.536 -0.3085 -0.7542  0.1725
61892SOL     OW97400  13.031  13.127   5.630 -0.0936  0.1235  0.9862
61892SOL    HW197401  12.965  13.196   5.636 -1.5124 -1.1226  0.4016
61892SOL    HW297402  13.003  13.062   5.694  2.0103  0.6395  2.5498
61893SOL     OW97403  12.778   1.399   8.348 -0.6591  0.2420 -0.2135
61893SOL    HW197404  12.866   1.361   8.355 -1.4516 -1.4657  1.3420
61893SOL    HW297405  12.752   1.383   8.258  0.0475 -0.5964 -0.2784
61894SOL     OW97406   0.575  10.781   7.479 -0.2226  0.3190  0.3615
61894SOL    HW197407   0.605  10.712   7.420  0.6567  1.3718 -0.4476
61894SOL    HW297408   0.541  10.849   7.421 -2.0235  0.1665  1.1831
61895SOL     OW97409  11.500   2.838   5.877  0.4138  0.1189 -0.8292
61895SOL    HW197410  11.585   2.802   5.901  1.1690  0.5319 -2.7087
61895SOL    HW297411  11.452   2.764   5.838  0.0938  0.0031 -0.2226
61896SOL     OW97412   2.551  12.957  12.848  0.0112 -0.4887  0.0670
61896SOL    HW197413   2.531  12.984  12.938 -0.8224 -0.9935  0.0452
61896SOL    HW297414   2.466  12.936  12.810  0.2329  0.8344 -1.2331
61897SOL     OW97415   1.038   2.366  11.403 -0.7332 -0.2898 -0.2141
61897SOL    HW197416   1.109   2.334  11.459  1.3324 -0.3851 -2.6898
61897SOL    HW297417   0.994   2.287  11.372  1.0067 -0.5995 -2.1481
61898SOL     OW97418  12.635   1.376  12.358  0.0666 -0.3028  0.3126
61898SOL    HW197419  12.612   1.468  12.372 -1.0295 -0.3402 -1.0290
61898SOL    HW297420  12.551   1.331  12.349  0.5988 -1.1459 -0.7321
61899SOL     OW97421   9.737   2.554   5.453 -0.5256 -0.2428  0.5576
61899SOL    HW197422   9.743   2.645   5.424 -0.0184 -0.6643 -0.7559
61899SOL    HW297423   9.820   2.538   5.499 -0.4404 -0.1641  0.4316
61900SOL     OW97424   9.871  11.693  11.167  0.7373 -0.1725 -0.4263
61900SOL    HW197425   9.879  11.756  11.096  0.2387 -0.8021 -1.0581
61900SOL    HW297426   9.809  11.733  11.228  1.9570  0.8408  0.2007
61901SOL     OW97427   4.187   0.715   9.969 -0.1533 -0.3320  0.0503
61901SOL    HW197428   4.245   0.757  10.033  0.0380 -0.1070 -0.2701
61901SOL    HW297429   4.246   0.671   9.908 -0.3490 -1.0231  0.3434
61902SOL     OW97430   1.188   5.363  12.802 -0.9655 -0.5651 -0.2662
61902SOL    HW197431   1.145   5.283  12.771  0.7517 -2.0228  0.9574
61902SOL    HW297432   1.264   5.373  12.746 -0.0259 -0.9969  0.8880
61903SOL     OW97433   7.420   4.214  13.356  0.3590 -0.3793  0.8536
61903SOL    HW197434   7.433   4.174  13.442 -1.4522 -1.3993  0.7028
61903SOL    HW297435   7.331   4.250  13.360  0.1114 -0.7428 -0.6884
61904SOL     OW97436   9.227   4.938   3.392  0.6670  0.9788 -0.1922
61904SOL    HW197437   9.211   4.846   3.371  1.7519  0.4742  1.0941
61904SOL    HW297438   9.169   4.986   3.332  2.4389 -0.3730 -3.2556
61905SOL     OW97439   8.389   3.724  11.843 -0.1575  0.3955  0.0173
61905SOL    HW197440   8.387   3.791  11.912 -0.5986  0.7457 -0.3273
61905SOL    HW297441   8.477   3.730  11.806 -0.3464  1.1251 -0.3320
61906SOL     OW97442   5.767   0.147   9.169 -0.9357 -0.2688 -0.0212
61906SOL    HW197443   5.846   0.133   9.116  1.7287  2.9054  2.6248
61906SOL    HW297444   5.708   0.195   9.111  0.6260  0.4950 -1.0553
61907SOL     OW97445   6.119  11.346   6.967 -0.1860  0.2811 -0.0469
61907SOL    HW197446   6.141  11.426   6.918  0.1295 -0.3875 -1.0283
61907SOL    HW297447   6.202  11.300   6.975 -0.3316  0.1316  0.6966
61908SOL     OW97448  11.728   7.479   8.711  0.2908 -0.5049  0.1079
61908SOL    HW197449  11.742   7.418   8.784  0.3271 -1.6181 -0.7906
61908SOL    HW297450  11.792   7.548   8.725  1.6296 -1.6926  0.1211
61909SOL     OW97451  10.122   3.623  10.582 -0.3213  0.7191 -1.2868
61909SOL    HW197452  10.101   3.544  10.533 -1.5673  1.0500 -1.3282
61909SOL    HW297453  10.080   3.694  10.533 -1.5163  1.0699  0.1507
61910SOL     OW97454  10.878   3.040   7.238 -0.3439  0.2160 -0.3602
61910SOL    HW197455  10.873   3.017   7.331  2.2348 -1.1296 -0.4611
61910SOL    HW297456  10.864   2.958   7.192 -4.4007  1.2868 -1.4252
61911SOL     OW97457   6.212   0.797  11.408  0.1468  0.2922 -0.2867
61911SOL    HW197458   6.303   0.811  11.433 -0.0090  2.4736 -0.7770
61911SOL    HW297459   6.162   0.816  11.488  0.0554  0.3064 -0.3467
61912SOL     OW97460   0.739   1.396   9.380 -0.5100 -0.4967  0.0569
61912SOL    HW197461   0.703   1.308   9.375  1.1566 -1.1815 -1.2098
61912SOL    HW297462   0.790   1.405   9.299  1.7128  0.5389  1.4737
61913SOL     OW97463   5.363  11.087  10.036  0.0162  0.4675  0.0793
61913SOL    HW197464   5.364  10.995  10.062 -1.0533  0.0994 -1.1126
61913SOL    HW297465   5.455  11.107  10.018  0.2358 -0.4205  0.1379
61914SOL     OW97466   0.200   8.392   1.597  0.0955  0.4343  0.3297
61914SOL    HW197467   0.135   8.326   1.621 -1.5961  1.1719 -1.8948
61914SOL    HW297468   0.258   8.348   1.535 -0.9270  0.9042 -1.0162
61915SOL     OW97469   5.751   3.172  13.010  0.2433 -0.4972 -0.4547
61915SOL    HW197470   5.797   3.210  12.935  2.4226 -3.7407 -0.9428
61915SOL    HW297471   5.820   3.140  13.067 -1.4017 -2.2405  0.6627
61916SOL     OW97472   7.785   0.102  10.817 -0.0549 -0.2002  0.0214
61916SOL    HW197473   7.849   0.100  10.746  0.6258 -1.1076  0.6291
61916SOL    HW297474   7.731   0.024  10.803 -3.0172  2.0346 -2.1815
61917SOL     OW97475   6.112   9.480   9.178  0.0056  0.5299  0.0160
61917SOL    HW197476   6.120   9.559   9.231  0.5762 -0.1022  0.8896
61917SOL    HW297477   6.151   9.411   9.231 -2.6245 -0.8528  0.3342
61918SOL     OW97478   6.550  10.623   1.255  0.1547 -0.2814 -0.3231
61918SOL    HW197479   6.531  10.530   1.267 -0.2232 -0.2346 -0.5667
61918SOL    HW297480   6.569  10.632   1.162 -1.9242  0.2596 -0.7317
61919SOL     OW97481   2.624   3.715   4.227  0.1129 -0.0352  0.2397
61919SOL    HW197482   2.617   3.784   4.293  0.8585  1.3038 -1.0124
61919SOL    HW297483   2.651   3.761   4.148  2.4579 -2.0017 -0.2082
61920SOL     OW97484   0.910   2.719  10.121 -0.2279 -0.5560  0.1167
61920SOL    HW197485   0.892   2.721  10.215  0.5211  0.7358  0.2534
61920SOL    HW297486   0.829   2.686  10.082 -0.7895 -0.4539  1.1479
61921SOL     OW97487   0.512   9.320   9.140  0.2792  0.0142 -0.3749
61921SOL    HW197488   0.542   9.368   9.217 -0.5984  0.0054 -0.0168
61921SOL    HW297489   0.474   9.240   9.175  0.1984 -0.1552 -0.8486
61922SOL     OW97490   5.088   1.985   3.917 -0.0226  0.1163 -0.0207
61922SOL    HW197491   5.021   1.917   3.929  0.3774 -0.1203  0.9658
61922SOL    HW297492   5.171   1.940   3.932  0.1899  1.0752  2.1331
61923SOL     OW97493   6.549  10.987  13.599  0.1254  0.2508 -0.2892
61923SOL    HW197494   6.575  10.990  13.692  1.5049 -1.3309 -0.5695
61923SOL    HW297495   6.629  11.008  13.552 -0.3575  0.1916 -1.1461
61924SOL     OW97496   3.365   4.315  11.248 -0.2236  0.4606 -0.7725
61924SOL    HW197497   3.315   4.368  11.186 -0.9098 -0.4546 -1.0349
61924SOL    HW297498   3.384   4.374  11.321 -0.9156  1.0740 -1.0772
61925SOL     OW97499  11.492   1.792   9.348 -0.3746  0.0028  0.1578
61925SOL    HW197500  11.546   1.714   9.341  1.3926  0.9819  1.8491
61925SOL    HW297501  11.504   1.822   9.438 -1.2187  2.0715 -0.3508
61926SOL     OW97502   4.825   2.431   5.318 -0.0071 -0.0017  0.1605
61926SOL    HW197503   4.737   2.437   5.357 -0.8545  1.6672 -1.7941
61926SOL    HW297504   4.856   2.521   5.316  0.4062 -0.1310 -1.9580
61927SOL     OW97505   6.850   1.929   0.403 -0.2966  0.5290 -0.4692
61927SOL    HW197506   6.756   1.944   0.390 -0.5653 -1.6986 -1.4800
61927SOL    HW297507   6.866   1.959   0.493 -1.3220  3.5771 -1.1852
61928SOL     OW97508   0.792  11.378  10.883 -0.4173 -0.4959 -0.3682
61928SOL    HW197509   0.811  11.291  10.918 -1.0790 -0.3595  0.3785
61928SOL    HW297510   0.752  11.425  10.957 -0.2429  0.3826 -0.8111
61929SOL     OW97511  10.360   7.333  12.485  0.2087 -0.1181 -0.4323
61929SOL    HW197512  10.421   7.355  12.556  0.0456  3.2707 -1.1450
61929SOL    HW297513  10.276   7.320  12.528  0.4025  0.4446  0.1348
61930SOL     OW97514  11.962   1.991  10.516  0.0494 -0.0596 -0.2039
61930SOL    HW197515  11.939   2.023  10.429  0.3767 -0.0869 -0.3019
61930SOL    HW297516  11.968   2.070  10.570  0.3041  0.0004 -0.3164
61931SOL     OW97517   9.407   6.032   0.665  0.6059 -0.2140 -0.3721
61931SOL    HW197518   9.383   6.119   0.635  0.3321  0.2194  1.0322
61931SOL    HW297519   9.329   6.000   0.712  0.9902 -0.8736 -0.1631
61932SOL     OW97520   2.525   0.582  12.620  0.4492  0.1701  0.3816
61932SOL    HW197521   2.446   0.572  12.673  0.6508  1.7074  1.0110
61932SOL    HW297522   2.495   0.625  12.540  0.6674  0.9528  0.7131
61933SOL     OW97523   8.080  11.838   3.642 -0.0159  0.5119  0.8347
61933SOL    HW197524   8.088  11.886   3.560 -1.6845 -1.4949 -0.6207
61933SOL    HW297525   8.017  11.888   3.694  1.2271  1.9210  1.0457
61934SOL     OW97526  10.761   9.636   5.515  0.0189 -0.0398 -0.2683
61934SOL    HW197527  10.784   9.726   5.539 -0.8551  0.2172 -0.3905
61934SOL    HW297528  10.792   9.626   5.425  2.5912 -0.7545  0.6096
61935SOL     OW97529  10.060   7.351  12.133 -0.2333 -0.1955  0.9158
61935SOL    HW197530  10.062   7.363  12.228  1.1687 -2.0504  1.1810
61935SOL    HW297531  10.151   7.363  12.105 -0.4872 -0.4694 -0.0827
61936SOL     OW97532   1.151   8.602   9.086  0.9186  0.9906  0.3457
61936SOL    HW197533   1.061   8.574   9.101  1.2041 -1.2677 -1.6874
61936SOL    HW297534   1.179   8.640   9.170 -1.3832  0.2900  1.4896
61937SOL     OW97535  12.595   6.545   2.151  0.1116  0.4466 -0.0267
61937SOL    HW197536  12.615   6.473   2.211 -0.3625  0.2406 -0.1157
61937SOL    HW297537  12.502   6.563   2.164 -0.0526  0.2446 -0.8668
61938SOL     OW97538   1.970   6.921   6.408 -0.0082  0.1202  0.0562
61938SOL    HW197539   1.877   6.911   6.427  0.4749 -0.8489  2.3010
61938SOL    HW297540   2.009   6.837   6.435  1.4812  0.3929 -1.1180
61939SOL     OW97541  13.580   6.610   3.848 -0.3224 -0.5823 -0.2703
61939SOL    HW197542  13.630   6.605   3.767 -0.5158  1.2348 -0.5435
61939SOL    HW297543  13.573   6.704   3.866 -1.0087 -0.9193  1.3983
61940SOL     OW97544  10.177   6.837   5.032  0.5771  0.0558 -1.0982
61940SOL    HW197545  10.105   6.899   5.020  0.5321 -0.3712 -3.5420
61940SOL    HW297546  10.135   6.754   5.051  0.5854  0.3769  0.4925
61941SOL     OW97547   8.423  12.888   3.607  0.5230  0.3643  0.1817
61941SOL    HW197548   8.422  12.902   3.512  0.5583 -1.7620 -0.1827
61941SOL    HW297549   8.353  12.826   3.623 -0.9126  2.2939  1.9065
61942SOL     OW97550   5.599   1.967   2.681 -0.3124  0.4581  0.3978
61942SOL    HW197551   5.628   1.913   2.608 -2.3078  1.1652 -1.0100
61942SOL    HW297552   5.674   2.023   2.701  1.6843 -2.4068  1.6411
61943SOL     OW97553   4.388   4.232  12.942 -0.2279  0.4154  0.3632
61943SOL    HW197554   4.419   4.320  12.918  1.0392 -0.3582 -1.0085
61943SOL    HW297555   4.296   4.245  12.964  0.1263  2.2169  0.9810
61944SOL     OW97556   8.439   9.129  13.182  0.1711 -0.0364 -0.5314
61944SOL    HW197557   8.459   9.106  13.092  0.9894 -3.5409  0.3848
61944SOL    HW297558   8.349   9.161  13.180 -0.3516 -1.4973 -2.4025
61945SOL     OW97559   1.911  11.208   5.798 -0.9021 -0.1803  0.1432
61945SOL    HW197560   1.994  11.181   5.757  0.4459 -0.9936  3.1311
61945SOL    HW297561   1.874  11.127   5.832 -1.6851  0.5152  0.9749
61946SOL     OW97562   9.298   8.373  11.777 -0.8980  0.0612 -0.0978
61946SOL    HW197563   9.336   8.409  11.857 -1.0605  0.7024 -0.2991
61946SOL    HW297564   9.371   8.333  11.731 -0.4179  1.4306 -0.5646
61947SOL     OW97565   2.993  12.826   1.519  0.1667  0.0851 -0.1078
61947SOL    HW197566   2.947  12.826   1.603  0.7710  0.7995  0.2325
61947SOL    HW297567   2.930  12.862   1.458  0.7242  2.4995  0.6437
61948SOL     OW97568   8.562   8.323  10.361  0.1604  0.2250 -0.4094
61948SOL    HW197569   8.470   8.350  10.371  0.0355 -0.3787  0.1766
61948SOL    HW297570   8.608   8.369  10.431 -0.0407 -0.9738  0.5459
61949SOL     OW97571   8.333   4.831   8.578  0.0931 -0.4686 -0.3522
61949SOL    HW197572   8.353   4.788   8.661  0.0389 -0.9280 -0.5776
61949SOL    HW297573   8.274   4.771   8.532  0.8733 -0.6557 -1.1306
61950SOL     OW97574   5.598   8.492  12.953 -0.2163 -0.5764 -0.0709
61950SOL    HW197575   5.546   8.477  13.033 -0.0297 -1.6898 -0.1473
61950SOL    HW297576   5.534   8.526  12.890 -0.3017  0.6346  0.6297
61951SOL     OW97577  10.175  11.896   4.391 -0.4685  0.0538  0.4231
61951SOL    HW197578  10.259  11.933   4.363  0.0610 -2.0351 -1.0953
61951SOL    HW297579  10.198  11.809   4.424 -2.0500 -0.7173 -0.3978
61952SOL     OW97580  13.577   1.320   7.350  0.5501 -0.8396 -0.5007
61952SOL    HW197581  13.604   1.329   7.441  2.0317 -2.4613 -0.7274
61952SOL    HW297582  13.499   1.263   7.353  1.0355 -1.5074 -0.2755
61953SOL     OW97583   2.910  10.467   2.837  0.1746 -0.6831 -0.0815
61953SOL    HW197584   2.985  10.521   2.864  0.5019 -0.9758 -0.3938
61953SOL    HW297585   2.835  10.526   2.843  0.2491 -0.6976  1.3340
61954SOL     OW97586   9.498   3.756   9.677  0.2747 -0.9654  0.4052
61954SOL    HW197587   9.543   3.787   9.755 -0.0028 -0.6525  0.4487
61954SOL    HW297588   9.450   3.678   9.705 -0.9390 -0.0774  0.9145
61955SOL     OW97589   9.848   6.269  13.052 -0.2971  0.0512  0.3122
61955SOL    HW197590   9.767   6.317  13.066 -1.0425 -1.1358  0.1988
61955SOL    HW297591   9.834   6.184  13.094  0.8887 -0.1707  0.3023
61956SOL     OW97592  12.739  10.859  11.114 -0.1446 -0.1411  1.1533
61956SOL    HW197593  12.778  10.856  11.201 -0.1570  0.3507  1.1770
61956SOL    HW297594  12.789  10.795  11.064  0.8842  0.6624  1.1157
61957SOL     OW97595  13.404  12.144  11.282 -0.0217  0.8317 -0.2062
61957SOL    HW197596  13.325  12.145  11.335 -2.4735 -3.3134 -3.1798
61957SOL    HW297597  13.388  12.208  11.212 -0.3302  0.6732 -0.2807
61958SOL     OW97598  11.898   3.381   2.502 -0.3513  0.1597 -0.0243
61958SOL    HW197599  11.894   3.379   2.406 -0.6876  0.3462 -0.0154
61958SOL    HW297600  11.933   3.295   2.526 -0.3031  0.0969 -0.3128
61959SOL     OW97601   9.018   8.443   6.578  0.1391 -0.3308  0.3452
61959SOL    HW197602   9.064   8.514   6.535  0.3234  0.4033  1.6955
61959SOL    HW297603   8.929   8.446   6.542  0.7689 -0.9487 -1.3313
61960SOL     OW97604   4.003   6.636  13.307  0.1895  0.2882  0.0817
61960SOL    HW197605   3.967   6.554  13.272  1.5901  0.3391 -1.6135
61960SOL    HW297606   4.091   6.641  13.270 -0.0972  2.9189 -0.4654
61961SOL     OW97607   9.321   4.868   0.352  0.4624 -0.8840  0.4508
61961SOL    HW197608   9.384   4.939   0.338  1.2921 -1.7596 -0.4362
61961SOL    HW297609   9.271   4.863   0.271  1.3559 -2.1866 -0.0656
61962SOL     OW97610  10.276  12.549   5.165  0.4725  0.6068 -0.3147
61962SOL    HW197611  10.229  12.507   5.236  2.3858  0.4592  0.9515
61962SOL    HW297612  10.224  12.627   5.144 -1.5241 -0.7424 -0.6499
61963SOL     OW97613   5.253  12.876   1.543  0.1738  0.0953  0.2299
61963SOL    HW197614   5.237  12.971   1.539 -1.4972 -0.1625 -0.1440
61963SOL    HW297615   5.249  12.855   1.636  0.4339  0.3738  0.3053
61964SOL     OW97616   8.742   6.991  10.290  0.5428  0.4221  0.0325
61964SOL    HW197617   8.741   6.987  10.386  1.2190 -0.7154  0.0141
61964SOL    HW297618   8.835   6.983  10.267  0.6474  2.8369 -0.6763
61965SOL     OW97619  11.895   3.356  11.898 -0.1559  0.0571 -0.7151
61965SOL    HW197620  11.872   3.270  11.863  1.2125 -0.5548 -0.1485
61965SOL    HW297621  11.941   3.337  11.979  0.0234  1.3430 -0.5040
61966SOL     OW97622   5.413   9.636  11.084  0.6515  0.0394 -0.2244
61966SOL    HW197623   5.405   9.598  10.996 -1.1031 -0.2029 -0.0005
61966SOL    HW297624   5.494   9.600  11.119  1.6927  0.6002 -1.9517
61967SOL     OW97625   0.911   5.637  12.810 -0.2136  0.6718  0.4443
61967SOL    HW197626   0.854   5.560  12.813 -0.7579  1.0016 -0.6935
61967SOL    HW297627   0.920   5.655  12.716  0.7933  1.3434  0.6654
61968SOL     OW97628   7.134   3.093   0.310 -0.1309  0.0759  0.0428
61968SOL    HW197629   7.227   3.086   0.289 -0.4522 -1.4760 -1.0924
61968SOL    HW297630   7.120   3.030   0.380 -0.4787 -0.3722 -0.4207
61969SOL     OW97631  10.378  13.270   7.080 -0.4981  0.0577 -0.7304
61969SOL    HW197632  10.337  13.221   7.009  1.0274 -0.6063 -1.1900
61969SOL    HW297633  10.374  13.212   7.156  1.1258 -0.7760 -1.2242
61970SOL     OW97634   5.538   4.414  11.846  0.9863  0.3724 -0.0186
61970SOL    HW197635   5.582   4.496  11.825 -0.0895  1.1317  0.5558
61970SOL    HW297636   5.607   4.348  11.844  1.4238  0.7091 -3.5747
61971SOL     OW97637   0.962   8.363   0.522 -0.6041  0.6031  0.6762
61971SOL    HW197638   1.022   8.334   0.454 -0.1887  0.2949  1.1715
61971SOL    HW297639   0.946   8.285   0.575 -0.3314  1.0092  1.3739
61972SOL     OW97640   6.181   6.401   2.427 -0.6735 -0.1897  0.1978
61972SOL    HW197641   6.089   6.427   2.427 -1.8229 -3.7301  0.1917
61972SOL    HW297642   6.195   6.363   2.514  0.8730  0.5144  0.2739
61973SOL     OW97643  11.318   1.986  11.815 -0.1869 -0.1599 -0.6651
61973SOL    HW197644  11.242   1.973  11.758  0.8289 -1.5659 -1.7623
61973SOL    HW297645  11.359   2.066  11.783  0.0074 -0.5889 -1.5062
61974SOL     OW97646   8.777   6.093   9.464  0.0540  0.2975  0.3923
61974SOL    HW197647   8.777   6.090   9.560  4.0229  2.1436  0.6663
61974SOL    HW297648   8.824   6.014   9.437  0.1997  0.4886  0.0774
61975SOL     OW97649   5.872   2.950  10.585  0.4334  0.2184 -0.1328
61975SOL    HW197650   5.799   3.005  10.614  0.4783 -0.3809  1.1776
61975SOL    HW297651   5.950   2.997  10.615  0.4493 -0.9825  1.8842
61976SOL     OW97652   7.993  12.380   6.333 -0.3778  0.2352  0.5211
61976SOL    HW197653   8.081  12.415   6.319  0.2621 -1.9272 -1.5012
61976SOL    HW297654   8.007  12.293   6.370 -1.5675 -0.5538 -0.7641
61977SOL     OW97655   7.516  11.892   4.690 -0.1689  0.1563 -0.4676
61977SOL    HW197656   7.554  11.827   4.750 -0.3084  0.3990 -0.1099
61977SOL    HW297657   7.560  11.876   4.607 -0.0030 -0.2186 -0.3138
61978SOL     OW97658  10.408   4.427   4.517 -0.0598 -0.1191  0.0608
61978SOL    HW197659  10.376   4.434   4.428  0.2846 -1.9606 -0.2586
61978SOL    HW297660  10.333   4.397   4.568  0.2791 -1.2335 -0.0624
61979SOL     OW97661  13.159   1.868   8.878 -0.1424 -0.4267 -0.2289
61979SOL    HW197662  13.120   1.903   8.799  1.4032  1.2828 -0.2911
61979SOL    HW297663  13.127   1.924   8.948 -0.3652 -1.0408  0.1722
61980SOL     OW97664  10.441   2.273   9.756  0.0188  0.0026  0.2043
61980SOL    HW197665  10.391   2.269   9.674  0.1493 -0.1664  0.1348
61980SOL    HW297666  10.517   2.327   9.734 -0.7833  1.3807  0.6513
61981SOL     OW97667   2.425   1.751   8.628 -0.2539 -0.4473 -0.1576
61981SOL    HW197668   2.483   1.743   8.704  2.3471 -0.1613 -1.9896
61981SOL    HW297669   2.407   1.661   8.602 -0.2670 -0.5352  0.1438
61982SOL     OW97670  10.184  13.287  10.882 -0.0454 -0.2306  0.5120
61982SOL    HW197671  10.177  13.383  10.883  2.4615  0.0252  0.7360
61982SOL    HW297672  10.206  13.267  10.791  0.3427 -0.4757  0.6569
61983SOL     OW97673  11.491   0.912   9.756 -0.1338 -0.6228 -0.4237
61983SOL    HW197674  11.517   1.000   9.781 -1.2098  0.5189 -2.9231
61983SOL    HW297675  11.399   0.906   9.781 -0.1421 -0.9370 -0.5241
61984SOL     OW97676   8.265   0.090   3.979  0.1817 -0.4101 -0.0453
61984SOL    HW197677   8.310   0.127   4.055 -0.9451  1.6059 -0.2728
61984SOL    HW297678   8.194   0.152   3.961  0.9905 -0.2505 -3.3495
61985SOL     OW97679   8.936   9.725  12.385  0.7865 -0.1079 -0.3901
61985SOL    HW197680   8.930   9.820  12.377  2.0966  0.1771  1.4168
61985SOL    HW297681   8.852   9.693  12.351  0.2171  1.6948 -0.7916
61986SOL     OW97682   2.964  13.026  10.319  0.0841  0.1920 -0.2937
61986SOL    HW197683   3.037  13.064  10.367  0.6573 -0.5887 -0.5458
61986SOL    HW297684   2.904  12.996  10.387  1.0484 -1.2182 -0.0363
61987SOL     OW97685   7.989   1.194   3.874 -0.4372 -0.9302 -0.1430
61987SOL    HW197686   7.934   1.136   3.822 -0.0587 -0.0382 -1.6122
61987SOL    HW297687   7.936   1.273   3.885 -1.2261 -1.7199  2.4292
61988SOL     OW97688  10.346   0.119   0.677  0.2107  0.1776  0.6582
61988SOL    HW197689  10.368   0.032   0.710  0.1304 -0.0910  0.0329
61988SOL    HW297690  10.427   0.169   0.685  0.8516 -0.5511 -0.8272
61989SOL     OW97691   1.181   8.839  10.820 -0.1504  0.0024 -0.0265
61989SOL    HW197692   1.191   8.817  10.913  1.6580  1.9011  0.3042
61989SOL    HW297693   1.232   8.773  10.775 -1.3915 -1.1945  0.2459
61990SOL     OW97694  11.559   1.083   2.281  0.6512 -0.7256  0.1483
61990SOL    HW197695  11.524   1.023   2.215 -1.0409  1.3971 -1.0356
61990SOL    HW297696  11.576   1.027   2.357 -1.7046 -2.5917 -0.5449
61991SOL     OW97697   1.197  12.936   5.496 -0.0309  0.4952 -0.2464
61991SOL    HW197698   1.291  12.952   5.488  0.4016 -1.6487 -0.0959
61991SOL    HW297699   1.158  13.023   5.495  1.9004  1.4156 -0.8796
61992SOL     OW97700   2.222  13.183   0.317 -0.2532 -0.2311  0.2713
61992SOL    HW197701   2.313  13.211   0.324 -0.8120  1.7242  0.4494
61992SOL    HW297702   2.215  13.109   0.377  1.6698 -1.8164 -1.3255
61993SOL     OW97703   3.052   6.241   3.868  0.7221 -0.0335  0.4936
61993SOL    HW197704   2.977   6.246   3.927 -0.3184  0.9021 -0.8367
61993SOL    HW297705   3.096   6.160   3.892 -2.2458 -2.1057 -0.4280
61994SOL     OW97706   2.122   6.273   7.002  0.4017 -0.4122 -0.7417
61994SOL    HW197707   2.063   6.346   6.984  1.2727 -0.1225 -2.6063
61994SOL    HW297708   2.182   6.307   7.069 -0.9636 -0.4310  0.5405
61995SOL     OW97709   6.113   1.892   6.963  0.0108  0.0619 -0.4903
61995SOL    HW197710   6.072   1.812   6.929  1.6106 -0.7128 -0.6688
61995SOL    HW297711   6.081   1.897   7.053 -3.0679  1.3210 -1.5415
61996SOL     OW97712   3.834  12.219   1.951 -0.8501  0.6148 -0.1192
61996SOL    HW197713   3.859  12.311   1.954  0.3986  0.3028 -0.1035
61996SOL    HW297714   3.824  12.200   1.857  1.3421  0.1950 -0.3281
61997SOL     OW97715   8.157   5.816   7.860 -0.2612  0.8259 -0.0857
61997SOL    HW197716   8.179   5.852   7.946  0.7266  0.9191 -0.3723
61997SOL    HW297717   8.222   5.748   7.845 -1.4794 -0.4092  0.0014
61998SOL     OW97718   7.972  11.343   1.548 -0.1287 -0.5796 -0.2640
61998SOL    HW197719   7.983  11.257   1.589  0.0524 -0.5595 -0.2719
61998SOL    HW297720   7.927  11.325   1.466  0.5441 -0.7382 -0.5977
61999SOL     OW97721   9.446  11.301   6.753  0.2145  0.8335  0.6014
61999SOL    HW197722   9.476  11.379   6.706  1.4243  0.2256  0.3175
61999SOL    HW297723   9.469  11.228   6.695 -1.4150  0.2861  0.6098
62000SOL     OW97724  10.013  12.623   4.773 -0.4856  0.1132  0.2303
62000SOL    HW197725   9.974  12.704   4.739 -0.3164  0.3880  0.6694
62000SOL    HW297726   9.949  12.590   4.836 -0.0284  0.5748  0.9670
62001SOL     OW97727   6.209   4.057  13.308 -0.7652  0.2149  0.5203
62001SOL    HW197728   6.266   4.126  13.274 -1.1298  0.7434  0.9664
62001SOL    HW297729   6.245   4.037  13.395  0.5187 -1.5348 -0.3305
62002SOL     OW97730  11.537  10.855   2.595 -0.3273 -0.3691  0.0369
62002SOL    HW197731  11.446  10.877   2.573 -0.8642  0.0002  2.3661
62002SOL    HW297732  11.532  10.825   2.686  1.9522  0.0199  0.3294
62003SOL     OW97733  13.394   7.320  13.369 -0.0636  0.3539  0.3208
62003SOL    HW197734  13.324   7.255  13.373 -0.3463  0.6446  0.1542
62003SOL    HW297735  13.395   7.358  13.457  1.2569 -1.0591  0.9609
62004SOL     OW97736   6.006  13.240  12.479 -0.1809  0.6201  0.2330
62004SOL    HW197737   6.072  13.225  12.412 -1.5664  0.1256 -1.0910
62004SOL    HW297738   5.925  13.256  12.429 -1.3578 -0.2328  1.7773
62005SOL     OW97739  11.212   0.590   7.322  0.2592  0.0170  0.3074
62005SOL    HW197740  11.250   0.503   7.308  0.3736  0.3451 -1.7076
62005SOL    HW297741  11.288   0.648   7.332  0.1857 -0.0507  1.3769
62006SOL     OW97742  11.308   8.796   7.370 -0.1704  0.1056  0.4770
62006SOL    HW197743  11.369   8.856   7.414  0.1137  1.4509 -1.6301
62006SOL    HW297744  11.362   8.748   7.308 -1.0552  0.5184 -0.6377
62007SOL     OW97745   8.401   9.515  13.348  0.0525 -0.0700  0.4257
62007SOL    HW197746   8.450   9.433  13.345  0.1556 -0.1000  1.9320
62007SOL    HW297747   8.322   9.498  13.296  0.4479 -0.8561  0.0751
62008SOL     OW97748   6.533  12.451  12.217 -0.1517  0.1849 -0.0847
62008SOL    HW197749   6.602  12.474  12.278  0.0211  1.6242 -0.7759
62008SOL    HW297750   6.454  12.494  12.251 -0.5587 -0.8394  0.3036
62009SOL     OW97751   5.150  12.506  12.241 -0.1571  0.0360  0.2153
62009SOL    HW197752   5.182  12.434  12.295  1.9086 -0.3847 -1.4280
62009SOL    HW297753   5.203  12.501  12.161 -1.3295  2.1820 -0.7798
62010SOL     OW97754   4.998  12.930   7.097  0.3695  0.2636 -0.1819
62010SOL    HW197755   5.012  12.909   7.189 -0.1952 -0.4903 -0.2553
62010SOL    HW297756   5.086  12.928   7.059  0.4417 -1.4150 -0.0369
62011SOL     OW97757   5.020   9.131   7.643 -0.4541 -0.2390 -0.3798
62011SOL    HW197758   5.100   9.173   7.610  0.2614  0.2355  1.8052
62011SOL    HW297759   4.956   9.202   7.647 -0.4994 -0.2665 -0.6092
62012SOL     OW97760   9.464  11.890   9.159  0.2944  0.7132 -0.1404
62012SOL    HW197761   9.482  11.885   9.066  0.3066 -0.4841 -0.0826
62012SOL    HW297762   9.375  11.856   9.168 -0.7433  3.2599 -0.0026
62013SOL     OW97763  12.715   3.448  10.729 -0.4425 -0.0224 -0.6602
62013SOL    HW197764  12.734   3.366  10.682  0.1378 -0.6350  0.5918
62013SOL    HW297765  12.796   3.499  10.720 -0.3444 -0.1252 -0.3728
62014SOL     OW97766   8.621   4.733   8.346 -0.2085  0.1831  0.3638
62014SOL    HW197767   8.601   4.640   8.346  1.1958 -0.1513 -0.5827
62014SOL    HW297768   8.562   4.771   8.281 -1.0339  0.0336  1.0088
62015SOL     OW97769   5.343   7.389   7.030  0.1984  0.1011 -0.5777
62015SOL    HW197770   5.272   7.409   7.091  0.7690 -3.6179  1.6051
62015SOL    HW297771   5.408   7.344   7.083  2.3415 -0.2818 -3.3113
62016SOL     OW97772   7.840   0.126   9.522  0.4768  0.2620  0.0484
62016SOL    HW197773   7.870   0.216   9.510 -3.4851  1.7174 -0.4159
62016SOL    HW297774   7.866   0.105   9.612 -1.3546  3.2197  1.4209
62017SOL     OW97775   8.544   3.332   3.933  0.5485  0.6730  0.0219
62017SOL    HW197776   8.460   3.289   3.924  1.4283 -0.9631 -0.6550
62017SOL    HW297777   8.594   3.277   3.994  1.2645  1.4360  0.1602
62018SOL     OW97778   2.562   3.889  12.641  0.7034 -0.7251  0.2210
62018SOL    HW197779   2.544   3.796  12.628 -1.5068 -0.3972  0.5605
62018SOL    HW297780   2.573   3.898  12.736 -1.3431 -0.3466  0.4690
62019SOL     OW97781  11.479   1.882  12.827 -0.1204  0.1652  0.0904
62019SOL    HW197782  11.407   1.940  12.802 -1.0927 -0.7554  0.6682
62019SOL    HW297783  11.528   1.931  12.893 -2.5184 -0.6229  2.6367
62020SOL     OW97784   0.667   5.823  12.638  0.0989  0.4443 -0.3359
62020SOL    HW197785   0.746   5.872  12.659  0.0272 -0.3502  2.1402
62020SOL    HW297786   0.622   5.813  12.722 -2.1518  0.0410 -1.5250
62021SOL     OW97787   0.163   0.351   7.936  0.5853 -0.3904 -0.4875
62021SOL    HW197788   0.244   0.322   7.894  1.0261  1.0660 -0.7144
62021SOL    HW297789   0.184   0.353   8.030  1.1084  0.7372 -0.6023
62022SOL     OW97790   7.733  10.381   9.948  0.3551 -0.8374  0.1457
62022SOL    HW197791   7.670  10.376  10.020 -1.8563 -0.6206 -1.6329
62022SOL    HW297792   7.769  10.293   9.940 -0.4962 -1.2371  0.5847
62023SOL     OW97793   5.354   2.114   3.714 -0.6063 -0.2279  0.0154
62023SOL    HW197794   5.309   2.170   3.777 -1.1071  1.6573 -1.9012
62023SOL    HW297795   5.446   2.117   3.741 -0.6560  1.3941  0.1026
62024SOL     OW97796   9.438   9.215   0.314  0.2328  0.3040  0.6834
62024SOL    HW197797   9.490   9.218   0.395  0.7305  0.7246  0.3514
62024SOL    HW297798   9.458   9.130   0.275 -0.1981 -0.0076  1.1159
62025SOL     OW97799   7.829   0.446   5.592  0.3805  0.2640  0.1165
62025SOL    HW197800   7.917   0.419   5.619 -0.2383 -0.6578  1.2894
62025SOL    HW297801   7.814   0.529   5.637  0.3659  0.0346  0.5451
62026SOL     OW97802   2.789  10.185   9.888  0.3049  0.0343  0.0725
62026SOL    HW197803   2.726  10.218   9.823  0.7183  0.2943 -0.1973
62026SOL    HW297804   2.789  10.090   9.874 -1.2333 -0.1752  1.1608
62027SOL     OW97805  11.565   1.038   4.281 -0.1288  0.0871 -0.2941
62027SOL    HW197806  11.520   1.090   4.215  0.5717 -0.0631 -0.8939
62027SOL    HW297807  11.557   1.090   4.361  0.8533  1.2864 -0.9502
62028SOL     OW97808   4.365  12.108  10.737  0.0517  0.1138 -0.1361
62028SOL    HW197809   4.271  12.096  10.741  0.2195 -1.8201 -0.7958
62028SOL    HW297810   4.402  12.023  10.763  1.5239 -0.0416 -2.3779
62029SOL     OW97811   6.029  13.257   6.989  0.6083 -0.1833  0.6339
62029SOL    HW197812   6.107  13.231   6.940  0.4585  0.7269 -0.1281
62029SOL    HW297813   5.979  13.176   7.000  1.8004 -0.8504  1.4445
62030SOL     OW97814   1.556   3.697   0.437 -0.4239  0.0593  0.6701
62030SOL    HW197815   1.648   3.687   0.411 -0.2082 -0.2191  1.5062
62030SOL    HW297816   1.532   3.610   0.471 -0.9340  0.1856  0.6332
62031SOL     OW97817  10.392   0.047   9.455 -0.1240 -0.4749  0.4939
62031SOL    HW197818  10.401   0.015   9.544 -0.0215 -0.8133  0.3611
62031SOL    HW297819  10.358   0.136   9.465 -1.4136 -0.9749  0.8366
62032SOL     OW97820   1.385   6.558   8.661 -0.1968  0.3475 -0.1464
62032SOL    HW197821   1.452   6.495   8.637  3.2163  2.6578  2.4623
62032SOL    HW297822   1.328   6.511   8.722  0.8152 -0.8298 -0.0735
62033SOL     OW97823  12.088   8.207  13.374  0.7975 -0.3302  0.1702
62033SOL    HW197824  12.161   8.225  13.316  0.3382 -1.3547 -0.7772
62033SOL    HW297825  12.010   8.217  13.318  0.0994  1.7808  1.4008
62034SOL     OW97826   9.438   9.040  13.647 -0.3810 -0.4932 -0.0376
62034SOL    HW197827   9.476   9.114  13.694  0.8098  0.5037 -2.4076
62034SOL    HW297828   9.510   8.977  13.640 -1.0174 -1.3567  0.8043
62035SOL     OW97829   7.043   0.643   5.480  0.2233  0.1007 -0.1975
62035SOL    HW197830   7.043   0.695   5.560 -2.0969 -0.3820  0.1710
62035SOL    HW297831   7.051   0.552   5.510 -2.7453 -0.2721 -0.2617
62036SOL     OW97832   1.168  13.241   3.177  0.1228 -0.2841 -0.5912
62036SOL    HW197833   1.174  13.170   3.114  0.1895  0.9516 -2.0409
62036SOL    HW297834   1.257  13.253   3.210  0.3757 -0.0094 -1.3571
62037SOL     OW97835   6.958   9.591   3.119  0.5452 -0.0337 -0.0020
62037SOL    HW197836   6.948   9.683   3.092  0.7539  0.0984  0.3549
62037SOL    HW297837   6.870   9.565   3.146  0.7494  0.5179  1.2735
62038SOL     OW97838   5.018   8.249   8.252 -0.1137  0.5645  0.2702
62038SOL    HW197839   5.110   8.252   8.223 -0.1002 -1.7303 -0.1240
62038SOL    HW297840   4.975   8.194   8.187 -1.4604  0.4311  1.2429
62039SOL     OW97841   1.086  13.228  13.354  0.0121  0.0009 -0.0734
62039SOL    HW197842   1.154  13.161  13.349  1.7564  1.6360  0.5285
62039SOL    HW297843   1.085  13.254  13.446 -1.0405  0.4088 -0.1891
62040SOL     OW97844   6.472   5.801   8.008  0.0219  0.1100 -0.3213
62040SOL    HW197845   6.519   5.742   7.948  1.3433 -0.4611  1.2020
62040SOL    HW297846   6.439   5.743   8.077  0.7572  1.0287  0.8433
62041SOL     OW97847   6.306   9.460  11.851  0.1749  0.4174  0.3698
62041SOL    HW197848   6.223   9.508  11.843  0.3178  1.0136  2.1455
62041SOL    HW297849   6.333   9.446  11.760  0.2662  3.9609 -0.3239
62042SOL     OW97850   7.748   6.037   5.642  0.4431  0.1667 -0.3457
62042SOL    HW197851   7.711   6.008   5.726  1.3825  0.5081  0.2058
62042SOL    HW297852   7.831   5.989   5.634  0.6144  0.5322 -0.8203
62043SOL     OW97853   8.348   3.316   1.496 -0.3893 -0.7350  0.5294
62043SOL    HW197854   8.398   3.393   1.471 -0.2002 -0.9006  0.3883
62043SOL    HW297855   8.258   3.337   1.474 -0.0566 -1.4482 -1.7943
62044SOL     OW97856   6.097   5.576  11.015  0.6340  0.2731  0.2716
62044SOL    HW197857   6.040   5.567  10.938 -0.9780 -2.2245  1.6528
62044SOL    HW297858   6.039   5.608  11.084  1.9792  2.0888  0.6415
62045SOL     OW97859  11.742   4.030  13.470  0.7003 -0.2395 -0.2425
62045SOL    HW197860  11.673   4.088  13.503  0.8026 -0.9352  1.3039
62045SOL    HW297861  11.704   3.989  13.392 -0.5792 -0.4647  0.4654
62046SOL     OW97862   6.076   3.265   9.168  0.1732  0.2219 -0.0808
62046SOL    HW197863   6.029   3.301   9.093  0.7425  0.1752 -0.4670
62046SOL    HW297864   6.061   3.328   9.239  0.2623  0.6580 -0.4455
62047SOL     OW97865   1.878   0.361   9.961  0.4862  0.2818  0.4860
62047SOL    HW197866   1.939   0.301  10.004  0.8195  0.7924  0.7437
62047SOL    HW297867   1.922   0.446   9.966  0.8290  0.2496 -1.4382
62048SOL     OW97868  13.305   3.741   7.000 -0.1855  0.3550  0.4706
62048SOL    HW197869  13.302   3.716   7.092  2.7239  0.0112  0.5719
62048SOL    HW297870  13.232   3.802   6.989 -1.1361 -0.2629  2.7492
62049SOL     OW97871   0.109   7.443  10.030 -0.0333 -0.0225  0.4302
62049SOL    HW197872   0.191   7.478  10.064 -0.2934 -1.2580  2.5102
62049SOL    HW297873   0.125   7.431   9.936  1.5431  1.3555  0.4866
62050SOL     OW97874   9.855  10.435   5.963  0.4556 -0.0265  1.7536
62050SOL    HW197875   9.802  10.493   6.017 -0.6669  2.0409 -1.3046
62050SOL    HW297876   9.943  10.472   5.966  0.6304 -0.4855  2.8228
62051SOL     OW97877   9.210   7.412   5.186  0.3851  0.6013 -0.0235
62051SOL    HW197878   9.227   7.500   5.151 -0.6496  0.9369  0.3005
62051SOL    HW297879   9.293   7.387   5.226  1.5212  0.3430 -2.3606
62052SOL     OW97880   0.715   5.673   3.421 -0.1294  0.2422 -0.2105
62052SOL    HW197881   0.775   5.603   3.395 -0.9502 -0.7083  0.3764
62052SOL    HW297882   0.700   5.723   3.341  0.2709 -0.4106 -0.7024
62053SOL     OW97883   5.780   7.093   4.850  0.2959 -0.3578  0.4873
62053SOL    HW197884   5.765   7.182   4.819 -1.1192 -1.2174 -1.5715
62053SOL    HW297885   5.718   7.082   4.922 -0.1041  0.0862  0.2195
62054SOL     OW97886   0.157  11.990   7.275  0.0072  0.7097  0.0185
62054SOL    HW197887   0.235  11.940   7.251 -0.3909  0.7580 -1.4447
62054SOL    HW297888   0.191  12.059   7.332  0.8605  0.0187  0.3742
62055SOL     OW97889   8.195   7.451   8.462 -0.0050  0.1976 -0.0828
62055SOL    HW197890   8.110   7.414   8.484  0.0559 -0.1097 -0.3596
62055SOL    HW297891   8.196   7.536   8.505 -0.2347 -0.0269  0.3711
62056SOL     OW97892   4.570   7.515   9.818 -0.1062  0.1621  0.5646
62056SOL    HW197893   4.603   7.584   9.875 -0.2979 -0.4124  1.4046
62056SOL    HW297894   4.520   7.458   9.877 -1.3562  0.2084 -0.3967
62057SOL     OW97895   9.883   9.850   2.891 -0.4204  0.3251 -0.5734
62057SOL    HW197896   9.886   9.914   2.962  0.0174  0.2673 -0.5390
62057SOL    HW297897   9.965   9.863   2.843  1.0192 -2.0805  1.0657
62058SOL     OW97898   3.021   9.932   8.324  0.4150 -0.0790 -0.0063
62058SOL    HW197899   2.983   9.895   8.403  0.9906 -0.0783  0.2715
62058SOL    HW297900   3.014  10.027   8.336  1.0767 -0.0687  0.3299
62059SOL     OW97901   2.676  10.527   3.802  0.5957 -0.0949  0.7192
62059SOL    HW197902   2.702  10.611   3.763 -0.3236 -0.7284 -1.4245
62059SOL    HW297903   2.686  10.540   3.896  2.5534  1.6859  0.3342
62060SOL     OW97904  13.631   4.296   1.644  0.0635 -0.3858  0.1371
62060SOL    HW197905  13.692   4.343   1.702 -0.4116  0.5685 -0.1056
62060SOL    HW297906  13.591   4.366   1.592 -0.2443 -1.1377 -0.6469
62061SOL     OW97907   4.204   3.124   9.253  0.2805  0.0549 -0.1775
62061SOL    HW197908   4.283   3.122   9.307  0.4895  0.5452 -0.4578
62061SOL    HW297909   4.157   3.202   9.283  0.3414  0.2624 -0.6197
62062SOL     OW97910   1.053   6.549  10.912  0.2742 -0.3470  0.4221
62062SOL    HW197911   1.074   6.590  10.996  0.0379 -2.8413  1.7641
62062SOL    HW297912   1.136   6.510  10.883  0.3496  0.4766 -0.5290
62063SOL     OW97913   8.780  10.694   5.962  0.2834 -0.0718 -0.3477
62063SOL    HW197914   8.700  10.647   5.940 -1.1925  2.6265 -1.2396
62063SOL    HW297915   8.832  10.694   5.882  0.4537 -0.4696 -0.2385
62064SOL     OW97916   2.506   2.860   6.210 -0.1253 -0.1287 -0.3115
62064SOL    HW197917   2.478   2.833   6.297 -0.4264  0.7439 -0.1244
62064SOL    HW297918   2.427   2.859   6.157 -0.4508  1.7513  0.0683
62065SOL     OW97919   7.603   1.370   1.719 -0.0768 -0.1078  0.2472
62065SOL    HW197920   7.655   1.435   1.766  0.9800 -1.1971  0.6278
62065SOL    HW297921   7.667   1.321   1.667 -0.6733 -1.6511  0.9218
62066SOL     OW97922   4.786   2.187   0.766 -0.0997 -0.0022 -0.5473
62066SOL    HW197923   4.748   2.101   0.745  0.3665 -0.4206  0.2767
62066SOL    HW297924   4.844   2.170   0.840  0.3743  0.9439 -0.6896
62067SOL     OW97925  13.122   9.446   4.112 -0.4046  0.2884 -0.0890
62067SOL    HW197926  13.058   9.494   4.165 -0.2823 -0.6325  0.9043
62067SOL    HW297927  13.068   9.392   4.054 -0.5290 -0.5099  0.7689
62068SOL     OW97928   7.767   5.741  10.951  0.2625 -0.1110 -0.2058
62068SOL    HW197929   7.860   5.750  10.968 -0.0972  1.1244  1.2719
62068SOL    HW297930   7.743   5.657  10.990  0.8009 -0.5989 -0.8972
62069SOL     OW97931   9.358   8.932   5.690 -0.9015  0.1648  0.2858
62069SOL    HW197932   9.348   8.982   5.609  2.1081 -0.3651 -0.5177
62069SOL    HW297933   9.268   8.910   5.715 -1.9779  0.4202 -2.8431
62070SOL     OW97934   8.357   1.475   7.985  0.3932  0.5143  0.7731
62070SOL    HW197935   8.392   1.388   8.006 -0.7985  0.4642  2.7622
62070SOL    HW297936   8.268   1.473   8.018 -0.3399  1.8407 -0.9930
62071SOL     OW97937  10.433   6.409   7.314  0.0691  0.0621  0.3533
62071SOL    HW197938  10.402   6.438   7.400 -1.3530 -0.4899  0.0582
62071SOL    HW297939  10.470   6.322   7.331 -2.0386 -0.9551  0.1529
62072SOL     OW97940   3.692   3.258  12.471  0.2780  0.0646 -0.4423
62072SOL    HW197941   3.704   3.336  12.526  1.5501  1.0612 -2.0402
62072SOL    HW297942   3.682   3.293  12.383 -0.8545 -1.5393 -0.9972
62073SOL     OW97943   8.234   0.644   5.078 -0.2933  0.3070  0.1453
62073SOL    HW197944   8.320   0.680   5.101 -0.3372 -0.1618  1.1153
62073SOL    HW297945   8.189   0.634   5.162 -2.5223  3.4760 -0.4728
62074SOL     OW97946   2.564   6.095  10.123 -0.0808 -0.1763 -0.4794
62074SOL    HW197947   2.536   6.007  10.147  0.2510  0.1254  1.1363
62074SOL    HW297948   2.659   6.095  10.139 -0.1026  0.5154 -0.3208
62075SOL     OW97949   7.776   7.349   5.693 -0.3452 -0.4199  0.1771
62075SOL    HW197950   7.770   7.307   5.779  2.4673 -0.1522  0.5905
62075SOL    HW297951   7.762   7.278   5.630  0.3289 -1.1698  0.8623
62076SOL     OW97952   7.783   4.496   7.734 -0.4898  0.1299 -0.3681
62076SOL    HW197953   7.731   4.416   7.720  1.1422 -1.2879  1.0867
62076SOL    HW297954   7.869   4.474   7.699  0.1578  1.0240  0.6225
62077SOL     OW97955  11.064   4.532   7.099 -0.0547  0.9680 -0.1011
62077SOL    HW197956  11.104   4.617   7.121  1.7229  0.3542 -0.8174
62077SOL    HW297957  11.134   4.482   7.057 -1.0760 -0.8588  0.2531
62078SOL     OW97958  11.265   2.574   8.590  0.0611 -0.0403 -0.3806
62078SOL    HW197959  11.229   2.490   8.620  1.0977 -0.3376  0.1091
62078SOL    HW297960  11.347   2.550   8.547  0.3529  0.7184 -0.2570
62079SOL     OW97961   2.523   4.322   4.386  0.0769 -0.0409 -0.0498
62079SOL    HW197962   2.590   4.361   4.330 -0.3436  0.4391 -0.2294
62079SOL    HW297963   2.457   4.391   4.395  0.7189  0.3509  2.0531
62080SOL     OW97964   7.177   0.792   4.679  0.6970  0.0682 -0.4511
62080SOL    HW197965   7.119   0.715   4.679  0.2577  0.3615  1.2467
62080SOL    HW297966   7.147   0.844   4.604 -0.3721 -0.4323 -0.3948
62081SOL     OW97967   9.994   7.959   3.067 -0.4477 -0.4071  0.4170
62081SOL    HW197968   9.986   7.866   3.049 -0.4801 -0.5970  1.3544
62081SOL    HW297969   9.949   7.972   3.151  0.2380  0.2992  0.6993
62082SOL     OW97970   2.080   5.135   1.616 -0.1524  0.1150  0.6098
62082SOL    HW197971   2.158   5.124   1.563 -1.0864  0.8513 -1.0033
62082SOL    HW297972   2.058   5.048   1.647  1.0097 -0.1680  0.6601
62083SOL     OW97973   7.502  13.199   3.009 -0.4978  0.0662 -0.0181
62083SOL    HW197974   7.591  13.203   2.973 -0.3121  1.1356  0.5301
62083SOL    HW297975   7.513  13.218   3.102 -1.1920 -0.8376  0.2666
62084SOL     OW97976   0.486   8.955   5.623 -0.4112  0.4044 -0.4129
62084SOL    HW197977   0.563   8.986   5.575 -0.7385  0.2735 -1.0425
62084SOL    HW297978   0.462   9.028   5.680  0.5258  0.2315  0.2291
62085SOL     OW97979   5.664   1.777  10.901  0.7043 -0.1965 -0.0526
62085SOL    HW197980   5.752   1.809  10.883  1.2238 -1.8009 -0.5553
62085SOL    HW297981   5.678   1.696  10.951 -0.4861 -0.4593 -0.1105
62086SOL     OW97982   7.287  12.817  10.184  0.2877  0.4073 -0.2383
62086SOL    HW197983   7.268  12.723  10.192 -0.5121  0.5628 -0.2446
62086SOL    HW297984   7.337  12.823  10.102 -0.7561  0.1230 -0.9310
62087SOL     OW97985   9.863   2.205   5.056 -0.1687  0.1860  0.1137
62087SOL    HW197986   9.879   2.234   4.966  1.3798  0.4460  0.4308
62087SOL    HW297987   9.805   2.272   5.093 -0.3111  0.4121 -0.5101
62088SOL     OW97988   9.589   8.179   5.784 -0.0150 -0.1246  0.1398
62088SOL    HW197989   9.579   8.234   5.862  1.7441 -1.6306  1.5203
62088SOL    HW297990   9.553   8.094   5.810 -1.5691 -0.0342 -1.5422
62089SOL     OW97991   6.869   2.950  13.292  0.0024 -0.5344 -0.0635
62089SOL    HW197992   6.892   2.859  13.311  1.2723 -0.2988 -0.3796
62089SOL    HW297993   6.953   2.996  13.291 -0.7396  0.9959  1.8408
62090SOL     OW97994   4.530  13.490  11.540 -0.2417 -0.6195 -0.3256
62090SOL    HW197995   4.456  13.536  11.500  0.3236  0.6861  0.0537
62090SOL    HW297996   4.490  13.426  11.599 -1.0748 -1.7395 -2.0121
62091SOL     OW97997  13.271   4.877   3.475 -0.1806 -0.1839 -0.0633
62091SOL    HW197998  13.182   4.887   3.440  0.5148  2.0631 -1.4241
62091SOL    HW297999  13.261   4.888   3.569 -1.1837  2.0756 -0.3575
62092SOL     OW98000   5.431  12.443   9.223  0.4946  0.4381  0.1887
62092SOL    HW198001   5.475  12.500   9.286 -0.6490  0.8362  0.6680
62092SOL    HW298002   5.362  12.400   9.274 -0.2069  0.4725 -0.7084
62093SOL     OW98003   8.058   7.032  10.090  0.4428  0.0252 -0.4762
62093SOL    HW198004   8.141   7.075  10.069  0.9161 -0.7074 -0.1386
62093SOL    HW298005   8.046   6.969  10.020  0.8368 -0.7762  0.1597
62094SOL     OW98006   0.707  10.026   1.202 -0.5328 -0.2486  0.0074
62094SOL    HW198007   0.763   9.973   1.146  0.2024  2.3586 -1.9229
62094SOL    HW298008   0.618  10.004   1.175 -0.2465 -0.5503 -0.7009
62095SOL     OW98009  11.277   4.165   0.770 -0.4720 -0.2863 -0.1375
62095SOL    HW198010  11.217   4.199   0.705 -0.1695  0.7132  0.0930
62095SOL    HW298011  11.234   4.086   0.804 -1.1986 -0.1121 -0.6463
62096SOL     OW98012   6.475   4.183   8.161 -0.5432 -0.3240  0.3482
62096SOL    HW198013   6.514   4.104   8.123  0.0477  0.3665 -0.5120
62096SOL    HW298014   6.447   4.155   8.248  1.3847 -1.0177  0.8160
62097SOL     OW98015   4.118   0.602   5.256  0.2705 -0.4213  0.2103
62097SOL    HW198016   4.058   0.565   5.321  0.4078  0.8535  1.0964
62097SOL    HW298017   4.068   0.670   5.212  0.5044 -0.5791 -0.3108
62098SOL     OW98018   2.919  10.255  11.606  0.6937  0.2305  0.4027
62098SOL    HW198019   2.971  10.239  11.685  1.3141  0.4617  0.0460
62098SOL    HW298020   2.966  10.324  11.560 -0.2895  0.9114  0.3870
62099SOL     OW98021  10.320  10.826   7.768 -0.1401  0.4202  0.3900
62099SOL    HW198022  10.323  10.922   7.769 -0.8554  0.4883 -0.9522
62099SOL    HW298023  10.240  10.805   7.720  0.4001 -0.8360 -0.0115
62100SOL     OW98024  10.152   6.081   7.458 -0.3250  0.5926 -1.1349
62100SOL    HW198025  10.230   6.136   7.455  0.0659  0.2303  0.9095
62100SOL    HW298026  10.103   6.112   7.534 -0.2255 -1.6585 -0.0718
62101SOL     OW98027   8.776   7.647   1.709 -0.2176 -0.0369 -0.4539
62101SOL    HW198028   8.851   7.613   1.757 -1.3724  1.1134  2.3699
62101SOL    HW298029   8.765   7.586   1.636  1.4325 -2.1465  0.9350
62102SOL     OW98030  11.259   3.869   9.600 -0.0405 -0.4980  0.1349
62102SOL    HW198031  11.164   3.878   9.590 -0.3111 -2.4775  0.5263
62102SOL    HW298032  11.273   3.859   9.694  0.5644 -0.2414  0.0784
62103SOL     OW98033   9.107   2.818   1.863  0.5315  0.8935  0.4206
62103SOL    HW198034   9.060   2.890   1.906 -0.6686 -0.8786  2.3238
62103SOL    HW298035   9.039   2.770   1.816  0.7791 -0.3867  1.2921
62104SOL     OW98036  10.440   0.203   8.487  0.2803  0.0008 -0.2452
62104SOL    HW198037  10.500   0.209   8.562  0.8821 -0.1912 -0.6999
62104SOL    HW298038  10.367   0.150   8.518  0.2278  0.4447  0.3995
62105SOL     OW98039   1.008   3.547  10.777  0.3933 -0.5331  0.0420
62105SOL    HW198040   1.008   3.641  10.759  1.0630 -0.7992 -1.5594
62105SOL    HW298041   1.101   3.524  10.784  0.2057 -0.7753  2.3460
62106SOL     OW98042  11.058   5.255  11.287 -0.7562  0.3833  0.3110
62106SOL    HW198043  10.966   5.253  11.261 -1.1260  0.3313  1.5725
62106SOL    HW298044  11.081   5.348  11.282 -1.4832  0.6942  1.9249
62107SOL     OW98045   2.624  10.208  11.416 -0.0733  0.3442 -0.1689
62107SOL    HW198046   2.601  10.115  11.423  1.0309  0.0388 -0.4268
62107SOL    HW298047   2.572  10.251  11.484 -0.0516 -0.5687  0.4369
62108SOL     OW98048   6.948   3.992   0.155 -0.3686 -0.5182  0.5453
62108SOL    HW198049   6.907   3.962   0.074 -0.3659  0.3344  0.2252
62108SOL    HW298050   6.983   3.912   0.194 -0.4689 -0.9559 -0.2339
62109SOL     OW98051   3.512   5.055   1.559  0.1950  0.2303 -0.1571
62109SOL    HW198052   3.445   4.994   1.588  1.1788 -1.0196 -0.4308
62109SOL    HW298053   3.497   5.134   1.610 -2.3633  0.5166 -1.2149
62110SOL     OW98054   0.775   2.947  13.292  0.5440 -0.2735  0.9282
62110SOL    HW198055   0.722   2.868  13.295 -1.2252  0.7754 -0.4061
62110SOL    HW298056   0.723   3.013  13.337  0.8368  0.7202 -0.1437
62111SOL     OW98057  11.052   6.494   3.086 -0.2169 -0.2800  0.3419
62111SOL    HW198058  11.113   6.426   3.114 -0.8855 -1.1401 -0.2040
62111SOL    HW298059  11.090   6.530   3.006 -0.3117 -0.6610  0.1231
62112SOL     OW98060   6.035  13.573  10.833  0.6986 -0.3365 -0.3425
62112SOL    HW198061   5.971  13.637  10.802 -0.0615 -0.1232  1.4977
62112SOL    HW298062   5.983  13.510  10.883  1.7324 -1.0923 -0.1825
62113SOL     OW98063   1.737  10.646   7.370 -0.1035 -0.1798  0.8481
62113SOL    HW198064   1.757  10.692   7.451 -1.1018 -0.3439  1.2030
62113SOL    HW298065   1.736  10.715   7.303  1.4769 -0.1473  0.8114
62114SOL     OW98066  11.747  12.417   7.626 -0.5545 -0.4230 -0.5263
62114SOL    HW198067  11.834  12.458   7.624 -1.0080  0.6368  0.2173
62114SOL    HW298068  11.744  12.362   7.548  1.1274 -1.2113 -0.0782
62115SOL     OW98069  13.226   8.424   9.803  0.0748  0.1047 -0.7100
62115SOL    HW198070  13.250   8.465   9.720 -0.5049  1.7096 -0.1234
62115SOL    HW298071  13.140   8.385   9.786 -0.6743  1.6258 -0.5033
62116SOL     OW98072   6.735   2.749   9.036 -0.1245 -0.1784  0.2792
62116SOL    HW198073   6.677   2.824   9.051 -0.1314  0.3181 -1.9417
62116SOL    HW298074   6.799   2.780   8.972  0.2266 -1.9128 -0.2710
62117SOL     OW98075   2.066   9.470   4.967  0.4546  0.3349  0.2861
62117SOL    HW198076   2.008   9.528   5.017 -1.3669 -1.5358  0.4953
62117SOL    HW298077   2.129   9.437   5.032  1.5492  2.0432  0.1492
62118SOL     OW98078   1.741  13.070  10.130 -0.5270 -0.7860 -0.5943
62118SOL    HW198079   1.712  13.082  10.221  2.6123 -0.1797  0.4584
62118SOL    HW298080   1.716  12.981  10.108 -2.8677 -0.3986  0.1876
62119SOL     OW98081  12.147   7.075   4.659 -0.5373 -0.0217 -0.2519
62119SOL    HW198082  12.220   7.016   4.673 -1.0952 -0.2168  2.1703
62119SOL    HW298083  12.135   7.120   4.742 -3.4178 -0.3031 -0.4002
62120SOL     OW98084  12.271   1.426   4.917 -0.2353 -0.1968  0.5959
62120SOL    HW198085  12.361   1.409   4.890  0.1106  2.4395 -0.2309
62120SOL    HW298086  12.271   1.415   5.012  1.1638  0.4489  0.6942
62121SOL     OW98087   1.966   3.131   6.463  0.0622 -0.1868  0.3804
62121SOL    HW198088   1.890   3.166   6.508 -1.6415 -0.5826 -1.9827
62121SOL    HW298089   1.987   3.050   6.509 -1.3824 -0.4112  0.6812
62122SOL     OW98090   9.657  11.253   8.202  0.1018 -0.6253 -0.1430
62122SOL    HW198091   9.727  11.205   8.157  0.3141  0.6882 -1.2814
62122SOL    HW298092   9.680  11.345   8.190 -0.9670 -0.1989  0.8903
62123SOL     OW98093   7.090  12.304   1.568  0.5182  0.0028 -0.2876
62123SOL    HW198094   7.039  12.275   1.492  0.0261  0.5930 -0.1860
62123SOL    HW298095   7.181  12.285   1.544  0.4146  0.5908 -1.2117
62124SOL     OW98096   9.043   4.378  12.675 -0.4736 -0.8818 -0.0650
62124SOL    HW198097   9.098   4.431  12.619  0.1201  0.3310  1.5952
62124SOL    HW298098   8.980   4.337  12.616 -0.4424  1.0285 -1.5035
62125SOL     OW98099   6.591   6.455  10.194 -0.0633 -0.0038 -0.0317
62125SOL    HW198100   6.601   6.495  10.280 -0.7063 -2.7227  1.4001
62125SOL    HW298101   6.502   6.476  10.168 -0.0012  0.4766  0.1217
62126SOL     OW98102   5.596  13.463   3.027 -0.7227 -0.3296 -0.6378
62126SOL    HW198103   5.609  13.533   3.092 -1.1149 -0.4043 -0.4780
62126SOL    HW298104   5.504  13.440   3.035 -0.6654 -0.6510 -0.9109
62127SOL     OW98105   7.789   8.367   6.464 -0.1366  0.4373  0.0768
62127SOL    HW198106   7.703   8.351   6.426 -0.9550 -0.7598  2.2816
62127SOL    HW298107   7.813   8.285   6.506  1.8840  0.9102 -0.0341
62128SOL     OW98108   6.164  10.648   4.889 -0.0773 -0.2824  0.6032
62128SOL    HW198109   6.254  10.641   4.921 -0.0028 -0.6837  0.3131
62128SOL    HW298110   6.115  10.582   4.938 -0.0979 -0.4418  0.3717
62129SOL     OW98111   4.109  10.766   7.367 -0.0684 -0.7126 -0.5371
62129SOL    HW198112   4.158  10.826   7.310  1.6844 -2.1950 -0.6811
62129SOL    HW298113   4.163  10.759   7.446 -0.6029 -1.5479 -0.2321
62130SOL     OW98114   9.069   9.044  13.268 -0.1560  0.7983  0.5124
62130SOL    HW198115   9.135   9.092  13.218 -1.6536  1.2319 -1.1543
62130SOL    HW298116   9.116   8.970  13.306  1.3345  1.2508 -0.3713
62131SOL     OW98117   8.613  13.704  13.418  0.3327  0.7278  0.0750
62131SOL    HW198118   8.621  13.712  13.323 -1.8640  2.0494 -0.0657
62131SOL    HW298119   8.533  13.653  13.431  0.4715  0.7796  1.2355
62132SOL     OW98120   7.533   9.040  11.084  0.2004  0.4441  0.2134
62132SOL    HW198121   7.506   9.016  11.173 -0.4645 -1.8341 -0.5443
62132SOL    HW298122   7.521   8.960  11.033 -0.2641  1.9290 -2.1340
62133SOL     OW98123   6.417   3.773   8.013  0.2967 -0.0659  0.3686
62133SOL    HW198124   6.468   3.854   8.011 -1.0618  0.8215  0.1230
62133SOL    HW298125   6.328   3.801   7.992 -0.2834 -1.5715  0.7284
62134SOL     OW98126  10.779   0.860   9.441 -0.0918  0.0999 -0.0526
62134SOL    HW198127  10.866   0.899   9.437 -0.9111  2.0946  0.1092
62134SOL    HW298128  10.719   0.935   9.442 -1.8816 -1.2034 -1.5935
62135SOL     OW98129   8.917  11.808   1.539  0.2232  0.4352 -0.4919
62135SOL    HW198130   8.865  11.740   1.582 -0.1939  0.9531 -0.1655
62135SOL    HW298131   8.857  11.848   1.475  0.2667  0.9078 -0.2456
62136SOL     OW98132   1.655   6.779  10.892  0.1403  0.5152  0.4404
62136SOL    HW198133   1.674   6.866  10.857 -0.8595  1.2583  1.6599
62136SOL    HW298134   1.664   6.789  10.987 -0.3866 -0.6071  0.6265
62137SOL     OW98135   0.252   4.986   4.394 -0.7427 -0.2815 -0.0565
62137SOL    HW198136   0.292   4.903   4.418 -2.3568 -0.4903  2.1447
62137SOL    HW298137   0.300   5.051   4.445 -0.6335 -0.0376 -0.4587
62138SOL     OW98138   7.792  10.345  13.521 -0.4000 -0.2929 -0.3759
62138SOL    HW198139   7.755  10.321  13.436  0.5274 -1.5765 -0.4330
62138SOL    HW298140   7.880  10.308  13.521 -0.4324 -0.4255  1.1964
62139SOL     OW98141  10.629  10.622   7.389 -0.2034  0.3196  0.1442
62139SOL    HW198142  10.607  10.678   7.463  1.2325  0.0450  0.8263
62139SOL    HW298143  10.579  10.657   7.316  0.8520  2.6968  0.4841
62140SOL     OW98144   7.233   0.476  13.328 -0.0310  0.2439  0.4814
62140SOL    HW198145   7.188   0.558  13.305  0.6353  0.3333 -0.5591
62140SOL    HW298146   7.247   0.483  13.422  1.7776  2.2638  0.1454
62141SOL     OW98147   7.384   7.090   4.782 -0.2458 -0.3788 -0.1737
62141SOL    HW198148   7.363   7.020   4.720 -0.0931  0.0395 -0.7046
62141SOL    HW298149   7.327   7.074   4.857 -2.5152  0.7476 -1.5676
62142SOL     OW98150   3.107   2.184   5.327 -0.2346 -0.6713 -0.1562
62142SOL    HW198151   3.024   2.194   5.279  0.5994  1.1603 -1.3111
62142SOL    HW298152   3.081   2.185   5.419 -1.4239  1.3157 -0.4380
62143SOL     OW98153   2.333   4.729   5.444  0.2363  0.7252  0.1695
62143SOL    HW198154   2.408   4.761   5.493  0.3172 -0.3406  0.7802
62143SOL    HW298155   2.343   4.633   5.444  0.4660  0.6783 -2.3099
62144SOL     OW98156   2.265   4.220  10.900 -0.0501 -0.2016  0.0000
62144SOL    HW198157   2.210   4.178  10.966  0.3256  0.0750  0.4884
62144SOL    HW298158   2.246   4.313  10.908  0.3114 -0.1277  0.0020
62145SOL     OW98159   2.706   1.499   7.055  0.7383  0.5322 -0.4663
62145SOL    HW198160   2.663   1.471   6.974 -0.1645  0.4374  0.0331
62145SOL    HW298161   2.775   1.434   7.069 -0.7338 -0.9641  0.1736
62146SOL     OW98162   9.090  11.900  10.787 -0.2952 -0.2837  0.1393
62146SOL    HW198163   9.147  11.835  10.827 -1.1103 -1.0364  0.0945
62146SOL    HW298164   9.038  11.935  10.860 -1.2246 -1.0892 -0.1299
62147SOL     OW98165  12.809   6.031   5.718  0.1560 -0.3395  0.2057
62147SOL    HW198166  12.727   5.985   5.733 -1.0342  1.1237 -1.3785
62147SOL    HW298167  12.832   6.069   5.803 -1.5187  0.2919  0.4004
62148SOL     OW98168   4.619  11.521  10.740  0.1040  0.1729 -0.1301
62148SOL    HW198169   4.595  11.562  10.823 -1.2153 -1.5940  0.4290
62148SOL    HW298170   4.672  11.586  10.695 -0.5267  1.8139  1.3942
62149SOL     OW98171   3.074   9.036  10.272 -0.2119 -0.2828 -0.6480
62149SOL    HW198172   3.074   8.995  10.186  1.2844  2.2979 -1.9983
62149SOL    HW298173   2.987   9.074  10.281 -0.4727 -0.8173 -0.8780
62150SOL     OW98174   1.320   0.163   4.398  0.1657  0.2159  0.0114
62150SOL    HW198175   1.409   0.194   4.413 -0.5647  0.8852  4.0473
62150SOL    HW298176   1.316   0.079   4.443 -0.4692 -1.4668 -2.9047
62151SOL     OW98177  11.525   0.938  13.155  0.3486  0.9198 -0.1483
62151SOL    HW198178  11.503   1.004  13.090 -0.4085  1.2862  0.4731
62151SOL    HW298179  11.537   0.857  13.105  0.6281  1.3833 -0.8304
62152SOL     OW98180   0.441   6.374  10.917 -0.2579 -0.4299 -0.0404
62152SOL    HW198181   0.388   6.328  10.852  1.1194 -2.8792  0.4481
62152SOL    HW298182   0.386   6.376  10.996 -1.1893  0.8337 -0.6931
62153SOL     OW98183   3.482   7.009   7.333  0.5028  0.4836 -0.0697
62153SOL    HW198184   3.412   6.981   7.392 -0.3575  0.3051 -1.1362
62153SOL    HW298185   3.557   6.956   7.358  0.7645  1.7958  2.1581
62154SOL     OW98186   2.079   4.366  12.576  0.1616 -0.6896 -0.0253
62154SOL    HW198187   2.082   4.339  12.668  1.6876 -0.2190  0.0930
62154SOL    HW298188   1.986   4.381  12.558 -0.1711 -0.9249  1.3961
62155SOL     OW98189   7.616   1.459   6.366  0.2235 -0.3888 -0.5063
62155SOL    HW198190   7.619   1.550   6.338 -2.4516 -0.0349  0.1095
62155SOL    HW298191   7.703   1.442   6.403  1.3945  1.2906 -2.2934
62156SOL     OW98192   2.055   4.201   2.096 -0.2240  0.0341  0.5819
62156SOL    HW198193   2.146   4.210   2.067 -0.2456 -1.3607  0.0558
62156SOL    HW298194   2.062   4.190   2.191  0.2008 -0.6088  0.4804
62157SOL     OW98195   7.292  12.065   9.930 -0.2704  0.1699  0.0311
62157SOL    HW198196   7.260  12.104   9.848 -1.0220  0.0646  0.2662
62157SOL    HW298197   7.213  12.052   9.982 -0.4862 -4.1059 -1.0298
62158SOL     OW98198   1.929  10.939   2.866  0.1994  0.0864  0.7164
62158SOL    HW198199   2.018  10.969   2.885  0.5563 -0.8524  0.5565
62158SOL    HW298200   1.936  10.897   2.780 -0.6736  1.1644  0.1011
62159SOL     OW98201   6.788   0.674   0.208 -0.4564 -0.1782  0.3591
62159SOL    HW198202   6.842   0.628   0.272  1.0790  0.0964 -0.6834
62159SOL    HW298203   6.758   0.753   0.253  1.0195  0.2670  0.6157
62160SOL     OW98204   0.854   2.820   1.064  0.3925 -0.2339 -0.0957
62160SOL    HW198205   0.841   2.730   1.032  3.1898 -0.4975 -0.7004
62160SOL    HW298206   0.826   2.875   0.991  4.0997 -0.7915 -2.1595
62161SOL     OW98207   1.566  13.154   9.534  0.6095  0.5210 -0.1052
62161SOL    HW198208   1.487  13.139   9.588 -0.2251 -3.5823 -2.0836
62161SOL    HW298209   1.561  13.246   9.511 -3.8445  0.4865 -0.2746
62162SOL     OW98210   9.510   8.659   4.117 -0.5980 -0.0335  0.1413
62162SOL    HW198211   9.549   8.603   4.050  1.0402 -0.9718  1.7908
62162SOL    HW298212   9.415   8.649   4.104 -0.3822  0.8898 -2.8409
62163SOL     OW98213   2.345   9.492  11.156 -0.0579  0.0259  0.4724
62163SOL    HW198214   2.278   9.525  11.096 -1.2012  1.4505  2.4090
62163SOL    HW298215   2.348   9.398  11.140 -0.6377  0.2889 -1.4571
62164SOL     OW98216  13.142  11.214   4.712  0.0120 -0.3559 -0.3972
62164SOL    HW198217  13.093  11.157   4.652 -0.5894 -0.3710  0.0984
62164SOL    HW298218  13.118  11.184   4.799  0.0909  0.3180 -0.1361
62165SOL     OW98219   3.929  12.290  11.123 -0.4121  0.8481 -0.7714
62165SOL    HW198220   3.896  12.239  11.049 -0.1008  1.2155 -1.1743
62165SOL    HW298221   3.881  12.373  11.118 -0.5920  0.7686 -0.3926
62166SOL     OW98222   5.816   6.744   5.787  0.3186 -0.4724 -0.0327
62166SOL    HW198223   5.732   6.708   5.759  0.5743 -0.5595 -0.6973
62166SOL    HW298224   5.830   6.819   5.729  0.4875 -0.1875  0.3735
62167SOL     OW98225  12.622  12.759   1.088 -0.0938 -0.3779 -0.1260
62167SOL    HW198226  12.600  12.850   1.107  0.8671 -0.3467  0.9541
62167SOL    HW298227  12.575  12.739   1.007  0.2679  1.2953 -0.7781
62168SOL     OW98228  12.823   2.827  12.567  0.2699 -0.3643  0.2246
62168SOL    HW198229  12.856   2.896  12.509  1.5216 -1.8867 -0.9773
62168SOL    HW298230  12.780   2.765  12.508 -1.6421 -0.2258  1.3796
62169SOL     OW98231   3.730   0.434   2.664 -0.0367  0.1500  0.1728
62169SOL    HW198232   3.641   0.400   2.675  0.1190  0.1131  1.3793
62169SOL    HW298233   3.787   0.358   2.673  0.1743  0.3277  0.3367
62170SOL     OW98234   9.650   2.819   0.946 -0.0504 -0.2103  0.0337
62170SOL    HW198235   9.634   2.873   1.023 -2.0308 -2.2591  1.2034
62170SOL    HW298236   9.735   2.847   0.913  0.5032  1.2689  2.5147
62171SOL     OW98237   3.758   4.648   8.327  0.0807 -0.1108  0.1227
62171SOL    HW198238   3.836   4.654   8.383 -0.5656 -1.7639  1.2808
62171SOL    HW298239   3.792   4.650   8.238  1.3841 -0.0655  0.6015
62172SOL     OW98240  10.699   6.259   7.578 -0.2225 -0.5925  0.6240
62172SOL    HW198241  10.626   6.303   7.622 -1.1127 -1.2164 -0.1880
62172SOL    HW298242  10.758   6.331   7.555 -1.8585  0.3168 -1.0718
62173SOL     OW98243  11.034  13.663  11.408 -0.2753 -0.0995  0.1197
62173SOL    HW198244  11.001  13.724  11.473 -0.4601 -0.9545  0.8512
62173SOL    HW298245  11.003  13.577  11.437 -0.1046 -0.5365 -0.9316
62174SOL     OW98246   7.941  12.250   5.397  0.1908 -0.0834 -1.1091
62174SOL    HW198247   7.855  12.279   5.366  1.0136  0.6381 -2.7943
62174SOL    HW298248   7.946  12.158   5.373 -0.2739 -0.2447 -0.6054
62175SOL     OW98249   3.838  10.948  12.173  0.7838  0.2367  0.8119
62175SOL    HW198250   3.906  10.942  12.240  1.7735  0.8251 -0.1104
62175SOL    HW298251   3.802  10.859  12.168 -0.5759  0.5329  3.3547
62176SOL     OW98252  10.818   6.194   1.135  0.1827 -0.2498 -0.2123
62176SOL    HW198253  10.856   6.154   1.057  0.7017 -0.1713 -0.0001
62176SOL    HW298254  10.883   6.180   1.204  0.2048  0.6122 -0.0449
62177SOL     OW98255   2.593   6.221  10.993  0.0938 -0.1619  0.3419
62177SOL    HW198256   2.524   6.210  10.927  0.5683 -0.9572 -0.0349
62177SOL    HW298257   2.673   6.227  10.942  0.3901 -0.0484  0.8178
62178SOL     OW98258   7.650   7.317   5.022  0.4427  1.1385  0.0480
62178SOL    HW198259   7.590   7.365   5.078 -0.4493  0.4648 -0.3023
62178SOL    HW298260   7.626   7.342   4.933 -0.6837 -0.5925 -0.2011
62179SOL     OW98261   9.586  11.180   7.280  0.0918  0.5767 -0.0072
62179SOL    HW198262   9.541  11.122   7.219 -1.9006 -0.5908  2.3844
62179SOL    HW298263   9.677  11.149   7.281 -0.2362 -0.4708 -1.0763
62180SOL     OW98264   7.628   0.366  11.119 -0.2395  0.9565  0.4261
62180SOL    HW198265   7.594   0.446  11.078 -0.1092 -0.4300 -2.6381
62180SOL    HW298266   7.571   0.297  11.088  1.5905 -0.5807  0.2860
62181SOL     OW98267   8.891  12.465   5.270 -0.3868 -0.3784  0.2471
62181SOL    HW198268   8.938  12.381   5.273 -0.6853 -0.5723 -0.4118
62181SOL    HW298269   8.845  12.464   5.187  1.8472  1.6396 -1.1529
62182SOL     OW98270  12.504  13.009   3.898  0.4238 -0.8697 -0.4712
62182SOL    HW198271  12.552  12.989   3.817 -0.2932 -1.0427 -0.8675
62182SOL    HW298272  12.412  13.002   3.873  0.1239  1.5260 -0.2665
62183SOL     OW98273   6.184   6.422  10.802  0.3591  0.2751 -0.3155
62183SOL    HW198274   6.205   6.451  10.890  2.5092 -1.6249 -0.1114
62183SOL    HW298275   6.196   6.327  10.804 -1.8181 -0.1284 -2.0912
62184SOL     OW98276   0.051   6.413   1.978 -0.0816  0.4472  0.4403
62184SOL    HW198277  -0.034   6.434   2.018 -0.2879  1.8498 -0.6684
62184SOL    HW298278   0.098   6.496   1.977  1.9738 -0.5894  2.4507
62185SOL     OW98279   8.736   9.425   1.548  0.2009  0.8182 -0.0753
62185SOL    HW198280   8.715   9.511   1.585 -4.7434 -0.1276  0.0442
62185SOL    HW298281   8.733   9.437   1.454  0.2729  0.9386 -0.0615
62186SOL     OW98282  11.758   0.396   7.509 -0.1943 -0.1311  0.2533
62186SOL    HW198283  11.834   0.360   7.556 -0.1101  1.2512  1.2516
62186SOL    HW298284  11.690   0.329   7.519 -0.0621 -0.0416  2.0799
62187SOL     OW98285   1.326   4.056  12.581 -0.0329  1.5237  0.4816
62187SOL    HW198286   1.354   4.141  12.615 -1.4934  1.4449  2.0041
62187SOL    HW298287   1.390   3.994  12.617  0.7119  1.8814 -0.1831
62188SOL     OW98288   8.940   7.304   7.510 -0.0844  0.1134 -0.7338
62188SOL    HW198289   8.910   7.281   7.598  0.6271 -0.0441 -0.5243
62188SOL    HW298290   8.866   7.283   7.453 -1.0188  1.3580 -0.0435
62189SOL     OW98291   0.536  12.315   6.353  0.9633 -0.5394 -0.3900
62189SOL    HW198292   0.571  12.278   6.273  1.0578 -1.6712  0.1587
62189SOL    HW298293   0.587  12.395   6.367 -0.2376  0.6608 -2.3703
62190SOL     OW98294   3.235  11.431   5.172 -0.2597  0.4160  0.0275
62190SOL    HW198295   3.236  11.338   5.194  0.3704 -0.2705 -2.6042
62190SOL    HW298296   3.318  11.464   5.206  0.7193 -0.6103 -1.2570
62191SOL     OW98297   2.405  13.171   4.635 -0.5352  0.3492  0.1742
62191SOL    HW198298   2.438  13.128   4.714 -0.6364  1.6850  0.9780
62191SOL    HW298299   2.327  13.122   4.612  0.6017 -1.3364 -0.3278
62192SOL     OW98300   2.767   7.194   6.632  0.1506 -0.0927  0.1947
62192SOL    HW198301   2.829   7.221   6.565  0.4470 -1.0564  0.0672
62192SOL    HW298302   2.745   7.104   6.610 -1.5199  0.3124  0.0659
62193SOL     OW98303  10.100   5.097   6.842 -0.1688 -0.6573 -0.3908
62193SOL    HW198304  10.114   5.067   6.932  0.1859  1.1319  0.1832
62193SOL    HW298305  10.088   5.016   6.791 -0.6828 -1.6812  1.2983
62194SOL     OW98306  12.219  13.675  11.488 -0.1550 -0.1735 -0.1942
62194SOL    HW198307  12.245  13.602  11.545  0.1409 -0.9217 -1.2546
62194SOL    HW298308  12.301  13.717  11.465 -0.3720  0.8991  0.9023
62195SOL     OW98309   5.404   9.864  11.890  0.8640  0.2986  0.0995
62195SOL    HW198310   5.388   9.951  11.927 -0.2437  0.0396  0.2623
62195SOL    HW298311   5.321   9.818  11.901  1.5662 -0.9316  0.4129
62196SOL     OW98312   2.664   1.972   0.852  0.3146 -0.3033  0.2079
62196SOL    HW198313   2.745   1.985   0.802  0.7394  1.4290  1.2545
62196SOL    HW298314   2.612   2.050   0.835 -1.2282 -1.4528 -0.5479
62197SOL     OW98315   3.560   5.907  12.000  0.8194  0.8676  0.4142
62197SOL    HW198316   3.538   5.986  11.950 -0.7669 -0.1390 -0.5416
62197SOL    HW298317   3.509   5.915  12.081  0.8046  0.9113  0.4004
62198SOL     OW98318   9.580   9.588   0.814  0.1681 -0.1967  0.1992
62198SOL    HW198319   9.486   9.604   0.806 -0.1308 -1.7619  0.1961
62198SOL    HW298320   9.621   9.652   0.756 -0.9016  0.3730  0.0533
62199SOL     OW98321   0.579   3.464   1.843  0.2991 -0.7343  0.1870
62199SOL    HW198322   0.612   3.387   1.890  0.2418 -1.7089 -1.3287
62199SOL    HW298323   0.637   3.473   1.768  0.9537  1.3558  0.8566
62200SOL     OW98324   7.461   2.056   6.575  0.1207 -0.6467 -0.1321
62200SOL    HW198325   7.418   2.040   6.659 -1.3844 -1.0349 -0.9338
62200SOL    HW298326   7.422   2.137   6.542  1.5444  0.1422  0.0455
62201SOL     OW98327   7.426   4.004   6.508  0.0063 -0.0176  0.3019
62201SOL    HW198328   7.446   3.950   6.583  0.3839  1.8233  1.6031
62201SOL    HW298329   7.499   3.991   6.448  0.4343 -0.3994  0.9017
62202SOL     OW98330  12.606  11.364   0.743  0.4297 -0.4897 -0.7612
62202SOL    HW198331  12.672  11.432   0.729 -0.4059  0.4667 -0.2280
62202SOL    HW298332  12.558  11.361   0.660 -0.9848  1.2471 -0.0899
62203SOL     OW98333   3.039   6.503   4.298  0.0570  0.1721  0.4339
62203SOL    HW198334   2.998   6.430   4.345 -0.2785  0.8144  1.1548
62203SOL    HW298335   3.127   6.471   4.277 -0.0251 -0.3738  0.8863
62204SOL     OW98336  11.076   3.867   3.810 -0.5332  0.6712  0.1744
62204SOL    HW198337  11.168   3.840   3.807 -1.1967 -1.8712  0.4871
62204SOL    HW298338  11.048   3.863   3.718 -0.7621 -0.3825  0.2704
62205SOL     OW98339   1.726   2.003   4.133 -0.2507  0.6090  0.1756
62205SOL    HW198340   1.730   1.993   4.038 -1.6142 -1.6636  0.3040
62205SOL    HW298341   1.633   2.008   4.153  0.0020  0.6654  1.4551
62206SOL     OW98342  11.081  11.705   2.581 -0.0075 -0.1534 -0.1288
62206SOL    HW198343  11.157  11.750   2.618  0.1303 -0.1650 -0.3969
62206SOL    HW298344  11.034  11.671   2.658  1.0535 -1.4339 -0.0023
62207SOL     OW98345   1.268   6.489   4.659  0.1739 -0.0478 -0.3522
62207SOL    HW198346   1.181   6.506   4.621 -0.2507  0.3501  0.7576
62207SOL    HW298347   1.309   6.575   4.663 -0.6071  0.2793  1.9989
62208SOL     OW98348   2.969   1.094  13.490 -0.4558 -0.0677  0.1598
62208SOL    HW198349   2.909   1.051  13.430  1.3041  1.4536 -2.9074
62208SOL    HW298350   3.023   1.023  13.525 -1.1322 -0.9380 -0.5054
62209SOL     OW98351  12.884   6.878   3.263  0.4056 -0.3799 -0.3088
62209SOL    HW198352  12.831   6.859   3.186  0.2538  1.5750 -0.7315
62209SOL    HW298353  12.919   6.966   3.248  2.7923 -1.1135  0.5095
62210SOL     OW98354   0.902   7.831  13.377  0.2762  0.4374 -0.2801
62210SOL    HW198355   0.857   7.758  13.334  1.3416 -0.4524  0.0587
62210SOL    HW298356   0.833   7.895  13.393 -0.8670 -0.8426  0.1755
62211SOL     OW98357  11.089   2.580   5.474  0.2509 -0.2585 -0.4222
62211SOL    HW198358  11.167   2.548   5.518 -0.3605 -0.2964  0.6703
62211SOL    HW298359  11.105   2.561   5.381  0.4298 -2.7321  0.0229
62212SOL     OW98360  12.769   7.058   4.671 -0.1092 -0.0090  0.3542
62212SOL    HW198361  12.855   7.020   4.654 -0.3674  0.1119 -1.4444
62212SOL    HW298362  12.787   7.147   4.700  0.3799  0.5788 -1.6155
62213SOL     OW98363   4.407   0.347   4.682  0.3018 -0.4285  0.8849
62213SOL    HW198364   4.416   0.351   4.777 -0.1338  2.1818  0.8899
62213SOL    HW298365   4.438   0.432   4.652  0.2858 -1.1458 -1.3204
62214SOL     OW98366   0.905  10.822  10.971  0.5678 -0.3864 -0.4801
62214SOL    HW198367   0.817  10.799  10.940 -0.3764 -0.0595  1.7793
62214SOL    HW298368   0.942  10.740  11.003  0.7584 -0.3734 -0.6651
62215SOL     OW98369   8.421   4.814   6.259 -0.1660 -0.4048 -0.5090
62215SOL    HW198370   8.440   4.761   6.336 -0.6374 -0.2358 -0.2659
62215SOL    HW298371   8.365   4.885   6.292  0.1134  0.0079 -0.9008
62216SOL     OW98372   3.778   0.800   5.550 -0.1719 -0.4598  0.2184
62216SOL    HW198373   3.756   0.807   5.643 -0.5688 -1.8052  0.2547
62216SOL    HW298374   3.765   0.707   5.530  1.7055 -0.5680 -0.7313
62217SOL     OW98375   4.408   5.222   6.202 -0.1633 -1.2123 -0.0740
62217SOL    HW198376   4.412   5.133   6.167 -1.3863 -0.9664 -0.9165
62217SOL    HW298377   4.442   5.214   6.291  0.0244 -2.4608 -0.2354
62218SOL     OW98378   9.304  10.924  13.259 -0.4106  0.0134  0.2278
62218SOL    HW198379   9.302  10.913  13.354  1.3007  0.1771  0.3191
62218SOL    HW298380   9.397  10.930  13.238 -0.8061  2.3807 -1.1773
62219SOL     OW98381  11.847   2.786   2.857  0.0151  0.5041  0.1349
62219SOL    HW198382  11.807   2.750   2.937  1.1286  0.3924  0.6511
62219SOL    HW298383  11.780   2.774   2.790 -0.3721 -0.7891  0.7151
62220SOL     OW98384   5.560   4.625  10.408  0.0446 -0.0057  0.4041
62220SOL    HW198385   5.483   4.591  10.363 -0.0370 -0.8447  1.1568
62220SOL    HW298386   5.620   4.651  10.338 -0.0161 -1.4130 -0.1967
62221SOL     OW98387   5.005   5.174  12.035  0.5424  0.3840  0.1350
62221SOL    HW198388   5.055   5.104  11.995  2.8931  1.9274  0.1742
62221SOL    HW298389   5.030   5.253  11.987 -1.3603  1.3509  0.6241
62222SOL     OW98390   6.489   8.963  12.937 -0.0674 -0.0250  0.0185
62222SOL    HW198391   6.575   8.934  12.907  0.2148 -0.6577  1.3655
62222SOL    HW298392   6.498   9.058  12.946 -0.6481  0.4580 -3.3122
62223SOL     OW98393   2.531  11.704  10.917 -0.4197  0.2630  0.3522
62223SOL    HW198394   2.626  11.697  10.904 -0.5392  0.0480 -0.5104
62223SOL    HW298395   2.520  11.780  10.974  0.1601  2.2354 -1.9690
62224SOL     OW98396  11.764  12.499  11.377  0.0981  0.0685 -0.0524
62224SOL    HW198397  11.716  12.561  11.323  0.4345  0.6154  0.2701
62224SOL    HW298398  11.698  12.439  11.409 -0.2544  0.3565 -0.2367
62225SOL     OW98399  13.665   5.021   0.886 -0.3029 -0.1713  0.2092
62225SOL    HW198400  13.618   4.950   0.931  3.1208 -2.6062  0.3578
62225SOL    HW298401  13.630   5.020   0.797 -0.1060 -2.3719  0.1052
62226SOL     OW98402  10.726   1.796  12.078 -0.1676 -0.1863 -0.2808
62226SOL    HW198403  10.786   1.784  12.004  1.1047 -0.3166  0.7356
62226SOL    HW298404  10.731   1.889  12.098  0.1807 -0.3062  0.1983
62227SOL     OW98405   5.119   7.711   7.384 -0.5200  0.5624  0.3524
62227SOL    HW198406   5.046   7.659   7.351  1.1447 -1.5535 -0.2187
62227SOL    HW298407   5.135   7.777   7.317 -1.5225  0.6919  0.2271
62228SOL     OW98408  11.187  13.003   1.036 -0.3794  0.5525  0.0042
62228SOL    HW198409  11.268  13.046   1.010 -0.8334 -0.2721 -3.1917
62228SOL    HW298410  11.200  12.982   1.129  2.1028  2.4047  0.1841
62229SOL     OW98411  13.112  13.449   4.122 -0.0082 -0.1382 -0.0563
62229SOL    HW198412  13.051  13.380   4.098 -0.2201 -0.0465  0.2156
62229SOL    HW298413  13.070  13.494   4.196  0.4727 -0.1967  0.2574
62230SOL     OW98414   6.041   6.042  10.893 -0.5779 -0.3986 -0.6645
62230SOL    HW198415   6.032   5.987  10.972 -0.3185  0.5670  0.0527
62230SOL    HW298416   5.976   6.111  10.904 -0.6896 -0.3826 -1.4098
62231SOL     OW98417   7.717   3.838   9.702 -0.1266 -0.6280 -0.4042
62231SOL    HW198418   7.623   3.855   9.700  0.1233  0.8653  0.0303
62231SOL    HW298419   7.740   3.821   9.610 -0.5431  0.5754 -0.7398
62232SOL     OW98420   3.690   5.113   7.344 -0.5374 -0.1084  0.6964
62232SOL    HW198421   3.727   5.029   7.316 -0.2500 -0.3095  1.6520
62232SOL    HW298422   3.601   5.112   7.309 -0.4293 -0.6709  0.4163
62233SOL     OW98423  13.232  10.884   2.825  0.6191  0.9648  0.0715
62233SOL    HW198424  13.153  10.922   2.863  1.4654  1.2991  1.5851
62233SOL    HW298425  13.303  10.915   2.881  1.3740 -2.9114  1.5765
62234SOL     OW98426   6.106   2.911   5.906 -0.3053 -0.4241  0.3319
62234SOL    HW198427   6.139   2.982   5.851  3.0643 -0.7120  1.7019
62234SOL    HW298428   6.031   2.949   5.953 -0.3680  1.2508 -1.0432
62235SOL     OW98429   0.863  11.886   4.436 -0.2424 -0.2366  0.5044
62235SOL    HW198430   0.936  11.854   4.489  1.9302 -2.6689 -3.4070
62235SOL    HW298431   0.891  11.972   4.406 -0.6268  0.3241  1.6940
62236SOL     OW98432   0.506   2.860   0.030 -0.6253 -0.5221 -0.1159
62236SOL    HW198433   0.473   2.771   0.037  0.0632 -0.9385 -1.6097
62236SOL    HW298434   0.429   2.916   0.042 -1.4359 -1.3864 -1.1508
62237SOL     OW98435   9.609   7.367   8.401 -0.3147 -0.3148  0.2320
62237SOL    HW198436   9.653   7.329   8.477  0.6492 -0.3900 -0.3508
62237SOL    HW298437   9.522   7.327   8.401  0.0262 -1.0767  0.7213
62238SOL     OW98438  13.065   0.956  12.877 -0.3852 -0.0731  0.2334
62238SOL    HW198439  13.104   0.952  12.964 -1.4548 -2.3730  0.6794
62238SOL    HW298440  12.987   1.011  12.888  1.2076  2.3947 -0.0918
62239SOL     OW98441   2.780  12.783   0.356 -0.2286 -0.7484  0.7069
62239SOL    HW198442   2.873  12.774   0.377 -0.0625 -0.5847  0.0452
62239SOL    HW298443   2.740  12.812   0.438  0.2936 -0.8788  1.0114
62240SOL     OW98444   2.557   7.416  10.586 -0.5966 -0.4537 -0.1679
62240SOL    HW198445   2.540   7.508  10.603  1.7810  0.0751 -0.3484
62240SOL    HW298446   2.647   7.402  10.614 -1.0956 -2.9076  0.4608
62241SOL     OW98447   1.525   9.604   8.544 -0.7317 -0.9096  0.2429
62241SOL    HW198448   1.520   9.555   8.626 -1.4089  0.0485  0.7930
62241SOL    HW298449   1.572   9.684   8.566 -0.6622 -0.7760 -0.3745
62242SOL     OW98450   3.315   2.396  13.186 -0.2261  1.0902 -0.0110
62242SOL    HW198451   3.398   2.366  13.147 -2.0954 -0.8223 -2.8667
62242SOL    HW298452   3.309   2.348  13.269 -0.0486 -1.5142 -1.4210
62243SOL     OW98453   4.691   5.952   8.330  0.6995  0.2505 -0.1426
62243SOL    HW198454   4.714   5.910   8.413 -0.5371 -1.0282 -0.4233
62243SOL    HW298455   4.766   5.934   8.273  0.3890 -1.2457 -0.1222
62244SOL     OW98456  10.271   9.300   2.811 -0.1045 -0.5127 -0.4472
62244SOL    HW198457  10.213   9.323   2.738 -0.4946  1.0595  0.3044
62244SOL    HW298458  10.293   9.208   2.796 -0.9646 -0.5114 -1.9932
62245SOL     OW98459   1.728  11.283  11.923 -0.5811 -0.0992  0.2908
62245SOL    HW198460   1.722  11.373  11.891  1.6999  0.0724  0.1449
62245SOL    HW298461   1.652  11.272  11.980 -1.7060  1.4109 -0.8383
62246SOL     OW98462   0.824   8.243  10.714  0.5672 -0.0089 -0.7356
62246SOL    HW198463   0.747   8.187  10.724  0.0533  0.9159  0.9347
62246SOL    HW298464   0.791   8.323  10.673  0.4701  0.6499  0.5716
62247SOL     OW98465   4.305   1.897  12.039  0.4985 -0.0262  0.1210
62247SOL    HW198466   4.384   1.847  12.060  0.0665 -0.3431  1.0564
62247SOL    HW298467   4.285   1.873  11.949  1.9025  0.6518 -0.4057
62248SOL     OW98468   2.909   1.663   9.017  0.5784 -0.3223  0.2627
62248SOL    HW198469   2.958   1.643   8.938  0.9146 -0.0638  0.4068
62248SOL    HW298470   2.824   1.621   9.003  0.4822  0.0920 -0.4205
62249SOL     OW98471   1.345   7.936   8.861 -0.3058 -0.0505  0.2818
62249SOL    HW198472   1.437   7.915   8.877  0.0806  1.4525  0.1802
62249SOL    HW298473   1.305   7.935   8.947  0.0469  0.3292  0.4549
62250SOL     OW98474  11.158   2.010  11.594 -0.4865 -0.4456 -0.1701
62250SOL    HW198475  11.164   1.942  11.527 -1.3689 -0.6148 -0.0838
62250SOL    HW298476  11.065   2.014  11.617 -0.4072  0.5759  0.0483
62251SOL     OW98477  10.141   4.420   2.604  0.0753  0.8244 -0.7671
62251SOL    HW198478  10.066   4.431   2.663  1.1334 -0.4449  0.9092
62251SOL    HW298479  10.102   4.393   2.521 -1.3959  1.5776 -0.3610
62252SOL     OW98480   2.258  10.937   5.578 -0.6573  0.1813 -0.2619
62252SOL    HW198481   2.307  10.993   5.518  1.4611  0.1878  1.3611
62252SOL    HW298482   2.248  10.990   5.657 -2.8721 -0.0413 -0.3210
62253SOL     OW98483   6.534   2.637   5.065 -0.0415 -0.1666  0.2236
62253SOL    HW198484   6.450   2.645   5.021 -0.5855 -0.0174  1.2727
62253SOL    HW298485   6.544   2.543   5.081  0.8048 -0.3991 -1.4072
62254SOL     OW98486   2.830  13.019  12.474 -0.3418 -0.0361 -0.0050
62254SOL    HW198487   2.840  13.113  12.492  0.8694 -0.4024  1.4682
62254SOL    HW298488   2.742  12.998  12.506 -0.9517  0.7251 -1.0977
62255SOL     OW98489   5.368  13.252   4.353  0.1902  0.9593 -0.1181
62255SOL    HW198490   5.463  13.242   4.339 -0.3289 -0.8626 -3.0714
62255SOL    HW298491   5.342  13.173   4.399 -0.1032  0.7678 -0.6099
62256SOL     OW98492  11.734   6.120   0.367 -0.5528 -0.3838  0.2090
62256SOL    HW198493  11.686   6.187   0.415 -1.2885 -1.2921  0.7543
62256SOL    HW298494  11.667   6.067   0.324 -0.0764 -1.6962  1.0199
62257SOL     OW98495   6.284   1.302  12.809  0.5705  0.0270  0.4756
62257SOL    HW198496   6.319   1.330  12.724  0.3336 -0.1381  0.3226
62257SOL    HW298497   6.190   1.291  12.793  0.8469 -2.2274  0.1735
62258SOL     OW98498   8.988   6.074   8.850  0.0088  0.3207 -0.0612
62258SOL    HW198499   9.041   6.109   8.922 -0.3003 -1.3066  1.0198
62258SOL    HW298500   9.048   6.015   8.803 -0.1648  0.3730 -0.3494
62259SOL     OW98501   5.705   3.954   7.068  0.2599 -0.2901 -0.0620
62259SOL    HW198502   5.659   4.033   7.039 -0.7435 -0.6741  0.4229
62259SOL    HW298503   5.663   3.883   7.018  0.4320 -0.6309  0.2764
62260SOL     OW98504  11.865   4.440   7.241 -0.6394 -0.4429  0.2861
62260SOL    HW198505  11.927   4.500   7.282 -1.4263 -0.5452  1.6803
62260SOL    HW298506  11.892   4.437   7.149  1.0118  0.0147  0.7137
62261SOL     OW98507   8.273  12.120   5.385 -0.1810 -0.0071  0.1964
62261SOL    HW198508   8.271  12.041   5.331 -1.5743  0.5251 -0.5582
62261SOL    HW298509   8.246  12.089   5.472 -1.9210 -0.1987 -0.3675
62262SOL     OW98510   2.142   1.202  13.415  0.1395  0.0067  0.1247
62262SOL    HW198511   2.188   1.285  13.431  0.4914  0.3375 -2.2063
62262SOL    HW298512   2.194   1.137  13.462  0.8233  0.8851  0.6192
62263SOL     OW98513   4.554   8.195   7.044  0.1632 -0.5033 -0.2944
62263SOL    HW198514   4.509   8.224   6.965 -2.3023  0.6024  1.4117
62263SOL    HW298515   4.584   8.106   7.024  1.0648  0.3019 -2.9717
62264SOL     OW98516   4.481   7.858   7.812  0.3300  0.2064 -0.3488
62264SOL    HW198517   4.473   7.939   7.863 -1.2278 -0.4413  0.5001
62264SOL    HW298518   4.409   7.860   7.750  0.7496 -0.1672 -0.8599
62265SOL     OW98519   9.384   6.714  11.425  0.2295  0.0870 -0.2471
62265SOL    HW198520   9.443   6.789  11.417 -0.5859  0.8451  0.5888
62265SOL    HW298521   9.416   6.666  11.502  0.5282 -0.2249 -0.5624
62266SOL     OW98522   8.301   0.588   2.411  0.3622  0.1369  0.2403
62266SOL    HW198523   8.307   0.500   2.450  0.5768  1.1486  2.6691
62266SOL    HW298524   8.227   0.629   2.457  0.2977  1.2524 -0.8208
62267SOL     OW98525   4.049   5.544   4.659  0.6704  0.1223  0.3441
62267SOL    HW198526   4.051   5.449   4.658 -0.5798  0.0707 -1.5328
62267SOL    HW298527   4.139   5.571   4.643  0.9552 -0.7397  0.4879
62268SOL     OW98528   6.881  11.227   6.660  1.2000  0.0023  0.0887
62268SOL    HW198529   6.838  11.218   6.575  0.2021  0.9534  0.4687
62268SOL    HW298530   6.974  11.226   6.640  1.0143 -1.0748 -0.8640
62269SOL     OW98531  10.018  10.406   3.903 -0.5223 -0.0264  0.4738
62269SOL    HW198532   9.976  10.492   3.900 -1.2915 -0.4076 -0.9505
62269SOL    HW298533  10.082  10.408   3.831  1.8901  0.4816  2.5028
62270SOL     OW98534   5.028   6.387  11.849 -0.9026 -1.0048  0.0524
62270SOL    HW198535   4.940   6.398  11.812 -0.1863  1.0068 -1.2595
62270SOL    HW298536   5.024   6.433  11.932 -0.4143  1.6838 -1.2979
62271SOL     OW98537   6.324   3.880  10.937 -0.2291 -0.2210  0.2260
62271SOL    HW198538   6.313   3.960  10.886  0.9905 -1.6838 -2.5647
62271SOL    HW298539   6.407   3.844  10.907 -0.7829 -2.5896  1.2963
62272SOL     OW98540   3.851  11.024   8.622 -0.1559  0.0480 -0.3091
62272SOL    HW198541   3.918  11.084   8.654 -1.4682  0.5048  1.7766
62272SOL    HW298542   3.896  10.971   8.556  1.2997  2.6949 -1.6443
62273SOL     OW98543  11.662   6.802   5.686 -0.6520 -0.0459 -0.6173
62273SOL    HW198544  11.650   6.860   5.761  0.4845  1.1606 -1.3390
62273SOL    HW298545  11.750   6.821   5.654 -0.8260 -1.0980 -1.8005
62274SOL     OW98546   1.966   4.124  10.067 -0.9625 -0.8031  0.2166
62274SOL    HW198547   1.989   4.061   9.999 -0.4260 -0.1602 -0.2010
62274SOL    HW298548   2.040   4.122  10.128 -0.0315  0.8223 -0.8120
62275SOL     OW98549   7.841   8.979   8.862  0.4552 -0.4730  0.0906
62275SOL    HW198550   7.812   8.936   8.942 -0.7543 -0.9202 -0.5588
62275SOL    HW298551   7.784   9.055   8.854 -0.9182 -1.5849 -1.4200
62276SOL     OW98552   6.045  10.613   2.997  0.9452  0.3667  0.0853
62276SOL    HW198553   6.046  10.702   3.032 -0.4010  0.4947 -0.1624
62276SOL    HW298554   5.982  10.566   3.052  1.4453 -0.3696  0.0449
62277SOL     OW98555   9.295  10.285  12.212 -0.6303 -0.0308  0.2324
62277SOL    HW198556   9.245  10.333  12.277 -0.3531 -1.6583  1.7344
62277SOL    HW298557   9.292  10.194  12.243 -0.1600 -0.8018 -1.8347
62278SOL     OW98558  13.344   5.502   3.833 -0.2736  0.3698 -0.1563
62278SOL    HW198559  13.412   5.512   3.766 -0.7211 -0.2231 -0.7200
62278SOL    HW298560  13.387   5.525   3.915  0.8712 -0.8224 -0.3848
62279SOL     OW98561  10.259  13.097  13.290  0.3888  0.4184  0.0758
62279SOL    HW198562  10.327  13.096  13.223 -0.1099  0.7790 -0.4428
62279SOL    HW298563  10.180  13.065  13.246 -0.2429  1.8043  0.1387
62280SOL     OW98564   2.013   4.758   0.082 -0.3051 -0.2110 -0.2549
62280SOL    HW198565   1.954   4.707   0.027 -0.4225  1.0643 -1.3484
62280SOL    HW298566   1.956   4.798   0.147 -0.9434  2.1473 -2.1434
62281SOL     OW98567  13.285   6.868   4.838 -0.3159  0.5048  0.2630
62281SOL    HW198568  13.312   6.816   4.762  2.1446 -0.6722  1.8192
62281SOL    HW298569  13.218   6.814   4.880  0.2177 -0.0958  0.3560
62282SOL     OW98570  13.665   0.299  12.326  0.1438 -0.6001 -0.1644
62282SOL    HW198571  13.620   0.242  12.389 -0.5484 -0.0762 -0.1766
62282SOL    HW298572  13.670   0.384  12.370  0.1505 -0.3732 -0.5982
62283SOL     OW98573   5.886   3.076   6.083  0.2277 -0.3238  0.3912
62283SOL    HW198574   5.843   3.137   6.023 -2.3068 -1.7685  0.6034
62283SOL    HW298575   5.844   3.092   6.168  0.9769 -0.9903  0.9049
62284SOL     OW98576  11.704  10.618   5.701 -0.4222 -0.2125  0.5098
62284SOL    HW198577  11.716  10.663   5.617  0.2380  1.0416  1.2455
62284SOL    HW298578  11.637  10.668   5.746  0.5673  0.2772  1.4859
62285SOL     OW98579   7.332   4.219   5.850 -0.2600 -0.5292 -0.5606
62285SOL    HW198580   7.255   4.163   5.861 -0.1982 -0.6677 -0.8346
62285SOL    HW298581   7.348   4.221   5.756  0.4708 -1.0487 -0.4627
62286SOL     OW98582  13.109  12.849  10.277  0.8759  0.6381 -0.0681
62286SOL    HW198583  13.192  12.819  10.239  0.2933 -2.9615  1.0736
62286SOL    HW298584  13.042  12.805  10.224 -0.3812  3.0652 -0.6408
62287SOL     OW98585  13.607   3.177   8.896 -0.0804 -0.2516  0.1764
62287SOL    HW198586  13.616   3.138   8.809 -0.0882  0.0792  0.0273
62287SOL    HW298587  13.649   3.263   8.888  0.2598 -0.3774  0.6035
62288SOL     OW98588   6.432  10.814   7.281 -0.3152  0.2769  0.1668
62288SOL    HW198589   6.356  10.775   7.324 -1.0330 -0.7009 -1.8864
62288SOL    HW298590   6.418  10.798   7.188  2.4186  0.0280 -0.2866
62289SOL     OW98591  12.634   8.781   6.396  0.0462 -0.3177 -0.9316
62289SOL    HW198592  12.553   8.827   6.421 -0.0898 -0.4334 -1.1464
62289SOL    HW298593  12.604   8.694   6.368  0.1739 -0.1616 -1.5811
62290SOL     OW98594   2.004  12.737  11.151 -0.0142 -0.0465 -0.4553
62290SOL    HW198595   2.067  12.793  11.107  1.3584 -1.1111  0.0878
62290SOL    HW298596   2.019  12.650  11.114 -0.0315 -0.6237  0.8225
62291SOL     OW98597  13.556   0.200   7.238 -0.1114  0.1675  0.2444
62291SOL    HW198598  13.562   0.195   7.333 -2.5202  1.2319  0.5260
62291SOL    HW298599  13.549   0.294   7.219 -1.4021 -0.1103 -0.8104
62292SOL     OW98600   8.805   3.467   3.952  0.1536  0.0053  0.1739
62292SOL    HW198601   8.788   3.536   4.017  0.6247 -0.1334  0.4517
62292SOL    HW298602   8.723   3.418   3.948  0.2290 -0.1972  0.9341
62293SOL     OW98603   4.368   5.141  11.342 -0.2254  0.0074 -0.1844
62293SOL    HW198604   4.382   5.096  11.259  1.4885  1.0975 -0.5190
62293SOL    HW298605   4.454   5.143  11.384 -0.6170  1.3666  0.6346
62294SOL     OW98606   1.744  13.304   1.070 -0.4075 -0.3522 -0.3229
62294SOL    HW198607   1.736  13.234   1.135 -2.0578 -1.0010 -1.1503
62294SOL    HW298608   1.744  13.385   1.121 -0.3904 -0.8878  0.5426
62295SOL     OW98609  13.186   9.421   4.469 -0.5662 -0.5071 -0.2335
62295SOL    HW198610  13.129   9.498   4.465 -1.2577 -0.8851  1.5102
62295SOL    HW298611  13.248   9.434   4.397 -0.6031  1.7360  0.0485
62296SOL     OW98612   6.829  10.760   3.394 -0.2404  0.3376 -0.3554
62296SOL    HW198613   6.821  10.761   3.490 -0.6461 -0.6608 -0.3593
62296SOL    HW298614   6.746  10.796   3.363  0.0906  1.1347 -0.3380
62297SOL     OW98615  10.455   1.088  13.214 -0.6522 -0.1134 -0.2521
62297SOL    HW198616  10.370   1.097  13.171 -0.0017 -1.3429 -1.8881
62297SOL    HW298617  10.463   0.995  13.233  1.4743 -0.5264 -2.7160
62298SOL     OW98618   9.894   6.208   5.910 -0.5449 -0.1934  0.1533
62298SOL    HW198619   9.911   6.207   6.004  0.9310 -1.5960 -0.0953
62298SOL    HW298620   9.842   6.287   5.896 -0.1837  0.4187  2.0377
62299SOL     OW98621   9.062  11.571   7.447 -0.3236  0.0748 -0.2670
62299SOL    HW198622   9.012  11.494   7.473  0.3061 -0.5080 -0.7410
62299SOL    HW298623   9.080  11.617   7.529 -1.8998  0.4810 -0.1210
62300SOL     OW98624   3.627   0.910   7.710 -0.6652  0.5619  0.5918
62300SOL    HW198625   3.542   0.920   7.666 -0.6759  0.6550  0.6329
62300SOL    HW298626   3.631   0.985   7.770 -0.4561  0.6780  0.4307
62301SOL     OW98627  13.487   8.894   2.633 -0.5976 -0.6752  0.5019
62301SOL    HW198628  13.420   8.961   2.617 -0.6118 -0.9605 -0.7410
62301SOL    HW298629  13.491   8.886   2.728 -0.0665  1.6314  0.7428
62302SOL     OW98630  10.394   1.443  12.019  0.2275  0.3470  0.0221
62302SOL    HW198631  10.331   1.448  12.091 -1.0383 -1.6714 -0.8719
62302SOL    HW298632  10.468   1.394  12.056 -0.6011 -1.0710 -0.1132
62303SOL     OW98633   2.677   0.503   6.175  0.6007 -0.1024  0.3224
62303SOL    HW198634   2.732   0.427   6.195  0.9819 -0.1259 -0.7837
62303SOL    HW298635   2.697   0.565   6.246  0.3622 -0.9730  1.1790
62304SOL     OW98636   6.496   2.577   9.858  0.0212  0.2347 -0.0774
62304SOL    HW198637   6.490   2.491   9.899  4.4436 -0.0065  0.5427
62304SOL    HW298638   6.506   2.558   9.765  0.2223  0.1464 -0.0367
62305SOL     OW98639   3.071   0.327   3.367  0.2748 -0.1274  0.2859
62305SOL    HW198640   3.059   0.258   3.301  2.0257 -0.1615 -0.0399
62305SOL    HW298641   3.030   0.292   3.446 -1.0781 -0.4597 -0.5192
62306SOL     OW98642   0.088   7.656   8.810 -0.4912 -0.5510 -0.4165
62306SOL    HW198643   0.136   7.654   8.893 -3.5502 -1.4924  1.5138
62306SOL    HW298644   0.109   7.741   8.772 -0.2345  0.6438  2.1866
62307SOL     OW98645   5.936   0.285   0.234  0.3580  0.0972 -0.1628
62307SOL    HW198646   5.996   0.355   0.259 -1.9627  1.2694  2.8180
62307SOL    HW298647   5.966   0.209   0.283 -0.6873  0.7974  1.6821
62308SOL     OW98648   1.835   1.133   4.069 -0.0621  0.4679  0.8818
62308SOL    HW198649   1.892   1.165   4.140 -1.2333 -1.0655  2.6122
62308SOL    HW298650   1.816   1.043   4.093 -0.5109 -0.1274 -1.4551
62309SOL     OW98651  12.319  11.519   4.574 -0.3197 -0.0303 -0.0707
62309SOL    HW198652  12.281  11.485   4.492 -0.3129 -0.1839 -0.0100
62309SOL    HW298653  12.291  11.611   4.576  0.2986  0.1747 -0.6102
62310SOL     OW98654   4.444   9.067  10.197  0.1455  0.1385 -0.1681
62310SOL    HW198655   4.426   8.974  10.188 -0.1005 -0.3327  3.6244
62310SOL    HW298656   4.358   9.109  10.186 -0.3580 -0.4483  1.3187
62311SOL     OW98657   6.201  13.169   7.493  0.4144  0.3674 -0.0844
62311SOL    HW198658   6.117  13.172   7.539  0.9569 -0.2576  0.9671
62311SOL    HW298659   6.253  13.106   7.542  0.4469 -1.6729 -2.5586
62312SOL     OW98660   7.276   2.092   5.578  0.0435  0.1595  1.1016
62312SOL    HW198661   7.279   2.008   5.623  1.0457 -0.1645  0.4736
62312SOL    HW298662   7.361   2.132   5.596 -0.1065  0.6636  0.7072
62313SOL     OW98663   6.304   1.932   8.471  0.3745  0.3926  0.0555
62313SOL    HW198664   6.263   1.910   8.554  0.2503  1.4542  0.2933
62313SOL    HW298665   6.370   1.997   8.493 -0.9159  2.1190 -0.8708
62314SOL     OW98666  13.550   4.507   0.106 -0.8697 -0.1351 -0.6265
62314SOL    HW198667  13.618   4.450   0.142 -0.0948  0.2783 -1.3965
62314SOL    HW298668  13.486   4.448   0.067 -0.0894 -0.4878 -1.3926
62315SOL     OW98669  10.520   7.910  13.062  0.3731 -0.0545 -0.5085
62315SOL    HW198670  10.483   7.971  12.998  1.4285  2.1720  0.8485
62315SOL    HW298671  10.602   7.951  13.088  1.1532 -2.1278  0.4867
62316SOL     OW98672   2.992   9.341   4.953  0.0830  0.4394 -0.0042
62316SOL    HW198673   2.928   9.407   4.982  0.0355  1.1948 -1.7442
62316SOL    HW298674   3.018   9.369   4.866  1.8859 -0.5560  0.1667
62317SOL     OW98675   2.767   4.802   9.055 -0.2654  0.8118 -0.3725
62317SOL    HW198676   2.721   4.853   8.988 -4.7199 -2.0956  0.0265
62317SOL    HW298677   2.754   4.852   9.135 -1.1772  0.9316 -0.5808
62318SOL     OW98678   7.408   6.847  13.401 -0.2486 -0.1755 -0.6680
62318SOL    HW198679   7.428   6.826  13.309  0.4156  1.2499 -0.8757
62318SOL    HW298680   7.452   6.778  13.451 -1.3948 -1.5133 -1.4327
62319SOL     OW98681  12.494   8.135   0.606 -0.0019  0.8080 -0.3219
62319SOL    HW198682  12.547   8.088   0.542 -0.3062  0.1145 -0.0743
62319SOL    HW298683  12.417   8.163   0.558 -1.4226 -1.7889  0.2062
62320SOL     OW98684   2.074   8.260  12.215 -0.2491  0.6887  0.8684
62320SOL    HW198685   2.112   8.271  12.302 -1.9508 -1.1276  1.9186
62320SOL    HW298686   1.983   8.236  12.231 -0.6604  0.4895 -1.4300
62321SOL     OW98687  13.012   9.736   8.974  0.0045 -0.3486 -0.4886
62321SOL    HW198688  13.025   9.829   8.956  2.9250 -0.5834 -0.0902
62321SOL    HW298689  13.024   9.727   9.068  1.3559 -1.2849 -0.7135
62322SOL     OW98690   4.810   0.925  10.538 -0.2910  0.2560  0.1750
62322SOL    HW198691   4.801   1.014  10.573 -3.3558 -0.7661  2.3689
62322SOL    HW298692   4.801   0.935  10.443  0.9028  2.3789  0.2161
62323SOL     OW98693   2.476  11.155   5.799  0.0965  0.0571  0.4461
62323SOL    HW198694   2.393  11.107   5.801  0.8828 -1.3434  1.1455
62323SOL    HW298695   2.523  11.117   5.724  0.1539  0.7851  0.1034
62324SOL     OW98696  13.257  10.417   9.946  0.3779 -0.0832 -0.7712
62324SOL    HW198697  13.327  10.469   9.907  0.4233 -0.0925 -0.7019
62324SOL    HW298698  13.202  10.481   9.990  1.0379 -0.1909  0.2540
62325SOL     OW98699   9.584   4.410   8.836  0.3130  0.0996 -0.0703
62325SOL    HW198700   9.654   4.391   8.774  0.9063 -1.2060  0.9717
62325SOL    HW298701   9.514   4.447   8.782 -0.2266 -3.3501 -2.0169
62326SOL     OW98702  11.772  11.082   2.013  0.2841  0.2118  0.5401
62326SOL    HW198703  11.835  11.052   2.078  0.1555 -0.5598  0.3194
62326SOL    HW298704  11.715  11.142   2.061  0.5402  0.0946  0.9974
62327SOL     OW98705   2.805  13.692  11.719  0.0298  0.0706  0.1764
62327SOL    HW198706   2.859  13.617  11.744  0.7344  0.6365  0.3957
62327SOL    HW298707   2.858  13.738  11.654  0.3419  1.2909  1.2631
62328SOL     OW98708  12.429  13.320   6.374 -0.0441 -0.2457 -0.4337
62328SOL    HW198709  12.451  13.227   6.370 -2.5127 -0.9152 -0.0598
62328SOL    HW298710  12.471  13.351   6.454  1.0633 -0.9498 -0.7228
62329SOL     OW98711   0.692   8.500   7.723 -0.4058  0.9239  0.1002
62329SOL    HW198712   0.707   8.464   7.811 -0.7820  0.0774 -0.1758
62329SOL    HW298713   0.755   8.572   7.716 -0.3004  0.9346  1.0229
62330SOL     OW98714   4.594   1.299   9.521 -0.4595 -0.1776 -0.2961
62330SOL    HW198715   4.544   1.270   9.444  0.3298 -1.5111 -0.3373
62330SOL    HW298716   4.645   1.373   9.489  0.1572 -0.9677 -1.1818
62331SOL     OW98717  13.458   5.742   0.737  0.1134 -0.5803 -0.0952
62331SOL    HW198718  13.528   5.677   0.732 -0.5983 -1.2528 -2.0023
62331SOL    HW298719  13.493   5.818   0.689 -0.4168 -0.8996 -1.0061
62332SOL     OW98720   8.322   3.904  10.749 -0.3605  0.9924  0.6354
62332SOL    HW198721   8.255   3.843  10.778  1.8465 -1.7463  0.4372
62332SOL    HW298722   8.398   3.883  10.803  1.4867  1.1809 -1.7203
62333SOL     OW98723   1.220  10.463   8.110  0.3719  0.2723 -0.2644
62333SOL    HW198724   1.313  10.464   8.088  0.2013 -1.7195 -1.2210
62333SOL    HW298725   1.189  10.376   8.084 -1.5061  0.4551  1.1342
62334SOL     OW98726   8.526  13.016   9.323 -0.1458  0.9442 -0.4390
62334SOL    HW198727   8.488  13.090   9.370  0.9164  1.4054 -0.2980
62334SOL    HW298728   8.615  13.009   9.357 -0.7324 -1.4768  0.8424
62335SOL     OW98729   7.747  13.354   1.354 -0.1511  0.1433  0.1142
62335SOL    HW198730   7.764  13.441   1.391 -1.3083  0.5468 -0.2513
62335SOL    HW298731   7.786  13.293   1.416 -3.1724  0.7088  2.8683
62336SOL     OW98732   6.636   8.172   5.990 -0.1087 -0.9191  0.0540
62336SOL    HW198733   6.710   8.157   5.932  0.0805 -0.2695  0.1246
62336SOL    HW298734   6.559   8.170   5.933  0.0729 -0.3272 -0.2116
62337SOL     OW98735   4.827  11.993   6.836 -0.2551 -0.2043  0.3780
62337SOL    HW198736   4.778  12.073   6.819 -2.1709 -1.4247 -0.2680
62337SOL    HW298737   4.856  11.963   6.750  0.9473  0.0720  0.6755
62338SOL     OW98738   9.941   6.366  12.795 -0.0457  0.5934  0.0014
62338SOL    HW198739   9.899   6.339  12.877  1.9439  0.6114  1.0869
62338SOL    HW298740   9.972   6.454  12.812  2.1177 -0.1111 -0.0201
62339SOL     OW98741  13.256  13.705  13.418 -0.0703 -0.5190  0.4089
62339SOL    HW198742  13.169  13.722  13.455 -1.0902 -1.3354 -1.4186
62339SOL    HW298743  13.265  13.771  13.348 -0.4229 -2.0750 -1.1677
62340SOL     OW98744   0.962   2.775   4.661  0.6459  0.1938 -0.0096
62340SOL    HW198745   1.050   2.795   4.628  1.2691 -0.4900  1.2043
62340SOL    HW298746   0.937   2.695   4.616  0.6848  0.3291 -0.2746
62341SOL     OW98747   6.598  11.821  12.117  0.2975  0.3858  0.5962
62341SOL    HW198748   6.641  11.891  12.165  0.3017  1.5945 -1.0698
62341SOL    HW298749   6.506  11.825  12.144  0.1695  1.4799  0.0506
62342SOL     OW98750  12.161   3.699   3.601  0.1982 -0.2174 -0.3348
62342SOL    HW198751  12.082   3.752   3.600  0.6555  0.5104 -1.9119
62342SOL    HW298752  12.139   3.622   3.547  1.3735  1.3957 -3.3600
62343SOL     OW98753   2.553   2.628   7.640 -0.1239 -0.0641 -0.7422
62343SOL    HW198754   2.523   2.644   7.730  0.0610  0.7316 -0.8168
62343SOL    HW298755   2.563   2.533   7.635 -2.2750 -0.3571 -0.6073
62344SOL     OW98756   1.341   9.281   1.087 -0.0962 -0.4486  0.0638
62344SOL    HW198757   1.349   9.270   0.992  1.5948  0.6095  0.0470
62344SOL    HW298758   1.248   9.262   1.105 -0.3981 -0.9330 -1.7393
62345SOL     OW98759   4.852   1.090   9.339 -0.1947  0.1231 -0.1467
62345SOL    HW198760   4.872   1.097   9.432 -0.3164 -0.4135 -0.0827
62345SOL    HW298761   4.902   1.015   9.309 -0.1656  0.2862 -0.5159
62346SOL     OW98762   5.415   6.780  12.144  0.2882 -0.3716 -0.2075
62346SOL    HW198763   5.339   6.815  12.192 -0.3466 -0.9156 -0.7890
62346SOL    HW298764   5.482   6.847  12.153  0.3695 -0.6402  1.8420
62347SOL     OW98765   9.078   4.010   3.347 -0.0689 -0.5740  0.2237
62347SOL    HW198766   9.062   4.084   3.405 -2.9595 -0.0667 -1.0205
62347SOL    HW298767   8.993   3.967   3.339  0.5540 -1.5174 -2.3607
62348SOL     OW98768   5.742   9.626   1.687 -0.6630 -0.5065 -0.7266
62348SOL    HW198769   5.748   9.540   1.729 -0.2302 -0.5692 -0.9104
62348SOL    HW298770   5.832   9.658   1.685 -0.8518  0.0612 -0.4397
62349SOL     OW98771   6.267   4.725   8.840 -0.2358  0.4306  0.0134
62349SOL    HW198772   6.271   4.778   8.920  0.2734 -0.5808  0.6708
62349SOL    HW298773   6.186   4.754   8.797  0.0271  1.7398  0.3453
62350SOL     OW98774   2.349   0.658   7.208  0.2039  0.3067 -0.1010
62350SOL    HW198775   2.330   0.750   7.188  1.6011  0.1901 -2.4588
62350SOL    HW298776   2.272   0.610   7.176  1.2124  0.3949 -3.0410
62351SOL     OW98777   8.542  12.733   3.292  0.0557 -0.4517 -0.1192
62351SOL    HW198778   8.584  12.667   3.236  1.0166 -0.6368  0.7804
62351SOL    HW298779   8.588  12.725   3.376 -1.0002  0.1827  0.5304
62352SOL     OW98780  12.131   9.743   0.882  0.0650  0.5564 -0.5369
62352SOL    HW198781  12.124   9.833   0.852 -0.0916  1.0559  0.9305
62352SOL    HW298782  12.132   9.691   0.802 -0.4913  1.8096 -1.3846
62353SOL     OW98783   1.673   3.701   5.914  0.0114  0.2602  0.0894
62353SOL    HW198784   1.623   3.665   5.987  1.9816  0.0755  1.4101
62353SOL    HW298785   1.735   3.762   5.954  1.3303 -0.0342 -1.3809
62354SOL     OW98786   7.961  10.673  11.725 -0.2785 -0.1336 -0.4261
62354SOL    HW198787   8.047  10.646  11.693  0.0062 -0.7641  0.8114
62354SOL    HW298788   7.918  10.712  11.648  1.8835  2.1959 -0.5814
62355SOL     OW98789   7.428   2.028   2.119 -0.2821 -0.6577 -0.1377
62355SOL    HW198790   7.435   1.995   2.030 -0.8198 -1.5173  0.1192
62355SOL    HW298791   7.494   1.977   2.168  0.0707 -0.1313 -0.0548
62356SOL     OW98792   7.432   0.730   5.515  0.1901 -0.2563 -0.4169
62356SOL    HW198793   7.423   0.776   5.599  0.6720  1.3804 -1.2288
62356SOL    HW298794   7.494   0.659   5.533  0.0076 -0.1483  0.6960
62357SOL     OW98795   7.256   9.351  11.848 -0.1381 -0.1087  0.5665
62357SOL    HW198796   7.175   9.380  11.891  1.5052  1.5704  2.8041
62357SOL    HW298797   7.263   9.407  11.771 -0.0311  1.3402  1.5830
62358SOL     OW98798   8.125   1.712  12.736 -0.0735 -0.6267 -0.1161
62358SOL    HW198799   8.128   1.745  12.826  1.4866  0.4044 -0.5038
62358SOL    HW298800   8.173   1.630  12.738  1.7880  0.3932 -0.3351
62359SOL     OW98801   7.840   2.005  10.870 -0.7015 -0.2027 -0.3031
62359SOL    HW198802   7.864   1.915  10.891 -0.3517 -0.1427 -0.4331
62359SOL    HW298803   7.902   2.031  10.802  1.0925  1.0909  1.6860
62360SOL     OW98804   8.540   8.055  12.038 -0.0870  0.2418 -0.1447
62360SOL    HW198805   8.634   8.039  12.027 -0.4649 -1.5221 -1.0043
62360SOL    HW298806   8.508   7.981  12.089 -1.4036 -0.3976 -1.7999
62361SOL     OW98807  13.375   5.686   1.744  0.1196  0.1115 -0.2546
62361SOL    HW198808  13.304   5.748   1.764  1.7369  1.7070  0.7926
62361SOL    HW298809  13.376   5.625   1.817  0.5318  0.7719  0.2989
62362SOL     OW98810   1.070   0.274  11.328 -0.3609 -0.0146 -0.1706
62362SOL    HW198811   1.083   0.186  11.291  1.7847 -0.2930  1.0652
62362SOL    HW298812   0.983   0.300  11.298 -0.6866 -2.1873 -1.3227
62363SOL     OW98813   0.174   4.740   5.114 -0.7772 -0.0772 -0.5950
62363SOL    HW198814   0.246   4.774   5.165 -1.0693  1.5940 -1.2224
62363SOL    HW298815   0.108   4.715   5.178  0.0804 -0.9714 -0.0519
62364SOL     OW98816   9.455   6.463   3.883 -0.0564  0.1839  0.0328
62364SOL    HW198817   9.392   6.532   3.902 -1.7750 -0.9036 -1.4537
62364SOL    HW298818   9.464   6.415   3.966  0.6861  1.7673  0.9016
62365SOL     OW98819   8.380   7.660  10.559 -0.1890  0.3000 -0.9627
62365SOL    HW198820   8.344   7.608  10.487  0.7000  1.1745 -2.0756
62365SOL    HW298821   8.380   7.750  10.526  0.4124  0.6884  0.0602
62366SOL     OW98822   2.277   9.405   5.806  0.4866  0.0026  0.0099
62366SOL    HW198823   2.187   9.388   5.832  0.6628 -0.9652  0.0294
62366SOL    HW298824   2.330   9.359   5.870  0.9907  0.2247 -0.2353
62367SOL     OW98825   6.631   8.718   7.262 -0.4553 -0.0387 -0.2764
62367SOL    HW198826   6.630   8.663   7.340  0.9314 -0.2241 -0.3691
62367SOL    HW298827   6.714   8.766   7.267  1.0723 -2.0514 -2.9493
62368SOL     OW98828   2.736   3.980   9.079  0.6308 -0.0925 -0.4923
62368SOL    HW198829   2.780   3.984   9.163  0.9445 -2.1801 -0.4864
62368SOL    HW298830   2.770   4.054   9.029  1.9011  0.0363  0.5351
62369SOL     OW98831  11.622  11.368  10.887 -0.2697  0.2040  0.1665
62369SOL    HW198832  11.620  11.274  10.903  0.1773  0.2630  0.6106
62369SOL    HW298833  11.628  11.407  10.974  1.6649  0.5647 -0.0895
62370SOL     OW98834   2.747   8.143   3.266 -0.5064  0.2487 -0.1235
62370SOL    HW198835   2.695   8.204   3.215  0.5559 -0.2910 -1.9332
62370SOL    HW298836   2.802   8.199   3.321 -1.6130  0.8395  0.4089
62371SOL     OW98837  12.176   8.796  12.832  0.1850 -0.1892  0.2025
62371SOL    HW198838  12.153   8.768  12.921 -1.3566 -0.0853 -0.1431
62371SOL    HW298839  12.177   8.891  12.836 -0.9249 -0.1521 -0.1190
62372SOL     OW98840   7.647  10.170   3.919  0.0841 -0.1594 -0.7177
62372SOL    HW198841   7.719  10.202   3.866 -1.1087 -0.8874 -2.9091
62372SOL    HW298842   7.584  10.134   3.855 -2.0007  0.0397  1.1011
62373SOL     OW98843   3.836   2.904   1.028  0.7083 -0.3422  0.7115
62373SOL    HW198844   3.921   2.880   0.992  0.6178  0.4022 -0.0480
62373SOL    HW298845   3.780   2.829   1.008  0.6674  0.0337 -0.7455
62374SOL     OW98846   6.026   0.159   8.752 -0.4083  0.3779 -0.5169
62374SOL    HW198847   5.941   0.187   8.717 -0.5922 -0.4783 -0.7886
62374SOL    HW298848   6.017   0.167   8.847 -1.2577 -0.9561 -0.4699
62375SOL     OW98849   1.495  11.891  13.378 -0.1705  0.0236 -0.1919
62375SOL    HW198850   1.495  11.881  13.473 -1.0346  0.0330 -0.1831
62375SOL    HW298851   1.452  11.812  13.345 -1.1192  0.6471 -0.4882
62376SOL     OW98852  12.943   6.216   5.914  0.2249 -0.0377 -0.1966
62376SOL    HW198853  13.018   6.265   5.946 -0.8956  2.0213 -0.5757
62376SOL    HW298854  12.908   6.270   5.842 -0.5372 -1.8446 -1.2562
62377SOL     OW98855   4.030   8.568   4.996 -0.2780  0.0154  0.0857
62377SOL    HW198856   4.034   8.473   4.991  0.0577 -0.1313  2.2372
62377SOL    HW298857   3.943   8.587   5.032 -0.2623  0.5000 -0.1227
62378SOL     OW98858   0.704   4.644   1.877 -0.3887 -0.3063 -0.3619
62378SOL    HW198859   0.614   4.623   1.854  0.2702 -4.5884  0.2051
62378SOL    HW298860   0.753   4.638   1.795 -0.1846 -1.3079 -0.1845
62379SOL     OW98861   3.541   4.103  10.791 -0.1026 -0.1366  0.2012
62379SOL    HW198862   3.592   4.022  10.789 -0.7722 -0.5836  0.6962
62379SOL    HW298863   3.547   4.132  10.882  0.4653  0.5860 -0.0650
62380SOL     OW98864   6.897   4.352   1.546  0.1046 -0.3747 -0.2141
62380SOL    HW198865   6.943   4.307   1.617  0.2646 -0.0469 -0.1072
62380SOL    HW298866   6.904   4.293   1.471 -0.9996 -1.2411  0.3190
62381SOL     OW98867  11.177  11.005  10.786  0.1966 -0.5269  0.2031
62381SOL    HW198868  11.260  10.989  10.741  0.4880  0.1543  0.4941
62381SOL    HW298869  11.157  10.922  10.830  0.5976 -0.7677 -0.0594
62382SOL     OW98870   6.932  12.649   8.937 -0.4606 -0.0647 -0.4687
62382SOL    HW198871   6.969  12.719   8.991 -1.2579 -0.6191  0.8682
62382SOL    HW298872   6.869  12.606   8.995 -5.2228  2.3698 -3.2215
62383SOL     OW98873   5.710   9.690  11.040  0.1691 -0.1425  0.7114
62383SOL    HW198874   5.632   9.719  10.992  0.7555 -0.9046 -0.7405
62383SOL    HW298875   5.774   9.759  11.026 -0.0883  0.2983  1.5890
62384SOL     OW98876   2.578   7.202   7.185  0.7104 -0.4378  0.1174
62384SOL    HW198877   2.589   7.294   7.207 -0.0014 -0.5952  1.1734
62384SOL    HW298878   2.577   7.200   7.089  0.7954  0.6373  0.0879
62385SOL     OW98879   8.098  11.387   4.771  0.3128  0.3458  0.4080
62385SOL    HW198880   8.124  11.360   4.859  0.8199 -0.4491  0.0212
62385SOL    HW298881   8.079  11.306   4.725 -1.5622  0.8357  0.2530
62386SOL     OW98882   8.331   5.587   9.715  0.2258 -0.2868 -0.3037
62386SOL    HW198883   8.302   5.641   9.641  0.8434  0.1988 -0.2037
62386SOL    HW298884   8.427   5.594   9.713  0.2262  0.8068  1.3135
62387SOL     OW98885  11.207   7.660   7.795 -0.0237 -0.0704 -0.1726
62387SOL    HW198886  11.247   7.675   7.881 -0.1481 -0.8413  0.0228
62387SOL    HW298887  11.113   7.671   7.810 -0.1762 -1.5795  0.1073
62388SOL     OW98888   2.281  10.585   6.523  0.4108  0.2619  0.3345
62388SOL    HW198889   2.269  10.583   6.428  1.9736 -0.7813  0.1203
62388SOL    HW298890   2.242  10.668   6.550 -1.8918 -0.3196 -0.9149
62389SOL     OW98891   0.041  11.673   8.294 -1.2409  0.3359 -0.0777
62389SOL    HW198892   0.094  11.612   8.345 -3.5335 -1.0376  0.7712
62389SOL    HW298893   0.045  11.755   8.344 -0.3035  0.1537  0.1782
62390SOL     OW98894  11.795   2.933   0.124 -0.1156 -0.0852  0.1819
62390SOL    HW198895  11.825   2.914   0.213  0.9607 -0.2676 -0.1984
62390SOL    HW298896  11.774   3.026   0.125  0.7492  0.1185  0.4045
62391SOL     OW98897   0.443  11.173  10.000 -0.4258 -0.0154  0.0817
62391SOL    HW198898   0.464  11.237   9.931  0.3479  0.9590  1.1943
62391SOL    HW298899   0.371  11.214  10.049  0.2834  0.1589  0.9954
62392SOL     OW98900   0.925   4.662   6.280  0.1034 -0.3222 -0.6061
62392SOL    HW198901   0.990   4.707   6.226 -1.1935  0.7960 -1.2861
62392SOL    HW298902   0.846   4.717   6.274 -1.1238 -1.9900 -0.3597
62393SOL     OW98903  12.797   1.127  12.964  0.7799 -0.0746  0.3376
62393SOL    HW198904  12.837   1.198  13.013 -1.3772  3.9071 -2.9856
62393SOL    HW298905  12.820   1.145  12.872 -3.0718 -1.2446 -1.0745
62394SOL     OW98906   2.340  10.686   5.260 -0.2636 -0.2133  0.2004
62394SOL    HW198907   2.317  10.595   5.282  0.1180 -0.1309  0.9798
62394SOL    HW298908   2.417  10.704   5.314  1.3043 -0.3033 -1.8857
62395SOL     OW98909  11.294   1.042   7.751 -0.0539  0.4370 -0.0141
62395SOL    HW198910  11.202   1.019   7.750 -0.5826  2.2885  1.0021
62395SOL    HW298911  11.338   0.971   7.703 -2.0295 -0.2499 -0.8861
62396SOL     OW98912   4.717  11.532   4.296  0.1531 -0.4992  0.2816
62396SOL    HW198913   4.771  11.526   4.217 -0.2304  1.0321 -0.1486
62396SOL    HW298914   4.699  11.441   4.320  1.0350 -1.0084 -0.8701
62397SOL     OW98915  13.420   5.207   6.414  0.1936 -0.5630  0.2277
62397SOL    HW198916  13.505   5.203   6.457  0.4099 -0.9595 -0.2325
62397SOL    HW298917  13.439   5.236   6.325 -0.2602  0.3320  0.4139
62398SOL     OW98918   7.451  11.656   1.035  0.1849 -0.0428  0.0305
62398SOL    HW198919   7.402  11.591   0.984 -1.7131  0.2717  1.3642
62398SOL    HW298920   7.385  11.717   1.067  1.4352  0.4327  1.8943
62399SOL     OW98921   9.947   0.607   3.065 -0.3155  0.2380 -0.0420
62399SOL    HW198922   9.957   0.640   2.975 -0.0015 -1.0954 -0.5180
62399SOL    HW298923   9.982   0.518   3.062 -0.1502  0.2259  1.4555
62400SOL     OW98924  10.422   0.866   5.762  0.3080  0.4433 -0.0443
62400SOL    HW198925  10.352   0.931   5.764  0.8880  1.0764  0.1466
62400SOL    HW298926  10.478   0.889   5.836  1.4002  0.7238 -0.9250
62401SOL     OW98927   7.730   0.321  10.119  0.5427  0.0840  0.0616
62401SOL    HW198928   7.682   0.398  10.088  1.8802  0.5281 -0.9905
62401SOL    HW298929   7.723   0.326  10.214 -0.4010  0.8424 -0.0261
62402SOL     OW98930   6.755  11.162   7.433  0.1549 -0.2948 -0.2159
62402SOL    HW198931   6.721  11.244   7.398 -0.1797  0.0740  0.9402
62402SOL    HW298932   6.731  11.163   7.525 -0.1152 -1.8348 -0.2366
62403SOL     OW98933   9.318   3.947   1.535  0.1756 -0.0188  0.1902
62403SOL    HW198934   9.366   3.866   1.514  1.0585 -0.2711  2.8250
62403SOL    HW298935   9.386   4.010   1.557 -0.5920  0.8886  0.0251
62404SOL     OW98936   6.312   8.375   5.461 -0.2440 -0.0870  0.1260
62404SOL    HW198937   6.363   8.448   5.494 -2.4356  0.7123  2.0596
62404SOL    HW298938   6.310   8.387   5.366  0.7386  1.4541  0.2666
62405SOL     OW98939  12.835   1.787  12.618  0.2557 -0.6187  0.0419
62405SOL    HW198940  12.902   1.792  12.686  0.9580 -0.7709 -0.6304
62405SOL    HW298941  12.843   1.870  12.571  0.4776 -0.9509 -0.5085
62406SOL     OW98942   3.848   2.755  10.880 -0.3192 -0.0623 -0.2406
62406SOL    HW198943   3.845   2.705  10.961 -0.1910  0.6677  0.2227
62406SOL    HW298944   3.896   2.699  10.819 -0.1791 -0.5049  0.2698
62407SOL     OW98945  10.613   0.148  11.864  0.0063  0.4726  0.5711
62407SOL    HW198946  10.613   0.230  11.915  2.3937 -0.8242  2.9180
62407SOL    HW298947  10.633   0.080  11.929  0.2790 -1.7047 -1.6622
62408SOL     OW98948   1.507   6.930  11.684 -0.0075  0.1375 -0.0563
62408SOL    HW198949   1.567   6.883  11.742 -0.3004  0.4733  0.5343
62408SOL    HW298950   1.440   6.866  11.662  0.0688  0.0257  0.0350
62409SOL     OW98951   0.223   8.090   6.195  0.1715 -0.2177  0.4414
62409SOL    HW198952   0.262   8.130   6.118 -0.5539 -0.2754  0.0347
62409SOL    HW298953   0.288   8.027   6.225  1.1133  0.8770  0.7906
62410SOL     OW98954   4.335  12.389  11.389 -0.1789  0.9395  0.1209
62410SOL    HW198955   4.276  12.398  11.315 -2.0072  1.1857  1.5410
62410SOL    HW298956   4.369  12.478  11.403  0.8852  0.7220 -0.9402
62411SOL     OW98957  10.795  11.966   1.766 -0.3693  0.1216  0.0759
62411SOL    HW198958  10.852  12.013   1.828  0.3500 -0.4682 -0.1240
62411SOL    HW298959  10.835  11.880   1.758 -1.2396 -0.2661 -0.1619
62412SOL     OW98960  13.384   5.598  10.210  0.1048  0.6263 -0.5200
62412SOL    HW198961  13.460   5.650  10.181  0.0747  0.9659 -0.0022
62412SOL    HW298962  13.309   5.645  10.175  0.0892  0.8009 -0.2547
62413SOL     OW98963   2.906  13.644   8.326  0.2368 -0.2976 -0.0810
62413SOL    HW198964   2.959  13.590   8.268  1.9674 -0.1300  1.2344
62413SOL    HW298965   2.963  13.660   8.402 -2.4888 -2.0446  2.5395
62414SOL     OW98966  13.740  11.298   9.215 -0.3661  0.0135 -0.1614
62414SOL    HW198967  13.737  11.286   9.120 -2.0570 -0.8471 -0.0423
62414SOL    HW298968  13.778  11.216   9.248 -1.2857 -0.3654 -0.0170
62415SOL     OW98969   3.328   3.534   9.575 -0.5040  0.3158  0.3192
62415SOL    HW198970   3.263   3.478   9.617  1.6648 -1.4050  1.6089
62415SOL    HW298971   3.341   3.607   9.636 -1.3891  0.8285 -0.0864
62416SOL     OW98972   0.818  11.495   1.899  0.4944 -0.1078 -0.3409
62416SOL    HW198973   0.768  11.533   1.971  0.4216  2.3860 -1.5981
62416SOL    HW298974   0.774  11.525   1.820  1.6501 -1.2299 -1.4752
62417SOL     OW98975   3.691   6.515   5.831  0.2606 -0.1346  0.0092
62417SOL    HW198976   3.617   6.517   5.770 -0.2151 -0.8205  0.5385
62417SOL    HW298977   3.689   6.602   5.873 -0.9347 -0.5046  0.7906
62418SOL     OW98978   8.339   7.170   8.104 -0.2626 -0.3801  0.1679
62418SOL    HW198979   8.341   7.105   8.175  1.9476  1.5129  2.0123
62418SOL    HW298980   8.383   7.247   8.141  0.3682  0.9743 -3.0728
62419SOL     OW98981   4.850   7.635   8.978  0.5595 -0.0174  0.2872
62419SOL    HW198982   4.796   7.624   9.056  0.5512  0.1441  0.3041
62419SOL    HW298983   4.920   7.694   9.004 -0.2525  1.2000 -0.2095
62420SOL     OW98984   8.827  10.247   5.120 -0.3072  0.7747  0.7782
62420SOL    HW198985   8.864  10.271   5.035  0.7967 -0.8738  0.7358
62420SOL    HW298986   8.733  10.242   5.105 -0.2696  1.9245  0.0467
62421SOL     OW98987   1.934   0.209   7.189 -0.0192  0.2534 -0.3954
62421SOL    HW198988   1.984   0.236   7.266 -0.5215 -0.0348  0.0391
62421SOL    HW298989   1.902   0.121   7.211 -1.6517  0.8561 -0.1934
62422SOL     OW98990   7.311   1.497   9.094 -0.4228 -0.7639 -0.1951
62422SOL    HW198991   7.388   1.462   9.050 -1.1540 -1.1583 -1.2118
62422SOL    HW298992   7.298   1.584   9.056 -0.9214 -1.0116 -0.6102
62423SOL     OW98993   1.122  11.132   8.082 -0.1100 -1.0018  0.1209
62423SOL    HW198994   1.118  11.138   7.986  0.0833 -1.6940  0.0635
62423SOL    HW298995   1.080  11.212   8.113 -1.0578 -1.2215 -0.5380
62424SOL     OW98996   7.603   1.755   9.091 -0.1993  0.0810  0.2017
62424SOL    HW198997   7.568   1.835   9.051 -0.4671 -0.1594 -0.0423
62424SOL    HW298998   7.544   1.736   9.164 -0.1185  0.1178  0.2784
62425SOL     OW98999   7.199   1.299   0.989 -0.1143 -0.1329 -0.0240
62425SOL    HW199000   7.113   1.342   0.986  0.2816  0.6653 -0.2970
62425SOL    HW299001   7.186   1.217   0.943 -0.4444  0.5287 -1.1624
62426SOL     OW99002  11.468   5.709  13.322  0.5111 -0.0088  0.5460
62426SOL    HW199003  11.558   5.742  13.323  0.4835  0.4876 -2.7257
62426SOL    HW299004  11.470   5.636  13.259 -1.6092  1.0389 -0.8668
62427SOL     OW99005   7.053  13.506   1.492 -0.0074 -0.4434 -0.0812
62427SOL    HW199006   7.114  13.512   1.418 -0.0832  0.4643 -0.0817
62427SOL    HW299007   7.021  13.416   1.490  0.9049 -0.7691 -0.4268
62428SOL     OW99008   2.615   1.439  12.641  0.5267 -0.1614  0.2806
62428SOL    HW199009   2.694   1.389  12.660  0.0383 -0.9790  0.1891
62428SOL    HW299010   2.645   1.530  12.636  1.3866 -0.4153  0.6531
62429SOL     OW99011   6.552   0.133   1.506 -0.4334  0.1195  0.5514
62429SOL    HW199012   6.643   0.159   1.517 -0.0767  0.9222 -2.9883
62429SOL    HW299013   6.547   0.045   1.543  2.2157 -0.5413 -0.4706
62430SOL     OW99014   9.880   0.364   8.474  0.4026  0.0469  0.7543
62430SOL    HW199015   9.890   0.447   8.429  0.1124  0.0426  0.6802
62430SOL    HW299016   9.911   0.381   8.563 -2.5287  1.1256  1.7059
62431SOL     OW99017   7.993   3.491   8.911  0.1795 -0.3084  0.3475
62431SOL    HW199018   8.015   3.533   8.994 -1.4157  0.3832  0.4431
62431SOL    HW299019   7.936   3.554   8.867  1.3345 -0.4726 -1.4867
62432SOL     OW99020   5.148  12.638   2.173  0.3277 -0.6591 -0.0488
62432SOL    HW199021   5.194  12.574   2.226 -0.8239 -2.3253 -0.9477
62432SOL    HW299022   5.151  12.602   2.084  0.3042  0.9395 -0.7271
62433SOL     OW99023  12.014   1.112   9.758  0.0176 -0.1276 -0.0420
62433SOL    HW199024  11.959   1.055   9.705 -1.0958  1.5110 -0.7124
62433SOL    HW299025  12.053   1.173   9.695  1.1919 -0.1454  0.6521
62434SOL     OW99026   2.043   5.808   0.866 -0.5124  0.0416  0.3588
62434SOL    HW199027   1.995   5.744   0.813  0.4922 -1.3079  1.0026
62434SOL    HW299028   2.135   5.792   0.845 -0.2413  1.5992  0.2205
62435SOL     OW99029   4.822   2.093   7.222 -0.0053  0.1526 -0.5716
62435SOL    HW199030   4.827   2.060   7.312 -0.4254 -0.0229 -0.6156
62435SOL    HW299031   4.730   2.114   7.209  0.3947  2.5054 -0.1206
62436SOL     OW99032  13.681   9.327  10.582 -0.1245 -0.2495  0.3094
62436SOL    HW199033  13.695   9.255  10.520  1.8334 -0.8048  1.2954
62436SOL    HW299034  13.708   9.290  10.667 -2.4298  0.5736  1.4888
62437SOL     OW99035   9.469  13.329  11.874  0.4526 -0.0053  0.2102
62437SOL    HW199036   9.399  13.267  11.896  0.2454  0.7189  1.7104
62437SOL    HW299037   9.445  13.361  11.787 -0.8848 -0.0479  0.5436
62438SOL     OW99038   1.767  12.801   2.826  0.0265 -0.6527 -0.0334
62438SOL    HW199039   1.819  12.720   2.821  3.5155  1.2854  1.4234
62438SOL    HW299040   1.751  12.814   2.919  0.8787  1.0328 -0.0807
62439SOL     OW99041   6.954  13.675   6.365 -0.3165 -0.2400  0.3735
62439SOL    HW199042   6.864  13.649   6.343 -0.7251  1.4078 -0.0861
62439SOL    HW299043   7.009  13.621   6.309 -1.1149 -0.0441 -0.6325
62440SOL     OW99044   5.524   7.605   6.594 -0.2120 -0.3492  0.4035
62440SOL    HW199045   5.527   7.544   6.520 -0.5449 -1.1155  1.0006
62440SOL    HW299046   5.510   7.691   6.554  0.0201 -0.6960 -0.4443
62441SOL     OW99047   0.069  10.048   6.824  0.1315  0.4164 -0.1492
62441SOL    HW199048   0.079   9.968   6.772 -0.8160 -0.8854  1.5562
62441SOL    HW299049   0.153  10.059   6.869  0.6258  1.0141 -1.1809
62442SOL     OW99050   6.785  10.550   9.167 -0.2238  0.3424 -0.1751
62442SOL    HW199051   6.846  10.481   9.194 -0.6506 -0.0014 -0.0652
62442SOL    HW299052   6.718  10.550   9.235 -0.2155  0.8838 -0.1679
62443SOL     OW99053   0.113  11.182   4.541  0.0594 -0.4404  0.3133
62443SOL    HW199054   0.018  11.174   4.535 -0.0283  0.7336 -0.0953
62443SOL    HW299055   0.138  11.117   4.607 -1.1977  0.2748  1.5613
62444SOL     OW99056  11.467   5.122   4.945  0.2124  0.0395 -0.1201
62444SOL    HW199057  11.376   5.126   4.914 -0.0798  2.1347  0.8408
62444SOL    HW299058  11.505   5.206   4.918  1.5416 -0.3619  0.4410
62445SOL     OW99059  10.976   9.246   5.121 -0.1024  0.2358  0.4350
62445SOL    HW199060  10.932   9.172   5.163 -0.4176 -1.2361 -2.2493
62445SOL    HW299061  10.909   9.283   5.064  0.3233  2.0906  1.0806
62446SOL     OW99062   9.383   1.955  11.638 -0.2596 -0.1566  0.2288
62446SOL    HW199063   9.412   1.936  11.727  0.3808 -1.5821 -0.2467
62446SOL    HW299064   9.330   1.879  11.613  0.7946 -0.5026 -1.1041
62447SOL     OW99065   8.319  12.111  13.048  0.1731  0.0807  0.1788
62447SOL    HW199066   8.360  12.135  13.131 -0.4020  0.2997  0.4051
62447SOL    HW299067   8.359  12.027  13.024 -1.0145 -0.9486  1.6367
62448SOL     OW99068   8.745  11.327   7.452  0.0577 -0.1116  0.5907
62448SOL    HW199069   8.752  11.232   7.446  0.1091 -0.1030  0.5069
62448SOL    HW299070   8.704  11.354   7.369 -0.4650 -0.1110  0.8462
62449SOL     OW99071  10.024   1.216   2.712  0.3761 -0.2978  0.2294
62449SOL    HW199072   9.966   1.210   2.788  0.1013 -0.9368 -0.0184
62449SOL    HW299073   9.974   1.264   2.646  1.0015  1.1631  0.7908
62450SOL     OW99074  13.262  10.713   6.794  0.4642  0.6670  0.0255
62450SOL    HW199075  13.208  10.741   6.867  1.2166  2.4322 -0.0596
62450SOL    HW299076  13.214  10.639   6.756 -1.1100  1.2177  0.8629
62451SOL     OW99077   7.190   1.381  12.139  0.2697 -0.2728 -0.2478
62451SOL    HW199078   7.175   1.474  12.156 -1.6577 -0.4611 -0.6820
62451SOL    HW299079   7.129   1.359  12.067 -2.7708 -2.8142  2.7288
62452SOL     OW99080   5.505   2.458   5.100 -0.3396  0.9364 -0.2907
62452SOL    HW199081   5.425   2.432   5.054 -0.7002  1.7696 -0.1624
62452SOL    HW299082   5.568   2.389   5.080 -1.4758 -0.4431  0.6769
62453SOL     OW99083  13.569   7.464   8.920  0.0633  0.0296 -0.1402
62453SOL    HW199084  13.530   7.384   8.884  0.2535  0.1905 -0.7091
62453SOL    HW299085  13.522   7.478   9.002 -0.9293  0.0921 -0.7001
62454SOL     OW99086   5.970   4.864   7.306 -0.3450 -0.1183 -0.2626
62454SOL    HW199087   6.060   4.899   7.305 -0.7787  1.1128  0.5873
62454SOL    HW299088   5.981   4.769   7.311  0.9201  0.0269  0.1653
62455SOL     OW99089   0.962   3.886   7.248 -0.3799 -0.0975  0.8478
62455SOL    HW199090   1.024   3.953   7.276 -0.5493  1.1512 -1.5224
62455SOL    HW299091   0.877   3.919   7.276 -0.1244 -1.6099  3.7262
62456SOL     OW99092   1.702   7.493   8.446 -0.4412  0.2106 -0.0361
62456SOL    HW199093   1.720   7.520   8.536  1.5481  0.4663 -0.4652
62456SOL    HW299094   1.667   7.571   8.403 -1.0762  0.1793  0.4199
62457SOL     OW99095  11.140  13.493   8.401  0.2199 -0.3018  0.4295
62457SOL    HW199096  11.169  13.443   8.478 -0.4042 -2.7490 -0.8094
62457SOL    HW299097  11.044  13.489   8.405  0.1768  0.2559 -0.0371
62458SOL     OW99098   6.128   1.463   0.291  0.1023  0.2689 -0.2611
62458SOL    HW199099   6.186   1.472   0.367  0.2131  1.4683 -0.4637
62458SOL    HW299100   6.186   1.466   0.216 -0.1788  1.2995 -0.4603
62459SOL     OW99101   5.563  12.308  10.704  0.4853  0.1840  0.1709
62459SOL    HW199102   5.603  12.265  10.780 -2.5501  2.3012  3.3263
62459SOL    HW299103   5.529  12.236  10.651  1.5331 -1.4114  1.5578
62460SOL     OW99104   2.907  10.122   4.090 -0.0369 -1.0970  0.1919
62460SOL    HW199105   2.911  10.203   4.141 -0.5221  0.0054 -1.4615
62460SOL    HW299106   2.814  10.105   4.080  0.0582 -1.4484 -0.0957
62461SOL     OW99107   7.154   0.793   8.618  0.1734  0.6557  0.2180
62461SOL    HW199108   7.104   0.714   8.596  2.8512 -0.9211 -0.7165
62461SOL    HW299109   7.181   0.779   8.709 -0.5314  1.2105  0.5199
62462SOL     OW99110  13.041   7.315   0.864  0.0323  0.5139 -0.3003
62462SOL    HW199111  13.044   7.283   0.774 -0.1151 -2.0622  0.5454
62462SOL    HW299112  13.131   7.308   0.895 -0.1396  0.2334  0.1334
62463SOL     OW99113   3.268   7.453   8.788 -0.2006 -0.5430  0.1948
62463SOL    HW199114   3.223   7.491   8.712 -1.6013 -3.5490 -0.6138
62463SOL    HW299115   3.214   7.477   8.863  0.4366  1.2698  0.1249
62464SOL     OW99116   2.162   5.448   7.106 -0.1568 -0.0827 -0.4984
62464SOL    HW199117   2.139   5.538   7.082 -2.4021  0.0559  1.7090
62464SOL    HW299118   2.105   5.394   7.051  0.1198 -0.1066 -0.7657
62465SOL     OW99119  12.314   2.173  12.953 -0.4908 -0.3144 -0.1082
62465SOL    HW199120  12.330   2.211  12.866  0.1287  0.8315  0.4775
62465SOL    HW299121  12.390   2.200  13.005  0.4886 -3.2057  0.1289
62466SOL     OW99122   2.931   7.246   8.920  0.4493  0.1888 -0.3626
62466SOL    HW199123   2.893   7.242   8.832  0.1442  1.2263 -0.2834
62466SOL    HW299124   2.984   7.325   8.920 -0.3327  0.7425  0.6838
62467SOL     OW99125  10.936   9.877   8.497 -0.4040 -0.1195  0.1470
62467SOL    HW199126  10.954   9.824   8.575 -1.1468 -0.1836  0.2830
62467SOL    HW299127  10.840   9.874   8.487 -0.6741  2.5614  1.1386
62468SOL     OW99128   3.331   5.053   7.618 -0.0783 -0.3956  0.1783
62468SOL    HW199129   3.401   4.996   7.587 -2.0480 -1.6440 -2.3613
62468SOL    HW299130   3.303   5.015   7.701  1.4711 -0.5173  0.6725
62469SOL     OW99131  12.827   7.068   6.750  0.1243 -0.1476  0.5042
62469SOL    HW199132  12.765   6.997   6.766  0.2352 -0.5583 -0.8074
62469SOL    HW299133  12.813   7.129   6.823 -1.9154 -0.1531  0.1694
62470SOL     OW99134   2.623   1.308   3.042 -0.3447  0.7997 -0.4618
62470SOL    HW199135   2.589   1.234   3.092 -0.3309  1.1016  0.0042
62470SOL    HW299136   2.643   1.374   3.108  0.9282  0.7156 -0.7474
62471SOL     OW99137  12.274   9.764   3.955 -0.1249 -0.0787 -0.0456
62471SOL    HW199138  12.284   9.842   4.010 -0.3640 -0.1334  0.0749
62471SOL    HW299139  12.196   9.781   3.903 -1.3382 -1.0634  1.3666
62472SOL     OW99140  13.141  11.582  10.671  1.2057 -0.4295 -0.2632
62472SOL    HW199141  13.222  11.588  10.620  2.0095  2.4395  1.1458
62472SOL    HW299142  13.078  11.544  10.610  3.0719 -0.7521 -2.1150
62473SOL     OW99143   1.777  12.219   4.758 -0.3357  0.9145 -0.4246
62473SOL    HW199144   1.834  12.155   4.801 -0.1231  0.7057 -1.0078
62473SOL    HW299145   1.836  12.269   4.702 -0.7462  0.5753 -1.1758
62474SOL     OW99146   3.379   7.172   0.253 -0.0561  0.5856 -0.2331
62474SOL    HW199147   3.393   7.159   0.159 -0.6674 -0.0609 -0.2416
62474SOL    HW299148   3.352   7.263   0.262 -3.3070 -0.1900 -1.0907
62475SOL     OW99149   0.949   0.305  13.348 -0.1763  0.3186  0.1401
62475SOL    HW199150   0.993   0.390  13.340 -0.9726  0.7180 -0.0813
62475SOL    HW299151   1.004   0.256  13.409  1.2301  0.3679 -1.0227
62476SOL     OW99152  11.649   7.561   1.970 -0.4006  0.4552  0.0255
62476SOL    HW199153  11.597   7.547   1.891  0.6988  0.1864 -0.6682
62476SOL    HW299154  11.680   7.473   1.993  2.6801  0.9887 -1.6511
62477SOL     OW99155  10.998  11.363   1.101 -0.5163 -0.0828  0.2562
62477SOL    HW199156  11.042  11.285   1.134 -0.8268  0.6832  2.7628
62477SOL    HW299157  11.066  11.429   1.096  0.0415 -0.7370 -3.2035
62478SOL     OW99158   9.220   4.551   4.660  0.0168  0.3619  0.1885
62478SOL    HW199159   9.290   4.504   4.615 -1.3128 -0.7743 -0.7972
62478SOL    HW299160   9.173   4.483   4.709 -0.3178  1.1275  0.9656
62479SOL     OW99161   9.258   7.747   5.814 -0.5843 -0.4408  0.5624
62479SOL    HW199162   9.240   7.732   5.721  0.4435  0.0073  0.2718
62479SOL    HW299163   9.184   7.709   5.859 -0.1271 -2.5406 -0.3339
62480SOL     OW99164  10.679  11.862   3.274  0.2957  0.1409 -0.1884
62480SOL    HW199165  10.627  11.919   3.331  0.1655 -0.1461 -0.0206
62480SOL    HW299166  10.706  11.789   3.331 -0.0133 -0.2555 -0.5499
62481SOL     OW99167   9.449   4.787  10.431 -0.4578 -0.8260  0.6457
62481SOL    HW199168   9.511   4.845  10.474  0.7872 -1.0764 -0.7537
62481SOL    HW299169   9.373   4.787  10.490 -0.0151  1.1922  1.3193
62482SOL     OW99170  11.898   4.309   4.252  0.4930  0.0758 -0.4345
62482SOL    HW199171  11.928   4.316   4.161  0.3456  0.6268 -0.4482
62482SOL    HW299172  11.806   4.337   4.249  0.6531  0.6668 -0.0270
62483SOL     OW99173   2.412   5.602   6.429  0.1263  0.6632  0.2179
62483SOL    HW199174   2.362   5.609   6.347  1.0165  1.2182 -0.2889
62483SOL    HW299175   2.348   5.572   6.494 -1.1266  2.3772 -0.1707
62484SOL     OW99176  10.498   1.179   8.806 -0.0156 -0.5095 -0.1173
62484SOL    HW199177  10.501   1.265   8.848  1.2209  0.0788 -1.3288
62484SOL    HW299178  10.407   1.168   8.780 -0.1261  0.6128 -0.2739
62485SOL     OW99179   2.820   4.995  11.449  0.7322  0.3368  0.1701
62485SOL    HW199180   2.888   5.047  11.405  2.0608  0.0877  1.8142
62485SOL    HW299181   2.809   5.038  11.534 -0.1213 -0.4916  0.4869
62486SOL     OW99182  11.318   2.314   0.842  0.2374  0.2436 -0.2098
62486SOL    HW199183  11.316   2.399   0.799 -1.0617 -0.0050 -0.6888
62486SOL    HW299184  11.302   2.251   0.772  4.2356 -0.7358 -0.4721
62487SOL     OW99185   9.847   0.600   6.018 -0.0831  0.0394  0.4484
62487SOL    HW199186   9.933   0.566   5.997 -0.1201 -2.0708  3.1298
62487SOL    HW299187   9.789   0.563   5.952  0.7176 -0.5857  0.0922
62488SOL     OW99188   9.578  10.891   2.270  0.5935 -0.6569  0.0405
62488SOL    HW199189   9.531  10.957   2.321  1.1016  2.2518 -2.9237
62488SOL    HW299190   9.512  10.825   2.249 -0.2530 -0.5129  2.0599
62489SOL     OW99191   0.787  12.256   5.829  0.3029 -0.0697 -0.5557
62489SOL    HW199192   0.757  12.339   5.791 -2.8554 -0.4309  0.8495
62489SOL    HW299193   0.752  12.189   5.771 -2.4017 -0.5300  1.4357
62490SOL     OW99194   9.004   5.800  10.805  0.1830  1.0157  1.3601
62490SOL    HW199195   8.970   5.858  10.874 -1.6149  0.0859  1.3024
62490SOL    HW299196   9.026   5.719  10.851 -0.0577  0.7404  0.9889
62491SOL     OW99197  12.727   1.960   7.777 -0.3256 -0.1877 -0.3812
62491SOL    HW199198  12.724   1.889   7.842 -0.0482  0.2154  0.0760
62491SOL    HW299199  12.785   1.926   7.709  0.9594  0.1344  0.5038
62492SOL     OW99200   8.426   4.418   6.370  0.1811  0.2593  0.3054
62492SOL    HW199201   8.492   4.353   6.349 -0.8684 -0.7256 -0.0515
62492SOL    HW299202   8.392   4.392   6.456 -0.6752 -0.0537 -0.1137
62493SOL     OW99203   4.775   9.586  11.377  0.1055  0.7144 -0.1491
62493SOL    HW199204   4.701   9.640  11.405 -0.5877 -0.7768  0.9506
62493SOL    HW299205   4.735   9.509  11.336  0.9657 -0.8282  1.7681
62494SOL     OW99206   6.038  13.723  11.149 -0.2431 -0.1780 -0.5105
62494SOL    HW199207   6.084  13.779  11.086  0.9125  0.2150  0.6326
62494SOL    HW299208   6.092  13.644  11.154 -1.3274 -1.0074 -1.3661
62495SOL     OW99209  12.470   2.330   2.928  0.1928  0.7525  0.2426
62495SOL    HW199210  12.428   2.244   2.919  0.1442  0.6254  1.5043
62495SOL    HW299211  12.408   2.392   2.890 -0.3732  0.3737  0.5335
62496SOL     OW99212   5.555   4.450   7.468  0.1087 -0.3375  0.5627
62496SOL    HW199213   5.645   4.481   7.475 -0.1543  0.5372  0.1963
62496SOL    HW299214   5.514   4.477   7.551 -0.2189  0.6667  0.0922
62497SOL     OW99215   9.925  12.998   7.389  0.2585 -0.2018  0.3039
62497SOL    HW199216   9.831  12.977   7.396  0.1433  0.2741  0.1908
62497SOL    HW299217   9.963  12.921   7.346 -0.4059  0.4208 -1.5022
62498SOL     OW99218   6.565  11.564   1.452  0.6171 -0.0795  0.7426
62498SOL    HW199219   6.613  11.627   1.507  0.7772 -0.7387  1.3851
62498SOL    HW299220   6.634  11.513   1.409  0.4921  0.4983 -0.1679
62499SOL     OW99221  10.489  13.633   6.655  0.3533  0.6741  0.4281
62499SOL    HW199222  10.524  13.582   6.582 -1.5921 -0.6962  0.3680
62499SOL    HW299223  10.409  13.673   6.620  1.4952  3.4003  0.6483
62500SOL     OW99224   0.280  12.216   4.231 -0.0332 -0.2879 -0.4434
62500SOL    HW199225   0.363  12.193   4.191  0.2780  2.1846 -1.3561
62500SOL    HW299226   0.303  12.256   4.315 -0.2986  0.3112 -0.6496
62501SOL     OW99227   2.563  11.054   6.889 -0.0866 -0.1759 -0.1182
62501SOL    HW199228   2.585  10.988   6.823  2.2806  1.0860 -0.7077
62501SOL    HW299229   2.584  11.013   6.972  2.6714  0.1778 -0.5446
62502SOL     OW99230  12.196   5.954  13.281 -0.1352 -0.2101  0.1388
62502SOL    HW199231  12.128   6.021  13.283  0.5170  0.5644 -1.4998
62502SOL    HW299232  12.168   5.894  13.212  0.4517 -0.3008 -0.0272
62503SOL     OW99233   1.299  11.745   8.766 -0.1855  0.4678  0.4104
62503SOL    HW199234   1.313  11.709   8.678 -0.7440 -1.8372  1.1877
62503SOL    HW299235   1.307  11.839   8.755  0.4815  0.2002 -1.9761
62504SOL     OW99236  12.210   4.367   7.363  0.5220 -0.4522 -0.0705
62504SOL    HW199237  12.216   4.376   7.268 -0.2724 -0.2607 -0.1122
62504SOL    HW299238  12.132   4.417   7.387 -0.5135 -2.2065  0.4191
62505SOL     OW99239   1.637   8.692   0.645 -0.4232 -0.6957 -0.1330
62505SOL    HW199240   1.548   8.727   0.643 -0.3616 -0.5760 -0.7220
62505SOL    HW299241   1.692   8.769   0.658 -0.3940 -0.7634  0.1693
62506SOL     OW99242   1.585   4.201  13.087  0.0597  0.4008  0.1344
62506SOL    HW199243   1.496   4.169  13.101 -0.0603  0.7497  0.1722
62506SOL    HW299244   1.615   4.155  13.008 -0.9307  1.8730 -1.1349
62507SOL     OW99245   1.589  13.043  13.695  0.0666  0.1190  0.1397
62507SOL    HW199246   1.572  13.108  13.626 -1.3590  0.8986  1.1714
62507SOL    HW299247   1.676  13.008  13.673  0.0850  1.0444 -1.4812
62508SOL     OW99248   6.712   5.255   7.978 -0.2846 -0.4232 -1.0290
62508SOL    HW199249   6.695   5.226   7.889 -2.0253 -0.4454 -0.7291
62508SOL    HW299250   6.693   5.178   8.032 -1.9297  0.3247 -0.4700
62509SOL     OW99251   8.865   0.645  12.496 -0.2312 -0.2673  0.1712
62509SOL    HW199252   8.949   0.687  12.515  0.2311 -1.7462  1.5830
62509SOL    HW299253   8.881   0.591  12.419  0.2911 -1.0061  0.7909
62510SOL     OW99254   4.496   1.704   3.769 -0.3846  0.0016  0.2248
62510SOL    HW199255   4.547   1.642   3.717 -0.2656  0.8582 -0.6882
62510SOL    HW299256   4.408   1.667   3.770 -0.5580  0.3265 -1.1863
62511SOL     OW99257  12.870  12.249   6.310 -0.6737 -0.6190 -0.0400
62511SOL    HW199258  12.879  12.281   6.220  1.0925  2.2267  1.0359
62511SOL    HW299259  12.777  12.263   6.331 -0.8152 -0.0851 -0.9737
62512SOL     OW99260   0.951   8.627  10.058  0.2272 -0.3321 -0.3122
62512SOL    HW199261   0.859   8.638  10.035  0.4409  0.5484 -0.7867
62512SOL    HW299262   0.963   8.680  10.137  0.1158 -1.2134  0.3108
62513SOL     OW99263   3.595   2.003  11.080  0.2788  0.3005  0.0924
62513SOL    HW199264   3.667   1.942  11.068  0.5729  0.8509 -1.1410
62513SOL    HW299265   3.529   1.954  11.131  0.5428 -0.9942 -0.7721
62514SOL     OW99266   2.825  10.565   2.300  0.0733 -0.0957  0.0898
62514SOL    HW199267   2.890  10.534   2.237 -0.8827 -1.1332 -0.4197
62514SOL    HW299268   2.759  10.610   2.246 -0.9667 -1.3573  0.2545
62515SOL     OW99269   5.488   0.777   0.798  0.2584 -0.4141 -0.7750
62515SOL    HW199270   5.463   0.745   0.712  0.6349  1.7514 -1.7754
62515SOL    HW299271   5.432   0.854   0.812  1.2989  0.2090  0.1723
62516SOL     OW99272   2.741  12.302   0.743 -0.2318  0.2516  0.5598
62516SOL    HW199273   2.814  12.241   0.729 -1.1486 -1.0164  1.1302
62516SOL    HW299274   2.678  12.252   0.795 -1.1925  1.5712  0.7002
62517SOL     OW99275   4.731  10.792   7.393 -0.1233  0.1385 -0.0301
62517SOL    HW199276   4.819  10.829   7.405  0.3285 -0.7888 -0.3542
62517SOL    HW299277   4.703  10.768   7.482  0.4901 -0.7083 -0.0456
62518SOL     OW99278  11.254  12.667   3.973  0.1462 -0.5663 -0.4045
62518SOL    HW199279  11.201  12.744   3.954 -0.5603 -0.9212  0.1119
62518SOL    HW299280  11.337  12.702   4.006 -0.6653 -0.0279  1.1592
62519SOL     OW99281  10.174   0.993   3.822  0.0014  0.2914 -0.1318
62519SOL    HW199282  10.191   1.030   3.908 -0.3338 -2.5868  1.2829
62519SOL    HW299283  10.233   1.041   3.763  2.1846  0.5619  2.1241
62520SOL     OW99284   2.279  11.145   8.658 -0.2080 -0.2394  0.1133
62520SOL    HW199285   2.334  11.142   8.580 -0.0982 -0.3125  0.1931
62520SOL    HW299286   2.198  11.101   8.632 -0.0560 -0.5356  0.1311
62521SOL     OW99287  12.486  12.268   4.301  0.1607 -1.0203 -0.3074
62521SOL    HW199288  12.390  12.273   4.304  0.2015  1.1096 -0.9981
62521SOL    HW299289  12.504  12.189   4.249 -1.2264 -1.1585 -0.6193
62522SOL     OW99290   7.823   1.511   3.329  0.0019 -0.2262 -0.6623
62522SOL    HW199291   7.899   1.494   3.386  0.3011  2.7820 -0.0166
62522SOL    HW299292   7.862   1.532   3.244  0.0089  1.8659 -0.1916
62523SOL     OW99293  12.465  11.533   7.341  0.4749 -0.4281 -0.3940
62523SOL    HW199294  12.499  11.444   7.349 -0.5247 -0.8263 -0.3766
62523SOL    HW299295  12.373  11.525   7.367  0.2968  0.5516 -0.7010
62524SOL     OW99296   5.755   6.631   8.548 -0.6199 -0.4478 -0.4094
62524SOL    HW199297   5.836   6.681   8.539 -2.3019  2.4836 -0.3499
62524SOL    HW299298   5.719   6.630   8.459 -0.9045 -1.0504 -0.2876
62525SOL     OW99299  12.349   8.327   0.734 -0.0257 -0.7907 -0.0076
62525SOL    HW199300  12.408   8.359   0.802  0.6635  1.5210 -1.5502
62525SOL    HW299301  12.405   8.275   0.676  0.0456 -0.3355 -0.3514
62526SOL     OW99302   6.960  12.924   7.804 -0.3911 -0.1385  0.2162
62526SOL    HW199303   6.986  12.856   7.742  0.0785  1.3086 -1.2127
62526SOL    HW299304   6.895  12.976   7.757 -0.4025  0.6978  1.1292
62527SOL     OW99305   4.973   7.596   8.317 -0.5526  0.3840  0.6194
62527SOL    HW199306   4.903   7.628   8.373 -1.3357  1.2337 -0.7848
62527SOL    HW299307   5.020   7.674   8.289  0.7016 -0.1401  1.1722
62528SOL     OW99308   6.538   2.453  12.052 -0.1444 -0.2584 -0.7192
62528SOL    HW199309   6.620   2.442  12.006  0.4073 -1.1691  0.4307
62528SOL    HW299310   6.544   2.540  12.092 -0.2370  0.1449 -1.5685
62529SOL     OW99311   6.441  11.248   6.274 -0.4635 -0.1097  0.1064
62529SOL    HW199312   6.372  11.308   6.302  0.5618  0.2412  2.0515
62529SOL    HW299313   6.414  11.163   6.307  0.0353  0.0321  0.8890
62530SOL     OW99314   0.435   8.669   7.737 -0.1741  0.3875  0.1857
62530SOL    HW199315   0.425   8.679   7.832 -1.6561  1.7214 -0.0497
62530SOL    HW299316   0.483   8.587   7.726 -1.8256 -0.9412  2.0476
62531SOL     OW99317   2.792   7.877   8.308 -0.0666 -0.7105 -0.0129
62531SOL    HW199318   2.848   7.953   8.327 -0.8277 -0.0903 -0.1873
62531SOL    HW299319   2.840   7.827   8.243 -0.6719  0.9741 -1.8354
62532SOL     OW99320   0.709  10.015  12.018 -0.0404 -0.4036  0.2600
62532SOL    HW199321   0.713  10.072  12.095  0.9312  0.4129 -0.3629
62532SOL    HW299322   0.636   9.956  12.035 -0.3129  0.2548  1.4667
62533SOL     OW99323   6.810   9.468   6.326 -0.6381  0.6460  0.6992
62533SOL    HW199324   6.770   9.511   6.250  0.4188  1.9625  0.8384
62533SOL    HW299325   6.851   9.540   6.374  0.5204 -0.4465  1.3889
62534SOL     OW99326   3.587  10.277   4.988 -0.4093 -0.5722  0.2304
62534SOL    HW199327   3.578  10.245   5.078  0.3430  0.6781  0.7798
62534SOL    HW299328   3.659  10.340   4.992  1.3673 -2.3416 -1.7777
62535SOL     OW99329   7.078   0.879  12.167  0.8236 -0.3861 -0.7426
62535SOL    HW199330   7.085   0.801  12.112 -2.5867  0.0851 -2.1548
62535SOL    HW299331   7.053   0.846  12.253  0.7474 -0.9059 -0.9623
62536SOL     OW99332   6.871  10.872   2.300 -0.2648 -0.1951  0.9531
62536SOL    HW199333   6.880  10.898   2.391 -0.9951 -1.1716  1.3195
62536SOL    HW299334   6.820  10.791   2.303  2.1838 -1.9064 -0.0771
62537SOL     OW99335  11.152   5.805   6.880 -0.6503  0.2006  0.2643
62537SOL    HW199336  11.177   5.873   6.817  0.6544  0.5642  1.1318
62537SOL    HW299337  11.115   5.853   6.954 -0.7864 -0.1246  0.4081
62538SOL     OW99338   1.939   6.388   0.446  0.0046 -1.0218 -0.3037
62538SOL    HW199339   1.902   6.471   0.476  1.1646 -1.2238  1.8784
62538SOL    HW299340   2.004   6.413   0.380  0.6316 -0.1399  0.6213
62539SOL     OW99341  10.280   9.715   8.994  0.4628 -0.4404 -0.2601
62539SOL    HW199342  10.268   9.781   8.926 -0.3667  0.5322  0.7857
62539SOL    HW299343  10.201   9.660   8.988  0.7060 -0.7641 -0.5133
62540SOL     OW99344   3.721   1.239   7.532  0.3116  0.1242 -0.3810
62540SOL    HW199345   3.669   1.319   7.526 -0.3446 -0.1573  1.0130
62540SOL    HW299346   3.674   1.176   7.477  0.1174  0.3385 -0.4619
62541SOL     OW99347  12.457  10.611  10.026 -0.1436  0.3284 -0.4650
62541SOL    HW199348  12.550  10.634  10.029 -0.1714  0.4774 -0.6893
62541SOL    HW299349  12.422  10.663   9.955 -0.8986  2.0745  1.1126
62542SOL     OW99350   1.814   4.728  10.174  0.2338 -0.1864 -0.1104
62542SOL    HW199351   1.801   4.673  10.097  0.4054 -1.4083  0.7014
62542SOL    HW299352   1.777   4.813  10.150 -1.3150 -1.0531 -0.9022
62543SOL     OW99353   0.695   1.172   6.538 -0.4807 -0.3450 -0.6131
62543SOL    HW199354   0.776   1.176   6.589 -0.6528 -1.2631 -0.2599
62543SOL    HW299355   0.656   1.259   6.548  0.1054 -0.1256 -0.1967
62544SOL     OW99356   6.027  11.927   7.077 -0.6094  0.1938 -0.3232
62544SOL    HW199357   6.007  12.008   7.030  0.6689  1.1310  0.6795
62544SOL    HW299358   6.119  11.935   7.101 -0.6591 -1.2352  0.4505
62545SOL     OW99359  11.364   9.484   9.873  0.3953 -0.7279  0.0548
62545SOL    HW199360  11.434   9.419   9.878  0.0193 -1.0945  0.8795
62545SOL    HW299361  11.389   9.552   9.935  0.3050 -0.5794 -0.0719
62546SOL     OW99362  10.048   5.801   4.703  0.3208 -0.1812 -0.2019
62546SOL    HW199363  10.003   5.885   4.706 -1.3358 -0.9712 -1.5392
62546SOL    HW299364   9.978   5.736   4.692  1.6492 -1.6070 -0.6250
62547SOL     OW99365  10.030   3.359  12.930 -0.2427  0.1486  0.1015
62547SOL    HW199366  10.080   3.386  13.007 -0.1949  0.1260  0.0784
62547SOL    HW299367  10.084   3.386  12.855 -0.0346 -0.3189  0.0821
62548SOL     OW99368  11.662   0.900   7.051 -0.0554  0.1162  0.0686
62548SOL    HW199369  11.755   0.910   7.070 -0.2648  2.2952  0.1513
62548SOL    HW299370  11.646   0.806   7.059  2.5089 -0.6001 -1.7867
62549SOL     OW99371   6.460   0.094   8.603 -0.4495 -0.4330  0.9248
62549SOL    HW199372   6.382   0.050   8.638 -1.3869  0.0993 -0.4040
62549SOL    HW299373   6.432   0.126   8.517  1.3513 -0.5368  0.2662
62550SOL     OW99374  13.656  10.589   0.440 -0.1888  0.8492 -0.0605
62550SOL    HW199375  13.577  10.636   0.414 -0.7791 -0.5169 -0.8953
62550SOL    HW299376  13.650  10.583   0.536 -0.9500  1.0337 -0.0865
62551SOL     OW99377   3.116   0.290   9.846  0.2444  0.2062 -0.1491
62551SOL    HW199378   3.058   0.264   9.918 -0.1047  3.2871  0.8431
62551SOL    HW299379   3.059   0.290   9.769 -0.7480  1.6072  0.5247
62552SOL     OW99380   1.647   7.687   3.271  0.0218  0.1524 -0.3847
62552SOL    HW199381   1.711   7.735   3.219  0.1270 -1.9874 -2.3736
62552SOL    HW299382   1.690   7.673   3.355  1.6729 -0.1730 -1.2533
62553SOL     OW99383   4.291   1.775   9.573  0.9273 -0.3842  0.2436
62553SOL    HW199384   4.352   1.707   9.544  0.2688 -0.3812 -1.2362
62553SOL    HW299385   4.290   1.839   9.502 -0.9163 -0.4737  0.1311
62554SOL     OW99386  10.476   3.010   3.734 -0.4137 -0.2177  0.1515
62554SOL    HW199387  10.558   3.000   3.686 -1.2656 -0.1462 -1.4022
62554SOL    HW299388  10.408   2.995   3.668 -1.6497  0.3721  1.2426
62555SOL     OW99389   0.056  12.526  11.526 -0.5579  0.4375 -0.1550
62555SOL    HW199390  -0.009  12.514  11.457 -0.6726 -0.6279  0.1213
62555SOL    HW299391   0.057  12.443  11.574  0.5475  0.6527  0.2433
62556SOL     OW99392  11.637  13.232   1.904  0.3453  0.7924 -1.0316
62556SOL    HW199393  11.711  13.252   1.961 -0.3163  2.0771 -0.5964
62556SOL    HW299394  11.669  13.252   1.816  0.8674  0.2635 -0.9717
62557SOL     OW99395   9.850   6.107   0.244  0.1396  0.2995 -0.1292
62557SOL    HW199396   9.897   6.168   0.301  0.6182  0.9910 -1.2320
62557SOL    HW299397   9.762   6.144   0.236  0.0943  0.2422  0.0900
62558SOL     OW99398   8.240  10.997  12.516  0.2200 -0.0835 -0.0260
62558SOL    HW199399   8.169  11.052  12.550  1.7522  1.9105  0.1626
62558SOL    HW299400   8.197  10.938  12.453 -1.3141  2.7343 -1.8566
62559SOL     OW99401   0.919  12.716  11.661 -0.7278  0.0401 -0.2761
62559SOL    HW199402   0.961  12.714  11.747 -0.8242  0.0143 -0.2304
62559SOL    HW299403   0.911  12.810  11.640  0.7908  0.0470 -0.9829
62560SOL     OW99404  12.286   4.337   3.822 -0.2716  0.4721  0.4107
62560SOL    HW199405  12.283   4.356   3.916  0.7426 -0.4735  0.6577
62560SOL    HW299406  12.290   4.241   3.817  3.1594  0.5048 -0.3867
62561SOL     OW99407  12.130   7.181  10.561  0.5397  0.3114 -0.9393
62561SOL    HW199408  12.072   7.254  10.539 -0.4239  0.3326  1.4808
62561SOL    HW299409  12.215   7.206  10.522 -0.1810  1.9126 -1.5615
62562SOL     OW99410   7.218   6.755   7.913 -0.0364 -0.3243  0.1858
62562SOL    HW199411   7.257   6.832   7.872  2.5369 -0.6402  1.7848
62562SOL    HW299412   7.198   6.783   8.002  1.2824 -1.5145  0.9066
62563SOL     OW99413   8.960   5.620   4.205 -0.2302 -0.3951 -0.1030
62563SOL    HW199414   8.868   5.595   4.200 -0.4319  0.4550 -0.9034
62563SOL    HW299415   8.992   5.577   4.285 -0.7920 -2.3570 -0.8832
62564SOL     OW99416   6.108   5.994   5.126  0.2586  0.0751  0.3298
62564SOL    HW199417   6.038   5.929   5.119  1.3644 -1.3460  1.6151
62564SOL    HW299418   6.189   5.943   5.118  1.1828  1.6714 -1.1725
62565SOL     OW99419   2.702  10.812  10.449  0.4434  0.0716 -0.2782
62565SOL    HW199420   2.767  10.743  10.436 -1.4253 -1.4850 -2.1310
62565SOL    HW299421   2.657  10.788  10.530  0.3230 -0.4725 -0.5003
62566SOL     OW99422   5.572   6.718   7.187 -0.4269  0.1718  0.0687
62566SOL    HW199423   5.534   6.751   7.268 -1.3324  1.6960 -0.9157
62566SOL    HW299424   5.656   6.680   7.213 -0.6581  0.6992  1.6859
62567SOL     OW99425   9.006   4.226  10.020 -0.5770 -0.0773  0.4126
62567SOL    HW199426   8.952   4.174  10.080  0.2481  0.0892  1.3259
62567SOL    HW299427   9.096   4.206  10.045 -0.2264  0.4510 -0.3864
62568SOL     OW99428   1.002  13.135  10.767 -0.2320 -0.1642 -0.5737
62568SOL    HW199429   0.997  13.100  10.856 -0.5862  0.5841 -0.2915
62568SOL    HW299430   0.965  13.223  10.773  1.2835  0.5579 -1.1185
62569SOL     OW99431   2.800   4.526   0.887 -0.1545 -0.0093 -0.4176
62569SOL    HW199432   2.723   4.582   0.892 -0.6554 -0.7280  0.2174
62569SOL    HW299433   2.769   4.447   0.843  0.0063 -0.6333  0.5611
62570SOL     OW99434   8.811  13.515  11.987 -0.2199 -0.3567  0.6012
62570SOL    HW199435   8.717  13.528  11.970 -0.9522 -2.9513  2.1472
62570SOL    HW299436   8.839  13.596  12.030 -1.3352  1.0686 -1.2035
62571SOL     OW99437   2.917   7.264   2.818 -0.5586  0.1102  0.0966
62571SOL    HW199438   2.973   7.243   2.892 -2.7451 -3.1274  1.0627
62571SOL    HW299439   2.975   7.259   2.742  1.3837  1.8482  1.3694
62572SOL     OW99440  10.081   8.799  11.275  0.3679  0.2207  0.0314
62572SOL    HW199441   9.995   8.841  11.280  0.2600  0.2286 -1.6025
62572SOL    HW299442  10.130   8.852  11.212  0.7544 -1.2016 -0.8886
62573SOL     OW99443   6.898   2.667  10.666  0.0614  0.0293 -0.3631
62573SOL    HW199444   6.882   2.573  10.671 -1.5190  0.3156  0.5031
62573SOL    HW299445   6.947   2.687  10.746  1.1288 -0.1543 -0.9430
62574SOL     OW99446  10.424   3.870  10.725  0.3873  0.1616 -0.6388
62574SOL    HW199447  10.391   3.944  10.776 -0.5276 -1.5698  1.4728
62574SOL    HW299448  10.519   3.884  10.721  0.6684 -0.1019  2.5613
62575SOL     OW99449   4.619  10.892   6.886  1.1335  0.6196  0.2359
62575SOL    HW199450   4.567  10.955   6.836  0.3066  0.0206  0.3241
62575SOL    HW299451   4.608  10.918   6.977 -0.0820 -0.2644  0.3638
62576SOL     OW99452   0.453   7.552   5.478  0.4094  0.5105  0.1374
62576SOL    HW199453   0.401   7.472   5.470 -0.2454  0.9498 -0.0850
62576SOL    HW299454   0.499   7.543   5.562 -0.3099  0.2769  0.5132
62577SOL     OW99455   6.554  11.095   5.547  0.1809 -0.3690 -0.0108
62577SOL    HW199456   6.460  11.073   5.543 -0.0252  0.3355  0.8005
62577SOL    HW299457   6.573  11.104   5.640  1.4615 -2.1088 -0.0711
62578SOL     OW99458  11.694  13.220  11.767  0.5821  0.1652 -0.1302
62578SOL    HW199459  11.727  13.299  11.726  1.3281 -0.2615 -0.3612
62578SOL    HW299460  11.766  13.187  11.820  0.0241  0.0568  0.5818
62579SOL     OW99461  11.154   0.978   3.578  0.0786  0.0766  0.5112
62579SOL    HW199462  11.201   1.051   3.618 -1.3191  1.7064 -0.6747
62579SOL    HW299463  11.189   0.900   3.622  1.1308  1.4819  2.3211
62580SOL     OW99464   2.410   3.929  11.778 -0.2558  0.1710  0.6418
62580SOL    HW199465   2.438   3.910  11.688 -0.1271 -1.2523  0.9679
62580SOL    HW299466   2.370   3.848  11.809 -1.8093  1.1531  1.3285
62581SOL     OW99467  11.542   6.510   5.596  0.1463 -0.0398 -0.1853
62581SOL    HW199468  11.598   6.580   5.632 -0.1177  0.2246 -0.2880
62581SOL    HW299469  11.582   6.429   5.628  0.8329  0.1265 -0.5895
62582SOL     OW99470  13.728   1.223  13.012 -0.0521 -0.1708  0.3219
62582SOL    HW199471  13.637   1.250  13.018  0.4761  1.5700  0.9931
62582SOL    HW299472  13.769   1.257  13.091  1.4977  0.4200 -0.6819
62583SOL     OW99473   8.830   9.833   6.397  0.2540 -0.1595 -0.1550
62583SOL    HW199474   8.881   9.850   6.476  0.7066 -1.8449 -0.0280
62583SOL    HW299475   8.820   9.738   6.396 -2.4147  0.0646 -0.5030
62584SOL     OW99476   8.154   7.809   9.040 -0.0001 -0.4406  0.1489
62584SOL    HW199477   8.127   7.793   9.130 -0.4483  1.4739  0.4086
62584SOL    HW299478   8.249   7.799   9.041  0.2976  1.8879  1.4364
62585SOL     OW99479   6.675   4.802  12.093  0.3249  0.1629 -0.6897
62585SOL    HW199480   6.652   4.886  12.052 -0.5627 -0.0016 -0.5368
62585SOL    HW299481   6.593   4.769  12.128  0.2051 -1.8090 -2.6453
62586SOL     OW99482  11.708  11.753  10.575 -0.5778  0.1003 -0.0400
62586SOL    HW199483  11.700  11.826  10.637 -2.3897 -0.4284  0.4065
62586SOL    HW299484  11.691  11.675  10.628 -0.1079 -0.5433 -0.8106
62587SOL     OW99485  10.765  12.651   5.230  0.5947  0.4144  0.5688
62587SOL    HW199486  10.798  12.735   5.197  0.7107 -0.0709 -0.6069
62587SOL    HW299487  10.815  12.586   5.181 -0.4313 -0.3311  0.4999
62588SOL     OW99488   2.855   9.568   1.963 -0.1970  1.0517 -0.0813
62588SOL    HW199489   2.760   9.573   1.951 -0.2201  2.5486  0.5420
62588SOL    HW299490   2.868   9.488   2.014 -1.1231  0.8666 -0.1037
62589SOL     OW99491  13.721   2.955   7.316  0.3962 -0.3581 -0.3579
62589SOL    HW199492  13.732   3.033   7.261  0.4228 -0.8487 -1.0607
62589SOL    HW299493  13.784   2.967   7.387 -0.0427  0.5670 -0.1049
62590SOL     OW99494   4.476   7.532  11.260 -0.1295  0.5432  0.6431
62590SOL    HW199495   4.436   7.495  11.339 -0.9853 -2.1126 -0.8867
62590SOL    HW299496   4.552   7.475  11.243 -0.6722  0.2611 -1.0781
62591SOL     OW99497   3.013  12.277   9.340 -0.3369  0.5233  0.2836
62591SOL    HW199498   3.069  12.282   9.263  0.4450  1.0762  0.8804
62591SOL    HW299499   3.069  12.243   9.409 -0.5667  1.6184  1.0281
62592SOL     OW99500   3.526   5.507  11.673 -0.0876 -0.6108 -0.5946
62592SOL    HW199501   3.510   5.436  11.736  0.4067 -1.5256 -1.4755
62592SOL    HW299502   3.477   5.481  11.595  0.5689 -0.2780 -1.1230
62593SOL     OW99503   9.084  12.327   8.483  0.5082  0.1439 -0.1964
62593SOL    HW199504   9.054  12.400   8.538 -0.9571 -0.0671 -0.6636
62593SOL    HW299505   9.004  12.296   8.440  1.6048  0.4993 -2.6795
62594SOL     OW99506   2.106   4.859   1.150  0.1998  0.2897 -0.0392
62594SOL    HW199507   2.159   4.793   1.194  2.4882  1.8723 -0.2491
62594SOL    HW299508   2.119   4.939   1.201 -1.3519  0.9446 -0.5987
62595SOL     OW99509   3.876   4.101  10.729  0.0896 -0.6382  0.5328
62595SOL    HW199510   3.836   4.130  10.646 -0.4150 -0.3886  0.8558
62595SOL    HW299511   3.818   4.031  10.760  1.4060 -2.1789 -0.3314
62596SOL     OW99512  10.084   7.638   4.533  0.3818  0.7759  0.1163
62596SOL    HW199513  10.045   7.725   4.528  0.5178  0.7910 -1.0865
62596SOL    HW299514  10.177   7.655   4.548  0.1620  0.7767  1.5990
62597SOL     OW99515   3.484   2.045   0.099  0.3391 -0.3317 -0.3875
62597SOL    HW199516   3.494   1.951   0.116 -1.3471 -0.2993  1.1895
62597SOL    HW299517   3.398   2.066   0.137 -0.0644  1.5246 -2.1800
62598SOL     OW99518   1.672  12.680  10.442  0.1353 -0.4851 -0.2782
62598SOL    HW199519   1.677  12.715  10.353  2.4345  1.4065  0.4695
62598SOL    HW299520   1.594  12.721  10.479  0.8319  1.1948 -0.5471
62599SOL     OW99521   1.375   0.760   2.304  0.1181 -0.0346  0.1546
62599SOL    HW199522   1.368   0.677   2.258 -3.3131  0.0304  0.2890
62599SOL    HW299523   1.349   0.826   2.240  0.9755  0.7367  0.5779
62600SOL     OW99524   7.572   4.964  10.026 -0.7565  0.2241  0.8452
62600SOL    HW199525   7.577   4.973   9.930  0.2022  0.4133  0.8983
62600SOL    HW299526   7.535   4.877  10.040  0.1055 -0.2496  0.2852
62601SOL     OW99527   1.493   1.314  13.243 -0.1184 -0.0714  0.1386
62601SOL    HW199528   1.583   1.282  13.236  0.1316 -0.1538  2.6354
62601SOL    HW299529   1.488   1.387  13.182  1.5867 -0.2059 -0.2041
62602SOL     OW99530   9.473   1.395   4.429 -0.5452  0.5292 -0.6716
62602SOL    HW199531   9.529   1.448   4.486 -2.8005  2.6531 -0.2602
62602SOL    HW299532   9.529   1.373   4.355  1.1100  1.7170  0.1427
62603SOL     OW99533   0.018  10.022   6.375  1.1680  0.2871  0.4440
62603SOL    HW199534   0.038   9.928   6.372 -0.9615 -0.1877 -1.0816
62603SOL    HW299535   0.032  10.053   6.286  0.7156  1.1578  0.6650
62604SOL     OW99536   8.751   3.317   3.576  0.7278  0.7092  0.2214
62604SOL    HW199537   8.837   3.339   3.614  0.8062 -0.5091  0.8036
62604SOL    HW299538   8.742   3.223   3.591 -0.0535  0.5363 -1.1920
62605SOL     OW99539   3.451  12.255  11.817  0.0779  0.4127  0.0887
62605SOL    HW199540   3.527  12.312  11.814 -0.5010  1.1928 -0.3790
62605SOL    HW299541   3.420  12.259  11.908 -0.3888  1.4562 -0.1003
62606SOL     OW99542   1.654   7.349   9.184 -0.8869 -0.4196 -0.0686
62606SOL    HW199543   1.745   7.378   9.184 -0.5862 -1.3129  0.4224
62606SOL    HW299544   1.605   7.424   9.152  0.0275  0.0570 -0.3980
62607SOL     OW99545   7.799   3.894  13.107 -0.1005 -0.5741  0.0843
62607SOL    HW199546   7.793   3.935  13.021 -0.4469 -0.7739  0.0104
62607SOL    HW299547   7.719   3.920  13.152  0.8766  0.9871  1.0125
62608SOL     OW99548   2.527  11.869   1.006  0.0609  0.3591 -0.2619
62608SOL    HW199549   2.551  11.817   1.083 -1.5584  0.6829  0.5001
62608SOL    HW299550   2.512  11.804   0.938  0.2191 -0.0224  0.0609
62609SOL     OW99551   7.164   2.422  10.062  0.4185  0.3415 -0.5639
62609SOL    HW199552   7.228   2.369  10.109  0.1839 -0.7146 -1.4046
62609SOL    HW299553   7.087   2.423  10.120  0.6379  0.3015 -0.2690
62610SOL     OW99554   5.430   0.987   2.481  0.1415  0.6305 -0.3730
62610SOL    HW199555   5.350   0.992   2.429 -0.5088 -0.5765  0.4620
62610SOL    HW299556   5.432   0.897   2.513  1.1278  1.0192  0.7330
62611SOL     OW99557   3.913   8.072   6.601  0.1208  0.8034 -0.2743
62611SOL    HW199558   3.828   8.076   6.556  1.2769  0.0638 -2.6589
62611SOL    HW299559   3.919   8.156   6.647 -1.1009  1.6590 -1.5759
62612SOL     OW99560  10.796   6.381   9.241  0.0251 -0.3367 -0.2806
62612SOL    HW199561  10.823   6.290   9.254 -1.5989 -0.9734 -1.0597
62612SOL    HW299562  10.791   6.417   9.329  0.2607 -1.1350  0.0732
62613SOL     OW99563   6.327   7.827   4.218  0.6062  0.0136  0.0234
62613SOL    HW199564   6.408   7.857   4.176  0.0372 -0.0943 -1.1848
62613SOL    HW299565   6.304   7.746   4.172 -1.4264  1.2489 -1.2717
62614SOL     OW99566   7.757   2.160   2.778 -0.5924  0.1586 -0.4641
62614SOL    HW199567   7.730   2.141   2.867  0.9014  0.3527  0.0478
62614SOL    HW299568   7.720   2.246   2.760 -1.4051 -0.1398 -0.2618
62615SOL     OW99569   8.768   5.876   3.159  0.1073  0.1385 -0.2267
62615SOL    HW199570   8.834   5.938   3.191  1.4873 -0.4630 -1.7552
62615SOL    HW299571   8.791   5.793   3.200  0.5725 -0.1613 -1.0713
62616SOL     OW99572   0.758   3.457   8.944 -0.1236 -0.0777  0.3857
62616SOL    HW199573   0.813   3.503   8.882 -0.3090  2.4809  1.9814
62616SOL    HW299574   0.791   3.367   8.943  1.9656  0.6370 -1.0105
62617SOL     OW99575   1.621  10.731  12.040 -0.4738  0.0917 -0.5586
62617SOL    HW199576   1.578  10.805  12.083  1.5056  0.4012  1.0668
62617SOL    HW299577   1.568  10.655  12.065 -0.1541  0.4500  1.3859
62618SOL     OW99578   0.846  12.070   9.379 -0.2369 -0.0033  0.5466
62618SOL    HW199579   0.836  11.994   9.435  1.0548  0.2275  1.1261
62618SOL    HW299580   0.843  12.145   9.439 -0.4288  0.3383  0.1189
62619SOL     OW99581  11.272   4.992   9.587  1.1686  0.0087  0.2495
62619SOL    HW199582  11.341   5.054   9.562  0.2708  1.1083  0.3873
62619SOL    HW299583  11.307   4.906   9.563  1.6401  0.7225 -1.8917
62620SOL     OW99584   2.329   9.860   6.798 -0.2390 -0.5974 -0.0470
62620SOL    HW199585   2.267   9.789   6.784  1.0776 -1.7072 -0.4372
62620SOL    HW299586   2.392   9.825   6.860 -0.0425  0.5574  0.4366
62621SOL     OW99587   6.878   9.575   4.750  0.3599  0.6820  0.1572
62621SOL    HW199588   6.942   9.561   4.681  0.3339  0.6488  0.1395
62621SOL    HW299589   6.796   9.594   4.703 -0.9743 -4.3018 -0.0763
62622SOL     OW99590   6.011   0.812   6.043  0.2111 -0.2143 -0.1343
62622SOL    HW199591   6.015   0.802   5.948  1.2117  0.9694 -0.2454
62622SOL    HW299592   5.932   0.764   6.069  0.7894 -1.9007 -1.3551
62623SOL     OW99593   4.789   3.342   7.960 -0.1620 -0.0201 -0.3442
62623SOL    HW199594   4.863   3.398   7.983 -0.6924  0.1012  1.1316
62623SOL    HW299595   4.770   3.292   8.039 -1.7269  0.0372 -0.6445
62624SOL     OW99596   8.594  13.477   6.891 -0.3446 -0.2593  0.0440
62624SOL    HW199597   8.577  13.559   6.937 -0.9904 -0.5619  0.3629
62624SOL    HW299598   8.513  13.427   6.900  1.0520 -2.3528  2.7788
62625SOL     OW99599  10.870  10.628   8.342  0.1752  0.6047  0.2601
62625SOL    HW199600  10.787  10.583   8.332 -0.2688  1.6940 -1.2825
62625SOL    HW299601  10.932  10.578   8.288  0.7692 -0.6428  1.9810
62626SOL     OW99602   5.723  12.347  13.732  0.5926  0.3543 -0.2722
62626SOL    HW199603   5.765  12.378  13.651  0.2100  0.4330 -0.4435
62626SOL    HW299604   5.634  12.325  13.706  0.4034  0.5804  0.1755
62627SOL     OW99605   8.949  12.232  10.717 -0.0042 -0.2678 -0.9586
62627SOL    HW199606   8.970  12.304  10.777  1.0388 -1.3653  0.0566
62627SOL    HW299607   8.919  12.162  10.775 -0.5888 -0.8027 -1.8910
62628SOL     OW99608   6.822   4.044  10.090 -0.3440  0.6269  0.0564
62628SOL    HW199609   6.845   4.024   9.999  1.3927  1.4349  0.2771
62628SOL    HW299610   6.757   3.978  10.114 -0.1737 -0.1333 -1.4839
62629SOL     OW99611   2.357   7.964  12.111  0.0807 -0.1472  0.0591
62629SOL    HW199612   2.421   7.935  12.175 -0.1228  0.3605  0.4998
62629SOL    HW299613   2.275   7.969  12.159 -0.0822  0.1853 -0.2487
62630SOL     OW99614   7.389   5.484   7.938  0.1236  0.0978  0.0514
62630SOL    HW199615   7.321   5.422   7.913  1.7599 -2.2630  1.0555
62630SOL    HW299616   7.387   5.484   8.034 -0.6465  2.6467  0.1056
62631SOL     OW99617   0.308   8.160   0.979 -0.2252 -0.9046 -0.2591
62631SOL    HW199618   0.299   8.254   0.995 -1.2576 -1.2092  1.1528
62631SOL    HW299619   0.308   8.152   0.884 -1.2932  0.4353 -0.4039
62632SOL     OW99620   5.986   6.449   6.728  0.3648 -0.2827 -0.5301
62632SOL    HW199621   5.944   6.398   6.659  1.3473 -1.5200 -0.2290
62632SOL    HW299622   6.074   6.414   6.734  0.2036 -0.4250  1.5863
62633SOL     OW99623  10.881   9.497   5.742  0.1592 -0.0210 -0.5489
62633SOL    HW199624  10.881   9.424   5.679  0.8369  0.2632 -0.8772
62633SOL    HW299625  10.816   9.558   5.707  0.3292  0.0052 -0.8264
62634SOL     OW99626  13.513   4.833  10.631 -0.5285 -0.4201  0.1743
62634SOL    HW199627  13.575   4.905  10.620 -0.4357 -0.5738 -0.3064
62634SOL    HW299628  13.557   4.773  10.692 -0.6362 -0.0461  0.6335
62635SOL     OW99629  12.456  12.164  11.554  0.2766 -0.3778  0.0927
62635SOL    HW199630  12.401  12.231  11.594  1.2782  1.3270 -1.2439
62635SOL    HW299631  12.399  12.119  11.493 -0.0873  0.1695  0.0217
62636SOL     OW99632   9.421  10.881   6.487  0.2693 -0.2096 -0.3211
62636SOL    HW199633   9.418  10.965   6.534  1.2465 -0.0893 -0.4560
62636SOL    HW299634   9.438  10.816   6.556 -1.9757 -0.5336  0.0248
62637SOL     OW99635   2.309   1.288   3.243  0.0373  0.5131 -0.3926
62637SOL    HW199636   2.292   1.292   3.338  0.4274  3.2188 -0.3429
62637SOL    HW299637   2.361   1.209   3.231 -2.0131 -1.2023  1.2645
62638SOL     OW99638   1.937   7.776   7.981 -0.3796  0.3894 -0.1520
62638SOL    HW199639   1.922   7.831   7.904 -0.8407  2.3253  1.2449
62638SOL    HW299640   2.032   7.772   7.990 -0.3293  0.3786 -0.6510
62639SOL     OW99641   7.798   1.992  10.249  0.2021  0.5443 -0.8683
62639SOL    HW199642   7.863   2.038  10.196 -1.2751  2.5578 -1.0343
62639SOL    HW299643   7.799   2.038  10.333  1.0994 -1.3522  0.2289
62640SOL     OW99644   3.487  11.750   4.546 -0.5952  0.1125 -0.3385
62640SOL    HW199645   3.534  11.782   4.623 -0.7273  0.3429 -0.3506
62640SOL    HW299646   3.396  11.776   4.561 -0.7597 -0.5335 -0.2103
62641SOL     OW99647   9.539  12.694   6.597  0.0652 -0.1365  0.0135
62641SOL    HW199648   9.611  12.673   6.657  1.1984 -1.9654 -1.8592
62641SOL    HW299649   9.475  12.624   6.611 -1.0226  0.9940  1.0281
62642SOL     OW99650   9.016   6.231   9.818  0.2087  0.1935  0.0642
62642SOL    HW199651   9.109   6.239   9.797  0.0823 -0.7566 -0.9920
62642SOL    HW299652   8.996   6.308   9.869  1.4062  0.8178 -0.3706
62643SOL     OW99653   3.505   0.996   4.179 -0.7993  0.1584 -0.1325
62643SOL    HW199654   3.417   0.986   4.216 -0.5223 -1.9235  0.1179
62643SOL    HW299655   3.495   0.971   4.087 -0.1654 -2.3144  0.3752
62644SOL     OW99656   1.737   6.932   6.714 -0.1423  0.1179  0.2807
62644SOL    HW199657   1.797   7.004   6.735 -0.5181  0.4494  0.2214
62644SOL    HW299658   1.764   6.904   6.627  0.1002  0.0830  0.3634
62645SOL     OW99659   6.428   9.312   6.466 -0.1578 -0.1803 -0.0613
62645SOL    HW199660   6.482   9.247   6.511  0.0626  1.1275  1.6925
62645SOL    HW299661   6.484   9.390   6.461 -0.9696  0.3780 -0.6355
62646SOL     OW99662   2.249   9.232   0.618  0.1658 -0.8014 -0.2992
62646SOL    HW199663   2.180   9.250   0.554  0.2290  0.4189 -0.0609
62646SOL    HW299664   2.202   9.204   0.696 -0.1959  1.2408  0.2712
62647SOL     OW99665   2.067  12.196   2.210  0.1965  0.3493  0.2049
62647SOL    HW199666   2.109  12.166   2.290 -0.3179 -1.0855 -0.0276
62647SOL    HW299667   2.028  12.117   2.173 -0.4020  1.1652 -0.9599
62648SOL     OW99668   8.717   2.308   3.439  0.0534 -0.2369 -0.1606
62648SOL    HW199669   8.746   2.389   3.398 -0.7965  0.8107  1.2082
62648SOL    HW299670   8.737   2.239   3.375 -1.7390  1.3300 -2.5702
62649SOL     OW99671   0.529   9.764   5.534  0.0413 -0.6475 -0.1253
62649SOL    HW199672   0.492   9.680   5.561 -1.2252 -0.8112 -2.1861
62649SOL    HW299673   0.480   9.788   5.456  2.6127  0.4228 -1.5263
62650SOL     OW99674  12.462  12.789  13.039 -0.3584 -0.4127  0.3464
62650SOL    HW199675  12.441  12.862  12.981  0.0294 -0.3955  0.2279
62650SOL    HW299676  12.448  12.824  13.127 -2.0216 -0.7588  0.2606
62651SOL     OW99677   1.103   0.816   1.826 -0.4759 -0.2262  1.1667
62651SOL    HW199678   1.142   0.730   1.841  0.2194 -0.0938  0.1823
62651SOL    HW299679   1.053   0.807   1.745  0.5974  0.6048  0.3881
62652SOL     OW99680   8.022   6.807   7.168  0.5996  0.1894  0.5453
62652SOL    HW199681   8.043   6.715   7.187  0.9418  0.4258  1.3552
62652SOL    HW299682   7.940   6.803   7.118  0.2023 -0.5240  1.2338
62653SOL     OW99683   4.458  11.883  10.400  0.2738 -0.0454  0.3267
62653SOL    HW199684   4.520  11.816  10.373  0.8484  0.3943  0.5266
62653SOL    HW299685   4.441  11.934  10.320 -0.7668 -0.8863 -0.0106
62654SOL     OW99686   3.981   2.544   6.141  0.1832  0.3769  0.0098
62654SOL    HW199687   3.921   2.471   6.158  0.6760 -0.3561 -1.2446
62654SOL    HW299688   4.054   2.529   6.202  1.8930 -2.1784 -2.3583
62655SOL     OW99689   8.810   9.830   7.502  0.2289 -0.5587  0.6091
62655SOL    HW199690   8.852   9.744   7.496  1.4600  0.0890 -0.3846
62655SOL    HW299691   8.820   9.855   7.594  2.2499 -0.3435  0.3751
62656SOL     OW99692  10.111   7.540   5.707 -0.3993  0.2441  0.3746
62656SOL    HW199693  10.152   7.467   5.754 -0.7906 -1.1550 -1.3455
62656SOL    HW299694  10.133   7.617   5.759 -0.0805 -1.0958  2.3507
62657SOL     OW99695   0.799  12.099   0.757 -0.3727  0.1799 -0.1464
62657SOL    HW199696   0.846  12.029   0.802  3.3115  3.0709  0.9877
62657SOL    HW299697   0.797  12.072   0.665  1.1200 -1.3318  0.2248
62658SOL     OW99698   1.180   4.257   0.825 -0.1793  1.1398 -0.0694
62658SOL    HW199699   1.206   4.343   0.792  1.3102 -0.5719 -3.9558
62658SOL    HW299700   1.102   4.235   0.775  0.7917 -0.6397 -0.8941
62659SOL     OW99701   1.894   0.688   6.362  0.6033 -0.0478 -0.4809
62659SOL    HW199702   1.943   0.717   6.439 -0.7284  1.7946 -0.2620
62659SOL    HW299703   1.961   0.671   6.296  1.6864 -0.3672  0.6511
62660SOL     OW99704   1.194   9.623   7.202 -0.0763  0.1546  0.0396
62660SOL    HW199705   1.177   9.675   7.123 -0.0255  1.6687  0.9835
62660SOL    HW299706   1.265   9.564   7.176  0.6874  1.3622 -0.7537
62661SOL     OW99707   9.439   2.825   0.105 -0.2423 -0.5754 -0.0432
62661SOL    HW199708   9.500   2.752   0.117  1.0856  0.4888  0.0212
62661SOL    HW299709   9.438   2.841   0.011 -0.6271 -0.7564 -0.0707
62662SOL     OW99710  13.616   0.495   7.718 -0.1600  0.1341 -0.5436
62662SOL    HW199711  13.592   0.462   7.805  0.4191  1.2094  0.0440
62662SOL    HW299712  13.705   0.464   7.704 -1.0533 -2.0975 -1.8377
62663SOL     OW99713   4.038  11.238   0.200 -0.5036  0.0137  0.4234
62663SOL    HW199714   4.014  11.175   0.132  1.0093  0.2455 -0.3756
62663SOL    HW299715   4.083  11.186   0.266  2.0237  0.3523 -0.8971
62664SOL     OW99716  11.907   6.967  10.299 -0.1503  0.1431 -0.2764
62664SOL    HW199717  11.873   7.056  10.309 -0.3467  0.0073  0.3280
62664SOL    HW299718  11.996   6.979  10.268 -0.9154  0.4986 -2.4999
62665SOL     OW99719   6.482   6.029  11.650  0.3934 -0.4033 -0.2059
62665SOL    HW199720   6.438   6.063  11.571  0.8732 -0.8676 -0.6780
62665SOL    HW299721   6.529   5.952  11.620 -0.2455 -1.1877  0.7527
62666SOL     OW99722   7.902   0.676  11.677  0.3494 -0.1490 -0.1242
62666SOL    HW199723   7.912   0.641  11.588 -1.0822 -0.8318 -0.0432
62666SOL    HW299724   7.877   0.767  11.664 -0.1320 -0.3211 -0.4433
62667SOL     OW99725   1.527   2.670   6.039 -0.0552  1.0133  0.2515
62667SOL    HW199726   1.563   2.744   6.089  0.2136  2.3753 -1.8459
62667SOL    HW299727   1.600   2.641   5.984 -0.9857  1.1294 -1.0770
62668SOL     OW99728   9.225  10.895   6.291 -0.3056  0.5569 -0.0823
62668SOL    HW199729   9.283  10.912   6.216  0.5122  1.3336  0.7079
62668SOL    HW299730   9.284  10.889   6.366 -1.3960  4.7527  1.3555
62669SOL     OW99731   4.908   5.462   4.908  0.4845 -0.0002  0.6292
62669SOL    HW199732   4.827   5.503   4.878  0.4882  0.1845  0.8672
62669SOL    HW299733   4.908   5.475   5.003  0.2550 -0.9665  0.7749
62670SOL     OW99734   8.808   6.768   7.887 -0.2236 -0.4051  0.1832
62670SOL    HW199735   8.818   6.681   7.926 -0.5001 -0.5842 -0.1452
62670SOL    HW299736   8.714   6.785   7.889 -0.2353 -0.3917 -0.3616
62671SOL     OW99737  12.983   4.254   6.008 -0.1398 -0.1505 -0.2536
62671SOL    HW199738  13.042   4.293   5.943  0.2718  0.2819  0.3690
62671SOL    HW299739  12.915   4.211   5.956  1.4695 -1.8976 -1.0662
62672SOL     OW99740  11.872   8.279   6.171  0.0354  0.0517 -0.6007
62672SOL    HW199741  11.968   8.273   6.168 -0.0237 -0.7249 -1.4302
62672SOL    HW299742  11.852   8.299   6.262  0.8797 -2.5000  0.2555
62673SOL     OW99743  10.306   3.028   9.985  0.1207 -0.3784  0.3245
62673SOL    HW199744  10.346   2.943  10.003 -2.8424 -2.0666 -0.4476
62673SOL    HW299745  10.292   3.067  10.071 -0.9262 -1.9193  0.8882
62674SOL     OW99746   4.913   8.787  10.143  0.0295 -0.2331 -0.2357
62674SOL    HW199747   4.940   8.714  10.088  0.8451  0.1881 -0.4041
62674SOL    HW299748   4.972   8.858  10.119  1.5158 -0.4922  2.3267
62675SOL     OW99749   3.876   1.303   9.333  0.3897 -0.1871  0.4099
62675SOL    HW199750   3.921   1.309   9.418  1.0064  3.7767 -0.0156
62675SOL    HW299751   3.784   1.297   9.356  0.3015  3.2754  1.5892
62676SOL     OW99752   3.417   0.506   9.887  0.7395 -0.3612  0.0620
62676SOL    HW199753   3.469   0.540   9.814  1.1882 -1.7088 -0.2594
62676SOL    HW299754   3.452   0.550   9.964  1.4889 -0.3039 -0.3077
62677SOL     OW99755  12.633   9.859   6.599 -0.1691 -0.5894  0.5048
62677SOL    HW199756  12.659   9.870   6.508 -1.8399 -0.6125 -0.0210
62677SOL    HW299757  12.711   9.828   6.644  1.1652  1.0487 -0.5592
62678SOL     OW99758   2.455   9.740   1.761  0.0580  0.2010 -0.3501
62678SOL    HW199759   2.472   9.714   1.670 -0.1778 -1.5132  0.0748
62678SOL    HW299760   2.406   9.822   1.753 -0.9130 -0.4793 -1.8114
62679SOL     OW99761  11.636   7.603   9.878 -0.7592  0.2500 -0.7388
62679SOL    HW199762  11.576   7.607   9.952 -1.8077  0.7798 -1.5748
62679SOL    HW299763  11.580   7.616   9.801  0.4131  0.6801 -1.5649
62680SOL     OW99764   1.236  10.830   8.054  0.3458 -0.6973 -0.2226
62680SOL    HW199765   1.317  10.781   8.068 -0.4628 -2.0922 -0.2302
62680SOL    HW299766   1.191  10.783   7.984 -0.4226  0.1218 -0.2951
62681SOL     OW99767  11.985   3.534   4.642  0.3137 -0.7385  0.9469
62681SOL    HW199768  12.080   3.542   4.642  0.4518 -2.1378  1.4268
62681SOL    HW299769  11.958   3.567   4.727  0.4887 -1.5266  1.3092
62682SOL     OW99770  12.806   8.674   1.014  0.0175 -0.2534  0.1942
62682SOL    HW199771  12.793   8.764   1.045  3.0398  0.3138  0.2207
62682SOL    HW299772  12.902   8.663   1.014 -0.1778 -2.8918 -1.4899
62683SOL     OW99773   2.722   6.886  11.605 -0.4409 -0.8849  0.8407
62683SOL    HW199774   2.688   6.868  11.518 -0.6898 -0.5147  0.8563
62683SOL    HW299775   2.759   6.974  11.599 -0.4386 -0.8656  1.0988
62684SOL     OW99776   8.362  11.001   1.371 -0.3752 -0.0441 -0.1809
62684SOL    HW199777   8.401  10.916   1.349 -1.9417 -1.0260  0.6776
62684SOL    HW299778   8.275  10.999   1.332 -1.5288 -0.0391  2.1975
62685SOL     OW99779   1.218   0.189   7.273 -0.3060 -0.3044 -0.3262
62685SOL    HW199780   1.293   0.137   7.244 -0.8589 -1.5027  0.3193
62685SOL    HW299781   1.244   0.222   7.359 -0.0564  0.2993 -0.6255
62686SOL     OW99782   2.183   8.990   7.824  0.2859 -0.3637  0.0579
62686SOL    HW199783   2.152   9.047   7.753 -0.3949 -0.3647  0.3511
62686SOL    HW299784   2.223   9.051   7.887 -0.4585 -0.1904  0.3804
62687SOL     OW99785  13.332  13.706   9.286 -0.2336 -0.0655 -0.1365
62687SOL    HW199786  13.288  13.750   9.213 -2.0985 -0.1779  0.8391
62687SOL    HW299787  13.423  13.736   9.281 -0.5156  0.6301 -1.9372
62688SOL     OW99788   9.530  13.046   4.709  0.1441  0.1899  0.3152
62688SOL    HW199789   9.463  13.092   4.760  0.5454  0.1116  0.9203
62688SOL    HW299790   9.612  13.089   4.733  0.6965 -1.5257  1.7537
62689SOL     OW99791   2.684   0.872   2.915  0.1206 -0.2009 -0.6307
62689SOL    HW199792   2.633   0.827   2.848  1.0808 -0.3867 -1.2569
62689SOL    HW299793   2.699   0.806   2.983  1.1492 -0.7248 -1.3422
62690SOL     OW99794   5.927   9.680   5.974 -0.4134 -0.1031 -0.4293
62690SOL    HW199795   5.902   9.692   6.066 -0.1178  0.7678 -0.4536
62690SOL    HW299796   5.861   9.728   5.925 -0.0893  0.1402 -0.6278
62691SOL     OW99797   8.745   8.530   5.997 -0.1453 -0.8279 -0.1687
62691SOL    HW199798   8.803   8.476   6.051 -0.8148 -0.8110  0.5884
62691SOL    HW299799   8.683   8.568   6.059  0.6082  1.2434 -0.5869
62692SOL     OW99800  12.283   6.401   5.652 -0.0451 -0.1203 -0.7116
62692SOL    HW199801  12.357   6.343   5.668  0.5195  0.9659  0.8335
62692SOL    HW299802  12.320   6.476   5.607  0.0652  0.9189  1.0042
62693SOL     OW99803   4.725   2.978  10.203  0.6696  0.1728 -0.0148
62693SOL    HW199804   4.737   2.940  10.115 -0.2555 -0.1922  0.0025
62693SOL    HW299805   4.729   3.072  10.189 -3.4956  0.3400 -1.1896
62694SOL     OW99806   9.902  10.800   5.811 -0.0698  0.0424 -0.0467
62694SOL    HW199807   9.848  10.783   5.889 -0.7231  1.0240 -0.2641
62694SOL    HW299808   9.956  10.722   5.802 -0.6135 -0.4633  0.8820
62695SOL     OW99809   8.446   8.925   4.847 -0.3098  0.1054  0.3598
62695SOL    HW199810   8.369   8.869   4.843 -0.0849 -0.6480  3.5329
62695SOL    HW299811   8.520   8.865   4.859  0.7417  0.8518 -1.8486
62696SOL     OW99812  10.485   9.875   4.843 -0.5932  0.0939 -0.3808
62696SOL    HW199813  10.402   9.839   4.876 -0.6236  0.6249  0.1432
62696SOL    HW299814  10.523   9.919   4.918  0.4520 -0.6285 -0.4706
62697SOL     OW99815   1.575   5.965   2.915  0.2309  0.5042 -0.5037
62697SOL    HW199816   1.537   5.943   2.830  1.5463 -0.1529 -0.9597
62697SOL    HW299817   1.661   5.923   2.914  1.0179  2.0030  0.4225
62698SOL     OW99818   0.478   8.357  13.545  0.5652  0.5444 -0.3929
62698SOL    HW199819   0.444   8.269  13.562 -0.7117  1.2359  0.7847
62698SOL    HW299820   0.564   8.342  13.505  0.3603 -1.2271 -0.2405
62699SOL     OW99821   7.820   5.353   7.799 -0.5097 -0.6402 -0.7942
62699SOL    HW199822   7.907   5.394   7.803 -0.6539 -0.2469 -1.5651
62699SOL    HW299823   7.759   5.427   7.805 -0.7737 -0.7034 -2.3410
62700SOL     OW99824   4.245  10.726   3.053 -0.0653  0.2127  0.4881
62700SOL    HW199825   4.196  10.705   2.974  1.9646  1.2549 -1.1409
62700SOL    HW299826   4.332  10.689   3.039  0.0456 -0.5829  2.7744
62701SOL     OW99827   3.886   6.812   9.036 -0.6970 -0.7584  0.0175
62701SOL    HW199828   3.954   6.790   9.100 -0.7685  1.0706  0.8002
62701SOL    HW299829   3.927   6.796   8.951  0.7481  0.3005  0.4767
62702SOL     OW99830  11.755   6.591  11.088 -0.0170  0.6978  0.0546
62702SOL    HW199831  11.786   6.644  11.014  0.5747  0.1583 -0.0974
62702SOL    HW299832  11.744   6.503  11.051  0.3713  0.4025  0.6206
62703SOL     OW99833  12.943  13.656   0.734  0.8250 -0.2370 -0.2615
62703SOL    HW199834  12.889  13.621   0.804  0.7132  0.7169  0.1380
62703SOL    HW299835  12.905  13.621   0.654  0.7209 -1.0256  0.1282
62704SOL     OW99836   7.587  10.386   4.095 -0.5198  0.8953 -0.0422
62704SOL    HW199837   7.670  10.385   4.144 -0.9516 -0.2013  0.7069
62704SOL    HW299838   7.596  10.314   4.033 -0.8396  0.8816 -0.0738
62705SOL     OW99839   3.278   1.655   0.613 -0.5558 -0.0556 -0.1537
62705SOL    HW199840   3.246   1.745   0.611 -0.7761 -0.1473 -1.0790
62705SOL    HW299841   3.262   1.626   0.703  0.2333  1.0708  0.3719
62706SOL     OW99842   7.419   5.399  13.418 -0.1889 -0.0892 -0.0218
62706SOL    HW199843   7.417   5.409  13.323  0.5611  1.5984  0.1160
62706SOL    HW299844   7.338   5.441  13.449  0.0472  0.2393  0.1522
62707SOL     OW99845   1.807   5.245   8.138 -0.3889  0.2028 -0.0384
62707SOL    HW199846   1.770   5.320   8.092  0.6964 -0.1188 -1.4889
62707SOL    HW299847   1.736   5.214   8.194 -1.3287  1.3905 -0.5276
62708SOL     OW99848   8.694   0.357   5.075 -0.0138  0.4314 -0.0144
62708SOL    HW199849   8.663   0.360   5.165  1.3252  0.4717  0.4688
62708SOL    HW299850   8.694   0.265   5.052 -0.1222  0.4005  0.1097
62709SOL     OW99851   8.131   6.675   9.723 -0.0420  0.0873  0.1903
62709SOL    HW199852   8.145   6.670   9.818 -1.3526  3.7911  0.7590
62709SOL    HW299853   8.213   6.644   9.685  0.6943 -1.0958  2.5142
62710SOL     OW99854  11.500  13.680   7.910 -0.1784  0.3706  0.0359
62710SOL    HW199855  11.479  13.763   7.954  1.8422  1.5648 -1.0880
62710SOL    HW299856  11.415  13.643   7.887 -1.1471  2.0668  0.7205
62711SOL     OW99857   2.951   6.208   6.319  0.7001 -0.0821 -0.0196
62711SOL    HW199858   2.860   6.186   6.341  0.8259 -1.2081 -0.5596
62711SOL    HW299859   2.968   6.160   6.238  1.1508  1.7057 -1.0522
62712SOL     OW99860   4.085   2.094  10.855  0.0009 -0.1449 -0.5363
62712SOL    HW199861   4.010   2.034  10.848  0.3155 -0.6178  0.0274
62712SOL    HW299862   4.143   2.052  10.918  0.1662  0.8199 -0.0185
62713SOL     OW99863   4.061   2.084   2.147  0.0192 -0.6456 -0.4414
62713SOL    HW199864   4.155   2.075   2.157  0.4147  2.5030 -0.2683
62713SOL    HW299865   4.027   1.995   2.153  3.1420 -2.1947 -2.8947
62714SOL     OW99866  10.454  10.544   2.889 -0.0748  0.1467  0.1072
62714SOL    HW199867  10.514  10.586   2.951 -0.4617  0.3125  0.3670
62714SOL    HW299868  10.404  10.483   2.942  0.2621 -0.4228 -0.2131
62715SOL     OW99869  13.492   1.819  13.514 -0.5378  0.6761 -0.1560
62715SOL    HW199870  13.472   1.790  13.425 -1.4769  0.6854  0.0427
62715SOL    HW299871  13.561   1.884  13.502  1.3363 -1.2977 -0.6335
62716SOL     OW99872   5.748  13.665   9.343  0.2848  0.1710  0.4122
62716SOL    HW199873   5.727  13.745   9.296 -1.5117  0.1207  1.0617
62716SOL    HW299874   5.743  13.689   9.436 -1.6415 -0.9675  0.6506
62717SOL     OW99875  11.479  12.205  10.349  0.2017  0.3262  0.7560
62717SOL    HW199876  11.432  12.180  10.270 -2.0346  1.0073  1.7812
62717SOL    HW299877  11.426  12.276  10.387  1.9031  0.9138  2.1779
62718SOL     OW99878  11.237   1.153  10.682  0.0399 -0.2257 -0.0915
62718SOL    HW199879  11.229   1.163  10.587  3.7285 -0.3218 -0.5966
62718SOL    HW299880  11.221   1.240  10.717 -2.1537 -0.3572 -0.6483
62719SOL     OW99881   3.026   2.836   8.223 -0.4072 -0.6108  0.1626
62719SOL    HW199882   3.092   2.813   8.288 -0.0032  0.2782  0.0945
62719SOL    HW299883   3.019   2.759   8.167 -0.7133 -1.3615  1.2061
62720SOL     OW99884   7.359   2.904  12.283  0.1787  0.1168  0.2115
62720SOL    HW199885   7.388   2.991  12.255  1.0214 -0.6674 -1.4366
62720SOL    HW299886   7.437   2.850  12.280 -0.6085 -1.0437 -0.1820
62721SOL     OW99887   1.163   7.957   3.446  0.0141 -0.1571  0.0663
62721SOL    HW199888   1.081   7.931   3.404 -0.8327  1.1096  0.8603
62721SOL    HW299889   1.208   8.010   3.380 -0.5590  0.4714  0.1641
62722SOL     OW99890  12.327   4.294   4.823 -0.5027  0.0334  0.4354
62722SOL    HW199891  12.330   4.317   4.731  0.7506  1.4803  0.7901
62722SOL    HW299892  12.251   4.341   4.858 -1.4285 -1.1084  0.0354
62723SOL     OW99893   6.809  13.069   7.613  0.2628  0.2555  0.2158
62723SOL    HW199894   6.729  13.018   7.599 -0.2182  0.8287  0.8504
62723SOL    HW299895   6.851  13.071   7.527 -0.3688 -0.1047 -0.1062
62724SOL     OW99896   8.677   7.942   3.692  0.4385 -0.3950 -0.1099
62724SOL    HW199897   8.598   7.978   3.650  0.9549 -0.5571 -1.2712
62724SOL    HW299898   8.643   7.886   3.762 -0.3949  1.8976  1.4104
62725SOL     OW99899   3.030   8.177   3.232  0.1742 -0.0592  0.6711
62725SOL    HW199900   3.000   8.154   3.144 -0.3366 -0.0315  0.8314
62725SOL    HW299901   3.054   8.269   3.226 -0.7931  0.2184  0.7863
62726SOL     OW99902  11.613  11.580   0.881 -0.3490  0.3710  0.5033
62726SOL    HW199903  11.670  11.503   0.885 -0.6630  0.0702 -0.5667
62726SOL    HW299904  11.646  11.637   0.951  1.5687  0.4067 -0.3562
62727SOL     OW99905   8.609  12.727  10.890  0.6093  0.0236 -0.2235
62727SOL    HW199906   8.694  12.770  10.884  0.7018 -0.1644 -0.2855
62727SOL    HW299907   8.630  12.635  10.908  0.5086 -0.4742 -2.3257
62728SOL     OW99908   6.737   0.205   1.792 -0.2089 -0.0227 -0.0678
62728SOL    HW199909   6.743   0.110   1.784  1.6661  0.0170  0.3065
62728SOL    HW299910   6.718   0.236   1.703  1.3114 -0.6533 -0.6454
62729SOL     OW99911   3.428   5.860   5.464 -0.1761 -0.4352  0.1781
62729SOL    HW199912   3.389   5.787   5.512 -0.1291  0.6254  1.9483
62729SOL    HW299913   3.518   5.864   5.495  1.7920 -3.1878 -4.2599
62730SOL     OW99914   6.036  10.108   9.789 -0.0805 -0.1584 -0.0128
62730SOL    HW199915   6.117  10.100   9.738 -0.2823 -0.0532 -0.3534
62730SOL    HW299916   6.065  10.131   9.877  0.3217 -1.1019  0.1145
62731SOL     OW99917  12.309   8.860   9.869 -0.1699 -0.1989  0.6685
62731SOL    HW199918  12.253   8.923   9.824 -0.7683 -0.9119  0.4012
62731SOL    HW299919  12.346   8.910   9.942 -1.3206  0.2456  0.9785
62732SOL     OW99920   6.768  13.027   2.216  0.2140  0.4663  0.2509
62732SOL    HW199921   6.734  12.973   2.145  1.3074  0.4646 -0.2885
62732SOL    HW299922   6.690  13.054   2.265 -0.4426 -0.6006 -0.1735
62733SOL     OW99923  13.264   4.575   3.784 -0.3026  0.4551 -0.1752
62733SOL    HW199924  13.208   4.652   3.788 -1.6109 -0.4213 -1.0670
62733SOL    HW299925  13.312   4.585   3.702 -0.4888  0.3160 -0.3019
62734SOL     OW99926   9.031   3.083  10.197  0.5424  0.0104  0.6335
62734SOL    HW199927   9.023   3.152  10.131  1.5950  1.2932  1.7978
62734SOL    HW299928   9.007   3.124  10.279  0.8938 -1.1039  1.3212
62735SOL     OW99929   8.307   0.953  12.079  0.2423  0.6758 -0.6083
62735SOL    HW199930   8.349   0.946  12.165 -0.2935  1.2496 -0.2860
62735SOL    HW299931   8.380   0.952  12.017  0.5433 -1.5450 -0.2886
62736SOL     OW99932   4.108   6.425   8.951  0.0307 -0.5967  0.5104
62736SOL    HW199933   4.013   6.435   8.940  0.2412 -0.8572 -2.3334
62736SOL    HW299934   4.145   6.505   8.913  0.9885 -1.5571 -0.6564
62737SOL     OW99935   8.786   7.413   0.715  0.2943  0.1240 -0.1559
62737SOL    HW199936   8.857   7.401   0.652  0.0875  1.1043 -0.6074
62737SOL    HW299937   8.779   7.508   0.725 -2.9289  0.3283 -2.5278
62738SOL     OW99938   3.590  13.208   1.561 -0.2993  0.0048 -0.0422
62738SOL    HW199939   3.657  13.147   1.530  0.6556  0.9985  0.0245
62738SOL    HW299940   3.512  13.154   1.571  0.2454 -0.9958 -0.9939
62739SOL     OW99941   6.933  10.321  11.769  0.2023 -0.2078 -0.2966
62739SOL    HW199942   6.933  10.254  11.700 -0.3626 -1.0839  0.5275
62739SOL    HW299943   6.944  10.272  11.850 -1.4573  0.5447  0.4375
62740SOL     OW99944   4.572   1.369   4.644  0.5021  0.0143  0.4814
62740SOL    HW199945   4.520   1.335   4.716  0.9137 -0.8386  0.3945
62740SOL    HW299946   4.515   1.360   4.567  0.2370  0.4771  0.6255
62741SOL     OW99947  11.304   9.380  10.541 -0.0952 -0.8257  0.1538
62741SOL    HW199948  11.259   9.365  10.624 -0.3700  0.7105  0.3052
62741SOL    HW299949  11.287   9.472  10.520  1.6982 -0.6070 -0.5543
62742SOL     OW99950   9.383   7.968   8.122  0.2538  0.0394  0.1934
62742SOL    HW199951   9.329   7.996   8.048  0.1663 -0.4841  0.0539
62742SOL    HW299952   9.391   7.874   8.111  0.9535  0.0769  0.3863
62743SOL     OW99953   6.157  13.318   2.889 -0.0296 -0.0063  0.2824
62743SOL    HW199954   6.165  13.413   2.896  1.3927  0.0016 -0.9329
62743SOL    HW299955   6.201  13.296   2.807 -2.9791 -1.4320 -1.0325
62744SOL     OW99956  12.029  11.692   2.056  0.0268 -0.0613 -0.3868
62744SOL    HW199957  11.941  11.728   2.055  0.7435  1.8328 -0.7332
62744SOL    HW299958  12.033  11.639   2.135 -1.7100 -1.0099 -0.8954
62745SOL     OW99959   3.351   1.049   7.965 -0.1975 -0.1810 -0.0607
62745SOL    HW199960   3.401   0.981   7.921  1.0495  0.2115  0.7101
62745SOL    HW299961   3.417   1.103   8.008 -1.1238  1.7434 -0.9542
62746SOL     OW99962   7.793   0.074   6.693  0.5019  0.0727  0.0400
62746SOL    HW199963   7.735   0.005   6.662  0.7944 -0.5783  0.8912
62746SOL    HW299964   7.734   0.144   6.722  0.2174  0.3778 -1.2402
62747SOL     OW99965  11.583   2.631   8.000 -0.3328 -0.6945  0.4582
62747SOL    HW199966  11.593   2.674   7.915 -1.5561  0.7267  0.9934
62747SOL    HW299967  11.540   2.548   7.981  0.5103 -0.9490 -0.4183
62748SOL     OW99968   8.653   4.997   9.982 -0.1850  0.0238  0.1706
62748SOL    HW199969   8.610   5.053   9.917 -0.8761 -0.6856  0.0044
62748SOL    HW299970   8.666   5.054  10.058 -0.5118  0.5213 -0.1420
62749SOL     OW99971  10.242   1.942   2.129  0.3918 -0.4883  0.5144
62749SOL    HW199972  10.251   1.963   2.036 -0.6484 -1.8936  0.0633
62749SOL    HW299973  10.205   1.854   2.130  0.6300 -0.6016  2.2754
62750SOL     OW99974   3.389   9.381   0.182  0.1610 -0.9840  0.4104
62750SOL    HW199975   3.345   9.462   0.209  0.4023 -0.8210  0.3257
62750SOL    HW299976   3.456   9.368   0.249  0.8320 -0.5209 -0.1555
62751SOL     OW99977   4.059  11.934   0.026  0.0999  0.6283  0.4986
62751SOL    HW199978   4.053  11.873  -0.048  1.1497 -0.2226  1.0765
62751SOL    HW299979   4.040  11.880   0.103  2.4957  0.6413  1.1628
62752SOL     OW99980  11.412   1.546  12.540  0.1045 -0.8817  0.0541
62752SOL    HW199981  11.434   1.639  12.528  0.2046 -0.9722 -0.4812
62752SOL    HW299982  11.345   1.529  12.474  2.0424 -1.8880 -1.7455
62753SOL     OW99983  12.436   2.526   1.673 -0.1278  0.0714  0.0161
62753SOL    HW199984  12.405   2.520   1.763  0.5466  0.1732  0.2570
62753SOL    HW299985  12.378   2.590   1.632 -1.2893 -0.9436  0.0052
62754SOL     OW99986  11.791   8.732  10.984  0.5638  0.1405  0.0478
62754SOL    HW199987  11.849   8.673  10.936 -0.0988 -0.2956 -0.2360
62754SOL    HW299988  11.816   8.721  11.076  0.3890 -0.6593  0.0079
62755SOL     OW99989  10.995   9.663   6.217 -0.3088  0.0695  0.0808
62755SOL    HW199990  11.089   9.654   6.234 -0.2371  0.3746 -0.1417
62755SOL    HW299991  10.981   9.619   6.133 -0.0391  1.5426 -0.7730
62756SOL     OW99992   0.879   7.113  11.489  0.0464  0.2427 -1.0160
62756SOL    HW199993   0.827   7.037  11.517  1.3575 -0.1424  0.5566
62756SOL    HW299994   0.875   7.111  11.393 -0.4845 -1.4433 -0.9978
62757SOL     OW99995  10.581  12.593   2.348  0.3302 -0.0744  0.4319
62757SOL    HW199996  10.504  12.650   2.345  0.2823 -0.1398  0.4281
62757SOL    HW299997  10.591  12.562   2.258 -0.6784 -1.4740  0.7730
62758SOL     OW99998   5.727  12.207   1.571 -0.0479  0.1638  0.1768
62758SOL    HW199999   5.644  12.253   1.582 -0.4259 -0.8858  2.0317
62758SOL    HW2    0   5.789  12.257   1.623 -0.2009 -0.6752  1.2125
62759SOL     OW    1  13.139   4.770   0.055 -0.3864  0.0207  0.1001
62759SOL    HW1    2  13.147   4.864   0.038 -2.0307  0.1917  0.0743
62759SOL    HW2    3  13.181   4.728  -0.021 -0.5495  0.7427 -0.3984
62760SOL     OW    4   7.846   6.591   9.740  0.1766  0.1183  0.0721
62760SOL    HW1    5   7.859   6.529   9.812  0.5548 -1.7173 -1.4717
62760SOL    HW2    6   7.934   6.608   9.707 -0.0601  0.0639 -0.6150
62761SOL     OW    7   4.999   9.796   8.841 -0.0644  0.3036 -0.4601
62761SOL    HW1    8   5.019   9.888   8.856  3.4285 -0.2941 -0.6238
62761SOL    HW2    9   5.018   9.781   8.749 -0.5426 -0.6203 -0.4278
62762SOL     OW   10   8.117   3.360   5.858  0.5749  0.4493 -0.3581
62762SOL    HW1   11   8.155   3.418   5.923 -1.4298 -0.6203  1.9132
62762SOL    HW2   12   8.164   3.277   5.869 -0.6637 -0.1424  0.7638
62763SOL     OW   13   3.463   7.347  12.386  0.0796  0.1784  0.2883
62763SOL    HW1   14   3.488   7.424  12.335 -0.6255 -0.7801 -1.6068
62763SOL    HW2   15   3.509   7.275  12.344  0.9715 -0.4469  2.2255
62764SOL     OW   16   3.243  12.670  10.224  0.3215 -0.1152  1.2843
62764SOL    HW1   17   3.236  12.575  10.227  2.3196 -0.3777 -0.2029
62764SOL    HW2   18   3.318  12.691  10.280 -0.5215  0.6710  2.1472
62765SOL     OW   19   8.143  12.816   4.741 -0.5890  0.2758 -0.0319
62765SOL    HW1   20   8.120  12.733   4.782 -0.0351 -0.3367 -0.9273
62765SOL    HW2   21   8.096  12.882   4.793 -1.9733 -0.6695 -0.0139
62766SOL     OW   22   2.429  10.224   7.828 -0.2523  0.0835  0.6002
62766SOL    HW1   23   2.429  10.130   7.842  0.4429  0.2048  1.4414
62766SOL    HW2   24   2.477  10.236   7.745 -0.6814 -0.3169  0.2886
62767SOL     OW   25  10.146  10.798   2.527  0.0134 -0.2344  0.4033
62767SOL    HW1   26  10.167  10.889   2.504 -1.0335  0.2581  1.3345
62767SOL    HW2   27  10.186  10.785   2.612  0.5491 -0.8064  0.0706
62768SOL     OW   28  13.303   8.026   5.190 -0.3347  0.2877 -0.1065
62768SOL    HW1   29  13.332   7.938   5.165 -0.0824  0.6126 -0.9786
62768SOL    HW2   30  13.209   8.016   5.207 -0.6021  0.1217 -1.5618
62769SOL     OW   31  12.873   3.605   2.589 -0.3812 -0.0457  0.0300
62769SOL    HW1   32  12.861   3.700   2.590 -2.9948 -0.3195  0.0171
62769SOL    HW2   33  12.788   3.569   2.612  0.5009 -2.4152 -0.1175
62770SOL     OW   34  10.526   6.836   1.295 -0.0118 -0.2327  0.0685
62770SOL    HW1   35  10.530   6.868   1.385 -0.1562  2.3147 -0.7520
62770SOL    HW2   36  10.582   6.758   1.295  0.3661 -0.0380  2.2315
62771SOL     OW   37   7.030   1.172   4.401 -0.6577 -0.0290  0.0430
62771SOL    HW1   38   7.111   1.128   4.424  1.2760  2.8422 -0.7950
62771SOL    HW2   39   7.010   1.140   4.312 -0.3678 -0.6011  0.1786
62772SOL     OW   40   9.039   8.315   3.068  0.0245 -0.5509 -0.1651
62772SOL    HW1   41   9.066   8.365   2.991  0.2589  0.3793  0.5011
62772SOL    HW2   42   9.024   8.227   3.035  0.4727 -0.2557 -1.2097
62773SOL     OW   43   5.637   1.524   5.756  0.0089  0.0202 -0.0931
62773SOL    HW1   44   5.680   1.544   5.673 -1.5989  0.2725 -0.9241
62773SOL    HW2   45   5.620   1.430   5.753  1.8523 -0.3990  0.9539
62774SOL     OW   46   4.245  13.712  13.417  0.0052 -0.7632 -0.0017
62774SOL    HW1   47   4.331  13.685  13.448  0.6528  0.1862 -0.9145
62774SOL    HW2   48   4.241  13.680  13.327 -0.0064  0.4386 -0.4390
62775SOL     OW   49  13.536   9.390   5.124  0.2437  0.0166  0.1774
62775SOL    HW1   50  13.460   9.331   5.125  0.6229 -0.4709  0.1969
62775SOL    HW2   51  13.554   9.407   5.216  1.6859 -1.8565  0.3067
62776SOL     OW   52   4.225   1.172   2.037  0.1179 -0.0118  0.0202
62776SOL    HW1   53   4.160   1.149   1.971  1.0663 -1.7755 -0.3674
62776SOL    HW2   54   4.175   1.218   2.105 -1.3037 -0.2800 -0.8025
62777SOL     OW   55  11.658   8.103   0.929 -0.2622  0.3344  0.6692
62777SOL    HW1   56  11.719   8.031   0.912 -0.5571  0.6496 -2.1025
62777SOL    HW2   57  11.639   8.140   0.843 -3.4998  0.9871  1.5324
62778SOL     OW   58  11.740  11.598  13.334  0.2137  0.3535  0.0736
62778SOL    HW1   59  11.676  11.598  13.406 -0.7692  0.5454 -0.7712
62778SOL    HW2   60  11.711  11.526  13.277  0.2059  1.0290 -0.7869
62779SOL     OW   61  13.108   1.201   3.644 -0.1058 -0.4655 -0.4569
62779SOL    HW1   62  13.013   1.213   3.637  0.1098  0.8895 -1.5741
62779SOL    HW2   63  13.144   1.288   3.627  1.2828 -0.2983  2.6545
62780SOL     OW   64   3.901   5.251   7.718 -0.1090 -0.0224  0.1241
62780SOL    HW1   65   3.864   5.286   7.637  0.5493 -0.9228 -0.5887
62780SOL    HW2   66   3.887   5.157   7.712  0.4051 -0.1523  0.8258
62781SOL     OW   67   5.522   7.265  13.482 -0.0852  0.0145  0.2990
62781SOL    HW1   68   5.564   7.182  13.460 -1.2876 -0.1628 -1.5381
62781SOL    HW2   69   5.475   7.290  13.403 -1.4548  1.4069  1.4833
62782SOL     OW   70   7.260  13.674   4.435  0.1650 -0.1190 -0.3109
62782SOL    HW1   71   7.286  13.720   4.356  1.1958  0.8737  0.5744
62782SOL    HW2   72   7.342  13.657   4.481 -0.3910 -0.9098  0.4233
62783SOL     OW   73  11.979  10.096  12.891 -0.3517  0.0056 -0.4497
62783SOL    HW1   74  12.035  10.084  12.814 -0.2928  2.0994 -0.7878
62783SOL    HW2   75  11.890  10.083  12.859 -0.2124 -1.5818 -0.2898
62784SOL     OW   76   8.937  13.721   8.481 -0.3610 -0.5519  0.1968
62784SOL    HW1   77   9.006  13.656   8.463  0.0321  0.3460 -1.8322
62784SOL    HW2   78   8.984  13.798   8.513 -0.6004 -0.4949  0.4159
62785SOL     OW   79  10.138   6.572   0.938  0.7122 -0.1519 -0.1439
62785SOL    HW1   80  10.083   6.544   0.865  0.7163  0.6354 -0.4565
62785SOL    HW2   81  10.220   6.599   0.898  0.9509 -0.3299  0.2165
62786SOL     OW   82   7.920   3.719   6.768 -0.4731  0.2226  0.2275
62786SOL    HW1   83   7.958   3.800   6.802 -0.0332 -0.4922  1.5288
62786SOL    HW2   84   7.944   3.718   6.676 -0.1824  1.3976  0.2716
62787SOL     OW   85   7.509  10.057   2.560  0.4427 -0.2557  0.3634
62787SOL    HW1   86   7.547  10.133   2.517  0.5743  0.6022  1.9029
62787SOL    HW2   87   7.436  10.030   2.504  1.7086 -0.3486 -1.3118
62788SOL     OW   88  10.016   4.357  13.312  0.7780 -0.1288 -0.6650
62788SOL    HW1   89  10.090   4.364  13.372  1.0153 -0.1763 -0.9522
62788SOL    HW2   90   9.940   4.345  13.369  1.2806 -2.7114 -0.4195
62789SOL     OW   91   0.903   1.944  12.972  0.2949  0.3695  0.8601
62789SOL    HW1   92   0.969   1.877  12.988  1.0098  0.8313 -0.0509
62789SOL    HW2   93   0.935   2.022  13.017  1.3287  1.1105 -1.0422
62790SOL     OW   94   0.135   0.914  11.840  0.2590 -0.0050  0.0953
62790SOL    HW1   95   0.154   1.001  11.876 -1.0014  0.4486 -0.3096
62790SOL    HW2   96   0.099   0.931  11.753 -1.8885 -0.7915  0.7650
62791SOL     OW   97   0.122  12.209   8.303  0.7727  0.2232  0.3794
62791SOL    HW1   98   0.133  12.241   8.214  3.2258 -0.7230  0.2863
62791SOL    HW2   99   0.100  12.116   8.293 -0.0793  0.3615  0.7830
62792SOL     OW  100   3.748  10.340   0.055  0.0850 -0.2180  0.1583
62792SOL    HW1  101   3.808  10.403   0.014 -0.0981  1.4620  2.2799
62792SOL    HW2  102   3.662  10.366   0.024  0.0663  0.2099  0.5580
62793SOL     OW  103   9.740  11.146   7.919 -0.2081 -0.0012 -0.7644
62793SOL    HW1  104   9.757  11.240   7.917 -0.6217  0.0661 -1.0053
62793SOL    HW2  105   9.802  11.113   7.984  0.0221  0.4190 -0.7654
62794SOL     OW  106   9.947   6.908   2.187 -0.1615 -0.5270  0.1049
62794SOL    HW1  107   9.986   6.837   2.238 -0.6913 -0.3165  0.8255
62794SOL    HW2  108  10.021   6.951   2.144  0.0976 -1.9580 -0.9361
62795SOL     OW  109  10.167   7.028   0.146  0.5439 -0.8325 -0.6348
62795SOL    HW1  110  10.232   7.098   0.143  0.9005 -1.1895 -2.8626
62795SOL    HW2  111  10.103   7.058   0.212  0.7053  1.5656 -1.4587
62796SOL     OW  112   0.885  13.663   3.984  0.1654  0.0755  0.0660
62796SOL    HW1  113   0.802  13.685   4.028 -1.0455 -0.4634 -1.8191
62796SOL    HW2  114   0.896  13.569   4.000 -0.0258 -0.0204 -0.3419
62797SOL     OW  115   6.681   4.936   9.635 -0.0835 -0.1771  0.2022
62797SOL    HW1  116   6.600   4.960   9.590  0.5224  0.6176 -0.4901
62797SOL    HW2  117   6.721   5.019   9.660  1.3422 -0.4521 -0.9567
62798SOL     OW  118   7.147   2.025   0.596 -0.1672  0.2106 -0.3212
62798SOL    HW1  119   7.173   2.102   0.647  0.5452 -0.4941  0.4105
62798SOL    HW2  120   7.059   2.004   0.627  0.4967 -0.5974  1.1512
62799SOL     OW  121   8.587  10.260   1.533 -0.0621 -0.2514 -0.4808
62799SOL    HW1  122   8.569  10.238   1.625  0.7940 -0.1710 -0.2800
62799SOL    HW2  123   8.681  10.241   1.523  0.0483  0.5937 -1.0920
62800SOL     OW  124   3.996   0.821  13.167  0.0945 -0.5365  0.6580
62800SOL    HW1  125   3.921   0.869  13.202  0.4051 -0.4946  1.2802
62800SOL    HW2  126   4.044   0.884  13.114 -0.1253 -0.4747  0.5324
62801SOL     OW  127   6.040   2.871   7.664  0.5899  0.2943  0.2523
62801SOL    HW1  128   5.983   2.795   7.677 -1.6077  1.7122 -0.5614
62801SOL    HW2  129   6.082   2.855   7.579  1.1361 -0.5785  0.6722
62802SOL     OW  130   6.936  12.735   5.841  0.3212 -0.3617 -0.0651
62802SOL    HW1  131   6.993  12.721   5.765  1.5322 -0.1966  0.7705
62802SOL    HW2  132   6.996  12.729   5.916 -0.4193  1.7460  0.7490
62803SOL     OW  133  13.031   9.963   2.959  0.1870  0.3973 -0.3954
62803SOL    HW1  134  13.067  10.021   3.026 -0.6597 -0.8762  1.2204
62803SOL    HW2  135  12.937   9.963   2.975 -0.1225  0.5171 -1.9937
62804SOL     OW  136   4.724   1.740  12.455  0.2526  0.3342 -0.6225
62804SOL    HW1  137   4.803   1.794  12.447  0.4260 -0.1409 -2.5211
62804SOL    HW2  138   4.690   1.761  12.542  0.8955  2.7119 -0.8688
62805SOL     OW  139   8.768   2.980   9.705 -0.2054 -0.4766 -0.0315
62805SOL    HW1  140   8.837   2.999   9.769  0.1114  0.1061 -0.5309
62805SOL    HW2  141   8.789   2.893   9.672  1.6871  0.5655 -1.8668
62806SOL     OW  142   6.021   8.749   5.578 -0.0841  0.1147 -0.6892
62806SOL    HW1  143   6.061   8.802   5.509  0.4150  0.9787  0.2188
62806SOL    HW2  144   6.089   8.745   5.646  0.7466 -3.4418 -1.4951
62807SOL     OW  145   7.176   3.629   6.016  0.1823 -0.1619  0.4588
62807SOL    HW1  146   7.109   3.577   5.972 -1.3000  1.5384  0.6158
62807SOL    HW2  147   7.251   3.627   5.956 -0.9382  0.0666 -1.0159
62808SOL     OW  148  13.434   8.910   3.536  0.0730  0.0651  0.1872
62808SOL    HW1  149  13.460   8.984   3.482 -2.4189  1.5728  0.8504
62808SOL    HW2  150  13.386   8.852   3.477  0.8366 -0.3312 -0.0469
62809SOL     OW  151   1.298   4.013  13.557  0.1147 -0.1402  0.1350
62809SOL    HW1  152   1.233   3.952  13.523  0.5557 -1.8909  2.1903
62809SOL    HW2  153   1.247   4.077  13.606 -0.2267  0.1834 -0.6163
62810SOL     OW  154   1.777  11.436   5.854  0.0712  0.0869  0.3705
62810SOL    HW1  155   1.794  11.342   5.847  0.8125  0.2449 -0.0947
62810SOL    HW2  156   1.687  11.442   5.886 -0.1701 -0.7798 -0.1050
62811SOL     OW  157   1.270   0.637  10.442  0.1180 -0.4813  0.2354
62811SOL    HW1  158   1.234   0.554  10.474 -0.1266 -0.9978 -1.2913
62811SOL    HW2  159   1.288   0.621  10.349 -1.1568  1.5482 -0.4305
62812SOL     OW  160   7.327   0.673   9.279 -0.3838  0.0174 -0.3031
62812SOL    HW1  161   7.388   0.651   9.350  0.8786 -0.7271 -1.5573
62812SOL    HW2  162   7.245   0.693   9.323  0.6219  0.5537  1.4286
62813SOL     OW  163   7.149   0.088   5.687 -0.5940 -0.1360 -0.2029
62813SOL    HW1  164   7.100   0.077   5.768  0.0711  1.1228  0.4038
62813SOL    HW2  165   7.238   0.061   5.709 -0.1906  1.1001 -0.2199
62814SOL     OW  166   3.871   6.116  12.606 -0.3782  0.1550 -0.2375
62814SOL    HW1  167   3.778   6.102  12.588 -0.1328 -0.2405 -1.2696
62814SOL    HW2  168   3.910   6.029  12.599 -0.0604  0.1462  1.1817
62815SOL     OW  169   5.323  13.501   3.032  0.4059  0.0240  0.5021
62815SOL    HW1  170   5.286  13.588   3.016 -0.9567 -0.1329  2.3759
62815SOL    HW2  171   5.285  13.475   3.116  1.2434 -2.1441  0.2590
62816SOL     OW  172  10.871   5.083   3.666 -0.3471 -0.0147  0.1706
62816SOL    HW1  173  10.781   5.102   3.637 -0.5486 -1.3674 -0.1944
62816SOL    HW2  174  10.864   5.075   3.761 -0.7797 -0.8585  0.0770
62817SOL     OW  175   4.064   9.483   3.047 -0.1530 -0.1687  0.1679
62817SOL    HW1  176   4.056   9.392   3.076  0.4674 -0.4798 -0.5949
62817SOL    HW2  177   4.063   9.534   3.127 -1.3950 -0.7784  0.5574
62818SOL     OW  178   3.213   0.182   6.073  0.0268 -0.1706 -0.3949
62818SOL    HW1  179   3.131   0.185   6.024  0.9907  0.6231 -2.0457
62818SOL    HW2  180   3.187   0.201   6.163 -1.4873  1.2069 -1.0536
62819SOL     OW  181   4.974   9.239   4.475 -0.1358 -0.1300  0.5522
62819SOL    HW1  182   4.969   9.225   4.570 -1.2197 -0.2540  0.4951
62819SOL    HW2  183   4.883   9.232   4.446 -0.2020  2.4581 -0.1334
62820SOL     OW  184  13.556   6.660   9.151 -0.1570  0.2634 -0.0920
62820SOL    HW1  185  13.614   6.683   9.079  0.3167  1.6416  0.6992
62820SOL    HW2  186  13.504   6.587   9.117  1.3987 -0.4084 -1.1290
62821SOL     OW  187  10.272   4.102   5.640 -0.0788 -0.0379 -0.0383
62821SOL    HW1  188  10.187   4.083   5.681 -0.0775 -1.7952 -0.7519
62821SOL    HW2  189  10.251   4.115   5.547  0.5020 -1.3203 -0.3668
62822SOL     OW  190   6.227  13.013  10.607 -0.4389 -0.3367  1.1722
62822SOL    HW1  191   6.268  12.944  10.555 -0.8630 -1.3072  2.1113
62822SOL    HW2  192   6.187  12.968  10.681 -0.0069  0.9966  2.2631
62823SOL     OW  193   9.859   6.990   4.152 -0.0628  0.3809 -0.2542
62823SOL    HW1  194   9.892   7.005   4.064  0.0045  0.6894 -0.1777
62823SOL    HW2  195   9.893   7.063   4.204  0.1348  0.0492  0.0930
62824SOL     OW  196  11.080   0.012   5.002  0.0933 -0.0803  0.1737
62824SOL    HW1  197  11.019  -0.031   5.062 -1.4103  0.5409 -0.8629
62824SOL    HW2  198  11.105   0.092   5.047 -0.0026 -0.2439  0.5225
62825SOL     OW  199   7.416   2.613   1.425 -0.2280 -0.0499 -0.5537
62825SOL    HW1  200   7.499   2.642   1.388 -1.0800  0.8351 -1.9076
62825SOL    HW2  201   7.393   2.535   1.375 -0.0222 -0.5377  0.1037
62826SOL     OW  202   7.486   8.063  13.491 -0.3613  0.1704 -0.0835
62826SOL    HW1  203   7.531   8.145  13.511  0.4064 -0.3957  0.6144
62826SOL    HW2  204   7.416   8.087  13.431 -0.8652  1.5095  0.9850
62827SOL     OW  205  10.991   3.761   9.216  0.2290 -0.1604 -0.1215
62827SOL    HW1  206  10.953   3.793   9.134 -3.3101  0.4514  1.5690
62827SOL    HW2  207  11.084   3.783   9.209  0.2833 -0.7684 -4.2007
62828SOL     OW  208   8.971  12.209   6.783  0.7196 -0.0269 -0.0989
62828SOL    HW1  209   9.017  12.195   6.866  0.2270 -1.0193  0.0179
62828SOL    HW2  210   9.019  12.156   6.719  0.9032  0.4778 -0.3813
62829SOL     OW  211   7.230  11.868  10.736 -0.4980 -0.1295  0.0887
62829SOL    HW1  212   7.168  11.831  10.798  0.2551 -0.8811  0.4109
62829SOL    HW2  213   7.281  11.793  10.706 -0.6173  0.2740 -1.1798
62830SOL     OW  214   4.991   1.112   3.975  0.2271  0.2194 -0.4505
62830SOL    HW1  215   4.987   1.017   3.978  2.0028  0.1428  1.5743
62830SOL    HW2  216   5.079   1.132   3.945  0.0299  1.2173 -0.4028
62831SOL     OW  217   8.758  10.476   0.848  0.0206 -0.4356  0.0166
62831SOL    HW1  218   8.684  10.534   0.832  1.4509  1.4181 -0.1789
62831SOL    HW2  219   8.761  10.419   0.772 -1.8929 -1.3978  0.5807
62832SOL     OW  220   1.277   8.133  13.509  0.0883  0.1370  0.0095
62832SOL    HW1  221   1.291   8.158  13.600  2.5895 -0.1213 -0.2102
62832SOL    HW2  222   1.279   8.037  13.510  0.7607  0.1340 -0.3507
62833SOL     OW  223   6.227   5.178   3.459 -0.3822  0.4067 -0.0508
62833SOL    HW1  224   6.322   5.164   3.461 -0.5871 -1.4179 -0.9133
62833SOL    HW2  225   6.204   5.194   3.551  0.4452 -1.7472  0.5930
62834SOL     OW  226   5.218   4.755  11.312 -0.1592 -0.1814  0.0947
62834SOL    HW1  227   5.261   4.839  11.326 -0.3343  0.3059 -2.0093
62834SOL    HW2  228   5.290   4.695  11.292 -0.2903  0.4731 -2.6922
62835SOL     OW  229   9.868  12.895   1.038  0.1144 -0.1266  0.6661
62835SOL    HW1  230   9.906  12.808   1.050 -0.6060 -0.2957  1.8646
62835SOL    HW2  231   9.862  12.931   1.126 -0.3361  0.8260  0.2615
62836SOL     OW  232   0.868  10.330   8.246  0.2500 -0.2510  0.6092
62836SOL    HW1  233   0.873  10.319   8.151  0.5090 -1.0228  0.7006
62836SOL    HW2  234   0.775  10.334   8.265  0.1982  1.1552  0.2066
62837SOL     OW  235   6.084   9.348   0.095 -0.3303  0.7310  0.0832
62837SOL    HW1  236   5.991   9.358   0.073  0.0482  0.0327 -2.0895
62837SOL    HW2  237   6.085   9.282   0.165 -1.3911 -0.8809 -1.3266
62838SOL     OW  238   1.613  13.503  11.377 -0.1807  0.2045  0.6126
62838SOL    HW1  239   1.541  13.460  11.423  0.1360 -0.3510  0.5964
62838SOL    HW2  240   1.689  13.446  11.391 -0.1515 -0.1848 -0.8971
62839SOL     OW  241   9.962   0.379  12.219 -0.0724  0.3973 -0.6910
62839SOL    HW1  242   9.930   0.381  12.309 -1.3636  0.8928 -1.1466
62839SOL    HW2  243   9.909   0.313  12.175 -2.1094  2.7589 -2.0107
62840SOL     OW  244  13.207   5.101  13.070  0.4649 -0.8850  0.6248
62840SOL    HW1  245  13.252   5.093  12.986  1.1749  0.4652  0.8467
62840SOL    HW2  246  13.214   5.014  13.110  1.2722 -1.1821 -0.1407
62841SOL     OW  247   1.216   9.168   1.723 -0.1082 -0.1467 -0.3425
62841SOL    HW1  248   1.199   9.151   1.816  2.2688 -0.5684  0.0656
62841SOL    HW2  249   1.191   9.259   1.710 -1.2603 -0.3238  0.4832
62842SOL     OW  250   5.091   3.323   9.853 -0.0837  1.1025 -0.3971
62842SOL    HW1  251   5.132   3.362   9.931 -1.7146 -0.4486  1.3426
62842SOL    HW2  252   5.091   3.393   9.789  1.6210  2.3595  0.8757
62843SOL     OW  253   0.879   2.287  13.034 -0.4937 -0.2427  0.4648
62843SOL    HW1  254   0.798   2.339  13.034  0.4127  1.3588 -1.9223
62843SOL    HW2  255   0.896   2.271  12.941  2.8022  0.9247  0.7575
62844SOL     OW  256   1.288   2.417   0.722 -0.4308 -0.2664 -0.1392
62844SOL    HW1  257   1.375   2.455   0.738 -0.8783  1.0718 -0.7669
62844SOL    HW2  258   1.228   2.473   0.770 -1.2159  0.4778 -1.8997
62845SOL     OW  259  11.418   5.451   0.975  0.9304 -0.1539  0.1739
62845SOL    HW1  260  11.451   5.486   1.058 -0.9832  1.1189  0.4706
62845SOL    HW2  261  11.393   5.528   0.924 -0.7740 -0.9801 -0.3219
62846SOL     OW  262   6.063   6.328  11.067 -0.0420 -0.8215 -0.1291
62846SOL    HW1  263   6.097   6.416  11.083 -1.0752 -0.5022  0.3619
62846SOL    HW2  264   6.002   6.339  10.994 -1.7939 -0.7087  1.2936
62847SOL     OW  265  10.271   2.967   5.244  0.2441 -0.2618  0.1020
62847SOL    HW1  266  10.276   2.871   5.243  2.3736 -0.2324 -2.3440
62847SOL    HW2  267  10.270   2.992   5.152 -1.2960  2.1000  0.6688
62848SOL     OW  268   6.817   8.194   3.080  0.1145  0.1848  0.2614
62848SOL    HW1  269   6.822   8.290   3.076  0.9502  0.1597  0.4829
62848SOL    HW2  270   6.904   8.167   3.112 -0.7821 -0.5190  2.2584
62849SOL     OW  271  11.845   3.921   4.897 -0.4379 -0.4384 -0.6302
62849SOL    HW1  272  11.849   3.918   4.992 -0.2911  0.0914 -0.6145
62849SOL    HW2  273  11.757   3.954   4.878  0.0007  0.7778 -0.6356
62850SOL     OW  274   3.520   5.588  10.132  0.8510 -0.0959  0.9620
62850SOL    HW1  275   3.493   5.679  10.118 -1.2112 -0.9183 -0.8849
62850SOL    HW2  276   3.578   5.569  10.058  0.1691 -0.6692  0.5650
62851SOL     OW  277   0.332   1.288   0.731  0.2889  0.1984 -0.0943
62851SOL    HW1  278   0.354   1.341   0.807 -0.1542  0.2619 -0.0055
62851SOL    HW2  279   0.400   1.308   0.667  0.3977  0.5052  0.1159
62852SOL     OW  280   3.759   3.262   3.137 -0.3918 -0.3840 -0.2212
62852SOL    HW1  281   3.836   3.209   3.157 -0.0743 -0.1929 -0.9326
62852SOL    HW2  282   3.726   3.288   3.223  1.0590  0.5489  0.0973
62853SOL     OW  283  11.471  12.124   5.388 -0.3284 -0.0591  0.1994
62853SOL    HW1  284  11.489  12.071   5.310  0.0101 -0.2920  0.4300
62853SOL    HW2  285  11.433  12.205   5.354  2.1583  0.9465 -0.4334
62854SOL     OW  286   1.565   4.067   4.699 -0.0145  0.2955 -0.3015
62854SOL    HW1  287   1.482   4.020   4.701  0.6396 -0.9036 -0.3449
62854SOL    HW2  288   1.548   4.144   4.644 -2.2114  2.3787  2.9496
62855SOL     OW  289  10.560   8.704   3.568  0.0683  0.5858  0.3202
62855SOL    HW1  290  10.544   8.661   3.653 -0.9469  2.1972  0.9788
62855SOL    HW2  291  10.614   8.779   3.590  1.1340  0.1530 -0.7167
62856SOL     OW  292   0.339   3.392   6.081 -0.2665  0.0596  0.4151
62856SOL    HW1  293   0.345   3.392   5.985 -0.5742 -3.3356  0.2733
62856SOL    HW2  294   0.429   3.375   6.110 -0.2674  0.5604  0.7182
62857SOL     OW  295   0.016   9.337   4.622  0.0882  0.4968 -0.3769
62857SOL    HW1  296   0.046   9.359   4.710 -0.3078  0.1969 -0.1599
62857SOL    HW2  297  -0.052   9.402   4.603 -1.2597 -0.6190  0.3652
62858SOL     OW  298   7.141   2.877  11.740 -0.3281 -0.0546 -0.3932
62858SOL    HW1  299   7.175   2.826  11.814  1.7871 -1.2943 -2.1311
62858SOL    HW2  300   7.182   2.962  11.749  2.4183 -1.1380 -1.7452
62859SOL     OW  301   3.478   6.928   7.020 -0.5426 -0.3622  0.1738
62859SOL    HW1  302   3.555   6.983   7.005 -0.1825 -0.5551  1.2570
62859SOL    HW2  303   3.449   6.903   6.932  0.0922  0.4491 -0.2777
62860SOL     OW  304   3.560   5.097   4.315  0.2426 -0.3185 -0.2676
62860SOL    HW1  305   3.619   5.170   4.332  2.7090 -1.6691 -2.3885
62860SOL    HW2  306   3.545   5.099   4.221 -0.2554 -2.0715 -0.2641
62861SOL     OW  307  12.039  11.749   5.482 -0.5122  0.1918  0.2813
62861SOL    HW1  308  11.951  11.775   5.508 -0.4362  0.1585  0.5734
62861SOL    HW2  309  12.084  11.831   5.461 -0.5118  0.2356  0.4502
62862SOL     OW  310   3.363   6.692   9.981 -0.2994  0.2614  0.5823
62862SOL    HW1  311   3.421   6.632   9.935  0.5590  0.1774  1.7144
62862SOL    HW2  312   3.275   6.660   9.962  0.0952 -0.6208  0.1787
62863SOL     OW  313   6.768   3.957  11.243 -0.2253  0.2977  0.3534
62863SOL    HW1  314   6.714   3.902  11.300 -0.1782  1.0886  1.1727
62863SOL    HW2  315   6.706   4.005  11.190 -0.3066  0.5739  0.6972
62864SOL     OW  316   5.307  10.691   4.585  0.0515  0.5321 -0.0038
62864SOL    HW1  317   5.214  10.702   4.563  0.4036  2.5365 -0.7186
62864SOL    HW2  318   5.351  10.690   4.500  0.5506 -2.9377  0.1589
62865SOL     OW  319   3.402   3.947   8.388  0.1436  0.2835  0.3826
62865SOL    HW1  320   3.470   3.926   8.324 -0.5854  1.2316 -0.7290
62865SOL    HW2  321   3.396   4.042   8.387  0.1415  0.3302  1.9191
62866SOL     OW  322   9.794   5.938   2.447 -0.2158  0.1427 -0.3658
62866SOL    HW1  323   9.866   5.876   2.456  0.5084  0.1543 -4.1815
62866SOL    HW2  324   9.715   5.887   2.466  0.6020 -0.8368  0.4561
62867SOL     OW  325  12.679   1.683  12.356  0.7927  0.4211 -0.2116
62867SOL    HW1  326  12.716   1.718  12.436 -1.8983  1.3728  0.7405
62867SOL    HW2  327  12.649   1.760  12.307  0.1817 -0.2581 -0.9501
62868SOL     OW  328  10.645   1.146  10.185  0.4229  0.1811  0.3647
62868SOL    HW1  329  10.579   1.209  10.156 -1.4893 -1.3693  1.1018
62868SOL    HW2  330  10.603   1.060  10.172  2.4828 -0.9081  0.4502
62869SOL     OW  331   8.156   4.865  12.846 -0.0406 -0.4348  0.1844
62869SOL    HW1  332   8.186   4.906  12.927  1.5341  0.7417 -0.9361
62869SOL    HW2  333   8.063   4.889  12.840  0.7402  2.9685 -0.3303
62870SOL     OW  334   1.191   6.261   0.802 -0.5820 -0.7447 -0.0172
62870SOL    HW1  335   1.133   6.280   0.876 -0.5347  0.8386 -0.3478
62870SOL    HW2  336   1.265   6.320   0.814  0.5999 -2.1401 -0.0694
62871SOL     OW  337   4.162   1.254  11.243 -0.3639 -0.3959 -0.5325
62871SOL    HW1  338   4.243   1.276  11.288 -1.3729 -2.9023  2.9263
62871SOL    HW2  339   4.133   1.337  11.204  2.0936  1.3256  1.0059
62872SOL     OW  340  12.230   9.642   7.600  0.1888  0.1392 -0.1397
62872SOL    HW1  341  12.150   9.637   7.653  1.5924 -1.0994  1.9996
62872SOL    HW2  342  12.219   9.574   7.534 -0.1776 -0.6567  0.7059
62873SOL     OW  343  11.572   8.130   8.836 -0.1111 -0.4346 -0.5841
62873SOL    HW1  344  11.479   8.113   8.855  0.1043 -0.7931  0.1998
62873SOL    HW2  345  11.609   8.155   8.921  0.5238 -0.3639 -0.8823
62874SOL     OW  346   6.353   4.326   8.953 -0.0129 -0.4621  0.1783
62874SOL    HW1  347   6.283   4.326   9.018 -0.4405 -0.7993 -0.2648
62874SOL    HW2  348   6.401   4.407   8.968 -0.6879 -0.0776  0.3000
62875SOL     OW  349   2.651  11.526   3.463 -0.9680  0.0955 -0.0896
62875SOL    HW1  350   2.634  11.440   3.424 -0.4979 -0.5031  0.9748
62875SOL    HW2  351   2.565  11.566   3.471 -1.1039  0.1718 -1.5373
62876SOL     OW  352   3.967   7.781   7.010 -0.1509  0.0453 -0.4631
62876SOL    HW1  353   3.889   7.742   7.050 -0.6664 -0.1236 -1.6039
62876SOL    HW2  354   4.039   7.726   7.039 -0.5941 -0.4610 -0.3080
62877SOL     OW  355   0.298   0.514   7.273  0.2017  0.1364 -0.0562
62877SOL    HW1  356   0.250   0.541   7.194 -3.0037  0.0886  1.7166
62877SOL    HW2  357   0.290   0.419   7.273  1.3410  0.0350 -0.3194
62878SOL     OW  358   0.263  13.355   6.711 -0.3900 -0.4894  0.3845
62878SOL    HW1  359   0.215  13.274   6.696  0.2351 -0.4562 -2.1627
62878SOL    HW2  360   0.347  13.342   6.667 -0.3413  1.6085 -0.2602
62879SOL     OW  361   8.226   1.496  11.417 -0.3518  0.6707  0.3699
62879SOL    HW1  362   8.317   1.514  11.443 -0.3296  0.0520  0.7374
62879SOL    HW2  363   8.182   1.580  11.426  0.4752  1.3079 -1.0946
62880SOL     OW  364  12.054  12.343   0.394 -0.4344 -0.0338  0.0078
62880SOL    HW1  365  12.037  12.349   0.300 -1.2274  1.3915  0.2141
62880SOL    HW2  366  12.074  12.433   0.421 -1.4178 -0.2044  1.4098
62881SOL     OW  367  10.319  10.622  12.893 -0.3167 -0.0488 -0.3613
62881SOL    HW1  368  10.233  10.660  12.873 -0.2966 -0.3194 -0.9702
62881SOL    HW2  369  10.372  10.640  12.815  0.3485  0.5870  0.2134
62882SOL     OW  370   1.463  13.501   3.596 -0.0468 -0.1647 -0.1352
62882SOL    HW1  371   1.510  13.421   3.573 -0.3573 -0.5696  0.5889
62882SOL    HW2  372   1.531  13.562   3.623  0.4298  0.6373 -2.8507
62883SOL     OW  373   1.368   9.624   4.255  0.1690  0.2314 -0.4013
62883SOL    HW1  374   1.443   9.666   4.213  0.2910  0.0849 -0.3331
62883SOL    HW2  375   1.393   9.532   4.261 -0.2274  0.0924 -0.8355
62884SOL     OW  376  11.436   8.177   2.841  0.7332 -0.1282 -0.3120
62884SOL    HW1  377  11.488   8.180   2.761  0.2859  0.4298 -0.5896
62884SOL    HW2  378  11.488   8.125   2.902  0.3984 -1.9354 -1.4668
62885SOL     OW  379   9.169  12.228   5.634 -0.0471 -0.0328  0.0249
62885SOL    HW1  380   9.107  12.292   5.669 -0.0990 -0.4262  0.6554
62885SOL    HW2  381   9.236  12.281   5.591 -0.0099  0.4498  0.6715
62886SOL     OW  382   4.823  11.479   7.493  0.1195  0.2675 -0.0848
62886SOL    HW1  383   4.800  11.570   7.476  0.6477  0.5533  0.6674
62886SOL    HW2  384   4.846  11.442   7.408 -0.2247  0.7996 -0.4079
62887SOL     OW  385  12.466   3.387   2.871  0.5647  0.1787 -0.6789
62887SOL    HW1  386  12.504   3.464   2.913 -1.5425  0.6929  0.3922
62887SOL    HW2  387  12.441   3.329   2.943  0.9006 -0.9352 -1.4225
62888SOL     OW  388   6.482   4.808   3.258 -0.1053 -0.0942 -0.0912
62888SOL    HW1  389   6.477   4.743   3.187 -1.0451  0.0135 -0.1332
62888SOL    HW2  390   6.399   4.854   3.254  0.3818  0.8408  0.2209
62889SOL     OW  391   1.385   6.778   5.404  0.2323  0.0625  0.4806
62889SOL    HW1  392   1.409   6.860   5.360  0.1477 -0.8421 -1.3134
62889SOL    HW2  393   1.292   6.788   5.423 -0.0117  0.0006 -0.6290
62890SOL     OW  394   3.557   2.403  13.007 -0.3786  0.1511  0.0745
62890SOL    HW1  395   3.526   2.471  12.947 -1.3808 -0.8020 -0.5408
62890SOL    HW2  396   3.603   2.341  12.951 -0.7652 -0.4208  0.3815
62891SOL     OW  397   6.686  12.239   2.690 -0.2692  0.4542  0.1344
62891SOL    HW1  398   6.713  12.291   2.615 -0.3148  1.0067  0.4960
62891SOL    HW2  399   6.740  12.271   2.762  2.7475 -2.7929 -0.4169
62892SOL     OW  400   5.652   8.893   5.913 -0.2550  0.1235  0.5386
62892SOL    HW1  401   5.569   8.929   5.882 -0.3710 -1.3026 -0.9952
62892SOL    HW2  402   5.692   8.856   5.834  1.5260  0.1789  1.3752
62893SOL     OW  403   9.467   4.551  11.288 -0.1466 -0.1647  0.3514
62893SOL    HW1  404   9.505   4.610  11.223 -2.5529  2.1610  0.8887
62893SOL    HW2  405   9.377   4.537  11.259  0.0684 -2.9153  0.7620
62894SOL     OW  406   6.822   4.788  12.870 -0.6339  0.2457 -0.6657
62894SOL    HW1  407   6.825   4.735  12.791 -0.7235  0.1777 -0.6238
62894SOL    HW2  408   6.914   4.811  12.887  0.2346 -4.0053  2.0982
62895SOL     OW  409  12.844   1.076   5.721 -0.0262  0.2277  0.2532
62895SOL    HW1  410  12.859   1.143   5.787  1.0717  0.5849 -0.3289
62895SOL    HW2  411  12.754   1.048   5.734  0.5003 -0.5760  2.7042
62896SOL     OW  412   9.226   9.535  12.208  0.3383 -0.6659  0.3790
62896SOL    HW1  413   9.244   9.562  12.118 -0.4701 -1.7498 -0.1408
62896SOL    HW2  414   9.211   9.617  12.255  0.0309 -0.1006 -0.6516
62897SOL     OW  415  10.994   8.514   7.701  0.0717 -0.1525  0.1232
62897SOL    HW1  416  11.026   8.519   7.792  1.1122 -0.5860 -0.2033
62897SOL    HW2  417  11.071   8.533   7.648 -0.0787 -1.7248 -0.7029
62898SOL     OW  418   9.037   6.997  12.372 -0.1691 -0.2107  0.1182
62898SOL    HW1  419   9.011   7.011  12.281 -1.6142  1.5449  0.7331
62898SOL    HW2  420   9.043   6.902  12.381 -0.1067 -0.4346 -1.7632
62899SOL     OW  421   9.017   8.967   8.015  0.3610  0.3951 -0.3821
62899SOL    HW1  422   9.019   8.886   8.066 -0.2936 -0.1449 -1.1964
62899SOL    HW2  423   8.992   8.939   7.927  0.3406  1.4581 -0.7194
62900SOL     OW  424  13.317   7.622  10.930 -0.0120  0.1640 -0.3229
62900SOL    HW1  425  13.344   7.635  11.021 -0.0503  0.4616 -0.3540
62900SOL    HW2  426  13.394   7.583  10.888  0.0391  0.1145 -0.1860
62901SOL     OW  427   4.477  11.708   5.134  0.5817 -0.2312  0.1759
62901SOL    HW1  428   4.491  11.614   5.132 -3.0960 -0.9001  0.0165
62901SOL    HW2  429   4.396  11.720   5.184 -0.3216  2.6097 -1.6967
62902SOL     OW  430  13.329   6.775   6.562 -0.1752 -0.2019  0.3617
62902SOL    HW1  431  13.299   6.863   6.540 -0.8754  0.3391  3.0882
62902SOL    HW2  432  13.411   6.789   6.610 -0.5704 -0.9673  1.2872
62903SOL     OW  433   0.569   2.605   2.890  0.1877 -0.3533  0.4181
62903SOL    HW1  434   0.507   2.605   2.817  0.9633 -1.8184 -0.2918
62903SOL    HW2  435   0.654   2.592   2.848  0.5594 -2.1315  1.6264
62904SOL     OW  436  13.743   9.140   1.138 -0.0498  0.3431 -0.5274
62904SOL    HW1  437  13.818   9.137   1.197  0.6452  2.0431 -1.2652
62904SOL    HW2  438  13.750   9.061   1.085  1.0570  0.3613 -0.4170
62905SOL     OW  439   2.987   4.565   5.234 -0.0519 -0.0806 -0.4876
62905SOL    HW1  440   2.983   4.470   5.243  1.2492 -0.1891 -0.9045
62905SOL    HW2  441   2.928   4.585   5.161 -0.6538 -0.5074 -0.1309
62906SOL     OW  442   3.652   7.973  13.402 -0.2995 -0.1357 -0.1299
62906SOL    HW1  443   3.651   8.066  13.380 -0.7261  0.0559  0.6891
62906SOL    HW2  444   3.745   7.951  13.406 -0.1907  0.3439  0.0532
62907SOL     OW  445  12.316  12.735  12.222 -0.4461 -0.2639  0.7838
62907SOL    HW1  446  12.225  12.762  12.215 -0.1998  1.1023  2.2617
62907SOL    HW2  447  12.357  12.766  12.141 -0.9516  0.5974  0.8475
62908SOL     OW  448   6.224  11.101   0.787 -0.7708  0.4966 -0.2640
62908SOL    HW1  449   6.216  11.178   0.843  2.3433  0.7647 -0.0417
62908SOL    HW2  450   6.211  11.027   0.845  2.1556  0.7776  0.9069
62909SOL     OW  451   9.369   6.942   5.393  0.1451  0.5461 -0.1390
62909SOL    HW1  452   9.438   6.958   5.329  1.2458 -0.5324  0.7193
62909SOL    HW2  453   9.292   6.921   5.340 -0.3040  4.1937 -1.1877
62910SOL     OW  454   2.156   4.863   7.458 -0.2299  0.2644 -0.0852
62910SOL    HW1  455   2.136   4.861   7.552  1.2837  0.2378  0.2585
62910SOL    HW2  456   2.094   4.801   7.419  1.3483 -2.4016  1.3702
62911SOL     OW  457  10.636   9.972   2.909 -0.0761 -0.4557  0.2093
62911SOL    HW1  458  10.715   9.986   2.856 -0.6998 -1.1373 -0.9305
62911SOL    HW2  459  10.621   9.878   2.906 -0.0319 -0.5425  1.7862
62912SOL     OW  460   0.988  10.745   5.714  0.2972 -0.3335  0.4490
62912SOL    HW1  461   0.969  10.835   5.687 -0.8445 -0.5682  0.4000
62912SOL    HW2  462   1.075  10.749   5.753 -0.3615  1.0806  1.8540
62913SOL     OW  463   1.574   8.036  10.503 -0.1707  0.6753 -0.1512
62913SOL    HW1  464   1.486   7.999  10.514  0.3098 -0.2685  0.7134
62913SOL    HW2  465   1.616   8.023  10.588  1.2469 -0.0993 -0.9378
62914SOL     OW  466   2.013   4.110  10.700  0.4026  0.0115  0.1260
62914SOL    HW1  467   2.047   4.024  10.725  0.3968 -0.0724 -0.1520
62914SOL    HW2  468   2.075   4.142  10.634  1.1918  0.8186  1.2058
62915SOL     OW  469   1.180   0.316   5.362 -0.5227 -0.4311  0.2309
62915SOL    HW1  470   1.122   0.391   5.350 -0.1484 -0.0250  0.9205
62915SOL    HW2  471   1.159   0.258   5.288 -1.7784 -0.2794  0.4453
62916SOL     OW  472   9.852   6.283  11.404  0.0494 -0.0726 -0.1177
62916SOL    HW1  473   9.874   6.362  11.454  2.3325 -0.7798  0.1550
62916SOL    HW2  474   9.817   6.315  11.321  0.9599  1.2572 -0.0206
62917SOL     OW  475   3.602   1.459  13.541 -0.7553 -0.0202  0.2335
62917SOL    HW1  476   3.523   1.496  13.503  1.3826  2.5547 -2.1926
62917SOL    HW2  477   3.621   1.382  13.487 -0.8857  0.1766 -0.0989
62918SOL     OW  478   8.984   0.042   7.500  0.3467  0.1509 -0.1069
62918SOL    HW1  479   8.960   0.087   7.580  0.9340  1.1572 -0.4846
62918SOL    HW2  480   8.942  -0.044   7.507  0.6614  0.1010  1.4202
62919SOL     OW  481   4.372   1.385  11.954 -0.0754  0.8661 -0.0198
62919SOL    HW1  482   4.449   1.376  11.899 -0.1392 -0.7129  0.1051
62919SOL    HW2  483   4.304   1.418  11.895  0.2132  0.4678 -0.5819
62920SOL     OW  484   9.401  13.547   7.152  0.4707 -0.1136  0.3725
62920SOL    HW1  485   9.473  13.512   7.100 -0.1445 -0.0880 -0.4993
62920SOL    HW2  486   9.438  13.554   7.241  1.1745 -1.1914  0.1814
62921SOL     OW  487   8.600  10.121   8.195 -0.9504  0.9800 -0.3212
62921SOL    HW1  488   8.696  10.114   8.198 -1.0349  0.0582  0.5759
62921SOL    HW2  489   8.569  10.056   8.258 -2.1409  2.0919  0.2929
62922SOL     OW  490   6.006   8.468   6.241  0.1802  0.8447 -0.2088
62922SOL    HW1  491   5.953   8.399   6.200  0.3053  1.0427 -0.7113
62922SOL    HW2  492   6.018   8.438   6.331 -0.9020  0.8546 -0.0388
62923SOL     OW  493  12.610   2.883   5.373 -0.4208  0.3016 -0.8527
62923SOL    HW1  494  12.540   2.906   5.433  0.9157 -0.9042  1.3140
62923SOL    HW2  495  12.690   2.895   5.424  0.9422  1.0504 -3.0374
62924SOL     OW  496   8.322   2.024  13.707  0.1217  0.3117 -0.1909
62924SOL    HW1  497   8.365   2.095  13.659  0.1237  0.2620 -0.2612
62924SOL    HW2  498   8.392   1.983  13.757  0.0409  0.6512  0.2055
62925SOL     OW  499   8.275   3.482   0.411 -0.3934 -0.0930 -0.5012
62925SOL    HW1  500   8.325   3.405   0.437 -1.8809 -0.8063  0.3787
62925SOL    HW2  501   8.322   3.556   0.448  1.0161 -0.5691 -1.2870
62926SOL     OW  502   8.088   1.861   9.069 -0.3086 -0.4424 -0.1858
62926SOL    HW1  503   8.143   1.845   9.145  0.6346 -1.0657 -0.9734
62926SOL    HW2  504   7.999   1.859   9.103 -0.0659 -3.2770  0.5434
62927SOL     OW  505  11.122   8.784   2.477  0.0184  0.2166 -0.5211
62927SOL    HW1  506  11.174   8.706   2.492 -0.5875 -0.1660 -0.3603
62927SOL    HW2  507  11.180   8.857   2.497 -0.1452 -0.2256  1.7887
62928SOL     OW  508   6.113  13.553  12.304 -0.4884 -0.8598  0.6369
62928SOL    HW1  509   6.185  13.522  12.358 -0.7715 -1.0874  0.8823
62928SOL    HW2  510   6.154  13.573  12.219  0.0105 -0.2028  1.0233
62929SOL     OW  511   8.670   5.521   0.202 -0.1860  0.2253 -0.7093
62929SOL    HW1  512   8.646   5.464   0.275 -0.7969  0.4066 -0.7612
62929SOL    HW2  513   8.622   5.602   0.218  3.1978  2.1064  1.2199
62930SOL     OW  514   7.177   7.485   4.122 -0.1145  0.2351 -0.2693
62930SOL    HW1  515   7.145   7.513   4.207 -2.0693 -0.2175 -0.8202
62930SOL    HW2  516   7.246   7.422   4.143 -0.0298  0.7047  0.9632
62931SOL     OW  517  12.753   3.817  12.177  0.1990  0.6193 -0.0165
62931SOL    HW1  518  12.814   3.838  12.106 -0.2983  1.0868 -0.3186
62931SOL    HW2  519  12.774   3.727  12.201 -0.1375  0.1783 -1.2918
62932SOL     OW  520   1.281  10.985   2.826 -0.3005  0.5015  0.0258
62932SOL    HW1  521   1.212  10.921   2.805  0.1724  0.4500 -1.5421
62932SOL    HW2  522   1.262  11.013   2.915 -1.8363 -0.1753 -0.0553
62933SOL     OW  523  10.311   3.961   4.541  0.5217 -0.4192  0.6977
62933SOL    HW1  524  10.341   3.881   4.584  0.5799 -0.7648  0.0363
62933SOL    HW2  525  10.364   4.031   4.579  1.1701 -0.8325  0.5669
62934SOL     OW  526  12.738  12.773   7.281  0.2617  0.3316 -0.9949
62934SOL    HW1  527  12.774  12.837   7.343 -2.0081 -0.1135  0.9315
62934SOL    HW2  528  12.812  12.718   7.258  1.8473  2.4020 -1.1249
62935SOL     OW  529   5.082  13.023   4.849  1.2171  0.3035 -0.3539
62935SOL    HW1  530   5.145  12.963   4.889  0.3259 -0.0516  0.5356
62935SOL    HW2  531   5.119  13.042   4.762  2.6514  0.2816  0.2306
62936SOL     OW  532   4.998   7.453   7.507 -0.2246 -0.0088 -0.0161
62936SOL    HW1  533   5.005   7.521   7.574  0.1670  0.3691 -0.4331
62936SOL    HW2  534   4.939   7.491   7.441  1.4069  0.6978 -1.1446
62937SOL     OW  535  10.981   5.636  11.075  0.1671  1.0070  0.2654
62937SOL    HW1  536  10.899   5.683  11.060  0.3221  0.9202 -0.9372
62937SOL    HW2  537  10.980   5.616  11.169 -2.5362 -1.4071 -0.1449
62938SOL     OW  538   9.443   3.518   3.633  0.6868  0.2678  0.1409
62938SOL    HW1  539   9.412   3.446   3.688  0.4695 -1.6933 -2.4112
62938SOL    HW2  540   9.525   3.545   3.675 -0.7357  0.7297  2.8911
62939SOL     OW  541  12.548   7.857   0.476 -0.4658 -0.5897  0.2696
62939SOL    HW1  542  12.465   7.866   0.523 -0.1779 -0.6539  0.7868
62939SOL    HW2  543  12.542   7.921   0.405 -0.8853 -0.4768  0.4019
62940SOL     OW  544  13.089   3.211   8.103 -0.6593 -0.3781 -0.0559
62940SOL    HW1  545  13.068   3.304   8.108  0.5638 -0.1383  1.0832
62940SOL    HW2  546  13.024   3.169   8.159 -0.4076 -0.0521  0.4912
62941SOL     OW  547  13.587   8.736  11.511 -0.6943 -0.3986 -0.2896
62941SOL    HW1  548  13.557   8.827  11.504 -0.3240 -0.0177  2.1676
62941SOL    HW2  549  13.580   8.716  11.604 -0.2131 -2.7165 -0.7036
62942SOL     OW  550  13.480   9.402  12.237  0.1304 -0.3553 -0.4315
62942SOL    HW1  551  13.469   9.335  12.169  0.2110  0.8993 -1.7307
62942SOL    HW2  552  13.422   9.473  12.210 -0.1273  0.0233  1.0471
62943SOL     OW  553  12.366   2.723   6.299 -0.1750  0.4079 -0.3574
62943SOL    HW1  554  12.344   2.722   6.206  0.0051 -0.3368 -0.3957
62943SOL    HW2  555  12.307   2.660   6.338 -0.1476  0.6116  0.0155
62944SOL     OW  556   9.994   1.077   7.895  0.5735  0.2607 -0.6990
62944SOL    HW1  557   9.940   1.082   7.816 -0.0529 -0.8115 -0.3667
62944SOL    HW2  558   9.933   1.048   7.963  1.7063 -1.7296 -0.4706
62945SOL     OW  559   0.389   0.562   8.023  0.4904  0.5614 -0.5607
62945SOL    HW1  560   0.453   0.538   8.090  0.7446  0.1401 -0.9478
62945SOL    HW2  561   0.375   0.482   7.973 -0.7801  0.4882 -0.1280
62946SOL     OW  562  11.508   4.763   4.370 -0.0411 -0.3979  0.4518
62946SOL    HW1  563  11.424   4.726   4.398 -0.6299  0.9728  0.5751
62946SOL    HW2  564  11.533   4.822   4.442  1.0677 -0.8291  0.4412
62947SOL     OW  565   8.256   7.868   9.532 -0.2763  0.1150 -0.0828
62947SOL    HW1  566   8.161   7.874   9.535 -0.3641 -1.0397  0.2486
62947SOL    HW2  567   8.283   7.930   9.464 -1.0807  1.9667  1.2365
62948SOL     OW  568  10.796   3.708  13.531  0.3453  0.5900  0.9223
62948SOL    HW1  569  10.743   3.638  13.570  1.2261 -0.5018  0.2295
62948SOL    HW2  570  10.777   3.702  13.437  3.2767 -1.3553  0.2991
62949SOL     OW  571   5.868   0.889   6.836  0.3470 -0.5082 -0.3806
62949SOL    HW1  572   5.848   0.901   6.743  0.3639  0.1545 -0.3008
62949SOL    HW2  573   5.862   0.977   6.873  0.5318 -0.7438  0.2099
62950SOL     OW  574  11.967  13.256   8.291  0.3161  0.1453  0.2696
62950SOL    HW1  575  12.038  13.318   8.308 -0.1986  0.6457  0.6382
62950SOL    HW2  576  11.960  13.205   8.372 -0.9788  1.3668  0.9805
62951SOL     OW  577   3.584  13.656   9.505  0.0951 -0.0698  0.1673
62951SOL    HW1  578   3.578  13.570   9.464 -1.3160  0.1854 -0.1991
62951SOL    HW2  579   3.623  13.713   9.439 -0.0924 -0.1597 -0.0189
62952SOL     OW  580   0.992   6.028   5.157  0.5773 -0.6443  0.1476
62952SOL    HW1  581   1.068   6.011   5.101  1.7964 -0.9124  1.8002
62952SOL    HW2  582   0.926   5.965   5.128  1.4578 -1.3085 -0.4613
62953SOL     OW  583   6.034   9.986   6.127  0.1859  0.0302  0.0805
62953SOL    HW1  584   5.969   9.929   6.167  0.6907 -0.7210 -0.1571
62953SOL    HW2  585   6.105   9.928   6.101  0.4209  0.6759 -0.7781
62954SOL     OW  586   3.287   8.688   6.609  0.2015 -0.6879 -0.0049
62954SOL    HW1  587   3.339   8.640   6.544  1.3595 -1.1808  1.2296
62954SOL    HW2  588   3.223   8.624   6.641 -0.8403 -0.2412 -1.1277
62955SOL     OW  589  12.642   8.387   8.704  0.5280 -0.4446 -0.1183
62955SOL    HW1  590  12.645   8.465   8.759  1.1618 -1.6255  1.6125
62955SOL    HW2  591  12.696   8.323   8.750  1.8223 -1.2655 -2.5634
62956SOL     OW  592  10.042   9.699  11.715  0.3578 -0.7997 -0.2452
62956SOL    HW1  593   9.982   9.687  11.642 -0.3249 -2.4372  0.5420
62956SOL    HW2  594  10.117   9.746  11.677  0.8157 -3.0968 -2.4489
62957SOL     OW  595  13.174   2.696   8.627 -0.1969  0.0308 -0.5822
62957SOL    HW1  596  13.189   2.770   8.686 -0.8328  0.6754 -1.2086
62957SOL    HW2  597  13.177   2.734   8.539 -0.2811 -0.7344 -0.9276
62958SOL     OW  598   1.429   4.356   5.321  0.2285 -0.1837 -0.0119
62958SOL    HW1  599   1.400   4.379   5.410  1.3528  0.2202  0.2704
62958SOL    HW2  600   1.469   4.436   5.288  0.6729 -0.6090 -0.5163
62959SOL     OW  601   4.703  11.703  12.522 -0.1337  0.2741  0.7345
62959SOL    HW1  602   4.658  11.786  12.539 -1.3540 -0.0383 -0.7708
62959SOL    HW2  603   4.632  11.640  12.505  0.7705  0.0271 -2.9194
62960SOL     OW  604   2.542   5.395   7.372 -0.6442 -0.1260 -0.1925
62960SOL    HW1  605   2.603   5.322   7.375  0.3774  0.4372 -3.5025
62960SOL    HW2  606   2.595   5.471   7.395 -1.4588 -0.1692  2.1586
62961SOL     OW  607   8.242  11.274   9.476 -0.2334  0.1083 -0.2381
62961SOL    HW1  608   8.253  11.257   9.570  2.1853  3.5434  0.3005
62961SOL    HW2  609   8.148  11.289   9.466 -0.7482 -1.6294  1.2960
62962SOL     OW  610   1.157  10.616   6.455 -0.2562  0.0718 -0.0154
62962SOL    HW1  611   1.209  10.538   6.435 -0.5500 -0.4223  1.1143
62962SOL    HW2  612   1.212  10.689   6.426  1.0860 -0.4382  1.1196
62963SOL     OW  613   1.082   2.800   5.974  0.6242  0.3097 -0.0472
62963SOL    HW1  614   1.095   2.846   5.890  0.2497  0.9618  0.2378
62963SOL    HW2  615   1.148   2.837   6.032 -0.6326  1.6251  0.6143
62964SOL     OW  616   2.685   7.172   9.237  0.4928  0.3633 -0.0538
62964SOL    HW1  617   2.779   7.189   9.230  0.6049  0.5529  1.6016
62964SOL    HW2  618   2.644   7.255   9.214  0.5998 -0.1941 -2.6142
62965SOL     OW  619   8.213  11.211   1.815 -0.4262 -0.0935  0.0210
62965SOL    HW1  620   8.148  11.157   1.769 -1.4112  1.4095 -0.4417
62965SOL    HW2  621   8.236  11.279   1.751  0.7255  0.0947  0.6109
62966SOL     OW  622   4.931  10.837   7.949 -0.5018  0.5185 -0.0809
62966SOL    HW1  623   4.933  10.751   7.991 -0.7813  0.4411 -0.2258
62966SOL    HW2  624   5.017  10.845   7.908 -0.8010 -0.0812 -0.8424
62967SOL     OW  625  13.005   3.921   4.090  0.1419 -0.5178  0.1482
62967SOL    HW1  626  12.951   3.988   4.048  0.3667 -2.1304 -2.9574
62967SOL    HW2  627  12.992   3.937   4.184 -1.3421  2.5819 -0.4247
62968SOL     OW  628   1.250   5.590   4.051  0.2924 -0.4053  0.2957
62968SOL    HW1  629   1.231   5.634   4.134  0.6266  0.0041  0.1606
62968SOL    HW2  630   1.344   5.571   4.055  0.0823 -1.4916  0.5276
62969SOL     OW  631  11.969  13.549  12.565 -0.5822 -0.3198 -0.1280
62969SOL    HW1  632  11.921  13.492  12.506  0.5027 -0.6609 -0.7063
62969SOL    HW2  633  12.037  13.589  12.511  0.0090 -0.1194  0.7291
62970SOL     OW  634   9.720   4.519  10.402 -0.3905  0.3959  0.5330
62970SOL    HW1  635   9.665   4.566  10.339 -1.3029  1.1263  1.8138
62970SOL    HW2  636   9.810   4.536  10.374 -0.7746  0.5011 -0.6860
62971SOL     OW  637   1.800   5.562   6.980  0.0310 -0.1888 -0.0766
62971SOL    HW1  638   1.885   5.603   6.962  0.0369 -0.0508  0.2596
62971SOL    HW2  639   1.740   5.603   6.917  0.2793 -0.5250 -0.5350
62972SOL     OW  640   1.611   9.718   1.739  0.0813 -0.0442 -0.0744
62972SOL    HW1  641   1.639   9.776   1.668  0.4461 -0.5183 -0.3236
62972SOL    HW2  642   1.691   9.700   1.788 -0.5041  2.1210  1.8667
62973SOL     OW  643   2.899   3.356   0.550  0.2037  0.6851  0.3597
62973SOL    HW1  644   2.811   3.321   0.541 -0.1427  1.3868  0.9316
62973SOL    HW2  645   2.946   3.292   0.603  0.4782 -0.4081 -1.1253
62974SOL     OW  646   5.570   9.370   1.210 -0.8888 -0.3860 -0.1365
62974SOL    HW1  647   5.483   9.402   1.234 -2.4920 -2.7211 -2.3218
62974SOL    HW2  648   5.599   9.320   1.287 -2.1159 -0.7111  0.1379
62975SOL     OW  649  10.190   4.316   4.669 -0.1039  0.2523  0.5214
62975SOL    HW1  650  10.142   4.393   4.700 -0.2420 -0.1028  1.2137
62975SOL    HW2  651  10.143   4.242   4.708  0.4576 -0.1460  0.4460
62976SOL     OW  652  10.300   2.465   5.751 -0.0351 -0.1704 -0.3551
62976SOL    HW1  653  10.368   2.531   5.765 -2.6700  2.6212  0.4569
62976SOL    HW2  654  10.300   2.450   5.657  0.9176  0.7137 -0.5116
62977SOL     OW  655   5.148   6.492   9.798 -0.2142 -0.1104  0.4927
62977SOL    HW1  656   5.081   6.456   9.740  0.6209 -1.9449  0.5860
62977SOL    HW2  657   5.124   6.584   9.809 -2.0659 -0.4483 -0.3639
62978SOL     OW  658  12.292   5.193   3.289  0.1355 -0.5196 -0.5645
62978SOL    HW1  659  12.213   5.142   3.269 -1.4933  2.1122 -1.2708
62978SOL    HW2  660  12.338   5.199   3.206  0.6708 -1.3066 -0.3410
62979SOL     OW  661   3.718  11.530   1.735  0.2190  0.0036  0.3413
62979SOL    HW1  662   3.699  11.589   1.663 -1.5093  2.4907  2.6631
62979SOL    HW2  663   3.633  11.498   1.764  0.8949 -1.1154  1.1992
62980SOL     OW  664   7.137   4.071   7.976 -0.3825 -0.3955  0.4375
62980SOL    HW1  665   7.161   4.161   7.995  0.0250 -0.3992 -0.0303
62980SOL    HW2  666   7.130   4.067   7.881 -0.8109 -0.7569  0.4765
62981SOL     OW  667  10.494   3.930   9.278  0.3552  0.2951 -0.1845
62981SOL    HW1  668  10.453   4.007   9.238 -1.4554 -0.7291 -0.3873
62981SOL    HW2  669  10.580   3.961   9.308 -1.0762  2.9201  1.5371
62982SOL     OW  670   6.494   8.061   6.205  0.1073  0.1231 -0.0470
62982SOL    HW1  671   6.432   8.133   6.203  0.3739  0.3671  0.5200
62982SOL    HW2  672   6.540   8.067   6.121  1.0167  1.3892  0.5245
62983SOL     OW  673   9.408  13.314  12.689 -0.1020 -0.2380 -0.0689
62983SOL    HW1  674   9.343  13.244  12.676  0.9990 -1.8410  2.3098
62983SOL    HW2  675   9.488  13.268  12.715  1.1606  1.8598  0.0029
62984SOL     OW  676   8.214   8.302  10.996  0.1214 -0.1520 -0.0593
62984SOL    HW1  677   8.271   8.374  11.021  0.9511 -0.8959  0.2831
62984SOL    HW2  678   8.135   8.314  11.048  0.3944  0.3116  0.2549
62985SOL     OW  679  12.872  12.340  10.910 -0.7806 -0.1048  0.5441
62985SOL    HW1  680  12.826  12.259  10.934 -0.1066 -0.5887  0.2225
62985SOL    HW2  681  12.936  12.312  10.844 -0.9785  0.7973 -0.0505
62986SOL     OW  682  11.003   1.978  13.230  0.1811  0.3160 -0.0175
62986SOL    HW1  683  11.033   1.887  13.230  0.6548  0.4677  0.3315
62986SOL    HW2  684  10.987   1.998  13.138 -0.4517 -0.2889 -0.0512
62987SOL     OW  685   8.960   0.196  13.739 -0.1098  0.1004 -0.1879
62987SOL    HW1  686   8.914   0.268  13.781 -0.8156  0.0628 -0.8862
62987SOL    HW2  687   9.027   0.170  13.803 -2.5487 -1.4425  1.9063
62988SOL     OW  688  13.156   2.040   2.605  0.4974  0.0024  0.0425
62988SOL    HW1  689  13.183   2.128   2.629 -0.0378  0.3469 -0.6022
62988SOL    HW2  690  13.148   1.994   2.689 -1.3403  1.1952  0.5759
62989SOL     OW  691  10.167   6.335   2.995  0.4897 -0.1288  0.2832
62989SOL    HW1  692  10.096   6.287   3.037  2.1011 -2.2995  0.6958
62989SOL    HW2  693  10.154   6.320   2.901 -1.1802  1.9237  0.1096
62990SOL     OW  694   1.230  12.893   2.614  0.0924 -0.0017 -0.0694
62990SOL    HW1  695   1.163  12.914   2.549  1.1731 -0.7632 -1.4978
62990SOL    HW2  696   1.285  12.827   2.571  0.2231 -1.3727  2.0233
62991SOL     OW  697   8.855   4.943  12.550  0.0420  0.4674  0.1935
62991SOL    HW1  698   8.852   4.848  12.542 -2.7771  0.3046  1.9520
62991SOL    HW2  699   8.835   4.975  12.462 -1.4813 -0.6672  0.0831
62992SOL     OW  700   3.687   8.136  10.495  0.1321 -0.3724  0.1388
62992SOL    HW1  701   3.780   8.137  10.517  0.5803 -0.8448 -1.6156
62992SOL    HW2  702   3.684   8.118  10.401 -1.7093  0.3727  0.0034
62993SOL     OW  703   7.397   1.584   8.025  0.5477 -0.3474 -0.0224
62993SOL    HW1  704   7.320   1.590   8.081  1.0517  0.1251  0.6426
62993SOL    HW2  705   7.401   1.491   7.999 -1.6665  0.0475 -2.1839
62994SOL     OW  706  10.024   0.850   2.436  0.3071  0.7663 -0.3263
62994SOL    HW1  707   9.945   0.827   2.485  0.7527 -1.5719 -0.6084
62994SOL    HW2  708  10.087   0.875   2.504 -0.4707  2.2068 -0.0765
62995SOL     OW  709  13.122  12.339   4.442  0.2849 -0.1388 -0.1002
62995SOL    HW1  710  13.214  12.324   4.465  0.2342 -2.9552 -1.3479
62995SOL    HW2  711  13.077  12.347   4.527  1.7320  2.4785  0.5443
62996SOL     OW  712  10.864   9.045   6.938 -0.8521 -0.4356  0.2112
62996SOL    HW1  713  10.897   8.963   6.974 -2.8759 -1.5642 -0.3378
62996SOL    HW2  714  10.934   9.077   6.882 -0.2500 -2.1054 -0.0301
62997SOL     OW  715   7.018   7.606   8.091 -0.2287 -0.0460  0.0576
62997SOL    HW1  716   7.022   7.617   8.186  1.0096  2.6110 -0.2014
62997SOL    HW2  717   6.958   7.674   8.061  0.4846  0.1036 -1.1366
62998SOL     OW  718   8.433  12.245   3.835  0.5885 -0.0485  0.1454
62998SOL    HW1  719   8.443  12.169   3.779  0.3898  1.3625 -1.9364
62998SOL    HW2  720   8.364  12.222   3.896  1.5194 -2.0169  0.5198
62999SOL     OW  721  12.028   5.268   6.006 -0.2784 -0.1321 -0.0746
62999SOL    HW1  722  12.069   5.187   5.977 -2.1570 -0.6043 -1.5610
62999SOL    HW2  723  12.029   5.326   5.930 -0.0081  0.8316  0.6281
63000SOL     OW  724  11.590   3.421  12.898  0.0123  0.0790  0.5017
63000SOL    HW1  725  11.611   3.453  12.985 -1.4009  1.7907  0.2754
63000SOL    HW2  726  11.495   3.420  12.895  0.0350 -0.7589 -0.7566
63001SOL     OW  727   5.006   4.465  10.862  0.2656  0.1829 -0.4057
63001SOL    HW1  728   5.042   4.541  10.908 -0.8491  0.7124 -0.3878
63001SOL    HW2  729   4.960   4.502  10.787 -2.0424 -0.2621  0.6973
63002SOL     OW  730   3.800  13.663   1.939  0.1774 -0.6147  0.2668
63002SOL    HW1  731   3.795  13.630   2.029 -0.7098  1.7084  1.1422
63002SOL    HW2  732   3.783  13.757   1.947  1.7232 -0.0346 -2.1496
63003SOL     OW  733  13.480   9.462  10.064 -0.5161  0.0155 -0.5259
63003SOL    HW1  734  13.543   9.532  10.079 -0.7156  0.0584  0.1407
63003SOL    HW2  735  13.428   9.459  10.144 -0.2597 -1.1525 -0.3839
63004SOL     OW  736   2.544  13.185   9.110 -0.5584 -0.0654 -0.2864
63004SOL    HW1  737   2.449  13.197   9.103 -0.4533  1.1497  0.0928
63004SOL    HW2  738   2.579  13.227   9.032 -0.3205 -0.4810 -0.4073
63005SOL     OW  739   0.638   7.063   5.181  0.1523  0.3416  0.0221
63005SOL    HW1  740   0.565   7.115   5.148  0.3116 -0.2286 -1.2878
63005SOL    HW2  741   0.597   6.990   5.227 -0.1058  0.4224 -0.0772
63006SOL     OW  742   8.347   1.181  13.057  0.1067 -0.4717 -0.4416
63006SOL    HW1  743   8.375   1.144  13.140 -2.2106  3.0756  2.2281
63006SOL    HW2  744   8.266   1.135  13.035 -0.3835 -0.0529  0.4448
63007SOL     OW  745  12.274   9.359   7.827 -0.5366 -0.0511 -0.0523
63007SOL    HW1  746  12.233   9.444   7.845  0.2286  0.0978  1.1420
63007SOL    HW2  747  12.342   9.351   7.894  1.3871 -0.2951 -1.9312
63008SOL     OW  748   0.383   4.684   9.940  0.1855  0.0263  0.2048
63008SOL    HW1  749   0.340   4.728  10.014  0.8843  1.9304 -0.4616
63008SOL    HW2  750   0.312   4.641   9.892 -0.7709  1.7107  0.0588
63009SOL     OW  751  10.353  12.104  11.210  0.9037  0.3511 -0.3718
63009SOL    HW1  752  10.335  12.014  11.181 -0.4124  0.6568 -0.5760
63009SOL    HW2  753  10.289  12.119  11.280  1.9998  0.6876  0.5825
63010SOL     OW  754   9.788   9.138   2.907 -0.1717 -0.4299 -0.0787
63010SOL    HW1  755   9.882   9.152   2.891 -0.4815  1.7766 -0.1650
63010SOL    HW2  756   9.766   9.197   2.978 -1.5870 -0.6684 -0.2879
63011SOL     OW  757   0.380  13.035   6.227  0.8161  0.4975  0.0176
63011SOL    HW1  758   0.434  13.059   6.302  2.4950 -0.6560 -0.7739
63011SOL    HW2  759   0.432  13.057   6.150 -0.7727  1.4388 -0.8570
63012SOL     OW  760   5.008   5.606   8.278  0.4422  0.0230  0.2970
63012SOL    HW1  761   4.984   5.699   8.281  0.4238  0.0100  0.6624
63012SOL    HW2  762   4.941   5.566   8.222  1.5369  0.5362 -1.4634
63013SOL     OW  763   2.612   6.710   6.677  0.1224  0.3930  0.0046
63013SOL    HW1  764   2.705   6.695   6.659 -0.1722 -0.4795 -0.8779
63013SOL    HW2  765   2.582   6.629   6.719 -0.2368  0.6809  0.3189
63014SOL     OW  766   3.437   8.388  13.224  0.8313  0.1308 -0.6295
63014SOL    HW1  767   3.421   8.452  13.155  0.8803  1.3303  0.4416
63014SOL    HW2  768   3.529   8.398  13.246  1.1892 -1.2666 -1.3533
63015SOL     OW  769   5.518   2.194   2.499  0.0696 -0.3175  0.5272
63015SOL    HW1  770   5.539   2.166   2.410  1.3117  1.5292  0.1820
63015SOL    HW2  771   5.554   2.124   2.555 -0.2073 -1.2077 -0.3780
63016SOL     OW  772   0.670   4.265  11.577 -0.3213  0.1615 -0.1885
63016SOL    HW1  773   0.725   4.273  11.499  0.9993 -0.7036  0.5975
63016SOL    HW2  774   0.684   4.346  11.625 -0.3570  0.2720 -0.3623
63017SOL     OW  775   0.255  12.141   8.973 -0.1873 -0.4238 -0.5550
63017SOL    HW1  776   0.286  12.210   8.914 -0.9671 -0.8143 -1.4572
63017SOL    HW2  777   0.289  12.060   8.935  0.1448 -0.6018  0.1059
63018SOL     OW  778   3.641   1.078   2.413 -0.2785 -0.0055  0.2557
63018SOL    HW1  779   3.650   0.988   2.382  0.6477 -0.3106  1.3695
63018SOL    HW2  780   3.561   1.078   2.465  0.8199 -0.7374  2.0317
63019SOL     OW  781   0.679  10.144   6.661 -0.2724  0.2769  0.3886
63019SOL    HW1  782   0.717  10.123   6.576 -0.5754 -0.8563  0.5161
63019SOL    HW2  783   0.753  10.152   6.720 -0.0927  0.5418  0.1282
63020SOL     OW  784   9.676   7.989   9.176  0.0737 -0.7999  0.4059
63020SOL    HW1  785   9.771   7.997   9.184  0.0716  0.3282 -0.3808
63020SOL    HW2  786   9.648   7.949   9.258  0.8960  1.7378  2.0391
63021SOL     OW  787   2.920   4.636   6.049 -0.0201  0.4124  0.0319
63021SOL    HW1  788   2.967   4.623   5.967  1.8927  1.8139  0.8237
63021SOL    HW2  789   2.973   4.589   6.114 -1.2270 -0.2534  0.5738
63022SOL     OW  790   3.289   3.270   6.414  0.2754 -0.0049 -0.4150
63022SOL    HW1  791   3.345   3.268   6.336  0.7378  0.5388 -0.1078
63022SOL    HW2  792   3.242   3.353   6.407  1.7433  0.9784  0.8417
63023SOL     OW  793   7.061  13.376   6.291  0.4835 -0.5254  0.6691
63023SOL    HW1  794   7.090  13.454   6.243  0.5859 -0.5217  0.7382
63023SOL    HW2  795   7.125  13.309   6.267  0.7379 -0.4294  1.0813
63024SOL     OW  796   9.018   2.452   6.896 -0.2914  0.4389 -0.0043
63024SOL    HW1  797   8.991   2.538   6.866 -1.2140 -0.5416 -2.1819
63024SOL    HW2  798   8.946   2.394   6.872  0.7734 -1.1227  0.4133
63025SOL     OW  799   3.211   7.361   5.417 -0.4561 -0.3466 -0.0090
63025SOL    HW1  800   3.303   7.389   5.415 -0.1597 -1.3212 -1.2749
63025SOL    HW2  801   3.215   7.267   5.400 -1.7147 -0.3178 -0.5193
63026SOL     OW  802   6.504   7.379  12.895  0.0496  0.9875  0.2954
63026SOL    HW1  803   6.597   7.373  12.870 -0.5003  0.2659 -1.7426
63026SOL    HW2  804   6.496   7.465  12.936  1.2947  1.8007 -1.0615
63027SOL     OW  805   8.799   5.985  11.530 -0.2890  0.7205  0.3881
63027SOL    HW1  806   8.738   5.922  11.567  2.5860 -1.6180  1.5420
63027SOL    HW2  807   8.880   5.972  11.578  1.6645  2.4607 -2.1181
63028SOL     OW  808  12.536  11.369   1.813  0.0654  0.0942 -0.0662
63028SOL    HW1  809  12.572  11.295   1.764 -2.6254 -2.0899  0.9409
63028SOL    HW2  810  12.477  11.328   1.876 -0.4194  3.0839  1.5760
63029SOL     OW  811   4.938   3.109  13.707 -0.8461  0.0186  0.1432
63029SOL    HW1  812   5.007   3.167  13.741 -0.4066  0.5201 -1.5347
63029SOL    HW2  813   4.984   3.028  13.685 -0.7341  0.3974 -1.1001
63030SOL     OW  814  10.574   5.610   3.860  0.3695  0.4347 -0.6172
63030SOL    HW1  815  10.610   5.608   3.949 -0.7546  0.0879 -0.1603
63030SOL    HW2  816  10.637   5.663   3.811  0.2349  1.9221  0.7369
63031SOL     OW  817   4.361  10.720   0.598 -0.2149 -0.2400 -0.3179
63031SOL    HW1  818   4.273  10.695   0.623 -0.1406 -0.5145 -0.3321
63031SOL    HW2  819   4.376  10.677   0.514  0.7367 -2.0123  0.7161
63032SOL     OW  820  10.712   4.144  10.064 -0.0748 -0.0455 -0.0857
63032SOL    HW1  821  10.623   4.179  10.064 -0.1973 -0.2523  1.8075
63032SOL    HW2  822  10.744   4.160   9.975 -1.6554  0.8936 -0.5280
63033SOL     OW  823   8.909  10.169   9.712  0.5453  0.0942 -0.4778
63033SOL    HW1  824   8.907  10.114   9.634 -0.2309 -0.1994 -0.2611
63033SOL    HW2  825   8.854  10.123   9.775 -0.3192  1.2082 -0.3646
63034SOL     OW  826  12.033  10.687   0.697  0.5352  0.6703 -0.1079
63034SOL    HW1  827  12.049  10.614   0.757 -0.5795  0.1414 -0.4277
63034SOL    HW2  828  11.983  10.750   0.749  0.2247  0.5487 -0.2560
63035SOL     OW  829  12.840   7.768   3.613  0.0742  0.1755  0.0768
63035SOL    HW1  830  12.796   7.692   3.573  0.3102 -0.2344  0.5756
63035SOL    HW2  831  12.798   7.776   3.699  0.8201 -0.0870  0.4694
63036SOL     OW  832   2.918   4.315  12.035  1.0104  0.0395 -0.3992
63036SOL    HW1  833   2.925   4.410  12.034  0.1255  0.1053 -0.6241
63036SOL    HW2  834   2.891   4.294  12.125  2.8981 -0.1460  0.1787
63037SOL     OW  835  11.980   5.362   7.549  0.0114 -0.0407 -0.6703
63037SOL    HW1  836  11.967   5.269   7.566  0.2048  0.3670  2.1756
63037SOL    HW2  837  12.041   5.390   7.617 -0.6230  2.3086 -0.9882
63038SOL     OW  838  10.467  12.171  13.714 -0.4642  0.3921  0.0076
63038SOL    HW1  839  10.487  12.260  13.744 -0.5412  0.2164  0.5952
63038SOL    HW2  840  10.391  12.182  13.657 -0.4654  0.7075  0.0652
63039SOL     OW  841   2.476  11.887   2.815 -0.1622 -0.2967 -0.0574
63039SOL    HW1  842   2.525  11.859   2.738 -0.6079 -1.3988  0.0384
63039SOL    HW2  843   2.393  11.840   2.809  0.4437 -1.7642  1.9728
63040SOL     OW  844  11.793   8.386   6.400  0.0237 -0.1431 -0.3819
63040SOL    HW1  845  11.876   8.398   6.446 -0.4961  1.0185  0.2911
63040SOL    HW2  846  11.732   8.357   6.468 -0.3892  0.0789 -0.6539
63041SOL     OW  847   3.422   5.580  10.375 -0.5977  0.5188 -0.4614
63041SOL    HW1  848   3.456   5.578  10.286 -1.0854  2.9953 -0.7760
63041SOL    HW2  849   3.421   5.673  10.398 -1.5638  0.0274  1.7091
63042SOL     OW  850  10.880   1.547   8.835 -0.4194  0.0048 -0.1719
63042SOL    HW1  851  10.860   1.480   8.900  1.2674 -0.1978  0.1731
63042SOL    HW2  852  10.797   1.595   8.824 -1.7109 -2.1633 -0.5305
63043SOL     OW  853   2.035   4.925   6.198 -0.0132  0.4485  0.1894
63043SOL    HW1  854   2.130   4.928   6.193  0.0273 -0.6069  0.0294
63043SOL    HW2  855   2.012   4.986   6.268  0.4966  3.6756 -2.2029
63044SOL     OW  856   7.018  10.419  10.743 -0.1810 -0.5959 -0.5489
63044SOL    HW1  857   7.058  10.428  10.657  1.5091  0.2113  0.2759
63044SOL    HW2  858   6.924  10.408  10.725  0.1970 -1.0510 -2.4869
63045SOL     OW  859   3.463   3.229   8.369  0.0319  0.2132 -0.0996
63045SOL    HW1  860   3.422   3.303   8.414 -0.6561  0.8965 -1.7525
63045SOL    HW2  861   3.390   3.182   8.328  0.7017  0.4365 -1.6303
63046SOL     OW  862   4.826   6.882   6.205 -0.1032  0.0250  0.5370
63046SOL    HW1  863   4.784   6.833   6.276  0.7225  2.0758  2.5931
63046SOL    HW2  864   4.895   6.824   6.174 -0.6131 -1.0160  1.2876
63047SOL     OW  865  13.481   2.010   3.083  0.1222  0.1028  0.4610
63047SOL    HW1  866  13.448   1.968   3.163  0.4120  1.9291  1.5985
63047SOL    HW2  867  13.527   1.940   3.037 -0.3136 -1.0767  1.7528
63048SOL     OW  868   3.273   6.507   1.830 -0.3182  0.5265  0.2196
63048SOL    HW1  869   3.301   6.537   1.743 -0.9992  0.2749 -0.0943
63048SOL    HW2  870   3.335   6.548   1.890 -0.3426  1.3784 -0.3192
63049SOL     OW  871   8.587   8.163   1.839  0.6659 -0.4310 -0.6771
63049SOL    HW1  872   8.544   8.186   1.756 -0.9990 -2.1526 -0.3501
63049SOL    HW2  873   8.515   8.137   1.897  1.9204 -0.5497  0.8857
63050SOL     OW  874  13.372   3.582   4.099 -0.0605  0.5798  0.1015
63050SOL    HW1  875  13.299   3.604   4.156  0.2860  0.9045  0.4254
63050SOL    HW2  876  13.443   3.639   4.128  0.1155  0.7637 -0.6591
63051SOL     OW  877   8.047   6.597   0.537  0.6264 -0.0067 -0.1325
63051SOL    HW1  878   7.998   6.523   0.570  0.7151 -0.1227 -0.2606
63051SOL    HW2  879   7.987   6.641   0.476  0.3961  0.3167  0.3214
63052SOL     OW  880   8.119  13.558   4.479  0.2161  0.1827  0.5855
63052SOL    HW1  881   8.052  13.507   4.432 -0.3464  0.9567  0.5384
63052SOL    HW2  882   8.130  13.512   4.562 -1.1022  0.6002  1.0056
63053SOL     OW  883   7.390  11.462   2.845  0.0915  0.1918  0.4148
63053SOL    HW1  884   7.472  11.414   2.840  0.2502  0.5216 -0.3646
63053SOL    HW2  885   7.346  11.443   2.761 -1.0611 -0.7519  1.1995
63054SOL     OW  886   1.513   8.901  12.265  0.0891 -0.0448 -0.0052
63054SOL    HW1  887   1.597   8.858  12.245  1.0240  1.6836 -0.0018
63054SOL    HW2  888   1.485   8.862  12.348  1.3447 -0.0298  0.4446
63055SOL     OW  889  12.058   9.985   0.726 -0.6208  0.3452  0.3836
63055SOL    HW1  890  12.071  10.077   0.750  2.2734  1.3334 -3.7756
63055SOL    HW2  891  11.968   9.982   0.691 -0.6875  1.6470  0.3982
63056SOL     OW  892  12.357  11.777   4.379  0.1119 -0.6040  0.0041
63056SOL    HW1  893  12.303  11.824   4.442  1.0700  1.3069 -0.5476
63056SOL    HW2  894  12.444  11.773   4.421  0.5452 -0.0479 -0.8191
63057SOL     OW  895   1.558   1.592  10.082  0.5155  0.7060 -0.1334
63057SOL    HW1  896   1.634   1.549  10.120  0.5767 -0.0178 -1.0192
63057SOL    HW2  897   1.594   1.663  10.030  0.9834 -1.6417 -3.3293
63058SOL     OW  898  10.060   6.667   3.842  0.7915 -0.1312  0.0182
63058SOL    HW1  899  10.016   6.746   3.810 -0.9738 -1.4227 -0.9079
63058SOL    HW2  900  10.132   6.700   3.896 -1.1343  2.1130  1.3878
63059SOL     OW  901   2.094   0.602  11.288 -1.0168  1.1433  0.6374
63059SOL    HW1  902   2.041   0.597  11.208 -0.5219  0.4936  0.3411
63059SOL    HW2  903   2.031   0.595  11.359 -1.1844 -2.4295  0.3236
63060SOL     OW  904   8.881   8.907   2.882  0.0969  0.2540 -0.0753
63060SOL    HW1  905   8.948   8.854   2.927 -0.9206 -0.1460  1.0311
63060SOL    HW2  906   8.893   8.995   2.917 -0.1959  0.1009  0.4216
63061SOL     OW  907   9.687  10.344   7.700  0.1903 -0.6311 -0.2005
63061SOL    HW1  908   9.763  10.308   7.655  0.3730 -1.6871  0.9123
63061SOL    HW2  909   9.724  10.396   7.771 -0.0731  1.6195 -1.5835
63062SOL     OW  910   3.030  10.029   3.848 -0.0285  0.7304 -0.2850
63062SOL    HW1  911   2.966  10.039   3.919 -1.4990  2.1797 -1.7264
63062SOL    HW2  912   3.047  10.118   3.818  2.3449  0.3461 -0.3101
63063SOL     OW  913   7.439  10.955  13.514  0.4742  0.4057  0.2768
63063SOL    HW1  914   7.450  10.905  13.433  1.0456  0.7031  0.1714
63063SOL    HW2  915   7.451  11.047  13.488  0.9485  0.4806  0.7510
63064SOL     OW  916  13.654  11.872  13.371  0.4022  0.4829 -0.1472
63064SOL    HW1  917  13.628  11.874  13.278 -1.4402  1.2306  0.3479
63064SOL    HW2  918  13.706  11.952  13.383  0.0675  0.7375 -0.3767
63065SOL     OW  919  12.312   6.586   5.193 -0.1911  0.1473 -0.1509
63065SOL    HW1  920  12.292   6.562   5.103  2.1119 -2.5983 -0.0683
63065SOL    HW2  921  12.385   6.648   5.185 -0.9010  1.0057 -0.1585
63066SOL     OW  922  12.017   4.635   5.937  0.0368 -0.3353 -0.1197
63066SOL    HW1  923  12.071   4.704   5.973 -0.0438  0.0356 -0.7006
63066SOL    HW2  924  12.037   4.635   5.844 -0.8794 -0.2624 -0.3245
63067SOL     OW  925   5.884   0.299   8.528 -0.1232 -0.5711  0.1067
63067SOL    HW1  926   5.941   0.223   8.515  0.9798  0.0446  1.0948
63067SOL    HW2  927   5.868   0.332   8.440 -1.6804 -2.6490 -0.4735
63068SOL     OW  928   1.056   0.237   2.766 -0.0057  0.0872  0.8391
63068SOL    HW1  929   1.102   0.294   2.828 -1.8274  0.4231  1.9570
63068SOL    HW2  930   1.118   0.165   2.750  1.2160  0.9144  1.6399
63069SOL     OW  931  10.562   6.959   7.611 -0.3800 -0.1819 -0.2695
63069SOL    HW1  932  10.511   6.888   7.571 -1.4576 -0.5447  1.6255
63069SOL    HW2  933  10.626   6.914   7.666 -2.1211  0.2019  2.2369
63070SOL     OW  934   1.359   2.677   2.651  0.2571 -0.2330 -0.5675
63070SOL    HW1  935   1.432   2.731   2.679  0.6268 -0.6925 -0.6344
63070SOL    HW2  936   1.332   2.630   2.730 -0.2446  0.2482 -0.4435
63071SOL     OW  937   9.779   5.142   3.044  0.0625 -0.4996 -0.1009
63071SOL    HW1  938   9.821   5.077   2.987  2.0390  0.2557  0.4194
63071SOL    HW2  939   9.717   5.188   2.987 -0.4710 -1.9805 -0.7730
63072SOL     OW  940   8.254   5.553   8.728 -0.6081 -0.0827 -0.6182
63072SOL    HW1  941   8.350   5.548   8.727 -0.5686 -2.1471  2.0992
63072SOL    HW2  942   8.226   5.497   8.656  0.2045  0.3540 -1.2900
63073SOL     OW  943  12.310   7.783  10.640  0.2056  0.1146 -0.4123
63073SOL    HW1  944  12.290   7.815  10.553 -0.9100  1.6356  0.3570
63073SOL    HW2  945  12.227   7.749  10.674  0.6030 -0.3780  0.1000
63074SOL     OW  946   6.644  13.451   6.750 -0.3629 -0.2272 -0.3520
63074SOL    HW1  947   6.655  13.460   6.655  1.0530  0.3905 -0.1462
63074SOL    HW2  948   6.731  13.431   6.782 -0.7415  0.0490  0.8843
63075SOL     OW  949   0.643  10.120   0.602  0.3233  0.1661  0.2718
63075SOL    HW1  950   0.723  10.169   0.616  1.1445 -0.6412 -1.3506
63075SOL    HW2  951   0.664  10.057   0.534 -1.5162 -0.4995  0.2416
63076SOL     OW  952   9.425  10.806   2.080  0.1511 -0.1224  0.5003
63076SOL    HW1  953   9.493  10.871   2.098  0.0708  0.3030 -0.6240
63076SOL    HW2  954   9.357  10.855   2.032 -0.2462 -0.8675  0.2869
63077SOL     OW  955   0.817  13.423   9.768  0.0287  0.2555  0.0895
63077SOL    HW1  956   0.724  13.403   9.779  0.6240 -3.9136 -1.0151
63077SOL    HW2  957   0.828  13.433   9.673  0.7881  0.3233  0.1801
63078SOL     OW  958   0.697   9.426   7.323 -0.0556 -0.2163 -0.2035
63078SOL    HW1  959   0.617   9.478   7.327  0.6011  0.8022 -0.0475
63078SOL    HW2  960   0.697   9.389   7.234 -0.9417 -0.6424 -0.0367
63079SOL     OW  961   1.784   9.251   1.841 -0.6438 -0.9777 -0.3886
63079SOL    HW1  962   1.708   9.309   1.833  0.1418  0.1556  0.2466
63079SOL    HW2  963   1.745   9.164   1.851 -1.9418 -0.1953  2.0363
63080SOL     OW  964   1.809   1.869   7.503  0.3249 -0.3660  0.3154
63080SOL    HW1  965   1.864   1.902   7.574  0.1839  0.4531  0.0560
63080SOL    HW2  966   1.781   1.947   7.456 -2.8816 -0.5491  1.7404
63081SOL     OW  967   1.364   6.095   9.846  1.1661  0.3881  0.1168
63081SOL    HW1  968   1.451   6.058   9.835  0.6881 -0.1839 -2.4125
63081SOL    HW2  969   1.362   6.171   9.788  0.3971  1.2498  1.2113
63082SOL     OW  970   7.907  10.779   7.887  0.1551 -0.0776 -0.8457
63082SOL    HW1  971   7.884  10.831   7.809  1.2560  1.4881 -0.1705
63082SOL    HW2  972   7.878  10.691   7.866  1.9788 -0.1186 -3.8181
63083SOL     OW  973   6.126   2.047   4.242 -0.0017 -0.0319  0.6643
63083SOL    HW1  974   6.088   1.959   4.240 -0.2455  0.0859 -0.5252
63083SOL    HW2  975   6.192   2.042   4.311  0.3351 -1.3075  0.2859
63084SOL     OW  976   1.414   9.393  12.753  0.0728 -0.5983 -0.4526
63084SOL    HW1  977   1.344   9.446  12.794  0.9187  1.8372 -1.9333
63084SOL    HW2  978   1.392   9.303  12.777 -2.9522  0.1420  0.0741
63085SOL     OW  979   3.444   9.926   6.841 -0.3557  0.2885 -0.1818
63085SOL    HW1  980   3.528   9.907   6.884  0.3394  2.5305 -0.4241
63085SOL    HW2  981   3.402   9.840   6.832  0.8058 -0.6163  2.1591
63086SOL     OW  982   8.385   8.698   8.473 -0.4184  0.3412  0.6042
63086SOL    HW1  983   8.357   8.630   8.411  1.1219 -0.4796  0.7590
63086SOL    HW2  984   8.381   8.655   8.559  3.0337 -0.5225  0.4848
63087SOL     OW  985   0.207   2.760   8.427  0.5264 -0.7905  0.3195
63087SOL    HW1  986   0.188   2.851   8.405  0.8576 -0.9973 -0.8857
63087SOL    HW2  987   0.267   2.766   8.502 -0.7014 -0.0728  1.3057
63088SOL     OW  988  10.380   4.790  11.554  0.5477 -0.3309 -0.2389
63088SOL    HW1  989  10.379   4.860  11.619  1.6747 -0.8229  0.3423
63088SOL    HW2  990  10.333   4.825  11.479  1.0740  1.0441  0.0499
63089SOL     OW  991  11.052  10.400   7.588  0.0454 -0.6267  0.4058
63089SOL    HW1  992  11.062  10.359   7.502  0.2196 -1.2681  0.7242
63089SOL    HW2  993  10.957  10.409   7.599 -0.0210 -1.4339  0.5496
63090SOL     OW  994  11.119  11.067   1.894  0.2053 -0.4708  0.2801
63090SOL    HW1  995  11.143  11.160   1.887  0.9684 -0.6998 -0.2953
63090SOL    HW2  996  11.087  11.057   1.983  1.2887  0.0921  0.7569
63091SOL     OW  997  13.658   5.984   9.588 -0.3852 -0.2071  0.2917
63091SOL    HW1  998  13.653   5.906   9.533 -2.7460  0.4505 -0.5601
63091SOL    HW2  999  13.632   6.056   9.530 -0.8370  0.8220  1.7110
63092SOL     OW 1000   8.980   5.109   7.054 -0.7648  0.4150  0.2513
63092SOL    HW1 1001   9.013   5.198   7.049 -1.4381  0.6533 -0.1233
63092SOL    HW2 1002   9.025   5.063   6.983 -0.8060  0.5917  0.1093
63093SOL     OW 1003   0.892   8.142   7.984  0.5362  0.5023  0.1463
63093SOL    HW1 1004   0.928   8.196   7.913 -0.3408  0.3146 -0.4502
63093SOL    HW2 1005   0.969   8.117   8.036  1.3621 -0.2915 -1.3776
63094SOL     OW 1006   5.701  12.141  13.346  0.2098 -0.2933  0.5770
63094SOL    HW1 1007   5.672  12.231  13.356  1.2579  0.0356  0.8160
63094SOL    HW2 1008   5.620  12.090  13.339 -0.4746  0.4365  2.3926
63095SOL     OW 1009   3.021   2.608  11.580 -0.2186 -0.0849 -0.3816
63095SOL    HW1 1010   3.105   2.569  11.555 -0.4723  0.0443 -1.4856
63095SOL    HW2 1011   2.956   2.558  11.530 -0.7554  0.2143  0.0036
63096SOL     OW 1012   8.785   1.363   0.342 -0.0517  0.1571  0.3749
63096SOL    HW1 1013   8.867   1.313   0.346 -0.5167 -0.6800 -0.3464
63096SOL    HW2 1014   8.719   1.304   0.378 -0.3225  0.8919  1.1115
63097SOL     OW 1015  11.582   2.964   8.921  0.2064 -0.0737  0.6156
63097SOL    HW1 1016  11.646   2.916   8.867  0.5644  1.5023 -0.4294
63097SOL    HW2 1017  11.503   2.911   8.916  1.6722 -2.7573  2.9703
63098SOL     OW 1018   7.202   6.548  11.396 -0.2834 -0.7290  0.6616
63098SOL    HW1 1019   7.250   6.597  11.329 -1.9519 -0.2374 -0.2350
63098SOL    HW2 1020   7.223   6.456  11.377  0.3549 -0.5265  0.3469
63099SOL     OW 1021   6.539   6.985  10.552 -0.1223  0.4607 -0.1018
63099SOL    HW1 1022   6.542   6.892  10.573  1.3181  0.2458 -1.1336
63099SOL    HW2 1023   6.476   7.022  10.615  1.2485 -0.7347  2.0807
63100SOL     OW 1024   9.934  11.714   7.069  0.0042 -0.4961  0.1157
63100SOL    HW1 1025   9.948  11.801   7.031 -1.7152 -0.8810 -1.5264
63100SOL    HW2 1026   9.929  11.730   7.164  0.4857  1.0688 -0.0969
63101SOL     OW 1027   6.580   3.324   7.316  0.1357 -0.1757  0.0590
63101SOL    HW1 1028   6.539   3.341   7.400  0.0442 -0.6052  0.1036
63101SOL    HW2 1029   6.510   3.336   7.252  0.0823 -0.3403  0.0865
63102SOL     OW 1030   8.468   6.648   0.564  0.0694  0.2908  0.5241
63102SOL    HW1 1031   8.407   6.607   0.625  0.3532  0.4254  0.9078
63102SOL    HW2 1032   8.555   6.621   0.596  0.2220  0.4406  0.2366
63103SOL     OW 1033   4.883  10.224  12.156  0.4078 -0.1082 -0.4648
63103SOL    HW1 1034   4.804  10.276  12.145  0.4854  0.0884 -0.1091
63103SOL    HW2 1035   4.898  10.184  12.070 -0.0809 -0.1548 -0.5309
63104SOL     OW 1036  10.406   5.579   2.146  0.2910  0.2727  0.2018
63104SOL    HW1 1037  10.341   5.628   2.195 -0.4348 -0.7300  0.2491
63104SOL    HW2 1038  10.472   5.645   2.122 -1.3771  1.5867 -0.9973
63105SOL     OW 1039   0.850   0.419   0.719 -0.0675 -0.4183 -0.2215
63105SOL    HW1 1040   0.869   0.508   0.750  0.1196 -1.1139  1.8199
63105SOL    HW2 1041   0.798   0.380   0.790  2.0425 -2.7600  0.1752
63106SOL     OW 1042   1.859   7.366   6.531 -0.0296  0.1146 -0.0044
63106SOL    HW1 1043   1.945   7.354   6.492  0.5531 -3.9841  1.9807
63106SOL    HW2 1044   1.874   7.361   6.625 -2.4275 -2.0020  0.3976
63107SOL     OW 1045   8.815   6.323   5.335  0.5596 -0.4688  0.0938
63107SOL    HW1 1046   8.882   6.359   5.277  0.8567 -1.6627 -0.3384
63107SOL    HW2 1047   8.860   6.313   5.419  0.6666 -0.4351  0.0413
63108SOL     OW 1048   3.664   0.002  13.090  0.0247  0.6381 -0.4285
63108SOL    HW1 1049   3.630  -0.087  13.096  0.0022  0.7382  1.7719
63108SOL    HW2 1050   3.628   0.036  13.009  1.3377 -1.8499 -2.1941
63109SOL     OW 1051  11.717   7.570   5.688  0.2219 -0.1132 -0.7826
63109SOL    HW1 1052  11.736   7.520   5.768  0.6086  0.8458 -0.2555
63109SOL    HW2 1053  11.638   7.619   5.708  0.4428  0.3001 -0.9031
63110SOL     OW 1054  13.418  13.214   5.349  0.4223 -0.3929  0.3203
63110SOL    HW1 1055  13.345  13.167   5.390  1.2510 -1.1253  0.9952
63110SOL    HW2 1056  13.466  13.252   5.422  0.8079 -0.0454 -0.1072
63111SOL     OW 1057  10.751   1.185   5.129 -0.1454  0.5268 -0.3872
63111SOL    HW1 1058  10.822   1.221   5.076  0.0022 -0.8068 -1.1316
63111SOL    HW2 1059  10.779   1.200   5.220  0.9605  0.2775 -0.6713
63112SOL     OW 1060   7.532   6.216   6.715 -0.4610  0.0534  0.2596
63112SOL    HW1 1061   7.530   6.279   6.643 -0.7890 -1.0702 -0.7423
63112SOL    HW2 1062   7.625   6.200   6.730 -0.4023 -0.3273 -0.4775
63113SOL     OW 1063  12.412   8.494  13.542  0.3021  0.5231 -0.1231
63113SOL    HW1 1064  12.428   8.555  13.614 -1.6459  1.9111 -0.7776
63113SOL    HW2 1065  12.357   8.425  13.580  1.5027 -0.2078  0.3275
63114SOL     OW 1066   5.052   3.081   0.674 -0.8257 -0.2156  0.0144
63114SOL    HW1 1067   5.070   3.140   0.601 -0.8406 -0.3077 -0.0633
63114SOL    HW2 1068   5.072   3.133   0.752  0.4150 -0.5120 -0.0838
63115SOL     OW 1069   9.105   2.965   3.894 -0.2732 -0.1736  0.4182
63115SOL    HW1 1070   9.196   2.972   3.922 -0.9036  1.3152  2.2564
63115SOL    HW2 1071   9.101   2.882   3.847  2.5196  0.7742 -1.7634
63116SOL     OW 1072   7.722   7.534  11.408  0.5590  0.0513 -0.0990
63116SOL    HW1 1073   7.633   7.543  11.373 -0.0905 -1.9108  0.8931
63116SOL    HW2 1074   7.753   7.624  11.417 -1.9210  0.9164  0.9718
63117SOL     OW 1075  11.427   1.284   7.764  0.3018  0.3375  0.1055
63117SOL    HW1 1076  11.363   1.217   7.741  0.4071 -0.0834  0.9791
63117SOL    HW2 1077  11.460   1.257   7.850  1.1312  0.9328 -0.0089
63118SOL     OW 1078  10.917   1.787   9.045  0.0672 -0.2153 -0.0010
63118SOL    HW1 1079  11.005   1.790   9.082  0.0787 -0.4125 -0.0094
63118SOL    HW2 1080  10.927   1.740   8.963 -0.0061 -0.0281 -0.1178
63119SOL     OW 1081  13.036   9.831   2.577  0.5043  0.0469 -0.2578
63119SOL    HW1 1082  12.978   9.755   2.581  0.3382  0.2188  1.1349
63119SOL    HW2 1083  13.124   9.793   2.564  0.3602 -0.3521 -0.0934
63120SOL     OW 1084  10.901   7.943   8.525 -0.0346  0.6361 -0.1227
63120SOL    HW1 1085  10.963   7.871   8.515  0.5007  1.4068 -3.7647
63120SOL    HW2 1086  10.955   8.021   8.527 -0.7022  1.1050  2.1114
63121SOL     OW 1087   8.042   5.816  10.997  0.4932 -0.2487  0.1743
63121SOL    HW1 1088   8.114   5.754  11.004  0.6018 -0.1634 -0.1654
63121SOL    HW2 1089   8.049   5.851  10.908  0.2350  0.0062  0.2528
63122SOL     OW 1090   1.924   6.712   5.277 -0.0575 -0.0475  0.1391
63122SOL    HW1 1091   1.894   6.631   5.318 -1.9172 -0.1189 -1.2089
63122SOL    HW2 1092   1.992   6.683   5.215 -0.0374 -0.4557  0.3476
63123SOL     OW 1093   8.887  12.439   6.427 -0.5088 -0.0855  0.1505
63123SOL    HW1 1094   8.967  12.473   6.466 -0.7393  1.0205 -0.2971
63123SOL    HW2 1095   8.876  12.489   6.346 -1.3866 -0.5547 -0.0377
63124SOL     OW 1096   8.377   1.562  13.370  0.1245 -0.0953  0.2385
63124SOL    HW1 1097   8.386   1.537  13.278  0.0880  0.3679  0.1066
63124SOL    HW2 1098   8.327   1.491  13.410 -0.4378  0.0191 -0.2514
63125SOL     OW 1099  13.398   7.759  13.225  0.2446  0.2324 -0.3564
63125SOL    HW1 1100  13.420   7.724  13.139 -2.1692  0.4404 -1.1093
63125SOL    HW2 1101  13.464   7.827  13.240  0.1915  0.7942 -2.4340
63126SOL     OW 1102   6.735   9.311   2.919 -0.3321 -0.4594  0.2177
63126SOL    HW1 1103   6.725   9.403   2.944 -0.9144  0.2968 -2.5199
63126SOL    HW2 1104   6.815   9.282   2.964  0.9614  1.9703 -0.3582
63127SOL     OW 1105   1.236  13.698  12.296 -0.5591 -0.7451  0.0006
63127SOL    HW1 1106   1.245  13.784  12.255 -0.7616 -1.3365 -1.3149
63127SOL    HW2 1107   1.216  13.638  12.224 -1.8539 -1.6709  1.0749
63128SOL     OW 1108   6.309  12.466   3.241 -0.0535 -0.9345 -0.1180
63128SOL    HW1 1109   6.343  12.424   3.319  0.8563 -1.2127 -0.6489
63128SOL    HW2 1110   6.386  12.507   3.200 -0.9167  1.5694  0.5495
63129SOL     OW 1111   9.978   4.158   9.536 -0.1794  0.3264 -0.4750
63129SOL    HW1 1112   9.965   4.117   9.451 -0.0323  0.0200 -0.3521
63129SOL    HW2 1113  10.033   4.234   9.519  1.2971 -0.6842 -0.4198
63130SOL     OW 1114   5.650  10.174   6.941  0.1023 -0.3529  0.3968
63130SOL    HW1 1115   5.567  10.212   6.913  1.3254  1.5887 -0.7796
63130SOL    HW2 1116   5.658  10.200   7.033 -0.3845 -0.2016  0.3983
63131SOL     OW 1117   4.864   1.728   0.351  0.0660 -0.1556 -0.0064
63131SOL    HW1 1118   4.919   1.672   0.296 -0.7426 -1.4741  0.4966
63131SOL    HW2 1119   4.921   1.751   0.425  0.4322 -0.2252 -0.2589
63132SOL     OW 1120  13.173   4.876   8.535  1.0911 -0.0372  0.3282
63132SOL    HW1 1121  13.177   4.844   8.445 -1.0661  0.8789 -0.1473
63132SOL    HW2 1122  13.143   4.800   8.585  1.7061 -0.3794  0.1851
63133SOL     OW 1123   9.964   3.235  13.492  0.1697  0.3179  0.0077
63133SOL    HW1 1124   9.916   3.168  13.542  1.9192 -1.1196 -0.1214
63133SOL    HW2 1125  10.013   3.283  13.558 -1.1560  1.6231  0.1105
63134SOL     OW 1126   6.845   8.378   7.633 -0.2039 -0.4837 -0.3859
63134SOL    HW1 1127   6.810   8.444   7.692  0.5383 -2.4765  2.4943
63134SOL    HW2 1128   6.920   8.421   7.590 -1.4951  1.3869 -0.8700
63135SOL     OW 1129  10.294   0.532   3.349  0.1416  0.0431 -0.1909
63135SOL    HW1 1130  10.325   0.441   3.345  2.7267  0.8485 -0.4591
63135SOL    HW2 1131  10.351   0.574   3.413 -1.2175  1.4349  0.1677
63136SOL     OW 1132   6.872  10.368   2.795 -0.4766  0.1836  0.7338
63136SOL    HW1 1133   6.780  10.391   2.783 -0.1454  1.2077  0.0125
63136SOL    HW2 1134   6.919  10.421   2.731  0.5570 -0.8978  0.5471
63137SOL     OW 1135   4.575   2.353  11.879 -0.1341  0.0038 -0.0152
63137SOL    HW1 1136   4.603   2.293  11.810  1.9046 -0.6495  1.3147
63137SOL    HW2 1137   4.537   2.427  11.831  0.5386 -0.7448 -1.8093
63138SOL     OW 1138   7.853   0.334  12.410 -0.0643  0.1124  0.1432
63138SOL    HW1 1139   7.816   0.404  12.356 -2.9340 -1.8296 -0.6432
63138SOL    HW2 1140   7.823   0.254  12.368  0.9671 -1.5711  2.4224
63139SOL     OW 1141  11.957  12.255   6.458 -0.1610  0.3219  0.2173
63139SOL    HW1 1142  11.986  12.338   6.419 -0.4709 -0.3607 -1.5751
63139SOL    HW2 1143  11.864  12.268   6.474  0.1922  1.0091  1.9032
63140SOL     OW 1144   1.290   0.270   7.859 -0.1966  0.3283  0.7796
63140SOL    HW1 1145   1.358   0.336   7.845 -0.1981  0.3337  0.7981
63140SOL    HW2 1146   1.249   0.295   7.941  0.0168  0.1132  0.9516
63141SOL     OW 1147   4.335   2.082   7.528 -0.0525  0.1129 -0.1928
63141SOL    HW1 1148   4.370   2.105   7.614  0.7686 -0.7881 -0.2611
63141SOL    HW2 1149   4.396   2.016   7.495 -1.3298 -0.8367 -0.7203
63142SOL     OW 1150   7.443   8.003   7.926 -0.4506  0.1149  0.6927
63142SOL    HW1 1151   7.360   8.005   7.879 -0.6550  0.4031  1.0585
63142SOL    HW2 1152   7.444   8.084   7.977  0.5382  0.6528 -0.1297
63143SOL     OW 1153   9.658   9.764   5.434 -0.1679 -0.4898 -0.3287
63143SOL    HW1 1154   9.732   9.720   5.475 -0.5746 -0.4360  0.4714
63143SOL    HW2 1155   9.662   9.737   5.342  1.3092  0.1632 -0.4730
63144SOL     OW 1156  12.083   9.684   7.232 -0.0980  0.1672 -0.0826
63144SOL    HW1 1157  12.056   9.774   7.249 -1.2224  0.1113 -1.3982
63144SOL    HW2 1158  12.173   9.680   7.265 -1.7861  0.0583  5.5026
63145SOL     OW 1159   8.671   3.650   1.740  0.1904 -0.4953  0.2071
63145SOL    HW1 1160   8.728   3.703   1.796 -0.3716 -0.4245  0.7212
63145SOL    HW2 1161   8.597   3.708   1.720  0.1037 -0.7196 -0.1323
63146SOL     OW 1162   9.132   4.825   6.130 -0.9225 -0.7290 -0.2430
63146SOL    HW1 1163   9.209   4.800   6.079 -0.0180  0.6382  0.3888
63146SOL    HW2 1164   9.114   4.916   6.104 -1.8902 -0.7909  0.1439
63147SOL     OW 1165   9.480   8.246  11.591  1.3254 -0.1560 -0.2012
63147SOL    HW1 1166   9.456   8.224  11.502 -2.8441  1.7212  0.2507
63147SOL    HW2 1167   9.474   8.163  11.639 -1.4607 -0.3981 -0.8114
63148SOL     OW 1168  13.552   6.425  13.014  0.3419 -0.1155  0.0580
63148SOL    HW1 1169  13.512   6.456  13.096 -1.1289  1.6929 -1.2584
63148SOL    HW2 1170  13.638   6.467  13.012  0.8240 -0.9903  1.1185
63149SOL     OW 1171   1.501  12.839  13.520 -0.7102  0.2226  0.2695
63149SOL    HW1 1172   1.526  12.921  13.562 -0.4069  0.1432  0.2417
63149SOL    HW2 1173   1.509  12.773  13.588  0.2029  0.0218 -0.0246
63150SOL     OW 1174   3.835  10.917  12.872  0.8853 -0.0014 -0.3195
63150SOL    HW1 1175   3.923  10.918  12.908  0.4919 -0.6207  0.7120
63150SOL    HW2 1176   3.820  11.006  12.840  1.5669  0.3340  0.2877
63151SOL     OW 1177   2.125   9.701   6.760 -0.6274  0.6017  0.3849
63151SOL    HW1 1178   2.131   9.606   6.754  0.4809  0.6127  1.1413
63151SOL    HW2 1179   2.067   9.717   6.835  0.5770  0.5102  1.3587
63152SOL     OW 1180   3.529  10.170  13.548 -0.2348  0.6027 -0.1734
63152SOL    HW1 1181   3.482  10.101  13.501 -0.7594 -0.2259  1.4865
63152SOL    HW2 1182   3.622  10.152  13.530 -0.4005 -0.0517 -0.3981
63153SOL     OW 1183   3.595   8.755   8.209 -0.0210  0.5573 -0.1224
63153SOL    HW1 1184   3.529   8.823   8.193  0.2466  0.7537 -0.3828
63153SOL    HW2 1185   3.647   8.789   8.281  1.3538  1.5396 -1.5178
63154SOL     OW 1186   0.118  11.335   1.870  0.3128 -0.1074 -0.2727
63154SOL    HW1 1187   0.126  11.275   1.944  1.7092  0.5332  0.1165
63154SOL    HW2 1188   0.207  11.367   1.854  0.1665 -0.6252 -2.5774
63155SOL     OW 1189   5.932  11.635   6.715  0.2270 -0.1983  0.1805
63155SOL    HW1 1190   5.989  11.653   6.791  1.6757  3.0245 -1.4699
63155SOL    HW2 1191   5.854  11.689   6.730  0.1513 -0.1947 -0.2206
63156SOL     OW 1192   8.388   1.743  10.639 -0.3791 -0.1839 -0.0372
63156SOL    HW1 1193   8.394   1.666  10.582  0.6408  0.1353 -0.3801
63156SOL    HW2 1194   8.408   1.710  10.727 -4.0423 -1.1118  0.6080
63157SOL     OW 1195   4.473  11.669   2.254 -0.0665  0.7142  0.1390
63157SOL    HW1 1196   4.452  11.592   2.200 -1.9200  1.6917 -0.6029
63157SOL    HW2 1197   4.433  11.651   2.338 -0.8827  1.0441 -0.1725
63158SOL     OW 1198   3.551   8.006  10.943 -0.2418  0.3848 -0.0136
63158SOL    HW1 1199   3.552   7.911  10.949 -1.8278  0.3293 -0.2542
63158SOL    HW2 1200   3.550   8.036  11.034 -2.7476  0.0584  0.1453
63159SOL     OW 1201   7.491  10.116  11.658 -0.0508 -0.1453  0.2393
63159SOL    HW1 1202   7.491  10.035  11.709  0.4210 -0.3172 -0.0327
63159SOL    HW2 1203   7.430  10.173  11.705  0.4922 -0.2434  1.0930
63160SOL     OW 1204   4.490   8.423   7.922  0.0274 -0.5651  0.1577
63160SOL    HW1 1205   4.566   8.470   7.956 -1.4813  1.1018  1.4469
63160SOL    HW2 1206   4.425   8.429   7.993 -2.5395  1.1709 -2.1356
63161SOL     OW 1207   2.389  12.354   4.353  0.3445 -0.2352 -0.0573
63161SOL    HW1 1208   2.332  12.430   4.354  0.2056 -0.3147 -1.0854
63161SOL    HW2 1209   2.463  12.380   4.298 -0.1573 -1.1621 -1.1927
63162SOL     OW 1210   2.764   9.459   4.436 -0.1963  0.5562  0.5878
63162SOL    HW1 1211   2.738   9.418   4.518  0.3038  1.1760  1.0659
63162SOL    HW2 1212   2.763   9.388   4.372  0.9735 -0.2760  1.4636
63163SOL     OW 1213   3.330   6.791   0.534 -0.1820 -0.0528 -0.0087
63163SOL    HW1 1214   3.239   6.806   0.510 -0.2209 -0.4551 -0.1198
63163SOL    HW2 1215   3.371   6.878   0.529 -0.1736 -0.1261 -1.5938
63164SOL     OW 1216   5.688   5.247  10.215 -0.0205 -0.1505 -0.1824
63164SOL    HW1 1217   5.702   5.223  10.124 -0.3621 -1.7129  0.1430
63164SOL    HW2 1218   5.718   5.171  10.265 -2.4957 -0.5734  0.8578
63165SOL     OW 1219   7.250  13.447   9.190  0.1757  0.1782 -0.6327
63165SOL    HW1 1220   7.194  13.491   9.254 -0.6788  0.6647 -1.6861
63165SOL    HW2 1221   7.293  13.519   9.143  0.4055 -0.1584 -0.9427
63166SOL     OW 1222   3.039   0.826  11.816  0.1018  0.2971 -0.2364
63166SOL    HW1 1223   3.098   0.870  11.754 -0.6837  1.4611 -0.1749
63166SOL    HW2 1224   2.955   0.869  11.804 -0.6612 -1.0902 -0.0451
63167SOL     OW 1225   2.074   3.512   9.894 -0.0597  0.1441 -0.1873
63167SOL    HW1 1226   2.114   3.531   9.810 -2.5967  0.8173 -1.3467
63167SOL    HW2 1227   2.148   3.495   9.953  1.7891 -1.2346 -2.7050
63168SOL     OW 1228   9.934   5.795   8.675  0.1253 -0.2625 -0.4786
63168SOL    HW1 1229   9.971   5.804   8.587  1.0287 -1.2350 -0.2147
63168SOL    HW2 1230   9.936   5.701   8.693 -0.6340 -0.1317  0.3369
63169SOL     OW 1231  10.484   1.489   0.952 -0.0657  0.1568  0.6572
63169SOL    HW1 1232  10.470   1.457   0.863  0.1609 -0.0528  0.6950
63169SOL    HW2 1233  10.554   1.433   0.987  1.4031  1.6149  0.2093
63170SOL     OW 1234   1.327   0.412   0.530 -0.3817  0.0149  0.3600
63170SOL    HW1 1235   1.265   0.381   0.595 -1.0051 -0.5699 -0.4854
63170SOL    HW2 1236   1.377   0.334   0.505  0.4712  0.4115  0.7812
63171SOL     OW 1237  10.939  13.648   9.652 -0.0260  0.0918 -0.1575
63171SOL    HW1 1238  10.981  13.666   9.568  0.9528  1.7527  0.6555
63171SOL    HW2 1239  11.005  13.599   9.702 -1.1167 -2.1897 -0.7934
63172SOL     OW 1240   3.222   3.175   6.093 -0.1246 -0.2138 -0.2422
63172SOL    HW1 1241   3.274   3.099   6.122  1.2420  0.4320 -0.9434
63172SOL    HW2 1242   3.132   3.152   6.117  0.3633 -1.7091  0.2876
63173SOL     OW 1243   9.312   2.450   1.573 -0.5379  0.1723  0.0336
63173SOL    HW1 1244   9.285   2.397   1.499 -2.3408  0.5681  0.3670
63173SOL    HW2 1245   9.244   2.436   1.640  1.3025 -0.6088  1.8661
63174SOL     OW 1246   7.309  12.174   5.712  0.1473 -0.3888  0.3267
63174SOL    HW1 1247   7.355  12.219   5.783 -0.6097  0.1072  0.5183
63174SOL    HW2 1248   7.362  12.192   5.634  0.5972 -0.3333  0.6394
63175SOL     OW 1249   7.612   1.753   8.097 -0.5340  0.2472  0.0513
63175SOL    HW1 1250   7.558   1.685   8.056 -1.7722  0.2185  1.6155
63175SOL    HW2 1251   7.603   1.829   8.040 -0.1057 -0.5317 -1.0862
63176SOL     OW 1252   8.569   3.018   3.010  0.0081 -0.3841  0.6285
63176SOL    HW1 1253   8.595   2.970   2.932 -0.9913  0.4159 -0.2343
63176SOL    HW2 1254   8.474   3.025   3.003  0.0679  1.2470  0.9851
63177SOL     OW 1255  13.594   8.229   4.373 -0.4415  0.1610 -0.0160
63177SOL    HW1 1256  13.552   8.310   4.402  0.3214  0.9044 -0.9252
63177SOL    HW2 1257  13.523   8.177   4.336 -0.9403  0.4005  0.5922
63178SOL     OW 1258   6.928   7.046  13.718 -0.0012 -0.7517 -0.7035
63178SOL    HW1 1259   6.912   7.105  13.792 -0.3841  0.0113 -1.3725
63178SOL    HW2 1260   6.864   7.072  13.652 -0.4451 -2.2017 -0.8802
63179SOL     OW 1261   2.475   0.247   3.814 -0.5686 -0.5032  0.2454
63179SOL    HW1 1262   2.512   0.333   3.837 -1.4549  0.0068 -0.1875
63179SOL    HW2 1263   2.417   0.265   3.740 -0.6429 -1.5087  0.0463
63180SOL     OW 1264   6.555   1.435  13.134 -0.5353  0.9729  0.4135
63180SOL    HW1 1265   6.564   1.395  13.048  0.0084  1.5962  0.1667
63180SOL    HW2 1266   6.464   1.422  13.158 -0.3832 -0.3667  0.3290
63181SOL     OW 1267  11.576  11.275   8.951  0.1263 -0.1470  0.4220
63181SOL    HW1 1268  11.485  11.245   8.956 -0.0235 -0.1682 -1.5878
63181SOL    HW2 1269  11.592  11.317   9.036 -1.8952  0.2379  0.6732
63182SOL     OW 1270   6.819   9.451   5.391  0.2798  0.4362  0.6098
63182SOL    HW1 1271   6.733   9.491   5.404  0.1071 -0.0844  1.0721
63182SOL    HW2 1272   6.879   9.526   5.386 -0.0416  0.7557  1.4767
63183SOL     OW 1273   0.679  11.984  12.149 -0.4279 -0.2154  0.9957
63183SOL    HW1 1274   0.691  11.915  12.215 -2.2168 -1.0953  0.4755
63183SOL    HW2 1275   0.587  12.009  12.158 -0.7289 -0.3837 -1.1804
63184SOL     OW 1276   7.106   7.664   1.506 -0.1241 -0.9304 -0.1244
63184SOL    HW1 1277   7.129   7.728   1.573  0.4852 -0.5994 -0.6308
63184SOL    HW2 1278   7.017   7.686   1.480 -0.4084 -1.1473  0.6670
63185SOL     OW 1279   0.421  13.168  11.619  0.1626 -0.6721 -0.0280
63185SOL    HW1 1280   0.419  13.077  11.649 -1.2457  0.2309  2.9637
63185SOL    HW2 1281   0.377  13.166  11.534 -0.2092 -2.7286  0.1629
63186SOL     OW 1282   1.957   7.812   4.282 -0.2096  0.3579  0.1498
63186SOL    HW1 1283   2.046   7.787   4.259 -0.1277  0.3818  0.4350
63186SOL    HW2 1284   1.917   7.838   4.200  0.2426  0.9590  0.1183
63187SOL     OW 1285   4.238  10.624   5.547 -0.3005  0.0976  0.7382
63187SOL    HW1 1286   4.215  10.611   5.455 -0.3471  0.3435  0.7144
63187SOL    HW2 1287   4.215  10.715   5.565  1.2124  0.5454  0.5494
63188SOL     OW 1288   8.607   3.201  10.130 -0.4830  0.2506 -0.0344
63188SOL    HW1 1289   8.632   3.247  10.049 -1.2397  0.8091  0.0375
63188SOL    HW2 1290   8.640   3.257  10.200 -1.3201  0.6492  0.0537
63189SOL     OW 1291  10.579  10.223   0.968  0.0396  0.7050  0.2085
63189SOL    HW1 1292  10.674  10.232   0.955  0.0108 -0.1241 -0.5993
63189SOL    HW2 1293  10.541  10.292   0.914  0.2328  2.4310  2.1463
63190SOL     OW 1294  12.640   2.947   5.677 -0.3883  0.5500  0.2208
63190SOL    HW1 1295  12.555   2.971   5.641 -0.5196  0.7834  0.6734
63190SOL    HW2 1296  12.694   3.026   5.665  0.0832  0.0647 -1.0034
63191SOL     OW 1297  10.169   9.129   4.199 -0.0898 -0.2176  0.3845
63191SOL    HW1 1298  10.080   9.113   4.229 -0.2356  0.5098  0.3681
63191SOL    HW2 1299  10.224   9.114   4.276 -0.1521 -1.2916  0.2342
63192SOL     OW 1300   3.973  10.085   2.449 -0.0347  0.5220  0.2044
63192SOL    HW1 1301   3.934  10.153   2.504  0.8308  1.0743  0.1606
63192SOL    HW2 1302   3.953  10.112   2.360  1.0350  1.2006  0.1519
63193SOL     OW 1303   2.187   3.718   3.063  0.1256 -0.1551 -0.2353
63193SOL    HW1 1304   2.136   3.739   3.142 -0.1518 -0.1741 -0.4095
63193SOL    HW2 1305   2.198   3.623   3.067  1.8309  0.0451  0.8299
63194SOL     OW 1306  13.390   8.458   3.466 -0.1527  0.3976 -0.3740
63194SOL    HW1 1307  13.332   8.520   3.508 -0.0213  0.7860 -0.7614
63194SOL    HW2 1308  13.467   8.510   3.441  0.7437 -0.2569  0.8699
63195SOL     OW 1309   7.679   1.503   5.960 -0.3419 -0.1325 -0.2147
63195SOL    HW1 1310   7.633   1.434   6.009 -1.4870  0.5047 -0.3550
63195SOL    HW2 1311   7.622   1.580   5.969 -0.4234  0.0897 -2.2799
63196SOL     OW 1312  11.255   4.068   4.322 -0.0725  0.0892 -0.8130
63196SOL    HW1 1313  11.268   4.104   4.234 -1.5189 -0.0764 -1.1211
63196SOL    HW2 1314  11.191   3.998   4.310 -1.0238  0.6909  0.5064
63197SOL     OW 1315  13.122  13.743  10.625  0.1547 -0.1737 -0.4508
63197SOL    HW1 1316  13.172  13.694  10.560 -1.5524  0.2893 -2.2247
63197SOL    HW2 1317  13.170  13.731  10.707  1.1769 -2.6725 -1.3114
63198SOL     OW 1318   9.286   8.270   2.627 -0.2705  0.2341  0.1728
63198SOL    HW1 1319   9.246   8.340   2.575 -0.4703  0.0479  0.0767
63198SOL    HW2 1320   9.364   8.311   2.665  0.7522 -0.0183 -1.5098
63199SOL     OW 1321   8.398   9.519   1.747 -0.2575  0.1373 -0.0106
63199SOL    HW1 1322   8.417   9.488   1.658 -0.5039  0.6186 -0.2356
63199SOL    HW2 1323   8.323   9.578   1.736 -0.7341 -0.3397  0.6128
63200SOL     OW 1324  12.589   2.692   3.078 -0.2520 -0.6314  0.6728
63200SOL    HW1 1325  12.533   2.615   3.088 -2.5641  0.9609  0.8099
63200SOL    HW2 1326  12.547   2.759   3.133  0.3220  1.3890 -1.2317
63201SOL     OW 1327   2.551  13.300  12.461  0.2773  0.3034 -0.7612
63201SOL    HW1 1328   2.492  13.259  12.398 -0.8851  1.2719 -0.3421
63201SOL    HW2 1329   2.529  13.260  12.545  0.6458  0.2443 -0.6882
63202SOL     OW 1330   2.004   2.512  12.998 -0.5068  0.1548  0.0853
63202SOL    HW1 1331   1.982   2.605  13.001  0.7444  0.4383  0.6412
63202SOL    HW2 1332   2.063   2.498  13.071  0.2454 -0.8326 -0.6783
63203SOL     OW 1333   8.907   7.774   7.625  0.4919 -0.3219 -0.5266
63203SOL    HW1 1334   8.889   7.867   7.640 -3.5033 -1.1465  1.1157
63203SOL    HW2 1335   8.957   7.747   7.702  1.0192  0.3187 -0.6424
63204SOL     OW 1336  11.230   3.911  13.360  0.3336  0.1910 -0.2504
63204SOL    HW1 1337  11.196   3.935  13.446  3.5274 -0.4222  1.3284
63204SOL    HW2 1338  11.235   3.995  13.313  2.7782  1.3804  1.8882
63205SOL     OW 1339  12.189   1.278   8.507  0.6699 -0.6965 -0.1899
63205SOL    HW1 1340  12.163   1.368   8.485  2.3662  0.1385  0.9896
63205SOL    HW2 1341  12.117   1.244   8.559 -0.1778 -0.1802 -0.9949
63206SOL     OW 1342   2.252   8.897   3.319 -0.1181  0.2317 -0.1815
63206SOL    HW1 1343   2.294   8.812   3.308  0.4215  0.4894 -0.1509
63206SOL    HW2 1344   2.164   8.876   3.350  0.5637 -0.2896  1.5734
63207SOL     OW 1345   8.632   0.895   6.501  0.3425  0.5563  0.2061
63207SOL    HW1 1346   8.684   0.856   6.430  0.2481  0.1571  0.3571
63207SOL    HW2 1347   8.687   0.967   6.533  0.6361  0.3742  0.1153
63208SOL     OW 1348   0.093   5.034   8.540  0.2426 -0.1580  0.1266
63208SOL    HW1 1349   0.165   5.050   8.601  1.1175 -0.0210 -0.9341
63208SOL    HW2 1350   0.048   5.118   8.533  0.5126 -0.0155  0.1053
63209SOL     OW 1351   0.979   0.613  13.464 -0.4245 -0.2140 -0.2595
63209SOL    HW1 1352   1.069   0.582  13.477 -0.9626 -1.6477  0.2002
63209SOL    HW2 1353   0.981   0.655  13.378  0.8302  0.3908  0.0323
63210SOL     OW 1354  13.650   9.581   2.682  0.1273 -0.5945  0.0105
63210SOL    HW1 1355  13.689   9.658   2.639  0.6864 -1.8575 -1.8803
63210SOL    HW2 1356  13.577   9.616   2.732 -0.2351  1.0828 -1.5744
63211SOL     OW 1357   8.337   6.544  12.525  0.0488 -0.4551 -0.3002
63211SOL    HW1 1358   8.300   6.545  12.437 -2.1875  0.1958  0.5853
63211SOL    HW2 1359   8.358   6.636  12.543  1.1260 -0.6722 -0.3634
63212SOL     OW 1360  10.862   3.970   2.672  0.4957  0.1344  0.5392
63212SOL    HW1 1361  10.901   3.923   2.746 -1.4938 -0.8194  1.0706
63212SOL    HW2 1362  10.769   3.973   2.693 -0.3559 -1.2493 -2.4772
63213SOL     OW 1363  12.477   9.422  11.104  0.2013 -0.0503  0.1518
63213SOL    HW1 1364  12.493   9.403  11.011  0.2597 -0.7361  0.2942
63213SOL    HW2 1365  12.384   9.402  11.117  0.2756 -0.2883  0.3177
63214SOL     OW 1366   8.319   7.847  13.686  0.1323 -0.2052  0.3955
63214SOL    HW1 1367   8.234   7.874  13.652  0.8525  0.0649 -1.2939
63214SOL    HW2 1368   8.314   7.751  13.688 -0.8688 -0.1494  2.1772
63215SOL     OW 1369   8.969   0.504   5.991 -1.0746 -0.2079 -0.2912
63215SOL    HW1 1370   9.012   0.581   5.954 -0.7539 -0.8497 -1.3042
63215SOL    HW2 1371   8.876   0.515   5.970 -1.3130  0.7181  1.0774
63216SOL     OW 1372   8.185   4.741   7.599 -0.2704  0.4829 -0.2326
63216SOL    HW1 1373   8.109   4.685   7.614  0.4680 -0.8110 -1.1221
63216SOL    HW2 1374   8.249   4.712   7.664 -0.2297  0.9682 -0.0548
63217SOL     OW 1375  12.980   9.504  11.072  0.3169  0.1062 -0.0930
63217SOL    HW1 1376  13.048   9.447  11.037  1.5692  2.1294 -1.1954
63217SOL    HW2 1377  12.989   9.585  11.022 -0.8533  1.5412  1.8546
63218SOL     OW 1378   6.966  12.359   5.855 -0.2560  0.1408  0.0769
63218SOL    HW1 1379   7.038  12.409   5.893 -0.8044  1.1060 -0.0970
63218SOL    HW2 1380   6.917  12.325   5.930 -0.8031  1.2557  0.2473
63219SOL     OW 1381  13.439   1.730  13.262  0.1997 -0.5937 -0.2823
63219SOL    HW1 1382  13.522   1.715  13.217  0.4523  1.3451 -0.5306
63219SOL    HW2 1383  13.396   1.645  13.262  2.8322 -2.0610  1.2022
63220SOL     OW 1384  12.777   6.404   7.201 -0.1956  0.1345 -0.1890
63220SOL    HW1 1385  12.855   6.457   7.215 -0.7174  0.9045 -0.1143
63220SOL    HW2 1386  12.809   6.315   7.192  0.5733  0.2370  1.2403
63221SOL     OW 1387   4.536   7.926   9.702 -0.4026 -0.0327  0.3341
63221SOL    HW1 1388   4.628   7.928   9.675 -0.6431 -1.3166 -0.6514
63221SOL    HW2 1389   4.487   7.945   9.623 -1.0531 -2.0675  0.1883
63222SOL     OW 1390   3.084   8.462   6.128 -0.0312  0.1138  0.1889
63222SOL    HW1 1391   3.006   8.477   6.181  0.2401  1.2307  0.3073
63222SOL    HW2 1392   3.104   8.548   6.089  0.6256 -0.3507 -0.5444
63223SOL     OW 1393   8.980   3.052   6.193  0.4061  0.2121  0.5117
63223SOL    HW1 1394   8.963   3.079   6.283  2.5601  0.8583  0.7820
63223SOL    HW2 1395   8.896   3.060   6.148 -1.0492 -1.4311  2.7456
63224SOL     OW 1396   0.300  12.247   3.725 -0.2730  0.8588 -0.3487
63224SOL    HW1 1397   0.292  12.158   3.759 -0.0914  0.6109 -0.9480
63224SOL    HW2 1398   0.214  12.287   3.742 -0.7562  0.1893 -1.1506
63225SOL     OW 1399   7.704   9.532   4.447  0.4160 -0.1920 -0.2801
63225SOL    HW1 1400   7.640   9.462   4.433  2.3395 -2.1089 -0.0493
63225SOL    HW2 1401   7.719   9.533   4.541  0.0984  0.8777 -0.2227
63226SOL     OW 1402  12.289  11.039   4.244  0.5408 -0.2034  0.1885
63226SOL    HW1 1403  12.341  11.033   4.324  3.1226 -1.7723 -1.4585
63226SOL    HW2 1404  12.351  11.068   4.177 -1.5796  1.3129 -1.2635
63227SOL     OW 1405   3.023   7.772  11.923  0.6547  0.4021 -0.0628
63227SOL    HW1 1406   3.088   7.810  11.982  0.1036  0.2856  0.6395
63227SOL    HW2 1407   3.037   7.817  11.840  2.2218 -0.2569 -0.1921
63228SOL     OW 1408   7.576   1.219   8.627  0.0807  0.6313 -0.2734
63228SOL    HW1 1409   7.656   1.172   8.650  0.0833  1.1004  0.7339
63228SOL    HW2 1410   7.525   1.156   8.576  1.4290  0.5928 -1.6434
63229SOL     OW 1411   1.188  13.422   1.258 -0.6071 -0.0228 -0.1229
63229SOL    HW1 1412   1.129  13.352   1.229  0.1161 -0.1498 -1.3593
63229SOL    HW2 1413   1.259  13.421   1.194 -0.8091  2.1250 -0.4510
63230SOL     OW 1414   6.662   5.087  10.434  0.2858  0.3362  0.0896
63230SOL    HW1 1415   6.575   5.081  10.395  0.2751 -0.1778  0.1889
63230SOL    HW2 1416   6.718   5.120  10.363 -0.3466  2.5991  0.5681
63231SOL     OW 1417   7.666  12.468   3.807 -0.2059  0.5913  0.7902
63231SOL    HW1 1418   7.588  12.415   3.791 -0.0577 -0.3324  2.8916
63231SOL    HW2 1419   7.740  12.408   3.796  0.1412  1.0798  0.3567
63232SOL     OW 1420   1.953   4.929   0.918 -0.0779 -0.2317 -0.0031
63232SOL    HW1 1421   2.010   4.920   0.994  2.0112 -0.2766 -1.4671
63232SOL    HW2 1422   1.962   5.020   0.891 -1.9609  0.1757  0.6093
63233SOL     OW 1423   7.270   9.800   2.984 -0.3790 -0.3043 -0.7248
63233SOL    HW1 1424   7.314   9.819   3.066 -0.4947 -0.8962 -0.5241
63233SOL    HW2 1425   7.317   9.853   2.919  0.5038 -0.7759 -0.4880
63234SOL     OW 1426   4.106   3.688   5.193 -0.0698 -0.4297 -0.0959
63234SOL    HW1 1427   4.201   3.693   5.182  0.1228  0.5792  1.6844
63234SOL    HW2 1428   4.089   3.728   5.278 -1.9310 -2.1851  0.4421
63235SOL     OW 1429  10.368   9.914   6.986  0.3384 -0.9732  0.0168
63235SOL    HW1 1430  10.343   9.882   6.900  0.6563 -2.3709  0.4211
63235SOL    HW2 1431  10.439   9.976   6.970 -0.9810  0.3852 -0.8644
63236SOL     OW 1432   2.005   3.177   3.197  0.3422 -0.0376 -0.0531
63236SOL    HW1 1433   1.967   3.199   3.112  1.4454 -2.0543 -1.1509
63236SOL    HW2 1434   1.934   3.137   3.246  0.3431 -1.4809 -1.1521
63237SOL     OW 1435  11.432   1.434   6.500 -0.3407  0.2448 -0.2678
63237SOL    HW1 1436  11.437   1.462   6.591  0.1985 -1.1647  0.1695
63237SOL    HW2 1437  11.385   1.350   6.504  0.7366 -0.4289 -1.1349
63238SOL     OW 1438   0.409   2.405   8.152 -0.1099  0.0719  0.2721
63238SOL    HW1 1439   0.441   2.318   8.175  0.6836  0.7121  1.7291
63238SOL    HW2 1440   0.322   2.389   8.116  0.8627 -1.4967 -1.5416
63239SOL     OW 1441   6.621  12.049   9.977  0.8073  0.2091  0.4314
63239SOL    HW1 1442   6.647  12.123   9.923 -1.0027 -0.1230 -0.9803
63239SOL    HW2 1443   6.539  12.076  10.018 -0.9588 -1.6227 -1.6454
63240SOL     OW 1444   0.271  12.856   8.701 -0.1168  0.0931  0.4204
63240SOL    HW1 1445   0.244  12.767   8.720 -0.5767  0.5014  1.8249
63240SOL    HW2 1446   0.207  12.911   8.746 -0.6613  1.1784 -1.5492
63241SOL     OW 1447   8.223   9.353   5.346 -0.5128  0.2531 -0.2750
63241SOL    HW1 1448   8.166   9.294   5.395  2.9569 -1.1337  2.6011
63241SOL    HW2 1449   8.276   9.295   5.291 -0.6347  1.2873 -1.5291
63242SOL     OW 1450  13.456   1.157  12.091  0.4732  0.2559 -0.3489
63242SOL    HW1 1451  13.369   1.147  12.130  1.1900  0.4539  1.3630
63242SOL    HW2 1452  13.439   1.159  11.997 -1.4521  1.1242 -0.0363
63243SOL     OW 1453   8.141   0.272  13.033 -0.7925  0.6262 -0.5214
63243SOL    HW1 1454   8.053   0.308  13.043 -0.9433  0.5385 -1.4836
63243SOL    HW2 1455   8.129   0.194  12.979 -0.3898 -0.5659  1.0371
63244SOL     OW 1456   9.046  13.441   1.962 -0.3539 -0.5700  0.1975
63244SOL    HW1 1457   9.101  13.388   2.019 -0.8856 -0.3391  0.9259
63244SOL    HW2 1458   9.057  13.531   1.995  0.1546 -0.2717 -0.7164
63245SOL     OW 1459   5.083   9.859   4.266 -0.1551  0.1411  0.1962
63245SOL    HW1 1460   4.992   9.886   4.274 -0.6258 -1.2241 -0.2746
63245SOL    HW2 1461   5.103   9.871   4.173 -0.9404 -2.6915 -0.4197
63246SOL     OW 1462   0.094  12.404  12.612 -0.1289  0.5113  0.7535
63246SOL    HW1 1463   0.013  12.359  12.636 -0.8474  1.4404  0.1160
63246SOL    HW2 1464   0.113  12.374  12.523 -1.3334  2.3823 -0.2065
63247SOL     OW 1465   1.229  10.634   3.558 -0.0861 -0.2788  0.4001
63247SOL    HW1 1466   1.188  10.633   3.471  0.7535 -0.4354 -0.0073
63247SOL    HW2 1467   1.322  10.646   3.540 -0.1791  2.7767  1.4305
63248SOL     OW 1468  10.084   4.711   1.105  0.1390  0.3146 -0.1667
63248SOL    HW1 1469  10.122   4.794   1.076  0.8503 -0.5389 -1.7739
63248SOL    HW2 1470  10.112   4.702   1.196  2.5520  0.4256 -0.8528
63249SOL     OW 1471  12.658   6.208  10.067 -0.1632  0.0991 -0.7289
63249SOL    HW1 1472  12.614   6.285  10.029 -2.0046 -1.0811 -1.1390
63249SOL    HW2 1473  12.595   6.174  10.131  1.0034 -0.5698  0.0855
63250SOL     OW 1474   5.630   0.046   8.289 -0.2077 -0.1457  0.7646
63250SOL    HW1 1475   5.653  -0.041   8.255  2.7248  0.9814 -0.4693
63250SOL    HW2 1476   5.569   0.081   8.224  0.1780 -0.5497  0.1659
63251SOL     OW 1477   8.395   4.068   2.104 -0.3381  0.3748  0.1399
63251SOL    HW1 1478   8.391   3.976   2.133 -2.0559  0.7627  1.3032
63251SOL    HW2 1479   8.465   4.106   2.156  1.8616 -0.7085 -1.8663
63252SOL     OW 1480   7.217   7.589   6.869  0.4340 -0.2325  0.5361
63252SOL    HW1 1481   7.133   7.609   6.828 -0.4511 -0.0742  2.3352
63252SOL    HW2 1482   7.283   7.617   6.805 -0.8311 -2.2375 -1.8008
63253SOL     OW 1483   0.006   4.731  12.861  0.9770 -0.6005 -0.1036
63253SOL    HW1 1484   0.048   4.776  12.934 -1.6360  0.2036  1.0244
63253SOL    HW2 1485  -0.027   4.801  12.805  0.5057 -1.1659 -0.5530
63254SOL     OW 1486   4.279   6.554   8.634  0.7165  0.2143  0.3344
63254SOL    HW1 1487   4.308   6.633   8.680  0.4109  0.7913 -0.4377
63254SOL    HW2 1488   4.196   6.580   8.592 -1.6603 -1.6893  3.4128
63255SOL     OW 1489   8.700   2.298   1.774  0.7413 -0.7990 -0.2390
63255SOL    HW1 1490   8.672   2.366   1.713  0.0433  1.1504  2.1145
63255SOL    HW2 1491   8.618   2.263   1.810  1.1109  0.0602  1.5721
63256SOL     OW 1492  10.376   6.501   5.812 -0.3967 -0.7299  0.1446
63256SOL    HW1 1493  10.451   6.443   5.799 -0.8272 -0.9150 -1.9038
63256SOL    HW2 1494  10.379   6.561   5.737 -3.4504 -2.1006 -1.2273
63257SOL     OW 1495   2.572   3.481   8.614 -0.4465  0.5103 -0.5807
63257SOL    HW1 1496   2.548   3.560   8.663  0.4002  1.2579 -1.3235
63257SOL    HW2 1497   2.625   3.430   8.676 -0.5199  0.7996 -0.2741
63258SOL     OW 1498   0.519   2.116   7.873 -0.0845  0.2490 -0.2131
63258SOL    HW1 1499   0.611   2.123   7.899 -0.2985  1.3792  0.2876
63258SOL    HW2 1500   0.493   2.205   7.851 -0.6775 -0.2684 -1.7434
63259SOL     OW 1501   8.591  10.215  12.957  0.1007 -0.0226  0.7132
63259SOL    HW1 1502   8.585  10.205  13.052 -1.2138 -0.5382  0.5936
63259SOL    HW2 1503   8.539  10.142  12.922  0.2247  0.4044 -0.3913
63260SOL     OW 1504   8.509   0.342   1.802  0.5342 -0.0664 -0.4423
63260SOL    HW1 1505   8.536   0.280   1.870  2.6369  1.4105  0.1590
63260SOL    HW2 1506   8.585   0.349   1.745  0.1486  1.5340 -0.7995
63261SOL     OW 1507   4.454   9.111   4.215  0.3864  0.0705  0.6191
63261SOL    HW1 1508   4.377   9.148   4.174 -0.1562 -0.1270  1.4366
63261SOL    HW2 1509   4.519   9.181   4.215 -0.4797  0.9011  1.7602
63262SOL     OW 1510   3.109  11.643   2.321  0.0995  0.3929 -0.9207
63262SOL    HW1 1511   3.150  11.557   2.316  0.3178  0.5269 -1.5351
63262SOL    HW2 1512   3.084  11.652   2.413  0.7072 -0.0344 -0.7031
63263SOL     OW 1513   8.488   3.923   0.205 -0.0626 -0.0261  0.4179
63263SOL    HW1 1514   8.425   3.851   0.204 -0.6033  0.4204  1.1511
63263SOL    HW2 1515   8.543   3.906   0.282  0.4828 -0.2111 -0.0046
63264SOL     OW 1516  10.630   7.195  13.290  0.2566  0.3788  0.2071
63264SOL    HW1 1517  10.545   7.174  13.251 -0.8211  0.3197  2.4336
63264SOL    HW2 1518  10.619   7.283  13.325  1.7949  1.1590 -1.1585
63265SOL     OW 1519   3.207   4.419  13.673 -0.2223 -0.5311  0.2421
63265SOL    HW1 1520   3.274   4.401  13.606  0.6482 -2.5825  1.5610
63265SOL    HW2 1521   3.125   4.395  13.631 -0.0395  0.7645 -0.9602
63266SOL     OW 1522   9.499  12.351   7.394  0.0070  0.6944  0.2632
63266SOL    HW1 1523   9.509  12.265   7.434  1.0529 -0.3400 -2.0283
63266SOL    HW2 1524   9.580  12.363   7.343 -1.6498  1.3638 -2.4250
63267SOL     OW 1525   6.442   3.068   9.496  0.2591  0.4590 -0.1137
63267SOL    HW1 1526   6.496   3.051   9.573 -2.2325  3.2628  2.5712
63267SOL    HW2 1527   6.485   3.141   9.452  0.9455 -0.2110 -0.5574
63268SOL     OW 1528  11.049   8.616  11.745 -0.1381  0.2362  0.0570
63268SOL    HW1 1529  11.094   8.677  11.687  0.6501  0.4273  0.8391
63268SOL    HW2 1530  10.996   8.562  11.687 -0.7286  1.5417 -0.6689
63269SOL     OW 1531  10.174  12.930   3.845  0.1116  0.1789  0.0429
63269SOL    HW1 1532  10.190  13.000   3.782 -1.3605  1.1529  0.6786
63269SOL    HW2 1533  10.216  12.960   3.926 -2.8601  1.7912  1.1391
63270SOL     OW 1534   9.926   9.276  12.255 -0.0396 -0.5326 -0.1486
63270SOL    HW1 1535   9.913   9.262  12.349  0.7778 -0.1018  0.0332
63270SOL    HW2 1536  10.003   9.333  12.249 -1.3830  1.3084 -0.9806
63271SOL     OW 1537   8.047   7.313  11.069 -0.1304  0.5913 -0.2377
63271SOL    HW1 1538   7.965   7.315  11.118 -0.1004 -1.2166 -0.0398
63271SOL    HW2 1539   8.082   7.402  11.076 -1.1354  0.8943  1.2898
63272SOL     OW 1540   6.937   0.511   7.250  0.1021  0.3828 -0.2351
63272SOL    HW1 1541   6.910   0.596   7.285 -1.3671  0.1326 -0.7037
63272SOL    HW2 1542   6.985   0.532   7.170 -0.5154  0.7663 -0.5083
63273SOL     OW 1543  12.829   7.561  11.059 -0.3087 -0.0452 -0.3933
63273SOL    HW1 1544  12.887   7.527  11.128 -0.2026  0.7976 -0.0625
63273SOL    HW2 1545  12.862   7.519  10.979  0.2418 -0.2071 -0.0915
63274SOL     OW 1546  12.775  13.179   1.813 -0.0393  0.1116 -0.2252
63274SOL    HW1 1547  12.766  13.270   1.838  0.2485 -0.5446  2.5589
63274SOL    HW2 1548  12.860  13.174   1.769 -0.1159  1.1726 -0.5190
63275SOL     OW 1549   2.594   6.196  10.629 -0.7939 -0.2136  0.0058
63275SOL    HW1 1550   2.527   6.163  10.570 -0.0796  0.1709 -1.0468
63275SOL    HW2 1551   2.613   6.284  10.596 -1.3480  0.5634  1.6379
63276SOL     OW 1552  11.412   0.881   0.893  0.2042 -0.1454  0.2835
63276SOL    HW1 1553  11.443   0.945   0.957 -2.5077 -0.2610  1.8758
63276SOL    HW2 1554  11.390   0.932   0.816 -1.3993  0.8134  1.3355
63277SOL     OW 1555  12.104   0.886   6.407  0.1872  0.0307 -0.2893
63277SOL    HW1 1556  12.026   0.922   6.365  1.7356  1.8683 -1.7364
63277SOL    HW2 1557  12.166   0.870   6.336  1.7386  0.1647  0.9604
63278SOL     OW 1558   6.020   1.835   9.220  0.0963  0.3240  0.7890
63278SOL    HW1 1559   5.937   1.788   9.224  0.3657 -0.2165  0.2538
63278SOL    HW2 1560   5.997   1.921   9.186 -0.1895  0.0136  0.1810
63279SOL     OW 1561   8.816   2.462  11.940  0.5848  0.3384 -0.5726
63279SOL    HW1 1562   8.907   2.488  11.956 -0.0964  1.2647  2.5286
63279SOL    HW2 1563   8.789   2.418  12.021 -1.0593 -2.1522 -2.3291
63280SOL     OW 1564   1.674   7.053   9.689  0.1173  0.0115  0.8388
63280SOL    HW1 1565   1.716   7.103   9.759 -1.5485 -0.2766  2.0955
63280SOL    HW2 1566   1.598   7.012   9.730 -0.9829 -0.0998 -1.1660
63281SOL     OW 1567  13.584   4.244   9.830 -0.2799 -0.7672 -0.0810
63281SOL    HW1 1568  13.557   4.172   9.772 -0.4669 -0.9595  0.2381
63281SOL    HW2 1569  13.507   4.302   9.833 -1.3617 -2.1843  2.1868
63282SOL     OW 1570   8.279   7.438   8.224  0.0217  0.0938  0.1971
63282SOL    HW1 1571   8.192   7.442   8.185 -0.0510 -0.6560  0.2535
63282SOL    HW2 1572   8.263   7.448   8.318 -0.4000 -3.0280  0.5934
63283SOL     OW 1573   7.130   9.475   8.138 -0.5332 -0.2677  0.2619
63283SOL    HW1 1574   7.218   9.464   8.174 -0.0724  2.5050  0.1963
63283SOL    HW2 1575   7.138   9.450   8.046 -0.2111 -1.4422  0.5914
63284SOL     OW 1576   4.008   5.612   7.540  0.6476 -0.0541 -0.2435
63284SOL    HW1 1577   3.933   5.565   7.504  0.8985 -0.1404 -0.6594
63284SOL    HW2 1578   4.048   5.656   7.464  1.7888 -1.0655 -0.2664
63285SOL     OW 1579   4.943   2.979  13.229 -0.7928  0.0265 -0.0180
63285SOL    HW1 1580   4.997   2.903  13.210 -2.1771 -0.7506 -1.0462
63285SOL    HW2 1581   4.920   2.969  13.322  2.0500  1.2385  0.9081
63286SOL     OW 1582  13.012   7.538  13.161 -0.0522  0.5469 -0.0132
63286SOL    HW1 1583  13.094   7.501  13.194 -1.2027 -1.0335  1.2453
63286SOL    HW2 1584  13.009   7.626  13.197 -1.0052 -0.8983  4.0480
63287SOL     OW 1585   7.598   5.771   6.767  0.0264 -0.1246 -0.2927
63287SOL    HW1 1586   7.573   5.731   6.851  1.1283  1.0779  0.6466
63287SOL    HW2 1587   7.664   5.837   6.790  1.1923 -0.5244 -2.2323
63288SOL     OW 1588   3.516   2.690   3.070  0.3543  0.1841  0.2325
63288SOL    HW1 1589   3.429   2.727   3.083 -0.3998 -1.9729  2.0638
63288SOL    HW2 1590   3.552   2.737   2.995 -2.5801  0.8009 -0.9079
63289SOL     OW 1591  11.764  10.224   2.858  0.3185 -1.2072 -0.2166
63289SOL    HW1 1592  11.678  10.253   2.827 -0.4211 -1.4557  1.4997
63289SOL    HW2 1593  11.808  10.191   2.779 -0.2971  0.8987 -1.5283
63290SOL     OW 1594   8.876   5.804  10.528 -0.1331  0.1753 -0.2532
63290SOL    HW1 1595   8.791   5.828  10.564  0.1464  1.9406 -0.7070
63290SOL    HW2 1596   8.939   5.832  10.594  0.2032  0.6951 -0.7868
63291SOL     OW 1597  12.145   0.481   9.288 -0.4835  0.6092 -0.2020
63291SOL    HW1 1598  12.183   0.562   9.323 -1.9638  1.4850 -0.5604
63291SOL    HW2 1599  12.144   0.495   9.193 -0.8975  0.2254 -0.2529
63292SOL     OW 1600   6.220   7.700   8.658 -0.0624 -0.7240 -0.1874
63292SOL    HW1 1601   6.146   7.662   8.705 -2.2745  0.7221 -2.2997
63292SOL    HW2 1602   6.220   7.655   8.573 -1.8303  2.6894 -2.1796
63293SOL     OW 1603  12.144   5.961   9.688  0.5808 -0.0856  0.0440
63293SOL    HW1 1604  12.207   5.960   9.617  0.6482 -0.0718  0.1033
63293SOL    HW2 1605  12.058   5.963   9.645  0.5614 -1.7490 -0.0682
63294SOL     OW 1606   5.010  10.408   2.087 -0.1271 -0.0618 -0.1373
63294SOL    HW1 1607   5.071  10.341   2.058  0.5038  0.5358 -0.2118
63294SOL    HW2 1608   4.944  10.412   2.017 -0.7040 -1.2464  0.3073
63295SOL     OW 1609  13.581   9.679  11.373 -0.1530  0.3184 -0.0547
63295SOL    HW1 1610  13.499   9.726  11.388  1.2744  2.0777  3.6545
63295SOL    HW2 1611  13.616   9.718  11.293 -1.7095  1.4839 -0.2283
63296SOL     OW 1612  10.781   9.051  13.734 -0.3040  0.3714  0.1902
63296SOL    HW1 1613  10.858   8.997  13.749 -0.3203 -0.1385 -1.3475
63296SOL    HW2 1614  10.746   9.069  13.821  1.2785  0.2349  0.8833
63297SOL     OW 1615  12.725  12.624   5.103 -0.1622 -0.1224 -0.1940
63297SOL    HW1 1616  12.707  12.540   5.146  0.5295 -1.1038 -1.7690
63297SOL    HW2 1617  12.638  12.660   5.084 -0.4651 -0.9415 -0.3886
63298SOL     OW 1618   4.148   6.004   2.323  0.4514  0.2806 -0.5680
63298SOL    HW1 1619   4.182   5.916   2.307  1.8642  0.8177 -0.6368
63298SOL    HW2 1620   4.111   6.000   2.411  1.2913 -0.1520 -0.2287
63299SOL     OW 1621   0.527   1.534   9.540  0.0983 -0.4962 -0.5532
63299SOL    HW1 1622   0.555   1.572   9.623 -2.4989  0.4668 -0.0301
63299SOL    HW2 1623   0.603   1.485   9.509  2.1920  1.6633  0.8364
63300SOL     OW 1624  13.117   8.675   1.037  0.6507 -0.0607 -0.6489
63300SOL    HW1 1625  13.102   8.683   1.131 -0.8262  0.0229 -0.8619
63300SOL    HW2 1626  13.152   8.586   1.026  0.5411 -0.1807 -0.0560
63301SOL     OW 1627   2.342   1.450   8.099 -0.1894  0.2724 -0.1949
63301SOL    HW1 1628   2.393   1.471   8.177  1.1153 -0.0993 -0.9310
63301SOL    HW2 1629   2.251   1.448   8.130  0.3754 -0.7939  1.5137
63302SOL     OW 1630   8.432   4.059  11.334  0.0044  0.0943 -0.0317
63302SOL    HW1 1631   8.397   4.061  11.245 -0.0749  1.0343  0.0108
63302SOL    HW2 1632   8.364   4.017  11.386  0.3908 -1.2192 -0.5493
63303SOL     OW 1633  11.880  13.173   9.053 -0.3551  0.9016  0.5586
63303SOL    HW1 1634  11.935  13.250   9.042  0.2197  0.7930  2.4220
63303SOL    HW2 1635  11.867  13.165   9.147 -1.8051 -0.3171  0.2997
63304SOL     OW 1636  12.297  12.636  13.426 -0.4287 -0.3107 -0.0175
63304SOL    HW1 1637  12.227  12.679  13.377 -0.7270 -0.3951  0.3316
63304SOL    HW2 1638  12.363  12.703  13.437 -0.5075 -0.1931 -0.2455
63305SOL     OW 1639  11.301   2.494  13.501  0.2061 -0.2498  0.3328
63305SOL    HW1 1640  11.243   2.419  13.491 -0.3620  0.1282  0.7360
63305SOL    HW2 1641  11.361   2.488  13.426 -0.0212 -0.9321  0.2004
63306SOL     OW 1642  12.951   4.255   1.606  0.5687 -0.5465 -0.1500
63306SOL    HW1 1643  13.005   4.180   1.579  1.7692  0.5216 -0.7810
63306SOL    HW2 1644  12.950   4.312   1.529 -0.5757 -0.0228  0.2320
63307SOL     OW 1645  12.333   1.435  13.592 -0.2205  0.4857  0.7315
63307SOL    HW1 1646  12.262   1.437  13.527  0.1940  0.2863  0.2689
63307SOL    HW2 1647  12.412   1.453  13.542  0.1423  0.0404  1.1319
63308SOL     OW 1648   1.538   7.924  13.330 -0.3110 -0.0136  0.3422
63308SOL    HW1 1649   1.533   7.962  13.242  1.6711 -1.9907 -0.7280
63308SOL    HW2 1650   1.594   7.983  13.379  1.0384 -0.3975 -0.6745
63309SOL     OW 1651   3.450   0.715   5.736  0.0460 -0.1960  0.7107
63309SOL    HW1 1652   3.481   0.660   5.808  0.9388 -3.6550 -2.0445
63309SOL    HW2 1653   3.404   0.655   5.678 -0.0649  2.2518 -1.9676
63310SOL     OW 1654  10.105  11.646   9.275  0.5989 -0.9686 -0.2468
63310SOL    HW1 1655  10.102  11.661   9.180 -0.3744 -3.4026 -0.6668
63310SOL    HW2 1656  10.186  11.688   9.303  1.6422 -1.3820 -2.4316
63311SOL     OW 1657   2.803   1.875  11.608 -0.4192  0.0579  0.0406
63311SOL    HW1 1658   2.792   1.787  11.571  0.5796 -0.4677  0.9667
63311SOL    HW2 1659   2.717   1.896  11.644 -0.3917 -1.0024  0.7828
63312SOL     OW 1660   3.170   9.313   6.450 -0.1924  0.1025 -0.0135
63312SOL    HW1 1661   3.097   9.256   6.474 -0.4459  0.9398  1.3166
63312SOL    HW2 1662   3.130   9.400   6.439  0.1247 -0.0001 -2.3455
63313SOL     OW 1663  11.679   2.726   6.023 -0.2774 -0.0641  0.2491
63313SOL    HW1 1664  11.654   2.678   6.102  1.9529 -1.1778  0.3635
63313SOL    HW2 1665  11.723   2.805   6.054 -1.4747  0.6826  0.0806
63314SOL     OW 1666   2.748   9.675   9.271 -0.5035  0.1194  0.1147
63314SOL    HW1 1667   2.769   9.617   9.198  0.8598  1.2306 -0.4292
63314SOL    HW2 1668   2.675   9.728   9.239 -0.3875  0.1153 -0.1582
63315SOL     OW 1669   8.965   8.757   5.125  0.0767  0.2794  0.0434
63315SOL    HW1 1670   8.914   8.677   5.137  1.6087 -0.5354  1.5233
63315SOL    HW2 1671   8.971   8.795   5.212 -1.4147  2.5693 -0.7838
63316SOL     OW 1672   5.080   4.692   3.194  0.0705 -0.1095  0.0040
63316SOL    HW1 1673   4.992   4.660   3.215  0.2989 -0.4480  0.4479
63316SOL    HW2 1674   5.138   4.619   3.213  0.4705  0.1668 -0.1327
63317SOL     OW 1675  11.344  11.929   8.478 -0.0465 -0.2541 -0.0565
63317SOL    HW1 1676  11.342  11.833   8.481  1.0405 -0.2967 -0.1060
63317SOL    HW2 1677  11.404  11.954   8.549 -1.2882  0.4616  0.7701
63318SOL     OW 1678   6.229   3.191   8.874 -0.3914  0.1360 -0.2879
63318SOL    HW1 1679   6.261   3.159   8.958 -1.2100 -2.0393 -0.7530
63318SOL    HW2 1680   6.308   3.199   8.820  0.0396  0.7892  0.4060
63319SOL     OW 1681  12.823   5.765  13.501 -0.0068 -0.2460  0.0379
63319SOL    HW1 1682  12.881   5.786  13.574  0.7086  1.3946 -0.9314
63319SOL    HW2 1683  12.880   5.724  13.436 -0.5170 -1.1664  0.1625
63320SOL     OW 1684   9.339   4.751  10.713 -0.1420 -0.5099 -0.0950
63320SOL    HW1 1685   9.265   4.803  10.745 -1.2719  0.7093 -4.0328
63320SOL    HW2 1686   9.313   4.660  10.727 -1.9058 -0.0758 -0.3505
63321SOL     OW 1687   8.740   7.532  10.359  0.0258  0.4188  0.3085
63321SOL    HW1 1688   8.713   7.574  10.277 -0.6652 -1.1675 -0.3171
63321SOL    HW2 1689   8.821   7.486  10.337 -2.0103 -3.0629 -0.6019
63322SOL     OW 1690   9.799   6.676   7.260  0.1979 -0.2236 -0.5517
63322SOL    HW1 1691   9.893   6.696   7.264  0.3560 -0.4818 -2.1466
63322SOL    HW2 1692   9.763   6.744   7.203 -0.9378  0.9293  1.4214
63323SOL     OW 1693  13.721   0.775   0.048 -0.1977 -0.3936  0.0140
63323SOL    HW1 1694  13.680   0.705   0.098 -1.5560  1.0092  0.9680
63323SOL    HW2 1695  13.647   0.825   0.013  0.6716  1.6177  0.9022
63324SOL     OW 1696   8.409  12.459   2.943  0.2917 -0.2828  0.0537
63324SOL    HW1 1697   8.486  12.406   2.922 -0.0315 -1.0698  0.8233
63324SOL    HW2 1698   8.424  12.542   2.896  1.9717 -0.1145  0.7960
63325SOL     OW 1699   1.786   5.070   5.419 -0.1590  0.5040 -0.4783
63325SOL    HW1 1700   1.837   5.083   5.339 -1.0209  1.1443 -0.9390
63325SOL    HW2 1701   1.847   5.092   5.490  0.5857  0.0102 -0.9580
63326SOL     OW 1702   9.610  12.292  13.317 -0.0089  0.5730  0.8342
63326SOL    HW1 1703   9.532  12.296  13.372 -1.0563  2.4901 -0.6815
63326SOL    HW2 1704   9.577  12.297  13.228  1.8851  4.0981  0.1590
63327SOL     OW 1705   1.768  12.724   1.727  0.2094 -0.3733  0.0737
63327SOL    HW1 1706   1.826  12.750   1.656  1.7309 -1.1910  0.9764
63327SOL    HW2 1707   1.793  12.634   1.747  0.2959  0.0668  2.0958
63328SOL     OW 1708   2.372   6.013   7.797 -0.5162  0.1912 -0.3600
63328SOL    HW1 1709   2.412   5.999   7.711  0.7049 -1.7699  0.4580
63328SOL    HW2 1710   2.392   6.104   7.817  1.9733 -0.1675 -0.8460
63329SOL     OW 1711   0.549  10.204   1.364 -0.4863  0.1938  0.2893
63329SOL    HW1 1712   0.618  10.152   1.322 -1.3656  0.6983 -1.8972
63329SOL    HW2 1713   0.556  10.182   1.457  1.5095 -1.0480 -0.0955
63330SOL     OW 1714   8.250  12.902   4.119 -0.2556  0.1129  0.2536
63330SOL    HW1 1715   8.205  12.948   4.190 -3.2636 -3.3549  0.9106
63330SOL    HW2 1716   8.279  12.820   4.159 -0.2995 -1.0948 -2.0301
63331SOL     OW 1717   1.642   0.722  13.227  0.0390 -0.2195  0.1707
63331SOL    HW1 1718   1.713   0.786  13.221  0.3023 -0.5137  0.0861
63331SOL    HW2 1719   1.592   0.734  13.147  0.1615 -0.2025  0.0962
63332SOL     OW 1720   2.495   0.734   3.604  0.0216  0.2456  0.2104
63332SOL    HW1 1721   2.558   0.662   3.605 -1.4386 -1.1098  1.5956
63332SOL    HW2 1722   2.515   0.783   3.524  3.6427  0.6988  1.2295
63333SOL     OW 1723   9.828  10.092   3.331  0.4554 -0.3435  0.2165
63333SOL    HW1 1724   9.911  10.136   3.347  0.4996 -0.4775  0.3618
63333SOL    HW2 1725   9.818  10.091   3.236  1.2275 -1.4333  0.1286
63334SOL     OW 1726   4.541  11.140   6.745  0.3458  0.6703 -0.4502
63334SOL    HW1 1727   4.456  11.101   6.724  0.9251 -1.8897  1.4658
63334SOL    HW2 1728   4.522  11.204   6.814 -0.1276  0.6007 -0.5144
63335SOL     OW 1729   1.141  12.721   4.160 -0.3818  0.4950  0.0464
63335SOL    HW1 1730   1.137  12.688   4.250  0.1550 -1.1191 -0.5024
63335SOL    HW2 1731   1.076  12.670   4.112  0.9998 -0.3452 -0.9959
63336SOL     OW 1732   7.781   8.550   8.446  0.3090  0.2803 -0.3092
63336SOL    HW1 1733   7.696   8.514   8.471  0.3759 -0.6473 -1.3417
63336SOL    HW2 1734   7.793   8.625   8.504 -1.0247  0.1855  0.1276
63337SOL     OW 1735   6.723  12.765  12.456  0.4158 -0.0357  0.0656
63337SOL    HW1 1736   6.815  12.773  12.430  0.4947  1.9980  0.7842
63337SOL    HW2 1737   6.726  12.724  12.543  0.6962  0.5110  0.3186
63338SOL     OW 1738  12.909   7.228   0.330  0.1671  0.4063  0.6980
63338SOL    HW1 1739  12.850   7.290   0.371  0.5170  0.2722  1.4187
63338SOL    HW2 1740  12.984   7.222   0.389  0.7825  0.3647 -0.0582
63339SOL     OW 1741   9.574   2.425   8.534  0.2112 -0.0059 -0.5209
63339SOL    HW1 1742   9.524   2.423   8.615  0.2004 -0.4189 -0.5329
63339SOL    HW2 1743   9.639   2.355   8.544  0.1525 -0.1187 -0.9018
63340SOL     OW 1744  10.538   5.631   8.113 -0.3990  0.3065  0.0634
63340SOL    HW1 1745  10.559   5.590   8.197 -0.8355  1.2630  0.6529
63340SOL    HW2 1746  10.623   5.647   8.073 -0.1883 -0.2423  0.2771
63341SOL     OW 1747   6.879   2.647   3.973  0.5351  0.0693 -0.0414
63341SOL    HW1 1748   6.922   2.587   4.034 -0.5659 -0.9689 -0.2473
63341SOL    HW2 1749   6.917   2.627   3.888 -2.3042 -3.0311 -0.8114
63342SOL     OW 1750   6.619  13.347   0.322  0.0668  0.6073  0.1256
63342SOL    HW1 1751   6.642  13.430   0.364  0.5185 -0.0247  1.1682
63342SOL    HW2 1752   6.690  13.332   0.258  0.9408  0.1923  1.1578
63343SOL     OW 1753   5.856   8.619   5.172 -0.0537 -0.1439  1.0541
63343SOL    HW1 1754   5.819   8.610   5.084  0.9589  0.5148  0.5458
63343SOL    HW2 1755   5.869   8.714   5.183  3.3909 -0.4037  0.3595
63344SOL     OW 1756   7.088   5.267   8.996  0.6209 -0.1354 -0.4587
63344SOL    HW1 1757   7.109   5.219   9.076 -0.6182  1.1793  0.7081
63344SOL    HW2 1758   7.087   5.200   8.927  1.5902 -1.3168  0.6134
63345SOL     OW 1759   1.574   1.696   4.258 -0.9169 -0.1618  0.4065
63345SOL    HW1 1760   1.549   1.776   4.305 -0.6813  1.5180 -2.1678
63345SOL    HW2 1761   1.492   1.665   4.219 -0.7059 -0.2236  0.0140
63346SOL     OW 1762   5.694  13.212   3.114 -0.1847 -0.1568 -0.8433
63346SOL    HW1 1763   5.775  13.199   3.066 -0.7275 -0.5254 -1.6830
63346SOL    HW2 1764   5.665  13.300   3.090  0.0927  0.0815 -0.3313
63347SOL     OW 1765   6.719  12.270  11.656  0.1756 -0.1000 -0.0445
63347SOL    HW1 1766   6.665  12.215  11.601  0.1215  0.6231 -0.7396
63347SOL    HW2 1767   6.663  12.345  11.678  0.4306 -0.0360  0.3932
63348SOL     OW 1768  11.182   6.579   8.875  0.4689 -0.6087  1.0113
63348SOL    HW1 1769  11.099   6.594   8.831  0.6109 -1.5561  0.3759
63348SOL    HW2 1770  11.204   6.663   8.914  0.6434  0.4835 -1.2545
63349SOL     OW 1771   8.650   6.537   7.701  0.1998  0.1654  0.0899
63349SOL    HW1 1772   8.698   6.510   7.779 -0.9503  2.0099  1.5335
63349SOL    HW2 1773   8.558   6.535   7.728 -0.5817 -2.5443 -2.3449
63350SOL     OW 1774   9.590   1.919   8.622  0.5684  0.1173  0.1481
63350SOL    HW1 1775   9.678   1.884   8.629  0.3084 -0.3688  1.0557
63350SOL    HW2 1776   9.575   1.966   8.704 -0.3015 -0.4723  0.3445
63351SOL     OW 1777   9.333  11.422   0.781 -0.3424 -0.3187  0.5128
63351SOL    HW1 1778   9.372  11.336   0.796  1.6308  0.1060 -1.4667
63351SOL    HW2 1779   9.262  11.406   0.719  1.1531 -0.4262 -1.2805
63352SOL     OW 1780   0.520  11.303   9.767 -0.1412  0.2629 -0.3106
63352SOL    HW1 1781   0.480  11.389   9.778  0.9120  0.8030 -0.6005
63352SOL    HW2 1782   0.574  11.311   9.689  0.1882 -0.5846 -0.1842
63353SOL     OW 1783   5.576   7.286  12.433  0.3486  0.1109  0.1889
63353SOL    HW1 1784   5.532   7.337  12.365 -1.8619  0.2840  1.6413
63353SOL    HW2 1785   5.669   7.298  12.415 -0.1167  0.4905 -2.5142
63354SOL     OW 1786  13.156   9.661   1.420  0.1056 -0.3387 -0.1639
63354SOL    HW1 1787  13.164   9.677   1.514 -0.8103  0.6686 -0.2324
63354SOL    HW2 1788  13.232   9.705   1.381 -0.1477  0.2670  0.0161
63355SOL     OW 1789   4.980   2.105   0.534 -0.7663  0.0912  0.3982
63355SOL    HW1 1790   4.906   2.111   0.594 -1.7475  0.7313 -0.8181
63355SOL    HW2 1791   5.034   2.181   0.554  0.5100 -1.2612  2.4265
63356SOL     OW 1792  13.720   8.029   5.543 -0.3753 -0.0244  0.1843
63356SOL    HW1 1793  13.747   8.121   5.537 -0.5382  0.0295  0.2832
63356SOL    HW2 1794  13.626   8.031   5.525 -0.1012 -0.3544 -1.4511
63357SOL     OW 1795   1.596   5.249   5.628  0.1154 -0.4863  0.3294
63357SOL    HW1 1796   1.661   5.214   5.690  1.4613 -0.3745 -0.9414
63357SOL    HW2 1797   1.547   5.172   5.599 -2.9271 -0.2016  3.9581
63358SOL     OW 1798  12.340  13.328  12.603 -0.5293 -0.0928 -0.6541
63358SOL    HW1 1799  12.406  13.284  12.549  0.8879  1.3841 -0.2294
63358SOL    HW2 1800  12.378  13.327  12.691 -0.8395  1.1984 -0.4866
63359SOL     OW 1801   2.818  10.773   1.618 -0.5707 -0.3929 -0.4052
63359SOL    HW1 1802   2.875  10.710   1.576 -2.1482 -2.3884  0.3084
63359SOL    HW2 1803   2.878  10.838   1.656  1.1138 -1.5336 -1.0223
63360SOL     OW 1804  10.465   3.204  12.868  0.3278  0.6196 -0.1060
63360SOL    HW1 1805  10.439   3.245  12.951 -0.2380  2.6229 -1.2058
63360SOL    HW2 1806  10.514   3.126  12.894 -0.8384  0.5380  2.0988
63361SOL     OW 1807   0.663  10.241   3.512 -0.0163  0.3066  0.0704
63361SOL    HW1 1808   0.688  10.165   3.458 -0.8278 -0.6552  1.0056
63361SOL    HW2 1809   0.726  10.240   3.584  1.1068  1.6300 -0.8341
63362SOL     OW 1810  10.886  10.519   4.439 -0.5380 -0.7770 -0.2924
63362SOL    HW1 1811  10.845  10.596   4.476 -1.7154 -0.9124 -1.2777
63362SOL    HW2 1812  10.973  10.549   4.412 -1.9141  0.9882 -3.1929
63363SOL     OW 1813   9.052  10.556   4.020  0.1509  0.1828  0.2673
63363SOL    HW1 1814   9.144  10.543   3.994  0.0207 -0.8346  0.2843
63363SOL    HW2 1815   9.054  10.633   4.076  0.5857  1.8815 -1.9260
63364SOL     OW 1816   0.133   2.766   6.718  0.4297  0.4829 -0.2357
63364SOL    HW1 1817   0.146   2.839   6.657 -2.9442  1.6395  0.2285
63364SOL    HW2 1818   0.186   2.790   6.795  2.1678  0.5872 -1.4020
63365SOL     OW 1819   2.007   5.474   9.756  0.0470  0.1404  0.6633
63365SOL    HW1 1820   2.020   5.565   9.730  2.3462 -0.7116 -1.4346
63365SOL    HW2 1821   2.091   5.446   9.792 -0.0532 -1.6340 -0.3590
63366SOL     OW 1822  11.263   9.122   0.709  0.1058  0.4706 -0.1289
63366SOL    HW1 1823  11.309   9.050   0.666  0.5317  0.5857  0.1296
63366SOL    HW2 1824  11.323   9.151   0.778 -0.8149 -0.1018  0.9376
63367SOL     OW 1825   8.002   9.031   4.789  0.7879 -0.2087 -0.7325
63367SOL    HW1 1826   7.958   9.110   4.821  0.6464 -0.0202 -1.3798
63367SOL    HW2 1827   7.950   8.959   4.825  0.4579  0.0031 -0.7748
63368SOL     OW 1828   0.144  10.558   0.995  0.5462 -0.4373  0.3023
63368SOL    HW1 1829   0.216  10.528   1.051  0.8580  1.8857  1.2452
63368SOL    HW2 1830   0.184  10.621   0.936 -0.5487  0.2807  0.3011
63369SOL     OW 1831   6.842  11.521   9.771 -0.2512  0.2672 -0.6667
63369SOL    HW1 1832   6.776  11.496   9.835 -0.9711  0.5923 -1.2578
63369SOL    HW2 1833   6.791  11.544   9.693  0.4254  2.4008 -0.5426
63370SOL     OW 1834  13.702   7.378  11.607 -0.0573 -0.0585  0.1935
63370SOL    HW1 1835  13.709   7.323  11.684  0.1184 -0.4714 -0.1156
63370SOL    HW2 1836  13.723   7.466  11.638  0.6964 -0.3329  0.4670
63371SOL     OW 1837  12.199  11.595   3.310 -0.3722  0.1442 -0.1551
63371SOL    HW1 1838  12.112  11.594   3.271 -0.8861  0.4623  0.9307
63371SOL    HW2 1839  12.255  11.552   3.246 -1.5560 -1.1809 -0.3574
63372SOL     OW 1840   6.646   4.409   8.261  0.3826 -0.6611 -0.2361
63372SOL    HW1 1841   6.565   4.369   8.228  0.1244 -0.0080 -0.4158
63372SOL    HW2 1842   6.701   4.419   8.183  0.4527 -0.6879 -0.1901
63373SOL     OW 1843   1.783   7.482   0.484  0.0854  0.1800 -0.0776
63373SOL    HW1 1844   1.717   7.517   0.424  0.1726 -0.5064 -0.5935
63373SOL    HW2 1845   1.783   7.542   0.558  1.0197  1.9396 -1.4131
63374SOL     OW 1846   9.343   0.588  12.596  0.1694  0.2111  0.0305
63374SOL    HW1 1847   9.398   0.627  12.665 -0.8447  2.4915 -0.3529
63374SOL    HW2 1848   9.259   0.634  12.604 -0.9718 -1.6269 -0.8153
63375SOL     OW 1849   1.218   2.331   3.674  0.4960  0.4389 -0.1957
63375SOL    HW1 1850   1.224   2.426   3.672 -0.8326  0.5351 -1.9437
63375SOL    HW2 1851   1.275   2.302   3.603 -0.7317  0.0787 -1.0633
63376SOL     OW 1852   3.911   7.716   8.389 -0.2225 -0.3381 -0.3508
63376SOL    HW1 1853   3.940   7.684   8.304  0.8389  0.5806 -0.3635
63376SOL    HW2 1854   3.877   7.803   8.372  0.0228 -0.1354  0.1529
63377SOL     OW 1855  13.669  10.403  13.107 -0.2686  0.3243  0.1049
63377SOL    HW1 1856  13.691  10.312  13.121  0.5564  0.4938 -0.0551
63377SOL    HW2 1857  13.574  10.403  13.096 -0.2218 -0.5799 -0.4165
63378SOL     OW 1858   6.997  12.901   0.183 -0.0257  0.3636  0.3997
63378SOL    HW1 1859   7.026  12.889   0.092 -0.2165  2.3785  0.0190
63378SOL    HW2 1860   6.911  12.860   0.186 -1.2530  2.5964 -1.1678
63379SOL     OW 1861   8.359   0.579  12.984 -0.0239 -0.2542  0.2144
63379SOL    HW1 1862   8.294   0.562  12.915  1.5720 -1.1661 -1.1590
63379SOL    HW2 1863   8.377   0.672  12.977 -0.7219 -0.1155  0.1775
63380SOL     OW 1864   9.651  13.106   2.470 -0.4858 -0.3389  0.6808
63380SOL    HW1 1865   9.733  13.059   2.454 -1.2413 -0.7811 -2.5723
63380SOL    HW2 1866   9.679  13.193   2.498  1.0572 -0.8437  0.8220
63381SOL     OW 1867   6.594   4.356   0.360 -0.2807  0.6336  0.5074
63381SOL    HW1 1868   6.571   4.407   0.283  0.9379 -2.0986 -1.8658
63381SOL    HW2 1869   6.512   4.314   0.387 -0.5734  1.0443  0.2718
63382SOL     OW 1870   9.833   2.149   7.985 -0.1405  0.4749 -0.0402
63382SOL    HW1 1871   9.856   2.132   8.076  1.7981 -0.9706 -0.7365
63382SOL    HW2 1872   9.889   2.221   7.958 -1.7813  1.9504  0.2606
63383SOL     OW 1873   9.835   2.672   8.735 -0.0172 -0.4343 -0.0594
63383SOL    HW1 1874   9.742   2.679   8.758 -0.4143  0.2872 -1.6979
63383SOL    HW2 1875   9.838   2.695   8.642  1.6946 -1.2990 -0.2629
63384SOL     OW 1876   6.526   7.899  13.125  0.3169 -0.0191  0.1054
63384SOL    HW1 1877   6.609   7.943  13.144  0.8481 -0.4020 -1.2223
63384SOL    HW2 1878   6.542   7.807  13.144 -0.1145  0.0321  0.7593
63385SOL     OW 1879  10.934  10.988   5.924  0.0983  0.4031  0.4977
63385SOL    HW1 1880  10.853  11.008   5.971  1.1731 -1.0908  3.1773
63385SOL    HW2 1881  10.980  10.926   5.980  2.7556  0.5502 -1.3336
63386SOL     OW 1882   8.070   8.861   2.056  0.3766  0.0685 -0.6972
63386SOL    HW1 1883   8.059   8.791   1.992  2.1780 -2.7383  1.8299
63386SOL    HW2 1884   7.986   8.863   2.103  0.3414 -0.4174 -0.7374
63387SOL     OW 1885   6.463   7.050   7.758 -0.5507  0.2754 -0.6566
63387SOL    HW1 1886   6.486   7.090   7.842 -0.5380 -0.3974 -0.3359
63387SOL    HW2 1887   6.546   7.046   7.710 -0.5155  0.4422 -0.6116
63388SOL     OW 1888   4.588   1.581  11.426 -0.3597 -0.0402  0.6294
63388SOL    HW1 1889   4.658   1.528  11.464  0.8853 -0.9672 -2.6658
63388SOL    HW2 1890   4.521   1.518  11.401  0.0263  0.1809 -1.0502
63389SOL     OW 1891   8.488  13.308   2.782 -0.0869 -0.3175  0.1047
63389SOL    HW1 1892   8.539  13.256   2.844 -0.0447 -1.3562 -0.7645
63389SOL    HW2 1893   8.502  13.398   2.809 -0.6050 -0.7671  1.9999
63390SOL     OW 1894   3.269   9.376  13.300 -0.0339 -0.3959 -0.8594
63390SOL    HW1 1895   3.235   9.413  13.219  0.3406  0.5985 -0.5884
63390SOL    HW2 1896   3.361   9.358  13.281 -0.2550 -1.3976 -1.0433
63391SOL     OW 1897   3.442  13.188   7.147  0.3699  0.1136  0.1302
63391SOL    HW1 1898   3.520  13.232   7.112  1.5161  1.0294  3.4555
63391SOL    HW2 1899   3.474  13.104   7.179 -0.2064  0.0709  0.6105
63392SOL     OW 1900   9.367   2.837   6.364  0.0900 -0.3997  0.1983
63392SOL    HW1 1901   9.378   2.757   6.415 -2.1591  0.4593  2.2049
63392SOL    HW2 1902   9.327   2.808   6.282 -2.4389 -1.2362  1.6324
63393SOL     OW 1903  10.116   4.481   1.362 -0.1443  0.5721  0.2330
63393SOL    HW1 1904  10.127   4.502   1.454  0.8116 -0.5371  0.4050
63393SOL    HW2 1905  10.204   4.491   1.324  0.0004 -1.2493 -0.0260
63394SOL     OW 1906  12.594   3.836   5.422  1.3070  0.2833 -0.3598
63394SOL    HW1 1907  12.541   3.847   5.344  0.4673  1.9373  0.3844
63394SOL    HW2 1908  12.554   3.763   5.469  1.8413 -0.7467 -1.4528
63395SOL     OW 1909  12.885   2.444   6.837 -0.0004  0.2424 -0.1805
63395SOL    HW1 1910  12.948   2.506   6.875  2.7295 -1.5708 -1.4261
63395SOL    HW2 1911  12.844   2.492   6.765  2.3237  0.5867 -1.3582
63396SOL     OW 1912  10.936   8.114  11.468 -0.1699  0.1025 -0.5293
63396SOL    HW1 1913  10.941   8.207  11.491 -0.1093  0.1200 -0.6119
63396SOL    HW2 1914  11.021   8.095  11.428 -1.0723  0.6509 -2.8809
63397SOL     OW 1915   9.132   5.348  10.992  0.3061 -0.3659  0.2320
63397SOL    HW1 1916   9.079   5.411  11.040  1.1503  0.8351 -0.3501
63397SOL    HW2 1917   9.183   5.303  11.059  0.5322  0.3787  0.5663
63398SOL     OW 1918   9.993   4.617  10.422  0.2591  0.0725  0.3664
63398SOL    HW1 1919   9.984   4.705  10.384  2.5171 -0.3187 -1.2682
63398SOL    HW2 1920  10.087   4.607  10.436  0.7536 -3.6951 -3.7645
63399SOL     OW 1921  10.313  13.007  12.256  0.2450 -0.2027  0.4244
63399SOL    HW1 1922  10.223  12.993  12.287  0.5953 -1.1348  1.0492
63399SOL    HW2 1923  10.368  12.961  12.319  1.2503  1.1489  0.5839
63400SOL     OW 1924   6.853  11.824  12.292  0.2658 -0.0784  0.4316
63400SOL    HW1 1925   6.884  11.746  12.246 -0.6279 -1.4250  1.9944
63400SOL    HW2 1926   6.854  11.893  12.226 -0.5174 -1.7811 -1.4749
63401SOL     OW 1927   3.841   1.661  13.416 -0.1379  0.5011  0.3278
63401SOL    HW1 1928   3.842   1.566  13.413 -0.8400  0.4696  0.8906
63401SOL    HW2 1929   3.753   1.684  13.446  0.4516  1.2689  1.5808
63402SOL     OW 1930   1.613  10.167   7.577  0.4965 -0.2297  0.0969
63402SOL    HW1 1931   1.574  10.131   7.657  0.4035  0.1771  0.2353
63402SOL    HW2 1932   1.707  10.153   7.588  0.6503  1.2966  1.0326
63403SOL     OW 1933  10.619   8.169   1.837  0.2202  0.0569  0.2985
63403SOL    HW1 1934  10.557   8.112   1.792 -0.8373  0.1366  1.5880
63403SOL    HW2 1935  10.663   8.217   1.767  0.0117 -1.1987 -0.7235
63404SOL     OW 1936   4.206  13.378  11.820 -0.1306 -0.6404  0.4060
63404SOL    HW1 1937   4.135  13.316  11.802  0.1172 -0.8760  0.2334
63404SOL    HW2 1938   4.284  13.335  11.785 -0.3949  1.1205 -2.6358
63405SOL     OW 1939   1.136  12.672   1.748  0.0161 -0.2799 -0.2675
63405SOL    HW1 1940   1.183  12.589   1.736 -0.0199 -0.1481 -1.3763
63405SOL    HW2 1941   1.049  12.645   1.778 -0.4986 -0.7494 -2.0932
63406SOL     OW 1942   3.985   5.146   5.893  0.5997 -0.4200  0.6945
63406SOL    HW1 1943   3.906   5.189   5.926  0.2328 -0.7634  0.2794
63406SOL    HW2 1944   4.056   5.183   5.945  0.0420 -0.9379  1.8828
63407SOL     OW 1945   8.859  12.191   4.383  0.7892 -0.4683 -0.2956
63407SOL    HW1 1946   8.950  12.207   4.408 -0.0462 -1.0518  3.8864
63407SOL    HW2 1947   8.827  12.130   4.449 -2.9777  0.6505 -0.8758
63408SOL     OW 1948  13.198   1.475   7.327  0.0541 -0.4492 -0.5615
63408SOL    HW1 1949  13.262   1.505   7.263  1.1685 -0.3429  0.5415
63408SOL    HW2 1950  13.250   1.459   7.406 -1.1146 -1.5114  0.0312
63409SOL     OW 1951   2.259   3.813   4.766  0.3133  0.5586 -0.3816
63409SOL    HW1 1952   2.169   3.840   4.749  0.6494  0.8021 -1.8952
63409SOL    HW2 1953   2.313   3.884   4.732  1.1312 -0.6737 -1.8016
63410SOL     OW 1954   3.056   3.106   3.556 -0.1847 -0.5752 -0.4555
63410SOL    HW1 1955   3.043   3.094   3.461 -0.4986 -1.2432 -0.3357
63410SOL    HW2 1956   3.043   3.199   3.571 -2.6396 -0.8225 -0.6915
63411SOL     OW 1957   6.364   6.196  10.597  0.0077  0.1154  0.5072
63411SOL    HW1 1958   6.362   6.162  10.687 -1.7201 -0.2737  0.3466
63411SOL    HW2 1959   6.451   6.236  10.589  0.8142 -1.2616  1.8217
63412SOL     OW 1960   7.574   0.420   1.806 -0.0490  0.1565 -0.0383
63412SOL    HW1 1961   7.578   0.405   1.900 -1.4096  0.2860  0.0718
63412SOL    HW2 1962   7.554   0.514   1.797  2.6367  0.7493 -0.5557
63413SOL     OW 1963   1.866   9.638   4.772 -0.5002 -0.0255  0.2187
63413SOL    HW1 1964   1.883   9.657   4.864  1.8880 -0.1674 -0.1403
63413SOL    HW2 1965   1.876   9.722   4.728 -0.6494 -0.1465 -0.0495
63414SOL     OW 1966   1.876  10.116  12.165 -0.1275  0.2683 -0.4361
63414SOL    HW1 1967   1.873  10.021  12.150 -2.0371  0.5527 -2.3667
63414SOL    HW2 1968   1.849  10.127  12.256  1.9269 -1.0740  0.4213
63415SOL     OW 1969   5.631   8.443   9.875  0.6279 -0.7134 -1.0439
63415SOL    HW1 1970   5.619   8.427   9.782  0.4909  2.0437 -1.5964
63415SOL    HW2 1971   5.724   8.428   9.891  0.7685 -0.6194 -1.7594
63416SOL     OW 1972  10.396   4.018   2.084  0.5082  0.2844  1.0061
63416SOL    HW1 1973  10.445   4.091   2.048  0.2632 -0.1002 -0.1396
63416SOL    HW2 1974  10.319   4.058   2.123  0.9495  0.7408  1.4207
63417SOL     OW 1975   7.888   8.702   6.833  0.0056 -0.1348  0.0742
63417SOL    HW1 1976   7.876   8.608   6.815  1.6447 -0.4654  0.5433
63417SOL    HW2 1977   7.857   8.745   6.753  0.2259 -1.1459 -0.5809
63418SOL     OW 1978  10.311   7.710   9.770  0.5471 -0.5321 -0.1798
63418SOL    HW1 1979  10.352   7.766   9.705 -0.6529 -0.6483 -1.0783
63418SOL    HW2 1980  10.372   7.709   9.843  0.3499  2.4856  0.1741
63419SOL     OW 1981   7.285   0.647   2.742  0.6468 -0.3430 -0.1456
63419SOL    HW1 1982   7.374   0.682   2.740  0.8785 -0.9235 -0.1029
63419SOL    HW2 1983   7.282   0.594   2.821  0.8397 -1.8091 -1.0849
63420SOL     OW 1984   1.094  10.366   4.003  0.2061  0.5394  0.2592
63420SOL    HW1 1985   1.049  10.281   4.007  2.9252 -0.9742  0.9888
63420SOL    HW2 1986   1.125  10.372   3.913  0.6397  0.4227  0.4021
63421SOL     OW 1987   8.105   5.708   9.507  0.2508  0.5380 -0.1023
63421SOL    HW1 1988   8.044   5.773   9.473 -1.0285 -0.9329 -0.7687
63421SOL    HW2 1989   8.069   5.684   9.593  1.5501  1.7507  0.8137
63422SOL     OW 1990   3.706  13.597   5.931 -0.3528  0.3177 -0.0158
63422SOL    HW1 1991   3.624  13.559   5.899  0.0901 -1.0769  0.4230
63422SOL    HW2 1992   3.684  13.687   5.954 -1.4446  0.3680 -1.1385
63423SOL     OW 1993  13.146   4.615   4.527  0.4051  0.5610  0.2312
63423SOL    HW1 1994  13.142   4.660   4.442 -0.4863  1.1915  0.6009
63423SOL    HW2 1995  13.076   4.550   4.524 -1.0295  2.0020  1.2664
63424SOL     OW 1996   2.629  12.814   8.913  0.3174 -0.1427 -0.0581
63424SOL    HW1 1997   2.671  12.770   8.987 -0.5185  0.4337  0.7787
63424SOL    HW2 1998   2.698  12.870   8.876  0.3703  0.6687  1.1996
63425SOL     OW 1999  12.665   8.941   1.452  0.5005 -0.4668 -0.0739
63425SOL    HW1 2000  12.699   8.999   1.520 -0.1802  0.0501 -0.1612
63425SOL    HW2 2001  12.600   8.995   1.405 -1.8325 -1.9443  1.2548
63426SOL     OW 2002  11.367   0.173   7.614  0.0224  0.7184  0.1177
63426SOL    HW1 2003  11.343   0.228   7.540 -0.6596  1.5089  0.9151
63426SOL    HW2 2004  11.286   0.128   7.638  0.1798  0.6659  0.5603
63427SOL     OW 2005  11.467  10.150   9.423  0.1094 -0.1272  0.1616
63427SOL    HW1 2006  11.558  10.152   9.450  0.0325 -0.6272  0.4778
63427SOL    HW2 2007  11.438  10.061   9.442 -0.5908  0.1747  0.5583
63428SOL     OW 2008   7.153   8.258   5.640  0.3142  0.5010 -0.1191
63428SOL    HW1 2009   7.228   8.223   5.591 -0.0010  1.7150 -1.5473
63428SOL    HW2 2010   7.174   8.350   5.653 -1.5901  1.2688 -1.9742
63429SOL     OW 2011   2.024   7.310   7.880  0.3041  0.0356 -0.9749
63429SOL    HW1 2012   2.110   7.351   7.893  0.7903 -0.7842 -1.4618
63429SOL    HW2 2013   1.961   7.379   7.898  1.0356  0.3855  0.3965
63430SOL     OW 2014   3.887   7.894   5.334 -0.4399  0.1068  0.0614
63430SOL    HW1 2015   3.810   7.873   5.282  0.4375 -0.5970 -0.9799
63430SOL    HW2 2016   3.914   7.811   5.373  0.8110 -0.0204 -1.0081
63431SOL     OW 2017   6.228  12.219  13.742  0.2365 -0.3945 -0.1648
63431SOL    HW1 2018   6.267  12.150  13.689  0.7508 -0.6214  0.4896
63431SOL    HW2 2019   6.135  12.217  13.720 -0.3562 -3.3257  1.9628
63432SOL     OW 2020   0.722   9.398   5.677 -0.1778 -0.6365  0.1016
63432SOL    HW1 2021   0.783   9.430   5.743  0.5822  2.2899 -1.8621
63432SOL    HW2 2022   0.651   9.462   5.676 -0.3186 -0.7775 -1.7043
63433SOL     OW 2023   9.268  10.729  13.486 -0.2979 -0.4906  0.0457
63433SOL    HW1 2024   9.356  10.699  13.509 -0.0858 -0.9282 -1.3063
63433SOL    HW2 2025   9.236  10.666  13.423 -0.9753  0.5358 -0.6745
63434SOL     OW 2026   5.559   1.213   0.034 -0.3421  0.2093 -0.2891
63434SOL    HW1 2027   5.582   1.217   0.127  1.2191  0.7445 -0.6666
63434SOL    HW2 2028   5.471   1.178   0.033  0.1270 -1.1481  1.3313
63435SOL     OW 2029   6.638  10.654  11.614 -0.5292  0.0822  0.1592
63435SOL    HW1 2030   6.605  10.570  11.582 -1.4270  0.3561  0.3415
63435SOL    HW2 2031   6.578  10.719  11.576 -0.8059  0.5158  1.2932
63436SOL     OW 2032  11.084   3.027  12.651  0.3878  0.5569  0.0537
63436SOL    HW1 2033  11.119   2.955  12.704 -1.3917 -1.7655 -1.6665
63436SOL    HW2 2034  10.989   3.025  12.668 -0.4300 -0.9266 -3.6254
63437SOL     OW 2035   4.088   2.060  10.553 -0.5092 -0.2640  0.4142
63437SOL    HW1 2036   4.024   2.067  10.624 -1.1149 -1.5914  0.0300
63437SOL    HW2 2037   4.169   2.095  10.591 -1.2593  0.7567  1.1457
63438SOL     OW 2038   0.883   2.494   1.546  0.3969 -0.3512  0.8090
63438SOL    HW1 2039   0.801   2.522   1.586  0.5864  0.0622  0.9110
63438SOL    HW2 2040   0.950   2.551   1.584  0.2735  1.7761 -1.9092
63439SOL     OW 2041  13.047   7.696   4.278  0.4089  0.9388 -0.2949
63439SOL    HW1 2042  13.098   7.658   4.207 -2.7741  1.1840 -2.9101
63439SOL    HW2 2043  13.002   7.622   4.319 -1.6282  1.1909 -1.9132
63440SOL     OW 2044  12.983   7.438   4.034 -0.9549 -0.1169 -0.0384
63440SOL    HW1 2045  12.961   7.363   3.979  0.0117 -1.3183  1.1475
63440SOL    HW2 2046  13.072   7.420   4.065 -0.7168  1.5021  0.3288
63441SOL     OW 2047   4.016   9.917   1.303  0.0392  0.1973 -0.0683
63441SOL    HW1 2048   4.045   9.929   1.394  0.1543 -0.9098  0.0560
63441SOL    HW2 2049   3.922   9.935   1.305  0.3405  1.8906 -0.0870
63442SOL     OW 2050  12.650   1.945   1.708  0.1306  0.3631  0.3036
63442SOL    HW1 2051  12.582   1.886   1.742 -1.5203  1.0306 -1.6187
63442SOL    HW2 2052  12.688   1.897   1.634  1.5959  0.1141  1.1963
63443SOL     OW 2053   7.701   2.054   3.507 -0.1075 -0.5111 -0.3049
63443SOL    HW1 2054   7.656   2.126   3.462  2.0577 -0.4273 -2.5252
63443SOL    HW2 2055   7.746   2.095   3.580 -0.7992 -0.0310 -0.1381
63444SOL     OW 2056  13.619  13.489   2.970  0.3664 -0.4420  0.4709
63444SOL    HW1 2057  13.672  13.440   3.034 -0.1320 -0.9081  0.5349
63444SOL    HW2 2058  13.540  13.513   3.018  0.1442 -0.4867  0.1280
63445SOL     OW 2059   9.557   5.449   7.872  0.3818  0.1174  0.1138
63445SOL    HW1 2060   9.597   5.536   7.878  0.6454 -0.0549  0.9840
63445SOL    HW2 2061   9.555   5.417   7.962  1.5364 -1.3351 -0.3221
63446SOL     OW 2062   7.227   5.334   7.375  0.5400 -0.0323  0.0928
63446SOL    HW1 2063   7.193   5.359   7.289  2.3164 -1.8667 -1.2370
63446SOL    HW2 2064   7.322   5.332   7.363  0.9993  1.5546  2.6857
63447SOL     OW 2065  10.472  11.147   8.632  0.7111  0.1500 -0.1802
63447SOL    HW1 2066  10.494  11.065   8.676  1.0819  1.6765  2.7346
63447SOL    HW2 2067  10.376  11.151   8.635  0.6747 -0.3187 -0.6472
63448SOL     OW 2068   4.508   0.409   9.900 -0.3643 -0.4957  0.0135
63448SOL    HW1 2069   4.544   0.436   9.984  0.7190  0.1025 -0.6287
63448SOL    HW2 2070   4.425   0.457   9.892 -0.6456 -0.8271  0.8809
63449SOL     OW 2071  12.356   6.903   4.715 -0.1546  0.0974 -0.0346
63449SOL    HW1 2072  12.444   6.906   4.679  0.1191 -3.1559  0.0261
63449SOL    HW2 2073  12.369   6.898   4.810 -0.4558  0.4601  0.0277
63450SOL     OW 2074   6.200  10.903  12.477 -0.3119 -0.4041 -0.3231
63450SOL    HW1 2075   6.245  10.828  12.437 -0.8685 -1.0390  0.1990
63450SOL    HW2 2076   6.234  10.907  12.566  0.1994  0.3919 -0.5445
63451SOL     OW 2077  11.086   9.770   2.840  0.0839  0.4804 -0.2087
63451SOL    HW1 2078  11.137   9.842   2.877  0.0913 -0.0674  0.8650
63451SOL    HW2 2079  11.152   9.710   2.806  0.1374  0.1838  0.4072
63452SOL     OW 2080  13.678   7.144   2.137 -0.3538  0.1004  0.1337
63452SOL    HW1 2081  13.755   7.161   2.191  0.9920 -1.7562 -1.1093
63452SOL    HW2 2082  13.609   7.123   2.200  1.2803 -2.4489  1.2297
63453SOL     OW 2083   9.336   7.797  13.249  0.1393 -0.3060 -0.1855
63453SOL    HW1 2084   9.312   7.721  13.195  1.1177  0.1291 -1.2689
63453SOL    HW2 2085   9.403   7.764  13.308 -0.4632 -0.6212  0.3396
63454SOL     OW 2086   2.352   0.900   6.851  0.4254  1.1154 -0.3203
63454SOL    HW1 2087   2.286   0.942   6.794 -0.1271 -1.0518 -1.3827
63454SOL    HW2 2088   2.335   0.807   6.841  2.8565  0.5496  0.4172
63455SOL     OW 2089  12.929  13.608   8.931  0.5307  0.0190  0.1976
63455SOL    HW1 2090  12.958  13.651   9.011  0.2444 -0.3719  0.5135
63455SOL    HW2 2091  12.848  13.653   8.907  0.5341  0.0302  0.2075
63456SOL     OW 2092   9.441  13.030  11.317  0.0852  0.0678  0.3004
63456SOL    HW1 2093   9.406  13.059  11.402  0.5574 -1.3886  1.0346
63456SOL    HW2 2094   9.382  13.068  11.253 -0.3744  1.0952  1.2860
63457SOL     OW 2095   5.758  12.886   3.741  0.0312 -0.5063  0.3795
63457SOL    HW1 2096   5.799  12.800   3.755 -0.1057 -1.0206 -2.0534
63457SOL    HW2 2097   5.665  12.866   3.731 -0.3210  0.2099  1.8904
63458SOL     OW 2098   3.309   7.402   6.898 -0.0863  0.4781  0.3280
63458SOL    HW1 2099   3.265   7.423   6.980 -1.2312  1.9944 -0.6288
63458SOL    HW2 2100   3.391   7.451   6.902 -0.5127  1.2053  0.2214
63459SOL     OW 2101   2.682   6.676   4.973  0.2543  0.1772 -0.3400
63459SOL    HW1 2102   2.624   6.747   4.946  0.3790 -0.5605 -2.7641
63459SOL    HW2 2103   2.770   6.708   4.953  0.3942 -0.2179 -0.3612
63460SOL     OW 2104   8.303   4.226  11.564 -0.4346 -0.0670  0.3213
63460SOL    HW1 2105   8.289   4.288  11.492  2.1836  0.6142  0.2927
63460SOL    HW2 2106   8.264   4.145  11.533  0.8778  0.1086 -2.0913
63461SOL     OW 2107  10.097   6.551  10.506 -0.1741 -0.1877  0.4558
63461SOL    HW1 2108  10.190   6.570  10.501 -0.2461 -0.0061 -0.2653
63461SOL    HW2 2109  10.086   6.507  10.590  0.7150 -1.0766  0.1238
63462SOL     OW 2110   6.064   3.709  10.412 -0.2755  0.2001  0.5164
63462SOL    HW1 2111   6.047   3.760  10.491 -1.5331  0.3110  0.1994
63462SOL    HW2 2112   6.079   3.774  10.344  0.6358  0.1065  0.6212
63463SOL     OW 2113  11.940  12.233   5.941 -0.1428  0.3449 -0.8515
63463SOL    HW1 2114  11.977  12.241   6.029 -0.9221 -0.0096 -0.4829
63463SOL    HW2 2115  11.862  12.179   5.953 -2.3124  3.1715 -1.1375
63464SOL     OW 2116   0.584   8.821   9.163 -0.2281  0.0129 -0.1723
63464SOL    HW1 2117   0.654   8.854   9.107  1.3853 -1.3019  0.9626
63464SOL    HW2 2118   0.506   8.822   9.107 -0.2355  4.8313 -0.4491
63465SOL     OW 2119  11.204   6.294   1.397 -0.0343 -0.4118 -0.3572
63465SOL    HW1 2120  11.139   6.228   1.373  0.1076 -0.4972 -0.5111
63465SOL    HW2 2121  11.221   6.279   1.490 -2.0707  1.1917  0.3471
63466SOL     OW 2122   1.866  10.516   0.870 -0.5736 -0.3947 -0.1670
63466SOL    HW1 2123   1.828  10.557   0.947 -0.4283 -0.1092 -0.2479
63466SOL    HW2 2124   1.960  10.532   0.877 -0.1341 -3.0138  1.2048
63467SOL     OW 2125   6.845  11.842   3.946  0.1435  0.4587 -0.2085
63467SOL    HW1 2126   6.895  11.896   3.885  1.9066  1.3546  1.9194
63467SOL    HW2 2127   6.795  11.904   3.999 -0.9569 -0.2734 -0.3316
63468SOL     OW 2128   9.855   7.149  11.418 -0.0407 -0.1015  0.4914
63468SOL    HW1 2129   9.835   7.198  11.338 -1.3215 -1.7132 -0.2517
63468SOL    HW2 2130   9.935   7.188  11.451 -0.0414  1.2935 -1.0253
63469SOL     OW 2131   3.759   9.480   0.608 -0.2611 -0.5550 -0.3579
63469SOL    HW1 2132   3.725   9.391   0.592 -1.6272 -0.1356  0.0411
63469SOL    HW2 2133   3.753   9.523   0.523  0.4268 -0.8411 -0.5582
63470SOL     OW 2134   8.032   8.570  13.045  0.1387 -0.3391  0.0101
63470SOL    HW1 2135   7.945   8.546  13.076  0.9193 -0.6879  2.1586
63470SOL    HW2 2136   8.060   8.496  12.991 -0.0365 -1.3204  1.2109
63471SOL     OW 2137  12.397   6.382   0.210 -0.1910  0.0697 -0.2486
63471SOL    HW1 2138  12.485   6.404   0.242 -0.6865  0.2315  1.0805
63471SOL    HW2 2139  12.338   6.417   0.277 -1.2435 -0.6861 -0.7524
63472SOL     OW 2140  11.923   0.017   6.502 -0.6594  0.0528 -0.0323
63472SOL    HW1 2141  11.859   0.085   6.477  1.7015  1.7831 -1.8829
63472SOL    HW2 2142  11.944  -0.027   6.420  0.8872 -0.1028  0.4156
63473SOL     OW 2143   7.916  10.682   5.779 -0.3840  0.0050 -0.1692
63473SOL    HW1 2144   7.859  10.667   5.704  0.1987 -0.7776 -0.4596
63473SOL    HW2 2145   7.981  10.612   5.776 -0.9146 -0.6259  1.6146
63474SOL     OW 2146   6.660   5.137   6.455  0.1680 -0.3171 -0.3052
63474SOL    HW1 2147   6.714   5.061   6.475 -0.5777 -1.2891 -1.7923
63474SOL    HW2 2148   6.710   5.186   6.390  1.0928  1.0444  1.3621
63475SOL     OW 2149   7.904   6.413   5.302 -0.5668  0.2188  0.3074
63475SOL    HW1 2150   7.824   6.371   5.334  0.4755 -0.2524  2.4563
63475SOL    HW2 2151   7.893   6.505   5.326 -0.5611  0.1971  0.3929
63476SOL     OW 2152   4.874  10.454  11.188 -0.0000  0.3001  0.2643
63476SOL    HW1 2153   4.842  10.378  11.139  0.9202  0.1353 -0.0890
63476SOL    HW2 2154   4.797  10.484  11.237 -0.9554  0.4850 -1.2685
63477SOL     OW 2155  13.384  11.747   9.743 -0.4554  0.1449  0.2750
63477SOL    HW1 2156  13.462  11.797   9.765  0.9871 -1.6150 -0.5550
63477SOL    HW2 2157  13.363  11.698   9.822 -1.7082  1.7562  0.9989
63478SOL     OW 2158  12.553  11.512   4.996 -0.3158  0.2754  0.6493
63478SOL    HW1 2159  12.480  11.465   4.956 -2.0880  2.5945  0.9559
63478SOL    HW2 2160  12.589  11.566   4.925  0.6512 -0.2881  0.6914
63479SOL     OW 2161   1.924  13.326   3.586 -0.0618  0.2005 -0.4617
63479SOL    HW1 2162   1.939  13.233   3.573 -1.0640 -0.1681  0.8622
63479SOL    HW2 2163   1.999  13.356   3.637 -0.8814 -0.4091  1.1553
63480SOL     OW 2164   0.238  11.453   4.861 -0.4926 -0.6826  0.2790
63480SOL    HW1 2165   0.264  11.477   4.772 -0.1782 -1.0408  0.2731
63480SOL    HW2 2166   0.157  11.404   4.850  0.0966 -1.6467  0.0945
63481SOL     OW 2167   4.578  10.445   9.634  0.3819  0.4676 -0.1304
63481SOL    HW1 2168   4.555  10.451   9.541  0.2284  0.5908 -0.0835
63481SOL    HW2 2169   4.626  10.525   9.653  0.5727  0.3585 -0.1472
63482SOL     OW 2170   6.510   5.495   8.128 -0.4064 -0.2699 -0.3662
63482SOL    HW1 2171   6.442   5.546   8.171 -0.1940 -1.3517  1.3707
63482SOL    HW2 2172   6.582   5.494   8.190  1.5060  1.3376 -2.4033
63483SOL     OW 2173   6.214  11.513   3.517 -0.1124  0.2932  0.3555
63483SOL    HW1 2174   6.217  11.524   3.422 -1.2141 -0.7616  0.1830
63483SOL    HW2 2175   6.204  11.603   3.551 -0.4489  0.6124 -0.5557
63484SOL     OW 2176   4.871  10.477   0.439 -0.0800  0.1555  0.1164
63484SOL    HW1 2177   4.785  10.474   0.398 -0.5447  0.2790  1.0557
63484SOL    HW2 2178   4.866  10.550   0.501 -0.2999 -1.5868  2.2865
63485SOL     OW 2179  10.764   7.323   0.175  0.6248  0.6945  0.0978
63485SOL    HW1 2180  10.752   7.247   0.233  1.8061  1.7597  1.8475
63485SOL    HW2 2181  10.826   7.293   0.109  0.4641 -0.0966  0.2906
63486SOL     OW 2182  12.318   8.692   9.605  0.3333  0.5242 -0.9199
63486SOL    HW1 2183  12.404   8.657   9.584  0.5887  1.0720 -0.8065
63486SOL    HW2 2184  12.322   8.709   9.699 -0.8043 -1.9312 -0.3673
63487SOL     OW 2185  11.679   0.886   5.087 -0.2370  0.4874  0.0887
63487SOL    HW1 2186  11.722   0.936   5.157 -0.7777  2.6502 -1.0398
63487SOL    HW2 2187  11.680   0.945   5.011 -1.5016 -0.9962 -1.1476
63488SOL     OW 2188   4.282   8.863   3.357  0.1132 -0.0893  0.5714
63488SOL    HW1 2189   4.221   8.877   3.430 -0.1334 -1.4421  0.6441
63488SOL    HW2 2190   4.368   8.857   3.398  0.0798 -0.0031  0.6558
63489SOL     OW 2191   7.167   1.901   5.109 -0.8285 -0.4360 -0.0201
63489SOL    HW1 2192   7.201   1.817   5.078 -1.6910 -0.2887 -1.4271
63489SOL    HW2 2193   7.207   1.912   5.196 -0.8363 -2.3718  0.2768
63490SOL     OW 2194  11.107   1.361   5.662 -0.7469  0.1887  0.6755
63490SOL    HW1 2195  11.132   1.361   5.755 -0.7957  0.1761  0.6890
63490SOL    HW2 2196  11.096   1.268   5.641  2.3448 -0.0800 -0.1914
63491SOL     OW 2197   2.684   2.730  10.310  0.0183  0.0940 -0.0134
63491SOL    HW1 2198   2.743   2.736  10.385 -0.9363  1.3707  0.6767
63491SOL    HW2 2199   2.627   2.806  10.319 -0.3557  0.0607 -1.8432
63492SOL     OW 2200   8.181   6.717   5.286  0.0533 -0.2343  0.1177
63492SOL    HW1 2201   8.147   6.676   5.365  0.1430 -0.7397 -0.1019
63492SOL    HW2 2202   8.106   6.719   5.226 -0.0791  0.3712  0.2990
63493SOL     OW 2203   7.990  11.527  11.972 -0.4239  0.0245 -0.6643
63493SOL    HW1 2204   8.008  11.572  11.890  0.0309 -1.0590 -1.1755
63493SOL    HW2 2205   7.995  11.434  11.951 -0.9369 -0.2859  0.4536
63494SOL     OW 2206   2.641   4.100   4.992  0.4953  0.3387 -0.9719
63494SOL    HW1 2207   2.548   4.116   4.977 -0.0764 -2.5320 -1.1251
63494SOL    HW2 2208   2.672   4.059   4.911  1.0228 -1.7062  0.1870
63495SOL     OW 2209   7.564  10.234   1.960  0.1656  0.0891 -0.1594
63495SOL    HW1 2210   7.600  10.211   2.046  0.1985 -2.8778 -0.8681
63495SOL    HW2 2211   7.632  10.206   1.898 -0.4675  0.8537 -1.2166
63496SOL     OW 2212   9.681  13.047  11.217  0.3321 -0.0559 -1.0891
63496SOL    HW1 2213   9.592  13.032  11.248  0.5991 -0.0879 -0.3299
63496SOL    HW2 2214   9.722  12.961  11.214  0.9882  0.1647  0.5943
63497SOL     OW 2215   2.732   4.875  11.017 -0.0776  0.1104 -0.4703
63497SOL    HW1 2216   2.822   4.905  11.031  0.0644  0.0610 -1.2493
63497SOL    HW2 2217   2.720   4.879  10.922 -0.8073 -0.1470 -0.3916
63498SOL     OW 2218  12.215   6.703   0.641 -0.4157  0.9218  0.1909
63498SOL    HW1 2219  12.156   6.770   0.607 -0.1415  0.2253 -1.8012
63498SOL    HW2 2220  12.164   6.622   0.639 -0.5320  0.9120  1.9465
63499SOL     OW 2221   2.173   7.674   9.247 -0.1134  0.2778  0.2634
63499SOL    HW1 2222   2.216   7.589   9.258  0.6045  0.6768  0.6966
63499SOL    HW2 2223   2.101   7.673   9.310  1.0432  0.6817  1.6795
63500SOL     OW 2224   9.867   1.737  12.010 -0.3354 -0.2721 -0.2233
63500SOL    HW1 2225   9.792   1.786  12.043 -0.1450  1.0983 -1.7018
63500SOL    HW2 2226   9.939   1.763  12.068 -0.3783  0.7524 -0.5995
63501SOL     OW 2227   5.594   0.601   0.232 -0.1540 -0.2718  0.4125
63501SOL    HW1 2228   5.507   0.639   0.243 -0.9160 -1.3924 -1.3287
63501SOL    HW2 2229   5.577   0.509   0.210  1.5096 -0.7633  1.0479
63502SOL     OW 2230   4.024  13.472   2.486  0.3030 -0.1571 -0.0620
63502SOL    HW1 2231   3.939  13.486   2.445 -0.5918 -0.4595  1.5847
63502SOL    HW2 2232   4.087  13.514   2.428 -1.2505  2.5528  0.0824
63503SOL     OW 2233   0.614   5.826   1.576 -0.0588  0.0816  0.4255
63503SOL    HW1 2234   0.645   5.739   1.551  1.0362  0.6285 -0.1653
63503SOL    HW2 2235   0.584   5.815   1.666  0.2283 -0.8629  0.4239
63504SOL     OW 2236   2.849   7.028   8.656 -0.0448  0.4854 -0.4692
63504SOL    HW1 2237   2.782   7.090   8.626 -0.9158  0.5038  1.3473
63504SOL    HW2 2238   2.799   6.957   8.697  1.0047 -0.5402 -0.8930
63505SOL     OW 2239   7.895   6.919   9.484 -0.0353  0.0423  0.8712
63505SOL    HW1 2240   7.824   6.953   9.429 -0.7844  1.6436  2.7088
63505SOL    HW2 2241   7.959   6.885   9.421 -1.6609  0.0527 -0.9063
63506SOL     OW 2242  11.767   0.029   6.187 -0.7922 -0.2605 -0.1957
63506SOL    HW1 2243  11.857   0.000   6.203 -0.5738 -0.0395 -0.9910
63506SOL    HW2 2244  11.756   0.104   6.246 -0.2934  0.0072 -0.4367
63507SOL     OW 2245   7.668  12.814   9.538 -0.1549  0.8291 -0.4630
63507SOL    HW1 2246   7.659  12.893   9.485  2.6593  0.8721 -1.0092
63507SOL    HW2 2247   7.681  12.744   9.475 -0.5815  0.2339  0.0939
63508SOL     OW 2248  13.080   8.856   2.386  0.2158  0.2843 -0.1930
63508SOL    HW1 2249  13.113   8.896   2.306  0.8512  0.3734  0.1065
63508SOL    HW2 2250  13.104   8.917   2.456  1.6514 -0.8123  0.3369
63509SOL     OW 2251   5.352  13.441  10.806  0.2727  0.0874  0.2412
63509SOL    HW1 2252   5.402  13.519  10.834  1.5542 -0.5949 -0.0490
63509SOL    HW2 2253   5.261  13.465  10.820  0.3196  2.9062 -2.7737
63510SOL     OW 2254   0.015   9.659   6.931  0.5321 -0.0131 -0.2758
63510SOL    HW1 2255   0.018   9.642   6.837 -2.8272 -1.3895 -0.2428
63510SOL    HW2 2256  -0.048   9.730   6.941  0.6183 -0.0922  0.9768
63511SOL     OW 2257   0.420   7.329  10.205 -0.4463  0.0956 -0.3066
63511SOL    HW1 2258   0.341   7.330  10.260 -0.9100  0.0847 -0.9672
63511SOL    HW2 2259   0.405   7.399  10.141 -0.8365 -1.2115 -1.6932
63512SOL     OW 2260   4.419   6.068   2.366  0.3981 -0.2902 -0.0970
63512SOL    HW1 2261   4.377   6.146   2.402  1.5094  1.7483 -2.8282
63512SOL    HW2 2262   4.348   6.021   2.322  0.3397  1.6138 -2.2266
63513SOL     OW 2263   7.487  12.184  13.655 -0.2912 -0.3334 -0.2004
63513SOL    HW1 2264   7.468  12.207  13.745  1.2614 -0.6455  0.2391
63513SOL    HW2 2265   7.402  12.163  13.616 -1.2064  1.6187  0.6447
63514SOL     OW 2266   4.708   3.204  11.237 -1.0074  0.6067  0.2943
63514SOL    HW1 2267   4.748   3.250  11.164  0.5280  0.8860  1.2501
63514SOL    HW2 2268   4.751   3.118  11.237  0.1591  1.1361  1.7191
63515SOL     OW 2269   6.848   1.078   5.974  0.0563 -0.3652 -0.4251
63515SOL    HW1 2270   6.927   1.027   5.996  0.4741  0.8061  0.9195
63515SOL    HW2 2271   6.876   1.134   5.901  0.4138 -0.1036 -0.0927
63516SOL     OW 2272   0.399  10.415   9.229  0.0633 -0.3191  0.3543
63516SOL    HW1 2273   0.493  10.432   9.231  0.1612 -0.6601 -0.7280
63516SOL    HW2 2274   0.385  10.348   9.295  0.5581 -0.1435  0.6412
63517SOL     OW 2275   7.867   3.874  10.806 -0.7044  0.0217  0.5233
63517SOL    HW1 2276   7.826   3.788  10.801  0.6897 -0.5930 -1.2151
63517SOL    HW2 2277   7.820   3.927  10.743  2.2264 -1.2689 -3.1253
63518SOL     OW 2278   7.964   0.694   9.970 -0.3729 -0.1296  0.4593
63518SOL    HW1 2279   8.055   0.705   9.997 -0.3169  1.6410 -0.3377
63518SOL    HW2 2280   7.958   0.603   9.942  0.5200 -0.9536  2.7667
63519SOL     OW 2281   8.241   1.931   2.509  0.1006 -0.0112 -0.0110
63519SOL    HW1 2282   8.181   1.988   2.558 -0.0745  0.0237 -0.2661
63519SOL    HW2 2283   8.309   1.990   2.476  0.0606  0.0098 -0.0554
63520SOL     OW 2284   9.782   8.860   2.871 -0.4715 -0.1184 -0.0018
63520SOL    HW1 2285   9.829   8.846   2.953 -1.0764 -1.3680  0.1616
63520SOL    HW2 2286   9.747   8.948   2.878 -1.8650 -0.7604  1.8111
63521SOL     OW 2287   2.177   6.245  10.572 -0.5168 -0.1866 -0.5719
63521SOL    HW1 2288   2.127   6.166  10.551  0.8515 -1.1586 -0.3391
63521SOL    HW2 2289   2.123   6.292  10.635 -1.1361 -1.2015 -0.3234
63522SOL     OW 2290   7.452   2.453  10.984 -0.2507 -0.1081 -0.3327
63522SOL    HW1 2291   7.450   2.523  11.050 -2.1077  2.7444 -3.1432
63522SOL    HW2 2292   7.530   2.471  10.932 -0.6542 -0.1783 -0.9733
63523SOL     OW 2293   0.525   1.878   1.401 -0.4359 -1.0145 -0.4133
63523SOL    HW1 2294   0.452   1.876   1.463 -1.0077 -0.1210 -1.0278
63523SOL    HW2 2295   0.485   1.857   1.316  0.0145 -0.5692 -0.7466
63524SOL     OW 2296   5.771   3.871   2.853  0.0979  0.8770 -0.8174
63524SOL    HW1 2297   5.840   3.873   2.919  0.7911  2.9768 -1.5238
63524SOL    HW2 2298   5.750   3.778   2.843  0.4687  0.4410  1.7856
63525SOL     OW 2299  11.720   4.529   4.224 -0.7643  0.0626 -0.1998
63525SOL    HW1 2300  11.777   4.583   4.278  0.4334 -0.9617 -0.3925
63525SOL    HW2 2301  11.655   4.494   4.285  1.3066 -2.1072  0.9620
63526SOL     OW 2302   9.265  11.298   5.343  0.1538  0.1812 -0.4068
63526SOL    HW1 2303   9.342  11.315   5.397 -0.5153  0.3441  0.5210
63526SOL    HW2 2304   9.224  11.384   5.332 -1.0274 -0.1845  0.8813
63527SOL     OW 2305  12.560  11.092   2.291  0.2037 -0.0762  0.1505
63527SOL    HW1 2306  12.614  11.038   2.348 -1.8842 -0.1992  2.1723
63527SOL    HW2 2307  12.472  11.086   2.329 -1.2272  0.2405 -2.8480
63528SOL     OW 2308   0.804   7.801   4.761 -0.2523  0.3183  0.1957
63528SOL    HW1 2309   0.825   7.865   4.828 -2.0296  2.5406 -1.2045
63528SOL    HW2 2310   0.880   7.800   4.703  0.7050 -0.5866  1.3936
63529SOL     OW 2311  11.142   7.076  13.044  0.3892  0.6666  0.0361
63529SOL    HW1 2312  11.072   7.142  13.043  0.8920  1.3763 -3.8019
63529SOL    HW2 2313  11.100   6.997  13.011  0.5657 -0.0614  1.4779
63530SOL     OW 2314   0.377  12.003   6.992 -0.0541  0.4530  0.0471
63530SOL    HW1 2315   0.382  11.960   7.077 -1.2489 -1.0341 -0.5873
63530SOL    HW2 2316   0.466  12.037   6.977 -0.0732  1.6667  2.3069
63531SOL     OW 2317   8.507   9.851   4.547 -0.1303 -0.6401  0.1567
63531SOL    HW1 2318   8.420   9.843   4.509 -0.5905 -1.4106  1.3061
63531SOL    HW2 2319   8.519   9.769   4.596  0.9100 -0.1997  0.6671
63532SOL     OW 2320   9.691  12.577   4.026 -0.4092 -0.2642 -0.7316
63532SOL    HW1 2321   9.743  12.533   4.093  2.2630  4.3298  0.6368
63532SOL    HW2 2322   9.603  12.581   4.063 -0.1997 -2.1522  0.1018
63533SOL     OW 2323   1.614  13.268   3.669 -0.4694  0.8847 -0.6920
63533SOL    HW1 2324   1.537  13.265   3.725 -0.4613 -2.0142 -0.7163
63533SOL    HW2 2325   1.684  13.230   3.721  0.5478  1.8422 -1.3068
63534SOL     OW 2326  13.676   1.263   8.142 -0.4196  0.3312  0.0863
63534SOL    HW1 2327  13.699   1.211   8.219 -0.4976 -0.1450 -0.2068
63534SOL    HW2 2328  13.655   1.350   8.177  0.1459  0.2915  0.5357
63535SOL     OW 2329  11.192  13.306   8.203  0.0699  0.1444 -0.4476
63535SOL    HW1 2330  11.210  13.225   8.249  3.2257  1.3537  0.6972
63535SOL    HW2 2331  11.185  13.372   8.272  1.7882  1.4885 -1.4873
63536SOL     OW 2332   7.439  10.835  10.369 -0.0002 -0.2153 -0.3150
63536SOL    HW1 2333   7.345  10.815  10.358 -0.5805  2.2107 -0.3549
63536SOL    HW2 2334   7.441  10.911  10.428  1.8654  0.4231 -1.1155
63537SOL     OW 2335   8.349   6.388   8.476  0.3138 -0.2682 -0.3528
63537SOL    HW1 2336   8.277   6.340   8.435  1.5063 -2.0112 -0.5062
63537SOL    HW2 2337   8.338   6.478   8.446 -1.2201 -0.6942 -1.1699
63538SOL     OW 2338  10.111   2.945   9.793  0.0280 -0.5840 -0.2171
63538SOL    HW1 2339  10.197   2.967   9.758 -0.1079  0.3506  0.0099
63538SOL    HW2 2340  10.115   2.973   9.885  0.4880 -3.2469  0.6546
63539SOL     OW 2341   2.088   6.900   5.452  0.0835 -0.9405  0.2224
63539SOL    HW1 2342   2.173   6.882   5.411  0.1223 -1.7416  0.6531
63539SOL    HW2 2343   2.025   6.849   5.401  0.0323 -1.3490  0.6872
63540SOL     OW 2344   9.125   3.343   2.065  0.3060  0.1034  0.2937
63540SOL    HW1 2345   9.098   3.335   2.157 -0.5754  0.3033  0.0623
63540SOL    HW2 2346   9.062   3.404   2.027  0.6572  0.0078 -0.4508
63541SOL     OW 2347  13.420  10.163   0.477  0.0425 -0.7248  0.7435
63541SOL    HW1 2348  13.481  10.149   0.405 -1.2271 -0.2693 -0.4659
63541SOL    HW2 2349  13.357  10.092   0.469 -0.8996  0.1130  0.5382
63542SOL     OW 2350   9.609   0.199  10.605  0.3424  0.3331  0.2331
63542SOL    HW1 2351   9.649   0.133  10.661 -1.0647 -1.5832 -0.9022
63542SOL    HW2 2352   9.516   0.196  10.627  0.1306  1.3058 -0.4859
63543SOL     OW 2353   3.370   9.118  10.902  0.3911 -0.2477  0.5878
63543SOL    HW1 2354   3.289   9.125  10.952  0.9297 -0.8643  1.5922
63543SOL    HW2 2355   3.362   9.036  10.853 -0.7935  1.0994 -1.6337
63544SOL     OW 2356  12.796  11.757  13.012  0.2797  0.0002  0.1990
63544SOL    HW1 2357  12.759  11.845  13.024 -0.4313 -0.4607  1.6316
63544SOL    HW2 2358  12.876  11.771  12.961  0.9636  1.6554  1.6175
63545SOL     OW 2359   1.014   0.314   9.436  0.1100 -0.9396  0.1053
63545SOL    HW1 2360   0.936   0.293   9.487  0.6608 -2.1077  0.4980
63545SOL    HW2 2361   1.087   0.285   9.491  0.7787 -0.8588 -0.7228
63546SOL     OW 2362   7.767   1.376   5.594  0.1197  0.3371 -0.7253
63546SOL    HW1 2363   7.805   1.450   5.546 -1.6603  1.0949 -1.0926
63546SOL    HW2 2364   7.679   1.407   5.617 -0.1292 -1.1413  0.4322
63547SOL     OW 2365   9.708   8.014   3.725  0.3658 -0.8197 -0.2419
63547SOL    HW1 2366   9.775   7.959   3.685  0.6793  0.4632 -1.5845
63547SOL    HW2 2367   9.694   8.084   3.661 -2.4037 -1.1394 -0.1069
63548SOL     OW 2368   4.473   7.987   6.644  0.2736  0.4923  0.2673
63548SOL    HW1 2369   4.493   7.950   6.558  1.9048  0.6477  0.5508
63548SOL    HW2 2370   4.558   8.011   6.681 -0.4995  1.7036  1.3647
63549SOL     OW 2371   9.078  12.531  12.329  0.4182  0.8164 -0.7249
63549SOL    HW1 2372   9.017  12.587  12.377  0.8538  0.4149  0.3215
63549SOL    HW2 2373   9.147  12.510  12.392  0.2086 -0.9945 -1.0282
63550SOL     OW 2374  11.556  12.823   0.193 -0.1769 -0.4499 -0.0126
63550SOL    HW1 2375  11.555  12.735   0.155  0.7903  0.0310 -1.2391
63550SOL    HW2 2376  11.509  12.877   0.130  1.8418  0.4512 -0.8483
63551SOL     OW 2377   4.599   8.775   5.166 -0.0332 -0.3473  0.6226
63551SOL    HW1 2378   4.559   8.740   5.246 -1.8477 -0.9126 -0.4837
63551SOL    HW2 2379   4.641   8.700   5.125 -1.4591 -0.6899 -0.2937
63552SOL     OW 2380   6.300   0.161  10.701  0.4225  0.0081  0.0263
63552SOL    HW1 2381   6.258   0.107  10.634 -0.0939 -0.5308  0.7609
63552SOL    HW2 2382   6.261   0.248  10.689 -0.3214 -0.2946  0.1851
63553SOL     OW 2383   3.782   4.444  11.739  0.3946  0.0203 -0.6275
63553SOL    HW1 2384   3.807   4.352  11.730  1.0050 -0.0073  1.0240
63553SOL    HW2 2385   3.847   4.491  11.686  1.5400 -0.3467  0.4113
63554SOL     OW 2386   2.905   4.164  12.302  0.0117 -0.0517 -0.2900
63554SOL    HW1 2387   2.832   4.162  12.364 -0.3775 -0.3751 -0.7485
63554SOL    HW2 2388   2.880   4.101  12.234  1.8669 -2.1430  0.8319
63555SOL     OW 2389   3.728   1.975   1.958  0.1567  0.1520 -0.4752
63555SOL    HW1 2390   3.759   2.062   1.986 -1.4132  1.0726 -1.4959
63555SOL    HW2 2391   3.645   1.964   2.003  0.5978 -1.1038  0.0766
63556SOL     OW 2392   8.635   4.137   1.947 -0.0043 -0.1950 -0.0535
63556SOL    HW1 2393   8.623   4.231   1.943 -1.6344 -0.4260 -1.6193
63556SOL    HW2 2394   8.555   4.100   1.911  0.2073 -2.2226  1.3584
63557SOL     OW 2395   1.740  11.533  10.172 -0.0432  0.2059  0.4176
63557SOL    HW1 2396   1.825  11.571  10.194 -0.0631 -0.0023  0.8626
63557SOL    HW2 2397   1.757  11.440  10.163  0.3532  0.4667 -2.3500
63558SOL     OW 2398   8.469   3.778   5.868  0.1461  0.5604  0.5695
63558SOL    HW1 2399   8.524   3.789   5.946  1.1807 -2.9685  0.5386
63558SOL    HW2 2400   8.532   3.767   5.796 -0.5714 -1.3088  0.1623
63559SOL     OW 2401   1.263  10.884   7.318  0.2672  0.6609  0.5957
63559SOL    HW1 2402   1.254  10.909   7.410 -2.5993  1.1070  0.2980
63559SOL    HW2 2403   1.346  10.925   7.290  0.1358  2.3485  2.4263
63560SOL     OW 2404   5.865   3.436   0.146  0.0067 -0.3049  0.3590
63560SOL    HW1 2405   5.898   3.364   0.200 -2.5952 -1.4471  0.5850
63560SOL    HW2 2406   5.797   3.477   0.200 -0.4670  0.5399 -0.8409
63561SOL     OW 2407   7.410  11.014   5.038 -0.3998 -0.2507  0.4254
63561SOL    HW1 2408   7.402  11.003   4.943  0.4073 -3.0851  0.5754
63561SOL    HW2 2409   7.504  11.025   5.052 -0.2893 -1.6106  0.9552
63562SOL     OW 2410  11.381   0.336  13.218  0.5670  0.4373 -0.2315
63562SOL    HW1 2411  11.447   0.307  13.156  0.2237 -1.6380  0.3029
63562SOL    HW2 2412  11.392   0.279  13.294 -1.1385  0.7246  0.2871
63563SOL     OW 2413  12.625   6.481   8.886  0.1111 -0.9309 -0.3793
63563SOL    HW1 2414  12.538   6.500   8.851 -0.3778 -2.5899 -0.1509
63563SOL    HW2 2415  12.684   6.537   8.836 -1.0743  0.2387 -0.5246
63564SOL     OW 2416   3.228   4.370   9.666  0.7466 -1.1588  0.5446
63564SOL    HW1 2417   3.250   4.340   9.754  0.4841 -1.0087  0.6608
63564SOL    HW2 2418   3.303   4.343   9.612  0.6895 -1.6809  0.7211
63565SOL     OW 2419   1.487   6.950  13.219  0.0566 -0.0040 -0.1376
63565SOL    HW1 2420   1.539   7.011  13.271 -1.0444 -0.8784  2.1207
63565SOL    HW2 2421   1.534   6.867  13.224 -0.4613 -0.2864  0.1414
63566SOL     OW 2422   5.895   3.255  10.478  0.0111 -0.0460  0.4444
63566SOL    HW1 2423   5.935   3.232  10.561 -0.5211  0.4859  0.8544
63566SOL    HW2 2424   5.955   3.319  10.439  0.9345 -1.2500 -0.2023
63567SOL     OW 2425   7.013   5.871  10.145 -0.4261  0.0443  0.5693
63567SOL    HW1 2426   7.019   5.790  10.095 -1.7726  1.0826 -1.4071
63567SOL    HW2 2427   7.097   5.915  10.129  0.5546 -1.1394  2.1307
63568SOL     OW 2428   0.194   9.073   5.033 -0.1572  0.0892 -0.5813
63568SOL    HW1 2429   0.114   9.067   4.982 -1.4396 -0.5716  1.3763
63568SOL    HW2 2430   0.191   9.160   5.073  0.5467  0.3831 -1.1315
63569SOL     OW 2431   3.908   9.204  11.704 -0.4008 -0.0615 -0.0291
63569SOL    HW1 2432   3.820   9.206  11.743 -0.3494  0.8565  0.0544
63569SOL    HW2 2433   3.935   9.296  11.702  0.4416 -0.3139 -0.3248
63570SOL     OW 2434  11.683   6.625  13.015 -0.4864 -0.1590 -0.0528
63570SOL    HW1 2435  11.610   6.648  13.072 -0.7874 -3.4091  1.0565
63570SOL    HW2 2436  11.698   6.532  13.031  1.6277 -0.4278 -2.8707
63571SOL     OW 2437   6.909  11.405  11.374  0.1966  0.2113  0.1143
63571SOL    HW1 2438   6.941  11.476  11.318 -0.7620 -0.2402 -1.0419
63571SOL    HW2 2439   6.982  11.343  11.378  0.3026  0.2855 -0.5754
63572SOL     OW 2440   7.708   0.570   3.210  0.1914 -0.6822 -0.3524
63572SOL    HW1 2441   7.678   0.486   3.244 -0.4707  0.4370  2.0200
63572SOL    HW2 2442   7.799   0.577   3.238 -0.0086 -0.2693  0.2283
63573SOL     OW 2443  12.484  12.256   4.932  0.0162 -0.0548 -0.6084
63573SOL    HW1 2444  12.456  12.181   4.879  0.3258 -1.4609  1.0860
63573SOL    HW2 2445  12.413  12.268   4.996 -0.7152  2.0911 -1.7251
63574SOL     OW 2446   5.591   9.028  11.904 -0.0518  0.0831  0.0353
63574SOL    HW1 2447   5.565   8.978  11.827 -1.4891  2.0052 -0.8301
63574SOL    HW2 2448   5.509   9.057  11.943  0.6937  1.8697  0.3865
63575SOL     OW 2449   3.727   4.264   2.893  0.0159 -1.2916 -0.4302
63575SOL    HW1 2450   3.769   4.341   2.856  3.0387 -2.4913  0.2005
63575SOL    HW2 2451   3.726   4.200   2.822 -0.9801 -1.2536 -0.4761
63576SOL     OW 2452   7.569   8.090   7.070  0.2088  0.2488 -0.0671
63576SOL    HW1 2453   7.494   8.032   7.083 -0.1477 -0.0183 -2.6518
63576SOL    HW2 2454   7.534   8.178   7.077 -0.3216  0.1223 -0.9881
63577SOL     OW 2455   8.473  10.211   9.798  0.2525  0.1873  0.4099
63577SOL    HW1 2456   8.412  10.279   9.770  0.8225  0.2529 -0.7242
63577SOL    HW2 2457   8.448  10.134   9.745  2.0222  0.6096 -1.1532
63578SOL     OW 2458   1.247   0.570   6.586 -0.1985 -0.3505 -0.5100
63578SOL    HW1 2459   1.259   0.653   6.541  1.0975 -0.5842 -0.6203
63578SOL    HW2 2460   1.328   0.522   6.571  0.5692 -0.2239  2.5029
63579SOL     OW 2461   5.514   1.294  10.555  0.4015 -0.1110  0.5136
63579SOL    HW1 2462   5.428   1.333  10.569  0.8089  0.5620  1.2277
63579SOL    HW2 2463   5.567   1.366  10.518  0.4009 -0.7934 -0.9051
63580SOL     OW 2464   7.445   5.048   7.583 -0.3898  0.0126  0.7008
63580SOL    HW1 2465   7.374   5.113   7.581  0.4642  0.9837  1.0579
63580SOL    HW2 2466   7.502   5.077   7.653  0.6392 -0.4630  0.0748
63581SOL     OW 2467   1.758   4.439   0.107  0.3786  0.6772  0.2890
63581SOL    HW1 2468   1.842   4.425   0.149 -0.4847  0.0073  1.8985
63581SOL    HW2 2469   1.697   4.383   0.156 -0.5360 -1.0320 -2.5357
63582SOL     OW 2470   0.676   9.531   3.841  0.0917  0.4361 -0.0054
63582SOL    HW1 2471   0.634   9.448   3.822  1.9231 -0.9653  1.5845
63582SOL    HW2 2472   0.616   9.576   3.901 -0.1260 -0.5570  0.5433
63583SOL     OW 2473  12.735   5.890  12.305 -0.2107 -0.1237  0.2068
63583SOL    HW1 2474  12.694   5.878  12.391  0.0482 -3.2781  0.0054
63583SOL    HW2 2475  12.824   5.858  12.316 -0.6340 -2.1312 -1.5386
63584SOL     OW 2476   8.156   1.915   7.105  0.3225 -0.0492  0.4220
63584SOL    HW1 2477   8.090   1.947   7.044 -0.9870 -0.2007  1.7018
63584SOL    HW2 2478   8.108   1.856   7.164  1.7283 -0.6584  1.0011
63585SOL     OW 2479   2.330   6.844   3.290  0.3200  0.0592  0.0701
63585SOL    HW1 2480   2.315   6.936   3.267 -1.8005 -0.4358 -0.7910
63585SOL    HW2 2481   2.399   6.815   3.231 -2.2276 -0.0908 -3.1274
63586SOL     OW 2482   4.935   7.949   1.760  0.4368  0.3827  0.3229
63586SOL    HW1 2483   4.926   8.021   1.697  1.1264  0.8025  0.6972
63586SOL    HW2 2484   4.869   7.968   1.827  0.4247  0.5098  0.2744
63587SOL     OW 2485  13.729  10.794  13.563  0.3661  0.3823 -0.0534
63587SOL    HW1 2486  13.659  10.747  13.609 -0.1357 -1.3040 -2.3613
63587SOL    HW2 2487  13.684  10.847  13.498  1.1598  1.1568  0.0073
63588SOL     OW 2488   1.447   8.680   3.890 -0.2243 -0.7346  0.6766
63588SOL    HW1 2489   1.431   8.618   3.819  0.1237  1.0830 -1.0874
63588SOL    HW2 2490   1.360   8.707   3.919 -0.4148  0.2256 -0.6936
63589SOL     OW 2491   8.885   1.884   3.171  0.4114  0.1786  0.8603
63589SOL    HW1 2492   8.855   1.973   3.154  0.6513  0.3627  1.4054
63589SOL    HW2 2493   8.833   1.854   3.245  0.2628 -0.1707  0.6168
63590SOL     OW 2494  12.812   0.789   4.979 -0.2124  0.2746  0.3950
63590SOL    HW1 2495  12.814   0.884   4.964  0.9199  0.2224  0.1567
63590SOL    HW2 2496  12.775   0.753   4.898  1.0834  0.3898 -0.2756
63591SOL     OW 2497   4.864  10.576   8.580  0.1603 -0.4877 -0.3440
63591SOL    HW1 2498   4.843  10.655   8.630 -1.3338 -1.0476 -0.0139
63591SOL    HW2 2499   4.883  10.608   8.492  2.3509  0.4689  0.4093
63592SOL     OW 2500  13.638  13.468   9.275  0.2958 -0.8394  0.2316
63592SOL    HW1 2501  13.564  13.415   9.247  0.8475 -1.5110  0.0091
63592SOL    HW2 2502  13.600  13.551   9.302 -0.4761 -0.9840 -0.3970
63593SOL     OW 2503   3.056  10.990   7.209  0.2614  0.3552  0.9594
63593SOL    HW1 2504   3.023  10.907   7.243  1.1167 -0.1830  0.5172
63593SOL    HW2 2505   2.978  11.043   7.196 -0.4392 -0.8227  0.0837
63594SOL     OW 2506   4.025   7.841   1.794 -0.0276  0.3332 -0.2569
63594SOL    HW1 2507   3.992   7.794   1.871  0.6987  0.7520  0.3179
63594SOL    HW2 2508   3.946   7.862   1.743 -0.5769  0.5794  0.6709
63595SOL     OW 2509  11.374   1.943  10.073 -0.2073  0.3944  0.1975
63595SOL    HW1 2510  11.455   1.935  10.125 -0.2875 -1.1057  0.1372
63595SOL    HW2 2511  11.329   2.019  10.110  1.2646  1.3259  0.1681
63596SOL     OW 2512   1.459  12.944   3.565 -0.1269  0.4681  0.5025
63596SOL    HW1 2513   1.401  12.921   3.493  0.6057  0.2422 -0.0234
63596SOL    HW2 2514   1.420  12.902   3.642  1.0340 -2.4525 -0.3604
63597SOL     OW 2515   7.653  13.707  11.520  0.0744 -0.6169 -0.6961
63597SOL    HW1 2516   7.646  13.639  11.586 -1.4363  1.7562  1.7862
63597SOL    HW2 2517   7.734  13.753  11.541 -1.3421  1.3381  0.8962
63598SOL     OW 2518   4.465  13.229   6.350 -0.2803 -0.6288  0.0354
63598SOL    HW1 2519   4.558  13.225   6.327  0.2077  1.3598  1.3608
63598SOL    HW2 2520   4.457  13.175   6.429 -0.0209  0.0167  0.5097
63599SOL     OW 2521   7.695   0.346  10.371  0.4790  0.2425 -0.2195
63599SOL    HW1 2522   7.771   0.348  10.429  0.4881  1.5298 -0.2409
63599SOL    HW2 2523   7.664   0.437  10.370 -1.7967 -0.4333  0.7779
63600SOL     OW 2524   8.858  12.157   8.410  0.4077 -0.4086 -0.0437
63600SOL    HW1 2525   8.785  12.147   8.350  0.3853  1.2773 -0.3414
63600SOL    HW2 2526   8.817  12.165   8.497  0.0430  2.2525 -0.3782
63601SOL     OW 2527   3.606   1.885   0.387  0.2063  0.2161  0.5278
63601SOL    HW1 2528   3.541   1.953   0.374 -2.7490 -2.5046 -0.0199
63601SOL    HW2 2529   3.641   1.868   0.300 -0.1050  0.0570  0.4334
63602SOL     OW 2530   8.541   9.864   5.161  0.4452 -0.4666 -0.0881
63602SOL    HW1 2531   8.614   9.886   5.218 -0.4988  0.1378  0.9281
63602SOL    HW2 2532   8.465   9.906   5.201  0.2024  3.0935 -3.6397
63603SOL     OW 2533   8.297   3.592   0.731  0.0409 -0.1663  0.1589
63603SOL    HW1 2534   8.349   3.530   0.782  1.4220 -0.2897 -1.3131
63603SOL    HW2 2535   8.210   3.590   0.771  1.1513  0.0929  2.7537
63604SOL     OW 2536   8.351   0.153  13.573 -0.2810 -0.7602 -0.3243
63604SOL    HW1 2537   8.263   0.189  13.560 -0.4695 -1.3474 -0.7460
63604SOL    HW2 2538   8.408   0.208  13.521 -0.2610  0.1808  0.6632
63605SOL     OW 2539   6.935  10.526   3.271  0.0650  0.0705 -0.0099
63605SOL    HW1 2540   6.883  10.606   3.265  1.0680  0.7583  0.1497
63605SOL    HW2 2541   6.942  10.495   3.181 -2.2763 -1.1690  0.1627
63606SOL     OW 2542   4.391   1.242   8.128  0.4485  0.1117  0.3238
63606SOL    HW1 2543   4.368   1.206   8.213  1.8404  0.4354  0.8598
63606SOL    HW2 2544   4.411   1.166   8.073  0.2417 -0.0623  0.4882
63607SOL     OW 2545  10.929  11.109   5.590  0.7539  0.2370 -0.1564
63607SOL    HW1 2546  10.956  11.169   5.521 -0.8440  1.7707  0.4820
63607SOL    HW2 2547  10.940  11.159   5.671 -3.3075  0.8815  0.2094
63608SOL     OW 2548   0.763  12.604  10.705 -0.1548 -0.1281 -0.0534
63608SOL    HW1 2549   0.687  12.623  10.651  0.4639 -1.0899 -1.3270
63608SOL    HW2 2550   0.764  12.673  10.771 -1.3845  0.6338 -0.7958
63609SOL     OW 2551  13.331   9.828   5.997  0.1152  0.1137  0.2071
63609SOL    HW1 2552  13.275   9.782   5.935 -0.1123  1.8069 -0.9218
63609SOL    HW2 2553  13.283   9.909   6.017  1.9092  1.4208 -0.4834
63610SOL     OW 2554  11.766   5.819  11.786 -0.3915 -0.8823  0.3861
63610SOL    HW1 2555  11.744   5.760  11.858  0.8412  1.1926  2.5868
63610SOL    HW2 2556  11.769   5.906  11.826  0.7619  0.3247 -2.1100
63611SOL     OW 2557   6.350   8.954   4.392 -0.3321 -0.1253  0.9288
63611SOL    HW1 2558   6.260   8.935   4.364 -0.2647 -0.1807  0.7489
63611SOL    HW2 2559   6.394   8.986   4.313  1.1622 -4.5718 -0.3386
63612SOL     OW 2560   9.665   7.346   7.075  0.0463 -0.4342 -0.2181
63612SOL    HW1 2561   9.667   7.398   7.156  1.4212  0.9534 -1.0808
63612SOL    HW2 2562   9.600   7.389   7.020 -0.5760 -1.1186 -0.0326
63613SOL     OW 2563  12.331   8.174  11.820  0.1665  0.0755  0.5469
63613SOL    HW1 2564  12.266   8.118  11.861  0.6087 -0.7626  0.1252
63613SOL    HW2 2565  12.405   8.174  11.880  0.0682  0.4279  0.6719
63614SOL     OW 2566   7.486  12.353   0.961  0.8631  0.0555  0.3064
63614SOL    HW1 2567   7.438  12.398   1.032  1.9899  0.4198  0.8602
63614SOL    HW2 2568   7.503  12.266   0.996 -0.4100 -0.4770 -0.3590
63615SOL     OW 2569   2.461   4.196  10.489  0.6762  0.3847  0.0757
63615SOL    HW1 2570   2.536   4.255  10.492  0.2999  0.8918 -0.3799
63615SOL    HW2 2571   2.459   4.156  10.577  1.0024  0.9499  0.3477
63616SOL     OW 2572  13.105   8.404   3.446 -0.2439 -0.1297 -0.0916
63616SOL    HW1 2573  13.127   8.432   3.535  1.4430 -1.7946  0.0873
63616SOL    HW2 2574  13.017   8.368   3.452 -1.1953  2.1187  0.3095
63617SOL     OW 2575   8.764   9.066   2.452  0.1549 -0.1256 -0.1310
63617SOL    HW1 2576   8.822   8.993   2.475  0.5586  0.8954  2.4352
63617SOL    HW2 2577   8.824   9.137   2.430 -0.2234 -0.1094 -1.1541
63618SOL     OW 2578  11.514   0.664  12.495  0.3550  0.7185  0.3933
63618SOL    HW1 2579  11.542   0.575  12.517 -0.1997  0.7664  1.3633
63618SOL    HW2 2580  11.442   0.651  12.433 -0.6647  0.4070  1.5865
63619SOL     OW 2581   0.715  12.588  13.048  0.3979 -0.4053  0.4958
63619SOL    HW1 2582   0.670  12.612  13.129  0.2763  0.6167  0.1344
63619SOL    HW2 2583   0.664  12.515  13.014 -0.2195 -0.1106  0.7688
63620SOL     OW 2584   8.907   9.186   3.658  0.4063  0.7969 -0.3538
63620SOL    HW1 2585   8.843   9.253   3.684  0.3087  0.5164  0.1502
63620SOL    HW2 2586   8.977   9.235   3.616  0.2030  1.1886 -0.2427
63621SOL     OW 2587   8.444   4.292   1.224 -0.0954 -0.0348  0.8059
63621SOL    HW1 2588   8.533   4.324   1.243  0.4219  0.2403 -1.6991
63621SOL    HW2 2589   8.407   4.358   1.166 -0.3927 -2.0484 -1.4555
63622SOL     OW 2590   3.213  11.076   0.021 -0.0045  0.2303 -0.1170
63622SOL    HW1 2591   3.279  11.009   0.003 -0.5688 -0.1026 -1.0146
63622SOL    HW2 2592   3.131  11.027   0.028 -0.1553  0.6312  1.0547
63623SOL     OW 2593   9.951   2.203   4.277  0.5209 -0.8790  0.3161
63623SOL    HW1 2594   9.863   2.208   4.314 -0.0191  0.8765 -1.1114
63623SOL    HW2 2595   9.973   2.110   4.282 -0.8536 -1.1758  1.9043
63624SOL     OW 2596   9.923   1.022   9.203 -0.1043  0.1096 -0.3396
63624SOL    HW1 2597   9.924   0.981   9.290 -1.0414  1.7868  0.5131
63624SOL    HW2 2598  10.013   1.054   9.191 -0.3005  1.1274  0.6805
63625SOL     OW 2599  10.228  11.788  13.741  0.2529 -0.4992  0.4044
63625SOL    HW1 2600  10.280  11.750  13.671  0.2406 -0.2226  0.2435
63625SOL    HW2 2601  10.276  11.766  13.821  0.4928 -0.4505  0.2764
63626SOL     OW 2602  10.344  11.231   2.941  0.2229  0.7547 -0.2292
63626SOL    HW1 2603  10.332  11.208   3.033 -0.2898  0.3844 -0.3846
63626SOL    HW2 2604  10.300  11.315   2.931  0.7737  1.0729 -0.0091
63627SOL     OW 2605   2.885   3.192   2.813 -0.5733  0.2315  0.0172
63627SOL    HW1 2606   2.952   3.243   2.768 -1.2984  1.1259 -0.0775
63627SOL    HW2 2607   2.855   3.128   2.749  1.4568 -1.4338  0.6196
63628SOL     OW 2608   7.788  12.776  10.211  0.0684  0.3538  0.4558
63628SOL    HW1 2609   7.858  12.826  10.168  0.9740  0.1713  1.6603
63628SOL    HW2 2610   7.822  12.686  10.215 -0.5402  0.1179  0.4192
63629SOL     OW 2611   2.198   9.537   1.563 -0.0769 -0.3032 -0.5139
63629SOL    HW1 2612   2.182   9.471   1.496 -1.6372  0.1687 -0.6492
63629SOL    HW2 2613   2.128   9.602   1.550 -1.1917 -0.7943  2.2840
63630SOL     OW 2614   8.026  13.036   9.016 -0.0456 -0.0245  0.0808
63630SOL    HW1 2615   8.094  12.969   9.010  0.5939  0.6432 -0.3976
63630SOL    HW2 2616   8.047  13.098   8.946  0.7543  1.9254  1.9289
63631SOL     OW 2617   1.828   0.242  11.885  0.1318 -0.7577  0.5453
63631SOL    HW1 2618   1.782   0.319  11.916  1.1597  0.2610 -0.3401
63631SOL    HW2 2619   1.885   0.216  11.957 -0.8294 -1.2130  1.1495
63632SOL     OW 2620   7.322  13.283   4.034 -0.2260 -0.0565  0.1166
63632SOL    HW1 2621   7.369  13.289   3.950 -0.9865 -0.4360 -0.3467
63632SOL    HW2 2622   7.340  13.195   4.065  1.4777  0.6397  1.2289
63633SOL     OW 2623   1.562  13.198   9.092 -0.0081 -0.6367  0.5901
63633SOL    HW1 2624   1.490  13.135   9.087  0.1101 -0.7912  0.8573
63633SOL    HW2 2625   1.626  13.166   9.028 -0.3312 -0.2971  0.0822
63634SOL     OW 2626   8.420   0.934   9.629  0.3111  0.1702  0.2113
63634SOL    HW1 2627   8.499   0.893   9.593  0.8364  0.5185  0.9444
63634SOL    HW2 2628   8.350   0.905   9.571  0.6837 -1.6377  0.5952
63635SOL     OW 2629  10.372   6.246   2.467  0.4647  0.3710  0.4397
63635SOL    HW1 2630  10.420   6.276   2.390  0.9867 -2.9226 -0.7078
63635SOL    HW2 2631  10.431   6.260   2.540  2.0380 -0.9046 -0.5260
63636SOL     OW 2632   2.186   5.360  11.429  0.1394  0.2276 -0.1953
63636SOL    HW1 2633   2.165   5.398  11.343  0.8766  0.0601 -0.4588
63636SOL    HW2 2634   2.217   5.434  11.481  0.7222  0.1473 -0.4225
63637SOL     OW 2635   4.256   2.559   8.527  0.1060  0.3141 -0.0806
63637SOL    HW1 2636   4.264   2.545   8.433  0.1027  0.5641 -0.1183
63637SOL    HW2 2637   4.241   2.471   8.563 -3.1480  0.5116 -0.6469
63638SOL     OW 2638   2.506  10.307  10.209 -0.0958  0.1219 -0.1062
63638SOL    HW1 2639   2.538  10.378  10.266  2.0274 -0.5100 -0.4299
63638SOL    HW2 2640   2.413  10.303  10.228  0.0872  1.6182  1.4701
63639SOL     OW 2641   3.625   5.033   9.231  0.5769 -0.8192  0.2756
63639SOL    HW1 2642   3.631   4.945   9.268 -0.6766  0.3199  3.5379
63639SOL    HW2 2643   3.535   5.060   9.250  1.0510  1.3295 -0.3325
63640SOL     OW 2644   2.350   6.131   0.297  0.7048 -0.1364 -0.4337
63640SOL    HW1 2645   2.297   6.053   0.283 -0.6996  0.8024 -0.5483
63640SOL    HW2 2646   2.319   6.193   0.231  0.2530  1.2613  1.0315
63641SOL     OW 2647   1.622   6.919  13.674  0.6182  0.2411 -0.1763
63641SOL    HW1 2648   1.644   6.899  13.583  1.9750 -0.8070  0.3403
63641SOL    HW2 2649   1.560   6.851  13.699 -0.0391  0.7468 -0.4174
63642SOL     OW 2650  12.323   5.535   1.889  0.0481 -0.2595 -0.4812
63642SOL    HW1 2651  12.254   5.513   1.826  0.7199  0.2101 -1.4153
63642SOL    HW2 2652  12.320   5.464   1.954 -0.6915 -0.7444 -1.0269
63643SOL     OW 2653   9.752   9.477   0.572  0.3916 -0.0914 -0.1899
63643SOL    HW1 2654   9.667   9.441   0.596  0.4258  0.2744  0.5182
63643SOL    HW2 2655   9.811   9.401   0.571  0.0335 -0.3624 -0.8093
63644SOL     OW 2656   1.226   5.925   4.333  0.2986  0.3138  0.1882
63644SOL    HW1 2657   1.227   5.874   4.413  0.3235  1.3811  0.8920
63644SOL    HW2 2658   1.287   5.880   4.275  1.0463  0.0757  1.1338
63645SOL     OW 2659  10.583  12.757   1.252 -0.3857  0.2464 -0.5061
63645SOL    HW1 2660  10.638  12.762   1.330  0.2176 -1.2113 -0.8226
63645SOL    HW2 2661  10.499  12.794   1.281 -0.3681 -0.7959  1.0048
63646SOL     OW 2662   7.829  10.884   4.385 -0.3393  0.5670  0.7721
63646SOL    HW1 2663   7.823  10.793   4.414  0.8257  0.0135 -0.6184
63646SOL    HW2 2664   7.873  10.929   4.457  1.8055 -0.6274  0.3079
63647SOL     OW 2665   6.178  13.290   8.630  0.2550 -0.0541  0.6561
63647SOL    HW1 2666   6.272  13.276   8.622  0.1783 -1.9364  2.1787
63647SOL    HW2 2667   6.140  13.247   8.554  0.6230  1.1416 -0.2263
63648SOL     OW 2668   3.209   5.710  11.999  0.2229 -0.2561 -0.5743
63648SOL    HW1 2669   3.267   5.785  12.015 -0.3183  0.2862 -1.0782
63648SOL    HW2 2670   3.124   5.749  11.983 -0.2836 -1.0516  0.1252
63649SOL     OW 2671   4.476  10.090   0.877 -0.0344  0.2036 -0.1500
63649SOL    HW1 2672   4.441  10.001   0.888  0.3789 -0.1542 -1.5014
63649SOL    HW2 2673   4.518  10.088   0.791 -0.7602  1.9542 -0.5948
63650SOL     OW 2674   5.587  12.995  10.423 -0.3959  0.2716  0.0637
63650SOL    HW1 2675   5.495  12.967  10.424 -0.3322  0.0616 -0.0934
63650SOL    HW2 2676   5.635  12.921  10.386 -0.0229 -0.0459  1.1189
63651SOL     OW 2677   0.300  12.787   2.689 -0.3144  0.0521 -0.9344
63651SOL    HW1 2678   0.259  12.833   2.615 -0.3026  2.4440  0.4235
63651SOL    HW2 2679   0.226  12.763   2.745 -0.1277  1.6993  0.0755
63652SOL     OW 2680   1.966  11.832   6.013 -1.0478  0.0307  0.2014
63652SOL    HW1 2681   1.972  11.737   6.021 -2.7021 -0.0834  0.3373
63652SOL    HW2 2682   1.965  11.848   5.919  0.5151  0.0455  0.1524
63653SOL     OW 2683   0.587   4.047   3.775 -0.2057  0.4622  0.0505
63653SOL    HW1 2684   0.520   4.022   3.839  0.3869  2.7798  1.7132
63653SOL    HW2 2685   0.564   3.999   3.696 -1.0924 -2.4145  1.8977
63654SOL     OW 2686   5.239   2.364   2.854 -0.1503 -0.1559  0.7007
63654SOL    HW1 2687   5.224   2.326   2.768 -1.0512  1.3800  0.1458
63654SOL    HW2 2688   5.334   2.375   2.859  0.0700 -1.7726  0.6100
63655SOL     OW 2689   2.049   7.063   2.388  0.6447  0.1779  0.1666
63655SOL    HW1 2690   2.127   7.116   2.405  0.6675 -0.2951  1.6819
63655SOL    HW2 2691   2.043   7.005   2.464  0.0627 -1.3216 -0.9799
63656SOL     OW 2692   1.463   7.626   0.700  0.0079 -0.3132 -0.3304
63656SOL    HW1 2693   1.420   7.540   0.705 -0.1619 -0.1432  1.5523
63656SOL    HW2 2694   1.546   7.608   0.656 -0.3053 -1.3168 -0.5461
63657SOL     OW 2695   7.539   4.907   6.335  0.2347 -0.0439 -0.5866
63657SOL    HW1 2696   7.495   4.975   6.285  0.0651 -0.0478 -0.4441
63657SOL    HW2 2697   7.506   4.917   6.424 -1.4025 -1.6172 -0.9543
63658SOL     OW 2698   8.291   9.036  13.723 -0.4978  0.0764  0.2860
63658SOL    HW1 2699   8.319   9.006  13.636  0.2439  0.2063  0.4707
63658SOL    HW2 2700   8.344   9.114  13.739  1.0001 -1.1596  1.7610
63659SOL     OW 2701   9.426   6.765   2.376 -0.3245  0.1475  0.3722
63659SOL    HW1 2702   9.378   6.706   2.317  0.7652 -0.9857  0.5683
63659SOL    HW2 2703   9.494   6.802   2.322 -0.3271  0.3742  0.5246
63660SOL     OW 2704   9.014  13.222   1.776 -0.3432 -0.8796 -0.0945
63660SOL    HW1 2705   9.073  13.153   1.805 -0.2804 -0.9297 -0.3401
63660SOL    HW2 2706   8.995  13.272   1.855 -0.2605 -1.0804  0.0537
63661SOL     OW 2707   4.129  11.153   8.387 -0.3348 -0.0368 -0.1236
63661SOL    HW1 2708   4.165  11.238   8.361 -1.2742 -0.0811 -1.6558
63661SOL    HW2 2709   4.058  11.175   8.447 -0.0509  0.2072  0.1298
63662SOL     OW 2710   3.700   4.520   0.010 -0.2103 -0.1839 -0.6220
63662SOL    HW1 2711   3.775   4.575   0.034 -0.2333 -0.3656 -0.1003
63662SOL    HW2 2712   3.651   4.572  -0.053 -0.6899  0.7642  0.4831
63663SOL     OW 2713  12.035  11.405  13.502  0.1851 -0.3426  0.2965
63663SOL    HW1 2714  12.000  11.409  13.591 -0.1469  0.2132  0.1423
63663SOL    HW2 2715  12.085  11.323  13.500  0.3937 -0.2416  1.0631
63664SOL     OW 2716  11.066   1.507  10.837  0.3123 -0.2982 -0.2251
63664SOL    HW1 2717  11.113   1.424  10.845  0.7525 -0.0004  0.3697
63664SOL    HW2 2718  11.106   1.564  10.903  0.7972  0.7463 -1.3836
63665SOL     OW 2719   8.540   5.017   8.862  0.2076 -0.1200 -0.3867
63665SOL    HW1 2720   8.531   4.922   8.870  1.1621 -0.0503  3.2564
63665SOL    HW2 2721   8.471   5.052   8.918  1.1435  1.2437 -0.0468
63666SOL     OW 2722   3.970   0.657   1.391  0.8848  0.1119  0.2655
63666SOL    HW1 2723   3.988   0.589   1.456  1.0593  0.4117  0.5346
63666SOL    HW2 2724   4.023   0.731   1.418 -0.9364  1.1368  1.2524
63667SOL     OW 2725   2.719   6.503   7.871 -0.1582 -0.6574  0.3222
63667SOL    HW1 2726   2.623   6.507   7.867 -0.3054 -2.8951  0.5151
63667SOL    HW2 2727   2.746   6.490   7.781 -0.3003 -3.1066  0.5624
63668SOL     OW 2728  13.248   7.759   0.090  0.3791 -0.1687  0.1360
63668SOL    HW1 2729  13.344   7.764   0.090  0.4061 -0.1542  1.5112
63668SOL    HW2 2730  13.221   7.825   0.154 -0.4537 -1.2539  0.9601
63669SOL     OW 2731   1.485   0.147   6.484 -0.5100  0.1249  0.4274
63669SOL    HW1 2732   1.572   0.146   6.523 -0.2395  1.4408 -0.0998
63669SOL    HW2 2733   1.485   0.072   6.424  0.9620  1.2374 -1.0366
63670SOL     OW 2734   5.197  11.991  10.566  0.0198  0.2311  0.2146
63670SOL    HW1 2735   5.227  12.033  10.485 -0.3834  0.0622 -0.0304
63670SOL    HW2 2736   5.238  12.041  10.636  0.0540  0.6374 -0.0874
63671SOL     OW 2737  12.868  11.437  10.618 -0.5052 -0.0553 -0.0558
63671SOL    HW1 2738  12.921  11.372  10.665 -0.5701 -0.7674 -0.9415
63671SOL    HW2 2739  12.791  11.389  10.588 -0.5765  0.4406 -0.6969
63672SOL     OW 2740   3.037  11.398  10.244  0.5123  0.6553 -0.0688
63672SOL    HW1 2741   3.085  11.316  10.242 -0.2297  0.2254 -0.7282
63672SOL    HW2 2742   3.105  11.466  10.241  1.0767  0.0678 -1.2716
63673SOL     OW 2743  12.065   2.832  10.163  0.1742 -0.4135 -0.0385
63673SOL    HW1 2744  12.052   2.796  10.076 -1.2768 -2.3874  0.9392
63673SOL    HW2 2745  12.047   2.926  10.153  0.7104 -0.4720 -1.9561
63674SOL     OW 2746   7.286   4.678  12.354  0.0447 -0.6167  0.0770
63674SOL    HW1 2747   7.303   4.670  12.448  0.7653 -1.0262 -0.0842
63674SOL    HW2 2748   7.359   4.730  12.321 -1.4536  1.6236  0.1181
63675SOL     OW 2749   6.580   7.727   4.866  0.0903 -0.0006 -0.5165
63675SOL    HW1 2750   6.584   7.786   4.941  0.1584 -1.7645  0.9327
63675SOL    HW2 2751   6.643   7.657   4.886 -0.9493 -1.2897 -1.5182
63676SOL     OW 2752  10.429   8.473   2.903  0.0173  0.1939 -0.1588
63676SOL    HW1 2753  10.380   8.449   2.982 -2.4194  0.2113 -1.5932
63676SOL    HW2 2754  10.434   8.393   2.852  0.7154  0.4251 -0.4677
63677SOL     OW 2755  12.890  12.547  11.080 -0.1208  0.3774  0.0073
63677SOL    HW1 2756  12.963  12.509  11.129 -0.2733  2.3437  1.9503
63677SOL    HW2 2757  12.875  12.486  11.008  3.4802 -0.0804 -0.5668
63678SOL     OW 2758  11.243   3.902   1.090 -0.2304 -0.0407 -0.0231
63678SOL    HW1 2759  11.315   3.914   1.152 -0.3710 -2.2052  0.6420
63678SOL    HW2 2760  11.174   3.859   1.141 -1.5552  0.8884 -0.9531
63679SOL     OW 2761   4.613  12.904   2.849  0.3361  0.0409 -0.2153
63679SOL    HW1 2762   4.668  12.867   2.780  0.5458 -0.3203  0.1415
63679SOL    HW2 2763   4.523  12.893   2.818  0.4261 -0.2099 -0.3822
63680SOL     OW 2764  11.242   6.020   8.502 -0.5241 -0.1146  0.0157
63680SOL    HW1 2765  11.153   6.023   8.536  0.5176  0.9769  2.9682
63680SOL    HW2 2766  11.291   5.968   8.566  0.8867 -1.1555 -1.8155
63681SOL     OW 2767  13.704   8.195   0.942 -0.3248  0.0333 -0.7143
63681SOL    HW1 2768  13.753   8.237   1.014  0.0611  0.1776 -1.0548
63681SOL    HW2 2769  13.661   8.120   0.983  0.0372  0.0108 -0.3664
63682SOL     OW 2770   2.688  13.259  11.249  0.5149  0.2054 -0.0857
63682SOL    HW1 2771   2.655  13.308  11.173 -0.9452  0.1295  0.4715
63682SOL    HW2 2772   2.609  13.227  11.293  1.3697 -0.4740  0.9993
63683SOL     OW 2773   3.948  12.739   0.107 -0.1351 -0.2631  0.0324
63683SOL    HW1 2774   3.879  12.712   0.046 -0.5388 -0.5718  0.6130
63683SOL    HW2 2775   4.030  12.722   0.060 -0.4518  0.3344 -0.7583
63684SOL     OW 2776   3.974  13.364  12.294 -0.0235 -0.3937  0.1502
63684SOL    HW1 2777   4.065  13.372  12.265 -0.0483 -1.1371 -0.1441
63684SOL    HW2 2778   3.961  13.438  12.354  0.5389  0.1594 -0.4058
63685SOL     OW 2779   7.563   4.124  12.516 -0.2196 -0.6022  0.1188
63685SOL    HW1 2780   7.637   4.063  12.518  0.9458  0.7938  0.9144
63685SOL    HW2 2781   7.577   4.176  12.437 -0.3009 -0.2574  0.3327
63686SOL     OW 2782   1.384  12.168  12.066 -0.0791  0.1684  0.1423
63686SOL    HW1 2783   1.401  12.157  12.160 -0.1071 -1.2207 -0.0019
63686SOL    HW2 2784   1.462  12.132  12.023 -0.3745  0.1452 -0.3833
63687SOL     OW 2785  13.099  13.633   1.370 -0.5615  0.1579 -0.3335
63687SOL    HW1 2786  13.063  13.604   1.286 -4.0516 -1.0501  1.3707
63687SOL    HW2 2787  13.101  13.729   1.363  2.5704  0.0700 -2.8755
63688SOL     OW 2788  12.703  12.168   7.602 -0.2045 -0.2200 -0.3138
63688SOL    HW1 2789  12.680  12.085   7.646 -0.8791  0.0848 -0.0787
63688SOL    HW2 2790  12.797  12.160   7.585 -0.1001 -0.7042  0.4261
63689SOL     OW 2791  10.739   2.618  13.584  0.1709 -0.6153  0.1516
63689SOL    HW1 2792  10.833   2.603  13.590 -0.3265 -4.5777  1.2792
63689SOL    HW2 2793  10.708   2.607  13.674 -1.3951  0.6458 -0.1911
63690SOL     OW 2794   0.569   4.858   0.439 -0.3089 -0.2503 -0.1392
63690SOL    HW1 2795   0.500   4.842   0.503  0.0243  0.2801  0.3645
63690SOL    HW2 2796   0.537   4.933   0.388 -0.1833 -0.1038 -0.0063
63691SOL     OW 2797   6.974   5.317  10.006  0.2763 -0.1595  0.0647
63691SOL    HW1 2798   6.961   5.336   9.913 -0.7693  0.9062  0.3951
63691SOL    HW2 2799   6.888   5.329  10.045  0.9374  0.6347  1.3609
63692SOL     OW 2800   0.790   8.044  11.938 -0.2304 -0.1290 -0.3282
63692SOL    HW1 2801   0.880   8.013  11.929  0.0683  0.7870 -0.6412
63692SOL    HW2 2802   0.736   7.969  11.910  0.2305 -1.9515  3.0850
63693SOL     OW 2803   7.187   8.116   8.462  0.4442 -0.1214  0.1983
63693SOL    HW1 2804   7.172   8.180   8.532 -0.7961 -0.7010  0.4872
63693SOL    HW2 2805   7.115   8.130   8.401  1.4685  0.3129 -0.9494
63694SOL     OW 2806   8.225  10.915   8.065  0.2143 -0.5487  0.3835
63694SOL    HW1 2807   8.144  10.966   8.066  0.5739  0.0143  1.6835
63694SOL    HW2 2808   8.195  10.825   8.048 -0.7951 -0.4995  1.7227
63695SOL     OW 2809  13.072   1.765   3.147 -0.1753 -0.2799  0.2888
63695SOL    HW1 2810  13.163   1.759   3.176  0.0205 -0.7879 -0.4126
63695SOL    HW2 2811  13.056   1.859   3.138  1.4298 -0.1744 -3.0767
63696SOL     OW 2812  10.614  10.619   7.948 -0.2888  0.2534 -0.1388
63696SOL    HW1 2813  10.661  10.674   8.012  2.0057 -0.6985 -0.8992
63696SOL    HW2 2814  10.679  10.599   7.881 -1.7931 -1.2474 -1.2385
63697SOL     OW 2815   0.849   9.151   0.018 -0.1315  0.6934 -0.5397
63697SOL    HW1 2816   0.790   9.110  -0.045  0.1451  0.0310 -0.3826
63697SOL    HW2 2817   0.815   9.240   0.029 -2.5140 -0.3163  1.2662
63698SOL     OW 2818   8.010  13.454   2.808  0.0667 -0.1772 -0.1949
63698SOL    HW1 2819   8.080  13.519   2.815 -1.3265  1.2237  1.9209
63698SOL    HW2 2820   7.950  13.490   2.742 -0.0126 -0.0274 -0.0399
63699SOL     OW 2821   3.467   3.177   5.206 -0.5938  0.3914 -0.3061
63699SOL    HW1 2822   3.415   3.146   5.280 -1.1210 -0.3181 -0.9691
63699SOL    HW2 2823   3.533   3.234   5.247  0.4720 -1.6367  0.9846
63700SOL     OW 2824  11.283   9.817   6.423 -0.5664 -0.1107  0.5476
63700SOL    HW1 2825  11.367   9.779   6.449  0.1287  1.7540  1.1879
63700SOL    HW2 2826  11.277   9.798   6.329  1.1662  0.7427  0.2241
63701SOL     OW 2827   1.181   8.477   8.275  0.4738  0.4003 -0.5256
63701SOL    HW1 2828   1.200   8.550   8.216  1.6152  0.3232 -0.2673
63701SOL    HW2 2829   1.266   8.439   8.295  0.0066 -0.2131  0.3627
63702SOL     OW 2830   0.961   1.352   6.539 -0.2153  0.6547  0.2126
63702SOL    HW1 2831   0.904   1.428   6.532 -0.3803  0.4839 -0.3409
63702SOL    HW2 2832   1.044   1.380   6.500 -1.3171 -0.4835 -3.3530
63703SOL     OW 2833  12.116   5.085   8.364  0.2048  0.2199  0.3066
63703SOL    HW1 2834  12.070   5.153   8.315 -0.3922  0.0883  0.6775
63703SOL    HW2 2835  12.049   5.018   8.381  0.3397  0.3739  1.5056
63704SOL     OW 2836   9.110   7.762   9.885 -0.2911 -0.3226 -0.4083
63704SOL    HW1 2837   9.017   7.757   9.906  0.0081 -0.3812  0.9756
63704SOL    HW2 2838   9.151   7.694   9.938  0.8311  1.2533  0.8639
63705SOL     OW 2839  12.233   4.705  11.124  0.2097  0.7475 -0.2579
63705SOL    HW1 2840  12.229   4.722  11.030 -3.1511  1.9945 -0.0233
63705SOL    HW2 2841  12.175   4.630  11.138  0.6569  0.5857  0.8152
63706SOL     OW 2842   7.136   3.238   2.393 -0.3624 -0.1232  0.3684
63706SOL    HW1 2843   7.171   3.271   2.310 -2.4366  1.4849  0.0491
63706SOL    HW2 2844   7.200   3.267   2.459  0.1925  0.5361 -0.4385
63707SOL     OW 2845   3.945   7.498   5.709 -0.5086 -0.2033 -0.3567
63707SOL    HW1 2846   4.003   7.514   5.783 -2.0057  1.6298  0.4987
63707SOL    HW2 2847   3.880   7.436   5.743 -1.0791  0.4812 -0.1849
63708SOL     OW 2848   9.306   0.373  12.798  0.4018 -0.4276 -0.6086
63708SOL    HW1 2849   9.327   0.443  12.736  0.0124  0.5915  0.3884
63708SOL    HW2 2850   9.383   0.316  12.797  1.1591  0.5713 -0.6776
63709SOL     OW 2851  12.034   6.214   1.827 -0.0445 -0.3023  0.5194
63709SOL    HW1 2852  11.944   6.244   1.822 -0.0654  0.1929  2.7927
63709SOL    HW2 2853  12.081   6.268   1.764 -0.7063  2.1678  1.9883
63710SOL     OW 2854   8.316   9.042   4.560 -0.2778 -0.0801  0.3258
63710SOL    HW1 2855   8.409   9.026   4.570 -0.1744  0.3186  0.0348
63710SOL    HW2 2856   8.274   8.959   4.582  0.1382 -0.2358  0.5320
63711SOL     OW 2857   3.423   5.001   4.781  0.0359  0.1270  0.3158
63711SOL    HW1 2858   3.471   5.072   4.739 -2.1123  1.4832 -0.0466
63711SOL    HW2 2859   3.369   5.045   4.847 -0.3449 -1.3600  1.0379
63712SOL     OW 2860   6.903   8.728   2.761 -0.7995  0.3905 -0.1399
63712SOL    HW1 2861   6.945   8.756   2.843  1.1741 -2.4699  0.0032
63712SOL    HW2 2862   6.815   8.701   2.787 -0.6826  0.8536  0.7678
63713SOL     OW 2863  13.621   6.970   0.594 -0.0219  0.2320  0.4406
63713SOL    HW1 2864  13.664   7.010   0.519 -1.0278  1.7328  0.6262
63713SOL    HW2 2865  13.620   7.037   0.661 -0.1529 -0.7133  1.4137
63714SOL     OW 2866   4.374  11.405   3.384 -0.4887  0.1443 -0.3829
63714SOL    HW1 2867   4.364  11.455   3.303 -1.6220 -0.3231 -0.5493
63714SOL    HW2 2868   4.316  11.330   3.373 -1.8733  0.8747  1.4841
63715SOL     OW 2869   3.121   9.689   6.682 -0.0150 -0.1594 -0.2606
63715SOL    HW1 2870   3.124   9.781   6.656  0.1814 -0.1682 -0.2738
63715SOL    HW2 2871   3.046   9.653   6.636 -0.4662  0.1426  0.2236
63716SOL     OW 2872   3.842  11.016  13.507  0.4408  0.0549 -0.1729
63716SOL    HW1 2873   3.775  10.988  13.445 -0.4571  0.5840  0.5253
63716SOL    HW2 2874   3.817  11.105  13.531 -0.5001 -0.8127  2.5140
63717SOL     OW 2875   3.259  12.406  10.343  0.0675  0.1116  0.3081
63717SOL    HW1 2876   3.228  12.325  10.303 -0.5150  0.2803  0.4081
63717SOL    HW2 2877   3.324  12.378  10.407  2.4634 -0.0747 -2.0073
63718SOL     OW 2878   7.543   0.496   7.159 -0.3500  0.6397 -0.0972
63718SOL    HW1 2879   7.459   0.461   7.188 -0.7601  0.7059 -1.1328
63718SOL    HW2 2880   7.565   0.562   7.224 -0.5649 -0.1286  0.7685
63719SOL     OW 2881   0.043   0.363  12.084  0.1345 -0.0544  0.4928
63719SOL    HW1 2882   0.000   0.312  12.154  1.7013 -1.4307  0.4989
63719SOL    HW2 2883  -0.015   0.438  12.071 -1.9233 -1.4653  0.9698
63720SOL     OW 2884  11.911   6.900   0.151  0.4122  0.1125 -0.0577
63720SOL    HW1 2885  11.849   6.932   0.217 -0.5490 -2.8221  0.6190
63720SOL    HW2 2886  11.992   6.948   0.169 -0.3332  0.6617  2.1550
63721SOL     OW 2887   6.177   2.043  12.704  0.1573 -0.2566  0.0023
63721SOL    HW1 2888   6.261   2.002  12.679  0.4365  0.9021 -1.0500
63721SOL    HW2 2889   6.120   2.026  12.629 -0.2090 -0.0545  0.2358
63722SOL     OW 2890   5.168  10.178  10.084 -0.1476 -0.4097 -0.2935
63722SOL    HW1 2891   5.234  10.157  10.150 -1.9477 -1.7317  1.2047
63722SOL    HW2 2892   5.088  10.193  10.135 -1.1532  0.5295 -2.0703
63723SOL     OW 2893   3.701   0.417   8.654  0.3711 -0.0720  0.2692
63723SOL    HW1 2894   3.766   0.356   8.619 -0.3927  0.7209 -2.8510
63723SOL    HW2 2895   3.729   0.503   8.623 -1.7433  0.3733 -0.5746
63724SOL     OW 2896  11.030   1.361   7.664  0.3372 -0.0915 -0.4179
63724SOL    HW1 2897  11.014   1.338   7.755 -1.8094  1.0422 -0.4504
63724SOL    HW2 2898  11.076   1.445   7.667  1.2396 -0.5695 -0.4019
63725SOL     OW 2899   1.803   0.647   8.999 -0.2532  0.2404 -0.0623
63725SOL    HW1 2900   1.829   0.641   8.907 -1.2813  0.0164 -0.3514
63725SOL    HW2 2901   1.787   0.741   9.013  1.0466  0.4326  0.2266
63726SOL     OW 2902   9.795   0.222  11.457  0.2270 -0.0329 -0.2199
63726SOL    HW1 2903   9.840   0.153  11.409  1.0866  1.4253 -1.6091
63726SOL    HW2 2904   9.863   0.261  11.513 -0.9111 -2.2243  3.0068
63727SOL     OW 2905   9.930  11.977   3.834 -0.1383  0.0350 -0.4545
63727SOL    HW1 2906  10.022  12.004   3.835 -0.9829  3.2954  0.1484
63727SOL    HW2 2907   9.891  12.022   3.908 -2.7515  0.9297 -2.2612
63728SOL     OW 2908   9.408  12.800   0.094 -0.9140 -0.5005 -0.0957
63728SOL    HW1 2909   9.428  12.729   0.155 -0.9905  0.3043  0.8891
63728SOL    HW2 2910   9.376  12.755   0.015  0.2044 -1.5983  0.0376
63729SOL     OW 2911   9.427  11.058   0.381 -0.0794  0.3138  0.0932
63729SOL    HW1 2912   9.349  11.089   0.335 -0.9488  0.8004  1.7981
63729SOL    HW2 2913   9.494  11.122   0.358  0.5271 -1.2996 -3.1481
63730SOL     OW 2914  10.367   2.475   3.701  0.6380  0.0737 -0.9346
63730SOL    HW1 2915  10.303   2.429   3.755  0.3312 -0.9410 -2.1017
63730SOL    HW2 2916  10.433   2.506   3.763  0.3559 -1.1352  0.0091
63731SOL     OW 2917   3.040   3.352  12.019 -0.2734 -0.9740 -0.1296
63731SOL    HW1 2918   3.130   3.370  12.044 -0.4708 -2.2229  1.6156
63731SOL    HW2 2919   3.045   3.274  11.963 -0.2505 -0.8474 -0.3055
63732SOL     OW 2920   9.406   4.662  10.177 -0.2246  0.1579 -0.1660
63732SOL    HW1 2921   9.415   4.714  10.256 -0.1814  0.1055 -0.1359
63732SOL    HW2 2922   9.441   4.576  10.201 -0.8491 -0.0647 -0.0334
63733SOL     OW 2923   5.056   9.087   0.115 -0.6408 -0.2939  0.4541
63733SOL    HW1 2924   4.963   9.106   0.102 -1.1115  0.0727  3.4748
63733SOL    HW2 2925   5.092   9.083   0.027 -3.5790 -0.9015 -0.8582
63734SOL     OW 2926   0.131   1.129   3.337  0.0266  0.0629 -0.0773
63734SOL    HW1 2927   0.076   1.100   3.264 -1.9854  2.2558  0.4224
63734SOL    HW2 2928   0.114   1.066   3.407 -1.2613  0.2234 -0.2157
63735SOL     OW 2929   4.251   7.533   6.494 -0.2248  0.0275  0.6445
63735SOL    HW1 2930   4.189   7.488   6.437 -1.6966  0.4956  1.7807
63735SOL    HW2 2931   4.334   7.488   6.482 -0.2349  0.6712 -2.4988
63736SOL     OW 2932  10.042  11.720   5.226 -0.0574 -0.1719 -0.2648
63736SOL    HW1 2933  10.039  11.780   5.152  0.9125 -0.0043 -0.1838
63736SOL    HW2 2934  10.032  11.633   5.187  1.7922 -0.1992 -0.7913
63737SOL     OW 2935   5.267   3.796  10.729 -0.1179  0.2895  0.1063
63737SOL    HW1 2936   5.207   3.818  10.800 -0.7540 -0.7923 -0.0700
63737SOL    HW2 2937   5.213   3.797  10.650  0.6127  1.6092 -0.4075
63738SOL     OW 2938   7.980   7.383   8.153 -0.0749  0.2190  0.2369
63738SOL    HW1 2939   7.902   7.405   8.102  0.4191  0.2091 -0.5286
63738SOL    HW2 2940   8.014   7.303   8.112  0.0917 -0.0361  0.8482
63739SOL     OW 2941  12.367   5.620   2.510  0.2769 -0.3390 -0.1665
63739SOL    HW1 2942  12.323   5.571   2.580 -1.0010  0.7900 -0.1237
63739SOL    HW2 2943  12.427   5.558   2.471  0.6127 -1.1635  1.5728
63740SOL     OW 2944   1.157   5.423   7.707 -0.2092  0.2835  0.2303
63740SOL    HW1 2945   1.224   5.372   7.752  1.2715  1.7215 -0.2389
63740SOL    HW2 2946   1.107   5.358   7.657 -0.0243 -0.9735  1.6086
63741SOL     OW 2947   2.935   3.211   7.155  0.0323  0.0428  0.1168
63741SOL    HW1 2948   2.861   3.264   7.185  0.2930 -1.0492  3.0618
63741SOL    HW2 2949   2.911   3.183   7.067 -2.2618  1.1421  0.3295
63742SOL     OW 2950   3.010   5.061  11.658  0.0992  0.2319  0.3075
63742SOL    HW1 2951   2.917   5.041  11.672  0.1901 -0.3393  0.1296
63742SOL    HW2 2952   3.022   5.146  11.699 -0.7245  0.7702 -0.5111
63743SOL     OW 2953   6.033   5.013  10.725  0.1114 -0.0555 -0.0442
63743SOL    HW1 2954   6.063   4.930  10.763  0.6263  0.1291 -0.0368
63743SOL    HW2 2955   5.944   5.023  10.756 -0.0345 -0.7245 -0.2310
63744SOL     OW 2956   2.003  11.430   5.675 -0.0069 -0.3741 -0.2977
63744SOL    HW1 2957   2.082  11.470   5.710 -0.8577  1.8809 -0.7588
63744SOL    HW2 2958   1.967  11.381   5.748  1.1858 -0.4310  0.2756
63745SOL     OW 2959   3.935   8.879   4.764 -0.1086 -0.4184 -0.6291
63745SOL    HW1 2960   4.007   8.914   4.711 -1.0227 -1.0916 -2.3884
63745SOL    HW2 2961   3.977   8.850   4.845  1.3487  0.6109 -0.9770
63746SOL     OW 2962   7.304   4.898  13.093  0.7521  0.2774  0.2219
63746SOL    HW1 2963   7.366   4.838  13.052  0.5655 -0.0521  0.4187
63746SOL    HW2 2964   7.350   4.982  13.094  0.0209  0.7978 -2.4673
63747SOL     OW 2965   4.941   4.744  13.193  0.6383  0.1936 -0.7082
63747SOL    HW1 2966   4.859   4.765  13.148  1.0117  0.5997 -1.1981
63747SOL    HW2 2967   4.927   4.655  13.226 -0.7987  1.0024  1.0405
63748SOL     OW 2968   5.491   6.302   4.187  0.4503  0.0917 -0.6815
63748SOL    HW1 2969   5.456   6.227   4.140 -0.1454  1.0772 -1.8806
63748SOL    HW2 2970   5.423   6.369   4.180  1.4053  1.1142 -0.6096
63749SOL     OW 2971  10.175   7.040   2.087  0.2634  0.4717 -0.4060
63749SOL    HW1 2972  10.227   7.078   2.158 -0.5331 -1.2103  1.1470
63749SOL    HW2 2973  10.237   6.987   2.037  0.4789  0.2371  0.1051
63750SOL     OW 2974  10.555   6.748   0.247 -0.4713 -0.2258  0.2487
63750SOL    HW1 2975  10.496   6.802   0.195  0.1385 -0.5023 -0.7708
63750SOL    HW2 2976  10.635   6.743   0.194  0.5882  0.3942  1.7160
63751SOL     OW 2977   9.710  10.056   4.697  0.0181  0.0799 -0.9969
63751SOL    HW1 2978   9.658  10.119   4.649 -0.6093 -0.4055 -0.9658
63751SOL    HW2 2979   9.784  10.037   4.640 -1.5293 -1.7034 -2.5297
63752SOL     OW 2980  11.990   5.317   3.443  0.2073  0.0751  0.1650
63752SOL    HW1 2981  11.997   5.376   3.368  0.0684  0.9076  0.8003
63752SOL    HW2 2982  11.899   5.322   3.470 -0.0854 -1.3117 -0.4656
63753SOL     OW 2983   0.937  11.554  12.471  0.4458 -0.2657  0.4311
63753SOL    HW1 2984   0.855  11.518  12.507  1.1021 -1.4896  0.7624
63753SOL    HW2 2985   0.998  11.553  12.545  0.5757  1.3262  0.3830
63754SOL     OW 2986   1.626   7.798   3.888 -0.2288 -0.4308  0.7204
63754SOL    HW1 2987   1.656   7.714   3.851 -0.3048 -0.1309 -0.0392
63754SOL    HW2 2988   1.622   7.857   3.812 -2.3744 -0.3436  0.8359
63755SOL     OW 2989   7.921  11.840   6.163 -0.0426  0.3470 -0.4611
63755SOL    HW1 2990   7.873  11.922   6.155 -1.5548 -0.2887  1.2679
63755SOL    HW2 2991   7.860  11.781   6.208  1.4649 -1.3251 -0.4745
63756SOL     OW 2992  11.480   8.860  13.405 -0.0448 -0.7239 -0.5659
63756SOL    HW1 2993  11.421   8.845  13.331 -0.0176 -1.6600 -0.4207
63756SOL    HW2 2994  11.539   8.929  13.377 -0.4402 -0.6320 -1.1749
63757SOL     OW 2995   3.731   5.265  11.075  0.0461  0.2319  0.0437
63757SOL    HW1 2996   3.782   5.334  11.032  0.9864  0.1699  1.0237
63757SOL    HW2 2997   3.740   5.189  11.017 -4.6224  1.9214 -3.4684
63758SOL     OW 2998   7.089   8.633   4.213  0.3691 -0.0857 -0.3617
63758SOL    HW1 2999   7.055   8.633   4.303  0.0393 -0.1972 -0.4849
63758SOL    HW2 3000   7.012   8.645   4.158  0.1236 -2.9689 -0.7932
63759SOL     OW 3001   1.901  13.670   3.238 -0.2546 -0.1555 -0.1597
63759SOL    HW1 3002   1.859  13.651   3.322 -2.2965 -1.2402 -1.3315
63759SOL    HW2 3003   1.943  13.587   3.213  0.1314  0.0864 -0.3235
63760SOL     OW 3004   9.276   0.198   0.424  0.5394  0.0538 -0.0708
63760SOL    HW1 3005   9.324   0.116   0.440  1.6232  0.6996  0.0388
63760SOL    HW2 3006   9.295   0.252   0.501  1.3010  1.0933 -0.9746
63761SOL     OW 3007   5.405   1.141   6.639  0.1321 -0.3514  0.7379
63761SOL    HW1 3008   5.341   1.091   6.690 -1.8606  0.9168 -0.4089
63761SOL    HW2 3009   5.380   1.126   6.548 -0.4510  2.5411  0.3360
63762SOL     OW 3010  12.160   7.345  10.085 -0.6184  0.5320  0.4956
63762SOL    HW1 3011  12.218   7.366  10.012 -2.5991 -0.9589 -1.6376
63762SOL    HW2 3012  12.191   7.260  10.116 -0.6971  0.4578  0.3728
63763SOL     OW 3013  10.230   9.260   5.917 -0.7193 -0.6232 -0.7143
63763SOL    HW1 3014  10.242   9.186   5.857  0.3888 -1.8235  0.9068
63763SOL    HW2 3015  10.274   9.333   5.873  2.6888 -2.1577 -0.2256
63764SOL     OW 3016  13.738   7.549  13.435 -0.2458  0.2480  0.5945
63764SOL    HW1 3017  13.659   7.591  13.470 -0.5772 -0.3681  0.6026
63764SOL    HW2 3018  13.721   7.540  13.342  0.0402  0.6075  0.5112
63765SOL     OW 3019   5.248   7.206   9.002  0.3425 -0.8249 -0.0584
63765SOL    HW1 3020   5.209   7.177   9.084  0.6601 -2.0951 -0.3350
63765SOL    HW2 3021   5.183   7.264   8.963  0.9507  1.3863  1.9635
63766SOL     OW 3022   6.580   0.766   2.761 -0.3498  0.3633  0.2496
63766SOL    HW1 3023   6.561   0.835   2.697  0.5361  0.4578  0.0868
63766SOL    HW2 3024   6.669   0.783   2.790 -0.4136 -0.2379  0.8158
63767SOL     OW 3025   1.470  13.537   9.278  0.0897  0.4807 -1.3927
63767SOL    HW1 3026   1.412  13.519   9.352  1.9929  0.9669  0.3037
63767SOL    HW2 3027   1.429  13.493   9.204 -1.6461 -0.4293  0.0408
63768SOL     OW 3028   8.923   5.983  11.006  0.1025 -0.1303  0.3250
63768SOL    HW1 3029   8.866   6.005  11.080  0.4580  3.3166 -0.2796
63768SOL    HW2 3030   9.011   5.984  11.042  0.1416 -0.4924  0.2468
63769SOL     OW 3031   1.338   0.066   6.224 -0.0509 -0.1541  0.0157
63769SOL    HW1 3032   1.293  -0.013   6.253  0.4215 -0.2593  0.4582
63769SOL    HW2 3033   1.367   0.046   6.135 -0.9192 -0.0643 -0.3056
63770SOL     OW 3034   8.150   0.858  12.653  0.3421  0.5112 -0.3859
63770SOL    HW1 3035   8.098   0.838  12.731  0.8563 -0.8590 -0.3687
63770SOL    HW2 3036   8.167   0.772  12.612  1.4153  1.0506 -1.1364
63771SOL     OW 3037   9.962   3.452  11.511 -0.4533  0.0775 -0.4089
63771SOL    HW1 3038   9.918   3.536  11.503  0.0879  0.4681  0.5571
63771SOL    HW2 3039  10.048   3.466  11.471 -0.0752  0.2132  0.4455
63772SOL     OW 3040   1.139   2.796  11.228 -0.4635  0.2821 -0.0490
63772SOL    HW1 3041   1.170   2.722  11.280  1.2951  1.1364  0.1893
63772SOL    HW2 3042   1.218   2.836  11.193 -1.4319  1.5307 -0.9237
63773SOL     OW 3043   8.359  12.402   7.648  0.2149 -0.1116  0.2721
63773SOL    HW1 3044   8.429  12.444   7.598 -0.3314  0.3634 -0.1112
63773SOL    HW2 3045   8.373  12.432   7.738 -0.2743  1.0781 -0.0245
63774SOL     OW 3046   7.610   3.664   2.927 -0.0741 -0.4901  0.0146
63774SOL    HW1 3047   7.557   3.676   3.007  0.8466  0.6383  0.4818
63774SOL    HW2 3048   7.568   3.720   2.862  0.3869  0.1934  0.3059
63775SOL     OW 3049   5.753   4.848   8.608 -0.0995  0.6197  0.1385
63775SOL    HW1 3050   5.758   4.927   8.663  0.2779  0.9225 -0.3287
63775SOL    HW2 3051   5.786   4.876   8.523  0.8829 -0.2766  0.2113
63776SOL     OW 3052  13.200   8.458   3.929 -0.4690  0.5831 -0.2382
63776SOL    HW1 3053  13.173   8.545   3.959  0.2612  0.6310  0.3054
63776SOL    HW2 3054  13.164   8.451   3.841  0.5425  1.9668 -0.8040
63777SOL     OW 3055   1.057   4.508  12.576  0.3572  0.3157 -0.4067
63777SOL    HW1 3056   1.019   4.428  12.539  0.7406  0.1088 -0.3539
63777SOL    HW2 3057   1.034   4.577  12.514 -0.0312  0.1756 -0.4202
63778SOL     OW 3058   2.563   9.836   6.966 -0.9459 -0.1541  0.1499
63778SOL    HW1 3059   2.645   9.788   6.956 -0.5601  0.3096  0.9299
63778SOL    HW2 3060   2.589   9.920   7.005 -1.7116  0.2879 -0.2540
63779SOL     OW 3061   3.506  10.040  12.950  0.4134 -0.3208  0.1240
63779SOL    HW1 3062   3.468  10.027  12.863 -0.0445  0.7793  0.1419
63779SOL    HW2 3063   3.567  10.113  12.939 -1.2508  1.3216  1.1374
63780SOL     OW 3064   8.629   1.368   1.933 -0.3481 -0.3460  0.0669
63780SOL    HW1 3065   8.539   1.337   1.924 -0.8253  1.2087 -0.9745
63780SOL    HW2 3066   8.636   1.440   1.869  0.5121  1.9848  2.5865
63781SOL     OW 3067   2.142   7.399  10.551 -0.3818  0.1154  0.3207
63781SOL    HW1 3068   2.150   7.494  10.541 -0.4582  0.0657 -0.2447
63781SOL    HW2 3069   2.228   7.371  10.585  0.4688  0.1091 -1.7061
63782SOL     OW 3070   0.834   0.382   7.710  0.8158 -0.9791 -0.0526
63782SOL    HW1 3071   0.840   0.329   7.790  1.9045 -0.0651  0.4999
63782SOL    HW2 3072   0.911   0.439   7.713 -0.0304  0.2547 -0.8978
63783SOL     OW 3073   8.200   2.378  12.324 -0.2407  0.2215  0.6139
63783SOL    HW1 3074   8.264   2.404  12.391 -1.7121  0.5159  1.9774
63783SOL    HW2 3075   8.247   2.386  12.241  1.3135  0.9475  1.5188
63784SOL     OW 3076   3.965   5.629   8.160 -0.0537  0.3595 -0.0502
63784SOL    HW1 3077   4.026   5.650   8.231  1.0726 -0.2083 -0.7994
63784SOL    HW2 3078   3.982   5.695   8.093  0.4597 -0.3637 -0.6608
63785SOL     OW 3079   3.418   2.347  10.701 -0.5797  0.2258  0.8362
63785SOL    HW1 3080   3.503   2.374  10.666 -0.5559 -2.1068 -1.1977
63785SOL    HW2 3081   3.412   2.391  10.786  2.6266  0.5295  1.0318
63786SOL     OW 3082   9.056   4.607  11.102 -0.6154  0.0847  0.8359
63786SOL    HW1 3083   9.118   4.585  11.172  0.2018 -0.7190 -0.0953
63786SOL    HW2 3084   9.036   4.522  11.061  0.9566  0.7587 -1.5263
63787SOL     OW 3085  12.869  10.412   6.131 -0.4706  0.1014  0.2295
63787SOL    HW1 3086  12.889  10.429   6.039 -1.3105  0.8626  0.1721
63787SOL    HW2 3087  12.860  10.317   6.136 -3.2943  0.1842 -1.1401
63788SOL     OW 3088   6.320  13.315   7.296 -0.2085 -0.2188 -0.4387
63788SOL    HW1 3089   6.387  13.374   7.329  0.2709 -0.4584 -0.9686
63788SOL    HW2 3090   6.272  13.287   7.374  0.1175  0.1852 -0.0914
63789SOL     OW 3091   6.725   8.624  13.121 -0.0434  0.5091 -0.4288
63789SOL    HW1 3092   6.640   8.603  13.084 -0.2085  0.9722 -0.3227
63789SOL    HW2 3093   6.720   8.595  13.212 -0.8742  2.4722  0.2103
63790SOL     OW 3094   4.144   2.590  11.621 -0.5223  0.4688  0.2597
63790SOL    HW1 3095   4.135   2.531  11.696 -1.3150  0.3551  0.0850
63790SOL    HW2 3096   4.200   2.661  11.653  0.6356 -0.4753  0.4033
63791SOL     OW 3097  11.987  13.236   1.831  0.2872 -0.4827 -0.2104
63791SOL    HW1 3098  11.951  13.241   1.919  0.9300 -0.0639  0.0321
63791SOL    HW2 3099  11.929  13.291   1.778  1.3326  1.3198  0.4492
63792SOL     OW 3100  12.257  10.800   6.694 -0.3630  0.4215 -0.3040
63792SOL    HW1 3101  12.267  10.791   6.789 -0.7406  1.4940 -0.1422
63792SOL    HW2 3102  12.301  10.724   6.658 -1.8148 -1.0256  0.7988
63793SOL     OW 3103   9.800   2.030   1.856  0.2077  0.0536 -0.1157
63793SOL    HW1 3104   9.751   2.080   1.791 -2.0313 -0.6017  0.9317
63793SOL    HW2 3105   9.869   2.089   1.885 -1.0964  1.7950 -0.3625
63794SOL     OW 3106  11.044   3.783   6.163 -0.4753  0.4284 -0.1236
63794SOL    HW1 3107  11.001   3.737   6.235  0.4761  0.4976  0.5018
63794SOL    HW2 3108  11.059   3.872   6.196  0.2137  0.3829 -0.2977
63795SOL     OW 3109   1.662   0.047   5.621 -0.4280 -0.0174 -0.5954
63795SOL    HW1 3110   1.651   0.052   5.716 -0.3331 -0.8890 -0.5309
63795SOL    HW2 3111   1.664   0.138   5.593 -0.9142  0.2457  0.1828
63796SOL     OW 3112   1.113  11.688  13.317  0.0312  0.2204  0.0207
63796SOL    HW1 3113   1.081  11.709  13.405 -2.0766  1.8884 -1.0170
63796SOL    HW2 3114   1.079  11.601  13.299 -2.7285  1.2730 -0.3865
63797SOL     OW 3115  11.964   5.479  12.855  0.2438 -0.3738  0.4355
63797SOL    HW1 3116  11.924   5.424  12.788 -1.5465 -0.2624  1.3478
63797SOL    HW2 3117  12.026   5.534  12.808 -0.1933 -1.0321 -0.9513
63798SOL     OW 3118   1.755   1.812   5.738 -0.0680  1.0218 -0.4515
63798SOL    HW1 3119   1.734   1.728   5.779 -0.1622  0.8850 -0.7782
63798SOL    HW2 3120   1.684   1.827   5.676  0.0260  1.2746 -0.5007
63799SOL     OW 3121  11.211   6.189   3.452  0.0904 -0.5212 -0.2271
63799SOL    HW1 3122  11.237   6.141   3.374  0.8376  0.4059 -0.5610
63799SOL    HW2 3123  11.154   6.128   3.499  0.4281 -1.4601 -0.9920
63800SOL     OW 3124   4.410   2.375   4.316  0.0944  0.1986 -0.0247
63800SOL    HW1 3125   4.359   2.335   4.246 -0.0980 -0.7903  0.6521
63800SOL    HW2 3126   4.483   2.418   4.271  1.0381 -1.9992 -0.7443
63801SOL     OW 3127   8.280  12.419   6.385 -0.1085  0.5298  0.2292
63801SOL    HW1 3128   8.364  12.424   6.432  0.1443 -1.2166  0.0207
63801SOL    HW2 3129   8.304  12.398   6.295 -0.7689  0.3370  0.0979
63802SOL     OW 3130   3.027   3.243   9.287 -0.4881 -0.4295 -0.2850
63802SOL    HW1 3131   3.014   3.338   9.293 -0.3057 -0.2958 -1.6298
63802SOL    HW2 3132   2.948   3.211   9.244 -0.0069 -0.7162 -0.9699
63803SOL     OW 3133  13.251   3.944   2.698 -0.3161  0.0794  0.1281
63803SOL    HW1 3134  13.262   3.893   2.617 -0.9008  0.1141  0.0210
63803SOL    HW2 3135  13.290   3.889   2.766 -0.6503 -0.3654 -0.0344
63804SOL     OW 3136   3.587   9.343   9.618  0.0603 -0.1543  0.1678
63804SOL    HW1 3137   3.590   9.396   9.698  0.8189  0.8665 -0.5043
63804SOL    HW2 3138   3.677   9.343   9.586 -0.3760  0.1669 -1.1254
63805SOL     OW 3139   7.663   8.574   9.338  0.5026  0.1297  0.1692
63805SOL    HW1 3140   7.589   8.574   9.278 -0.5752  0.3627  1.4544
63805SOL    HW2 3141   7.627   8.602   9.422  1.7837 -0.9557  1.1464
63806SOL     OW 3142  12.566  12.391   3.419 -0.0793 -0.1780  0.5940
63806SOL    HW1 3143  12.615  12.349   3.491  0.0497  2.2438  2.0076
63806SOL    HW2 3144  12.504  12.448   3.463 -0.3785  0.9549 -1.2412
63807SOL     OW 3145   5.884   1.761   1.109 -0.0572 -0.0284  0.3727
63807SOL    HW1 3146   5.900   1.822   1.180 -0.8251  1.2252 -0.4997
63807SOL    HW2 3147   5.932   1.682   1.134 -0.4425  0.3206  2.3366
63808SOL     OW 3148   1.531   7.434  10.448 -0.5607  0.0710  0.5461
63808SOL    HW1 3149   1.457   7.409  10.503 -1.6244 -0.4871 -1.0772
63808SOL    HW2 3150   1.608   7.414  10.501 -1.5350 -0.9665  1.6189
63809SOL     OW 3151   9.553  10.141   3.477 -0.0818 -0.3275 -0.3220
63809SOL    HW1 3152   9.554  10.137   3.573 -0.6065 -1.3011 -0.3411
63809SOL    HW2 3153   9.645  10.140   3.452  0.1512  2.1770  0.2184
63810SOL     OW 3154  12.455  11.556   1.995  0.3808  0.0899 -0.3431
63810SOL    HW1 3155  12.403  11.492   2.042 -0.8286  0.3308 -1.3004
63810SOL    HW2 3156  12.510  11.505   1.936  1.0054 -0.1488  0.4317
63811SOL     OW 3157  10.248   3.692   3.490  0.2176 -0.2359 -0.5012
63811SOL    HW1 3158  10.160   3.721   3.465  0.2870  1.1905  0.7329
63811SOL    HW2 3159  10.275   3.754   3.558  2.1893 -0.6247 -0.8573
63812SOL     OW 3160   6.354   6.207  12.668 -0.4369 -0.1810  0.1054
63812SOL    HW1 3161   6.404   6.264  12.609 -1.3028  2.2311  1.5580
63812SOL    HW2 3162   6.286   6.169  12.612  1.1377 -1.1495 -1.2440
63813SOL     OW 3163   0.266  10.971   4.648 -0.1745  0.9995  0.8225
63813SOL    HW1 3164   0.330  10.908   4.614 -1.2726  0.7961 -1.0214
63813SOL    HW2 3165   0.182  10.926   4.640 -1.1203  2.9537 -1.3965
63814SOL     OW 3166   1.983  13.714   8.269 -0.0640 -0.0580  0.0588
63814SOL    HW1 3167   1.939  13.786   8.225 -1.1055 -1.5000 -1.3743
63814SOL    HW2 3168   2.065  13.751   8.300 -1.6601  2.4071  1.6897
63815SOL     OW 3169   7.975   3.674   1.691 -0.3370 -0.2423  0.4744
63815SOL    HW1 3170   8.013   3.762   1.681 -2.1814  0.5666  0.2125
63815SOL    HW2 3171   7.883   3.685   1.671 -0.2925 -2.6627 -1.5509
63816SOL     OW 3172   6.187  10.496  10.268  0.5213  0.5137  0.8173
63816SOL    HW1 3173   6.171  10.582  10.230 -1.0585  0.3994  1.1586
63816SOL    HW2 3174   6.107  10.446  10.251  0.6552 -0.2689  2.2779
63817SOL     OW 3175   3.991   0.854   9.374 -0.3259 -0.3405 -0.6426
63817SOL    HW1 3176   3.983   0.930   9.316  2.0073  1.3510  1.0494
63817SOL    HW2 3177   4.048   0.884   9.445 -1.7125 -2.7924  1.7060
63818SOL     OW 3178   0.741   0.595   6.937 -0.4393  0.5690  0.5649
63818SOL    HW1 3179   0.821   0.542   6.935 -0.1501  1.0059  0.4350
63818SOL    HW2 3180   0.681   0.546   6.994  0.0633  0.4421  0.9936
63819SOL     OW 3181   8.539   8.135   4.010  0.7673 -0.5297  0.5763
63819SOL    HW1 3182   8.562   8.218   3.969  0.8447 -1.0203 -0.4111
63819SOL    HW2 3183   8.601   8.072   3.973  1.9039 -0.7242  2.6768
63820SOL     OW 3184   1.410   0.569   4.586  0.2009  0.5832 -0.0597
63820SOL    HW1 3185   1.366   0.618   4.655 -1.1781 -1.0685  0.3164
63820SOL    HW2 3186   1.457   0.635   4.535 -1.2437  2.2234  0.6412
63821SOL     OW 3187   3.498   7.982   2.620  0.2834  0.0598  0.5468
63821SOL    HW1 3188   3.483   8.046   2.550 -1.7191  0.0580  0.9081
63821SOL    HW2 3189   3.593   7.969   2.621  0.4241  0.5506 -1.7130
63822SOL     OW 3190   4.755   2.258   9.713 -0.5159 -0.2782 -0.1142
63822SOL    HW1 3191   4.717   2.186   9.662 -2.6301 -0.6238  1.8340
63822SOL    HW2 3192   4.705   2.335   9.687  0.9947  0.3458 -1.3507
63823SOL     OW 3193   4.687   3.590   1.119  0.1987  0.0911  0.3507
63823SOL    HW1 3194   4.595   3.564   1.111  1.1675 -3.3344 -1.2230
63823SOL    HW2 3195   4.701   3.651   1.047 -0.5859 -0.1074  0.0207
63824SOL     OW 3196   5.003   1.302   6.607 -0.2104  0.0411 -0.2052
63824SOL    HW1 3197   4.986   1.378   6.663 -1.6607  0.8249 -1.6074
63824SOL    HW2 3198   5.093   1.314   6.577  0.5583 -0.3264  1.7665
63825SOL     OW 3199   9.936   6.061   6.403 -0.2752 -0.2821  0.0217
63825SOL    HW1 3200   9.982   6.130   6.451  0.3264 -0.1308 -0.7603
63825SOL    HW2 3201   9.962   5.980   6.446 -0.7113 -0.0582  0.7261
63826SOL     OW 3202   4.028   9.332   8.749 -0.2537  0.2676 -0.1069
63826SOL    HW1 3203   4.106   9.383   8.731 -0.4677  0.9408  0.8042
63826SOL    HW2 3204   4.059   9.241   8.756  0.0890  0.1949 -2.0053
63827SOL     OW 3205   2.773   8.947  13.117 -0.1582 -0.0252 -0.6804
63827SOL    HW1 3206   2.751   8.855  13.108  0.5096 -0.2041 -0.5503
63827SOL    HW2 3207   2.847   8.960  13.058  0.3413  0.2074 -0.0082
63828SOL     OW 3208   6.023  12.964  12.118 -0.0220 -0.1138 -0.0491
63828SOL    HW1 3209   5.996  12.873  12.110  0.1063 -0.2103  0.5522
63828SOL    HW2 3210   5.977  12.996  12.196  1.6264 -0.3081  1.0631
63829SOL     OW 3211   7.693   9.349   8.586  0.3332  0.2435 -0.4055
63829SOL    HW1 3212   7.667   9.434   8.624 -2.9721 -0.6620 -0.3371
63829SOL    HW2 3213   7.672   9.357   8.493 -1.9646 -1.0594 -0.0749
63830SOL     OW 3214   8.068   7.038   6.815  0.0082  0.3237 -0.3205
63830SOL    HW1 3215   8.129   7.011   6.884  0.0880  0.0042 -0.5125
63830SOL    HW2 3216   8.121   7.090   6.754  0.1681 -0.2218 -0.6551
63831SOL     OW 3217   2.530   3.342   6.678  0.3629 -0.2176 -0.5565
63831SOL    HW1 3218   2.567   3.288   6.609 -0.6175  0.0923 -1.3520
63831SOL    HW2 3219   2.436   3.342   6.661  0.1132  0.0007  0.6850
63832SOL     OW 3220  11.953   4.790   4.145 -0.1244  0.2844  0.0278
63832SOL    HW1 3221  11.985   4.869   4.187  0.1731  0.0186  0.3111
63832SOL    HW2 3222  11.908   4.743   4.216  1.6445 -0.8734  0.4573
63833SOL     OW 3223   7.095   1.554  11.378  0.5833 -0.4686 -0.5930
63833SOL    HW1 3224   7.111   1.467  11.413 -1.0847 -0.4887  0.1859
63833SOL    HW2 3225   7.083   1.609  11.455  1.1615  0.3718 -1.0848
63834SOL     OW 3226  12.825   8.294   0.056  0.5975 -0.0359 -0.0979
63834SOL    HW1 3227  12.764   8.358   0.093  1.5621  0.1550  1.2547
63834SOL    HW2 3228  12.890   8.346   0.009  1.0602 -0.0270  0.5234
63835SOL     OW 3229   6.642   8.664   5.864  0.6112  0.1330 -0.1551
63835SOL    HW1 3230   6.626   8.587   5.918  0.8640  0.2395  0.0747
63835SOL    HW2 3231   6.737   8.674   5.863  0.5692  0.5748  0.0082
63836SOL     OW 3232  11.660  10.787  11.239 -0.6019  0.4026 -0.5614
63836SOL    HW1 3233  11.614  10.844  11.300 -2.0736 -0.2010 -1.0617
63836SOL    HW2 3234  11.668  10.703  11.285  1.6231  0.9718  0.2050
63837SOL     OW 3235   2.475  12.019  13.684  0.2655 -0.4811 -0.2072
63837SOL    HW1 3236   2.496  12.111  13.698  1.3768 -0.5597 -1.1864
63837SOL    HW2 3237   2.380  12.014  13.694  0.3136  0.5469  1.0019
63838SOL     OW 3238  12.071   7.644   9.298 -0.3411 -0.6128  0.0868
63838SOL    HW1 3239  12.031   7.693   9.226 -0.3975 -0.7306  0.0371
63838SOL    HW2 3240  12.122   7.575   9.255  1.1970  0.4679  0.0737
63839SOL     OW 3241   1.674   3.197   0.270  0.5581 -0.3535  0.3629
63839SOL    HW1 3242   1.665   3.154   0.185 -0.4169 -0.2563  0.4018
63839SOL    HW2 3243   1.594   3.174   0.317  0.7906  0.1279  1.0074
63840SOL     OW 3244   6.859   1.307   9.831  0.0674  0.1628  0.4757
63840SOL    HW1 3245   6.803   1.236   9.862  0.0763 -0.7539 -1.5140
63840SOL    HW2 3246   6.819   1.336   9.749  0.8392  1.5390  0.5451
63841SOL     OW 3247  10.761   8.569   7.355 -0.3142 -0.1276 -0.1104
63841SOL    HW1 3248  10.745   8.488   7.307  1.2947  0.7583 -2.3031
63841SOL    HW2 3249  10.811   8.541   7.432  0.1031 -1.2403 -0.7536
63842SOL     OW 3250   1.635   8.157   5.765 -0.1165 -0.3671  0.3580
63842SOL    HW1 3251   1.600   8.078   5.805  0.6110 -1.3258 -0.8053
63842SOL    HW2 3252   1.559   8.203   5.730 -0.3741 -1.7467 -0.9853
63843SOL     OW 3253  10.534   7.167   5.873  0.2837 -0.1145 -0.4236
63843SOL    HW1 3254  10.489   7.190   5.792 -1.2710 -0.2990  0.3542
63843SOL    HW2 3255  10.625   7.154   5.847 -0.2845 -0.7158 -2.2299
63844SOL     OW 3256   0.327   9.665  12.233 -0.1711 -0.0064 -0.0522
63844SOL    HW1 3257   0.421   9.661  12.216  0.3429  0.8240  2.2283
63844SOL    HW2 3258   0.292   9.584  12.194  1.8325 -1.4268  0.9326
63845SOL     OW 3259  13.740   9.053   6.039  0.4903  0.1923  0.0534
63845SOL    HW1 3260  13.804   9.081   6.105  1.5968 -2.8331  0.4372
63845SOL    HW2 3261  13.786   9.064   5.956  0.7655 -0.0808  0.1665
63846SOL     OW 3262   3.326  11.956   0.227  0.4214  0.1828 -0.2986
63846SOL    HW1 3263   3.357  12.017   0.295 -2.6330  0.7870  0.6854
63846SOL    HW2 3264   3.352  11.997   0.145  0.3325  1.7229  0.4004
63847SOL     OW 3265   7.217   6.547   5.365  0.2220  0.6622 -0.2567
63847SOL    HW1 3266   7.304   6.518   5.336  0.5422  1.1222  0.2171
63847SOL    HW2 3267   7.168   6.466   5.380  1.4692  0.2447  2.1878
63848SOL     OW 3268   7.273  13.107  12.447  0.2852 -0.0488 -0.4703
63848SOL    HW1 3269   7.285  13.012  12.452 -0.8372 -0.2370 -1.1787
63848SOL    HW2 3270   7.210  13.127  12.516  0.0941  0.0977 -0.6859
63849SOL     OW 3271   4.798   4.777   2.624 -0.0351 -0.0726  0.0604
63849SOL    HW1 3272   4.858   4.709   2.654 -1.8387 -1.0447  1.6826
63849SOL    HW2 3273   4.771   4.749   2.537 -0.0700 -0.9857  0.3571
63850SOL     OW 3274   4.642   0.432   7.206 -0.2721  0.5346 -0.1991
63850SOL    HW1 3275   4.665   0.377   7.132 -1.5315 -1.0443  0.5206
63850SOL    HW2 3276   4.575   0.383   7.253  0.5645  1.4108  2.0646
63851SOL     OW 3277   8.747  11.664   3.329 -0.1464  0.2243  0.4569
63851SOL    HW1 3278   8.654  11.675   3.307  0.1120  0.2157 -0.6910
63851SOL    HW2 3279   8.786  11.751   3.316  0.0472  0.1773  0.7194
63852SOL     OW 3280   9.773   6.886  10.065  0.3263  0.5767  0.9768
63852SOL    HW1 3281   9.833   6.959  10.080  1.2245 -0.1932  1.2299
63852SOL    HW2 3282   9.775   6.836  10.147  0.2441 -0.0985  0.5733
63853SOL     OW 3283  12.607   2.034  10.496 -0.2069 -0.2307  0.3033
63853SOL    HW1 3284  12.583   2.101  10.432 -1.3094  0.9752  1.9184
63853SOL    HW2 3285  12.566   1.954  10.463  0.3032  0.0661 -1.1286
63854SOL     OW 3286   2.952   8.674   2.944 -0.2590  0.5935  0.4492
63854SOL    HW1 3287   2.873   8.623   2.960 -0.0876  0.2288  0.1512
63854SOL    HW2 3288   3.008   8.656   3.019 -0.3770  0.6996  0.5644
63855SOL     OW 3289   9.399  10.915   3.860 -0.3987 -0.1663  0.0548
63855SOL    HW1 3290   9.459  10.863   3.807  1.0493 -0.0875  1.5554
63855SOL    HW2 3291   9.453  10.952   3.929 -2.2025 -0.1885  1.5602
63856SOL     OW 3292   0.600   4.124   8.060 -0.1560 -0.2424 -0.2190
63856SOL    HW1 3293   0.601   4.126   8.156  0.0522  0.7780 -0.2349
63856SOL    HW2 3294   0.521   4.172   8.036  0.6333  0.8932 -0.5821
63857SOL     OW 3295  10.802  12.132   4.835  0.4212 -0.2548 -0.6149
63857SOL    HW1 3296  10.895  12.140   4.813  0.3785 -1.8461 -1.5308
63857SOL    HW2 3297  10.800  12.081   4.916  0.3326 -0.4064 -0.7125
63858SOL     OW 3298   4.756   8.633   1.859  0.6954 -0.1955 -0.0706
63858SOL    HW1 3299   4.704   8.668   1.932 -0.7091  0.1182 -1.1922
63858SOL    HW2 3300   4.830   8.693   1.851  0.5040  0.1512  0.6516
63859SOL     OW 3301   3.191   9.509  11.869 -0.0982  0.0949  0.7432
63859SOL    HW1 3302   3.254   9.444  11.836 -1.0865 -1.1154  1.1440
63859SOL    HW2 3303   3.236   9.593  11.860  0.7647 -0.4993 -0.9518
63860SOL     OW 3304   8.714   7.888  10.639 -0.2587 -0.0295  0.4616
63860SOL    HW1 3305   8.711   7.809  10.693  0.7710  0.8615  1.8938
63860SOL    HW2 3306   8.806   7.894  10.612 -0.4524  0.3753 -0.1182
63861SOL     OW 3307   2.397   7.735   6.986 -0.4590 -0.3911  0.0714
63861SOL    HW1 3308   2.438   7.761   7.069 -0.0493 -0.1944 -0.1897
63861SOL    HW2 3309   2.402   7.639   6.987 -0.5590 -0.3961  0.3257
63862SOL     OW 3310   8.593   9.912   0.748  0.1901  0.2553 -0.1064
63862SOL    HW1 3311   8.540   9.933   0.825  0.9047 -0.8959  0.7273
63862SOL    HW2 3312   8.651   9.842   0.777  2.3233  1.6118 -0.9313
63863SOL     OW 3313   9.984   4.779   7.491  0.3716 -0.1495 -0.1798
63863SOL    HW1 3314   9.931   4.783   7.571 -0.0008  1.2189 -0.4666
63863SOL    HW2 3315  10.011   4.688   7.485 -0.8248 -0.5909  0.7057
63864SOL     OW 3316   5.231   2.851   4.306 -0.1627 -0.3415 -0.1877
63864SOL    HW1 3317   5.168   2.873   4.237 -0.9218 -1.7565  0.0057
63864SOL    HW2 3318   5.180   2.801   4.370  0.2287  1.9363  2.0786
63865SOL     OW 3319  12.060  10.583   7.047  0.0561  0.0119  0.0848
63865SOL    HW1 3320  12.068  10.495   7.010  0.1862  0.2630 -0.4896
63865SOL    HW2 3321  12.145  10.601   7.087  0.3393  0.2313 -0.5968
63866SOL     OW 3322   8.944  12.920   8.434 -0.4082 -0.3154 -0.1401
63866SOL    HW1 3323   8.993  13.001   8.420 -1.9661  0.6265 -0.3647
63866SOL    HW2 3324   8.888  12.912   8.357 -1.4455 -0.7248  0.6318
63867SOL     OW 3325  13.156   4.722   2.785 -0.2383 -0.8491  0.3225
63867SOL    HW1 3326  13.076   4.767   2.814 -1.5182 -2.9257  0.2278
63867SOL    HW2 3327  13.171   4.755   2.696 -0.4395  0.2312  0.6672
63868SOL     OW 3328   9.329  10.383   3.474 -0.5433  0.3836 -0.0389
63868SOL    HW1 3329   9.319  10.294   3.439  1.4491 -0.1689  0.6626
63868SOL    HW2 3330   9.420  10.406   3.452 -0.2424  1.2435  1.9883
63869SOL     OW 3331   4.181   6.129   8.570 -0.2541  0.0411  0.0493
63869SOL    HW1 3332   4.239   6.113   8.644  0.9315  0.2372 -0.8076
63869SOL    HW2 3333   4.186   6.224   8.556 -0.9169  0.0814  0.0748
63870SOL     OW 3334   5.587  12.023   2.605 -0.5700 -0.1704 -0.4717
63870SOL    HW1 3335   5.545  12.089   2.661 -1.0849 -1.2796  0.4844
63870SOL    HW2 3336   5.651  11.981   2.662  1.0704  0.6972 -1.5866
63871SOL     OW 3337  10.576   2.587   6.055 -0.5993  0.3059 -0.0636
63871SOL    HW1 3338  10.610   2.600   5.967 -0.7714  1.1246 -0.0221
63871SOL    HW2 3339  10.604   2.666   6.103 -1.3729  0.3469  0.3318
63872SOL     OW 3340   5.811   7.457   8.258 -0.4932  0.1778 -0.3055
63872SOL    HW1 3341   5.803   7.364   8.239 -2.3776  0.2430 -0.0445
63872SOL    HW2 3342   5.880   7.488   8.200  0.9092 -1.5641  0.3408
63873SOL     OW 3343  12.692   0.676   9.413  0.0180 -0.5781  0.6108
63873SOL    HW1 3344  12.753   0.605   9.393 -0.4218 -0.2032 -2.6172
63873SOL    HW2 3345  12.607   0.632   9.424  0.2195 -0.7659  1.5186
63874SOL     OW 3346   2.490   8.751  12.711 -0.1111  0.0508  0.5915
63874SOL    HW1 3347   2.561   8.696  12.745  0.6213  0.1592 -0.6699
63874SOL    HW2 3348   2.467   8.710  12.627 -1.3720  0.1713  0.8698
63875SOL     OW 3349   0.201   3.183   1.736  0.6333 -0.2486  0.2118
63875SOL    HW1 3350   0.162   3.097   1.724  0.1140  0.2219 -1.8121
63875SOL    HW2 3351   0.148   3.241   1.682 -0.3492  1.7775  3.1173
63876SOL     OW 3352   8.741   2.045   7.113  0.2689  0.3457  0.3738
63876SOL    HW1 3353   8.727   2.140   7.110 -0.2840  0.3718  2.3741
63876SOL    HW2 3354   8.690   2.015   7.188  0.7251 -1.4991  0.0070
63877SOL     OW 3355   4.552   5.103  13.326  0.2776 -0.6122 -0.7980
63877SOL    HW1 3356   4.502   5.056  13.258  0.2087 -1.2011 -0.3454
63877SOL    HW2 3357   4.486   5.156  13.371  0.0334 -1.3998 -0.1920
63878SOL     OW 3358   0.131   1.057   2.246  0.2970  0.7120  0.4475
63878SOL    HW1 3359   0.208   1.001   2.255  1.6543  2.5165  0.9022
63878SOL    HW2 3360   0.067   1.021   2.307  0.7970 -0.7907  0.1222
63879SOL     OW 3361   2.938   4.077   0.737  0.4396  0.0654 -0.8111
63879SOL    HW1 3362   2.918   4.001   0.791  0.6345  1.7664  1.8125
63879SOL    HW2 3363   2.972   4.040   0.655  1.8977 -2.6441  0.8746
63880SOL     OW 3364  10.883   2.264   9.949 -0.3267  0.3064  0.2870
63880SOL    HW1 3365  10.810   2.323   9.968  0.3664  1.4397 -0.4875
63880SOL    HW2 3366  10.896   2.270   9.855  0.7465  0.0984  0.4088
63881SOL     OW 3367   8.384   2.931  13.288 -0.0820  0.3969  0.0853
63881SOL    HW1 3368   8.328   2.970  13.221 -1.3044 -2.6259 -0.8595
63881SOL    HW2 3369   8.336   2.943  13.370 -0.7425  0.3314 -0.2817
63882SOL     OW 3370   3.035   4.629   2.685 -0.2640 -0.2922 -0.1425
63882SOL    HW1 3371   2.951   4.658   2.650 -0.0283  0.4229 -0.1211
63882SOL    HW2 3372   3.082   4.596   2.609 -0.3549 -0.2042 -0.2370
63883SOL     OW 3373   8.965  13.166   7.403  0.0833 -0.0886  0.5301
63883SOL    HW1 3374   8.883  13.194   7.363  0.0416 -1.3971 -0.3489
63883SOL    HW2 3375   8.940  13.106   7.473  0.2757 -0.4685  0.2799
63884SOL     OW 3376   5.272  10.602   1.530 -0.2370  0.5378  0.2430
63884SOL    HW1 3377   5.178  10.586   1.532 -0.2473  0.5020 -0.3894
63884SOL    HW2 3378   5.284  10.672   1.466  0.2499 -0.0782 -0.3542
63885SOL     OW 3379   5.697  10.762   0.910 -0.2376  0.3445 -0.1508
63885SOL    HW1 3380   5.729  10.702   0.843  1.4569  0.8689  0.1481
63885SOL    HW2 3381   5.771  10.819   0.929 -1.1229  1.1132  1.1622
63886SOL     OW 3382  10.120  13.518   6.042 -0.7770  0.1739  0.2063
63886SOL    HW1 3383  10.035  13.536   6.082 -0.2368  2.5364  0.3937
63886SOL    HW2 3384  10.180  13.515   6.116 -0.4892 -0.2907 -0.0410
63887SOL     OW 3385  11.539   9.507   6.831  0.4471  0.1394 -0.5605
63887SOL    HW1 3386  11.524   9.580   6.891  0.3469 -1.6242  1.6685
63887SOL    HW2 3387  11.623   9.470   6.859  0.3700 -0.7709 -1.4876
63888SOL     OW 3388  10.166   0.405   0.221 -0.0588  1.0805  0.3261
63888SOL    HW1 3389  10.075   0.375   0.224 -0.2498  1.6027 -0.2221
63888SOL    HW2 3390  10.214   0.336   0.267 -0.8509  1.2809  1.5254
63889SOL     OW 3391   4.502   1.404  10.298 -0.5707 -0.0171 -0.1351
63889SOL    HW1 3392   4.589   1.434  10.325 -0.6152 -0.8294  0.9749
63889SOL    HW2 3393   4.465   1.478  10.250  0.1098  0.9269  0.7548
63890SOL     OW 3394  13.735   5.875   9.937  0.4864  0.3648  0.0624
63890SOL    HW1 3395  13.679   5.947   9.907 -0.9917 -0.0594  1.6370
63890SOL    HW2 3396  13.799   5.863   9.867  0.2585  2.6487 -0.6059
63891SOL     OW 3397  12.430   1.611   0.915 -0.1775  0.0074 -0.2084
63891SOL    HW1 3398  12.485   1.672   0.964  0.2528 -0.1488 -0.4899
63891SOL    HW2 3399  12.413   1.655   0.832 -0.5854  0.1064 -0.0778
63892SOL     OW 3400   0.250   2.131  10.813  0.0279 -0.2095 -0.3986
63892SOL    HW1 3401   0.207   2.078  10.746 -1.0400 -0.1490  0.2159
63892SOL    HW2 3402   0.314   2.183  10.765 -0.7624 -0.1176 -1.3830
63893SOL     OW 3403   0.678  12.393   3.145 -0.3600 -0.2331 -0.2453
63893SOL    HW1 3404   0.689  12.406   3.239 -2.4755  0.6293 -0.0666
63893SOL    HW2 3405   0.626  12.313   3.138  0.5655 -0.8006 -0.7350
63894SOL     OW 3406  12.960  10.403   5.212 -0.4283  0.6069  0.2102
63894SOL    HW1 3407  12.868  10.422   5.191 -0.5757  2.8234  2.3933
63894SOL    HW2 3408  13.010  10.448   5.144 -0.9613  1.6803  0.5117
63895SOL     OW 3409   4.553   5.327   9.418  0.8296 -0.0291  0.0029
63895SOL    HW1 3410   4.568   5.408   9.370 -0.4477  0.9421  1.1450
63895SOL    HW2 3411   4.564   5.351   9.510 -0.5925 -0.8714  0.4425
63896SOL     OW 3412  11.339   9.399   6.681  0.4363 -0.0468  0.1755
63896SOL    HW1 3413  11.366   9.325   6.626 -0.1495  0.6319 -1.0778
63896SOL    HW2 3414  11.421   9.430   6.721  0.9859 -0.1843 -0.8132
63897SOL     OW 3415   5.147  13.712  10.791  0.0510  0.6276 -0.1798
63897SOL    HW1 3416   5.162  13.783  10.853  1.1541  1.8492 -1.7647
63897SOL    HW2 3417   5.175  13.747  10.706 -1.3106 -0.9898 -1.3854
63898SOL     OW 3418   1.307   3.159   4.455  0.3169 -0.1519 -0.5008
63898SOL    HW1 3419   1.339   3.239   4.498 -3.5706  0.5617  1.5986
63898SOL    HW2 3420   1.310   3.179   4.361  3.6123  0.5698 -0.3531
63899SOL     OW 3421   3.016   4.940   3.983  0.1132  0.6820 -0.6523
63899SOL    HW1 3422   3.047   4.881   3.913  1.1601  1.0562 -0.5298
63899SOL    HW2 3423   3.091   4.946   4.043 -0.9889 -0.1836  0.8886
63900SOL     OW 3424   7.148   8.623  11.815  0.0922 -0.2330 -0.1101
63900SOL    HW1 3425   7.134   8.670  11.897  2.2870  0.4178 -0.0315
63900SOL    HW2 3426   7.182   8.538  11.841  1.2857  0.1584 -0.3022
63901SOL     OW 3427   7.623   2.492  10.031  0.4823  0.7756  0.1772
63901SOL    HW1 3428   7.691   2.554  10.057  0.6736  0.8157 -0.4078
63901SOL    HW2 3429   7.561   2.544   9.981 -0.0918  0.7800  0.8808
63902SOL     OW 3430   9.093   5.724   6.432  0.0504  0.2038 -0.1843
63902SOL    HW1 3431   9.049   5.640   6.418 -1.9967  1.2701 -0.6294
63902SOL    HW2 3432   9.153   5.732   6.358  0.7952 -1.1631  0.2468
63903SOL     OW 3433   4.916   9.323  11.919 -0.0139 -0.5965  0.5734
63903SOL    HW1 3434   4.926   9.230  11.938  1.1359 -0.0030  3.2968
63903SOL    HW2 3435   4.826   9.332  11.886  0.1765 -2.7391 -0.7038
63904SOL     OW 3436   4.397  10.366   4.219  0.0468 -0.1417 -0.1465
63904SOL    HW1 3437   4.439  10.407   4.143  0.8831 -0.0054  0.3804
63904SOL    HW2 3438   4.415  10.273   4.209  1.7964  0.0575  0.8532
63905SOL     OW 3439   2.969   8.793  12.240  0.4578  0.0436 -0.1047
63905SOL    HW1 3440   2.922   8.877  12.244  0.1040 -0.0918 -1.2006
63905SOL    HW2 3441   3.010   8.792  12.153  1.4638 -0.3977  0.3541
63906SOL     OW 3442  12.618   2.038  10.790 -0.0459 -0.0386 -0.1083
63906SOL    HW1 3443  12.528   2.054  10.820 -0.4215 -0.7287 -0.8510
63906SOL    HW2 3444  12.610   2.021  10.697  0.8619 -0.1471 -0.1760
63907SOL     OW 3445   7.287   1.861   6.357 -0.2771  0.9795  0.1597
63907SOL    HW1 3446   7.340   1.879   6.280 -0.7802  0.7684 -0.2441
63907SOL    HW2 3447   7.317   1.923   6.423  0.2802  1.0375 -0.1507
63908SOL     OW 3448   0.738   5.127   1.079 -0.2485 -0.1073 -0.4300
63908SOL    HW1 3449   0.759   5.048   1.030 -1.2109  0.5445 -1.9368
63908SOL    HW2 3450   0.804   5.130   1.149  0.5393 -1.5774 -1.0783
63909SOL     OW 3451   9.018   8.103   6.396 -0.0467  0.2890 -0.1281
63909SOL    HW1 3452   9.062   8.164   6.337 -0.8464  0.5966 -0.4146
63909SOL    HW2 3453   9.058   8.119   6.481  1.3982 -0.4303 -0.6267
63910SOL     OW 3454   0.915   7.697   1.373 -0.1242  0.0634  0.1089
63910SOL    HW1 3455   0.870   7.782   1.376  0.2540  0.2821 -0.4029
63910SOL    HW2 3456   0.939   7.686   1.282  1.9231  0.5109  0.5443
63911SOL     OW 3457  12.455  13.017   0.220 -0.0332 -0.1169  0.6447
63911SOL    HW1 3458  12.540  13.052   0.193 -0.3997 -0.3222 -0.8676
63911SOL    HW2 3459  12.451  13.033   0.314  1.2703  0.7469  0.5758
63912SOL     OW 3460   7.934   0.360   1.849  0.0566 -0.2112 -0.1696
63912SOL    HW1 3461   7.879   0.321   1.781  0.0956 -1.6824  0.5996
63912SOL    HW2 3462   8.023   0.346   1.818  0.0595  1.3176 -0.9549
63913SOL     OW 3463   9.818   3.776   1.234 -0.1602 -0.3328 -0.0248
63913SOL    HW1 3464   9.760   3.835   1.185  0.6195 -0.9262 -1.7351
63913SOL    HW2 3465   9.765   3.699   1.252  0.2116 -1.1321 -2.1189
63914SOL     OW 3466   9.636   9.683   4.354 -0.2184 -0.0085  0.3188
63914SOL    HW1 3467   9.577   9.756   4.374 -0.2723  0.0076  0.1000
63914SOL    HW2 3468   9.577   9.608   4.340 -0.2061  0.0900 -0.2567
63915SOL     OW 3469   8.587  10.158   4.979 -0.1550 -0.0522 -0.3099
63915SOL    HW1 3470   8.562  10.246   4.949 -2.1741 -0.2182  0.7784
63915SOL    HW2 3471   8.580  10.103   4.901  0.5423  0.6187 -0.8638
63916SOL     OW 3472   6.836  10.813   2.980 -0.8089 -0.3586  0.5178
63916SOL    HW1 3473   6.805  10.779   2.896  0.2709  0.5640 -0.2818
63916SOL    HW2 3474   6.807  10.748   3.044 -1.9141 -0.9304 -0.5229
63917SOL     OW 3475  12.596   5.760   6.195  0.8065 -0.3402 -0.1827
63917SOL    HW1 3476  12.625   5.831   6.253 -1.2632  0.3457  0.0915
63917SOL    HW2 3477  12.607   5.794   6.107  0.2505  0.1579 -0.0629
63918SOL     OW 3478   3.248   4.718  13.677 -0.2326  0.1210 -0.4090
63918SOL    HW1 3479   3.193   4.728  13.755  1.1941  0.8057  0.5527
63918SOL    HW2 3480   3.225   4.632  13.642 -1.4780  0.1478  0.2955
63919SOL     OW 3481   5.741  13.743  13.685 -0.4526 -0.0388 -0.0824
63919SOL    HW1 3482   5.730  13.814  13.748  1.3881  0.4630 -0.2806
63919SOL    HW2 3483   5.652  13.722  13.657 -1.0207  3.7699 -1.7892
63920SOL     OW 3484  13.726   4.992   7.181  0.4802 -0.2585 -0.1037
63920SOL    HW1 3485  13.765   4.993   7.268  1.3507  0.4936 -0.4820
63920SOL    HW2 3486  13.702   4.900   7.167 -0.1749 -0.2940  1.1295
63921SOL     OW 3487  12.143   2.159   4.472 -0.4015 -0.2517 -0.1191
63921SOL    HW1 3488  12.200   2.235   4.476  0.8837 -1.1689 -0.4516
63921SOL    HW2 3489  12.069   2.187   4.418 -0.2361  0.9156  0.2233
63922SOL     OW 3490   0.979  11.010   5.988  0.6295 -0.6236 -0.2567
63922SOL    HW1 3491   0.898  10.960   5.976 -0.9601  1.8095 -0.3141
63922SOL    HW2 3492   0.959  11.097   5.955  3.3275  0.0724 -0.3071
63923SOL     OW 3493   9.483  10.084   8.640  0.0490 -0.0591  0.6034
63923SOL    HW1 3494   9.440  10.030   8.706 -1.7355  0.7341  0.1444
63923SOL    HW2 3495   9.492  10.027   8.564 -0.8985 -0.0373  0.4594
63924SOL     OW 3496  11.770   4.693   5.994 -0.8336 -0.1373 -0.4948
63924SOL    HW1 3497  11.774   4.775   6.043  0.4965 -0.3542 -0.2001
63924SOL    HW2 3498  11.860   4.676   5.968 -1.0037 -1.7502 -0.1526
63925SOL     OW 3499   4.853   2.382   4.821 -0.0824 -0.0636  0.7774
63925SOL    HW1 3500   4.772   2.334   4.839  0.0541 -0.4517  0.3842
63925SOL    HW2 3501   4.910   2.318   4.779 -0.2248  0.6581 -0.5887
63926SOL     OW 3502  13.119   3.741   9.759 -0.1703 -0.6808 -0.2797
63926SOL    HW1 3503  13.085   3.685   9.829 -2.2437 -0.9622 -1.4286
63926SOL    HW2 3504  13.112   3.688   9.680  1.5247 -0.1449 -0.8321
63927SOL     OW 3505   5.839   4.144   9.128 -0.4266 -0.1298  0.9500
63927SOL    HW1 3506   5.912   4.163   9.069  0.6251  2.2694  2.8202
63927SOL    HW2 3507   5.764   4.191   9.090 -0.2665 -0.1954  0.5465
63928SOL     OW 3508   6.548   8.438   8.623 -0.3295  0.2085 -0.0769
63928SOL    HW1 3509   6.605   8.481   8.559  0.2694 -0.6217 -0.1178
63928SOL    HW2 3510   6.589   8.457   8.708 -0.9589  1.0573  0.0506
63929SOL     OW 3511   2.460   8.002  10.118  0.1326  0.0778 -0.2746
63929SOL    HW1 3512   2.505   7.964  10.193  0.0691  0.5372 -0.0008
63929SOL    HW2 3513   2.388   8.053  10.156 -0.3216 -0.2474 -0.6826
63930SOL     OW 3514   9.456  12.120  10.902 -0.0462 -0.2430 -0.4908
63930SOL    HW1 3515   9.518  12.097  10.971  1.0030  0.5122 -1.1604
63930SOL    HW2 3516   9.501  12.097  10.820 -1.0249 -0.5584 -0.9578
63931SOL     OW 3517   1.488   9.945   7.775 -0.0851  0.3113 -0.0069
63931SOL    HW1 3518   1.565   9.888   7.778 -2.4267 -3.2037 -0.3091
63931SOL    HW2 3519   1.431   9.913   7.845 -2.6874  0.3747 -1.9129
63932SOL     OW 3520   0.977   3.567   5.756  0.7006  0.1042 -0.0848
63932SOL    HW1 3521   1.039   3.609   5.696  0.3702  1.8855  0.7471
63932SOL    HW2 3522   0.907   3.631   5.767 -0.2182 -0.9831  0.6947
63933SOL     OW 3523   4.828   1.480  12.858  0.0233  0.1761  0.0732
63933SOL    HW1 3524   4.750   1.480  12.804 -0.8350 -2.1813  1.1537
63933SOL    HW2 3525   4.888   1.420  12.814  0.5162  0.6004  0.1637
63934SOL     OW 3526   9.910   2.376   8.321  0.5259  0.2457 -0.5959
63934SOL    HW1 3527   9.890   2.305   8.381 -2.4174 -0.8265 -2.6264
63934SOL    HW2 3528   9.977   2.340   8.262 -1.0470 -1.0081 -1.6969
63935SOL     OW 3529   0.843   8.767   6.110  0.0942  0.5927 -0.2401
63935SOL    HW1 3530   0.762   8.814   6.133 -2.1141 -2.4698 -1.0640
63935SOL    HW2 3531   0.839   8.759   6.015  0.2678 -1.2786 -0.1313
63936SOL     OW 3532   7.410   4.595  11.225 -0.2590 -0.4144  0.0240
63936SOL    HW1 3533   7.382   4.675  11.268 -0.0649 -0.0389 -0.5353
63936SOL    HW2 3534   7.505   4.595  11.232 -0.2336 -0.4024 -0.3076
63937SOL     OW 3535  13.088   1.475   9.774  0.0268  0.6365 -0.2936
63937SOL    HW1 3536  13.099   1.413   9.846  0.0491  0.2825 -0.5959
63937SOL    HW2 3537  13.001   1.513   9.786  0.0996  0.7066  0.0144
63938SOL     OW 3538   1.934   6.194   4.558  0.3470  0.0540  0.2039
63938SOL    HW1 3539   2.018   6.239   4.545 -0.2971  0.6773 -2.1583
63938SOL    HW2 3540   1.923   6.140   4.480 -0.2950 -2.0589  1.6494
63939SOL     OW 3541   6.541   2.125   5.624  0.4690  0.4409 -0.4195
63939SOL    HW1 3542   6.578   2.072   5.695  0.4534  0.1338 -0.6417
63939SOL    HW2 3543   6.498   2.198   5.669  0.6702  0.3788 -0.1236
63940SOL     OW 3544   4.287  12.381  12.825 -0.1773  0.0723 -0.0951
63940SOL    HW1 3545   4.365  12.333  12.797  0.0583  1.6997 -2.4813
63940SOL    HW2 3546   4.214  12.326  12.799  0.1066 -1.0131  1.2863
63941SOL     OW 3547  12.033   8.016   5.986 -0.0651 -0.1600  0.0645
63941SOL    HW1 3548  12.057   8.071   6.061 -0.0784 -1.2346  0.8872
63941SOL    HW2 3549  12.072   8.060   5.910 -2.2851  2.4235  0.2685
63942SOL     OW 3550   4.534  11.415   5.795  0.0727 -0.3320  0.2150
63942SOL    HW1 3551   4.448  11.440   5.762 -0.6180 -1.6937  0.9198
63942SOL    HW2 3552   4.568  11.494   5.837 -0.5441  0.3927 -0.6105
63943SOL     OW 3553   6.112   1.089  13.297  0.6831 -0.2927  0.4120
63943SOL    HW1 3554   6.164   1.142  13.358  1.0376 -0.4677  0.2610
63943SOL    HW2 3555   6.113   1.001  13.334 -0.7803 -0.0008  1.2270
63944SOL     OW 3556  13.090   1.421  12.215 -0.1111  0.4150  0.3986
63944SOL    HW1 3557  13.174   1.453  12.183 -0.2102  1.2393  0.9233
63944SOL    HW2 3558  13.104   1.328  12.231  1.0613  0.7596  1.5540
63945SOL     OW 3559   6.008   2.547   5.249  0.1216 -0.4447 -0.2949
63945SOL    HW1 3560   6.085   2.504   5.213  1.5001 -0.0787  2.0700
63945SOL    HW2 3561   5.968   2.481   5.307 -0.2116  0.0396  0.0325
63946SOL     OW 3562  10.956  10.645   0.871 -0.2968  0.4921  0.4427
63946SOL    HW1 3563  11.044  10.679   0.855  0.1682 -0.7513  0.2130
63946SOL    HW2 3564  10.936  10.592   0.793 -0.6759 -0.3392  1.0836
63947SOL     OW 3565  11.618  12.206   6.986  0.2745 -0.1497  0.4079
63947SOL    HW1 3566  11.551  12.201   6.918  0.3326  0.8039  0.2627
63947SOL    HW2 3567  11.693  12.246   6.943  1.1570 -1.6971  0.4274
63948SOL     OW 3568   7.840  11.309  11.420  0.2225  0.4014 -0.0001
63948SOL    HW1 3569   7.877  11.363  11.350 -1.5419  1.4306 -0.1782
63948SOL    HW2 3570   7.752  11.286  11.390  0.7237 -2.2750  0.2608
63949SOL     OW 3571   6.780   1.574  13.197  0.4223 -0.3307  0.0654
63949SOL    HW1 3572   6.837   1.521  13.142 -0.1474 -1.1125  0.2065
63949SOL    HW2 3573   6.691   1.545  13.174  0.1482 -0.2272  0.9452
63950SOL     OW 3574   9.222  11.167   6.846  0.0164  0.1344 -0.2232
63950SOL    HW1 3575   9.280  11.241   6.833 -0.8203  0.7903 -0.3451
63950SOL    HW2 3576   9.163  11.194   6.916  0.6541 -1.0209  0.7941
63951SOL     OW 3577  11.493  13.472   6.486 -0.2153 -0.5487 -0.2410
63951SOL    HW1 3578  11.510  13.419   6.408 -1.1708 -3.3394  1.3413
63951SOL    HW2 3579  11.414  13.522   6.464  0.8353  0.4875 -1.8503
63952SOL     OW 3580  11.254  13.540   0.469 -0.4839  0.2129  0.2748
63952SOL    HW1 3581  11.166  13.550   0.433 -1.2453  0.9838  2.2066
63952SOL    HW2 3582  11.272  13.623   0.513  0.7602 -0.3406  0.8748
63953SOL     OW 3583  10.139  10.792  13.204  0.0163  0.2998  0.2670
63953SOL    HW1 3584  10.082  10.837  13.142  0.2657  0.5000  0.1797
63953SOL    HW2 3585  10.223  10.838  13.196 -0.0575  0.5717  1.0322
63954SOL     OW 3586  10.369  10.661   7.993 -0.5547 -0.0670 -0.6045
63954SOL    HW1 3587  10.357  10.730   7.928 -1.4734 -0.0087 -0.3906
63954SOL    HW2 3588  10.463  10.642   7.991 -0.2882  1.1584 -0.7008
63955SOL     OW 3589  13.433   5.639   5.441  0.3699  0.1642 -0.6321
63955SOL    HW1 3590  13.389   5.717   5.474 -1.8993 -1.7857  1.3195
63955SOL    HW2 3591  13.420   5.573   5.510  2.3173 -1.9228 -2.1052
63956SOL     OW 3592   7.635   2.261  12.124 -0.6388  0.0175  0.0506
63956SOL    HW1 3593   7.607   2.185  12.073 -2.0656  0.8783 -0.5132
63956SOL    HW2 3594   7.611   2.240  12.214  0.9892 -1.0962  0.2644
63957SOL     OW 3595   2.893   5.058  12.502 -0.2522 -0.6302  0.7193
63957SOL    HW1 3596   2.849   5.120  12.444 -0.1376  0.0125  1.3140
63957SOL    HW2 3597   2.839   5.057  12.581 -0.5787 -1.7363  0.5000
63958SOL     OW 3598   2.949   3.844   5.643 -0.4883 -0.0658 -0.2626
63958SOL    HW1 3599   2.954   3.939   5.645 -0.3054 -0.0842  0.2554
63958SOL    HW2 3600   2.879   3.822   5.704  0.7136 -0.3400  1.0873
63959SOL     OW 3601  11.043   7.280  10.037  0.2839  0.9756  0.0130
63959SOL    HW1 3602  11.088   7.232   9.968 -0.0370  2.2418 -1.1304
63959SOL    HW2 3603  11.081   7.368  10.034 -0.4398  1.3290  0.7792
63960SOL     OW 3604   2.703   3.769   1.506 -0.5242  0.1566 -0.0914
63960SOL    HW1 3605   2.780   3.813   1.470 -0.7052 -0.3089 -1.1043
63960SOL    HW2 3606   2.667   3.831   1.569  0.5086  0.5024  0.1733
63961SOL     OW 3607  11.578   2.538   7.179 -0.7603  0.6759 -0.5353
63961SOL    HW1 3608  11.571   2.601   7.251  0.2225  1.8121 -1.3801
63961SOL    HW2 3609  11.496   2.489   7.181 -0.2150 -0.3051  2.2029
63962SOL     OW 3610   7.743  11.387  10.393  0.0521  0.1719  0.1172
63962SOL    HW1 3611   7.669  11.370  10.334 -0.2157 -1.6823  0.8915
63962SOL    HW2 3612   7.812  11.327  10.363 -0.1667 -0.9868  1.7528
63963SOL     OW 3613  10.296   0.588  13.057 -0.1026 -0.3214 -0.2046
63963SOL    HW1 3614  10.310   0.677  13.025  1.5638 -0.1400  0.9164
63963SOL    HW2 3615  10.201   0.576  13.053 -0.4652  1.8781  0.5742
63964SOL     OW 3616   5.424  12.168   2.244  0.6410 -0.0960 -0.4057
63964SOL    HW1 3617   5.513  12.132   2.252  0.0573 -2.3274 -2.9525
63964SOL    HW2 3618   5.375  12.102   2.196 -1.5437  2.5387 -2.0758
63965SOL     OW 3619  13.037   5.514   2.026 -0.5706 -0.4389  0.0844
63965SOL    HW1 3620  13.074   5.601   2.045  1.6289 -1.5341  1.2026
63965SOL    HW2 3621  12.968   5.532   1.962  0.8216  2.0036 -0.9264
63966SOL     OW 3622   3.344  11.510   2.970 -0.6205 -0.6715 -0.4732
63966SOL    HW1 3623   3.320  11.428   3.014 -0.5198 -0.8148 -0.6829
63966SOL    HW2 3624   3.354  11.485   2.878 -0.3247 -0.4762 -0.4929
63967SOL     OW 3625   3.165  11.949   6.046  0.1174 -0.0953  0.1423
63967SOL    HW1 3626   3.100  11.895   6.091 -2.7148  0.0789 -3.3013
63967SOL    HW2 3627   3.169  12.029   6.097 -0.6735 -0.9909  1.6803
63968SOL     OW 3628   0.623   6.155  10.085 -0.5345  0.0134 -0.7268
63968SOL    HW1 3629   0.656   6.215  10.018 -0.7627  1.9212  0.7631
63968SOL    HW2 3630   0.700   6.132  10.137 -0.4576 -1.0091 -1.2593
63969SOL     OW 3631   9.451   3.837   0.831 -0.2218 -0.4486 -0.0061
63969SOL    HW1 3632   9.416   3.798   0.911 -1.3397 -1.8651 -1.1196
63969SOL    HW2 3633   9.481   3.762   0.779  1.1452  0.4859 -0.6307
63970SOL     OW 3634  10.115  10.214   3.018  0.1510 -0.2788 -0.3366
63970SOL    HW1 3635  10.134  10.175   3.103 -0.4302 -0.2046 -0.1711
63970SOL    HW2 3636  10.189  10.188   2.963  1.0492  0.5183  0.4573
63971SOL     OW 3637  10.848   3.222   0.984  0.0706  0.0683 -0.2681
63971SOL    HW1 3638  10.868   3.152   1.045 -0.5921  0.3834  0.3269
63971SOL    HW2 3639  10.930   3.272   0.976  0.2183 -0.0971  0.1990
63972SOL     OW 3640   7.953   6.256  12.929  0.5041 -0.2261 -0.1738
63972SOL    HW1 3641   7.992   6.228  12.846  1.2130 -0.9173  0.3807
63972SOL    HW2 3642   7.979   6.348  12.938 -1.3757  0.5400 -1.7387
63973SOL     OW 3643   6.442   0.178   8.330  0.3346 -0.1674  0.3448
63973SOL    HW1 3644   6.376   0.148   8.267  0.1625  1.7475 -0.4501
63973SOL    HW2 3645   6.422   0.270   8.344  2.1730  0.1894  0.9438
63974SOL     OW 3646   0.171  13.516  11.000  0.3596  0.3948 -0.1363
63974SOL    HW1 3647   0.125  13.578  10.943 -0.7818 -0.1770  0.1378
63974SOL    HW2 3648   0.247  13.564  11.031 -0.4241  1.6082 -0.0436
63975SOL     OW 3649   0.568   1.031  11.964  0.5474 -0.2525 -0.0872
63975SOL    HW1 3650   0.526   0.955  12.005  2.1608 -1.6741 -0.9585
63975SOL    HW2 3651   0.659   1.026  11.992  0.8742  0.8646 -0.8863
63976SOL     OW 3652   9.211  11.868  10.553 -0.0258  0.1982 -0.3301
63976SOL    HW1 3653   9.161  11.870  10.634 -0.5991  0.5038 -0.6836
63976SOL    HW2 3654   9.190  11.951  10.509  1.4693  0.7330 -0.0929
63977SOL     OW 3655  12.821   1.902  10.615  0.1741 -0.5751  0.4888
63977SOL    HW1 3656  12.760   1.949  10.558  1.7383  0.9208 -0.0383
63977SOL    HW2 3657  12.794   1.926  10.704 -0.4110 -0.4718  0.2875
63978SOL     OW 3658   0.898  12.075  11.409  0.1839  0.4374  0.2278
63978SOL    HW1 3659   0.849  11.996  11.432  1.2325 -0.7030 -1.2910
63978SOL    HW2 3660   0.980  12.043  11.371  1.6013  2.2818  1.5178
63979SOL     OW 3661   8.872   1.246   4.146 -0.3688  0.4627  0.0365
63979SOL    HW1 3662   8.905   1.282   4.063 -0.2765  0.7098  0.1807
63979SOL    HW2 3663   8.814   1.174   4.119 -0.9256  1.0137 -0.2684
63980SOL     OW 3664  13.294  13.035   4.874 -0.0480  0.1240  0.0329
63980SOL    HW1 3665  13.200  13.015   4.881  0.4482 -2.5199 -0.1095
63980SOL    HW2 3666  13.325  13.032   4.965 -0.1111  1.3402  0.1185
63981SOL     OW 3667   7.735   5.441  12.056  0.7943  0.3269  0.2173
63981SOL    HW1 3668   7.674   5.499  12.101 -0.5118 -1.8379  1.4437
63981SOL    HW2 3669   7.692   5.355  12.059  1.4129 -0.3227 -3.7137
63982SOL     OW 3670   2.442  11.921   1.520 -0.0670 -0.4147  0.6685
63982SOL    HW1 3671   2.534  11.938   1.543 -0.1787  1.2448  0.0437
63982SOL    HW2 3672   2.437  11.826   1.512  1.3397 -0.6174  1.7689
63983SOL     OW 3673   3.768   6.922   4.558  0.7445  0.2568 -0.1875
63983SOL    HW1 3674   3.801   6.866   4.488 -0.9891 -0.4262 -0.5156
63983SOL    HW2 3675   3.769   7.010   4.520  2.8350  0.4027  0.0908
63984SOL     OW 3676   1.684  10.654   3.548 -0.0756  0.0191 -0.3133
63984SOL    HW1 3677   1.659  10.658   3.640 -1.6401 -1.3601 -0.6235
63984SOL    HW2 3678   1.721  10.740   3.529 -1.3851  0.9555  1.1586
63985SOL     OW 3679   1.924   6.784   6.194 -1.1009  0.1508  0.3719
63985SOL    HW1 3680   1.936   6.864   6.246 -1.5021  2.0597 -2.2503
63985SOL    HW2 3681   2.012   6.754   6.174 -0.8991 -1.3912  3.0664
63986SOL     OW 3682   2.879   8.659  10.390  0.3043 -0.1452 -0.2443
63986SOL    HW1 3683   2.864   8.647  10.296  2.6369 -0.8780 -0.5971
63986SOL    HW2 3684   2.859   8.573  10.428 -1.0218  0.2637  0.0018
63987SOL     OW 3685  13.110  10.978  11.876  0.1981  0.0220 -0.5541
63987SOL    HW1 3686  13.116  10.949  11.967  0.8470 -0.6163 -0.7825
63987SOL    HW2 3687  13.194  10.951  11.837 -0.5965 -0.9626 -1.6812
63988SOL     OW 3688   8.550   6.578  12.255  0.2852 -0.2824 -0.2288
63988SOL    HW1 3689   8.640   6.604  12.275  0.5970  0.0988 -1.9617
63988SOL    HW2 3690   8.510   6.657  12.220  0.3481 -1.2727 -2.7388
63989SOL     OW 3691   7.176  11.904   8.154 -0.3028 -0.3864  0.0171
63989SOL    HW1 3692   7.207  11.977   8.207 -0.2086  0.2731 -0.9260
63989SOL    HW2 3693   7.160  11.942   8.067  0.7232 -1.6674 -0.7839
63990SOL     OW 3694   8.263   4.336   6.580 -0.1057 -0.2648  0.3998
63990SOL    HW1 3695   8.196   4.326   6.647 -0.5146 -0.5339 -0.0438
63990SOL    HW2 3696   8.249   4.262   6.521  0.2656 -0.0445  0.0316
63991SOL     OW 3697   3.786   2.072   0.500  0.3399 -0.4439  0.1179
63991SOL    HW1 3698   3.758   2.118   0.421 -2.0062 -0.1172  1.0646
63991SOL    HW2 3699   3.838   2.136   0.548  0.3922 -0.0930 -0.3970
63992SOL     OW 3700   7.537   2.852   9.135 -0.0671  0.2370  0.1438
63992SOL    HW1 3701   7.602   2.893   9.078  0.3922 -0.0406  0.4627
63992SOL    HW2 3702   7.559   2.883   9.223 -1.1806  1.1924  0.1073
63993SOL     OW 3703  13.648   8.316  13.686 -0.4504  0.5273  0.2305
63993SOL    HW1 3704  13.675   8.408  13.680  1.1100  0.0538 -0.3596
63993SOL    HW2 3705  13.571   8.310  13.629 -0.5736  1.4648  0.2851
63994SOL     OW 3706   1.764   6.692  11.482 -0.2544  0.2498 -0.1141
63994SOL    HW1 3707   1.801   6.744  11.553 -0.5198  1.1775 -0.6451
63994SOL    HW2 3708   1.804   6.728  11.403  0.5111 -1.1734 -0.4074
63995SOL     OW 3709   5.639   0.799  10.385 -0.1166  0.1651 -0.3864
63995SOL    HW1 3710   5.559   0.841  10.356 -1.6526 -2.4166 -0.1624
63995SOL    HW2 3711   5.616   0.758  10.469  1.2430 -1.0547 -0.5616
63996SOL     OW 3712  13.572   9.320   0.087 -0.3466 -0.3219  0.1802
63996SOL    HW1 3713  13.522   9.263   0.146  2.1353 -1.5219  1.2612
63996SOL    HW2 3714  13.567   9.407   0.126 -0.4065 -0.7110  1.0548
63997SOL     OW 3715   1.011  11.372   4.570 -0.4463 -0.2006 -0.0154
63997SOL    HW1 3716   0.992  11.299   4.629 -0.4186  1.4271  2.1543
63997SOL    HW2 3717   0.973  11.448   4.614  1.2723  1.4041 -1.1693
63998SOL     OW 3718   6.853   6.939   5.971 -0.2229 -0.4785  0.2926
63998SOL    HW1 3719   6.800   6.860   5.980  0.8837 -1.5217 -1.6974
63998SOL    HW2 3720   6.897   6.929   5.887  0.1393  2.1701  0.0833
63999SOL     OW 3721   6.398   9.828   3.414  0.1041 -0.7227 -0.1059
63999SOL    HW1 3722   6.371   9.861   3.328 -0.1349  0.2616  0.3336
63999SOL    HW2 3723   6.423   9.737   3.398 -0.2559 -0.6500 -1.1546
64000SOL     OW 3724   8.111  10.219   3.780 -0.2062  0.3221 -0.3480
64000SOL    HW1 3725   8.120  10.275   3.703  0.3794 -2.0564 -2.1239
64000SOL    HW2 3726   8.199  10.214   3.817 -0.1124  0.0427 -0.6032
64001SOL     OW 3727   8.429   6.337  13.405  0.6400 -0.5090  0.0568
64001SOL    HW1 3728   8.416   6.258  13.353 -1.9462  0.0667 -0.2850
64001SOL    HW2 3729   8.507   6.378  13.367  0.0676 -1.1911 -1.9809
64002SOL     OW 3730   2.579  10.897  12.400 -0.7246  0.4521  0.8066
64002SOL    HW1 3731   2.518  10.946  12.345 -0.0688  1.3386  0.8444
64002SOL    HW2 3732   2.601  10.819  12.350 -0.1154  1.2567 -0.2155
64003SOL     OW 3733   7.232   7.273   8.629 -0.2436  0.1524 -0.4371
64003SOL    HW1 3734   7.188   7.188   8.632  0.7624 -0.3507  0.7212
64003SOL    HW2 3735   7.214   7.312   8.714  1.7636 -0.2010  0.2013
64004SOL     OW 3736   3.307  11.478   8.305 -0.3133  0.0957 -0.3532
64004SOL    HW1 3737   3.342  11.453   8.391 -1.0330  2.4024  0.7063
64004SOL    HW2 3738   3.231  11.421   8.292 -1.3542  0.9559  1.4927
64005SOL     OW 3739   3.067  12.347   3.309  0.0846 -0.4851 -0.3805
64005SOL    HW1 3740   2.975  12.333   3.330  0.4377 -1.1504  0.7707
64005SOL    HW2 3741   3.095  12.415   3.370  0.5894 -0.9482 -0.0903
64006SOL     OW 3742   7.146   9.847   4.824 -0.5195  1.0856  0.3459
64006SOL    HW1 3743   7.150   9.753   4.842  1.1909  1.5207  2.6783
64006SOL    HW2 3744   7.150   9.854   4.729  0.5022 -1.1634  0.1848
64007SOL     OW 3745   2.082   5.385   8.383 -0.4333  0.1986  0.0342
64007SOL    HW1 3746   2.057   5.445   8.313 -1.1507 -0.2883 -0.1335
64007SOL    HW2 3747   2.002   5.370   8.433 -0.2539 -0.5389  0.1237
64008SOL     OW 3748   3.306   2.176   2.286 -0.2941  0.3641 -0.8770
64008SOL    HW1 3749   3.335   2.168   2.377 -2.2713  0.3880 -0.1846
64008SOL    HW2 3750   3.291   2.086   2.258  0.9377  0.3175 -1.4166
64009SOL     OW 3751   1.113   6.873   1.255 -0.0349 -0.0493 -0.1726
64009SOL    HW1 3752   1.195   6.909   1.290  0.7062 -0.7943 -1.0846
64009SOL    HW2 3753   1.063   6.847   1.332  1.7804 -2.1465  0.3923
64010SOL     OW 3754   2.495   7.942   5.743 -0.2502  0.3785 -0.3400
64010SOL    HW1 3755   2.408   7.977   5.759 -0.2454  0.6369 -0.8542
64010SOL    HW2 3756   2.541   7.952   5.827 -0.2750  1.5485 -0.4464
64011SOL     OW 3757   9.526   1.870   7.493 -0.4192 -0.2403  0.8934
64011SOL    HW1 3758   9.609   1.856   7.539 -0.7977  0.5083  1.8466
64011SOL    HW2 3759   9.481   1.937   7.545 -0.8498  0.6862 -0.6314
64012SOL     OW 3760   3.606  13.641   7.285  0.6741 -0.1958 -0.4086
64012SOL    HW1 3761   3.571  13.718   7.240  1.9911  1.2753  0.9696
64012SOL    HW2 3762   3.666  13.602   7.222  0.5447  0.3192 -0.8582
64013SOL     OW 3763   4.774  13.472   1.983  0.1302  0.4818 -0.1966
64013SOL    HW1 3764   4.836  13.469   1.910 -0.2810 -1.7889 -0.5033
64013SOL    HW2 3765   4.718  13.547   1.962  0.3289  0.1860 -1.9762
64014SOL     OW 3766   9.266   4.708   3.962 -0.0233 -0.5636  0.7312
64014SOL    HW1 3767   9.295   4.629   4.007 -0.6109 -1.3021 -0.1473
64014SOL    HW2 3768   9.176   4.721   3.991  1.1319  2.0033  3.8429
64015SOL     OW 3769   4.962  13.055   2.700  0.0660  0.5529 -0.5851
64015SOL    HW1 3770   5.044  13.007   2.691 -0.8535 -1.4113  0.6562
64015SOL    HW2 3771   4.960  13.081   2.793 -1.6901 -1.4968  0.0310
64016SOL     OW 3772  10.703   5.138   1.378  0.6963  0.3578 -0.5004
64016SOL    HW1 3773  10.716   5.044   1.366  1.1173 -0.0805  2.6068
64016SOL    HW2 3774  10.774   5.178   1.328  1.4049 -1.0706 -0.6902
64017SOL     OW 3775   9.158  11.181   2.336 -0.3803  0.2909  0.5343
64017SOL    HW1 3776   9.146  11.194   2.242  0.6369  0.7867  0.4519
64017SOL    HW2 3777   9.127  11.262   2.376 -4.6408 -1.3517  1.0458
64018SOL     OW 3778  10.023   9.430   8.542 -0.3803 -0.1431  0.4919
64018SOL    HW1 3779   9.975   9.512   8.531 -0.2981 -0.1054  0.4109
64018SOL    HW2 3780  10.058   9.411   8.455  0.6214  0.3734  0.7689
64019SOL     OW 3781   0.341   9.099   7.763 -0.5529  0.6856 -0.0092
64019SOL    HW1 3782   0.275   9.054   7.817 -1.0919  1.0136 -0.3850
64019SOL    HW2 3783   0.411   9.120   7.824  0.6080 -2.3460 -0.1767
64020SOL     OW 3784   8.880  13.304   8.778 -0.4266  0.0591 -0.1203
64020SOL    HW1 3785   8.808  13.290   8.840  0.1100  0.7527  0.6914
64020SOL    HW2 3786   8.877  13.397   8.759 -0.6430 -0.1692 -1.2375
64021SOL     OW 3787   2.934  10.799  10.737 -0.1958  0.0855 -0.3101
64021SOL    HW1 3788   2.842  10.801  10.762  0.1071  1.8470  0.8384
64021SOL    HW2 3789   2.980  10.774  10.817  0.5311  2.3940  0.0675
64022SOL     OW 3790   0.591   8.386  12.765 -0.1366 -0.0082 -0.0612
64022SOL    HW1 3791   0.588   8.312  12.704 -1.0385 -1.5584  1.7461
64022SOL    HW2 3792   0.671   8.433  12.741  0.0421 -1.0901 -1.7940
64023SOL     OW 3793   2.563  10.333   7.582 -0.4265  0.5467  0.3974
64023SOL    HW1 3794   2.659  10.332   7.585 -0.3874  2.2387  0.5996
64023SOL    HW2 3795   2.542  10.401   7.518 -1.5070 -0.1258  0.0070
64024SOL     OW 3796  11.645   2.284  10.097 -0.5611  0.4324  0.3460
64024SOL    HW1 3797  11.679   2.365  10.059  0.7831 -0.0004  0.5406
64024SOL    HW2 3798  11.711   2.259  10.162  0.8998 -2.5736 -2.0235
64025SOL     OW 3799   5.217   2.646   3.197 -0.4118  0.5352 -0.7206
64025SOL    HW1 3800   5.140   2.683   3.239 -0.5876 -0.2194 -0.3642
64025SOL    HW2 3801   5.183   2.603   3.118 -0.3329  0.3320 -0.6428
64026SOL     OW 3802  10.483   4.413   1.542  0.7666  0.3006  0.6213
64026SOL    HW1 3803  10.493   4.484   1.478 -2.3313  1.3823  1.1606
64026SOL    HW2 3804  10.474   4.334   1.490  2.2007  0.5729 -0.0756
64027SOL     OW 3805   8.107   3.786  12.566  0.0846 -0.1663 -0.3199
64027SOL    HW1 3806   8.018   3.752  12.566  0.1472 -0.3318 -0.3643
64027SOL    HW2 3807   8.119   3.823  12.653  0.1950 -0.7360 -0.0904
64028SOL     OW 3808  10.194  10.311   5.764  0.2635  0.6198  0.3148
64028SOL    HW1 3809  10.126  10.249   5.792  0.0862  0.4459 -0.4880
64028SOL    HW2 3810  10.146  10.382   5.723  0.4554  1.4011  1.3949
64029SOL     OW 3811   0.822   8.227   1.138  0.2994 -0.2730  0.2146
64029SOL    HW1 3812   0.751   8.287   1.158 -0.2702  0.0840 -2.6024
64029SOL    HW2 3813   0.836   8.235   1.044  1.8189 -2.8054  0.1259
64030SOL     OW 3814   8.447   7.845  12.953 -0.0800  0.2323  0.0783
64030SOL    HW1 3815   8.414   7.800  13.031 -1.2924 -0.8431 -1.0059
64030SOL    HW2 3816   8.394   7.925  12.948  0.3208  0.5351  0.6013
64031SOL     OW 3817   0.292   2.267   5.697 -0.1064  0.1143  0.1335
64031SOL    HW1 3818   0.380   2.238   5.722  0.4318  1.5940  0.0143
64031SOL    HW2 3819   0.263   2.203   5.632  1.0213 -0.1886 -0.0788
64032SOL     OW 3820   5.968  11.611   3.872  0.3829 -0.0123  0.3961
64032SOL    HW1 3821   5.943  11.628   3.781 -0.7114 -0.9557  0.4966
64032SOL    HW2 3822   5.976  11.515   3.877 -1.6109 -0.1681  1.7562
64033SOL     OW 3823   5.497   1.443  11.781 -0.4046  0.1476 -0.2402
64033SOL    HW1 3824   5.583   1.403  11.777 -0.2759  0.3661  0.3312
64033SOL    HW2 3825   5.453   1.413  11.702  0.3287  0.3433 -0.7319
64034SOL     OW 3826   3.711   1.179  13.706 -0.1343  0.1048  0.2002
64034SOL    HW1 3827   3.806   1.173  13.709 -0.2012 -1.1903  0.4012
64034SOL    HW2 3828   3.689   1.160  13.615 -0.2528 -0.6921  0.3914
64035SOL     OW 3829   5.040   8.423  11.167  0.2536  0.0398 -0.2053
64035SOL    HW1 3830   5.090   8.347  11.136 -1.0895 -0.4576 -1.2220
64035SOL    HW2 3831   5.038   8.411  11.262  0.3449 -1.0246 -0.3165
64036SOL     OW 3832   5.288  10.917   2.612  0.1293  0.0773 -0.7056
64036SOL    HW1 3833   5.369  10.952   2.573  0.8401 -2.7496 -2.0667
64036SOL    HW2 3834   5.219  10.945   2.551  0.1440  1.7886  0.0075
64037SOL     OW 3835  11.009   4.078   8.432  0.0833 -0.3664 -0.2143
64037SOL    HW1 3836  11.011   4.174   8.437 -0.2213 -0.3937  0.5400
64037SOL    HW2 3837  11.020   4.059   8.339  0.1562  0.4036 -0.3697
64038SOL     OW 3838   3.335   5.524  10.865  0.0709 -0.0934 -0.8456
64038SOL    HW1 3839   3.302   5.602  10.820 -0.8204 -0.0980 -0.2216
64038SOL    HW2 3840   3.257   5.476  10.891  0.6064 -1.0414 -0.9233
64039SOL     OW 3841   7.464   3.815   2.761 -0.3338  0.1433 -0.0542
64039SOL    HW1 3842   7.374   3.845   2.772  0.0397  0.8442  1.2292
64039SOL    HW2 3843   7.504   3.880   2.704 -0.2808  0.5695  0.4664
64040SOL     OW 3844   3.416   7.843   2.942 -0.6362 -0.3440  0.0253
64040SOL    HW1 3845   3.376   7.920   2.981  0.6945  1.0763 -1.2490
64040SOL    HW2 3846   3.343   7.784   2.925 -1.8516  1.0867  0.0405
64041SOL     OW 3847  11.280   2.559   0.693  0.2296  0.5598 -0.1704
64041SOL    HW1 3848  11.246   2.614   0.623 -1.0910 -0.6294 -0.5132
64041SOL    HW2 3849  11.375   2.572   0.690  0.0540  1.7599 -1.1107
64042SOL     OW 3850   3.013  11.383   7.986 -0.1606 -0.2919 -0.5665
64042SOL    HW1 3851   3.037  11.441   7.913 -0.0868 -0.0301 -0.3344
64042SOL    HW2 3852   2.952  11.435   8.039  1.1290  0.1623  0.5129
64043SOL     OW 3853  12.544   0.846   0.018 -0.0259  0.4696 -0.1884
64043SOL    HW1 3854  12.451   0.846   0.042 -0.0877  0.1366 -0.4137
64043SOL    HW2 3855  12.565   0.938   0.004 -0.4702  0.5012 -0.7038
64044SOL     OW 3856   6.141   7.328  12.248  0.2979 -0.0266  0.4360
64044SOL    HW1 3857   6.125   7.251  12.193 -0.8991  1.4375 -1.3984
64044SOL    HW2 3858   6.231   7.353  12.229  0.3514 -0.3668  0.2287
64045SOL     OW 3859   8.376  11.581   7.890  0.2346  0.0260 -0.3960
64045SOL    HW1 3860   8.398  11.511   7.830  1.6982 -0.0086  0.1375
64045SOL    HW2 3861   8.404  11.549   7.976 -0.2727  0.7418  0.0478
64046SOL     OW 3862   0.908   9.556   4.181 -0.1662 -0.3887 -0.3313
64046SOL    HW1 3863   0.855   9.486   4.221  0.7341  0.2061  2.0759
64046SOL    HW2 3864   0.977   9.572   4.245 -0.0574  2.3697 -1.0544
64047SOL     OW 3865   1.689  10.115   4.862 -0.9376 -0.1024 -0.5150
64047SOL    HW1 3866   1.664  10.055   4.932  2.9778 -1.5838 -0.1449
64047SOL    HW2 3867   1.681  10.202   4.901 -0.3752 -0.8138  1.2882
64048SOL     OW 3868   6.289  11.560  11.455  0.2365 -0.1622  0.0251
64048SOL    HW1 3869   6.212  11.503  11.449  0.0275  0.1764 -0.5697
64048SOL    HW2 3870   6.280  11.603  11.540 -0.9997  0.9368 -0.6221
64049SOL     OW 3871   8.853   4.844   1.049  0.2999 -0.4368  0.6443
64049SOL    HW1 3872   8.865   4.891   0.967  0.8786 -0.7007  0.5758
64049SOL    HW2 3873   8.935   4.858   1.097 -0.8985  1.8080  2.2616
64050SOL     OW 3874   0.589  11.406   8.261 -0.4041  0.0770  0.1166
64050SOL    HW1 3875   0.614  11.498   8.248  0.6799 -0.3175 -0.8002
64050SOL    HW2 3876   0.549  11.380   8.178 -1.7626  0.0149  0.7605
64051SOL     OW 3877   1.750  12.931   2.187 -0.2413  0.5325 -0.2997
64051SOL    HW1 3878   1.675  12.873   2.176  0.3576 -0.1873 -0.6395
64051SOL    HW2 3879   1.769  12.926   2.281 -0.4607  0.5287 -0.2531
64052SOL     OW 3880   3.040  13.485  13.218  0.3525 -0.3258  0.2505
64052SOL    HW1 3881   3.121  13.459  13.173 -0.3496  0.3380 -1.4866
64052SOL    HW2 3882   3.003  13.554  13.163 -0.2138  1.0537  2.2789
64053SOL     OW 3883  11.291   4.043   2.014 -0.5563  0.1109  0.4637
64053SOL    HW1 3884  11.243   3.971   2.056 -0.5943 -0.4187 -0.4560
64053SOL    HW2 3885  11.334   4.002   1.939 -0.9932  1.1475 -0.3749
64054SOL     OW 3886  10.870  10.013   2.780  0.1211  0.1294 -0.2630
64054SOL    HW1 3887  10.935  10.079   2.803 -1.1214  1.1780  0.3796
64054SOL    HW2 3888  10.891   9.937   2.834  0.5289  0.6225  0.2758
64055SOL     OW 3889   8.357   9.753   8.586 -0.7788 -0.2615 -0.3547
64055SOL    HW1 3890   8.401   9.684   8.536 -0.4971  0.3428 -0.9715
64055SOL    HW2 3891   8.379   9.833   8.538 -0.7850  0.2968  0.5646
64056SOL     OW 3892  12.462   7.096   7.829 -0.0811 -0.3396 -0.3692
64056SOL    HW1 3893  12.407   7.155   7.779  1.1563 -0.0172 -1.4147
64056SOL    HW2 3894  12.515   7.051   7.763  1.0058 -0.5187  0.5867
64057SOL     OW 3895   8.534  13.166   2.116 -0.0670  0.7689  0.4665
64057SOL    HW1 3896   8.499  13.205   2.196 -0.4000 -1.2115  1.3691
64057SOL    HW2 3897   8.583  13.089   2.147 -1.2855 -0.7856 -1.2665
64058SOL     OW 3898   1.136  10.144  10.982 -0.5659  0.1572 -0.1171
64058SOL    HW1 3899   1.054  10.167  11.027 -0.3650 -0.6701  0.7172
64058SOL    HW2 3900   1.183  10.227  10.974 -1.9441  0.8449 -1.6292
64059SOL     OW 3901   1.723  12.990   6.531  0.2392  0.4827  0.1737
64059SOL    HW1 3902   1.656  12.992   6.463 -0.0973 -0.0546  0.4797
64059SOL    HW2 3903   1.723  13.078   6.568 -0.1748  0.5379  0.0492
64060SOL     OW 3904   8.807   5.022   1.840 -0.0395  0.1547  0.2258
64060SOL    HW1 3905   8.778   5.004   1.751 -1.3429  2.0986  0.1915
64060SOL    HW2 3906   8.837   4.938   1.874 -0.3812 -0.7901 -1.7322
64061SOL     OW 3907  12.703   9.961   3.300  0.3887 -0.0357 -0.0422
64061SOL    HW1 3908  12.629   9.927   3.250  1.3701 -1.1270 -0.8423
64061SOL    HW2 3909  12.777   9.953   3.239  1.1941  0.7774  0.8211
64062SOL     OW 3910  10.662   6.261  12.189 -0.3502  0.5311  0.0544
64062SOL    HW1 3911  10.686   6.181  12.237 -0.6391  0.9808  0.9704
64062SOL    HW2 3912  10.728   6.268  12.120  0.1537 -0.0656  0.4636
64063SOL     OW 3913   6.398   5.251   5.365  0.1231  0.1934  1.0714
64063SOL    HW1 3914   6.417   5.343   5.384 -1.7856  1.3079 -1.7074
64063SOL    HW2 3915   6.468   5.224   5.306 -1.0279  0.9713 -0.7280
64064SOL     OW 3916  13.122   1.598   0.651 -0.1107 -0.0502 -0.2062
64064SOL    HW1 3917  13.095   1.655   0.724 -2.6082 -0.0383 -1.0626
64064SOL    HW2 3918  13.141   1.514   0.692 -3.1733 -0.5652  0.3813
64065SOL     OW 3919   3.931   4.812   1.309 -0.1922 -0.2674  0.3347
64065SOL    HW1 3920   3.913   4.860   1.390 -0.2645 -0.6760  0.5623
64065SOL    HW2 3921   3.891   4.865   1.241 -1.5104 -0.7070  0.7335
64066SOL     OW 3922   8.300   2.496  10.526  0.3156 -0.9719 -0.2334
64066SOL    HW1 3923   8.331   2.414  10.487 -2.8113 -1.3504 -2.3310
64066SOL    HW2 3924   8.217   2.513  10.482 -0.1042  2.3574  1.5295
64067SOL     OW 3925   0.732   0.656   4.666 -0.3829  0.5679  0.7489
64067SOL    HW1 3926   0.763   0.656   4.757 -2.3331 -0.9441  1.4964
64067SOL    HW2 3927   0.800   0.609   4.618 -0.5536 -1.0041  1.9588
64068SOL     OW 3928   4.014   6.904   8.137 -0.5151  0.4222  0.5085
64068SOL    HW1 3929   4.094   6.871   8.096 -0.2639  1.2089  0.3584
64068SOL    HW2 3930   3.946   6.841   8.111  0.2235 -0.8407  1.4734
64069SOL     OW 3931   1.125   2.052   8.650 -0.1281 -0.9838  0.0651
64069SOL    HW1 3932   1.033   2.041   8.673 -0.1496 -3.4819 -0.8744
64069SOL    HW2 3933   1.125   2.121   8.583 -1.0235  0.4269  1.4609
64070SOL     OW 3934  11.878   9.178  12.424  0.2667 -0.2301  0.2225
64070SOL    HW1 3935  11.954   9.232  12.443 -0.3809  0.1505  1.9386
64070SOL    HW2 3936  11.903   9.127  12.346  1.4736  1.3600 -0.4878
64071SOL     OW 3937   2.390   7.228   6.883 -0.2555  0.4307 -0.5464
64071SOL    HW1 3938   2.475   7.186   6.872 -1.3670 -2.0127 -0.4352
64071SOL    HW2 3939   2.351   7.225   6.795 -0.4375  1.0930 -0.4950
64072SOL     OW 3940   3.522   8.267   9.360  0.3214 -0.3131  0.0622
64072SOL    HW1 3941   3.614   8.259   9.337  0.0984  1.4109 -1.7033
64072SOL    HW2 3942   3.503   8.360   9.354 -0.7115 -0.0742  4.1207
64073SOL     OW 3943   7.035   9.295  13.346 -0.4146 -0.2727 -0.3742
64073SOL    HW1 3944   6.971   9.226  13.360 -0.2222 -0.3959 -0.0717
64073SOL    HW2 3945   7.097   9.285  13.419  0.4693 -0.7478 -1.1617
64074SOL     OW 3946  12.023   7.932   9.810 -0.0621 -0.6961 -0.2717
64074SOL    HW1 3947  12.025   7.914   9.904  1.8154  0.3378 -0.0630
64074SOL    HW2 3948  12.083   7.867   9.773  2.0938  1.1862 -0.2472
64075SOL     OW 3949   7.184   1.238  12.971 -0.0428  0.2713  0.1245
64075SOL    HW1 3950   7.156   1.239  12.879 -0.0807  2.4422  0.1211
64075SOL    HW2 3951   7.273   1.203  12.968  0.3021  1.1856 -0.8753
64076SOL     OW 3952   5.886   0.057   4.922 -0.2585  0.3463  0.1096
64076SOL    HW1 3953   5.839  -0.024   4.942  1.8364 -0.8754  0.4280
64076SOL    HW2 3954   5.876   0.068   4.827 -1.2963  0.2197  0.1994
64077SOL     OW 3955   4.261  12.867   0.226 -0.5959 -0.3504 -0.7277
64077SOL    HW1 3956   4.258  12.771   0.218 -3.4210 -0.4037  0.0220
64077SOL    HW2 3957   4.255  12.883   0.320 -1.5112  0.5605 -0.9312
64078SOL     OW 3958   4.708   7.740  11.611  0.3714 -0.1120 -0.1465
64078SOL    HW1 3959   4.784   7.797  11.601 -0.5560  1.0965 -0.6502
64078SOL    HW2 3960   4.689   7.741  11.705  1.3963 -1.0263  0.0908
64079SOL     OW 3961   3.075   1.107   6.450  0.2993 -0.1451  0.1360
64079SOL    HW1 3962   3.078   1.012   6.459  0.9110 -0.3251 -1.6187
64079SOL    HW2 3963   3.055   1.122   6.357 -0.1969  1.4409  0.4608
64080SOL     OW 3964  11.704  10.783  11.661 -0.0917 -0.5535 -0.0700
64080SOL    HW1 3965  11.794  10.806  11.637 -0.4985  1.4878  0.2024
64080SOL    HW2 3966  11.713  10.738  11.745  0.6969 -0.7516 -0.2483
64081SOL     OW 3967   8.874   9.188   1.644  0.4693  0.1835 -0.1975
64081SOL    HW1 3968   8.827   9.125   1.698 -1.5424 -0.1103 -2.1377
64081SOL    HW2 3969   8.811   9.260   1.632  1.3647  0.8450 -1.0454
64082SOL     OW 3970   9.243   1.806  12.957  0.7281  0.5335  0.2540
64082SOL    HW1 3971   9.274   1.796  13.047  0.4066  0.3632  0.3463
64082SOL    HW2 3972   9.306   1.865  12.916  1.5329 -0.2973  0.2622
64083SOL     OW 3973   0.343   7.552  10.064 -0.5632 -0.2187  0.1550
64083SOL    HW1 3974   0.320   7.644  10.079 -1.8619 -0.4930  0.0157
64083SOL    HW2 3975   0.367   7.548   9.972  0.2144  0.1091  0.3375
64084SOL     OW 3976   0.673   7.875  10.743  0.1384  0.2317  0.1417
64084SOL    HW1 3977   0.648   7.955  10.696  2.0363  0.6258 -0.2604
64084SOL    HW2 3978   0.746   7.840  10.692  0.6896 -0.6177  1.4908
64085SOL     OW 3979   6.216   1.012   3.525 -0.2204 -0.8714  0.2342
64085SOL    HW1 3980   6.133   0.965   3.532  0.5142 -2.1330  0.8326
64085SOL    HW2 3981   6.271   0.955   3.471  0.1990  0.0711 -0.3682
64086SOL     OW 3982   6.115   2.190   9.191  0.2227 -0.1990  0.3383
64086SOL    HW1 3983   6.140   2.212   9.281  2.2818 -1.3806  0.1173
64086SOL    HW2 3984   6.053   2.258   9.166  0.0119  0.4637  2.4670
64087SOL     OW 3985   8.590  12.611  11.504 -0.3685  0.5757 -0.3088
64087SOL    HW1 3986   8.669  12.604  11.558  0.6361 -0.2238 -1.8178
64087SOL    HW2 3987   8.614  12.569  11.421 -2.0834  1.1601 -1.1368
64088SOL     OW 3988  10.037   8.512   8.716 -0.1952  0.1800  0.0211
64088SOL    HW1 3989  10.064   8.458   8.790 -0.9647 -0.1067  0.1011
64088SOL    HW2 3990   9.944   8.531   8.733  0.2504  2.1935  0.3935
64089SOL     OW 3991  10.201   2.594   1.393 -0.4423 -0.2331  0.4077
64089SOL    HW1 3992  10.212   2.685   1.365 -1.9381  0.0437  0.6316
64089SOL    HW2 3993  10.181   2.600   1.487 -2.6511 -0.5861  0.0205
64090SOL     OW 3994  12.071   2.930  11.712  0.1068  0.5781  0.1308
64090SOL    HW1 3995  12.082   2.933  11.807  0.7765  0.4348  0.0577
64090SOL    HW2 3996  12.109   3.012  11.680  2.1504 -0.4604 -0.2293
64091SOL     OW 3997  11.404   0.698   4.750  0.0161 -0.2355 -0.5298
64091SOL    HW1 3998  11.323   0.685   4.799 -0.8871 -2.3890 -2.4407
64091SOL    HW2 3999  11.391   0.779   4.702 -1.4633 -1.0155 -1.5315
64092SOL     OW 4000   8.749   0.087   5.054 -0.4339 -0.0732 -0.2582
64092SOL    HW1 4001   8.699   0.008   5.034 -0.5820  0.4810 -2.1928
64092SOL    HW2 4002   8.826   0.083   4.997 -0.1622  0.9163  0.0089
64093SOL     OW 4003   4.788   1.388   6.335  0.2287 -0.5186 -0.0701
64093SOL    HW1 4004   4.882   1.395   6.348 -0.0283  0.8330  1.2214
64093SOL    HW2 4005   4.778   1.375   6.240  1.6309  0.8674 -0.4376
64094SOL     OW 4006   9.789   0.636   9.000  0.2933  0.0589  0.0921
64094SOL    HW1 4007   9.796   0.597   9.087  1.0269  0.5527  0.2628
64094SOL    HW2 4008   9.807   0.729   9.013  1.1993  0.0138 -0.6823
64095SOL     OW 4009  12.450   2.527   5.937  0.5836  0.1373 -0.5386
64095SOL    HW1 4010  12.501   2.538   5.857  0.4482  0.9317 -0.5248
64095SOL    HW2 4011  12.389   2.601   5.937 -0.1781 -0.4783 -0.2673
64096SOL     OW 4012  12.727   6.395   1.904 -0.5583  0.2610 -0.3898
64096SOL    HW1 4013  12.727   6.443   1.987 -0.4133 -0.4541  0.0285
64096SOL    HW2 4014  12.729   6.303   1.929  0.3111  0.0415 -1.1910
64097SOL     OW 4015  12.790  10.587   9.217  0.1606 -0.2182 -0.9792
64097SOL    HW1 4016  12.815  10.495   9.215  1.2585 -0.0508  1.4072
64097SOL    HW2 4017  12.873  10.635   9.209 -0.2406  0.5209 -0.8368
64098SOL     OW 4018   1.036   2.553   4.048  0.3034  0.3206 -0.1767
64098SOL    HW1 4019   0.957   2.507   4.019 -0.1126  0.2703  0.9960
64098SOL    HW2 4020   1.090   2.559   3.969  0.3151 -2.0508 -0.4201
64099SOL     OW 4021   1.083   8.034   2.797 -0.3046  0.2164  0.2173
64099SOL    HW1 4022   1.164   8.006   2.841  0.6508 -0.1245 -1.6470
64099SOL    HW2 4023   1.039   7.952   2.774  0.7040  0.2292 -2.0364
64100SOL     OW 4024   1.081   8.741  11.954  0.0499  0.0312  0.3246
64100SOL    HW1 4025   1.031   8.822  11.948  2.5792  1.7493  0.7181
64100SOL    HW2 4026   1.064   8.696  11.871 -2.0664  0.5184  0.4507
64101SOL     OW 4027   5.371   4.739   6.905 -0.0684  0.3037  0.0889
64101SOL    HW1 4028   5.453   4.727   6.954  0.3491  1.6446 -0.2454
64101SOL    HW2 4029   5.305   4.754   6.973 -0.3097 -1.9424  0.4323
64102SOL     OW 4030   8.868   2.163   3.265  0.3701 -0.0301 -0.4574
64102SOL    HW1 4031   8.958   2.189   3.284  0.0261 -0.2865  1.8556
64102SOL    HW2 4032   8.861   2.167   3.170  2.3897  1.3940 -0.6034
64103SOL     OW 4033   5.482   7.712   9.466 -0.0802  0.2546 -1.1326
64103SOL    HW1 4034   5.494   7.635   9.522  0.2719 -2.3022 -4.4032
64103SOL    HW2 4035   5.392   7.740   9.484  0.2278  0.0219  1.1131
64104SOL     OW 4036   6.592   0.785   4.088 -0.5691  0.5244 -0.4296
64104SOL    HW1 4037   6.573   0.791   4.181 -2.3351  1.4132 -0.8085
64104SOL    HW2 4038   6.671   0.731   4.083 -0.5548  0.2956  1.5515
64105SOL     OW 4039   6.971  13.398   9.047  0.7066  0.2640  0.8077
64105SOL    HW1 4040   7.031  13.441   9.107 -0.2565  2.1332  0.5066
64105SOL    HW2 4041   6.900  13.462   9.034  0.2078 -0.6235 -1.2284
64106SOL     OW 4042   3.044   9.576  10.700  0.2401  0.4809  0.1327
64106SOL    HW1 4043   3.109   9.525  10.749 -0.8829  0.6188  1.8484
64106SOL    HW2 4044   3.082   9.663  10.693  0.1799  0.6075  1.2764
64107SOL     OW 4045   4.159   9.333   4.769 -0.0239  0.6380  0.0044
64107SOL    HW1 4046   4.190   9.274   4.701  1.2093  0.9513  0.2760
64107SOL    HW2 4047   4.229   9.397   4.780 -0.4147  0.8946  1.2089
64108SOL     OW 4048   3.371   9.992  10.499  0.4963  0.1524  0.0709
64108SOL    HW1 4049   3.288   9.948  10.519  1.1906 -0.8783  0.7617
64108SOL    HW2 4050   3.351  10.085  10.506 -0.2968 -0.1063  1.5475
64109SOL     OW 4051   4.045  13.415   5.751 -0.6920  0.3526 -0.2559
64109SOL    HW1 4052   4.007  13.502   5.766 -1.5175 -0.1700  0.8355
64109SOL    HW2 4053   4.134  13.422   5.787 -1.0920  0.4721  0.7481
64110SOL     OW 4054  10.819   8.646  13.433  0.3246  0.0604 -0.3019
64110SOL    HW1 4055  10.849   8.696  13.357 -1.3303 -0.7968 -1.5858
64110SOL    HW2 4056  10.800   8.559  13.398 -4.3473  0.6866  0.1133
64111SOL     OW 4057   9.687  12.506   0.503 -0.4018  0.0311 -0.0020
64111SOL    HW1 4058   9.782  12.512   0.517 -0.6326 -1.4510  3.2240
64111SOL    HW2 4059   9.652  12.585   0.544 -0.6472 -0.3780  0.5904
64112SOL     OW 4060   5.097   9.872   0.746 -0.1194 -0.1382  0.0244
64112SOL    HW1 4061   5.129   9.876   0.836  0.8708 -0.0265 -0.3204
64112SOL    HW2 4062   5.160   9.817   0.700 -0.2872  0.2862 -0.7337
64113SOL     OW 4063   2.476  11.012   4.651  0.8855  0.0212  0.6232
64113SOL    HW1 4064   2.479  11.092   4.599  0.4258 -0.6344 -0.4405
64113SOL    HW2 4065   2.482  11.042   4.742 -0.1119  1.3212  0.2886
64114SOL     OW 4066   5.117  10.767  10.423 -0.4956  0.2105  0.0196
64114SOL    HW1 4067   5.164  10.689  10.394 -1.0164 -0.5905  1.2150
64114SOL    HW2 4068   5.186  10.828  10.451 -0.0702  0.3509 -1.2551
64115SOL     OW 4069   7.837   9.514   7.404 -0.5652  0.1221 -0.2136
64115SOL    HW1 4070   7.756   9.539   7.449 -0.1919  0.8741  0.0433
64115SOL    HW2 4071   7.879   9.596   7.382 -1.4351 -0.1266 -3.3127
64116SOL     OW 4072   7.918  12.892  13.565  0.4230  0.6127 -0.1639
64116SOL    HW1 4073   7.866  12.825  13.521  0.5535  0.2284  0.2571
64116SOL    HW2 4074   7.937  12.855  13.651  1.4077  0.7376 -0.3137
64117SOL     OW 4075   2.926   2.077   0.150  0.4062 -0.3071  0.5808
64117SOL    HW1 4076   2.909   2.170   0.169  1.4721 -0.2030  1.1020
64117SOL    HW2 4077   3.002   2.055   0.204 -0.7395 -1.9064  1.6285
64118SOL     OW 4078  13.358   2.298   9.871 -0.1349 -0.1904  0.1866
64118SOL    HW1 4079  13.439   2.348   9.859 -0.0145 -0.5047 -0.3620
64118SOL    HW2 4080  13.292   2.348   9.823  0.3050 -1.3391 -1.7261
64119SOL     OW 4081  13.000   6.227  12.214 -0.4217 -0.5536 -0.7420
64119SOL    HW1 4082  12.973   6.318  12.217 -1.6174 -0.9233  0.5417
64119SOL    HW2 4083  12.920   6.179  12.192 -0.5262 -1.5233  1.4750
64120SOL     OW 4084  13.535   9.718   9.509  0.2139  0.1061 -0.3478
64120SOL    HW1 4085  13.589   9.640   9.510  0.8181  0.4664 -1.7874
64120SOL    HW2 4086  13.537   9.747   9.418  0.2704  1.9801  0.2076
64121SOL     OW 4087   2.320   6.732   5.385  0.1310  0.1912 -0.4795
64121SOL    HW1 4088   2.271   6.650   5.378  0.3391  0.1168 -1.0486
64121SOL    HW2 4089   2.402   6.716   5.339  1.0584  0.0621  1.1416
64122SOL     OW 4090   6.954   5.933   7.935 -0.3148 -0.4002 -0.7381
64122SOL    HW1 4091   7.009   6.001   7.897  0.6053  0.3064  1.6961
64122SOL    HW2 4092   7.010   5.856   7.938 -0.3704 -0.4422 -0.7824
64123SOL     OW 4093   7.856   7.544   8.347  0.0187 -0.0496 -0.5918
64123SOL    HW1 4094   7.933   7.597   8.327 -0.1042  0.3799  0.0537
64123SOL    HW2 4095   7.869   7.463   8.297  1.1351 -0.1863 -0.1054
64124SOL     OW 4096   4.116  13.695   7.308 -0.1136 -0.2506  0.2634
64124SOL    HW1 4097   4.087  13.651   7.228  2.0027 -0.3739 -0.5167
64124SOL    HW2 4098   4.036  13.714   7.356 -1.4998  0.2639 -2.1129
64125SOL     OW 4099  13.224  10.676   0.014  0.2103 -0.3402  0.3915
64125SOL    HW1 4100  13.291  10.742   0.033  0.9637 -1.0962  0.3986
64125SOL    HW2 4101  13.141  10.724   0.020  0.7269  0.5412  0.6675
64126SOL     OW 4102   5.412   8.477  10.510  0.0035  0.4766  0.8747
64126SOL    HW1 4103   5.404   8.457  10.417 -1.9504 -1.2092  1.3020
64126SOL    HW2 4104   5.369   8.562  10.521  1.3187  1.2724  0.1167
64127SOL     OW 4105   8.589   7.400  12.924  0.4779  0.1335 -0.8306
64127SOL    HW1 4106   8.664   7.352  12.889  0.9644 -0.9370  1.4930
64127SOL    HW2 4107   8.582   7.477  12.869  2.1747 -0.6303 -2.2013
64128SOL     OW 4108  12.261   1.690  10.712 -0.0965  0.0509 -0.0744
64128SOL    HW1 4109  12.227   1.600  10.713  0.8331 -0.3146  0.4844
64128SOL    HW2 4110  12.183   1.745  10.718 -0.6120 -0.7494  1.0076
64129SOL     OW 4111   1.433  10.514   5.826  0.2115 -0.4432  0.0591
64129SOL    HW1 4112   1.506  10.514   5.889  1.0636 -0.7210 -0.8950
64129SOL    HW2 4113   1.458  10.447   5.762 -1.2255 -1.0343  0.0848
64130SOL     OW 4114  12.900   3.170   2.536 -0.4389  0.3516 -0.7395
64130SOL    HW1 4115  12.835   3.191   2.602  0.2428 -1.1426  0.4646
64130SOL    HW2 4116  12.944   3.253   2.517 -0.8992  0.8636  0.3897
64131SOL     OW 4117   7.418  13.318   3.772  0.9223  0.6545 -0.6489
64131SOL    HW1 4118   7.499  13.368   3.776  1.6910 -0.1848 -3.5710
64131SOL    HW2 4119   7.431  13.255   3.702 -2.5517  1.0685 -1.8869
64132SOL     OW 4120  11.052   4.240   6.476 -0.2781  0.1235 -1.0791
64132SOL    HW1 4121  11.080   4.205   6.391  0.2351  0.2229 -0.9516
64132SOL    HW2 4122  11.028   4.331   6.457  0.4727  0.3447 -0.9954
64133SOL     OW 4123   4.228   2.853  11.641  0.6819 -0.4276 -0.1287
64133SOL    HW1 4124   4.231   2.892  11.729 -0.4930 -0.3601 -0.1041
64133SOL    HW2 4125   4.289   2.905  11.589  1.5517 -0.6014  0.6936
64134SOL     OW 4126   8.194   0.419   4.670  0.0045 -0.6708  0.2486
64134SOL    HW1 4127   8.261   0.350   4.669 -0.3456 -1.0077 -0.3085
64134SOL    HW2 4128   8.119   0.380   4.626 -0.6373 -0.3717  1.0453
64135SOL     OW 4129   6.618   8.072   5.290 -0.7421 -0.5625 -0.1906
64135SOL    HW1 4130   6.608   7.997   5.350 -0.4053  0.2370  0.8934
64135SOL    HW2 4131   6.635   8.146   5.347  3.1526 -0.3203 -1.3817
64136SOL     OW 4132   3.842  10.063  12.143 -0.2132 -0.2363 -0.3293
64136SOL    HW1 4133   3.799   9.985  12.178  0.4913 -1.1066 -1.3622
64136SOL    HW2 4134   3.861  10.117  12.220 -1.6907 -0.5657  0.2922
64137SOL     OW 4135   6.459  13.441   5.993  0.3804  0.4177 -0.4375
64137SOL    HW1 4136   6.380  13.432   6.047  0.6340 -1.3203 -0.3211
64137SOL    HW2 4137   6.426  13.447   5.903  0.1168 -0.7946 -0.4346
64138SOL     OW 4138   9.722   9.239   3.345  0.4991  0.0875  0.4674
64138SOL    HW1 4139   9.767   9.301   3.288  0.7860 -1.0201 -0.5450
64138SOL    HW2 4140   9.635   9.277   3.357  2.0706  3.2311  3.9708
64139SOL     OW 4141   9.296   1.181  10.727  0.7237  0.2940 -0.0906
64139SOL    HW1 4142   9.266   1.121  10.796  0.0884  1.8371  1.0555
64139SOL    HW2 4143   9.383   1.149  10.703  0.3320 -1.1771  0.3376
64140SOL     OW 4144   1.543   3.349  10.222 -0.7699  0.3832 -0.2370
64140SOL    HW1 4145   1.501   3.265  10.238 -0.2265  0.2662  0.6398
64140SOL    HW2 4146   1.505   3.380  10.140  0.3501 -1.5755 -1.6016
64141SOL     OW 4147   8.462   2.607   9.365 -0.1233  0.3748 -0.0953
64141SOL    HW1 4148   8.412   2.651   9.434 -1.7898  0.5645 -1.3496
64141SOL    HW2 4149   8.397   2.587   9.297  1.3444 -0.2813 -1.3835
64142SOL     OW 4150   8.316   1.284   0.018  0.3330 -0.8142  0.3980
64142SOL    HW1 4151   8.240   1.227   0.013  0.1055 -0.4795 -0.0019
64142SOL    HW2 4152   8.282   1.365   0.057  0.5193 -0.7192  0.3634
64143SOL     OW 4153  11.324   7.458   8.373  0.9641  0.0521 -0.3355
64143SOL    HW1 4154  11.352   7.490   8.459 -0.0455 -0.2167  0.1101
64143SOL    HW2 4155  11.286   7.372   8.391 -0.0672  0.3683 -0.9008
64144SOL     OW 4156   3.750  11.392   8.757  0.1347 -0.0971 -0.1022
64144SOL    HW1 4157   3.785  11.313   8.796  0.1673  1.2933  2.9754
64144SOL    HW2 4158   3.655  11.378   8.755  0.2745 -1.1283 -1.9761
64145SOL     OW 4159   2.631  12.511   0.316 -0.3775 -0.6026 -0.0368
64145SOL    HW1 4160   2.681  12.591   0.334  0.9176 -1.3690 -0.1275
64145SOL    HW2 4161   2.616  12.473   0.402  0.9417 -1.3885 -0.1386
64146SOL     OW 4162   0.077   5.401   1.376  0.3473 -0.0066 -0.3745
64146SOL    HW1 4163   0.117   5.447   1.450 -0.6336 -0.0284  0.1770
64146SOL    HW2 4164   0.152   5.373   1.323  1.1571 -1.1726  1.2945
64147SOL     OW 4165  12.860  13.251   6.449  0.1450 -0.0606  0.2286
64147SOL    HW1 4166  12.868  13.306   6.371  1.2527 -1.2617 -0.5541
64147SOL    HW2 4167  12.833  13.165   6.414  0.0747 -0.4637  1.2359
64148SOL     OW 4168   5.854  11.518   7.106 -0.0568 -0.5396  0.2765
64148SOL    HW1 4169   5.949  11.514   7.095 -0.0419  0.5938 -0.2431
64148SOL    HW2 4170   5.837  11.479   7.191  0.8924 -0.6517  0.4216
64149SOL     OW 4171  10.174   9.123  13.440 -0.0428  0.1255 -0.5602
64149SOL    HW1 4172  10.161   9.032  13.416 -1.1037  0.1102  0.0481
64149SOL    HW2 4173  10.135   9.132  13.526 -0.3131  1.2512 -0.7757
64150SOL     OW 4174   8.158  13.199   1.383 -0.1430  0.0620  0.3380
64150SOL    HW1 4175   8.140  13.205   1.477  0.5997 -0.0962  0.4985
64150SOL    HW2 4176   8.190  13.286   1.359  0.2841 -0.0824  0.3731
64151SOL     OW 4177   2.051   2.846   4.039 -0.5102  0.3899 -0.6996
64151SOL    HW1 4178   2.102   2.765   4.044 -0.1555  0.6676  0.8825
64151SOL    HW2 4179   2.062   2.876   3.950  0.0839 -0.8433 -1.0666
64152SOL     OW 4180   0.323   4.621   0.680  0.0295 -0.0766 -0.1316
64152SOL    HW1 4181   0.261   4.549   0.688  1.1519 -0.9611  0.9907
64152SOL    HW2 4182   0.406   4.586   0.713  1.1366  1.0772 -1.5221
64153SOL     OW 4183  12.038   3.902   4.581 -0.1487  0.3253 -0.2294
64153SOL    HW1 4184  12.132   3.917   4.588  0.0644 -1.2621  0.8341
64153SOL    HW2 4185  12.028   3.842   4.507 -0.2740  0.1686 -0.0868
64154SOL     OW 4186  12.038  10.225   2.103  0.0912  0.3058  0.3793
64154SOL    HW1 4187  12.084  10.219   2.187  0.0201 -0.4160  0.3654
64154SOL    HW2 4188  12.005  10.137   2.087  0.8824  0.2095 -0.8515
64155SOL     OW 4189   9.457   3.358   8.774  0.3563 -0.1176 -0.0552
64155SOL    HW1 4190   9.387   3.353   8.838  0.5373 -0.4911  0.1152
64155SOL    HW2 4191   9.530   3.310   8.814  1.0994  1.2289  0.2670
64156SOL     OW 4192  12.792   7.034  13.347  0.5216  0.2204  0.2733
64156SOL    HW1 4193  12.698   7.014  13.342  0.2581  1.4601  0.0739
64156SOL    HW2 4194  12.797   7.113  13.399  1.5849 -0.5401  1.3606
64157SOL     OW 4195   5.213   1.893   2.138 -0.3212  0.6201 -0.5444
64157SOL    HW1 4196   5.175   1.817   2.182  0.0911  0.7869  0.1056
64157SOL    HW2 4197   5.186   1.883   2.047  0.8915 -1.0620 -0.7743
64158SOL     OW 4198   5.983   8.160  11.095 -0.0195  0.0650  0.2614
64158SOL    HW1 4199   6.060   8.217  11.085 -0.4447  0.4501 -0.9894
64158SOL    HW2 4200   6.015   8.073  11.070  0.1814  0.0873  0.4312
64159SOL     OW 4201   7.163   0.352   5.044  0.3729 -0.4694  0.7070
64159SOL    HW1 4202   7.086   0.408   5.030  0.2365 -0.9441 -0.5352
64159SOL    HW2 4203   7.131   0.263   5.026  1.8829 -0.4340 -3.0364
64160SOL     OW 4204  10.619  12.285   9.925 -0.0641 -0.1990  0.0488
64160SOL    HW1 4205  10.633  12.375   9.895 -0.8473 -0.0842  0.0177
64160SOL    HW2 4206  10.607  12.292  10.019 -1.7932 -0.0564 -0.1529
64161SOL     OW 4207  13.415   7.713   5.570  0.3800 -0.3655  0.3756
64161SOL    HW1 4208  13.419   7.622   5.599  1.3201 -0.3817  0.2159
64161SOL    HW2 4209  13.459   7.713   5.486 -2.7589 -0.4089 -1.4158
64162SOL     OW 4210  13.386   3.288   9.265 -0.3617 -0.0463  0.1885
64162SOL    HW1 4211  13.365   3.238   9.185  1.1932 -1.2334  0.4565
64162SOL    HW2 4212  13.307   3.339   9.283 -1.3176 -0.9291 -1.2298
64163SOL     OW 4213   5.717   4.214   5.744 -0.0240 -0.3385 -0.0248
64163SOL    HW1 4214   5.651   4.197   5.811 -2.0500  0.5442 -1.6669
64163SOL    HW2 4215   5.721   4.132   5.694 -1.1395  0.1210 -0.9068
64164SOL     OW 4216   8.701  11.156   0.305 -0.1569  0.0339 -0.1533
64164SOL    HW1 4217   8.623  11.180   0.255 -0.9615 -0.8085  0.6633
64164SOL    HW2 4218   8.668  11.115   0.385  1.1190 -1.0246 -0.1202
64165SOL     OW 4219   7.806   3.410   0.528 -0.4896  0.0153 -0.7205
64165SOL    HW1 4220   7.724   3.452   0.500  0.1389 -0.4123 -3.4943
64165SOL    HW2 4221   7.874   3.471   0.501  0.2133 -0.6355 -0.4413
64166SOL     OW 4222  10.956   8.207  12.965 -0.1797 -0.1544  0.0750
64166SOL    HW1 4223  10.921   8.204  13.055  0.3377  1.0174  0.3246
64166SOL    HW2 4224  11.044   8.172  12.973 -0.9975 -2.5472 -0.4585
64167SOL     OW 4225   9.487   9.837   9.108  0.1988  0.3802 -0.2509
64167SOL    HW1 4226   9.569   9.799   9.076  0.2598 -0.2940  0.6637
64167SOL    HW2 4227   9.466   9.905   9.044  1.6195  0.7612 -0.3696
64168SOL     OW 4228   0.769   2.685   0.454  0.4023 -0.5649  0.1028
64168SOL    HW1 4229   0.744   2.778   0.460  1.9040 -0.1371 -0.0167
64168SOL    HW2 4230   0.851   2.685   0.404  0.2619 -1.9949 -0.1633
64169SOL     OW 4231   4.583  12.972   6.057  0.4577  0.7042 -0.5326
64169SOL    HW1 4232   4.594  13.010   5.970  0.7104  0.0429 -0.7932
64169SOL    HW2 4233   4.667  12.929   6.075  0.6910  1.4742  0.3580
64170SOL     OW 4234   0.650  12.553  13.672  0.7602 -0.1363 -0.2496
64170SOL    HW1 4235   0.585  12.520  13.733  1.9602 -1.1210  0.5552
64170SOL    HW2 4236   0.638  12.499  13.593  1.3079 -1.1029  0.3016
64171SOL     OW 4237   6.813  12.628   4.047  0.4637  0.5608  0.6070
64171SOL    HW1 4238   6.874  12.667   4.110  0.6265  4.4980 -1.7225
64171SOL    HW2 4239   6.727  12.658   4.074  0.0747 -0.7641  0.9392
64172SOL     OW 4240   0.231  11.610  10.262 -0.2615 -0.5812 -0.4622
64172SOL    HW1 4241   0.179  11.604  10.342  0.4304  1.1347  0.1646
64172SOL    HW2 4242   0.316  11.642  10.291  0.5582 -1.5507 -1.6948
64173SOL     OW 4243  10.843   3.626   3.797  0.2135 -0.0703 -0.2312
64173SOL    HW1 4244  10.828   3.632   3.702 -1.6603  0.5867  0.0792
64173SOL    HW2 4245  10.849   3.532   3.813 -1.8898 -0.3376 -0.7044
64174SOL     OW 4246   6.391   3.897  12.972  0.7502  0.3390  0.3143
64174SOL    HW1 4247   6.448   3.864  12.902 -0.1442  0.1154 -0.3315
64174SOL    HW2 4248   6.400   3.832  13.042  1.5731  0.5068  0.3736
64175SOL     OW 4249   3.775   4.966   0.658 -0.6843  0.3741  0.7602
64175SOL    HW1 4250   3.759   5.029   0.728 -3.0920  1.3808 -0.5791
64175SOL    HW2 4251   3.703   4.903   0.665 -0.9059  0.4271 -0.6884
64176SOL     OW 4252   3.798   4.657   9.717  0.3402  0.4094  0.5816
64176SOL    HW1 4253   3.858   4.689   9.649 -0.6826  0.1257 -0.5033
64176SOL    HW2 4254   3.790   4.730   9.778 -1.3965  2.0606 -1.4504
64177SOL     OW 4255   5.254   3.128   3.818  0.2662  0.0505  0.1492
64177SOL    HW1 4256   5.325   3.191   3.805 -0.6643  1.2052  0.6014
64177SOL    HW2 4257   5.278   3.081   3.897  0.2207  0.8714  0.6591
64178SOL     OW 4258   9.238   2.922   1.107  0.7222 -0.1946 -0.3077
64178SOL    HW1 4259   9.169   2.888   1.051  0.0946  1.2006 -0.4158
64178SOL    HW2 4260   9.289   2.845   1.131 -1.4410 -1.4405  0.6052
64179SOL     OW 4261   9.357   1.040   5.101 -0.4780 -0.1339  0.0467
64179SOL    HW1 4262   9.452   1.045   5.107 -0.4257 -0.2262 -0.7181
64179SOL    HW2 4263   9.336   1.072   5.014 -1.0215 -1.6152 -0.4080
64180SOL     OW 4264   4.794   7.578  13.538 -0.6038 -0.2079  0.4285
64180SOL    HW1 4265   4.761   7.491  13.518  0.7297 -0.9489  1.2716
64180SOL    HW2 4266   4.747   7.636  13.479 -2.0014 -1.4081  0.3001
64181SOL     OW 4267  11.329   3.062   9.525 -0.2297  0.1582  0.0789
64181SOL    HW1 4268  11.307   3.048   9.433  1.6741  0.5660 -0.4727
64181SOL    HW2 4269  11.258   3.019   9.573 -0.7865 -0.8546 -1.5631
64182SOL     OW 4270   9.108   9.491   6.402 -0.4047 -0.3058  0.0044
64182SOL    HW1 4271   9.108   9.422   6.469 -0.3003 -0.7933 -0.4912
64182SOL    HW2 4272   9.019   9.526   6.404 -0.0880  0.4817  1.2009
64183SOL     OW 4273   6.197   6.739   5.935 -0.0114 -0.2412  0.5173
64183SOL    HW1 4274   6.192   6.815   5.993  0.9488 -0.8115  1.3856
64183SOL    HW2 4275   6.125   6.683   5.964  0.0327 -0.2056  0.7002
64184SOL     OW 4276   6.785  12.121   0.526 -0.7969  0.0085  0.4467
64184SOL    HW1 4277   6.811  12.203   0.570 -1.9287  0.3711  0.4701
64184SOL    HW2 4278   6.845  12.055   0.561  1.0253  1.0386 -0.5397
64185SOL     OW 4279  10.930  13.298   8.582 -0.1900  0.2724  0.0475
64185SOL    HW1 4280  10.969  13.220   8.543  1.2901  0.4533  1.1060
64185SOL    HW2 4281  10.916  13.358   8.509 -0.8122 -0.7489 -0.6909
64186SOL     OW 4282  12.373  12.995  12.885  0.4157 -0.4568 -0.1750
64186SOL    HW1 4283  12.278  12.996  12.899  0.3019 -0.0128 -0.9138
64186SOL    HW2 4284  12.383  12.983  12.791  1.0811  0.1322 -0.1860
64187SOL     OW 4285  13.068  11.485   0.207 -0.1916 -0.1551  0.3886
64187SOL    HW1 4286  13.054  11.403   0.255  0.8720 -0.3388  0.4140
64187SOL    HW2 4287  13.158  11.478   0.173 -0.9050 -0.0543 -1.6772
64188SOL     OW 4288   0.114  10.543  10.264 -0.0192  0.2107  0.3406
64188SOL    HW1 4289   0.154  10.483  10.201  0.0273 -1.1766  1.6286
64188SOL    HW2 4290   0.041  10.493  10.301 -0.4438  1.2337  0.9118
64189SOL     OW 4291   4.637   2.000   9.692 -0.2256 -0.4035  0.0076
64189SOL    HW1 4292   4.725   2.003   9.730 -0.0946  2.0874 -0.3657
64189SOL    HW2 4293   4.652   1.978   9.600 -0.3545 -3.6022  0.6054
64190SOL     OW 4294   7.764   8.411  11.698 -0.3576  0.2036 -0.0507
64190SOL    HW1 4295   7.792   8.324  11.726 -1.8343  0.1217  1.3333
64190SOL    HW2 4296   7.674   8.399  11.667  0.6227  0.6217 -3.4322
64191SOL     OW 4297   1.955   3.814  10.726  0.1188  0.0649 -0.3113
64191SOL    HW1 4298   1.878   3.764  10.700  0.0882 -1.1066  1.8069
64191SOL    HW2 4299   2.029   3.753  10.715  0.2729  0.0131  0.9087
64192SOL     OW 4300   5.384   0.068   7.351 -0.4811 -0.0788 -0.0679
64192SOL    HW1 4301   5.341   0.130   7.410 -1.5181 -2.1262  1.5060
64192SOL    HW2 4302   5.472   0.102   7.339 -0.5665  0.9702  1.8778
64193SOL     OW 4303   1.481   2.358   8.420  0.5084 -0.4634 -0.0234
64193SOL    HW1 4304   1.464   2.306   8.499 -0.6583 -0.8809 -0.5227
64193SOL    HW2 4305   1.423   2.433   8.428 -1.9742 -2.0374 -1.8826
64194SOL     OW 4306  11.625   3.455  13.209  0.0419  0.5445 -0.0378
64194SOL    HW1 4307  11.593   3.494  13.291 -1.1206 -2.8835  1.3085
64194SOL    HW2 4308  11.709   3.417  13.232 -1.2173 -2.2760  0.3003
64195SOL     OW 4309   7.927  12.291   0.752 -0.4811 -0.1606  0.2988
64195SOL    HW1 4310   7.892  12.373   0.718 -0.0590  0.1704  0.6470
64195SOL    HW2 4311   7.969  12.250   0.676 -1.8620 -0.7078 -0.1917
64196SOL     OW 4312   0.705   5.163   4.986  0.4051  0.4490 -0.1832
64196SOL    HW1 4313   0.785   5.177   5.036  1.4975 -2.8585 -0.7903
64196SOL    HW2 4314   0.655   5.099   5.036 -0.1379 -0.2444 -1.5481
64197SOL     OW 4315   2.275   2.708   9.030  0.7000  0.1935  0.1345
64197SOL    HW1 4316   2.324   2.728   9.110  2.0089 -0.3031 -0.5145
64197SOL    HW2 4317   2.201   2.655   9.061  2.1986 -1.6075  0.8742
64198SOL     OW 4318  12.013   6.218   1.006  0.0124  0.2071 -0.1846
64198SOL    HW1 4319  12.059   6.192   0.926  0.9288  0.6698  0.1787
64198SOL    HW2 4320  12.076   6.273   1.054 -0.2959 -0.5350  1.1350
64199SOL     OW 4321  11.646   5.253   4.646  0.1223 -0.1871  0.2400
64199SOL    HW1 4322  11.576   5.263   4.581 -0.2177  0.4725  0.6921
64199SOL    HW2 4323  11.666   5.160   4.645 -0.9460 -0.4385  0.2739
64200SOL     OW 4324   9.387  12.006  10.320  0.3677 -0.2737 -0.3809
64200SOL    HW1 4325   9.456  12.070  10.300  2.3095 -2.2130 -0.3860
64200SOL    HW2 4326   9.409  11.973  10.407 -1.3747 -0.0034  0.1905
64201SOL     OW 4327   4.965  11.080   2.688 -0.1632 -0.1662 -0.4684
64201SOL    HW1 4328   4.997  11.014   2.627 -0.8774 -1.3155  0.3660
64201SOL    HW2 4329   4.990  11.047   2.774 -2.4027 -0.4528  0.1264
64202SOL     OW 4330  13.407  11.085   7.600  0.1951  0.0167 -0.4847
64202SOL    HW1 4331  13.502  11.082   7.601  0.2610  1.4445 -0.0687
64202SOL    HW2 4332  13.380  11.022   7.667  1.0216  2.5467  2.4538
64203SOL     OW 4333   8.656  10.940   6.388  0.1602  0.2959 -0.0302
64203SOL    HW1 4334   8.709  11.000   6.441 -1.4782  2.1130 -0.3472
64203SOL    HW2 4335   8.569  10.979   6.388 -1.2143 -2.5544  0.4088
64204SOL     OW 4336   9.950   3.613  10.864  0.8707 -0.1927 -0.1203
64204SOL    HW1 4337  10.046   3.607  10.871  0.7075 -2.2892  1.4586
64204SOL    HW2 4338   9.925   3.533  10.817 -0.2003 -0.7931  1.3833
64205SOL     OW 4339   3.197  11.090   3.238  0.8120 -0.3018  0.0741
64205SOL    HW1 4340   3.149  11.018   3.196  0.9516 -0.6260  0.4633
64205SOL    HW2 4341   3.192  11.070   3.332 -1.8826  1.8220  0.5246
64206SOL     OW 4342   1.918  13.624  11.903 -0.6335  0.1837  0.5520
64206SOL    HW1 4343   1.911  13.554  11.968 -1.4441  0.5618  0.8921
64206SOL    HW2 4344   1.858  13.599  11.834  0.4891 -0.3932 -0.2518
64207SOL     OW 4345   6.005  12.474  12.525  0.2874  0.0661 -0.7371
64207SOL    HW1 4346   5.911  12.490  12.534  0.1560 -0.7160 -0.6119
64207SOL    HW2 4347   6.018  12.458  12.431  0.6843  2.3946 -1.1346
64208SOL     OW 4348   6.604   2.559   5.589 -1.1218 -0.6107 -0.3222
64208SOL    HW1 4349   6.540   2.553   5.518 -0.8432 -0.4991 -0.5843
64208SOL    HW2 4350   6.664   2.486   5.574 -0.9315 -0.4522 -0.3316
64209SOL     OW 4351   8.273   6.714   5.858 -0.2783 -1.1869  0.0413
64209SOL    HW1 4352   8.313   6.690   5.941  2.6867  1.9136 -0.2537
64209SOL    HW2 4353   8.327   6.672   5.791  1.7661  1.7408 -0.3273
64210SOL     OW 4354   8.549   4.887  12.148  0.0803  0.2218 -0.2329
64210SOL    HW1 4355   8.623   4.835  12.179  0.8016  1.8919  1.0118
64210SOL    HW2 4356   8.480   4.872  12.213  0.5144  1.2789  0.4988
64211SOL     OW 4357  10.660   2.310  10.591 -0.4283  0.4039  0.5913
64211SOL    HW1 4358  10.743   2.342  10.557 -0.4987 -0.9520 -0.9896
64211SOL    HW2 4359  10.684   2.259  10.669  0.3505 -0.6480 -0.2995
64212SOL     OW 4360  12.735   1.959  11.373  0.0922  0.2344  0.5217
64212SOL    HW1 4361  12.653   2.005  11.354 -0.6632 -0.6732  1.4691
64212SOL    HW2 4362  12.802   2.026  11.364 -0.8046  1.1118  0.1837
64213SOL     OW 4363   8.973   4.356  10.420  0.7710 -0.1150  0.6919
64213SOL    HW1 4364   8.940   4.411  10.349  1.0855  0.0784  0.6959
64213SOL    HW2 4365   8.896   4.338  10.474  0.8830  1.3642  1.4026
64214SOL     OW 4366   3.116   7.329  11.962  0.2483  0.9816  0.4880
64214SOL    HW1 4367   3.125   7.250  12.016 -0.4377  0.5758  0.0313
64214SOL    HW2 4368   3.022   7.346  11.961  0.3191  1.3507 -0.0608
64215SOL     OW 4369   4.742   3.204   7.256  0.0115  0.0774 -0.0984
64215SOL    HW1 4370   4.724   3.227   7.347 -0.7184  0.4823 -0.3337
64215SOL    HW2 4371   4.814   3.261   7.231  1.1648 -1.0104  0.6283
64216SOL     OW 4372   0.667   0.273   4.872  0.5352 -0.0737 -0.2192
64216SOL    HW1 4373   0.579   0.260   4.837  0.1132 -3.2722  1.6591
64216SOL    HW2 4374   0.719   0.302   4.797 -1.8353  0.7742 -1.6392
64217SOL     OW 4375   5.021   2.375   3.896 -0.6094  0.0021 -0.3421
64217SOL    HW1 4376   4.992   2.455   3.940 -1.4322 -1.2075  1.4746
64217SOL    HW2 4377   4.942   2.320   3.894  0.4647 -1.6487  0.6251
64218SOL     OW 4378  12.600   6.254   1.063 -0.3637  0.5966  0.3881
64218SOL    HW1 4379  12.572   6.228   0.976 -1.4507  0.2078  0.8360
64218SOL    HW2 4380  12.579   6.347   1.069 -1.8111  0.2633  0.7917
64219SOL     OW 4381   8.949  10.426   3.807  0.1046 -0.1590 -0.8182
64219SOL    HW1 4382   8.986  10.433   3.895  1.7879  1.7632 -1.6104
64219SOL    HW2 4383   9.014  10.376   3.757  0.2838  0.7571 -1.5220
64220SOL     OW 4384   0.611   3.180   5.720  0.0394 -0.0588  0.0807
64220SOL    HW1 4385   0.634   3.238   5.647 -0.1011  0.1877  0.2287
64220SOL    HW2 4386   0.676   3.110   5.717  0.9792  0.7595  0.6478
64221SOL     OW 4387  11.532   3.193  12.733 -0.8758  0.1491 -0.1361
64221SOL    HW1 4388  11.523   3.104  12.766  1.3411 -0.0939 -0.0329
64221SOL    HW2 4389  11.574   3.241  12.804 -2.6476  1.4924  0.0633
64222SOL     OW 4390  10.167   3.421  12.709  0.7148 -0.1489 -0.1879
64222SOL    HW1 4391  10.114   3.345  12.684 -2.0630  0.4075  3.2438
64222SOL    HW2 4392  10.114   3.496  12.682  2.1513  0.5787 -1.0890
64223SOL     OW 4393   8.290  10.787   0.835  0.4641  0.2410 -0.2242
64223SOL    HW1 4394   8.209  10.816   0.793 -1.3150  0.8565  3.2462
64223SOL    HW2 4395   8.342  10.866   0.845  0.2650  0.3563 -0.0895
64224SOL     OW 4396  13.415   0.498  10.389 -0.6096 -0.4652 -0.1016
64224SOL    HW1 4397  13.366   0.426  10.347 -1.7609 -0.3494  1.0085
64224SOL    HW2 4398  13.496   0.456  10.421 -1.0572 -1.1730  0.1259
64225SOL     OW 4399   4.282   6.759  10.774 -0.4686 -1.1818  0.0442
64225SOL    HW1 4400   4.218   6.733  10.841 -0.4348 -1.0371  0.1336
64225SOL    HW2 4401   4.232   6.812  10.712  0.1408  1.5400  1.7099
64226SOL     OW 4402   7.283  11.597   4.281 -0.0963  0.0825 -0.1478
64226SOL    HW1 4403   7.281  11.664   4.349  1.5538  1.3374 -1.2552
64226SOL    HW2 4404   7.282  11.646   4.199  1.5474 -1.2050 -0.9911
64227SOL     OW 4405   0.186   6.516   7.509  0.5258  0.2740  0.2248
64227SOL    HW1 4406   0.213   6.477   7.426  0.2561  0.6057 -0.0176
64227SOL    HW2 4407   0.243   6.592   7.520 -0.1851  0.8721 -0.1999
64228SOL     OW 4408   8.948  13.034  12.832  0.3954  0.9275 -0.2345
64228SOL    HW1 4409   8.969  13.127  12.829  0.7690  0.8348 -0.8097
64228SOL    HW2 4410   8.935  13.009  12.741  1.3411  0.1982 -0.1962
64229SOL     OW 4411   4.616  12.246  11.693 -0.6352 -0.8805  0.4001
64229SOL    HW1 4412   4.580  12.203  11.615  0.2284 -0.9891  0.0525
64229SOL    HW2 4413   4.557  12.321  11.708 -1.0693 -1.1134 -0.0885
64230SOL     OW 4414   3.303  10.477  10.018 -0.2497 -0.0058  0.4581
64230SOL    HW1 4415   3.254  10.405   9.977  0.3662 -0.0085 -0.2966
64230SOL    HW2 4416   3.341  10.439  10.097 -1.2139 -0.0822  0.9009
64231SOL     OW 4417   2.198   5.419   5.291 -0.2210 -0.8340 -0.5930
64231SOL    HW1 4418   2.222   5.504   5.328  1.4280 -0.9488 -1.3219
64231SOL    HW2 4419   2.104   5.425   5.276 -0.8667 -0.4811  2.7992
64232SOL     OW 4420  11.040   7.875   2.348  0.2374  0.3736 -0.1450
64232SOL    HW1 4421  10.986   7.851   2.424  0.1783  2.4221  0.5001
64232SOL    HW2 4422  10.979   7.870   2.274 -0.1693  0.1561  0.1950
64233SOL     OW 4423   0.508  10.274  12.698 -0.2010 -0.3512 -0.4326
64233SOL    HW1 4424   0.453  10.196  12.707 -2.1900  1.2316  2.9997
64233SOL    HW2 4425   0.548  10.286  12.784  0.3729  2.1639 -0.9607
64234SOL     OW 4426   5.960   6.125  11.219 -0.2041  0.5895  1.1053
64234SOL    HW1 4427   5.979   6.202  11.164 -0.5029  1.1786  1.8152
64234SOL    HW2 4428   6.041   6.074  11.217  0.3169  1.3795  1.3630
64235SOL     OW 4429   0.110   5.633   6.713 -0.4553  0.2759  0.1854
64235SOL    HW1 4430   0.021   5.598   6.722 -0.7097  0.7209 -0.5255
64235SOL    HW2 4431   0.124   5.641   6.618  0.7776 -0.8728  0.2495
64236SOL     OW 4432   5.314   2.140   4.868 -0.4943 -0.4099 -0.0162
64236SOL    HW1 4433   5.368   2.111   4.794  0.4329 -0.3007  0.6046
64236SOL    HW2 4434   5.347   2.091   4.943 -1.4277 -0.5165  0.3310
64237SOL     OW 4435  12.109   0.420   4.661  0.1792  0.1604 -0.0181
64237SOL    HW1 4436  12.092   0.327   4.643 -0.0616  0.2920 -0.5161
64237SOL    HW2 4437  12.087   0.464   4.578  0.0149  0.6899  0.3022
64238SOL     OW 4438  12.534   0.699   1.788 -0.0538 -0.0917  0.3339
64238SOL    HW1 4439  12.515   0.715   1.880  0.1194  1.5300  0.1088
64238SOL    HW2 4440  12.569   0.782   1.756 -0.6841 -0.4509 -1.3511
64239SOL     OW 4441  10.470   0.285   3.219  0.0768  0.2045  0.6446
64239SOL    HW1 4442  10.439   0.243   3.299 -0.4340 -0.1827  0.2510
64239SOL    HW2 4443  10.564   0.269   3.218 -0.0013 -0.2659  0.8893
64240SOL     OW 4444   7.093   0.132   4.022  0.2721 -0.1365 -0.2283
64240SOL    HW1 4445   7.104   0.227   4.015 -2.6365  0.2778 -0.1696
64240SOL    HW2 4446   7.158   0.097   3.960  1.0797  1.8803 -0.6211
64241SOL     OW 4447   0.253   2.919   5.591 -0.0249  0.1309 -0.1003
64241SOL    HW1 4448   0.307   2.893   5.515  0.1137 -0.3758  0.1682
64241SOL    HW2 4449   0.165   2.931   5.555 -0.1108 -0.7921 -0.2230
64242SOL     OW 4450   7.451   9.707   9.354  0.2165  0.4807 -0.3164
64242SOL    HW1 4451   7.425   9.759   9.430  1.6120  0.3497  0.2762
64242SOL    HW2 4452   7.510   9.764   9.304 -0.2942  0.3857 -1.0440
64243SOL     OW 4453   6.351   8.532  13.510 -0.1552  0.0230 -0.2999
64243SOL    HW1 4454   6.317   8.525  13.421  0.3357  0.0000 -0.4874
64243SOL    HW2 4455   6.355   8.441  13.541  0.1189 -0.0105 -0.4272
64244SOL     OW 4456   2.833  10.078  13.348 -0.1541  0.2521  0.4485
64244SOL    HW1 4457   2.780  10.000  13.335 -0.2080  0.2933  0.4208
64244SOL    HW2 4458   2.922  10.046  13.361 -0.2885  0.1430  1.1617
64245SOL     OW 4459   3.182   3.172   4.021 -0.1673  0.0442  0.1734
64245SOL    HW1 4460   3.226   3.087   4.028 -0.1469  0.0848  0.5661
64245SOL    HW2 4461   3.095   3.152   3.989  0.7543  0.1283 -2.6346
64246SOL     OW 4462   3.422  10.237   5.826  0.4872  0.4084 -0.0012
64246SOL    HW1 4463   3.331  10.246   5.854 -0.2967 -0.3398 -2.1634
64246SOL    HW2 4464   3.469  10.216   5.907 -1.1997  0.9730  1.1971
64247SOL     OW 4465   4.394   8.812   7.090  0.2178  0.1489  0.3041
64247SOL    HW1 4466   4.444   8.737   7.059 -0.4171 -0.6958  1.2580
64247SOL    HW2 4467   4.303   8.784   7.086 -0.2845  1.7934 -1.7637
64248SOL     OW 4468   7.056  12.460  12.330 -0.3120 -0.0647 -1.0600
64248SOL    HW1 4469   7.147  12.459  12.301  0.9253 -1.2775  2.3829
64248SOL    HW2 4470   7.047  12.544  12.376 -0.1474 -0.9285  0.6145
64249SOL     OW 4471   8.922  11.277  12.191 -0.1214 -0.4801  1.0440
64249SOL    HW1 4472   8.939  11.307  12.280 -0.6047  0.5756  0.8001
64249SOL    HW2 4473   8.853  11.335  12.159  0.5750 -0.3364 -0.2877
64250SOL     OW 4474  13.090   2.559   4.784 -0.0527 -0.2715  0.3894
64250SOL    HW1 4475  13.078   2.468   4.760 -1.2038 -0.2538  0.7996
64250SOL    HW2 4476  13.133   2.556   4.870  1.0534 -0.3917 -0.1565
64251SOL     OW 4477   4.072   2.730  12.931  0.2309  0.7703 -0.4052
64251SOL    HW1 4478   4.167   2.731  12.944 -0.0030  1.4331  1.5185
64251SOL    HW2 4479   4.058   2.792  12.859  1.2637  0.4058 -0.9478
64252SOL     OW 4480  12.060   5.647   2.394 -0.4334 -0.0624 -0.4690
64252SOL    HW1 4481  12.110   5.716   2.437  0.7899 -0.4828 -1.1441
64252SOL    HW2 4482  11.971   5.681   2.389 -0.3844  0.4418  1.3575
64253SOL     OW 4483  11.917   3.883   4.193 -0.6338 -0.4776  0.1755
64253SOL    HW1 4484  11.948   3.809   4.246  1.2414  0.6447  0.6958
64253SOL    HW2 4485  11.937   3.858   4.103 -0.2016 -0.6923  0.3304
64254SOL     OW 4486   3.855   1.574  11.764 -0.3745  0.3094  0.0136
64254SOL    HW1 4487   3.934   1.573  11.818 -0.6412 -2.3537  0.4951
64254SOL    HW2 4488   3.790   1.619  11.817  0.2422  0.5879  0.5409
64255SOL     OW 4489   5.358  11.057  11.795  0.4304 -0.0332 -0.3567
64255SOL    HW1 4490   5.444  11.099  11.794 -0.3133  1.6553  1.0521
64255SOL    HW2 4491   5.328  11.060  11.704  0.4508  2.5098 -0.3441
64256SOL     OW 4492  11.393   2.396   4.826 -0.4736 -0.4494 -0.4518
64256SOL    HW1 4493  11.391   2.407   4.731 -0.6182 -0.8194 -0.4945
64256SOL    HW2 4494  11.406   2.302   4.839 -0.8667 -0.4624 -0.1091
64257SOL     OW 4495   2.899   9.354   2.453  0.6998 -0.3398 -0.4584
64257SOL    HW1 4496   2.856   9.269   2.445 -0.0611 -0.0486  0.4067
64257SOL    HW2 4497   2.855   9.409   2.388  1.3767 -0.6651 -1.2089
64258SOL     OW 4498   3.080   0.047  10.863  0.0953 -0.3049  0.3421
64258SOL    HW1 4499   3.165   0.009  10.842  0.7762  1.7851 -1.0948
64258SOL    HW2 4500   3.080   0.131  10.816 -2.1733  0.4168  1.5039
64259SOL     OW 4501   4.300  12.095   6.288  0.1540  0.1676 -0.1642
64259SOL    HW1 4502   4.324  12.123   6.377  0.1129 -0.4893  0.0562
64259SOL    HW2 4503   4.205  12.111   6.283  0.4228  1.8607 -0.7081
64260SOL     OW 4504   5.326  12.640   7.308 -0.0451  0.1133 -0.2907
64260SOL    HW1 4505   5.295  12.594   7.230 -0.9118 -2.5305  1.4688
64260SOL    HW2 4506   5.412  12.602   7.326 -1.1032 -1.5838  1.6377
64261SOL     OW 4507   5.171   8.543   7.755 -0.4597 -0.2766 -0.3565
64261SOL    HW1 4508   5.213   8.480   7.696  0.0149  0.0175 -0.3348
64261SOL    HW2 4509   5.156   8.620   7.701  0.4799  0.1964  0.0389
64262SOL     OW 4510  12.246   5.251   1.138  0.1686 -0.1715  0.4426
64262SOL    HW1 4511  12.217   5.331   1.181 -2.8903 -0.2410 -1.1842
64262SOL    HW2 4512  12.287   5.281   1.057 -0.1813 -0.1943  0.2525
64263SOL     OW 4513   6.460   9.333   6.035  0.4483 -0.2152 -0.3561
64263SOL    HW1 4514   6.508   9.286   5.966  0.5551  1.3007 -1.3609
64263SOL    HW2 4515   6.370   9.300   6.027  0.9719 -1.9986  0.5760
64264SOL     OW 4516   3.436  11.089   1.816 -0.5181 -0.1644 -0.6642
64264SOL    HW1 4517   3.402  11.076   1.727  0.6761 -0.3955 -1.1071
64264SOL    HW2 4518   3.468  11.180   1.816 -0.2737 -0.2480 -0.5627
64265SOL     OW 4519   6.130   0.246   3.722  0.2733 -0.0558  0.0529
64265SOL    HW1 4520   6.134   0.151   3.710 -0.6615 -0.0160 -0.6948
64265SOL    HW2 4521   6.091   0.279   3.641  2.3031  1.1632 -0.5145
64266SOL     OW 4522   4.057   4.090  10.468  0.0803  0.0530  0.0665
64266SOL    HW1 4523   4.101   4.166  10.429  0.4837  0.9936  2.1920
64266SOL    HW2 4524   4.018   4.044  10.394 -1.2985  3.0301 -1.2362
64267SOL     OW 4525   3.937   9.917   0.844 -0.1306 -0.2805  0.1327
64267SOL    HW1 4526   3.856   9.969   0.841 -0.7835 -1.2707 -2.7712
64267SOL    HW2 4527   4.007   9.982   0.836 -0.7759  0.3980 -0.1114
64268SOL     OW 4528   1.655   5.972   6.635 -0.6263  0.1808 -0.2266
64268SOL    HW1 4529   1.668   6.009   6.722 -0.3338 -1.1821  0.3366
64268SOL    HW2 4530   1.560   5.972   6.623 -0.6058  3.3082 -1.2777
64269SOL     OW 4531   2.393   8.527   1.811 -0.2115 -0.0787  0.4009
64269SOL    HW1 4532   2.423   8.455   1.755  0.7496 -1.0750  2.1262
64269SOL    HW2 4533   2.301   8.538   1.789 -0.1536 -1.2497 -0.5222
64270SOL     OW 4534  12.998   0.115  11.039 -0.3301  0.1713  0.0257
64270SOL    HW1 4535  13.028   0.202  11.012 -0.0413 -0.7448 -3.0040
64270SOL    HW2 4536  13.078   0.067  11.058 -0.3314 -0.0921 -0.6175
64271SOL     OW 4537   3.001   3.650  10.321  0.1243 -0.0566 -0.3171
64271SOL    HW1 4538   3.046   3.734  10.323  1.9334 -0.9708  1.1734
64271SOL    HW2 4539   2.997   3.623  10.413 -0.4620 -1.5800 -0.7492
64272SOL     OW 4540   9.616   8.023   4.426 -0.2595  0.1628  0.5716
64272SOL    HW1 4541   9.678   8.072   4.371  0.3538  1.9563  2.6641
64272SOL    HW2 4542   9.615   7.935   4.389  0.8114  1.0033 -1.6812
64273SOL     OW 4543   7.042  10.379   4.915 -0.0208  0.1569  0.3903
64273SOL    HW1 4544   7.004  10.467   4.920  0.7592  0.5605 -0.4703
64273SOL    HW2 4545   7.104  10.384   4.843  0.7282 -0.8423  0.9382
64274SOL     OW 4546   1.356   9.271   5.438 -0.1895 -0.0544 -0.5245
64274SOL    HW1 4547   1.381   9.208   5.506 -1.5281  1.4795  1.5309
64274SOL    HW2 4548   1.439   9.301   5.402  0.4988 -2.3768 -1.0373
64275SOL     OW 4549   0.389   7.199   1.955  0.2112  0.0418 -0.0826
64275SOL    HW1 4550   0.311   7.238   1.915 -0.0607 -0.0163  0.3724
64275SOL    HW2 4551   0.388   7.108   1.927 -0.0718 -0.0407  0.1881
64276SOL     OW 4552  12.425   5.106   5.734  0.2363  0.1588 -0.2414
64276SOL    HW1 4553  12.514   5.071   5.736 -0.9314 -3.3645 -1.2289
64276SOL    HW2 4554  12.417   5.157   5.814  2.5633 -1.0315  0.8568
64277SOL     OW 4555   7.932   0.700   3.687  0.1883 -0.1174  0.1451
64277SOL    HW1 4556   8.015   0.704   3.736  0.2010 -0.7792  0.1821
64277SOL    HW2 4557   7.876   0.643   3.740 -0.8264  1.4937  0.8993
64278SOL     OW 4558   1.189  11.859   9.648 -0.7612 -0.5989  0.1932
64278SOL    HW1 4559   1.114  11.903   9.689  0.5931  3.2793 -1.0391
64278SOL    HW2 4560   1.255  11.855   9.718 -0.9694 -0.9481  0.3748
64279SOL     OW 4561   7.200   0.732   7.309  0.2826  0.6124 -0.2314
64279SOL    HW1 4562   7.254   0.764   7.380 -0.2399  1.5350 -0.2356
64279SOL    HW2 4563   7.111   0.730   7.345  0.3071 -0.9885 -0.1845
64280SOL     OW 4564   8.166   9.153  11.483 -0.2875 -0.5622  0.1540
64280SOL    HW1 4565   8.186   9.105  11.563 -1.0197 -0.8340  0.1885
64280SOL    HW2 4566   8.212   9.106  11.414  0.2138 -0.4246  0.3941
64281SOL     OW 4567   6.688   7.593  13.058  0.4089  0.0497  0.1964
64281SOL    HW1 4568   6.744   7.659  13.018  0.9109 -1.1573 -1.1554
64281SOL    HW2 4569   6.746   7.519  13.076 -0.4708 -0.6902  0.0952
64282SOL     OW 4570  10.092   3.646   2.298 -0.4353  0.2586  0.0645
64282SOL    HW1 4571  10.114   3.692   2.379 -0.8715  1.3555 -0.4278
64282SOL    HW2 4572  10.058   3.561   2.327  2.5777 -0.7825  0.9322
64283SOL     OW 4573   1.784   2.664   8.673 -0.0954 -0.4357  0.0214
64283SOL    HW1 4574   1.697   2.693   8.699  0.2598  0.7705 -0.0366
64283SOL    HW2 4575   1.770   2.613   8.594 -0.5806  1.8449 -1.4800
64284SOL     OW 4576   2.199   7.162  12.097 -0.0696  0.1828  0.3044
64284SOL    HW1 4577   2.162   7.191  12.181 -1.3046 -2.2558  0.7148
64284SOL    HW2 4578   2.123   7.159  12.038  0.5638  0.6707 -0.5520
64285SOL     OW 4579   1.308   0.283  12.778 -0.4649  0.2515  0.7171
64285SOL    HW1 4580   1.234   0.274  12.838 -0.9361  1.1752  0.2894
64285SOL    HW2 4581   1.270   0.278  12.691  0.0613  0.1172  0.4893
64286SOL     OW 4582  12.017   3.304   8.783 -0.5951  0.4971  0.4466
64286SOL    HW1 4583  12.016   3.213   8.755  1.1812  0.7684 -0.6533
64286SOL    HW2 4584  12.033   3.301   8.877  1.1801 -0.3261  0.1534
64287SOL     OW 4585   0.384   9.408  12.793  0.6223  0.4725 -0.0591
64287SOL    HW1 4586   0.428   9.337  12.745  2.0034 -0.2922  2.1784
64287SOL    HW2 4587   0.407   9.487  12.745  1.9134 -0.2596 -0.7155
64288SOL     OW 4588   9.726   5.697   8.188 -0.1950 -0.6337 -0.1938
64288SOL    HW1 4589   9.797   5.761   8.181 -0.7685 -0.0737 -1.0872
64288SOL    HW2 4590   9.658   5.743   8.238 -0.8439 -0.3159 -1.3439
64289SOL     OW 4591   4.927   8.674   6.098 -0.0741  0.1512  0.1116
64289SOL    HW1 4592   4.912   8.619   6.021  0.5490 -0.2793  0.2965
64289SOL    HW2 4593   4.868   8.638   6.165 -0.0461  0.0371  0.0745
64290SOL     OW 4594   1.600  10.645   0.089  0.6599  0.3381  0.6277
64290SOL    HW1 4595   1.670  10.581   0.077 -0.7914 -0.9918 -1.7054
64290SOL    HW2 4596   1.520  10.598   0.063 -0.9236  2.1857  1.8328
64291SOL     OW 4597   3.974   7.697   8.959  0.0420  0.0073  0.1237
64291SOL    HW1 4598   3.939   7.611   8.938  0.2914 -0.1903  0.5008
64291SOL    HW2 4599   3.983   7.741   8.875  0.2912 -0.4829 -0.1094
64292SOL     OW 4600   5.044   7.298  13.336 -0.1683  0.1519 -0.6948
64292SOL    HW1 4601   5.066   7.364  13.401 -1.8834  0.1563 -0.0452
64292SOL    HW2 4602   5.125   7.250  13.320  0.1844 -0.2367  1.9051
64293SOL     OW 4603  11.925   0.158   7.019  0.2207  0.7254  0.1988
64293SOL    HW1 4604  11.888   0.246   7.009  1.3897  1.2193  0.0179
64293SOL    HW2 4605  12.019   0.173   7.033  0.9092 -0.5341 -2.3368
64294SOL     OW 4606   5.379   2.829   7.427  0.0451  0.8408  0.1462
64294SOL    HW1 4607   5.284   2.821   7.423  0.2739 -2.7985 -1.1983
64294SOL    HW2 4608   5.405   2.849   7.338  0.6533 -2.0294 -0.4154
64295SOL     OW 4609   3.887   5.875   9.345  0.3182  0.2953 -0.1209
64295SOL    HW1 4610   3.821   5.937   9.315  0.9535  0.8747 -0.3422
64295SOL    HW2 4611   3.970   5.921   9.335  0.7131 -0.2160  0.6963
64296SOL     OW 4612  11.232   4.190   1.502 -0.2115 -0.2866 -0.1332
64296SOL    HW1 4613  11.237   4.245   1.423 -2.9263 -0.2886 -0.4155
64296SOL    HW2 4614  11.305   4.129   1.493  0.0927  0.2790 -2.2143
64297SOL     OW 4615   0.242   5.324   0.358 -0.3908  0.1078  0.3175
64297SOL    HW1 4616   0.173   5.285   0.412 -0.8626  1.4317  0.7096
64297SOL    HW2 4617   0.204   5.329   0.270 -1.4126  2.1963  0.8221
64298SOL     OW 4618  12.114   0.771   0.303  0.1745  0.4174  0.3896
64298SOL    HW1 4619  12.172   0.828   0.253 -1.4663 -0.3003 -2.5811
64298SOL    HW2 4620  12.032   0.772   0.255 -1.2660 -1.1647  2.6087
64299SOL     OW 4621  10.245  10.822   0.080 -0.2401 -0.2866  0.5967
64299SOL    HW1 4622  10.303  10.749   0.102 -0.7754 -1.2239 -0.9354
64299SOL    HW2 4623  10.157  10.786   0.085 -0.5073  0.2200 -0.1988
64300SOL     OW 4624   5.061   2.596  11.073 -0.4103 -0.2124  0.1939
64300SOL    HW1 4625   5.120   2.524  11.097  0.7319  0.4512 -0.5191
64300SOL    HW2 4626   5.071   2.605  10.979 -0.9936  0.5014  0.1917
64301SOL     OW 4627   8.892   3.122   3.794 -0.0346  0.1103  0.4373
64301SOL    HW1 4628   8.843   3.135   3.875  1.6649 -0.6426  1.6292
64301SOL    HW2 4629   8.980   3.097   3.822  0.4438 -0.7551 -1.6451
64302SOL     OW 4630   9.033  12.946  12.410  0.5004  0.5271  0.4819
64302SOL    HW1 4631   9.123  12.958  12.441  0.5774 -1.9420  1.4927
64302SOL    HW2 4632   8.983  13.012  12.457  1.8188  2.3840 -0.5882
64303SOL     OW 4633  12.616   4.532   6.354 -0.1593 -0.1980  0.1985
64303SOL    HW1 4634  12.618   4.597   6.425 -0.0685 -0.5200  0.4938
64303SOL    HW2 4635  12.658   4.455   6.391 -0.6733 -0.5821  0.0022
64304SOL     OW 4636  11.307   2.311   5.185  0.8969 -0.3192  1.0252
64304SOL    HW1 4637  11.218   2.286   5.161  1.1362  0.7098 -1.1188
64304SOL    HW2 4638  11.363   2.248   5.140  1.3221  0.9645 -0.3322
64305SOL     OW 4639   2.760  10.779   9.916 -0.4069 -0.2659 -0.4615
64305SOL    HW1 4640   2.792  10.811   9.832 -2.7699 -0.5443 -1.5661
64305SOL    HW2 4641   2.827  10.804   9.979  1.4258 -0.0028 -2.3981
64306SOL     OW 4642  10.523  11.734  12.093  0.1505 -0.2073 -0.4553
64306SOL    HW1 4643  10.593  11.749  12.029  1.8071 -0.2999  1.2573
64306SOL    HW2 4644  10.456  11.799  12.070  2.2103  2.1772 -0.2317
64307SOL     OW 4645   1.134   7.190   4.055 -0.0524 -0.4412  0.1447
64307SOL    HW1 4646   1.209   7.245   4.036 -0.0535 -0.6365 -0.4491
64307SOL    HW2 4647   1.133   7.183   4.151  1.2025 -1.1463  0.1341
64308SOL     OW 4648   7.567   6.416  12.974  0.3223  0.8809 -0.0013
64308SOL    HW1 4649   7.501   6.453  13.033  0.1830  1.4842 -0.5332
64308SOL    HW2 4650   7.576   6.325  13.003 -0.1488  1.0162  0.5926
64309SOL     OW 4651   9.646   4.947   9.144  0.2519  0.4008  0.0802
64309SOL    HW1 4652   9.738   4.957   9.166  0.2651  1.4564 -0.4060
64309SOL    HW2 4653   9.613   4.882   9.207  1.6125 -0.9833 -0.5880
64310SOL     OW 4654   6.312   9.159  11.609  0.4242 -0.2509 -0.6979
64310SOL    HW1 4655   6.276   9.140  11.695  1.6971  0.8571  0.1148
64310SOL    HW2 4656   6.321   9.073  11.567 -0.3250 -0.7845  0.2059
64311SOL     OW 4657   8.170   1.182   8.596  0.1974 -0.4377  0.0612
64311SOL    HW1 4658   8.134   1.160   8.682  1.5669  1.1519  1.1127
64311SOL    HW2 4659   8.154   1.275   8.586  3.9417  0.4592  0.7249
64312SOL     OW 4660   1.341   5.271   5.280 -0.4086  0.6421  0.5786
64312SOL    HW1 4661   1.412   5.335   5.286 -0.1238  0.4559 -0.5607
64312SOL    HW2 4662   1.278   5.310   5.219  0.1828 -0.5181 -0.8199
64313SOL     OW 4663   9.395  12.522  11.766  0.2195  0.0453  0.0035
64313SOL    HW1 4664   9.410  12.504  11.674 -2.7183  1.3351 -0.8402
64313SOL    HW2 4665   9.414  12.616  11.775  1.7561 -0.3215  1.0820
64314SOL     OW 4666  10.616  12.989   0.808 -0.2781 -0.0050 -0.0927
64314SOL    HW1 4667  10.614  12.918   0.871 -1.3410  0.2403  0.1609
64314SOL    HW2 4668  10.706  12.989   0.774  0.7371  0.7176  2.3721
64315SOL     OW 4669  13.113   8.860   5.141 -0.1698  0.6298 -0.3806
64315SOL    HW1 4670  13.102   8.786   5.081 -0.4749 -0.1725  0.6382
64315SOL    HW2 4671  13.105   8.937   5.085  0.9941 -0.1026 -1.6084
64316SOL     OW 4672   7.684   3.781  10.503 -0.1641  0.4708 -0.6261
64316SOL    HW1 4673   7.699   3.732  10.584  0.7027  0.8327 -0.5623
64316SOL    HW2 4674   7.709   3.871  10.524 -0.9372  0.7806 -0.9949
64317SOL     OW 4675  10.593   6.672   4.407  0.3853 -0.1595 -0.1704
64317SOL    HW1 4676  10.506   6.699   4.376  0.2127  0.9161  1.1242
64317SOL    HW2 4677  10.598   6.707   4.496  1.1493 -2.4176  0.7372
64318SOL     OW 4678   0.552   6.900   5.629  0.1868  0.3336  0.1408
64318SOL    HW1 4679   0.634   6.904   5.679 -1.3552  3.3370  2.8117
64318SOL    HW2 4680   0.530   6.807   5.628  2.4312 -0.3101  1.4663
64319SOL     OW 4681  11.419   4.752   9.491 -0.1705  0.4975  0.5066
64319SOL    HW1 4682  11.336   4.704   9.487 -0.1748  0.5359  0.1798
64319SOL    HW2 4683  11.483   4.685   9.516 -0.1444  0.2805 -0.1350
64320SOL     OW 4684  11.805  11.353  13.072  0.3227  0.5425  0.6425
64320SOL    HW1 4685  11.772  11.272  13.110 -1.9067  2.2014  2.5490
64320SOL    HW2 4686  11.887  11.370  13.120  0.5620 -0.3043  0.5490
64321SOL     OW 4687   9.254   5.107   8.657  0.1221  0.3448 -0.2812
64321SOL    HW1 4688   9.294   5.191   8.679 -0.1615  0.6747 -0.9823
64321SOL    HW2 4689   9.310   5.042   8.698  1.2990  0.8041 -1.1037
64322SOL     OW 4690   7.808   4.961  11.209  0.1123  0.1259  0.3285
64322SOL    HW1 4691   7.857   4.902  11.152 -0.2654 -1.3046  1.4360
64322SOL    HW2 4692   7.853   4.958  11.293  0.1387  1.5144  0.3888
64323SOL     OW 4693   2.327  11.249  10.966  0.2838  0.0795 -0.7058
64323SOL    HW1 4694   2.339  11.187  10.895 -0.0545  0.2310 -0.8985
64323SOL    HW2 4695   2.363  11.331  10.932 -1.6837  0.6752 -1.4870
64324SOL     OW 4696  12.177   9.135   8.150 -0.2714  0.1177 -0.1966
64324SOL    HW1 4697  12.141   9.223   8.134  1.0561  0.8859  0.8528
64324SOL    HW2 4698  12.108   9.090   8.200  0.4195  1.8346  2.4996
64325SOL     OW 4699   6.148  12.340   3.875  0.4682 -0.0736 -0.3775
64325SOL    HW1 4700   6.060  12.303   3.879 -0.1511  1.3996  0.6097
64325SOL    HW2 4701   6.197  12.280   3.818 -0.2554 -2.7224  1.5955
64326SOL     OW 4702   0.407   2.740   8.641  0.5130 -0.4454  0.0390
64326SOL    HW1 4703   0.372   2.745   8.730  1.4171 -0.0010  0.3843
64326SOL    HW2 4704   0.461   2.660   8.641  1.0293 -0.1018  0.0914
64327SOL     OW 4705   1.982   8.947   2.872 -0.0805  0.4693 -0.4190
64327SOL    HW1 4706   2.053   8.991   2.825  1.0730  0.5058  1.2894
64327SOL    HW2 4707   1.904   8.965   2.819  0.6684  2.9610 -0.8005
64328SOL     OW 4708  11.310   8.118   6.619  0.6718 -0.7619  0.1414
64328SOL    HW1 4709  11.250   8.155   6.684 -2.5492 -2.8674 -1.3523
64328SOL    HW2 4710  11.294   8.168   6.539  2.3021 -0.1888  0.1521
64329SOL     OW 4711   2.527   6.246   7.518 -0.1827 -0.0726  0.2147
64329SOL    HW1 4712   2.476   6.171   7.486  0.9122 -0.5941 -0.3690
64329SOL    HW2 4713   2.468   6.321   7.508 -0.9594 -0.7107 -0.1096
64330SOL     OW 4714  12.159   2.792   7.294 -0.5493  0.3151  0.5001
64330SOL    HW1 4715  12.188   2.704   7.270  0.1397  0.8318 -0.6749
64330SOL    HW2 4716  12.104   2.820   7.220  1.2797  1.7989 -0.3827
64331SOL     OW 4717   8.324  13.014   6.385  0.0007 -0.0633 -0.1664
64331SOL    HW1 4718   8.283  13.038   6.303  0.1631 -0.3074 -0.3205
64331SOL    HW2 4719   8.418  13.023   6.370  0.0451 -0.3756 -0.0988
64332SOL     OW 4720   1.762   0.216   0.477  0.1315 -0.1858 -0.5844
64332SOL    HW1 4721   1.804   0.133   0.457  1.0616  0.0631  0.2556
64332SOL    HW2 4722   1.697   0.228   0.407  0.5171 -1.2322 -1.1392
64333SOL     OW 4723   8.088  12.578   5.906 -0.0543 -0.0362  1.1883
64333SOL    HW1 4724   8.110  12.594   5.998  1.8286 -2.1071  1.1736
64333SOL    HW2 4725   8.042  12.493   5.908 -2.3817  1.1332  0.4532
64334SOL     OW 4726   3.472   9.096   0.605  0.5741  0.1916 -0.2723
64334SOL    HW1 4727   3.388   9.096   0.650  0.4378 -1.1752 -0.4736
64334SOL    HW2 4728   3.453   9.054   0.521  1.3871  0.2067 -0.4657
64335SOL     OW 4729  11.818   9.302  11.023  0.1371 -0.2845  0.3862
64335SOL    HW1 4730  11.733   9.265  11.046  0.3153  0.0522  1.6643
64335SOL    HW2 4731  11.865   9.308  11.106  0.6757  1.3656  0.0032
64336SOL     OW 4732   3.742  12.254   0.935  0.0559 -0.2501 -0.8837
64336SOL    HW1 4733   3.719  12.278   1.025  0.0929 -0.2948 -0.8619
64336SOL    HW2 4734   3.805  12.321   0.909  0.1640 -0.3262 -0.8205
64337SOL     OW 4735   8.204   9.604  10.547  0.0818 -0.4574  0.1722
64337SOL    HW1 4736   8.154   9.639  10.473  0.2969 -1.8204 -0.6402
64337SOL    HW2 4737   8.295   9.619  10.523  0.1458  1.2129  1.2526
64338SOL     OW 4738   8.702   2.794   9.121 -0.4402 -0.1015 -0.0443
64338SOL    HW1 4739   8.736   2.832   9.202 -2.7797  1.7337  0.1520
64338SOL    HW2 4740   8.778   2.791   9.063  0.2541  3.5234  0.4681
64339SOL     OW 4741   7.759   7.203   8.101 -0.0997  0.3523  0.0554
64339SOL    HW1 4742   7.666   7.186   8.086 -0.3552  1.0973  0.6628
64339SOL    HW2 4743   7.772   7.293   8.069  0.6664 -0.1194 -1.0111
64340SOL     OW 4744   8.395  10.078   6.921  0.2485 -0.0831  0.3893
64340SOL    HW1 4745   8.436  10.017   6.982 -0.2029 -0.4722  0.3127
64340SOL    HW2 4746   8.331  10.025   6.874  0.7181  0.1695 -0.5572
64341SOL     OW 4747   3.527  11.796  11.348 -0.2876 -0.0356  0.3629
64341SOL    HW1 4748   3.433  11.779  11.339 -0.1950 -1.4812  1.8594
64341SOL    HW2 4749   3.569  11.710  11.339  0.7967  0.4054  0.9982
64342SOL     OW 4750   5.374   9.812   7.575 -0.3253 -0.1889  0.0305
64342SOL    HW1 4751   5.325   9.886   7.610  0.0912  0.1817 -0.1531
64342SOL    HW2 4752   5.339   9.800   7.487  1.4741  1.5963 -1.0207
64343SOL     OW 4753   6.802  12.841   6.948 -0.3548 -0.1218 -0.0419
64343SOL    HW1 4754   6.748  12.797   7.014  1.5172 -2.4264  0.0703
64343SOL    HW2 4755   6.817  12.929   6.985 -0.3314 -0.9421  2.0425
64344SOL     OW 4756   2.762   4.876   4.377 -0.1796 -0.1679  0.2823
64344SOL    HW1 4757   2.830   4.934   4.412  0.0554 -1.4636  2.1185
64344SOL    HW2 4758   2.796   4.847   4.293  1.3037 -0.3065  0.8916
64345SOL     OW 4759   2.590  11.393  10.252 -0.0173  0.2640 -0.9104
64345SOL    HW1 4760   2.674  11.390  10.296  0.5846 -1.5301 -2.0719
64345SOL    HW2 4761   2.580  11.484  10.224  0.8015  0.8270  0.5396
64346SOL     OW 4762  11.367   2.261   0.398 -0.4883 -0.3391  0.0059
64346SOL    HW1 4763  11.323   2.212   0.468  0.6994 -1.1893  0.1857
64346SOL    HW2 4764  11.457   2.229   0.399  0.6642  2.6471  0.8523
64347SOL     OW 4765   1.861  13.103   3.027  0.1376  0.4947 -0.4756
64347SOL    HW1 4766   1.911  13.184   3.036 -0.1547  0.6341 -0.0630
64347SOL    HW2 4767   1.793  13.124   2.962 -2.7086  2.0157  2.7003
64348SOL     OW 4768   6.101   9.680   7.183 -0.2338  0.1799  0.5695
64348SOL    HW1 4769   6.083   9.772   7.199 -1.4274  0.0990 -0.1779
64348SOL    HW2 4770   6.026   9.633   7.219 -0.7983 -0.3023 -1.1152
64349SOL     OW 4771   2.514   1.807   4.804  0.1863 -0.0002 -0.1194
64349SOL    HW1 4772   2.471   1.752   4.869  1.3883  0.8248  1.4416
64349SOL    HW2 4773   2.570   1.864   4.855 -0.2379  1.9862 -1.7644
64350SOL     OW 4774  12.428   9.133  12.108  0.1855 -0.2579  0.0914
64350SOL    HW1 4775  12.454   9.051  12.068  0.3095 -1.4576  2.4416
64350SOL    HW2 4776  12.508   9.186  12.109 -0.0903  0.2822 -2.1702
64351SOL     OW 4777   3.935  10.809   4.097  0.0922 -0.2359  0.0370
64351SOL    HW1 4778   3.961  10.898   4.122 -0.8666 -0.0617  0.4744
64351SOL    HW2 4779   3.863  10.823   4.034  0.1623 -0.7023 -0.1464
64352SOL     OW 4780   9.407  12.063   9.632 -0.4035 -0.1843  0.0895
64352SOL    HW1 4781   9.449  12.012   9.563  1.0256  0.2628  0.6036
64352SOL    HW2 4782   9.384  11.998   9.699 -2.9092 -0.8141 -1.2561
64353SOL     OW 4783   9.649   3.714   0.545 -0.3036  0.0404 -0.1604
64353SOL    HW1 4784   9.691   3.792   0.581 -2.8288  1.6351 -0.3540
64353SOL    HW2 4785   9.575   3.749   0.493 -0.4339 -2.4222 -1.7994
64354SOL     OW 4786  12.413   4.299   2.209  0.0412 -0.4568 -0.3935
64354SOL    HW1 4787  12.334   4.292   2.262  0.6857 -0.3020  0.6237
64354SOL    HW2 4788  12.431   4.393   2.205  1.9104 -0.6035  2.1239
64355SOL     OW 4789   8.625   8.497  12.856 -0.0626 -0.2547  0.1458
64355SOL    HW1 4790   8.617   8.580  12.808 -0.9219  0.2009  1.0405
64355SOL    HW2 4791   8.719   8.478  12.855  0.1058  0.5417 -0.3723
64356SOL     OW 4792   1.297   5.094   3.241 -0.1794 -0.1841  0.0784
64356SOL    HW1 4793   1.390   5.118   3.243 -0.0089 -0.8237 -0.0206
64356SOL    HW2 4794   1.275   5.075   3.332 -0.2575  0.1270  0.1254
64357SOL     OW 4795   2.431   5.736   6.947  0.5117  0.7106 -0.7346
64357SOL    HW1 4796   2.483   5.661   6.919  1.4994  1.0387  0.1698
64357SOL    HW2 4797   2.356   5.736   6.888  1.5584  0.2587 -2.1284
64358SOL     OW 4798   8.949   6.458  13.179 -0.0702 -0.2883 -0.0219
64358SOL    HW1 4799   8.892   6.390  13.140  0.6814 -1.6700  1.1958
64358SOL    HW2 4800   9.031   6.451  13.129  0.7099 -1.7053  1.3406
64359SOL     OW 4801   6.203   0.707   4.518  0.3136  0.0114 -1.0026
64359SOL    HW1 4802   6.109   0.721   4.505 -0.2927 -2.5236  0.0282
64359SOL    HW2 4803   6.242   0.794   4.508 -2.1172  1.1327 -1.4963
64360SOL     OW 4804   1.107   6.545   6.203 -0.0187 -0.6148  0.1458
64360SOL    HW1 4805   1.173   6.549   6.134 -0.9392 -0.4632 -0.7412
64360SOL    HW2 4806   1.140   6.604   6.271  0.6579 -0.3944 -0.3667
64361SOL     OW 4807   5.279  10.839   5.414 -0.5542  0.0015  1.3226
64361SOL    HW1 4808   5.260  10.929   5.386  3.5128  0.6732  0.0575
64361SOL    HW2 4809   5.329  10.801   5.342  1.2856 -1.8718  3.4232
64362SOL     OW 4810   0.875   8.902  11.406  0.2608 -0.4198 -0.4076
64362SOL    HW1 4811   0.910   8.991  11.397 -1.4217  0.1666 -1.7970
64362SOL    HW2 4812   0.899   8.876  11.495  0.3088  1.6695  0.2593
64363SOL     OW 4813  13.111  10.862  12.963  0.1051 -0.2504  0.8201
64363SOL    HW1 4814  13.174  10.820  12.904  1.9383  2.3253  0.7723
64363SOL    HW2 4815  13.031  10.869  12.912  0.8611 -0.4470 -0.4376
64364SOL     OW 4816   9.827  10.939   2.332  0.0833  0.3807  0.7186
64364SOL    HW1 4817   9.753  10.900   2.287 -0.0563 -0.0592  1.3260
64364SOL    HW2 4818   9.886  10.968   2.261 -0.1174 -0.3250  0.2584
64365SOL     OW 4819   5.684  10.831   3.288  0.5496  0.4934  0.4920
64365SOL    HW1 4820   5.640  10.908   3.254  0.4583  1.0987  1.9140
64365SOL    HW2 4821   5.618  10.785   3.339  0.7529 -0.2536  0.1108
64366SOL     OW 4822   3.541   4.316  11.628 -0.0971  0.1658 -0.1894
64366SOL    HW1 4823   3.580   4.310  11.541  0.5942 -0.7510  0.1546
64366SOL    HW2 4824   3.603   4.369  11.678 -0.4173  0.5669 -0.2201
64367SOL     OW 4825   5.901   4.693   3.107 -0.0018 -0.3531  0.4022
64367SOL    HW1 4826   5.827   4.705   3.167 -0.0467 -0.6308  0.4025
64367SOL    HW2 4827   5.932   4.782   3.090  0.8829 -0.3271  1.9210
64368SOL     OW 4828  12.318  11.308   9.077  0.0390  0.2287 -0.3371
64368SOL    HW1 4829  12.327  11.284   8.985  1.4671 -1.8188  0.2733
64368SOL    HW2 4830  12.374  11.385   9.087 -0.3923  0.6761 -1.2124
64369SOL     OW 4831   9.537   6.606  11.598 -0.0022 -0.8743 -0.0012
64369SOL    HW1 4832   9.547   6.527  11.650 -0.2013 -0.6757  0.3445
64369SOL    HW2 4833   9.572   6.676  11.653 -0.4561 -0.6252 -0.0218
64370SOL     OW 4834  13.222   9.884   4.867  0.7263  0.1170  0.3247
64370SOL    HW1 4835  13.290   9.916   4.926 -1.1412  1.5220  1.8555
64370SOL    HW2 4836  13.243   9.922   4.782  1.4840  1.0688  0.9240
64371SOL     OW 4837   9.400   0.270   6.584  0.3857 -0.3632 -0.1596
64371SOL    HW1 4838   9.471   0.318   6.541 -0.4643  1.2644  0.1933
64371SOL    HW2 4839   9.416   0.283   6.678  0.2852 -1.0021 -0.0478
64372SOL     OW 4840   5.706   5.310  12.716  0.0741 -0.0423  0.1094
64372SOL    HW1 4841   5.687   5.316  12.810  2.1292 -1.2618  0.6670
64372SOL    HW2 4842   5.741   5.222  12.704  0.5816  0.3690 -1.6627
64373SOL     OW 4843  12.503   7.614  12.110  0.7704  0.1518 -0.2110
64373SOL    HW1 4844  12.503   7.549  12.040 -0.1407  0.3191 -0.3859
64373SOL    HW2 4845  12.595   7.637  12.122  1.0396 -0.7109 -0.5694
64374SOL     OW 4846  11.117   8.310  12.560 -0.8773  0.6670 -0.0505
64374SOL    HW1 4847  11.166   8.372  12.506 -3.3623  2.5614 -0.2848
64374SOL    HW2 4848  11.085   8.245  12.497 -0.2584  0.4584 -0.1653
64375SOL     OW 4849   4.769   9.006  11.341 -0.1635 -0.2118 -0.2892
64375SOL    HW1 4850   4.827   8.982  11.412  1.2955  1.3076 -0.9200
64375SOL    HW2 4851   4.813   9.078  11.296 -0.9919 -1.1331 -2.7647
64376SOL     OW 4852  11.515  10.330   1.660  0.1354 -0.2551  0.2239
64376SOL    HW1 4853  11.519  10.383   1.740  0.0544 -0.2925  0.2538
64376SOL    HW2 4854  11.555  10.246   1.685  1.3213  0.1866 -0.1519
64377SOL     OW 4855   3.844   6.347   2.144  0.1795 -0.5546 -0.4849
64377SOL    HW1 4856   3.793   6.307   2.214 -0.0157  1.3746  0.5218
64377SOL    HW2 4857   3.911   6.281   2.123 -1.6279 -2.4333 -0.6850
64378SOL     OW 4858   7.838   6.255   0.858  0.3734 -0.3919 -0.5728
64378SOL    HW1 4859   7.880   6.176   0.894 -0.9450 -0.9576 -0.2311
64378SOL    HW2 4860   7.770   6.221   0.800 -0.6789  0.4752  0.1258
64379SOL     OW 4861   9.904   6.903   8.646  0.5138 -0.1896 -0.4248
64379SOL    HW1 4862   9.844   6.833   8.621 -0.6776  0.2157  1.1976
64379SOL    HW2 4863   9.991   6.868   8.624 -0.1624 -1.5102 -1.1318
64380SOL     OW 4864   1.407  11.636   2.390  0.1902 -0.4565 -0.4778
64380SOL    HW1 4865   1.361  11.567   2.343  0.4429 -0.9819  0.0366
64380SOL    HW2 4866   1.410  11.710   2.328  0.4935 -1.1210 -1.2707
64381SOL     OW 4867   3.494   7.789   9.292  0.0024  0.2340 -0.5359
64381SOL    HW1 4868   3.508   7.866   9.237  2.5284 -0.1086 -0.4736
64381SOL    HW2 4869   3.399   7.783   9.301 -0.4589  1.1226 -3.6736
64382SOL     OW 4870   4.798   0.984  10.992 -0.2558  0.1118 -1.2368
64382SOL    HW1 4871   4.861   1.056  10.985  0.8929 -0.6003  0.8402
64382SOL    HW2 4872   4.842   0.910  10.951  0.4475 -0.4523  0.4418
64383SOL     OW 4873   5.388   7.960   6.172 -0.3494 -0.5419  0.6485
64383SOL    HW1 4874   5.340   7.950   6.254  2.8406 -1.8571  2.5091
64383SOL    HW2 4875   5.429   7.874   6.157  2.2161  0.7356 -0.2369
64384SOL     OW 4876   6.178  13.244   1.085  0.1535 -0.6065 -0.2855
64384SOL    HW1 4877   6.255  13.189   1.103  0.7652  0.2813 -0.1279
64384SOL    HW2 4878   6.156  13.224   0.994  1.1092 -0.2408 -0.6133
64385SOL     OW 4879   6.334   9.602   4.576  0.1133  0.0746  0.4213
64385SOL    HW1 4880   6.341   9.519   4.530  2.4127  0.1601  0.5423
64385SOL    HW2 4881   6.265   9.587   4.641 -0.3817 -1.3100 -0.3747
64386SOL     OW 4882  11.863   2.625   5.063 -0.1862  0.7329 -0.3946
64386SOL    HW1 4883  11.813   2.671   4.995  1.6706  1.6822 -1.1657
64386SOL    HW2 4884  11.895   2.694   5.121 -0.0827  0.0979  0.3250
64387SOL     OW 4885  11.387  11.892   2.029 -0.2230  0.2747 -0.0059
64387SOL    HW1 4886  11.367  11.800   2.011  2.2003 -0.2037 -0.4966
64387SOL    HW2 4887  11.369  11.902   2.123 -0.6978 -0.6143  0.0132
64388SOL     OW 4888   3.313   0.966  10.562  0.4301 -0.1773  0.2779
64388SOL    HW1 4889   3.266   1.048  10.543  2.0849  0.7247 -0.1474
64388SOL    HW2 4890   3.362   0.985  10.641 -0.2964 -1.2952  1.0328
64389SOL     OW 4891   5.178   4.367   8.773  0.6512  0.0173  0.8890
64389SOL    HW1 4892   5.113   4.354   8.842 -0.6363 -2.5591 -0.6690
64389SOL    HW2 4893   5.152   4.307   8.703  3.5395  0.4027 -0.6848
64390SOL     OW 4894  10.801  11.212   1.214 -0.3580  0.1762  0.3607
64390SOL    HW1 4895  10.845  11.275   1.157 -1.1779 -0.0414 -0.5537
64390SOL    HW2 4896  10.745  11.266   1.270  0.5944  0.4069  1.1189
64391SOL     OW 4897   1.006   5.517   0.376  0.1645  0.0645  0.0968
64391SOL    HW1 4898   0.981   5.492   0.465  0.2249  0.7487  0.3142
64391SOL    HW2 4899   1.055   5.599   0.387  1.5929 -0.6774 -0.4180
64392SOL     OW 4900   8.355   3.979   0.483  0.2808 -0.0424  0.6866
64392SOL    HW1 4901   8.324   4.041   0.416  1.6508  0.3277  0.3659
64392SOL    HW2 4902   8.280   3.969   0.542 -0.0501  1.7942  0.6561
64393SOL     OW 4903   9.259   9.800   1.388  0.5242 -0.0387  0.7102
64393SOL    HW1 4904   9.172   9.761   1.377  0.2677 -0.4023  3.2780
64393SOL    HW2 4905   9.318   9.742   1.340 -0.6408  0.4704 -1.4730
64394SOL     OW 4906  10.497  13.058   9.202  0.0972  0.3286 -0.2318
64394SOL    HW1 4907  10.529  13.095   9.284 -0.8818  0.4676  0.0919
64394SOL    HW2 4908  10.516  13.126   9.137  2.0524 -0.2941 -0.3920
64395SOL     OW 4909  11.684   4.309   1.633  0.0692 -0.3280 -0.0877
64395SOL    HW1 4910  11.741   4.379   1.665  0.0941 -0.7744  0.8712
64395SOL    HW2 4911  11.652   4.341   1.548  0.5195  0.5920  0.0769
64396SOL     OW 4912   3.049   9.932  13.351 -0.3964 -0.0651 -0.0760
64396SOL    HW1 4913   3.039   9.846  13.392  1.1216 -0.1018  0.2877
64396SOL    HW2 4914   3.126   9.922  13.294  1.3252  1.6772  1.8152
64397SOL     OW 4915   8.131   0.633   7.942 -0.0716  0.2925 -0.1225
64397SOL    HW1 4916   8.036   0.633   7.953  0.0535  0.8327  1.0841
64397SOL    HW2 4917   8.151   0.546   7.906 -0.9232 -0.2119  0.5753
64398SOL     OW 4918   2.816   9.906  11.775  0.4817  0.4825 -0.1206
64398SOL    HW1 4919   2.906   9.898  11.806  0.8658 -0.8791 -1.4451
64398SOL    HW2 4920   2.824   9.922  11.681 -0.6519 -1.3384 -0.5761
64399SOL     OW 4921   0.096   0.067   3.322  0.3379  0.4707 -0.0660
64399SOL    HW1 4922   0.113   0.069   3.228  0.2518 -0.9654 -0.1346
64399SOL    HW2 4923   0.150  -0.005   3.354  0.2280  0.8281  0.9672
64400SOL     OW 4924   1.745   7.580   0.187  0.1040 -0.2623 -0.1997
64400SOL    HW1 4925   1.819   7.631   0.221  0.3434 -1.4627  1.1995
64400SOL    HW2 4926   1.772   7.553   0.100 -0.3906  2.6730 -1.3866
64401SOL     OW 4927   5.391   4.377   2.268  0.2395 -0.1519  0.2697
64401SOL    HW1 4928   5.324   4.444   2.258  1.1915  0.8712  0.5992
64401SOL    HW2 4929   5.358   4.302   2.217 -2.5243 -0.7807  2.7414
64402SOL     OW 4930  12.696   5.083   8.574  0.1065  0.7244  0.3374
64402SOL    HW1 4931  12.665   5.158   8.524 -1.3000 -1.5872 -2.5485
64402SOL    HW2 4932  12.763   5.043   8.519  0.2503 -0.5772  1.4017
64403SOL     OW 4933   7.955  11.498  11.644 -0.0046 -0.2036 -0.3095
64403SOL    HW1 4934   7.988  11.558  11.577  0.4243 -0.8245 -0.6606
64403SOL    HW2 4935   7.918  11.425  11.595  0.7313 -0.8847  0.1332
64404SOL     OW 4936  10.372   2.659   6.405 -0.2229  0.2004  0.1630
64404SOL    HW1 4937  10.413   2.741   6.378  0.1505  0.1049  0.4401
64404SOL    HW2 4938  10.280   2.669   6.381 -0.3151  0.9812  0.8318
64405SOL     OW 4939   6.190   4.900  11.440  0.2092 -0.3200  0.6112
64405SOL    HW1 4940   6.272   4.857  11.418  0.9207  2.2637 -2.4843
64405SOL    HW2 4941   6.134   4.885  11.363 -1.3913 -0.0208  1.6646
64406SOL     OW 4942   1.628   7.124   8.459 -0.3392  0.2875 -0.3688
64406SOL    HW1 4943   1.588   7.101   8.375 -1.0765  1.7309 -0.4583
64406SOL    HW2 4944   1.716   7.154   8.436 -0.2183 -0.1703 -0.5129
64407SOL     OW 4945   0.161  12.413  10.639  0.6085  0.0402  0.0560
64407SOL    HW1 4946   0.171  12.319  10.630 -1.0563 -0.2408  0.8361
64407SOL    HW2 4947   0.176  12.430  10.732 -0.0312  0.3979  0.1020
64408SOL     OW 4948   8.127  12.449   1.564 -0.0852 -0.0549  0.2013
64408SOL    HW1 4949   8.117  12.519   1.499  1.7362  1.3871  1.3482
64408SOL    HW2 4950   8.183  12.384   1.521 -2.1753 -1.1137 -1.0452
64409SOL     OW 4951   9.052  10.520   1.295  0.2282  0.1409 -0.5354
64409SOL    HW1 4952   8.982  10.537   1.232 -0.1271 -3.4559 -1.3483
64409SOL    HW2 4953   9.121  10.478   1.243  0.6583 -1.3430  1.1220
64410SOL     OW 4954  10.025   3.878   4.951 -0.3227 -0.8431  0.1294
64410SOL    HW1 4955  10.076   3.798   4.941  2.9688  0.8613  1.3845
64410SOL    HW2 4956   9.998   3.878   5.043 -0.5033 -0.6402  0.0763
64411SOL     OW 4957  13.614   4.489   6.349 -0.1553 -0.6013 -0.4198
64411SOL    HW1 4958  13.648   4.494   6.438  1.8668 -1.6218 -1.0646
64411SOL    HW2 4959  13.554   4.563   6.342  0.1088 -0.1261  1.5759
64412SOL     OW 4960  11.283   7.346   0.887 -0.0786 -0.3568  0.7948
64412SOL    HW1 4961  11.345   7.417   0.869 -0.0915 -1.1768 -3.4195
64412SOL    HW2 4962  11.197   7.386   0.878 -0.0939 -0.4855  0.3442
64413SOL     OW 4963   1.468   4.166   5.022  0.2477 -0.6021  0.0052
64413SOL    HW1 4964   1.460   4.251   4.979 -3.9978 -0.4360  0.6448
64413SOL    HW2 4965   1.474   4.103   4.950  0.8195  0.0690 -0.5509
64414SOL     OW 4966  12.989   3.085   9.907 -0.4907 -0.0768  0.2307
64414SOL    HW1 4967  12.949   3.043   9.983  0.3258 -0.3108  0.5380
64414SOL    HW2 4968  12.952   3.039   9.832  0.1257 -1.1285  0.5517
64415SOL     OW 4969   4.976  11.799  12.004 -0.8505  0.2834  0.4954
64415SOL    HW1 4970   4.987  11.855  11.927  0.1964 -1.8896 -1.0484
64415SOL    HW2 4971   5.065  11.778  12.032 -1.0946 -2.3513 -0.3958
64416SOL     OW 4972  12.329  11.127  12.494  0.6292 -0.1311 -0.6060
64416SOL    HW1 4973  12.422  11.134  12.517  0.2682 -0.5190  1.1433
64416SOL    HW2 4974  12.283  11.168  12.567 -0.6840 -2.8768  0.2614
64417SOL     OW 4975  12.823   0.093  11.659 -0.1406 -0.0639  0.5554
64417SOL    HW1 4976  12.912   0.117  11.635 -0.1587  1.1725  1.6123
64417SOL    HW2 4977  12.810   0.007  11.620  1.7450 -0.5673  0.9604
64418SOL     OW 4978   9.550  10.291   6.315 -0.0203 -0.0370 -0.3481
64418SOL    HW1 4979   9.463  10.322   6.337  0.2452  0.5445 -0.0907
64418SOL    HW2 4980   9.536  10.217   6.255 -0.7499 -1.3962  1.4305
64419SOL     OW 4981  11.947   9.368   3.601  0.1153 -0.4251  0.6957
64419SOL    HW1 4982  11.927   9.361   3.695  0.1618  1.8281  0.9411
64419SOL    HW2 4983  11.864   9.392   3.561  0.3760 -0.0725  0.3589
64420SOL     OW 4984  13.105   6.364   9.902  0.1619 -0.1084  0.1680
64420SOL    HW1 4985  13.030   6.398   9.950  1.3560  0.1221  1.9300
64420SOL    HW2 4986  13.139   6.439   9.852 -0.2814 -0.0175  0.0010
64421SOL     OW 4987   8.733  13.013   2.520  0.1260  0.2032  0.4934
64421SOL    HW1 4988   8.785  12.936   2.540 -0.2825 -0.4756 -0.9435
64421SOL    HW2 4989   8.768  13.081   2.577 -0.4412 -1.3614  2.8341
64422SOL     OW 4990   7.735   0.773   8.585 -0.5046  0.3099  0.2314
64422SOL    HW1 4991   7.756   0.768   8.492 -0.5597 -0.3039  0.2483
64422SOL    HW2 4992   7.820   0.781   8.628 -0.3856 -0.7361  0.2087
64423SOL     OW 4993   7.288  13.554   1.288 -0.4735 -0.4283 -0.6325
64423SOL    HW1 4994   7.243  13.597   1.215 -0.1446 -2.3439 -2.0197
64423SOL    HW2 4995   7.365  13.512   1.248  0.8409  0.1315  1.1650
64424SOL     OW 4996   7.450   0.711   9.019  0.4028  0.4906  0.5096
64424SOL    HW1 4997   7.420   0.716   9.110 -1.8163  0.2701 -0.1409
64424SOL    HW2 4998   7.524   0.772   9.015  0.7599  0.2742  2.5059
64425SOL     OW 4999   0.154   1.333   1.805  0.3680 -0.4670 -0.3732
64425SOL    HW1 5000   0.068   1.313   1.766  0.4997 -0.7421 -0.5260
64425SOL    HW2 5001   0.165   1.427   1.791  0.4642 -0.5762 -1.1217
64426SOL     OW 5002   4.161   8.218  11.843  0.6336 -0.4129 -0.1365
64426SOL    HW1 5003   4.206   8.296  11.875  0.8401 -0.2944 -0.7081
64426SOL    HW2 5004   4.073   8.224  11.881  0.2383  0.7515 -1.1766
64427SOL     OW 5005  10.435   5.856  10.893 -0.0839 -0.1938 -0.6262
64427SOL    HW1 5006  10.434   5.845  10.988  0.0646  1.5231 -0.4048
64427SOL    HW2 5007  10.461   5.947  10.879 -2.0382  0.1718 -2.2667
64428SOL     OW 5008   5.718   6.132   4.255  0.1051 -0.0471  0.7055
64428SOL    HW1 5009   5.763   6.140   4.339  0.1952 -0.3380  0.6829
64428SOL    HW2 5010   5.662   6.210   4.251 -1.4528 -1.0350  1.9668
64429SOL     OW 5011  13.187  12.652  10.475  0.5195  0.8582  0.4809
64429SOL    HW1 5012  13.173  12.725  10.415  1.8306  0.9684  0.2920
64429SOL    HW2 5013  13.210  12.578  10.419  1.4211  0.8762  0.8173
64430SOL     OW 5014   7.319   9.934  10.345  0.0388 -0.0164 -0.2539
64430SOL    HW1 5015   7.301   9.978  10.428  1.3657  2.2594 -1.0962
64430SOL    HW2 5016   7.237   9.890  10.323 -1.2633  1.7145  0.8798
64431SOL     OW 5017   5.744   2.741   8.161  0.2699  0.1988 -0.8546
64431SOL    HW1 5018   5.782   2.812   8.109  0.7289 -0.0413 -0.8525
64431SOL    HW2 5019   5.784   2.750   8.247 -1.3466  1.3018 -0.1599
64432SOL     OW 5020  12.117   1.849   7.803  0.9601  0.0955 -0.3317
64432SOL    HW1 5021  12.208   1.880   7.795  0.9262  0.3036  0.0448
64432SOL    HW2 5022  12.064   1.917   7.762  0.7835  1.1921  1.5823
64433SOL     OW 5023  11.455   0.525   7.068 -0.4037 -0.6582  0.9384
64433SOL    HW1 5024  11.417   0.606   7.103 -0.4700  0.2923 -1.1636
64433SOL    HW2 5025  11.380   0.465   7.061 -0.7100 -0.2741  0.8439
64434SOL     OW 5026   1.609   0.724   0.259 -0.1280 -0.0690 -0.2864
64434SOL    HW1 5027   1.540   0.745   0.195  0.2675  0.0580 -0.6741
64434SOL    HW2 5028   1.679   0.786   0.240 -0.8664  1.5076  1.7425
64435SOL     OW 5029   9.063   5.227  10.583  0.5081 -0.3292  0.0892
64435SOL    HW1 5030   9.055   5.256  10.492  0.1782 -1.9183 -0.4120
64435SOL    HW2 5031   8.994   5.275  10.630 -0.7718 -1.0970 -0.9390
64436SOL     OW 5032  10.982   3.829  10.303 -0.1247  0.1842 -0.2875
64436SOL    HW1 5033  11.017   3.818  10.392  1.8497  0.3605 -0.9964
64436SOL    HW2 5034  10.894   3.791  10.307  0.4117 -0.9989  1.4103
64437SOL     OW 5035   3.108   7.702   7.570 -0.4214 -0.0012  0.2692
64437SOL    HW1 5036   3.148   7.617   7.584 -1.1056 -0.6351 -1.3589
64437SOL    HW2 5037   3.171   7.750   7.517 -0.8991 -0.2715 -0.5732
64438SOL     OW 5038   6.002   8.949   6.629  0.1858  0.2509  0.0816
64438SOL    HW1 5039   6.033   8.944   6.539  0.1878  0.9825  0.0356
64438SOL    HW2 5040   6.032   8.868   6.670  4.7799  2.0458  0.8610
64439SOL     OW 5041   7.548   8.729   2.820  0.1328  0.6545  0.3817
64439SOL    HW1 5042   7.468   8.706   2.773 -0.5473  2.1054  0.7784
64439SOL    HW2 5043   7.574   8.814   2.784  1.2227  0.4414  0.6149
64440SOL     OW 5044   1.827   3.848   8.370  0.3605  0.4904 -0.4902
64440SOL    HW1 5045   1.921   3.848   8.356  0.4918  0.1432  0.3720
64440SOL    HW2 5046   1.799   3.937   8.349  0.5848  0.1252 -2.5938
64441SOL     OW 5047  10.500   4.608  10.563  0.0972  0.0377  0.3808
64441SOL    HW1 5048  10.532   4.523  10.595 -2.0931 -2.2543 -2.8417
64441SOL    HW2 5049  10.563   4.633  10.496 -0.8268 -0.7134 -0.8159
64442SOL     OW 5050   5.477   2.801  10.758  0.2130 -0.4729 -0.1196
64442SOL    HW1 5051   5.570   2.811  10.781  0.9209 -3.4938 -1.1638
64442SOL    HW2 5052   5.435   2.779  10.841  0.5945 -0.0452  0.1974
64443SOL     OW 5053  11.702  11.330   9.791  0.1578 -0.0869  0.2185
64443SOL    HW1 5054  11.719  11.341   9.885  1.1136 -1.0580  0.1797
64443SOL    HW2 5055  11.620  11.280   9.788 -0.5158  0.9660  0.4959
64444SOL     OW 5056  13.389  10.445   4.866 -0.1965  0.6076 -0.4354
64444SOL    HW1 5057  13.404  10.352   4.886 -0.3738  0.9291  1.4259
64444SOL    HW2 5058  13.476  10.483   4.863 -0.1554  0.5140 -0.4511
64445SOL     OW 5059   4.548   8.603   5.392  0.3339 -0.0800  0.1149
64445SOL    HW1 5060   4.520   8.679   5.443 -0.9047 -0.2264 -0.3214
64445SOL    HW2 5061   4.523   8.528   5.445  0.4920 -0.2064  0.0125
64446SOL     OW 5062  12.757  12.582   6.492 -0.4340 -0.0520  0.0203
64446SOL    HW1 5063  12.794  12.525   6.425  0.5859  0.6518 -0.0415
64446SOL    HW2 5064  12.722  12.657   6.443 -0.9308 -0.1751  0.1757
64447SOL     OW 5065   9.720   9.783   8.635  0.3182  0.1839  0.4594
64447SOL    HW1 5066   9.646   9.778   8.696 -0.5756  0.4990 -0.5789
64447SOL    HW2 5067   9.753   9.693   8.630  0.5541  0.1896  1.5598
64448SOL     OW 5068  10.728  11.302   9.713  0.3971 -0.0828  0.3176
64448SOL    HW1 5069  10.712  11.339   9.626  1.0387 -1.2776 -0.3277
64448SOL    HW2 5070  10.663  11.232   9.722  0.5260 -0.1590  0.6822
64449SOL     OW 5071   0.457  12.102   6.687  0.0390 -0.5651  0.3984
64449SOL    HW1 5072   0.438  12.025   6.741  0.6658 -0.1503  1.2365
64449SOL    HW2 5073   0.488  12.168   6.749  1.4820 -0.3068 -0.5399
64450SOL     OW 5074  13.218   1.146   5.229 -0.3339 -0.6834 -0.4952
64450SOL    HW1 5075  13.229   1.056   5.198  0.4837 -0.4282 -0.9830
64450SOL    HW2 5076  13.267   1.150   5.311  1.5292 -0.1217 -1.5797
64451SOL     OW 5077   5.326   8.717  13.176 -0.1134 -0.2556  0.4517
64451SOL    HW1 5078   5.383   8.679  13.244 -0.8314  0.0657  1.2554
64451SOL    HW2 5079   5.386   8.749  13.110  0.8599  2.4913  2.4912
64452SOL     OW 5080   0.643  11.156   4.802 -0.2452  0.5806  0.0131
64452SOL    HW1 5081   0.556  11.197   4.805  0.7431  3.0138 -1.9001
64452SOL    HW2 5082   0.624  11.062   4.801 -2.7380  0.9658  1.7510
64453SOL     OW 5083  11.692   5.946   8.679  0.0801 -0.5078  0.0713
64453SOL    HW1 5084  11.714   6.014   8.743 -1.1317 -1.1167  1.1825
64453SOL    HW2 5085  11.618   5.984   8.630 -0.4372 -0.9079  0.5294
64454SOL     OW 5086  11.431   6.523   2.305  0.2623 -0.3188  0.5894
64454SOL    HW1 5087  11.345   6.556   2.330  0.3737 -0.4082  1.0990
64454SOL    HW2 5088  11.454   6.573   2.227  1.1823  2.0458  2.2590
64455SOL     OW 5089  11.690   2.631   8.923  0.1969 -0.7051  0.0228
64455SOL    HW1 5090  11.665   2.699   8.860  0.1174 -1.4758 -0.8000
64455SOL    HW2 5091  11.630   2.559   8.905 -0.6235 -0.5149  1.8077
64456SOL     OW 5092  12.794   4.638   1.904  0.1004  0.1795  0.0575
64456SOL    HW1 5093  12.798   4.715   1.847 -0.8460 -0.3618 -0.7661
64456SOL    HW2 5094  12.861   4.579   1.869  0.4659  0.4044  0.3679
64457SOL     OW 5095   5.274  11.730   1.613  0.2265  0.4690 -0.3645
64457SOL    HW1 5096   5.367  11.714   1.597 -0.0032 -1.7894  0.2692
64457SOL    HW2 5097   5.243  11.651   1.658 -2.1103  0.9588 -0.9839
64458SOL     OW 5098   6.532   6.105   6.609  0.1596 -0.4117  0.2524
64458SOL    HW1 5099   6.532   6.168   6.537  0.2370  0.4363  0.9787
64458SOL    HW2 5100   6.599   6.137   6.669  0.4158 -1.3614  0.4996
64459SOL     OW 5101   1.432   0.040   5.956 -0.6010  0.0830 -0.0822
64459SOL    HW1 5102   1.525   0.059   5.959 -0.2814 -1.2956 -0.5923
64459SOL    HW2 5103   1.401   0.080   5.875 -0.1684 -0.5662 -0.5783
64460SOL     OW 5104   1.559  13.234   9.961 -0.5436  0.1880 -0.1896
64460SOL    HW1 5105   1.578  13.147   9.995 -0.7243  0.6745  1.2024
64460SOL    HW2 5106   1.629  13.289   9.995 -0.9919  0.7840 -0.2104
64461SOL     OW 5107   0.144   5.959   3.914  0.3346 -0.3521  0.6089
64461SOL    HW1 5108   0.228   5.963   3.867  0.1497 -0.4238  0.2678
64461SOL    HW2 5109   0.156   5.889   3.978 -0.3551 -2.2417 -1.2331
64462SOL     OW 5110   6.395  10.617  13.644 -0.2966  0.2868  0.1034
64462SOL    HW1 5111   6.356  10.531  13.628 -0.7009  0.4512  0.1819
64462SOL    HW2 5112   6.322  10.671  13.674 -0.1076  0.7376 -0.2277
64463SOL     OW 5113   4.491   3.681  13.283  0.0076 -0.2802  0.2682
64463SOL    HW1 5114   4.487   3.585  13.283 -0.1726 -0.2899 -0.8872
64463SOL    HW2 5115   4.525   3.703  13.369 -0.9823 -1.3310  0.9669
64464SOL     OW 5116  12.236  12.103  12.275  0.0049  0.0575 -0.5938
64464SOL    HW1 5117  12.280  12.157  12.341 -0.3329  0.5944 -0.8023
64464SOL    HW2 5118  12.214  12.164  12.204 -0.7315 -0.2654 -0.6571
64465SOL     OW 5119   2.182   2.470  13.215 -0.4546  0.2135  0.1433
64465SOL    HW1 5120   2.208   2.428  13.297 -0.9792  0.3084  0.3661
64465SOL    HW2 5121   2.196   2.564  13.230  2.3967  0.0618 -0.9565
64466SOL     OW 5122   4.331   1.528   2.485  0.2800 -0.1182 -0.3396
64466SOL    HW1 5123   4.402   1.490   2.435 -0.6811  1.7735 -3.4455
64466SOL    HW2 5124   4.335   1.622   2.465 -2.1318  0.2704  0.6186
64467SOL     OW 5125  11.768   4.317   2.340 -0.3382 -0.2181 -0.1126
64467SOL    HW1 5126  11.744   4.401   2.300  0.6169 -0.0727 -0.4057
64467SOL    HW2 5127  11.685   4.279   2.366 -0.8355  0.5529 -0.5189
64468SOL     OW 5128   0.509  10.625   8.203 -0.0452 -0.2757  0.3939
64468SOL    HW1 5129   0.533  10.533   8.219 -0.4414 -0.3279  0.6996
64468SOL    HW2 5130   0.452  10.622   8.126  0.9071 -0.1526 -0.3347
64469SOL     OW 5131  12.116  11.785   1.302  0.5778  0.0560 -0.5181
64469SOL    HW1 5132  12.084  11.811   1.389 -0.1517 -1.5881 -0.2705
64469SOL    HW2 5133  12.038  11.760   1.254  1.0346  0.4816 -1.5167
64470SOL     OW 5134   7.687   2.294   9.641 -0.1915  0.4070  0.0366
64470SOL    HW1 5135   7.605   2.337   9.665 -0.2740 -0.9441  2.4966
64470SOL    HW2 5136   7.722   2.260   9.723  2.4203  0.1566 -1.0491
64471SOL     OW 5137   0.779  10.212   8.990  0.0089  0.1570  0.0703
64471SOL    HW1 5138   0.804  10.190   9.080 -0.4068  2.3681  0.8053
64471SOL    HW2 5139   0.841  10.281   8.965 -1.6092  1.5472 -0.2547
64472SOL     OW 5140   1.691   1.585  12.826  0.3179 -0.0047 -0.1339
64472SOL    HW1 5141   1.630   1.545  12.765  0.0749 -0.9758  0.7195
64472SOL    HW2 5142   1.746   1.641  12.772  0.4247 -1.2089 -1.3170
64473SOL     OW 5143   1.750   4.091   5.776 -0.2260 -0.2789 -0.2793
64473SOL    HW1 5144   1.709   4.016   5.732  1.4636 -0.3369 -1.8386
64473SOL    HW2 5145   1.832   4.056   5.811 -0.7821  0.1741  1.5984
64474SOL     OW 5146   8.135   0.112  11.469  1.0904  0.1056 -0.1279
64474SOL    HW1 5147   8.166   0.201  11.452  2.1636 -0.3521 -0.5934
64474SOL    HW2 5148   8.163   0.061  11.394 -2.5058  0.0020 -1.6185
64475SOL     OW 5149   5.524   1.764   9.630  0.0678  0.1976 -0.5626
64475SOL    HW1 5150   5.516   1.802   9.542  0.4492  0.4432 -0.4917
64475SOL    HW2 5151   5.440   1.785   9.671 -0.2109 -0.1355 -0.9495
64476SOL     OW 5152  13.105   2.525   5.240 -0.5086 -0.5453  0.1129
64476SOL    HW1 5153  13.149   2.481   5.313  0.9716  1.0598  0.2501
64476SOL    HW2 5154  13.154   2.496   5.163 -2.3660 -2.6260 -0.4123
64477SOL     OW 5155   5.589   0.919   9.907 -0.2004 -0.0833  0.0891
64477SOL    HW1 5156   5.524   0.974   9.951  1.5977  0.8927  1.6972
64477SOL    HW2 5157   5.616   0.971   9.831  1.2867  1.2607  1.4480
64478SOL     OW 5158   9.939   4.300   2.892  0.4992  0.1375 -0.3565
64478SOL    HW1 5159   9.901   4.355   2.823  0.0167 -0.4331 -0.5586
64478SOL    HW2 5160   9.865   4.278   2.948  0.8456  0.3861  0.2019
64479SOL     OW 5161   1.142  10.035  11.711 -0.0975  0.0315 -0.3308
64479SOL    HW1 5162   1.088  10.004  11.783 -1.8521  2.4041 -0.4966
64479SOL    HW2 5163   1.140   9.965  11.646 -0.7191 -1.0341  0.8129
64480SOL     OW 5164   3.381   0.396  13.531  0.0222 -0.7397  0.6711
64480SOL    HW1 5165   3.286   0.382  13.521  0.0805 -0.2724 -0.8441
64480SOL    HW2 5166   3.399   0.474  13.478  0.8745  0.7253  2.9466
64481SOL     OW 5167   6.572  13.486   2.686 -0.0568 -0.1502 -0.2939
64481SOL    HW1 5168   6.630  13.532   2.747  0.6222 -2.1117  0.6439
64481SOL    HW2 5169   6.616  13.494   2.601 -0.2021  1.2925 -0.2477
64482SOL     OW 5170  13.039   6.967   6.598 -0.3976  0.0374  0.3936
64482SOL    HW1 5171  12.981   7.023   6.649  1.6103  0.5922  2.1617
64482SOL    HW2 5172  13.042   6.885   6.647  0.2858  0.0005  0.2969
64483SOL     OW 5173   6.535   8.947  12.342 -0.3313  0.2443 -0.5532
64483SOL    HW1 5174   6.446   8.959  12.375  0.1258 -1.5112  1.5499
64483SOL    HW2 5175   6.581   9.027  12.368 -0.9127  0.4739 -0.2174
64484SOL     OW 5176  13.381   8.977  12.744 -0.5327  0.3760 -0.3928
64484SOL    HW1 5177  13.385   8.882  12.734  1.0432 -0.0790  2.9864
64484SOL    HW2 5178  13.407   9.011  12.659 -1.4877 -2.1746 -1.8117
64485SOL     OW 5179   9.705  12.021   7.131  0.7272 -0.3554  0.6883
64485SOL    HW1 5180   9.780  12.075   7.157  0.3861  0.2172  0.4793
64485SOL    HW2 5181   9.700  12.032   7.036  0.4050 -0.4324  0.6972
64486SOL     OW 5182   8.877   4.005  12.221  0.4145 -0.0072  0.3971
64486SOL    HW1 5183   8.904   4.016  12.130 -1.9442  1.4724 -0.2217
64486SOL    HW2 5184   8.817   3.930  12.219  1.0796 -0.5690  0.9365
64487SOL     OW 5185  11.942  10.505  13.520  0.2662 -0.4333  0.0512
64487SOL    HW1 5186  11.894  10.469  13.445  0.9951  0.6870 -1.0049
64487SOL    HW2 5187  11.874  10.527  13.584 -0.3738 -1.3954 -0.2868
64488SOL     OW 5188   7.297   6.038  13.416  0.1574 -0.1958 -0.3501
64488SOL    HW1 5189   7.358   5.964  13.419 -0.6779 -1.1219 -3.2101
64488SOL    HW2 5190   7.275   6.046  13.324 -1.5382  2.2308  0.1936
64489SOL     OW 5191   6.569   9.948   9.931 -0.1065  0.2244  0.6397
64489SOL    HW1 5192   6.537  10.010   9.997  0.3432 -0.0706  1.1471
64489SOL    HW2 5193   6.490   9.906   9.898 -0.2724 -0.4105  1.7968
64490SOL     OW 5194   5.307   3.182   5.983  0.2237 -0.4586  0.5413
64490SOL    HW1 5195   5.276   3.269   6.009  1.3754  0.1517 -0.0266
64490SOL    HW2 5196   5.344   3.145   6.063 -2.0571 -1.2976  1.2909
64491SOL     OW 5197   2.558   5.155  13.321  0.9744 -0.0140  0.3543
64491SOL    HW1 5198   2.495   5.092  13.354  0.5109  0.4270  0.3334
64491SOL    HW2 5199   2.600   5.112  13.248 -1.4099  0.7123 -1.5878
64492SOL     OW 5200   6.419   3.657   8.264  0.3246 -0.3732 -0.2304
64492SOL    HW1 5201   6.324   3.649   8.276  0.2992 -0.2585 -0.3554
64492SOL    HW2 5202   6.430   3.687   8.174  0.3601  2.0599  0.5141
64493SOL     OW 5203   9.457   3.474   2.173  0.5243 -0.6784  0.3578
64493SOL    HW1 5204   9.383   3.532   2.150 -1.4051 -2.5722  1.3866
64493SOL    HW2 5205   9.468   3.419   2.096 -0.3956 -1.5658  0.8288
64494SOL     OW 5206   9.449   4.474   9.386 -0.4123 -0.2186 -0.4356
64494SOL    HW1 5207   9.495   4.512   9.311  1.0391 -1.1622 -0.0721
64494SOL    HW2 5208   9.429   4.385   9.359 -1.9554  0.1320 -0.5282
64495SOL     OW 5209   1.373   2.105   1.195  0.4184  0.0863  0.3032
64495SOL    HW1 5210   1.335   2.185   1.159  1.0576  0.8123  1.1704
64495SOL    HW2 5211   1.428   2.071   1.124 -2.0543 -1.1889 -1.0933
64496SOL     OW 5212   0.219   5.627   9.508 -0.2901 -0.3465 -0.2550
64496SOL    HW1 5213   0.153   5.610   9.442 -1.3680  1.8852  0.1419
64496SOL    HW2 5214   0.259   5.542   9.526 -2.2963 -1.5625 -1.3084
64497SOL     OW 5215   3.189   9.156  12.307 -0.0868 -0.2436  0.2761
64497SOL    HW1 5216   3.190   9.252  12.301 -1.1342 -0.1763  0.9342
64497SOL    HW2 5217   3.163   9.127  12.220 -1.1482  0.1371  0.4501
64498SOL     OW 5218  11.840  13.273  10.204  0.0919 -0.2996  0.1390
64498SOL    HW1 5219  11.902  13.243  10.270  0.8314 -1.5542 -1.0631
64498SOL    HW2 5220  11.820  13.195  10.152  0.3687  0.8250 -1.7687
64499SOL     OW 5221  12.951   2.153   9.410 -0.0707 -0.1564  0.4873
64499SOL    HW1 5222  12.899   2.094   9.357  0.7002 -1.1301  0.7806
64499SOL    HW2 5223  12.911   2.148   9.497  1.0493 -1.6464  0.9510
64500SOL     OW 5224  12.549   3.020  10.312 -0.1098  0.2322  0.4838
64500SOL    HW1 5225  12.635   3.020  10.268  1.4798  0.3112  3.3801
64500SOL    HW2 5226  12.508   2.938  10.283  0.2791  0.8140 -1.9928
64501SOL     OW 5227   7.448   1.878   3.507  0.3208 -0.3258 -0.4631
64501SOL    HW1 5228   7.438   1.877   3.411 -1.4397  2.4446 -0.4054
64501SOL    HW2 5229   7.516   1.943   3.523 -0.9442  0.8683  0.2028
64502SOL     OW 5230   4.872   0.743   3.646  0.1819  0.5385 -0.1181
64502SOL    HW1 5231   4.870   0.772   3.737  0.9666 -1.3318  0.5505
64502SOL    HW2 5232   4.955   0.776   3.613 -0.2490  1.4934 -0.2641
64503SOL     OW 5233   5.014   3.602  13.744  0.0575  0.5450 -0.2359
64503SOL    HW1 5234   5.098   3.573  13.779  0.3594  0.1040 -1.2919
64503SOL    HW2 5235   4.982   3.666  13.808  0.5712 -0.2531  0.8383
64504SOL     OW 5236   2.573   7.354   2.548 -0.1450  0.1060 -0.0675
64504SOL    HW1 5237   2.527   7.356   2.463  0.7550 -0.7156 -0.5946
64504SOL    HW2 5238   2.560   7.264   2.579 -0.8594  0.5312  0.9092
64505SOL     OW 5239  11.214  12.936   1.287 -0.1231  0.2506 -0.1989
64505SOL    HW1 5240  11.214  13.008   1.350  1.1344  0.5816 -0.5481
64505SOL    HW2 5241  11.257  12.864   1.333 -2.1983 -0.6485  0.4886
64506SOL     OW 5242   6.522   5.360  10.723 -0.1828 -0.4156 -0.5224
64506SOL    HW1 5243   6.435   5.395  10.703 -0.2516 -0.7480 -0.8077
64506SOL    HW2 5244   6.532   5.372  10.817 -0.8132 -0.9936 -0.3780
64507SOL     OW 5245  11.414   9.407   3.534 -0.2282 -0.3007  0.2286
64507SOL    HW1 5246  11.392   9.478   3.594  1.5809 -0.5024  1.1634
64507SOL    HW2 5247  11.456   9.341   3.588  1.6857 -0.3803 -1.2709
64508SOL     OW 5248   8.889  10.512   1.557  0.2133 -0.2364  1.0461
64508SOL    HW1 5249   8.911  10.499   1.649  2.0523 -0.0366  0.6743
64508SOL    HW2 5250   8.960  10.469   1.509 -0.4163  0.1472 -0.2738
64509SOL     OW 5251   8.331  11.446   2.170 -0.1359  0.9013 -0.5335
64509SOL    HW1 5252   8.418  11.434   2.207 -0.6253  0.2952  0.4919
64509SOL    HW2 5253   8.285  11.499   2.235 -0.9164  0.1179 -0.4276
64510SOL     OW 5254   8.862  11.592   9.335 -0.4492 -0.3553 -0.2188
64510SOL    HW1 5255   8.912  11.666   9.302 -0.8744  1.4063  2.7722
64510SOL    HW2 5256   8.921  11.517   9.323  2.0253  1.2469  0.9541
64511SOL     OW 5257   5.969   9.377   3.447  0.0915 -0.0722  0.0999
64511SOL    HW1 5258   5.973   9.284   3.471  0.1224  0.1539  0.9742
64511SOL    HW2 5259   5.888   9.409   3.486 -0.0030  0.2426 -0.3393
64512SOL     OW 5260   9.996  11.363  13.707 -0.3385 -0.2305  0.4093
64512SOL    HW1 5261  10.002  11.440  13.651  0.9264 -0.1694  0.6009
64512SOL    HW2 5262  10.056  11.300  13.667  0.1205 -0.4023  1.3638
64513SOL     OW 5263   1.512   5.305  10.295 -0.1041 -0.3609  0.5529
64513SOL    HW1 5264   1.590   5.275  10.250  0.6749  0.5705  1.2418
64513SOL    HW2 5265   1.474   5.226  10.333  1.9116 -0.5400  2.3647
64514SOL     OW 5266  13.356   2.139   6.341 -0.3405 -0.4494 -0.2942
64514SOL    HW1 5267  13.358   2.141   6.245 -1.1693  0.5843 -0.2998
64514SOL    HW2 5268  13.281   2.192   6.365 -0.3222 -0.9440  0.9363
64515SOL     OW 5269  13.319   0.403  12.355 -0.3344  0.3947  1.5628
64515SOL    HW1 5270  13.334   0.486  12.401  0.7356 -0.0088  2.0002
64515SOL    HW2 5271  13.352   0.418  12.267 -1.1222  0.7555  1.3291
64516SOL     OW 5272   9.806  10.104   1.015  0.4182  0.3493  0.0644
64516SOL    HW1 5273   9.846  10.039   1.074  0.5595 -0.5830 -1.0212
64516SOL    HW2 5274   9.717  10.071   1.001 -0.8536  2.3786  2.4276
64517SOL     OW 5275   8.716  10.527   9.216  0.1449  0.0715  0.3157
64517SOL    HW1 5276   8.798  10.575   9.227  1.1953 -1.4385 -0.5742
64517SOL    HW2 5277   8.649  10.595   9.209  1.4913  1.3834 -0.3864
64518SOL     OW 5278   4.383   2.076   9.762 -0.2063  0.2160 -0.0838
64518SOL    HW1 5279   4.384   2.104   9.854  0.7381  2.9744 -0.8112
64518SOL    HW2 5280   4.476   2.062   9.741  0.2466  4.0400 -1.6305
64519SOL     OW 5281  12.131   5.646   2.886 -0.0835  0.8013 -0.0795
64519SOL    HW1 5282  12.046   5.614   2.916  0.2524 -0.2566 -0.2049
64519SOL    HW2 5283  12.180   5.661   2.967  0.0744  0.0729 -0.0331
64520SOL     OW 5284   6.804  12.372   0.656  0.2889  0.5116 -0.2040
64520SOL    HW1 5285   6.742  12.444   0.662 -0.1448  0.0763  0.7643
64520SOL    HW2 5286   6.880  12.402   0.706  0.1277  0.3242  0.1574
64521SOL     OW 5287   2.164   0.144   1.249 -0.0528 -0.3003  0.9800
64521SOL    HW1 5288   2.182   0.174   1.160 -0.2217 -0.1423  0.9990
64521SOL    HW2 5289   2.068   0.145   1.256 -0.0454  3.4029  2.4151
64522SOL     OW 5290   8.521   2.377   8.119 -0.6296  0.0782  0.0486
64522SOL    HW1 5291   8.434   2.401   8.086 -1.1951 -1.1036  0.6287
64522SOL    HW2 5292   8.535   2.287   8.089  0.0371 -0.0356  0.6646
64523SOL     OW 5293   0.289   5.165   5.559  0.0625 -0.1889 -0.4419
64523SOL    HW1 5294   0.241   5.105   5.616  1.0857 -0.4616  0.1729
64523SOL    HW2 5295   0.380   5.158   5.589  0.1354  2.1443  0.1168
64524SOL     OW 5296   7.991  11.778   7.711  0.3688 -0.1471  0.2514
64524SOL    HW1 5297   7.932  11.735   7.773 -0.4097  0.7119  0.1277
64524SOL    HW2 5298   7.963  11.869   7.711 -0.5714 -0.3726 -2.3869
64525SOL     OW 5299   0.793  10.510   2.974  0.1263  0.6471 -0.6803
64525SOL    HW1 5300   0.779  10.415   2.965 -0.1200  0.6196 -0.0354
64525SOL    HW2 5301   0.705  10.547   2.980  0.2377  0.7659  0.4686
64526SOL     OW 5302   5.650   2.775   0.184 -0.4533 -0.2609 -0.1365
64526SOL    HW1 5303   5.668   2.682   0.201  0.0035 -0.3265 -0.8897
64526SOL    HW2 5304   5.555   2.781   0.183 -0.5540 -0.1646  2.6694
64527SOL     OW 5305   8.174  11.142   0.062  0.7545  0.0371  0.0924
64527SOL    HW1 5306   8.136  11.229   0.057  3.3132  1.2345 -0.2527
64527SOL    HW2 5307   8.106  11.084   0.028 -0.3547  2.1111 -1.4600
64528SOL     OW 5308   5.163   3.010   5.188 -0.0712  0.2950  0.0202
64528SOL    HW1 5309   5.245   3.058   5.176  0.9050 -1.3523 -0.1099
64528SOL    HW2 5310   5.190   2.922   5.214 -1.8423  0.0469  1.1734
64529SOL     OW 5311  13.221   5.843  12.952 -0.1863 -0.2298 -0.1357
64529SOL    HW1 5312  13.200   5.932  12.924  0.1120 -0.5509 -1.4366
64529SOL    HW2 5313  13.177   5.834  13.037 -1.8970  0.4987 -0.8878
64530SOL     OW 5314   3.549   2.839   3.301  0.1016 -0.1767  0.0111
64530SOL    HW1 5315   3.554   2.765   3.241 -2.4423  0.8036 -1.5635
64530SOL    HW2 5316   3.635   2.841   3.344  1.3052 -2.1859 -2.0761
64531SOL     OW 5317   2.822   8.718  10.119  0.2962  0.4164 -0.0066
64531SOL    HW1 5318   2.754   8.655  10.093 -0.2000  0.3506  1.3739
64531SOL    HW2 5319   2.822   8.783  10.049  0.0213 -0.4955 -0.8919
64532SOL     OW 5320   5.153  12.406  11.942  0.3621 -0.1820  0.7062
64532SOL    HW1 5321   5.148  12.501  11.954  1.3287 -0.0228 -0.0453
64532SOL    HW2 5322   5.166  12.394  11.848  0.7778 -1.0415  0.8623
64533SOL     OW 5323  13.614   4.965   2.474 -0.0959 -0.1982 -0.1475
64533SOL    HW1 5324  13.609   4.942   2.566 -0.2818 -0.6057 -0.2586
64533SOL    HW2 5325  13.689   5.025   2.468 -1.0290  1.0856  0.5180
64534SOL     OW 5326  10.734  10.604   1.913  0.0199 -0.1084 -0.2003
64534SOL    HW1 5327  10.667  10.657   1.955 -2.6583 -3.1151 -0.3248
64534SOL    HW2 5328  10.751  10.649   1.830  0.9523  2.6504  1.3739
64535SOL     OW 5329  12.636   6.805   4.603  0.2901  0.3503 -0.4948
64535SOL    HW1 5330  12.698   6.861   4.648  0.7202 -0.4442 -0.0747
64535SOL    HW2 5331  12.658   6.814   4.510  0.9995  0.1262 -0.3537
64536SOL     OW 5332  13.249   2.521   8.183  0.0234  0.1954  0.4316
64536SOL    HW1 5333  13.219   2.602   8.142 -1.5999 -1.5144 -2.0302
64536SOL    HW2 5334  13.272   2.464   8.109 -0.2151 -2.0746  2.0039
64537SOL     OW 5335   8.998   4.582  11.914 -0.5272  0.2022 -0.1340
64537SOL    HW1 5336   9.064   4.652  11.915 -0.6690  0.4180 -2.0401
64537SOL    HW2 5337   9.003   4.546  11.825 -0.5910 -2.1087  0.7330
64538SOL     OW 5338  11.259  11.987   3.985  0.1896  0.8406 -0.4319
64538SOL    HW1 5339  11.260  12.042   4.063 -0.7474 -0.2122  0.3564
64538SOL    HW2 5340  11.188  11.924   4.001  0.3539  0.2494 -1.8832
64539SOL     OW 5341  10.897   0.866   7.078 -0.1798 -0.1582 -0.1315
64539SOL    HW1 5342  10.917   0.955   7.107  0.7062 -0.3395 -0.1564
64539SOL    HW2 5343  10.968   0.813   7.112 -1.3548 -1.0936  0.9890
64540SOL     OW 5344   6.536   3.451   1.046 -0.5101 -0.6726 -0.0445
64540SOL    HW1 5345   6.585   3.384   0.999 -0.8189 -0.0386 -1.3143
64540SOL    HW2 5346   6.456   3.407   1.075 -0.5607 -0.9380 -0.5893
64541SOL     OW 5347   0.026   2.663   4.467 -0.1940  0.4445 -0.0828
64541SOL    HW1 5348   0.097   2.608   4.434 -0.8266 -0.1563 -0.4719
64541SOL    HW2 5349  -0.038   2.664   4.397 -1.4096 -0.5580  0.9680
64542SOL     OW 5350   4.321   7.820   9.285  0.2793  0.4171 -0.0062
64542SOL    HW1 5351   4.250   7.868   9.241 -1.3245 -1.9357 -0.1333
64542SOL    HW2 5352   4.369   7.777   9.214 -1.6614 -2.5196  0.3099
64543SOL     OW 5353   1.003  11.628  11.116 -0.1047 -0.1691  0.3079
64543SOL    HW1 5354   0.919  11.602  11.078  0.8712 -1.1484 -1.2610
64543SOL    HW2 5355   1.064  11.559  11.091  1.8500  1.9287 -1.2101
64544SOL     OW 5356   1.630   1.664   3.132 -0.4582 -0.2086 -0.4921
64544SOL    HW1 5357   1.627   1.758   3.147  0.9140 -0.2150 -0.1388
64544SOL    HW2 5358   1.566   1.628   3.193  2.2406  0.1049  2.7826
64545SOL     OW 5359  11.414   0.213   6.851  0.2679 -0.3966  0.0636
64545SOL    HW1 5360  11.328   0.212   6.894  0.5343 -0.6242  0.6052
64545SOL    HW2 5361  11.433   0.306   6.840 -0.1776 -0.3490 -0.3284
64546SOL     OW 5362  12.110   4.038  12.887 -0.2980  0.3541 -0.1205
64546SOL    HW1 5363  12.132   3.994  12.970 -2.1069  1.2322  0.8884
64546SOL    HW2 5364  12.194   4.069  12.854  0.4417  0.3392  1.6003
64547SOL     OW 5365   6.569   9.092   2.979  0.4814  0.6023 -0.5547
64547SOL    HW1 5366   6.593   9.025   2.916 -0.9023 -1.2948  0.8268
64547SOL    HW2 5367   6.617   9.170   2.951  1.4394 -0.6978 -2.7437
64548SOL     OW 5368   6.030   3.495   7.141 -0.0447 -0.0347  0.3298
64548SOL    HW1 5369   6.044   3.587   7.117  0.1618  0.0823  0.8719
64548SOL    HW2 5370   6.108   3.471   7.191  0.5427 -0.9287 -0.9642
64549SOL     OW 5371   5.577   6.164   3.877  0.2769 -0.0633  0.3808
64549SOL    HW1 5372   5.654   6.215   3.902 -0.6831  0.6712  2.0392
64549SOL    HW2 5373   5.569   6.098   3.947 -1.4315  0.8391  1.0933
64550SOL     OW 5374   0.590   0.338  10.164  0.1345 -0.1473 -0.1937
64550SOL    HW1 5375   0.499   0.357  10.187  0.9624  0.7853  2.6732
64550SOL    HW2 5376   0.609   0.401  10.094 -0.8122  1.2247  0.7159
64551SOL     OW 5377   5.412   4.526  11.327  0.1488  0.0029 -0.2999
64551SOL    HW1 5378   5.449   4.454  11.377  0.7640  0.4597 -0.0793
64551SOL    HW2 5379   5.351   4.485  11.266  1.1706 -0.7969 -0.8142
64552SOL     OW 5380   7.432   6.458  10.104 -0.0615  0.2735 -0.2183
64552SOL    HW1 5381   7.458   6.450  10.195  1.0942 -1.6298 -0.6598
64552SOL    HW2 5382   7.449   6.550  10.082 -0.9959  0.9358  1.6179
64553SOL     OW 5383  10.630  12.261   1.564 -0.3154  0.0599 -0.0360
64553SOL    HW1 5384  10.598  12.250   1.474 -0.1233 -0.9461  0.0080
64553SOL    HW2 5385  10.613  12.176   1.606  0.4894  0.2001  0.5921
64554SOL     OW 5386   7.751   8.830  11.547  0.3633 -0.0454  0.5261
64554SOL    HW1 5387   7.755   8.785  11.463  1.1670  0.9842 -0.0132
64554SOL    HW2 5388   7.800   8.912  11.533  0.4882  0.1595  1.9773
64555SOL     OW 5389  12.536   1.623  11.534  0.1720 -0.3528  0.1337
64555SOL    HW1 5390  12.624   1.612  11.569  0.3800 -0.7539 -0.5134
64555SOL    HW2 5391  12.497   1.535  11.540 -0.4832 -0.0166  1.1875
64556SOL     OW 5392   3.844   9.314   3.858 -0.2861  0.0676 -0.7749
64556SOL    HW1 5393   3.939   9.321   3.866 -0.0161 -1.7672 -1.7032
64556SOL    HW2 5394   3.816   9.272   3.939 -0.1855 -0.1072 -0.8291
64557SOL     OW 5395  10.454  10.229   2.518  0.0433 -0.1612  0.0456
64557SOL    HW1 5396  10.390  10.176   2.567  0.3063  0.0113  0.5812
64557SOL    HW2 5397  10.497  10.166   2.460  0.5359 -0.5996  0.8624
64558SOL     OW 5398   2.810   7.318  10.619 -0.7889 -0.0260 -0.1179
64558SOL    HW1 5399   2.831   7.225  10.606 -0.5651 -0.0382  0.2890
64558SOL    HW2 5400   2.870   7.365  10.561 -0.8748 -0.1342 -0.2943
64559SOL     OW 5401   6.156   7.884  12.585 -0.9931  0.3296  0.0290
64559SOL    HW1 5402   6.195   7.850  12.505 -0.3758 -0.3224  0.5952
64559SOL    HW2 5403   6.074   7.924  12.557 -0.9119 -0.1301 -0.8880
64560SOL     OW 5404   5.347   4.145   6.946  0.5258 -0.1781 -0.5162
64560SOL    HW1 5405   5.292   4.168   7.021  0.6132  3.4765 -1.3914
64560SOL    HW2 5406   5.436   4.167   6.973  0.8810 -1.0352 -0.9397
64561SOL     OW 5407   0.582  13.047   1.161 -0.2666 -0.2206 -0.0279
64561SOL    HW1 5408   0.525  13.105   1.212  1.3067  1.6757 -0.2747
64561SOL    HW2 5409   0.546  13.050   1.073 -0.8132 -0.4895  0.1813
64562SOL     OW 5410   9.715   3.695   4.834  0.4020 -0.4851  0.1890
64562SOL    HW1 5411   9.746   3.723   4.748  2.0607  0.5477  1.0781
64562SOL    HW2 5412   9.731   3.601   4.836  0.4559 -0.4934 -0.5906
64563SOL     OW 5413   5.835   9.129  11.534 -0.0553 -0.3531  0.1683
64563SOL    HW1 5414   5.872   9.177  11.607  1.6953 -2.5873  0.8613
64563SOL    HW2 5415   5.810   9.196  11.471 -0.8029  1.5877  2.4008
64564SOL     OW 5416  13.058   4.237  10.653  0.4455  0.6422 -0.0141
64564SOL    HW1 5417  13.021   4.244  10.565  0.4942  2.1351  0.0562
64564SOL    HW2 5418  13.104   4.320  10.667  2.6446 -0.5629  0.4474
64565SOL     OW 5419   8.639   6.907  12.199 -0.6995 -0.0013  0.1681
64565SOL    HW1 5420   8.690   6.943  12.127 -0.2589 -1.7097 -0.4264
64565SOL    HW2 5421   8.550   6.899  12.165 -0.6610 -0.0801  0.0876
64566SOL     OW 5422   1.815   1.672   1.153 -0.5679  0.1426 -0.3604
64566SOL    HW1 5423   1.798   1.766   1.164  0.3242  0.3129 -0.4329
64566SOL    HW2 5424   1.795   1.635   1.240  2.8044  0.9651  0.9003
64567SOL     OW 5425   3.094   2.644  10.991  0.7776 -0.8640 -0.7772
64567SOL    HW1 5426   3.134   2.562  10.962  1.6594 -0.0086 -2.0694
64567SOL    HW2 5427   3.084   2.633  11.085  2.4198 -1.8113 -0.6719
64568SOL     OW 5428   8.620  11.955   0.003  0.4385  0.9299  0.5672
64568SOL    HW1 5429   8.593  11.932  -0.086  0.0753  1.4324  0.5409
64568SOL    HW2 5430   8.539  11.978   0.048  0.6380  0.8211  0.9864
64569SOL     OW 5431   1.741   0.655   3.159  0.1362 -0.1960 -0.6651
64569SOL    HW1 5432   1.824   0.609   3.175  0.7127  0.9871 -0.1098
64569SOL    HW2 5433   1.694   0.648   3.242 -0.9870 -2.1034 -1.4056
64570SOL     OW 5434   9.699  11.763   2.134 -0.6464  0.6057  0.2892
64570SOL    HW1 5435   9.669  11.852   2.155 -2.1590  0.3569 -0.6622
64570SOL    HW2 5436   9.636  11.731   2.069 -0.3593 -1.3086  0.8904
64571SOL     OW 5437   8.241  11.257  11.062  0.3420 -0.0176  0.4422
64571SOL    HW1 5438   8.320  11.241  11.010  0.4744  1.2209  0.2372
64571SOL    HW2 5439   8.170  11.219  11.010  0.4987  1.0235 -0.5665
64572SOL     OW 5440   4.546   1.307   1.905  0.2026  0.0497 -0.4453
64572SOL    HW1 5441   4.492   1.304   1.825  0.5387 -1.5105 -0.6545
64572SOL    HW2 5442   4.539   1.218   1.941  0.5736  0.5561  0.9276
64573SOL     OW 5443   0.105   8.293   7.693  0.2537 -0.1456 -0.3718
64573SOL    HW1 5444   0.131   8.285   7.785  1.8081  0.5504 -0.7118
64573SOL    HW2 5445   0.053   8.215   7.676 -2.0035  0.7673  1.6852
64574SOL     OW 5446  11.431   5.926  11.706 -0.0689 -1.0377 -0.1824
64574SOL    HW1 5447  11.343   5.964  11.700  0.2769 -0.3962 -1.5412
64574SOL    HW2 5448  11.456   5.939  11.798  0.0409  2.1332 -0.5347
64575SOL     OW 5449   0.089   2.286  11.743  0.2169  0.2359 -0.5913
64575SOL    HW1 5450   0.134   2.310  11.824 -0.6624  0.5613 -0.1895
64575SOL    HW2 5451  -0.003   2.276  11.768 -0.1064  0.5769 -1.5985
64576SOL     OW 5452  11.215   8.134  12.935 -0.2109 -0.4193  0.3578
64576SOL    HW1 5453  11.223   8.092  12.850  1.9811 -0.5556  0.5645
64576SOL    HW2 5454  11.271   8.083  12.993 -1.1644  0.0428  1.7399
64577SOL     OW 5455   4.921   0.778   3.910 -0.2324  0.3790  0.0585
64577SOL    HW1 5456   4.967   0.721   3.972 -1.8933  1.6190  2.6021
64577SOL    HW2 5457   4.832   0.742   3.907  0.4631 -1.7741 -4.4867
64578SOL     OW 5458  11.482   5.373   9.198 -0.3054  0.4728  0.0384
64578SOL    HW1 5459  11.490   5.406   9.287  0.8568 -1.1976  0.6051
64578SOL    HW2 5460  11.569   5.338   9.178 -0.4754  1.0428 -1.8539
64579SOL     OW 5461  11.777   3.859   7.052  0.0152 -0.7414 -0.0897
64579SOL    HW1 5462  11.832   3.782   7.069 -1.2601 -1.5638  0.4511
64579SOL    HW2 5463  11.746   3.846   6.962  1.3755  0.1888 -0.7376
64580SOL     OW 5464   2.067  12.774   2.978 -0.3727 -0.3892  0.4479
64580SOL    HW1 5465   1.984  12.822   2.973 -0.6173 -0.8916 -0.7057
64580SOL    HW2 5466   2.127  12.824   2.923 -0.5739 -1.2539 -0.5985
64581SOL     OW 5467   0.826  13.403   5.228 -0.2555 -0.2390 -0.1864
64581SOL    HW1 5468   0.790  13.354   5.154  1.7433  0.4303 -1.6790
64581SOL    HW2 5469   0.919  13.380   5.229  0.0200  0.8123  1.2904
64582SOL     OW 5470   7.724   3.401   4.309  0.4902 -0.3418  0.1690
64582SOL    HW1 5471   7.723   3.462   4.383 -0.1746  1.2451 -1.0659
64582SOL    HW2 5472   7.816   3.380   4.296  0.4744 -2.2306  2.6243
64583SOL     OW 5473   0.256  12.538   3.586 -0.2885 -0.2627  0.2368
64583SOL    HW1 5474   0.168  12.499   3.582  0.1371 -1.2754  0.5676
64583SOL    HW2 5475   0.315  12.468   3.558  0.4325  0.3871  0.0894
64584SOL     OW 5476   2.856   4.751   4.138 -0.4222 -0.1062  0.2757
64584SOL    HW1 5477   2.908   4.799   4.073 -0.9177  1.6327  1.1031
64584SOL    HW2 5478   2.778   4.723   4.090  0.9901 -2.3953 -0.8728
64585SOL     OW 5479  10.651  11.228   3.702 -0.7363  0.6372  0.0985
64585SOL    HW1 5480  10.726  11.284   3.720 -0.8869  0.6028  0.8641
64585SOL    HW2 5481  10.668  11.192   3.615  0.1634  0.5652  0.2959
64586SOL     OW 5482  13.583   5.861   5.551  0.2397 -0.0697  0.4487
64586SOL    HW1 5483  13.610   5.953   5.550  1.0940 -0.3086  0.0882
64586SOL    HW2 5484  13.624   5.824   5.629  1.3798 -0.5414 -0.3418
64587SOL     OW 5485   6.274   7.855   6.201  0.1120 -0.3856  0.0823
64587SOL    HW1 5486   6.347   7.916   6.201  1.1927 -1.6213  0.6475
64587SOL    HW2 5487   6.310   7.774   6.164 -0.7025 -1.2986  1.1765
64588SOL     OW 5488   3.571  11.917  10.119 -0.6525  0.7228  0.0228
64588SOL    HW1 5489   3.653  11.868  10.109 -0.4864  1.0258 -0.1237
64588SOL    HW2 5490   3.546  11.942  10.030 -1.7501 -0.7041 -0.1065
64589SOL     OW 5491   8.857   6.510   3.271  0.3589  0.5383 -0.5079
64589SOL    HW1 5492   8.787   6.447   3.257 -0.3713  1.1274  0.3611
64589SOL    HW2 5493   8.813   6.595   3.277  0.9465  0.7627  1.5008
64590SOL     OW 5494   9.622   8.428  10.991  0.3148  0.4333 -0.5141
64590SOL    HW1 5495   9.651   8.400  10.904  2.5204 -0.3235  0.4151
64590SOL    HW2 5496   9.700   8.462  11.033  0.2075 -2.3993  2.4061
64591SOL     OW 5497   1.440   4.532   0.336 -0.8390 -0.3082 -0.1789
64591SOL    HW1 5498   1.490   4.482   0.401  0.3350  1.0908  0.0395
64591SOL    HW2 5499   1.444   4.479   0.257  2.9749  0.6792 -0.8682
64592SOL     OW 5500   6.327  10.941   8.552 -0.0714 -0.1910 -0.4394
64592SOL    HW1 5501   6.252  10.909   8.502 -0.7275  0.9059 -0.1953
64592SOL    HW2 5502   6.389  10.869   8.550 -0.5167 -0.5760 -1.9077
64593SOL     OW 5503   9.616   6.247   0.305  0.4415 -0.2618  0.0903
64593SOL    HW1 5504   9.632   6.326   0.253  0.2854  2.2676  3.4909
64593SOL    HW2 5505   9.530   6.217   0.278  0.6185  0.5366 -1.4999
64594SOL     OW 5506   3.529   3.816   8.127 -0.9379  0.2824 -0.0771
64594SOL    HW1 5507   3.468   3.805   8.054 -0.8861 -1.4399  0.0900
64594SOL    HW2 5508   3.494   3.759   8.196  1.1741 -1.3012 -0.2095
64595SOL     OW 5509  13.717   7.974   6.303  0.0352  0.8854  0.1150
64595SOL    HW1 5510  13.757   7.969   6.216 -1.5917 -0.4068 -0.6163
64595SOL    HW2 5511  13.636   8.023   6.289 -1.3865 -1.2306  0.3541
64596SOL     OW 5512   7.866   0.341  11.742  0.3266 -0.2832 -0.5086
64596SOL    HW1 5513   7.900   0.402  11.808  1.1926 -1.0057 -0.2725
64596SOL    HW2 5514   7.870   0.390  11.660 -0.9734  0.7033 -0.0100
64597SOL     OW 5515  11.234  10.795   0.953  0.0208 -0.0466 -0.1876
64597SOL    HW1 5516  11.291  10.719   0.967  1.1709  0.1264 -3.1401
64597SOL    HW2 5517  11.247  10.849   1.031  2.5656 -0.8593  0.0540
64598SOL     OW 5518   1.222  10.944   6.109  0.3451 -0.3487  0.6918
64598SOL    HW1 5519   1.207  10.992   6.191  1.1465  2.1626 -0.5475
64598SOL    HW2 5520   1.143  10.958   6.057  0.5789 -0.4105  0.3149
64599SOL     OW 5521   2.635   8.806   6.639  0.3167 -1.0700 -0.5987
64599SOL    HW1 5522   2.583   8.884   6.617  1.5150  0.4898  1.6925
64599SOL    HW2 5523   2.709   8.809   6.578  0.5640 -0.1572 -0.2668
64600SOL     OW 5524   0.450  10.082   0.226 -0.0916  0.1854  0.1382
64600SOL    HW1 5525   0.497  10.165   0.239 -2.9313  1.6824  1.7720
64600SOL    HW2 5526   0.504  10.034   0.164  1.9758  3.0138 -0.4631
64601SOL     OW 5527   0.558   7.141  12.006 -0.2331  0.0421  0.4281
64601SOL    HW1 5528   0.572   7.128  11.912  0.3867 -0.2853  0.5573
64601SOL    HW2 5529   0.638   7.183  12.036  0.4346 -1.6704  1.1643
64602SOL     OW 5530   9.938   1.163   4.243  0.2120 -0.2504 -0.2304
64602SOL    HW1 5531  10.029   1.170   4.215  1.1173  0.9300  2.6155
64602SOL    HW2 5532   9.939   1.100   4.315 -1.2692 -0.3004 -0.2045
64603SOL     OW 5533   3.380  11.493   4.898  0.4249  0.0971 -0.0362
64603SOL    HW1 5534   3.322  11.530   4.965  0.8115  0.9909 -0.1843
64603SOL    HW2 5535   3.448  11.447   4.948 -0.4987 -1.1476  0.1373
64604SOL     OW 5536   7.271  12.095   9.346 -0.0674  0.0369 -0.0975
64604SOL    HW1 5537   7.293  12.117   9.256  0.6127  0.9736  0.2825
64604SOL    HW2 5538   7.269  11.999   9.348  2.4360 -0.0959 -0.5517
64605SOL     OW 5539   8.334   6.550   2.481  0.2335 -0.0529  0.0399
64605SOL    HW1 5540   8.331   6.604   2.401  1.5614 -1.2330 -0.8515
64605SOL    HW2 5541   8.245   6.556   2.516 -0.3836  0.5536 -1.4961
64606SOL     OW 5542   5.015  12.435   7.597  0.1924  0.1724 -0.5214
64606SOL    HW1 5543   5.020  12.396   7.509  1.0236 -2.0381  0.4266
64606SOL    HW2 5544   5.077  12.508   7.595  1.3697 -0.8064 -1.3537
64607SOL     OW 5545   4.268   0.891   1.278 -0.5149  0.4700  0.3281
64607SOL    HW1 5546   4.196   0.953   1.263 -0.8233  0.0279 -0.0533
64607SOL    HW2 5547   4.298   0.868   1.190  1.3750  2.0913  0.4623
64608SOL     OW 5548   1.208   6.521   3.258 -0.5275  0.2053 -0.0069
64608SOL    HW1 5549   1.248   6.443   3.218 -0.6793  1.2450 -2.3899
64608SOL    HW2 5550   1.281   6.566   3.301  0.2174  0.2827 -1.2870
64609SOL     OW 5551   3.373  10.140   5.589 -0.0918  0.3542 -0.4547
64609SOL    HW1 5552   3.389  10.047   5.573 -1.2420 -0.0680  0.6598
64609SOL    HW2 5553   3.412  10.157   5.675  3.9524  2.0198 -2.3577
64610SOL     OW 5554   4.836   3.882   0.697 -0.0312  0.0744  0.1650
64610SOL    HW1 5555   4.802   3.964   0.663  1.2916 -0.1904 -2.0031
64610SOL    HW2 5556   4.910   3.861   0.639 -0.7550 -2.9791  0.1901
64611SOL     OW 5557   1.561   0.991   0.528 -0.1637 -0.3232 -0.3104
64611SOL    HW1 5558   1.585   0.899   0.517 -1.4873 -0.5164 -2.2201
64611SOL    HW2 5559   1.472   0.988   0.563 -0.4993  0.2030 -1.0975
64612SOL     OW 5560  10.824  13.370   4.649  0.5647  0.1736  0.3592
64612SOL    HW1 5561  10.795  13.438   4.587  1.0398  0.6367  0.6383
64612SOL    HW2 5562  10.819  13.289   4.598  0.4685  0.4791 -0.1338
64613SOL     OW 5563  12.336   8.230   0.420 -0.2846 -0.7136  0.1306
64613SOL    HW1 5564  12.381   8.307   0.384 -1.1824 -0.4805 -0.5441
64613SOL    HW2 5565  12.246   8.259   0.434 -0.4470 -1.4202  0.6056
64614SOL     OW 5566  13.440   4.835  13.495  0.4417 -0.3563  0.0762
64614SOL    HW1 5567  13.500   4.899  13.457 -0.0415 -0.6173 -1.1992
64614SOL    HW2 5568  13.469   4.751  13.457  0.5021 -0.7722  1.0152
64615SOL     OW 5569   8.892   9.137   8.970  0.0875  0.6271 -0.0498
64615SOL    HW1 5570   8.797   9.128   8.968  0.1247 -0.4367  1.3259
64615SOL    HW2 5571   8.925   9.047   8.975  1.1103  1.0103  0.6045
64616SOL     OW 5572   7.724   6.498   7.485 -0.0913 -0.1696 -0.2165
64616SOL    HW1 5573   7.690   6.488   7.574 -0.6289  2.0264 -0.1152
64616SOL    HW2 5574   7.713   6.591   7.466 -0.5408 -0.6851 -2.8182
64617SOL     OW 5575   1.068  12.085   7.475 -0.3080  0.6830  0.0540
64617SOL    HW1 5576   1.036  12.151   7.537 -1.9811 -0.2746  0.2655
64617SOL    HW2 5577   0.989  12.041   7.443  0.6802 -0.4066 -1.0130
64618SOL     OW 5578   8.361   6.588  11.061 -0.2583 -0.3563  0.0962
64618SOL    HW1 5579   8.420   6.663  11.071 -1.3154  0.5915 -0.5172
64618SOL    HW2 5580   8.319   6.601  10.976 -0.8700 -1.3474  0.2305
64619SOL     OW 5581  10.743   3.174  10.183 -0.3385 -0.3166  0.4376
64619SOL    HW1 5582  10.756   3.239  10.252 -2.1899  0.3674  0.2097
64619SOL    HW2 5583  10.810   3.194  10.118 -0.0785  0.5491  0.9565
64620SOL     OW 5584   0.722   6.498   3.185  0.1626  0.3503 -0.0088
64620SOL    HW1 5585   0.796   6.438   3.195 -0.8680 -1.0274 -0.3453
64620SOL    HW2 5586   0.683   6.476   3.101  0.4662  2.3724 -0.7428
64621SOL     OW 5587   1.683   9.210  12.060 -0.1448 -0.5665  0.5247
64621SOL    HW1 5588   1.696   9.209  12.155 -0.8043 -0.1762  0.6238
64621SOL    HW2 5589   1.602   9.259  12.047 -0.1455 -0.7555 -0.2344
64622SOL     OW 5590   7.980   9.915  10.217  0.2100 -0.3706  0.4312
64622SOL    HW1 5591   7.985   9.997  10.167 -1.1474 -0.0476  0.7629
64622SOL    HW2 5592   8.051   9.921  10.281  0.3917  0.3557  0.1693
64623SOL     OW 5593  11.537  10.792   7.548 -0.0832 -0.2951  0.3037
64623SOL    HW1 5594  11.615  10.790   7.492  0.4868 -0.6018  1.0870
64623SOL    HW2 5595  11.468  10.753   7.495  0.0614  0.7975 -0.7299
64624SOL     OW 5596   9.646  10.448   3.044  0.0071 -0.1005 -0.1343
64624SOL    HW1 5597   9.686  10.417   2.963  0.6721 -1.3685  0.6456
64624SOL    HW2 5598   9.609  10.369   3.085 -1.3717  0.6970  0.2408
64625SOL     OW 5599   5.242  10.113  12.855 -0.5939  0.2307  0.0200
64625SOL    HW1 5600   5.251  10.191  12.800 -0.8329 -0.6390 -1.3095
64625SOL    HW2 5601   5.316  10.057  12.830 -0.9365 -0.3543  0.2898
64626SOL     OW 5602   9.316   6.510  10.117  0.3998  0.6849  0.2140
64626SOL    HW1 5603   9.397   6.472  10.152  0.2615 -0.6158 -0.8026
64626SOL    HW2 5604   9.315   6.483  10.025 -1.4696  0.1586  0.3569
64627SOL     OW 5605   7.407   1.940   6.074 -0.2453  0.4173  0.4990
64627SOL    HW1 5606   7.396   2.034   6.082  0.5550  0.5153  0.5030
64627SOL    HW2 5607   7.490   1.929   6.027 -0.6145 -0.2713 -0.0218
64628SOL     OW 5608   0.761   7.087  10.640 -0.3199 -0.2913  0.1458
64628SOL    HW1 5609   0.765   7.047  10.727 -0.7120  0.6261  0.6074
64628SOL    HW2 5610   0.698   7.034  10.591  0.9753 -1.6789 -0.0619
64629SOL     OW 5611   6.427   1.016   1.628 -0.1214 -0.2752 -0.5212
64629SOL    HW1 5612   6.427   0.983   1.718 -2.0358  1.5253  0.2331
64629SOL    HW2 5613   6.519   1.024   1.605  0.4801  0.9252  1.9828
64630SOL     OW 5614   0.473   6.598   2.190  0.2360  0.1993  0.2514
64630SOL    HW1 5615   0.419   6.609   2.268  0.5733 -0.0475  0.5229
64630SOL    HW2 5616   0.468   6.504   2.171 -2.0417  0.5898 -1.6149
64631SOL     OW 5617   5.592  10.025  12.403  0.1926 -0.2028 -0.8884
64631SOL    HW1 5618   5.510  10.032  12.453  1.0437  0.6611  0.4341
64631SOL    HW2 5619   5.651  10.088  12.444  1.4119 -0.5217 -2.0768
64632SOL     OW 5620  13.211   2.789   6.720  0.4391 -0.0660 -0.5578
64632SOL    HW1 5621  13.265   2.861   6.687 -0.3294 -0.4907 -2.9202
64632SOL    HW2 5622  13.256   2.710   6.691 -0.4169 -0.4589 -0.8429
64633SOL     OW 5623   6.015   4.243  12.530  0.0460  0.4637 -0.5280
64633SOL    HW1 5624   5.964   4.162  12.539  2.8619 -1.4211 -0.4038
64633SOL    HW2 5625   6.035   4.269  12.620  1.1449 -0.0832 -0.6034
64634SOL     OW 5626   6.813   1.610   4.299 -0.2031  0.8005  1.1797
64634SOL    HW1 5627   6.801   1.571   4.213  2.3822 -0.9119  1.4836
64634SOL    HW2 5628   6.751   1.564   4.356  0.9316 -1.0487  0.9922
64635SOL     OW 5629   8.979  11.133   3.978 -0.2202 -0.0247 -0.5203
64635SOL    HW1 5630   8.894  11.096   3.952  1.0874 -1.9950 -2.3005
64635SOL    HW2 5631   9.033  11.127   3.899  1.7372  0.7278  0.6906
64636SOL     OW 5632  10.648   9.143   6.707 -0.1408 -0.0049 -0.2689
64636SOL    HW1 5633  10.724   9.163   6.652  1.0523 -0.9806  0.9395
64636SOL    HW2 5634  10.668   9.184   6.791 -0.2981 -1.3723  0.4746
64637SOL     OW 5635   2.089  13.296   3.002  0.0758  0.4158  0.3018
64637SOL    HW1 5636   2.089  13.368   2.940 -0.6450  0.5350  0.4361
64637SOL    HW2 5637   2.182  13.277   3.017  0.2866 -0.4402 -1.7504
64638SOL     OW 5638  10.367   7.293   4.726  0.4166  0.1643  0.6487
64638SOL    HW1 5639  10.362   7.368   4.667 -3.3071  1.0086  1.7622
64638SOL    HW2 5640  10.305   7.230   4.690  0.5471 -0.6815  1.8397
64639SOL     OW 5641   6.147   7.574   9.716  0.0674  0.1393  0.0360
64639SOL    HW1 5642   6.176   7.514   9.647 -0.4589 -0.1103  0.0257
64639SOL    HW2 5643   6.146   7.660   9.674 -2.3195 -0.2852 -0.9503
64640SOL     OW 5644  10.022   4.626  11.555 -0.7578  0.3916  0.8695
64640SOL    HW1 5645  10.046   4.713  11.587  1.1935 -0.1912  1.1572
64640SOL    HW2 5646  10.020   4.635  11.460  1.4056  0.3800  0.7590
64641SOL     OW 5647   9.958  13.604   2.337 -0.0491 -0.1997 -0.0935
64641SOL    HW1 5648   9.892  13.646   2.282 -0.1900 -1.2972 -0.8085
64641SOL    HW2 5649  10.037  13.603   2.283  0.9940  2.2552  1.2202
64642SOL     OW 5650   4.475  13.029  13.124 -0.3256  0.1580  0.6076
64642SOL    HW1 5651   4.447  13.025  13.033 -0.3719  1.1650  0.5740
64642SOL    HW2 5652   4.419  12.966  13.169  0.6865 -1.4630 -0.2934
64643SOL     OW 5653  10.193   2.761   5.595  0.3054  0.4684 -0.0933
64643SOL    HW1 5654  10.145   2.683   5.569 -0.0763  0.2216  1.2828
64643SOL    HW2 5655  10.255   2.730   5.662 -0.1726  1.4042  0.8049
64644SOL     OW 5656   6.596  11.049   1.735  0.0137  0.0597 -0.0891
64644SOL    HW1 5657   6.627  11.118   1.676  2.7474  0.3899  1.5226
64644SOL    HW2 5658   6.561  11.097   1.810  1.7897 -0.2281  0.9702
64645SOL     OW 5659   5.305   5.061   7.160 -0.2404  0.1292  0.0779
64645SOL    HW1 5660   5.240   5.107   7.213 -1.6109 -1.2652 -0.3118
64645SOL    HW2 5661   5.275   5.073   7.070 -0.9876 -1.9952  0.0036
64646SOL     OW 5662   9.453  12.721  13.577 -0.0652 -0.1293 -0.0140
64646SOL    HW1 5663   9.497  12.781  13.517 -0.9941  0.7917  0.1765
64646SOL    HW2 5664   9.523  12.675  13.622  0.6662  0.4382 -0.5573
64647SOL     OW 5665   6.139   2.800   5.465 -0.4324 -0.2549 -0.3155
64647SOL    HW1 5666   6.085   2.840   5.533 -0.0191 -1.1269  0.5538
64647SOL    HW2 5667   6.078   2.783   5.393 -0.7997  1.0341 -0.3452
64648SOL     OW 5668   3.169   8.766   2.184  0.3899  0.0457  0.5417
64648SOL    HW1 5669   3.109   8.724   2.123 -1.1302  0.7343  1.5180
64648SOL    HW2 5670   3.120   8.771   2.266  1.0801  2.3359  0.8720
64649SOL     OW 5671   0.542  10.500   5.842 -0.6753  0.1460 -0.2354
64649SOL    HW1 5672   0.543  10.462   5.755  0.7091 -1.1563  0.3028
64649SOL    HW2 5673   0.621  10.554   5.846  0.3336 -1.3285  0.8055
64650SOL     OW 5674   8.495   0.347   6.029 -0.4063  0.4477  0.3016
64650SOL    HW1 5675   8.590   0.346   6.015 -0.5705 -0.0564 -0.8941
64650SOL    HW2 5676   8.480   0.278   6.093 -0.0157  0.1471  0.0743
64651SOL     OW 5677  11.348  11.985  10.188 -0.2397  0.8231 -0.5540
64651SOL    HW1 5678  11.288  11.942  10.249  0.9952  0.5363  0.5103
64651SOL    HW2 5679  11.404  11.914  10.157 -1.5303  0.7426 -2.9416
64652SOL     OW 5680   5.453   7.023   8.885  0.3090 -0.0449 -0.4324
64652SOL    HW1 5681   5.375   7.078   8.896  1.2057  1.1179  0.2588
64652SOL    HW2 5682   5.450   6.962   8.959 -1.0519 -1.4411 -1.5740
64653SOL     OW 5683   6.235  10.249   9.391 -0.0477  0.0461 -0.8092
64653SOL    HW1 5684   6.317  10.296   9.401 -0.4476  0.7188 -0.6672
64653SOL    HW2 5685   6.219  10.247   9.297 -1.1312  2.1493 -0.7285
64654SOL     OW 5686   3.541   2.879   4.183 -0.7687  0.6228  0.3524
64654SOL    HW1 5687   3.626   2.920   4.197 -0.0978 -0.4215 -0.5500
64654SOL    HW2 5688   3.519   2.840   4.268  0.7417 -1.0516  0.0402
64655SOL     OW 5689  13.286   8.335   0.528 -0.2551  0.1239  0.2837
64655SOL    HW1 5690  13.337   8.414   0.512  0.0317 -0.3911 -1.5213
64655SOL    HW2 5691  13.349   8.264   0.520 -0.9649 -0.4294 -0.5152
64656SOL     OW 5692  13.261  12.414  11.410  0.2772  0.3063 -0.5252
64656SOL    HW1 5693  13.233  12.497  11.446  0.4565  0.3002 -0.3693
64656SOL    HW2 5694  13.208  12.402  11.331  0.8253  0.9628 -1.0084
64657SOL     OW 5695  11.416   6.609   5.144 -0.0549  0.3391  0.3389
64657SOL    HW1 5696  11.436   6.684   5.200  0.2066  3.8888 -3.9704
64657SOL    HW2 5697  11.322   6.616   5.126 -0.1381 -0.7117  0.2601
64658SOL     OW 5698  10.032   5.758  11.715 -0.6378 -0.9049 -0.5123
64658SOL    HW1 5699  10.118   5.745  11.674  0.5085 -1.3260  1.8469
64658SOL    HW2 5700  10.040   5.842  11.760 -0.9559 -1.5623  0.8185
64659SOL     OW 5701   4.450   3.616   1.533  0.9308  0.5961  0.2138
64659SOL    HW1 5702   4.452   3.523   1.512  2.1602  0.2991  1.4789
64659SOL    HW2 5703   4.451   3.661   1.449  1.5331 -0.5342 -0.3873
64660SOL     OW 5704   8.383   3.026   2.336 -1.1820  0.2976 -0.0035
64660SOL    HW1 5705   8.380   3.106   2.388 -1.2828  1.9846 -2.4460
64660SOL    HW2 5706   8.339   3.049   2.254 -0.5714 -2.0510 -1.0730
64661SOL     OW 5707   1.143   4.392   1.992  0.2106  0.1865 -0.1385
64661SOL    HW1 5708   1.195   4.471   2.006 -1.5838  1.4343 -0.0681
64661SOL    HW2 5709   1.067   4.403   2.050 -1.5472 -0.1413 -2.2325
64662SOL     OW 5710   2.223   3.266   1.723 -0.0438 -0.0482 -0.3774
64662SOL    HW1 5711   2.174   3.343   1.751  1.8276  1.0205  0.1906
64662SOL    HW2 5712   2.157   3.206   1.689 -1.6609  1.4492 -0.0355
64663SOL     OW 5713  12.813   7.947   9.982  0.9207  0.3076 -0.3159
64663SOL    HW1 5714  12.720   7.942   9.960 -0.0110  1.5179  2.8222
64663SOL    HW2 5715  12.823   8.031  10.027  3.2538 -0.3512  0.5298
64664SOL     OW 5716   4.048   9.098   1.063 -0.1991 -0.4338  0.7997
64664SOL    HW1 5717   3.965   9.123   1.106 -0.3990 -0.2056  0.2861
64664SOL    HW2 5718   4.037   9.005   1.044 -1.3813  0.1158 -1.5317
64665SOL     OW 5719   4.941   5.187   8.504 -0.6239 -0.5036 -0.3563
64665SOL    HW1 5720   4.863   5.183   8.449 -0.6372 -0.4371 -0.3431
64665SOL    HW2 5721   4.989   5.264   8.472  0.6627 -1.8774 -1.9855
64666SOL     OW 5722   1.780   6.069   9.275 -0.3317 -0.0196  0.2471
64666SOL    HW1 5723   1.814   6.025   9.352 -1.9516 -0.8978  0.5109
64666SOL    HW2 5724   1.843   6.140   9.258  1.1911 -1.1228  1.0637
64667SOL     OW 5725  10.902   0.373   1.553  0.6043  0.0855  0.3799
64667SOL    HW1 5726  10.915   0.449   1.497  0.2386 -0.4087 -0.3949
64667SOL    HW2 5727  10.965   0.308   1.521  0.2847 -0.2551  0.4234
64668SOL     OW 5728   1.153   8.659   1.397 -0.1928  0.0651  0.2028
64668SOL    HW1 5729   1.089   8.600   1.357  1.8973 -0.9498 -1.8177
64668SOL    HW2 5730   1.114   8.682   1.481 -3.4103 -0.1428 -1.0797
64669SOL     OW 5731   2.803   5.028   5.118 -0.1803 -0.1318  0.3448
64669SOL    HW1 5732   2.770   5.107   5.162  1.4141  0.8028 -0.0506
64669SOL    HW2 5733   2.896   5.024   5.142 -0.4487 -2.5617  1.2764
64670SOL     OW 5734   1.314   2.635   2.272 -0.3375 -0.2171  0.0294
64670SOL    HW1 5735   1.359   2.640   2.357  0.2208 -1.4172 -0.1810
64670SOL    HW2 5736   1.222   2.617   2.295 -0.4827  0.8815  0.4077
64671SOL     OW 5737   8.089   3.000  10.690 -0.0314  0.5512  0.2746
64671SOL    HW1 5738   8.048   3.073  10.643  0.5900  1.4445  1.0963
64671SOL    HW2 5739   8.157   3.041  10.744  0.9993 -0.7475  0.0054
64672SOL     OW 5740   3.450   8.040   3.438  0.0376  0.4780  0.0110
64672SOL    HW1 5741   3.368   8.011   3.398 -0.5662 -0.3951  1.7574
64672SOL    HW2 5742   3.424   8.076   3.523  1.2493  2.3145 -0.3443
64673SOL     OW 5743   5.968  11.600   9.204 -0.6118  0.1171  0.2131
64673SOL    HW1 5744   5.950  11.662   9.133 -1.8319  2.3911  2.3443
64673SOL    HW2 5745   5.938  11.645   9.283  0.1000 -2.5362  2.1308
64674SOL     OW 5746   8.954  11.460  13.056 -0.1281  0.5172 -0.4735
64674SOL    HW1 5747   8.935  11.487  13.145  1.1161 -0.9939  0.2987
64674SOL    HW2 5748   8.915  11.373  13.048 -0.2589  0.6512 -1.4150
64675SOL     OW 5749   3.130   5.338   4.594 -0.4139 -0.0432  0.2674
64675SOL    HW1 5750   3.115   5.303   4.682 -1.4784 -0.7575 -0.1705
64675SOL    HW2 5751   3.073   5.415   4.589 -0.0929  0.1971  0.3208
64676SOL     OW 5752   4.275   8.035  10.076 -0.0306 -0.0711 -0.2529
64676SOL    HW1 5753   4.217   8.106  10.050 -0.1307  0.2068  0.6988
64676SOL    HW2 5754   4.359   8.057  10.035 -0.4047 -0.1249 -1.0773
64677SOL     OW 5755  12.714   2.965   1.393 -0.3317  0.0075 -0.2704
64677SOL    HW1 5756  12.654   2.980   1.320 -1.3754 -1.0258  0.3577
64677SOL    HW2 5757  12.681   2.887   1.436 -0.9162  1.6497  2.5026
64678SOL     OW 5758  11.271  10.405  11.082 -0.1056  0.7496 -0.4762
64678SOL    HW1 5759  11.237  10.316  11.075  0.1155  0.5382  0.7679
64678SOL    HW2 5760  11.198  10.461  11.057 -0.9643  0.2603  0.8327
64679SOL     OW 5761   0.481   2.152  10.142  0.4409  0.0477 -0.0149
64679SOL    HW1 5762   0.406   2.201  10.108  1.4931  1.6916 -0.1251
64679SOL    HW2 5763   0.455   2.125  10.230 -0.4958  0.0794 -0.2808
64680SOL     OW 5764   1.277   4.897  10.879  0.0714 -0.1250 -0.1094
64680SOL    HW1 5765   1.325   4.979  10.894  0.7722 -0.2299 -1.6428
64680SOL    HW2 5766   1.335   4.829  10.914  0.7954 -0.1972 -1.4119
64681SOL     OW 5767   6.643   3.852   9.429  0.0571 -0.1819  0.4589
64681SOL    HW1 5768   6.560   3.893   9.406  1.0787  0.7441 -1.7765
64681SOL    HW2 5769   6.702   3.924   9.449  0.7496 -0.7499  0.5315
64682SOL     OW 5770   2.396   3.734   6.186  0.0193  0.1420  0.0923
64682SOL    HW1 5771   2.381   3.828   6.177  0.3958  0.2856  0.8839
64682SOL    HW2 5772   2.319   3.703   6.234 -0.9176 -0.2502 -1.5894
64683SOL     OW 5773  11.985  12.638  11.327  0.3859 -0.4891 -0.3288
64683SOL    HW1 5774  11.941  12.721  11.308  1.0841  0.1369  0.7048
64683SOL    HW2 5775  11.917  12.583  11.366  0.2641  0.1114  0.3135
64684SOL     OW 5776  12.231   4.160  11.713  0.3353 -0.3407  0.4212
64684SOL    HW1 5777  12.283   4.113  11.779  2.6987  1.3386 -0.0997
64684SOL    HW2 5778  12.287   4.233  11.687 -1.0266 -0.2475 -2.5873
64685SOL     OW 5779   0.091   9.998  12.668  0.1769  0.1016  0.7306
64685SOL    HW1 5780   0.065   9.936  12.736 -0.6113 -0.3835  0.0077
64685SOL    HW2 5781   0.009  10.023  12.625  0.7196 -0.1812 -0.5201
64686SOL     OW 5782  11.541   3.910   4.863 -0.3422  0.5546  0.2103
64686SOL    HW1 5783  11.526   3.884   4.772  0.4673  0.9577 -0.0471
64686SOL    HW2 5784  11.552   4.005   4.860  0.6920  0.4618  0.5743
64687SOL     OW 5785   6.358  13.123   5.416  0.3349 -0.1007  0.0931
64687SOL    HW1 5786   6.382  13.086   5.331 -1.7910  0.9566 -1.0346
64687SOL    HW2 5787   6.331  13.047   5.468 -2.8747 -0.4563 -1.8033
64688SOL     OW 5788   3.042   6.290  11.757  0.3585 -0.1158  0.0807
64688SOL    HW1 5789   3.013   6.221  11.697 -0.7964 -0.6773  1.2446
64688SOL    HW2 5790   2.971   6.354  11.755  1.0723  0.6925 -0.3890
64689SOL     OW 5791   4.259   5.906   9.521 -0.7410  0.0833  0.6025
64689SOL    HW1 5792   4.347   5.907   9.484  0.4073  1.2256  3.1152
64689SOL    HW2 5793   4.229   5.816   9.509  0.7886 -0.3532 -0.2353
64690SOL     OW 5794   5.415   9.019   5.890 -0.3650 -0.1095 -0.0262
64690SOL    HW1 5795   5.366   9.019   5.808 -0.6426  0.5947  0.1322
64690SOL    HW2 5796   5.415   9.111   5.918  1.5853  0.0478 -0.3551
64691SOL     OW 5797   7.657   6.492   8.443  0.4443 -0.4664  0.1968
64691SOL    HW1 5798   7.690   6.522   8.359  1.6538  2.1041  1.4851
64691SOL    HW2 5799   7.715   6.421   8.468  1.4995  0.2446 -0.1580
64692SOL     OW 5800   9.966  11.651   4.776  0.1661 -0.5992  0.2146
64692SOL    HW1 5801   9.885  11.637   4.825  0.4637 -1.9232  0.3615
64692SOL    HW2 5802   9.981  11.745   4.781 -0.8256 -0.4690  1.0444
64693SOL     OW 5803   6.115   8.549  10.961 -0.2464 -0.2722 -0.2994
64693SOL    HW1 5804   6.186   8.608  10.936 -0.1308  0.5339  1.7114
64693SOL    HW2 5805   6.036   8.602  10.955 -0.2250 -0.0729  0.8156
64694SOL     OW 5806   5.106   1.947   2.908 -0.1744  0.0921  0.2910
64694SOL    HW1 5807   5.106   2.028   2.960 -0.0718  1.9810 -2.4308
64694SOL    HW2 5808   5.199   1.932   2.888 -0.1796 -0.8105  0.8971
64695SOL     OW 5809  12.085   0.033   4.702 -0.4497  0.1974 -0.3934
64695SOL    HW1 5810  12.160  -0.027   4.702  0.5346  1.3291  1.2343
64695SOL    HW2 5811  12.031   0.004   4.629  1.0245 -1.3476 -0.9461
64696SOL     OW 5812   9.453   9.878   5.002 -0.0625 -0.0162  0.8720
64696SOL    HW1 5813   9.459   9.958   4.949 -1.0755  0.3371  1.2585
64696SOL    HW2 5814   9.405   9.816   4.946  1.9527 -0.8795  0.0069
64697SOL     OW 5815  12.756   1.862   3.495  0.2825  0.4152  0.3578
64697SOL    HW1 5816  12.816   1.898   3.560 -0.0934  2.5858 -0.4339
64697SOL    HW2 5817  12.713   1.938   3.456 -1.0813 -0.9359 -0.9354
64698SOL     OW 5818   0.922   9.200   1.634  0.0024 -0.0571 -0.7538
64698SOL    HW1 5819   1.002   9.232   1.676  0.8074 -0.2136 -2.1190
64698SOL    HW2 5820   0.873   9.159   1.705  0.6778  0.8826  0.2968
64699SOL     OW 5821   1.433  10.427   4.632 -0.0514  0.0675 -0.4445
64699SOL    HW1 5822   1.500  10.467   4.576  1.6114  0.1379  1.4770
64699SOL    HW2 5823   1.435  10.480   4.712 -1.7330 -0.5511  0.0397
64700SOL     OW 5824   2.742   1.676  10.801  0.4088  0.3413  0.4140
64700SOL    HW1 5825   2.656   1.668  10.841  0.4938  0.7482  0.6861
64700SOL    HW2 5826   2.803   1.653  10.872  0.5311  0.3036  0.2973
64701SOL     OW 5827   0.849  12.147   3.208 -0.1155  0.1260 -0.0011
64701SOL    HW1 5828   0.930  12.191   3.233 -0.3906 -0.3244  1.8022
64701SOL    HW2 5829   0.818  12.107   3.288  0.1680 -3.5074 -1.5061
64702SOL     OW 5830  13.285   2.959   0.513 -0.2276 -0.3755 -0.6275
64702SOL    HW1 5831  13.362   2.946   0.458  1.6466 -1.3844  1.9844
64702SOL    HW2 5832  13.281   3.053   0.528  2.6882 -0.4999  1.8565
64703SOL     OW 5833   3.519  11.028  11.199  0.3620  0.2025  0.4395
64703SOL    HW1 5834   3.602  10.999  11.238  0.9331  2.2008  0.8073
64703SOL    HW2 5835   3.470  11.064  11.272 -0.3660  0.0701  0.0201
64704SOL     OW 5836  10.499  10.768   5.582 -0.2362  0.3925 -0.3062
64704SOL    HW1 5837  10.415  10.796   5.546 -0.1196 -0.2897 -1.1740
64704SOL    HW2 5838  10.531  10.843   5.632 -0.7448  1.1532 -1.0849
64705SOL     OW 5839   7.388   5.136  12.358 -0.0119 -0.5793 -0.1602
64705SOL    HW1 5840   7.309   5.107  12.313  0.1229 -2.2126  0.5944
64705SOL    HW2 5841   7.361   5.149  12.449  0.3016  0.1611 -0.1631
64706SOL     OW 5842  12.240   7.004   1.817  0.4345 -0.1281 -0.1064
64706SOL    HW1 5843  12.225   6.910   1.808  0.2357 -0.0858 -0.2501
64706SOL    HW2 5844  12.152   7.041   1.825  0.5710 -0.0879  1.4092
64707SOL     OW 5845   2.113   8.058   8.598 -0.0849  0.7067 -0.3946
64707SOL    HW1 5846   2.065   7.981   8.568 -1.7103  1.1689  0.8721
64707SOL    HW2 5847   2.198   8.025   8.624 -0.7961 -0.6949  0.2506
64708SOL     OW 5848  12.452   0.503   8.609  0.3990  0.2164  0.3474
64708SOL    HW1 5849  12.397   0.542   8.541 -0.4392  0.0167  0.8925
64708SOL    HW2 5850  12.541   0.522   8.581  0.1066 -0.4056 -1.1463
64709SOL     OW 5851   0.734   6.830  12.198  0.5140  0.5155 -0.9580
64709SOL    HW1 5852   0.644   6.858  12.215  0.5785  0.0748  0.1799
64709SOL    HW2 5853   0.762   6.884  12.124  0.1404  2.4093  0.2064
64710SOL     OW 5854   5.244   5.574  13.360 -0.1019 -0.5313  0.2068
64710SOL    HW1 5855   5.279   5.639  13.420  0.5334 -0.3410 -0.3566
64710SOL    HW2 5856   5.234   5.495  13.412  0.5640 -0.4049  0.5261
64711SOL     OW 5857  13.407  10.611   8.819 -0.2376 -0.1181  0.2242
64711SOL    HW1 5858  13.461  10.689   8.807  0.7035 -0.6258  1.0425
64711SOL    HW2 5859  13.387  10.582   8.730  1.3436 -0.2570 -0.1104
64712SOL     OW 5860  12.231   1.231   6.415  0.2573  0.0327  0.3296
64712SOL    HW1 5861  12.261   1.149   6.453 -0.6096 -0.3156  0.2891
64712SOL    HW2 5862  12.234   1.217   6.321 -0.0666 -0.0224  0.3262
64713SOL     OW 5863  13.194   4.575   8.663  0.2571  0.0909 -0.2442
64713SOL    HW1 5864  13.277   4.527   8.658  0.5357  0.6597 -1.4465
64713SOL    HW2 5865  13.195   4.616   8.750  0.4260 -1.2952  0.4364
64714SOL     OW 5866   4.766  12.117   0.879  0.3188  0.0459  0.2203
64714SOL    HW1 5867   4.821  12.089   0.952  0.7302 -0.7473 -0.3750
64714SOL    HW2 5868   4.820  12.179   0.831  2.1195 -3.1020 -2.2248
64715SOL     OW 5869   8.883   2.787   8.520  0.0563  0.4898  0.1034
64715SOL    HW1 5870   8.931   2.759   8.442  1.8638 -0.6819  1.5496
64715SOL    HW2 5871   8.913   2.876   8.536  0.6146  0.2996  0.1320
64716SOL     OW 5872   7.334   2.645   3.783 -0.4340  0.1730  0.1326
64716SOL    HW1 5873   7.268   2.708   3.810 -0.3988 -0.0202  0.6839
64716SOL    HW2 5874   7.289   2.588   3.720 -0.6549  0.3252  0.1526
64717SOL     OW 5875   0.161   0.777   9.795 -0.3481 -0.2543  0.4623
64717SOL    HW1 5876   0.093   0.775   9.862  0.4872 -2.2044  1.3342
64717SOL    HW2 5877   0.239   0.811   9.840 -0.6041  1.7660 -0.4729
64718SOL     OW 5878   8.448   5.461  10.528 -0.0799  0.5078 -0.1941
64718SOL    HW1 5879   8.371   5.505  10.492 -0.4678  0.4145  0.5148
64718SOL    HW2 5880   8.474   5.515  10.602 -0.1612 -0.0932  0.2789
64719SOL     OW 5881   1.944   1.970   9.396  0.1337 -0.0705  0.2499
64719SOL    HW1 5882   1.955   2.041   9.459  0.2184  1.4388 -1.3980
64719SOL    HW2 5883   2.029   1.925   9.396  0.7026  0.9774 -0.0099
64720SOL     OW 5884   5.939   7.045   6.379 -0.3534 -0.2641  0.3320
64720SOL    HW1 5885   6.034   7.058   6.367 -0.4968  0.0625 -0.5810
64720SOL    HW2 5886   5.932   6.959   6.419  0.3143 -0.5531 -0.1402
64721SOL     OW 5887  12.282   3.896   4.748  0.3835 -0.3313 -0.3300
64721SOL    HW1 5888  12.241   3.917   4.832 -0.5264 -0.8266 -0.6319
64721SOL    HW2 5889  12.353   3.959   4.739  0.4220 -0.2053  0.7613
64722SOL     OW 5890   2.859   3.629   6.215 -0.4905  0.7160 -0.1921
64722SOL    HW1 5891   2.922   3.691   6.252  1.1110 -1.1717  0.4256
64722SOL    HW2 5892   2.774   3.672   6.225  0.6394  3.2719 -0.8821
64723SOL     OW 5893   4.119   9.897   3.179 -0.0458  0.3621  0.0644
64723SOL    HW1 5894   4.074   9.828   3.227  0.2504  0.1513  0.0401
64723SOL    HW2 5895   4.092   9.886   3.088  2.2765 -1.5896 -0.4718
64724SOL     OW 5896   0.840  13.130  12.114 -0.0326 -0.3835 -0.3608
64724SOL    HW1 5897   0.889  13.080  12.179  2.4938  0.4872 -1.4731
64724SOL    HW2 5898   0.778  13.067  12.076  0.6452 -1.7200  0.6909
64725SOL     OW 5899   7.171   8.914  10.465 -0.0999 -0.2725 -0.5666
64725SOL    HW1 5900   7.183   8.979  10.535 -0.1379 -1.7972  0.9215
64725SOL    HW2 5901   7.213   8.953  10.388 -0.2690  1.5667  0.2251
64726SOL     OW 5902  13.010   6.875  11.043  0.3508  0.6326  0.2480
64726SOL    HW1 5903  13.027   6.968  11.025  0.0408  0.6014 -0.1991
64726SOL    HW2 5904  13.068   6.855  11.117  0.1746  1.2716  0.5679
64727SOL     OW 5905   8.664  10.419  11.337  0.4666 -0.2967 -0.5074
64727SOL    HW1 5906   8.673  10.356  11.409  2.7454  0.2202 -0.2649
64727SOL    HW2 5907   8.573  10.450  11.343 -0.0777 -1.9700  0.6799
64728SOL     OW 5908   5.784   3.500   8.872  0.0374 -0.0126 -0.2187
64728SOL    HW1 5909   5.793   3.535   8.783  0.0198  0.7921  0.0827
64728SOL    HW2 5910   5.721   3.429   8.864 -0.6782  0.6551 -0.7049
64729SOL     OW 5911   9.481   7.790   4.160  0.2788 -0.1336 -0.5420
64729SOL    HW1 5912   9.414   7.767   4.225  0.1089 -0.4380 -0.8198
64729SOL    HW2 5913   9.496   7.709   4.112  1.0807 -0.1416 -0.2798
64730SOL     OW 5914   4.033   1.207   8.207  0.0421  0.0240 -0.1855
64730SOL    HW1 5915   3.996   1.221   8.120  0.5480 -0.2088 -0.4407
64730SOL    HW2 5916   4.020   1.114   8.224  0.7548 -0.1162 -0.3923
64731SOL     OW 5917   9.123   4.853   1.486  0.5630 -0.2334 -0.0274
64731SOL    HW1 5918   9.148   4.763   1.506  0.7197 -0.7180 -2.1702
64731SOL    HW2 5919   9.206   4.896   1.463  0.1668 -0.3631 -1.8305
64732SOL     OW 5920   4.703  11.135   7.635 -0.0017  0.1913 -0.1835
64732SOL    HW1 5921   4.701  11.057   7.580  2.6094  0.2422 -0.4723
64732SOL    HW2 5922   4.740  11.105   7.718 -4.2871  0.0093  1.9411
64733SOL     OW 5923   9.071   8.029  12.729 -1.2822 -0.0063 -0.4986
64733SOL    HW1 5924   9.099   7.984  12.809  0.1509 -0.5346 -1.2596
64733SOL    HW2 5925   8.976   8.029  12.735 -1.3098 -2.0268  0.1755
64734SOL     OW 5926   0.987   2.950  12.846 -0.1958  0.1533  0.7920
64734SOL    HW1 5927   0.994   2.974  12.754  0.7769  0.2413  0.8790
64734SOL    HW2 5928   0.993   3.033  12.893  1.5013 -0.0537  1.0152
64735SOL     OW 5929   4.969   3.520   6.920  0.6537  0.1770 -0.0746
64735SOL    HW1 5930   5.054   3.486   6.893  0.1546 -1.4430  0.2774
64735SOL    HW2 5931   4.906   3.454   6.891 -0.1815 -0.2075  2.3608
64736SOL     OW 5932   7.607   1.870   8.330  0.7342 -0.1345  0.3169
64736SOL    HW1 5933   7.699   1.898   8.332  0.7607 -0.2764  1.3363
64736SOL    HW2 5934   7.600   1.816   8.251  1.3562  0.4420 -0.1458
64737SOL     OW 5935   4.429   2.972   9.695  0.2491  0.3607 -0.2478
64737SOL    HW1 5936   4.396   2.908   9.632 -1.5120  1.2195 -0.2678
64737SOL    HW2 5937   4.454   2.920   9.771  0.0574 -0.4523 -0.7245
64738SOL     OW 5938   2.849   5.927  13.407  0.2632  0.0535  0.1214
64738SOL    HW1 5939   2.845   5.839  13.370  0.5258 -0.3258  0.9676
64738SOL    HW2 5940   2.929   5.927  13.459  0.1362  0.7151  0.3240
64739SOL     OW 5941   8.323   0.664   0.318  0.8654 -0.1050  0.0762
64739SOL    HW1 5942   8.228   0.660   0.302  0.6371 -0.3588  1.4050
64739SOL    HW2 5943   8.362   0.643   0.233 -0.2677 -0.0709 -0.4757
64740SOL     OW 5944  11.060  12.010   2.814 -0.3414  0.1731 -0.5211
64740SOL    HW1 5945  11.043  12.053   2.898 -0.0269 -0.0022 -0.3668
64740SOL    HW2 5946  10.974  11.981   2.784 -0.5533  0.8433 -0.5936
64741SOL     OW 5947   9.569  12.617   1.236  0.1011  0.2331  0.2948
64741SOL    HW1 5948   9.551  12.530   1.271  0.8044 -0.0814 -0.0939
64741SOL    HW2 5949   9.628  12.601   1.162  0.8912  1.0959  0.7189
64742SOL     OW 5950   2.821   0.587   1.274  0.4064 -0.5362  0.3976
64742SOL    HW1 5951   2.812   0.580   1.369  0.5774 -0.3243  0.4294
64742SOL    HW2 5952   2.899   0.641   1.261  1.2818 -1.8223  0.1366
64743SOL     OW 5953   0.651   4.329  11.893 -0.2939 -1.0340  0.2213
64743SOL    HW1 5954   0.570   4.312  11.845  0.9968 -1.4931 -1.9565
64743SOL    HW2 5955   0.623   4.340  11.984 -2.7687 -1.2230 -0.4308
64744SOL     OW 5956   2.283  10.140   5.411 -0.2169  0.3345 -0.2330
64744SOL    HW1 5957   2.256  10.098   5.492 -2.4605  0.8786 -0.6298
64744SOL    HW2 5958   2.202  10.179   5.376  1.0110  1.5649 -1.8604
64745SOL     OW 5959   8.533   3.989   6.595 -0.2641 -0.4632  0.9018
64745SOL    HW1 5960   8.470   3.917   6.600  0.0270 -0.7368  0.6903
64745SOL    HW2 5961   8.602   3.956   6.539 -0.3895  0.1855  0.3549
64746SOL     OW 5962   4.118  11.551   5.318 -0.0776 -0.4321 -0.5553
64746SOL    HW1 5963   4.204  11.583   5.347 -0.1938 -1.3126  0.8656
64746SOL    HW2 5964   4.130  11.456   5.309 -0.7957 -0.5064 -0.7643
64747SOL     OW 5965   1.425  13.230   8.546 -0.9576  0.2290 -0.0463
64747SOL    HW1 5966   1.503  13.226   8.601 -1.0522 -0.5806  0.0377
64747SOL    HW2 5967   1.354  13.200   8.603 -1.0628 -0.5905 -0.5924
64748SOL     OW 5968   2.597  12.080   4.690 -0.1068 -0.2860 -0.0122
64748SOL    HW1 5969   2.566  12.161   4.731  0.6547  0.0865 -0.1544
64748SOL    HW2 5970   2.595  12.098   4.596 -1.1140 -0.8725 -0.1123
64749SOL     OW 5971  11.622   7.941   1.285 -0.0112  0.3445  1.0190
64749SOL    HW1 5972  11.656   7.879   1.221  0.4126  1.2444  0.3525
64749SOL    HW2 5973  11.614   7.890   1.366  1.2107 -0.3361  0.7372
64750SOL     OW 5974   6.770   6.324  11.657 -0.1680 -0.0907  0.2546
64750SOL    HW1 5975   6.690   6.300  11.610 -0.8383  0.4148  1.0912
64750SOL    HW2 5976   6.841   6.288  11.605 -0.9421 -0.4751 -0.5576
64751SOL     OW 5977   8.179   0.026  12.858  0.4694  0.2755  0.1686
64751SOL    HW1 5978   8.159   0.020  12.765 -3.1580  3.6596  0.4549
64751SOL    HW2 5979   8.237   0.101  12.866 -1.2876  1.6557  0.6941
64752SOL     OW 5980  12.325  12.671   7.417 -0.4147  0.7234 -0.2338
64752SOL    HW1 5981  12.314  12.632   7.330  1.0260  2.2376 -1.1493
64752SOL    HW2 5982  12.298  12.762   7.407  0.4967  1.1183  0.7021
64753SOL     OW 5983  10.765   2.195   2.432 -0.3528  0.5284  0.5048
64753SOL    HW1 5984  10.759   2.229   2.343 -0.2648 -1.4636 -0.3173
64753SOL    HW2 5985  10.675   2.194   2.464 -0.5777 -0.1781 -0.1448
64754SOL     OW 5986  12.962  12.869  13.469 -0.9031 -0.6600  0.3277
64754SOL    HW1 5987  12.930  12.780  13.483 -2.1328 -0.0401  1.6441
64754SOL    HW2 5988  12.950  12.913  13.553  0.5419  0.5151 -0.0328
64755SOL     OW 5989   6.454  13.064   9.012  0.4383 -0.3344  0.2370
64755SOL    HW1 5990   6.384  13.110   9.057  0.1144  0.7002 -1.2447
64755SOL    HW2 5991   6.513  13.133   8.983  1.2631 -1.0684  0.1176
64756SOL     OW 5992   4.662   8.320   9.276 -0.0174  0.0151 -0.2721
64756SOL    HW1 5993   4.597   8.250   9.284 -0.3565  0.2607 -0.8022
64756SOL    HW2 5994   4.620   8.396   9.317 -0.3714  0.3672 -1.2569
64757SOL     OW 5995  11.547   0.540   0.316 -0.4353  0.1903 -0.4095
64757SOL    HW1 5996  11.595   0.526   0.234  0.7144  0.4005  0.2092
64757SOL    HW2 5997  11.551   0.635   0.330  0.5795  0.0145  0.5903
64758SOL     OW 5998   4.041   3.841   7.884 -0.5437  0.4007  0.0933
64758SOL    HW1 5999   4.062   3.883   7.801 -1.1774  0.4271 -0.0509
64758SOL    HW2 6000   3.946   3.839   7.888 -0.5267 -0.3601  0.4336
64759SOL     OW 6001   2.176   4.292   8.040  0.2653  0.3863  0.6154
64759SOL    HW1 6002   2.119   4.366   8.018  2.4006  2.0801  0.5205
64759SOL    HW2 6003   2.264   4.321   8.017  1.1939 -2.2600  0.4712
64760SOL     OW 6004   6.549   9.807   2.589 -0.0622  0.2455 -0.1216
64760SOL    HW1 6005   6.586   9.870   2.527  0.8104  0.4402  0.5797
64760SOL    HW2 6006   6.621   9.745   2.606 -1.1435 -1.4769 -1.4510
64761SOL     OW 6007  12.681   6.460   9.165  0.3852  0.2747 -0.8965
64761SOL    HW1 6008  12.670   6.480   9.072  0.0921 -0.2961 -0.9945
64761SOL    HW2 6009  12.757   6.402   9.168 -0.3645 -0.7368 -0.9388
64762SOL     OW 6010   1.742   8.128   4.989  0.1604 -0.3775  0.4258
64762SOL    HW1 6011   1.803   8.094   5.055 -2.3269 -1.7400  2.2036
64762SOL    HW2 6012   1.718   8.051   4.937 -0.2559  0.0733 -0.0516
64763SOL     OW 6013   3.552  10.184   5.233 -0.6262 -0.3160  0.4550
64763SOL    HW1 6014   3.624  10.142   5.281  1.7352  2.4325 -0.4294
64763SOL    HW2 6015   3.533  10.263   5.282 -0.6416  0.7244 -1.1595
64764SOL     OW 6016  13.634   1.867   6.485  0.5450  0.0039  0.4208
64764SOL    HW1 6017  13.697   1.829   6.546  1.7641 -0.2774 -0.9592
64764SOL    HW2 6018  13.603   1.793   6.433  2.5228  0.6709 -1.9095
64765SOL     OW 6019   7.662  13.385   5.419 -0.3551 -0.5972  0.4345
64765SOL    HW1 6020   7.725  13.457   5.421  1.0311 -1.7859  0.8857
64765SOL    HW2 6021   7.624  13.389   5.332  0.0169  0.4038  0.2997
64766SOL     OW 6022   0.629   1.990   7.453  0.1096 -0.5199  0.5813
64766SOL    HW1 6023   0.675   1.910   7.429  1.0950  0.0489  0.4983
64766SOL    HW2 6024   0.559   1.961   7.512 -0.0048 -1.5110 -0.0232
64767SOL     OW 6025  13.673  12.614   7.435  0.4668 -0.3131 -0.5951
64767SOL    HW1 6026  13.646  12.527   7.465 -0.4318  0.0093 -0.4214
64767SOL    HW2 6027  13.698  12.601   7.344 -0.0440 -0.6941 -0.6917
64768SOL     OW 6028   0.063   2.091   6.419 -0.0958  0.0734  0.9285
64768SOL    HW1 6029   0.025   2.017   6.372  2.5598 -1.2249  0.6849
64768SOL    HW2 6030  -0.013   2.137   6.456 -2.1160 -0.3843 -2.2667
64769SOL     OW 6031   4.434   9.699   9.900 -0.1104 -0.1446  0.6700
64769SOL    HW1 6032   4.489   9.650   9.961 -0.0713  0.1738  0.8960
64769SOL    HW2 6033   4.350   9.652   9.899  0.3033 -0.8872 -0.0170
64770SOL     OW 6034   7.366   3.203   7.841 -0.1194 -0.4951 -0.1442
64770SOL    HW1 6035   7.276   3.182   7.818  0.2344 -3.0026  0.4052
64770SOL    HW2 6036   7.412   3.208   7.757 -1.1022  3.2592 -0.6280
64771SOL     OW 6037  12.120   6.428   8.846 -0.2427 -0.4816 -0.1021
64771SOL    HW1 6038  12.109   6.520   8.873 -0.5188 -0.2209 -1.0697
64771SOL    HW2 6039  12.173   6.389   8.916  1.3198  0.8299 -0.4832
64772SOL     OW 6040   1.585  11.689   1.608 -0.2931 -0.4493  0.2889
64772SOL    HW1 6041   1.611  11.613   1.660 -1.1809 -1.5235 -0.7806
64772SOL    HW2 6042   1.548  11.652   1.527 -1.6001  1.0826  0.1240
64773SOL     OW 6043   8.357   2.405  12.589  0.3239  0.3148  0.0487
64773SOL    HW1 6044   8.368   2.447  12.675 -0.5195 -0.9613  0.8180
64773SOL    HW2 6045   8.279   2.351  12.599  1.0351 -0.9723 -1.0812
64774SOL     OW 6046   9.815   0.569  10.472  0.6222  0.3598  0.0442
64774SOL    HW1 6047   9.737   0.528  10.509  0.0145  1.2830 -0.1608
64774SOL    HW2 6048   9.803   0.562  10.377  0.3801  1.2052 -0.0001
64775SOL     OW 6049   4.286  11.551  12.667 -0.4162 -0.2855 -0.5252
64775SOL    HW1 6050   4.343  11.521  12.596  1.6134 -0.1549  0.9542
64775SOL    HW2 6051   4.271  11.643  12.648 -1.5229 -0.6888 -1.7786
64776SOL     OW 6052  12.270   1.609   0.432  0.3886  0.2016  0.9312
64776SOL    HW1 6053  12.306   1.688   0.473 -0.3881  0.7412  0.5962
64776SOL    HW2 6054  12.278   1.541   0.499  3.4080 -0.1109  0.4080
64777SOL     OW 6055  13.521   9.675   4.278 -0.8217 -0.1522 -0.2551
64777SOL    HW1 6056  13.476   9.703   4.198 -0.6429  1.0095  0.0393
64777SOL    HW2 6057  13.608   9.649   4.247 -1.0166 -0.4885 -0.5413
64778SOL     OW 6058  10.577   7.922   2.009  0.0343 -0.1532 -0.3088
64778SOL    HW1 6059  10.587   8.016   2.021  0.5862 -0.2699  0.2044
64778SOL    HW2 6060  10.641   7.883   2.068 -0.1737 -0.8530 -0.5283
64779SOL     OW 6061   3.922   9.543   1.729 -0.1674 -0.7450  0.4859
64779SOL    HW1 6062   4.009   9.515   1.701  0.1802 -0.8356  1.6013
64779SOL    HW2 6063   3.884   9.465   1.771  0.7581  0.2924  3.5155
64780SOL     OW 6064   4.800   9.466   6.382  0.0648 -0.3005 -0.4235
64780SOL    HW1 6065   4.720   9.431   6.422  1.1776 -2.3724  0.1306
64780SOL    HW2 6066   4.802   9.427   6.295  1.2452 -1.5856  0.1446
64781SOL     OW 6067  11.124   0.191  13.195  0.0617  0.0117 -0.0431
64781SOL    HW1 6068  11.207   0.219  13.234  1.3885 -2.1507 -1.1390
64781SOL    HW2 6069  11.070   0.165  13.270  0.8115  0.3233  0.6228
64782SOL     OW 6070   0.635   9.421   6.452  0.5478 -0.1917  0.0659
64782SOL    HW1 6071   0.588   9.403   6.534  1.9963 -1.7466  0.6153
64782SOL    HW2 6072   0.723   9.448   6.481  1.4176 -1.8012 -0.9602
64783SOL     OW 6073   7.364   4.072   8.617  0.0319  0.8126 -0.1362
64783SOL    HW1 6074   7.271   4.062   8.636  0.4465 -0.7641  1.3173
64783SOL    HW2 6075   7.382   4.003   8.553  0.2610  0.9350 -0.2045
64784SOL     OW 6076   4.778   2.853   5.924 -0.0113  0.1581 -0.1389
64784SOL    HW1 6077   4.771   2.766   5.965  1.1991 -0.6989 -1.6365
64784SOL    HW2 6078   4.822   2.836   5.841  0.7557  2.3062 -0.2154
64785SOL     OW 6079  13.709   1.799  10.732  0.1787  0.1746  0.4033
64785SOL    HW1 6080  13.791   1.766  10.768  1.0228  0.7918 -0.9128
64785SOL    HW2 6081  13.688   1.875  10.786  0.7761  0.3523  0.3917
64786SOL     OW 6082   8.423   9.545   9.962  0.0675  0.6359 -0.1600
64786SOL    HW1 6083   8.465   9.628   9.985  0.5258  0.4455 -0.2998
64786SOL    HW2 6084   8.438   9.536   9.868  0.0761  0.3648 -0.1335
64787SOL     OW 6085   8.507  10.583   0.780 -0.8731 -0.0116 -0.3783
64787SOL    HW1 6086   8.463  10.502   0.805 -0.8463  0.1091  0.0594
64787SOL    HW2 6087   8.442  10.651   0.795 -0.5785  0.1563  0.1702
64788SOL     OW 6088   1.361  13.442   6.861 -0.0351  0.0356 -0.9416
64788SOL    HW1 6089   1.333  13.523   6.818  0.1560  0.4466 -0.3070
64788SOL    HW2 6090   1.425  13.470   6.926 -0.6531 -0.5116 -0.0753
64789SOL     OW 6091   0.950  10.542   5.541 -0.7194 -0.1509 -0.3807
64789SOL    HW1 6092   0.964  10.620   5.595 -1.0354  0.1348 -0.7004
64789SOL    HW2 6093   1.025  10.486   5.560  0.6253  1.1025 -1.6644
64790SOL     OW 6094  10.300   4.844  10.279 -0.4060  0.1921  0.3881
64790SOL    HW1 6095  10.315   4.871  10.370 -0.2349 -0.2736  0.5022
64790SOL    HW2 6096  10.207   4.823  10.275 -0.0753 -1.4818  0.9214
64791SOL     OW 6097   0.757   3.857  10.994 -0.3299  0.0569  0.6861
64791SOL    HW1 6098   0.760   3.893  10.905 -0.4825 -1.1865  0.1472
64791SOL    HW2 6099   0.705   3.919  11.044 -0.3481  0.7136 -0.1278
64792SOL     OW 6100   3.498   1.057   9.035  0.0900  0.1634 -0.5668
64792SOL    HW1 6101   3.557   1.121   9.076 -0.8893 -0.0936  1.3714
64792SOL    HW2 6102   3.543   0.973   9.048  0.1013  0.1582 -0.6414
64793SOL     OW 6103   6.223   1.373   6.169  0.3614  0.3824 -0.0065
64793SOL    HW1 6104   6.149   1.371   6.108 -0.3232  0.6124  0.7939
64793SOL    HW2 6105   6.224   1.463   6.202 -0.5771 -0.2102  1.8307
64794SOL     OW 6106   5.455   9.533   7.023 -0.1183  0.5311 -0.1833
64794SOL    HW1 6107   5.417   9.617   7.048 -0.9943  0.2187 -0.4209
64794SOL    HW2 6108   5.383   9.486   6.979  0.6018 -0.0014 -0.8204
64795SOL     OW 6109   1.968   4.467   2.177 -0.2827  0.2617 -0.5901
64795SOL    HW1 6110   2.019   4.392   2.208 -1.1350 -0.7294 -1.5200
64795SOL    HW2 6111   2.034   4.533   2.155  0.4360  0.1500  1.0962
64796SOL     OW 6112   4.468  13.225   2.722 -0.0470  0.0128 -0.2729
64796SOL    HW1 6113   4.489  13.317   2.705 -1.3509  0.3688 -0.1216
64796SOL    HW2 6114   4.457  13.220   2.817 -0.0815 -0.2699 -0.2928
64797SOL     OW 6115   1.184  10.957   8.704  0.4060  0.6187 -0.0309
64797SOL    HW1 6116   1.161  11.037   8.655  1.5770  0.6748 -0.5487
64797SOL    HW2 6117   1.244  10.988   8.772  0.9799  0.1805 -0.3248
64798SOL     OW 6118   5.398   7.946   5.632 -0.3889  0.7398 -0.8988
64798SOL    HW1 6119   5.437   8.033   5.621 -1.4571  1.0948 -2.1178
64798SOL    HW2 6120   5.458   7.887   5.586 -0.7784  1.1449 -1.9376
64799SOL     OW 6121   2.516  12.223  11.233 -0.4233 -0.2836  0.3612
64799SOL    HW1 6122   2.453  12.158  11.262 -2.3329  0.6067 -1.5215
64799SOL    HW2 6123   2.480  12.307  11.263 -0.6709  0.3247 -1.5363
64800SOL     OW 6124   6.025   0.327   7.934 -0.1470  0.4498 -0.0674
64800SOL    HW1 6125   6.020   0.258   7.868  0.2012  1.4287 -1.1487
64800SOL    HW2 6126   6.065   0.401   7.889  0.2804  1.0959  1.3011
64801SOL     OW 6127   6.728  11.844   0.836 -0.4036 -0.3023  0.3226
64801SOL    HW1 6128   6.651  11.836   0.892 -0.4212  0.3542  0.4042
64801SOL    HW2 6129   6.702  11.804   0.754 -0.8427 -0.0767  0.3456
64802SOL     OW 6130   7.893   5.783   6.544 -0.2294  0.2929 -0.1099
64802SOL    HW1 6131   7.950   5.765   6.618 -0.3962  0.1565 -0.0151
64802SOL    HW2 6132   7.938   5.746   6.468 -0.9902 -1.3502  0.2079
64803SOL     OW 6133   5.908   6.555   7.974 -0.0808  0.2843 -0.1254
64803SOL    HW1 6134   5.959   6.517   8.046 -0.7972  0.9882  0.7904
64803SOL    HW2 6135   5.873   6.637   8.011  0.6342  1.3568 -1.7161
64804SOL     OW 6136   0.768  11.265   6.131 -0.4586 -0.5171  0.1794
64804SOL    HW1 6137   0.723  11.205   6.071 -0.4504  0.1165 -0.4665
64804SOL    HW2 6138   0.780  11.345   6.081 -1.4108  0.4025  1.3624
64805SOL     OW 6139   2.033   8.366   4.015 -0.1181  0.0889  0.2382
64805SOL    HW1 6140   1.968   8.337   3.951  1.5263  0.9041 -1.9113
64805SOL    HW2 6141   2.088   8.289   4.030 -0.6857 -0.1896  0.9433
64806SOL     OW 6142   4.851   1.378   4.565  0.0448  0.5445 -0.0532
64806SOL    HW1 6143   4.762   1.383   4.602  0.4910 -0.0257  1.1620
64806SOL    HW2 6144   4.880   1.469   4.561 -0.5050  0.7206 -0.2473
64807SOL     OW 6145  13.316   4.758  12.415  0.1892 -0.5558 -0.4501
64807SOL    HW1 6146  13.352   4.705  12.344 -1.7143  0.6946 -2.4956
64807SOL    HW2 6147  13.355   4.845  12.402 -0.9571 -0.0531 -0.6269
64808SOL     OW 6148   1.021  11.460   7.160 -0.1778  0.0350  0.1343
64808SOL    HW1 6149   1.070  11.400   7.218  0.7910  1.7016  1.1418
64808SOL    HW2 6150   1.088  11.521   7.128 -1.2197  0.8999 -0.4325
64809SOL     OW 6151   9.667   2.718   5.014 -0.1548  0.2526  0.1719
64809SOL    HW1 6152   9.684   2.710   4.921  0.0158 -2.6165  0.3558
64809SOL    HW2 6153   9.599   2.652   5.032 -0.9559  1.4564  1.9132
64810SOL     OW 6154   9.194   3.880   7.058 -0.4932 -0.5403  0.0032
64810SOL    HW1 6155   9.256   3.938   7.013  1.1630 -1.7503  0.6320
64810SOL    HW2 6156   9.240   3.853   7.137 -2.4641 -0.2682  1.3019
64811SOL     OW 6157  13.140  13.036  11.175 -0.4400 -0.0057 -0.1050
64811SOL    HW1 6158  13.148  13.045  11.270  0.2020 -0.9329 -0.0593
64811SOL    HW2 6159  13.122  13.125  11.144 -0.6006  0.3179  0.8722
64812SOL     OW 6160  10.355   0.200   7.854  0.3543  0.3968  0.2643
64812SOL    HW1 6161  10.403   0.137   7.907 -1.5929 -0.5949  0.9599
64812SOL    HW2 6162  10.295   0.146   7.802  1.6635  1.4041 -2.4296
64813SOL     OW 6163   7.183   5.692   7.959  0.1094  0.3214 -0.0180
64813SOL    HW1 6164   7.118   5.637   7.916 -0.4003  1.5165 -0.8387
64813SOL    HW2 6165   7.266   5.647   7.945 -0.4330 -0.8005  0.3208
64814SOL     OW 6166   8.941  11.897   6.015 -0.1445  0.3656 -0.6743
64814SOL    HW1 6167   9.035  11.905   6.035 -0.2071  2.1424 -0.9125
64814SOL    HW2 6168   8.913  11.818   6.060  1.5632 -0.4504 -0.9550
64815SOL     OW 6169   8.798   4.260   4.015  0.2618  0.0661 -0.3265
64815SOL    HW1 6170   8.812   4.350   4.046 -0.9071 -0.0726  0.6753
64815SOL    HW2 6171   8.872   4.211   4.051  0.7529  0.5652 -0.6423
64816SOL     OW 6172  12.505  12.963   7.106  0.0026 -0.1740 -0.0771
64816SOL    HW1 6173  12.430  12.963   7.165 -0.4077 -1.1586 -0.5685
64816SOL    HW2 6174  12.476  13.014   7.031  0.3451  0.6476  0.3336
64817SOL     OW 6175  10.031   9.277   2.983 -0.0811 -0.1107  0.0831
64817SOL    HW1 6176  10.009   9.362   3.022 -0.3791  0.2455 -0.8269
64817SOL    HW2 6177  10.123   9.285   2.958  0.5195 -0.8216  1.8938
64818SOL     OW 6178  12.297  13.220   4.699 -0.0016  0.2149  0.1581
64818SOL    HW1 6179  12.259  13.205   4.612 -2.3044  0.4888  1.0394
64818SOL    HW2 6180  12.222  13.212   4.759  1.1511  1.9471  1.9213
64819SOL     OW 6181  12.846   2.449   0.278  0.5551 -0.4054  0.4963
64819SOL    HW1 6182  12.819   2.442   0.186 -1.3966 -1.7059  1.0747
64819SOL    HW2 6183  12.856   2.542   0.294  0.7266 -0.1486 -0.9778
64820SOL     OW 6184   2.822   6.084  10.888  0.0450 -0.4235  0.0961
64820SOL    HW1 6185   2.895   6.068  10.947 -0.3650 -0.0214  0.7280
64820SOL    HW2 6186   2.856   6.146  10.823 -0.5079  2.0533  2.0441
64821SOL     OW 6187   7.081   6.418   3.539  0.5412  0.7749 -0.0714
64821SOL    HW1 6188   7.134   6.498   3.531 -0.7921  1.6187 -0.9679
64821SOL    HW2 6189   7.048   6.402   3.450 -2.7736  1.8097  0.8138
64822SOL     OW 6190   1.792   4.947   8.752  0.3728 -0.0642 -0.1624
64822SOL    HW1 6191   1.859   4.879   8.747  1.7385  1.2410 -0.4185
64822SOL    HW2 6192   1.829   5.013   8.810 -0.3507  1.0614 -0.9481
64823SOL     OW 6193   8.353   6.399   8.129  0.0200  0.3466  0.0375
64823SOL    HW1 6194   8.394   6.313   8.122  2.4185  1.3610  0.4336
64823SOL    HW2 6195   8.311   6.398   8.215  1.0401 -0.0805  0.5580
64824SOL     OW 6196   2.417   5.392  12.256 -0.5430  0.2239  0.1187
64824SOL    HW1 6197   2.360   5.343  12.314  0.6571 -0.1163  1.0421
64824SOL    HW2 6198   2.389   5.367  12.168 -0.8833 -1.0194  0.5656
64825SOL     OW 6199   1.790   0.001   7.333 -0.2107 -0.2843  0.2824
64825SOL    HW1 6200   1.790  -0.061   7.407 -0.8001 -1.9501 -1.0396
64825SOL    HW2 6201   1.698   0.006   7.307 -0.2752  1.7155  0.7603
64826SOL     OW 6202   8.430   1.986   7.071 -0.4369 -0.4227 -0.2355
64826SOL    HW1 6203   8.396   2.009   6.985  0.3975  0.4265 -0.3551
64826SOL    HW2 6204   8.358   1.939   7.114 -1.1354 -0.1579 -1.0899
64827SOL     OW 6205   9.921  11.788   7.493 -0.2702 -0.6350  0.1267
64827SOL    HW1 6206   9.867  11.718   7.531  0.7693 -0.2603  2.4953
64827SOL    HW2 6207   9.868  11.867   7.505  0.1934 -0.4660  1.2151
64828SOL     OW 6208   5.733   8.403  10.359 -0.2776  0.7575 -0.1396
64828SOL    HW1 6209   5.668   8.366  10.300  0.6342 -0.8188 -0.2246
64828SOL    HW2 6210   5.688   8.474  10.404 -3.2916 -2.4909  2.5251
64829SOL     OW 6211   2.292  11.302   4.672 -0.6436  0.0231  0.8121
64829SOL    HW1 6212   2.262  11.369   4.733 -1.4219  0.3558  0.0810
64829SOL    HW2 6213   2.227  11.232   4.680 -0.7450  0.0669  0.3662
64830SOL     OW 6214   9.901   2.181   5.322 -0.1957  0.1941  0.0045
64830SOL    HW1 6215   9.910   2.173   5.227 -1.4854  1.6382 -0.2743
64830SOL    HW2 6216   9.894   2.091   5.353 -1.0186 -0.2584 -1.4128
64831SOL     OW 6217  13.006  13.011   4.888  0.3281 -0.0040  0.7225
64831SOL    HW1 6218  12.973  13.099   4.910 -2.0117 -1.0587  1.8242
64831SOL    HW2 6219  12.976  12.956   4.960  1.3789 -1.8159 -0.1626
64832SOL     OW 6220   5.478   5.748   2.756 -0.2806 -0.1828  0.1446
64832SOL    HW1 6221   5.428   5.666   2.755  1.4463 -1.2882  0.5806
64832SOL    HW2 6222   5.561   5.725   2.798  0.7377  1.5067 -0.8423
64833SOL     OW 6223   9.704   3.849  10.412  0.1683 -0.3826  0.2381
64833SOL    HW1 6224   9.690   3.943  10.401 -1.2567 -0.7992 -2.4458
64833SOL    HW2 6225   9.668   3.828  10.498  2.3083  1.7695  1.7780
64834SOL     OW 6226   4.845  10.035   4.247  0.2322 -0.3907  0.6832
64834SOL    HW1 6227   4.801  10.086   4.179  0.0092 -0.0299  1.0924
64834SOL    HW2 6228   4.868  10.100   4.314 -1.4807 -1.0370  1.9658
64835SOL     OW 6229   6.337  12.188   0.750 -0.4685 -0.3570 -0.1737
64835SOL    HW1 6230   6.270  12.128   0.782  1.1953 -1.6404  1.0875
64835SOL    HW2 6231   6.398  12.133   0.701  1.3708  0.1172  1.4359
64836SOL     OW 6232  13.643   5.040   3.210  0.7661  0.6638  0.1687
64836SOL    HW1 6233  13.608   4.951   3.212  1.7677  0.1900 -1.3974
64836SOL    HW2 6234  13.726   5.034   3.258  1.3643  0.4725 -0.8607
64837SOL     OW 6235   1.171   2.523   2.528  0.1657  0.3827 -0.3102
64837SOL    HW1 6236   1.222   2.599   2.558  0.5648  0.3637 -0.9123
64837SOL    HW2 6237   1.221   2.448   2.558 -0.7486  0.3305  1.1629
64838SOL     OW 6238  10.906   8.798   3.790  0.4048  0.0321 -0.3739
64838SOL    HW1 6239  10.958   8.720   3.770  0.5143  0.4521 -1.8578
64838SOL    HW2 6240  10.971   8.868   3.795  0.1308  0.3213 -0.8234
64839SOL     OW 6241   3.725   1.085  12.334  0.1313 -0.3476  0.3169
64839SOL    HW1 6242   3.690   1.014  12.279 -0.9884  0.0447  0.4926
64839SOL    HW2 6243   3.680   1.163  12.303  2.4086  0.5844 -0.8486
64840SOL     OW 6244   8.893  13.197  11.269 -0.3299 -0.2409  0.1653
64840SOL    HW1 6245   8.816  13.183  11.325  0.5975 -0.1496  1.5169
64840SOL    HW2 6246   8.917  13.288  11.284 -1.2153  0.4022 -1.9432
64841SOL     OW 6247  11.647   2.185   1.972 -0.1767 -0.1325 -0.3294
64841SOL    HW1 6248  11.605   2.156   1.891  0.2210 -0.6681 -0.3475
64841SOL    HW2 6249  11.609   2.128   2.040  0.6973 -0.7970 -0.3827
64842SOL     OW 6250   4.717  10.814  10.932  0.1255  0.2005  0.1418
64842SOL    HW1 6251   4.668  10.791  10.853 -2.2535  1.2642  1.2317
64842SOL    HW2 6252   4.660  10.790  11.005  1.5278  0.8379  1.5166
64843SOL     OW 6253   0.835  12.289   1.323 -0.3445 -0.1662  0.2418
64843SOL    HW1 6254   0.799  12.378   1.330 -0.6876 -0.2169 -0.6948
64843SOL    HW2 6255   0.810  12.247   1.405 -0.0682  0.6403  0.7483
64844SOL     OW 6256  13.332   7.164   6.089 -0.6194 -0.6288 -0.2666
64844SOL    HW1 6257  13.368   7.090   6.039 -0.8823 -0.9863  0.0639
64844SOL    HW2 6258  13.253   7.189   6.041  0.6860  0.9652 -1.7002
64845SOL     OW 6259   0.144   5.303   7.986 -0.0087  0.2598 -0.0813
64845SOL    HW1 6260   0.122   5.386   7.943 -0.6553 -0.4647 -1.2106
64845SOL    HW2 6261   0.230   5.280   7.949 -0.0648  0.1754 -0.1592
64846SOL     OW 6262   9.813   1.258   0.978 -0.1495 -0.2990 -0.5814
64846SOL    HW1 6263   9.871   1.272   0.903 -1.2181  3.0629 -0.9132
64846SOL    HW2 6264   9.785   1.345   1.004 -2.0939 -1.5525  1.9696
64847SOL     OW 6265  13.204   1.441   1.892 -0.1717  0.3182 -0.7829
64847SOL    HW1 6266  13.223   1.377   1.823  0.3524 -0.8631  0.4017
64847SOL    HW2 6267  13.283   1.493   1.899 -0.6532  1.2171 -1.8542
64848SOL     OW 6268   6.176   4.744  10.673  0.3049 -0.7992 -0.2337
64848SOL    HW1 6269   6.113   4.728  10.603 -0.2255 -1.1384  0.3084
64848SOL    HW2 6270   6.260   4.754  10.628  0.1552 -2.0793 -0.8496
64849SOL     OW 6271   1.185   3.603   6.899  0.2398 -0.4109  0.6245
64849SOL    HW1 6272   1.127   3.674   6.927 -0.4562 -0.6245 -0.2345
64849SOL    HW2 6273   1.134   3.554   6.836  0.8329 -1.5006  0.9648
64850SOL     OW 6274   3.177   6.245  11.319 -0.1565 -0.3575  0.2460
64850SOL    HW1 6275   3.221   6.161  11.329 -2.6953 -2.0118 -1.4768
64850SOL    HW2 6276   3.127   6.256  11.400  0.1266 -0.5082  0.4444
64851SOL     OW 6277   3.264  12.824  13.552 -0.2732  0.0285 -0.1250
64851SOL    HW1 6278   3.319  12.797  13.479  1.2204 -1.6744  1.5381
64851SOL    HW2 6279   3.217  12.745  13.578  1.3544 -0.2123  2.4845
64852SOL     OW 6280   9.806  11.835   2.655  0.8055 -0.1380 -0.3415
64852SOL    HW1 6281   9.746  11.789   2.714 -0.2638 -0.9335 -1.9467
64852SOL    HW2 6282   9.749  11.886   2.598  1.8685  1.4609 -0.0340
64853SOL     OW 6283   0.935   2.465   6.788  0.2102 -0.0525 -0.4569
64853SOL    HW1 6284   0.840   2.459   6.777  0.3098  0.9504 -2.4091
64853SOL    HW2 6285   0.969   2.387   6.742  0.3761  0.7127 -1.6914
64854SOL     OW 6286  12.876   2.177   6.928  0.7087  0.3166 -0.3814
64854SOL    HW1 6287  12.854   2.264   6.894 -0.6625 -0.3702 -1.3547
64854SOL    HW2 6288  12.907   2.193   7.017 -3.3026  1.5348  0.9977
64855SOL     OW 6289   7.521   0.047   9.886  0.1507 -0.2329  0.0177
64855SOL    HW1 6290   7.480   0.129   9.915 -1.7794 -1.1350  0.0057
64855SOL    HW2 6291   7.509   0.048   9.791 -1.0660 -1.1062  0.1456
64856SOL     OW 6292  11.155   0.884   2.303 -0.0008  0.7839 -0.4039
64856SOL    HW1 6293  11.141   0.899   2.397 -0.2729  0.4026 -0.3808
64856SOL    HW2 6294  11.122   0.795   2.288  1.9522  0.0239 -0.4460
64857SOL     OW 6295  11.982  13.457   1.640 -0.1574 -0.3435 -0.4978
64857SOL    HW1 6296  11.909  13.506   1.602  0.1400 -0.0678 -0.7247
64857SOL    HW2 6297  12.050  13.523   1.652  0.7145 -0.9119 -1.9902
64858SOL     OW 6298   3.769   3.038   7.714 -0.1429  0.1386 -0.6609
64858SOL    HW1 6299   3.798   3.121   7.676 -1.4372  0.1136 -1.7983
64858SOL    HW2 6300   3.849   2.997   7.746  0.8324  0.8419 -2.0619
64859SOL     OW 6301   0.461  10.802   3.217 -0.1258  0.1702  0.6837
64859SOL    HW1 6302   0.372  10.780   3.245 -0.1555  0.6713  1.0073
64859SOL    HW2 6303   0.453  10.891   3.183  0.5328  0.8226  2.1607
64860SOL     OW 6304   0.742   1.983   0.136 -0.1764 -0.6858 -0.0364
64860SOL    HW1 6305   0.809   1.919   0.109  0.2197 -0.2105 -0.1821
64860SOL    HW2 6306   0.707   2.017   0.053  0.9181  0.6498  0.0312
64861SOL     OW 6307   3.890  13.147   5.216  0.2331 -0.2283  0.0464
64861SOL    HW1 6308   3.809  13.160   5.167  0.3211  0.3426  0.0387
64861SOL    HW2 6309   3.873  13.188   5.301  0.5392 -0.0187  0.0093
64862SOL     OW 6310  12.704  10.715   7.868  0.7598  0.1824  0.0906
64862SOL    HW1 6311  12.703  10.809   7.882  0.1628  0.0568  1.0168
64862SOL    HW2 6312  12.721  10.704   7.775 -0.0562  1.2249 -0.2016
64863SOL     OW 6313   4.211   0.851   5.023  0.5990 -0.1633 -0.4476
64863SOL    HW1 6314   4.191   0.876   5.113  0.5872  1.1901 -0.8023
64863SOL    HW2 6315   4.165   0.768   5.010  0.8732 -0.5478  0.8856
64864SOL     OW 6316   4.002   9.784   6.333  0.3106  0.3916 -0.4106
64864SOL    HW1 6317   3.994   9.718   6.402 -0.6534  3.1799  2.3969
64864SOL    HW2 6318   4.039   9.861   6.377 -1.0341  2.5902 -2.8145
64865SOL     OW 6319   4.662  10.605   7.977  0.8388  0.1686 -0.0538
64865SOL    HW1 6320   4.667  10.555   8.058  0.6108 -0.0716 -0.1859
64865SOL    HW2 6321   4.601  10.677   7.996 -0.7116 -0.9491 -0.5553
64866SOL     OW 6322   3.902   4.227   9.684 -0.1034 -0.2816  0.0753
64866SOL    HW1 6323   3.966   4.289   9.651  0.3319 -1.4947 -1.4368
64866SOL    HW2 6324   3.839   4.281   9.732  0.9980  1.1455 -0.0278
64867SOL     OW 6325  10.999   8.822   7.058 -0.3383 -0.0414  0.2179
64867SOL    HW1 6326  10.962   8.733   7.062 -0.2758 -0.0523  0.6184
64867SOL    HW2 6327  11.089   8.809   7.029 -0.4311 -0.0795 -0.0526
64868SOL     OW 6328   8.059   3.557   5.663 -0.4868  0.0368  0.2109
64868SOL    HW1 6329   8.139   3.552   5.610 -0.0718  1.0777  0.7066
64868SOL    HW2 6330   8.067   3.485   5.725 -1.3556 -1.7028 -1.5920
64869SOL     OW 6331   4.138   2.260   5.846  0.3792 -0.5893 -0.0755
64869SOL    HW1 6332   4.211   2.210   5.811  0.3433  0.4060 -1.6850
64869SOL    HW2 6333   4.166   2.352   5.839  2.1858 -0.1344  6.5237
64870SOL     OW 6334   3.004   1.438   0.590 -0.1108  0.1607  0.5165
64870SOL    HW1 6335   2.934   1.503   0.597 -0.0567  0.1425  1.2336
64870SOL    HW2 6336   3.019   1.429   0.495 -1.0726  0.1623  0.3586
64871SOL     OW 6337  11.647   0.070   3.062 -0.1055 -0.5060  0.2389
64871SOL    HW1 6338  11.729   0.098   3.104  1.0099 -0.9673 -1.5020
64871SOL    HW2 6339  11.661  -0.023   3.044 -1.7585 -1.0331  1.4739
64872SOL     OW 6340   2.175   1.042   6.398  0.3098 -0.3441  0.2110
64872SOL    HW1 6341   2.154   1.131   6.372  1.0620 -0.0516  0.5932
64872SOL    HW2 6342   2.190   1.047   6.492  0.5623 -0.8391  0.1997
64873SOL     OW 6343   4.326  13.053   5.638  0.2809  0.5470  0.5354
64873SOL    HW1 6344   4.265  13.051   5.564  1.5656 -2.6206 -0.6249
64873SOL    HW2 6345   4.273  13.026   5.713 -0.2775  0.1118 -0.0011
64874SOL     OW 6346   3.788  13.597   8.658  0.0697 -0.3925 -0.0573
64874SOL    HW1 6347   3.720  13.628   8.598 -1.1385 -1.1079  0.8950
64874SOL    HW2 6348   3.799  13.505   8.637  0.4258 -0.3848  0.0932
64875SOL     OW 6349   3.837   0.044  13.345  0.7369 -0.1149 -0.6460
64875SOL    HW1 6350   3.802   0.039  13.256  0.4098  1.3736 -0.6348
64875SOL    HW2 6351   3.833   0.137  13.367 -0.1755 -0.5425  1.3096
64876SOL     OW 6352  10.568   7.402  12.762 -0.6297  0.6657  0.6540
64876SOL    HW1 6353  10.533   7.314  12.774 -1.1658  0.4989 -1.5838
64876SOL    HW2 6354  10.663   7.392  12.771 -0.5569 -0.4591 -0.8648
64877SOL     OW 6355  13.458   5.706   7.503 -0.1938 -0.1762  0.3778
64877SOL    HW1 6356  13.365   5.719   7.521 -0.1149 -0.5509  1.1150
64877SOL    HW2 6357  13.502   5.768   7.561  0.0254 -0.1806  0.2180
64878SOL     OW 6358   4.169   2.526  12.682 -0.2193  0.1477  0.0335
64878SOL    HW1 6359   4.163   2.499  12.774 -1.4506 -2.1272 -0.6413
64878SOL    HW2 6360   4.079   2.522  12.650  0.1259  1.3187 -1.1874
64879SOL     OW 6361   0.283  11.727   8.108 -0.1335  0.5376 -0.3470
64879SOL    HW1 6362   0.304  11.733   8.015 -0.6828 -0.8229 -0.5810
64879SOL    HW2 6363   0.364  11.696   8.149 -0.3664 -0.4951 -0.6325
64880SOL     OW 6364   4.131   8.551   3.885  0.3338  0.0227 -0.3791
64880SOL    HW1 6365   4.186   8.511   3.952  0.1622  1.6041  0.7721
64880SOL    HW2 6366   4.043   8.519   3.904  0.1089  1.2494  0.8717
64881SOL     OW 6367   0.406   0.595  11.563  0.1206  0.1212  0.6362
64881SOL    HW1 6368   0.463   0.604  11.487 -0.5632 -0.2067  0.0730
64881SOL    HW2 6369   0.464   0.564  11.633  0.5986 -0.3893  0.0268
64882SOL     OW 6370   1.632   1.836  12.588  0.3311 -0.1828 -0.0885
64882SOL    HW1 6371   1.665   1.754  12.552  2.3423  0.6032 -0.1702
64882SOL    HW2 6372   1.674   1.904  12.536  0.4129  0.9263  1.3549
64883SOL     OW 6373   2.033  13.208  11.077 -0.2918 -0.0237 -0.5428
64883SOL    HW1 6374   1.960  13.219  11.137 -1.0229 -0.5636 -1.3162
64883SOL    HW2 6375   1.994  13.178  10.995  0.7833 -0.3124 -0.9815
64884SOL     OW 6376   4.678   0.214   1.548  0.0805  0.4638  0.3513
64884SOL    HW1 6377   4.629   0.217   1.630 -0.4541  0.0672  0.0521
64884SOL    HW2 6378   4.712   0.124   1.544  0.0358  0.4600  0.0960
64885SOL     OW 6379   7.769   5.027   9.537  0.2071 -0.5373 -0.1941
64885SOL    HW1 6380   7.790   4.939   9.507  0.9459 -0.1573 -0.8486
64885SOL    HW2 6381   7.853   5.062   9.568  0.3604  0.6355 -1.8142
64886SOL     OW 6382   5.742  10.584  11.174 -0.2536 -0.0049  0.0292
64886SOL    HW1 6383   5.716  10.523  11.105 -0.8602 -2.1893  2.0507
64886SOL    HW2 6384   5.659  10.617  11.209  0.0572  1.2997 -0.3788
64887SOL     OW 6385   3.811  12.695  12.549 -0.0595 -0.0765  0.4387
64887SOL    HW1 6386   3.764  12.659  12.624  0.0641  0.5205  0.8106
64887SOL    HW2 6387   3.746  12.746  12.501  0.1707  0.6655  0.8969
64888SOL     OW 6388   3.326   8.768  13.183 -0.0589 -0.9781  0.1331
64888SOL    HW1 6389   3.336   8.720  13.266  0.6912 -1.2468 -0.0973
64888SOL    HW2 6390   3.383   8.721  13.122 -0.9337 -1.0486 -0.6582
64889SOL     OW 6391   6.482   9.624   0.521  0.3074  0.1611 -0.5020
64889SOL    HW1 6392   6.448   9.538   0.547  0.4091  0.2955  0.0729
64889SOL    HW2 6393   6.522   9.659   0.600 -0.4313  1.0903 -0.5359
64890SOL     OW 6394  10.101   4.089  10.469  0.3682  0.2975  0.6196
64890SOL    HW1 6395  10.020   4.110  10.422  0.4403  0.0191  0.3683
64890SOL    HW2 6396  10.171   4.119  10.412  0.5972 -3.0195 -1.0871
64891SOL     OW 6397  11.015   1.730   6.595  0.1605 -0.1443  0.0739
64891SOL    HW1 6398  11.076   1.676   6.545 -1.2574 -0.2685 -1.5972
64891SOL    HW2 6399  10.932   1.683   6.591 -0.2685  0.4157  1.6261
64892SOL     OW 6400   9.837  10.723   8.990 -0.1446  0.1086  0.1140
64892SOL    HW1 6401   9.847  10.642   8.940  0.0861  0.2959 -0.1442
64892SOL    HW2 6402   9.896  10.712   9.065  0.9340  0.6100 -0.6487
64893SOL     OW 6403   6.049   0.813  13.028 -0.0753 -0.0670 -0.7485
64893SOL    HW1 6404   6.023   0.899  13.060  0.5402 -0.3932  0.6816
64893SOL    HW2 6405   6.047   0.756  13.105 -1.7816 -1.6869 -1.8900
64894SOL     OW 6406  11.786   5.007   8.721  0.7796  0.2503  0.1459
64894SOL    HW1 6407  11.808   5.004   8.814  2.5597 -0.0917 -0.2424
64894SOL    HW2 6408  11.772   5.100   8.702 -0.5943  0.2209  0.9475
64895SOL     OW 6409   0.977  12.727   8.459 -0.3182  0.1148 -0.0510
64895SOL    HW1 6410   0.914  12.742   8.530  0.0136  0.5974  0.1449
64895SOL    HW2 6411   0.924  12.727   8.380 -0.3213  2.8757 -0.1347
64896SOL     OW 6412   7.526  10.106   9.383 -0.0558  0.3083  0.0946
64896SOL    HW1 6413   7.474  10.162   9.440 -1.3186  0.1674 -0.8962
64896SOL    HW2 6414   7.616  10.134   9.398 -0.4851  1.1954  1.1331
64897SOL     OW 6415  11.159   9.062   2.352  0.1524 -0.7913  0.7565
64897SOL    HW1 6416  11.164   9.051   2.257 -1.8637  2.5384  0.1126
64897SOL    HW2 6417  11.236   9.113   2.375 -0.8367  1.0059  0.3093
64898SOL     OW 6418   4.461  11.241  12.517 -0.3877  0.6785 -0.1011
64898SOL    HW1 6419   4.512  11.241  12.599  0.0471 -0.0356 -0.3643
64898SOL    HW2 6420   4.382  11.192  12.538  0.0547 -0.1354 -0.2996
64899SOL     OW 6421   4.281   6.085   5.552  0.1859 -0.3981  0.2896
64899SOL    HW1 6422   4.239   6.061   5.470 -0.0367  0.2666  0.2027
64899SOL    HW2 6423   4.243   6.025   5.617 -1.3035  0.5260  0.3154
64900SOL     OW 6424   8.863  12.453   0.931  0.0305  0.3840  0.6300
64900SOL    HW1 6425   8.956  12.434   0.945 -0.2308 -0.4778  1.3102
64900SOL    HW2 6426   8.835  12.496   1.012 -0.3271 -0.0320  0.7325
64901SOL     OW 6427  10.272   7.143   1.407  0.0677  0.2429  0.5583
64901SOL    HW1 6428  10.251   7.231   1.377 -0.8685 -0.0075  0.4443
64901SOL    HW2 6429  10.303   7.097   1.328 -0.4405  0.1751  0.3945
64902SOL     OW 6430   2.906  12.539   1.795  0.6263  0.0830  0.4557
64902SOL    HW1 6431   2.902  12.460   1.848 -0.8815 -0.4776 -0.4289
64902SOL    HW2 6432   2.876  12.609   1.854  1.6220 -0.0454  1.1303
64903SOL     OW 6433   4.670   9.580  13.124 -0.0715  0.2156  0.4100
64903SOL    HW1 6434   4.576   9.602  13.126  0.0051  0.4991  1.0429
64903SOL    HW2 6435   4.714   9.664  13.113  0.1220  0.1131  0.3919
64904SOL     OW 6436   1.977   0.490   3.243  0.3262  0.0759 -0.4483
64904SOL    HW1 6437   2.047   0.544   3.206  0.8961 -0.4316 -0.1303
64904SOL    HW2 6438   1.996   0.487   3.337  2.6555 -3.8594 -0.8153
64905SOL     OW 6439   2.864   9.436   5.375  0.5337  0.7617  0.1815
64905SOL    HW1 6440   2.868   9.456   5.469 -1.3824  0.9986  0.2616
64905SOL    HW2 6441   2.862   9.522   5.333 -2.4906  0.8199  0.2165
64906SOL     OW 6442   7.832   0.164  12.755  0.0617 -0.0741  0.3419
64906SOL    HW1 6443   7.798   0.096  12.813  0.1024  1.3653  2.1283
64906SOL    HW2 6444   7.777   0.158  12.676 -2.1112 -0.0328  1.7731
64907SOL     OW 6445   0.358   8.372   2.763 -1.1685  0.4674  0.5642
64907SOL    HW1 6446   0.351   8.284   2.801 -2.7350  0.0031 -0.6571
64907SOL    HW2 6447   0.267   8.404   2.760 -0.9571  1.0097 -1.4764
64908SOL     OW 6448   2.948  10.673   7.178 -0.1798  0.4832  0.6625
64908SOL    HW1 6449   2.975  10.661   7.269  2.1548  2.4968  0.3386
64908SOL    HW2 6450   3.012  10.623   7.128 -1.6454 -0.8851  0.0738
64909SOL     OW 6451   4.876   7.194   7.298 -0.1529  0.0865  0.1729
64909SOL    HW1 6452   4.880   7.123   7.361  0.1700 -1.1154 -1.1577
64909SOL    HW2 6453   4.783   7.200   7.274 -0.4483  1.2286  1.4650
64910SOL     OW 6454   6.930   9.096   5.275 -0.5016 -0.3833  0.2204
64910SOL    HW1 6455   6.941   9.023   5.215 -0.6621  0.4849 -0.8886
64910SOL    HW2 6456   7.011   9.097   5.326 -0.1958 -0.8876 -0.2444
64911SOL     OW 6457   2.316   6.873   5.001 -0.2955 -0.0276  0.0786
64911SOL    HW1 6458   2.238   6.823   5.024  0.8059 -1.8042  0.1811
64911SOL    HW2 6459   2.367   6.876   5.082  0.4527 -0.2721 -0.3749
64912SOL     OW 6460  11.535   8.374   6.868 -0.3366 -0.0721  0.0662
64912SOL    HW1 6461  11.551   8.311   6.939 -0.3657 -1.2376 -0.9195
64912SOL    HW2 6462  11.440   8.381   6.862 -0.3380  1.4091  1.2846
64913SOL     OW 6463  10.280   3.042   5.908 -0.7086  0.4283 -0.4345
64913SOL    HW1 6464  10.318   3.080   5.829  1.5394  0.7782  0.7548
64913SOL    HW2 6465  10.216   3.107   5.938 -1.4657  0.3632 -1.8351
64914SOL     OW 6466   6.549  12.212   3.609 -0.0562  0.4798  0.7246
64914SOL    HW1 6467   6.601  12.162   3.672  1.2475  0.2616 -0.4696
64914SOL    HW2 6468   6.591  12.299   3.608 -0.9378  0.9231  1.1677
64915SOL     OW 6469   5.023   5.751   5.850  0.1193 -0.2455 -0.8925
64915SOL    HW1 6470   5.061   5.834   5.818 -0.1064  0.4521  0.5881
64915SOL    HW2 6471   5.091   5.713   5.905 -1.4029  1.3865  2.4142
64916SOL     OW 6472   5.577  13.235  10.286 -0.2467 -0.6050  0.4129
64916SOL    HW1 6473   5.667  13.244  10.255  0.3398 -1.3036  1.8156
64916SOL    HW2 6474   5.575  13.149  10.328 -1.4383 -0.3746  0.8644
64917SOL     OW 6475  12.099  10.877   0.044 -0.7457 -0.4176 -0.1130
64917SOL    HW1 6476  12.170  10.817   0.069  0.0392  0.1346 -0.9575
64917SOL    HW2 6477  12.061  10.838  -0.035 -1.1574 -0.5237  0.1337
64918SOL     OW 6478  10.537  12.761   8.529  0.1824  0.0721 -0.0330
64918SOL    HW1 6479  10.530  12.710   8.448 -1.0834 -1.8076  1.2008
64918SOL    HW2 6480  10.567  12.698   8.594  1.3992  1.6057  0.9577
64919SOL     OW 6481  12.973  12.854   0.779 -0.5185 -0.2272  0.2754
64919SOL    HW1 6482  13.056  12.855   0.732 -0.8151  1.2548 -0.2796
64919SOL    HW2 6483  12.918  12.794   0.730  0.0341 -0.7845  0.3202
64920SOL     OW 6484  10.941   7.243   8.924  0.1527  0.1611 -0.5622
64920SOL    HW1 6485  11.018   7.273   8.972  0.1525 -0.5951 -0.0774
64920SOL    HW2 6486  10.975   7.182   8.859  0.0863  0.7234 -1.1337
64921SOL     OW 6487  10.871   3.293   3.493 -0.0367 -0.0404  0.1445
64921SOL    HW1 6488  10.902   3.206   3.465  1.0329  0.8794 -1.7030
64921SOL    HW2 6489  10.786   3.303   3.449  0.0296 -0.0004  0.0240
64922SOL     OW 6490   3.860   8.271   1.228 -0.3477 -0.3679  0.1259
64922SOL    HW1 6491   3.874   8.344   1.288  0.1694 -0.2104 -0.1883
64922SOL    HW2 6492   3.880   8.306   1.142 -0.3579 -0.8073 -0.0585
64923SOL     OW 6493   0.984   9.848   9.831  0.0791 -0.6477 -0.5353
64923SOL    HW1 6494   0.903   9.892   9.859  0.2366  0.1267 -1.2586
64923SOL    HW2 6495   1.053   9.892   9.880  0.0521 -1.4937  0.2874
64924SOL     OW 6496   3.396  13.284   9.908 -0.0252 -0.1842 -0.0213
64924SOL    HW1 6497   3.412  13.216   9.973  0.5446  0.0683  0.1141
64924SOL    HW2 6498   3.401  13.239   9.824 -1.4429 -0.6455  0.1087
64925SOL     OW 6499   1.746  11.940   9.625 -0.5591  0.1271 -0.0976
64925SOL    HW1 6500   1.757  12.015   9.566  1.6772  0.1536  0.2685
64925SOL    HW2 6501   1.715  11.870   9.569 -0.9969  0.8509 -0.7873
64926SOL     OW 6502   2.377  11.467   5.367  0.4612 -0.2831 -0.1008
64926SOL    HW1 6503   2.466  11.443   5.393  0.8190  0.4290 -0.6308
64926SOL    HW2 6504   2.357  11.545   5.419  0.2911 -0.2162 -0.2652
64927SOL     OW 6505  11.520   9.841   5.891 -0.1474 -0.2308 -0.1422
64927SOL    HW1 6506  11.540   9.887   5.809  2.6339 -2.9917 -1.2226
64927SOL    HW2 6507  11.455   9.775   5.865  0.8215 -1.1830 -0.2148
64928SOL     OW 6508   0.824   7.721  11.996  0.5189 -0.0576 -0.0153
64928SOL    HW1 6509   0.822   7.704  12.090 -0.6381 -0.9980 -0.1882
64928SOL    HW2 6510   0.912   7.755  11.979  1.2580 -1.3172  1.1600
64929SOL     OW 6511   5.868  11.999   0.714  0.1203 -0.4901  0.0854
64929SOL    HW1 6512   5.866  12.014   0.619 -0.1535  2.0728  0.4245
64929SOL    HW2 6513   5.800  12.056   0.748  1.1082 -0.3532  1.9343
64930SOL     OW 6514  12.865   2.255  11.760  0.5981 -0.4659  0.3238
64930SOL    HW1 6515  12.873   2.300  11.676  0.7405  0.2468  0.7091
64930SOL    HW2 6516  12.956   2.241  11.787  0.5536 -0.0245  0.7065
64931SOL     OW 6517  12.547   2.094  10.190  0.0689 -0.0357  0.4663
64931SOL    HW1 6518  12.560   2.184  10.159 -1.7212  0.2378  0.4346
64931SOL    HW2 6519  12.531   2.043  10.111  1.6265 -0.5304  0.4273
64932SOL     OW 6520   5.886  12.397   0.196  0.2764  0.0163  0.7490
64932SOL    HW1 6521   5.850  12.397   0.107  0.1938 -2.7643  0.6946
64932SOL    HW2 6522   5.816  12.362   0.250  0.2159  1.9604  2.0379
64933SOL     OW 6523   1.795  12.832  10.949  0.0895 -0.2454 -0.2488
64933SOL    HW1 6524   1.784  12.915  10.996  0.3908 -0.8023  0.8280
64933SOL    HW2 6525   1.861  12.784  10.998 -0.6844 -1.4806 -0.3503
64934SOL     OW 6526   2.610   8.122  12.436 -0.3938 -0.2293  0.8745
64934SOL    HW1 6527   2.560   8.082  12.364 -1.1724  0.3580  1.0773
64934SOL    HW2 6528   2.644   8.203  12.399 -1.8685  0.7207  1.5207
64935SOL     OW 6529  12.418  12.109   9.196 -0.4799 -0.8549 -0.3217
64935SOL    HW1 6530  12.345  12.096   9.135 -0.8474  0.8797 -0.2958
64935SOL    HW2 6531  12.377  12.142   9.276  0.1885 -1.3056  0.2201
64936SOL     OW 6532   9.039  10.762  10.375  0.2679 -0.2673 -0.3542
64936SOL    HW1 6533   9.091  10.682  10.372 -0.7179 -0.9091 -0.6222
64936SOL    HW2 6534   9.095  10.829  10.334  0.6911 -1.0532 -1.0836
64937SOL     OW 6535   4.062   3.312   6.848  0.6560 -0.0595 -0.5533
64937SOL    HW1 6536   4.137   3.256   6.827  0.6348 -0.1288 -0.4476
64937SOL    HW2 6537   4.013   3.318   6.767  0.1352 -0.9897 -0.3225
64938SOL     OW 6538   8.435  13.686   5.702 -0.5280 -0.0151 -0.3043
64938SOL    HW1 6539   8.453  13.753   5.637  1.4024 -0.1469  0.0294
64938SOL    HW2 6540   8.376  13.728   5.764  2.1807  2.1891  1.0147
64939SOL     OW 6541   0.421   8.645   7.135 -0.4086  0.5491  0.3249
64939SOL    HW1 6542   0.374   8.696   7.068 -1.7244  0.6008  1.2516
64939SOL    HW2 6543   0.363   8.647   7.211 -0.4399 -2.2006  0.4576
64940SOL     OW 6544  10.035   0.640  11.388  0.1955 -0.2778  0.7199
64940SOL    HW1 6545  10.019   0.732  11.408 -0.8171 -0.4135  0.5782
64940SOL    HW2 6546   9.968   0.618  11.323  1.9726 -0.4386 -1.1640
64941SOL     OW 6547   3.042  12.022   1.542 -0.5546  0.4216  0.0991
64941SOL    HW1 6548   2.947  12.031   1.544 -0.4951  0.9604  1.5238
64941SOL    HW2 6549   3.063  11.972   1.621  0.2362 -1.1797 -1.0598
64942SOL     OW 6550   0.470   9.438   1.428  0.2437 -0.2444 -0.1692
64942SOL    HW1 6551   0.402   9.444   1.495 -1.3711  0.9419 -1.8107
64942SOL    HW2 6552   0.498   9.346   1.430 -0.9512 -0.6104  0.9809
64943SOL     OW 6553   1.056   5.961   3.044 -0.2468 -0.0602  0.2848
64943SOL    HW1 6554   0.963   5.974   3.026 -0.0153  3.1766  0.8918
64943SOL    HW2 6555   1.096   5.951   2.957 -0.8093  1.7776 -0.2336
64944SOL     OW 6556   4.635  11.155   5.702 -0.5129  0.4966  0.7232
64944SOL    HW1 6557   4.641  11.094   5.776 -0.0289 -0.7504 -0.2906
64944SOL    HW2 6558   4.621  11.240   5.742 -1.0139 -0.2455  2.2177
64945SOL     OW 6559   0.341   4.863  11.487  0.1329 -0.1559 -0.5356
64945SOL    HW1 6560   0.319   4.772  11.465  1.1383 -0.2828 -1.0876
64945SOL    HW2 6561   0.437   4.865  11.486  0.2331  0.2600  2.1911
64946SOL     OW 6562   0.914   3.090  10.313  0.8236  0.9799 -0.5883
64946SOL    HW1 6563   0.846   3.039  10.270  2.7528 -1.4595 -0.9948
64946SOL    HW2 6564   0.886   3.097  10.404  0.1210 -0.1538 -0.7025
64947SOL     OW 6565  13.327   9.535   3.781 -0.5361  0.2874  0.1006
64947SOL    HW1 6566  13.302   9.444   3.765 -1.3164  0.8013 -1.9206
64947SOL    HW2 6567  13.403   9.529   3.838  0.3988 -1.7047 -1.2371
64948SOL     OW 6568   4.152   8.728   7.032  0.0352  0.8034 -0.0737
64948SOL    HW1 6569   4.111   8.811   7.010 -0.0193  0.1374 -2.8145
64948SOL    HW2 6570   4.083   8.662   7.021  0.6837  0.1434 -0.3293
64949SOL     OW 6571  11.532  10.778  12.835  0.2197 -0.4544  0.4359
64949SOL    HW1 6572  11.538  10.770  12.930 -0.8150 -2.0396  0.4056
64949SOL    HW2 6573  11.598  10.717  12.801 -2.4670 -3.4687  0.1962
64950SOL     OW 6574   3.765   9.670   5.210  0.1122  0.4528  0.3444
64950SOL    HW1 6575   3.778   9.751   5.160 -0.3343  0.9487  1.0105
64950SOL    HW2 6576   3.692   9.690   5.269  0.9076  0.0238  1.4929
64951SOL     OW 6577  10.135  13.159   8.402 -0.1075  0.0319 -0.3546
64951SOL    HW1 6578  10.168  13.112   8.479  0.9134 -0.3856 -1.0319
64951SOL    HW2 6579  10.184  13.123   8.329 -0.0375  1.4337 -1.0308
64952SOL     OW 6580  13.042   6.440   5.168 -0.2474  0.2016 -0.1149
64952SOL    HW1 6581  12.969   6.434   5.230  0.9613  0.3948  1.3819
64952SOL    HW2 6582  13.053   6.351   5.135  0.5800 -0.4309  1.7534
64953SOL     OW 6583   4.109   9.693   8.874  0.1487 -0.4023 -0.4292
64953SOL    HW1 6584   4.139   9.643   8.798 -0.9893  0.1359 -1.2520
64953SOL    HW2 6585   4.086   9.779   8.840  0.1411  0.0307  0.6206
64954SOL     OW 6586   6.315   7.034   1.380  0.4907  0.4694  0.2933
64954SOL    HW1 6587   6.299   6.941   1.366 -0.3703  0.8368 -1.4624
64954SOL    HW2 6588   6.257   7.059   1.452 -0.1446 -0.1131 -0.0147
64955SOL     OW 6589   3.300   3.624   4.025  0.1583  0.2455  0.5791
64955SOL    HW1 6590   3.363   3.660   3.963  0.6619 -0.3892  0.7157
64955SOL    HW2 6591   3.335   3.538   4.049 -0.8330 -0.1838  0.5513
64956SOL     OW 6592   2.675   9.253  11.254  0.2180  0.4378 -0.8272
64956SOL    HW1 6593   2.678   9.347  11.239  0.4435  0.4333 -0.8216
64956SOL    HW2 6594   2.725   9.240  11.335 -0.3580  0.3853 -0.4752
64957SOL     OW 6595  10.135  12.285   7.617 -0.2194 -0.1497  0.0728
64957SOL    HW1 6596  10.111  12.287   7.524 -0.4821 -0.1964  0.1385
64957SOL    HW2 6597  10.104  12.200   7.648 -0.8373  0.1838  0.3889
64958SOL     OW 6598  11.620   7.257   8.044 -0.2249 -0.3001  0.5938
64958SOL    HW1 6599  11.667   7.174   8.041 -1.3438 -0.9195 -0.1868
64958SOL    HW2 6600  11.626   7.284   8.136 -2.3033 -2.7258  1.5882
64959SOL     OW 6601   0.260   6.505   6.022  0.2174  0.8993 -0.0855
64959SOL    HW1 6602   0.197   6.575   6.001  0.2702  0.3343 -2.4092
64959SOL    HW2 6603   0.241   6.437   5.957  2.0684 -0.0170  0.3055
64960SOL     OW 6604   6.719   0.197   0.504 -0.2710 -0.6930  0.3401
64960SOL    HW1 6605   6.640   0.146   0.482 -0.5568 -1.5593  2.9643
64960SOL    HW2 6606   6.792   0.139   0.481 -0.5159 -1.1660  0.7281
64961SOL     OW 6607  13.639   6.580   7.408 -0.6470 -0.0198 -0.2226
64961SOL    HW1 6608  13.587   6.511   7.448 -1.4669  0.5955 -0.2061
64961SOL    HW2 6609  13.711   6.534   7.364 -0.7760 -0.8234  0.3924
64962SOL     OW 6610   5.236  11.794   7.000  0.3675  0.2348  0.3398
64962SOL    HW1 6611   5.304  11.813   7.064  0.3155 -0.2549  0.5471
64962SOL    HW2 6612   5.163  11.851   7.024  0.0115 -0.5828  1.2904
64963SOL     OW 6613   0.827   1.375   2.484  0.4475  0.7052  0.3164
64963SOL    HW1 6614   0.865   1.387   2.571  1.5037 -1.3567  0.1862
64963SOL    HW2 6615   0.743   1.422   2.489  1.1511  1.9214  1.9202
64964SOL     OW 6616  13.654   6.919  10.842  0.0438 -0.3530  0.3681
64964SOL    HW1 6617  13.568   6.906  10.802  1.0275  1.4133 -2.6257
64964SOL    HW2 6618  13.650   7.007  10.879  0.9517  0.3371 -1.0939
64965SOL     OW 6619   2.697   3.396   5.119 -0.1374  0.3998 -0.4765
64965SOL    HW1 6620   2.613   3.406   5.074  0.4436 -0.6591 -1.9002
64965SOL    HW2 6621   2.679   3.334   5.190 -0.6868  0.6400 -0.4036
64966SOL     OW 6622   4.466   6.308   4.031 -0.2843 -0.3710  0.3899
64966SOL    HW1 6623   4.529   6.331   3.962 -0.6974 -0.0764  0.1028
64966SOL    HW2 6624   4.421   6.390   4.049 -0.3811 -0.5161  0.8058
64967SOL     OW 6625  12.245   2.189   7.073  0.5182  0.1957 -0.2711
64967SOL    HW1 6626  12.314   2.146   7.022 -0.3261  0.4396 -1.6805
64967SOL    HW2 6627  12.225   2.268   7.023  0.6016  1.1582  1.1833
64968SOL     OW 6628  10.163   5.529   1.465 -0.4289  0.1054  0.3291
64968SOL    HW1 6629  10.084   5.493   1.424 -0.6102  1.0469 -0.1741
64968SOL    HW2 6630  10.175   5.614   1.424  0.9316 -0.0705  0.3151
64969SOL     OW 6631   6.201   0.413   4.161 -0.6174 -0.3313  0.5457
64969SOL    HW1 6632   6.131   0.423   4.226 -1.6007 -0.7381 -0.4204
64969SOL    HW2 6633   6.158   0.371   4.086  0.7456 -0.9101  0.0594
64970SOL     OW 6634   7.587   7.544   6.491  0.1645  0.1927  0.2537
64970SOL    HW1 6635   7.634   7.547   6.574 -1.6431  0.4797  1.3374
64970SOL    HW2 6636   7.655   7.531   6.425  1.8256  1.3924  1.6274
64971SOL     OW 6637   1.360   7.710   2.613  0.2652 -0.8387  0.1102
64971SOL    HW1 6638   1.315   7.651   2.553  2.5024 -0.2478 -2.3442
64971SOL    HW2 6639   1.453   7.697   2.595  1.0248  0.1632  2.7588
64972SOL     OW 6640   6.441   4.092   0.428 -0.0663  0.1465  0.4733
64972SOL    HW1 6641   6.378   4.160   0.405  0.6539  0.8076  0.4116
64972SOL    HW2 6642   6.401   4.046   0.502 -0.2562  1.1038  0.9828
64973SOL     OW 6643   4.297   5.331  12.017  0.3431  0.2671 -0.4408
64973SOL    HW1 6644   4.380   5.349  11.973 -0.5035  0.8209 -1.8796
64973SOL    HW2 6645   4.231   5.344  11.949 -0.9755  0.5079  0.8480
64974SOL     OW 6646   0.620   1.398   2.959 -0.1877 -0.2989 -0.7721
64974SOL    HW1 6647   0.604   1.316   3.006 -1.0085  0.7595  0.8764
64974SOL    HW2 6648   0.566   1.391   2.880  1.4243 -2.2213 -1.7977
64975SOL     OW 6649  10.751   0.786  13.621 -0.5227 -0.1144  0.1122
64975SOL    HW1 6650  10.664   0.759  13.650  0.8634 -3.4746  1.6322
64975SOL    HW2 6651  10.804   0.707  13.627  2.8713  1.9617  0.0457
64976SOL     OW 6652   0.637   0.677  13.542 -0.2117  0.2611 -0.5150
64976SOL    HW1 6653   0.565   0.658  13.601  0.0982 -0.3317 -0.3183
64976SOL    HW2 6654   0.600   0.669  13.454  0.0205 -1.8839 -0.4720
64977SOL     OW 6655   1.781   0.636   2.589 -0.0777 -0.5567 -0.3340
64977SOL    HW1 6656   1.728   0.587   2.651 -0.7141  0.4399 -0.0612
64977SOL    HW2 6657   1.788   0.724   2.628 -1.0483  0.2900 -1.9823
64978SOL     OW 6658  12.660  10.146   2.062  0.7380 -0.0522 -0.2318
64978SOL    HW1 6659  12.641  10.085   1.991 -0.5803 -0.3964  0.3759
64978SOL    HW2 6660  12.693  10.090   2.133  1.3021  0.1884 -0.3003
64979SOL     OW 6661   9.285  12.755   9.809 -0.0536 -0.3515 -0.2296
64979SOL    HW1 6662   9.321  12.666   9.812 -1.5793 -0.9860  0.3307
64979SOL    HW2 6663   9.318  12.797   9.889 -1.0177 -1.1289  0.6030
64980SOL     OW 6664   8.431  10.020  12.852 -0.2332 -0.5727  0.2732
64980SOL    HW1 6665   8.350  10.069  12.838  0.2590 -0.1296 -1.2369
64980SOL    HW2 6666   8.404   9.928  12.858 -0.7403 -0.6122 -1.8519
64981SOL     OW 6667  11.365   8.540   5.271 -0.2567 -0.1632 -0.5082
64981SOL    HW1 6668  11.309   8.493   5.333  0.6327 -0.8050 -0.1556
64981SOL    HW2 6669  11.410   8.471   5.223  1.3557  0.2849  0.2733
64982SOL     OW 6670  10.831   4.115   5.516 -0.1437  0.0068  0.3104
64982SOL    HW1 6671  10.751   4.063   5.523 -0.4412 -0.1049 -2.7112
64982SOL    HW2 6672  10.902   4.051   5.520 -0.3836 -0.3178 -0.3911
64983SOL     OW 6673   4.398  11.671  11.687  0.0480 -0.1858  0.3976
64983SOL    HW1 6674   4.477  11.624  11.714  0.1927 -0.8759 -1.0965
64983SOL    HW2 6675   4.429  11.758  11.664  0.2322 -0.1805  0.6680
64984SOL     OW 6676   6.885   2.092   6.904 -0.2575  0.3131  0.1283
64984SOL    HW1 6677   6.802   2.065   6.944  0.7879 -2.9036  0.4084
64984SOL    HW2 6678   6.879   2.060   6.814  0.4682  0.4972  0.0102
64985SOL     OW 6679  13.536   4.048   5.883  0.2300 -0.2474 -0.1198
64985SOL    HW1 6680  13.465   4.009   5.933 -0.6649  0.5551 -0.7200
64985SOL    HW2 6681  13.499   4.062   5.795  0.5657  1.6570 -0.0092
64986SOL     OW 6682   9.925   8.911   9.763  0.4080 -0.0839 -0.2324
64986SOL    HW1 6683   9.937   8.828   9.716  0.3557  0.6723 -1.6122
64986SOL    HW2 6684   9.985   8.904   9.838  0.9263 -1.0796 -0.7089
64987SOL     OW 6685   9.073  12.742   7.628  0.1941 -0.0144 -0.4158
64987SOL    HW1 6686   8.995  12.739   7.684 -0.5949  2.1276 -1.3039
64987SOL    HW2 6687   9.134  12.798   7.676 -0.4759  1.8147 -1.5869
64988SOL     OW 6688   4.232  12.222   1.278  0.0886 -0.5545  0.3298
64988SOL    HW1 6689   4.172  12.180   1.339 -0.5496  0.0640  0.1419
64988SOL    HW2 6690   4.243  12.311   1.312  0.3826 -0.4622  0.0000
64989SOL     OW 6691   5.648   0.467   5.185 -0.4030  0.4974 -0.0377
64989SOL    HW1 6692   5.702   0.407   5.134 -0.7528 -1.2175  1.5133
64989SOL    HW2 6693   5.563   0.466   5.142 -0.8133 -1.2563  0.7486
64990SOL     OW 6694   7.846  12.089   9.424  0.3103  0.0301  0.3612
64990SOL    HW1 6695   7.890  12.073   9.341  0.4749  2.6904 -0.1315
64990SOL    HW2 6696   7.754  12.099   9.401  0.1564 -0.5179  0.7082
64991SOL     OW 6697  10.133   5.259   8.806  0.1039 -0.3681  0.0301
64991SOL    HW1 6698  10.114   5.166   8.794  2.7293 -1.1433  1.2619
64991SOL    HW2 6699  10.191   5.263   8.882  0.6345  2.2275 -0.4041
64992SOL     OW 6700   9.586  10.880  10.219  0.3142 -0.0254 -0.0955
64992SOL    HW1 6701   9.672  10.903  10.253  0.7104 -0.1762 -0.9796
64992SOL    HW2 6702   9.557  10.807  10.274  1.4852 -1.0974 -0.8508
64993SOL     OW 6703  11.799   7.095   6.846 -0.3739 -0.4735 -0.0163
64993SOL    HW1 6704  11.715   7.088   6.801 -0.0279  0.3230 -0.8165
64993SOL    HW2 6705  11.777   7.125   6.934 -0.9254 -0.2943 -0.2120
64994SOL     OW 6706   5.656   4.728  12.758 -0.3421  0.8234 -0.4510
64994SOL    HW1 6707   5.693   4.763  12.677 -0.1257 -0.2086 -0.8173
64994SOL    HW2 6708   5.616   4.644  12.732 -0.9180  0.8249  0.3742
64995SOL     OW 6709  11.617  11.745   9.379  0.5203 -0.3077  0.1446
64995SOL    HW1 6710  11.535  11.787   9.405  0.3673 -0.2111 -0.4698
64995SOL    HW2 6711  11.642  11.692   9.455  0.4626  0.5054  0.7453
64996SOL     OW 6712   6.157   6.044  10.297 -0.2271  0.1308 -0.0606
64996SOL    HW1 6713   6.198   5.987  10.363 -1.5338 -1.3831 -0.4847
64996SOL    HW2 6714   6.135   5.984  10.225 -1.4527  1.2211 -0.6267
64997SOL     OW 6715   0.986  13.267   2.385 -0.0653 -0.3085 -0.1437
64997SOL    HW1 6716   0.963  13.219   2.305  1.3793  0.7580 -1.2489
64997SOL    HW2 6717   1.079  13.252   2.396  0.0571  0.8216  0.4785
64998SOL     OW 6718  10.181   4.545   3.419 -0.2514  0.0181 -0.0555
64998SOL    HW1 6719  10.244   4.524   3.350 -0.5818 -0.2286 -0.2852
64998SOL    HW2 6720  10.157   4.636   3.403  1.1119  0.5818  0.8859
64999SOL     OW 6721   2.445   4.833   2.164 -1.1061 -0.4192 -0.0774
64999SOL    HW1 6722   2.355   4.811   2.189 -0.7649 -0.4986  1.1965
64999SOL    HW2 6723   2.466   4.771   2.094 -1.7140 -1.0743  0.3021
65000SOL     OW 6724   5.585   7.826   3.480  0.3601 -0.2422 -0.0720
65000SOL    HW1 6725   5.509   7.805   3.426  0.9997 -0.1124 -1.0500
65000SOL    HW2 6726   5.560   7.907   3.526 -0.1562 -0.2959 -0.2531
65001SOL     OW 6727  11.962   0.301  10.476  0.3304  0.3231  0.4166
65001SOL    HW1 6728  11.906   0.342  10.410  0.8736  1.7104  0.7770
65001SOL    HW2 6729  11.934   0.209  10.478  1.5421 -0.2931 -3.0980
65002SOL     OW 6730   1.648   2.068   9.782  0.4234 -0.4135  0.3422
65002SOL    HW1 6731   1.699   2.127   9.727 -1.0337 -0.3632 -1.0151
65002SOL    HW2 6732   1.655   2.105   9.870  2.0155  0.0423  0.0627
65003SOL     OW 6733   1.165   1.830  13.415 -0.5373  0.0946  0.4621
65003SOL    HW1 6734   1.205   1.820  13.502  0.7593 -1.6859 -0.2981
65003SOL    HW2 6735   1.163   1.742  13.379 -2.8231  0.5157 -0.5990
65004SOL     OW 6736   5.304  11.973  10.934 -0.2974 -0.3117 -0.5159
65004SOL    HW1 6737   5.219  11.941  10.904  0.0544 -1.0997 -0.7056
65004SOL    HW2 6738   5.310  11.944  11.025 -0.0217 -0.7104 -0.6568
65005SOL     OW 6739   5.386   3.550   4.352  0.6294  0.4098  0.1449
65005SOL    HW1 6740   5.419   3.524   4.266  2.3300 -0.0117  0.8931
65005SOL    HW2 6741   5.415   3.640   4.363  2.7274 -0.3504  1.3196
65006SOL     OW 6742   1.488   7.872   5.681  0.1473  0.3008  0.5090
65006SOL    HW1 6743   1.423   7.943   5.681  0.6799  0.7890  0.6519
65006SOL    HW2 6744   1.518   7.867   5.771  0.1002 -0.1205  0.5003
65007SOL     OW 6745   4.162   3.023  12.872 -0.2804  0.3895 -0.1783
65007SOL    HW1 6746   4.185   2.963  12.801 -1.9127 -0.5016  0.0069
65007SOL    HW2 6747   4.167   3.110  12.832 -0.0022 -0.0141 -1.0445
65008SOL     OW 6748  11.528   8.607  10.628  0.1759  0.1596  0.2710
65008SOL    HW1 6749  11.435   8.631  10.623  0.1507 -0.1489 -2.1277
65008SOL    HW2 6750  11.529   8.513  10.609  1.0151  0.3055 -0.4621
65009SOL     OW 6751  11.143   6.849   2.240  0.2708 -0.0639  0.2381
65009SOL    HW1 6752  11.072   6.861   2.303 -0.8643 -0.1615 -0.9919
65009SOL    HW2 6753  11.215   6.814   2.293  0.0105  1.6491  1.8259
65010SOL     OW 6754   3.078   3.288   7.794  0.2103  0.1327  0.0865
65010SOL    HW1 6755   3.056   3.309   7.885 -1.4103 -0.1145 -0.2295
65010SOL    HW2 6756   3.084   3.192   7.793 -1.8723 -0.0404 -0.4718
65011SOL     OW 6757   2.420   6.289  11.695 -0.0325  0.3323  0.4964
65011SOL    HW1 6758   2.372   6.270  11.776  2.1212  0.2153  1.8240
65011SOL    HW2 6759   2.417   6.207  11.646  0.2999 -0.2261  1.3734
65012SOL     OW 6760   2.158   9.399   3.085 -0.2856 -0.4188  0.0855
65012SOL    HW1 6761   2.086   9.385   3.147 -0.1850 -0.0109  0.3010
65012SOL    HW2 6762   2.115   9.429   3.005 -0.3226  0.4769  0.4193
65013SOL     OW 6763   5.212   8.381  13.332 -0.1973  0.3319 -0.6618
65013SOL    HW1 6764   5.166   8.298  13.337 -1.1193  0.8176 -0.9072
65013SOL    HW2 6765   5.168   8.438  13.395  0.2740  0.7120 -0.6608
65014SOL     OW 6766   5.764  10.123  10.770 -0.2888  0.3137 -0.3557
65014SOL    HW1 6767   5.809  10.184  10.828  0.4035 -0.2607 -0.2668
65014SOL    HW2 6768   5.672  10.129  10.795  0.1155 -0.7952  1.6574
65015SOL     OW 6769  10.526   2.177  13.040  0.1797 -0.0936  0.2527
65015SOL    HW1 6770  10.554   2.182  12.948 -1.0637 -1.0080 -0.1941
65015SOL    HW2 6771  10.595   2.224  13.088 -0.4112  2.6891 -1.3920
65016SOL     OW 6772   7.437   2.495   2.035 -0.6735 -0.0135 -0.3580
65016SOL    HW1 6773   7.505   2.436   2.003 -1.1502 -1.8289  1.6844
65016SOL    HW2 6774   7.415   2.549   1.960  1.7347 -0.5698 -1.5844
65017SOL     OW 6775   5.768   3.005   1.467 -0.2108  0.3599  0.6796
65017SOL    HW1 6776   5.743   2.932   1.523  1.6527  0.0436  1.1642
65017SOL    HW2 6777   5.825   2.967   1.400 -1.2871  0.9689 -0.6142
65018SOL     OW 6778   3.977   7.195  13.007  0.2507 -0.0257  0.2682
65018SOL    HW1 6779   4.002   7.215  12.917  1.1692  0.7340  0.6667
65018SOL    HW2 6780   3.948   7.104  13.005 -0.2415  0.1432 -0.8815
65019SOL     OW 6781   1.840   1.098   8.761  0.1804 -0.2837 -0.0827
65019SOL    HW1 6782   1.784   1.036   8.808 -0.7070 -1.1431 -2.1345
65019SOL    HW2 6783   1.869   1.050   8.683  0.2398  1.5588 -1.2648
65020SOL     OW 6784   1.053   7.079   0.412  0.2821 -0.0251  0.0043
65020SOL    HW1 6785   0.972   7.058   0.367  0.6174  1.1210 -1.1984
65020SOL    HW2 6786   1.097   6.995   0.422 -0.4443 -0.4815 -0.5452
65021SOL     OW 6787   9.870  12.843   9.504  0.2964  0.5236 -0.1150
65021SOL    HW1 6788   9.943  12.862   9.563  1.0987 -0.3183 -0.8123
65021SOL    HW2 6789   9.863  12.748   9.504 -0.2978  0.5576 -0.6694
65022SOL     OW 6790  11.307  12.281   9.249  0.2520  0.3031 -0.5171
65022SOL    HW1 6791  11.356  12.219   9.303  0.5127 -0.1549 -1.2689
65022SOL    HW2 6792  11.361  12.293   9.171  0.7239  2.3032  0.0768
65023SOL     OW 6793  12.947   4.278   7.878  0.2647  0.5873 -0.4822
65023SOL    HW1 6794  13.016   4.212   7.875  0.3596  0.6837 -0.4433
65023SOL    HW2 6795  12.913   4.273   7.968 -2.1079 -1.8248 -1.3643
65024SOL     OW 6796  12.191   9.688   2.060  0.2881 -0.0199  0.1652
65024SOL    HW1 6797  12.132   9.709   2.133 -0.6627 -1.2989 -0.1939
65024SOL    HW2 6798  12.241   9.612   2.091  0.1721 -0.3085 -0.3430
65025SOL     OW 6799   7.198  13.714   0.564  0.0853 -0.9872 -0.1711
65025SOL    HW1 6800   7.214  13.701   0.657 -1.0871  0.3043  0.2413
65025SOL    HW2 6801   7.281  13.748   0.530  1.0985 -3.0969 -0.0057
65026SOL     OW 6802   7.473   9.842   3.176 -0.0683  0.1019 -0.3119
65026SOL    HW1 6803   7.494   9.749   3.169  0.0100  0.0517  0.4802
65026SOL    HW2 6804   7.544   9.879   3.229 -1.6131  0.0205  1.9853
65027SOL     OW 6805   8.110   4.777   0.097  0.5590 -0.4010  0.5332
65027SOL    HW1 6806   8.045   4.833   0.140  1.4777 -0.6109  2.3048
65027SOL    HW2 6807   8.097   4.691   0.135  0.5213 -0.9348 -0.6459
65028SOL     OW 6808   4.938  10.190  13.598 -0.0695 -0.1525 -0.5522
65028SOL    HW1 6809   5.020  10.143  13.586 -1.1106 -1.5659 -3.1251
65028SOL    HW2 6810   4.880  10.154  13.530 -2.4412  1.6049  0.3922
65029SOL     OW 6811   2.873   7.988  11.060  0.0410  0.3180  0.5356
65029SOL    HW1 6812   2.906   7.948  11.141 -0.6541  1.3030  1.3323
65029SOL    HW2 6813   2.906   7.931  10.990  1.3565 -0.0897  1.4437
65030SOL     OW 6814   0.366   9.927  11.756 -0.7278  0.3107 -0.1017
65030SOL    HW1 6815   0.303   9.939  11.686 -0.2131 -1.2873 -0.8877
65030SOL    HW2 6816   0.380   9.832  11.760  1.3069  0.5753  0.2917
65031SOL     OW 6817   5.428   8.071  12.987 -0.2087 -0.0782 -0.2229
65031SOL    HW1 6818   5.454   7.981  12.966  0.4976 -0.0447  0.4654
65031SOL    HW2 6819   5.422   8.073  13.083  2.6252  1.3197  0.0412
65032SOL     OW 6820   0.062   3.680   9.925 -0.9810  0.1573  0.4296
65032SOL    HW1 6821   0.114   3.735   9.984 -0.7906 -0.2944  0.6865
65032SOL    HW2 6822   0.076   3.591   9.957 -1.7916  0.0175  0.4023
65033SOL     OW 6823   1.817   0.968   3.199 -0.1989  0.0494 -0.2534
65033SOL    HW1 6824   1.731   1.008   3.187 -0.0807  0.5427  0.5094
65033SOL    HW2 6825   1.816   0.893   3.139 -0.4945  1.0586 -1.5693
65034SOL     OW 6826  12.512   2.888   4.382  0.0804 -0.2214  0.3523
65034SOL    HW1 6827  12.523   2.796   4.406  0.0506  0.0252  1.3451
65034SOL    HW2 6828  12.420   2.897   4.360 -0.0748 -0.2780  0.9648
65035SOL     OW 6829  12.674   2.600  11.242 -0.3099  0.3043 -0.0247
65035SOL    HW1 6830  12.688   2.627  11.152 -0.3167 -1.4417 -0.5786
65035SOL    HW2 6831  12.744   2.642  11.291  0.8596 -0.2583 -1.1594
65036SOL     OW 6832  12.254   8.099   7.528 -0.4537  0.4047  0.4304
65036SOL    HW1 6833  12.304   8.140   7.457  3.2565 -2.0674  1.3316
65036SOL    HW2 6834  12.226   8.173   7.582  2.7698  2.0798  0.0911
65037SOL     OW 6835   0.964   5.905   7.795  0.1515  0.0113 -0.4650
65037SOL    HW1 6836   1.048   5.861   7.783  0.6673  0.6195  0.6738
65037SOL    HW2 6837   0.985   5.998   7.786 -0.1766  0.2327  0.8603
65038SOL     OW 6838   8.081   3.839   3.090  0.0105 -0.2501 -0.4515
65038SOL    HW1 6839   8.147   3.843   3.020  0.1264 -0.4409 -0.3575
65038SOL    HW2 6840   8.042   3.752   3.080 -0.1330 -0.1877 -0.4237
65039SOL     OW 6841   8.867   3.269  12.252 -0.3418 -0.0505 -0.2915
65039SOL    HW1 6842   8.811   3.293  12.326  0.2795 -0.3322  0.2762
65039SOL    HW2 6843   8.809   3.273  12.176 -1.1853 -0.5078  0.3113
65040SOL     OW 6844   8.115   7.134  12.675 -0.7737  0.5780 -0.2606
65040SOL    HW1 6845   8.105   7.215  12.626  0.5048 -1.1870 -3.7970
65040SOL    HW2 6846   8.197   7.097  12.644 -1.6447 -2.4213  0.6439
65041SOL     OW 6847   9.198   2.302  12.721  0.4387 -0.1724 -0.2471
65041SOL    HW1 6848   9.147   2.281  12.642 -1.9715  0.3884  1.0738
65041SOL    HW2 6849   9.288   2.309  12.689 -0.3536 -0.5421 -2.8461
65042SOL     OW 6850  11.875   7.460  13.602 -0.3924 -0.2850  0.5176
65042SOL    HW1 6851  11.892   7.508  13.683  1.3590  1.0113 -0.5461
65042SOL    HW2 6852  11.845   7.527  13.540  1.5562 -0.5870 -0.8371
65043SOL     OW 6853   1.996  10.689  13.726  0.2886  0.1563  0.4711
65043SOL    HW1 6854   1.961  10.639  13.799 -1.3208  0.4547 -0.0461
65043SOL    HW2 6855   1.993  10.780  13.755 -0.7945  0.3228 -0.0973
65044SOL     OW 6856   2.540  12.691   1.525 -0.4009  0.5622  0.1287
65044SOL    HW1 6857   2.447  12.668   1.517 -0.5350  1.2232 -0.2850
65044SOL    HW2 6858   2.561  12.671   1.616 -1.1099  0.9428  0.3929
65045SOL     OW 6859  12.320   7.784  10.280  0.1201  0.5668 -0.2792
65045SOL    HW1 6860  12.323   7.863  10.227  1.4917  0.3261 -0.5971
65045SOL    HW2 6861  12.392   7.731  10.248 -0.9210 -0.9383 -0.2344
65046SOL     OW 6862   1.319   9.671   7.753  0.4652  0.3612 -0.8789
65046SOL    HW1 6863   1.302   9.721   7.833 -0.1660 -1.0531 -0.0882
65046SOL    HW2 6864   1.232   9.656   7.715  0.7244  0.6250 -1.5939
65047SOL     OW 6865  10.154  12.984   3.102  0.3033 -0.2973  0.1294
65047SOL    HW1 6866  10.093  12.947   3.039 -1.2617  0.0773  1.3502
65047SOL    HW2 6867  10.098  13.026   3.168  1.8354 -0.7312  1.8067
65048SOL     OW 6868   8.809   5.690   6.044  0.5736 -0.2890  0.6643
65048SOL    HW1 6869   8.895   5.708   6.081  0.3801  1.0337  0.5239
65048SOL    HW2 6870   8.822   5.615   5.985  1.3263 -0.9898  1.6885
65049SOL     OW 6871   6.640   2.094   3.958 -0.1001  0.2074 -0.0154
65049SOL    HW1 6872   6.617   2.002   3.943 -2.0022  0.6664 -0.1187
65049SOL    HW2 6873   6.582   2.123   4.029 -0.2668  1.6117 -0.6895
65050SOL     OW 6874   3.248  13.030   8.936  0.2438 -0.0332 -0.3004
65050SOL    HW1 6875   3.246  12.979   9.018 -0.1070 -0.0891 -0.3383
65050SOL    HW2 6876   3.157  13.060   8.925  0.0086 -1.0492 -1.3021
65051SOL     OW 6877   7.628   0.046  12.887  0.0831  0.5060  0.4767
65051SOL    HW1 6878   7.570   0.100  12.941  0.3560  0.8430  0.4358
65051SOL    HW2 6879   7.676  -0.007  12.950 -0.3283  0.1609  0.5076
65052SOL     OW 6880  10.609   6.579  11.359 -0.2145 -0.0756  0.2180
65052SOL    HW1 6881  10.700   6.591  11.333 -0.8180  1.7916 -1.3004
65052SOL    HW2 6882  10.567   6.539  11.282 -1.5100  3.1650 -0.9353
65053SOL     OW 6883   3.433   7.938  13.226  0.4620  0.0723 -0.5013
65053SOL    HW1 6884   3.504   7.964  13.285  0.1267 -0.9418  0.3814
65053SOL    HW2 6885   3.423   7.844  13.241 -2.3482  0.4708  0.8649
65054SOL     OW 6886  12.866  10.286  10.894  0.4090  0.4308 -0.2173
65054SOL    HW1 6887  12.874  10.196  10.927  0.7061  0.7276  0.5501
65054SOL    HW2 6888  12.809  10.330  10.958  0.9442  1.0053 -0.1251
65055SOL     OW 6889   7.680   2.520   7.732  0.0424 -0.3964 -0.2417
65055SOL    HW1 6890   7.739   2.513   7.807 -0.0922 -0.2023 -0.1163
65055SOL    HW2 6891   7.616   2.586   7.758 -0.9344 -1.4304  0.0997
65056SOL     OW 6892  10.842   1.938  11.606  0.3109  0.4867 -0.0294
65056SOL    HW1 6893  10.762   1.976  11.643  0.0426 -0.8888  0.8787
65056SOL    HW2 6894  10.816   1.911  11.518 -0.3011 -0.1404  0.3321
65057SOL     OW 6895   1.962   9.315   8.025  0.1131 -0.4532  0.4005
65057SOL    HW1 6896   1.896   9.300   8.093  1.3661 -1.1655  1.5129
65057SOL    HW2 6897   1.917   9.296   7.943 -1.4109  0.2882  1.0143
65058SOL     OW 6898  11.000   4.188   7.726  0.1389 -0.1599  0.1727
65058SOL    HW1 6899  11.017   4.265   7.672 -0.6375 -0.2430 -0.2067
65058SOL    HW2 6900  10.954   4.222   7.802  1.4644 -0.0075  0.9292
65059SOL     OW 6901  11.764   0.429   1.444  0.7939 -0.2300  0.0011
65059SOL    HW1 6902  11.802   0.480   1.516  1.5276 -0.2097 -0.3876
65059SOL    HW2 6903  11.837   0.417   1.383 -0.2351  1.3803 -1.6495
65060SOL     OW 6904   4.592   1.954   2.003 -0.5022 -0.4551 -0.3463
65060SOL    HW1 6905   4.656   1.925   1.938 -0.0716 -0.5308  0.1063
65060SOL    HW2 6906   4.521   1.890   1.997  0.6847 -1.9942  1.0372
65061SOL     OW 6907   6.091   2.737  10.656 -0.3784 -0.1826 -0.3912
65061SOL    HW1 6908   6.018   2.741  10.595 -1.7312 -1.6326  1.0491
65061SOL    HW2 6909   6.166   2.711  10.602 -1.2996 -0.3966 -1.6059
65062SOL     OW 6910   7.271   4.349   1.729 -0.0516 -0.0672  0.1093
65062SOL    HW1 6911   7.318   4.334   1.646 -0.9089 -2.2836 -0.0356
65062SOL    HW2 6912   7.213   4.423   1.710 -0.9345 -1.1249 -1.6359
65063SOL     OW 6913  12.700   0.114  12.756  0.3545 -0.1347 -0.0857
65063SOL    HW1 6914  12.740   0.031  12.730 -2.7095 -2.6581  2.3504
65063SOL    HW2 6915  12.711   0.118  12.851 -0.3580  1.8311 -0.0299
65064SOL     OW 6916   7.439   8.771  12.775 -0.2589 -0.2428  0.6787
65064SOL    HW1 6917   7.387   8.739  12.849  0.1160 -0.2130  0.9595
65064SOL    HW2 6918   7.530   8.762  12.804 -0.1249  0.3015  0.4384
65065SOL     OW 6919   4.014   4.512   5.164  0.5827 -1.2281 -0.5164
65065SOL    HW1 6920   3.942   4.550   5.114  1.7721  0.2581 -1.1500
65065SOL    HW2 6921   4.082   4.494   5.099  1.6792 -0.4191  0.3846
65066SOL     OW 6922   7.526  13.469   5.645  0.4186 -0.5176  0.1415
65066SOL    HW1 6923   7.559  13.434   5.562  2.1678 -0.4394  0.7718
65066SOL    HW2 6924   7.478  13.397   5.685 -1.3790 -0.2466 -1.3894
65067SOL     OW 6925  12.592   4.484   3.232  0.4317 -0.1483  0.0418
65067SOL    HW1 6926  12.602   4.572   3.194 -0.2655 -1.3148 -3.1789
65067SOL    HW2 6927  12.551   4.499   3.317 -0.7955  2.5978 -0.9072
65068SOL     OW 6928   2.731   5.934   6.728  0.5257 -0.3449 -0.0178
65068SOL    HW1 6929   2.728   5.891   6.642  0.2153  0.9242 -0.6606
65068SOL    HW2 6930   2.806   5.994   6.722 -0.2582  0.6615  0.1455
65069SOL     OW 6931   1.874   9.710   7.009  0.6254  0.1179 -0.8808
65069SOL    HW1 6932   1.789   9.748   7.031  1.3152  1.8518 -1.0177
65069SOL    HW2 6933   1.877   9.628   7.058 -1.2958 -0.2207 -1.2436
65070SOL     OW 6934  11.897   7.342   9.995 -0.2860  0.9809  0.7538
65070SOL    HW1 6935  11.871   7.430   9.969  1.8192  1.1048 -1.2520
65070SOL    HW2 6936  11.993   7.344   9.994 -0.1720 -1.1411  1.4288
65071SOL     OW 6937   3.633   6.168  11.074 -0.4836 -0.0500  0.9907
65071SOL    HW1 6938   3.712   6.117  11.092 -0.0988  0.4296  0.7056
65071SOL    HW2 6939   3.585   6.115  11.010  1.3770  1.2646 -1.6651
65072SOL     OW 6940  11.687   1.139   7.238  0.3249  0.6358 -0.1852
65072SOL    HW1 6941  11.681   1.086   7.158  1.0204  2.0966 -1.2626
65072SOL    HW2 6942  11.597   1.143   7.270  0.2617 -1.2201 -0.0191
65073SOL     OW 6943   0.449   2.632  12.967  0.1228 -0.0852 -0.1209
65073SOL    HW1 6944   0.388   2.681  12.912  1.1771  1.7714  0.2823
65073SOL    HW2 6945   0.521   2.608  12.908 -0.1972 -0.8340 -0.2227
65074SOL     OW 6946  12.864  12.898   4.679 -0.5173 -0.0323 -0.1142
65074SOL    HW1 6947  12.805  12.971   4.662  0.0289  0.3212 -0.5349
65074SOL    HW2 6948  12.925  12.931   4.745 -0.0829 -0.0046 -0.5275
65075SOL     OW 6949   2.579   6.832   7.404  0.3688  0.1836  0.5661
65075SOL    HW1 6950   2.643   6.872   7.464 -0.5313 -0.4938  2.0245
65075SOL    HW2 6951   2.508   6.896   7.398 -1.2641 -1.2311  3.2258
65076SOL     OW 6952   5.871   9.407   0.630  0.0156  0.0710  0.3540
65076SOL    HW1 6953   5.820   9.447   0.700 -1.7227 -0.5039 -0.5419
65076SOL    HW2 6954   5.901   9.480   0.577  0.5848  0.4468  1.1797
65077SOL     OW 6955   4.600   5.764   5.244 -0.6563  0.3817 -0.5447
65077SOL    HW1 6956   4.515   5.730   5.214 -0.8589 -0.6833  1.0799
65077SOL    HW2 6957   4.585   5.786   5.336  0.5950  1.0785 -0.4884
65078SOL     OW 6958  11.616   4.885  11.169  0.0197 -0.1380  0.1854
65078SOL    HW1 6959  11.618   4.973  11.206 -0.0158 -0.0358 -0.0563
65078SOL    HW2 6960  11.676   4.834  11.224  3.8153  1.1021 -2.3914
65079SOL     OW 6961   9.093  11.652   2.836 -0.2549  0.4082  0.2683
65079SOL    HW1 6962   9.115  11.717   2.902 -2.3848  1.9417 -0.4057
65079SOL    HW2 6963   9.130  11.686   2.755  0.1728 -0.1757  0.2086
65080SOL     OW 6964   8.837  10.509   3.335 -0.1736 -0.4245 -0.5905
65080SOL    HW1 6965   8.923  10.479   3.362 -0.6006 -0.3383  1.0013
65080SOL    HW2 6966   8.782  10.431   3.338 -1.3585  0.3151  3.8721
65081SOL     OW 6967   9.068   5.074   0.592 -0.4311 -0.2420 -0.0343
65081SOL    HW1 6968   9.136   5.118   0.541  0.1157 -0.0312  0.8675
65081SOL    HW2 6969   9.039   5.002   0.535  0.6324 -0.4180 -0.3832
65082SOL     OW 6970  11.921   9.797  13.044 -0.0653  0.8355  0.0109
65082SOL    HW1 6971  11.938   9.732  12.976 -0.8782  1.2490 -0.5967
65082SOL    HW2 6972  11.953   9.879  13.007 -0.7409  1.1062  0.0231
65083SOL     OW 6973  11.261  12.582   3.677 -0.2167 -0.4142  0.1646
65083SOL    HW1 6974  11.303  12.619   3.754  1.9648  1.1496 -1.6584
65083SOL    HW2 6975  11.317  12.510   3.651 -0.3539 -0.2672 -0.5514
65084SOL     OW 6976   2.057  13.379   0.153  0.0397  0.2616  0.5076
65084SOL    HW1 6977   1.970  13.339   0.149  0.1231  0.1484 -1.4539
65084SOL    HW2 6978   2.117  13.305   0.167 -0.0397  0.0265 -0.2999
65085SOL     OW 6979   9.434   4.578   7.738  0.0066  0.3526 -0.2216
65085SOL    HW1 6980   9.481   4.603   7.818 -0.2910 -0.8171  0.3340
65085SOL    HW2 6981   9.467   4.639   7.671  1.1643  0.5627  0.5083
65086SOL     OW 6982   7.227  13.159   0.556  0.1275  0.2243  0.3066
65086SOL    HW1 6983   7.297  13.094   0.563 -0.7786 -0.9574 -1.1338
65086SOL    HW2 6984   7.147  13.110   0.575 -0.5377  1.0307 -0.3496
65087SOL     OW 6985  12.326   1.711  10.433  0.5589  0.8076 -0.0642
65087SOL    HW1 6986  12.286   1.717  10.520  0.7750  1.9540 -0.0211
65087SOL    HW2 6987  12.340   1.618  10.419  2.0033  0.6678  1.8429
65088SOL     OW 6988   1.220   2.901   7.200 -0.1119 -0.2627  0.0721
65088SOL    HW1 6989   1.276   2.827   7.178 -1.6609 -2.0450  1.7855
65088SOL    HW2 6990   1.281   2.969   7.229  1.3838 -0.6037 -2.0005
65089SOL     OW 6991   2.204  10.540   5.987 -0.4950 -0.9312 -0.1727
65089SOL    HW1 6992   2.180  10.621   6.031 -1.1970 -0.6613 -1.0236
65089SOL    HW2 6993   2.292  10.521   6.018 -0.0133  0.5804 -0.5663
65090SOL     OW 6994  10.970   6.038  11.361  0.1014 -0.0768  0.2511
65090SOL    HW1 6995  11.053   6.006  11.398 -0.3089 -0.9229  0.4828
65090SOL    HW2 6996  10.940   5.966  11.306 -0.6193  0.1095  0.3969
65091SOL     OW 6997   8.731   2.097  12.047 -0.3622 -0.0146  0.0196
65091SOL    HW1 6998   8.642   2.117  12.076  0.2672  0.1558  1.9648
65091SOL    HW2 6999   8.723   2.014  12.000 -1.1249 -1.7083  2.9512
65092SOL     OW 7000   4.517   4.387   7.495  0.0828  0.0166 -0.0819
65092SOL    HW1 7001   4.522   4.384   7.400 -2.0085 -0.0634 -0.2360
65092SOL    HW2 7002   4.608   4.380   7.524  0.9494  1.7638 -2.0803
65093SOL     OW 7003  13.655   3.488  13.487 -0.0998 -0.6252 -0.0617
65093SOL    HW1 7004  13.676   3.402  13.450  0.3231  0.0354 -1.4255
65093SOL    HW2 7005  13.619   3.537  13.414 -0.4816  0.3157  0.7437
65094SOL     OW 7006   8.818  11.733   6.323 -0.2757  0.1591  0.5035
65094SOL    HW1 7007   8.748  11.683   6.279  1.1482 -0.5488 -1.0683
65094SOL    HW2 7008   8.794  11.824   6.310 -0.7389 -0.0721 -0.3387
65095SOL     OW 7009   7.435  11.699   6.080  0.5921 -0.3341 -0.0094
65095SOL    HW1 7010   7.359  11.645   6.061  1.1609 -0.8522 -0.8585
65095SOL    HW2 7011   7.436  11.765   6.010  1.5619 -1.0286 -0.6708
65096SOL     OW 7012   3.813   3.952   6.551 -0.7025  0.1928  0.4985
65096SOL    HW1 7013   3.852   3.932   6.466 -1.8053  0.5152 -0.1047
65096SOL    HW2 7014   3.803   4.047   6.551 -0.3638  0.2290  1.1472
65097SOL     OW 7015  11.114   8.257   5.734 -0.4380 -0.2282 -0.7695
65097SOL    HW1 7016  11.080   8.326   5.791  0.4387 -1.5464  1.4732
65097SOL    HW2 7017  11.043   8.192   5.730 -0.1692 -0.5514 -0.4072
65098SOL     OW 7018  11.767   6.979   2.676  0.5249 -0.3372  0.4952
65098SOL    HW1 7019  11.779   7.049   2.612 -0.8765 -1.0157 -0.5620
65098SOL    HW2 7020  11.856   6.952   2.698  1.0907 -1.0340 -2.2683
65099SOL     OW 7021   9.527   7.552   2.066 -0.2636  0.0444  0.5310
65099SOL    HW1 7022   9.558   7.487   2.129 -0.5746  0.9965  1.6977
65099SOL    HW2 7023   9.559   7.635   2.100 -0.9622  0.6462 -0.2527
65100SOL     OW 7024  11.672   4.587   2.478  0.3269  0.9526 -0.2362
65100SOL    HW1 7025  11.728   4.613   2.406  1.4890  0.9268  0.6338
65100SOL    HW2 7026  11.594   4.642   2.469  0.4464  0.9345 -1.4986
65101SOL     OW 7027   0.382  12.464   1.894  0.4874  0.1800 -0.3507
65101SOL    HW1 7028   0.320  12.500   1.830  0.7253 -0.7123 -1.0914
65101SOL    HW2 7029   0.342  12.485   1.979 -1.5259 -1.4316 -0.7883
65102SOL     OW 7030   9.427   4.963   0.668  0.1837  0.2084 -0.6938
65102SOL    HW1 7031   9.392   4.953   0.757  1.0358  1.4712 -0.1906
65102SOL    HW2 7032   9.379   4.898   0.616  0.1578 -1.0312  0.8075
65103SOL     OW 7033   3.376  11.991  10.320 -0.0870  0.0089 -0.4224
65103SOL    HW1 7034   3.462  11.973  10.281  1.1106 -1.8602  2.6723
65103SOL    HW2 7035   3.331  11.907  10.320 -0.5944  0.2456  0.8140
65104SOL     OW 7036  12.809   0.909  12.080 -0.3820  0.3617 -0.0328
65104SOL    HW1 7037  12.814   0.990  12.132 -0.0093  0.9265 -0.9298
65104SOL    HW2 7038  12.835   0.935  11.992  0.5423 -0.9140 -0.1625
65105SOL     OW 7039   3.734   8.595   6.655  0.6089 -0.1111  0.0198
65105SOL    HW1 7040   3.732   8.569   6.747 -1.8433  0.4237  0.1767
65105SOL    HW2 7041   3.689   8.679   6.653 -0.0789 -0.4796 -1.7809
65106SOL     OW 7042   1.128  11.237  10.322 -0.1005 -0.1222  0.2219
65106SOL    HW1 7043   1.141  11.142  10.323 -1.1233 -0.2814 -0.1681
65106SOL    HW2 7044   1.213  11.273  10.298  0.6275 -0.8658  1.5584
65107SOL     OW 7045  11.490   5.828   7.503  0.1057 -0.1639 -0.0104
65107SOL    HW1 7046  11.470   5.767   7.432  0.7956 -1.5923  0.9561
65107SOL    HW2 7047  11.573   5.868   7.477 -0.0499 -0.0783 -0.3782
65108SOL     OW 7048  10.324   5.880   4.309 -0.1083  0.4967  0.0974
65108SOL    HW1 7049  10.272   5.943   4.359  0.6615  0.0721  1.4686
65108SOL    HW2 7050  10.366   5.825   4.375 -0.6705 -1.4060 -1.0526
65109SOL     OW 7051   0.504   0.207  11.127  0.3708  0.0592  0.2235
65109SOL    HW1 7052   0.561   0.224  11.202 -0.9191 -1.1235  1.5120
65109SOL    HW2 7053   0.415   0.213  11.162 -0.3612  1.6889 -1.6973
65110SOL     OW 7054   9.100   8.241   1.454  0.2416 -0.5876  0.0435
65110SOL    HW1 7055   9.049   8.164   1.432 -1.7096  0.1348  1.7420
65110SOL    HW2 7056   9.097   8.246   1.550  2.5543  0.1677  0.1456
65111SOL     OW 7057   1.524   4.805   0.242  1.0534 -0.1552  0.2879
65111SOL    HW1 7058   1.544   4.801   0.148  1.0499 -0.0804  0.2839
65111SOL    HW2 7059   1.504   4.714   0.266  1.8504 -0.3083  0.3936
65112SOL     OW 7060  10.621   6.901   2.086  0.0847  0.0292 -0.1991
65112SOL    HW1 7061  10.588   6.970   2.028 -1.5068 -0.1613  0.4315
65112SOL    HW2 7062  10.689   6.858   2.036 -1.4181 -0.3034 -2.0585
65113SOL     OW 7063   4.315  12.378   2.480 -0.6368 -0.8112  0.2677
65113SOL    HW1 7064   4.306  12.283   2.476  0.5349 -1.0585  2.1539
65113SOL    HW2 7065   4.341  12.404   2.391 -2.4980 -2.0264 -0.6662
65114SOL     OW 7066  10.747   6.631  13.365 -0.7101 -0.1670 -0.0692
65114SOL    HW1 7067  10.698   6.713  13.373 -0.0154  0.1745  0.9432
65114SOL    HW2 7068  10.729   6.585  13.447  1.7686  0.6302  1.0345
65115SOL     OW 7069   9.051   1.479   0.707  0.2458 -0.3380 -0.3723
65115SOL    HW1 7070   9.138   1.448   0.684  0.6119 -1.4401  2.1778
65115SOL    HW2 7071   8.994   1.402   0.696 -0.0536 -0.1325 -0.2790
65116SOL     OW 7072  12.573   8.742   1.614 -0.4890  0.1299 -0.1180
65116SOL    HW1 7073  12.589   8.799   1.538  0.0576  0.7261  0.4334
65116SOL    HW2 7074  12.537   8.801   1.680  0.0612 -0.1774  0.4543
65117SOL     OW 7075  11.590   3.139   4.165  0.3352  0.1669  0.4252
65117SOL    HW1 7076  11.616   3.188   4.087 -0.2113  1.3908  0.9895
65117SOL    HW2 7077  11.495   3.131   4.158  0.5860 -3.3445 -1.0839
65118SOL     OW 7078   9.992   1.184  11.867 -0.0116 -0.3677  0.4538
65118SOL    HW1 7079  10.020   1.271  11.839 -1.2447  0.0299  0.4207
65118SOL    HW2 7080   9.897   1.189  11.872 -0.0179 -1.2838  1.9017
65119SOL     OW 7081   6.575   4.225   9.953 -0.0185 -1.0780 -0.9459
65119SOL    HW1 7082   6.575   4.171  10.032 -3.4075  0.1847  0.1050
65119SOL    HW2 7083   6.663   4.263   9.949  0.7257 -2.3883  1.3231
65120SOL     OW 7084   6.306  10.557   5.916 -0.4490  0.0302 -0.7924
65120SOL    HW1 7085   6.278  10.474   5.954 -0.6371 -0.0750 -1.1564
65120SOL    HW2 7086   6.303  10.619   5.989 -2.3567  0.1963 -0.9495
65121SOL     OW 7087   1.748  12.382  11.347 -0.1147 -0.0977  0.5618
65121SOL    HW1 7088   1.669  12.376  11.293  0.9109 -0.4702 -0.9518
65121SOL    HW2 7089   1.725  12.335  11.427 -2.5890  2.7534  1.7105
65122SOL     OW 7090   7.942   8.041   7.787  0.1769  0.4049  0.0336
65122SOL    HW1 7091   8.017   7.982   7.778 -0.0577 -0.3567  2.3619
65122SOL    HW2 7092   7.980   8.129   7.792  0.6420  0.3540 -1.8362
65123SOL     OW 7093   7.956  11.601  13.649 -0.0590  0.1839 -0.3265
65123SOL    HW1 7094   8.034  11.623  13.599 -0.1027 -0.7840 -0.8259
65123SOL    HW2 7095   7.948  11.673  13.713  0.3361  1.1169 -1.2963
65124SOL     OW 7096  12.174  11.732  11.454  0.4055  0.5102  0.4207
65124SOL    HW1 7097  12.088  11.707  11.486  1.0617 -1.6158  0.6747
65124SOL    HW2 7098  12.208  11.654  11.411  1.9999  1.4568 -0.1436
65125SOL     OW 7099  11.000   5.116  10.521 -0.9403 -0.1534 -0.0648
65125SOL    HW1 7100  11.020   5.209  10.513 -2.0321  0.1645  0.7539
65125SOL    HW2 7101  10.936   5.099  10.452  0.6545 -0.7592 -1.4731
65126SOL     OW 7102   2.652   1.640   5.561  0.1765  0.5559 -0.2377
65126SOL    HW1 7103   2.736   1.685   5.548  0.3316  0.4842  0.4715
65126SOL    HW2 7104   2.625   1.613   5.474  1.2243 -0.0191 -0.4000
65127SOL     OW 7105  13.486   4.080  10.689  0.1330 -0.2602 -0.1657
65127SOL    HW1 7106  13.478   4.005  10.748 -0.8014  0.5152  0.7446
65127SOL    HW2 7107  13.436   4.056  10.611  0.9782 -1.1057 -0.4666
65128SOL     OW 7108   4.882   6.951  10.945 -0.4145  0.1893 -0.2185
65128SOL    HW1 7109   4.809   6.944  11.007 -0.2393  1.9975  0.2533
65128SOL    HW2 7110   4.860   7.027  10.891  0.6781  0.1929 -0.6781
65129SOL     OW 7111   0.606   4.193  13.587 -0.1797  0.1156  0.3662
65129SOL    HW1 7112   0.628   4.119  13.644 -0.6983  0.3426  0.8696
65129SOL    HW2 7113   0.635   4.165  13.500  1.1381 -0.0050  0.8162
65130SOL     OW 7114   5.922   2.985  11.041 -0.2352 -0.1397  0.4215
65130SOL    HW1 7115   6.017   2.982  11.049  0.0071 -1.4395 -1.9134
65130SOL    HW2 7116   5.901   3.077  11.025  1.0690 -0.2556 -2.4833
65131SOL     OW 7117   9.117   8.211  12.104 -0.2878 -0.4510  0.5494
65131SOL    HW1 7118   9.070   8.165  12.035 -1.6472  0.3213  0.9336
65131SOL    HW2 7119   9.050   8.261  12.150  0.9128  0.7084  1.1012
65132SOL     OW 7120  13.426   9.371   8.634 -0.0140 -0.0524  0.1602
65132SOL    HW1 7121  13.451   9.291   8.588  2.3300  0.2131  0.7927
65132SOL    HW2 7122  13.466   9.361   8.721  1.2107  2.1721 -0.0604
65133SOL     OW 7123   6.236   0.533   5.996 -0.2000  0.1026  0.4370
65133SOL    HW1 7124   6.177   0.520   6.071 -0.6623 -0.4800 -0.0136
65133SOL    HW2 7125   6.182   0.515   5.919  0.4275  0.0828 -0.0115
65134SOL     OW 7126   1.282   5.584   0.073  0.5476  0.3065  0.2548
65134SOL    HW1 7127   1.258   5.667   0.115  2.7531  1.7624 -1.1260
65134SOL    HW2 7128   1.201   5.553   0.033 -0.3964  1.6465  1.0332
65135SOL     OW 7129   5.432   8.110  12.285  0.0915  0.1495 -0.0999
65135SOL    HW1 7130   5.419   8.020  12.255 -2.3775  0.6825 -0.9235
65135SOL    HW2 7131   5.376   8.117  12.363 -1.7871  1.5829 -1.4893
65136SOL     OW 7132   6.539  10.523   1.546  0.1864  0.0539  0.1047
65136SOL    HW1 7133   6.519  10.435   1.577 -1.8277 -0.2128 -1.7217
65136SOL    HW2 7134   6.601  10.558   1.611 -0.9295 -1.7397  2.2649
65137SOL     OW 7135   1.491   2.091  10.228  0.4822  0.8393 -0.2112
65137SOL    HW1 7136   1.530   2.099  10.141 -0.2554  1.2284 -0.5153
65137SOL    HW2 7137   1.518   2.005  10.258 -1.9305 -0.7523 -2.1973
65138SOL     OW 7138   4.768   6.868  11.586 -0.0591  0.5998 -0.6573
65138SOL    HW1 7139   4.738   6.834  11.502  1.3744 -0.7199 -0.6864
65138SOL    HW2 7140   4.728   6.809  11.651  0.4056  0.3914 -0.5532
65139SOL     OW 7141  11.914  11.222   8.316  0.0604 -0.5032 -0.4242
65139SOL    HW1 7142  11.968  11.146   8.295 -0.5202 -0.4079 -2.4898
65139SOL    HW2 7143  11.969  11.297   8.296  0.0437 -0.3755 -0.0134
65140SOL     OW 7144  13.219   4.113   3.398  0.3026  0.3521  0.5345
65140SOL    HW1 7145  13.307   4.083   3.417 -0.3873 -0.3149  3.0319
65140SOL    HW2 7146  13.185   4.050   3.334  1.2672 -0.0101  0.3701
65141SOL     OW 7147   1.758   9.394  10.598 -1.2869 -0.8835  0.8159
65141SOL    HW1 7148   1.703   9.324  10.633 -0.1002 -1.2712  1.9923
65141SOL    HW2 7149   1.763   9.458  10.668 -1.9489  0.1745 -0.0689
65142SOL     OW 7150   3.490   4.097  13.031 -0.5663  0.1954  0.2424
65142SOL    HW1 7151   3.498   4.058  12.944  0.9072 -0.2898  0.5668
65142SOL    HW2 7152   3.505   4.025  13.092 -0.1608  0.7927  0.8738
65143SOL     OW 7153   0.498  12.200   2.980  0.1338  0.3551  0.1848
65143SOL    HW1 7154   0.498  12.135   2.910  2.0979 -1.3511  1.6798
65143SOL    HW2 7155   0.418  12.182   3.030 -0.3267  0.4065 -0.5084
65144SOL     OW 7156   6.039   7.539  13.548  0.1774  0.3292 -0.3397
65144SOL    HW1 7157   5.995   7.484  13.483  1.5766  0.0670 -1.1048
65144SOL    HW2 7158   6.006   7.627  13.532 -3.2102 -0.3655  1.8332
65145SOL     OW 7159   4.392   8.369   5.420  0.4943  0.5110 -0.0277
65145SOL    HW1 7160   4.340   8.333   5.348 -0.6111 -1.5347  1.6664
65145SOL    HW2 7161   4.327   8.387   5.489  1.8620 -1.1257  1.7769
65146SOL     OW 7162   4.075   9.446   4.414  0.2234  0.1038  0.0291
65146SOL    HW1 7163   4.043   9.392   4.486 -0.1913  2.2546  1.5528
65146SOL    HW2 7164   4.164   9.471   4.440  0.0338  0.9794 -0.1128
65147SOL     OW 7165   9.196   9.144   0.469 -0.1076  0.1703  0.5630
65147SOL    HW1 7166   9.277   9.166   0.423  0.2050 -1.3324  0.3296
65147SOL    HW2 7167   9.150   9.227   0.478  1.2878  0.9912  0.3725
65148SOL     OW 7168   5.221   2.222   3.984 -0.2517  0.3136 -0.5707
65148SOL    HW1 7169   5.162   2.293   3.959 -1.5060 -0.6152 -0.3446
65148SOL    HW2 7170   5.178   2.142   3.953  0.5656 -0.4579  0.1907
65149SOL     OW 7171   5.419   2.266   5.706 -0.0452  0.2588 -0.1891
65149SOL    HW1 7172   5.415   2.335   5.772  0.2908  0.8274 -0.7489
65149SOL    HW2 7173   5.431   2.185   5.756 -3.2972  0.1933  0.7004
65150SOL     OW 7174  11.579   8.385   9.395 -0.0900 -0.3414 -0.0051
65150SOL    HW1 7175  11.611   8.299   9.422  0.8313  0.5103  1.7977
65150SOL    HW2 7176  11.647   8.446   9.425 -0.8243  1.0332 -1.0597
65151SOL     OW 7177   6.700   1.194   1.102 -0.0298 -0.3465 -0.5171
65151SOL    HW1 7178   6.659   1.253   1.165  2.6663  0.7746  0.3143
65151SOL    HW2 7179   6.626   1.152   1.057 -2.0342  1.1503  1.1861
65152SOL     OW 7180   3.143   9.325   3.359  0.3883 -0.2605  0.3991
65152SOL    HW1 7181   3.174   9.273   3.432 -0.4377 -1.4242 -0.0438
65152SOL    HW2 7182   3.170   9.415   3.379 -0.0795 -0.5096  2.2554
65153SOL     OW 7183   1.419  11.129   2.301 -0.3472  0.3402  0.0166
65153SOL    HW1 7184   1.441  11.042   2.267 -0.6193  0.1276  0.3863
65153SOL    HW2 7185   1.474  11.189   2.249 -2.0276  0.1960 -2.0591
65154SOL     OW 7186  10.309   0.289   4.335  0.1601 -0.4738 -0.0603
65154SOL    HW1 7187  10.294   0.355   4.267  0.2727  1.4655  1.6911
65154SOL    HW2 7188  10.310   0.206   4.288  2.3739  0.9101 -2.7317
65155SOL     OW 7189   2.973   8.511  12.334 -0.3110 -0.3649  0.7159
65155SOL    HW1 7190   2.944   8.591  12.293 -1.9427 -0.7265  1.1098
65155SOL    HW2 7191   3.034   8.472  12.271  0.2290  0.9919  0.3809
65156SOL     OW 7192   0.674   6.428   9.404  0.6434  0.2222  0.4120
65156SOL    HW1 7193   0.673   6.358   9.338  0.6246  1.8501 -1.3914
65156SOL    HW2 7194   0.751   6.480   9.382  0.1376  1.3009  1.1156
65157SOL     OW 7195   9.533   7.167  10.616  0.2284 -0.2563 -0.5360
65157SOL    HW1 7196   9.605   7.151  10.677  0.1750  1.2796 -0.0264
65157SOL    HW2 7197   9.477   7.090  10.625  0.1505 -0.0326  1.4888
65158SOL     OW 7198   8.883   8.416   1.178  0.0164 -0.0728 -0.1787
65158SOL    HW1 7199   8.815   8.384   1.237  0.3125  0.5038  0.4893
65158SOL    HW2 7200   8.836   8.455   1.104 -0.3552 -1.2335 -0.5786
65159SOL     OW 7201  12.892   1.154   4.232  0.5134  0.3100 -0.3393
65159SOL    HW1 7202  12.925   1.100   4.304 -2.2370 -0.9756  0.1186
65159SOL    HW2 7203  12.799   1.166   4.252  0.5310  3.4514 -1.6018
65160SOL     OW 7204  13.047   4.524   1.124  0.2014  0.8638 -0.6635
65160SOL    HW1 7205  13.105   4.517   1.199 -1.0738  0.7324  0.3550
65160SOL    HW2 7206  13.076   4.602   1.077 -0.2103  2.1313  1.0940
65161SOL     OW 7207  11.626   7.524   6.597  0.5838 -0.2070 -0.5210
65161SOL    HW1 7208  11.553   7.469   6.624  0.5685  0.9081  1.9316
65161SOL    HW2 7209  11.681   7.533   6.675  1.8516  1.2972 -1.5043
65162SOL     OW 7210  10.506   7.920   9.178 -0.0064  1.1349  0.2714
65162SOL    HW1 7211  10.544   7.898   9.093 -0.6252  0.6365  0.1136
65162SOL    HW2 7212  10.576   7.903   9.240 -0.4337 -1.4954  0.1805
65163SOL     OW 7213   6.757   5.980   9.935  0.1229 -0.0510 -0.4440
65163SOL    HW1 7214   6.747   5.948   9.845  0.4469 -1.3488 -0.0475
65163SOL    HW2 7215   6.668   5.997   9.965 -0.1268 -1.2839 -0.4451
65164SOL     OW 7216   7.191   5.362   5.519 -0.6852  0.7920  0.1801
65164SOL    HW1 7217   7.246   5.289   5.547  0.6013  1.6455 -0.0099
65164SOL    HW2 7218   7.193   5.423   5.593 -0.2383  1.4356 -0.3511
65165SOL     OW 7219   0.131   4.228   5.229 -0.0598 -0.2026 -0.3104
65165SOL    HW1 7220   0.209   4.282   5.239  0.1617 -0.8252  1.9505
65165SOL    HW2 7221   0.076   4.276   5.168  0.9550  1.5882  0.1193
65166SOL     OW 7222   1.060  10.252   6.959 -0.1288  0.4617 -0.1219
65166SOL    HW1 7223   1.133  10.308   6.934 -0.2146  0.8473  0.4892
65166SOL    HW2 7224   1.001  10.309   7.009  0.5406 -0.5182  1.9032
65167SOL     OW 7225   0.311   5.784   3.281  0.6418  0.1069 -0.0912
65167SOL    HW1 7226   0.272   5.867   3.254  1.6975  0.9729  0.9243
65167SOL    HW2 7227   0.340   5.744   3.199  1.3730  1.4072 -0.4988
65168SOL     OW 7228   3.896   4.057   5.939  0.1468 -0.1607 -0.3086
65168SOL    HW1 7229   3.980   4.043   5.894  0.2554 -0.0389 -0.1440
65168SOL    HW2 7230   3.896   3.991   6.009  0.9404  1.0254  0.8707
65169SOL     OW 7231   7.678   8.319   9.602 -0.2498 -0.1971 -0.5367
65169SOL    HW1 7232   7.680   8.355   9.691  0.4043 -1.6878  0.0844
65169SOL    HW2 7233   7.587   8.291   9.590 -0.3510  0.0494 -0.3577
65170SOL     OW 7234  12.268   0.871   0.073 -0.2714 -0.4255 -0.2617
65170SOL    HW1 7235  12.222   0.787   0.064 -0.6566 -0.2820  0.3363
65170SOL    HW2 7236  12.209   0.935   0.034  0.8471 -0.6624 -2.4871
65171SOL     OW 7237  12.221   0.972   3.837 -0.4302  0.2945 -0.0604
65171SOL    HW1 7238  12.284   0.938   3.774 -0.5916 -0.1755  0.0296
65171SOL    HW2 7239  12.275   1.013   3.906 -0.2664  2.1903 -1.2363
65172SOL     OW 7240   3.023   5.183   7.503  0.0801 -0.3703  0.0125
65172SOL    HW1 7241   3.045   5.202   7.412 -1.1808 -0.3678 -0.3133
65172SOL    HW2 7242   3.086   5.115   7.529 -0.8943 -1.9772 -1.5655
65173SOL     OW 7243  10.460  12.181   0.277  0.4869  0.0755  0.0247
65173SOL    HW1 7244  10.492  12.131   0.352  0.9373  1.6735  0.9505
65173SOL    HW2 7245  10.475  12.124   0.202  2.0329 -0.7232  0.8901
65174SOL     OW 7246  10.223   8.416  12.258 -0.6193 -0.4393 -0.0274
65174SOL    HW1 7247  10.283   8.491  12.254 -0.8314  0.0376  2.9503
65174SOL    HW2 7248  10.152   8.438  12.199  0.7734  0.2778 -1.5030
65175SOL     OW 7249   2.434  11.498   7.284  0.0865 -0.0452  0.1677
65175SOL    HW1 7250   2.446  11.415   7.330 -0.8909 -0.6136 -0.5747
65175SOL    HW2 7251   2.341  11.518   7.294  0.5071  1.5738  1.3331
65176SOL     OW 7252   4.932  12.995  10.214  0.2079  0.3237 -0.0735
65176SOL    HW1 7253   4.906  12.932  10.281  0.5706  0.3714  0.1185
65176SOL    HW2 7254   4.851  13.034  10.184  0.0083  0.0058  0.0474
65177SOL     OW 7255   8.227   0.869   6.667 -0.1315 -0.4114 -0.3990
65177SOL    HW1 7256   8.196   0.876   6.576  0.0761  1.7188 -0.3666
65177SOL    HW2 7257   8.301   0.930   6.671 -1.8990  1.8022  1.8626
65178SOL     OW 7258   2.636  12.646   2.132  0.4353 -0.2363  0.2468
65178SOL    HW1 7259   2.622  12.562   2.088 -0.1630  0.3995 -0.7925
65178SOL    HW2 7260   2.603  12.631   2.221 -1.2986 -0.6034 -0.4180
65179SOL     OW 7261   3.027   9.103  13.036 -0.8420  0.1898  0.3202
65179SOL    HW1 7262   3.083   9.084  12.961 -0.2886  0.8627  0.5429
65179SOL    HW2 7263   3.020   9.199  13.037 -0.9997  0.1804  1.0095
65180SOL     OW 7264  12.782   5.125  12.336 -0.3356  0.5455 -0.0992
65180SOL    HW1 7265  12.857   5.080  12.373  0.2722  1.1571 -0.5463
65180SOL    HW2 7266  12.760   5.075  12.257 -0.5843  0.2039  0.1832
65181SOL     OW 7267   8.863   5.402   8.947  0.5037 -0.4205 -0.2789
65181SOL    HW1 7268   8.828   5.392   8.859  2.1834 -1.1610 -0.9074
65181SOL    HW2 7269   8.955   5.376   8.940  1.6905  2.9269  0.9472
65182SOL     OW 7270   4.313   7.982  11.207  0.6092 -0.0573 -0.4353
65182SOL    HW1 7271   4.331   7.915  11.142  1.5023  0.2679 -0.5364
65182SOL    HW2 7272   4.325   7.937  11.291  1.3671  0.0084 -0.5022
65183SOL     OW 7273   4.077   6.653   9.174  0.0300  0.1197 -0.4864
65183SOL    HW1 7274   4.131   6.577   9.155 -1.0598 -0.6958 -0.4174
65183SOL    HW2 7275   4.108   6.685   9.258  1.8998  1.0467 -1.4674
65184SOL     OW 7276   3.175  13.597   6.023  0.2855 -0.3208 -0.4801
65184SOL    HW1 7277   3.086  13.615   6.053  1.4624  3.4088  1.3738
65184SOL    HW2 7278   3.196  13.510   6.059 -1.2790  0.4140  2.4734
65185SOL     OW 7279  11.641  13.512   0.734  0.2611  0.4473  0.1183
65185SOL    HW1 7280  11.703  13.516   0.806  1.6495 -0.7858 -0.9544
65185SOL    HW2 7281  11.691  13.538   0.657 -0.6931 -0.0438 -0.6939
65186SOL     OW 7282   8.509   4.578   8.929  0.1347 -0.1351  0.3071
65186SOL    HW1 7283   8.488   4.529   8.849 -0.5304 -0.8810  0.9336
65186SOL    HW2 7284   8.583   4.633   8.903 -0.0829 -0.3441 -0.8344
65187SOL     OW 7285   8.393   7.498   6.439  0.2057 -0.0262 -0.1799
65187SOL    HW1 7286   8.349   7.530   6.360  0.0704  0.1038 -0.0511
65187SOL    HW2 7287   8.445   7.423   6.408 -0.2336 -0.2863 -0.2979
65188SOL     OW 7288  13.034  13.008  13.722 -0.2277  0.2850  0.5156
65188SOL    HW1 7289  13.037  13.098  13.756 -1.1701  0.3073  0.5710
65188SOL    HW2 7290  13.087  12.957  13.783  0.2182  0.7842  0.5500
65189SOL     OW 7291   5.447   8.167  13.601 -0.1270 -0.0178 -0.1478
65189SOL    HW1 7292   5.519   8.184  13.540  0.2244 -1.7283 -0.2834
65189SOL    HW2 7293   5.491   8.149  13.685 -0.1976 -2.6700 -0.5880
65190SOL     OW 7294  10.899   8.784   7.602 -0.1458 -0.3455 -0.3750
65190SOL    HW1 7295  10.959   8.778   7.528 -1.2483 -1.8801 -1.1825
65190SOL    HW2 7296  10.900   8.696   7.641  0.0249  0.2945  1.1310
65191SOL     OW 7297   7.919   5.805   0.847  0.8262 -0.1243 -0.0594
65191SOL    HW1 7298   7.959   5.821   0.761  1.7538  1.8992  0.6984
65191SOL    HW2 7299   7.876   5.720   0.837  1.5120 -0.2840 -2.3022
65192SOL     OW 7300   8.685   0.615   8.422  0.1696  0.4639  0.3627
65192SOL    HW1 7301   8.683   0.693   8.477 -0.1500  1.7262 -1.3769
65192SOL    HW2 7302   8.744   0.637   8.351 -0.0544 -0.8274 -0.2493
65193SOL     OW 7303   5.322  13.259   4.829 -0.0059 -0.1499  0.1197
65193SOL    HW1 7304   5.290  13.219   4.748  0.1649 -0.2848  0.1180
65193SOL    HW2 7305   5.373  13.190   4.871  1.0149  0.3382 -0.3006
65194SOL     OW 7306  13.092   1.572  11.486 -0.1242  0.1310  0.2632
65194SOL    HW1 7307  13.144   1.505  11.530 -0.3324 -0.9287 -1.0300
65194SOL    HW2 7308  13.033   1.523  11.429 -2.5835  1.3127  1.6742
65195SOL     OW 7309   1.052   8.436   3.730  0.0785  0.5810  0.0804
65195SOL    HW1 7310   1.080   8.525   3.708  0.0559  0.6667  0.3960
65195SOL    HW2 7311   1.094   8.418   3.814  0.2023  0.2355 -0.0538
65196SOL     OW 7312   8.486   6.606   6.455 -0.1293  0.1696  0.2110
65196SOL    HW1 7313   8.392   6.594   6.440 -0.9009  3.4202  1.5869
65196SOL    HW2 7314   8.523   6.519   6.442 -3.1057 -0.9976 -1.6798
65197SOL     OW 7315   8.833   2.333   7.846 -0.2707  1.0994  0.1552
65197SOL    HW1 7316   8.928   2.332   7.856 -0.4055 -0.5444  2.0515
65197SOL    HW2 7317   8.818   2.301   7.758  0.9180  2.3823 -0.5646
65198SOL     OW 7318   8.282   2.117   1.053 -0.1715 -0.6314 -0.0439
65198SOL    HW1 7319   8.281   2.210   1.072  0.2994 -0.6461  0.0648
65198SOL    HW2 7320   8.295   2.075   1.138 -0.6750 -0.8128 -0.0510
65199SOL     OW 7321   7.723   3.788   1.622 -0.3822 -0.2676  0.1326
65199SOL    HW1 7322   7.701   3.861   1.681  0.9130 -0.9327  1.5027
65199SOL    HW2 7323   7.762   3.831   1.546  1.7877  0.5026  1.5591
65200SOL     OW 7324   2.699   3.571   8.959 -0.0717  0.3885  0.1233
65200SOL    HW1 7325   2.634   3.641   8.957 -0.9411 -0.2995  1.8433
65200SOL    HW2 7326   2.768   3.601   8.901 -1.9037  1.1642 -1.8164
65201SOL     OW 7327   3.178   9.523   9.089 -0.3851  0.3901 -0.2914
65201SOL    HW1 7328   3.265   9.563   9.088  0.1003 -0.6349 -0.4018
65201SOL    HW2 7329   3.133   9.565   9.163  0.2589  0.8006 -0.1227
65202SOL     OW 7330   6.872   5.456   9.777 -0.1920 -0.4597 -0.2613
65202SOL    HW1 7331   6.792   5.486   9.734 -0.8911  0.5702  1.6334
65202SOL    HW2 7332   6.899   5.530   9.832  0.3242 -1.8598  1.4837
65203SOL     OW 7333   7.478   6.503   7.177  0.2252 -0.2861 -0.3063
65203SOL    HW1 7334   7.409   6.460   7.228 -0.3551 -1.7455 -2.1919
65203SOL    HW2 7335   7.478   6.593   7.207 -1.1187 -0.7308  1.1684
65204SOL     OW 7336  12.536   1.996   9.931  0.3177 -0.8598  0.2608
65204SOL    HW1 7337  12.571   1.979   9.844  0.5016 -0.4336  0.2469
65204SOL    HW2 7338  12.442   1.980   9.923 -0.0960  1.5748 -0.6917
65205SOL     OW 7339   9.279   2.169   0.910 -0.7130  0.5024 -0.0792
65205SOL    HW1 7340   9.279   2.140   1.002 -0.5318  0.7534  0.0038
65205SOL    HW2 7341   9.358   2.129   0.873  0.8984  2.7577  0.6650
65206SOL     OW 7342   9.871   9.216   6.108 -0.7723 -0.2122  0.3284
65206SOL    HW1 7343   9.893   9.237   6.199  1.0689  0.0929 -0.1395
65206SOL    HW2 7344   9.850   9.123   6.109  3.3953 -1.3649  0.5062
65207SOL     OW 7345  10.825  10.397   3.339 -0.1418 -0.6974  0.3517
65207SOL    HW1 7346  10.842  10.319   3.392 -1.9765 -0.5884  1.1784
65207SOL    HW2 7347  10.818  10.363   3.250  1.0682 -1.1608  0.4088
65208SOL     OW 7348   3.073   8.055  12.824  0.2689 -0.3831 -0.1582
65208SOL    HW1 7349   2.988   8.098  12.824 -0.0844 -1.0103  1.1556
65208SOL    HW2 7350   3.127   8.109  12.882  0.4660 -0.5378 -0.1957
65209SOL     OW 7351   8.127   2.702   7.551  0.1057  0.1810 -0.7534
65209SOL    HW1 7352   8.149   2.611   7.571  2.1563  0.9833  1.1034
65209SOL    HW2 7353   8.043   2.717   7.593  0.2894 -0.5821 -0.1010
65210SOL     OW 7354   1.895   8.554   7.391 -0.3131 -0.0147  0.2420
65210SOL    HW1 7355   1.831   8.483   7.389 -1.3789  0.9269 -0.0328
65210SOL    HW2 7356   1.919   8.567   7.299  0.8637 -0.8698  0.4157
65211SOL     OW 7357   2.546  11.045  13.681 -0.0867  0.2931  0.0774
65211SOL    HW1 7358   2.553  11.120  13.623 -2.5074 -0.1804 -0.9744
65211SOL    HW2 7359   2.492  10.982  13.632 -1.1250 -0.6695  2.2950
65212SOL     OW 7360   8.014   8.225   0.952 -0.2010  0.1576  0.5371
65212SOL    HW1 7361   7.971   8.268   1.026  1.1044 -0.0995  1.4948
65212SOL    HW2 7362   8.027   8.135   0.982 -2.6487 -0.9208 -1.3235
65213SOL     OW 7363   2.436   4.490   0.548 -0.3637  0.0796  0.1034
65213SOL    HW1 7364   2.429   4.585   0.552 -0.8102  0.0362  0.4062
65213SOL    HW2 7365   2.428   4.461   0.639  0.0247 -0.2294  0.0391
65214SOL     OW 7366   9.363   3.514  11.141  0.3826  0.3769  0.2530
65214SOL    HW1 7367   9.309   3.586  11.108  0.3304  0.5742  0.7506
65214SOL    HW2 7368   9.450   3.552  11.152  0.1509  0.6173  1.3573
65215SOL     OW 7369  10.950   2.254   2.745  0.1630 -0.4712 -0.1925
65215SOL    HW1 7370  10.957   2.341   2.783 -0.3376 -0.8118  0.7011
65215SOL    HW2 7371  10.958   2.268   2.651 -1.3175  0.7120 -0.1742
65216SOL     OW 7372   5.728  11.493  10.455 -0.0059 -0.1559  0.1515
65216SOL    HW1 7373   5.719  11.541  10.373 -1.1155  2.1941  1.5373
65216SOL    HW2 7374   5.803  11.534  10.498 -1.0770  0.5118  1.4387
65217SOL     OW 7375  13.358   3.908   2.079  0.0242 -0.7408 -0.0187
65217SOL    HW1 7376  13.406   3.946   2.005 -0.0789  0.2637  0.4108
65217SOL    HW2 7377  13.306   3.981   2.113 -0.3056 -1.3223  0.7392
65218SOL     OW 7378   6.163   2.808   4.767  0.7032 -0.5222 -0.0611
65218SOL    HW1 7379   6.080   2.828   4.723  1.4867 -0.3769 -1.5521
65218SOL    HW2 7380   6.227   2.863   4.722  1.7483 -1.2488  0.5038
65219SOL     OW 7381   7.155   4.840  11.557  0.1283  0.7339  0.2431
65219SOL    HW1 7382   7.166   4.923  11.603 -0.5994  0.1052  1.6121
65219SOL    HW2 7383   7.183   4.774  11.620 -0.3030 -0.1315 -0.4504
65220SOL     OW 7384   4.142   9.088  12.751 -0.0465  0.6565 -0.2990
65220SOL    HW1 7385   4.214   9.048  12.800  0.3574 -0.6197 -1.8293
65220SOL    HW2 7386   4.140   9.179  12.781  1.1583  0.3111  0.9308
65221SOL     OW 7387   1.798   4.276   9.940  0.4032  0.4507  0.0926
65221SOL    HW1 7388   1.710   4.244   9.960 -0.4771  1.9886 -1.0875
65221SOL    HW2 7389   1.857   4.214   9.983 -1.2402 -0.9977  0.3515
65222SOL     OW 7390   8.181   1.207   9.931 -0.3336  0.2239  0.3180
65222SOL    HW1 7391   8.125   1.225   9.856 -0.7341 -1.2297  0.2510
65222SOL    HW2 7392   8.203   1.114   9.924  1.4124  0.5611  0.8004
65223SOL     OW 7393   0.424  12.053  13.080  0.0526  0.0529  0.3300
65223SOL    HW1 7394   0.410  11.970  13.126 -0.9362  0.0857  0.1107
65223SOL    HW2 7395   0.395  12.036  12.991  1.1273  0.2500 -0.0669
65224SOL     OW 7396   6.055   1.452   2.840 -0.0444 -0.1270 -0.2053
65224SOL    HW1 7397   5.993   1.408   2.899 -0.3006  0.3681 -0.1011
65224SOL    HW2 7398   6.003   1.518   2.795  0.4820  0.5889  0.1994
65225SOL     OW 7399   8.591   2.580  11.700 -0.3775  0.1760 -0.2423
65225SOL    HW1 7400   8.665   2.611  11.751 -0.4886  0.7438 -0.4221
65225SOL    HW2 7401   8.523   2.646  11.713 -0.3077  0.4853 -1.3367
65226SOL     OW 7402   3.793  13.179  10.423 -0.3198 -0.2211 -0.3666
65226SOL    HW1 7403   3.759  13.238  10.490 -0.9727 -0.8747 -0.1041
65226SOL    HW2 7404   3.740  13.197  10.345  1.2222  1.3921 -1.1221
65227SOL     OW 7405  12.200  12.600  11.497  0.2265  0.1925  0.0704
65227SOL    HW1 7406  12.253  12.679  11.504 -1.7229  1.4960  0.9031
65227SOL    HW2 7407  12.138  12.618  11.427 -0.5153 -0.3988  0.5541
65228SOL     OW 7408   2.049  11.006  10.312 -0.4756  0.7089  0.6189
65228SOL    HW1 7409   2.108  11.079  10.290  0.6776 -0.5245 -0.5549
65228SOL    HW2 7410   1.982  11.046  10.367 -0.5460  2.9001 -0.9304
65229SOL     OW 7411   5.029   2.652   1.577  0.0943  0.1798 -0.1580
65229SOL    HW1 7412   5.004   2.570   1.534 -2.5867  1.0022 -0.3734
65229SOL    HW2 7413   4.997   2.720   1.517 -1.7440  1.3564  2.0168
65230SOL     OW 7414  11.909   0.306   9.148 -0.1596 -0.3260 -0.0641
65230SOL    HW1 7415  11.978   0.290   9.084 -1.7291 -2.0336 -1.4440
65230SOL    HW2 7416  11.951   0.289   9.233  1.1697 -1.1597 -0.8479
65231SOL     OW 7417  13.029   4.053   5.452 -0.6080 -0.2287  0.5754
65231SOL    HW1 7418  12.986   4.093   5.377 -0.8262  0.8615  1.2494
65231SOL    HW2 7419  13.120   4.082   5.446 -0.4412 -0.8107  0.2898
65232SOL     OW 7420   8.747  11.151   1.165  0.2632  0.3443 -0.0814
65232SOL    HW1 7421   8.679  11.214   1.190 -1.2177 -0.4680 -1.8285
65232SOL    HW2 7422   8.723  11.070   1.209 -0.2790 -0.0937 -1.1263
65233SOL     OW 7423   8.339   8.960   9.647  0.0650  0.0687 -0.2973
65233SOL    HW1 7424   8.311   8.879   9.690  1.5348 -0.5196 -0.4170
65233SOL    HW2 7425   8.423   8.939   9.607  0.1808  1.4878 -0.8555
65234SOL     OW 7426   0.361   8.047   8.809 -0.5811 -0.2426 -0.3211
65234SOL    HW1 7427   0.358   8.127   8.862  0.9723  1.1354 -2.1406
65234SOL    HW2 7428   0.273   8.011   8.814 -1.1509  1.2331  1.0935
65235SOL     OW 7429   0.419   6.663   1.405 -0.0483  0.1065  0.1666
65235SOL    HW1 7430   0.402   6.576   1.370 -0.0921  0.2630 -0.2153
65235SOL    HW2 7431   0.425   6.719   1.327 -3.8163  1.1464  0.4339
65236SOL     OW 7432   7.191  10.630   4.082 -0.2312  0.4865  0.7693
65236SOL    HW1 7433   7.201  10.719   4.050  0.1364  0.4991  0.9114
65236SOL    HW2 7434   7.277  10.589   4.066 -0.8563 -0.3313 -0.7999
65237SOL     OW 7435  10.071  10.698   3.420 -0.2577  0.3628 -0.1677
65237SOL    HW1 7436  10.080  10.790   3.442 -1.0956  0.7617 -1.3828
65237SOL    HW2 7437  10.048  10.697   3.327 -0.4892 -1.0576 -0.1305
65238SOL     OW 7438   3.626   1.796  13.519 -1.4166  0.3099 -0.0368
65238SOL    HW1 7439   3.645   1.889  13.505  1.1313 -0.0577  0.5475
65238SOL    HW2 7440   3.552   1.778  13.461  0.4154  1.8598 -3.1252
65239SOL     OW 7441   7.194  12.338   9.468 -0.0076  0.4485 -0.2477
65239SOL    HW1 7442   7.157  12.391   9.398  0.5524 -0.3939 -1.2208
65239SOL    HW2 7443   7.223  12.257   9.424 -1.1261 -0.8124  1.2141
65240SOL     OW 7444   5.935   6.343   7.368 -0.4640 -0.1944 -0.0798
65240SOL    HW1 7445   5.852   6.312   7.334 -0.3280 -0.9641  0.2753
65240SOL    HW2 7446   5.938   6.311   7.458 -0.3004  0.8205  0.2942
65241SOL     OW 7447   0.285   6.346  11.143  0.1774  0.1274 -0.0824
65241SOL    HW1 7448   0.296   6.266  11.196 -1.1548 -0.3089 -0.4358
65241SOL    HW2 7449   0.307   6.417  11.204  0.6716 -0.4577  0.4496
65242SOL     OW 7450  13.116   9.936   8.001  0.1202 -0.4333  0.0092
65242SOL    HW1 7451  13.151  10.025   8.007 -0.6207 -0.1148 -0.2293
65242SOL    HW2 7452  13.050   9.932   8.071 -0.9488 -0.2672 -0.9594
65243SOL     OW 7453  12.228   2.414  12.129 -0.0416 -0.0753  0.0745
65243SOL    HW1 7454  12.192   2.327  12.145  0.2980 -0.0554  0.9743
65243SOL    HW2 7455  12.274   2.406  12.045  0.9698 -1.0794  0.6977
65244SOL     OW 7456   6.026   9.086  12.485 -0.0091  0.7894  0.4603
65244SOL    HW1 7457   6.025   9.032  12.564 -1.5723  0.8311  0.4901
65244SOL    HW2 7458   5.964   9.156  12.503 -0.0856  1.0252 -0.6536
65245SOL     OW 7459   2.863   0.847   9.606 -0.2606  0.4846 -0.1986
65245SOL    HW1 7460   2.780   0.799   9.605  1.2841 -2.5967  1.9182
65245SOL    HW2 7461   2.840   0.934   9.639 -2.9938  0.8334 -2.5896
65246SOL     OW 7462   6.774   6.520  11.873  0.4042 -0.3808  0.6089
65246SOL    HW1 7463   6.722   6.451  11.834  0.3545  0.7565 -1.5048
65246SOL    HW2 7464   6.865   6.496  11.854  0.4511 -0.4302  0.8855
65247SOL     OW 7465   3.577   9.442   7.454 -0.0565 -0.2407  0.1334
65247SOL    HW1 7466   3.557   9.348   7.448  1.5977 -0.6271  0.2501
65247SOL    HW2 7467   3.585   9.470   7.363 -0.0486 -0.3214  0.1090
65248SOL     OW 7468   4.384   6.246   6.513 -0.0589 -0.2781  0.2933
65248SOL    HW1 7469   4.334   6.235   6.594 -1.1944  0.2824 -0.3065
65248SOL    HW2 7470   4.347   6.181   6.453  0.8138 -0.7309  0.2273
65249SOL     OW 7471  12.223  10.088   5.261 -0.4797  0.2704  0.8058
65249SOL    HW1 7472  12.139  10.130   5.274 -0.2966  0.5386  1.1112
65249SOL    HW2 7473  12.287  10.158   5.269 -0.2184  0.0459  0.6972
65250SOL     OW 7474  13.621   4.234   2.360 -0.0092 -1.0543 -0.2060
65250SOL    HW1 7475  13.657   4.287   2.431 -0.5965 -0.3031 -0.4592
65250SOL    HW2 7476  13.621   4.145   2.395  3.8293 -1.4666 -0.8521
65251SOL     OW 7477   5.326   6.320  11.294 -0.5359 -0.1451  0.6052
65251SOL    HW1 7478   5.342   6.392  11.356 -0.7569 -0.0301  0.5284
65251SOL    HW2 7479   5.411   6.279  11.284  0.0058  1.2218 -0.7467
65252SOL     OW 7480  12.746  13.692   7.939  0.4608 -0.0798  0.1208
65252SOL    HW1 7481  12.749  13.628   8.010  1.0198  0.0780  0.2499
65252SOL    HW2 7482  12.795  13.767   7.973 -1.4889  1.0370  0.5697
65253SOL     OW 7483  13.726   6.673   6.987  0.1382 -0.3960 -0.2488
65253SOL    HW1 7484  13.742   6.601   7.048 -0.0132 -1.0036 -0.9060
65253SOL    HW2 7485  13.785   6.655   6.914  0.4409  0.4156 -0.2096
65254SOL     OW 7486  10.894  10.964  12.878 -0.1964 -0.3695 -0.6117
65254SOL    HW1 7487  10.937  10.887  12.914  0.1901 -0.7217 -1.7681
65254SOL    HW2 7488  10.963  11.030  12.871 -0.4998  0.0614  0.2581
65255SOL     OW 7489  11.391   4.317  13.069  0.3424  0.0432 -0.1757
65255SOL    HW1 7490  11.427   4.280  12.989  0.7474 -0.6487  0.3121
65255SOL    HW2 7491  11.303   4.278  13.075  0.2901  0.1403 -0.3138
65256SOL     OW 7492   2.636   2.754   4.411  0.0231  0.0143  0.1418
65256SOL    HW1 7493   2.695   2.687   4.377 -0.4913 -1.0830  1.3013
65256SOL    HW2 7494   2.679   2.837   4.392  1.0204 -0.6788 -0.7011
65257SOL     OW 7495   1.072  10.456   2.289  0.1246 -0.4475  0.3367
65257SOL    HW1 7496   1.059  10.533   2.344 -0.0158 -1.4894  1.8158
65257SOL    HW2 7497   0.992  10.450   2.236  0.8479  1.3564 -1.0575
65258SOL     OW 7498   0.433   8.224   7.231  0.2291  0.1142  0.0138
65258SOL    HW1 7499   0.409   8.241   7.139  0.1830  1.4859  0.2526
65258SOL    HW2 7500   0.507   8.164   7.226  2.3693  2.6284 -1.1190
65259SOL     OW 7501  13.337  11.068   6.089 -0.2446 -0.6045 -0.3336
65259SOL    HW1 7502  13.354  11.163   6.087  0.4942 -0.7024  0.4846
65259SOL    HW2 7503  13.249  11.060   6.125  0.3057 -0.2603  1.1758
65260SOL     OW 7504   8.051  11.001   3.245 -0.3698 -0.2866  0.1273
65260SOL    HW1 7505   7.978  11.007   3.307 -0.6499 -0.8947 -0.1402
65260SOL    HW2 7506   8.016  11.034   3.162  0.7091  3.0145  0.8320
65261SOL     OW 7507   7.334   8.891   3.986  0.1709  0.1137  0.1909
65261SOL    HW1 7508   7.412   8.940   3.961  0.9028 -1.1860 -0.1688
65261SOL    HW2 7509   7.343   8.878   4.081 -0.2721  1.0699  0.3720
65262SOL     OW 7510   1.995  11.224   9.453  0.1599 -0.6119  0.1469
65262SOL    HW1 7511   1.933  11.175   9.507  0.6650 -1.2839  0.1229
65262SOL    HW2 7512   1.987  11.185   9.366  1.9837 -2.0129  0.5573
65263SOL     OW 7513   4.501   9.331   5.638 -0.5275  0.2637 -0.7396
65263SOL    HW1 7514   4.488   9.414   5.682  2.1169 -0.1422  1.0118
65263SOL    HW2 7515   4.589   9.337   5.600 -0.7745 -1.2665 -1.6396
65264SOL     OW 7516   6.470   9.876   4.170  0.4633  0.3156 -0.2840
65264SOL    HW1 7517   6.565   9.864   4.165  0.5025  0.8356 -0.9399
65264SOL    HW2 7518   6.439   9.857   4.081  0.0968  1.3264 -0.3771
65265SOL     OW 7519   7.046  11.416   3.476 -0.0483  0.5491  0.0304
65265SOL    HW1 7520   6.976  11.416   3.541  1.1073 -0.1118  1.3262
65265SOL    HW2 7521   7.071  11.324   3.466  1.3943  0.8630  0.4715
65266SOL     OW 7522  10.627  12.757   6.938 -0.3787 -0.2321  0.3864
65266SOL    HW1 7523  10.708  12.806   6.953 -1.0198  0.7739  0.6945
65266SOL    HW2 7524  10.600  12.781   6.849 -0.9530  0.3909  0.7163
65267SOL     OW 7525  10.343   2.835  13.077  0.4721 -0.2086  0.4492
65267SOL    HW1 7526  10.375   2.753  13.115  1.0475 -0.6483 -0.9166
65267SOL    HW2 7527  10.390   2.843  12.994 -1.9959 -0.2211 -1.0556
65268SOL     OW 7528   2.741   8.228   9.266 -0.1288 -0.0496  0.1121
65268SOL    HW1 7529   2.808   8.296   9.257 -0.4746  0.3095  0.2052
65268SOL    HW2 7530   2.684   8.241   9.191  0.5995 -1.1538 -0.6600
65269SOL     OW 7531   7.697   3.656   4.482 -0.6343  0.2179 -0.0151
65269SOL    HW1 7532   7.612   3.700   4.479  0.4452  2.5925  1.2969
65269SOL    HW2 7533   7.723   3.661   4.574  0.3285 -1.7576 -0.1408
65270SOL     OW 7534  13.400  12.962  10.125  0.2025 -0.3901 -0.1148
65270SOL    HW1 7535  13.331  12.982  10.062  1.3477 -0.2570 -1.3740
65270SOL    HW2 7536  13.367  12.996  10.208 -1.2445 -0.3522 -0.6712
65271SOL     OW 7537   3.939   8.520  12.187  0.3546  0.1885  0.4657
65271SOL    HW1 7538   3.910   8.464  12.116  1.2682 -0.8781  0.9047
65271SOL    HW2 7539   3.913   8.608  12.161  0.6996 -0.1781 -1.1862
65272SOL     OW 7540   7.518   9.373  11.888  0.5607 -0.3063  0.2472
65272SOL    HW1 7541   7.425   9.350  11.883  0.3721 -0.0549  2.0443
65272SOL    HW2 7542   7.558   9.326  11.814 -1.2672  1.2468 -1.8743
65273SOL     OW 7543   6.385   2.068   6.495 -0.2831  0.6245 -0.0470
65273SOL    HW1 7544   6.307   2.018   6.518 -1.1230  2.0891  0.4244
65273SOL    HW2 7545   6.378   2.082   6.401 -0.9228  1.2620  0.0859
65274SOL     OW 7546   4.162   2.696   3.637  0.2504  0.0048  0.4056
65274SOL    HW1 7547   4.210   2.739   3.565 -1.5761 -0.1277 -0.9677
65274SOL    HW2 7548   4.182   2.750   3.714  2.6623 -0.1273 -0.0420
65275SOL     OW 7549  10.940   9.398   7.073  0.6282 -0.8242  0.1838
65275SOL    HW1 7550  10.956   9.487   7.105  0.5485 -1.1873  1.2911
65275SOL    HW2 7551  10.988   9.392   6.991 -0.4240  0.6539 -0.5706
65276SOL     OW 7552   3.484   1.613   6.141  0.1669  0.3854 -0.4359
65276SOL    HW1 7553   3.433   1.632   6.220 -0.6030 -1.7870 -0.3408
65276SOL    HW2 7554   3.520   1.698   6.115  0.3118  1.2033  2.1317
65277SOL     OW 7555   0.851  12.523   1.617 -0.7855 -0.3162  0.5427
65277SOL    HW1 7556   0.936  12.481   1.629 -0.4153  0.0781 -0.5956
65277SOL    HW2 7557   0.866  12.590   1.550 -2.2702 -1.1736 -0.7160
65278SOL     OW 7558  10.450   8.879   4.393 -0.1843  0.5605  0.1494
65278SOL    HW1 7559  10.539   8.898   4.424  0.0854 -0.1256 -0.1682
65278SOL    HW2 7560  10.399   8.955   4.419  0.3007  0.5676  1.1278
65279SOL     OW 7561   9.889   2.709   1.777 -0.7265 -0.1869 -0.0703
65279SOL    HW1 7562   9.979   2.740   1.786 -0.6822 -0.2827 -0.1917
65279SOL    HW2 7563   9.895   2.614   1.778 -0.8020 -0.1949 -0.3193
65280SOL     OW 7564   9.882  13.159   2.229  0.2205 -0.4449 -0.1393
65280SOL    HW1 7565   9.958  13.213   2.209 -0.5737  0.3379 -1.0965
65280SOL    HW2 7566   9.904  13.116   2.312  0.4715  2.0899  1.1862
65281SOL     OW 7567  10.833   3.946   6.440 -0.4112  0.5654  0.0409
65281SOL    HW1 7568  10.916   3.920   6.481 -1.3794 -1.8348  0.6530
65281SOL    HW2 7569  10.766   3.914   6.500 -1.8098  1.9759 -0.7184
65282SOL     OW 7570  12.696   2.984  10.665 -0.1926 -0.1039  0.0721
65282SOL    HW1 7571  12.651   3.050  10.718  0.2934  0.1718  0.1457
65282SOL    HW2 7572  12.642   2.906  10.672 -0.7782  0.2882 -0.0145
65283SOL     OW 7573   8.105  10.221   6.364 -0.1461 -0.3721  0.3052
65283SOL    HW1 7574   8.160  10.255   6.293  0.4537 -1.3823  0.2654
65283SOL    HW2 7575   8.120  10.127   6.363 -0.3153 -0.4301  1.6296
65284SOL     OW 7576  13.348   2.151  10.096 -1.4525 -0.3522 -0.3087
65284SOL    HW1 7577  13.316   2.226  10.145 -0.0031 -0.3896  0.7657
65284SOL    HW2 7578  13.355   2.182  10.006 -4.2200 -0.3100 -0.5811
65285SOL     OW 7579   1.953   4.648  13.224 -1.1380  0.2122  0.3629
65285SOL    HW1 7580   1.927   4.630  13.133 -4.5073 -1.1815  1.4360
65285SOL    HW2 7581   2.046   4.626  13.227 -1.2077 -0.9190 -2.4648
65286SOL     OW 7582  13.137   4.465  11.478  1.0455  0.0798  0.4446
65286SOL    HW1 7583  13.201   4.533  11.497  0.3076  0.5529  1.3280
65286SOL    HW2 7584  13.071   4.508  11.425  0.5346  0.0919  1.0735
65287SOL     OW 7585   1.845  10.333  11.578 -0.9463  0.2144  1.0888
65287SOL    HW1 7586   1.771  10.340  11.518  1.0040  0.4832 -1.4321
65287SOL    HW2 7587   1.853  10.422  11.615 -2.2944 -0.0101  2.0191
65288SOL     OW 7588   5.592   4.793  10.173  0.0367  0.5596  0.1342
65288SOL    HW1 7589   5.505   4.779  10.135  0.4578 -1.0430 -0.3529
65288SOL    HW2 7590   5.641   4.838  10.104 -0.0473  0.2766 -0.1179
65289SOL     OW 7591   1.728  13.125   0.514 -0.1540  0.0136 -0.1367
65289SOL    HW1 7592   1.777  13.186   0.459 -0.9813 -0.6734 -1.6927
65289SOL    HW2 7593   1.789  13.101   0.583  0.7290  1.3418 -0.4118
65290SOL     OW 7594   0.321   6.017   4.175  0.3220 -0.1654  0.1372
65290SOL    HW1 7595   0.282   5.930   4.186 -2.5223  0.8202 -1.2250
65290SOL    HW2 7596   0.306   6.061   4.259  1.4325 -0.8097  0.7006
65291SOL     OW 7597  10.793   4.566   9.049  0.3993  0.3992  0.1884
65291SOL    HW1 7598  10.840   4.495   9.094 -0.2895 -0.1099  0.1312
65291SOL    HW2 7599  10.723   4.590   9.110 -0.8692 -0.6536 -0.7811
65292SOL     OW 7600  13.247   3.228   8.688 -0.2747 -0.2071  0.0052
65292SOL    HW1 7601  13.299   3.156   8.654 -1.7930 -1.4656  0.2132
65292SOL    HW2 7602  13.280   3.306   8.643  0.6167 -1.1989 -1.1114
65293SOL     OW 7603   9.705   8.114   5.548 -0.2217  0.5369 -0.2682
65293SOL    HW1 7604   9.681   8.144   5.635 -0.8662  0.5213 -0.4316
65293SOL    HW2 7605   9.642   8.157   5.490  1.0585  1.6652 -0.8863
65294SOL     OW 7606   7.695   4.498   0.537 -0.0551 -0.0369  0.2456
65294SOL    HW1 7607   7.668   4.535   0.453  0.2582  1.0798  0.6183
65294SOL    HW2 7608   7.653   4.412   0.540 -1.7901  0.7438 -0.1652
65295SOL     OW 7609  10.767   0.792  11.591 -0.0415  0.1345  0.0649
65295SOL    HW1 7610  10.792   0.847  11.665  1.0320 -0.5214  0.2204
65295SOL    HW2 7611  10.827   0.717  11.596 -0.2410 -0.1331 -1.2046
65296SOL     OW 7612   1.232  10.506   1.993 -0.2819  0.1721  0.1000
65296SOL    HW1 7613   1.174  10.490   2.067 -1.1105  1.0374 -0.3345
65296SOL    HW2 7614   1.176  10.547   1.927  0.3383 -0.9279 -1.1654
65297SOL     OW 7615   3.212   9.002  12.860  0.2567 -0.5780 -0.7610
65297SOL    HW1 7616   3.204   9.023  12.767 -0.3238  1.1025 -0.3592
65297SOL    HW2 7617   3.305   8.979  12.872  0.2295 -1.3252 -1.8262
65298SOL     OW 7618   9.356   2.547   0.905  0.0286 -0.0859 -0.3702
65298SOL    HW1 7619   9.267   2.549   0.870  0.9832  0.0694 -2.9803
65298SOL    HW2 7620   9.351   2.598   0.986 -2.5371 -1.3898  0.3969
65299SOL     OW 7621   0.595   2.829  12.634  0.6222 -0.1915 -0.0832
65299SOL    HW1 7622   0.507   2.801  12.660 -0.1589  1.1047 -1.1867
65299SOL    HW2 7623   0.654   2.771  12.682 -0.8438 -2.7452 -1.1449
65300SOL     OW 7624   0.245   5.155  10.843 -0.5813  0.3227  0.0954
65300SOL    HW1 7625   0.231   5.224  10.778  0.8618  1.9206  1.3859
65300SOL    HW2 7626   0.174   5.166  10.906 -0.9539 -0.0655 -0.2533
65301SOL     OW 7627   7.050   1.846   0.017  0.1477 -0.0598 -0.3146
65301SOL    HW1 7628   6.974   1.839  -0.041 -0.1961 -1.9095  0.2742
65301SOL    HW2 7629   7.023   1.800   0.096  1.5260  0.1610  0.3072
65302SOL     OW 7630  11.729   3.957   8.968  0.3167  0.6307 -0.2533
65302SOL    HW1 7631  11.717   3.879   8.913  0.8090  0.2066  0.2267
65302SOL    HW2 7632  11.802   4.004   8.928  0.0293  0.8385 -0.5343
65303SOL     OW 7633   1.080  13.252   0.450  0.1413 -0.2492  0.4533
65303SOL    HW1 7634   1.083  13.180   0.514 -2.0218 -0.3536  0.5184
65303SOL    HW2 7635   1.156  13.237   0.393  1.0777 -1.1988  1.8833
65304SOL     OW 7636   8.472   0.367   9.293  0.0840 -1.1459  0.3333
65304SOL    HW1 7637   8.459   0.364   9.387 -0.6927 -0.5568  0.2559
65304SOL    HW2 7638   8.497   0.457   9.275  2.1949 -1.7065  0.1884
65305SOL     OW 7639   3.137   3.804  13.100  0.0548  0.2016  0.4918
65305SOL    HW1 7640   3.205   3.739  13.081 -1.0293 -0.7518 -0.3214
65305SOL    HW2 7641   3.169   3.852  13.176  1.0890 -0.9977  0.8383
65306SOL     OW 7642  11.503   4.082   9.089  0.6959  0.4159 -0.2772
65306SOL    HW1 7643  11.580   4.041   9.048 -0.0520 -2.6528  1.0971
65306SOL    HW2 7644  11.438   4.087   9.019  0.3884 -2.0643 -0.2392
65307SOL     OW 7645   2.064   5.589   0.139  0.4415 -0.1310 -0.0632
65307SOL    HW1 7646   2.037   5.498   0.131 -1.5589  0.4845 -0.9856
65307SOL    HW2 7647   2.145   5.596   0.088  0.6116 -1.3677  0.0214
65308SOL     OW 7648   0.227   5.232   6.278 -0.0190  0.1713 -0.3540
65308SOL    HW1 7649   0.321   5.238   6.295 -0.1993  1.3223  0.3339
65308SOL    HW2 7650   0.203   5.144   6.308  0.8813 -0.2868 -0.8952
65309SOL     OW 7651  10.361  11.704   6.226  0.1953  0.4938 -0.1952
65309SOL    HW1 7652  10.386  11.615   6.201  1.2945  1.0658 -1.2084
65309SOL    HW2 7653  10.423  11.728   6.295 -0.4981  0.2640  0.5238
65310SOL     OW 7654  12.321   0.985  13.538 -0.4151  0.3352 -0.3533
65310SOL    HW1 7655  12.252   1.051  13.542 -1.5228 -0.7583 -0.7434
65310SOL    HW2 7656  12.276   0.904  13.514  1.0346 -0.3840 -0.8060
65311SOL     OW 7657   6.945   9.534   9.386 -0.3437 -0.2177 -0.3142
65311SOL    HW1 7658   6.994   9.501   9.310  0.0307 -0.3554 -0.0170
65311SOL    HW2 7659   6.967   9.473   9.457 -1.0472 -0.3488 -0.2079
65312SOL     OW 7660   6.375   2.304  13.368  0.0549  0.1004  0.3390
65312SOL    HW1 7661   6.362   2.293  13.274  1.8714  2.3696 -0.2510
65312SOL    HW2 7662   6.288   2.291  13.406 -0.6815 -1.0456 -1.5816
65313SOL     OW 7663  13.575   9.059   8.928 -0.6109  0.2662 -0.2492
65313SOL    HW1 7664  13.607   8.993   8.867 -0.2449 -2.3652  2.5380
65313SOL    HW2 7665  13.480   9.056   8.919 -0.5799 -0.4142 -0.3863
65314SOL     OW 7666   4.473   6.533  11.880  0.1886 -0.3892 -0.2566
65314SOL    HW1 7667   4.530   6.486  11.941 -3.0107 -2.7078  1.2081
65314SOL    HW2 7668   4.425   6.464  11.834 -1.3777  1.4349 -1.5035
65315SOL     OW 7669  13.521   3.303   3.498 -0.0781  0.5961 -0.6077
65315SOL    HW1 7670  13.568   3.295   3.415  0.5668  1.0746 -0.3015
65315SOL    HW2 7671  13.564   3.240   3.556 -0.9038 -0.1531 -0.7918
65316SOL     OW 7672   8.793  10.245   6.147  0.1426 -0.2562  0.2220
65316SOL    HW1 7673   8.848  10.314   6.184 -2.0586  2.0653 -0.5643
65316SOL    HW2 7674   8.836  10.164   6.174  1.1336  1.2968  4.0077
65317SOL     OW 7675   5.074   4.930  13.311  0.4904  0.4713 -0.1448
65317SOL    HW1 7676   5.009   4.971  13.368  0.1164 -0.5749  0.2009
65317SOL    HW2 7677   5.028   4.857  13.270  1.6582 -0.8058  0.7449
65318SOL     OW 7678   4.570   1.110  13.389  1.3004 -0.5837 -0.5549
65318SOL    HW1 7679   4.569   1.069  13.303  0.5013 -1.5206 -0.1204
65318SOL    HW2 7680   4.489   1.079  13.431  1.6405 -0.0864  0.4971
65319SOL     OW 7681   3.298  12.900   6.835 -0.2782  0.1607 -0.1094
65319SOL    HW1 7682   3.325  12.981   6.878 -1.3119 -0.1436  1.1872
65319SOL    HW2 7683   3.373  12.841   6.847  0.0306  0.5626 -0.0355
65320SOL     OW 7684   8.452  12.099   8.659 -0.1532  0.2308  0.6485
65320SOL    HW1 7685   8.429  12.010   8.632  2.3081  0.2997 -2.2358
65320SOL    HW2 7686   8.521  12.088   8.723  1.6603 -0.0882 -1.2385
65321SOL     OW 7687   2.686  12.543   1.329 -0.0863 -0.8290 -0.2442
65321SOL    HW1 7688   2.680  12.593   1.411  1.5758  1.2283 -1.2733
65321SOL    HW2 7689   2.777  12.514   1.326 -0.2657 -1.3271 -1.1597
65322SOL     OW 7690   7.932  13.453   5.152 -0.2427 -0.2962  0.1346
65322SOL    HW1 7691   7.897  13.471   5.240  1.2167 -0.9599  0.8865
65322SOL    HW2 7692   7.933  13.538   5.109 -1.6738 -0.0709  0.4692
65323SOL     OW 7693   4.458   8.318  10.586 -0.4426 -0.5772  0.0366
65323SOL    HW1 7694   4.532   8.270  10.623 -1.0538 -1.7800 -0.2850
65323SOL    HW2 7695   4.498   8.378  10.523  0.4815  0.5494  1.6146
65324SOL     OW 7696   9.672   3.089  11.007  0.0803  0.0382 -0.0643
65324SOL    HW1 7697   9.667   3.028  10.933  1.5885  0.3326 -0.4500
65324SOL    HW2 7698   9.725   3.043  11.072 -1.1009 -0.1518  0.8039
65325SOL     OW 7699   5.046   0.283   7.199  0.1009 -0.4360  0.0260
65325SOL    HW1 7700   5.037   0.355   7.262  0.0905  0.4848 -0.9866
65325SOL    HW2 7701   4.976   0.299   7.135  0.1269 -1.3315 -0.2375
65326SOL     OW 7702   8.634   3.406   4.209 -0.7435  0.8268  0.7146
65326SOL    HW1 7703   8.620   3.471   4.278  0.5483  0.3475  1.4553
65326SOL    HW2 7704   8.681   3.335   4.252 -2.1285 -0.6309 -0.0742
65327SOL     OW 7705   7.912  11.610   5.972 -0.7028 -0.2278  0.0139
65327SOL    HW1 7706   7.913  11.698   6.009 -0.1938 -0.3965  0.4111
65327SOL    HW2 7707   7.836  11.568   6.012 -0.8538 -0.0257 -0.0568
65328SOL     OW 7708  11.574   2.029  13.708 -0.8536 -0.8842 -0.0872
65328SOL    HW1 7709  11.524   2.110  13.724 -0.7865 -0.7695 -0.4626
65328SOL    HW2 7710  11.517   1.978  13.651 -0.2308 -0.4404 -1.1297
65329SOL     OW 7711  11.825   4.603  12.200 -0.1706  0.8134 -0.6507
65329SOL    HW1 7712  11.858   4.594  12.111 -1.0342 -1.6593 -0.7913
65329SOL    HW2 7713  11.881   4.547  12.253 -2.8546 -2.1362 -0.6289
65330SOL     OW 7714   8.393   2.781   1.459 -0.2000  0.1780 -0.0265
65330SOL    HW1 7715   8.409   2.820   1.373  0.8727  2.9795  1.3177
65330SOL    HW2 7716   8.474   2.796   1.508 -2.0388  2.3084  2.6975
65331SOL     OW 7717  12.752   4.336   9.062 -0.3053  0.1930  0.0347
65331SOL    HW1 7718  12.756   4.319   8.968  0.7913  0.1263  0.0908
65331SOL    HW2 7719  12.804   4.415   9.075 -0.6586  0.3453  0.5575
65332SOL     OW 7720   2.893   0.272   7.911 -0.4954 -0.7226  0.1187
65332SOL    HW1 7721   2.808   0.262   7.953 -1.6666 -0.0115 -1.9193
65332SOL    HW2 7722   2.902   0.193   7.857  0.4753 -1.1249  0.8556
65333SOL     OW 7723   6.029  11.515   8.120 -0.3285  0.8922  0.3599
65333SOL    HW1 7724   5.952  11.475   8.161  0.7844 -0.7852  0.9103
65333SOL    HW2 7725   6.011  11.511   8.026  0.1401 -1.9030  0.3143
65334SOL     OW 7726   1.168   4.810  11.368  0.2678  0.4467  0.0699
65334SOL    HW1 7727   1.154   4.897  11.331 -2.0597  0.6194  1.1679
65334SOL    HW2 7728   1.225   4.825  11.443 -1.2038  1.2840  1.0616
65335SOL     OW 7729   2.512   9.170   6.637  0.5475 -0.3008 -0.1056
65335SOL    HW1 7730   2.559   9.243   6.597 -2.2992  3.3399  2.5239
65335SOL    HW2 7731   2.549   9.164   6.725  1.7772 -3.2608 -0.7205
65336SOL     OW 7732   7.683   2.428   8.447 -0.5445  0.3325 -0.0484
65336SOL    HW1 7733   7.733   2.495   8.495 -0.0608 -0.3405  0.4005
65336SOL    HW2 7734   7.603   2.418   8.498 -0.1773 -0.1409  0.4461
65337SOL     OW 7735  10.994  10.063  13.070 -0.1354 -0.0064  0.5187
65337SOL    HW1 7736  11.041  10.133  13.025 -0.7239 -0.8935 -1.5909
65337SOL    HW2 7737  11.062  10.009  13.109  0.6956 -0.9772 -2.0349
65338SOL     OW 7738   5.935  10.863  12.643  0.0071  0.7249  0.5788
65338SOL    HW1 7739   5.971  10.857  12.731 -0.1228  1.1805  0.6617
65338SOL    HW2 7740   6.009  10.843  12.585 -0.1893 -0.8258  0.8201
65339SOL     OW 7741   6.178   0.036   7.547 -0.5089 -0.5402 -0.3875
65339SOL    HW1 7742   6.193   0.089   7.625 -0.6091  1.6807 -1.7843
65339SOL    HW2 7743   6.090   0.058   7.519  0.2687  0.3782 -2.2905
65340SOL     OW 7744   6.615   0.142   6.788 -0.3422  0.1651 -0.1695
65340SOL    HW1 7745   6.704   0.108   6.774 -0.7436 -0.6203 -0.8799
65340SOL    HW2 7746   6.559   0.064   6.788 -0.9209  0.5244  1.4829
65341SOL     OW 7747  12.145   7.979   8.844  0.3341 -0.2102  0.6686
65341SOL    HW1 7748  12.127   7.885   8.834 -3.5729  0.4320 -0.0002
65341SOL    HW2 7749  12.071   8.012   8.895  0.2366  2.8914 -1.2277
65342SOL     OW 7750   0.688   6.866   6.226 -0.6267  0.3500  0.6602
65342SOL    HW1 7751   0.664   6.934   6.289  2.6141 -0.0363  2.4964
65342SOL    HW2 7752   0.644   6.787   6.256 -0.3900  0.5348  1.4968
65343SOL     OW 7753   2.717   8.681   2.554  0.3352 -0.0256 -0.0866
65343SOL    HW1 7754   2.781   8.733   2.602 -0.7337  1.5253 -0.2309
65343SOL    HW2 7755   2.688   8.614   2.615  1.4472 -0.1870  0.2684
65344SOL     OW 7756   2.131   7.052   3.810 -0.3406  0.0400  0.6060
65344SOL    HW1 7757   2.190   7.093   3.747  1.8982 -1.4916  1.5262
65344SOL    HW2 7758   2.114   7.120   3.875 -1.0620  1.0389 -0.6032
65345SOL     OW 7759  10.523   1.957   4.346  0.4935  0.3580  0.0719
65345SOL    HW1 7760  10.579   2.021   4.302  1.5766 -1.2554 -0.9966
65345SOL    HW2 7761  10.583   1.889   4.376 -0.5913 -0.0249  1.4921
65346SOL     OW 7762   3.767   0.587   3.010  0.6176  0.1023 -0.2096
65346SOL    HW1 7763   3.831   0.616   3.075  0.3444  0.3135 -0.0369
65346SOL    HW2 7764   3.689   0.640   3.027  1.0049  1.1664 -1.6157
65347SOL     OW 7765   8.548  12.413   3.628  0.2501 -0.0793 -0.1560
65347SOL    HW1 7766   8.545  12.351   3.554 -1.0256  1.1006 -1.1492
65347SOL    HW2 7767   8.501  12.368   3.698  1.5303 -1.2429  0.0094
65348SOL     OW 7768   3.638   5.726  12.691  0.1532  0.0109 -0.3952
65348SOL    HW1 7769   3.570   5.680  12.739  1.5361 -0.0151  1.6727
65348SOL    HW2 7770   3.615   5.819  12.697 -1.0936 -0.1320 -2.0887
65349SOL     OW 7771   4.395   0.680   9.783  0.2156  0.6511  0.0063
65349SOL    HW1 7772   4.427   0.769   9.798 -0.1670  0.7093  0.4892
65349SOL    HW2 7773   4.472   0.632   9.754  0.4483  1.1129 -0.1567
65350SOL     OW 7774  11.376   0.033   9.605 -0.2020  0.3467 -0.6911
65350SOL    HW1 7775  11.370   0.125   9.629  0.1684  0.1825  0.0576
65350SOL    HW2 7776  11.364  -0.015   9.687  4.5283 -0.1796 -0.0065
65351SOL     OW 7777  10.419   3.684   4.203  0.0005 -0.2627  0.3022
65351SOL    HW1 7778  10.371   3.601   4.201  0.9345 -0.8322  0.3051
65351SOL    HW2 7779  10.508   3.660   4.175  0.0053  0.9503 -0.8049
65352SOL     OW 7780   0.515   5.076   0.235  0.2652 -0.1131  0.4839
65352SOL    HW1 7781   0.478   5.008   0.179 -0.7860  0.3261  0.6244
65352SOL    HW2 7782   0.474   5.157   0.205 -0.0422  0.1776  1.6417
65353SOL     OW 7783   1.512   2.729   3.962 -0.1466  0.0451 -0.0924
65353SOL    HW1 7784   1.498   2.683   4.045  1.2741  1.3361  0.9375
65353SOL    HW2 7785   1.591   2.782   3.978 -0.5016  1.1887 -1.8998
65354SOL     OW 7786   1.244  13.616  11.057 -0.1026  0.0379  0.5042
65354SOL    HW1 7787   1.216  13.697  11.013 -1.9949  1.3747  3.8333
65354SOL    HW2 7788   1.309  13.645  11.121  0.0628 -1.2929  0.9672
65355SOL     OW 7789   1.153   7.402   9.114 -0.0729 -0.1975  0.1439
65355SOL    HW1 7790   1.144   7.362   9.027 -0.9461  0.1059  0.0797
65355SOL    HW2 7791   1.078   7.369   9.163  1.6926 -2.3067  1.6011
65356SOL     OW 7792  12.864  13.688   3.183  0.2608  0.8139  0.3397
65356SOL    HW1 7793  12.866  13.601   3.222  1.4331 -0.9349 -3.1572
65356SOL    HW2 7794  12.951  13.698   3.142 -0.1114  3.3054 -0.0138
65357SOL     OW 7795  13.286   6.929   0.207  0.1694 -0.0976 -0.3482
65357SOL    HW1 7796  13.326   6.874   0.140  1.0865 -0.6261  0.6059
65357SOL    HW2 7797  13.335   6.909   0.287  0.4410  1.9904  0.0649
65358SOL     OW 7798   1.067  12.609   6.443  0.8885  0.2595  0.1505
65358SOL    HW1 7799   0.992  12.630   6.387  0.5367  2.2988  1.2791
65358SOL    HW2 7800   1.132  12.571   6.383 -0.7481 -0.9381 -0.9719
65359SOL     OW 7801  12.018  13.140  10.786 -0.4295  0.1235  0.9409
65359SOL    HW1 7802  12.012  13.205  10.856  1.4273  0.2654  1.0205
65359SOL    HW2 7803  11.959  13.070  10.813 -0.8332  0.8208  1.9289
65360SOL     OW 7804   8.496   6.833   2.502 -0.1680 -0.4033  0.1007
65360SOL    HW1 7805   8.550   6.760   2.532 -1.6342 -2.5162 -2.0275
65360SOL    HW2 7806   8.412   6.820   2.545 -0.2113  0.5118  0.3102
65361SOL     OW 7807  11.267   1.773  12.283  0.2152 -0.5009 -0.2131
65361SOL    HW1 7808  11.331   1.800  12.217 -1.7945 -0.3911 -2.2372
65361SOL    HW2 7809  11.258   1.849  12.340  1.8252 -0.5184  0.1190
65362SOL     OW 7810   7.793   4.044   0.498 -0.0554  0.1811 -0.4942
65362SOL    HW1 7811   7.766   4.016   0.411  2.0698 -1.5996 -0.6575
65362SOL    HW2 7812   7.720   4.020   0.555 -0.0881 -1.8136 -1.3031
65363SOL     OW 7813   7.212   3.635  13.701 -0.0345  0.0802  0.0242
65363SOL    HW1 7814   7.157   3.557  13.701  0.9345 -0.6499  1.2072
65363SOL    HW2 7815   7.246   3.640  13.791 -0.1181  1.8959 -0.0188
65364SOL     OW 7816   1.106   3.683  13.557  0.2995 -0.3581  0.2701
65364SOL    HW1 7817   1.201   3.681  13.573  0.1618  0.3431  1.2949
65364SOL    HW2 7818   1.082   3.592  13.542  0.8030 -0.8311  2.1407
65365SOL     OW 7819   9.820  12.727   2.467 -0.0940  0.7805 -0.4647
65365SOL    HW1 7820   9.748  12.692   2.414 -0.4128  1.3849 -0.4340
65365SOL    HW2 7821   9.800  12.698   2.556 -0.2423  0.8577 -0.4723
65366SOL     OW 7822  11.010   6.068  10.002 -0.2876 -0.1474 -0.1455
65366SOL    HW1 7823  11.036   6.047  10.092  0.7176 -3.5470 -1.0587
65366SOL    HW2 7824  10.914   6.059  10.002 -0.5111  1.7503  0.9150
65367SOL     OW 7825  10.478   6.813   1.737  0.2931 -0.0906  0.2600
65367SOL    HW1 7826  10.551   6.751   1.741 -0.7779 -1.3026  2.2659
65367SOL    HW2 7827  10.400   6.759   1.730 -0.5073  1.1963 -2.3909
65368SOL     OW 7828   3.902  11.643   1.350  0.2592 -0.6184 -0.1584
65368SOL    HW1 7829   3.840  11.645   1.423 -0.5787  0.3037 -0.8781
65368SOL    HW2 7830   3.982  11.681   1.386  0.0538 -0.7608  0.4591
65369SOL     OW 7831  11.839   5.304  12.671  0.2499  0.0422  0.1476
65369SOL    HW1 7832  11.919   5.307  12.619 -0.1349  1.2230 -0.4387
65369SOL    HW2 7833  11.797   5.221  12.646  0.6831  0.0080 -0.4994
65370SOL     OW 7834  11.592   3.726   2.428 -0.6053 -0.3244 -0.0967
65370SOL    HW1 7835  11.574   3.744   2.521  0.8919  0.4951  0.0562
65370SOL    HW2 7836  11.555   3.639   2.414  0.9269 -1.3874  1.8376
65371SOL     OW 7837   7.336   1.504   8.481 -0.7629  0.3483 -0.1574
65371SOL    HW1 7838   7.378   1.587   8.505 -0.0409  0.1209 -0.5980
65371SOL    HW2 7839   7.291   1.476   8.560  0.3631  0.3385  0.4941
65372SOL     OW 7840   7.456   3.537   7.914  0.2557 -0.0968  0.4115
65372SOL    HW1 7841   7.486   3.446   7.906  3.8716  1.0200 -0.1865
65372SOL    HW2 7842   7.437   3.564   7.825 -2.5236 -0.6304  0.7297
65373SOL     OW 7843   8.559   1.084   3.081  0.7960 -0.4032 -1.0290
65373SOL    HW1 7844   8.490   1.026   3.048  0.1978  0.5414 -1.4837
65373SOL    HW2 7845   8.625   1.083   3.012  1.1552 -1.1461 -0.6857
65374SOL     OW 7846   6.066   1.513  12.416 -0.2307  0.8433  0.8126
65374SOL    HW1 7847   6.133   1.501  12.484 -0.3100 -2.0006  0.5155
65374SOL    HW2 7848   5.989   1.468  12.450 -0.2766 -0.6403 -1.0760
65375SOL     OW 7849  11.067   7.864   9.893 -0.2791 -0.4728  0.5083
65375SOL    HW1 7850  10.984   7.909   9.909  0.5986  0.5759  2.4772
65375SOL    HW2 7851  11.112   7.866   9.977  2.1220 -0.2338 -0.6915
65376SOL     OW 7852   6.102  11.245   6.174  0.1417  0.5378 -0.2456
65376SOL    HW1 7853   6.028  11.265   6.116 -1.1559  0.8105  1.4154
65376SOL    HW2 7854   6.080  11.160   6.211  2.0310 -0.6671 -1.7213
65377SOL     OW 7855   5.159   4.690   2.909  0.6429  0.4492 -0.4018
65377SOL    HW1 7856   5.147   4.699   3.004  1.6215  0.0564 -0.2342
65377SOL    HW2 7857   5.074   4.659   2.877  0.3622  0.4031  0.3698
65378SOL     OW 7858   9.668   8.484  12.836 -0.1064  0.0010  0.0745
65378SOL    HW1 7859   9.709   8.436  12.764  1.4331  0.6969  0.4386
65378SOL    HW2 7860   9.723   8.561  12.847 -0.1654 -0.1878  2.1232
65379SOL     OW 7861   7.731   0.658   4.612  0.1154  0.6384 -0.4619
65379SOL    HW1 7862   7.755   0.609   4.533 -0.2094  1.6023 -1.1918
65379SOL    HW2 7863   7.815   0.686   4.650  0.3173 -0.7939  0.1921
65380SOL     OW 7864   7.879   2.710   6.254 -0.4033  0.0019  0.0455
65380SOL    HW1 7865   7.966   2.678   6.232 -0.5396 -1.0186  0.9002
65380SOL    HW2 7866   7.827   2.694   6.175 -0.3209 -1.3887  0.2440
65381SOL     OW 7867   2.310  12.612  10.147  0.5918 -0.0182 -0.0995
65381SOL    HW1 7868   2.298  12.670  10.072 -0.7071  0.8216  0.7217
65381SOL    HW2 7869   2.338  12.670  10.218  1.8678 -0.8111  0.0780
65382SOL     OW 7870   8.050  10.739   8.786 -0.4311 -0.0325  0.0752
65382SOL    HW1 7871   8.120  10.780   8.838 -1.3178  3.0042 -0.9479
65382SOL    HW2 7872   7.978  10.728   8.848 -0.6716  1.3612  0.0706
65383SOL     OW 7873  11.769   4.545  11.812 -0.4888 -0.1592  0.0809
65383SOL    HW1 7874  11.830   4.476  11.837  0.2439  0.2862 -0.4434
65383SOL    HW2 7875  11.688   4.499  11.791 -0.0360 -0.8471 -0.1793
65384SOL     OW 7876   2.396   1.798   1.593  0.3986  0.6171 -0.3260
65384SOL    HW1 7877   2.303   1.786   1.611  0.0604  1.0645 -1.6405
65384SOL    HW2 7878   2.437   1.715   1.617 -0.2293  0.6426  0.8860
65385SOL     OW 7879  13.708  11.770   2.177 -0.5997  0.1516  0.0601
65385SOL    HW1 7880  13.673  11.836   2.118 -1.9942 -0.0154  0.6717
65385SOL    HW2 7881  13.702  11.688   2.128 -0.7548  0.1754  0.0384
65386SOL     OW 7882   5.095   1.574   2.243 -0.2189 -0.3338 -0.3439
65386SOL    HW1 7883   5.083   1.563   2.338  1.5605  1.5131  0.1883
65386SOL    HW2 7884   5.180   1.533   2.225  1.3110  2.5179 -0.3006
65387SOL     OW 7885  12.193   5.324   3.725 -0.1246 -0.3355 -0.1568
65387SOL    HW1 7886  12.159   5.408   3.755 -0.1843 -0.3632 -0.1472
65387SOL    HW2 7887  12.243   5.345   3.645 -0.3159 -0.3206 -0.2727
65388SOL     OW 7888  10.324  12.128   5.818 -0.2731 -0.2446  0.2456
65388SOL    HW1 7889  10.318  12.213   5.861  0.9851 -0.4287  0.8219
65388SOL    HW2 7890  10.393  12.082   5.865 -0.4528 -1.3287 -0.5106
65389SOL     OW 7891  12.527   2.634   5.700  0.0328 -0.2616  0.1877
65389SOL    HW1 7892  12.602   2.667   5.650 -0.1211  0.7633  0.6153
65389SOL    HW2 7893  12.458   2.699   5.686  0.4313  0.8452  2.8841
65390SOL     OW 7894   0.035   9.735   4.745 -0.1215  0.3877 -0.3473
65390SOL    HW1 7895   0.092   9.686   4.803  0.0198  1.3696  0.3720
65390SOL    HW2 7896  -0.053   9.724   4.781 -0.3440 -0.7028 -1.1619
65391SOL     OW 7897  12.947  13.701  12.704 -0.0619 -0.4708  0.7497
65391SOL    HW1 7898  12.953  13.792  12.733 -0.7858 -0.5767  1.2421
65391SOL    HW2 7899  12.983  13.702  12.615 -2.7591  0.8663 -0.4218
65392SOL     OW 7900   9.292  13.620  12.543  0.2327 -0.2835 -0.8107
65392SOL    HW1 7901   9.277  13.586  12.631 -2.1620  0.0864 -1.0131
65392SOL    HW2 7902   9.279  13.714  12.551  0.5087 -0.1808 -1.4826
65393SOL     OW 7903   6.303   9.659   5.328  0.1415 -0.3837 -0.8019
65393SOL    HW1 7904   6.223   9.621   5.290 -0.1348 -0.0110 -0.5917
65393SOL    HW2 7905   6.295   9.753   5.312 -1.0629  0.1160  2.1380
65394SOL     OW 7906   2.958  11.893   6.228 -0.6431 -0.2247  0.2854
65394SOL    HW1 7907   2.899  11.930   6.162  1.2342 -0.3818 -1.6107
65394SOL    HW2 7908   2.968  11.963   6.292 -0.8570  0.7951 -0.7419
65395SOL     OW 7909  12.774  11.884  11.438  0.6644  0.3473  0.2246
65395SOL    HW1 7910  12.820  11.832  11.504  0.3937  0.2233  0.3159
65395SOL    HW2 7911  12.709  11.824  11.401 -0.5117  0.9890  1.2106
65396SOL     OW 7912   0.432   6.880   1.273 -0.2630  0.1893  0.3078
65396SOL    HW1 7913   0.520   6.916   1.274  0.0426 -0.4130 -1.5510
65396SOL    HW2 7914   0.393   6.911   1.355  2.1986 -0.9324  2.0204
65397SOL     OW 7915   0.335   6.697   9.128  0.2381  0.3095  0.0466
65397SOL    HW1 7916   0.373   6.710   9.215  0.4714  1.7755 -0.2460
65397SOL    HW2 7917   0.411   6.689   9.070  0.1058  0.8841 -0.2171
65398SOL     OW 7918   0.500   0.370   4.110 -0.3446  0.2828 -0.7281
65398SOL    HW1 7919   0.586   0.328   4.115 -0.8504 -1.3839 -3.6627
65398SOL    HW2 7920   0.445   0.318   4.169  0.1960  0.0180 -0.4442
65399SOL     OW 7921  11.470  12.537   7.144 -0.2547 -0.9631 -0.4192
65399SOL    HW1 7922  11.509  12.624   7.135 -0.3901 -0.2646  3.6056
65399SOL    HW2 7923  11.385  12.543   7.100  0.7497  0.0763 -2.3143
65400SOL     OW 7924  11.717   7.482  13.086  0.4407  0.0751 -0.1425
65400SOL    HW1 7925  11.808   7.459  13.069  0.1121 -1.9592  0.6247
65400SOL    HW2 7926  11.671   7.456  13.007  0.2731 -0.5499  0.1594
65401SOL     OW 7927   2.784   0.906   0.903 -0.2138 -0.2611  0.0100
65401SOL    HW1 7928   2.853   0.935   0.962 -0.4014 -0.1424  0.1733
65401SOL    HW2 7929   2.707   0.894   0.959 -0.1018 -1.2218 -0.0338
65402SOL     OW 7930   2.537   8.887   8.242  0.1302  0.1269 -0.4615
65402SOL    HW1 7931   2.448   8.905   8.213 -0.3448 -0.3801  0.6046
65402SOL    HW2 7932   2.552   8.796   8.219  0.6801  0.4328 -1.3548
65403SOL     OW 7933   4.123   3.337   8.213  0.2858  0.7422 -0.5202
65403SOL    HW1 7934   4.176   3.270   8.256 -0.8322 -0.5330 -1.0777
65403SOL    HW2 7935   4.186   3.402   8.183  1.3719  0.0707  0.2407
65404SOL     OW 7936   0.824   5.058   9.778 -0.4859 -0.1147  0.5348
65404SOL    HW1 7937   0.886   5.064   9.850 -0.1478 -0.8436  0.3131
65404SOL    HW2 7938   0.812   4.964   9.763 -1.3340  0.0154  0.3069
65405SOL     OW 7939   4.891   6.344   7.089 -0.7787  0.5613 -0.0352
65405SOL    HW1 7940   4.870   6.253   7.069 -0.2574  0.4685 -0.1685
65405SOL    HW2 7941   4.972   6.361   7.042 -1.0678  1.2084 -0.3144
65406SOL     OW 7942   2.711   3.561   6.642 -0.0381  0.0855 -0.2694
65406SOL    HW1 7943   2.664   3.480   6.659  0.8002 -0.1494  1.0809
65406SOL    HW2 7944   2.791   3.534   6.597  0.4610  0.1039  0.5950
65407SOL     OW 7945   0.733  11.084  11.432  0.4344 -0.6866 -0.0765
65407SOL    HW1 7946   0.726  11.081  11.527  1.6157  0.5493  0.0786
65407SOL    HW2 7947   0.735  10.992  11.405  1.2473 -1.0677  1.1961
65408SOL     OW 7948   1.979   1.707  10.354 -0.2338 -0.0619  0.1210
65408SOL    HW1 7949   1.982   1.621  10.396  2.1350  0.0638  0.3173
65408SOL    HW2 7950   1.907   1.752  10.398  1.7003 -0.1525  3.7298
65409SOL     OW 7951   4.154   7.917   8.038 -0.2344 -0.3658 -0.3140
65409SOL    HW1 7952   4.182   7.826   8.052  1.3068  0.3220  1.4513
65409SOL    HW2 7953   4.058   7.912   8.037 -0.2022 -2.1944 -1.9340
65410SOL     OW 7954   6.119   5.301   7.339  0.0446  0.1248  0.2002
65410SOL    HW1 7955   6.123   5.265   7.251 -0.3339 -0.1256  0.2874
65410SOL    HW2 7956   6.209   5.294   7.371  0.4256  1.2023 -0.5526
65411SOL     OW 7957   1.304   9.272   8.360 -0.0931  0.5346  0.1343
65411SOL    HW1 7958   1.298   9.362   8.391 -1.3339  0.8184 -0.8123
65411SOL    HW2 7959   1.214   9.250   8.335  0.3543 -0.6538 -0.5093
65412SOL     OW 7960   4.948  12.409   8.720 -0.0181 -0.3144 -0.5382
65412SOL    HW1 7961   4.967  12.316   8.730 -1.9196 -0.6971 -0.0921
65412SOL    HW2 7962   4.892  12.431   8.795 -1.6569  0.5598 -1.9413
65413SOL     OW 7963   1.256  11.782   7.888 -0.3372 -0.3811  0.1254
65413SOL    HW1 7964   1.224  11.855   7.835 -1.9526 -1.3924 -0.3874
65413SOL    HW2 7965   1.269  11.711   7.826 -1.6260 -1.3864  0.9361
65414SOL     OW 7966   1.795   1.685   9.732  0.0750 -0.2063 -0.1239
65414SOL    HW1 7967   1.847   1.763   9.747 -0.9618  0.8028 -1.5169
65414SOL    HW2 7968   1.838   1.640   9.659 -0.4955  0.1828 -0.7118
65415SOL     OW 7969   9.050   9.426   5.783  0.6066 -0.3205  0.4010
65415SOL    HW1 7970   9.031   9.342   5.824 -0.6514 -0.2987 -0.0830
65415SOL    HW2 7971   8.964   9.461   5.760  1.1956  0.0619 -1.4189
65416SOL     OW 7972   0.984   4.102   3.852 -0.0297 -0.4478  0.2623
65416SOL    HW1 7973   0.996   4.154   3.931 -0.9374  1.5862 -0.8417
65416SOL    HW2 7974   0.920   4.035   3.876 -2.8888  2.1318  0.5571
65417SOL     OW 7975   0.710  13.213   4.487  0.3725  0.3245 -0.0008
65417SOL    HW1 7976   0.699  13.288   4.545  3.3492  0.4251  0.5601
65417SOL    HW2 7977   0.721  13.138   4.547  0.9197  0.0164 -0.4816
65418SOL     OW 7978   5.769   9.349   8.902 -0.3203 -0.3248 -0.3570
65418SOL    HW1 7979   5.674   9.339   8.895 -0.5776  0.4640  1.3798
65418SOL    HW2 7980   5.789   9.427   8.850 -1.1613  1.4358  1.7468
65419SOL     OW 7981  11.943   9.467   9.207 -0.6138  0.2937  0.3889
65419SOL    HW1 7982  11.919   9.440   9.119  0.4161 -0.2522  0.2631
65419SOL    HW2 7983  11.921   9.560   9.211 -0.2713  0.4249 -0.5932
65420SOL     OW 7984   2.433   6.623  13.693  0.2603 -0.9465 -0.2409
65420SOL    HW1 7985   2.500   6.589  13.752  1.0549  2.7023  1.2477
65420SOL    HW2 7986   2.354   6.629  13.746  0.6610  1.2058  0.2087
65421SOL     OW 7987   8.153  12.318   2.699 -0.1461 -0.7542  0.6883
65421SOL    HW1 7988   8.178  12.385   2.636 -0.4618 -0.3140  1.0266
65421SOL    HW2 7989   8.192  12.347   2.782 -1.1634 -0.4237  1.0722
65422SOL     OW 7990   3.291   7.740  11.802  0.4283  0.6977 -0.1273
65422SOL    HW1 7991   3.380   7.768  11.779  0.8601 -1.4754 -1.4076
65422SOL    HW2 7992   3.293   7.727  11.896  0.4424  3.8439  0.4228
65423SOL     OW 7993  10.333   7.087   9.826 -0.8696  0.3598  0.0167
65423SOL    HW1 7994  10.329   7.038   9.744 -0.1261  1.4519 -0.6960
65423SOL    HW2 7995  10.426   7.088   9.849 -1.0649  0.1214  0.8499
65424SOL     OW 7996  10.259   2.131   3.212 -0.6378  0.0981 -0.3727
65424SOL    HW1 7997  10.244   2.177   3.129  0.8659 -1.8082 -1.8087
65424SOL    HW2 7998  10.342   2.165   3.244 -0.7039  0.0847 -0.1859
65425SOL     OW 7999   4.431  10.615  10.739  0.1749  0.2220  0.1162
65425SOL    HW1 8000   4.513  10.636  10.695  0.0588 -0.1115 -0.2683
65425SOL    HW2 8001   4.382  10.565  10.674  0.0534 -0.3851  0.6700
65426SOL     OW 8002   2.211  13.017   3.724 -0.7908 -0.1199  0.0437
65426SOL    HW1 8003   2.248  13.099   3.757 -0.0479 -1.0936  1.7750
65426SOL    HW2 8004   2.166  13.042   3.643 -1.3552  2.1530  0.9659
65427SOL     OW 8005  12.329  10.370   7.057 -0.0516  0.2443 -0.0056
65427SOL    HW1 8006  12.255  10.362   6.997 -0.3224 -1.8267  0.5320
65427SOL    HW2 8007  12.406  10.351   7.003 -0.1156  0.2621 -0.1030
65428SOL     OW 8008   2.185  12.066   7.842  0.0764  0.0381  0.3496
65428SOL    HW1 8009   2.104  12.111   7.817 -0.0931  0.0966  0.9898
65428SOL    HW2 8010   2.240  12.135   7.879  0.4343  0.0043 -0.1081
65429SOL     OW 8011   1.279   9.958   5.680  0.1820  0.5057 -0.3253
65429SOL    HW1 8012   1.198  10.008   5.688  0.6874  1.0428  2.6917
65429SOL    HW2 8013   1.347  10.017   5.713  0.6757 -2.2139  4.3696
65430SOL     OW 8014   3.626   0.333   1.726  0.1178 -0.1469  0.1785
65430SOL    HW1 8015   3.654   0.345   1.635  1.3677 -1.1457  0.3888
65430SOL    HW2 8016   3.673   0.255   1.754 -2.1725 -1.3387  0.9338
65431SOL     OW 8017   2.476   8.933  10.375  0.2591 -0.2344 -0.1305
65431SOL    HW1 8018   2.526   9.001  10.330 -0.9074 -0.0413 -1.1666
65431SOL    HW2 8019   2.407   8.980  10.421  0.2170 -0.6113  0.2000
65432SOL     OW 8020  10.816   9.686   1.145 -0.6136  0.4261 -0.7241
65432SOL    HW1 8021  10.871   9.746   1.196 -2.3493  0.5119  1.1630
65432SOL    HW2 8022  10.850   9.599   1.165 -1.3958  0.4423  0.8124
65433SOL     OW 8023   6.449  12.583   2.395 -0.3766  1.1425 -0.5090
65433SOL    HW1 8024   6.500  12.656   2.360  1.1505  0.4575  0.1933
65433SOL    HW2 8025   6.485  12.506   2.351  0.4291  0.4588  1.2800
65434SOL     OW 8026   0.324   7.981  13.382 -0.2864  0.1772 -0.0731
65434SOL    HW1 8027   0.310   7.895  13.344  0.4750 -1.0191  2.1610
65434SOL    HW2 8028   0.236   8.012  13.403 -0.5540 -0.1566 -0.6824
65435SOL     OW 8029  10.913   4.498   1.094  0.0087 -0.1505  0.4414
65435SOL    HW1 8030  10.985   4.525   1.152  0.6618 -2.3397  0.7383
65435SOL    HW2 8031  10.953   4.494   1.007 -0.5769  1.5930  0.0509
65436SOL     OW 8032   5.907   2.807   3.849 -0.3388 -0.5396 -0.4929
65436SOL    HW1 8033   5.928   2.806   3.756  2.0636 -0.2554 -0.0169
65436SOL    HW2 8034   5.965   2.741   3.888  1.5933  2.0215  1.2751
65437SOL     OW 8035   5.869   9.617   3.908 -0.4149  0.6440 -0.0004
65437SOL    HW1 8036   5.911   9.702   3.891 -1.5230  0.9739 -1.2320
65437SOL    HW2 8037   5.775   9.637   3.910 -0.7374 -0.6393 -0.9800
65438SOL     OW 8038  11.008   3.407   1.774 -0.2620 -0.0864 -0.0422
65438SOL    HW1 8039  11.002   3.452   1.690  0.6321  0.9023  0.3999
65438SOL    HW2 8040  10.921   3.417   1.813 -0.1021  1.2653  0.0275
65439SOL     OW 8041   0.236   7.776   8.569 -0.3348  0.0212 -0.3593
65439SOL    HW1 8042   0.326   7.811   8.565 -1.0259  1.9671 -0.1740
65439SOL    HW2 8043   0.186   7.835   8.513 -1.8810  0.3270  1.2688
65440SOL     OW 8044   4.454   8.500   8.808  0.1485  0.0079  0.5471
65440SOL    HW1 8045   4.438   8.447   8.729 -0.3947  0.3318  0.4308
65440SOL    HW2 8046   4.444   8.438   8.880 -0.8143  0.0042  0.4290
65441SOL     OW 8047   3.172   7.420   9.291 -0.2529  0.3724  0.3934
65441SOL    HW1 8048   3.265   7.397   9.282 -0.4586 -0.4003  0.1593
65441SOL    HW2 8049   3.158   7.425   9.386  0.8963  4.2359  0.5194
65442SOL     OW 8050   0.680   5.891  10.967  0.2881  0.3360  0.1965
65442SOL    HW1 8051   0.602   5.934  10.932  0.2160 -0.1670 -0.2951
65442SOL    HW2 8052   0.683   5.916  11.059 -0.0155  0.9904  0.0311
65443SOL     OW 8053  12.770   1.314   5.262 -0.1822  0.5252  0.2387
65443SOL    HW1 8054  12.746   1.265   5.340  0.0840  2.4737  1.6160
65443SOL    HW2 8055  12.691   1.316   5.209 -0.3893 -0.7747  0.4696
65444SOL     OW 8056  13.109  12.838  11.691 -0.2380 -0.0951  0.1033
65444SOL    HW1 8057  13.161  12.891  11.752  0.2103 -0.6378  0.2079
65444SOL    HW2 8058  13.040  12.801  11.745 -0.2515 -0.0227  0.1372
65445SOL     OW 8059  10.584   4.463  10.914  0.6317 -0.4967 -0.2522
65445SOL    HW1 8060  10.598   4.368  10.914  0.1961 -0.6134  2.0550
65445SOL    HW2 8061  10.503   4.475  10.963  0.2786  1.0565 -1.1535
65446SOL     OW 8062   8.667   8.239  12.266 -0.0698 -0.2448 -0.0390
65446SOL    HW1 8063   8.729   8.171  12.240 -1.2178 -1.5937  0.6101
65446SOL    HW2 8064   8.598   8.192  12.312 -0.3103  1.5265  1.5276
65447SOL     OW 8065   1.975  13.126   9.871 -0.0794  0.1652 -0.4437
65447SOL    HW1 8066   1.962  13.031   9.873  0.0232  0.1356 -1.0148
65447SOL    HW2 8067   1.992  13.150   9.962 -2.7344  0.0174  0.1849
65448SOL     OW 8068   2.328   1.012   2.060 -0.2644 -0.2068 -0.4609
65448SOL    HW1 8069   2.422   1.001   2.048 -0.3936 -0.9530 -0.8798
65448SOL    HW2 8070   2.296   0.925   2.082 -0.7044  0.2547  0.8103
65449SOL     OW 8071   3.667   2.966   3.631  0.4078  0.2231 -0.2245
65449SOL    HW1 8072   3.657   2.890   3.689  1.2665 -0.3564 -0.8281
65449SOL    HW2 8073   3.683   3.039   3.691  2.4644 -0.5615  0.2833
65450SOL     OW 8074   5.998   1.783   3.157  0.1096 -0.4870 -0.1608
65450SOL    HW1 8075   6.025   1.811   3.069 -1.1934 -1.5452 -0.9159
65450SOL    HW2 8076   5.936   1.713   3.142  2.3455 -3.0569  1.6490
65451SOL     OW 8077   7.726   2.121   5.405  0.4187  0.1524 -0.3359
65451SOL    HW1 8078   7.639   2.148   5.374  1.2334  0.5645 -2.4547
65451SOL    HW2 8079   7.762   2.200   5.445  0.4596  0.4843 -1.0113
65452SOL     OW 8080   8.369   3.462   4.139 -0.3819  0.1047 -0.5119
65452SOL    HW1 8081   8.464   3.463   4.125 -0.5372  0.0459 -1.5797
65452SOL    HW2 8082   8.357   3.401   4.212  0.3967  0.1126 -0.3588
65453SOL     OW 8083   6.709  13.716   9.996  0.4490  0.6619  0.3561
65453SOL    HW1 8084   6.662  13.775   9.937  0.1468  0.7930  0.7214
65453SOL    HW2 8085   6.699  13.756  10.083 -0.3047 -0.2493  0.7079
65454SOL     OW 8086   7.120  12.965   9.897  0.0498 -0.0229  0.0493
65454SOL    HW1 8087   7.181  12.994   9.964 -0.7546  0.5708  0.5574
65454SOL    HW2 8088   7.131  12.870   9.892  0.9616  0.0748  0.1623
65455SOL     OW 8089   8.824  11.463  10.656  0.2534 -0.4007 -0.2002
65455SOL    HW1 8090   8.844  11.432  10.744 -1.0733 -0.9034 -0.0463
65455SOL    HW2 8091   8.902  11.444  10.605  0.2788 -2.0314  0.3949
65456SOL     OW 8092   6.399  11.289   9.749  0.2187 -0.3554 -0.0645
65456SOL    HW1 8093   6.405  11.323   9.838  1.8463  0.3290 -0.3966
65456SOL    HW2 8094   6.434  11.200   9.755 -0.1352 -0.4846  0.0728
65457SOL     OW 8095   7.183   6.666   3.489 -0.3281  0.7410  0.1573
65457SOL    HW1 8096   7.131   6.693   3.414 -0.9710 -0.5393  0.1173
65457SOL    HW2 8097   7.196   6.747   3.539  1.1262  1.8732 -1.8815
65458SOL     OW 8098  11.975   6.332   0.287  0.5443 -0.8656  0.2067
65458SOL    HW1 8099  11.923   6.345   0.207  2.3835 -1.6605 -1.1896
65458SOL    HW2 8100  11.938   6.254   0.327 -0.4564 -0.4153  0.2023
65459SOL     OW 8101   8.792  12.566  13.398  0.7161  0.3835 -0.0998
65459SOL    HW1 8102   8.828  12.654  13.390 -1.8495  1.7358  1.5341
65459SOL    HW2 8103   8.728  12.573  13.470 -0.5556 -2.4803 -0.8005
65460SOL     OW 8104   3.848  12.223   9.213  0.5528  0.3352 -0.0192
65460SOL    HW1 8105   3.863  12.129   9.199  1.7683  0.5500 -0.2440
65460SOL    HW2 8106   3.756  12.229   9.238  0.5055 -0.9411  0.1699
65461SOL     OW 8107   0.740   4.046   4.723 -0.7405  0.4294  0.4401
65461SOL    HW1 8108   0.756   3.967   4.775  2.6029  0.3465 -0.4952
65461SOL    HW2 8109   0.778   4.117   4.775 -0.4343  0.8524 -0.3493
65462SOL     OW 8110   8.625   7.577   0.062  0.0529  0.1176  0.1603
65462SOL    HW1 8111   8.651   7.621   0.143  0.1811  0.9996 -0.3515
65462SOL    HW2 8112   8.638   7.484   0.080 -1.6900  0.1392  1.7881
65463SOL     OW 8113   5.506   3.430  10.237  0.0424 -0.0878 -0.3887
65463SOL    HW1 8114   5.575   3.495  10.221  0.2602 -0.3408 -0.4821
65463SOL    HW2 8115   5.554   3.349  10.254 -0.1926 -0.0159  0.7278
65464SOL     OW 8116  11.784  12.043   4.529  0.6318 -0.6645 -0.3645
65464SOL    HW1 8117  11.871  12.008   4.510 -0.0020 -1.4239 -2.0549
65464SOL    HW2 8118  11.757  11.998   4.608  1.8475 -0.2622  0.3116
65465SOL     OW 8119   5.403  11.376   5.726 -0.3799  0.2668  0.5280
65465SOL    HW1 8120   5.329  11.360   5.785 -0.0755 -0.3741  0.7435
65465SOL    HW2 8121   5.405  11.298   5.670 -0.3660  0.6535 -0.0115
65466SOL     OW 8122  10.770  11.381   9.445  0.3187 -0.5602 -0.2262
65466SOL    HW1 8123  10.806  11.461   9.406 -0.4581 -1.1869 -2.4052
65466SOL    HW2 8124  10.778  11.315   9.375 -0.8188 -1.8799  0.8314
65467SOL     OW 8125   0.520   4.411  11.119  0.1200 -0.1115  0.0593
65467SOL    HW1 8126   0.598   4.409  11.063 -0.2414 -0.6705 -0.4369
65467SOL    HW2 8127   0.486   4.500  11.108  1.5144  0.6434  1.4697
65468SOL     OW 8128   1.402   5.748   9.882  0.5468  0.4303 -1.0068
65468SOL    HW1 8129   1.309   5.736   9.864  0.4536  0.1539 -0.3847
65468SOL    HW2 8130   1.429   5.667   9.926  0.5337  1.3890  0.8896
65469SOL     OW 8131   7.036  10.594  12.896  0.1998 -0.3636 -0.9190
65469SOL    HW1 8132   7.132  10.593  12.897  0.2278 -0.5428  1.2436
65469SOL    HW2 8133   7.010  10.544  12.973 -1.6117  0.7650 -0.7144
65470SOL     OW 8134   7.644   5.465  11.457  0.2496  0.5432  0.3025
65470SOL    HW1 8135   7.672   5.518  11.532  0.9979  1.7264 -0.7645
65470SOL    HW2 8136   7.674   5.376  11.478  1.3061  1.0362  0.9627
65471SOL     OW 8137   6.517  11.851   7.085 -0.8015  0.3701 -0.1966
65471SOL    HW1 8138   6.488  11.939   7.063 -1.7786  0.0615 -0.1729
65471SOL    HW2 8139   6.562  11.819   7.007 -1.9640  0.2522 -0.8416
65472SOL     OW 8140  12.801   2.726   1.646 -0.3172  0.2765  0.2463
65472SOL    HW1 8141  12.872   2.789   1.657 -0.3885  0.5380 -0.6938
65472SOL    HW2 8142  12.752   2.730   1.728  1.8656 -1.3519  1.7277
65473SOL     OW 8143  11.657   6.162   0.673 -0.1521 -0.3345 -0.0886
65473SOL    HW1 8144  11.721   6.091   0.682  1.1906  0.9417  1.0161
65473SOL    HW2 8145  11.666   6.213   0.754 -1.9499  0.4156 -0.3079
65474SOL     OW 8146   9.383   9.094  10.573 -0.0287 -0.3779  0.2749
65474SOL    HW1 8147   9.294   9.099  10.609  0.3582 -1.0836  1.3535
65474SOL    HW2 8148   9.441   9.115  10.646  0.7008  0.4169 -0.5050
65475SOL     OW 8149   3.760  10.401   7.018 -0.1995  1.0511 -0.4226
65475SOL    HW1 8150   3.730  10.424   7.106 -2.8121  0.2010 -0.9930
65475SOL    HW2 8151   3.798  10.482   6.984 -1.7501  2.2275  0.4903
65476SOL     OW 8152   5.649   8.926  12.151 -0.2215  0.4250 -0.0272
65476SOL    HW1 8153   5.742   8.931  12.174  0.2875 -1.0159 -1.5686
65476SOL    HW2 8154   5.646   8.958  12.060 -1.5273  2.0751  0.5383
65477SOL     OW 8155  13.222  12.858   4.394  0.1992  0.1294  1.0939
65477SOL    HW1 8156  13.256  12.775   4.427  1.8313  0.7252  0.9887
65477SOL    HW2 8157  13.219  12.915   4.471 -3.5157 -0.7385  1.7641
65478SOL     OW 8158  13.663  10.318   0.389  0.5524 -0.3325  0.1215
65478SOL    HW1 8159  13.650  10.410   0.414  0.8192 -0.1289 -0.4586
65478SOL    HW2 8160  13.679  10.273   0.471 -1.9328 -0.2939  0.7017
65479SOL     OW 8161   8.047   2.225   8.646  0.2247 -0.2399 -0.1760
65479SOL    HW1 8162   8.028   2.133   8.630  0.9386 -0.3290 -0.5607
65479SOL    HW2 8163   8.050   2.233   8.741  0.1713 -0.6104 -0.1418
65480SOL     OW 8164   5.375  13.043  12.492  0.3870  0.0851  0.2938
65480SOL    HW1 8165   5.323  13.123  12.498 -0.9995 -0.7963  0.3358
65480SOL    HW2 8166   5.364  13.015  12.401 -2.9672 -2.4893  1.2937
65481SOL     OW 8167   0.382   5.615  10.642 -0.0601 -0.2812 -0.5244
65481SOL    HW1 8168   0.388   5.678  10.570  2.1677 -0.2675 -0.3994
65481SOL    HW2 8169   0.374   5.669  10.720  1.6443 -0.0822 -0.4363
65482SOL     OW 8170   9.686   8.045  13.571  0.3350  0.0077 -0.6010
65482SOL    HW1 8171   9.642   7.979  13.624  0.3085  0.4257 -0.1012
65482SOL    HW2 8172   9.770   8.005  13.548  0.3027 -0.2168 -0.3326
65483SOL     OW 8173   9.501   1.278   1.949  0.1908  0.2493  0.4063
65483SOL    HW1 8174   9.564   1.347   1.930  0.5109  0.1133  0.9390
65483SOL    HW2 8175   9.446   1.273   1.871  1.1268  0.0604 -0.2517
65484SOL     OW 8176   0.780   9.694  10.852 -0.7647  0.2383  0.4472
65484SOL    HW1 8177   0.766   9.693  10.758  1.9674  3.1982 -0.1739
65484SOL    HW2 8178   0.694   9.675  10.890 -1.8012 -1.6121 -2.5736
65485SOL     OW 8179   2.292   6.512  10.880 -0.1423 -0.4733  0.3277
65485SOL    HW1 8180   2.388   6.514  10.874  0.0140  1.0384  2.2924
65485SOL    HW2 8181   2.270   6.419  10.877  1.4452 -0.8816  0.4388
65486SOL     OW 8182   4.193   5.498   9.453 -0.2764  0.1739  0.4953
65486SOL    HW1 8183   4.234   5.501   9.540 -2.8682  0.8258  1.7853
65486SOL    HW2 8184   4.223   5.578   9.410  2.2062 -0.8458  0.1063
65487SOL     OW 8185   3.975   6.441  10.595 -0.3056 -0.0631  0.0637
65487SOL    HW1 8186   3.994   6.515  10.653  0.3710  0.3622 -0.6714
65487SOL    HW2 8187   3.904   6.471  10.540  1.1323  0.7547 -1.4369
65488SOL     OW 8188   1.043   6.045   0.192  0.0093  0.2027 -0.2256
65488SOL    HW1 8189   1.132   6.080   0.190  0.3192 -0.1842  2.6401
65488SOL    HW2 8190   0.988   6.121   0.170  0.9478  1.1126  0.4333
65489SOL     OW 8191   8.073  10.654   0.511  0.3561 -0.2589  0.8540
65489SOL    HW1 8192   8.163  10.636   0.483  0.2051  0.3251 -0.0390
65489SOL    HW2 8193   8.043  10.723   0.452 -0.3236  0.3126  1.8369
65490SOL     OW 8194   2.421  12.424   9.958  0.0190 -0.0611 -0.6421
65490SOL    HW1 8195   2.488  12.367   9.996 -0.0302 -0.0277 -0.5078
65490SOL    HW2 8196   2.390  12.477  10.031  0.5236  0.5954 -0.8916
65491SOL     OW 8197   3.153   1.537  13.235 -0.1185 -0.2541  0.8036
65491SOL    HW1 8198   3.190   1.519  13.148 -1.9667  1.3049 -0.4137
65491SOL    HW2 8199   3.121   1.452  13.265 -1.2210 -0.5348 -0.9775
65492SOL     OW 8200  12.297   8.415   5.890 -0.0350  0.3664  0.1785
65492SOL    HW1 8201  12.344   8.466   5.824  1.3125 -0.7040  0.2621
65492SOL    HW2 8202  12.205   8.442   5.881  0.0980  0.2474 -2.1464
65493SOL     OW 8203   5.266  12.120   4.690 -0.3232  0.1266 -0.4800
65493SOL    HW1 8204   5.217  12.095   4.768 -2.2025 -0.6386 -1.8544
65493SOL    HW2 8205   5.237  12.209   4.671  0.9423  0.7236  0.2686
65494SOL     OW 8206  12.460   5.800   4.914  0.6838 -0.4541 -0.0250
65494SOL    HW1 8207  12.484   5.849   4.993 -0.8852 -0.0533  0.2349
65494SOL    HW2 8208  12.392   5.739   4.944 -0.7667  0.5061 -1.2671
65495SOL     OW 8209   9.541  10.903   9.114  0.0331 -0.2395  0.0334
65495SOL    HW1 8210   9.532  10.814   9.147  0.8772 -0.8462 -1.2645
65495SOL    HW2 8211   9.495  10.903   9.030 -0.2833  0.6555  0.1901
65496SOL     OW 8212  10.464   7.369   7.084 -0.7518 -0.6242 -0.2401
65496SOL    HW1 8213  10.483   7.278   7.062 -1.8157 -1.0833  0.6619
65496SOL    HW2 8214  10.438   7.367   7.176  0.2909  0.7542  0.1295
65497SOL     OW 8215   7.972  10.213   4.087 -0.4882 -0.3785  0.6039
65497SOL    HW1 8216   8.028  10.135   4.095  0.2063 -0.1028 -1.2558
65497SOL    HW2 8217   7.906  10.188   4.023  0.4768  0.9384 -0.9762
65498SOL     OW 8218  11.168   8.928   5.194  0.4216  0.3114  0.0970
65498SOL    HW1 8219  11.107   8.959   5.127  0.0524 -1.0620 -0.2244
65498SOL    HW2 8220  11.254   8.932   5.152  0.7314  2.9219  0.7768
65499SOL     OW 8221   6.337   9.674   8.800  0.3333 -0.2769 -0.0102
65499SOL    HW1 8222   6.269   9.607   8.809 -0.0922  0.1865  0.2111
65499SOL    HW2 8223   6.374   9.682   8.888  0.0540  0.1328  0.0683
65500SOL     OW 8224   1.234  11.582   7.652  0.6720  0.4386  0.6363
65500SOL    HW1 8225   1.152  11.544   7.685  0.5664 -0.0112 -0.1203
65500SOL    HW2 8226   1.245  11.542   7.566  0.8627  1.7095  0.0620
65501SOL     OW 8227   3.743   4.696  10.564  0.2924  0.3119 -0.0501
65501SOL    HW1 8228   3.776   4.619  10.611  0.2664 -0.1804 -0.8225
65501SOL    HW2 8229   3.661   4.717  10.608  0.3385 -0.0464  0.2194
65502SOL     OW 8230   2.240  11.703   8.104 -0.1683  0.4415  0.4101
65502SOL    HW1 8231   2.217  11.795   8.118 -1.3324  0.3634 -0.8059
65502SOL    HW2 8232   2.233  11.691   8.009  0.7721 -0.7133  0.4618
65503SOL     OW 8233   2.337   2.621   0.319 -0.3408  0.3196 -0.0456
65503SOL    HW1 8234   2.404   2.615   0.387  0.7772  0.8834 -1.0815
65503SOL    HW2 8235   2.315   2.714   0.315 -0.4262  0.2824 -0.4504
65504SOL     OW 8236   8.488   4.997   7.225  0.0579 -0.1677  0.4517
65504SOL    HW1 8237   8.535   4.914   7.232 -1.4038 -0.9266  2.1694
65504SOL    HW2 8238   8.398   4.971   7.203 -1.1775  0.6330  3.9403
65505SOL     OW 8239   1.022   4.084  11.471  0.3277  0.5549  0.0077
65505SOL    HW1 8240   0.948   4.079  11.411 -0.4233  1.2073  0.8576
65505SOL    HW2 8241   1.098   4.095  11.415 -0.4471  2.0132 -0.8156
65506SOL     OW 8242  10.986  12.351   7.963 -0.5146 -0.4301 -0.1494
65506SOL    HW1 8243  10.952  12.278   8.014  0.8609 -1.5580 -0.7579
65506SOL    HW2 8244  10.993  12.423   8.025 -0.4485 -1.2709  0.8408
65507SOL     OW 8245   4.469   0.804   5.274  0.1603  0.9727 -0.0981
65507SOL    HW1 8246   4.474   0.745   5.199  0.0700  0.6488  0.1484
65507SOL    HW2 8247   4.514   0.884   5.245 -1.2612  1.4702 -1.0532
65508SOL     OW 8248   3.161   5.380  10.631 -0.2532  0.3374 -0.5848
65508SOL    HW1 8249   3.176   5.305  10.689 -0.8856  0.4521 -0.2658
65508SOL    HW2 8250   3.161   5.342  10.543 -0.8343 -0.0854 -0.4103
65509SOL     OW 8251  13.468  11.292   2.910  0.0901 -0.0614  0.7139
65509SOL    HW1 8252  13.443  11.200   2.916 -0.6202  0.1269  0.6191
65509SOL    HW2 8253  13.487  11.318   3.001  0.5097 -0.3533  0.7146
65510SOL     OW 8254   6.257   7.172   8.931  0.2890 -0.5231 -0.0971
65510SOL    HW1 8255   6.237   7.264   8.949  0.1046 -0.5567 -0.1259
65510SOL    HW2 8256   6.337   7.175   8.879  0.7979 -0.4191  0.6714
65511SOL     OW 8257   3.845  11.210   7.256 -0.0136  0.5996  0.5980
65511SOL    HW1 8258   3.854  11.249   7.343 -1.6084 -0.0547  1.0940
65511SOL    HW2 8259   3.816  11.283   7.200  0.5665  0.9166  0.7045
65512SOL     OW 8260   4.745   8.734   6.929 -0.7996  0.0039  0.5758
65512SOL    HW1 8261   4.650   8.727   6.919 -0.7444  0.3073 -0.2862
65512SOL    HW2 8262   4.773   8.646   6.951 -1.1435 -0.4250 -0.5873
65513SOL     OW 8263   6.725   0.892   6.243 -0.1856  0.0076 -0.5381
65513SOL    HW1 8264   6.697   0.828   6.309 -0.9567  0.4978 -0.3812
65513SOL    HW2 8265   6.646   0.941   6.222  0.5733  1.5183  0.0108
65514SOL     OW 8266  11.196   7.537  10.280 -0.1229 -0.2261  0.6389
65514SOL    HW1 8267  11.234   7.451  10.298 -0.3352 -0.1596  1.4281
65514SOL    HW2 8268  11.252   7.598  10.327  1.4597  0.3479 -1.7988
65515SOL     OW 8269  13.742  11.653   4.680  0.0545 -0.3786 -0.0149
65515SOL    HW1 8270  13.706  11.720   4.622 -0.2900 -1.0430 -0.5952
65515SOL    HW2 8271  13.753  11.577   4.623  2.6136 -0.1567  0.0894
65516SOL     OW 8272   1.708   3.200   4.281  0.1099 -0.3602  0.2568
65516SOL    HW1 8273   1.699   3.264   4.210  0.5181 -1.4196 -0.7878
65516SOL    HW2 8274   1.773   3.137   4.249  0.8998 -0.4519  1.9087
65517SOL     OW 8275   9.413  10.042   8.967  0.2551 -0.0589  0.0342
65517SOL    HW1 8276   9.338  10.064   9.022  1.0032 -1.7442  1.8423
65517SOL    HW2 8277   9.453  10.126   8.946 -0.6464  0.7022  1.2412
65518SOL     OW 8278  12.245   4.891   8.176 -0.2753 -0.1684 -0.0840
65518SOL    HW1 8279  12.198   4.962   8.219 -0.3713 -1.1367  1.5024
65518SOL    HW2 8280  12.320   4.933   8.134 -0.2042  0.8543  1.0041
65519SOL     OW 8281   3.342   9.660   6.808 -1.0283  0.0178  0.4362
65519SOL    HW1 8282   3.319   9.623   6.893 -1.3072  0.0840  0.3878
65519SOL    HW2 8283   3.260   9.664   6.759 -0.6787 -1.2252 -0.3116
65520SOL     OW 8284  11.220   0.039   3.925  0.2733  0.3938  0.4483
65520SOL    HW1 8285  11.253   0.128   3.934 -0.2679  0.6286  0.1748
65520SOL    HW2 8286  11.138   0.038   3.974  0.3354  0.0160  0.5473
65521SOL     OW 8287   1.886   0.867   0.647 -0.4259  0.2351  0.5002
65521SOL    HW1 8288   1.845   0.886   0.732 -0.1892 -1.1550  0.9445
65521SOL    HW2 8289   1.813   0.836   0.593 -0.4229  0.3033  0.4569
65522SOL     OW 8290   4.387  10.322  13.419 -0.7629 -0.2619 -0.1334
65522SOL    HW1 8291   4.447  10.375  13.368 -0.5094 -1.5820 -1.2503
65522SOL    HW2 8292   4.330  10.280  13.354 -1.6410 -0.5451  0.7831
65523SOL     OW 8293  10.375   9.890   8.259 -0.1179  0.5208  0.4378
65523SOL    HW1 8294  10.371   9.943   8.338  0.3668  1.3308 -0.0734
65523SOL    HW2 8295  10.292   9.905   8.215  0.0729  0.9733  0.2259
65524SOL     OW 8296  12.533   4.150   5.182  0.4746 -0.0886  0.0135
65524SOL    HW1 8297  12.540   4.187   5.093 -2.3025  0.5766 -0.0267
65524SOL    HW2 8298  12.455   4.095   5.178  0.1744  0.1229  2.0919
65525SOL     OW 8299   1.163   3.956  10.863 -0.3901 -0.0633 -0.5323
65525SOL    HW1 8300   1.133   4.006  10.939 -2.2318 -1.3657 -0.3313
65525SOL    HW2 8301   1.233   3.900  10.897 -0.0980  0.5065 -0.1821
65526SOL     OW 8302   2.550   0.895   1.037  0.3405 -0.1282  0.5109
65526SOL    HW1 8303   2.494   0.968   1.060 -0.2585 -0.7944  1.2011
65526SOL    HW2 8304   2.537   0.831   1.106  0.7744 -0.9382 -0.1303
65527SOL     OW 8305  11.594   5.770   5.538  0.2196  0.3115 -0.2187
65527SOL    HW1 8306  11.561   5.683   5.516  1.1691 -0.1663  0.2161
65527SOL    HW2 8307  11.687   5.757   5.557 -0.0980  1.0196  2.1295
65528SOL     OW 8308  12.949   2.737  13.484 -0.3221 -0.1336  0.2890
65528SOL    HW1 8309  12.872   2.718  13.430  0.4514 -1.6272 -0.3386
65528SOL    HW2 8310  13.016   2.764  13.421  0.1356 -0.4086  0.6533
65529SOL     OW 8311   3.858  10.479   6.014  0.5367 -0.0977 -0.7104
65529SOL    HW1 8312   3.950  10.492   5.992  0.8358 -0.5776  0.1959
65529SOL    HW2 8313   3.813  10.554   5.975  1.5872  1.2343  0.5350
65530SOL     OW 8314   9.313   1.587  10.911 -0.3791 -0.1486  0.2540
65530SOL    HW1 8315   9.314   1.550  10.823 -1.8043 -0.1473  0.2093
65530SOL    HW2 8316   9.223   1.616  10.923 -0.6552 -1.6748  2.3535
65531SOL     OW 8317   3.746  13.013  13.112  0.4685 -0.2965 -0.2423
65531SOL    HW1 8318   3.679  12.981  13.051  0.4406  1.3009 -1.1167
65531SOL    HW2 8319   3.763  13.103  13.083  1.0887  0.2220  1.5936
65532SOL     OW 8320   3.140   9.588  10.978  0.0234  0.3990 -0.0179
65532SOL    HW1 8321   3.090   9.605  11.058  1.6421  1.5365  0.7845
65532SOL    HW2 8322   3.130   9.668  10.926 -0.9034 -0.2779 -0.9359
65533SOL     OW 8323   9.040  12.172  12.043 -0.1940 -0.1616 -0.3327
65533SOL    HW1 8324   8.985  12.142  12.115  1.1925  0.5247  1.0811
65533SOL    HW2 8325   9.114  12.215  12.086  0.4760  0.6435 -2.1892
65534SOL     OW 8326  11.238   2.703  13.124 -0.2351  0.0582 -0.5173
65534SOL    HW1 8327  11.285   2.774  13.080 -0.9521 -0.5548 -2.4038
65534SOL    HW2 8328  11.241   2.725  13.217  2.5966  0.7466 -0.6587
65535SOL     OW 8329   8.755  12.980   4.875  0.4845 -0.0702 -0.5284
65535SOL    HW1 8330   8.723  12.891   4.860  0.3003 -0.3643  1.2741
65535SOL    HW2 8331   8.814  12.998   4.802 -0.2930 -1.2585 -1.4778
65536SOL     OW 8332   5.079   0.762   8.584 -0.4143  0.0801 -0.0385
65536SOL    HW1 8333   5.050   0.765   8.675  1.8721 -2.1674  0.8778
65536SOL    HW2 8334   5.172   0.784   8.587  0.0564 -1.4744 -1.5875
65537SOL     OW 8335   5.639   1.067   6.758  0.0669 -0.1785 -0.1033
65537SOL    HW1 8336   5.571   1.116   6.712  0.8415 -0.9363 -2.1620
65537SOL    HW2 8337   5.614   0.976   6.749  0.1229 -0.3411  1.2277
65538SOL     OW 8338  10.305   3.952   8.577 -0.7031  0.0016 -0.0106
65538SOL    HW1 8339  10.316   3.869   8.622  0.0166 -0.0501 -0.2719
65538SOL    HW2 8340  10.386   3.963   8.527 -0.8603  0.7762 -0.1045
65539SOL     OW 8341   6.864  10.718   5.403 -0.8180 -0.0652  0.9242
65539SOL    HW1 8342   6.837  10.628   5.422  1.5897 -1.0105  0.2808
65539SOL    HW2 8343   6.928  10.739   5.471  1.1515 -0.1527 -0.8031
65540SOL     OW 8344  13.072   6.829   9.773  0.5913  0.1275  0.4112
65540SOL    HW1 8345  13.165   6.813   9.759  0.5871 -0.7899  1.2670
65540SOL    HW2 8346  13.065   6.855   9.864  0.1048  1.1103  0.1041
65541SOL     OW 8347   9.167   8.449   8.826  0.2056 -0.1536 -0.3828
65541SOL    HW1 8348   9.195   8.461   8.735 -0.0163 -1.2245 -0.6073
65541SOL    HW2 8349   9.221   8.377   8.858  0.1933  0.1394  0.2933
65542SOL     OW 8350   0.309   8.418   7.561 -0.6510 -0.3351 -0.6289
65542SOL    HW1 8351   0.230   8.390   7.607 -0.6453  0.9133  0.1734
65542SOL    HW2 8352   0.297   8.512   7.548  0.6669 -0.1420 -0.5354
65543SOL     OW 8353   7.194   4.767   8.523 -0.0155  0.2289  0.1014
65543SOL    HW1 8354   7.102   4.749   8.541 -0.3235  1.3938 -0.2746
65543SOL    HW2 8355   7.194   4.838   8.459  1.1417  0.3912  0.2491
65544SOL     OW 8356  13.218  13.463   6.284  0.0642 -0.1274 -0.2787
65544SOL    HW1 8357  13.302  13.457   6.237 -1.4501 -2.1240 -3.0304
65544SOL    HW2 8358  13.219  13.388   6.344  0.0692 -0.4566 -0.6839
65545SOL     OW 8359  13.360   9.564  13.055 -0.4395 -0.5803 -0.1644
65545SOL    HW1 8360  13.307   9.485  13.067 -0.9447 -0.3216 -0.6186
65545SOL    HW2 8361  13.375   9.597  13.143 -2.1959  0.0860 -0.0647
65546SOL     OW 8362   2.626  13.005  10.558  0.7187  0.2457  0.6738
65546SOL    HW1 8363   2.659  13.065  10.491 -0.4530  2.6573  2.1171
65546SOL    HW2 8364   2.705  12.965  10.596  1.4100 -1.1413 -1.9816
65547SOL     OW 8365  10.713   2.928   3.628 -0.3794  0.4371 -0.4121
65547SOL    HW1 8366  10.711   2.905   3.535 -1.2085 -1.4727  0.0339
65547SOL    HW2 8367  10.803   2.956   3.644  0.7498 -2.4351 -1.1284
65548SOL     OW 8368  10.656   8.895   7.408 -0.2392  0.0838  0.5129
65548SOL    HW1 8369  10.592   8.912   7.477 -0.9429  1.1429 -0.3677
65548SOL    HW2 8370  10.727   8.848   7.452 -0.8268  0.4229  1.8696
65549SOL     OW 8371   1.525   9.920   8.191 -0.2541 -0.1022 -0.2782
65549SOL    HW1 8372   1.582   9.993   8.168  1.8522 -1.5133  0.1181
65549SOL    HW2 8373   1.543   9.854   8.123 -0.4443 -1.0717  0.5900
65550SOL     OW 8374  11.716   8.940   8.402  0.8560  0.6065 -0.3602
65550SOL    HW1 8375  11.681   8.858   8.436 -0.2051  0.8216 -0.8939
65550SOL    HW2 8376  11.725   8.997   8.479 -1.1172  0.9499 -0.3438
65551SOL     OW 8377   1.308  10.401   6.385  0.1144 -0.0185  0.1504
65551SOL    HW1 8378   1.374  10.461   6.420  1.6007 -0.9651 -0.9324
65551SOL    HW2 8379   1.323  10.319   6.431  1.2263 -0.8936 -1.6886
65552SOL     OW 8380   1.706   0.395  11.652  0.5742  0.2685 -0.5560
65552SOL    HW1 8381   1.717   0.409  11.746  0.0664  2.0671 -0.7292
65552SOL    HW2 8382   1.626   0.343  11.645  0.0478  0.9827 -0.0245
65553SOL     OW 8383   8.085   9.799   5.396 -0.4963 -0.3572 -0.0075
65553SOL    HW1 8384   8.104   9.757   5.479 -0.0577 -0.0827  0.0303
65553SOL    HW2 8385   8.057   9.888   5.419 -1.7156 -0.7058 -0.0663
65554SOL     OW 8386   3.728   1.215   0.317  0.6069  0.2711 -0.2278
65554SOL    HW1 8387   3.791   1.162   0.365  1.4013  0.9877 -0.4518
65554SOL    HW2 8388   3.681   1.153   0.261 -0.0796 -0.5229  1.1633
65555SOL     OW 8389  12.053   0.705   5.525  0.4164  0.0992 -0.1592
65555SOL    HW1 8390  12.032   0.795   5.550 -0.9814 -1.0229  3.4078
65555SOL    HW2 8391  12.149   0.703   5.521  0.4427  1.9046 -1.1479
65556SOL     OW 8392   8.465   8.912   4.304  0.4493 -0.0600 -0.1761
65556SOL    HW1 8393   8.445   8.989   4.251  1.3812  0.6870  0.5100
65556SOL    HW2 8394   8.499   8.847   4.242  0.8021  0.5273 -0.6008
65557SOL     OW 8395  10.297  11.541   1.828 -0.0806 -0.4262  0.0533
65557SOL    HW1 8396  10.260  11.510   1.745 -0.8706  0.5880  0.0013
65557SOL    HW2 8397  10.258  11.485   1.895 -0.1569 -0.6525 -0.1805
65558SOL     OW 8398  11.608  12.859   5.371 -0.2077 -0.0636  0.6289
65558SOL    HW1 8399  11.660  12.886   5.295 -0.3961 -0.7651  0.2445
65558SOL    HW2 8400  11.671  12.856   5.443 -0.0152  0.5416  0.4992
65559SOL     OW 8401   5.149  12.950   1.049 -0.0788 -0.2934 -0.1802
65559SOL    HW1 8402   5.242  12.967   1.034  0.1892 -1.9136 -0.5035
65559SOL    HW2 8403   5.114  12.925   0.963 -0.5265 -0.9058  0.1689
65560SOL     OW 8404  12.980   1.188   6.189 -0.0227  0.2360 -0.7701
65560SOL    HW1 8405  12.941   1.238   6.261 -0.2390 -0.1436 -0.6206
65560SOL    HW2 8406  13.071   1.218   6.186  0.5735 -1.2083  1.0150
65561SOL     OW 8407   2.657   5.391   8.066 -0.0921 -0.4618  1.0717
65561SOL    HW1 8408   2.569   5.355   8.054 -0.4082  0.3422  0.8752
65561SOL    HW2 8409   2.646   5.456   8.137  0.5987 -1.2152  1.8902
65562SOL     OW 8410   4.238  10.510   8.902  0.3569 -0.4072  0.0378
65562SOL    HW1 8411   4.313  10.489   8.847 -0.0863 -0.2032 -0.6556
65562SOL    HW2 8412   4.273  10.513   8.991  1.1062 -0.6071 -0.2478
65563SOL     OW 8413   3.502  13.521  13.392 -0.7645  0.5399 -0.2691
65563SOL    HW1 8414   3.409  13.540  13.400 -0.5545  1.7559 -0.5283
65563SOL    HW2 8415   3.544  13.582  13.454 -0.0544  1.0341 -1.2073
65564SOL     OW 8416   0.309   1.732   4.325  0.9360 -0.8523 -0.2552
65564SOL    HW1 8417   0.266   1.654   4.360  3.1772 -0.8185  3.0142
65564SOL    HW2 8418   0.400   1.706   4.313  1.8365  1.2965  1.3297
65565SOL     OW 8419   2.187  12.255   4.023 -0.0370 -0.3368 -0.1715
65565SOL    HW1 8420   2.150  12.322   4.080  0.7473  1.2101 -1.3995
65565SOL    HW2 8421   2.207  12.182   4.081  1.1785  1.3531  1.6422
65566SOL     OW 8422  12.038   6.449  12.878  0.3719  0.4873  0.6459
65566SOL    HW1 8423  12.050   6.361  12.843 -0.7501  0.1550  1.0387
65566SOL    HW2 8424  11.960   6.482  12.831  1.1324  1.5100  0.0582
65567SOL     OW 8425   4.588   3.454  12.565  0.1422 -0.1620 -0.3669
65567SOL    HW1 8426   4.638   3.385  12.608  0.0429 -0.7581 -1.1640
65567SOL    HW2 8427   4.637   3.534  12.580  0.7010 -0.5474 -0.1318
65568SOL     OW 8428   7.087   5.623   6.472  0.5167 -0.0796  0.3335
65568SOL    HW1 8429   7.112   5.610   6.564  0.5068  2.8905  0.8571
65568SOL    HW2 8430   7.127   5.707   6.448 -0.2308 -0.3434 -2.1262
65569SOL     OW 8431  10.859  13.065   5.325  0.8437  0.2615  0.4991
65569SOL    HW1 8432  10.930  13.005   5.350 -1.3513 -2.7424  0.0937
65569SOL    HW2 8433  10.860  13.132   5.393  1.7686 -1.7399  2.6174
65570SOL     OW 8434   5.824   0.520   0.075  0.3983  0.1550  0.0589
65570SOL    HW1 8435   5.756   0.574   0.115  0.0426  2.1721 -2.8771
65570SOL    HW2 8436   5.825   0.440   0.127 -2.4050  1.0836  1.7960
65571SOL     OW 8437   6.527   6.322  11.508 -0.2348  0.2160 -0.2316
65571SOL    HW1 8438   6.541   6.327  11.413  1.2635  1.5463  0.0102
65571SOL    HW2 8439   6.434   6.340  11.519 -0.6523 -0.9730 -1.4956
65572SOL     OW 8440   3.900   1.528   6.431 -0.4417 -0.6294  0.4814
65572SOL    HW1 8441   3.923   1.516   6.339 -0.7065 -1.3561  0.5052
65572SOL    HW2 8442   3.974   1.491   6.480  1.6055  3.1493  0.6572
65573SOL     OW 8443   3.392  11.286   9.759  0.1553 -0.5499 -0.9265
65573SOL    HW1 8444   3.402  11.374   9.794 -1.2893 -0.6666 -0.1508
65573SOL    HW2 8445   3.462  11.278   9.694  0.4724  1.0589 -0.8211
65574SOL     OW 8446   1.909   7.379   1.898  0.4437  0.2849 -0.0986
65574SOL    HW1 8447   1.869   7.307   1.848  0.7351 -0.0631  0.1593
65574SOL    HW2 8448   1.991   7.398   1.851  2.0723 -1.8332  1.6569
65575SOL     OW 8449  13.197   5.172  10.048 -0.1050  0.1261  0.5680
65575SOL    HW1 8450  13.150   5.169   9.964  1.5375 -0.0349 -0.3987
65575SOL    HW2 8451  13.256   5.247  10.039  1.2972 -0.9104  0.8894
65576SOL     OW 8452  12.137  11.506   5.199 -0.2403 -1.1227  0.3382
65576SOL    HW1 8453  12.135  11.545   5.286  2.6902  0.0632 -0.0280
65576SOL    HW2 8454  12.150  11.412   5.214  2.1009 -0.7022  1.2151
65577SOL     OW 8455   2.890   8.858   4.474 -0.3618  0.2922 -0.4127
65577SOL    HW1 8456   2.926   8.784   4.524  0.1484 -0.1726 -1.4289
65577SOL    HW2 8457   2.967   8.908   4.447 -0.6343  0.5731 -0.6637
65578SOL     OW 8458   8.822   6.625  13.735  0.4340  0.2832  0.0386
65578SOL    HW1 8459   8.729   6.627  13.756  0.2149  0.6664 -0.9400
65578SOL    HW2 8460   8.837   6.539  13.696  0.9245 -0.5912  2.0196
65579SOL     OW 8461  10.568   9.569   1.253 -0.0359 -0.3066 -0.5845
65579SOL    HW1 8462  10.641   9.615   1.213 -0.0917 -0.4473 -0.8488
65579SOL    HW2 8463  10.550   9.496   1.194 -1.2670  0.4930 -1.2360
65580SOL     OW 8464   8.101   3.226   2.548 -0.1541 -0.0542  0.4741
65580SOL    HW1 8465   8.105   3.167   2.472 -0.1090 -0.4279  0.7613
65580SOL    HW2 8466   8.026   3.282   2.531  1.2982  1.5278 -1.0314
65581SOL     OW 8467   8.468  11.789  12.369  0.1200  0.1828  0.7741
65581SOL    HW1 8468   8.378  11.764  12.348 -0.5911  2.1626  1.2844
65581SOL    HW2 8469   8.491  11.735  12.445  0.0837 -1.6917 -0.4892
65582SOL     OW 8470   3.999   5.383   0.484  0.6172  0.0675 -0.7009
65582SOL    HW1 8471   3.970   5.301   0.444  2.2888 -0.6094 -0.5975
65582SOL    HW2 8472   3.918   5.431   0.501 -0.3859 -1.4428 -0.9941
65583SOL     OW 8473  11.748   1.343   7.390  0.1765 -0.1279 -0.4760
65583SOL    HW1 8474  11.743   1.281   7.463  2.1703 -1.8192 -1.6384
65583SOL    HW2 8475  11.749   1.287   7.312 -0.3947  1.5392 -1.7462
65584SOL     OW 8476   1.150  13.245   4.552 -0.4252  0.4506 -0.5623
65584SOL    HW1 8477   1.116  13.309   4.615 -3.6904 -0.7017 -0.9404
65584SOL    HW2 8478   1.131  13.160   4.591  3.1987 -0.4318 -0.3960
65585SOL     OW 8479  12.134   4.022  13.157  0.1918  0.0528  0.4078
65585SOL    HW1 8480  12.186   4.100  13.177 -0.3178  0.3834  0.4879
65585SOL    HW2 8481  12.093   3.999  13.241  0.4360 -0.3717  0.4088
65586SOL     OW 8482   8.634   6.287   2.372  0.2695 -0.9744 -0.5311
65586SOL    HW1 8483   8.651   6.330   2.288 -0.9473 -1.3530 -0.9871
65586SOL    HW2 8484   8.565   6.223   2.353 -2.7787  1.4115  1.4157
65587SOL     OW 8485  12.040   2.837   6.514 -0.1453 -0.4576 -0.5909
65587SOL    HW1 8486  11.965   2.873   6.562  0.3209  2.3418 -1.7866
65587SOL    HW2 8487  12.104   2.817   6.583 -0.4588  1.0401  0.1927
65588SOL     OW 8488   2.388   3.101   7.159 -0.0762 -0.0338 -0.1518
65588SOL    HW1 8489   2.302   3.059   7.157 -0.3173  0.4923 -1.0613
65588SOL    HW2 8490   2.442   3.040   7.210 -0.1796 -1.9263 -2.1346
65589SOL     OW 8491  11.016   6.081   2.741 -0.1156  0.7928 -0.8762
65589SOL    HW1 8492  10.934   6.117   2.773 -0.0907 -0.2492  0.4400
65589SOL    HW2 8493  11.082   6.145   2.767 -0.2701  0.6154 -0.0209
65590SOL     OW 8494  10.768   1.356   2.715  0.2916  0.2822 -0.3578
65590SOL    HW1 8495  10.730   1.273   2.744 -1.7240 -0.0235 -3.4656
65590SOL    HW2 8496  10.725   1.423   2.770 -2.4218 -0.3479 -1.5571
65591SOL     OW 8497   4.181   1.317   5.918  0.2427 -0.2117 -0.6460
65591SOL    HW1 8498   4.189   1.406   5.950 -0.0102 -0.8163  1.1988
65591SOL    HW2 8499   4.250   1.309   5.851  1.3350  0.8803  0.3073
65592SOL     OW 8500  12.513   7.745   8.311 -0.2094 -0.4163 -0.0554
65592SOL    HW1 8501  12.441   7.775   8.367 -1.3168  0.7447 -1.9724
65592SOL    HW2 8502  12.479   7.666   8.270  0.5207 -1.1559  0.7441
65593SOL     OW 8503   5.512   9.839  11.602 -0.0262 -0.2693  0.6173
65593SOL    HW1 8504   5.504   9.842  11.697 -0.3533  0.9772  0.5661
65593SOL    HW2 8505   5.525   9.930  11.576 -0.2774 -0.5521 -0.5592
65594SOL     OW 8506   8.000   5.910   5.680 -0.2307 -0.3373 -0.7322
65594SOL    HW1 8507   8.043   5.835   5.720  2.2350  1.5855  0.5521
65594SOL    HW2 8508   8.052   5.929   5.602 -1.5748 -0.6478 -1.7410
65595SOL     OW 8509  11.316   4.065   7.248 -0.0206 -0.2244 -0.9376
65595SOL    HW1 8510  11.330   4.155   7.219  0.1315 -0.0961 -0.4732
65595SOL    HW2 8511  11.373   4.012   7.193  1.5928  0.1818  0.2565
65596SOL     OW 8512   3.506   4.895  13.187  0.2116  0.1857 -0.1454
65596SOL    HW1 8513   3.419   4.925  13.162  1.1333  1.4718 -2.0294
65596SOL    HW2 8514   3.512   4.807  13.148 -0.3447 -0.0503  0.2815
65597SOL     OW 8515  10.958   4.773  11.480  0.2206 -0.3812 -0.0086
65597SOL    HW1 8516  10.947   4.768  11.386 -0.5076  0.5745  0.0109
65597SOL    HW2 8517  10.981   4.865  11.497  0.8270 -0.6485  0.7018
65598SOL     OW 8518   8.635   7.288   0.889 -0.1144  0.4480 -0.0766
65598SOL    HW1 8519   8.678   7.345   0.825  0.2177 -0.0697 -0.3177
65598SOL    HW2 8520   8.663   7.322   0.974 -0.4510  1.0553 -0.2018
65599SOL     OW 8521   8.500   5.506  10.027 -0.2639 -0.0184 -0.3062
65599SOL    HW1 8522   8.562   5.433  10.029 -1.9520 -1.5190 -0.0081
65599SOL    HW2 8523   8.506   5.540   9.938 -0.6020 -1.6376 -0.9963
65600SOL     OW 8524   4.046   5.396   6.397 -0.1106 -0.3458 -0.2587
65600SOL    HW1 8525   4.129   5.403   6.443 -1.2365  0.1074  1.8402
65600SOL    HW2 8526   4.043   5.307   6.363  0.4294 -0.9701  1.2878
65601SOL     OW 8527  11.566   5.463   2.174 -0.5215 -0.4093  0.7165
65601SOL    HW1 8528  11.552   5.544   2.223 -0.3758 -0.5731  1.0340
65601SOL    HW2 8529  11.635   5.483   2.112 -1.5855  0.1799 -0.3181
65602SOL     OW 8530  10.259   9.305   5.348  0.0581 -0.3811  0.2861
65602SOL    HW1 8531  10.212   9.384   5.323  1.0332  0.6395  1.5728
65602SOL    HW2 8532  10.197   9.257   5.404 -0.0108  0.2222  0.7388
65603SOL     OW 8533  11.586   1.671   1.242 -0.1527 -0.1994  0.0791
65603SOL    HW1 8534  11.664   1.634   1.282  0.8263  2.9665  1.4339
65603SOL    HW2 8535  11.541   1.716   1.314 -0.4307  2.3765 -1.5747
65604SOL     OW 8536   1.165   4.287   5.533  0.1657 -0.4371 -0.1490
65604SOL    HW1 8537   1.225   4.361   5.538  2.2783 -1.8163 -2.5799
65604SOL    HW2 8538   1.103   4.311   5.463  0.9279 -0.9689 -1.0243
65605SOL     OW 8539  13.147  11.778  10.247  0.1951 -0.2650 -0.2712
65605SOL    HW1 8540  13.154  11.806  10.155 -4.4269  1.6184 -0.3535
65605SOL    HW2 8541  13.181  11.853  10.297  1.3529 -0.6919 -0.3832
65606SOL     OW 8542   6.958   9.535   5.685 -0.1634  0.6271 -0.2061
65606SOL    HW1 8543   6.947   9.442   5.668  0.3783  0.8706 -2.0814
65606SOL    HW2 8544   6.965   9.575   5.598 -0.9296  2.4922  0.5354
65607SOL     OW 8545   6.232  12.438   2.151  0.0303 -0.7323 -0.4502
65607SOL    HW1 8546   6.318  12.398   2.162 -0.3210 -0.9849  1.9813
65607SOL    HW2 8547   6.189  12.384   2.085  0.3647 -3.1354  1.1609
65608SOL     OW 8548   2.665   4.628   5.141 -0.4523 -0.1572 -0.3093
65608SOL    HW1 8549   2.743   4.677   5.117  0.1561 -0.9112  0.1174
65608SOL    HW2 8550   2.655   4.561   5.073 -0.3568 -0.4716 -0.0179
65609SOL     OW 8551   7.679   0.923   7.479 -0.6236 -0.2302 -0.5488
65609SOL    HW1 8552   7.646   0.929   7.568  1.4926  1.3573  0.1950
65609SOL    HW2 8553   7.652   1.005   7.437  1.9081  0.9682 -0.0141
65610SOL     OW 8554  13.574   9.053   5.145 -0.3828 -0.2373  0.5376
65610SOL    HW1 8555  13.613   9.012   5.068  0.2952 -1.2975  1.4305
65610SOL    HW2 8556  13.505   9.109   5.109 -0.9010 -1.6391 -0.7718
65611SOL     OW 8557  12.702   2.019   2.714 -0.0693  0.4623  0.1923
65611SOL    HW1 8558  12.762   2.027   2.640  0.7317 -0.6261  0.7010
65611SOL    HW2 8559  12.618   1.996   2.675  0.3573 -0.1413 -0.3925
65612SOL     OW 8560  10.157   5.234   9.124  0.1756 -0.0131  0.1193
65612SOL    HW1 8561  10.243   5.249   9.164  1.3534 -1.0780 -1.8185
65612SOL    HW2 8562  10.122   5.157   9.170  0.6044 -0.0277  0.4323
65613SOL     OW 8563  10.691  12.898   4.652 -0.5311  0.0809 -0.6165
65613SOL    HW1 8564  10.724  12.942   4.730  0.5178  0.5160 -1.2908
65613SOL    HW2 8565  10.596  12.896   4.664 -0.3625 -0.2362  0.8520
65614SOL     OW 8566   9.362   0.752   5.817  0.2206 -0.7667  0.6766
65614SOL    HW1 8567   9.351   0.693   5.743 -1.8929 -0.5433  0.7646
65614SOL    HW2 8568   9.453   0.737   5.846  1.0845 -0.9076 -1.8548
65615SOL     OW 8569   0.257   2.330   7.204 -0.3001  0.2641 -0.2433
65615SOL    HW1 8570   0.173   2.337   7.159 -0.1806 -0.8659 -0.6729
65615SOL    HW2 8571   0.318   2.379   7.148 -0.3982 -0.0887 -0.6652
65616SOL     OW 8572   1.837   4.087   1.540 -0.3907 -1.0058 -0.3726
65616SOL    HW1 8573   1.774   4.061   1.608 -0.5994  0.0952 -0.1236
65616SOL    HW2 8574   1.834   4.183   1.541  1.5722 -0.9235 -0.1127
65617SOL     OW 8575  11.535   3.819   0.445 -0.1274 -0.3583 -0.0492
65617SOL    HW1 8576  11.503   3.751   0.386  0.2105  0.3789 -1.1042
65617SOL    HW2 8577  11.470   3.889   0.440  1.3077  0.9370 -1.8223
65618SOL     OW 8578   0.752  10.129   1.925 -0.1791 -0.1450  0.0408
65618SOL    HW1 8579   0.682  10.064   1.920 -0.0166 -0.2567 -1.2522
65618SOL    HW2 8580   0.820  10.087   1.978 -0.2219 -0.8981 -0.4890
65619SOL     OW 8581   9.232   6.860   5.960 -0.0871  0.8015  0.1526
65619SOL    HW1 8582   9.270   6.814   6.034  0.8086  1.4863  0.1408
65619SOL    HW2 8583   9.184   6.793   5.911  1.8620 -0.3380 -0.3362
65620SOL     OW 8584   1.989   8.327  13.099  0.0117  0.2029  0.2597
65620SOL    HW1 8585   2.038   8.266  13.155 -0.6504 -0.0872  0.5347
65620SOL    HW2 8586   2.021   8.309  13.011  0.8466  0.4519  0.5059
65621SOL     OW 8587   4.999   9.417   6.591 -0.4079  0.0205 -0.2438
65621SOL    HW1 8588   4.962   9.329   6.588  0.8357 -0.5029 -1.6533
65621SOL    HW2 8589   4.971   9.458   6.510  2.6644 -0.7259 -1.8459
65622SOL     OW 8590   3.720   7.693   6.634  0.1036  0.4054  0.4317
65622SOL    HW1 8591   3.645   7.750   6.617 -0.8263 -0.4858  1.3505
65622SOL    HW2 8592   3.725   7.688   6.729  0.8998 -0.0938  0.3706
65623SOL     OW 8593  10.002  10.122   1.239 -0.1065 -0.6191  0.1166
65623SOL    HW1 8594   9.931  10.173   1.279  0.6315 -0.9837  1.9971
65623SOL    HW2 8595   9.959  10.041   1.208 -0.4411 -1.1341  1.8301
65624SOL     OW 8596  11.021   2.016  10.973 -0.4055  0.0339  0.1346
65624SOL    HW1 8597  10.932   1.985  10.991  0.0011 -0.7702  0.8409
65624SOL    HW2 8598  11.043   2.070  11.049 -0.2973  0.2525 -0.0503
65625SOL     OW 8599   9.862  11.304   3.087 -0.8091  0.5926 -0.5360
65625SOL    HW1 8600   9.920  11.334   3.157  1.0991 -0.8615 -1.3953
65625SOL    HW2 8601   9.909  11.326   3.007 -1.2657 -0.9414 -1.2544
65626SOL     OW 8602   1.032   8.104   0.063  0.0445  0.0562  0.9464
65626SOL    HW1 8603   1.117   8.127   0.027  0.2521 -2.8461 -0.7964
65626SOL    HW2 8604   1.040   8.011   0.086 -3.1534 -0.9670 -1.3077
65627SOL     OW 8605   2.289   5.892   9.919 -0.0387  0.0552 -0.3533
65627SOL    HW1 8606   2.253   5.833   9.986  0.5599 -1.6480 -1.4622
65627SOL    HW2 8607   2.212   5.931   9.878 -0.4324  0.4770  0.7725
65628SOL     OW 8608   2.539  10.503  10.982 -0.2643 -0.7831  0.2030
65628SOL    HW1 8609   2.570  10.494  10.892 -0.0628 -0.5474  0.2475
65628SOL    HW2 8610   2.472  10.435  10.991 -0.7788 -0.3593 -0.3331
65629SOL     OW 8611   3.607   5.101   8.809  0.4368 -0.0274 -0.1531
65629SOL    HW1 8612   3.591   5.177   8.753 -0.7059 -0.2324 -0.1303
65629SOL    HW2 8613   3.556   5.030   8.769 -0.6517 -0.1053  1.2947
65630SOL     OW 8614   1.502   4.247   5.669 -0.0291  0.0266 -0.4638
65630SOL    HW1 8615   1.551   4.194   5.732 -1.8655  0.1161  1.1131
65630SOL    HW2 8616   1.452   4.182   5.618 -0.5322  0.0844 -0.0559
65631SOL     OW 8617   1.121   2.150   9.649 -0.2134 -0.6187  0.6862
65631SOL    HW1 8618   1.204   2.127   9.690 -0.1849 -0.9493  0.4415
65631SOL    HW2 8619   1.108   2.084   9.582  0.0925  0.3235 -0.3297
65632SOL     OW 8620   7.281  10.230  13.632  0.0523  0.0256 -0.2737
65632SOL    HW1 8621   7.239  10.230  13.718  0.0035 -1.1681 -0.2687
65632SOL    HW2 8622   7.374  10.218  13.652 -0.0007 -0.6123 -0.3897
65633SOL     OW 8623  12.915   3.879  11.975  0.1097 -0.6373  0.1462
65633SOL    HW1 8624  13.010   3.875  11.968  0.0475 -0.9516 -0.7338
65633SOL    HW2 8625  12.893   3.968  11.949  0.4037  0.8520  4.3067
65634SOL     OW 8626  11.949   4.979   6.676  0.0603 -0.7529  0.0211
65634SOL    HW1 8627  11.954   4.970   6.771  1.6557  0.2329  0.0752
65634SOL    HW2 8628  11.950   4.890   6.642 -0.6158 -1.1101  0.9272
65635SOL     OW 8629  11.939  10.407   6.334  0.4003 -0.2253 -0.2471
65635SOL    HW1 8630  11.975  10.487   6.297 -3.1495  0.4678 -2.6670
65635SOL    HW2 8631  11.955  10.341   6.266 -0.0583 -0.6340  0.0384
65636SOL     OW 8632  10.371   2.376   8.146  0.1831  0.1615 -0.0671
65636SOL    HW1 8633  10.357   2.447   8.083 -1.5954 -0.3114 -0.2500
65636SOL    HW2 8634  10.343   2.412   8.230  2.0751  0.6202  0.4227
65637SOL     OW 8635   8.867   3.143   1.699  0.2205  0.3092  0.2486
65637SOL    HW1 8636   8.852   3.221   1.752 -2.8802  0.4531 -0.5953
65637SOL    HW2 8637   8.935   3.169   1.637  1.5297  1.2304  1.9981
65638SOL     OW 8638  12.311   7.904  11.525  0.1915 -0.4125  0.1817
65638SOL    HW1 8639  12.339   7.992  11.553  1.3328 -0.6582 -0.1221
65638SOL    HW2 8640  12.366   7.885  11.449 -1.1094 -0.7801 -0.6901
65639SOL     OW 8641  10.162   3.009   0.634 -0.4062  0.4153 -0.0069
65639SOL    HW1 8642  10.083   3.028   0.584  0.1509 -0.2930 -1.2142
65639SOL    HW2 8643  10.221   3.081   0.614  0.5516 -0.8578 -2.0489
65640SOL     OW 8644   7.472   7.879   4.248 -0.3273 -0.0023  0.1584
65640SOL    HW1 8645   7.409   7.827   4.199 -0.1945 -0.9829  1.0035
65640SOL    HW2 8646   7.424   7.959   4.272 -0.8760 -0.2191 -0.2166
65641SOL     OW 8647   1.291  10.424  11.489 -0.0475  0.0422 -0.0678
65641SOL    HW1 8648   1.203  10.437  11.455 -1.1727 -1.4015  2.0898
65641SOL    HW2 8649   1.283  10.439  11.583  2.1585  0.4399  0.1095
65642SOL     OW 8650  13.605   7.442  12.129  0.2103  0.0828 -0.5234
65642SOL    HW1 8651  13.698   7.427  12.147 -0.7065 -3.2674  2.7442
65642SOL    HW2 8652  13.575   7.498  12.202 -1.0996 -2.8174  1.3364
65643SOL     OW 8653   3.184   0.801   0.890  0.2185 -0.1216 -0.4099
65643SOL    HW1 8654   3.193   0.744   0.966 -2.7396 -1.4681 -0.9185
65643SOL    HW2 8655   3.244   0.765   0.825  2.0234  0.4326  0.8608
65644SOL     OW 8656  13.743   3.743   2.270 -0.7381 -0.5359 -0.1048
65644SOL    HW1 8657  13.797   3.711   2.343 -2.0903 -2.6557  0.0576
65644SOL    HW2 8658  13.789   3.820   2.238  1.2030 -0.9840  1.4163
65645SOL     OW 8659  12.901   7.482   8.427  0.1026  0.1173  0.3143
65645SOL    HW1 8660  12.994   7.469   8.410 -0.7825 -2.2979 -4.1194
65645SOL    HW2 8661  12.879   7.563   8.381 -0.3577 -0.5111 -0.5867
65646SOL     OW 8662   1.144   7.451   5.516 -0.4744 -0.2681  0.1903
65646SOL    HW1 8663   1.115   7.408   5.596  0.5869 -2.0058 -0.2901
65646SOL    HW2 8664   1.075   7.433   5.452 -0.5997 -0.2300  0.3157
65647SOL     OW 8665  12.492   1.380  12.927  0.3693 -0.1583  0.1819
65647SOL    HW1 8666  12.416   1.344  12.972 -1.7011  2.2843 -1.0695
65647SOL    HW2 8667  12.487   1.343  12.839 -0.0770  0.8295 -0.2290
65648SOL     OW 8668  11.228  12.593  11.797 -0.3516  0.3602 -0.5440
65648SOL    HW1 8669  11.164  12.602  11.867 -0.1232  0.2066 -0.3104
65648SOL    HW2 8670  11.178  12.567  11.720 -0.7516  1.6019 -0.7149
65649SOL     OW 8671   0.511   8.959   8.297 -0.0811 -0.7869  0.1404
65649SOL    HW1 8672   0.539   9.014   8.370  1.9058 -1.1037 -0.3213
65649SOL    HW2 8673   0.486   8.876   8.338 -1.1420 -0.2234  0.6495
65650SOL     OW 8674   4.523   0.700   7.510 -0.1030 -0.1202 -0.3547
65650SOL    HW1 8675   4.537   0.687   7.417 -0.4221  0.9588 -0.5668
65650SOL    HW2 8676   4.488   0.788   7.517 -3.4387 -1.3678  0.4587
65651SOL     OW 8677   3.887   7.688  13.513  0.3867  0.3614 -0.1742
65651SOL    HW1 8678   3.836   7.642  13.446  0.6948 -0.1055 -0.0890
65651SOL    HW2 8679   3.876   7.781  13.491  1.1906  0.1961 -1.4038
65652SOL     OW 8680   2.836   8.853  12.584 -0.7294  0.3475 -0.2943
65652SOL    HW1 8681   2.926   8.842  12.554 -0.8333 -0.7380 -0.2272
65652SOL    HW2 8682   2.839   8.841  12.679 -0.5903  2.6463  0.0530
65653SOL     OW 8683   4.824   0.143  13.227  0.3168 -0.0863 -0.2592
65653SOL    HW1 8684   4.777   0.091  13.162 -0.0509 -1.3638  0.9765
65653SOL    HW2 8685   4.759   0.206  13.259 -0.0552 -0.6675  0.1594
65654SOL     OW 8686   9.428   9.448   1.378 -0.2309  0.3071 -0.0326
65654SOL    HW1 8687   9.490   9.375   1.385 -0.6040  0.0900  1.0969
65654SOL    HW2 8688   9.426   9.487   1.466 -1.1212  0.7899 -0.2532
65655SOL     OW 8689   2.828   5.248  13.142  0.8899  0.1948  0.7284
65655SOL    HW1 8690   2.807   5.155  13.136 -1.1151  0.6695 -0.5978
65655SOL    HW2 8691   2.892   5.263  13.072  0.0125  0.0777 -0.1209
65656SOL     OW 8692  12.267  11.553  13.483  0.3106 -0.3513 -0.6653
65656SOL    HW1 8693  12.282  11.488  13.552 -2.5101  1.4930  1.9693
65656SOL    HW2 8694  12.213  11.507  13.418 -1.7557 -0.7811  1.2069
65657SOL     OW 8695   2.770   8.221   8.805 -0.4231  0.7145 -0.6027
65657SOL    HW1 8696   2.695   8.227   8.863  1.1057 -0.2362  1.5951
65657SOL    HW2 8697   2.823   8.298   8.826  2.8278 -2.2187  3.4847
65658SOL     OW 8698  10.063   8.684   3.031  0.5481 -0.0569  0.5479
65658SOL    HW1 8699   9.995   8.748   3.051  0.7450  0.5747 -0.6915
65658SOL    HW2 8700  10.026   8.630   2.961  1.5564  0.7696 -0.6704
65659SOL     OW 8701  12.593   5.342   2.732 -0.1591  0.4807 -0.2280
65659SOL    HW1 8702  12.594   5.294   2.815 -1.5577  0.3039 -0.2767
65659SOL    HW2 8703  12.602   5.434   2.757 -0.8267  0.4507  0.1589
65660SOL     OW 8704   9.905   1.395   8.040  0.6989 -0.1587  0.2853
65660SOL    HW1 8705   9.850   1.354   7.973 -1.6234  1.0253  1.3594
65660SOL    HW2 8706   9.850   1.464   8.077  3.0073  1.2285  1.3388
65661SOL     OW 8707   5.784  13.636  13.200 -0.4733  0.1521 -0.4218
65661SOL    HW1 8708   5.820  13.661  13.115  2.1525 -0.3877  0.4357
65661SOL    HW2 8709   5.817  13.701  13.261 -2.4045  0.5893  0.2307
65662SOL     OW 8710   9.227   5.329   3.507  0.1014 -0.1141 -0.5894
65662SOL    HW1 8711   9.241   5.399   3.444  0.0253  0.6761  0.2549
65662SOL    HW2 8712   9.210   5.374   3.590  2.1259 -1.0967  0.4284
65663SOL     OW 8713   0.328   5.779  10.872 -0.1544 -0.8157 -0.7290
65663SOL    HW1 8714   0.238   5.758  10.846 -0.1420 -0.8894 -0.7127
65663SOL    HW2 8715   0.318   5.827  10.955 -0.1151 -1.9870 -0.0230
65664SOL     OW 8716   1.938   2.004  13.376  0.2710  0.4259 -0.4453
65664SOL    HW1 8717   1.903   2.084  13.414 -0.2865 -0.1952  0.3782
65664SOL    HW2 8718   1.863   1.962  13.334  0.5403  0.2925 -0.7999
65665SOL     OW 8719  13.348  10.679  12.411  0.4001  0.5377 -0.1101
65665SOL    HW1 8720  13.256  10.679  12.434  0.6926 -0.2893  1.1111
65665SOL    HW2 8721  13.363  10.595  12.369  0.9114  0.0232  1.0673
65666SOL     OW 8722   4.137  12.933  11.690 -0.2584 -0.1498 -0.4455
65666SOL    HW1 8723   4.061  12.934  11.749 -0.3867  1.1474 -0.6092
65666SOL    HW2 8724   4.104  12.895  11.609 -0.4193 -0.7079 -0.1230
65667SOL     OW 8725   2.071   1.296   5.567 -0.4545  0.3722  0.1825
65667SOL    HW1 8726   2.077   1.200   5.574  0.7536  0.5039  1.3329
65667SOL    HW2 8727   2.004   1.311   5.501 -1.3619 -1.2622  0.6794
65668SOL     OW 8728   8.866   3.170  10.409  0.2949 -0.5095  0.1633
65668SOL    HW1 8729   8.787   3.117  10.421 -0.8499  0.5413 -1.9883
65668SOL    HW2 8730   8.835   3.260  10.415  1.5474 -0.0825  0.3892
65669SOL     OW 8731  10.221  13.198   1.084  0.4863 -0.1816 -0.3685
65669SOL    HW1 8732  10.269  13.116   1.093 -1.6412 -1.4063  0.6399
65669SOL    HW2 8733  10.192  13.199   0.993  2.1575  0.4769 -0.9327
65670SOL     OW 8734   8.680   4.457   1.235 -0.3930  0.0085  0.0123
65670SOL    HW1 8735   8.754   4.424   1.183 -1.4581  0.6547 -2.0339
65670SOL    HW2 8736   8.707   4.545   1.261 -0.0549 -0.1117  0.0727
65671SOL     OW 8737   4.381  13.363   4.774  0.3261  0.2011  0.1600
65671SOL    HW1 8738   4.464  13.317   4.784 -0.2018 -0.6807  0.6180
65671SOL    HW2 8739   4.366  13.404   4.860 -0.6449 -1.2791  0.7371
65672SOL     OW 8740  10.652   8.175   3.906 -0.0245  0.0698 -0.4429
65672SOL    HW1 8741  10.581   8.173   3.970  1.3443  1.9300  1.2380
65672SOL    HW2 8742  10.630   8.247   3.847 -0.2054 -0.2520 -0.7760
65673SOL     OW 8743  12.882  11.039   1.555  0.6898  0.3095  0.5130
65673SOL    HW1 8744  12.905  11.088   1.476 -1.0079  0.0176 -0.2017
65673SOL    HW2 8745  12.796  11.072   1.580 -0.4765 -2.1441  0.0546
65674SOL     OW 8746   5.010  13.724   8.188  0.2560  0.1968 -0.3718
65674SOL    HW1 8747   5.102  13.723   8.163  0.0700  0.9237 -1.1408
65674SOL    HW2 8748   5.009  13.767   8.273  0.4951  1.6336 -1.0619
65675SOL     OW 8749  10.034  10.204   9.000  0.1356  0.7819  0.7932
65675SOL    HW1 8750   9.978  10.175   8.928  1.3647 -0.3593  0.2501
65675SOL    HW2 8751  10.099  10.134   9.009  0.2668  1.1069  2.7451
65676SOL     OW 8752   6.610  12.901  12.751 -0.8046 -0.3444 -0.1884
65676SOL    HW1 8753   6.642  12.876  12.838  0.4459 -1.8480 -1.0167
65676SOL    HW2 8754   6.521  12.865  12.747 -0.6440 -0.8013  0.2453
65677SOL     OW 8755   2.248   9.331  12.656 -0.3265 -0.0104 -0.2990
65677SOL    HW1 8756   2.218   9.264  12.717 -0.1327  2.7452  3.0755
65677SOL    HW2 8757   2.331   9.298  12.623  0.4899 -0.8756  2.3868
65678SOL     OW 8758  12.401   5.254   0.055  0.6934  0.0665 -0.9616
65678SOL    HW1 8759  12.328   5.193   0.068  0.7409  0.3965  1.2978
65678SOL    HW2 8760  12.387   5.290  -0.032 -1.7963  0.0422 -0.6416
65679SOL     OW 8761   3.561   3.958   0.352 -1.2073 -0.1009  0.4164
65679SOL    HW1 8762   3.520   3.879   0.386 -1.4951 -0.2298 -0.2063
65679SOL    HW2 8763   3.516   4.030   0.397 -2.1412 -0.2411 -0.2631
65680SOL     OW 8764  12.156   6.192   3.625 -0.6925  0.7053  0.6651
65680SOL    HW1 8765  12.149   6.097   3.630 -1.6116  0.6291 -1.1725
65680SOL    HW2 8766  12.216   6.207   3.552  1.0232  1.5751  2.1561
65681SOL     OW 8767   3.689   8.325  12.206  0.3690 -1.3376  0.7374
65681SOL    HW1 8768   3.713   8.384  12.134  1.7578  0.1205  2.2907
65681SOL    HW2 8769   3.603   8.356  12.234 -0.0018 -1.6595 -0.0079
65682SOL     OW 8770   8.283   3.734  12.377 -0.5388 -0.1219  0.1462
65682SOL    HW1 8771   8.263   3.653  12.330 -0.3874 -0.5810  0.8496
65682SOL    HW2 8772   8.208   3.747  12.435 -0.3915  0.0291  0.3050
65683SOL     OW 8773  11.786   8.920   6.604 -0.2336  0.3205  0.3303
65683SOL    HW1 8774  11.749   8.864   6.536 -1.4029  0.9416  0.4294
65683SOL    HW2 8775  11.881   8.905   6.599 -0.4888 -1.4059  0.1521
65684SOL     OW 8776   0.463   7.893   7.602  0.8904  1.0949 -0.4549
65684SOL    HW1 8777   0.375   7.929   7.595  0.4844  0.4332  0.8484
65684SOL    HW2 8778   0.450   7.799   7.611  1.7970  0.8781 -1.2205
65685SOL     OW 8779   7.909   4.069  12.232  0.3007 -0.0951  0.5563
65685SOL    HW1 8780   7.885   4.118  12.311 -0.8374  1.3869 -0.6588
65685SOL    HW2 8781   7.828   4.028  12.203  0.7192 -0.6711  0.1692
65686SOL     OW 8782   2.410   1.111   8.479 -0.3334  0.1336  0.1080
65686SOL    HW1 8783   2.325   1.155   8.468  0.3017  1.5345  0.6003
65686SOL    HW2 8784   2.472   1.183   8.493  1.0867 -0.8181 -1.0562
65687SOL     OW 8785   8.855   0.331   3.548  0.0244  0.7307 -0.0393
65687SOL    HW1 8786   8.894   0.243   3.548  0.6347  0.9873 -0.9921
65687SOL    HW2 8787   8.877   0.367   3.634 -1.3193 -0.4930  0.8771
65688SOL     OW 8788   0.312   3.375  12.833 -0.1349  0.4655  0.1098
65688SOL    HW1 8789   0.265   3.358  12.914  0.2971  0.2718  0.3217
65688SOL    HW2 8790   0.377   3.306  12.828  1.0950  1.5619  0.5456
65689SOL     OW 8791   4.012  11.262  11.600 -0.3097 -0.0769  0.1397
65689SOL    HW1 8792   3.974  11.178  11.626 -0.0293 -0.0572  0.6330
65689SOL    HW2 8793   4.061  11.242  11.520 -1.5295 -0.0540 -0.6346
65690SOL     OW 8794   1.241  13.494  13.589 -0.2272 -0.1041  0.3684
65690SOL    HW1 8795   1.247  13.563  13.523 -0.9279 -1.4367 -1.1620
65690SOL    HW2 8796   1.269  13.536  13.670 -1.3392  2.1933 -0.3366
65691SOL     OW 8797   5.882   7.472   8.510  0.5625  0.1646 -0.3228
65691SOL    HW1 8798   5.845   7.464   8.422  1.9466  2.2929 -1.1658
65691SOL    HW2 8799   5.878   7.566   8.529  1.6759 -0.0735  1.2571
65692SOL     OW 8800   9.133  13.353  11.892  0.2778 -0.2922 -0.4349
65692SOL    HW1 8801   9.048  13.311  11.879  1.3047 -2.8912  0.5914
65692SOL    HW2 8802   9.180  13.295  11.952  2.1132  2.0355  0.5587
65693SOL     OW 8803  11.243  12.779  11.321 -0.3038  0.5768 -0.4056
65693SOL    HW1 8804  11.154  12.792  11.354 -0.1372  0.1972  0.2128
65693SOL    HW2 8805  11.300  12.803  11.394  0.0552 -2.2239  0.3650
65694SOL     OW 8806  10.684   9.390  11.367  0.2051 -0.0893 -0.2609
65694SOL    HW1 8807  10.609   9.350  11.411  0.0106  0.6962  0.1317
65694SOL    HW2 8808  10.654   9.406  11.278 -0.2601  0.6657  0.0265
65695SOL     OW 8809   3.367  10.891   9.161  0.2190 -0.0870  0.4346
65695SOL    HW1 8810   3.372  10.837   9.240  1.6493 -2.1906 -1.0181
65695SOL    HW2 8811   3.327  10.834   9.095  0.9873  0.9159 -0.9332
65696SOL     OW 8812   8.956   3.947  13.167  0.0375 -0.4856 -0.1270
65696SOL    HW1 8813   8.932   3.963  13.258 -1.6378  1.5684 -0.8570
65696SOL    HW2 8814   9.039   3.900  13.172 -1.0029 -2.3123  2.4654
65697SOL     OW 8815   4.611  10.366   2.992  0.8845 -0.3175  0.1694
65697SOL    HW1 8816   4.704  10.386   2.995  0.6904  0.5268  1.1347
65697SOL    HW2 8817   4.606  10.275   2.962  2.0702 -0.7519  1.2122
65698SOL     OW 8818   8.849   8.910  12.888 -0.2787 -0.4243 -0.1913
65698SOL    HW1 8819   8.778   8.920  12.824 -0.5120  0.8851  0.2558
65698SOL    HW2 8820   8.911   8.979  12.865  0.7789 -1.4206 -0.4422
65699SOL     OW 8821   8.544  10.206   3.157 -0.1252  0.2387  0.2940
65699SOL    HW1 8822   8.595  10.259   3.218  0.8500  0.0081 -0.2952
65699SOL    HW2 8823   8.505  10.270   3.097 -0.1759  0.3842  0.4806
65700SOL     OW 8824  10.346   9.771   2.981  0.2930  0.0824  0.0183
65700SOL    HW1 8825  10.432   9.743   2.952 -0.8362 -1.6266 -2.0033
65700SOL    HW2 8826  10.324   9.713   3.054  0.7556  0.4282  0.4425
65701SOL     OW 8827  12.632   2.411   1.916 -0.7294  0.6787  0.3188
65701SOL    HW1 8828  12.639   2.403   2.011  2.2962  3.7095  0.5093
65701SOL    HW2 8829  12.555   2.465   1.902 -2.3163 -1.3160  0.8085
65702SOL     OW 8830   1.554   2.987   0.126  0.1526  0.6640  0.5121
65702SOL    HW1 8831   1.460   2.989   0.141 -0.0246  2.7751 -0.5811
65702SOL    HW2 8832   1.590   2.948   0.206 -1.5115  1.3888  1.6794
65703SOL     OW 8833   1.964  13.405   3.200 -0.1195 -0.5656  0.2090
65703SOL    HW1 8834   2.008  13.367   3.124  2.0842  0.4597  0.9038
65703SOL    HW2 8835   1.954  13.332   3.261 -1.1293 -1.2067 -0.6782
65704SOL     OW 8836  13.724  13.665   5.875 -0.1064  0.2594 -0.8802
65704SOL    HW1 8837  13.640  13.665   5.920  0.1548 -2.3931 -0.1908
65704SOL    HW2 8838  13.760  13.577   5.891  1.4778  0.2891 -3.5926
65705SOL     OW 8839  10.666   3.309   6.047 -0.6386 -0.0225 -0.0488
65705SOL    HW1 8840  10.653   3.228   5.998 -0.6399  0.1469 -0.3327
65705SOL    HW2 8841  10.649   3.285   6.138 -1.8455 -0.0707 -0.2618
65706SOL     OW 8842  13.275   8.659   3.656 -0.0496  0.1150 -0.6142
65706SOL    HW1 8843  13.184   8.687   3.650  0.2782  0.9491 -2.3327
65706SOL    HW2 8844  13.322   8.717   3.596  1.3695 -1.3249 -0.9630
65707SOL     OW 8845   8.000   1.011  11.832  0.1483  0.1974 -0.1100
65707SOL    HW1 8846   8.012   1.060  11.750 -0.4125  1.2504  0.4090
65707SOL    HW2 8847   7.909   1.028  11.857 -0.4787 -2.1661 -0.5290
65708SOL     OW 8848   3.413  13.644   7.954  0.3929  0.1601 -0.1471
65708SOL    HW1 8849   3.468  13.651   7.875 -1.6352  3.0531 -1.4664
65708SOL    HW2 8850   3.331  13.608   7.922  0.9073 -2.8529  1.5703
65709SOL     OW 8851   0.418   0.348   4.780  0.6012 -0.7495 -0.3990
65709SOL    HW1 8852   0.357   0.323   4.850  0.4828  0.1544 -0.1661
65709SOL    HW2 8853   0.400   0.441   4.765  1.7017 -0.5496 -0.5505
65710SOL     OW 8854   8.320   4.049   3.415  0.4392 -0.2820 -0.2775
65710SOL    HW1 8855   8.226   4.064   3.401  0.5637  0.3667 -0.4682
65710SOL    HW2 8856   8.323   3.982   3.484 -0.1911  1.2310  1.3135
65711SOL     OW 8857   8.041   8.098  10.864 -0.0178 -0.1089  0.1413
65711SOL    HW1 8858   7.947   8.113  10.876  0.0610  1.4342 -0.8830
65711SOL    HW2 8859   8.083   8.175  10.902  0.7976 -0.4149 -0.1107
65712SOL     OW 8860   1.643   2.848   7.752 -0.0498 -0.3932  0.0179
65712SOL    HW1 8861   1.666   2.856   7.659  0.8663 -1.1408  0.1560
65712SOL    HW2 8862   1.683   2.924   7.793 -0.0370 -0.3157 -0.1360
65713SOL     OW 8863   2.850   8.657   1.275  0.3336 -0.3105 -0.2946
65713SOL    HW1 8864   2.795   8.726   1.312  0.2289 -0.4116 -0.2616
65713SOL    HW2 8865   2.931   8.661   1.325 -0.1595 -1.0721  0.6045
65714SOL     OW 8866   7.844  12.847   0.410 -0.0902  0.0978  0.3321
65714SOL    HW1 8867   7.866  12.864   0.502 -0.8795  0.8724  0.3872
65714SOL    HW2 8868   7.770  12.905   0.391 -1.9122 -2.1824  0.0599
65715SOL     OW 8869   1.821   0.619   8.728 -0.0565  0.5722  0.1338
65715SOL    HW1 8870   1.787   0.687   8.670  1.6898  0.1442 -1.4940
65715SOL    HW2 8871   1.771   0.540   8.705 -1.9150  1.1597  1.8558
65716SOL     OW 8872   5.858   6.168  11.471  0.0504  0.1416 -0.5729
65716SOL    HW1 8873   5.794   6.097  11.471 -0.4063  0.5439  0.2974
65716SOL    HW2 8874   5.877   6.182  11.378 -0.4968 -0.5372 -0.8002
65717SOL     OW 8875   6.269  10.787   3.740 -0.4032 -0.3811  0.5134
65717SOL    HW1 8876   6.331  10.793   3.667 -0.0297 -0.2973  0.8333
65717SOL    HW2 8877   6.313  10.731   3.804 -0.1578  0.6011  1.2299
65718SOL     OW 8878   0.615   5.166  11.230 -0.5430  0.1579 -0.0039
65718SOL    HW1 8879   0.642   5.075  11.245  0.5479  0.2065 -1.4960
65718SOL    HW2 8880   0.531   5.159  11.185 -1.3367 -0.0550  1.4505
65719SOL     OW 8881  13.013   0.336   3.974 -0.3943 -0.0504 -0.0219
65719SOL    HW1 8882  12.932   0.387   3.981  0.7753  2.0829 -0.8723
65719SOL    HW2 8883  13.080   0.394   4.010  1.0169 -1.0068 -1.0211
65720SOL     OW 8884   9.299  12.698  12.681  0.5256 -0.1878  0.0758
65720SOL    HW1 8885   9.239  12.759  12.724 -0.6475 -1.2905  0.0902
65720SOL    HW2 8886   9.333  12.643  12.752  1.1210  0.0661 -0.0065
65721SOL     OW 8887  10.669   5.850   7.127 -0.0090 -0.0528 -0.8591
65721SOL    HW1 8888  10.634   5.782   7.069 -1.2832  0.9505 -1.3334
65721SOL    HW2 8889  10.643   5.932   7.085 -0.7016  0.7148  0.9679
65722SOL     OW 8890   4.839  11.809  10.401 -0.1606  0.0840 -0.2664
65722SOL    HW1 8891   4.814  11.869  10.330  0.0256  1.1994  0.5810
65722SOL    HW2 8892   4.775  11.738  10.396 -0.5175  0.4496 -1.1713
65723SOL     OW 8893  12.108   7.614   5.308  0.6275 -0.1195 -0.1643
65723SOL    HW1 8894  12.069   7.610   5.221  0.1198 -2.3493  0.1063
65723SOL    HW2 8895  12.033   7.618   5.368  0.8115 -2.3761  0.2815
65724SOL     OW 8896   1.935   0.712  10.778  0.6329 -0.0477  0.3917
65724SOL    HW1 8897   1.840   0.716  10.793  0.8357 -0.5396  2.0023
65724SOL    HW2 8898   1.947   0.630  10.729  0.3693 -0.8806  1.6697
65725SOL     OW 8899  10.517   9.945   0.950 -0.7071 -0.2096 -0.1179
65725SOL    HW1 8900  10.592   9.887   0.960  0.5223  1.2087 -0.6920
65725SOL    HW2 8901  10.547  10.030   0.983 -1.8547  0.5412 -0.9097
65726SOL     OW 8902   5.494   7.864   4.246 -0.7487 -0.1137 -0.0203
65726SOL    HW1 8903   5.457   7.779   4.223  0.0452 -0.6360  0.5662
65726SOL    HW2 8904   5.577   7.869   4.198 -0.1552 -0.2568  0.9523
65727SOL     OW 8905  13.498   6.036   0.978 -0.0598  0.2708 -0.2370
65727SOL    HW1 8906  13.564   5.968   0.995  0.0299  0.6009  0.8274
65727SOL    HW2 8907  13.443   6.034   1.056 -0.5095  0.9132 -0.5363
65728SOL     OW 8908  12.833   4.583   6.879 -0.5891  0.2368 -0.0548
65728SOL    HW1 8909  12.853   4.598   6.972  2.5385 -1.0068 -0.4257
65728SOL    HW2 8910  12.817   4.489   6.873  0.0272  0.1735 -0.8851
65729SOL     OW 8911   8.641   6.459   5.957 -0.0260 -0.3485  0.2314
65729SOL    HW1 8912   8.734   6.451   5.935  0.0755  1.0642  0.0646
65729SOL    HW2 8913   8.595   6.415   5.885  0.4524  0.6855 -0.7363
65730SOL     OW 8914   8.492  12.967  11.412 -0.3158 -0.5698 -0.3278
65730SOL    HW1 8915   8.482  12.903  11.341  0.5378 -0.8694 -0.1867
65730SOL    HW2 8916   8.405  13.007  11.420 -0.1987  0.1956 -2.2176
65731SOL     OW 8917   2.048  12.159   0.320 -0.4378 -0.1813  0.1812
65731SOL    HW1 8918   1.974  12.149   0.380 -0.8504 -1.9488 -0.5678
65731SOL    HW2 8919   2.080  12.070   0.306 -0.1602  0.1956 -1.9575
65732SOL     OW 8920   6.954   4.273  10.926  0.3800  0.5662  0.2619
65732SOL    HW1 8921   6.995   4.192  10.895 -0.8119 -0.2305  0.6657
65732SOL    HW2 8922   7.020   4.341  10.912  1.8173 -0.6501  0.9304
65733SOL     OW 8923  11.665  10.559  11.428  0.3495 -0.0248  0.3290
65733SOL    HW1 8924  11.675  10.632  11.489 -0.5237  0.2214  0.1968
65733SOL    HW2 8925  11.621  10.491  11.479 -1.4569  0.6045 -0.2934
65734SOL     OW 8926   9.190  10.784   3.942  0.6226  0.4161  0.0360
65734SOL    HW1 8927   9.114  10.805   3.887  1.0200 -1.1155 -1.1648
65734SOL    HW2 8928   9.259  10.842   3.909  0.7366 -0.1849 -0.8288
65735SOL     OW 8929  10.388   6.465   8.308 -0.0826 -0.4364  0.0770
65735SOL    HW1 8930  10.425   6.393   8.360 -2.8211 -1.9757  0.0982
65735SOL    HW2 8931  10.411   6.444   8.218  0.7471 -0.2562  0.2325
65736SOL     OW 8932   8.614   5.493   6.209  0.2043  0.2249 -0.4188
65736SOL    HW1 8933   8.693   5.514   6.160  0.0582  0.5086 -0.5379
65736SOL    HW2 8934   8.564   5.575   6.210 -0.1898 -0.0110 -0.5360
65737SOL     OW 8935  10.993   1.140  12.883 -0.2650  0.6041  0.1914
65737SOL    HW1 8936  11.022   1.231  12.894 -1.4029  1.1179 -0.8591
65737SOL    HW2 8937  10.903   1.147  12.853  0.3237 -0.7872 -2.1642
65738SOL     OW 8938  11.913  11.394   4.858 -0.2915 -0.4020  0.4881
65738SOL    HW1 8939  11.857  11.426   4.929 -1.4024  0.0957 -0.5844
65738SOL    HW2 8940  11.958  11.472   4.826 -0.4120 -0.4871  0.1095
65739SOL     OW 8941   3.552  12.558   0.542  0.1721  0.3490 -0.5012
65739SOL    HW1 8942   3.640  12.530   0.518  0.8779  2.9692 -1.2907
65739SOL    HW2 8943   3.561  12.592   0.632 -0.6195 -1.5994  0.3687
65740SOL     OW 8944   1.347  12.140  10.741 -0.2137  0.2342 -0.8259
65740SOL    HW1 8945   1.323  12.136  10.648  1.8438 -2.0229 -1.3618
65740SOL    HW2 8946   1.294  12.072  10.782 -0.8506  0.9813 -0.3857
65741SOL     OW 8947   0.452   5.531   0.326 -0.0814  0.4380  0.0257
65741SOL    HW1 8948   0.493   5.529   0.240 -1.2849 -0.3172 -0.5552
65741SOL    HW2 8949   0.399   5.451   0.330  0.8600 -0.1567  1.9255
65742SOL     OW 8950   5.028  12.247   3.381 -0.0117  0.2453 -0.3521
65742SOL    HW1 8951   4.935  12.227   3.366 -0.5003  0.6339  1.8331
65742SOL    HW2 8952   5.075  12.191   3.319 -1.5535 -3.2601  1.3651
65743SOL     OW 8953   6.464  13.686   3.670  0.2949 -0.4061 -0.1325
65743SOL    HW1 8954   6.477  13.596   3.641 -1.7624 -0.5648 -0.7324
65743SOL    HW2 8955   6.371  13.690   3.694  0.7605  1.0849  1.6492
65744SOL     OW 8956  10.008  10.621   1.798  0.4976 -0.0780  0.0842
65744SOL    HW1 8957   9.937  10.659   1.850  1.0933  0.5578  0.4624
65744SOL    HW2 8958  10.080  10.612   1.861  0.1726 -2.5183  0.1927
65745SOL     OW 8959   8.900   5.043   4.670 -0.0121  0.0534 -0.3350
65745SOL    HW1 8960   8.995   5.036   4.664 -0.0417 -0.4922 -0.2446
65745SOL    HW2 8961   8.867   4.987   4.599 -0.2618  0.6753 -0.7194
65746SOL     OW 8962  11.319   1.173   6.512 -0.5103 -0.1813  0.3636
65746SOL    HW1 8963  11.346   1.107   6.576 -1.7049 -0.1146  0.9761
65746SOL    HW2 8964  11.255   1.128   6.456 -0.8040  0.2505  0.3428
65747SOL     OW 8965   7.830   3.737   7.268 -0.1229 -0.5204  0.2893
65747SOL    HW1 8966   7.842   3.704   7.179  1.3939 -0.0892  0.3158
65747SOL    HW2 8967   7.867   3.669   7.324 -0.5487 -0.5247  0.5740
65748SOL     OW 8968   3.460   1.648   7.480 -0.2328 -0.4138 -0.4412
65748SOL    HW1 8969   3.399   1.683   7.545  1.2274  0.0225  0.7541
65748SOL    HW2 8970   3.489   1.725   7.431  0.7993 -0.3037  0.2945
65749SOL     OW 8971   4.530   3.224   4.098  0.2588 -0.8498 -0.0855
65749SOL    HW1 8972   4.618   3.261   4.092 -0.0086  0.1274  1.3872
65749SOL    HW2 8973   4.498   3.254   4.183 -1.2647 -1.7149 -0.3260
65750SOL     OW 8974  11.192   2.028   3.878 -0.1570 -0.3615 -0.1450
65750SOL    HW1 8975  11.265   2.090   3.875 -1.3211  1.1314  0.6917
65750SOL    HW2 8976  11.224   1.951   3.831  2.2558 -0.1149  0.9242
65751SOL     OW 8977  11.726   3.268   2.871 -0.1474  0.2330 -0.5099
65751SOL    HW1 8978  11.721   3.334   2.801 -0.2580  2.0385  1.1246
65751SOL    HW2 8979  11.805   3.291   2.920 -1.2219  0.3309  1.2267
65752SOL     OW 8980  13.129  12.278  10.819  0.4016 -0.1870  0.1956
65752SOL    HW1 8981  13.143  12.333  10.897  2.1020 -0.8027  0.3730
65752SOL    HW2 8982  13.160  12.192  10.845  1.9658 -0.1779 -1.4606
65753SOL     OW 8983   0.699   6.621   2.065  0.3599 -0.4444  0.0476
65753SOL    HW1 8984   0.609   6.621   2.097  0.3246 -1.8662  0.0117
65753SOL    HW2 8985   0.719   6.529   2.049  2.3649 -0.3292  1.5406
65754SOL     OW 8986   7.511   2.046  12.730  0.0976 -0.0792  0.0210
65754SOL    HW1 8987   7.602   2.039  12.760 -0.0516 -1.0724  0.2784
65754SOL    HW2 8988   7.498   2.140  12.714  1.4723 -0.0356 -0.9947
65755SOL     OW 8989  11.000  11.920  13.340  0.5475  0.2386 -0.1172
65755SOL    HW1 8990  10.980  11.865  13.264  0.6648  1.8481 -1.3682
65755SOL    HW2 8991  11.089  11.952  13.324  0.2829  1.2190  0.2853
65756SOL     OW 8992  11.228   3.358   6.594  0.4455 -0.1435 -0.2766
65756SOL    HW1 8993  11.177   3.278   6.595  0.2057  0.0168  0.5039
65756SOL    HW2 8994  11.187   3.411   6.525 -0.2336 -0.1496  0.1164
65757SOL     OW 8995   2.261   8.172   5.589 -0.7959 -0.2220  0.1125
65757SOL    HW1 8996   2.223   8.146   5.673 -1.1576  0.0611  0.0378
65757SOL    HW2 8997   2.308   8.253   5.609 -0.2901 -0.5269  0.1868
65758SOL     OW 8998   6.853   8.684   0.647  0.2023  0.4038  0.1652
65758SOL    HW1 8999   6.783   8.742   0.618  0.5730  1.1590  0.7405
65758SOL    HW2 9000   6.931   8.712   0.599 -0.0655 -1.0724 -1.2161
65759SOL     OW 9001   5.733   7.011  11.840  0.1645  0.2282 -0.6949
65759SOL    HW1 9002   5.697   7.077  11.900 -1.1295 -0.3416 -0.7990
65759SOL    HW2 9003   5.709   7.042  11.753 -1.4492 -0.8704 -0.7035
65760SOL     OW 9004   7.356   7.097  12.610  0.1030  0.3845 -0.4693
65760SOL    HW1 9005   7.322   7.136  12.690  0.2231 -2.0243  0.8670
65760SOL    HW2 9006   7.445   7.132  12.602  0.3830  0.0698  0.9433
65761SOL     OW 9007   1.586  10.886   6.302 -0.1687  0.2179 -0.0103
65761SOL    HW1 9008   1.666  10.937   6.286  1.0023 -1.1459  1.1869
65761SOL    HW2 9009   1.565  10.904   6.394 -0.9407  0.1442 -0.1701
65762SOL     OW 9010   7.887   2.988   4.440 -0.4745  0.0354 -0.4413
65762SOL    HW1 9011   7.801   3.032   4.439 -0.8032 -0.5744  0.3267
65762SOL    HW2 9012   7.945   3.050   4.484 -0.2422  0.9214 -1.9285
65763SOL     OW 9013   3.848  11.768   2.068  0.0541  0.4092 -0.1507
65763SOL    HW1 9014   3.825  11.859   2.086  1.3135  0.3885  1.9910
65763SOL    HW2 9015   3.822  11.721   2.147  2.7810 -0.3948  0.3759
65764SOL     OW 9016  12.284   8.958  12.458 -0.2414  0.0567 -0.2851
65764SOL    HW1 9017  12.330   9.030  12.415 -1.8746 -0.4500 -3.2067
65764SOL    HW2 9018  12.239   8.998  12.531  1.2215  1.3896 -0.0599
65765SOL     OW 9019   2.652  11.815  13.673 -0.1128  0.9932 -0.4938
65765SOL    HW1 9020   2.737  11.856  13.686 -0.0261  0.0096  2.9348
65765SOL    HW2 9021   2.589  11.887  13.682  0.2325  1.1437  0.8874
65766SOL     OW 9022   5.881  13.732   6.657 -0.2156 -0.4235  0.4006
65766SOL    HW1 9023   5.976  13.738   6.663 -0.1398 -1.1127 -0.0494
65766SOL    HW2 9024   5.853  13.713   6.747  0.0642 -0.1733  0.5424
65767SOL     OW 9025   7.113   1.264  11.196 -0.2133  0.0696 -0.2908
65767SOL    HW1 9026   7.075   1.199  11.137 -0.7224 -1.1220  1.2782
65767SOL    HW2 9027   7.041   1.324  11.217 -0.3575 -0.2231  0.0601
65768SOL     OW 9028   4.479   7.678  12.593 -0.3484  0.3624 -0.0916
65768SOL    HW1 9029   4.398   7.634  12.567  0.1576 -0.1049 -0.8896
65768SOL    HW2 9030   4.471   7.687  12.688 -1.2474  0.1475 -0.1318
65769SOL     OW 9031   3.433  10.512   8.341  0.2032  0.1440  0.3409
65769SOL    HW1 9032   3.381  10.486   8.264  0.4719 -0.8755  0.4891
65769SOL    HW2 9033   3.480  10.590   8.312  0.8036 -0.5960 -0.7657
65770SOL     OW 9034   7.123   1.057   0.896  0.6332  0.0059  0.5198
65770SOL    HW1 9035   7.123   0.985   0.960  1.5709 -1.4352 -1.0312
65770SOL    HW2 9036   7.043   1.045   0.846  0.9372 -0.1463  0.0657
65771SOL     OW 9037  10.273   4.290   8.854  0.0431 -0.3736  0.3385
65771SOL    HW1 9038  10.237   4.340   8.927  3.5746  3.8774 -0.3904
65771SOL    HW2 9039  10.210   4.301   8.783 -0.9553 -0.0655  1.2558
65772SOL     OW 9040   2.443  10.179   8.362 -0.4989 -0.2100  0.1363
65772SOL    HW1 9041   2.518  10.183   8.303 -0.8031  1.2096 -0.1923
65772SOL    HW2 9042   2.395  10.260   8.346 -0.2598  0.5677  2.7792
65773SOL     OW 9043   4.546   1.776   6.952 -0.2353 -0.2742  0.6173
65773SOL    HW1 9044   4.479   1.761   7.019 -1.1035  3.0188  0.6564
65773SOL    HW2 9045   4.548   1.695   6.902 -2.6433 -1.3222  2.0218
65774SOL     OW 9046   7.807  10.533   9.181 -0.2808 -0.4535 -0.1171
65774SOL    HW1 9047   7.839  10.446   9.157 -0.4085 -0.4728 -0.2180
65774SOL    HW2 9048   7.742  10.516   9.249  0.9728 -0.3286  1.1786
65775SOL     OW 9049   6.348   8.015   8.374  0.5690 -0.0891  0.0956
65775SOL    HW1 9050   6.300   8.032   8.456  1.3617 -0.8530  0.7364
65775SOL    HW2 9051   6.280   8.007   8.308 -0.0513  1.5170  0.4779
65776SOL     OW 9052   1.170   1.827   4.953 -0.1778  0.1848 -0.8355
65776SOL    HW1 9053   1.167   1.750   5.010  0.6421  0.4844 -0.3629
65776SOL    HW2 9054   1.116   1.892   4.997  1.4529  0.8406  0.2902
65777SOL     OW 9055   4.189   8.146   8.155 -0.0555  0.5364  0.2105
65777SOL    HW1 9056   4.149   8.137   8.241 -0.7482 -0.9523 -0.2271
65777SOL    HW2 9057   4.166   8.065   8.109  0.2767  1.2979 -1.3836
65778SOL     OW 9058   8.898   6.694   5.326 -0.0780 -0.4017  0.2761
65778SOL    HW1 9059   8.845   6.686   5.247 -0.8832  1.7175  0.5415
65778SOL    HW2 9060   8.954   6.616   5.325 -0.0855 -0.4632 -2.3366
65779SOL     OW 9061  10.935   1.173   1.246 -0.1131 -0.5641  0.1695
65779SOL    HW1 9062  10.863   1.120   1.210  1.1558 -0.7381 -2.2912
65779SOL    HW2 9063  10.936   1.150   1.339 -3.0399 -0.7542  0.2651
65780SOL     OW 9064   1.369   0.134   2.011 -0.2569 -0.3744  0.3261
65780SOL    HW1 9065   1.294   0.076   2.021 -0.5936  0.3875  3.1535
65780SOL    HW2 9066   1.440   0.090   2.056  0.1339  0.3372  0.4196
65781SOL     OW 9067  12.834  11.609  10.273  0.4996  0.0318 -0.4104
65781SOL    HW1 9068  12.813  11.552  10.348  0.0134 -1.6050 -1.7400
65781SOL    HW2 9069  12.768  11.678  10.278 -1.8177 -1.9636 -1.2494
65782SOL     OW 9070   1.369   6.197   2.346 -0.0888 -0.1944 -0.0047
65782SOL    HW1 9071   1.385   6.264   2.413  2.2131  1.0278 -1.6037
65782SOL    HW2 9072   1.345   6.248   2.268 -0.0072 -1.3734 -0.8165
65783SOL     OW 9073   3.007   7.744   5.196  0.1132  0.1688  0.7534
65783SOL    HW1 9074   3.072   7.709   5.257 -0.3734 -2.5726 -0.1703
65783SOL    HW2 9075   2.942   7.787   5.251  0.0739 -1.5741  2.1569
65784SOL     OW 9076  13.317   0.621   5.953  0.3137  0.0526  0.0569
65784SOL    HW1 9077  13.265   0.650   5.879 -1.9069 -1.0515  1.0783
65784SOL    HW2 9078  13.382   0.690   5.966  0.0730  0.7840 -2.1969
65785SOL     OW 9079   8.919   0.911   9.903 -0.0212  0.5325 -0.0226
65785SOL    HW1 9080   8.850   0.945   9.847  0.1244 -0.7752 -1.0581
65785SOL    HW2 9081   8.943   0.827   9.864  2.6793  1.2448 -0.1522
65786SOL     OW 9082  13.582   2.524  13.189  0.1605  0.0788 -0.1707
65786SOL    HW1 9083  13.578   2.594  13.255 -2.4001  0.5502 -0.7178
65786SOL    HW2 9084  13.655   2.549  13.132  0.3189  1.4269  0.5870
65787SOL     OW 9085  11.408   3.339   8.847 -0.4982 -0.4704 -0.4741
65787SOL    HW1 9086  11.374   3.274   8.909 -0.4513 -0.2364 -0.2007
65787SOL    HW2 9087  11.480   3.294   8.802 -0.3844 -0.5677 -0.1963
65788SOL     OW 9088  12.925   1.439  11.340  0.0131  0.1918  0.2821
65788SOL    HW1 9089  12.934   1.343  11.344  2.7587  0.2357 -1.7085
65788SOL    HW2 9090  12.876   1.455  11.259  0.2786  0.4746  0.1767
65789SOL     OW 9091   3.816   9.630  13.042  0.0882 -0.1673 -0.0075
65789SOL    HW1 9092   3.837   9.647  13.133  0.8719  1.6276 -0.4752
65789SOL    HW2 9093   3.734   9.581  13.045  0.7737 -1.2986  1.6668
65790SOL     OW 9094  10.231  11.258  12.873  0.5639 -0.2197 -0.3332
65790SOL    HW1 9095  10.295  11.253  12.945 -0.0886 -0.6640  0.2309
65790SOL    HW2 9096  10.285  11.264  12.794  1.3593 -2.0981 -0.0074
65791SOL     OW 9097   7.677  10.443   8.901 -0.5424 -0.3411  0.8234
65791SOL    HW1 9098   7.611  10.508   8.923 -0.8796 -0.8868  1.4528
65791SOL    HW2 9099   7.644  10.361   8.937  0.8340 -0.4877  1.8563
65792SOL     OW 9100   5.842   1.298  11.777 -0.3848  0.4934 -0.1486
65792SOL    HW1 9101   5.857   1.384  11.737  1.0633  0.5183  0.4200
65792SOL    HW2 9102   5.929   1.264  11.795 -0.9423 -0.9851 -0.0858
65793SOL     OW 9103   8.916   5.201   3.870 -0.1718 -0.2124 -0.3551
65793SOL    HW1 9104   8.853   5.243   3.812 -0.3754  0.4039  0.3027
65793SOL    HW2 9105   8.987   5.174   3.812  0.7014  2.4220 -0.6361
65794SOL     OW 9106   2.602   1.951   3.490 -0.0849  0.2270  0.1193
65794SOL    HW1 9107   2.582   2.018   3.555 -0.0666 -0.3975  0.7905
65794SOL    HW2 9108   2.578   1.869   3.534  1.2787 -0.3163 -0.1251
65795SOL     OW 9109   5.392  10.710  13.291 -0.5192  0.0938  0.0356
65795SOL    HW1 9110   5.398  10.784  13.351  0.2548 -0.5209  0.7435
65795SOL    HW2 9111   5.303  10.715  13.255 -0.6140  1.1113  0.3813
65796SOL     OW 9112  10.734   4.175   2.364  0.7098  0.4339  0.0693
65796SOL    HW1 9113  10.815   4.199   2.320  1.6410 -2.5897 -0.0985
65796SOL    HW2 9114  10.727   4.237   2.437  3.2345  0.7431  0.1408
65797SOL     OW 9115   7.255   7.468   0.324 -0.0457  0.1999  0.2372
65797SOL    HW1 9116   7.196   7.451   0.251  0.9211 -0.4178 -0.4312
65797SOL    HW2 9117   7.339   7.487   0.283  1.0797 -2.2651  1.1639
65798SOL     OW 9118   9.791   1.822  13.702 -0.2834  0.3697  0.6568
65798SOL    HW1 9119   9.751   1.909  13.706 -1.1498  0.1257 -1.5972
65798SOL    HW2 9120   9.884   1.838  13.716 -0.2075  1.8762 -1.1715
65799SOL     OW 9121   7.716   6.609   6.480 -0.5199 -0.2218 -0.3059
65799SOL    HW1 9122   7.763   6.679   6.433 -1.2541  0.0032 -0.7288
65799SOL    HW2 9123   7.754   6.609   6.567  0.8576 -0.6270 -0.8805
65800SOL     OW 9124   2.201   0.715   7.791 -0.1843  0.4111  0.0405
65800SOL    HW1 9125   2.208   0.810   7.791  0.3168  0.4756 -3.4705
65800SOL    HW2 9126   2.254   0.686   7.717 -1.0730 -2.5416  0.4254
65801SOL     OW 9127   1.784   3.944  10.375 -0.5799  0.1448  0.2607
65801SOL    HW1 9128   1.745   4.000  10.441 -0.8321  0.2715  0.0074
65801SOL    HW2 9129   1.775   3.855  10.409 -1.8141  0.0934 -0.1521
65802SOL     OW 9130  10.653   4.887   7.025  0.0072  0.1151  0.1030
65802SOL    HW1 9131  10.702   4.810   7.052 -3.7209 -1.8930  1.9057
65802SOL    HW2 9132  10.643   4.938   7.106 -0.3396  0.7886 -0.3597
65803SOL     OW 9133   6.918   0.230   7.109 -0.6860 -0.0585  0.0541
65803SOL    HW1 9134   6.839   0.256   7.155 -1.1724 -0.9866 -0.2248
65803SOL    HW2 9135   6.952   0.311   7.072  0.3402  0.9375  2.9175
65804SOL     OW 9136  12.854  13.072   1.486 -0.1547  0.0646 -0.0741
65804SOL    HW1 9137  12.918  13.140   1.465  0.4721  1.0594  4.0410
65804SOL    HW2 9138  12.898  12.989   1.464  1.4534  0.8280  0.1430
65805SOL     OW 9139  11.147   1.416   1.725 -0.2881  0.3961 -0.2465
65805SOL    HW1 9140  11.152   1.321   1.727  0.1462  0.3215 -2.6191
65805SOL    HW2 9141  11.060   1.435   1.691 -0.0051  0.8157 -0.7485
65806SOL     OW 9142  12.474   8.341  13.306  0.1910 -0.0672 -0.4770
65806SOL    HW1 9143  12.464   8.415  13.366 -0.7325  0.6560 -1.5036
65806SOL    HW2 9144  12.567   8.344  13.281  0.2892  0.4008 -0.0818
65807SOL     OW 9145   4.399  10.333   9.083  0.2827 -0.3057 -0.1104
65807SOL    HW1 9146   4.420  10.284   9.004  1.9458 -0.1608  0.2081
65807SOL    HW2 9147   4.455  10.296   9.150  0.5225  1.0490  0.4720
65808SOL     OW 9148   0.357   6.806  10.627  0.4157  0.4359  0.7513
65808SOL    HW1 9149   0.267   6.802  10.660  1.0056  1.5877  2.6594
65808SOL    HW2 9150   0.394   6.720  10.646 -1.0577 -1.2143 -2.8212
65809SOL     OW 9151   7.527   7.990  12.847 -0.0836 -0.6950  0.5541
65809SOL    HW1 9152   7.489   8.047  12.780 -0.9957 -0.0621  1.5775
65809SOL    HW2 9153   7.460   7.924  12.863 -0.3106 -0.2363  1.5619
65810SOL     OW 9154  13.635   1.439   0.539  0.0075 -0.9424 -0.3969
65810SOL    HW1 9155  13.633   1.370   0.472 -1.2618 -0.7963 -0.5338
65810SOL    HW2 9156  13.690   1.403   0.609  4.2807  0.1571 -2.7863
65811SOL     OW 9157  12.063   7.745   5.962  0.0212  0.0098 -0.0765
65811SOL    HW1 9158  12.031   7.835   5.957  2.8377  1.0552 -2.1235
65811SOL    HW2 9159  12.070   7.728   6.056 -2.2078  1.2423  0.3787
65812SOL     OW 9160  12.539   5.486   6.892 -0.1869 -0.0946  0.4859
65812SOL    HW1 9161  12.533   5.433   6.813  1.3281 -1.4010  1.1834
65812SOL    HW2 9162  12.496   5.433   6.960 -1.9151  1.2271  0.4884
65813SOL     OW 9163  11.833   2.360  10.898  0.0697  0.6455 -0.0580
65813SOL    HW1 9164  11.791   2.275  10.888  2.4372 -1.1912  3.5219
65813SOL    HW2 9165  11.764   2.416  10.935 -0.7812 -0.5609  0.2480
65814SOL     OW 9166  10.250   6.674  13.524  0.2904  0.1464  0.0223
65814SOL    HW1 9167  10.223   6.594  13.479 -1.4910 -0.9582  2.7603
65814SOL    HW2 9168  10.266   6.737  13.454 -0.4538 -1.9486 -2.1629
65815SOL     OW 9169  11.281  13.651  11.291  0.1597  0.6857 -0.0721
65815SOL    HW1 9170  11.187  13.647  11.311 -0.2005  1.3917 -1.5484
65815SOL    HW2 9171  11.315  13.720  11.347 -0.2844  0.7287  0.1443
65816SOL     OW 9172   6.116   2.782  12.184 -0.4298  0.0225  0.6083
65816SOL    HW1 9173   6.036   2.731  12.184  0.2047 -1.0091  0.9864
65816SOL    HW2 9174   6.110   2.837  12.106 -1.6264  0.1833  0.7921
65817SOL     OW 9175   9.337   2.947   2.862  0.5608  0.6684  0.0873
65817SOL    HW1 9176   9.258   2.894   2.876  0.5199  0.4171 -0.9948
65817SOL    HW2 9177   9.407   2.883   2.848  0.2998  0.8316 -2.4006
65818SOL     OW 9178  11.561  12.940  11.282  0.5430 -0.0208 -0.0619
65818SOL    HW1 9179  11.542  13.021  11.235 -1.7167 -0.8593 -0.7132
65818SOL    HW2 9180  11.549  12.961  11.374 -2.7370 -0.1758 -0.3570
65819SOL     OW 9181  10.829   6.972   8.033  0.2533 -0.3642 -0.0121
65819SOL    HW1 9182  10.924   6.972   8.039  0.3331 -1.4494 -0.8544
65819SOL    HW2 9183  10.802   6.890   8.075 -0.2764 -0.2375 -0.0957
65820SOL     OW 9184  12.858   6.597  10.673  0.0947  0.5310 -0.2276
65820SOL    HW1 9185  12.800   6.669  10.648  0.5913  1.3559  0.8912
65820SOL    HW2 9186  12.921   6.592  10.601 -0.7550  0.2785 -0.9773
65821SOL     OW 9187   8.997  13.372   8.173  0.7290  0.0443 -0.4799
65821SOL    HW1 9188   8.916  13.330   8.145  2.2276 -1.4309 -3.0220
65821SOL    HW2 9189   8.994  13.459   8.134  1.1190 -0.6697 -2.1905
65822SOL     OW 9190  11.813   6.120  13.038  0.8036  0.1736 -0.0003
65822SOL    HW1 9191  11.783   6.206  13.066  0.8819 -0.4171  2.1163
65822SOL    HW2 9192  11.893   6.137  12.988 -0.4869  1.4456 -1.7552
65823SOL     OW 9193   3.545   9.732   2.214  0.4033  0.3485 -0.0046
65823SOL    HW1 9194   3.487   9.806   2.194  1.8509  1.2122 -1.1812
65823SOL    HW2 9195   3.594   9.718   2.134  1.5367 -0.6395  0.8331
65824SOL     OW 9196   3.045   5.174   6.810  0.1644  0.0945 -0.0235
65824SOL    HW1 9197   3.110   5.139   6.749  0.9459 -0.8316  1.2705
65824SOL    HW2 9198   2.983   5.102   6.822  0.1684  0.1735  0.4735
65825SOL     OW 9199   1.703   0.304   1.125  0.1111  0.7007  0.4603
65825SOL    HW1 9200   1.730   0.330   1.037 -0.0351  0.4503  0.3427
65825SOL    HW2 9201   1.636   0.369   1.149 -0.7759  0.0201 -0.1182
65826SOL     OW 9202  10.610  11.896  10.316 -0.4226  0.0230 -0.6824
65826SOL    HW1 9203  10.632  11.988  10.326  0.0795 -0.0467 -1.0571
65826SOL    HW2 9204  10.685  11.850  10.354  0.6024 -0.2327 -2.8194
65827SOL     OW 9205   2.594   6.764  12.759  0.3640 -0.2519  0.0111
65827SOL    HW1 9206   2.548   6.762  12.843 -0.3991 -0.4622 -0.4019
65827SOL    HW2 9207   2.525   6.780  12.694  0.5887 -2.2467 -0.8003
65828SOL     OW 9208  10.366   1.640   8.456  0.1339  0.1551  0.0723
65828SOL    HW1 9209  10.440   1.678   8.503  1.0286 -0.4185 -0.8207
65828SOL    HW2 9210  10.395   1.636   8.364 -1.2325  0.4643 -0.3976
65829SOL     OW 9211   3.733   7.353  12.504  0.0384  0.3784 -0.4105
65829SOL    HW1 9212   3.661   7.372  12.444  0.1128  0.8589 -0.3523
65829SOL    HW2 9213   3.778   7.278  12.465 -0.2560  0.3248 -0.6530
65830SOL     OW 9214   8.264   1.217   6.523  0.4390  0.7539  0.0143
65830SOL    HW1 9215   8.237   1.295   6.572  0.2375  1.0848 -0.6153
65830SOL    HW2 9216   8.193   1.154   6.538  0.0082  1.1235 -0.4784
65831SOL     OW 9217   0.733   6.214   9.229  0.2930 -0.4207 -0.0959
65831SOL    HW1 9218   0.818   6.176   9.252  1.2136  0.9710 -1.0500
65831SOL    HW2 9219   0.720   6.190   9.137 -0.1993 -0.3228 -0.0554
65832SOL     OW 9220  13.414   1.232   9.786 -0.9110  0.2711 -0.3528
65832SOL    HW1 9221  13.459   1.307   9.824 -1.3074  0.4228 -0.1751
65832SOL    HW2 9222  13.362   1.269   9.714 -1.8322  0.3249  0.3153
65833SOL     OW 9223   4.221   1.495   9.642 -0.2920  0.1684 -0.3166
65833SOL    HW1 9224   4.188   1.583   9.624  1.5027  0.6082 -1.7660
65833SOL    HW2 9225   4.286   1.507   9.712  1.5559  0.4167 -1.9901
65834SOL     OW 9226   3.731   2.296   4.708  0.3587 -0.6372 -0.2388
65834SOL    HW1 9227   3.786   2.254   4.642  0.5713  0.3834 -0.7276
65834SOL    HW2 9228   3.701   2.224   4.764  3.4719 -1.0997  1.0227
65835SOL     OW 9229   6.351  12.515   6.894  0.1870 -0.3249 -0.4732
65835SOL    HW1 9230   6.342  12.450   6.963 -0.0532 -0.0271 -0.2230
65835SOL    HW2 9231   6.306  12.477   6.818 -0.1936 -0.3319 -0.2459
65836SOL     OW 9232   5.463   5.802   6.496  0.4435  0.3920  0.3104
65836SOL    HW1 9233   5.554   5.785   6.472  0.2885 -0.9506  0.6264
65836SOL    HW2 9234   5.461   5.791   6.591 -0.2643 -0.6411  0.1826
65837SOL     OW 9235   9.607   7.135   0.249 -0.0382  0.6036 -0.3494
65837SOL    HW1 9236   9.673   7.190   0.291 -0.9106  1.5586 -0.1873
65837SOL    HW2 9237   9.636   7.128   0.158  0.3343  0.9269 -0.2590
65838SOL     OW 9238   6.738   6.084  11.764 -0.0541 -0.2996 -0.3185
65838SOL    HW1 9239   6.645   6.062  11.764 -0.0099 -1.2407  3.6580
65838SOL    HW2 9240   6.740   6.178  11.745 -1.9527 -0.0543  0.4610
65839SOL     OW 9241  12.784  11.044   6.426  0.2282  0.2034  0.1925
65839SOL    HW1 9242  12.877  11.028   6.437  0.0919 -0.8092 -0.0189
65839SOL    HW2 9243  12.742  10.966   6.463 -0.4887  0.0967 -0.8251
65840SOL     OW 9244   7.433   1.533   7.580  0.0521  0.2219  0.2854
65840SOL    HW1 9245   7.409   1.595   7.648  2.5538  1.8080 -0.1214
65840SOL    HW2 9246   7.351   1.491   7.554 -1.3766  1.7073  2.1853
65841SOL     OW 9247   5.774   0.834  13.344  0.3081  0.2583  0.2145
65841SOL    HW1 9248   5.752   0.745  13.317  3.7304 -0.6984  0.1426
65841SOL    HW2 9249   5.766   0.833  13.439  0.9054 -0.3398  0.2667
65842SOL     OW 9250   5.824   4.956  11.061 -1.0552 -0.2145 -0.2445
65842SOL    HW1 9251   5.903   4.903  11.055 -0.6847  0.4760 -2.1384
65842SOL    HW2 9252   5.855   5.047  11.055 -1.7724  0.2209  1.8840
65843SOL     OW 9253  10.715  11.837   0.348  0.2607  0.4602  0.0167
65843SOL    HW1 9254  10.799  11.878   0.369 -0.4217  1.0480  1.7179
65843SOL    HW2 9255  10.697  11.778   0.422 -0.7903  0.2881 -0.3551
65844SOL     OW 9256   5.834  12.406   1.433 -0.5081 -0.2195 -0.2368
65844SOL    HW1 9257   5.780  12.329   1.452 -0.2505 -0.8018 -1.6981
65844SOL    HW2 9258   5.780  12.480   1.458 -1.2532 -0.8429  0.0383
65845SOL     OW 9259   8.959   8.508  13.383 -0.1405  0.1149  0.0414
65845SOL    HW1 9260   9.018   8.535  13.312 -0.3946 -0.3830 -0.3628
65845SOL    HW2 9261   8.956   8.412  13.376  0.6961 -0.0291  1.4097
65846SOL     OW 9262   4.599   0.660   2.822 -0.1013 -0.0983 -0.0095
65846SOL    HW1 9263   4.665   0.594   2.800 -0.3776 -0.4664  0.2742
65846SOL    HW2 9264   4.515   0.619   2.802 -0.4001 -0.5809  2.0221
65847SOL     OW 9265   3.897   5.233  10.641 -0.1932  0.0157 -0.1277
65847SOL    HW1 9266   3.946   5.251  10.721 -1.0247 -0.6019  0.5463
65847SOL    HW2 9267   3.850   5.314  10.623  1.8880  1.0221 -1.4391
65848SOL     OW 9268   1.087   7.137   4.337  0.0859  0.0369  0.4179
65848SOL    HW1 9269   1.048   7.069   4.281  0.1468 -0.8926  1.4592
65848SOL    HW2 9270   1.058   7.114   4.426  0.1681  1.3480  0.7990
65849SOL     OW 9271   3.203   4.811  12.910  0.5706 -0.2940 -0.2265
65849SOL    HW1 9272   3.267   4.771  12.852  1.3061  0.9142 -0.2851
65849SOL    HW2 9273   3.159   4.877  12.856  2.3807  1.9898  0.9391
65850SOL     OW 9274   3.943   6.576  12.929  0.2089 -0.3722 -0.7775
65850SOL    HW1 9275   3.996   6.644  12.970  0.7259 -0.3614 -1.4540
65850SOL    HW2 9276   3.922   6.516  13.000 -3.3239  2.2599  0.7595
65851SOL     OW 9277   3.128   2.079   7.788  0.2692  0.0535 -0.3376
65851SOL    HW1 9278   3.100   2.001   7.739  1.7826 -0.2658 -0.7576
65851SOL    HW2 9279   3.073   2.150   7.754  0.3573 -0.4259 -1.5162
65852SOL     OW 9280   6.987  13.302   5.939 -0.1420  0.4891  0.4529
65852SOL    HW1 9281   6.941  13.304   5.855  1.2711  0.5994 -0.3501
65852SOL    HW2 9282   6.938  13.237   5.991  1.0771 -2.4867 -1.7847
65853SOL     OW 9283   9.871  13.557  13.509 -0.2655 -0.4771 -0.2286
65853SOL    HW1 9284   9.840  13.604  13.587  3.4924 -0.0617  1.2187
65853SOL    HW2 9285   9.865  13.622  13.439  0.2918  0.6169  0.6844
65854SOL     OW 9286   5.850   8.964  10.092 -0.0795  0.2590 -0.3646
65854SOL    HW1 9287   5.921   8.942  10.153 -0.4366 -0.2444 -0.1174
65854SOL    HW2 9288   5.879   8.930  10.008 -0.3377 -0.5976 -0.1170
65855SOL     OW 9289   6.823   6.296  12.177  0.2831 -0.2446  0.3834
65855SOL    HW1 9290   6.864   6.295  12.263  2.2190  0.0997 -0.4623
65855SOL    HW2 9291   6.891   6.261  12.119 -0.4032  0.9464 -1.2066
65856SOL     OW 9292   4.828   8.705  11.054 -0.2000  0.2582  0.0440
65856SOL    HW1 9293   4.755   8.646  11.073  1.3610 -1.3529  1.4225
65856SOL    HW2 9294   4.786   8.790  11.036 -2.3740 -0.3654  1.6869
65857SOL     OW 9295   9.565   9.129  10.796  0.1362  0.2568  0.0611
65857SOL    HW1 9296   9.655   9.121  10.765  0.5962  1.5144  0.9642
65857SOL    HW2 9297   9.555   9.222  10.817 -0.9901 -0.0767  1.1420
65858SOL     OW 9298   7.708   3.275   6.170  0.2022  0.0740 -0.3737
65858SOL    HW1 9299   7.715   3.319   6.255  1.7995  0.4795 -0.6992
65858SOL    HW2 9300   7.724   3.343   6.106 -0.6940 -0.3016 -1.0156
65859SOL     OW 9301   7.696   7.530  12.257 -0.4760  0.2474 -0.5040
65859SOL    HW1 9302   7.608   7.550  12.225 -0.8597 -0.6072  0.0028
65859SOL    HW2 9303   7.684   7.459  12.319  0.2236  1.8273  1.5795
65860SOL     OW 9304  10.195   5.869   7.715  0.1677  0.1316 -0.2239
65860SOL    HW1 9305  10.177   5.776   7.728  0.2758  0.2089  0.5246
65860SOL    HW2 9306  10.187   5.882   7.621  1.0083 -0.8163 -0.4403
65861SOL     OW 9307  10.636   4.484   4.694  0.1442 -0.2789  0.6933
65861SOL    HW1 9308  10.551   4.466   4.654  0.1727 -0.7371  0.8330
65861SOL    HW2 9309  10.690   4.516   4.622 -0.8930  2.6043  1.0761
65862SOL     OW 9310   1.842   9.019   2.231  0.1025 -0.0384  0.7364
65862SOL    HW1 9311   1.787   9.056   2.162 -1.6330 -1.8510  1.0451
65862SOL    HW2 9312   1.927   9.004   2.189 -0.0154  1.5655 -0.1475
65863SOL     OW 9313   7.992  13.195   5.034 -0.3684 -0.2190 -0.3058
65863SOL    HW1 9314   8.071  13.200   5.088 -0.6605 -1.2828  0.2473
65863SOL    HW2 9315   7.928  13.251   5.077 -1.0011 -2.0109  1.1908
65864SOL     OW 9316  13.448   6.420   2.766 -0.0535  0.0825 -0.2916
65864SOL    HW1 9317  13.419   6.329   2.761 -0.7779  0.3097 -0.4513
65864SOL    HW2 9318  13.454   6.448   2.675 -2.5497  0.9953 -0.2478
65865SOL     OW 9319   6.817  11.796  11.705 -0.7513  0.2652 -0.2492
65865SOL    HW1 9320   6.867  11.857  11.651 -0.7696  1.1796  0.7270
65865SOL    HW2 9321   6.824  11.712  11.659 -2.2379  1.3210 -2.5885
65866SOL     OW 9322  12.741   1.642  10.624  0.1344 -0.3495 -0.1916
65866SOL    HW1 9323  12.757   1.734  10.603 -0.3607 -0.4499 -1.1089
65866SOL    HW2 9324  12.814   1.595  10.583  0.4236 -0.3589  0.3350
65867SOL     OW 9325  12.080   8.857   3.966  0.5009  0.1052 -0.4869
65867SOL    HW1 9326  12.069   8.926   3.901 -0.5158  0.7807  0.3585
65867SOL    HW2 9327  12.015   8.791   3.943 -0.7656  0.9372  0.5412
65868SOL     OW 9328   6.662   1.053  10.851  0.2347 -0.4309 -0.5477
65868SOL    HW1 9329   6.620   1.112  10.788 -1.3061 -2.7515 -1.8194
65868SOL    HW2 9330   6.615   1.068  10.932 -0.7668 -0.5560 -1.0926
65869SOL     OW 9331   3.916  12.828   0.377 -0.4609 -0.5490 -0.1150
65869SOL    HW1 9332   3.957  12.793   0.298 -0.3508  1.6263 -1.1042
65869SOL    HW2 9333   3.989  12.860   0.430 -0.6608  0.4328 -0.4062
65870SOL     OW 9334  12.645  11.950   7.760 -0.2765 -0.0675 -0.1882
65870SOL    HW1 9335  12.571  11.894   7.734  0.0081 -1.7653  2.3150
65870SOL    HW2 9336  12.722  11.897   7.741 -0.0272 -0.9879  2.8796
65871SOL     OW 9337   5.116   9.393   7.284 -0.8535 -0.1225  0.3287
65871SOL    HW1 9338   5.097   9.434   7.200 -1.1225 -0.1768  0.3621
65871SOL    HW2 9339   5.073   9.307   7.280  2.0274 -1.6615 -0.8610
65872SOL     OW 9340   5.225   6.804   8.738 -0.6175 -0.1685 -0.0630
65872SOL    HW1 9341   5.185   6.717   8.749 -1.8369  0.4994  1.0439
65872SOL    HW2 9342   5.282   6.794   8.661 -0.9990 -1.8438 -0.1819
65873SOL     OW 9343  11.939   2.434   0.436  0.3329  0.0193  0.5496
65873SOL    HW1 9344  11.890   2.403   0.512  1.7927 -1.3366  0.9935
65873SOL    HW2 9345  11.942   2.358   0.377 -0.9177  1.0988 -0.9769
65874SOL     OW 9346  11.945  11.943   9.771  0.4375 -0.5310  0.2276
65874SOL    HW1 9347  11.928  11.991   9.852 -1.1584  0.6520 -0.7505
65874SOL    HW2 9348  11.954  11.852   9.800 -1.1071 -0.2987  1.6715
65875SOL     OW 9349   2.729   3.585   8.099 -0.3409 -0.2550  0.2567
65875SOL    HW1 9350   2.723   3.587   8.004  0.1136  0.6299  0.2344
65875SOL    HW2 9351   2.758   3.496   8.120  1.4451  0.0878 -0.5686
65876SOL     OW 9352   7.605   0.620  11.654 -1.0568 -0.4552 -0.0551
65876SOL    HW1 9353   7.633   0.531  11.630 -0.6610 -0.1016 -0.9363
65876SOL    HW2 9354   7.686   0.671  11.654 -1.1807 -0.2216  1.1162
65877SOL     OW 9355  13.346   3.761  10.335 -0.2922  0.0676 -0.2633
65877SOL    HW1 9356  13.303   3.840  10.303 -1.9219  0.7070  2.9840
65877SOL    HW2 9357  13.278   3.693  10.329 -0.4491  0.0701  1.0361
65878SOL     OW 9358   6.533   1.299   7.317 -0.5254  0.7747  0.2761
65878SOL    HW1 9359   6.494   1.263   7.397 -0.0697 -0.4636 -0.0306
65878SOL    HW2 9360   6.473   1.272   7.248  0.3979 -0.4216 -0.0972
65879SOL     OW 9361   7.534   7.421   5.914  0.2068  0.9482  0.0488
65879SOL    HW1 9362   7.612   7.370   5.891 -0.3952  1.0405 -2.3948
65879SOL    HW2 9363   7.565   7.511   5.922  0.5331  0.8237  0.2162
65880SOL     OW 9364   8.525  10.914  11.044  0.4358  0.2864 -0.0835
65880SOL    HW1 9365   8.568  10.850  10.988  0.9083  1.7020 -1.4050
65880SOL    HW2 9366   8.565  10.901  11.130  2.1264  0.2332 -0.8244
65881SOL     OW 9367   2.749   3.420  13.264  0.0551 -0.0526 -0.1027
65881SOL    HW1 9368   2.663   3.421  13.305  0.5356  2.3497  1.0553
65881SOL    HW2 9369   2.734   3.453  13.176 -0.0532  2.3003  0.7150
65882SOL     OW 9370   1.975   2.912   5.579 -0.3536 -0.1974 -0.4391
65882SOL    HW1 9371   1.931   2.890   5.661 -0.4197  0.5992 -0.2596
65882SOL    HW2 9372   1.939   2.850   5.515 -1.9852  0.6364 -0.3656
65883SOL     OW 9373  10.795   6.552   0.320 -0.1817 -0.0649  0.3398
65883SOL    HW1 9374  10.727   6.605   0.278  1.4306  1.5724 -0.4047
65883SOL    HW2 9375  10.777   6.559   0.413 -0.1252  1.7257  0.2495
65884SOL     OW 9376   9.071   7.466   2.832 -0.0253 -0.9064 -0.1035
65884SOL    HW1 9377   9.080   7.536   2.767  3.2166  0.0259  1.1277
65884SOL    HW2 9378   9.098   7.387   2.787  1.4314 -0.3991 -0.1808
65885SOL     OW 9379  11.340   7.275  12.574  0.7911  0.1142  0.3278
65885SOL    HW1 9380  11.330   7.267  12.479  1.3826 -0.6530  0.3145
65885SOL    HW2 9381  11.429   7.307  12.586  0.8383 -0.1254  0.6338
65886SOL     OW 9382   5.155   1.334   6.293 -0.0326  0.1714  0.3500
65886SOL    HW1 9383   5.132   1.383   6.214  0.9071  1.5745  0.9139
65886SOL    HW2 9384   5.206   1.260   6.260  0.7288  0.9809 -0.3527
65887SOL     OW 9385   5.163   7.795   7.641  0.2310  0.4078 -0.0735
65887SOL    HW1 9386   5.128   7.884   7.636 -0.1249  0.2631 -0.2445
65887SOL    HW2 9387   5.162   7.764   7.550 -0.7219 -0.1714  0.1153
65888SOL     OW 9388   0.183  10.056   2.054  0.8070  0.5614 -0.2845
65888SOL    HW1 9389   0.137  10.087   2.132  0.4205 -2.0642  0.6368
65888SOL    HW2 9390   0.114  10.037   1.991  1.0954  2.2879 -1.1859
65889SOL     OW 9391   5.338   9.843   6.300 -0.4308 -0.3102  0.0166
65889SOL    HW1 9392   5.260   9.887   6.266 -0.5566  0.8061  1.6658
65889SOL    HW2 9393   5.395   9.833   6.223 -2.4057 -1.7508 -1.3779
65890SOL     OW 9394   2.375   0.675   7.585  0.0013  0.0048 -0.4550
65890SOL    HW1 9395   2.423   0.735   7.529  0.6941 -0.5590 -0.4827
65890SOL    HW2 9396   2.419   0.590   7.572 -2.4144 -1.0821 -2.3128
65891SOL     OW 9397  10.539  12.631   3.823  0.9452  0.2975  0.0340
65891SOL    HW1 9398  10.593  12.705   3.851  0.7735  0.0324  1.1087
65891SOL    HW2 9399  10.450  12.656   3.846  0.7025  0.3463 -0.9112
65892SOL     OW 9400   1.070  11.850  12.441  0.3812 -0.0363  0.0896
65892SOL    HW1 9401   1.060  11.792  12.516 -1.4848 -1.2999 -1.0458
65892SOL    HW2 9402   1.052  11.794  12.365 -0.5056  1.7769 -1.1158
65893SOL     OW 9403  12.101   4.775   6.363  0.3499 -0.6993 -0.0573
65893SOL    HW1 9404  12.008   4.791   6.346  0.1701 -0.5037  1.0562
65893SOL    HW2 9405  12.109   4.679   6.363 -0.0961 -0.7517  1.0019
65894SOL     OW 9406  10.004   6.959   1.815  0.0962  0.1393  0.1837
65894SOL    HW1 9407  10.080   6.920   1.859  0.9507  0.4465 -0.9696
65894SOL    HW2 9408  10.017   6.938   1.722 -1.2774  0.1418 -0.0232
65895SOL     OW 9409  12.442   0.310  12.125  0.6593  0.1389 -0.3576
65895SOL    HW1 9410  12.419   0.394  12.166  0.2433 -0.0287 -0.2390
65895SOL    HW2 9411  12.364   0.286  12.075  0.0062 -1.1197  1.1607
65896SOL     OW 9412   8.920   4.616   3.304  0.3793  0.0329  0.7174
65896SOL    HW1 9413   8.899   4.605   3.397 -0.0220  0.6481  0.7016
65896SOL    HW2 9414   9.009   4.652   3.303  0.9685 -1.3519  0.8151
65897SOL     OW 9415   9.561   6.098   8.564  0.0392 -0.2070 -0.8764
65897SOL    HW1 9416   9.579   6.087   8.657 -0.4748  0.9633 -0.6236
65897SOL    HW2 9417   9.500   6.171   8.560 -1.2614 -1.3237 -2.0262
65898SOL     OW 9418   9.446   2.001   9.134  0.0686 -0.5733 -0.2367
65898SOL    HW1 9419   9.412   2.080   9.092 -0.1597 -0.3319  0.3943
65898SOL    HW2 9420   9.389   1.988   9.210  1.4918 -0.0794  0.9444
65899SOL     OW 9421   0.636   6.938  10.243  0.1505  0.1496 -0.6194
65899SOL    HW1 9422   0.623   6.947  10.337 -0.6570  0.8975 -0.7961
65899SOL    HW2 9423   0.647   7.027  10.212 -1.0357  0.0194 -1.4412
65900SOL     OW 9424  10.689  10.689  10.141 -0.0151  0.3287  0.1984
65900SOL    HW1 9425  10.681  10.768  10.194  1.5450  0.1828  0.6877
65900SOL    HW2 9426  10.771  10.700  10.092 -0.1182 -0.6883 -0.2275
65901SOL     OW 9427   4.763   5.240   7.611  0.1134  0.2002  0.0871
65901SOL    HW1 9428   4.775   5.148   7.590 -0.0153 -0.0291  0.9943
65901SOL    HW2 9429   4.715   5.275   7.536  0.2460 -0.4448 -0.3080
65902SOL     OW 9430   2.052   9.894  10.540  0.6141  1.0569  0.3433
65902SOL    HW1 9431   2.072   9.800  10.533  0.3589  0.8757  1.7318
65902SOL    HW2 9432   2.121   9.929  10.595 -0.4661  1.2415  1.6398
65903SOL     OW 9433   2.703  12.442   6.979  0.2252 -0.1138 -0.1092
65903SOL    HW1 9434   2.713  12.490   7.062  1.0353  1.0960 -0.8634
65903SOL    HW2 9435   2.780  12.386   6.975 -0.4688 -1.1432  0.5379
65904SOL     OW 9436   7.645   0.955   8.932 -0.9221 -0.0014 -0.2815
65904SOL    HW1 9437   7.707   0.901   8.980  0.2723  1.2203 -0.4014
65904SOL    HW2 9438   7.696   0.997   8.863 -1.9645  0.6727 -0.6843
65905SOL     OW 9439   9.988  11.735   7.895  0.1255 -0.1759 -0.8385
65905SOL    HW1 9440  10.080  11.757   7.881 -0.1104  0.2487 -1.7956
65905SOL    HW2 9441   9.987  11.687   7.978  1.1532  0.1607 -0.6190
65906SOL     OW 9442   0.863   1.408  10.881  0.2704 -0.3874  0.2834
65906SOL    HW1 9443   0.903   1.493  10.895 -1.6041  1.0693 -2.3228
65906SOL    HW2 9444   0.937   1.347  10.880  1.9010  1.4844  0.1774
65907SOL     OW 9445   2.728   4.613   5.424  0.0879 -0.1943 -0.3908
65907SOL    HW1 9446   2.707   4.633   5.332 -0.5392 -1.1248 -0.4610
65907SOL    HW2 9447   2.717   4.518   5.431 -0.3145 -0.0762  0.7693
65908SOL     OW 9448  13.243  10.080   7.286  0.3896  0.1042 -0.3472
65908SOL    HW1 9449  13.337  10.080   7.306  0.4074 -1.6015 -0.3009
65908SOL    HW2 9450  13.201  10.109   7.367  0.8079 -0.3374  0.0295
65909SOL     OW 9451   6.750   2.806   7.078  0.1376 -0.1375  0.1189
65909SOL    HW1 9452   6.815   2.845   7.019  0.2338 -0.2573  0.1443
65909SOL    HW2 9453   6.770   2.845   7.163  0.2114 -0.2136  0.1372
65910SOL     OW 9454  11.881  12.150  12.911  0.2463 -0.0308  0.1846
65910SOL    HW1 9455  11.974  12.130  12.923  0.3123  0.8784  1.4047
65910SOL    HW2 9456  11.838  12.065  12.908  1.0835 -0.4557 -0.1558
65911SOL     OW 9457  13.053  11.279  11.387  0.2598 -0.1475 -0.0016
65911SOL    HW1 9458  13.044  11.256  11.295  2.0330  2.0398 -0.8213
65911SOL    HW2 9459  12.965  11.271  11.423 -0.1582 -2.7469 -1.4125
65912SOL     OW 9460   1.018   5.577  10.820  0.2399 -0.1294  0.3164
65912SOL    HW1 9461   1.047   5.650  10.874 -0.2628  3.9291 -4.2012
65912SOL    HW2 9462   0.927   5.564  10.844  0.7226 -0.3655  2.1666
65913SOL     OW 9463   0.086   2.216   4.886 -0.4856  0.3892  0.3986
65913SOL    HW1 9464   0.118   2.288   4.831  1.3539 -1.0569 -0.5229
65913SOL    HW2 9465   0.160   2.192   4.941 -1.2944 -0.3531  1.1996
65914SOL     OW 9466  12.904   3.179   5.710 -0.0657 -0.2156 -0.1975
65914SOL    HW1 9467  12.991   3.209   5.738  0.6054 -2.0322 -0.1950
65914SOL    HW2 9468  12.902   3.198   5.616  0.0591  0.4458 -0.0713
65915SOL     OW 9469  12.633   4.100   5.474  0.8899  0.2734  0.5729
65915SOL    HW1 9470  12.623   4.004   5.472  0.6676  0.3050 -0.1162
65915SOL    HW2 9471  12.606   4.128   5.387  3.1971  0.7689 -0.0391
65916SOL     OW 9472   4.878   6.863   8.314  0.6052  0.1766  0.2967
65916SOL    HW1 9473   4.813   6.883   8.246  1.2805  0.3519 -0.3180
65916SOL    HW2 9474   4.889   6.768   8.308 -0.4392 -0.0190  1.2034
65917SOL     OW 9475  10.983   5.214   4.650 -1.2085 -0.9303  0.0890
65917SOL    HW1 9476  10.889   5.199   4.660 -1.2513 -1.6396 -1.2090
65917SOL    HW2 9477  10.994   5.309   4.661 -2.0110 -0.8910  0.6086
65918SOL     OW 9478   3.977  11.048   9.302  0.2401 -0.1151  0.0772
65918SOL    HW1 9479   4.009  10.960   9.324  0.3038  0.6784  3.9030
65918SOL    HW2 9480   3.907  11.063   9.365  0.5469  2.7505 -0.1733
65919SOL     OW 9481  10.068   3.792   8.492 -0.2302 -0.5269  0.2473
65919SOL    HW1 9482  10.155   3.830   8.482  0.3860 -1.9945 -0.2141
65919SOL    HW2 9483  10.082   3.712   8.542 -1.2608 -0.9768 -0.1486
65920SOL     OW 9484   3.033   7.231   0.173  0.4999  0.1230 -0.7176
65920SOL    HW1 9485   3.021   7.156   0.114  0.4695  0.4135 -1.0870
65920SOL    HW2 9486   3.068   7.300   0.116  2.3785 -0.1901 -0.0281
65921SOL     OW 9487   3.215  10.604   7.605 -0.4844 -0.2698 -0.0595
65921SOL    HW1 9488   3.283  10.611   7.538 -1.3383 -1.4755 -1.1151
65921SOL    HW2 9489   3.256  10.555   7.676 -0.0648 -0.4387 -0.4153
65922SOL     OW 9490   2.809   5.030   7.817  0.0117  0.2757  0.2439
65922SOL    HW1 9491   2.804   5.052   7.724  0.6366 -0.9210 -0.0942
65922SOL    HW2 9492   2.889   5.073   7.848 -0.0150  0.3914  0.1547
65923SOL     OW 9493   2.347  10.449   7.940 -0.4494  0.6504  0.6417
65923SOL    HW1 9494   2.384  10.367   7.909 -3.3962 -0.0671 -1.3923
65923SOL    HW2 9495   2.274  10.422   7.996  0.5429  1.9786  2.7183
65924SOL     OW 9496   6.916   5.977  12.136  0.0372 -0.7178 -0.0613
65924SOL    HW1 9497   6.825   5.956  12.159  0.2481 -0.8498  0.6624
65924SOL    HW2 9498   6.968   5.937  12.205  0.6326 -0.3810 -0.3099
65925SOL     OW 9499  11.781  12.982   7.968 -0.0530 -0.1553 -0.3270
65925SOL    HW1 9500  11.840  13.010   8.038  1.0084 -1.7658 -0.4906
65925SOL    HW2 9501  11.708  12.940   8.013  0.1329 -0.2863 -0.1399
65926SOL     OW 9502   2.180   7.273  13.030  0.7964 -0.3228 -0.6054
65926SOL    HW1 9503   2.171   7.324  13.110 -2.7344 -0.2656 -0.8613
65926SOL    HW2 9504   2.226   7.193  13.056  0.1020 -0.1030  1.4110
65927SOL     OW 9505  13.279   0.008   6.361  0.7747 -0.5166  0.3250
65927SOL    HW1 9506  13.341   0.056   6.307  0.6842 -0.7216  0.0353
65927SOL    HW2 9507  13.304  -0.084   6.350  0.1562 -0.6402 -0.1402
65928SOL     OW 9508   6.342   1.566  12.072 -0.5979  0.2050  0.4667
65928SOL    HW1 9509   6.415   1.505  12.057 -0.3413  0.5666  0.2365
65928SOL    HW2 9510   6.360   1.604  12.158 -0.4071  0.4407  0.3243
65929SOL     OW 9511   6.370   8.878   1.020 -0.2694  0.2266 -0.2267
65929SOL    HW1 9512   6.349   8.967   1.048 -0.7799  0.2741 -0.7519
65929SOL    HW2 9513   6.466   8.878   1.014 -0.2413  0.6262  0.1504
65930SOL     OW 9514   5.819  10.297   8.185 -0.2414  0.4351 -0.0156
65930SOL    HW1 9515   5.778  10.282   8.270  2.5951  1.3033  1.6459
65930SOL    HW2 9516   5.769  10.368   8.146 -0.7766  0.9719  1.5736
65931SOL     OW 9517   7.115   0.419   3.410 -0.3270 -0.1847  0.4497
65931SOL    HW1 9518   7.199   0.437   3.369 -0.4874  0.7231  0.5065
65931SOL    HW2 9519   7.053   0.411   3.338 -0.0222 -1.9836  0.3286
65932SOL     OW 9520   3.538  12.526  12.018 -0.0654  0.0898  0.1053
65932SOL    HW1 9521   3.593  12.600  12.044  0.3954  0.2295 -1.1853
65932SOL    HW2 9522   3.580  12.492  11.939 -1.4362 -0.2657 -0.4951
65933SOL     OW 9523   7.963   5.851  12.124 -0.1182  0.3238 -0.3570
65933SOL    HW1 9524   7.927   5.768  12.154  0.8684 -0.0644 -0.2055
65933SOL    HW2 9525   7.986   5.836  12.032  1.1331  0.0331 -0.0248
65934SOL     OW 9526   1.495   0.193  10.271  0.1129  0.1227  0.1498
65934SOL    HW1 9527   1.531   0.252  10.205 -1.9445  0.8228 -0.4149
65934SOL    HW2 9528   1.436   0.248  10.322 -0.3409 -1.0165  0.8807
65935SOL     OW 9529   1.952   7.770  12.788 -0.0881 -0.2637  0.0938
65935SOL    HW1 9530   2.015   7.699  12.800  2.1023  1.8389  2.0884
65935SOL    HW2 9531   1.984   7.818  12.712 -0.1731 -0.0600  0.1875
65936SOL     OW 9532   1.023   6.902   4.756  0.0715  0.3607  0.1688
65936SOL    HW1 9533   1.105   6.919   4.804  0.5719  0.4324 -0.6922
65936SOL    HW2 9534   0.957   6.895   4.824  0.6334  1.2532  0.8326
65937SOL     OW 9535   7.597   9.016   9.654  0.0156  0.0512  0.4979
65937SOL    HW1 9536   7.516   9.016   9.604  0.0220 -0.8904  0.4684
65937SOL    HW2 9537   7.664   9.044   9.591  0.1655 -1.9435 -0.3027
65938SOL     OW 9538   9.975   0.439   2.696  0.2941 -0.2887 -0.3321
65938SOL    HW1 9539  10.007   0.497   2.764  0.2531 -1.0546  0.3571
65938SOL    HW2 9540   9.963   0.355   2.740 -2.4363 -0.1208 -0.6016
65939SOL     OW 9541   4.532   7.986   9.947 -0.0241  0.4267  0.6031
65939SOL    HW1 9542   4.621   8.022   9.944 -0.2750  1.3343  2.4473
65939SOL    HW2 9543   4.512   7.963   9.856  1.6471  1.3004 -0.0300
65940SOL     OW 9544   3.097   6.276  12.736  0.1410  0.6714  1.2059
65940SOL    HW1 9545   3.097   6.327  12.817 -0.0766 -0.1080  1.7044
65940SOL    HW2 9546   3.103   6.185  12.765  1.8537  0.4409  0.3052
65941SOL     OW 9547   2.838  11.139  12.352  0.0468  0.0837  0.0090
65941SOL    HW1 9548   2.923  11.173  12.324  0.9969 -0.5351  1.9288
65941SOL    HW2 9549   2.777  11.168  12.285  1.8011  0.3913 -1.5338
65942SOL     OW 9550   8.076   4.159   9.066  0.4376  0.5669  0.2320
65942SOL    HW1 9551   8.090   4.125   9.155 -1.1935 -0.7790  0.0350
65942SOL    HW2 9552   8.103   4.087   9.009 -0.1224  0.7777 -0.3074
65943SOL     OW 9553   0.782   0.024   2.339  0.2382 -0.9266 -0.2285
65943SOL    HW1 9554   0.702   0.003   2.386  0.9980 -0.4000  1.3712
65943SOL    HW2 9555   0.822   0.096   2.389  1.8818 -1.4003 -0.7762
65944SOL     OW 9556   0.931  10.653  10.309  0.0276 -0.1001  0.1403
65944SOL    HW1 9557   0.930  10.575  10.364 -1.0661 -0.3822 -0.2646
65944SOL    HW2 9558   0.997  10.634  10.242  0.0513 -0.5058  0.2784
65945SOL     OW 9559  13.640  12.755   8.895  0.1992 -0.2445  0.5809
65945SOL    HW1 9560  13.722  12.802   8.913  1.2677 -2.4609  1.9561
65945SOL    HW2 9561  13.597  12.748   8.980 -0.1744 -1.3127  0.3128
65946SOL     OW 9562   2.270  11.200   8.241 -0.0156  0.5107 -0.6836
65946SOL    HW1 9563   2.232  11.208   8.154  0.1646  0.8729 -0.7297
65946SOL    HW2 9564   2.204  11.237   8.299  0.3095  1.2498 -0.7747
65947SOL     OW 9565   6.116   9.897  12.664 -0.2897 -0.3822 -0.0117
65947SOL    HW1 9566   6.091   9.890  12.756  1.0750 -0.1882  0.3865
65947SOL    HW2 9567   6.174   9.823  12.649 -1.7709 -1.3734 -1.1765
65948SOL     OW 9568   4.626  12.369   8.593  0.6316  0.1514  0.0868
65948SOL    HW1 9569   4.620  12.332   8.681  0.1953  1.3917  0.6106
65948SOL    HW2 9570   4.703  12.426   8.596  2.2364 -1.8456 -1.1728
65949SOL     OW 9571   8.307  10.454   8.122 -0.2940 -0.2570 -0.0207
65949SOL    HW1 9572   8.276  10.392   8.188 -0.6152 -0.8162 -0.6887
65949SOL    HW2 9573   8.302  10.539   8.165 -3.0909 -0.2475 -0.1743
65950SOL     OW 9574   4.348  11.967   7.575  0.4933  0.2824 -0.4665
65950SOL    HW1 9575   4.428  11.989   7.528 -0.0219  1.3102 -0.8874
65950SOL    HW2 9576   4.279  11.971   7.509 -0.0229  0.2653  0.0653
65951SOL     OW 9577  10.335   8.233   0.191  0.0322  0.1082 -0.1173
65951SOL    HW1 9578  10.368   8.163   0.135  0.6286 -0.4644  0.9378
65951SOL    HW2 9579  10.241   8.214   0.201  0.3748 -1.1005  0.9439
65952SOL     OW 9580  12.389  11.623   9.914  0.3834  0.2804  0.3143
65952SOL    HW1 9581  12.410  11.530   9.911 -1.5462 -0.1775 -0.4798
65952SOL    HW2 9582  12.355  11.643   9.827  2.9412  2.3491 -0.3668
65953SOL     OW 9583  10.245   8.107   2.649 -0.1506  0.0657  0.1551
65953SOL    HW1 9584  10.214   8.143   2.566  0.3374 -3.7009 -1.8743
65953SOL    HW2 9585  10.340   8.100   2.638 -0.1846 -1.3087  0.6235
65954SOL     OW 9586   3.403  13.429   8.596  0.5689  0.4146 -0.3205
65954SOL    HW1 9587   3.405  13.370   8.671 -0.5549  2.0726  1.1039
65954SOL    HW2 9588   3.487  13.476   8.601  0.7887  0.0494 -0.5247
65955SOL     OW 9589   5.496   0.828   5.676 -0.5117 -0.5903  0.2435
65955SOL    HW1 9590   5.533   0.895   5.734  1.0385  1.3222 -2.6997
65955SOL    HW2 9591   5.427   0.873   5.628 -0.3519 -1.4822 -0.8697
65956SOL     OW 9592   9.644  13.071  12.316 -0.1591 -0.0541 -0.3703
65956SOL    HW1 9593   9.626  13.158  12.352  0.5414  0.2492 -0.7318
65956SOL    HW2 9594   9.563  13.046  12.272  0.3116  1.3615 -2.1325
65957SOL     OW 9595  12.994  10.619   0.781 -0.2061 -0.4764 -0.3934
65957SOL    HW1 9596  13.059  10.563   0.739  0.1939  0.1274 -0.5987
65957SOL    HW2 9597  13.019  10.621   0.873  0.3341  0.0949 -0.5425
65958SOL     OW 9598   1.756   9.504   2.756  0.0681 -0.2385  0.6124
65958SOL    HW1 9599   1.807   9.460   2.688 -0.7710 -1.4062  0.6982
65958SOL    HW2 9600   1.819   9.526   2.824  0.3787 -2.3909  1.0965
65959SOL     OW 9601   2.780   7.793   4.340  0.2289 -0.0540  0.4960
65959SOL    HW1 9602   2.749   7.853   4.408  2.0249 -0.3516  1.6416
65959SOL    HW2 9603   2.839   7.846   4.287 -0.1430 -0.1686 -0.0362
65960SOL     OW 9604   1.698   3.306  11.834  0.0681 -0.3264 -0.2003
65960SOL    HW1 9605   1.632   3.260  11.783 -2.6892 -0.0355  2.7362
65960SOL    HW2 9606   1.718   3.248  11.907  0.0073  1.1998  1.1011
65961SOL     OW 9607   2.578   9.286   3.534 -0.3071 -0.1444 -0.1094
65961SOL    HW1 9608   2.515   9.217   3.512 -0.3773  0.3778 -1.6482
65961SOL    HW2 9609   2.650   9.240   3.578  0.2670 -1.4605 -2.2575
65962SOL     OW 9610  10.023   1.096  13.606  0.0494 -0.0544  0.3557
65962SOL    HW1 9611  10.063   1.123  13.688  0.0599 -0.1258  0.3739
65962SOL    HW2 9612   9.932   1.123  13.614  0.2117  0.5874  0.0966
65963SOL     OW 9613   8.556   3.262   8.769  0.1845  0.1960 -0.3985
65963SOL    HW1 9614   8.614   3.251   8.845  1.1753 -0.5275 -1.2370
65963SOL    HW2 9615   8.557   3.356   8.752 -0.1120  0.3805  0.5182
65964SOL     OW 9616   9.921   0.826  11.926  0.4193  0.1853  0.4567
65964SOL    HW1 9617  10.015   0.832  11.907  0.2261  1.1198 -0.3180
65964SOL    HW2 9618   9.907   0.734  11.947  1.4596 -0.0290  0.3001
65965SOL     OW 9619   8.864  10.958   7.188  0.0236 -0.0737 -0.0420
65965SOL    HW1 9620   8.939  10.943   7.245  0.3296  0.9184 -0.1691
65965SOL    HW2 9621   8.828  10.871   7.172  1.3447 -0.5976 -0.2568
65966SOL     OW 9622  10.326  13.392   8.236  0.1209  0.1967  0.0496
65966SOL    HW1 9623  10.273  13.354   8.306  1.4226 -1.0629  0.3861
65966SOL    HW2 9624  10.409  13.415   8.278 -0.2390  2.5605 -0.3701
65967SOL     OW 9625  11.155  12.225  13.564 -0.3442 -0.4789 -0.3845
65967SOL    HW1 9626  11.235  12.239  13.513  0.2488  1.5430  0.9886
65967SOL    HW2 9627  11.084  12.243  13.501  0.3715  2.4113 -0.5037
65968SOL     OW 9628   4.417   9.530   7.685  0.5286  0.0635  0.5395
65968SOL    HW1 9629   4.425   9.604   7.746  1.2500 -0.0601  0.6025
65968SOL    HW2 9630   4.337   9.550   7.634  1.1450  1.3122 -0.0004
65969SOL     OW 9631   9.278  12.732   7.162  0.5004 -0.3524  0.0168
65969SOL    HW1 9632   9.280  12.827   7.153  0.1383 -0.3878 -0.4820
65969SOL    HW2 9633   9.241  12.718   7.249  0.0768 -0.0372 -0.1078
65970SOL     OW 9634   0.346  12.710   3.837  0.0186  0.0777 -0.5806
65970SOL    HW1 9635   0.283  12.678   3.902  0.1717 -1.0992 -0.9940
65970SOL    HW2 9636   0.328  12.658   3.759  1.1246  0.1264 -0.8794
65971SOL     OW 9637   8.777   6.425   6.451 -0.1659 -0.6520 -0.0045
65971SOL    HW1 9638   8.833   6.399   6.378 -0.3991 -0.8107 -0.1311
65971SOL    HW2 9639   8.695   6.376   6.436 -0.5443  0.0154 -0.1491
65972SOL     OW 9640   0.983   4.414   8.334 -0.4129  0.1767 -0.6019
65972SOL    HW1 9641   0.891   4.431   8.352 -0.4435  0.0913 -0.6764
65972SOL    HW2 9642   1.022   4.500   8.321 -0.5410  0.1973 -0.8573
65973SOL     OW 9643   4.887   9.690   8.068 -0.0847 -0.0565  0.2685
65973SOL    HW1 9644   4.901   9.597   8.049 -1.9199 -0.2030 -0.5468
65973SOL    HW2 9645   4.824   9.690   8.140 -1.5703  0.5516 -1.0037
65974SOL     OW 9646  10.932  11.071   8.931  0.2537  0.1441 -0.2154
65974SOL    HW1 9647  11.013  11.041   8.973 -0.3846  0.8831  1.6696
65974SOL    HW2 9648  10.923  11.162   8.959 -1.8098 -0.2544  0.6265
65975SOL     OW 9649   3.726   5.564   6.948  0.1832  0.2213  0.7240
65975SOL    HW1 9650   3.779   5.607   7.016  0.1627 -0.2062  1.0114
65975SOL    HW2 9651   3.639   5.602   6.959  0.2024  0.2232  0.8755
65976SOL     OW 9652   3.863  11.810  10.442 -0.7089  0.4185 -0.0998
65976SOL    HW1 9653   3.804  11.738  10.461  1.8526 -1.3268  1.9151
65976SOL    HW2 9654   3.939  11.769  10.400 -0.9610  2.6200 -3.0310
65977SOL     OW 9655   0.203   0.878  12.424  0.3430  0.4127 -0.2300
65977SOL    HW1 9656   0.118   0.909  12.392 -0.2657 -1.1333 -0.1668
65977SOL    HW2 9657   0.265   0.907  12.358 -0.6327 -0.9723 -1.8421
65978SOL     OW 9658  10.973   3.809   8.259 -0.2276 -0.1450  0.2933
65978SOL    HW1 9659  11.049   3.808   8.200 -0.4576  2.0504 -0.1165
65978SOL    HW2 9660  11.008   3.776   8.342  0.8095 -0.5609 -0.2778
65979SOL     OW 9661   3.496   2.245   0.874  0.0397  0.3227 -0.3664
65979SOL    HW1 9662   3.434   2.194   0.822  1.4126 -1.1764 -0.6101
65979SOL    HW2 9663   3.542   2.300   0.811 -0.3290  0.6765 -0.3274
65980SOL     OW 9664  12.784   4.325   2.145 -0.4199  0.4130  0.1265
65980SOL    HW1 9665  12.865   4.327   2.094 -0.6743 -1.4630 -0.4290
65980SOL    HW2 9666  12.805   4.272   2.221 -1.3020 -0.7515 -0.4075
65981SOL     OW 9667  11.807  12.569   8.936 -0.0342 -0.2382 -0.1232
65981SOL    HW1 9668  11.747  12.602   9.002 -0.5313  0.2316 -0.7923
65981SOL    HW2 9669  11.891  12.611   8.956  0.1834 -1.1694  1.0276
65982SOL     OW 9670   1.363  11.164   0.016 -0.2459 -0.7901  0.2192
65982SOL    HW1 9671   1.340  11.157  -0.077  0.6240 -0.1553 -0.0564
65982SOL    HW2 9672   1.291  11.212   0.056  0.0029  0.0976 -0.3883
65983SOL     OW 9673   4.808  12.883   2.138 -0.2551 -0.1749  0.5869
65983SOL    HW1 9674   4.718  12.875   2.170 -0.3003 -0.6967  0.3301
65983SOL    HW2 9675   4.861  12.842   2.206 -0.4622 -2.5496 -0.5900
65984SOL     OW 9676   7.658   9.783   8.904  0.7616  0.5387  0.3175
65984SOL    HW1 9677   7.738   9.836   8.907  0.1137  1.5004  2.3199
65984SOL    HW2 9678   7.587   9.846   8.914 -0.1410 -0.5038  0.6633
65985SOL     OW 9679   9.409   3.805   7.683 -0.0040 -0.2706  0.1819
65985SOL    HW1 9680   9.430   3.747   7.610 -1.5585 -0.8151  0.1199
65985SOL    HW2 9681   9.425   3.893   7.649  0.3890 -0.5710 -0.4269
65986SOL     OW 9682   9.126  12.397   2.214  0.4273 -0.1009 -0.7762
65986SOL    HW1 9683   9.062  12.363   2.275  1.2634 -1.2483 -0.5197
65986SOL    HW2 9684   9.211  12.374   2.252  0.9660 -0.9156 -2.3783
65987SOL     OW 9685   8.381   6.752   8.652  0.2944 -0.4129  0.1801
65987SOL    HW1 9686   8.362   6.692   8.580  0.9552 -0.6221  0.1765
65987SOL    HW2 9687   8.328   6.830   8.632  1.5336  0.1092 -1.3124
65988SOL     OW 9688  13.670   1.385   5.249 -0.2788  0.2428  0.3398
65988SOL    HW1 9689  13.671   1.450   5.179 -0.0018 -1.8151 -1.6918
65988SOL    HW2 9690  13.582   1.348   5.247 -0.3427  0.3168  1.2588
65989SOL     OW 9691   7.489  13.027   6.106  0.5881 -0.8460 -0.1791
65989SOL    HW1 9692   7.574  13.024   6.063  0.3878 -0.2745 -0.6302
65989SOL    HW2 9693   7.429  13.056   6.037  0.4925  1.5407  0.8209
65990SOL     OW 9694   6.937   9.368   3.753  0.0512 -0.1043 -0.4285
65990SOL    HW1 9695   6.985   9.449   3.736 -0.7429  0.3198 -0.6580
65990SOL    HW2 9696   6.901   9.379   3.841 -2.6043  1.1122 -1.5559
65991SOL     OW 9697   9.469   1.215  13.601  0.6032 -0.3649  0.1467
65991SOL    HW1 9698   9.450   1.288  13.659 -0.8851 -1.2357  0.7857
65991SOL    HW2 9699   9.445   1.137  13.650 -0.1621 -1.1636 -1.3958
65992SOL     OW 9700   4.507   9.742  13.402  0.5175  0.0609  0.8508
65992SOL    HW1 9701   4.471   9.736  13.314  2.4927 -0.8708  0.0382
65992SOL    HW2 9702   4.527   9.834  13.415  0.4515  0.1633  0.2254
65993SOL     OW 9703  10.728  11.664   3.479  0.5242 -0.8255  0.0929
65993SOL    HW1 9704  10.790  11.665   3.552  0.1268 -0.6358  0.4316
65993SOL    HW2 9705  10.643  11.651   3.520  0.2891 -0.6465 -0.3317
65994SOL     OW 9706   2.408  10.220   9.845  0.7943 -0.4828  0.1423
65994SOL    HW1 9707   2.484  10.232   9.902  0.7637 -1.5298  0.4165
65994SOL    HW2 9708   2.442  10.230   9.756  1.0642 -0.0201  0.2941
65995SOL     OW 9709   9.162   1.568   1.381  0.1453 -0.5705  0.1212
65995SOL    HW1 9710   9.185   1.581   1.289  1.5687  0.2077  0.5528
65995SOL    HW2 9711   9.119   1.649   1.407 -0.3045 -0.8111  0.1404
65996SOL     OW 9712   5.957  10.316   8.456 -0.8070 -0.2270  0.0722
65996SOL    HW1 9713   5.911  10.399   8.469  0.7067  0.8126 -0.9201
65996SOL    HW2 9714   5.888  10.250   8.456 -2.2933  1.2515 -1.1850
65997SOL     OW 9715   3.808   3.782  12.068 -0.4095  0.1471  0.5744
65997SOL    HW1 9716   3.807   3.689  12.044 -0.8566  0.2408  0.2114
65997SOL    HW2 9717   3.786   3.783  12.161  0.2179 -0.1491  0.7313
65998SOL     OW 9718   9.979  12.877   8.827 -0.7059  0.2968  0.1008
65998SOL    HW1 9719  10.045  12.828   8.778 -1.8246  0.4625 -1.6529
65998SOL    HW2 9720   9.919  12.811   8.861  1.1654 -0.0304  3.1882
65999SOL     OW 9721   4.022  12.517  10.898  0.1420  0.1492  0.1132
65999SOL    HW1 9722   4.110  12.507  10.862  0.2618 -0.1952  0.4989
65999SOL    HW2 9723   3.967  12.463  10.841  0.4226 -0.8671  0.7763
66000SOL     OW 9724   2.671   2.109   9.436  0.0054 -0.2002  0.0533
66000SOL    HW1 9725   2.677   2.085   9.528 -1.2227  3.0296  1.1256
66000SOL    HW2 9726   2.577   2.103   9.416 -0.0508  1.3774 -0.2444
66001SOL     OW 9727   4.274  13.081  13.646  0.5448 -0.6197  0.1109
66001SOL    HW1 9728   4.332  13.064  13.572  0.6531 -1.1513  0.3158
66001SOL    HW2 9729   4.333  13.096  13.720  0.4288 -1.8616  0.4771
66002SOL     OW 9730   6.515   0.078  12.893  0.5676  0.2705 -0.0848
66002SOL    HW1 9731   6.427   0.115  12.896  0.5699  0.3044 -0.4315
66002SOL    HW2 9732   6.541   0.085  12.801  0.1719 -1.4968 -0.3663
66003SOL     OW 9733  13.462   1.675   1.654 -0.0354 -0.4860  0.1406
66003SOL    HW1 9734  13.408   1.724   1.593  0.2305 -1.3593 -0.8230
66003SOL    HW2 9735  13.414   1.678   1.737 -0.7509  0.1121 -0.2878
66004SOL     OW 9736  10.137   2.332  12.719  0.1377  0.1398  0.1761
66004SOL    HW1 9737  10.061   2.274  12.727  1.5713 -1.9690 -0.6261
66004SOL    HW2 9738  10.141   2.378  12.803 -1.2714 -0.6494  0.7123
66005SOL     OW 9739   6.178  11.701  12.396  0.2877  0.5753 -0.2363
66005SOL    HW1 9740   6.097  11.746  12.420  1.0129  0.7489  2.1196
66005SOL    HW2 9741   6.150  11.613  12.372 -0.7738  1.2157 -1.5259
66006SOL     OW 9742   9.511   4.014   5.375 -0.6382  0.4436 -0.0688
66006SOL    HW1 9743   9.421   3.996   5.402 -0.7689  1.5978  0.3190
66006SOL    HW2 9744   9.552   3.927   5.370 -2.3255 -0.3062 -2.4205
66007SOL     OW 9745   7.464   9.901  10.862 -0.1268 -0.0729 -0.1281
66007SOL    HW1 9746   7.523   9.969  10.828  0.0852  0.2919  0.9210
66007SOL    HW2 9747   7.519   9.824  10.873 -0.4821 -0.6076 -1.8309
66008SOL     OW 9748   7.842   2.446   6.406  0.4646 -0.0969 -0.0783
66008SOL    HW1 9749   7.877   2.532   6.428 -3.5479  1.5370  0.8108
66008SOL    HW2 9750   7.820   2.453   6.313  2.3858 -1.1412 -0.6572
66009SOL     OW 9751   5.100   4.876   0.374 -0.0285  0.0860  0.0890
66009SOL    HW1 9752   5.085   4.798   0.426  0.9985 -0.9064 -1.0531
66009SOL    HW2 9753   5.194   4.877   0.356 -0.4665 -0.3381 -2.7544
66010SOL     OW 9754   1.601   7.377  12.674  0.3525 -0.3102 -1.0587
66010SOL    HW1 9755   1.676   7.408  12.725 -0.8291  0.0967  0.5023
66010SOL    HW2 9756   1.630   7.383  12.583  1.8887  0.7135 -0.5385
66011SOL     OW 9757  11.536   8.654  10.912 -0.1686  0.1575  0.7367
66011SOL    HW1 9758  11.533   8.652  10.817 -0.6036 -2.1528  0.7543
66011SOL    HW2 9759  11.628   8.668  10.933 -0.0605  0.6222 -0.0096
66012SOL     OW 9760   2.952  10.547   0.997  0.0757  0.4614 -0.2091
66012SOL    HW1 9761   3.025  10.601   1.027  2.0344 -1.0338 -2.0433
66012SOL    HW2 9762   2.963  10.542   0.902 -0.1276 -2.9014 -0.1622
66013SOL     OW 9763  12.043  11.832   8.844  0.3584 -0.0745 -0.6005
66013SOL    HW1 9764  12.023  11.743   8.872  0.6712  0.9753  3.5065
66013SOL    HW2 9765  12.130  11.825   8.804  2.3106 -1.2120  3.3385
66014SOL     OW 9766   1.852  12.510   7.824 -0.6989  0.0887 -0.9393
66014SOL    HW1 9767   1.814  12.437   7.872 -0.9453  0.2854 -0.8380
66014SOL    HW2 9768   1.790  12.528   7.753 -0.8301  0.4550 -0.7307
66015SOL     OW 9769   9.081   0.697  10.905  0.4275 -0.1100 -0.6293
66015SOL    HW1 9770   9.138   0.756  10.854 -0.8005  0.3568 -1.5020
66015SOL    HW2 9771   8.995   0.707  10.865  0.6674 -5.0288 -3.1268
66016SOL     OW 9772  13.701   8.439   9.552 -0.3134  0.2784 -0.1320
66016SOL    HW1 9773  13.734   8.349   9.549 -2.0076 -0.4071 -3.4144
66016SOL    HW2 9774  13.755   8.487   9.489  2.1775  2.3638  3.2896
66017SOL     OW 9775  12.625   2.020  12.915  0.7674 -0.3126  0.7472
66017SOL    HW1 9776  12.678   1.946  12.945  0.3620 -0.1331  1.9784
66017SOL    HW2 9777  12.574   1.986  12.842  0.5474 -1.2770  1.3307
66018SOL     OW 9778   0.742   1.773   8.754 -0.6103 -0.1282  0.9325
66018SOL    HW1 9779   0.680   1.706   8.724  0.5491 -1.2687  0.9860
66018SOL    HW2 9780   0.687   1.842   8.791 -1.9173 -0.3721 -0.4451
66019SOL     OW 9781   4.131   2.061   5.582  0.2977 -0.0602 -0.0604
66019SOL    HW1 9782   4.082   1.990   5.540 -1.6549  0.7863  0.6755
66019SOL    HW2 9783   4.122   2.135   5.522  0.9263  0.0411 -0.0394
66020SOL     OW 9784  10.772   8.798  12.923 -0.3475 -0.1550  0.6485
66020SOL    HW1 9785  10.791   8.891  12.934  1.3686 -0.3914  0.0868
66020SOL    HW2 9786  10.857   8.755  12.933 -1.2284 -1.7556  1.6718
66021SOL     OW 9787  11.570   8.722   4.501  0.9161  0.2935  0.1541
66021SOL    HW1 9788  11.508   8.653   4.526 -0.0350  0.1956 -2.1871
66021SOL    HW2 9789  11.541   8.798   4.551 -0.6441  0.0469 -0.3131
66022SOL     OW 9790   0.268   0.959   6.133 -0.6206 -0.1325  0.2398
66022SOL    HW1 9791   0.309   0.881   6.170 -0.2830  0.7724  1.8534
66022SOL    HW2 9792   0.339   1.006   6.089 -0.3321  0.3732  1.2150
66023SOL     OW 9793   2.336  13.119   7.663 -0.5105 -0.3295 -0.2779
66023SOL    HW1 9794   2.268  13.183   7.683 -0.1335  0.5658 -1.7597
66023SOL    HW2 9795   2.311  13.082   7.579 -1.0687 -2.6677  0.8090
66024SOL     OW 9796   1.671   6.275   6.656  0.0532 -0.2846  0.6147
66024SOL    HW1 9797   1.620   6.297   6.733 -2.2615  0.6179 -1.0517
66024SOL    HW2 9798   1.651   6.183   6.640 -1.2383  0.0870 -0.0826
66025SOL     OW 9799   6.070   7.833   9.642 -0.5363 -0.0949 -0.2403
66025SOL    HW1 9800   5.992   7.878   9.609  0.1679  1.4568  0.1259
66025SOL    HW2 9801   6.105   7.891   9.710 -0.4232 -1.9248  1.3584
66026SOL     OW 9802   5.267   7.216  10.534 -0.2686  0.0764  0.0316
66026SOL    HW1 9803   5.262   7.272  10.612 -1.3008 -0.6904  0.5443
66026SOL    HW2 9804   5.359   7.219  10.508  0.8861 -2.2528  3.2469
66027SOL     OW 9805  13.728  11.400   1.478  0.1162 -0.1026 -0.2148
66027SOL    HW1 9806  13.765  11.463   1.417 -1.6683 -1.4358 -2.8460
66027SOL    HW2 9807  13.704  11.324   1.424  0.7795 -2.4674  2.5434
66028SOL     OW 9808   9.001   7.639  10.235 -0.2773 -0.1260  0.1134
66028SOL    HW1 9809   8.985   7.552  10.273 -0.6835 -0.6027 -1.0799
66028SOL    HW2 9810   9.007   7.622  10.141  3.9460  0.5042  0.1141
66029SOL     OW 9811   4.037  13.520   8.086 -0.4071 -0.2155  0.4196
66029SOL    HW1 9812   4.054  13.479   8.171  1.2107  1.0127  0.7557
66029SOL    HW2 9813   4.101  13.479   8.027  0.2374  0.7470  0.4260
66030SOL     OW 9814  10.322   6.048   1.431 -0.0520 -0.3503 -0.2578
66030SOL    HW1 9815  10.330   6.031   1.338 -0.7972 -1.3194 -0.1614
66030SOL    HW2 9816  10.231   6.077   1.443 -0.1925 -0.9903  0.2700
66031SOL     OW 9817   3.227  13.437  12.426 -0.7042  0.4786 -0.6925
66031SOL    HW1 9818   3.282  13.358  12.423 -0.9139  0.3097 -0.2522
66031SOL    HW2 9819   3.163  13.418  12.494  0.2473  1.6855  0.5954
66032SOL     OW 9820   8.801  13.363   7.070 -0.0107 -0.2245 -0.2902
66032SOL    HW1 9821   8.855  13.439   7.053  0.1172 -0.0604  0.8205
66032SOL    HW2 9822   8.711  13.394   7.057  0.0346  0.1553  0.2602
66033SOL     OW 9823  11.256   8.078   2.291  0.0988 -0.3577 -0.2184
66033SOL    HW1 9824  11.182   8.026   2.323 -0.7774  0.7780 -0.3378
66033SOL    HW2 9825  11.262   8.057   2.198 -0.0849 -0.4251 -0.2149
66034SOL     OW 9826  11.807   2.023   9.534 -0.4695 -0.2143  0.3802
66034SOL    HW1 9827  11.757   1.942   9.548  1.3466 -2.0965 -2.7358
66034SOL    HW2 9828  11.895   2.002   9.564  0.9336 -0.8665 -3.5641
66035SOL     OW 9829   2.365   6.276   7.950  0.3593  0.3425 -0.4059
66035SOL    HW1 9830   2.271   6.292   7.949  0.2809  0.2352  1.4926
66035SOL    HW2 9831   2.404   6.357   7.917 -0.3264  1.4500  1.3470
66036SOL     OW 9832   0.978   9.345   2.971 -0.0382 -0.2405  0.3826
66036SOL    HW1 9833   1.049   9.283   2.991  0.6341  0.4098  0.0600
66036SOL    HW2 9834   0.899   9.302   3.004  0.5787 -0.7189  1.3087
66037SOL     OW 9835   8.988   9.589   8.962  0.0340 -0.1803 -0.0861
66037SOL    HW1 9836   9.043   9.664   8.984  0.3626 -0.9149  1.7928
66037SOL    HW2 9837   9.049   9.516   8.954 -0.3868 -0.4567 -0.9341
66038SOL     OW 9838   7.804  12.408  12.794  0.3212 -0.0098  0.5327
66038SOL    HW1 9839   7.752  12.329  12.809  0.0510 -0.0105 -0.3206
66038SOL    HW2 9840   7.761  12.475  12.847  2.1551 -0.9830  3.4892
66039SOL     OW 9841   4.381  12.102   7.161  0.3308 -0.3754  0.6812
66039SOL    HW1 9842   4.467  12.063   7.155 -0.1308 -1.1591 -2.4603
66039SOL    HW2 9843   4.383  12.175   7.098 -1.4146 -0.7712  0.1093
66040SOL     OW 9844   1.923   7.404  10.365 -0.0747  0.2342  0.3322
66040SOL    HW1 9845   1.997   7.351  10.395 -0.0047 -0.5756 -1.2017
66040SOL    HW2 9846   1.953   7.495  10.372 -0.1275  0.1397  2.8113
66041SOL     OW 9847   6.026   1.432   3.202 -0.4171  0.1906 -0.7760
66041SOL    HW1 9848   6.024   1.472   3.289  2.2588  0.4124 -0.7295
66041SOL    HW2 9849   6.045   1.340   3.218 -3.9389 -0.7205 -1.0253
66042SOL     OW 9850  11.802   8.555   1.896 -0.3064  0.2041 -0.4809
66042SOL    HW1 9851  11.820   8.490   1.963  1.6408 -0.9011 -1.9637
66042SOL    HW2 9852  11.871   8.621   1.908 -1.1422  1.0484 -0.1793
66043SOL     OW 9853   2.923   4.614  12.107  0.2234 -0.5368 -0.2372
66043SOL    HW1 9854   2.948   4.640  12.196  0.1546 -0.3850 -0.2617
66043SOL    HW2 9855   2.830   4.636  12.100  0.3891  0.0980 -0.5732
66044SOL     OW 9856   7.558   1.097  10.973  0.0486 -0.4342  0.7698
66044SOL    HW1 9857   7.476   1.136  10.941  0.6004 -0.5144 -0.8172
66044SOL    HW2 9858   7.625   1.129  10.913  0.8755 -1.9623  0.8296
66045SOL     OW 9859   5.935   1.734   2.112  0.3690 -0.1624  0.3811
66045SOL    HW1 9860   5.888   1.817   2.115 -0.4503 -0.5954 -0.2190
66045SOL    HW2 9861   6.025   1.759   2.088 -0.2007  0.4449 -1.2997
66046SOL     OW 9862   1.490   9.612  12.136  0.1103 -0.1697 -0.1145
66046SOL    HW1 9863   1.575   9.634  12.097  0.0163  0.3798 -0.0064
66046SOL    HW2 9864   1.431   9.681  12.106  0.1055  0.4633  1.2782
66047SOL     OW 9865   1.254  12.239   3.724  0.1381 -0.3623  0.0307
66047SOL    HW1 9866   1.243  12.172   3.657 -0.9335 -0.0155 -0.1546
66047SOL    HW2 9867   1.287  12.315   3.677  2.2633 -0.9938  0.3806
66048SOL     OW 9868   6.894  13.082   6.549  0.8362  0.3628  0.5550
66048SOL    HW1 9869   6.918  13.001   6.594 -0.2960 -0.8577 -0.9051
66048SOL    HW2 9870   6.798  13.084   6.554  0.7605  0.7794 -0.7713
66049SOL     OW 9871  10.053  12.105  10.523 -0.1367  0.6729  0.0858
66049SOL    HW1 9872  10.085  12.122  10.434  0.4807 -0.9155 -0.0399
66049SOL    HW2 9873  10.125  12.134  10.580  0.6365 -0.8232 -0.0898
66050SOL     OW 9874  12.624   4.809   5.639  0.2982  0.3254  0.2269
66050SOL    HW1 9875  12.661   4.895   5.660 -0.4420  0.0303  3.1652
66050SOL    HW2 9876  12.540   4.828   5.597 -0.1367  1.0875  1.3924
66051SOL     OW 9877   4.063   1.763   1.023 -0.1379 -0.3950 -0.3561
66051SOL    HW1 9878   3.997   1.819   0.985 -0.2986  0.0035  0.4874
66051SOL    HW2 9879   4.095   1.811   1.099  0.1579 -1.1703  0.0263
66052SOL     OW 9880   6.963   3.541   9.488  0.0427 -0.3763  0.4385
66052SOL    HW1 9881   7.052   3.507   9.499  0.3099 -0.4115 -1.5378
66052SOL    HW2 9882   6.931   3.499   9.408 -0.8572  1.4701 -0.2131
66053SOL     OW 9883   2.076   6.471   7.690  0.0401  0.1257 -0.1117
66053SOL    HW1 9884   2.091   6.447   7.781 -1.9844 -0.8912  0.0128
66053SOL    HW2 9885   2.086   6.389   7.642 -0.6084  0.3132 -0.5739
66054SOL     OW 9886   8.567  10.347   8.804 -0.2166 -0.1265  0.0959
66054SOL    HW1 9887   8.500  10.381   8.745 -0.0714  0.2206  0.1302
66054SOL    HW2 9888   8.630  10.418   8.812  0.6447 -0.7703 -0.6821
66055SOL     OW 9889   2.239  10.137   2.669 -0.5218 -0.4025  0.8006
66055SOL    HW1 9890   2.317  10.191   2.659 -1.4004  1.0123  1.1830
66055SOL    HW2 9891   2.270  10.055   2.705  1.2101 -1.1449 -2.0458
66056SOL     OW 9892   5.405  11.055   7.469  0.2032 -0.4288  0.2749
66056SOL    HW1 9893   5.445  11.130   7.425  1.8484 -1.1758  0.4322
66056SOL    HW2 9894   5.311  11.070   7.461  0.4672  0.4385 -1.7814
66057SOL     OW 9895   9.003   1.605  12.221 -0.0442 -0.1029  0.5084
66057SOL    HW1 9896   9.088   1.644  12.201 -0.8779  1.5492  0.0167
66057SOL    HW2 9897   9.009   1.582  12.314  0.0248  2.5747  1.2278
66058SOL     OW 9898  12.531   1.435  13.419 -0.3624  0.5471  0.6660
66058SOL    HW1 9899  12.596   1.502  13.438 -0.3775  0.6453  0.3721
66058SOL    HW2 9900  12.542   1.416  13.326 -1.7699  1.6667  0.2249
66059SOL     OW 9901   4.317   7.799   6.813 -0.2002  0.1489  0.3267
66059SOL    HW1 9902   4.367   7.778   6.892 -0.8236  0.6270  0.8651
66059SOL    HW2 9903   4.380   7.839   6.754  0.3136 -0.3773  0.5068
66060SOL     OW 9904   1.571  11.933  10.751 -0.4425  0.0706  0.0597
66060SOL    HW1 9905   1.512  12.008  10.757  0.6240  0.8731  0.9119
66060SOL    HW2 9906   1.608  11.938  10.662  2.2395  2.6753  1.1424
66061SOL     OW 9907   5.001   3.389   6.483  0.6910 -0.1447 -0.5160
66061SOL    HW1 9908   5.070   3.325   6.503 -0.5686 -1.4406 -0.2054
66061SOL    HW2 9909   4.925   3.359   6.532  0.7345  3.1049  1.8686
66062SOL     OW 9910   8.305   2.139   8.309  0.1623 -0.6276 -0.2907
66062SOL    HW1 9911   8.393   2.156   8.343 -0.0233 -0.4300  0.0902
66062SOL    HW2 9912   8.309   2.048   8.280 -0.0230 -1.2180  1.3938
66063SOL     OW 9913  10.845   3.422   7.619  0.1241  0.8397 -0.3048
66063SOL    HW1 9914  10.918   3.407   7.559 -0.8060 -0.0532 -1.2679
66063SOL    HW2 9915  10.770   3.379   7.577 -0.6411  0.4715  1.3328
66064SOL     OW 9916   6.623  12.889   3.001  0.0834  0.3290  0.5733
66064SOL    HW1 9917   6.635  12.982   3.022  1.0101  0.3836 -0.1757
66064SOL    HW2 9918   6.528  12.877   3.003 -0.0159  1.0982  1.4903
66065SOL     OW 9919   9.272  10.978  12.060 -0.3431  0.4838 -0.1265
66065SOL    HW1 9920   9.247  11.030  12.136  0.3186  1.7952 -0.7801
66065SOL    HW2 9921   9.229  11.020  11.986  1.9899  1.5537 -0.9879
66066SOL     OW 9922   0.359   1.796  10.618 -0.3964  0.2097  0.5489
66066SOL    HW1 9923   0.331   1.838  10.536  1.4979 -0.3330 -0.4450
66066SOL    HW2 9924   0.438   1.843  10.643  0.2829 -1.0366  0.8399
66067SOL     OW 9925   5.187   7.821   6.628 -0.0716  0.0061 -0.6612
66067SOL    HW1 9926   5.149   7.889   6.684  1.4809 -0.7643  1.4340
66067SOL    HW2 9927   5.203   7.748   6.686 -2.0000 -2.3958 -2.9136
66068SOL     OW 9928   7.495   8.406   5.758 -0.4400  0.3678 -0.0737
66068SOL    HW1 9929   7.428   8.345   5.791  1.0512 -1.2174  0.2022
66068SOL    HW2 9930   7.499   8.389   5.664  1.1507 -1.3002  0.2291
66069SOL     OW 9931   8.018  12.496  12.459  0.0663  0.8395 -0.3255
66069SOL    HW1 9932   8.073  12.552  12.403  0.3485 -0.3477 -1.2761
66069SOL    HW2 9933   8.065  12.491  12.542  0.1666  1.7820 -0.3090
66070SOL     OW 9934   3.400   9.764   7.137  0.3102 -0.0073 -0.0768
66070SOL    HW1 9935   3.449   9.778   7.218  1.6466 -0.6962 -0.7417
66070SOL    HW2 9936   3.440   9.687   7.097  0.9400  1.3977 -2.3448
66071SOL     OW 9937   9.383  10.994   4.244 -0.0518  0.6869 -0.2910
66071SOL    HW1 9938   9.430  11.019   4.165 -0.3216  1.3694 -0.2478
66071SOL    HW2 9939   9.291  11.014   4.223 -0.3858 -1.0002 -0.5260
66072SOL     OW 9940   3.652   6.601  13.712  0.0092  0.1933 -0.2335
66072SOL    HW1 9941   3.686   6.686  13.739  0.8968  0.0430 -0.8055
66072SOL    HW2 9942   3.695   6.584  13.628 -1.9613  0.2437 -1.3106
66073SOL     OW 9943  12.167  10.300   7.707 -0.4828 -0.0706  0.0800
66073SOL    HW1 9944  12.151  10.386   7.745 -0.3090  0.7901 -1.6729
66073SOL    HW2 9945  12.089  10.282   7.654 -0.3319 -0.8057  0.0895
66074SOL     OW 9946   8.947   2.896   4.115 -0.4841 -0.4978  0.7240
66074SOL    HW1 9947   8.978   2.896   4.025  0.4277  1.4812  0.9822
66074SOL    HW2 9948   9.005   2.835   4.161 -1.1506 -1.7486 -0.0477
66075SOL     OW 9949  11.901   0.162   8.349  0.5969  0.0945 -0.2381
66075SOL    HW1 9950  11.866   0.112   8.423 -0.6527  2.4604  0.9059
66075SOL    HW2 9951  11.907   0.099   8.278  0.5828 -1.9960  1.4953
66076SOL     OW 9952  11.789   5.081   0.491  0.4280 -0.4584  0.5934
66076SOL    HW1 9953  11.801   5.146   0.421  1.8304 -1.1914  0.1104
66076SOL    HW2 9954  11.831   5.121   0.567 -1.4283  0.5036  1.1670
66077SOL     OW 9955   5.382  13.443   0.724  0.3640  0.4114 -0.0503
66077SOL    HW1 9956   5.453  13.383   0.702  1.4320  0.8944  1.8800
66077SOL    HW2 9957   5.398  13.520   0.669  0.2534 -0.1749 -0.9330
66078SOL     OW 9958  11.455   9.686   3.690  0.3140 -0.4522 -0.1908
66078SOL    HW1 9959  11.380   9.706   3.747  1.7061 -0.2004  1.6523
66078SOL    HW2 9960  11.446   9.747   3.616 -2.1386 -1.5332 -0.8821
66079SOL     OW 9961  11.672   9.880   8.543 -0.0753 -0.1024 -0.3818
66079SOL    HW1 9962  11.711   9.800   8.577  2.9973  1.0787 -0.8016
66079SOL    HW2 9963  11.656   9.933   8.621  1.5857  0.3509 -0.3096
66080SOL     OW 9964   4.065   9.714   3.510 -0.0313  0.9049 -0.0577
66080SOL    HW1 9965   4.012   9.793   3.524 -1.4117 -0.0253  0.1040
66080SOL    HW2 9966   4.002   9.642   3.512  1.3253 -0.3107  0.8103
66081SOL     OW 9967   7.867   9.365   2.137 -0.8037 -0.4074  0.0534
66081SOL    HW1 9968   7.781   9.334   2.111 -1.0213 -0.6882  1.0701
66081SOL    HW2 9969   7.918   9.286   2.152 -0.3518 -0.2435 -0.5450
66082SOL     OW 9970  11.839   7.901   0.828 -0.1056  0.3245 -0.4178
66082SOL    HW1 9971  11.837   7.877   0.735  1.3953 -0.2270 -0.3384
66082SOL    HW2 9972  11.848   7.817   0.874  0.4854  0.6832  0.1363
66083SOL     OW 9973   2.416  13.217   3.817 -0.0502  0.3708 -0.0010
66083SOL    HW1 9974   2.478  13.227   3.745  0.4067 -0.2106  0.3050
66083SOL    HW2 9975   2.417  13.301   3.862  2.1616 -0.2930  1.3016
66084SOL     OW 9976  11.786   0.908   2.389 -0.2480 -0.6903 -0.2124
66084SOL    HW1 9977  11.844   0.832   2.386 -0.2648 -0.7053 -0.1593
66084SOL    HW2 9978  11.699   0.870   2.401 -0.2018 -0.6392  0.3193
66085SOL     OW 9979   2.194   4.271   0.556  0.4878 -0.3214  0.4670
66085SOL    HW1 9980   2.178   4.203   0.621  0.8747 -0.5430  0.3350
66085SOL    HW2 9981   2.258   4.329   0.597 -0.2927  0.3119  0.8206
66086SOL     OW 9982  10.887   3.922  12.342 -0.3597 -0.0588 -0.2641
66086SOL    HW1 9983  10.929   3.999  12.379  1.4506 -1.4074  0.6797
66086SOL    HW2 9984  10.875   3.943  12.249 -1.4048  1.9132  0.2668
66087SOL     OW 9985   4.459   2.065   6.313 -0.0650 -0.2814  0.7628
66087SOL    HW1 9986   4.424   1.977   6.298  0.8974 -0.5871  0.1987
66087SOL    HW2 9987   4.461   2.105   6.227  1.1541 -0.3622  0.7351
66088SOL     OW 9988   3.639  11.658   3.264  0.2294 -0.2426 -0.3283
66088SOL    HW1 9989   3.618  11.645   3.171 -1.7762  0.3476  0.0001
66088SOL    HW2 9990   3.693  11.737   3.265 -2.1513  1.4893 -0.7977
66089SOL     OW 9991   8.345  11.493   4.151 -0.1427  0.1247  0.8293
66089SOL    HW1 9992   8.363  11.402   4.128 -1.6675 -0.1235  0.4930
66089SOL    HW2 9993   8.424  11.540   4.126  0.6697 -1.1022  1.0111
66090SOL     OW 9994   6.769   0.671   1.293 -0.7134 -0.3454  0.2828
66090SOL    HW1 9995   6.687   0.659   1.341 -1.0799 -1.5577 -0.5977
66090SOL    HW2 9996   6.748   0.646   1.203  0.3347  0.4711 -0.2088
66091SOL     OW 9997   8.618  11.119   9.287 -0.3355  0.1839  0.1439
66091SOL    HW1 9998   8.613  11.102   9.381 -0.4167  2.6363  0.6400
66091SOL    HW2 9999   8.675  11.049   9.253 -0.9452 -1.2135  1.8474
66092SOL     OW10000   7.041   4.105  12.356  0.3881  0.1648  0.4234
66092SOL    HW110001   7.135   4.100  12.371  0.6619  2.7288  0.0195
66092SOL    HW210002   7.006   4.144  12.437 -0.3173 -0.6352  0.5187
66093SOL     OW10003   7.701  11.015  11.206 -0.0346  0.8236 -0.3421
66093SOL    HW110004   7.795  11.032  11.218  0.3848 -2.0277  1.5533
66093SOL    HW210005   7.658  11.088  11.250  1.3894  1.0176  0.8448
66094SOL     OW10006  10.001   2.235   1.943 -0.1888 -0.3944 -0.2900
66094SOL    HW110007  10.089   2.203   1.925  0.2216  0.8831 -0.7027
66094SOL    HW210008   9.998   2.243   2.039 -0.0136 -0.8474 -0.2432
66095SOL     OW10009   1.267   4.835   3.945 -0.0333  0.1432  0.0182
66095SOL    HW110010   1.218   4.781   4.006 -1.6096 -0.2708 -1.5246
66095SOL    HW210011   1.236   4.924   3.961 -0.2462  0.0698  0.0163
66096SOL     OW10012   6.561  13.541   9.152 -0.1371 -0.5376 -0.1328
66096SOL    HW110013   6.530  13.553   9.062  1.0505  0.2569 -0.4586
66096SOL    HW210014   6.508  13.469   9.186 -0.9159 -0.5493 -1.3179
66097SOL     OW10015   3.658   2.501   3.662 -0.2822  0.1335  0.0771
66097SOL    HW110016   3.580   2.553   3.683  0.3526  0.2555  2.4512
66097SOL    HW210017   3.729   2.565   3.656 -0.0848 -0.1322 -0.4347
66098SOL     OW10018   8.593   9.570   1.301  0.2885 -0.2385  0.3202
66098SOL    HW110019   8.532   9.585   1.373 -1.3958 -0.2147 -1.0632
66098SOL    HW210020   8.645   9.650   1.297  0.4927 -0.2904  1.5755
66099SOL     OW10021  13.038   9.341   0.938  0.2255 -0.0719  0.2293
66099SOL    HW110022  13.057   9.429   0.905  0.4172 -0.7202 -1.4843
66099SOL    HW210023  13.124   9.306   0.964  0.2474 -0.0009  0.2524
66100SOL     OW10024   5.215  13.242  13.120  0.2917 -0.4510  0.3721
66100SOL    HW110025   5.185  13.152  13.111  0.2329 -0.4751  0.7771
66100SOL    HW210026   5.294  13.247  13.066  0.8284 -1.0053  1.0921
66101SOL     OW10027   6.466   0.203  11.375 -0.0428  0.0147  0.2319
66101SOL    HW110028   6.489   0.216  11.283 -0.4921  0.7139  0.2046
66101SOL    HW210029   6.419   0.120  11.376  1.7982 -1.0778  0.1826
66102SOL     OW10030   8.329   9.881   3.983 -0.3640 -0.1428  0.0265
66102SOL    HW110031   8.424   9.891   3.988 -0.3601  0.1360 -0.4896
66102SOL    HW210032   8.317   9.802   3.931 -0.4118 -0.0532 -0.1009
66103SOL     OW10033  12.512  11.861   6.386  0.1364 -0.1769  0.3664
66103SOL    HW110034  12.535  11.802   6.458 -0.0704 -1.7697 -0.8207
66103SOL    HW210035  12.423  11.890   6.406  1.1096  1.7945  2.2419
66104SOL     OW10036   2.834   3.651  13.694 -0.2169  1.2001  0.1472
66104SOL    HW110037   2.760   3.601  13.730  0.8712  0.1424  1.0013
66104SOL    HW210038   2.872   3.594  13.628  1.3713  0.6117  1.5097
66105SOL     OW10039   6.005  12.255   7.719  0.3884 -0.7067 -0.7274
66105SOL    HW110040   6.095  12.277   7.696  1.5161 -2.4435  1.5930
66105SOL    HW210041   6.009  12.230   7.812 -2.7271  0.3737 -0.1636
66106SOL     OW10042   3.284   3.871   5.073  0.1666  0.1551 -0.4716
66106SOL    HW110043   3.363   3.828   5.042 -0.4208 -0.8108 -0.6554
66106SOL    HW210044   3.230   3.800   5.107 -1.1109  0.6478 -1.4063
66107SOL     OW10045   5.054   1.779   8.639 -0.0457 -0.1122  0.2387
66107SOL    HW110046   5.120   1.848   8.627 -1.2332  1.6132  2.6658
66107SOL    HW210047   5.083   1.733   8.718 -0.7812 -0.5164  0.2746
66108SOL     OW10048   6.850   6.604   0.298  0.0257 -0.1499 -0.6740
66108SOL    HW110049   6.797   6.590   0.377  0.9429 -0.9022 -0.1743
66108SOL    HW210050   6.934   6.634   0.331  0.5564 -0.8747 -1.3496
66109SOL     OW10051   3.730   4.439  12.018 -0.3149 -0.1822  0.5586
66109SOL    HW110052   3.734   4.463  11.925 -0.1972 -0.1071  0.5816
66109SOL    HW210053   3.658   4.377  12.024 -2.2815  2.0075  0.9084
66110SOL     OW10054   0.105   9.307   1.437 -0.4873 -0.0860  0.0361
66110SOL    HW110055   0.169   9.280   1.502 -0.2837  0.7905  0.2197
66110SOL    HW210056   0.155   9.317   1.356 -0.3256  0.8688  0.2437
66111SOL     OW10057   7.392   7.755  11.694  0.1438  0.3306  0.0192
66111SOL    HW110058   7.422   7.781  11.607  0.0057 -0.2713 -0.2089
66111SOL    HW210059   7.311   7.707  11.678  1.2523 -1.6940  0.2853
66112SOL     OW10060   7.257   2.516  11.513 -0.3329  0.2084  0.3737
66112SOL    HW110061   7.223   2.431  11.486 -0.2446  0.5699 -0.9824
66112SOL    HW210062   7.350   2.500  11.529  0.0535  0.3486 -1.5122
66113SOL     OW10063  13.385   2.608   3.544 -0.0939 -0.3550 -0.0599
66113SOL    HW110064  13.312   2.581   3.599  0.3261 -0.6281  0.3699
66113SOL    HW210065  13.347   2.671   3.482 -0.5652 -0.0104  0.5695
66114SOL     OW10066  12.768  11.093   1.071  0.1535 -0.2943 -0.1136
66114SOL    HW110067  12.706  11.117   1.002  0.2045 -1.4555 -0.5845
66114SOL    HW210068  12.835  11.162   1.069 -0.5697  0.4096 -0.2959
66115SOL     OW10069   2.914   9.069   5.191 -0.1913  0.9751  0.0775
66115SOL    HW110070   2.997   9.075   5.143  0.0356  1.8900  0.5606
66115SOL    HW210071   2.856   9.021   5.132  0.0800  2.0697 -1.1072
66116SOL     OW10072  11.084   2.800   7.587  0.3350  0.4991  0.2238
66116SOL    HW110073  11.011   2.852   7.555 -0.7334 -0.5425  0.8814
66116SOL    HW210074  11.130   2.858   7.649 -1.4564  0.3710  1.7682
66117SOL     OW10075   0.170   7.112   5.119  0.5373  0.5351 -0.1738
66117SOL    HW110076   0.105   7.163   5.168 -0.1770  1.0495 -1.5844
66117SOL    HW210077   0.117   7.054   5.064  1.3264 -0.5704  0.1885
66118SOL     OW10078  13.514   7.142   4.259 -0.5957 -0.6166  0.3127
66118SOL    HW110079  13.565   7.139   4.340  1.0620 -1.1057 -0.7227
66118SOL    HW210080  13.501   7.051   4.235 -0.1963 -0.4567 -0.5196
66119SOL     OW10081  12.958   5.967  11.400  0.3477 -0.8971 -0.2246
66119SOL    HW110082  12.922   5.888  11.439  0.1952 -0.9924 -0.5603
66119SOL    HW210083  12.882   6.024  11.386  0.4145 -0.8258 -0.3009
66120SOL     OW10084   2.658  11.734   5.537 -0.1206 -0.3807  0.4446
66120SOL    HW110085   2.627  11.704   5.452 -0.1366  1.7372 -0.3515
66120SOL    HW210086   2.752  11.718   5.536 -0.4356 -2.7481  1.1290
66121SOL     OW10087   9.017  10.773   9.189 -0.1686 -0.2248 -0.0229
66121SOL    HW110088   9.047  10.746   9.275  0.3371 -1.5395 -0.5950
66121SOL    HW210089   9.095  10.771   9.134 -0.6676 -0.3845 -0.7412
66122SOL     OW10090  12.732   4.928   6.902 -0.5847  0.3605 -0.3143
66122SOL    HW110091  12.815   4.885   6.883  0.2883  2.4158 -1.5403
66122SOL    HW210092  12.673   4.901   6.831 -0.4520  0.1956 -0.3608
66123SOL     OW10093   7.320   5.468   7.001 -0.1899 -0.0123 -0.3351
66123SOL    HW110094   7.387   5.400   6.994  0.3481  0.3594  0.8641
66123SOL    HW210095   7.369   5.546   7.028 -1.2034 -0.0093  1.7093
66124SOL     OW10096   0.445   7.181   3.401  0.1709  0.2148 -0.1391
66124SOL    HW110097   0.517   7.144   3.350  0.5354  0.3625  0.2657
66124SOL    HW210098   0.483   7.201   3.486 -0.2977  0.4875  0.0126
66125SOL     OW10099   2.537   7.987  10.923  0.6047 -0.1350 -0.3688
66125SOL    HW110100   2.453   7.945  10.942  1.3907 -1.9496 -0.6635
66125SOL    HW210101   2.562   8.031  11.004 -0.3763 -0.0231 -0.1231
66126SOL     OW10102  11.492  13.009   8.735 -0.2375 -0.4347 -0.2325
66126SOL    HW110103  11.412  12.989   8.784  0.4825 -3.4348 -0.0661
66126SOL    HW210104  11.470  12.985   8.644 -0.0708  0.4311 -0.5034
66127SOL     OW10105   8.593   4.722   5.694  0.1246  0.1407  0.6589
66127SOL    HW110106   8.551   4.799   5.656  0.8145 -0.3453 -1.2683
66127SOL    HW210107   8.528   4.652   5.685 -0.1057  0.2622  1.3881
66128SOL     OW10108   3.686   5.855   5.550 -0.7913  0.0314  0.6361
66128SOL    HW110109   3.715   5.905   5.474  1.1560 -0.9699  0.6687
66128SOL    HW210110   3.715   5.907   5.625  0.4284 -0.6935  0.6726
66129SOL     OW10111  11.772   3.033   8.237 -0.2180 -0.4424  0.6594
66129SOL    HW110112  11.734   2.991   8.314  0.5050 -1.9334  0.2311
66129SOL    HW210113  11.814   2.962   8.189  1.1527  0.7999 -0.0469
66130SOL     OW10114   9.539   4.811  13.712 -0.0691 -0.4720  0.6609
66130SOL    HW110115   9.605   4.790  13.646 -0.2191  1.0791 -0.0452
66130SOL    HW210116   9.457   4.779  13.675 -0.1866  0.5864 -0.0568
66131SOL     OW10117   8.126   6.019   4.592  0.1643  0.2877 -0.3437
66131SOL    HW110118   8.168   6.082   4.534  0.5566 -0.1863 -0.5823
66131SOL    HW210119   8.199   5.977   4.639 -0.1866  1.3058  1.1785
66132SOL     OW10120   5.613   8.871   6.720  0.0599 -0.5662  0.1157
66132SOL    HW110121   5.532   8.835   6.683  0.4948 -0.1054 -1.3345
66132SOL    HW210122   5.661   8.794   6.750 -0.1049 -1.0034 -0.7099
66133SOL     OW10123   3.709  12.425  11.838 -0.4142  0.5110 -0.3076
66133SOL    HW110124   3.717  12.376  11.756 -0.1128  0.8432 -0.4782
66133SOL    HW210125   3.777  12.389  11.895  0.2000  1.1296 -0.6380
66134SOL     OW10126   9.546   2.476   1.701  0.4391 -0.2426  0.3442
66134SOL    HW110127   9.601   2.400   1.681 -0.8362 -1.1641  0.2495
66134SOL    HW210128   9.459   2.453   1.668 -0.2948  0.7148  1.4985
66135SOL     OW10129   5.330   9.520   1.206 -0.8142 -0.2145  0.3592
66135SOL    HW110130   5.288   9.533   1.121 -1.2388  0.3643  0.6499
66135SOL    HW210131   5.377   9.602   1.222  0.3526 -0.8111  0.0878
66136SOL     OW10132  13.396   4.514   1.815 -0.1677 -0.2284 -0.1843
66136SOL    HW110133  13.442   4.536   1.734 -0.0272  0.3244  0.0448
66136SOL    HW210134  13.450   4.550   1.885 -0.5070 -0.3281  0.1341
66137SOL     OW10135   1.805  10.525   2.803  0.2220 -0.2502  0.5934
66137SOL    HW110136   1.767  10.484   2.725 -1.3225  0.8596  0.7137
66137SOL    HW210137   1.843  10.607   2.772 -0.4421  0.2187  1.0022
66138SOL     OW10138  10.782  13.592   4.475 -0.2548 -0.3296 -0.1222
66138SOL    HW110139  10.857  13.650   4.459 -0.3719  0.1487  0.9764
66138SOL    HW210140  10.720  13.646   4.524  0.3588 -1.8051  2.4792
66139SOL     OW10141   9.476  11.458   7.194  0.1194  0.1839 -0.2149
66139SOL    HW110142   9.439  11.379   7.232  0.6774 -0.1750 -0.4044
66139SOL    HW210143   9.548  11.427   7.139  1.2430  0.9164  0.7890
66140SOL     OW10144   8.092   3.250   9.101 -0.2662 -0.3758 -0.0363
66140SOL    HW110145   8.109   3.322   9.039 -2.5039  1.7348  1.6111
66140SOL    HW210146   8.173   3.198   9.099  1.0372  1.5114 -2.1649
66141SOL     OW10147  13.652   4.954  10.891 -0.6908  0.0241 -0.3761
66141SOL    HW110148  13.598   4.876  10.899 -2.2537  0.8949 -1.8131
66141SOL    HW210149  13.646   4.978  10.799  0.3855  1.4132 -0.1207
66142SOL     OW10150   7.388   5.976   1.127 -0.9361  0.1677  0.3797
66142SOL    HW110151   7.384   5.955   1.221 -1.9994  1.4380  0.6613
66142SOL    HW210152   7.461   5.924   1.094  0.3237  0.6608  2.1861
66143SOL     OW10153   0.181   2.960  10.244  0.1766  0.2693 -0.0225
66143SOL    HW110154   0.160   2.887  10.303  1.4821 -0.0343  0.1103
66143SOL    HW210155   0.250   3.008  10.290  0.0235  1.0130 -0.5568
66144SOL     OW10156  10.804   4.465   3.097  0.5799 -0.1029 -0.7473
66144SOL    HW110157  10.712   4.454   3.120  0.7822 -0.7345 -0.2275
66144SOL    HW210158  10.843   4.379   3.110  1.4497  0.3792 -0.0297
66145SOL     OW10159   8.604   0.498   0.008 -0.6356  0.6001  0.4409
66145SOL    HW110160   8.682   0.487  -0.046  0.4905 -0.9873  2.2632
66145SOL    HW210161   8.595   0.415   0.054 -1.5214  1.8549  2.6970
66146SOL     OW10162   0.661   0.278   9.356 -0.1852 -0.1783  0.0152
66146SOL    HW110163   0.573   0.304   9.385  0.2663  0.2993  1.0274
66146SOL    HW210164   0.707   0.257   9.437  1.4612  2.2263 -0.2042
66147SOL     OW10165   7.740   6.306   8.071 -0.0331  0.0224 -0.1133
66147SOL    HW110166   7.741   6.243   7.999 -0.2763  0.7919 -0.7951
66147SOL    HW210167   7.735   6.251   8.150  1.0640 -0.8643 -0.6206
66148SOL     OW10168   6.222  12.488   6.134  0.7020  0.1167 -0.2387
66148SOL    HW110169   6.196  12.396   6.141  1.0210  0.1469  2.1113
66148SOL    HW210170   6.317  12.484   6.119  1.1896  0.0015  2.4527
66149SOL     OW10171  11.662   4.286  10.233 -0.3334 -0.0654 -0.1304
66149SOL    HW110172  11.657   4.216  10.299  0.7603 -0.8747 -0.8657
66149SOL    HW210173  11.756   4.302  10.223 -0.5031  0.2417 -1.2809
66150SOL     OW10174   5.382   6.748  10.961 -0.0183 -0.0594 -0.3427
66150SOL    HW110175   5.298   6.752  11.005  0.2947 -2.2255  0.6066
66150SOL    HW210176   5.363   6.768  10.869 -1.7234 -1.3297 -0.3104
66151SOL     OW10177  11.404   9.333   9.558 -0.6455 -0.4208  0.4816
66151SOL    HW110178  11.499   9.345   9.548 -0.1482 -2.1037  2.4645
66151SOL    HW210179  11.372   9.421   9.579  0.7935 -0.1315  1.6692
66152SOL     OW10180   2.415   9.742  12.971  0.2255  0.3777  0.0230
66152SOL    HW110181   2.373   9.657  12.972 -0.5133  0.7298 -0.5374
66152SOL    HW210182   2.489   9.732  12.911  1.8155 -0.6231  2.0285
66153SOL     OW10183   7.950  10.351   5.803  0.4292 -0.4431  0.2279
66153SOL    HW110184   8.001  10.395   5.735  1.7442 -1.4270  0.5445
66153SOL    HW210185   7.870  10.323   5.758  1.3304 -1.1853 -0.9822
66154SOL     OW10186   9.543   9.110   6.734  0.2726 -0.1253 -0.3071
66154SOL    HW110187   9.593   9.157   6.801 -0.6985 -1.2818  1.2863
66154SOL    HW210188   9.560   9.018   6.752 -3.5247 -0.7045  1.3280
66155SOL     OW10189   6.877   7.739   7.846 -0.6264  0.2144  0.1419
66155SOL    HW110190   6.922   7.734   7.762  0.9429 -0.6153  1.0013
66155SOL    HW210191   6.907   7.822   7.884  1.3596 -0.9867  1.3224
66156SOL     OW10192   7.458   4.584   0.782  0.5192 -0.2071 -0.0580
66156SOL    HW110193   7.395   4.552   0.717  0.2426  0.1684  0.0272
66156SOL    HW210194   7.452   4.679   0.777  2.5220 -0.0782 -1.4700
66157SOL     OW10195   0.046   0.016  11.279  0.1478 -0.0796  0.5946
66157SOL    HW110196   0.036  -0.062  11.223 -0.7999 -0.0842  0.7443
66157SOL    HW210197  -0.019   0.078  11.245  0.8645  0.6345  0.5067
66158SOL     OW10198   8.112  10.525  13.025 -0.4236 -0.0853 -0.3140
66158SOL    HW110199   8.159  10.512  13.107 -0.6325 -1.9904 -0.4510
66158SOL    HW210200   8.037  10.580  13.048 -1.8557 -2.5234  1.3416
66159SOL     OW10201   6.132   2.953  11.953  0.2064 -0.2416  0.0990
66159SOL    HW110202   6.207   3.008  11.977 -0.1848 -0.6870  2.7374
66159SOL    HW210203   6.056   3.009  11.968 -0.0766 -0.5831 -0.0604
66160SOL     OW10204   2.924  11.128  11.078  0.9067 -0.0885  0.0650
66160SOL    HW110205   2.833  11.123  11.051  1.0723  0.7972 -0.7292
66160SOL    HW210206   2.923  11.184  11.156  0.7845  0.0353 -0.0241
66161SOL     OW10207  11.352   6.854   2.518  0.0383  0.6803  0.2297
66161SOL    HW110208  11.446   6.840   2.526  0.3302  1.9568 -0.7070
66161SOL    HW210209  11.340   6.947   2.539 -0.6019  1.2962 -2.5125
66162SOL     OW10210  11.659   2.321   0.274 -1.1114 -0.4566 -0.3228
66162SOL    HW110211  11.736   2.268   0.295 -2.7316 -2.8236  0.1378
66162SOL    HW210212  11.627   2.285   0.192 -1.9162  0.2650 -0.3373
66163SOL     OW10213   4.338   4.681   7.347  0.3925  0.4995 -0.0742
66163SOL    HW110214   4.370   4.666   7.258  3.1313  0.8717  0.7619
66163SOL    HW210215   4.305   4.771   7.345  0.3360  0.4736 -0.7265
66164SOL     OW10216  11.971   1.178  12.867 -0.0977 -0.0431 -0.4142
66164SOL    HW110217  12.019   1.095  12.860  0.4581 -0.0008  1.9716
66164SOL    HW210218  12.023   1.241  12.817  1.6041 -0.3179  0.9442
66165SOL     OW10219   5.804   5.198   9.059 -0.4608 -0.3288 -0.0814
66165SOL    HW110220   5.774   5.232   9.143  0.0386 -0.5833  0.2058
66165SOL    HW210221   5.752   5.119   9.044 -1.9380  0.7611 -0.9621
66166SOL     OW10222   6.900   1.004  10.753 -0.6040  0.5522  0.0714
66166SOL    HW110223   6.901   0.923  10.805 -1.1362 -0.3603 -1.2873
66166SOL    HW210224   6.807   1.025  10.744 -0.6459 -0.3173 -1.9849
66167SOL     OW10225   4.777   0.200   3.884  0.1953  0.4098 -0.2843
66167SOL    HW110226   4.701   0.238   3.929  1.6999  1.7658  1.2897
66167SOL    HW210227   4.841   0.186   3.954  0.7419 -2.5453 -1.2610
66168SOL     OW10228   7.170   0.202   1.348 -0.0329 -0.2956  0.8832
66168SOL    HW110229   7.079   0.189   1.374 -0.6819  1.0787 -0.5258
66168SOL    HW210230   7.203   0.268   1.410 -0.8932  1.3151 -0.3136
66169SOL     OW10231   4.214  11.097   8.709  0.6322  0.2077 -0.3276
66169SOL    HW110232   4.180  11.021   8.662  1.2936 -1.1628  1.2972
66169SOL    HW210233   4.296  11.067   8.747  0.1194  1.1856  1.7269
66170SOL     OW10234  10.072  12.671   1.218 -0.8838  0.1343  0.7166
66170SOL    HW110235  10.114  12.735   1.275 -0.2078 -0.1782  0.5905
66170SOL    HW210236  10.037  12.605   1.277  0.0415 -0.3239  0.7825
66171SOL     OW10237   3.411   2.508   4.992  0.7212  0.4993  0.4052
66171SOL    HW110238   3.424   2.503   4.897  1.3480  0.1470  0.5074
66171SOL    HW210239   3.455   2.431   5.027  1.0244  0.9534  1.0420
66172SOL     OW10240   0.178   2.029   3.998  0.0605 -0.3876 -0.1982
66172SOL    HW110241   0.091   1.997   4.024  0.6029 -1.9823 -0.1809
66172SOL    HW210242   0.239   1.968   4.040  1.1710  0.3173 -0.7259
66173SOL     OW10243   8.290   2.402  10.156 -0.7153  0.1410 -0.1025
66173SOL    HW110244   8.199   2.416  10.132 -0.8384  1.1791  0.8794
66173SOL    HW210245   8.289   2.322  10.209 -0.7944 -0.7653 -1.4299
66174SOL     OW10246   9.148   7.256  13.578  0.3871 -0.6044 -0.6121
66174SOL    HW110247   9.151   7.274  13.484 -3.2809  3.0782 -0.3076
66174SOL    HW210248   9.199   7.326  13.617 -2.0407  0.8565  0.1673
66175SOL     OW10249   3.451   4.994  12.792  0.6617  0.5039  0.3692
66175SOL    HW110250   3.517   4.928  12.814  1.4644  0.8363 -0.9192
66175SOL    HW210251   3.452   4.998  12.696 -2.1260 -0.3681  0.1928
66176SOL     OW10252   4.366  11.637   5.390 -0.0566  0.1086 -0.5858
66176SOL    HW110253   4.441  11.582   5.414  0.4183  0.7940 -0.4891
66176SOL    HW210254   4.393  11.726   5.411 -1.1685  0.2977  0.1135
66177SOL     OW10255   8.935   4.421   8.033  0.1475 -1.4328  0.2776
66177SOL    HW110256   8.988   4.444   8.109 -0.7066 -0.8685  0.7232
66177SOL    HW210257   8.998   4.414   7.961  0.7081  0.2840  0.5603
66178SOL     OW10258   8.504   1.965  10.004 -0.0265 -0.0057  0.1583
66178SOL    HW110259   8.480   2.055   9.984  0.5916  0.6320  2.0504
66178SOL    HW210260   8.600   1.966  10.007 -0.0373 -0.5025  1.0286
66179SOL     OW10261   1.080  12.676   7.380 -0.2285  0.4900  0.1905
66179SOL    HW110262   1.036  12.592   7.391  2.5266 -1.2341 -0.9887
66179SOL    HW210263   1.058  12.702   7.290 -0.6001  0.7431  0.3529
66180SOL     OW10264   2.179  12.954  11.058  0.1620 -0.1020  0.5801
66180SOL    HW110265   2.254  12.992  11.012 -0.9228 -0.1313 -1.2772
66180SOL    HW210266   2.114  13.023  11.060 -0.0920 -0.3490  1.4522
66181SOL     OW10267   5.235  12.700  13.561 -0.0651  0.1333  0.6795
66181SOL    HW110268   5.312  12.755  13.542  1.3243 -2.3818 -1.8338
66181SOL    HW210269   5.268  12.634  13.622 -0.1922 -0.9021 -0.3361
66182SOL     OW10270   9.351   8.740   6.934 -0.2249 -0.0871 -0.2323
66182SOL    HW110271   9.296   8.671   6.896  0.0196 -0.5133  0.1821
66182SOL    HW210272   9.289   8.809   6.958 -0.5854 -0.5603  0.2196
66183SOL     OW10273   9.258   0.974   6.400  0.3272 -0.0180 -0.4377
66183SOL    HW110274   9.163   0.988   6.391  0.0649 -1.9782 -1.3975
66183SOL    HW210275   9.282   0.924   6.322  1.9883 -0.3158  0.2296
66184SOL     OW10276   9.440   5.522  11.554  0.1990  0.6933 -0.0121
66184SOL    HW110277   9.510   5.486  11.609 -0.6995  0.1796  0.8187
66184SOL    HW210278   9.482   5.593  11.506  1.8111 -0.8811 -1.0586
66185SOL     OW10279  10.483   6.774   9.038 -0.1528  0.0360  0.0488
66185SOL    HW110280  10.499   6.786   8.944 -0.9107  0.6491 -0.0171
66185SOL    HW210281  10.525   6.849   9.079 -2.5564  1.5908 -0.1152
66186SOL     OW10282  12.944   6.153   8.867  0.5289  0.4456  0.5742
66186SOL    HW110283  13.006   6.146   8.794  3.6423 -1.3943  3.0982
66186SOL    HW210284  12.894   6.071   8.863  0.0468  0.7566  0.0372
66187SOL     OW10285   6.412   7.378   0.048 -0.2521  0.3346 -0.3466
66187SOL    HW110286   6.470   7.409   0.118  0.6646 -0.1073 -0.8870
66187SOL    HW210287   6.340   7.441   0.047 -1.5886 -0.9674  2.5810
66188SOL     OW10288  10.021   1.412  10.903 -0.0555  0.1395 -0.4840
66188SOL    HW110289  10.049   1.339  10.848  0.0052  1.0044 -1.6439
66188SOL    HW210290  10.098   1.469  10.908 -0.2454  0.3577  0.0067
66189SOL     OW10291   1.065   2.073   1.483 -0.9397  0.1737  0.1232
66189SOL    HW110292   1.063   2.168   1.470  0.5724  0.0363 -1.3638
66189SOL    HW210293   0.972   2.047   1.482 -1.3664  1.5828  0.3574
66190SOL     OW10294   4.829   9.974   5.364 -0.2876 -0.1730 -0.4742
66190SOL    HW110295   4.736   9.995   5.360 -0.3293 -0.3423 -0.4186
66190SOL    HW210296   4.864  10.031   5.432 -0.6503 -1.1939  0.5965
66191SOL     OW10297   0.998   6.914   9.793 -0.6269  0.1896  0.0523
66191SOL    HW110298   0.995   6.968   9.872 -0.5186  0.7058 -0.2898
66191SOL    HW210299   0.922   6.942   9.742  0.4017  1.3074 -0.9400
66192SOL     OW10300   9.474   2.055   9.542 -0.8018  0.5043  0.2466
66192SOL    HW110301   9.524   2.119   9.490 -0.4674  0.9310  1.0819
66192SOL    HW210302   9.410   2.020   9.480  0.1997  0.3000 -0.7155
66193SOL     OW10303   8.243  10.061  11.680 -0.5507  0.2894  0.3319
66193SOL    HW110304   8.243   9.997  11.609 -0.7451  0.6098  0.0384
66193SOL    HW210305   8.326  10.048  11.725 -1.3098 -1.3606  1.3625
66194SOL     OW10306  10.538  13.650   1.802  0.4427 -0.0397 -0.1833
66194SOL    HW110307  10.590  13.712   1.853  1.1001 -1.5546  1.0957
66194SOL    HW210308  10.529  13.691   1.716 -1.8060  3.2324  1.4145
66195SOL     OW10309   4.000   3.890   6.743 -0.1085 -0.3923 -0.1644
66195SOL    HW110310   3.942   3.892   6.667  2.7900  2.6763 -2.6082
66195SOL    HW210311   3.981   3.970   6.791 -0.9106 -1.6051  1.6772
66196SOL     OW10312  10.719  12.032   7.129 -0.0380 -0.5228 -0.3601
66196SOL    HW110313  10.813  12.022   7.141  0.0326  2.0982  2.4025
66196SOL    HW210314  10.683  11.947   7.154  1.4769 -1.0027  0.3261
66197SOL     OW10315  13.087  12.293   9.288 -0.2075  0.5520 -0.2080
66197SOL    HW110316  13.058  12.237   9.216  0.5339  0.3889 -0.3854
66197SOL    HW210317  13.039  12.259   9.364 -1.7404  1.3545 -0.7790
66198SOL     OW10318  13.400  12.682   3.911 -0.2346  0.4676  0.3957
66198SOL    HW110319  13.342  12.612   3.881 -0.3921  0.7194  0.1146
66198SOL    HW210320  13.475  12.678   3.851 -0.4467  0.8250  0.1042
66199SOL     OW10321   7.421   8.672   9.096 -0.4066 -0.4969 -0.0202
66199SOL    HW110322   7.363   8.736   9.137 -0.5171 -0.2086 -0.6229
66199SOL    HW210323   7.390   8.587   9.129 -0.5845 -0.2787  0.3752
66200SOL     OW10324   4.711   6.011   3.960 -0.3112 -0.3285  0.0176
66200SOL    HW110325   4.635   6.010   4.019  0.9493  1.2163  1.7951
66200SOL    HW210326   4.720   5.920   3.932 -1.0319 -1.1514  2.1910
66201SOL     OW10327   3.776  11.385   0.784  0.6877  0.1325  0.0115
66201SOL    HW110328   3.732  11.332   0.850 -0.0216  0.3287 -0.2914
66201SOL    HW210329   3.760  11.476   0.813 -0.9891  0.2904 -1.2322
66202SOL     OW10330   2.797   0.809  10.766 -0.2106 -0.0504 -0.2772
66202SOL    HW110331   2.713   0.795  10.723  0.1562 -2.0206 -0.4369
66202SOL    HW210332   2.782   0.786  10.857  0.3855 -1.5186 -0.5177
66203SOL     OW10333   3.386   8.204  10.201  0.6399  0.2765  0.5660
66203SOL    HW110334   3.321   8.187  10.268  1.5844 -2.0794  0.9950
66203SOL    HW210335   3.339   8.253  10.133 -1.0841  0.1833  1.6418
66204SOL     OW10336  11.572   2.793   9.238 -0.0065 -0.0772  0.7221
66204SOL    HW110337  11.612   2.855   9.299  1.7608  1.1777 -1.5468
66204SOL    HW210338  11.633   2.789   9.165 -0.7179 -3.5292  0.1420
66205SOL     OW10339   3.659   0.986   0.174 -0.6893 -0.2732 -0.1961
66205SOL    HW110340   3.675   0.894   0.153 -2.4946 -0.8097  0.5202
66205SOL    HW210341   3.634   1.026   0.090 -0.2297 -0.5129 -0.4487
66206SOL     OW10342  10.137   3.906   6.660  0.0308 -0.7731 -0.1206
66206SOL    HW110343  10.218   3.943   6.695 -0.2424  0.5154 -0.7930
66206SOL    HW210344  10.069   3.933   6.721 -0.5210  1.8738 -1.7054
66207SOL     OW10345  12.622  11.369   4.575  0.1741  0.2658  0.1617
66207SOL    HW110346  12.681  11.392   4.503 -0.9578  2.6269 -0.0913
66207SOL    HW210347  12.535  11.390   4.542 -0.5415 -0.4088  1.5650
66208SOL     OW10348   9.257   3.585   0.134  0.0684  0.1096 -0.3413
66208SOL    HW110349   9.191   3.558   0.198  1.1058 -0.3752  0.5622
66208SOL    HW210350   9.340   3.565   0.176  0.7893  0.1608 -1.6943
66209SOL     OW10351   2.311   1.707   9.550  0.1697  0.1477 -0.0320
66209SOL    HW110352   2.405   1.724   9.554  0.1098  0.3709  0.4381
66209SOL    HW210353   2.303   1.614   9.573  0.4172 -0.3252 -1.7445
66210SOL     OW10354  11.244   3.875   9.876  0.0916  0.1552 -0.1206
66210SOL    HW110355  11.203   3.958   9.852 -0.8032 -0.2487 -0.0364
66210SOL    HW210356  11.206   3.853   9.961  0.3771 -0.2954 -0.1050
66211SOL     OW10357   8.946  11.829  13.178  0.4888  0.5473  0.1931
66211SOL    HW110358   9.022  11.838  13.235  0.0645  2.9122  0.4976
66211SOL    HW210359   8.915  11.919  13.165 -1.2991 -0.2053 -1.2302
66212SOL     OW10360   7.155  10.439  12.400 -0.0085 -0.4952  0.1205
66212SOL    HW110361   7.208  10.370  12.362  0.3049  0.7005 -1.7114
66212SOL    HW210362   7.130  10.495  12.326 -1.4704  0.5450  1.3269
66213SOL     OW10363   9.810   0.736  10.964 -0.4840  0.2289  0.3698
66213SOL    HW110364   9.751   0.731  10.888 -2.5052  1.7915  1.7071
66213SOL    HW210365   9.864   0.814  10.947 -0.1040 -0.1082  0.0109
66214SOL     OW10366   0.610   0.073  12.269 -0.0003 -0.1746  0.1368
66214SOL    HW110367   0.561   0.137  12.320  0.6556 -0.8154  1.6161
66214SOL    HW210368   0.699   0.077  12.303 -0.1714 -2.6326  1.1017
66215SOL     OW10369  10.552   0.468   8.775  0.1543  0.0736  0.1919
66215SOL    HW110370  10.568   0.381   8.739  0.0361  0.2447 -0.2868
66215SOL    HW210371  10.489   0.508   8.714  0.9001  0.8251 -0.1118
66216SOL     OW10372   8.011   2.369  10.679 -0.0974 -0.4104  0.4999
66216SOL    HW110373   8.091   2.340  10.723  1.0407  0.1311 -1.1128
66216SOL    HW210374   7.973   2.288  10.645  0.6946 -0.5252 -0.1648
66217SOL     OW10375   8.968   1.882  12.959 -0.0921 -0.2645 -0.0313
66217SOL    HW110376   8.950   1.907  13.050 -0.4020 -2.1367  0.4666
66217SOL    HW210377   9.064   1.880  12.953 -0.0670  0.4694  0.0683
66218SOL     OW10378   2.215  11.796   1.934  0.1103  0.0240 -0.0806
66218SOL    HW110379   2.211  11.824   2.026  0.6961 -2.0220  0.6089
66218SOL    HW210380   2.161  11.860   1.888  1.3130  2.2171  1.3675
66219SOL     OW10381   5.787  10.527   8.504 -0.2395 -0.7330 -0.2592
66219SOL    HW110382   5.703  10.480   8.512 -1.1652  0.7111 -1.0524
66219SOL    HW210383   5.804  10.561   8.592 -3.4208  3.6434 -0.9870
66220SOL     OW10384   2.653   5.403   4.287 -0.6098  0.4527 -0.6785
66220SOL    HW110385   2.657   5.493   4.319 -1.4600 -0.1720  1.3666
66220SOL    HW210386   2.651   5.411   4.192 -1.0581  2.5978 -0.5332
66221SOL     OW10387   6.137  12.953   2.351 -0.4862  0.1340 -0.1385
66221SOL    HW110388   6.159  12.878   2.295 -0.1220  1.4283 -1.8213
66221SOL    HW210389   6.042  12.963   2.341 -0.4531  0.2330 -0.3556
66222SOL     OW10390  11.478  13.032   0.985 -0.2873  0.4150 -0.3907
66222SOL    HW110391  11.543  12.995   0.926  1.0947  2.0654  0.0203
66222SOL    HW210392  11.516  13.023   1.072 -0.9822  0.6586 -0.0571
66223SOL     OW10393   2.924  12.452   6.764  0.2187  0.0000 -0.3558
66223SOL    HW110394   2.915  12.513   6.690  1.1693  0.9867  0.3006
66223SOL    HW210395   3.000  12.399   6.741  0.6905  0.4982  0.0208
66224SOL     OW10396  10.457   1.228  10.026  0.1765  0.3309  0.6351
66224SOL    HW110397  10.418   1.315  10.031  0.0280  0.3386 -0.5093
66224SOL    HW210398  10.395   1.172  10.073 -0.9124  0.4613 -0.6015
66225SOL     OW10399   9.001  11.781   6.519 -0.1915  0.1095  0.1688
66225SOL    HW110400   8.966  11.744   6.600 -2.5676  0.6456 -0.5309
66225SOL    HW210401   8.938  11.755   6.451  1.6313 -0.1832 -1.5179
66226SOL     OW10402   9.792  12.389   7.635  0.1373 -0.4773  1.1229
66226SOL    HW110403   9.699  12.408   7.618  0.0117 -1.5357  0.5428
66226SOL    HW210404   9.815  12.325   7.568  1.4414  0.1701  0.9313
66227SOL     OW10405   1.150  11.495   5.007 -0.0707  0.5633 -0.4587
66227SOL    HW110406   1.058  11.523   4.998 -0.1231  0.6217  0.2040
66227SOL    HW210407   1.145  11.412   5.054  0.2909  1.3392  0.9947
66228SOL     OW10408  10.456  13.640   3.407  0.1561 -0.0216 -0.2945
66228SOL    HW110409  10.464  13.735   3.405  0.6884 -0.0639 -0.5663
66228SOL    HW210410  10.456  13.614   3.315 -1.8048 -0.1682 -0.2863
66229SOL     OW10411  13.135   0.282   6.334  0.3245 -0.0349 -0.2094
66229SOL    HW110412  13.061   0.323   6.379  1.4120  1.4674  0.2728
66229SOL    HW210413  13.104   0.194   6.314 -1.0093  0.0055  1.4379
66230SOL     OW10414   1.792   4.333  12.958  0.4348 -0.1227 -0.6238
66230SOL    HW110415   1.720   4.284  12.998  1.2080 -1.7899 -1.1743
66230SOL    HW210416   1.867   4.316  13.015  1.1501 -1.1656 -1.8166
66231SOL     OW10417  10.576   0.625   3.838 -0.0200  0.1914 -0.1909
66231SOL    HW110418  10.636   0.626   3.764  0.2323  0.2818  0.0100
66231SOL    HW210419  10.524   0.705   3.828  1.3135  1.2289  0.7644
66232SOL     OW10420   8.951  11.617   1.891  0.2078  0.0955 -0.1344
66232SOL    HW110421   8.955  11.546   1.828 -0.2592 -1.4619  1.5228
66232SOL    HW210422   8.880  11.594   1.950 -0.8912  2.6357 -0.2985
66233SOL     OW10423   2.073   3.806  12.486  0.1081  0.2640 -0.1315
66233SOL    HW110424   1.985   3.773  12.465 -0.7258  0.2479  2.8992
66233SOL    HW210425   2.066   3.901  12.477 -1.4396  0.6552  3.4695
66234SOL     OW10426  10.833   8.061  10.182 -0.1468 -0.0877 -0.0195
66234SOL    HW110427  10.875   8.069  10.267 -0.8807 -0.1025  0.3503
66234SOL    HW210428  10.854   7.972  10.152 -1.6095 -0.8429  1.0876
66235SOL     OW10429  11.874  10.849   8.218 -0.0878 -0.2256 -0.4961
66235SOL    HW110430  11.826  10.826   8.297  1.0336 -3.0749 -0.5438
66235SOL    HW210431  11.831  10.799   8.148  0.5805  0.1809 -1.2200
66236SOL     OW10432   3.937   1.234   3.296 -0.4654  0.7972 -0.1223
66236SOL    HW110433   4.024   1.260   3.327 -0.9002  1.4709  0.5804
66236SOL    HW210434   3.947   1.142   3.270  0.5119  0.9414 -0.2918
66237SOL     OW10435  11.668   8.819   9.406 -0.6516  0.1196  0.0686
66237SOL    HW110436  11.674   8.826   9.311 -0.9422  0.6048  0.0854
66237SOL    HW210437  11.584   8.860   9.429 -0.6330 -0.0850  0.5243
66238SOL     OW10438  12.016   6.164  13.364 -0.2515 -0.4014 -0.1648
66238SOL    HW110439  12.014   6.236  13.301  0.9231 -0.5000 -0.3295
66238SOL    HW210440  12.019   6.207  13.449 -1.8852 -0.2678 -0.1362
66239SOL     OW10441   8.311   8.208  10.486 -0.1006 -0.4354 -0.7456
66239SOL    HW110442   8.272   8.250  10.563 -0.0181  2.0087 -1.9392
66239SOL    HW210443   8.236   8.185  10.431 -0.0720  0.1682 -1.0476
66240SOL     OW10444   8.726   7.719   1.986  0.2656 -0.5904  0.2905
66240SOL    HW110445   8.767   7.806   1.990 -1.6197  0.4954 -1.7726
66240SOL    HW210446   8.734   7.694   1.894 -1.6313 -1.3363  0.2910
66241SOL     OW10447   8.527   8.959   6.422  0.0018 -0.3459 -0.3014
66241SOL    HW110448   8.515   8.916   6.506 -0.1391  1.1795  0.5000
66241SOL    HW210449   8.588   9.030   6.440 -2.7644  2.3107 -0.6187
66242SOL     OW10450   0.951  10.632   6.261 -0.0983  0.0554 -0.2090
66242SOL    HW110451   1.026  10.642   6.202  1.2382  0.6933  1.4909
66242SOL    HW210452   0.991  10.628   6.348 -2.0209 -0.3737  0.6948
66243SOL     OW10453   1.783   2.705  12.083 -0.2303  0.4438 -0.4252
66243SOL    HW110454   1.788   2.772  12.015  2.0342 -1.1939 -1.9871
66243SOL    HW210455   1.866   2.714  12.131 -0.6549 -0.1681  0.4519
66244SOL     OW10456   9.521   8.019   7.812  0.0902  0.2903  0.1762
66244SOL    HW110457   9.509   8.104   7.853  0.1611  1.4162 -1.9837
66244SOL    HW210458   9.615   8.011   7.798 -0.0940  1.0556 -1.8663
66245SOL     OW10459   1.814   3.353   1.802 -0.3049  0.0082 -0.6455
66245SOL    HW110460   1.721   3.350   1.827 -0.3195 -1.7719 -0.8303
66245SOL    HW210461   1.835   3.264   1.775  1.7128  0.1591  0.2433
66246SOL     OW10462   3.884  11.865   9.988 -0.0933  0.2762  0.3527
66246SOL    HW110463   3.946  11.792   9.990  0.3657  0.6262 -0.6532
66246SOL    HW210464   3.855  11.870   9.897 -1.9159 -0.1145  0.8553
66247SOL     OW10465   5.881  13.495   9.714  0.5519 -0.3951 -0.1547
66247SOL    HW110466   5.807  13.440   9.742 -0.8141  1.9588  1.2514
66247SOL    HW210467   5.956  13.463   9.764 -0.5750 -0.0388  1.8671
66248SOL     OW10468   8.308   8.009   6.595  0.3564  0.2180 -0.2649
66248SOL    HW110469   8.394   8.035   6.562  0.2673  3.6220  1.6675
66248SOL    HW210470   8.326   7.966   6.678  0.1977  0.6246 -0.0202
66249SOL     OW10471   6.562  11.550   4.939  0.0422  0.3069 -0.3314
66249SOL    HW110472   6.624  11.598   4.884 -0.4131 -0.2734 -1.3606
66249SOL    HW210473   6.588  11.458   4.931  0.2012  0.2484  0.7212
66250SOL     OW10474   2.492   1.092   0.757 -0.5000 -0.5461  0.0962
66250SOL    HW110475   2.521   1.152   0.688 -2.0455 -1.3265 -1.3021
66250SOL    HW210476   2.568   1.083   0.814  0.4447  1.0784 -0.8156
66251SOL     OW10477   1.829   1.255   7.097  0.7461  0.1220  0.3912
66251SOL    HW110478   1.906   1.207   7.128 -0.3292  0.3929  3.9070
66251SOL    HW210479   1.776   1.268   7.175 -3.2642 -0.6101 -1.9131
66252SOL     OW10480  10.026   0.020   3.880 -0.6975 -0.4771  0.5173
66252SOL    HW110481  10.099  -0.020   3.832  1.4580  0.7165  2.5828
66252SOL    HW210482  10.020  -0.031   3.960 -0.2408  1.0819  1.5921
66253SOL     OW10483   0.859  13.700  10.407 -0.2371  0.5117  0.4420
66253SOL    HW110484   0.846  13.700  10.312 -0.7181 -0.3643  0.4930
66253SOL    HW210485   0.951  13.675  10.419 -0.5135 -0.6535  0.2241
66254SOL     OW10486   1.372   9.877   5.401  0.1099 -0.4352 -0.7495
66254SOL    HW110487   1.312   9.928   5.347 -0.7427 -0.9622 -0.3164
66254SOL    HW210488   1.361   9.911   5.489 -1.2175 -1.9922 -0.2699
66255SOL     OW10489   5.779   7.418  10.884  0.4082  0.4769 -0.8274
66255SOL    HW110490   5.715   7.489  10.887  0.9148  0.9160 -0.2944
66255SOL    HW210491   5.787   7.389  10.975 -1.3766 -1.7064 -1.2818
66256SOL     OW10492   2.049   8.481   9.397 -0.3536  0.2040 -0.0782
66256SOL    HW110493   2.128   8.464   9.345 -0.5492 -1.2350  0.0796
66256SOL    HW210494   2.072   8.451   9.485 -1.0750 -0.1828 -0.0243
66257SOL     OW10495   3.932   8.317   7.100  0.4476  0.1348 -0.3467
66257SOL    HW110496   3.856   8.305   7.156  0.5929 -0.0642 -0.1920
66257SOL    HW210497   3.899   8.307   7.011 -0.1366  2.1742 -0.4030
66258SOL     OW10498  11.721  12.378   5.860 -0.1344  0.1908  0.0216
66258SOL    HW110499  11.712  12.445   5.792  1.4065 -0.0279 -0.4181
66258SOL    HW210500  11.800  12.330   5.837  0.7987  0.5005  2.3049
66259SOL     OW10501  13.344   2.729  13.098 -0.6722  0.2439 -0.2182
66259SOL    HW110502  13.351   2.768  13.011  1.7087 -0.6743 -0.5265
66259SOL    HW210503  13.418   2.765  13.146  0.0163 -1.7850  0.3239
66260SOL     OW10504   6.836   9.532   4.999  0.4553  0.5364 -0.1161
66260SOL    HW110505   6.872   9.443   5.007 -2.0935 -0.4766  1.4418
66260SOL    HW210506   6.851   9.556   4.908  0.5950 -1.8045 -0.7679
66261SOL     OW10507  13.201   8.735   7.906  0.3132  0.4006 -0.9595
66261SOL    HW110508  13.161   8.775   7.982 -0.2781 -0.7744 -0.6297
66261SOL    HW210509  13.293   8.723   7.930  0.0432 -0.3409 -0.2558
66262SOL     OW10510   7.758   3.131   9.696  0.1434 -0.2687 -0.1773
66262SOL    HW110511   7.711   3.208   9.726 -0.2218 -0.4166 -0.3669
66262SOL    HW210512   7.840   3.132   9.746  0.1687  0.2726 -0.2189
66263SOL     OW10513   8.181   6.530   6.115  0.0435 -0.7749  0.2762
66263SOL    HW110514   8.150   6.528   6.206  1.0062 -1.2416  0.6124
66263SOL    HW210515   8.242   6.604   6.113  0.3573 -1.0327  0.1353
66264SOL     OW10516   3.637  12.788   6.841  0.1253  0.3941  0.3840
66264SOL    HW110517   3.587  12.761   6.764  0.5199  0.5462  0.0720
66264SOL    HW210518   3.727  12.763   6.821 -0.0403 -1.4243  1.6318
66265SOL     OW10519   7.035   5.991  13.175  0.2968  0.0035  0.6162
66265SOL    HW110520   7.103   6.058  13.162 -0.9254  1.4007  1.1036
66265SOL    HW210521   6.963   6.039  13.216 -1.5077 -1.1152 -1.1008
66266SOL     OW10522   5.272   2.991   8.103  0.0092  0.6503  0.0729
66266SOL    HW110523   5.333   3.029   8.040  1.1942  0.5464  1.1189
66266SOL    HW210524   5.325   2.974   8.181 -0.9285 -1.2130  0.3724
66267SOL     OW10525   4.934  10.205   0.937  0.3562  0.2242  0.5986
66267SOL    HW110526   4.939  10.161   1.023 -0.3884 -1.8276 -0.3407
66267SOL    HW210527   4.914  10.134   0.876  1.7122  1.5089 -1.4211
66268SOL     OW10528   6.873  13.697   8.884  0.8321 -0.5211  0.0565
66268SOL    HW110529   6.791  13.676   8.840  1.1426 -1.2368 -0.1980
66268SOL    HW210530   6.856  13.683   8.977  0.7721 -1.0346 -0.0304
66269SOL     OW10531   9.646   6.002   4.378  0.0002  0.1420 -0.0278
66269SOL    HW110532   9.701   6.074   4.348  1.7408 -0.6772  1.0699
66269SOL    HW210533   9.605   6.035   4.458 -1.4869  0.8810 -1.0332
66270SOL     OW10534   5.593   8.981   9.478  0.7674 -0.3439  0.0918
66270SOL    HW110535   5.574   8.897   9.520  2.3085 -1.2344 -0.8727
66270SOL    HW210536   5.658   9.022   9.536 -0.4315  0.4791  0.8764
66271SOL     OW10537  13.729   1.789   9.063  0.2012 -0.1127  0.1003
66271SOL    HW110538  13.703   1.863   9.118  0.0410  0.6169 -0.9388
66271SOL    HW210539  13.667   1.719   9.085 -0.5953  0.5532 -0.0108
66272SOL     OW10540   0.673  11.996   3.561 -0.1819 -0.0417 -0.3848
66272SOL    HW110541   0.598  11.988   3.503  0.8133 -0.4022 -1.6824
66272SOL    HW210542   0.719  11.912   3.554  1.8663  1.0933 -1.8934
66273SOL     OW10543   1.475   4.086   0.345 -0.0031 -0.1145  0.0718
66273SOL    HW110544   1.546   4.040   0.389  0.1530  0.1853  0.1309
66273SOL    HW210545   1.442   4.148   0.409 -0.1018 -0.0246 -0.0644
66274SOL     OW10546  13.050   4.425   5.558 -0.0600 -0.2714 -0.5418
66274SOL    HW110547  12.966   4.387   5.584 -0.3923  0.7634 -0.0666
66274SOL    HW210548  13.067   4.388   5.472 -0.4637 -1.3512 -0.1757
66275SOL     OW10549   9.861   8.070   6.699 -0.1504 -0.3284  0.5092
66275SOL    HW110550   9.799   7.998   6.711 -0.2630 -0.1023  1.3232
66275SOL    HW210551   9.841   8.131   6.769  0.4881  0.1122  0.3169
66276SOL     OW10552   2.595  12.800  11.033 -0.1796 -0.2289 -0.0004
66276SOL    HW110553   2.665  12.778  11.095 -0.5859  1.2816  1.0451
66276SOL    HW210554   2.617  12.888  11.004 -1.5199  0.1737  0.1719
66277SOL     OW10555  11.756  10.704   4.675  0.0990  0.5775 -0.0645
66277SOL    HW110556  11.789  10.616   4.661 -0.3474  0.1995  1.0874
66277SOL    HW210557  11.834  10.760   4.671  0.7190 -0.1364  1.3378
66278SOL     OW10558   8.570   5.322  11.118 -0.1016  0.1024 -0.3661
66278SOL    HW110559   8.586   5.413  11.140  1.5269 -0.2649  0.0592
66278SOL    HW210560   8.650   5.276  11.143  0.6684 -0.8855 -4.1029
66279SOL     OW10561   4.726   1.569   8.350  0.1435 -0.2857  0.4034
66279SOL    HW110562   4.663   1.537   8.286 -0.1586  0.3016  0.3981
66279SOL    HW210563   4.684   1.554   8.435  1.1105 -2.3159  0.5697
66280SOL     OW10564  12.015   4.557  12.548 -0.5405 -0.9569 -0.4372
66280SOL    HW110565  12.072   4.587  12.619 -3.1625  0.5667  1.2019
66280SOL    HW210566  12.055   4.592  12.469  0.2596  0.9922  0.7538
66281SOL     OW10567   4.967  12.952   1.747 -0.0277 -0.1560 -0.1532
66281SOL    HW110568   5.009  12.906   1.820 -0.1805 -1.5767 -0.9214
66281SOL    HW210569   4.873  12.936   1.759 -0.1807  0.9776  0.2266
66282SOL     OW10570  12.467  11.379  11.162 -0.5486 -0.0554  0.2181
66282SOL    HW110571  12.435  11.300  11.206  0.7360 -1.4818 -1.2745
66282SOL    HW210572  12.548  11.352  11.119 -0.7826  1.7098 -1.4925
66283SOL     OW10573   4.675   5.175  11.329 -0.1723 -0.1198 -0.4009
66283SOL    HW110574   4.741   5.169  11.398  0.1910 -0.0125 -0.7398
66283SOL    HW210575   4.717   5.138  11.251  0.1072  1.5303 -1.0643
66284SOL     OW10576  12.071   8.471   5.731  0.4687  0.3051  0.4288
66284SOL    HW110577  12.119   8.449   5.651  1.8234 -0.5909  1.4390
66284SOL    HW210578  11.979   8.468   5.705  0.8892  0.6759 -1.2405
66285SOL     OW10579   9.321   1.194   4.140  0.1466  0.2718 -0.5345
66285SOL    HW110580   9.287   1.138   4.070 -0.3667 -0.1732  0.0551
66285SOL    HW210581   9.251   1.196   4.205  0.4320  1.0514 -0.2343
66286SOL     OW10582   8.634   7.618  10.096  0.2315  0.1653 -0.3686
66286SOL    HW110583   8.568   7.688  10.089 -0.0047  0.0822  0.7624
66286SOL    HW210584   8.627   7.571  10.013  0.3061  1.3978 -1.1106
66287SOL     OW10585  11.062   3.255   7.467  0.1784  0.1113 -0.1295
66287SOL    HW110586  11.016   3.172   7.475 -0.8920  0.6422 -0.5737
66287SOL    HW210587  11.071   3.270   7.373  1.3468 -0.0146 -0.0519
66288SOL     OW10588   9.000   4.334  11.183 -0.5702 -0.6901 -0.4799
66288SOL    HW110589   8.961   4.323  11.096  0.2580 -0.2252 -0.9213
66288SOL    HW210590   8.934   4.381  11.233 -0.4830  0.3249 -1.2961
66289SOL     OW10591   0.354   8.976   6.362  0.1647  0.4770 -0.6580
66289SOL    HW110592   0.403   8.894   6.372 -0.1480  0.2129 -1.2098
66289SOL    HW210593   0.387   9.033   6.431 -0.1654 -0.3859  0.2365
66290SOL     OW10594   3.130   0.741  13.331 -0.5053  0.1754 -0.4547
66290SOL    HW110595   3.039   0.725  13.307 -0.8837  0.0620  0.9475
66290SOL    HW210596   3.128   0.825  13.378 -0.6107 -1.5847  3.0209
66291SOL     OW10597   3.712  12.113   0.088 -0.4109 -0.1573  1.0546
66291SOL    HW110598   3.617  12.116   0.094 -0.6233 -0.3386 -1.2741
66291SOL    HW210599   3.741  12.197   0.125 -1.4855 -0.0167  1.5987
66292SOL     OW10600   6.899   5.620   0.476  0.0233 -0.4442  0.0507
66292SOL    HW110601   6.916   5.624   0.382 -0.9603  0.3700 -0.1097
66292SOL    HW210602   6.824   5.561   0.485 -0.6369  0.4027  0.2015
66293SOL     OW10603  12.280   2.424  10.852  0.7659 -0.4874  0.1613
66293SOL    HW110604  12.228   2.344  10.846  0.8317 -0.6447  1.3825
66293SOL    HW210605  12.353   2.409  10.792  1.2201 -1.7007  0.9758
66294SOL     OW10606  13.471   4.898   8.774 -0.1895 -0.0646  0.2896
66294SOL    HW110607  13.455   4.987   8.803 -1.4755 -0.3797  0.5723
66294SOL    HW210608  13.481   4.905   8.679  2.7990  0.7869  0.5408
66295SOL     OW10609   2.429   9.560   9.666  0.6648  0.0520 -0.2885
66295SOL    HW110610   2.483   9.638   9.667 -0.6382  0.9833  0.6901
66295SOL    HW210611   2.387   9.558   9.752  0.6646 -1.7402 -0.2816
66296SOL     OW10612   3.341   9.575   8.794 -0.2731  0.4127 -0.2055
66296SOL    HW110613   3.331   9.631   8.872 -2.0080  0.0499 -0.1236
66296SOL    HW210614   3.311   9.489   8.823  3.2334 -0.9179 -0.0566
66297SOL     OW10615  12.261   1.987   3.396  0.2120 -0.1385 -0.0868
66297SOL    HW110616  12.316   2.048   3.446  1.8326 -0.9678 -0.7920
66297SOL    HW210617  12.218   1.934   3.463 -2.0666  2.3387  0.6132
66298SOL     OW10618   8.425   1.511   8.784 -0.4053  0.2234  0.0309
66298SOL    HW110619   8.351   1.511   8.723 -0.8516 -0.9040  0.5411
66298SOL    HW210620   8.436   1.419   8.808  0.3751  0.5329  0.9078
66299SOL     OW10621  13.075  13.736  11.876  0.0443  0.1571 -0.3199
66299SOL    HW110622  13.148  13.711  11.821 -0.3777 -2.7901  0.2857
66299SOL    HW210623  13.017  13.787  11.819  1.1083 -0.0857 -1.6506
66300SOL     OW10624   4.436   7.586  12.856  0.3564 -0.3039  0.2288
66300SOL    HW110625   4.495   7.576  12.931  0.3537  1.3888  0.4961
66300SOL    HW210626   4.351   7.559  12.889  0.5929 -0.7909  0.4498
66301SOL     OW10627   0.793  13.112  11.831  0.0181 -0.1643 -0.0077
66301SOL    HW110628   0.871  13.068  11.797 -0.0043 -0.5604  0.4356
66301SOL    HW210629   0.826  13.189  11.876  0.3729 -1.4156  1.9904
66302SOL     OW10630  12.439   0.640   6.381  0.0707  0.3242  0.0238
66302SOL    HW110631  12.431   0.555   6.339  1.9931 -0.3937  1.0401
66302SOL    HW210632  12.363   0.645   6.439  0.7120 -1.3567  1.0632
66303SOL     OW10633  10.947  12.442   5.142  0.8612  0.6672  0.0861
66303SOL    HW110634  11.013  12.501   5.179  1.4814 -0.6183  1.1085
66303SOL    HW210635  10.990  12.357   5.137 -0.4173  0.0010 -0.1357
66304SOL     OW10636   9.461   5.154  10.938 -0.2798  0.1709 -0.0246
66304SOL    HW110637   9.436   5.193  11.022  0.0913 -1.3249  0.7995
66304SOL    HW210638   9.378   5.141  10.892 -0.4922  0.8826  0.1457
66305SOL     OW10639  11.669   4.094  10.426  0.1891 -0.9038 -0.0909
66305SOL    HW110640  11.713   4.131  10.502 -1.8358 -0.2627  0.8188
66305SOL    HW210641  11.705   4.005  10.419 -0.1505 -1.2630  2.0945
66306SOL     OW10642   6.185   3.651   2.792  0.5471 -0.1463  0.7626
66306SOL    HW110643   6.252   3.663   2.859 -0.0080  1.6204  1.0751
66306SOL    HW210644   6.144   3.737   2.785  0.4623 -0.3260 -1.7241
66307SOL     OW10645   1.495   6.956   4.725 -0.2392 -0.6770  0.3113
66307SOL    HW110646   1.474   7.025   4.788 -1.0198  0.9239 -1.5930
66307SOL    HW210647   1.590   6.948   4.728 -0.1538  0.4181  0.6567
66308SOL     OW10648  10.919   5.143   5.638  0.7381 -0.4278  0.1227
66308SOL    HW110649  10.857   5.203   5.597  0.7273  0.0069  0.7691
66308SOL    HW210650  10.870   5.061   5.647  0.1229  0.0110  0.9426
66309SOL     OW10651   8.574  11.533  13.485 -0.0671  0.3654 -0.6840
66309SOL    HW110652   8.582  11.525  13.580  0.3347  3.3369 -0.3691
66309SOL    HW210653   8.513  11.463  13.460  0.4491 -1.0112  1.6112
66310SOL     OW10654   0.248   9.029   8.246  0.4456 -0.3354 -0.2945
66310SOL    HW110655   0.339   9.024   8.273 -0.0228  2.1134  2.1859
66310SOL    HW210656   0.248   9.088   8.171  0.9011 -0.1633 -0.1610
66311SOL     OW10657   8.068   0.318   6.991 -0.0263  0.1542  0.5665
66311SOL    HW110658   8.148   0.371   6.996  0.5352 -0.7332  1.2281
66311SOL    HW210659   8.024   0.333   7.075  1.0041 -1.7322  1.5002
66312SOL     OW10660   3.999  12.791  10.294  1.0394  0.0366 -0.5447
66312SOL    HW110661   3.993  12.866  10.235 -2.2348 -0.1308 -0.5785
66312SOL    HW210662   4.037  12.827  10.375 -0.5459  1.7873 -0.5309
66313SOL     OW10663  13.701  10.006  13.590 -0.2022 -0.4766 -0.1502
66313SOL    HW110664  13.784  10.042  13.557  0.4398  0.1429  1.9741
66313SOL    HW210665  13.649   9.991  13.511  1.2409  0.8108 -1.4354
66314SOL     OW10666  12.275  13.496   0.994 -0.3749 -0.1298 -0.1929
66314SOL    HW110667  12.346  13.473   0.935  0.7427  0.7673  0.7402
66314SOL    HW210668  12.268  13.422   1.054 -0.9725 -0.6886 -0.9351
66315SOL     OW10669  10.918   6.841   8.483 -0.0881  0.0349  0.0249
66315SOL    HW110670  10.847   6.902   8.504  1.0651  2.0088 -1.4307
66315SOL    HW210671  10.885   6.755   8.510 -1.8133  1.2599  2.1292
66316SOL     OW10672  12.729   4.458   7.460 -0.1800 -0.5209  0.4878
66316SOL    HW110673  12.749   4.409   7.540 -1.0351  0.4695  1.3665
66316SOL    HW210674  12.813   4.473   7.419  0.4666  0.1417  1.9593
66317SOL     OW10675   4.015   9.278   3.573 -0.9732 -0.7511  0.7800
66317SOL    HW110676   3.968   9.292   3.491  0.5030  0.0050  0.0250
66317SOL    HW210677   3.968   9.206   3.616 -3.3749  0.5698  0.5333
66318SOL     OW10678   3.852   0.596   0.375  0.3244 -0.1066 -0.6754
66318SOL    HW110679   3.786   0.664   0.371  0.2577 -0.1883 -0.9698
66318SOL    HW210680   3.815   0.530   0.435  0.5936  0.3283 -0.0141
66319SOL     OW10681   5.086   3.641   0.967  0.2642 -0.3262  0.0472
66319SOL    HW110682   5.152   3.706   0.940 -1.4824  0.9757 -1.3088
66319SOL    HW210683   5.129   3.592   1.037  2.6755  0.4427 -0.7846
66320SOL     OW10684   1.750  12.183   3.703  0.0593  0.3835  0.1284
66320SOL    HW110685   1.693  12.109   3.723 -1.0840  1.3698  0.5905
66320SOL    HW210686   1.834  12.159   3.743 -0.1825 -0.8057 -0.0347
66321SOL     OW10687  13.640  13.252   6.503 -1.0516 -0.0766 -0.1733
66321SOL    HW110688  13.546  13.246   6.520 -0.6484 -3.7265  1.6540
66321SOL    HW210689  13.651  13.214   6.415 -1.2518  0.2713 -0.3505
66322SOL     OW10690   6.406   2.669   6.154 -0.0721 -0.0329  0.1281
66322SOL    HW110691   6.396   2.645   6.246 -0.1179 -0.6261 -0.0311
66322SOL    HW210692   6.455   2.752   6.157 -1.0443  0.5453  0.7222
66323SOL     OW10693  11.990   9.099   9.444  0.4248  0.1454  0.0021
66323SOL    HW110694  12.003   9.066   9.533  1.2996 -2.5512 -1.0376
66323SOL    HW210695  12.077   9.094   9.404  0.0341  1.2678 -1.0600
66324SOL     OW10696   7.874  12.872  12.508 -0.2393  0.0371  0.7670
66324SOL    HW110697   7.903  12.931  12.438 -0.5804 -0.4032  0.2469
66324SOL    HW210698   7.951  12.863  12.564  0.1390  0.1519  0.2814
66325SOL     OW10699   3.795   4.759   0.125  0.0260  0.2069  0.7025
66325SOL    HW110700   3.757   4.823   0.065  1.4898  3.3409  2.8564
66325SOL    HW210701   3.739   4.760   0.202  0.2311 -0.9523  0.8918
66326SOL     OW10702  13.713   0.204   2.878 -0.1270  0.5948  0.0874
66326SOL    HW110703  13.714   0.165   2.791  0.4668 -2.3468  1.2751
66326SOL    HW210704  13.639   0.163   2.922  1.7637 -0.9521  2.0761
66327SOL     OW10705   5.626   2.669   9.716  0.2750 -0.2750 -0.0586
66327SOL    HW110706   5.553   2.654   9.776  0.7820  1.1957  0.9744
66327SOL    HW210707   5.697   2.613   9.749 -0.2245 -1.4179 -0.8432
66328SOL     OW10708  10.864   6.275   9.635 -0.3543 -0.6154  0.0905
66328SOL    HW110709  10.935   6.258   9.573  0.3082  2.8582 -0.2825
66328SOL    HW210710  10.909   6.303   9.715 -1.1602  2.2170 -0.3284
66329SOL     OW10711   9.518  12.737   7.796  0.3984 -0.2139 -0.2248
66329SOL    HW110712   9.597  12.790   7.784 -0.3929  1.3940  1.3629
66329SOL    HW210713   9.514  12.683   7.717  2.0834  0.9734 -1.1909
66330SOL     OW10714   3.170   3.350  11.443  0.0875  0.1509 -0.1361
66330SOL    HW110715   3.135   3.431  11.479 -0.9226 -0.4468  0.2853
66330SOL    HW210716   3.110   3.326  11.373 -0.0954 -0.6415  0.2695
66331SOL     OW10717  13.242   1.034  13.700 -0.0987  0.1090 -0.2306
66331SOL    HW110718  13.183   1.102  13.731 -1.6183 -0.8201 -0.9689
66331SOL    HW210719  13.238   0.966  13.767 -0.3947 -0.2327 -0.5842
66332SOL     OW10720   6.065   8.385   7.546 -0.5009 -0.0902 -0.0339
66332SOL    HW110721   6.151   8.417   7.574 -1.0964  0.5717  1.0911
66332SOL    HW210722   6.071   8.290   7.553  0.2733 -0.0752 -0.3823
66333SOL     OW10723   6.411   0.495  12.877  0.1383  0.4115  0.2463
66333SOL    HW110724   6.394   0.493  12.972  0.2626  0.1618  0.2658
66333SOL    HW210725   6.391   0.584  12.851 -0.2376  0.3893  0.4480
66334SOL     OW10726   8.137   0.681   0.756  0.4438  0.1797  0.1366
66334SOL    HW110727   8.159   0.604   0.704 -0.6875 -0.7325  0.9415
66334SOL    HW210728   8.197   0.749   0.726  0.5228 -0.6138 -1.5787
66335SOL     OW10729   8.770  12.997   3.524 -0.0113 -0.0187 -0.7210
66335SOL    HW110730   8.865  12.986   3.523  0.1976  1.5788 -1.5460
66335SOL    HW210731   8.752  13.061   3.455 -1.7225 -0.4458 -0.7354
66336SOL     OW10732   2.320   6.882   9.490 -0.3935 -0.0945 -0.0248
66336SOL    HW110733   2.292   6.951   9.430 -0.3335 -1.3847 -1.5947
66336SOL    HW210734   2.277   6.904   9.573 -1.4290  1.0900 -0.8331
66337SOL     OW10735  11.165  10.607   6.558 -0.0525  0.1696  0.1950
66337SOL    HW110736  11.125  10.521   6.570 -1.1330  0.6492  0.1584
66337SOL    HW210737  11.245  10.604   6.610 -1.1383 -0.1533  1.9142
66338SOL     OW10738   8.708   1.771  13.455  0.9359  0.1097 -0.2906
66338SOL    HW110739   8.739   1.839  13.395 -0.7497  1.1181 -0.0797
66338SOL    HW210740   8.658   1.818  13.522 -0.9829 -1.3643 -0.5912
66339SOL     OW10741   0.680   9.902   7.314  0.2478 -0.0225  0.3152
66339SOL    HW110742   0.730   9.848   7.253 -1.5117 -0.4707 -0.8050
66339SOL    HW210743   0.685   9.990   7.278  0.4363 -0.0154  0.3563
66340SOL     OW10744   8.185   4.599   9.384  0.4487  0.3106 -0.5129
66340SOL    HW110745   8.256   4.652   9.349 -0.4433  0.7605 -1.6866
66340SOL    HW210746   8.147   4.653   9.454  1.0984  0.1561 -0.0265
66341SOL     OW10747  11.463  13.025   8.469 -0.2667  0.6368 -0.1951
66341SOL    HW110748  11.423  12.947   8.431 -0.5947  1.4385 -1.5329
66341SOL    HW210749  11.533  13.048   8.409  0.5706  0.7400  0.7914
66342SOL     OW10750   0.848   7.497   6.520 -0.2915 -0.2489 -0.6797
66342SOL    HW110751   0.793   7.572   6.545  0.4785 -0.0858  0.6660
66342SOL    HW210752   0.820   7.427   6.579  1.9218  0.2799  1.1254
66343SOL     OW10753  13.637   5.343   6.944 -0.5612 -0.4018 -0.1665
66343SOL    HW110754  13.572   5.280   6.978  0.8471 -1.0138  1.5365
66343SOL    HW210755  13.705   5.345   7.011  1.4534 -0.1732 -2.1254
66344SOL     OW10756  13.316   1.101   5.935  0.4816 -0.5124 -0.5199
66344SOL    HW110757  13.243   1.134   5.882  0.8429 -0.3259 -0.9046
66344SOL    HW210758  13.391   1.103   5.876  1.1079  0.6095  0.2621
66345SOL     OW10759  11.565   6.608   6.948  0.2236 -0.3050  0.4580
66345SOL    HW110760  11.623   6.554   6.894 -0.3499 -2.6287  2.0579
66345SOL    HW210761  11.504   6.648   6.885  1.4240 -0.5175 -0.8838
66346SOL     OW10762   5.591   4.509   6.051 -0.0675  0.6849  0.6246
66346SOL    HW110763   5.596   4.562   6.130  1.0311  2.3916 -0.5095
66346SOL    HW210764   5.498   4.507   6.029 -0.0968  2.8061  0.3338
66347SOL     OW10765   2.557   8.440   2.029 -0.0864  0.1232 -0.7140
66347SOL    HW110766   2.515   8.429   2.115  0.0674 -0.5016 -0.7158
66347SOL    HW210767   2.489   8.478   1.974 -0.5344 -0.4986 -0.6057
66348SOL     OW10768  13.605   8.806   4.113 -0.1379 -0.1408 -0.1344
66348SOL    HW110769  13.522   8.767   4.088 -1.1725  1.0667  1.2689
66348SOL    HW210770  13.616   8.879   4.052 -1.6483  1.5421  1.4897
66349SOL     OW10771   0.264   2.749   9.155  0.0113 -0.1507 -0.2254
66349SOL    HW110772   0.271   2.842   9.137  0.6382 -0.1527 -0.0172
66349SOL    HW210773   0.205   2.743   9.231 -0.9767 -0.0111 -0.9717
66350SOL     OW10774  12.726   5.569   0.061 -0.0763  0.1599 -0.2979
66350SOL    HW110775  12.729   5.481   0.099 -0.9353 -0.4426 -1.5729
66350SOL    HW210776  12.634   5.582   0.037  0.2134  1.0413 -0.9693
66351SOL     OW10777   4.823   3.475   9.491 -0.2349  0.2643  0.6470
66351SOL    HW110778   4.829   3.441   9.402  1.6677 -0.4243  0.9859
66351SOL    HW210779   4.772   3.410   9.538 -1.9695  1.0396 -0.0846
66352SOL     OW10780   8.650  10.011   5.786  0.8275  0.6641 -0.0500
66352SOL    HW110781   8.708   9.940   5.816  4.4303  3.5955  0.6815
66352SOL    HW210782   8.630   9.988   5.695  1.5846 -1.4160  0.2461
66353SOL     OW10783  12.447   9.245   7.611  0.0360  0.0924 -0.6147
66353SOL    HW110784  12.370   9.204   7.650  0.3030  0.7034  0.6152
66353SOL    HW210785  12.456   9.328   7.658 -0.8715  1.9427 -3.4748
66354SOL     OW10786   1.638   9.990   5.741 -0.6093 -0.0638 -0.5899
66354SOL    HW110787   1.642  10.012   5.648  0.9508 -0.0654 -0.5454
66354SOL    HW210788   1.728   9.997   5.771 -1.1697  0.4739  1.0608
66355SOL     OW10789   5.941  10.898  11.891  0.2120  0.2591 -0.4059
66355SOL    HW110790   5.861  10.912  11.840  0.0488 -1.1065 -0.5705
66355SOL    HW210791   5.976  10.815  11.858  0.3108 -0.4818  1.4260
66356SOL     OW10792   0.829   4.976   8.786  0.3077 -0.2201  0.0459
66356SOL    HW110793   0.775   4.942   8.857 -2.1804  0.8094 -1.2173
66356SOL    HW210794   0.898   4.911   8.774 -1.2491 -2.1625  1.0866
66357SOL     OW10795   2.301   2.707   5.247  0.5315 -0.1315  0.3367
66357SOL    HW110796   2.371   2.670   5.299  0.4388 -0.1642  0.4388
66357SOL    HW210797   2.263   2.632   5.201 -1.2868 -0.5996  2.4418
66358SOL     OW10798   8.153   7.299   0.980  0.1132 -1.2243  0.9348
66358SOL    HW110799   8.095   7.244   0.928  0.0304  0.4161 -0.8094
66358SOL    HW210800   8.119   7.291   1.070 -2.2150 -1.1072  0.1338
66359SOL     OW10801   5.528  10.583  12.005 -0.1898 -0.1322 -0.1739
66359SOL    HW110802   5.539  10.593  11.911  1.4065 -1.0192 -0.1117
66359SOL    HW210803   5.545  10.669  12.042 -0.9340  0.2447 -0.6854
66360SOL     OW10804   9.540  10.893   6.778  0.0525  0.3686 -0.4530
66360SOL    HW110805   9.584  10.816   6.813 -0.6620 -0.7356 -1.8482
66360SOL    HW210806   9.450  10.886   6.812 -0.2130  0.1450 -1.1660
66361SOL     OW10807  12.090   9.891  13.302  0.2926  0.1827 -0.1680
66361SOL    HW110808  12.048   9.837  13.235 -0.1182 -0.0895  0.3130
66361SOL    HW210809  12.113   9.830  13.372  2.6279  0.0771 -0.9256
66362SOL     OW10810  10.509  13.055   1.626 -0.3729  0.4259 -0.4644
66362SOL    HW110811  10.492  13.088   1.714 -1.5743 -0.3985 -0.3557
66362SOL    HW210812  10.586  13.103   1.596 -0.4919  1.3743  0.6825
66363SOL     OW10813   4.584  12.347   4.031 -0.0432  0.4237 -0.2443
66363SOL    HW110814   4.549  12.296   4.104 -0.5224  1.8005  0.5239
66363SOL    HW210815   4.506  12.379   3.985  0.2477  0.4790 -0.7036
66364SOL     OW10816  11.013   1.775   8.570 -0.3431  0.0059  0.4554
66364SOL    HW110817  11.068   1.793   8.646  0.3663  1.6793 -0.4078
66364SOL    HW210818  11.047   1.692   8.535  1.2811  0.6971  0.2841
66365SOL     OW10819   7.052   8.390   4.521 -0.3456  0.3717  0.5053
66365SOL    HW110820   7.021   8.479   4.501  1.2565  1.1027  1.0866
66365SOL    HW210821   7.084   8.396   4.611  2.4568  0.0117 -0.3752
66366SOL     OW10822   7.601  10.430  11.837  0.1997 -0.7452 -0.3090
66366SOL    HW110823   7.658  10.461  11.767  2.8339 -0.1374  1.9448
66366SOL    HW210824   7.628  10.339  11.852  0.9216 -0.3507  0.9996
66367SOL     OW10825   3.757  10.306   0.340 -0.0209  0.1149 -0.2594
66367SOL    HW110826   3.750  10.401   0.348 -0.3054  0.2331 -1.6394
66367SOL    HW210827   3.750  10.289   0.246 -0.5283 -1.3134  0.0046
66368SOL     OW10828   2.736   7.438   6.848 -0.0894 -0.2797  0.2906
66368SOL    HW110829   2.689   7.374   6.901  0.7320 -3.1787 -2.2531
66368SOL    HW210830   2.669   7.476   6.791 -0.3479  0.2397  0.9213
66369SOL     OW10831   3.743   7.664   0.043  0.1670 -0.1320 -0.3287
66369SOL    HW110832   3.774   7.660  -0.047  1.5374 -0.6730  0.1398
66369SOL    HW210833   3.797   7.731   0.085  1.6309 -1.9073  0.8059
66370SOL     OW10834   3.393   8.818   7.838  0.0806  0.1700  0.0934
66370SOL    HW110835   3.382   8.858   7.752 -0.8548  2.2440  1.0923
66370SOL    HW210836   3.470   8.763   7.829  0.0738  0.4191 -2.0327
66371SOL     OW10837   9.651  10.075  13.691 -0.0816 -0.9268  0.0274
66371SOL    HW110838   9.578  10.075  13.752  0.7927  1.1500  1.1760
66371SOL    HW210839   9.729  10.070  13.746  0.7043 -0.0155 -0.9472
66372SOL     OW10840   1.013   8.337   4.226 -0.0112  0.0190  0.0870
66372SOL    HW110841   0.963   8.414   4.201 -0.8729 -0.3624  0.5931
66372SOL    HW210842   1.011   8.281   4.149  0.3945  0.3799 -0.1917
66373SOL     OW10843  11.030  10.829   6.140 -0.1229  0.2924 -0.2528
66373SOL    HW110844  10.948  10.790   6.169 -0.3986  1.7504  1.1069
66373SOL    HW210845  11.098  10.773   6.177 -0.4367 -1.5982 -2.3608
66374SOL     OW10846   0.848   3.506   6.232  0.4986 -0.3133 -0.1911
66374SOL    HW110847   0.905   3.583   6.226  1.2586 -0.8400  0.1827
66374SOL    HW210848   0.892   3.440   6.178 -0.7497 -0.1458 -1.4946
66375SOL     OW10849   1.437   9.109   2.833 -0.1975 -0.2512  0.4197
66375SOL    HW110850   1.441   9.064   2.917 -0.1405 -0.3361  0.3718
66375SOL    HW210851   1.412   9.041   2.770 -0.4836 -0.1384  0.4072
66376SOL     OW10852   8.778  12.575  11.687 -0.3805 -0.5294 -0.3780
66376SOL    HW110853   8.829  12.633  11.743 -1.3630  0.2937 -0.3060
66376SOL    HW210854   8.763  12.497  11.740  0.0084 -0.3981 -0.0715
66377SOL     OW10855   1.518   4.853   5.198 -0.5398  0.0593 -0.2435
66377SOL    HW110856   1.448   4.915   5.219  0.2149  0.3356  1.7051
66377SOL    HW210857   1.521   4.795   5.275  1.3319  0.0436 -0.3023
66378SOL     OW10858   9.602  11.140   3.676 -0.2361  0.1802 -0.3537
66378SOL    HW110859   9.649  11.106   3.752 -2.0790 -1.7565  0.0245
66378SOL    HW210860   9.556  11.064   3.640 -0.9583  1.4367 -2.2517
66379SOL     OW10861  13.457  10.057   6.327  0.1625 -0.7245  0.0565
66379SOL    HW110862  13.522  10.125   6.348  0.4691 -1.4064  1.4392
66379SOL    HW210863  13.508   9.989   6.283 -0.2945  0.2482 -2.1048
66380SOL     OW10864   2.451   0.932   1.444 -0.3742  0.5297  0.0048
66380SOL    HW110865   2.496   0.999   1.496 -1.1297  1.2669 -0.2766
66380SOL    HW210866   2.421   0.869   1.509  1.0960 -0.0162  0.1987
66381SOL     OW10867   5.040   8.666  11.988 -0.2835  0.1541 -0.0288
66381SOL    HW110868   5.104   8.596  11.979  0.4360  0.9722 -1.8013
66381SOL    HW210869   5.047   8.715  11.906 -3.0964  0.3562 -0.2432
66382SOL     OW10870   5.952   0.031  12.331  0.0540 -0.1234 -0.2181
66382SOL    HW110871   6.007   0.106  12.355 -0.2388 -0.0095  0.1140
66382SOL    HW210872   6.001  -0.045  12.360 -0.5025  0.0285  1.2300
66383SOL     OW10873   5.983   8.144  10.094 -0.6196  0.5256  0.4882
66383SOL    HW110874   5.965   8.139  10.188  0.9528 -2.4182  0.7588
66383SOL    HW210875   6.078   8.143  10.088 -0.6870  1.0479 -1.1663
66384SOL     OW10876   1.332   7.871   6.550 -0.2707  0.4327 -0.1102
66384SOL    HW110877   1.304   7.864   6.642  2.3162  0.4230  0.7451
66384SOL    HW210878   1.416   7.825   6.547 -0.0342  0.9167 -2.3803
66385SOL     OW10879   2.746   2.622   3.910 -0.1071 -0.1730  0.1889
66385SOL    HW110880   2.686   2.688   3.944  1.4507  0.8401  1.1144
66385SOL    HW210881   2.784   2.662   3.832 -1.1967 -1.1390 -0.8678
66386SOL     OW10882   0.346  10.576   1.321  0.2911 -0.2189 -0.0093
66386SOL    HW110883   0.254  10.604   1.323  0.7397  1.2943  1.3382
66386SOL    HW210884   0.373  10.577   1.412  1.1340 -2.5951 -0.1829
66387SOL     OW10885   4.983  12.532   5.294  0.3691 -0.2815 -1.1509
66387SOL    HW110886   5.049  12.543   5.362 -0.8767  0.1347  0.0495
66387SOL    HW210887   4.993  12.442   5.264  0.2467 -0.8294  0.3767
66388SOL     OW10888   5.092   3.872  13.423 -0.6983  0.4597  0.1520
66388SOL    HW110889   5.178   3.910  13.406 -0.7275  1.1266  1.3566
66388SOL    HW210890   5.092   3.789  13.377  0.3894  0.7055 -0.3091
66389SOL     OW10891   4.208   6.318   7.281 -0.2776  0.2194 -0.0565
66389SOL    HW110892   4.193   6.412   7.296  0.8533  0.4784 -0.4193
66389SOL    HW210893   4.270   6.293   7.349 -0.3318 -0.1964 -0.1584
66390SOL     OW10894   8.098   9.984   4.087  0.0149 -0.0216  0.0895
66390SOL    HW110895   8.042   9.910   4.110 -0.2249 -0.2947 -1.3107
66390SOL    HW210896   8.178   9.943   4.054 -0.1820  0.3370 -0.8391
66391SOL     OW10897   6.361   5.458   9.727  0.2004 -0.0770  0.4877
66391SOL    HW110898   6.267   5.471   9.739  0.1423 -1.1791  1.4548
66391SOL    HW210899   6.400   5.541   9.754 -0.5233  0.6600 -0.6500
66392SOL     OW10900   7.746   8.528   5.558 -0.5256  0.2318  0.3162
66392SOL    HW110901   7.738   8.459   5.623 -1.7050  0.1146  0.0657
66392SOL    HW210902   7.839   8.530   5.536 -0.5408 -1.6053 -0.0367
66393SOL     OW10903  10.990   1.963   4.974  0.3260  0.1200 -0.0883
66393SOL    HW110904  11.085   1.979   4.979  0.1336  1.8777 -1.1686
66393SOL    HW210905  10.960   2.020   4.903 -1.3767 -1.3158 -0.5751
66394SOL     OW10906   6.756  13.121  13.499  0.4561 -0.1722  0.1078
66394SOL    HW110907   6.776  13.124  13.406 -1.8176  0.6252 -0.4114
66394SOL    HW210908   6.839  13.145  13.542  1.4532 -0.2374 -1.6941
66395SOL     OW10909   4.116   5.161  12.396  0.5274  0.8134 -0.0252
66395SOL    HW110910   4.088   5.190  12.483  2.0604  2.2706  0.0220
66395SOL    HW210911   4.138   5.242  12.350  0.8162 -0.0188 -1.4022
66396SOL     OW10912   2.689  11.855   4.255 -0.0227 -0.0270 -0.2879
66396SOL    HW110913   2.752  11.832   4.323  1.6086  0.8885 -1.4260
66396SOL    HW210914   2.729  11.826   4.173 -1.3616  0.0487 -1.0073
66397SOL     OW10915   6.042   2.851   6.307 -0.1298  0.6301 -0.2659
66397SOL    HW110916   6.047   2.816   6.218  0.2734  1.0609 -0.4131
66397SOL    HW210917   6.126   2.895   6.321  0.2360 -0.3376  0.7089
66398SOL     OW10918  11.185   5.603   2.812  0.0242  0.6689  0.5261
66398SOL    HW110919  11.273   5.618   2.777 -0.4116  0.0637 -0.8768
66398SOL    HW210920  11.154   5.691   2.836 -0.1536  1.3168 -1.8521
66399SOL     OW10921  10.800  11.636   1.017 -0.3113  0.0926  0.7086
66399SOL    HW110922  10.825  11.694   1.089 -0.6551 -0.9126  1.6700
66399SOL    HW210923  10.881  11.620   0.970 -0.3300  1.9079 -0.0169
66400SOL     OW10924   0.866   7.846   3.536 -0.9048 -0.2801 -0.4042
66400SOL    HW110925   0.823   7.870   3.454 -2.6028 -0.6421  0.3475
66400SOL    HW210926   0.892   7.930   3.574  1.9731 -0.1509 -2.2812
66401SOL     OW10927  10.614   2.623   3.852  0.2365  0.3536 -0.3958
66401SOL    HW110928  10.607   2.608   3.947 -1.9791  0.2220 -0.5270
66401SOL    HW210929  10.563   2.702   3.837  1.1042  0.7360 -1.4187
66402SOL     OW10930   0.247   5.241   9.045  0.1318  0.3610 -0.1974
66402SOL    HW110931   0.241   5.155   9.087  1.1015  0.2630 -0.2240
66402SOL    HW210932   0.259   5.302   9.118 -2.4623  0.7418 -0.0172
66403SOL     OW10933   5.983  13.089  13.632  0.1022 -0.0801  0.3126
66403SOL    HW110934   5.934  13.112  13.711 -2.3045  0.2193 -1.1931
66403SOL    HW210935   5.988  13.170  13.582  1.7847 -0.2228  0.1738
66404SOL     OW10936   2.561   5.376  11.122 -0.1054  0.3485  0.2427
66404SOL    HW110937   2.542   5.452  11.178 -1.0831 -0.2292  0.7235
66404SOL    HW210938   2.522   5.302  11.169  1.6836 -0.6325  0.2834
66405SOL     OW10939   9.545  12.042   4.250  0.2120  0.4670  0.1821
66405SOL    HW110940   9.489  12.030   4.327 -0.4658 -0.8456 -0.4812
66405SOL    HW210941   9.495  12.100   4.192 -1.0446 -1.5643 -0.8882
66406SOL     OW10942   1.414   7.660  10.111 -0.0222 -0.5867  0.1463
66406SOL    HW110943   1.499   7.620  10.128  0.9500  0.1793 -2.4852
66406SOL    HW210944   1.424   7.751  10.139  0.1744 -0.3962 -0.5298
66407SOL     OW10945   7.421  12.693   0.332  0.2101 -0.1044  0.6947
66407SOL    HW110946   7.386  12.606   0.348  1.2084 -0.8524 -0.9088
66407SOL    HW210947   7.468  12.715   0.413 -1.8788 -0.0584  1.9633
66408SOL     OW10948   4.767   8.567  11.692 -0.2186 -0.0797 -0.1706
66408SOL    HW110949   4.855   8.559  11.656 -0.0859 -1.3425  0.3880
66408SOL    HW210950   4.737   8.477  11.703 -0.5363  0.2493  2.1546
66409SOL     OW10951   7.527   0.988   2.911 -0.0241  0.0068 -0.0640
66409SOL    HW110952   7.475   1.063   2.939 -1.5750 -0.4459 -1.5134
66409SOL    HW210953   7.509   0.920   2.976 -0.7072  0.0848 -0.1605
66410SOL     OW10954   8.258   0.149   1.578 -0.3823 -0.0074 -0.0942
66410SOL    HW110955   8.218   0.186   1.657  0.6975  0.1037  0.4173
66410SOL    HW210956   8.244   0.215   1.511  1.6154  1.4556  0.8344
66411SOL     OW10957   6.753   2.948  12.511  0.1091 -0.1769 -0.9276
66411SOL    HW110958   6.781   2.897  12.434 -0.8490  1.9963 -2.8291
66411SOL    HW210959   6.805   3.028  12.506  1.1223 -0.5774  1.6393
66412SOL     OW10960   2.193   1.854  11.422  0.2694 -0.1010  0.2360
66412SOL    HW110961   2.099   1.862  11.407  0.4095  1.2014 -0.0565
66412SOL    HW210962   2.226   1.811  11.344  0.2846  2.0238 -1.0055
66413SOL     OW10963   5.229   0.021  11.935  0.0082  0.1649 -0.3377
66413SOL    HW110964   5.263   0.087  11.996 -1.4732 -0.5882  1.3929
66413SOL    HW210965   5.147   0.057  11.903  0.5270  0.3227 -1.5330
66414SOL     OW10966   2.430   4.455  12.160 -0.1938 -0.4066  0.2093
66414SOL    HW110967   2.404   4.428  12.248 -2.5053 -1.2084 -0.6300
66414SOL    HW210968   2.350   4.490  12.121  0.5813 -0.7343 -1.8153
66415SOL     OW10969   3.382  10.755   3.450  0.1053 -0.1410  0.2446
66415SOL    HW110970   3.342  10.700   3.517 -0.1684  0.4253  0.5516
66415SOL    HW210971   3.431  10.821   3.499 -0.6389  0.6825 -0.0939
66416SOL     OW10972   0.989   1.096   6.395 -0.4214  0.1208 -0.1954
66416SOL    HW110973   0.961   1.184   6.421  0.5174  1.1147 -2.3604
66416SOL    HW210974   1.084   1.096   6.404 -0.4184 -0.7482 -0.0653
66417SOL     OW10975   9.073   5.894   6.660  0.4164 -0.3562  0.4667
66417SOL    HW110976   9.021   5.972   6.640 -2.9009 -1.9271  2.1083
66417SOL    HW210977   9.078   5.847   6.576  3.0496  1.7827 -0.7064
66418SOL     OW10978   7.217   2.218  13.332 -0.2791 -0.5961 -0.1471
66418SOL    HW110979   7.170   2.220  13.416 -0.7314  1.3716 -0.3871
66418SOL    HW210980   7.308   2.201  13.356 -0.4765 -0.4844  0.7189
66419SOL     OW10981   5.130  11.573   7.303 -0.4018  0.3827 -0.1444
66419SOL    HW110982   5.188  11.648   7.316  0.5842 -0.0176 -1.8486
66419SOL    HW210983   5.189  11.499   7.291 -1.2983 -0.2951 -0.5242
66420SOL     OW10984  11.041   1.245   8.798  0.2851 -0.2164 -0.2670
66420SOL    HW110985  10.985   1.246   8.721  0.8699  0.8495 -0.6915
66420SOL    HW210986  10.994   1.189   8.861 -1.3057  0.7039 -0.5758
66421SOL     OW10987   7.155   8.583   8.295  0.2820  0.5183 -0.3528
66421SOL    HW110988   7.108   8.665   8.310 -0.0232  0.7471 -2.2881
66421SOL    HW210989   7.105   8.517   8.343  0.9039  1.5182  1.7904
66422SOL     OW10990   2.048  10.541   9.452  0.4469  0.6877 -0.1937
66422SOL    HW110991   2.074  10.453   9.481 -1.5867  0.5489  1.4102
66422SOL    HW210992   2.130  10.589   9.443  1.5810 -1.2469 -0.7156
66423SOL     OW10993   7.866   9.464   7.763  0.4745  0.4395  0.4809
66423SOL    HW110994   7.805   9.441   7.693 -0.1106  0.8214  0.8586
66423SOL    HW210995   7.853   9.558   7.776 -0.0882  0.2051  1.7170
66424SOL     OW10996   1.364  12.154   9.178 -0.6957 -0.6771 -0.0049
66424SOL    HW110997   1.390  12.237   9.136 -2.3086 -0.1884 -0.1259
66424SOL    HW210998   1.367  12.090   9.107  1.3536 -0.9254  0.2669
66425SOL     OW10999   5.373   8.997  11.312  0.1642 -0.3169  0.4782
66425SOL    HW111000   5.465   9.010  11.333 -0.1280  1.0289  1.0787
66425SOL    HW211001   5.329   9.074  11.349 -0.8244  0.6789 -2.4417
66426SOL     OW11002   3.345  12.011  11.669 -0.4314 -0.0114 -0.4544
66426SOL    HW111003   3.335  12.100  11.704  0.5523 -0.0573 -0.0161
66426SOL    HW211004   3.399  12.021  11.591 -1.2493 -0.1057 -1.0440
66427SOL     OW11005   0.596   1.995   5.316  0.3064  0.0660 -0.4024
66427SOL    HW111006   0.654   2.033   5.383 -1.6963  2.0351  0.3474
66427SOL    HW211007   0.557   2.071   5.273 -0.1475 -1.1950 -2.3278
66428SOL     OW11008   1.333   9.925   0.760  0.0239 -0.0064  0.4689
66428SOL    HW111009   1.322   9.880   0.676  2.4431 -1.2967  0.7678
66428SOL    HW211010   1.332  10.018   0.737 -1.2988 -0.2644 -0.6829
66429SOL     OW11011  12.310   7.944  13.609 -0.2175 -0.2162 -0.1225
66429SOL    HW111012  12.222   7.974  13.585  0.0314 -0.2313 -1.0737
66429SOL    HW211013  12.314   7.853  13.580  0.0451 -0.2793  0.1008
66430SOL     OW11014   7.547  13.703   0.980  0.2499 -0.4232 -0.2253
66430SOL    HW111015   7.559  13.632   1.043 -0.9819 -0.1046  0.4045
66430SOL    HW211016   7.544  13.782   1.034 -0.9472 -0.1575 -0.6650
66431SOL     OW11017   0.848   6.574   1.295  0.4886 -0.2073  0.2171
66431SOL    HW111018   0.816   6.606   1.211  0.8025  0.5821  0.3910
66431SOL    HW211019   0.780   6.598   1.358  0.2552 -0.7942  0.1939
66432SOL     OW11020   1.135  12.078   1.223 -0.8274 -0.7705 -0.5084
66432SOL    HW111021   1.217  12.120   1.249 -2.3070  2.2564 -0.3194
66432SOL    HW211022   1.106  12.031   1.302  0.3735 -1.3460 -0.3927
66433SOL     OW11023   3.403   2.622   9.270 -0.4932  0.3419  0.2218
66433SOL    HW111024   3.456   2.640   9.193 -1.4371  2.7657  0.0458
66433SOL    HW211025   3.314   2.612   9.236 -0.9608  1.7040  0.9754
66434SOL     OW11026   2.248  11.346   2.998 -0.0263  0.2924  0.7728
66434SOL    HW111027   2.156  11.338   3.025  0.1766 -1.8591  1.0205
66434SOL    HW211028   2.290  11.269   3.037  1.2623 -0.4000 -1.7983
66435SOL     OW11029   6.031   1.114   4.735 -1.0975 -0.1731 -0.5939
66435SOL    HW111030   5.957   1.070   4.777 -2.0996  0.9456 -1.1123
66435SOL    HW211031   6.108   1.069   4.768 -2.0138 -1.4491 -0.1207
66436SOL     OW11032   8.080   1.679   7.759  0.2744  0.1833  0.1663
66436SOL    HW111033   8.039   1.605   7.715 -0.9139  0.5518  0.6312
66436SOL    HW211034   8.037   1.684   7.844  1.6032  0.3092  0.8671
66437SOL     OW11035  11.429  11.592   0.689  0.3966  0.0442  0.3192
66437SOL    HW111036  11.502  11.593   0.751  1.0131  0.8220 -0.3935
66437SOL    HW211037  11.427  11.681   0.653  0.0407 -0.3866 -0.7586
66438SOL     OW11038   5.093  11.215   1.773 -0.0972  1.3902 -0.2110
66438SOL    HW111039   5.071  11.127   1.804  1.1484 -0.0915 -3.1042
66438SOL    HW211040   5.160  11.246   1.833 -0.2719  0.1809  0.6452
66439SOL     OW11041  11.523  11.568  13.507 -0.5176 -0.1621  0.1292
66439SOL    HW111042  11.557  11.578  13.596 -3.4788 -1.6471  1.5435
66439SOL    HW211043  11.464  11.643  13.496  1.4262  1.2372 -1.5109
66440SOL     OW11044   0.126   0.856  10.905 -0.4760  0.0809  0.4178
66440SOL    HW111045   0.087   0.811  10.980 -1.6424  0.6268  0.1652
66440SOL    HW211046   0.051   0.884  10.852  0.2928  0.5423 -0.4643
66441SOL     OW11047  11.237   2.172   5.775  0.5008  0.0843 -0.0275
66441SOL    HW111048  11.247   2.200   5.684  0.3340  0.7137  0.1466
66441SOL    HW211049  11.322   2.188   5.815  0.8929 -1.1547 -0.3204
66442SOL     OW11050   4.202   7.148   6.878  0.4320 -0.3234  0.3692
66442SOL    HW111051   4.283   7.176   6.922  0.7884  0.9668 -1.0295
66442SOL    HW211052   4.225   7.064   6.837  0.4178 -0.9912  1.6788
66443SOL     OW11053  13.581   2.860  13.193  0.4275  0.3874 -0.0920
66443SOL    HW111054  13.597   2.824  13.280  1.2890  0.4396 -0.2261
66443SOL    HW211055  13.631   2.942  13.192 -1.1594  1.4079  0.0669
66444SOL     OW11056   4.738   1.573  10.360  0.0907 -0.4898 -0.1498
66444SOL    HW111057   4.695   1.658  10.345  1.0346  0.0813  0.2849
66444SOL    HW211058   4.784   1.584  10.443 -0.2212 -1.6283  0.1885
66445SOL     OW11059   1.004   9.304  11.742  0.3122 -0.1722 -0.3760
66445SOL    HW111060   1.009   9.223  11.792 -0.7889 -0.4766 -0.7200
66445SOL    HW211061   0.951   9.282  11.666 -0.7155  1.0627 -0.0562
66446SOL     OW11062   0.175   9.208   2.290  0.1046  0.1443 -0.0122
66446SOL    HW111063   0.184   9.286   2.344  1.5437 -1.2395  1.8528
66446SOL    HW211064   0.208   9.137   2.344  1.6481 -1.3622 -2.7140
66447SOL     OW11065   6.521   0.500   5.975  0.2179  0.1581  0.4417
66447SOL    HW111066   6.538   0.509   6.068 -0.4410  1.3705  0.4583
66447SOL    HW211067   6.426   0.511   5.967  0.2663  0.0575 -0.3704
66448SOL     OW11068   2.926   9.332   9.669  0.7220  0.1484  0.3252
66448SOL    HW111069   2.964   9.370   9.589 -1.2090 -1.0735 -1.2761
66448SOL    HW211070   2.849   9.386   9.686  0.7494 -0.0136  0.9667
66449SOL     OW11071   7.645   8.057   8.305 -0.6343 -0.1462  0.7740
66449SOL    HW111072   7.670   8.103   8.385  1.9437  0.9142 -0.5103
66449SOL    HW211073   7.680   7.969   8.317  1.8499  0.6435  0.0024
66450SOL     OW11074   2.553   4.648  11.799  0.4635 -0.2301 -0.6377
66450SOL    HW111075   2.536   4.571  11.744  0.6016 -0.3078 -0.5711
66450SOL    HW211076   2.478   4.705  11.782  0.3254 -0.4075 -0.6369
66451SOL     OW11077  12.152   6.586   4.063  0.2574  0.0411  0.2729
66451SOL    HW111078  12.179   6.579   4.155 -0.4219  0.1696  0.4941
66451SOL    HW211079  12.226   6.627   4.019  1.1236 -1.2025  0.5072
66452SOL     OW11080   9.958   5.573  13.226 -0.4833 -0.6021  0.2901
66452SOL    HW111081  10.028   5.543  13.284  0.8379 -0.4414 -1.1777
66452SOL    HW211082   9.929   5.494  13.180  0.6174 -0.2431 -1.0621
66453SOL     OW11083   4.378   5.605  10.032  0.0856 -0.2142 -0.1945
66453SOL    HW111084   4.355   5.520   9.994 -1.7542 -0.1997  0.7953
66453SOL    HW211085   4.304   5.661  10.012  0.4561  0.6494  0.7611
66454SOL     OW11086  11.095   2.408   3.081  0.0691 -0.4146  0.0290
66454SOL    HW111087  11.026   2.453   3.033  0.1308 -0.8450 -0.4831
66454SOL    HW211088  11.097   2.320   3.043  1.1050 -0.3178 -0.1963
66455SOL     OW11089  10.903   1.906   3.080 -0.3392 -0.2493  0.4809
66455SOL    HW111090  10.890   1.858   3.162  0.3166  1.6716  1.7807
66455SOL    HW211091  10.815   1.931   3.052 -0.5844 -1.1227  0.4515
66456SOL     OW11092   3.682  11.942   5.196 -0.1775  0.2936  0.3093
66456SOL    HW111093   3.719  11.980   5.276  2.2426  1.2281 -1.1447
66456SOL    HW211094   3.636  12.014   5.154 -0.6049  0.0562  0.3600
66457SOL     OW11095   1.316  13.129  10.840 -0.0450 -0.4908  0.3449
66457SOL    HW111096   1.325  13.186  10.916 -0.0546 -1.3643  1.0148
66457SOL    HW211097   1.256  13.176  10.782  0.2042  0.3239  0.7335
66458SOL     OW11098   7.057   1.574  10.461  0.0710  0.6937 -0.3645
66458SOL    HW111099   7.012   1.492  10.440  1.2780  0.0060 -0.3655
66458SOL    HW211100   7.022   1.599  10.547  1.4664 -1.1912  0.8411
66459SOL     OW11101   8.815   5.200   4.900 -0.0173 -0.4649  0.6219
66459SOL    HW111102   8.873   5.148   4.956 -0.4388 -1.6526 -0.0026
66459SOL    HW211103   8.829   5.165   4.812 -0.7421  0.1026  0.2731
66460SOL     OW11104   1.146   5.094   5.988 -0.2378  0.3105  0.1567
66460SOL    HW111105   1.130   5.077   6.080 -2.7965 -1.0672 -0.4498
66460SOL    HW211106   1.074   5.151   5.961 -1.3296 -1.7601 -1.5990
66461SOL     OW11107   6.254   0.652  13.595  0.2196 -0.5875  0.0934
66461SOL    HW111108   6.300   0.687  13.671  0.3177  2.3629 -1.1785
66461SOL    HW211109   6.161   0.662  13.616  0.2467  0.2656 -0.1624
66462SOL     OW11110   1.099   7.258   5.724  0.0351  0.2751  0.3933
66462SOL    HW111111   1.120   7.283   5.814 -2.0903  0.7506  0.8192
66462SOL    HW211112   1.053   7.175   5.732  2.0138 -1.0073 -0.5410
66463SOL     OW11113  11.703   8.197   5.031 -0.0308  0.8348  0.1306
66463SOL    HW111114  11.722   8.173   4.941 -0.4078  0.7954  0.0580
66463SOL    HW211115  11.704   8.114   5.079  1.2878  0.9758  0.3822
66464SOL     OW11116  11.189   1.574  12.043  0.2891  0.7690  0.2967
66464SOL    HW111117  11.267   1.578  12.098  0.3073 -0.8825  0.4435
66464SOL    HW211118  11.210   1.509  11.976 -0.9409  0.3247  0.3181
66465SOL     OW11119   8.966   2.470   3.860 -0.2313  0.0580 -0.2185
66465SOL    HW111120   8.940   2.493   3.949 -0.2650 -0.1531 -0.1737
66465SOL    HW211121   8.886   2.436   3.819 -0.5026  1.2040 -0.6874
66466SOL     OW11122   2.987  12.459  12.802  0.2654  0.1601 -0.2489
66466SOL    HW111123   2.900  12.456  12.842 -0.4120  1.4080 -1.5415
66466SOL    HW211124   2.987  12.387  12.739  0.7616 -0.8214  0.8469
66467SOL     OW11125   4.978  13.377   2.452  0.4871  0.8408  0.0463
66467SOL    HW111126   4.930  13.402   2.374  0.6100  0.8809 -0.0170
66467SOL    HW211127   5.070  13.394   2.430  0.7514 -1.2350 -0.6046
66468SOL     OW11128   2.713  10.243  10.548 -0.0768 -0.2661 -0.4867
66468SOL    HW111129   2.807  10.228  10.549  0.1285  0.9393  0.7072
66468SOL    HW211130   2.701  10.315  10.486  0.1245  1.3820  1.3228
66469SOL     OW11131   8.293  11.720   9.588 -0.1762 -0.2536  0.3009
66469SOL    HW111132   8.226  11.684   9.647 -0.4385  1.9908  1.5132
66469SOL    HW211133   8.329  11.644   9.543 -0.9909 -1.9497  2.3120
66470SOL     OW11134   8.327  13.487  11.267  0.2141  0.5538 -0.1193
66470SOL    HW111135   8.305  13.535  11.346 -2.4677  0.9236 -1.0081
66470SOL    HW211136   8.314  13.395  11.291 -0.9456  0.6853 -0.2123
66471SOL     OW11137   2.994   5.614  10.652 -0.2624  0.3570 -0.1080
66471SOL    HW111138   3.054   5.540  10.648  1.8527  1.9635  0.1102
66471SOL    HW211139   3.015   5.666  10.574 -1.2132  1.0743  0.1003
66472SOL     OW11140   9.980   2.281   3.647  0.8642 -0.9129 -1.2353
66472SOL    HW111141  10.037   2.350   3.614  0.7822  0.5661  1.4459
66472SOL    HW211142   9.897   2.325   3.665  1.4275 -1.0761  2.5209
66473SOL     OW11143   5.524  12.593   8.969  0.3478  0.1565 -0.0785
66473SOL    HW111144   5.514  12.567   9.061  0.6515  1.6467  0.3936
66473SOL    HW211145   5.536  12.510   8.922 -2.8454 -0.9511  0.7813
66474SOL     OW11146   7.139   4.131  12.922  0.0540  0.5236  0.4258
66474SOL    HW111147   7.133   4.133  12.827  0.6846 -0.7824  0.3369
66474SOL    HW211148   7.233   4.129  12.941 -0.0681  0.3538  1.0599
66475SOL     OW11149  13.113   1.915   5.783  0.0573  0.5126 -0.1312
66475SOL    HW111150  13.204   1.927   5.756 -0.1371  2.6283 -0.0220
66475SOL    HW211151  13.066   1.986   5.739 -1.3190  0.2295  0.8232
66476SOL     OW11152   5.307   8.343   3.657  0.4924  0.0066  0.6108
66476SOL    HW111153   5.300   8.301   3.571  1.1837 -1.6827  1.3133
66476SOL    HW211154   5.241   8.299   3.711  2.5014 -1.7062  1.8848
66477SOL     OW11155  12.845  11.147   6.011  0.4319 -0.4412  0.1205
66477SOL    HW111156  12.783  11.213   6.043  1.2651  0.2886  0.2590
66477SOL    HW211157  12.790  11.074   5.984 -0.4008 -0.6114  2.0804
66478SOL     OW11158   0.336  11.716   5.831  0.0674  0.4667  0.2136
66478SOL    HW111159   0.248  11.724   5.867  0.7889  0.8114  2.0016
66478SOL    HW211160   0.389  11.777   5.882  1.9222 -1.7911  1.1721
66479SOL     OW11161   8.444   7.171   2.686 -0.0080 -0.3661  0.1257
66479SOL    HW111162   8.350   7.153   2.698 -0.3865  1.3823 -0.0138
66479SOL    HW211163   8.468   7.119   2.609 -1.4616  1.0020 -1.3341
66480SOL     OW11164  12.993   5.462  12.052 -0.2797  0.3625 -0.0429
66480SOL    HW111165  13.089   5.467  12.058 -0.3599  0.9664  0.9361
66480SOL    HW211166  12.976   5.375  12.015  0.6487  0.3442 -0.4631
66481SOL     OW11167   5.961   8.334   1.747 -0.4107 -0.1894 -0.3243
66481SOL    HW111168   6.040   8.387   1.745 -1.5462  1.6483  0.3298
66481SOL    HW211169   5.943   8.321   1.840 -0.8690 -0.5602 -0.4603
66482SOL     OW11170   3.918  11.315  11.946 -0.1416 -0.2715 -0.3804
66482SOL    HW111171   3.974  11.391  11.930  0.5608 -1.2694 -3.1096
66482SOL    HW211172   3.970  11.259  12.004 -0.3801  0.9464  1.0769
66483SOL     OW11173  12.668   3.524  13.680  0.3038 -0.1265  0.7953
66483SOL    HW111174  12.630   3.612  13.685  1.9219  0.6808 -0.3892
66483SOL    HW211175  12.755   3.537  13.643  2.5607 -1.6492  4.8674
66484SOL     OW11176   5.350   5.729   8.662  0.0109  0.0280  0.3309
66484SOL    HW111177   5.359   5.658   8.727  0.4787 -0.3699 -0.1599
66484SOL    HW211178   5.407   5.703   8.590  0.5876  1.1588  0.3559
66485SOL     OW11179  10.326   0.296  13.027  0.0424 -0.2092 -0.0921
66485SOL    HW111180  10.323   0.383  13.067 -0.2536 -0.1023 -0.3428
66485SOL    HW211181  10.291   0.237  13.094  0.6906 -0.2049  0.2563
66486SOL     OW11182   0.399   7.641   4.919  0.0364 -0.2146  0.1360
66486SOL    HW111183   0.355   7.693   4.985  1.4296  0.7748  0.3384
66486SOL    HW211184   0.427   7.704   4.852 -2.0578 -1.2846 -1.8749
66487SOL     OW11185   5.733   5.996  12.341  0.3818 -0.0327 -0.3899
66487SOL    HW111186   5.699   6.064  12.283 -0.3665 -0.8330 -0.9167
66487SOL    HW211187   5.795   5.948  12.286  0.2969 -0.2736 -0.2749
66488SOL     OW11188   4.108   9.298   5.562 -0.2140  0.2768  0.5184
66488SOL    HW111189   4.105   9.334   5.651  2.3850 -0.8340  1.1559
66488SOL    HW211190   4.048   9.223   5.565  1.7247 -1.3440  2.2281
66489SOL     OW11191   5.604  12.013   5.193 -0.1955  0.0966  0.4802
66489SOL    HW111192   5.566  12.023   5.105  0.5879 -0.4080  0.0685
66489SOL    HW211193   5.692  12.049   5.185 -0.3465  0.6446  1.2427
66490SOL     OW11194   9.235   7.246  13.264  0.2845 -0.4301  0.2795
66490SOL    HW111195   9.230   7.151  13.254  1.5258 -0.3928 -0.9911
66490SOL    HW211196   9.325   7.269  13.239 -0.2420  1.1665 -0.3177
66491SOL     OW11197   1.015   5.531   9.442 -0.1162 -0.2767 -0.4743
66491SOL    HW111198   0.949   5.512   9.508 -0.6430 -0.7520 -1.1184
66491SOL    HW211199   1.042   5.445   9.409 -0.4286 -0.0293 -1.4154
66492SOL     OW11200   8.925  10.095   2.109 -0.1731  0.0175 -0.5413
66492SOL    HW111201   8.831  10.111   2.098 -0.0391  0.1975 -1.5397
66492SOL    HW211202   8.957  10.171   2.156 -0.4946  0.0500 -0.3716
66493SOL     OW11203  13.658  13.488  10.175  0.2184 -0.3825 -0.1238
66493SOL    HW111204  13.619  13.421  10.119  0.7645  0.9790 -2.2727
66493SOL    HW211205  13.633  13.464  10.264  0.5138 -3.4897 -0.7802
66494SOL     OW11206   2.463   9.041  12.757  0.3235 -0.0335 -0.1174
66494SOL    HW111207   2.391   9.036  12.820 -0.1424  0.1656 -0.6251
66494SOL    HW211208   2.493   8.950  12.747 -0.2142 -0.1931 -0.3053
66495SOL     OW11209   9.769   0.408  10.799 -0.7770  0.7042 -0.0429
66495SOL    HW111210   9.746   0.494  10.766  0.0997  0.4196 -1.4960
66495SOL    HW211211   9.850   0.421  10.848 -0.5556  0.7078 -0.3998
66496SOL     OW11212   0.740   6.345   3.497 -0.1883  0.0373  0.3721
66496SOL    HW111213   0.799   6.409   3.457 -0.1372 -0.8217 -0.9864
66496SOL    HW211214   0.699   6.300   3.423 -1.9095  0.0153  1.2974
66497SOL     OW11215   9.766   2.088   3.008  0.2119 -0.2880 -0.2472
66497SOL    HW111216   9.716   2.135   3.074  0.9740 -2.1820  1.7872
66497SOL    HW211217   9.705   2.022   2.974  0.0284  0.2523 -1.0051
66498SOL     OW11218   8.858   4.840  13.702  0.1108 -0.2054 -0.1387
66498SOL    HW111219   8.896   4.872  13.621  1.7445  0.5973  0.8950
66498SOL    HW211220   8.776   4.888  13.711  0.3059  0.2849 -0.9238
66499SOL     OW11221   4.741   3.439   5.944  0.2418 -0.5881 -0.1551
66499SOL    HW111222   4.827   3.410   5.912  0.9134  1.2742 -0.2090
66499SOL    HW211223   4.679   3.376   5.909  1.7601 -3.2930  1.6860
66500SOL     OW11224   0.668  13.199   0.122  0.0498 -0.0682  0.8063
66500SOL    HW111225   0.732  13.202   0.193  0.6643 -2.4643  0.4308
66500SOL    HW211226   0.604  13.268   0.144  1.9382  1.4172  1.9397
66501SOL     OW11227   5.454   0.760   5.239 -0.1639  0.3397  0.3762
66501SOL    HW111228   5.480   0.819   5.310 -1.7575  1.3955  0.1472
66501SOL    HW211229   5.454   0.673   5.279  0.7220  0.6816  1.1591
66502SOL     OW11230   5.047  12.732  10.898  1.3496  0.0437  0.1549
66502SOL    HW111231   5.076  12.787  10.971 -0.3941  0.3211  0.6864
66502SOL    HW211232   5.057  12.788  10.821 -1.4924  1.6692  0.8136
66503SOL     OW11233   6.630   8.048   7.684  0.1505  0.2409  0.0211
66503SOL    HW111234   6.623   7.960   7.721  1.4323 -0.4089 -1.2151
66503SOL    HW211235   6.540   8.081   7.684 -0.5946 -1.6708 -0.9210
66504SOL     OW11236   6.288   6.711  12.770 -0.0438 -0.0748  0.1975
66504SOL    HW111237   6.205   6.687  12.729  0.0154  1.9458 -1.2667
66504SOL    HW211238   6.276   6.802  12.797  1.6392  0.2068  0.0816
66505SOL     OW11239   7.241  13.003   3.184 -0.1129  0.1092  0.3542
66505SOL    HW111240   7.209  12.971   3.269  0.1723 -0.0309  0.4096
66505SOL    HW211241   7.333  12.979   3.183  0.0143  0.6093  0.2346
66506SOL     OW11242   4.746   1.968   7.763 -0.5587 -0.2070  0.6085
66506SOL    HW111243   4.675   1.923   7.808 -0.8142  0.0538  0.4725
66506SOL    HW211244   4.815   1.903   7.755 -0.8518 -0.5134  0.5817
66507SOL     OW11245   5.308   6.737   8.053 -0.7739  0.5603  0.1253
66507SOL    HW111246   5.343   6.688   8.128 -0.1777  1.1501  0.2412
66507SOL    HW211247   5.223   6.697   8.036  0.5789 -1.9828 -1.1538
66508SOL     OW11248   0.400   7.024   3.748 -0.0559  0.3855  0.2466
66508SOL    HW111249   0.415   6.929   3.748  1.7768  0.6376  0.6179
66508SOL    HW211250   0.462   7.058   3.684  1.4727  1.6003  2.2771
66509SOL     OW11251   1.268  13.213   6.740  0.2630  0.7453  0.1202
66509SOL    HW111252   1.304  13.293   6.779  0.7999  1.6894 -2.1517
66509SOL    HW211253   1.336  13.147   6.754  1.1680  1.4911 -0.6291
66510SOL     OW11254   1.828   9.103  12.706 -0.2026  0.5235  0.4265
66510SOL    HW111255   1.807   9.033  12.769 -0.9406 -0.4191 -0.8215
66510SOL    HW211256   1.743   9.129  12.670  0.3016  0.1139 -1.1286
66511SOL     OW11257   2.556  10.803   9.459  0.2732 -0.0657 -0.4882
66511SOL    HW111258   2.531  10.714   9.483 -0.1020  0.5276  1.5306
66511SOL    HW211259   2.586  10.842   9.541  0.0285  1.7993 -1.2424
66512SOL     OW11260   1.826   8.125   7.921 -0.6364  0.1440 -0.1312
66512SOL    HW111261   1.763   8.054   7.905  1.0791 -1.3333 -0.6135
66512SOL    HW211262   1.868   8.139   7.836  0.7821  0.0026  0.5333
66513SOL     OW11263  12.432   5.240   4.877 -0.5557 -0.2727 -0.3053
66513SOL    HW111264  12.392   5.316   4.834 -0.4222 -0.8257 -1.4575
66513SOL    HW211265  12.390   5.165   4.835  0.9584 -0.8578 -0.8277
66514SOL     OW11266   1.484   1.385   6.201 -0.4254  0.3052  0.2455
66514SOL    HW111267   1.499   1.323   6.272  0.8390 -0.2823 -0.4879
66514SOL    HW211268   1.552   1.452   6.212  0.8573 -0.6529 -1.2776
66515SOL     OW11269   2.625   4.912   8.845 -0.2242  0.0130  0.2532
66515SOL    HW111270   2.530   4.903   8.850 -0.2070 -0.5806 -0.2337
66515SOL    HW211271   2.645   4.892   8.753  0.4873 -1.1119  0.6392
66516SOL     OW11272  13.399   9.105  12.509  0.1626  0.5821 -0.6792
66516SOL    HW111273  13.313   9.131  12.477  0.9367  0.2181 -3.2889
66516SOL    HW211274  13.431   9.042  12.445  2.6508  1.2219 -0.1752
66517SOL     OW11275   7.129  10.384  11.450 -0.0868  0.0698  0.3209
66517SOL    HW111276   7.042  10.345  11.441 -0.5612  0.7237  1.7946
66517SOL    HW211277   7.173  10.329  11.514  0.8612 -0.6516 -0.9044
66518SOL     OW11278   7.335   9.251   1.175 -0.3218  0.4278  0.3221
66518SOL    HW111279   7.427   9.234   1.197  0.9536  2.4782 -2.6494
66518SOL    HW211280   7.309   9.322   1.234 -0.3442 -0.7892  1.8109
66519SOL     OW11281  10.406  13.382   7.795 -0.9993 -0.1803 -0.3142
66519SOL    HW111282  10.350  13.387   7.873 -2.7887 -1.2543 -1.4415
66519SOL    HW211283  10.447  13.296   7.802  2.1944  1.3145  1.4787
66520SOL     OW11284   6.759   8.176   8.469 -0.2263 -0.0248  0.2962
66520SOL    HW111285   6.821   8.231   8.518  0.1073  1.5392 -1.7489
66520SOL    HW211286   6.814   8.123   8.412 -0.6601  0.9495 -1.1065
66521SOL     OW11287   5.444   7.014   2.241  0.0250  0.3725 -0.4507
66521SOL    HW111288   5.459   6.970   2.324  1.1396  1.2950 -0.1231
66521SOL    HW211289   5.360   7.058   2.251 -0.1618 -0.0669 -0.0677
66522SOL     OW11290   8.650  11.699   7.154  0.1886  0.1768 -0.0602
66522SOL    HW111291   8.631  11.793   7.153  1.7990  0.5339 -0.0663
66522SOL    HW211292   8.625  11.671   7.242  1.8425  1.1268  0.7670
66523SOL     OW11293   0.250   8.017   7.507  0.1155  0.3184 -0.4262
66523SOL    HW111294   0.159   8.045   7.516  0.0680  0.3676 -1.0388
66523SOL    HW211295   0.279   8.054   7.424  0.0807 -1.3578 -1.2217
66524SOL     OW11296  11.648   5.639   4.918 -0.5676 -0.5609 -0.2123
66524SOL    HW111297  11.706   5.708   4.888 -0.4441 -0.5091  0.1435
66524SOL    HW211298  11.588   5.682   4.980 -0.4420 -0.7830  0.0701
66525SOL     OW11299   8.266   5.869   3.406  0.2791  0.3438 -0.1319
66525SOL    HW111300   8.323   5.835   3.337  0.4910  0.6568 -0.1132
66525SOL    HW211301   8.245   5.958   3.377  0.7120  0.6246  0.4158
66526SOL     OW11302   9.868   0.856   4.531 -1.0293  0.0311  0.2516
66526SOL    HW111303   9.801   0.835   4.465 -0.8138  0.6582 -0.1772
66526SOL    HW211304   9.840   0.940   4.567 -0.6520  0.1310  0.3103
66527SOL     OW11305  10.942   4.109  13.738 -0.0677  0.2931  0.0446
66527SOL    HW111306  10.952   4.106  13.833  0.1445  1.1034  0.0505
66527SOL    HW211307  10.958   4.019  13.710 -0.3876 -0.0121  0.7982
66528SOL     OW11308   5.466   7.893  10.670 -0.1873 -0.0148  0.3957
66528SOL    HW111309   5.513   7.884  10.753 -0.2978  0.4953  0.5136
66528SOL    HW211310   5.518   7.955  10.619 -0.2340 -0.1645  0.1635
66529SOL     OW11311   2.898   3.632   8.745 -0.1164  0.0791  0.8258
66529SOL    HW111312   2.957   3.598   8.678 -0.0668  0.5074  0.6489
66529SOL    HW211313   2.920   3.725   8.752 -1.6059  0.5503 -0.1379
66530SOL     OW11314  11.634   4.129   5.771 -0.2517 -0.4794 -0.1525
66530SOL    HW111315  11.704   4.065   5.777 -1.1974 -1.4623  1.1997
66530SOL    HW211316  11.678   4.214   5.778  0.7721 -1.0816  1.1524
66531SOL     OW11317  11.119  10.176   2.725 -0.5141  0.2526  0.1268
66531SOL    HW111318  11.141  10.268   2.737 -1.9848  0.5700  0.5286
66531SOL    HW211319  11.135  10.159   2.632 -0.6673  1.0233 -0.0411
66532SOL     OW11320  10.656  11.412  10.286 -0.2839 -0.2679  0.4351
66532SOL    HW111321  10.602  11.444  10.213 -0.8153 -1.6711  0.1929
66532SOL    HW211322  10.728  11.476  10.292 -0.8711  0.5230 -0.5361
66533SOL     OW11323   3.864   9.798  12.438 -0.1335  0.5130  0.0675
66533SOL    HW111324   3.933   9.743  12.476 -1.5131 -2.0394 -0.8568
66533SOL    HW211325   3.809   9.822  12.513  0.4383  0.5648  0.4793
66534SOL     OW11326   2.301   4.012   8.764  0.2345 -0.4368 -0.1802
66534SOL    HW111327   2.266   3.933   8.721 -1.7634  1.2763 -1.9242
66534SOL    HW211328   2.271   4.005   8.855 -0.2705 -1.4781 -0.4091
66535SOL     OW11329   9.887  12.227   0.763  0.0374  0.2910 -0.3239
66535SOL    HW111330   9.851  12.217   0.851  0.7187 -1.5277 -0.2172
66535SOL    HW211331   9.891  12.322   0.750 -1.4427  0.5845  1.0142
66536SOL     OW11332   6.362   1.644   3.684 -0.2941  0.0147  0.0235
66536SOL    HW111333   6.409   1.564   3.708 -1.6781 -0.9954 -0.5972
66536SOL    HW211334   6.356   1.641   3.589 -1.7468  0.0519  0.1052
66537SOL     OW11335  10.663   3.916  13.125 -0.6747 -0.4195 -0.1027
66537SOL    HW111336  10.616   3.861  13.062 -0.0283 -0.8296 -0.2363
66537SOL    HW211337  10.742   3.867  13.145  0.1597  0.6807 -0.6029
66538SOL     OW11338   0.888   3.821  10.009 -0.0284  0.2102  0.4938
66538SOL    HW111339   0.952   3.834   9.939  0.2609  0.2372  0.7612
66538SOL    HW211340   0.869   3.727  10.007  0.8542  0.0087  1.1328
66539SOL     OW11341   7.079   3.148  10.884 -0.3861  0.1760  0.0163
66539SOL    HW111342   7.032   3.227  10.857 -1.0591 -0.0271  0.5783
66539SOL    HW211343   7.130   3.175  10.960 -2.4733 -0.4688  1.7403
66540SOL     OW11344   9.407   1.784   0.586  0.0360 -0.1400  0.1422
66540SOL    HW111345   9.338   1.842   0.554  0.9165 -0.5610 -2.8740
66540SOL    HW211346   9.369   1.696   0.580 -0.0358 -0.1884  1.1091
66541SOL     OW11347   9.319   0.382   8.924 -0.3587  0.0786 -0.2436
66541SOL    HW111348   9.410   0.401   8.900 -0.1061 -0.5567  0.1861
66541SOL    HW211349   9.304   0.433   9.004 -0.2970 -0.0063 -0.1769
66542SOL     OW11350   4.403  12.436   9.468  0.6138  0.4009  0.3296
66542SOL    HW111351   4.370  12.435   9.558 -0.5743 -1.0742 -0.0888
66542SOL    HW211352   4.336  12.481   9.418 -0.6205 -2.1128 -0.4262
66543SOL     OW11353  13.311   9.897   3.338 -0.3072  1.3196 -0.4592
66543SOL    HW111354  13.235   9.914   3.394  0.2497  1.3383  0.3139
66543SOL    HW211355  13.378   9.957   3.371  0.1447  1.0673 -0.9110
66544SOL     OW11356   7.248  11.743  11.765  0.3276 -0.5631  0.2169
66544SOL    HW111357   7.326  11.694  11.789 -0.1301 -0.8954  1.0462
66544SOL    HW211358   7.212  11.775  11.847 -1.2408 -1.6868  0.0265
66545SOL     OW11359   8.329  11.324   1.319  0.0391 -0.3175  0.7207
66545SOL    HW111360   8.421  11.300   1.308 -0.1073 -0.2565 -0.7980
66545SOL    HW211361   8.321  11.345   1.412  1.9934  1.4555  0.5652
66546SOL     OW11362   5.266   7.302   9.830  0.0560 -0.2002  0.0712
66546SOL    HW111363   5.351   7.270   9.799 -0.2718 -2.1933  1.0732
66546SOL    HW211364   5.285   7.343   9.914  0.1784  0.3114 -0.2067
66547SOL     OW11365   9.114  12.038  11.813 -0.2269 -0.0674  0.0795
66547SOL    HW111366   9.075  12.080  11.736 -0.6178 -0.3398  0.1272
66547SOL    HW211367   9.088  12.094  11.886  0.3416  0.3223 -0.0108
66548SOL     OW11368   3.150   1.577   1.785  0.5027  0.1544 -0.1517
66548SOL    HW111369   3.153   1.664   1.745 -4.1646  0.5564 -0.1084
66548SOL    HW211370   3.175   1.517   1.714  1.1088  1.3296 -0.9596
66549SOL     OW11371   4.425  12.093   9.792 -0.2774  0.2838  0.1652
66549SOL    HW111372   4.460  12.094   9.703  2.8410  0.8780  1.2866
66549SOL    HW211373   4.390  12.181   9.805  0.2199  0.5339 -0.1468
66550SOL     OW11374   6.021  12.869  11.319  0.3124 -0.2589 -0.0755
66550SOL    HW111375   6.095  12.876  11.379  1.4591 -1.7142 -1.2373
66550SOL    HW211376   5.980  12.785  11.343 -1.7702  1.0799  1.3677
66551SOL     OW11377   3.877   2.648   3.685 -0.2012  0.2890  0.0345
66551SOL    HW111378   3.969   2.627   3.675 -0.3578 -2.2165  2.6379
66551SOL    HW211379   3.873   2.701   3.764 -1.0663 -0.3243  0.4124
66552SOL     OW11380  11.628   3.920   9.871 -0.3776  0.3058 -0.2897
66552SOL    HW111381  11.558   3.910   9.935  0.2432  0.2101  0.3971
66552SOL    HW211382  11.590   3.973   9.801 -1.5546 -0.9436 -0.6154
66553SOL     OW11383  10.915   6.119  12.296 -0.0466 -0.3201  0.6356
66553SOL    HW111384  10.872   6.130  12.381 -1.0806 -0.9010  0.2026
66553SOL    HW211385  10.852   6.072  12.242  0.3110  0.6331 -0.6893
66554SOL     OW11386   9.178   6.051  13.703  0.3583  0.2687  0.1038
66554SOL    HW111387   9.209   6.141  13.698  1.0841  0.0339  0.2854
66554SOL    HW211388   9.247   6.000  13.660  0.2843 -0.2779  0.6284
66555SOL     OW11389   8.468  12.190   2.662  0.1732  0.0372 -0.0237
66555SOL    HW111390   8.412  12.220   2.591  1.2541 -0.2979 -1.0393
66555SOL    HW211391   8.418  12.120   2.704  0.9446 -2.3759 -2.7791
66556SOL     OW11392   7.440   2.598   6.200  0.6068  0.3454 -0.1008
66556SOL    HW111393   7.486   2.514   6.196 -1.8578 -1.1097 -0.3559
66556SOL    HW211394   7.427   2.613   6.294 -1.5846 -1.2371 -0.0607
66557SOL     OW11395   7.979   6.576  13.287 -0.4604  0.1425  0.6209
66557SOL    HW111396   7.937   6.554  13.371  0.5090  0.8756  1.3225
66557SOL    HW211397   8.071   6.592  13.310  0.2070 -1.3083 -0.8548
66558SOL     OW11398  11.036   6.800   3.498  0.3303  0.3402 -0.1912
66558SOL    HW111399  11.053   6.718   3.544  0.0060  0.3157 -0.1162
66558SOL    HW211400  11.115   6.852   3.512  1.4256 -0.7375 -1.9766
66559SOL     OW11401  11.028   0.120   2.269  0.3196 -0.1755 -0.0973
66559SOL    HW111402  10.956   0.062   2.294  1.1989 -1.4682 -0.4388
66559SOL    HW211403  11.104   0.062   2.261  0.4919  0.2978 -4.1285
66560SOL     OW11404   9.888  10.348  10.303 -0.2084 -0.4176  0.1944
66560SOL    HW111405   9.914  10.314  10.389 -0.0967  1.0777  0.7905
66560SOL    HW211406   9.864  10.439  10.320  0.7598  0.2082 -1.5351
66561SOL     OW11407   2.913   0.238  13.163 -0.3241 -0.3915  0.3998
66561SOL    HW111408   2.886   0.148  13.180  0.1174 -1.2045 -2.5740
66561SOL    HW211409   2.853   0.269  13.096  1.5309  0.3332 -1.0174
66562SOL     OW11410   2.380  12.313  12.640  0.5849  0.5545 -0.0841
66562SOL    HW111411   2.418  12.225  12.640 -2.1426 -0.7376 -1.0551
66562SOL    HW211412   2.324  12.315  12.717 -1.8063  0.2142 -1.7273
66563SOL     OW11413   7.791   6.241   6.615  0.2327 -0.0032 -0.5011
66563SOL    HW111414   7.758   6.294   6.542 -0.4201 -0.8174 -0.8219
66563SOL    HW211415   7.825   6.162   6.573  1.1198  0.1098 -0.0220
66564SOL     OW11416   0.571   0.027   1.065 -0.2543 -0.1276  0.0183
66564SOL    HW111417   0.558  -0.060   1.104 -0.8541 -0.6036 -1.1809
66564SOL    HW211418   0.661   0.026   1.033 -0.7477 -0.9168 -1.4044
66565SOL     OW11419  12.727  12.060   9.704 -0.1294  0.2812  0.3268
66565SOL    HW111420  12.681  12.040   9.622 -1.6434 -0.0606  1.2073
66565SOL    HW211421  12.733  12.155   9.706 -1.4296  0.3838  0.4787
66566SOL     OW11422  10.279   7.442   0.349  0.2884 -0.6130  0.5656
66566SOL    HW111423  10.244   7.412   0.433 -1.3144 -1.0598 -0.2221
66566SOL    HW211424  10.207   7.430   0.288  0.2941  2.7455 -0.2699
66567SOL     OW11425  12.564  10.931   9.943  0.0858 -0.1041  0.0017
66567SOL    HW111426  12.617  10.866   9.990 -0.9194  0.3422  1.8824
66567SOL    HW211427  12.559  11.005  10.004 -0.0154  1.1534 -1.4908
66568SOL     OW11428  11.907   0.982  13.236 -0.2715 -0.8811 -0.1459
66568SOL    HW111429  11.861   1.016  13.158 -1.9234  0.2539  1.2518
66568SOL    HW211430  11.841   0.932  13.283 -0.0962  0.6042  1.8274
66569SOL     OW11431   4.935   9.312  12.406 -0.3049 -0.4678  0.5344
66569SOL    HW111432   5.024   9.304  12.372  1.3400  1.5458  3.8884
66569SOL    HW211433   4.881   9.328  12.329  2.1516 -1.9251 -1.6465
66570SOL     OW11434   5.437   1.868  11.076 -0.5177 -0.3531  0.0023
66570SOL    HW111435   5.422   1.775  11.090 -1.3074 -0.1683  0.4260
66570SOL    HW211436   5.361   1.897  11.026 -0.9570  0.3273  1.0255
66571SOL     OW11437  12.532  10.887  12.769  0.1280 -0.2156 -0.2125
66571SOL    HW111438  12.479  10.917  12.694 -1.1309  0.7739  1.0136
66571SOL    HW211439  12.578  10.965  12.799  2.2302 -1.0230 -1.1268
66572SOL     OW11440  10.633   8.725   7.161 -0.2528  0.6898 -0.3635
66572SOL    HW111441  10.584   8.761   7.234 -0.5750 -0.3608 -0.0426
66572SOL    HW211442  10.691   8.659   7.200 -0.0033  0.5337 -0.9756
66573SOL     OW11443   6.998   0.210   6.276 -0.3642  0.1001  0.1967
66573SOL    HW111444   7.019   0.260   6.355  0.4235 -0.2810  0.2354
66573SOL    HW211445   7.004   0.118   6.303  1.0681 -0.0599 -0.5736
66574SOL     OW11446   9.646   2.456  13.272  0.0541  0.3265 -0.1968
66574SOL    HW111447   9.696   2.448  13.353  1.8595  1.9165 -1.0720
66574SOL    HW211448   9.556   2.473  13.301  0.5237  0.1242  1.4576
66575SOL     OW11449   3.597   5.375   0.728 -0.5485  0.3345 -0.3172
66575SOL    HW111450   3.571   5.424   0.806  0.6393  1.6236 -0.6863
66575SOL    HW211451   3.579   5.436   0.655  3.0825  1.2783 -0.6334
66576SOL     OW11452   9.845  10.279   5.349  0.3839 -0.3256 -0.2712
66576SOL    HW111453   9.933  10.290   5.386  0.6107 -0.0760 -0.8643
66576SOL    HW211454   9.853  10.313   5.260 -0.5484  0.5447 -0.0360
66577SOL     OW11455   1.518   9.986  10.818 -0.4433  0.0394 -0.3022
66577SOL    HW111456   1.470   9.974  10.900 -1.1269 -2.0128 -0.9192
66577SOL    HW211457   1.539  10.079  10.815 -2.0985  0.5238  1.2748
66578SOL     OW11458   4.655  12.535   0.715 -0.1886  0.1204  0.3560
66578SOL    HW111459   4.607  12.454   0.696 -0.1007  0.1082  0.1812
66578SOL    HW211460   4.635  12.593   0.641 -0.5714  0.4042  0.6819
66579SOL     OW11461   2.497   1.914   9.194 -0.0186 -0.6733  0.0433
66579SOL    HW111462   2.428   1.900   9.130  0.0358  1.3846 -0.5457
66579SOL    HW211463   2.577   1.918   9.142  0.1784 -0.2050  0.3743
66580SOL     OW11464   6.466  11.204   1.981  0.1061  0.0665 -0.0409
66580SOL    HW111465   6.418  11.215   2.063 -0.4719  0.2091 -0.3938
66580SOL    HW211466   6.523  11.281   1.977 -1.2303  1.0585 -0.6825
66581SOL     OW11467   1.561   4.929   7.903 -0.0793  0.0113 -0.0409
66581SOL    HW111468   1.585   5.000   7.843 -0.1791  1.6764  1.8002
66581SOL    HW211469   1.601   4.953   7.986 -2.3270 -0.6916  1.3359
66582SOL     OW11470  10.330   8.929   2.223 -0.1548 -0.0076 -0.1756
66582SOL    HW111471  10.400   8.977   2.179 -1.2234  0.1561 -1.7515
66582SOL    HW211472  10.261   8.993   2.237 -0.0484 -0.1798  1.3244
66583SOL     OW11473   3.965   9.554   6.759  0.4938  0.1892 -0.0682
66583SOL    HW111474   4.013   9.473   6.740 -0.9259 -0.6482 -0.2069
66583SOL    HW211475   3.919   9.535   6.841 -3.1857 -0.7761 -2.1375
66584SOL     OW11476   6.896  10.163   0.156 -0.0468 -0.1210  0.3026
66584SOL    HW111477   6.929  10.099   0.092 -0.7340 -0.2707  0.0823
66584SOL    HW211478   6.811  10.127   0.183 -1.0181  1.2873 -0.7424
66585SOL     OW11479  13.149   4.046   0.753 -0.2972  0.3622 -0.4826
66585SOL    HW111480  13.245   4.040   0.749 -0.2918  0.2630 -0.1765
66585SOL    HW211481  13.129   4.130   0.711 -0.1360 -0.0458 -1.4039
66586SOL     OW11482  12.917   3.683   8.758 -0.1912 -0.3876 -0.3069
66586SOL    HW111483  12.842   3.683   8.818  0.0698  0.7906  0.0458
66586SOL    HW211484  12.994   3.679   8.815  0.0356 -2.3125 -0.6907
66587SOL     OW11485   8.578   8.287  13.411 -0.4848 -0.4350  0.2631
66587SOL    HW111486   8.636   8.271  13.336  0.6478 -1.3241  1.2705
66587SOL    HW211487   8.554   8.200  13.441 -2.6164 -0.0753 -0.2784
66588SOL     OW11488   7.844  10.532   7.850  0.2109  0.3665 -0.8678
66588SOL    HW111489   7.755  10.529   7.815  0.8179 -1.9078 -2.4400
66588SOL    HW211490   7.859  10.444   7.885  1.7348  0.8077 -0.3331
66589SOL     OW11491   2.521   1.865   5.802  0.2647 -0.6069  0.5316
66589SOL    HW111492   2.542   1.902   5.716 -0.3599 -2.3405 -0.4146
66589SOL    HW211493   2.444   1.810   5.786 -0.4276 -0.2324  2.4061
66590SOL     OW11494  11.750  12.111  11.509  0.0393 -0.4708  0.2107
66590SOL    HW111495  11.801  12.085  11.586  1.3319  0.7552 -0.1697
66590SOL    HW211496  11.659  12.109  11.538  0.4266 -0.9985  1.4667
66591SOL     OW11497   2.239   5.189   3.628 -0.4189  0.6860 -0.5847
66591SOL    HW111498   2.204   5.235   3.704 -0.6842  0.7599 -0.7502
66591SOL    HW211499   2.334   5.200   3.635 -0.5263  2.3904 -1.3142
66592SOL     OW11500   3.766  13.111   6.451 -0.5357 -0.4244  0.3143
66592SOL    HW111501   3.766  13.016   6.463  0.2321 -0.3579  0.9485
66592SOL    HW211502   3.840  13.142   6.504  0.4416  0.3251 -1.3635
66593SOL     OW11503   1.905   0.960   8.990  0.4660  0.6760 -0.7910
66593SOL    HW111504   1.942   0.939   8.904  1.2111  0.8993 -0.5363
66593SOL    HW211505   1.976   0.941   9.052 -0.2361  0.0064 -0.1681
66594SOL     OW11506   0.482   3.469  10.940  0.3256 -0.2739 -0.3131
66594SOL    HW111507   0.544   3.474  10.867 -1.5810  0.8509 -1.9533
66594SOL    HW211508   0.400   3.443  10.899 -0.5971 -0.5374  1.6065
66595SOL     OW11509   3.378   9.709  11.276 -0.3940 -0.0432  0.1556
66595SOL    HW111510   3.399   9.800  11.299 -0.1149 -0.0446 -0.0891
66595SOL    HW211511   3.454   9.679  11.227 -0.5713 -0.3483  0.0682
66596SOL     OW11512  12.615   3.107   9.980 -0.2736  0.0008  0.1345
66596SOL    HW111513  12.621   3.202   9.974  1.4498 -0.0430  0.6239
66596SOL    HW211514  12.533   3.091  10.028 -0.8116  1.2079 -0.3520
66597SOL     OW11515   7.704   4.887   0.328  0.3084 -0.1615 -0.6044
66597SOL    HW111516   7.616   4.918   0.303 -1.3471 -2.9341  1.2721
66597SOL    HW211517   7.732   4.948   0.396 -0.3669  0.4449 -0.8522
66598SOL     OW11518  10.895  12.747   9.585  0.2762 -0.3934 -0.0687
66598SOL    HW111519  10.831  12.810   9.552 -0.4269 -0.8087  0.4748
66598SOL    HW211520  10.878  12.668   9.533 -0.0398 -0.6795  0.4630
66599SOL     OW11521   8.955   2.169   4.416 -0.0984 -0.1814  0.7811
66599SOL    HW111522   9.013   2.187   4.490  0.5814 -1.5004  0.5901
66599SOL    HW211523   8.962   2.075   4.402  1.6507  0.3023 -2.4795
66600SOL     OW11524   1.880  12.001   4.170 -0.8374 -0.2775 -0.4955
66600SOL    HW111525   1.836  11.927   4.212 -0.8588 -1.0370 -1.8298
66600SOL    HW211526   1.897  12.062   4.242 -1.2867 -1.3378  0.5383
66601SOL     OW11527   5.189   2.547   1.154  0.3396 -0.7388 -0.2127
66601SOL    HW111528   5.223   2.466   1.116 -0.0835 -1.2216  0.4134
66601SOL    HW211529   5.230   2.616   1.103  1.0272 -1.3390 -0.4965
66602SOL     OW11530   3.346   4.597  12.759 -0.2954  0.6483  0.0845
66602SOL    HW111531   3.286   4.522  12.758  1.0056 -0.4752  1.4291
66602SOL    HW211532   3.405   4.580  12.685  1.2240 -0.7725  1.5491
66603SOL     OW11533   0.940  10.862   4.000 -0.5559 -0.0372 -0.3768
66603SOL    HW111534   0.945  10.957   4.004  2.7856 -0.0474 -1.2831
66603SOL    HW211535   0.994  10.838   3.925 -0.8744 -2.6958  0.1270
66604SOL     OW11536   8.773   2.363   9.956  0.2963 -0.1822  0.3798
66604SOL    HW111537   8.851   2.346   9.903  1.2647 -1.0927  2.0415
66604SOL    HW211538   8.744   2.450   9.928  1.9620  0.2191 -0.1867
66605SOL     OW11539   1.927   4.398   3.444  0.7232 -0.9039  0.0385
66605SOL    HW111540   1.871   4.326   3.418  2.8150 -2.7053  0.1763
66605SOL    HW211541   1.936   4.389   3.539  1.3556 -0.7498 -0.0007
66606SOL     OW11542  12.841   3.877   2.530 -0.2771  0.7761  0.2685
66606SOL    HW111543  12.909   3.927   2.574 -1.6540  2.0608  1.0359
66606SOL    HW211544  12.865   3.880   2.437  1.0875  0.5459  0.5928
66607SOL     OW11545   5.001  10.573   3.955  0.2048  0.1622  0.4566
66607SOL    HW111546   5.093  10.549   3.962  1.2199  2.9627 -1.3574
66607SOL    HW211547   4.988  10.639   4.023 -0.1012  0.6709 -0.0898
66608SOL     OW11548   3.309   0.985   8.562  0.4344 -0.2846 -0.4277
66608SOL    HW111549   3.378   0.928   8.596 -0.3017 -0.5274  0.7142
66608SOL    HW211550   3.244   0.988   8.632 -0.2042  0.8248 -1.0430
66609SOL     OW11551  10.615   1.615   1.773 -0.3374  0.5926  0.5419
66609SOL    HW111552  10.667   1.536   1.755 -0.3809  0.5884  0.4300
66609SOL    HW211553  10.553   1.588   1.840  0.3709  0.8365  1.3063
66610SOL     OW11554   0.921   6.513  12.743 -0.3222  0.3974 -0.7187
66610SOL    HW111555   0.845   6.571  12.735  0.0933  0.8975 -1.1107
66610SOL    HW211556   0.926   6.469  12.658 -0.5259 -0.0821 -0.4871
66611SOL     OW11557   8.090   4.084   7.893  0.5131 -0.2457  0.1020
66611SOL    HW111558   8.028   4.012   7.889  1.1363 -0.8378  0.7866
66611SOL    HW211559   8.074   4.124   7.979 -0.4477  1.0183 -0.6243
66612SOL     OW11560   9.388   8.121  13.660  0.8107 -0.1805 -0.2004
66612SOL    HW111561   9.411   8.065  13.586 -0.0953  0.2280 -0.8013
66612SOL    HW211562   9.363   8.204  13.621  1.6501  0.4986  0.6615
66613SOL     OW11563   9.229   5.761   8.398 -0.6759 -0.0934  0.4563
66613SOL    HW111564   9.163   5.822   8.363  0.1327  2.6923  3.2939
66613SOL    HW211565   9.309   5.813   8.404  0.6726 -2.1255  1.0728
66614SOL     OW11566  13.465  12.360   9.837  0.0981  0.5076 -0.3760
66614SOL    HW111567  13.445  12.312   9.757  2.2012  0.3868 -0.8739
66614SOL    HW211568  13.524  12.303   9.886  0.5543  1.4883  0.2520
66615SOL     OW11569   3.472  11.356   1.822  0.1260  0.8255 -0.2075
66615SOL    HW111570   3.515  11.405   1.893 -0.1908  2.0535 -0.8257
66615SOL    HW211571   3.379  11.371   1.837  0.0414  0.7066 -0.6276
66616SOL     OW11572   0.605   0.031  11.990  0.0169  0.0197 -0.3978
66616SOL    HW111573   0.623   0.022  12.084 -0.4330 -0.3499 -0.3429
66616SOL    HW211574   0.571   0.120  11.980 -0.9518 -0.2891 -0.0311
66617SOL     OW11575   2.578   7.064  13.624 -0.4614  0.3534 -0.0107
66617SOL    HW111576   2.567   7.016  13.706 -1.1590  0.3612 -0.0974
66617SOL    HW211577   2.658   7.114  13.636  1.2479 -2.0603 -0.4994
66618SOL     OW11578   3.338   8.291  11.537  0.1837 -0.4973  0.3886
66618SOL    HW111579   3.350   8.384  11.557 -0.5929 -0.5111  0.9388
66618SOL    HW211580   3.384   8.279  11.453 -1.7177  0.9312 -0.9398
66619SOL     OW11581   6.591   4.937  13.531 -0.1236 -0.0817  0.1712
66619SOL    HW111582   6.602   4.844  13.510 -0.0015 -0.0653  0.1623
66619SOL    HW211583   6.522   4.938  13.598 -1.4214 -0.0360 -1.1135
66620SOL     OW11584   9.785   1.124   6.736 -0.2794 -0.3648  0.0150
66620SOL    HW111585   9.742   1.209   6.732 -1.6735 -1.0771 -0.5848
66620SOL    HW211586   9.717   1.061   6.713  0.7527 -1.6438  0.3485
66621SOL     OW11587   8.019  11.738   0.373  0.3614 -0.1693  0.2605
66621SOL    HW111588   7.990  11.647   0.362  0.1251 -0.1055  0.3376
66621SOL    HW211589   7.946  11.780   0.419  0.9522 -0.2191  1.2759
66622SOL     OW11590  10.639  12.287   6.858 -0.8441 -0.6620 -0.0720
66622SOL    HW111591  10.722  12.241   6.871 -0.2573 -0.0795 -1.5909
66622SOL    HW211592  10.627  12.336   6.940  0.3945 -0.6236  0.1147
66623SOL     OW11593   8.640   0.850   0.220  0.0185  0.0140  0.2498
66623SOL    HW111594   8.570   0.813   0.166  0.0406  0.5721 -0.1730
66623SOL    HW211595   8.697   0.776   0.240 -0.1486 -0.2567 -0.2543
66624SOL     OW11596   1.143  12.813  13.526 -0.3604  0.4551  0.3169
66624SOL    HW111597   1.149  12.895  13.577 -0.7450 -0.6098  2.1776
66624SOL    HW211598   1.212  12.758  13.562  0.3073  0.1646 -1.3638
66625SOL     OW11599   3.062   2.689   3.981 -0.0487  0.0766  0.8316
66625SOL    HW111600   3.118   2.623   4.020  0.6669  0.3285  0.2451
66625SOL    HW211601   3.018   2.644   3.908  2.1578  0.7724 -1.0440
66626SOL     OW11602   0.052   1.344   0.761 -0.0878  0.5532 -0.4022
66626SOL    HW111603   0.145   1.336   0.783 -0.2325 -0.5551 -0.1229
66626SOL    HW211604   0.009   1.361   0.845 -0.1703  0.7945 -0.4916
66627SOL     OW11605   7.146   9.227   5.656 -0.2123  0.4579 -0.1759
66627SOL    HW111606   7.209   9.258   5.591  1.5397  1.1062  1.7163
66627SOL    HW211607   7.060   9.247   5.619  0.7468  1.6570 -1.8563
66628SOL     OW11608   8.676   7.304   5.620  0.0842 -0.2995  0.0132
66628SOL    HW111609   8.586   7.312   5.652 -0.2294 -2.0770 -0.2645
66628SOL    HW211610   8.721   7.381   5.652 -1.7367  1.0439 -0.5055
66629SOL     OW11611   3.876   9.743   0.620 -0.0252 -0.2116  0.1093
66629SOL    HW111612   3.866   9.786   0.705  1.9873 -1.1429  0.8723
66629SOL    HW211613   3.830   9.659   0.629 -0.1009 -0.1648  0.1585
66630SOL     OW11614   8.787   2.144   1.566 -0.0682  0.0587  0.3151
66630SOL    HW111615   8.834   2.205   1.509 -0.9522  0.1401 -0.3474
66630SOL    HW211616   8.763   2.197   1.642  1.0123 -0.0191  0.7313
66631SOL     OW11617   4.726  10.695   7.698 -0.9631 -0.1846 -0.1949
66631SOL    HW111618   4.730  10.674   7.792 -0.1943  0.2774 -0.1160
66631SOL    HW211619   4.689  10.783   7.695 -0.7228 -0.0857 -0.3017
66632SOL     OW11620   5.047  10.457  10.356  0.4010  0.0424 -0.5984
66632SOL    HW111621   5.126  10.510  10.368 -0.7668  2.0328 -1.3640
66632SOL    HW211622   5.046  10.399  10.433  0.9256  2.2089  1.1472
66633SOL     OW11623  11.750  13.109  12.047 -0.1854 -0.3940 -0.0046
66633SOL    HW111624  11.684  13.061  12.096  1.6702 -2.3314  0.7657
66633SOL    HW211625  11.783  13.174  12.109 -2.4120  1.7440 -0.9170
66634SOL     OW11626   5.227   7.796   8.324 -0.2291 -0.0921 -0.0278
66634SOL    HW111627   5.147   7.818   8.372 -0.6128 -0.4740 -0.4790
66634SOL    HW211628   5.244   7.873   8.270 -0.0344  0.1689  0.3982
66635SOL     OW11629   7.597   0.815   6.795 -0.1826 -0.0337  1.1070
66635SOL    HW111630   7.618   0.753   6.725 -2.1711  1.6634 -1.1471
66635SOL    HW211631   7.539   0.766   6.853 -1.0290 -0.6063 -0.1581
66636SOL     OW11632  12.872   6.917   8.025 -0.5274  0.7307  0.0866
66636SOL    HW111633  12.805   6.913   8.092  0.4267 -1.3639  1.0091
66636SOL    HW211634  12.828   6.890   7.945 -1.8909  4.0750 -0.4514
66637SOL     OW11635   0.787   6.284  11.670 -0.5762  0.7034  0.4405
66637SOL    HW111636   0.817   6.297  11.760  1.9969  2.3290 -0.5478
66637SOL    HW211637   0.841   6.343  11.618 -0.7555 -1.4367 -2.4117
66638SOL     OW11638  11.892  11.454   3.500  0.3594  0.0833 -0.4625
66638SOL    HW111639  11.873  11.425   3.589  1.5978 -0.9012 -0.4919
66638SOL    HW211640  11.897  11.374   3.449 -0.7984  0.6596 -1.5450
66639SOL     OW11641   0.288   4.735   6.816 -0.7272 -0.1500 -0.0030
66639SOL    HW111642   0.379   4.724   6.788 -0.3797  1.0595  0.5492
66639SOL    HW211643   0.286   4.704   6.906 -1.1775 -1.3753 -0.4193
66640SOL     OW11644   1.347  13.151   1.491 -0.5732  0.4078 -0.2726
66640SOL    HW111645   1.375  13.069   1.533 -1.4361  0.3253  0.1597
66640SOL    HW211646   1.372  13.140   1.400 -0.7908 -0.4018 -0.2473
66641SOL     OW11647   9.001   2.808   5.207  0.4174  0.0193 -0.2951
66641SOL    HW111648   8.968   2.898   5.206  0.4365  0.0643  1.1333
66641SOL    HW211649   9.087   2.815   5.248  0.6186 -0.5873 -0.6121
66642SOL     OW11650   4.930   9.465  10.283  0.1723  0.4736  0.4083
66642SOL    HW111651   4.921   9.532  10.214 -0.0828 -0.6465 -0.6816
66642SOL    HW211652   5.024   9.450  10.290  0.1501 -0.1865 -0.5010
66643SOL     OW11653   9.840  12.655   7.651 -0.6126 -0.6491  0.1519
66643SOL    HW111654   9.817  12.716   7.581  0.2400 -0.8499 -0.3111
66643SOL    HW211655   9.856  12.572   7.606  3.4225  0.0030  0.0533
66644SOL     OW11656   1.244   3.365   2.015  0.3524 -1.0785  0.0128
66644SOL    HW111657   1.188   3.349   2.092 -0.5338 -1.3026 -0.6648
66644SOL    HW211658   1.322   3.408   2.051 -1.3353  1.6649  0.7106
66645SOL     OW11659   8.367   1.223   5.934 -0.4344  0.3364 -0.1791
66645SOL    HW111660   8.456   1.247   5.907 -0.1162 -0.1671  0.4000
66645SOL    HW211661   8.314   1.236   5.855  0.0078  1.3620 -0.3269
66646SOL     OW11662  11.853  11.576  12.895  0.6468  0.3552  0.5726
66646SOL    HW111663  11.801  11.636  12.949 -1.8053 -1.6791  0.6726
66646SOL    HW211664  11.862  11.497  12.948  0.8415 -0.5823 -0.7825
66647SOL     OW11665  12.148  10.147  13.259  0.1828  0.2064  0.8630
66647SOL    HW111666  12.160  10.173  13.350  0.2030  0.1478  0.8767
66647SOL    HW211667  12.146  10.052  13.261  0.2258  0.2042  0.7960
66648SOL     OW11668   3.253   0.182   8.242 -0.0236  0.1567  0.5957
66648SOL    HW111669   3.249   0.086   8.248  1.8076  0.1006  1.3588
66648SOL    HW211670   3.338   0.200   8.202  0.5483  1.4944  2.2868
66649SOL     OW11671   3.335   6.683   1.599 -0.4742  0.0469 -0.2597
66649SOL    HW111672   3.285   6.753   1.641  1.2486  1.7788 -0.9285
66649SOL    HW211673   3.275   6.646   1.534 -2.1302 -0.5943  1.5490
66650SOL     OW11674   5.619   8.263  10.128 -0.4149 -0.7487  0.2895
66650SOL    HW111675   5.686   8.198  10.146  2.5682  1.4601 -1.9749
66650SOL    HW211676   5.576   8.232  10.049 -0.2929 -0.8643  0.2681
66651SOL     OW11677  13.716  13.526   6.616  0.4793  0.4025 -0.1049
66651SOL    HW111678  13.698  13.508   6.708 -1.6150  0.5564 -0.4340
66651SOL    HW211679  13.722  13.439   6.575  0.4753  0.3460  0.0160
66652SOL     OW11680   3.382  11.566  10.198  0.4263  0.0106 -0.3389
66652SOL    HW111681   3.329  11.576  10.119 -0.8578 -1.3613  0.3029
66652SOL    HW211682   3.431  11.484  10.185  2.0570  0.9946 -0.7010
66653SOL     OW11683   7.163   1.973   4.832  0.1952 -0.3679  0.5394
66653SOL    HW111684   7.166   1.956   4.926  0.5182 -1.1941  0.3861
66653SOL    HW211685   7.239   1.927   4.797  0.1297  0.0119 -0.1153
66654SOL     OW11686   2.669  11.061   8.326  0.2290 -0.3086 -0.0893
66654SOL    HW111687   2.652  10.992   8.262  0.7528  0.3762 -1.0007
66654SOL    HW211688   2.724  11.124   8.278 -0.1890  0.7034  0.7415
66655SOL     OW11689  11.031   2.864   1.873  0.9518  0.1931 -0.5105
66655SOL    HW111690  10.968   2.931   1.899  1.0722 -0.0607  0.4747
66655SOL    HW211691  11.065   2.895   1.788  0.4245  0.9626 -0.4541
66656SOL     OW11692   4.582   4.040  12.503 -0.3368  0.3307  0.6262
66656SOL    HW111693   4.655   4.012  12.558 -0.0395  1.2521  0.7102
66656SOL    HW211694   4.579   3.976  12.432 -0.5329 -0.7018  1.5413
66657SOL     OW11695   1.128   4.622   8.364 -0.2082 -0.1558  0.4133
66657SOL    HW111696   1.089   4.683   8.426  0.1818 -1.0091  1.5242
66657SOL    HW211697   1.214   4.661   8.345 -0.4244  0.2316  0.2082
66658SOL     OW11698  11.407   8.323   9.177  0.2421 -0.1336  0.2136
66658SOL    HW111699  11.343   8.364   9.235 -0.1335 -0.7791  0.2613
66658SOL    HW211700  11.492   8.353   9.210  0.0011  0.0764  0.6475
66659SOL     OW11701   7.118   2.904   7.670 -0.5259  0.0118 -0.8876
66659SOL    HW111702   7.130   2.999   7.674 -0.9068  0.0665 -0.9933
66659SOL    HW211703   7.076   2.882   7.754  0.8496 -0.2641 -0.2466
66660SOL     OW11704   3.311   6.699  12.022 -0.2975 -0.6888 -0.1046
66660SOL    HW111705   3.243   6.638  11.993  0.4427 -2.1952  1.1464
66660SOL    HW211706   3.263   6.774  12.057 -1.2261 -0.2017 -2.2835
66661SOL     OW11707  12.712   2.721  13.346 -0.2508  0.5195  0.7265
66661SOL    HW111708  12.679   2.768  13.423 -3.3150 -3.0223  1.8789
66661SOL    HW211709  12.673   2.766  13.271  0.6900  2.4539  1.3264
66662SOL     OW11710   0.862  11.335   3.848  0.1331 -0.6328 -0.1534
66662SOL    HW111711   0.825  11.268   3.790 -4.2645  2.4827 -1.4544
66662SOL    HW211712   0.902  11.398   3.789  1.0878 -0.3682  0.7561
66663SOL     OW11713  13.519   6.094  13.455  0.1561 -0.5904 -0.2782
66663SOL    HW111714  13.548   6.178  13.491 -0.2519 -0.7769  0.5148
66663SOL    HW211715  13.425   6.105  13.442  0.3359 -0.4396 -1.5692
66664SOL     OW11716  13.521   8.307   5.663 -0.6495 -0.5017 -0.7766
66664SOL    HW111717  13.610   8.336   5.677 -1.8333  2.2944  1.9952
66664SOL    HW211718  13.518   8.219   5.701  0.5729 -0.0263  0.4930
66665SOL     OW11719   1.406  10.681   7.124 -0.1205  0.3986  0.5767
66665SOL    HW111720   1.388  10.603   7.177  0.3110  0.8163  1.3726
66665SOL    HW211721   1.320  10.713   7.097 -0.3823  0.3614  1.3305
66666SOL     OW11722   8.259   1.390   7.397 -0.0233  0.0913  0.0865
66666SOL    HW111723   8.200   1.465   7.389 -0.0908  0.0163 -0.1344
66666SOL    HW211724   8.201   1.316   7.419 -0.0890 -0.0924 -0.6681
66667SOL     OW11725   5.089  11.764  10.507 -0.1214 -0.2741 -0.2815
66667SOL    HW111726   5.125  11.847  10.540 -0.2111  0.1231 -1.1616
66667SOL    HW211727   5.009  11.789  10.462 -0.7842 -0.9983  0.4790
66668SOL     OW11728   4.519   6.807  12.773  0.2506  0.4347  0.1984
66668SOL    HW111729   4.532   6.720  12.812 -0.0364  0.9813  1.5662
66668SOL    HW211730   4.598   6.822  12.721  0.7649 -0.2279  0.7665
66669SOL     OW11731   5.777   2.469   1.688  0.0197 -0.2540 -0.1669
66669SOL    HW111732   5.780   2.553   1.642  1.1367 -0.4034 -0.4156
66669SOL    HW211733   5.692   2.467   1.730 -0.1934  0.8137 -0.5205
66670SOL     OW11734   1.959   2.711   3.125 -0.0902  0.1979  0.2869
66670SOL    HW111735   1.881   2.765   3.113  0.0308  0.2546 -0.2689
66670SOL    HW211736   2.026   2.753   3.071  0.1285 -0.2595  0.1967
66671SOL     OW11737   0.441   7.513   8.262 -0.1440 -0.3265  0.3380
66671SOL    HW111738   0.505   7.447   8.288  0.9106  1.2434  1.9723
66671SOL    HW211739   0.378   7.516   8.335 -1.9879 -1.6161 -1.0951
66672SOL     OW11740  13.365   8.833   8.564  0.0153 -0.6246 -0.6749
66672SOL    HW111741  13.326   8.837   8.652 -0.4598  1.3277 -0.9238
66672SOL    HW211742  13.300   8.874   8.507  0.6819 -1.0852 -1.7991
66673SOL     OW11743   9.875   4.108  12.169 -0.3685 -0.0669  0.0243
66673SOL    HW111744   9.901   4.027  12.125 -0.5967 -0.1358  0.0147
66673SOL    HW211745   9.787   4.126  12.136 -1.6282 -1.4767  2.2994
66674SOL     OW11746  13.257   3.883   8.664  0.2702  0.1609 -0.4732
66674SOL    HW111747  13.297   3.969   8.660  0.8772 -0.1224 -0.5589
66674SOL    HW211748  13.289   3.838   8.586  1.1759 -0.6673  0.3485
66675SOL     OW11749  10.759  13.736  10.217 -0.4305  0.0292  0.0078
66675SOL    HW111750  10.847  13.702  10.204 -0.4437 -0.5265  1.2703
66675SOL    HW211751  10.748  13.742  10.312 -1.5825  0.5404 -0.1326
66676SOL     OW11752  13.258  10.319  10.278 -0.4361 -0.2384  0.1242
66676SOL    HW111753  13.229  10.284  10.361 -0.5113 -1.1660 -0.2789
66676SOL    HW211754  13.295  10.405  10.299 -3.2893  0.9569  0.6751
66677SOL     OW11755   9.827   2.853   2.495 -0.2819 -0.0773  0.0605
66677SOL    HW111756   9.814   2.866   2.589 -0.9383 -1.5436  0.2155
66677SOL    HW211757   9.759   2.789   2.471  0.4702 -0.4319 -1.2158
66678SOL     OW11758   2.431   5.819   9.578  0.4206 -0.4473  0.2260
66678SOL    HW111759   2.350   5.817   9.527 -0.4438  1.0193  1.4815
66678SOL    HW211760   2.474   5.736   9.556  1.2513  0.9717 -4.6109
66679SOL     OW11761   8.939   8.724   0.441 -0.3930  0.4754  0.0691
66679SOL    HW111762   9.024   8.768   0.439 -1.1995  2.0796 -0.3959
66679SOL    HW211763   8.876   8.795   0.447 -1.7129 -0.6964  0.4696
66680SOL     OW11764   4.250   8.943   9.525 -0.2752  0.1627  1.3314
66680SOL    HW111765   4.210   9.000   9.591 -0.5757  1.5167  0.0304
66680SOL    HW211766   4.330   8.911   9.566 -1.0297  0.0202  2.7646
66681SOL     OW11767   5.779   8.145  12.021  0.1671 -0.5616 -0.2610
66681SOL    HW111768   5.788   8.229  12.067  1.3033 -0.5929 -0.4021
66681SOL    HW211769   5.686   8.140  11.999  0.0986  0.7205 -0.3573
66682SOL     OW11770   0.092   8.783   9.599  0.2404 -0.2477 -0.4312
66682SOL    HW111771   0.147   8.753   9.671 -0.1334  1.2746  0.5208
66682SOL    HW211772   0.053   8.702   9.564  0.2305 -1.0074  1.2342
66683SOL     OW11773  12.220   3.477   9.061  0.0845 -0.1341  0.1341
66683SOL    HW111774  12.244   3.485   9.153 -1.0253 -2.3715  0.6808
66683SOL    HW211775  12.178   3.391   9.054 -1.2137  0.5952 -2.1697
66684SOL     OW11776   8.044   3.825  10.510 -0.2383  0.2380  0.3977
66684SOL    HW111777   7.967   3.778  10.542 -0.9054  0.8134 -0.3235
66684SOL    HW211778   8.100   3.757  10.473 -0.2568 -0.2230  1.2017
66685SOL     OW11779   1.315   3.371   9.974  0.3481  0.4710  0.3782
66685SOL    HW111780   1.401   3.338   9.953  0.4240  0.9128 -0.0229
66685SOL    HW211781   1.310   3.456   9.930 -0.7037 -0.0339 -0.5167
66686SOL     OW11782   2.432   4.336   8.029 -0.5572 -0.0980  0.1127
66686SOL    HW111783   2.445   4.263   8.090 -1.6094  0.3126  0.8720
66686SOL    HW211784   2.513   4.386   8.034 -0.1295 -0.7845  0.1881
66687SOL     OW11785   3.309   6.060  13.004 -0.0268  0.5259 -0.2779
66687SOL    HW111786   3.221   6.059  12.964 -0.0250 -0.6943 -0.2828
66687SOL    HW211787   3.367   6.029  12.934  0.2565  0.2910  0.0592
66688SOL     OW11788   4.629   7.479  13.050  0.5383 -0.0019  0.3696
66688SOL    HW111789   4.671   7.415  12.992 -1.1425 -0.8479  0.0239
66688SOL    HW211790   4.615   7.432  13.132 -1.3082 -0.3733 -0.0989
66689SOL     OW11791   9.544   4.224   9.794 -0.5456  0.6622 -0.3363
66689SOL    HW111792   9.587   4.182   9.869 -0.7071  1.8980  0.4816
66689SOL    HW211793   9.615   4.236   9.730 -0.8188 -2.4625 -1.4224
66690SOL     OW11794  11.022   5.849   4.268  0.8222  0.2588  0.1611
66690SOL    HW111795  11.079   5.911   4.314  0.9661 -0.3476  0.8285
66690SOL    HW211796  11.079   5.774   4.250 -0.1837 -1.2317  2.6399
66691SOL     OW11797  10.339   3.811   0.147  0.1488 -0.0469  0.4827
66691SOL    HW111798  10.280   3.850   0.211 -0.8566 -1.1221  0.2289
66691SOL    HW211799  10.321   3.717   0.150  1.8338 -0.4141  0.3740
66692SOL     OW11800   3.895  10.741   5.371  0.1316 -0.8027 -0.0169
66692SOL    HW111801   3.831  10.673   5.352  1.3380 -1.6619 -1.2532
66692SOL    HW211802   3.975  10.712   5.325  1.1735  0.5953  0.8278
66693SOL     OW11803   6.289   0.006   9.102  0.3085  0.0138  0.2927
66693SOL    HW111804   6.258  -0.017   9.189  1.4037 -1.1811  0.4028
66693SOL    HW211805   6.374  -0.038   9.094  0.0020 -0.3218 -1.5703
66694SOL     OW11806   7.894   6.632  13.544  0.4883  0.3296 -1.0501
66694SOL    HW111807   7.893   6.581  13.625 -0.9741  0.1486 -1.1630
66694SOL    HW211808   7.958   6.702  13.562  0.6701 -0.0821  0.0149
66695SOL     OW11809   7.506   4.806  12.317  0.0223 -0.4595 -0.2783
66695SOL    HW111810   7.508   4.900  12.298 -0.7255 -1.0436 -3.9840
66695SOL    HW211811   7.568   4.795  12.389 -0.3269  2.9054  0.7001
66696SOL     OW11812   6.653   8.902   1.013  0.0157  0.2979 -0.3597
66696SOL    HW111813   6.679   8.948   0.934 -1.3872  1.2911 -0.2862
66696SOL    HW211814   6.685   8.957   1.085  1.1536 -0.5236 -0.2086
66697SOL     OW11815  13.410   5.320   3.160  0.5235 -0.0424  0.4998
66697SOL    HW111816  13.428   5.239   3.208  0.7367 -0.2312  0.1101
66697SOL    HW211817  13.335   5.359   3.205  1.4940  0.4173  1.7402
66698SOL     OW11818   6.593   6.270  11.227 -0.1528 -0.1335  0.2734
66698SOL    HW111819   6.540   6.190  11.222  1.0453 -0.9221 -0.1581
66698SOL    HW211820   6.669   6.246  11.279 -1.9582  2.0609  4.3566
66699SOL     OW11821  10.321  12.734   5.531 -0.7006 -0.2595  0.2196
66699SOL    HW111822  10.389  12.793   5.502 -0.1868 -1.0793 -0.2778
66699SOL    HW211823  10.346  12.710   5.621 -0.1992 -0.7383 -0.0418
66700SOL     OW11824   0.925   1.841   8.367 -0.6730  0.0270  0.0128
66700SOL    HW111825   0.862   1.908   8.393 -0.4358 -0.2420  1.3959
66700SOL    HW211826   0.928   1.781   8.442  0.3135 -0.6385 -0.5346
66701SOL     OW11827   2.041   1.189   0.316 -0.3693  0.3353  0.0790
66701SOL    HW111828   1.947   1.173   0.308  0.0387 -2.6027 -0.0096
66701SOL    HW211829   2.080   1.139   0.244  1.2964  1.0134  0.4689
66702SOL     OW11830   5.117   9.814   7.733 -0.0962 -0.0893 -0.5508
66702SOL    HW111831   5.124   9.775   7.820  0.9880 -0.8545 -0.9532
66702SOL    HW211832   5.131   9.741   7.673 -1.0139  0.3967 -1.3756
66703SOL     OW11833   0.808   2.445   8.076  0.1909 -0.1571  0.2493
66703SOL    HW111834   0.739   2.509   8.064 -0.7702 -1.2127  0.0140
66703SOL    HW211835   0.889   2.496   8.071 -0.5052  0.8819 -0.9979
66704SOL     OW11836   1.964   8.410   4.679  0.4600  0.2285  0.3613
66704SOL    HW111837   1.913   8.368   4.749 -2.3694 -0.5249 -1.9848
66704SOL    HW211838   2.005   8.485   4.723 -1.6734  0.1773  2.7587
66705SOL     OW11839  12.242   4.050   9.684  0.1110 -0.6641 -0.1536
66705SOL    HW111840  12.276   4.000   9.609  0.3441 -0.4804 -0.1694
66705SOL    HW211841  12.158   4.009   9.703 -0.1833 -0.3932 -0.8333
66706SOL     OW11842  10.130   9.661  10.903 -0.3005  0.0838 -0.7644
66706SOL    HW111843  10.119   9.566  10.898  0.2472 -0.1778  1.9237
66706SOL    HW211844  10.046   9.694  10.935  0.2882  0.2100  0.7041
66707SOL     OW11845  10.974   4.334   4.722 -0.5113  0.1523  0.1806
66707SOL    HW111846  10.929   4.260   4.762 -0.1006 -0.0908  0.1973
66707SOL    HW211847  11.043   4.294   4.668 -0.1261  0.5296  0.3892
66708SOL     OW11848  11.602   0.326   4.460  0.1475  0.3101  0.1472
66708SOL    HW111849  11.569   0.415   4.469 -1.4320 -0.3401  1.1917
66708SOL    HW211850  11.624   0.318   4.367  0.0551  1.6816 -0.0108
66709SOL     OW11851   4.748  12.043  12.564 -0.2562  0.1729  0.2507
66709SOL    HW111852   4.790  11.995  12.492  0.1022 -1.3114  1.4181
66709SOL    HW211853   4.658  12.009  12.566 -0.4563  0.6772  0.1247
66710SOL     OW11854   1.598  13.228   2.938 -0.5150  0.8488 -0.3301
66710SOL    HW111855   1.654  13.277   2.998  0.0522  0.2084 -0.3242
66710SOL    HW211856   1.530  13.190   2.994  0.2842 -0.1418 -0.0006
66711SOL     OW11857  13.436   3.053   1.934 -0.7502 -0.3648 -0.0462
66711SOL    HW111858  13.514   3.104   1.914 -0.5078 -0.1134  1.4437
66711SOL    HW211859  13.462   2.962   1.922  0.2865 -0.3837  1.9603
66712SOL     OW11860  12.695   9.749  12.256 -0.0892 -0.1598 -0.1262
66712SOL    HW111861  12.667   9.763  12.166 -1.5847 -0.4579  0.2622
66712SOL    HW211862  12.751   9.824  12.276 -0.1615  0.1719 -1.1375
66713SOL     OW11863   8.174   9.174  12.195  0.0969 -0.1253 -0.3523
66713SOL    HW111864   8.190   9.082  12.216  1.4461  0.0575 -0.4875
66713SOL    HW211865   8.087   9.175  12.157  0.0192 -1.3388 -0.2463
66714SOL     OW11866   6.931  12.405   1.022  0.0646  0.3456  0.5812
66714SOL    HW111867   7.025  12.391   1.033  0.5515  1.6991 -1.3671
66714SOL    HW211868   6.894  12.317   1.014  1.2176 -0.1853  0.9174
66715SOL     OW11869  11.818   5.461  10.614  0.1770 -0.2313  0.4302
66715SOL    HW111870  11.790   5.523  10.682 -1.0146 -0.6130  0.2980
66715SOL    HW211871  11.857   5.389  10.663  0.3063 -0.0134  0.6552
66716SOL     OW11872   8.853   8.316   3.894 -0.0067 -0.5607  0.2444
66716SOL    HW111873   8.765   8.353   3.899  0.4366  0.6942 -0.5765
66716SOL    HW211874   8.853   8.262   3.816  0.3910  0.7730 -0.7100
66717SOL     OW11875   0.141   0.433  11.174 -0.1290  0.7288  0.4685
66717SOL    HW111876   0.052   0.466  11.159  0.0969  1.5331  0.8069
66717SOL    HW211877   0.172   0.483  11.250 -0.0139 -0.7833  1.4517
66718SOL     OW11878   2.288  10.207   7.012  0.1355 -0.1416  0.0134
66718SOL    HW111879   2.286  10.118   7.047  0.9872 -0.0905  0.2178
66718SOL    HW211880   2.206  10.246   7.041 -0.4452 -0.9844 -0.4302
66719SOL     OW11881   6.031  13.131  11.198 -0.7939 -0.0519  0.1080
66719SOL    HW111882   5.976  13.135  11.120  0.4401 -1.1667 -0.8809
66719SOL    HW211883   5.992  13.060  11.250 -1.0635  0.0496  0.0481
66720SOL     OW11884  10.741   3.130   4.319  0.2929 -0.2103 -0.2487
66720SOL    HW111885  10.670   3.125   4.384  1.7317  1.7288  1.6586
66720SOL    HW211886  10.809   3.073   4.354  0.1391 -1.1347 -1.4353
66721SOL     OW11887   2.460  10.039   3.726 -0.2574 -0.0026  0.3816
66721SOL    HW111888   2.525  10.108   3.711 -2.0124  1.9796  1.3710
66721SOL    HW211889   2.511   9.957   3.722  2.0182  1.3385 -0.2505
66722SOL     OW11890   9.256   8.881   8.811  0.1218  0.0642 -0.2264
66722SOL    HW111891   9.185   8.904   8.870  0.0606 -1.5272  0.3876
66722SOL    HW211892   9.227   8.799   8.770  0.8861  0.2662 -1.2024
66723SOL     OW11893  10.860   0.011   0.560 -0.6208 -0.3648  0.3270
66723SOL    HW111894  10.790  -0.053   0.545 -0.9483  0.2159 -0.6981
66723SOL    HW211895  10.922  -0.004   0.489 -1.1612  1.0537 -0.4869
66724SOL     OW11896   3.591   8.831  12.174 -0.5610 -0.0789 -0.4463
66724SOL    HW111897   3.641   8.869  12.101  0.2677  1.7115  0.9704
66724SOL    HW211898   3.656   8.785  12.226 -1.1017 -1.0973 -0.6429
66725SOL     OW11899   7.962   4.482   0.524  0.4163 -0.0228 -0.2639
66725SOL    HW111900   7.982   4.390   0.511 -0.3305 -0.4625  1.4117
66725SOL    HW211901   7.869   4.484   0.547  0.8971  0.8554  1.9213
66726SOL     OW11902   3.688  12.915   8.110 -0.0517 -0.0266  0.0582
66726SOL    HW111903   3.627  12.982   8.079 -1.0599 -0.7926  0.3629
66726SOL    HW211904   3.676  12.841   8.051  0.0482 -0.4547  0.5637
66727SOL     OW11905  12.412   9.218  10.052 -0.3442 -0.2182 -0.5022
66727SOL    HW111906  12.319   9.229  10.069 -0.2744  0.0450 -0.2919
66727SOL    HW211907  12.435   9.135  10.095 -0.1030  0.5860  0.9718
66728SOL     OW11908   9.817   1.349  13.289  0.3524  0.7796  0.3081
66728SOL    HW111909   9.791   1.428  13.243 -1.1041  0.7296  1.0018
66728SOL    HW211910   9.737   1.296  13.294  0.7586  0.2661  1.8294
66729SOL     OW11911  13.654   4.512   8.570 -0.4993  0.9315  0.1829
66729SOL    HW111912  13.729   4.483   8.519 -0.9511 -0.1951  0.1374
66729SOL    HW211913  13.656   4.608   8.563 -1.3814  0.8382 -3.2511
66730SOL     OW11914   8.262  10.186   4.162 -0.4176  0.6991 -0.3392
66730SOL    HW111915   8.337  10.172   4.104  0.2922 -0.2298  0.7595
66730SOL    HW211916   8.200  10.116   4.138  1.2044 -1.7777  2.0514
66731SOL     OW11917   5.265   1.444   0.196  0.0132  0.2554 -0.7129
66731SOL    HW111918   5.253   1.402   0.111  0.2971  1.1995 -1.2259
66731SOL    HW211919   5.328   1.514   0.180  0.0362  0.4778  0.2683
66732SOL     OW11920  11.889  12.869   2.159  0.7443 -0.5093  0.1195
66732SOL    HW111921  11.882  12.947   2.213  0.1215 -0.0966 -0.5381
66732SOL    HW211922  11.968  12.824   2.191  1.2820  0.5415  0.3131
66733SOL     OW11923   6.933   4.054   0.428  0.5015 -0.4932 -0.3026
66733SOL    HW111924   6.945   4.020   0.340 -3.2394 -0.4685 -0.9966
66733SOL    HW211925   6.988   3.999   0.483  1.2952 -1.9029 -2.3918
66734SOL     OW11926   5.946   0.940   0.950 -0.0803  0.3507 -0.1681
66734SOL    HW111927   5.954   1.025   0.907 -0.4889 -0.0409 -1.0313
66734SOL    HW211928   5.867   0.902   0.913  1.2760 -1.3390 -1.4711
66735SOL     OW11929   8.847   2.893   1.735  0.7618 -0.3059 -0.2588
66735SOL    HW111930   8.874   2.985   1.741  0.7011 -0.3801  2.0729
66735SOL    HW211931   8.764   2.896   1.687 -1.0710  1.3698  2.6760
66736SOL     OW11932   1.804   7.340   3.189 -0.0945  0.1680  0.1402
66736SOL    HW111933   1.887   7.311   3.153 -0.6384 -0.5293 -0.5844
66736SOL    HW211934   1.820   7.348   3.283  0.6070 -0.5915  0.0921
66737SOL     OW11935   8.331   4.115  11.028 -0.3562 -0.1417  0.2087
66737SOL    HW111936   8.416   4.073  11.011 -0.3352  0.6938 -2.1177
66737SOL    HW211937   8.351   4.209  11.030 -1.1225  0.0221  0.3581
66738SOL     OW11938   2.134   1.926  10.553 -0.5690 -0.5579 -0.4918
66738SOL    HW111939   2.216   1.969  10.577 -0.3187 -1.1950 -0.1799
66738SOL    HW211940   2.071   1.997  10.547  0.1751  0.0333 -1.5116
66739SOL     OW11941   3.260   9.147  13.427  0.1733  0.4117 -0.2947
66739SOL    HW111942   3.290   9.093  13.354  1.5872 -0.0644  0.6045
66739SOL    HW211943   3.248   9.234  13.388  2.1478  0.4860 -0.8873
66740SOL     OW11944   5.452  12.770   6.379  0.1640 -0.2054  0.1847
66740SOL    HW111945   5.429  12.816   6.299  0.0138 -0.3815  0.1250
66740SOL    HW211946   5.537  12.730   6.361  1.0768  1.3674  0.7876
66741SOL     OW11947   5.419   5.234   5.948  0.2603  0.0733  0.2010
66741SOL    HW111948   5.364   5.177   5.896 -0.2562  0.8258 -0.0936
66741SOL    HW211949   5.458   5.177   6.014 -1.1632 -0.4042  0.6491
66742SOL     OW11950   2.859   7.113  10.313  0.4067 -0.7247 -0.3077
66742SOL    HW111951   2.896   7.134  10.399 -0.5762  0.0708 -0.0646
66742SOL    HW211952   2.932   7.074  10.264  1.5326  0.6998  0.1844
66743SOL     OW11953   6.298   1.194   2.516 -0.2961 -0.2194 -0.6001
66743SOL    HW111954   6.386   1.159   2.525  0.2653  1.3469  0.6839
66743SOL    HW211955   6.263   1.193   2.606 -0.3937  1.9571 -0.5458
66744SOL     OW11956  10.439   5.734   6.730  0.0078  0.1331  0.8570
66744SOL    HW111957  10.419   5.827   6.730 -0.3313  0.0638  0.6279
66744SOL    HW211958  10.477   5.717   6.643 -1.4814 -0.2545  0.2499
66745SOL     OW11959   5.645  12.205   0.250  0.6068 -0.0070 -0.2112
66745SOL    HW111960   5.680  12.210   0.161 -0.1134  0.6841 -0.4704
66745SOL    HW211961   5.565  12.257   0.246 -0.1103 -1.0307  0.5183
66746SOL     OW11962   7.036   3.827  10.809 -0.3650  0.0784  0.4596
66746SOL    HW111963   6.981   3.776  10.749  1.3169 -0.9266 -0.3262
66746SOL    HW211964   6.979   3.847  10.883 -1.5137 -1.7397  0.1311
66747SOL     OW11965   1.005   4.028   6.455  0.0302 -0.1213  0.0782
66747SOL    HW111966   1.005   3.954   6.515  1.1877  0.9275  1.4649
66747SOL    HW211967   1.098   4.052   6.446 -0.2635  0.7901 -0.7969
66748SOL     OW11968   5.516   4.045   7.693  0.4547 -0.0513  0.0279
66748SOL    HW111969   5.536   4.018   7.604 -0.6423  0.2129 -0.3160
66748SOL    HW211970   5.595   4.091   7.723  1.1658 -0.9078 -0.4731
66749SOL     OW11971  10.943   0.826  11.198 -0.1920 -0.0655 -0.9028
66749SOL    HW111972  10.968   0.844  11.288  0.4141 -2.3000 -0.5608
66749SOL    HW211973  11.025   0.803  11.154 -0.8011 -1.5637 -1.3162
66750SOL     OW11974  11.441   1.812   0.442 -0.0583  0.4432  0.3373
66750SOL    HW111975  11.497   1.882   0.411 -0.1341  0.1139 -0.5876
66750SOL    HW211976  11.361   1.820   0.390 -0.8780  0.8960  1.6238
66751SOL     OW11977  11.442  11.250   5.992 -0.2972 -0.3417  0.2184
66751SOL    HW111978  11.531  11.286   5.998 -0.6086  0.3743  0.6224
66751SOL    HW211979  11.390  11.321   5.955 -0.4043 -1.2968 -1.5544
66752SOL     OW11980   1.304   8.039  10.569 -0.2469  0.2700 -0.7552
66752SOL    HW111981   1.216   8.074  10.558 -0.5547 -0.0320  0.6007
66752SOL    HW211982   1.291   7.945  10.581  0.2034  0.2880 -0.0624
66753SOL     OW11983   3.905  12.359   3.652  0.3225  0.6329 -0.4266
66753SOL    HW111984   3.936  12.376   3.742  0.0227  0.1690 -0.2327
66753SOL    HW211985   3.817  12.398   3.650 -0.0788 -0.2460 -0.2008
66754SOL     OW11986   1.185   8.462  10.854  0.1800  0.2373 -0.1321
66754SOL    HW111987   1.262   8.517  10.841  1.4829 -1.3591  0.5645
66754SOL    HW211988   1.183   8.444  10.947  1.0968 -2.6513 -0.5900
66755SOL     OW11989   3.902   1.479   5.047 -0.0459 -0.1042  0.2580
66755SOL    HW111990   3.966   1.441   4.987  0.0329 -1.3688  1.1015
66755SOL    HW211991   3.954   1.508   5.122 -0.3725 -0.4993  0.6403
66756SOL     OW11992  13.479   7.081   6.320  0.3692  0.0098  0.8968
66756SOL    HW111993  13.389   7.054   6.338  0.5278 -0.5282  0.8980
66756SOL    HW211994  13.471   7.144   6.248  0.0958 -0.9891  0.0223
66757SOL     OW11995  10.680  10.604   3.118 -0.3558 -0.6050  0.0568
66757SOL    HW111996  10.684  10.508   3.120  0.3055 -0.6571 -1.8660
66757SOL    HW211997  10.771  10.631   3.126 -0.5968 -0.0849  1.2388
66758SOL     OW11998  10.663  13.538   4.248 -0.0288  0.7527 -0.2999
66758SOL    HW111999  10.607  13.608   4.213  0.1526  0.2470 -1.6965
66758SOL    HW212000  10.691  13.570   4.334 -1.5802  1.4893 -0.0335
66759SOL     OW12001  11.640  13.163   5.649 -0.1377 -0.8276 -1.1111
66759SOL    HW112002  11.615  13.113   5.727  0.5213 -2.0828 -1.6632
66759SOL    HW212003  11.736  13.163   5.650 -0.0271  2.3692  0.0325
66760SOL     OW12004  10.375   4.613   0.829 -0.2284 -0.1278  0.1309
66760SOL    HW112005  10.351   4.635   0.738 -0.9698 -0.2710  0.2813
66760SOL    HW212006  10.459   4.567   0.821 -0.6580 -0.8281 -0.5685
66761SOL     OW12007   5.583   7.920   3.959  0.0775  0.3474  0.2034
66761SOL    HW112008   5.608   7.908   3.867 -1.0161 -2.1340  0.1528
66761SOL    HW212009   5.665   7.910   4.007  0.3964  0.0038 -0.3942
66762SOL     OW12010   0.292  11.607  12.544 -0.1548  0.3739 -0.1923
66762SOL    HW112011   0.230  11.587  12.614  0.0609 -2.0844 -0.6353
66762SOL    HW212012   0.240  11.658  12.481 -1.8570 -1.7168 -0.6149
66763SOL     OW12013   4.129   5.720  12.854 -0.2663 -0.1411 -0.1557
66763SOL    HW112014   4.107   5.758  12.939 -1.1619  0.4157 -0.6188
66763SOL    HW212015   4.184   5.645  12.875 -0.3398  0.0878  0.9081
66764SOL     OW12016  12.806  13.318   4.887  0.0986 -0.0351  0.3722
66764SOL    HW112017  12.897  13.317   4.914  0.1837  0.3860  0.1064
66764SOL    HW212018  12.786  13.410   4.870  0.1705 -0.3080 -1.3982
66765SOL     OW12019   1.832   3.905   4.619  0.0113 -0.2103 -0.3719
66765SOL    HW112020   1.745   3.937   4.643 -0.0318 -0.9213  0.4790
66765SOL    HW212021   1.883   3.913   4.699  0.1632 -1.6688 -0.2952
66766SOL     OW12022  13.275   9.589  12.251  0.1739 -0.3497  0.0326
66766SOL    HW112023  13.233   9.674  12.260 -0.2013 -0.4705 -0.5342
66766SOL    HW212024  13.287   9.577  12.157  1.1037 -0.5076  0.1605
66767SOL     OW12025   7.347  11.346  12.034 -0.0685  0.4553  0.3968
66767SOL    HW112026   7.277  11.401  12.069 -0.3619  0.8171 -0.7385
66767SOL    HW212027   7.339  11.353  11.939  1.3271  0.2686  0.2450
66768SOL     OW12028  10.940   9.366   6.310 -0.3553  0.7586 -0.1404
66768SOL    HW112029  10.917   9.396   6.222  0.8076  0.7272 -0.4704
66768SOL    HW212030  10.996   9.435   6.345  0.5028  0.0333 -0.0486
66769SOL     OW12031   4.780   1.713   9.266  0.8592 -0.4371  0.0701
66769SOL    HW112032   4.712   1.780   9.266  1.2492 -0.0325  0.0157
66769SOL    HW212033   4.769   1.667   9.183 -0.1096 -1.1702  0.5957
66770SOL     OW12034  13.619   5.853  10.542  0.4244  0.0743  0.1766
66770SOL    HW112035  13.638   5.882  10.452  0.2018  1.5487  0.5679
66770SOL    HW212036  13.551   5.787  10.532  1.6336 -1.0813 -0.8473
66771SOL     OW12037   8.155   6.454  13.642  0.1457 -0.3407  0.1728
66771SOL    HW112038   8.135   6.371  13.685 -0.6593 -0.4782 -0.4407
66771SOL    HW212039   8.144   6.520  13.711  0.7562 -0.7357  0.6495
66772SOL     OW12040  12.755   3.334   1.930  0.4378  0.2932 -0.0944
66772SOL    HW112041  12.715   3.334   1.843  0.1146 -1.1592  0.0308
66772SOL    HW212042  12.801   3.250   1.936  0.4094  0.3463  1.1465
66773SOL     OW12043   3.892   6.393  12.532  1.0383 -0.1682 -0.2344
66773SOL    HW112044   3.884   6.297  12.535  1.8168 -0.2647 -0.8043
66773SOL    HW212045   3.985   6.408  12.514  0.8822  0.6927 -0.3449
66774SOL     OW12046  12.060   4.210   7.971 -0.0190  0.1695 -0.1738
66774SOL    HW112047  12.095   4.154   7.902 -0.4945  0.3368 -0.5587
66774SOL    HW212048  12.137   4.241   8.018  0.3564  0.5334 -1.0017
66775SOL     OW12049   7.070   4.566  10.212 -0.2934  0.4246  0.0929
66775SOL    HW112050   6.986   4.533  10.242 -1.3244  0.7323 -2.2467
66775SOL    HW212051   7.132   4.495  10.230 -1.6511 -1.0829 -0.9100
66776SOL     OW12052  10.578   0.497   2.882  0.4300 -0.4371  0.2098
66776SOL    HW112053  10.643   0.435   2.851  0.9174  1.0823 -2.0660
66776SOL    HW212054  10.576   0.565   2.815 -1.3799  1.0809  1.6856
66777SOL     OW12055   6.344   2.669   1.676 -0.0559 -0.1054 -0.6045
66777SOL    HW112056   6.305   2.700   1.758  0.1679 -2.2458  0.3838
66777SOL    HW212057   6.400   2.596   1.703 -1.6543 -2.3188 -2.8654
66778SOL     OW12058   3.123   4.390  12.899  0.1387  0.5237  0.3965
66778SOL    HW112059   3.189   4.348  12.954  0.2535  0.9749  0.6046
66778SOL    HW212060   3.057   4.322  12.884  1.0298 -0.1881 -0.4787
66779SOL     OW12061   5.050   6.534  11.507 -0.0274 -0.0418 -0.4038
66779SOL    HW112062   4.986   6.546  11.576  1.2503  2.1051  0.5098
66779SOL    HW212063   5.047   6.615  11.457  1.6397 -0.0711 -0.6136
66780SOL     OW12064  10.231  13.369  13.701 -0.4780 -0.3569 -0.0545
66780SOL    HW112065  10.212  13.296  13.641 -0.9155  0.9549 -1.5924
66780SOL    HW212066  10.322  13.355  13.727 -0.7289 -1.7688  0.1727
66781SOL     OW12067  12.943  12.191   0.039  0.3384  0.2114 -0.0347
66781SOL    HW112068  12.991  12.169  -0.041  0.5184 -0.0304  0.1377
66781SOL    HW212069  12.864  12.234   0.008  1.0118  1.3055 -0.2953
66782SOL     OW12070   4.306  12.809   2.729  0.7178  0.4382  0.3254
66782SOL    HW112071   4.348  12.843   2.650 -0.3205  1.5878  0.2320
66782SOL    HW212072   4.310  12.714   2.719 -0.3319  0.5480 -1.6514
66783SOL     OW12073   5.917   2.270   0.099 -0.1105  0.5255  0.0747
66783SOL    HW112074   5.843   2.287   0.041  0.5670 -0.3872 -1.1072
66783SOL    HW212075   5.878   2.260   0.186 -1.4882 -0.8931 -0.6658
66784SOL     OW12076   6.671   6.558   3.571 -0.6370  0.7734 -0.2788
66784SOL    HW112077   6.683   6.551   3.476  1.3979  3.6627 -0.3698
66784SOL    HW212078   6.605   6.627   3.581 -1.4111 -0.0453  0.4462
66785SOL     OW12079   1.184   5.471  11.342  0.9318 -0.2183 -0.4861
66785SOL    HW112080   1.118   5.476  11.273 -1.5284 -0.6146  1.6812
66785SOL    HW212081   1.172   5.383  11.380 -0.1499  1.1019  2.5225
66786SOL     OW12082  12.143   2.632   0.498  0.5926  0.1587  0.8515
66786SOL    HW112083  12.217   2.603   0.551 -0.1172 -1.7540  0.8529
66786SOL    HW212084  12.092   2.553   0.482 -0.0348  0.9433 -1.4076
66787SOL     OW12085   6.889  12.703   6.142 -0.3913  0.7892 -0.9013
66787SOL    HW112086   6.834  12.641   6.191 -0.4602  1.6026  0.0951
66787SOL    HW212087   6.958  12.728   6.204  0.2133  0.9471 -1.6271
66788SOL     OW12088  11.333   8.483  11.208 -0.0831 -0.1600 -0.2971
66788SOL    HW112089  11.333   8.464  11.115  0.8796  0.1412 -0.3739
66788SOL    HW212090  11.419   8.453  11.238  0.8451  2.4663 -0.1004
66789SOL     OW12091   5.645   1.900   5.001  0.2612  0.8864 -0.3973
66789SOL    HW112092   5.657   1.893   4.906 -1.1616 -0.1490 -0.5322
66789SOL    HW212093   5.557   1.935   5.011  0.1179  0.2672  0.5424
66790SOL     OW12094   2.371   2.099  10.634  0.5751  0.1433  0.6359
66790SOL    HW112095   2.362   2.134  10.723  1.0449  0.1262  0.6938
66790SOL    HW212096   2.427   2.022  10.645 -0.5958 -0.7390  0.5325
66791SOL     OW12097   1.567  12.322  11.750  0.0867 -1.1030 -0.4530
66791SOL    HW112098   1.572  12.250  11.813 -1.0212 -0.1202  0.8113
66791SOL    HW212099   1.539  12.397  11.802  2.4870  0.6176 -1.4392
66792SOL     OW12100   0.232   4.898  10.850 -0.3700 -0.1714 -0.2404
66792SOL    HW112101   0.218   4.989  10.877  1.0791 -0.3343  1.2577
66792SOL    HW212102   0.157   4.877  10.796 -0.2101  2.2782 -1.5713
66793SOL     OW12103   0.260   0.075   2.351  0.2482 -0.1404 -0.5488
66793SOL    HW112104   0.294   0.023   2.424 -0.3369 -0.8656 -0.7867
66793SOL    HW212105   0.338   0.102   2.302  0.5654 -0.6655 -0.3360
66794SOL     OW12106   4.457  11.703   1.390 -0.0998  0.3093  0.7087
66794SOL    HW112107   4.419  11.705   1.302 -1.7027  0.8863  1.3862
66794SOL    HW212108   4.503  11.786   1.398 -0.6100  0.6005  0.6805
66795SOL     OW12109   7.311   2.958   8.784 -0.9750  0.5383  0.0378
66795SOL    HW112110   7.271   2.882   8.826 -0.5481 -0.7499 -1.7210
66795SOL    HW212111   7.237   3.012   8.756 -1.3769 -0.1014 -0.1748
66796SOL     OW12112   9.067   1.605   2.226 -0.2775  0.3220  0.4021
66796SOL    HW112113   9.158   1.634   2.227 -0.7984  2.1442 -0.1368
66796SOL    HW212114   9.058   1.550   2.303  1.0924  0.7441  0.8889
66797SOL     OW12115   2.152   5.184   7.674  0.0739 -0.3049  0.3039
66797SOL    HW112116   2.247   5.193   7.687  0.4762 -3.4120  0.2885
66797SOL    HW212117   2.139   5.211   7.583  0.7499  1.0746  0.5873
66798SOL     OW12118   0.667   3.392   1.514 -0.5004 -0.6095  0.8363
66798SOL    HW112119   0.744   3.436   1.477 -1.4554  0.3598 -0.0760
66798SOL    HW212120   0.703   3.317   1.562  0.9776 -0.4099  0.1056
66799SOL     OW12121   9.048   7.861   8.698  0.0380  0.1790 -0.1254
66799SOL    HW112122   9.054   7.832   8.608  0.4397  0.6675 -0.2613
66799SOL    HW212123   9.135   7.845   8.735 -0.0100  0.3336  0.0601
66800SOL     OW12124   0.668   6.139  12.837  0.0988  0.1340 -0.0393
66800SOL    HW112125   0.653   6.154  12.930  1.5170  2.7395 -0.1224
66800SOL    HW212126   0.613   6.203  12.793  2.1586  1.5249 -0.7675
66801SOL     OW12127  13.735   0.946   5.827  0.2659 -0.3550  0.6740
66801SOL    HW112128  13.828   0.959   5.810  0.0244 -0.1255 -0.5813
66801SOL    HW212129  13.732   0.895   5.908  1.4436  0.7612  1.4751
66802SOL     OW12130   6.770  11.295  10.452  0.2653  0.0358 -0.0769
66802SOL    HW112131   6.776  11.289  10.357  1.9439 -1.1392  0.0488
66802SOL    HW212132   6.771  11.389  10.471 -1.0920  0.3222 -1.2256
66803SOL     OW12133   8.490  13.394   0.267  0.4910 -0.0163 -0.2310
66803SOL    HW112134   8.412  13.387   0.213  0.3692  2.8827 -0.6162
66803SOL    HW212135   8.457  13.412   0.355  0.6804  0.3197 -0.2238
66804SOL     OW12136  12.948  11.753   3.361  0.3336  0.2151  0.0071
66804SOL    HW112137  12.997  11.829   3.328  0.4532  0.1626  0.0640
66804SOL    HW212138  12.870  11.791   3.402  1.2519  0.4612  1.6405
66805SOL     OW12139  10.826  13.645  13.434 -0.2351 -0.2225 -0.1532
66805SOL    HW112140  10.735  13.629  13.412 -0.0347 -0.0930 -1.0974
66805SOL    HW212141  10.874  13.572  13.396  0.1144 -0.0226 -0.1058
66806SOL     OW12142   4.218   6.803   9.354 -0.1580  0.2556  0.2944
66806SOL    HW112143   4.197   6.797   9.447 -0.0446 -2.6897  0.2433
66806SOL    HW212144   4.307   6.836   9.351  0.2475 -0.6606  1.3464
66807SOL     OW12145   8.681   5.802   4.833 -0.3615 -0.4315 -0.2408
66807SOL    HW112146   8.748   5.817   4.900 -0.2482 -2.4885  0.1545
66807SOL    HW212147   8.700   5.715   4.799 -2.9046 -1.1300 -0.0293
66808SOL     OW12148   0.867  13.039   3.001 -0.1090 -0.0338 -0.1725
66808SOL    HW112149   0.792  13.099   3.010 -0.1000 -0.0256 -0.1505
66808SOL    HW212150   0.880  13.005   3.089  0.9228  1.1749  0.1733
66809SOL     OW12151   7.163   9.819  10.848  0.4181 -0.2396  0.4402
66809SOL    HW112152   7.071   9.801  10.829  0.1641 -1.1452  2.3298
66809SOL    HW212153   7.162   9.864  10.933  1.6993  0.0060  0.3417
66810SOL     OW12154   0.301  10.346   7.936 -0.0802  0.3515  0.1256
66810SOL    HW112155   0.227  10.288   7.920 -0.4804  1.2799 -1.6522
66810SOL    HW212156   0.372  10.308   7.884 -0.2989  1.3065 -0.9187
66811SOL     OW12157   6.978   7.787   0.159 -0.0655  0.1609 -0.0015
66811SOL    HW112158   7.022   7.856   0.110 -1.1866  0.3378 -0.7991
66811SOL    HW212159   6.895   7.826   0.186  0.2280 -0.1538  1.4882
66812SOL     OW12160   3.526  13.514  13.126 -0.1754 -0.5538 -0.3439
66812SOL    HW112161   3.464  13.447  13.098 -2.1702  1.1603 -0.2723
66812SOL    HW212162   3.511  13.524  13.220  0.0623  0.0281 -0.3638
66813SOL     OW12163   1.043   6.195  12.139 -0.0053  0.8413 -0.3489
66813SOL    HW112164   1.104   6.123  12.154 -0.0690  0.8167 -0.2091
66813SOL    HW212165   1.027   6.231  12.226  0.2498  1.2072 -0.4525
66814SOL     OW12166  11.588  12.066  11.973 -0.0935 -0.3356 -0.0963
66814SOL    HW112167  11.499  12.030  11.972  0.0584 -0.8296  1.6786
66814SOL    HW212168  11.632  12.020  11.901 -0.7178 -1.5776  0.2815
66815SOL     OW12169   1.512   6.247   6.892 -0.0678  0.0347 -0.0795
66815SOL    HW112170   1.473   6.160   6.881 -1.1118  0.6094 -1.1886
66815SOL    HW212171   1.479   6.278   6.976  2.9856 -1.9276  2.0105
66816SOL     OW12172   7.140  11.337   8.882  0.3440  0.3746 -0.2577
66816SOL    HW112173   7.123  11.246   8.857  2.2536 -0.3212  0.8191
66816SOL    HW212174   7.067  11.386   8.844 -0.0368 -1.4137 -2.0112
66817SOL     OW12175   5.409   2.633   5.878 -0.4700 -0.1119 -0.3703
66817SOL    HW112176   5.391   2.619   5.971  1.6021 -0.4497  0.0205
66817SOL    HW212177   5.493   2.591   5.863 -1.2683 -1.0369 -2.6762
66818SOL     OW12178  11.542   7.631  12.038 -0.3003  0.2649  0.2673
66818SOL    HW112179  11.604   7.595  11.975 -0.4594  1.2155 -0.4610
66818SOL    HW212180  11.518   7.557  12.094  1.1083 -0.2182  0.2526
66819SOL     OW12181   4.879   1.756  11.734 -0.4441  0.6683 -0.1721
66819SOL    HW112182   4.811   1.709  11.781 -2.2706  2.4590 -0.8619
66819SOL    HW212183   4.948   1.691  11.719 -1.7304 -1.0569  1.0660
66820SOL     OW12184   4.930   4.951  10.753 -0.1856 -0.7924 -0.1045
66820SOL    HW112185   4.841   4.958  10.786  0.1633  0.9247  0.5559
66820SOL    HW212186   4.939   5.023  10.690  1.1550 -0.0151  0.9130
66821SOL     OW12187   1.026  11.791   3.416 -0.4515  0.7941  0.2791
66821SOL    HW112188   1.121  11.800   3.416 -0.4790  1.1453  0.6323
66821SOL    HW212189   0.998  11.836   3.496 -0.8564  0.0893  0.5397
66822SOL     OW12190   4.047  12.359   0.103 -0.6319 -0.1420 -0.0072
66822SOL    HW112191   4.089  12.314   0.030 -1.5063  0.4898 -0.9235
66822SOL    HW212192   4.081  12.315   0.181  2.1873  0.7100 -0.6423
66823SOL     OW12193   5.912   1.073   4.469  0.2429  0.5729 -0.9180
66823SOL    HW112194   5.942   1.051   4.557  1.2146  2.5222 -0.7111
66823SOL    HW212195   5.872   0.992   4.436  1.6303 -0.7699  0.5525
66824SOL     OW12196  10.550   5.444   1.715 -0.9069 -0.1940  0.2845
66824SOL    HW112197  10.563   5.439   1.810 -0.0156 -0.8261  0.1431
66824SOL    HW212198  10.458   5.424   1.702 -1.1578  0.3835  1.0485
66825SOL     OW12199   7.073   0.544   4.709 -0.2657  0.2126 -0.3651
66825SOL    HW112200   7.165   0.516   4.712 -0.2509  0.2717 -0.2398
66825SOL    HW212201   7.037   0.517   4.793 -0.5021 -0.2708 -0.6186
66826SOL     OW12202  13.711   5.977   6.473  0.2839 -0.3142 -0.6170
66826SOL    HW112203  13.790   6.021   6.442  0.4553  0.2187  0.5500
66826SOL    HW212204  13.741   5.918   6.542 -0.4902  1.0314  0.9400
66827SOL     OW12205   0.417   5.229   7.540  0.2436 -0.2085 -0.9968
66827SOL    HW112206   0.479   5.224   7.613  2.1983  0.8696 -2.5088
66827SOL    HW212207   0.344   5.281   7.574 -0.5868 -2.5844  1.2448
66828SOL     OW12208   3.491  11.305   4.696  0.2744  0.7488 -0.5221
66828SOL    HW112209   3.494  11.329   4.789 -1.1372  0.6971 -0.4466
66828SOL    HW212210   3.460  11.214   4.696  1.9972  0.1240 -0.9788
66829SOL     OW12211  11.328   9.522  10.199 -0.1743 -0.4778 -0.0237
66829SOL    HW112212  11.382   9.462  10.249 -1.7998 -2.0341 -0.0531
66829SOL    HW212213  11.246   9.475  10.183 -1.2809  1.4941 -0.6195
66830SOL     OW12214   3.351   9.759   2.976  0.0444  0.0781 -0.1546
66830SOL    HW112215   3.265   9.784   3.009 -0.4749 -1.7635 -0.0046
66830SOL    HW212216   3.342   9.764   2.880 -0.2475 -0.1956 -0.1407
66831SOL     OW12217   2.530   3.697   5.952  0.2135  0.1806 -0.0894
66831SOL    HW112218   2.480   3.707   6.033  0.2534 -1.7714  0.2258
66831SOL    HW212219   2.483   3.751   5.888 -1.0316  0.1112  0.7295
66832SOL     OW12220   2.435   9.137  11.758  0.0057  0.0688  0.1215
66832SOL    HW112221   2.401   9.055  11.723 -0.7963  0.5323 -0.2327
66832SOL    HW212222   2.501   9.164  11.694 -0.8363  0.4702 -0.6032
66833SOL     OW12223   2.380  10.241   6.236 -0.6520  0.3860  0.3785
66833SOL    HW112224   2.305  10.182   6.246  0.0499 -0.4826  0.7378
66833SOL    HW212225   2.452  10.195   6.281  0.3987  0.6236 -1.0095
66834SOL     OW12226   7.008  11.264   1.073  0.0451 -0.0529 -0.3420
66834SOL    HW112227   6.928  11.314   1.057  0.0679  0.1472  0.1600
66834SOL    HW212228   6.990  11.177   1.037 -0.6000 -0.1746  0.2587
66835SOL     OW12229   6.024   9.403  10.253  0.1578  0.5417  0.3554
66835SOL    HW112230   6.069   9.319  10.252 -0.7469  0.0387 -0.9181
66835SOL    HW212231   6.092   9.466  10.277  0.4012 -0.7488  3.5847
66836SOL     OW12232   6.052  10.662   1.760  0.2909 -0.4116  0.2091
66836SOL    HW112233   6.063  10.607   1.837 -1.6357 -0.5622  0.4172
66836SOL    HW212234   6.137  10.658   1.716  1.0840 -1.2112  1.7241
66837SOL     OW12235  13.728  13.461   3.776  0.2633  0.4460  0.3244
66837SOL    HW112236  13.737  13.399   3.848  0.0334  0.5701  0.4593
66837SOL    HW212237  13.717  13.406   3.698  1.6748  0.2839  0.2096
66838SOL     OW12238   8.177   3.833  11.126 -0.1479 -0.1681 -0.2005
66838SOL    HW112239   8.111   3.769  11.098  0.0165  0.1939 -1.4659
66838SOL    HW212240   8.158   3.911  11.075 -0.9972  1.2001  2.0632
66839SOL     OW12241   2.025  11.666   6.695 -0.5051 -0.3805  0.3089
66839SOL    HW112242   2.075  11.743   6.722  0.9768 -1.5438  1.0320
66839SOL    HW212243   2.024  11.670   6.600  0.6682 -0.1251  0.2906
66840SOL     OW12244   8.648  10.554   8.214  0.4504 -0.0686 -0.4899
66840SOL    HW112245   8.721  10.494   8.197  1.4856  0.1500  2.6035
66840SOL    HW212246   8.688  10.626   8.264 -1.5115  1.1627 -0.6046
66841SOL     OW12247  11.547   8.663   3.041 -0.3845  0.7186  0.6539
66841SOL    HW112248  11.573   8.632   2.954  0.7895 -2.5580  2.0115
66841SOL    HW212249  11.459   8.627   3.053  0.3025 -0.7070  1.5961
66842SOL     OW12250   7.463  13.371  11.462  0.1070 -0.4585  0.5436
66842SOL    HW112251   7.436  13.315  11.535 -1.1276 -0.1189  0.3717
66842SOL    HW212252   7.384  13.420  11.440  0.0316 -1.5541 -1.9316
66843SOL     OW12253  11.210   9.925   3.217 -0.0101  0.2202  0.3282
66843SOL    HW112254  11.218   9.905   3.123  0.7668 -0.1086  0.4519
66843SOL    HW212255  11.248  10.013   3.225 -1.1342  0.7379  0.1691
66844SOL     OW12256   8.168  12.799   3.673  0.1417  0.0354 -0.4333
66844SOL    HW112257   8.194  12.886   3.703  1.1984 -0.0456 -1.0564
66844SOL    HW212258   8.076  12.791   3.699  0.0632  1.2848 -0.2583
66845SOL     OW12259   1.308   5.844   9.012  0.3217  0.4417  0.4750
66845SOL    HW112260   1.259   5.917   9.049  0.4683  0.8462 -0.1118
66845SOL    HW212261   1.382   5.885   8.967  1.7148 -0.2095  2.0987
66846SOL     OW12262   9.602   8.720   8.284 -0.5233 -0.1445  0.7805
66846SOL    HW112263   9.573   8.786   8.347  2.0215 -1.0832  3.1346
66846SOL    HW212264   9.640   8.770   8.212 -0.1401  0.9647  1.7226
66847SOL     OW12265   7.070   5.622  10.552  0.7561 -0.0424  0.0526
66847SOL    HW112266   7.098   5.587  10.637 -1.1508  2.0616  1.6494
66847SOL    HW212267   6.994   5.569  10.529  0.0568  0.6874  0.6680
66848SOL     OW12268   4.510   5.128   7.114 -0.0948 -0.0758 -0.0393
66848SOL    HW112269   4.528   5.221   7.127  2.0192 -0.5312  0.7319
66848SOL    HW212270   4.445   5.107   7.181 -0.1304  0.6974  0.1803
66849SOL     OW12271  11.951   5.587   4.886  0.2678  1.1954  0.4996
66849SOL    HW112272  11.875   5.599   4.943 -1.3981 -3.2266 -0.4564
66849SOL    HW212273  11.914   5.578   4.798  2.2882  2.2566 -0.5348
66850SOL     OW12274  11.445   6.599  11.150  0.4793  0.2250  0.4529
66850SOL    HW112275  11.445   6.573  11.242  0.6292 -0.6363  0.2176
66850SOL    HW212276  11.536   6.622  11.132  0.9875 -1.9404 -0.0909
66851SOL     OW12277   4.119  10.643   6.353  0.0350  0.0598  0.2502
66851SOL    HW112278   4.085  10.732   6.342  0.3026  0.1435  0.0851
66851SOL    HW212279   4.131  10.612   6.263 -1.5760 -0.7351  0.2716
66852SOL     OW12280   2.567  11.441  11.547  0.2639  0.5148 -0.1282
66852SOL    HW112281   2.637  11.479  11.601 -0.9304  1.9198  0.5079
66852SOL    HW212282   2.494  11.502  11.556 -0.5023 -0.0400 -2.1280
66853SOL     OW12283   3.362   6.307  13.106 -0.1620  0.1657  0.2603
66853SOL    HW112284   3.372   6.311  13.201  0.3998 -1.5827  0.3097
66853SOL    HW212285   3.371   6.214  13.085  0.0482  0.5587 -1.5397
66854SOL     OW12286   9.267  13.034  10.789  0.0085 -0.4983 -0.0336
66854SOL    HW112287   9.295  13.065  10.703 -1.8653  0.0348 -0.4859
66854SOL    HW212288   9.188  13.084  10.809 -1.6064 -3.0121  0.4332
66855SOL     OW12289  10.755  12.318  13.705  0.0859  0.2801  0.7294
66855SOL    HW112290  10.804  12.297  13.626  1.3240 -0.0108  1.5394
66855SOL    HW212291  10.767  12.241  13.761  0.3232  1.0048  1.7037
66856SOL     OW12292  10.819   1.830   6.970  0.1608  0.5223 -0.7402
66856SOL    HW112293  10.796   1.836   6.878  0.4469  0.4672 -0.8173
66856SOL    HW212294  10.856   1.742   6.980 -2.4690 -0.6019  0.0230
66857SOL     OW12295   5.832   3.482   4.429 -0.3729 -0.2710 -0.0278
66857SOL    HW112296   5.762   3.438   4.380  0.5155  0.5380 -2.1603
66857SOL    HW212297   5.875   3.412   4.478 -1.6969 -1.0260  0.0976
66858SOL     OW12298   7.549  13.226   9.106 -0.3308  0.4468 -0.1372
66858SOL    HW112299   7.500  13.153   9.144  1.5026 -1.5611 -1.3692
66858SOL    HW212300   7.629  13.230   9.157 -0.7383  2.2218  0.4396
66859SOL     OW12301   3.753   0.636   4.516 -0.4679 -0.4622 -0.4124
66859SOL    HW112302   3.719   0.558   4.559  0.1116 -0.5251 -0.0508
66859SOL    HW212303   3.716   0.633   4.428  1.1131 -2.2341 -1.0864
66860SOL     OW12304  12.956   1.864   5.349 -0.1174 -0.0288  0.1076
66860SOL    HW112305  12.908   1.890   5.428 -1.5299 -0.8901 -0.4214
66860SOL    HW212306  12.892   1.815   5.297  1.0615 -0.3290 -1.1298
66861SOL     OW12307   4.707   7.979   8.337 -0.2498  0.1764  0.2023
66861SOL    HW112308   4.673   7.891   8.357  0.1298 -0.9181 -3.2693
66861SOL    HW212309   4.634   8.038   8.356 -1.4298 -1.2221  0.1771
66862SOL     OW12310   5.673  10.646   1.494 -0.5386 -0.2556 -0.9083
66862SOL    HW112311   5.709  10.695   1.420  2.8192 -1.7059 -0.4153
66862SOL    HW212312   5.674  10.707   1.567  0.9325 -0.1910 -0.9528
66863SOL     OW12313   4.094  11.133  12.083 -1.1999  0.1456  0.0785
66863SOL    HW112314   4.173  11.175  12.116 -0.9795  0.6995 -1.0765
66863SOL    HW212315   4.122  11.045  12.057 -0.7101  0.6387 -1.1820
66864SOL     OW12316  12.872  10.029   2.465  0.2131 -0.1586  0.4726
66864SOL    HW112317  12.911   9.953   2.508 -0.5144  0.4780  2.3343
66864SOL    HW212318  12.926  10.103   2.493 -1.0767  0.4532  1.4496
66865SOL     OW12319   0.818   0.831   1.961 -0.5508  0.4570  0.0847
66865SOL    HW112320   0.893   0.848   1.904 -1.3357  0.3268 -1.0038
66865SOL    HW212321   0.770   0.914   1.963 -1.9255 -0.2457 -1.5727
66866SOL     OW12322   8.733   6.399   0.895 -0.5565  0.5689  0.0384
66866SOL    HW112323   8.716   6.486   0.860  0.4338  0.4509 -0.7949
66866SOL    HW212324   8.802   6.363   0.839 -0.7264 -0.6354  0.5545
66867SOL     OW12325   5.918   0.915  12.732 -0.0719 -0.2809 -0.5251
66867SOL    HW112326   5.973   0.905  12.809  0.2465  0.6216 -0.6308
66867SOL    HW212327   5.831   0.885  12.760 -0.0087  0.2460  0.2429
66868SOL     OW12328  12.989   1.569  12.410 -0.2300  0.4956  0.3034
66868SOL    HW112329  12.960   1.651  12.372 -1.8984  0.0984  0.6173
66868SOL    HW212330  13.009   1.513  12.335 -1.4777  0.3984  0.0199
66869SOL     OW12331   0.909  12.073  12.389  0.1897 -0.1274 -0.0951
66869SOL    HW112332   0.962  12.118  12.323 -1.3198  0.7297 -0.7780
66869SOL    HW212333   0.965  12.002  12.421  2.2253  1.4816  0.1437
66870SOL     OW12334  12.430  10.077   9.967  0.3878  0.2284  0.3137
66870SOL    HW112335  12.355  10.057  10.022 -1.1303  1.4924 -1.1930
66870SOL    HW212336  12.494  10.117  10.026 -1.2979  1.8019  1.1475
66871SOL     OW12337  13.717   0.387  13.045  0.3757  0.1602  0.0588
66871SOL    HW112338  13.775   0.348  13.111  1.1990  0.5364 -0.4255
66871SOL    HW212339  13.720   0.480  13.064  2.7188  0.6305 -2.0513
66872SOL     OW12340   2.700  10.018  12.428  0.4102 -0.4616 -0.0603
66872SOL    HW112341   2.758  10.091  12.448  0.8505 -0.4336 -1.3493
66872SOL    HW212342   2.694  10.017  12.333 -2.7044  0.2874  0.0182
66873SOL     OW12343   6.890  11.739   7.282 -0.0760 -0.1479 -0.0080
66873SOL    HW112344   6.928  11.814   7.327  1.8377  0.4138 -2.3382
66873SOL    HW212345   6.963  11.677   7.273 -0.6370 -0.6474 -1.3871
66874SOL     OW12346   8.353  12.032   4.487 -0.7191 -0.0458  0.0908
66874SOL    HW112347   8.259  12.051   4.496 -0.6372 -0.1197  1.2866
66874SOL    HW212348   8.388  12.107   4.439 -1.1907  0.5699  0.6844
66875SOL     OW12349   8.653   1.979   0.368  0.1900  0.4616 -0.1065
66875SOL    HW112350   8.612   2.061   0.342 -0.7206  0.4241  1.1134
66875SOL    HW212351   8.580   1.922   0.392  0.8220 -0.5989 -0.6140
66876SOL     OW12352   3.234  12.572  12.262 -0.1623 -0.3844  0.5518
66876SOL    HW112353   3.150  12.582  12.309 -0.6461  0.1308 -0.3894
66876SOL    HW212354   3.236  12.646  12.201  0.3189 -1.1896 -0.4348
66877SOL     OW12355   2.016   7.541   3.648 -0.1523 -0.4802  0.6989
66877SOL    HW112356   2.022   7.522   3.742 -0.6220 -0.0958  0.8141
66877SOL    HW212357   2.092   7.497   3.609  0.3628 -0.1700  1.3331
66878SOL     OW12358   7.418   4.659   8.434 -0.4459  0.2581  0.2408
66878SOL    HW112359   7.480   4.622   8.497 -1.3977 -2.9875 -0.5199
66878SOL    HW212360   7.339   4.674   8.484 -0.2435  0.6529  0.4416
66879SOL     OW12361   1.915   8.810   6.633 -0.4819 -0.4929 -0.2630
66879SOL    HW112362   1.945   8.755   6.705  0.3477 -1.5528 -1.3671
66879SOL    HW212363   1.853   8.756   6.585 -0.7826  0.0831 -0.5405
66880SOL     OW12364   8.925   6.084   3.508 -0.0568 -0.0361  0.3384
66880SOL    HW112365   8.893   6.000   3.540 -0.4282 -0.7090 -1.6214
66880SOL    HW212366   8.864   6.148   3.544  0.6287 -0.4945  2.4128
66881SOL     OW12367   2.563   1.048   5.271  0.3670  0.0348 -0.3402
66881SOL    HW112368   2.609   1.084   5.348  0.8992 -2.7140  0.7351
66881SOL    HW212369   2.620   1.068   5.198 -0.2745  2.9644 -0.1696
66882SOL     OW12370   7.687  12.299   3.372  0.3686  0.2700  0.3457
66882SOL    HW112371   7.607  12.305   3.424  0.3995  1.2323  0.2893
66882SOL    HW212372   7.658  12.311   3.281  0.2988 -1.5157  0.0934
66883SOL     OW12373   3.011   5.241   7.845 -0.4663  0.1784 -0.0926
66883SOL    HW112374   2.948   5.312   7.858 -0.5462 -0.1153  1.2350
66883SOL    HW212375   3.044   5.255   7.756 -1.7096  0.8797 -0.4654
66884SOL     OW12376   7.941   3.163   2.867 -0.2508  0.8922 -0.4798
66884SOL    HW112377   7.881   3.191   2.798 -0.0707  1.1855 -0.5219
66884SOL    HW212378   8.023   3.208   2.846  0.4560 -0.6700 -1.2996
66885SOL     OW12379  11.309  11.976   8.128  0.0596  0.0426  0.7809
66885SOL    HW112380  11.315  11.977   8.224 -0.8761  0.7711  0.8474
66885SOL    HW212381  11.266  11.893   8.108 -0.7539  0.3795  1.0777
66886SOL     OW12382   1.016   3.840   5.344  0.6895 -0.0766 -0.0261
66886SOL    HW112383   0.997   3.774   5.278 -0.4507  0.3118 -0.1021
66886SOL    HW212384   1.112   3.848   5.343  1.1005 -3.2055  1.4256
66887SOL     OW12385   8.669   8.321   8.782 -0.2874 -0.3712  0.2191
66887SOL    HW112386   8.688   8.351   8.871 -2.1209  2.4748 -0.2222
66887SOL    HW212387   8.739   8.258   8.763  0.1082 -1.2239  3.6714
66888SOL     OW12388  11.042   0.573  10.815 -0.4018  0.0609  0.3024
66888SOL    HW112389  10.988   0.651  10.807  0.0211  0.4216  0.8407
66888SOL    HW212390  11.011   0.514  10.747 -1.1901  0.4266  0.3386
66889SOL     OW12391  10.074   4.763  12.942  0.5459  0.2270 -0.1835
66889SOL    HW112392   9.980   4.780  12.936  0.1782 -2.0796 -3.6544
66889SOL    HW212393  10.081   4.670  12.962  2.0795  0.1707 -0.8065
66890SOL     OW12394  11.413  11.492   3.742  0.5664  0.1859  0.2386
66890SOL    HW112395  11.319  11.477   3.733  0.5316  1.0020 -1.0498
66890SOL    HW212396  11.453  11.417   3.697  0.5281  0.0185  0.4834
66891SOL     OW12397  11.594   9.355  13.726 -0.2062  0.0778  0.0967
66891SOL    HW112398  11.624   9.363  13.636  0.4616 -3.0087 -0.0617
66891SOL    HW212399  11.503   9.326  13.718 -0.8321  1.7710  0.5154
66892SOL     OW12400   9.336  12.726   2.072  0.2129  0.0410 -0.3550
66892SOL    HW112401   9.319  12.818   2.051 -0.2694  0.3055  1.0557
66892SOL    HW212402   9.250  12.684   2.067 -0.0810  0.2871  1.7199
66893SOL     OW12403  11.644   7.187   5.071  0.3348  0.8074  0.4844
66893SOL    HW112404  11.674   7.260   5.125 -0.8303 -0.3532  2.8527
66893SOL    HW212405  11.598   7.129   5.132 -2.0260 -0.0954 -1.9580
66894SOL     OW12406  10.595   8.996   9.239 -0.5071 -0.3361  0.0956
66894SOL    HW112407  10.624   8.989   9.330  0.2647  0.7494 -0.0362
66894SOL    HW212408  10.654   8.938   9.190 -0.3254 -0.2261  0.1827
66895SOL     OW12409   7.077   6.770  10.772  0.2228  0.3177  0.4598
66895SOL    HW112410   7.049   6.857  10.798 -0.3007  0.7859 -1.5574
66895SOL    HW212411   7.091   6.724  10.855 -0.4987  1.9729  1.5480
66896SOL     OW12412   6.422   0.913   6.536 -0.5806  0.4166 -0.1878
66896SOL    HW112413   6.509   0.950   6.521  0.1476 -1.3378 -0.5504
66896SOL    HW212414   6.373   0.984   6.579  1.3924  1.0439  1.1991
66897SOL     OW12415   2.130  12.005   2.669 -0.2606  0.3622 -0.4672
66897SOL    HW112416   2.182  11.925   2.678  0.6476  0.9947  0.1412
66897SOL    HW212417   2.102  12.025   2.759  0.8859  1.5895 -0.3512
66898SOL     OW12418  12.437  12.563  10.200 -0.0920  0.0613  0.0172
66898SOL    HW112419  12.498  12.626  10.161  0.3548  0.8019  1.8196
66898SOL    HW212420  12.483  12.480  10.196 -0.6521 -0.2213 -2.3103
66899SOL     OW12421   9.717   8.430  11.350  0.3007  0.4540  0.0515
66899SOL    HW112422   9.792   8.395  11.399 -0.6255  0.3309  1.4531
66899SOL    HW212423   9.732   8.402  11.260  1.8115  0.2345  0.3386
66900SOL     OW12424   2.608  10.478  10.408 -0.1723 -0.0652 -0.5373
66900SOL    HW112425   2.681  10.538  10.418  0.0762 -0.3615 -0.5677
66900SOL    HW212426   2.531  10.535  10.403  0.2706  0.4663 -3.4365
66901SOL     OW12427   6.461  12.152   7.632  0.4334  0.1405  0.2809
66901SOL    HW112428   6.404  12.215   7.588 -0.2437 -0.2373  0.5861
66901SOL    HW212429   6.517  12.205   7.689 -0.3465  0.4560  0.7761
66902SOL     OW12430   1.862   1.884   5.991 -0.2272 -0.0591  0.2408
66902SOL    HW112431   1.824   1.851   5.910  0.3392 -1.9909  0.7166
66902SOL    HW212432   1.938   1.934   5.964 -2.1587  2.6292 -0.6287
66903SOL     OW12433   3.127   6.772  13.724 -0.2761 -0.3805  0.0775
66903SOL    HW112434   3.130   6.867  13.732 -0.7912 -0.1333 -2.0368
66903SOL    HW212435   3.112   6.741  13.813 -1.2203  1.5806  0.6677
66904SOL     OW12436   9.876   1.401  12.107  0.1182  1.1418  0.2897
66904SOL    HW112437   9.933   1.432  12.036 -0.5439 -1.4728 -1.5380
66904SOL    HW212438   9.800   1.459  12.105  0.3570  1.4371 -0.8075
66905SOL     OW12439  10.223  10.945  13.526  0.2511 -0.3318  0.8078
66905SOL    HW112440  10.237  10.922  13.434  0.7535 -0.6659  0.9655
66905SOL    HW212441  10.191  10.864  13.566  0.9313 -0.4540  1.1206
66906SOL     OW12442   0.829   1.850  11.848  0.6546 -0.1684  0.5020
66906SOL    HW112443   0.848   1.907  11.773 -2.3639 -2.6046 -2.4657
66906SOL    HW212444   0.890   1.777  11.839 -0.0937 -0.7511 -0.0434
66907SOL     OW12445   8.600   9.411  12.534 -0.4270 -0.2654 -0.3072
66907SOL    HW112446   8.663   9.366  12.590  1.0658  1.2989 -0.6424
66907SOL    HW212447   8.628   9.391  12.444  0.0293  0.9580 -0.4617
66908SOL     OW12448  13.312   3.994   6.018 -0.2799  0.5554 -0.1038
66908SOL    HW112449  13.268   4.050   6.082 -0.6838 -1.9169  1.9596
66908SOL    HW212450  13.244   3.969   5.956 -0.4319  1.1566 -0.1838
66909SOL     OW12451  13.110   4.205   8.683 -0.0243  0.6344 -0.8327
66909SOL    HW112452  13.193   4.168   8.654 -0.1558  0.1615 -0.6103
66909SOL    HW212453  13.125   4.231   8.774 -0.5875 -0.9738 -0.2436
66910SOL     OW12454  13.614   5.143   5.422  0.4354 -0.2552 -0.4846
66910SOL    HW112455  13.661   5.173   5.500 -1.0256  0.3437  0.2174
66910SOL    HW212456  13.542   5.205   5.413 -0.8904 -1.7648 -0.8158
66911SOL     OW12457   3.512   0.113  13.274  0.5059  0.3437  0.1110
66911SOL    HW112458   3.573   0.081  13.207  1.3357  1.3282  0.3666
66911SOL    HW212459   3.484   0.198  13.242  0.4892  0.5879  0.7646
66912SOL     OW12460  10.586  12.522   3.086  0.6571 -0.3761  0.6989
66912SOL    HW112461  10.547  12.480   3.162  2.6185 -2.2118  0.7740
66912SOL    HW212462  10.634  12.597   3.122 -1.9549  1.4628  0.6794
66913SOL     OW12463   3.580   0.541  12.841 -0.1238 -0.1108  0.1270
66913SOL    HW112464   3.635   0.474  12.883  0.3433 -0.2680 -0.7063
66913SOL    HW212465   3.505   0.551  12.900 -0.2233 -1.4060  0.2494
66914SOL     OW12466  12.234   1.238   6.116 -0.1823  0.2630  0.3633
66914SOL    HW112467  12.147   1.277   6.122 -0.4656 -0.2711 -0.2014
66914SOL    HW212468  12.221   1.155   6.070  1.0750  1.6185 -2.6609
66915SOL     OW12469   1.527   6.713   3.134 -0.4055 -0.5517  0.0436
66915SOL    HW112470   1.493   6.711   3.223  1.0106  0.2507  0.6360
66915SOL    HW212471   1.528   6.806   3.111  0.2961 -0.6587 -0.3788
66916SOL     OW12472   9.509   3.219   3.816 -0.1228 -0.0051 -0.5099
66916SOL    HW112473   9.569   3.221   3.742  1.2037 -0.9542  0.4986
66916SOL    HW212474   9.564   3.199   3.891 -1.6695 -0.7119  0.4854
66917SOL     OW12475  11.790   1.310   8.336 -0.5327 -0.1905  0.2523
66917SOL    HW112476  11.837   1.245   8.283  0.3324 -0.5321  1.4038
66917SOL    HW212477  11.746   1.366   8.271  1.9919  0.5711 -0.9472
66918SOL     OW12478   2.189  10.299   9.458 -0.3627 -0.2490 -0.1243
66918SOL    HW112479   2.101  10.264   9.472  0.5881 -3.1386 -0.7046
66918SOL    HW212480   2.190  10.323   9.365 -0.4773 -0.4889 -0.1909
66919SOL     OW12481  12.480   3.505   8.012  0.0146  0.5013  0.2876
66919SOL    HW112482  12.441   3.589   7.989 -0.7918  0.7725  2.3903
66919SOL    HW212483  12.437   3.442   7.955  0.1552  1.4225 -0.8631
66920SOL     OW12484   3.560   3.535  12.889 -0.2271 -0.1470 -0.3459
66920SOL    HW112485   3.520   3.450  12.869  0.7983 -1.4197  2.4856
66920SOL    HW212486   3.654   3.517  12.895  0.3896  1.8578 -2.4738
66921SOL     OW12487   1.786  12.901   3.579 -0.3309  0.1346  0.2136
66921SOL    HW112488   1.701  12.945   3.589 -1.0156 -1.1075 -0.0064
66921SOL    HW212489   1.776  12.819   3.628  0.1649 -0.7955 -1.1966
66922SOL     OW12490   0.106   5.669   4.756 -0.4053  0.2831  0.1548
66922SOL    HW112491   0.099   5.756   4.717  0.5401  0.8949  1.3017
66922SOL    HW212492   0.055   5.675   4.837  0.5839  0.1192  0.8021
66923SOL     OW12493  12.250   3.043   9.215 -0.5939  0.5445 -0.3170
66923SOL    HW112494  12.321   3.095   9.254  0.6091 -1.6039  0.5690
66923SOL    HW212495  12.295   2.969   9.174 -2.3104 -0.8593  0.2046
66924SOL     OW12496  11.562   2.698   5.514 -0.0948 -0.4521 -0.6095
66924SOL    HW112497  11.537   2.788   5.495 -1.6948 -0.6055  0.5097
66924SOL    HW212498  11.535   2.648   5.437  0.6311 -0.0104 -1.1552
66925SOL     OW12499   0.411   7.922  12.286 -0.0962  0.4989 -0.2389
66925SOL    HW112500   0.318   7.924  12.263  0.0143  1.8151 -0.6241
66925SOL    HW212501   0.456   7.956  12.209  0.7832 -0.8112 -0.3351
66926SOL     OW12502   0.865   8.893   2.842  0.0070 -0.2248  0.4228
66926SOL    HW112503   0.836   8.973   2.798  0.3463 -0.0853  0.4464
66926SOL    HW212504   0.927   8.923   2.908  0.3521 -0.5323  0.2432
66927SOL     OW12505   2.695  13.263   9.811  0.3551 -0.0299  0.3058
66927SOL    HW112506   2.711  13.223   9.726  1.0039  0.6650  0.0955
66927SOL    HW212507   2.636  13.202   9.855 -2.4150  0.9675 -1.7409
66928SOL     OW12508   3.310   6.165  10.345 -0.9903 -0.1715  0.0223
66928SOL    HW112509   3.230   6.204  10.308 -0.6240  1.3140  0.7218
66928SOL    HW212510   3.363   6.240  10.370  0.6171 -1.1374 -0.3686
66929SOL     OW12511   0.631   8.806   9.650  0.4438 -0.0823  0.0028
66929SOL    HW112512   0.626   8.875   9.584  0.5798 -0.7319 -0.7088
66929SOL    HW212513   0.725   8.794   9.665  0.4892 -0.9996 -0.8645
66930SOL     OW12514   5.638   3.009  11.325  0.2616 -0.0199  0.0126
66930SOL    HW112515   5.587   3.018  11.405  1.6204  2.6659  0.7141
66930SOL    HW212516   5.729   3.015  11.355  0.7870  1.6849 -1.7389
66931SOL     OW12517   8.848   7.045   3.061 -0.3568 -0.3160  0.0551
66931SOL    HW112518   8.924   7.039   3.002 -1.8831 -1.7130 -1.9302
66931SOL    HW212519   8.847   6.960   3.106 -0.7753 -0.3224  0.0303
66932SOL     OW12520   9.990  13.559   7.478 -0.1952  0.3510  0.4705
66932SOL    HW112521   9.900  13.524   7.476 -0.5113  1.1295 -1.0534
66932SOL    HW212522   9.979  13.651   7.456  0.9946  0.4429  0.2443
66933SOL     OW12523   0.985   5.113  10.767  0.7200  0.1023 -0.2647
66933SOL    HW112524   0.978   5.206  10.745 -0.9885 -0.1626 -1.0160
66933SOL    HW212525   1.012   5.072  10.685 -0.4273 -0.2626 -0.4843
66934SOL     OW12526   7.519   1.625   3.578  0.0877 -0.0287  0.0739
66934SOL    HW112527   7.486   1.715   3.566  1.0953  0.2221 -0.9103
66934SOL    HW212528   7.613   1.636   3.590  0.3283 -1.0162 -0.8411
66935SOL     OW12529   8.371  12.334  10.848 -0.6238 -0.4649 -0.2827
66935SOL    HW112530   8.348  12.330  10.755  0.6002  0.9716 -0.6836
66935SOL    HW212531   8.459  12.370  10.850  0.2337 -2.4399  1.3696
66936SOL     OW12532  10.181   0.888   6.859 -0.2468  0.0220 -0.9051
66936SOL    HW112533  10.165   0.849   6.773  2.2130 -1.2354 -0.8903
66936SOL    HW212534  10.125   0.839   6.919  1.2346 -2.1745 -1.2118
66937SOL     OW12535   9.241  12.830  11.942  0.1856 -0.5268 -0.1529
66937SOL    HW112536   9.180  12.803  11.874 -0.4921 -1.1753  0.6961
66937SOL    HW212537   9.211  12.785  12.021  1.4090 -0.3886  0.4151
66938SOL     OW12538  11.870   3.718  10.166  0.6507 -0.3770 -0.1976
66938SOL    HW112539  11.851   3.811  10.158  1.4356 -0.2490 -0.5983
66938SOL    HW212540  11.895   3.706  10.258  2.0997  0.1007 -0.5191
66939SOL     OW12541   1.949  12.622  10.054  0.4623 -0.1481  0.3820
66939SOL    HW112542   2.027  12.589  10.100  2.4902  0.0399 -2.6127
66939SOL    HW212543   1.892  12.545  10.047  0.9136 -0.6191  1.5623
66940SOL     OW12544   2.286  11.575   1.156 -0.9008 -0.5176 -0.0063
66940SOL    HW112545   2.365  11.559   1.207 -2.1230 -2.2217  1.4793
66940SOL    HW212546   2.219  11.520   1.197 -3.4087  2.3520  0.1258
66941SOL     OW12547   1.560   3.383  11.316  0.2067 -0.3086 -0.6192
66941SOL    HW112548   1.505   3.425  11.383 -0.7283 -0.1060 -1.4855
66941SOL    HW212549   1.499   3.333  11.263  0.6449  0.8866 -2.3530
66942SOL     OW12550   4.013   2.874   9.765 -0.0260  0.0378  0.3060
66942SOL    HW112551   3.969   2.821   9.699 -0.7976 -0.4372  1.1681
66942SOL    HW212552   4.039   2.953   9.719 -0.4227 -0.3384 -0.5969
66943SOL     OW12553   9.176  10.529  10.700  0.1228 -0.8501 -0.4866
66943SOL    HW112554   9.189  10.438  10.726 -1.3497 -0.5486  1.4565
66943SOL    HW212555   9.195  10.580  10.778  1.1751  0.5756 -1.6145
66944SOL     OW12556   6.309   5.092  11.840 -0.8033  0.3182  0.0041
66944SOL    HW112557   6.330   5.144  11.762  0.0794  0.1855  0.1505
66944SOL    HW212558   6.388   5.095  11.893 -0.1650 -2.4150 -0.6398
66945SOL     OW12559   3.177   4.041   5.336 -0.4330 -0.5527  0.4457
66945SOL    HW112560   3.244   4.062   5.401 -1.4024 -0.6506  1.4993
66945SOL    HW212561   3.226   4.003   5.263  0.8805  1.2410  0.3361
66946SOL     OW12562   9.780  12.008   7.464 -0.6479 -0.6654 -0.2130
66946SOL    HW112563   9.720  12.017   7.390 -1.3970 -0.4344  0.4206
66946SOL    HW212564   9.843  12.080   7.452 -1.2215 -0.1544 -0.2081
66947SOL     OW12565  10.826   4.740  12.532  0.0839 -0.2079 -0.3391
66947SOL    HW112566  10.890   4.672  12.553 -0.5953 -0.7710 -0.0024
66947SOL    HW212567  10.808   4.728  12.439 -0.1026 -0.5564 -0.2601
66948SOL     OW12568   6.599   3.068   6.407 -0.1377  0.0912 -0.4483
66948SOL    HW112569   6.555   3.137   6.456 -0.7943 -1.7172  1.6830
66948SOL    HW212570   6.553   3.065   6.323 -1.3528  0.9832  0.1602
66949SOL     OW12571  12.193   6.774  11.289  0.0390  0.9656  0.1226
66949SOL    HW112572  12.101   6.749  11.292  0.3746 -0.5786 -1.1953
66949SOL    HW212573  12.202   6.823  11.207  0.8937 -1.3686 -1.2821
66950SOL     OW12574   8.719  11.494   5.909  0.0690  0.6502 -0.1173
66950SOL    HW112575   8.628  11.515   5.932  0.3683  3.3208 -1.0411
66950SOL    HW212576   8.716  11.477   5.815  0.2038 -1.6541  0.2504
66951SOL     OW12577   8.713   1.665   7.524 -0.2101 -0.0987  0.2560
66951SOL    HW112578   8.754   1.661   7.611  1.6764  0.8576 -0.5295
66951SOL    HW212579   8.693   1.573   7.503  2.8153 -0.8331  0.1686
66952SOL     OW12580   1.675  12.045   3.018  0.1732 -0.5979  0.1473
66952SOL    HW112581   1.586  12.062   2.987  0.5682 -0.9816 -1.3077
66952SOL    HW212582   1.695  11.957   2.985  0.7690 -0.8853  1.2376
66953SOL     OW12583  13.007   6.583   7.007  0.1644 -0.4945  0.0727
66953SOL    HW112584  12.932   6.540   6.966 -0.3147 -1.7497  2.1500
66953SOL    HW212585  13.004   6.556   7.098  2.3674  0.5528  0.5281
66954SOL     OW12586   2.618   1.178   3.785 -0.7374 -0.0782 -0.0592
66954SOL    HW112587   2.628   1.123   3.707 -2.1754  0.7637 -0.8740
66954SOL    HW212588   2.524   1.188   3.796 -0.5346  0.9138  1.0171
66955SOL     OW12589   0.261   6.128   4.414 -0.2985 -0.3723  0.2684
66955SOL    HW112590   0.167   6.109   4.404 -0.5333  1.0887 -0.7373
66955SOL    HW212591   0.263   6.203   4.474 -0.0804  1.7581 -2.2206
66956SOL     OW12592  12.019   4.842   6.922  0.7507 -0.0650  0.6067
66956SOL    HW112593  11.998   4.850   7.015 -1.0838 -1.1365  0.3529
66956SOL    HW212594  12.089   4.777   6.919  0.6411 -0.2253  1.2430
66957SOL     OW12595   6.785   2.096   9.037 -0.3267  0.0612  0.1334
66957SOL    HW112596   6.741   2.012   9.025  0.1484 -0.2926  0.7892
66957SOL    HW212597   6.871   2.073   9.072 -0.7418  0.8793  1.8082
66958SOL     OW12598  11.823  12.664   6.180 -0.8169  0.2508  0.8936
66958SOL    HW112599  11.764  12.596   6.147 -2.7860  0.4333  3.6131
66958SOL    HW212600  11.785  12.746   6.148  0.0764  0.2264 -0.2772
66959SOL     OW12601   5.995  11.952  13.203  0.1563 -0.9431 -0.2963
66959SOL    HW112602   6.002  11.995  13.118  0.6668 -0.7491 -0.1634
66959SOL    HW212603   5.955  11.867  13.184 -1.3187 -0.2335 -0.4928
66960SOL     OW12604   5.230   4.243  12.781 -0.0538  0.5757 -0.1284
66960SOL    HW112605   5.185   4.306  12.726 -0.4039  0.4501  0.0141
66960SOL    HW212606   5.166   4.219  12.848 -0.2945 -0.7738 -0.8319
66961SOL     OW12607   6.247   6.151  12.212  0.0799  0.3802  0.5093
66961SOL    HW112608   6.202   6.152  12.128  1.2214  0.3414 -0.1203
66961SOL    HW212609   6.324   6.096  12.197 -0.2314 -0.4594  1.8618
66962SOL     OW12610   9.216   3.682  10.077  0.2342 -0.3817  0.0982
66962SOL    HW112611   9.168   3.764  10.085 -1.8917 -1.5891  0.4336
66962SOL    HW212612   9.270   3.678  10.156 -0.0383  0.4409  0.3329
66963SOL     OW12613  10.352   3.220   9.086 -0.1872  0.1137  0.0093
66963SOL    HW112614  10.386   3.308   9.074 -0.3977  0.2166  0.1644
66963SOL    HW212615  10.358   3.204   9.181  0.0688 -0.1267 -0.0443
66964SOL     OW12616   0.569   7.276  13.180 -0.3636 -0.0297  0.5632
66964SOL    HW112617   0.578   7.182  13.195 -0.7833 -0.4642 -1.4922
66964SOL    HW212618   0.639   7.297  13.117 -0.2360  1.0505  1.0456
66965SOL     OW12619   2.677   6.949  10.656 -0.2380 -0.3693 -0.4171
66965SOL    HW112620   2.763   6.989  10.640 -0.3727  0.5361  0.9378
66965SOL    HW212621   2.630   7.013  10.709 -1.6000 -1.0514 -0.7475
66966SOL     OW12622  11.395   3.004   0.555  0.6270  0.3729 -0.0882
66966SOL    HW112623  11.453   2.983   0.481  0.9738 -2.6847  0.8940
66966SOL    HW212624  11.421   2.942   0.623 -1.2436  1.5409  1.7798
66967SOL     OW12625   1.315  13.274   2.269  0.1307  0.1268  0.2805
66967SOL    HW112626   1.383  13.220   2.228  0.7699  1.7399 -0.8874
66967SOL    HW212627   1.339  13.364   2.245 -2.0863  0.7841  0.3540
66968SOL     OW12628   0.159   1.108   6.354 -0.3084  0.2170  0.0293
66968SOL    HW112629   0.214   1.037   6.321 -1.3005 -0.2954 -0.5735
66968SOL    HW212630   0.163   1.175   6.285 -2.4024 -0.8647 -1.2428
66969SOL     OW12631   1.570   6.919   5.723  0.3936  0.2910  0.5737
66969SOL    HW112632   1.560   6.826   5.704  0.5266  0.3182  0.3719
66969SOL    HW212633   1.567   6.962   5.638  1.7602  0.3423  0.5413
66970SOL     OW12634   9.901   2.839   0.821  0.6195 -0.0611 -0.0367
66970SOL    HW112635   9.975   2.898   0.837 -0.0053  0.6254  0.3365
66970SOL    HW212636   9.883   2.848   0.727 -0.3346  1.3930  0.2504
66971SOL     OW12637   5.343   3.453   0.399 -0.3829  0.1901  0.7616
66971SOL    HW112638   5.402   3.429   0.470  0.7440  0.0798 -0.1858
66971SOL    HW212639   5.323   3.546   0.415  1.1365  0.6147  0.3727
66972SOL     OW12640   4.134  11.781   0.539  0.3106 -0.5301 -0.2737
66972SOL    HW112641   4.082  11.849   0.582 -2.0038 -1.3807 -1.5233
66972SOL    HW212642   4.224  11.799   0.566 -0.4851  1.5992  1.2872
66973SOL     OW12643  11.997   5.874   3.927  0.0749  0.5024 -0.1472
66973SOL    HW112644  11.985   5.812   3.999  0.6745  1.2177  0.5802
66973SOL    HW212645  11.914   5.920   3.920 -0.2430 -0.0955 -0.4317
66974SOL     OW12646  10.703   0.756   0.298  0.2024  0.4524  0.4013
66974SOL    HW112647  10.661   0.698   0.234 -0.6114 -0.3670  1.6416
66974SOL    HW212648  10.771   0.801   0.248 -1.4195  1.0029 -1.4176
66975SOL     OW12649  13.005   9.572   6.883 -0.2333 -0.1696 -0.0615
66975SOL    HW112650  13.003   9.476   6.884  2.1866 -0.2902  1.7509
66975SOL    HW212651  12.949   9.597   6.956 -2.2060 -0.0584 -1.5290
66976SOL     OW12652   2.887  12.919  11.800  0.0536 -0.0557 -0.5249
66976SOL    HW112653   2.910  12.973  11.724 -2.0172  0.7064 -0.6866
66976SOL    HW212654   2.841  12.844  11.762 -2.2738  1.0349 -0.0287
66977SOL     OW12655   4.203   1.606   5.937  0.2034  0.7117 -0.0124
66977SOL    HW112656   4.296   1.630   5.940  0.5405 -0.3108 -1.2998
66977SOL    HW212657   4.157   1.690   5.941  1.2343  1.3399 -0.6828
66978SOL     OW12658   1.952   2.423   9.431 -0.3902 -0.4511  0.0395
66978SOL    HW112659   1.975   2.460   9.345  0.8447 -2.8706 -0.7778
66978SOL    HW212660   1.931   2.499   9.485 -1.0609  1.1795 -2.3498
66979SOL     OW12661   0.389  13.502  10.117  0.1428  0.5177  0.1458
66979SOL    HW112662   0.322  13.570  10.125  0.4317  0.9639 -1.0759
66979SOL    HW212663   0.456  13.541  10.062  1.0457 -0.2152  0.6998
66980SOL     OW12664   8.135   5.742   6.169  0.6453 -0.2188 -0.0648
66980SOL    HW112665   8.189   5.779   6.099  0.9278  1.2539  0.8841
66980SOL    HW212666   8.099   5.662   6.132  2.0769 -0.3217 -1.3309
66981SOL     OW12667   5.919   2.041   8.788  0.1408 -0.0892  0.1371
66981SOL    HW112668   5.980   2.114   8.775  0.1531 -0.4231 -1.9732
66981SOL    HW212669   5.879   2.058   8.874 -0.5118  2.8995 -0.6510
66982SOL     OW12670   3.542  12.322  13.180  0.5837 -0.4754  0.2637
66982SOL    HW112671   3.473  12.286  13.124  0.1956  0.9568 -0.2105
66982SOL    HW212672   3.501  12.397  13.222  0.6206 -1.8853  3.0702
66983SOL     OW12673  11.507   8.388   5.078  0.6258  0.5976  0.1687
66983SOL    HW112674  11.576   8.324   5.065  1.1463  1.0839  0.4976
66983SOL    HW212675  11.550   8.473   5.065  0.8724  1.0949  3.4246
66984SOL     OW12676  10.723  11.628  12.873 -1.1596  0.4435  0.6521
66984SOL    HW112677  10.697  11.700  12.931 -0.5204 -0.2793  1.8758
66984SOL    HW212678  10.786  11.578  12.925 -1.5111 -0.9313 -0.2246
66985SOL     OW12679   8.908   8.099  12.465  0.2152 -0.5422  0.4627
66985SOL    HW112680   8.932   8.191  12.470 -0.9473  0.0681 -2.7934
66985SOL    HW212681   8.817   8.096  12.494  0.3385 -0.7042  0.8323
66986SOL     OW12682   8.846   2.065   4.755  0.1694  0.2460  0.1569
66986SOL    HW112683   8.867   1.995   4.693  0.9302  0.9446 -0.3941
66986SOL    HW212684   8.811   2.135   4.700  0.3136  0.6595  0.5848
66987SOL     OW12685   4.677   0.670   3.922  0.5456  0.0413  0.0312
66987SOL    HW112686   4.582   0.666   3.910  0.1247  0.6965  2.5292
66987SOL    HW212687   4.708   0.583   3.897 -0.7169 -0.2369 -0.6742
66988SOL     OW12688   6.290   8.788  10.448 -0.1652  0.0481  0.3646
66988SOL    HW112689   6.267   8.856  10.510  2.8508  2.1759 -0.6144
66988SOL    HW212690   6.327   8.834  10.374 -0.4099 -2.5760 -1.5355
66989SOL     OW12691   8.875   3.127   6.710 -0.6446  0.1772  0.1297
66989SOL    HW112692   8.813   3.186   6.753  1.4790  2.2118  0.5621
66989SOL    HW212693   8.908   3.072   6.780 -1.0818 -0.1282  0.1023
66990SOL     OW12694  11.465   3.452   4.030  0.6004 -0.2179 -0.3199
66990SOL    HW112695  11.453   3.527   4.089 -0.4867  0.3812 -1.2640
66990SOL    HW212696  11.432   3.377   4.080 -2.5029  0.6208 -0.9005
66991SOL     OW12697  12.151  13.433   2.831 -0.6382  0.0629 -0.0028
66991SOL    HW112698  12.150  13.338   2.837  1.3747  0.0340  0.5848
66991SOL    HW212699  12.221  13.460   2.890 -3.1569  2.1703  2.2899
66992SOL     OW12700   3.226   3.459   0.740  0.0894 -0.1945  0.6349
66992SOL    HW112701   3.207   3.420   0.825 -0.2108  0.3358  0.8139
66992SOL    HW212702   3.242   3.551   0.758  0.8749 -0.2400  0.2235
66993SOL     OW12703   1.695   7.176   5.267 -0.3988  0.1159 -0.1617
66993SOL    HW112704   1.767   7.142   5.320  0.2978  0.0500 -1.1274
66993SOL    HW212705   1.707   7.134   5.182 -2.7766 -1.5265  0.2048
66994SOL     OW12706   5.587  11.616   6.310  0.1509 -0.3438  0.0666
66994SOL    HW112707   5.596  11.521   6.304 -0.5341 -0.4603  0.6247
66994SOL    HW212708   5.496  11.629   6.339  0.1908  0.4868 -0.1521
66995SOL     OW12709  11.934   7.392  11.062 -0.6292 -0.4166 -0.1801
66995SOL    HW112710  11.986   7.369  11.139 -0.7119  0.6673  0.2272
66995SOL    HW212711  11.897   7.309  11.032 -1.3127 -0.7581  1.4897
66996SOL     OW12712  11.194   5.680   5.718  0.2179 -0.2390 -0.2485
66996SOL    HW112713  11.106   5.644   5.728  0.2125 -0.9553 -2.3811
66996SOL    HW212714  11.252   5.611   5.752 -0.0215  0.0060  0.6567
66997SOL     OW12715   9.414  12.793   2.968 -0.3580 -0.0032 -0.0530
66997SOL    HW112716   9.397  12.887   2.956 -1.1049 -0.2176 -0.8114
66997SOL    HW212717   9.506  12.788   2.994  0.3776  0.8034 -2.2383
66998SOL     OW12718   7.425   8.703   8.424 -0.1877  0.0668 -0.0676
66998SOL    HW112719   7.331   8.688   8.431 -0.2126  0.1760 -0.1696
66998SOL    HW212720   7.465   8.628   8.468 -0.2965 -0.7025 -1.2419
66999SOL     OW12721   4.436   8.763  10.161 -0.1787  0.5169 -0.5942
66999SOL    HW112722   4.496   8.714  10.104 -2.1831  1.2896 -3.6203
66999SOL    HW212723   4.369   8.699  10.186 -0.4403  0.6522 -0.9286
67000SOL     OW12724   3.981   3.966   8.151 -0.5618 -0.5109 -0.2517
67000SOL    HW112725   3.978   3.908   8.074  0.8862  0.2388 -0.9140
67000SOL    HW212726   3.986   4.054   8.113 -0.5355 -0.0876  0.7269
67001SOL     OW12727  11.400  10.570   6.663  0.3062  0.2446 -0.4798
67001SOL    HW112728  11.457  10.629   6.713  1.1489 -1.2913  0.4204
67001SOL    HW212729  11.455  10.537   6.593 -0.0455  0.1865 -0.7305
67002SOL     OW12730   9.748   5.330   5.885  0.0043 -0.1501 -0.4562
67002SOL    HW112731   9.687   5.282   5.828 -0.0006  1.1647 -1.6273
67002SOL    HW212732   9.748   5.419   5.849  2.4189 -0.0377 -0.3422
67003SOL     OW12733   7.682   2.377   4.571  0.0922 -0.2159  0.1353
67003SOL    HW112734   7.765   2.332   4.554 -0.0372  0.4379 -2.6762
67003SOL    HW212735   7.615   2.313   4.551 -0.1449 -0.5750  1.9029
67004SOL     OW12736   7.447   6.772   7.256 -0.1900  0.0197  0.4025
67004SOL    HW112737   7.395   6.810   7.327  1.2264 -2.0814  2.7479
67004SOL    HW212738   7.386   6.764   7.183 -2.1532  0.8830  1.8435
67005SOL     OW12739   8.002   6.949   5.293 -0.2967 -0.2163 -0.0986
67005SOL    HW112740   8.021   7.016   5.227 -0.6960  0.5414  0.5385
67005SOL    HW212741   7.948   6.885   5.248 -1.9298  1.0980 -0.1263
67006SOL     OW12742   3.225  13.327   5.156  0.8603 -0.1859  0.3684
67006SOL    HW112743   3.148  13.383   5.158  1.3060  0.4179  1.2226
67006SOL    HW212744   3.286  13.372   5.097  0.9174 -0.1735  0.4361
67007SOL     OW12745  10.851   3.006   6.071  0.1755 -0.3125  0.1871
67007SOL    HW112746  10.818   2.968   6.152  2.0318 -0.3208  0.9902
67007SOL    HW212747  10.773   3.042   6.028 -0.9718 -1.0673  1.5420
67008SOL     OW12748   0.393   2.459  12.577  0.5280 -0.3753 -0.3656
67008SOL    HW112749   0.323   2.410  12.533 -2.2665  2.3833  0.6449
67008SOL    HW212750   0.458   2.475  12.508 -0.4402 -1.9270 -1.6995
67009SOL     OW12751  11.832   9.664   0.097  0.1207 -0.4218  0.3202
67009SOL    HW112752  11.737   9.672   0.108  0.2158 -1.0469  1.9237
67009SOL    HW212753  11.847   9.569   0.095  0.9962 -0.4433  3.5966
67010SOL     OW12754   5.062   0.610   0.217 -0.3744  0.1219  0.2398
67010SOL    HW112755   5.029   0.673   0.282  0.3587  0.8068 -0.0261
67010SOL    HW212756   5.041   0.524   0.254 -0.2759  0.5032  1.2343
67011SOL     OW12757  10.524  10.655   9.935 -0.1832  0.0863  0.2868
67011SOL    HW112758  10.575  10.648  10.015  0.8600 -0.6476 -0.4248
67011SOL    HW212759  10.576  10.712   9.878 -1.7529  2.0964  0.7446
67012SOL     OW12760   5.709   9.505   6.943 -0.0688  0.1762  0.3122
67012SOL    HW112761   5.710   9.497   6.848  0.9992  2.5994  0.0507
67012SOL    HW212762   5.616   9.507   6.966 -0.3770  1.4217 -0.9066
67013SOL     OW12763   3.052   1.450  10.644 -0.5762  0.2656 -1.2301
67013SOL    HW112764   2.965   1.450  10.604 -1.1960 -1.5360 -0.0175
67013SOL    HW212765   3.036   1.423  10.735  1.1708  0.7075 -0.7678
67014SOL     OW12766  12.200   1.015   0.891  0.3381 -1.2866 -0.0230
67014SOL    HW112767  12.141   1.090   0.883  0.9038 -0.4612  2.6856
67014SOL    HW212768  12.285   1.048   0.863 -0.0288 -1.9778 -2.1787
67015SOL     OW12769   2.987   9.210   1.256 -0.6188 -0.4226  0.3788
67015SOL    HW112770   2.998   9.223   1.162  1.6073  1.4443  0.8081
67015SOL    HW212771   3.060   9.154   1.282  0.7969  1.7631  1.4179
67016SOL     OW12772   3.532  10.307   6.447  0.4210  0.2580 -0.1620
67016SOL    HW112773   3.625  10.316   6.427  0.4984 -1.1611 -0.5551
67016SOL    HW212774   3.512  10.215   6.429 -0.9718  0.4419  0.2912
67017SOL     OW12775   0.638   0.368   0.875 -0.1335  0.3448  0.2255
67017SOL    HW112776   0.589   0.432   0.824  1.4080  1.4691  0.0968
67017SOL    HW212777   0.574   0.299   0.894 -2.0074  2.1637  0.8801
67018SOL     OW12778   3.830   2.277   5.309  0.1549  0.1026  0.0475
67018SOL    HW112779   3.813   2.323   5.227  2.4020  0.9512 -0.0183
67018SOL    HW212780   3.772   2.201   5.307  0.6462 -0.2722 -2.6489
67019SOL     OW12781   9.024   3.360  11.294 -0.2481 -0.4120 -0.1204
67019SOL    HW112782   9.055   3.308  11.368  2.1617  2.1760  0.8711
67019SOL    HW212783   9.084   3.340  11.223  0.7269  0.9456  0.2821
67020SOL     OW12784  11.982   2.532  10.391 -0.3928  0.0551  0.2502
67020SOL    HW112785  11.887   2.524  10.401 -0.3075 -0.5612  0.6493
67020SOL    HW212786  12.011   2.582  10.467 -0.4142  0.3493  0.0634
67021SOL     OW12787  10.415   1.621  11.597 -0.3881 -0.3407 -0.0350
67021SOL    HW112788  10.353   1.672  11.546 -0.9939 -1.3435 -0.3123
67021SOL    HW212789  10.419   1.536  11.553  0.1376 -0.7444  0.7718
67022SOL     OW12790   2.948   9.639  11.169  0.1137  0.7041 -0.0105
67022SOL    HW112791   2.914   9.728  11.163 -2.2270 -0.1783 -0.8391
67022SOL    HW212792   2.955   9.623  11.263 -1.1112  1.1934  0.1845
67023SOL     OW12793   3.980   0.944   8.228  0.6939  0.1315  0.1169
67023SOL    HW112794   3.894   0.964   8.193  0.8693  0.0513 -0.3589
67023SOL    HW212795   3.965   0.928   8.321 -0.0713 -1.6297 -0.2851
67024SOL     OW12796   2.378  12.622   2.839  0.2763 -0.0036 -0.1124
67024SOL    HW112797   2.386  12.591   2.929 -0.0667 -0.6039 -0.2780
67024SOL    HW212798   2.293  12.590   2.810  0.4510  0.0411 -0.7014
67025SOL     OW12799   9.160   0.220  13.156  0.2551  0.3064 -0.4779
67025SOL    HW112800   9.107   0.157  13.205  1.5436  0.0622  0.6600
67025SOL    HW212801   9.242   0.224  13.204  0.3813  2.5259 -0.7704
67026SOL     OW12802  11.126   1.280   1.050 -0.0203  0.2116  0.3047
67026SOL    HW112803  11.081   1.209   1.005 -1.7271  1.4944 -0.1484
67026SOL    HW212804  11.081   1.287   1.134  1.0842 -0.1607  0.9334
67027SOL     OW12805   0.958   8.011   4.237  0.2943 -0.3446  0.3912
67027SOL    HW112806   0.897   7.938   4.244 -0.2108 -0.3359 -2.4352
67027SOL    HW212807   1.043   7.975   4.262 -0.1998 -1.4811  0.4851
67028SOL     OW12808   3.738  12.689  13.691  0.4894 -0.2248  0.5008
67028SOL    HW112809   3.730  12.744  13.612 -0.1105 -1.2361 -0.1686
67028SOL    HW212810   3.730  12.600  13.658  0.8367 -0.6876  1.6527
67029SOL     OW12811   2.233  11.347   9.346  0.2332 -0.0167  0.0066
67029SOL    HW112812   2.221  11.439   9.370  0.2718  0.3474 -1.2831
67029SOL    HW212813   2.154  11.303   9.379  0.1750  0.4868  0.5602
67030SOL     OW12814   6.060   7.822   8.892 -0.4659 -0.1621 -0.2761
67030SOL    HW112815   6.150   7.854   8.885 -0.3773 -0.4226 -0.3062
67030SOL    HW212816   6.061   7.763   8.967 -0.6203 -0.1404 -0.2566
67031SOL     OW12817  12.062  13.325   5.751 -0.4604 -0.3736  0.0248
67031SOL    HW112818  12.079  13.374   5.671 -1.0401 -1.6928 -0.9464
67031SOL    HW212819  12.138  13.343   5.807 -1.5626  3.1984  0.5889
67032SOL     OW12820  11.752  12.800   9.800  0.3366 -0.2125 -0.2902
67032SOL    HW112821  11.706  12.725   9.837 -1.2244  0.1233 -1.4367
67032SOL    HW212822  11.713  12.876   9.843 -0.3266  0.0825 -1.3525
67033SOL     OW12823   5.698  11.639  11.954 -0.1099 -0.3435 -0.3433
67033SOL    HW112824   5.751  11.708  11.915 -0.3354 -0.1133 -0.2441
67033SOL    HW212825   5.712  11.563  11.897  1.0032 -0.5438  0.1688
67034SOL     OW12826   7.791   8.763   7.488  0.0562  0.1146  0.5977
67034SOL    HW112827   7.716   8.776   7.545  0.2260  1.9726  0.4577
67034SOL    HW212828   7.768   8.808   7.407  1.9326  2.3146  1.1457
67035SOL     OW12829   2.429   7.661   4.963 -0.0285  0.2085 -0.4746
67035SOL    HW112830   2.488   7.719   5.011  0.2153 -0.7177  0.3817
67035SOL    HW212831   2.412   7.589   5.024 -0.8008 -0.3172 -1.2916
67036SOL     OW12832   0.032   4.005  12.660  1.2658 -0.1770 -0.2838
67036SOL    HW112833  -0.020   4.085  12.663  0.4121 -0.5592 -2.7276
67036SOL    HW212834   0.099   4.017  12.727  0.3451  1.9832  0.3179
67037SOL     OW12835   7.842   1.386   4.550 -0.2069  0.7104  0.5759
67037SOL    HW112836   7.793   1.308   4.578  0.2826  0.2251  0.1126
67037SOL    HW212837   7.792   1.459   4.586 -0.1174  0.1493  1.8986
67038SOL     OW12838   5.873   2.414   9.531 -0.5985 -0.2033  0.0738
67038SOL    HW112839   5.828   2.353   9.472 -2.1428  0.9036  0.0087
67038SOL    HW212840   5.859   2.500   9.490  0.1649  0.3516  0.9436
67039SOL     OW12841  10.002  12.319  11.253  0.3481  0.2394 -0.1029
67039SOL    HW112842  10.004  12.259  11.179 -1.5360 -0.4620  0.3602
67039SOL    HW212843   9.992  12.406  11.213  0.9117  0.0356 -0.7016
67040SOL     OW12844  13.556  11.868   5.935 -0.3146 -0.0621  0.0123
67040SOL    HW112845  13.566  11.960   5.910 -0.6872 -0.1503 -0.4845
67040SOL    HW212846  13.480  11.867   5.993 -0.4769 -0.0908 -0.1983
67041SOL     OW12847   6.320  12.594   0.066 -0.3731 -0.3842 -0.1299
67041SOL    HW112848   6.346  12.658  -0.001 -0.7862  0.1144  0.1753
67041SOL    HW212849   6.401  12.571   0.110 -0.3617  0.8805  0.5767
67042SOL     OW12850  13.152   3.708   3.829 -0.3037 -0.3103 -0.6536
67042SOL    HW112851  13.161   3.799   3.799  2.8527 -0.8571 -1.8000
67042SOL    HW212852  13.213   3.702   3.902 -3.2029 -0.6734  1.8920
67043SOL     OW12853   1.626  13.216  12.410 -0.0327 -0.1576  0.3198
67043SOL    HW112854   1.634  13.129  12.370  0.6290  0.1950 -0.3295
67043SOL    HW212855   1.598  13.273  12.339 -1.6038 -0.0257  1.0002
67044SOL     OW12856  10.205   6.779  11.722  0.4250 -0.2710  0.2158
67044SOL    HW112857  10.167   6.747  11.804  0.4915  0.6093  0.5975
67044SOL    HW212858  10.294   6.744  11.721  0.0539 -1.2382 -0.0419
67045SOL     OW12859   2.916   9.959   9.723  0.3051  0.3351  0.0629
67045SOL    HW112860   2.887   9.879   9.767 -0.5375 -0.1142 -1.2614
67045SOL    HW212861   2.982   9.929   9.660  0.3279  0.7489 -0.1135
67046SOL     OW12862   6.616   8.821   0.547  0.0995 -0.0232 -0.0429
67046SOL    HW112863   6.614   8.727   0.565  1.5264  0.1120  1.0037
67046SOL    HW212864   6.651   8.828   0.458  1.0626 -0.4646  0.2869
67047SOL     OW12865  12.441   5.496   6.430  0.3143  0.3064  0.8779
67047SOL    HW112866  12.412   5.407   6.447  1.4779 -0.6077 -1.5267
67047SOL    HW212867  12.537   5.491   6.427  0.3764  1.4859  0.0087
67048SOL     OW12868   5.693   0.178   0.159 -0.5374  0.0480  0.2334
67048SOL    HW112869   5.636   0.223   0.221 -1.2639  0.3415 -0.6102
67048SOL    HW212870   5.780   0.214   0.175 -0.7052  0.0641  1.1154
67049SOL     OW12871   2.959  10.157   7.097 -0.7059 -0.1930 -0.2764
67049SOL    HW112872   3.020  10.124   7.031 -0.8958  1.4506 -1.3394
67049SOL    HW212873   2.969  10.098   7.171  3.2971  0.8611  0.2124
67050SOL     OW12874   8.609   5.575   5.818 -0.4977 -0.1570 -0.0838
67050SOL    HW112875   8.662   5.521   5.760  0.7489  1.4875 -0.5758
67050SOL    HW212876   8.559   5.513   5.870 -0.1259 -1.7302 -1.5027
67051SOL     OW12877  10.305   0.268   1.487 -0.0818 -0.7723  0.3426
67051SOL    HW112878  10.316   0.294   1.396 -1.0419  1.0889  0.7172
67051SOL    HW212879  10.381   0.302   1.532  0.3164 -1.5607  0.2837
67052SOL     OW12880   4.148   3.921  13.127  0.4316  0.3502  0.3774
67052SOL    HW112881   4.166   3.939  13.035  1.1036 -1.0463  0.2065
67052SOL    HW212882   4.066   3.873  13.127 -0.1102  1.2470  0.6200
67053SOL     OW12883   0.812   5.564   6.934  0.0390  0.3763  0.2912
67053SOL    HW112884   0.753   5.547   7.007 -0.6835  0.8434 -0.1750
67053SOL    HW212885   0.755   5.570   6.857  0.7523  0.2314 -0.2599
67054SOL     OW12886   7.974   9.948   3.136  0.3310 -0.7359  0.0270
67054SOL    HW112887   7.888   9.918   3.107  0.9216 -0.5279 -2.0687
67054SOL    HW212888   7.955  10.015   3.202 -1.1135 -0.6947 -0.3997
67055SOL     OW12889   4.093  11.271  13.629  0.2105  0.3336  0.3221
67055SOL    HW112890   4.077  11.325  13.707 -1.5755  1.0992 -0.5219
67055SOL    HW212891   4.110  11.335  13.559  1.3757 -0.3330 -0.0260
67056SOL     OW12892   4.851   6.958   8.551  0.0636  0.3158  0.1895
67056SOL    HW112893   4.929   6.932   8.600  0.4990 -0.3545 -0.8322
67056SOL    HW212894   4.852   6.904   8.472 -1.8693 -0.2761  0.5048
67057SOL     OW12895   8.707   3.885  10.264  0.0798  0.3469 -0.0021
67057SOL    HW112896   8.635   3.855  10.319  0.7525  0.2965  0.8762
67057SOL    HW212897   8.691   3.845  10.179 -0.1921 -0.7790  0.5602
67058SOL     OW12898   9.064  12.616   2.059 -0.9257  0.4337  0.3636
67058SOL    HW112899   9.067  12.544   2.123 -3.0358 -0.7875 -0.7893
67058SOL    HW212900   9.069  12.572   1.974  1.5146  2.0009 -0.3943
67059SOL     OW12901   0.527   8.288   5.528  0.1403 -0.0240  0.2837
67059SOL    HW112902   0.619   8.283   5.503 -0.3436  0.0479 -1.5896
67059SOL    HW212903   0.498   8.197   5.531 -0.1427  0.0197 -0.8037
67060SOL     OW12904   5.450  10.076   2.182 -0.0386  0.5946  0.4153
67060SOL    HW112905   5.445  10.048   2.274  0.7873  0.1129  0.3249
67060SOL    HW212906   5.523  10.025   2.146 -1.2457 -0.2628 -0.8838
67061SOL     OW12907   8.382  11.096   8.773 -0.2225 -0.6392 -0.4933
67061SOL    HW112908   8.439  11.064   8.704  0.1858 -1.9296  0.4004
67061SOL    HW212909   8.430  11.168   8.813 -0.6365  0.3839 -1.7746
67062SOL     OW12910   3.027   9.342   7.637 -0.5119 -0.1449 -0.2968
67062SOL    HW112911   3.018   9.379   7.549 -0.6161 -1.1511 -0.7222
67062SOL    HW212912   3.067   9.412   7.688 -4.3011  2.1036 -0.0154
67063SOL     OW12913   7.993  10.487  10.428  0.2596 -0.6918  0.1628
67063SOL    HW112914   7.971  10.424  10.359  0.8255 -1.9077  1.0609
67063SOL    HW212915   7.910  10.505  10.471 -0.2348  0.6437 -1.2569
67064SOL     OW12916   2.177  13.405   3.465 -0.3407  0.2310 -0.5327
67064SOL    HW112917   2.260  13.358   3.466  0.5191  1.6920 -0.3158
67064SOL    HW212918   2.130  13.369   3.390 -0.5595 -2.2827  0.6900
67065SOL     OW12919  12.388  12.697   3.126  0.1797 -0.2683  0.1327
67065SOL    HW112920  12.359  12.630   3.187  3.2208  0.1366  2.2247
67065SOL    HW212921  12.424  12.648   3.052  0.6621 -0.9316  0.7931
67066SOL     OW12922   5.350   4.212   9.204 -0.4922  0.2033 -0.0320
67066SOL    HW112923   5.264   4.171   9.220  0.3201 -1.2933  0.7024
67066SOL    HW212924   5.409   4.167   9.265  0.9702  0.6780 -1.0644
67067SOL     OW12925   7.366  11.281   7.423 -0.1374  0.3301 -0.0063
67067SOL    HW112926   7.275  11.257   7.441  0.2381 -0.6823  0.6384
67067SOL    HW212927   7.417  11.230   7.486  0.8323  1.5251  0.2104
67068SOL     OW12928  12.775   8.111  13.510  0.1187  0.8479 -0.2256
67068SOL    HW112929  12.785   8.041  13.574  1.6794 -0.4949 -1.8421
67068SOL    HW212930  12.686   8.100  13.476  0.3192 -0.3050 -0.4038
67069SOL     OW12931   6.608   2.606   4.705  0.0237 -0.0962 -0.1012
67069SOL    HW112932   6.605   2.510   4.712 -2.1061  0.0177  3.0836
67069SOL    HW212933   6.530   2.629   4.655 -1.8110 -0.0384  2.5661
67070SOL     OW12934  12.694   8.664  10.540 -0.8537  0.3562 -0.4462
67070SOL    HW112935  12.626   8.659  10.607 -0.7685 -4.0183 -0.3564
67070SOL    HW212936  12.763   8.605  10.571  1.7538  2.3885 -1.9081
67071SOL     OW12937  10.145   9.961   8.154 -0.2707  0.3708 -0.1916
67071SOL    HW112938  10.114   9.871   8.156 -0.8799  0.5834  0.7022
67071SOL    HW212939  10.068  10.013   8.177  0.0714  1.1250 -0.7190
67072SOL     OW12940   1.415   1.407   5.712 -0.0642  0.2947  0.1183
67072SOL    HW112941   1.426   1.341   5.644 -1.7251  1.3492 -1.2644
67072SOL    HW212942   1.500   1.451   5.718  0.0604  0.3004 -1.4345
67073SOL     OW12943   3.644   2.260   8.886 -0.2391  0.1826  0.1728
67073SOL    HW112944   3.665   2.179   8.933  1.0919  1.0496  1.1272
67073SOL    HW212945   3.588   2.309   8.945 -0.9118  0.0432 -0.3396
67074SOL     OW12946   7.119   6.671   5.749 -0.0191  0.5324 -0.8880
67074SOL    HW112947   7.182   6.700   5.683  0.4266 -0.7937 -1.0711
67074SOL    HW212948   7.171   6.620   5.812  0.4919  5.2259  3.0640
67075SOL     OW12949   5.830   8.022  13.124  0.5475 -0.4522  0.1659
67075SOL    HW112950   5.883   8.098  13.152 -0.0757 -0.2943  0.9650
67075SOL    HW212951   5.841   8.019  13.029  1.1963  0.1778  0.2072
67076SOL     OW12952  10.216   5.205  12.492 -1.0541  0.0595  0.1553
67076SOL    HW112953  10.185   5.295  12.480 -0.4193  0.4073  1.0125
67076SOL    HW212954  10.183   5.180  12.579 -0.2071 -0.0996  0.4385
67077SOL     OW12955   9.284  11.929   3.517 -0.4645  0.2642 -0.3176
67077SOL    HW112956   9.303  11.928   3.423  0.6253  1.3716 -0.1376
67077SOL    HW212957   9.261  11.839   3.538  2.1980 -0.6920 -1.1100
67078SOL     OW12958  12.719   1.158   1.597  0.0307  0.1612  0.0654
67078SOL    HW112959  12.695   1.092   1.662 -1.7939  0.1897 -0.5137
67078SOL    HW212960  12.723   1.110   1.515  0.3714  0.4798 -0.1075
67079SOL     OW12961   2.396   1.062   4.936 -0.8082  0.1934 -0.1396
67079SOL    HW112962   2.320   1.068   4.993 -0.5218  0.0975  0.2646
67079SOL    HW212963   2.432   0.974   4.953 -0.7503  0.1408 -0.5111
67080SOL     OW12964   7.211  12.150   9.665 -0.0391  0.4264 -0.1831
67080SOL    HW112965   7.202  12.204   9.587  0.0547 -1.3986 -1.5143
67080SOL    HW212966   7.123  12.120   9.684  0.0677  0.1820 -0.0759
67081SOL     OW12967   2.382   6.518   0.464  0.4764  0.4333  0.2992
67081SOL    HW112968   2.414   6.452   0.526 -1.4205  0.0950  1.0104
67081SOL    HW212969   2.293   6.489   0.444  0.8179  0.8850 -2.1412
67082SOL     OW12970   7.580   3.584  12.095 -0.2671  0.3595  0.6085
67082SOL    HW112971   7.594   3.530  12.018 -0.9671  1.2984 -0.1972
67082SOL    HW212972   7.609   3.529  12.168 -0.0771 -0.7354 -0.2622
67083SOL     OW12973   1.458  12.691   4.928  0.0273  0.0956  0.1578
67083SOL    HW112974   1.455  12.596   4.942  2.6916 -0.1823 -0.4881
67083SOL    HW212975   1.431  12.729   5.012  0.5095 -1.2857  0.9716
67084SOL     OW12976   8.493   6.686  13.292  0.0531 -0.0929  0.3327
67084SOL    HW112977   8.442   6.702  13.213  0.5203 -1.3092 -0.2414
67084SOL    HW212978   8.433   6.639  13.350  0.4015 -1.3131 -0.2516
67085SOL     OW12979   5.742  12.276  11.753  0.0329  0.8708 -0.1511
67085SOL    HW112980   5.816  12.265  11.813  0.0517 -0.8186 -0.4316
67085SOL    HW212981   5.770  12.231  11.673 -0.8480  1.2080 -0.6548
67086SOL     OW12982   0.636  10.452  10.514 -0.4669  0.2404 -0.2621
67086SOL    HW112983   0.723  10.414  10.529 -0.6108 -0.0941 -0.2758
67086SOL    HW212984   0.624  10.448  10.419  0.0763  1.5583 -0.4105
67087SOL     OW12985   8.337  13.569   0.718  0.4355 -0.0815  0.2278
67087SOL    HW112986   8.342  13.634   0.788 -0.1960 -0.5554  0.7342
67087SOL    HW212987   8.272  13.605   0.657  1.3972  0.6009 -0.4265
67088SOL     OW12988   7.564   9.572   9.958  0.2154 -0.0474 -0.3704
67088SOL    HW112989   7.508   9.504   9.995 -2.6473 -0.1790 -4.2539
67088SOL    HW212990   7.590   9.625  10.033 -4.5257 -0.4917  2.0128
67089SOL     OW12991  10.427   2.850   0.995 -0.2440 -0.7301  0.2360
67089SOL    HW112992  10.442   2.809   1.080 -1.1529 -0.6951  0.4163
67089SOL    HW212993  10.514   2.881   0.968  0.2549 -1.7673  0.6080
67090SOL     OW12994   3.188   6.983   0.317 -0.0099 -0.1563  0.3073
67090SOL    HW112995   3.235   7.060   0.286  0.9605 -0.7459  0.2688
67090SOL    HW212996   3.161   7.006   0.406  1.6475 -0.3269  0.8849
67091SOL     OW12997   9.274   4.743  13.615 -0.1748 -0.1064 -0.3902
67091SOL    HW112998   9.240   4.670  13.564 -1.2970  0.4549 -0.4643
67091SOL    HW212999   9.285   4.814  13.552 -0.7939  0.3393 -0.0033
67092SOL     OW13000  10.071   0.218   5.102  0.2521  0.0092 -0.2791
67092SOL    HW113001  10.008   0.201   5.032 -0.9206  2.5590  0.0562
67092SOL    HW213002  10.115   0.299   5.076  1.5224 -0.3045  0.7969
67093SOL     OW13003  11.205  12.157   5.405  0.8712  0.3765 -0.5899
67093SOL    HW113004  11.187  12.175   5.498  0.3175  2.7237 -1.0908
67093SOL    HW213005  11.296  12.128   5.403  1.0851  0.9033  0.6259
67094SOL     OW13006   4.641   6.413   1.019 -0.0566 -0.3705 -0.2361
67094SOL    HW113007   4.582   6.339   1.005 -3.1075  1.7474  0.4244
67094SOL    HW213008   4.684   6.394   1.102 -0.7642 -1.4090 -0.0848
67095SOL     OW13009   0.269  10.565   5.883  0.1865 -0.0462 -0.7454
67095SOL    HW113010   0.362  10.562   5.859 -0.0919 -3.8673 -1.9714
67095SOL    HW213011   0.226  10.602   5.806  0.5709  0.7233 -0.6004
67096SOL     OW13012   1.974  11.605  10.806 -0.5360 -0.1363  0.2541
67096SOL    HW113013   2.011  11.679  10.855  0.2711  1.7669 -2.8999
67096SOL    HW213014   2.047  11.575  10.751 -1.9297 -0.5137 -1.4885
67097SOL     OW13015   4.705   6.111  12.118  0.0679 -0.0345  0.1649
67097SOL    HW113016   4.656   6.113  12.201  0.3051  2.0177  0.3040
67097SOL    HW213017   4.649   6.060  12.059 -1.1399  0.2931  0.9845
67098SOL     OW13018   2.920   1.010   8.218 -0.5345  0.9005 -0.2995
67098SOL    HW113019   2.918   0.914   8.210 -1.6653  0.7705  1.0556
67098SOL    HW213020   3.013   1.030   8.231 -0.0366  0.2054 -2.3874
67099SOL     OW13021   8.544   5.015   5.310 -0.0572 -0.1435  0.2770
67099SOL    HW113022   8.562   4.987   5.220  2.2223  0.1232  0.5849
67099SOL    HW213023   8.529   5.109   5.303  2.0423  0.2452  0.3383
67100SOL     OW13024   7.685   9.897   3.335 -0.0292 -0.0013 -0.3058
67100SOL    HW113025   7.692   9.913   3.429  1.5957  0.4899 -0.4859
67100SOL    HW213026   7.750   9.829   3.318 -2.0445 -1.9467 -0.6998
67101SOL     OW13027   6.043   5.301   3.188 -0.0327 -0.3837  0.0435
67101SOL    HW113028   6.121   5.343   3.152  0.0949 -0.1240  0.6219
67101SOL    HW213029   6.076   5.221   3.230 -0.2778 -1.1034 -1.0809
67102SOL     OW13030   9.334   1.563   1.604 -0.1682  0.6256  0.2347
67102SOL    HW113031   9.289   1.561   1.519 -0.5335 -1.3664  0.4124
67102SOL    HW213032   9.265   1.577   1.668 -0.4682 -1.3591  0.4222
67103SOL     OW13033   2.672   7.142   6.291  0.1153 -0.0833 -0.2011
67103SOL    HW113034   2.643   7.200   6.220 -1.7863  0.8693  1.2357
67103SOL    HW213035   2.691   7.059   6.248 -1.4216  0.3168 -1.7855
67104SOL     OW13036  10.874  13.364  12.313  0.7677  0.1045 -0.5112
67104SOL    HW113037  10.948  13.318  12.353 -0.6267 -2.0797 -0.2551
67104SOL    HW213038  10.811  13.374  12.384 -1.0015 -2.2156 -1.5937
67105SOL     OW13039  12.951   8.301  11.191  0.2700  0.2156 -0.2691
67105SOL    HW113040  12.884   8.364  11.164 -0.5094 -0.1856  0.6605
67105SOL    HW213041  12.929   8.220  11.146  0.5757  0.2794 -0.5401
67106SOL     OW13042   8.143  10.227   9.012 -0.6526 -0.2161 -0.0910
67106SOL    HW113043   8.143  10.179   8.928 -0.0260  0.7176 -0.6401
67106SOL    HW213044   8.078  10.296   9.000 -0.7528 -0.2427  0.2969
67107SOL     OW13045  11.135   1.760  11.391  0.1236  0.3841  0.1663
67107SOL    HW113046  11.052   1.763  11.343  0.4420  1.8594 -0.3410
67107SOL    HW213047  11.156   1.667  11.397 -2.2216 -0.1327  1.4917
67108SOL     OW13048   6.187   8.076   4.270 -0.4129  0.1042  0.0455
67108SOL    HW113049   6.259   8.020   4.240  0.2171  1.1523 -0.4708
67108SOL    HW213050   6.185   8.064   4.365  0.5039  0.1084  0.0782
67109SOL     OW13051   7.679  12.893   4.467 -0.1801 -0.1814 -0.3581
67109SOL    HW113052   7.735  12.823   4.434  0.6646  1.0332 -1.5785
67109SOL    HW213053   7.618  12.910   4.396 -0.2931  0.4205 -0.1219
67110SOL     OW13054   1.334   3.251   7.977  0.2565  0.1823 -0.0066
67110SOL    HW113055   1.261   3.224   7.921 -1.4031  3.0163  0.5699
67110SOL    HW213056   1.311   3.218   8.063 -0.7058  1.5082  0.2819
67111SOL     OW13057  12.602   6.727  10.221 -0.3474  0.0241  0.2089
67111SOL    HW113058  12.629   6.806  10.268  0.3683 -0.2865  0.3373
67111SOL    HW213059  12.555   6.760  10.144  0.4101  0.5866 -0.0239
67112SOL     OW13060   6.501   5.022   9.436  0.2564 -0.3174  0.3979
67112SOL    HW113061   6.500   4.941   9.386  1.0060 -1.0372  1.5044
67112SOL    HW213062   6.409   5.050   9.439  0.0643 -0.8466 -0.4254
67113SOL     OW13063   9.569   2.524  12.780 -0.2440 -0.1651  0.0252
67113SOL    HW113064   9.531   2.462  12.718 -0.1044 -0.8121  0.5786
67113SOL    HW213065   9.538   2.609  12.750  0.9826 -0.2844 -1.8222
67114SOL     OW13066   6.556   9.024   7.030  0.3028 -0.1674  0.1054
67114SOL    HW113067   6.497   9.094   7.002 -1.3018  0.0154  3.4477
67114SOL    HW213068   6.643   9.062   7.026  0.0925  0.2261 -3.0294
67115SOL     OW13069   8.285   9.346   3.886 -0.3697 -0.5578  0.3559
67115SOL    HW113070   8.220   9.305   3.829 -0.1315  0.2342 -0.5142
67115SOL    HW213071   8.321   9.274   3.938  0.0914 -1.4811 -1.1856
67116SOL     OW13072  13.431  13.706   1.476  0.0904 -0.1555  0.1919
67116SOL    HW113073  13.412  13.777   1.538 -2.0732 -0.5019  0.0021
67116SOL    HW213074  13.468  13.751   1.400 -0.4991  0.7049  0.3916
67117SOL     OW13075   0.965   7.573   8.632  0.5386  0.0293  0.0260
67117SOL    HW113076   0.935   7.586   8.542 -1.1547 -0.3316  0.4995
67117SOL    HW213077   0.948   7.480   8.649  1.5237 -0.0766  0.5046
67118SOL     OW13078   1.481   6.963   3.033 -0.5029 -0.2053 -0.2484
67118SOL    HW113079   1.391   6.946   3.004 -0.5189  1.0407 -0.9800
67118SOL    HW213080   1.474   7.040   3.088  0.4941  1.9172 -2.8800
67119SOL     OW13081   0.596  13.404   3.263  0.0516 -0.0092  0.0140
67119SOL    HW113082   0.549  13.356   3.332  1.1748 -0.0120  0.8158
67119SOL    HW213083   0.678  13.430   3.305  0.7659 -0.0119 -1.3406
67120SOL     OW13084  13.482   3.022   3.424  0.2319 -0.2102  0.3382
67120SOL    HW113085  13.427   3.070   3.486  1.7632 -1.0131  2.4601
67120SOL    HW213086  13.510   3.088   3.361  1.2805  1.4701  2.4385
67121SOL     OW13087  13.100   8.980   4.120  0.0773  0.0252 -0.1443
67121SOL    HW113088  13.078   9.049   4.182 -0.0692 -0.9355  0.8960
67121SOL    HW213089  13.043   8.907   4.144  0.3189 -0.5125 -1.1379
67122SOL     OW13090   2.962   7.425   3.313 -0.1488 -0.0893 -0.1088
67122SOL    HW113091   3.019   7.494   3.346 -0.5113  0.1528  0.0220
67122SOL    HW213092   2.904   7.470   3.252 -0.2636 -0.3128 -0.1626
67123SOL     OW13093   8.047   1.370  12.880  0.5240  0.0109 -0.6182
67123SOL    HW113094   8.004   1.341  12.961  0.8470 -0.6147 -0.6585
67123SOL    HW213095   8.002   1.322  12.811 -0.2037  1.0561 -0.8855
67124SOL     OW13096   8.493   3.401  12.583 -0.5174 -0.0196 -0.0519
67124SOL    HW113097   8.411   3.362  12.555  0.1540  0.1668 -2.5376
67124SOL    HW213098   8.485   3.494  12.558  1.2511 -0.4371 -2.5956
67125SOL     OW13099   0.928   2.357   0.365  0.1676 -0.1708  0.3254
67125SOL    HW113100   1.017   2.370   0.395  1.8515 -3.3426 -2.5533
67125SOL    HW213101   0.917   2.262   0.364 -2.7015  0.0619 -0.8576
67126SOL     OW13102  12.414   5.760  12.802 -0.1448 -0.5747  0.0311
67126SOL    HW113103  12.507   5.745  12.822 -0.9179 -2.6642  2.7871
67126SOL    HW213104  12.405   5.855  12.801  1.3659 -0.1851  4.0615
67127SOL     OW13105   1.634   9.067   1.497  0.0536 -0.0930  0.4640
67127SOL    HW113106   1.630   9.007   1.571  1.1851 -0.3869  0.3099
67127SOL    HW213107   1.721   9.052   1.458 -0.1397  0.7365 -0.3376
67128SOL     OW13108  11.063   5.026   1.220  0.2307 -0.1162  0.3799
67128SOL    HW113109  11.151   5.014   1.184  0.3092 -1.2403  0.8950
67128SOL    HW213110  11.047   4.946   1.271 -1.6763 -0.6468 -0.9340
67129SOL     OW13111   2.138  11.110   0.747 -0.2332  0.0185 -0.7978
67129SOL    HW113112   2.128  11.015   0.749 -3.8247  0.2933  0.0193
67129SOL    HW213113   2.192  11.130   0.823 -0.4444 -1.2973 -0.2843
67130SOL     OW13114   5.138   3.856  10.966  0.5326 -0.5016 -0.3345
67130SOL    HW113115   5.165   3.946  10.948  1.5171 -0.7469 -0.1213
67130SOL    HW213116   5.208   3.820  11.019 -2.5830  0.5021  5.2123
67131SOL     OW13117  12.246  11.026   8.017 -0.5060 -0.0568 -0.0781
67131SOL    HW113118  12.171  10.973   8.046 -1.1006 -1.1101 -3.2364
67131SOL    HW213119  12.234  11.109   8.064 -3.6972 -0.1712 -0.4272
67132SOL     OW13120  13.342  11.484   2.427  0.3051 -0.2395 -0.1363
67132SOL    HW113121  13.367  11.414   2.488 -0.9474 -0.8658 -0.3155
67132SOL    HW213122  13.404  11.475   2.355 -0.8962 -2.3788 -1.0251
67133SOL     OW13123  10.704   2.433  12.457 -0.1509 -0.2768 -0.3429
67133SOL    HW113124  10.769   2.488  12.414  0.4804  0.0950  1.0286
67133SOL    HW213125  10.624   2.446  12.407  0.8459 -0.8867 -2.1722
67134SOL     OW13126   4.484   9.639  10.402 -0.6517 -0.7280  0.6145
67134SOL    HW113127   4.458   9.658  10.492  0.5258  0.2901  0.7720
67134SOL    HW213128   4.502   9.545  10.401 -0.2234 -0.6684  1.5779
67135SOL     OW13129   4.373  10.207   1.091  0.1712  0.0241  0.9098
67135SOL    HW113130   4.417  10.180   1.171  2.3367  0.3412 -0.1151
67135SOL    HW213131   4.414  10.156   1.021  0.4672  1.8578 -0.3492
67136SOL     OW13132   6.567   4.638  10.303 -0.3743 -0.2875  0.5788
67136SOL    HW113133   6.559   4.683  10.219 -0.5685 -0.5037  0.4794
67136SOL    HW213134   6.644   4.678  10.344 -0.8991  0.5612  0.7585
67137SOL     OW13135  12.328   6.777   4.327 -0.3241  0.4573 -0.1944
67137SOL    HW113136  12.370   6.860   4.349  2.1526 -0.8283  0.3439
67137SOL    HW213137  12.359   6.756   4.239 -0.3601 -0.2020 -0.0588
67138SOL     OW13138   1.448   0.557   3.911  0.2857 -0.6263  0.1196
67138SOL    HW113139   1.512   0.593   3.972  0.0747 -0.2418  0.1223
67138SOL    HW213140   1.407   0.635   3.872 -0.4755 -0.8671  0.4337
67139SOL     OW13141  13.045   6.588   4.583  0.2636 -0.0033 -0.2061
67139SOL    HW113142  12.951   6.585   4.564  0.0314 -1.1873  1.0240
67139SOL    HW213143  13.057   6.532   4.659  2.2373 -1.4097 -1.4430
67140SOL     OW13144   6.371   5.890  11.026 -0.3820 -0.4631  0.1076
67140SOL    HW113145   6.347   5.864  10.937  0.2931 -0.6820 -0.0169
67140SOL    HW213146   6.433   5.823  11.055 -0.8066 -0.5438  0.8468
67141SOL     OW13147  13.315  12.304   7.376 -0.4169  0.3740 -0.6174
67141SOL    HW113148  13.305  12.396   7.401 -0.3644  0.4411 -0.8359
67141SOL    HW213149  13.264  12.296   7.296 -1.1396  0.0013 -0.1258
67142SOL     OW13150   8.842   1.455  13.664  0.2590  0.4038  0.2687
67142SOL    HW113151   8.884   1.521  13.608  1.1314 -0.3454  0.0198
67142SOL    HW213152   8.750   1.458  13.638  0.3952  1.0778 -0.1907
67143SOL     OW13153   6.027  11.869   5.573 -0.3894  0.2469  0.4704
67143SOL    HW113154   5.935  11.895   5.580 -0.6614 -0.1765 -1.0315
67143SOL    HW213155   6.025  11.773   5.580 -0.4566 -0.0326 -2.2677
67144SOL     OW13156   7.793  11.800   0.523  0.3349 -0.5775  0.4187
67144SOL    HW113157   7.701  11.782   0.505  0.6757 -1.8373 -0.1739
67144SOL    HW213158   7.800  11.896   0.522 -0.7287 -0.4999 -0.7624
67145SOL     OW13159   2.900  10.815   6.827  0.0358 -0.5785 -0.1265
67145SOL    HW113160   2.984  10.830   6.871 -1.7937 -0.0982  3.6551
67145SOL    HW213161   2.882  10.722   6.841 -0.4587 -0.4857 -0.1493
67146SOL     OW13162   7.224  13.719   2.490  0.4590 -0.2529  0.0104
67146SOL    HW113163   7.299  13.674   2.451  0.7877 -1.0061  1.4769
67146SOL    HW213164   7.222  13.690   2.581  0.9251  2.9916  1.1948
67147SOL     OW13165  12.775   3.880   6.845 -0.3206  0.5870 -0.3257
67147SOL    HW113166  12.866   3.872   6.817  0.0212  0.6180  0.7456
67147SOL    HW213167  12.780   3.905   6.937 -1.4119  1.4198 -0.4740
67148SOL     OW13168  12.867   2.546  10.033  0.0750 -0.0727  0.2421
67148SOL    HW113169  12.817   2.605   9.976  1.6774 -0.5406 -1.7424
67148SOL    HW213170  12.935   2.601  10.071  0.6058 -0.2831 -0.3809
67149SOL     OW13171  13.054   7.941   5.322  0.2939 -0.0199 -0.1157
67149SOL    HW113172  13.081   7.931   5.414 -0.2524  0.0174  0.0551
67149SOL    HW213173  13.043   7.851   5.291 -1.0683 -0.0335  0.3373
67150SOL     OW13174   1.046   3.893   8.627  0.0584  0.1280 -0.4058
67150SOL    HW113175   0.951   3.884   8.631 -0.0632 -0.2614 -2.9660
67150SOL    HW213176   1.074   3.823   8.569  2.1394 -0.7971  1.5538
67151SOL     OW13177   7.450  10.063   5.536  0.0560  0.0277 -0.1690
67151SOL    HW113178   7.426  10.043   5.627 -0.6809 -0.1235 -0.3903
67151SOL    HW213179   7.380  10.024   5.484  0.3655  0.2991 -0.7920
67152SOL     OW13180   2.967   6.341  11.016 -0.3901  0.5262  0.2623
67152SOL    HW113181   2.944   6.355  10.924  1.3046  1.8125 -0.0230
67152SOL    HW213182   3.044   6.396  11.030  1.0623 -1.7225  1.7344
67153SOL     OW13183   2.217  13.698   8.422 -0.1730  0.4955  0.1563
67153SOL    HW113184   2.153  13.702   8.493  0.2900 -0.0573  0.6295
67153SOL    HW213185   2.301  13.716   8.466  0.3044 -1.2564  0.0477
67154SOL     OW13186  13.585  10.816   8.818 -0.4422  0.2623  0.4130
67154SOL    HW113187  13.665  10.837   8.769 -0.8555 -0.1057 -0.4369
67154SOL    HW213188  13.593  10.865   8.900  0.2765  0.8656 -0.0132
67155SOL     OW13189   1.876  10.934   4.364  0.4468 -0.0048  0.2967
67155SOL    HW113190   1.949  10.993   4.344 -0.0946  0.9478  1.0088
67155SOL    HW213191   1.905  10.885   4.440  1.1045 -1.0581 -0.6107
67156SOL     OW13192   6.233  11.734  10.526  0.5711  0.4450 -0.0191
67156SOL    HW113193   6.270  11.772  10.606  1.4399 -1.1890  0.4175
67156SOL    HW213194   6.139  11.727  10.543  0.8778 -0.8728  1.3324
67157SOL     OW13195  11.186  10.314   4.459  0.0548 -0.2558  0.5804
67157SOL    HW113196  11.169  10.355   4.374 -0.5868 -0.7767  0.4444
67157SOL    HW213197  11.281  10.314   4.468  0.2218 -1.4449 -0.7939
67158SOL     OW13198   5.720   4.094  10.554  0.0794  0.0093  0.0449
67158SOL    HW113199   5.718   4.189  10.568  0.3381 -0.0273  0.3542
67158SOL    HW213200   5.630   4.065  10.571 -0.1529  0.2817 -0.6869
67159SOL     OW13201   8.876   7.993   5.306  0.2329  0.0244  0.4683
67159SOL    HW113202   8.783   7.968   5.307  0.2352  0.0211  0.5630
67159SOL    HW213203   8.886   8.051   5.381  0.3885 -0.2737  0.6810
67160SOL     OW13204  10.406   2.129   0.510 -0.4176  0.1345 -0.2164
67160SOL    HW113205  10.331   2.085   0.550 -1.4346  0.8896 -1.2279
67160SOL    HW213206  10.373   2.160   0.426  0.8082  1.1990 -0.3250
67161SOL     OW13207   5.241   8.154   8.469 -0.1304  0.0518  0.3194
67161SOL    HW113208   5.172   8.187   8.411  2.1085  1.1334 -1.8891
67161SOL    HW213209   5.201   8.077   8.511 -2.0914 -0.4650 -2.2245
67162SOL     OW13210  11.321  12.528   7.902 -0.7154 -0.1640 -0.1181
67162SOL    HW113211  11.377  12.557   7.974 -1.6898  0.7642  0.2925
67162SOL    HW213212  11.294  12.439   7.927  1.3448 -1.0763 -0.8227
67163SOL     OW13213  12.249   3.352  13.702  0.1973 -0.4952  0.2295
67163SOL    HW113214  12.339   3.351  13.734  0.7184 -0.4150 -1.1759
67163SOL    HW213215  12.216   3.264  13.722  0.4359 -0.3918  1.1307
67164SOL     OW13216   9.434   4.863  11.439  0.1221 -0.5871 -0.1987
67164SOL    HW113217   9.430   4.916  11.519 -0.7929  0.9933 -1.2381
67164SOL    HW213218   9.525   4.869  11.411 -0.1276  1.2018 -0.7486
67165SOL     OW13219   0.309   4.690   5.537 -0.2482  0.6998 -0.4908
67165SOL    HW113220   0.336   4.699   5.445  0.2614  2.1346 -0.2167
67165SOL    HW213221   0.390   4.701   5.587 -0.5095 -0.1738  0.1428
67166SOL     OW13222   2.506   5.449   0.575  0.1042 -0.0249  0.2920
67166SOL    HW113223   2.534   5.410   0.658 -1.0371 -1.0478  0.2191
67166SOL    HW213224   2.586   5.488   0.539  0.9275 -0.8415  1.1729
67167SOL     OW13225  10.173   5.744  12.005  0.2941 -0.4677  0.1645
67167SOL    HW113226  10.242   5.798  11.966  0.3219  0.3177  1.2451
67167SOL    HW213227  10.144   5.795  12.081 -1.3693 -0.8626 -0.1788
67168SOL     OW13228   9.985   5.454   5.583  0.0573 -0.5010  0.3169
67168SOL    HW113229   9.927   5.382   5.608 -2.1682  1.4371  1.0844
67168SOL    HW213230   9.926   5.524   5.553  1.8389  2.1184  2.4212
67169SOL     OW13231   8.031   2.117  11.217  0.3367 -0.1270 -0.1764
67169SOL    HW113232   8.099   2.072  11.166  1.2978 -0.5984  1.4584
67169SOL    HW213233   8.079   2.182  11.268 -0.5090 -0.1675  0.6762
67170SOL     OW13234   1.843  11.568   3.881 -0.5979 -0.2023  0.2822
67170SOL    HW113235   1.871  11.567   3.972  0.7227 -1.9515 -0.0843
67170SOL    HW213236   1.901  11.633   3.840 -0.3896 -0.2578  0.4833
67171SOL     OW13237   1.972   8.753   3.109 -0.2733 -0.4376 -0.2280
67171SOL    HW113238   2.053   8.702   3.119  0.2049  0.0409 -1.4631
67171SOL    HW213239   1.989   8.810   3.034 -1.1827  0.8102  0.4936
67172SOL     OW13240   1.354   9.013   5.665  0.0371  0.0983  0.1464
67172SOL    HW113241   1.352   8.924   5.700  0.5365  0.0085 -0.0380
67172SOL    HW213242   1.418   9.059   5.719 -0.7293  0.5503  0.6934
67173SOL     OW13243   0.002  11.545   0.433 -0.0350  0.1996 -0.8294
67173SOL    HW113244   0.040  11.457   0.431 -1.2593 -0.3289 -1.7957
67173SOL    HW213245   0.027  11.579   0.519 -1.6478 -2.0554  0.6580
67174SOL     OW13246   6.728   5.298   7.442 -0.1269  0.0965  0.1686
67174SOL    HW113247   6.764   5.343   7.518 -0.8487 -1.9373  1.8168
67174SOL    HW213248   6.633   5.300   7.455 -0.2720 -0.1317 -0.7760
67175SOL     OW13249   1.795   8.234  12.047  0.1306 -0.4556 -0.2261
67175SOL    HW113250   1.853   8.174  12.094 -0.2403  0.4095  1.4291
67175SOL    HW213251   1.708   8.215  12.081 -0.5287 -1.3978 -2.3222
67176SOL     OW13252   9.983   2.402  11.698  0.5828  0.0502 -0.3485
67176SOL    HW113253   9.975   2.307  11.689 -0.1671  0.1303 -0.6559
67176SOL    HW213254  10.064   2.415  11.747  0.1708 -0.7929  0.6044
67177SOL     OW13255   1.270   2.269  11.792 -0.0462 -0.4015 -0.1948
67177SOL    HW113256   1.217   2.193  11.817 -0.2872  0.0024  0.5637
67177SOL    HW213257   1.287   2.314  11.875 -1.0551  1.1147 -0.7686
67178SOL     OW13258   4.055  10.069   4.511 -0.1500  0.2468  0.0753
67178SOL    HW113259   4.060  10.035   4.421  0.8268  0.8455 -0.1137
67178SOL    HW213260   4.059   9.991   4.566  2.3648 -0.0085 -0.3391
67179SOL     OW13261   0.242   8.258  11.850  0.4281 -0.4104 -0.1169
67179SOL    HW113262   0.176   8.199  11.815  0.0922  1.3529 -2.6941
67179SOL    HW213263   0.323   8.235  11.803  0.3921  0.8159 -0.8354
67180SOL     OW13264   0.965  12.016  10.299 -0.2178 -0.0809 -0.2991
67180SOL    HW113265   1.057  12.005  10.324  0.3275  0.7971 -1.7820
67180SOL    HW213266   0.949  12.110  10.306 -0.8852 -0.1733 -0.4865
67181SOL     OW13267   6.546  13.023   2.372  0.1928  0.1024 -0.6206
67181SOL    HW113268   6.518  13.056   2.457  1.0777  1.6539 -0.8997
67181SOL    HW213269   6.469  13.032   2.316  0.3403  1.4767 -0.6174
67182SOL     OW13270   8.967   3.835   9.418  0.4072  0.2697  0.6195
67182SOL    HW113271   9.060   3.838   9.442  0.1657 -1.2312  1.8446
67182SOL    HW213272   8.968   3.824   9.323  1.4215  2.4437  0.3131
67183SOL     OW13273  10.539   7.379   8.530  0.2213  0.2702  0.1262
67183SOL    HW113274  10.521   7.343   8.443 -0.7705 -0.4797  0.6147
67183SOL    HW213275  10.560   7.471   8.514 -5.2756  1.7455 -0.5849
67184SOL     OW13276  12.506  13.426  11.265 -0.0466 -0.3794 -0.4892
67184SOL    HW113277  12.553  13.376  11.198 -1.5379 -0.4243 -1.5649
67184SOL    HW213278  12.465  13.498  11.216 -1.4460 -0.6063  0.3068
67185SOL     OW13279   2.609   9.214   8.297 -0.7005  0.0224 -0.0934
67185SOL    HW113280   2.614   9.193   8.203 -2.1119 -2.5865  0.3324
67185SOL    HW213281   2.527   9.263   8.306 -1.2293 -0.8407 -0.0809
67186SOL     OW13282   3.981   8.022   0.967  0.8098  0.9029 -0.6548
67186SOL    HW113283   3.894   7.994   0.940  1.6550 -1.3806 -1.2865
67186SOL    HW213284   4.008   8.085   0.900  0.3401  0.2302 -1.5000
67187SOL     OW13285   6.856  13.245   0.676  0.7044 -0.1408 -0.0129
67187SOL    HW113286   6.766  13.241   0.644 -0.0662 -0.5498  2.0988
67187SOL    HW213287   6.896  13.163   0.647 -0.0682 -0.6500  0.3497
67188SOL     OW13288   3.532   9.773   5.292 -0.0492 -0.2238  0.7196
67188SOL    HW113289   3.460   9.715   5.268  0.4352 -1.4048  1.9517
67188SOL    HW213290   3.500   9.822   5.368  0.1668 -0.2142  0.8068
67189SOL     OW13291  13.116   6.398   1.846  0.2939 -0.2468  0.1506
67189SOL    HW113292  13.056   6.433   1.912 -1.1634 -2.4534  0.0964
67189SOL    HW213293  13.060   6.380   1.770  1.6150  0.4850 -1.0546
67190SOL     OW13294  13.492   9.629  10.959  0.0073  0.0672  0.3550
67190SOL    HW113295  13.431   9.675  10.900 -0.1386 -1.4359 -0.7174
67190SOL    HW213296  13.439   9.607  11.035 -0.4498 -0.0225  0.0186
67191SOL     OW13297   0.934   1.214   6.047 -0.8331 -0.3282 -0.1948
67191SOL    HW113298   0.999   1.190   5.980  0.4526  0.1117  0.8388
67191SOL    HW213299   0.984   1.216   6.129 -2.6346 -2.2892  1.0656
67192SOL     OW13300   6.709   9.764   1.330 -0.0003  0.3447  0.3759
67192SOL    HW113301   6.778   9.704   1.302  0.2454 -0.0456  1.7145
67192SOL    HW213302   6.757   9.837   1.370 -0.3414  0.5137  0.4779
67193SOL     OW13303   1.108  13.650   2.046 -0.6724 -0.2575  0.8086
67193SOL    HW113304   1.133  13.560   2.025 -0.9943 -0.0529 -0.5931
67193SOL    HW213305   1.031  13.641   2.102 -1.2989 -0.8620 -0.1193
67194SOL     OW13306  12.715   9.591   9.921 -0.1092 -0.2180  0.1461
67194SOL    HW113307  12.791   9.567   9.868  0.2462 -1.6679  1.2352
67194SOL    HW213308  12.748   9.657   9.982  0.1185 -0.3782  0.1962
67195SOL     OW13309   4.469   0.899   2.970 -0.4089  0.1320  0.3825
67195SOL    HW113310   4.437   0.909   3.059 -0.4059 -1.6400  0.6329
67195SOL    HW213311   4.543   0.839   2.978 -0.7024 -0.4369 -0.8439
67196SOL     OW13312   7.583   4.852  12.029 -0.0192  0.5629  0.1282
67196SOL    HW113313   7.611   4.781  12.086  1.3976  1.2986  0.3991
67196SOL    HW213314   7.489   4.840  12.019 -0.2330  0.1925  2.2935
67197SOL     OW13315   9.805   9.871  12.365  0.3877 -0.5970  0.0055
67197SOL    HW113316   9.868   9.879  12.436 -1.8305  1.0667  1.9183
67197SOL    HW213317   9.776   9.780  12.368 -0.7965 -0.2210  2.3571
67198SOL     OW13318  11.490   7.392   7.141  0.0648  0.3078 -0.2476
67198SOL    HW113319  11.444   7.355   7.066 -0.1958 -3.7631  1.6480
67198SOL    HW213320  11.425   7.396   7.210  1.1520  0.2314  0.8245
67199SOL     OW13321   5.009  10.074  11.975  0.9280  0.3483  0.2084
67199SOL    HW113322   5.030   9.981  11.967 -2.0204 -0.4230  0.3433
67199SOL    HW213323   5.005  10.105  11.885  0.5814 -0.0073  0.0963
67200SOL     OW13324   3.332   1.200   2.592  0.4192  0.0754  0.3730
67200SOL    HW113325   3.306   1.129   2.651 -0.3396  0.3925  0.4253
67200SOL    HW213326   3.273   1.191   2.517 -0.6184  1.4708  0.9768
67201SOL     OW13327   3.941   1.061   0.413  0.0872  0.2800 -0.5257
67201SOL    HW113328   3.986   0.977   0.422  1.4942  0.4660 -4.0884
67201SOL    HW213329   4.000   1.125   0.452  0.2523 -0.0841 -0.1723
67202SOL     OW13330   2.481   6.856  10.047 -0.3346 -0.0451  0.3442
67202SOL    HW113331   2.555   6.917  10.053  0.0117 -0.4700  0.3866
67202SOL    HW213332   2.505   6.782  10.103  0.0018 -1.0120 -1.0391
67203SOL     OW13333   8.817   6.426  10.567  0.7884  0.7822  0.3092
67203SOL    HW113334   8.734   6.473  10.565  1.0610  1.2651  0.0226
67203SOL    HW213335   8.832   6.401  10.476 -0.6453 -2.2199  0.7757
67204SOL     OW13336   1.195  13.027  10.271  0.4236 -0.5314  0.0579
67204SOL    HW113337   1.173  13.106  10.221  1.0647 -0.4427 -0.0884
67204SOL    HW213338   1.178  13.052  10.362  0.8748 -0.1371  0.0349
67205SOL     OW13339   0.585   6.415   4.710  0.1606 -0.6426 -0.4592
67205SOL    HW113340   0.591   6.456   4.624 -1.6421  0.9752  0.1094
67205SOL    HW213341   0.506   6.361   4.706  0.1416 -0.6686  0.1185
67206SOL     OW13342  12.570   1.007   5.779 -0.4788 -0.0789  0.4147
67206SOL    HW113343  12.494   1.015   5.837 -2.1381 -0.3706 -1.5897
67206SOL    HW213344  12.550   0.931   5.724  0.7206  0.5408 -0.9408
67207SOL     OW13345  10.569  12.796   0.121  0.5597  0.0131  0.1994
67207SOL    HW113346  10.585  12.710   0.084  0.7115  0.4260 -0.7312
67207SOL    HW213347  10.579  12.785   0.215 -0.7615 -1.2794  0.2186
67208SOL     OW13348   7.713   8.739  12.853  0.1134  0.4532  0.2530
67208SOL    HW113349   7.737   8.717  12.943 -2.0392 -1.7913  0.3792
67208SOL    HW213350   7.764   8.678  12.799  1.7858  2.1287 -0.1564
67209SOL     OW13351   6.358  13.547   5.029  0.7562 -0.5134 -0.1689
67209SOL    HW113352   6.315  13.610   5.088  1.6479 -0.9627  1.0041
67209SOL    HW213353   6.293  13.479   5.015  0.1379  0.1610 -0.6212
67210SOL     OW13354   9.420   1.028   8.243 -0.3309 -0.2850  0.5660
67210SOL    HW113355   9.430   0.936   8.220  0.1129  0.5146 -3.1614
67210SOL    HW213356   9.340   1.031   8.296 -0.7769 -2.7285  0.1569
67211SOL     OW13357   1.742   0.298   2.667 -0.2242  0.1780 -0.1861
67211SOL    HW113358   1.665   0.276   2.616 -0.2637 -3.0215  1.0296
67211SOL    HW213359   1.714   0.291   2.758  1.6754 -2.5313  0.3342
67212SOL     OW13360  11.613  10.757   7.806  0.4421  0.3691  0.0889
67212SOL    HW113361  11.572  10.778   7.722  1.1824  1.6050  0.0158
67212SOL    HW213362  11.540  10.744   7.866 -0.1167  3.1792  0.1170
67213SOL     OW13363   2.878   9.131  11.671  0.6941 -0.1663 -0.2169
67213SOL    HW113364   2.822   9.095  11.740  2.0513 -0.2061  0.8934
67213SOL    HW213365   2.926   9.202  11.714  0.9742  0.3404 -1.3364
67214SOL     OW13366   5.088   0.500  13.152  0.4664  0.4866 -0.1636
67214SOL    HW113367   5.017   0.551  13.114 -1.0852 -0.4406  1.3208
67214SOL    HW213368   5.133   0.561  13.211 -0.2675  0.6060  0.2776
67215SOL     OW13369   7.631   9.160   8.774  0.2370  0.2341  0.0059
67215SOL    HW113370   7.694   9.215   8.728  2.0382 -0.4069  1.6036
67215SOL    HW213371   7.583   9.221   8.831 -0.2252  0.6357 -0.7945
67216SOL     OW13372  10.024  11.139   9.065  0.1589 -0.2025  0.6334
67216SOL    HW113373   9.958  11.097   9.010  0.0584 -0.2037  0.7537
67216SOL    HW213374   9.980  11.216   9.101  0.4873  0.2715  0.0442
67217SOL     OW13375   2.182   8.073   6.152 -0.1518 -0.0220  0.3744
67217SOL    HW113376   2.222   7.986   6.144 -0.1435 -0.2716  2.5405
67217SOL    HW213377   2.256   8.134   6.152 -0.0846 -0.0992  0.0133
67218SOL     OW13378   3.168  10.634   2.821 -0.6527 -0.4129 -0.1369
67218SOL    HW113379   3.177  10.617   2.727 -3.2378  2.0190 -0.9470
67218SOL    HW213380   3.224  10.710   2.837 -0.9246 -0.2633  0.1057
67219SOL     OW13381  11.589   1.382   3.462 -0.2614  0.1748  0.1923
67219SOL    HW113382  11.601   1.471   3.429  0.2247 -0.2321 -0.7697
67219SOL    HW213383  11.573   1.330   3.384  1.6910 -0.9619  0.4829
67220SOL     OW13384  11.299   9.868  11.985 -0.2294 -0.2223  0.0366
67220SOL    HW113385  11.239   9.800  12.013  0.7779 -2.0239 -1.8925
67220SOL    HW213386  11.284   9.876  11.890  0.5812  1.3337  0.0007
67221SOL     OW13387   7.560   2.974   1.284  0.4626  0.0343  0.5648
67221SOL    HW113388   7.512   2.918   1.223 -0.8401  0.4541  1.1797
67221SOL    HW213389   7.623   3.021   1.230 -0.8851  0.6357 -0.5325
67222SOL     OW13390   4.780  10.576   4.877  0.5985  0.1081 -0.0022
67222SOL    HW113391   4.862  10.572   4.926  0.6109  0.2531 -0.0126
67222SOL    HW213392   4.787  10.505   4.813  0.7548  0.1822 -0.0678
67223SOL     OW13393   6.166   0.148   7.161 -0.2593 -0.2616 -0.4884
67223SOL    HW113394   6.255   0.163   7.191 -0.5173 -0.1071  0.2178
67223SOL    HW213395   6.111   0.199   7.221 -0.8757 -0.9379 -0.4598
67224SOL     OW13396   6.175   2.658   2.131  0.2699 -0.2993  0.1270
67224SOL    HW113397   6.141   2.569   2.137 -0.1820 -0.1307  0.1168
67224SOL    HW213398   6.109   2.712   2.175  0.3313  0.0814 -0.2404
67225SOL     OW13399   1.973   6.190   9.569 -0.1670  0.1272 -0.1022
67225SOL    HW113400   2.015   6.247   9.504  2.2931 -1.2763  0.1433
67225SOL    HW213401   1.882   6.218   9.569  0.6959  3.4637 -0.6288
67226SOL     OW13402  12.799   1.006   7.079  0.2248  0.4913  0.0579
67226SOL    HW113403  12.808   1.093   7.117 -1.8759  0.3434  1.0218
67226SOL    HW213404  12.710   0.978   7.102  0.6168 -1.6567 -0.7548
67227SOL     OW13405   3.621   8.392   0.544  0.8081 -0.1686  0.4260
67227SOL    HW113406   3.684   8.382   0.472  1.4609  2.0037  0.6442
67227SOL    HW213407   3.543   8.429   0.502  0.2058 -1.3610  0.4352
67228SOL     OW13408   4.691   9.607   2.339 -0.1463 -0.1980  0.4266
67228SOL    HW113409   4.653   9.694   2.328  0.9255  0.2471  0.0974
67228SOL    HW213410   4.619   9.553   2.371 -0.5990  1.0093  1.5112
67229SOL     OW13411   7.914   3.256   2.230  0.2079  0.0026  0.1456
67229SOL    HW113412   7.843   3.256   2.293  0.3163  1.8610  0.3228
67229SOL    HW213413   7.965   3.178   2.251 -1.5556 -1.1704  0.2280
67230SOL     OW13414   4.629  13.535   3.046  0.3296 -0.3956  0.0973
67230SOL    HW113415   4.543  13.497   3.027 -0.6548  1.7951 -0.1078
67230SOL    HW213416   4.644  13.514   3.139 -1.3211  0.7510  0.6773
67231SOL     OW13417  10.996  10.474   4.939 -0.4485  0.0521  0.4085
67231SOL    HW113418  10.959  10.386   4.947 -0.8890  0.2667  0.8042
67231SOL    HW213419  10.940  10.518   4.876 -0.2117  0.0428  0.1901
67232SOL     OW13420   7.198   2.782   7.984  0.1717 -0.2230  0.7557
67232SOL    HW113421   7.219   2.693   7.957  1.3270  0.4201 -0.5884
67232SOL    HW213422   7.107   2.794   7.956  0.8710 -0.0796 -1.7121
67233SOL     OW13423   5.097   0.308   1.356 -0.0372 -0.0007  0.0256
67233SOL    HW113424   5.034   0.380   1.351  0.1880  0.3578  1.6189
67233SOL    HW213425   5.174   0.346   1.398  0.1324 -1.1234  0.7995
67234SOL     OW13426  12.242   3.592   7.221  0.1220 -0.7152 -0.1597
67234SOL    HW113427  12.270   3.533   7.151  1.3339 -0.7033  0.2917
67234SOL    HW213428  12.219   3.674   7.176  1.7900 -0.3947 -0.4869
67235SOL     OW13429   9.984   8.136   4.473 -0.2835  0.0232  0.4842
67235SOL    HW113430  10.016   8.197   4.539 -2.5372 -0.3628  2.0275
67235SOL    HW213431   9.984   8.186   4.392  3.6230  0.1791  0.4026
67236SOL     OW13432   1.192   1.800   0.758  0.4571  0.2881 -0.0699
67236SOL    HW113433   1.229   1.717   0.790  0.0372  0.2722  0.3907
67236SOL    HW213434   1.262   1.864   0.771  1.1784 -0.1887 -1.4379
67237SOL     OW13435   4.116   1.341   0.180  0.0918  0.0472 -0.0198
67237SOL    HW113436   4.078   1.373   0.262  1.1775  0.0977  0.4801
67237SOL    HW213437   4.103   1.413   0.118 -3.6730 -1.1480 -0.8989
67238SOL     OW13438   8.105   1.427   8.040 -0.0548  0.1554 -0.0089
67238SOL    HW113439   8.029   1.461   7.993  2.2787  1.7678 -3.0076
67238SOL    HW213440   8.104   1.333   8.021  0.0714  0.5618 -2.3278
67239SOL     OW13441   3.310   0.502   5.880  0.3012 -0.3439  0.4100
67239SOL    HW113442   3.236   0.556   5.910  0.1268 -0.6910  0.6080
67239SOL    HW213443   3.273   0.448   5.810  0.2139 -0.9440  0.9128
67240SOL     OW13444   0.946  10.399   7.944  0.2320  0.0751  0.2655
67240SOL    HW113445   0.985  10.474   7.989  0.5299  0.5724 -0.8099
67240SOL    HW213446   0.851  10.410   7.958  0.0068  2.3359 -2.3502
67241SOL     OW13447   8.712   4.009  12.570  0.2761  0.3157 -0.5239
67241SOL    HW113448   8.668   4.047  12.494 -1.5363 -0.6613 -0.0395
67241SOL    HW213449   8.776   3.948  12.533  0.9523  1.4400 -1.2565
67242SOL     OW13450   3.688   0.522   4.798  0.5069 -0.8774 -0.8423
67242SOL    HW113451   3.615   0.506   4.858  0.9625 -0.8931 -0.2790
67242SOL    HW213452   3.751   0.571   4.850 -0.4553  2.0298 -2.2454
67243SOL     OW13453   1.099  10.189  12.003  0.8959 -0.1567  0.1534
67243SOL    HW113454   1.039  10.121  12.034  0.8353 -0.2819 -0.2392
67243SOL    HW213455   1.185  10.162  12.033  0.9710 -0.7618 -0.5871
67244SOL     OW13456   9.238   5.115  10.798  0.4288 -0.2046 -0.1709
67244SOL    HW113457   9.211   5.023  10.800 -0.2363 -0.0057  0.8547
67244SOL    HW213458   9.205   5.147  10.714 -0.0422 -0.6991 -0.1838
67245SOL     OW13459   3.125   4.835   3.648  0.1960  0.2047 -0.0951
67245SOL    HW113460   3.078   4.802   3.725 -0.4341  0.4622 -0.3639
67245SOL    HW213461   3.132   4.929   3.663 -0.5918  0.3668 -0.6976
67246SOL     OW13462   4.425  13.607   4.178 -0.0998  0.3512 -0.5530
67246SOL    HW113463   4.349  13.559   4.211  0.5686  0.1107  0.7111
67246SOL    HW213464   4.499  13.549   4.194  0.6523  1.5418  0.5308
67247SOL     OW13465   8.550   9.670  12.619 -0.0923  0.3809 -0.4014
67247SOL    HW113466   8.562   9.577  12.602 -0.6193  0.4785 -1.3734
67247SOL    HW213467   8.638   9.702  12.640  0.1315 -0.2893 -0.3128
67248SOL     OW13468   8.225  13.090   3.793 -0.0614  0.1730 -0.1107
67248SOL    HW113469   8.262  13.084   3.881  1.7302  2.3994 -0.6378
67248SOL    HW213470   8.295  13.060   3.736 -0.0294  1.7725 -0.9563
67249SOL     OW13471   8.641   4.309   8.359  0.2816  0.0222 -0.2031
67249SOL    HW113472   8.613   4.333   8.270  0.6534 -0.6133 -0.4940
67249SOL    HW213473   8.731   4.278   8.348  0.6398  0.7749  0.5300
67250SOL     OW13474   1.133   7.738   3.004 -0.6357 -0.5501 -0.4043
67250SOL    HW113475   1.219   7.767   2.974 -0.1792 -2.1171 -0.7023
67250SOL    HW213476   1.141   7.733   3.100 -0.8965  0.7432 -0.2895
67251SOL     OW13477   0.158   6.755   4.344  0.2218  0.0716 -0.0567
67251SOL    HW113478   0.088   6.784   4.402  3.1776  1.0230  3.4702
67251SOL    HW213479   0.184   6.834   4.297  1.5003  0.8357  1.7918
67252SOL     OW13480   7.542   1.545  11.145  0.3679 -0.0244 -0.2115
67252SOL    HW113481   7.464   1.495  11.122  0.3142  0.2734 -0.6907
67252SOL    HW213482   7.509   1.632  11.167  0.4890 -0.1126  0.3318
67253SOL     OW13483   1.817   8.293   2.791  0.6695  0.2715  0.2288
67253SOL    HW113484   1.896   8.304   2.738  0.1650 -1.5778 -0.9557
67253SOL    HW213485   1.779   8.381   2.795  2.6410  1.1574  0.6523
67254SOL     OW13486  12.165   5.116   0.088  0.5755 -0.1011  0.3850
67254SOL    HW113487  12.125   5.135   0.172  1.0309 -1.2296  0.8762
67254SOL    HW213488  12.092   5.098   0.030  0.3185 -0.8805  0.9450
67255SOL     OW13489   6.166  12.063   9.491  0.2031 -0.0289 -0.1523
67255SOL    HW113490   6.123  12.057   9.406  0.0404 -0.2424 -0.0539
67255SOL    HW213491   6.215  11.982   9.499 -1.9317 -1.2738  1.1472
67256SOL     OW13492  10.998  11.656   6.047 -0.3613 -0.2881 -0.1726
67256SOL    HW113493  11.066  11.607   6.094 -0.5587 -1.6042 -1.1798
67256SOL    HW213494  10.916  11.615   6.074 -0.4744 -1.1609 -1.6937
67257SOL     OW13495   5.317  10.274  10.716 -0.0019  0.0848 -0.3964
67257SOL    HW113496   5.235  10.229  10.695 -0.1963  0.2135  0.0776
67257SOL    HW213497   5.291  10.363  10.737  0.0995 -0.2045  1.0559
67258SOL     OW13498   6.787   4.147   5.925 -0.2790 -0.2742 -0.3218
67258SOL    HW113499   6.729   4.090   5.976  1.4763 -2.7483 -0.8750
67258SOL    HW213500   6.821   4.090   5.855  0.8434  1.7634 -1.5405
67259SOL     OW13501   4.273  10.191  11.552 -0.0567  0.0620 -0.1069
67259SOL    HW113502   4.364  10.166  11.537 -0.6505 -2.5945  0.2686
67259SOL    HW213503   4.268  10.205  11.647 -0.1732 -0.4355 -0.0378
67260SOL     OW13504   2.350   9.898   7.549  0.1260  0.0874 -0.4891
67260SOL    HW113505   2.403   9.858   7.480  1.2125 -0.5239  0.6484
67260SOL    HW213506   2.276   9.840   7.560  0.6315 -0.5273 -0.2601
67261SOL     OW13507  12.917   6.902   0.007  0.3946  0.0822 -0.1347
67261SOL    HW113508  12.954   6.902  -0.081  0.4398 -0.0513 -0.1163
67261SOL    HW213509  12.959   6.976   0.050  0.0936  0.3744 -0.3406
67262SOL     OW13510  13.028   8.316  10.625  0.6454  0.3253 -0.4351
67262SOL    HW113511  13.070   8.232  10.608 -0.8645 -0.4462 -0.5312
67262SOL    HW213512  12.936   8.303  10.601  0.6019  2.3715 -1.6428
67263SOL     OW13513  12.553  13.212  11.810  0.4280 -0.4202 -0.4341
67263SOL    HW113514  12.503  13.131  11.800 -0.2920 -0.3823  2.2146
67263SOL    HW213515  12.521  13.268  11.738 -1.7987 -1.1875 -0.1256
67264SOL     OW13516   5.955   0.257   7.308 -0.1074  0.1975 -0.0221
67264SOL    HW113517   5.966   0.337   7.359 -0.2432 -0.1566  0.5786
67264SOL    HW213518   5.957   0.187   7.373  1.3947 -0.4088 -0.6830
67265SOL     OW13519   3.524  11.403   7.871  0.3817  0.1901  0.0286
67265SOL    HW113520   3.513  11.492   7.838  1.6418  0.9042  1.3933
67265SOL    HW213521   3.548  11.414   7.963 -0.3836 -1.6116  0.5048
67266SOL     OW13522   1.200   0.868   8.121  0.3492 -0.5737 -0.0616
67266SOL    HW113523   1.232   0.873   8.031 -1.1664 -0.5415 -0.6263
67266SOL    HW213524   1.259   0.925   8.171  0.2867  0.6390 -1.3180
67267SOL     OW13525   4.950   2.980  10.922 -0.4831  0.1948 -0.2384
67267SOL    HW113526   4.951   3.056  10.979 -0.9012 -0.1341  0.2212
67267SOL    HW213527   5.041   2.967  10.896 -0.5668  1.5659 -1.3005
67268SOL     OW13528   4.079   2.839   8.196  0.7260 -0.1752 -0.4447
67268SOL    HW113529   4.057   2.806   8.283 -0.7704  0.9481 -0.3591
67268SOL    HW213530   4.162   2.885   8.209 -0.0699  1.0373  0.7052
67269SOL     OW13531  12.444   9.602   1.838 -0.0896 -0.2316  0.4159
67269SOL    HW113532  12.369   9.552   1.870  1.3282 -1.8574  1.3964
67269SOL    HW213533  12.406   9.683   1.803 -2.4523 -1.7887 -0.8689
67270SOL     OW13534  13.435  13.181   8.474 -0.4172  0.1933 -0.0666
67270SOL    HW113535  13.461  13.272   8.458  0.3587 -0.0661 -0.3265
67270SOL    HW213536  13.344  13.176   8.443 -0.1176  0.6090 -1.0528
67271SOL     OW13537   1.875   9.422  11.428  0.0319 -0.2619  0.1260
67271SOL    HW113538   1.959   9.449  11.392  0.1970 -0.4416  0.3777
67271SOL    HW213539   1.811   9.480  11.385  0.2876 -0.0868 -0.0201
67272SOL     OW13540  11.167   2.047  12.238  0.1599  0.4602  0.1440
67272SOL    HW113541  11.109   2.118  12.211  2.3218  2.4023  0.2759
67272SOL    HW213542  11.185   1.998  12.157  0.7747  1.7581 -0.5341
67273SOL     OW13543   8.456  12.712   5.470 -0.6050  0.4037  0.1671
67273SOL    HW113544   8.538  12.722   5.422 -0.4740  1.9525  0.6735
67273SOL    HW213545   8.483  12.685   5.558 -0.4312  3.0272  0.9933
67274SOL     OW13546  12.619   7.338  13.053  0.6658  0.0303  0.9403
67274SOL    HW113547  12.662   7.330  12.968 -0.5099 -2.0693  0.4854
67274SOL    HW213548  12.690   7.357  13.114  1.7953 -0.3360 -0.2176
67275SOL     OW13549  11.160   7.267   7.675 -0.0166 -0.6678 -0.5535
67275SOL    HW113550  11.193   7.236   7.760  1.0218 -1.7433 -1.3145
67275SOL    HW213551  11.065   7.271   7.686  0.1501  0.1209  0.9355
67276SOL     OW13552   4.281   2.786   5.170 -0.5124  0.4825 -0.0062
67276SOL    HW113553   4.357   2.745   5.209 -1.1252  0.7686  1.5575
67276SOL    HW213554   4.303   2.794   5.077 -0.3611 -3.4152 -0.4975
67277SOL     OW13555  11.780   9.436   2.992 -0.2250  0.7903  0.6175
67277SOL    HW113556  11.842   9.489   3.042 -0.7375  2.1460 -0.1310
67277SOL    HW213557  11.820   9.428   2.905 -0.0701 -0.2380  0.7675
67278SOL     OW13558   5.054  10.541   9.627 -0.8445 -0.2884 -0.2854
67278SOL    HW113559   4.959  10.541   9.622 -0.8347  0.2086 -0.5277
67278SOL    HW213560   5.075  10.592   9.705 -0.7371  1.6491 -1.5121
67279SOL     OW13561   4.725  10.315   2.126  0.6287  0.7140 -0.3781
67279SOL    HW113562   4.787  10.243   2.119  0.1378  0.3918 -1.8700
67279SOL    HW213563   4.651  10.289   2.071 -1.8627  0.1226  2.9314
67280SOL     OW13564  12.459  12.261   7.514 -0.0287 -0.1305  0.3974
67280SOL    HW113565  12.471  12.332   7.451 -0.1757 -1.1138 -0.7758
67280SOL    HW213566  12.548  12.227   7.529 -0.0235 -0.0617  0.5232
67281SOL     OW13567   0.925  12.145  11.671  0.4010  0.2399 -0.0859
67281SOL    HW113568   1.012  12.183  11.657  0.3654 -0.1455 -1.5228
67281SOL    HW213569   0.890  12.132  11.583 -0.6661 -0.6400  0.4389
67282SOL     OW13570  12.336   5.204   8.125  0.2439  0.0144  0.4546
67282SOL    HW113571  12.351   5.226   8.217 -0.1176  0.5121  0.3946
67282SOL    HW213572  12.387   5.269   8.076 -1.4303  1.2476  0.2593
67283SOL     OW13573   4.761  13.455   3.273  0.2784 -0.9453  0.2926
67283SOL    HW113574   4.847  13.469   3.234 -0.2727  0.1819 -0.5879
67283SOL    HW213575   4.741  13.362   3.255  0.7854 -0.8980 -0.5960
67284SOL     OW13576   2.169   9.648  10.592  0.3136  0.3540 -0.5582
67284SOL    HW113577   2.153   9.555  10.572  0.6336  0.3790 -0.9526
67284SOL    HW213578   2.263   9.653  10.606  0.2935  0.6134 -0.5136
67285SOL     OW13579   5.845   6.935   3.783  0.0734 -0.6055 -0.5615
67285SOL    HW113580   5.850   6.911   3.876 -0.1057  0.0664 -0.3730
67285SOL    HW213581   5.877   7.025   3.780 -1.5745  0.0004 -0.8842
67286SOL     OW13582   9.701   0.841   5.745  0.5224  0.6002  0.0719
67286SOL    HW113583   9.730   0.781   5.676 -0.4477  0.7012 -0.4487
67286SOL    HW213584   9.631   0.892   5.704 -2.3379 -1.4573  2.0201
67287SOL     OW13585   1.246   5.595  12.130 -0.1250  0.2470  0.2086
67287SOL    HW113586   1.206   5.630  12.050 -1.4390  0.6649  1.0202
67287SOL    HW213587   1.194   5.631  12.201  0.8600 -0.3290  1.2650
67288SOL     OW13588  12.659   1.884   6.204  0.4168  0.0627  0.8848
67288SOL    HW113589  12.631   1.793   6.195  0.1118  0.2294 -0.0133
67288SOL    HW213590  12.742   1.889   6.158 -1.0609  0.8862 -1.9804
67289SOL     OW13591  11.723   3.062  10.063 -0.1014 -0.5718 -0.5419
67289SOL    HW113592  11.732   3.052  10.158 -1.7962 -1.6317 -0.4445
67289SOL    HW213593  11.796   3.014  10.026 -0.8586 -2.3855  0.2152
67290SOL     OW13594   7.826  11.056  12.328  0.3346  0.2877  0.3318
67290SOL    HW113595   7.844  10.993  12.398 -1.4477  1.6456  2.1723
67290SOL    HW213596   7.808  11.003  12.251  1.9737 -1.2978  0.9665
67291SOL     OW13597   2.264   2.888   5.004 -0.9022  0.0672  0.2145
67291SOL    HW113598   2.254   2.970   5.052 -0.2162  0.4407 -0.2653
67291SOL    HW213599   2.220   2.823   5.059  1.6596  0.0707  2.4669
67292SOL     OW13600  11.931   4.195   7.617 -0.7555  0.6727 -0.3159
67292SOL    HW113601  11.867   4.154   7.674 -0.9279  1.1515 -0.1565
67292SOL    HW213602  12.016   4.164   7.648 -0.8245  1.1834  0.4188
67293SOL     OW13603   8.564   6.768   9.225  0.0768  0.1325  0.5516
67293SOL    HW113604   8.592   6.712   9.153 -3.3638 -1.8934  0.5688
67293SOL    HW213605   8.637   6.765   9.287  1.7889 -0.7155 -1.3973
67294SOL     OW13606   0.496   1.142   1.063  0.8766  0.1078  0.0639
67294SOL    HW113607   0.464   1.099   0.984 -0.0001  0.8673 -0.0097
67294SOL    HW213608   0.590   1.122   1.065  0.9515  0.2691 -1.2852
67295SOL     OW13609  11.312   8.677   2.031  0.1461  0.1974 -0.0429
67295SOL    HW113610  11.220   8.652   2.035  0.5435 -1.7473 -1.4735
67295SOL    HW213611  11.322   8.717   1.944  0.6763  0.3268  0.0734
67296SOL     OW13612   2.106  13.680  11.714  0.0795  0.1654 -0.0319
67296SOL    HW113613   2.046  13.670  11.788  0.0727  0.5787  0.0197
67296SOL    HW213614   2.112  13.774  11.700 -0.1283  0.0774 -0.7351
67297SOL     OW13615   2.636   9.555   7.766  0.5010 -0.0971 -0.2402
67297SOL    HW113616   2.690   9.480   7.742  0.3142  0.1363 -1.4508
67297SOL    HW213617   2.571   9.562   7.696 -0.1243  0.5699  0.3888
67298SOL     OW13618  12.191   1.301  12.635  0.9042 -0.5980 -0.3398
67298SOL    HW113619  12.219   1.210  12.641  0.3595 -0.8216 -0.9571
67298SOL    HW213620  12.147   1.306  12.550  0.5189  0.1250 -0.1047
67299SOL     OW13621  11.738  11.264   4.071 -0.4339  0.2426 -0.4136
67299SOL    HW113622  11.811  11.205   4.051  0.0479  0.6747  0.0289
67299SOL    HW213623  11.780  11.350   4.084 -0.5612 -0.0634  3.0743
67300SOL     OW13624   6.316   1.818   9.365  0.0744  0.1302  0.2657
67300SOL    HW113625   6.220   1.821   9.356  0.1867  0.0828 -1.2746
67300SOL    HW213626   6.334   1.863   9.448 -1.0549  3.8575 -1.2791
67301SOL     OW13627   0.346  10.852   0.106  0.3811  0.1777 -0.1936
67301SOL    HW113628   0.326  10.899   0.025  1.2624  1.1538  0.1416
67301SOL    HW213629   0.261  10.822   0.138  0.0141 -0.1636 -1.4386
67302SOL     OW13630   5.922  12.453   4.513  0.4667  0.5806  0.0440
67302SOL    HW113631   5.859  12.526   4.517  0.4058  0.6413 -1.4835
67302SOL    HW213632   5.968  12.466   4.430  0.7341 -0.9013 -0.0564
67303SOL     OW13633  10.142   0.925   2.122 -0.4357  0.1218 -0.5456
67303SOL    HW113634  10.225   0.971   2.132 -1.5047  1.9277  0.5778
67303SOL    HW213635  10.095   0.941   2.204 -2.6493  0.8032 -1.8508
67304SOL     OW13636  13.229   0.629   2.281 -0.2377 -0.3932  0.1463
67304SOL    HW113637  13.295   0.643   2.349  1.4007 -1.9121 -1.0470
67304SOL    HW213638  13.173   0.559   2.316 -0.9720  0.5683  0.9562
67305SOL     OW13639   9.709   1.806   8.342 -0.0997 -0.0707  0.6950
67305SOL    HW113640   9.635   1.859   8.371  0.3745  0.7701  0.3984
67305SOL    HW213641   9.744   1.766   8.421  0.2935  1.0427  1.0932
67306SOL     OW13642  10.692   3.228   7.195  0.4072  0.0865 -0.1153
67306SOL    HW113643  10.626   3.170   7.157  0.2494  0.1929 -0.0069
67306SOL    HW213644  10.767   3.171   7.212 -0.1741 -0.3407  1.1088
67307SOL     OW13645   6.294   1.623   5.421 -0.2453 -0.3510 -0.0118
67307SOL    HW113646   6.203   1.638   5.447  0.2066  1.1261  0.8803
67307SOL    HW213647   6.304   1.528   5.421 -1.5202 -0.5113  0.8324
67308SOL     OW13648   1.997   0.668   6.879  0.3874  0.2327 -0.4414
67308SOL    HW113649   1.979   0.717   6.799  1.0439 -0.4225 -1.0094
67308SOL    HW213650   2.024   0.734   6.943 -1.8004  0.9804 -0.2052
67309SOL     OW13651   2.521   4.307   1.453 -0.0651 -0.2932  0.0080
67309SOL    HW113652   2.556   4.257   1.527 -0.8778 -3.1610 -1.3917
67309SOL    HW213653   2.586   4.375   1.437  1.3179 -1.1058  1.8309
67310SOL     OW13654   1.358   0.312   9.944  0.0765 -0.2430 -0.4451
67310SOL    HW113655   1.351   0.247  10.014  0.5455  0.2210  0.0401
67310SOL    HW213656   1.453   0.322   9.931 -0.0064 -0.1777 -1.0059
67311SOL     OW13657  13.448  11.343   3.920 -0.2279  0.4582 -0.1758
67311SOL    HW113658  13.467  11.283   3.993  1.2458  0.2088 -0.7333
67311SOL    HW213659  13.353  11.345   3.916 -0.3635 -2.3668 -0.5286
67312SOL     OW13660   5.239   2.732   9.122 -0.2677 -0.1405  0.4184
67312SOL    HW113661   5.245   2.640   9.148 -0.0327 -0.1235  0.4259
67312SOL    HW213662   5.330   2.762   9.120 -0.2963 -0.0694 -0.1581
67313SOL     OW13663   8.713  10.800   0.680 -0.2687  0.2523  0.2184
67313SOL    HW113664   8.678  10.780   0.593  0.5121  1.6433 -0.4480
67313SOL    HW213665   8.657  10.750   0.740 -0.0147 -1.7798 -1.1269
67314SOL     OW13666   9.543   8.924  12.413  0.5242 -0.5516  0.2162
67314SOL    HW113667   9.589   8.915  12.330  0.7566  0.3753  0.2360
67314SOL    HW213668   9.601   8.883  12.477 -0.1062 -2.1707 -0.2052
67315SOL     OW13669  11.928   0.798   1.807  0.2353 -0.4392  0.4378
67315SOL    HW113670  11.871   0.725   1.832 -1.3423 -0.2189 -2.1952
67315SOL    HW213671  11.917   0.862   1.877 -1.2157 -1.2322  0.9763
67316SOL     OW13672   2.276   2.775   7.005  0.1526  0.3481  0.4693
67316SOL    HW113673   2.335   2.712   7.049  0.3093 -1.0430 -1.6155
67316SOL    HW213674   2.335   2.828   6.951 -0.1942  1.0612  0.7873
67317SOL     OW13675   4.187   9.770  12.725 -0.1499  0.3104  0.2106
67317SOL    HW113676   4.170   9.833  12.796 -0.0280 -0.8467  1.3068
67317SOL    HW213677   4.108   9.716  12.721  0.4942 -0.7047  0.6442
67318SOL     OW13678  12.577  12.733   7.543 -0.1362 -0.4022  0.1440
67318SOL    HW113679  12.489  12.735   7.506  0.4107  1.4810 -1.2536
67318SOL    HW213680  12.635  12.734   7.466  1.0737  0.5207  1.0222
67319SOL     OW13681   0.175   3.888  10.513 -0.0708  0.2198  0.2678
67319SOL    HW113682   0.104   3.826  10.498 -1.2749  1.1261  1.9160
67319SOL    HW213683   0.152   3.965  10.461 -0.4976  0.6493  1.0809
67320SOL     OW13684   0.516   4.208   3.386 -0.1187 -0.7439  0.3978
67320SOL    HW113685   0.450   4.169   3.443 -0.6950 -0.8847 -0.3532
67320SOL    HW213686   0.577   4.251   3.446 -1.0990 -0.2796  1.0927
67321SOL     OW13687   0.117   9.732   2.214  0.2803  0.0970 -0.2602
67321SOL    HW113688   0.060   9.684   2.153 -0.7614  0.3261  0.4934
67321SOL    HW213689   0.056   9.768   2.279  1.2379  0.8928  0.2160
67322SOL     OW13690   4.935   1.906   1.116 -0.7754  0.1306  0.2124
67322SOL    HW113691   4.967   1.934   1.202 -0.7460  0.8548 -0.0285
67322SOL    HW213692   5.013   1.883   1.067 -0.7781 -0.1071  0.3190
67323SOL     OW13693  11.697   2.803   3.776 -0.2938  0.1422  0.2398
67323SOL    HW113694  11.688   2.723   3.724 -0.6578  0.3742 -0.0541
67323SOL    HW213695  11.682   2.775   3.866 -0.5148 -0.1049  0.1273
67324SOL     OW13696   9.851   0.789   7.348 -0.0597 -0.5637 -0.1675
67324SOL    HW113697   9.893   0.799   7.262  0.0309 -0.8954 -0.1617
67324SOL    HW213698   9.912   0.735   7.398 -0.5672 -1.1820 -0.2103
67325SOL     OW13699   7.966   1.711  12.038 -0.2718 -0.5179  0.8062
67325SOL    HW113700   8.019   1.633  12.020  0.1547 -0.2045  0.6925
67325SOL    HW213701   7.937   1.740  11.952 -0.9654 -0.9169  0.8977
67326SOL     OW13702  11.519   8.561   7.978  0.1450 -0.5827  0.5610
67326SOL    HW113703  11.455   8.500   7.941 -1.5124  0.0212  2.2632
67326SOL    HW213704  11.486   8.648   7.953 -0.0378 -0.2451  1.8978
67327SOL     OW13705   8.674   6.032   8.844 -0.3108  0.0874 -0.1947
67327SOL    HW113706   8.761   6.029   8.804 -1.3336  1.0303 -2.6329
67327SOL    HW213707   8.643   5.941   8.842 -0.4334  0.1480 -1.8130
67328SOL     OW13708  13.212  12.909   0.153 -0.2047  0.2114  0.5962
67328SOL    HW113709  13.166  12.826   0.147 -1.6600  0.8928  1.7410
67328SOL    HW213710  13.215  12.929   0.246  0.7552  1.1000  0.3944
67329SOL     OW13711   7.027  11.259   4.096 -0.1745  0.2338 -0.3704
67329SOL    HW113712   7.106  11.275   4.147 -0.3431  0.2737 -0.1196
67329SOL    HW213713   6.980  11.342   4.097  0.5710  0.7295 -1.9329
67330SOL     OW13714   8.652   8.644   5.550 -0.3813 -0.0882  0.0273
67330SOL    HW113715   8.575   8.684   5.509  0.2428  1.0371 -0.0962
67330SOL    HW213716   8.714   8.716   5.559  0.4506 -0.8598  0.6432
67331SOL     OW13717   4.897   3.483   0.850  0.1203 -0.0635 -0.0324
67331SOL    HW113718   4.965   3.523   0.903 -0.7570 -1.0186  1.9149
67331SOL    HW213719   4.839   3.555   0.825 -0.5739  0.1798  2.0874
67332SOL     OW13720  11.212   6.692  10.337 -0.2149 -0.3353 -0.4849
67332SOL    HW113721  11.202   6.610  10.386 -0.0188 -0.5048 -0.7260
67332SOL    HW213722  11.163   6.677  10.256  0.9894 -0.7358 -1.1539
67333SOL     OW13723   8.486   6.197   6.121  0.2349  0.0208  0.0722
67333SOL    HW113724   8.410   6.140   6.111 -0.2162  0.5611  0.3677
67333SOL    HW213725   8.453   6.273   6.169  0.3683  1.4225 -1.9216
67334SOL     OW13726  10.628   3.266   3.818  0.1931 -0.2450 -0.1230
67334SOL    HW113727  10.609   3.360   3.808 -0.5520 -0.1998  1.4185
67334SOL    HW213728  10.714   3.255   3.778  0.2307  1.0831 -0.4522
67335SOL     OW13729   1.420  11.659  13.277 -0.1788 -0.0854  0.3567
67335SOL    HW113730   1.328  11.667  13.251 -0.2960  0.2986  0.8734
67335SOL    HW213731   1.442  11.567  13.262 -0.6343 -0.1699  0.2042
67336SOL     OW13732   7.971   3.153   3.778 -0.4236 -0.2061 -0.2114
67336SOL    HW113733   8.020   3.144   3.859  0.8543 -1.2165 -1.0610
67336SOL    HW213734   7.886   3.189   3.805 -0.2651 -1.1128  1.6296
67337SOL     OW13735   8.786   6.111   9.722  0.2547  0.3384  0.0848
67337SOL    HW113736   8.710   6.144   9.769 -0.2538 -0.2786 -0.2983
67337SOL    HW213737   8.861   6.145   9.771 -0.2618  0.0148  1.1251
67338SOL     OW13738   8.521  12.228   5.923 -0.3636 -0.3742  0.2167
67338SOL    HW113739   8.511  12.167   5.849 -0.8154  1.3106 -1.1871
67338SOL    HW213740   8.477  12.308   5.894  1.2788  1.0598  1.4609
67339SOL     OW13741   1.359   0.754  12.187 -0.0699  0.1140  0.4120
67339SOL    HW113742   1.393   0.773  12.274 -0.2774  1.9856  0.1177
67339SOL    HW213743   1.379   0.832  12.135 -3.3583  0.7105 -0.1884
67340SOL     OW13744   4.014   0.782   9.756  0.5283 -0.1282 -0.2542
67340SOL    HW113745   4.039   0.706   9.809 -4.5977 -1.4750  0.8023
67340SOL    HW213746   4.024   0.857   9.816 -0.0112 -0.8572  0.7788
67341SOL     OW13747  10.971   0.344  10.668 -0.2134 -0.8588 -0.1548
67341SOL    HW113748  10.994   0.252  10.653  0.7089 -0.7281  0.3692
67341SOL    HW213749  10.919   0.343  10.749 -1.1914 -1.0380 -0.7716
67342SOL     OW13750  11.059   4.463   2.373  0.7069  0.2055  0.1989
67342SOL    HW113751  11.087   4.502   2.456 -0.0297 -1.0515  1.0765
67342SOL    HW213752  11.129   4.402   2.350  1.5080  1.4349 -0.7936
67343SOL     OW13753  12.726   4.280  13.163 -0.3874 -0.2124 -0.1058
67343SOL    HW113754  12.668   4.333  13.217  1.3817 -0.7606  2.5425
67343SOL    HW213755  12.789   4.342  13.127 -0.7454 -0.0282 -0.4284
67344SOL     OW13756  12.422   7.825  13.262  0.2091 -0.7243 -0.1220
67344SOL    HW113757  12.460   7.741  13.236  2.1937 -1.1395  3.4706
67344SOL    HW213758  12.497   7.884  13.269 -1.0306  1.1861 -1.5721
67345SOL     OW13759  11.934   8.407   8.778 -0.2304  0.2292 -0.5455
67345SOL    HW113760  11.936   8.397   8.683 -0.4635  0.1464 -0.5436
67345SOL    HW213761  11.860   8.352   8.806 -0.8825  1.1318 -0.4291
67346SOL     OW13762   7.902   4.955   3.572 -0.1058  0.1033 -0.3225
67346SOL    HW113763   7.990   4.923   3.552 -0.6722 -1.1002 -1.0520
67346SOL    HW213764   7.911   5.050   3.577  1.4688 -0.0711  0.9074
67347SOL     OW13765   5.798   5.559  12.640  0.3825  0.2564 -0.4902
67347SOL    HW113766   5.766   5.470  12.657  0.2826 -0.2661 -3.0741
67347SOL    HW213767   5.724   5.604  12.599  0.6725  1.3166  0.1076
67348SOL     OW13768   8.855   7.212   3.935  0.2989  0.0813 -0.3756
67348SOL    HW113769   8.939   7.256   3.949  0.3684  0.3257 -1.4915
67348SOL    HW213770   8.806   7.227   4.017  0.7386  1.3059 -0.3240
67349SOL     OW13771  12.245  11.599   8.143  0.2170 -0.9229  0.2133
67349SOL    HW113772  12.269  11.584   8.235 -0.1887  1.3173  0.7288
67349SOL    HW213773  12.173  11.662   8.147  0.5638 -0.3570 -1.6670
67350SOL     OW13774   0.095  12.665  11.942 -0.0701 -0.1987  0.2927
67350SOL    HW113775   0.100  12.673  11.847  1.0187 -1.5788  0.1978
67350SOL    HW213776   0.088  12.755  11.973  4.4293  0.8401 -0.9127
67351SOL     OW13777   5.199   0.919  11.022 -0.7622  0.0648 -0.0416
67351SOL    HW113778   5.158   0.933  11.107 -1.3138  0.8353 -0.4146
67351SOL    HW213779   5.211   1.007  10.986 -0.1928 -0.2299 -0.6011
67352SOL     OW13780   7.307   4.878  11.930  0.1117  0.3917 -0.0730
67352SOL    HW113781   7.247   4.804  11.924  2.3460 -1.8030  2.1111
67352SOL    HW213782   7.277   4.928  12.005  0.2659  0.0105  0.2449
67353SOL     OW13783   7.450   2.180   7.969  0.3424 -0.0656 -0.2120
67353SOL    HW113784   7.365   2.138   7.981  0.8915 -1.2896 -0.4186
67353SOL    HW213785   7.430   2.270   7.943 -0.8840 -0.4604 -0.6835
67354SOL     OW13786   7.390   7.796   6.388  0.3208 -0.1619 -0.1265
67354SOL    HW113787   7.462   7.742   6.419  0.5295  1.4601  2.5033
67354SOL    HW213788   7.414   7.818   6.298  2.2346 -1.0600  0.1062
67355SOL     OW13789   2.628   7.948   8.803  0.3970 -0.4671  0.6063
67355SOL    HW113790   2.655   7.858   8.785  2.7934  0.0477  1.2624
67355SOL    HW213791   2.678   7.973   8.880 -1.7378  0.8119  1.6682
67356SOL     OW13792   2.575   9.551   1.918  0.2298 -0.3458 -0.1937
67356SOL    HW113793   2.488   9.539   1.954  1.0194 -0.6043  1.7229
67356SOL    HW213794   2.565   9.621   1.853 -0.8775  1.6261  1.9822
67357SOL     OW13795   6.386   6.229  10.938  0.0932  0.2118  0.6221
67357SOL    HW113796   6.385   6.301  11.000  0.9607 -0.0338  0.9371
67357SOL    HW213797   6.369   6.151  10.991 -1.2797  0.2144  0.2201
67358SOL     OW13798   9.206  13.173   4.257  0.5566  0.2287 -0.0008
67358SOL    HW113799   9.145  13.195   4.186 -2.4311 -0.9954  1.9917
67358SOL    HW213800   9.204  13.249   4.314  0.3841 -0.0594  0.3814
67359SOL     OW13801   0.671  13.345  12.111 -0.2675 -0.5313 -0.5734
67359SOL    HW113802   0.689  13.370  12.201 -1.6947 -3.0849  0.5415
67359SOL    HW213803   0.735  13.276  12.092 -0.0065 -0.0511 -1.5100
67360SOL     OW13804   7.166   2.536   7.655  0.2912 -0.0583  0.0062
67360SOL    HW113805   7.089   2.587   7.633  0.5632  1.2843  1.9039
67360SOL    HW213806   7.236   2.571   7.600 -0.0848 -0.1992 -0.5686
67361SOL     OW13807   3.947  11.488   9.389 -0.0339  0.3671  0.0842
67361SOL    HW113808   3.958  11.563   9.447  1.1358  2.1995 -2.3413
67361SOL    HW213809   4.036  11.456   9.372 -0.4056 -0.5822 -0.1790
67362SOL     OW13810   7.302  12.655   9.048  0.0159  0.1212  0.6685
67362SOL    HW113811   7.270  12.731   9.001 -1.1729 -0.4174  0.5701
67362SOL    HW213812   7.293  12.678   9.141 -0.4407  0.0667  0.6393
67363SOL     OW13813   5.090   0.466  12.717  0.1522 -0.5616  0.5269
67363SOL    HW113814   5.072   0.379  12.751 -1.8996 -0.3277  0.1725
67363SOL    HW213815   5.147   0.507  12.783  0.5091 -1.8784  1.0585
67364SOL     OW13816   3.171   2.382   7.970  0.1360 -0.1974 -0.2926
67364SOL    HW113817   3.167   2.347   7.880 -0.2936 -0.8435 -0.0295
67364SOL    HW213818   3.248   2.440   7.969  0.2672 -0.3634 -1.0182
67365SOL     OW13819   1.243   0.860  11.444  0.1606  0.2673  0.0622
67365SOL    HW113820   1.264   0.787  11.501  0.8279  2.3622  2.6957
67365SOL    HW213821   1.302   0.851  11.369 -0.9757 -2.7418 -0.6270
67366SOL     OW13822   5.368  10.137   9.697  0.0125 -0.2862  0.0197
67366SOL    HW113823   5.349  10.201   9.765 -1.8147  0.2920 -0.9540
67366SOL    HW213824   5.418  10.068   9.741  0.2636  0.8301  1.5429
67367SOL     OW13825  12.467  10.030  12.432  0.0486  0.9131 -0.0188
67367SOL    HW113826  12.393  10.090  12.421 -0.5357  0.5799  1.7610
67367SOL    HW213827  12.538  10.070  12.381 -0.8208  2.1752 -0.3037
67368SOL     OW13828   8.050  11.796   4.445 -0.0412 -0.5533 -0.0012
67368SOL    HW113829   8.010  11.856   4.508  2.2096 -1.3045  2.3332
67368SOL    HW213830   8.048  11.711   4.488 -0.0434 -1.4936 -1.7611
67369SOL     OW13831   3.585  13.579   4.107 -0.1455 -0.0847  0.1980
67369SOL    HW113832   3.579  13.610   4.197  2.0454 -0.2027  0.4421
67369SOL    HW213833   3.585  13.484   4.113 -0.3777 -0.0952  0.0400
67370SOL     OW13834  13.173   1.955  10.000  0.1477 -0.0928 -0.1150
67370SOL    HW113835  13.127   2.008   9.935 -1.8867 -0.1628  1.1867
67370SOL    HW213836  13.207   2.019  10.063 -0.5186 -0.1946  0.3550
67371SOL     OW13837   4.144   8.441   6.474  0.7649 -0.2456  0.3229
67371SOL    HW113838   4.147   8.352   6.439 -0.4516  0.3156 -1.3629
67371SOL    HW213839   4.142   8.496   6.396 -0.9675  1.1588  1.3033
67372SOL     OW13840   4.351   9.272  11.247  0.7251 -0.0833  0.2168
67372SOL    HW113841   4.424   9.334  11.244  1.5806 -1.0631  0.4714
67372SOL    HW213842   4.386   9.195  11.291 -0.2730 -0.8313 -0.2514
67373SOL     OW13843  12.558   6.005   0.224  0.2418  0.0855  0.1231
67373SOL    HW113844  12.566   6.066   0.151  0.6929 -0.5467 -0.3699
67373SOL    HW213845  12.641   5.957   0.224 -0.6617 -1.5584 -0.4568
67374SOL     OW13846   2.927   1.764  13.068 -0.0627  0.3435 -0.3931
67374SOL    HW113847   2.907   1.677  13.101  2.4107 -1.0324 -2.2147
67374SOL    HW213848   2.856   1.783  13.006 -0.9578 -0.0485  0.4799
67375SOL     OW13849  11.984   0.392   6.430  0.1553  0.3143  0.6814
67375SOL    HW113850  12.004   0.398   6.524 -0.9353  1.4756  0.8726
67375SOL    HW213851  12.064   0.357   6.390  2.0856  3.3242  1.5606
67376SOL     OW13852   6.178   7.084   8.341 -0.0555 -0.1928 -0.1966
67376SOL    HW113853   6.187   7.161   8.284  0.5871  0.2396  0.4573
67376SOL    HW213854   6.189   7.119   8.429  1.6790 -1.2384  0.0443
67377SOL     OW13855   5.773   3.726   8.670 -0.5549 -0.3046  0.0522
67377SOL    HW113856   5.798   3.779   8.595  1.3720  1.7106  1.9706
67377SOL    HW213857   5.699   3.772   8.709 -2.2595 -1.9253 -1.1184
67378SOL     OW13858   9.660   6.955   3.038 -0.7419  0.0380 -0.5287
67378SOL    HW113859   9.654   7.048   3.058  2.4416  0.3325 -0.4377
67378SOL    HW213860   9.654   6.950   2.942 -0.9571  0.2940 -0.5308
67379SOL     OW13861   8.912  12.715  12.494  0.1396 -0.0840  0.4816
67379SOL    HW113862   8.935  12.807  12.479  1.0612 -0.0208  2.0408
67379SOL    HW213863   8.834  12.701  12.441 -0.4198  1.8026  0.7155
67380SOL     OW13864  11.404  10.184   8.906  0.4536  0.7178 -0.4163
67380SOL    HW113865  11.381  10.164   8.997 -0.5941  0.4708 -0.7244
67380SOL    HW213866  11.417  10.279   8.905  1.0872  0.6477  0.1105
67381SOL     OW13867   8.016   8.035   6.130  0.2309  0.2521 -0.6018
67381SOL    HW113868   8.072   8.009   6.204 -0.4306 -0.4277 -0.3243
67381SOL    HW213869   7.985   8.122   6.152  0.9400  0.5150 -0.6174
67382SOL     OW13870  10.198   9.268   7.178  0.1468  0.1076  0.3557
67382SOL    HW113871  10.194   9.174   7.161 -1.1822  0.3406 -0.7687
67382SOL    HW213872  10.131   9.284   7.245 -0.5797  0.4366 -0.4371
67383SOL     OW13873   5.877   9.408   4.122 -0.1941 -0.0727 -0.0073
67383SOL    HW113874   5.848   9.473   4.058  0.8828  0.9992  0.5594
67383SOL    HW213875   5.797   9.365   4.150 -0.9343  1.0039 -0.4005
67384SOL     OW13876   3.796   2.782   0.659  0.3663  0.4113  0.3007
67384SOL    HW113877   3.890   2.780   0.682  0.6691  0.4428 -0.8932
67384SOL    HW213878   3.772   2.690   0.648  0.8984  0.4873 -1.8332
67385SOL     OW13879  10.174   7.285   6.213  0.6720 -0.0013  0.1041
67385SOL    HW113880  10.217   7.257   6.132  0.6706 -1.7252  0.6534
67385SOL    HW213881  10.204   7.375   6.227  1.8721 -0.2008 -0.9992
67386SOL     OW13882   3.353   6.769   7.609  0.2267 -0.1659 -0.3384
67386SOL    HW113883   3.309   6.833   7.553 -1.3221 -1.1223 -0.2497
67386SOL    HW213884   3.356   6.811   7.696 -4.5246 -1.6393  0.8156
67387SOL     OW13885   1.786   8.363  11.418  0.7441 -0.0791  0.2879
67387SOL    HW113886   1.701   8.396  11.447  0.6667 -0.8710  1.0133
67387SOL    HW213887   1.836   8.442  11.395  0.0152  0.4265  0.4115
67388SOL     OW13888   8.808   8.439   4.780 -0.1189 -0.3973 -0.0294
67388SOL    HW113889   8.891   8.393   4.768 -0.4128 -0.9264 -0.0400
67388SOL    HW213890   8.833   8.524   4.815  0.4956 -0.1964 -0.9288
67389SOL     OW13891   3.071   6.909   8.252  0.0623  0.3492  0.5954
67389SOL    HW113892   3.073   6.963   8.331  0.4776  1.9188 -0.4414
67389SOL    HW213893   2.978   6.901   8.231 -0.0845 -0.5082  1.5028
67390SOL     OW13894   6.847  11.622   5.976 -0.5276 -0.2828  0.0573
67390SOL    HW113895   6.788  11.691   5.944  0.6327 -0.4696 -2.7152
67390SOL    HW213896   6.919  11.669   6.018  0.5624  0.2976 -2.3492
67391SOL     OW13897   3.181   1.708  13.561 -1.0018 -0.1934 -0.1663
67391SOL    HW113898   3.244   1.642  13.533 -0.3357  0.0825  0.6287
67391SOL    HW213899   3.140   1.670  13.639 -0.1039  0.5963  0.7208
67392SOL     OW13900   1.328  12.120   7.970  0.1311 -0.1587 -0.0903
67392SOL    HW113901   1.292  12.142   7.884  1.6603 -0.5535 -0.8601
67392SOL    HW213902   1.303  12.029   7.984  1.5114 -0.7053 -1.0147
67393SOL     OW13903   0.674   5.291   2.254 -0.9050 -0.5820  0.1132
67393SOL    HW113904   0.698   5.235   2.328 -0.8407  0.5996  1.0284
67393SOL    HW213905   0.578   5.285   2.250 -1.0625  0.6234  1.3850
67394SOL     OW13906   2.069   4.456   8.532  0.0179  0.4616 -0.1046
67394SOL    HW113907   2.120   4.413   8.464 -0.5230  0.7756 -0.7169
67394SOL    HW213908   2.054   4.544   8.499 -0.5189  0.5174  0.2734
67395SOL     OW13909   0.546   1.090  10.684  0.0749  0.0879  0.0811
67395SOL    HW113910   0.571   1.148  10.755  2.0078  0.5099 -0.8676
67395SOL    HW213911   0.581   1.132  10.605  0.9827 -2.0193 -0.7172
67396SOL     OW13912  11.991   5.866   9.349  0.0532  0.5670  0.0869
67396SOL    HW113913  11.932   5.942   9.354  0.5204  0.9338  0.1638
67396SOL    HW213914  12.020   5.864   9.258 -0.5793 -0.0072 -0.1095
67397SOL     OW13915  10.566   8.368   7.555  0.0530 -0.4033 -0.2451
67397SOL    HW113916  10.588   8.344   7.465 -1.0149  1.2961 -1.0165
67397SOL    HW213917  10.475   8.342   7.566  0.5462 -1.8245  0.8495
67398SOL     OW13918   8.556   8.335  12.018  0.3471  0.5443 -0.3322
67398SOL    HW113919   8.542   8.241  12.019 -0.2689  0.5924 -1.9110
67398SOL    HW213920   8.595   8.355  12.104  1.4071 -1.2679 -0.3484
67399SOL     OW13921   2.246   0.208   9.680 -0.4088  0.3658  0.4141
67399SOL    HW113922   2.312   0.195   9.748  1.0057  1.6714 -0.6316
67399SOL    HW213923   2.250   0.129   9.626  0.5287  0.5589  0.1930
67400SOL     OW13924   8.114  11.023   9.694 -0.0903 -0.6531 -0.0683
67400SOL    HW113925   8.152  10.950   9.743 -1.1013 -1.0328  0.1776
67400SOL    HW213926   8.159  11.100   9.728  1.1136 -1.1690 -0.4508
67401SOL     OW13927   4.165   0.233  11.150  0.3512  0.0864  0.2681
67401SOL    HW113928   4.086   0.225  11.097  0.4207  1.6955 -0.1135
67401SOL    HW213929   4.215   0.303  11.110  1.3834 -0.0380  1.2640
67402SOL     OW13930   4.436   5.143   9.886  0.0753  0.2555 -0.1975
67402SOL    HW113931   4.471   5.220   9.932  0.3201 -0.1597  0.3137
67402SOL    HW213932   4.387   5.180   9.812  1.2512  0.8547 -0.6933
67403SOL     OW13933  10.658  10.212   1.314 -0.7737  0.1864  0.1160
67403SOL    HW113934  10.574  10.258   1.305 -0.7611 -0.0106 -1.2433
67403SOL    HW213935  10.636  10.120   1.302 -0.3640  0.1403 -0.2895
67404SOL     OW13936   7.822  10.176  11.118 -0.0346 -0.0852  0.0884
67404SOL    HW113937   7.768  10.254  11.136 -1.1186 -1.1463  1.7752
67404SOL    HW213938   7.882  10.172  11.192  1.8110  0.5338 -1.2963
67405SOL     OW13939  12.369   7.461   7.200  0.2076  0.0091  0.2993
67405SOL    HW113940  12.453   7.417   7.187  0.6238  0.9378 -0.2227
67405SOL    HW213941  12.368   7.531   7.135  0.6203  2.3328  2.5827
67406SOL     OW13942  11.553   2.972  12.052  0.4795 -0.1496  0.2002
67406SOL    HW113943  11.499   2.966  12.131  0.4860  1.2508  0.3217
67406SOL    HW213944  11.562   2.881  12.023  0.0638 -0.6381  1.5262
67407SOL     OW13945   0.169   3.542   9.462  0.3219 -0.4326  0.2426
67407SOL    HW113946   0.237   3.593   9.507  1.3995 -0.0660 -1.6588
67407SOL    HW213947   0.120   3.500   9.532  0.7592  1.5082  1.8032
67408SOL     OW13948  10.717   2.051   0.807 -0.4171  0.1527 -0.5175
67408SOL    HW113949  10.639   2.096   0.838 -0.4966 -0.8427  0.8088
67408SOL    HW213950  10.725   2.077   0.715 -2.1465  0.4702 -0.6066
67409SOL     OW13951   7.836   0.606   6.572 -0.3799  0.5038  0.4664
67409SOL    HW113952   7.876   0.573   6.653  2.2534  0.7346 -0.6458
67409SOL    HW213953   7.802   0.527   6.529  0.1776  0.0901  0.7698
67410SOL     OW13954  10.779  13.067   8.907 -0.1067 -0.5549  0.0713
67410SOL    HW113955  10.798  13.045   8.998  1.4469  1.3967  0.2791
67410SOL    HW213956  10.695  13.112   8.910 -1.0392 -2.2009  0.2182
67411SOL     OW13957   1.863   8.517  10.743 -0.2766 -0.0290  0.2020
67411SOL    HW113958   1.818   8.438  10.716  0.2802  0.0684 -1.0799
67411SOL    HW213959   1.933   8.487  10.800  0.9649 -0.6624 -1.5764
67412SOL     OW13960   6.095   3.377   0.737 -0.4790 -0.3789  0.6785
67412SOL    HW113961   6.144   3.392   0.656  0.9280 -0.7898  1.4155
67412SOL    HW213962   6.064   3.464   0.763  1.5680  0.2425  1.2115
67413SOL     OW13963   6.844   7.035   3.732  0.2971  0.1152 -0.0237
67413SOL    HW113964   6.754   7.034   3.700  0.5968 -1.1250 -0.9069
67413SOL    HW213965   6.870   6.942   3.734  0.9804  0.2919  1.9272
67414SOL     OW13966   9.951  13.104   1.923 -0.2161  0.1906 -0.5249
67414SOL    HW113967   9.926  13.064   2.006  0.9298 -0.5115 -0.5017
67414SOL    HW213968   9.963  13.197   1.945  0.7084 -0.0951  0.2500
67415SOL     OW13969   4.325   1.500   7.249 -0.4862  0.3985  0.9876
67415SOL    HW113970   4.265   1.442   7.203 -0.0886  0.8642 -0.1646
67415SOL    HW213971   4.336   1.460   7.335 -0.8103 -0.8179  0.4893
67416SOL     OW13972   8.316   2.706   8.494 -0.4936  0.3219 -0.2162
67416SOL    HW113973   8.394   2.752   8.463 -0.6029  0.4923 -0.2390
67416SOL    HW213974   8.342   2.614   8.497  0.0350  0.4953  0.7710
67417SOL     OW13975   9.676   4.539  10.746  0.3772 -0.5095  0.1687
67417SOL    HW113976   9.583   4.545  10.769 -0.1070 -2.2610 -1.1064
67417SOL    HW213977   9.706   4.630  10.744 -1.3964  0.1183  0.2832
67418SOL     OW13978  13.187  10.242   2.304 -0.0596  0.1906 -0.4813
67418SOL    HW113979  13.202  10.254   2.398 -2.4792  0.2611 -0.0580
67418SOL    HW213980  13.200  10.148   2.290 -1.8044 -0.2185  0.3977
67419SOL     OW13981   2.131   6.818   0.575 -0.1779 -0.1091 -0.2860
67419SOL    HW113982   2.220   6.788   0.591 -0.5791 -0.7023  1.0085
67419SOL    HW213983   2.117   6.887   0.640 -1.5374 -1.8996  1.4722
67420SOL     OW13984   2.892  13.069   5.022 -0.2176 -0.2438 -0.5597
67420SOL    HW113985   2.973  13.040   5.063 -1.7340 -1.2878  1.9754
67420SOL    HW213986   2.827  13.067   5.093 -2.7097 -0.5302 -2.6821
67421SOL     OW13987   9.778  10.692   9.360  0.7303 -0.2231 -0.4476
67421SOL    HW113988   9.820  10.610   9.387  1.0427 -0.8617 -2.6591
67421SOL    HW213989   9.827  10.760   9.404  0.4225 -1.1912  1.5090
67422SOL     OW13990   7.778   8.201   8.986  0.3224  0.2977 -0.2152
67422SOL    HW113991   7.843   8.184   9.055  0.2320  0.2610 -0.1380
67422SOL    HW213992   7.705   8.242   9.032 -1.1862 -2.7292  0.3817
67423SOL     OW13993  12.620  13.482  12.790  0.1451 -0.4598  0.5376
67423SOL    HW113994  12.594  13.552  12.850  0.7217 -1.2473  1.7469
67423SOL    HW213995  12.556  13.412  12.806 -1.5010  0.3655 -1.9024
67424SOL     OW13996   4.341   9.282   2.081  0.0911  0.7439  0.2144
67424SOL    HW113997   4.305   9.336   2.011 -0.9664 -1.4737 -1.0659
67424SOL    HW213998   4.265   9.245   2.125  0.7717  0.2694  1.0318
67425SOL     OW13999   5.759   9.822   0.793  0.4027 -0.1672  0.6566
67425SOL    HW114000   5.745   9.851   0.883 -1.6540 -0.6373  0.5532
67425SOL    HW214001   5.687   9.863   0.744  0.1719 -1.6827 -0.3416
67426SOL     OW14002  11.416   6.576  10.470 -0.7444  0.3470 -0.0266
67426SOL    HW114003  11.423   6.507  10.405 -0.2722  1.1821 -0.8782
67426SOL    HW214004  11.337   6.554  10.520  0.0004 -1.4084  0.4649
67427SOL     OW14005   7.137   4.476  11.310 -0.1533  0.4083 -0.1901
67427SOL    HW114006   7.174   4.387  11.312 -0.6786  0.1890 -0.0261
67427SOL    HW214007   7.194   4.524  11.249  0.4276  0.0919  0.0900
67428SOL     OW14008   0.090   9.193   0.821  0.3467 -0.1125  0.2154
67428SOL    HW114009   0.038   9.157   0.892 -0.5265  1.9489  0.6775
67428SOL    HW214010   0.170   9.140   0.821 -0.1582 -0.9413  1.8983
67429SOL     OW14011   7.148  10.087   8.606 -0.2533  0.3350 -0.6404
67429SOL    HW114012   7.069  10.140   8.619 -0.0206  0.1799  1.9691
67429SOL    HW214013   7.214  10.129   8.661  0.8156 -0.9029 -0.9237
67430SOL     OW14014  13.324   6.116   1.236  0.0103 -0.4291  0.7307
67430SOL    HW114015  13.255   6.164   1.190 -0.0536 -0.7317  0.5058
67430SOL    HW214016  13.379   6.184   1.276 -0.6684 -0.2024  1.2842
67431SOL     OW14017   3.500   6.019   4.555  0.2466  0.3920  0.1198
67431SOL    HW114018   3.455   6.104   4.559  2.3234  1.5933 -0.2033
67431SOL    HW214019   3.518   6.006   4.462  0.4655 -0.1244  0.2303
67432SOL     OW14020   8.353   8.223   0.561 -0.2124 -0.5321 -0.2906
67432SOL    HW114021   8.380   8.145   0.609  3.2270  0.8336  0.3031
67432SOL    HW214022   8.319   8.282   0.628  0.2188 -0.3457 -0.2329
67433SOL     OW14023   7.128   5.903   0.016 -0.3039  0.5045 -0.0124
67433SOL    HW114024   7.086   5.921  -0.069  0.9775 -0.7261 -0.9596
67433SOL    HW214025   7.161   5.989   0.044  1.4418  0.5975 -2.0372
67434SOL     OW14026  12.782   1.654   8.192 -0.4667  0.4475 -0.4416
67434SOL    HW114027  12.828   1.721   8.243  0.2899 -0.7351  0.4885
67434SOL    HW214028  12.850   1.590   8.171 -1.6896 -1.6023  1.3781
67435SOL     OW14029   0.377  10.777   2.302 -0.3986  0.4049  0.1907
67435SOL    HW114030   0.370  10.682   2.315  1.3658  0.0595 -0.9712
67435SOL    HW214031   0.317  10.795   2.230 -2.3802  0.5936  1.8002
67436SOL     OW14032  12.934   0.257   9.184  0.4165 -0.0830 -0.2553
67436SOL    HW114033  12.936   0.227   9.092  0.4279 -0.8562 -0.0116
67436SOL    HW214034  12.864   0.322   9.186 -2.0170 -2.4962 -0.1220
67437SOL     OW14035   6.333  13.628   9.921  0.3276 -0.4006  0.2438
67437SOL    HW114036   6.352  13.640  10.014 -0.0026 -0.0724  0.2728
67437SOL    HW214037   6.255  13.682   9.905 -2.3532 -3.7693  0.7674
67438SOL     OW14038   1.359   0.040   1.173  0.9339 -0.2883  0.2467
67438SOL    HW114039   1.296   0.074   1.109  0.0153  0.2449  1.3935
67438SOL    HW214040   1.420  -0.013   1.121  0.3157  0.2571 -1.0805
67439SOL     OW14041  12.695  13.517  12.528  0.9021 -0.7448  0.0377
67439SOL    HW114042  12.689  13.499  12.622 -0.4149  2.3737  0.7011
67439SOL    HW214043  12.762  13.585  12.521 -0.7211  0.8530 -0.8722
67440SOL     OW14044   5.777   9.594   8.437 -0.0301 -0.4279  0.4199
67440SOL    HW114045   5.775   9.500   8.457  0.0277 -0.8037 -1.1747
67440SOL    HW214046   5.853   9.627   8.484 -0.4761 -1.0201  1.5974
67441SOL     OW14047   6.055   5.754   8.442  0.3326  0.4078  0.0186
67441SOL    HW114048   5.973   5.801   8.427  0.5598  1.0478  0.7650
67441SOL    HW214049   6.076   5.769   8.534 -0.6193 -2.8165  0.8765
67442SOL     OW14050   4.022   3.177   0.171  0.1298  0.0341  0.2373
67442SOL    HW114051   3.970   3.098   0.157  0.1350 -0.2202  1.5155
67442SOL    HW214052   3.978   3.222   0.244 -0.5175  1.7910 -1.1653
67443SOL     OW14053   7.668   1.711   7.098  0.6890 -0.0662 -0.3077
67443SOL    HW114054   7.622   1.746   7.021  0.3064  0.6426  0.2270
67443SOL    HW214055   7.601   1.660   7.144  0.0668  1.8538  1.0503
67444SOL     OW14056   5.342   2.451   4.659 -0.1438 -0.6354  0.3565
67444SOL    HW114057   5.437   2.454   4.676 -0.2641  2.9645  1.1767
67444SOL    HW214058   5.303   2.451   4.746 -0.8699 -0.4404  0.0360
67445SOL     OW14059   7.050   2.176   6.076 -0.4257  0.2964 -0.3209
67445SOL    HW114060   7.020   2.086   6.087  0.5822 -0.2994 -2.0266
67445SOL    HW214061   6.985   2.217   6.020  0.0616  0.0704 -1.0611
67446SOL     OW14062   7.475   2.707   9.777 -0.5233 -0.0421  0.2205
67446SOL    HW114063   7.508   2.796   9.790 -0.9668  0.4921 -1.8790
67446SOL    HW214064   7.392   2.705   9.824  0.6799 -0.2239  2.4569
67447SOL     OW14065   4.435   6.478  11.433  0.2388  0.1988 -0.0129
67447SOL    HW114066   4.381   6.426  11.375 -1.3773  0.4529  1.1859
67447SOL    HW214067   4.524   6.467  11.400 -0.6075  0.4093 -2.5397
67448SOL     OW14068   2.202   2.211  13.354  0.1268 -0.4647 -0.1020
67448SOL    HW114069   2.162   2.150  13.416  0.0578 -1.7612 -1.3711
67448SOL    HW214070   2.279   2.165  13.320 -0.0675  0.0210 -1.2807
67449SOL     OW14071   1.049   9.649   7.659  0.8217  0.3828 -0.3054
67449SOL    HW114072   1.070   9.699   7.579  1.5002 -0.6558 -0.7984
67449SOL    HW214073   0.960   9.618   7.645  1.0502 -0.0650 -0.8194
67450SOL     OW14074   1.208   9.336  10.080 -0.5750  0.7115  0.5838
67450SOL    HW114075   1.144   9.276  10.120 -0.7245  0.6350  0.2369
67450SOL    HW214076   1.285   9.282  10.063 -1.0295  0.3779 -0.5662
67451SOL     OW14077   1.845   3.550   8.271  0.3122 -0.1018 -0.3213
67451SOL    HW114078   1.855   3.541   8.177  2.0526  0.7334 -0.2571
67451SOL    HW214079   1.872   3.640   8.290 -0.5431 -0.0675  0.9254
67452SOL     OW14080   2.160  10.220  11.231 -0.1523  0.3413 -0.0027
67452SOL    HW114081   2.082  10.265  11.199 -0.0378  0.8335  0.4012
67452SOL    HW214082   2.153  10.223  11.327 -0.4120 -0.9707  0.0416
67453SOL     OW14083   2.185   9.009   5.277 -0.0670 -0.5929 -0.2610
67453SOL    HW114084   2.196   9.074   5.208 -0.3092 -0.3043 -0.0302
67453SOL    HW214085   2.100   8.968   5.260 -0.5962  0.1806  0.4382
67454SOL     OW14086   8.397   7.686   4.879 -0.2593 -0.0270  0.2155
67454SOL    HW114087   8.449   7.731   4.945 -1.6068  0.3985  1.0474
67454SOL    HW214088   8.403   7.593   4.901 -0.5063  0.0956  0.8092
67455SOL     OW14089   9.128   0.466   2.068  0.2283  0.3605 -0.1765
67455SOL    HW114090   9.094   0.551   2.042  0.7428  0.6191 -0.0121
67455SOL    HW214091   9.091   0.451   2.155 -0.3488  0.1387 -0.4562
67456SOL     OW14092  12.891  10.451   3.150  0.1949 -0.2020 -0.3418
67456SOL    HW114093  12.967  10.485   3.103 -0.7508 -0.9317 -2.5342
67456SOL    HW214094  12.861  10.524   3.204  1.1818  0.7744 -1.0900
67457SOL     OW14095  10.779   8.271  10.613  0.0721  0.2269 -0.2829
67457SOL    HW114096  10.694   8.227  10.621  0.2021  0.0650  0.2318
67457SOL    HW214097  10.808   8.283  10.703  0.1282  1.2034 -0.4188
67458SOL     OW14098   0.933   9.979  11.881 -0.1363 -0.2509 -0.0136
67458SOL    HW114099   0.861   9.995  11.942  0.3623  0.3952  0.4179
67458SOL    HW214100   0.975   9.899  11.913 -0.2143 -0.2218  0.1598
67459SOL     OW14101  10.648  10.054  11.306 -0.1669 -0.4482  0.4331
67459SOL    HW114102  10.670   9.975  11.356  0.3349 -0.5456  0.0718
67459SOL    HW214103  10.553  10.054  11.301 -0.2561 -0.2747  1.6452
67460SOL     OW14104   4.364   0.211  10.264  0.4325 -0.0425  0.5947
67460SOL    HW114105   4.375   0.144  10.331  0.0513 -0.0046  0.7015
67460SOL    HW214106   4.274   0.241  10.275  0.3344 -0.0981  0.0112
67461SOL     OW14107   5.974  12.963   3.044 -0.0042 -0.0259 -0.0591
67461SOL    HW114108   5.936  13.008   2.969  0.8197  2.0083  0.6583
67461SOL    HW214109   6.043  12.908   3.006  0.6943  1.2968 -0.7950
67462SOL     OW14110  10.756   1.299   5.951  0.8596 -0.3788 -0.7319
67462SOL    HW114111  10.760   1.277   5.857  0.1225  0.1236 -0.8831
67462SOL    HW214112  10.696   1.372   5.956  1.4665  0.0796  0.0594
67463SOL     OW14113  10.693  12.505   1.488 -0.4374  0.4026  0.0038
67463SOL    HW114114  10.663  12.415   1.497  0.7877 -0.1240 -0.8708
67463SOL    HW214115  10.781  12.505   1.525  0.2467  0.7967 -1.5280
67464SOL     OW14116   0.979   3.012   7.082 -0.3296  0.2428 -0.0047
67464SOL    HW114117   1.057   3.006   7.138 -0.7012 -1.5775  0.3782
67464SOL    HW214118   1.008   2.976   6.998 -0.4086  0.8035 -0.2747
67465SOL     OW14119   7.087   9.976   0.990 -0.1291  0.2648 -0.2577
67465SOL    HW114120   7.133   9.981   1.074 -0.7386 -1.7726  0.2585
67465SOL    HW214121   7.076  10.067   0.963  0.5008  0.9530  1.6425
67466SOL     OW14122  10.595   8.387  13.089 -0.1055 -0.1404  0.0131
67466SOL    HW114123  10.615   8.362  13.180  0.5738  1.0168  0.1970
67466SOL    HW214124  10.617   8.309  13.038 -1.5396 -1.2128  0.9338
67467SOL     OW14125   0.866  10.661  12.640  0.4054 -0.2602 -0.5714
67467SOL    HW114126   0.860  10.646  12.734  2.1284 -0.9343 -0.5406
67467SOL    HW214127   0.909  10.746  12.631 -1.4168  0.6901 -0.7840
67468SOL     OW14128   9.400  13.468   9.759  0.2552 -0.0281 -0.5579
67468SOL    HW114129   9.382  13.418   9.838 -0.6138  0.9967 -0.0846
67468SOL    HW214130   9.315  13.502   9.732  0.4231 -0.9237 -2.3408
67469SOL     OW14131   2.463   2.670   7.881  0.1323  0.5518 -0.1509
67469SOL    HW114132   2.394   2.736   7.870 -1.1987 -0.2637  2.4674
67469SOL    HW214133   2.475   2.664   7.976  3.6389  0.3958 -0.4852
67470SOL     OW14134   8.555  13.322   3.196 -0.2845 -0.1590 -0.7907
67470SOL    HW114135   8.469  13.327   3.153 -0.3365 -1.9879 -0.9749
67470SOL    HW214136   8.554  13.396   3.257 -2.1635 -0.3512 -0.5053
67471SOL     OW14137   2.954  12.405  10.693  0.2239  0.9478  0.0998
67471SOL    HW114138   2.986  12.465  10.626  0.3574  0.5800 -0.1638
67471SOL    HW214139   2.873  12.369  10.658  2.5295 -2.8114 -2.0107
67472SOL     OW14140   1.408   7.324   8.858 -0.0965  0.0128  0.1558
67472SOL    HW114141   1.400   7.412   8.896 -0.7861  0.3248 -0.6863
67472SOL    HW214142   1.320   7.303   8.827 -0.3460 -1.6748  1.8121
67473SOL     OW14143  12.251   6.677   3.604 -0.1306  0.2624 -0.4988
67473SOL    HW114144  12.287   6.764   3.590  0.1992  0.0732 -0.8392
67473SOL    HW214145  12.294   6.622   3.539 -1.0478  0.0300 -0.9177
67474SOL     OW14146   2.980   7.205   6.073 -0.7496  0.1668  0.5404
67474SOL    HW114147   3.007   7.207   5.981 -0.2492 -1.9729  0.5955
67474SOL    HW214148   2.885   7.198   6.070 -0.6451 -1.3736  0.1152
67475SOL     OW14149   9.877  10.384   8.748  0.1621 -0.6821  0.0429
67475SOL    HW114150   9.827  10.397   8.828 -0.5570  0.3978 -0.5583
67475SOL    HW214151   9.900  10.291   8.750  0.9096 -0.5053  1.9069
67476SOL     OW14152   5.573   4.994  12.610  0.3104  0.0957 -0.0511
67476SOL    HW114153   5.510   5.031  12.549 -0.1899 -1.0009 -0.2290
67476SOL    HW214154   5.520   4.958  12.681  0.7967  0.0017  0.2695
67477SOL     OW14155   7.473   3.155   1.595 -0.0168 -0.2018  0.1098
67477SOL    HW114156   7.559   3.134   1.631  0.4024  0.6506 -0.3391
67477SOL    HW214157   7.474   3.251   1.586  0.0442 -0.3527 -2.4144
67478SOL     OW14158   5.966   6.560   2.396  0.1345  0.2538 -0.0218
67478SOL    HW114159   5.906   6.571   2.470  0.3669  1.9936 -0.0523
67478SOL    HW214160   5.927   6.612   2.326  2.1181  2.2675  0.2585
67479SOL     OW14161   2.242   1.361   0.907 -0.2315  0.0296  0.1822
67479SOL    HW114162   2.254   1.328   0.996  0.5923 -0.6264 -0.1487
67479SOL    HW214163   2.331   1.382   0.877 -0.4241 -0.3270 -0.6867
67480SOL     OW14164   2.356  13.333   3.122 -0.3934 -0.0948  0.0509
67480SOL    HW114165   2.428  13.380   3.164  1.8087 -2.9195 -0.2495
67480SOL    HW214166   2.389  13.309   3.035 -1.3552 -2.0595  0.1526
67481SOL     OW14167   1.227   6.154   2.777  0.3356  0.0562  0.3582
67481SOL    HW114168   1.207   6.176   2.686 -3.8735  0.0292  1.0821
67481SOL    HW214169   1.224   6.059   2.781  0.6180  0.0515  0.5118
67482SOL     OW14170  10.625  10.822   9.722  0.1598  0.2187  0.0022
67482SOL    HW114171  10.713  10.827   9.685  0.0999 -0.5761 -0.2718
67482SOL    HW214172  10.567  10.823   9.646 -0.0081 -0.4622  0.1157
67483SOL     OW14173   3.307  13.248  10.190 -0.5444 -0.6688  0.1097
67483SOL    HW114174   3.243  13.303  10.143 -0.2732 -0.4625 -0.0194
67483SOL    HW214175   3.263  13.227  10.272 -1.5887 -2.1996 -0.7936
67484SOL     OW14176   9.852   4.569   6.113 -0.0012 -0.2825 -0.3060
67484SOL    HW114177   9.836   4.653   6.157  0.3677 -0.8901  1.0378
67484SOL    HW214178   9.927   4.532   6.159 -0.3405 -1.4900 -0.6969
67485SOL     OW14179   2.398   0.272   6.552  0.8032 -0.0585 -0.2882
67485SOL    HW114180   2.485   0.311   6.555  0.2780  1.1858  2.5996
67485SOL    HW214181   2.394   0.215   6.629 -1.4598  1.3531  0.7713
67486SOL     OW14182   3.664   9.043  11.656  0.6243 -0.3387 -0.1454
67486SOL    HW114183   3.590   9.067  11.600  0.8259 -1.4886 -0.9287
67486SOL    HW214184   3.675   8.949  11.643  0.5424 -0.7078  2.0030
67487SOL     OW14185   4.392   0.920   6.509  0.2951 -0.0636  0.7572
67487SOL    HW114186   4.313   0.969   6.487  1.6549  2.5666  1.3066
67487SOL    HW214187   4.412   0.869   6.430 -0.6028  1.1237 -0.2712
67488SOL     OW14188  11.096  10.799   9.487  0.0126 -0.5586 -0.0825
67488SOL    HW114189  11.155  10.743   9.538 -0.3495 -1.0980 -0.2511
67488SOL    HW214190  11.134  10.801   9.400  1.5956  1.7508  0.5620
67489SOL     OW14191   7.671  11.066  10.261  0.7658  0.1950 -0.1353
67489SOL    HW114192   7.735  11.086  10.330  0.1544  2.6529 -0.1776
67489SOL    HW214193   7.589  11.104  10.293 -0.0341 -0.5145 -1.2860
67490SOL     OW14194   4.437   0.611   4.590  0.7233 -0.3956 -0.4761
67490SOL    HW114195   4.401   0.651   4.669 -0.1782 -2.4394  0.2370
67490SOL    HW214196   4.400   0.662   4.518  0.0713  0.3648  0.3729
67491SOL     OW14197   2.982   0.102   1.170  0.6474 -0.0720 -0.1744
67491SOL    HW114198   3.059   0.113   1.226  0.5866 -0.6135  0.0205
67491SOL    HW214199   2.924   0.174   1.196  0.1924 -0.8861  1.2030
67492SOL     OW14200  13.247   8.133   6.117 -0.4322 -0.4034  0.1312
67492SOL    HW114201  13.241   8.130   6.021 -0.8792  1.8099  0.0388
67492SOL    HW214202  13.173   8.080   6.147 -1.1634  0.0629 -0.7913
67493SOL     OW14203  13.414   7.505   9.473 -0.0892 -0.0739 -0.3186
67493SOL    HW114204  13.323   7.494   9.444 -0.0546  0.4426 -0.6484
67493SOL    HW214205  13.441   7.418   9.502 -0.6078 -0.2855 -0.4517
67494SOL     OW14206   9.190   8.955  13.596  0.0944 -0.1932  0.2145
67494SOL    HW114207   9.278   8.973  13.628  0.2197  1.3326 -0.8942
67494SOL    HW214208   9.133   9.012  13.648  0.0081  0.3750 -0.4947
67495SOL     OW14209   7.335   8.320  12.207  0.4429 -0.9379 -0.1775
67495SOL    HW114210   7.246   8.319  12.241  1.0729 -1.6153  1.5530
67495SOL    HW214211   7.376   8.397  12.247  1.2042 -1.7585  0.6775
67496SOL     OW14212   5.118   0.532   5.088  0.0989  0.0997 -0.3180
67496SOL    HW114213   5.201   0.488   5.107  0.5297  1.0137 -0.0516
67496SOL    HW214214   5.061   0.462   5.054  1.0868 -0.4608 -0.8557
67497SOL     OW14215  12.952   9.749  12.827  0.5639 -0.2926  0.1113
67497SOL    HW114216  13.044   9.724  12.829  0.2800 -1.3381  1.6318
67497SOL    HW214217  12.953   9.842  12.804  2.0505 -0.0299  1.1197
67498SOL     OW14218   0.884   9.214   9.221  0.3017 -0.2460 -0.0069
67498SOL    HW114219   0.940   9.137   9.231  1.9943  0.8352 -0.8336
67498SOL    HW214220   0.899   9.244   9.131 -1.5994  0.1194 -0.2573
67499SOL     OW14221   2.229   2.014   2.891 -0.0814  0.3997  0.1741
67499SOL    HW114222   2.275   2.045   2.813  2.0293 -0.7278  0.8902
67499SOL    HW214223   2.204   1.924   2.871 -0.8099  0.5622  0.3012
67500SOL     OW14224   9.695   8.592   3.044 -0.1263  0.0944 -0.0853
67500SOL    HW114225   9.622   8.653   3.040 -0.9700 -0.8665  0.1297
67500SOL    HW214226   9.716   8.585   3.137 -0.3623 -0.3127 -0.0604
67501SOL     OW14227   1.349   7.283   5.616 -0.4521 -0.6257 -0.4640
67501SOL    HW114228   1.361   7.376   5.636 -1.2484 -0.7792  0.8253
67501SOL    HW214229   1.273   7.257   5.667  0.7210 -2.3974  0.4902
67502SOL     OW14230   6.641  10.963  11.382  0.3822 -0.2530 -0.4070
67502SOL    HW114231   6.657  10.887  11.326  1.7783 -1.5035  1.5340
67502SOL    HW214232   6.621  10.925  11.468 -1.1422  1.5807  0.0925
67503SOL     OW14233   8.168  11.740   1.176 -0.2420  0.0651  0.4421
67503SOL    HW114234   8.115  11.665   1.202 -2.3621  0.6040 -1.9537
67503SOL    HW214235   8.111  11.815   1.186  0.5598  0.8785 -0.7914
67504SOL     OW14236   1.043   2.569   2.257  0.4151 -0.4664  0.5722
67504SOL    HW114237   1.047   2.506   2.329 -1.2022 -2.5056 -0.9867
67504SOL    HW214238   0.953   2.561   2.223  0.6992  1.4182 -0.8303
67505SOL     OW14239   5.203   4.382  12.364 -0.0334  0.3639 -0.9839
67505SOL    HW114240   5.292   4.403  12.335  1.0103 -2.2971 -0.0109
67505SOL    HW214241   5.183   4.299  12.320 -1.1227 -0.2398  0.5796
67506SOL     OW14242   3.977   2.722   4.714  0.3711  0.0982 -0.0743
67506SOL    HW114243   3.896   2.673   4.722  0.7985 -0.3620  2.1208
67506SOL    HW214244   4.046   2.657   4.725  0.9609  0.9249  1.4644
67507SOL     OW14245   5.753   2.254   4.227  0.4108 -0.3128  0.2993
67507SOL    HW114246   5.696   2.195   4.178 -0.9769  0.8784  0.4257
67507SOL    HW214247   5.826   2.272   4.167 -0.4426 -0.1449 -0.7016
67508SOL     OW14248   8.282  12.082   1.439  0.0502 -0.2360  0.1767
67508SOL    HW114249   8.331  12.000   1.441  0.2589 -0.1116  0.0962
67508SOL    HW214250   8.315  12.129   1.362  0.3693  0.1959  0.5739
67509SOL     OW14251  10.990   7.510   6.013 -0.2435 -0.0807  0.0117
67509SOL    HW114252  10.997   7.568   6.088 -0.2580 -1.0490  0.7887
67509SOL    HW214253  10.900   7.477   6.017 -0.7188  0.9740 -1.2972
67510SOL     OW14254   9.171   8.123   8.780 -0.3254 -0.6647  0.3406
67510SOL    HW114255   9.157   8.072   8.700 -0.2296 -0.1458 -0.0136
67510SOL    HW214256   9.238   8.187   8.756 -0.0976 -0.6765  0.9209
67511SOL     OW14257  10.131  13.162  13.560 -0.2337 -0.2224 -0.4687
67511SOL    HW114258  10.143  13.086  13.503  0.2222 -0.4524 -0.0804
67511SOL    HW214259  10.076  13.222  13.510  1.2212  0.1486 -1.6857
67512SOL     OW14260  13.737  12.161   9.530 -0.4721 -0.0244  0.2257
67512SOL    HW114261  13.659  12.216   9.524 -0.4164 -0.0792 -1.4093
67512SOL    HW214262  13.776  12.185   9.614 -0.2491  2.7305 -0.5619
67513SOL     OW14263   9.234   0.968   6.099  0.1646  0.3593 -0.2360
67513SOL    HW114264   9.141   0.988   6.086  0.2336  0.2544 -0.8761
67513SOL    HW214265   9.274   0.980   6.014  0.6499 -0.1092 -0.0796
67514SOL     OW14266   2.769   3.513   5.779 -0.1452 -0.2817 -0.0148
67514SOL    HW114267   2.712   3.470   5.842  0.4760  1.3482  1.7480
67514SOL    HW214268   2.710   3.546   5.711 -1.2353  0.5080  1.2605
67515SOL     OW14269  12.541  13.320   7.775  0.0350  0.4687 -0.5309
67515SOL    HW114270  12.457  13.333   7.819 -0.5173 -0.6391 -1.2148
67515SOL    HW214271  12.518  13.315   7.682  0.8337 -0.0616 -0.7054
67516SOL     OW14272   4.579   1.615   5.948  0.5279 -0.3091  0.2425
67516SOL    HW114273   4.565   1.654   5.862  0.8585 -0.0544  0.3031
67516SOL    HW214274   4.557   1.684   6.010  0.7900 -0.3278  0.3560
67517SOL     OW14275   8.534   2.876   9.796  0.0664 -0.4660 -0.5082
67517SOL    HW114276   8.614   2.922   9.773  0.5666 -1.0796 -0.0126
67517SOL    HW214277   8.478   2.944   9.835  0.9271 -0.3340  0.5323
67518SOL     OW14278   9.777   7.229   8.214  0.1746 -0.0480  0.3559
67518SOL    HW114279   9.718   7.185   8.153 -0.6625 -0.9671  1.7476
67518SOL    HW214280   9.719   7.266   8.280  0.9591  2.1374 -0.1114
67519SOL     OW14281   8.381   8.489  10.851 -0.3236 -0.4928 -0.0317
67519SOL    HW114282   8.448   8.501  10.918  0.8114 -0.3048 -1.1674
67519SOL    HW214283   8.342   8.576  10.841  0.6681 -0.1214 -0.7941
67520SOL     OW14284   0.964   0.874   2.617 -0.4236 -0.4334  0.5556
67520SOL    HW114285   0.952   0.798   2.674 -2.9204 -0.5219  0.0396
67520SOL    HW214286   0.980   0.947   2.677  2.2584 -1.3191  1.0456
67521SOL     OW14287  12.119   9.795   6.623  0.1931  0.2476  0.4052
67521SOL    HW114288  12.073   9.750   6.694 -1.0493  1.3932  0.3814
67521SOL    HW214289  12.049   9.826   6.566  1.1560 -0.2987 -1.1292
67522SOL     OW14290   6.978  12.346  11.752  0.7130 -0.1640 -0.4957
67522SOL    HW114291   7.028  12.395  11.687 -0.3230 -1.0465 -1.9923
67522SOL    HW214292   6.892  12.332  11.712  0.1290 -0.9692  0.9489
67523SOL     OW14293  12.608   9.823   4.481 -0.5108  0.2194  0.0484
67523SOL    HW114294  12.638   9.853   4.567 -1.1154 -3.1888  1.6490
67523SOL    HW214295  12.688   9.795   4.437 -0.1775  2.1371 -0.6224
67524SOL     OW14296   2.787   7.296   1.362  0.1943 -0.0914  0.0645
67524SOL    HW114297   2.761   7.345   1.284  1.3484 -0.8794 -0.8479
67524SOL    HW214298   2.882   7.287   1.354  0.9524  2.8074  3.2969
67525SOL     OW14299   4.793  10.052  12.499  0.2809  0.2839 -0.0860
67525SOL    HW114300   4.811   9.979  12.438  3.1794  0.2531  0.6345
67525SOL    HW214301   4.819  10.130  12.450  1.9972  0.3155  0.7951
67526SOL     OW14302   2.295   2.149   5.170 -0.3038  0.4913 -0.1957
67526SOL    HW114303   2.311   2.055   5.160  0.2764  0.5308  0.3094
67526SOL    HW214304   2.252   2.175   5.088  0.9147  0.0890 -0.9878
67527SOL     OW14305   4.387   9.186   8.059 -0.3278  0.0218 -0.1168
67527SOL    HW114306   4.319   9.135   8.103 -0.0919 -0.2843 -0.0938
67527SOL    HW214307   4.394   9.266   8.111 -0.3539 -0.1461  0.1530
67528SOL     OW14308  12.335  12.143  10.449 -0.2296  0.4799 -0.0044
67528SOL    HW114309  12.316  12.083  10.521 -0.5063  0.4076 -0.1353
67528SOL    HW214310  12.372  12.088  10.381  1.6946  0.8142  0.7261
67529SOL     OW14311   5.403   0.573   2.970  0.1120 -0.0691 -0.0755
67529SOL    HW114312   5.398   0.628   3.048 -1.3797  1.9074 -1.4633
67529SOL    HW214313   5.490   0.589   2.934  1.3311 -2.0161  1.8015
67530SOL     OW14314   5.176   8.904  12.093 -0.1628 -0.2477  0.3578
67530SOL    HW114315   5.097   8.861  12.060 -0.1497  1.0629 -1.5025
67530SOL    HW214316   5.143   8.980  12.141 -0.0517  0.4964 -0.7172
67531SOL     OW14317   9.248   9.776   2.676 -0.4751  0.1193 -0.0470
67531SOL    HW114318   9.295   9.745   2.598 -1.2998 -0.7255 -0.2340
67531SOL    HW214319   9.194   9.701   2.702 -2.2048  1.2654 -0.2388
67532SOL     OW14320   6.046  10.826   8.323  0.6243  0.0269  0.0853
67532SOL    HW114321   6.084  10.782   8.400  0.5875 -0.0774  0.0450
67532SOL    HW214322   5.999  10.901   8.358  0.7441  0.0708  0.1505
67533SOL     OW14323   1.609   9.744   7.974  0.4105 -0.0371  0.4228
67533SOL    HW114324   1.699   9.747   7.943  0.2945 -2.5598 -0.3377
67533SOL    HW214325   1.573   9.664   7.936 -1.6337  0.0006  2.1053
67534SOL     OW14326   2.120  13.293   5.741 -0.1077  0.0755 -0.0815
67534SOL    HW114327   2.107  13.351   5.666 -0.1771  0.1592 -0.0031
67534SOL    HW214328   2.208  13.257   5.728  0.7761  1.7413  0.9237
67535SOL     OW14329   0.510   5.592   5.452  0.2041 -0.0071 -0.0844
67535SOL    HW114330   0.532   5.565   5.542 -0.0923  1.5237  0.4734
67535SOL    HW214331   0.435   5.650   5.462  0.8709  1.0844 -1.2023
67536SOL     OW14332   7.181   7.636   6.303  0.0534  0.1335  0.0045
67536SOL    HW114333   7.261   7.661   6.350 -1.0036  1.2066  1.3227
67536SOL    HW214334   7.144   7.565   6.355 -0.4519  0.4354  0.0581
67537SOL     OW14335   7.840  13.471   0.603 -0.4387  0.4826  0.5796
67537SOL    HW114336   7.869  13.481   0.693  2.1860  1.1127 -0.2316
67537SOL    HW214337   7.899  13.406   0.566 -2.6840 -1.1974 -0.2442
67538SOL     OW14338   7.434   2.836   8.580  0.0227  0.0222  0.3589
67538SOL    HW114339   7.386   2.871   8.654  0.8928  1.3174  0.3466
67538SOL    HW214340   7.370   2.830   8.509 -0.5318 -0.0790  0.8622
67539SOL     OW14341  12.761  10.418   1.466  0.0583  0.0875 -0.3420
67539SOL    HW114342  12.700  10.482   1.501  0.6882  0.5554 -0.0751
67539SOL    HW214343  12.734  10.405   1.375 -1.2305 -0.6981  0.1225
67540SOL     OW14344   6.440   4.566   0.172  0.0695 -0.6979 -0.3597
67540SOL    HW114345   6.464   4.657   0.155  0.9985 -0.8505  0.0677
67540SOL    HW214346   6.498   4.515   0.116  0.0185 -1.0440 -0.1005
67541SOL     OW14347   7.366  13.341  11.047  0.2476 -0.0033 -0.2377
67541SOL    HW114348   7.375  13.436  11.053  1.1421 -0.1545  1.3746
67541SOL    HW214349   7.294  13.319  11.107  1.2567 -0.4831  0.8428
67542SOL     OW14350   1.587   3.714   7.261  0.0529  0.2977  0.5184
67542SOL    HW114351   1.583   3.696   7.167 -1.4286  0.8648  0.4519
67542SOL    HW214352   1.562   3.631   7.302 -1.0816  0.5457  0.3536
67543SOL     OW14353   6.960   6.977   7.899  0.1072  0.0464 -0.3450
67543SOL    HW114354   7.011   7.043   7.947  0.1206  0.9743 -1.5686
67543SOL    HW214355   6.921   6.923   7.967  0.4250  1.0750  0.6997
67544SOL     OW14356  13.514  11.001  10.304  0.1820 -0.3831  0.4408
67544SOL    HW114357  13.506  10.961  10.390  1.3227  0.7223  1.0881
67544SOL    HW214358  13.448  11.071  10.303 -0.3742 -0.8995  0.0998
67545SOL     OW14359   9.921   0.601   1.915 -0.5178 -0.3802 -0.2335
67545SOL    HW114360   9.841   0.568   1.956 -1.4798  1.2711 -0.6782
67545SOL    HW214361   9.926   0.555   1.832 -1.4593  0.0646 -0.5524
67546SOL     OW14362   9.622   1.403   6.275  0.3782  0.0304 -0.7026
67546SOL    HW114363   9.584   1.417   6.361  0.1368  0.8582 -0.9364
67546SOL    HW214364   9.591   1.316   6.249 -1.5020  0.7334 -0.9501
67547SOL     OW14365  11.938   2.316  10.194  0.1806  0.2829 -0.5098
67547SOL    HW114366  12.014   2.259  10.205 -0.0089  0.3839  1.8025
67547SOL    HW214367  11.968   2.402  10.224 -0.0583  1.0287 -2.2856
67548SOL     OW14368   8.930   8.899   5.947 -0.4253 -0.7872 -0.0462
67548SOL    HW114369   8.855   8.843   5.924 -2.1574  1.7278 -1.0106
67548SOL    HW214370   8.905   8.939   6.030 -0.1273  0.0155 -0.3359
67549SOL     OW14371   4.357   8.560  13.099  0.4580 -0.3912  0.0288
67549SOL    HW114372   4.379   8.645  13.136 -0.8878 -0.5277  1.2449
67549SOL    HW214373   4.340   8.577  13.007 -0.9684  0.9221  0.4830
67550SOL     OW14374  13.202   8.017  11.269 -0.5574 -0.3477 -0.2253
67550SOL    HW114375  13.109   8.019  11.246 -0.3700 -0.2406 -0.9823
67550SOL    HW214376  13.218   7.927  11.296 -0.8403 -0.4105 -0.2624
67551SOL     OW14377   7.345   2.009  12.970 -0.3330 -0.2055  0.1151
67551SOL    HW114378   7.363   1.916  12.978  1.0354 -0.1446 -1.6443
67551SOL    HW214379   7.376   2.032  12.882 -1.7087  1.6735  0.0601
67552SOL     OW14380   0.962  13.168   7.387 -0.2675 -0.0268 -0.4750
67552SOL    HW114381   1.016  13.099   7.425 -1.3530 -0.8250 -0.3281
67552SOL    HW214382   0.872  13.135   7.396 -0.9842  2.1187  1.1833
67553SOL     OW14383   6.019  11.490  12.681  0.6959  0.1898 -0.1445
67553SOL    HW114384   5.978  11.451  12.604  1.5136  0.5826 -0.7858
67553SOL    HW214385   5.950  11.488  12.748  0.0540 -0.3712 -0.8017
67554SOL     OW14386  12.660   0.951   2.813 -1.0008  0.2334  0.3404
67554SOL    HW114387  12.732   0.909   2.860  0.7488  2.0578 -0.5531
67554SOL    HW214388  12.599   0.979   2.882  0.8863  1.7390  1.4996
67555SOL     OW14389   8.034  11.764   1.635  0.4728  0.2951 -0.1613
67555SOL    HW114390   8.113  11.722   1.603 -1.7699 -3.0581 -1.9095
67555SOL    HW214391   8.017  11.721   1.720  1.1682  2.0079  0.8973
67556SOL     OW14392   3.047   9.772   5.006  0.2436 -0.2067  0.3171
67556SOL    HW114393   3.099   9.827   4.948  2.3719 -1.0208  1.3459
67556SOL    HW214394   3.031   9.828   5.083 -0.2052 -0.0317  0.0967
67557SOL     OW14395   3.278  12.571   8.207  0.0290  0.0333 -0.2796
67557SOL    HW114396   3.303  12.579   8.115 -0.2125  2.0680 -0.2221
67557SOL    HW214397   3.360  12.575   8.255  0.0920 -0.2462 -0.3601
67558SOL     OW14398   9.998   7.634   4.998 -0.0031 -0.1009 -0.0728
67558SOL    HW114399  10.037   7.585   4.926 -1.8379 -0.6604 -0.7499
67558SOL    HW214400   9.972   7.568   5.062  0.2248  0.2600  0.4008
67559SOL     OW14401   5.577   3.672  11.532 -0.3494  0.3563  0.2180
67559SOL    HW114402   5.499   3.724  11.512 -0.7467 -0.3237 -0.0383
67559SOL    HW214403   5.609   3.643  11.446 -0.1490  0.1529  0.3606
67560SOL     OW14404   5.147  12.496  11.017  0.2096  0.3300  0.1273
67560SOL    HW114405   5.097  12.572  10.987 -1.0560 -0.5381 -0.0150
67560SOL    HW214406   5.186  12.460  10.937  0.1577  0.3647  0.0858
67561SOL     OW14407   0.567  10.331  12.441 -0.1246 -0.3803  0.1916
67561SOL    HW114408   0.662  10.340  12.453 -0.1339 -1.2729  1.0344
67561SOL    HW214409   0.535  10.297  12.524 -1.2648  0.3692  0.0791
67562SOL     OW14410   5.372   1.790   2.580  0.4229 -0.4901 -0.0050
67562SOL    HW114411   5.438   1.857   2.596 -0.0678  0.6109 -2.2703
67562SOL    HW214412   5.382   1.767   2.488 -1.3683 -1.3840 -0.0231
67563SOL     OW14413   8.575   2.321   7.003 -0.0378  0.3750  0.0268
67563SOL    HW114414   8.636   2.384   7.041  0.5946 -0.5878  0.6489
67563SOL    HW214415   8.528   2.285   7.079  1.1242 -1.4474 -0.0692
67564SOL     OW14416   4.786   6.006   9.742  0.0417 -0.1946 -0.3199
67564SOL    HW114417   4.856   5.945   9.720  0.9036  0.8156 -0.4691
67564SOL    HW214418   4.826   6.093   9.734 -0.5476  0.3583  1.8868
67565SOL     OW14419   5.758   6.916   6.104 -0.2043 -0.3931 -0.2709
67565SOL    HW114420   5.722   6.906   6.016  0.0397  0.2920 -0.4550
67565SOL    HW214421   5.853   6.914   6.091 -0.1662 -0.5734  0.0156
67566SOL     OW14422  12.560   7.670  11.723  0.2861 -0.3349 -0.0153
67566SOL    HW114423  12.579   7.613  11.798  1.2953  0.5477  0.4246
67566SOL    HW214424  12.617   7.639  11.654  0.5155 -0.1520  0.0884
67567SOL     OW14425   3.537   7.551   8.665 -0.4998 -0.4898  0.0547
67567SOL    HW114426   3.618   7.519   8.625 -0.8411 -0.5809 -0.5675
67567SOL    HW214427   3.486   7.472   8.683 -1.4655 -0.3361 -1.7411
67568SOL     OW14428   3.034   0.469   4.226 -0.1779  0.0393  0.2213
67568SOL    HW114429   3.079   0.393   4.261  2.3927  1.4777  0.3067
67568SOL    HW214430   2.960   0.483   4.285 -0.0697 -1.7313  0.8252
67569SOL     OW14431   1.778  10.176   3.344 -0.2577  0.0978 -0.4636
67569SOL    HW114432   1.772  10.185   3.439  0.4561  0.2381 -0.4310
67569SOL    HW214433   1.732  10.253   3.310 -0.4971  0.0572 -0.2363
67570SOL     OW14434  10.283  10.861   8.722 -0.2047  0.2416  0.4064
67570SOL    HW114435  10.331  10.818   8.792  0.1305 -1.2806 -0.7148
67570SOL    HW214436  10.192  10.834   8.735  0.0120 -0.8979 -0.3231
67571SOL     OW14437   1.797   3.574   7.928  0.1281 -0.2713  0.5061
67571SOL    HW114438   1.742   3.589   7.851  2.2566 -1.2998 -1.3234
67571SOL    HW214439   1.826   3.662   7.953  0.9269 -0.0349 -1.0992
67572SOL     OW14440   1.001   9.675   2.939  0.5776  0.1242  0.0797
67572SOL    HW114441   1.075   9.621   2.912  0.3629  0.2498 -0.7731
67572SOL    HW214442   0.984   9.648   3.030 -0.4398 -2.3057 -0.7473
67573SOL     OW14443  12.521   0.229  12.464  0.2308 -0.0644 -0.1277
67573SOL    HW114444  12.581   0.171  12.417 -0.0031  0.1684 -0.7165
67573SOL    HW214445  12.475   0.277  12.396 -1.6652 -1.2343  0.2494
67574SOL     OW14446   4.066   2.956   4.624  0.3093  0.1259 -0.0045
67574SOL    HW114447   4.055   2.870   4.663  0.7939 -0.5609 -1.3397
67574SOL    HW214448   4.003   2.958   4.553  1.1460  0.4009 -0.7514
67575SOL     OW14449  11.405   9.662   7.936  0.1542 -0.0927 -1.0700
67575SOL    HW114450  11.469   9.726   7.967 -0.0931  0.7880 -2.3178
67575SOL    HW214451  11.387   9.608   8.013 -0.2717  1.8544  0.2941
67576SOL     OW14452  10.870  10.931   7.155 -0.4406 -0.3702  0.4421
67576SOL    HW114453  10.928  10.895   7.088 -1.7411  0.4413 -1.1813
67576SOL    HW214454  10.792  10.877   7.153 -0.8789  0.2363  0.6395
67577SOL     OW14455   7.826   4.633   7.192  0.0460 -0.1307  0.6354
67577SOL    HW114456   7.883   4.652   7.117  1.2022  0.2396  1.5864
67577SOL    HW214457   7.830   4.538   7.202  1.0858 -0.0413  1.1362
67578SOL     OW14458   1.487   7.110   6.838 -0.3701  0.0695  0.4795
67578SOL    HW114459   1.569   7.062   6.836  0.7621  1.9029  0.8176
67578SOL    HW214460   1.448   7.088   6.923 -0.5791 -1.2838  0.0627
67579SOL     OW14461  11.212  10.009   2.919 -0.1769 -0.2884 -0.4334
67579SOL    HW114462  11.305  10.012   2.894 -0.5500  1.2376 -1.7753
67579SOL    HW214463  11.173  10.086   2.877 -2.0486 -0.8438  0.1881
67580SOL     OW14464   2.671   1.829   8.449 -0.0356  0.2506 -0.0455
67580SOL    HW114465   2.620   1.907   8.472  0.8405  0.4492  1.2975
67580SOL    HW214466   2.666   1.773   8.526  0.4363 -0.4475 -0.5085
67581SOL     OW14467  11.262   5.323  12.560 -0.2873  0.3042  0.8965
67581SOL    HW114468  11.171   5.341  12.584 -0.5293 -2.6156  2.6881
67581SOL    HW214469  11.295   5.269  12.632  1.9994 -1.0829 -1.0409
67582SOL     OW14470   9.321   4.655   2.593  0.2290 -0.0887  0.2637
67582SOL    HW114471   9.320   4.751   2.587  1.0716 -0.1185 -0.7779
67582SOL    HW214472   9.251   4.627   2.534 -1.1961 -0.1087  1.8865
67583SOL     OW14473  10.918   7.645   4.234  0.4606  0.1957 -0.8409
67583SOL    HW114474  10.992   7.694   4.196  0.1691  0.4471 -1.0919
67583SOL    HW214475  10.846   7.708   4.234  0.4196  0.1491  0.0011
67584SOL     OW14476   7.206   2.779   1.546 -0.1434  0.4328 -0.1383
67584SOL    HW114477   7.280   2.723   1.524 -0.2155  0.0472  0.5882
67584SOL    HW214478   7.236   2.868   1.526  0.8742  0.3791  1.0400
67585SOL     OW14479   5.688  13.220   4.685 -0.7120  0.5537  0.0140
67585SOL    HW114480   5.615  13.181   4.733 -0.7339  0.5398 -0.0312
67585SOL    HW214481   5.681  13.314   4.703  0.2947  0.3879  1.4566
67586SOL     OW14482  11.703  11.535   2.694 -0.0384  0.4330 -0.1584
67586SOL    HW114483  11.766  11.599   2.726 -0.6723  0.7665  0.4500
67586SOL    HW214484  11.617  11.574   2.712 -0.4250  0.0467 -1.0954
67587SOL     OW14485   0.194  13.285   4.392  0.0252  0.3880 -0.6272
67587SOL    HW114486   0.245  13.337   4.330 -0.6644  3.6747  1.3379
67587SOL    HW214487   0.103  13.296   4.364 -0.0296 -2.4038 -1.9208
67588SOL     OW14488  10.285   5.978   2.497  0.0914  0.1603  0.1939
67588SOL    HW114489  10.326   6.062   2.518 -0.6421  0.7004 -0.4721
67588SOL    HW214490  10.357   5.924   2.465  0.9271 -0.1215  2.3794
67589SOL     OW14491   4.379  12.733  12.367 -0.0834 -0.2474 -0.1207
67589SOL    HW114492   4.308  12.708  12.425  1.0289 -0.8588  1.0331
67589SOL    HW214493   4.438  12.658  12.367 -0.9349 -1.1123 -3.6293
67590SOL     OW14494   8.876   3.653  12.017  0.5311 -0.3332  0.0925
67590SOL    HW114495   8.903   3.667  11.926 -0.0859 -0.3010 -0.0881
67590SOL    HW214496   8.958   3.639  12.064  0.9851  1.3236 -0.1555
67591SOL     OW14497   2.818   0.194   8.245  0.4132 -0.5792 -0.3165
67591SOL    HW114498   2.750   0.128   8.256  0.4766 -0.4587  0.9020
67591SOL    HW214499   2.789   0.245   8.169  0.4036 -2.0197 -1.3207
67592SOL     OW14500   2.111   6.884  11.382 -0.2755  0.0600  0.2219
67592SOL    HW114501   2.042   6.825  11.351  0.1964 -0.0133 -0.7395
67592SOL    HW214502   2.169   6.827  11.433 -1.6791  0.4059  2.3467
67593SOL     OW14503   8.952   3.262   4.516  0.2439  0.2013  0.4478
67593SOL    HW114504   8.967   3.261   4.610  0.3103 -1.2187  0.4497
67593SOL    HW214505   9.014   3.199   4.481 -0.8069 -0.4296 -0.3572
67594SOL     OW14506  13.549   1.604   6.130 -0.3946 -0.1991  0.0281
67594SOL    HW114507  13.620   1.566   6.079  0.1715  1.3202 -0.3650
67594SOL    HW214508  13.591   1.672   6.183 -1.3505 -0.1530  0.7620
67595SOL     OW14509   9.997  12.398   9.190  0.3261  0.3473 -0.2155
67595SOL    HW114510  10.033  12.316   9.222 -1.9721 -0.8586 -0.5330
67595SOL    HW214511   9.974  12.447   9.269  0.5306  0.1443 -0.0301
67596SOL     OW14512   7.197   2.486  13.536 -0.5520  0.3503 -0.6041
67596SOL    HW114513   7.253   2.564  13.539 -1.1351  0.7482  0.1552
67596SOL    HW214514   7.254   2.415  13.566 -0.5444  0.8135  0.5329
67597SOL     OW14515  11.772  12.963   5.188 -0.4679  0.5818 -0.3600
67597SOL    HW114516  11.773  13.046   5.141  0.6203  0.5140 -0.4807
67597SOL    HW214517  11.792  12.897   5.121  1.3030  0.5064  0.2021
67598SOL     OW14518   3.082  11.555   6.104 -0.1016 -0.1277 -0.0657
67598SOL    HW114519   3.066  11.571   6.197  0.1154 -2.3611  0.4089
67598SOL    HW214520   3.000  11.517   6.072  0.0022  0.1492 -0.6739
67599SOL     OW14521   9.347   5.050   7.115 -0.0567 -0.0264  0.2240
67599SOL    HW114522   9.374   5.121   7.057  0.7839 -1.6058 -1.4301
67599SOL    HW214523   9.339   4.974   7.057  0.5612 -1.6414  2.1498
67600SOL     OW14524   2.624  11.543   4.204 -0.2093 -0.9272  0.2370
67600SOL    HW114525   2.553  11.480   4.215 -0.3104 -1.1771 -1.6460
67600SOL    HW214526   2.703  11.493   4.226 -0.3165 -1.6448 -0.9553
67601SOL     OW14527  12.253   6.491   7.745 -0.1421 -0.2622 -0.8831
67601SOL    HW114528  12.323   6.456   7.690 -0.3794 -0.0172 -1.3512
67601SOL    HW214529  12.277   6.583   7.757 -0.9428  0.1118 -1.9742
67602SOL     OW14530  11.163   4.483   5.519  0.1057  0.6169 -0.2587
67602SOL    HW114531  11.093   4.531   5.564 -0.4182  1.0676 -1.5232
67602SOL    HW214532  11.207   4.549   5.466  1.6046  0.3652  0.6081
67603SOL     OW14533   2.057   1.787  10.102  0.5988 -0.5566  0.2654
67603SOL    HW114534   2.042   1.757  10.191 -2.2072 -1.1325 -0.3163
67603SOL    HW214535   2.014   1.721  10.046  0.5639  0.7954 -1.3964
67604SOL     OW14536   4.006  10.816  13.609 -0.1927  0.0773 -0.1400
67604SOL    HW114537   3.953  10.739  13.591 -0.0119 -0.5583  1.8251
67604SOL    HW214538   3.956  10.889  13.573 -1.5995 -0.6869  0.2203
67605SOL     OW14539   8.031  11.012   2.248  0.0122  0.1172 -0.5590
67605SOL    HW114540   7.983  10.966   2.178 -1.3293  0.6507 -0.0228
67605SOL    HW214541   8.093  10.947   2.281 -1.5207 -1.1855 -0.1410
67606SOL     OW14542   2.774   7.529  12.917  0.3901  0.3220  0.0157
67606SOL    HW114543   2.827   7.557  12.842  2.9178 -0.8764  1.2405
67606SOL    HW214544   2.817   7.451  12.949 -0.7658  0.6498  2.5906
67607SOL     OW14545   0.448   3.071   5.235  0.0943  0.2240  0.2746
67607SOL    HW114546   0.422   3.148   5.286  1.8179  1.1354 -0.1485
67607SOL    HW214547   0.395   3.000   5.271 -0.2543  1.2538  1.9175
67608SOL     OW14548  10.600   6.716   6.277 -0.0433  0.4508 -0.7829
67608SOL    HW114549  10.675   6.715   6.216 -0.7300  0.2860 -1.6533
67608SOL    HW214550  10.537   6.656   6.237 -1.0825  1.4242 -0.6293
67609SOL     OW14551   6.364   1.104  11.447  0.7183  0.3051  0.2213
67609SOL    HW114552   6.381   1.184  11.497 -1.7032  0.4928  0.8643
67609SOL    HW214553   6.294   1.060  11.495  1.1215 -1.5713 -0.8219
67610SOL     OW14554  10.052  12.551  12.560 -0.5489  0.0026 -0.7413
67610SOL    HW114555  10.042  12.513  12.473 -0.3241 -1.0087 -0.3385
67610SOL    HW214556   9.985  12.507  12.613  0.2984 -0.4878 -0.0593
67611SOL     OW14557   7.237   8.383   0.768 -0.4995  0.5532 -0.8270
67611SOL    HW114558   7.290   8.463   0.763 -0.6782  0.8269  1.0020
67611SOL    HW214559   7.218   8.372   0.861 -1.4158 -1.0274 -1.1558
67612SOL     OW14560  12.013   8.879  10.065  0.3637 -0.0431  0.7460
67612SOL    HW114561  11.927   8.899  10.102 -0.1899 -1.4314  0.2900
67612SOL    HW214562  12.000   8.889   9.970  0.4383 -1.1337  0.6113
67613SOL     OW14563   5.884   8.501  11.802 -0.2494 -0.4382  0.0485
67613SOL    HW114564   5.872   8.595  11.812  1.7415 -0.2855  1.5713
67613SOL    HW214565   5.930   8.491  11.718  1.3526  0.1882  0.8031
67614SOL     OW14566   8.196  10.126   1.235  0.2105  0.4655 -0.2004
67614SOL    HW114567   8.178  10.218   1.216  1.7715  0.4916 -1.8188
67614SOL    HW214568   8.175  10.080   1.154 -0.4690 -0.6148  0.5605
67615SOL     OW14569   1.166   6.123   9.058 -0.1691  0.0884 -0.0336
67615SOL    HW114570   1.114   6.101   8.981  0.1883  0.0226 -0.2570
67615SOL    HW214571   1.197   6.212   9.042  1.8823 -0.7378 -1.0891
67616SOL     OW14572   0.359   2.127   4.908 -1.3654  0.6999 -0.3089
67616SOL    HW114573   0.403   2.190   4.851 -0.2280  1.2221  1.0701
67616SOL    HW214574   0.414   2.048   4.904 -1.5100  0.5958 -0.2512
67617SOL     OW14575   6.168  11.085  10.774  0.3210 -0.6791  0.3533
67617SOL    HW114576   6.143  11.165  10.822 -0.1167 -1.2091  1.0246
67617SOL    HW214577   6.140  11.013  10.831 -1.9688 -1.3717 -1.4846
67618SOL     OW14578  13.480   4.916   0.683 -0.0175 -0.1331  0.5572
67618SOL    HW114579  13.473   4.989   0.621 -0.0251 -1.2969 -0.8891
67618SOL    HW214580  13.555   4.865   0.651 -0.6609 -1.3198  0.8798
67619SOL     OW14581   3.006  10.225   2.299  0.0041  0.2960 -0.2642
67619SOL    HW114582   3.038  10.178   2.222 -1.8131 -1.5583  0.0091
67619SOL    HW214583   2.932  10.276   2.266  0.0201  0.5064  0.0217
67620SOL     OW14584   8.191  12.562  11.983 -0.5856  0.2921 -0.1817
67620SOL    HW114585   8.184  12.468  11.969  0.8622 -0.0013  0.8334
67620SOL    HW214586   8.282  12.576  12.008 -0.6981  2.0120 -0.5818
67621SOL     OW14587  11.614   3.341   9.594 -0.3531  0.7031 -0.2642
67621SOL    HW114588  11.525   3.339   9.629 -0.7383 -0.0119 -1.2405
67621SOL    HW214589  11.655   3.261   9.628  0.3879  1.7101  1.3145
67622SOL     OW14590   7.138   1.220   9.843  0.4019  0.0227 -0.1283
67622SOL    HW114591   7.112   1.172   9.921  0.3784 -0.4421 -0.4168
67622SOL    HW214592   7.080   1.296   9.841  0.1259 -0.1809  0.0827
67623SOL     OW14593  13.738   6.580  13.286 -0.0697  0.3507  0.2540
67623SOL    HW114594  13.759   6.507  13.344 -0.5251  0.6640  0.8247
67623SOL    HW214595  13.811   6.641  13.297  1.0682 -0.6572 -1.3492
67624SOL     OW14596  10.454   4.380  12.103  0.5622 -0.1112 -0.6566
67624SOL    HW114597  10.362   4.364  12.123  1.3038 -1.8336  1.9953
67624SOL    HW214598  10.479   4.306  12.047  0.6126 -0.3865 -0.2789
67625SOL     OW14599   3.879  12.166   1.667  0.1469  0.9226 -0.5400
67625SOL    HW114600   3.884  12.260   1.652 -0.0137  0.7365 -1.8874
67625SOL    HW214601   3.930  12.128   1.596  2.9107  0.0693  1.7319
67626SOL     OW14602  11.987   4.066   6.449 -0.0885 -0.3127 -0.2567
67626SOL    HW114603  11.946   4.145   6.485 -1.9901 -1.1568 -0.4549
67626SOL    HW214604  11.963   3.997   6.511  0.6114 -0.9281 -0.6627
67627SOL     OW14605   8.275   1.832   5.813  0.1406 -0.4122 -0.3337
67627SOL    HW114606   8.194   1.781   5.818  0.0001 -0.4116 -1.9017
67627SOL    HW214607   8.328   1.784   5.749  0.4179  0.8541 -1.0736
67628SOL     OW14608   0.744   6.497   3.760 -0.1736 -0.6361 -0.4200
67628SOL    HW114609   0.656   6.512   3.794 -0.4430 -0.1944 -1.2966
67628SOL    HW214610   0.788   6.581   3.767 -0.9123  0.0770 -3.0691
67629SOL     OW14611  10.988   3.071  11.964  0.4603 -0.0277  0.4040
67629SOL    HW114612  11.079   3.064  11.994  0.5338 -0.1211  0.1587
67629SOL    HW214613  10.992   3.052  11.870  0.6254  2.7578 -0.2458
67630SOL     OW14614   6.598   7.184   0.004  0.3300 -0.8945 -0.1679
67630SOL    HW114615   6.679   7.234  -0.005  0.2489 -0.6191  0.5360
67630SOL    HW214616   6.531   7.250   0.019  0.1918 -1.1983  0.6026
67631SOL     OW14617  13.211   2.737   7.656 -0.1574  0.5110  0.4496
67631SOL    HW114618  13.210   2.643   7.675 -1.4893  0.6770  1.3418
67631SOL    HW214619  13.129   2.753   7.609  0.3842  1.1227 -0.3171
67632SOL     OW14620   2.171  12.214   9.476 -0.2368 -0.3369  0.0116
67632SOL    HW114621   2.185  12.120   9.484  0.5192 -0.6761 -3.5455
67632SOL    HW214622   2.259  12.252   9.480 -0.4497  0.1267  0.3909
67633SOL     OW14623   4.564   4.665   0.953 -0.2362 -0.4094 -0.6202
67633SOL    HW114624   4.502   4.686   1.023  0.2810 -0.6889 -0.0654
67633SOL    HW214625   4.639   4.721   0.971  0.3689 -1.3094 -0.2648
67634SOL     OW14626  11.497   3.669   7.394  0.1424  0.0890  0.0217
67634SOL    HW114627  11.490   3.641   7.303 -0.1969  0.2010  0.0124
67634SOL    HW214628  11.566   3.734   7.394  0.3750 -0.1552 -0.0966
67635SOL     OW14629   8.899  11.241   5.444 -0.2284  0.0965 -0.2427
67635SOL    HW114630   8.936  11.288   5.519 -2.6466 -1.5132  2.1523
67635SOL    HW214631   8.965  11.176   5.421 -0.6288 -1.4721  2.6602
67636SOL     OW14632   7.704   3.377   4.954 -0.6173 -0.1506 -0.0909
67636SOL    HW114633   7.652   3.455   4.935  0.5844  0.3977 -1.2918
67636SOL    HW214634   7.660   3.307   4.906 -0.0507  0.4049 -1.5028
67637SOL     OW14635   9.595  11.200   8.856  0.4032  0.0165  0.0680
67637SOL    HW114636   9.595  11.136   8.785 -0.2914  0.2728 -0.1763
67637SOL    HW214637   9.688  11.217   8.873  0.5762  0.3680 -1.1524
67638SOL     OW14638   7.873   3.502   9.316  0.0055  0.2949  0.2778
67638SOL    HW114639   7.936   3.529   9.249  0.9095 -2.0763  0.0798
67638SOL    HW214640   7.925   3.450   9.378 -1.2317  0.6509  1.6616
67639SOL     OW14641   9.356   8.382   1.623 -0.4826  0.4062 -0.1615
67639SOL    HW114642   9.304   8.457   1.595 -2.6113 -0.7629  0.4373
67639SOL    HW214643   9.369   8.331   1.543  1.7193  1.7401 -0.7502
67640SOL     OW14644   4.670   9.457   1.101 -0.2693 -0.0521  0.5480
67640SOL    HW114645   4.588   9.486   1.062 -0.2383  2.4477  2.1246
67640SOL    HW214646   4.735   9.469   1.032 -0.9942 -0.6659 -0.2515
67641SOL     OW14647  10.701   4.398   1.913 -0.0736 -0.5036  0.0500
67641SOL    HW114648  10.684   4.367   1.824  2.1861  1.0612 -1.0229
67641SOL    HW214649  10.719   4.491   1.903  0.8377 -0.4160  2.0702
67642SOL     OW14650   9.269   7.466  13.694  0.6354 -0.7894  0.1521
67642SOL    HW114651   9.268   7.557  13.722  1.7468 -0.6231 -0.2857
67642SOL    HW214652   9.344   7.427  13.739  1.7292 -0.8154 -1.5952
67643SOL     OW14653   6.223   3.971   0.555 -0.1483  0.4509  0.0157
67643SOL    HW114654   6.199   3.973   0.648 -1.9299  0.1380 -0.4109
67643SOL    HW214655   6.172   3.898   0.519 -1.7354  2.3346 -1.7738
67644SOL     OW14656   5.612   2.068  13.159 -0.1039 -0.2292 -0.1900
67644SOL    HW114657   5.572   2.152  13.180  0.2040  0.3063 -1.6099
67644SOL    HW214658   5.610   2.019  13.241  1.0396  1.6946  1.0583
67645SOL     OW14659   4.195   7.988  12.337  0.5840 -0.2810  0.3511
67645SOL    HW114660   4.104   7.963  12.319  0.5656 -0.4258  0.6407
67645SOL    HW214661   4.247   7.935  12.277  0.3741  1.3367 -1.3754
67646SOL     OW14662   8.935  10.069   5.283 -0.0959  0.5119  0.5277
67646SOL    HW114663   8.918  10.130   5.212 -1.0947  1.1022  1.2510
67646SOL    HW214664   8.945  10.125   5.360 -1.9427 -0.2548  1.3713
67647SOL     OW14665   0.364   3.467   5.786 -0.2123  0.0152 -0.7701
67647SOL    HW114666   0.376   3.561   5.794  2.1330 -0.3496  1.5694
67647SOL    HW214667   0.415   3.443   5.708 -0.2074  0.6080 -0.9518
67648SOL     OW14668  10.545   7.286  11.908  0.2488 -0.6004  0.6521
67648SOL    HW114669  10.498   7.248  11.834 -1.0264 -0.0552  1.1590
67648SOL    HW214670  10.573   7.211  11.960 -0.2749 -0.9243  0.4665
67649SOL     OW14671  11.764   0.531   8.423  0.3174 -0.0533 -0.3278
67649SOL    HW114672  11.851   0.531   8.464 -0.0517 -0.3483  0.4707
67649SOL    HW214673  11.706   0.495   8.490 -0.4085  0.0556 -0.8904
67650SOL     OW14674   4.431   8.525   4.897  0.3513  0.0701 -0.3193
67650SOL    HW114675   4.417   8.499   4.988  1.9116 -0.0881 -0.0997
67650SOL    HW214676   4.384   8.607   4.888  0.0678  0.0195  0.5959
67651SOL     OW14677  13.287   3.865   4.134 -0.1395 -0.2782 -0.3455
67651SOL    HW114678  13.311   3.934   4.072 -1.0771 -1.1886 -1.7715
67651SOL    HW214679  13.193   3.874   4.145  0.1668  0.7022  2.0485
67652SOL     OW14680   9.429   6.861   4.529 -0.3259  0.2293  0.6992
67652SOL    HW114681   9.395   6.791   4.473 -1.3521  2.3138 -1.4708
67652SOL    HW214682   9.503   6.897   4.480  0.8618  0.0481  2.2765
67653SOL     OW14683   6.886   2.391   4.290 -0.1620 -0.0155 -0.2860
67653SOL    HW114684   6.828   2.392   4.214 -1.0979  0.6028  0.4001
67653SOL    HW214685   6.879   2.302   4.325  0.8000 -0.5021 -1.2919
67654SOL     OW14686   8.126   6.751  11.686 -0.1091  0.1157  0.2526
67654SOL    HW114687   8.124   6.665  11.728 -0.2551  0.3329  0.6914
67654SOL    HW214688   8.144   6.732  11.594 -1.3674 -0.4704  0.1105
67655SOL     OW14689   0.314  11.136   9.693 -0.1683  0.0922  0.0783
67655SOL    HW114690   0.389  11.190   9.720 -1.0543  1.1311  0.5437
67655SOL    HW214691   0.285  11.175   9.610 -0.2712 -0.2146 -0.0292
67656SOL     OW14692   4.027   0.556  13.068 -0.1487 -0.4110 -0.0148
67656SOL    HW114693   4.075   0.579  12.988 -1.1717  1.3016 -0.1860
67656SOL    HW214694   3.981   0.636  13.092 -0.0924 -0.9783  2.1613
67657SOL     OW14695   2.670  13.485   9.994  0.3930 -0.1949 -0.3420
67657SOL    HW114696   2.698  13.406   9.949 -1.4256 -0.6420 -0.7583
67657SOL    HW214697   2.575  13.477  10.001  0.4237  0.6453  2.1087
67658SOL     OW14698   8.851   4.911  10.976 -0.1586 -0.0135  0.6767
67658SOL    HW114699   8.775   4.909  10.918 -0.7316 -0.8961  1.4190
67658SOL    HW214700   8.900   4.990  10.950 -0.2402 -0.5358 -1.1545
67659SOL     OW14701   7.105   4.411  12.648 -0.1154  0.3655 -0.0119
67659SOL    HW114702   7.025   4.417  12.596 -0.8375 -0.3584  0.9644
67659SOL    HW214703   7.126   4.318  12.649 -0.0560  0.3817  0.8923
67660SOL     OW14704   6.411  12.588  10.392 -0.0863  0.1020 -0.3220
67660SOL    HW114705   6.436  12.562  10.303  0.1293 -0.0662 -0.2171
67660SOL    HW214706   6.488  12.565  10.445 -0.0129  0.6837 -0.1755
67661SOL     OW14707   9.589  11.182   4.864 -0.1024  0.5742  0.1111
67661SOL    HW114708   9.516  11.127   4.834  2.3422 -1.5082 -2.6089
67661SOL    HW214709   9.617  11.141   4.945 -0.8232  0.2829  0.2259
67662SOL     OW14710   0.828   4.106   7.881  0.0974 -0.1055 -0.1007
67662SOL    HW114711   0.902   4.158   7.914 -0.1257 -0.2258  0.6139
67662SOL    HW214712   0.756   4.127   7.940 -0.1199 -0.8743 -0.0836
67663SOL     OW14713   2.622   4.613  12.819  0.0952  0.3866  0.3485
67663SOL    HW114714   2.694   4.585  12.763  1.0869  1.0316  1.2658
67663SOL    HW214715   2.604   4.703  12.791  0.9377  0.8939  1.3694
67664SOL     OW14716  13.175  11.695   2.646  0.1428 -0.3306  0.4320
67664SOL    HW114717  13.152  11.665   2.734 -1.0463  0.2175  0.3229
67664SOL    HW214718  13.271  11.691   2.644  0.1115 -2.2526  1.0660
67665SOL     OW14719  10.416   6.328   8.961 -0.2268  0.1433  0.0043
67665SOL    HW114720  10.511   6.333   8.975 -0.2256 -0.7970  0.4109
67665SOL    HW214721  10.396   6.403   8.906  1.0432 -0.6230 -1.6010
67666SOL     OW14722   0.729   2.728   2.678 -0.3948  0.4141  0.2882
67666SOL    HW114723   0.688   2.744   2.593  0.2394 -1.0927 -0.3270
67666SOL    HW214724   0.822   2.720   2.659 -0.1855  0.5678  1.2088
67667SOL     OW14725   3.008   6.021   8.622 -0.2216 -0.5284  0.2967
67667SOL    HW114726   2.964   5.937   8.620 -0.2440 -0.5162  0.2762
67667SOL    HW214727   2.938   6.086   8.612 -0.1597 -0.5206 -0.0755
67668SOL     OW14728   5.324  11.783  13.420 -0.1488 -0.2325  0.1508
67668SOL    HW114729   5.368  11.702  13.395  0.5639  0.8929 -2.7116
67668SOL    HW214730   5.239  11.778  13.376 -0.9565 -0.2585  1.6455
67669SOL     OW14731   4.152   7.719  11.325 -0.4595  0.1663  0.2566
67669SOL    HW114732   4.102   7.638  11.327 -0.5056  0.1748 -0.2925
67669SOL    HW214733   4.193   7.719  11.238 -0.3156  0.6413  0.3234
67670SOL     OW14734   5.118   2.528   7.521 -0.5046  0.0305 -0.1626
67670SOL    HW114735   5.053   2.462   7.542 -1.4081  1.3946  1.5091
67670SOL    HW214736   5.174   2.533   7.598 -1.1464  1.9696  0.2514
67671SOL     OW14737  11.166   4.335   8.269 -0.4830  0.1624  0.6762
67671SOL    HW114738  11.218   4.370   8.341  0.0846  1.0562 -0.1380
67671SOL    HW214739  11.131   4.413   8.224 -0.4724 -0.3529 -0.2601
67672SOL     OW14740   8.421   0.442   5.273 -0.9787  0.4033 -0.8220
67672SOL    HW114741   8.347   0.421   5.330  2.0167  1.0803  3.8278
67672SOL    HW214742   8.425   0.538   5.274  0.8201  0.3559  0.4311
67673SOL     OW14743  11.056   6.735   7.578  0.2610  0.1824 -0.0596
67673SOL    HW114744  11.136   6.786   7.584  1.5714 -1.6524 -1.0577
67673SOL    HW214745  11.082   6.646   7.600 -0.9503 -0.9373 -2.7496
67674SOL     OW14746   4.225   1.226  13.101 -0.1879  0.0234 -0.0364
67674SOL    HW114747   4.216   1.286  13.027  1.7124 -0.3428 -0.6199
67674SOL    HW214748   4.148   1.171  13.096  0.6481 -1.0943 -2.8355
67675SOL     OW14749   5.515   2.211  11.560  0.3486  0.3253  0.3631
67675SOL    HW114750   5.610   2.221  11.558  0.4124 -0.3252 -1.4404
67675SOL    HW214751   5.495   2.158  11.483 -1.3377 -0.7857  1.5005
67676SOL     OW14752   7.769   5.325   8.116 -0.0757 -0.0057  0.1238
67676SOL    HW114753   7.771   5.367   8.030 -0.5172  1.7624  0.9321
67676SOL    HW214754   7.680   5.291   8.124  0.1995 -0.8834 -0.4218
67677SOL     OW14755   3.540   1.575   3.548 -0.3905  0.0837 -0.2146
67677SOL    HW114756   3.600   1.513   3.506  0.9050  1.0953  0.0441
67677SOL    HW214757   3.592   1.656   3.556 -1.7921  0.9884  0.0700
67678SOL     OW14758   5.379   4.033   6.193 -0.4427  0.4786 -0.7977
67678SOL    HW114759   5.397   4.007   6.284 -1.5984  0.3696 -0.5866
67678SOL    HW214760   5.428   4.115   6.182  3.2377 -1.5687 -1.4607
67679SOL     OW14761   3.647   8.974   7.753  0.4551 -0.1628 -0.0878
67679SOL    HW114762   3.704   8.997   7.679  0.7815 -0.1508  0.1681
67679SOL    HW214763   3.658   8.879   7.763 -1.9732 -0.7925 -2.0690
67680SOL     OW14764   4.013   3.016  10.533  0.4631  0.0775  0.0252
67680SOL    HW114765   4.006   2.967  10.452 -2.9794 -2.5406  1.6600
67680SOL    HW214766   3.923   3.040  10.555  1.3952  1.7909  2.4523
67681SOL     OW14767   0.729  11.890  10.203 -0.0201 -0.3527 -0.7288
67681SOL    HW114768   0.786  11.938  10.263  0.9286  1.0719 -2.6269
67681SOL    HW214769   0.668  11.956  10.169 -1.3822 -1.3910 -0.4055
67682SOL     OW14770   8.711   2.390   5.772  0.8127  0.8837  0.3408
67682SOL    HW114771   8.729   2.363   5.862  0.2464  3.2186  1.2205
67682SOL    HW214772   8.633   2.341   5.747  1.1281  0.0119  1.0040
67683SOL     OW14773   2.584  11.075   2.657  0.3526  0.6408 -0.1133
67683SOL    HW114774   2.500  11.101   2.621 -0.3474 -0.9547  0.2733
67683SOL    HW214775   2.570  11.071   2.752  1.0576  0.9920  0.0156
67684SOL     OW14776  10.787   1.305   6.421 -0.4480  0.7802  0.2373
67684SOL    HW114777  10.820   1.216   6.414 -1.2705  0.5483 -1.0807
67684SOL    HW214778  10.865   1.360   6.418  0.0430  0.1288  0.7266
67685SOL     OW14779  11.561   2.559   0.767  0.2215  0.0032 -0.0356
67685SOL    HW114780  11.647   2.561   0.724  0.2196 -0.1110 -0.0458
67685SOL    HW214781  11.577   2.514   0.850 -0.0572 -1.0829 -0.5532
67686SOL     OW14782   5.089   4.365   1.498 -0.3898 -0.5826  0.0249
67686SOL    HW114783   5.172   4.354   1.544 -0.5203  1.3896  0.8105
67686SOL    HW214784   5.060   4.454   1.520 -2.1644 -0.8176 -1.1239
67687SOL     OW14785   3.453  12.853   8.849 -0.0158  0.1420 -0.4265
67687SOL    HW114786   3.374  12.898   8.878 -0.1111 -1.0289  1.2203
67687SOL    HW214787   3.462  12.878   8.756 -0.7026  2.5532  0.0826
67688SOL     OW14788   1.930   0.234   6.360  0.0550 -0.2278  0.1183
67688SOL    HW114789   1.932   0.329   6.364  0.3442 -0.2485  0.7513
67688SOL    HW214790   1.927   0.213   6.267 -1.1782  0.4104 -0.0049
67689SOL     OW14791   1.371   7.322  11.498  0.0904  0.2451 -0.0399
67689SOL    HW114792   1.356   7.284  11.412 -0.6289  1.4635 -0.4766
67689SOL    HW214793   1.432   7.394  11.482  0.0141  0.4282  0.4773
67690SOL     OW14794   3.603   3.057  13.625 -0.4631  0.0939  0.2059
67690SOL    HW114795   3.610   3.103  13.709 -1.3152 -0.3271  0.5204
67690SOL    HW214796   3.550   3.115  13.570 -2.2841 -0.8373  0.8841
67691SOL     OW14797   3.539  11.264   0.917 -0.0535 -0.2306 -0.6318
67691SOL    HW114798   3.500  11.203   0.854  0.8864  0.7145 -2.2027
67691SOL    HW214799   3.509  11.233   1.002 -2.8104 -0.5845 -1.6125
67692SOL     OW14800   2.830   0.911   8.673 -0.4722  0.2238 -0.5950
67692SOL    HW114801   2.876   0.827   8.673 -0.1275  0.4090 -0.2810
67692SOL    HW214802   2.900   0.976   8.685 -1.0094  0.4108  2.0845
67693SOL     OW14803   2.189   2.016   9.981 -0.4579 -0.3540  0.0703
67693SOL    HW114804   2.267   1.962   9.980 -0.5325 -0.5741  2.1507
67693SOL    HW214805   2.124   1.964  10.029 -0.5269  1.5014  2.1521
67694SOL     OW14806   0.002   8.293  11.510  0.4680 -0.4615 -0.1656
67694SOL    HW114807  -0.047   8.328  11.584  1.4020  1.2107 -0.2789
67694SOL    HW214808   0.084   8.343  11.509  0.4502 -0.3531 -2.3574
67695SOL     OW14809   8.784   1.311  12.308  0.3199  0.4174  0.5042
67695SOL    HW114810   8.786   1.267  12.392 -0.0134 -1.0605 -0.2324
67695SOL    HW214811   8.871   1.296  12.271  1.1353  2.6872  1.3461
67696SOL     OW14812   7.711   3.591   9.939 -0.3715  0.2007  0.6992
67696SOL    HW114813   7.627   3.620   9.903  0.6851  1.3683 -0.9227
67696SOL    HW214814   7.696   3.587  10.034 -2.6503 -1.0104  0.3660
67697SOL     OW14815   9.438   1.683  10.586  0.0028 -0.7602  0.2902
67697SOL    HW114816   9.384   1.611  10.619  2.0020 -2.2618  0.4356
67697SOL    HW214817   9.377   1.737  10.536 -1.1724 -3.7963 -1.8571
67698SOL     OW14818   2.162   9.979   2.290 -0.8046 -0.1927 -0.6435
67698SOL    HW114819   2.114  10.048   2.243 -2.2677 -0.2708  0.6439
67698SOL    HW214820   2.224  10.026   2.346 -0.5383 -0.0120 -1.0875
67699SOL     OW14821   0.501   3.825   2.857 -0.0883  0.1059 -0.3221
67699SOL    HW114822   0.429   3.788   2.908  0.1387  2.0514  1.5440
67699SOL    HW214823   0.577   3.771   2.880 -0.0740  0.7118  1.1345
67700SOL     OW14824  11.241   1.916  10.875 -0.5667 -0.3549  0.5656
67700SOL    HW114825  11.147   1.927  10.889 -0.9091 -1.0994 -0.8709
67700SOL    HW214826  11.252   1.927  10.780  0.6537 -1.1750  0.5887
67701SOL     OW14827  13.651   3.743  11.449 -0.2713 -0.1334 -0.0766
67701SOL    HW114828  13.601   3.670  11.487 -0.6982  0.0746 -0.2242
67701SOL    HW214829  13.742   3.722  11.468 -0.4728  0.0036  1.1189
67702SOL     OW14830   0.471  10.492   9.772 -0.4937  0.4074  0.4832
67702SOL    HW114831   0.507  10.580   9.759 -1.6102  0.6934 -0.9970
67702SOL    HW214832   0.376  10.505   9.772 -0.7173 -0.9366 -1.0781
67703SOL     OW14833   4.027   0.652  13.674  0.3230 -1.0376 -0.6239
67703SOL    HW114834   4.015   0.663  13.579 -0.4645  1.3755 -0.3265
67703SOL    HW214835   3.978   0.573  13.695 -0.1034 -1.2126 -2.1386
67704SOL     OW14836  11.982   0.462   5.992  0.5804 -0.0638 -0.1866
67704SOL    HW114837  11.953   0.430   5.907 -0.7230  0.2144  0.1290
67704SOL    HW214838  11.950   0.396   6.054 -2.6580  2.0054  0.5397
67705SOL     OW14839  10.303   1.055  12.853  0.1610 -0.0965  0.2523
67705SOL    HW114840  10.234   0.999  12.817 -1.4839  0.5396  2.2196
67705SOL    HW214841  10.322   1.017  12.939  0.6369  1.0550  0.6791
67706SOL     OW14842  11.525   4.978   0.547 -0.3175  0.7567  0.2479
67706SOL    HW114843  11.564   4.963   0.634  0.6480  0.7301 -0.1757
67706SOL    HW214844  11.596   5.015   0.495 -1.5320  3.0271  0.1082
67707SOL     OW14845  10.848   0.413   2.434  0.1144 -0.1947 -0.3843
67707SOL    HW114846  10.879   0.418   2.343 -0.3197  2.6160 -0.4732
67707SOL    HW214847  10.753   0.406   2.427  0.1225 -0.5493 -0.1474
67708SOL     OW14848   4.303   3.574   6.500 -0.2460  0.1447  0.0600
67708SOL    HW114849   4.232   3.510   6.510  0.2495 -0.2101  1.6645
67708SOL    HW214850   4.260   3.659   6.510 -0.4912 -0.0634  0.8711
67709SOL     OW14851  10.218   3.052   2.352 -0.0787 -0.3854 -0.4314
67709SOL    HW114852  10.272   2.981   2.385  1.1919  0.0759 -1.3958
67709SOL    HW214853  10.141   3.054   2.409  0.9359 -1.0630  1.0079
67710SOL     OW14854   9.233   8.920  10.105 -0.2805  0.0016 -0.4041
67710SOL    HW114855   9.286   8.960  10.173  0.4779 -0.0062 -0.9821
67710SOL    HW214856   9.168   8.868  10.153 -0.5753  1.0079  0.3329
67711SOL     OW14857   1.462   0.810   1.356 -0.2068 -0.0893  0.2046
67711SOL    HW114858   1.414   0.750   1.414 -1.1700 -1.0565 -1.5006
67711SOL    HW214859   1.393   0.854   1.306  0.5975 -1.0356 -1.8622
67712SOL     OW14860  13.578   0.920   6.253 -0.1597 -0.2568 -0.4383
67712SOL    HW114861  13.622   0.997   6.216 -1.6687  1.2348  0.7289
67712SOL    HW214862  13.517   0.892   6.185 -0.4241  0.3025 -0.4361
67713SOL     OW14863   7.217  11.375   2.002  0.2946 -0.2927 -0.3988
67713SOL    HW114864   7.155  11.325   2.055  1.9208 -1.9911  0.0320
67713SOL    HW214865   7.238  11.451   2.056 -2.3115  1.0326 -1.1096
67714SOL     OW14866  12.268  10.848  10.257 -0.4979 -0.6037  0.2575
67714SOL    HW114867  12.267  10.850  10.161 -0.6330 -0.4110  0.2634
67714SOL    HW214868  12.293  10.758  10.278 -2.0537 -1.1041  0.0488
67715SOL     OW14869   9.968   7.716  10.656  0.0965  0.4226  0.0778
67715SOL    HW114870  10.015   7.665  10.590  1.8781 -0.2282  1.7523
67715SOL    HW214871   9.898   7.658  10.686 -0.2735  0.4548 -0.6889
67716SOL     OW14872   8.593   8.079   8.409 -0.6712  0.4051  0.2795
67716SOL    HW114873   8.515   8.053   8.458 -0.2303 -0.9722  0.2858
67716SOL    HW214874   8.666   8.059   8.468 -0.2735  1.1693  0.0621
67717SOL     OW14875  10.708  10.362   5.939 -0.3194  0.3705 -0.2429
67717SOL    HW114876  10.699  10.385   5.847 -0.6971  1.3544  0.0318
67717SOL    HW214877  10.646  10.418   5.985  0.3535  0.3873  0.6890
67718SOL     OW14878  10.628   9.127  12.915 -0.0938 -0.3946  0.2570
67718SOL    HW114879  10.632   9.222  12.906  1.2037 -0.2825  1.7178
67718SOL    HW214880  10.668   9.094  12.834  0.2904  0.3065  0.1522
67719SOL     OW14881  12.301   0.667  13.039 -0.2058  0.2057 -0.9257
67719SOL    HW114882  12.228   0.724  13.060 -0.7307 -0.2381 -1.4996
67719SOL    HW214883  12.279   0.583  13.079 -0.6862 -0.3256 -2.2330
67720SOL     OW14884   0.007   6.154  13.659  0.9894 -0.0570  0.4347
67720SOL    HW114885  -0.011   6.234  13.709  2.8879  0.2689  0.6768
67720SOL    HW214886   0.076   6.110  13.708  0.3814 -1.5673 -0.0172
67721SOL     OW14887   8.487  13.622   2.014 -0.6224  0.3600  0.2188
67721SOL    HW114888   8.472  13.609   1.920  2.3123 -1.6453 -0.1048
67721SOL    HW214889   8.435  13.554   2.056  0.4500 -0.8012 -0.2487
67722SOL     OW14890  12.367   7.911   4.126  0.0978  0.1458  0.0816
67722SOL    HW114891  12.405   7.992   4.159  1.9179 -0.4169 -0.5399
67722SOL    HW214892  12.421   7.888   4.050  0.2035 -2.1256  0.7745
67723SOL     OW14893  11.973  13.407  10.918  0.3815 -0.4517 -0.0487
67723SOL    HW114894  12.009  13.489  10.884  1.2269 -0.1412  1.5417
67723SOL    HW214895  12.036  13.377  10.983 -0.7963 -1.4331  0.6873
67724SOL     OW14896   4.118   9.554  13.227 -0.2611 -0.1574  0.3392
67724SOL    HW114897   4.034   9.588  13.259  0.1082  0.9804  0.1235
67724SOL    HW214898   4.152   9.502  13.300 -0.3540  0.7959  1.0828
67725SOL     OW14899   9.824   3.723  12.826 -0.7002 -0.2946  0.1045
67725SOL    HW114900   9.760   3.766  12.883  1.5056  1.0475  1.6970
67725SOL    HW214901   9.795   3.746  12.737 -1.5669  1.6072  0.8159
67726SOL     OW14902  11.740  12.526   2.243 -0.5225  0.0116 -0.0947
67726SOL    HW114903  11.770  12.440   2.273  0.3505 -0.3637 -1.8624
67726SOL    HW214904  11.775  12.588   2.306  1.0292 -0.7460 -0.1741
67727SOL     OW14905   8.201   4.669  11.921  0.0257 -0.2881  0.6558
67727SOL    HW114906   8.170   4.671  11.830  1.3020 -0.2900  0.1949
67727SOL    HW214907   8.212   4.576  11.941  2.4358 -0.2517 -0.1936
67728SOL     OW14908   5.728  10.530   3.270 -0.5732  0.1073  0.5654
67728SOL    HW114909   5.770  10.493   3.193  1.5169  0.1134  1.6289
67728SOL    HW214910   5.662  10.589   3.236 -1.2383 -1.5491 -1.1874
67729SOL     OW14911  11.385   2.795  13.658 -0.2705  0.3002 -0.4036
67729SOL    HW114912  11.359   2.796  13.566  3.0898  1.1338 -1.4972
67729SOL    HW214913  11.478   2.818  13.657 -0.2208  0.9245  3.2750
67730SOL     OW14914   3.037   4.536   0.190 -0.0794  0.3882  0.0316
67730SOL    HW114915   3.120   4.495   0.213  0.0340  1.1148  0.9640
67730SOL    HW214916   2.977   4.512   0.261  0.0050  1.8396  0.6200
67731SOL     OW14917   6.018   0.333   3.164  0.0224 -0.7977  0.2782
67731SOL    HW114918   6.086   0.377   3.113 -1.2028  0.7153 -0.0996
67731SOL    HW214919   6.066   0.274   3.222  1.5738 -0.8144 -0.9526
67732SOL     OW14920  10.378   4.273   7.285 -0.1075 -0.0702 -0.2968
67732SOL    HW114921  10.453   4.235   7.331  0.0998 -1.3036 -1.5798
67732SOL    HW214922  10.302   4.233   7.326 -0.0052  0.0152 -0.0180
67733SOL     OW14923   5.172  12.480   3.990  0.6176  0.4604 -0.2165
67733SOL    HW114924   5.134  12.480   4.078  0.9466  1.5058 -0.0526
67733SOL    HW214925   5.243  12.416   3.994 -1.0819 -1.5612 -0.5432
67734SOL     OW14926  13.209  12.525  10.984 -0.4213 -0.0815  0.3142
67734SOL    HW114927  13.224  12.597  11.045  2.7311  0.9829 -1.4922
67734SOL    HW214928  13.225  12.563  10.897  0.6726 -2.7218 -0.7580
67735SOL     OW14929   7.787   3.415  10.429  0.6252  0.2476  0.1362
67735SOL    HW114930   7.757   3.443  10.515 -0.2258 -0.2982  0.0288
67735SOL    HW214931   7.747   3.329  10.416  0.0907  0.6612 -1.1279
67736SOL     OW14932  11.825   0.197   2.234 -0.9059 -0.6454 -0.3783
67736SOL    HW114933  11.742   0.206   2.186 -0.3148 -1.0813 -1.4970
67736SOL    HW214934  11.804   0.138   2.306 -1.4329 -1.2274 -0.9970
67737SOL     OW14935   4.069  10.397  12.789  0.3751  0.2573  0.1980
67737SOL    HW114936   4.122  10.320  12.769 -2.2594 -1.8442  0.6721
67737SOL    HW214937   4.036  10.425  12.704  0.3413  0.0722  0.1478
67738SOL     OW14938   3.049   4.346   4.322 -0.2550 -0.7053 -0.0515
67738SOL    HW114939   3.026   4.308   4.407 -0.9421  0.8300  0.4706
67738SOL    HW214940   3.140   4.374   4.332 -0.6898  0.5233  0.5851
67739SOL     OW14941   3.151   1.114   2.421  0.1515 -0.5543 -0.4306
67739SOL    HW114942   3.179   1.078   2.336  0.0534 -2.7988  0.4279
67739SOL    HW214943   3.065   1.152   2.404  0.1803 -0.8711 -1.3466
67740SOL     OW14944  11.243   0.060  13.631 -0.1625 -0.0469 -0.2194
67740SOL    HW114945  11.244  -0.032  13.607 -0.1254 -0.5961  1.6893
67740SOL    HW214946  11.271   0.061  13.723  0.8482  1.9656 -0.4854
67741SOL     OW14947  10.932   4.787   7.493  0.1165 -0.2580 -0.1866
67741SOL    HW114948  10.993   4.809   7.564  0.1706 -2.0584  0.3861
67741SOL    HW214949  10.912   4.694   7.508 -0.0983 -0.5975 -2.3769
67742SOL     OW14950   7.992   9.544   0.346  0.4485 -0.4083  0.0777
67742SOL    HW114951   7.935   9.537   0.269  0.9203  0.7623 -0.4068
67742SOL    HW214952   8.045   9.465   0.344 -2.9697 -3.0235  2.1333
67743SOL     OW14953  13.172   3.681   5.444 -0.4143 -0.6300 -0.2235
67743SOL    HW114954  13.193   3.637   5.362  0.3192 -0.7976  0.0448
67743SOL    HW214955  13.113   3.753   5.419  0.4588 -0.1743 -1.0150
67744SOL     OW14956   3.564  10.854   5.480 -0.3297 -0.1011 -0.0507
67744SOL    HW114957   3.599  10.772   5.446  1.3032 -0.3273  2.0103
67744SOL    HW214958   3.509  10.829   5.554 -1.2218  0.5771 -0.4574
67745SOL     OW14959  12.490   2.053   3.148 -0.2141 -0.1851 -0.3875
67745SOL    HW114960  12.403   2.017   3.129 -0.3262  0.3246 -0.8743
67745SOL    HW214961  12.519   2.007   3.227 -1.4035  0.4437  0.4402
67746SOL     OW14962  11.614  10.651   5.252  0.1320 -0.1198 -0.0149
67746SOL    HW114963  11.534  10.601   5.270  0.0374  0.3036  0.7960
67746SOL    HW214964  11.633  10.632   5.160 -0.9711 -0.1350 -0.2633
67747SOL     OW14965   3.232  10.204   6.401  0.4111 -0.0448  0.4004
67747SOL    HW114966   3.317  10.232   6.434  1.1316 -1.1581 -0.4528
67747SOL    HW214967   3.170  10.269   6.435  1.4924  0.3866  1.6082
67748SOL     OW14968  13.352   6.320  11.683 -0.1058 -0.3711 -0.7247
67748SOL    HW114969  13.260   6.304  11.704 -0.3439  0.6232 -1.0023
67748SOL    HW214970  13.352   6.396  11.625  0.9967  0.7427  0.6399
67749SOL     OW14971  11.894  13.240   2.091  0.2520 -0.0078  0.4178
67749SOL    HW114972  11.947  13.318   2.108  2.2007 -1.0788 -0.4422
67749SOL    HW214973  11.862  13.213   2.177  0.1301  1.2969  0.8103
67750SOL     OW14974   9.681   3.128   0.265  0.3722  0.6977  0.3351
67750SOL    HW114975   9.656   3.183   0.190 -0.0081 -1.1012 -0.9152
67750SOL    HW214976   9.623   3.156   0.335 -0.7475  1.0011 -0.6688
67751SOL     OW14977   4.398  12.393   2.199  0.5604  0.2997  0.0879
67751SOL    HW114978   4.466  12.335   2.234 -0.3319 -1.9479 -1.6663
67751SOL    HW214979   4.444  12.446   2.134  0.6138 -1.7702 -1.6813
67752SOL     OW14980   3.253   2.172   1.453  0.0394  0.6639 -0.5131
67752SOL    HW114981   3.294   2.180   1.367 -0.0890 -0.1673 -0.6605
67752SOL    HW214982   3.166   2.135   1.435  0.8968 -1.8976  0.1258
67753SOL     OW14983  12.790   4.747   4.632  0.0840 -0.0022 -0.1530
67753SOL    HW114984  12.814   4.781   4.718 -1.7549  1.1907 -0.0498
67753SOL    HW214985  12.851   4.789   4.571  1.2318 -0.6623  0.5044
67754SOL     OW14986  10.956   4.935   4.869 -0.2164 -0.2825 -0.8757
67754SOL    HW114987  10.998   4.930   4.955 -0.4021 -0.2019 -0.7808
67754SOL    HW214988  10.863   4.927   4.887 -0.5502  2.9518 -0.7590
67755SOL     OW14989   6.795   9.753   0.648  0.6598 -0.0487 -0.2440
67755SOL    HW114990   6.879   9.777   0.687  0.8968 -0.5968 -0.4140
67755SOL    HW214991   6.808   9.767   0.554  0.3405  0.5119 -0.2139
67756SOL     OW14992   0.067  12.636  12.769 -0.5506  0.2377  0.2600
67756SOL    HW114993   0.109  12.561  12.726 -1.4142 -0.3050  0.3338
67756SOL    HW214994   0.113  12.712  12.734 -0.3789 -0.2644 -0.6518
67757SOL     OW14995   3.400   9.066   2.239  0.0739 -0.6227  0.8593
67757SOL    HW114996   3.328   9.086   2.179  1.2816 -0.0498 -0.4753
67757SOL    HW214997   3.359   9.022   2.313 -1.6972  0.1172  0.3691
67758SOL     OW14998   5.021   9.053  10.402 -0.5853  0.4579  0.2143
67758SOL    HW114999   5.006   8.960  10.420 -2.6256  0.6935  0.0175
67758SOL    HW215000   5.116   9.063  10.404 -0.3683 -1.3670  1.5214
67759SOL     OW15001   1.838   0.240   3.675  0.1857  0.1913 -0.0031
67759SOL    HW115002   1.926   0.274   3.693  0.6051 -1.4233  1.2753
67759SOL    HW215003   1.819   0.268   3.585  1.9628  0.6595 -0.2711
67760SOL     OW15004  11.584   7.669  11.442  0.4635 -0.1222 -0.1388
67760SOL    HW115005  11.639   7.733  11.489 -0.7527  2.2482 -1.7346
67760SOL    HW215006  11.638   7.642  11.368  0.5927 -0.1239 -0.0461
67761SOL     OW15007   1.314   7.554   6.280  0.0229  0.3336  0.0800
67761SOL    HW115008   1.229   7.586   6.311  0.9265  1.2875  1.7682
67761SOL    HW215009   1.298   7.522   6.192 -2.1417  0.2108  0.4814
67762SOL     OW15010   1.128  11.281   7.778  0.1114 -0.1373  0.1574
67762SOL    HW115011   1.106  11.339   7.851 -0.2491  2.5554 -1.9256
67762SOL    HW215012   1.060  11.297   7.713  0.2869 -2.6195 -0.7272
67763SOL     OW15013   0.862  13.332   6.306 -0.0836 -0.1038  0.0735
67763SOL    HW115014   0.789  13.336   6.367 -0.7087 -0.6648 -0.6234
67763SOL    HW215015   0.870  13.239   6.285  0.2010  0.0686 -0.6050
67764SOL     OW15016   4.368   7.352  10.573 -0.3928 -0.1933  0.2702
67764SOL    HW115017   4.339   7.432  10.618  0.6333 -0.3460  1.2475
67764SOL    HW215018   4.347   7.282  10.635 -0.4911 -0.5907 -0.2119
67765SOL     OW15019   6.682   8.562   4.081 -0.0115 -0.7785 -0.1823
67765SOL    HW115020   6.728   8.531   4.159 -0.3116 -1.2149 -0.1776
67765SOL    HW215021   6.743   8.623   4.039  0.3090 -0.8570  0.1735
67766SOL     OW15022   1.273   7.170  10.386 -0.0938  0.2186 -0.0167
67766SOL    HW115023   1.292   7.236  10.453  1.9430 -0.5251  0.2096
67766SOL    HW215024   1.252   7.221  10.308 -0.3037  1.1169  0.6152
67767SOL     OW15025   1.521   3.662   9.123  1.0419  0.8393 -0.1015
67767SOL    HW115026   1.592   3.614   9.080  0.3200  0.6726 -1.1817
67767SOL    HW215027   1.534   3.753   9.097 -0.8511  0.4344 -3.0144
67768SOL     OW15028   4.158  12.663  12.521  0.1495 -0.0591 -0.0205
67768SOL    HW115029   4.162  12.568  12.510  1.9307 -0.0280  0.1545
67768SOL    HW215030   4.119  12.676  12.608 -1.7019 -0.5525 -0.7238
67769SOL     OW15031   5.355  11.416  10.277 -0.0484  0.3991  0.3392
67769SOL    HW115032   5.320  11.488  10.224 -2.4618  0.7491  2.2220
67769SOL    HW215033   5.444  11.404  10.245 -0.8662  1.5480 -2.7241
67770SOL     OW15034   6.770   0.280   5.896  0.3103  0.2823  0.6349
67770SOL    HW115035   6.827   0.324   5.834  2.2552 -1.1252  1.3336
67770SOL    HW215036   6.770   0.337   5.973  1.3521 -0.0196  0.8742
67771SOL     OW15037  11.817  12.344   7.934  0.0689  0.1047 -0.2946
67771SOL    HW115038  11.874  12.315   7.863 -0.1015  0.9298 -0.7752
67771SOL    HW215039  11.793  12.433   7.911 -0.0551  0.3579  0.7637
67772SOL     OW15040   5.639   4.935  12.077  0.1214 -0.1211 -0.4721
67772SOL    HW115041   5.660   4.945  12.170  1.8450 -0.0255 -0.8460
67772SOL    HW215042   5.561   4.990  12.064 -1.5310 -1.8851  1.3443
67773SOL     OW15043  12.028  12.222   4.905  0.2214  0.5132 -0.3065
67773SOL    HW115044  12.085  12.297   4.921  0.0077  0.3221  1.5070
67773SOL    HW215045  12.075  12.147   4.941  0.2215 -0.1978 -1.6853
67774SOL     OW15046  11.392   4.673  13.426  0.4972  0.3879  0.4635
67774SOL    HW115047  11.330   4.656  13.355 -0.4355  0.1131  1.3281
67774SOL    HW215048  11.426   4.587  13.450  0.7001  0.4655  0.4604
67775SOL     OW15049   3.608  11.278   3.465 -0.5181 -0.5600 -0.0902
67775SOL    HW115050   3.546  11.328   3.411  0.4106 -0.4063 -1.0366
67775SOL    HW215051   3.666  11.236   3.402  0.3576 -0.6821  0.7800
67776SOL     OW15052   6.512   1.039   5.460  0.2614  0.0867  0.1922
67776SOL    HW115053   6.513   1.103   5.532  1.1183 -1.4686  1.6275
67776SOL    HW215054   6.430   0.991   5.473  0.2452  0.0360 -0.0985
67777SOL     OW15055   0.780   1.305  12.189  0.5228  0.1873  0.1428
67777SOL    HW115056   0.769   1.392  12.151  0.9227 -0.3236 -1.2018
67777SOL    HW215057   0.814   1.321  12.277  1.3572  1.3772 -0.3754
67778SOL     OW15058   6.254  11.794   7.591 -0.2957 -0.4924 -0.3201
67778SOL    HW115059   6.244  11.703   7.617  1.5612 -0.5253  0.4196
67778SOL    HW215060   6.288  11.838   7.669  0.5083  0.4691 -1.1786
67779SOL     OW15061  10.638   2.052  13.562 -0.0002  0.1815 -0.0339
67779SOL    HW115062  10.548   2.049  13.530 -0.2088 -3.7442  0.4740
67779SOL    HW215063  10.691   2.063  13.484 -0.8186 -1.1557 -0.8152
67780SOL     OW15064   8.944   9.755   5.584  0.0481 -0.6260 -0.4081
67780SOL    HW115065   8.902   9.778   5.501  0.1698  1.2744  0.0199
67780SOL    HW215066   8.872   9.748   5.646  0.0480 -1.0867 -0.4544
67781SOL     OW15067  13.422   1.687   7.386  0.0403  0.1156 -0.0047
67781SOL    HW115068  13.471   1.624   7.333  2.2789  1.4304  0.3992
67781SOL    HW215069  13.440   1.772   7.345 -1.1456  0.7593  0.7431
67782SOL     OW15070  12.045   7.072   7.800 -0.5974  0.1349  0.2956
67782SOL    HW115071  12.105   7.051   7.871 -0.9463  0.1410  0.5933
67782SOL    HW215072  12.076   7.157   7.768  0.2681 -0.4051 -0.3263
67783SOL     OW15073   9.476   8.997   8.019 -0.3204 -0.6645 -0.7937
67783SOL    HW115074   9.508   9.081   8.053  0.5641 -1.7712  1.2828
67783SOL    HW215075   9.437   9.019   7.934 -0.3807  1.8749 -0.1901
67784SOL     OW15076   6.809   8.756   8.220  0.1487 -0.3698 -0.0840
67784SOL    HW115077   6.796   8.699   8.144 -0.2981 -1.4760  0.7825
67784SOL    HW215078   6.742   8.823   8.212  1.1212  0.4946 -1.4964
67785SOL     OW15079  12.810   0.693   0.584  0.1284  0.0108  0.2065
67785SOL    HW115080  12.725   0.681   0.542 -1.4650 -0.1982  3.2124
67785SOL    HW215081  12.832   0.785   0.571 -0.6485  0.1030 -0.4519
67786SOL     OW15082  13.745   9.219   6.560  0.1698  0.0666  0.3765
67786SOL    HW115083  13.745   9.160   6.484 -1.9250 -2.1175  1.9387
67786SOL    HW215084  13.833   9.209   6.597  1.8825  2.5150 -2.5761
67787SOL     OW15085   1.013   0.811   6.243 -0.0200  0.0015  0.3705
67787SOL    HW115086   0.984   0.893   6.283 -1.4666  0.7529 -1.9857
67787SOL    HW215087   1.013   0.829   6.149  2.6049 -1.8139 -0.0871
67788SOL     OW15088  13.002   2.772   5.214 -0.0993  0.2729 -0.3904
67788SOL    HW115089  13.088   2.806   5.190  0.7154 -1.7084 -0.5191
67788SOL    HW215090  13.013   2.677   5.215 -1.7182  0.0154  1.7737
67789SOL     OW15091   0.823   9.163  13.168 -0.4589 -0.4548 -0.1491
67789SOL    HW115092   0.734   9.141  13.195 -0.8431  1.2270  0.0642
67789SOL    HW215093   0.867   9.191  13.248 -0.4198  0.8094 -0.5874
67790SOL     OW15094   1.379   8.037   9.591 -0.0369  0.3679 -0.2976
67790SOL    HW115095   1.411   8.052   9.679 -1.5502 -0.3041  0.3992
67790SOL    HW215096   1.418   7.953   9.565  0.8143  0.8073 -0.5022
67791SOL     OW15097  10.133   9.044  12.958 -0.0872 -0.0714 -0.1005
67791SOL    HW115098  10.086   8.981  13.013 -0.2745 -0.3715 -0.6058
67791SOL    HW215099  10.165   8.992  12.884 -0.8880  0.5681 -0.9124
67792SOL     OW15100   9.561   8.514   8.084  0.0744 -0.6475  0.3968
67792SOL    HW115101   9.530   8.538   8.172 -0.7190 -1.1457  0.2609
67792SOL    HW215102   9.550   8.594   8.032  0.0913 -0.4877  0.6357
67793SOL     OW15103   3.333  12.330  11.392  0.4498  0.4685 -0.0095
67793SOL    HW115104   3.399  12.292  11.449 -0.0031  0.5124  0.5555
67793SOL    HW215105   3.295  12.256  11.346  1.2854  0.5025 -0.7685
67794SOL     OW15106   2.133  12.094   8.773 -0.2880  0.8791  0.1210
67794SOL    HW115107   2.071  12.027   8.743  0.4487  0.3968 -0.3583
67794SOL    HW215108   2.166  12.060   8.857 -1.3127  1.5620  0.8243
67795SOL     OW15109   7.062   4.080   8.681 -0.3645 -0.0776 -0.0974
67795SOL    HW115110   6.999   4.035   8.738 -0.8321 -0.5581 -0.9779
67795SOL    HW215111   7.012   4.102   8.603  0.7596 -1.2257 -1.1849
67796SOL     OW15112  11.459   4.466   5.732 -0.5149  0.2421  0.3756
67796SOL    HW115113  11.459   4.417   5.650 -0.2816 -1.0593  1.1270
67796SOL    HW215114  11.538   4.520   5.728  0.5132 -1.1960  0.5194
67797SOL     OW15115   5.738   6.373  11.855  0.3321 -0.0323 -0.0417
67797SOL    HW115116   5.731   6.411  11.943 -0.0031 -0.4327  0.1065
67797SOL    HW215117   5.684   6.430  11.800 -0.7541 -0.6879  0.3140
67798SOL     OW15118   4.495  11.010   7.803  0.5979  0.1428  0.2365
67798SOL    HW115119   4.517  11.025   7.711  2.1004 -0.8518  0.3911
67798SOL    HW215120   4.573  11.038   7.851 -0.7005  2.0062  1.3506
67799SOL     OW15121   6.625  10.848   4.974 -0.0259  0.2596  1.2364
67799SOL    HW115122   6.620  10.879   5.064  2.4553  0.6207  1.3128
67799SOL    HW215123   6.707  10.884   4.940  0.0108 -1.3375 -0.5751
67800SOL     OW15124   2.561   5.736   8.431  0.3608 -0.1717  0.3987
67800SOL    HW115125   2.655   5.754   8.438  0.0871  1.2282  0.8018
67800SOL    HW215126   2.554   5.673   8.360  1.5267  0.3591 -0.2162
67801SOL     OW15127  10.110   7.131   7.565  0.5750 -0.0390  0.4567
67801SOL    HW115128  10.164   7.093   7.634  0.4631 -0.8501  0.1140
67801SOL    HW215129  10.031   7.076   7.564  0.7633 -0.3117 -0.6031
67802SOL     OW15130   2.313   1.388   6.447  0.3172  0.2472  0.4285
67802SOL    HW115131   2.357   1.471   6.464 -0.1534  0.6453 -0.2235
67802SOL    HW215132   2.268   1.402   6.364  1.7808 -1.2736 -0.7086
67803SOL     OW15133   3.150  11.534   8.692 -0.1712  0.0194  0.2326
67803SOL    HW115134   3.116  11.550   8.604  2.0092 -0.9126 -0.8499
67803SOL    HW215135   3.098  11.460   8.724 -0.1087 -0.5007 -0.8146
67804SOL     OW15136  10.705  11.558   2.211 -0.3312 -0.0381 -0.1193
67804SOL    HW115137  10.721  11.498   2.284  0.1910 -0.5824 -0.6806
67804SOL    HW215138  10.771  11.627   2.223 -2.0655  1.4636  1.5823
67805SOL     OW15139   8.286   9.146   8.600 -0.1199 -0.0625  0.0126
67805SOL    HW115140   8.212   9.097   8.635  0.0155  0.9069  1.7978
67805SOL    HW215141   8.322   9.090   8.532 -1.9020 -0.9696 -0.2424
67806SOL     OW15142   2.764   6.678   9.003  0.5173 -0.2315  0.5533
67806SOL    HW115143   2.732   6.624   9.075 -0.3735  0.1464  0.4507
67806SOL    HW215144   2.830   6.623   8.960 -3.4758 -3.2925 -2.3746
67807SOL     OW15145   6.495   0.196   2.529  0.5358 -0.1361 -0.1360
67807SOL    HW115146   6.583   0.176   2.561 -0.5914 -3.5162  1.3190
67807SOL    HW215147   6.486   0.142   2.450 -0.7538 -1.3405  0.7636
67808SOL     OW15148   9.991  13.095   3.301 -0.3155 -0.2034 -0.3666
67808SOL    HW115149   9.897  13.080   3.292 -0.0094 -1.1371 -3.0646
67808SOL    HW215150  10.001  13.190   3.295 -1.1316  0.0251  1.2463
67809SOL     OW15151   2.000   1.991   5.228 -0.5072 -0.2078 -0.3712
67809SOL    HW115152   1.944   2.069   5.224  1.2537  1.1351  0.0313
67809SOL    HW215153   2.003   1.969   5.321 -0.3720 -0.2827 -0.3936
67810SOL     OW15154  10.821  11.773   6.335  0.2397 -0.3299 -0.0790
67810SOL    HW115155  10.726  11.765   6.349  0.0472  0.9624 -0.5492
67810SOL    HW215156  10.859  11.706   6.392 -0.9481 -0.7884  0.2068
67811SOL     OW15157   1.833   6.481   9.454  0.1378  0.7813 -0.1824
67811SOL    HW115158   1.771   6.410   9.438  0.0484  0.9666 -0.6848
67811SOL    HW215159   1.825   6.499   9.548  1.7161 -1.3216  0.4278
67812SOL     OW15160  12.867   0.417   0.516 -0.2699 -0.1336 -0.0216
67812SOL    HW115161  12.880   0.366   0.596  1.3214  0.5509  0.2003
67812SOL    HW215162  12.883   0.507   0.543  2.7051 -0.0959 -1.5282
67813SOL     OW15163   1.329   1.477   5.096  0.2035 -0.2330  0.1277
67813SOL    HW115164   1.373   1.518   5.021 -3.9187  0.3632 -2.2319
67813SOL    HW215165   1.265   1.542   5.125 -2.5300 -2.6745  0.0276
67814SOL     OW15166   1.903  11.240   8.620 -0.1859 -0.4309 -0.2224
67814SOL    HW115167   1.887  11.205   8.707  1.9065  0.0768  0.4120
67814SOL    HW215168   1.858  11.179   8.561 -0.4708 -1.5591  1.1156
67815SOL     OW15169   4.339  13.192   6.961  0.0760 -0.3533  0.1898
67815SOL    HW115170   4.325  13.275   6.916  0.3406  0.2223  1.1456
67815SOL    HW215171   4.423  13.160   6.927 -1.3014 -1.6768 -2.3083
67816SOL     OW15172   7.755  12.319   9.835 -0.0446 -0.6993 -0.0540
67816SOL    HW115173   7.765  12.324   9.930  1.9194 -2.0929 -0.1270
67816SOL    HW215174   7.667  12.353   9.819 -0.8696 -1.4487  2.3591
67817SOL     OW15175   2.076   5.211  13.333 -0.0448  0.5267 -0.2348
67817SOL    HW115176   2.159   5.211  13.379  0.0217  1.3585 -0.3347
67817SOL    HW215177   2.055   5.118  13.319  1.1281  0.3206 -0.6952
67818SOL     OW15178   3.079   9.719   8.876  0.0610  0.3950 -0.6782
67818SOL    HW115179   3.057   9.685   8.789  0.1649 -1.8020  0.0902
67818SOL    HW215180   3.070   9.643   8.934  0.7936  1.6124  1.1012
67819SOL     OW15181   1.151   3.768  10.219  0.2841  0.0443  0.3157
67819SOL    HW115182   1.168   3.759  10.313 -1.2878  0.6863  0.6983
67819SOL    HW215183   1.060   3.796  10.214  1.0131  2.4618 -1.2886
67820SOL     OW15184   2.336   0.780   4.422 -0.0115 -0.0742  0.3877
67820SOL    HW115185   2.301   0.772   4.333 -1.4712  1.2024  0.7957
67820SOL    HW215186   2.408   0.841   4.414 -0.6498  0.6650  0.1901
67821SOL     OW15187   9.603   4.209   4.685 -0.1566  0.5374 -0.3788
67821SOL    HW115188   9.629   4.277   4.623  0.5074  0.3240 -0.3472
67821SOL    HW215189   9.678   4.150   4.688 -0.5073  0.1039  0.0124
67822SOL     OW15190   3.633   8.161   2.205 -0.1121  0.1087  0.2174
67822SOL    HW115191   3.549   8.147   2.250 -0.5640 -0.1391 -0.6697
67822SOL    HW215192   3.695   8.108   2.255 -0.5330  0.0789  0.7299
67823SOL     OW15193   3.660  12.498   7.725 -0.3683 -0.0708  0.3057
67823SOL    HW115194   3.722  12.532   7.661 -1.9788  0.3164 -1.1478
67823SOL    HW215195   3.712  12.444   7.784  1.1120 -0.8807 -1.6560
67824SOL     OW15196  11.604   5.625   4.000  0.3010  0.3112 -0.6791
67824SOL    HW115197  11.687   5.647   4.042 -0.3898 -1.3790  1.7942
67824SOL    HW215198  11.581   5.704   3.951  3.4820  0.7109 -1.7976
67825SOL     OW15199   8.442   9.963   3.107  0.4745  0.1961 -0.3576
67825SOL    HW115200   8.504   9.905   3.150  0.5828 -1.0113 -2.0185
67825SOL    HW215201   8.478  10.051   3.119  1.2980 -0.2636  0.6276
67826SOL     OW15202   4.629   6.827   8.088 -0.6799 -0.1905 -0.1875
67826SOL    HW115203   4.595   6.804   8.001  1.4076 -1.6916 -0.6953
67826SOL    HW215204   4.609   6.751   8.142  3.8102 -2.4093 -1.1586
67827SOL     OW15205   4.905   4.200   6.918  0.1342  0.1034 -0.1528
67827SOL    HW115206   4.936   4.258   6.988  0.1917  0.3937 -0.4160
67827SOL    HW215207   4.985   4.167   6.877  0.1361 -1.2411  0.8570
67828SOL     OW15208   6.719   9.332  12.044 -0.3159 -0.2483  0.2292
67828SOL    HW115209   6.748   9.378  11.965 -0.2202  0.2256  0.5411
67828SOL    HW215210   6.800   9.319  12.094 -0.8221  3.1295  2.2183
67829SOL     OW15211   4.174  13.418   4.065  0.1850  0.1505  0.2097
67829SOL    HW115212   4.172  13.380   4.152  0.2029  0.4995  0.3624
67829SOL    HW215213   4.088  13.458   4.053  0.7964  1.6818  0.7767
67830SOL     OW15214  13.599   3.726   4.224 -0.0437 -0.5061  0.0955
67830SOL    HW115215  13.599   3.793   4.155 -1.5248 -1.1115 -0.5441
67830SOL    HW215216  13.652   3.764   4.294  1.0953  0.3392 -1.1629
67831SOL     OW15217   7.622   4.340   6.416  0.5932 -0.2425 -0.1041
67831SOL    HW115218   7.649   4.431   6.403 -1.1507  0.3921  0.3741
67831SOL    HW215219   7.675   4.290   6.355  3.1863  0.7872  1.1447
67832SOL     OW15220   4.759   0.608  10.758  0.2004 -0.1201 -0.2643
67832SOL    HW115221   4.837   0.640  10.803  0.6318 -1.8481  0.2849
67832SOL    HW215222   4.691   0.672  10.779  1.5289  1.6332 -1.0762
67833SOL     OW15223   1.198   9.897   2.860  0.1072  0.4650 -0.6702
67833SOL    HW115224   1.189   9.810   2.899 -1.7834  1.6263  1.7436
67833SOL    HW215225   1.292   9.915   2.863  0.2677 -0.3932  1.5236
67834SOL     OW15226  10.948   5.869  11.729 -0.0053  0.2527  0.0544
67834SOL    HW115227  10.861   5.891  11.763  0.4334  0.2541  1.2171
67834SOL    HW215228  11.000   5.947  11.746  0.4133 -0.0282  0.0641
67835SOL     OW15229   1.880   4.068  11.751  0.0749  0.0580  0.1335
67835SOL    HW115230   1.795   4.068  11.708 -1.9189  1.5825  3.5961
67835SOL    HW215231   1.886   3.982  11.793 -0.9885  0.7711  1.8492
67836SOL     OW15232  13.087  10.100   9.170  0.2029 -0.0442  0.5530
67836SOL    HW115233  13.179  10.106   9.145  0.7044 -0.5450  2.1652
67836SOL    HW215234  13.041  10.083   9.087  1.7910 -1.9234 -0.0216
67837SOL     OW15235  10.643   6.811   8.783 -0.4459 -0.0214  0.0761
67837SOL    HW115236  10.672   6.878   8.722 -1.4462  0.8203  0.4931
67837SOL    HW215237  10.572   6.766   8.737 -1.0538  0.4715  0.5088
67838SOL     OW15238  10.926   6.836   7.360  0.1973 -0.0243 -0.0848
67838SOL    HW115239  10.993   6.809   7.423  1.3144  0.8597 -0.8399
67838SOL    HW215240  10.849   6.783   7.382  0.6201  0.0910  1.8504
67839SOL     OW15241   1.072   2.236   4.066  0.0884  0.4841 -0.2986
67839SOL    HW115242   1.151   2.245   4.012 -0.1532 -1.5299 -1.0645
67839SOL    HW215243   1.009   2.295   4.026  0.5291  0.4784 -1.0161
67840SOL     OW15244  13.609   2.062  10.380  0.1270  0.1424 -0.5028
67840SOL    HW115245  13.536   2.124  10.383 -1.4481 -1.4939 -2.1400
67840SOL    HW215246  13.675   2.106  10.327 -0.0398  1.2807  0.2012
67841SOL     OW15247  11.237   9.651   2.641 -0.5691  0.7567 -0.3458
67841SOL    HW115248  11.320   9.681   2.678 -0.8461  0.0417  0.8832
67841SOL    HW215249  11.262   9.588   2.573 -0.0780  1.6493 -1.0183
67842SOL     OW15250   6.951  10.122   7.406  0.5248  0.2107  0.4474
67842SOL    HW115251   6.920  10.137   7.316 -0.0569 -0.1349  0.5878
67842SOL    HW215252   6.889  10.060   7.443  1.3737 -0.4738  0.7547
67843SOL     OW15253  13.508   7.908   0.322 -0.3473 -0.6416 -0.2203
67843SOL    HW115254  13.516   7.820   0.359 -1.1875 -1.3657 -1.6781
67843SOL    HW215255  13.551   7.902   0.236  1.7301  1.0460  0.5897
67844SOL     OW15256   0.723  11.262   0.744 -0.6904 -0.2017 -0.4321
67844SOL    HW115257   0.710  11.221   0.829 -1.0788 -1.0878 -0.9129
67844SOL    HW215258   0.808  11.230   0.715 -0.6102  0.0112 -0.4385
67845SOL     OW15259   8.377  13.484   7.947 -0.1180 -0.1021  0.3497
67845SOL    HW115260   8.296  13.433   7.955  0.2788 -0.6433  0.9783
67845SOL    HW215261   8.424  13.441   7.876  0.3736 -0.8465  1.1108
67846SOL     OW15262   7.383  12.272  11.869 -0.0447  0.6738  0.0259
67846SOL    HW115263   7.356  12.207  11.804 -0.0499 -0.6853  1.3209
67846SOL    HW215264   7.324  12.257  11.943  0.2669  1.8561  0.5292
67847SOL     OW15265  11.522   7.566   5.324  0.2262 -0.0470  0.3074
67847SOL    HW115266  11.532   7.646   5.272 -0.2692 -0.2038 -0.0386
67847SOL    HW215267  11.468   7.592   5.399 -3.6218 -0.8755 -1.8923
67848SOL     OW15268   3.114   3.450   3.949 -0.2046  0.1903  0.1711
67848SOL    HW115269   3.168   3.371   3.945  1.4791  1.2605  0.6423
67848SOL    HW215270   3.175   3.519   3.976 -1.5576  1.7100 -0.4945
67849SOL     OW15271   2.078   4.416   6.821 -0.0543 -0.0104  0.9643
67849SOL    HW115272   1.999   4.362   6.825 -0.0830 -0.4319 -2.4342
67849SOL    HW215273   2.150   4.355   6.837 -0.2720 -0.3418  0.6909
67850SOL     OW15274   9.438   0.729   4.628 -0.2231 -0.3902  0.4636
67850SOL    HW115275   9.403   0.700   4.544  1.9490 -0.1730 -0.5612
67850SOL    HW215276   9.375   0.795   4.658 -0.7382 -0.0226 -1.2888
67851SOL     OW15277  12.052   5.240  10.493 -0.0895 -0.5277 -0.1470
67851SOL    HW115278  12.102   5.321  10.496  1.1488 -1.2277 -0.6537
67851SOL    HW215279  11.971   5.263  10.448 -0.1369  0.5917  0.4698
67852SOL     OW15280   9.206  12.760  11.479  0.2753  0.5197  0.0524
67852SOL    HW115281   9.265  12.701  11.433  0.1898  0.7862 -0.3970
67852SOL    HW215282   9.211  12.842  11.431 -0.6473  0.4768 -0.1448
67853SOL     OW15283  12.340  12.749   2.686 -0.5941 -0.9419  0.1467
67853SOL    HW115284  12.381  12.692   2.751  1.9653 -0.1441 -0.6624
67853SOL    HW215285  12.379  12.722   2.602 -1.2048  0.3370 -0.5756
67854SOL     OW15286   3.847   6.499   4.206  0.2812 -0.2152  0.3747
67854SOL    HW115287   3.848   6.404   4.211 -1.3905 -0.3750 -1.2875
67854SOL    HW215288   3.828   6.518   4.114 -0.5927  1.7109  0.9033
67855SOL     OW15289   2.385   2.837  13.686 -0.3026  0.1917  0.4485
67855SOL    HW115290   2.329   2.881  13.750  1.6909  2.2739  0.8960
67855SOL    HW215291   2.442   2.781  13.738  1.1286  1.6704  0.5481
67856SOL     OW15292  11.012   6.697  13.560  0.0072 -0.8325 -0.2758
67856SOL    HW115293  10.924   6.692  13.596  0.0185 -0.8248 -0.2457
67856SOL    HW215294  11.040   6.606  13.550 -0.2018 -0.8448 -0.7746
67857SOL     OW15295   2.691  13.240   0.452  0.6215  0.4215 -0.3208
67857SOL    HW115296   2.758  13.303   0.478  0.1512  1.4317 -1.4716
67857SOL    HW215297   2.717  13.210   0.365  0.9722 -1.2081  0.2974
67858SOL     OW15298  10.843  11.430  10.015 -0.0218 -0.7774 -0.4105
67858SOL    HW115299  10.931  11.427   9.978  0.5783 -2.3844  0.9983
67858SOL    HW215300  10.853  11.483  10.094 -0.5569 -0.1060 -0.7907
67859SOL     OW15301   3.150   7.949   6.001 -0.0919  0.2812  0.2783
67859SOL    HW115302   3.126   8.040   5.985 -1.9351 -0.2294 -0.0450
67859SOL    HW215303   3.217   7.953   6.069  0.6794  1.9195 -0.5249
67860SOL     OW15304  13.077   5.286   0.846  0.4965 -0.0289 -0.3129
67860SOL    HW115305  13.102   5.371   0.810  1.0575  0.7082  1.6830
67860SOL    HW215306  13.018   5.249   0.780  0.6992  1.6328 -1.5039
67861SOL     OW15307  13.521  12.721   8.491 -0.6794 -0.6688 -0.2182
67861SOL    HW115308  13.570  12.672   8.557 -0.5265  0.4913  0.5502
67861SOL    HW215309  13.509  12.659   8.420  0.4038 -1.5039  0.2999
67862SOL     OW15310   6.774  11.836  10.051  0.6067  0.3913 -0.1583
67862SOL    HW115311   6.839  11.853   9.983 -0.3928  0.6776 -1.0820
67862SOL    HW215312   6.712  11.910  10.044 -0.4850 -0.4955 -0.1510
67863SOL     OW15313   0.310  11.910   8.880 -0.1632  0.4792 -0.0084
67863SOL    HW115314   0.267  11.826   8.897 -0.1881  0.6336  0.7338
67863SOL    HW215315   0.403  11.892   8.897 -0.1905  0.6415  0.3215
67864SOL     OW15316   8.107   1.270   0.445  0.1204 -0.1397 -0.1734
67864SOL    HW115317   8.050   1.193   0.438 -0.1985  0.1414 -0.7609
67864SOL    HW215318   8.068   1.334   0.386  1.3056 -0.0923 -0.9309
67865SOL     OW15319   0.076  10.516  12.892  0.4225  0.7291  0.0518
67865SOL    HW115320   0.105  10.446  12.832 -0.0114  1.0494 -0.5454
67865SOL    HW215321   0.034  10.469  12.964 -1.7534  0.3868 -1.3390
67866SOL     OW15322  10.760   1.360   3.199 -0.0616 -0.5042  0.0556
67866SOL    HW115323  10.746   1.280   3.249 -0.2535 -0.7025 -0.3131
67866SOL    HW215324  10.719   1.428   3.252 -1.0203 -0.8423 -0.2302
67867SOL     OW15325   8.642   1.781   9.185 -0.2145 -0.2606  0.7606
67867SOL    HW115326   8.638   1.686   9.189 -0.9183 -0.2125  1.2712
67867SOL    HW215327   8.700   1.806   9.257  2.0273 -0.4207 -0.8887
67868SOL     OW15328   6.757  13.380  11.890 -0.2591 -0.3803 -0.1028
67868SOL    HW115329   6.787  13.314  11.827  0.3124  0.1171 -0.3615
67868SOL    HW215330   6.833  13.436  11.904 -0.5503 -0.1503  0.6044
67869SOL     OW15331   1.658   9.557   8.192  0.1933 -0.2104  0.1364
67869SOL    HW115332   1.693   9.625   8.250 -0.2497  0.3457 -0.2402
67869SOL    HW215333   1.574   9.592   8.162  0.7211 -0.1721 -1.3845
67870SOL     OW15334   2.912   0.117   5.496  0.5560 -0.0541  0.0046
67870SOL    HW115335   2.927   0.080   5.583  2.3661  1.1198  0.2293
67870SOL    HW215336   2.995   0.106   5.450 -0.1453  0.0132 -1.3498
67871SOL     OW15337   4.957  12.599   9.283  0.5875 -0.3370  0.2201
67871SOL    HW115338   4.954  12.680   9.335 -0.8819  0.0942 -0.4643
67871SOL    HW215339   5.037  12.607   9.231  0.6155  0.5395  0.3828
67872SOL     OW15340   9.326  13.590   7.621 -0.0443  0.1048 -0.1180
67872SOL    HW115341   9.262  13.576   7.551 -0.9449 -0.1376  0.7439
67872SOL    HW215342   9.292  13.664   7.671 -0.0121 -0.4542  0.7578
67873SOL     OW15343   7.011   2.808   5.005 -0.3283  0.3843 -0.0198
67873SOL    HW115344   6.932   2.755   4.993 -0.6397  0.6976  0.6193
67873SOL    HW215345   6.985   2.897   4.981 -0.1859  0.4999  0.2471
67874SOL     OW15346   1.021   3.442   0.637 -0.3510 -0.5825  0.6632
67874SOL    HW115347   0.981   3.377   0.579 -1.3149  1.0812 -0.6234
67874SOL    HW215348   0.985   3.525   0.608 -0.8150  0.3667  3.6311
67875SOL     OW15349   0.693  13.317   0.560  0.2554 -0.9940  0.4291
67875SOL    HW115350   0.716  13.329   0.653  2.7260  0.0835 -0.2182
67875SOL    HW215351   0.728  13.231   0.538  0.7153 -0.7717  0.2606
67876SOL     OW15352   7.724   9.284   5.600  0.5155 -0.0829  0.2413
67876SOL    HW115353   7.759   9.370   5.575  1.3505 -0.4074  0.2670
67876SOL    HW215354   7.786   9.252   5.667  0.3637 -0.8192  0.0360
67877SOL     OW15355  13.696  11.223   7.134  0.0543  0.6245  0.0564
67877SOL    HW115356  13.670  11.297   7.188 -0.4386  0.6082 -0.1517
67877SOL    HW215357  13.691  11.147   7.192 -0.4064  0.6172  0.0172
67878SOL     OW15358   4.526  11.677   7.311  0.0790 -0.0068  0.0382
67878SOL    HW115359   4.559  11.757   7.351  1.4752 -0.8151  0.5791
67878SOL    HW215360   4.587  11.659   7.240 -0.7549 -0.1100 -0.6661
67879SOL     OW15361   3.822  12.301   8.929 -0.1861 -0.1623  0.3223
67879SOL    HW115362   3.727  12.298   8.939 -0.3082  2.0779  0.3023
67879SOL    HW215363   3.856  12.308   9.019 -0.2613  1.9321  0.2444
67880SOL     OW15364   3.622   1.821   2.570  0.2198 -0.0655 -0.0618
67880SOL    HW115365   3.685   1.887   2.541  0.6448 -0.8603 -1.0367
67880SOL    HW215366   3.676   1.752   2.608 -0.0203 -0.8407 -1.0771
67881SOL     OW15367  12.991   9.432  10.544 -0.4379  0.7197 -0.4111
67881SOL    HW115368  13.039   9.355  10.514 -0.8382 -0.4362  1.7525
67881SOL    HW215369  12.976   9.483  10.464  2.0536 -0.1513 -1.5402
67882SOL     OW15370   1.170   6.288   8.179  0.4041  0.2744  0.1648
67882SOL    HW115371   1.096   6.321   8.229  1.4680  1.0147  1.3060
67882SOL    HW215372   1.147   6.197   8.158 -1.2566  0.7981 -0.4252
67883SOL     OW15373   5.988  10.206   1.341 -0.0711 -0.0655  0.0321
67883SOL    HW115374   6.028  10.291   1.321  0.8025 -0.0263  1.7336
67883SOL    HW215375   5.895  10.226   1.354  0.1889  0.7299  0.8062
67884SOL     OW15376   7.030  13.604  12.968  0.2715 -0.6164 -0.1598
67884SOL    HW115377   7.024  13.661  13.045  0.1830 -2.0646  0.9395
67884SOL    HW215378   7.110  13.632  12.924  0.0947  0.5204  0.2139
67885SOL     OW15379  13.225   9.752   9.886  0.3676  0.3739  0.3312
67885SOL    HW115380  13.231   9.714   9.974  1.0542  1.6863  0.8817
67885SOL    HW215381  13.310   9.732   9.846  0.8439  1.5245  0.7278
67886SOL     OW15382   7.258   7.701   5.478  0.2092  0.1342 -0.2936
67886SOL    HW115383   7.349   7.674   5.492 -0.1830 -2.0976 -1.5896
67886SOL    HW215384   7.224   7.715   5.567  1.6083  0.3241  0.2454
67887SOL     OW15385  12.625  11.307  13.516 -0.7808  0.2623 -0.3917
67887SOL    HW115386  12.546  11.258  13.537 -2.0351  2.1762 -0.3176
67887SOL    HW215387  12.626  11.380  13.579  0.5152  0.8142 -1.0043
67888SOL     OW15388  12.868   0.187   2.066 -0.2791  0.1066 -0.0415
67888SOL    HW115389  12.945   0.241   2.047 -0.0321 -0.2411 -0.0514
67888SOL    HW215390  12.794   0.242   2.045 -0.0427  0.6658  0.5453
67889SOL     OW15391  10.820   7.929  11.713  0.7377  0.3769 -0.0934
67889SOL    HW115392  10.769   7.893  11.786 -0.6681 -0.4994 -1.4460
67889SOL    HW215393  10.785   8.017  11.700  0.8367  0.4511  0.1308
67890SOL     OW15394   9.990   6.553   1.747 -0.0025  0.2408 -0.2332
67890SOL    HW115395   9.992   6.485   1.680 -0.5617  0.5687 -0.5916
67890SOL    HW215396   9.958   6.631   1.702 -0.7187  0.3811  0.4808
67891SOL     OW15397   1.176   1.181   5.548 -0.1578  0.4953 -0.3542
67891SOL    HW115398   1.123   1.129   5.608 -2.8417  1.2275 -1.9033
67891SOL    HW215399   1.158   1.272   5.573 -0.6488  0.7829 -1.6351
67892SOL     OW15400  10.243   9.060   8.980  0.3559  0.0503  0.4005
67892SOL    HW115401  10.268   8.977   9.022  2.2768  0.4871  0.2496
67892SOL    HW215402  10.273   9.127   9.042  1.2362  0.6616 -0.6570
67893SOL     OW15403   6.231   2.148   2.039  0.0448  0.3552  0.0652
67893SOL    HW115404   6.308   2.190   2.079  0.9898  0.1335 -1.4593
67893SOL    HW215405   6.162   2.214   2.045  1.2247  1.7919 -1.3684
67894SOL     OW15406   6.170  12.557   7.528  0.3535  0.0591 -0.4402
67894SOL    HW115407   6.129  12.570   7.442  0.1721 -1.0294 -0.5283
67894SOL    HW215408   6.219  12.638   7.543  0.1839  0.3695 -1.4546
67895SOL     OW15409   5.040  13.363   0.932  0.1102  0.1184  0.0515
67895SOL    HW115410   5.096  13.427   0.975 -0.4912  0.3523  0.4889
67895SOL    HW215411   5.070  13.362   0.841  0.4834  0.6105  0.1688
67896SOL     OW15412   4.209   1.069   0.204 -1.0565  0.4896  0.7554
67896SOL    HW115413   4.169   1.155   0.216 -0.9361  0.5404  0.7894
67896SOL    HW215414   4.137   1.007   0.218 -1.5251  0.6295 -0.7923
67897SOL     OW15415  11.651   3.789  13.001  0.3912  0.3795  0.4031
67897SOL    HW115416  11.675   3.757  13.088  0.6533 -0.6589 -0.0380
67897SOL    HW215417  11.692   3.728  12.941 -1.1780  0.0887 -0.4330
67898SOL     OW15418  10.203   9.147  10.490  0.0500 -0.1379  0.0504
67898SOL    HW115419  10.232   9.061  10.521  1.0713  0.6696  1.4716
67898SOL    HW215420  10.146   9.180  10.559  2.6928  1.8698  1.4504
67899SOL     OW15421   7.969   3.228  10.602  0.0799  0.3584  0.4231
67899SOL    HW115422   7.956   3.274  10.520 -0.0551 -0.6005 -0.1086
67899SOL    HW215423   7.883   3.231  10.645  0.7565  3.1218  1.7747
67900SOL     OW15424   0.970   1.912  11.113  0.0373 -0.7190 -0.2478
67900SOL    HW115425   0.988   1.987  11.169 -1.8229  0.0334 -0.5892
67900SOL    HW215426   1.001   1.938  11.026 -0.8327 -0.2209 -0.4191
67901SOL     OW15427   1.825   5.856   2.940  0.0285 -0.6711  0.0249
67901SOL    HW115428   1.835   5.900   2.855  1.1735 -0.5458  0.2076
67901SOL    HW215429   1.910   5.866   2.982 -0.6843 -0.2393  1.4352
67902SOL     OW15430   6.359   8.318  12.834  0.1941 -0.3930 -0.2598
67902SOL    HW115431   6.344   8.329  12.740  0.3373 -0.8944 -0.3435
67902SOL    HW215432   6.410   8.237  12.841 -0.5604 -0.8334  0.3075
67903SOL     OW15433   8.325   1.294   2.772 -0.0777  0.0075  0.0854
67903SOL    HW115434   8.386   1.323   2.705  1.0652 -2.3001  0.0177
67903SOL    HW215435   8.264   1.237   2.726 -1.0416  0.6683  0.5243
67904SOL     OW15436   3.527   7.796  12.669  0.2909 -0.0166  0.0487
67904SOL    HW115437   3.437   7.763  12.673  0.2357 -0.2081 -1.8905
67904SOL    HW215438   3.574   7.745  12.736 -0.8181 -0.6052  0.4143
67905SOL     OW15439   9.834   2.806   3.244 -0.8786  0.4543 -0.2070
67905SOL    HW115440   9.788   2.855   3.176  0.6870  1.1736 -0.7957
67905SOL    HW215441   9.767   2.750   3.283 -1.8771  0.1903 -2.1740
67906SOL     OW15442   8.048   9.757   6.845  0.0015  0.2665  0.3225
67906SOL    HW115443   8.020   9.778   6.934  1.0931  0.2531  0.6786
67906SOL    HW215444   8.041   9.662   6.839 -0.1631  0.2758  0.3575
67907SOL     OW15445   7.603   9.255   5.256 -0.4078 -0.1331 -0.2024
67907SOL    HW115446   7.657   9.333   5.266 -0.3424 -0.2021 -0.0215
67907SOL    HW215447   7.660   9.190   5.215 -0.7687  0.2504 -1.3597
67908SOL     OW15448   5.924  13.699  12.971  0.9122  0.4319 -0.6402
67908SOL    HW115449   6.004  13.682  13.021  2.0085  3.3815 -1.1694
67908SOL    HW215450   5.954  13.719  12.883 -0.4964  0.6420 -1.1079
67909SOL     OW15451  13.710   8.680   8.271 -0.7881  0.0341 -0.3324
67909SOL    HW115452  13.728   8.764   8.314  0.1038 -1.0822  1.5499
67909SOL    HW215453  13.615   8.675   8.267 -0.8554  0.8932  0.0190
67910SOL     OW15454   5.960  10.582   2.365  0.4266  0.3997 -0.6323
67910SOL    HW115455   6.000  10.666   2.342  0.5262  0.0205 -1.9336
67910SOL    HW215456   5.944  10.539   2.281 -1.6443  0.0310 -0.1041
67911SOL     OW15457   8.409   0.058   4.216 -0.0705 -0.1211  0.0991
67911SOL    HW115458   8.352  -0.018   4.214  0.0469 -0.2365  0.9409
67911SOL    HW215459   8.493   0.026   4.183 -0.0023 -0.3800  0.5134
67912SOL     OW15460  11.459   4.809   5.530 -0.1528  0.0473 -0.4707
67912SOL    HW115461  11.425   4.784   5.616  0.6018 -1.5272 -0.6014
67912SOL    HW215462  11.540   4.855   5.548 -0.5627  0.7208 -0.3086
67913SOL     OW15463   9.777   6.344   7.310 -0.6303 -0.2271  0.2918
67913SOL    HW115464   9.731   6.260   7.301  1.6097 -1.3638 -2.5725
67913SOL    HW215465   9.710   6.410   7.295 -2.0248 -1.6158  0.1265
67914SOL     OW15466  10.042   1.162   5.996  0.1898  0.4829 -0.1371
67914SOL    HW115467  10.016   1.230   5.935  1.4557 -0.7187 -2.1452
67914SOL    HW215468   9.984   1.089   5.977 -0.8988  0.8057  1.7261
67915SOL     OW15469   2.915  10.551   3.614 -0.1452 -0.0642  0.3847
67915SOL    HW115470   2.928  10.592   3.700  0.9052  0.5704 -0.0543
67915SOL    HW215471   2.853  10.608   3.570 -0.4060 -0.1910  0.5812
67916SOL     OW15472   6.521   0.465  12.309 -0.4259 -0.2541 -0.3576
67916SOL    HW115473   6.447   0.404  12.309 -1.0652  0.4939  1.0386
67916SOL    HW215474   6.559   0.456  12.396  0.0890  0.6126 -0.4858
67917SOL     OW15475   1.944  10.947  12.980 -0.0797  0.0887  0.2491
67917SOL    HW115476   1.940  11.025  12.925  1.1957  0.0004  0.0102
67917SOL    HW215477   2.036  10.940  13.006 -0.5489 -0.1452  2.0102
67918SOL     OW15478   9.933   6.455   3.987 -0.4152  0.1611 -0.2516
67918SOL    HW115479  10.012   6.411   4.019 -0.0427 -0.1956 -1.6120
67918SOL    HW215480   9.967   6.525   3.931 -1.0109  1.7892  1.3238
67919SOL     OW15481   1.053   4.286  11.639  1.1177  0.1441 -0.3253
67919SOL    HW115482   1.055   4.220  11.569  1.3133  0.0430 -0.2266
67919SOL    HW215483   1.128   4.343  11.620  0.5565  0.7443 -0.7922
67920SOL     OW15484   5.367   7.043  10.263 -0.3392 -0.8838  0.4157
67920SOL    HW115485   5.399   7.021  10.175 -1.2129 -0.5433 -0.0012
67920SOL    HW215486   5.424   7.114  10.292  0.6491 -1.7162  0.5816
67921SOL     OW15487  12.833  11.623   8.254  0.0853  0.1318 -0.4956
67921SOL    HW115488  12.756  11.630   8.197  0.2439  0.4302 -0.6801
67921SOL    HW215489  12.829  11.700   8.310  1.5566  1.5457 -2.1708
67922SOL     OW15490   7.354   1.574  11.604 -0.2886  0.1192  0.2133
67922SOL    HW115491   7.374   1.627  11.527  2.2159 -0.7592  0.1722
67922SOL    HW215492   7.276   1.615  11.642 -0.7955  1.3683 -2.0242
67923SOL     OW15493  10.286   1.796  11.410 -0.2613 -0.2380 -0.2833
67923SOL    HW115494  10.297   1.882  11.448 -1.8051 -0.4695  0.7544
67923SOL    HW215495  10.350   1.793  11.339  0.7562  1.2318  0.5252
67924SOL     OW15496   1.874   0.635   7.113  0.2104 -0.1620 -0.2856
67924SOL    HW115497   1.876   0.719   7.158  1.0512 -0.1141 -0.4060
67924SOL    HW215498   1.800   0.589   7.152  0.1296  0.3870  0.2198
67925SOL     OW15499   7.033  12.258  10.051  0.0646  0.3749 -0.2477
67925SOL    HW115500   6.941  12.270  10.074  0.3062  1.0986  0.3566
67925SOL    HW215501   7.055  12.171  10.085  0.2973  1.2375  1.9720
67926SOL     OW15502  11.515   5.750   5.141 -0.0567  0.1874  0.8364
67926SOL    HW115503  11.458   5.684   5.182  0.5068 -0.7046  0.2122
67926SOL    HW215504  11.483   5.834   5.176 -0.8961 -0.3939  1.5143
67927SOL     OW15505   6.365   9.245   7.717 -0.1806  0.8140  0.3062
67927SOL    HW115506   6.348   9.296   7.796 -1.6096  0.2109  0.4216
67927SOL    HW215507   6.427   9.177   7.746 -3.1911 -1.5274  1.9077
67928SOL     OW15508   6.967   1.674   1.997  0.0776  0.5617 -0.4357
67928SOL    HW115509   7.012   1.602   2.041  0.6758  0.6053 -0.9558
67928SOL    HW215510   6.996   1.668   1.906  0.3458  1.6252 -0.4303
67929SOL     OW15511   9.206  10.759   2.725  0.8421  0.1220 -0.2889
67929SOL    HW115512   9.260  10.725   2.654  0.5929 -0.2721 -0.2933
67929SOL    HW215513   9.269  10.780   2.794  0.9203 -1.5026  0.1801
67930SOL     OW15514   3.263   4.883   9.658  0.4053  0.1815  0.3402
67930SOL    HW115515   3.219   4.945   9.600 -0.7217  1.5213  2.4961
67930SOL    HW215516   3.272   4.803   9.606 -1.2862  1.0566 -1.3961
67931SOL     OW15517   9.016  12.752   4.146 -0.1848  0.1417  0.0087
67931SOL    HW115518   9.106  12.756   4.116 -0.4971  1.2211 -0.8554
67931SOL    HW215519   8.991  12.844   4.161 -0.5240 -0.2389  2.1710
67932SOL     OW15520   4.595  12.885   9.004  0.6310  0.3632  0.0577
67932SOL    HW115521   4.518  12.833   9.027  0.8395  0.7689  1.8109
67932SOL    HW215522   4.667  12.822   9.001  0.7120  0.3883  1.2140
67933SOL     OW15523   9.800  12.887   0.038  0.0402 -0.2367  0.3277
67933SOL    HW115524   9.812  12.901  -0.056  0.1838 -0.3333  0.3313
67933SOL    HW215525   9.839  12.965   0.078 -0.0245 -0.1933  0.3069
67934SOL     OW15526   1.773   2.660   3.590 -0.5173  0.1198  0.1669
67934SOL    HW115527   1.759   2.754   3.595 -0.3348  0.1252  0.7442
67934SOL    HW215528   1.800   2.643   3.500 -0.5694  0.6150  0.0580
67935SOL     OW15529  11.586  13.310   4.357  0.0214 -0.1375 -0.0767
67935SOL    HW115530  11.597  13.405   4.354  1.4565 -0.3078 -1.4628
67935SOL    HW215531  11.519  13.296   4.424 -0.7457  1.8840 -0.3398
67936SOL     OW15532   7.594  11.881  13.222  0.1274  0.3696 -0.0810
67936SOL    HW115533   7.524  11.817  13.231 -0.2555  0.5255 -1.6215
67936SOL    HW215534   7.666  11.846  13.274 -0.6755 -0.3878  0.5572
67937SOL     OW15535   3.357  12.083   1.229  0.0301 -0.3127 -0.0555
67937SOL    HW115536   3.439  12.036   1.213 -0.3191 -1.0554  0.2702
67937SOL    HW215537   3.356  12.153   1.164 -0.3782 -1.9807 -1.9319
67938SOL     OW15538   9.221  11.332   9.033 -0.0165  0.0335 -0.5217
67938SOL    HW115539   9.242  11.241   9.012 -0.3127  0.1497 -1.3578
67938SOL    HW215540   9.300  11.380   9.010 -0.6092  0.2691 -2.2333
67939SOL     OW15541   3.652  12.008   2.093 -0.4970 -0.5012  0.0668
67939SOL    HW115542   3.692  12.084   2.051 -2.0084 -0.4808 -1.4415
67939SOL    HW215543   3.560  12.031   2.101 -0.9624 -2.1103 -0.2987
67940SOL     OW15544   4.931  10.073   1.211 -0.0100  0.2694  0.7915
67940SOL    HW115545   4.873  10.058   1.285 -0.5637  2.0832  0.7752
67940SOL    HW215546   4.975   9.989   1.197 -2.3437 -1.0701  1.0214
67941SOL     OW15547   7.643   4.698  13.630  0.2420 -0.1110 -0.3818
67941SOL    HW115548   7.697   4.648  13.692 -0.6581 -1.6696 -0.7985
67941SOL    HW215549   7.599   4.763  13.683  2.8117  1.5204 -0.0836
67942SOL     OW15550  12.532  12.080  13.233 -0.2399 -0.0254 -0.5281
67942SOL    HW115551  12.461  12.077  13.297  0.9550  0.5040  0.8755
67942SOL    HW215552  12.545  11.988  13.208  0.2205 -0.4484  1.1139
67943SOL     OW15553   2.478  10.513  10.675  0.3255 -0.2175 -0.0477
67943SOL    HW115554   2.482  10.418  10.662 -0.5827 -0.2735  0.0050
67943SOL    HW215555   2.408  10.543  10.617  0.8000  0.4700 -0.2856
67944SOL     OW15556   9.330   3.031   2.137  0.3979  0.2979 -0.1601
67944SOL    HW115557   9.303   3.069   2.054  0.7234  0.0687 -0.3783
67944SOL    HW215558   9.381   3.100   2.180  0.7146  0.2239 -0.4097
67945SOL     OW15559   8.997   8.886   4.525 -0.6409 -0.6137 -0.5077
67945SOL    HW115560   9.025   8.827   4.455  2.1809  0.5115 -0.4735
67945SOL    HW215561   9.023   8.842   4.606  1.8086  0.6779 -0.4938
67946SOL     OW15562  13.525   7.261  11.440  0.0785  0.0702  0.2106
67946SOL    HW115563  13.520   7.196  11.510 -1.1599  0.6408  0.6876
67946SOL    HW215564  13.563   7.339  11.482  0.8221 -0.0755 -0.1646
67947SOL     OW15565   2.770   1.978  12.267 -0.0922  0.6382 -0.6891
67947SOL    HW115566   2.809   1.898  12.231 -1.1810 -0.4059  0.3597
67947SOL    HW215567   2.815   1.992  12.350  0.5963  1.5495 -1.2014
67948SOL     OW15568  11.209   9.360   3.959 -0.9454 -0.2391 -0.2892
67948SOL    HW115569  11.125   9.347   4.002 -0.9173  0.8936  0.1503
67948SOL    HW215570  11.208   9.451   3.932 -0.0803 -0.3647 -0.7798
67949SOL     OW15571  11.927   9.096  10.770  0.3198  0.4661 -0.1378
67949SOL    HW115572  11.857   9.032  10.786 -0.6396  0.7470 -2.7084
67949SOL    HW215573  11.893   9.178  10.807  0.3492  0.1020  0.7214
67950SOL     OW15574   9.869   2.438  12.114 -0.0395 -0.1436  0.1954
67950SOL    HW115575   9.843   2.524  12.145 -1.6526 -0.2925 -0.6396
67950SOL    HW215576   9.905   2.394  12.192 -3.2770 -0.2510  1.7928
67951SOL     OW15577   5.771   9.320   8.466 -0.3253  0.0091  0.4117
67951SOL    HW115578   5.822   9.263   8.523  1.3960  0.2675 -0.7773
67951SOL    HW215579   5.680   9.301   8.488  0.2479 -0.9932  2.1305
67952SOL     OW15580   1.386   7.949   0.162 -0.3579 -0.3136  0.0178
67952SOL    HW115581   1.328   7.907   0.225  0.6450 -0.1549  1.0970
67952SOL    HW215582   1.401   7.883   0.095 -0.5255 -0.9181  0.5624
67953SOL     OW15583  11.983   1.215   5.274 -1.1879 -0.4466 -0.3086
67953SOL    HW115584  11.912   1.187   5.331 -1.2721 -1.5032 -0.8975
67953SOL    HW215585  12.056   1.157   5.296  0.3513  2.1257  1.9701
67954SOL     OW15586  12.878  12.696   1.587 -0.9473 -0.2103  0.1544
67954SOL    HW115587  12.876  12.676   1.681  1.8788  0.5126  0.4626
67954SOL    HW215588  12.923  12.622   1.547 -1.2760 -0.0686 -0.4948
67955SOL     OW15589   2.016   5.646   1.548  0.3583  0.0283 -0.0252
67955SOL    HW115590   2.088   5.591   1.580 -1.4969 -1.7706  1.2797
67955SOL    HW215591   1.960   5.586   1.499 -1.2093  0.9458  0.5744
67956SOL     OW15592   6.279   1.241  10.241 -0.2181 -0.5548  0.0187
67956SOL    HW115593   6.213   1.211  10.179  0.6154  0.5372 -1.4808
67956SOL    HW215594   6.340   1.168  10.250 -0.8813 -1.0758  0.3486
67957SOL     OW15595   2.058   2.821  10.901 -0.1187  0.2701 -0.3943
67957SOL    HW115596   1.966   2.820  10.929  0.0574  0.4638  0.1953
67957SOL    HW215597   2.105   2.860  10.974  0.8210 -2.2508  0.4319
67958SOL     OW15598  13.700  11.943   1.954  0.4601 -0.3282 -0.3171
67958SOL    HW115599  13.709  11.993   1.873  0.4480 -0.3968 -0.3615
67958SOL    HW215600  13.640  11.872   1.932  3.6027 -2.8722 -1.4809
67959SOL     OW15601  12.309   0.739  12.773 -0.2271 -0.3462  0.2773
67959SOL    HW115602  12.314   0.717  12.867 -1.6733 -2.5870 -0.1029
67959SOL    HW215603  12.382   0.691  12.734 -0.6067 -0.7432  0.0497
67960SOL     OW15604   0.803  12.535   9.787 -0.5209 -0.3239  0.0670
67960SOL    HW115605   0.887  12.546   9.743 -0.2531 -1.0694  0.3881
67960SOL    HW215606   0.826  12.511   9.877 -1.0667 -2.1165 -0.2436
67961SOL     OW15607  10.949  12.583   8.149  0.1139 -0.3829  0.0821
67961SOL    HW115608  10.936  12.659   8.093  0.0467 -0.2960  0.2166
67961SOL    HW215609  10.893  12.598   8.225 -2.1433 -1.8980 -1.1571
67962SOL     OW15610   0.133   1.099   7.531  0.8245 -0.1213  0.1328
67962SOL    HW115611   0.102   1.126   7.445  1.1681 -0.2014 -0.0176
67962SOL    HW215612   0.100   1.010   7.542 -1.3763  0.7431  1.1491
67963SOL     OW15613   9.134   1.934   7.454 -0.1724 -0.1620  0.3195
67963SOL    HW115614   9.055   1.976   7.421 -0.3435  0.1983  1.1697
67963SOL    HW215615   9.202   1.960   7.392 -0.5362  0.2839  0.0989
67964SOL     OW15616   4.199  10.830   4.905 -0.6717  0.5129 -0.5492
67964SOL    HW115617   4.111  10.826   4.943 -0.7079  0.9854 -0.5758
67964SOL    HW215618   4.187  10.874   4.821 -0.2378  1.7670  0.0169
67965SOL     OW15619   3.668   2.351   7.996 -0.3723 -0.2278 -0.2690
67965SOL    HW115620   3.760   2.336   8.017 -0.3711  0.4861  0.2445
67965SOL    HW215621   3.651   2.292   7.922  0.1059 -1.4388  0.5433
67966SOL     OW15622   5.837   1.421  12.528 -0.4649 -0.1551 -0.3346
67966SOL    HW115623   5.797   1.339  12.500  0.1099 -1.3263  2.0010
67966SOL    HW215624   5.763   1.480  12.542 -1.0461 -0.9097 -0.1734
67967SOL     OW15625   4.941   9.993   8.356  0.2439  0.0861 -0.5710
67967SOL    HW115626   4.987   9.913   8.379 -1.5100 -0.5802  0.8527
67967SOL    HW215627   4.860   9.964   8.314 -0.7949  1.0125  0.6762
67968SOL     OW15628   8.975   9.663  10.961  0.0282 -0.2906  0.8389
67968SOL    HW115629   8.946   9.573  10.946 -0.0913  0.1074 -1.8010
67968SOL    HW215630   8.989   9.699  10.874  0.9926  1.9878  1.8367
67969SOL     OW15631   3.943   3.986   0.639 -0.0550  0.1272 -0.2167
67969SOL    HW115632   3.952   3.982   0.734  1.5694  0.3780 -0.3297
67969SOL    HW215633   3.925   3.896   0.613  0.8126 -0.1971  0.2403
67970SOL     OW15634   2.069   0.969   4.529  0.2486 -0.1636  0.1894
67970SOL    HW115635   2.041   0.891   4.578  1.0909 -1.4854 -1.3325
67970SOL    HW215636   2.162   0.955   4.513  0.2450  0.7916 -0.7635
67971SOL     OW15637   2.261   2.580   6.668 -0.1101 -0.3104 -0.2237
67971SOL    HW115638   2.176   2.539   6.685 -0.4946 -0.8132 -2.9165
67971SOL    HW215639   2.316   2.509   6.635  0.1583  0.6574 -2.0392
67972SOL     OW15640   0.236  12.810   6.344 -0.6317  0.5048  0.5041
67972SOL    HW115641   0.275  12.887   6.302 -0.1427  0.3580  0.6836
67972SOL    HW215642   0.252  12.824   6.438 -0.0895 -0.0635  0.4974
67973SOL     OW15643  12.966   1.388   2.652 -0.0289  0.6434 -0.1174
67973SOL    HW115644  12.903   1.349   2.712 -0.4354  3.0737  1.1585
67973SOL    HW215645  13.008   1.458   2.702  3.2582 -0.4099 -1.1414
67974SOL     OW15646  13.273   2.095   6.057 -0.6940 -0.8988  0.2277
67974SOL    HW115647  13.227   2.178   6.047 -1.9242 -1.4523  1.1212
67974SOL    HW215648  13.216   2.042   6.111  0.0769 -2.3452 -0.3205
67975SOL     OW15649   6.647   7.828   5.449 -0.0080  0.9692  0.4939
67975SOL    HW115650   6.655   7.759   5.383  0.0775  1.2934  0.1687
67975SOL    HW215651   6.611   7.782   5.526  0.7833  0.4055  0.5365
67976SOL     OW15652   8.126   1.715   3.151  0.2658 -0.3052  0.0470
67976SOL    HW115653   8.160   1.644   3.206 -0.8129 -0.8085  0.0844
67976SOL    HW215654   8.169   1.702   3.067 -0.8441 -1.7881 -0.3319
67977SOL     OW15655   8.525   8.163   2.425  0.0513  0.2996 -0.1111
67977SOL    HW115656   8.539   8.240   2.371 -0.0991 -0.3589 -1.1213
67977SOL    HW215657   8.478   8.195   2.502 -1.0933  1.0221 -1.0810
67978SOL     OW15658   6.279  13.210   3.841 -0.1393  0.0158  0.6181
67978SOL    HW115659   6.348  13.249   3.895  0.6188 -0.5035  0.0454
67978SOL    HW215660   6.299  13.116   3.841 -1.8400 -0.3961  1.8383
67979SOL     OW15661  12.724  13.177  10.552 -0.4750  0.0317  0.1263
67979SOL    HW115662  12.775  13.136  10.622  0.4527 -0.2599 -0.6966
67979SOL    HW215663  12.680  13.103  10.508 -0.2447  0.1046 -0.2286
67980SOL     OW15664   0.731   8.967   5.466  0.5719 -0.4483  0.0630
67980SOL    HW115665   0.798   8.909   5.502  2.2420  1.4643  0.2303
67980SOL    HW215666   0.770   9.054   5.472 -2.3685  0.9100  1.1248
67981SOL     OW15667  12.952  12.379   5.405 -0.2470  0.2830  0.0064
67981SOL    HW115668  12.984  12.356   5.318  0.0753 -2.1016  0.6845
67981SOL    HW215669  12.872  12.327   5.416 -0.8474  1.3229  0.7699
67982SOL     OW15670   8.085   5.664   5.786 -0.0752  0.0107 -1.2367
67982SOL    HW115671   7.993   5.638   5.792  0.1746 -1.6900 -3.4684
67982SOL    HW215672   8.128   5.591   5.740  2.0660  1.4926 -1.7400
67983SOL     OW15673   9.082   9.686   5.897 -0.5328  0.0424 -0.3280
67983SOL    HW115674   9.081   9.666   5.991 -0.5995  0.3932 -0.2533
67983SOL    HW215675   9.038   9.611   5.856  1.0474 -0.9854 -0.2539
67984SOL     OW15676  12.148   7.288  11.956 -0.1567 -0.1297  0.8983
67984SOL    HW115677  12.184   7.199  11.963  0.6864  0.1883  0.7669
67984SOL    HW215678  12.179   7.332  12.035  0.6821  0.4682  0.2551
67985SOL     OW15679   1.731   5.520   6.253  0.6594  0.4987  0.4590
67985SOL    HW115680   1.666   5.454   6.277 -1.0088  1.0463 -2.1428
67985SOL    HW215681   1.758   5.559   6.336 -0.7221 -1.2172  1.7855
67986SOL     OW15682   2.710   0.941  10.239  0.3749  0.6617  0.4437
67986SOL    HW115683   2.618   0.949  10.264  0.5156  2.1380  0.5856
67986SOL    HW215684   2.735   1.029  10.211  1.3152 -0.0792 -1.1514
67987SOL     OW15685  11.766   2.330   3.606 -0.3360 -0.4398 -0.0345
67987SOL    HW115686  11.686   2.375   3.578  0.2844  0.2402 -0.7830
67987SOL    HW215687  11.736   2.247   3.643 -1.4797  0.3968  0.9826
67988SOL     OW15688   4.470  13.551  12.756  0.7224  0.1019 -0.2658
67988SOL    HW115689   4.389  13.535  12.708  0.6194 -0.3264  0.0469
67988SOL    HW215690   4.456  13.508  12.841  0.9294  0.7832  0.1184
67989SOL     OW15691   5.501  11.950   1.247  0.3259  0.5453  0.2854
67989SOL    HW115692   5.448  11.997   1.311  0.4516  1.8227 -0.5258
67989SOL    HW215693   5.582  12.001   1.241  0.7981 -0.2245 -0.0224
67990SOL     OW15694   2.003  11.812   3.911 -0.5732  0.4936  0.2968
67990SOL    HW115695   2.071  11.876   3.891  1.8751 -2.0927 -0.1918
67990SOL    HW215696   1.990  11.818   4.006 -0.0474  1.3451  0.3197
67991SOL     OW15697   9.713  11.527   5.665  0.5943  0.4722  0.1240
67991SOL    HW115698   9.632  11.519   5.715  0.7952 -2.2676  0.1604
67991SOL    HW215699   9.779  11.552   5.731  0.3816 -0.6341  0.7883
67992SOL     OW15700   5.749   4.748   2.034 -0.1020  0.1149  0.2355
67992SOL    HW115701   5.735   4.685   1.963  0.6399  1.1791 -0.8914
67992SOL    HW215702   5.667   4.798   2.038  0.4321  1.1622 -1.0538
67993SOL     OW15703  10.973   0.074   1.013 -0.4817 -0.1540 -0.5120
67993SOL    HW115704  11.056   0.116   1.035 -1.3533  2.7872 -2.3231
67993SOL    HW215705  10.998  -0.009   0.972  1.4737 -0.0798  0.4267
67994SOL     OW15706  12.202   0.352  13.004  0.1878 -0.5071  0.3864
67994SOL    HW115707  12.295   0.331  12.997 -0.3870 -3.1789 -0.6416
67994SOL    HW215708  12.181   0.337  13.096  0.3144 -2.5307  0.1421
67995SOL     OW15709   7.775  10.079   9.969  0.3679 -0.5869 -0.2286
67995SOL    HW115710   7.716  10.045  10.035  1.3333 -1.6945  0.0895
67995SOL    HW215711   7.723  10.083   9.889 -0.4476 -0.4452  0.3073
67996SOL     OW15712  11.620   1.056  10.428 -0.1567 -0.3480  0.5241
67996SOL    HW115713  11.550   1.002  10.465  0.6429 -0.9372  1.2081
67996SOL    HW215714  11.579   1.141  10.414 -0.5175 -0.0968  2.7748
67997SOL     OW15715  13.667   6.284   2.512 -0.2296 -0.0670 -0.3595
67997SOL    HW115716  13.589   6.304   2.565  0.1917  1.8415 -0.3692
67997SOL    HW215717  13.734   6.261   2.576  0.0002  1.2438 -0.1011
67998SOL     OW15718   7.562  10.631  12.016 -0.1467  0.1107 -0.4107
67998SOL    HW115719   7.586  10.576  11.941 -0.4533 -0.7948  0.1372
67998SOL    HW215720   7.615  10.597  12.088  0.8338  1.5686 -0.3980
67999SOL     OW15721  11.490   2.714   2.777 -0.1246 -0.0342 -0.2475
67999SOL    HW115722  11.515   2.694   2.687  1.4259 -0.7338  0.3020
67999SOL    HW215723  11.440   2.637   2.806  0.0571 -0.1522 -0.2527
68000SOL     OW15724   0.412   6.015   2.227  0.5833 -0.0569  0.0478
68000SOL    HW115725   0.439   5.960   2.153 -1.4711 -1.1074 -0.0143
68000SOL    HW215726   0.357   6.083   2.188 -0.0879 -0.3106  0.5349
68001SOL     OW15727   7.905   6.372  12.226  0.0239 -0.2453 -0.2631
68001SOL    HW115728   7.899   6.277  12.214  1.7490 -0.4143 -0.0288
68001SOL    HW215729   7.855   6.409  12.153 -1.3575 -1.3117  0.0957
68002SOL     OW15730   8.922   7.584   3.036  0.0625 -0.4694 -0.1981
68002SOL    HW115731   8.970   7.581   2.953 -2.0603 -2.6889 -1.4670
68002SOL    HW215732   8.936   7.498   3.076  0.2106  0.2089  1.2816
68003SOL     OW15733   0.706  12.240   7.742 -0.6289  0.8555 -0.1993
68003SOL    HW115734   0.643  12.176   7.776 -0.9838  0.6327 -1.2381
68003SOL    HW215735   0.660  12.282   7.669  0.6007  0.3095 -1.3310
68004SOL     OW15736   9.955   9.429  13.250  0.5409  0.0957  0.3610
68004SOL    HW115737   9.953   9.524  13.238 -0.0706  0.0056 -0.3070
68004SOL    HW215738  10.043   9.411  13.283  1.2547  0.7115 -1.1121
68005SOL     OW15739   9.708   5.981   0.012 -0.1514 -0.3348 -0.3156
68005SOL    HW115740   9.756   6.022   0.085 -0.4127 -0.6284  0.0282
68005SOL    HW215741   9.757   6.006  -0.066  2.0242 -2.5612  0.2087
68006SOL     OW15742   5.123   8.941   8.342  0.2753 -0.2569  0.2674
68006SOL    HW115743   5.178   8.927   8.419 -0.9044 -0.7057  1.0474
68006SOL    HW215744   5.073   9.020   8.362 -1.7639 -1.6481  1.0524
68007SOL     OW15745   6.711  10.566  12.674 -0.2744  0.5228 -0.5806
68007SOL    HW115746   6.641  10.517  12.718 -0.4439  0.4324 -0.9486
68007SOL    HW215747   6.669  10.605  12.598 -0.0207  0.8244 -0.5682
68008SOL     OW15748   1.703  11.817   6.213 -0.3073 -0.4540 -0.5052
68008SOL    HW115749   1.772  11.776   6.267  0.3431  1.4710  0.2057
68008SOL    HW215750   1.749  11.885   6.164 -1.8932  1.9804  1.1787
68009SOL     OW15751   9.079   2.470   8.798 -0.7081 -0.2768  0.2772
68009SOL    HW115752   9.078   2.418   8.718  0.1111 -1.3569  0.9429
68009SOL    HW215753   9.064   2.560   8.769 -0.1919 -0.6228 -1.1046
68010SOL     OW15754   7.498   8.547   0.471  0.4068  0.1155  0.2293
68010SOL    HW115755   7.566   8.590   0.420 -0.0686  1.8443  0.9946
68010SOL    HW215756   7.533   8.459   0.488  0.3356 -0.8034 -3.4666
68011SOL     OW15757   4.530  12.276   0.790  0.0411 -0.2949 -0.0284
68011SOL    HW115758   4.493  12.219   0.722 -0.8151  1.3042 -0.9750
68011SOL    HW215759   4.596  12.222   0.833  0.0034 -1.6534 -1.5559
68012SOL     OW15760   8.942  12.127   5.909  0.0799 -0.0715  0.1218
68012SOL    HW115761   9.031  12.163   5.913 -0.1571  0.6585 -0.7962
68012SOL    HW215762   8.948  12.042   5.952  1.3545 -0.2863 -0.4574
68013SOL     OW15763  13.188   5.876   5.109  0.0776  0.4353 -0.1548
68013SOL    HW115764  13.268   5.928   5.117  0.6087  0.0392 -2.2834
68013SOL    HW215765  13.133   5.926   5.049 -0.6673  0.0006  0.1579
68014SOL     OW15766  10.635  12.189  11.571 -0.2639 -0.6181 -0.7974
68014SOL    HW115767  10.598  12.276  11.554 -0.8486 -0.4519  1.0782
68014SOL    HW215768  10.639  12.148  11.485  0.2247  1.3295 -1.7546
68015SOL     OW15769   5.983   7.199  11.010  0.7345 -0.0388  0.1913
68015SOL    HW115770   5.898   7.156  11.015  0.6090  0.3579  2.1716
68015SOL    HW215771   5.991   7.226  10.918 -0.8593 -0.8742 -0.2267
68016SOL     OW15772  13.246   4.650   2.033  0.4387  0.2629  0.0525
68016SOL    HW115773  13.158   4.688   2.039  0.2341 -0.1219 -0.4933
68016SOL    HW215774  13.234   4.567   1.987  1.2044  0.5714 -0.7321
68017SOL     OW15775  11.056   3.597  13.523  0.1315 -0.1251  0.1154
68017SOL    HW115776  10.969   3.632  13.542  0.3980 -0.0683  1.2931
68017SOL    HW215777  11.060   3.593  13.427 -0.1903  2.2926 -0.0456
68018SOL     OW15778   0.989   9.992   2.009  0.1801 -0.4928  0.1176
68018SOL    HW115779   1.046   9.915   2.009  0.9834 -0.1014  4.0482
68018SOL    HW215780   1.048  10.066   2.000 -0.4902 -0.1611 -2.4709
68019SOL     OW15781   2.778  13.352   1.297  0.4480 -0.4387 -0.0024
68019SOL    HW115782   2.817  13.417   1.355  0.7468 -0.7992  0.2019
68019SOL    HW215783   2.699  13.323   1.343 -0.1064  0.3278 -0.4391
68020SOL     OW15784   2.086   6.938   7.622 -0.0967  0.1477 -0.1684
68020SOL    HW115785   2.065   6.883   7.546 -1.8727  1.1435 -0.4447
68020SOL    HW215786   2.016   7.003   7.625 -0.8037 -0.5924  3.0494
68021SOL     OW15787   7.953  12.132  11.184  0.0816  0.1746 -0.2050
68021SOL    HW115788   8.041  12.095  11.189  0.6035  1.0594 -1.9747
68021SOL    HW215789   7.950  12.198  11.253  1.3691  1.2125 -1.1166
68022SOL     OW15790   5.262   1.930  12.065  0.8480 -0.1112  0.0881
68022SOL    HW115791   5.219   1.858  12.018  0.4780  0.8217 -1.0567
68022SOL    HW215792   5.355   1.921  12.044  0.7974 -0.2407 -0.0808
68023SOL     OW15793   6.146   7.835   8.096 -0.3836 -0.1507 -0.6321
68023SOL    HW115794   6.072   7.884   8.060 -0.2726  1.7069  1.4142
68023SOL    HW215795   6.131   7.835   8.190  0.1616 -3.3718 -0.4361
68024SOL     OW15796   5.592   2.011   9.754 -0.2595  0.5606  0.1238
68024SOL    HW115797   5.660   1.995   9.688 -0.8345 -2.5151  0.1034
68024SOL    HW215798   5.593   2.106   9.768  3.2634  0.7726 -0.6457
68025SOL     OW15799   7.275  13.508   5.420  0.6089 -0.0722  0.2700
68025SOL    HW115800   7.310  13.425   5.390  0.1914 -0.0106 -0.4327
68025SOL    HW215801   7.222  13.486   5.497 -0.4738 -0.6517 -0.6048
68026SOL     OW15802   2.769   1.553   1.452 -0.0493 -0.0462 -0.3090
68026SOL    HW115803   2.818   1.604   1.516  1.6670 -1.0663 -0.7468
68026SOL    HW215804   2.759   1.612   1.377  0.8646  0.0591 -0.3560
68027SOL     OW15805   4.170   7.404   5.850 -0.9421  0.5787 -0.1035
68027SOL    HW115806   4.251   7.366   5.885 -0.6924 -0.1646 -1.4272
68027SOL    HW215807   4.138   7.338   5.788 -2.4939  0.9269  0.2838
68028SOL     OW15808   8.748  13.512   5.451  0.1050  0.5696  0.6607
68028SOL    HW115809   8.671  13.481   5.402 -1.6035  3.7805  1.0592
68028SOL    HW215810   8.742  13.467   5.535 -0.1506 -0.7576 -0.0452
68029SOL     OW15811  12.421   4.086   3.700  0.2582 -0.2133  0.0630
68029SOL    HW115812  12.339   4.061   3.659  0.6416 -2.1893  0.4309
68029SOL    HW215813  12.480   4.104   3.628 -0.5903  1.7958 -0.2180
68030SOL     OW15814  12.232   3.145  11.660 -0.2520 -0.1579  0.3010
68030SOL    HW115815  12.181   3.227  11.656  1.4712  0.9848  0.7471
68030SOL    HW215816  12.292   3.158  11.733  0.1710 -1.7857  0.2742
68031SOL     OW15817  10.253  10.438   4.615  0.0063 -0.5520 -0.0712
68031SOL    HW115818  10.177  10.404   4.664 -0.4574  1.3798  0.6223
68031SOL    HW215819  10.219  10.514   4.568  1.7473  1.1074  1.2132
68032SOL     OW15820   8.438   5.469   0.636 -0.0735 -0.2874 -0.1140
68032SOL    HW115821   8.415   5.541   0.694  1.3964  0.8640 -0.8922
68032SOL    HW215822   8.486   5.510   0.564 -1.5957 -1.6994 -2.0365
68033SOL     OW15823   8.859   9.061   4.667 -0.6908  0.0313  0.0555
68033SOL    HW115824   8.904   8.998   4.611 -0.1030  1.5523 -1.2579
68033SOL    HW215825   8.766   9.045   4.651 -0.5400  0.1590 -1.0693
68034SOL     OW15826  11.538   2.946   8.361  0.1927  0.2714  0.2436
68034SOL    HW115827  11.487   3.011   8.313 -0.7059 -1.3722 -1.1470
68034SOL    HW215828  11.532   2.973   8.452 -0.5572  1.8475 -0.2379
68035SOL     OW15829  12.583   6.434   8.564 -0.4175  0.2562 -0.1505
68035SOL    HW115830  12.521   6.439   8.636  0.8400 -1.6988  1.1651
68035SOL    HW215831  12.584   6.342   8.539  2.5747  0.0166  0.5004
68036SOL     OW15832   3.045   0.961  10.113 -0.3891  0.4861  0.7776
68036SOL    HW115833   2.972   1.022  10.107 -0.6766  0.2169  1.4726
68036SOL    HW215834   3.011   0.886  10.162  0.4512  0.5222  1.4556
68037SOL     OW15835   7.442  13.741   0.076 -0.1775 -0.0747  0.5598
68037SOL    HW115836   7.461  13.647   0.076 -0.0893 -0.0551  1.0507
68037SOL    HW215837   7.474  13.773   0.160  0.6537  0.5738  0.0276
68038SOL     OW15838  11.413   7.688   5.898 -0.2597  0.2458  0.0443
68038SOL    HW115839  11.416   7.662   5.990  0.4273  2.9533  0.8901
68038SOL    HW215840  11.335   7.647   5.864 -0.0638 -1.5421  1.5918
68039SOL     OW15841   2.191   4.665   5.843  0.0354  0.2655 -0.0852
68039SOL    HW115842   2.118   4.606   5.824 -0.3923  0.6867  0.2496
68039SOL    HW215843   2.254   4.647   5.773 -0.7207  0.4607 -0.8432
68040SOL     OW15844   5.145   4.698  10.168 -0.2198 -0.3059  0.3983
68040SOL    HW115845   5.221   4.756  10.178  0.3301 -1.0920  0.8196
68040SOL    HW215846   5.072   4.748  10.205  0.2829  0.0363  0.9332
68041SOL     OW15847   1.930   8.876  11.714  0.0152 -0.6066  0.1971
68041SOL    HW115848   1.995   8.806  11.716 -0.0219 -0.6604  2.3724
68041SOL    HW215849   1.889   8.872  11.801 -1.8980  0.3539 -0.6100
68042SOL     OW15850   0.896   0.315   4.673  0.0185  0.0309  0.5812
68042SOL    HW115851   0.904   0.370   4.595  0.6117  0.3966  0.8952
68042SOL    HW215852   0.986   0.307   4.706 -0.2828  0.2180  1.4591
68043SOL     OW15853  11.808   0.089  10.127  0.0389  0.3413 -0.6266
68043SOL    HW115854  11.803   0.067  10.034  0.2634 -1.5038 -0.2499
68043SOL    HW215855  11.898   0.066  10.151 -0.2589  0.0208  0.2084
68044SOL     OW15856   9.618   7.178   1.299  0.3237  0.6440 -0.0435
68044SOL    HW115857   9.551   7.210   1.239 -0.9684 -0.2678  0.8385
68044SOL    HW215858   9.575   7.106   1.346  1.0422  1.7255  2.4134
68045SOL     OW15859   2.416   2.123   6.451 -0.0342 -0.5004 -0.3282
68045SOL    HW115860   2.417   2.198   6.391 -0.6014 -0.0462  0.2112
68045SOL    HW215861   2.327   2.089   6.444  0.3746 -1.4683 -0.9733
68046SOL     OW15862  10.629   4.762   8.665 -0.5812 -0.7743 -0.6219
68046SOL    HW115863  10.595   4.747   8.753  0.0423 -0.8008 -0.3847
68046SOL    HW215864  10.709   4.710   8.660 -0.0069  0.1160 -0.8185
68047SOL     OW15865   1.558   1.647   2.679 -0.2368 -0.3193  0.3957
68047SOL    HW115866   1.639   1.611   2.717 -0.4222 -1.4778 -0.2776
68047SOL    HW215867   1.525   1.578   2.622 -0.2960  1.1242 -1.4220
68048SOL     OW15868   7.579   3.516   2.260  0.0490  0.1471 -0.1882
68048SOL    HW115869   7.587   3.474   2.175 -1.5997  1.4926 -1.0795
68048SOL    HW215870   7.497   3.566   2.254  0.3719  1.0220  1.8565
68049SOL     OW15871   7.187  12.469   5.981  0.1048  0.5765  0.0597
68049SOL    HW115872   7.205  12.522   5.903  1.1883  0.0470 -0.0597
68049SOL    HW215873   7.261  12.485   6.039 -0.7245  1.0133  1.0335
68050SOL     OW15874   3.010   7.558   0.300 -0.6501  0.0231 -0.1426
68050SOL    HW115875   2.933   7.572   0.355 -1.4738 -0.4536 -1.1426
68050SOL    HW215876   2.985   7.485   0.243  1.3458 -1.6610  0.9923
68051SOL     OW15877   6.267   7.535   6.246  0.0019 -0.1334  0.3170
68051SOL    HW115878   6.340   7.523   6.306  0.0820 -0.6383  0.1241
68051SOL    HW215879   6.193   7.493   6.290 -0.5899  1.7841  1.2662
68052SOL     OW15880   3.166  11.035   1.193 -0.2010 -0.7090 -0.3052
68052SOL    HW115881   3.094  10.977   1.217 -0.7609 -0.7657 -1.9498
68052SOL    HW215882   3.135  11.079   1.114  1.0235  0.3205 -0.2338
68053SOL     OW15883   4.198  11.522  13.081 -0.2797 -0.6937  0.6563
68053SOL    HW115884   4.228  11.446  13.032  0.6808 -0.6192  1.1091
68053SOL    HW215885   4.104  11.527  13.061  0.0294 -0.8060 -0.9499
68054SOL     OW15886  13.448   8.723  11.838 -0.0381 -0.1355  0.0173
68054SOL    HW115887  13.442   8.628  11.852  0.8493  0.1486  2.8387
68054SOL    HW215888  13.540   8.744  11.857  0.0477  1.1892 -1.6086
68055SOL     OW15889  10.666   9.185  10.833 -0.1023 -0.2760 -0.2137
68055SOL    HW115890  10.687   9.276  10.851  0.2609 -0.3253 -0.3874
68055SOL    HW215891  10.712   9.135  10.901  0.5411 -0.3984 -0.7238
68056SOL     OW15892   2.117  12.952  12.557 -0.0067 -0.2800 -0.0403
68056SOL    HW115893   2.170  12.906  12.491 -0.5636 -1.9768  0.6464
68056SOL    HW215894   2.064  13.013  12.506  1.3996  0.2964 -0.9017
68057SOL     OW15895   8.628   2.338  12.586  0.2131 -0.2083  0.0163
68057SOL    HW115896   8.646   2.246  12.568  0.1114  0.2680 -3.3377
68057SOL    HW215897   8.532   2.344  12.586  0.2178 -0.1540  0.5416
68058SOL     OW15898  12.437   7.006   6.886 -0.1973 -0.5503 -0.4918
68058SOL    HW115899  12.475   6.926   6.922 -1.1722 -1.2730 -1.0186
68058SOL    HW215900  12.509   7.069   6.888  0.6769 -1.5105 -0.3150
68059SOL     OW15901   2.958   3.344   8.747 -0.1482  0.4688 -0.2344
68059SOL    HW115902   3.009   3.287   8.690 -1.1942  1.7870 -2.6780
68059SOL    HW215903   3.021   3.410   8.778  0.3765 -0.0622 -0.1608
68060SOL     OW15904  10.100   1.857   9.194 -0.0349 -0.7102 -0.9896
68060SOL    HW115905  10.135   1.854   9.283 -0.4630  1.2674 -0.7079
68060SOL    HW215906  10.012   1.893   9.204 -0.2353 -0.8267 -2.1811
68061SOL     OW15907   1.914   5.248  11.540  0.3400 -0.2272 -0.4991
68061SOL    HW115908   1.936   5.171  11.592 -1.1567  1.1910  2.4955
68061SOL    HW215909   1.987   5.308  11.554 -0.7961  0.7988  1.5379
68062SOL     OW15910  12.664   7.176   6.938  0.6958  0.1352 -0.0401
68062SOL    HW115911  12.657   7.172   7.033 -0.4137 -0.5360 -0.1199
68062SOL    HW215912  12.677   7.269   6.918  0.9323  0.2791  0.7679
68063SOL     OW15913  11.787  10.628   7.973  0.8151  0.0073  0.3219
68063SOL    HW115914  11.743  10.543   7.977 -1.0613  0.8702 -0.9384
68063SOL    HW215915  11.737  10.679   7.909  0.1146  3.0513  3.0188
68064SOL     OW15916   3.249   8.512   0.539  0.6030  0.3057  0.2896
68064SOL    HW115917   3.164   8.548   0.516  0.5920  0.0254 -0.1151
68064SOL    HW215918   3.297   8.508   0.456  0.9175  0.2227  0.4723
68065SOL     OW15919   6.598   8.535  10.941 -0.1118  0.3407 -0.1464
68065SOL    HW115920   6.590   8.440  10.939 -0.2581  0.2227  2.4730
68065SOL    HW215921   6.508   8.566  10.953 -0.0034  0.7873 -0.4690
68066SOL     OW15922   3.740  10.127   3.404  0.2230  0.7801 -0.6988
68066SOL    HW115923   3.655  10.168   3.421 -1.9125 -3.5863  0.4464
68066SOL    HW215924   3.734  10.098   3.313  0.3033  0.0964 -0.4887
68067SOL     OW15925  12.193   3.514  11.095 -0.3439 -0.1933 -0.2757
68067SOL    HW115926  12.208   3.588  11.037  0.7915 -2.0857 -2.5508
68067SOL    HW215927  12.105   3.483  11.072  0.2173 -1.1211 -1.3164
68068SOL     OW15928   4.252   1.686  11.512  0.5863  0.5687  0.3775
68068SOL    HW115929   4.260   1.632  11.433  2.8251  3.4241 -1.5994
68068SOL    HW215930   4.160   1.711  11.515  0.2960 -0.2316 -0.9099
68069SOL     OW15931   1.545   1.261   6.683 -0.2044 -0.8161  0.3136
68069SOL    HW115932   1.545   1.297   6.772  1.1773 -0.4781  0.2001
68069SOL    HW215933   1.605   1.187   6.687  2.1075  0.8536 -0.9124
68070SOL     OW15934  10.969   7.925  13.521  0.5168 -0.5072 -0.1470
68070SOL    HW115935  11.000   7.835  13.530 -1.8808 -1.2113  2.5975
68070SOL    HW215936  10.881   7.924  13.558  1.2682  3.4474  2.3828
68071SOL     OW15937  10.391   1.693   9.273 -0.3694 -0.1877  0.0345
68071SOL    HW115938  10.370   1.737   9.355 -0.3092 -1.0255  0.5166
68071SOL    HW215939  10.416   1.763   9.213 -0.5204  0.4432  0.6991
68072SOL     OW15940   9.795   3.784  12.549 -0.1720 -0.0302 -0.4152
68072SOL    HW115941   9.770   3.778  12.456  0.2241 -0.8909 -0.4743
68072SOL    HW215942   9.880   3.741  12.553  0.2555  0.8593  0.1872
68073SOL     OW15943   1.109   7.839   0.589  0.0125  0.4365  0.8764
68073SOL    HW115944   1.200   7.863   0.603  0.0019  0.1232  1.5078
68073SOL    HW215945   1.061   7.887   0.656 -0.6580  2.8943 -1.2112
68074SOL     OW15946   9.818   8.343   5.869 -0.1426  0.1483  0.2465
68074SOL    HW115947   9.800   8.250   5.858 -2.1191  0.2077  2.3132
68074SOL    HW215948   9.827   8.377   5.780 -1.5519 -1.6431 -0.6314
68075SOL     OW15949   9.883   7.283   2.933 -0.1208 -0.0439  0.5704
68075SOL    HW115950   9.807   7.314   2.884 -0.9496 -0.7642  1.3703
68075SOL    HW215951   9.887   7.339   3.010  0.0693 -0.0950  0.5984
68076SOL     OW15952  12.777  10.449   7.887  0.4562  0.3895  0.0017
68076SOL    HW115953  12.868  10.480   7.885  0.2009  1.1446 -0.1937
68076SOL    HW215954  12.725  10.527   7.908 -0.2781  0.3002 -1.3526
68077SOL     OW15955   5.721  12.445   2.686 -0.2967 -0.8079  0.1200
68077SOL    HW115956   5.757  12.519   2.735 -1.1477 -0.3828  0.1269
68077SOL    HW215957   5.797  12.395   2.658  0.3495  0.4655 -0.5055
68078SOL     OW15958   8.566   2.339  12.307  0.2040 -0.1882  0.2623
68078SOL    HW115959   8.585   2.391  12.385 -1.5805  0.9687 -0.0224
68078SOL    HW215960   8.541   2.253  12.341  0.4137 -0.0103  0.8849
68079SOL     OW15961   2.640  13.594  13.712 -0.2736  0.5211  0.2164
68079SOL    HW115962   2.694  13.580  13.791 -1.5851 -0.4561  0.9813
68079SOL    HW215963   2.597  13.509  13.698 -0.1907  0.7407 -1.4704
68080SOL     OW15964  10.021   7.193  13.200  0.6245 -0.0578  0.0363
68080SOL    HW115965  10.091   7.258  13.195  0.2232  0.3415 -0.5429
68080SOL    HW215966  10.046   7.136  13.273  2.3739 -0.8822 -1.1480
68081SOL     OW15967   6.661   6.725  10.001  0.1464  0.2851  0.1913
68081SOL    HW115968   6.694   6.636   9.987  0.6271  0.5380 -0.3673
68081SOL    HW215969   6.668   6.766   9.915  0.6981  1.1078  0.6167
68082SOL     OW15970  11.183   5.944   5.754 -0.1790  0.3267  0.1130
68082SOL    HW115971  11.155   5.937   5.846  0.0840 -0.3777  0.1489
68082SOL    HW215972  11.192   5.853   5.726 -2.1277  0.4717 -1.2008
68083SOL     OW15973  10.089   4.968   1.895 -0.6964  0.2834  0.6721
68083SOL    HW115974  10.059   4.930   1.978 -0.7594 -1.5306 -0.1343
68083SOL    HW215975  10.183   4.953   1.895 -0.9006 -1.1335 -0.2399
68084SOL     OW15976  10.087  10.762   2.274  0.6443 -0.4428  0.3551
68084SOL    HW115977  10.125  10.779   2.360  0.0234  0.0297  0.5458
68084SOL    HW215978   9.993  10.771   2.288  0.4933 -1.1209 -0.2088
68085SOL     OW15979  11.601   4.533   8.150  0.2167 -0.0045 -0.4989
68085SOL    HW115980  11.612   4.440   8.129  1.7975  0.0274  0.0320
68085SOL    HW215981  11.689   4.570   8.139 -0.1955  1.2341  0.2270
68086SOL     OW15982   7.415  11.364   8.486  0.0860 -0.2274 -0.3220
68086SOL    HW115983   7.471  11.378   8.410 -0.3109 -0.6834 -0.7058
68086SOL    HW215984   7.376  11.278   8.471 -0.7881  0.1261 -0.1115
68087SOL     OW15985   5.711   5.857   6.842  0.1451 -0.0580  0.1627
68087SOL    HW115986   5.693   5.902   6.924  0.4672  0.6789 -0.1632
68087SOL    HW215987   5.801   5.826   6.851  1.0811  2.1482 -0.8298
68088SOL     OW15988   3.334   0.503  10.181  0.1435 -0.2847  0.4275
68088SOL    HW115989   3.304   0.574  10.124  0.5250 -0.3568  0.1319
68088SOL    HW215990   3.254   0.459  10.209 -0.0329 -0.4619 -0.3332
68089SOL     OW15991   0.309   1.470  11.705 -0.3708 -0.0188  0.1228
68089SOL    HW115992   0.348   1.455  11.620 -0.6904  0.6834 -0.1566
68089SOL    HW215993   0.375   1.521  11.753 -0.7299  0.7569 -0.1849
68090SOL     OW15994   6.984   7.152  13.025 -0.0032  0.0817  0.8502
68090SOL    HW115995   6.894   7.120  13.024  0.1591 -0.3766  0.8152
68090SOL    HW215996   7.035   7.081  13.064  0.7141 -0.7041 -1.3570
68091SOL     OW15997  11.073  12.848   2.006 -0.6927 -0.0028 -0.6217
68091SOL    HW115998  11.024  12.892   1.937 -1.8097  0.1755  0.2479
68091SOL    HW215999  11.015  12.851   2.082  0.1919 -0.8635  0.1183
68092SOL     OW16000   1.574   5.489   6.699 -0.0936 -0.5640  0.0724
68092SOL    HW116001   1.536   5.411   6.740 -1.1849  0.4251  1.0132
68092SOL    HW216002   1.556   5.560   6.760 -0.3941  0.6932 -1.3965
68093SOL     OW16003   8.954  11.623   8.755 -0.0454  0.8851 -0.7065
68093SOL    HW116004   9.007  11.699   8.778  1.8016 -0.0951 -1.5397
68093SOL    HW216005   8.994  11.589   8.675  0.2325 -1.9058  0.4944
68094SOL     OW16006   3.438   9.486   7.702 -0.0796  0.0032 -0.0923
68094SOL    HW116007   3.479   9.458   7.621  2.4533  2.5568  0.1262
68094SOL    HW216008   3.478   9.432   7.770  1.0956  0.7521 -0.1581
68095SOL     OW16009  13.213   4.346  10.386 -0.3696 -0.0127 -0.1642
68095SOL    HW116010  13.148   4.289  10.344  0.6213 -2.3781  1.3147
68095SOL    HW216011  13.166   4.428  10.402 -2.8854 -1.4701  0.4833
68096SOL     OW16012   6.550   2.713   3.380  0.6309 -0.6781  0.1847
68096SOL    HW116013   6.646   2.712   3.373  0.6123 -0.9523 -0.0584
68096SOL    HW216014   6.525   2.797   3.340  0.7954 -0.4002  0.6548
68097SOL     OW16015  11.445   0.038   1.801  0.0626  0.2064 -0.5735
68097SOL    HW116016  11.422   0.062   1.891  2.4386  0.4694  0.0255
68097SOL    HW216017  11.419  -0.053   1.793 -1.9168  0.6908 -0.3027
68098SOL     OW16018   1.952  12.550   3.417 -0.3733 -0.1263 -0.3373
68098SOL    HW116019   1.945  12.475   3.476 -1.8033  0.0862 -0.2007
68098SOL    HW216020   2.046  12.556   3.398 -0.1404 -1.5099  0.1966
68099SOL     OW16021   2.267   4.281   6.941  0.1643 -0.1013  0.6809
68099SOL    HW116022   2.226   4.209   6.988  0.6307 -0.8203  0.0000
68099SOL    HW216023   2.313   4.331   7.008 -2.6739  1.4117  1.6947
68100SOL     OW16024   4.278  10.046   3.615  0.3437  0.6572  0.0098
68100SOL    HW116025   4.292  10.064   3.522  0.0035  2.4039  0.2642
68100SOL    HW216026   4.354   9.995   3.642 -0.0492 -0.7730 -1.4417
68101SOL     OW16027   0.794   2.225   1.695  0.4891 -0.5288 -0.3997
68101SOL    HW116028   0.709   2.196   1.662  0.6198 -1.7945  0.2943
68101SOL    HW216029   0.789   2.320   1.694 -1.5549 -0.5551  1.0778
68102SOL     OW16030  13.620   2.853   6.454 -0.0817  0.1297 -0.2215
68102SOL    HW116031  13.588   2.894   6.535 -1.9597 -1.0886 -0.2843
68102SOL    HW216032  13.692   2.909   6.426  0.4026  0.7969  2.0879
68103SOL     OW16033  10.293  10.957  12.446 -0.3637  0.3361 -0.0578
68103SOL    HW116034  10.373  11.006  12.428 -0.7620  0.9177 -0.2796
68103SOL    HW216035  10.226  11.000  12.394 -0.9737  0.3054  0.6823
68104SOL     OW16036   9.723  13.621   1.336 -0.0700 -0.1926  0.0182
68104SOL    HW116037   9.763  13.592   1.253 -1.2996 -0.0396 -0.6413
68104SOL    HW216038   9.673  13.545   1.365 -3.2351  1.0857 -1.6665
68105SOL     OW16039  12.713  10.504  11.566 -0.7572 -0.0947  0.3008
68105SOL    HW116040  12.758  10.421  11.577 -3.1407 -1.4209  0.7917
68105SOL    HW216041  12.668  10.518  11.650  0.0314  2.0141  0.4315
68106SOL     OW16042   3.839   9.802   3.699 -0.6950 -0.2927  0.6792
68106SOL    HW116043   3.899   9.847   3.756  0.0298  0.0819 -0.3481
68106SOL    HW216044   3.803   9.730   3.752  1.7028 -1.3927  0.9209
68107SOL     OW16045  10.418  10.487  10.422  0.3325 -0.3881 -0.4317
68107SOL    HW116046  10.486  10.549  10.449  0.2745  0.3183 -1.8098
68107SOL    HW216047  10.370  10.532  10.352 -2.9290 -0.0096  1.8197
68108SOL     OW16048  10.594   3.324   3.424 -0.1991 -0.1991 -0.1700
68108SOL    HW116049  10.538   3.401   3.425  0.0601 -0.0039  1.2640
68108SOL    HW216050  10.533   3.250   3.429 -0.5377 -0.2146 -2.9450
68109SOL     OW16051   8.592   5.491   2.700 -0.2404 -0.3833 -0.4250
68109SOL    HW116052   8.516   5.439   2.677 -0.8475 -0.3448  1.3569
68109SOL    HW216053   8.557   5.562   2.754  0.9751  0.0064 -0.1182
68110SOL     OW16054   8.969  13.568   3.824  0.0546 -0.4000  0.6208
68110SOL    HW116055   9.025  13.537   3.753  0.0212 -2.2290  1.3523
68110SOL    HW216056   8.892  13.512   3.821 -0.8657  0.7922  0.8896
68111SOL     OW16057   3.032  12.360   5.395  0.0184 -0.1493  0.2043
68111SOL    HW116058   3.062  12.391   5.480  0.0758 -0.1286  0.1767
68111SOL    HW216059   2.939  12.342   5.407  0.3280 -1.5489  0.6688
68112SOL     OW16060   0.309   5.501   5.107  0.0482  0.5195  0.2032
68112SOL    HW116061   0.310   5.439   5.180 -0.3972  0.3638  0.0798
68112SOL    HW216062   0.313   5.447   5.028  0.2134  0.6728  0.1033
68113SOL     OW16063   3.246   7.072   2.567 -0.4359  0.3352  0.7725
68113SOL    HW116064   3.246   6.979   2.592 -3.5150  0.0270 -0.0153
68113SOL    HW216065   3.332   7.085   2.528  0.1878 -2.1175  1.1081
68114SOL     OW16066   6.662   4.780  12.373  0.1558 -0.4317 -0.2645
68114SOL    HW116067   6.658   4.686  12.354 -1.0772 -0.2467 -0.9844
68114SOL    HW216068   6.670   4.822  12.288  1.7165  0.1032  0.1092
68115SOL     OW16069  10.057   6.358  11.757 -0.2959 -0.0658 -0.1465
68115SOL    HW116070  10.075   6.423  11.824  1.2259  0.2953 -0.8627
68115SOL    HW216071  10.020   6.409  11.684 -1.0177 -0.3199  0.0271
68116SOL     OW16072   1.693   9.833   8.558  0.0674  0.1344 -0.6267
68116SOL    HW116073   1.670   9.925   8.544  0.0247 -0.0326 -1.6806
68116SOL    HW216074   1.756   9.836   8.631 -0.7661  0.8853  0.1009
68117SOL     OW16075   7.018   3.949  10.506  0.3931 -0.1252 -0.7065
68117SOL    HW116076   6.962   3.874  10.524 -0.4813  0.3702 -1.3165
68117SOL    HW216077   7.036   3.943  10.412  0.3375  0.4103 -0.7532
68118SOL     OW16078  10.692   4.824   9.259 -0.4208 -0.5507 -0.4137
68118SOL    HW116079  10.778   4.789   9.283 -0.4838 -0.0057  0.6473
68118SOL    HW216080  10.630   4.762   9.297 -0.5243 -1.4832 -2.0041
68119SOL     OW16081   2.442   7.227   3.762 -0.3683  0.1368  0.5715
68119SOL    HW116082   2.475   7.145   3.798 -0.9234 -0.5465 -0.4005
68119SOL    HW216083   2.356   7.239   3.803 -1.2220 -0.9023 -0.8200
68120SOL     OW16084  13.130   8.187   7.673  0.3191  0.3313  0.8946
68120SOL    HW116085  13.134   8.177   7.578 -4.6154  0.3847  0.4112
68120SOL    HW216086  13.187   8.118   7.706  0.2327 -1.4161 -2.1597
68121SOL     OW16087   0.234  13.352  11.818 -0.3275 -0.3228  0.0830
68121SOL    HW116088   0.277  13.285  11.765  1.5832 -0.1045  1.2448
68121SOL    HW216089   0.301  13.379  11.881 -1.8199  0.9556  1.2082
68122SOL     OW16090  10.214   5.233   4.996  0.0424 -0.3110 -0.1961
68122SOL    HW116091  10.211   5.157   5.054  1.8492 -0.5359 -0.3551
68122SOL    HW216092  10.252   5.200   4.914  0.3316  0.6494 -0.4636
68123SOL     OW16093  11.088   6.266  10.958 -0.0267  0.0082  0.3080
68123SOL    HW116094  11.052   6.333  10.899 -0.2331  0.5502  1.0329
68123SOL    HW216095  11.159   6.226  10.909 -0.3172  0.3260 -0.3781
68124SOL     OW16096   1.660   1.035   4.799 -0.1368  0.3775  0.1342
68124SOL    HW116097   1.736   1.061   4.748  0.1186  0.5095  0.5731
68124SOL    HW216098   1.596   1.104   4.784  0.8916  1.8757  2.0949
68125SOL     OW16099   1.100   0.859   1.033  0.0181  0.2155 -0.2277
68125SOL    HW116100   1.146   0.796   0.977  0.7686  1.2449 -0.7919
68125SOL    HW216101   1.048   0.804   1.093  0.9967 -0.9498 -0.4093
68126SOL     OW16102   0.437   0.500   1.314  0.0077  0.2783 -0.0361
68126SOL    HW116103   0.494   0.518   1.389 -1.8834 -0.1200  1.5746
68126SOL    HW216104   0.423   0.405   1.317 -0.2627  0.2919 -0.7642
68127SOL     OW16105  11.870   1.705  12.314 -0.7975  0.0352  0.6600
68127SOL    HW116106  11.871   1.751  12.397 -0.8183 -0.5453  0.9838
68127SOL    HW216107  11.779   1.714  12.283 -0.5800  1.0213  0.2561
68128SOL     OW16108   3.272   8.767   6.222 -0.7372 -0.2291  0.5289
68128SOL    HW116109   3.263   8.835   6.155  1.5760  0.0419  0.4072
68128SOL    HW216110   3.287   8.686   6.173  0.1787 -0.1626  0.6743
68129SOL     OW16111  13.210   0.333   4.477  0.0082  0.5624  0.1039
68129SOL    HW116112  13.259   0.415   4.476  0.5337  0.2664 -1.3948
68129SOL    HW216113  13.211   0.306   4.569  1.3408  1.3491  0.3576
68130SOL     OW16114   2.640   6.511  12.992  0.8593  0.1950 -0.2124
68130SOL    HW116115   2.656   6.514  13.087  1.2810  0.5825 -0.2919
68130SOL    HW216116   2.569   6.574  12.978 -0.1430 -0.8533  0.0192
68131SOL     OW16117   2.110   8.338  10.072  0.0488  0.5234 -0.0076
68131SOL    HW116118   2.166   8.291  10.010  0.0808 -0.3249  0.6419
68131SOL    HW216119   2.034   8.281  10.083 -0.1176  0.8320  0.4657
68132SOL     OW16120   4.751   3.401  12.995 -0.1933 -0.0550 -0.0068
68132SOL    HW116121   4.727   3.311  13.017 -1.8205  0.5353  0.7902
68132SOL    HW216122   4.715   3.415  12.907 -0.3067 -0.0644  0.0373
68133SOL     OW16123   0.303   8.601   5.831  0.1616 -0.1140 -0.4184
68133SOL    HW116124   0.361   8.557   5.769 -0.3231 -1.2064 -0.1186
68133SOL    HW216125   0.360   8.659   5.881  1.5338 -3.0062  1.6239
68134SOL     OW16126   1.542   2.388   6.680 -0.4417  0.4242 -0.2285
68134SOL    HW116127   1.449   2.368   6.675 -0.2301 -0.5398 -0.4181
68134SOL    HW216128   1.571   2.391   6.588 -0.7956  3.3465 -0.3526
68135SOL     OW16129  11.929  13.002   8.196 -0.3273  0.1364 -0.7000
68135SOL    HW116130  11.949  13.094   8.177 -1.0179  0.6216  0.7219
68135SOL    HW216131  12.014  12.959   8.200  0.0444  0.8484 -0.8113
68136SOL     OW16132   3.876   0.949  12.509 -0.6396  0.4832  0.1150
68136SOL    HW116133   3.855   0.944  12.602 -2.3658 -0.8149 -0.3027
68136SOL    HW216134   3.825   1.023  12.477 -0.5237  0.5485  0.0800
68137SOL     OW16135   5.678  11.489   2.305  0.3534 -0.1876 -0.1570
68137SOL    HW116136   5.769  11.517   2.316  1.0690 -2.2680 -0.2802
68137SOL    HW216137   5.680  11.432   2.228 -1.4829  1.3061 -1.4297
68138SOL     OW16138  10.719   9.022  12.653 -0.3303 -0.5344  0.3473
68138SOL    HW116139  10.664   9.048  12.580  0.3314  1.3424  0.4625
68138SOL    HW216140  10.809   9.028  12.619 -0.0689 -0.7147  0.9855
68139SOL     OW16141  11.453   4.001   5.135 -0.0457 -0.1481 -0.0034
68139SOL    HW116142  11.489   3.946   5.065 -0.4471 -1.5783  0.8625
68139SOL    HW216143  11.359   3.982   5.134 -0.0841 -0.0153  0.7826
68140SOL     OW16144   1.288  12.419  12.850  0.4852 -0.3598 -0.5698
68140SOL    HW116145   1.210  12.473  12.836  1.2330  0.3429 -2.3425
68140SOL    HW216146   1.258  12.348  12.906 -0.6247  1.6764  1.6214
68141SOL     OW16147  12.860   5.804   4.975  0.3483  0.3207 -0.0700
68141SOL    HW116148  12.882   5.888   5.015  2.1670 -0.2333  0.1558
68141SOL    HW216149  12.798   5.764   5.036  0.8574  0.7381  0.7323
68142SOL     OW16150   5.011   8.693   5.450  0.5657 -0.5291 -0.4556
68142SOL    HW116151   4.960   8.623   5.489  1.7382 -1.1915 -0.0488
68142SOL    HW216152   5.010   8.674   5.356  1.1467 -1.2975 -0.3160
68143SOL     OW16153  10.207   0.868   9.928  0.5098 -0.0683 -0.2732
68143SOL    HW116154  10.188   0.958   9.902  0.7625  0.0253 -0.1397
68143SOL    HW216155  10.291   0.848   9.886  1.0542  0.1777  0.6695
68144SOL     OW16156   3.425   4.996   5.942 -0.3998 -0.1497  0.2649
68144SOL    HW116157   3.421   4.918   5.887  1.7208  1.5460 -2.5785
68144SOL    HW216158   3.476   4.969   6.019 -0.9429 -1.8865  0.0440
68145SOL     OW16159  11.911   9.577   4.129  0.1874 -0.3440  0.2306
68145SOL    HW116160  11.941   9.657   4.170  0.4202  0.3320 -1.2050
68145SOL    HW216161  11.840   9.546   4.185  1.7011 -0.5030  2.1596
68146SOL     OW16162   5.897   8.882   3.996  0.2220  0.4353 -0.6290
68146SOL    HW116163   5.875   8.975   3.996 -0.7148  0.2743  1.5322
68146SOL    HW216164   5.991   8.880   4.012 -0.1907  1.0492  2.4609
68147SOL     OW16165   1.291   8.983  11.398 -0.5186  0.2119  0.6158
68147SOL    HW116166   1.347   8.919  11.356 -2.0332 -0.7269 -0.0559
68147SOL    HW216167   1.344   9.063  11.402  0.8570 -0.6412  0.0755
68148SOL     OW16168   7.854   0.082   8.343 -0.1458  0.4077  0.1339
68148SOL    HW116169   7.777   0.123   8.383  0.3737  0.3480  1.2538
68148SOL    HW216170   7.913   0.155   8.324 -0.1521  0.3813  0.0110
68149SOL     OW16171   3.745   3.223   4.796 -0.0860 -0.3587 -0.0964
68149SOL    HW116172   3.825   3.249   4.842 -1.3314  0.6152  1.6045
68149SOL    HW216173   3.747   3.127   4.797  0.8714 -0.3512  0.2074
68150SOL     OW16174   1.644   8.717   5.767 -0.2664 -0.3862 -0.1011
68150SOL    HW116175   1.735   8.720   5.736 -0.9204  2.5577 -2.1147
68150SOL    HW216176   1.632   8.627   5.797  2.5652 -1.5736 -2.0919
68151SOL     OW16177  10.184   8.537  10.472  0.2303  0.4919 -0.6768
68151SOL    HW116178  10.228   8.462  10.513  1.2190  0.4053 -1.8362
68151SOL    HW216179  10.137   8.579  10.544  0.7336 -0.4808  0.2587
68152SOL     OW16180  10.503   8.838   1.631  0.0126 -0.1313 -0.2528
68152SOL    HW116181  10.538   8.902   1.693  0.1035 -1.2395  0.8887
68152SOL    HW216182  10.578   8.811   1.578 -0.2204  1.4134 -1.4406
68153SOL     OW16183  13.699   5.204   9.406  0.5294  0.1336 -0.2506
68153SOL    HW116184  13.623   5.242   9.362  0.3314 -0.5961 -0.5543
68153SOL    HW216185  13.750   5.163   9.335  0.8382  0.0001  0.0442
68154SOL     OW16186  13.326   0.588   4.398 -0.0241  0.5111 -0.1284
68154SOL    HW116187  13.383   0.601   4.474  1.6313  1.2007 -1.4161
68154SOL    HW216188  13.375   0.627   4.325 -2.4419  1.7158 -1.2207
68155SOL     OW16189   9.216   8.272   6.212  0.5106  0.3347  0.3003
68155SOL    HW116190   9.262   8.272   6.295  2.1385 -0.2867 -0.5505
68155SOL    HW216191   9.213   8.364   6.186  0.5953  0.4567  0.7201
68156SOL     OW16192  13.343  13.300   9.830  0.0919  0.2005  0.0533
68156SOL    HW116193  13.416  13.250   9.866  0.2371 -1.2354 -2.0500
68156SOL    HW216194  13.266  13.246   9.847 -1.0533  2.6797  4.2534
68157SOL     OW16195   3.282   3.383  10.971 -0.5616  0.2901 -0.0316
68157SOL    HW116196   3.299   3.314  10.906  0.6665  2.7258 -2.5323
68157SOL    HW216197   3.220   3.344  11.032 -4.3159 -1.3771 -4.3166
68158SOL     OW16198  10.339  10.253   9.428  0.2938 -0.2935  0.4856
68158SOL    HW116199  10.339  10.348   9.420  0.0455 -0.3220  0.1236
68158SOL    HW216200  10.371  10.236   9.516 -3.7376  0.3041  2.2893
68159SOL     OW16201  13.668   2.393   8.405  0.1907  0.4427 -0.1485
68159SOL    HW116202  13.589   2.447   8.401 -1.2380 -0.9426  4.0028
68159SOL    HW216203  13.733   2.448   8.449  0.2773  0.3355 -0.1412
68160SOL     OW16204   9.396   1.847   6.941  0.1162 -0.4106  0.2717
68160SOL    HW116205   9.424   1.819   7.029  0.1201 -0.7776  0.1552
68160SOL    HW216206   9.308   1.809   6.931  0.2047 -0.5504  0.0322
68161SOL     OW16207   5.561   8.686   7.785 -0.5959 -0.7932  0.0088
68161SOL    HW116208   5.530   8.759   7.838  0.6004 -0.0159 -0.3278
68161SOL    HW216209   5.527   8.608   7.829 -0.2253 -0.1326  1.5094
68162SOL     OW16210   2.283   9.605  11.611 -0.1886  0.3647  0.4105
68162SOL    HW116211   2.200   9.639  11.576 -0.3650 -0.1515  0.3152
68162SOL    HW216212   2.272   9.510  11.609  0.4371  0.2897  0.3239
68163SOL     OW16213   3.102  12.951   3.547  0.2295  0.0911 -0.1063
68163SOL    HW116214   3.134  13.032   3.587 -0.2296 -0.1386  0.7607
68163SOL    HW216215   3.036  12.918   3.609  0.4237 -0.9536 -0.4292
68164SOL     OW16216   0.035   5.986  11.234  0.4807 -0.7475 -0.1200
68164SOL    HW116217  -0.004   6.055  11.179  1.0639 -0.8371 -0.6609
68164SOL    HW216218  -0.007   5.996  11.319 -0.9403 -1.0277 -0.7663
68165SOL     OW16219   3.361   3.495  11.557 -0.0737  0.3596 -0.4598
68165SOL    HW116220   3.327   3.435  11.491  0.8835 -0.9911  0.2198
68165SOL    HW216221   3.284   3.539  11.592 -0.6045  1.0261 -2.3691
68166SOL     OW16222  12.936   4.319   3.396  0.3823  0.0678 -0.0193
68166SOL    HW116223  12.885   4.289   3.321  2.1025  0.0099 -1.2280
68166SOL    HW216224  12.871   4.350   3.459 -1.2985 -2.6305 -0.2518
68167SOL     OW16225   6.004   4.484   5.187  0.1466 -0.3299 -0.4460
68167SOL    HW116226   6.038   4.574   5.194  0.9040 -0.6690  0.5807
68167SOL    HW216227   5.937   4.479   5.255 -1.8902  0.2669 -2.3298
68168SOL     OW16228   4.089   8.275   6.827  0.3454  0.3015  0.3599
68168SOL    HW116229   4.043   8.302   6.748 -1.4146  1.0557  1.5700
68168SOL    HW216230   4.093   8.179   6.821  2.4418  0.4130 -1.7285
68169SOL     OW16231   2.267   8.517  12.147  0.4841 -0.2928  0.2440
68169SOL    HW116232   2.251   8.575  12.072  1.1287  0.1231  0.4139
68169SOL    HW216233   2.223   8.435  12.124 -2.3296  0.9050  0.9149
68170SOL     OW16234   3.420  10.249   7.214 -0.0346  0.1179  0.0513
68170SOL    HW116235   3.378  10.175   7.171  1.3533 -0.8067  0.2094
68170SOL    HW216236   3.478  10.286   7.147 -0.4871  0.8803  0.0707
68171SOL     OW16237  11.793   3.036  10.672 -0.9665  0.0753  0.4531
68171SOL    HW116238  11.718   2.986  10.639  0.1322 -0.3764 -1.4611
68171SOL    HW216239  11.816   3.095  10.600  1.0388 -0.3980  0.6628
68172SOL     OW16240   4.564  11.728   3.964 -0.2006 -0.3598 -0.3427
68172SOL    HW116241   4.499  11.757   3.900 -1.0267  2.2370  1.4930
68172SOL    HW216242   4.535  11.641   3.990 -1.8866 -0.0338 -0.9770
68173SOL     OW16243   8.869   0.413   8.479 -0.0960 -0.2570  0.2457
68173SOL    HW116244   8.859   0.378   8.568 -0.7146  1.7077  1.0072
68173SOL    HW216245   8.787   0.460   8.462  0.5695  0.5761 -0.8056
68174SOL     OW16246   4.499  11.924  12.536 -0.2360 -0.0708 -0.5079
68174SOL    HW116247   4.450  12.005  12.550 -0.0555 -0.0480 -0.0209
68174SOL    HW216248   4.432  11.859  12.515 -0.3933  0.1715 -0.7689
68175SOL     OW16249   9.785   6.355   9.169  0.2717 -0.2424 -0.1472
68175SOL    HW116250   9.831   6.423   9.217 -0.2586 -1.2240  1.8659
68175SOL    HW216251   9.772   6.391   9.082  1.2798  1.6278  0.4354
68176SOL     OW16252   0.273   0.138   6.933 -0.0614  0.0266 -0.3311
68176SOL    HW116253   0.362   0.149   6.900  0.2903 -0.9367  0.2617
68176SOL    HW216254   0.219   0.133   6.854  0.3637  0.8667 -0.6890
68177SOL     OW16255   4.327   6.332  12.158  0.3500  0.5996  0.3644
68177SOL    HW116256   4.365   6.272  12.094 -0.8165  0.4945 -0.2797
68177SOL    HW216257   4.360   6.303  12.242  0.8079 -0.1542 -0.0681
68178SOL     OW16258  10.711  10.586   3.493 -0.0962 -0.0555  0.3333
68178SOL    HW116259  10.652  10.539   3.552  0.6196  1.7076  2.6190
68178SOL    HW216260  10.725  10.525   3.420 -4.4961 -0.6581 -0.3109
68179SOL     OW16261   2.312  12.849   0.242  0.2455 -0.1816 -0.0400
68179SOL    HW116262   2.345  12.787   0.177 -2.2551 -1.3521 -0.3177
68179SOL    HW216263   2.218  12.854   0.225 -0.0269  1.7555  1.6388
68180SOL     OW16264   0.404   4.765   1.491  0.1007 -0.1899  0.1778
68180SOL    HW116265   0.438   4.675   1.489 -2.4700 -1.2842  1.1823
68180SOL    HW216266   0.310   4.755   1.479 -0.1517  2.5263 -0.8810
68181SOL     OW16267   0.270  10.449   8.601 -0.6352 -0.4162  0.1475
68181SOL    HW116268   0.258  10.475   8.692  0.6258 -1.5162  0.6499
68181SOL    HW216269   0.324  10.518   8.563 -0.7476 -0.2058  0.3695
68182SOL     OW16270   5.662   2.965   6.875  0.4799 -0.1528  0.1224
68182SOL    HW116271   5.741   2.941   6.827  0.3613  0.2270 -0.2657
68182SOL    HW216272   5.664   2.909   6.953 -0.4895 -2.5028 -1.4103
68183SOL     OW16273  11.645   8.672  12.305  0.0275  0.1447 -0.5412
68183SOL    HW116274  11.579   8.602  12.305  0.2802 -0.0935 -0.1463
68183SOL    HW216275  11.658   8.692  12.212 -1.5484  1.0905 -0.5860
68184SOL     OW16276   1.179   6.607   3.700 -0.2608 -0.3560 -0.0191
68184SOL    HW116277   1.239   6.633   3.770 -0.9666 -0.1426  0.5131
68184SOL    HW216278   1.119   6.681   3.692 -2.1827 -1.6936  1.3697
68185SOL     OW16279   8.349  12.552   7.201 -0.2077 -0.3548  0.4342
68185SOL    HW116280   8.365  12.613   7.129 -1.3908 -0.7311 -0.1708
68185SOL    HW216281   8.408  12.581   7.270  0.2995  0.5726 -0.3584
68186SOL     OW16282   6.316   8.357   6.922  0.3473 -0.8008  0.4383
68186SOL    HW116283   6.278   8.274   6.895  1.2100 -1.9349  2.4675
68186SOL    HW216284   6.361   8.390   6.844  0.1693 -2.3494 -0.3451
68187SOL     OW16285   0.752   3.182   1.632 -0.2003 -0.3675 -0.3735
68187SOL    HW116286   0.711   3.135   1.705  0.4906 -1.7169 -0.8291
68187SOL    HW216287   0.825   3.229   1.673  0.3212 -1.2946 -0.2051
68188SOL     OW16288   2.822   2.302   2.599  0.8219  0.2553 -0.3852
68188SOL    HW116289   2.848   2.289   2.690 -1.0451 -1.9270 -0.1118
68188SOL    HW216290   2.880   2.373   2.569  0.1301  2.5212  3.0354
68189SOL     OW16291   7.683   2.730   8.628  0.0163  0.0003 -0.5087
68189SOL    HW116292   7.741   2.778   8.687 -0.8060 -1.2726  1.4172
68189SOL    HW216293   7.609   2.789   8.613 -0.2233 -0.0080  0.5454
68190SOL     OW16294   6.439   6.736  11.584  0.1877  0.1402  0.4361
68190SOL    HW116295   6.450   6.750  11.678 -0.7433 -0.3280  0.6285
68190SOL    HW216296   6.482   6.652  11.568 -0.4122 -0.2049  0.6127
68191SOL     OW16297   9.102  12.384   6.099 -0.7203  0.1995 -0.0764
68191SOL    HW116298   9.116  12.376   6.005  0.2530 -0.0379  0.0764
68191SOL    HW216299   9.144  12.306   6.136 -1.1411  0.2640  0.5493
68192SOL     OW16300  12.132   4.304  13.446 -0.1589  0.0046 -0.5166
68192SOL    HW116301  12.039   4.293  13.464  0.0443 -0.1539  0.4611
68192SOL    HW216302  12.152   4.393  13.473 -0.3869  0.6779 -2.3804
68193SOL     OW16303   3.659  10.700  12.876  0.0077 -0.4878  0.2366
68193SOL    HW116304   3.702  10.777  12.838 -0.6824 -0.8483 -1.3720
68193SOL    HW216305   3.730  10.648  12.913  0.5262  0.6994  0.9645
68194SOL     OW16306   5.775  12.927   4.024 -0.3028 -0.2065 -0.0961
68194SOL    HW116307   5.763  12.917   3.930  0.4915 -0.4548 -0.1836
68194SOL    HW216308   5.824  13.009   4.034 -0.3875 -0.1780  0.0973
68195SOL     OW16309  13.598   9.669   3.354  0.8018 -0.1792 -0.0702
68195SOL    HW116310  13.639   9.754   3.338  0.6928  0.0607  0.8565
68195SOL    HW216311  13.651   9.606   3.305  0.2799  0.5437 -1.6004
68196SOL     OW16312   1.028   3.708   9.175 -0.0543  0.0059  0.5900
68196SOL    HW116313   0.994   3.791   9.143  1.0297  0.4169  0.4657
68196SOL    HW216314   1.111   3.730   9.218  0.3812 -1.0270  0.3363
68197SOL     OW16315  13.115   2.351   9.270 -0.3633 -0.2961 -0.1716
68197SOL    HW116316  13.194   2.301   9.292  0.0801  0.1998 -0.5999
68197SOL    HW216317  13.051   2.324   9.336 -0.0483 -1.2018 -0.2159
68198SOL     OW16318   8.562  10.216   1.057 -0.5195 -0.2608 -0.4134
68198SOL    HW116319   8.640  10.185   1.012  0.8792  0.9174  1.0658
68198SOL    HW216320   8.548  10.153   1.128 -0.2661  0.1039 -0.0352
68199SOL     OW16321   1.541   9.389   2.074  0.2760  0.1690  0.6250
68199SOL    HW116322   1.477   9.453   2.106 -0.8080 -0.9646  0.7975
68199SOL    HW216323   1.550   9.409   1.981 -0.1304  0.5193  0.6531
68200SOL     OW16324   4.856   5.859   6.768 -0.1279  0.1169  0.0433
68200SOL    HW116325   4.888   5.802   6.837  1.8421  0.2836 -0.6877
68200SOL    HW216326   4.870   5.810   6.687 -0.7498  0.6406 -0.3992
68201SOL     OW16327   2.935  12.092  12.541 -0.0659 -0.2110  0.3236
68201SOL    HW116328   2.958  12.073  12.450 -2.5584 -1.0254 -0.2173
68201SOL    HW216329   2.978  12.175  12.559  0.2593  0.1283 -1.6947
68202SOL     OW16330  10.662  11.205   4.140  0.5056 -0.7733  0.4048
68202SOL    HW116331  10.572  11.215   4.110  0.2818  0.9433  1.5283
68202SOL    HW216332  10.654  11.185   4.233  1.2773 -1.6724  0.2885
68203SOL     OW16333  12.374   1.282   4.380  0.1904 -0.0871  0.0463
68203SOL    HW116334  12.363   1.228   4.458 -1.3294 -0.9251 -0.7011
68203SOL    HW216335  12.381   1.371   4.414  0.3403 -0.5064  1.1687
68204SOL     OW16336   3.586   5.596   7.232 -0.0529  0.0749  0.8250
68204SOL    HW116337   3.550   5.635   7.153  2.1020  3.8193  1.4648
68204SOL    HW216338   3.509   5.580   7.288 -1.2394  1.9917 -0.1496
68205SOL     OW16339  11.363  11.076   6.170  0.2656 -0.0049  0.1088
68205SOL    HW116340  11.428  11.070   6.241 -0.6747  0.5464  1.0446
68205SOL    HW216341  11.402  11.137   6.107  0.6892  0.2677  0.6299
68206SOL     OW16342   8.050  10.880   0.675  0.2762  0.3912  0.4663
68206SOL    HW116343   8.059  10.813   0.607  2.5652  0.0266  1.0458
68206SOL    HW216344   8.095  10.957   0.640 -1.0342  1.1747  0.4255
68207SOL     OW16345   6.757   1.957   4.513  0.6878  0.1200 -0.2285
68207SOL    HW116346   6.676   2.004   4.535  2.0165  2.5567 -0.1084
68207SOL    HW216347   6.774   1.902   4.590  1.3198  2.8565  1.7720
68208SOL     OW16348   0.472   3.577   0.965  0.4561  0.2449  0.5388
68208SOL    HW116349   0.450   3.562   1.057  0.8740 -0.5675  0.5192
68208SOL    HW216350   0.433   3.503   0.919  1.1162  0.0991  0.1993
68209SOL     OW16351   0.566  10.081   8.542  0.2528 -0.2396 -0.3761
68209SOL    HW116352   0.642  10.130   8.572  1.0371 -0.3522 -2.0450
68209SOL    HW216353   0.491  10.125   8.583  1.0424  1.4072 -0.6050
68210SOL     OW16354   5.833  13.206   8.128 -0.1789  0.0450 -0.5219
68210SOL    HW116355   5.899  13.271   8.154 -0.0836 -0.5184  0.7427
68210SOL    HW216356   5.762  13.258   8.090  0.4144  0.7827 -0.6425
68211SOL     OW16357   4.274   0.808  13.738 -0.1826 -0.4171 -0.8741
68211SOL    HW116358   4.187   0.777  13.714 -0.1593 -0.3354 -1.0600
68211SOL    HW216359   4.289   0.771  13.825 -0.9947  0.7283 -0.2119
68212SOL     OW16360  12.853   2.682  10.729  0.1839  0.4858 -0.0481
68212SOL    HW116361  12.863   2.776  10.740  1.7524  0.3127  0.2858
68212SOL    HW216362  12.829   2.670  10.638  0.0808  1.2094 -0.1190
68213SOL     OW16363  10.126   3.891  13.313  0.1332 -0.4317 -0.2203
68213SOL    HW116364  10.124   3.888  13.408  1.3028  0.3025 -0.1637
68213SOL    HW216365  10.048   3.841  13.286  0.7085 -2.1117  1.0677
68214SOL     OW16366  13.563   9.959   3.951 -0.0106 -0.0346  0.4485
68214SOL    HW116367  13.525   9.887   4.001 -1.4593  0.4921  0.1512
68214SOL    HW216368  13.656   9.958   3.975 -0.5752  0.0211  2.9450
68215SOL     OW16369   0.295   5.292  13.406  0.3384 -0.0053 -0.4440
68215SOL    HW116370   0.304   5.206  13.448 -1.9858  1.5499  3.7272
68215SOL    HW216371   0.212   5.287  13.359 -0.5572  0.3632  1.0592
68216SOL     OW16372  11.358   2.834   5.245  0.7046  0.4474  0.1481
68216SOL    HW116373  11.274   2.860   5.284  1.2761 -0.1701  1.9002
68216SOL    HW216374  11.335   2.763   5.185 -0.0420  0.1697  0.7304
68217SOL     OW16375   8.819   4.675  12.543 -0.0323  0.6845 -0.4325
68217SOL    HW116376   8.784   4.621  12.472  0.8092 -0.8935  0.3292
68217SOL    HW216377   8.788   4.634  12.623  1.7267  0.4908  0.2023
68218SOL     OW16378   9.082   7.595  11.962  0.4866 -0.5415  0.3223
68218SOL    HW116379   9.147   7.539  11.920  0.1258  0.6127 -1.9377
68218SOL    HW216380   9.133   7.667  11.998  0.5358  0.2499 -1.2537
68219SOL     OW16381   0.725  12.730   4.653  0.1402  0.0887  0.5181
68219SOL    HW116382   0.658  12.722   4.720  0.7337 -0.9293  1.0058
68219SOL    HW216383   0.681  12.704   4.571 -0.9207  2.4661  0.2453
68220SOL     OW16384   8.690   6.546  12.932  0.4774 -0.0350  0.3227
68220SOL    HW116385   8.724   6.635  12.940  0.7733 -0.1778  0.6945
68220SOL    HW216386   8.634   6.548  12.854 -0.1908  0.6851  0.8125
68221SOL     OW16387   8.593   8.561  11.011 -0.2835 -0.3428  0.4964
68221SOL    HW116388   8.612   8.612  11.090  2.3180  0.0139 -0.2974
68221SOL    HW216389   8.653   8.487  11.015 -1.7726 -1.6327 -0.0115
68222SOL     OW16390   7.683   3.887   0.273  0.4850 -0.2019 -0.6295
68222SOL    HW116391   7.628   3.877   0.350 -1.3067  1.1822 -1.6348
68222SOL    HW216392   7.693   3.799   0.237  0.1354 -0.6572  0.3808
68223SOL     OW16393  13.208   9.648   4.290  0.2887 -0.5463 -0.2123
68223SOL    HW116394  13.132   9.698   4.260  0.2875 -0.2535  0.2798
68223SOL    HW216395  13.213   9.574   4.229 -1.4506 -1.5541  0.8034
68224SOL     OW16396   0.437   5.817  11.756 -0.8795 -0.1325 -0.2183
68224SOL    HW116397   0.438   5.912  11.742  1.7734  0.1157  1.0235
68224SOL    HW216398   0.449   5.780  11.669  2.3175  0.9001 -0.3483
68225SOL     OW16399   9.036   0.208   4.078 -0.4837 -0.6757  0.1584
68225SOL    HW116400   9.057   0.160   3.998  3.0275  1.3318 -0.3103
68225SOL    HW216401   9.094   0.171   4.144  0.9865  1.5026  0.2106
68226SOL     OW16402   6.956  11.980   8.482 -0.4586 -0.7199  0.0110
68226SOL    HW116403   6.987  11.908   8.538 -1.0286 -0.4800  0.6439
68226SOL    HW216404   6.930  11.936   8.401 -1.5955 -1.3556  0.6945
68227SOL     OW16405  12.647  10.680   2.546 -0.2413  0.1739 -0.1070
68227SOL    HW116406  12.642  10.657   2.453 -0.1169  0.5178 -0.2026
68227SOL    HW216407  12.670  10.598   2.590 -1.6933 -0.3193 -0.2149
68228SOL     OW16408   9.672   3.935  12.982 -0.0341 -0.0108  0.3516
68228SOL    HW116409   9.723   4.013  13.003  1.3962 -0.5260 -1.0465
68228SOL    HW216410   9.587   3.969  12.952  0.3287  0.9535  0.3824
68229SOL     OW16411   3.061  12.511   3.559 -0.3344 -0.5132 -0.2633
68229SOL    HW116412   3.099  12.594   3.531  1.0739 -1.2912 -0.7766
68229SOL    HW216413   2.968  12.531   3.574 -0.4065  0.7730 -2.0140
68230SOL     OW16414  12.865   9.798   0.494 -0.5036  0.3551 -0.3032
68230SOL    HW116415  12.866   9.715   0.447  0.5096 -1.1552  2.1966
68230SOL    HW216416  12.945   9.843   0.467 -0.0590 -0.3762 -0.2136
68231SOL     OW16417   7.887   1.668   8.466 -0.4414 -0.6331 -0.2689
68231SOL    HW116418   7.859   1.759   8.473 -1.1792 -0.6737 -2.0146
68231SOL    HW216419   7.867   1.630   8.551 -1.5046  0.4749  0.0064
68232SOL     OW16420   0.412   1.986  11.310 -0.2434  0.0645 -0.4579
68232SOL    HW116421   0.455   1.903  11.293  0.9322  0.1572  1.6651
68232SOL    HW216422   0.403   2.027  11.224  2.0057 -0.8982 -1.2080
68233SOL     OW16423   7.289   2.255   6.487  0.0183  0.3993  0.1027
68233SOL    HW116424   7.325   2.267   6.399 -0.9795  0.0529 -0.3749
68233SOL    HW216425   7.197   2.233   6.472 -0.3341  1.0016  1.2617
68234SOL     OW16426   1.405   6.130  12.002 -0.0648 -0.0343 -0.2162
68234SOL    HW116427   1.360   6.097  12.080  1.7092 -0.6845  0.5921
68234SOL    HW216428   1.381   6.068  11.933 -2.1785  0.9146 -0.4251
68235SOL     OW16429   9.972   8.640   4.649 -0.2428 -0.5578  0.1113
68235SOL    HW116430  10.062   8.618   4.675 -0.9436 -0.7295  2.6307
68235SOL    HW216431   9.979   8.727   4.611  1.1174 -0.9732 -0.6469
68236SOL     OW16432  10.086   9.369  10.927 -0.4855  0.5913  0.0568
68236SOL    HW116433  10.178   9.352  10.908 -0.7210  0.2275 -0.7920
68236SOL    HW216434  10.083   9.379  11.022  0.0202 -2.2018  0.4681
68237SOL     OW16435  11.121   0.523  13.352  0.7593  0.6741 -0.0735
68237SOL    HW116436  11.184   0.518  13.281  0.8698  1.8187 -0.0741
68237SOL    HW216437  11.049   0.575  13.317 -0.4936 -1.1291 -0.2843
68238SOL     OW16438   3.472   3.792  10.959 -0.5272 -0.0017 -0.2074
68238SOL    HW116439   3.526   3.870  10.969 -0.2574 -0.2422  0.2806
68238SOL    HW216440   3.429   3.782  11.044  0.6202 -1.2349  0.2686
68239SOL     OW16441   2.804   0.038   3.349 -0.3452 -0.3425  0.4770
68239SOL    HW116442   2.783   0.131   3.351  1.8791  0.2374 -0.6627
68239SOL    HW216443   2.777   0.006   3.435 -1.2403  1.3248  0.8507
68240SOL     OW16444   3.642   5.944   0.251  0.1523  0.4237  0.1399
68240SOL    HW116445   3.652   5.869   0.192  3.9528  0.3278  0.6611
68240SOL    HW216446   3.595   6.010   0.198  1.5240 -0.4176 -2.2927
68241SOL     OW16447  10.841  11.038   4.572  0.3192 -0.1464  0.0617
68241SOL    HW116448  10.851  11.105   4.640  1.6549  0.0993 -0.3377
68241SOL    HW216449  10.774  11.073   4.514 -0.9466 -0.4185  1.3003
68242SOL     OW16450   9.534   6.538   6.749  0.4032  0.2548  0.1551
68242SOL    HW116451   9.554   6.457   6.797 -2.3153 -0.3587  0.4734
68242SOL    HW216452   9.524   6.510   6.658 -0.6104  0.1816  0.2766
68243SOL     OW16453  12.753   1.693   5.040  0.1052  0.5657  0.0623
68243SOL    HW116454  12.736   1.754   4.969  1.4229 -0.2186 -0.9695
68243SOL    HW216455  12.729   1.741   5.120  0.5792  2.2089 -0.7470
68244SOL     OW16456   6.750   4.812   9.860  0.2315 -0.0850  0.2333
68244SOL    HW116457   6.734   4.722   9.834 -0.0573 -0.5417  1.8819
68244SOL    HW216458   6.746   4.862   9.778  1.2833 -1.6640 -0.8277
68245SOL     OW16459   1.002  12.331   6.584  0.3095 -0.6568  0.3605
68245SOL    HW116460   1.083  12.327   6.533  0.1845 -1.0349  0.1878
68245SOL    HW216461   0.933  12.312   6.520  0.1310 -0.8623  0.6157
68246SOL     OW16462   6.908   5.925   7.434  0.2657  0.2248  0.0432
68246SOL    HW116463   6.960   5.868   7.491  1.5224  1.0608 -0.2245
68246SOL    HW216464   6.898   5.876   7.353  0.6829  0.0826  0.0770
68247SOL     OW16465   2.681   1.601  12.133 -0.6578 -0.5079  0.3571
68247SOL    HW116466   2.651   1.533  12.194 -0.6311  1.8011  3.1382
68247SOL    HW216467   2.633   1.679  12.158 -1.0863  0.5023 -3.0881
68248SOL     OW16468   8.523   3.270   5.190  0.2711 -0.0588 -0.2663
68248SOL    HW116469   8.603   3.221   5.168 -0.2733 -1.2170  0.2467
68248SOL    HW216470   8.456   3.202   5.202 -1.3882  0.9263 -2.8911
68249SOL     OW16471   8.303   2.516   3.149 -0.3889  0.3996 -0.3908
68249SOL    HW116472   8.229   2.576   3.139 -0.3548  0.3378 -1.0646
68249SOL    HW216473   8.349   2.520   3.065  2.8469  3.6771  1.2518
68250SOL     OW16474   6.599   4.533   7.356 -0.2297 -0.2247 -0.4153
68250SOL    HW116475   6.524   4.527   7.416 -1.0362 -1.1040 -1.4784
68250SOL    HW216476   6.619   4.442   7.335  0.6884  0.0436 -0.7126
68251SOL     OW16477   4.660   6.626  12.402  0.0764  0.4883 -0.3564
68251SOL    HW116478   4.571   6.646  12.430  0.3029  2.3590 -0.8453
68251SOL    HW216479   4.658   6.533  12.380 -1.1730 -0.0514  1.7157
68252SOL     OW16480   2.063   8.382   0.957  0.0862  0.1141  0.4610
68252SOL    HW116481   2.088   8.457   1.011  0.4585 -0.3626  0.9535
68252SOL    HW216482   2.011   8.327   1.015 -1.2409  0.5755 -0.2506
68253SOL     OW16483   0.114   4.919   9.664  0.3537  0.0087 -0.3508
68253SOL    HW116484   0.175   4.983   9.700 -0.9949  0.4629  1.2022
68253SOL    HW216485   0.053   4.900   9.736  0.5680 -2.8527 -0.8022
68254SOL     OW16486   9.935  10.154   2.401  0.5053  1.0812  0.5638
68254SOL    HW116487   9.967  10.066   2.380  0.8563  0.9625  1.5220
68254SOL    HW216488   9.983  10.212   2.341 -0.7506  0.5165 -1.0459
68255SOL     OW16489   1.752   3.503  12.961  0.2949  0.3964  0.3115
68255SOL    HW116490   1.807   3.567  12.917  0.9538  1.0967  2.0791
68255SOL    HW216491   1.780   3.418  12.926  0.9077  0.9111 -0.4673
68256SOL     OW16492   8.351   8.063   6.161 -0.3076 -0.1571 -0.3868
68256SOL    HW116493   8.290   8.034   6.228 -0.1799 -0.1571 -0.2693
68256SOL    HW216494   8.341   7.999   6.090  0.6690 -1.0874  0.2592
68257SOL     OW16495   3.795  11.706   7.410 -0.7089  0.4148  0.1400
68257SOL    HW116496   3.719  11.756   7.441 -0.5220 -0.1575  1.5885
68257SOL    HW216497   3.863  11.723   7.475  0.5177  1.0875 -1.2442
68258SOL     OW16498  10.468   1.268   2.092  0.8137  0.3457 -0.4252
68258SOL    HW116499  10.446   1.322   2.016 -1.5833  0.8807  0.5561
68258SOL    HW216500  10.446   1.323   2.167  1.6269 -0.7591  0.6525
68259SOL     OW16501   4.071  13.317   3.821  0.5456 -0.5740 -1.1303
68259SOL    HW116502   4.026  13.401   3.810  1.7093  0.2324 -0.0639
68259SOL    HW216503   4.108  13.321   3.909  2.4369 -1.3040 -1.8437
68260SOL     OW16504   0.152  11.031   8.436  0.3702 -0.6567 -0.4563
68260SOL    HW116505   0.078  11.087   8.410  0.0239 -1.6074 -1.5771
68260SOL    HW216506   0.174  11.061   8.524 -1.0301 -0.0119 -0.2916
68261SOL     OW16507  13.584  11.224   4.214 -0.5652 -0.3896  0.2641
68261SOL    HW116508  13.506  11.176   4.242 -2.3843  2.2139  0.0114
68261SOL    HW216509  13.655  11.186   4.266 -2.3479 -1.4157  2.1130
68262SOL     OW16510   6.287   4.657   8.519 -0.1866 -0.2757 -0.0460
68262SOL    HW116511   6.322   4.606   8.593 -1.6337 -0.0688  0.8174
68262SOL    HW216512   6.364   4.698   8.480  0.5902 -0.1217  1.5718
68263SOL     OW16513  11.946   7.010   8.169  0.2960 -0.4926  0.3955
68263SOL    HW116514  11.898   7.006   8.086 -0.5676  0.5564  0.8217
68263SOL    HW216515  11.990   7.094   8.169 -1.8972  0.7842  2.1020
68264SOL     OW16516   6.346  11.855  12.234  0.1165 -0.5600  0.7862
68264SOL    HW116517   6.275  11.884  12.178  1.4028 -1.5361 -1.4755
68264SOL    HW216518   6.310  11.781  12.282 -1.7665  1.7626  3.2553
68265SOL     OW16519   9.252   3.166   1.915 -0.4306 -0.2573  0.4007
68265SOL    HW116520   9.205   3.231   1.967 -0.3974  0.1070 -0.0185
68265SOL    HW216521   9.274   3.212   1.834 -2.8308 -1.5856 -1.1037
68266SOL     OW16522   5.239   9.594   7.940 -0.2387  0.3842  0.5532
68266SOL    HW116523   5.204   9.538   7.871 -1.9856  1.5126  0.4642
68266SOL    HW216524   5.277   9.534   8.004  2.7294 -0.6616 -1.9662
68267SOL     OW16525   2.976   6.138   4.590 -0.1589  0.0980 -0.4932
68267SOL    HW116526   2.895   6.109   4.548  0.3021 -2.5248  0.2376
68267SOL    HW216527   2.948   6.196   4.660 -1.2100  1.0958 -1.6984
68268SOL     OW16528   1.563   3.413   6.746  0.2260 -0.1719  0.0053
68268SOL    HW116529   1.580   3.376   6.833  0.5519  0.1301  0.0745
68268SOL    HW216530   1.513   3.493   6.762 -0.8587 -0.7961 -0.1714
68269SOL     OW16531  11.545   7.738   8.873 -0.0064 -0.1193  0.1798
68269SOL    HW116532  11.479   7.681   8.913 -1.0030  0.8958  0.0466
68269SOL    HW216533  11.495   7.812   8.838  1.1508  0.4071 -0.4377
68270SOL     OW16534  12.970   7.217   1.935 -0.1127  0.5106  0.5891
68270SOL    HW116535  13.040   7.257   1.884 -0.2287  0.2059  0.1891
68270SOL    HW216536  12.973   7.124   1.912 -2.4813  0.8605 -1.6871
68271SOL     OW16537   1.814   8.238  12.479  0.2637  0.2663 -0.4410
68271SOL    HW116538   1.743   8.173  12.474  0.0491  0.3567  1.0800
68271SOL    HW216539   1.894   8.185  12.481  0.2314  0.1451 -1.5993
68272SOL     OW16540   8.798  12.293   8.111 -0.2478 -0.1177  0.2631
68272SOL    HW116541   8.890  12.277   8.134 -0.5564 -1.2643  0.7805
68272SOL    HW216542   8.765  12.348   8.182 -0.0925 -0.1164  0.3351
68273SOL     OW16543  12.675   5.437   3.005 -0.0849  0.4886 -0.2182
68273SOL    HW116544  12.762   5.477   3.018  0.1085  0.2332 -0.7145
68273SOL    HW216545  12.692   5.343   3.007 -0.4954  0.4233  0.6512
68274SOL     OW16546   3.619   9.094   3.165  0.3950  0.3224  0.4286
68274SOL    HW116547   3.617   9.188   3.183  0.0393  0.1392  1.3848
68274SOL    HW216548   3.610   9.052   3.251 -0.4563 -0.5900 -0.0760
68275SOL     OW16549  11.479   0.169   0.865 -0.8316 -0.3699  0.0966
68275SOL    HW116550  11.439   0.103   0.808 -0.6721  0.9050 -1.5563
68275SOL    HW216551  11.558   0.196   0.818 -0.3186  0.2438  1.2713
68276SOL     OW16552   6.681   8.862   6.694  0.6744 -0.3291 -0.3260
68276SOL    HW116553   6.729   8.794   6.646  2.4901  1.5284 -1.3088
68276SOL    HW216554   6.747   8.928   6.713 -0.9364  0.9788  1.0027
68277SOL     OW16555  13.708  12.492   9.734  0.1675 -0.0561  0.2422
68277SOL    HW116556  13.755  12.494   9.818 -1.2464  1.9845  1.0603
68277SOL    HW216557  13.617  12.476   9.757 -0.2542  0.5605 -0.8967
68278SOL     OW16558   7.936   1.920   1.814 -0.3004  0.5183  0.5004
68278SOL    HW116559   8.022   1.962   1.812 -0.5709  1.0694 -0.7104
68278SOL    HW216560   7.951   1.836   1.858  1.2903 -0.2716 -1.3765
68279SOL     OW16561   0.168   5.052   3.001 -0.5595  0.1140 -0.5290
68279SOL    HW116562   0.239   5.068   2.939  0.0953  0.9784  0.4127
68279SOL    HW216563   0.105   5.123   2.984 -0.1116  0.6894  0.1530
68280SOL     OW16564  13.623   5.506   7.562 -0.0711 -0.9891 -0.0782
68280SOL    HW116565  13.560   5.579   7.558  0.4359 -0.5710 -0.7239
68280SOL    HW216566  13.602   5.460   7.643  0.2571  0.4837  0.8785
68281SOL     OW16567  12.759   5.437  11.865  0.6533  0.6403 -0.1737
68281SOL    HW116568  12.811   5.453  11.944  4.2908 -1.5388 -1.8395
68281SOL    HW216569  12.695   5.371  11.891  1.0834  0.7168  1.1710
68282SOL     OW16570   5.873   5.804   2.693 -0.2041 -0.4054 -0.2308
68282SOL    HW116571   5.896   5.844   2.609 -0.1331 -1.8708 -0.9368
68282SOL    HW216572   5.947   5.746   2.712 -0.4105 -0.3829  0.6453
68283SOL     OW16573   2.637   4.370   5.910 -0.0206  0.1106  0.1716
68283SOL    HW116574   2.630   4.297   5.971 -2.1857  0.6330  0.6265
68283SOL    HW216575   2.634   4.448   5.966  0.0555  0.5708 -0.4560
68284SOL     OW16576   0.514   1.711   2.615  0.2229 -0.2870 -0.3219
68284SOL    HW116577   0.598   1.758   2.611 -0.9693  2.3259  2.3711
68284SOL    HW216578   0.451   1.772   2.578 -0.8731 -1.2502 -0.0799
68285SOL     OW16579  13.373   2.333  12.703  0.1128  0.2662  0.7195
68285SOL    HW116580  13.291   2.380  12.690  0.6499  0.3932 -3.6237
68285SOL    HW216581  13.430   2.396  12.748 -0.8717  1.7915 -0.0928
68286SOL     OW16582   2.503   0.586  12.082  0.0106  0.8339 -0.4559
68286SOL    HW116583   2.581   0.575  12.137 -1.8116  0.5591  2.2828
68286SOL    HW216584   2.537   0.589  11.992  3.1054  0.4166  0.5776
68287SOL     OW16585   6.900   0.856   0.398  0.0149 -0.2805 -0.0896
68287SOL    HW116586   6.893   0.899   0.484  1.5195  2.6076 -1.2636
68287SOL    HW216587   6.951   0.777   0.415  0.1366  0.1316  1.7104
68288SOL     OW16588   6.982   9.888   2.121 -0.9100 -0.2396  0.3461
68288SOL    HW116589   7.037   9.814   2.148 -1.2348 -0.2404  1.0463
68288SOL    HW216590   6.914   9.893   2.189  0.9181  2.6982  2.1789
68289SOL     OW16591   7.198   4.010   6.034 -0.5512 -0.0822 -0.0924
68289SOL    HW116592   7.276   4.063   6.048 -0.0376 -0.7181 -0.5133
68289SOL    HW216593   7.211   3.931   6.087 -0.8304 -0.2647 -0.2859
68290SOL     OW16594   4.199   4.695  10.313  0.5597  0.3955  0.0788
68290SOL    HW116595   4.169   4.608  10.339  1.0795  0.4916  1.0598
68290SOL    HW216596   4.275   4.679  10.258 -1.6265  0.1166 -3.1215
68291SOL     OW16597   1.046   3.729   3.028 -0.1112 -0.0014 -0.2803
68291SOL    HW116598   1.045   3.661   3.096  0.6420  0.3747  0.1165
68291SOL    HW216599   0.977   3.790   3.054  0.4862  0.3917  0.4183
68292SOL     OW16600  12.928   4.812   1.729 -0.2520 -0.2109 -0.0020
68292SOL    HW116601  12.937   4.907   1.721  0.0294 -0.2891 -0.7110
68292SOL    HW216602  13.018   4.779   1.730 -0.3485 -0.5534 -1.0486
68293SOL     OW16603   9.357   4.390   7.118  0.0450  0.2825  0.1160
68293SOL    HW116604   9.269   4.399   7.155  0.3427 -0.0297  0.9345
68293SOL    HW216605   9.386   4.303   7.146  2.0959  1.7732  3.2716
68294SOL     OW16606   2.533   6.393   5.018  0.7169 -0.7846 -0.5996
68294SOL    HW116607   2.548   6.486   5.033  0.6558 -1.1753  2.5118
68294SOL    HW216608   2.442   6.388   4.990 -0.2606 -0.0285  2.1157
68295SOL     OW16609   3.050   3.319   8.052  0.0357 -0.2147  0.2810
68295SOL    HW116610   3.101   3.238   8.052 -0.1602 -0.4304 -2.5685
68295SOL    HW216611   3.017   3.326   8.142  2.7857 -1.4819  1.5383
68296SOL     OW16612   6.186   9.777   2.355  0.4032 -0.0235 -0.4065
68296SOL    HW116613   6.208   9.767   2.262  3.0258  2.7540 -0.2352
68296SOL    HW216614   6.258   9.735   2.401 -0.6615 -0.9979  0.4124
68297SOL     OW16615   4.245   8.549   1.791 -0.1138  0.8429 -0.3280
68297SOL    HW116616   4.326   8.513   1.754 -0.4542  1.0592 -1.3290
68297SOL    HW216617   4.254   8.643   1.780 -0.5676  0.8570 -0.5958
68298SOL     OW16618   5.308   1.950   3.134  0.3559  0.1031  0.0488
68298SOL    HW116619   5.276   1.885   3.070  1.9227 -0.7723  0.0936
68298SOL    HW216620   5.396   1.972   3.103  0.1624  1.6220  0.5075
68299SOL     OW16621  10.032   9.677   2.602 -0.3969 -0.1192  0.6742
68299SOL    HW116622  10.091   9.740   2.643  0.6378 -1.1425  0.8046
68299SOL    HW216623   9.952   9.726   2.585  0.4231  1.2537  0.6763
68300SOL     OW16624   1.051  12.281   8.350  0.3631 -0.5651  0.0832
68300SOL    HW116625   1.136  12.303   8.312  0.0852 -0.5832 -0.5487
68300SOL    HW216626   1.046  12.335   8.430  0.7764 -0.2344 -0.1111
68301SOL     OW16627  11.418   3.232   9.280  0.3622 -0.1042 -0.3266
68301SOL    HW116628  11.453   3.213   9.367  1.7562 -1.9125 -1.2097
68301SOL    HW216629  11.441   3.323   9.264  0.6739  0.0500  0.9238
68302SOL     OW16630  10.301   6.985   2.678  0.6904  0.2607 -0.1911
68302SOL    HW116631  10.342   7.005   2.762  0.3444  0.8369 -0.1472
68302SOL    HW216632  10.223   7.042   2.676  0.4529 -0.0779 -0.7033
68303SOL     OW16633  13.682  11.604   6.129  0.2020  1.0383 -0.1101
68303SOL    HW116634  13.593  11.621   6.098 -0.9127  0.9588  2.7190
68303SOL    HW216635  13.670  11.548   6.206  2.8021  0.0372 -0.3272
68304SOL     OW16636  10.959   1.672   8.004  0.1713  0.1076  0.0176
68304SOL    HW116637  11.032   1.734   8.002 -0.2041  0.6239  1.3081
68304SOL    HW216638  10.978   1.610   7.934  0.6002  1.6271 -1.2688
68305SOL     OW16639  12.603   4.513  10.804 -0.2339 -0.2675  0.4285
68305SOL    HW116640  12.578   4.596  10.763  1.1991  0.4179  0.8962
68305SOL    HW216641  12.651   4.466  10.737  0.3647 -0.0107  0.6719
68306SOL     OW16642  10.574   5.935   8.157 -0.5276  0.1259  0.3544
68306SOL    HW116643  10.629   5.930   8.079  0.3187  0.8226  0.8777
68306SOL    HW216644  10.634   5.914   8.229 -1.1311  0.1604  0.8693
68307SOL     OW16645   5.299   2.414   5.326 -0.1909  0.1919 -0.3814
68307SOL    HW116646   5.367   2.360   5.366  0.5657 -0.1896 -2.0813
68307SOL    HW216647   5.336   2.438   5.241 -0.5945  3.1703  0.1803
68308SOL     OW16648   7.686  12.114   1.916 -0.1864 -0.2019  0.1316
68308SOL    HW116649   7.677  12.205   1.946  0.2512 -0.0890 -0.0761
68308SOL    HW216650   7.677  12.062   1.996 -0.9670 -0.0118  0.1812
68309SOL     OW16651  12.822  13.504   0.505 -0.0739 -0.4043 -0.7700
68309SOL    HW116652  12.811  13.413   0.477 -1.8672 -0.2967 -0.4961
68309SOL    HW216653  12.842  13.551   0.424 -2.3654 -0.5472 -1.4760
68310SOL     OW16654  11.413   9.065  11.761  0.2016 -0.5187  0.1302
68310SOL    HW116655  11.410   9.151  11.720  2.1336  0.9458  2.7528
68310SOL    HW216656  11.327   9.027  11.744 -0.6742  1.8776 -1.2224
68311SOL     OW16657   3.717   9.084   3.425 -0.1339  0.0250 -0.0998
68311SOL    HW116658   3.780   9.105   3.494  0.5825 -0.8924 -0.4641
68311SOL    HW216659   3.755   9.010   3.379 -1.8316 -1.0736  0.1522
68312SOL     OW16660   3.480   1.927  12.212 -0.2696 -0.0636  0.3585
68312SOL    HW116661   3.573   1.905  12.215 -0.1771 -0.4841 -2.3842
68312SOL    HW216662   3.438   1.861  12.267  0.8796 -1.3007 -0.1796
68313SOL     OW16663   0.999  12.657  10.547 -0.3859 -0.1688 -0.0456
68313SOL    HW116664   0.977  12.750  10.537  0.2673  0.1774  1.5032
68313SOL    HW216665   0.923  12.619  10.592  0.1701  0.0477  1.1023
68314SOL     OW16666  11.736   8.274   8.638  0.1559 -0.8327  0.3108
68314SOL    HW116667  11.686   8.309   8.564 -0.4274 -2.5252 -0.1247
68314SOL    HW216668  11.671   8.253   8.705  0.7186  1.2223  1.6098
68315SOL     OW16669   4.067   2.745   0.659 -0.7968  0.2462  0.6764
68315SOL    HW116670   4.087   2.836   0.641  1.3075 -0.2588  0.1549
68315SOL    HW216671   4.117   2.696   0.594 -2.1790 -1.2818  0.6965
68316SOL     OW16672   2.810   5.236  13.435  0.3164 -0.4233  0.3391
68316SOL    HW116673   2.726   5.189  13.439  1.7511 -3.2481  0.0773
68316SOL    HW216674   2.836   5.229  13.343  0.0987  1.9888  0.0364
68317SOL     OW16675   0.254   2.371  10.408  0.2462  0.1462 -0.3362
68317SOL    HW116676   0.306   2.351  10.486  0.7129  0.1216 -0.6457
68317SOL    HW216677   0.175   2.413  10.442 -0.2263 -1.1604  0.2531
68318SOL     OW16678   5.047   7.017   8.727 -0.3357  0.4143 -0.1702
68318SOL    HW116679   5.135   6.983   8.741 -1.1461 -2.1630 -0.7813
68318SOL    HW216680   5.009   7.022   8.815 -0.8131 -2.2733 -0.1475
68319SOL     OW16681  11.928   6.083   6.334 -0.2389  0.0470  0.0703
68319SOL    HW116682  11.996   6.021   6.308  0.5889  0.3260  1.4281
68319SOL    HW216683  11.944   6.160   6.279 -1.5377 -1.0365 -1.9204
68320SOL     OW16684   3.982  11.739   7.623  0.1710 -0.0291 -0.2602
68320SOL    HW116685   4.002  11.812   7.681 -1.9317  0.5406 -0.1829
68320SOL    HW216686   3.935  11.676   7.678 -3.7365  1.4262 -1.6220
68321SOL     OW16687  10.610  12.670   7.992  0.0985 -0.1323  0.1753
68321SOL    HW116688  10.685  12.656   7.934  0.2350  1.6098 -0.1219
68321SOL    HW216689  10.534  12.641   7.940  0.4938 -1.4722  0.3090
68322SOL     OW16690  11.317   1.652   9.671  0.2575  0.3018 -0.0366
68322SOL    HW116691  11.340   1.559   9.671  1.0292  0.4868 -0.1641
68322SOL    HW216692  11.347   1.684   9.756 -0.1757  0.3924  0.0806
68323SOL     OW16693  10.140   9.221  10.178 -0.5286 -0.4284 -0.2539
68323SOL    HW116694  10.134   9.314  10.159  2.4999  0.0323  0.4810
68323SOL    HW216695  10.120   9.214  10.272  0.5235 -0.2930 -0.0076
68324SOL     OW16696   0.988   0.597   2.696 -0.4368 -0.3564 -0.3619
68324SOL    HW116697   0.929   0.573   2.624 -0.7569 -0.0163 -0.2126
68324SOL    HW216698   0.948   0.558   2.774 -1.3306  1.1875 -0.0019
68325SOL     OW16699   3.047   0.829   9.829  0.1634  0.1369 -0.1729
68325SOL    HW116700   2.998   0.815   9.748  0.2081 -2.0397  0.1214
68325SOL    HW216701   3.134   0.854   9.799  0.7472 -2.4866 -0.9364
68326SOL     OW16702   2.465   6.010  12.115 -0.0930  0.5771 -0.0004
68326SOL    HW116703   2.454   6.053  12.200  2.4115 -2.1250  1.9107
68326SOL    HW216704   2.398   5.942  12.114  1.5574 -1.2043  1.2604
68327SOL     OW16705  13.108   1.759   1.876  0.1947 -0.1676  0.9190
68327SOL    HW116706  13.073   1.797   1.956 -0.9916  1.0801 -0.1598
68327SOL    HW216707  13.086   1.666   1.883  1.2545 -0.3530  2.5988
68328SOL     OW16708  10.019   8.337  10.257  0.0355  0.2781  0.4115
68328SOL    HW116709   9.986   8.251  10.283 -1.4751  1.1300  1.5059
68328SOL    HW216710  10.110   8.337  10.285  0.7131 -1.6858 -1.4941
68329SOL     OW16711  12.264   1.939   8.180 -0.1233  0.4796 -0.6232
68329SOL    HW116712  12.343   1.923   8.232  0.3308 -0.7999 -1.6535
68329SOL    HW216713  12.288   2.012   8.122  0.0407  0.5910 -0.4182
68330SOL     OW16714  10.288  12.473   1.669  0.2640 -0.1854  0.4828
68330SOL    HW116715  10.196  12.497   1.660  0.0630 -1.2527 -0.6287
68330SOL    HW216716  10.327  12.498   1.585  0.7228 -0.7999  0.5087
68331SOL     OW16717   4.601   3.834  12.302  0.4646 -0.2607  0.8317
68331SOL    HW116718   4.543   3.860  12.230  1.6596  2.6909  0.7866
68331SOL    HW216719   4.654   3.763  12.266  0.8449  0.9580 -1.1892
68332SOL     OW16720   0.736   8.461  11.549 -0.0154  0.2252  0.0249
68332SOL    HW116721   0.679   8.390  11.580  1.1282 -0.4138  0.7091
68332SOL    HW216722   0.772   8.500  11.628 -1.0490  1.9743 -0.3093
68333SOL     OW16723   2.550  10.806   3.640  0.1286  0.3070  0.3465
68333SOL    HW116724   2.469  10.819   3.590 -0.6075 -0.6192  1.2450
68333SOL    HW216725   2.557  10.886   3.693 -0.9305 -0.1295  1.2052
68334SOL     OW16726   9.019  11.887   4.863  0.1329  0.8080 -0.3882
68334SOL    HW116727   9.064  11.926   4.938  0.0246 -0.8983  0.6176
68334SOL    HW216728   9.082  11.822   4.829 -1.3431 -1.3656  0.8201
68335SOL     OW16729   4.669   3.289   1.368 -0.1400  0.7489  0.1308
68335SOL    HW116730   4.716   3.360   1.411 -0.5293  0.9018  0.3107
68335SOL    HW216731   4.579   3.320   1.363 -0.1065  0.7221 -0.7771
68336SOL     OW16732   4.011   1.142  13.713 -0.2924 -0.2766 -0.5526
68336SOL    HW116733   4.073   1.171  13.781  0.3689  0.4459 -1.4371
68336SOL    HW216734   3.992   1.051  13.735  1.1616 -0.5434 -0.3085
68337SOL     OW16735   2.318  12.683   1.007 -0.0049 -0.5394 -0.8487
68337SOL    HW116736   2.317  12.694   1.102 -1.3433 -4.1729 -0.2932
68337SOL    HW216737   2.297  12.770   0.973 -1.8310  0.3946  2.2346
68338SOL     OW16738  10.132   6.377   3.435 -0.1232 -0.2703 -0.1890
68338SOL    HW116739  10.152   6.284   3.445 -0.7341 -0.3199  0.5526
68338SOL    HW216740  10.165   6.418   3.515  0.6283  0.2389 -0.7423
68339SOL     OW16741  10.519   3.156  12.526  0.1310 -0.1092 -0.1708
68339SOL    HW116742  10.529   3.242  12.566 -0.1248 -0.4435  0.6229
68339SOL    HW216743  10.493   3.175  12.436  0.2606  0.6444 -0.0593
68340SOL     OW16744  11.227   1.579   0.326 -0.1827 -0.2096 -0.7729
68340SOL    HW116745  11.135   1.561   0.307 -0.2313 -0.3712 -0.3922
68340SOL    HW216746  11.225   1.660   0.377  0.1466  2.0385 -3.9798
68341SOL     OW16747   7.197   8.788  12.043 -0.3564 -0.1258  0.2328
68341SOL    HW116748   7.139   8.863  12.028  0.4009  0.2922 -0.7389
68341SOL    HW216749   7.285   8.823  12.028 -0.0489 -1.4120 -1.1232
68342SOL     OW16750   2.196   2.569   3.752  0.2776  0.0673 -0.1465
68342SOL    HW116751   2.153   2.489   3.783  1.1287 -0.2430  0.2700
68342SOL    HW216752   2.127   2.635   3.752 -0.4495 -0.6741 -0.5442
68343SOL     OW16753   8.801   0.880   6.759 -0.5734  0.3874  0.1805
68343SOL    HW116754   8.763   0.957   6.716  1.0991  0.7952 -0.6515
68343SOL    HW216755   8.863   0.916   6.822  1.2441 -0.2452 -1.1815
68344SOL     OW16756   7.171   6.966  13.120 -0.3333  0.2485 -0.0289
68344SOL    HW116757   7.204   7.023  13.189 -0.7328  0.4664 -0.0144
68344SOL    HW216758   7.248   6.948  13.065  0.3231 -1.0968  1.2461
68345SOL     OW16759   6.349   5.306   0.022 -0.3475  0.2839  0.0737
68345SOL    HW116760   6.334   5.327   0.114 -0.0920 -1.4318  0.5564
68345SOL    HW216761   6.430   5.351   0.000 -0.3716  0.6545  0.7154
68346SOL     OW16762   6.695   7.128   5.882  0.6447  0.0472 -0.3725
68346SOL    HW116763   6.746   7.059   5.925 -0.4281 -0.1757  0.5911
68346SOL    HW216764   6.691   7.199   5.946 -0.8053 -0.2105 -0.1258
68347SOL     OW16765   1.819   6.732   0.061  0.0972 -0.1094  0.2786
68347SOL    HW116766   1.739   6.779   0.038  1.2953  1.4068 -0.9758
68347SOL    HW216767   1.788   6.653   0.105 -2.0790  0.4467 -0.1302
68348SOL     OW16768   0.803   6.939   0.294  0.1077 -0.5804  0.4271
68348SOL    HW116769   0.723   6.943   0.242  0.9786  0.3554 -0.9035
68348SOL    HW216770   0.812   6.846   0.317  0.0425 -1.1495 -1.6959
68349SOL     OW16771   1.869   4.742  10.893 -0.3294 -0.5783 -0.1463
68349SOL    HW116772   1.881   4.836  10.881 -3.4395  0.2376  1.9786
68349SOL    HW216773   1.935   4.717  10.958  2.3991 -0.6479 -2.6702
68350SOL     OW16774   4.348   2.483  12.476 -0.3585 -0.2584  0.3091
68350SOL    HW116775   4.295   2.489  12.555 -2.9055  1.2220 -1.3692
68350SOL    HW216776   4.308   2.412  12.425 -0.4083  0.4956 -0.7383
68351SOL     OW16777   6.580   9.661   2.148  0.3747 -0.5413 -0.6743
68351SOL    HW116778   6.499   9.699   2.183  0.9188  0.0816 -0.0554
68351SOL    HW216779   6.649   9.719   2.180  1.1619 -1.6344 -0.3330
68352SOL     OW16780   6.199   7.499  12.005  0.2428  0.1836  0.0154
68352SOL    HW116781   6.150   7.441  12.064  2.5287 -2.0622 -0.1595
68352SOL    HW216782   6.145   7.504  11.926 -0.6535 -0.5715  0.5614
68353SOL     OW16783   6.858  12.858   9.732 -0.0317 -0.2899 -0.2073
68353SOL    HW116784   6.934  12.905   9.697  0.1825 -0.1331  0.4474
68353SOL    HW216785   6.785  12.919   9.720  0.0998 -0.1084 -0.0930
68354SOL     OW16786  11.233  11.421   6.089 -0.0285 -0.1732  0.6277
68354SOL    HW116787  11.251  11.454   6.001 -1.5208 -0.7986  0.0576
68354SOL    HW216788  11.222  11.327   6.078  1.5553 -0.5447  1.8121
68355SOL     OW16789   7.557  11.820   3.717 -0.7785  0.6968  0.2474
68355SOL    HW116790   7.589  11.858   3.635 -0.2772  1.2565  0.6989
68355SOL    HW216791   7.467  11.850   3.724 -0.6970  0.9759  0.1009
68356SOL     OW16792  13.341   8.690  12.493  0.2695  0.0096  0.2897
68356SOL    HW116793  13.309   8.731  12.573 -0.2932  1.3482 -0.5842
68356SOL    HW216794  13.261   8.673  12.442  0.5116 -1.9382  0.4933
68357SOL     OW16795   2.291  11.914   9.258  0.2264  0.3738 -0.0859
68357SOL    HW116796   2.251  11.904   9.345  0.3825  1.1878  0.0862
68357SOL    HW216797   2.371  11.862   9.263  0.9969  1.5892  0.7683
68358SOL     OW16798   9.787   5.517   9.164  0.2947  0.6719  0.0958
68358SOL    HW116799   9.771   5.452   9.233  0.2823  0.3521 -0.2052
68358SOL    HW216800   9.734   5.592   9.189 -0.7859  0.0585 -0.2784
68359SOL     OW16801  12.880  10.757   8.151  0.4904 -0.1528  0.0508
68359SOL    HW116802  12.830  10.808   8.215 -0.1985 -0.0694 -0.5463
68359SOL    HW216803  12.923  10.823   8.097 -1.2875 -0.1184 -1.4367
68360SOL     OW16804   0.087   4.239   2.185 -0.0866 -0.0492 -0.1854
68360SOL    HW116805   0.015   4.224   2.246 -0.3316  1.7877  0.0229
68360SOL    HW216806   0.127   4.321   2.213  3.6391 -2.0588  1.1535
68361SOL     OW16807   6.039   9.756   0.972 -0.1393  0.2903  0.2723
68361SOL    HW116808   6.064   9.807   0.895  0.8165  0.1039  0.4444
68361SOL    HW216809   6.005   9.674   0.935 -1.2713  0.8522  0.0123
68362SOL     OW16810  12.953   0.261   8.427  0.2624  0.1735 -0.1847
68362SOL    HW116811  12.963   0.207   8.349 -0.6187  2.5868 -2.1104
68362SOL    HW216812  12.862   0.247   8.455  0.4277 -0.3123  0.1144
68363SOL     OW16813   4.121   1.324   1.222 -0.3966 -0.0981  0.4047
68363SOL    HW116814   4.108   1.397   1.162 -0.9434 -0.9412 -0.5423
68363SOL    HW216815   4.148   1.364   1.304 -0.2344  1.1280 -0.2301
68364SOL     OW16816  13.489   7.060   4.900  0.0982  0.2778  0.2985
68364SOL    HW116817  13.488   7.059   4.996 -0.4615 -0.0064  0.2929
68364SOL    HW216818  13.409   7.014   4.875  0.0990  0.6011 -0.3052
68365SOL     OW16819   9.578   4.847   5.001 -0.2695 -0.0026 -0.3754
68365SOL    HW116820   9.583   4.941   4.984  0.5325 -0.0950 -0.6765
68365SOL    HW216821   9.592   4.806   4.915  0.7034 -0.4193 -0.0261
68366SOL     OW16822   8.108   6.940   0.875  0.3046 -0.1753 -0.3058
68366SOL    HW116823   8.097   6.847   0.854  0.5264 -0.1968 -0.3344
68366SOL    HW216824   8.179   6.941   0.940 -0.5734 -0.1375  0.6810
68367SOL     OW16825   3.317   4.989   1.113 -0.0539  0.1251 -0.5374
68367SOL    HW116826   3.345   5.072   1.076 -0.9797  0.6575 -0.0829
68367SOL    HW216827   3.355   4.988   1.201 -1.9519  1.1684  0.3439
68368SOL     OW16828   5.229   1.336   6.819 -0.6614 -0.0674 -0.5555
68368SOL    HW116829   5.227   1.244   6.794  0.5019 -0.5959  1.1581
68368SOL    HW216830   5.140   1.367   6.803 -0.9390 -1.3311 -1.6422
68369SOL     OW16831  12.692  11.801   4.086 -0.0007 -0.3050 -0.0804
68369SOL    HW116832  12.680  11.883   4.038  1.3647 -0.0405 -0.0278
68369SOL    HW216833  12.612  11.790   4.137 -1.6257 -0.7076 -2.5525
68370SOL     OW16834   2.738  13.248  10.413  0.5612  0.1738  0.1014
68370SOL    HW116835   2.782  13.297  10.344 -0.0117  1.5451  0.6806
68370SOL    HW216836   2.751  13.300  10.492 -1.3768  0.2229  0.4437
68371SOL     OW16837  11.440   5.809  12.961 -0.0186 -0.5490  0.6714
68371SOL    HW116838  11.346   5.828  12.960  0.3302  1.9187 -2.4126
68371SOL    HW216839  11.481   5.893  12.985  1.4164 -0.9981 -0.0738
68372SOL     OW16840  11.622   0.773   8.429 -0.6327 -0.0265  0.1044
68372SOL    HW116841  11.657   0.686   8.408  4.5554  1.4991  0.8380
68372SOL    HW216842  11.639   0.783   8.522 -1.6362  1.5905  0.1412
68373SOL     OW16843   3.230   3.686   0.899 -0.4527  0.1793  0.0122
68373SOL    HW116844   3.262   3.734   0.823  0.7718  1.8256  1.4900
68373SOL    HW216845   3.293   3.706   0.969 -0.3047 -2.9975  0.9468
68374SOL     OW16846  10.574   4.613  12.125 -0.2926 -0.7839  0.5159
68374SOL    HW116847  10.508   4.657  12.179  1.8016  0.1888  2.4453
68374SOL    HW216848  10.545   4.522  12.122 -1.3657 -0.5323  1.9491
68375SOL     OW16849   8.805   6.985   9.650  0.2901  0.2740  0.3870
68375SOL    HW116850   8.821   7.073   9.616  2.0365  0.5193  1.6998
68375SOL    HW216851   8.777   6.999   9.740 -1.9644 -0.4535 -0.1436
68376SOL     OW16852  12.108   6.740   0.340 -0.0683  0.3071 -0.5368
68376SOL    HW116853  12.147   6.822   0.370  0.9753 -0.4069  0.1131
68376SOL    HW216854  12.019   6.742   0.375 -0.0726  1.1751 -0.5713
68377SOL     OW16855  13.351   9.119   2.560 -0.6112  0.6938 -0.2335
68377SOL    HW116856  13.410   9.160   2.498  1.5486 -0.8693  0.6938
68377SOL    HW216857  13.337   9.186   2.628 -1.6645  1.8016 -1.4762
68378SOL     OW16858   5.479   8.252   5.924  0.1156 -0.2966  0.2063
68378SOL    HW116859   5.431   8.308   5.986 -0.8568  2.3140 -2.6134
68378SOL    HW216860   5.569   8.284   5.928 -0.2924  1.0964 -0.8708
68379SOL     OW16861   5.855   2.574   7.503 -0.1254 -0.1738  0.0692
68379SOL    HW116862   5.848   2.519   7.425  0.8245  1.5026 -1.2721
68379SOL    HW216863   5.783   2.545   7.559  0.6352 -3.1058 -0.3009
68380SOL     OW16864   2.040  13.054   7.309 -0.2899  0.1215 -0.7620
68380SOL    HW116865   1.951  13.036   7.280 -0.5193  1.3690 -0.8710
68380SOL    HW216866   2.070  12.971   7.346 -0.3964 -1.2244 -3.4597
68381SOL     OW16867   2.337  10.089  10.487 -0.6612  0.0703 -0.0221
68381SOL    HW116868   2.328  10.175  10.529 -2.9191  0.7129 -1.6819
68381SOL    HW216869   2.313  10.026  10.556 -1.0417  0.8862  0.6047
68382SOL     OW16870  12.359   9.652   7.308  0.2396 -0.0061 -0.2251
68382SOL    HW116871  12.348   9.571   7.358  0.8528  0.1680  0.1994
68382SOL    HW216872  12.374   9.719   7.374 -1.5204  0.7024 -0.4810
68383SOL     OW16873  11.993   3.660  13.376  0.1705  0.1814  0.5623
68383SOL    HW116874  11.905   3.624  13.389 -1.3324  3.1583 -0.4904
68383SOL    HW216875  12.019   3.629  13.290 -0.2344  0.0099  0.4961
68384SOL     OW16876  10.207  11.371  13.396 -0.4997  0.7166 -0.4525
68384SOL    HW116877  10.288  11.372  13.345 -0.7033  0.7497 -0.7769
68384SOL    HW216878  10.223  11.308  13.467 -0.1715  0.7663 -0.4830
68385SOL     OW16879   1.005  11.323   6.678  0.3809  0.0989  0.4119
68385SOL    HW116880   0.938  11.364   6.623  1.3529  1.1934 -0.0173
68385SOL    HW216881   0.956  11.271   6.741 -0.8353  0.1849 -0.4145
68386SOL     OW16882   4.366   9.130   2.411  0.0288  0.3409 -0.3135
68386SOL    HW116883   4.282   9.128   2.456  0.6357  0.8787  0.8809
68386SOL    HW216884   4.409   9.048   2.436  0.9982  1.3253  1.3829
68387SOL     OW16885   1.418  13.217   3.900  0.2376  0.1645  0.5038
68387SOL    HW116886   1.326  13.195   3.883  0.2690  1.6631 -2.2470
68387SOL    HW216887   1.460  13.134   3.920 -1.2021 -0.9967 -1.0767
68388SOL     OW16888   2.855  12.056   1.989  0.0284 -0.1834  0.3180
68388SOL    HW116889   2.942  12.014   1.986 -0.2357 -0.8224  1.0978
68388SOL    HW216890   2.831  12.053   2.082 -0.5421  0.6014  0.2012
68389SOL     OW16891  13.538  11.557   3.115 -0.2318  0.0955 -0.4974
68389SOL    HW116892  13.495  11.618   3.055  0.5608  1.8756  0.6255
68389SOL    HW216893  13.594  11.613   3.169 -1.6866 -1.2182  2.6039
68390SOL     OW16894   8.336   8.723   5.261  0.3143 -0.3805 -0.1665
68390SOL    HW116895   8.340   8.639   5.307  1.9600 -0.1219  0.2121
68390SOL    HW216896   8.366   8.702   5.172  1.7853 -0.0031  0.2329
68391SOL     OW16897   6.668  12.541  12.963  0.2060  0.1006 -0.2928
68391SOL    HW116898   6.665  12.459  13.013 -1.1389 -0.4698 -1.2444
68391SOL    HW216899   6.694  12.514  12.875  2.2636  1.0551 -0.0199
68392SOL     OW16900  12.460  10.461  13.599  0.3348  0.5391 -0.0474
68392SOL    HW116901  12.447  10.495  13.510 -0.3851 -0.7882 -0.4824
68392SOL    HW216902  12.371  10.442  13.630  0.5996  0.7529  0.8788
68393SOL     OW16903   4.026   9.474   9.730  0.2967 -0.0115  0.8105
68393SOL    HW116904   3.943   9.517   9.714  1.0449  2.0341  2.0774
68393SOL    HW216905   4.023   9.395   9.676 -2.4990 -0.0818  0.9462
68394SOL     OW16906   2.737   1.122   1.363  0.0342 -0.0639 -0.5768
68394SOL    HW116907   2.829   1.145   1.376 -0.5626  1.3252  1.9574
68394SOL    HW216908   2.729   1.033   1.396  0.2841  0.2384  0.3318
68395SOL     OW16909   3.620   9.633   8.755 -0.1692  0.7185 -0.2841
68395SOL    HW116910   3.527   9.630   8.779 -0.2181  0.2704 -0.4986
68395SOL    HW216911   3.666   9.605   8.834 -0.1834  1.3874 -0.0335
68396SOL     OW16912   2.277   9.314  11.615 -0.0400  0.0081  0.2805
68396SOL    HW116913   2.215   9.247  11.646  0.0463 -0.3636 -0.3343
68396SOL    HW216914   2.361   9.286  11.651 -0.2327  0.5808  1.2206
68397SOL     OW16915   0.924  13.500   2.528 -0.2748 -0.1059  0.1555
68397SOL    HW116916   0.917  13.414   2.486 -0.1877  0.0145 -0.1126
68397SOL    HW216917   0.972  13.484   2.609 -2.0428 -0.6357  1.1285
68398SOL     OW16918   7.661  10.819   4.058 -0.2772  0.1050  0.2431
68398SOL    HW116919   7.639  10.877   3.985 -0.6442  2.0760  1.8111
68398SOL    HW216920   7.753  10.797   4.044 -0.5186 -0.1035 -1.1477
68399SOL     OW16921   4.561   2.132   5.098 -0.2538  0.2477 -0.0041
68399SOL    HW116922   4.552   2.150   5.192  0.7001 -2.1313  0.6042
68399SOL    HW216923   4.471   2.132   5.066 -0.5141  3.1006  0.4049
68400SOL     OW16924  12.150   7.575   8.548 -0.7621  0.1188 -0.5079
68400SOL    HW116925  12.148   7.487   8.511 -1.0920 -0.1012  0.0070
68400SOL    HW216926  12.059   7.605   8.543 -0.4557  0.9030 -1.7564
68401SOL     OW16927   5.227  11.193  11.120 -0.3198  0.3929  0.2523
68401SOL    HW116928   5.277  11.225  11.045  0.7251 -1.5060  0.0874
68401SOL    HW216929   5.211  11.272  11.173  1.5168  1.3150 -0.4615
68402SOL     OW16930   8.523  10.716   4.295  0.1456 -0.4413 -0.4005
68402SOL    HW116931   8.478  10.709   4.379  2.5491 -0.0910  1.0032
68402SOL    HW216932   8.478  10.787   4.249 -1.4811 -0.9335  0.3933
68403SOL     OW16933  11.726  11.798   1.567 -0.1062  0.2601 -0.1274
68403SOL    HW116934  11.806  11.844   1.544 -0.2980  0.6410 -0.0388
68403SOL    HW216935  11.731  11.716   1.519  0.2777  0.3360 -0.2188
68404SOL     OW16936   5.225   8.237   8.776  0.1972 -0.1104  0.0129
68404SOL    HW116937   5.213   8.314   8.721 -0.4550  0.7595  1.3270
68404SOL    HW216938   5.320   8.222   8.776  0.2824  0.3830 -0.6571
68405SOL     OW16939   0.168   3.793   3.415  0.2225 -0.1656 -0.1366
68405SOL    HW116940   0.181   3.801   3.510  0.2681 -1.0094 -0.0664
68405SOL    HW216941   0.080   3.755   3.406  0.3127 -0.3092 -0.4230
68406SOL     OW16942   9.052   9.210  10.901  0.1724 -0.3211  1.0017
68406SOL    HW116943   9.118   9.248  10.960  1.4061 -0.5756 -0.1647
68406SOL    HW216944   9.091   9.218  10.814 -0.7268 -1.7889  0.4398
68407SOL     OW16945  12.303  10.480   0.479 -0.0763  0.3870 -0.1506
68407SOL    HW116946  12.258  10.537   0.416  0.5001 -0.2436 -1.1654
68407SOL    HW216947  12.312  10.397   0.433 -0.3631 -0.3435  1.0886
68408SOL     OW16948   1.948   1.118   0.954 -0.1021  0.7202 -0.2580
68408SOL    HW116949   1.901   1.200   0.973 -0.0984  0.4206  1.1233
68408SOL    HW216950   1.976   1.086   1.040  1.0967 -0.0263 -0.9058
68409SOL     OW16951   3.491   9.248  12.852  0.0204  0.0333 -0.1175
68409SOL    HW116952   3.513   9.254  12.945  2.1555 -1.7267 -0.4172
68409SOL    HW216953   3.458   9.335  12.829 -3.3652 -0.2372  2.8647
68410SOL     OW16954   3.341   6.626  10.893  0.5485 -0.6432 -0.0498
68410SOL    HW116955   3.369   6.696  10.834  0.5666  0.7821  1.5860
68410SOL    HW216956   3.247   6.641  10.905  0.6642 -0.5553  0.7568
68411SOL     OW16957   7.479   7.489   5.144  0.4397  0.1452 -0.2474
68411SOL    HW116958   7.384   7.476   5.139  0.5969 -1.4311  0.2685
68411SOL    HW216959   7.490   7.560   5.207 -0.3360 -2.6563  3.3844
68412SOL     OW16960   4.117  11.509   4.803  0.6593 -0.1151 -0.3675
68412SOL    HW116961   4.162  11.434   4.843  0.4680  0.2798  0.5965
68412SOL    HW216962   4.092  11.564   4.876  0.6125  0.8036 -1.0631
68413SOL     OW16963   6.581   1.458   3.453 -0.1701  0.4523 -0.0051
68413SOL    HW116964   6.566   1.468   3.359 -0.4155 -0.0191 -0.0212
68413SOL    HW216965   6.620   1.370   3.461  0.0150  0.5635  0.3156
68414SOL     OW16966  12.727   4.652   2.788  0.0270 -0.0197 -0.1651
68414SOL    HW116967  12.704   4.677   2.877 -0.6773  0.4968 -0.4859
68414SOL    HW216968  12.772   4.568   2.798 -0.4874 -0.2145  0.6334
68415SOL     OW16969  13.156   0.174   7.243  0.1978  0.0674  0.5746
68415SOL    HW116970  13.075   0.201   7.201  0.4760 -0.4202 -0.3082
68415SOL    HW216971  13.170   0.238   7.313 -1.0213  0.0656  0.8426
68416SOL     OW16972   3.648   9.418  11.772  0.8596 -0.0580 -0.5869
68416SOL    HW116973   3.615   9.499  11.812  1.4312 -0.5580  0.9464
68416SOL    HW216974   3.641   9.352  11.841  2.5509 -0.8006 -1.0703
68417SOL     OW16975   0.795   5.251   2.730 -0.1198 -0.1239  0.0066
68417SOL    HW116976   0.846   5.173   2.748  1.2059  1.0758  1.9184
68417SOL    HW216977   0.743   5.264   2.810  0.9653  1.8126  0.4780
68418SOL     OW16978   3.815   1.491  10.864  0.7126 -0.0724  0.2701
68418SOL    HW116979   3.882   1.444  10.814  1.1123  1.1599 -0.3867
68418SOL    HW216980   3.848   1.491  10.954  0.2996 -1.7489  0.4501
68419SOL     OW16981   9.128  10.973  11.017  0.0456  0.3242 -0.2449
68419SOL    HW116982   9.074  10.895  11.021  1.1125 -0.5175 -1.4319
68419SOL    HW216983   9.218  10.940  11.008  0.6623  1.6727  0.5952
68420SOL     OW16984   0.773   8.426   5.713 -0.1949  0.4077 -0.2433
68420SOL    HW116985   0.678   8.438   5.709 -0.3263  0.2397  1.6396
68420SOL    HW216986   0.785   8.337   5.743  0.5639  0.5603 -0.0734
68421SOL     OW16987   9.415   2.371  11.863 -0.0944 -0.5616 -0.4177
68421SOL    HW116988   9.332   2.331  11.889  0.3363 -2.5217 -1.8207
68421SOL    HW216989   9.474   2.297  11.848  1.3404  0.6980 -1.2987
68422SOL     OW16990   8.377   3.741  11.464 -0.0000 -0.0784  0.5652
68422SOL    HW116991   8.393   3.717  11.372 -0.4255 -0.4019  0.5747
68422SOL    HW216992   8.461   3.724  11.507  0.7457  1.7068 -0.0761
68423SOL     OW16993  13.614   0.630   4.664  0.6052 -0.4886  0.2200
68423SOL    HW116994  13.522   0.635   4.689  0.7260 -1.0074  0.7725
68423SOL    HW216995  13.650   0.715   4.690 -0.1279  0.4786 -1.7440
68424SOL     OW16996   5.707   8.823   9.741  0.2177  0.0518 -0.3230
68424SOL    HW116997   5.745   8.791   9.823  1.1918 -0.2891 -0.8851
68424SOL    HW216998   5.658   8.749   9.706 -0.8464  0.4391  0.3216
68425SOL     OW16999   2.105   3.083  10.263  0.6348  0.0140  0.0671
68425SOL    HW117000   2.174   3.146  10.286 -1.0688  1.6391  0.9755
68425SOL    HW217001   2.119   3.010  10.322  1.4425  0.4190  0.3975
68426SOL     OW17002   9.051  11.793   7.878  0.5846  0.2285  0.4272
68426SOL    HW117003   9.082  11.773   7.966 -0.2039 -1.4478  0.3611
68426SOL    HW217004   8.970  11.841   7.892  1.7129  2.2091  0.5808
68427SOL     OW17005   3.808   4.470   6.270 -0.8476 -0.5069  0.0754
68427SOL    HW117006   3.823   4.553   6.315  1.8596 -0.3454 -0.9601
68427SOL    HW217007   3.825   4.489   6.178  1.1887 -2.4345 -0.0363
68428SOL     OW17008   2.633  11.373   5.925  0.3924 -0.8295 -0.1915
68428SOL    HW117009   2.692  11.405   5.857 -1.3469 -1.0667 -1.9031
68428SOL    HW217010   2.591  11.295   5.887 -0.2965 -1.2532  1.3296
68429SOL     OW17011   8.318  10.173  11.968 -0.0159 -0.1840  0.0991
68429SOL    HW117012   8.313  10.153  12.062  0.9234  1.0354  0.4332
68429SOL    HW217013   8.382  10.112  11.934 -0.3537 -0.6277  0.2433
68430SOL     OW17014  11.858   6.389   8.406  0.0145 -0.3536  0.0722
68430SOL    HW117015  11.834   6.329   8.336  0.6190 -4.1289  2.8074
68430SOL    HW217016  11.787   6.453   8.409 -1.2344 -1.5239 -2.3602
68431SOL     OW17017  12.347   9.006   9.607 -0.8477  0.0173  0.5607
68431SOL    HW117018  12.368   8.912   9.608 -0.4340  0.1076  0.4342
68431SOL    HW217019  12.364   9.033   9.517 -1.9821 -0.0049  0.3151
68432SOL     OW17020  11.575   1.485   4.147 -0.3381 -0.1260 -0.5400
68432SOL    HW117021  11.505   1.527   4.197 -0.3270 -0.1048 -0.5428
68432SOL    HW217022  11.630   1.557   4.117 -0.5409 -0.1150 -0.8800
68433SOL     OW17023   6.393   1.724   7.914  0.0412  0.3798 -0.1591
68433SOL    HW117024   6.370   1.804   7.962  1.2371  0.4037  0.4061
68433SOL    HW217025   6.488   1.726   7.909  0.1067 -1.1817  0.1195
68434SOL     OW17026  10.101   8.779   6.096  0.8092  0.8863  0.3035
68434SOL    HW117027  10.133   8.721   6.164  2.3673  0.0886 -1.0486
68434SOL    HW217028  10.091   8.864   6.140  0.9719  0.2079  1.6982
68435SOL     OW17029   1.886   2.249   4.943  0.2507  0.4909 -0.0940
68435SOL    HW117030   1.960   2.197   4.910  1.5544  1.6038  0.9110
68435SOL    HW217031   1.915   2.279   5.030 -1.1537  1.4410  0.0814
68436SOL     OW17032   2.057   9.819   1.556  0.0545  0.5892  0.5248
68436SOL    HW117033   2.017   9.804   1.470 -1.6756 -1.0432  1.5349
68436SOL    HW217034   2.123   9.887   1.540  1.2362 -1.0524 -2.4773
68437SOL     OW17035   4.963   8.112  11.180 -0.2426  0.1908 -0.3354
68437SOL    HW117036   4.992   8.069  11.260  0.3358  1.1302 -0.0145
68437SOL    HW217037   5.044   8.137  11.136 -0.5440  1.3822 -0.2515
68438SOL     OW17038   4.978   1.348   2.480  0.0685 -0.2206 -0.0177
68438SOL    HW117039   4.938   1.262   2.497 -0.4844 -0.3262 -1.6140
68438SOL    HW217040   5.066   1.327   2.448 -0.9518 -0.4405 -3.0168
68439SOL     OW17041  13.100   7.256  13.024 -0.9036  0.1713  0.2507
68439SOL    HW117042  13.161   7.286  13.092  0.6899  0.2684 -1.1678
68439SOL    HW217043  13.031   7.322  13.023 -0.1814  0.9543  0.7657
68440SOL     OW17044  12.585   2.158   3.789  0.0679  0.2273 -0.4072
68440SOL    HW117045  12.548   2.074   3.815  1.1882 -0.1348  0.0924
68440SOL    HW217046  12.679   2.142   3.784  0.3548  1.5774  0.2076
68441SOL     OW17047  12.717   9.924   4.712 -0.3142  0.3049  0.3157
68441SOL    HW117048  12.722  10.019   4.695 -0.7542  0.2589 -0.1015
68441SOL    HW217049  12.754   9.913   4.799  0.2495  0.7961  0.1430
68442SOL     OW17050   9.299  12.984   3.885  0.2673 -0.2429  0.0211
68442SOL    HW117051   9.299  12.956   3.977 -0.9056 -1.7980 -0.4218
68442SOL    HW217052   9.384  13.027   3.874  0.0796  0.8014  2.0568
68443SOL     OW17053   5.740   5.084  10.478 -0.0760  0.3645  0.0972
68443SOL    HW117054   5.656   5.059  10.438  0.6671  0.6879 -1.8047
68443SOL    HW217055   5.731   5.060  10.570 -2.0877 -0.0217 -0.1433
68444SOL     OW17056  13.064   8.310   2.368  0.1089  0.1320 -0.2468
68444SOL    HW117057  13.106   8.230   2.400 -1.6287 -0.8804 -0.4060
68444SOL    HW217058  13.015   8.282   2.290 -2.5316  0.7759  1.0782
68445SOL     OW17059   3.616  12.433   7.343 -0.1712 -0.5455  0.2618
68445SOL    HW117060   3.557  12.383   7.287 -0.6489  0.6663 -0.3612
68445SOL    HW217061   3.563  12.507   7.373  0.2002 -0.9546  2.0179
68446SOL     OW17062   1.437   4.318  13.496 -0.8085 -0.1102 -0.1734
68446SOL    HW117063   1.477   4.361  13.421 -1.7673 -0.6265 -1.0063
68446SOL    HW217064   1.363   4.374  13.520  0.7489  1.2358  1.8271
68447SOL     OW17065   7.657   8.309   7.475 -0.0274 -0.2246 -0.6751
68447SOL    HW117066   7.736   8.302   7.528 -0.5219  1.6522  0.3897
68447SOL    HW217067   7.625   8.219   7.468  1.9251 -0.9605 -0.7484
68448SOL     OW17068   9.940   1.848   7.921  0.0805  0.3087  0.7849
68448SOL    HW117069   9.869   1.785   7.911  0.0579  0.0476  2.3656
68448SOL    HW217070   9.901   1.921   7.970  0.3246  1.2060 -0.3006
68449SOL     OW17071   8.261  11.520  12.085  0.1043 -0.3626 -0.0433
68449SOL    HW117072   8.254  11.434  12.126  0.3822 -1.2623 -1.8157
68449SOL    HW217073   8.184  11.526  12.028  0.5929  0.1525 -0.6651
68450SOL     OW17074  11.182  12.678  13.554  0.5808 -0.0351 -0.0603
68450SOL    HW117075  11.226  12.761  13.576 -1.1956  1.1288 -0.7092
68450SOL    HW217076  11.238  12.638  13.488  1.5158  0.6061  0.3232
68451SOL     OW17077  13.354   1.700   3.512  0.0475 -0.0457 -0.0527
68451SOL    HW117078  13.432   1.721   3.562 -1.8582  2.7384  2.0164
68451SOL    HW217079  13.295   1.658   3.575 -0.8925 -0.2267 -1.0220
68452SOL     OW17080   6.724   5.202   8.533 -0.2970 -0.0822 -0.4662
68452SOL    HW117081   6.654   5.182   8.595  0.7237  0.1559  0.8021
68452SOL    HW217082   6.758   5.116   8.508  1.0652 -0.1741  1.4487
68453SOL     OW17083   7.687  10.565  13.180 -0.1395 -0.1146  0.2128
68453SOL    HW117084   7.628  10.583  13.107  0.2389  1.2172  0.2003
68453SOL    HW217085   7.773  10.594  13.148 -0.3834  3.0169  2.0468
68454SOL     OW17086   1.946   0.154   4.585  0.0966 -0.4114  0.3613
68454SOL    HW117087   1.975   0.092   4.652 -0.3790 -1.2103 -0.1543
68454SOL    HW217088   2.027   0.181   4.540  0.3896 -0.0430  1.1057
68455SOL     OW17089   7.356   2.958   5.683  0.5701 -0.1237  0.2681
68455SOL    HW117090   7.322   2.995   5.765 -0.2517  0.8987 -0.5108
68455SOL    HW217091   7.375   3.034   5.628  0.8628 -0.7997 -0.5834
68456SOL     OW17092  10.651   7.493   6.932 -0.9373 -0.2118 -0.0222
68456SOL    HW117093  10.569   7.489   6.981 -0.2580  3.6681  1.8474
68456SOL    HW217094  10.718   7.468   6.996 -0.4492 -1.3790 -0.9496
68457SOL     OW17095  12.882   4.689   2.498  0.3659 -0.4906 -0.3253
68457SOL    HW117096  12.841   4.621   2.444 -0.8214 -1.0756  1.2391
68457SOL    HW217097  12.889   4.650   2.585  1.2688  0.7979  0.2147
68458SOL     OW17098   6.537   6.255   7.825 -0.2374 -0.5709 -0.2644
68458SOL    HW117099   6.568   6.310   7.897 -0.0561 -0.5396 -0.3648
68458SOL    HW217100   6.531   6.167   7.862 -1.5594 -0.3033  0.1952
68459SOL     OW17101   5.211   4.837   2.159  0.1978  0.1424  0.1431
68459SOL    HW117102   5.150   4.903   2.190  0.4253 -0.1328  1.2231
68459SOL    HW217103   5.221   4.855   2.065 -2.0624 -0.2396 -0.2275
68460SOL     OW17104   1.852   9.122   9.986  0.1963 -0.0831  0.2949
68460SOL    HW117105   1.861   9.042   9.935 -1.9432 -1.3762  1.8158
68460SOL    HW217106   1.907   9.108  10.063  0.4505  0.2585  0.1771
68461SOL     OW17107  11.179  11.098   0.057  0.1113 -0.0415 -0.0662
68461SOL    HW117108  11.136  11.129  -0.023 -0.0390 -1.0993 -0.4098
68461SOL    HW217109  11.144  11.154   0.126 -1.4267 -0.5214 -0.4226
68462SOL     OW17110   5.525  13.020   7.793 -0.3095  0.1591 -0.5221
68462SOL    HW117111   5.542  12.930   7.763  0.2741 -0.1141  0.5624
68462SOL    HW217112   5.458  13.011   7.861  0.3855  0.4137  0.2235
68463SOL     OW17113   9.303   6.364   7.876 -0.6220  0.2316 -0.1386
68463SOL    HW117114   9.339   6.380   7.964 -0.7767  1.2064 -0.2390
68463SOL    HW217115   9.369   6.397   7.816 -0.3711 -0.7314 -0.4152
68464SOL     OW17116   6.139   1.959  10.740  0.1788  0.3930 -0.5733
68464SOL    HW117117   6.213   2.020  10.748 -0.9175  1.6682  0.1812
68464SOL    HW217118   6.067   2.013  10.708 -0.8709 -0.4685  0.2673
68465SOL     OW17119  13.327   1.801   9.212  0.2049  0.2444 -0.4427
68465SOL    HW117120  13.363   1.806   9.301  0.0313  1.1782 -0.4179
68465SOL    HW217121  13.273   1.722   9.212  0.0740  0.3293  0.3320
68466SOL     OW17122   8.378   3.161   7.960  0.1098 -0.0393 -0.2413
68466SOL    HW117123   8.451   3.100   7.957  0.7913  0.7088  0.8418
68466SOL    HW217124   8.345   3.162   7.870  0.7230 -1.2025 -0.5056
68467SOL     OW17125   3.259  11.664   1.722 -0.1322  0.1985  0.7471
68467SOL    HW117126   3.273  11.659   1.627  1.8956  0.0395  1.0280
68467SOL    HW217127   3.163  11.666   1.731 -0.3835  1.8142 -1.3850
68468SOL     OW17128  10.801   3.120   3.195  0.1527  0.2058 -0.1002
68468SOL    HW117129  10.855   3.111   3.274  0.5962  0.3126 -0.3840
68468SOL    HW217130  10.865   3.120   3.123 -0.3253 -1.2672 -0.5575
68469SOL     OW17131   8.372  12.172   9.567  0.3540  0.5194 -0.1186
68469SOL    HW117132   8.321  12.104   9.610 -1.1254  0.4450 -1.8693
68469SOL    HW217133   8.461  12.160   9.601 -0.2827 -0.9539  1.1503
68470SOL     OW17134   6.223   4.462   9.629  0.2166  0.2505  0.8690
68470SOL    HW117135   6.239   4.540   9.681  1.8147 -0.3661  1.3590
68470SOL    HW217136   6.256   4.390   9.683  0.6934 -0.5429 -0.4251
68471SOL     OW17137  10.348   2.557  13.277 -0.2511  0.1745  0.4960
68471SOL    HW117138  10.263   2.597  13.296 -1.1619 -1.9889  1.2325
68471SOL    HW217139  10.328   2.466  13.255  1.7004  0.1023 -1.4108
68472SOL     OW17140   0.650  10.821  12.211 -0.0959 -0.1293 -0.0471
68472SOL    HW117141   0.640  10.782  12.298  0.9068 -1.1645 -0.3671
68472SOL    HW217142   0.741  10.851  12.208  0.1986 -1.0694 -1.0920
68473SOL     OW17143   1.243   9.679   2.537 -0.2197  0.4580 -0.3240
68473SOL    HW117144   1.242   9.585   2.558  2.0836  0.0319 -1.8145
68473SOL    HW217145   1.161   9.694   2.489 -0.7172 -0.7312  0.1217
68474SOL     OW17146   3.774  13.277   4.136  0.0129  0.0074  0.1159
68474SOL    HW117147   3.794  13.193   4.177 -1.1711 -0.2039  0.2785
68474SOL    HW217148   3.721  13.324   4.200  2.1059  1.6489  0.7801
68475SOL     OW17149   1.035  11.094  13.738 -0.1495 -0.9175 -0.1676
68475SOL    HW117150   0.944  11.120  13.755  0.2570  0.7268 -0.2670
68475SOL    HW217151   1.087  11.164  13.778  1.1136 -2.1772  0.4932
68476SOL     OW17152   6.185  12.948  11.518  0.2915  0.8262 -0.4120
68476SOL    HW117153   6.248  12.962  11.448 -0.5119 -0.9518 -1.5733
68476SOL    HW217154   6.238  12.944  11.598  1.5381  0.4387 -1.2315
68477SOL     OW17155   4.186   5.759   0.753  0.2490 -0.0422  0.0756
68477SOL    HW117156   4.180   5.683   0.695  0.2139 -1.3986  1.7561
68477SOL    HW217157   4.128   5.824   0.714  0.5458 -0.7168 -1.6086
68478SOL     OW17158  11.894   1.577   0.910  0.1534  0.1577  0.0809
68478SOL    HW117159  11.816   1.618   0.871 -0.7598 -0.3744  1.2631
68478SOL    HW217160  11.947   1.549   0.836  0.1228  2.1704 -0.7642
68479SOL     OW17161   2.973   9.104  10.764  0.0015  0.5104  0.4870
68479SOL    HW117162   2.945   9.125  10.675  1.7891  1.1554  0.0587
68479SOL    HW217163   2.905   9.044  10.796 -1.0661  0.8567 -1.0235
68480SOL     OW17164   5.542   2.861   5.177 -0.5495  0.1126 -0.0386
68480SOL    HW117165   5.522   2.949   5.208 -0.2872  0.3793 -0.6012
68480SOL    HW217166   5.490   2.851   5.097 -0.8816 -0.3957  0.2329
68481SOL     OW17167   4.975   3.001  12.950 -0.4595 -0.0772 -0.6471
68481SOL    HW117168   4.951   2.967  13.036 -0.6721  0.7121 -0.3927
68481SOL    HW217169   5.070   2.998  12.949 -0.2892  2.4175  0.6783
68482SOL     OW17170   9.874  10.073  10.996 -0.1811 -0.4123  0.3094
68482SOL    HW117171   9.922  10.139  11.046  0.3375  0.2761 -1.0488
68482SOL    HW217172   9.789  10.113  10.978 -1.1762 -1.4566  2.3252
68483SOL     OW17173   4.493   7.795  13.650 -0.2051  0.1746  0.0044
68483SOL    HW117174   4.552   7.860  13.687 -2.5030  2.6053 -0.3479
68483SOL    HW217175   4.525   7.783  13.560  0.1104  1.0053 -0.0045
68484SOL     OW17176   5.820   9.088   5.541 -0.7028 -0.3523  0.1703
68484SOL    HW117177   5.730   9.081   5.510 -0.3394 -0.7828 -0.8024
68484SOL    HW217178   5.873   9.093   5.462 -0.0380  2.6509  0.6642
68485SOL     OW17179   3.544   8.687   4.975 -0.5021 -0.0394  0.0886
68485SOL    HW117180   3.462   8.717   5.016 -1.1832 -2.7679  0.9359
68485SOL    HW217181   3.572   8.761   4.922 -2.4244  1.7486  1.3748
68486SOL     OW17182  11.977   9.579   0.685  0.4317 -0.4129 -0.4435
68486SOL    HW117183  11.935   9.496   0.664 -2.6427  1.0655 -0.5925
68486SOL    HW217184  11.946   9.640   0.619  2.0821  1.0506  0.0427
68487SOL     OW17185  12.056   2.978  11.215 -0.0078 -0.6974 -0.6814
68487SOL    HW117186  12.097   2.902  11.173  0.7888 -0.1074 -0.9885
68487SOL    HW217187  12.123   3.012  11.274 -0.1424  0.1327 -1.0028
68488SOL     OW17188   0.184   6.175   2.069  0.4783  0.1980 -0.4993
68488SOL    HW117189   0.117   6.106   2.060  0.8417 -0.0141 -1.8105
68488SOL    HW217190   0.141   6.254   2.036  0.0523  0.6465  1.0303
68489SOL     OW17191   3.861   2.503   4.196 -0.0394 -0.0559 -0.0712
68489SOL    HW117192   3.813   2.494   4.114 -0.6797  2.5081 -0.0910
68489SOL    HW217193   3.934   2.562   4.175  0.7044 -0.6203  0.8650
68490SOL     OW17194  13.428   7.940  13.505 -0.1554 -0.3994  0.1418
68490SOL    HW117195  13.341   7.919  13.539 -0.6218 -2.7860 -2.1173
68490SOL    HW217196  13.411   7.990  13.425  0.2133 -3.2739 -1.9192
68491SOL     OW17197  12.983  10.823   0.033  0.7496  0.1996  0.4526
68491SOL    HW117198  12.952  10.833  -0.057  2.0639  2.5170  0.1896
68491SOL    HW217199  12.930  10.884   0.084  1.7813  0.8850  0.7488
68492SOL     OW17200  12.067   0.532   8.131  0.3042  0.2222  0.3537
68492SOL    HW117201  12.031   0.521   8.219 -1.4616  2.2107 -0.0341
68492SOL    HW217202  12.131   0.603   8.140 -1.0507  1.5624 -0.1980
68493SOL     OW17203   2.143   9.708   3.334 -0.1393 -0.3478 -0.8177
68493SOL    HW117204   2.174   9.625   3.368 -0.0313 -0.8457 -2.0660
68493SOL    HW217205   2.221   9.764   3.330 -0.1765 -0.2414 -0.1623
68494SOL     OW17206   0.415   4.649   1.784 -0.2674 -0.1536  0.2193
68494SOL    HW117207   0.330   4.691   1.771 -0.8030 -1.5617 -1.1604
68494SOL    HW217208   0.404   4.561   1.748  2.1466  0.0637 -1.2657
68495SOL     OW17209   9.633  10.187   2.780 -0.3829  0.3252 -0.0352
68495SOL    HW117210   9.600  10.136   2.854  0.8844  0.2177  0.4936
68495SOL    HW217211   9.643  10.276   2.815 -0.3776  0.4105 -0.2554
68496SOL     OW17212   8.748   0.169   7.190  0.1793 -0.0359 -0.2232
68496SOL    HW117213   8.787   0.217   7.263 -0.3311  1.5583 -0.9433
68496SOL    HW217214   8.664   0.212   7.175 -0.5322 -1.4947 -0.6059
68497SOL     OW17215   6.329   6.705   6.908 -0.1722 -0.1466 -0.3003
68497SOL    HW117216   6.373   6.731   6.989  1.8203 -0.6804 -1.1568
68497SOL    HW217217   6.268   6.776   6.890  0.9194  1.0448  0.5306
68498SOL     OW17218  11.749   0.322  10.753  0.1547 -0.0377  0.4005
68498SOL    HW117219  11.717   0.232  10.746 -0.8475  0.3610 -0.7258
68498SOL    HW217220  11.793   0.338  10.669  1.7456  0.0206  1.2250
68499SOL     OW17221   2.040   6.227  12.403  0.2514  0.1210 -0.3179
68499SOL    HW117222   2.061   6.170  12.477 -0.6888  0.6556  0.3794
68499SOL    HW217223   1.947   6.246  12.412 -0.4498 -1.5165 -2.8551
68500SOL     OW17224  12.000   9.372   2.016 -0.4667 -0.2742  0.5664
68500SOL    HW117225  12.018   9.388   2.108 -0.9012  1.1872  0.4281
68500SOL    HW217226  11.907   9.353   2.012 -0.1998 -1.6870  0.5628
68501SOL     OW17227  12.246   8.688   4.598  0.1638 -0.7905 -0.8731
68501SOL    HW117228  12.333   8.682   4.637  0.0169  0.2945 -0.3424
68501SOL    HW217229  12.186   8.688   4.673 -0.0724  2.5243 -0.9293
68502SOL     OW17230  10.164   8.285   2.846  0.5203 -0.2066 -0.4253
68502SOL    HW117231  10.199   8.231   2.775 -1.0215 -1.1452 -0.5329
68502SOL    HW217232  10.224   8.270   2.920  1.6864  0.1498 -1.2798
68503SOL     OW17233   8.545   1.080   4.630  0.2338 -0.4126  0.0194
68503SOL    HW117234   8.597   1.020   4.576 -1.0410 -1.1558 -0.4160
68503SOL    HW217235   8.561   1.167   4.592  1.3604 -0.5861  0.0710
68504SOL     OW17236  13.272   7.993   7.242  0.7090 -0.2507 -0.4559
68504SOL    HW117237  13.307   8.055   7.178  2.6652 -0.8430 -0.0413
68504SOL    HW217238  13.272   7.909   7.198  3.8059 -1.0237  0.7262
68505SOL     OW17239   2.756   7.645  13.282  0.7705  0.3291  0.1930
68505SOL    HW117240   2.754   7.727  13.331 -1.5497  1.0764 -1.0112
68505SOL    HW217241   2.792   7.669  13.197 -0.4245  0.2342 -0.3490
68506SOL     OW17242   2.159   5.919   0.227 -0.9965 -0.0721 -0.3700
68506SOL    HW117243   2.080   5.967   0.250 -0.9530 -0.7735  1.3488
68506SOL    HW217244   2.166   5.849   0.293 -0.4492 -1.7574 -2.1021
68507SOL     OW17245   4.384   0.846  13.237 -0.3194 -0.3396 -0.4678
68507SOL    HW117246   4.329   0.886  13.305  0.3120  0.3967 -0.3752
68507SOL    HW217247   4.341   0.763  13.217 -0.8035 -0.3254  0.4618
68508SOL     OW17248   5.152  12.578   5.803 -0.1697 -0.6326  0.4783
68508SOL    HW117249   5.148  12.578   5.899  0.4820 -1.7103  0.5242
68508SOL    HW217250   5.076  12.629   5.776 -1.2613 -1.6178  1.5375
68509SOL     OW17251   8.579   9.340   9.960  0.1685  0.0096  0.5493
68509SOL    HW117252   8.601   9.333   9.867 -0.0362 -0.7045  0.5476
68509SOL    HW217253   8.530   9.422   9.967 -3.2705 -1.7265 -0.6947
68510SOL     OW17254   0.504  10.659  13.744  0.1898  0.5571 -0.2185
68510SOL    HW117255   0.462  10.733  13.787 -1.2543  0.7953 -1.9327
68510SOL    HW217256   0.526  10.599  13.815  0.2655  2.0662  1.0741
68511SOL     OW17257   3.813   0.296  10.042  0.4080  0.1083  0.0928
68511SOL    HW117258   3.883   0.321   9.981 -0.4521 -1.1212 -1.4970
68511SOL    HW217259   3.840   0.210  10.075  0.6562  0.5803  1.1489
68512SOL     OW17260   2.438   0.721   2.928  0.4385 -0.2297 -0.2455
68512SOL    HW117261   2.396   0.636   2.942 -0.1367 -0.1947 -1.5694
68512SOL    HW217262   2.459   0.722   2.835 -0.4727  1.4679 -0.4707
68513SOL     OW17263   1.505   0.698   7.163 -0.0005 -0.4509 -0.7614
68513SOL    HW117264   1.553   0.624   7.199 -0.5409 -1.4510 -2.0145
68513SOL    HW217265   1.498   0.760   7.236  1.7389 -0.9751 -0.0989
68514SOL     OW17266   4.273  11.736   6.542 -0.3021  0.6445 -0.4124
68514SOL    HW117267   4.207  11.794   6.580  0.9296  0.6676  1.9029
68514SOL    HW217268   4.308  11.785   6.468  0.2254  2.6236  1.0561
68515SOL     OW17269  11.228   3.655   5.565  0.1172 -0.2109 -0.2067
68515SOL    HW117270  11.176   3.735   5.575  0.8422  0.2103  0.2525
68515SOL    HW217271  11.293   3.660   5.635 -1.0459 -2.1610  1.0832
68516SOL     OW17272   3.660   5.641   6.624 -0.1393  0.2850  0.7342
68516SOL    HW117273   3.688   5.696   6.697 -0.5585  2.2804 -0.5383
68516SOL    HW217274   3.581   5.684   6.591  0.4786 -0.0943 -1.3751
68517SOL     OW17275   0.726   7.414  11.325  0.3108  0.3135  0.1445
68517SOL    HW117276   0.678   7.491  11.297 -1.2497 -1.0013 -1.0138
68517SOL    HW217277   0.739   7.363  11.245 -0.6652 -1.6288  1.1403
68518SOL     OW17278  11.692   7.262   0.913  0.4654 -0.2905 -0.1283
68518SOL    HW117279  11.782   7.229   0.908  0.9612  0.5953  1.9108
68518SOL    HW217280  11.648   7.202   0.974  0.2482  0.4374  0.4409
68519SOL     OW17281  12.656   5.031   2.274 -0.6509  0.0793  0.2509
68519SOL    HW117282  12.657   5.121   2.307  0.5670  0.2527 -0.2126
68519SOL    HW217283  12.572   5.024   2.228 -0.2771  1.3597 -0.6929
68520SOL     OW17284  13.284  12.545   7.591 -0.3153  0.0961 -0.2179
68520SOL    HW117285  13.356  12.567   7.650 -1.6388 -0.2501  1.6193
68520SOL    HW217286  13.257  12.456   7.618 -1.0124 -0.0397 -1.2888
68521SOL     OW17287   2.474   6.127  12.384  0.4890 -0.4756  0.2883
68521SOL    HW117288   2.561   6.160  12.362  0.9646 -1.8325  0.0232
68521SOL    HW217289   2.442   6.187  12.451  0.9888  0.9299 -0.7039
68522SOL     OW17290  10.974   8.079   6.709 -0.4762 -0.3426  0.0510
68522SOL    HW117291  10.900   8.130   6.676  0.0411 -0.2460 -1.0072
68522SOL    HW217292  11.028   8.143   6.756 -1.1248 -0.4440  0.9512
68523SOL     OW17293   5.139   4.024   7.603 -0.0778  0.1608 -0.0578
68523SOL    HW117294   5.139   3.945   7.658  0.9703 -0.2912 -0.6941
68523SOL    HW217295   5.055   4.021   7.557 -1.1426  0.7239  1.7377
68524SOL     OW17296  12.151   6.951  13.220  0.0506 -0.6710  0.3587
68524SOL    HW117297  12.123   6.922  13.133 -1.8011 -0.5355  0.8761
68524SOL    HW217298  12.154   7.046  13.213  0.1542 -0.6730  0.3767
68525SOL     OW17299   9.890   3.964   4.280 -0.7880  0.0277  0.6558
68525SOL    HW117300   9.937   3.942   4.361 -0.4688  0.7828  0.6768
68525SOL    HW217301   9.958   3.990   4.219 -0.7900 -2.4291 -0.5386
68526SOL     OW17302  13.329   2.117   7.464 -0.1763  0.5190 -0.4659
68526SOL    HW117303  13.274   2.106   7.541 -0.1740 -0.1964 -0.5573
68526SOL    HW217304  13.274   2.089   7.391 -0.6580  2.4812 -0.9126
68527SOL     OW17305  12.540   3.324   0.070  0.1204  0.2546  0.8763
68527SOL    HW117306  12.594   3.398   0.041  1.2540 -0.2625  1.5892
68527SOL    HW217307  12.597   3.248   0.060 -0.8772 -0.4813  0.5800
68528SOL     OW17308  11.966  12.605   9.801 -0.6248  0.1195 -0.3172
68528SOL    HW117309  11.905  12.676   9.783  0.6282  1.2246 -0.3421
68528SOL    HW217310  11.958  12.547   9.725 -2.5823 -0.4890  0.2815
68529SOL     OW17311   5.572   5.017   9.845 -0.5348  0.2805  0.2483
68529SOL    HW117312   5.567   4.980   9.756  0.7341 -0.3248  0.3988
68529SOL    HW217313   5.499   5.079   9.850 -1.0942 -0.2552 -0.9481
68530SOL     OW17314   9.954   6.230   6.178 -0.3788 -0.1475  0.1397
68530SOL    HW117315   9.890   6.276   6.233 -2.1164 -1.9169 -0.3038
68530SOL    HW217316   9.984   6.158   6.233 -0.7055 -0.8232 -0.5619
68531SOL     OW17317   3.131  12.480   2.114 -0.2292  1.4815  0.0673
68531SOL    HW117318   3.129  12.448   2.025  1.7476 -1.0949  0.8342
68531SOL    HW217319   3.213  12.529   2.120 -0.0349  1.0978  0.6245
68532SOL     OW17320   7.106  12.688   3.087  0.3872  0.3772  0.2573
68532SOL    HW117321   7.128  12.765   3.034  1.4023  0.0053  0.1085
68532SOL    HW217322   7.034  12.646   3.040  0.3136  0.8465 -0.0515
68533SOL     OW17323   1.394  10.589   7.579 -0.2774 -0.2453 -0.1015
68533SOL    HW117324   1.414  10.520   7.516 -0.8262  0.5871 -1.2308
68533SOL    HW217325   1.406  10.670   7.531  0.3625  0.4657  1.2036
68534SOL     OW17326   5.662   6.206   1.612 -0.6010 -0.1629 -0.2889
68534SOL    HW117327   5.599   6.185   1.544 -2.1091 -0.8982  1.2637
68534SOL    HW217328   5.624   6.171   1.693 -0.5689  3.5528  1.5698
68535SOL     OW17329   5.210   5.934   1.836  0.5138 -0.5316 -0.1532
68535SOL    HW117330   5.228   5.969   1.923  0.1859 -0.2983 -0.1780
68535SOL    HW217331   5.133   5.983   1.806 -1.2195 -2.6448  0.6275
68536SOL     OW17332   6.310   2.684  10.521  0.2307 -0.4951  0.1650
68536SOL    HW117333   6.390   2.699  10.572  0.5903  1.8322 -0.9127
68536SOL    HW217334   6.331   2.719  10.434 -1.9036  0.0584 -0.1805
68537SOL     OW17335   1.846   1.061   2.243 -0.3775 -0.1673  0.6444
68537SOL    HW117336   1.776   1.004   2.273  0.2720  0.1253  2.8940
68537SOL    HW217337   1.836   1.141   2.293  1.8160 -0.2988  1.4323
68538SOL     OW17338   1.636   0.515   3.370  0.0310  0.0925  0.2224
68538SOL    HW117339   1.692   0.457   3.422 -1.3636 -1.3109  0.2255
68538SOL    HW217340   1.571   0.457   3.330 -0.2374  1.4200 -1.3752
68539SOL     OW17341   9.836   7.629   0.925  0.0380 -0.0635 -0.3608
68539SOL    HW117342   9.798   7.633   1.013 -1.6920  2.1148 -1.0934
68539SOL    HW217343   9.919   7.676   0.932  0.6762 -1.2783  0.4109
68540SOL     OW17344   5.228  13.191  13.589 -0.2391 -0.2386 -0.0457
68540SOL    HW117345   5.193  13.147  13.667 -0.0487  0.6900  0.5705
68540SOL    HW217346   5.173  13.158  13.518  0.2781 -1.9507  0.2839
68541SOL     OW17347  12.478  13.361  11.523 -0.7060  0.2408  0.1607
68541SOL    HW117348  12.480  13.440  11.577  0.3976  0.1281  0.3202
68541SOL    HW217349  12.489  13.393  11.434 -3.7764  0.5406 -0.2186
68542SOL     OW17350   2.920   0.893   9.063 -0.9863  0.0861  0.2572
68542SOL    HW117351   2.981   0.867   8.995  0.7441 -0.1078  1.7945
68542SOL    HW217352   2.953   0.978   9.094 -0.9781 -0.4062  1.6806
68543SOL     OW17353  13.500   5.245   9.226  0.1750 -0.1931  0.1018
68543SOL    HW117354  13.523   5.217   9.137 -1.9627  1.5361 -1.0913
68543SOL    HW217355  13.460   5.331   9.214  0.1530  0.2413  2.8179
68544SOL     OW17356  12.513  10.717   4.630 -0.3908 -0.2992  0.0836
68544SOL    HW117357  12.455  10.704   4.555  0.7737 -0.4494 -0.8228
68544SOL    HW217358  12.480  10.795   4.673 -1.3056 -0.4267 -0.3639
68545SOL     OW17359   9.820   0.014  13.020 -0.3856 -0.0538  0.3192
68545SOL    HW117360   9.874   0.084  12.987 -0.1026  0.6064  2.0659
68545SOL    HW217361   9.815  -0.050  12.949  1.9687  0.2611 -0.1791
68546SOL     OW17362   7.132   0.233   2.621 -0.5067  0.4226  0.0922
68546SOL    HW117363   7.194   0.162   2.608 -1.1044  0.2117 -1.9452
68546SOL    HW217364   7.120   0.237   2.716  1.0581 -0.8449  0.3897
68547SOL     OW17365   9.591   9.365  10.921 -0.1733  0.1742  0.4719
68547SOL    HW117366   9.660   9.388  10.984 -0.5010 -1.2866  1.3927
68547SOL    HW217367   9.516   9.419  10.947 -0.2718 -0.3379  1.2805
68548SOL     OW17368  13.624  11.451   6.670 -0.2551  0.2268 -0.2046
68548SOL    HW117369  13.545  11.400   6.658 -0.3662  0.0014  1.2587
68548SOL    HW217370  13.601  11.517   6.736  0.8314 -0.0191  0.4524
68549SOL     OW17371  11.285   8.608   5.965 -0.1659 -0.3581 -0.0533
68549SOL    HW117372  11.239   8.557   5.899 -1.3947 -0.3353  0.7465
68549SOL    HW217373  11.374   8.573   5.965 -0.1909 -0.5064 -1.5393
68550SOL     OW17374   3.467   7.888   4.206 -0.0429  1.1650  0.2124
68550SOL    HW117375   3.395   7.867   4.147  0.7885  1.3483 -0.8996
68550SOL    HW217376   3.472   7.813   4.266 -1.0859  1.1137  0.2571
68551SOL     OW17377  11.220   4.655   7.579  0.0498 -1.0746  0.0331
68551SOL    HW117378  11.169   4.727   7.615  1.8266  0.1784  0.2192
68551SOL    HW217379  11.310   4.688   7.579  0.8641 -3.1493 -0.3006
68552SOL     OW17380   5.943  10.347   9.669 -0.7259 -0.1218 -0.5866
68552SOL    HW117381   5.962  10.264   9.712  1.6725  0.0217 -1.2376
68552SOL    HW217382   5.858  10.334   9.627 -1.0806 -1.7124  0.5446
68553SOL     OW17383  12.414   0.805   8.011 -0.2102  0.7532 -0.4492
68553SOL    HW117384  12.361   0.840   7.939 -0.0937  0.3294 -0.7445
68553SOL    HW217385  12.501   0.841   7.997 -0.6587  2.4150  0.7044
68554SOL     OW17386  13.504   9.672   1.786 -0.0297 -0.4790 -0.4316
68554SOL    HW117387  13.535   9.709   1.703 -0.4401  0.3890 -0.2126
68554SOL    HW217388  13.499   9.578   1.770  0.4796 -0.3847 -1.1977
68555SOL     OW17389   8.029   9.003   9.198 -0.6244  0.1834 -0.0034
68555SOL    HW117390   8.107   8.989   9.143 -1.3904 -1.4133 -0.7856
68555SOL    HW217391   8.038   8.939   9.269 -0.9124  0.4228  0.2503
68556SOL     OW17392   8.474   4.222  12.947 -0.2394  0.5353  0.0304
68556SOL    HW117393   8.430   4.165  13.010  2.2008 -0.4234  0.9816
68556SOL    HW217394   8.482   4.169  12.868 -1.6337  1.0735 -0.4940
68557SOL     OW17395  11.679   2.508   6.469 -0.3184  0.3381 -0.0864
68557SOL    HW117396  11.639   2.574   6.526 -0.4921 -0.2210  0.4437
68557SOL    HW217397  11.712   2.441   6.529  1.3044  0.7073 -0.5170
68558SOL     OW17398   3.028  12.696   0.581  0.0965  0.5302 -0.2957
68558SOL    HW117399   3.006  12.788   0.586 -0.5538  0.3637 -0.0149
68558SOL    HW217400   3.005  12.660   0.667  1.9820  0.4392  0.2217
68559SOL     OW17401   8.333   0.373  13.189 -0.2346  0.3366  0.3850
68559SOL    HW117402   8.263   0.322  13.150  0.4566 -0.0530 -0.3678
68559SOL    HW217403   8.358   0.436  13.122 -0.8158  1.4357  1.1670
68560SOL     OW17404   0.769  11.678   8.821  0.0479 -0.2982 -0.0456
68560SOL    HW117405   0.839  11.628   8.863  0.8985  0.3838 -0.6136
68560SOL    HW217406   0.688  11.642   8.858  0.7167 -0.6804  1.0818
68561SOL     OW17407   1.211   9.849   3.622 -0.1928 -0.3705 -0.4779
68561SOL    HW117408   1.177   9.852   3.711 -0.2817 -0.9830 -0.4893
68561SOL    HW217409   1.255   9.764   3.615  0.7053  0.0986 -0.6909
68562SOL     OW17410   4.375   1.101   4.264 -0.5385 -0.4433  0.2302
68562SOL    HW117411   4.334   1.036   4.206 -1.4613  2.3896 -2.6322
68562SOL    HW217412   4.468   1.099   4.240 -0.6449 -0.3862 -0.1960
68563SOL     OW17413   4.817  10.148  10.535  0.0558  0.3309 -0.1871
68563SOL    HW117414   4.798  10.107  10.451 -2.2530 -1.0809  0.9350
68563SOL    HW217415   4.781  10.237  10.528 -1.4202 -0.2517 -0.2457
68564SOL     OW17416  10.752   3.247   4.659  0.7235  0.4829  0.1516
68564SOL    HW117417  10.828   3.251   4.602 -1.8286  1.9969 -3.4988
68564SOL    HW217418  10.738   3.337   4.688 -0.6843  0.5794 -0.7537
68565SOL     OW17419  12.322   9.413   5.836 -0.3588  0.3618 -0.6544
68565SOL    HW117420  12.265   9.448   5.768 -2.0780  1.0701  1.0706
68565SOL    HW217421  12.343   9.488   5.891  2.5645  0.1958 -1.3557
68566SOL     OW17422   2.334   0.907   2.584  0.0665  0.3122  0.3022
68566SOL    HW117423   2.414   0.855   2.590  0.3998  0.7537 -0.2268
68566SOL    HW217424   2.346   0.962   2.506 -1.4495 -0.7972 -0.7705
68567SOL     OW17425   1.551   7.622   7.461  0.0345 -0.3665 -0.0660
68567SOL    HW117426   1.577   7.532   7.446 -0.1108 -0.2209 -1.2862
68567SOL    HW217427   1.485   7.640   7.394  0.9963  1.0353 -0.6720
68568SOL     OW17428   9.503   0.713   6.439 -0.6361 -0.1997 -0.8001
68568SOL    HW117429   9.502   0.802   6.403 -0.6001 -0.1453 -0.6686
68568SOL    HW217430   9.596   0.691   6.447 -0.5756  0.5325  1.0581
68569SOL     OW17431   2.459   6.690  10.409 -0.3712  0.2407  0.1288
68569SOL    HW117432   2.383   6.636  10.426 -0.0101  0.0972  1.3426
68569SOL    HW217433   2.479   6.732  10.493  0.2936  1.0398 -0.4072
68570SOL     OW17434  12.838   8.076   7.028  0.4073 -0.4684 -0.5443
68570SOL    HW117435  12.804   8.078   6.939  1.9376 -1.3310 -1.1870
68570SOL    HW217436  12.881   8.160   7.040 -1.1371  0.2895 -0.0208
68571SOL     OW17437   3.016   6.829  11.815 -0.2188  0.0614 -0.2253
68571SOL    HW117438   2.930   6.805  11.850  0.0891  0.5060  0.8757
68571SOL    HW217439   3.020   6.924  11.826  1.3083 -0.1806  1.8844
68572SOL     OW17440   9.642   2.082   3.839  0.1095 -0.0093  0.6383
68572SOL    HW117441   9.564   2.064   3.786  1.0396 -0.1913 -0.7374
68572SOL    HW217442   9.651   2.005   3.895  2.3041 -2.8383 -3.0539
68573SOL     OW17443   0.447  12.035  10.424  0.2187  0.5075  0.0978
68573SOL    HW117444   0.357  12.065  10.413 -0.5984 -1.8513 -0.2087
68573SOL    HW217445   0.493  12.067  10.346  0.1317  3.1457  1.0381
68574SOL     OW17446   9.990   8.490   7.188 -0.4762  0.1629 -0.6075
68574SOL    HW117447  10.059   8.512   7.251 -1.7131  2.1750  0.1450
68574SOL    HW217448  10.013   8.539   7.109  0.4920 -1.5136 -1.4265
68575SOL     OW17449   3.670   1.790   8.018  0.2691  1.2852  0.0845
68575SOL    HW117450   3.703   1.857   8.078 -0.3626  0.8573  0.9293
68575SOL    HW217451   3.624   1.728   8.074  1.6353 -0.3915 -0.5579
68576SOL     OW17452   4.482   5.460  10.246  0.1746 -0.1418  0.2335
68576SOL    HW117453   4.430   5.523  10.196 -0.3252  1.3659  2.4804
68576SOL    HW217454   4.538   5.515  10.302  0.9350 -1.7184  1.0784
68577SOL     OW17455   7.608   0.583  10.068  0.2252  0.4259  0.5543
68577SOL    HW117456   7.623   0.669  10.028  0.9346  0.7828  1.5676
68577SOL    HW217457   7.513   0.572  10.064  0.3359 -0.2932 -2.6975
68578SOL     OW17458   5.484  12.960  11.003 -0.0685 -0.0209 -0.3585
68578SOL    HW117459   5.462  12.871  10.973  3.2012 -0.5953 -1.4967
68578SOL    HW217460   5.505  12.949  11.096 -1.4297 -0.0538 -0.0425
68579SOL     OW17461   3.599   3.452  12.147  0.5315  0.3577 -0.3791
68579SOL    HW117462   3.638   3.522  12.094 -1.5486 -0.5602 -3.4268
68579SOL    HW217463   3.563   3.497  12.223  1.5969  2.1564 -0.8669
68580SOL     OW17464  13.023   0.816  13.663  0.1469  0.2127 -0.0218
68580SOL    HW117465  13.099   0.785  13.711 -1.0200  1.1105  2.5708
68580SOL    HW217466  12.994   0.740  13.612  0.5520 -1.3083  1.9074
68581SOL     OW17467   0.367   1.739   1.809 -0.6331 -0.0652 -0.0059
68581SOL    HW117468   0.274   1.723   1.826  0.0279 -4.0557  0.8551
68581SOL    HW217469   0.406   1.749   1.896 -0.1352  0.7858 -0.3228
68582SOL     OW17470  10.224   1.365   9.868 -0.4181 -0.1438 -0.2951
68582SOL    HW117471  10.277   1.428   9.819  1.7526 -0.9659  0.8620
68582SOL    HW217472  10.215   1.290   9.809  0.6387 -0.4089 -0.1426
68583SOL     OW17473   1.775   5.305  13.454  0.4315 -0.6376  0.1326
68583SOL    HW117474   1.843   5.274  13.394 -1.4611 -1.6997 -1.6311
68583SOL    HW217475   1.741   5.226  13.496  0.3266 -0.1252  1.0451
68584SOL     OW17476   8.486  12.221  11.288  0.1893  0.2698  0.0213
68584SOL    HW117477   8.522  12.157  11.349  0.7808  1.2400  0.7097
68584SOL    HW217478   8.490  12.178  11.203  2.3004  0.0491  0.1849
68585SOL     OW17479  10.180   0.068  11.743 -0.0592 -0.1215 -0.1674
68585SOL    HW117480  10.271   0.099  11.736 -0.2331  0.4691  0.0878
68585SOL    HW217481  10.178   0.019  11.826 -0.4319  1.5735  0.8847
68586SOL     OW17482   4.112   6.911  12.329  0.1550  0.0051 -0.1229
68586SOL    HW117483   4.076   7.000  12.332 -0.2117 -0.1376 -0.2346
68586SOL    HW217484   4.158   6.906  12.245  0.8911  0.3574  0.2453
68587SOL     OW17485   9.932  10.796  12.027  0.0972 -0.1538 -0.3647
68587SOL    HW117486   9.852  10.753  12.056 -0.6064  1.1878 -0.2148
68587SOL    HW217487  10.000  10.761  12.084 -0.9126  0.9444  1.6331
68588SOL     OW17488  11.256   8.517   2.521 -0.3387  0.7282 -0.3806
68588SOL    HW117489  11.253   8.463   2.442  0.1507 -1.0392  0.7485
68588SOL    HW217490  11.344   8.503   2.556 -0.8993  0.5773  1.0603
68589SOL     OW17491  11.690   4.563  11.491 -0.1853  0.4105 -0.2770
68589SOL    HW117492  11.647   4.553  11.406 -1.2448 -1.9313  0.4466
68589SOL    HW217493  11.638   4.509  11.551 -0.0425  2.6999  2.1209
68590SOL     OW17494  11.521   6.738  10.188 -0.1553 -0.1849 -0.2015
68590SOL    HW117495  11.466   6.668  10.223 -1.4114  0.7050 -0.3097
68590SOL    HW217496  11.461   6.812  10.178  0.8845  0.5576 -1.1783
68591SOL     OW17497   4.618   9.190   4.877  0.6053  0.8131 -0.1927
68591SOL    HW117498   4.584   9.116   4.827  1.9027  0.9013 -1.2673
68591SOL    HW217499   4.657   9.150   4.955 -0.3114  0.5539  0.1438
68592SOL     OW17500   8.130  12.286   1.340 -0.2339  0.5566 -0.7108
68592SOL    HW117501   8.160  12.199   1.366  0.7369  0.1636 -2.9023
68592SOL    HW217502   8.040  12.291   1.372 -0.3839 -1.3436 -0.7300
68593SOL     OW17503  11.108   5.362  10.456  0.4265 -0.1277 -0.2277
68593SOL    HW117504  11.196   5.328  10.471  1.5925  2.7574  0.0204
68593SOL    HW217505  11.118   5.457  10.456 -2.4266  0.2911 -1.9194
68594SOL     OW17506   2.593   3.071   7.824  0.0398 -0.0727  0.7593
68594SOL    HW117507   2.621   2.993   7.872 -0.6815  0.0997  1.4707
68594SOL    HW217508   2.615   3.052   7.733  1.6486 -0.3053  1.1743
68595SOL     OW17509   0.843   4.174   8.709  0.0855  0.2553  0.6491
68595SOL    HW117510   0.760   4.135   8.738  1.0509 -0.0011  3.4019
68595SOL    HW217511   0.906   4.103   8.715  1.0470  1.1483  1.5367
68596SOL     OW17512   4.877   6.924  12.121  0.0393  0.3177 -0.1213
68596SOL    HW117513   4.834   6.844  12.151  1.7951 -0.6919 -0.1817
68596SOL    HW217514   4.832   6.946  12.039 -1.9610  0.7191  1.0023
68597SOL     OW17515   3.080  11.363   6.950 -0.5778 -0.2122 -0.4034
68597SOL    HW117516   3.097  11.434   6.888  0.6294 -0.6841 -0.6359
68597SOL    HW217517   3.075  11.406   7.035  1.9461  0.0226 -0.2835
68598SOL     OW17518   0.230   1.913  10.385 -0.6574  1.0281 -0.2165
68598SOL    HW117519   0.301   1.975  10.400 -1.5939  1.7964  1.3540
68598SOL    HW217520   0.188   1.944  10.305 -0.1862  1.5132 -0.2844
68599SOL     OW17521   6.034   9.508  11.828 -0.3812 -0.7212 -0.0304
68599SOL    HW117522   6.004   9.556  11.905 -1.4454 -2.2430  0.5697
68599SOL    HW217523   6.026   9.416  11.853 -1.1911 -1.2782 -2.0892
68600SOL     OW17524   6.707   3.138   1.438 -0.2654 -0.3780  0.1597
68600SOL    HW117525   6.761   3.156   1.361 -2.5366 -1.3240 -1.8133
68600SOL    HW217526   6.676   3.048   1.425 -2.0164 -0.0099  1.3210
68601SOL     OW17527   9.099   4.095  11.317  0.7837 -0.2453  0.2384
68601SOL    HW117528   9.170   4.144  11.359  2.3644 -1.0094 -1.4186
68601SOL    HW217529   9.059   4.159  11.258 -0.7468  0.5165  1.9705
68602SOL     OW17530   8.751  10.295   0.628 -0.3460 -0.4801 -0.2625
68602SOL    HW117531   8.790  10.309   0.542 -0.3915 -1.0979 -0.3912
68602SOL    HW217532   8.661  10.270   0.610 -0.4777 -0.1965 -0.0144
68603SOL     OW17533   0.036   9.944  12.336  0.0883  0.4033 -0.2437
68603SOL    HW117534  -0.028  10.006  12.302  0.4360  0.1854 -1.3149
68603SOL    HW217535  -0.016   9.868  12.361 -0.3657  1.1644  1.2651
68604SOL     OW17536  13.164  10.634  11.552  0.0459  0.0257 -0.0847
68604SOL    HW117537  13.104  10.663  11.484 -0.2288 -1.6531 -0.5917
68604SOL    HW217538  13.164  10.705  11.616 -1.4398  0.6291 -0.7229
68605SOL     OW17539   4.688   4.127   7.060  0.5521 -0.6235 -0.2566
68605SOL    HW117540   4.713   4.162   7.146  1.5506  1.5240 -1.3406
68605SOL    HW217541   4.760   4.153   7.002 -0.2922 -1.6586 -1.8383
68606SOL     OW17542   5.880   9.635  12.990 -0.1717  0.9289  0.8408
68606SOL    HW117543   5.967   9.608  13.020 -0.6151  0.4486  1.7459
68606SOL    HW217544   5.826   9.557  13.000 -0.5013  0.9467 -0.6396
68607SOL     OW17545   2.889   9.156   7.424  0.3632  0.3802  0.5674
68607SOL    HW117546   2.873   9.251   7.421  1.5149  0.5589 -0.8432
68607SOL    HW217547   2.883   9.128   7.333 -0.7766 -1.0771  1.0515
68608SOL     OW17548   1.019  10.401   4.683  0.1651  0.2478  0.4056
68608SOL    HW117549   1.057  10.483   4.717  2.5511 -0.3055 -0.7042
68608SOL    HW217550   1.045  10.335   4.747  2.0499 -0.2992 -0.8595
68609SOL     OW17551   1.398  10.597  11.307 -0.2210  0.1308 -0.0782
68609SOL    HW117552   1.361  10.537  11.372 -0.8245  0.2902 -0.2743
68609SOL    HW217553   1.455  10.654  11.358  0.1818 -0.4523  0.1452
68610SOL     OW17554  10.264   6.946  11.339  0.8417 -0.1587  0.0648
68610SOL    HW117555  10.327   6.991  11.284  0.8614  0.2238  0.3956
68610SOL    HW217556  10.313   6.874  11.380  1.5000  1.0918  1.5797
68611SOL     OW17557  11.324   6.843   2.825  0.3831 -0.0626  0.2895
68611SOL    HW117558  11.284   6.904   2.763  2.1704  1.6046  0.6581
68611SOL    HW217559  11.410   6.824   2.788 -0.0985 -2.3865  0.2284
68612SOL     OW17560  12.012   3.999   8.851 -0.9446  0.0301 -0.2625
68612SOL    HW117561  12.049   3.962   8.772  0.7834  0.1473  0.4512
68612SOL    HW217562  12.058   4.083   8.862 -0.6517 -0.2914  1.2043
68613SOL     OW17563  13.433   3.036  12.970  0.3319  0.2083  0.3033
68613SOL    HW117564  13.352   3.087  12.974  0.2759  0.1502 -0.1120
68613SOL    HW217565  13.477   3.057  13.052 -0.1074  0.2315  0.5399
68614SOL     OW17566   5.749   6.791   8.170 -0.1675  0.4623 -0.2966
68614SOL    HW117567   5.685   6.852   8.133 -1.5126 -0.7045  0.0144
68614SOL    HW217568   5.767   6.824   8.257  0.7430  1.5734 -0.8861
68615SOL     OW17569   3.319   8.592   3.978  0.0407 -0.1517 -0.3529
68615SOL    HW117570   3.233   8.610   3.942  0.5402  2.3682 -0.4735
68615SOL    HW217571   3.371   8.564   3.902 -0.5798 -1.5174 -0.3064
68616SOL     OW17572   7.879   3.254  13.690 -0.0284 -0.1488 -0.3571
68616SOL    HW117573   7.890   3.198  13.613 -0.6119 -2.4575  1.1597
68616SOL    HW217574   7.939   3.218  13.755 -1.2171  0.3003  1.0352
68617SOL     OW17575   0.726   5.998  11.893 -0.5853 -0.1023  0.2393
68617SOL    HW117576   0.747   5.904  11.898 -0.0237  0.0512  1.0274
68617SOL    HW217577   0.799   6.041  11.937 -0.4300  0.7779 -0.8321
68618SOL     OW17578   1.869   2.687   6.496 -0.3032  0.4583 -0.4451
68618SOL    HW117579   1.871   2.692   6.592 -1.1486  1.3288 -0.4545
68618SOL    HW217580   1.782   2.721   6.472 -0.4741 -0.6628 -1.4777
68619SOL     OW17581   8.669  11.060   3.891  0.0130 -0.0028 -0.4650
68619SOL    HW117582   8.667  11.154   3.909  0.4576 -0.3607  1.8369
68619SOL    HW217583   8.577  11.034   3.891 -0.0696  0.2361  0.3494
68620SOL     OW17584   6.220   6.249   8.790 -0.0318 -0.1881  0.3223
68620SOL    HW117585   6.178   6.309   8.728 -3.2433 -1.6913  0.8139
68620SOL    HW217586   6.183   6.275   8.875  1.9163 -0.1363  1.1981
68621SOL     OW17587   0.534  12.469   3.386  0.5954  0.1704 -0.2016
68621SOL    HW117588   0.487  12.388   3.404  0.2741  0.5115  0.5110
68621SOL    HW217589   0.585  12.487   3.465 -0.9745  1.7698  0.5175
68622SOL     OW17590  11.516  12.824  13.059  0.1846  0.1783  0.1482
68622SOL    HW117591  11.485  12.735  13.040  0.8298 -0.1935  0.7850
68622SOL    HW217592  11.611  12.815  13.070  0.1017  0.6898  1.5470
68623SOL     OW17593   9.294   0.594   5.297 -0.4434 -0.2914 -0.1641
68623SOL    HW117594   9.289   0.630   5.208 -0.3285  0.1184 -0.0026
68623SOL    HW217595   9.352   0.518   5.288 -0.5190 -0.3156 -0.4630
68624SOL     OW17596   4.995   4.635   1.453 -0.1026 -0.2906  0.2074
68624SOL    HW117597   4.975   4.723   1.486 -0.0419  0.6648 -2.1029
68624SOL    HW217598   4.940   4.625   1.375  0.2841 -2.1015  0.1256
68625SOL     OW17599   4.775   9.065   3.577 -0.0730  0.1661  0.1018
68625SOL    HW117600   4.748   8.987   3.625 -0.9570 -0.7905 -1.8395
68625SOL    HW217601   4.800   9.128   3.645  1.6096 -2.0987  1.7250
68626SOL     OW17602   8.001  11.467   3.052 -0.4073  0.2931  0.2854
68626SOL    HW117603   7.980  11.414   2.974 -0.6510  1.3217 -0.3611
68626SOL    HW217604   7.939  11.437   3.118 -0.3119 -0.4792  0.0365
68627SOL     OW17605   2.694  12.111  13.291  0.4655  0.0501  0.3971
68627SOL    HW117606   2.783  12.080  13.276  0.2192 -1.0573  1.0750
68627SOL    HW217607   2.652  12.040  13.341 -1.1422 -0.0049 -0.9347
68628SOL     OW17608   0.258   3.769   3.684  0.4144 -0.6859 -0.2401
68628SOL    HW117609   0.225   3.778   3.774 -0.5533 -2.2119 -0.3981
68628SOL    HW217610   0.305   3.685   3.684 -0.8008 -1.4055 -1.4669
68629SOL     OW17611   5.414  11.248  10.898 -0.9116 -0.0002 -0.3433
68629SOL    HW117612   5.474  11.290  10.837 -1.0697  0.0314 -0.4794
68629SOL    HW217613   5.468  11.225  10.974 -0.2258 -2.1402 -1.4170
68630SOL     OW17614   0.859   8.131   6.164  0.6500 -0.1293  0.3012
68630SOL    HW117615   0.875   8.193   6.235  1.1332  0.2842 -0.1652
68630SOL    HW217616   0.816   8.183   6.096 -1.2072 -0.8508  0.8688
68631SOL     OW17617   3.340   6.753   5.481  0.5006  0.8549  0.1085
68631SOL    HW117618   3.395   6.730   5.405 -0.2339  2.4526 -0.9583
68631SOL    HW217619   3.253   6.767   5.444  0.0769  1.4833  1.2847
68632SOL     OW17620   8.498  11.757  11.309  0.9949 -0.3036  0.3538
68632SOL    HW117621   8.465  11.713  11.388  0.3612  0.5650  0.5927
68632SOL    HW217622   8.587  11.724  11.298  0.8929 -0.8564  1.1159
68633SOL     OW17623   0.130   7.846   4.352  0.2170 -0.6323 -0.1087
68633SOL    HW117624   0.037   7.824   4.360 -0.1717  0.4267 -1.2569
68633SOL    HW217625   0.132   7.942   4.351  0.9547 -0.5765 -3.0259
68634SOL     OW17626  12.698   6.607  10.919  0.3691  0.0536 -0.6282
68634SOL    HW117627  12.608   6.619  10.891  0.9258  2.7965 -1.5551
68634SOL    HW217628  12.750   6.620  10.840  1.6536  0.0603  0.1938
68635SOL     OW17629   6.200   9.313   7.503 -0.2676 -0.1534  0.3891
68635SOL    HW117630   6.253   9.295   7.581  2.4808 -1.6640 -1.6439
68635SOL    HW217631   6.206   9.407   7.491 -1.7897  0.3041  2.5906
68636SOL     OW17632   4.537  13.705   4.747  0.1749 -0.2473  0.6146
68636SOL    HW117633   4.493  13.713   4.832 -0.1629  0.7703  0.3680
68636SOL    HW217634   4.465  13.699   4.684  0.3914  0.3777  0.2979
68637SOL     OW17635   9.627   0.608   7.471  0.1180 -0.1322 -0.1045
68637SOL    HW117636   9.628   0.672   7.542 -2.2674 -0.3675  0.2196
68637SOL    HW217637   9.636   0.523   7.514  2.4364 -0.1255 -0.4634
68638SOL     OW17638   9.993  10.508  11.777  0.0036  0.4595  0.5902
68638SOL    HW117639  10.071  10.484  11.728  0.8803  1.2235  1.5515
68638SOL    HW217640   9.939  10.556  11.715  0.1972 -0.2501 -0.1412
68639SOL     OW17641   9.023  10.385   7.720  0.3393  0.1682  0.0458
68639SOL    HW117642   8.944  10.400   7.773  1.1138 -0.1590  1.3340
68639SOL    HW217643   9.023  10.290   7.705 -0.1258  0.3163 -0.9723
68640SOL     OW17644  13.313  12.525   1.700  0.2359  0.4633 -0.5131
68640SOL    HW117645  13.310  12.482   1.785  1.4732  0.7912 -0.2753
68640SOL    HW217646  13.401  12.564   1.696 -0.2736  1.6041 -1.3720
68641SOL     OW17647   1.004  10.383   8.886  0.2023  0.6511  0.2266
68641SOL    HW117648   1.027  10.459   8.941  2.5232 -0.3821  0.8229
68641SOL    HW217649   1.063  10.389   8.811  0.4000 -0.5194  0.2668
68642SOL     OW17650   4.743   1.254   9.984  0.2800  0.1364  0.5685
68642SOL    HW117651   4.824   1.220  10.021 -0.1113 -0.8543  0.5404
68642SOL    HW217652   4.768   1.286   9.897  0.5561 -0.6460  0.3473
68643SOL     OW17653   4.927   9.757   6.096  0.1205  0.0479 -0.7429
68643SOL    HW117654   4.946   9.689   6.031 -0.8126 -0.2031 -0.7602
68643SOL    HW217655   4.946   9.839   6.050  0.4198 -0.1667 -1.0093
68644SOL     OW17656   3.923   0.191   5.085 -0.0174  0.2623 -0.0411
68644SOL    HW117657   3.907   0.220   5.175  0.5996  0.5257 -0.0132
68644SOL    HW217658   4.009   0.228   5.063 -0.6070  1.0338 -1.0913
68645SOL     OW17659   1.756  12.671   5.097 -0.1910 -0.1356 -0.3600
68645SOL    HW117660   1.731  12.694   5.008  0.7288  0.4321 -0.4783
68645SOL    HW217661   1.844  12.634   5.090  0.1978  0.6096  0.3920
68646SOL     OW17662  13.270   2.022   4.586 -0.2531 -0.1073  0.3138
68646SOL    HW117663  13.267   1.929   4.567 -0.1404  0.0403 -0.4374
68646SOL    HW217664  13.199   2.060   4.534 -0.5542  0.1790  0.9183
68647SOL     OW17665   1.996   8.199   7.153  0.0451 -0.1401 -0.3497
68647SOL    HW117666   2.048   8.251   7.216  1.0791 -1.5469  0.0208
68647SOL    HW217667   2.049   8.199   7.073 -1.5429  2.1440 -1.5262
68648SOL     OW17668   8.808   1.904   4.534  0.0677 -0.3238 -0.2048
68648SOL    HW117669   8.794   1.813   4.508 -0.3080 -0.8005  1.5202
68648SOL    HW217670   8.759   1.955   4.470 -0.2566 -1.3630 -0.8214
68649SOL     OW17671  13.444   4.612   1.235  0.2195 -0.2260  0.0237
68649SOL    HW117672  13.509   4.542   1.249 -0.1702 -0.6376 -0.2035
68649SOL    HW217673  13.380   4.599   1.305 -0.2997 -0.6208 -0.5174
68650SOL     OW17674   4.239  13.319  13.397  0.2490  0.3238 -0.2214
68650SOL    HW117675   4.194  13.235  13.394 -1.4530  1.1825 -0.9867
68650SOL    HW217676   4.225  13.350  13.487  1.2183 -0.3596  0.1763
68651SOL     OW17677   1.058   6.794   7.146  0.1237  0.2680  0.2288
68651SOL    HW117678   1.153   6.779   7.144  0.2916  0.6404  2.5455
68651SOL    HW217679   1.026   6.734   7.214 -0.7516  2.5344  1.9445
68652SOL     OW17680   4.134   4.342   8.340  0.1981 -0.7645 -0.7645
68652SOL    HW117681   4.066   4.340   8.274  0.4734  0.0303 -1.0929
68652SOL    HW217682   4.216   4.351   8.291  0.6009 -2.2295 -0.4018
68653SOL     OW17683   6.629   3.441  11.797 -0.6098  0.6106  0.0209
68653SOL    HW117684   6.601   3.401  11.880 -1.0288  1.8912  0.5213
68653SOL    HW217685   6.614   3.372  11.732 -1.7436  0.0938  0.7857
68654SOL     OW17686  13.158  11.631  11.955  0.4241 -0.3365 -0.3612
68654SOL    HW117687  13.243  11.652  11.917 -0.1253  0.5168 -1.1476
68654SOL    HW217688  13.100  11.701  11.925 -0.4006 -0.5255  0.7406
68655SOL     OW17689   3.982   2.266   6.635 -0.4253 -0.2053 -0.1573
68655SOL    HW117690   3.960   2.357   6.656  1.8117  0.3844 -0.0804
68655SOL    HW217691   4.001   2.267   6.541  1.2637 -0.1735  0.1506
68656SOL     OW17692   7.212   1.966   1.412 -0.1602 -0.5322  0.0317
68656SOL    HW117693   7.166   2.049   1.426  0.0428 -0.3520 -0.3598
68656SOL    HW217694   7.284   1.967   1.475  0.9048  0.3934 -1.1427
68657SOL     OW17695  12.935   7.383   3.614  0.0212  0.3544  0.1889
68657SOL    HW117696  12.851   7.337   3.616 -0.3755  1.0915  1.5996
68657SOL    HW217697  12.917   7.465   3.569 -0.1229  0.7141  0.9014
68658SOL     OW17698   5.881   1.591   2.685 -0.0563 -0.0737  0.1494
68658SOL    HW117699   5.917   1.601   2.596  0.4646 -0.3040  0.3308
68658SOL    HW217700   5.863   1.680   2.713  0.7067  0.0792  0.1834
68659SOL     OW17701   8.513  10.437  12.477 -0.4895  0.0718  0.9277
68659SOL    HW117702   8.477  10.348  12.474  0.2532 -0.2500  1.3925
68659SOL    HW217703   8.437  10.493  12.494 -0.9838 -0.4560  0.4895
68660SOL     OW17704   1.695   5.742   4.647  0.5115  0.7077  0.5942
68660SOL    HW117705   1.677   5.733   4.554  1.1952 -0.7485  0.5768
68660SOL    HW217706   1.609   5.739   4.689  0.1720  1.7348  0.0032
68661SOL     OW17707   4.256   9.379   6.997  0.1569 -0.1248 -0.1759
68661SOL    HW117708   4.339   9.411   7.033  2.3844 -3.3172 -1.9795
68661SOL    HW217709   4.225   9.451   6.943  1.1957  1.5281  1.2934
68662SOL     OW17710  12.088   5.921   3.116  0.0015  0.1819 -0.1576
68662SOL    HW117711  12.114   5.989   3.053 -0.9242 -0.4104 -1.2176
68662SOL    HW217712  12.144   5.847   3.095 -1.5309 -0.6431 -1.5586
68663SOL     OW17713  10.534  11.338   8.446  0.2203  0.0821  0.6036
68663SOL    HW117714  10.597  11.383   8.502  0.2922  0.6094  0.1142
68663SOL    HW217715  10.497  11.269   8.501 -1.2876  1.9110  1.9872
68664SOL     OW17716   5.783  11.325  11.446 -0.0190 -0.3473  0.5434
68664SOL    HW117717   5.838  11.302  11.521  2.2836 -0.7001 -1.1389
68664SOL    HW217718   5.704  11.272  11.457  0.3911 -0.6407  2.4998
68665SOL     OW17719  13.153  10.643  10.120 -0.8745  0.5724  0.1468
68665SOL    HW117720  13.209  10.720  10.112 -1.1075  0.8575  1.1060
68665SOL    HW217721  13.147  10.628  10.214 -0.4594 -0.8995 -0.0290
68666SOL     OW17722   7.152   6.194  13.589  0.4044 -0.2326 -0.4691
68666SOL    HW117723   7.185   6.120  13.537  0.4320 -0.5325 -0.0320
68666SOL    HW217724   7.059   6.199  13.565  0.4191 -0.3640 -0.5586
68667SOL     OW17725   6.851   9.107  13.367  0.2699 -0.1781 -0.0477
68667SOL    HW117726   6.809   9.115  13.282 -0.8467  0.3143  0.5340
68667SOL    HW217727   6.882   9.016  13.370 -0.3922 -0.4291 -0.6549
68668SOL     OW17728  12.200  12.285   6.609  0.0198 -0.3380 -0.9693
68668SOL    HW117729  12.166  12.356   6.664  0.1497 -0.5695 -0.5864
68668SOL    HW217730  12.122  12.239   6.579  0.0061 -1.5800  0.8536
68669SOL     OW17731   5.895  10.520   1.582  0.3116 -0.6700 -0.1211
68669SOL    HW117732   5.925  10.570   1.658 -0.9160 -2.0030  1.2939
68669SOL    HW217733   5.807  10.554   1.564 -0.0604 -1.4711  0.1185
68670SOL     OW17734   6.091   8.608  12.982 -0.6493 -0.6233 -0.3495
68670SOL    HW117735   6.074   8.587  12.890  3.2641  0.5653 -1.5210
68670SOL    HW217736   6.012   8.654  13.011 -1.9105 -0.7934 -3.1676
68671SOL     OW17737   5.847   0.902   1.209 -0.7238 -0.5906 -0.6066
68671SOL    HW117738   5.889   0.899   1.122  1.7058  0.4892  0.4291
68671SOL    HW217739   5.819   0.993   1.219  0.3274 -0.3400  0.2632
68672SOL     OW17740   0.903   3.332   3.077  0.2071 -0.4050  0.0734
68672SOL    HW117741   0.884   3.367   3.164  1.4464  0.5240 -0.0026
68672SOL    HW217742   0.858   3.392   3.017  2.4087  1.2132 -0.0614
68673SOL     OW17743   6.913   2.015   3.207 -0.3191 -0.8715  0.6650
68673SOL    HW117744   6.992   1.977   3.246  2.3871  2.8577 -0.6637
68673SOL    HW217745   6.869   2.060   3.279  0.6188 -0.1659  0.8039
68674SOL     OW17746   5.968   5.555   2.881 -0.3233 -0.2492  0.3796
68674SOL    HW117747   6.028   5.566   2.808 -2.1366  0.7295 -1.0563
68674SOL    HW217748   6.022   5.521   2.953  1.1477 -3.6006 -2.0554
68675SOL     OW17749   2.104   5.983   4.372  0.1721  0.0512 -0.1066
68675SOL    HW117750   2.144   5.933   4.443 -0.0885 -1.3871 -0.9351
68675SOL    HW217751   2.030   5.929   4.344  0.5866  0.3339 -1.8070
68676SOL     OW17752  11.109   9.501   8.320 -0.3048  0.4330 -0.2498
68676SOL    HW117753  11.139   9.520   8.409 -1.2027 -1.1104  0.4231
68676SOL    HW217754  11.189   9.499   8.268  0.3325  0.4448  0.7089
68677SOL     OW17755   8.652   2.504   0.048 -0.7034 -0.3779  0.2737
68677SOL    HW117756   8.668   2.590   0.010 -0.8184  0.9065  2.9115
68677SOL    HW217757   8.564   2.481   0.021 -0.1498 -0.3900 -1.6460
68678SOL     OW17758  10.906   5.494   1.402 -0.2254 -0.0390 -0.0523
68678SOL    HW117759  10.944   5.414   1.365  0.3249  0.6368 -1.0206
68678SOL    HW217760  10.826   5.465   1.445 -0.6503 -0.9550 -1.3872
68679SOL     OW17761   2.783   0.123   9.561  0.3408 -0.0269  0.4375
68679SOL    HW117762   2.709   0.164   9.606 -1.4337 -1.6668 -0.7913
68679SOL    HW217763   2.810   0.187   9.496 -1.5643 -0.2482 -0.6428
68680SOL     OW17764   6.751  10.348   9.808 -0.2204  0.1252 -0.3653
68680SOL    HW117765   6.702  10.357   9.726  0.1127 -0.7293 -0.6781
68680SOL    HW217766   6.774  10.255   9.811  2.2765  0.6596 -0.7763
68681SOL     OW17767  10.237  12.616   7.236 -0.2617  0.6904 -0.0054
68681SOL    HW117768  10.247  12.711   7.235 -1.9200  0.9120  1.1982
68681SOL    HW217769  10.296  12.587   7.306  0.3081  0.8034 -0.4280
68682SOL     OW17770   7.431  11.123   6.565  0.0289  0.0602  0.3628
68682SOL    HW117771   7.407  11.184   6.495 -0.6296 -0.9378 -0.2918
68682SOL    HW217772   7.465  11.180   6.635 -3.0721  1.4786  0.8918
68683SOL     OW17773   6.083   0.793   5.773  0.4166  0.0878  0.4376
68683SOL    HW117774   6.010   0.805   5.713 -0.2393 -2.5518  0.5853
68683SOL    HW217775   6.151   0.751   5.720  1.5376  1.6941  0.5274
68684SOL     OW17776   7.695   2.407   9.037 -0.1252 -0.0201  1.0699
68684SOL    HW117777   7.710   2.424   8.944  0.1683  0.3649  1.1829
68684SOL    HW217778   7.737   2.481   9.082  0.0665 -0.3992  1.5266
68685SOL     OW17779  12.663  10.510   2.963 -0.0375 -0.4614  0.3332
68685SOL    HW117780  12.704  10.590   2.930 -0.5903 -0.3635 -0.1306
68685SOL    HW217781  12.707  10.492   3.046 -0.8918  1.1003  1.1502
68686SOL     OW17782  11.908   4.888  11.320 -0.0444  0.5663 -0.0891
68686SOL    HW117783  11.892   4.815  11.379  0.4632 -0.0156 -0.6547
68686SOL    HW217784  11.986   4.931  11.355  0.5126 -0.0346 -0.5552
68687SOL     OW17785  11.520  11.551   4.522 -0.3481  0.8712  0.3428
68687SOL    HW117786  11.440  11.553   4.469  0.7475  0.4476 -1.4115
68687SOL    HW217787  11.589  11.578   4.461  1.0194  0.0467  1.4846
68688SOL     OW17788   1.999  12.333   6.946  0.0292 -0.3511  0.2789
68688SOL    HW117789   1.974  12.421   6.973 -0.2377 -0.5596  0.7381
68688SOL    HW217790   2.041  12.295   7.024  2.0307  0.0710 -0.5541
68689SOL     OW17791   0.083   6.437   7.735 -0.0287  0.1901  0.3327
68689SOL    HW117792   0.080   6.342   7.744  1.0145  0.2450  1.6937
68689SOL    HW217793   0.131   6.452   7.654 -0.8591 -0.4280 -0.2927
68690SOL     OW17794   7.732   4.429   1.891 -0.3393 -0.1947 -0.7624
68690SOL    HW117795   7.692   4.499   1.840 -0.3684 -0.7606 -1.5208
68690SOL    HW217796   7.710   4.451   1.982  0.3534  1.2268 -0.9018
68691SOL     OW17797   6.055  11.091   9.915 -0.1540 -0.1897 -0.8450
68691SOL    HW117798   6.140  11.051   9.897  0.1245  0.3629 -0.7806
68691SOL    HW217799   6.054  11.171   9.862 -1.1431 -0.8103 -1.8152
68692SOL     OW17800   2.896   0.389   4.458 -0.5865  0.4753 -0.4607
68692SOL    HW117801   2.887   0.295   4.441 -1.9675  0.5039  0.0099
68692SOL    HW217802   2.820   0.411   4.511  1.0835  1.3287  1.7597
68693SOL     OW17803   1.762  12.349   1.203  0.2539  0.2401 -0.1996
68693SOL    HW117804   1.694  12.305   1.152  0.4429 -0.6633  0.2907
68693SOL    HW217805   1.770  12.436   1.164 -1.8389  0.7209  0.3126
68694SOL     OW17806   9.349   1.407   3.975  0.1468  0.6264 -0.1090
68694SOL    HW117807   9.409   1.370   3.911  0.5857 -0.2372  0.7786
68694SOL    HW217808   9.339   1.339   4.041  0.5099  1.8642  1.2791
68695SOL     OW17809   8.412   9.820   7.112 -0.3052 -0.3461  0.7557
68695SOL    HW117810   8.365   9.797   7.192 -0.6068 -2.3873  0.0556
68695SOL    HW217811   8.504   9.799   7.131 -0.2884 -0.2466  0.7832
68696SOL     OW17812  11.548  11.176   2.492  0.0678 -0.6324  0.0640
68696SOL    HW117813  11.474  11.194   2.550  1.5520 -1.7986  2.5219
68696SOL    HW217814  11.527  11.092   2.451 -0.8003 -0.0204 -0.7616
68697SOL     OW17815  13.011  10.858  10.434  0.5309  0.1099  0.0750
68697SOL    HW117816  13.030  10.882  10.525  1.5652  0.2501 -0.1778
68697SOL    HW217817  13.016  10.763  10.433 -0.8230  0.0049  0.4473
68698SOL     OW17818   0.774   8.822   0.244 -0.7370 -0.3266 -0.0782
68698SOL    HW117819   0.803   8.804   0.155 -0.9120  0.3197 -0.2703
68698SOL    HW217820   0.697   8.767   0.256 -0.9717 -0.0868 -0.4802
68699SOL     OW17821   6.075   3.687   9.451  0.2274  0.4426 -0.3930
68699SOL    HW117822   6.033   3.735   9.523  0.9340  3.2529 -1.7052
68699SOL    HW217823   6.168   3.702   9.465  0.5544 -1.4410 -0.3484
68700SOL     OW17824  10.145   3.185   5.332 -0.0860 -0.4043 -0.0785
68700SOL    HW117825  10.202   3.110   5.314 -0.8757 -1.3272  1.1672
68700SOL    HW217826  10.062   3.163   5.289  0.1129  0.4345 -0.9361
68701SOL     OW17827   8.190   7.876   5.238  0.2662 -0.3889 -0.0549
68701SOL    HW117828   8.150   7.895   5.153 -1.5811 -2.6646  0.2222
68701SOL    HW217829   8.217   7.785   5.232 -0.0230 -0.6294  1.8336
68702SOL     OW17830   5.879  12.072   5.302 -0.3078  0.4024 -0.1302
68702SOL    HW117831   5.879  11.996   5.360 -1.7297  1.1111  0.8507
68702SOL    HW217832   5.945  12.051   5.236 -1.0640 -1.9455 -0.2536
68703SOL     OW17833   0.041   9.712  11.596  0.0288  0.0430  0.2165
68703SOL    HW117834   0.045   9.617  11.594  0.7678  0.0639  0.4960
68703SOL    HW217835  -0.026   9.735  11.532  1.5312 -0.5750 -1.6761
68704SOL     OW17836  11.099  10.697   4.122  0.0341 -0.1597  0.2401
68704SOL    HW117837  11.145  10.765   4.073  0.1390 -0.9019 -0.7056
68704SOL    HW217838  11.007  10.726   4.122 -0.0458 -0.3733 -0.7983
68705SOL     OW17839   9.927  11.887   0.241 -0.6244  0.1310 -0.3060
68705SOL    HW117840   9.998  11.951   0.247 -1.0869  0.5532  0.8908
68705SOL    HW217841   9.966  11.806   0.273 -0.5381  0.2398 -0.1356
68706SOL     OW17842   4.197  10.050   8.840 -0.1548 -0.2886  0.0933
68706SOL    HW117843   4.287  10.080   8.825  0.3938 -1.4059  0.9663
68706SOL    HW217844   4.153  10.125   8.880  1.0085 -0.3878  1.6437
68707SOL     OW17845   9.868   0.788   7.841 -0.1170  0.2262 -0.3888
68707SOL    HW117846   9.827   0.816   7.759 -0.5005  1.0084  0.0604
68707SOL    HW217847   9.796   0.782   7.903  0.3861  1.3690  0.3415
68708SOL     OW17848   6.676  10.864   4.021 -0.1454  0.2998 -0.0941
68708SOL    HW117849   6.690  10.771   4.038 -0.4731  0.2279 -0.2229
68708SOL    HW217850   6.676  10.871   3.926  0.2036  0.4808 -0.0816
68709SOL     OW17851   8.369   5.128  11.275 -0.1221 -0.3231  0.7316
68709SOL    HW117852   8.332   5.111  11.362  0.2309  0.9851  1.1757
68709SOL    HW217853   8.387   5.223  11.276  3.6474 -0.8861  0.7470
68710SOL     OW17854   8.337   3.665   0.193  0.4396 -0.6792  0.3592
68710SOL    HW117855   8.242   3.651   0.196  0.3080  0.2179  0.7299
68710SOL    HW217856   8.365   3.659   0.285  0.4901  0.6173  0.4477
68711SOL     OW17857  10.347   9.833   2.178 -0.0107  0.3711 -0.3903
68711SOL    HW117858  10.403   9.796   2.246  0.3444 -1.7443 -1.7105
68711SOL    HW217859  10.287   9.762   2.156  0.0824  0.8607 -2.4362
68712SOL     OW17860  10.111  13.380  10.628 -0.2813 -0.4500 -0.1088
68712SOL    HW117861  10.148  13.467  10.640  0.6156 -0.8084 -0.2292
68712SOL    HW217862  10.118  13.364  10.533 -1.4289 -0.2314 -0.2518
68713SOL     OW17863   3.313  10.964  12.669  0.0008  0.1636  0.1005
68713SOL    HW117864   3.263  11.005  12.740  1.4621  0.7044  0.8660
68713SOL    HW217865   3.319  10.872  12.695 -1.5800 -0.1746 -0.6121
68714SOL     OW17866   3.913   6.151  11.359  0.2807 -0.7431 -0.3875
68714SOL    HW117867   3.908   6.237  11.317 -4.0601 -0.8907 -0.6192
68714SOL    HW217868   3.896   6.169  11.451  0.8912 -1.2406 -0.1748
68715SOL     OW17869   9.925   7.918  13.510  0.0602  0.0404 -0.0395
68715SOL    HW117870   9.951   7.896  13.599  1.1362  1.0542 -0.0800
68715SOL    HW217871  10.008   7.931  13.463 -0.4356  2.5277 -0.3884
68716SOL     OW17872  12.843  13.028   4.208  0.1259 -0.3831 -0.1970
68716SOL    HW117873  12.911  12.972   4.169  0.0168  0.4538 -1.6853
68716SOL    HW217874  12.763  12.976   4.202  0.3046 -0.6665 -0.1410
68717SOL     OW17875   0.262   5.747   5.472  0.5205 -0.5843 -0.1627
68717SOL    HW117876   0.268   5.761   5.377 -0.5173 -2.3945 -0.5236
68717SOL    HW217877   0.172   5.719   5.487  0.7068 -0.4306  1.3637
68718SOL     OW17878   8.456   4.345  11.763 -0.5338 -0.3431  0.4153
68718SOL    HW117879   8.534   4.290  11.759 -0.0236  0.3396  0.6896
68718SOL    HW217880   8.408   4.326  11.683  0.7307  0.4167 -0.5573
68719SOL     OW17881   1.463   3.599  11.109 -0.2656 -0.1986  0.3441
68719SOL    HW117882   1.422   3.564  11.188  1.7103 -0.2170  1.4069
68719SOL    HW217883   1.445   3.533  11.042 -1.2075 -0.6145  0.9832
68720SOL     OW17884  10.567   4.146   7.417 -0.2535 -0.3110 -0.6220
68720SOL    HW117885  10.641   4.206   7.430 -0.5789  0.0961 -0.6254
68720SOL    HW217886  10.607   4.065   7.388  0.5688 -1.2718  2.7432
68721SOL     OW17887  10.567   8.163   2.560  0.0437 -0.2361 -0.5880
68721SOL    HW117888  10.619   8.242   2.549 -1.9522  1.5542  1.6427
68721SOL    HW217889  10.535   8.143   2.472  0.6675  1.4019 -1.2286
68722SOL     OW17890   7.586   9.165  12.795 -0.0418 -0.1732 -0.2381
68722SOL    HW117891   7.636   9.099  12.845  1.0374  0.9758  0.2575
68722SOL    HW217892   7.495   9.140  12.807  0.3044 -1.0867  0.6559
68723SOL     OW17893   1.592   7.745   1.836 -0.0100  0.0785  0.4675
68723SOL    HW117894   1.664   7.806   1.821 -0.4444  0.3507 -0.5746
68723SOL    HW217895   1.635   7.660   1.848  0.5143  0.3377  0.4387
68724SOL     OW17896   0.707   0.068   9.201 -0.4852  0.1025 -0.2134
68724SOL    HW117897   0.684   0.137   9.263 -2.4246 -0.6734  0.0062
68724SOL    HW217898   0.638   0.072   9.134  0.7881  0.0135 -1.5737
68725SOL     OW17899  10.195   9.899  11.628 -0.2772  0.3953  0.1790
68725SOL    HW117900  10.281   9.939  11.639 -0.5071  1.2824 -1.0375
68725SOL    HW217901  10.164   9.930  11.543 -0.9736 -1.4667 -0.3104
68726SOL     OW17902   1.777   5.666   3.706  0.3066  0.0220  0.6892
68726SOL    HW117903   1.718   5.649   3.779 -0.8085  0.2786 -0.1178
68726SOL    HW217904   1.813   5.753   3.724 -1.0395  0.6935  0.2592
68727SOL     OW17905  13.126   9.227  13.499  0.1658  0.3047 -0.0558
68727SOL    HW117906  13.125   9.320  13.520 -0.0477  0.0135  1.3026
68727SOL    HW217907  13.064   9.188  13.560  1.1042 -0.8881  0.1724
68728SOL     OW17908  12.147   0.886   6.670  0.4908  0.3872  0.3912
68728SOL    HW117909  12.153   0.923   6.582  2.5215 -0.5936  0.0603
68728SOL    HW217910  12.223   0.921   6.716  0.2306 -0.2294  1.3117
68729SOL     OW17911   0.198   6.977   5.486 -0.1424 -0.2190  0.3501
68729SOL    HW117912   0.221   6.897   5.534 -1.0189 -0.0775  1.0352
68729SOL    HW217913   0.129   6.950   5.426 -0.4544  0.0175  0.5973
68730SOL     OW17914  11.858   3.298   0.420 -0.3660  0.4538 -0.4649
68730SOL    HW117915  11.947   3.329   0.433 -0.3764  0.3979 -0.2468
68730SOL    HW217916  11.818   3.302   0.507 -0.3162 -0.3333 -0.3972
68731SOL     OW17917   4.144  12.922   6.418  0.2704 -0.0495  0.5507
68731SOL    HW117918   4.228  12.880   6.397  0.1838 -0.4803  1.0352
68731SOL    HW217919   4.090  12.907   6.340  1.0754  1.4487 -0.3463
68732SOL     OW17920   3.777   9.785  11.277 -0.2642  0.1549 -0.4830
68732SOL    HW117921   3.782   9.690  11.281  1.0374  0.2386  0.4699
68732SOL    HW217922   3.778   9.813  11.368 -0.2013  1.1042 -0.7619
68733SOL     OW17923  11.534   3.103   0.020 -0.3457  0.3922  0.1801
68733SOL    HW117924  11.572   3.032  -0.032  0.8380  1.0464  0.1213
68733SOL    HW217925  11.500   3.165  -0.045 -0.1165  0.5448  0.2041
68734SOL     OW17926   7.369   3.579  13.461 -0.0122 -0.0704 -0.1403
68734SOL    HW117927   7.358   3.636  13.537 -1.1378 -0.3619 -0.0741
68734SOL    HW217928   7.290   3.592  13.409  0.0572 -1.0059 -0.5017
68735SOL     OW17929   5.717  10.117   3.876  0.1626 -0.2414 -0.2314
68735SOL    HW117930   5.703  10.047   3.941  0.6462  1.1663  1.4799
68735SOL    HW217931   5.703  10.198   3.926 -0.2561  0.9056 -2.1187
68736SOL     OW17932   8.076   3.952  13.378 -0.0030  0.3373  0.0580
68736SOL    HW117933   8.075   4.039  13.419 -1.5896  0.1864  0.3866
68736SOL    HW217934   8.048   3.968  13.288 -1.7036  0.0073  0.5077
68737SOL     OW17935   7.849   3.602   6.996  0.0143  0.0281  0.1229
68737SOL    HW117936   7.898   3.520   7.007 -1.0812 -0.9387 -1.7341
68737SOL    HW217937   7.868   3.629   6.906 -1.2824  0.6905  0.0340
68738SOL     OW17938   2.571   5.096   8.296 -0.0835  0.5911  0.1126
68738SOL    HW117939   2.512   5.167   8.320 -0.1513  0.5281  0.1306
68738SOL    HW217940   2.645   5.105   8.356 -0.8681 -0.3911  1.2579
68739SOL     OW17941  11.177   5.116  13.498 -0.0736 -0.0858  0.8910
68739SOL    HW117942  11.155   5.207  13.478 -0.3684 -0.3095  0.1762
68739SOL    HW217943  11.095   5.068  13.487  0.2074 -0.5253  0.6840
68740SOL     OW17944  11.302   1.229   0.821  0.0454 -0.2097  0.1713
68740SOL    HW117945  11.241   1.238   0.894 -0.4608  0.3801 -0.3215
68740SOL    HW217946  11.329   1.319   0.801  0.2078 -0.3717 -0.3482
68741SOL     OW17947   0.755  11.202  11.936 -0.0496 -0.0713 -0.7729
68741SOL    HW117948   0.817  11.264  11.898  1.7455 -0.6118  1.0920
68741SOL    HW217949   0.675  11.254  11.950  0.2243  0.8646 -2.4354
68742SOL     OW17950  12.204   8.940  13.379 -0.1009  0.1180  0.1519
68742SOL    HW117951  12.291   8.968  13.409 -0.0369 -0.9125  0.9957
68742SOL    HW217952  12.169   8.890  13.453 -0.8627 -0.6154 -0.6940
68743SOL     OW17953  12.481   3.451   1.290  0.2862 -0.4033  0.2353
68743SOL    HW117954  12.391   3.470   1.317  0.0803 -0.3143 -0.4965
68743SOL    HW217955  12.531   3.452   1.371 -0.5961 -1.8276  0.8334
68744SOL     OW17956   8.449  11.503   9.138 -0.5907  0.2457 -0.5682
68744SOL    HW117957   8.473  11.595   9.127 -0.2732  0.4387  1.3884
68744SOL    HW217958   8.507  11.471   9.208 -1.5578 -1.0823 -0.3350
68745SOL     OW17959   4.008   5.614  13.146  0.5451  0.5682  0.0423
68745SOL    HW117960   3.997   5.664  13.227  1.5474 -0.1244  0.6316
68745SOL    HW217961   3.919   5.586  13.122  0.3029  0.2455  1.2572
68746SOL     OW17962   2.551   2.975   7.340 -0.3584  0.1629 -0.0292
68746SOL    HW117963   2.507   2.907   7.391 -1.9820 -0.0960 -1.6326
68746SOL    HW217964   2.534   3.056   7.387  0.7100 -0.3840  1.3549
68747SOL     OW17965   6.435   0.814   6.900  0.0002  0.2388  0.4132
68747SOL    HW117966   6.500   0.745   6.909 -0.3451  0.0583  1.7931
68747SOL    HW217967   6.353   0.768   6.885 -0.5516  0.1862  3.1320
68748SOL     OW17968   6.082  10.702   9.318 -0.0907  0.5157  1.0622
68748SOL    HW117969   6.150  10.680   9.255 -1.8991  0.6084 -1.0085
68748SOL    HW217970   6.077  10.625   9.376  1.2275  0.2010  0.7809
68749SOL     OW17971   4.675   9.525  13.472 -0.0290 -0.3708 -0.5247
68749SOL    HW117972   4.767   9.540  13.450  0.2479  0.3839  0.9834
68749SOL    HW217973   4.629   9.601  13.436  0.1564 -0.0333 -0.0598
68750SOL     OW17974  11.373   0.742   9.365 -0.2956  0.1441 -0.3315
68750SOL    HW117975  11.342   0.675   9.304  1.7880 -2.0926  0.8833
68750SOL    HW217976  11.463   0.758   9.338  0.4544 -0.3924  1.6441
68751SOL     OW17977   2.994   6.548   8.902 -0.5807  0.4368 -0.0546
68751SOL    HW117978   3.007   6.454   8.883  0.6743 -0.1002  2.9532
68751SOL    HW217979   3.074   6.574   8.948 -0.7939  3.1145 -1.0263
68752SOL     OW17980   5.729   5.548   0.439 -0.1623  0.1676  0.2766
68752SOL    HW117981   5.653   5.603   0.419  0.0758  0.2800 -0.3459
68752SOL    HW217982   5.775   5.596   0.507 -1.3837 -0.5819  1.6842
68753SOL     OW17983   0.129  11.760   1.820 -0.6885  0.1209  0.0062
68753SOL    HW117984   0.072  11.733   1.748 -1.0124  0.3360  0.1796
68753SOL    HW217985   0.083  11.832   1.862 -1.4698 -1.2523  1.6347
68754SOL     OW17986   4.384  10.442   5.180 -0.1985 -0.0024 -0.0680
68754SOL    HW117987   4.311  10.500   5.201 -1.7933 -1.6219 -0.8503
68754SOL    HW217988   4.381  10.374   5.247 -0.3698 -0.8986 -0.9696
68755SOL     OW17989   5.193   1.225  12.516  0.4428 -0.1223 -0.1590
68755SOL    HW117990   5.258   1.291  12.543  0.4073  0.9974 -2.5455
68755SOL    HW217991   5.246   1.148  12.495  0.6026 -0.4943  1.4888
68756SOL     OW17992   1.232   4.345  13.209  0.3535 -0.0649 -0.6955
68756SOL    HW117993   1.193   4.289  13.141  0.0294 -0.8696  0.1251
68756SOL    HW217994   1.294   4.288  13.254  1.0442  0.6497 -0.7244
68757SOL     OW17995   2.228  13.282   0.871  0.5520 -0.4512 -0.1829
68757SOL    HW117996   2.300  13.273   0.933  0.3139 -1.9473 -0.0820
68757SOL    HW217997   2.150  13.291   0.926  0.1942 -2.9066 -0.1586
68758SOL     OW17998   0.704   8.844   4.856  0.3436 -0.3920  0.1728
68758SOL    HW117999   0.665   8.855   4.942 -1.7670  0.5576 -0.8580
68758SOL    HW218000   0.778   8.904   4.856  0.2227 -0.2162  1.2130
68759SOL     OW18001  12.465   0.299  11.139 -0.0215 -0.5583 -0.4145
68759SOL    HW118002  12.523   0.351  11.083 -0.4330  2.3016  1.6148
68759SOL    HW218003  12.382   0.299  11.093  0.4433 -0.9810 -1.2817
68760SOL     OW18004  11.779  11.112   9.664  0.1257 -0.2412 -0.9440
68760SOL    HW118005  11.768  11.198   9.705  1.7075 -0.5064  0.1217
68760SOL    HW218006  11.714  11.056   9.708 -0.2585  0.1732 -0.9736
68761SOL     OW18007   0.318   1.934  12.160 -0.1526  0.3734  0.0143
68761SOL    HW118008   0.322   1.854  12.109 -1.4349  0.0840  0.3420
68761SOL    HW218009   0.409   1.965  12.163  0.6479 -1.8751  1.1968
68762SOL     OW18010   6.966   6.968  10.994  0.4044  0.1290 -0.3048
68762SOL    HW118011   6.996   7.054  10.963  1.9841  0.3894  1.7300
68762SOL    HW218012   6.959   6.978  11.089 -1.4009 -1.4318 -0.2179
68763SOL     OW18013  10.298   0.402   3.745 -0.3016  0.0055  0.6126
68763SOL    HW118014  10.354   0.354   3.806  0.7793  0.3275 -0.1028
68763SOL    HW218015  10.358   0.453   3.692 -1.4134  2.2267  1.3766
68764SOL     OW18016   4.414   0.046   9.757 -0.4344 -0.6637 -0.3721
68764SOL    HW118017   4.344   0.088   9.808 -0.7467 -0.1927 -1.1604
68764SOL    HW218018   4.442   0.114   9.696  0.7214 -0.8551 -0.0643
68765SOL     OW18019   7.700  12.040   0.783  0.0336 -0.1493 -0.5935
68765SOL    HW118020   7.654  11.956   0.788  2.3149 -1.4230  1.2035
68765SOL    HW218021   7.661  12.093   0.852  0.1087 -0.5955 -0.2038
68766SOL     OW18022   4.516   0.255   5.748  0.5051 -0.0776  0.2288
68766SOL    HW118023   4.479   0.250   5.836 -0.0070  0.7059  0.0713
68766SOL    HW218024   4.442   0.274   5.691  0.8599 -0.4028 -0.3556
68767SOL     OW18025   7.859   9.920   6.111  0.2100 -0.2116 -0.2263
68767SOL    HW118026   7.844   9.918   6.206  2.2435 -2.3502  0.1549
68767SOL    HW218027   7.870  10.013   6.091  0.4488  0.2518  1.7978
68768SOL     OW18028  12.670   0.338   1.987 -0.0631 -0.0890 -0.1261
68768SOL    HW118029  12.596   0.382   2.029  0.3066  1.5972 -1.1341
68768SOL    HW218030  12.737   0.407   1.978  1.3855 -1.4006  0.1521
68769SOL     OW18031   0.803   4.312  11.350  0.1633 -0.1978  0.0569
68769SOL    HW118032   0.812   4.306  11.255  0.5884 -1.7771  0.1690
68769SOL    HW218033   0.849   4.393  11.373  0.4426 -0.0257 -1.0256
68770SOL     OW18034  11.421   7.686   6.827  0.0201 -0.3708  0.0187
68770SOL    HW118035  11.435   7.634   6.907  0.0917 -0.5133 -0.0855
68770SOL    HW218036  11.438   7.776   6.854  0.4854 -0.4647  0.0581
68771SOL     OW18037  13.145   3.465  12.473 -0.4474 -0.3459  0.3900
68771SOL    HW118038  13.168   3.527  12.404 -2.2271 -1.1675 -1.0469
68771SOL    HW218039  13.116   3.520  12.546  0.5720  0.5264  0.1666
68772SOL     OW18040   1.357   0.380   5.017 -0.0329  0.1705  0.0561
68772SOL    HW118041   1.431   0.332   5.054 -0.1819  1.0367  1.5674
68772SOL    HW218042   1.281   0.324   5.035  0.0569 -0.0052 -0.1067
68773SOL     OW18043   4.468   6.330   8.666  0.5660  0.1977  0.1787
68773SOL    HW118044   4.513   6.314   8.583 -0.4525  1.6248 -0.6978
68773SOL    HW218045   4.419   6.411   8.652  0.2047  0.3728  2.1240
68774SOL     OW18046   6.947   5.949   8.787  0.5819 -0.2722 -0.1553
68774SOL    HW118047   6.944   5.952   8.691 -0.1296  0.1406 -0.1351
68774SOL    HW218048   6.991   6.030   8.812  1.6853 -0.8634 -0.1547
68775SOL     OW18049   9.980  10.697   3.891 -0.1924 -0.0631  0.2426
68775SOL    HW118050   9.930  10.777   3.903  0.7835  0.7972 -1.1121
68775SOL    HW218051  10.001  10.695   3.798  1.9035 -0.5869  0.6632
68776SOL     OW18052   9.802   4.665   1.043  0.0538 -0.5368 -0.3606
68776SOL    HW118053   9.897   4.653   1.036 -0.1820 -1.4364 -2.9861
68776SOL    HW218054   9.791   4.759   1.059  1.3746 -0.5679  0.9932
68777SOL     OW18055  13.704  12.615   4.928 -0.0855 -0.4978  0.1887
68777SOL    HW118056  13.611  12.638   4.932 -0.0406 -0.5288  1.7424
68777SOL    HW218057  13.709  12.526   4.963  0.3710 -1.0956 -1.2814
68778SOL     OW18058   6.451  11.847   9.904 -0.2558  0.1169 -0.6289
68778SOL    HW118059   6.525  11.907   9.919 -0.2153  0.1979 -1.1337
68778SOL    HW218060   6.390  11.898   9.850 -1.1917  0.4390  0.6708
68779SOL     OW18061   1.411   9.300  13.484  0.4930  0.4891 -0.1063
68779SOL    HW118062   1.378   9.389  13.498  0.4822  0.4407  0.1872
68779SOL    HW218063   1.349   9.244  13.530  0.6998  0.3557  0.0124
68780SOL     OW18064  13.442  12.838   9.686  0.4701 -0.0384 -0.1147
68780SOL    HW118065  13.467  12.842   9.779  0.6910 -1.6558 -0.0762
68780SOL    HW218066  13.517  12.875   9.639  1.8471 -2.3002  0.1716
68781SOL     OW18067  11.768   9.703  11.676  0.7112 -0.0721 -0.0384
68781SOL    HW118068  11.854   9.739  11.697  0.6191 -0.3302  0.8057
68781SOL    HW218069  11.706   9.772  11.700  0.6557  0.0131 -0.4069
68782SOL     OW18070   7.223   2.061   7.675  0.2217  0.1767  0.2043
68782SOL    HW118071   7.152   2.123   7.692 -0.3012 -0.2818 -0.2620
68782SOL    HW218072   7.283   2.107   7.616 -1.3500 -0.5339 -2.0852
68783SOL     OW18073  13.564  12.984   6.511  0.3074  0.3506  0.6702
68783SOL    HW118074  13.655  13.007   6.488  0.5245  0.0877  1.2472
68783SOL    HW218075  13.573  12.908   6.568 -0.4088 -1.4960 -1.5206
68784SOL     OW18076  13.160   5.842  10.806  0.0791 -0.0809 -0.6097
68784SOL    HW118077  13.120   5.926  10.824 -0.3420 -0.1476 -1.2152
68784SOL    HW218078  13.228   5.832  10.873 -0.7152  0.1585  0.2322
68785SOL     OW18079   5.784   6.351   9.682  0.1068  0.1476  0.2686
68785SOL    HW118080   5.835   6.429   9.702  0.9612 -0.8607  2.2747
68785SOL    HW218081   5.848   6.289   9.646 -0.4790  0.1760 -0.8812
68786SOL     OW18082  10.819   5.157  11.599  0.5641 -0.0948 -0.3550
68786SOL    HW118083  10.825   5.092  11.529 -0.2144 -1.2436  0.6126
68786SOL    HW218084  10.750   5.217  11.569 -0.2498 -0.9649 -0.3051
68787SOL     OW18085   5.899  12.494  11.141  0.7227 -0.1692 -0.2684
68787SOL    HW118086   5.963  12.560  11.116  1.3377 -1.0711 -1.1482
68787SOL    HW218087   5.824  12.511  11.084  0.9597 -0.3371 -0.6392
68788SOL     OW18088   7.921   5.216   6.003 -0.0577  0.0450  0.7552
68788SOL    HW118089   7.850   5.160   6.032  0.1170  0.2053  1.5267
68788SOL    HW218090   7.884   5.268   5.932 -0.8692  0.4891  1.4881
68789SOL     OW18091   3.306   3.865   8.615 -0.3811 -0.1259  0.2476
68789SOL    HW118092   3.369   3.802   8.649 -0.1549 -0.2699 -0.4273
68789SOL    HW218093   3.331   3.878   8.524 -1.3653 -0.2318 -0.0511
68790SOL     OW18094  10.599  12.204  10.354 -0.5816 -0.6430 -0.3434
68790SOL    HW118095  10.667  12.235  10.294  1.2872  0.0600  1.9986
68790SOL    HW218096  10.536  12.276  10.358  1.1424  0.8676  1.2016
68791SOL     OW18097   0.739   1.059   7.882  0.0197 -0.3439 -0.1988
68791SOL    HW118098   0.666   1.032   7.937  2.1225 -3.9659  1.1434
68791SOL    HW218099   0.711   1.038   7.793 -1.3055  0.3415  0.0261
68792SOL     OW18100   2.701  11.803  12.475 -0.4633  0.7775 -0.0998
68792SOL    HW118101   2.659  11.839  12.553  0.3791  1.3712  0.1015
68792SOL    HW218102   2.759  11.735  12.509 -0.6623  0.5079 -0.2944
68793SOL     OW18103   6.581   0.138   9.822 -0.4164 -0.9526 -0.2259
68793SOL    HW118104   6.510   0.137   9.758  0.5376  0.9558 -1.4104
68793SOL    HW218105   6.548   0.192   9.893  0.4133  1.4864 -1.5896
68794SOL     OW18106  10.278   5.873  12.440 -0.8298 -0.2953  0.6563
68794SOL    HW118107  10.289   5.777  12.439  0.6147 -0.1512  0.8661
68794SOL    HW218108  10.275   5.896  12.532  1.6673  0.1118  0.7022
68795SOL     OW18109   8.056   4.217  12.623  0.1081 -0.4525  0.1005
68795SOL    HW118110   8.144   4.192  12.649 -0.4255 -0.9814  1.5173
68795SOL    HW218111   8.067   4.294  12.568  1.5468 -1.4133 -1.0264
68796SOL     OW18112   9.213   7.357   6.914  0.1885 -0.1762  0.3954
68796SOL    HW118113   9.199   7.320   7.001  1.4587  0.0727  0.7314
68796SOL    HW218114   9.250   7.285   6.863 -1.1006 -0.4883 -0.1183
68797SOL     OW18115  10.063   0.236   6.283 -0.5179 -0.2579  0.3059
68797SOL    HW118116   9.977   0.276   6.273 -1.1812 -1.8860 -0.8686
68797SOL    HW218117  10.098   0.232   6.194 -0.6482 -2.5736  0.3077
68798SOL     OW18118   1.200   2.061  10.268  0.0850 -0.3513  0.5828
68798SOL    HW118119   1.293   2.080  10.257  0.2472 -0.5920  1.4963
68798SOL    HW218120   1.194   1.966  10.264  0.0513 -0.4105  1.7002
68799SOL     OW18121   4.939   3.397   1.168 -0.3611  0.4844  0.2288
68799SOL    HW118122   4.897   3.478   1.137  0.6301  1.0477  0.3244
68799SOL    HW218123   4.912   3.331   1.104 -1.1562  0.8918  0.1231
68800SOL     OW18124   1.821   6.352  10.198 -0.0808  0.5849 -0.1680
68800SOL    HW118125   1.876   6.420  10.237 -0.2729  0.2900  0.6311
68800SOL    HW218126   1.785   6.393  10.119 -0.7493  1.6762  0.6713
68801SOL     OW18127  13.286  12.695  13.604 -0.3611 -0.1867 -0.2622
68801SOL    HW118128  13.204  12.647  13.596 -0.1861 -0.8391  1.4642
68801SOL    HW218129  13.341  12.662  13.533 -0.1767 -2.7346  0.9633
68802SOL     OW18130   9.128   2.227   7.804 -0.0689 -0.6699  0.2365
68802SOL    HW118131   9.081   2.149   7.774 -0.2019 -0.0998 -1.1389
68802SOL    HW218132   9.198   2.194   7.860 -0.4831 -1.7224  0.1433
68803SOL     OW18133  12.218   4.310   6.801 -0.3428  0.2469  0.0536
68803SOL    HW118134  12.189   4.356   6.722 -1.5204  0.5838  0.6479
68803SOL    HW218135  12.185   4.220   6.790  1.9419 -0.5167 -1.0989
68804SOL     OW18136   6.286  11.926   5.038  0.0659 -0.0221 -0.7200
68804SOL    HW118137   6.308  11.875   5.116 -0.4760  0.0371 -0.5255
68804SOL    HW218138   6.293  11.863   4.966  0.6664 -0.0512 -0.6419
68805SOL     OW18139   9.964   0.029   3.454 -0.3604 -0.3038  0.8476
68805SOL    HW118140   9.979  -0.064   3.435  0.2884 -0.2463  1.0572
68805SOL    HW218141   9.901   0.028   3.526  0.7613 -0.6329  1.8613
68806SOL     OW18142   5.476   4.091   1.820 -0.6228 -0.1945 -0.0315
68806SOL    HW118143   5.568   4.070   1.806 -0.5177 -0.7267  1.3583
68806SOL    HW218144   5.429   4.030   1.762 -0.1358 -0.6513  0.0428
68807SOL     OW18145   4.664   2.334   9.372  0.2648  0.1223  0.1773
68807SOL    HW118146   4.649   2.403   9.308  0.6784  0.8738  0.8618
68807SOL    HW218147   4.649   2.377   9.457  1.4925 -0.3525  0.6605
68808SOL     OW18148   0.432  12.358  12.217 -0.0482  0.1823  0.2463
68808SOL    HW118149   0.515  12.361  12.266 -0.9725 -1.6585  2.0748
68808SOL    HW218150   0.368  12.394  12.277 -0.8902 -0.2242 -0.3959
68809SOL     OW18151   9.584  11.084   5.798  0.0741  0.2313 -0.3600
68809SOL    HW118152   9.601  11.178   5.797 -0.6800  0.3703 -0.7057
68809SOL    HW218153   9.668  11.044   5.777  0.4615  0.8170  0.0555
68810SOL     OW18154   9.121   7.019   6.584  0.1332  0.1855  0.2476
68810SOL    HW118155   9.136   7.019   6.490  2.2102 -0.2627  0.5281
68810SOL    HW218156   9.026   7.013   6.593 -0.0565 -0.9768 -1.8143
68811SOL     OW18157   4.716  12.649  11.838  0.0999  0.1518 -0.4679
68811SOL    HW118158   4.663  12.684  11.909  0.4444  1.8339 -1.0040
68811SOL    HW218159   4.768  12.580  11.879 -0.2251  0.6057  0.7526
68812SOL     OW18160   5.878   7.990   4.700  0.4597  0.0859  0.5689
68812SOL    HW118161   5.937   7.977   4.774  0.1882 -1.8657  0.4985
68812SOL    HW218162   5.821   8.062   4.727  2.5562  1.7682  0.7942
68813SOL     OW18163   3.314  10.396   4.277  0.5505 -0.2192 -0.0486
68813SOL    HW118164   3.328  10.353   4.192 -1.4218  0.4317 -0.7630
68813SOL    HW218165   3.370  10.347   4.338  1.2424 -1.3553 -1.5210
68814SOL     OW18166  13.465   1.373   1.229 -0.2565 -0.0462 -0.1098
68814SOL    HW118167  13.408   1.449   1.232  0.1226  0.2231  0.4530
68814SOL    HW218168  13.405   1.298   1.226 -0.6276  0.2689 -0.8461
68815SOL     OW18169  11.244   3.780   5.813 -0.3133 -0.3295  0.3319
68815SOL    HW118170  11.151   3.777   5.835 -0.3052 -3.1979  0.4419
68815SOL    HW218171  11.289   3.780   5.897 -0.1436  2.1772  0.2973
68816SOL     OW18172  13.739   4.180   1.937  0.1389  0.1478 -0.2935
68816SOL    HW118173  13.780   4.183   2.023  0.8919 -0.8637 -0.5933
68816SOL    HW218174  13.781   4.250   1.888 -0.5124  0.9258  0.2501
68817SOL     OW18175   9.454   3.261  11.616  0.2947 -0.3471 -0.4889
68817SOL    HW118176   9.411   3.178  11.636 -1.6851  0.2674 -1.9520
68817SOL    HW218177   9.427   3.282  11.527  3.5954  0.1819 -1.5125
68818SOL     OW18178   1.951  13.313   0.427 -0.2204 -0.0100 -0.5345
68818SOL    HW118179   2.010  13.313   0.352  0.0812  1.0101 -0.3153
68818SOL    HW218180   2.006  13.283   0.500 -0.3758 -0.4888 -0.6076
68819SOL     OW18181   1.583   4.741   9.660  0.4168 -0.6445  0.4103
68819SOL    HW118182   1.676   4.761   9.669  0.2645  0.7969 -0.9204
68819SOL    HW218183   1.540   4.799   9.723  0.2949  0.0374 -0.2928
68820SOL     OW18184   5.779   5.744   0.899 -0.2012 -1.0943 -0.4138
68820SOL    HW118185   5.709   5.726   0.962  0.0439  0.6919  0.4317
68820SOL    HW218186   5.734   5.750   0.815 -1.0168 -0.3818  0.0567
68821SOL     OW18187   2.091   2.035   1.917  0.3987  0.8192  0.4957
68821SOL    HW118188   2.177   2.033   1.873  0.5730 -0.6896  0.8403
68821SOL    HW218189   2.032   1.990   1.856  0.1761  0.5976  0.8706
68822SOL     OW18190   0.033   1.118  10.042 -0.0548 -0.0252  0.0302
68822SOL    HW118191   0.103   1.163   9.994 -0.1424  1.0083  0.8390
68822SOL    HW218192   0.078   1.047  10.088  0.0325 -1.0206 -1.5130
68823SOL     OW18193   9.702   8.578   5.451 -0.4646 -0.9134 -0.3076
68823SOL    HW118194   9.637   8.549   5.387 -0.2372 -0.9691 -0.5150
68823SOL    HW218195   9.667   8.661   5.484 -0.3361 -0.6233 -0.8756
68824SOL     OW18196   6.224   2.355   4.170  0.5055 -0.0043 -0.1171
68824SOL    HW118197   6.231   2.267   4.206 -2.1229 -1.1115 -1.9924
68824SOL    HW218198   6.282   2.355   4.093 -0.8260 -0.7678 -1.1619
68825SOL     OW18199  10.636   7.380   3.440  0.5371  0.3230 -0.1821
68825SOL    HW118200  10.582   7.403   3.515 -0.6552 -0.0526 -0.8891
68825SOL    HW218201  10.652   7.286   3.450  0.2711  0.2473 -0.4566
68826SOL     OW18202   2.214  10.258   5.992 -0.1190  0.3065  0.7288
68826SOL    HW118203   2.194  10.349   6.013  1.0800  0.8576 -0.3962
68826SOL    HW218204   2.303  10.244   6.026 -0.5389 -0.6514  1.4774
68827SOL     OW18205   5.903   2.725  10.848 -0.1785 -0.2713 -0.1077
68827SOL    HW118206   5.969   2.744  10.782 -0.9658  0.9154 -0.5957
68827SOL    HW218207   5.909   2.798  10.910 -0.2855 -0.7330  0.4558
68828SOL     OW18208   1.840   2.578  12.670 -0.0857 -0.0857  0.1298
68828SOL    HW118209   1.764   2.535  12.711 -0.0596  0.2701  0.5614
68828SOL    HW218210   1.829   2.670  12.691 -0.1895  0.1414 -0.8713
68829SOL     OW18211   9.144   6.831   8.560  0.0979 -0.4613 -0.1631
68829SOL    HW118212   9.146   6.767   8.632 -0.2000 -2.6228 -1.9628
68829SOL    HW218213   9.095   6.905   8.595  0.3827 -1.2100  2.0027
68830SOL     OW18214   2.689   6.262   0.327  0.6049  0.4332  0.2429
68830SOL    HW118215   2.695   6.251   0.232 -1.3854  2.9744 -0.2956
68830SOL    HW218216   2.780   6.277   0.354  1.0274  1.7595 -1.6362
68831SOL     OW18217   0.869   6.580  12.101  0.5400  0.0071  0.1412
68831SOL    HW118218   0.941   6.638  12.126  1.2027 -1.4656  1.8150
68831SOL    HW218219   0.805   6.590  12.171 -0.1136 -0.0227 -0.4405
68832SOL     OW18220  11.141  11.489   0.000  0.7018  0.2417  0.3410
68832SOL    HW118221  11.208  11.429  -0.034  0.1108 -1.1066  1.4880
68832SOL    HW218222  11.085  11.435   0.055  0.0182  1.8105  1.2695
68833SOL     OW18223   5.111  10.002   6.176  0.4377  0.2430  0.4931
68833SOL    HW118224   5.087   9.987   6.084  1.1368 -0.6514  0.4414
68833SOL    HW218225   5.043  10.060   6.209 -0.4388 -0.2972 -0.2930
68834SOL     OW18226  12.058  13.091   7.188 -0.2895 -0.4588 -0.1584
68834SOL    HW118227  12.101  13.139   7.118 -1.9107  0.7456 -0.4006
68834SOL    HW218228  12.006  13.025   7.143  0.2269 -1.0028  0.0401
68835SOL     OW18229   4.069   9.772  12.257 -0.2850  1.2570  0.1856
68835SOL    HW118230   4.128   9.791  12.330 -0.1631  2.5628 -0.2186
68835SOL    HW218231   3.990   9.824  12.276 -0.9602  0.2175  0.2790
68836SOL     OW18232   7.378   2.925  10.099 -0.0984  0.1295  0.4790
68836SOL    HW118233   7.289   2.918  10.066  0.7688 -0.8672 -1.8394
68836SOL    HW218234   7.412   2.835  10.096  0.8738  0.4112  1.7482
68837SOL     OW18235  12.309   0.976   9.624 -0.0595  0.5565 -0.0790
68837SOL    HW118236  12.392   0.952   9.584 -1.5195 -2.5650 -1.5867
68837SOL    HW218237  12.282   1.056   9.579  0.5537 -0.3038 -2.0596
68838SOL     OW18238   7.453   4.385   0.943 -0.5029 -0.1756 -0.2463
68838SOL    HW118239   7.377   4.395   1.000 -0.7535  0.5713 -0.6890
68838SOL    HW218240   7.453   4.465   0.890 -0.1936 -0.7849 -1.1893
68839SOL     OW18241   3.594  13.725   2.488  0.0609 -0.0520 -0.4828
68839SOL    HW118242   3.554  13.809   2.463 -1.6919 -1.1470 -1.4996
68839SOL    HW218243   3.539  13.692   2.558  0.7379 -0.3860 -0.0950
68840SOL     OW18244   0.945   5.216   6.889  0.4565 -0.1532  0.1890
68840SOL    HW118245   1.013   5.254   6.943  0.2129 -0.5307  0.7752
68840SOL    HW218246   0.990   5.151   6.835  0.7836  0.5898 -0.4420
68841SOL     OW18247  13.606   8.320   8.448 -0.1798 -0.4473 -0.2319
68841SOL    HW118248  13.563   8.282   8.372 -0.5658 -0.5469  0.0349
68841SOL    HW218249  13.655   8.247   8.487 -1.5416 -0.8856  0.7281
68842SOL     OW18250  13.297  12.827   3.158 -0.1167 -0.2464  0.4708
68842SOL    HW118251  13.353  12.900   3.183 -0.3035 -0.8470  2.9356
68842SOL    HW218252  13.339  12.790   3.081  2.4711 -0.1788  1.7197
68843SOL     OW18253   0.039   1.150  13.549  0.1605  0.7593 -0.2096
68843SOL    HW118254  -0.021   1.126  13.478 -0.3222 -0.8601  0.7034
68843SOL    HW218255  -0.017   1.154  13.627  0.9085  1.2444  0.3128
68844SOL     OW18256  12.089   3.430  13.481  0.1413  0.2384 -1.0999
68844SOL    HW118257  12.070   3.524  13.481  0.1058  0.2309 -1.2506
68844SOL    HW218258  12.149   3.418  13.555  1.1408  0.5878 -1.8284
68845SOL     OW18259   7.351   3.551  12.422 -0.2960  0.2324  0.2579
68845SOL    HW118260   7.331   3.610  12.495  0.8213  0.1229  0.6637
68845SOL    HW218261   7.356   3.607  12.346  1.9603  0.8946  0.8229
68846SOL     OW18262   1.031   3.740   6.223  0.2502  0.3455  0.4310
68846SOL    HW118263   1.107   3.727   6.280  0.6187  1.7183  0.2961
68846SOL    HW218264   1.064   3.797   6.153 -0.4913 -0.3849 -0.5383
68847SOL     OW18265  10.161   7.317   8.426  0.1402  0.1810  0.3338
68847SOL    HW118266  10.203   7.232   8.433  1.4356  0.6704 -1.0117
68847SOL    HW218267  10.120   7.331   8.511  0.3642 -1.5279  0.7558
68848SOL     OW18268   8.748  13.129   1.708 -0.7709 -0.2889  0.2065
68848SOL    HW118269   8.756  13.081   1.791 -3.5199 -0.4611  0.4553
68848SOL    HW218270   8.833  13.171   1.697 -0.4876  0.2430  3.4562
68849SOL     OW18271   8.413   4.154   1.725  0.4783 -0.0161  0.7480
68849SOL    HW118272   8.325   4.157   1.763  0.1773  1.5522  0.0367
68849SOL    HW218273   8.404   4.201   1.642  1.9192 -0.1631  0.4863
68850SOL     OW18274   6.189   2.647   3.051  0.4017 -0.0001 -0.1572
68850SOL    HW118275   6.197   2.607   3.137 -0.0775 -1.8002 -0.9025
68850SOL    HW218276   6.279   2.666   3.025  0.4877  1.6696  1.1901
68851SOL     OW18277  12.749   5.211   1.650 -0.1550 -0.0670 -0.0224
68851SOL    HW118278  12.834   5.168   1.641 -0.3790 -0.5618  0.2132
68851SOL    HW218279  12.747   5.243   1.740 -0.0419  0.3240 -0.1579
68852SOL     OW18280   8.386   9.288  12.653 -0.3140  0.3912 -0.2874
68852SOL    HW118281   8.322   9.349  12.615  0.1454  1.2858  0.3300
68852SOL    HW218282   8.470   9.333  12.642  0.0366 -0.1511  0.1599
68853SOL     OW18283   4.978   7.815  12.890  0.0523  0.3312 -0.1034
68853SOL    HW118284   4.968   7.720  12.894  1.9031  0.0709 -0.8021
68853SOL    HW218285   4.889   7.847  12.870 -0.4809 -1.2899 -0.5187
68854SOL     OW18286   3.008  12.621  12.390  0.2099 -0.0486 -0.2842
68854SOL    HW118287   2.942  12.677  12.348  0.8479  0.6503 -0.3813
68854SOL    HW218288   2.976  12.610  12.480 -0.3758 -0.2756 -0.5114
68855SOL     OW18289   7.872  10.405   2.428 -0.9767  0.4178 -0.4034
68855SOL    HW118290   7.837  10.450   2.505  0.4657  2.1926 -0.7299
68855SOL    HW218291   7.889  10.474   2.365 -0.6764 -0.8432 -1.7614
68856SOL     OW18292   2.534   5.730   8.954 -0.4898  0.1987  0.1186
68856SOL    HW118293   2.509   5.752   9.044  1.1474  0.3186  0.5673
68856SOL    HW218294   2.555   5.813   8.913 -1.3445  0.1570 -0.4351
68857SOL     OW18295   8.029   8.327   4.129 -0.2131  0.0727 -0.1175
68857SOL    HW118296   7.990   8.396   4.076  0.9583 -0.7461 -2.1386
68857SOL    HW218297   8.072   8.374   4.201 -2.5226  1.1436  0.6501
68858SOL     OW18298   2.150  10.652   1.846 -0.3070 -0.1485 -0.0501
68858SOL    HW118299   2.078  10.675   1.787 -1.7156 -2.6225  0.5553
68858SOL    HW218300   2.224  10.635   1.788 -0.7544  0.4968 -0.8416
68859SOL     OW18301   2.289  12.396   3.789 -0.2040 -0.1673  0.0909
68859SOL    HW118302   2.223  12.464   3.776  0.7080  0.6323 -0.5525
68859SOL    HW218303   2.252  12.339   3.855 -0.5551  1.5887  1.4976
68860SOL     OW18304   4.942  10.690  10.611  0.4804 -0.5480 -0.4648
68860SOL    HW118305   4.948  10.761  10.675 -2.0628  0.4206 -1.2265
68860SOL    HW218306   5.002  10.716  10.541  0.1634  0.4748 -0.3762
68861SOL     OW18307   8.579  12.077  12.343  0.1527  0.1027 -0.5132
68861SOL    HW118308   8.601  12.062  12.251 -1.7588 -0.6885 -0.8842
68861SOL    HW218309   8.510  12.015  12.362  1.1970 -0.4725  1.7934
68862SOL     OW18310   4.267  13.603  11.598 -0.0812 -0.3704  0.7463
68862SOL    HW118311   4.251  13.608  11.692 -1.4410  1.0616  0.4684
68862SOL    HW218312   4.268  13.694  11.569  0.2864 -0.7964 -0.6466
68863SOL     OW18313   7.261   1.551   2.842 -0.4184  0.1872 -0.0054
68863SOL    HW118314   7.258   1.462   2.808  1.8413 -0.1172  0.4888
68863SOL    HW218315   7.218   1.545   2.927 -0.2080 -0.4546  0.0609
68864SOL     OW18316   1.792   6.932  10.065  0.5626  0.4144  0.5331
68864SOL    HW118317   1.848   6.943  10.142  0.3019  1.9075  0.5487
68864SOL    HW218318   1.711   6.978  10.088  0.6643  1.3157 -0.7966
68865SOL     OW18319  10.711   5.389   0.286  0.3730  0.1767 -0.0902
68865SOL    HW118320  10.742   5.427   0.204 -0.4730 -0.9157 -0.9491
68865SOL    HW218321  10.699   5.464   0.344  2.0468  0.8573 -0.5797
68866SOL     OW18322   8.317   8.769  12.672  0.1208  0.8118 -0.6058
68866SOL    HW118323   8.290   8.677  12.667 -0.9108  1.0942 -0.5881
68866SOL    HW218324   8.400   8.773  12.625  0.4540 -0.2322 -0.1195
68867SOL     OW18325   0.622   1.778   0.704 -0.2630  0.5119 -0.3270
68867SOL    HW118326   0.685   1.733   0.648 -0.0065 -0.6043  0.8016
68867SOL    HW218327   0.675   1.836   0.759  0.0596 -1.4538  1.6115
68868SOL     OW18328   6.268  10.489   0.699 -0.4881 -0.0342  0.5528
68868SOL    HW118329   6.189  10.536   0.673 -0.8431 -1.3147 -0.8622
68868SOL    HW218330   6.246  10.451   0.785 -0.2232  2.1981  1.6740
68869SOL     OW18331  13.406   5.064   0.457  0.6045 -0.1956  0.5396
68869SOL    HW118332  13.471   5.080   0.388  0.2443 -2.2875 -0.3270
68869SOL    HW218333  13.323   5.053   0.411  0.1617 -0.5727  1.4055
68870SOL     OW18334  10.607  10.334   4.782  0.5131  0.3746  0.0549
68870SOL    HW118335  10.523  10.308   4.820  0.6227 -1.3378 -0.8014
68870SOL    HW218336  10.665  10.261   4.800  0.7771 -0.1814 -2.6361
68871SOL     OW18337   4.006   1.444  11.447  0.1009 -0.2222  0.4266
68871SOL    HW118338   4.025   1.351  11.438 -1.5103 -0.5135 -0.1785
68871SOL    HW218339   4.025   1.480  11.360 -0.4391 -0.2058  0.3158
68872SOL     OW18340   0.099  11.988   4.293 -0.2844  0.1175 -0.2062
68872SOL    HW118341   0.142  11.905   4.313 -0.1583 -0.0761 -1.2312
68872SOL    HW218342   0.165  12.054   4.312  0.3973 -0.1588 -1.4605
68873SOL     OW18343   7.038   1.743  12.608 -0.4017 -0.1733  0.2027
68873SOL    HW118344   7.016   1.764  12.699 -0.9654 -3.0613  0.8151
68873SOL    HW218345   7.134   1.740  12.607 -0.2947  1.7466  0.1672
68874SOL     OW18346   7.789   6.797  13.262  0.1051  0.0711  0.4765
68874SOL    HW118347   7.725   6.798  13.333 -0.2913 -0.9352  0.1483
68874SOL    HW218348   7.846   6.722  13.283  1.3376  1.0901  0.8934
68875SOL     OW18349  11.657   3.314   1.799 -0.3758 -0.0199 -0.0730
68875SOL    HW118350  11.606   3.354   1.729  0.0010 -0.2671 -0.4948
68875SOL    HW218351  11.696   3.388   1.846 -2.1318  0.2360  1.0522
68876SOL     OW18352   4.355   1.337   4.841  0.3210 -0.3185 -0.1985
68876SOL    HW118353   4.269   1.377   4.828  0.1928 -0.6228 -0.2743
68876SOL    HW218354   4.340   1.266   4.903  0.6683  0.1805  0.4719
68877SOL     OW18355   9.786   8.836   2.294  0.5935  0.0291  0.3804
68877SOL    HW118356   9.824   8.791   2.370  1.1802 -0.2848 -0.0891
68877SOL    HW218357   9.701   8.868   2.325  1.7453  1.8208  1.8308
68878SOL     OW18358   7.186   8.693   2.024  0.0526 -0.3498  0.0977
68878SOL    HW118359   7.238   8.734   2.093  0.2364 -1.1632  0.4465
68878SOL    HW218360   7.122   8.640   2.071 -2.5315  2.2265 -0.2237
68879SOL     OW18361  12.277   4.195   1.507  0.9203 -0.2402  0.7600
68879SOL    HW118362  12.299   4.106   1.534  0.3510 -0.4161  0.6461
68879SOL    HW218363  12.351   4.222   1.453  1.2383 -0.5298  1.0406
68880SOL     OW18364   2.459  13.737   8.523 -0.0882  0.5472 -0.6000
68880SOL    HW118365   2.531  13.800   8.518 -0.2071  0.8707  1.1029
68880SOL    HW218366   2.497  13.655   8.492  0.4240  1.1606 -1.6515
68881SOL     OW18367   4.596   2.790   1.442  0.1018  0.1488  0.1031
68881SOL    HW118368   4.659   2.777   1.371  0.8783 -0.1276  0.8261
68881SOL    HW218369   4.560   2.703   1.457 -1.0393  0.4392 -0.8214
68882SOL     OW18370   8.263   7.526  11.079 -0.1372  0.2089  0.1747
68882SOL    HW118371   8.256   7.616  11.112 -0.3009  0.5081 -0.6468
68882SOL    HW218372   8.314   7.534  10.998 -1.0144 -0.2963 -0.4486
68883SOL     OW18373   0.756   8.119   5.764 -0.3815 -0.5203 -0.4987
68883SOL    HW118374   0.824   8.102   5.699 -0.7594  0.9257 -1.3179
68883SOL    HW218375   0.681   8.067   5.733 -0.5043  0.0241 -1.1520
68884SOL     OW18376   7.543   4.923  11.201 -0.8057 -0.0680 -0.8144
68884SOL    HW118377   7.638   4.928  11.195 -0.6670 -1.4694 -0.1460
68884SOL    HW218378   7.514   4.899  11.113 -0.3465 -1.7484 -0.5412
68885SOL     OW18379   4.324   6.349   7.697 -0.3006 -0.1561 -0.1205
68885SOL    HW118380   4.408   6.365   7.740 -0.8506  0.3151  0.8289
68885SOL    HW218381   4.347   6.311   7.612  0.8138 -1.6823  0.8160
68886SOL     OW18382   5.846   8.033   9.592 -0.1141  0.1641 -0.0166
68886SOL    HW118383   5.876   8.104   9.534  1.6265 -1.3237 -1.0322
68886SOL    HW218384   5.868   8.064   9.680  0.0404  1.1516 -0.3851
68887SOL     OW18385   2.696  11.993   3.463 -0.0936 -0.0657  0.2740
68887SOL    HW118386   2.750  11.950   3.529 -1.8160 -2.2781  0.3468
68887SOL    HW218387   2.623  12.031   3.512 -0.4995 -0.2532 -0.1773
68888SOL     OW18388   3.287   9.261   0.841 -0.4079 -0.9028  0.1108
68888SOL    HW118389   3.358   9.206   0.872 -1.7359 -0.8149  3.8601
68888SOL    HW218390   3.216   9.200   0.819 -0.9186 -0.8553  1.5357
68889SOL     OW18391   8.920   9.999  10.121  0.2525 -0.1743  0.5884
68889SOL    HW118392   8.878   9.919  10.153 -0.0607 -0.3369 -0.2043
68889SOL    HW218393   8.848  10.059  10.102  0.5342  1.2785  3.5194
68890SOL     OW18394   9.836   1.478  11.658 -0.0535 -0.0203 -0.2889
68890SOL    HW118395   9.802   1.501  11.745  0.8087  0.7624 -0.1427
68890SOL    HW218396   9.829   1.559  11.608  0.8760 -0.0500 -0.4790
68891SOL     OW18397   7.636   8.792   0.321 -0.2365 -0.2559 -0.0867
68891SOL    HW118398   7.720   8.792   0.367 -0.5036 -1.0936  0.4209
68891SOL    HW218399   7.655   8.752   0.237 -0.5429 -2.6247  0.8897
68892SOL     OW18400   0.945   2.414   2.691 -0.8260  0.2345 -0.1209
68892SOL    HW118401   0.908   2.380   2.610  0.0021 -0.0213 -0.4064
68892SOL    HW218402   1.000   2.488   2.664 -1.9086  1.2683  0.4022
68893SOL     OW18403   3.752  10.782   4.875 -0.2799  0.6107 -0.2655
68893SOL    HW118404   3.821  10.726   4.910 -0.6190 -0.8597 -1.7829
68893SOL    HW218405   3.789  10.817   4.794 -1.5556 -0.8952 -1.5580
68894SOL     OW18406   4.270   9.204   4.567  0.8405 -0.2130 -0.5514
68894SOL    HW118407   4.226   9.171   4.489  0.5345 -0.6385 -0.2031
68894SOL    HW218408   4.357   9.228   4.537  0.3918  0.5797 -1.2343
68895SOL     OW18409  10.917   4.733  12.824 -0.0987  0.1018 -0.2811
68895SOL    HW118410  10.892   4.727  12.732 -0.3882 -0.1048 -0.1923
68895SOL    HW218411  10.847   4.687  12.870  0.2488 -0.1365  0.0091
68896SOL     OW18412  10.976   3.645   5.137  0.1627 -0.5901 -0.5633
68896SOL    HW118413  10.977   3.555   5.170  2.1516  0.2765  2.1044
68896SOL    HW218414  11.052   3.651   5.080 -1.7166 -1.3161 -3.3660
68897SOL     OW18415  12.870   3.561   7.551 -0.0779  0.0471  0.0515
68897SOL    HW118416  12.833   3.593   7.633 -0.6919 -0.2730 -0.0885
68897SOL    HW218417  12.854   3.466   7.553  1.1461 -0.1731  0.1814
68898SOL     OW18418   9.415   6.799   0.301 -0.2463  0.2703  1.1322
68898SOL    HW118419   9.364   6.877   0.279 -2.5095 -1.5122 -0.3908
68898SOL    HW218420   9.356   6.745   0.354  0.3161 -1.5047  0.0437
68899SOL     OW18421   7.061   5.901  11.083 -0.2556  0.2562  0.3993
68899SOL    HW118422   6.981   5.850  11.098 -0.9506  1.3296  0.4579
68899SOL    HW218423   7.104   5.904  11.168 -0.3048 -0.0784  0.4369
68900SOL     OW18424   9.623   5.211   7.738  0.4434 -0.3344 -0.5192
68900SOL    HW118425   9.673   5.178   7.813 -2.1667 -0.6332  1.2288
68900SOL    HW218426   9.585   5.293   7.769 -1.3436 -0.8713 -1.1785
68901SOL     OW18427   1.210  11.870  11.987 -0.1570  0.3443  0.6997
68901SOL    HW118428   1.198  11.886  11.893  0.6803  0.8411  0.6584
68901SOL    HW218429   1.124  11.885  12.025 -1.0777 -2.0899 -0.2561
68902SOL     OW18430   3.519   2.190   9.346 -0.0048 -0.3508 -0.1448
68902SOL    HW118431   3.467   2.116   9.314  2.1960 -1.9120 -0.3672
68902SOL    HW218432   3.549   2.163   9.433 -0.8342  1.2027  0.6587
68903SOL     OW18433  11.284   5.312   3.290  0.0287 -0.7950  0.2322
68903SOL    HW118434  11.301   5.332   3.382 -1.7527 -0.3890  0.5244
68903SOL    HW218435  11.240   5.227   3.292 -1.8527  0.1202 -0.0046
68904SOL     OW18436  10.868   9.304  10.055 -0.3090  0.9310  0.0545
68904SOL    HW118437  10.785   9.339  10.023 -0.0074  0.9890 -0.6826
68904SOL    HW218438  10.906   9.259   9.979 -1.1110 -1.8434  1.1520
68905SOL     OW18439   5.453   5.434  10.055  0.8337 -0.1791  0.2811
68905SOL    HW118440   5.499   5.481   9.985  0.9981  1.1994  1.2717
68905SOL    HW218441   5.517   5.428  10.126  0.4741 -1.0093  0.5449
68906SOL     OW18442  12.925   2.279   1.252  0.3969  0.3087 -0.1264
68906SOL    HW118443  12.835   2.291   1.223  0.0957 -0.8983  0.2498
68906SOL    HW218444  12.945   2.187   1.231  2.1887  1.0507 -1.9394
68907SOL     OW18445  13.124  11.670   2.922  0.2378  0.3911  0.0276
68907SOL    HW118446  13.044  11.718   2.943  1.5303  2.6294  0.1449
68907SOL    HW218447  13.101  11.579   2.938 -2.6272  0.8022 -1.0726
68908SOL     OW18448   3.236  10.088   0.171  0.3350  0.5300 -0.2877
68908SOL    HW118449   3.298  10.083   0.244  0.4332  1.6856 -0.2859
68908SOL    HW218450   3.289  10.113   0.095 -0.1543  1.7526 -0.2386
68909SOL     OW18451   6.941   7.982  12.247 -0.0888 -0.0719 -0.0234
68909SOL    HW118452   7.000   7.947  12.313  1.2788 -1.6091 -1.9751
68909SOL    HW218453   6.865   8.013  12.297  1.1866 -0.5006  2.2977
68910SOL     OW18454  12.484   4.496   7.125  0.0860 -0.2007 -0.6494
68910SOL    HW118455  12.526   4.519   7.042  0.7709  1.6610  0.1601
68910SOL    HW218456  12.411   4.557   7.134  0.8410  0.5536  0.7262
68911SOL     OW18457   3.400   0.915   3.948  0.1568  0.5902  0.3409
68911SOL    HW118458   3.350   0.997   3.954  1.0449  1.0733  1.5309
68911SOL    HW218459   3.337   0.851   3.914 -0.5475  1.7582 -0.6220
68912SOL     OW18460   9.069  12.049   6.562 -0.5363 -0.1443 -0.3177
68912SOL    HW118461   9.038  11.959   6.569 -0.0237 -0.1853  2.9158
68912SOL    HW218462   9.015  12.087   6.493 -0.6158 -2.9365 -1.9334
68913SOL     OW18463  13.188   6.642   3.555 -0.2725 -0.2244  0.4092
68913SOL    HW118464  13.211   6.556   3.591 -0.5174  0.0368  1.2037
68913SOL    HW218465  13.232   6.705   3.611 -3.6280  0.3492  2.7012
68914SOL     OW18466  12.457  11.934   2.419 -0.2040 -0.6048  0.3754
68914SOL    HW118467  12.463  11.839   2.419  0.2582 -0.5954  1.6419
68914SOL    HW218468  12.369  11.953   2.450  1.0581 -0.6643  4.6066
68915SOL     OW18469  13.045  12.708   0.130 -0.1329 -0.3712  0.1420
68915SOL    HW118470  13.021  12.696   0.038  1.6171 -1.5915 -0.1964
68915SOL    HW218471  13.041  12.620   0.167 -0.0863  0.0014  1.0484
68916SOL     OW18472   7.319   3.082   6.375 -0.0100  0.1346  0.3486
68916SOL    HW118473   7.379   3.074   6.301  0.0835 -0.4541  0.4792
68916SOL    HW218474   7.368   3.129   6.442  0.1028  0.1701  0.2401
68917SOL     OW18475   0.689   6.958   6.940  0.4529  0.6518 -0.3130
68917SOL    HW118476   0.687   6.946   7.035  2.6987 -1.9875 -0.4688
68917SOL    HW218477   0.597   6.955   6.913 -0.1041 -1.6105  1.5204
68918SOL     OW18478   1.064   9.961  13.029 -0.2097  0.2642  0.9078
68918SOL    HW118479   1.139   9.980  13.086 -0.2876  0.4500  0.9496
68918SOL    HW218480   1.097   9.974  12.940 -0.0228 -0.2493  0.8977
68919SOL     OW18481   2.505   5.354   3.162 -0.0268 -0.1325 -0.3638
68919SOL    HW118482   2.574   5.420   3.161  0.3650 -0.5236  0.2828
68919SOL    HW218483   2.464   5.360   3.076 -0.0397  0.9959 -0.2870
68920SOL     OW18484   7.049  11.868   5.666 -0.0155 -0.5318 -0.8403
68920SOL    HW118485   7.097  11.896   5.744 -0.3058 -0.9023 -0.5207
68920SOL    HW218486   6.959  11.897   5.681 -0.5187 -2.3394 -0.0946
68921SOL     OW18487   8.881   6.810   3.239  0.3930 -0.8367 -0.5538
68921SOL    HW118488   8.908   6.842   3.325 -1.9670 -0.3694  0.0752
68921SOL    HW218489   8.785   6.808   3.242  0.2613 -1.9339 -2.7802
68922SOL     OW18490   0.315   0.312   9.019 -0.4075  0.1074 -0.2808
68922SOL    HW118491   0.337   0.283   8.931  0.4561  1.0652 -0.4039
68922SOL    HW218492   0.232   0.360   9.009 -0.7616 -0.5322 -0.4177
68923SOL     OW18493   9.125  10.433   5.530 -0.1262  0.6258  0.2256
68923SOL    HW118494   9.128  10.517   5.576  0.6163 -0.0057  1.3886
68923SOL    HW218495   9.209  10.425   5.486 -0.8351  1.2238 -1.2894
68924SOL     OW18496   5.965   8.617   7.414  0.0277 -0.2826  0.3294
68924SOL    HW118497   5.930   8.529   7.427 -3.8093  0.8151 -1.3987
68924SOL    HW218498   5.935   8.666   7.491 -0.5322  0.2317 -0.2145
68925SOL     OW18499  11.653   9.388   9.329  0.0828  0.4973  0.1849
68925SOL    HW118500  11.699   9.461   9.371 -0.2994  0.5026  0.6015
68925SOL    HW218501  11.567   9.423   9.307 -1.0500 -0.5060  2.6818
68926SOL     OW18502  10.916   9.772   4.397  0.4783 -0.3559 -0.1572
68926SOL    HW118503  10.988   9.724   4.438  0.9994  1.0128  0.5902
68926SOL    HW218504  10.916   9.857   4.440 -1.5235 -0.2672 -0.2219
68927SOL     OW18505  11.826   9.873   1.757 -0.4032  0.2693 -0.0843
68927SOL    HW118506  11.733   9.863   1.734 -0.1485 -1.3884 -0.4492
68927SOL    HW218507  11.853   9.953   1.711 -1.3428  0.1194 -0.9283
68928SOL     OW18508   4.561   2.646   7.835 -0.1637 -0.2364 -0.0790
68928SOL    HW118509   4.634   2.585   7.847  0.7684  1.0186  0.8289
68928SOL    HW218510   4.589   2.702   7.762 -1.2747 -1.2179 -1.3111
68929SOL     OW18511   3.930   0.513  12.611 -0.2266 -1.1371 -0.0822
68929SOL    HW118512   3.867   0.467  12.666 -1.3583  4.0950  3.7962
68929SOL    HW218513   3.876   0.574  12.559  1.3528 -0.3556 -0.8774
68930SOL     OW18514   3.820  10.010   1.853  0.1934  0.0562  0.3235
68930SOL    HW118515   3.764   9.973   1.921  0.1813 -0.6522 -0.0696
68930SOL    HW218516   3.871   9.936   1.820  0.5348  0.4804 -0.1243
68931SOL     OW18517  12.271   7.056  12.037 -0.1811 -0.1991  0.1734
68931SOL    HW118518  12.208   6.985  12.035  0.6737 -0.9748 -0.1418
68931SOL    HW218519  12.320   7.042  12.118 -1.3054  1.2132  1.1284
68932SOL     OW18520  13.703   6.349   1.178 -0.5932  0.2580  0.3303
68932SOL    HW118521  13.730   6.396   1.099  0.1457  1.1099  1.0695
68932SOL    HW218522  13.747   6.265   1.172 -0.6529  0.2578 -0.2257
68933SOL     OW18523  13.450  10.524   9.344 -0.1397 -0.0305 -0.4025
68933SOL    HW118524  13.390  10.582   9.297 -0.1865  1.0382  0.9282
68933SOL    HW218525  13.522  10.581   9.370  1.5901 -1.3012 -2.0711
68934SOL     OW18526   4.740   6.315   8.190  0.3132 -0.0032 -0.1148
68934SOL    HW118527   4.825   6.318   8.147  0.7093 -1.6927  0.4640
68934SOL    HW218528   4.697   6.239   8.152 -0.9553  0.8166 -0.3809
68935SOL     OW18529   3.029  13.648   6.385  0.1534 -0.2436  0.7405
68935SOL    HW118530   2.995  13.625   6.298  0.6417  0.1341  0.4390
68935SOL    HW218531   3.123  13.634   6.378  0.1588 -0.4977  1.3095
68936SOL     OW18532   8.484  13.363   9.271 -0.4531 -0.1562  0.3475
68936SOL    HW118533   8.487  13.459   9.272 -0.0898 -0.1644  0.0903
68936SOL    HW218534   8.426  13.342   9.198  0.4666 -0.1500 -0.3971
68937SOL     OW18535   0.875   0.073   1.000  0.2605  0.3040 -0.3590
68937SOL    HW118536   0.861   0.010   0.929 -0.0227  0.9917 -0.9262
68937SOL    HW218537   0.963   0.108   0.985 -0.0550  0.9367 -0.7704
68938SOL     OW18538   2.560   5.507  10.150 -0.0686  0.1996  0.4660
68938SOL    HW118539   2.522   5.454  10.220 -1.1581 -0.1906 -0.4038
68938SOL    HW218540   2.631   5.556  10.193 -0.9111  0.2108  1.9102
68939SOL     OW18541   7.845   8.065  11.129 -0.6428 -0.3597  0.1703
68939SOL    HW118542   7.808   8.044  11.043 -1.1299  0.2488  0.2224
68939SOL    HW218543   7.778   8.036  11.192 -1.3197  1.2524  0.2443
68940SOL     OW18544  11.585   9.873   3.428  0.1531 -0.1450  0.0431
68940SOL    HW118545  11.512   9.811   3.423 -0.1552  0.2475 -0.4068
68940SOL    HW218546  11.627   9.868   3.342  0.4031 -0.0578  0.1589
68941SOL     OW18547   0.226   4.431   9.470  0.1222 -0.1448 -0.3332
68941SOL    HW118548   0.282   4.402   9.541 -0.6115 -3.8086 -1.0073
68941SOL    HW218549   0.209   4.523   9.488  3.0472  0.0801  2.0423
68942SOL     OW18550   3.884   5.962  10.689 -0.1814 -0.3545  0.1463
68942SOL    HW118551   3.870   6.055  10.704 -0.8956 -0.1589 -1.5513
68942SOL    HW218552   3.861   5.948  10.597  2.5540 -1.6811 -0.4441
68943SOL     OW18553   7.944   2.067  12.183 -0.3264  0.4174 -0.0842
68943SOL    HW118554   7.961   2.161  12.186  2.3074 -0.0012  2.1714
68943SOL    HW218555   7.874   2.052  12.246 -1.4390  0.9342 -1.1701
68944SOL     OW18556   9.684  10.685   6.468 -0.2849  0.3236  0.2751
68944SOL    HW118557   9.746  10.758   6.462 -0.5559  0.4983 -0.5184
68944SOL    HW218558   9.704  10.644   6.552  2.9706 -1.4153 -1.1341
68945SOL     OW18559   5.644   5.298   9.249  0.0119 -0.2930 -0.0101
68945SOL    HW118560   5.594   5.321   9.171  0.0660 -1.9509 -0.5754
68945SOL    HW218561   5.578   5.292   9.318  0.0810  2.0679  0.3119
68946SOL     OW18562   1.042  10.368   9.293 -0.0273  0.1940 -0.0274
68946SOL    HW118563   1.044  10.457   9.257  1.4824  0.1255 -0.2065
68946SOL    HW218564   1.113  10.322   9.247 -0.1884 -0.8384  0.7150
68947SOL     OW18565   4.072   6.076   1.356  0.0383 -0.0537 -0.2164
68947SOL    HW118566   4.119   6.012   1.410 -0.0046 -0.6219 -0.8370
68947SOL    HW218567   3.985   6.081   1.396  0.4050  0.5033  0.5369
68948SOL     OW18568   5.371  13.527   2.160  0.2399  0.1463 -0.2475
68948SOL    HW118569   5.276  13.524   2.149  0.2535  0.4665 -0.4498
68948SOL    HW218570   5.406  13.542   2.073  0.5064 -0.4320 -0.2496
68949SOL     OW18571   1.330   6.420  12.123 -0.0231  0.7887 -0.0277
68949SOL    HW118572   1.407   6.395  12.174 -0.4810  0.3363  0.4624
68949SOL    HW218573   1.318   6.349  12.061 -1.6711 -0.6095  1.7543
68950SOL     OW18574  11.953   8.910   4.241  0.2489 -0.2147  0.4177
68950SOL    HW118575  11.998   8.932   4.160  0.2533  0.6162  0.6400
68950SOL    HW218576  12.023   8.894   4.304  0.2517 -1.2383  0.1717
68951SOL     OW18577   8.560  12.317   0.859  1.0427  0.3891  0.0660
68951SOL    HW118578   8.618  12.360   0.796  1.7155 -0.4118  0.1212
68951SOL    HW218579   8.619  12.272   0.919  0.3969  0.7616  1.0092
68952SOL     OW18580   2.332   5.253   8.358 -0.0989  0.1004 -0.4690
68952SOL    HW118581   2.246   5.295   8.357 -0.2827 -0.2479 -1.8006
68952SOL    HW218582   2.342   5.218   8.447 -1.3752  0.0716 -0.3273
68953SOL     OW18583   8.816   7.275   4.736 -0.0313  0.5313  0.2594
68953SOL    HW118584   8.862   7.250   4.655 -2.0142 -0.8536 -0.5111
68953SOL    HW218585   8.832   7.369   4.744  0.4439  0.6494 -1.5996
68954SOL     OW18586   1.934   7.635   4.507 -0.7682 -0.2438 -0.6581
68954SOL    HW118587   2.029   7.627   4.516 -0.6521  2.5060  2.2918
68954SOL    HW218588   1.923   7.709   4.447 -0.9123  0.8653  0.6798
68955SOL     OW18589  11.243   8.957  10.424  0.3198  0.1645 -0.1267
68955SOL    HW118590  11.170   8.925  10.477  0.4144 -0.7391 -0.5203
68955SOL    HW218591  11.214   8.945  10.334  2.1468 -3.4277 -0.4342
68956SOL     OW18592   2.228  11.698   7.820 -0.0069  0.1659  0.0029
68956SOL    HW118593   2.254  11.637   7.751 -1.9762 -0.0650 -0.5922
68956SOL    HW218594   2.147  11.738   7.788  0.6441  2.3044  0.8747
68957SOL     OW18595   5.665  13.207   0.357 -0.3743  0.1632 -0.1045
68957SOL    HW118596   5.703  13.282   0.311 -0.7659  0.9734  0.8528
68957SOL    HW218597   5.595  13.177   0.300 -0.9381  1.2342 -0.0113
68958SOL     OW18598   7.610  11.883   2.162  0.1444  0.7526  0.0705
68958SOL    HW118599   7.604  11.874   2.067 -0.8237 -0.8872  0.2518
68958SOL    HW218600   7.524  11.914   2.189  0.4158  1.2137  0.4065
68959SOL     OW18601   4.132   6.397  10.319 -0.0726 -0.1563  0.1968
68959SOL    HW118602   4.177   6.339  10.258 -0.3412 -2.0368  1.6734
68959SOL    HW218603   4.166   6.372  10.405 -0.2920  1.8360  0.9116
68960SOL     OW18604   6.107   9.044   3.787  0.4678  0.0234 -0.2568
68960SOL    HW118605   6.139   8.955   3.803 -1.5949 -1.1076 -1.8290
68960SOL    HW218606   6.075   9.073   3.873  1.9758 -0.3649  0.4656
68961SOL     OW18607  11.807   4.622   8.637 -0.0560 -0.0375 -0.0101
68961SOL    HW118608  11.743   4.625   8.566  2.2630  1.4995 -2.2175
68961SOL    HW218609  11.774   4.683   8.702 -1.1821  0.2008 -0.7843
68962SOL     OW18610   6.949   2.516   4.529 -0.2062 -0.1052 -0.5343
68962SOL    HW118611   6.929   2.458   4.455 -1.2192 -0.2076 -0.2020
68962SOL    HW218612   6.916   2.469   4.605 -1.1391  0.9324 -0.2675
68963SOL     OW18613   4.600  13.492   0.159  0.1254  0.2155 -0.1232
68963SOL    HW118614   4.685  13.463   0.192  0.2954  0.2506 -0.5202
68963SOL    HW218615   4.590  13.445   0.076  0.2319  1.0008 -0.5851
68964SOL     OW18616  12.765  10.067  13.651 -0.0784  0.0423  0.3598
68964SOL    HW118617  12.747  10.141  13.593 -0.1436 -0.6264 -0.5002
68964SOL    HW218618  12.803  10.106  13.729 -1.0310  1.0764  0.3351
68965SOL     OW18619   8.462   5.469   7.980  0.0462  0.1544  0.8827
68965SOL    HW118620   8.529   5.499   8.041  0.5904  2.9619 -0.9263
68965SOL    HW218621   8.491   5.381   7.955  2.5581  0.8771  0.9241
68966SOL     OW18622  10.152   2.288  11.183 -0.3041 -0.4691 -0.3475
68966SOL    HW118623  10.086   2.258  11.246 -0.2045  1.4632  0.7531
68966SOL    HW218624  10.102   2.309  11.105 -0.5204 -2.2184 -0.7267
68967SOL     OW18625   4.681  10.982   5.900 -0.5854  0.4571 -0.9265
68967SOL    HW118626   4.637  10.899   5.916 -0.4353  0.4462 -0.5716
68967SOL    HW218627   4.774  10.959   5.892 -0.5591  0.5738 -0.9668
68968SOL     OW18628  13.447  12.143   6.674 -0.1063 -0.1202  0.2299
68968SOL    HW118629  13.404  12.063   6.645 -2.9018  1.1824  0.4402
68968SOL    HW218630  13.425  12.150   6.767 -2.5955  2.3468 -0.4327
68969SOL     OW18631   0.303   9.648   9.767 -0.4895  0.2726 -0.1685
68969SOL    HW118632   0.360   9.670   9.693  0.1223  0.0921  0.2397
68969SOL    HW218633   0.214   9.659   9.733 -0.2121  0.8993 -0.7170
68970SOL     OW18634   3.614   7.312  10.752  0.0089  0.1194  0.1910
68970SOL    HW118635   3.594   7.352  10.837  1.4396 -0.8810  1.0325
68970SOL    HW218636   3.683   7.249  10.771  1.9485  1.4083 -2.0888
68971SOL     OW18637   2.959  13.626   2.285  0.0395  0.5378 -0.0842
68971SOL    HW118638   2.970  13.549   2.229 -0.2717 -1.0467  1.9300
68971SOL    HW218639   2.865  13.629   2.302  0.3060 -0.0399  1.6648
68972SOL     OW18640   4.069   1.805  13.497  0.1951 -0.2460 -0.4596
68972SOL    HW118641   4.112   1.750  13.562  1.2553 -1.0039 -1.7632
68972SOL    HW218642   3.980   1.771  13.491 -0.3330  0.6405  1.4721
68973SOL     OW18643  10.330   2.791   0.551 -0.5163 -0.0020  0.3755
68973SOL    HW118644  10.269   2.718   0.549 -1.0808  0.4404  1.1870
68973SOL    HW218645  10.281   2.863   0.590 -0.5158  1.3151 -1.8674
68974SOL     OW18646  12.492  12.567   3.643 -0.3541 -0.3575  0.4933
68974SOL    HW118647  12.479  12.660   3.628  0.3136 -0.6026 -2.0819
68974SOL    HW218648  12.545  12.562   3.723  1.5373  1.6236 -0.5336
68975SOL     OW18649   5.183  13.568   4.931 -0.3459 -0.3243 -0.0696
68975SOL    HW118650   5.125  13.513   4.878 -0.2737 -1.2497  0.7927
68975SOL    HW218651   5.172  13.656   4.894 -2.5107 -0.4117  0.2127
68976SOL     OW18652   3.507   5.319   5.165  0.1033 -0.7699 -0.6564
68976SOL    HW118653   3.468   5.319   5.252  0.4793  0.3628 -0.4828
68976SOL    HW218654   3.565   5.242   5.165  0.2069 -0.6984  0.1368
68977SOL     OW18655  12.250   8.035   2.476 -0.0707 -0.0252 -0.0211
68977SOL    HW118656  12.301   7.980   2.417 -0.7899  0.6443 -1.3023
68977SOL    HW218657  12.289   8.122   2.468 -0.1091  0.0489  0.5665
68978SOL     OW18658   4.336   7.397  12.422  0.5646  0.0857  0.4738
68978SOL    HW118659   4.390   7.445  12.360  1.5219  0.5373  1.6261
68978SOL    HW218660   4.261   7.454  12.437  0.9253  0.5229  0.6407
68979SOL     OW18661  11.398   2.532   0.300  0.0339  0.2358  0.4489
68979SOL    HW118662  11.373   2.439   0.306  2.7142 -0.7071 -1.1818
68979SOL    HW218663  11.315   2.578   0.293 -1.4565 -1.8922  2.5185
68980SOL     OW18664  10.322   6.384   4.727 -0.2857 -0.2208  0.5957
68980SOL    HW118665  10.268   6.312   4.761  0.7357 -0.6704  1.3044
68980SOL    HW218666  10.333   6.443   4.802  0.0321 -0.0298  0.4018
68981SOL     OW18667   6.271   9.412  12.919  0.4078 -0.1435  0.1359
68981SOL    HW118668   6.272   9.329  12.968  0.7017 -0.7438 -0.8692
68981SOL    HW218669   6.222   9.472  12.976  1.7885 -0.4539  1.7288
68982SOL     OW18670   7.769  12.509  12.525 -0.0928 -0.2849  0.1044
68982SOL    HW118671   7.850  12.518  12.474 -0.0005  0.5520  0.3783
68982SOL    HW218672   7.795  12.531  12.615 -0.9102  1.4897 -0.0498
68983SOL     OW18673  12.603   8.563   7.226  0.3263 -0.1200 -0.4766
68983SOL    HW118674  12.625   8.499   7.159 -0.6697  1.0920 -2.0383
68983SOL    HW218675  12.659   8.638   7.207  0.4546  0.0285  0.4254
68984SOL     OW18676  10.092   1.610   3.048 -0.4581 -0.1255 -0.3935
68984SOL    HW118677  10.026   1.674   3.076  0.3709 -0.6112  3.1663
68984SOL    HW218678  10.046   1.526   3.051 -0.1380 -0.2798  0.4817
68985SOL     OW18679   8.017   5.221   3.573  0.5569  0.2096  0.9713
68985SOL    HW118680   7.991   5.312   3.559 -0.6145 -0.2829 -0.3024
68985SOL    HW218681   8.058   5.195   3.490 -0.6985 -0.9205  0.6769
68986SOL     OW18682   9.635   9.737   2.906  0.4196  0.5522 -0.4251
68986SOL    HW118683   9.614   9.726   2.813  0.7515  0.7652 -0.5255
68986SOL    HW218684   9.717   9.786   2.907  1.1343 -0.6094 -0.0414
68987SOL     OW18685   0.317   0.885   7.224  0.2847 -0.7443  0.3805
68987SOL    HW118686   0.282   0.898   7.136  1.8768 -1.4242 -0.3844
68987SOL    HW218687   0.291   0.795   7.246  1.2707 -1.1558 -0.0810
68988SOL     OW18688  12.895   9.243   9.375  0.8312 -0.0251 -0.3305
68988SOL    HW118689  12.913   9.312   9.439  0.4122  0.1367 -0.3859
68988SOL    HW218690  12.963   9.177   9.391  0.4814 -0.1836  0.5748
68989SOL     OW18691   1.297   0.531   3.215 -0.1829  0.6559  0.2186
68989SOL    HW118692   1.350   0.453   3.228  0.4461  1.0127 -0.1776
68989SOL    HW218693   1.210   0.507   3.249  0.4525  0.3763  1.7389
68990SOL     OW18694   5.961   2.563  12.062  0.8415 -0.9155  0.3779
68990SOL    HW118695   5.922   2.484  12.025  1.8563 -1.4002  0.3161
68990SOL    HW218696   6.055   2.546  12.062  1.0257  0.0154  1.0126
68991SOL     OW18697   9.146   5.102   8.413  0.4646 -0.0193  0.2011
68991SOL    HW118698   9.189   5.109   8.498 -1.5674  0.8360  1.2188
68991SOL    HW218699   9.185   5.171   8.360  0.6341  0.4696  0.9579
68992SOL     OW18700   9.077   4.869   7.614  0.1936 -0.0670 -0.3941
68992SOL    HW118701   9.090   4.896   7.523  0.8954 -0.1697 -0.3264
68992SOL    HW218702   9.115   4.782   7.619 -0.6247 -0.4253 -0.2116
68993SOL     OW18703   7.494   7.239  10.556  0.1449  0.9360  0.0675
68993SOL    HW118704   7.453   7.260  10.640  0.5757 -0.4741  0.6498
68993SOL    HW218705   7.588   7.253  10.572  0.2305  0.6136 -0.1562
68994SOL     OW18706   0.474  13.712   7.927 -0.5817 -0.0280  0.0180
68994SOL    HW118707   0.461  13.763   7.847 -0.0038  1.1394  0.6457
68994SOL    HW218708   0.569  13.704   7.936 -0.5464  1.3628  1.4701
68995SOL     OW18709   6.559   0.940   7.228  0.3053  0.1596  0.1044
68995SOL    HW118710   6.470   0.949   7.195  0.0693  1.8851  1.1028
68995SOL    HW218711   6.551   0.879   7.302  0.0117  0.0651 -0.0054
68996SOL     OW18712   5.184   5.053   9.577  0.5400 -0.1940 -0.6690
68996SOL    HW118713   5.219   5.135   9.611  1.9967 -1.4375  0.9746
68996SOL    HW218714   5.094   5.074   9.551  1.2656  2.1956 -1.4906
68997SOL     OW18715   9.187  12.588  10.112 -0.1564 -0.4531 -0.3972
68997SOL    HW118716   9.216  12.658  10.170 -1.2148 -0.5989  0.3230
68997SOL    HW218717   9.183  12.511  10.168  0.3938 -0.9619 -1.0458
68998SOL     OW18718   7.063   0.471   6.963 -0.2253  0.3266 -0.1845
68998SOL    HW118719   7.044   0.514   6.879  0.2761  0.0372 -0.4517
68998SOL    HW218720   7.135   0.523   7.000 -2.0630  2.0002  1.2628
68999SOL     OW18721   1.676   0.729  11.426 -0.2071  0.2872 -0.1736
68999SOL    HW118722   1.727   0.649  11.421 -0.5785 -0.0163  0.7433
68999SOL    HW218723   1.741   0.799  11.416 -0.1412 -0.0900 -3.2572
69000SOL     OW18724  11.125   4.997   0.812 -0.0566 -0.4450  0.0536
69000SOL    HW118725  11.105   5.047   0.733 -1.3657  4.6593  3.1644
69000SOL    HW218726  11.041   4.988   0.857  1.1372  0.7957  2.7774
69001SOL     OW18727   3.828   9.051   8.788 -0.4521  0.0350 -0.4862
69001SOL    HW118728   3.798   9.126   8.839  0.4800  0.3268 -0.3564
69001SOL    HW218729   3.920   9.040   8.813 -0.1466 -0.1824 -1.6636
69002SOL     OW18730  12.706   6.372   9.505  0.0325 -0.3198  0.1507
69002SOL    HW118731  12.632   6.329   9.463 -0.0792 -0.3302  0.3597
69002SOL    HW218732  12.670   6.452   9.543  0.7632  1.5277 -2.7455
69003SOL     OW18733   9.249   4.296   8.747  0.5692 -0.3936 -0.0192
69003SOL    HW118734   9.154   4.305   8.747  0.7922  3.5969  1.5336
69003SOL    HW218735   9.264   4.202   8.759 -3.1378 -1.0060  0.9309
69004SOL     OW18736  12.168   6.617   8.210 -0.3681  0.0008  0.2412
69004SOL    HW118737  12.220   6.697   8.216 -0.7864  0.3065 -0.1412
69004SOL    HW218738  12.229   6.552   8.175  0.0339  0.0921  0.7569
69005SOL     OW18739   9.080   8.786   1.988 -0.5769 -0.6449 -0.4629
69005SOL    HW118740   9.125   8.742   1.916 -1.0697 -1.0525 -0.5222
69005SOL    HW218741   9.082   8.879   1.964  1.4765 -0.4589  0.2012
69006SOL     OW18742   7.232   0.598   6.390  0.3897  1.1090 -0.3598
69006SOL    HW118743   7.247   0.692   6.390 -0.0905  1.1902 -0.3798
69006SOL    HW218744   7.193   0.579   6.475 -2.4992  1.4568 -1.4739
69007SOL     OW18745   8.066   9.460   1.949  0.0709  0.2743  0.7978
69007SOL    HW118746   8.029   9.435   1.865  0.4199  1.2399  0.3522
69007SOL    HW218747   7.990   9.484   2.003 -0.1706 -0.5842  0.8523
69008SOL     OW18748  11.051  13.392   3.176  0.6931 -0.1621  0.1865
69008SOL    HW118749  11.029  13.471   3.128 -0.9251 -2.0615 -2.5094
69008SOL    HW218750  11.097  13.337   3.112  3.7176 -0.6920  2.5505
69009SOL     OW18751   8.513   0.458   4.477 -1.0744 -0.2008 -0.1752
69009SOL    HW118752   8.439   0.515   4.457 -0.7638  0.7182  1.0907
69009SOL    HW218753   8.474   0.376   4.506 -1.5627 -0.1661 -0.7282
69010SOL     OW18754  11.038   7.048   8.763 -0.8331  0.0493  0.0273
69010SOL    HW118755  11.037   6.969   8.817  1.0894  0.3527  0.5732
69010SOL    HW218756  10.981   7.027   8.688  1.1874 -2.6447 -0.9073
69011SOL     OW18757   9.990  10.885   8.758  0.0155 -0.1409  0.0890
69011SOL    HW118758   9.942  10.864   8.838 -0.7261  1.5321  0.1231
69011SOL    HW218759   9.971  10.812   8.698  0.3136 -1.2412  1.2928
69012SOL     OW18760  11.905   1.362  11.296 -0.1933 -0.7245  0.0828
69012SOL    HW118761  11.909   1.433  11.360 -2.0814 -1.6297  1.2853
69012SOL    HW218762  11.882   1.284  11.347 -2.1640 -1.4182 -1.7167
69013SOL     OW18763   9.226   9.743   4.016  0.5328  0.0984 -0.1864
69013SOL    HW118764   9.233   9.649   4.034  0.4000 -0.2192 -1.7131
69013SOL    HW218765   9.134   9.763   4.033  0.1669 -0.4205 -1.4408
69014SOL     OW18766  12.305  11.033  10.739 -0.6895 -0.1146 -0.0644
69014SOL    HW118767  12.349  10.948  10.734  0.1720  0.3007  0.2991
69014SOL    HW218768  12.256  11.039  10.657  0.6526 -0.1956 -0.9010
69015SOL     OW18769  10.479   7.572   0.234 -0.7247  0.3449  0.4515
69015SOL    HW118770  10.411   7.526   0.283 -0.4611  1.1139  1.5764
69015SOL    HW218771  10.560   7.526   0.255 -0.9137 -0.8137 -1.1975
69016SOL     OW18772   4.460  13.449  12.380 -0.4714 -0.2155 -0.4910
69016SOL    HW118773   4.439  13.389  12.452  0.8423 -0.9371 -0.6930
69016SOL    HW218774   4.532  13.407  12.333  1.7039  2.2928  0.3820
69017SOL     OW18775  12.493   9.570   5.471 -0.5779  0.1767 -0.4290
69017SOL    HW118776  12.498   9.660   5.504 -0.9035 -0.2697  0.9051
69017SOL    HW218777  12.410   9.537   5.506 -0.0797 -0.9004 -0.2384
69018SOL     OW18778  12.970   6.746   2.020 -0.1445  0.2052 -0.5139
69018SOL    HW118779  12.989   6.656   2.046 -0.3879  0.3636  0.2389
69018SOL    HW218780  12.878   6.758   2.042 -0.1308  0.6125 -0.6792
69019SOL     OW18781   0.860   7.166  10.295 -0.3567  0.1527 -0.2641
69019SOL    HW118782   0.785   7.180  10.353 -0.2307 -0.3977  0.0296
69019SOL    HW218783   0.904   7.251  10.293 -0.5855  0.2842  0.1307
69020SOL     OW18784   9.360   3.446  12.922  0.5109 -0.0377 -0.5596
69020SOL    HW118785   9.346   3.398  13.004 -0.5140  1.2838  0.0858
69020SOL    HW218786   9.443   3.492  12.936  0.0245  0.6854  0.0113
69021SOL     OW18787  10.516   0.797   1.231 -0.0671  0.3301 -0.0732
69021SOL    HW118788  10.442   0.844   1.193  0.7464  0.6677 -1.3174
69021SOL    HW218789  10.554   0.748   1.158  2.2163  1.8548 -0.0199
69022SOL     OW18790   9.349  10.847   9.372  0.0317  0.1596 -0.0318
69022SOL    HW118791   9.426  10.839   9.428  0.5864 -0.2897 -0.8335
69022SOL    HW218792   9.275  10.846   9.432  0.6786  1.3967  0.8222
69023SOL     OW18793  11.177   3.773   1.597  0.1026 -0.0643 -0.2239
69023SOL    HW118794  11.124   3.815   1.530 -0.8255 -0.0278  0.5077
69023SOL    HW218795  11.148   3.682   1.598 -1.9024  0.4842  1.9432
69024SOL     OW18796   1.351   8.295   1.643  0.6200  0.1658  0.1864
69024SOL    HW118797   1.331   8.205   1.616 -0.1736 -0.2785  2.1225
69024SOL    HW218798   1.313   8.349   1.574 -0.6924 -0.9264  0.0105
69025SOL     OW18799   2.779   0.883   0.020  0.3582 -0.2169  0.2889
69025SOL    HW118800   2.806   0.970  -0.008 -1.0373  0.4886  1.0674
69025SOL    HW218801   2.860   0.842   0.051  1.3149  0.2033 -1.4904
69026SOL     OW18802   4.125   2.249   5.269 -0.1605 -0.2776 -0.0381
69026SOL    HW118803   4.039   2.290   5.272 -1.1922 -2.3273  0.8976
69026SOL    HW218804   4.178   2.297   5.333  0.0511  2.1908 -1.9262
69027SOL     OW18805   5.088   3.131   3.596 -0.1818 -0.3796 -0.1736
69027SOL    HW118806   5.146   3.124   3.672 -0.7273 -0.9549  0.2020
69027SOL    HW218807   5.032   3.206   3.615 -0.1691 -0.3859 -0.1107
69028SOL     OW18808   0.962   0.206   2.012 -0.1204 -0.3251 -0.7289
69028SOL    HW118809   0.876   0.167   2.031 -0.0273  0.7985  2.7390
69028SOL    HW218810   1.017   0.132   1.988 -1.4689 -1.4310 -0.5809
69029SOL     OW18811   2.491   1.710   0.838 -0.0451  0.0532  0.0692
69029SOL    HW118812   2.504   1.801   0.812  1.4880 -0.3416 -0.6717
69029SOL    HW218813   2.578   1.671   0.836 -0.8066 -1.7511 -0.8398
69030SOL     OW18814   7.237   4.885   8.877 -0.0915  0.7351  0.3524
69030SOL    HW118815   7.273   4.806   8.835  1.3577  1.3765  0.3279
69030SOL    HW218816   7.191   4.852   8.954 -0.4415 -0.2270 -0.2475
69031SOL     OW18817   9.886   8.314   4.772  0.1474 -0.0049  0.0515
69031SOL    HW118818   9.948   8.243   4.759 -0.3783 -0.2299 -1.2813
69031SOL    HW218819   9.928   8.390   4.732 -0.0945  0.0115 -0.1767
69032SOL     OW18820   8.523   3.673   9.565 -0.6302 -0.3839  0.3714
69032SOL    HW118821   8.454   3.661   9.500 -0.7541  0.2464  0.3880
69032SOL    HW218822   8.477   3.696   9.646 -0.5261 -1.7954  0.8653
69033SOL     OW18823   1.496   5.810   3.276  0.2639 -0.2220  0.3153
69033SOL    HW118824   1.407   5.802   3.240  1.4245  0.6335 -3.1386
69033SOL    HW218825   1.517   5.902   3.265  1.5484 -0.3815  1.2707
69034SOL     OW18826  11.181  11.116   4.561 -0.0425  0.8065 -0.3010
69034SOL    HW118827  11.124  11.042   4.540 -1.3920  1.5344  0.6513
69034SOL    HW218828  11.184  11.117   4.657  0.2676  1.7426 -0.3144
69035SOL     OW18829   5.456   1.202   0.580 -0.5284  0.1359  0.1187
69035SOL    HW118830   5.533   1.168   0.625 -0.2682 -1.4337 -1.4193
69035SOL    HW218831   5.453   1.295   0.603  1.0420 -0.0771  1.2704
69036SOL     OW18832   0.052  12.181   2.676 -0.1496  0.3047 -0.6326
69036SOL    HW118833   0.073  12.274   2.679  0.5319  0.1285  1.6674
69036SOL    HW218834   0.076  12.154   2.587  2.3345  1.7409 -0.4848
69037SOL     OW18835   7.510   8.939   8.497 -0.1826 -0.1012 -0.2046
69037SOL    HW118836   7.553   8.983   8.423  0.7099 -0.8336 -0.1421
69037SOL    HW218837   7.499   8.848   8.468 -0.7267 -0.1728  0.1985
69038SOL     OW18838  10.780   0.579   7.064  0.3928  0.2190 -0.3484
69038SOL    HW118839  10.761   0.631   7.142  1.9300  1.3091 -0.6479
69038SOL    HW218840  10.702   0.526   7.050 -1.3567  2.6219 -0.1678
69039SOL     OW18841  10.076   3.419   1.217  0.0564  0.1754  0.4580
69039SOL    HW118842  10.168   3.400   1.235  0.3911  0.5399 -0.7465
69039SOL    HW218843  10.030   3.398   1.298  0.7988 -2.8462  0.2016
69040SOL     OW18844   6.910  11.999  11.579 -0.4180 -0.3862  0.0997
69040SOL    HW118845   6.983  12.009  11.517 -0.9002 -3.0215 -1.0441
69040SOL    HW218846   6.846  12.064  11.551 -0.2259 -0.8834 -1.6471
69041SOL     OW18847  12.220  10.850   7.657 -0.4806  0.1972 -0.1409
69041SOL    HW118848  12.242  10.932   7.703 -0.7916  1.8009 -2.6761
69041SOL    HW218849  12.243  10.782   7.720 -1.1113  2.2125  2.4843
69042SOL     OW18850   9.342   4.047   8.808 -0.0368  0.1921  0.3689
69042SOL    HW118851   9.428   4.075   8.837 -0.4390  0.2208  1.6125
69042SOL    HW218852   9.334   3.957   8.841  0.3943 -0.6681 -1.7067
69043SOL     OW18853  10.652   2.699  12.021  0.3860 -0.9222  0.0258
69043SOL    HW118854  10.597   2.740  12.089  0.8834  1.8274 -1.1150
69043SOL    HW218855  10.590   2.653  11.965 -0.5010  0.0650  0.1648
69044SOL     OW18856   6.616   8.707   4.448  0.0153  0.2180 -0.3029
69044SOL    HW118857   6.543   8.738   4.503  0.1881  0.1439 -0.0298
69044SOL    HW218858   6.574   8.680   4.366 -0.1382  1.1527 -0.5350
69045SOL     OW18859   1.252   6.094   6.100 -0.8794 -0.0962 -0.6616
69045SOL    HW118860   1.247   6.130   6.189 -0.2275 -0.9710 -0.2691
69045SOL    HW218861   1.162   6.101   6.067 -1.3051 -0.5228  0.3694
69046SOL     OW18862   5.076  12.106   0.248 -0.5111 -0.5304 -0.2581
69046SOL    HW118863   5.060  12.086   0.156  2.6008  0.4207 -1.1381
69046SOL    HW218864   5.103  12.198   0.249  2.2149 -1.2296  1.0952
69047SOL     OW18865   8.465  10.115  11.146  0.1685  0.3093 -0.0409
69047SOL    HW118866   8.424  10.114  11.060  0.8112 -0.3234 -0.3545
69047SOL    HW218867   8.550  10.157  11.133  1.1828 -1.6727 -0.1859
69048SOL     OW18868   5.113   1.069   1.764  0.3010 -0.3088  0.1660
69048SOL    HW118869   5.075   1.143   1.812  1.9224 -0.0034  1.0769
69048SOL    HW218870   5.038   1.021   1.730 -0.8126  1.3186  0.2276
69049SOL     OW18871  12.495   7.114   0.004  0.2801 -0.4594  0.4578
69049SOL    HW118872  12.579   7.088   0.041  0.4486 -0.6443 -0.0446
69049SOL    HW218873  12.436   7.120   0.080  0.8672  0.1862  0.8736
69050SOL     OW18874   5.550   5.195   7.193 -0.0249 -0.4754 -0.1013
69050SOL    HW118875   5.469   5.144   7.187 -0.2747 -0.1533  0.3946
69050SOL    HW218876   5.567   5.202   7.287 -0.5851  1.2384 -0.0842
69051SOL     OW18877   4.331   2.570   9.839 -0.4765  1.0093  0.9690
69051SOL    HW118878   4.388   2.532   9.773  0.1296  0.9671  1.5097
69051SOL    HW218879   4.310   2.498   9.898 -0.4542  1.2054  1.2172
69052SOL     OW18880  10.992   7.871  11.999 -0.0744 -0.3346 -0.3689
69052SOL    HW118881  10.923   7.936  12.011 -2.4295 -2.8640  1.2284
69052SOL    HW218882  11.019   7.881  11.908 -3.3587  0.1433 -1.4248
69053SOL     OW18883   8.721   3.459   3.023 -0.2365 -0.4450  0.1820
69053SOL    HW118884   8.660   3.532   3.013  0.4374  0.2637  1.0459
69053SOL    HW218885   8.806   3.494   2.995 -0.1598 -1.3514 -0.7988
69054SOL     OW18886   2.744  12.423   9.690  0.0526  0.4142 -0.1742
69054SOL    HW118887   2.799  12.429   9.612 -0.2606  0.5571 -0.3876
69054SOL    HW218888   2.708  12.512   9.701  1.4485  0.8609  1.1360
69055SOL     OW18889   4.646   8.206  10.731  0.3379  1.0599 -0.4001
69055SOL    HW118890   4.658   8.119  10.693  0.2814  0.7170  0.3423
69055SOL    HW218891   4.693   8.202  10.815 -0.8212  1.2817  0.2833
69056SOL     OW18892   1.811   0.490   0.592  0.1402 -0.5704  0.3176
69056SOL    HW118893   1.788   0.404   0.555 -1.3658  0.9246 -2.5270
69056SOL    HW218894   1.904   0.483   0.613  0.2346 -2.6514 -0.5624
69057SOL     OW18895   6.956  12.841   6.716  0.1254  0.1785  0.2975
69057SOL    HW118896   7.002  12.915   6.755  1.6164 -0.3164 -0.4306
69057SOL    HW218897   6.909  12.801   6.789  0.6021  0.9053  1.0198
69058SOL     OW18898   9.385   1.015   3.895 -0.1576 -0.4631  0.8438
69058SOL    HW118899   9.358   1.053   3.811  3.0337 -0.3561 -0.2820
69058SOL    HW218900   9.467   1.060   3.915 -1.0825 -0.1141  4.3649
69059SOL     OW18901  11.950   2.895   9.660  0.3122  0.9562 -0.3693
69059SOL    HW118902  12.026   2.882   9.603  0.8113  2.2218 -0.0258
69059SOL    HW218903  11.959   2.827   9.727  0.5338  0.4036 -0.9492
69060SOL     OW18904  12.875   3.344   0.557  0.3553 -0.6288  0.0305
69060SOL    HW118905  12.930   3.412   0.518  2.5547 -1.1352  2.0373
69060SOL    HW218906  12.831   3.304   0.482 -0.4741  2.4402 -1.2929
69061SOL     OW18907  13.554   2.265   7.447 -0.4372  1.0165 -0.0648
69061SOL    HW118908  13.548   2.338   7.509  0.6319  0.5774  0.5906
69061SOL    HW218909  13.472   2.217   7.459  1.2857 -1.5115  4.2469
69062SOL     OW18910  13.695   0.523   4.051  0.2591  0.3558  0.6683
69062SOL    HW118911  13.756   0.454   4.074  1.1785  0.9864  0.2166
69062SOL    HW218912  13.651   0.545   4.133  1.7737  0.9562  1.3569
69063SOL     OW18913   5.127   3.623  10.259 -0.1277 -0.1233 -0.2559
69063SOL    HW118914   5.155   3.536  10.289 -0.4457 -0.3671 -0.6571
69063SOL    HW218915   5.178   3.684  10.312 -3.0675 -0.3998  3.2885
69064SOL     OW18916   9.142   6.091  13.046 -0.2871  0.4566  0.0679
69064SOL    HW118917   9.142   5.996  13.047  1.1789  0.4336  1.6333
69064SOL    HW218918   9.069   6.117  13.102 -0.1531  0.2455  0.3388
69065SOL     OW18919  12.299   4.298   4.110  0.1989 -0.1286 -0.0224
69065SOL    HW118920  12.257   4.218   4.141 -0.5103  0.0042 -0.5809
69065SOL    HW218921  12.305   4.354   4.187 -0.0191 -0.4220  0.2103
69066SOL     OW18922   8.802   0.074  10.570  0.6200 -0.1028 -0.1518
69066SOL    HW118923   8.856   0.071  10.648  1.7736 -0.4892 -0.9395
69066SOL    HW218924   8.811   0.164  10.538  1.2034 -0.2923 -0.5428
69067SOL     OW18925   0.314   8.991  10.169  0.4876  0.4084 -0.0677
69067SOL    HW118926   0.398   9.029  10.196 -0.7614  2.3902  1.2521
69067SOL    HW218927   0.262   9.066  10.141 -1.4558 -0.5429  0.8380
69068SOL     OW18928  13.744   9.810  11.847  0.2599  0.0702  0.4467
69068SOL    HW118929  13.767   9.782  11.759 -1.0816  1.8243 -0.5338
69068SOL    HW218930  13.823   9.795  11.899  1.2600 -0.4923 -1.1805
69069SOL     OW18931   6.793  11.875   6.262  0.0732 -0.0122  0.4072
69069SOL    HW118932   6.836  11.957   6.287 -0.9714  0.8541 -0.5255
69069SOL    HW218933   6.808  11.817   6.336 -1.1070  1.7422  2.1328
69070SOL     OW18934  13.379   5.035   2.142  0.2978 -0.3324 -0.6768
69070SOL    HW118935  13.438   5.106   2.118 -0.7127  0.4896 -0.7901
69070SOL    HW218936  13.321   5.025   2.066 -1.4679  0.7603  0.4521
69071SOL     OW18937  10.302   3.591  13.428  0.4370  0.7088 -0.0188
69071SOL    HW118938  10.330   3.622  13.341 -1.1717 -0.6173 -1.0798
69071SOL    HW218939  10.214   3.627  13.438 -0.5231 -1.3997 -0.2434
69072SOL     OW18940   1.248  11.520   7.386 -0.3230  0.4042  0.0958
69072SOL    HW118941   1.315  11.534   7.319 -0.7112 -1.1617 -0.6701
69072SOL    HW218942   1.198  11.601   7.388  1.2877  1.4336  0.3500
69073SOL     OW18943  13.430  11.989   4.017 -0.1579  0.3674  0.4364
69073SOL    HW118944  13.366  11.923   4.044 -0.4877 -0.1619 -1.5509
69073SOL    HW218945  13.501  11.980   4.081 -0.8844 -0.8291  1.1188
69074SOL     OW18946   3.731   4.267   5.886  0.0484 -0.3231 -0.2071
69074SOL    HW118947   3.783   4.204   5.936 -0.4343  0.1804  0.9774
69074SOL    HW218948   3.795   4.328   5.851  0.4522 -1.0439 -0.7489
69075SOL     OW18949   1.867   9.336  10.955 -0.9139  0.2071  0.3685
69075SOL    HW118950   1.835   9.406  10.898 -1.1508 -0.9709 -1.0268
69075SOL    HW218951   1.788   9.301  10.996 -0.7570  0.9667  1.3518
69076SOL     OW18952   1.091  13.550  12.990 -0.1936 -0.2637  0.7068
69076SOL    HW118953   1.119  13.529  13.079 -1.4502  0.6088  1.3394
69076SOL    HW218954   1.096  13.467  12.943  1.8577 -0.4568  1.1879
69077SOL     OW18955   4.451   9.978   4.795 -0.1282 -0.2415 -0.2755
69077SOL    HW118956   4.395  10.056   4.798  1.1437  0.7109 -0.0492
69077SOL    HW218957   4.537  10.012   4.768  0.6202 -1.4716  0.4606
69078SOL     OW18958   9.793  11.144   5.511 -0.7229  0.3042  0.2424
69078SOL    HW118959   9.728  11.202   5.473 -1.2167  0.2083  0.9156
69078SOL    HW218960   9.875  11.193   5.506 -0.9629  0.6823 -0.0301
69079SOL     OW18961  12.056  11.157   4.650 -0.0324  0.2531 -0.4611
69079SOL    HW118962  11.998  11.233   4.655  0.6569  0.7445  0.3596
69079SOL    HW218963  12.000  11.085   4.622 -0.5555  1.2049 -1.9558
69080SOL     OW18964   9.853   1.883   5.740  0.3271 -0.1329  0.2930
69080SOL    HW118965   9.827   1.945   5.671 -0.2397  0.4248  1.0019
69080SOL    HW218966   9.845   1.933   5.821 -0.6523 -1.2853  0.9272
69081SOL     OW18967   6.243   7.337   8.241  0.0619  0.0239  0.1172
69081SOL    HW118968   6.207   7.406   8.297  0.5426  1.2171 -0.9951
69081SOL    HW218969   6.336   7.359   8.232 -0.2292  0.6429 -2.1460
69082SOL     OW18970  12.840  11.276   7.365  0.0601  0.3404 -0.1721
69082SOL    HW118971  12.769  11.253   7.305  0.0460  0.1717 -0.0917
69082SOL    HW218972  12.917  11.283   7.310  0.8475 -3.4150  0.1917
69083SOL     OW18973   8.617   3.977   1.143  0.1814 -0.1881  0.1596
69083SOL    HW118974   8.538   3.926   1.158 -0.7149  1.3117  0.8071
69083SOL    HW218975   8.617   4.042   1.213  2.1822 -0.3415  0.3775
69084SOL     OW18976   3.288   0.005   5.834 -0.2673  0.0196 -0.5687
69084SOL    HW118977   3.301   0.083   5.888 -0.2056  0.2312 -0.8854
69084SOL    HW218978   3.236  -0.054   5.889 -0.1728  0.2162 -0.2661
69085SOL     OW18979   2.557   9.059  13.211 -0.1030  0.5361  0.2558
69085SOL    HW118980   2.638   9.025  13.173  0.3425  1.5644  0.2645
69085SOL    HW218981   2.526   8.988  13.268  1.6650  0.7334  1.5398
69086SOL     OW18982   9.944   0.238   5.715  1.0916 -0.2798 -0.5087
69086SOL    HW118983   9.885   0.167   5.737  2.3554 -1.3382 -0.3872
69086SOL    HW218984   9.941   0.244   5.619 -1.0570  1.3606 -0.4014
69087SOL     OW18985   6.425   8.660  11.632  0.3146 -0.0494 -0.2151
69087SOL    HW118986   6.422   8.568  11.658  0.6363  0.1226  0.4533
69087SOL    HW218987   6.473   8.660  11.549 -1.4270 -0.6923 -1.2709
69088SOL     OW18988  10.861  12.345   3.284 -0.2744 -0.0905  0.1459
69088SOL    HW118989  10.893  12.256   3.299 -0.9570 -0.6418 -1.4093
69088SOL    HW218990  10.827  12.373   3.369 -1.9266 -2.1305  0.2608
69089SOL     OW18991   1.447  11.490   7.966  0.2349  0.0947  0.0157
69089SOL    HW118992   1.510  11.528   8.027  0.5083 -0.3202 -0.0092
69089SOL    HW218993   1.380  11.452   8.022 -0.0134  0.5626  0.0420
69090SOL     OW18994   0.349   1.737   1.201  0.0559 -0.2142 -0.6426
69090SOL    HW118995   0.313   1.663   1.250  2.2697 -0.7967  0.2341
69090SOL    HW218996   0.403   1.696   1.133  2.2646  0.5217  0.5854
69091SOL     OW18997   1.240   8.325   1.359  0.3459 -0.3206 -0.7523
69091SOL    HW118998   1.233   8.416   1.329 -1.6056  0.5312  1.9045
69091SOL    HW218999   1.149   8.295   1.367  0.5745 -0.5248  3.6311
69092SOL     OW19000   8.329  12.659  11.488  0.1988  0.2862  0.1273
69092SOL    HW119001   8.285  12.590  11.438  0.4338  0.9623 -1.0676
69092SOL    HW219002   8.420  12.630  11.493  0.0442 -0.1018  0.7568
69093SOL     OW19003   3.618  12.922   7.480  0.2517 -0.4637 -0.3533
69093SOL    HW119004   3.557  12.937   7.552 -0.3713  0.3285 -1.0268
69093SOL    HW219005   3.702  12.954   7.513 -0.4689  2.0470 -0.7301
69094SOL     OW19006   6.202   4.634  11.277 -0.0929  0.6869  0.2697
69094SOL    HW119007   6.217   4.558  11.333  0.8894 -0.4672 -1.4586
69094SOL    HW219008   6.108   4.649  11.281 -0.3132 -0.6552  0.6367
69095SOL     OW19009  11.768   7.725   2.195  0.2286  0.0495 -0.1128
69095SOL    HW119010  11.853   7.683   2.209  0.7345  1.2701  0.5963
69095SOL    HW219011  11.718   7.660   2.145  0.9908 -1.3688  0.8764
69096SOL     OW19012   6.601   5.448  13.235 -0.0839 -0.2771 -0.5441
69096SOL    HW119013   6.531   5.385  13.249  0.7940 -1.3157 -0.7410
69096SOL    HW219014   6.682   5.397  13.239  0.6695  0.8677 -0.4599
69097SOL     OW19015   6.529   7.622   8.006 -0.3976 -0.1494 -0.3759
69097SOL    HW119016   6.500   7.558   8.071 -0.0609  0.2407  0.1631
69097SOL    HW219017   6.612   7.586   7.973  1.6400  1.6023  2.3830
69098SOL     OW19018   2.052   2.630   7.808  0.1401 -0.2330  0.5887
69098SOL    HW119019   2.030   2.716   7.846  3.0109  1.3691 -1.0277
69098SOL    HW219020   2.047   2.569   7.881 -3.0368  1.0308  1.5908
69099SOL     OW19021   5.876  12.190   4.040 -0.8727  0.1691  0.2592
69099SOL    HW119022   5.919  12.197   4.125 -1.2240 -0.3968  0.4852
69099SOL    HW219023   5.861  12.281   4.013  1.2033  0.4352 -0.2060
69100SOL     OW19024   3.776   0.404   9.142  0.1363  0.2015 -0.1662
69100SOL    HW119025   3.765   0.479   9.084 -0.2622  0.3640  0.1101
69100SOL    HW219026   3.747   0.436   9.228  1.3838  0.1779  0.2759
69101SOL     OW19027   4.848  13.229  10.577  0.1670 -0.2997  0.0474
69101SOL    HW119028   4.930  13.259  10.617 -1.2333  3.1782  0.6605
69101SOL    HW219029   4.868  13.223  10.483  1.4662 -0.9166  0.3418
69102SOL     OW19030   0.241  11.474   3.108  0.1886 -0.4564 -0.0391
69102SOL    HW119031   0.217  11.386   3.078  0.2632 -0.7133  0.6207
69102SOL    HW219032   0.180  11.492   3.179 -0.6815  0.5801 -1.0182
69103SOL     OW19033   3.582   4.041   9.498  0.0528  0.0006  0.5215
69103SOL    HW119034   3.648   4.094   9.454  1.0609  0.2257  2.2210
69103SOL    HW219035   3.588   4.066   9.590 -0.7934 -1.6688  1.0812
69104SOL     OW19036   3.699  10.685  12.240 -0.2049  0.0092  0.1605
69104SOL    HW119037   3.607  10.657  12.239 -0.4961  0.9587 -1.0673
69104SOL    HW219038   3.721  10.689  12.333 -1.3739 -0.3392  0.4721
69105SOL     OW19039   6.922   0.590   5.933 -0.2489  0.2408  1.4209
69105SOL    HW119040   6.869   0.664   5.960 -0.9223 -0.4702  2.0845
69105SOL    HW219041   6.927   0.534   6.010 -0.8524 -1.0345  0.5691
69106SOL     OW19042   4.663  11.386   8.574 -0.1549 -0.6284  0.0335
69106SOL    HW119043   4.597  11.345   8.631  1.2120 -0.8885  1.5145
69106SOL    HW219044   4.653  11.480   8.590 -0.7067 -0.6117 -0.3842
69107SOL     OW19045  10.081   1.298   3.233 -0.1722  0.2749  0.0449
69107SOL    HW119046  10.036   1.360   3.174 -0.0118 -0.3423 -0.7508
69107SOL    HW219047  10.146   1.256   3.177 -0.1638 -0.4899  0.6209
69108SOL     OW19048   1.925   8.563  12.890  0.2294  0.3604 -0.2073
69108SOL    HW119049   1.906   8.497  12.823 -0.2989  2.0996 -1.8807
69108SOL    HW219050   2.016   8.587  12.875 -0.0379  1.1195 -0.6748
69109SOL     OW19051   4.171   9.993   5.306  0.0752  0.4680  0.5486
69109SOL    HW119052   4.201   9.902   5.313 -1.7765 -0.2585 -0.3614
69109SOL    HW219053   4.252  10.044   5.301  1.2058 -0.8999  3.0645
69110SOL     OW19054   6.003   8.865   4.948  0.1866  0.4279 -0.2924
69110SOL    HW119055   5.990   8.771   4.933 -0.7066  0.4995 -0.0104
69110SOL    HW219056   5.934   8.889   5.009 -0.4068  1.5334 -1.3689
69111SOL     OW19057  10.690   3.956   8.726 -0.1114  0.4361 -0.0644
69111SOL    HW119058  10.745   4.019   8.772 -0.8334  0.7599  0.3816
69111SOL    HW219059  10.658   3.897   8.795 -1.0201  0.7835 -0.1669
69112SOL     OW19060  13.518   3.690   4.569  0.2149 -0.4545 -0.4983
69112SOL    HW119061  13.590   3.751   4.555  0.3431 -0.7487 -1.1856
69112SOL    HW219062  13.452   3.716   4.504  0.4240 -1.2657 -1.0529
69113SOL     OW19063   2.975   4.712   8.485 -0.4744 -0.4191 -0.0738
69113SOL    HW119064   3.007   4.763   8.410 -0.4633 -1.9165 -1.1408
69113SOL    HW219065   2.908   4.654   8.448 -0.0242 -1.6382  0.9426
69114SOL     OW19066  11.081  13.433   4.560  0.8301 -0.6445 -0.2242
69114SOL    HW119067  11.129  13.396   4.634  0.1042  0.0178  0.6058
69114SOL    HW219068  10.989  13.429   4.586  0.6718  1.0523 -0.3863
69115SOL     OW19069  13.089   0.378  10.995  0.1542 -0.1743 -0.2860
69115SOL    HW119070  13.163   0.386  11.055 -0.1865 -1.8379  0.3932
69115SOL    HW219071  13.017   0.424  11.039  0.8163  1.8084 -1.1301
69116SOL     OW19072   8.475   3.628   8.875 -0.6615  0.4023  0.6010
69116SOL    HW119073   8.468   3.576   8.955 -0.3051  0.6668  0.8085
69116SOL    HW219074   8.544   3.585   8.825 -0.4731  0.5840  0.7043
69117SOL     OW19075   1.354   4.470   5.554 -0.9500 -0.5258 -0.7331
69117SOL    HW119076   1.335   4.548   5.607  0.6409  0.0526 -0.9737
69117SOL    HW219077   1.412   4.418   5.609 -3.8101 -2.7692  0.4214
69118SOL     OW19078  11.299   2.381   3.625  0.2070  0.3776  0.1402
69118SOL    HW119079  11.322   2.395   3.717 -0.5690 -0.4379  0.4730
69118SOL    HW219080  11.203   2.378   3.625  0.2190 -0.2943 -0.5962
69119SOL     OW19081  13.667  11.951   6.660  0.2682  0.7822 -0.2146
69119SOL    HW119082  13.637  12.036   6.629 -0.3598  0.9294  0.7502
69119SOL    HW219083  13.586  11.903   6.680  0.6127 -0.0160 -0.6629
69120SOL     OW19084   5.858   8.264   6.131  0.0141  0.5994 -0.0313
69120SOL    HW119085   5.824   8.308   6.053 -1.0397 -0.4726 -0.2142
69120SOL    HW219086   5.781   8.220   6.169  0.6324  0.5784  1.2557
69121SOL     OW19087   9.876   6.940   2.737 -0.1830  0.4083  0.1164
69121SOL    HW119088   9.885   6.872   2.669  0.4538 -0.1649  0.7636
69121SOL    HW219089   9.813   7.001   2.700 -1.1035 -0.7558 -0.3160
69122SOL     OW19090  13.505   5.792   4.248 -0.4477  0.8180 -0.8050
69122SOL    HW119091  13.533   5.877   4.212 -0.1244  1.8686  1.7664
69122SOL    HW219092  13.526   5.797   4.341 -0.8191 -1.9581 -0.4981
69123SOL     OW19093   5.609   8.275   8.174 -0.2077  0.2149 -0.2642
69123SOL    HW119094   5.554   8.248   8.248 -1.0652 -0.7906 -1.2304
69123SOL    HW219095   5.698   8.248   8.198 -0.6642 -1.2153 -0.0963
69124SOL     OW19096   9.263   8.167   4.591 -0.0099  0.4191 -0.1913
69124SOL    HW119097   9.289   8.185   4.682  2.2924 -0.8247 -0.5085
69124SOL    HW219098   9.262   8.072   4.585 -0.0064  0.4823 -1.5018
69125SOL     OW19099  11.510   7.532   9.303  0.4231  0.0178 -0.1393
69125SOL    HW119100  11.531   7.623   9.322  0.2947 -0.3489  1.9802
69125SOL    HW219101  11.593   7.486   9.310  0.1624 -0.3234  0.9605
69126SOL     OW19102   4.091   0.780   7.464  0.5083  0.3010 -0.5385
69126SOL    HW119103   3.997   0.796   7.454  0.1543 -1.3356 -0.1786
69126SOL    HW219104   4.124   0.857   7.510 -1.4938 -0.8205  3.2119
69127SOL     OW19105   9.579   0.794  10.521  0.2904  0.8787  0.1326
69127SOL    HW119106   9.542   0.865  10.469 -2.1469 -1.9615 -2.4262
69127SOL    HW219107   9.519   0.721  10.508  3.8929 -2.4974  0.4322
69128SOL     OW19108   5.386   4.910  13.077  0.3867 -0.3821  0.1209
69128SOL    HW119109   5.442   4.834  13.087  0.0393 -0.9861 -2.0033
69128SOL    HW219110   5.304   4.875  13.042  0.1674  0.9278 -0.7713
69129SOL     OW19111  13.699   7.294   5.222  0.2473 -0.2622  0.3134
69129SOL    HW119112  13.645   7.372   5.236 -0.1356 -0.3018 -0.9083
69129SOL    HW219113  13.673   7.234   5.292 -0.0242  0.3917  0.7835
69130SOL     OW19114   9.394  10.495   8.278  0.8679 -0.3898 -0.4883
69130SOL    HW119115   9.299  10.497   8.290  0.9343  2.5558  0.0715
69130SOL    HW219116   9.425  10.429   8.340 -0.7603 -1.2439 -0.5374
69131SOL     OW19117   2.806   2.918   6.325  0.0741  0.1356 -0.0266
69131SOL    HW119118   2.760   2.919   6.409 -0.2302 -0.7306 -0.1780
69131SOL    HW219119   2.743   2.952   6.262  0.2645  0.6783  0.0710
69132SOL     OW19120   8.679   5.236   8.121  0.4699  0.2014  0.2584
69132SOL    HW119121   8.656   5.160   8.175 -1.5251  0.7848  0.3271
69132SOL    HW219122   8.630   5.223   8.040  0.5521  1.1323  0.0511
69133SOL     OW19123   4.232   1.397   9.332  0.2485 -0.1909 -0.3399
69133SOL    HW119124   4.155   1.377   9.385  0.2508 -0.6596 -0.5043
69133SOL    HW219125   4.303   1.346   9.372  0.5629  0.5125  0.0255
69134SOL     OW19126   9.463   8.293  11.261  0.5027  0.1812 -0.1442
69134SOL    HW119127   9.460   8.199  11.281  1.9175  0.2844  0.7229
69134SOL    HW219128   9.555   8.316  11.272 -0.0026  1.8965  0.7229
69135SOL     OW19129   4.917  12.674   0.885 -0.3425 -0.2353 -0.0574
69135SOL    HW119130   4.926  12.631   0.800 -0.0989  1.8534 -1.1452
69135SOL    HW219131   5.005  12.704   0.907 -0.0415 -2.2025  1.8227
69136SOL     OW19132  11.352   4.435   0.237 -0.1105  0.3499 -0.0602
69136SOL    HW119133  11.316   4.349   0.215 -0.0495  0.4366 -0.5039
69136SOL    HW219134  11.439   4.416   0.273 -0.5689  0.1435  0.9791
69137SOL     OW19135   7.443  12.361  12.326  0.2658 -0.3547 -0.1496
69137SOL    HW119136   7.367  12.414  12.305 -0.0834 -0.0794  1.6512
69137SOL    HW219137   7.411  12.271  12.326 -0.1460 -0.2194  0.8641
69138SOL     OW19138   7.354   0.773   8.450  0.1510 -0.7346  0.3155
69138SOL    HW119139   7.269   0.787   8.492 -0.4573  1.6210 -1.4845
69138SOL    HW219140   7.408   0.847   8.478  1.2690 -1.6228  0.5729
69139SOL     OW19141  12.660   4.709   9.328 -0.2723  0.0864 -0.3105
69139SOL    HW119142  12.688   4.763   9.402  1.4622 -0.7582 -0.3055
69139SOL    HW219143  12.575   4.675   9.354 -0.8829  1.8650  0.1680
69140SOL     OW19144   2.732   8.354  12.333 -0.5190 -0.5492  0.4884
69140SOL    HW119145   2.672   8.398  12.274  0.2907 -1.6919 -1.2667
69140SOL    HW219146   2.791   8.423  12.363 -0.0880 -0.1604 -1.1591
69141SOL     OW19147   0.854   8.856   3.932  0.3208 -0.3052  0.2438
69141SOL    HW119148   0.807   8.935   3.958  0.5025  0.3125 -1.2432
69141SOL    HW219149   0.929   8.853   3.992 -0.6251 -0.3407  1.4704
69142SOL     OW19150  12.203   1.371   5.197 -0.7141 -0.4339 -0.4666
69142SOL    HW119151  12.127   1.317   5.218 -0.7244 -0.5720 -0.8591
69142SOL    HW219152  12.198   1.444   5.259 -1.8296  0.2019 -1.2677
69143SOL     OW19153   6.858  10.821   0.781  1.1025  0.0545 -0.2728
69143SOL    HW119154   6.843  10.814   0.687 -1.7503  2.0072 -0.1043
69143SOL    HW219155   6.782  10.779   0.820  0.9450  1.4840  1.0586
69144SOL     OW19156   2.201   9.172   2.115  0.3518  0.1400  0.7202
69144SOL    HW119157   2.117   9.212   2.137  0.9549  0.9255  1.6716
69144SOL    HW219158   2.227   9.125   2.194  1.0472  0.3201  0.6042
69145SOL     OW19159   0.703   5.641   2.090  0.2777  0.5734 -0.7199
69145SOL    HW119160   0.796   5.633   2.113  0.5168  1.6675 -1.2378
69145SOL    HW219161   0.704   5.679   2.003 -0.6560  2.9306  0.2249
69146SOL     OW19162   0.326   2.324  13.267  0.5354  0.4982 -0.1410
69146SOL    HW119163   0.402   2.272  13.242  0.5402  0.5489 -0.2342
69146SOL    HW219164   0.258   2.300  13.203  1.2228  2.2685 -1.6237
69147SOL     OW19165   2.613   2.018   6.574 -0.1097 -0.4714 -0.1570
69147SOL    HW119166   2.622   2.069   6.654 -1.4401 -1.6121  0.7508
69147SOL    HW219167   2.555   2.070   6.519 -0.4722 -0.4298  0.2617
69148SOL     OW19168   6.542  10.827   4.673 -0.0720  0.0459 -0.2127
69148SOL    HW119169   6.621  10.817   4.726  0.8054  0.3214 -1.4292
69148SOL    HW219170   6.567  10.798   4.585 -0.9845  1.2025 -0.8951
69149SOL     OW19171   1.492  12.403   6.354  0.5566  0.3181  0.2250
69149SOL    HW119172   1.566  12.447   6.313  0.0743  1.3390  0.4106
69149SOL    HW219173   1.506  12.310   6.337  1.5285  0.5555 -0.3045
69150SOL     OW19174   2.847   2.346   0.158 -0.6146 -0.1663  0.1364
69150SOL    HW119175   2.924   2.403   0.168  0.5076 -1.5442 -0.2248
69150SOL    HW219176   2.816   2.364   0.069 -1.5302  1.3340  0.7319
69151SOL     OW19177   0.757   3.706   3.062 -0.2222 -0.0038 -0.2990
69151SOL    HW119178   0.718   3.650   2.995  0.3892 -1.2816  0.3749
69151SOL    HW219179   0.745   3.658   3.144 -3.0174  2.5203  0.9810
69152SOL     OW19180   0.028  12.469   3.086  0.4401 -0.0802 -0.1577
69152SOL    HW119181   0.058  12.559   3.102  1.0200 -0.0675 -1.2172
69152SOL    HW219182   0.071  12.417   3.154  1.6897  0.1717 -0.7226
69153SOL     OW19183   9.237   3.297  13.299 -0.4619  0.5036 -0.3838
69153SOL    HW119184   9.157   3.249  13.279  0.3907 -0.7396 -0.8899
69153SOL    HW219185   9.260   3.270  13.388  1.3206 -2.0141 -1.4884
69154SOL     OW19186  10.481  12.219   7.498  0.1436 -0.0338  0.0906
69154SOL    HW119187  10.435  12.166   7.433 -0.6009 -1.3098  1.5968
69154SOL    HW219188  10.473  12.170   7.580  0.5495  1.7785  1.2874
69155SOL     OW19189   5.717  11.873   4.425 -0.2594  0.5541 -0.3681
69155SOL    HW119190   5.785  11.820   4.467  2.5965  1.1664 -3.7540
69155SOL    HW219191   5.641  11.815   4.421  0.7848 -1.0665  1.3847
69156SOL     OW19192  10.469   0.740   9.430  0.1920 -0.1223 -0.1940
69156SOL    HW119193  10.515   0.750   9.347 -1.1910 -0.6487 -1.0547
69156SOL    HW219194  10.490   0.651   9.459 -0.3928 -0.4216 -0.6694
69157SOL     OW19195   2.566  11.814   2.566 -0.3715  0.3727 -0.5953
69157SOL    HW119196   2.612  11.732   2.548 -1.1867 -0.1240 -0.4550
69157SOL    HW219197   2.621  11.882   2.526  1.2623 -0.0316  0.8680
69158SOL     OW19198  12.147  11.147  12.060  1.1602 -0.6422 -0.2580
69158SOL    HW119199  12.203  11.179  12.131 -0.5480  1.1553  0.3761
69158SOL    HW219200  12.093  11.080  12.101 -1.7494  2.2524  1.0774
69159SOL     OW19201   5.559   0.806   6.733 -0.1545  0.1228  0.3321
69159SOL    HW119202   5.472   0.795   6.694  0.1862 -1.3173 -0.0712
69159SOL    HW219203   5.559   0.747   6.809  1.0136 -1.1544 -0.6188
69160SOL     OW19204   7.433   4.237  10.280 -0.3509  0.0558  0.4470
69160SOL    HW119205   7.384   4.155  10.276 -3.1304  1.6004  0.1936
69160SOL    HW219206   7.471   4.239  10.368 -0.6495 -1.2647  0.6143
69161SOL     OW19207   6.775  10.700   4.738 -0.4793 -0.3852 -0.0026
69161SOL    HW119208   6.809  10.612   4.754  0.9657  0.4171  1.6055
69161SOL    HW219209   6.826  10.732   4.664 -1.2610 -0.9884 -0.8348
69162SOL     OW19210   3.543   7.700  10.578  0.3868  0.2122 -0.0319
69162SOL    HW119211   3.506   7.785  10.602 -1.7482 -0.4932 -0.6214
69162SOL    HW219212   3.636   7.707  10.600  0.4917  3.0407 -0.9810
69163SOL     OW19213   4.568  13.086   6.877 -0.5337 -0.6195 -0.1262
69163SOL    HW119214   4.618  13.089   6.959  0.8941  0.5965 -0.9976
69163SOL    HW219215   4.634  13.088   6.808 -1.7523  0.0452 -1.3263
69164SOL     OW19216   6.785  12.504   0.328 -0.4835 -0.1054 -0.3021
69164SOL    HW119217   6.794  12.409   0.324 -0.7326 -0.1104 -0.7846
69164SOL    HW219218   6.693  12.519   0.351  0.0072 -0.0030  1.7974
69165SOL     OW19219   8.394   8.344  12.810  0.4132  0.0689  0.2448
69165SOL    HW119220   8.413   8.320  12.720 -1.2419  3.3756 -1.1546
69165SOL    HW219221   8.462   8.408  12.833  0.1628  0.1076  0.9193
69166SOL     OW19222   4.646  11.118  12.237  0.0696 -0.2634  0.5916
69166SOL    HW119223   4.638  11.058  12.311 -1.3800  0.6537  1.2196
69166SOL    HW219224   4.613  11.067  12.162  0.4036 -0.7857  0.7909
69167SOL     OW19225   7.490  10.647   9.605 -0.7166 -0.2778 -0.3968
69167SOL    HW119226   7.557  10.579   9.615 -0.4279  0.0195 -0.2665
69167SOL    HW219227   7.463  10.667   9.694  0.6506  1.1931 -0.2696
69168SOL     OW19228   6.173   9.733   4.125 -0.0322  0.4825 -0.6760
69168SOL    HW119229   6.182   9.638   4.124  0.7975  0.5505 -0.5205
69168SOL    HW219230   6.245   9.765   4.070  2.0658  1.1638  2.2417
69169SOL     OW19231   1.740   2.079   2.935  0.3498  0.1921 -0.6007
69169SOL    HW119232   1.806   2.109   2.998  1.6307 -1.4625 -1.0816
69169SOL    HW219233   1.788   2.069   2.853 -0.4344 -1.2349 -0.9118
69170SOL     OW19234   0.928   0.859   0.641  0.1876  0.1140 -0.1986
69170SOL    HW119235   0.980   0.838   0.564  0.6529  1.0242 -0.1547
69170SOL    HW219236   0.837   0.856   0.611 -0.0037 -3.9285  0.2968
69171SOL     OW19237  12.635   6.349   1.535  0.4006  0.0636  0.1132
69171SOL    HW119238  12.602   6.296   1.462  1.0671 -0.1512 -0.0404
69171SOL    HW219239  12.647   6.436   1.498  0.2286  0.0855  0.1086
69172SOL     OW19240  11.575   5.940   0.232  0.1099 -0.1239  0.1546
69172SOL    HW119241  11.510   5.878   0.266  1.0555  0.3312  3.1092
69172SOL    HW219242  11.649   5.885   0.205 -0.1143 -0.4518  0.2052
69173SOL     OW19243   5.685   1.308   7.331 -0.3370 -0.9424 -0.3817
69173SOL    HW119244   5.752   1.242   7.352 -1.1303 -1.4885  0.5012
69173SOL    HW219245   5.652   1.337   7.416 -1.1723 -0.6168 -0.8059
69174SOL     OW19246   4.649   7.897   5.543  0.1970  0.0855 -0.1784
69174SOL    HW119247   4.624   7.809   5.570 -1.6219  0.4730 -0.5020
69174SOL    HW219248   4.616   7.906   5.454  1.3428  0.7300 -0.5654
69175SOL     OW19249  12.837  12.525   3.266 -0.1244  0.0181  0.1586
69175SOL    HW119250  12.918  12.573   3.248 -0.2519  0.0966 -0.2195
69175SOL    HW219251  12.847  12.442   3.218 -0.3319  0.0924 -0.0146
69176SOL     OW19252  13.226   1.187   7.577 -0.0993  0.3459 -0.5317
69176SOL    HW119253  13.295   1.122   7.560  0.5278  0.3955  1.5008
69176SOL    HW219254  13.273   1.268   7.594 -0.4555  0.0216  2.5256
69177SOL     OW19255  13.047  10.335   6.349 -0.0348  0.8818 -0.1498
69177SOL    HW119256  12.993  10.372   6.279  0.1491  1.0639 -0.1932
69177SOL    HW219257  13.137  10.350   6.321  0.0994 -1.2606 -1.0961
69178SOL     OW19258   6.111   0.702  10.962  0.2171  0.1796 -0.2732
69178SOL    HW119259   6.185   0.738  10.913  0.7004  1.6521  1.4333
69178SOL    HW219260   6.114   0.747  11.047 -1.6382 -0.9628  0.4605
69179SOL     OW19261   5.284   4.231  13.360 -0.1307  0.0903  0.5202
69179SOL    HW119262   5.216   4.232  13.427 -0.5396  0.6615  0.1191
69179SOL    HW219263   5.359   4.189  13.401 -0.4059  0.3496  1.3006
69180SOL     OW19264  11.576   5.568   9.710 -0.1109 -0.5208  0.3939
69180SOL    HW119265  11.524   5.625   9.766  1.0512  0.9244  0.0648
69180SOL    HW219266  11.648   5.623   9.680  1.0343 -2.1538  0.0006
69181SOL     OW19267  13.701   5.317   3.118  0.0247 -0.1841  0.0171
69181SOL    HW119268  13.606   5.310   3.118  0.0593 -0.7216 -0.1144
69181SOL    HW219269  13.728   5.273   3.199  0.1767 -0.3690 -0.1314
69182SOL     OW19270   4.783   6.325  11.673 -0.4060 -0.3637 -0.1604
69182SOL    HW119271   4.711   6.268  11.698  0.0211 -0.2361  1.4966
69182SOL    HW219272   4.849   6.265  11.637 -1.1970 -0.5134 -1.3895
69183SOL     OW19273   9.959   4.009   1.602 -0.3871 -0.5863 -0.1966
69183SOL    HW119274  10.010   3.970   1.672 -0.8057 -0.7559  0.0198
69183SOL    HW219275   9.990   3.966   1.522  0.9670  0.4918 -0.2876
69184SOL     OW19276   8.987   9.924   6.885  0.2990  0.3331  0.3597
69184SOL    HW119277   8.961   9.944   6.795  2.5595  1.8229 -0.0368
69184SOL    HW219278   9.051   9.854   6.877 -1.3704 -1.3741  1.0973
69185SOL     OW19279   9.911   7.297  11.178  0.2335 -0.1766  0.0928
69185SOL    HW119280   9.867   7.291  11.093  0.9233 -2.9164 -0.1612
69185SOL    HW219281  10.004   7.285  11.158  0.3092 -1.9961  1.2446
69186SOL     OW19282   3.442   2.384  10.977 -0.3828 -0.7315 -0.0746
69186SOL    HW119283   3.443   2.454  11.042 -0.1802 -1.2215  0.4617
69186SOL    HW219284   3.524   2.336  10.992  0.5488  0.1976 -1.8683
69187SOL     OW19285  13.197   7.284   0.355 -0.0635  0.5043  0.0767
69187SOL    HW119286  13.275   7.231   0.340  0.1725  0.5263  1.1436
69187SOL    HW219287  13.153   7.286   0.270  0.0022 -1.2500 -0.0431
69188SOL     OW19288   8.164   0.042  13.344 -0.6770  0.8919 -0.0787
69188SOL    HW119289   8.257   0.019  13.336 -0.8521 -0.1175  0.6466
69188SOL    HW219290   8.127   0.023  13.259 -0.1938  1.4863 -0.4380
69189SOL     OW19291  11.137   1.225   5.301  0.7003 -0.0862  0.0456
69189SOL    HW119292  11.213   1.282   5.313  1.7797 -1.7652  1.9475
69189SOL    HW219293  11.174   1.136   5.300 -1.2695 -1.0728  2.4507
69190SOL     OW19294  10.690   3.460  12.884 -0.0688 -0.2015 -0.1205
69190SOL    HW119295  10.657   3.510  12.959 -0.7939 -1.7346  0.6388
69190SOL    HW219296  10.621   3.397  12.865 -0.4602  0.9583 -2.9492
69191SOL     OW19297   9.883   2.580  11.466  0.5295  0.2723  0.3922
69191SOL    HW119298   9.946   2.652  11.470  0.3637  0.3744  2.9223
69191SOL    HW219299   9.923   2.511  11.519 -0.0109 -0.9190 -0.7242
69192SOL     OW19300  10.608  10.789   0.005  0.0513 -0.3264  0.0552
69192SOL    HW119301  10.568  10.866  -0.036 -1.0129 -1.0964 -0.4140
69192SOL    HW219302  10.598  10.803   0.099 -2.0368 -0.8089 -0.0465
69193SOL     OW19303  12.873   4.377   9.513 -0.0570 -0.3184 -0.0143
69193SOL    HW119304  12.938   4.345   9.450  0.3170  0.2259  0.0886
69193SOL    HW219305  12.897   4.335   9.596 -0.5571 -1.0456 -0.2233
69194SOL     OW19306   4.601   6.521   9.557  0.6536  0.2141 -0.4230
69194SOL    HW119307   4.672   6.480   9.605  0.1173  0.9625  1.0855
69194SOL    HW219308   4.644   6.580   9.495  1.3486  0.0769 -0.0787
69195SOL     OW19309   4.641  11.561   9.109 -0.0394  0.3322 -0.1673
69195SOL    HW119310   4.552  11.558   9.075 -0.9965  1.5302  2.0091
69195SOL    HW219311   4.658  11.472   9.140  0.0129 -0.1957 -1.6341
69196SOL     OW19312  12.712   7.681   7.148  0.3636  0.2289 -0.4117
69196SOL    HW119313  12.804   7.707   7.140  0.5919 -0.9977 -2.1825
69196SOL    HW219314  12.677   7.685   7.059 -0.9786 -0.4468  0.0535
69197SOL     OW19315  13.663   8.249   3.648  0.4215 -0.2589  0.4210
69197SOL    HW119316  13.624   8.323   3.602 -2.4697 -2.2209 -0.5919
69197SOL    HW219317  13.690   8.285   3.733  0.2784  2.1538 -0.4804
69198SOL     OW19318  12.944  11.026  11.544 -0.1858  0.0751  0.0943
69198SOL    HW119319  12.881  11.061  11.480 -0.1287 -0.5002 -0.2808
69198SOL    HW219320  12.900  10.950  11.581  0.4612 -0.5917 -0.4869
69199SOL     OW19321  10.728  11.411   8.832  0.2770 -0.3720 -0.8719
69199SOL    HW119322  10.664  11.349   8.867  0.4581 -0.0899 -0.0350
69199SOL    HW219323  10.772  11.447   8.909 -0.8240  1.8906 -1.2034
69200SOL     OW19324  11.111  10.168  10.202 -0.2905  0.1550  0.3233
69200SOL    HW119325  11.077  10.131  10.121 -0.2554  1.1380 -0.1519
69200SOL    HW219326  11.035  10.174  10.260 -0.2433 -0.9103  0.5194
69201SOL     OW19327   8.235   5.896  10.720  0.5839  0.7821 -0.0999
69201SOL    HW119328   8.288   5.972  10.745  1.5199  1.6153 -4.0123
69201SOL    HW219329   8.163   5.932  10.669 -0.0542 -0.8494 -0.4086
69202SOL     OW19330   9.411   6.311   1.627 -0.1202  0.1763  0.3590
69202SOL    HW119331   9.355   6.274   1.558 -2.3734  1.3827  1.4546
69202SOL    HW219332   9.450   6.234   1.668 -1.3636 -0.7744 -0.1433
69203SOL     OW19333  13.041  11.775   0.093 -0.8200 -0.2180  0.0759
69203SOL    HW119334  13.069  11.691   0.129  0.7227  0.1619 -0.1862
69203SOL    HW219335  13.068  11.772   0.001  1.7186  1.5777  0.6718
69204SOL     OW19336   2.859   6.468   5.868  0.7607 -0.7001  0.0486
69204SOL    HW119337   2.784   6.442   5.921  0.6969 -0.9833 -0.1763
69204SOL    HW219338   2.900   6.385   5.843  1.5072 -0.5265  0.6797
69205SOL     OW19339   1.273   2.201   6.922 -0.5379 -0.3178  0.3447
69205SOL    HW119340   1.329   2.132   6.956 -1.0010 -0.3707  1.0159
69205SOL    HW219341   1.187   2.183   6.959 -0.5640  0.8970  0.9285
69206SOL     OW19342  12.568  11.622   0.921 -0.3398  0.0973 -0.8587
69206SOL    HW119343  12.489  11.664   0.956 -0.0246 -0.6655  0.8704
69206SOL    HW219344  12.540  11.533   0.899  0.4223 -0.9261  1.8386
69207SOL     OW19345   6.578   4.283   7.796 -0.0218 -0.1509  0.5120
69207SOL    HW119346   6.526   4.217   7.841 -0.5758  0.0176  0.1300
69207SOL    HW219347   6.663   4.242   7.783 -0.3883 -0.8202  0.1969
69208SOL     OW19348   9.243  12.460   9.595 -0.3956 -0.1760 -0.1024
69208SOL    HW119349   9.166  12.517   9.600  0.1890  0.5172  1.4982
69208SOL    HW219350   9.236  12.404   9.672  0.5378 -0.3422 -0.1308
69209SOL     OW19351   8.846   2.346  10.983 -0.5162 -0.4373 -0.1080
69209SOL    HW119352   8.907   2.380  11.047 -0.8070 -1.8382  0.9725
69209SOL    HW219353   8.817   2.422  10.933 -0.6272  0.7759  1.7238
69210SOL     OW19354   9.658   1.634  10.429  0.1362  0.0413  0.3989
69210SOL    HW119355   9.585   1.628  10.491  0.1489 -0.5035  0.3661
69210SOL    HW219356   9.736   1.642  10.484  0.0650  0.4928  0.4358
69211SOL     OW19357  13.691  10.174   2.775 -0.7169 -0.5576  0.6625
69211SOL    HW119358  13.617  10.145   2.722 -2.1780  1.1497  1.6349
69211SOL    HW219359  13.657  10.176   2.864 -0.1127  1.9485  0.9228
69212SOL     OW19360   9.092   1.625   7.507 -0.3298  0.0614  0.0613
69212SOL    HW119361   9.104   1.719   7.490  0.5056 -0.2651 -1.2542
69212SOL    HW219362   9.115   1.615   7.600 -2.5142  1.4853  0.8488
69213SOL     OW19363   2.751   7.169  12.190  0.0661  0.2756 -0.5881
69213SOL    HW119364   2.662   7.134  12.198  0.4030 -0.5269 -0.2367
69213SOL    HW219365   2.783   7.135  12.107 -1.2896  3.7280 -2.7662
69214SOL     OW19366   2.710   2.301   2.332 -0.0178  0.3130  0.1699
69214SOL    HW119367   2.760   2.263   2.404  0.4087  0.3359 -0.1076
69214SOL    HW219368   2.773   2.359   2.288 -0.1988  0.1038 -0.3694
69215SOL     OW19369  11.337   0.639  12.244 -0.1130  0.0670 -0.1180
69215SOL    HW119370  11.255   0.687  12.253  1.0250  2.4785 -1.6468
69215SOL    HW219371  11.328   0.590  12.163 -0.0932  0.2521 -0.2327
69216SOL     OW19372   9.603  12.181  13.651  0.3548  0.1489 -0.2862
69216SOL    HW119373   9.695  12.176  13.625  0.4829  1.3848 -0.1123
69216SOL    HW219374   9.604  12.221  13.738 -0.3110 -0.4483  0.0073
69217SOL     OW19375   6.347   2.410   6.468 -0.4557  0.4269  0.8224
69217SOL    HW119376   6.260   2.379   6.492 -1.3212  1.1305 -1.1104
69217SOL    HW219377   6.404   2.334   6.480 -1.5051 -0.3163  1.2753
69218SOL     OW19378  12.812   5.585   5.906  0.5384  0.1458 -0.3051
69218SOL    HW119379  12.769   5.595   5.821 -1.2974  0.6012  0.6159
69218SOL    HW219380  12.745   5.545   5.962  0.9489  1.7745  1.4609
69219SOL     OW19381   4.028   8.220   0.775  0.6035 -0.5100  0.2116
69219SOL    HW119382   3.968   8.177   0.715 -2.3026  2.0476  1.0304
69219SOL    HW219383   4.081   8.277   0.719 -1.2860  0.9846 -0.1541
69220SOL     OW19384   2.655   0.752   0.719  0.3820  0.1388  0.1442
69220SOL    HW119385   2.709   0.787   0.790  0.5068  0.4694 -0.1086
69220SOL    HW219386   2.637   0.828   0.664 -0.3914  0.0400  0.2590
69221SOL     OW19387   7.763   0.693   5.717  0.3259 -0.7517  0.0439
69221SOL    HW119388   7.778   0.776   5.671 -0.7257 -0.4400  0.2345
69221SOL    HW219389   7.820   0.698   5.794 -1.5411  0.9557  1.4244
69222SOL     OW19390   2.705   0.149  13.662  0.3100  0.4947 -0.2006
69222SOL    HW119391   2.661   0.081  13.712 -1.0642  1.6424  0.2198
69222SOL    HW219392   2.675   0.231  13.701  0.4380  1.3870 -1.8853
69223SOL     OW19393   3.582   1.994   1.396 -0.1852 -0.5687 -0.2843
69223SOL    HW119394   3.580   1.904   1.363  0.8017 -0.5855 -0.3191
69223SOL    HW219395   3.578   1.985   1.491  0.6850 -0.6938 -0.2524
69224SOL     OW19396  13.089   7.961   8.285  0.0564 -0.4219  0.0066
69224SOL    HW119397  13.119   7.959   8.194 -1.3288 -2.2273 -0.4954
69224SOL    HW219398  13.096   7.870   8.314 -2.3384 -0.4669  0.6697
69225SOL     OW19399   8.111  10.139   9.796  0.4726 -0.4540 -0.2564
69225SOL    HW119400   8.085  10.138   9.888 -0.6699 -3.9939 -0.4890
69225SOL    HW219401   8.054  10.206   9.756  0.4663  0.6007  1.4210
69226SOL     OW19402   9.451   9.110  13.227  0.2985  0.0290 -0.3245
69226SOL    HW119403   9.515   9.169  13.267  2.2820 -1.0896 -1.6875
69226SOL    HW219404   9.504   9.039  13.190 -1.7398 -0.8801 -1.6439
69227SOL     OW19405  12.928   3.797   8.103 -0.5498 -0.0896  0.0178
69227SOL    HW119406  12.974   3.861   8.157 -0.8538 -1.1659  1.6404
69227SOL    HW219407  12.957   3.712   8.137  1.0523 -0.9294 -3.0750
69228SOL     OW19408   8.537   2.859   7.879  0.0955 -0.0033 -0.3153
69228SOL    HW119409   8.525   2.834   7.971 -1.2437 -0.2903 -0.5507
69228SOL    HW219410   8.591   2.939   7.883 -1.6875  1.2094  0.8637
69229SOL     OW19411  13.285   5.400  12.590  0.3152 -0.4402 -0.5826
69229SOL    HW119412  13.262   5.464  12.657 -1.3605 -1.7984  0.2281
69229SOL    HW219413  13.267   5.444  12.507 -0.9021  0.1068 -0.0434
69230SOL     OW19414   1.081   7.131   2.670  0.2232 -0.7040  0.0019
69230SOL    HW119415   1.167   7.112   2.708  0.2869  1.4812  1.0934
69230SOL    HW219416   1.101   7.165   2.582  0.4119 -1.0995 -0.1089
69231SOL     OW19417  11.398   4.652   6.385  0.5117 -0.0677 -0.5177
69231SOL    HW119418  11.477   4.705   6.377 -0.8806  2.1599 -0.7162
69231SOL    HW219419  11.397   4.597   6.306  1.5437  0.3071 -0.8075
69232SOL     OW19420   1.787   3.615  11.595 -0.2824  0.0970  0.1005
69232SOL    HW119421   1.708   3.665  11.614 -0.0475  0.8711 -0.8814
69232SOL    HW219422   1.830   3.605  11.681 -0.6375  1.0565  0.4044
69233SOL     OW19423   2.526   3.306   1.509  0.1373  0.1173 -0.0632
69233SOL    HW119424   2.463   3.239   1.485 -1.3256  1.2296  0.5206
69233SOL    HW219425   2.473   3.380   1.538  1.7071  1.2796 -0.0072
69234SOL     OW19426   2.870   3.816  12.373  0.3986  0.3578 -0.3104
69234SOL    HW119427   2.813   3.887  12.343 -0.8426 -0.1001  0.8488
69234SOL    HW219428   2.856   3.745  12.311 -1.5087 -0.2856  0.7765
69235SOL     OW19429   7.673   0.476  13.666 -0.1189  0.2234  0.0589
69235SOL    HW119430   7.658   0.382  13.652  0.1608 -0.0454  1.3913
69235SOL    HW219431   7.647   0.490  13.757 -0.3940  1.5005 -0.2036
69236SOL     OW19432   5.055   0.394  11.950 -0.1364  0.7331  0.0328
69236SOL    HW119433   5.005   0.398  12.032  0.8869  2.0143  0.6429
69236SOL    HW219434   5.065   0.485  11.925  0.7408  0.4149 -0.7967
69237SOL     OW19435   3.822  11.712   8.630 -0.3656  0.3110  0.4732
69237SOL    HW119436   3.779  11.717   8.716  1.9682  2.4701  1.6375
69237SOL    HW219437   3.795  11.792   8.585 -1.1127 -0.5313 -0.6070
69238SOL     OW19438  11.938   6.754  12.216 -0.0858 -0.4960  0.3209
69238SOL    HW119439  11.916   6.687  12.150 -2.1999  0.0541  0.3870
69238SOL    HW219440  11.995   6.708  12.278 -1.7155 -2.3923  0.5351
69239SOL     OW19441   7.074   0.004  13.244  0.1662  0.2610 -0.0128
69239SOL    HW119442   7.158   0.048  13.255  1.3563 -1.8038 -0.3113
69239SOL    HW219443   7.014   0.073  13.216  1.4802  1.9995  1.2734
69240SOL     OW19444   2.701  11.229   2.077 -0.3661 -0.2312 -0.6538
69240SOL    HW119445   2.626  11.270   2.119 -0.1993 -0.4306 -0.1558
69240SOL    HW219446   2.684  11.135   2.084 -0.2030 -0.2715 -0.7838
69241SOL     OW19447   8.575   8.032  13.517 -0.0826 -0.5605  0.4387
69241SOL    HW119448   8.555   8.018  13.609  0.3592  1.8162  0.9724
69241SOL    HW219449   8.664   8.067  13.517 -0.5012  0.5938 -0.7540
69242SOL     OW19450  10.918   1.337   8.261  0.0870 -0.0367 -0.1495
69242SOL    HW119451  10.890   1.423   8.229 -1.5671 -0.0898  0.9972
69242SOL    HW219452  10.977   1.304   8.194 -0.1879  1.4838 -1.1891
69243SOL     OW19453   9.949   0.045   2.062 -0.0749  0.5005 -0.4287
69243SOL    HW119454  10.023   0.067   2.004  0.2014 -1.2492 -0.8122
69243SOL    HW219455   9.937  -0.049   2.049 -1.9614  0.6365  0.1397
69244SOL     OW19456   8.170   4.725   6.470  0.1494  0.0538  0.0678
69244SOL    HW119457   8.168   4.674   6.551  0.6774  1.2034  0.8392
69244SOL    HW219458   8.095   4.694   6.420 -1.1768  0.4322  1.7236
69245SOL     OW19459   8.480   8.774  13.620 -0.0386 -0.0337 -0.3159
69245SOL    HW119460   8.477   8.832  13.543 -2.1639 -0.1187 -0.3576
69245SOL    HW219461   8.518   8.693  13.587  1.8265  0.8763 -0.5471
69246SOL     OW19462   2.354  13.154  13.339 -0.1637  0.2276 -0.6565
69246SOL    HW119463   2.319  13.243  13.330 -3.6309 -0.9852 -0.5910
69246SOL    HW219464   2.277  13.097  13.337  1.9647 -2.9129 -1.7284
69247SOL     OW19465   1.121   7.280   9.642  0.1707  0.4524 -0.1059
69247SOL    HW119466   1.095   7.340   9.572  1.9349  1.3141 -0.0805
69247SOL    HW219467   1.166   7.208   9.596 -0.7859 -0.2147 -0.0274
69248SOL     OW19468   1.019   0.912  11.898 -0.3605 -0.0033 -0.3229
69248SOL    HW119469   1.026   0.979  11.966 -1.3375 -0.7092  0.5146
69248SOL    HW219470   1.010   0.961  11.816 -1.7217  0.9031  0.3428
69249SOL     OW19471   4.840   2.230  12.683 -0.1991 -0.2378  0.0986
69249SOL    HW119472   4.761   2.178  12.695  0.3149 -0.3745  3.8819
69249SOL    HW219473   4.809   2.313  12.647 -1.7843 -0.9730 -0.3094
69250SOL     OW19474   9.898   9.829   3.491 -0.1596  0.3868  0.4056
69250SOL    HW119475   9.974   9.884   3.468  0.4029  0.0676  1.4336
69250SOL    HW219476   9.824   9.889   3.487  0.4350  1.2269  1.4416
69251SOL     OW19477   8.449   4.360   0.350  0.3259  0.1107  0.8294
69251SOL    HW119478   8.374   4.315   0.309 -1.8706  1.7884  2.7520
69251SOL    HW219479   8.466   4.310   0.429  0.7214  0.2147  0.8110
69252SOL     OW19480   7.250  10.032   9.258  0.3584  0.1154  0.8906
69252SOL    HW119481   7.334  10.071   9.280  1.8163 -2.5485  0.4525
69252SOL    HW219482   7.239  10.050   9.164  1.8492 -1.7917  0.2808
69253SOL     OW19483   2.738  12.100   3.089 -0.1626  0.2233  0.1826
69253SOL    HW119484   2.780  12.161   3.150 -1.6147  0.1005  1.3345
69253SOL    HW219485   2.772  12.126   3.003  0.6894  1.4265  0.8548
69254SOL     OW19486   4.705   9.840   6.988 -0.7034  0.0356  0.0274
69254SOL    HW119487   4.769   9.848   6.918  1.0987 -2.0606  1.3080
69254SOL    HW219488   4.622   9.823   6.943 -0.4150  2.5504 -1.6638
69255SOL     OW19489   1.669   6.810  11.863 -0.8783  0.1952 -0.3156
69255SOL    HW119490   1.609   6.802  11.938 -1.3902  0.0687 -0.7335
69255SOL    HW219491   1.755   6.786  11.899 -1.1413 -0.0088  0.1965
69256SOL     OW19492   2.714   5.469  11.408 -0.3901  0.4760  0.1556
69256SOL    HW119493   2.795   5.481  11.457  0.8456  0.3039 -1.7536
69256SOL    HW219494   2.701   5.552  11.361 -2.1510  1.0515  1.5088
69257SOL     OW19495   7.661   3.357   1.287  0.0229  0.1533  0.0936
69257SOL    HW119496   7.685   3.351   1.380  1.0283 -0.7995 -0.2111
69257SOL    HW219497   7.723   3.300   1.242 -0.3963  0.6670 -1.1883
69258SOL     OW19498   6.971   0.346   9.336 -0.4622  0.5275  0.3249
69258SOL    HW119499   6.949   0.417   9.275  1.0614  1.0877  0.3743
69258SOL    HW219500   7.035   0.293   9.288 -2.1614 -1.3191 -0.0090
69259SOL     OW19501   8.648   8.244   0.380 -0.4877  0.1580  0.3175
69259SOL    HW119502   8.703   8.319   0.357  0.4345 -0.9136 -1.1304
69259SOL    HW219503   8.571   8.283   0.423  1.5498  1.6923  2.9079
69260SOL     OW19504   9.367   7.049  13.690 -0.5815 -0.1722 -0.3122
69260SOL    HW119505   9.325   7.018  13.770  1.6691 -1.6934  0.3895
69260SOL    HW219506   9.447   7.092  13.720 -0.3867  0.4930 -1.6860
69261SOL     OW19507   2.910  13.366   6.014 -0.1464 -0.0118  0.3441
69261SOL    HW119508   2.952  13.381   5.929  0.2235 -0.8791  0.3626
69261SOL    HW219509   2.864  13.283   6.004 -1.3217  0.5917  0.5410
69262SOL     OW19510   2.994  13.406   3.477  0.0530 -0.2767 -0.0804
69262SOL    HW119511   3.045  13.393   3.396  0.7002 -1.2032  0.4605
69262SOL    HW219512   3.057  13.444   3.539 -0.5618  0.8755 -0.1257
69263SOL     OW19513   2.420   7.124   7.713  0.1306 -0.2305 -0.2996
69263SOL    HW119514   2.473   7.198   7.744  1.0184 -0.5630 -1.0006
69263SOL    HW219515   2.389   7.152   7.627  0.7006 -0.7927 -0.6855
69264SOL     OW19516   6.216   6.844   7.383  0.1010 -0.0432  0.1545
69264SOL    HW119517   6.129   6.842   7.343  0.7623 -0.7444 -1.3217
69264SOL    HW219518   6.200   6.824   7.475 -1.2658 -0.5201 -0.1563
69265SOL     OW19519   4.410  11.516   8.988  0.1894 -0.3257  0.2298
69265SOL    HW119520   4.397  11.596   8.937  1.2463 -1.1277 -1.3767
69265SOL    HW219521   4.322  11.479   8.998 -0.3291  1.0304  1.0700
69266SOL     OW19522   5.284   2.806   2.935  0.0304  0.4667  0.3111
69266SOL    HW119523   5.307   2.794   3.028  2.2419  1.1171 -0.1043
69266SOL    HW219524   5.301   2.898   2.918 -0.0432  0.2775 -0.8367
69267SOL     OW19525   9.284   3.892   2.091  0.1776 -0.0294  0.2003
69267SOL    HW119526   9.298   3.804   2.124  0.1757  0.1355  0.6543
69267SOL    HW219527   9.355   3.906   2.027 -0.4149 -0.7171 -0.6188
69268SOL     OW19528  13.056  13.055   3.587 -0.1569  0.0965  0.8486
69268SOL    HW119529  13.092  13.017   3.667  1.9663 -1.3430 -0.6680
69268SOL    HW219530  13.118  13.123   3.563  0.0127 -0.4253 -0.2675
69269SOL     OW19531   2.242  12.927   4.218 -0.7241  0.2365 -0.1539
69269SOL    HW119532   2.301  12.949   4.146  1.0464  0.5035  1.3018
69269SOL    HW219533   2.299  12.918   4.294 -2.5080 -0.1368  1.2178
69270SOL     OW19534   9.815  12.360   6.645 -0.3285  0.4154 -0.0117
69270SOL    HW119535   9.887  12.408   6.604  2.7624 -2.2575  1.7859
69270SOL    HW219536   9.843  12.345   6.735 -2.1615 -2.5267  0.2271
69271SOL     OW19537   4.445   3.816  11.107 -0.2147  0.5379 -0.7021
69271SOL    HW119538   4.402   3.740  11.067 -0.6905  0.0380  0.7143
69271SOL    HW219539   4.534   3.814  11.072  0.0474 -1.1941 -0.0260
69272SOL     OW19540  11.519   2.086   5.011 -0.1939  0.2399  0.5602
69272SOL    HW119541  11.578   2.076   5.086  0.3503  0.8534  0.2301
69272SOL    HW219542  11.578   2.095   4.935 -0.7396 -1.3360 -0.0834
69273SOL     OW19543   4.636   1.103   5.756  0.2662  0.3099  0.2993
69273SOL    HW119544   4.622   1.016   5.793  1.0725  0.4113  0.8782
69273SOL    HW219545   4.655   1.087   5.664 -3.1888  0.1499 -0.5055
69274SOL     OW19546  13.613   2.359   4.125  0.7714 -0.3780  0.3696
69274SOL    HW119547  13.579   2.382   4.039 -0.9886  1.4347  1.4500
69274SOL    HW219548  13.702   2.396   4.127  1.1092 -1.0569 -0.8537
69275SOL     OW19549   2.305   8.198   4.399 -0.2471  0.6257  0.2278
69275SOL    HW119550   2.357   8.155   4.466  0.4293  0.2254 -0.5472
69275SOL    HW219551   2.219   8.210   4.440 -0.3966 -1.2808  0.5324
69276SOL     OW19552   2.397   8.421   9.955  0.1247 -0.3771 -0.1506
69276SOL    HW119553   2.359   8.334   9.944 -2.8945  0.8875 -0.7014
69276SOL    HW219554   2.349   8.459  10.029  0.7489  1.1496 -0.4922
69277SOL     OW19555  10.763  12.283   4.584 -0.2199 -0.4883 -0.0716
69277SOL    HW119556  10.774  12.222   4.657 -1.3315 -1.2937 -0.5463
69277SOL    HW219557  10.837  12.266   4.527 -0.8705 -1.9116 -0.5321
69278SOL     OW19558   2.036   8.104   9.054 -0.5758  0.3652 -0.0158
69278SOL    HW119559   2.060   8.013   9.038 -0.9894  0.4576 -1.2925
69278SOL    HW219560   1.943   8.101   9.077 -0.3403  0.3820  0.9953
69279SOL     OW19561   9.641   1.318  13.060  0.1151  0.2582 -0.1476
69279SOL    HW119562   9.617   1.406  13.088 -0.6654 -0.2518  0.8491
69279SOL    HW219563   9.577   1.297  12.991 -0.3509  0.0942  0.3252
69280SOL     OW19564   4.166   4.257  10.694 -0.3460  0.6168 -0.1103
69280SOL    HW119565   4.178   4.330  10.756  2.2806  0.6153 -0.4864
69280SOL    HW219566   4.174   4.298  10.608 -0.3419  0.0997 -0.3564
69281SOL     OW19567   6.922   1.313   7.459  0.1448 -0.2516  0.2561
69281SOL    HW119568   6.965   1.394   7.486  0.2387 -0.1310 -0.2491
69281SOL    HW219569   6.828   1.333   7.462  0.1711 -0.0911  0.0344
69282SOL     OW19570   8.106  11.170   5.861 -0.3658 -0.0041 -0.6904
69282SOL    HW119571   8.119  11.083   5.821  2.7634 -0.0712  0.2435
69282SOL    HW219572   8.074  11.151   5.949 -0.6023 -0.1537 -0.8067
69283SOL     OW19573  10.645   8.852  13.490 -0.3993  0.1049  0.1443
69283SOL    HW119574  10.715   8.790  13.472 -0.0092  0.1870  1.3285
69283SOL    HW219575  10.593   8.853  13.410 -0.2259 -1.4969 -0.0116
69284SOL     OW19576   0.286  10.549   3.841  0.1326 -0.0369 -0.1858
69284SOL    HW119577   0.323  10.565   3.754  0.2524  1.7570  0.1606
69284SOL    HW219578   0.194  10.576   3.833 -0.1112 -0.7698  0.0144
69285SOL     OW19579   5.903  13.485   6.878  0.1949  0.1351  0.0862
69285SOL    HW119580   5.935  13.401   6.911  0.4357 -1.0844 -2.9073
69285SOL    HW219581   5.972  13.516   6.820 -0.5037  1.7299  0.0581
69286SOL     OW19582   0.183   1.427   5.288  0.1805 -0.7400 -0.3310
69286SOL    HW119583   0.228   1.374   5.223 -1.9358 -0.5789 -2.0252
69286SOL    HW219584   0.091   1.403   5.280 -0.3888  0.6770  1.2882
69287SOL     OW19585  13.448   6.251   4.148 -0.4929  0.4753  0.5094
69287SOL    HW119586  13.524   6.307   4.133 -0.8313  0.6282 -0.6850
69287SOL    HW219587  13.377   6.292   4.099 -0.5883 -1.3300 -0.9644
69288SOL     OW19588  10.492   2.516   8.969 -0.0950  0.0754  0.0292
69288SOL    HW119589  10.528   2.511   8.881 -0.0635 -1.8359  0.1115
69288SOL    HW219590  10.569   2.525   9.026 -0.0498  0.3546 -0.0762
69289SOL     OW19591   4.307   9.896  10.064  0.0749  0.0062 -0.1109
69289SOL    HW119592   4.345   9.838   9.998  0.2266  0.7022 -0.6403
69289SOL    HW219593   4.265   9.966  10.014  1.7089  1.5191  0.5160
69290SOL     OW19594   0.707   7.372   7.107 -0.3052 -0.7775  0.2896
69290SOL    HW119595   0.734   7.312   7.037  2.7831  0.3214  0.3579
69290SOL    HW219596   0.702   7.317   7.185  0.8037 -1.2752  0.0341
69291SOL     OW19597   8.958  12.448   2.738 -0.0206 -0.2757  0.5956
69291SOL    HW119598   8.875  12.489   2.764 -0.2648  1.5411 -2.5128
69291SOL    HW219599   9.021  12.520   2.739  1.0388 -1.1883  0.8957
69292SOL     OW19600   6.847  11.032   9.774  0.0797 -0.3138  0.0328
69292SOL    HW119601   6.777  10.977   9.738  0.5202 -0.5864 -0.4172
69292SOL    HW219602   6.870  10.990   9.857 -0.5037 -0.0441  0.3359
69293SOL     OW19603   5.939   0.063   1.790  0.5362  0.0323 -0.1913
69293SOL    HW119604   5.928  -0.032   1.792 -0.5523  0.1575  0.5758
69293SOL    HW219605   6.003   0.081   1.859 -0.3007 -0.0448  0.6333
69294SOL     OW19606  13.012  10.206   7.390  0.4267 -0.0440  0.3463
69294SOL    HW119607  12.926  10.174   7.360  0.5275 -0.7969  0.8380
69294SOL    HW219608  13.017  10.295   7.355 -0.5502  0.0083  0.2888
69295SOL     OW19609   6.020   3.372  10.233 -0.2432 -0.1133  0.3882
69295SOL    HW119610   6.063   3.340  10.153 -0.1237  3.6184 -1.2347
69295SOL    HW219611   6.093   3.390  10.293  0.2799  2.2000 -0.8049
69296SOL     OW19612   8.030   5.383  11.974  0.1021  0.4031  0.9268
69296SOL    HW119613   8.078   5.368  12.055 -3.0960 -2.9294  2.4847
69296SOL    HW219614   7.939   5.394  12.001 -1.1970 -1.3649 -2.1440
69297SOL     OW19615   9.793   7.136   2.233  0.1646  0.1918 -0.3857
69297SOL    HW119616   9.819   7.055   2.189  0.5256  0.1387 -0.0800
69297SOL    HW219617   9.765   7.193   2.162 -0.6608 -0.4023 -0.5571
69298SOL     OW19618  12.831   4.456   0.043  0.2710 -0.0952  0.0597
69298SOL    HW119619  12.838   4.546   0.075  2.0416  0.2149 -1.0899
69298SOL    HW219620  12.773   4.463  -0.033 -1.6168 -0.3717  1.4155
69299SOL     OW19621   9.964  10.686   5.026 -0.0888  0.5358  0.0790
69299SOL    HW119622   9.932  10.736   4.951 -2.6132  2.0259  1.9514
69299SOL    HW219623   9.955  10.747   5.100 -0.1690 -1.6516  1.9762
69300SOL     OW19624   7.297   4.855   0.512 -0.1019 -0.3138 -0.4240
69300SOL    HW119625   7.390   4.842   0.531 -0.0465  0.0999 -0.3920
69300SOL    HW219626   7.279   4.945   0.542 -1.2236 -1.3552  2.4604
69301SOL     OW19627   0.073  12.296   0.491 -0.0201 -0.2580  0.0783
69301SOL    HW119628   0.127  12.330   0.420  0.9378  0.0058  0.9032
69301SOL    HW219629  -0.017  12.318   0.466  0.3845  0.7347 -0.5563
69302SOL     OW19630   2.655   9.231   0.888 -0.0708 -0.2317  0.5292
69302SOL    HW119631   2.707   9.311   0.894  0.5819 -0.3595 -2.1425
69302SOL    HW219632   2.600   9.243   0.811  0.4719 -2.5357 -0.3189
69303SOL     OW19633  12.750  11.584  10.952 -0.5836 -0.0692  0.0943
69303SOL    HW119634  12.688  11.653  10.975 -0.1863  0.6802 -0.9910
69303SOL    HW219635  12.775  11.604  10.862  1.6121 -0.0684  0.6712
69304SOL     OW19636   7.154   6.316  12.285  0.4335  0.3432 -0.1425
69304SOL    HW119637   7.157   6.402  12.243 -1.1604  0.9131  0.8040
69304SOL    HW219638   7.067   6.312  12.323  0.7263 -1.4398  0.4046
69305SOL     OW19639  12.628  11.064   5.668  0.1796  0.4066 -0.1632
69305SOL    HW119640  12.572  11.140   5.655  0.4387  0.5218 -0.6466
69305SOL    HW219641  12.652  11.036   5.579 -0.0519 -0.3447 -0.0015
69306SOL     OW19642   7.396  10.495   7.572 -0.7123 -0.0350 -0.1659
69306SOL    HW119643   7.323  10.512   7.513  0.3926  0.7768 -1.3440
69306SOL    HW219644   7.357  10.495   7.659 -2.0787  0.5840 -0.7565
69307SOL     OW19645  11.640   3.640   5.712 -0.4532 -0.3254  0.1839
69307SOL    HW119646  11.701   3.660   5.783 -0.0188  0.4952 -0.4083
69307SOL    HW219647  11.681   3.675   5.634  0.2195 -3.3265 -0.9194
69308SOL     OW19648  10.286   6.627   1.779  0.3191  0.3342  0.0073
69308SOL    HW119649  10.191   6.624   1.765  0.3328 -0.6930  0.0238
69308SOL    HW219650  10.318   6.543   1.744  1.2762  0.8422 -0.3846
69309SOL     OW19651   0.823  13.133   5.504  0.2778  0.1574  0.7620
69309SOL    HW119652   0.817  13.094   5.591 -0.1934 -1.3821  0.0757
69309SOL    HW219653   0.764  13.080   5.450  2.5386 -0.6248 -1.0879
69310SOL     OW19654   8.510   3.355  10.793  0.1544 -0.1847 -0.0459
69310SOL    HW119655   8.519   3.416  10.865 -0.9060  0.0515 -0.0995
69310SOL    HW219656   8.594   3.308  10.791 -0.1744 -0.9436  2.0004
69311SOL     OW19657   6.087   3.377   1.558  0.0318  0.7834  0.3702
69311SOL    HW119658   6.089   3.320   1.482  0.3272  1.4613 -0.1435
69311SOL    HW219659   6.148   3.337   1.620  0.0361  0.4036  0.1195
69312SOL     OW19660   6.359   9.229  10.925 -0.4616 -0.0206  0.6701
69312SOL    HW119661   6.373   9.153  10.981 -1.1322  0.2288  1.1825
69312SOL    HW219662   6.300   9.286  10.975  1.3467  1.6448  1.0389
69313SOL     OW19663   8.378   1.161   4.065 -0.4910 -0.0701  0.0100
69313SOL    HW119664   8.405   1.190   3.977  0.7368 -2.1000 -0.3447
69313SOL    HW219665   8.287   1.135   4.054 -1.8689  3.8454  0.4674
69314SOL     OW19666   2.112  10.155  12.405 -0.0134  0.4218 -0.1005
69314SOL    HW119667   2.117  10.250  12.408  0.1119  0.4840  3.8142
69314SOL    HW219668   2.187  10.125  12.457  0.5602 -1.9071 -2.0973
69315SOL     OW19669   8.501   9.499  10.492  0.2208 -0.5233 -0.3600
69315SOL    HW119670   8.525   9.415  10.452  0.6333 -0.6527  0.1407
69315SOL    HW219671   8.520   9.487  10.585 -0.9744 -0.3119 -0.0738
69316SOL     OW19672   2.874  11.706   1.064 -0.2273 -0.4562  0.2141
69316SOL    HW119673   2.888  11.687   0.971 -1.3828  1.9149 -0.5473
69316SOL    HW219674   2.960  11.696   1.104  0.2148 -1.9517 -1.0200
69317SOL     OW19675  11.499   9.261   2.681  0.0363  0.3285 -0.1167
69317SOL    HW119676  11.535   9.349   2.676 -2.0083  1.2255 -0.2193
69317SOL    HW219677  11.451   9.259   2.764 -1.2628 -0.1084 -0.8439
69318SOL     OW19678  10.201   3.341  10.804 -0.3203 -0.3879  0.1558
69318SOL    HW119679  10.228   3.335  10.896 -0.1377 -1.7730  0.0423
69318SOL    HW219680  10.231   3.427  10.776 -2.4882  1.1019  2.0219
69319SOL     OW19681   4.381  10.281   6.576  0.4037 -0.2571 -0.1805
69319SOL    HW119682   4.302  10.317   6.536  0.9833 -1.1906 -2.3402
69319SOL    HW219683   4.385  10.191   6.545  0.5291 -1.3538  2.7179
69320SOL     OW19684   9.252   5.894   2.661 -0.3237 -0.0048  0.5810
69320SOL    HW119685   9.301   5.937   2.591 -0.1782 -0.0917  0.6289
69320SOL    HW219686   9.263   5.952   2.737 -0.6925  0.2186  0.4637
69321SOL     OW19687   1.866   2.150   6.437  1.3110 -0.1932 -0.2502
69321SOL    HW119688   1.934   2.083   6.448  1.8975  0.5104  0.5949
69321SOL    HW219689   1.805   2.135   6.508  1.4078  0.1129 -0.0977
69322SOL     OW19690   6.795  11.745   3.530 -0.1477  0.9039 -0.0465
69322SOL    HW119691   6.747  11.729   3.449  0.4926  0.3877 -0.3315
69322SOL    HW219692   6.730  11.734   3.599 -0.2729 -0.5720 -0.3760
69323SOL     OW19693   1.141  10.622   4.163  0.1074 -0.0373 -0.2131
69323SOL    HW119694   1.176  10.533   4.155  3.4664  1.1601 -0.2237
69323SOL    HW219695   1.095  10.637   4.080  0.5223 -1.3533 -0.7031
69324SOL     OW19696   9.102   7.804   5.032 -0.5794  0.4666  0.1773
69324SOL    HW119697   9.181   7.752   5.018 -1.9064 -1.2960 -1.3242
69324SOL    HW219698   9.081   7.792   5.124  1.0276  1.2261  0.6740
69325SOL     OW19699   6.628   0.046   6.359  0.1367  0.0877  0.1885
69325SOL    HW119700   6.649   0.138   6.343  0.9641 -0.3606 -1.5718
69325SOL    HW219701   6.627   0.006   6.272  0.9863 -1.7948  0.9831
69326SOL     OW19702   1.549   4.061   0.870  0.2535 -0.0859  0.3637
69326SOL    HW119703   1.522   4.023   0.954 -1.5271  1.4156  0.5226
69326SOL    HW219704   1.559   3.985   0.812  1.6880 -1.1724  1.9279
69327SOL     OW19705  11.404  13.342  13.039 -0.0868 -0.3349  0.1252
69327SOL    HW119706  11.449  13.399  13.101 -0.1779 -0.4965  0.3403
69327SOL    HW219707  11.458  13.262  13.035  0.1096 -0.1863 -0.2728
69328SOL     OW19708   8.549   3.669   4.282  0.3157  0.5233  0.2302
69328SOL    HW119709   8.526   3.642   4.371  0.1799 -0.0091  0.0353
69328SOL    HW219710   8.476   3.726   4.255  0.8767  1.5678  0.8499
69329SOL     OW19711   6.543   4.529   8.944  0.0141  0.2252 -0.3560
69329SOL    HW119712   6.530   4.590   9.016  1.1583 -0.1116  0.1608
69329SOL    HW219713   6.635   4.539   8.920  0.0134 -0.6999 -0.8205
69330SOL     OW19714  12.525   8.460  10.041 -0.3724  0.1817 -0.2067
69330SOL    HW119715  12.590   8.462   9.971  2.0162  0.4980  1.8887
69330SOL    HW219716  12.451   8.509  10.006  1.5965  2.2723 -1.7595
69331SOL     OW19717   5.724   9.346   3.851  0.4505  0.0816 -0.3096
69331SOL    HW119718   5.632   9.355   3.876  0.4278 -0.5797 -0.1532
69331SOL    HW219719   5.721   9.305   3.764  0.6298 -2.5614  0.8411
69332SOL     OW19720  10.888   9.537  12.808  0.1719 -0.1541 -0.4868
69332SOL    HW119721  10.824   9.517  12.876  2.1714 -0.1330  1.5220
69332SOL    HW219722  10.928   9.453  12.787  0.8259  0.0957 -0.2737
69333SOL     OW19723   5.628  11.133  10.015 -0.2906 -0.1289  0.2046
69333SOL    HW119724   5.641  11.089   9.931  4.0488 -0.4287  0.7894
69333SOL    HW219725   5.655  11.067  10.080  1.1107  1.5663  1.4304
69334SOL     OW19726   6.961  10.942  11.291 -0.3442  0.0906 -0.4871
69334SOL    HW119727   6.908  10.989  11.227 -0.7141 -0.6813 -0.7680
69334SOL    HW219728   6.898  10.888  11.339  0.2184 -1.1788 -1.1191
69335SOL     OW19729   9.485   0.439   3.261  0.2037 -0.1927 -0.3965
69335SOL    HW119730   9.516   0.420   3.350  1.8279  2.3373 -0.3181
69335SOL    HW219731   9.545   0.506   3.229 -2.0075  0.9604 -2.3890
69336SOL     OW19732  11.082   2.153   6.207  0.0869 -0.2284  0.0732
69336SOL    HW119733  11.055   2.105   6.129 -0.5028 -0.5504  0.4683
69336SOL    HW219734  11.114   2.085   6.267  0.8852  0.0524 -0.0236
69337SOL     OW19735   0.584  13.393  11.685  0.1112 -0.0695  0.2559
69337SOL    HW119736   0.540  13.459  11.631  0.5435  1.1572  1.3643
69337SOL    HW219737   0.546  13.310  11.656 -1.6360  0.7883 -0.0719
69338SOL     OW19738   7.024   1.044  11.046  0.1397 -0.1413  0.3736
69338SOL    HW119739   6.930   1.030  11.057 -0.0222  1.5393  1.5281
69338SOL    HW219740   7.045   1.004  10.962 -1.8843  0.6100 -0.5419
69339SOL     OW19741  10.024  11.289  11.892  0.0684 -0.2282 -0.6969
69339SOL    HW119742  10.117  11.269  11.904  0.1477  1.1165  1.3680
69339SOL    HW219743   9.977  11.222  11.941  0.0696  0.3486  0.1240
69340SOL     OW19744  10.979   1.181  13.637  0.5153  0.1220 -0.1831
69340SOL    HW119745  10.968   1.142  13.723  0.1375 -0.7509 -0.6238
69340SOL    HW219746  10.899   1.160  13.589  1.5728 -1.2595 -1.4560
69341SOL     OW19747  11.768   7.998   8.687  0.3726 -0.1410  0.1596
69341SOL    HW119748  11.716   8.053   8.747  1.3391  0.3616  0.5546
69341SOL    HW219749  11.796   8.059   8.618  1.6318 -0.0828  0.7138
69342SOL     OW19750   3.555   8.306   0.942  0.2817 -0.8568  0.1310
69342SOL    HW119751   3.587   8.242   1.005  1.6429 -0.9308 -0.5990
69342SOL    HW219752   3.594   8.389   0.970 -0.5329 -0.5452  0.3902
69343SOL     OW19753  12.197   2.943   7.017  0.3654 -0.5078  0.5851
69343SOL    HW119754  12.148   3.025   7.013  0.2173 -0.6018  0.4900
69343SOL    HW219755  12.280   2.963   6.973  1.2092  0.2033  2.4205
69344SOL     OW19756   1.095   0.185   3.888 -0.0197  0.3164  0.8127
69344SOL    HW119757   1.033   0.232   3.832  1.1469 -0.1030 -0.9410
69344SOL    HW219758   1.043   0.117   3.931 -1.4423  2.2531  2.2775
69345SOL     OW19759  13.030  13.729  10.051 -0.2994 -0.2031  0.4346
69345SOL    HW119760  13.094  13.799  10.042 -0.3420 -0.4006 -2.3761
69345SOL    HW219761  12.988  13.724   9.965 -2.0547 -2.0076  1.3222
69346SOL     OW19762   1.230   7.037   8.967  0.9511 -0.0697  0.1119
69346SOL    HW119763   1.160   7.016   9.029 -1.5709 -1.6214 -2.9428
69346SOL    HW219764   1.277   7.110   9.007 -4.9610  4.0884  0.7189
69347SOL     OW19765   4.325   3.692  12.355  0.0171 -0.4170  0.3675
69347SOL    HW119766   4.419   3.708  12.359  0.1991 -1.2778 -0.2014
69347SOL    HW219767   4.305   3.644  12.435  0.3002 -1.3590 -0.1178
69348SOL     OW19768  12.223   3.824   6.340 -0.2512  0.0623 -0.1171
69348SOL    HW119769  12.188   3.880   6.271 -1.7077  0.1625  0.6637
69348SOL    HW219770  12.156   3.757   6.354  0.1174 -0.1013  1.0230
69349SOL     OW19771   5.167  11.006   8.292 -0.2167 -0.0020  0.3983
69349SOL    HW119772   5.084  10.960   8.305 -0.3597 -0.1107 -0.8125
69349SOL    HW219773   5.203  10.970   8.212  0.2595  1.1293  0.0769
69350SOL     OW19774   4.039  11.167   7.776 -0.0592  0.1605  0.4807
69350SOL    HW119775   4.091  11.095   7.810 -0.2440 -0.2968 -0.1798
69350SOL    HW219776   4.099  11.243   7.778  1.4635 -0.8058 -2.3486
69351SOL     OW19777   2.959  13.292   9.911 -0.0760  0.6551  0.4769
69351SOL    HW119778   2.872  13.293   9.871 -0.1952  1.4143  0.7347
69351SOL    HW219779   3.020  13.290   9.837 -0.3101 -0.1859  0.2986
69352SOL     OW19780  13.706   7.146   8.587  0.1228  0.0501 -0.7559
69352SOL    HW119781  13.693   7.096   8.667  1.7258  0.3083 -0.2844
69352SOL    HW219782  13.709   7.237   8.615  1.0100  0.1245 -1.0274
69353SOL     OW19783  11.614   7.162   1.166  0.0439 -0.3128  0.4129
69353SOL    HW119784  11.655   7.127   1.245  0.3337 -0.0332  0.3865
69353SOL    HW219785  11.548   7.224   1.198  0.9205  0.6336  0.4136
69354SOL     OW19786   9.399   5.643  11.033 -0.0815 -0.1817  0.5054
69354SOL    HW119787   9.388   5.733  11.004 -1.2277 -0.6351 -0.5724
69354SOL    HW219788   9.352   5.639  11.116 -1.8504 -0.2507 -0.4413
69355SOL     OW19789  13.703   2.046   3.634  0.5988 -0.0024 -0.1044
69355SOL    HW119790  13.778   1.994   3.664  0.5065 -0.2711 -0.3360
69355SOL    HW219791  13.667   1.996   3.561 -1.0495 -0.9317  1.2558
69356SOL     OW19792  10.115   9.639   2.149  0.6198  0.0875  0.4065
69356SOL    HW119793  10.149   9.561   2.193  0.6445  0.0443  0.3091
69356SOL    HW219794  10.137   9.627   2.057 -1.1423 -0.7544  0.0519
69357SOL     OW19795   9.520  11.588  12.458 -0.2754 -0.0086 -0.1788
69357SOL    HW119796   9.579  11.535  12.511  1.5687  1.1168 -1.0148
69357SOL    HW219797   9.498  11.533  12.383 -2.1078 -1.2390  1.1861
69358SOL     OW19798   2.463   7.074  10.825  0.0619  0.1227  0.0217
69358SOL    HW119799   2.461   7.158  10.870  1.3904  0.5593 -0.6896
69358SOL    HW219800   2.388   7.077  10.765 -0.1023  0.6460  0.2521
69359SOL     OW19801  11.069  13.678   6.891  0.2900  0.0461 -0.3900
69359SOL    HW119802  11.005  13.738   6.930  2.5300  2.7282 -0.5140
69359SOL    HW219803  11.048  13.678   6.798 -0.2682 -0.0997 -0.2700
69360SOL     OW19804  11.596   1.851   9.600  0.2816 -0.2108  0.2340
69360SOL    HW119805  11.545   1.858   9.681  0.0359 -1.3579  0.1925
69360SOL    HW219806  11.627   1.760   9.599 -0.2408 -0.4019 -1.2663
69361SOL     OW19807   3.697   2.639   0.965  0.0979 -0.1944 -0.2548
69361SOL    HW119808   3.645   2.584   0.906  0.5185 -0.4349 -0.4057
69361SOL    HW219809   3.779   2.591   0.976  0.4291  0.3597 -0.3061
69362SOL     OW19810   2.348   0.775  13.604 -0.2319  0.5529  0.3049
69362SOL    HW119811   2.396   0.760  13.523  2.4811  2.6958  1.3567
69362SOL    HW219812   2.328   0.688  13.637  0.2890 -0.3719 -1.7107
69363SOL     OW19813  11.659   6.543   7.904  0.1073 -0.4026  0.5646
69363SOL    HW119814  11.579   6.497   7.930  0.2519 -0.4257  0.9833
69363SOL    HW219815  11.702   6.484   7.842 -1.6618  0.8797 -2.0432
69364SOL     OW19816   1.256   6.192   3.564 -0.3751 -0.1670  0.6163
69364SOL    HW119817   1.244   6.098   3.580  0.6066 -0.3601  0.3371
69364SOL    HW219818   1.263   6.199   3.469  1.6024 -0.1172  0.7217
69365SOL     OW19819   1.075   1.204  10.405 -0.5200 -0.9529 -0.7836
69365SOL    HW119820   1.153   1.227  10.353 -0.2994 -2.3797 -1.1323
69365SOL    HW219821   1.111   1.169  10.487 -0.8323 -0.5175 -0.4564
69366SOL     OW19822   8.886  10.905   3.309 -0.9082 -0.1256  0.1415
69366SOL    HW119823   8.821  10.854   3.260 -0.4860 -0.8270  0.2897
69366SOL    HW219824   8.937  10.839   3.357  0.4376  0.3260 -0.6034
69367SOL     OW19825  12.886   0.499  11.146 -0.1642  0.4646  0.0451
69367SOL    HW119826  12.880   0.475  11.238  1.5190  1.2187  0.3861
69367SOL    HW219827  12.796   0.523  11.122 -0.7716 -0.4865  1.2488
69368SOL     OW19828   3.578   2.382   0.254  0.0815 -0.3707  0.0213
69368SOL    HW119829   3.558   2.400   0.162  0.3241  0.6628  0.1654
69368SOL    HW219830   3.672   2.365   0.255  0.1280 -0.1136  0.1152
69369SOL     OW19831   6.097   4.204   9.427  0.1905  0.1586 -0.2929
69369SOL    HW119832   6.109   4.145   9.501 -0.4404  1.9958  1.3497
69369SOL    HW219833   6.016   4.174   9.385 -0.9167  0.6481  1.3826
69370SOL     OW19834   1.901  12.077   5.527 -0.2716  0.4846  0.1094
69370SOL    HW119835   1.993  12.076   5.555 -0.2808 -1.1857  0.1763
69370SOL    HW219836   1.894  12.154   5.471  0.7462  1.5892  1.4101
69371SOL     OW19837  13.270  11.408   2.041  0.6713  0.0669 -0.0833
69371SOL    HW119838  13.307  11.362   1.966 -0.6416  0.4495 -1.0110
69371SOL    HW219839  13.188  11.362   2.060  0.3138  0.8038  0.2288
69372SOL     OW19840   8.279  12.764   0.109  0.1249 -0.6242  0.3485
69372SOL    HW119841   8.307  12.735   0.022  1.3563  2.0436 -0.2459
69372SOL    HW219842   8.183  12.768   0.103  0.2272  1.1949 -1.5784
69373SOL     OW19843   3.349   3.098   0.970  0.2436  0.2165 -0.1107
69373SOL    HW119844   3.374   3.090   0.878  1.8211  0.8441  0.2302
69373SOL    HW219845   3.391   3.023   1.013  1.4473  1.1592  0.4336
69374SOL     OW19846  13.513   0.678   3.511 -0.2428 -0.0763  0.2923
69374SOL    HW119847  13.444   0.612   3.506 -0.9651  0.6144  0.7738
69374SOL    HW219848  13.510   0.709   3.602  3.4799 -2.9066  1.6239
69375SOL     OW19849  12.963   9.636   7.372  0.0577  0.3953 -0.6402
69375SOL    HW119850  13.002   9.559   7.331 -1.7759 -1.1270  0.2886
69375SOL    HW219851  12.973   9.621   7.466  0.4886  1.7668 -0.4574
69376SOL     OW19852   8.334   3.027   0.999 -0.6811 -0.9347  0.0846
69376SOL    HW119853   8.390   2.970   0.946  1.5577 -0.4123  1.7441
69376SOL    HW219854   8.291   3.084   0.935  1.9113 -0.3105 -1.2284
69377SOL     OW19855   3.619   3.650   8.480  0.0645 -0.6422 -0.6856
69377SOL    HW119856   3.678   3.670   8.407 -0.2971  2.7086 -0.1958
69377SOL    HW219857   3.532   3.646   8.440 -0.1026  0.9422 -0.5379
69378SOL     OW19858   4.059   3.406  11.552  0.1969  0.4527  0.2912
69378SOL    HW119859   4.041   3.479  11.493 -0.8424  0.0845  0.1205
69378SOL    HW219860   4.072   3.331  11.494  2.1350  0.6349  0.4217
69379SOL     OW19861   9.722   7.405   2.737 -0.0171  0.4839 -0.1373
69379SOL    HW119862   9.636   7.392   2.696  0.7209  0.7360 -1.8742
69379SOL    HW219863   9.784   7.369   2.673  1.3914  3.2918 -0.4989
69380SOL     OW19864   6.129   0.739  11.829 -0.3288  0.4291  0.0467
69380SOL    HW119865   6.087   0.800  11.890  2.5390  1.1970  1.4449
69380SOL    HW219866   6.221   0.737  11.857  0.8670 -0.2533 -3.4466
69381SOL     OW19867  11.133  11.574   1.294 -0.1263  0.2812  0.0421
69381SOL    HW119868  11.140  11.482   1.319  3.6496  0.4019  0.0479
69381SOL    HW219869  11.074  11.612   1.360 -0.6958 -1.8448  0.8423
69382SOL     OW19870   6.584  12.254  13.645  0.2081  0.0174  0.5824
69382SOL    HW119871   6.563  12.191  13.714  1.1150 -2.7234 -1.4612
69382SOL    HW219872   6.678  12.267  13.653  0.0713  0.9382  0.8009
69383SOL     OW19873  10.089   3.248   0.080 -0.1908  0.9749 -0.0840
69383SOL    HW119874  10.161   3.232   0.019 -0.0126 -0.3179  0.4356
69383SOL    HW219875  10.129   3.237   0.167 -0.8598  0.9269  0.2210
69384SOL     OW19876  11.029   0.530   2.652  0.1392 -0.5227  0.8084
69384SOL    HW119877  10.983   0.613   2.664  1.1390 -0.0547  1.5346
69384SOL    HW219878  10.970   0.477   2.598 -0.2027  0.9235 -0.3157
69385SOL     OW19879   9.040  10.928   2.249 -0.3791 -0.3282 -0.0404
69385SOL    HW119880   9.066  10.945   2.340 -0.0056 -1.7621  0.1449
69385SOL    HW219881   9.103  10.862   2.218 -0.6348 -0.0175 -1.2746
69386SOL     OW19882   8.721  11.643  13.178  0.0792 -0.3634  0.7595
69386SOL    HW119883   8.750  11.573  13.238  1.7855 -0.2851  0.0644
69386SOL    HW219884   8.775  11.718  13.201 -0.2962  0.1157  0.1008
69387SOL     OW19885   7.297   4.949   8.312 -0.0605  0.2271 -0.2331
69387SOL    HW119886   7.369   5.011   8.314  0.6877 -0.6223 -0.0364
69387SOL    HW219887   7.323   4.884   8.246  0.6062 -1.5071  1.6393
69388SOL     OW19888   3.167   6.079   5.662  0.2024 -0.1709  0.4063
69388SOL    HW119889   3.102   6.130   5.613 -1.4645 -0.3411  2.2803
69388SOL    HW219890   3.250   6.095   5.617 -0.8983  1.1734 -1.2755
69389SOL     OW19891  12.293   4.590  11.759 -0.4238 -0.1510  0.2912
69389SOL    HW119892  12.342   4.544  11.691 -0.3073 -0.6439  0.6948
69389SOL    HW219893  12.348   4.582  11.837 -0.1774  1.1035  0.2604
69390SOL     OW19894   5.060   8.860   6.462 -0.0238 -0.0060 -0.4664
69390SOL    HW119895   5.068   8.916   6.540  0.9286 -1.1739  0.3178
69390SOL    HW219896   5.122   8.897   6.400 -0.5695  0.7559 -0.5719
69391SOL     OW19897   1.062   9.125  11.410  0.2279  0.3260  0.2503
69391SOL    HW119898   1.061   9.139  11.316  1.1979  0.0400  0.1894
69391SOL    HW219899   1.148   9.086  11.428 -0.3606 -0.6130  1.1043
69392SOL     OW19900   2.690   2.885   0.864  0.4570 -0.2780 -0.5108
69392SOL    HW119901   2.675   2.944   0.791  1.1676 -1.1863 -1.4185
69392SOL    HW219902   2.656   2.801   0.834  1.1375 -0.7603  0.0365
69393SOL     OW19903   9.130  12.192   1.809 -0.5892 -0.5167  0.5162
69393SOL    HW119904   9.127  12.153   1.721 -0.0118 -1.1921  0.7833
69393SOL    HW219905   9.212  12.159   1.846 -1.7563 -1.8607  2.0530
69394SOL     OW19906  11.434  12.222   6.794 -0.1335 -0.3072  0.0932
69394SOL    HW119907  11.432  12.131   6.763 -1.6134  0.0783 -1.0530
69394SOL    HW219908  11.382  12.270   6.730 -0.6486  1.0898  1.4986
69395SOL     OW19909   5.836   8.545  12.077 -0.3897 -0.3313 -0.2668
69395SOL    HW119910   5.867   8.559  11.987 -0.6126 -0.7995 -0.4215
69395SOL    HW219911   5.888   8.471  12.108  0.1569  0.2481  0.2272
69396SOL     OW19912   3.980   4.571   8.813 -0.6197  0.1519 -0.0009
69396SOL    HW119913   3.954   4.479   8.820  0.7094 -0.3881 -1.5773
69396SOL    HW219914   4.076   4.569   8.818 -0.3915  1.1216 -2.6605
69397SOL     OW19915   7.036   7.620   9.056 -0.3521 -0.0146 -0.0875
69397SOL    HW119916   7.123   7.620   9.016 -0.2101 -1.1353  0.2021
69397SOL    HW219917   7.009   7.712   9.054  0.2321  0.1441 -1.4837
69398SOL     OW19918   2.966   7.308  11.263  0.0754 -0.2329 -0.0238
69398SOL    HW119919   3.043   7.257  11.238  0.5293  0.6222 -0.4359
69398SOL    HW219920   2.987   7.343  11.350 -0.2363 -0.7474  0.2605
69399SOL     OW19921   7.575  13.493   2.777  0.9177 -0.3936  0.3464
69399SOL    HW119922   7.582  13.588   2.767  0.3579 -0.1700  1.8076
69399SOL    HW219923   7.634  13.472   2.848  0.1450 -0.9593  0.8329
69400SOL     OW19924   3.916  10.017  12.691  0.2518  0.1518  0.3447
69400SOL    HW119925   4.005  10.049  12.702  0.1265  0.5538  0.2031
69400SOL    HW219926   3.906   9.949  12.758 -0.3240  2.1664  2.4676
69401SOL     OW19927  12.782   9.010   4.038  0.3293  0.1663  0.1389
69401SOL    HW119928  12.818   8.941   3.982  0.5333  1.1767 -1.0210
69401SOL    HW219929  12.810   8.985   4.126  0.8442 -0.9535 -0.3136
69402SOL     OW19930   2.704   8.250   0.913  0.1623 -0.0959  0.1339
69402SOL    HW119931   2.776   8.192   0.888  0.1060  0.1029 -0.5036
69402SOL    HW219932   2.627   8.193   0.916 -0.0399  0.0693 -1.2578
69403SOL     OW19933   3.137  12.623   8.973  0.7197  0.5369  0.2443
69403SOL    HW119934   3.122  12.666   8.889  1.0662  0.8958  0.3629
69403SOL    HW219935   3.065  12.653   9.028  0.1179 -0.2158 -0.1104
69404SOL     OW19936   5.849  12.333   6.450  0.3429 -0.5101  0.0676
69404SOL    HW119937   5.841  12.261   6.388 -3.3233 -0.3584  0.1105
69404SOL    HW219938   5.849  12.412   6.396  0.9869 -0.4447  0.1543
69405SOL     OW19939   7.473   8.095   9.969 -0.6863  0.3972 -0.3162
69405SOL    HW119940   7.380   8.117   9.965 -0.8176 -0.2542 -0.9780
69405SOL    HW219941   7.511   8.164  10.023 -1.3092  1.5228 -1.2661
69406SOL     OW19942   4.542   5.140   0.513  0.5895 -0.1351  0.1561
69406SOL    HW119943   4.581   5.062   0.473  1.7831  0.4979  0.0407
69406SOL    HW219944   4.488   5.106   0.584 -0.9609 -1.2387 -1.4676
69407SOL     OW19945   2.482  10.659   6.962  0.1420  0.0621 -0.3214
69407SOL    HW119946   2.501  10.628   6.874  2.1147 -2.0358  0.7535
69407SOL    HW219947   2.548  10.617   7.018 -2.2951 -0.4112  2.4746
69408SOL     OW19948  11.124   8.339   0.399 -0.0945  0.4172  0.0577
69408SOL    HW119949  11.124   8.245   0.419  1.0885  0.4129  0.1450
69408SOL    HW219950  11.135   8.382   0.484 -3.0505  0.7841  0.3454
69409SOL     OW19951   2.824   3.795   7.764 -0.2300  0.5617  0.5972
69409SOL    HW119952   2.898   3.848   7.736  0.5027 -0.7213  0.0074
69409SOL    HW219953   2.864   3.720   7.809 -0.9126 -1.6174 -2.1363
69410SOL     OW19954  12.429   5.259  11.583  0.1279 -0.2401 -0.2556
69410SOL    HW119955  12.457   5.168  11.584 -0.2807 -0.3631  0.7483
69410SOL    HW219956  12.510   5.309  11.593  0.2832 -0.5129 -0.1362
69411SOL     OW19957   0.820   1.934   1.453  0.4730  0.1575 -0.1214
69411SOL    HW119958   0.826   1.918   1.359 -0.4234  1.4378 -0.4103
69411SOL    HW219959   0.728   1.922   1.474  0.0951  2.7961  0.0024
69412SOL     OW19960  11.111   0.485   0.116  0.3106  0.1728  0.8387
69412SOL    HW119961  11.163   0.488   0.036 -0.2973  2.4379  0.4641
69412SOL    HW219962  11.132   0.400   0.155  3.0905  0.3468 -0.0492
69413SOL     OW19963   2.409   0.205   5.311 -0.2584 -0.5208 -0.5344
69413SOL    HW119964   2.417   0.276   5.247 -1.1881 -0.9704 -1.1675
69413SOL    HW219965   2.493   0.205   5.357 -0.0447  0.6304 -0.8984
69414SOL     OW19966  12.687   3.214   0.385 -0.5737  0.1175 -0.1623
69414SOL    HW119967  12.755   3.147   0.400 -2.3295 -1.8742 -0.5675
69414SOL    HW219968  12.670   3.209   0.291 -0.0612  1.8974 -0.3798
69415SOL     OW19969   0.670  10.796   1.556 -0.2134 -0.2487 -0.1121
69415SOL    HW119970   0.750  10.766   1.600 -0.1941 -1.1135 -0.7045
69415SOL    HW219971   0.612  10.720   1.559  0.1788 -0.7081 -2.5029
69416SOL     OW19972   6.014   9.584   7.982 -0.1367  0.4271  0.2250
69416SOL    HW119973   5.972   9.586   8.067  1.0842 -0.2736  0.8816
69416SOL    HW219974   5.945   9.605   7.919 -1.1383  0.5450  1.3499
69417SOL     OW19975   3.917  13.491  11.861  0.5942  0.4462  0.6134
69417SOL    HW119976   3.979  13.419  11.874  2.2671  1.7000 -0.1394
69417SOL    HW219977   3.939  13.555  11.928  0.4829  1.1566 -0.0130
69418SOL     OW19978  11.678   5.160   5.705 -0.4191 -0.2106 -0.3179
69418SOL    HW119979  11.583   5.175   5.710 -0.4632 -0.1076 -1.3397
69418SOL    HW219980  11.706   5.154   5.797 -1.5067 -0.8519 -0.0075
69419SOL     OW19981  10.286   7.791   2.994 -0.2500 -0.0080  0.1200
69419SOL    HW119982  10.286   7.754   3.082  0.3444  1.6140  0.8555
69419SOL    HW219983  10.194   7.792   2.967 -0.2623 -2.1280 -0.0275
69420SOL     OW19984  11.675   3.445   2.654  0.5830 -0.6422 -0.2174
69420SOL    HW119985  11.612   3.512   2.627 -0.6269 -1.7439 -0.2767
69420SOL    HW219986  11.737   3.439   2.582  0.6757  0.3682 -0.2305
69421SOL     OW19987   7.416   3.675   0.319  0.1821  0.5285  0.3510
69421SOL    HW119988   7.385   3.759   0.284 -1.1184 -0.7649 -1.8575
69421SOL    HW219989   7.392   3.677   0.412 -0.8727  2.1338  0.0767
69422SOL     OW19990   5.155  12.744   2.607 -0.1367  0.3606 -0.3808
69422SOL    HW119991   5.101  12.771   2.682  0.5617 -0.5652  0.4775
69422SOL    HW219992   5.109  12.668   2.571  0.6225 -0.4942  0.4154
69423SOL     OW19993  10.097   9.342   2.611  0.1305 -0.3563  0.5766
69423SOL    HW119994  10.019   9.373   2.657 -0.8938  2.6291 -2.7058
69423SOL    HW219995  10.065   9.317   2.524  2.4229 -2.3713  0.2020
69424SOL     OW19996  10.322   8.273  10.910 -0.3509 -0.0229  0.3268
69424SOL    HW119997  10.412   8.254  10.938 -0.3807 -1.5744 -0.5065
69424SOL    HW219998  10.274   8.288  10.991  0.7676  1.4528  0.7574
69425SOL     OW19999   5.778   8.622   5.843 -0.0662 -0.3980  0.0014
69425SOL    HW120000   5.841   8.648   5.910 -1.6624  0.6925  1.1548
69425SOL    HW220001   5.798   8.678   5.768 -1.1231  1.7045  1.2000
69426SOL     OW20002   2.584   9.474   0.162 -0.1884 -0.1816 -0.2454
69426SOL    HW120003   2.489   9.483   0.164 -0.0383  1.7819  2.1688
69426SOL    HW220004   2.617   9.560   0.139  0.9981  0.1962  2.4207
69427SOL     OW20005   6.173   0.460   0.224 -0.7862  0.0277 -0.5177
69427SOL    HW120006   6.187   0.390   0.288  1.0434  1.0396  0.2747
69427SOL    HW220007   6.129   0.529   0.274  0.1052  0.5847 -0.4771
69428SOL     OW20008   7.474   7.167   8.563  0.0545 -0.2159 -0.1139
69428SOL    HW120009   7.400   7.221   8.591 -0.5797  0.0474 -2.1029
69428SOL    HW220010   7.437   7.079   8.552  0.3496 -0.3758  0.1874
69429SOL     OW20011  11.873   1.057   9.324  0.0544  0.0714 -0.0288
69429SOL    HW120012  11.957   1.100   9.308  0.0997 -0.2189 -0.5946
69429SOL    HW220013  11.866   0.991   9.255 -1.2107  0.9174 -0.7351
69430SOL     OW20014   6.431  12.535   4.326 -0.1472  0.1333 -0.0833
69430SOL    HW120015   6.420  12.445   4.356  0.8662 -0.4372 -1.3292
69430SOL    HW220016   6.406  12.533   4.234 -1.1050  1.3722  0.1218
69431SOL     OW20017   0.620   1.756  11.239 -0.4949  0.1679 -0.5207
69431SOL    HW120018   0.664   1.675  11.212  0.2362  0.7562 -1.1170
69431SOL    HW220019   0.672   1.788  11.313  1.4373  1.9799 -2.5294
69432SOL     OW20020   8.884   2.173   0.784  0.1469  0.7760  0.2908
69432SOL    HW120021   8.969   2.201   0.751  0.2024  0.2530 -0.0311
69432SOL    HW220022   8.883   2.078   0.769 -0.7128  0.8552 -0.2370
69433SOL     OW20023   5.785   8.306  10.965 -0.5218  0.6693 -0.3886
69433SOL    HW120024   5.704   8.266  10.998  0.1194 -0.9356 -0.6373
69433SOL    HW220025   5.854   8.247  10.996  0.2740  0.0964 -3.0152
69434SOL     OW20026  10.406  11.847  11.091  0.1460 -0.1810 -0.1447
69434SOL    HW120027  10.476  11.897  11.049  0.9796  0.0423  1.4429
69434SOL    HW220028  10.447  11.807  11.167 -0.8252 -2.2411 -0.6388
69435SOL     OW20029   0.538   1.405   8.953  0.0596 -0.1057 -0.2862
69435SOL    HW120030   0.486   1.335   8.916 -1.4499 -0.0325  1.5324
69435SOL    HW220031   0.478   1.479   8.961 -0.4150 -0.6541  3.8433
69436SOL     OW20032   0.304  11.287   0.091  1.2854 -0.3637  0.1829
69436SOL    HW120033   0.261  11.225   0.033  0.7265  1.2533 -1.2057
69436SOL    HW220034   0.382  11.315   0.044 -0.8661  3.5459 -1.6037
69437SOL     OW20035   2.026   1.814   8.733  0.2677  0.5629 -0.0916
69437SOL    HW120036   2.035   1.740   8.794  1.3121 -0.5914 -1.5789
69437SOL    HW220037   2.095   1.875   8.758  1.2582 -0.3105 -0.6299
69438SOL     OW20038   5.770   4.047   2.194  0.1562 -0.1538  0.2841
69438SOL    HW120039   5.859   4.035   2.160  0.1898 -1.3860  0.7412
69438SOL    HW220040   5.783   4.072   2.285  0.0440 -1.0465  0.5542
69439SOL     OW20041   4.896  13.683   6.854  0.2031  0.0022 -0.4113
69439SOL    HW120042   4.991  13.677   6.869  0.0018  1.1100  1.8216
69439SOL    HW220043   4.858  13.631   6.925 -0.8560  1.7605  0.3825
69440SOL     OW20044  13.047  10.637   9.134  0.0327 -0.1070 -0.5983
69440SOL    HW120045  13.100  10.573   9.181 -1.9328 -2.6768 -1.6134
69440SOL    HW220046  13.077  10.632   9.043 -2.0415 -1.9039 -1.2718
69441SOL     OW20047   9.335   5.521   4.450  0.1228  0.6515 -0.2526
69441SOL    HW120048   9.373   5.547   4.534 -0.6520 -0.1687  0.3806
69441SOL    HW220049   9.398   5.549   4.385  0.5064  1.7668  0.5663
69442SOL     OW20050  12.403   1.447   6.837 -0.0081 -0.1315  0.4832
69442SOL    HW120051  12.352   1.497   6.901 -1.4564  0.2858 -0.9208
69442SOL    HW220052  12.478   1.504   6.816 -0.4257  0.4575  0.5755
69443SOL     OW20053   4.792  12.079   6.209  0.1792 -0.2177  0.0138
69443SOL    HW120054   4.849  12.074   6.285  0.3043  0.2297 -0.0492
69443SOL    HW220055   4.851  12.095   6.135 -0.0162  0.1404 -0.0667
69444SOL     OW20056   6.221   8.699   8.467  0.0572 -0.5447  0.0706
69444SOL    HW120057   6.136   8.686   8.508 -1.1728 -0.8055 -2.3427
69444SOL    HW220058   6.233   8.621   8.413  0.7497  0.4753 -1.3195
69445SOL     OW20059   8.351   9.437   3.354  0.1366  0.3268 -0.2172
69445SOL    HW120060   8.259   9.451   3.330  0.4929  1.3565 -0.9944
69445SOL    HW220061   8.388   9.524   3.362  0.4993  0.0176  2.4130
69446SOL     OW20062   0.244  11.896  12.869 -0.0860 -0.0100  0.3181
69446SOL    HW120063   0.275  11.813  12.834 -0.9871 -0.4396  0.4957
69446SOL    HW220064   0.203  11.940  12.794  1.6857  0.9542 -0.1295
69447SOL     OW20065   7.761   7.388   6.708 -0.6637 -0.0399 -0.2181
69447SOL    HW120066   7.762   7.406   6.802  2.0356 -1.0432  0.0318
69447SOL    HW220067   7.744   7.294   6.702 -2.3979  0.2691 -0.8798
69448SOL     OW20068   5.819   4.022  11.469  0.1596  0.0965  0.2170
69448SOL    HW120069   5.847   3.944  11.421  1.7961  1.0438 -0.4366
69448SOL    HW220070   5.726   4.031  11.448  0.4950 -0.3460 -1.6515
69449SOL     OW20071   9.717   2.429   4.228 -0.4211  0.4646  0.0514
69449SOL    HW120072   9.630   2.399   4.257  0.8236 -0.4788  3.1698
69449SOL    HW220073   9.742   2.365   4.161 -1.4325 -0.2385  0.3124
69450SOL     OW20074   2.139   9.183   0.353  0.4203 -0.5587 -0.8625
69450SOL    HW120075   2.102   9.103   0.390  0.1067 -0.9121 -1.9029
69450SOL    HW220076   2.093   9.194   0.269  2.1213 -0.6079 -1.8538
69451SOL     OW20077   7.895  11.004   2.626 -0.1516  0.0912 -0.4590
69451SOL    HW120078   7.978  11.020   2.581  0.6136 -2.8844 -0.3769
69451SOL    HW220079   7.864  10.922   2.588  0.5320 -2.6771  4.1845
69452SOL     OW20080  10.261   9.812  11.166  0.5760 -0.0762  0.2396
69452SOL    HW120081  10.201   9.749  11.126 -0.7606  0.5858  1.1361
69452SOL    HW220082  10.206   9.888  11.185  1.4163  0.0711  2.2803
69453SOL     OW20083  12.047  13.028   0.135 -0.3495  0.1984  0.2571
69453SOL    HW120084  12.111  12.999   0.200  1.7494  1.9905 -0.8790
69453SOL    HW220085  11.998  13.098   0.179  2.4091  2.8325 -0.5286
69454SOL     OW20086  12.876   7.957   9.612 -0.1183 -0.1641 -0.4373
69454SOL    HW120087  12.856   8.009   9.690  2.6570  0.0299  0.2525
69454SOL    HW220088  12.793   7.916   9.588 -0.9992 -0.5123  2.8250
69455SOL     OW20089  10.132   2.307   0.550 -0.5645  0.0163  0.2316
69455SOL    HW120090  10.142   2.218   0.584 -0.3606 -0.7202 -1.6408
69455SOL    HW220091  10.037   2.317   0.540 -0.5027 -1.2772 -2.5846
69456SOL     OW20092   1.080  13.514   9.292 -0.0393  0.0693 -0.0146
69456SOL    HW120093   1.064  13.438   9.235 -2.0179 -1.0248  1.8204
69456SOL    HW220094   1.052  13.589   9.241  1.2790 -0.5007 -1.6283
69457SOL     OW20095   5.681  12.517  11.917 -0.0336 -0.1624  0.4026
69457SOL    HW120096   5.648  12.467  11.991  0.3889 -1.2554 -0.1176
69457SOL    HW220097   5.694  12.451  11.848 -2.3155  1.0543 -1.3368
69458SOL     OW20098   1.893   1.549   8.599 -0.1164  0.3310 -0.1670
69458SOL    HW120099   1.980   1.586   8.616 -0.1187  0.5521 -0.6295
69458SOL    HW220100   1.836   1.593   8.662  0.1867 -0.1731  0.4740
69459SOL     OW20101   2.127   2.118   4.868  0.1553 -0.4595  0.4194
69459SOL    HW120102   2.123   2.078   4.781 -3.3203 -0.1996  0.2875
69459SOL    HW220103   2.129   2.044   4.929  0.9846 -0.6744  0.1312
69460SOL     OW20104   9.677  10.798   7.044  0.4930 -0.3844  0.3408
69460SOL    HW120105   9.707  10.790   7.135 -0.6989 -1.9180  0.6408
69460SOL    HW220106   9.621  10.876   7.045  0.7488 -0.1963  0.8260
69461SOL     OW20107   9.706  13.346   0.016  0.0375 -0.0594  0.1177
69461SOL    HW120108   9.628  13.392  -0.016  1.0878  0.6370 -1.5818
69461SOL    HW220109   9.776  13.374  -0.043  1.2871 -1.7804  0.7002
69462SOL     OW20110  12.372   3.810   1.322  0.0548 -0.1325 -0.4880
69462SOL    HW120111  12.459   3.805   1.282 -0.2105 -2.7935 -0.9373
69462SOL    HW220112  12.386   3.859   1.403  1.7675  0.3352 -1.0100
69463SOL     OW20113  10.665   0.626   0.562  0.7587 -0.4150 -0.8248
69463SOL    HW120114  10.697   0.634   0.472 -0.5282 -2.1866 -1.5002
69463SOL    HW220115  10.570   0.622   0.554  0.5376  0.7145  0.7663
69464SOL     OW20116   6.859   4.956   2.164 -0.1463 -0.2243 -0.2754
69464SOL    HW120117   6.890   4.953   2.255 -1.2772  0.2399  0.1525
69464SOL    HW220118   6.765   4.937   2.171 -0.7072  1.9173 -1.0832
69465SOL     OW20119  13.656   6.899   7.587  0.4389  0.3607 -0.4420
69465SOL    HW120120  13.686   6.986   7.611  0.7319  0.0591  0.2925
69465SOL    HW220121  13.717   6.871   7.517  0.5578  0.5995 -0.4323
69466SOL     OW20122   5.976   6.811   7.213 -0.3527 -0.3250 -0.0933
69466SOL    HW120123   5.897   6.848   7.254  0.3617  1.4219 -0.2348
69466SOL    HW220124   5.951   6.720   7.193 -1.9418 -0.1542  0.8861
69467SOL     OW20125   6.500  13.350  10.773 -0.5738 -0.1176  0.5591
69467SOL    HW120126   6.482  13.430  10.822 -3.0411 -0.3291  0.0970
69467SOL    HW220127   6.414  13.317  10.747  0.4420 -2.2343 -0.3861
69468SOL     OW20128  10.789   4.384  10.215 -0.1073 -0.5046 -0.4943
69468SOL    HW120129  10.797   4.302  10.167  0.9299 -1.0516  0.5595
69468SOL    HW220130  10.789   4.358  10.307 -0.3632  0.6441 -0.1554
69469SOL     OW20131   6.593   0.307  11.583  0.2954 -0.1997 -0.4035
69469SOL    HW120132   6.528   0.273  11.522  0.7513  0.8874 -1.5437
69469SOL    HW220133   6.632   0.382  11.538  0.2117  1.0537  1.4927
69470SOL     OW20134   2.784   5.689   4.293  0.2755  0.0438  0.7535
69470SOL    HW120135   2.841   5.764   4.304  0.1746  0.1777  0.3989
69470SOL    HW220136   2.698   5.727   4.276  0.1253 -0.1550  1.0809
69471SOL     OW20137  12.052   4.370   5.953 -0.4683  0.2873 -0.0900
69471SOL    HW120138  12.123   4.339   6.010  1.2502 -0.0789 -2.2664
69471SOL    HW220139  12.052   4.465   5.965 -0.3603  0.1916  0.7348
69472SOL     OW20140   6.890   4.027   1.077 -0.1173  0.2942 -0.2923
69472SOL    HW120141   6.888   4.121   1.056 -1.3850  0.2838 -0.2738
69472SOL    HW220142   6.973   3.997   1.040 -0.9731  0.8492 -2.8798
69473SOL     OW20143   3.179   3.363   9.724  0.2347  0.0276 -0.0634
69473SOL    HW120144   3.167   3.326   9.812 -1.3367  0.4649 -0.0556
69473SOL    HW220145   3.148   3.294   9.665 -0.3212  0.3679 -0.1763
69474SOL     OW20146   0.076  12.152  11.998 -0.0538 -0.6453  0.3138
69474SOL    HW120147   0.091  12.133  11.905  1.1353 -0.4285  0.4429
69474SOL    HW220148  -0.018  12.170  12.004 -0.3741 -1.8893 -0.6192
69475SOL     OW20149   0.626  11.880   9.928 -0.7581 -0.2089  0.3764
69475SOL    HW120150   0.601  11.904   9.839 -0.4095  2.8446  0.9783
69475SOL    HW220151   0.543  11.874   9.975 -0.8926 -0.9630  0.0607
69476SOL     OW20152  12.647   3.187   7.805 -0.5877  0.4032  0.7037
69476SOL    HW120153  12.696   3.254   7.852 -0.0654 -0.3661  1.2724
69476SOL    HW220154  12.556   3.217   7.809 -0.0952  2.5496 -1.5301
69477SOL     OW20155   7.938  11.436   8.712  0.1511 -0.3815  0.0992
69477SOL    HW120156   7.896  11.354   8.738 -0.8152 -0.1973 -0.8152
69477SOL    HW220157   8.030  11.413   8.700 -0.3647 -1.7507 -1.7693
69478SOL     OW20158  12.970   2.339   3.816  0.6203 -0.6057  0.4005
69478SOL    HW120159  12.969   2.257   3.864  1.9585  0.0530  1.6137
69478SOL    HW220160  12.952   2.406   3.881 -1.0295  0.0543 -0.6762
69479SOL     OW20161   1.894   0.540  11.487 -0.1302  0.7042 -0.0431
69479SOL    HW120162   1.839   0.517  11.562  0.0471  2.3291  0.6287
69479SOL    HW220163   1.979   0.501  11.507 -0.3518  0.3100  0.1321
69480SOL     OW20164   5.902   0.983  10.982  0.6144 -0.3306 -0.2171
69480SOL    HW120165   5.924   0.910  11.039  0.0625 -0.7637 -0.5496
69480SOL    HW220166   5.952   1.057  11.017  1.8573 -1.0550 -0.4015
69481SOL     OW20167   1.175  10.392   5.854  0.4044  0.5868 -0.1626
69481SOL    HW120168   1.117  10.396   5.778 -1.1110  0.7629  0.9797
69481SOL    HW220169   1.237  10.463   5.840 -0.2974  1.0783 -0.8772
69482SOL     OW20170   4.406   8.809  13.265  0.0034 -0.1980  0.1648
69482SOL    HW120171   4.487   8.860  13.264 -1.3863  2.1811 -0.8687
69482SOL    HW220172   4.348   8.859  13.323 -1.5981 -0.2866 -1.2831
69483SOL     OW20173   6.444  11.395   3.635  0.3981  0.3106 -0.0144
69483SOL    HW120174   6.512  11.424   3.574 -0.2167  0.4700 -0.6351
69483SOL    HW220175   6.363  11.429   3.598 -0.1481 -0.7742  0.1367
69484SOL     OW20176  11.274   3.369   4.328 -0.3391  0.7477  0.2283
69484SOL    HW120177  11.258   3.389   4.420 -1.9642 -1.9833  0.6410
69484SOL    HW220178  11.228   3.438   4.280  0.6872  2.3137  1.3692
69485SOL     OW20179  10.723   0.286   4.572  0.8071  0.4906 -0.0295
69485SOL    HW120180  10.681   0.250   4.650  3.1345 -2.8725 -0.1181
69485SOL    HW220181  10.817   0.275   4.587  1.6811  4.3786 -1.3132
69486SOL     OW20182  10.136   2.453   1.170  0.4023 -0.3626  0.3769
69486SOL    HW120183  10.165   2.519   1.232  1.3791  0.8711 -1.3118
69486SOL    HW220184  10.213   2.432   1.118 -0.4528 -1.0896 -0.6580
69487SOL     OW20185   9.117   8.814   4.275 -0.1052 -0.2083 -0.2969
69487SOL    HW120186   9.149   8.727   4.298 -2.0728 -0.8128  0.3835
69487SOL    HW220187   9.037   8.797   4.224 -0.1554  1.2059 -0.7194
69488SOL     OW20188   4.591   6.021   8.973  0.8048  0.4355  0.2285
69488SOL    HW120189   4.606   5.948   8.913  1.9020  1.4946 -0.8418
69488SOL    HW220190   4.639   6.094   8.934 -2.4142  2.4930 -0.2593
69489SOL     OW20191   0.691   9.557   0.901  0.1029  0.2185  0.1381
69489SOL    HW120192   0.697   9.506   0.820 -0.9518  1.3642 -0.6923
69489SOL    HW220193   0.781   9.582   0.920  0.5367 -1.2263  0.1030
69490SOL     OW20194  10.353  10.852  12.711 -0.7199  0.3975 -0.2261
69490SOL    HW120195  10.306  10.879  12.632 -2.5362  1.3928  1.1392
69490SOL    HW220196  10.287  10.852  12.780  0.9741  0.2827  1.4698
69491SOL     OW20197   6.241   5.395  11.813  0.4327 -0.1310  0.0225
69491SOL    HW120198   6.231   5.310  11.855 -0.5820  0.6242  1.4279
69491SOL    HW220199   6.335   5.404  11.798  0.6552 -1.1055  0.7286
69492SOL     OW20200   1.874   0.715  12.717 -0.7558 -1.1832  0.0853
69492SOL    HW120201   1.820   0.638  12.701 -0.2963 -1.8860  1.7279
69492SOL    HW220202   1.848   0.777  12.648 -0.4560 -3.1069 -1.8454
69493SOL     OW20203  12.404   3.638   6.958  0.1919 -0.2015 -0.2274
69493SOL    HW120204  12.443   3.688   7.029  0.4658 -1.2366  0.3783
69493SOL    HW220205  12.477   3.614   6.902  0.3603 -1.5060  0.5068
69494SOL     OW20206   8.065  13.162   0.482 -0.5652 -0.1713 -0.4022
69494SOL    HW120207   8.059  13.117   0.398  3.4929  1.3007 -1.7353
69494SOL    HW220208   8.036  13.252   0.463  0.4937  0.2020 -0.3410
69495SOL     OW20209   7.016   9.495  10.285 -0.1666 -0.4460 -0.3390
69495SOL    HW120210   7.091   9.515  10.341  0.6949 -1.9210 -0.9029
69495SOL    HW220211   6.943   9.544  10.323  0.7418 -0.1684  1.1030
69496SOL     OW20212   1.436   1.676  10.842  0.6092  0.0389  0.2511
69496SOL    HW120213   1.361   1.663  10.899 -1.3103  0.7999 -1.9639
69496SOL    HW220214   1.448   1.771  10.839  2.3972 -0.0948  1.3926
69497SOL     OW20215  11.099   0.760   3.029  0.3613  0.0023 -0.8580
69497SOL    HW120216  11.038   0.714   3.087 -0.8725  1.8840 -0.5825
69497SOL    HW220217  11.186   0.730   3.057 -0.3452 -1.4617 -0.1298
69498SOL     OW20218   1.812  10.954   9.096  0.0766 -0.1241 -0.1928
69498SOL    HW120219   1.830  10.860   9.091  0.5968 -0.0392  0.0231
69498SOL    HW220220   1.888  10.990   9.141  0.1110  0.4694 -0.7099
69499SOL     OW20221  11.744   9.272   8.146 -0.2279  0.1630 -0.0004
69499SOL    HW120222  11.745   9.352   8.199  0.5094 -0.5587  1.0972
69499SOL    HW220223  11.667   9.224   8.177  0.7813 -0.7355  1.1530
69500SOL     OW20224   3.802   4.140   8.523  0.0644  0.0247  0.0800
69500SOL    HW120225   3.795   4.188   8.440  2.6874 -0.1594 -0.3306
69500SOL    HW220226   3.715   4.149   8.563 -0.5995  2.0559 -1.6161
69501SOL     OW20227   0.332   1.723   7.192  0.0284  0.0963  0.1545
69501SOL    HW120228   0.331   1.816   7.216  0.5434 -0.0996  0.9330
69501SOL    HW220229   0.242   1.706   7.163  0.0214  0.9243 -0.3626
69502SOL     OW20230  11.752   5.534   0.699  0.4504 -0.1677  0.3813
69502SOL    HW120231  11.710   5.522   0.614 -1.9227  1.4502  1.2063
69502SOL    HW220232  11.727   5.457   0.750 -0.4303  0.1280  0.4211
69503SOL     OW20233  13.392   6.357   4.864  0.0349 -0.0146  0.1048
69503SOL    HW120234  13.436   6.283   4.821  0.6294  0.3877  0.0039
69503SOL    HW220235  13.464   6.412   4.895 -0.3385 -0.4786  1.9833
69504SOL     OW20236   8.732   4.316  10.578  0.3943 -0.1122  0.1073
69504SOL    HW120237   8.664   4.384  10.578  0.3062 -0.1424 -1.6516
69504SOL    HW220238   8.683   4.234  10.577  0.4367 -0.1348 -1.1244
69505SOL     OW20239   9.832  10.643   0.872 -0.3879 -0.8429 -0.5462
69505SOL    HW120240   9.862  10.577   0.935 -0.2477  0.6311  0.9868
69505SOL    HW220241   9.908  10.655   0.814 -0.6509 -2.4918 -1.3055
69506SOL     OW20242   2.799  12.990   9.677 -0.0697  1.0229  0.0946
69506SOL    HW120243   2.849  12.930   9.731  1.7035  1.9216 -0.4399
69506SOL    HW220244   2.750  12.934   9.617  0.6126  0.0856  0.3917
69507SOL     OW20245   1.997   2.056  13.094  0.8772 -0.6477  0.0724
69507SOL    HW120246   1.939   1.980  13.086  2.3070 -1.8378  0.6615
69507SOL    HW220247   2.015   2.063  13.187  0.9708  0.2831 -0.0018
69508SOL     OW20248  10.189  10.765   1.179  0.4098 -0.5419 -0.2944
69508SOL    HW120249  10.134  10.828   1.225 -0.7564  0.2580 -2.6322
69508SOL    HW220250  10.207  10.697   1.244  2.3117  2.4090  2.5691
69509SOL     OW20251  10.105   3.264   5.687 -0.0848 -0.2010 -0.0043
69509SOL    HW120252  10.117   3.346   5.735 -0.5988  1.0280 -1.8330
69509SOL    HW220253  10.173   3.266   5.619 -0.4965 -0.9775 -0.4550
69510SOL     OW20254  12.634  11.373   6.067 -0.0163 -0.6558 -0.4378
69510SOL    HW120255  12.609  11.377   5.974  0.3746  2.6504 -0.4904
69510SOL    HW220256  12.556  11.400   6.115  0.9945  1.9709 -0.1422
69511SOL     OW20257  11.151   1.747  13.362 -0.1219 -0.2074 -0.0980
69511SOL    HW120258  11.092   1.672  13.368  0.3454 -0.5946 -0.2226
69511SOL    HW220259  11.157   1.779  13.452  1.1974 -1.5401  0.3435
69512SOL     OW20260  13.389   0.567   5.260 -0.4904  0.6689 -0.3532
69512SOL    HW120261  13.355   0.571   5.170 -0.1983  0.1824 -0.4898
69512SOL    HW220262  13.312   0.551   5.314 -0.3686 -1.8612 -0.7903
69513SOL     OW20263   0.612  12.308  12.988 -0.0388 -0.1344  0.4604
69513SOL    HW120264   0.664  12.338  12.913  0.4031  1.6919  1.4390
69513SOL    HW220265   0.559  12.237  12.953  0.8605  0.0234 -1.3459
69514SOL     OW20266   6.054   4.476   3.231  0.1715  0.3172  1.0247
69514SOL    HW120267   6.034   4.490   3.324 -0.1417  2.2068  0.7159
69514SOL    HW220268   6.048   4.564   3.192 -1.0456 -0.6118 -1.0434
69515SOL     OW20269   3.655   8.986   2.153 -0.2581 -0.3541  0.3581
69515SOL    HW120270   3.574   9.018   2.194 -1.8160  0.1067 -2.7494
69515SOL    HW220271   3.644   8.891   2.149 -0.6060 -0.3062  0.0877
69516SOL     OW20272   3.617  13.382   9.819  0.1122 -0.2982  0.4240
69516SOL    HW120273   3.534  13.347   9.849  0.3805 -1.7381 -0.4091
69516SOL    HW220274   3.618  13.473   9.848 -1.5457 -0.3940  0.8238
69517SOL     OW20275  10.024   3.408  11.997 -0.4143 -0.1497 -0.1333
69517SOL    HW120276  10.064   3.456  11.925 -1.7241  0.3205 -0.5796
69517SOL    HW220277  10.096   3.360  12.037  0.6528  0.9339 -0.6754
69518SOL     OW20278  10.333   1.028  10.198  0.2552  0.1539 -1.0878
69518SOL    HW120279  10.251   1.022  10.148 -0.6146  0.0150  0.2713
69518SOL    HW220280  10.304   1.049  10.287  1.7911  1.1378 -0.7980
69519SOL     OW20281  12.165  11.412   5.762  0.1739  0.1020 -0.1601
69519SOL    HW120282  12.126  11.401   5.848  0.5093  0.8089  0.0971
69519SOL    HW220283  12.109  11.362   5.703 -0.7854  0.6140  0.2859
69520SOL     OW20284  13.373   2.704   5.716 -0.1088  0.2508  0.2267
69520SOL    HW120285  13.320   2.626   5.733  0.1022 -0.0438 -0.4082
69520SOL    HW220286  13.312   2.766   5.675 -1.0014  1.5361  3.2067
69521SOL     OW20287   8.092  12.832   6.614 -0.0918 -1.0987 -0.0654
69521SOL    HW120288   8.052  12.868   6.535 -0.3918 -1.3717 -0.0384
69521SOL    HW220289   8.143  12.905   6.650 -0.9278 -0.6052  0.1478
69522SOL     OW20290   4.373  13.739  10.438  0.1686  0.0519 -0.7200
69522SOL    HW120291   4.391  13.770  10.527  0.7149 -2.1311 -0.0026
69522SOL    HW220292   4.308  13.669  10.450 -1.2830  1.0813 -2.2809
69523SOL     OW20293   1.124   7.644   4.257  0.4829  0.0595  0.2100
69523SOL    HW120294   1.126   7.702   4.333 -0.3364 -1.0552  1.1176
69523SOL    HW220295   1.143   7.557   4.293  0.8023 -0.3827 -0.9786
69524SOL     OW20296   0.072   3.074   0.335 -0.6852 -0.6735 -0.1298
69524SOL    HW120297   0.087   3.160   0.374 -0.7921 -1.7747  2.5321
69524SOL    HW220298   0.011   3.091   0.263 -0.9762  1.4295  0.5384
69525SOL     OW20299   7.411   3.755  12.237 -0.0826 -0.3308  0.6336
69525SOL    HW120300   7.476   3.703  12.189 -2.1193 -1.4342 -1.0560
69525SOL    HW220301   7.404   3.837  12.188 -0.1566 -0.3044  0.6879
69526SOL     OW20302   9.086   0.077   3.565 -0.6180 -0.0230  0.1715
69526SOL    HW120303   9.105   0.114   3.652  0.9721 -0.9930  0.2882
69526SOL    HW220304   9.153   0.115   3.508 -1.6434  0.5935 -0.6406
69527SOL     OW20305   7.162   0.550   0.849  0.7692 -0.9071 -0.8097
69527SOL    HW120306   7.127   0.466   0.878  2.9244 -1.2659  1.0598
69527SOL    HW220307   7.257   0.539   0.854  1.1297  1.3029 -1.6361
69528SOL     OW20308   3.193   1.357   5.405  0.0371 -0.2011  0.5248
69528SOL    HW120309   3.269   1.304   5.380 -0.0683 -0.1668  0.1236
69528SOL    HW220310   3.227   1.446   5.408 -0.2332 -0.0421 -0.7451
69529SOL     OW20311  12.113   6.595  12.387 -0.3349 -0.0240 -0.4575
69529SOL    HW120312  12.165   6.517  12.370 -1.0012 -0.5805 -0.0096
69529SOL    HW220313  12.177   6.660  12.418  0.4448  0.1051 -2.2476
69530SOL     OW20314   7.168   2.493   5.546 -0.6177 -0.1888 -0.0650
69530SOL    HW120315   7.235   2.555   5.574  0.0808 -0.3826 -1.2872
69530SOL    HW220316   7.096   2.548   5.515  0.4208  0.0759 -2.1762
69531SOL     OW20317   9.657  12.762  10.251 -0.5664  0.1795  0.4716
69531SOL    HW120318   9.683  12.680  10.209  0.2020 -0.2609  1.7548
69531SOL    HW220319   9.570  12.780  10.215 -0.0724 -0.3042 -1.0768
69532SOL     OW20320   7.144   8.461   6.293  0.4499 -0.1362  0.1171
69532SOL    HW120321   7.193   8.399   6.238 -0.1507 -2.0065  1.5871
69532SOL    HW220322   7.054   8.456   6.261  0.1581 -1.0015  1.0289
69533SOL     OW20323  10.343   8.032   8.303 -0.2652  0.7494  0.1520
69533SOL    HW120324  10.402   8.069   8.369  0.6739 -1.5232  0.6494
69533SOL    HW220325  10.323   7.944   8.335 -0.0622 -0.3003 -2.4154
69534SOL     OW20326   3.028   2.023   6.929  0.1520 -0.0872  0.0089
69534SOL    HW120327   3.036   1.931   6.954 -1.0276  0.0952  1.1471
69534SOL    HW220328   2.973   2.062   6.997 -3.1068  0.5039 -2.6693
69535SOL     OW20329  12.900  13.344  10.842  0.1471 -0.4553 -0.3784
69535SOL    HW120330  12.880  13.258  10.804  0.0865 -0.3750 -0.5229
69535SOL    HW220331  12.875  13.335  10.934  0.8553 -0.8431 -0.2150
69536SOL     OW20332  13.488   3.592   4.806  0.0671  0.2088  0.2898
69536SOL    HW120333  13.513   3.623   4.718  0.1634  0.5301  0.4280
69536SOL    HW220334  13.418   3.529   4.791  1.8624 -1.8155 -0.2480
69537SOL     OW20335  10.415   1.425   0.677 -0.8550  0.2752 -0.5175
69537SOL    HW120336  10.473   1.348   0.685 -0.6800  0.1898 -2.1083
69537SOL    HW220337  10.392   1.426   0.584  0.2814  2.9525 -0.8569
69538SOL     OW20338   9.680   0.467  11.225 -0.0215  0.0832 -0.8083
69538SOL    HW120339   9.649   0.387  11.267 -0.1556 -0.0368 -1.1345
69538SOL    HW220340   9.600   0.515  11.202  0.0540  1.0288  0.7360
69539SOL     OW20341   0.275   5.374  11.146 -0.5600 -0.4936  0.0975
69539SOL    HW120342   0.194   5.335  11.181  0.9803 -1.0983  3.2737
69539SOL    HW220343   0.340   5.304  11.152  0.6315  0.4808 -0.8725
69540SOL     OW20344  12.103   8.998   8.656 -0.3337  0.1369  0.0858
69540SOL    HW120345  12.151   9.002   8.574 -0.4708  2.2784  0.0462
69540SOL    HW220346  12.171   8.989   8.723 -0.2381 -1.9402 -0.2190
69541SOL     OW20347   7.147  12.899  10.932  0.1600 -0.5994 -0.2941
69541SOL    HW120348   7.112  12.811  10.916  0.3245 -0.6691 -0.2722
69541SOL    HW220349   7.206  12.888  11.006  1.2196 -0.7320 -1.1458
69542SOL     OW20350   8.264   9.069   7.970  0.1164  0.0289  0.8026
69542SOL    HW120351   8.220   9.137   8.020 -3.2289 -1.2818 -0.0668
69542SOL    HW220352   8.296   9.007   8.036  1.2698  1.2956  1.4851
69543SOL     OW20353   2.962   8.453   8.472  0.1972 -0.8731  0.2202
69543SOL    HW120354   2.971   8.434   8.379  2.1765 -0.0990  0.1971
69543SOL    HW220355   2.927   8.542   8.476  0.6936 -0.6696  0.1810
69544SOL     OW20356   2.404   0.237   8.313  0.4253  0.1315  0.1815
69544SOL    HW120357   2.427   0.153   8.354  4.5561  0.4477 -1.0534
69544SOL    HW220358   2.413   0.221   8.219 -1.4620  1.3481 -0.2579
69545SOL     OW20359   0.487   4.211   1.470  0.3325  0.6592  0.1072
69545SOL    HW120360   0.540   4.153   1.415  1.1014  0.2033  1.2808
69545SOL    HW220361   0.398   4.200   1.438  0.2981 -1.9163  0.8596
69546SOL     OW20362   1.598   5.535   7.469 -0.3531  0.0061 -0.1240
69546SOL    HW120363   1.661   5.467   7.493  1.5300  1.0514 -1.8089
69546SOL    HW220364   1.641   5.617   7.494 -1.9266  0.6711  0.4984
69547SOL     OW20365   3.177  13.274   6.636  0.5364  0.5092  0.0824
69547SOL    HW120366   3.139  13.190   6.664 -1.0675  0.6545 -1.4540
69547SOL    HW220367   3.271  13.264   6.653 -0.0621  0.0679  3.9154
69548SOL     OW20368  11.241   3.297  13.211  0.3494 -0.3998 -0.0711
69548SOL    HW120369  11.297   3.290  13.288  0.7860  0.0955 -0.3396
69548SOL    HW220370  11.285   3.360  13.154  0.4284 -1.3416 -1.0783
69549SOL     OW20371   0.015   9.764   9.117 -0.3299  0.2150 -0.5141
69549SOL    HW120372  -0.063   9.779   9.171 -0.2255 -0.6711 -0.0988
69549SOL    HW220373   0.061   9.848   9.116 -1.7777  1.0432 -1.5780
69550SOL     OW20374  12.537  13.726   4.840 -0.4909 -0.3649 -0.2800
69550SOL    HW120375  12.583  13.651   4.878  0.0219  0.3075  0.4701
69550SOL    HW220376  12.576  13.737   4.754  0.6350  0.0622  0.2606
69551SOL     OW20377   8.847   6.957  11.580 -0.6369  0.3673 -0.1196
69551SOL    HW120378   8.883   7.005  11.654 -0.7861  0.2190  0.0512
69551SOL    HW220379   8.752   6.956  11.596 -0.9381  2.2512 -1.4479
69552SOL     OW20380   2.858   3.813   7.464  0.5967 -0.0911 -0.3607
69552SOL    HW120381   2.788   3.844   7.407  0.2773 -0.1219  0.0097
69552SOL    HW220382   2.813   3.776   7.539  1.0096 -0.2427 -0.1835
69553SOL     OW20383  11.138   0.300   9.299  0.6640 -0.3948  0.2768
69553SOL    HW120384  11.202   0.235   9.330 -1.1319 -1.9279  1.0484
69553SOL    HW220385  11.081   0.314   9.375 -0.0737  0.6893 -0.4588
69554SOL     OW20386  10.679   9.130  11.949 -0.5417  0.4074 -0.2143
69554SOL    HW120387  10.710   9.179  11.873  0.8771 -0.7967 -0.4643
69554SOL    HW220388  10.587   9.157  11.959 -0.4118  1.4958 -1.6001
69555SOL     OW20389  12.993   5.177   1.994  0.2788  0.3909  0.1041
69555SOL    HW120390  12.973   5.154   2.085  1.2651 -1.3486 -0.0752
69555SOL    HW220391  13.032   5.098   1.957  2.0788  1.7926 -1.1764
69556SOL     OW20392   9.987   9.045   0.829 -0.4113  0.0706  0.2132
69556SOL    HW120393  10.028   8.977   0.882 -1.3116 -0.9090 -0.3201
69556SOL    HW220394  10.048   9.059   0.756  2.4057  3.5961  2.8752
69557SOL     OW20395   4.322   0.968   3.219  0.0134 -0.0051 -0.4005
69557SOL    HW120396   4.302   0.926   3.303 -1.1986 -0.0098 -0.6700
69557SOL    HW220397   4.401   1.019   3.235 -0.6018  0.5486  0.9282
69558SOL     OW20398   2.261   9.866   8.215 -0.1770  0.4473 -0.3569
69558SOL    HW120399   2.224   9.928   8.152 -0.0138  0.1197 -0.7868
69558SOL    HW220400   2.200   9.792   8.214 -1.3570  1.3396  1.5050
69559SOL     OW20401   7.920   2.369   5.533 -0.5556  0.5814 -0.5422
69559SOL    HW120402   7.966   2.346   5.453  1.4999 -2.6222  1.3176
69559SOL    HW220403   7.981   2.427   5.580 -0.0341 -0.5984  0.2787
69560SOL     OW20404   6.902  13.569   5.625  0.1357 -0.1138 -0.1184
69560SOL    HW120405   6.913  13.664   5.623 -0.4752  0.0607  2.0146
69560SOL    HW220406   6.819  13.556   5.671  1.1433 -1.7022  1.3273
69561SOL     OW20407  13.628  11.700  11.200 -0.6260 -0.3511 -0.1186
69561SOL    HW120408  13.661  11.630  11.255 -0.0988 -0.5463 -0.6700
69561SOL    HW220409  13.533  11.688  11.199 -0.4044 -2.5665 -2.1758
69562SOL     OW20410  11.017   4.082  10.937  0.1585 -0.3611  0.5696
69562SOL    HW120411  10.990   4.033  10.860 -0.0512  1.5661 -0.6309
69562SOL    HW220412  11.062   4.017  10.992  0.2481 -1.7868 -1.1133
69563SOL     OW20413   6.438   3.269   6.491 -0.4012  0.1865  0.4541
69563SOL    HW120414   6.499   3.337   6.519  0.4270  0.0540 -0.9419
69563SOL    HW220415   6.367   3.318   6.449  1.2307  0.2170 -2.5503
69564SOL     OW20416   0.080   3.041   7.563 -0.3016  0.0238  0.4807
69564SOL    HW120417   0.027   2.967   7.592  0.3176 -1.0958 -1.0308
69564SOL    HW220418   0.025   3.118   7.576 -2.7367 -1.1464 -1.8265
69565SOL     OW20419   3.796   5.327  13.313  0.1054  0.1397 -0.1170
69565SOL    HW120420   3.807   5.353  13.405 -0.1481  0.2599 -0.1183
69565SOL    HW220421   3.824   5.236  13.310 -0.4460 -0.0494  0.2042
69566SOL     OW20422  10.068   6.513  13.348  0.0220  0.2011 -0.0075
69566SOL    HW120423   9.976   6.540  13.338  0.3889  1.0537 -1.2619
69566SOL    HW220424  10.097   6.493  13.259  1.4359  1.2177  0.1899
69567SOL     OW20425  12.201  11.939   7.405  0.4983 -0.3529  0.4363
69567SOL    HW120426  12.278  11.892   7.372  0.9136  1.0203 -0.6566
69567SOL    HW220427  12.128  11.905   7.355  0.7496 -0.0774 -0.1253
69568SOL     OW20428   2.457   5.626  13.167 -0.6438  0.0420  0.3994
69568SOL    HW120429   2.522   5.567  13.206 -0.7299 -0.2451  0.1063
69568SOL    HW220430   2.408   5.572  13.105  1.8740  1.2322 -2.9252
69569SOL     OW20431  11.288   6.298   0.483  0.2884 -0.0032 -0.2972
69569SOL    HW120432  11.274   6.307   0.389 -0.5679 -0.9840 -0.2786
69569SOL    HW220433  11.275   6.386   0.518 -1.1954  0.0310 -0.8772
69570SOL     OW20434   1.885  11.599   9.341 -0.3094 -0.1298  0.0374
69570SOL    HW120435   1.933  11.644   9.411 -1.8940 -0.0154  1.1086
69570SOL    HW220436   1.932  11.623   9.261  1.5771 -0.2812  1.0318
69571SOL     OW20437   4.142   7.501   9.108  0.3632  0.2902 -0.5824
69571SOL    HW120438   4.229   7.481   9.074  0.8709  2.3300 -0.5886
69571SOL    HW220439   4.117   7.582   9.064 -0.5570  0.9743  1.1328
69572SOL     OW20440   6.239  12.742   4.708 -0.1284  0.3079 -0.3217
69572SOL    HW120441   6.205  12.720   4.622 -3.9188  2.4293  0.4183
69572SOL    HW220442   6.190  12.687   4.769  0.9945  0.3125  0.6313
69573SOL     OW20443   4.144   5.952   4.906  0.7127 -0.2913 -0.3499
69573SOL    HW120444   4.157   6.045   4.890  0.1103 -0.3576 -1.2650
69573SOL    HW220445   4.120   5.916   4.821  3.6372 -1.7999 -0.6705
69574SOL     OW20446  12.262  13.444   6.183 -0.1627  0.3233  0.1556
69574SOL    HW120447  12.200  13.439   6.256 -0.6979  0.3247 -0.2899
69574SOL    HW220448  12.327  13.377   6.202 -2.7036 -2.9412 -1.5713
69575SOL     OW20449   2.166   9.639  10.248 -0.2649 -0.3483  0.4532
69575SOL    HW120450   2.183   9.557  10.202 -0.2653  0.0566 -0.2754
69575SOL    HW220451   2.229   9.639  10.320 -0.3823 -1.0646  0.5683
69576SOL     OW20452   9.682   9.274  11.677  0.9344  0.1571 -0.5725
69576SOL    HW120453   9.700   9.367  11.664 -0.1698  0.5614  0.5973
69576SOL    HW220454   9.677   9.263  11.772  0.8025 -1.0597 -0.6968
69577SOL     OW20455   4.310  11.347   1.645 -0.0328 -0.4270 -0.1150
69577SOL    HW120456   4.273  11.434   1.636  0.3335 -0.2480  0.0750
69577SOL    HW220457   4.250  11.301   1.704 -0.1987 -0.2895 -0.1758
69578SOL     OW20458   6.075  10.339   7.097  0.0571  0.3758 -0.0668
69578SOL    HW120459   6.024  10.281   7.040 -0.2455 -0.6526  1.2180
69578SOL    HW220460   6.037  10.425   7.083  0.3561  0.2548 -1.8369
69579SOL     OW20461   0.961   6.912   0.078 -0.4345 -0.3583  0.0947
69579SOL    HW120462   0.925   6.953   0.156  0.9299 -0.3937  0.7792
69579SOL    HW220463   0.958   6.818   0.095 -1.9993 -0.4985 -0.7704
69580SOL     OW20464   1.739   4.315   5.971  0.6553  0.9580 -0.2712
69580SOL    HW120465   1.834   4.312   5.984  0.4086  1.1962  1.9984
69580SOL    HW220466   1.717   4.230   5.934  1.6706  0.6585 -0.2122
69581SOL     OW20467   2.083  10.553   8.333  0.2924  0.1937 -0.3794
69581SOL    HW120468   2.120  10.597   8.257  0.4940 -1.9593 -1.6031
69581SOL    HW220469   2.159  10.529   8.387  0.3354 -0.2374 -0.6273
69582SOL     OW20470  12.153  12.143  12.885 -0.4380 -0.4611 -0.3078
69582SOL    HW120471  12.172  12.060  12.930  0.6075 -0.2955 -0.4194
69582SOL    HW220472  12.199  12.209  12.937  2.6832 -0.5063 -2.7481
69583SOL     OW20473  12.201  10.134  13.537  0.4066  0.3114  0.2500
69583SOL    HW120474  12.272  10.070  13.539  1.2181  1.2015  0.6664
69583SOL    HW220475  12.239  10.214  13.574 -0.2131  1.3884 -1.3025
69584SOL     OW20476   3.233   0.401   6.419 -0.1101 -0.0660  0.0307
69584SOL    HW120477   3.295   0.368   6.484 -0.7969  0.2595  0.8671
69584SOL    HW220478   3.269   0.486   6.392 -0.1514  0.0899  0.4605
69585SOL     OW20479   7.600  13.116   1.632 -0.0178  0.6346 -0.3734
69585SOL    HW120480   7.687  13.149   1.612  0.0604  1.1465  0.6967
69585SOL    HW220481   7.546  13.145   1.559  0.9503 -0.8906 -1.7542
69586SOL     OW20482   5.187   9.208   9.807  0.2027  0.1403  0.1662
69586SOL    HW120483   5.218   9.285   9.759  0.7353 -1.4947 -2.2675
69586SOL    HW220484   5.235   9.135   9.769 -1.9335 -1.6923  0.7879
69587SOL     OW20485   6.823  12.215   4.626  0.4338  0.3594  0.2400
69587SOL    HW120486   6.749  12.171   4.667  1.2914 -0.5402  0.8831
69587SOL    HW220487   6.858  12.151   4.564  1.5509  0.1803  1.0105
69588SOL     OW20488   6.070   8.561  12.698 -0.1683 -0.0165  0.0929
69588SOL    HW120489   5.975   8.564  12.689 -0.2219  2.5861  0.7853
69588SOL    HW220490   6.101   8.638  12.651  1.5931 -0.6728  0.1028
69589SOL     OW20491   1.536   3.153   1.618 -0.1275  0.9994  0.0259
69589SOL    HW120492   1.619   3.129   1.577 -0.5844  0.6415 -0.7097
69589SOL    HW220493   1.515   3.077   1.673  0.0135  1.0725  0.1805
69590SOL     OW20494   3.075  11.831   3.811 -1.0213  0.3213  0.0907
69590SOL    HW120495   3.003  11.858   3.753 -0.5576  0.3431 -0.4790
69590SOL    HW220496   3.066  11.735   3.817 -0.3412  0.1797 -1.0030
69591SOL     OW20497  10.734  10.002  13.083  0.2813  0.2159  0.1729
69591SOL    HW120498  10.715   9.938  13.014 -0.1073 -1.9257  2.1345
69591SOL    HW220499  10.829   9.999  13.093  0.3456  0.5802 -0.2763
69592SOL     OW20500  12.218   3.435   2.253  0.3893 -0.1098 -0.6412
69592SOL    HW120501  12.126   3.417   2.233 -0.4494  1.5126  1.4026
69592SOL    HW220502  12.248   3.487   2.178 -0.7305  0.3358 -0.8195
69593SOL     OW20503   0.531   4.808  10.983  0.2391 -0.1570  0.1257
69593SOL    HW120504   0.452   4.759  11.009  0.5641 -1.0031 -0.4285
69593SOL    HW220505   0.522   4.818  10.888  0.8292 -0.3027  0.0563
69594SOL     OW20506  11.533  13.593   5.091  0.2024  0.3599  0.3156
69594SOL    HW120507  11.626  13.582   5.073  0.0181  2.2660 -2.3121
69594SOL    HW220508  11.517  13.687   5.082 -2.3087 -0.1363 -1.4387
69595SOL     OW20509   4.107   3.620   8.124  0.7065 -0.1664 -0.5879
69595SOL    HW120510   4.143   3.703   8.156 -0.8894  0.4114 -0.1883
69595SOL    HW220511   4.120   3.560   8.197  0.0132  0.2875 -0.0805
69596SOL     OW20512   2.946  13.475  11.574  0.1818  0.5362  0.2443
69596SOL    HW120513   2.961  13.543  11.508 -1.1970  0.8955  0.2641
69596SOL    HW220514   3.033  13.457  11.610  0.9821  0.3064 -1.6742
69597SOL     OW20515   4.039   5.570   6.173 -0.4928 -0.6564  0.2214
69597SOL    HW120516   4.105   5.506   6.144 -0.7719 -0.6591 -0.4242
69597SOL    HW220517   3.991   5.524   6.242 -1.2275 -1.4752 -0.7940
69598SOL     OW20518  11.299   6.123   8.092  0.0054  0.0657  0.4020
69598SOL    HW120519  11.357   6.108   8.017  0.3468  0.3480  0.6068
69598SOL    HW220520  11.344   6.190   8.143 -0.0377 -0.4115  1.0687
69599SOL     OW20521   4.763   4.091   0.557  0.8068 -0.0373  0.1546
69599SOL    HW120522   4.668   4.075   0.551  0.6689  0.3917  0.9953
69599SOL    HW220523   4.770   4.187   0.561  1.0519 -0.0857  2.8649
69600SOL     OW20524   0.352  13.666  10.483  0.3685 -0.2666 -0.4939
69600SOL    HW120525   0.348  13.760  10.467 -1.7051  0.4337  3.0361
69600SOL    HW220526   0.431  13.653  10.534 -0.7062  0.1336  1.3741
69601SOL     OW20527   3.912   0.929   8.492  0.4314  0.2823  0.0435
69601SOL    HW120528   3.946   0.962   8.575 -0.4803  0.2536  0.4397
69601SOL    HW220529   3.825   0.969   8.484  0.8912  1.0804 -1.3848
69602SOL     OW20530  12.584   8.614   9.637 -0.1181  0.8529  0.6937
69602SOL    HW120531  12.638   8.692   9.638  0.3893  0.5163  0.0923
69602SOL    HW220532  12.623   8.556   9.702 -0.4417  1.0523  1.0755
69603SOL     OW20533  12.817   8.622   4.902  0.0961  0.2103  0.5188
69603SOL    HW120534  12.882   8.555   4.924 -0.1542 -0.1491  0.1843
69603SOL    HW220535  12.843   8.698   4.953  0.7384  0.0481  0.4360
69604SOL     OW20536   7.985   7.705   2.081 -0.1183  0.7956  0.3830
69604SOL    HW120537   7.972   7.757   2.161 -0.3697  0.0356  0.8575
69604SOL    HW220538   8.034   7.762   2.022 -1.2026  1.9047  0.5230
69605SOL     OW20539   4.908  12.833   3.814 -0.3055  0.3746  0.4011
69605SOL    HW120540   4.905  12.738   3.822 -1.5277  0.2354 -1.1283
69605SOL    HW220541   5.000  12.856   3.830  0.0579 -1.0870  0.5413
69606SOL     OW20542   1.602  10.751   5.187 -0.0033  0.0245  0.2881
69606SOL    HW120543   1.669  10.711   5.131 -0.2978  0.4273 -0.3698
69606SOL    HW220544   1.527  10.764   5.129  0.6145  3.0258 -0.0354
69607SOL     OW20545   7.369   8.708   0.667  0.3822  0.7371  0.0018
69607SOL    HW120546   7.372   8.646   0.595 -1.0645  0.5656  0.0451
69607SOL    HW220547   7.431   8.674   0.731  2.2077  1.2753 -1.4164
69608SOL     OW20548   3.407   8.486   7.729  0.2788  0.1481 -0.0939
69608SOL    HW120549   3.496   8.507   7.702  0.7915  0.6026  1.8045
69608SOL    HW220550   3.413   8.472   7.824 -1.3584 -1.4914 -0.1611
69609SOL     OW20551  11.944   3.296   0.732 -0.0635 -0.0506 -0.3851
69609SOL    HW120552  11.929   3.382   0.771 -1.5345 -0.5918  0.2954
69609SOL    HW220553  12.028   3.268   0.768  0.6168  1.2290 -0.8955
69610SOL     OW20554   6.897   9.965   6.139 -0.1526 -0.2043  0.1259
69610SOL    HW120555   6.897  10.060   6.150 -1.5007 -0.2239  0.4560
69610SOL    HW220556   6.843   9.950   6.061 -0.5384 -0.7312  0.4920
69611SOL     OW20557   2.535  11.590   8.682  0.6444  0.1592 -0.0041
69611SOL    HW120558   2.498  11.675   8.703  0.5689  0.2971 -0.6975
69611SOL    HW220559   2.490  11.529   8.741  0.2903  0.5131  0.0922
69612SOL     OW20560  10.705   3.651  12.158  0.2783 -0.0802 -0.2529
69612SOL    HW120561  10.678   3.662  12.250 -0.3125  1.2597 -0.5643
69612SOL    HW220562  10.798   3.673  12.159  0.0846  0.7694 -0.1052
69613SOL     OW20563   2.948   1.504  10.072  0.0574  0.1200  0.5210
69613SOL    HW120564   2.999   1.541  10.000  2.5663 -0.5887  1.8361
69613SOL    HW220565   2.857   1.528  10.052  0.9512  2.1289 -1.5207
69614SOL     OW20566  11.307   9.571   8.498  0.1675  0.2231  0.1706
69614SOL    HW120567  11.314   9.666   8.488 -1.8192  0.6351  1.9640
69614SOL    HW220568  11.366   9.550   8.571 -1.1405  0.4973  1.3546
69615SOL     OW20569   7.882   2.491   7.092  0.1126 -0.1747 -0.0731
69615SOL    HW120570   7.963   2.441   7.100  0.1334 -0.0795  0.2989
69615SOL    HW220571   7.837   2.479   7.175 -0.7719 -1.1268 -0.6627
69616SOL     OW20572   5.864   7.194  12.657 -0.0688 -0.0701 -0.2242
69616SOL    HW120573   5.863   7.215  12.564 -1.3325  0.6305 -0.0681
69616SOL    HW220574   5.856   7.098  12.660  0.1882 -0.1125 -0.8302
69617SOL     OW20575   8.895   5.096  11.662  0.2993  0.3017 -0.0133
69617SOL    HW120576   8.835   5.133  11.726 -0.7571 -2.7720  0.9636
69617SOL    HW220577   8.855   5.012  11.637  2.2090 -0.0157 -2.4158
69618SOL     OW20578   6.951   8.295   5.266 -0.8532 -0.1831  0.2962
69618SOL    HW120579   6.965   8.389   5.257 -0.8668 -0.0302  1.6608
69618SOL    HW220580   6.875   8.287   5.323 -0.1873 -1.0101  1.0925
69619SOL     OW20581  10.987   0.896   4.329 -0.1599 -0.1347  0.0812
69619SOL    HW120582  10.998   0.837   4.404  0.2196  1.5234  1.3997
69619SOL    HW220583  10.925   0.962   4.360  1.4512  1.6831 -0.3409
69620SOL     OW20584   2.426   7.092   9.254  0.1262  0.4627 -0.4740
69620SOL    HW120585   2.512   7.109   9.292 -0.1666  3.4376 -0.8915
69620SOL    HW220586   2.445   7.056   9.167  0.9689  1.0948 -0.5670
69621SOL     OW20587   0.634  12.947  13.685 -0.4540  0.2824 -0.1295
69621SOL    HW120588   0.609  12.903  13.766  1.5630 -1.4470 -0.3474
69621SOL    HW220589   0.697  13.014  13.713 -1.3059  1.0885 -0.0972
69622SOL     OW20590   5.116   1.132  10.406 -0.0714  0.5434 -0.1472
69622SOL    HW120591   5.160   1.084  10.336 -0.5685 -3.3542  1.9223
69622SOL    HW220592   5.034   1.161  10.367  0.2365 -0.3899 -1.5684
69623SOL     OW20593  11.214   5.622   3.516  0.1881  0.1050  0.0636
69623SOL    HW120594  11.250   5.535   3.500  1.1368  0.2995  1.0313
69623SOL    HW220595  11.125   5.605   3.548  1.5028 -0.8210  3.8506
69624SOL     OW20596   2.605   8.197   5.672 -0.4272  0.0593 -0.3591
69624SOL    HW120597   2.684   8.180   5.724 -0.1357  0.5478 -0.6310
69624SOL    HW220598   2.552   8.118   5.682 -0.4126  0.1743  0.7522
69625SOL     OW20599   0.295   6.755  10.952 -0.7591 -0.5027 -0.2201
69625SOL    HW120600   0.294   6.717  11.040 -1.6748 -0.6382 -0.2799
69625SOL    HW220601   0.215   6.723  10.911 -0.5167 -0.1530 -0.9860
69626SOL     OW20602   0.304  12.332  10.290 -0.1692 -0.7580 -0.7349
69626SOL    HW120603   0.380  12.336  10.348 -2.0972  1.9487  1.9270
69626SOL    HW220604   0.332  12.382  10.212  1.4734 -1.8944 -0.9472
69627SOL     OW20605   0.205   5.689   2.338 -0.1198 -0.0748 -0.4072
69627SOL    HW120606   0.282   5.657   2.386 -1.7598 -2.2082  1.0298
69627SOL    HW220607   0.207   5.784   2.350  1.3470 -0.2461  1.1145
69628SOL     OW20608   9.126  12.753   8.518 -0.2230 -0.5093  0.2775
69628SOL    HW120609   9.062  12.825   8.512  0.5837  0.2632  0.7668
69628SOL    HW220610   9.079  12.683   8.563 -1.0950 -0.3908 -0.4055
69629SOL     OW20611   3.870  10.583   4.508 -0.3753 -0.5408 -0.5488
69629SOL    HW120612   3.801  10.611   4.568  0.6774 -0.3494  0.6123
69629SOL    HW220613   3.924  10.524   4.561  0.4885 -0.4882 -1.3667
69630SOL     OW20614  10.521  10.550   6.409 -0.2829 -0.3992  0.1699
69630SOL    HW120615  10.440  10.499   6.413 -0.2036 -0.6270 -0.7935
69630SOL    HW220616  10.591  10.484   6.410 -0.1960 -0.4197 -1.9186
69631SOL     OW20617   0.033  11.439   4.519 -0.2219  0.3888  0.2817
69631SOL    HW120618   0.127  11.426   4.536 -0.6228  0.1790  2.8303
69631SOL    HW220619  -0.010  11.375   4.577 -1.9472  0.4913 -0.8287
69632SOL     OW20620   7.478   7.323   6.199  0.0483 -0.3237  0.4462
69632SOL    HW120621   7.507   7.238   6.233 -0.3364 -0.3700  0.6588
69632SOL    HW220622   7.473   7.310   6.104  0.1873 -0.4778  0.4582
69633SOL     OW20623   3.578   7.893   6.320 -0.0562  0.2408  0.2568
69633SOL    HW120624   3.512   7.859   6.381 -0.3665  2.1649  1.0675
69633SOL    HW220625   3.636   7.946   6.374  2.5574 -1.8087 -0.3556
69634SOL     OW20626   8.646   4.732  13.486 -0.5283 -0.3190  0.1640
69634SOL    HW120627   8.682   4.779  13.561  0.2306  0.0510 -0.4158
69634SOL    HW220628   8.654   4.640  13.510 -1.0870 -0.1905  0.8871
69635SOL     OW20629   1.099   0.478  13.174  0.2073 -0.2486 -0.1247
69635SOL    HW120630   1.165   0.427  13.221  0.7000  1.0939  0.6834
69635SOL    HW220631   1.148   0.548  13.132 -0.8473  2.1761  2.3765
69636SOL     OW20632  11.027   5.461   7.356 -0.0690  0.3505  0.4355
69636SOL    HW120633  11.069   5.381   7.324 -0.5153 -0.2884  1.3778
69636SOL    HW220634  11.094   5.529   7.349  0.5670 -0.2811  0.3478
69637SOL     OW20635   5.211   5.734   7.242 -0.2344  0.3817  0.3682
69637SOL    HW120636   5.177   5.736   7.153  2.0065 -1.5022 -0.6386
69637SOL    HW220637   5.268   5.810   7.248  0.7775 -0.2940 -0.3695
69638SOL     OW20638   2.777  13.238   1.858  0.0978  0.0529 -0.1103
69638SOL    HW120639   2.708  13.264   1.920 -1.0598 -3.4922  0.3341
69638SOL    HW220640   2.844  13.197   1.912  0.3741 -0.6167 -0.9389
69639SOL     OW20641  12.701   8.485   0.217  0.6553 -0.1857 -0.0761
69639SOL    HW120642  12.741   8.503   0.302 -1.1513  0.6101  0.6574
69639SOL    HW220643  12.709   8.568   0.169 -1.7754  0.6949  0.8421
69640SOL     OW20644   9.971   7.135   0.359  0.2802 -0.3965 -0.4339
69640SOL    HW120645   9.945   7.043   0.360  2.2096 -0.9881 -0.3738
69640SOL    HW220646   9.903   7.180   0.410 -0.0042 -1.9938  0.6791
69641SOL     OW20647   2.005   4.563   0.889  0.4796  0.4791 -0.9267
69641SOL    HW120648   1.992   4.639   0.833 -0.1787  0.4579 -0.8095
69641SOL    HW220649   2.082   4.585   0.942  0.3027  1.0590 -0.9046
69642SOL     OW20650   1.913  12.927   5.223  0.3778 -0.5444 -0.3905
69642SOL    HW120651   1.825  12.962   5.213 -0.0185 -0.5708  2.1403
69642SOL    HW220652   1.962  12.997   5.266  0.7214 -1.5646  0.9573
69643SOL     OW20653  10.359   1.973  12.119  0.3658 -0.2044 -1.1014
69643SOL    HW120654  10.357   1.877  12.127 -1.5081 -0.2326 -1.4371
69643SOL    HW220655  10.334   2.004  12.205  0.2652 -0.0288 -1.1947
69644SOL     OW20656  12.710  13.246   6.868 -0.0939  0.2998 -0.4965
69644SOL    HW120657  12.729  13.296   6.947 -1.9549  0.5526 -0.1496
69644SOL    HW220658  12.795  13.213   6.839  1.1333  2.9689 -0.2937
69645SOL     OW20659   8.934   8.634  11.523 -0.2791  0.3574 -0.3607
69645SOL    HW120660   8.891   8.718  11.505 -0.8841  0.2752  0.6388
69645SOL    HW220661   8.871   8.569  11.491 -0.7643  0.2448  0.7882
69646SOL     OW20662   0.038  10.850   3.553  0.4294 -0.0853  0.4826
69646SOL    HW120663  -0.043  10.845   3.503 -0.6108  1.0816  1.9519
69646SOL    HW220664   0.106  10.819   3.493 -0.7986  0.8998 -1.5167
69647SOL     OW20665   5.973  10.214  13.567 -0.2116 -0.6893 -0.0077
69647SOL    HW120666   6.024  10.259  13.634 -3.4889  2.1877  0.8412
69647SOL    HW220667   5.907  10.165  13.616 -1.0917 -0.6118 -1.0687
69648SOL     OW20668   0.151   1.295   6.163  0.3579  0.0544 -0.2440
69648SOL    HW120669   0.190   1.360   6.222  1.3570  0.9044 -1.7915
69648SOL    HW220670   0.221   1.271   6.103 -0.9649  0.1844 -1.9157
69649SOL     OW20671   9.931   4.750   4.812 -0.3512 -0.5110  0.0037
69649SOL    HW120672   9.963   4.729   4.900  3.3426 -1.6326 -1.4123
69649SOL    HW220673   9.902   4.841   4.818  1.2188 -0.0691  2.0984
69650SOL     OW20674   3.741   2.570   4.699 -0.1645  0.0925  0.2625
69650SOL    HW120675   3.758   2.476   4.699  0.5132  0.2124  0.6734
69650SOL    HW220676   3.656   2.578   4.656 -0.6924 -0.7943  1.0996
69651SOL     OW20677  13.039   7.873  11.796  0.1010  0.1102 -0.6162
69651SOL    HW120678  13.100   7.851  11.866  1.5378 -0.9724 -2.1424
69651SOL    HW220679  13.074   7.953  11.757  0.2965 -0.2478 -1.1905
69652SOL     OW20680  12.925   0.803   2.893 -0.4762 -0.3340  0.1304
69652SOL    HW120681  12.880   0.763   2.967 -0.9381 -0.4547 -0.2093
69652SOL    HW220682  12.973   0.877   2.930 -1.2766  0.0404  0.4315
69653SOL     OW20683   9.244   1.469  10.659 -0.3800  0.3519 -0.3593
69653SOL    HW120684   9.158   1.489  10.622 -0.2000  0.0566 -0.9596
69653SOL    HW220685   9.263   1.380  10.627  0.9376  1.0835 -1.7629
69654SOL     OW20686  10.525  13.322   4.667  0.6686  0.0558 -0.4004
69654SOL    HW120687  10.574  13.386   4.719  0.4781  1.4537 -1.8399
69654SOL    HW220688  10.436  13.357   4.664  0.2058 -1.0578 -0.0063
69655SOL     OW20689   8.101   0.045   9.455 -0.5845 -0.4305  0.4129
69655SOL    HW120690   8.140   0.131   9.473  1.4305 -1.0025 -0.8306
69655SOL    HW220691   8.009   0.054   9.479 -0.3835  2.0128  0.4819
69656SOL     OW20692   5.102  12.991   9.163 -0.7763  0.0872 -0.3523
69656SOL    HW120693   5.047  12.927   9.208 -1.7758  1.3543  0.3206
69656SOL    HW220694   5.158  13.028   9.232  0.2177 -0.4688 -0.8422
69657SOL     OW20695  13.348   9.743   3.122  0.3200  0.6193  0.1757
69657SOL    HW120696  13.444   9.744   3.121  0.3225  0.4114  0.2991
69657SOL    HW220697  13.325   9.794   3.200  0.3211  1.2257 -0.2148
69658SOL     OW20698   3.469  13.001   2.050  0.5782 -0.5842  0.6677
69658SOL    HW120699   3.500  13.077   2.001 -0.6232  0.3060  1.2287
69658SOL    HW220700   3.388  13.030   2.090  0.7972 -1.7321  2.0339
69659SOL     OW20701   6.077  11.592  13.044 -0.4120 -0.2458  0.0526
69659SOL    HW120702   6.169  11.573  13.063 -0.3696 -1.1807 -0.9654
69659SOL    HW220703   6.040  11.508  13.016 -1.0678  0.4947 -1.4480
69660SOL     OW20704   1.455   0.534  12.052  0.1432  0.0048 -0.3516
69660SOL    HW120705   1.396   0.474  12.096  2.4101 -0.4464  2.3833
69660SOL    HW220706   1.442   0.618  12.097 -0.3391  0.6083 -1.5887
69661SOL     OW20707   2.433  12.128   7.054 -0.4898 -0.4977  0.2434
69661SOL    HW120708   2.499  12.096   7.115 -1.1937  1.4614  2.1493
69661SOL    HW220709   2.438  12.067   6.979  4.4443  0.3448 -0.4450
69662SOL     OW20710   8.946  11.131   3.670 -0.2406  0.2615  0.1398
69662SOL    HW120711   8.862  11.168   3.642 -0.5526 -1.0770 -0.7631
69662SOL    HW220712   9.010  11.197   3.645 -0.8158  0.3668 -1.1475
69663SOL     OW20713   7.549   2.256   3.388 -0.1833 -0.4176  0.1440
69663SOL    HW120714   7.568   2.298   3.472  1.3922  0.0790 -0.4221
69663SOL    HW220715   7.590   2.314   3.323  0.1365 -1.7003 -0.8298
69664SOL     OW20716   3.320   5.546   4.442 -0.1854 -0.4089 -0.0268
69664SOL    HW120717   3.301   5.466   4.491  0.2232 -0.2852  0.3372
69664SOL    HW220718   3.318   5.616   4.507 -0.6237 -0.1087 -0.3589
69665SOL     OW20719  12.425   5.402   2.330 -0.0878  0.6307  0.2737
69665SOL    HW120720  12.421   5.398   2.235 -1.5149 -0.2032  0.3418
69665SOL    HW220721  12.511   5.366   2.353  1.2249  2.9051 -0.7557
69666SOL     OW20722   8.615   8.401   0.719  0.5424  0.3006 -0.3346
69666SOL    HW120723   8.691   8.450   0.686  0.8300  0.1697  0.1181
69666SOL    HW220724   8.541   8.433   0.668  0.9986 -0.0001 -1.2055
69667SOL     OW20725   1.749  11.319   0.557  0.5660 -0.0673 -0.4910
69667SOL    HW120726   1.773  11.258   0.486  1.8315 -0.0689 -0.0920
69667SOL    HW220727   1.782  11.277   0.636  1.3026  1.0568 -0.1858
69668SOL     OW20728   0.934   3.424  11.426  0.1258  0.0494  0.2729
69668SOL    HW120729   0.914   3.341  11.470  0.3693  0.1488  0.5747
69668SOL    HW220730   1.015   3.454  11.468  0.8432 -0.2807 -0.8284
69669SOL     OW20731   8.092   2.202   1.427 -0.2519  0.8282 -0.2991
69669SOL    HW120732   8.110   2.286   1.386 -0.5432  0.3139 -1.5256
69669SOL    HW220733   7.998   2.204   1.447 -0.1138  1.0713  0.3539
69670SOL     OW20734  10.160  12.493   6.606  0.2156 -0.6914 -0.3829
69670SOL    HW120735  10.111  12.486   6.524 -0.7647 -0.0808  0.1384
69670SOL    HW220736  10.135  12.578   6.642 -0.8678 -1.7461  1.4939
69671SOL     OW20737  12.233   7.184   0.162 -0.3769  0.1782 -0.9839
69671SOL    HW120738  12.254   7.277   0.165 -1.7451  0.4777  0.5636
69671SOL    HW220739  12.143   7.180   0.130 -1.1688 -0.4107  1.1507
69672SOL     OW20740  12.414   3.552  13.488  0.0979  0.1312  0.0126
69672SOL    HW120741  12.464   3.501  13.552  0.9520  0.4171 -0.4172
69672SOL    HW220742  12.472   3.558  13.412 -0.7281  0.1820 -0.6197
69673SOL     OW20743   0.463  11.184  12.226  0.4013 -0.0864  0.0560
69673SOL    HW120744   0.553  11.184  12.260  1.0911 -0.1172 -1.6566
69673SOL    HW220745   0.426  11.100  12.256  0.2643  0.7271  2.3534
69674SOL     OW20746   0.947   1.020  11.668 -0.2161 -0.1615 -0.8294
69674SOL    HW120747   0.919   0.929  11.659 -0.8470 -0.1162  0.4848
69674SOL    HW220748   0.866   1.070  11.672  0.1349  0.5004 -1.8451
69675SOL     OW20749   4.564  10.723   4.798  0.1730  0.4885 -0.3947
69675SOL    HW120750   4.635  10.666   4.827 -0.4255  1.0015  2.3641
69675SOL    HW220751   4.484  10.673   4.814 -0.2253  1.0562 -0.5685
69676SOL     OW20752   7.467  12.336   7.786  0.2564 -0.4038 -0.4188
69676SOL    HW120753   7.521  12.411   7.759 -0.2522 -0.0210 -0.3846
69676SOL    HW220754   7.427  12.364   7.868 -0.5921 -0.3872 -0.8252
69677SOL     OW20755   9.849  12.584   3.184 -0.1113 -0.1640 -0.6940
69677SOL    HW120756   9.824  12.492   3.180 -0.8421 -0.0047 -0.0033
69677SOL    HW220757   9.898  12.599   3.103 -0.7235 -0.9362 -1.2201
69678SOL     OW20758   2.201  12.713   7.325  0.0716 -0.0444  0.0047
69678SOL    HW120759   2.226  12.725   7.234 -0.9418 -1.1201 -0.4344
69678SOL    HW220760   2.107  12.731   7.327  0.1568  0.3801  0.9225
69679SOL     OW20761   8.430   1.461  10.613  0.3298 -0.3484 -0.0102
69679SOL    HW120762   8.431   1.410  10.533  1.4510 -0.6808  0.2024
69679SOL    HW220763   8.370   1.414  10.671  0.3166 -0.6783 -0.2910
69680SOL     OW20764   2.234  12.910   0.886  0.1288 -0.0457  0.2717
69680SOL    HW120765   2.153  12.957   0.905  0.5878  0.6498  0.5645
69680SOL    HW220766   2.301  12.979   0.879  0.7291 -0.6197  0.2212
69681SOL     OW20767   7.798   8.350   7.193 -0.0599  0.0274 -0.2741
69681SOL    HW120768   7.804   8.383   7.283  1.2308  0.3808 -0.4763
69681SOL    HW220769   7.753   8.420   7.145 -1.3345 -0.4341  0.2108
69682SOL     OW20770  11.706   4.754   8.831  0.1666 -0.0311  0.1932
69682SOL    HW120771  11.651   4.796   8.765 -0.4847 -1.4571 -0.2115
69682SOL    HW220772  11.646   4.729   8.901  0.4809 -0.5577  0.2832
69683SOL     OW20773   9.177   3.050   0.792 -0.5977  0.3078 -0.3187
69683SOL    HW120774   9.208   3.112   0.858 -1.2692  2.4474 -1.8781
69683SOL    HW220775   9.143   2.976   0.842 -0.9385  1.7630  1.7184
69684SOL     OW20776  12.777   4.617  13.000  0.3727  0.2306 -0.3659
69684SOL    HW120777  12.850   4.629  12.939  0.3395  4.0742  0.0901
69684SOL    HW220778  12.701   4.600  12.944  0.6876  1.7284 -1.2920
69685SOL     OW20779  11.119   1.608   5.099 -0.4180  0.6149 -0.4175
69685SOL    HW120780  11.054   1.668   5.135 -1.8976 -0.9909 -0.3203
69685SOL    HW220781  11.136   1.641   5.011 -1.3842  1.0530 -0.4530
69686SOL     OW20782  10.584  11.462   3.291 -0.7298 -0.0320  0.1683
69686SOL    HW120783  10.501  11.452   3.338 -0.9267 -0.6435 -0.3004
69686SOL    HW220784  10.631  11.380   3.307 -1.2701 -0.7255 -1.5899
69687SOL     OW20785   0.449   3.590   9.911 -0.4801 -0.2334 -0.0579
69687SOL    HW120786   0.499   3.627   9.838 -1.2366 -0.4935 -0.7274
69687SOL    HW220787   0.501   3.610   9.988  0.0509  0.5779 -0.6046
69688SOL     OW20788   2.327   2.278   1.794 -0.4821  0.1328 -0.2440
69688SOL    HW120789   2.278   2.284   1.876  0.2481  1.8610  0.1080
69688SOL    HW220790   2.339   2.184   1.780 -1.8125 -0.2431  0.8894
69689SOL     OW20791   6.576   0.976   9.749 -0.0761 -0.3487 -0.1683
69689SOL    HW120792   6.533   1.042   9.694  1.9665  1.6992  0.5425
69689SOL    HW220793   6.576   0.897   9.695 -3.2284 -0.0606 -0.8013
69690SOL     OW20794  10.125   3.617   4.982  0.2384 -0.3794  0.3851
69690SOL    HW120795  10.138   3.544   5.042  1.5393  0.9080  1.7622
69690SOL    HW220796  10.212   3.657   4.973  0.0344 -0.3865 -2.2176
69691SOL     OW20797   8.776   1.664   4.416  0.3317 -0.3268 -0.3633
69691SOL    HW120798   8.784   1.704   4.329  1.4152  0.6729  0.1553
69691SOL    HW220799   8.771   1.570   4.399 -0.6379 -0.0843 -1.5534
69692SOL     OW20800   4.257   3.799  13.590 -0.2824 -0.5066 -0.1982
69692SOL    HW120801   4.249   3.710  13.555 -0.7479 -1.2168  1.5948
69692SOL    HW220802   4.167   3.827  13.605 -0.1302  0.2221 -0.5708
69693SOL     OW20803   8.290   2.254   2.084 -0.3478  0.8224 -0.1389
69693SOL    HW120804   8.361   2.235   2.022 -0.1357  1.3776 -0.0707
69693SOL    HW220805   8.243   2.327   2.044 -0.1041  1.3007  0.4425
69694SOL     OW20806   8.175  13.593   9.311 -0.2380  0.1183 -0.2002
69694SOL    HW120807   8.148  13.673   9.357 -1.8948 -1.6421  2.1323
69694SOL    HW220808   8.270  13.596   9.311 -0.2427  1.4000  1.1590
69695SOL     OW20809   5.508   7.568  11.373 -0.1028  0.2363 -0.4411
69695SOL    HW120810   5.442   7.524  11.319  1.1153 -0.8115 -1.1241
69695SOL    HW220811   5.516   7.655  11.334  0.0096 -0.1554 -1.3189
69696SOL     OW20812  10.131   9.193  13.690  0.4585 -0.4728  0.4861
69696SOL    HW120813  10.045   9.226  13.665 -0.2331 -2.5240  0.0121
69696SOL    HW220814  10.154   9.245  13.767 -1.5566 -0.3666  1.0926
69697SOL     OW20815   9.324   6.116   4.433 -0.7887 -0.2447 -0.5097
69697SOL    HW120816   9.357   6.091   4.346  0.1780 -0.2464 -0.1474
69697SOL    HW220817   9.255   6.181   4.414 -0.1568  0.2304 -1.2581
69698SOL     OW20818   6.565   2.559   8.967  0.2778  0.0447 -0.2993
69698SOL    HW120819   6.603   2.477   8.999  0.2509 -0.2404 -0.9675
69698SOL    HW220820   6.627   2.626   8.995  1.0670 -0.3671 -0.9723
69699SOL     OW20821   1.799   8.574   7.900  0.5144  0.2747 -0.3177
69699SOL    HW120822   1.832   8.663   7.913  0.3506  0.1495  1.0737
69699SOL    HW220823   1.824   8.552   7.810  1.2434  1.4255 -0.4134
69700SOL     OW20824  13.324   2.045   0.076  0.1213  0.0697 -0.8783
69700SOL    HW120825  13.348   1.952   0.085  0.3870  0.2639  1.0168
69700SOL    HW220826  13.270   2.048  -0.002  0.2202 -1.6717 -1.0709
69701SOL     OW20827   9.502   2.186   6.441  0.6221  0.2312  0.3617
69701SOL    HW120828   9.476   2.130   6.514 -0.2596 -1.0467 -0.8741
69701SOL    HW220829   9.593   2.162   6.423  1.1075  1.1065  1.4839
69702SOL     OW20830   3.726  12.191   3.858  0.0995 -0.7186  0.1546
69702SOL    HW120831   3.709  12.262   3.795 -1.2482 -1.5975 -0.5144
69702SOL    HW220832   3.683  12.115   3.820  1.5424 -1.9220  0.8584
69703SOL     OW20833   2.456   1.885  10.035  0.2613  0.0338 -0.2303
69703SOL    HW120834   2.492   1.948   9.974  2.8368  0.4061  1.5106
69703SOL    HW220835   2.481   1.918  10.122 -0.1590 -2.2392  0.8524
69704SOL     OW20836   4.234   8.418  12.601 -0.5494  0.1817  0.2506
69704SOL    HW120837   4.261   8.340  12.554  1.0269  1.1770 -0.5557
69704SOL    HW220838   4.166   8.457  12.546  0.0725  0.4227 -0.3590
69705SOL     OW20839   8.077   2.531   2.455 -0.1523 -0.6215 -0.3639
69705SOL    HW120840   8.098   2.505   2.545 -0.9034 -1.5423 -0.4431
69705SOL    HW220841   8.158   2.518   2.406  0.5083  0.6803  0.3302
69706SOL     OW20842   5.245  10.776   9.147 -0.2435 -0.2593 -0.1060
69706SOL    HW120843   5.173  10.833   9.175 -0.2242 -0.2116 -0.1541
69706SOL    HW220844   5.301  10.768   9.224  0.7512  1.2997 -0.6267
69707SOL     OW20845   7.848  11.977   4.572 -0.9123  0.0357  0.3732
69707SOL    HW120846   7.824  11.992   4.663  0.4864 -1.8814  1.1429
69707SOL    HW220847   7.794  11.903   4.544 -2.2953  1.4348 -0.8488
69708SOL     OW20848   8.860   4.483  11.684 -0.0158 -0.2611  0.6758
69708SOL    HW120849   8.825   4.444  11.604  1.2200 -2.8848  1.3058
69708SOL    HW220850   8.802   4.451  11.754 -1.0247  1.9205  0.9219
69709SOL     OW20851   4.330   9.170   5.160 -0.3737  0.0730 -0.5428
69709SOL    HW120852   4.290   9.084   5.149  1.5939 -0.9212 -0.3430
69709SOL    HW220853   4.386   9.161   5.238  1.2467  0.9657 -1.5419
69710SOL     OW20854  12.522   1.985   4.732 -0.7073  0.1254  0.2157
69710SOL    HW120855  12.482   1.990   4.645 -0.0974 -1.5554 -0.2018
69710SOL    HW220856  12.468   2.042   4.786 -1.0667  1.2473 -1.2644
69711SOL     OW20857  10.527  10.375   8.534 -0.4342  0.4389  0.4615
69711SOL    HW120858  10.608  10.415   8.501  0.5799 -0.8273  1.3248
69711SOL    HW220859  10.476  10.448   8.568  0.4991  1.2148  0.2291
69712SOL     OW20860   1.171  11.326   0.109  0.7489  0.0725  0.2867
69712SOL    HW120861   1.213  11.340   0.194  2.1855  2.3716 -0.7110
69712SOL    HW220862   1.111  11.400   0.099  0.2169 -0.4496 -0.5005
69713SOL     OW20863  10.922   1.407   2.996 -0.1291 -0.5219  0.0290
69713SOL    HW120864  10.864   1.383   3.068 -0.8048 -1.4271 -0.7963
69713SOL    HW220865  10.870   1.465   2.941  0.5876  0.6589  0.5692
69714SOL     OW20866   1.098   0.995  12.181 -0.8347 -0.1765 -0.1203
69714SOL    HW120867   1.188   0.981  12.211 -1.0454 -0.8642  0.1989
69714SOL    HW220868   1.076   1.083  12.212  0.6818  1.1908 -2.6075
69715SOL     OW20869   6.871   3.513  12.576  0.5697 -0.1635  0.2084
69715SOL    HW120870   6.962   3.509  12.546 -0.5024  0.3144 -3.5533
69715SOL    HW220871   6.860   3.603  12.607  0.6357  0.7837 -2.3281
69716SOL     OW20872   2.001   9.323   2.211  0.0400 -0.4527  0.3865
69716SOL    HW120873   1.912   9.302   2.238 -0.3135  0.0289 -0.3547
69716SOL    HW220874   1.990   9.385   2.139  0.9779 -0.3263  0.3384
69717SOL     OW20875   5.340   9.769   7.096  0.6168  0.1500 -0.1126
69717SOL    HW120876   5.264   9.807   7.051 -0.2031 -1.7005 -0.3618
69717SOL    HW220877   5.311   9.758   7.187  1.1222  0.8076  0.1372
69718SOL     OW20878   4.897   5.724  12.145 -0.1655 -0.3491  0.1231
69718SOL    HW120879   4.900   5.680  12.231  0.1927  0.5151  0.5572
69718SOL    HW220880   4.830   5.792  12.155  0.5257  0.3607  0.0144
69719SOL     OW20881   6.121  10.010   3.689  0.0319  0.1843  0.2113
69719SOL    HW120882   6.125  10.065   3.611  1.9827  0.8819  0.7454
69719SOL    HW220883   6.212  10.005   3.720 -0.6328 -0.3106  2.2748
69720SOL     OW20884   6.499   0.836   9.113 -0.1084 -0.0444  0.4594
69720SOL    HW120885   6.584   0.826   9.155 -1.5706 -0.7342  3.5261
69720SOL    HW220886   6.473   0.926   9.133  0.1926  0.4534 -1.2123
69721SOL     OW20887   2.207   1.887   6.792 -0.6951 -0.2508 -0.0009
69721SOL    HW120888   2.169   1.847   6.870  0.8707  0.1596  1.0459
69721SOL    HW220889   2.291   1.842   6.781  1.6617  3.1743  1.8573
69722SOL     OW20890   9.623  10.781  11.681  0.4032  0.0582 -0.3315
69722SOL    HW120891   9.624  10.703  11.736  0.0332  0.2218 -0.0874
69722SOL    HW220892   9.530  10.803  11.671  0.4520 -0.1488 -1.2840
69723SOL     OW20893   9.740  10.599  10.026  0.2345 -0.0188 -0.3048
69723SOL    HW120894   9.824  10.554  10.042  0.8780  1.3286  0.2306
69723SOL    HW220895   9.764  10.690  10.010 -1.0929  0.2581 -0.8438
69724SOL     OW20896   3.951   2.837   6.300 -0.2208 -0.0136 -0.2486
69724SOL    HW120897   3.872   2.784   6.284 -0.0187 -0.0268 -1.2639
69724SOL    HW220898   3.935   2.879   6.384 -0.1254 -2.1826  0.9217
69725SOL     OW20899   1.434   1.637   1.738 -0.1124  0.9149 -0.1709
69725SOL    HW120900   1.377   1.705   1.774 -1.6319 -0.4256  0.0768
69725SOL    HW220901   1.417   1.560   1.793  0.4749 -0.0680 -1.3219
69726SOL     OW20902   8.047   0.273   2.594 -0.2424 -0.3594  0.0468
69726SOL    HW120903   8.090   0.298   2.512 -1.1975 -0.6280 -0.5502
69726SOL    HW220904   8.034   0.179   2.587  0.7083 -0.5877  1.0254
69727SOL     OW20905   6.850   0.414   6.152  0.3870 -0.3199 -0.1517
69727SOL    HW120906   6.890   0.335   6.188  3.0039  0.8907 -0.1345
69727SOL    HW220907   6.896   0.486   6.196 -0.1512  1.1945 -1.9305
69728SOL     OW20908   9.209   0.612   9.130 -0.0978 -0.5419 -0.7532
69728SOL    HW120909   9.300   0.627   9.102 -0.4958 -0.7869 -2.2719
69728SOL    HW220910   9.213   0.612   9.225  1.2661  0.9064 -0.7657
69729SOL     OW20911  11.545   8.344   8.384  0.9138  0.1432 -0.4116
69729SOL    HW120912  11.547   8.290   8.305 -0.0237  0.3169 -0.5628
69729SOL    HW220913  11.501   8.424   8.357  1.5313  0.6399  0.0286
69730SOL     OW20914   3.403   2.065   8.006 -0.1810 -0.2936 -0.5435
69730SOL    HW120915   3.446   2.013   7.938 -1.2469 -0.9021 -0.7673
69730SOL    HW220916   3.310   2.046   7.996 -0.2976 -1.6452  2.0536
69731SOL     OW20917  13.038   6.939  10.014 -0.2085 -0.8757 -0.2894
69731SOL    HW120918  12.962   6.982  10.055 -1.6830 -2.2024 -1.4739
69731SOL    HW220919  13.109   7.002  10.021 -1.4225  0.4015  0.9273
69732SOL     OW20920   2.320   0.736   4.172  0.2013 -0.2894 -0.1213
69732SOL    HW120921   2.269   0.671   4.122  1.5665 -1.6478  0.1899
69732SOL    HW220922   2.409   0.726   4.140  0.6369  0.6879  0.7383
69733SOL     OW20923   9.419   0.292   8.591  0.5799 -0.2404  0.1047
69733SOL    HW120924   9.426   0.343   8.510 -1.6786  0.2281  0.1410
69733SOL    HW220925   9.471   0.340   8.655  2.2222 -0.5026 -0.9746
69734SOL     OW20926  11.564   3.535  11.859  0.4911 -0.0054 -0.0307
69734SOL    HW120927  11.555   3.455  11.910 -1.1580  0.3933  0.3579
69734SOL    HW220928  11.621   3.591  11.912  1.6241 -0.8726 -0.2910
69735SOL     OW20929  11.172  10.792  11.068  0.1717 -0.0520 -0.4801
69735SOL    HW120930  11.193  10.758  10.981  1.0970  0.4703 -0.4790
69735SOL    HW220931  11.253  10.781  11.118  0.4527  1.8565 -0.4181
69736SOL     OW20932   7.981   5.828   0.576  0.1640  0.6097 -0.3365
69736SOL    HW120933   7.944   5.889   0.512 -0.1921 -1.1764 -1.9311
69736SOL    HW220934   8.049   5.781   0.529 -0.4335 -1.1033  0.3983
69737SOL     OW20935  12.073   4.061   4.923 -0.2257 -0.0867 -0.0422
69737SOL    HW120936  12.032   4.145   4.903 -0.6861 -0.3507 -0.2215
69737SOL    HW220937  12.010   3.996   4.892 -0.7850 -0.5154  1.8738
69738SOL     OW20938  11.624  10.159   4.641  0.4155  0.2391 -0.4506
69738SOL    HW120939  11.707  10.169   4.595 -0.1033  2.1049 -1.0713
69738SOL    HW220940  11.637  10.083   4.698  2.8304  0.9643  0.0900
69739SOL     OW20941  12.499  11.357  10.326  0.0256  0.8598  0.2703
69739SOL    HW120942  12.589  11.331  10.306 -0.6782  0.2508 -2.3869
69739SOL    HW220943  12.504  11.452  10.338  0.9290  0.9118 -0.4137
69740SOL     OW20944   4.709  10.648   2.506 -0.4642  0.5876 -0.2151
69740SOL    HW120945   4.619  10.679   2.516 -0.1202  1.7471 -0.5170
69740SOL    HW220946   4.759  10.726   2.481  0.0307 -0.6475 -3.5688
69741SOL     OW20947   6.726   8.479  11.393 -0.5140  0.0955 -0.3981
69741SOL    HW120948   6.650   8.536  11.407 -1.6911 -1.5989  0.3578
69741SOL    HW220949   6.769   8.516  11.316 -1.5386  1.6716 -0.2699
69742SOL     OW20950   8.655  10.704   1.819 -0.3316  0.2979  0.4800
69742SOL    HW120951   8.608  10.786   1.800 -3.3439 -1.1611  0.9658
69742SOL    HW220952   8.701  10.722   1.901 -0.2717  1.7240  0.1722
69743SOL     OW20953  12.654  13.051   3.615 -0.3286  0.6364 -0.6791
69743SOL    HW120954  12.706  13.038   3.536  1.9286  1.1392  0.6445
69743SOL    HW220955  12.611  13.135   3.601  1.5364  1.6394 -0.6320
69744SOL     OW20956   7.645   6.170   8.814 -0.0717  0.8855  0.6337
69744SOL    HW120957   7.706   6.107   8.853 -1.8785 -0.9813  0.6144
69744SOL    HW220958   7.582   6.116   8.767 -2.2130  2.6702  1.2994
69745SOL     OW20959   6.756  11.868   1.335  0.1738 -0.2982  0.1939
69745SOL    HW120960   6.681  11.836   1.284  0.8086 -0.3014 -0.7728
69745SOL    HW220961   6.727  11.952   1.370 -0.2269 -0.2039 -0.3381
69746SOL     OW20962   6.243   5.161  12.538 -0.0234 -0.0560 -0.0095
69746SOL    HW120963   6.309   5.227  12.557 -0.7865  0.5165  0.7393
69746SOL    HW220964   6.277   5.113  12.463  0.2892  1.5445 -0.9268
69747SOL     OW20965   5.379   9.525   4.065 -0.5952  0.0487 -0.7757
69747SOL    HW120966   5.409   9.518   4.155 -1.1436  0.2062 -0.5758
69747SOL    HW220967   5.418   9.449   4.020  2.2155  1.5971 -1.1626
69748SOL     OW20968  13.638   3.909   3.800  0.9432  0.3322 -0.3175
69748SOL    HW120969  13.548   3.938   3.814  0.3382 -0.2307 -2.6465
69748SOL    HW220970  13.630   3.830   3.746  2.8243 -0.0711 -0.0883
69749SOL     OW20971  12.097   1.671   5.826 -0.1796 -0.1891  0.0516
69749SOL    HW120972  12.142   1.694   5.907 -1.4128  1.3732  0.3405
69749SOL    HW220973  12.153   1.706   5.756 -0.1352  0.2954  0.3294
69750SOL     OW20974   0.757   4.913   5.113 -0.2851  0.1351 -0.9897
69750SOL    HW120975   0.713   4.828   5.109 -0.2349 -0.0241  0.8925
69750SOL    HW220976   0.849   4.890   5.125 -0.2942  0.4536 -0.3140
69751SOL     OW20977  11.291   7.502   7.605  0.2458  0.0676  0.3761
69751SOL    HW120978  11.276   7.411   7.632 -0.7783 -0.4581 -1.7074
69751SOL    HW220979  11.261   7.554   7.679  0.0773 -1.2852  1.3002
69752SOL     OW20980   8.920   8.840   2.487  0.2002  0.2504  0.5406
69752SOL    HW120981   9.009   8.832   2.522  0.0306 -0.1748  0.8780
69752SOL    HW220982   8.930   8.825   2.393  0.8562  2.6854  0.1633
69753SOL     OW20983   5.221  11.173   3.031 -0.6336 -0.7084 -0.3725
69753SOL    HW120984   5.272  11.092   3.020  1.0651  0.0952  1.0158
69753SOL    HW220985   5.266  11.219   3.102 -0.8547  1.9823 -1.8838
69754SOL     OW20986   9.362   0.310  10.698 -0.5534 -0.1208  0.1879
69754SOL    HW120987   9.392   0.398  10.723  0.1410  0.2560 -1.7964
69754SOL    HW220988   9.297   0.325  10.631  0.6581 -1.1194 -1.2792
69755SOL     OW20989   3.398  13.251  13.479 -0.0049 -0.6892  0.4576
69755SOL    HW120990   3.421  13.331  13.431 -0.3751 -1.3239 -0.8368
69755SOL    HW220991   3.438  13.262  13.565  0.3308  0.6879  0.1529
69756SOL     OW20992   4.670  11.535  11.338 -0.6948 -0.2803 -0.1512
69756SOL    HW120993   4.752  11.487  11.329 -0.5701 -0.4671  1.6448
69756SOL    HW220994   4.696  11.624  11.360 -0.9343 -0.5121  1.1847
69757SOL     OW20995  11.820  12.028   6.753  0.4643 -0.1906 -0.5270
69757SOL    HW120996  11.824  11.999   6.844  0.5185 -0.8411 -0.7353
69757SOL    HW220997  11.848  12.120   6.757 -0.8553  0.2000  0.2855
69758SOL     OW20998   3.475   5.669   6.995  0.0443 -0.4255 -0.5508
69758SOL    HW120999   3.439   5.742   7.046  1.5923 -0.3971  0.5712
69758SOL    HW221000   3.404   5.645   6.935 -0.7385  1.5777 -0.5332
69759SOL     OW21001   8.075  11.914   0.151  0.1259 -0.1507  0.0821
69759SOL    HW121002   8.013  11.855   0.108 -0.1394  0.2952 -0.1562
69759SOL    HW221003   8.075  11.885   0.243 -0.7013  0.0626  0.1609
69760SOL     OW21004  12.609   4.852   3.449  0.5890  0.0112 -0.0482
69760SOL    HW121005  12.558   4.844   3.529  1.3625 -0.5071  0.4127
69760SOL    HW221006  12.638   4.944   3.449 -0.9360  0.5271 -0.7159
69761SOL     OW21007   7.685   7.577   4.072 -0.0912 -0.3998  0.6459
69761SOL    HW121008   7.600   7.533   4.064 -0.0137 -0.2535 -1.5220
69761SOL    HW221009   7.746   7.521   4.025  0.3456  1.1245 -0.7005
69762SOL     OW21010  11.088  11.484  11.131  0.0058  0.4557  1.0178
69762SOL    HW121011  11.060  11.409  11.077 -0.3157  0.8251  0.6605
69762SOL    HW221012  11.044  11.470  11.215  2.3842 -1.4034  2.0743
69763SOL     OW21013   0.479  12.063  10.142  0.0434 -0.2958  0.5798
69763SOL    HW121014   0.522  12.130  10.090 -1.2579  1.6602  1.9157
69763SOL    HW221015   0.415  12.024  10.082 -0.4882  0.9667  0.2927
69764SOL     OW21016   3.806   1.159   5.426 -0.1396 -0.5570  0.4852
69764SOL    HW121017   3.886   1.107   5.430  0.2017 -0.0119  0.8036
69764SOL    HW221018   3.796   1.195   5.514 -1.1506 -1.2387  0.6665
69765SOL     OW21019  11.690   4.970   5.505  0.1802 -0.1586  0.0027
69765SOL    HW121020  11.682   5.020   5.586 -0.0061 -1.2147  0.6568
69765SOL    HW221021  11.635   5.016   5.442  0.5299  0.8193  0.3980
69766SOL     OW21022   2.636   2.007   1.907  0.0472 -0.2042 -0.2842
69766SOL    HW121023   2.690   1.943   1.860  1.3179  0.4599  0.2476
69766SOL    HW221024   2.679   2.091   1.893 -1.0053  0.3960 -0.0662
69767SOL     OW21025  10.714   9.898   6.224  0.1107  0.0024 -0.0394
69767SOL    HW121026  10.639   9.871   6.278  0.2394  0.2513  0.2659
69767SOL    HW221027  10.789   9.894   6.284  0.3746 -0.4319 -0.3943
69768SOL     OW21028   4.355   5.626   7.506 -0.4633 -0.0501 -0.4467
69768SOL    HW121029   4.445   5.634   7.476 -0.5499 -0.1937 -0.7452
69768SOL    HW221030   4.323   5.717   7.510 -0.4413 -0.0298 -0.7552
69769SOL     OW21031   8.154  10.740   4.645 -0.1222  0.3445 -0.0341
69769SOL    HW121032   8.188  10.829   4.655 -0.2036  0.3059  0.6983
69769SOL    HW221033   8.060  10.749   4.657 -0.1142  0.1431  0.1912
69770SOL     OW21034   2.923   7.292   9.198  0.2653 -0.5385  0.3675
69770SOL    HW121035   2.939   7.300   9.103 -1.3754  3.1838  0.2300
69770SOL    HW221036   3.004   7.323   9.238 -0.2258  1.2768  0.0387
69771SOL     OW21037  13.350   1.758   2.615 -0.0425  0.0629 -0.4383
69771SOL    HW121038  13.385   1.773   2.527 -0.1083  0.8736 -0.3289
69771SOL    HW221039  13.339   1.845   2.652 -0.8507 -0.2353  0.0526
69772SOL     OW21040   1.259   8.951  13.447 -0.4406 -0.1165 -0.4600
69772SOL    HW121041   1.286   8.982  13.533 -0.9631 -0.4779 -0.1598
69772SOL    HW221042   1.242   8.857  13.459 -1.1717 -0.0350 -0.7929
69773SOL     OW21043   8.380   6.161   9.010  0.0979 -0.2212  0.1359
69773SOL    HW121044   8.416   6.220   8.943  1.1583 -0.0279  0.8535
69773SOL    HW221045   8.329   6.218   9.067 -0.6410 -0.3545 -0.3744
69774SOL     OW21046  11.478  13.067   2.273  0.1269 -0.2713 -0.1595
69774SOL    HW121047  11.542  13.047   2.205  1.1330  0.3149  0.5955
69774SOL    HW221048  11.397  13.026   2.242  1.3089 -2.7387 -0.2054
69775SOL     OW21049   7.039   9.777   1.620 -0.2771  0.2802  0.4002
69775SOL    HW121050   7.130   9.768   1.649 -0.7415 -2.2063  1.2973
69775SOL    HW221051   6.987   9.756   1.698 -1.6729  1.7375 -0.0689
69776SOL     OW21052   9.922   5.665   7.909  0.0069 -0.3440 -0.4147
69776SOL    HW121053   9.827   5.667   7.916 -0.0399 -1.7742 -0.2659
69776SOL    HW221054   9.952   5.743   7.956 -1.0101 -0.9768  1.3586
69777SOL     OW21055   6.818   3.564   5.984  0.0079  0.0015  0.1087
69777SOL    HW121056   6.777   3.478   5.998  0.5078  0.0484  2.1137
69777SOL    HW221057   6.904   3.544   5.946  1.2260 -0.6246  2.9768
69778SOL     OW21058   1.140   5.628  11.548  0.1084  0.1449  0.5658
69778SOL    HW121059   1.233   5.633  11.570  0.4900 -2.0530 -0.2490
69778SOL    HW221060   1.136   5.562  11.479 -1.9530  1.0130 -0.2203
69779SOL     OW21061   2.739   1.641  10.331 -0.3173 -0.3778  0.3645
69779SOL    HW121062   2.716   1.587  10.255 -0.3261 -0.5519  0.4925
69779SOL    HW221063   2.716   1.588  10.407  0.6247 -0.6121  0.4985
69780SOL     OW21064   4.657   2.982   1.847  0.1433  0.5989 -0.4117
69780SOL    HW121065   4.610   3.009   1.768  0.5152 -1.4485 -1.3779
69780SOL    HW221066   4.748   3.005   1.830 -0.0054  1.7920  0.2200
69781SOL     OW21067  12.182   9.575  10.567  0.1656  0.2762  0.4290
69781SOL    HW121068  12.145   9.653  10.609 -2.1116 -0.0679 -0.7607
69781SOL    HW221069  12.269   9.602  10.538 -0.8348  2.6608 -0.6030
69782SOL     OW21070   8.775  10.404  12.527  0.0153 -0.3760 -0.1283
69782SOL    HW121071   8.811  10.387  12.615  0.5895 -0.7697 -0.4329
69782SOL    HW221072   8.680  10.401  12.540  0.0900 -0.0301  0.5565
69783SOL     OW21073   2.664   3.211  10.690  0.6013  0.2778 -0.0582
69783SOL    HW121074   2.707   3.195  10.606  0.1864  0.8254 -0.3826
69783SOL    HW221075   2.670   3.305  10.703  0.3251  0.2438  0.3426
69784SOL     OW21076   4.886   8.526   6.984 -0.2737 -0.1913  0.1463
69784SOL    HW121077   4.936   8.509   6.905  0.2713 -1.8178  0.7975
69784SOL    HW221078   4.951   8.553   7.049 -0.2326 -1.8459  0.8611
69785SOL     OW21079  12.353   0.271   8.390 -0.1627 -0.2454  0.7630
69785SOL    HW121080  12.347   0.217   8.469  1.0851  0.5061  1.4051
69785SOL    HW221081  12.267   0.313   8.383 -0.5096 -0.8490  1.3311
69786SOL     OW21082  10.628  12.943  11.269  0.4126  0.0302 -0.4016
69786SOL    HW121083  10.643  12.851  11.293 -2.8849 -0.3147  0.8485
69786SOL    HW221084  10.555  12.940  11.207  0.2197  1.7993 -0.3008
69787SOL     OW21085   1.073  11.606   3.808  0.3927  0.8808 -0.8494
69787SOL    HW121086   1.062  11.635   3.898 -0.1586  0.5267 -0.7988
69787SOL    HW221087   0.991  11.629   3.765 -0.7114 -1.8799 -0.4381
69788SOL     OW21088   1.116  13.374  11.882 -0.5970  0.5914 -0.0328
69788SOL    HW121089   1.128  13.462  11.847  0.2158  0.3637 -0.3573
69788SOL    HW221090   1.075  13.387  11.968  2.1341  1.5061  1.2497
69789SOL     OW21091  13.092   4.346   0.002 -0.1831  0.3493 -0.0648
69789SOL    HW121092  13.008   4.386   0.026  0.8408  2.1907  0.7006
69789SOL    HW221093  13.085   4.330  -0.092 -0.8950  1.8661 -0.3107
69790SOL     OW21094   2.242  10.398  12.908 -0.5354  0.2408  0.1128
69790SOL    HW121095   2.179  10.351  12.853 -1.0490  0.3939  0.5626
69790SOL    HW221096   2.263  10.337  12.978 -0.3349  0.2612  0.0694
69791SOL     OW21097  10.698   5.187  10.077  0.1242 -0.1711 -0.3762
69791SOL    HW121098  10.675   5.095  10.089  0.5477 -0.2940 -0.5065
69791SOL    HW221099  10.791   5.186  10.053  0.3585  0.3388  0.4441
69792SOL     OW21100   4.156   5.676  12.315  0.2035 -0.1740 -0.2408
69792SOL    HW121101   4.246   5.653  12.338 -0.3066  0.6477  3.2634
69792SOL    HW221102   4.165   5.756  12.263  1.5343  0.0806  0.3209
69793SOL     OW21103   3.235   8.270   9.664 -0.1458 -0.2301 -0.3120
69793SOL    HW121104   3.289   8.344   9.635  1.8765 -1.0661  1.0884
69793SOL    HW221105   3.260   8.198   9.606  1.3052 -0.9575  1.1113
69794SOL     OW21106   4.061   4.379   1.318 -0.4499  0.3102 -0.5015
69794SOL    HW121107   3.989   4.440   1.302 -1.3042 -0.1251  1.3156
69794SOL    HW221108   4.117   4.386   1.241 -1.9189  1.4045 -1.5266
69795SOL     OW21109   3.412  13.528   0.697 -0.3541 -0.2901 -0.7469
69795SOL    HW121110   3.406  13.623   0.681 -1.8396 -0.3033 -0.4309
69795SOL    HW221111   3.421  13.521   0.792  1.4281 -0.4320 -0.9053
69796SOL     OW21112   1.293   9.718   8.232 -0.1059  0.4353  0.3315
69796SOL    HW121113   1.253   9.781   8.172 -0.6629  0.3109  0.5650
69796SOL    HW221114   1.312   9.642   8.178  3.3274  1.8103 -0.6622
69797SOL     OW21115   8.510   0.888   2.607 -0.3830 -0.2405  0.7485
69797SOL    HW121116   8.505   0.893   2.511 -1.3769 -1.0258  0.7401
69797SOL    HW221117   8.585   0.830   2.623 -0.4328 -0.3938  0.4438
69798SOL     OW21118  10.696   7.440   9.653 -0.3175 -0.5583  0.5002
69798SOL    HW121119  10.778   7.392   9.641 -0.3910 -0.2545 -1.7210
69798SOL    HW221120  10.629   7.382   9.615 -0.9773 -0.3276  1.2897
69799SOL     OW21121  11.327   4.873  10.188 -0.7690  0.2893  0.2873
69799SOL    HW121122  11.283   4.957  10.202 -1.0069 -0.0498  1.7334
69799SOL    HW221123  11.257   4.813  10.165 -0.6647  0.3670 -0.2478
69800SOL     OW21124   0.983   6.964   0.805 -0.3534  0.1378 -0.1546
69800SOL    HW121125   0.936   7.045   0.785 -1.8936 -0.7120 -0.1608
69800SOL    HW221126   0.953   6.902   0.738  1.5700 -0.1948 -0.7837
69801SOL     OW21127   3.403  10.668  12.738  1.0197 -0.1811 -0.2062
69801SOL    HW121128   3.492  10.670  12.773  1.1775 -0.3451 -0.5984
69801SOL    HW221129   3.347  10.664  12.816  1.4226 -2.3259  0.0361
69802SOL     OW21130   6.108   7.929  12.297 -0.2011 -0.0027  0.4681
69802SOL    HW121131   6.053   7.879  12.238  0.7924 -0.9916  0.3360
69802SOL    HW221132   6.049   7.992  12.339 -1.1741 -0.2361 -0.5282
69803SOL     OW21133   6.687   5.727  10.359  0.2536  0.5510 -0.2980
69803SOL    HW121134   6.707   5.738  10.266 -0.5208  0.3830 -0.4902
69803SOL    HW221135   6.618   5.791  10.377  1.8947  2.1373  0.6996
69804SOL     OW21136  12.832   1.357   6.436 -0.4241 -0.2831 -0.2417
69804SOL    HW121137  12.877   1.441   6.424 -0.7480  0.2716  1.9682
69804SOL    HW221138  12.763   1.357   6.370  0.8321  0.2584 -1.6066
69805SOL     OW21139  12.869   7.813   7.864  0.0408  0.3055 -0.1596
69805SOL    HW121140  12.923   7.865   7.925 -0.1741  1.1108 -0.6378
69805SOL    HW221141  12.813   7.878   7.821 -0.7745 -0.4288 -0.2258
69806SOL     OW21142   8.837   9.132  13.111  0.6701  0.1469 -0.1447
69806SOL    HW121143   8.764   9.075  13.136  0.7679 -1.0090 -2.2464
69806SOL    HW221144   8.912   9.098  13.161  0.2152 -0.0040  0.4429
69807SOL     OW21145   0.659   8.023   7.431  0.2924  0.7258  0.8764
69807SOL    HW121146   0.666   7.969   7.352  0.5103  0.7689  0.8652
69807SOL    HW221147   0.590   7.981   7.482 -2.4954  2.7444 -0.9288
69808SOL     OW21148   3.414   4.473   0.601 -0.0025  0.3479 -0.4273
69808SOL    HW121149   3.329   4.485   0.642  0.4506  0.5501  0.4713
69808SOL    HW221150   3.422   4.546   0.540 -0.3901  0.4353 -0.3746
69809SOL     OW21151  12.895  11.520   3.213  0.0439 -0.2323  0.1801
69809SOL    HW121152  12.915  11.589   3.276 -2.4316  0.7437 -0.0099
69809SOL    HW221153  12.805  11.495   3.232  0.3413 -2.3133 -0.8155
69810SOL     OW21154   0.130   6.987   2.928 -0.1200 -0.7056 -0.4816
69810SOL    HW121155   0.151   6.989   2.834 -1.0302 -1.4885 -0.7141
69810SOL    HW221156   0.181   6.914   2.962  0.9976  0.1991 -0.1463
69811SOL     OW21157   6.735   5.638   6.984  0.0879 -0.1234 -0.0616
69811SOL    HW121158   6.659   5.623   6.927 -0.3826  0.2173  0.4646
69811SOL    HW221159   6.720   5.580   7.058  0.2822  0.0391  0.1053
69812SOL     OW21160   1.565  12.602   5.939  0.5275 -0.4735  0.6992
69812SOL    HW121161   1.611  12.685   5.947 -0.0056 -0.0705 -0.3582
69812SOL    HW221162   1.635  12.537   5.926  0.8186  0.3467 -2.7801
69813SOL     OW21163  12.279   3.593  11.351  0.3950 -0.5228 -0.4146
69813SOL    HW121164  12.268   3.573  11.258  0.4687 -0.9139 -0.3420
69813SOL    HW221165  12.192   3.621  11.380 -0.0337 -1.9787 -0.2272
69814SOL     OW21166   8.801  11.503   2.096  0.2581  0.0879  0.0658
69814SOL    HW121167   8.741  11.555   2.149  1.6310  0.4928  1.2924
69814SOL    HW221168   8.754  11.422   2.077 -1.1128  0.8913 -0.0634
69815SOL     OW21169   6.623  10.017   1.618 -0.4238  0.1033  0.6322
69815SOL    HW121170   6.704  10.034   1.667 -0.9844  2.5884  0.8633
69815SOL    HW221171   6.583   9.943   1.664  0.8260  0.0066  1.6505
69816SOL     OW21172  12.372   9.384   9.260 -0.2976  0.1566 -1.0282
69816SOL    HW121173  12.320   9.343   9.192 -0.7916 -0.1186 -0.4921
69816SOL    HW221174  12.332   9.470   9.273  0.1181  0.4192 -1.4428
69817SOL     OW21175   7.069  13.418  10.894 -0.3018 -0.3343 -0.4137
69817SOL    HW121176   7.113  13.426  10.810  0.1006 -0.0076 -0.1810
69817SOL    HW221177   7.097  13.334  10.929  0.3763 -0.0064 -0.1432
69818SOL     OW21178  13.451   4.410   8.114 -0.4818 -0.0559  0.0557
69818SOL    HW121179  13.492   4.327   8.088  1.7716  0.9284  0.2717
69818SOL    HW221180  13.524   4.469   8.129 -2.0520  2.1748 -0.6376
69819SOL     OW21181   5.993   6.167   2.883  0.5216  0.2932  0.0485
69819SOL    HW121182   5.897   6.168   2.890  0.5473  0.8168  0.4214
69819SOL    HW221183   6.023   6.214   2.960  1.1358 -0.9997  0.6297
69820SOL     OW21184  11.014   6.571   7.964  0.7637 -0.4376  0.1355
69820SOL    HW121185  11.067   6.577   8.043 -3.1450  1.3761  2.9418
69820SOL    HW221186  11.026   6.656   7.921  0.1936 -0.0364  0.7552
69821SOL     OW21187  10.253   0.636   7.245 -0.7960 -0.1284 -0.0736
69821SOL    HW121188  10.203   0.667   7.321  1.2358 -0.2385  1.3881
69821SOL    HW221189  10.253   0.541   7.253  2.1811 -0.0942  1.8000
69822SOL     OW21190   2.560   5.432  13.536 -0.8443  0.5143 -0.6177
69822SOL    HW121191   2.615   5.456  13.461 -0.1543  1.7131  0.2274
69822SOL    HW221192   2.579   5.499  13.601 -3.0566  0.7652 -0.1470
69823SOL     OW21193   2.880  11.171   8.142  0.1542  0.0315  0.3971
69823SOL    HW121194   2.943  11.229   8.099  0.1188  1.0929  1.7177
69823SOL    HW221195   2.804  11.170   8.085  1.1960 -0.9926 -1.0509
69824SOL     OW21196   4.930   3.297   1.480  0.3604 -0.4081  0.0823
69824SOL    HW121197   4.910   3.325   1.390  2.0795  1.2121  0.1287
69824SOL    HW221198   5.013   3.250   1.472  0.0335 -1.1010  0.7119
69825SOL     OW21199   9.698  13.382  13.073 -0.7449 -0.5775  0.1699
69825SOL    HW121200   9.676  13.442  13.002 -1.1890  0.3003  1.0331
69825SOL    HW221201   9.624  13.386  13.133  1.0639  1.5150  2.5246
69826SOL     OW21202  13.542   9.387  11.359  0.7744 -0.6999  0.4576
69826SOL    HW121203  13.595   9.313  11.390  2.3132  0.5386  0.9284
69826SOL    HW221204  13.532   9.443  11.436  0.6551  0.1650 -0.1745
69827SOL     OW21205   8.748   3.809   5.366 -0.1077 -0.2924 -0.3812
69827SOL    HW121206   8.764   3.851   5.281  0.1284  0.3538 -0.0238
69827SOL    HW221207   8.830   3.765   5.387  0.4149  0.9715  0.3016
69828SOL     OW21208  10.805  12.131  11.824 -0.4302 -0.6046  0.0489
69828SOL    HW121209  10.749  12.149  11.748  1.8570  0.0410 -1.5656
69828SOL    HW221210  10.805  12.036  11.831 -0.1287 -0.7179 -1.2151
69829SOL     OW21211   8.534   3.258   6.526  0.2227  0.2909 -0.1145
69829SOL    HW121212   8.477   3.293   6.457  0.6662 -0.2005 -0.7341
69829SOL    HW221213   8.526   3.163   6.518  0.5250  0.2291  0.3098
69830SOL     OW21214  10.455  10.010   3.376 -0.1669  0.8808  0.6860
69830SOL    HW121215  10.374   9.982   3.334 -0.0271 -0.2345  1.1301
69830SOL    HW221216  10.522  10.001   3.309 -0.3693  1.6581  0.3645
69831SOL     OW21217   4.004   2.643   2.701  0.0208 -0.1035  0.0305
69831SOL    HW121218   4.087   2.597   2.705  0.7663  1.2701  1.2441
69831SOL    HW221219   4.021   2.719   2.644 -0.7699 -0.4703 -0.7284
69832SOL     OW21220   8.945   4.643   3.589  0.1719 -0.2428  0.4056
69832SOL    HW121221   8.931   4.733   3.618 -0.8846  0.0230 -0.8446
69832SOL    HW221222   8.913   4.589   3.661  1.2095  0.3429  1.3482
69833SOL     OW21223   8.936   8.810   7.422  0.4902 -0.2164 -0.0199
69833SOL    HW121224   8.894   8.884   7.378  1.8245 -0.1744 -1.3031
69833SOL    HW221225   8.866   8.748   7.438 -0.3566  0.6064 -0.4694
69834SOL     OW21226   7.794   1.160   9.120 -0.2235 -0.0673 -0.5540
69834SOL    HW121227   7.861   1.173   9.188 -0.6785  2.5651 -0.5233
69834SOL    HW221228   7.796   1.066   9.103  2.4915 -0.2908  0.4629
69835SOL     OW21229   6.504  13.156   8.238 -0.3381 -0.1145 -0.1396
69835SOL    HW121230   6.500  13.071   8.283 -0.9743  1.3434  2.8423
69835SOL    HW221231   6.572  13.205   8.285 -0.4130  1.2635 -1.3774
69836SOL     OW21232   2.065   7.820  11.450 -0.1668  0.3054 -1.1959
69836SOL    HW121233   2.153   7.843  11.480  0.6911 -2.6672 -1.1746
69836SOL    HW221234   2.007   7.853  11.519  1.4275 -2.7715  1.8944
69837SOL     OW21235   0.980   7.085   9.062 -0.1401  0.7353 -0.3840
69837SOL    HW121236   0.975   7.145   9.136  0.3811 -0.6620  0.8189
69837SOL    HW221237   0.997   6.999   9.101  3.0816  0.3747 -2.2149
69838SOL     OW21238   3.509   1.716  11.828  0.1630 -0.5854  0.5484
69838SOL    HW121239   3.420   1.753  11.826 -0.0450 -1.0999 -1.1240
69838SOL    HW221240   3.510   1.653  11.756  1.6997 -1.0627  0.9607
69839SOL     OW21241   1.410   1.982  12.952 -0.2035  0.4026 -0.1438
69839SOL    HW121242   1.384   2.029  13.031 -0.4331  0.1118 -0.0423
69839SOL    HW221243   1.379   2.036  12.880  0.0999  0.7221 -0.0371
69840SOL     OW21244   5.766  11.484   1.410  0.7424 -0.5789 -0.2935
69840SOL    HW121245   5.801  11.434   1.484  2.2083  1.4479  0.4708
69840SOL    HW221246   5.699  11.427   1.373  1.6573 -2.6934  1.0813
69841SOL     OW21247   6.093   0.807   3.918  0.6562  0.2271 -0.6482
69841SOL    HW121248   6.147   0.851   3.852  1.1250 -1.1013 -1.1991
69841SOL    HW221249   6.157   0.763   3.975  0.2163  0.5146  0.0750
69842SOL     OW21250  12.935   6.539   3.642 -0.0170  0.1363 -0.5578
69842SOL    HW121251  13.015   6.589   3.628 -0.6077  1.2635  0.0037
69842SOL    HW221252  12.877   6.566   3.570  0.5505 -1.7042 -1.7843
69843SOL     OW21253   1.245  11.572   4.611  0.6383  0.3528 -0.1174
69843SOL    HW121254   1.189  11.496   4.595  1.2342 -0.3689  1.1084
69843SOL    HW221255   1.280  11.559   4.699  3.4443  0.3116 -1.1271
69844SOL     OW21256   1.385  10.444   7.254  0.1935 -0.2250 -0.2191
69844SOL    HW121257   1.466  10.422   7.299  0.0585 -0.5302 -0.1201
69844SOL    HW221258   1.316  10.405   7.308  0.0112 -0.3663 -0.5470
69845SOL     OW21259   3.812   5.023   3.569 -0.5708  0.4955 -0.0443
69845SOL    HW121260   3.781   5.095   3.515  0.1345 -0.5735 -1.9858
69845SOL    HW221261   3.754   4.950   3.547  0.1657 -0.1527  0.1109
69846SOL     OW21262  11.136   6.297  12.291 -0.4971  0.0150 -0.4621
69846SOL    HW121263  11.045   6.268  12.298 -0.1793 -2.0593 -3.3226
69846SOL    HW221264  11.187   6.217  12.299  0.9241  0.8179 -1.2231
69847SOL     OW21265   9.666  12.171   0.590  0.2853  0.0315  0.2033
69847SOL    HW121266   9.713  12.113   0.530  0.3738 -0.4407  0.7286
69847SOL    HW221267   9.727  12.185   0.662 -0.2319 -0.2776  0.7063
69848SOL     OW21268  11.318  11.099   9.873 -0.3122  0.3622 -0.0994
69848SOL    HW121269  11.298  11.163   9.806  0.2322 -0.5557 -1.1780
69848SOL    HW221270  11.233  11.072   9.907 -0.5593  1.3135  0.0484
69849SOL     OW21271  13.381   4.908   9.831 -0.1886 -0.3544 -0.3336
69849SOL    HW121272  13.349   4.929   9.919  1.3257  0.8262 -0.0280
69849SOL    HW221273  13.474   4.890   9.842  0.2386  0.6972 -1.8035
69850SOL     OW21274  10.135  11.844   6.317 -0.2545  0.1319  0.4733
69850SOL    HW121275  10.097  11.802   6.395  1.9782 -1.5340  0.7594
69850SOL    HW221276  10.207  11.787   6.292  0.6932  1.9976 -1.3301
69851SOL     OW21277   2.077  13.191   1.357 -0.7026 -0.1749  0.5299
69851SOL    HW121278   2.084  13.286   1.361 -0.0631 -0.1948  0.0604
69851SOL    HW221279   2.164  13.161   1.333 -0.7857 -0.9139  1.0965
69852SOL     OW21280  10.758   0.017   7.410  0.3976  0.6432  0.0682
69852SOL    HW121281  10.745   0.028   7.504 -1.0980  0.5407 -0.1028
69852SOL    HW221282  10.696   0.079   7.370 -3.0044 -2.9579 -0.8487
69853SOL     OW21283   2.308  13.243   8.024 -0.4488  0.0260  0.2121
69853SOL    HW121284   2.273  13.207   8.106  0.0285  2.2982  1.5295
69853SOL    HW221285   2.364  13.174   7.989 -1.6416 -1.4682  1.1377
69854SOL     OW21286  11.348  12.126   3.070  0.0925  0.0235 -0.4906
69854SOL    HW121287  11.374  12.127   3.162  1.9307 -2.0155 -0.8928
69854SOL    HW221288  11.423  12.165   3.024  0.2239 -1.1107 -1.2796
69855SOL     OW21289   4.254   2.447  10.681  0.2019 -0.6650  0.1228
69855SOL    HW121290   4.268   2.360  10.719  1.0002 -0.3132  0.6803
69855SOL    HW221291   4.343   2.479  10.664 -0.1184 -0.4514 -1.2439
69856SOL     OW21292   7.635  10.898   4.659 -0.2773  0.3495  0.2194
69856SOL    HW121293   7.551  10.860   4.684 -1.2025  1.7182 -0.6657
69856SOL    HW221294   7.644  10.974   4.717  0.8366 -0.3456  0.9776
69857SOL     OW21295   1.803   4.586   9.935 -0.3314 -0.1805 -0.3598
69857SOL    HW121296   1.761   4.500   9.941 -0.2919 -0.1180  1.4807
69857SOL    HW221297   1.822   4.597   9.842 -0.4864 -2.0837 -0.6665
69858SOL     OW21298  12.939   1.415   4.964 -0.2623 -0.3872 -0.3202
69858SOL    HW121299  12.859   1.434   5.012 -0.3046 -2.2873  0.4677
69858SOL    HW221300  12.910   1.395   4.875 -0.4168  0.9352 -0.5874
69859SOL     OW21301   3.268  10.617  11.521 -0.0672 -0.4480 -0.6638
69859SOL    HW121302   3.258  10.706  11.489 -0.7753 -0.3519 -0.1986
69859SOL    HW221303   3.257  10.562  11.443 -0.8388 -0.1741 -0.7569
69860SOL     OW21304   0.907   5.228   8.423  0.8964 -0.5931  0.7282
69860SOL    HW121305   0.875   5.303   8.372 -0.2038 -0.7085  1.1979
69860SOL    HW221306   0.972   5.186   8.367  0.3314 -0.2330 -0.2225
69861SOL     OW21307   3.141   0.086  13.554  0.1090 -0.3448 -0.1373
69861SOL    HW121308   3.233   0.059  13.560  0.0066 -0.4791  0.9917
69861SOL    HW221309   3.143   0.166  13.502  1.2149  1.2239  2.1544
69862SOL     OW21310   1.798   4.209   4.079  0.0968  0.3706  0.2751
69862SOL    HW121311   1.735   4.240   4.014  1.3211  2.6451  0.0604
69862SOL    HW221312   1.805   4.115   4.063 -0.0871  0.7527 -2.5308
69863SOL     OW21313   1.506   6.763   0.130 -0.1604 -0.0162  0.5269
69863SOL    HW121314   1.431   6.705   0.123 -0.9635  0.7261  2.3322
69863SOL    HW221315   1.533   6.756   0.222  1.9855 -0.2393 -0.0561
69864SOL     OW21316   2.745  11.072  12.795  0.5614  0.0482  0.4208
69864SOL    HW121317   2.718  11.151  12.841 -0.1665 -0.0666  0.2064
69864SOL    HW221318   2.726  11.090  12.703 -1.6235 -1.1318  0.5645
69865SOL     OW21319   8.068   6.477   6.568  0.3571  0.5341  0.1984
69865SOL    HW121320   8.040   6.386   6.556 -0.8329  1.1645 -2.5232
69865SOL    HW221321   7.995   6.518   6.615  0.8845  0.1443  1.4075
69866SOL     OW21322   3.134   5.213   1.261 -0.4843 -0.0712  0.0019
69866SOL    HW121323   3.159   5.123   1.241  0.4466  0.2103 -0.1670
69866SOL    HW221324   3.216   5.254   1.290 -0.9355  0.6728  0.2391
69867SOL     OW21325   2.484  11.950   5.603 -0.3222  0.3633  0.3201
69867SOL    HW121326   2.501  11.975   5.694  0.1040 -0.9358  0.6195
69867SOL    HW221327   2.556  11.891   5.581  0.3462  1.6928 -1.3243
69868SOL     OW21328  12.332  12.279  13.349  0.8686 -0.3275 -0.3399
69868SOL    HW121329  12.410  12.335  13.347  0.2200  0.6045 -0.3900
69868SOL    HW221330  12.363  12.197  13.387  1.5148  0.6519  1.4212
69869SOL     OW21331   3.169   0.476   2.444 -0.2365 -0.6070  0.3060
69869SOL    HW121332   3.097   0.537   2.432 -0.0111 -0.3315  0.3472
69869SOL    HW221333   3.142   0.397   2.398 -0.4845 -0.4394  0.1665
69870SOL     OW21334   4.021  12.249  12.687  0.2640 -0.0505 -0.2990
69870SOL    HW121335   4.039  12.204  12.769 -0.1639  0.1413 -0.0914
69870SOL    HW221336   3.942  12.300  12.705  0.3584  0.2560 -0.7296
69871SOL     OW21337  13.029  11.157   0.139 -0.3684  0.2892 -0.3589
69871SOL    HW121338  12.963  11.090   0.153  1.0902 -1.2362 -0.4242
69871SOL    HW221339  13.036  11.202   0.223  1.6567 -2.5743  1.2051
69872SOL     OW21340   2.149   0.125   5.418  0.3670  0.3415  0.0009
69872SOL    HW121341   2.235   0.132   5.377 -0.1418  0.0667 -1.1405
69872SOL    HW221342   2.155   0.182   5.495  1.5220  0.4284 -0.1321
69873SOL     OW21343  10.525  12.439   3.609 -0.3094 -0.1501  0.2107
69873SOL    HW121344  10.476  12.358   3.626 -0.1678 -0.6753 -1.6480
69873SOL    HW221345  10.522  12.486   3.692 -4.1648 -0.0563  0.2006
69874SOL     OW21346   0.594   5.240   9.187 -0.2286 -0.2858  0.6748
69874SOL    HW121347   0.594   5.324   9.232  1.0520 -0.1332  0.4358
69874SOL    HW221348   0.540   5.183   9.242 -2.6328  1.1184 -0.0737
69875SOL     OW21349   7.577   2.899   3.385  0.3849 -0.0556 -0.3426
69875SOL    HW121350   7.665   2.934   3.374  0.7379 -0.6841  0.3898
69875SOL    HW221351   7.576   2.865   3.475 -1.1940  1.6713  0.3850
69876SOL     OW21352   0.357   2.046   9.031  0.0955  0.0024  0.2957
69876SOL    HW121353   0.404   2.124   9.062  0.8189 -0.9920  1.7954
69876SOL    HW221354   0.267   2.059   9.062  0.6211 -0.5794  2.1359
69877SOL     OW21355   2.611  12.690   9.197 -0.3395 -0.0583  0.3577
69877SOL    HW121356   2.623  12.605   9.238 -0.0149 -0.2129 -0.0424
69877SOL    HW221357   2.548  12.674   9.127  1.6579 -0.5774 -1.4373
69878SOL     OW21358   9.732   5.357  13.214 -0.3983  0.9070  0.0427
69878SOL    HW121359   9.795   5.321  13.151 -1.0305 -2.3449  1.0641
69878SOL    HW221360   9.656   5.380  13.161 -0.1280  0.2631 -0.6405
69879SOL     OW21361   7.012  12.945   4.923 -0.7729 -0.6017  0.0385
69879SOL    HW121362   7.036  12.975   4.835  0.7940  0.6268  0.8457
69879SOL    HW221363   6.968  13.020   4.963 -1.2419 -1.0649  0.4038
69880SOL     OW21364  11.579  12.143   0.974  0.8122  0.1249 -0.7975
69880SOL    HW121365  11.669  12.148   0.942  0.5625  1.3061 -1.3778
69880SOL    HW221366  11.539  12.225   0.944 -0.1204  0.1528  0.4592
69881SOL     OW21367   0.128   1.035   8.963  0.7786 -0.7551  0.1880
69881SOL    HW121368   0.126   1.087   8.883 -1.5691 -0.7316  0.1816
69881SOL    HW221369   0.189   1.081   9.020  0.5692  0.6777 -0.6954
69882SOL     OW21370  12.773   7.168   9.172  1.0168 -0.0762  0.2153
69882SOL    HW121371  12.690   7.123   9.189  1.0000 -0.6716 -1.3239
69882SOL    HW221372  12.768   7.248   9.225 -0.1790 -0.4991  0.7785
69883SOL     OW21373  11.515   7.824   9.330  0.2471  0.2388 -0.1780
69883SOL    HW121374  11.540   7.828   9.238  0.5901  0.8116 -0.0616
69883SOL    HW221375  11.442   7.886   9.338 -1.4318 -1.6040 -0.5700
69884SOL     OW21376   0.883  11.213   5.774 -0.3457 -0.2918  0.7362
69884SOL    HW121377   0.972  11.231   5.804 -0.4573  2.2094 -0.1425
69884SOL    HW221378   0.894  11.175   5.687 -0.1109  0.8082  0.2698
69885SOL     OW21379   0.715  12.695   0.668 -0.3806  0.2316 -0.3218
69885SOL    HW121380   0.681  12.715   0.756 -1.1964  0.2872 -0.6378
69885SOL    HW221381   0.792  12.751   0.658 -0.8752  0.9805 -0.0306
69886SOL     OW21382   5.595  12.189  11.370  0.0089 -0.0352  0.6305
69886SOL    HW121383   5.572  12.241  11.293 -1.4064 -2.9514 -1.1066
69886SOL    HW221384   5.690  12.186  11.370  0.0428  0.2123 -0.9143
69887SOL     OW21385   4.026   2.362   8.147 -0.5432  0.2661 -0.3092
69887SOL    HW121386   4.012   2.306   8.223 -1.3887 -0.8546 -1.2446
69887SOL    HW221387   4.043   2.449   8.183 -0.9110 -0.2429  1.1517
69888SOL     OW21388  10.506  10.787   5.968 -0.0493  0.0310 -0.8146
69888SOL    HW121389  10.494  10.823   6.055  1.2542 -0.1037 -0.5619
69888SOL    HW221390  10.426  10.737   5.951 -0.4572  0.3408  0.1493
69889SOL     OW21391   0.986   2.269   7.247 -0.0851 -0.1565 -0.3452
69889SOL    HW121392   1.047   2.196   7.237 -0.3093 -0.3035 -0.6552
69889SOL    HW221393   0.988   2.289   7.341 -0.3703 -0.8627 -0.1845
69890SOL     OW21394   3.066   1.371   3.858 -0.0332 -0.7516  0.3448
69890SOL    HW121395   3.100   1.459   3.873 -1.8548  0.2852 -1.0735
69890SOL    HW221396   3.096   1.348   3.771 -1.6549 -0.3853 -0.3636
69891SOL     OW21397   6.446  12.617   7.376  0.5145  0.1720  0.1815
69891SOL    HW121398   6.522  12.559   7.387  0.1083 -0.2911  0.6144
69891SOL    HW221399   6.370  12.559   7.386  0.0900  0.8587  1.0705
69892SOL     OW21400   2.237  13.612   3.631 -0.0971 -0.6884  0.3060
69892SOL    HW121401   2.203  13.540   3.577  2.8757 -1.8835 -0.2024
69892SOL    HW221402   2.256  13.682   3.568 -0.2197 -0.6033  0.3640
69893SOL     OW21403   9.627   3.093   4.764  0.1353  0.1810  0.0735
69893SOL    HW121404   9.698   3.053   4.714 -1.0696  0.1806 -1.7316
69893SOL    HW221405   9.621   3.042   4.844  1.1684 -0.7672 -0.4351
69894SOL     OW21406  11.281   9.414   7.002  0.3335  0.1483 -0.4350
69894SOL    HW121407  11.271   9.503   6.971  2.4112 -0.2506 -2.4997
69894SOL    HW221408  11.339   9.372   6.938  0.7932 -2.2011  1.3677
69895SOL     OW21409   2.203   4.234   3.742 -0.2354 -0.2791  0.2608
69895SOL    HW121410   2.233   4.247   3.832  0.3520 -2.4492  0.4327
69895SOL    HW221411   2.150   4.154   3.745 -1.3071  0.3274 -1.1050
69896SOL     OW21412   2.650   8.337   3.610 -0.1102 -0.1211 -0.0631
69896SOL    HW121413   2.741   8.323   3.583  0.1901 -0.4988  1.0988
69896SOL    HW221414   2.629   8.425   3.577  0.8788  0.2286  0.1959
69897SOL     OW21415   1.586   0.925   4.228  0.3156  0.2627 -0.4446
69897SOL    HW121416   1.532   1.003   4.217  0.0869  0.0366 -0.9747
69897SOL    HW221417   1.587   0.884   4.141 -0.6560 -1.0165  0.1162
69898SOL     OW21418   8.531   3.400   5.871  0.1974 -0.5237 -0.5467
69898SOL    HW121419   8.453   3.398   5.816 -0.9618  1.4729  0.9060
69898SOL    HW221420   8.603   3.421   5.811 -0.2886 -2.3962 -1.9095
69899SOL     OW21421  10.972   7.495   6.558  0.4300  0.1432 -0.3237
69899SOL    HW121422  11.030   7.563   6.525  0.5378  0.7521  1.0613
69899SOL    HW221423  10.989   7.419   6.502 -0.7750  1.6560 -2.8807
69900SOL     OW21424   6.514   5.462   5.131 -0.0602 -0.0537  0.1037
69900SOL    HW121425   6.600   5.487   5.166 -0.3634  0.4635  0.4897
69900SOL    HW221426   6.531   5.381   5.083  0.1813 -1.4065  2.3427
69901SOL     OW21427   3.343   0.871  10.286  0.0671 -0.4461 -0.3214
69901SOL    HW121428   3.320   0.851  10.377  1.4908 -0.5001  0.0546
69901SOL    HW221429   3.308   0.958  10.271 -0.9911 -0.8079 -0.0249
69902SOL     OW21430   6.095  10.682   0.651 -0.1752  0.3492 -0.0721
69902SOL    HW121431   6.016  10.693   0.597  0.1843  1.4448 -0.4121
69902SOL    HW221432   6.141  10.766   0.643 -0.3063  0.7223  2.2665
69903SOL     OW21433   9.582   6.688   5.358  0.5945 -0.4983 -0.0838
69903SOL    HW121434   9.566   6.667   5.450  0.7826  0.0191  0.0691
69903SOL    HW221435   9.496   6.683   5.317  0.6981 -2.0950 -0.1699
69904SOL     OW21436   0.189   6.630  12.215 -0.4432  0.1202 -0.0421
69904SOL    HW121437   0.135   6.552  12.204 -1.2960  0.9158 -1.7612
69904SOL    HW221438   0.154   6.693  12.152  0.8808  1.5480  0.5894
69905SOL     OW21439   8.915   5.331   9.553 -0.3442  0.7146  0.2789
69905SOL    HW121440   8.946   5.358   9.467  0.4630 -0.8631  0.0386
69905SOL    HW221441   8.967   5.383   9.614 -0.7698  1.6837 -0.1710
69906SOL     OW21442   2.373   0.512  13.027  0.4437 -0.2143 -0.6282
69906SOL    HW121443   2.387   0.420  13.005 -0.0114 -0.3023 -0.5535
69906SOL    HW221444   2.450   0.557  12.992 -0.8848 -0.1208 -3.7375
69907SOL     OW21445   6.485   3.350   6.044 -0.2653 -0.5262  0.2165
69907SOL    HW121446   6.454   3.278   5.988 -0.9556 -0.4244  0.4564
69907SOL    HW221447   6.580   3.350   6.032 -0.2743 -1.3554  0.0642
69908SOL     OW21448  11.268   0.287   0.265 -0.2116  0.1286  0.4589
69908SOL    HW121449  11.277   0.365   0.319  1.8409  0.6628 -0.5521
69908SOL    HW221450  11.350   0.282   0.215  0.2439 -3.2911  1.2666
69909SOL     OW21451   9.221   1.438  11.595  0.0896  0.2968  0.2515
69909SOL    HW121452   9.274   1.366  11.629  0.0259  0.8745  1.6058
69909SOL    HW221453   9.263   1.462  11.512 -0.1089 -1.5328 -0.4245
69910SOL     OW21454   5.905   2.654   6.141  0.5549 -0.0498 -0.4924
69910SOL    HW121455   5.825   2.602   6.129 -0.1674  1.4252 -2.7823
69910SOL    HW221456   5.873   2.737   6.178  1.1553  0.2232 -0.5871
69911SOL     OW21457   4.267   1.623   0.414  0.1960  0.2906 -0.3327
69911SOL    HW121458   4.332   1.582   0.357  0.4953 -0.4385  0.5011
69911SOL    HW221459   4.187   1.572   0.399 -0.1346  1.0426 -1.1892
69912SOL     OW21460  11.571   5.547   1.182 -0.0945 -0.7964  0.6622
69912SOL    HW121461  11.635   5.607   1.145 -0.8122 -0.3130  0.1837
69912SOL    HW221462  11.589   5.546   1.276  0.0837 -0.0338  0.6367
69913SOL     OW21463   2.468  11.891  12.935 -0.0407 -0.3816  0.6798
69913SOL    HW121464   2.426  11.868  13.018  0.9782  0.4086  1.4539
69913SOL    HW221465   2.475  11.987  12.938 -2.3577 -0.0321 -1.5215
69914SOL     OW21466   4.127   6.880  12.735 -0.6514  0.1419 -0.5241
69914SOL    HW121467   4.085   6.800  12.704  1.5240 -1.5128  0.5101
69914SOL    HW221468   4.138   6.866  12.829 -0.4916  1.8315 -0.2516
69915SOL     OW21469  11.256   0.050  12.604  0.1578  0.0858 -0.1730
69915SOL    HW121470  11.249   0.141  12.574 -1.2379  0.2896  0.6677
69915SOL    HW221471  11.169   0.031  12.640  0.4699 -1.5478 -0.2329
69916SOL     OW21472  12.291   1.544   5.643  0.4894  0.2286 -0.4260
69916SOL    HW121473  12.326   1.581   5.724  0.5331  0.9946 -0.7863
69916SOL    HW221474  12.366   1.499   5.603  0.1825 -1.1740  0.5224
69917SOL     OW21475   9.917  12.683   5.581  0.2318 -0.2887  0.2457
69917SOL    HW121476   9.852  12.635   5.632  0.0199 -1.1456 -0.7889
69917SOL    HW221477  10.001  12.657   5.617  0.0819 -0.8063  0.2321
69918SOL     OW21478   1.888   6.611   8.939  0.4580  0.5080  0.0644
69918SOL    HW121479   1.954   6.542   8.940 -2.1998 -2.2499  0.0949
69918SOL    HW221480   1.864   6.623   9.031 -0.7895 -0.3570 -0.1238
69919SOL     OW21481   9.254   8.581   4.106 -1.1776  0.3713  0.2533
69919SOL    HW121482   9.198   8.596   4.030 -1.8650 -0.8787  0.4741
69919SOL    HW221483   9.196   8.537   4.169 -0.1456 -0.2133  0.8080
69920SOL     OW21484  11.182   2.895  12.126 -0.0879 -0.1853  0.3535
69920SOL    HW121485  11.143   2.809  12.144 -1.2015  0.7196  2.6901
69920SOL    HW221486  11.255   2.902  12.188  1.3551 -0.2388 -1.2639
69921SOL     OW21487   2.100   7.648  11.068 -0.4557  0.3725  0.1396
69921SOL    HW121488   2.116   7.563  11.110 -0.7652 -0.0477 -0.5727
69921SOL    HW221489   2.055   7.700  11.135 -0.7061 -0.1914  0.4169
69922SOL     OW21490   1.186   5.726   4.513  0.4802  0.2897  0.1055
69922SOL    HW121491   1.189   5.643   4.465  0.0358 -1.0592  2.2639
69922SOL    HW221492   1.110   5.717   4.570  0.3986  2.2356  0.3527
69923SOL     OW21493   5.032  10.886   8.633 -0.2532  0.5450 -0.5151
69923SOL    HW121494   4.980  10.927   8.563 -1.1127  1.8539  0.8317
69923SOL    HW221495   5.090  10.825   8.587 -1.8595  0.2111 -2.2171
69924SOL     OW21496   0.581   5.007  12.753  0.3372  0.0845  0.3771
69924SOL    HW121497   0.629   4.927  12.733 -0.0866  0.0176 -0.4017
69924SOL    HW221498   0.489   4.982  12.747  0.1999  0.5432  0.5097
69925SOL     OW21499   2.824  12.282   2.695  0.3709  1.0346 -0.1111
69925SOL    HW121500   2.831  12.202   2.747 -0.5676  1.7155  1.1054
69925SOL    HW221501   2.740  12.320   2.721 -0.3767  1.1681 -2.4783
69926SOL     OW21502  12.329   8.261   4.027 -0.2359  0.0860  0.2441
69926SOL    HW121503  12.248   8.214   4.049 -1.0914  2.0168  1.5286
69926SOL    HW221504  12.367   8.283   4.112  1.8053 -0.9590 -0.3428
69927SOL     OW21505   8.125  11.444   1.953 -0.1129 -0.3837 -0.0111
69927SOL    HW121506   8.159  11.479   2.035 -2.0489 -0.0505  0.6920
69927SOL    HW221507   8.180  11.368   1.935  0.6184 -0.2080  1.3728
69928SOL     OW21508  10.423   7.139  12.794  0.2678  0.9521 -0.1779
69928SOL    HW121509  10.436   7.061  12.848  0.3868  0.6036 -0.7015
69928SOL    HW221510  10.346   7.119  12.740 -0.6751  1.8194  0.7807
69929SOL     OW21511   2.711   6.772   2.840 -0.1211  0.0184 -0.3921
69929SOL    HW121512   2.733   6.706   2.906 -1.2726 -3.1784 -2.9450
69929SOL    HW221513   2.626   6.744   2.806 -2.0421  4.4278  0.1218
69930SOL     OW21514   7.069   3.127  11.252 -0.2229  0.3691 -0.0866
69930SOL    HW121515   6.986   3.165  11.224 -0.6018 -0.0320  0.4795
69930SOL    HW221516   7.063   3.122  11.347  1.6937  3.2926  0.3389
69931SOL     OW21517   0.655   9.173  12.208  0.1177  0.2675 -0.8895
69931SOL    HW121518   0.656   9.210  12.120  1.5977 -1.8006 -1.8244
69931SOL    HW221519   0.720   9.223  12.256 -0.2170  0.9674 -1.1463
69932SOL     OW21520  12.964  11.424   4.891 -0.2554 -0.0831 -0.3130
69932SOL    HW121521  12.984  11.332   4.911 -0.2667  0.5774  3.5276
69932SOL    HW221522  13.041  11.472   4.919 -1.1152  1.2379 -0.1389
69933SOL     OW21523   1.939  13.499   0.681  0.6713  0.7230 -0.6414
69933SOL    HW121524   1.871  13.457   0.734  1.2432  0.3789 -0.1650
69933SOL    HW221525   2.008  13.433   0.674  1.7593  1.6919  0.4608
69934SOL     OW21526   3.985  10.329   4.588  0.3783  0.1443 -0.0888
69934SOL    HW121527   4.009  10.305   4.677  2.0246 -0.2088 -0.5855
69934SOL    HW221528   4.011  10.253   4.535  0.6783  0.8749 -1.0181
69935SOL     OW21529   8.440   3.064  10.915 -0.1412  0.3591 -1.0445
69935SOL    HW121530   8.430   3.020  10.830 -1.6315  0.1453 -0.7819
69935SOL    HW221531   8.450   3.156  10.893 -0.3529  0.2835 -1.4730
69936SOL     OW21532   9.890   8.653   5.940  0.0663 -0.1764  0.3880
69936SOL    HW121533   9.879   8.560   5.920 -0.3401  0.1271 -0.9098
69936SOL    HW221534   9.977   8.659   5.980 -0.2425 -1.2144  1.2647
69937SOL     OW21535   7.883  13.531  11.502  0.8318 -0.3943  0.1702
69937SOL    HW121536   7.836  13.507  11.582  1.9015 -1.2631  0.5686
69937SOL    HW221537   7.887  13.626  11.505 -2.4047 -0.1162 -0.7826
69938SOL     OW21538   8.811   9.462  11.513  0.1746  0.5193  0.1488
69938SOL    HW121539   8.867   9.523  11.465  0.8134 -1.2954 -1.5406
69938SOL    HW221540   8.834   9.376  11.478 -0.0881 -0.8209  3.0113
69939SOL     OW21541   9.031   7.504   5.879  0.7033 -0.6767 -0.3955
69939SOL    HW121542   8.997   7.573   5.936 -0.2640 -1.5127  0.0782
69939SOL    HW221543   8.968   7.501   5.806 -0.0443 -1.9358  0.2633
69940SOL     OW21544  12.555   9.206  11.238 -0.2066 -0.6952 -0.0416
69940SOL    HW121545  12.517   9.288  11.205  0.5697  0.0756  0.9163
69940SOL    HW221546  12.484   9.165  11.288 -0.5137 -0.4709 -0.2899
69941SOL     OW21547   1.159  12.176   2.209 -0.3458  0.2208  0.0341
69941SOL    HW121548   1.240  12.211   2.245  0.9172  0.4438 -2.7956
69941SOL    HW221549   1.112  12.253   2.176 -0.5124 -0.1459 -0.6030
69942SOL     OW21550   9.051   2.514   1.258 -0.2721 -0.1509 -0.2537
69942SOL    HW121551   9.010   2.599   1.241  0.1233  0.3535  1.2222
69942SOL    HW221552   9.064   2.476   1.170  1.3183  2.1393 -1.1165
69943SOL     OW21553   6.456   1.264   2.786 -0.0782  0.8406  0.4365
69943SOL    HW121554   6.526   1.299   2.840 -0.2227  1.0589  0.4845
69943SOL    HW221555   6.426   1.186   2.832 -0.2518  1.0680  0.7095
69944SOL     OW21556   3.532   5.884  10.149  0.0600  0.0869  0.6087
69944SOL    HW121557   3.589   5.959  10.165  0.5198  0.6211 -2.6669
69944SOL    HW221558   3.567   5.844  10.070 -1.3083 -2.4904  1.2061
69945SOL     OW21559   3.309   5.998   6.372 -0.1198 -0.0324  0.1851
69945SOL    HW121560   3.241   5.973   6.310 -0.6588  0.6966  0.4546
69945SOL    HW221561   3.260   6.030   6.449  0.5286 -0.9958  1.0162
69946SOL     OW21562   7.462  13.131   8.353  0.3948  0.3253 -0.1764
69946SOL    HW121563   7.400  13.069   8.390  1.9199 -1.6515 -0.7528
69946SOL    HW221564   7.409  13.188   8.298 -0.8701 -1.7620 -1.2378
69947SOL     OW21565  10.752   0.650   3.613  0.2524 -0.2384  0.1848
69947SOL    HW121566  10.797   0.724   3.572 -0.8365 -0.4702 -1.5239
69947SOL    HW221567  10.727   0.593   3.540  1.2915 -2.4793  1.4563
69948SOL     OW21568  10.540  13.585   1.098  0.2948  0.8092 -0.6468
69948SOL    HW121569  10.555  13.680   1.102 -0.1824  1.0544 -3.0258
69948SOL    HW221570  10.448  13.575   1.122  0.7618  0.7302  1.2265
69949SOL     OW21571   5.431   9.510   0.765  0.0919  0.1086 -0.6431
69949SOL    HW121572   5.524   9.512   0.787 -0.2591 -1.4325  1.2624
69949SOL    HW221573   5.415   9.590   0.716  2.6619 -0.1570 -2.0636
69950SOL     OW21574   4.654  13.431  10.953  0.0491 -0.0562 -0.2143
69950SOL    HW121575   4.613  13.518  10.959 -0.0848 -0.0702 -0.8398
69950SOL    HW221576   4.674  13.421  10.860 -0.0275 -0.7380 -0.1604
69951SOL     OW21577  13.552  11.078  11.545 -0.0534 -0.5058 -0.9133
69951SOL    HW121578  13.508  11.087  11.630 -1.0250  1.6000 -1.5550
69951SOL    HW221579  13.486  11.107  11.482  1.2351 -0.3236 -2.2127
69952SOL     OW21580   4.807   9.693  10.192 -0.2708  0.2406 -0.3434
69952SOL    HW121581   4.763   9.725  10.271 -0.0304 -0.6155  0.1454
69952SOL    HW221582   4.737   9.691  10.126 -0.2135  2.1492 -0.5243
69953SOL     OW21583  11.000   7.124  12.629 -0.3271  0.4704 -0.0501
69953SOL    HW121584  10.917   7.077  12.618 -0.2968  0.0366  1.3120
69953SOL    HW221585  10.978   7.215  12.613 -0.9880  0.3071 -0.1152
69954SOL     OW21586   7.491   3.373   3.666  0.1881 -0.3624  0.1505
69954SOL    HW121587   7.515   3.374   3.573 -0.9121 -0.2336 -0.1466
69954SOL    HW221588   7.506   3.282   3.693 -2.5323 -1.2644 -1.0242
69955SOL     OW21589   7.388   3.192   3.091  0.2183 -0.0634  0.6194
69955SOL    HW121590   7.379   3.281   3.058 -0.8234  0.1855  1.4883
69955SOL    HW221591   7.475   3.164   3.064  0.4357  1.1056  0.0664
69956SOL     OW21592   9.430   8.294   3.716 -0.6824  0.3808 -0.6680
69956SOL    HW121593   9.431   8.385   3.745  0.3286 -0.4273  2.1826
69956SOL    HW221594   9.517   8.279   3.681 -1.5533  1.0412 -3.3455
69957SOL     OW21595   5.842   9.768   2.573 -0.2322 -0.0920 -0.3823
69957SOL    HW121596   5.930   9.805   2.587  0.1829 -0.5407 -1.7108
69957SOL    HW221597   5.783   9.838   2.601  0.5363  1.8132 -3.0862
69958SOL     OW21598   5.491  10.461   7.171  0.2622  0.0291 -0.2398
69958SOL    HW121599   5.410  10.425   7.207  1.0661 -0.2554  1.4322
69958SOL    HW221600   5.467  10.495   7.086 -1.7179  0.3741  0.4057
69959SOL     OW21601  11.993  12.675   0.954  0.3738  0.3841 -0.2429
69959SOL    HW121602  11.946  12.725   1.022  0.2926  0.1998 -0.1618
69959SOL    HW221603  12.007  12.737   0.883  0.6161  0.6259  0.0169
69960SOL     OW21604   5.296   1.050   7.075 -0.7029 -0.2400  0.2093
69960SOL    HW121605   5.215   1.030   7.123 -0.6685 -0.4366  0.1862
69960SOL    HW221606   5.347   1.104   7.136 -1.2799  0.7369 -0.1550
69961SOL     OW21607   3.878   2.876   2.955  0.8908  0.5914 -0.1493
69961SOL    HW121608   3.874   2.888   3.050  1.2534  0.9829 -0.1813
69961SOL    HW221609   3.969   2.893   2.932  0.9917 -0.3237 -0.4652
69962SOL     OW21610   2.772  13.494   4.112  0.1931  0.3190 -0.1303
69962SOL    HW121611   2.772  13.525   4.203  0.7189  0.2427 -0.1044
69962SOL    HW221612   2.739  13.404   4.117 -1.0705  0.7525 -0.1736
69963SOL     OW21613   1.435   4.460   7.155 -0.3037  0.3647  0.3482
69963SOL    HW121614   1.515   4.468   7.103  0.1633  1.7310  1.2178
69963SOL    HW221615   1.400   4.374   7.134 -0.8641  1.3069 -3.2621
69964SOL     OW21616   2.486   0.808  11.058  0.0542  0.5164 -0.5572
69964SOL    HW121617   2.544   0.883  11.074  0.9696 -0.3185  0.1304
69964SOL    HW221618   2.412   0.823  11.118  0.3716  0.7270 -0.2063
69965SOL     OW21619   7.523  11.954   7.081 -0.3885  0.3048 -0.2651
69965SOL    HW121620   7.485  12.015   7.018 -1.1519 -0.0543 -0.1592
69965SOL    HW221621   7.493  11.868   7.052 -0.2176  0.0789  0.2252
69966SOL     OW21622   8.465   9.686  10.313  0.0579 -0.4258 -0.4412
69966SOL    HW121623   8.553   9.718  10.334 -0.3000 -0.3396  1.0555
69966SOL    HW221624   8.461   9.600  10.355 -0.5977 -0.3944 -0.4328
69967SOL     OW21625   2.121  12.628   4.712  0.5431  0.4016 -0.5215
69967SOL    HW121626   2.160  12.607   4.797 -1.7648  1.4797  0.8996
69967SOL    HW221627   2.186  12.598   4.648  2.3904 -0.4075  1.5892
69968SOL     OW21628   5.515   2.192   1.523 -0.1815  0.3539  0.2617
69968SOL    HW121629   5.424   2.196   1.494 -0.0454  2.2231 -0.0059
69968SOL    HW221630   5.566   2.227   1.450  0.4916  1.8273  1.3779
69969SOL     OW21631   9.047   8.441   0.789 -0.0394  0.4662 -0.4671
69969SOL    HW121632   9.141   8.454   0.785  0.0035  0.6395  0.8381
69969SOL    HW221633   9.033   8.385   0.865 -1.0161  0.6902 -0.4635
69970SOL     OW21634   3.268  10.182  11.441  0.5388 -0.2911  0.1022
69970SOL    HW121635   3.210  10.203  11.368 -0.0045  0.0272  0.6082
69970SOL    HW221636   3.346  10.236  11.427  0.3358 -0.0502 -0.1179
69971SOL     OW21637   8.942   2.214   2.755  0.2087 -0.4135 -0.3119
69971SOL    HW121638   8.972   2.300   2.784  0.1934  0.2542 -2.1335
69971SOL    HW221639   8.974   2.207   2.665  0.6851 -2.5618 -0.0218
69972SOL     OW21640   7.195   7.151  12.836  0.5435 -0.0660  0.3121
69972SOL    HW121641   7.141   7.154  12.915  1.0179 -1.2790  0.6923
69972SOL    HW221642   7.134   7.172  12.765  0.1840  1.3920  1.0054
69973SOL     OW21643   3.409   7.058   9.065 -0.0939 -0.1185 -0.5337
69973SOL    HW121644   3.389   7.100   9.149  0.1622 -0.4643 -0.2979
69973SOL    HW221645   3.324   7.050   9.022 -0.1743  0.4461 -0.4923
69974SOL     OW21646   7.319   9.975   6.321 -0.1038 -0.0414 -0.1062
69974SOL    HW121647   7.379   9.942   6.253 -0.6969  3.1452 -2.4269
69974SOL    HW221648   7.244   9.916   6.316  0.1141 -0.2452 -1.8850
69975SOL     OW21649  10.184   3.680   7.453 -0.3855 -0.2099  0.1389
69975SOL    HW121650  10.167   3.722   7.537 -0.0175  0.6446 -0.2046
69975SOL    HW221651  10.102   3.634   7.432 -1.8172  2.5367 -0.7323
69976SOL     OW21652   3.609   4.749   6.370 -0.2833 -0.1148  0.6895
69976SOL    HW121653   3.673   4.699   6.420 -0.2798 -0.1572  0.6421
69976SOL    HW221654   3.549   4.684   6.334  1.3572 -0.4003 -1.7760
69977SOL     OW21655   8.076  10.162   7.742 -0.0374  0.0730  0.1630
69977SOL    HW121656   8.080  10.144   7.836 -1.5462  1.3199  0.5129
69977SOL    HW221657   8.119  10.247   7.732  1.1197 -0.5640 -0.4697
69978SOL     OW21658   0.183   8.771  10.051  0.4493 -0.1391 -0.4695
69978SOL    HW121659   0.098   8.765  10.096  0.1953  2.2251 -0.5011
69978SOL    HW221660   0.221   8.853  10.083  2.1349 -0.4835 -1.4794
69979SOL     OW21661  12.564   5.916   8.983 -0.2357 -0.6975  0.3040
69979SOL    HW121662  12.512   5.930   8.903  1.8043  2.3912 -0.6719
69979SOL    HW221663  12.631   5.853   8.957  1.8554  1.9726 -1.3745
69980SOL     OW21664   3.033  11.851   6.639 -0.1586 -0.5659 -0.3175
69980SOL    HW121665   3.065  11.912   6.573 -1.1377  0.7524  0.3767
69980SOL    HW221666   2.961  11.804   6.597  0.1132 -0.7055 -0.6228
69981SOL     OW21667   7.157   6.558   8.369  0.3125  0.0749  0.2279
69981SOL    HW121668   7.252   6.550   8.365  0.1869 -1.6995  0.2564
69981SOL    HW221669   7.135   6.618   8.297  1.2227 -1.8347 -1.7697
69982SOL     OW21670  12.773  11.451  11.559  0.2825 -0.6360 -0.0133
69982SOL    HW121671  12.780  11.465  11.653  1.3962  0.5500 -0.2465
69982SOL    HW221672  12.736  11.363  11.550  2.3701 -1.7286  1.5144
69983SOL     OW21673   0.030  13.606   2.746  0.6575  0.4680  0.5761
69983SOL    HW121674   0.002  13.568   2.829 -1.2875 -1.1664 -0.7153
69983SOL    HW221675   0.014  13.700   2.756 -1.2705  0.1025  1.4875
69984SOL     OW21676  12.756   1.316   2.898  0.1594 -0.1230 -0.2723
69984SOL    HW121677  12.666   1.338   2.922  0.5811  3.0847 -1.2127
69984SOL    HW221678  12.806   1.324   2.980 -0.2063 -0.8348  0.0286
69985SOL     OW21679   7.996   6.791  11.964 -0.7098  0.0915 -0.1137
69985SOL    HW121680   8.003   6.872  11.915 -0.5222  1.0777  1.4591
69985SOL    HW221681   8.023   6.814  12.053  0.3232 -1.9230  0.1671
69986SOL     OW21682  10.752   2.974  12.944 -0.0870  0.1520  0.4947
69986SOL    HW121683  10.759   3.009  13.033 -1.4651  0.9254  0.3309
69986SOL    HW221684  10.695   2.897  12.954  0.8243 -0.5472  0.4577
69987SOL     OW21685  11.953  13.604   7.531  0.3340  0.2434 -0.2761
69987SOL    HW121686  11.959  13.634   7.622 -1.2122 -0.2296  0.0127
69987SOL    HW221687  11.861  13.583   7.518  0.6369 -0.3476 -1.7587
69988SOL     OW21688   7.846   8.571   0.681 -0.0782  0.3088  0.0396
69988SOL    HW121689   7.763   8.581   0.728  0.0744 -0.5025  0.5053
69988SOL    HW221690   7.912   8.560   0.750  0.2930  0.1118 -0.3431
69989SOL     OW21691   3.017   0.397   5.087  0.0821  0.3281 -0.2928
69989SOL    HW121692   2.955   0.352   5.145  0.7706 -0.7278 -0.3537
69989SOL    HW221693   2.970   0.405   5.004  0.3392 -1.3020 -0.6206
69990SOL     OW21694  13.164   5.367   3.307  0.1062  0.2881 -0.3636
69990SOL    HW121695  13.151   5.425   3.382  0.7877  0.9943 -0.7897
69990SOL    HW221696  13.139   5.419   3.231  0.4556 -0.0690 -0.7275
69991SOL     OW21697   8.005   3.562  11.144  0.1135  0.4076 -0.4666
69991SOL    HW121698   7.965   3.476  11.127  0.5573 -0.1288  1.0424
69991SOL    HW221699   7.930   3.620  11.158 -0.1876  0.1752 -1.0729
69992SOL     OW21700   4.710   2.235  10.747  0.2424 -0.3137 -0.0255
69992SOL    HW121701   4.680   2.205  10.833  0.3384 -2.0175 -0.5507
69992SOL    HW221702   4.663   2.317  10.734 -2.0681 -1.4664  0.4192
69993SOL     OW21703   6.526   0.597   7.185  0.0405  0.1431 -0.0592
69993SOL    HW121704   6.607   0.583   7.233 -0.7267 -2.4691  0.6206
69993SOL    HW221705   6.494   0.682   7.218  1.8599  0.6537  0.5220
69994SOL     OW21706  12.188   8.316   1.054  0.0506  0.0466  0.0997
69994SOL    HW121707  12.103   8.272   1.053 -0.1125  0.3495 -1.2979
69994SOL    HW221708  12.181   8.381   1.123  0.0053 -1.5151  1.6534
69995SOL     OW21709   1.068   2.036   6.436  0.3471  0.1545  0.2437
69995SOL    HW121710   1.045   1.956   6.482 -0.5929 -0.6450 -1.5220
69995SOL    HW221711   1.081   2.009   6.345  1.0161  1.8454 -0.2054
69996SOL     OW21712  13.535   2.751  12.178  0.2790 -0.5215 -0.6091
69996SOL    HW121713  13.476   2.684  12.213 -0.1764  0.3584  0.3718
69996SOL    HW221714  13.533   2.820  12.243  1.0417  0.2832 -1.4196
69997SOL     OW21715  10.310   6.612  12.704  0.0221  0.1113  0.0535
69997SOL    HW121716  10.270   6.637  12.621  0.7848 -0.9249 -0.6459
69997SOL    HW221717  10.333   6.519  12.693  0.8399  0.1643  1.1335
69998SOL     OW21718   9.419   7.715   6.111 -0.0057  0.8190 -0.3368
69998SOL    HW121719   9.377   7.791   6.071  0.6414  0.3631 -1.9497
69998SOL    HW221720   9.347   7.652   6.122 -0.2157  0.9909 -0.6904
69999SOL     OW21721   0.287   5.924  13.650  0.6727  0.7470  0.6699
69999SOL    HW121722   0.373   5.914  13.609  0.1759  0.1849 -0.2741
69999SOL    HW221723   0.268   5.837  13.686  0.2341  0.6954  0.3229
70000SOL     OW21724   5.758   1.533   1.245  0.6321  0.4783  0.4282
70000SOL    HW121725   5.721   1.511   1.331 -1.6167  1.6863 -0.1731
70000SOL    HW221726   5.724   1.620   1.225 -0.3344 -0.4357 -2.4359
70001SOL     OW21727  10.022  13.674   8.952 -0.0613  0.1279 -0.2906
70001SOL    HW121728   9.984  13.610   8.892  0.1579 -0.5686  0.3011
70001SOL    HW221729  10.067  13.622   9.018 -0.3941  0.8746  0.5508
70002SOL     OW21730  13.046   3.550   0.435 -0.1772 -0.5641 -0.2118
70002SOL    HW121731  13.131   3.552   0.479  0.2411 -1.7208 -0.9231
70002SOL    HW221732  13.012   3.638   0.445  0.5658 -0.4010  1.1367
70003SOL     OW21733   2.171   1.655   2.791 -0.1006 -0.1611  0.4386
70003SOL    HW121734   2.094   1.679   2.741 -0.4403 -0.6893  0.6975
70003SOL    HW221735   2.232   1.619   2.727  0.8722  2.3349 -0.1553
70004SOL     OW21736   8.009   0.697   4.573 -0.3384  0.5246 -0.1214
70004SOL    HW121737   8.083   0.678   4.631 -0.4769 -1.4505 -0.5137
70004SOL    HW221738   8.049   0.734   4.494  0.0485  1.1287  0.3457
70005SOL     OW21739   4.898   1.172   0.682 -0.4125 -0.5847  0.0429
70005SOL    HW121740   4.947   1.236   0.734  0.4497  0.1357 -1.5461
70005SOL    HW221741   4.812   1.212   0.669 -0.1014 -0.0443 -0.3808
70006SOL     OW21742  11.328   6.907  10.179  0.1230  0.0933 -0.1527
70006SOL    HW121743  11.246   6.880  10.218  0.4451 -0.7073 -0.0144
70006SOL    HW221744  11.344   6.995  10.214 -0.5846  0.1825 -0.0569
70007SOL     OW21745   4.046  13.381   8.324  0.1699 -0.1353 -0.2935
70007SOL    HW121746   3.982  13.316   8.351 -0.0739  0.8250  1.6023
70007SOL    HW221747   4.131  13.338   8.335 -0.0678 -1.2349 -2.3276
70008SOL     OW21748  10.085  10.224   1.582 -0.2899  0.5709 -0.5550
70008SOL    HW121749  10.094  10.144   1.530 -1.1269 -0.1784  0.4008
70008SOL    HW221750  10.132  10.291   1.532  2.8954 -1.0920 -0.0787
70009SOL     OW21751   0.455   2.381   1.254 -0.0455 -0.0326  0.3326
70009SOL    HW121752   0.401   2.445   1.302  0.8570  1.1931 -0.2310
70009SOL    HW221753   0.539   2.382   1.300  0.0473 -0.6716  0.1873
70010SOL     OW21754   4.389   0.835   4.790  0.4069 -0.2683  0.2353
70010SOL    HW121755   4.474   0.859   4.826 -0.1075  2.0981  0.0797
70010SOL    HW221756   4.329   0.840   4.865 -0.3180  2.7218 -0.3880
70011SOL     OW21757   7.500  10.886   2.786  0.1524  0.1498 -0.3431
70011SOL    HW121758   7.472  10.971   2.820 -1.2360 -1.2172  2.2300
70011SOL    HW221759   7.418  10.840   2.767  0.8745 -0.7510 -1.3475
70012SOL     OW21760   0.103   5.997  10.374 -1.0406 -0.2736 -0.0406
70012SOL    HW121761   0.083   6.058  10.303 -0.6083 -0.2916 -0.1812
70012SOL    HW221762   0.173   6.039  10.423  0.8200 -1.5890 -1.4139
70013SOL     OW21763  11.260   5.597  11.663  0.1997  0.0317 -0.2257
70013SOL    HW121764  11.196   5.627  11.728  0.3641  0.4554 -0.2629
70013SOL    HW221765  11.229   5.509  11.639 -0.8735  0.5800 -0.9046
70014SOL     OW21766  11.706   1.665   0.741  0.0296 -0.1866 -0.2715
70014SOL    HW121767  11.693   1.679   0.647 -0.1804  4.4816  0.2248
70014SOL    HW221768  11.645   1.725   0.783  1.8060 -0.3493  2.8267
70015SOL     OW21769   9.346  10.680   3.560 -0.2804  0.5424 -0.0265
70015SOL    HW121770   9.388  10.604   3.521  0.9479  0.8912  0.5821
70015SOL    HW221771   9.253  10.656   3.565 -0.2101 -0.1906 -1.5102
70016SOL     OW21772   0.764  11.827   2.760 -0.3383  0.2887 -0.4697
70016SOL    HW121773   0.762  11.903   2.819 -1.0235 -0.1629  0.1188
70016SOL    HW221774   0.766  11.752   2.819  2.1083 -0.1674 -1.0261
70017SOL     OW21775   2.841   5.333  11.711  0.0169  0.0001  0.0266
70017SOL    HW121776   2.897   5.386  11.654 -0.9489  0.2512 -0.7182
70017SOL    HW221777   2.851   5.372  11.798 -0.5188  1.2865 -0.4748
70018SOL     OW21778   6.401   2.278   5.801 -0.1787  0.1340 -0.4392
70018SOL    HW121779   6.347   2.351   5.771  0.1247  1.0554  1.1356
70018SOL    HW221780   6.448   2.313   5.877  1.1391 -1.2462 -0.5773
70019SOL     OW21781  10.052   8.047   4.080  0.0325  0.1206 -0.2004
70019SOL    HW121782   9.970   8.019   4.120 -1.0822  2.5089 -0.6573
70019SOL    HW221783  10.043   8.025   3.987 -0.1771  0.5504 -0.2831
70020SOL     OW21784  13.542   8.926   0.111 -0.1779 -0.0135  0.6348
70020SOL    HW121785  13.564   8.837   0.138  1.4388  0.1420 -0.0038
70020SOL    HW221786  13.624   8.959   0.073 -1.5186  0.7715 -1.7127
70021SOL     OW21787   4.911   5.029  12.805  0.2116  0.2718  0.6081
70021SOL    HW121788   4.938   5.052  12.716 -2.2161  0.8755 -0.0602
70021SOL    HW221789   4.871   4.942  12.797  2.5080 -0.9839  1.7170
70022SOL     OW21790  11.122   3.580   4.172  1.0137 -0.0604  0.0308
70022SOL    HW121791  11.055   3.640   4.137 -1.1193 -2.0120  0.5325
70022SOL    HW221792  11.089   3.493   4.152  2.8985 -1.1306  1.3128
70023SOL     OW21793  11.540  11.016  12.703 -0.2379  0.5699 -0.2622
70023SOL    HW121794  11.562  10.940  12.758 -0.4980 -0.2306 -1.2506
70023SOL    HW221795  11.575  11.091  12.752  0.2813 -0.2049  0.5897
70024SOL     OW21796   5.029   8.189   8.962  0.4273 -0.1609  0.5344
70024SOL    HW121797   5.105   8.171   8.907 -0.2538 -0.7886 -0.2462
70024SOL    HW221798   5.026   8.285   8.969  1.9141 -0.1630  1.5260
70025SOL     OW21799  10.561   0.353  11.523 -0.7771  0.3107  0.0057
70025SOL    HW121800  10.633   0.389  11.471  0.1572 -1.6349 -0.1236
70025SOL    HW221801  10.495   0.423  11.523  0.9673  2.0638 -0.0761
70026SOL     OW21802  12.363   8.490  11.924 -0.2963  0.0562  0.2306
70026SOL    HW121803  12.332   8.517  12.011 -0.3960  1.2899 -0.1683
70026SOL    HW221804  12.423   8.418  11.942 -3.0259 -2.2011  1.0769
70027SOL     OW21805  10.649   4.717  10.986  0.0563  0.0340  0.2162
70027SOL    HW121806  10.643   4.627  10.953 -0.1643 -0.2741  1.0903
70027SOL    HW221807  10.610   4.714  11.073  1.7538  0.5843  1.0299
70028SOL     OW21808   6.311   8.686   0.447  0.0642 -0.3428  0.1455
70028SOL    HW121809   6.295   8.717   0.358 -2.5529 -1.2115  0.2443
70028SOL    HW221810   6.390   8.632   0.439  0.9217  1.0050 -1.2546
70029SOL     OW21811   1.962  13.419  13.591 -0.2719  0.6727 -0.4174
70029SOL    HW121812   2.039  13.462  13.629 -0.1973  0.1323  0.0458
70029SOL    HW221813   1.889  13.476  13.613  0.0422  1.4171 -1.2311
70030SOL     OW21814   1.161   5.751   7.738  0.2410  0.0857  0.0971
70030SOL    HW121815   1.245   5.748   7.692  0.8717  0.5167  1.1898
70030SOL    HW221816   1.117   5.671   7.710  1.8599 -1.2183  1.0359
70031SOL     OW21817  11.087   5.947  12.436 -0.3681 -0.3605  0.0427
70031SOL    HW121818  11.060   5.857  12.452 -1.9954 -0.0308 -0.5576
70031SOL    HW221819  11.009   5.988  12.398  0.9002  0.8477 -1.3534
70032SOL     OW21820   6.089   6.170   3.442  0.6793 -0.3761  0.1455
70032SOL    HW121821   6.123   6.115   3.512 -0.4701  1.4686  2.2701
70032SOL    HW221822   6.023   6.116   3.398  1.0960 -1.4083  0.7596
70033SOL     OW21823   1.830   2.070   5.676  0.1613  0.1451  0.2318
70033SOL    HW121824   1.840   1.975   5.678  1.7503  0.2118 -1.4372
70033SOL    HW221825   1.903   2.103   5.726 -0.0501  0.5010  0.3083
70034SOL     OW21826  11.961   4.379   2.525  0.4712 -0.0168 -0.4681
70034SOL    HW121827  11.883   4.347   2.480  0.2784  0.1682 -0.2704
70034SOL    HW221828  11.978   4.314   2.593 -0.5002  0.7726  0.5752
70035SOL     OW21829   1.435   8.661   1.592  0.0953 -0.2049  0.1745
70035SOL    HW121830   1.467   8.644   1.680 -0.6712 -0.7258  0.3654
70035SOL    HW221831   1.408   8.753   1.594  2.2683  0.4933 -0.2347
70036SOL     OW21832   7.908   4.553  13.205  0.2854  0.4946  0.8534
70036SOL    HW121833   7.990   4.575  13.249  0.7165 -1.7098  1.2620
70036SOL    HW221834   7.841   4.592  13.260  1.0242  2.1867  0.6092
70037SOL     OW21835  12.810   2.295   8.037 -0.4867 -0.1053  0.0150
70037SOL    HW121836  12.774   2.376   7.999  0.0166  0.1689  0.1098
70037SOL    HW221837  12.778   2.295   8.127 -0.1292  0.2211  0.1470
70038SOL     OW21838   3.002  11.807   2.886  0.2657 -0.1495  0.1275
70038SOL    HW121839   2.907  11.813   2.875  0.4124  0.4398 -0.9886
70038SOL    HW221840   3.017  11.719   2.921 -0.6621 -0.4023 -0.0903
70039SOL     OW21841  12.868   2.563   3.017  0.2711  0.2566 -0.3250
70039SOL    HW121842  12.833   2.621   3.085  1.5046  1.2276 -0.4639
70039SOL    HW221843  12.946   2.524   3.056  0.4543  0.0798 -0.8558
70040SOL     OW21844  10.663   4.321  12.654 -0.3887  0.2542  0.4906
70040SOL    HW121845  10.623   4.378  12.588 -1.0822  0.5002  1.1100
70040SOL    HW221846  10.615   4.239  12.648  0.7658 -0.3942 -0.5655
70041SOL     OW21847   9.597   2.876  12.278  0.4069 -0.1511 -0.1234
70041SOL    HW121848   9.630   2.943  12.339  0.2902 -1.3371  1.3079
70041SOL    HW221849   9.542   2.925  12.217  0.2788  1.0665  0.9043
70042SOL     OW21850  10.836   8.853   2.922 -0.2221  0.3244 -0.5356
70042SOL    HW121851  10.819   8.890   2.835 -0.4958 -0.8813 -1.0087
70042SOL    HW221852  10.930   8.835   2.922 -0.3239 -0.2195 -0.8035
70043SOL     OW21853   3.266   0.272   2.215 -0.1137 -0.0464  0.0354
70043SOL    HW121854   3.219   0.271   2.132 -1.9466  1.1983  0.9741
70043SOL    HW221855   3.330   0.343   2.206  0.2344 -0.4310 -0.5652
70044SOL     OW21856   2.796   3.517  10.809  0.0403 -0.3939 -0.0702
70044SOL    HW121857   2.793   3.603  10.853  2.2389 -0.6937  0.7901
70044SOL    HW221858   2.793   3.454  10.881  0.7566 -0.9656 -0.5328
70045SOL     OW21859   5.007   2.808   1.814  0.0886 -0.4627 -0.0216
70045SOL    HW121860   5.034   2.752   1.741  0.8748 -1.4808  1.0218
70045SOL    HW221861   4.995   2.894   1.774  2.7192 -0.4586 -0.9767
70046SOL     OW21862   0.076   5.678   0.750  0.0972  0.6273 -0.5354
70046SOL    HW121863   0.055   5.586   0.732  1.5547  0.2892 -0.6685
70046SOL    HW221864   0.120   5.709   0.670  1.7652  0.6998  0.3499
70047SOL     OW21865   2.987   4.985  10.608  0.3298  0.2322 -0.0221
70047SOL    HW121866   2.977   4.978  10.513 -0.3516  1.5505 -0.0639
70047SOL    HW221867   2.901   5.013  10.639  0.3633 -0.8120  1.0661
70048SOL     OW21868   4.458   9.646   0.620  0.1883 -0.3648 -0.4660
70048SOL    HW121869   4.523   9.602   0.565  2.4975  0.6455  1.2847
70048SOL    HW221870   4.471   9.739   0.602  0.9112 -0.0156  1.5816
70049SOL     OW21871   4.290  13.717   5.616 -0.3079 -0.2260  0.2071
70049SOL    HW121872   4.324  13.641   5.570 -0.8164 -0.5138  0.2999
70049SOL    HW221873   4.356  13.736   5.683  0.9538  0.8349 -1.2703
70050SOL     OW21874   5.637   6.631  12.368 -0.0186  0.2616  0.3957
70050SOL    HW121875   5.604   6.565  12.429 -1.8016 -0.1918 -1.0065
70050SOL    HW221876   5.567   6.643  12.304  2.0765  0.1247 -2.0700
70051SOL     OW21877  12.997   7.387   9.155 -0.3851  0.5637  0.1477
70051SOL    HW121878  12.956   7.473   9.157  1.9258  1.7240  2.5039
70051SOL    HW221879  13.047   7.382   9.236  0.5589 -2.5335 -0.4929
70052SOL     OW21880   5.324   6.543   7.378 -0.0506 -0.2486 -0.0876
70052SOL    HW121881   5.367   6.607   7.434 -1.5682 -0.1728  1.0517
70052SOL    HW221882   5.268   6.596   7.320 -0.9449 -0.4887  0.5375
70053SOL     OW21883   9.755   0.267   8.918 -0.0504 -0.4155  0.0715
70053SOL    HW121884   9.815   0.228   8.853 -0.3045 -0.6658 -0.0138
70053SOL    HW221885   9.813   0.296   8.989  0.0775 -1.8431  0.5966
70054SOL     OW21886   7.716   0.487   7.473 -0.2417  0.0507 -0.4818
70054SOL    HW121887   7.807   0.515   7.481  0.1144 -0.1383 -2.9625
70054SOL    HW221888   7.721   0.406   7.422 -1.7378 -0.6390  0.4097
70055SOL     OW21889  10.825   1.070   8.076 -0.5153  0.1198  0.4927
70055SOL    HW121890  10.809   1.095   8.167 -2.1841  0.9920 -0.0036
70055SOL    HW221891  10.873   0.988   8.082 -1.2915 -0.2479  2.1629
70056SOL     OW21892   9.794   5.821   9.444  0.2666  0.1588  0.4110
70056SOL    HW121893   9.775   5.890   9.507  0.1123  1.4027 -0.9300
70056SOL    HW221894   9.715   5.814   9.391  1.4023  1.3980 -1.6079
70057SOL     OW21895  12.276   0.633   0.529  0.2120  0.5060  0.1356
70057SOL    HW121896  12.246   0.693   0.460  0.1517  0.2564 -0.0557
70057SOL    HW221897  12.303   0.554   0.482 -0.4182  0.0946  0.4533
70058SOL     OW21898   9.875   7.427   3.166 -0.3156  0.1870 -0.2497
70058SOL    HW121899   9.905   7.502   3.218  0.8167 -1.5788  1.7977
70058SOL    HW221900   9.795   7.398   3.210  1.0672 -1.8006  1.1784
70059SOL     OW21901  13.257  11.340  10.023 -0.4209  0.0038  0.1350
70059SOL    HW121902  13.190  11.393  10.065 -1.5212  0.0882 -1.6277
70059SOL    HW221903  13.328  11.336  10.087 -2.5452 -1.1310  2.6441
70060SOL     OW21904   1.214  11.915  10.368 -0.0185  0.3258 -0.3269
70060SOL    HW121905   1.290  11.894  10.314  0.4774 -0.3817  0.6020
70060SOL    HW221906   1.234  11.877  10.453 -1.5475 -0.1331 -0.1340
70061SOL     OW21907   9.270  12.987  10.469 -0.3104 -0.6448 -0.4301
70061SOL    HW121908   9.185  12.988  10.513 -1.9950  0.8977 -3.4071
70061SOL    HW221909   9.316  13.062  10.506 -0.1081 -1.5562  1.2964
70062SOL     OW21910  11.314   4.696   5.106 -0.2952  0.1582  0.0202
70062SOL    HW121911  11.311   4.660   5.195 -0.2539 -1.0953 -0.4806
70062SOL    HW221912  11.249   4.766   5.107 -3.1575 -2.3423 -0.0585
70063SOL     OW21913   5.387  11.940  12.410  0.3241 -0.0710 -0.1903
70063SOL    HW121914   5.449  11.904  12.346  0.9894 -0.0111  0.4065
70063SOL    HW221915   5.320  11.983  12.356  0.9046  0.0357 -0.8547
70064SOL     OW21916   5.184  13.189   6.639  0.2896  0.2246  0.2249
70064SOL    HW121917   5.260  13.193   6.697  0.6959  2.7395 -0.3984
70064SOL    HW221918   5.213  13.227   6.557 -1.8255  2.0118  0.2116
70065SOL     OW21919   8.072   7.474   6.902 -0.1243  0.6601  0.5065
70065SOL    HW121920   8.114   7.514   6.826 -0.5736  1.1274  0.5017
70065SOL    HW221921   8.130   7.401   6.926 -1.9489 -2.1545 -2.7568
70066SOL     OW21922   1.112   0.934   3.392  0.1189  0.0159  0.5511
70066SOL    HW121923   1.158   0.967   3.315 -0.4572  1.2581  0.7215
70066SOL    HW221924   1.048   0.872   3.357  0.7905 -0.4791  0.1708
70067SOL     OW21925   3.516   4.009  11.124 -0.3972  0.2160  0.2892
70067SOL    HW121926   3.584   4.030  11.188  0.1609 -0.0087 -0.2265
70067SOL    HW221927   3.450   3.962  11.175 -2.1865  3.8749  1.7576
70068SOL     OW21928   6.474   9.618  10.157  0.1786  0.4120  0.2509
70068SOL    HW121929   6.548   9.660  10.202  0.3074 -0.2826  0.7100
70068SOL    HW221930   6.510   9.589  10.073  0.1079  1.1345 -0.0406
70069SOL     OW21931  13.252   5.300   9.477 -0.0010  0.5379 -0.4201
70069SOL    HW121932  13.315   5.371   9.467  2.0930 -1.3501 -1.8165
70069SOL    HW221933  13.282   5.252   9.554 -2.1025  1.7476  1.2386
70070SOL     OW21934  13.237   6.420   1.522 -0.4734 -0.5808  0.1323
70070SOL    HW121935  13.253   6.326   1.530 -0.0612 -0.4514  0.8539
70070SOL    HW221936  13.286   6.460   1.593 -0.8017  0.1721 -0.0459
70071SOL     OW21937   3.498   3.420   7.605 -0.1561 -0.1553  0.1660
70071SOL    HW121938   3.527   3.409   7.515 -0.4083 -2.1796  0.2867
70071SOL    HW221939   3.553   3.359   7.655 -0.2533  0.6876  1.3419
70072SOL     OW21940   0.004   9.439  11.579  0.4380  0.2368 -0.4482
70072SOL    HW121941   0.066   9.432  11.652  1.0335  0.5695 -0.9113
70072SOL    HW221942  -0.081   9.446  11.621  0.6081 -1.1800  0.1869
70073SOL     OW21943   2.857   7.359  11.983 -0.3251  0.4112  0.0238
70073SOL    HW121944   2.768   7.329  12.001 -0.4679  0.8595  0.0939
70073SOL    HW221945   2.846   7.432  11.922 -0.0575  0.8633  0.4975
70074SOL     OW21946   4.036  11.307  10.792  0.0877 -0.0495  0.2782
70074SOL    HW121947   4.039  11.387  10.846 -0.1787  0.9466 -1.1453
70074SOL    HW221948   3.947  11.303  10.758  0.1285 -0.9114  0.2411
70075SOL     OW21949   2.978  11.592  13.035 -0.3445 -0.6227 -0.3525
70075SOL    HW121950   2.892  11.551  13.045 -0.7004  0.2897  0.3489
70075SOL    HW221951   3.007  11.612  13.124  0.1523 -0.0069 -0.6440
70076SOL     OW21952   1.775  12.893  10.696 -0.6338 -0.0746 -0.3570
70076SOL    HW121953   1.783  12.876  10.790  1.1329  0.2275 -0.4228
70076SOL    HW221954   1.863  12.883  10.662 -1.1858  0.1455 -1.9530
70077SOL     OW21955  11.435   0.860   2.174 -0.4432  0.3949 -0.3249
70077SOL    HW121956  11.341   0.846   2.167 -0.3595  0.1860 -1.1618
70077SOL    HW221957  11.471   0.774   2.193 -0.4486  0.5373  0.3459
70078SOL     OW21958   0.627   1.289   5.923 -0.5767  0.1549  0.0899
70078SOL    HW121959   0.689   1.223   5.894  0.1867  0.8739  0.0715
70078SOL    HW221960   0.654   1.370   5.879 -0.2497  0.9432  1.6657
70079SOL     OW21961   8.525   3.017   0.189  0.5865 -0.2305  0.2501
70079SOL    HW121962   8.539   3.108   0.162  1.6273 -0.7162 -0.9942
70079SOL    HW221963   8.472   3.022   0.268 -0.5448  1.3997 -0.5793
70080SOL     OW21964   5.550   1.613   4.041  0.0649 -0.2867 -0.1200
70080SOL    HW121965   5.469   1.660   4.059 -0.0268 -0.8302  0.9442
70080SOL    HW221966   5.598   1.613   4.124  0.3098 -1.5834 -0.2328
70081SOL     OW21967   3.025   2.363   6.038 -1.0532 -0.5835 -0.2686
70081SOL    HW121968   3.072   2.444   6.059 -1.4116 -0.5025  0.2499
70081SOL    HW221969   3.092   2.295   6.039 -0.5644 -0.1645 -1.6917
70082SOL     OW21970   1.445   8.288  12.981 -0.3558  0.0147 -0.5160
70082SOL    HW121971   1.379   8.244  13.034  1.7410 -2.1358  0.5054
70082SOL    HW221972   1.525   8.282  13.032  1.0015  1.1250 -2.3611
70083SOL     OW21973   1.361  12.242   4.074  0.1205  0.0925 -0.2932
70083SOL    HW121974   1.410  12.204   4.001 -0.7062 -2.6512  0.4827
70083SOL    HW221975   1.287  12.286   4.033 -0.9798 -2.3866 -1.1624
70084SOL     OW21976   4.165   2.640   5.516  0.1398 -0.0222  1.1172
70084SOL    HW121977   4.159   2.704   5.445  1.0617  0.4762  1.4741
70084SOL    HW221978   4.136   2.688   5.594  0.1822 -0.2432  1.2705
70085SOL     OW21979  12.572   2.588  11.585 -0.3208  0.4467  0.6354
70085SOL    HW121980  12.595   2.679  11.570  2.1565 -0.4026 -1.6171
70085SOL    HW221981  12.649   2.539  11.555 -1.8816 -2.4128  0.9504
70086SOL     OW21982   7.413   5.914   9.944  1.0779  0.2951 -0.1486
70086SOL    HW121983   7.391   5.903   9.852  2.3906  0.0087 -0.4498
70086SOL    HW221984   7.341   5.965   9.980 -1.4904 -2.8606 -0.3863
70087SOL     OW21985   3.384   7.419  11.564  0.2172 -0.2632 -0.0990
70087SOL    HW121986   3.319   7.480  11.531  0.3505 -0.0826 -0.0304
70087SOL    HW221987   3.362   7.407  11.656 -0.6305 -1.3789 -0.4269
70088SOL     OW21988   0.819   1.554   2.227 -0.6727 -0.5780  0.0356
70088SOL    HW121989   0.744   1.612   2.237 -2.3413 -2.4437 -1.0883
70088SOL    HW221990   0.810   1.490   2.297 -0.9771 -1.6715 -0.9815
70089SOL     OW21991  13.460   0.146  11.781  0.0777 -0.0185  0.2913
70089SOL    HW121992  13.428   0.125  11.868  1.9397  0.7227  1.2009
70089SOL    HW221993  13.489   0.062  11.745 -2.4375 -0.6564 -0.4401
70090SOL     OW21994   7.183   7.120  10.756 -0.0825 -0.3657 -0.8624
70090SOL    HW121995   7.192   7.184  10.826 -0.8863 -1.3162  0.1353
70090SOL    HW221996   7.111   7.153  10.702  1.7644  1.3762 -2.4121
70091SOL     OW21997   7.674   4.587   6.334 -0.0797 -0.4556 -0.1204
70091SOL    HW121998   7.755   4.591   6.282 -0.7369 -0.6873 -1.2065
70091SOL    HW221999   7.619   4.656   6.298 -0.2770 -0.1264  0.7873
70092SOL     OW22000   6.762   3.115   6.911  0.4044 -0.4129 -0.0769
70092SOL    HW122001   6.849   3.157   6.909 -0.1517  0.7643 -0.5035
70092SOL    HW222002   6.734   3.113   6.820 -0.5401  0.3712  0.1799
70093SOL     OW22003   3.241   0.787   7.797  0.4053 -0.2341  0.4782
70093SOL    HW122004   3.312   0.740   7.841  1.0153  1.6061  1.5784
70093SOL    HW222005   3.283   0.832   7.724  0.0134 -0.5368  0.0531
70094SOL     OW22006   1.494  10.984   7.219  0.1668  0.2075  0.0258
70094SOL    HW122007   1.556  10.923   7.180 -0.5601 -1.4999  1.4055
70094SOL    HW222008   1.532  11.006   7.304 -0.6674 -0.1829  0.5179
70095SOL     OW22009  10.193   3.718  10.222  0.2939  0.7624 -0.1536
70095SOL    HW122010  10.184   3.627  10.250  0.1552  0.5951 -0.7433
70095SOL    HW222011  10.220   3.764  10.302 -0.9524  0.4394  0.4736
70096SOL     OW22012   2.637   0.298  11.603 -0.6289  0.4784  0.6663
70096SOL    HW122013   2.555   0.257  11.574  0.6034 -2.2064  0.6462
70096SOL    HW222014   2.689   0.306  11.523 -0.5724  1.5386  0.7890
70097SOL     OW22015   2.475   9.941   9.748 -0.1180  0.1273  0.5239
70097SOL    HW122016   2.474  10.001   9.673  1.1363  0.6833  0.9369
70097SOL    HW222017   2.384   9.936   9.775 -0.6416 -0.2335 -1.1517
70098SOL     OW22018   8.223   6.536  12.282  0.0341 -0.0629 -0.4189
70098SOL    HW122019   8.243   6.450  12.245 -1.2195 -0.3885 -0.3873
70098SOL    HW222020   8.224   6.595  12.207  2.3939  0.2183 -0.2430
70099SOL     OW22021   1.594  11.956  11.110  0.2194  0.0967  0.2922
70099SOL    HW122022   1.591  11.882  11.051  1.4900 -0.2029  0.5757
70099SOL    HW222023   1.545  11.928  11.187  4.4297 -2.3830  2.4381
70100SOL     OW22024   5.099  13.518  11.492 -0.7125  0.1968  0.2415
70100SOL    HW122025   5.094  13.564  11.576  1.3506 -0.7373  0.9450
70100SOL    HW222026   5.088  13.426  11.515  0.8595 -0.1599 -0.3518
70101SOL     OW22027  10.361  11.134   9.785 -0.2036  0.1861  0.8188
70101SOL    HW122028  10.324  11.221   9.778  1.6959  1.1052  1.3646
70101SOL    HW222029  10.388  11.127   9.877  0.0017 -0.8256  0.6960
70102SOL     OW22030   1.135   8.421  12.234 -0.0828 -0.5470 -0.4029
70102SOL    HW122031   1.179   8.368  12.168  0.3545  1.3112 -1.6681
70102SOL    HW222032   1.067   8.469  12.187  0.8505  1.5475  0.2309
70103SOL     OW22033   7.772   1.955   4.581  0.1826 -0.1862  0.2938
70103SOL    HW122034   7.827   1.905   4.641 -0.2353 -3.5822 -1.8147
70103SOL    HW222035   7.691   1.903   4.574 -0.5975  1.1477 -1.5867
70104SOL     OW22036   1.422   1.125  11.070 -0.4234  0.3771 -0.4290
70104SOL    HW122037   1.402   1.109  10.977 -0.8566 -0.3776 -0.2133
70104SOL    HW222038   1.518   1.134  11.072 -0.3107 -0.5914 -0.8118
70105SOL     OW22039   4.538   4.280   6.873 -0.6466 -0.5068 -0.4785
70105SOL    HW122040   4.572   4.195   6.901 -0.2478 -0.2756 -0.2594
70105SOL    HW222041   4.605   4.316   6.815  2.5820  2.6064  4.4168
70106SOL     OW22042   7.749  12.201   2.885 -0.2314  0.1127 -0.2066
70106SOL    HW122043   7.819  12.217   2.821  0.6751 -0.0549  0.7150
70106SOL    HW222044   7.697  12.281   2.882  0.5076  0.6053 -0.2855
70107SOL     OW22045   9.689  13.473   4.094  0.3171  0.1523 -0.2195
70107SOL    HW122046   9.716  13.412   4.025 -0.3986 -0.6205  0.1671
70107SOL    HW222047   9.753  13.459   4.165  0.1280 -0.1914 -0.1133
70108SOL     OW22048   3.896  11.696  11.092  0.0748 -0.1013 -0.3022
70108SOL    HW122049   3.832  11.728  11.028 -0.3474 -0.1855  0.0760
70108SOL    HW222050   3.843  11.666  11.166  0.5851  0.3227  0.2397
70109SOL     OW22051   6.081   9.373   4.594 -0.5453 -0.3226  0.2534
70109SOL    HW122052   5.990   9.366   4.564 -0.3870 -1.4556  0.0130
70109SOL    HW222053   6.075   9.424   4.675 -1.4886 -1.0703  0.6684
70110SOL     OW22054  11.299  10.835   0.468  0.1546 -0.3655  0.2927
70110SOL    HW122055  11.280  10.929   0.474 -1.9519 -0.7748  0.7285
70110SOL    HW222056  11.242  10.804   0.397  0.3467 -1.4180  0.5915
70111SOL     OW22057   5.981  12.838   5.862 -0.1481 -0.0229 -0.1275
70111SOL    HW122058   5.942  12.826   5.949  0.7716 -2.8726  0.0002
70111SOL    HW222059   6.067  12.796   5.868 -0.3163 -0.8777 -2.5698
70112SOL     OW22060   7.269  10.196   3.347 -0.4657 -0.4373 -0.4615
70112SOL    HW122061   7.277  10.267   3.282 -2.2999 -0.8903 -1.2760
70112SOL    HW222062   7.195  10.144   3.315  0.3597 -2.3018  0.5320
70113SOL     OW22063   8.145   3.993   4.972 -0.1728 -0.1261  0.0973
70113SOL    HW122064   8.225   3.957   4.933 -1.4116 -2.2506 -0.6831
70113SOL    HW222065   8.094   4.024   4.897 -0.6549 -0.0720  0.4417
70114SOL     OW22066   0.075   2.500   2.205  0.1336  0.1961  0.6192
70114SOL    HW122067   0.064   2.427   2.145  0.1756  1.5116 -1.0404
70114SOL    HW222068   0.018   2.478   2.279  0.4800 -1.7052  0.3823
70115SOL     OW22069   4.791   6.746   6.925 -0.1162 -0.7173  0.1395
70115SOL    HW122070   4.776   6.825   6.977 -0.9913  0.2126 -1.4732
70115SOL    HW222071   4.760   6.675   6.981  0.9368  0.0158  1.7351
70116SOL     OW22072  13.663   7.143   5.447  0.2363 -0.1365 -0.4112
70116SOL    HW122073  13.698   7.150   5.536  0.8392 -1.3935 -0.5257
70116SOL    HW222074  13.603   7.069   5.450  0.1788 -0.1229 -1.0298
70117SOL     OW22075   2.575   5.761  10.441 -0.0565  0.0485  0.6071
70117SOL    HW122076   2.482   5.768  10.461  0.2894  1.8047  1.8316
70117SOL    HW222077   2.614   5.837  10.483  1.7384  0.1484 -1.0906
70118SOL     OW22078  11.401   9.245   3.776  0.5770  0.7426  0.0548
70118SOL    HW122079  11.337   9.188   3.733  1.9486  0.2371 -1.4525
70118SOL    HW222080  11.352   9.289   3.846 -0.9835 -0.8295  0.0092
70119SOL     OW22081   7.430   3.256  10.404 -0.3433  0.0449  0.3341
70119SOL    HW122082   7.365   3.263  10.473 -0.1990  0.2210  0.4545
70119SOL    HW222083   7.502   3.206  10.442 -0.1554  0.3580  0.3958
70120SOL     OW22084   4.973  11.758   1.209 -0.7376 -0.0428 -0.0587
70120SOL    HW122085   5.063  11.775   1.179 -0.3518  0.3705  1.2469
70120SOL    HW222086   4.981  11.750   1.304 -2.0334 -0.4359  0.0364
70121SOL     OW22087   7.953   8.612  11.669  0.0490  0.6563  0.3353
70121SOL    HW122088   7.933   8.668  11.745 -2.0933  0.4405  0.0062
70121SOL    HW222089   7.888   8.542  11.673  3.4093 -2.7710  1.4928
70122SOL     OW22090   3.374  10.804  12.283  0.2074 -0.1934 -0.3588
70122SOL    HW122091   3.421  10.809  12.366 -1.7057  3.5662  0.7568
70122SOL    HW222092   3.417  10.868  12.227 -1.5028  1.0480 -0.3689
70123SOL     OW22093   8.178   4.014  10.373  0.6707  0.3222  0.3108
70123SOL    HW122094   8.127   3.973  10.443 -1.0357 -0.6038 -1.3682
70123SOL    HW222095   8.251   3.955  10.359  0.2191 -0.2575  0.3407
70124SOL     OW22096  10.705   4.970   0.585 -0.3722 -0.7086  0.3269
70124SOL    HW122097  10.654   4.920   0.521 -1.1926  1.7249 -1.0401
70124SOL    HW222098  10.786   4.920   0.596 -0.6615 -1.7575 -1.7981
70125SOL     OW22099   3.304   2.734   1.048 -0.0741 -0.2905  0.3766
70125SOL    HW122100   3.269   2.712   0.962  0.5572  0.4846 -0.1025
70125SOL    HW222101   3.227   2.757   1.100 -0.3492  1.0115 -0.5390
70126SOL     OW22102  11.737  13.043  13.275  0.4036  0.0164  0.4476
70126SOL    HW122103  11.698  12.997  13.349 -2.0321 -0.1579 -0.8321
70126SOL    HW222104  11.749  12.976  13.208 -0.5227  0.7155 -0.4520
70127SOL     OW22105   4.643   8.928   9.826  0.4675 -1.0926 -0.3998
70127SOL    HW122106   4.639   8.967   9.913 -2.7660 -1.9133 -0.0524
70127SOL    HW222107   4.643   8.834   9.842  1.9177 -1.2836 -1.3112
70128SOL     OW22108  11.648   8.471  11.247  0.0493  0.3314  0.1634
70128SOL    HW122109  11.732   8.496  11.209 -0.0388 -0.9633 -0.9258
70128SOL    HW222110  11.658   8.489  11.341  1.8477 -0.5941  0.1794
70129SOL     OW22111   4.571  13.068   5.772 -0.4051  0.7228  0.0609
70129SOL    HW122112   4.482  13.056   5.739 -0.0265  1.7547 -1.4278
70129SOL    HW222113   4.580  13.163   5.780 -0.7257  0.6015  4.0148
70130SOL     OW22114   2.457  12.976   2.867  0.0808 -0.3810  0.1092
70130SOL    HW122115   2.390  12.925   2.823  0.3157 -1.6370  1.1325
70130SOL    HW222116   2.461  12.940   2.956  0.2695  1.4212  0.8975
70131SOL     OW22117   8.962   6.952   6.878 -0.0704  0.2189 -0.6436
70131SOL    HW122118   9.015   6.962   6.957 -2.3674  1.6329  0.8314
70131SOL    HW222119   8.962   6.858   6.860 -0.3657 -0.2897  1.7105
70132SOL     OW22120   9.476   7.468   6.898  0.5061 -0.2172 -0.4037
70132SOL    HW122121   9.399   7.412   6.901  0.4622 -0.2013 -1.0447
70132SOL    HW222122   9.447   7.545   6.849  0.7248  0.1205 -0.0144
70133SOL     OW22123   1.507   3.079  13.584 -0.0968  0.2628 -0.4185
70133SOL    HW122124   1.505   3.046  13.674 -1.3596  1.0808 -0.1181
70133SOL    HW222125   1.431   3.040  13.542 -0.2700  0.9296 -0.7397
70134SOL     OW22126   0.910  13.333   3.109  0.0681 -0.1027  0.9185
70134SOL    HW122127   0.989  13.279   3.117  0.1298 -0.0961  0.3648
70134SOL    HW222128   0.838  13.271   3.106  0.2430 -0.2500 -1.2796
70135SOL     OW22129   6.286   3.675   0.917  0.2114  0.1170 -0.0594
70135SOL    HW122130   6.324   3.683   1.004 -0.6802 -0.3574  0.3856
70135SOL    HW222131   6.359   3.646   0.862  0.0157 -3.2774  1.2529
70136SOL     OW22132   5.319   6.040  11.386 -0.1691 -0.3620  0.1464
70136SOL    HW122133   5.304   5.951  11.354  0.8670 -0.5866  0.2592
70136SOL    HW222134   5.307   6.096  11.309  1.9632 -0.8622 -0.5989
70137SOL     OW22135   0.721   7.940   7.894  0.0784  0.0175  0.0381
70137SOL    HW122136   0.778   8.010   7.926 -0.0337 -0.1383  0.5754
70137SOL    HW222137   0.645   7.942   7.951 -0.3452  0.0458 -0.5121
70138SOL     OW22138   5.962  10.247   6.591 -0.7137  0.2757 -0.1037
70138SOL    HW122139   6.012  10.260   6.672  0.6893 -0.8949 -0.7372
70138SOL    HW222140   5.979  10.326   6.540  0.9583 -0.3037 -0.5101
70139SOL     OW22141   3.855   8.527   3.558  1.1514 -0.4284 -0.0601
70139SOL    HW122142   3.827   8.512   3.468  1.9293 -1.4628 -0.1557
70139SOL    HW222143   3.911   8.452   3.579  1.4797  0.0989  1.0793
70140SOL     OW22144   8.231   5.044  11.492 -0.1685 -0.4257 -0.1203
70140SOL    HW122145   8.263   5.033  11.581 -0.2643  0.7777  0.0896
70140SOL    HW222146   8.136   5.049  11.501 -0.1513  0.1701 -0.2191
70141SOL     OW22147  10.663   0.044   4.087 -0.1892  0.0002  0.2841
70141SOL    HW122148  10.677   0.123   4.139 -1.9349  1.2357 -0.9961
70141SOL    HW222149  10.744   0.034   4.036 -0.1985  1.3705 -0.0293
70142SOL     OW22150   0.143   0.972   6.842 -0.8418 -0.3949 -0.0906
70142SOL    HW122151   0.131   0.898   6.783 -0.4334  0.6805 -1.5865
70142SOL    HW222152   0.179   1.042   6.787  1.1268  0.1741  1.7410
70143SOL     OW22153   6.028   1.064   2.497  0.1412  0.5520  0.5138
70143SOL    HW122154   6.026   1.147   2.449 -0.5996  0.6421  0.6889
70143SOL    HW222155   6.080   1.082   2.575  2.3067  0.1208 -0.7277
70144SOL     OW22156   9.593   4.659   3.072 -0.6846  0.2606 -0.5349
70144SOL    HW122157   9.581   4.753   3.056 -2.9130  0.2132  0.5393
70144SOL    HW222158   9.525   4.617   3.019  0.3973 -0.7891 -1.1353
70145SOL     OW22159   1.659   3.987   9.917  0.9437  0.6676 -0.0414
70145SOL    HW122160   1.686   3.906   9.960  1.0791  0.7218 -0.0196
70145SOL    HW222161   1.737   4.014   9.868  0.3799 -0.0647 -1.3629
70146SOL     OW22162   8.366   4.823  11.343 -0.4014  0.0777 -0.2311
70146SOL    HW122163   8.420   4.877  11.402 -0.4942  0.3776 -0.4161
70146SOL    HW222164   8.276   4.850  11.361 -0.3895  0.6607 -0.9775
70147SOL     OW22165   2.871   6.701   8.662  0.1328 -0.4553 -0.3246
70147SOL    HW122166   2.799   6.753   8.626  1.1946  1.7283  0.5232
70147SOL    HW222167   2.841   6.677   8.750  0.1924 -0.0070 -0.1750
70148SOL     OW22168   0.394  10.112   0.498  0.2107  1.0015 -0.4722
70148SOL    HW122169   0.410  10.080   0.409 -1.5160  0.2740 -0.5465
70148SOL    HW222170   0.480  10.109   0.539  1.6024  3.7330 -2.8064
70149SOL     OW22171  11.349  12.193  11.460  0.3831 -0.3519 -0.4021
70149SOL    HW122172  11.385  12.237  11.383  0.2027  1.1349  0.3134
70149SOL    HW222173  11.257  12.217  11.461  0.6107  0.6257  0.8638
70150SOL     OW22174   6.002   9.338   5.195  0.2911 -0.2093 -0.2655
70150SOL    HW122175   6.023   9.392   5.271  0.1687 -0.4678 -0.0505
70150SOL    HW222176   6.015   9.397   5.120  1.5902 -0.3137 -0.1311
70151SOL     OW22177   9.226   8.391   5.182  0.5780 -0.4026 -0.2535
70151SOL    HW122178   9.134   8.416   5.189  0.4273 -1.1333  0.5647
70151SOL    HW222179   9.235   8.315   5.239  1.6678 -0.4145 -0.4105
70152SOL     OW22180   8.105  13.611  12.052 -0.1291  0.2402  0.5441
70152SOL    HW122181   8.039  13.639  11.987 -0.3086 -0.8848  0.2274
70152SOL    HW222182   8.161  13.551  12.004  1.0159  1.0126  0.8794
70153SOL     OW22183   0.915   3.254  10.096  0.4767 -0.7426 -0.4707
70153SOL    HW122184   0.929   3.200  10.174  0.8875 -1.0050 -0.7281
70153SOL    HW222185   0.878   3.195  10.031  0.8358 -0.6953 -0.7202
70154SOL     OW22186  10.069  13.625  11.510 -0.3447  0.0245 -0.4582
70154SOL    HW122187  10.129  13.668  11.571 -2.5777  4.1041 -0.7684
70154SOL    HW222188  10.022  13.561  11.563  0.3795  0.7996  1.1969
70155SOL     OW22189   0.333   4.974   9.102  0.0552 -0.6315  0.0108
70155SOL    HW122190   0.331   4.896   9.158 -2.1691 -0.0934  0.7988
70155SOL    HW222191   0.292   4.946   9.020  0.8513 -0.7112 -0.3719
70156SOL     OW22192   3.571   2.996   6.658 -0.6350 -0.0020 -0.2481
70156SOL    HW122193   3.609   2.949   6.733  1.1241  1.0957 -0.4121
70156SOL    HW222194   3.486   3.027   6.691 -0.8359 -1.3318  0.5847
70157SOL     OW22195   2.692   4.204   9.549 -0.3774  0.7090  0.1285
70157SOL    HW122196   2.775   4.239   9.581  0.0988  1.5238 -1.8777
70157SOL    HW222197   2.627   4.268   9.576 -0.4700 -0.1086  2.0245
70158SOL     OW22198  11.428   8.494   4.505  0.4539  0.0817  0.1690
70158SOL    HW122199  11.369   8.490   4.580 -0.9601  0.3735 -0.8852
70158SOL    HW222200  11.395   8.427   4.445  0.7752  0.7141 -0.7331
70159SOL     OW22201   8.946  12.468   7.528 -0.2090 -0.1203  0.0403
70159SOL    HW122202   9.036  12.482   7.558  0.0395 -0.1494 -0.6627
70159SOL    HW222203   8.946  12.379   7.491 -0.6945 -0.3707  0.6280
70160SOL     OW22204  13.687   7.557   8.216 -0.0085  0.1955 -0.2652
70160SOL    HW122205  13.751   7.576   8.285  1.2137 -0.2419 -1.2446
70160SOL    HW222206  13.610   7.524   8.263  0.7194  0.0943  0.9014
70161SOL     OW22207   3.289   4.951  12.188 -0.2384 -0.3504 -0.0283
70161SOL    HW122208   3.206   4.979  12.227 -0.2580  0.4821 -0.6413
70161SOL    HW222209   3.265   4.877  12.133 -0.4184 -0.7044  0.5123
70162SOL     OW22210   3.377   6.556   5.976  0.5621 -0.9471 -0.1897
70162SOL    HW122211   3.392   6.493   6.047  0.8929  0.3101  0.9114
70162SOL    HW222212   3.284   6.578   5.984  0.5363 -1.0144 -0.3165
70163SOL     OW22213  13.329   4.099   2.926 -0.3958  0.2441 -0.7274
70163SOL    HW122214  13.403   4.055   2.967 -0.2668  0.9998 -0.1359
70163SOL    HW222215  13.338   4.191   2.951 -0.6870  0.6105 -1.9009
70164SOL     OW22216   7.847  11.794   0.067  0.0960  0.1234 -0.0339
70164SOL    HW122217   7.785  11.756   0.129  1.4095  0.0290  1.3012
70164SOL    HW222218   7.804  11.872   0.034 -0.0720  1.0578  2.2101
70165SOL     OW22219   4.058  12.235   4.749  0.0052  0.1400  0.4371
70165SOL    HW122220   4.089  12.306   4.694  1.6667 -1.1467 -0.3834
70165SOL    HW222221   4.055  12.159   4.691 -2.8248 -0.2846  0.9985
70166SOL     OW22222   7.196   6.046  10.042  0.3965 -0.3416 -0.4542
70166SOL    HW122223   7.212   6.107  10.115 -2.5187 -1.5405  1.3779
70166SOL    HW222224   7.134   6.093   9.985  0.3962 -0.5111 -0.5943
70167SOL     OW22225  12.238   6.263  10.443 -0.2450  0.1589  0.2208
70167SOL    HW122226  12.157   6.303  10.411  0.0301 -0.4166 -1.2746
70167SOL    HW222227  12.295   6.337  10.464 -0.7578  0.5629  0.2092
70168SOL     OW22228  12.391  13.550  11.017 -0.2413  0.1943 -0.4456
70168SOL    HW122229  12.357  13.637  11.039  1.7300  0.8542  0.2434
70168SOL    HW222230  12.485  13.563  11.007  0.3040 -2.0910  0.9267
70169SOL     OW22231  10.728   3.274  11.688  0.2949 -0.0387 -0.2415
70169SOL    HW122232  10.712   3.200  11.629 -1.4039 -0.7177  0.9868
70169SOL    HW222233  10.722   3.237  11.776 -0.9035  1.5842  0.4194
70170SOL     OW22234   8.892   9.259  11.370 -0.8009  0.1890 -0.7224
70170SOL    HW122235   8.890   9.164  11.355  0.4913  0.3060 -1.7457
70170SOL    HW222236   8.983   9.284  11.353 -0.9934  1.5295  0.1234
70171SOL     OW22237   4.900   4.319   0.766 -0.0222  0.0225 -0.0410
70171SOL    HW122238   4.881   4.276   0.850  1.1232 -0.6608 -0.1139
70171SOL    HW222239   4.993   4.302   0.750  0.6334  2.9675  0.1327
70172SOL     OW22240  13.722   8.975   3.910  0.2539  0.7421  0.0588
70172SOL    HW122241  13.651   8.943   3.855  0.1426  1.7144 -0.3862
70172SOL    HW222242  13.800   8.966   3.856  0.6028 -0.9053  0.7659
70173SOL     OW22243  10.117  10.928   4.535 -0.0449  0.0407  0.4258
70173SOL    HW122244  10.079  10.840   4.532  1.2512 -0.5922  1.3561
70173SOL    HW222245  10.161  10.931   4.620  2.0516  0.6650 -0.6147
70174SOL     OW22246   3.585  10.589   1.912 -0.1824 -0.5185  0.7161
70174SOL    HW122247   3.608  10.639   1.833 -2.7754  0.3292  0.4090
70174SOL    HW222248   3.650  10.519   1.915  1.1277  0.5185 -1.1243
70175SOL     OW22249  13.411  12.756   1.981 -0.2681  0.2507 -0.9551
70175SOL    HW122250  13.438  12.723   1.895  0.8812 -0.1445 -0.4576
70175SOL    HW222251  13.419  12.851   1.974 -0.6377  0.2514 -1.4294
70176SOL     OW22252   1.675  13.438  10.137  0.1214 -0.1382 -0.0883
70176SOL    HW122253   1.756  13.484  10.117 -0.5610  1.7701  1.2562
70176SOL    HW222254   1.619  13.504  10.178 -1.0001 -2.1161  1.7846
70177SOL     OW22255   1.965   5.812   8.975 -1.1109  0.2740  0.2038
70177SOL    HW122256   1.985   5.786   8.884 -0.5104 -0.5033  0.5453
70177SOL    HW222257   2.021   5.887   8.992 -0.5228 -0.1650  0.2328
70178SOL     OW22258  13.607   6.954  11.230  0.1046  0.4593  0.3233
70178SOL    HW122259  13.540   7.019  11.208  1.5533  2.1758  0.7648
70178SOL    HW222260  13.689   6.991  11.199  1.3758  0.1637  2.9862
70179SOL     OW22261   5.915   9.654   5.481  0.1342  0.4150 -0.1109
70179SOL    HW122262   6.007   9.638   5.461  0.2894 -0.5429  1.2104
70179SOL    HW222263   5.874   9.668   5.396  1.5393  1.1552 -0.6984
70180SOL     OW22264   8.205   5.617  13.144  0.1967 -0.0423 -0.2840
70180SOL    HW122265   8.143   5.642  13.076  0.7218  0.8074 -0.4679
70180SOL    HW222266   8.152   5.571  13.209 -0.4066 -0.3874 -1.0041
70181SOL     OW22267   4.604  10.515   4.438  0.0092 -0.2237  0.3639
70181SOL    HW122268   4.531  10.496   4.379 -0.7140 -0.6553  1.3633
70181SOL    HW222269   4.640  10.598   4.407 -1.1097  0.1465  0.0386
70182SOL     OW22270   7.043   9.825   0.783  0.2710  0.5865  0.0136
70182SOL    HW122271   7.123   9.852   0.737 -0.6520  1.0792 -1.3546
70182SOL    HW222272   7.044   9.877   0.864  1.7004  0.0295  0.3896
70183SOL     OW22273  11.183   5.058   5.610  0.7314  0.1146 -0.7868
70183SOL    HW122274  11.099   5.103   5.614  1.9580  2.5483 -0.7717
70183SOL    HW222275  11.180   5.009   5.528 -0.7439 -0.0186 -0.6818
70184SOL     OW22276   5.223   1.517  13.268  0.0162  0.4608  0.6601
70184SOL    HW122277   5.285   1.487  13.201 -1.5544 -1.9010  0.1468
70184SOL    HW222278   5.140   1.525  13.221 -1.3087 -1.9944  2.3578
70185SOL     OW22279   6.872  13.015  12.136 -0.2915 -0.0486  0.2237
70185SOL    HW122280   6.848  13.053  12.221  1.0265  0.8811  0.2131
70185SOL    HW222281   6.931  13.079  12.097 -0.4169 -0.7361 -1.1534
70186SOL     OW22282  10.617   3.828   8.951  0.1753 -0.2593 -0.0978
70186SOL    HW122283  10.550   3.760   8.960  1.2910 -1.5039 -0.9112
70186SOL    HW222284  10.582   3.902   9.001 -1.8553 -0.8173 -0.5872
70187SOL     OW22285   6.100   2.138   9.686 -0.2199 -0.2726 -0.2142
70187SOL    HW122286   6.169   2.190   9.728 -0.6583 -0.0086  0.1989
70187SOL    HW222287   6.063   2.087   9.758 -0.0444 -0.8758 -0.5503
70188SOL     OW22288   0.015   7.307  13.594  0.2722 -0.1322  0.5466
70188SOL    HW122289  -0.005   7.391  13.553 -1.4389 -0.6118  0.3365
70188SOL    HW222290   0.023   7.245  13.521  3.1988  0.0955  0.5625
70189SOL     OW22291   2.722   6.886   1.423  0.2781 -0.2540  0.9274
70189SOL    HW122292   2.635   6.911   1.455 -0.4847 -0.3308 -0.9789
70189SOL    HW222293   2.717   6.898   1.329  2.2136 -0.7103  0.7330
70190SOL     OW22294   8.214   6.952   9.623 -0.3507  0.2714 -0.3334
70190SOL    HW122295   8.282   6.925   9.561 -0.6829 -0.0927 -0.5435
70190SOL    HW222296   8.154   6.878   9.626 -0.1077  0.1074  0.7578
70191SOL     OW22297   0.038  11.772   4.907  0.2904  0.2001  0.1346
70191SOL    HW122298  -0.013  11.718   4.967 -0.1319 -0.0116 -0.3930
70191SOL    HW222299   0.033  11.726   4.823  1.4362  0.1303  0.0874
70192SOL     OW22300   3.064   0.410   3.942 -0.1646 -0.4636 -0.1175
70192SOL    HW122301   3.157   0.433   3.947  0.0249 -1.4534  1.4565
70192SOL    HW222302   3.027   0.443   4.024 -0.5906 -2.5587  0.6003
70193SOL     OW22303   0.953   5.270   6.484  0.1949 -0.2798 -0.6068
70193SOL    HW122304   0.931   5.289   6.393  0.8412  1.8963 -0.3794
70193SOL    HW222305   0.964   5.356   6.524  0.5850 -1.1944  1.3762
70194SOL     OW22306  10.263  12.400   1.994  0.2086  0.0803 -0.1908
70194SOL    HW122307  10.203  12.429   1.926  0.7931 -1.5819 -1.4822
70194SOL    HW222308  10.332  12.352   1.947  2.3310  1.4980  1.2647
70195SOL     OW22309   3.037   5.658   7.802 -0.6364 -0.2102 -0.2859
70195SOL    HW122310   3.119   5.622   7.838 -0.8072 -0.2686  0.0464
70195SOL    HW222311   3.060   5.746   7.774 -0.5703 -0.0663  0.2179
70196SOL     OW22312   6.408   8.142  11.225 -0.3721 -0.2133 -0.0870
70196SOL    HW122313   6.370   8.223  11.189  0.5340  0.3413  0.1658
70196SOL    HW222314   6.497   8.167  11.251  0.1740 -1.4766 -0.6527
70197SOL     OW22315   7.612   0.642  12.931 -0.2925 -0.2825 -0.5794
70197SOL    HW122316   7.630   0.576  12.865 -0.3904 -0.1670 -0.7211
70197SOL    HW222317   7.518   0.661  12.923 -0.2335 -0.0081 -0.6493
70198SOL     OW22318   8.006   3.099  11.982 -0.5135 -0.2520  0.0055
70198SOL    HW122319   7.999   3.185  11.940  1.0418  0.8142  1.7610
70198SOL    HW222320   8.100   3.081  11.984 -0.6971 -1.1710  1.2535
70199SOL     OW22321  13.695   0.927   4.717  0.6822  0.2732  0.3863
70199SOL    HW122322  13.621   0.969   4.674 -0.7644 -0.3973  2.1065
70199SOL    HW222323  13.752   0.899   4.645 -0.4244  1.3083 -0.9502
70200SOL     OW22324   4.823   9.327   0.584  0.6350 -0.0156 -0.2448
70200SOL    HW122325   4.880   9.337   0.507  0.6248  1.5789 -0.0709
70200SOL    HW222326   4.815   9.232   0.595  1.2941 -0.2763 -1.7214
70201SOL     OW22327   9.762   8.176   8.797  0.0355 -0.0306 -0.1316
70201SOL    HW122328   9.688   8.134   8.755 -0.2323  0.5545 -0.2588
70201SOL    HW222329   9.834   8.168   8.734 -0.5224  1.3798 -1.0012
70202SOL     OW22330  11.305   3.512   1.839  0.0599  0.4660 -0.0994
70202SOL    HW122331  11.216   3.494   1.806 -0.5124  2.2063  0.4121
70202SOL    HW222332  11.291   3.558   1.922  1.4514  0.5795  0.0898
70203SOL     OW22333   0.096  11.566   4.079  0.1437  0.4487  0.4277
70203SOL    HW122334   0.043  11.612   4.014  1.0595  0.8921 -0.0191
70203SOL    HW222335   0.186  11.590   4.058  0.5631 -0.6601  0.8855
70204SOL     OW22336   2.837  12.220   4.466 -0.6714 -0.0672 -0.3574
70204SOL    HW122337   2.763  12.188   4.414 -0.9082  1.4146 -0.9905
70204SOL    HW222338   2.895  12.261   4.402  0.9328 -1.5092  0.0668
70205SOL     OW22339  12.208   0.455   7.257  0.3554 -0.2316 -0.0254
70205SOL    HW122340  12.245   0.534   7.217 -0.7317 -0.0448 -0.6981
70205SOL    HW222341  12.202   0.476   7.350  2.4175 -0.4723  0.2218
70206SOL     OW22342   1.954   2.809  13.122  0.2710  0.2048 -0.1544
70206SOL    HW122343   2.018   2.824  13.192  0.1216 -0.6608  0.1824
70206SOL    HW222344   1.976   2.874  13.055 -0.2351  1.7555  1.1229
70207SOL     OW22345   4.039   5.096  10.420 -0.1850 -0.0075 -0.4521
70207SOL    HW122346   4.069   5.015  10.461 -2.6260 -1.4638 -1.3390
70207SOL    HW222347   3.985   5.138  10.486  2.8559  2.1919  0.8451
70208SOL     OW22348   8.390   0.964   8.743  0.0607  0.3211 -0.1645
70208SOL    HW122349   8.385   0.960   8.838 -1.7617  0.9438 -0.2143
70208SOL    HW222350   8.369   1.055   8.721  2.1848  0.6459 -1.1026
70209SOL     OW22351   5.350   9.479   2.831 -0.0074  0.0478 -0.0230
70209SOL    HW122352   5.321   9.393   2.863  1.8970 -0.5865  0.1710
70209SOL    HW222353   5.434   9.493   2.875  0.1286  1.6276 -0.7265
70210SOL     OW22354   6.973   1.508   9.536  0.3441  0.4931 -0.0077
70210SOL    HW122355   7.023   1.567   9.481 -0.9766  1.1192 -0.5743
70210SOL    HW222356   6.960   1.557   9.618  0.2398  0.5212 -0.0414
70211SOL     OW22357   0.885   7.552  10.887  0.4031  0.1777  0.0458
70211SOL    HW122358   0.977   7.540  10.864  0.3655 -1.2466  0.5679
70211SOL    HW222359   0.847   7.464  10.883 -0.1458  0.1678  3.1608
70212SOL     OW22360  12.579   5.619   3.782 -0.1784  0.6421  0.0623
70212SOL    HW122361  12.488   5.650   3.785 -0.1749  0.6319  0.3357
70212SOL    HW222362  12.629   5.689   3.823 -0.2205  0.1124  1.0571
70213SOL     OW22363   3.481   5.472  10.639  0.1504 -0.5665  0.7733
70213SOL    HW122364   3.417   5.511  10.579 -0.4365 -0.2720  1.5777
70213SOL    HW222365   3.463   5.513  10.724  0.7947 -1.1692  1.2136
70214SOL     OW22366   4.954   4.081  10.784  0.1414 -0.1696 -0.4947
70214SOL    HW122367   5.018   4.152  10.778 -0.0897 -0.0072 -1.0737
70214SOL    HW222368   5.001   4.003  10.755  0.0858 -0.0566 -0.8866
70215SOL     OW22369   3.774   6.167   7.809 -0.3695 -0.2003 -0.3066
70215SOL    HW122370   3.765   6.087   7.758  1.0502 -0.1075 -0.7467
70215SOL    HW222371   3.865   6.193   7.798  0.2844 -0.6229  2.9360
70216SOL     OW22372   0.126   2.360   8.058 -0.0913  0.0076 -0.4932
70216SOL    HW122373   0.080   2.395   7.981  0.3290  0.4614 -0.5470
70216SOL    HW222374   0.062   2.303   8.100 -0.9403  1.1199 -0.2096
70217SOL     OW22375   0.602   6.047   6.425 -0.5286 -0.4975  0.5003
70217SOL    HW122376   0.548   6.049   6.345 -0.5756 -1.9634  0.4772
70217SOL    HW222377   0.639   6.136   6.430 -1.5681  0.0252 -0.4234
70218SOL     OW22378   9.823   8.039   7.052  0.1019 -0.0707  0.6383
70218SOL    HW122379   9.776   8.121   7.041 -0.8091 -0.3878  2.0017
70218SOL    HW222380   9.772   7.975   7.002 -0.1748 -0.1484  1.0165
70219SOL     OW22381   2.287   8.524   9.707 -0.0042  0.6329  0.3828
70219SOL    HW122382   2.353   8.496   9.770  0.0100  0.1168  0.1488
70219SOL    HW222383   2.211   8.548   9.761  0.5724  1.8360  0.6893
70220SOL     OW22384   6.639  10.510   9.993 -0.0036 -0.2698  0.1691
70220SOL    HW122385   6.546  10.494   9.976  0.2317  0.0475 -1.5797
70220SOL    HW222386   6.684  10.450   9.934  0.9114  0.1018  0.4822
70221SOL     OW22387   3.200   4.769   6.784 -0.3037 -0.1266 -0.2480
70221SOL    HW122388   3.133   4.712   6.822 -1.1638  0.6862 -0.5094
70221SOL    HW222389   3.245   4.807   6.860 -0.6197 -0.1211 -0.0629
70222SOL     OW22390   5.165  11.480   6.576  0.2525  0.3719  0.5047
70222SOL    HW122391   5.116  11.562   6.583 -0.4847 -0.0097 -0.0665
70222SOL    HW222392   5.171  11.448   6.667  0.5622  1.0571  0.7330
70223SOL     OW22393   4.815   9.188   9.882  0.1642  0.2064  0.5429
70223SOL    HW122394   4.764   9.132   9.940  0.2813  1.4513  1.8941
70223SOL    HW222395   4.893   9.211   9.932  0.9895  0.1293 -0.6693
70224SOL     OW22396  10.199   1.648   8.003 -0.2752 -0.1020 -0.3234
70224SOL    HW122397  10.143   1.666   8.079  0.4960  1.4954 -0.0963
70224SOL    HW222398  10.287   1.641   8.039 -0.0413 -0.4916 -0.9449
70225SOL     OW22399  12.325   4.476  10.212 -0.1029 -0.0657 -0.0371
70225SOL    HW122400  12.244   4.470  10.162 -0.0901  1.6526 -0.3247
70225SOL    HW222401  12.395   4.478  10.146  0.1811 -1.3938  0.2028
70226SOL     OW22402   8.245   0.818  11.033  0.1710  0.4057  0.4165
70226SOL    HW122403   8.188   0.774  11.096  0.6299 -0.2257  0.4060
70226SOL    HW222404   8.334   0.804  11.067  0.6132 -1.7465 -1.3834
70227SOL     OW22405  10.184   2.574   8.085 -0.3634  0.1506  0.0193
70227SOL    HW122406  10.202   2.668   8.085 -0.3751  0.1598 -0.9118
70227SOL    HW222407  10.146   2.557   8.171  0.1587  0.8947  0.4024
70228SOL     OW22408   3.320   8.336  13.609  0.4849  0.1432 -0.7663
70228SOL    HW122409   3.283   8.390  13.679 -1.4196 -3.5526  1.3963
70228SOL    HW222410   3.414   8.336  13.627  0.1485  0.1296  1.2399
70229SOL     OW22411   3.594   8.104   5.268 -0.0231 -0.1842  0.3301
70229SOL    HW122412   3.584   8.114   5.362  2.1165 -2.2446  0.8698
70229SOL    HW222413   3.687   8.120   5.252 -0.1958 -0.6166 -1.3066
70230SOL     OW22414   1.621   5.727   2.070 -0.2029  0.0903  0.4246
70230SOL    HW122415   1.627   5.634   2.092 -0.9149 -0.7460 -2.4613
70230SOL    HW222416   1.662   5.734   1.984  0.8748  2.7150  1.0532
70231SOL     OW22417   1.681   4.555   2.224 -0.3015  0.5547 -0.3020
70231SOL    HW122418   1.606   4.509   2.187 -0.9235  0.9916  0.3796
70231SOL    HW222419   1.675   4.643   2.187 -2.3268  1.7710  2.5108
70232SOL     OW22420   8.320   5.835  10.195  0.4942 -0.2586 -0.4366
70232SOL    HW122421   8.297   5.926  10.215  1.5640 -0.0998  0.1598
70232SOL    HW222422   8.240   5.798  10.157 -0.6638  0.3290  1.2784
70233SOL     OW22423   8.627   8.958  12.730 -0.3410 -0.6313  0.3548
70233SOL    HW122424   8.624   8.882  12.671  1.4045  0.1519 -0.8491
70233SOL    HW222425   8.646   9.032  12.672 -0.1002  0.4206  1.7272
70234SOL     OW22426   9.636  12.507  13.021  0.0821 -0.5882  0.2156
70234SOL    HW122427   9.617  12.420  12.986 -2.3259 -1.7117  3.7626
70234SOL    HW222428   9.550  12.551  13.025  0.6714  0.5144  1.8561
70235SOL     OW22429   5.370  11.518   0.711 -0.1770  0.9963 -0.0896
70235SOL    HW122430   5.347  11.453   0.778  1.4218 -0.2885 -0.7373
70235SOL    HW222431   5.399  11.594   0.760  1.5701 -0.1496  0.7324
70236SOL     OW22432   8.373  10.229   5.473 -0.3085  0.1846  0.2596
70236SOL    HW122433   8.453  10.282   5.472 -1.0854  1.5420  2.4011
70236SOL    HW222434   8.302  10.292   5.485 -1.5391 -1.1286  0.2061
70237SOL     OW22435   1.261   7.421   7.877 -0.1019 -0.6970 -0.5895
70237SOL    HW122436   1.328   7.413   7.945 -0.3828  0.7678 -0.0905
70237SOL    HW222437   1.178   7.416   7.925 -0.3409 -1.3979 -1.0635
70238SOL     OW22438  12.762   3.003  12.229  0.3217  0.9763  0.2247
70238SOL    HW122439  12.833   2.978  12.287 -0.1110 -0.5097  0.1439
70238SOL    HW222440  12.802   3.007  12.142 -0.0878 -2.0538 -0.1831
70239SOL     OW22441  11.826   8.323  12.730  0.3121 -0.2077 -0.2534
70239SOL    HW122442  11.778   8.262  12.674 -0.3276 -0.7568  0.8515
70239SOL    HW222443  11.909   8.336  12.685  0.5885 -2.1263 -0.3916
70240SOL     OW22444   5.072   8.556   7.172 -0.1443 -0.2125  0.4861
70240SOL    HW122445   5.091   8.637   7.219  1.3813 -0.1217 -0.2229
70240SOL    HW222446   5.157   8.513   7.164 -0.6349 -1.0061 -0.7358
70241SOL     OW22447   3.010   2.384   6.949 -0.5922  0.3489 -0.4985
70241SOL    HW122448   3.056   2.348   6.874  0.3096 -2.1781  1.1342
70241SOL    HW222449   2.923   2.344   6.946 -0.7067  0.5935 -0.4533
70242SOL     OW22450   8.625  10.784   2.472  0.4701 -0.6189 -0.2331
70242SOL    HW122451   8.690  10.715   2.491 -0.9161 -1.7091  0.7708
70242SOL    HW222452   8.582  10.799   2.557  0.2513  0.9862 -0.6074
70243SOL     OW22453   5.534   7.188   5.152  0.3653 -0.0867 -0.4054
70243SOL    HW122454   5.629   7.189   5.166  0.1969  1.9310  1.1083
70243SOL    HW222455   5.497   7.211   5.237 -1.3445  1.6251 -1.5223
70244SOL     OW22456  10.724   3.627  10.672  0.4645 -0.2285 -0.2061
70244SOL    HW122457  10.769   3.571  10.735  0.4799  0.5365  0.4773
70244SOL    HW222458  10.644   3.579  10.649 -0.1996  0.0563  1.4018
70245SOL     OW22459   2.233   3.762   6.970  0.0887  0.7881  0.3852
70245SOL    HW122460   2.176   3.837   6.956 -2.0206 -0.7160  0.5654
70245SOL    HW222461   2.317   3.790   6.933 -1.4639  2.0938 -2.4962
70246SOL     OW22462   8.983   4.084   1.249  0.6794 -0.5089  0.5493
70246SOL    HW122463   9.071   4.073   1.283  1.1623  0.4754 -0.3267
70246SOL    HW222464   8.926   4.079   1.326  1.5609 -0.3050  1.2273
70247SOL     OW22465  11.974   8.314   5.033 -0.3722 -0.4503 -0.3466
70247SOL    HW122466  11.882   8.288   5.043 -0.1784 -0.6761  1.0297
70247SOL    HW222467  12.011   8.250   4.971 -1.5826  0.8218 -2.5283
70248SOL     OW22468   4.077  11.164   6.524 -0.3215 -0.3533 -0.4490
70248SOL    HW122469   4.048  11.112   6.599  1.3456 -0.4119  0.1985
70248SOL    HW222470   4.100  11.249   6.562  1.0693 -0.5623 -0.7677
70249SOL     OW22471  13.661   3.250   7.618 -0.2192 -0.1384 -0.2404
70249SOL    HW122472  13.633   3.318   7.557 -0.1783 -1.6431 -2.0330
70249SOL    HW222473  13.579   3.212   7.651 -0.2425  0.2609  0.1679
70250SOL     OW22474  10.469   5.339   8.850  0.2709 -0.0083 -0.0695
70250SOL    HW122475  10.419   5.268   8.811  0.7214 -0.5333  0.2859
70250SOL    HW222476  10.405   5.393   8.895 -0.0528 -0.2946 -0.1878
70251SOL     OW22477   2.704   0.655   4.886 -0.0398  0.4514  0.0965
70251SOL    HW122478   2.738   0.740   4.857 -1.1914  1.1349  0.6913
70251SOL    HW222479   2.642   0.676   4.955 -0.2746 -0.8935  0.3247
70252SOL     OW22480   0.321   3.707   0.326  0.1002  0.3889 -0.1454
70252SOL    HW122481   0.322   3.636   0.262  0.9283  0.8468 -0.6689
70252SOL    HW222482   0.230   3.737   0.326 -0.5857 -1.5195  1.0983
70253SOL     OW22483   0.117  10.310  12.728  0.3633 -0.0096 -0.7248
70253SOL    HW122484   0.127  10.337  12.637  0.0786 -0.3529 -0.8609
70253SOL    HW222485   0.115  10.215  12.724 -1.8842 -0.0170 -0.6159
70254SOL     OW22486  10.878   8.381  13.521  0.0426 -0.0021 -0.0120
70254SOL    HW122487  10.815   8.423  13.579  0.8180  1.8611 -0.4579
70254SOL    HW222488  10.955   8.364  13.576  0.6242  1.3938 -0.3503
70255SOL     OW22489   1.950   8.029  13.208 -0.0643  0.2896  0.0680
70255SOL    HW122490   1.963   8.044  13.115 -1.5859  1.0573 -0.0392
70255SOL    HW222491   1.905   7.944  13.213 -0.1086  0.3155  0.1095
70256SOL     OW22492  11.691   0.036   0.326  0.0216  0.2600 -0.0325
70256SOL    HW122493  11.643   0.056   0.406  0.3160  1.5296 -0.1499
70256SOL    HW222494  11.630   0.054   0.255  0.3770  1.0438 -0.1505
70257SOL     OW22495   1.498  12.794  11.988 -0.8572  0.4330  0.0019
70257SOL    HW122496   1.403  12.782  11.992 -0.7239 -0.6213  0.7289
70257SOL    HW222497   1.530  12.751  12.068  0.3284 -0.4334 -0.9087
70258SOL     OW22498   8.949   0.924  12.425 -0.1374 -0.0025  0.3196
70258SOL    HW122499   8.919   0.875  12.348 -0.9943 -0.1310  0.7171
70258SOL    HW222500   9.026   0.972  12.395  0.4962 -1.2939 -0.1897
70259SOL     OW22501   4.988   0.938   0.335 -0.6151 -0.0369 -0.0892
70259SOL    HW122502   4.897   0.907   0.341 -0.8165  0.3727 -0.8618
70259SOL    HW222503   4.983   1.030   0.363 -0.5888  0.2195 -0.8948
70260SOL     OW22504  10.269   0.633   9.767 -0.0663  0.2334 -0.0196
70260SOL    HW122505  10.195   0.592   9.812  0.4360  0.2933  0.8848
70260SOL    HW222506  10.343   0.576   9.787  0.2585  0.5355 -0.3651
70261SOL     OW22507  12.487  12.544   6.913  0.6946  0.5087 -0.4014
70261SOL    HW122508  12.501  12.598   6.990  2.2611 -0.2034 -0.1501
70261SOL    HW222509  12.575  12.527   6.878  0.0538  0.5834 -2.1909
70262SOL     OW22510   4.802   8.074  11.835 -0.1333 -0.3048 -0.2223
70262SOL    HW122511   4.896   8.071  11.856  0.2156  2.3750 -1.0781
70262SOL    HW222512   4.799   8.059  11.740 -0.2046  2.4341 -0.7355
70263SOL     OW22513   5.132   2.338   5.670  0.5955  0.2095 -0.2322
70263SOL    HW122514   5.047   2.301   5.649  0.5207 -0.1917  0.7224
70263SOL    HW222515   5.196   2.281   5.627  0.3755  0.9492 -1.5902
70264SOL     OW22516   1.506   6.757  11.388 -0.0339  0.7083 -0.2137
70264SOL    HW122517   1.425   6.752  11.440 -0.3717 -0.5323 -0.8151
70264SOL    HW222518   1.574   6.725  11.448 -0.2201  0.4363 -0.1442
70265SOL     OW22519   6.023  12.269   0.820 -0.1017 -0.3042 -0.0699
70265SOL    HW122520   6.064  12.182   0.818 -0.2378 -0.3551 -1.4800
70265SOL    HW222521   5.940  12.257   0.774  0.3867  0.8064 -1.3051
70266SOL     OW22522   9.013  13.275   2.454 -0.1072  0.4044 -0.0169
70266SOL    HW122523   8.922  13.300   2.470  0.0806  0.2845  1.3117
70266SOL    HW222524   9.053  13.354   2.418 -0.4767  0.7952  0.4107
70267SOL     OW22525   0.620   5.625   6.756 -0.0263 -0.2353 -0.4170
70267SOL    HW122526   0.536   5.640   6.800  0.1480 -0.8233  0.1388
70267SOL    HW222527   0.625   5.693   6.689 -0.8633 -0.0801 -0.3326
70268SOL     OW22528   0.712   3.261   6.647 -0.0676 -0.4214 -0.0496
70268SOL    HW122529   0.762   3.268   6.566 -0.9486  2.7930 -0.4837
70268SOL    HW222530   0.770   3.216   6.708  1.1929 -1.6094 -2.0215
70269SOL     OW22531   4.713  10.395  11.981  0.5862 -0.5538  0.3006
70269SOL    HW122532   4.729  10.455  12.054  0.1096 -0.2002  0.1284
70269SOL    HW222533   4.623  10.364  11.996  0.6540 -0.8356  0.1182
70270SOL     OW22534   8.456   4.863  10.177  0.1138  0.5218  0.4932
70270SOL    HW122535   8.528   4.858  10.114  0.4647 -1.2606  0.9849
70270SOL    HW222536   8.411   4.945  10.156  1.2117  0.7796 -0.9844
70271SOL     OW22537  11.494  10.796  11.496 -0.5011 -0.3727 -0.1337
70271SOL    HW122538  11.569  10.813  11.553 -0.2276 -0.4841 -0.4569
70271SOL    HW222539  11.445  10.878  11.496 -1.0764 -0.6944  1.0992
70272SOL     OW22540   0.398   8.152  10.386 -0.6899 -0.2979 -0.2766
70272SOL    HW122541   0.437   8.240  10.391 -0.9745 -0.1807 -0.1131
70272SOL    HW222542   0.304   8.167  10.398 -0.6096 -0.7526  1.0290
70273SOL     OW22543  11.836  11.901   3.425 -0.3762  0.5835 -0.0653
70273SOL    HW122544  11.841  11.810   3.395 -0.3821  0.1555  1.1874
70273SOL    HW222545  11.767  11.900   3.492 -1.1826  1.7469 -0.8497
70274SOL     OW22546  12.875   4.128   5.206  0.3194 -0.1147  0.3729
70274SOL    HW122547  12.918   4.177   5.136  0.5640 -0.4221  0.3067
70274SOL    HW222548  12.782   4.148   5.195  0.3417 -0.2715 -0.1280
70275SOL     OW22549  10.399   2.200   5.408 -0.1021  0.4459  0.0677
70275SOL    HW122550  10.491   2.204   5.382  0.1643  2.3728  1.1725
70275SOL    HW222551  10.361   2.135   5.349  1.6382  0.6654 -1.3918
70276SOL     OW22552   5.254   2.894   7.707  0.2009 -0.9854 -0.1026
70276SOL    HW122553   5.233   2.890   7.614  0.7283 -0.2114 -0.2593
70276SOL    HW222554   5.321   2.827   7.719 -1.0443 -2.2551  0.0658
70277SOL     OW22555   2.479   4.895   4.234 -0.3273 -0.2537 -0.2530
70277SOL    HW122556   2.386   4.873   4.235 -0.8281  1.6609  0.2471
70277SOL    HW222557   2.483   4.984   4.271  1.7206 -0.3660 -0.0768
70278SOL     OW22558   7.460  10.367   5.483 -0.2164 -0.1531  0.2642
70278SOL    HW122559   7.395  10.422   5.526  0.0254 -0.3785  0.9286
70278SOL    HW222560   7.462  10.286   5.535  0.3516 -0.2801  0.0536
70279SOL     OW22561  10.378   0.486   8.238  0.0843 -0.1016  0.1197
70279SOL    HW122562  10.346   0.574   8.218 -0.1029 -0.1364  0.2609
70279SOL    HW222563  10.445   0.500   8.306  0.2805 -0.0405 -0.0845
70280SOL     OW22564   0.359  10.651   8.434 -0.1275  0.2083  0.0531
70280SOL    HW122565   0.426  10.656   8.366  0.0598 -4.1630 -0.3427
70280SOL    HW222566   0.276  10.665   8.388  0.1775  0.1436 -0.5174
70281SOL     OW22567   7.867  12.514  11.990 -0.0104  0.4556  0.1948
70281SOL    HW122568   7.930  12.448  12.019  1.7399  2.3956  1.0592
70281SOL    HW222569   7.795  12.463  11.953  1.9081 -1.9084 -0.6142
70282SOL     OW22570   2.389   3.906   5.787 -0.0451 -0.4407 -0.2396
70282SOL    HW122571   2.438   3.967   5.733 -0.0088  0.2072  0.4953
70282SOL    HW222572   2.345   3.848   5.725  0.7204 -0.2992 -0.9299
70283SOL     OW22573   9.529   9.013   2.041 -0.5465  0.4056  0.6928
70283SOL    HW122574   9.582   9.085   2.076  0.2670 -0.3249  0.9962
70283SOL    HW222575   9.547   8.939   2.099  0.4693 -0.7041 -0.9520
70284SOL     OW22576   9.364   9.187   1.069  0.4638 -0.1466 -0.0137
70284SOL    HW122577   9.302   9.132   1.115  0.6803 -0.1590  0.2656
70284SOL    HW222578   9.389   9.136   0.992 -1.0737  0.5117 -0.9908
70285SOL     OW22579   1.184   9.159   3.357  0.1324 -0.3610 -0.2531
70285SOL    HW122580   1.147   9.247   3.363  0.2455 -0.1758 -1.7909
70285SOL    HW222581   1.121   9.103   3.401  0.3097  0.5393  1.2169
70286SOL     OW22582  11.229   6.386   4.299  0.0821  0.3289  0.3112
70286SOL    HW122583  11.137   6.371   4.320  0.0110  1.1363  0.6206
70286SOL    HW222584  11.256   6.308   4.250 -0.3931 -0.5296  1.3672
70287SOL     OW22585   6.113   6.360  11.577 -0.0838  0.0503 -0.6199
70287SOL    HW122586   6.057   6.313  11.640  0.5757  2.2461  1.7790
70287SOL    HW222587   6.059   6.434  11.549  0.7758  0.9003 -0.0656
70288SOL     OW22588   8.736  11.241   9.887 -0.2721  0.0928 -0.7070
70288SOL    HW122589   8.738  11.145   9.886  1.1062  0.0990 -0.8061
70288SOL    HW222590   8.647  11.263   9.914 -0.7214 -1.2069 -1.0580
70289SOL     OW22591  13.337   3.140  12.438 -0.1317  0.0678 -0.2248
70289SOL    HW122592  13.364   3.063  12.487  1.3375  2.5545  3.2927
70289SOL    HW222593  13.258   3.171  12.483  0.9947  2.1868  0.4483
70290SOL     OW22594   8.438   0.503   8.316 -0.3060  0.4713 -0.3439
70290SOL    HW122595   8.498   0.549   8.375 -1.4397  0.4138  0.9128
70290SOL    HW222596   8.440   0.555   8.235  0.9990  0.7759 -0.1399
70291SOL     OW22597  11.167  12.996   6.468 -0.6571  0.0314  0.3114
70291SOL    HW122598  11.206  12.913   6.497  3.1398  1.6059  0.3922
70291SOL    HW222599  11.161  12.986   6.373 -2.1141 -0.9787  0.4777
70292SOL     OW22600  13.222   4.853   0.588  0.4221 -0.3510 -0.8228
70292SOL    HW122601  13.304   4.892   0.620  1.5513 -3.3333  0.3231
70292SOL    HW222602  13.251   4.788   0.524 -1.1919 -0.5489 -1.3813
70293SOL     OW22603  12.670   6.837   1.890  0.0093  0.3852 -0.2496
70293SOL    HW122604  12.618   6.918   1.890  0.5372  0.7379 -1.1972
70293SOL    HW222605  12.737   6.853   1.957 -1.2495 -0.2055  1.2264
70294SOL     OW22606   3.572   5.965   6.220 -0.2133  0.3642  0.3921
70294SOL    HW122607   3.493   6.006   6.255 -0.1562 -1.0906  2.3689
70294SOL    HW222608   3.580   5.883   6.268  1.2972 -0.5686 -1.3398
70295SOL     OW22609   9.253   4.049   6.196 -0.3997 -0.1979 -0.3298
70295SOL    HW122610   9.223   4.139   6.182 -2.9097 -0.7254  1.0578
70295SOL    HW222611   9.177   3.995   6.173  0.6886 -1.9103 -0.0653
70296SOL     OW22612   9.456   7.172   2.737 -0.8440  0.4848 -0.5663
70296SOL    HW122613   9.466   7.179   2.642  1.2864 -0.8937 -0.5223
70296SOL    HW222614   9.484   7.083   2.757 -1.3953  0.7000  1.3563
70297SOL     OW22615   8.786   6.054   6.216  0.3480  0.1518  0.2207
70297SOL    HW122616   8.758   6.143   6.194 -1.5960 -0.1374  1.2818
70297SOL    HW222617   8.757   6.001   6.141  0.8354  0.2864 -0.0694
70298SOL     OW22618   0.460   3.168  12.843  0.1463  0.2864 -0.3216
70298SOL    HW122619   0.539   3.125  12.809  0.5366 -0.5646  1.5779
70298SOL    HW222620   0.401   3.096  12.866 -0.5866  0.8811 -0.2952
70299SOL     OW22621   9.343   4.264   7.502  0.3590  0.0034  0.2060
70299SOL    HW122622   9.270   4.209   7.531  0.1789  0.4245  0.5632
70299SOL    HW222623   9.310   4.306   7.422  1.1706 -1.8330 -1.1664
70300SOL     OW22624   1.763  13.124  13.276  0.1345 -0.4716  0.6088
70300SOL    HW122625   1.817  13.201  13.296  0.3291 -0.7548  1.2020
70300SOL    HW222626   1.812  13.078  13.207 -0.9663  0.9620 -1.1985
70301SOL     OW22627   9.557   0.428   2.858  0.1180 -0.0520 -0.0292
70301SOL    HW122628   9.595   0.409   2.772  1.6565  1.5033  0.2527
70301SOL    HW222629   9.603   0.369   2.918 -1.2842 -1.4681 -0.2947
70302SOL     OW22630   8.916   0.335  12.055 -0.4678 -0.3236  0.4724
70302SOL    HW122631   8.829   0.343  12.016 -0.5988  1.5983  1.0490
70302SOL    HW222632   8.977   0.348  11.983 -0.5863 -2.5544 -0.1063
70303SOL     OW22633  12.470  10.707   0.014 -0.2838  0.1995 -0.6845
70303SOL    HW122634  12.444  10.620  -0.016  3.1416  0.0744 -4.1732
70303SOL    HW222635  12.561  10.697   0.041  0.0854  2.5888 -0.7986
70304SOL     OW22636   1.813   7.876   1.447 -0.3714  0.3459 -0.5042
70304SOL    HW122637   1.838   7.794   1.405 -0.4731  0.8966 -1.6733
70304SOL    HW222638   1.835   7.863   1.539 -1.1360 -1.2854 -0.5217
70305SOL     OW22639   9.750   4.951   2.813  0.4833 -0.0006 -0.1520
70305SOL    HW122640   9.817   4.892   2.778 -0.6943 -0.7122 -1.3000
70305SOL    HW222641   9.669   4.901   2.808 -0.5419  1.6442 -1.0368
70306SOL     OW22642   9.045  11.110   6.259  0.2087  0.0935  0.4804
70306SOL    HW122643   9.092  11.056   6.322  3.7294  1.0774 -0.9871
70306SOL    HW222644   9.047  11.059   6.178  0.6711  1.0011 -0.1081
70307SOL     OW22645   0.344   5.345   5.325  0.3073 -0.7827 -0.0471
70307SOL    HW122646   0.418   5.359   5.384 -0.5837 -0.7343  1.0854
70307SOL    HW222647   0.309   5.260   5.349  0.4954 -1.2027 -1.1701
70308SOL     OW22648   7.300  11.897   0.992  0.4451 -0.0623 -0.0785
70308SOL    HW122649   7.256  11.833   0.935  2.0259 -2.4892  1.2673
70308SOL    HW222650   7.241  11.906   1.067  2.1348 -3.6482  1.9347
70309SOL     OW22651   5.013   4.673   7.614  0.7766  0.6517 -0.3429
70309SOL    HW122652   4.969   4.619   7.680  0.9385  0.5133 -0.3472
70309SOL    HW222653   5.106   4.660   7.630  0.8276  1.7922  0.3578
70310SOL     OW22654   8.598   1.890  13.653 -0.0114 -0.7718 -0.6162
70310SOL    HW122655   8.640   1.969  13.686  1.8701 -1.0578 -2.1951
70310SOL    HW222656   8.602   1.828  13.727 -1.3187  0.4671  0.5593
70311SOL     OW22657   0.591   6.036  13.107  0.3372  0.2510  0.0913
70311SOL    HW122658   0.670   6.059  13.155 -0.4315 -0.6340  1.8467
70311SOL    HW222659   0.529   6.007  13.174 -0.8018 -0.9866 -1.4125
70312SOL     OW22660   8.631   6.531  12.591 -0.1257 -0.4992 -0.1363
70312SOL    HW122661   8.636   6.626  12.580  0.8263 -0.3487  1.3479
70312SOL    HW222662   8.539   6.510  12.574 -0.8322  0.9951  1.5115
70313SOL     OW22663   2.979   9.360   8.901 -0.2170 -0.3595  0.7037
70313SOL    HW122664   2.999   9.363   8.807 -0.8220  0.5528  0.5979
70313SOL    HW222665   3.058   9.322   8.941 -0.5385 -2.2362 -0.3217
70314SOL     OW22666   4.726   3.642   0.635  0.1009 -0.3072 -0.8097
70314SOL    HW122667   4.644   3.680   0.602 -1.4325 -1.0482  1.8286
70314SOL    HW222668   4.774   3.717   0.669 -1.6682 -0.2266  1.8405
70315SOL     OW22669  12.861   4.728   6.081  0.2832  0.6478  0.4726
70315SOL    HW122670  12.874   4.725   6.176  0.2749 -1.8910  0.4645
70315SOL    HW222671  12.949   4.715   6.045  0.0927  0.2790  0.1398
70316SOL     OW22672   1.180  10.902  11.061  0.6880 -0.3327  0.1530
70316SOL    HW122673   1.179  10.982  11.009  0.0368  0.0691  0.7653
70316SOL    HW222674   1.099  10.856  11.037  1.2780 -1.0331 -0.5323
70317SOL     OW22675   8.065   7.947   8.825 -0.1938 -0.2044 -0.6144
70317SOL    HW122676   8.090   7.918   8.913 -0.1878 -0.9640 -0.8563
70317SOL    HW222677   8.147   7.945   8.775  0.2495  2.3481 -0.1107
70318SOL     OW22678   0.601   7.203  10.060 -0.1751  0.4689  0.0555
70318SOL    HW122679   0.660   7.277  10.047 -0.3805  0.6432  0.1034
70318SOL    HW222680   0.543   7.231  10.131  0.6187 -0.2832  1.0176
70319SOL     OW22681   9.398   6.504   0.126 -0.2427  0.2582 -0.2352
70319SOL    HW122682   9.360   6.552   0.052  1.3633  2.0262  0.0055
70319SOL    HW222683   9.323   6.472   0.176 -1.3596  1.0351 -1.3683
70320SOL     OW22684  10.854  11.234   0.809 -0.6780  0.1767 -0.9100
70320SOL    HW122685  10.879  11.255   0.899 -0.9295  1.3063 -1.0926
70320SOL    HW222686  10.914  11.165   0.783 -0.1277  0.3469 -0.1216
70321SOL     OW22687   9.416   8.028  13.370 -0.0084 -0.8083  0.3141
70321SOL    HW122688   9.503   8.028  13.331 -0.8574  1.6935 -1.8993
70321SOL    HW222689   9.371   7.955  13.327 -0.0033  0.0274 -1.1608
70322SOL     OW22690   4.989   1.276   5.202 -0.5081 -0.4839  0.8381
70322SOL    HW122691   5.020   1.190   5.173 -1.8081 -0.5978 -0.2815
70322SOL    HW222692   5.023   1.337   5.136 -0.2595 -0.2309  1.1953
70323SOL     OW22693   4.722   1.746   1.401 -0.1840  0.0952 -0.1131
70323SOL    HW122694   4.727   1.658   1.365  0.5553  0.4665 -0.9681
70323SOL    HW222695   4.734   1.735   1.495 -2.1545 -0.9040  0.0731
70324SOL     OW22696   5.163   2.201  10.994 -0.7818  0.0729 -0.0466
70324SOL    HW122697   5.120   2.226  10.912  0.6226 -1.4274 -1.3069
70324SOL    HW222698   5.217   2.276  11.017 -0.2332  0.0680 -1.2193
70325SOL     OW22699   0.833   9.418   8.039  0.2386 -0.6406 -0.0238
70325SOL    HW122700   0.828   9.322   8.036  1.7228 -0.7304 -0.3262
70325SOL    HW222701   0.785   9.441   8.118 -2.4330 -1.4052 -1.3054
70326SOL     OW22702   0.060  12.069   5.744  0.2067  0.5238 -0.1129
70326SOL    HW122703   0.030  12.099   5.830 -0.3851 -0.3917  0.0135
70326SOL    HW222704   0.051  12.146   5.687  1.3955  1.3994  0.7987
70327SOL     OW22705  10.539  13.253   3.520  0.1300  0.2085 -0.2024
70327SOL    HW122706  10.453  13.246   3.480  0.7208  0.7243 -1.6460
70327SOL    HW222707  10.593  13.189   3.473  0.9833  1.2272 -0.6763
70328SOL     OW22708   7.487   3.337   2.872 -0.1559  0.4643 -0.3205
70328SOL    HW122709   7.574   3.373   2.886  1.0088 -2.1970 -0.2112
70328SOL    HW222710   7.501   3.244   2.853 -3.0463 -0.5890  1.7984
70329SOL     OW22711  12.816   6.150  13.729  0.0670 -0.5256  0.7333
70329SOL    HW122712  12.844   6.215  13.665 -0.9997  0.8155  1.5803
70329SOL    HW222713  12.720   6.149  13.721 -0.0882 -0.3111  2.3073
70330SOL     OW22714   9.805   6.537  13.274 -0.1324 -0.3233  0.0023
70330SOL    HW122715   9.725   6.558  13.321 -0.3008 -1.6967  0.3608
70330SOL    HW222716   9.777   6.481  13.202  0.3843  0.0631 -0.5164
70331SOL     OW22717   5.067   3.449   7.461  0.1805 -0.4103  0.2034
70331SOL    HW122718   5.032   3.363   7.436 -0.9378  0.2340 -0.5071
70331SOL    HW222719   5.126   3.429   7.534  0.0496 -1.8013 -0.0292
70332SOL     OW22720   5.191   2.068  13.724 -0.0784  0.0980 -0.0632
70332SOL    HW122721   5.152   2.007  13.787  1.4003 -1.4748 -0.5876
70332SOL    HW222722   5.250   2.013  13.671  3.4667  2.3216  1.1870
70333SOL     OW22723  12.531  12.796   4.432 -0.0213  0.0504 -0.1638
70333SOL    HW122724  12.559  12.705   4.424 -0.6236 -0.1225 -0.3275
70333SOL    HW222725  12.543  12.833   4.345 -0.7509 -0.1565 -0.3573
70334SOL     OW22726   8.526   1.056   2.084 -0.4018  0.3579 -0.3269
70334SOL    HW122727   8.528   1.039   2.179 -0.7297 -1.3570 -0.5896
70334SOL    HW222728   8.614   1.089   2.064 -0.3269  0.7337  0.5591
70335SOL     OW22729   9.366   2.381   9.888  0.3036  0.2747  0.3611
70335SOL    HW122730   9.365   2.477   9.888  0.5158  0.3182 -1.6918
70335SOL    HW222731   9.406   2.357   9.804  1.0961 -1.6232  1.2135
70336SOL     OW22732  11.038   6.050   8.685  0.3742 -0.0023  0.5753
70336SOL    HW122733  10.943   6.042   8.679  0.3109  0.3102  1.1380
70336SOL    HW222734  11.058   6.033   8.777  0.8150  0.4308  0.5618
70337SOL     OW22735   7.423   7.413   8.236  0.3571  0.4925  0.0029
70337SOL    HW122736   7.384   7.470   8.303  1.6128  0.4077  0.8550
70337SOL    HW222737   7.483   7.357   8.285 -2.0133 -2.8010 -0.5543
70338SOL     OW22738   9.390   4.519   8.228 -0.0529  0.1199 -0.1424
70338SOL    HW122739   9.333   4.543   8.155  0.2741 -0.2125 -0.5135
70338SOL    HW222740   9.453   4.590   8.233 -0.0320  0.1077 -0.2321
70339SOL     OW22741   8.014  10.376   4.692 -0.1296 -0.0915 -0.7355
70339SOL    HW122742   7.934  10.332   4.663  0.2169 -0.6018 -0.9367
70339SOL    HW222743   8.031  10.442   4.625 -1.8354  1.8815  0.6374
70340SOL     OW22744   4.719   3.336   7.501  0.7153 -0.4343  0.2008
70340SOL    HW122745   4.748   3.427   7.499 -0.2352 -0.1188 -0.3978
70340SOL    HW222746   4.660   3.331   7.577 -1.7168  0.3161 -1.5003
70341SOL     OW22747   6.464   6.076   8.054  0.2797 -0.3037 -0.2155
70341SOL    HW122748   6.477   5.982   8.040  3.1360  0.2283 -1.9074
70341SOL    HW222749   6.530   6.099   8.120 -0.2760  0.5694  0.0470
70342SOL     OW22750   2.654   8.137  11.137 -0.6026  0.2418  0.1790
70342SOL    HW122751   2.667   8.221  11.180 -0.6705  0.9738 -1.1973
70342SOL    HW222752   2.740   8.095  11.141 -0.3241  0.7863  0.0232
70343SOL     OW22753  11.306  13.258  10.922 -0.1409 -0.6990  0.3916
70343SOL    HW122754  11.288  13.332  10.980 -0.7734  0.4993 -1.2567
70343SOL    HW222755  11.228  13.203  10.929 -1.4310  0.7859 -1.2239
70344SOL     OW22756   3.804  10.710  11.768  0.2260  0.0061 -0.5374
70344SOL    HW122757   3.898  10.700  11.777  0.0992 -1.7790 -0.7716
70344SOL    HW222758   3.776  10.755  11.848  1.3783  1.5522 -0.9707
70345SOL     OW22759   7.568  11.446   8.286 -0.9187  0.4934  0.2080
70345SOL    HW122760   7.611  11.443   8.200 -0.9925  1.1990  0.1404
70345SOL    HW222761   7.542  11.538   8.296 -0.8923  0.4158  0.9955
70346SOL     OW22762   3.647   8.121   9.819 -0.4514 -0.4948 -0.2743
70346SOL    HW122763   3.667   8.100   9.728  0.0776  2.3970 -0.9363
70346SOL    HW222764   3.553   8.137   9.821 -0.2837  0.6691 -0.6603
70347SOL     OW22765   9.149  13.638   6.564  0.2202 -0.2685 -0.0667
70347SOL    HW122766   9.205  13.571   6.523 -0.2444 -0.5881 -0.1904
70347SOL    HW222767   9.174  13.636   6.656 -0.0461 -0.8823  0.0018
70348SOL     OW22768   0.763   4.440  13.709  0.3586 -0.0978 -0.1078
70348SOL    HW122769   0.807   4.372  13.761 -0.1190 -0.5873 -0.3388
70348SOL    HW222770   0.832   4.504  13.691  0.3402  0.5496  1.9096
70349SOL     OW22771   4.919   2.940  12.220 -0.4779  0.5699 -0.2049
70349SOL    HW122772   4.975   3.006  12.262 -0.4123  0.0225  0.5977
70349SOL    HW222773   4.865   2.906  12.291  0.7163 -1.5066 -0.1798
70350SOL     OW22774   8.328  11.919  10.484 -0.1686 -0.8974 -0.0670
70350SOL    HW122775   8.363  11.877  10.562  0.8967  0.6102  0.3063
70350SOL    HW222776   8.403  11.929  10.426 -0.2219  0.9889  0.1061
70351SOL     OW22777  11.273   3.532   6.998 -0.2366 -0.8761  0.1440
70351SOL    HW122778  11.186   3.495   6.981  0.7065 -1.9076 -3.3398
70351SOL    HW222779  11.303   3.562   6.912  2.0990  1.2991  1.5771
70352SOL     OW22780  10.341   4.569  12.541 -0.3438 -0.1307 -0.1089
70352SOL    HW122781  10.402   4.610  12.602 -0.0484  0.5809 -0.8683
70352SOL    HW222782  10.254   4.592  12.575 -0.2043  1.9101 -0.9768
70353SOL     OW22783  10.181  12.170  11.410 -0.0710 -0.5349  0.0014
70353SOL    HW122784  10.124  12.247  11.405  0.7942  0.2436  1.4778
70353SOL    HW222785  10.144  12.117  11.480 -0.1122 -1.0147 -0.3751
70354SOL     OW22786   6.204   9.329   0.704 -0.2277 -0.2396  0.4732
70354SOL    HW122787   6.131   9.275   0.735 -0.5340 -0.0556  0.0891
70354SOL    HW222788   6.177   9.357   0.616  0.4663 -0.4507  0.1928
70355SOL     OW22789   9.133   8.229   9.569 -0.2564  0.7787 -0.0513
70355SOL    HW122790   9.223   8.230   9.602  0.4623  0.1066 -1.8924
70355SOL    HW222791   9.080   8.214   9.648  1.3852 -1.0190  0.8151
70356SOL     OW22792   4.801   0.757   1.291 -0.0081  0.0198 -0.4061
70356SOL    HW122793   4.784   0.725   1.379  0.6124  0.4771 -0.1117
70356SOL    HW222794   4.871   0.821   1.302  0.0482  0.1095 -1.2258
70357SOL     OW22795   8.870   2.059  12.758 -0.1305  0.4144 -0.0095
70357SOL    HW122796   8.793   2.012  12.726  0.4805 -0.9748  0.5032
70357SOL    HW222797   8.902   2.006  12.831  0.8338  1.4156  0.3205
70358SOL     OW22798   0.656   8.555   9.506 -0.7474  0.0281  0.1409
70358SOL    HW122799   0.655   8.540   9.411 -1.9128  0.2838  0.0941
70358SOL    HW222800   0.689   8.473   9.543  0.3027  0.1429 -0.5141
70359SOL     OW22801   8.465   4.136   8.468 -0.5887 -0.5505  0.1987
70359SOL    HW122802   8.509   4.193   8.404 -0.1777 -1.0323  0.0421
70359SOL    HW222803   8.448   4.055   8.420  0.0055 -1.0354  0.7792
70360SOL     OW22804   6.970  13.157  12.773  0.0862  0.1401  0.1742
70360SOL    HW122805   7.042  13.131  12.831  0.6659  1.3072  0.0043
70360SOL    HW222806   6.900  13.183  12.833  1.1590  2.6621  0.4404
70361SOL     OW22807   6.614   0.551   8.398  0.3146 -0.7058 -0.8125
70361SOL    HW122808   6.608   0.644   8.378 -0.8185 -0.8007 -0.9810
70361SOL    HW222809   6.524   0.519   8.391  0.6187 -1.7202 -0.2975
70362SOL     OW22810   4.052   6.938   4.190 -0.0028  0.5530 -0.2087
70362SOL    HW122811   4.041   7.029   4.220  1.7680  0.1012  2.0882
70362SOL    HW222812   4.020   6.885   4.262  1.9172 -0.6119 -0.1281
70363SOL     OW22813  11.138  13.408  13.488  0.3465 -0.3491 -0.0662
70363SOL    HW122814  11.221  13.365  13.509  0.9936 -0.7530 -3.0209
70363SOL    HW222815  11.138  13.415  13.392 -2.2459  1.2671 -0.0455
70364SOL     OW22816   5.053  10.876   5.184 -0.2237 -0.0455 -0.4180
70364SOL    HW122817   5.095  10.937   5.244  1.3164 -0.9222 -0.5472
70364SOL    HW222818   5.028  10.930   5.108 -1.8504  0.9917  0.7784
70365SOL     OW22819  11.604  11.072  11.384  0.2262  0.0054  0.8322
70365SOL    HW122820  11.531  11.129  11.362  0.5617 -0.0782 -0.5708
70365SOL    HW222821  11.682  11.123  11.360  0.6239 -0.0974  1.8483
70366SOL     OW22822   4.778  11.782  13.736  0.4399  0.3264 -0.0308
70366SOL    HW122823   4.757  11.872  13.712  0.5198  0.4726  0.4569
70366SOL    HW222824   4.791  11.784  13.830 -1.3548 -0.5300  0.2825
70367SOL     OW22825   7.762   5.487  13.602  0.4180  0.5674  0.2232
70367SOL    HW122826   7.823   5.492  13.676 -0.0574  1.3823  0.5780
70367SOL    HW222827   7.728   5.397  13.605  1.5292  0.1302  0.0634
70368SOL     OW22828   5.908  10.113   2.258 -0.5510 -0.0099  0.1404
70368SOL    HW122829   5.839  10.097   2.322 -1.2969  0.4688 -0.5296
70368SOL    HW222830   5.961  10.034   2.261 -0.6253 -0.0426  1.2694
70369SOL     OW22831   7.380   2.135   2.563  0.1185  0.1791 -0.1228
70369SOL    HW122832   7.341   2.106   2.645  1.9709  0.6358  0.9962
70369SOL    HW222833   7.308   2.173   2.513 -1.1126 -0.4212  1.1391
70370SOL     OW22834  13.672  12.890   5.223 -0.8263  0.3229 -0.3220
70370SOL    HW122835  13.749  12.942   5.249 -0.8446  1.0836 -1.6943
70370SOL    HW222836  13.620  12.883   5.303  0.9572 -0.7514  0.8058
70371SOL     OW22837   3.478  12.756   3.598  0.1091  0.0539  0.6712
70371SOL    HW122838   3.504  12.689   3.535  1.4030 -0.6425  1.8955
70371SOL    HW222839   3.394  12.789   3.565 -0.4393 -1.9757 -0.0823
70372SOL     OW22840   3.370   8.174   9.889 -0.0802  0.2336  0.1580
70372SOL    HW122841   3.326   8.214   9.815 -0.6439  0.2031  0.4727
70372SOL    HW222842   3.420   8.245   9.928 -0.6627  0.5168  0.4030
70373SOL     OW22843  11.188   3.115   8.119 -0.0561  0.1001 -0.5381
70373SOL    HW122844  11.163   3.161   8.039  0.0872  0.4059 -0.4108
70373SOL    HW222845  11.112   3.060   8.140  0.0820 -0.3158 -1.1238
70374SOL     OW22846   8.785   3.011   8.909  0.1106 -0.4029  0.5951
70374SOL    HW122847   8.720   2.965   8.855  1.3143 -1.5405  0.0595
70374SOL    HW222848   8.734   3.073   8.960 -1.1765  0.2162 -1.3251
70375SOL     OW22849   6.843  11.167   0.542  0.8527 -0.1688 -0.0041
70375SOL    HW122850   6.858  11.247   0.492 -0.0590  0.5843  0.8714
70375SOL    HW222851   6.751  11.146   0.525  0.0231  1.0136  2.5228
70376SOL     OW22852  12.572  13.207  11.116  0.4665 -0.1262 -0.4739
70376SOL    HW122853  12.479  13.187  11.108  0.7538 -1.3458 -1.0453
70376SOL    HW222854  12.612  13.123  11.142  1.3957  0.3907 -0.1857
70377SOL     OW22855   3.529   2.967   4.797  0.1426  0.4351 -0.3217
70377SOL    HW122856   3.597   2.963   4.730  1.3408  0.3066  0.8603
70377SOL    HW222857   3.531   2.881   4.838 -1.8695 -0.1410 -1.3007
70378SOL     OW22858   2.740  11.110   4.978  0.1554  0.0100  0.2878
70378SOL    HW122859   2.650  11.079   4.970  0.0103  0.0455  1.5755
70378SOL    HW222860   2.737  11.199   4.943 -0.6400  0.5258  1.5809
70379SOL     OW22861   5.609  12.927  10.133  0.3906  0.4711  0.0259
70379SOL    HW122862   5.579  12.849  10.180  0.9280  2.2222  3.6981
70379SOL    HW222863   5.531  12.981  10.125  0.7521  1.2794  1.4746
70380SOL     OW22864   5.224  12.866  11.932 -0.0772 -0.0496 -0.0288
70380SOL    HW122865   5.247  12.932  11.997 -1.4262 -0.0342  0.4775
70380SOL    HW222866   5.179  12.798  11.983 -0.4186 -0.4288 -0.8170
70381SOL     OW22867   8.565   2.448   0.658  0.4188 -0.0559 -0.0038
70381SOL    HW122868   8.511   2.464   0.581 -0.1087  1.2827  0.6159
70381SOL    HW222869   8.514   2.384   0.709 -1.8644  2.8737  1.7022
70382SOL     OW22870   1.068   9.426   7.344 -0.1423 -0.7053 -0.1768
70382SOL    HW122871   1.097   9.498   7.287 -0.5140 -1.1810 -0.9800
70382SOL    HW222872   1.017   9.369   7.287  0.9834 -2.1558  0.2180
70383SOL     OW22873   3.472   7.359  13.651 -0.5855 -0.2087 -0.0804
70383SOL    HW122874   3.521   7.362  13.734 -0.3091  1.8082 -0.2555
70383SOL    HW222875   3.536   7.382  13.584 -1.0305 -0.8525 -0.7375
70384SOL     OW22876   0.584   0.839  11.711 -0.1298 -0.1223 -0.3179
70384SOL    HW122877   0.551   0.877  11.792 -0.5784  2.2882 -1.5623
70384SOL    HW222878   0.650   0.776  11.740 -1.3448 -0.4709  1.9541
70385SOL     OW22879   6.256   4.085   9.909 -0.4831 -0.0678  0.0570
70385SOL    HW122880   6.208   4.043   9.838 -1.2221  1.3450 -0.3157
70385SOL    HW222881   6.324   4.136   9.865 -0.3979  0.1302  0.4156
70386SOL     OW22882   4.525   9.368  13.269 -0.7741  0.2860  0.4740
70386SOL    HW122883   4.471   9.351  13.191 -1.2334  0.8315  0.6664
70386SOL    HW222884   4.581   9.441  13.244  1.8413 -1.9538 -0.6581
70387SOL     OW22885   9.669  12.760   9.155  0.1969 -0.1876  0.4410
70387SOL    HW122886   9.763  12.755   9.170  0.3904  2.4602  0.5108
70387SOL    HW222887   9.630  12.759   9.243  0.3647  1.3571  0.5468
70388SOL     OW22888   7.940   9.780   7.431 -0.1356 -0.5445  0.3114
70388SOL    HW122889   7.893   9.827   7.500 -1.3052 -1.2328  0.0134
70388SOL    HW222890   8.031   9.808   7.440 -0.8121  2.1038 -0.0965
70389SOL     OW22891   2.766   8.682   8.170  0.2591 -0.0112  0.2269
70389SOL    HW122892   2.768   8.703   8.076 -1.1443 -1.5666 -0.2021
70389SOL    HW222893   2.808   8.597   8.176  0.9985  0.4137  1.1298
70390SOL     OW22894   9.280   2.235   9.133 -0.4262  0.2781  0.5007
70390SOL    HW122895   9.198   2.275   9.105 -1.1964 -1.0397  0.8108
70390SOL    HW222896   9.287   2.256   9.226 -0.6589 -0.0196  0.5855
70391SOL     OW22897  11.145  11.788  10.275  0.9369 -0.2443  0.2750
70391SOL    HW122898  11.199  11.740  10.213  0.5015 -0.0270 -0.2844
70391SOL    HW222899  11.059  11.792  10.234  0.6443 -0.0790  0.8860
70392SOL     OW22900   3.720   8.273   1.486 -0.1157 -0.4900 -0.0441
70392SOL    HW122901   3.731   8.354   1.436  0.5802 -1.4334 -1.5138
70392SOL    HW222902   3.627   8.270   1.507 -0.0497  0.9508  0.5244
70393SOL     OW22903   5.754   0.710   9.868 -0.2532 -0.2976 -0.2839
70393SOL    HW122904   5.749   0.694   9.774 -0.3426 -3.6332  0.1591
70393SOL    HW222905   5.683   0.772   9.886  0.4147  1.1903 -2.4997
70394SOL     OW22906  12.892   6.830   4.940  0.0576  0.0890  0.4732
70394SOL    HW122907  12.942   6.906   4.912 -0.1085 -0.2548 -0.8287
70394SOL    HW222908  12.958   6.763   4.957  0.1028 -0.2533 -0.8990
70395SOL     OW22909   0.677  12.371   0.608  0.1213 -0.4904 -0.3209
70395SOL    HW122910   0.686  12.464   0.628 -0.5209 -0.6518  0.8394
70395SOL    HW222911   0.766  12.336   0.614  0.1144 -0.3185  1.3694
70396SOL     OW22912   0.444  10.421   2.059 -0.6549 -0.3689 -0.3477
70396SOL    HW122913   0.526  10.433   2.011 -0.0192 -0.6498  0.6498
70396SOL    HW222914   0.446  10.486   2.129 -0.3322 -1.7112  0.9189
70397SOL     OW22915   5.867   6.218   0.701  0.4304 -0.3765 -0.3599
70397SOL    HW122916   5.834   6.172   0.778 -0.7918  1.8692  0.5203
70397SOL    HW222917   5.797   6.210   0.636  1.0073 -1.3158 -0.8993
70398SOL     OW22918  10.012   4.483  10.832  0.0334 -0.2236 -0.1157
70398SOL    HW122919   9.990   4.451  10.920 -0.3031  0.0924 -0.0801
70398SOL    HW222920   9.934   4.463  10.780 -0.1800  0.5280 -0.0928
70399SOL     OW22921  13.341  10.008   9.093  0.2244 -0.4434  0.7223
70399SOL    HW122922  13.288   9.980   9.018 -0.1994  1.6969  0.1601
70399SOL    HW222923  13.431  10.008   9.060 -0.0123  1.0046 -0.0030
70400SOL     OW22924   1.597   5.743   6.879  0.4376  0.6481 -0.1908
70400SOL    HW122925   1.536   5.744   6.953  0.7175  0.7964  0.0396
70400SOL    HW222926   1.634   5.831   6.877  0.0507  0.7973 -0.8296
70401SOL     OW22927   0.226   1.028   4.043 -0.1377 -0.0159  0.0568
70401SOL    HW122928   0.232   1.062   3.954  3.5047 -0.3376  0.0153
70401SOL    HW222929   0.193   0.939   4.032 -2.8731  0.9808 -0.5415
70402SOL     OW22930   1.459   2.111   4.180  0.5757 -0.2664 -0.4247
70402SOL    HW122931   1.388   2.053   4.151 -0.2124  0.0025  0.9177
70402SOL    HW222932   1.421   2.164   4.250  2.0009  0.1428  0.0828
70403SOL     OW22933  11.405  11.233  11.373 -0.2686 -0.4192  0.3193
70403SOL    HW122934  11.364  11.300  11.427 -1.0363 -1.6519  1.3213
70403SOL    HW222935  11.352  11.231  11.293  0.8354  1.3697 -0.5023
70404SOL     OW22936   2.485   3.793   7.971 -0.1276  0.6646  0.6648
70404SOL    HW122937   2.504   3.769   8.062  0.1496  0.8741  0.6640
70404SOL    HW222938   2.497   3.712   7.921  3.5862  1.2859  0.2311
70405SOL     OW22939  11.601   2.165   5.556 -0.5941 -0.1044  0.0960
70405SOL    HW122940  11.582   2.086   5.606 -0.8337  0.3852  0.7859
70405SOL    HW222941  11.518   2.213   5.554 -0.3537  0.3158  0.0136
70406SOL     OW22942   4.379   6.162   2.679 -0.2473 -0.3901  0.1667
70406SOL    HW122943   4.330   6.187   2.757  0.8117  1.8964  0.1819
70406SOL    HW222944   4.333   6.205   2.607  0.6691  0.2455 -0.0463
70407SOL     OW22945   8.409  11.044   8.324 -0.3952 -0.1190  0.0701
70407SOL    HW122946   8.415  10.992   8.245 -1.8739 -0.8291  0.3995
70407SOL    HW222947   8.345  11.112   8.303  0.6354  0.8733  0.0399
70408SOL     OW22948   9.893  11.379   8.897  0.2230 -0.3693  0.1361
70408SOL    HW122949   9.946  11.445   8.852  0.9571 -0.4456  0.8808
70408SOL    HW222950   9.929  11.296   8.869  0.6591 -0.4182  0.8285
70409SOL     OW22951   2.831   4.116   5.619 -0.2029  0.1414 -0.2692
70409SOL    HW122952   2.754   4.077   5.661 -0.2041  0.3007 -0.1193
70409SOL    HW222953   2.854   4.189   5.677  1.7836 -1.5872  1.3076
70410SOL     OW22954  10.529   0.227   2.512  0.5754  0.4580 -0.2994
70410SOL    HW122955  10.549   0.320   2.502 -0.2948  0.6301 -0.4725
70410SOL    HW222956  10.438   0.218   2.483  0.9298 -0.6017 -1.1501
70411SOL     OW22957   1.552   9.134   5.855 -0.0960  0.2404 -0.4590
70411SOL    HW122958   1.612   9.189   5.805  0.5610 -1.7671 -2.0073
70411SOL    HW222959   1.609   9.088   5.917 -0.3993  0.1618 -0.2418
70412SOL     OW22960  12.537   6.921   0.186  0.5934 -0.0850  0.9015
70412SOL    HW122961  12.516   6.884   0.272  0.5034 -0.0270  0.9048
70412SOL    HW222962  12.584   6.851   0.140 -3.1488 -1.8625 -0.6816
70413SOL     OW22963  11.532   0.045   7.066  0.1417  0.1002 -0.3884
70413SOL    HW122964  11.538   0.070   6.974 -0.3053 -0.4140 -0.5642
70413SOL    HW222965  11.440   0.022   7.079 -0.0315  1.2191  0.4725
70414SOL     OW22966  12.077   7.539  11.843  0.3294  0.3596  0.0277
70414SOL    HW122967  12.096   7.456  11.885  0.0824  0.0915 -0.3852
70414SOL    HW222968  12.162   7.583  11.837  0.2754  0.6996  1.4181
70415SOL     OW22969   5.450  13.441   8.354  0.0814 -0.2817  0.4891
70415SOL    HW122970   5.435  13.415   8.263  0.3952 -0.5368  0.5093
70415SOL    HW222971   5.391  13.515   8.367  1.2232  0.8510 -0.4371
70416SOL     OW22972   0.179   6.441   3.860  0.2790  0.4231 -0.1733
70416SOL    HW122973   0.203   6.394   3.940 -0.3707 -0.2846 -0.3824
70416SOL    HW222974   0.121   6.512   3.890 -0.3821 -0.1560 -0.0669
70417SOL     OW22975  12.513   1.467   5.528 -0.0093 -0.4866  0.3200
70417SOL    HW122976  12.579   1.398   5.524  0.1853 -0.2751 -0.1694
70417SOL    HW222977  12.523   1.515   5.446 -1.3543 -0.9906 -0.1762
70418SOL     OW22978   1.449   8.222  11.223 -0.0249 -0.4166  0.6018
70418SOL    HW122979   1.378   8.165  11.251  0.2632 -0.9251  0.3053
70418SOL    HW222980   1.485   8.180  11.144 -0.5514  0.7578 -0.3064
70419SOL     OW22981   0.810  13.639   0.772  0.0618  0.0976  0.3454
70419SOL    HW122982   0.720  13.611   0.789 -0.4206  1.8624  0.9927
70419SOL    HW222983   0.810  13.663   0.679  0.1095 -0.7169  0.1307
70420SOL     OW22984   1.239  10.048   8.124 -0.1921  0.2579  0.2867
70420SOL    HW122985   1.307  10.032   8.190  0.2417  1.9102  0.2801
70420SOL    HW222986   1.179  10.109   8.165  0.0913  1.3280 -0.8180
70421SOL     OW22987  11.703   8.653   3.255 -0.1678 -0.6446  0.5943
70421SOL    HW122988  11.632   8.667   3.192 -0.2008 -0.3855  0.6880
70421SOL    HW222989  11.682   8.570   3.297  0.8183 -1.7675 -1.0245
70422SOL     OW22990   5.414  13.552  10.036 -0.2350 -0.0072  0.3020
70422SOL    HW122991   5.425  13.626  10.096 -0.8958  0.4112 -0.0800
70422SOL    HW222992   5.391  13.478  10.092  0.5224  0.0459  0.6983
70423SOL     OW22993   8.518   9.297   7.002 -0.1686  0.1446 -0.1546
70423SOL    HW122994   8.424   9.294   7.022  0.0003 -1.1763  0.5512
70423SOL    HW222995   8.561   9.272   7.083  0.7598 -0.0944 -0.7033
70424SOL     OW22996  10.244   1.497   0.171  0.4238 -0.4051 -0.0464
70424SOL    HW122997  10.329   1.539   0.157  0.9415 -1.7055 -0.9701
70424SOL    HW222998  10.196   1.512   0.090 -0.5346  0.9550  0.7423
70425SOL     OW22999   4.844   1.624   7.628 -0.0173  0.1803 -0.5335
70425SOL    HW123000   4.917   1.577   7.588 -0.7001  0.0722 -1.6771
70425SOL    HW223001   4.885   1.677   7.697  1.0614 -0.2778 -0.8027
70426SOL     OW23002   5.576   0.648  13.597  0.2264  0.1124  0.3106
70426SOL    HW123003   5.561   0.568  13.649 -0.3126  0.1685  0.2440
70426SOL    HW223004   5.631   0.619  13.525 -0.8139 -0.4263 -0.2900
70427SOL     OW23005   3.113  10.666   1.928 -0.3368  0.4297  0.1452
70427SOL    HW123006   3.192  10.689   1.879 -1.0190  2.7243  0.0215
70427SOL    HW223007   3.056  10.626   1.864 -0.7726  2.3650 -0.7253
70428SOL     OW23008   5.018   8.711   4.625  1.1418  0.3965 -0.2938
70428SOL    HW123009   5.053   8.800   4.637  2.2439 -0.0931  0.3530
70428SOL    HW223010   4.951   8.703   4.693 -0.8681  1.6135 -2.0353
70429SOL     OW23011   7.536   1.914  10.966  0.0506 -0.1759  0.4069
70429SOL    HW123012   7.564   1.826  10.943 -0.4874 -0.1857 -0.2339
70429SOL    HW223013   7.442   1.915  10.948  0.4630  1.3197 -2.2676
70430SOL     OW23014  11.117   6.820   4.868  0.0135  0.2220 -0.2325
70430SOL    HW123015  11.156   6.734   4.855  0.7896  0.3881  0.8449
70430SOL    HW223016  11.190   6.882   4.857 -0.4969  0.7368 -0.8101
70431SOL     OW23017  10.413   2.355   7.787 -0.0665 -0.1861 -0.4811
70431SOL    HW123018  10.392   2.299   7.712 -0.9649 -1.0207  0.3610
70431SOL    HW223019  10.462   2.299   7.846  0.5306  0.4326 -0.3767
70432SOL     OW23020   0.393   8.462   9.925 -0.0989  0.2160  0.1042
70432SOL    HW123021   0.406   8.389   9.865 -0.6414  0.7448 -0.6814
70432SOL    HW223022   0.369   8.422  10.008 -0.8397 -0.4914 -0.4354
70433SOL     OW23023   2.562   9.607   6.757  0.2127  0.3773 -0.6487
70433SOL    HW123024   2.516   9.667   6.817  1.0204  1.4373 -1.0577
70433SOL    HW223025   2.501   9.534   6.745  0.1576 -0.0713  1.7499
70434SOL     OW23026  11.216  13.395   9.643 -0.3621  0.4381 -0.0964
70434SOL    HW123027  11.236  13.362   9.555 -0.2880 -0.0893  0.1177
70434SOL    HW223028  11.240  13.324   9.702 -1.6382  0.2663  0.2638
70435SOL     OW23029   4.172   4.783  11.362 -0.8321 -0.4092 -0.0382
70435SOL    HW123030   4.237   4.744  11.421 -0.8807 -0.6484 -0.1435
70435SOL    HW223031   4.090   4.740  11.384 -0.5076 -1.9448 -1.6061
70436SOL     OW23032   9.704  12.769   5.093 -0.5230 -0.1592 -0.1861
70436SOL    HW123033   9.683  12.744   5.004 -0.0960 -1.3496  0.0289
70436SOL    HW223034   9.781  12.825   5.085 -1.3034  0.8749 -0.6536
70437SOL     OW23035   3.481   7.792   4.577 -0.0360 -0.1898 -0.4111
70437SOL    HW123036   3.428   7.870   4.591  1.1095  0.4626  0.4084
70437SOL    HW223037   3.436   7.723   4.627 -0.7955  0.0457 -0.7606
70438SOL     OW23038   0.186  10.171   3.782  0.1193 -0.1005  0.0452
70438SOL    HW123039   0.245  10.112   3.735  0.7913  1.2462 -0.8707
70438SOL    HW223040   0.242  10.216   3.845 -0.6739 -1.4975  1.8460
70439SOL     OW23041   7.443  10.364   5.888  0.8665 -0.2037  0.5182
70439SOL    HW123042   7.394  10.444   5.867  0.6853  0.0932  1.9487
70439SOL    HW223043   7.447  10.363   5.984 -0.5050 -2.7263  0.6372
70440SOL     OW23044   4.186  12.738  11.263 -0.2572  0.2929  0.2218
70440SOL    HW123045   4.108  12.691  11.294 -0.9451  1.3365  0.1375
70440SOL    HW223046   4.157  12.783  11.184  0.9808 -0.8483 -0.9284
70441SOL     OW23047  10.318  11.424   3.331 -0.2679  0.1579  0.2257
70441SOL    HW123048  10.293  11.505   3.285  1.6761  0.8537  0.2897
70441SOL    HW223049  10.308  11.445   3.424  1.7425  0.9582  0.3276
70442SOL     OW23050   8.478   1.628  12.955 -0.0614 -0.7884 -0.3761
70442SOL    HW123051   8.425   1.553  12.980 -2.1411  1.4158  2.3444
70442SOL    HW223052   8.527   1.598  12.878 -0.0451 -5.1676  1.1047
70443SOL     OW23053   4.252   0.559   1.591  0.9319 -0.4349 -0.6355
70443SOL    HW123054   4.333   0.569   1.640  1.4595  1.3552 -1.7842
70443SOL    HW223055   4.267   0.483   1.535  0.3653 -2.4461  1.7445
70444SOL     OW23056  11.668   2.266   6.284  0.0110 -0.6969 -0.1728
70444SOL    HW123057  11.595   2.285   6.225  0.9104 -0.6842 -1.2955
70444SOL    HW223058  11.692   2.351   6.321 -0.5287 -0.7010  0.2002
70445SOL     OW23059   6.482   2.279   9.193  0.4458  0.0741  0.2499
70445SOL    HW123060   6.552   2.332   9.155 -0.2397  0.2784 -0.7737
70445SOL    HW223061   6.459   2.216   9.124 -0.4621  0.0954  0.5193
70446SOL     OW23062  12.752  11.235   1.970 -0.3188  0.3399 -0.2794
70446SOL    HW123063  12.661  11.207   1.972  0.0411 -0.8902 -0.4649
70446SOL    HW223064  12.799  11.167   2.017  0.1205  2.5828  2.8627
70447SOL     OW23065   3.673   8.891   8.420 -0.0584 -0.6793  0.1909
70447SOL    HW123066   3.648   8.830   8.490  2.3224 -1.5320  0.3809
70447SOL    HW223067   3.765   8.910   8.437 -0.2228  1.4841 -1.0187
70448SOL     OW23068  11.357   7.135   6.342  0.1662 -0.6726 -0.1551
70448SOL    HW123069  11.275   7.147   6.294  0.4075 -1.2717 -0.7302
70448SOL    HW223070  11.381   7.223   6.371 -0.1091 -0.3295 -0.9419
70449SOL     OW23071  10.585   7.480   1.950  0.2598 -0.1333 -0.1045
70449SOL    HW123072  10.523   7.427   1.901 -0.1568 -0.3597  0.6501
70449SOL    HW223073  10.613   7.424   2.022 -0.5664  0.8169  0.9995
70450SOL     OW23074   8.495  10.214   7.751  0.2362 -0.3654 -0.1290
70450SOL    HW123075   8.497  10.267   7.831  1.3648  1.4748 -1.2827
70450SOL    HW223076   8.466  10.128   7.780  1.1074  0.0785  2.3433
70451SOL     OW23077  10.884   0.412   1.822 -0.6054 -0.2047 -0.1930
70451SOL    HW123078  10.874   0.410   1.727 -0.1490 -0.2521 -0.2416
70451SOL    HW223079  10.939   0.336   1.842  0.5174  0.6263 -0.0415
70452SOL     OW23080   2.218   9.569   3.866 -0.0964  0.2326 -0.1588
70452SOL    HW123081   2.215   9.600   3.957 -1.4775  1.7599 -0.6838
70452SOL    HW223082   2.187   9.644   3.814  0.7489 -0.5796 -1.9086
70453SOL     OW23083   0.608   9.568   9.312 -0.0678 -0.0965 -0.2535
70453SOL    HW123084   0.656   9.563   9.395 -0.8105 -0.3026  0.1683
70453SOL    HW223085   0.672   9.603   9.250 -0.6085  4.1991  1.2568
70454SOL     OW23086   1.663   8.459  12.491  0.2319 -0.2084 -0.1174
70454SOL    HW123087   1.713   8.496  12.563 -0.2425 -1.3132  0.8261
70454SOL    HW223088   1.708   8.377  12.470 -0.3608 -0.5189 -0.2013
70455SOL     OW23089   5.608   7.356   3.681  0.4752 -0.6028  0.0120
70455SOL    HW123090   5.599   7.302   3.759 -0.7078  1.4639  1.4223
70455SOL    HW223091   5.697   7.340   3.650  1.1858 -1.0704  2.1411
70456SOL     OW23092   4.108  10.861   5.635  0.1556  0.0224 -0.3164
70456SOL    HW123093   4.080  10.876   5.545 -0.9619  0.0486  0.0151
70456SOL    HW223094   4.137  10.947   5.666  0.4266  0.0382 -0.6084
70457SOL     OW23095  11.003  12.028   4.624  0.1984 -0.1053  0.0260
70457SOL    HW123096  11.094  12.039   4.596  0.7566 -0.9919  1.4104
70457SOL    HW223097  10.952  12.045   4.545  1.3794  2.9474 -0.2187
70458SOL     OW23098   9.147  11.782   2.602  0.1386  0.7649 -0.1751
70458SOL    HW123099   9.111  11.729   2.531 -0.1316 -1.2327  1.3611
70458SOL    HW223100   9.131  11.873   2.575 -2.7590  0.0350 -1.2325
70459SOL     OW23101   6.119   9.852   4.791 -0.3705  0.3832 -0.4283
70459SOL    HW123102   6.071   9.863   4.709 -0.9989  2.0094  0.1314
70459SOL    HW223103   6.168   9.933   4.802  2.5381 -1.1691 -0.9273
70460SOL     OW23104   4.725   3.590  12.206  0.1410  0.2736 -0.4317
70460SOL    HW123105   4.776   3.572  12.127 -1.9871 -1.5483 -1.4903
70460SOL    HW223106   4.703   3.504  12.241 -2.0657  0.9656  0.0400
70461SOL     OW23107   0.109   9.983   5.155 -0.1680 -0.0570 -0.5287
70461SOL    HW123108   0.173  10.037   5.201  1.7928 -1.5431 -1.3531
70461SOL    HW223109   0.024  10.020   5.179  0.9684  1.8154  0.8551
70462SOL     OW23110   9.623   4.650   2.043  0.1452  0.2652 -1.0017
70462SOL    HW123111   9.543   4.643   2.095  1.7044 -1.8620  1.3879
70462SOL    HW223112   9.603   4.604   1.962 -1.5371  1.2703 -1.2070
70463SOL     OW23113   5.038   0.905   5.725  0.3790 -0.4757 -0.4290
70463SOL    HW123114   5.111   0.855   5.760 -0.6014 -0.3078  2.0129
70463SOL    HW223115   5.004   0.953   5.800 -2.3353 -0.6594 -1.4592
70464SOL     OW23116   6.556   4.634   4.711  0.1603 -0.3429 -0.3809
70464SOL    HW123117   6.627   4.687   4.747 -2.0265  0.6169  3.1017
70464SOL    HW223118   6.570   4.547   4.747 -1.3419  0.3179  2.0256
70465SOL     OW23119   3.618  13.424   8.885  0.1548  0.2083  0.2999
70465SOL    HW123120   3.610  13.519   8.886  1.5337  0.3436  0.5245
70465SOL    HW223121   3.641  13.403   8.794  0.3422  0.1435  0.3614
70466SOL     OW23122   6.022   0.521  12.309 -0.4425 -0.3544 -0.3927
70466SOL    HW123123   5.984   0.600  12.271 -1.6573 -0.4821  0.4852
70466SOL    HW223124   6.016   0.535  12.403 -1.1931 -1.7150 -0.2177
70467SOL     OW23125  10.238   6.364   6.004  0.2765  0.5229 -0.1253
70467SOL    HW123126  10.292   6.401   5.935  0.4371  0.9871  0.2504
70467SOL    HW223127  10.157   6.415   6.001  1.1721  2.1399  1.5680
70468SOL     OW23128   1.306   1.239  13.432 -0.3398 -0.3278  0.3321
70468SOL    HW123129   1.332   1.264  13.521  0.8014  0.4532 -0.2103
70468SOL    HW223130   1.352   1.300  13.375  0.7406 -2.2356 -0.9274
70469SOL     OW23131   2.059   1.713   4.519 -0.2068  0.2830 -0.2618
70469SOL    HW123132   2.128   1.679   4.461 -0.6675 -0.8634 -0.1574
70469SOL    HW223133   2.091   1.696   4.607 -0.5631 -0.1412 -0.2112
70470SOL     OW23134   8.886   5.551  12.301  0.4156  0.3003 -0.1363
70470SOL    HW123135   8.950   5.494  12.343  0.1164  0.1306  0.0951
70470SOL    HW223136   8.892   5.530  12.207  0.6677  0.2600 -0.1118
70471SOL     OW23137   7.228  12.767  13.442 -0.7172  0.3098  0.0241
70471SOL    HW123138   7.195  12.816  13.367 -2.4698 -0.6618  0.0972
70471SOL    HW223139   7.241  12.678  13.408 -0.4429  0.1273  0.6035
70472SOL     OW23140   5.411   3.700  10.354  0.0558  0.4253  0.0063
70472SOL    HW123141   5.439   3.610  10.370 -1.5533 -0.3343 -1.1707
70472SOL    HW223142   5.486   3.742  10.314 -0.0241 -1.2221 -2.0340
70473SOL     OW23143   6.268   8.511  13.258  0.0449  0.2096  0.4490
70473SOL    HW123144   6.243   8.536  13.169  2.0551 -0.0912 -0.2361
70473SOL    HW223145   6.328   8.437  13.247 -1.4331 -1.3757  2.1826
70474SOL     OW23146  11.655   3.589   7.877  0.3259 -0.0242 -0.1157
70474SOL    HW123147  11.717   3.531   7.832 -0.8337 -1.1117 -0.3628
70474SOL    HW223148  11.690   3.677   7.862  1.1135 -0.5132 -1.3499
70475SOL     OW23149   3.547   6.530   7.835 -0.0528 -0.2772 -0.5315
70475SOL    HW123150   3.548   6.448   7.884  0.4216 -0.4504 -0.8318
70475SOL    HW223151   3.515   6.505   7.748 -0.8902  0.0284 -0.3288
70476SOL     OW23152   8.979   2.922  11.602  0.4769 -0.4501  0.4094
70476SOL    HW123153   8.892   2.958  11.618 -0.8585 -2.7918 -0.9777
70476SOL    HW223154   9.010   2.893  11.687 -0.2895  0.0246  0.8588
70477SOL     OW23155   0.170   8.833   6.147 -0.0275 -0.0275 -0.0400
70477SOL    HW123156   0.179   8.894   6.221  1.0158  2.8244 -2.2972
70477SOL    HW223157   0.243   8.772   6.158  0.2379  0.4666  1.1805
70478SOL     OW23158   6.797   4.925   1.714 -0.5402 -0.3835 -0.3593
70478SOL    HW123159   6.842   4.951   1.633 -0.8598 -0.2092 -0.4865
70478SOL    HW223160   6.837   4.842   1.738 -0.2126 -0.2755 -0.5162
70479SOL     OW23161  13.405  11.275  13.410  0.0599 -0.3468 -0.0155
70479SOL    HW123162  13.378  11.202  13.355 -1.6775  0.3420 -0.1337
70479SOL    HW223163  13.345  11.274  13.484  1.1374 -0.0808  0.8933
70480SOL     OW23164   6.258   6.527   7.485  0.1006 -0.0195  0.2348
70480SOL    HW123165   6.193   6.598   7.478 -0.4816 -0.4223  1.3398
70480SOL    HW223166   6.343   6.571   7.479 -0.0846  1.3905  4.5569
70481SOL     OW23167   3.033  10.939   2.818 -0.1159  0.3728  0.5405
70481SOL    HW123168   3.117  10.899   2.842  1.5248  1.8820 -2.1719
70481SOL    HW223169   3.032  11.022   2.865 -0.5140 -0.0270  1.2443
70482SOL     OW23170   8.966   9.989   3.061 -0.1868 -0.3339 -0.1739
70482SOL    HW123171   8.899  10.055   3.043  0.5755 -0.2269 -3.0552
70482SOL    HW223172   9.022  10.029   3.127 -0.3360  1.5067 -1.0930
70483SOL     OW23173   1.581   6.912   7.351 -0.0213 -0.4779  0.0816
70483SOL    HW123174   1.545   6.994   7.384  0.1357  0.4699 -1.9171
70483SOL    HW223175   1.676   6.924   7.353  0.0057 -0.6447 -0.0918
70484SOL     OW23176   5.527   4.681  13.086 -0.5228  0.0359 -0.3054
70484SOL    HW123177   5.523   4.595  13.044 -1.3245 -0.1399  0.1103
70484SOL    HW223178   5.619   4.707  13.079 -0.7964  0.5934 -3.2857
70485SOL     OW23179  10.403  12.524   1.186 -0.0980  0.2716 -0.3579
70485SOL    HW123180  10.399  12.548   1.278  0.6024  2.3384 -0.8183
70485SOL    HW223181  10.393  12.607   1.139 -1.7473 -0.8660 -2.1990
70486SOL     OW23182   8.000   1.588   4.966  0.1808  1.1247 -0.3102
70486SOL    HW123183   7.979   1.505   4.924 -1.9405  0.4993  1.7761
70486SOL    HW223184   8.090   1.577   4.998 -0.3794 -0.7713  0.7529
70487SOL     OW23185  11.978  10.405   2.396 -0.0742  0.4277  0.3629
70487SOL    HW123186  12.049  10.410   2.333  1.4957  1.2587  2.1095
70487SOL    HW223187  12.013  10.356   2.470 -1.8695 -0.5494  0.6411
70488SOL     OW23188   8.879   5.422   9.240 -0.0542  0.5889 -0.2895
70488SOL    HW123189   8.865   5.444   9.148  0.2739  1.1843 -0.2096
70488SOL    HW223190   8.796   5.385   9.269  0.1627 -0.5442 -1.0807
70489SOL     OW23191   4.670   0.196   8.848 -0.3001  0.7630  0.0881
70489SOL    HW123192   4.646   0.140   8.922 -1.4242  0.4980 -0.4619
70489SOL    HW223193   4.610   0.271   8.854  0.8310  1.6747  0.5015
70490SOL     OW23194   5.923   2.910   1.275 -0.5438 -0.5342 -0.4555
70490SOL    HW123195   5.901   2.924   1.183 -0.4756 -1.2188 -0.5809
70490SOL    HW223196   5.982   2.835   1.274 -2.7014 -2.3287  0.3732
70491SOL     OW23197   1.265   2.376   9.928  0.1478  0.4055 -0.2424
70491SOL    HW123198   1.281   2.402  10.018  0.1083  0.6774 -0.3130
70491SOL    HW223199   1.338   2.318   9.906 -0.1386 -0.1134  0.1430
70492SOL     OW23200  10.635   2.104   6.208 -0.2173  0.9272 -0.0477
70492SOL    HW123201  10.638   2.044   6.283  0.2548  0.3183 -0.5364
70492SOL    HW223202  10.545   2.100   6.176  0.0084 -0.1907 -0.5896
70493SOL     OW23203   5.766   0.678   7.864 -0.0324  0.3695  0.1615
70493SOL    HW123204   5.858   0.680   7.836 -0.0588 -0.8627 -0.0703
70493SOL    HW223205   5.758   0.598   7.915 -0.7974  0.8842  0.8629
70494SOL     OW23206   5.895   0.560   1.654  0.2396  0.3890  0.1842
70494SOL    HW123207   5.978   0.571   1.608 -0.7930  0.6496 -1.7491
70494SOL    HW223208   5.911   0.491   1.718  1.9302  0.4459 -0.1320
70495SOL     OW23209   8.642  12.105   8.254 -0.2201 -0.5228 -0.2392
70495SOL    HW123210   8.547  12.112   8.247 -0.1907  2.0741  0.8422
70495SOL    HW223211   8.676  12.163   8.186  0.6282 -1.6408 -0.8017
70496SOL     OW23212   0.852   3.529  10.172 -0.1430 -0.0965  0.3898
70496SOL    HW123213   0.900   3.448  10.157  1.3323  0.4624  1.8730
70496SOL    HW223214   0.872   3.554  10.262 -0.7093  1.8170  0.0401
70497SOL     OW23215   8.560  10.031   3.630  0.1194  0.5964  0.1243
70497SOL    HW123216   8.517  10.107   3.670  0.5916  1.3255 -0.7114
70497SOL    HW223217   8.526  10.029   3.540 -0.7373 -0.8682  0.4449
70498SOL     OW23218   0.402   8.774   8.976  0.0399 -0.1058  0.2660
70498SOL    HW123219   0.417   8.769   8.882 -0.2502  0.9432  0.1478
70498SOL    HW223220   0.309   8.756   8.987  0.1103 -0.4173  0.3819
70499SOL     OW23221   9.885  12.998   1.309 -0.3814  0.5292 -0.4890
70499SOL    HW123222   9.853  13.068   1.367  0.9164 -1.0733  2.3879
70499SOL    HW223223   9.832  12.922   1.333 -0.2804 -0.0363 -1.9781
70500SOL     OW23224   6.210   9.687   6.769  0.4113 -0.1483  0.6149
70500SOL    HW123225   6.167   9.620   6.823  0.9825 -0.3118  0.8716
70500SOL    HW223226   6.174   9.673   6.682  1.1415 -1.3575  0.4778
70501SOL     OW23227   6.632   0.489  11.362  0.4322  0.2559 -0.8686
70501SOL    HW123228   6.548   0.471  11.320  1.9552  1.3762 -4.8045
70501SOL    HW223229   6.616   0.567  11.416 -1.7128 -1.4917  1.2421
70502SOL     OW23230   7.340  13.116   4.668  0.5901  0.4985  0.9195
70502SOL    HW123231   7.352  13.164   4.750 -0.1827  2.3458  0.0001
70502SOL    HW223232   7.358  13.180   4.599 -1.7911 -0.1194 -0.3993
70503SOL     OW23233  11.758  12.864   2.766  0.5484  0.5175 -0.2479
70503SOL    HW123234  11.843  12.887   2.803  0.0719  1.1082  0.4888
70503SOL    HW223235  11.779  12.832   2.678  1.5552  0.3860  0.0259
70504SOL     OW23236  12.485   6.278  13.081  0.3101 -0.2076 -0.2409
70504SOL    HW123237  12.575   6.312  13.078  1.1825 -2.3037 -3.2436
70504SOL    HW223238  12.460   6.284  13.173  3.0537  1.5839  0.5197
70505SOL     OW23239   5.045   4.953  11.840 -0.2436 -0.0805  0.5418
70505SOL    HW123240   4.959   4.977  11.805  0.5006  1.6118 -0.2522
70505SOL    HW223241   5.105   4.966  11.767  0.8035 -0.4761  1.3071
70506SOL     OW23242   1.096   0.489  13.715 -0.6167 -0.5853 -0.6657
70506SOL    HW123243   1.168   0.534  13.672 -0.5323  1.1951  1.1790
70506SOL    HW223244   1.109   0.507  13.808 -1.7125 -2.8598 -0.0031
70507SOL     OW23245   2.188   2.021   9.226  0.2438  0.3150 -0.4898
70507SOL    HW123246   2.122   2.086   9.201  1.4162  1.4781 -0.6480
70507SOL    HW223247   2.210   1.978   9.143  0.0607  0.2793 -0.5214
70508SOL     OW23248   3.270   5.994   1.172  0.0044 -0.5747 -0.7435
70508SOL    HW123249   3.332   5.924   1.150 -0.2841 -1.1033  0.0559
70508SOL    HW223250   3.286   6.011   1.265  1.2763  1.6767 -1.3073
70509SOL     OW23251   7.863   3.976  12.848 -0.4365  0.4701  0.0107
70509SOL    HW123252   7.838   4.068  12.841 -1.2770  0.2859  0.4737
70509SOL    HW223253   7.797   3.929  12.798  0.1159  0.1315 -0.4097
70510SOL     OW23254  10.493   9.251  11.543  0.7989  0.0820  0.0487
70510SOL    HW123255  10.543   9.186  11.591  0.9753 -0.6679 -1.1216
70510SOL    HW223256  10.496   9.329  11.598 -0.1482 -1.1270  1.9021
70511SOL     OW23257  10.265  11.819   0.304  0.1976 -0.2126 -0.1726
70511SOL    HW123258  10.302  11.831   0.391  0.8838 -0.3086 -0.4455
70511SOL    HW223259  10.212  11.739   0.312  0.5370 -0.4179  0.0725
70512SOL     OW23260   2.814  11.174   9.358 -0.4875 -0.7212  0.0349
70512SOL    HW123261   2.871  11.250   9.364 -0.6386 -0.6176  0.1838
70512SOL    HW223262   2.748  11.198   9.293  0.6883 -1.5418 -1.5335
70513SOL     OW23263   9.804   9.663  10.403 -0.2540  0.1597  0.2567
70513SOL    HW123264   9.842   9.705  10.480 -0.7098  2.5117 -0.6945
70513SOL    HW223265   9.864   9.592  10.381  1.2698  1.1040  1.2612
70514SOL     OW23266   4.569   0.793  12.734 -0.3240 -0.2662 -0.7144
70514SOL    HW123267   4.596   0.790  12.642  1.2961  0.6731 -0.2988
70514SOL    HW223268   4.511   0.718  12.744  1.5099 -1.9171 -1.8739
70515SOL     OW23269   9.702   3.436   4.811 -0.1521 -0.1563  0.5535
70515SOL    HW123270   9.646   3.384   4.754  0.7955 -0.1725 -0.3813
70515SOL    HW223271   9.791   3.405   4.794  0.2572  0.5707  1.2637
70516SOL     OW23272   0.047  12.785   5.587 -0.4378 -0.2127 -0.3931
70516SOL    HW123273   0.069  12.793   5.679 -1.2580  0.8728 -0.2702
70516SOL    HW223274  -0.028  12.844   5.575  2.5219  3.5661 -2.7482
70517SOL     OW23275  11.030  13.217   6.229 -0.3020  0.0166 -0.1085
70517SOL    HW123276  10.984  13.259   6.156 -0.4061  1.4428  0.7242
70517SOL    HW223277  10.980  13.243   6.306  1.4609  1.0292  0.7555
70518SOL     OW23278   1.717   0.507   5.863 -0.2811  0.1042  0.3061
70518SOL    HW123279   1.679   0.506   5.952 -0.5787 -0.1397  0.1786
70518SOL    HW223280   1.673   0.580   5.820  0.5513  0.8196  0.6514
70519SOL     OW23281   8.489   6.428  10.800  0.3230  0.1040 -0.2060
70519SOL    HW123282   8.399   6.441  10.832 -0.7639  0.5099 -3.1238
70519SOL    HW223283   8.500   6.494  10.732  2.6583 -0.3162 -0.2941
70520SOL     OW23284   2.701   1.687   2.671  0.3344 -0.3095 -0.0814
70520SOL    HW123285   2.695   1.593   2.656  0.5917 -0.0701 -1.9473
70520SOL    HW223286   2.620   1.722   2.634  0.5786  0.2824 -0.0702
70521SOL     OW23287  10.353   2.483  11.637  0.4851  0.5454  0.2207
70521SOL    HW123288  10.349   2.570  11.596  1.2468  0.0022 -1.0568
70521SOL    HW223289  10.323   2.423  11.569 -2.8692  0.0043  1.9603
70522SOL     OW23290   4.416   1.602   0.126 -0.0308 -0.0576  0.2351
70522SOL    HW123291   4.437   1.512   0.150 -0.1715 -0.8595 -2.3307
70522SOL    HW223292   4.494   1.652   0.151  0.7041 -1.1720  0.2411
70523SOL     OW23293   3.730   8.788   2.512  0.0274  0.6343 -0.0459
70523SOL    HW123294   3.642   8.827   2.514 -0.0730  0.3927  0.7774
70523SOL    HW223295   3.721   8.707   2.564  1.0724  1.3707  1.3535
70524SOL     OW23296   4.738   3.039   6.733 -0.4086 -0.3867 -0.0912
70524SOL    HW123297   4.732   3.113   6.673 -2.0337 -0.5643 -0.1958
70524SOL    HW223298   4.658   3.043   6.785  1.0793 -0.0924  2.3003
70525SOL     OW23299   9.637  11.126   3.104  0.2058  0.1019  0.5037
70525SOL    HW123300   9.721  11.171   3.111  0.0179  0.5465 -0.0210
70525SOL    HW223301   9.621  11.120   3.010  0.0067 -0.6558  0.5782
70526SOL     OW23302   7.289   3.002   1.452 -0.0995 -0.0790 -0.4629
70526SOL    HW123303   7.326   2.990   1.365  1.9627  0.1880  0.3064
70526SOL    HW223304   7.358   3.047   1.501 -1.3259  0.0725  1.2180
70527SOL     OW23305   6.193   9.233   4.923  0.2968 -0.2415 -0.4521
70527SOL    HW123306   6.215   9.319   4.888 -1.0565  0.4654  0.3290
70527SOL    HW223307   6.271   9.180   4.908  1.9402  1.6532  0.8560
70528SOL     OW23308   5.445  12.726  12.546 -0.3234 -0.2890 -0.0397
70528SOL    HW123309   5.410  12.811  12.520 -0.6047  0.2480  1.9082
70528SOL    HW223310   5.499  12.745  12.622  1.3046 -1.6025 -0.7990
70529SOL     OW23311  10.143   8.157   6.372 -0.2035 -0.4550 -0.2184
70529SOL    HW123312  10.104   8.088   6.425  2.4238 -0.9199  1.2834
70529SOL    HW223313  10.078   8.227   6.372 -2.5362 -2.4696 -0.9574
70530SOL     OW23314  11.132   9.651   9.882 -0.1999  0.0276 -0.1193
70530SOL    HW123315  11.197   9.581   9.881 -0.5740 -0.3252 -0.2326
70530SOL    HW223316  11.062   9.619   9.825 -0.6212  0.2567  0.2647
70531SOL     OW23317   1.973  11.251   5.403  0.3103 -0.7302  0.1979
70531SOL    HW123318   1.995  11.266   5.495  1.7962 -0.6151 -0.1488
70531SOL    HW223319   2.026  11.314   5.355 -0.8108 -0.4648 -0.7321
70532SOL     OW23320  11.066   2.789   8.113 -0.0823  0.2621 -0.5188
70532SOL    HW123321  11.021   2.838   8.182 -0.1955 -1.3917  0.6481
70532SOL    HW223322  11.147   2.758   8.155 -0.7458 -1.8438 -0.6662
70533SOL     OW23323  12.210   6.521   6.629 -0.2520  0.0362 -0.2957
70533SOL    HW123324  12.137   6.507   6.689  0.6765 -2.2332  0.4242
70533SOL    HW223325  12.170   6.518   6.542 -1.3714  1.6853  0.1105
70534SOL     OW23326   4.936   1.675   0.676  0.2646  0.1540 -0.2275
70534SOL    HW123327   4.871   1.634   0.619 -0.5657  1.8382 -0.5476
70534SOL    HW223328   4.902   1.661   0.765 -0.6200  1.0968 -0.3967
70535SOL     OW23329   0.340   3.001   1.918 -0.2171  0.1554  0.2741
70535SOL    HW123330   0.423   2.992   1.872 -0.6120  1.0088 -0.6354
70535SOL    HW223331   0.294   3.071   1.872 -1.9017 -1.0293  0.0550
70536SOL     OW23332  10.510  11.402   6.785  0.1485 -0.1167  0.1227
70536SOL    HW123333  10.586  11.360   6.745  0.0098 -1.4743  1.2161
70536SOL    HW223334  10.506  11.366   6.873 -1.0940  0.8150  0.4794
70537SOL     OW23335   1.140   3.571  11.522  0.1608  0.2770 -0.0340
70537SOL    HW123336   1.127   3.542  11.612 -0.7116  1.7708  0.3526
70537SOL    HW223337   1.231   3.603  11.521  1.0250 -1.9628 -0.3799
70538SOL     OW23338   1.307   5.793  12.373  0.6761  0.1101 -0.3223
70538SOL    HW123339   1.355   5.732  12.429  1.0592  1.4411  0.8595
70538SOL    HW223340   1.222   5.803  12.416  1.3560  1.9757  0.7082
70539SOL     OW23341   6.808  12.607   1.170 -0.0553 -0.6836 -0.0738
70539SOL    HW123342   6.822  12.549   1.096 -0.6941  0.1900 -0.9079
70539SOL    HW223343   6.870  12.678   1.157  0.6293 -1.0897  0.8667
70540SOL     OW23344  12.001   4.571  12.010 -0.4246 -0.7079  0.0568
70540SOL    HW123345  12.083   4.621  12.013 -1.1249  0.4303  1.3857
70540SOL    HW223346  12.024   4.489  11.966  1.1254  0.1197 -0.7442
70541SOL     OW23347   5.329  11.925  12.807  0.1339 -0.0864 -0.3754
70541SOL    HW123348   5.363  11.980  12.877 -1.2662  1.8959 -1.1658
70541SOL    HW223349   5.400  11.922  12.742 -0.3077  2.2131 -1.0449
70542SOL     OW23350   8.785   2.652   1.461 -0.2419 -0.1072  0.2895
70542SOL    HW123351   8.821   2.668   1.374  1.3632 -1.1468  0.7246
70542SOL    HW223352   8.806   2.561   1.480 -0.5055  0.1094  1.7894
70543SOL     OW23353   3.338   6.071  13.624 -0.0472 -0.2419 -0.0912
70543SOL    HW123354   3.295   5.999  13.578  0.8321 -0.8778  0.0621
70543SOL    HW223355   3.296   6.150  13.589 -2.5166 -0.8695  1.2580
70544SOL     OW23356   3.769   7.786  13.106  0.7400  0.0819 -0.2474
70544SOL    HW123357   3.771   7.876  13.072 -1.8197  0.6751  0.9476
70544SOL    HW223358   3.832   7.739  13.052  1.2237  2.3038 -1.7661
70545SOL     OW23359  12.688   3.744   1.529  0.4623  0.3039  0.4901
70545SOL    HW123360  12.719   3.771   1.615  0.4573  0.4385  0.4497
70545SOL    HW223361  12.634   3.667   1.546  1.4163 -0.3837  0.4811
70546SOL     OW23362  10.874   8.055   2.611  0.1294 -0.0106  0.2559
70546SOL    HW123363  10.826   8.067   2.693  1.6605 -1.9668  1.5370
70546SOL    HW223364  10.868   8.140   2.566  0.8738  1.7807  3.2799
70547SOL     OW23365  12.364   2.714  11.860 -0.4781 -0.1601  0.0113
70547SOL    HW123366  12.369   2.761  11.776 -0.0699  0.4515  0.3666
70547SOL    HW223367  12.284   2.662  11.854 -0.1918 -0.5023 -0.9465
70548SOL     OW23368   2.215   1.786   7.711  0.3889 -0.0237 -0.3589
70548SOL    HW123369   2.223   1.711   7.653  1.9798 -0.6166  0.5785
70548SOL    HW223370   2.176   1.751   7.791 -0.4544  0.5063 -0.5202
70549SOL     OW23371   3.430   3.355   1.429  0.0756 -0.2907 -0.5141
70549SOL    HW123372   3.384   3.286   1.476 -1.5978  0.7235 -0.5949
70549SOL    HW223373   3.407   3.342   1.337  1.1389 -0.6244 -0.7537
70550SOL     OW23374   8.974  11.600   4.471  0.3467 -0.2097  0.1921
70550SOL    HW123375   8.905  11.666   4.461  0.1172 -0.6145 -1.1001
70550SOL    HW223376   8.926  11.519   4.486  0.6381 -0.0440  2.2500
70551SOL     OW23377   8.271   4.179  12.410  0.4464  0.2517 -0.3338
70551SOL    HW123378   8.212   4.115  12.369 -1.0291  0.6490  1.0586
70551SOL    HW223379   8.222   4.261  12.409  0.0592  0.1736  2.6437
70552SOL     OW23380   1.642   4.789   4.931  0.0886 -0.2606 -0.1267
70552SOL    HW123381   1.644   4.812   5.024 -0.3333 -1.4900  0.2000
70552SOL    HW223382   1.549   4.784   4.909  0.1856 -0.2190 -0.5491
70553SOL     OW23383   8.336   3.055  11.418 -0.0080  0.1975  0.4170
70553SOL    HW123384   8.421   3.080  11.381 -0.8607  1.0731 -1.0550
70553SOL    HW223385   8.327   3.111  11.496  0.8262 -0.0385  0.6979
70554SOL     OW23386   6.411  11.669   9.144 -0.0034  0.3533  0.3427
70554SOL    HW123387   6.366  11.631   9.068 -0.4535 -0.1072  0.8309
70554SOL    HW223388   6.380  11.759   9.147 -0.4266  0.2117  0.3113
70555SOL     OW23389   4.663   7.886   3.226  0.6461 -0.4323  0.6622
70555SOL    HW123390   4.668   7.973   3.265 -0.1395 -0.2633  0.3910
70555SOL    HW223391   4.577   7.882   3.184  0.8760 -1.1518  0.2280
70556SOL     OW23392   1.394   3.280   2.525 -0.3768 -0.5403  0.5837
70556SOL    HW123393   1.449   3.237   2.459 -2.4300 -0.5541 -1.2268
70556SOL    HW223394   1.445   3.356   2.553  0.3010 -0.1393 -1.5605
70557SOL     OW23395  11.344  12.570  11.493  0.2348 -0.1871 -0.1999
70557SOL    HW123396  11.257  12.547  11.526  0.4130 -0.1213  0.3191
70557SOL    HW223397  11.353  12.519  11.412 -0.4767  0.1762 -0.5111
70558SOL     OW23398   9.866  10.838   7.665  0.2671  0.3259 -0.2750
70558SOL    HW123399   9.785  10.787   7.654  0.1914  0.4570 -0.3355
70558SOL    HW223400   9.836  10.929   7.667  0.2906  0.3220  0.8361
70559SOL     OW23401   5.519  10.919   7.176  0.4253 -0.0806 -0.2233
70559SOL    HW123402   5.518  10.917   7.080 -0.9603 -0.5332 -0.2183
70559SOL    HW223403   5.578  10.991   7.198 -1.1447  1.6893 -1.4686
70560SOL     OW23404   3.882  11.046  10.499  0.2650  0.4742  0.1489
70560SOL    HW123405   3.799  11.033  10.546  1.1016  0.8277  1.7972
70560SOL    HW223406   3.855  11.078  10.413 -1.3231  0.4512  0.5923
70561SOL     OW23407   6.866   7.044   3.349  0.1582  0.2881 -0.5715
70561SOL    HW123408   6.779   7.071   3.318 -0.2356  0.1543  0.3785
70561SOL    HW223409   6.924   7.115   3.320 -0.1583  0.1216 -1.6847
70562SOL     OW23410  12.361  11.563  13.145 -0.1346 -0.4764 -0.2027
70562SOL    HW123411  12.413  11.507  13.202  0.5462  1.0938  0.7408
70562SOL    HW223412  12.369  11.522  13.058 -0.6764 -2.5292  0.6450
70563SOL     OW23413   0.174   5.727  10.468 -0.4572  0.4117 -0.0879
70563SOL    HW123414   0.152   5.815  10.438 -4.1021  0.2528  1.5182
70563SOL    HW223415   0.179   5.734  10.563 -0.3864 -1.0129  0.0372
70564SOL     OW23416   1.520   4.512   3.545  0.5942  0.3144 -0.3002
70564SOL    HW123417   1.534   4.453   3.619 -1.3917  1.6650  1.2716
70564SOL    HW223418   1.607   4.543   3.522  1.3880 -1.1326  0.6230
70565SOL     OW23419   9.120   1.115   3.915  0.1178 -0.5845 -0.0635
70565SOL    HW123420   9.033   1.076   3.907  0.0415 -0.6482  0.9313
70565SOL    HW223421   9.171   1.076   3.844 -0.7831 -0.1938 -0.9566
70566SOL     OW23422   8.726   3.002  11.665  0.3759  0.3716  0.2685
70566SOL    HW123423   8.707   3.094  11.686  2.2163  0.7542  0.4140
70566SOL    HW223424   8.694   2.991  11.576 -0.2358  1.0331  0.3982
70567SOL     OW23425   1.003   6.222   9.511 -0.2817  0.9402 -0.5153
70567SOL    HW123426   1.043   6.236   9.425  1.5987  0.9668  0.3041
70567SOL    HW223427   0.967   6.308   9.535  1.0368  1.5046 -0.4299
70568SOL     OW23428   6.957   2.674   1.079 -0.5281 -0.3726 -0.1100
70568SOL    HW123429   6.938   2.708   0.992 -0.8162 -1.5436 -0.5228
70568SOL    HW223430   6.892   2.605   1.093 -0.5178 -0.1707  1.0567
70569SOL     OW23431   7.091  11.067   9.241 -0.2122  0.2980 -0.1459
70569SOL    HW123432   7.173  11.062   9.290 -0.0494  1.0417 -0.3323
70569SOL    HW223433   7.023  11.067   9.308 -0.0430  0.1928  0.0278
70570SOL     OW23434   7.842   7.827  10.546  0.2200 -0.4826  0.0495
70570SOL    HW123435   7.863   7.835  10.453 -1.0078  0.4222 -0.1680
70570SOL    HW223436   7.916   7.870  10.590  0.1332  0.3279 -0.5715
70571SOL     OW23437   6.576   5.521  12.320  0.3614 -0.4276  0.4039
70571SOL    HW123438   6.533   5.606  12.312 -1.6453 -1.4963 -0.9622
70571SOL    HW223439   6.645   5.535  12.385  0.5809  2.4114 -0.3221
70572SOL     OW23440   1.622   0.632   6.924 -0.4265 -0.1526 -0.1547
70572SOL    HW123441   1.567   0.675   6.988  0.0289  0.7571 -0.3593
70572SOL    HW223442   1.603   0.677   6.842  0.9081  0.4782 -0.1489
70573SOL     OW23443   9.612   2.977   7.517 -0.1734 -0.3269 -0.4988
70573SOL    HW123444   9.692   2.952   7.469 -0.2918 -2.5182  0.3662
70573SOL    HW223445   9.585   3.059   7.475  3.2577  1.2908  0.0451
70574SOL     OW23446   4.238  13.611   6.354  0.3595  0.1644 -0.2479
70574SOL    HW123447   4.292  13.590   6.278  1.3501  0.9268  0.2193
70574SOL    HW223448   4.208  13.701   6.338 -0.6464 -0.1906 -0.4206
70575SOL     OW23449   6.936  10.565   3.988  0.2672 -0.6425  0.2516
70575SOL    HW123450   7.023  10.584   4.022  0.1394 -1.8384  1.3081
70575SOL    HW223451   6.933  10.470   3.981 -0.1962 -0.5084 -1.8972
70576SOL     OW23452  11.319   2.593   6.446 -0.3858 -0.1634 -0.1602
70576SOL    HW123453  11.273   2.521   6.402  1.4721 -1.7223  0.3117
70576SOL    HW223454  11.281   2.596   6.533 -1.3951  0.3429 -0.6036
70577SOL     OW23455   9.901  11.077  11.991 -0.6572  0.2827  0.2222
70577SOL    HW123456   9.914  10.982  11.996 -0.3507  0.3232  0.2335
70577SOL    HW223457   9.819  11.087  11.943  0.6422  0.0386 -2.2186
70578SOL     OW23458  13.734   3.036  10.839 -0.2249 -0.5459 -0.2352
70578SOL    HW123459  13.823   3.002  10.841 -0.0579 -0.1615 -0.6635
70578SOL    HW223460  13.685   2.981  10.900  0.7732  0.5857  1.6923
70579SOL     OW23461   1.855  10.600   6.612 -0.6301 -0.5635  0.1288
70579SOL    HW123462   1.848  10.626   6.520 -0.5323 -1.2575 -0.0817
70579SOL    HW223463   1.798  10.661   6.659 -0.0151  0.3453 -0.2746
70580SOL     OW23464  11.394   4.291   4.630 -0.5762  0.5533 -0.2246
70580SOL    HW123465  11.362   4.357   4.569 -0.9807  0.2848 -0.3054
70580SOL    HW223466  11.416   4.216   4.575  1.5797  1.2135 -0.3546
70581SOL     OW23467   7.943  11.438  12.599 -0.0506  0.1976 -0.3390
70581SOL    HW123468   7.967  11.438  12.506 -0.2343  0.1335 -0.3873
70581SOL    HW223469   8.023  11.465  12.644  1.4142 -3.8922 -0.1428
70582SOL     OW23470  11.415   1.367   2.890  0.2223  0.0933  0.2324
70582SOL    HW123471  11.387   1.295   2.834  0.3331 -0.4183  0.8329
70582SOL    HW223472  11.362   1.442   2.861 -1.8778 -0.8638  1.3995
70583SOL     OW23473   5.651  13.342   9.714  0.2297 -0.6335 -0.0558
70583SOL    HW123474   5.637  13.370   9.624  1.7571 -1.5480 -0.6156
70583SOL    HW223475   5.689  13.255   9.706  1.1412 -0.4018  1.4507
70584SOL     OW23476  10.622   1.573   9.527 -0.2467 -0.1948  0.3187
70584SOL    HW123477  10.603   1.662   9.557  0.3388 -0.6448  2.2140
70584SOL    HW223478  10.601   1.518   9.603 -2.3571 -1.9225 -1.4041
70585SOL     OW23479  12.068  11.359  11.887  0.4985 -0.5777 -0.1246
70585SOL    HW123480  12.055  11.290  11.952 -0.4918  1.6852  2.2196
70585SOL    HW223481  12.138  11.413  11.923 -1.9063  2.2973  0.5907
70586SOL     OW23482   8.218   8.749   6.691  0.5920 -0.0579  0.1213
70586SOL    HW123483   8.179   8.825   6.648  3.4935 -0.0554 -2.9088
70586SOL    HW223484   8.186   8.674   6.642  0.1428 -0.5718  1.1593
70587SOL     OW23485   0.170   7.750   6.015  0.1839  0.6966 -0.4078
70587SOL    HW123486   0.153   7.844   6.012  0.5326  0.7440 -1.3337
70587SOL    HW223487   0.086   7.710   6.037  0.2061  1.2640  0.7555
70588SOL     OW23488   7.160  13.202   1.684 -0.0112 -0.2273 -0.6012
70588SOL    HW123489   7.092  13.196   1.618  0.2927 -0.8727 -0.8529
70588SOL    HW223490   7.112  13.200   1.767 -0.2649 -1.1655 -0.7662
70589SOL     OW23491  11.521   5.053   7.681  0.4684  0.2816  0.3221
70589SOL    HW123492  11.515   4.959   7.700  0.8941 -0.3795 -2.4644
70589SOL    HW223493  11.611   5.077   7.706  0.0044  0.2787  2.1401
70590SOL     OW23494   0.452   6.615   8.473  0.5031  0.6086  1.0292
70590SOL    HW123495   0.463   6.661   8.556 -1.5939  1.2481  1.0098
70590SOL    HW223496   0.360   6.589   8.472  0.2358  1.3975 -1.4836
70591SOL     OW23497   6.159  10.531  10.854 -0.4161  0.3834 -0.7089
70591SOL    HW123498   6.177  10.447  10.811 -0.2775 -0.5459  1.0901
70591SOL    HW223499   6.077  10.561  10.814 -1.7881 -1.8167  0.2944
70592SOL     OW23500   4.927   1.290   9.145  0.1615 -0.1322 -0.4246
70592SOL    HW123501   5.003   1.238   9.120  0.2623 -0.7804  1.1173
70592SOL    HW223502   4.891   1.245   9.221 -0.3047  1.5237  0.3978
70593SOL     OW23503   9.320   4.289   3.231  0.4239 -0.0687  0.0275
70593SOL    HW123504   9.330   4.245   3.147 -0.6396 -0.6640  0.1828
70593SOL    HW223505   9.225   4.290   3.246  0.5699  0.3936  1.0236
70594SOL     OW23506   4.835  12.966  11.506  0.1982  0.2306  0.2636
70594SOL    HW123507   4.927  12.992  11.516  0.2448  0.5664 -0.9108
70594SOL    HW223508   4.835  12.872  11.523  0.6884  0.2931  0.6544
70595SOL     OW23509   2.190   8.734  10.515 -1.1332 -0.4787  0.0682
70595SOL    HW123510   2.103   8.743  10.555 -1.1142  0.1238 -0.0152
70595SOL    HW223511   2.228   8.822  10.522 -1.2813 -0.2628 -1.6109
70596SOL     OW23512  13.212   8.140   6.760  0.7838  0.0635  0.2226
70596SOL    HW123513  13.140   8.147   6.698  1.0534 -1.3405 -0.2859
70596SOL    HW223514  13.249   8.228   6.765  1.1380  0.0939 -2.0904
70597SOL     OW23515   4.820   4.302  11.254 -0.5155 -0.2652 -0.0500
70597SOL    HW123516   4.908   4.335  11.271 -0.0318 -0.9564 -1.1196
70597SOL    HW223517   4.833   4.217  11.213 -1.7336 -1.6298  2.1563
70598SOL     OW23518   5.744   9.744   1.238 -0.5909  0.2152  0.0894
70598SOL    HW123519   5.837   9.739   1.259 -0.6530  1.2595  0.6965
70598SOL    HW223520   5.700   9.706   1.315 -0.6922  0.7308  0.2935
70599SOL     OW23521   4.017  10.569  10.708  0.4693 -0.5824 -0.2602
70599SOL    HW123522   4.099  10.606  10.676  1.4926 -2.4704 -0.0113
70599SOL    HW223523   4.020  10.477  10.681  0.2511 -1.6977  3.0409
70600SOL     OW23524  12.656   1.857  13.258 -0.4950  0.3126  0.4626
70600SOL    HW123525  12.735   1.804  13.244  0.3423  1.5728  0.2512
70600SOL    HW223526  12.584   1.799  13.234  0.4598 -0.2716 -1.1352
70601SOL     OW23527   9.836   0.452   8.126  0.2115 -0.1044 -0.7853
70601SOL    HW123528   9.845   0.533   8.177  2.5081 -1.4040  1.1044
70601SOL    HW223529   9.774   0.399   8.176  0.4956 -0.3830 -0.7191
70602SOL     OW23530   3.325   3.221  13.038  0.0590  0.0707  0.1892
70602SOL    HW123531   3.308   3.127  13.034  0.9699 -0.1948  1.8089
70602SOL    HW223532   3.349   3.245  12.948 -4.3669 -0.3085 -1.3087
70603SOL     OW23533  12.182  10.275   8.343 -0.2610 -0.2753 -0.3390
70603SOL    HW123534  12.239  10.339   8.301  0.6967 -0.1956  0.9924
70603SOL    HW223535  12.191  10.293   8.437 -1.9482 -0.7285 -0.0661
70604SOL     OW23536  10.567   8.154  10.170 -0.4227  0.3499 -0.0963
70604SOL    HW123537  10.661   8.143  10.189 -0.7117 -0.0235  1.2063
70604SOL    HW223538  10.544   8.076  10.119 -0.4631 -0.6112  1.3448
70605SOL     OW23539   9.119   3.419  11.593  0.1460 -0.3411 -0.0155
70605SOL    HW123540   9.175   3.348  11.561  0.9941  0.2478  0.1244
70605SOL    HW223541   9.030   3.387  11.580  0.4035 -0.0845 -3.1347
70606SOL     OW23542   5.538  13.225   0.655  0.1058  0.3969 -0.0486
70606SOL    HW123543   5.559  13.233   0.562 -1.6863  1.3888 -0.4326
70606SOL    HW223544   5.622  13.221   0.699  1.0026  0.6336 -1.6738
70607SOL     OW23545  10.095   0.718   1.267 -0.1334  0.3232 -0.2262
70607SOL    HW123546  10.104   0.800   1.219  0.6320 -0.0717 -0.7760
70607SOL    HW223547  10.100   0.650   1.201 -1.3840 -0.1632  0.1575
70608SOL     OW23548   8.623   7.538   3.512 -0.0081  0.1521  0.1110
70608SOL    HW123549   8.660   7.451   3.528 -0.7826 -0.2180 -0.0432
70608SOL    HW223550   8.641   7.555   3.420  1.0109  0.5944  0.3734
70609SOL     OW23551   7.902   4.311  13.099  1.0373 -0.1289 -0.0017
70609SOL    HW123552   7.911   4.399  13.135  0.1405  1.0486 -2.3775
70609SOL    HW223553   7.822   4.277  13.139  0.6254  0.7126 -0.0796
70610SOL     OW23554   7.794  13.102   6.795 -0.8468 -0.1358 -0.2130
70610SOL    HW123555   7.823  13.012   6.805 -1.0283 -0.0570  1.3416
70610SOL    HW223556   7.811  13.124   6.704  1.1815 -1.0476 -0.0927
70611SOL     OW23557  10.843  12.988  10.820  0.4195 -0.5123  0.1035
70611SOL    HW123558  10.806  13.070  10.789 -0.3092 -0.6481  0.5744
70611SOL    HW223559  10.768  12.928  10.825  0.5139 -0.5501  1.8924
70612SOL     OW23560   4.616  11.677   9.542  0.3963  0.5472 -0.0769
70612SOL    HW123561   4.600  11.593   9.585  0.5396 -0.5928 -2.1413
70612SOL    HW223562   4.534  11.725   9.552  0.2324  0.0840  0.9271
70613SOL     OW23563  11.003   9.770  13.451  0.2666  0.1276  0.2418
70613SOL    HW123564  11.085   9.817  13.436  0.8566 -0.8075  0.5056
70613SOL    HW223565  11.021   9.711  13.523 -0.6189 -0.1559  0.2462
70614SOL     OW23566   0.363   1.546  13.010 -0.2963 -0.5377 -0.1433
70614SOL    HW123567   0.274   1.564  12.980  0.4562  0.8431 -1.6971
70614SOL    HW223568   0.388   1.465  12.965  0.0023  0.2961 -1.5369
70615SOL     OW23569   4.561  12.893  10.196 -0.2489  0.6820 -0.0577
70615SOL    HW123570   4.571  12.958  10.126 -0.0799  0.9600  0.2238
70615SOL    HW223571   4.631  12.913  10.258 -1.3495  1.4386  0.9900
70616SOL     OW23572  13.033   1.982  12.815 -0.1304  0.1204 -0.0288
70616SOL    HW123573  12.964   2.004  12.878 -3.0554 -0.2480 -2.8899
70616SOL    HW223574  13.053   1.890  12.833 -0.8950  0.0308  0.3852
70617SOL     OW23575   8.279  12.437   0.678 -0.6590  0.3189  0.0902
70617SOL    HW123576   8.324  12.381   0.616  2.4798  0.0481  2.3717
70617SOL    HW223577   8.239  12.377   0.741 -0.3309  0.6172  0.5863
70618SOL     OW23578   2.125  12.554  10.376  0.2964  0.1610 -0.0016
70618SOL    HW123579   2.180  12.514  10.308  0.8214 -1.1641  1.1568
70618SOL    HW223580   2.134  12.496  10.451 -1.3027  0.8927  0.7970
70619SOL     OW23581   8.321  12.319  10.208 -0.1256 -0.2334 -0.5750
70619SOL    HW123582   8.415  12.319  10.197  0.1568  0.6488  1.3099
70619SOL    HW223583   8.306  12.271  10.290 -1.3284 -0.6004 -0.9800
70620SOL     OW23584   2.946   0.732   8.214 -0.5331 -0.4791 -0.3266
70620SOL    HW123585   2.944   0.676   8.137 -0.1289 -0.2624 -0.4958
70620SOL    HW223586   2.934   0.672   8.288 -0.4154 -0.7484 -0.5268
70621SOL     OW23587  12.153   1.265   9.547  0.1557  0.5207 -0.1294
70621SOL    HW123588  12.091   1.284   9.477  1.2282  1.8623 -0.7633
70621SOL    HW223589  12.237   1.298   9.515  1.1894 -1.0856  0.7733
70622SOL     OW23590   4.433  13.420  10.375  0.6200  0.2929  0.3600
70622SOL    HW123591   4.462  13.481  10.307  2.2539 -1.2301 -0.3783
70622SOL    HW223592   4.344  13.449  10.397  0.1346  1.0136 -2.2335
70623SOL     OW23593   2.875  13.295  12.499  0.3617 -0.9287  0.3343
70623SOL    HW123594   2.816  13.360  12.461  0.2369 -1.6300 -0.7216
70623SOL    HW223595   2.831  13.267  12.579  0.9358  1.0361  1.3936
70624SOL     OW23596   5.422   1.588  12.437  0.0133  0.1493 -0.1747
70624SOL    HW123597   5.500   1.634  12.467 -0.9227  1.3400  0.5227
70624SOL    HW223598   5.446   1.553  12.351  1.1003  1.0339 -0.2483
70625SOL     OW23599  13.546  12.336   6.457  0.5804 -0.0601  0.1092
70625SOL    HW123600  13.632  12.331   6.501  0.4849 -0.2948  0.2744
70625SOL    HW223601  13.489  12.280   6.510  0.1560  0.6179  0.3818
70626SOL     OW23602   3.668   2.720  13.081 -0.4025  0.1616  0.3315
70626SOL    HW123603   3.753   2.676  13.087 -0.0652  0.9163  1.3227
70626SOL    HW223604   3.627   2.682  13.003  1.1164  0.2778 -0.5598
70627SOL     OW23605  11.275  11.892  12.199 -0.1122  0.0675  0.1969
70627SOL    HW123606  11.357  11.842  12.193 -0.7875 -0.9840 -0.6223
70627SOL    HW223607  11.302  11.983  12.182  1.0970 -0.0182  1.4473
70628SOL     OW23608  10.472   0.759  13.675  0.2556 -0.1454  0.1058
70628SOL    HW123609  10.400   0.814  13.643  1.3822  1.6485  0.4848
70628SOL    HW223610  10.438   0.718  13.754 -0.2906  0.8540  0.4030
70629SOL     OW23611   5.085  12.619   6.807 -0.0437 -0.3804 -0.1125
70629SOL    HW123612   5.041  12.611   6.891 -1.2393  0.8423 -0.5886
70629SOL    HW223613   5.050  12.700   6.769  1.4028 -0.2446 -1.2376
70630SOL     OW23614  10.283   8.119   0.785 -0.3724  0.0143  0.4762
70630SOL    HW123615  10.322   8.150   0.703  0.0123 -1.5746  0.0359
70630SOL    HW223616  10.204   8.172   0.795 -0.0929  0.6616 -0.5939
70631SOL     OW23617   4.714   7.411  10.320 -0.1586  0.6370  0.0971
70631SOL    HW123618   4.732   7.361  10.241  0.5418 -1.1158  1.2944
70631SOL    HW223619   4.623   7.390  10.341  0.4090 -1.0317  1.1257
70632SOL     OW23620  12.350   2.513  12.363 -0.0181 -0.1863  0.4070
70632SOL    HW123621  12.412   2.442  12.346 -0.3928 -0.9359  1.9879
70632SOL    HW223622  12.286   2.507  12.292  2.0160  1.0399 -1.6499
70633SOL     OW23623   2.319   5.751   7.470  0.0550 -0.0902  0.4374
70633SOL    HW123624   2.285   5.672   7.427 -0.1131 -0.5544  1.4112
70633SOL    HW223625   2.292   5.743   7.561 -1.4536  1.9128  0.2466
70634SOL     OW23626   3.792   9.404   8.611  0.6784  0.1982 -0.0600
70634SOL    HW123627   3.753   9.487   8.640  2.2394  0.9245  0.0902
70634SOL    HW223628   3.861   9.387   8.675  1.4291 -0.3670 -0.9945
70635SOL     OW23629  13.151   1.158  12.244 -0.0643  0.1091  0.1581
70635SOL    HW123630  13.165   1.094  12.174 -1.0256  0.1962 -0.1266
70635SOL    HW223631  13.094   1.113  12.307 -0.4295  0.5514  0.1442
70636SOL     OW23632   1.879  12.802   9.411  0.0847 -0.8830 -0.1491
70636SOL    HW123633   1.919  12.797   9.498  2.8598 -3.5659 -1.4001
70636SOL    HW223634   1.951  12.786   9.350 -1.4087  2.4061 -3.1472
70637SOL     OW23635   7.016   8.035   6.185 -0.0070 -0.0941 -0.0999
70637SOL    HW123636   6.928   8.043   6.223  0.5072  2.4887  0.8040
70637SOL    HW223637   7.007   8.069   6.096  0.1728  0.8288  0.2222
70638SOL     OW23638   7.538  11.876   6.483  0.1341  0.1030  0.4723
70638SOL    HW123639   7.620  11.912   6.517  0.2942 -1.1040  1.4322
70638SOL    HW223640   7.490  11.848   6.561 -0.7889 -0.0487 -0.1377
70639SOL     OW23641   0.911   3.442   4.444  0.3488  0.0414 -0.4096
70639SOL    HW123642   0.890   3.391   4.366 -2.6199 -0.1486  0.4166
70639SOL    HW223643   0.969   3.384   4.494  0.9646 -0.4990 -1.6818
70640SOL     OW23644   1.608  12.828   9.072  0.2465 -0.2382  0.0357
70640SOL    HW123645   1.641  12.856   9.158 -0.6230  0.2142  0.2351
70640SOL    HW223646   1.530  12.882   9.058 -0.5310 -1.4302 -0.3147
70641SOL     OW23647   4.847   3.038  12.726 -0.3980 -0.3653 -0.1084
70641SOL    HW123648   4.810   2.950  12.717 -0.6396 -0.2670 -0.0750
70641SOL    HW223649   4.906   3.031  12.801  0.9363 -0.9505 -1.1596
70642SOL     OW23650   8.423   9.251   3.150  0.3297 -0.2154  0.1080
70642SOL    HW123651   8.395   9.287   3.234 -1.1649 -1.1725  0.0575
70642SOL    HW223652   8.511   9.286   3.137  0.9340 -0.7255  2.4657
70643SOL     OW23653  13.541  11.047   3.799  0.1779 -0.0269  0.2710
70643SOL    HW123654  13.486  11.092   3.863 -0.8660 -0.7988 -0.0611
70643SOL    HW223655  13.527  10.954   3.816  1.2133 -0.2463  0.0204
70644SOL     OW23656   1.532  10.796   6.033  0.3372  0.5783  0.0515
70644SOL    HW123657   1.548  10.837   6.118  1.6308 -1.1823  0.6934
70644SOL    HW223658   1.446  10.830   6.006 -1.8591 -1.5025  3.7210
70645SOL     OW23659   0.762   8.404   2.156 -0.2422  0.0354  0.1098
70645SOL    HW123660   0.760   8.329   2.098 -2.7121 -0.2004  0.3964
70645SOL    HW223661   0.838   8.455   2.128  0.5021 -1.7074 -1.1544
70646SOL     OW23662   8.402   1.084   4.332 -0.3533 -0.3888  0.0305
70646SOL    HW123663   8.472   1.019   4.335 -0.9300 -1.2116 -2.0572
70646SOL    HW223664   8.396   1.108   4.239  0.1660  3.0807  0.7623
70647SOL     OW23665   2.580   3.181  12.686  0.3200 -0.3115 -0.0108
70647SOL    HW123666   2.529   3.218  12.615  0.3709  0.5141  0.3693
70647SOL    HW223667   2.517   3.134  12.740  0.0760  0.1116  0.0730
70648SOL     OW23668   7.027   2.021   2.662 -0.1752 -0.4701 -0.4113
70648SOL    HW123669   7.026   1.925   2.669  0.1427 -0.7714 -3.1296
70648SOL    HW223670   7.105   2.048   2.710  2.0095 -2.0383 -2.8059
70649SOL     OW23671  12.645  12.046   5.240 -1.0770  0.1688  0.0313
70649SOL    HW123672  12.588  11.975   5.271  0.4622 -1.2221 -0.2364
70649SOL    HW223673  12.657  12.029   5.147  0.7009 -0.2723  0.3007
70650SOL     OW23674   7.077  13.213   8.384  0.4976  0.4584 -0.0121
70650SOL    HW123675   7.107  13.164   8.307 -0.3328 -0.2148  0.0697
70650SOL    HW223676   7.044  13.145   8.443  0.4594  1.0328  0.6382
70651SOL     OW23677   1.801  13.306   7.529  0.4322 -0.0423 -0.1488
70651SOL    HW123678   1.725  13.273   7.481 -0.1735 -0.1054  0.8383
70651SOL    HW223679   1.796  13.264   7.615  0.3597  1.6120  0.7019
70652SOL     OW23680   8.286  13.471   2.132 -0.3138 -0.1339  0.1774
70652SOL    HW123681   8.234  13.552   2.133 -0.1807  0.1629 -3.1890
70652SOL    HW223682   8.230  13.405   2.172 -0.9691  1.3222  1.7639
70653SOL     OW23683  10.082   0.508  10.163 -0.2558  0.0439 -0.5082
70653SOL    HW123684  10.048   0.457  10.236 -0.9353  1.6073  0.3097
70653SOL    HW223685  10.174   0.482  10.157 -0.7237 -1.6903 -0.5143
70654SOL     OW23686   3.193   7.378  10.667  0.6702  0.1905 -0.1460
70654SOL    HW123687   3.282   7.397  10.637  0.4543  0.5914 -0.5413
70654SOL    HW223688   3.175   7.445  10.733  1.4735 -1.2127  1.5770
70655SOL     OW23689  11.273  13.186   2.430  0.3146 -0.4969 -0.4435
70655SOL    HW123690  11.194  13.132   2.436 -0.0930  0.1396  0.1098
70655SOL    HW223691  11.345  13.124   2.426  0.1378 -1.1651  3.3068
70656SOL     OW23692   9.835   5.210   1.568 -0.4014 -0.2308  0.0234
70656SOL    HW123693   9.822   5.206   1.663 -0.3203  1.8217  0.1555
70656SOL    HW223694   9.903   5.145   1.551  0.8200  0.5543  1.6170
70657SOL     OW23695   2.945  10.307   8.131  0.1357 -0.1175 -0.0999
70657SOL    HW123696   2.912  10.382   8.083 -0.6450  0.8760  1.8559
70657SOL    HW223697   2.909  10.231   8.086 -2.4346  0.8508  0.1865
70658SOL     OW23698  12.900   3.358   7.175 -0.4741 -0.4305  0.1749
70658SOL    HW123699  12.809   3.388   7.180 -0.4807 -0.5877  3.3091
70658SOL    HW223700  12.899   3.273   7.220  1.0432 -0.9788 -0.7683
70659SOL     OW23701   1.229   0.546   4.145 -0.2033  0.3860 -0.1709
70659SOL    HW123702   1.300   0.559   4.083 -0.1360 -0.6409 -0.3364
70659SOL    HW223703   1.256   0.592   4.225  0.2047  0.7895 -0.5411
70660SOL     OW23704  12.354   6.806  10.527  0.2592  0.4823  0.2638
70660SOL    HW123705  12.323   6.776  10.441 -1.0878  0.6731  0.6656
70660SOL    HW223706  12.281   6.856  10.563  1.2415  1.4246  1.0306
70661SOL     OW23707   9.252   6.426   6.062  0.1645  0.4211  0.0652
70661SOL    HW123708   9.264   6.388   5.975  1.4121 -1.7779  1.1126
70661SOL    HW223709   9.170   6.387   6.094 -1.3980  2.7953 -0.8316
70662SOL     OW23710  11.439   6.740   6.539 -0.6978 -0.2341 -0.1299
70662SOL    HW123711  11.370   6.687   6.500 -2.8935  2.1071  0.3125
70662SOL    HW223712  11.426   6.731   6.633 -0.3675  0.2161 -0.0370
70663SOL     OW23713   0.645   2.451   8.925 -0.2063  0.3563 -0.2077
70663SOL    HW123714   0.580   2.471   8.993  0.5296  0.1995  0.5567
70663SOL    HW223715   0.665   2.536   8.886 -0.3168  0.5066  0.0578
70664SOL     OW23716   9.251   4.334  11.022 -0.2923 -0.0443  0.0204
70664SOL    HW123717   9.272   4.243  10.999  0.2748  0.2451 -0.6242
70664SOL    HW223718   9.197   4.326  11.101 -0.0632 -0.9304  0.1046
70665SOL     OW23719  11.911  10.449  10.111 -0.1168  0.5808 -0.4398
70665SOL    HW123720  11.981  10.464  10.174  0.4740 -1.3936 -0.5522
70665SOL    HW223721  11.838  10.416  10.164 -1.0586  2.7379 -0.3049
70666SOL     OW23722  11.542   8.456   2.557 -0.1183 -0.2061 -0.4547
70666SOL    HW123723  11.574   8.462   2.467  1.5083  3.4274  0.2015
70666SOL    HW223724  11.608   8.402   2.602  0.7022  0.4555 -0.8352
70667SOL     OW23725   9.187   1.921   0.543 -0.0335  0.1056 -0.1780
70667SOL    HW123726   9.092   1.910   0.554  0.0867  0.5921  1.7127
70667SOL    HW223727   9.196   1.981   0.469 -1.1583 -0.6163 -0.9305
70668SOL     OW23728  10.470   3.510   7.704 -0.3908  0.2239  0.1272
70668SOL    HW123729  10.450   3.442   7.639  0.7968  1.2043 -1.3406
70668SOL    HW223730  10.488   3.588   7.652  1.1591  0.9106  1.5868
70669SOL     OW23731   8.469   4.710  13.100 -0.8567  0.0446  0.7080
70669SOL    HW123732   8.430   4.665  13.026  0.1008 -1.5950  1.1662
70669SOL    HW223733   8.455   4.652  13.174  1.5803 -0.1854  1.0621
70670SOL     OW23734  12.781  13.256  12.516  0.5736  0.2620  0.2566
70670SOL    HW123735  12.846  13.242  12.585  0.4812  0.7345  0.4433
70670SOL    HW223736  12.781  13.350  12.502  0.5437  0.1761 -0.3478
70671SOL     OW23737   4.428   6.186  10.757  0.2896  0.1958 -0.6775
70671SOL    HW123738   4.515   6.153  10.734  0.5418  0.8301 -0.6343
70671SOL    HW223739   4.399   6.127  10.827  2.0503  1.8444  1.6308
70672SOL     OW23740   5.877   8.960  11.202 -0.0589 -0.1498  0.3537
70672SOL    HW123741   5.906   8.878  11.243 -1.6339 -0.8195  0.1952
70672SOL    HW223742   5.958   9.002  11.172  0.8075 -1.4614  0.7809
70673SOL     OW23743  13.061   4.126  12.757  0.1594 -0.2818  0.1162
70673SOL    HW123744  13.143   4.118  12.710 -1.3729 -0.0651 -2.8239
70673SOL    HW223745  12.994   4.134  12.689 -2.2685  0.1410  2.3533
70674SOL     OW23746   1.934   7.646   9.431 -0.2622  0.3365 -0.1991
70674SOL    HW123747   1.878   7.654   9.508 -1.3128 -1.0932 -0.7777
70674SOL    HW223748   2.018   7.614   9.465 -0.2031  1.1983  0.5090
70675SOL     OW23749  11.304   3.466  11.193  0.4817  0.5719 -0.0041
70675SOL    HW123750  11.259   3.548  11.212  0.3789  1.0802 -2.2175
70675SOL    HW223751  11.317   3.425  11.279 -0.4855  2.3473  1.0356
70676SOL     OW23752   2.329   9.970  11.976 -0.4018  0.7185  0.2123
70676SOL    HW123753   2.321   9.924  12.060  1.7517  0.1685  0.1736
70676SOL    HW223754   2.402   9.927  11.932 -0.4549  2.0497 -1.2661
70677SOL     OW23755   4.683   2.173  11.723 -0.0638 -0.0919  0.2240
70677SOL    HW123756   4.614   2.128  11.675  0.0535 -0.1969  0.1520
70677SOL    HW223757   4.719   2.236  11.660 -0.5292  0.4230  0.4665
70678SOL     OW23758   0.825  12.699   4.933 -0.0031 -0.3718  0.4285
70678SOL    HW123759   0.738  12.664   4.915 -0.8521  1.5331  0.6081
70678SOL    HW223760   0.879  12.621   4.951 -2.0119 -1.5204  1.8833
70679SOL     OW23761   9.245   3.859   9.468  0.2428  0.5067 -0.0796
70679SOL    HW123762   9.231   3.913   9.546  0.7796  1.8873 -0.9033
70679SOL    HW223763   9.313   3.797   9.494 -0.3783  0.2068  0.8818
70680SOL     OW23764  11.223   6.509   4.547  0.1811  0.3430 -0.2609
70680SOL    HW123765  11.169   6.564   4.491  0.2001  0.7393  0.1002
70680SOL    HW223766  11.261   6.444   4.488 -0.2909  0.3693 -0.5984
70681SOL     OW23767   1.991  10.299   4.418 -0.0711 -0.0151 -0.5879
70681SOL    HW123768   2.056  10.369   4.416  1.5089 -1.3976 -0.1452
70681SOL    HW223769   1.942  10.314   4.498 -0.1125  0.8773 -0.7709
70682SOL     OW23770   9.302   2.266   3.774 -0.0341  0.8141 -0.1030
70682SOL    HW123771   9.237   2.244   3.707  0.1238  2.3324 -0.7948
70682SOL    HW223772   9.344   2.182   3.795 -0.7494  0.1515 -1.1976
70683SOL     OW23773   0.942   6.461  10.361  0.1077 -0.5744  0.4035
70683SOL    HW123774   1.020   6.515  10.346 -0.3630  0.4628  1.5715
70683SOL    HW223775   0.869   6.523  10.357 -0.5336 -1.2910  0.8075
70684SOL     OW23776   1.105  11.501   3.408  0.1587  0.1619  0.1075
70684SOL    HW123777   1.046  11.572   3.433  0.0913 -0.0540  0.5758
70684SOL    HW223778   1.107  11.444   3.485  0.5798 -0.0968 -0.0940
70685SOL     OW23779   1.567  12.200  10.424 -0.1091  0.1367 -0.2857
70685SOL    HW123780   1.472  12.199  10.428 -0.0865 -0.7195  0.5681
70685SOL    HW223781   1.594  12.264  10.489 -0.0967  0.2172 -0.3695
70686SOL     OW23782   8.041   4.544   0.210 -0.3318 -0.2914  0.4434
70686SOL    HW123783   8.104   4.483   0.170 -0.4172  0.8333 -1.5567
70686SOL    HW223784   8.030   4.511   0.299  0.7099 -2.3531 -0.1003
70687SOL     OW23785  13.131   4.003   3.837 -0.1546 -0.3595  0.2772
70687SOL    HW123786  13.124   4.042   3.750  0.5679 -1.2094 -0.1797
70687SOL    HW223787  13.040   3.991   3.865 -0.3917 -0.0304 -0.3294
70688SOL     OW23788   6.160   7.067   8.614 -0.1857 -0.5326 -0.9103
70688SOL    HW123789   6.183   7.001   8.679  0.3901 -0.4623 -1.0452
70688SOL    HW223790   6.067   7.050   8.596 -0.3394 -0.5823 -0.1153
70689SOL     OW23791  11.497  10.774   8.633  0.0737  0.1900 -0.3060
70689SOL    HW123792  11.559  10.830   8.679  0.2786  0.1543 -0.5360
70689SOL    HW223793  11.443  10.835   8.582 -0.2825  0.2445  0.1339
70690SOL     OW23794   2.918   9.127   3.072 -0.0041  0.3650  0.0385
70690SOL    HW123795   2.899   9.203   3.126  1.4626  0.3011  0.6980
70690SOL    HW223796   2.941   9.058   3.134 -1.2161 -0.5981 -0.5561
70691SOL     OW23797   3.269  13.377   4.351 -0.5000 -0.5290  0.3391
70691SOL    HW123798   3.309  13.368   4.437  2.5432  0.2925 -0.8634
70691SOL    HW223799   3.304  13.459   4.316  1.4086 -2.5680 -3.0804
70692SOL     OW23800   2.442   1.534   1.682 -0.5968 -0.0523 -0.0158
70692SOL    HW123801   2.474   1.473   1.616 -0.3518 -0.7706  0.7590
70692SOL    HW223802   2.348   1.517   1.686 -0.8190  0.8226 -1.0145
70693SOL     OW23803   0.461   6.947   3.087  0.1542  0.2929  0.9127
70693SOL    HW123804   0.467   7.042   3.076  1.6322  0.1703  0.3784
70693SOL    HW223805   0.467   6.912   2.998  0.7724 -0.3386  1.1924
70694SOL     OW23806   0.966   5.629   1.478  0.1087  1.0293 -0.4397
70694SOL    HW123807   1.005   5.608   1.562  0.0952  2.5682 -0.0113
70694SOL    HW223808   0.872   5.616   1.491  0.2551 -0.8266 -0.9036
70695SOL     OW23809   7.287   6.678   6.659  0.3881  0.4209 -0.0049
70695SOL    HW123810   7.338   6.757   6.680 -0.2636  0.4281  1.7005
70695SOL    HW223811   7.197   6.709   6.650  0.5854  0.3708 -2.7890
70696SOL     OW23812  11.597   9.277  13.195 -0.3429  0.3725 -0.3355
70696SOL    HW123813  11.678   9.306  13.152 -0.1629  1.7203  0.8389
70696SOL    HW223814  11.543   9.244  13.123  1.3296 -0.8321 -1.1073
70697SOL     OW23815   6.225  10.577   4.465  0.1601 -0.3069  0.0338
70697SOL    HW123816   6.254  10.662   4.499 -0.4076  0.5008 -1.4396
70697SOL    HW223817   6.140  10.594   4.426 -0.1865 -1.6751  0.1448
70698SOL     OW23818   3.712   2.520  13.738  0.4335  0.1024  0.2870
70698SOL    HW123819   3.692   2.602  13.693 -0.1610  0.6946  1.6051
70698SOL    HW223820   3.806   2.524  13.755  0.3231  0.7438  0.7830
70699SOL     OW23821   8.402   6.168   5.487  0.0210  0.4590 -0.2687
70699SOL    HW123822   8.451   6.158   5.406 -0.1690 -1.0937 -0.2245
70699SOL    HW223823   8.335   6.233   5.467  0.4147  0.6054 -1.1389
70700SOL     OW23824  12.191   9.909  11.486  0.0713  0.5476  0.3054
70700SOL    HW123825  12.098   9.888  11.474 -0.1525  1.3515  0.5553
70700SOL    HW223826  12.238   9.834  11.450 -0.6374  1.0345 -1.7919
70701SOL     OW23827   6.522   2.424  11.289 -0.0005  0.1183  0.5322
70701SOL    HW123828   6.490   2.411  11.378 -2.1844  1.1429 -0.0324
70701SOL    HW223829   6.535   2.336  11.255  0.0439 -0.2977  1.5784
70702SOL     OW23830   2.442  12.378   6.969 -0.5165  0.3296 -0.1315
70702SOL    HW123831   2.535  12.401   6.962 -0.4265 -0.4400 -2.6491
70702SOL    HW223832   2.440  12.305   7.031  0.2612  1.5747  1.4292
70703SOL     OW23833   1.439   2.233   4.638  0.2451  0.4980  0.0986
70703SOL    HW123834   1.505   2.302   4.645 -0.1992  0.7433  3.4057
70703SOL    HW223835   1.475   2.159   4.686 -0.7734 -0.3305 -0.3630
70704SOL     OW23836  11.715   9.100   7.364 -0.2797  0.4827 -0.0037
70704SOL    HW123837  11.661   9.049   7.425  0.8060  0.2408  0.7996
70704SOL    HW223838  11.666   9.181   7.350 -0.3054  0.8019  1.6908
70705SOL     OW23839   6.163   9.061   2.018 -0.2543 -0.2845 -0.9396
70705SOL    HW123840   6.251   9.098   2.010 -0.2200  0.3622  1.5710
70705SOL    HW223841   6.175   8.968   2.000  1.0498 -0.2835 -0.2524
70706SOL     OW23842   0.481   9.027   1.076 -0.3473 -0.1662  0.3889
70706SOL    HW123843   0.412   9.061   1.019 -0.1253  0.6759  0.6159
70706SOL    HW223844   0.562   9.064   1.042  0.0808 -1.6213 -0.2368
70707SOL     OW23845   7.396   8.522   6.439 -0.4383  0.6273 -0.0290
70707SOL    HW123846   7.453   8.447   6.425  0.6528  1.4812 -0.2857
70707SOL    HW223847   7.312   8.496   6.400 -0.4917 -0.9448  1.0637
70708SOL     OW23848  12.318   8.309  12.849 -0.3254  0.1372 -0.0939
70708SOL    HW123849  12.394   8.282  12.900 -0.9026 -0.8308  0.2714
70708SOL    HW223850  12.349   8.313  12.759  0.0903 -0.4968  0.0209
70709SOL     OW23851   0.307   0.559  12.748 -0.1746  0.3497  0.3467
70709SOL    HW123852   0.352   0.596  12.671 -0.6974 -1.5466 -0.9510
70709SOL    HW223853   0.313   0.464  12.735 -1.3062  0.0120  2.0715
70710SOL     OW23854   2.967  12.014   4.831 -0.2899 -0.0380  0.0850
70710SOL    HW123855   3.038  12.058   4.785 -0.2447 -0.5494 -0.3530
70710SOL    HW223856   2.913  12.084   4.866 -0.5293  0.3736 -1.0728
70711SOL     OW23857   3.469  12.456  12.359  0.4583  0.0509  0.4399
70711SOL    HW123858   3.395  12.509  12.331  0.6505  0.8910  1.4649
70711SOL    HW223859   3.526  12.450  12.282  0.1433  0.8343  0.1456
70712SOL     OW23860   9.533   9.424   7.887  0.1621  0.0779 -0.1086
70712SOL    HW123861   9.545   9.360   7.957 -0.2990  0.3664  0.2422
70712SOL    HW223862   9.559   9.508   7.925 -0.3313  0.2756 -0.1974
70713SOL     OW23863   1.277   6.883   4.153  0.6987  0.6776 -0.3028
70713SOL    HW123864   1.318   6.863   4.068  2.4689  1.6333  0.2818
70713SOL    HW223865   1.326   6.958   4.186 -2.3253  2.7569 -0.0729
70714SOL     OW23866  12.395  12.341   9.922 -0.9079 -0.0504 -0.0132
70714SOL    HW123867  12.486  12.364   9.940 -0.4555 -2.0899  0.4934
70714SOL    HW223868  12.358  12.321  10.008 -1.9532  1.0686 -0.1772
70715SOL     OW23869   3.248   9.737  12.280  0.0158 -0.2000 -0.0869
70715SOL    HW123870   3.208   9.744  12.193  0.9927 -1.0823 -0.6279
70715SOL    HW223871   3.187   9.783  12.338 -1.2581 -0.6296 -1.0395
70716SOL     OW23872   7.221   5.690   0.959 -0.1717 -0.7762 -0.3369
70716SOL    HW123873   7.288   5.741   0.914 -0.3950  0.8981  1.1321
70716SOL    HW223874   7.157   5.669   0.891  0.4881 -0.0509 -1.1991
70717SOL     OW23875   9.862  13.194   7.586 -0.5724 -0.2841 -0.3919
70717SOL    HW123876   9.894  13.157   7.504  0.7458 -0.4465  0.1793
70717SOL    HW223877   9.940  13.226   7.630 -1.1325 -1.0596  1.2474
70718SOL     OW23878   1.061   1.396  13.266  0.1798  0.2447  0.1518
70718SOL    HW123879   1.048   1.456  13.193  0.0035 -1.7169 -1.5473
70718SOL    HW223880   1.089   1.314  13.225  1.2758 -0.6053  2.4100
70719SOL     OW23881   1.490  10.624  12.911  0.8151 -0.4939 -0.0381
70719SOL    HW123882   1.515  10.690  12.976  2.7359 -1.6987  0.5729
70719SOL    HW223883   1.525  10.657  12.829 -1.2344  0.8248 -0.4536
70720SOL     OW23884   9.707  11.732  11.904  0.2668  0.3473 -0.0580
70720SOL    HW123885   9.792  11.767  11.880  0.7942 -0.5281  0.4887
70720SOL    HW223886   9.699  11.750  11.998 -0.7636  1.6493 -0.3540
70721SOL     OW23887   0.962   4.894  12.978 -0.1067  0.6799  0.0270
70721SOL    HW123888   0.944   4.862  12.889 -1.8012  2.2999 -0.2803
70721SOL    HW223889   0.969   4.814  13.030  0.4411 -0.3035 -1.4601
70722SOL     OW23890   9.461  10.316   6.943 -0.0335  0.3035  0.0837
70722SOL    HW123891   9.477  10.405   6.975 -0.6261  0.2723  0.4963
70722SOL    HW223892   9.526  10.262   6.986 -0.1983  0.4170  0.4811
70723SOL     OW23893  10.057   3.394   3.972 -0.0268 -0.4718  0.3853
70723SOL    HW123894  10.064   3.340   4.050  1.0135 -2.5604 -1.0354
70723SOL    HW223895  10.148   3.414   3.949 -0.3396  0.5820  0.0007
70724SOL     OW23896   9.934   1.662   0.321  0.3822  0.2370 -0.3585
70724SOL    HW123897   9.872   1.716   0.272  0.3365  1.1563  0.6796
70724SOL    HW223898   9.996   1.631   0.255  0.6531  1.8972 -0.9287
70725SOL     OW23899  12.313   0.996   9.983 -0.1452  0.5422  0.0838
70725SOL    HW123900  12.287   0.904   9.986 -0.3171  0.6183  0.9325
70725SOL    HW223901  12.330   1.012   9.890 -0.0436 -0.3632 -0.0671
70726SOL     OW23902   1.401  10.954   5.295 -0.1586  0.4127 -0.8960
70726SOL    HW123903   1.315  10.970   5.334  0.0427  0.0474 -0.2764
70726SOL    HW223904   1.383  10.898   5.220 -0.3808 -0.5112 -0.1796
70727SOL     OW23905   7.952   1.436   0.303  0.1740  0.2092 -0.3102
70727SOL    HW123906   7.916   1.523   0.322  0.1752  0.1708 -0.1373
70727SOL    HW223907   7.880   1.376   0.321  0.7841 -0.0231  1.5932
70728SOL     OW23908  12.899   5.528   7.442  0.5997 -0.3489  0.0515
70728SOL    HW123909  12.901   5.492   7.353 -1.9465  0.5815 -0.4661
70728SOL    HW223910  12.922   5.454   7.498  3.5574 -0.6662 -1.3490
70729SOL     OW23911   5.439  11.007   2.252  0.4689  0.2770  0.0213
70729SOL    HW123912   5.377  11.079   2.264  0.9401  0.3498  2.4640
70729SOL    HW223913   5.384  10.930   2.239 -0.0440  0.8919 -1.7600
70730SOL     OW23914  12.262   6.761   9.664  0.8382  0.2218  0.2259
70730SOL    HW123915  12.182   6.809   9.647 -1.3953 -3.3244 -0.4489
70730SOL    HW223916  12.332   6.819   9.635 -1.6428  2.5129 -1.6638
70731SOL     OW23917   3.475   6.921  11.731 -0.1140 -0.1435  0.1516
70731SOL    HW123918   3.415   6.866  11.682  1.1404 -0.5358 -1.0060
70731SOL    HW223919   3.521   6.861  11.790 -0.7547  0.1436  0.9779
70732SOL     OW23920   7.195   4.664  12.684  0.1303  0.0430  0.2648
70732SOL    HW123921   7.280   4.627  12.661 -0.4155 -0.6867 -0.6416
70732SOL    HW223922   7.132   4.595  12.663 -0.7022  0.6193  0.7985
70733SOL     OW23923  10.543  11.005   5.810  0.2003  0.6904 -0.0244
70733SOL    HW123924  10.617  10.992   5.750 -0.5645 -0.6208 -0.7402
70733SOL    HW223925  10.541  10.925   5.863 -0.4618  0.8861  0.2524
70734SOL     OW23926   0.937   5.001   0.903 -0.7617  0.2265 -0.1878
70734SOL    HW123927   1.007   4.940   0.927 -1.3656 -0.5439 -0.3438
70734SOL    HW223928   0.942   5.007   0.808  0.0988  1.4216 -0.0922
70735SOL     OW23929  13.552  10.051   7.989  0.1077  0.3878  0.8761
70735SOL    HW123930  13.534  10.072   8.081 -0.5848  1.2081  0.5546
70735SOL    HW223931  13.476  10.083   7.941  0.0425 -0.8651  0.1081
70736SOL     OW23932   7.060   9.763   1.287 -0.3763 -0.2333  0.5950
70736SOL    HW123933   7.020   9.685   1.250  0.2580 -0.4035  0.2546
70736SOL    HW223934   6.986   9.815   1.319 -0.8171 -0.8743  0.6452
70737SOL     OW23935  12.457   8.713   7.454  0.3191  0.2453  0.3102
70737SOL    HW123936  12.464   8.809   7.448 -0.3254  0.2871  0.1930
70737SOL    HW223937  12.480   8.682   7.366  1.0255  0.2559  0.4827
70738SOL     OW23938  13.601   0.412   5.954 -0.1070 -0.4235 -0.4896
70738SOL    HW123939  13.513   0.410   5.916 -0.4382 -0.1420  0.2468
70738SOL    HW223940  13.634   0.323   5.944 -0.9002 -0.8063  0.2090
70739SOL     OW23941   1.560   8.914   5.460 -1.1357 -0.3276  0.0193
70739SOL    HW123942   1.502   8.891   5.532 -2.3710 -1.5924 -1.2940
70739SOL    HW223943   1.501   8.928   5.385  0.1945 -1.7720 -1.3972
70740SOL     OW23944  13.402   2.523   1.903 -0.9390  0.6523 -0.2948
70740SOL    HW123945  13.468   2.457   1.924 -0.6566  0.8974 -0.4168
70740SOL    HW223946  13.333   2.473   1.857 -0.6138  0.4871 -0.6059
70741SOL     OW23947   3.325  10.248   4.935 -0.1503 -0.0952  0.5102
70741SOL    HW123948   3.415  10.279   4.949 -0.2545  1.1697 -1.2707
70741SOL    HW223949   3.305  10.274   4.845 -2.4362 -0.0519  0.9842
70742SOL     OW23950   2.417   2.414   9.503 -0.1085  0.0655 -0.0510
70742SOL    HW123951   2.412   2.335   9.449  0.8423  0.4174 -0.6735
70742SOL    HW223952   2.371   2.390   9.584  0.9265 -1.4625  0.1396
70743SOL     OW23953   5.411  12.666   0.577  0.9003  0.1768  0.1462
70743SOL    HW123954   5.417  12.751   0.621  0.5997  1.4647 -2.1855
70743SOL    HW223955   5.500  12.630   0.581  0.6829 -0.2769  2.6671
70744SOL     OW23956   5.911   8.577  11.294 -0.3419  0.9227  0.1327
70744SOL    HW123957   5.908   8.652  11.353 -0.0203  2.2801 -1.5195
70744SOL    HW223958   5.879   8.610  11.211  1.0560 -0.4195 -0.9996
70745SOL     OW23959   3.198   2.453  10.392  0.5969  0.5292  0.2645
70745SOL    HW123960   3.240   2.370  10.416 -0.7683  0.0454  1.1032
70745SOL    HW223961   3.107   2.430  10.374  0.3699  1.7384 -0.2216
70746SOL     OW23962   1.957  10.123   1.809 -0.4464  0.4029  0.2957
70746SOL    HW123963   1.919  10.186   1.871  0.6857  1.3071  0.1070
70746SOL    HW223964   1.997  10.178   1.742 -0.8902 -0.5601 -0.7747
70747SOL     OW23965   1.651   5.494   8.096 -0.4619  0.3332  0.2182
70747SOL    HW123966   1.568   5.477   8.053 -1.5723  2.2164  1.4546
70747SOL    HW223967   1.670   5.586   8.075  0.4286  0.4271  1.3260
70748SOL     OW23968   6.372   8.152  10.558  0.0427 -0.0084  0.1057
70748SOL    HW123969   6.315   8.080  10.585  1.0162 -0.7152  0.3180
70748SOL    HW223970   6.416   8.120  10.479 -2.2875  1.7834 -2.1294
70749SOL     OW23971  10.595   8.977  11.732 -0.3136 -0.1604  0.4943
70749SOL    HW123972  10.637   9.016  11.808 -0.7606 -0.4537  0.8982
70749SOL    HW223973  10.503   9.005  11.738 -0.2412  0.2544 -0.2315
70750SOL     OW23974   4.320  13.334  10.828 -0.5704 -0.1689  0.2121
70750SOL    HW123975   4.365  13.416  10.807 -0.2944  0.2284  2.2012
70750SOL    HW223976   4.274  13.311  10.747  1.4621  0.5268 -1.2328
70751SOL     OW23977   4.166   6.622   6.482 -0.4481 -0.2331  0.7804
70751SOL    HW123978   4.238   6.580   6.437 -0.2666 -0.0047  0.8543
70751SOL    HW223979   4.166   6.583   6.570 -0.6876 -0.5453  0.6451
70752SOL     OW23980   4.334   0.611   3.019  0.2158  0.1127  0.0599
70752SOL    HW123981   4.374   0.643   3.099  1.5157  0.1198 -0.5621
70752SOL    HW223982   4.247   0.652   3.017  0.3169  0.4075  1.2586
70753SOL     OW23983   8.879   5.298   1.797 -0.3103 -0.3326 -0.1115
70753SOL    HW123984   8.918   5.294   1.710  1.7351  1.3381  0.6444
70753SOL    HW223985   8.855   5.207   1.817 -0.8209 -0.7529 -2.3519
70754SOL     OW23986   8.780   7.684  13.265  0.6082 -0.2438 -0.2769
70754SOL    HW123987   8.726   7.654  13.338 -0.2867  3.0751  0.6005
70754SOL    HW223988   8.866   7.702  13.304  0.7485 -0.4383 -0.4974
70755SOL     OW23989   0.760   4.813   9.584  0.0828 -0.1496  0.2168
70755SOL    HW123990   0.776   4.883   9.522  0.0974  0.2328  0.6479
70755SOL    HW223991   0.704   4.751   9.536 -0.0362  0.2169 -0.1212
70756SOL     OW23992  12.819  13.619  13.337  0.5292 -0.2112  0.1178
70756SOL    HW123993  12.870  13.674  13.397  0.4861 -0.1210  0.0716
70756SOL    HW223994  12.771  13.559  13.394 -0.9431  1.0742  0.2971
70757SOL     OW23995  11.109   0.120   6.433 -0.0828  0.1300  0.1807
70757SOL    HW123996  11.020   0.151   6.450 -1.1311 -2.3684 -0.3127
70757SOL    HW223997  11.118   0.126   6.337  0.5746  1.0463  0.2873
70758SOL     OW23998   2.550   3.733  12.289 -0.6043  0.3761  0.1768
70758SOL    HW123999   2.591   3.731  12.203 -0.0082 -0.9431  0.4593
70758SOL    HW224000   2.458   3.714  12.273 -0.7389  1.3897 -0.2797
70759SOL     OW24001   8.042   2.704   4.711  0.1706  0.6555  0.1374
70759SOL    HW124002   8.016   2.703   4.619 -0.7425  1.5182  0.3742
70759SOL    HW224003   8.119   2.761   4.714  1.3975 -0.8933 -0.3645
70760SOL     OW24004   2.481   6.255   9.617  0.2122 -0.1904  0.1551
70760SOL    HW124005   2.474   6.175   9.669  1.2410  0.2684  1.0355
70760SOL    HW224006   2.392   6.290   9.614 -0.2415 -1.3363 -0.2146
70761SOL     OW24007  12.266   3.033   5.949  0.0076 -0.2484 -0.2594
70761SOL    HW124008  12.180   2.996   5.927 -0.0524 -0.6484  0.5914
70761SOL    HW224009  12.277   3.105   5.887 -1.2626  0.2585  0.0586
70762SOL     OW24010   5.679  13.745  12.265 -0.6850  0.0590 -0.5370
70762SOL    HW124011   5.628  13.757  12.345  1.3778 -1.0465  1.0406
70762SOL    HW224012   5.768  13.769  12.289  0.2642 -1.6154 -2.1101
70763SOL     OW24013   9.791   3.286  12.072 -0.4738  0.1990 -0.1610
70763SOL    HW124014   9.862   3.343  12.042 -0.2256 -0.3730 -0.6849
70763SOL    HW224015   9.758   3.328  12.152 -0.3376  1.1010 -0.5674
70764SOL     OW24016  11.067   5.726   9.415  0.0435 -0.0478  0.2678
70764SOL    HW124017  11.066   5.768   9.501  2.2173  0.0326  0.3041
70764SOL    HW224018  10.992   5.667   9.417  0.5179 -0.6903  2.5689
70765SOL     OW24019  13.177   8.285   4.456  0.4802  0.1832  0.6850
70765SOL    HW124020  13.210   8.195   4.456  1.2197  0.3336 -2.4133
70765SOL    HW224021  13.082   8.275   4.458  0.5622 -0.6572  0.8782
70766SOL     OW24022   4.074   4.645   9.436 -0.2778  0.1406  0.7439
70766SOL    HW124023   4.025   4.727   9.430 -1.8175 -0.7784  0.2043
70766SOL    HW224024   4.137   4.660   9.507 -0.0170  2.0220  0.1738
70767SOL     OW24025   6.571  10.861  10.627 -0.3835 -0.5117 -0.1774
70767SOL    HW124026   6.510  10.815  10.685 -1.2607  0.8457  0.0363
70767SOL    HW224027   6.655  10.817  10.640 -1.1609 -2.0061  0.0286
70768SOL     OW24028  11.208  10.748   5.829  0.5518 -0.1155  0.0536
70768SOL    HW124029  11.128  10.698   5.846  1.2685 -1.9740 -1.6032
70768SOL    HW224030  11.178  10.829   5.789 -0.5269 -1.2203 -1.5022
70769SOL     OW24031   1.480   6.241   3.797  0.5824 -0.2755 -0.2237
70769SOL    HW124032   1.442   6.246   3.885 -0.6233  1.6478 -0.7646
70769SOL    HW224033   1.473   6.149   3.773 -0.9299 -0.5199  0.9389
70770SOL     OW24034  13.187  13.083   3.819 -0.1838 -0.7973  0.2746
70770SOL    HW124035  13.251  13.038   3.875 -0.0980  0.0491  0.8691
70770SOL    HW224036  13.212  13.175   3.823 -1.1444 -0.5184  0.1199
70771SOL     OW24037   8.462   2.286  10.788  0.0228 -0.6958  0.2869
70771SOL    HW124038   8.434   2.207  10.742 -1.8002  0.1195 -0.0834
70771SOL    HW224039   8.498   2.343  10.719 -2.9930  0.6538 -0.3423
70772SOL     OW24040   5.031   3.300  12.219  0.3007 -0.2854 -0.3211
70772SOL    HW124041   4.977   3.313  12.297  1.5696  0.6327  0.4578
70772SOL    HW224042   5.080   3.220  12.237 -0.5316 -0.9333 -0.8800
70773SOL     OW24043   4.151   2.955   2.855 -0.4444 -0.1789 -0.0470
70773SOL    HW124044   4.160   2.956   2.760 -2.0177 -0.5003 -0.2172
70773SOL    HW224045   4.194   3.036   2.884  0.6160 -0.3961 -0.9583
70774SOL     OW24046   0.731  13.052   4.054 -0.4825 -0.7098 -0.0918
70774SOL    HW124047   0.646  13.093   4.070 -0.2136 -0.6991  1.4303
70774SOL    HW224048   0.781  13.067   4.134  0.8949 -0.9000 -0.8756
70775SOL     OW24049   6.510   8.700  11.379  0.4877 -0.0787  0.1836
70775SOL    HW124050   6.587   8.745  11.346 -0.0294  0.4636 -0.3096
70775SOL    HW224051   6.468   8.664  11.301 -1.0221  1.6495  0.1237
70776SOL     OW24052   6.030   2.545   6.358  0.1163 -0.0764  0.6522
70776SOL    HW124053   6.074   2.610   6.413  0.2565  0.1772  0.2495
70776SOL    HW224054   5.990   2.597   6.288 -1.8033 -0.1731  1.6234
70777SOL     OW24055   4.694   4.157   5.250 -0.3413 -0.7211  0.5811
70777SOL    HW124056   4.753   4.179   5.322  0.2866 -0.4674 -0.0060
70777SOL    HW224057   4.665   4.068   5.269 -0.8516 -0.3541  1.5942
70778SOL     OW24058  10.283  12.814   3.553 -0.4379 -0.0373 -0.3025
70778SOL    HW124059  10.285  12.743   3.618  2.5553 -0.8032 -1.0646
70778SOL    HW224060  10.310  12.892   3.603  0.7860 -0.4107 -0.3338
70779SOL     OW24061   3.744   8.908   1.339 -0.1609  0.3768  0.2798
70779SOL    HW124062   3.715   8.866   1.258  0.0849  1.7253 -0.5334
70779SOL    HW224063   3.721   9.000   1.329 -0.1147  0.5870  1.7545
70780SOL     OW24064   8.433   2.665   0.873 -0.1763  0.3543 -0.4525
70780SOL    HW124065   8.356   2.618   0.905 -1.4219  1.5152 -1.6006
70780SOL    HW224066   8.454   2.621   0.790  1.3491 -0.9041  0.5585
70781SOL     OW24067  12.219   1.082   5.659  0.0756  0.7877  0.1703
70781SOL    HW124068  12.144   1.031   5.630  0.5055 -0.4066  1.0615
70781SOL    HW224069  12.189   1.173   5.656 -1.3351  0.3539  0.3321
70782SOL     OW24070   5.504   8.492  11.473 -0.3155  0.8387 -0.2347
70782SOL    HW124071   5.536   8.473  11.562 -1.1909  1.2500  0.1743
70782SOL    HW224072   5.573   8.458  11.416 -0.7755 -1.5400  0.5184
70783SOL     OW24073   3.390  11.979   8.303  0.1413 -0.4869 -0.2733
70783SOL    HW124074   3.394  12.055   8.361  2.1582 -0.9891  0.3169
70783SOL    HW224075   3.400  11.903   8.362 -0.6064 -1.1635 -0.9888
70784SOL     OW24076   9.816   5.276  12.060  0.0089 -0.3264  0.2727
70784SOL    HW124077   9.859   5.193  12.042  0.3302 -0.1697  0.3048
70784SOL    HW224078   9.803   5.277  12.155  0.2655 -0.2196  0.3097
70785SOL     OW24079  10.890   7.128   6.017 -0.3285 -0.3064 -0.3313
70785SOL    HW124080  10.867   7.198   6.079  0.3938 -0.1876 -0.1975
70785SOL    HW224081  10.821   7.063   6.029 -1.3653  0.6422 -0.8902
70786SOL     OW24082   1.713   5.398   0.430  0.2892  0.2020  0.1380
70786SOL    HW124083   1.709   5.494   0.429  1.7934  0.3848 -3.5885
70786SOL    HW224084   1.674   5.371   0.347  2.5623 -2.1756 -0.3089
70787SOL     OW24085  10.577   6.047   6.976  0.1281  0.3239 -0.6728
70787SOL    HW124086  10.496   6.010   6.940  0.0862  0.6976 -0.9679
70787SOL    HW224087  10.554   6.137   6.999  0.8054  0.8560 -1.9914
70788SOL     OW24088   9.714   8.089   9.455  0.3594 -0.0211  0.9487
70788SOL    HW124089   9.765   8.168   9.438  1.0704 -0.2920  1.7841
70788SOL    HW224090   9.697   8.091   9.549 -0.8496 -0.1426  0.7546
70789SOL     OW24091   3.013   4.130  11.031 -0.1003 -0.1412  0.1753
70789SOL    HW124092   3.042   4.039  11.040 -0.8458 -0.3425  0.6863
70789SOL    HW224093   2.950   4.142  11.102  0.1401  0.8439  0.2315
70790SOL     OW24094   3.848   4.113  12.807  0.0155 -0.6734  0.0621
70790SOL    HW124095   3.931   4.157  12.791  0.7624 -1.6424  1.1330
70790SOL    HW224096   3.832   4.124  12.900 -0.2895 -1.7805  0.1566
70791SOL     OW24097   1.764   5.974   2.078  0.2418  0.4865 -0.2050
70791SOL    HW124098   1.750   6.024   2.158 -1.3336  0.4650 -0.4382
70791SOL    HW224099   1.736   5.885   2.101 -1.6868  0.7907 -1.1573
70792SOL     OW24100  10.551  10.239  10.338 -0.5151 -0.2243 -0.1831
70792SOL    HW124101  10.503  10.321  10.343 -0.6337 -0.2403 -0.8512
70792SOL    HW224102  10.484  10.173  10.319 -0.4261 -0.4806  0.3886
70793SOL     OW24103   2.343   6.938   7.352 -0.4398 -0.0105  0.4329
70793SOL    HW124104   2.267   6.881   7.341  0.0635 -0.5498 -0.3373
70793SOL    HW224105   2.332   7.005   7.284 -0.2346 -0.0789  0.3332
70794SOL     OW24106   3.640  10.843  13.734  0.0689 -0.4384 -0.2601
70794SOL    HW124107   3.697  10.823  13.809 -0.5577 -2.0329 -0.1704
70794SOL    HW224108   3.656  10.772  13.672 -1.4551 -0.6556 -0.4392
70795SOL     OW24109  11.931   9.015   3.770  0.0193  0.3659  0.6725
70795SOL    HW124110  11.879   9.071   3.713  0.0340 -0.2320  0.0548
70795SOL    HW224111  11.875   9.001   3.847 -0.1167  0.9446  0.6818
70796SOL     OW24112   9.034  12.782   2.994  0.2363 -0.1837 -0.0123
70796SOL    HW124113   8.965  12.725   2.960 -0.0615  0.3066 -0.2488
70796SOL    HW224114   9.048  12.847   2.925  0.0400  0.4734  0.5527
70797SOL     OW24115  12.756   8.644   6.600  0.4994  0.4431 -0.2245
70797SOL    HW124116  12.720   8.706   6.538 -1.0599  1.5676  1.6879
70797SOL    HW224117  12.818   8.696   6.652 -0.3497  0.2910  0.9842
70798SOL     OW24118   1.951   2.146   9.124 -0.1978 -0.4686 -0.2341
70798SOL    HW124119   1.896   2.130   9.201  0.8709 -1.3111  0.3862
70798SOL    HW224120   1.900   2.113   9.050 -1.1007  0.0616  0.1362
70799SOL     OW24121  13.702   9.512   0.946 -0.0055  0.0215 -0.2005
70799SOL    HW124122  13.770   9.556   0.998 -0.9954  1.7914 -0.3464
70799SOL    HW224123  13.620   9.550   0.976 -0.9601 -1.8876 -0.2180
70800SOL     OW24124   0.546   3.156  13.190  0.1086 -0.2392 -0.5688
70800SOL    HW124125   0.604   3.210  13.136  0.1944  0.6029  0.3373
70800SOL    HW224126   0.570   3.177  13.280 -1.6458  0.1856 -0.1558
70801SOL     OW24127  11.789   1.357  10.809  0.0483 -0.8154 -0.0902
70801SOL    HW124128  11.774   1.269  10.844 -0.6136 -0.8112 -0.3545
70801SOL    HW224129  11.777   1.415  10.884  0.9114 -0.9725  0.1828
70802SOL     OW24130   6.010   5.635  11.294  0.2173  0.0377  0.1793
70802SOL    HW124131   6.042   5.663  11.380  2.8169  1.2896 -1.0563
70802SOL    HW224132   5.999   5.540  11.301  0.2302  0.1444  1.9173
70803SOL     OW24133   5.392   5.552   8.859  0.1924 -0.0685 -0.3061
70803SOL    HW124134   5.434   5.549   8.945  2.2911  0.7229 -1.2640
70803SOL    HW224135   5.382   5.460   8.835  1.7137 -0.2880 -0.1884
70804SOL     OW24136  11.075   1.526   8.475 -0.4350  0.1495  1.0486
70804SOL    HW124137  11.113   1.440   8.494 -3.3334 -1.1949  1.2699
70804SOL    HW224138  11.019   1.511   8.400 -0.2667  2.1217  0.4833
70805SOL     OW24139   9.045  13.193   9.894 -0.4226  0.4617  0.2256
70805SOL    HW124140   9.021  13.101   9.894  1.2087 -0.0213 -1.2668
70805SOL    HW224141   9.022  13.225   9.807  0.1039  1.1390  0.3193
70806SOL     OW24142   8.858   8.524   7.236  0.6881  0.1378  0.0458
70806SOL    HW124143   8.949   8.519   7.204  1.0729  0.4698  1.0615
70806SOL    HW224144   8.863   8.498   7.328 -0.0786  1.2162  0.4079
70807SOL     OW24145   8.711   2.154   3.676 -0.2788 -0.5670 -0.3652
70807SOL    HW124146   8.706   2.226   3.613 -3.0953  0.8691  1.2993
70807SOL    HW224147   8.620   2.128   3.690  0.4303 -2.2714  1.4863
70808SOL     OW24148   3.598   1.565   0.679 -0.1864  0.1230  0.5517
70808SOL    HW124149   3.505   1.557   0.703 -0.4162 -0.0615 -0.3736
70808SOL    HW224150   3.622   1.653   0.708 -0.1121 -0.4901  2.5339
70809SOL     OW24151   8.678   1.877  10.622  0.3810  0.3006  0.1322
70809SOL    HW124152   8.596   1.872  10.573  0.0208  0.0017  0.7634
70809SOL    HW224153   8.654   1.918  10.705  0.9096  0.3977  0.2385
70810SOL     OW24154   1.839   2.605   3.986 -0.1890 -0.0283  0.3562
70810SOL    HW124155   1.767   2.545   4.009 -0.2150  1.0279  3.4980
70810SOL    HW224156   1.909   2.582   4.046  0.6665  1.5312  0.0029
70811SOL     OW24157   6.032   6.579  12.142  0.2205  0.1018 -0.2110
70811SOL    HW124158   5.963   6.556  12.205 -1.8256  3.4101 -0.9805
70811SOL    HW224159   6.109   6.530  12.172 -1.3273 -0.5387  3.2502
70812SOL     OW24160  11.050  10.191   1.970 -0.3364 -0.4567 -0.2383
70812SOL    HW124161  10.967  10.204   1.925  0.2746  1.9112 -0.8239
70812SOL    HW224162  11.117  10.215   1.905  0.9060 -3.1405 -0.0756
70813SOL     OW24163   4.732   5.313  10.709 -0.4569  0.0902  0.7261
70813SOL    HW124164   4.687   5.228  10.707 -0.2016 -0.1790  3.4104
70813SOL    HW224165   4.661   5.376  10.721 -0.7123  0.4093 -1.8551
70814SOL     OW24166   2.958   3.671   5.917 -0.3088 -0.1610 -0.3416
70814SOL    HW124167   2.909   3.689   5.998  1.4959  0.0235  0.7601
70814SOL    HW224168   2.905   3.607   5.871 -1.0577 -0.8155  1.3391
70815SOL     OW24169   1.821   9.236   0.961 -0.1856  0.1576  0.4346
70815SOL    HW124170   1.762   9.311   0.969 -2.2070 -1.2482 -0.4396
70815SOL    HW224171   1.839   9.210   1.051 -3.3600 -1.1250  0.8289
70816SOL     OW24172  10.620   5.862  10.420 -0.2925  1.1280  0.1786
70816SOL    HW124173  10.550   5.853  10.356 -0.3542  1.0634  0.2556
70816SOL    HW224174  10.576   5.888  10.501 -0.5730 -1.4717  0.9618
70817SOL     OW24175   3.423   0.921  13.399 -0.3837  0.8527 -0.2843
70817SOL    HW124176   3.393   1.011  13.385 -1.2705  0.5278 -0.5459
70817SOL    HW224177   3.470   0.898  13.319 -3.1907 -0.0982 -1.8089
70818SOL     OW24178   8.599   3.683   7.427 -0.3961 -0.1031 -0.3296
70818SOL    HW124179   8.690   3.710   7.415  0.1163  0.0545  3.0777
70818SOL    HW224180   8.549   3.763   7.414  0.1747  0.2930 -0.1543
70819SOL     OW24181   3.706   8.322   1.975  0.2820  0.1916 -0.2435
70819SOL    HW124182   3.643   8.306   1.905  0.0493  0.4653 -0.0980
70819SOL    HW224183   3.681   8.260   2.044  1.0916 -0.7394 -0.7645
70820SOL     OW24184  13.225   7.904   4.786 -0.1015 -0.0034 -0.1398
70820SOL    HW124185  13.237   7.989   4.829 -1.3967  0.9716 -1.5922
70820SOL    HW224186  13.312   7.866   4.784  1.0668  2.5199 -1.8704
70821SOL     OW24187   9.955  12.261   0.053 -0.1869  0.0523  0.1490
70821SOL    HW124188   9.933  12.171   0.028  1.8232 -0.4110 -0.0892
70821SOL    HW224189   9.917  12.315  -0.016 -1.5199 -0.5827  0.3581
70822SOL     OW24190   3.887   9.583   2.483  0.0528 -0.1291 -0.4749
70822SOL    HW124191   3.807   9.532   2.494 -0.6791  1.4650  2.6250
70822SOL    HW224192   3.925   9.588   2.571  1.6873  2.0544 -1.2067
70823SOL     OW24193   5.676   5.085   2.623  0.2215 -0.6712 -0.0859
70823SOL    HW124194   5.706   5.173   2.646 -1.9952 -0.0093  0.4974
70823SOL    HW224195   5.674   5.038   2.707 -2.0310 -0.1159  0.2411
70824SOL     OW24196   2.525   6.110   9.167 -0.2468 -0.3671 -0.7305
70824SOL    HW124197   2.477   6.037   9.207 -1.0675 -0.3420 -1.6382
70824SOL    HW224198   2.465   6.146   9.102  0.8247 -0.0215 -1.5595
70825SOL     OW24199   0.358   6.613  12.690 -0.1530  0.0650  0.2710
70825SOL    HW124200   0.308   6.684  12.650 -0.7236 -0.9955 -0.9442
70825SOL    HW224201   0.397   6.565  12.617 -0.3593 -1.3070  1.0217
70826SOL     OW24202   5.621   6.967  12.168  0.1078 -0.0964 -0.1756
70826SOL    HW124203   5.686   6.897  12.158 -0.1254 -0.2244 -0.8473
70826SOL    HW224204   5.617   6.983  12.262  0.7291 -0.4525 -0.0845
70827SOL     OW24205   3.451  10.077   3.454  0.0624 -0.9858 -0.2875
70827SOL    HW124206   3.454  10.025   3.373  1.4313 -0.0168 -0.9008
70827SOL    HW224207   3.369  10.126   3.448 -0.3166 -1.6533 -0.6144
70828SOL     OW24208   9.870   0.550   8.764  0.1324 -0.1119 -0.1582
70828SOL    HW124209   9.863   0.626   8.707  2.1829  1.6821  1.7796
70828SOL    HW224210   9.844   0.583   8.851 -1.2987 -2.2994  0.3386
70829SOL     OW24211   6.362  11.942   8.356 -0.5970  0.3349 -0.0629
70829SOL    HW124212   6.331  11.854   8.335  0.4322 -0.4073  1.3459
70829SOL    HW224213   6.420  11.965   8.284  0.6975 -0.9924  0.5125
70830SOL     OW24214   4.001  10.969   2.631 -0.1408  0.1489 -0.7305
70830SOL    HW124215   3.941  10.961   2.556  0.5503  1.3704 -1.4577
70830SOL    HW224216   4.088  10.967   2.591  0.4687 -3.3861  0.4585
70831SOL     OW24217   1.425   8.954   3.561 -0.4960  0.2642  0.1264
70831SOL    HW124218   1.363   9.008   3.611  0.0305  0.5984  0.4218
70831SOL    HW224219   1.482   8.916   3.627 -1.8415 -1.9629  0.0911
70832SOL     OW24220   9.852   0.551   5.659  0.6054  0.5012 -0.5717
70832SOL    HW124221   9.877   0.546   5.566 -2.4446  2.1831 -1.6218
70832SOL    HW224222   9.898   0.628   5.692  0.0706  1.1556 -1.3146
70833SOL     OW24223  13.686   1.699   7.903 -0.1800 -0.7037  0.2528
70833SOL    HW124224  13.741   1.679   7.827 -0.0588 -1.8966  0.6358
70833SOL    HW224225  13.733   1.662   7.978 -0.0555  0.8950  0.9971
70834SOL     OW24226   9.288   9.803   1.696  0.4392  0.2179  0.4696
70834SOL    HW124227   9.266   9.806   1.603  0.9135  1.0936  0.3724
70834SOL    HW224228   9.237   9.730   1.731  1.2212 -0.9260 -0.7166
70835SOL     OW24229   7.996   3.924   9.377 -0.2679 -0.1355  0.0860
70835SOL    HW124230   7.982   3.887   9.290 -0.1502 -1.5874  0.6404
70835SOL    HW224231   7.921   3.895   9.428 -0.0133  0.1442  0.6333
70836SOL     OW24232   2.574   2.253   5.210  0.0164  0.3834  0.0277
70836SOL    HW124233   2.578   2.285   5.120 -0.1466 -0.8757 -0.4579
70836SOL    HW224234   2.481   2.240   5.226  0.0980 -0.2650  0.0307
70837SOL     OW24235   9.702   2.325  11.254  0.2301 -0.4582  0.3293
70837SOL    HW124236   9.748   2.334  11.338  0.5841 -0.8573  0.1801
70837SOL    HW224237   9.772   2.318  11.189 -0.0299  1.0554 -0.1523
70838SOL     OW24238  13.425   9.451   3.370  0.3160 -0.1874 -0.6801
70838SOL    HW124239  13.503   9.397   3.357  0.8795  0.1137  1.0888
70838SOL    HW224240  13.460   9.540   3.378 -0.0886 -0.1447  0.9270
70839SOL     OW24241   5.207   2.795   6.507  0.0832 -0.1130  0.0013
70839SOL    HW124242   5.213   2.721   6.447 -1.1766 -0.4759  0.2847
70839SOL    HW224243   5.143   2.768   6.572 -1.3039  1.6449 -0.5368
70840SOL     OW24244   4.914  12.018   2.735 -0.1491  0.6649  0.7479
70840SOL    HW124245   4.888  11.936   2.776 -1.2723 -0.2355 -1.5611
70840SOL    HW224246   5.009  12.017   2.735 -0.0748 -1.7767 -1.1661
70841SOL     OW24247   8.693  11.609  11.538  0.1656  0.5068 -0.2243
70841SOL    HW124248   8.640  11.579  11.612  1.0306 -3.5297 -0.9952
70841SOL    HW224249   8.772  11.645  11.578 -0.0050 -0.2638  0.8562
70842SOL     OW24250  13.586   3.825   4.922 -0.4430 -0.2213  0.0645
70842SOL    HW124251  13.545   3.758   4.868  0.1391  0.8271 -1.7536
70842SOL    HW224252  13.675   3.833   4.887  0.0472  0.2976  1.3797
70843SOL     OW24253  11.611   7.714  10.602 -0.1956  0.2655 -0.5404
70843SOL    HW124254  11.675   7.766  10.555 -0.5958  0.1545 -1.2134
70843SOL    HW224255  11.657   7.685  10.681  1.0927 -1.0305 -1.6997
70844SOL     OW24256  11.594   3.274  11.683 -0.6019  0.2634 -0.2020
70844SOL    HW124257  11.651   3.221  11.738 -0.9471  0.2475  0.1454
70844SOL    HW224258  11.558   3.340  11.742 -1.9789 -0.5341 -0.1136
70845SOL     OW24259   4.185   7.807   9.969 -0.2752  0.2631  0.2500
70845SOL    HW124260   4.212   7.879  10.027 -1.3155 -0.5506  1.8391
70845SOL    HW224261   4.201   7.839   9.881  1.8338  1.4014  0.9704
70846SOL     OW24262   8.177   0.212   0.748  0.1351  0.3547 -0.2582
70846SOL    HW124263   8.181   0.179   0.658  1.9411  1.1819 -0.5332
70846SOL    HW224264   8.234   0.289   0.747 -1.2894  1.4807  1.1643
70847SOL     OW24265   8.179   2.496   2.717 -0.3311 -0.0188 -0.3707
70847SOL    HW124266   8.192   2.403   2.739  0.0793 -0.0192 -0.6045
70847SOL    HW224267   8.103   2.522   2.768 -0.3576 -0.4472 -0.1857
70848SOL     OW24268   1.761  11.022   2.139  0.2071  0.2928 -0.3051
70848SOL    HW124269   1.811  11.012   2.220  1.4570 -1.8131 -1.2347
70848SOL    HW224270   1.731  10.933   2.119 -1.5290  1.0448 -1.3000
70849SOL     OW24271  10.043   2.194   6.116  0.5289  0.0639 -0.2479
70849SOL    HW124272  10.102   2.140   6.168  1.2564  0.4260 -0.6948
70849SOL    HW224273  10.020   2.267   6.174  0.6517  0.0136 -0.1369
70850SOL     OW24274   1.111  12.406   1.043 -0.1977 -0.1729  0.2341
70850SOL    HW124275   1.060  12.325   1.051 -0.4473  0.0096  0.4949
70850SOL    HW224276   1.045  12.474   1.025 -0.0601  0.0845  0.6983
70851SOL     OW24277  12.711  11.209   7.100 -0.7557 -0.1572  0.1858
70851SOL    HW124278  12.668  11.123   7.102  1.4160 -1.2850  1.0469
70851SOL    HW224279  12.638  11.271   7.093 -2.3932 -2.0360 -0.5627
70852SOL     OW24280   6.318  13.633   3.315  0.5803  0.5393  0.0807
70852SOL    HW124281   6.288  13.551   3.275  0.6567  0.7529 -0.4254
70852SOL    HW224282   6.405  13.648   3.276  0.5704  0.8541  0.1783
70853SOL     OW24283   7.821   1.256  10.249  0.0299  0.2254  0.0399
70853SOL    HW124284   7.832   1.339  10.295 -1.1528  0.6908 -0.4793
70853SOL    HW224285   7.875   1.194  10.298  1.5095  1.4426  0.0181
70854SOL     OW24286  10.471   7.690  10.019 -0.4355 -0.1728  0.4350
70854SOL    HW124287  10.433   7.643  10.093  2.3797  0.1265  2.2249
70854SOL    HW224288  10.563   7.662  10.018  0.1357  1.5473 -1.5463
70855SOL     OW24289   0.951   7.595   7.914 -0.2520 -0.2802 -0.0734
70855SOL    HW124290   0.857   7.614   7.924 -0.1179 -0.7193  2.9678
70855SOL    HW224291   0.989   7.678   7.884 -1.5055  0.1106 -0.6654
70856SOL     OW24292   2.033   8.524   7.093 -0.0824  0.4985  0.4155
70856SOL    HW124293   2.089   8.554   7.165  1.2559  1.7514 -1.0736
70856SOL    HW224294   2.094   8.484   7.031 -0.9301  1.2376 -0.9253
70857SOL     OW24295   1.635  11.078   0.072 -0.1677 -0.5233 -0.2194
70857SOL    HW124296   1.624  11.010   0.005 -0.2660 -1.3109  0.5732
70857SOL    HW224297   1.575  11.147   0.047  1.3517  0.1769 -2.1588
70858SOL     OW24298   3.816  10.610   7.581  0.1770  0.7323  0.1966
70858SOL    HW124299   3.722  10.621   7.592 -0.0313  1.6558 -2.0372
70858SOL    HW224300   3.840  10.674   7.514  2.3842  0.4057  0.5945
70859SOL     OW24301   2.761  12.479  11.456 -0.8024  0.0670  0.2130
70859SOL    HW124302   2.772  12.559  11.506 -0.2302  1.3611 -1.8844
70859SOL    HW224303   2.825  12.485  11.385 -0.4183 -2.4666  0.2199
70860SOL     OW24304  12.266   2.511  13.394  0.3796  0.0711 -0.4514
70860SOL    HW124305  12.238   2.431  13.437 -0.3647 -0.3609 -1.6782
70860SOL    HW224306  12.313   2.482  13.316  0.1980  0.8211 -0.8573
70861SOL     OW24307  12.865   2.246  10.546  0.2019 -0.7963 -0.0406
70861SOL    HW124308  12.815   2.283  10.619  1.5270 -0.2499  0.6147
70861SOL    HW224309  12.829   2.158  10.535 -0.5647 -0.5911  0.7241
70862SOL     OW24310   6.252  11.700  11.679  0.1383 -0.4309  0.3644
70862SOL    HW124311   6.248  11.795  11.682  1.2277 -0.2390 -1.9114
70862SOL    HW224312   6.292  11.675  11.762  1.8109  1.2772  0.1340
70863SOL     OW24313  12.749   7.097   5.250 -0.0304  0.1124 -0.4837
70863SOL    HW124314  12.763   7.181   5.206  1.1921 -0.0594 -0.4562
70863SOL    HW224315  12.837   7.059   5.259 -0.6485 -1.7342 -1.5813
70864SOL     OW24316   7.161  12.300  11.210 -0.0107 -0.2582 -0.1587
70864SOL    HW124317   7.209  12.382  11.217  1.4943 -1.0306 -0.8326
70864SOL    HW224318   7.111  12.294  11.291  0.0070  1.2141 -0.0091
70865SOL     OW24319  13.506  13.553  11.387  0.2707  0.6281 -0.3410
70865SOL    HW124320  13.473  13.518  11.304 -0.7399  1.3381 -0.2582
70865SOL    HW224321  13.468  13.640  11.393 -0.2956  0.3104  1.2186
70866SOL     OW24322   0.272   9.945  10.467 -0.3672 -0.1165  0.1281
70866SOL    HW124323   0.359   9.982  10.451 -0.4677  0.5726  1.0735
70866SOL    HW224324   0.252   9.895  10.388 -0.2483  1.8792 -1.2522
70867SOL     OW24325  11.177   7.315   5.364 -0.4500  0.0506 -0.2551
70867SOL    HW124326  11.266   7.285   5.380 -1.0823 -2.1777 -0.5444
70867SOL    HW224327  11.185   7.410   5.353  1.8118 -0.0478  0.0783
70868SOL     OW24328   7.941  12.034   9.689 -0.4492  0.7904  0.1519
70868SOL    HW124329   7.925  12.057   9.598  0.8114 -0.6886 -0.4847
70868SOL    HW224330   7.856  12.008   9.723 -0.7175  0.1583 -0.9692
70869SOL     OW24331  10.361   8.544  10.279 -0.8083  0.0909 -0.0217
70869SOL    HW124332  10.377   8.452  10.297  1.7721  0.0184 -1.9559
70869SOL    HW224333  10.292   8.570  10.340  0.1776 -2.4461  2.3728
70870SOL     OW24334   3.163  13.133  11.446 -0.4007  0.4957  0.2112
70870SOL    HW124335   3.242  13.159  11.399  0.0653 -0.6101  0.3672
70870SOL    HW224336   3.091  13.168  11.393  0.1646  0.7808 -0.3747
70871SOL     OW24337  12.967   9.727   4.170  0.1213 -0.3132 -0.1687
70871SOL    HW124338  12.922   9.686   4.244 -0.9842  0.9857 -0.0719
70871SOL    HW224339  12.904   9.721   4.097 -0.9991  2.8402  0.3452
70872SOL     OW24340   2.991   6.868   6.864  1.3493 -0.2993 -0.5354
70872SOL    HW124341   3.036   6.842   6.783 -0.1314  0.5425 -1.6765
70872SOL    HW224342   3.035   6.948   6.891  0.7852  0.3496 -1.4718
70873SOL     OW24343   4.099   9.517   3.711  0.5130 -0.7107 -0.2002
70873SOL    HW124344   4.090   9.594   3.654  1.2327 -0.8371 -0.4960
70873SOL    HW224345   4.057   9.446   3.663 -0.7610 -0.3668  0.3752
70874SOL     OW24346  13.648  11.411  13.412  0.0146 -0.0352 -0.2038
70874SOL    HW124347  13.559  11.379  13.427  0.5334 -1.3549  0.1790
70874SOL    HW224348  13.703  11.334  13.421  1.2014  0.7535 -0.5108
70875SOL     OW24349  10.352   3.511   5.160  0.1073 -0.1694 -0.0986
70875SOL    HW124350  10.293   3.548   5.227 -0.2510  0.4161 -0.7188
70875SOL    HW224351  10.357   3.580   5.093  2.5541  0.3447  0.5386
70876SOL     OW24352  12.705   2.651   9.565 -0.1264 -0.1848  0.0293
70876SOL    HW124353  12.737   2.716   9.502  0.6446 -0.7697 -0.2078
70876SOL    HW224354  12.636   2.604   9.517 -0.4603  0.2428  0.0888
70877SOL     OW24355  11.129   9.322   1.971  0.0914  0.3777 -0.2545
70877SOL    HW124356  11.073   9.250   1.942  3.0666 -1.3727 -2.1924
70877SOL    HW224357  11.136   9.310   2.066 -1.1481 -0.5986 -0.2639
70878SOL     OW24358   2.755  12.550   5.265 -0.0099  0.3697  0.5887
70878SOL    HW124359   2.739  12.626   5.320 -0.1748 -0.0227  1.0955
70878SOL    HW224360   2.845  12.524   5.286  0.3474  0.9402 -0.2252
70879SOL     OW24361  10.292  13.583   7.133  0.1295  0.2469 -0.0441
70879SOL    HW124362  10.351  13.509   7.121 -1.1223 -0.6923 -0.6707
70879SOL    HW224363  10.330  13.633   7.206  1.2242 -0.7748  0.1142
70880SOL     OW24364  10.555   9.034   8.826 -0.0900  0.1263 -0.6790
70880SOL    HW124365  10.492   9.010   8.758 -1.2014 -0.2718  0.4316
70880SOL    HW224366  10.552   9.130   8.828 -1.2653  0.1039 -0.1526
70881SOL     OW24367   5.162  13.377   3.318  0.0316 -0.0920  0.0642
70881SOL    HW124368   5.107  13.437   3.267 -1.0909 -0.0909  1.2176
70881SOL    HW224369   5.104  13.304   3.340 -0.0036  0.5971  2.5555
70882SOL     OW24370   9.507   8.669  11.933 -0.7898 -0.5912 -0.4405
70882SOL    HW124371   9.468   8.601  11.988 -1.5812 -0.0538 -0.3159
70882SOL    HW224372   9.438   8.692  11.871 -0.5184  0.0556 -0.5078
70883SOL     OW24373   5.887   2.488   6.654  0.5023  0.2085  0.4555
70883SOL    HW124374   5.821   2.439   6.606  0.0006  1.9293 -0.7089
70883SOL    HW224375   5.898   2.569   6.604  2.7956  0.4017  1.1495
70884SOL     OW24376   6.736   8.907   9.863  0.0997 -0.0157 -0.1804
70884SOL    HW124377   6.779   8.989   9.886  0.4206  0.1265 -1.2423
70884SOL    HW224378   6.772   8.884   9.777 -0.7339 -0.7506 -0.3485
70885SOL     OW24379   1.438   9.265  10.355 -0.8472 -0.2332 -0.1890
70885SOL    HW124380   1.502   9.255  10.285 -2.1910 -0.7711 -1.3913
70885SOL    HW224381   1.429   9.360  10.365 -0.8836 -0.1405 -0.9975
70886SOL     OW24382   0.719  11.674   3.179 -0.0047  0.0093  0.1130
70886SOL    HW124383   0.807  11.711   3.175 -0.3100  0.8032  0.6829
70886SOL    HW224384   0.733  11.579   3.185  0.7763 -0.0532 -1.8310
70887SOL     OW24385   3.734   2.261  13.483  0.2750 -0.0975  0.1088
70887SOL    HW124386   3.671   2.191  13.464  0.4486 -0.5211  1.0132
70887SOL    HW224387   3.691   2.341  13.455  0.1935 -0.5950 -1.2364
70888SOL     OW24388  12.391   2.231   7.372  0.1024  0.6656 -0.0811
70888SOL    HW124389  12.408   2.169   7.301 -0.4766 -1.1705  1.3176
70888SOL    HW224390  12.303   2.266   7.353  1.0300  2.3075 -1.6945
70889SOL     OW24391   8.532  11.615   2.642  0.2009  0.3738 -0.3770
70889SOL    HW124392   8.467  11.653   2.701  0.9082  0.6205  0.2565
70889SOL    HW224393   8.563  11.537   2.687  2.2143  1.6405  0.5620
70890SOL     OW24394   1.587   9.494   1.340 -0.1619  0.7810  0.1188
70890SOL    HW124395   1.627   9.482   1.253 -0.1565  2.8572 -0.2032
70890SOL    HW224396   1.637   9.564   1.380 -0.8527  0.5715  1.3978
70891SOL     OW24397   9.614   5.299   6.883  0.2073 -0.4244 -0.2369
70891SOL    HW124398   9.633   5.393   6.884 -1.2563 -0.0976  1.6247
70891SOL    HW224399   9.621   5.275   6.791  1.1771  1.3796 -0.6863
70892SOL     OW24400  13.583   8.070   0.062 -0.4679  0.7517 -0.3132
70892SOL    HW124401  13.607   8.161   0.046  2.2420  0.0335 -0.8390
70892SOL    HW224402  13.557   8.036  -0.023 -0.7114  0.8256 -0.2689
70893SOL     OW24403   3.014   5.289  12.297 -0.1099  0.3393 -0.1105
70893SOL    HW124404   2.933   5.270  12.344 -0.2959 -2.1144 -1.2882
70893SOL    HW224405   3.082   5.245  12.347 -0.3497 -2.5665 -2.1299
70894SOL     OW24406   6.315  12.585  12.281  0.0914 -0.0864  0.0735
70894SOL    HW124407   6.242  12.528  12.255  1.9372 -2.4331 -0.3866
70894SOL    HW224408   6.277  12.644  12.347 -2.4967 -0.2546 -1.1264
70895SOL     OW24409   9.729   4.227   9.316  0.0040  0.2952  0.1005
70895SOL    HW124410   9.670   4.258   9.248 -0.6316  2.2739  1.4762
70895SOL    HW224411   9.680   4.159   9.362  0.8185 -1.8262 -1.9533
70896SOL     OW24412  12.781   5.874   9.512 -0.1097 -0.4506  0.0957
70896SOL    HW124413  12.763   5.812   9.582 -0.7787  0.0086  0.3334
70896SOL    HW224414  12.697   5.916   9.495  0.4845  0.9156  0.4344
70897SOL     OW24415   2.729  10.940   6.095  0.4109  0.1592 -0.3011
70897SOL    HW124416   2.781  11.018   6.119 -0.8270  0.1121  3.0753
70897SOL    HW224417   2.641  10.975   6.078 -0.3642 -0.4758  2.0707
70898SOL     OW24418  10.137   1.536   4.434 -0.5972  0.1992  0.1424
70898SOL    HW124419  10.100   1.491   4.511  1.0635 -0.2954  0.6932
70898SOL    HW224420  10.130   1.629   4.456 -2.1899  0.1736 -0.1175
70899SOL     OW24421  10.571  13.536  13.368 -0.1603  0.0496  0.7606
70899SOL    HW124422  10.538  13.446  13.375 -1.1096  0.4217  1.1107
70899SOL    HW224423  10.504  13.590  13.409 -2.1777  1.5239 -3.8160
70900SOL     OW24424   1.927   8.657   2.805  0.6804  0.2777 -0.3031
70900SOL    HW124425   1.908   8.637   2.714  0.1875 -0.1237 -0.1253
70900SOL    HW224426   1.892   8.745   2.819 -3.1731 -1.1406  0.5286
70901SOL     OW24427  11.209   7.275   9.705 -0.5944 -0.0703  0.3426
70901SOL    HW124428  11.223   7.187   9.671 -1.2463  0.2985 -0.9700
70901SOL    HW224429  11.296   7.316   9.703 -0.9307  0.9568 -4.0551
70902SOL     OW24430   3.253   6.576  12.356  0.0335 -0.0166 -0.2524
70902SOL    HW124431   3.207   6.525  12.422  0.7937 -0.0447  0.2648
70902SOL    HW224432   3.197   6.570  12.278  0.3415 -2.0961 -0.3854
70903SOL     OW24433   1.898   4.983   3.031  0.4362 -0.6647 -0.1736
70903SOL    HW124434   1.854   4.928   3.095  1.8310 -0.8170  0.6904
70903SOL    HW224435   1.984   5.003   3.070  0.6280  0.7246 -1.1955
70904SOL     OW24436   3.149   8.887   4.060  0.0020 -0.1541  0.0259
70904SOL    HW124437   3.096   8.809   4.045 -0.6050  0.2318  0.1283
70904SOL    HW224438   3.202   8.895   3.981 -0.0941 -0.5437 -0.0797
70905SOL     OW24439  10.298  13.511   1.734  0.0374  0.0322  0.0454
70905SOL    HW124440  10.304  13.470   1.648 -0.9917  0.7899 -0.4120
70905SOL    HW224441  10.388  13.533   1.757  0.2354  0.7611 -1.3062
70906SOL     OW24442   9.860   0.949   2.077  0.1194 -0.4421  0.0013
70906SOL    HW124443   9.836   1.040   2.062 -0.0034 -0.4735  0.0020
70906SOL    HW224444   9.946   0.939   2.035  2.7483  1.0555  4.3668
70907SOL     OW24445   8.287   3.592   7.685  0.1582  0.5583  0.3524
70907SOL    HW124446   8.366   3.642   7.703  0.9151  0.0457 -1.3752
70907SOL    HW224447   8.318   3.505   7.659 -0.8387  0.7313 -1.6746
70908SOL     OW24448  10.341  12.765   0.489  0.4986 -0.4202 -0.8380
70908SOL    HW124449  10.261  12.817   0.483  2.4562  2.9765 -0.1413
70908SOL    HW224450  10.313  12.675   0.470 -3.4948  0.4908 -0.1587
70909SOL     OW24451  10.575   5.134  12.900  0.4313  0.2982  0.2546
70909SOL    HW124452  10.510   5.161  12.965 -0.9627  0.1969 -1.0457
70909SOL    HW224453  10.573   5.203  12.834  1.0159 -0.1602 -0.2555
70910SOL     OW24454   1.377   6.151  12.459 -0.6595 -0.1837  0.2192
70910SOL    HW124455   1.354   6.124  12.548 -2.0068  0.2932  0.0436
70910SOL    HW224456   1.457   6.202  12.470 -0.7522 -0.2075  1.1524
70911SOL     OW24457   1.752  12.513   6.300  0.2084 -0.2111 -0.0750
70911SOL    HW124458   1.768  12.586   6.240  0.9407 -1.4566 -1.4700
70911SOL    HW224459   1.766  12.435   6.247  0.5825 -1.3853  1.6664
70912SOL     OW24460  11.017   7.283   8.149  0.3608 -0.1988 -0.0178
70912SOL    HW124461  11.108   7.256   8.152  0.1065 -1.0625  0.2559
70912SOL    HW224462  11.019   7.377   8.167  1.3479  0.2037 -1.9160
70913SOL     OW24463  13.661   0.912   0.955  0.4738  0.1063  0.5162
70913SOL    HW124464  13.753   0.921   0.933  0.0978  1.2410 -0.7147
70913SOL    HW224465  13.616   0.975   0.899 -1.1497 -1.0593  0.4067
70914SOL     OW24466   3.792   5.761  11.979  0.6769 -0.4955  0.2176
70914SOL    HW124467   3.862   5.825  11.991 -0.1561  0.8352 -1.4920
70914SOL    HW224468   3.712   5.812  11.985 -0.0213 -1.3667 -1.1178
70915SOL     OW24469   9.114   1.230  10.183  0.0370  0.2842 -0.0636
70915SOL    HW124470   9.083   1.297  10.122 -0.3321 -0.0656 -0.2666
70915SOL    HW224471   9.126   1.277  10.266  0.0959  0.6669 -0.2892
70916SOL     OW24472   9.748   2.228   9.962 -0.7614  0.3905 -0.3202
70916SOL    HW124473   9.655   2.218   9.943 -0.9437 -0.6949  1.0050
70916SOL    HW224474   9.759   2.189  10.049  1.1961 -1.0420 -1.1325
70917SOL     OW24475  13.084  12.385  11.205 -0.2988  0.4008  0.6142
70917SOL    HW124476  13.052  12.295  11.201  0.8860 -0.3594  4.3188
70917SOL    HW224477  13.134  12.397  11.124 -0.8386 -2.1134 -0.1599
70918SOL     OW24478   2.131   7.334   0.930 -0.2495 -0.2036 -0.2255
70918SOL    HW124479   2.065   7.361   0.867 -1.0926  0.5400  0.9258
70918SOL    HW224480   2.147   7.242   0.909 -1.4469 -0.3225 -0.7219
70919SOL     OW24481   7.535   9.988   0.239  0.2683  0.2644  0.5296
70919SOL    HW124482   7.467  10.055   0.247  0.3276  0.6461 -1.5403
70919SOL    HW224483   7.498   9.910   0.280 -0.4821  1.0908  1.4583
70920SOL     OW24484   3.741  12.721   6.097  0.1625 -0.1592  0.1774
70920SOL    HW124485   3.788  12.781   6.155 -0.2104 -1.4425  1.8994
70920SOL    HW224486   3.801  12.705   6.025  1.1978  0.4592  0.8670
70921SOL     OW24487   3.435  12.212   4.208 -0.2102  0.1451 -0.4998
70921SOL    HW124488   3.390  12.188   4.127 -0.4150 -3.4000  0.4703
70921SOL    HW224489   3.528  12.199   4.187 -0.1522  0.6414 -0.5552
70922SOL     OW24490  12.808  11.765   1.044 -0.2449  0.1077 -0.1204
70922SOL    HW124491  12.752  11.713   0.988 -0.7156 -0.3403  0.7505
70922SOL    HW224492  12.873  11.803   0.985 -1.0828  0.1235 -1.0398
70923SOL     OW24493   7.993   4.597   7.000 -0.4454 -0.2233 -0.0697
70923SOL    HW124494   7.986   4.502   7.008  0.5045 -0.4922 -1.8798
70923SOL    HW224495   8.080   4.617   7.035 -0.4314 -0.0944 -0.1791
70924SOL     OW24496   9.875   4.384  11.969  0.4916  0.5382 -0.3298
70924SOL    HW124497   9.821   4.368  11.892  0.0325 -0.6238  0.2137
70924SOL    HW224498   9.816   4.428  12.031 -0.2774 -1.8052  0.7303
70925SOL     OW24499  13.587  12.261   3.708  0.0407  0.2232  0.1477
70925SOL    HW124500  13.564  12.172   3.734 -0.0848  0.4477  0.8355
70925SOL    HW224501  13.660  12.285   3.765 -0.5134  0.8795  0.5897
70926SOL     OW24502  12.121   0.555  10.948 -0.2344 -0.0544 -0.4689
70926SOL    HW124503  12.106   0.525  10.858 -1.3241 -0.2174 -0.2520
70926SOL    HW224504  12.153   0.644  10.938  0.3536 -0.3154 -1.0397
70927SOL     OW24505   4.245  11.946  12.866 -0.3849  0.3356 -0.3656
70927SOL    HW124506   4.182  12.013  12.895 -0.9256 -1.0026  1.7738
70927SOL    HW224507   4.238  11.877  12.932  1.0179 -1.3084 -1.8592
70928SOL     OW24508   0.613   5.550   7.160  0.0651 -0.1975  0.0355
70928SOL    HW124509   0.591   5.590   7.244  1.5213  0.4646  0.1293
70928SOL    HW224510   0.614   5.456   7.177  1.4499 -0.0220  1.0666
70929SOL     OW24511   6.968   2.727   6.577 -0.3899  0.3015 -0.4053
70929SOL    HW124512   6.977   2.812   6.534 -1.5357  0.9422  0.5554
70929SOL    HW224513   6.898   2.740   6.641 -2.0798 -1.9176 -1.6422
70930SOL     OW24514   3.685   6.645   5.239  0.0346  0.0793 -0.3557
70930SOL    HW124515   3.755   6.664   5.303  0.7079 -1.5192 -0.5637
70930SOL    HW224516   3.707   6.699   5.163 -0.5304  1.6768  0.5563
70931SOL     OW24517  13.500   0.268   3.540 -0.0409 -0.1859 -0.3676
70931SOL    HW124518  13.491   0.184   3.584 -2.5918 -1.3620 -2.8630
70931SOL    HW224519  13.542   0.248   3.457 -0.5266  1.0489 -0.9265
70932SOL     OW24520  13.426  12.916   2.311  0.5696  0.6557 -0.0140
70932SOL    HW124521  13.468  12.996   2.341  0.4728  1.8230 -2.7856
70932SOL    HW224522  13.355  12.945   2.254 -1.1257 -1.3800  0.8741
70933SOL     OW24523  11.072  11.762   3.895  0.3823  0.0495 -0.0613
70933SOL    HW124524  11.155  11.716   3.900  0.6593  0.6178  0.8692
70933SOL    HW224525  11.025  11.736   3.974  0.6743  1.5611  0.6535
70934SOL     OW24526   2.358   3.671   5.545  0.5370 -0.0484 -0.5167
70934SOL    HW124527   2.314   3.592   5.577  0.2029 -0.2851 -1.5030
70934SOL    HW224528   2.302   3.700   5.472  0.5845  1.1723 -0.0742
70935SOL     OW24529   8.074   6.201  12.696  0.2828 -0.8277  0.0660
70935SOL    HW124530   8.042   6.273  12.641 -0.6878 -2.4876 -1.7031
70935SOL    HW224531   8.166   6.220  12.710  0.2489  0.3260 -1.0932
70936SOL     OW24532   5.137   4.227   2.507  0.2119  0.0627 -0.2906
70936SOL    HW124533   5.200   4.275   2.560 -0.7721 -0.3241  1.3111
70936SOL    HW224534   5.160   4.135   2.520 -0.8679 -0.1057  0.6290
70937SOL     OW24535   2.092   5.024   9.041  0.6539  0.1372 -0.1871
70937SOL    HW124536   2.093   4.929   9.051  1.5238  0.2371  0.8140
70937SOL    HW224537   2.172   5.054   9.084  1.1428  1.2120 -1.7246
70938SOL     OW24538  11.933   4.402   8.543 -0.3712  0.4016  0.4997
70938SOL    HW124539  11.956   4.425   8.453  1.0096 -0.1066  0.7024
70938SOL    HW224540  11.890   4.480   8.578 -1.7144  0.3159 -0.8434
70939SOL     OW24541  13.104   2.788  11.642  0.1943  0.5655 -0.0530
70939SOL    HW124542  13.122   2.764  11.551  1.4732  1.4400 -0.0604
70939SOL    HW224543  13.066   2.709  11.681  1.7440 -0.5750 -0.7606
70940SOL     OW24544  11.165  10.965   4.054  0.4260 -0.2501 -0.4811
70940SOL    HW124545  11.075  10.975   4.086  0.9696 -1.3556  1.5475
70940SOL    HW224546  11.203  11.053   4.061 -0.0021 -0.1159  0.2342
70941SOL     OW24547   4.243   6.666  10.289 -0.0299  0.5424  0.3365
70941SOL    HW124548   4.159   6.644  10.329 -0.7126  1.5556 -0.4800
70941SOL    HW224549   4.248   6.610  10.212 -1.2659  2.3374 -1.1382
70942SOL     OW24550   4.375  13.456   0.346 -0.0916 -0.5845  0.6258
70942SOL    HW124551   4.435  13.416   0.408  0.2736  1.2066  1.4956
70942SOL    HW224552   4.430  13.510   0.290 -0.7104 -0.0548  0.5077
70943SOL     OW24553  11.624  13.045  13.553  0.1254 -0.2705  0.1303
70943SOL    HW124554  11.715  13.075  13.553 -0.0797  0.3708 -0.1333
70943SOL    HW224555  11.586  13.084  13.632  0.6272 -2.3107  1.4600
70944SOL     OW24556   9.279  13.079  10.039  0.3190 -0.1860 -0.0826
70944SOL    HW124557   9.321  13.145  10.094 -0.8251  0.6276 -0.1456
70944SOL    HW224558   9.215  13.128   9.987 -2.2975 -1.5902  1.5538
70945SOL     OW24559  11.881  11.231   5.815  0.5891  0.2689  0.4650
70945SOL    HW124560  11.881  11.284   5.736  0.5774 -0.5674 -0.1144
70945SOL    HW224561  11.930  11.282   5.879  0.5988  0.9559 -0.0801
70946SOL     OW24562   6.032  11.578  11.190  0.4741 -0.1189 -0.2547
70946SOL    HW124563   6.030  11.520  11.266 -0.4537  0.2864  0.0414
70946SOL    HW224564   6.092  11.535  11.129 -0.6273 -1.7025 -0.2906
70947SOL     OW24565  10.098  10.276  10.015 -0.3160 -0.1788  0.2304
70947SOL    HW124566  10.124  10.275  10.107  2.5053 -0.2131 -0.4617
70947SOL    HW224567  10.039  10.201  10.006 -1.2198  0.2409  2.1073
70948SOL     OW24568   9.860   9.368   0.132 -0.5816 -0.2271 -0.0417
70948SOL    HW124569   9.934   9.341   0.187  0.2960 -1.7332 -1.8326
70948SOL    HW224570   9.819   9.439   0.181  1.8615  0.4749  1.1825
70949SOL     OW24571   9.492   6.040  11.914  0.0585 -0.1992  0.5169
70949SOL    HW124572   9.558   6.018  11.979  0.5983  1.5674  0.6326
70949SOL    HW224573   9.416   6.068  11.965  1.2240  3.3761  0.5621
70950SOL     OW24574   1.993   4.723   8.736 -0.2123 -0.3625 -0.1623
70950SOL    HW124575   1.983   4.628   8.734  1.0722 -0.5072 -0.3491
70950SOL    HW224576   2.044   4.743   8.658 -0.7313  0.5240 -0.2879
70951SOL     OW24577  12.966   8.675  12.796  0.4172 -0.1733  0.4846
70951SOL    HW124578  13.043   8.659  12.849 -0.6100  0.0357  2.1257
70951SOL    HW224579  12.931   8.588  12.777 -0.0276 -0.2215  1.4568
70952SOL     OW24580   6.632  11.387   4.125  0.1061 -0.5860  0.0754
70952SOL    HW124581   6.721  11.420   4.137  0.0192  0.0487 -0.8548
70952SOL    HW224582   6.587  11.406   4.208  0.4795  0.2957  0.0871
70953SOL     OW24583  10.573   7.671   7.576 -0.1820 -0.3776 -0.1150
70953SOL    HW124584  10.640   7.654   7.511 -0.5907 -0.9948 -0.3864
70953SOL    HW224585  10.492   7.640   7.535 -0.6895  0.6415  0.0756
70954SOL     OW24586   9.827  12.293   3.157  0.2808 -0.3876  0.3301
70954SOL    HW124587   9.826  12.251   3.071 -0.1686 -0.7204  0.4898
70954SOL    HW224588   9.800  12.224   3.218  2.5994 -0.7507  1.0358
70955SOL     OW24589  10.750  11.521   6.099 -0.0235 -0.0687 -0.1619
70955SOL    HW124590  10.800  11.443   6.122 -0.1060 -0.7024 -1.9609
70955SOL    HW224591  10.659  11.491   6.096 -0.1544  0.3110 -0.0054
70956SOL     OW24592   4.977   5.556   7.294 -0.0898  0.0623  0.0183
70956SOL    HW124593   5.059   5.605   7.302  0.2907 -0.6529  0.6551
70956SOL    HW224594   4.975   5.526   7.203  0.2461  0.2758 -0.0602
70957SOL     OW24595   7.942   2.496   3.300  0.2242 -0.3587  0.0690
70957SOL    HW124596   7.986   2.570   3.258 -1.8234  0.5958 -0.5332
70957SOL    HW224597   7.914   2.530   3.385 -2.1729  0.1686 -0.8616
70958SOL     OW24598   0.940   9.364   5.869 -0.0364  0.3218  0.6944
70958SOL    HW124599   1.025   9.405   5.885 -0.7114  1.0964  2.5686
70958SOL    HW224600   0.948   9.277   5.907 -0.1492  0.4840  1.0957
70959SOL     OW24601  11.885   2.875  10.398  0.7719 -0.5178 -0.1366
70959SOL    HW124602  11.922   2.793  10.366 -1.9914 -1.7259 -0.5391
70959SOL    HW224603  11.928   2.889  10.483  0.4444 -3.0659  0.5271
70960SOL     OW24604   5.014  12.447   4.874 -0.0845 -0.0902  0.3003
70960SOL    HW124605   4.975  12.441   4.786 -0.7695 -0.5975  0.6273
70960SOL    HW224606   5.098  12.490   4.860 -0.4416  0.3645 -0.5296
70961SOL     OW24607   9.585   9.598   0.136 -0.0352  0.2148 -0.6735
70961SOL    HW124608   9.661   9.629   0.186 -0.4196  1.1726 -0.6596
70961SOL    HW224609   9.512   9.649   0.170 -0.5252 -0.0412 -1.3271
70962SOL     OW24610   3.469   5.532   2.740 -0.2924 -0.0852  0.1497
70962SOL    HW124611   3.499   5.583   2.665 -0.7616  0.9797  0.6741
70962SOL    HW224612   3.386   5.494   2.711 -0.5142  0.3902  0.1632
70963SOL     OW24613   6.611  13.109   5.865 -0.1466 -0.1819  0.4710
70963SOL    HW124614   6.662  13.047   5.918 -1.8084 -2.1120 -0.0792
70963SOL    HW224615   6.531  13.124   5.915 -0.4997  0.1945 -0.1947
70964SOL     OW24616   9.954   8.050   2.818  0.5933  0.0539  0.2868
70964SOL    HW124617   9.964   8.023   2.909 -0.9418  0.7885  0.7042
70964SOL    HW224618  10.043   8.052   2.784  1.0858 -1.4822  1.3914
70965SOL     OW24619   3.100  13.481   4.155 -0.2465 -0.0410  0.0860
70965SOL    HW124620   3.166  13.423   4.194 -0.5112  0.9711  2.1729
70965SOL    HW224621   3.038  13.497   4.226 -1.1507  1.3698 -0.9799
70966SOL     OW24622  10.813   5.941   4.408  0.3611 -0.2443 -0.1467
70966SOL    HW124623  10.888   5.896   4.369  0.5483 -2.5892  2.5681
70966SOL    HW224624  10.846   5.975   4.491 -1.4206 -0.9403  0.8994
70967SOL     OW24625  10.028   2.847   7.617 -0.1645  0.1811 -0.3651
70967SOL    HW124626  10.012   2.906   7.690  1.1884  1.7865 -1.2971
70967SOL    HW224627   9.968   2.877   7.548 -2.3675 -2.1127  0.3749
70968SOL     OW24628   0.623   1.809   6.288 -0.4503  0.5954 -0.1745
70968SOL    HW124629   0.610   1.893   6.332  0.0990  0.7560 -0.3032
70968SOL    HW224630   0.707   1.820   6.242  0.2670 -0.4681  0.8364
70969SOL     OW24631   4.947   5.580  10.480  0.1198  0.1996  0.6746
70969SOL    HW124632   5.020   5.636  10.452  0.7122 -0.4153  0.9559
70969SOL    HW224633   4.958   5.573  10.574 -0.3468  0.1519  0.7245
70970SOL     OW24634   6.556  12.479  10.784 -0.0736  0.5202  0.4151
70970SOL    HW124635   6.613  12.466  10.708  0.7736  3.3847  0.4619
70970SOL    HW224636   6.477  12.517  10.748  0.7503  2.9225  0.9954
70971SOL     OW24637   7.647   4.571   1.242  0.0774 -0.1746 -0.0112
70971SOL    HW124638   7.646   4.491   1.189  0.4472  0.4876 -1.0417
70971SOL    HW224639   7.739   4.597   1.245 -0.0243  0.1444  0.4194
70972SOL     OW24640  10.383   4.974   0.621  0.1583  0.4148  0.0357
70972SOL    HW124641  10.427   4.996   0.704 -0.0881  0.4726  0.1533
70972SOL    HW224642  10.293   4.957   0.647 -0.0773  1.1028 -0.3143
70973SOL     OW24643  13.462   2.112   5.369  0.0117 -0.2427 -0.1718
70973SOL    HW124644  13.492   2.031   5.329 -1.5474 -1.0510  0.2457
70973SOL    HW224645  13.505   2.114   5.455 -0.1258 -0.7277 -0.0948
70974SOL     OW24646   0.825  12.335   3.832  0.0331  0.6865 -0.0237
70974SOL    HW124647   0.734  12.362   3.826 -0.5162 -1.0119  0.1798
70974SOL    HW224648   0.843  12.290   3.750  0.5946  0.7069  0.0803
70975SOL     OW24649   1.806   4.164   4.800  0.3324 -0.0971  0.0384
70975SOL    HW124650   1.727   4.120   4.766  0.1395  0.0496  0.2987
70975SOL    HW224651   1.798   4.157   4.895  0.0289  0.9709  0.1023
70976SOL     OW24652   6.531   1.450   8.656  0.4482  0.0041  0.0083
70976SOL    HW124653   6.527   1.438   8.751 -2.1668  1.4166  0.1734
70976SOL    HW224654   6.599   1.516   8.643 -0.2610  0.9844  1.0827
70977SOL     OW24655   1.078   2.281   4.798 -0.5819 -0.2081 -0.6657
70977SOL    HW124656   1.147   2.222   4.829 -0.3855  0.4583  0.1958
70977SOL    HW224657   1.124   2.348   4.747 -0.5171  0.4911  0.2818
70978SOL     OW24658   6.918   1.061  13.641  0.2452  0.2463  0.0926
70978SOL    HW124659   6.947   1.063  13.732  2.0634 -0.5185 -0.4286
70978SOL    HW224660   6.955   0.980  13.605 -0.4150  0.5428 -1.3447
70979SOL     OW24661   6.384   6.880   6.550 -0.0610 -0.0511  0.0896
70979SOL    HW124662   6.328   6.838   6.615 -1.2507  0.4982 -0.5601
70979SOL    HW224663   6.462   6.824   6.546 -1.0265 -1.4529  0.2116
70980SOL     OW24664  11.565   8.189   7.348 -0.1433  0.0808  0.1614
70980SOL    HW124665  11.649   8.164   7.387  0.4564 -0.3459 -1.3316
70980SOL    HW224666  11.507   8.115   7.367  0.5219 -0.7359 -0.8576
70981SOL     OW24667   2.245   0.996  12.997 -0.3197 -0.2219 -0.1111
70981SOL    HW124668   2.238   0.900  12.994  0.0755 -0.3144  1.4498
70981SOL    HW224669   2.339   1.012  13.005 -0.3839  0.3103 -0.4137
70982SOL     OW24670   1.877   9.381   7.662  0.0370 -0.0013  0.4622
70982SOL    HW124671   1.837   9.394   7.748 -1.2618  1.5108 -0.3124
70982SOL    HW224672   1.823   9.433   7.602 -0.0639 -2.2136 -1.5380
70983SOL     OW24673   2.116  11.513  11.769  0.0306 -0.1296 -0.1602
70983SOL    HW124674   2.079  11.434  11.730  0.1017 -1.3374  2.0247
70983SOL    HW224675   2.056  11.583  11.745  1.5185 -0.1264 -4.7062
70984SOL     OW24676   7.955   6.473   3.381  0.1371 -0.0008  0.1273
70984SOL    HW124677   7.936   6.547   3.323  0.5678  1.2401  1.5026
70984SOL    HW224678   8.051   6.467   3.381  0.1201 -0.2552  0.3786
70985SOL     OW24679   3.801  12.187  12.954 -0.0705  0.4105  0.5974
70985SOL    HW124680   3.867  12.144  13.007 -1.2858  0.6206  2.3677
70985SOL    HW224681   3.747  12.115  12.920  1.1270  0.2215 -1.0402
70986SOL     OW24682   3.277   0.424  10.953  0.7253 -0.4286  0.1835
70986SOL    HW124683   3.257   0.518  10.954 -1.2148 -0.7843  1.6796
70986SOL    HW224684   3.220   0.389  10.884  1.8303 -0.4566 -0.7316
70987SOL     OW24685   6.970  11.871   1.141 -0.0296  0.6385 -0.9081
70987SOL    HW124686   6.905  11.861   1.209 -1.3779  1.1773 -2.0718
70987SOL    HW224687   7.019  11.789   1.143 -1.8118 -0.4801 -1.0621
70988SOL     OW24688   4.877  11.787   4.209 -0.4885  0.2000  0.1372
70988SOL    HW124689   4.945  11.781   4.276  0.1187  0.3650 -0.4581
70988SOL    HW224690   4.855  11.696   4.189  0.6556  0.0988 -0.7603
70989SOL     OW24691   4.166   1.101   9.796 -0.2503  0.0545  0.4268
70989SOL    HW124692   4.103   1.059   9.855  0.3411 -1.6002 -0.0618
70989SOL    HW224693   4.239   1.126   9.853  0.0200 -0.9076  0.5126
70990SOL     OW24694   6.661   2.036  11.926 -0.5446  0.4872 -0.1584
70990SOL    HW124695   6.689   2.011  11.838 -1.3895  1.0045 -0.5844
70990SOL    HW224696   6.606   1.964  11.956 -0.9278  0.6820 -0.3865
70991SOL     OW24697  12.907  12.659   9.440  0.1234 -0.2102  0.3772
70991SOL    HW124698  12.940  12.731   9.385 -1.1334  0.1807  0.1124
70991SOL    HW224699  12.900  12.585   9.380  1.0635 -0.4779  0.5696
70992SOL     OW24700   4.025   2.721   0.940  0.2435  0.5654 -0.9772
70992SOL    HW124701   4.077   2.721   0.860  1.5832 -2.1182 -0.2107
70992SOL    HW224702   4.006   2.629   0.958  2.0237  0.7559  2.9966
70993SOL     OW24703  10.174  11.637   6.753 -0.6424  0.0601 -0.1951
70993SOL    HW124704  10.245  11.574   6.745 -1.2934 -0.6132 -0.7976
70993SOL    HW224705  10.216  11.716   6.788  0.1807 -0.6892  0.5620
70994SOL     OW24706   0.715   3.718   3.692 -0.5144 -0.2931  0.3458
70994SOL    HW124707   0.691   3.807   3.666  0.0795 -0.1243  0.3694
70994SOL    HW224708   0.637   3.666   3.672 -0.9289  0.2572  0.4875
70995SOL     OW24709   4.057  10.235   8.549 -0.6089  0.2806  0.1717
70995SOL    HW124710   3.970  10.203   8.575  0.3869 -3.0272 -0.1131
70995SOL    HW224711   4.090  10.280   8.626 -2.0994  0.5701  0.6796
70996SOL     OW24712   7.623   9.989  11.460  0.6067  0.0492 -0.4097
70996SOL    HW124713   7.580  10.053  11.516 -0.1693  0.0322 -0.9702
70996SOL    HW224714   7.695   9.955  11.513  0.5267  0.7920  0.1841
70997SOL     OW24715  12.295   8.620  10.002  0.4234 -0.6829  0.8894
70997SOL    HW124716  12.255   8.677   9.936 -0.1711 -1.8591  0.2054
70997SOL    HW224717  12.290   8.670  10.084 -0.0137  0.2679  0.2940
70998SOL     OW24718   4.431   9.903   6.215 -0.1230  0.6732 -0.5347
70998SOL    HW124719   4.421   9.810   6.197  0.9582  0.4840 -0.2684
70998SOL    HW224720   4.511   9.908   6.268 -1.2997  1.5477  1.2410
70999SOL     OW24721   5.374   5.525   1.726 -0.4972 -0.2788 -0.3623
70999SOL    HW124722   5.416   5.607   1.701  0.5031 -0.7615 -0.2933
70999SOL    HW224723   5.286   5.551   1.754  0.3309  0.9860  1.2301
71000SOL     OW24724  12.011   5.922   0.095 -0.4274  0.3792 -0.0233
71000SOL    HW124725  12.007   5.976   0.016 -1.0606  0.1358 -0.1710
71000SOL    HW224726  12.099   5.884   0.094  0.3017  1.9870  0.4874
71001SOL     OW24727   6.616   8.826   6.328 -0.7994  0.1935 -0.4203
71001SOL    HW124728   6.561   8.749   6.314 -0.1973 -0.1431 -0.9843
71001SOL    HW224729   6.565   8.899   6.294 -2.5151  0.4918  2.4501
71002SOL     OW24730  11.437   1.939   6.441 -0.1319 -0.3709 -0.2353
71002SOL    HW124731  11.455   2.032   6.454 -1.8453 -0.2909  2.3052
71002SOL    HW224732  11.520   1.895   6.461  0.2725  0.5410  0.1403
71003SOL     OW24733   4.358   3.383   7.786 -0.3451  0.0783 -0.1636
71003SOL    HW124734   4.279   3.328   7.786 -1.0634  1.0605 -1.1931
71003SOL    HW224735   4.328   3.467   7.751  1.3105  0.2382 -1.2698
71004SOL     OW24736   6.751   8.618   7.771 -0.1489  0.3260  0.0582
71004SOL    HW124737   6.681   8.634   7.834 -0.7098 -0.3050 -0.3900
71004SOL    HW224738   6.766   8.703   7.730  0.4088  0.8037  1.2070
71005SOL     OW24739   2.456  13.186  11.365  0.2539  0.4174  0.5758
71005SOL    HW124740   2.383  13.213  11.419 -1.0834 -1.2137 -0.3142
71005SOL    HW224741   2.446  13.091  11.357  3.3988 -0.1730  1.7495
71006SOL     OW24742   6.289   1.657   5.807 -0.1372  0.4127  0.4035
71006SOL    HW124743   6.302   1.568   5.775 -0.2960  0.5996 -0.1919
71006SOL    HW224744   6.259   1.706   5.731 -0.7743  0.8145  0.9016
71007SOL     OW24745  10.911   8.046   0.684  0.2653  0.2192 -0.2253
71007SOL    HW124746  10.861   7.966   0.699  2.1541 -1.1248 -0.6884
71007SOL    HW224747  10.980   8.045   0.750 -0.2046  1.9914  0.3683
71008SOL     OW24748   2.112   1.677   0.072  0.1363  0.1954 -0.5396
71008SOL    HW124749   2.115   1.650  -0.020 -1.2135  0.1765 -0.5938
71008SOL    HW224750   2.101   1.595   0.120  0.9243  0.1982 -0.3494
71009SOL     OW24751   3.697  10.940   6.807  0.6830  0.2250  0.3939
71009SOL    HW124752   3.655  10.858   6.779  2.1806 -0.0992 -1.0870
71009SOL    HW224753   3.629  10.987   6.856 -0.8843 -0.9383 -0.5858
71010SOL     OW24754   4.700   8.396  12.134 -0.1378  0.3550 -0.2189
71010SOL    HW124755   4.710   8.464  12.067 -1.8904  0.8237 -0.0471
71010SOL    HW224756   4.766   8.418  12.200  0.9511  0.4555 -1.2947
71011SOL     OW24757  11.365   7.634   7.210 -0.3328 -0.0837  0.3127
71011SOL    HW124758  11.337   7.548   7.239  1.6349 -0.4071  1.4671
71011SOL    HW224759  11.455   7.621   7.179 -0.8453  1.1064 -1.8619
71012SOL     OW24760   5.176  10.295   6.154 -0.3613 -0.1168 -0.2109
71012SOL    HW124761   5.202  10.203   6.155  0.2471  0.0526  0.5516
71012SOL    HW224762   5.257  10.344   6.169 -0.8299  0.4890  0.4771
71013SOL     OW24763  13.012   9.730  12.449  0.5309 -0.1140 -0.6547
71013SOL    HW124764  13.087   9.765  12.496 -0.2769  0.4521  0.2529
71013SOL    HW224765  12.997   9.643  12.488  0.9782 -0.4135 -1.1428
71014SOL     OW24766   6.379   2.230   3.553  0.3124  0.0702 -0.3122
71014SOL    HW124767   6.384   2.234   3.458  0.1060  0.2078 -0.3180
71014SOL    HW224768   6.322   2.155   3.571 -1.1193  1.1061 -0.3396
71015SOL     OW24769  11.263   2.059   1.204 -0.1155  0.0463 -0.0798
71015SOL    HW124770  11.354   2.070   1.177  1.1389 -3.3210  2.1554
71015SOL    HW224771  11.215   2.043   1.123  1.4828  0.6885 -1.1935
71016SOL     OW24772  10.062   0.516   9.903  0.4386 -0.3867 -0.3346
71016SOL    HW124773  10.067   0.498   9.996  1.7334  1.0445 -0.0785
71016SOL    HW224774  10.070   0.430   9.861  0.5305 -0.9768  0.8502
71017SOL     OW24775   2.512   7.648   7.850 -0.0075 -0.0803 -0.5025
71017SOL    HW124776   2.481   7.652   7.759 -0.7278  0.9014 -0.2297
71017SOL    HW224777   2.448   7.592   7.894  0.3650 -0.5901 -0.5966
71018SOL     OW24778  12.420   6.810  10.017  0.4157  0.0176 -0.0993
71018SOL    HW124779  12.341   6.765   9.984  0.1381  1.1192 -0.9868
71018SOL    HW224780  12.387   6.891  10.056  0.9380 -0.4146  1.2827
71019SOL     OW24781   1.951   2.869   4.915  0.2122 -0.3269 -0.1024
71019SOL    HW124782   1.955   2.868   5.010  1.5009  0.1003 -0.1367
71019SOL    HW224783   2.009   2.940   4.889 -1.9706  1.1793 -1.1415
71020SOL     OW24784   9.072  13.311   6.349  0.1640  0.1430 -0.0911
71020SOL    HW124785   9.051  13.398   6.316 -1.0886  1.4811  3.6441
71020SOL    HW224786   9.151  13.324   6.403 -0.6271 -0.7235  1.3508
71021SOL     OW24787   2.054   3.826   8.859 -0.2277 -0.0459  0.0022
71021SOL    HW124788   1.999   3.817   8.781  0.3111 -2.3127 -0.1806
71021SOL    HW224789   2.124   3.762   8.847  0.9563  0.8838  1.4887
71022SOL     OW24790   3.926   8.790   6.804  0.2991 -0.4396 -0.6672
71022SOL    HW124791   4.002   8.848   6.799 -0.7291  0.8526 -1.8033
71022SOL    HW224792   3.964   8.704   6.823  2.0312  0.2026 -1.0125
71023SOL     OW24793  13.502   8.121   6.213  0.7191 -0.1759 -0.3736
71023SOL    HW124794  13.426   8.125   6.155 -0.5792  1.0528  1.3366
71023SOL    HW224795  13.550   8.202   6.196  0.7624 -0.1812 -0.2776
71024SOL     OW24796   0.370   0.316   8.395 -0.1403 -0.4634  0.0203
71024SOL    HW124797   0.334   0.393   8.439  1.8099 -0.3872  1.6516
71024SOL    HW224798   0.330   0.241   8.440 -0.9297 -0.4200 -0.5882
71025SOL     OW24799   0.934   0.102   6.351  0.0108  0.1435  0.3788
71025SOL    HW124800   1.003   0.138   6.407  1.4505 -0.9872 -0.5976
71025SOL    HW224801   0.921   0.169   6.283 -0.5651  0.7779  1.0904
71026SOL     OW24802   6.427   2.205   6.715 -0.0890 -0.1230  0.0808
71026SOL    HW124803   6.443   2.141   6.784  0.8557 -0.1333 -0.1234
71026SOL    HW224804   6.408   2.153   6.637  4.1086 -0.4345 -0.9875
71027SOL     OW24805   5.262   2.652  13.505 -0.5042 -0.0019  0.6976
71027SOL    HW124806   5.184   2.600  13.488 -1.7457  1.8564  0.4599
71027SOL    HW224807   5.284   2.692  13.421  0.1184  0.2900  0.9879
71028SOL     OW24808   1.199  10.774  11.689  0.4476  0.0796  0.4820
71028SOL    HW124809   1.291  10.797  11.676  0.4590 -0.0271  0.3687
71028SOL    HW224810   1.179  10.802  11.778  0.3681  0.8443  0.2332
71029SOL     OW24811  12.267  11.655   8.702  0.3092 -0.0700 -0.2360
71029SOL    HW124812  12.341  11.641   8.761  0.6366  0.2994 -0.5508
71029SOL    HW224813  12.234  11.568   8.683  0.9382 -0.2734 -0.4364
71030SOL     OW24814   4.691   8.011   1.894 -0.0135  0.1537  0.4889
71030SOL    HW124815   4.665   8.100   1.868  0.1807  0.6912  2.0246
71030SOL    HW224816   4.623   7.955   1.856  0.8107  0.7109 -2.0572
71031SOL     OW24817   7.424   2.364   8.510 -0.8255  0.4533 -0.0481
71031SOL    HW124818   7.356   2.297   8.522  1.4970 -1.9398  0.5083
71031SOL    HW224819   7.419   2.385   8.417 -0.4705 -1.8700 -0.6531
71032SOL     OW24820   9.737   4.193   3.121  0.3610  0.0098 -0.2004
71032SOL    HW124821   9.790   4.145   3.185 -1.6224 -1.5848  0.3390
71032SOL    HW224822   9.732   4.282   3.155  0.8941 -0.3513  0.8661
71033SOL     OW24823   7.646   7.851  13.636  0.3393 -0.3254  0.7884
71033SOL    HW124824   7.628   7.774  13.690 -0.7002  0.3099  1.3776
71033SOL    HW224825   7.560   7.890  13.621  0.8969  0.9348  0.8206
71034SOL     OW24826   0.449   0.072   3.406  0.1614 -0.0680  0.1058
71034SOL    HW124827   0.408  -0.006   3.368  1.2367 -1.0457  0.8612
71034SOL    HW224828   0.379   0.113   3.458 -0.7701  0.2157 -1.3380
71035SOL     OW24829   2.618  10.037   5.915 -0.2302 -0.0693  0.5092
71035SOL    HW124830   2.605   9.963   5.855 -1.5902  0.4826  0.0940
71035SOL    HW224831   2.597  10.114   5.862  1.8454  0.7111  0.7246
71036SOL     OW24832   4.858   6.565  10.507  0.7783  0.2943  0.1209
71036SOL    HW124833   4.799   6.495  10.532  1.9110 -0.7537 -0.0668
71036SOL    HW224834   4.852   6.629  10.579 -1.2170  0.6534 -0.3122
71037SOL     OW24835   9.416   5.097   6.542 -0.0365 -0.5398 -1.0259
71037SOL    HW124836   9.422   5.006   6.513  1.1732 -0.5065 -0.9237
71037SOL    HW224837   9.335   5.129   6.504 -1.8188 -2.3696  0.9432
71038SOL     OW24838   8.534   3.141   9.276  0.4851  0.3601  0.3822
71038SOL    HW124839   8.455   3.103   9.315  0.6670  0.2398  0.6401
71038SOL    HW224840   8.556   3.214   9.334  0.2729  0.7119  0.0235
71039SOL     OW24841   1.571   8.436   8.148  0.7072 -0.1976  0.0692
71039SOL    HW124842   1.660   8.417   8.121  1.1398  2.2222 -0.4335
71039SOL    HW224843   1.536   8.492   8.079 -0.6831  0.1343  0.9998
71040SOL     OW24844  12.157   0.416  11.382 -0.5743 -0.1413 -0.4712
71040SOL    HW124845  12.167   0.497  11.432  0.2346  0.4318 -1.5292
71040SOL    HW224846  12.154   0.348  11.449 -1.0669  0.7405  0.4242
71041SOL     OW24847   5.431  12.651   3.285  0.2140  0.1501 -0.0882
71041SOL    HW124848   5.467  12.642   3.197  0.5437 -1.2438  0.1549
71041SOL    HW224849   5.505  12.683   3.338 -0.4762  2.8646 -0.6200
71042SOL     OW24850   8.063   3.676   9.592  0.2829  0.1855 -0.1214
71042SOL    HW124851   8.064   3.733   9.669  0.6418  0.4004 -0.2818
71042SOL    HW224852   7.999   3.608   9.612  1.0082 -0.2622  0.7319
71043SOL     OW24853   2.781   2.769   6.622  0.4155 -0.1206  0.0373
71043SOL    HW124854   2.729   2.732   6.552  1.4110 -0.8795 -0.3215
71043SOL    HW224855   2.794   2.697   6.684 -1.3473  0.7938  1.5817
71044SOL     OW24856  13.672   4.158   2.978  0.1944  0.1746 -0.0647
71044SOL    HW124857  13.626   4.106   3.044  1.5451 -0.4181  0.4413
71044SOL    HW224858  13.611   4.228   2.956 -0.7968 -0.3669  0.8483
71045SOL     OW24859  13.252   6.192   9.549 -0.7946 -0.5529 -0.2604
71045SOL    HW124860  13.264   6.113   9.497  0.4508 -2.2280  2.3585
71045SOL    HW224861  13.208   6.161   9.629 -1.3815  1.6317  0.3242
71046SOL     OW24862   2.158   7.992  11.919  0.3883 -0.1272  0.8990
71046SOL    HW124863   2.249   7.978  11.948  0.8357 -0.1267 -0.4573
71046SOL    HW224864   2.120   7.905  11.917  1.0284 -0.4043 -0.6101
71047SOL     OW24865   6.709  13.667   2.830 -0.2323  0.5739  0.5192
71047SOL    HW124866   6.763  13.746   2.838  0.6766  0.3749 -2.4596
71047SOL    HW224867   6.769  13.595   2.851 -0.4334  0.5560  1.0335
71048SOL     OW24868   9.357   2.379   6.309 -0.3254 -0.3884 -0.6939
71048SOL    HW124869   9.399   2.317   6.368 -1.1385 -1.4856 -1.2352
71048SOL    HW224870   9.402   2.368   6.225 -1.0755 -0.9207 -1.0343
71049SOL     OW24871   5.618   8.062   0.214 -0.1427 -0.4305  0.2345
71049SOL    HW124872   5.713   8.070   0.219  0.1685 -1.2374 -2.6695
71049SOL    HW224873   5.588   8.152   0.196  0.4945 -0.6409 -2.3422
71050SOL     OW24874   7.575   4.322   6.853  0.3505 -0.1847  0.4443
71050SOL    HW124875   7.553   4.299   6.763 -1.1434 -0.1391  0.7702
71050SOL    HW224876   7.495   4.303   6.903  0.2451  2.2141  1.3299
71051SOL     OW24877   7.585   2.816   3.682  0.8336  0.9121 -0.1041
71051SOL    HW124878   7.519   2.751   3.707  0.4058  0.9885 -0.9972
71051SOL    HW224879   7.664   2.790   3.731  0.0038  1.1695  1.4421
71052SOL     OW24880   1.063  10.454   0.961  0.4390  0.6510  0.1071
71052SOL    HW124881   0.990  10.466   0.901  0.3720 -0.5366 -0.0880
71052SOL    HW224882   1.051  10.520   1.028 -0.2231  1.1457 -0.4893
71053SOL     OW24883  13.154   0.717   8.061 -0.6234  0.3418 -0.1155
71053SOL    HW124884  13.135   0.788   7.999 -0.4480  0.3957 -0.1078
71053SOL    HW224885  13.223   0.666   8.019  0.7566  1.3952  0.8017
71054SOL     OW24886   2.244   8.739   7.933  0.0620  0.6214 -0.0083
71054SOL    HW124887   2.209   8.820   7.897 -0.6365  1.0679  1.6011
71054SOL    HW224888   2.175   8.674   7.918  0.3897  0.4455 -0.7907
71055SOL     OW24889   7.109  10.882   7.452  0.7811 -0.3987  0.1725
71055SOL    HW124890   7.065  10.802   7.481 -1.7782  1.3989  1.6337
71055SOL    HW224891   7.084  10.948   7.516  1.7383  1.9143 -1.6790
71056SOL     OW24892  11.277   2.709   1.441 -0.1623  0.2160 -0.0537
71056SOL    HW124893  11.358   2.667   1.411 -0.4454 -0.1399 -0.3292
71056SOL    HW224894  11.242   2.752   1.363  0.7735  2.0665  0.4938
71057SOL     OW24895   1.851   3.635   6.542 -0.5853 -0.1599 -0.2118
71057SOL    HW124896   1.780   3.674   6.491 -0.2115  1.6252  0.5423
71057SOL    HW224897   1.895   3.577   6.480 -2.0689 -0.5280 -0.9765
71058SOL     OW24898  10.177  12.747  12.382  0.0594  0.3742 -0.3520
71058SOL    HW124899  10.144  12.690  12.451 -1.7515  0.4538 -1.1144
71058SOL    HW224900  10.154  12.836  12.412  1.9842  0.6974  0.3538
71059SOL     OW24901   4.979  10.184   2.396 -0.4887 -0.1210  0.8037
71059SOL    HW124902   4.944  10.116   2.453 -0.7405  0.5408  1.4682
71059SOL    HW224903   4.937  10.169   2.311 -0.8989 -0.5056  1.0698
71060SOL     OW24904   6.776   0.904  11.140  0.1397  0.1753 -0.1200
71060SOL    HW124905   6.715   0.978  11.136  0.0142  0.0515 -0.5593
71060SOL    HW224906   6.729   0.837  11.190 -0.1001  0.0721 -0.4766
71061SOL     OW24907   7.334   1.342   6.596  0.2921 -1.0332 -0.4804
71061SOL    HW124908   7.317   1.382   6.681 -0.4481 -1.7391 -0.2910
71061SOL    HW224909   7.429   1.333   6.592  0.2770 -1.8294  0.6603
71062SOL     OW24910   4.103   3.872   7.173  0.2757 -0.6396 -0.2938
71062SOL    HW124911   4.072   3.818   7.100  2.6046 -0.0946 -1.7989
71062SOL    HW224912   4.180   3.827   7.206  1.9185  1.3387 -1.1907
71063SOL     OW24913   3.606  12.970   4.444  0.6097  0.4719  0.4641
71063SOL    HW124914   3.627  13.030   4.515 -0.4248  0.6458  0.6498
71063SOL    HW224915   3.620  12.883   4.481  0.5941  0.5721  0.7040
71064SOL     OW24916   8.670   6.907   0.879  0.4449 -0.4821 -0.0541
71064SOL    HW124917   8.610   6.912   0.805  0.4026 -1.2854 -0.0852
71064SOL    HW224918   8.738   6.971   0.859  0.7274 -1.0666 -1.0644
71065SOL     OW24919   2.060   9.980  11.608  0.6414 -0.2918  0.2938
71065SOL    HW124920   2.045   9.988  11.702 -0.6231 -0.9441  0.1755
71065SOL    HW224921   2.033   9.890  11.588 -0.2870  0.2220 -0.8773
71066SOL     OW24922  12.334   7.315   1.964  0.1118  0.3171  0.3803
71066SOL    HW124923  12.287   7.366   1.898  0.6584  0.8307  0.3722
71066SOL    HW224924  12.282   7.326   2.044 -0.4853 -0.2088  0.0675
71067SOL     OW24925  12.046  12.546  12.441  0.3365  0.1364 -0.0515
71067SOL    HW124926  11.999  12.483  12.387  2.0172 -3.1541  1.9684
71067SOL    HW224927  12.137  12.536  12.415  0.9308 -0.1252  1.9337
71068SOL     OW24928   8.186   4.460   1.168  0.1770  0.1949 -0.2169
71068SOL    HW124929   8.166   4.520   1.096  1.6281 -0.2334 -1.0227
71068SOL    HW224930   8.136   4.494   1.243  0.8640  2.3481 -0.6658
71069SOL     OW24931  10.050   2.900   3.443  0.0184 -0.0228  0.0985
71069SOL    HW124932  10.123   2.912   3.383 -0.5432 -0.0635 -0.5965
71069SOL    HW224933   9.980   2.862   3.390 -0.3088 -0.5625  0.8871
71070SOL     OW24934  13.224   2.948   3.003  0.3386  0.2991 -0.1016
71070SOL    HW124935  13.228   3.028   2.950  0.2603  0.8028  0.6310
71070SOL    HW224936  13.157   2.895   2.962 -0.6526  1.2467  0.2408
71071SOL     OW24937   5.764  12.106  10.474 -0.7765 -0.1592 -0.4007
71071SOL    HW124938   5.825  12.075  10.541  0.5715  1.8742 -0.6103
71071SOL    HW224939   5.776  12.045  10.401  0.6521 -0.1190 -0.2327
71072SOL     OW24940  12.435  11.492  12.096 -0.1651  0.1548  0.6247
71072SOL    HW124941  12.463  11.410  12.137 -0.2024 -0.4764 -0.5815
71072SOL    HW224942  12.481  11.494  12.012  0.4001  1.7271  0.9330
71073SOL     OW24943   0.301   2.187   1.422  0.1486  0.0543 -0.1867
71073SOL    HW124944   0.276   2.115   1.364 -0.6403  0.3754 -0.2618
71073SOL    HW224945   0.302   2.265   1.365  0.4577  0.1967  0.0082
71074SOL     OW24946   1.449  10.259  12.574  0.0650 -0.2537  0.1500
71074SOL    HW124947   1.481  10.337  12.619 -0.3853 -0.1813  0.3534
71074SOL    HW224948   1.509  10.247  12.500  1.5222 -1.0327  1.4123
71075SOL     OW24949  11.991   8.782   5.110  0.3670  0.3039 -0.3947
71075SOL    HW124950  12.039   8.703   5.135 -0.9266 -0.8094 -1.2708
71075SOL    HW224951  12.059   8.845   5.085  1.3964 -0.7576 -0.3537
71076SOL     OW24952  12.447   9.753   6.381  0.0283  0.0322 -0.1757
71076SOL    HW124953  12.418   9.781   6.294 -1.2971 -0.4310  0.0879
71076SOL    HW224954  12.542   9.759   6.378 -0.0393  0.8348 -1.3801
71077SOL     OW24955   3.627  11.959   4.172 -0.1888 -0.1194  0.4717
71077SOL    HW124956   3.546  11.987   4.129 -2.0429 -1.6983  2.6821
71077SOL    HW224957   3.631  11.865   4.155 -0.2859 -0.5347  2.5500
71078SOL     OW24958  11.890   8.900  11.593  0.1788 -0.1118 -0.5354
71078SOL    HW124959  11.914   8.981  11.550 -0.9858  0.2447 -0.5401
71078SOL    HW224960  11.794   8.904  11.602  0.2155 -0.9541  0.5006
71079SOL     OW24961   7.380  13.021   9.212 -0.5923  0.4082 -0.0651
71079SOL    HW124962   7.290  13.028   9.181 -1.7237 -1.0954  2.5018
71079SOL    HW224963   7.378  12.945   9.271  2.6474 -0.3704 -0.7945
71080SOL     OW24964   5.701   5.741   3.918 -0.5970  0.0741  0.0161
71080SOL    HW124965   5.730   5.787   3.840  0.2944  1.1452  0.9565
71080SOL    HW224966   5.667   5.810   3.975  1.2593 -0.2970  1.6728
71081SOL     OW24967  12.673   6.161   1.724 -0.0574  0.0383 -0.7284
71081SOL    HW124968  12.669   6.251   1.690  0.2639  0.7294  0.9764
71081SOL    HW224969  12.582   6.132   1.725 -0.2675  0.7025 -0.3647
71082SOL     OW24970  12.926   5.515   7.113 -0.4093  0.3419 -0.0294
71082SOL    HW124971  13.021   5.526   7.120 -0.5904  2.0532  0.1156
71082SOL    HW224972  12.906   5.544   7.024 -0.8042 -0.0461 -0.0702
71083SOL     OW24973   3.376   2.044  11.974 -0.1984  0.2981 -0.4065
71083SOL    HW124974   3.414   2.011  12.055  0.9272  1.1919 -0.5432
71083SOL    HW224975   3.305   1.983  11.953  1.7834 -2.0288 -0.6802
71084SOL     OW24976  11.736   1.971  13.337 -0.1571  0.5094  0.6859
71084SOL    HW124977  11.815   1.996  13.385  0.3518  1.0242 -0.3896
71084SOL    HW224978  11.684   1.921  13.400  0.0881  1.8908  2.0536
71085SOL     OW24979  13.534  13.220  10.226 -0.3802  0.2732  0.7380
71085SOL    HW124980  13.447  13.183  10.210  0.3405 -1.3133  0.2561
71085SOL    HW224981  13.543  13.220  10.322 -0.7518  0.0521  0.7731
71086SOL     OW24982  13.637   1.864   7.548 -0.0155  0.3231  0.0506
71086SOL    HW124983  13.657   1.770   7.551  0.8702  0.5131  0.3936
71086SOL    HW224984  13.581   1.874   7.471  1.4770 -0.2028 -1.1437
71087SOL     OW24985   4.356  13.199   1.658 -0.2611 -0.3105 -0.1964
71087SOL    HW124986   4.343  13.150   1.740  0.7109  1.8241  1.3007
71087SOL    HW224987   4.400  13.137   1.600 -3.1885 -2.7253 -0.1050
71088SOL     OW24988  13.547  13.255  12.239 -0.2882 -0.1246 -0.0955
71088SOL    HW124989  13.548  13.320  12.168  0.8795  1.1765  1.0481
71088SOL    HW224990  13.636  13.257  12.274 -0.4411 -1.8346  0.4597
71089SOL     OW24991  11.614  13.212  11.448 -0.3235 -0.2589 -0.1683
71089SOL    HW124992  11.578  13.218  11.537  0.8474 -0.0186  0.3080
71089SOL    HW224993  11.656  13.296  11.433  1.9747 -1.2587  0.1878
71090SOL     OW24994  10.043   6.437   5.732 -0.5910 -0.1570  0.1126
71090SOL    HW124995  10.100   6.361   5.749 -0.7884 -0.2344  0.4447
71090SOL    HW224996   9.975   6.403   5.674  0.0754  0.1026 -0.8313
71091SOL     OW24997  11.782   3.893   3.423 -0.4028  0.7422  0.3476
71091SOL    HW124998  11.749   3.803   3.423 -0.8150  0.8509  2.2385
71091SOL    HW224999  11.829   3.901   3.340  0.8137 -1.6518  0.7046
71092SOL     OW25000  12.744   8.455   0.479  0.2672 -0.0111 -0.4436
71092SOL    HW125001  12.827   8.468   0.525  0.6959 -1.8713 -0.6266
71092SOL    HW225002  12.691   8.401   0.538  0.3010 -1.2511 -1.4955
71093SOL     OW25003   8.625   7.371   9.275  0.6503 -0.0192  0.4795
71093SOL    HW125004   8.585   7.375   9.361 -2.5772  1.3497 -0.9260
71093SOL    HW225005   8.625   7.278   9.252 -1.7893 -0.1135  0.6156
71094SOL     OW25006   6.673  13.510  12.226 -0.5024 -0.2821 -0.0319
71094SOL    HW125007   6.711  13.464  12.301  1.2476  0.3832 -0.4634
71094SOL    HW225008   6.676  13.446  12.154  1.0013  0.1413 -0.3762
71095SOL     OW25009   2.627   4.549   8.026 -0.1765 -0.1124 -0.0518
71095SOL    HW125010   2.691   4.615   7.999 -0.3389  0.4382  0.8811
71095SOL    HW225011   2.650   4.529   8.116  0.1746 -1.7038 -0.4533
71096SOL     OW25012   2.995   2.556  12.282 -0.4113 -0.2343  0.0796
71096SOL    HW125013   3.039   2.544  12.197  0.7188 -1.1483  0.7669
71096SOL    HW225014   2.948   2.639  12.273  2.0709  1.2283 -0.4615
71097SOL     OW25015   9.392  11.443  12.733  0.5736  0.2145  0.2140
71097SOL    HW125016   9.469  11.492  12.761  0.4512 -0.3294  1.6074
71097SOL    HW225017   9.417  11.351  12.746  0.2751 -0.0446 -0.9404
71098SOL     OW25018   9.393   1.780  11.290 -0.0271  0.1175  0.4188
71098SOL    HW125019   9.388   1.696  11.336  2.1059  0.3670  1.2620
71098SOL    HW225020   9.302   1.803  11.270 -0.5989 -3.0477 -1.1464
71099SOL     OW25021   7.027   1.127   3.410 -0.0509  0.0151 -0.1206
71099SOL    HW125022   6.998   1.168   3.491  0.5718 -1.8500  1.1251
71099SOL    HW225023   7.117   1.156   3.399 -0.2014  0.4304 -0.2528
71100SOL     OW25024   5.742  10.690  13.609 -0.0563 -0.2318 -0.3110
71100SOL    HW125025   5.703  10.630  13.546  0.8311 -0.2263 -0.8825
71100SOL    HW225026   5.821  10.645  13.640  0.4696  0.5129 -0.5421
71101SOL     OW25027   3.136   8.210  13.070 -0.0837 -0.1960 -0.3271
71101SOL    HW125028   3.158   8.164  13.151 -0.0194  0.4789  0.0478
71101SOL    HW225029   3.054   8.255  13.090  0.8824  1.5001  0.0015
71102SOL     OW25030   1.891   8.486   5.572 -0.2082  0.1678 -0.4154
71102SOL    HW125031   1.897   8.430   5.495 -1.1948 -0.1292 -0.2856
71102SOL    HW225032   1.826   8.444   5.628  0.3159  0.5099  0.4835
71103SOL     OW25033   3.866   6.458   8.733  0.7975 -0.0724 -0.2251
71103SOL    HW125034   3.886   6.551   8.722 -0.7441  0.4033  0.6252
71103SOL    HW225035   3.863   6.424   8.643 -0.4017  1.1338 -0.6837
71104SOL     OW25036   6.351  11.209  10.320 -0.1857  0.1686  0.4339
71104SOL    HW125037   6.287  11.241  10.384 -1.5358  0.7729 -1.1526
71104SOL    HW225038   6.392  11.288  10.285  0.4076 -0.1491  0.3967
71105SOL     OW25039  13.088  12.195   2.155  0.9572 -0.0130 -0.2267
71105SOL    HW125040  13.101  12.107   2.119  2.7828  0.0371  0.2163
71105SOL    HW225041  13.144  12.198   2.233 -1.2318  0.6088  1.4363
71106SOL     OW25042   9.259   2.119  10.201  0.3512 -0.6224  0.3989
71106SOL    HW125043   9.203   2.162  10.266  0.3791 -0.9541  0.6442
71106SOL    HW225044   9.323   2.186  10.177 -1.7268  0.7333 -1.9029
71107SOL     OW25045  13.743   8.297   6.273  0.1839 -0.0305 -0.4281
71107SOL    HW125046  13.805   8.369   6.262  1.9389 -0.9634  2.3744
71107SOL    HW225047  13.795   8.218   6.260 -1.0450 -0.8462 -0.5526
71108SOL     OW25048   4.772   0.478   2.695  0.2181  0.1530  0.7655
71108SOL    HW125049   4.842   0.426   2.654  1.7328  1.7922  1.1466
71108SOL    HW225050   4.760   0.551   2.635 -1.6158 -0.3909  0.4259
71109SOL     OW25051   5.910  11.315  13.178  0.0711 -0.2487  0.1923
71109SOL    HW125052   5.854  11.392  13.190 -0.0678 -0.3692  0.3149
71109SOL    HW225053   5.978  11.324  13.245 -0.6012 -0.8286  0.9714
71110SOL     OW25054   2.727   1.379   6.467 -0.5816 -0.4868 -0.1002
71110SOL    HW125055   2.656   1.329   6.505 -0.2297 -0.8071  0.1432
71110SOL    HW225056   2.804   1.357   6.520 -0.5226  0.7076  0.3463
71111SOL     OW25057   1.257   7.758  10.667 -0.2646  0.0379 -0.6161
71111SOL    HW125058   1.169   7.793  10.680 -1.1282 -1.5620 -1.8241
71111SOL    HW225059   1.250   7.665  10.686  0.9593 -0.2713 -1.5135
71112SOL     OW25060   0.910   4.497  11.055  0.0147 -0.1070  0.0090
71112SOL    HW125061   0.953   4.516  11.138 -1.3649 -0.3574  0.8219
71112SOL    HW225062   0.895   4.583  11.015 -0.1939  0.0796  0.4883
71113SOL     OW25063   3.496   5.888   9.190  0.2381  0.6868  0.1028
71113SOL    HW125064   3.574   5.942   9.176  1.8349 -1.0028  1.9468
71113SOL    HW225065   3.517   5.804   9.150 -0.5321  0.1422  0.8048
71114SOL     OW25066   2.558   7.254   0.961 -0.3561 -0.1321 -0.0932
71114SOL    HW125067   2.566   7.343   0.926  1.5421 -0.1953  0.0660
71114SOL    HW225068   2.495   7.211   0.903  1.7364  0.1371 -2.7578
71115SOL     OW25069   1.585   0.534   1.367  0.6765 -0.2350 -0.2945
71115SOL    HW125070   1.534   0.454   1.355 -1.4010  0.9142  0.3294
71115SOL    HW225071   1.584   0.548   1.462  1.1425  0.4270 -0.3818
71116SOL     OW25072   9.857  11.325  10.433 -0.1411  0.1618 -0.0294
71116SOL    HW125073   9.768  11.291  10.449  0.3040 -0.9252  0.2334
71116SOL    HW225074   9.849  11.374  10.351 -0.8563 -0.4540 -0.3475
71117SOL     OW25075  11.071  13.305   7.518 -0.0653 -0.0457 -0.4034
71117SOL    HW125076  11.105  13.367   7.454 -1.8237  0.4423 -0.9145
71117SOL    HW225077  11.102  13.220   7.488  2.0068  0.4925  0.0658
71118SOL     OW25078  11.473  13.322   9.904 -0.1442  0.0170  0.1192
71118SOL    HW125079  11.537  13.346   9.838  0.5594  0.0417  0.8027
71118SOL    HW225080  11.519  13.331   9.987 -1.0959  0.2512  0.6361
71119SOL     OW25081   5.495   6.991  10.023 -0.6727 -0.0269 -0.9161
71119SOL    HW125082   5.574   6.992   9.969 -0.7711  1.4736 -1.0906
71119SOL    HW225083   5.424   7.010   9.962 -1.0365 -0.3173 -0.5878
71120SOL     OW25084  11.663   5.474   7.241  0.1162 -0.1766 -0.2068
71120SOL    HW125085  11.725   5.528   7.193  0.4176 -0.2963  0.0473
71120SOL    HW225086  11.621   5.420   7.174 -0.0825  0.2635 -0.4423
71121SOL     OW25087  12.613   6.454   7.431  0.2906  0.2712 -0.2706
71121SOL    HW125088  12.685   6.391   7.428  1.6351  1.6810  0.6603
71121SOL    HW225089  12.607   6.488   7.342  1.5021  0.8754 -0.1438
71122SOL     OW25090  12.155   8.126   5.777  0.1617 -0.0831  0.6352
71122SOL    HW125091  12.125   8.215   5.757  1.0081  0.1830  0.5361
71122SOL    HW225092  12.187   8.093   5.693 -1.7041 -1.1197  0.2734
71123SOL     OW25093   0.523   5.776   7.727 -0.3640 -0.3174 -0.0528
71123SOL    HW125094   0.470   5.853   7.707  0.4564  0.3815  0.4079
71123SOL    HW225095   0.508   5.717   7.653  0.4857  1.0826 -1.3946
71124SOL     OW25096  13.633   4.099   1.100 -0.1182 -0.0017 -0.1038
71124SOL    HW125097  13.724   4.069   1.108 -0.1793 -0.5715 -1.2867
71124SOL    HW225098  13.610   4.129   1.188  1.0757 -0.2363  0.3135
71125SOL     OW25099   0.108  12.046   4.962 -0.4924  0.2097 -0.0387
71125SOL    HW125100   0.145  12.038   5.049  1.9694  1.2688 -0.8877
71125SOL    HW225101   0.080  11.957   4.939  0.1884 -0.3569  1.2543
71126SOL     OW25102  13.060   5.209  11.535 -0.5999 -0.2258  0.4524
71126SOL    HW125103  12.968   5.184  11.527 -0.8318  0.2095  1.5219
71126SOL    HW225104  13.073   5.220  11.629  0.5227 -0.1810  0.3023
71127SOL     OW25105   1.822  10.260   3.859 -0.3524 -0.0296 -0.5210
71127SOL    HW125106   1.903  10.250   3.909  0.4373 -0.2054 -1.8064
71127SOL    HW225107   1.753  10.237   3.921  0.6427 -0.8575  0.3099
71128SOL     OW25108   3.858   8.868  12.390 -0.1550 -0.0005  0.0196
71128SOL    HW125109   3.859   8.834  12.301  0.3086 -0.2802  0.1273
71128SOL    HW225110   3.950   8.884  12.411 -0.3558  1.2706 -0.0076
71129SOL     OW25111   3.558  10.581   3.666  0.0055 -0.1730  0.1645
71129SOL    HW125112   3.505  10.510   3.702  0.2696  0.0488  0.9989
71129SOL    HW225113   3.521  10.661   3.704 -0.2636  0.1433 -0.7359
71130SOL     OW25114  11.045   4.886  12.393  0.4576  0.2967 -0.2136
71130SOL    HW125115  11.040   4.962  12.335  0.5643  1.0112  0.6855
71130SOL    HW225116  10.954   4.861  12.407  0.4644 -0.7188 -1.7203
71131SOL     OW25117   7.112   8.837   9.749  0.1969 -0.1457  0.0599
71131SOL    HW125118   7.072   8.751   9.763  2.1930 -1.1201  0.1300
71131SOL    HW225119   7.080   8.863   9.662 -2.2290  0.1438  0.9611
71132SOL     OW25120   6.527   6.296   8.347 -0.9898  0.1660 -0.5753
71132SOL    HW125121   6.446   6.301   8.298 -0.9926  0.2386 -0.5624
71132SOL    HW225122   6.563   6.384   8.345 -1.4808  0.3990  0.3895
71133SOL     OW25123   3.686  10.875   9.781  0.0261 -0.1247 -0.5274
71133SOL    HW125124   3.781  10.873   9.791  0.0756 -0.8074 -1.0622
71133SOL    HW225125   3.653  10.844   9.866  0.1616  2.9943  0.8049
71134SOL     OW25126   8.398  10.257   2.040 -0.3448 -0.0727  0.0781
71134SOL    HW125127   8.394  10.351   2.024  2.0834  0.0075 -0.5548
71134SOL    HW225128   8.307  10.227   2.035 -1.3118  2.3658  1.3708
71135SOL     OW25129  11.147   5.800   4.545 -0.1623 -0.1458 -0.3737
71135SOL    HW125130  11.234   5.779   4.580 -0.9596  0.3339  2.0518
71135SOL    HW225131  11.149   5.895   4.532  0.0821 -0.3017 -1.6133
71136SOL     OW25132   4.813  11.340   1.161  0.3873  0.1202 -0.2974
71136SOL    HW125133   4.719  11.354   1.160  0.3238 -0.2652 -1.6124
71136SOL    HW225134   4.849  11.418   1.204 -0.6596 -0.8443  2.5206
71137SOL     OW25135  10.765   6.596   2.359  0.0437  0.0371 -0.0784
71137SOL    HW125136  10.690   6.656   2.361  0.5470  0.6966 -0.5878
71137SOL    HW225137  10.774   6.572   2.267 -0.5261 -1.3202  0.1982
71138SOL     OW25138  10.559   9.992   2.417 -0.3106  0.4090 -0.1740
71138SOL    HW125139  10.565   9.900   2.391  1.7780  0.5425 -0.3504
71138SOL    HW225140  10.650  10.021   2.422 -0.9379  2.5987 -0.5501
71139SOL     OW25141   6.211   1.856  11.977  0.0855 -0.1953  0.4992
71139SOL    HW125142   6.216   1.889  12.067 -2.1697 -2.4866  1.6153
71139SOL    HW225143   6.244   1.766  11.983  1.9723  0.2837 -1.4969
71140SOL     OW25144  12.006   7.598   7.326 -0.1817  0.2195  0.2452
71140SOL    HW125145  12.092   7.636   7.309  0.3969 -0.9926  0.3108
71140SOL    HW225146  12.005   7.583   7.420 -0.7249  0.7910  0.3392
71141SOL     OW25147   6.970  12.414  12.610  0.1470 -0.2536  0.0542
71141SOL    HW125148   7.011  12.465  12.540  0.0078  1.2304  1.0093
71141SOL    HW225149   7.037  12.409  12.678 -0.0639 -0.8447  0.2252
71142SOL     OW25150   1.056   9.482   9.213  0.0529  0.0496 -0.0207
71142SOL    HW125151   1.024   9.557   9.163 -0.8247 -1.3077 -1.5921
71142SOL    HW225152   0.981   9.422   9.218  1.2902 -1.6383 -0.6396
71143SOL     OW25153   4.850   2.543   6.454  0.7402 -0.3535  0.1721
71143SOL    HW125154   4.874   2.483   6.525 -1.5988 -0.8474  0.6135
71143SOL    HW225155   4.802   2.613   6.497  0.4868  0.0571 -0.7606
71144SOL     OW25156  12.551   7.205  11.271  0.5744 -0.0767  0.3826
71144SOL    HW125157  12.491   7.210  11.345 -0.0943 -0.3678 -0.1277
71144SOL    HW225158  12.564   7.295  11.244  1.3785  0.0983  1.2773
71145SOL     OW25159   5.929  10.578   7.948  0.0274  0.2779  0.2796
71145SOL    HW125160   5.938  10.556   8.040  1.1142  0.1548  0.1538
71145SOL    HW225161   6.013  10.618   7.924 -0.4180  0.7614 -0.5296
71146SOL     OW25162   6.858   8.656  12.820  0.1279 -0.4524 -0.2703
71146SOL    HW125163   6.899   8.583  12.866 -0.1177  1.5141  3.4361
71146SOL    HW225164   6.764   8.644  12.834 -0.2392 -1.3681 -2.9799
71147SOL     OW25165   4.581   7.925   6.967  0.2653 -0.5984 -0.3956
71147SOL    HW125166   4.521   7.881   7.027 -0.8569 -0.3587 -1.2923
71147SOL    HW225167   4.630   7.855   6.925  0.4090 -0.8146  0.1216
71148SOL     OW25168   5.022   4.442  13.005  0.0687  0.4942  0.0693
71148SOL    HW125169   4.941   4.476  12.966 -0.0611  2.2222  1.6949
71148SOL    HW225170   5.013   4.461  13.098  1.5039 -1.1111  0.5824
71149SOL     OW25171   4.403   4.820  12.986 -0.2504  0.6022 -0.2599
71149SOL    HW125172   4.376   4.795  12.898  0.3584 -0.0102 -0.2783
71149SOL    HW225173   4.337   4.782  13.043  0.2581 -0.4259 -0.3422
71150SOL     OW25174   3.958  11.379   5.799 -0.2040  0.3226  0.1283
71150SOL    HW125175   4.002  11.415   5.876  0.0912 -0.7325  0.4740
71150SOL    HW225176   3.963  11.449   5.733  0.5769  0.8033  0.6839
71151SOL     OW25177  12.933   7.005   6.241  0.2182  0.3250 -0.4934
71151SOL    HW125178  12.955   7.013   6.334 -0.3341 -1.0983 -0.2089
71151SOL    HW225179  13.006   6.956   6.203  0.2968  0.6369 -0.7436
71152SOL     OW25180  11.658   9.793   7.680 -0.0610 -0.6380  0.0108
71152SOL    HW125181  11.705   9.873   7.704 -1.1374  0.1368 -0.3921
71152SOL    HW225182  11.574   9.823   7.646 -0.6029 -1.9590  0.1054
71153SOL     OW25183   6.099  10.457   6.273  0.6668 -0.5479 -0.0620
71153SOL    HW125184   6.158  10.512   6.326 -0.3592 -1.3566  2.0522
71153SOL    HW225185   6.021  10.447   6.328 -0.7243 -1.0078 -2.0115
71154SOL     OW25186  11.189   0.946  12.966  0.0040 -0.4470  0.0926
71154SOL    HW125187  11.271   0.991  12.944  1.0861 -1.6412  1.4539
71154SOL    HW225188  11.121   1.011  12.949  1.1743  0.4554 -1.4766
71155SOL     OW25189   2.495   7.792   7.237 -0.2785  0.0416 -0.1848
71155SOL    HW125190   2.564   7.829   7.292  0.4449 -0.0171 -1.0287
71155SOL    HW225191   2.518   7.700   7.228  1.0404  0.5166 -2.5854
71156SOL     OW25192   0.057   2.675  13.733 -0.3679  0.2457  0.9760
71156SOL    HW125193   0.129   2.612  13.728  0.2666  0.9964  0.1865
71156SOL    HW225194   0.045   2.690  13.827 -1.1555 -1.7068  1.2324
71157SOL     OW25195   9.872   1.307  11.137  0.4699  0.4695 -0.1460
71157SOL    HW125196   9.834   1.394  11.152 -0.1299  0.0892  0.6296
71157SOL    HW225197   9.922   1.316  11.056 -0.5677  1.2237 -0.7216
71158SOL     OW25198   2.383  10.698   9.091 -0.8175  0.0615  0.1576
71158SOL    HW125199   2.338  10.667   9.170 -0.2686 -2.6159 -0.5111
71158SOL    HW225200   2.469  10.727   9.123 -1.2462  0.6973  0.7676
71159SOL     OW25201  12.150  12.170   0.725  0.0826 -0.5699 -0.1006
71159SOL    HW125202  12.159  12.155   0.819 -0.1629 -2.8904 -0.3867
71159SOL    HW225203  12.240  12.180   0.694  0.1373  0.7528  0.4320
71160SOL     OW25204   5.307  11.331   9.085 -0.2658  0.4862  0.4272
71160SOL    HW125205   5.221  11.345   9.046  0.9155  2.5277 -1.6685
71160SOL    HW225206   5.354  11.278   9.021  0.8252  1.5160  0.3428
71161SOL     OW25207   0.486   1.076   8.548  0.0119 -0.4705 -0.3516
71161SOL    HW125208   0.419   1.104   8.485  0.1948  1.6072  0.3077
71161SOL    HW225209   0.500   0.983   8.528 -1.3336 -0.3583 -2.0699
71162SOL     OW25210   2.457   1.912   0.608  0.0191 -0.3837  0.0452
71162SOL    HW125211   2.544   1.951   0.614  0.4191 -1.2261 -0.0090
71162SOL    HW225212   2.399   1.985   0.588  0.6685  0.2408  0.3766
71163SOL     OW25213  12.965   7.482   5.969 -0.4554  0.0010 -0.7965
71163SOL    HW125214  12.939   7.474   6.061  0.6057 -1.5106 -0.5766
71163SOL    HW225215  12.985   7.574   5.957 -1.6317  0.4145  0.1854
71164SOL     OW25216   6.556   8.813   5.596  0.2293  0.1421 -0.0836
71164SOL    HW125217   6.474   8.863   5.596  0.2473  0.1834 -0.9274
71164SOL    HW225218   6.581   8.809   5.688  0.3684  1.9290 -0.0085
71165SOL     OW25219   1.208   0.344   5.978  0.3007  0.2913 -0.1356
71165SOL    HW125220   1.178   0.264   5.934  0.5415  0.3550 -0.4226
71165SOL    HW225221   1.174   0.415   5.923  0.3582  0.3782 -0.0580
71166SOL     OW25222  12.952   8.979   8.428  0.0074 -0.0785 -0.4653
71166SOL    HW125223  12.921   8.957   8.341 -0.3397 -2.3571  0.1865
71166SOL    HW225224  12.874   9.003   8.477  0.0822  0.2721 -0.5154
71167SOL     OW25225  13.665   3.527  12.808 -0.3650  0.1766  0.0298
71167SOL    HW125226  13.743   3.525  12.753  0.7453  0.0072  1.5169
71167SOL    HW225227  13.593   3.505  12.750  0.6420  0.6720 -1.4740
71168SOL     OW25228  10.180   6.333   6.291  0.4059 -0.0459  0.1459
71168SOL    HW125229  10.167   6.428   6.280 -0.5785 -0.2803 -0.9999
71168SOL    HW225230  10.122   6.294   6.226  1.9743 -1.4182 -0.5017
71169SOL     OW25231   6.634   6.953   1.056 -0.6065 -0.5614  0.3338
71169SOL    HW125232   6.605   7.044   1.061 -0.3962 -0.4331 -0.7200
71169SOL    HW225233   6.575   6.906   1.116 -0.9579  0.2028  0.5941
71170SOL     OW25234   2.126   0.644   1.746  0.6221  0.1575 -0.6099
71170SOL    HW125235   2.098   0.591   1.671  1.4895 -0.5874 -0.4328
71170SOL    HW225236   2.046   0.660   1.796  0.3971 -1.4266 -0.4128
71171SOL     OW25237  10.933  10.687  11.159 -0.4676 -0.5452 -0.4667
71171SOL    HW125238  11.009  10.732  11.123  0.2032 -1.6197 -0.4569
71171SOL    HW225239  10.878  10.669  11.083 -0.9449  0.6336 -0.4144
71172SOL     OW25240  10.935   6.589   6.330  0.1020 -0.5241 -0.3889
71172SOL    HW125241  11.023   6.626   6.331  0.5901 -1.6232  1.0739
71172SOL    HW225242  10.887   6.641   6.265  1.9524 -0.2181 -1.5650
71173SOL     OW25243   2.448  13.662   2.931 -0.9113  0.0969  0.7532
71173SOL    HW125244   2.502  13.587   2.904 -1.4291 -0.2003  0.5160
71173SOL    HW225245   2.367  13.651   2.881 -0.4458  1.6305 -0.4170
71174SOL     OW25246   8.934   4.813   2.643  0.1427 -0.1006 -0.2086
71174SOL    HW125247   8.926   4.908   2.632  0.8973 -0.1495 -1.4688
71174SOL    HW225248   8.909   4.778   2.557 -2.2100 -1.2029  0.8398
71175SOL     OW25249   4.600   5.729   9.671  0.5147 -0.0372 -0.1808
71175SOL    HW125250   4.653   5.733   9.750  0.1477  1.8476  0.0274
71175SOL    HW225251   4.637   5.797   9.614 -1.4670  1.1735 -0.1163
71176SOL     OW25252  13.054   7.658  10.228  0.0400  0.2024 -0.0387
71176SOL    HW125253  13.060   7.586  10.165  1.2183  0.4357 -0.2099
71176SOL    HW225254  13.134   7.709  10.214  0.5606  0.0142  1.9529
71177SOL     OW25255   1.236   7.792   8.286 -0.3533 -0.4923 -0.4412
71177SOL    HW125256   1.161   7.848   8.304  0.4184  0.8625 -1.2868
71177SOL    HW225257   1.261   7.757   8.371 -0.8999  0.3910  0.0970
71178SOL     OW25258  12.257   8.851   0.506 -0.1554  0.3255 -0.5722
71178SOL    HW125259  12.203   8.849   0.426 -0.5311 -2.4009 -0.3464
71178SOL    HW225260  12.288   8.761   0.516 -0.1045  0.5718  2.3600
71179SOL     OW25261  10.419  10.058  11.636 -0.3796  0.0951 -0.6900
71179SOL    HW125262  10.503  10.013  11.642 -0.7744 -1.0665 -2.8069
71179SOL    HW225263  10.439  10.145  11.601  0.1293  0.6570  0.9381
71180SOL     OW25264  11.160   7.727   1.104  0.1038  0.0760  0.6533
71180SOL    HW125265  11.182   7.799   1.163  0.2659  0.1845  0.4588
71180SOL    HW225266  11.217   7.739   1.028  0.4032 -0.4814  0.7907
71181SOL     OW25267   3.337   6.035   9.029  0.2155  0.3939 -0.2547
71181SOL    HW125268   3.369   6.051   8.940  1.7576 -0.3727  0.1303
71181SOL    HW225269   3.415   6.012   9.079 -0.3613  2.2764  1.6846
71182SOL     OW25270  10.551   8.939   7.957  0.2343  0.7091 -0.3412
71182SOL    HW125271  10.639   8.901   7.953 -0.7783 -1.7311 -1.8878
71182SOL    HW225272  10.542   8.969   8.048  1.7503 -1.3898  0.5941
71183SOL     OW25273   3.604   9.435   1.131 -0.0114  0.4802  0.0775
71183SOL    HW125274   3.556   9.514   1.105  2.6566  1.5612 -2.1242
71183SOL    HW225275   3.636   9.399   1.048  1.7227 -0.9296  1.2898
71184SOL     OW25276   6.024  11.974   0.417 -0.4994 -0.5733  0.0227
71184SOL    HW125277   6.102  12.029   0.411 -0.4524 -0.6309  0.0952
71184SOL    HW225278   6.058  11.885   0.416 -0.6790 -0.6467 -1.6946
71185SOL     OW25279  11.854   6.384   4.888  0.6755 -0.5582  0.0869
71185SOL    HW125280  11.894   6.451   4.944  1.0863 -1.3334  0.7527
71185SOL    HW225281  11.802   6.331   4.949 -0.6181 -0.1504 -0.6139
71186SOL     OW25282   0.161   5.968  12.785 -0.2187  0.5341  0.2920
71186SOL    HW125283   0.241   6.018  12.770 -0.8085  1.1530 -0.9970
71186SOL    HW225284   0.106   6.027  12.836 -1.0253  1.3780 -1.4710
71187SOL     OW25285   2.162  13.482   6.153  0.2451  0.2890 -0.0514
71187SOL    HW125286   2.124  13.559   6.196  0.3178 -0.5985  1.6563
71187SOL    HW225287   2.157  13.413   6.218  0.9139 -0.9676 -1.2876
71188SOL     OW25288   5.977   0.625  13.622  0.2799  0.8754  0.1583
71188SOL    HW125289   5.937   0.574  13.693  0.1721  0.7718  0.0234
71188SOL    HW225290   5.940   0.712  13.631 -1.3779  0.3486 -1.0534
71189SOL     OW25291   9.281   9.788  13.215  0.7516  0.0857 -0.1021
71189SOL    HW125292   9.236   9.723  13.161  0.7754 -0.3959  0.4384
71189SOL    HW225293   9.271   9.755  13.305 -0.7338  1.7226  0.3830
71190SOL     OW25294   6.199   4.357   7.895  0.1131 -0.5414  0.6899
71190SOL    HW125295   6.133   4.331   7.959 -1.3006 -0.0060 -0.5025
71190SOL    HW225296   6.156   4.425   7.843  1.2176 -0.9570 -0.8312
71191SOL     OW25297   8.890  12.159   7.443 -0.3356 -0.2922  0.2301
71191SOL    HW125298   8.949  12.121   7.378 -0.2450  1.5070 -0.8008
71191SOL    HW225299   8.803  12.145   7.407 -0.3544 -0.2263  0.2515
71192SOL     OW25300   7.224  11.693   2.803 -0.7968 -0.0868 -0.0150
71192SOL    HW125301   7.237  11.622   2.739 -0.2124 -0.2744  0.3000
71192SOL    HW225302   7.192  11.649   2.881 -3.4315  0.3592 -0.7438
71193SOL     OW25303   5.750   3.903  10.754  0.6302 -0.1708 -0.3397
71193SOL    HW125304   5.741   3.968  10.685  0.6292 -1.9593 -2.1036
71193SOL    HW225305   5.661   3.874  10.771  0.2993  1.9733  2.2716
71194SOL     OW25306   7.790   8.408  12.344 -0.3400 -0.2691 -0.3193
71194SOL    HW125307   7.864   8.388  12.288 -0.8857 -1.3847 -0.6868
71194SOL    HW225308   7.716   8.417  12.284 -1.2871 -3.1739  0.2183
71195SOL     OW25309   2.953  13.591   1.306 -0.5389 -0.5175 -0.1021
71195SOL    HW125310   2.904  13.639   1.239  0.1879 -1.4113 -1.3426
71195SOL    HW225311   3.035  13.567   1.262 -0.1055 -1.2579  1.0729
71196SOL     OW25312   9.040   9.261   6.209 -0.1042  0.2968  0.2680
71196SOL    HW125313   9.115   9.263   6.150  0.3042  0.1489  0.7754
71196SOL    HW225314   9.074   9.292   6.293  0.0380 -2.1074  1.1936
71197SOL     OW25315   6.127  12.028   0.798  0.3476  0.0751 -0.2435
71197SOL    HW125316   6.038  12.008   0.769 -0.3910  1.8123  0.6889
71197SOL    HW225317   6.158  11.947   0.838 -0.5002 -0.7869 -1.2831
71198SOL     OW25318  12.095   6.663   9.204 -0.0562 -0.2626  0.0918
71198SOL    HW125319  12.177   6.615   9.214  0.4871  0.5885 -0.1261
71198SOL    HW225320  12.094   6.690   9.112  0.7636  2.0133  0.6660
71199SOL     OW25321   2.749   1.572   3.508 -0.6081  0.5582  0.1870
71199SOL    HW125322   2.835   1.611   3.493  0.3291 -0.7356  1.8949
71199SOL    HW225323   2.757   1.528   3.592 -2.7256 -0.2367  0.0250
71200SOL     OW25324  13.456   5.658  11.963 -0.6447  0.1376 -0.2931
71200SOL    HW125325  13.497   5.647  11.877 -0.0461 -0.8510  0.1095
71200SOL    HW225326  13.437   5.752  11.968  1.7343  0.6969 -0.4199
71201SOL     OW25327  10.252   8.223  13.267 -0.3192  0.0164 -0.6048
71201SOL    HW125328  10.165   8.200  13.299 -0.9897  1.1913 -1.4748
71201SOL    HW225329  10.257   8.184  13.180  0.8489 -1.7690  0.2116
71202SOL     OW25330   5.852   7.500  10.113  0.1766  0.0129  0.0417
71202SOL    HW125331   5.918   7.549  10.064 -0.0368  1.0977  0.7922
71202SOL    HW225332   5.814   7.565  10.173 -0.0734 -1.0871  1.1182
71203SOL     OW25333   3.559   7.603   1.007 -0.1130 -0.3810  0.4974
71203SOL    HW125334   3.612   7.588   1.085  0.8155 -0.8841 -0.2137
71203SOL    HW225335   3.578   7.694   0.983 -1.9564  0.4810  1.9720
71204SOL     OW25336  12.137   9.173   2.925 -0.2688 -0.2625 -0.2676
71204SOL    HW125337  12.162   9.081   2.928 -1.1264 -0.5009 -0.3191
71204SOL    HW225338  12.069   9.178   2.858 -0.6816  0.2914  0.1748
71205SOL     OW25339   0.691   8.846  10.296  0.3298 -0.0575  0.0365
71205SOL    HW125340   0.653   8.916  10.350 -1.0647 -1.4755  1.0064
71205SOL    HW225341   0.682   8.877  10.206 -1.0207  0.6739  0.3933
71206SOL     OW25342   1.085   2.239   4.333  0.2162  0.2697  0.2503
71206SOL    HW125343   1.084   2.220   4.239 -0.2868  0.2066  0.2702
71206SOL    HW225344   1.165   2.196   4.364 -0.3906 -1.0083  0.1164
71207SOL     OW25345   2.557  11.001   0.724  0.4138  0.0439 -0.3196
71207SOL    HW125346   2.550  10.906   0.732 -0.0232  0.1193  0.3538
71207SOL    HW225347   2.475  11.034   0.761 -0.8583  0.5980 -3.3404
71208SOL     OW25348   8.659   1.001   5.212  0.2520  0.1808  0.3124
71208SOL    HW125349   8.696   0.940   5.276  0.0803 -1.0589 -0.7378
71208SOL    HW225350   8.567   1.009   5.237  0.0135 -0.8607 -0.1722
71209SOL     OW25351   0.231   2.070   5.488  0.2924 -0.6061  0.0983
71209SOL    HW125352   0.257   2.023   5.409  0.7557 -0.3194  0.0766
71209SOL    HW225353   0.180   2.144   5.456  1.7454  0.3797 -0.0573
71210SOL     OW25354   6.870   3.799  12.631  0.2630  0.1324 -0.5980
71210SOL    HW125355   6.957   3.832  12.612 -0.2531  0.9115 -1.6969
71210SOL    HW225356   6.854   3.822  12.723  1.5419 -0.8318 -0.0974
71211SOL     OW25357   8.904   5.756   8.059 -0.1896 -0.3448 -0.2131
71211SOL    HW125358   8.871   5.764   8.148 -0.4273  1.3132 -0.4107
71211SOL    HW225359   8.890   5.843   8.020  1.4928 -0.5022 -1.3055
71212SOL     OW25360   5.038   1.111  11.790 -0.5603  0.1135  0.4807
71212SOL    HW125361   5.119   1.157  11.813 -0.8546 -0.4262  2.7606
71212SOL    HW225362   5.061   1.061  11.711  1.4570 -0.3691  1.3080
71213SOL     OW25363  12.729  12.828   9.003  0.2188  0.2012  0.3279
71213SOL    HW125364  12.727  12.766   9.076  0.3314  1.8895  1.8172
71213SOL    HW225365  12.808  12.803   8.954  0.3056 -0.7729  0.9294
71214SOL     OW25366   5.967   1.687  10.176  0.1787  0.2355 -0.2797
71214SOL    HW125367   6.018   1.610  10.200 -0.1382 -0.0563 -0.5318
71214SOL    HW225368   5.940   1.726  10.260 -0.3336 -0.3793 -0.1536
71215SOL     OW25369  13.544  11.431   5.659  0.1722  0.0940 -0.5656
71215SOL    HW125370  13.520  11.500   5.721  1.4064  0.1998 -0.1777
71215SOL    HW225371  13.599  11.475   5.594 -1.4565  0.0790 -2.0244
71216SOL     OW25372   3.546  10.205   9.933  0.5275  0.4260  0.1007
71216SOL    HW125373   3.582  10.135   9.988 -2.9473 -0.3094  1.7510
71216SOL    HW225374   3.482  10.161   9.877  0.9202  1.8175 -1.5130
71217SOL     OW25375  11.083  11.941   6.192  0.2571  0.2524  0.1329
71217SOL    HW125376  11.037  11.867   6.232  0.4989  1.1525  2.2043
71217SOL    HW225377  11.175  11.918   6.197  0.3523  0.7779  1.0385
71218SOL     OW25378   5.702   4.186   7.831  0.2923  0.5758 -0.2043
71218SOL    HW125379   5.712   4.263   7.888  2.9439 -0.5679  1.0360
71218SOL    HW225380   5.771   4.195   7.766 -0.5941  0.1560 -1.2322
71219SOL     OW25381   3.255   1.725   9.103  0.1549  0.1693 -0.2781
71219SOL    HW125382   3.212   1.660   9.158 -0.4413 -0.1290 -1.0840
71219SOL    HW225383   3.203   1.805   9.115  0.1428  0.1588 -0.2600
71220SOL     OW25384   0.335  10.127   2.429  0.1414 -0.0187  0.2295
71220SOL    HW125385   0.420  10.141   2.388  1.2984  0.2756  2.5642
71220SOL    HW225386   0.346  10.048   2.482 -0.8196  0.3867  1.0695
71221SOL     OW25387   6.936   8.787   7.534 -0.2196 -0.0861  0.0423
71221SOL    HW125388   6.874   8.802   7.605 -0.4805 -0.5895 -0.0696
71221SOL    HW225389   6.997   8.722   7.569 -1.9808 -2.5289 -1.0768
71222SOL     OW25390  12.263   8.262  13.162  0.3064 -0.2537 -0.3831
71222SOL    HW125391  12.336   8.298  13.214 -1.3829  1.0272  1.2351
71222SOL    HW225392  12.247   8.329  13.095  0.0839 -0.1203 -0.2000
71223SOL     OW25393   1.332  13.639   4.735  0.5589 -0.0166 -0.2592
71223SOL    HW125394   1.333  13.603   4.823  0.8569 -0.8698 -0.6043
71223SOL    HW225395   1.409  13.696   4.731  0.5813 -0.0279  0.0075
71224SOL     OW25396   6.390  12.071  12.743 -0.1607 -0.5940 -0.5627
71224SOL    HW125397   6.339  12.011  12.798 -3.9786  1.4473 -1.5839
71224SOL    HW225398   6.386  12.032  12.655  1.8388 -1.3865 -0.3588
71225SOL     OW25399   5.455   1.160   2.036  0.3018  0.3065 -0.3158
71225SOL    HW125400   5.431   1.163   1.944 -0.3170  0.5958 -0.1495
71225SOL    HW225401   5.420   1.241   2.073  1.2137  0.5627  0.0190
71226SOL     OW25402   2.232  13.258  11.773 -0.0027  0.0993  0.4190
71226SOL    HW125403   2.327  13.263  11.759 -0.0323 -1.2244 -0.4159
71226SOL    HW225404   2.212  13.336  11.825  1.3873  0.9426 -0.2210
71227SOL     OW25405   7.667  13.247   2.402 -0.2905  0.0422  0.0310
71227SOL    HW125406   7.683  13.283   2.489 -0.2841 -0.1559  0.1111
71227SOL    HW225407   7.618  13.316   2.356  0.1304  0.3462  0.0316
71228SOL     OW25408   1.392   8.472   3.696  0.2796 -0.6074  0.0144
71228SOL    HW125409   1.437   8.390   3.675 -0.2506 -1.1522  0.9486
71228SOL    HW225410   1.330   8.449   3.765 -0.7218  0.3377 -0.5300
71229SOL     OW25411   6.852   4.820   4.402  0.1083  0.4118 -0.2447
71229SOL    HW125412   6.853   4.896   4.344 -1.1976  0.1460 -0.6515
71229SOL    HW225413   6.828   4.747   4.345  1.7336 -0.4139  0.0544
71230SOL     OW25414   0.190   7.666  10.351  0.5560 -0.4987  0.3403
71230SOL    HW125415   0.247   7.742  10.343 -0.7892  0.6868  1.4099
71230SOL    HW225416   0.115   7.686  10.295  1.2389 -2.1752 -1.2955
71231SOL     OW25417   1.772   5.497  12.666 -0.1647  0.5073  0.2921
71231SOL    HW125418   1.748   5.585  12.637 -1.4073  0.7166  1.7563
71231SOL    HW225419   1.798   5.509  12.757 -2.1752 -0.8302  1.1265
71232SOL     OW25420   6.458   5.156   6.623  0.4401 -0.1825 -0.4354
71232SOL    HW125421   6.399   5.208   6.568  0.5229 -1.0413 -1.3548
71232SOL    HW225422   6.539   5.151   6.573  1.1335  0.5114  0.5723
71233SOL     OW25423   4.759   2.618  11.665 -0.1357  0.2839 -0.0032
71233SOL    HW125424   4.671   2.583  11.674  0.1900 -0.5005  0.1871
71233SOL    HW225425   4.755   2.703  11.709 -0.2555 -0.6573  1.9203
71234SOL     OW25426   4.461   6.239  11.923  0.3712 -0.1283 -0.3505
71234SOL    HW125427   4.454   6.237  11.828  1.6168 -1.8124 -0.4647
71234SOL    HW225428   4.478   6.147  11.947  0.5928  0.3451  1.4412
71235SOL     OW25429   8.638   8.996   0.984  1.0798 -0.0136  0.0678
71235SOL    HW125430   8.697   9.015   0.911  0.9600 -1.1846 -0.3621
71235SOL    HW225431   8.678   8.921   1.029  0.3472 -0.3108  0.2527
71236SOL     OW25432   2.817   7.920   7.190  0.4326 -0.9534 -0.1649
71236SOL    HW125433   2.861   7.869   7.258  0.3060 -2.1335 -0.9375
71236SOL    HW225434   2.833   7.872   7.109 -0.7432 -0.4351 -0.7437
71237SOL     OW25435  11.658  12.221   0.572  0.0743 -0.3504 -0.1972
71237SOL    HW125436  11.582  12.172   0.606  0.0409 -0.3243 -0.2341
71237SOL    HW225437  11.649  12.308   0.611 -0.6158  0.0498 -1.1892
71238SOL     OW25438   0.680   1.983  10.045  0.2161  0.6826 -0.9292
71238SOL    HW125439   0.621   2.053  10.072 -0.1991 -0.0455  0.0885
71238SOL    HW225440   0.623   1.910  10.022  0.6951 -0.4561  1.2514
71239SOL     OW25441  10.882   1.474   4.139 -0.0216 -0.5380 -0.1182
71239SOL    HW125442  10.904   1.395   4.091 -0.0078 -0.9866  0.6032
71239SOL    HW225443  10.831   1.526   4.077 -0.8588 -1.5377 -0.3080
71240SOL     OW25444   0.350   6.160  10.434 -0.0556 -0.5048 -0.8606
71240SOL    HW125445   0.336   6.179  10.341  0.3387  0.5979 -0.7119
71240SOL    HW225446   0.443   6.172  10.447  0.0114 -1.3795 -0.4582
71241SOL     OW25447   6.532   0.235  11.114 -0.7630 -0.1480  0.0726
71241SOL    HW125448   6.528   0.152  11.066 -0.9940 -0.4825  0.6662
71241SOL    HW225449   6.525   0.302  11.046 -0.3870 -0.6082 -0.4313
71242SOL     OW25450   5.728  12.296   5.460  0.5521 -0.9838  0.3444
71242SOL    HW125451   5.778  12.229   5.414  0.0233 -1.1671  0.0259
71242SOL    HW225452   5.794  12.347   5.507  1.2398 -0.1170 -1.4803
71243SOL     OW25453  11.983   8.703   8.018 -0.0335  0.3020  0.1217
71243SOL    HW125454  12.018   8.729   8.103  0.7288 -0.0621 -0.0695
71243SOL    HW225455  11.938   8.620   8.035  0.1220  0.2272  0.1630
71244SOL     OW25456  12.999  13.139   2.692  0.0637 -0.6556 -0.3582
71244SOL    HW125457  13.086  13.101   2.681  0.1958 -0.1442 -1.1904
71244SOL    HW225458  12.945  13.066   2.722  0.9245 -0.8046  0.9234
71245SOL     OW25459  13.285   6.029   3.728  0.2021  0.3591 -0.0010
71245SOL    HW125460  13.337   5.967   3.780 -1.6629 -0.4697  0.9554
71245SOL    HW225461  13.308   6.009   3.637 -1.3543 -2.8165  0.1705
71246SOL     OW25462   8.210  11.294  12.219  0.1074 -0.0894  0.5371
71246SOL    HW125463   8.292  11.254  12.251  0.9612  0.6574 -0.6329
71246SOL    HW225464   8.179  11.232  12.153 -0.6828 -0.7283  1.4792
71247SOL     OW25465   6.654  11.702   8.591  0.0263  0.2522  0.2456
71247SOL    HW125466   6.639  11.776   8.650 -0.1622 -0.3723  1.0002
71247SOL    HW225467   6.745  11.712   8.562 -0.9461  2.6767 -2.3914
71248SOL     OW25468  13.680   6.227   6.150 -0.4105  0.6920 -0.0314
71248SOL    HW125469  13.729   6.164   6.098 -1.1182  0.1862 -0.1069
71248SOL    HW225470  13.595   6.185   6.164 -0.3372  0.9381  1.2832
71249SOL     OW25471   4.844  10.251   3.217 -0.2879  0.2774  0.2072
71249SOL    HW125472   4.872  10.308   3.146 -1.3978  0.5558 -0.0144
71249SOL    HW225473   4.920  10.247   3.276  1.7216 -2.0915 -2.2416
71250SOL     OW25474   5.777   6.255   8.353 -0.2708 -0.3243 -0.0308
71250SOL    HW125475   5.863   6.245   8.313 -0.9684 -0.9081 -1.4663
71250SOL    HW225476   5.794   6.253   8.448  1.1130 -2.1369 -0.2604
71251SOL     OW25477   1.389   6.240   1.203 -0.2195 -0.2465 -0.0677
71251SOL    HW125478   1.317   6.298   1.228  1.4829  1.0015  2.3447
71251SOL    HW225479   1.430   6.285   1.129  1.4397  2.1400  2.1360
71252SOL     OW25480   5.531   0.694   3.983  0.0746 -0.0754 -0.1561
71252SOL    HW125481   5.507   0.648   4.063 -0.3381 -0.5568 -0.5461
71252SOL    HW225482   5.448   0.710   3.938  0.3772 -0.6977 -0.9614
71253SOL     OW25483   2.827  10.000  11.522  0.4975  0.4696 -1.0581
71253SOL    HW125484   2.739   9.992  11.485  1.1604 -0.2303 -2.5190
71253SOL    HW225485   2.833  10.092  11.549 -1.1707  0.2021  0.3939
71254SOL     OW25486   6.650   6.835   6.592 -0.6728 -0.0292  0.0012
71254SOL    HW125487   6.679   6.887   6.667  0.4963 -2.6386  1.4756
71254SOL    HW225488   6.731   6.810   6.548 -1.1707 -0.9009 -0.4482
71255SOL     OW25489   2.532   5.615  12.435 -0.3467 -0.7819 -0.3085
71255SOL    HW125490   2.510   5.531  12.395 -3.3836  0.7421 -2.2071
71255SOL    HW225491   2.457   5.672  12.415  1.1973  2.1782  1.5658
71256SOL     OW25492   3.422   8.595   5.636  0.3015  0.0924 -0.0832
71256SOL    HW125493   3.427   8.634   5.723  1.8479 -1.0273  0.3816
71256SOL    HW225494   3.503   8.545   5.628 -0.3891 -0.8440 -1.6805
71257SOL     OW25495   6.850   2.415  12.429 -0.4048 -0.0074 -0.0602
71257SOL    HW125496   6.779   2.479  12.416 -1.5471 -0.8214  1.7565
71257SOL    HW225497   6.907   2.454  12.495  1.0573  0.7585 -1.7020
71258SOL     OW25498  13.138   6.808   0.869 -0.1851 -0.2945  0.3567
71258SOL    HW125499  13.168   6.806   0.960  0.7871  1.1723  0.1128
71258SOL    HW225500  13.148   6.718   0.839  0.7325 -0.5422  1.3268
71259SOL     OW25501   0.379  12.183   5.009 -0.2791 -0.4199  0.2373
71259SOL    HW125502   0.355  12.091   4.997  0.9819 -0.8977  1.1569
71259SOL    HW225503   0.397  12.192   5.103  0.2758  0.5978  0.0564
71260SOL     OW25504   5.107   0.028   0.065  0.1018 -0.0313 -0.7318
71260SOL    HW125505   5.085  -0.061   0.092  1.7406 -0.9865 -2.3428
71260SOL    HW225506   5.176   0.055   0.127 -0.4125  0.1376 -0.2279
71261SOL     OW25507   6.070   2.249   5.695 -0.6310  0.2353  0.4791
71261SOL    HW125508   6.050   2.224   5.785  2.7694  1.1482  1.6431
71261SOL    HW225509   6.161   2.223   5.683 -0.4942  1.6074 -2.1637
71262SOL     OW25510  11.425   7.215   1.525  0.1243 -0.2471  0.3913
71262SOL    HW125511  11.486   7.267   1.576 -0.6514 -0.1810  1.2636
71262SOL    HW225512  11.416   7.262   1.442  1.3032 -0.3024  0.2123
71263SOL     OW25513  11.389   8.078  11.182  0.5075 -0.3857 -0.0487
71263SOL    HW125514  11.392   8.103  11.090 -0.7609 -2.5273 -0.7499
71263SOL    HW225515  11.461   8.016  11.193  0.1311 -0.7940  0.1622
71264SOL     OW25516   6.991   0.883  10.480 -0.0830 -0.3399 -0.4610
71264SOL    HW125517   7.030   0.845  10.558 -1.3905 -0.8324 -0.0071
71264SOL    HW225518   7.064   0.921  10.432  0.6919  0.4021  1.2353
71265SOL     OW25519  10.191   9.546   3.938  0.1297  0.6428 -1.0151
71265SOL    HW125520  10.133   9.581   4.006  0.1802  1.8252 -1.5501
71265SOL    HW225521  10.264   9.608   3.935  0.7877 -0.1200 -1.2431
71266SOL     OW25522  10.851  12.749   3.918  0.2690  0.3283  0.6350
71266SOL    HW125523  10.842  12.682   3.986  0.2453 -0.9688 -0.5892
71266SOL    HW225524  10.825  12.830   3.961  1.3335 -0.2431  2.4817
71267SOL     OW25525   0.983  10.061  13.364 -0.2144  0.2105  0.1863
71267SOL    HW125526   0.943  10.020  13.440  0.4572 -0.4818  0.1750
71267SOL    HW225527   1.068  10.018  13.355 -0.3932  0.0855 -1.1225
71268SOL     OW25528   7.029  11.158   3.499 -0.0825  0.5541 -0.1155
71268SOL    HW125529   7.118  11.129   3.518 -0.3207 -0.3352 -0.3050
71268SOL    HW225530   6.998  11.099   3.430 -1.2295  0.0837  0.7649
71269SOL     OW25531  11.516   1.222   4.499 -0.5737  0.2435 -0.5311
71269SOL    HW125532  11.426   1.194   4.481 -0.5397 -1.5824  1.6381
71269SOL    HW225533  11.521   1.228   4.594  1.0389  2.5066 -0.6850
71270SOL     OW25534  10.293  10.702   6.229 -0.0293 -0.7676 -0.1518
71270SOL    HW125535  10.359  10.755   6.273 -0.1932 -0.3131 -0.4518
71270SOL    HW225536  10.279  10.627   6.287  1.4498 -1.3761 -0.5367
71271SOL     OW25537  12.028   3.231   3.710  0.2419 -0.4287  0.0352
71271SOL    HW125538  11.982   3.147   3.720  0.3016 -0.7571 -2.0767
71271SOL    HW225539  12.111   3.218   3.755 -0.1483 -1.1568  0.5817
71272SOL     OW25540  12.637   9.765  11.992 -0.5727 -0.8965 -0.0792
71272SOL    HW125541  12.698   9.732  11.925 -0.6621 -1.5447  0.1479
71272SOL    HW225542  12.590   9.836  11.949  0.3828 -0.3516 -0.2404
71273SOL     OW25543   8.959   8.677   4.714  0.0825 -0.2723  0.3719
71273SOL    HW125544   8.971   8.591   4.675 -0.1936  0.4778 -1.4743
71273SOL    HW225545   9.033   8.687   4.773 -0.3239 -2.0845  1.2447
71274SOL     OW25546   1.384   1.670  13.105 -0.1946  0.2580  0.1753
71274SOL    HW125547   1.472   1.633  13.110 -0.9287 -1.9874 -1.8501
71274SOL    HW225548   1.365   1.697  13.195  1.9846 -0.5350  0.9531
71275SOL     OW25549   4.588   3.385   8.881 -0.4218  0.3573  0.5763
71275SOL    HW125550   4.515   3.383   8.943 -0.0157  0.7275  1.0736
71275SOL    HW225551   4.553   3.345   8.802 -0.9751 -0.0543  1.0168
71276SOL     OW25552   0.887   5.971   3.599 -0.3023 -0.5401 -0.0423
71276SOL    HW125553   0.898   5.996   3.508  0.2846 -0.7873 -0.0435
71276SOL    HW225554   0.839   5.888   3.596 -0.0410 -0.6871 -0.1363
71277SOL     OW25555   2.670   5.004  13.119  0.0926 -1.0131  0.0152
71277SOL    HW125556   2.584   4.963  13.117  0.2614 -1.3286 -1.4773
71277SOL    HW225557   2.719   4.961  13.049  1.3836 -0.6559  0.6685
71278SOL     OW25558   7.363  10.619   0.199 -0.3246 -0.0526  0.0306
71278SOL    HW125559   7.318  10.624   0.115  2.1485 -0.0498 -1.3908
71278SOL    HW225560   7.429  10.689   0.195  0.6306 -0.8243  1.4602
71279SOL     OW25561  11.845   2.654   9.149  0.0702  0.1603 -0.1407
71279SOL    HW125562  11.795   2.639   9.069  0.9882 -0.4126 -0.6312
71279SOL    HW225563  11.903   2.728   9.127  2.0778 -1.5335 -0.9038
71280SOL     OW25564   4.233  12.144   2.349 -0.2766 -0.1951 -0.0668
71280SOL    HW125565   4.201  12.141   2.260  0.5194  0.1892 -0.3797
71280SOL    HW225566   4.214  12.058   2.385 -0.0391 -0.5645 -0.8100
71281SOL     OW25567   5.062   0.430   9.562 -0.0933 -0.1967 -0.4017
71281SOL    HW125568   4.975   0.439   9.601 -0.0702  2.1724 -0.7809
71281SOL    HW225569   5.118   0.405   9.636 -0.5335  1.5471  0.5717
71282SOL     OW25570  10.990   1.506   2.078 -0.0714  0.1460  0.2431
71282SOL    HW125571  11.085   1.500   2.083 -0.1587 -0.8152  1.0288
71282SOL    HW225572  10.959   1.454   2.152 -1.2242 -0.2013 -0.4633
71283SOL     OW25573  13.723  13.381  13.308  0.0761  0.1345  0.8713
71283SOL    HW125574  13.762  13.394  13.221 -2.1125  0.2828 -0.1842
71283SOL    HW225575  13.790  13.336  13.359  0.6299 -2.0884 -1.6179
71284SOL     OW25576   7.799   6.771   5.937  0.3157  0.0821 -0.2709
71284SOL    HW125577   7.882   6.746   5.895  0.5269  1.2802 -0.6273
71284SOL    HW225578   7.741   6.792   5.863 -0.1666 -0.3152 -0.0103
71285SOL     OW25579   2.239   9.047  10.828 -0.3503  0.3740  0.1400
71285SOL    HW125580   2.221   9.139  10.845 -1.8563  0.0000  0.6857
71285SOL    HW225581   2.335   9.042  10.827 -0.2378  1.8434  0.6060
71286SOL     OW25582   4.093  10.017   9.598  0.0560  0.1131  0.4808
71286SOL    HW125583   4.087  10.032   9.504  0.6163  1.1943  0.5962
71286SOL    HW225584   4.101   9.923   9.607 -0.1230 -0.0115 -0.5495
71287SOL     OW25585   2.629   3.115   2.958 -0.3839  0.2949 -0.3355
71287SOL    HW125586   2.701   3.117   2.895 -0.3829 -0.2675 -0.3555
71287SOL    HW225587   2.552   3.092   2.907 -0.0319 -2.3020  0.1570
71288SOL     OW25588  11.583   0.764   6.716 -0.1884  0.2021 -0.3663
71288SOL    HW125589  11.580   0.671   6.738  1.8242  0.7706  2.9890
71288SOL    HW225590  11.671   0.778   6.683  0.4115  1.2545  1.5242
71289SOL     OW25591  10.934   7.128   3.933 -0.4195 -0.2442 -0.2556
71289SOL    HW125592  11.000   7.094   3.994 -1.0580 -1.5106 -0.2393
71289SOL    HW225593  10.984   7.180   3.871  0.5112 -0.5792  0.1888
71290SOL     OW25594   8.337   6.112   5.743 -0.0710 -0.1454 -0.6974
71290SOL    HW125595   8.365   6.082   5.656  0.1560 -3.2722  0.3156
71290SOL    HW225596   8.418   6.120   5.793 -0.2795  0.5776 -0.4642
71291SOL     OW25597  11.537   0.073   5.988  0.1311  0.0269  0.2581
71291SOL    HW125598  11.604   0.031   6.041 -0.4415  0.4943  1.3829
71291SOL    HW225599  11.473   0.003   5.970  0.9428 -0.4505 -0.9214
71292SOL     OW25600   5.588  11.084   1.216  0.0809 -0.3419 -0.0854
71292SOL    HW125601   5.506  11.053   1.179 -0.1884 -0.2039  0.3906
71292SOL    HW225602   5.652  11.071   1.146 -0.1865 -1.1765 -0.1892
71293SOL     OW25603  13.575   5.827   9.342 -0.2668 -0.2192  0.3150
71293SOL    HW125604  13.575   5.897   9.276  1.6627 -0.4005  0.0620
71293SOL    HW225605  13.498   5.774   9.321 -0.1447  0.1974 -1.2863
71294SOL     OW25606  10.766   6.923  11.549 -0.0450 -0.2540  0.4723
71294SOL    HW125607  10.824   6.954  11.619  0.0963  2.4194 -0.6938
71294SOL    HW225608  10.699   6.873  11.595 -0.6007  2.3102  2.7623
71295SOL     OW25609   8.657   0.643   3.671 -0.8323  0.6223  0.1035
71295SOL    HW125610   8.590   0.704   3.702 -1.7468  0.3116 -1.1654
71295SOL    HW225611   8.643   0.564   3.723 -1.9033  0.3403 -0.5611
71296SOL     OW25612   4.704   4.419  11.027  0.0777  0.6443  0.1721
71296SOL    HW125613   4.748   4.400  11.110 -0.4873  0.3624  0.4098
71296SOL    HW225614   4.764   4.385  10.960  1.0033  1.7520  0.4016
71297SOL     OW25615   3.991  12.999   7.848  0.0655  0.4350  0.2861
71297SOL    HW125616   4.086  12.989   7.844  0.1745  1.7696 -1.3623
71297SOL    HW225617   3.977  13.062   7.919  0.4138  0.3230  0.4567
71298SOL     OW25618   2.539   3.616  10.654  0.0796  0.2623  0.6206
71298SOL    HW125619   2.606   3.654  10.598  1.4919 -1.3909  1.0950
71298SOL    HW225620   2.474   3.685  10.664  1.4554  1.7594 -0.2778
71299SOL     OW25621   2.244   5.874   6.540 -0.5603  0.1104  0.2365
71299SOL    HW125622   2.317   5.915   6.587 -0.5337  0.8647 -0.4331
71299SOL    HW225623   2.263   5.891   6.448  0.2267 -2.7295 -0.2023
71300SOL     OW25624   3.225  11.538  12.196 -0.0024  0.0403 -0.7349
71300SOL    HW125625   3.168  11.503  12.128 -1.1402  1.3621 -0.4953
71300SOL    HW225626   3.283  11.599  12.150  1.2374 -1.2480 -0.9670
71301SOL     OW25627   6.606  12.900   7.889  0.1860  0.5388  0.3936
71301SOL    HW125628   6.590  12.920   7.797 -1.3046  0.1213  0.5286
71301SOL    HW225629   6.581  12.808   7.898 -2.2128  1.2430  1.7198
71302SOL     OW25630   3.944   9.759  11.710 -0.3305 -0.0507  0.4961
71302SOL    HW125631   4.036   9.775  11.731 -0.1829 -2.2692  1.9713
71302SOL    HW225632   3.903   9.738  11.794 -2.0449  0.1893 -0.2265
71303SOL     OW25633   1.598  10.554  10.930  0.8024 -0.0513 -0.1018
71303SOL    HW125634   1.519  10.586  10.973 -0.3484 -0.5571 -1.7631
71303SOL    HW225635   1.656  10.528  11.003 -1.2665 -1.3989  1.1478
71304SOL     OW25636   6.228   7.507   7.596  0.4602  0.5632  0.5393
71304SOL    HW125637   6.273   7.589   7.574  1.6336  0.0919  1.1052
71304SOL    HW225638   6.152   7.505   7.538  1.1312  1.4182 -0.4010
71305SOL     OW25639   5.368   5.839  10.930  0.0444  0.1480 -1.2610
71305SOL    HW125640   5.357   5.918  10.878 -0.6462  2.0844  1.5954
71305SOL    HW225641   5.457   5.845  10.964  0.1140 -0.5088 -1.3213
71306SOL     OW25642   9.736   6.574   7.627  0.0426 -0.6063 -0.2345
71306SOL    HW125643   9.814   6.531   7.661  0.1662 -0.4657 -0.3356
71306SOL    HW225644   9.755   6.667   7.636 -0.7385 -0.5662  1.1479
71307SOL     OW25645   0.852   7.788   9.726 -0.4483  0.2897 -0.3467
71307SOL    HW125646   0.792   7.715   9.742 -1.1863  1.0733  0.5822
71307SOL    HW225647   0.886   7.772   9.638  0.1857 -1.7019  0.2106
71308SOL     OW25648   8.421   2.830  10.188  0.2413  0.7027  0.2906
71308SOL    HW125649   8.506   2.843  10.146  0.3464  0.2104  0.3489
71308SOL    HW225650   8.438   2.763  10.255 -0.4525 -0.2884 -0.4995
71309SOL     OW25651   0.368   3.306   3.707 -0.2903  0.2927  0.0815
71309SOL    HW125652   0.330   3.326   3.792 -0.8309 -1.9355  0.4443
71309SOL    HW225653   0.454   3.267   3.727 -1.6892 -3.2727 -0.0157
71310SOL     OW25654  13.690   6.852   5.340 -0.0099  0.9874  0.4756
71310SOL    HW125655  13.596   6.833   5.347 -0.0588  1.0011 -0.1002
71310SOL    HW225656  13.733   6.774   5.374 -0.2276  0.9239  0.6061
71311SOL     OW25657  10.531   2.065   2.833 -0.3034  0.2668 -0.2855
71311SOL    HW125658  10.482   1.987   2.809  0.6809 -0.2241 -0.7785
71311SOL    HW225659  10.620   2.049   2.800 -0.1480  1.7021 -0.6566
71312SOL     OW25660   3.138  11.154  11.931  1.1959 -0.0438 -0.5470
71312SOL    HW125661   3.197  11.176  11.859  0.5658  0.9397 -0.7749
71312SOL    HW225662   3.110  11.064  11.912  1.5876 -0.0397 -1.1508
71313SOL     OW25663  10.816   9.352  12.565 -0.9782 -0.5404  0.7564
71313SOL    HW125664  10.887   9.343  12.628 -1.0188 -0.2919  0.8395
71313SOL    HW225665  10.847   9.304  12.488  0.1914  1.2713  0.0306
71314SOL     OW25666   7.849   2.459   2.175 -0.0079 -0.2737  0.1633
71314SOL    HW125667   7.890   2.419   2.098  0.4920 -0.0819  0.3267
71314SOL    HW225668   7.830   2.549   2.149  2.0267  0.4203  0.9055
71315SOL     OW25669  13.442   7.988   8.044  0.1206 -0.4696  0.5412
71315SOL    HW125670  13.458   7.960   7.954  0.0353 -0.0384  0.3855
71315SOL    HW225671  13.402   7.912   8.086  2.7506 -1.6645  1.0297
71316SOL     OW25672  10.779   8.327   8.631 -0.0055 -0.7946 -0.1960
71316SOL    HW125673  10.843   8.340   8.701 -0.9476  0.3424  0.4906
71316SOL    HW225674  10.831   8.302   8.555  1.3941  1.1661  0.0408
71317SOL     OW25675   7.970   9.816   0.378  0.6839 -0.2857  0.1088
71317SOL    HW125676   7.992   9.724   0.366  1.2060 -0.2037  0.4117
71317SOL    HW225677   7.946   9.847   0.291 -2.2772 -1.4077  0.4245
71318SOL     OW25678   7.954   5.120  11.037  0.3609 -0.6474 -0.4810
71318SOL    HW125679   7.898   5.107  10.960  0.9863 -1.4095 -0.8334
71318SOL    HW225680   7.916   5.063  11.104 -1.0157  1.0718  0.2606
71319SOL     OW25681   4.280   9.817  10.597  0.5918 -0.3854  0.0043
71319SOL    HW125682   4.234   9.864  10.668 -2.8289 -0.8007 -1.7203
71319SOL    HW225683   4.295   9.730  10.633 -0.7227 -0.4734  0.4152
71320SOL     OW25684  12.752   8.228   5.539  0.0456 -0.5549 -0.5330
71320SOL    HW125685  12.793   8.142   5.543 -0.8768 -1.1666 -2.6878
71320SOL    HW225686  12.663   8.211   5.507 -0.0972  1.2100 -1.2205
71321SOL     OW25687  13.074   2.751  10.899 -0.1276  0.0287 -0.2287
71321SOL    HW125688  13.038   2.682  10.844  0.6281 -0.3848 -0.2069
71321SOL    HW225689  13.137   2.707  10.956  0.2539  0.7088 -0.1157
71322SOL     OW25690  12.995   4.965   4.253  0.1991 -0.1722 -0.5003
71322SOL    HW125691  12.981   4.921   4.337 -0.1447  2.1609  0.7679
71322SOL    HW225692  12.920   5.024   4.244  1.1923  0.9972 -1.5063
71323SOL     OW25693   8.264   5.427   0.231 -0.0868 -0.1251 -0.2596
71323SOL    HW125694   8.308   5.350   0.268  1.1736  0.4830 -0.4426
71323SOL    HW225695   8.278   5.495   0.296 -1.4052 -0.0948  0.0096
71324SOL     OW25696  10.502   4.295  10.608  0.2020  0.2017  0.3795
71324SOL    HW125697  10.495   4.214  10.556 -0.1950 -0.3348  1.2522
71324SOL    HW225698  10.412   4.323  10.622  0.2743  0.0291  1.2528
71325SOL     OW25699   2.307   4.325   5.745 -0.0505 -0.0644 -0.2779
71325SOL    HW125700   2.399   4.341   5.726  0.7214  0.8508  3.3953
71325SOL    HW225701   2.285   4.392   5.810 -1.7255 -3.4097  2.9351
71326SOL     OW25702   5.271   9.589  12.678  0.1575  0.1908  0.5349
71326SOL    HW125703   5.234   9.671  12.645  0.4607  0.4765  0.8960
71326SOL    HW225704   5.365   9.600  12.669  0.1619 -0.5505 -0.4160
71327SOL     OW25705  11.196   7.998   8.266 -0.0347  0.3567  0.3344
71327SOL    HW125706  11.174   7.907   8.283 -2.9080  0.7812 -0.6801
71327SOL    HW225707  11.214   8.001   8.172 -1.3881  1.0444  0.0757
71328SOL     OW25708   7.245   7.021   9.863 -0.0768 -0.0679  0.1115
71328SOL    HW125709   7.293   6.944   9.830 -0.6174 -0.1942 -0.4033
71328SOL    HW225710   7.291   7.045   9.943 -0.0408 -1.0766  0.4089
71329SOL     OW25711   7.792   1.162  10.811 -0.5850 -0.6748 -0.5724
71329SOL    HW125712   7.813   1.149  10.719  2.1201 -1.7709  0.1000
71329SOL    HW225713   7.869   1.205  10.848 -2.3555  1.5441  0.8719
71330SOL     OW25714  10.710   8.114  11.304 -0.5246  0.4545  0.1151
71330SOL    HW125715  10.789   8.100  11.356  0.3941  0.2079 -1.2971
71330SOL    HW225716  10.656   8.037  11.322  0.0200  0.1013  0.2734
71331SOL     OW25717  11.777   2.078  12.168 -0.2414 -0.3008  0.0278
71331SOL    HW125718  11.786   2.170  12.141  1.4325 -0.4404 -0.0045
71331SOL    HW225719  11.817   2.028  12.098 -2.7115 -1.2438 -0.8108
71332SOL     OW25720  12.274   2.612   2.645 -0.2825 -0.3845 -0.2290
71332SOL    HW125721  12.221   2.644   2.718 -1.9896  2.2702 -2.4341
71332SOL    HW225722  12.364   2.634   2.669 -0.8683  1.0411  0.7847
71333SOL     OW25723   0.577   5.552  11.556  0.0248 -0.4237 -0.7492
71333SOL    HW125724   0.551   5.639  11.528  2.0532 -0.2463 -2.2757
71333SOL    HW225725   0.625   5.567  11.638 -1.0018 -0.3158 -0.1506
71334SOL     OW25726  13.590   2.939  12.417 -0.1232  0.5415 -0.5721
71334SOL    HW125727  13.512   2.947  12.471 -0.3900 -0.8624 -0.7098
71334SOL    HW225728  13.656   2.991  12.462 -1.5099  3.0284 -1.2572
71335SOL     OW25729   9.428   5.889   7.840  0.3411 -0.1275 -0.1719
71335SOL    HW125730   9.476   5.970   7.823  0.6964 -0.4695 -0.8293
71335SOL    HW225731   9.367   5.912   7.910  1.6230  0.2571  0.8682
71336SOL     OW25732   9.979   9.539   9.931  0.3437 -0.4597  0.1017
71336SOL    HW125733   9.885   9.553   9.941  0.0741 -1.7827 -0.4034
71336SOL    HW225734   9.989   9.444   9.929  1.5163 -0.3346 -1.4029
71337SOL     OW25735   4.035   1.686   6.748  0.4462 -0.0810 -0.3136
71337SOL    HW125736   4.023   1.620   6.817 -0.3990  1.3729  0.9713
71337SOL    HW225737   3.965   1.668   6.685  0.4383 -0.6137 -0.1580
71338SOL     OW25738   1.312  10.280   5.353 -0.6561  0.3070  0.6541
71338SOL    HW125739   1.236  10.230   5.384  0.1142  0.2687  2.6185
71338SOL    HW225740   1.295  10.293   5.259 -2.3753 -0.9311  0.7355
71339SOL     OW25741   1.528   5.982   5.340 -0.4800 -0.4689 -0.3605
71339SOL    HW125742   1.446   5.949   5.304 -1.2056  0.1113  0.7204
71339SOL    HW225743   1.502   6.047   5.404  0.7483 -1.6537  1.4291
71340SOL     OW25744   7.492   3.431   1.554  0.2801  0.5935 -0.5591
71340SOL    HW125745   7.483   3.457   1.462 -0.8754  2.3357 -0.0116
71340SOL    HW225746   7.414   3.467   1.596  2.0091  2.1301  1.5771
71341SOL     OW25747   6.701  13.304   1.259 -1.1432 -0.2334  0.4380
71341SOL    HW125748   6.657  13.248   1.196  0.2362  0.9700 -1.7414
71341SOL    HW225749   6.792  13.274   1.259 -0.8834  0.4961  1.0131
71342SOL     OW25750   3.828   1.431   1.674 -0.2359 -0.5601 -0.2403
71342SOL    HW125751   3.864   1.506   1.721  1.0751 -1.0747 -0.3821
71342SOL    HW225752   3.734   1.435   1.691  0.1504 -0.5598  2.2009
71343SOL     OW25753   6.236  12.185   1.186 -0.1927 -0.0553  0.6298
71343SOL    HW125754   6.319  12.222   1.154 -1.0082  0.7557 -0.6015
71343SOL    HW225755   6.191  12.259   1.227  0.3406 -0.8361  2.7439
71344SOL     OW25756   2.832   1.015  11.764  0.3236  0.1303 -0.7940
71344SOL    HW125757   2.771   1.019  11.837  1.2444 -1.5678  0.1346
71344SOL    HW225758   2.778   1.025  11.686 -0.6853  1.8775  0.0950
71345SOL     OW25759   2.377  12.435  11.728 -0.0178 -0.1841  0.0584
71345SOL    HW125760   2.328  12.495  11.672  0.3242 -0.1739 -0.2365
71345SOL    HW225761   2.329  12.353  11.724  0.3241 -0.3543 -0.7294
71346SOL     OW25762   7.631   1.948   4.918 -0.5933 -0.1580 -0.3473
71346SOL    HW125763   7.593   1.942   5.006  1.6675  0.0075  0.7251
71346SOL    HW225764   7.615   2.039   4.892 -2.4863 -0.5655 -0.7474
71347SOL     OW25765   2.517  10.301   3.454  0.1947 -0.1723 -0.4315
71347SOL    HW125766   2.541  10.269   3.541  0.1805  2.0631  0.4536
71347SOL    HW225767   2.600  10.323   3.413  0.1297 -0.1681 -0.5601
71348SOL     OW25768   9.166   3.629   2.181 -0.1429  0.0028  0.4952
71348SOL    HW125769   9.134   3.541   2.200 -1.2685  0.6963  2.0640
71348SOL    HW225770   9.134   3.649   2.093 -1.9386 -0.2934  1.0353
71349SOL     OW25771   4.267   7.843   9.714  0.6630  0.1357 -0.2624
71349SOL    HW125772   4.254   7.918   9.656 -1.2543  0.0414 -0.0256
71349SOL    HW225773   4.360   7.847   9.738  0.3768  3.2786  0.8484
71350SOL     OW25774   1.369   7.565   8.451 -0.2997  0.0349  0.2727
71350SOL    HW125775   1.312   7.539   8.379  1.3648 -1.4213 -0.6155
71350SOL    HW225776   1.414   7.484   8.475  0.5253  0.8851  1.7346
71351SOL     OW25777  12.510   3.631   3.119  0.2848  0.3812 -0.1606
71351SOL    HW125778  12.514   3.710   3.173 -0.4948  0.5263 -0.2997
71351SOL    HW225779  12.457   3.656   3.044  1.8976  0.3744 -1.3550
71352SOL     OW25780   0.871   4.818  11.472  0.2324  0.1753 -0.1215
71352SOL    HW125781   0.901   4.886  11.532  1.2249  0.3684 -0.8182
71352SOL    HW225782   0.922   4.832  11.392 -1.0955 -0.0477 -1.0401
71353SOL     OW25783   6.635   4.385   1.597 -0.2164 -0.6865  0.3228
71353SOL    HW125784   6.730   4.376   1.589 -0.0911 -0.1856  1.1453
71353SOL    HW225785   6.622   4.437   1.676 -1.1251  0.5215 -0.5726
71354SOL     OW25786   9.496   7.403   0.941 -0.1284 -0.2766 -0.0245
71354SOL    HW125787   9.440   7.355   1.001 -1.1296 -1.3974 -1.7914
71354SOL    HW225788   9.581   7.359   0.947  0.7521  1.4818  2.7246
71355SOL     OW25789   8.220  12.286   5.903  0.3074 -0.5813 -0.2765
71355SOL    HW125790   8.198  12.291   5.810  1.3596 -1.0712 -0.5737
71355SOL    HW225791   8.139  12.305   5.949  0.0176  0.7640 -1.3002
71356SOL     OW25792   4.146   0.729   5.731 -0.0830 -0.1605 -0.2395
71356SOL    HW125793   4.052   0.713   5.746  0.2080 -2.7449 -0.7089
71356SOL    HW225794   4.150   0.767   5.643 -0.6533 -1.5910 -0.9308
71357SOL     OW25795   8.510   3.635   3.748  0.6138  0.6448 -1.1322
71357SOL    HW125796   8.545   3.694   3.814 -3.0093  1.6304  0.1865
71357SOL    HW225797   8.527   3.548   3.782 -1.4025  1.1163  1.4429
71358SOL     OW25798  13.400   1.346   3.667 -0.1092 -0.2177 -0.6527
71358SOL    HW125799  13.427   1.262   3.704 -0.2272 -0.5659 -1.3296
71358SOL    HW225800  13.471   1.369   3.607  0.1623  0.4212 -0.0997
71359SOL     OW25801  11.841   3.183   9.447  0.5486 -0.0924  0.8485
71359SOL    HW125802  11.812   3.155   9.534  0.1849  1.0554  1.1159
71359SOL    HW225803  11.792   3.264   9.430  0.8285 -0.1422 -0.3030
71360SOL     OW25804   2.277   1.942   8.751 -0.1164  0.0445 -0.1193
71360SOL    HW125805   2.292   2.032   8.722  0.6520 -0.4184 -1.2221
71360SOL    HW225806   2.318   1.888   8.683  1.4963 -1.1029  1.6991
71361SOL     OW25807   0.758   7.940   0.313 -0.1611 -0.5423  0.4727
71361SOL    HW125808   0.693   7.998   0.352 -0.5401 -0.2543 -0.5500
71361SOL    HW225809   0.726   7.924   0.224 -0.8914 -3.5496  1.1485
71362SOL     OW25810  12.892   1.753   5.773 -0.1506 -0.8627  0.8675
71362SOL    HW125811  12.970   1.803   5.751  0.0300 -1.1613  0.8330
71362SOL    HW225812  12.869   1.782   5.861 -1.4457  1.0738 -0.0443
71363SOL     OW25813   7.001   0.071   5.909 -0.2646 -0.0848 -0.4151
71363SOL    HW125814   6.934   0.124   5.953  1.1271  0.9510  0.5615
71363SOL    HW225815   7.049   0.029   5.981  1.3862  0.8033 -0.9388
71364SOL     OW25816  10.392  12.365   4.071  0.1904  0.2027 -0.3073
71364SOL    HW125817  10.478  12.377   4.030  0.8200  0.9680  1.1509
71364SOL    HW225818  10.409  12.373   4.165 -1.5259  0.7100  0.0023
71365SOL     OW25819   3.672  10.093   3.137 -0.0798 -0.1569 -0.0589
71365SOL    HW125820   3.717  10.022   3.091  1.0889 -0.3733  1.3537
71365SOL    HW225821   3.579  10.074   3.126  0.2048 -2.2817  0.8324
71366SOL     OW25822   5.216   9.557  10.926  0.4027  0.0003  0.4725
71366SOL    HW125823   5.281   9.534  10.860  0.2181 -0.4394  0.4395
71366SOL    HW225824   5.212   9.481  10.984 -1.4347 -0.8197 -0.6085
71367SOL     OW25825   9.277   9.420   1.155 -0.0365 -0.1595  0.3411
71367SOL    HW125826   9.314   9.346   1.106  0.4191 -0.2749  0.8508
71367SOL    HW225827   9.314   9.411   1.243 -0.7436  0.1229  0.6718
71368SOL     OW25828   0.920  10.413   1.518  0.0265  0.1078 -0.3323
71368SOL    HW125829   0.931  10.470   1.594  0.2528  1.5597 -1.4041
71368SOL    HW225830   0.840  10.444   1.476 -0.5864 -1.2513 -0.2378
71369SOL     OW25831  10.349   2.129  10.697 -0.8649 -0.0147 -0.7310
71369SOL    HW125832  10.321   2.072  10.624  0.1689 -1.1544 -0.2766
71369SOL    HW225833  10.431   2.090  10.727 -1.1824  0.5385  0.9387
71370SOL     OW25834   6.380  13.704  11.466  0.1891  0.1680 -0.1236
71370SOL    HW125835   6.334  13.622  11.480 -0.0496  0.1760 -0.8018
71370SOL    HW225836   6.347  13.763  11.533 -2.2141  0.7439 -1.6867
71371SOL     OW25837   3.001  13.501   5.160 -0.0282  0.1012 -0.2390
71371SOL    HW125838   2.981  13.485   5.068 -0.3815  0.2610 -0.1927
71371SOL    HW225839   2.965  13.588   5.178  0.6084  0.3477 -0.1173
71372SOL     OW25840   8.378   1.530   8.510 -0.3141 -0.0872 -0.2603
71372SOL    HW125841   8.347   1.515   8.421 -0.9695  2.1459 -0.4843
71372SOL    HW225842   8.471   1.509   8.507 -0.5989 -1.3144 -1.1030
71373SOL     OW25843  13.395   2.927  12.598  0.3313 -0.0318 -0.3874
71373SOL    HW125844  13.344   2.882  12.665  0.5558  0.2292 -0.0346
71373SOL    HW225845  13.459   2.978  12.647 -0.6003  1.5254 -0.7182
71374SOL     OW25846  13.154   7.886   8.884 -0.3014  0.0047 -0.1172
71374SOL    HW125847  13.181   7.836   8.961  1.1994 -2.2073 -1.9033
71374SOL    HW225848  13.061   7.867   8.875 -0.2449 -0.6510  0.5335
71375SOL     OW25849   1.129   6.581   9.821 -0.2784  0.2912  0.6881
71375SOL    HW125850   1.188   6.634   9.766  0.9303 -0.8245  0.8589
71375SOL    HW225851   1.137   6.619   9.908 -1.1461  1.2074  0.3860
71376SOL     OW25852  13.614   3.716   0.942 -0.1539 -0.1127  0.0962
71376SOL    HW125853  13.659   3.642   0.983  0.4541  0.7225  0.9754
71376SOL    HW225854  13.652   3.793   0.983 -1.1896  0.6828 -0.3873
71377SOL     OW25855   0.537   2.335  11.413 -0.0352 -0.0654 -0.4101
71377SOL    HW125856   0.484   2.297  11.483 -0.8255 -0.3705 -1.1602
71377SOL    HW225857   0.544   2.428  11.436  0.5262 -0.3312  0.5663
71378SOL     OW25858   4.391   2.225   3.427  0.4165  0.0778  0.3595
71378SOL    HW125859   4.339   2.296   3.463 -0.4219 -0.1972 -0.2805
71378SOL    HW225860   4.332   2.180   3.366  0.9999 -1.0187  0.5719
71379SOL     OW25861   6.148  11.670   3.272 -0.5709  0.2946  0.3302
71379SOL    HW125862   6.213  11.697   3.207  0.7130 -0.7824  1.1078
71379SOL    HW225863   6.158  11.734   3.343 -0.8121  0.5066  0.1722
71380SOL     OW25864  10.920   4.452  10.845  0.2436  0.2719  0.2520
71380SOL    HW125865  10.842   4.504  10.866  0.2284 -0.2514  1.5674
71380SOL    HW225866  10.898   4.363  10.874  1.0027 -0.0609 -0.1717
71381SOL     OW25867   7.680   9.269  11.004  0.1953  0.0165 -0.5161
71381SOL    HW125868   7.634   9.194  11.042  0.6886  0.0001  0.0622
71381SOL    HW225869   7.766   9.235  10.981 -0.4478 -0.2743 -2.7475
71382SOL     OW25870  10.010  11.459   1.120 -0.2274 -0.1930  0.7586
71382SOL    HW125871  10.067  11.454   1.044 -0.5096 -0.3235  0.5535
71382SOL    HW225872   9.924  11.485   1.085 -0.2820  0.0497  1.0687
71383SOL     OW25873   1.588  11.676   4.137 -0.1939  0.0013  0.2494
71383SOL    HW125874   1.619  11.705   4.223 -0.3769  0.8341  0.0399
71383SOL    HW225875   1.625  11.588   4.127 -0.3708 -0.2030  1.2764
71384SOL     OW25876   0.348   5.510  12.940 -0.0114  0.4551 -0.2579
71384SOL    HW125877   0.320   5.602  12.944  1.4503  0.8832  1.7162
71384SOL    HW225878   0.342   5.479  13.031  0.1725 -1.2075 -0.7802
71385SOL     OW25879   3.182  12.703   6.082 -0.4997  0.0200  0.3604
71385SOL    HW125880   3.098  12.739   6.053 -0.3499  0.3841  0.3633
71385SOL    HW225881   3.241  12.779   6.082  0.3476 -0.5790 -1.5784
71386SOL     OW25882   4.260  13.416   6.822 -0.6111 -0.3737  0.2352
71386SOL    HW125883   4.166  13.396   6.830 -0.4016 -1.6666 -0.3375
71386SOL    HW225884   4.274  13.430   6.729 -0.6908  2.4302  0.5588
71387SOL     OW25885   3.833  10.384   4.095  0.4254 -0.4226 -0.5116
71387SOL    HW125886   3.771  10.369   4.023  2.0041 -0.4842 -1.9275
71387SOL    HW225887   3.816  10.312   4.156 -1.1374 -0.2159 -0.6658
71388SOL     OW25888   2.548   0.760   1.269  0.1816 -0.3007 -0.2740
71388SOL    HW125889   2.516   0.671   1.287  0.8824 -0.9752 -2.1177
71388SOL    HW225890   2.514   0.812   1.342 -0.6132 -1.9841  0.6392
71389SOL     OW25891   0.132  13.187  10.865  0.0818 -0.1672  0.4577
71389SOL    HW125892   0.189  13.263  10.868 -0.3435  0.1524  0.4804
71389SOL    HW225893   0.070  13.200  10.936  0.8178 -1.1967  1.3275
71390SOL     OW25894   8.538  13.604   9.011  0.0050  0.7040 -0.3538
71390SOL    HW125895   8.457  13.609   9.062 -1.3218  0.5133 -2.3240
71390SOL    HW225896   8.600  13.659   9.059 -1.7734  2.1562  0.4066
71391SOL     OW25897   8.789  13.357   3.812 -0.0700 -0.0808  0.2975
71391SOL    HW125898   8.696  13.346   3.829  0.0115  0.3986  1.1033
71391SOL    HW225899   8.823  13.268   3.805 -0.6588 -0.2573 -0.4684
71392SOL     OW25900  12.450   2.782   1.778  1.0203 -0.2307  0.1771
71392SOL    HW125901  12.539   2.749   1.786  0.8177 -0.6535  0.7996
71392SOL    HW225902  12.428   2.812   1.867  1.4513  2.2962 -0.4838
71393SOL     OW25903   2.339   8.626  12.418 -0.3081 -0.0289  0.1843
71393SOL    HW125904   2.255   8.641  12.462 -0.3649 -3.6039  1.6010
71393SOL    HW225905   2.317   8.583  12.336  0.1211 -0.2614  0.1864
71394SOL     OW25906   4.879   1.030   8.558  0.1920  0.4612  0.1689
71394SOL    HW125907   4.914   0.966   8.619  0.0133  1.0835  0.9447
71394SOL    HW225908   4.947   1.097   8.551  0.0854  0.5455 -0.0761
71395SOL     OW25909   1.602   1.797   3.442  0.5789 -0.4486  0.8541
71395SOL    HW125910   1.532   1.789   3.507 -1.3688  0.1644 -1.0389
71395SOL    HW225911   1.632   1.707   3.428  0.0803 -0.7458  1.6185
71396SOL     OW25912   5.528   1.340   7.849  0.0217 -0.2000  0.4240
71396SOL    HW125913   5.443   1.363   7.888  0.2303  1.8494 -0.2201
71396SOL    HW225914   5.581   1.312   7.924 -1.1218 -1.3035  0.8671
71397SOL     OW25915   9.851   1.847   7.175  0.3242 -0.1986 -0.1571
71397SOL    HW125916   9.848   1.878   7.265 -2.4706 -0.5399 -0.0499
71397SOL    HW225917   9.912   1.906   7.131 -0.6108  1.9471  1.2812
71398SOL     OW25918   2.904   8.080   1.126 -0.1829  0.8798  0.1898
71398SOL    HW125919   2.906   8.134   1.206 -0.1804 -0.2379  0.9670
71398SOL    HW225920   2.962   8.006   1.145 -1.1280 -0.0371 -0.3812
71399SOL     OW25921   9.372   5.499  13.694 -0.2096 -0.2930  0.4125
71399SOL    HW125922   9.312   5.429  13.720 -2.3330  0.7981 -1.1795
71399SOL    HW225923   9.359   5.568  13.759  1.5808 -1.1213  1.7439
71400SOL     OW25924  10.875  10.112  10.862 -0.6028 -0.7432  0.5936
71400SOL    HW125925  10.873  10.111  10.957 -2.1062  1.5325  0.6691
71400SOL    HW225926  10.786  10.086  10.836 -0.4719 -0.4718 -0.1499
71401SOL     OW25927  13.710   3.374  13.725 -0.4703  0.0954 -0.6943
71401SOL    HW125928  13.688   3.413  13.640 -0.6927  0.2101 -0.5849
71401SOL    HW225929  13.803   3.394  13.737 -0.8900  1.8003 -0.0107
71402SOL     OW25930   1.980   4.644   9.410  0.2197 -0.1802  0.0394
71402SOL    HW125931   1.949   4.618   9.323 -0.3541 -0.7418  0.4013
71402SOL    HW225932   2.065   4.602   9.420  0.1129 -0.4325 -0.1015
71403SOL     OW25933  12.233   5.468  10.552 -0.5673 -0.6084  0.3575
71403SOL    HW125934  12.220   5.562  10.539 -1.8876 -0.8386 -0.0718
71403SOL    HW225935  12.210   5.453  10.644  3.2605  0.0587  1.6005
71404SOL     OW25936   8.599   8.373   7.221 -0.5809  0.4109 -0.0589
71404SOL    HW125937   8.640   8.420   7.293 -0.4996 -0.7581  0.6939
71404SOL    HW225938   8.665   8.372   7.152 -1.0122  2.3824 -0.5635
71405SOL     OW25939   7.086   6.790   8.168  1.0086  0.4916 -0.3826
71405SOL    HW125940   7.017   6.844   8.206 -0.8790 -0.0713 -2.7751
71405SOL    HW225941   7.168   6.834   8.193 -0.3543  3.5156 -0.8254
71406SOL     OW25942  12.595  12.226   1.776 -0.2563 -0.4899 -0.0948
71406SOL    HW125943  12.591  12.318   1.751  3.4059 -0.4172 -0.8141
71406SOL    HW225944  12.563  12.178   1.699 -0.8671  0.0876 -0.2128
71407SOL     OW25945   3.222   3.715   5.598  0.0063  0.1633 -0.5198
71407SOL    HW125946   3.143   3.761   5.626 -1.0125 -1.7375 -0.1193
71407SOL    HW225947   3.256   3.675   5.678  0.6144 -0.1438 -0.9204
71408SOL     OW25948  12.772   3.148   2.986  0.6756  0.0011 -0.1440
71408SOL    HW125949  12.707   3.166   3.054 -0.2672  0.7361 -1.1983
71408SOL    HW225950  12.752   3.059   2.957 -2.0709  1.2800 -2.6851
71409SOL     OW25951   9.441   2.091   6.769 -0.3678  0.1039 -0.1448
71409SOL    HW125952   9.374   2.075   6.702 -1.4260 -3.0730  1.4710
71409SOL    HW225953   9.399   2.151   6.831 -1.1178 -0.5369 -0.0156
71410SOL     OW25954   9.313   5.873   5.277  0.2310 -0.1078 -0.7113
71410SOL    HW125955   9.405   5.870   5.248 -0.4751 -0.6579 -3.0811
71410SOL    HW225956   9.298   5.965   5.299  1.1553  0.1258 -1.0047
71411SOL     OW25957   9.403   9.749   0.275 -0.0080 -0.4218  0.0222
71411SOL    HW125958   9.391   9.667   0.322  0.3364 -1.5553 -1.7829
71411SOL    HW225959   9.339   9.809   0.313 -0.2464 -1.5050  1.3834
71412SOL     OW25960   3.691   0.383   6.396 -0.2357 -0.3623 -0.9223
71412SOL    HW125961   3.746   0.309   6.422  0.7174  1.6530  4.0412
71412SOL    HW225962   3.605   0.362   6.432 -0.0912  0.6381  0.0519
71413SOL     OW25963  10.543   5.849   0.145 -0.0060  0.2936 -0.3797
71413SOL    HW125964  10.558   5.934   0.105  1.9925  0.4227  0.5131
71413SOL    HW225965  10.557   5.863   0.239  0.0094 -0.9436 -0.1709
71414SOL     OW25966  10.907   6.154  13.444 -0.1255  0.1353 -0.1211
71414SOL    HW125967  10.925   6.086  13.379 -1.3161 -1.3612  1.0503
71414SOL    HW225968  10.836   6.205  13.405 -0.4715 -0.4210 -0.2274
71415SOL     OW25969   7.128   1.968  12.258  0.1244  0.1254  0.0021
71415SOL    HW125970   7.131   1.973  12.163  2.7440  1.4554  0.0609
71415SOL    HW225971   7.035   1.952  12.278 -0.8263  1.6224 -2.6712
71416SOL     OW25972   1.998   4.522   3.041 -0.6988  0.1207  0.1003
71416SOL    HW125973   1.920   4.484   3.000  0.8075 -1.6644 -1.2806
71416SOL    HW225974   2.053   4.447   3.062  1.4115  1.4132 -0.5425
71417SOL     OW25975   6.855  13.466   8.533  0.1808  0.6104  0.4565
71417SOL    HW125976   6.893  13.433   8.451 -0.2624  2.2061 -0.4444
71417SOL    HW225977   6.917  13.532   8.563  0.8031 -0.6090  1.9471
71418SOL     OW25978  11.129   0.823  11.472 -0.3008 -0.9201  0.0244
71418SOL    HW125979  11.139   0.915  11.497 -1.9934 -1.2068  2.0995
71418SOL    HW225980  11.217   0.793  11.452  0.3366  1.0375 -0.3091
71419SOL     OW25981   2.574   1.870  10.277 -0.4272  1.3989 -0.0848
71419SOL    HW125982   2.649   1.845  10.330  0.5421  1.4314 -1.3925
71419SOL    HW225983   2.525   1.789  10.264 -0.2828  1.2569  0.2496
71420SOL     OW25984   0.103   7.846  11.914  0.2235 -0.2723  0.0145
71420SOL    HW125985   0.064   7.874  11.997 -0.6928 -0.3232 -0.3980
71420SOL    HW225986   0.198   7.849  11.931  0.0383 -0.7093  1.1913
71421SOL     OW25987   4.914  13.243   9.511  0.3251 -0.3080  0.4140
71421SOL    HW125988   4.863  13.278   9.438 -1.5161  1.2412  2.3075
71421SOL    HW225989   4.922  13.149   9.491 -0.6618 -0.0498 -1.4474
71422SOL     OW25990   2.037   6.012  10.507 -0.0815 -0.0375  0.6704
71422SOL    HW125991   1.988   5.987  10.586  1.9294 -1.1597  1.6449
71422SOL    HW225992   1.969   6.041  10.445 -1.7965  0.1040  2.5011
71423SOL     OW25993  13.332   4.375   4.382 -0.1060 -0.1531 -0.0811
71423SOL    HW125994  13.381   4.424   4.448 -0.5735 -0.7634  0.7392
71423SOL    HW225995  13.390   4.370   4.307  1.0096 -0.6680  0.7851
71424SOL     OW25996   3.512   6.292   9.621 -0.0643  0.2011 -0.0862
71424SOL    HW125997   3.440   6.246   9.664 -1.4107  2.4739  0.3053
71424SOL    HW225998   3.490   6.287   9.527 -0.1283 -0.0731 -0.0576
71425SOL     OW25999   0.926   9.950   3.176  0.0094  0.2638  0.6253
71425SOL    HW126000   1.009   9.998   3.174  0.9967 -1.3276  1.2692
71425SOL    HW226001   0.875   9.994   3.244  1.1792 -0.0079  1.7226
71426SOL     OW26002  11.544   1.364   8.830 -0.0189  0.6433 -0.1174
71426SOL    HW126003  11.532   1.297   8.897 -0.9829  1.4980  0.5830
71426SOL    HW226004  11.473   1.349   8.768 -0.8027  1.5594  0.5255
71427SOL     OW26005   6.584   4.702   3.016 -0.3196 -0.6815  0.0817
71427SOL    HW126006   6.613   4.629   3.070 -1.5432 -1.1061  0.1943
71427SOL    HW226007   6.573   4.664   2.929  2.4467  0.1747 -0.7529
71428SOL     OW26008  12.567   1.750   8.784  0.3570 -0.4300  0.0248
71428SOL    HW126009  12.512   1.820   8.748  0.0396 -0.1261  1.0617
71428SOL    HW226010  12.653   1.766   8.746  0.5954  1.2667  1.1405
71429SOL     OW26011   0.579   7.997   0.857  0.7462 -0.9665  0.4266
71429SOL    HW126012   0.576   7.984   0.952  2.3200 -0.1160  0.6221
71429SOL    HW226013   0.642   8.068   0.845  1.2378 -1.6609 -1.3115
71430SOL     OW26014   2.275   6.758   4.397  0.8271 -0.1581  0.4707
71430SOL    HW126015   2.257   6.741   4.305 -2.3799 -0.0314  0.9700
71430SOL    HW226016   2.286   6.853   4.403 -2.8027  0.3798  0.6349
71431SOL     OW26017   3.879   7.153   7.847 -0.0023  0.0009  0.1674
71431SOL    HW126018   3.813   7.146   7.916  0.7971 -1.7501  0.8303
71431SOL    HW226019   3.879   7.066   7.806 -0.0909  0.8430 -1.7231
71432SOL     OW26020   1.170   4.395   1.314  0.3699  0.0131 -0.7197
71432SOL    HW126021   1.251   4.447   1.315 -0.3021  1.0901 -0.5265
71432SOL    HW226022   1.100   4.461   1.315 -0.5119 -0.9091  0.6035
71433SOL     OW26023   9.367  10.653   2.489  0.2675 -0.2998 -0.0657
71433SOL    HW126024   9.289  10.601   2.470  0.3761 -0.1990 -0.8351
71433SOL    HW226025   9.439  10.590   2.492 -0.1784 -0.8322  3.5393
71434SOL     OW26026  12.127   2.988  13.279  0.6886  0.0039 -1.0143
71434SOL    HW126027  12.222   2.976  13.280  1.2577  3.4414  0.8903
71434SOL    HW226028  12.100   2.970  13.369 -0.1530  1.0060 -1.0590
71435SOL     OW26029   8.639   4.729   7.512 -0.0727 -0.8210  0.0306
71435SOL    HW126030   8.595   4.648   7.488  0.5982 -1.5192  1.0995
71435SOL    HW226031   8.728   4.703   7.535  0.0215  0.1375  0.8437
71436SOL     OW26032   0.169   1.960  12.601  0.8177 -0.2846  0.1625
71436SOL    HW126033   0.250   1.918  12.572  0.1995 -2.0648  0.8639
71436SOL    HW226034   0.099   1.905  12.565 -0.0442  0.5230  0.5694
71437SOL     OW26035  11.262   7.815   2.929 -0.5066  0.4002 -0.3962
71437SOL    HW126036  11.273   7.887   2.991 -1.3294  0.2873 -0.1102
71437SOL    HW226037  11.225   7.856   2.851 -0.2980  0.4002 -0.4963
71438SOL     OW26038   5.912   1.132   5.877  0.0393 -0.2483 -0.2685
71438SOL    HW126039   5.994   1.084   5.889 -0.0571 -0.2069  0.5574
71438SOL    HW226040   5.844   1.070   5.902 -0.1789 -0.2210 -0.7801
71439SOL     OW26041  10.562   8.156   7.382 -0.3350  0.2565  0.2070
71439SOL    HW126042  10.474   8.133   7.352  0.4020 -1.5587 -0.7917
71439SOL    HW226043  10.599   8.073   7.412  0.8491  1.0846  1.1085
71440SOL     OW26044   8.434  11.586   5.294  0.2019  0.0560  0.5717
71440SOL    HW126045   8.484  11.507   5.313 -0.4181 -0.8439 -1.3093
71440SOL    HW226046   8.485  11.632   5.227 -1.7583 -1.3630 -2.1201
71441SOL     OW26047   3.558   2.348   9.956 -0.7271  0.0695 -0.0344
71441SOL    HW126048   3.645   2.388   9.957  0.5172 -2.3898  1.6472
71441SOL    HW226049   3.516   2.380  10.035 -0.4076 -0.5786  0.4018
71442SOL     OW26050  11.146   6.157   1.636 -1.0831  0.5255 -0.2537
71442SOL    HW126051  11.215   6.097   1.609 -1.1256  0.2001  0.3484
71442SOL    HW226052  11.125   6.131   1.726 -1.7894  0.8067 -0.3319
71443SOL     OW26053   3.127   5.900  13.511 -0.7761 -0.5862  0.2124
71443SOL    HW126054   3.202   5.840  13.518 -2.3174 -2.6390 -0.0502
71443SOL    HW226055   3.119   5.915  13.417 -0.1696  0.3703  0.3024
71444SOL     OW26056   3.318   2.290   3.258  0.0487  0.2612  0.7024
71444SOL    HW126057   3.358   2.338   3.186  0.9568 -1.0432  0.3091
71444SOL    HW226058   3.253   2.233   3.217 -0.3684  0.4590  1.0685
71445SOL     OW26059   1.066   1.987   0.022  0.5489  0.1352 -0.1985
71445SOL    HW126060   1.023   1.906  -0.005  0.5842 -0.7407  2.1464
71445SOL    HW226061   1.159   1.968   0.014  0.5612 -0.1796  0.6614
71446SOL     OW26062   8.809   8.204   2.483 -0.3556  0.9368 -0.3520
71446SOL    HW126063   8.725   8.227   2.522  0.1714  0.2719  1.2512
71446SOL    HW226064   8.828   8.275   2.422 -1.0071  2.2860  0.9561
71447SOL     OW26065   9.570   4.048  12.454  0.1543 -0.3282  0.1879
71447SOL    HW126066   9.526   4.005  12.380 -0.4361  0.1435  0.2538
71447SOL    HW226067   9.535   4.003  12.531  0.4549 -0.5413  0.1996
71448SOL     OW26068  10.863   8.387  10.164  0.6943  0.5029 -0.1030
71448SOL    HW126069  10.787   8.388  10.107  0.0309  0.6771  0.7559
71448SOL    HW226070  10.831   8.351  10.247  1.3121  1.4195  0.5637
71449SOL     OW26071   2.293  10.603   5.540  0.3880  0.4656  0.0701
71449SOL    HW126072   2.379  10.645   5.551  1.1256 -1.2477  1.3738
71449SOL    HW226073   2.235  10.653   5.596  1.0429  0.3697  0.8622
71450SOL     OW26074  11.096   9.377   0.691 -0.6596 -0.0953  0.2245
71450SOL    HW126075  11.169   9.320   0.715 -0.3803 -0.4731 -1.3920
71450SOL    HW226076  11.022   9.343   0.741 -0.1339 -0.8419  0.5213
71451SOL     OW26077   0.346  12.480  10.069 -0.4357 -0.0858 -0.2228
71451SOL    HW126078   0.341  12.574  10.090 -0.9351 -0.8704  4.0380
71451SOL    HW226079   0.399  12.477   9.989 -1.3087  3.8437 -1.1865
71452SOL     OW26080  13.249  12.095   7.521 -0.5517 -0.1099  0.1546
71452SOL    HW126081  13.262  12.181   7.481  1.5796  0.7071  2.3603
71452SOL    HW226082  13.321  12.041   7.488 -0.7395 -0.4669  0.3151
71453SOL     OW26083   5.914   6.985   9.551 -0.6681 -0.1846  0.4265
71453SOL    HW126084   5.949   7.035   9.478  1.0153 -2.1748 -0.2346
71453SOL    HW226085   5.819   6.991   9.541 -0.5411  2.6169  0.2972
71454SOL     OW26086   4.509   8.827   6.513  0.1092  0.6193  0.1511
71454SOL    HW126087   4.468   8.766   6.452 -1.7131 -0.0079  1.9185
71454SOL    HW226088   4.566   8.772   6.567  0.9210  1.0179 -0.2710
71455SOL     OW26089   7.037   8.480   2.677 -0.2599  0.1259  0.0659
71455SOL    HW126090   6.963   8.541   2.684 -0.3093 -0.1426  2.9762
71455SOL    HW226091   6.996   8.395   2.658 -0.6992  0.0560  1.2556
71456SOL     OW26092   9.327  11.244   7.836  0.2855 -0.3265  0.4238
71456SOL    HW126093   9.249  11.296   7.818 -0.1519 -1.6529 -1.9760
71456SOL    HW226094   9.396  11.285   7.783  0.7055 -0.3946  0.9070
71457SOL     OW26095   0.792   3.466   4.836 -0.6841 -0.3573  0.5649
71457SOL    HW126096   0.710   3.417   4.840 -1.2908  0.6457  3.7786
71457SOL    HW226097   0.765   3.558   4.834  0.4323 -0.0202 -1.7474
71458SOL     OW26098  10.702   7.902  13.657 -0.1240  0.1631  0.0476
71458SOL    HW126099  10.688   7.995  13.646 -1.1405  0.1783  1.2334
71458SOL    HW226100  10.638   7.875  13.723  0.6673 -1.2176  0.3139
71459SOL     OW26101   8.620   3.335  13.167  0.1421 -0.0861 -0.6121
71459SOL    HW126102   8.677   3.300  13.099 -0.3615  1.3615 -1.8429
71459SOL    HW226103   8.657   3.422  13.186  0.5049 -0.6018  1.2915
71460SOL     OW26104   1.318  11.715   3.829  0.0029 -0.1763 -0.5102
71460SOL    HW126105   1.238  11.670   3.801 -1.2508  1.1224  0.7417
71460SOL    HW226106   1.319  11.704   3.924  0.1411  1.5742 -0.2729
71461SOL     OW26107  11.879  11.918  13.570 -0.2917 -0.1343 -0.6395
71461SOL    HW126108  11.855  12.008  13.546  1.5911  0.7101  0.3886
71461SOL    HW226109  11.893  11.874  13.487 -0.4004  0.7884 -1.1625
71462SOL     OW26110  12.705  12.368  12.586  0.1801 -0.1045  0.1560
71462SOL    HW126111  12.702  12.464  12.579  2.1024  0.1269  1.6557
71462SOL    HW226112  12.785  12.343  12.539 -1.2780 -1.2110 -1.8523
71463SOL     OW26113   7.923   1.302   3.504  0.0362  0.2877  0.2595
71463SOL    HW126114   7.944   1.262   3.419  0.1120 -0.5312  0.6486
71463SOL    HW226115   7.883   1.231   3.555 -0.2607  0.8423  0.8163
71464SOL     OW26116  11.553   5.574   1.435 -0.3767 -0.4011 -0.0259
71464SOL    HW126117  11.569   5.574   1.529 -0.4864 -0.5952 -0.0043
71464SOL    HW226118  11.459   5.591   1.427  0.0131  1.9989 -0.1987
71465SOL     OW26119  11.574   0.230   7.275 -0.2964 -0.0563  0.4623
71465SOL    HW126120  11.612   0.289   7.210 -0.8850  0.0557  0.2119
71465SOL    HW226121  11.554   0.150   7.226  0.2807 -0.3832  0.7494
71466SOL     OW26122  10.907   3.166  13.412  0.0613 -0.2582  0.3002
71466SOL    HW126123  10.904   3.079  13.451  0.8629 -0.4317 -0.0089
71466SOL    HW226124  10.999   3.180  13.391 -0.1398  0.4430 -0.1558
71467SOL     OW26125   0.644   0.356   0.294 -0.0613  0.3359  0.0523
71467SOL    HW126126   0.697   0.323   0.366  0.2251  0.0775 -0.2746
71467SOL    HW226127   0.556   0.364   0.331  0.2515  1.0443  0.6795
71468SOL     OW26128   8.541   7.697   9.262  0.6227 -0.0892 -0.1025
71468SOL    HW126129   8.630   7.706   9.227  0.8201  0.9130  0.6237
71468SOL    HW226130   8.554   7.683   9.356  0.0058  0.4611  0.0684
71469SOL     OW26131   3.055   4.517   6.276  0.7407  0.5497  0.1916
71469SOL    HW126132   3.147   4.496   6.266  0.4863  0.0562 -1.5820
71469SOL    HW226133   3.010   4.433   6.277  0.1393  0.7918 -1.6449
71470SOL     OW26134   5.362   4.792   7.196 -0.0180  0.5433 -0.4464
71470SOL    HW126135   5.363   4.888   7.186  0.3003  0.5976  0.0800
71470SOL    HW226136   5.329   4.778   7.284  0.1621  0.1760 -0.4371
71471SOL     OW26137  10.147   4.041   1.840  0.1822 -0.7340  0.3464
71471SOL    HW126138  10.128   3.967   1.897  0.8012 -0.2195  1.2535
71471SOL    HW226139  10.215   4.009   1.781 -0.0052 -1.0746  0.3133
71472SOL     OW26140   3.282   4.027   8.099 -0.0863  0.4329 -0.4578
71472SOL    HW126141   3.340   4.090   8.142 -1.9056  1.3715  0.8017
71472SOL    HW226142   3.243   3.977   8.171  1.3774 -2.3132 -1.4273
71473SOL     OW26143   6.329   3.916   5.394 -0.5898 -0.5491 -0.1894
71473SOL    HW126144   6.389   3.887   5.462 -2.2402  0.1451  1.6814
71473SOL    HW226145   6.290   3.836   5.361 -0.2953 -0.8656  0.2121
71474SOL     OW26146   5.380  10.839  10.164 -0.5405  0.4595 -0.1102
71474SOL    HW126147   5.350  10.863  10.252 -1.1306 -1.6831  0.3387
71474SOL    HW226148   5.452  10.777  10.180  1.0982  1.9897 -1.1883
71475SOL     OW26149   7.106  10.562   1.907 -0.1958  0.2365  0.0689
71475SOL    HW126150   7.158  10.642   1.914  1.0920 -0.6627  1.0468
71475SOL    HW226151   7.059  10.557   1.990 -2.9463  1.6933 -1.2449
71476SOL     OW26152   4.169   8.840   6.513  0.0623  0.2937 -1.1182
71476SOL    HW126153   4.181   8.821   6.420 -1.7461  0.1454 -1.3500
71476SOL    HW226154   4.078   8.868   6.521  0.3314  0.8280  0.5313
71477SOL     OW26155  12.775  11.379   3.818 -0.4974 -0.1571  0.2117
71477SOL    HW126156  12.801  11.404   3.907  0.7130 -2.5417  0.6165
71477SOL    HW226157  12.852  11.395   3.764 -0.6212 -0.4291 -0.0513
71478SOL     OW26158   3.430  11.299   2.148  0.2377 -0.7885 -0.5017
71478SOL    HW126159   3.521  11.317   2.122  0.6836 -2.3704 -0.1751
71478SOL    HW226160   3.414  11.211   2.115 -1.0561 -0.6844 -0.1804
71479SOL     OW26161   8.075   3.940   1.669  0.4299 -0.0300 -0.0586
71479SOL    HW126162   8.088   4.035   1.665  0.4865 -0.0533 -0.5321
71479SOL    HW226163   8.155   3.906   1.708  0.2964  0.1416  0.3644
71480SOL     OW26164   1.769  11.009  10.021 -0.0264 -0.1641  0.1220
71480SOL    HW126165   1.848  10.955  10.014  0.1185 -0.3510  2.4267
71480SOL    HW226166   1.700  10.956   9.980  0.2025 -1.9817  1.9203
71481SOL     OW26167   2.607  13.585  10.382 -0.4118  0.2498  0.1642
71481SOL    HW126168   2.566  13.664  10.348  0.1325  0.5954  0.3042
71481SOL    HW226169   2.565  13.513  10.334 -1.1365  0.5985  0.2670
71482SOL     OW26170   2.091   2.128   3.276  0.3569 -0.3696 -0.1807
71482SOL    HW126171   2.161   2.117   3.211  0.6706 -1.4726  0.3104
71482SOL    HW226172   2.040   2.047   3.268 -1.9082  1.0982 -1.7108
71483SOL     OW26173   5.972  11.750   4.418 -0.0178  0.6056  0.0672
71483SOL    HW126174   5.941  11.659   4.416 -0.3392  0.7158  0.0065
71483SOL    HW226175   6.023  11.760   4.338 -0.2835  0.5815 -0.1079
71484SOL     OW26176   2.145  10.624  10.033 -0.4265  0.6449 -0.2636
71484SOL    HW126177   2.141  10.529  10.029 -0.3673  0.5287  1.6194
71484SOL    HW226178   2.185  10.650   9.949 -1.0943 -0.9098 -1.0971
71485SOL     OW26179  13.691  11.362   4.803  0.3554  0.5866  0.0458
71485SOL    HW126180  13.681  11.286   4.860  2.0390  0.7273  0.5916
71485SOL    HW226181  13.665  11.437   4.856  1.1810  0.6360  0.3981
71486SOL     OW26182   5.956   4.557  11.676 -0.4564  0.0416 -0.0190
71486SOL    HW126183   6.045   4.557  11.640 -0.0304  0.7550  1.0020
71486SOL    HW226184   5.964   4.599  11.761 -1.9579  1.1124 -0.3634
71487SOL     OW26185   5.802   6.442   1.486 -0.4723  0.2847 -0.9515
71487SOL    HW126186   5.762   6.378   1.545 -2.4753  1.0386 -1.4002
71487SOL    HW226187   5.896   6.422   1.489 -0.8488 -1.6125  0.1489
71488SOL     OW26188   4.639   8.442   3.017  0.1259 -0.2144  0.3082
71488SOL    HW126189   4.545   8.458   3.012 -0.1765 -2.0101 -0.7867
71488SOL    HW226190   4.674   8.482   2.938 -0.3250 -2.6847 -1.2785
71489SOL     OW26191   2.622   9.752  12.424  0.5042 -0.6049 -0.0111
71489SOL    HW126192   2.581   9.709  12.499 -0.2758 -0.4416 -0.3350
71489SOL    HW226193   2.634   9.843  12.452  0.6139 -0.6450  0.0722
71490SOL     OW26194   6.742  13.554   1.323 -0.8740 -0.5125  0.3390
71490SOL    HW126195   6.756  13.464   1.294  1.6351  0.4782 -1.8887
71490SOL    HW226196   6.713  13.601   1.245  0.3717  1.1040  0.7848
71491SOL     OW26197   0.121   2.731  10.447 -0.2003  0.0026 -0.9111
71491SOL    HW126198   0.123   2.706  10.540 -0.7394  2.0165 -0.2937
71491SOL    HW226199   0.080   2.657  10.403 -3.6461  0.4924  1.0805
71492SOL     OW26200  11.470   1.008  12.880  0.1258 -0.0375  0.7738
71492SOL    HW126201  11.424   0.982  12.800 -0.1375 -1.2525  1.2976
71492SOL    HW226202  11.560   0.977  12.868  0.5948  1.4665  0.1664
71493SOL     OW26203   1.625   4.450  10.674  0.1800  0.2938  0.3894
71493SOL    HW126204   1.614   4.544  10.689 -0.0885  0.2085  0.7588
71493SOL    HW226205   1.653   4.443  10.583  0.1387  0.7285  0.3405
71494SOL     OW26206   0.996   1.426   0.068  0.2698 -0.1473 -0.2959
71494SOL    HW126207   1.018   1.378   0.148 -0.0824  0.2493  0.0493
71494SOL    HW226208   1.063   1.493   0.061 -0.8254  1.1489  0.8312
71495SOL     OW26209  12.227   1.583  13.196 -0.0257  0.5343 -0.0375
71495SOL    HW126210  12.183   1.548  13.118 -0.5262  1.0757 -0.0096
71495SOL    HW226211  12.320   1.582  13.173 -0.0699 -0.3545 -0.2112
71496SOL     OW26212   5.164  11.113   0.333 -0.1072 -0.4216  0.0307
71496SOL    HW126213   5.133  11.165   0.260 -0.8453  1.5994  1.6945
71496SOL    HW226214   5.086  11.098   0.387  1.0320  1.5614  2.3984
71497SOL     OW26215  13.304  10.787   5.964  0.3612 -0.0681  0.6189
71497SOL    HW126216  13.244  10.750   6.029  1.2051  0.3627  1.6760
71497SOL    HW226217  13.306  10.881   5.983 -0.8401  0.3967 -1.2821
71498SOL     OW26218   2.602   7.282  12.907 -0.0840 -0.1915  0.3269
71498SOL    HW126219   2.585   7.189  12.922  0.0352 -0.0796  1.2563
71498SOL    HW226220   2.611   7.318  12.995  0.2611  0.6285 -0.0394
71499SOL     OW26221   4.077   0.522   7.375 -0.3921  0.0691 -0.2914
71499SOL    HW126222   4.153   0.489   7.422 -0.1025 -0.5638 -1.1758
71499SOL    HW226223   4.073   0.615   7.398 -0.8889 -0.4199  1.7826
71500SOL     OW26224  12.552  11.121   7.990  0.1167  0.8308  0.1980
71500SOL    HW126225  12.459  11.144   7.987  0.8805  4.4802  0.1589
71500SOL    HW226226  12.567  11.068   7.912 -1.5672  1.8023 -0.8240
71501SOL     OW26227   2.514   5.799   1.639 -0.0603  0.2106 -0.1249
71501SOL    HW126228   2.534   5.707   1.623 -0.8994  0.2810 -1.8293
71501SOL    HW226229   2.492   5.803   1.733  0.3295 -1.2478  0.0524
71502SOL     OW26230   8.600  10.358  11.083 -0.2308  0.3141  0.1336
71502SOL    HW126231   8.520  10.410  11.088 -0.4638 -0.0539  0.2192
71502SOL    HW226232   8.650  10.385  11.160  0.3993  1.6343 -0.6994
71503SOL     OW26233   8.533   1.780   2.426 -0.2133  0.1734 -0.6696
71503SOL    HW126234   8.521   1.871   2.400  1.2553  0.2814 -1.0736
71503SOL    HW226235   8.580   1.784   2.509  0.3223 -0.2201 -0.9508
71504SOL     OW26236   8.658   9.334   8.160  0.0718  0.1197 -0.3096
71504SOL    HW126237   8.567   9.331   8.190 -0.3314  0.2860 -1.4755
71504SOL    HW226238   8.652   9.338   8.065  1.3288 -3.0958 -0.6744
71505SOL     OW26239   9.958   7.970  12.271 -0.6053 -0.1982 -0.2448
71505SOL    HW126240  10.011   8.042  12.306 -0.4353 -0.4982  0.1182
71505SOL    HW226241  10.012   7.892  12.282 -0.3692 -0.2474 -1.5877
71506SOL     OW26242   7.805  11.989   1.698  0.2987 -0.1705  0.6575
71506SOL    HW126243   7.777  12.041   1.774  0.6463  0.1654  0.5553
71506SOL    HW226244   7.864  12.046   1.650 -1.6123  0.4485 -1.0791
71507SOL     OW26245   8.473   6.944   9.463  0.1928  0.0024 -0.6844
71507SOL    HW126246   8.455   7.014   9.400 -0.1648  0.8635  0.3465
71507SOL    HW226247   8.529   6.883   9.415 -1.3741 -0.2066 -2.3560
71508SOL     OW26248  12.032   8.514   9.305 -0.1844 -0.3894  0.1031
71508SOL    HW126249  11.955   8.458   9.305  1.1326 -2.2967  0.5220
71508SOL    HW226250  12.037   8.550   9.216  0.5751 -3.3656 -1.1546
71509SOL     OW26251   1.608  12.990  12.271 -0.0694  0.1768  0.2552
71509SOL    HW126252   1.614  12.971  12.178  0.0465  2.2992 -0.2049
71509SOL    HW226253   1.541  12.930  12.304  0.5658 -1.2577 -0.9737
71510SOL     OW26254  10.673   9.763  13.721 -0.1773 -0.5106  0.3978
71510SOL    HW126255  10.659   9.786  13.629  1.8186 -2.3701 -0.4733
71510SOL    HW226256  10.753   9.809  13.745 -2.1779  2.2942  2.2209
71511SOL     OW26257   7.321   4.923  12.684 -0.0790 -0.3914 -0.2081
71511SOL    HW126258   7.257   4.861  12.717 -0.0339  0.5899  1.8898
71511SOL    HW226259   7.271   4.979  12.624 -1.2480  0.3800  1.4125
71512SOL     OW26260  10.140   3.757   4.277  0.0832  0.0765 -0.3195
71512SOL    HW126261  10.206   3.825   4.261  2.5070 -1.4742  2.2925
71512SOL    HW226262  10.179   3.678   4.239 -0.9225 -0.6155  0.0795
71513SOL     OW26263  11.741   8.894  10.169  0.2388  0.0844 -0.2362
71513SOL    HW126264  11.738   8.925  10.259  0.6777 -0.4197 -0.0443
71513SOL    HW226265  11.657   8.851  10.155  0.3386 -0.2212  0.0782
71514SOL     OW26266   1.046  12.973   2.414 -0.1680  0.2661  0.2449
71514SOL    HW126267   0.979  13.031   2.452 -0.2804  0.0362  0.4062
71514SOL    HW226268   0.996  12.899   2.381  0.1638 -0.9959  2.3680
71515SOL     OW26269   8.435   4.793   5.999 -0.1278  0.3465  0.0143
71515SOL    HW126270   8.495   4.719   5.988  2.2665  2.2456 -0.6298
71515SOL    HW226271   8.429   4.805   6.094 -0.7806 -0.7993  0.1376
71516SOL     OW26272   7.797   4.140   9.424  0.5155 -0.3586 -0.1960
71516SOL    HW126273   7.761   4.079   9.360  0.6221  0.5888 -1.1754
71516SOL    HW226274   7.872   4.180   9.380  2.8150 -2.2261  1.7547
71517SOL     OW26275   1.523   2.077   2.597 -0.3371 -0.3525  0.0574
71517SOL    HW126276   1.538   1.988   2.564 -0.2042 -0.2378 -0.1942
71517SOL    HW226277   1.568   2.133   2.534  0.5279 -0.1704  0.8123
71518SOL     OW26278  12.779  10.659   6.727  0.6990  0.1786  0.2419
71518SOL    HW126279  12.708  10.643   6.788 -0.3407 -1.2746 -1.2633
71518SOL    HW226280  12.742  10.717   6.661  0.0465 -2.3712 -1.8128
71519SOL     OW26281  11.487  13.583   2.481 -0.2894  0.6000  0.7301
71519SOL    HW126282  11.512  13.673   2.459 -0.7719  0.7682  0.8708
71519SOL    HW226283  11.531  13.529   2.415  0.0618  0.9300  0.6893
71520SOL     OW26284   1.128  10.482  13.720 -0.6844 -0.1394  0.1162
71520SOL    HW126285   1.114  10.412  13.656 -0.1985  0.3551 -0.5443
71520SOL    HW226286   1.144  10.560  13.667  0.0600  0.2137  0.8386
71521SOL     OW26287   9.598   4.184   5.835  0.1223  0.5045  0.1650
71521SOL    HW126288   9.648   4.239   5.896 -0.6576  0.3614  0.9502
71521SOL    HW226289   9.652   4.181   5.756  0.3885  2.0201  0.2659
71522SOL     OW26290   6.456   9.560  12.264  1.0978  0.1198 -0.0234
71522SOL    HW126291   6.474   9.467  12.253 -0.9533 -0.3425 -0.0296
71522SOL    HW226292   6.452   9.573  12.359  1.5366  0.2380 -0.0205
71523SOL     OW26293  10.325   7.958  11.258 -0.3067  0.0153  0.1405
71523SOL    HW126294  10.237   7.932  11.229  0.5590 -1.6973 -1.1601
71523SOL    HW226295  10.348   7.893  11.325  0.6587 -0.7375 -0.8764
71524SOL     OW26296   3.116   3.005  12.705 -0.2520 -0.3055  0.2904
71524SOL    HW126297   3.116   3.093  12.666 -3.6806  0.5731  1.9253
71524SOL    HW226298   3.118   3.020  12.799 -1.0263 -1.9885  0.6102
71525SOL     OW26299  13.508   6.637   4.343 -0.0080  0.3282 -0.0648
71525SOL    HW126300  13.433   6.578   4.334 -0.8291  1.1856  0.8981
71525SOL    HW226301  13.583   6.579   4.357 -0.5256 -0.5327 -0.7434
71526SOL     OW26302   8.393   6.318   7.664 -0.7570 -0.0103  0.2600
71526SOL    HW126303   8.475   6.268   7.668  0.3315  1.6497  0.0406
71526SOL    HW226304   8.404   6.376   7.589 -1.9747  0.5224  0.4625
71527SOL     OW26305  13.037   1.695   4.964  0.3886 -0.1712 -0.7881
71527SOL    HW126306  13.095   1.753   5.013  0.8309  0.7952 -2.3679
71527SOL    HW226307  12.968   1.673   5.026  2.1641 -0.9878  1.0079
71528SOL     OW26308   0.183   7.137   7.275 -0.2386 -0.2829  0.0852
71528SOL    HW126309   0.190   7.165   7.366  0.7442 -0.3389  0.0327
71528SOL    HW226310   0.266   7.163   7.235 -0.5899 -0.4143 -0.7549
71529SOL     OW26311   4.053  13.683   2.173  0.3194  0.1500 -0.1271
71529SOL    HW126312   4.092  13.665   2.087 -0.9025  1.3546 -0.9870
71529SOL    HW226313   4.017  13.599   2.201  2.1285 -0.6232 -0.0218
71530SOL     OW26314   9.039   6.264   4.817 -0.0210 -0.0424 -0.0893
71530SOL    HW126315   9.029   6.248   4.723 -1.1884 -2.4726  0.3662
71530SOL    HW226316   8.951   6.251   4.853  0.5869 -0.1381  1.4508
71531SOL     OW26317   6.364   9.164   0.124  0.3763  0.5413  0.0312
71531SOL    HW126318   6.410   9.080   0.134  0.0455  0.1777 -1.2472
71531SOL    HW226319   6.275   9.146   0.154  0.4991  0.6446  0.4606
71532SOL     OW26320   4.779  13.694   1.543 -0.2767  0.0516  0.2877
71532SOL    HW126321   4.872  13.712   1.524 -0.2142 -0.3941  0.1734
71532SOL    HW226322   4.754  13.628   1.479  0.1611 -2.1050  2.2037
71533SOL     OW26323   1.158   1.873   6.194  0.1055  0.4997  0.3694
71533SOL    HW126324   1.187   1.798   6.143  0.6256 -0.1007  1.5031
71533SOL    HW226325   1.234   1.896   6.248 -0.1634  1.6228  0.2862
71534SOL     OW26326   6.277  11.423  13.591 -0.2575 -0.4593 -0.1031
71534SOL    HW126327   6.228  11.482  13.533  1.7771  3.6295  1.8617
71534SOL    HW226328   6.237  11.436  13.677 -0.5934 -3.1965  0.2391
71535SOL     OW26329   7.899  10.119   2.739  0.2100  0.5902  0.2491
71535SOL    HW126330   7.843  10.160   2.805 -0.4320  1.5763 -0.8464
71535SOL    HW226331   7.932  10.193   2.688  1.5147 -0.0758  0.0908
71536SOL     OW26332   9.286   5.584   1.170 -0.0636  0.2681  0.2103
71536SOL    HW126333   9.361   5.618   1.219 -1.1241  2.5341  0.3943
71536SOL    HW226334   9.259   5.505   1.217  0.5284  0.9486  1.7330
71537SOL     OW26335  11.870   9.628   9.647 -0.5936  0.2335  0.1176
71537SOL    HW126336  11.823   9.614   9.565 -1.0800  1.5478  0.1422
71537SOL    HW226337  11.961   9.607   9.627 -1.1727 -2.5970  0.1310
71538SOL     OW26338   8.128   3.546   5.035 -0.2130 -0.0015  0.0029
71538SOL    HW126339   8.175   3.467   5.007 -0.5934 -0.1748 -0.1625
71538SOL    HW226340   8.037   3.529   5.011 -0.0614  1.1830 -1.5843
71539SOL     OW26341   2.506   6.697   5.636  0.2283 -0.2825 -0.3632
71539SOL    HW126342   2.501   6.617   5.583  0.4355  0.5341 -1.6691
71539SOL    HW226343   2.593   6.694   5.676 -0.9911 -2.4057  2.5109
71540SOL     OW26344   4.520   1.543   9.194 -0.5924 -0.1167  0.3620
71540SOL    HW126345   4.522   1.456   9.155 -1.9295 -0.4730  1.0346
71540SOL    HW226346   4.565   1.599   9.131  0.5059 -1.3295  0.0405
71541SOL     OW26347  10.914   2.534  11.809 -0.1639 -0.0317 -0.1017
71541SOL    HW126348  11.004   2.515  11.834 -0.7768  0.4199  2.7917
71541SOL    HW226349  10.914   2.628  11.790 -0.2403  0.2383  1.1552
71542SOL     OW26350  12.338   3.884   9.454 -0.2855 -0.6812  0.5905
71542SOL    HW126351  12.329   3.805   9.401 -0.5887 -0.5425  0.4307
71542SOL    HW226352  12.374   3.949   9.393 -0.1290 -0.6695  0.6960
71543SOL     OW26353   1.558  10.689  13.494 -0.1096 -0.3405 -0.0023
71543SOL    HW126354   1.562  10.764  13.554  1.7834 -1.0887  0.8893
71543SOL    HW226355   1.618  10.625  13.531 -1.5516 -2.2869 -0.8304
71544SOL     OW26356   8.092   4.982  13.245  0.0489  0.0272  0.0239
71544SOL    HW126357   8.048   4.904  13.211  0.6772 -0.3250  0.0195
71544SOL    HW226358   8.145   5.014  13.171  0.1461  0.2008  0.1675
71545SOL     OW26359   4.203   1.362   8.357 -0.1601 -0.0450 -0.6061
71545SOL    HW126360   4.150   1.312   8.295 -1.0405  0.9383 -0.6750
71545SOL    HW226361   4.170   1.452   8.350  0.1804  0.2142  0.7872
71546SOL     OW26362   3.319   2.903  11.243 -0.1584 -0.3232 -0.0883
71546SOL    HW126363   3.256   2.965  11.208  0.4478  0.5694  0.3651
71546SOL    HW226364   3.397   2.914  11.189  0.2675 -0.0106  0.5691
71547SOL     OW26365  12.772  10.245   0.115 -0.3641  0.2082  0.6730
71547SOL    HW126366  12.678  10.228   0.121 -0.1600 -0.5045  2.0911
71547SOL    HW226367  12.777  10.328   0.068 -1.6964  0.1989  0.4580
71548SOL     OW26368   9.104  10.632   3.675  0.1686  0.2101 -0.2619
71548SOL    HW126369   9.066  10.718   3.694  0.9159  1.1143 -2.5653
71548SOL    HW226370   9.043  10.569   3.715  0.1473  1.7893  2.3786
71549SOL     OW26371   2.574  13.328   2.005  0.0562 -0.3397  0.2585
71549SOL    HW126372   2.490  13.283   1.993  1.1802 -2.4240 -0.1374
71549SOL    HW226373   2.551  13.421   2.002 -2.1405 -0.8349 -0.5304
71550SOL     OW26374  11.026  11.978   8.972 -0.2665 -0.4529  0.0873
71550SOL    HW126375  11.103  11.990   8.917  0.4601 -0.7430  1.0152
71550SOL    HW226376  11.030  12.049   9.036 -0.2917 -0.9554  0.6617
71551SOL     OW26377  12.052  12.081  11.929  0.2867  0.0002 -0.3685
71551SOL    HW126378  12.077  12.128  11.849  2.8873  0.2078  0.4468
71551SOL    HW226379  12.087  12.135  12.000  1.9349 -2.2624  0.6815
71552SOL     OW26380   2.544   3.473   2.005  0.2490  0.4666  0.0977
71552SOL    HW126381   2.522   3.391   1.960 -3.1842  0.5633  1.2999
71552SOL    HW226382   2.559   3.536   1.934 -0.8508 -0.3427 -0.9089
71553SOL     OW26383  12.074   2.857   0.374 -0.3090  0.0978  0.1419
71553SOL    HW126384  12.092   2.774   0.418 -0.1212  0.0187 -0.0810
71553SOL    HW226385  11.979   2.857   0.361 -0.2652 -0.2486 -0.1834
71554SOL     OW26386   3.665   9.685   1.924  0.1869 -0.3100  0.0729
71554SOL    HW126387   3.671   9.626   1.850 -0.4107 -0.0040 -0.2229
71554SOL    HW226388   3.752   9.682   1.964  0.2570 -1.1367 -0.1237
71555SOL     OW26389   5.443   4.547   9.544  0.2619  0.2655  0.2544
71555SOL    HW126390   5.522   4.500   9.569 -0.7039 -0.6341  1.7963
71555SOL    HW226391   5.371   4.494   9.580 -0.9595  1.8388  0.2507
71556SOL     OW26392   1.501   0.857   2.042  0.1037  0.0271  0.2505
71556SOL    HW126393   1.415   0.898   2.030  0.6977  0.7804 -1.9438
71556SOL    HW226394   1.524   0.824   1.955  1.5515 -1.1677  1.0445
71557SOL     OW26395  12.484   8.678   6.945  0.5575 -0.0850 -0.1260
71557SOL    HW126396  12.504   8.588   6.971  1.2529 -0.2913 -1.2944
71557SOL    HW226397  12.393   8.691   6.972  0.3666 -1.2266 -0.1762
71558SOL     OW26398   8.151   5.487   9.905  0.3456 -0.6727  0.4016
71558SOL    HW126399   8.140   5.554   9.972  2.8179 -2.6261  2.9943
71558SOL    HW226400   8.219   5.522   9.847 -1.6482  0.9287 -1.1148
71559SOL     OW26401   2.483   8.463   7.310  0.0289 -0.3072  0.0063
71559SOL    HW126402   2.467   8.454   7.216  1.5115  3.4646 -0.8182
71559SOL    HW226403   2.406   8.511   7.342 -0.2966 -1.2543  0.6738
71560SOL     OW26404   1.137   1.080   7.706 -0.1567 -0.5037  0.8089
71560SOL    HW126405   1.117   1.108   7.617  0.6336 -1.9171  0.1485
71560SOL    HW226406   1.062   1.108   7.758  0.9134  3.6523  0.4766
71561SOL     OW26407   5.387  11.585  12.233 -0.8727 -0.7084  0.1047
71561SOL    HW126408   5.392  11.624  12.146 -0.7522 -1.5508 -0.2781
71561SOL    HW226409   5.398  11.491  12.218  0.4782 -0.7561  1.1572
71562SOL     OW26410  11.296   9.627  11.594 -0.2812  0.1066 -0.1408
71562SOL    HW126411  11.263   9.583  11.516  0.5123 -3.3892  1.3007
71562SOL    HW226412  11.370   9.679  11.563 -0.2954 -0.7857 -1.7905
71563SOL     OW26413  10.851   9.908   3.781  0.2028 -0.2536  0.1979
71563SOL    HW126414  10.826   9.887   3.871 -2.0802 -0.8696 -0.5050
71563SOL    HW226415  10.885   9.997   3.786  2.0786 -0.9648  1.9307
71564SOL     OW26416   8.070   3.685   2.730 -0.3514  0.0013  0.2837
71564SOL    HW126417   8.144   3.632   2.760 -0.1152  1.2297  2.0524
71564SOL    HW226418   8.107   3.772   2.717 -1.3290  0.4455  0.4019
71565SOL     OW26419   4.546   1.279   3.455 -0.5007  0.0468 -0.6334
71565SOL    HW126420   4.617   1.331   3.491 -0.4281 -0.2696 -0.3225
71565SOL    HW226421   4.508   1.335   3.387 -1.4971  1.1870  0.8207
71566SOL     OW26422  10.483   7.335   9.493  0.0251 -0.5284 -0.0412
71566SOL    HW126423  10.458   7.275   9.423  0.0286  1.1296 -1.5694
71566SOL    HW226424  10.404   7.385   9.513  0.5895  0.6714 -0.6489
71567SOL     OW26425   2.256  13.382   6.623  0.3604 -0.1390  0.1369
71567SOL    HW126426   2.336  13.342   6.656 -0.1768  0.6185  2.6327
71567SOL    HW226427   2.193  13.372   6.695 -1.4324  0.3224 -1.2933
71568SOL     OW26428   8.276   6.663   8.435  0.2594  0.4077 -0.7421
71568SOL    HW126429   8.193   6.709   8.449 -0.0194 -0.4191  0.5119
71568SOL    HW226430   8.315   6.706   8.359 -0.2485  2.3099  0.0164
71569SOL     OW26431   9.559   0.319  13.491 -0.8439 -0.1388 -0.5094
71569SOL    HW126432   9.490   0.384  13.495 -0.5641  0.1491 -0.3506
71569SOL    HW226433   9.640   0.369  13.500 -0.6120 -0.4672 -0.7347
71570SOL     OW26434   5.138   7.139   6.118 -0.7548  0.0140 -0.3760
71570SOL    HW126435   5.093   7.057   6.098  1.9681 -1.0794 -2.5960
71570SOL    HW226436   5.169   7.129   6.208 -1.1000 -1.0790 -0.3687
71571SOL     OW26437  12.245  12.109   6.383  0.5216 -0.0594 -0.2229
71571SOL    HW126438  12.285  12.178   6.436  1.4201 -1.7318  1.3931
71571SOL    HW226439  12.255  12.030   6.436 -1.0498 -1.3297 -1.7233
71572SOL     OW26440  12.387   3.674  13.083  0.0661 -0.1685  0.0436
71572SOL    HW126441  12.334   3.725  13.144 -1.9378 -1.9281 -0.0674
71572SOL    HW226442  12.441   3.618  13.138  1.7419  1.4945  0.1585
71573SOL     OW26443   8.834  10.965  10.670  0.0251  0.9159 -0.1763
71573SOL    HW126444   8.876  10.880  10.655 -1.7837  0.0122 -0.3282
71573SOL    HW226445   8.897  11.014  10.723 -0.1704 -1.7141  2.7608
71574SOL     OW26446  12.776   4.818   1.207 -0.2946 -1.0237 -0.1697
71574SOL    HW126447  12.802   4.902   1.170 -1.3569 -0.2215  0.8282
71574SOL    HW226448  12.825   4.811   1.289 -0.0217 -1.5145 -0.3642
71575SOL     OW26449   5.028   9.944   5.910 -0.4938  0.0519  0.5188
71575SOL    HW126450   5.091   9.924   5.842 -1.0890  0.2928 -0.1148
71575SOL    HW226451   4.962   9.999   5.867 -1.0688 -0.0919  1.1883
71576SOL     OW26452   7.337   4.129  12.398 -0.3247 -0.2668  0.4392
71576SOL    HW126453   7.367   4.194  12.335 -0.3247  0.2766  0.9920
71576SOL    HW226454   7.416   4.102  12.445 -0.3372 -0.6190  0.2693
71577SOL     OW26455  12.021  11.604   4.699 -0.3166 -0.5876  0.4176
71577SOL    HW126456  12.030  11.699   4.699  0.9407 -0.6767 -1.1409
71577SOL    HW226457  12.110  11.571   4.710 -0.6272 -1.5983  0.0107
71578SOL     OW26458  10.464   3.884   2.892  0.3663  0.2117  0.0876
71578SOL    HW126459  10.504   3.930   2.819 -0.8089 -0.6733 -1.1623
71578SOL    HW226460  10.370   3.889   2.876  0.1486 -3.5098 -0.7902
71579SOL     OW26461   8.488   9.782   3.663  0.0807  0.5174 -0.2468
71579SOL    HW126462   8.522   9.870   3.649  0.2159  0.3000 -1.4396
71579SOL    HW226463   8.404   9.781   3.617  0.0309  0.0639 -0.1545
71580SOL     OW26464   0.191   8.310   3.534  0.1663  0.4120 -0.2235
71580SOL    HW126465   0.142   8.374   3.483 -0.7970 -1.5049 -1.8847
71580SOL    HW226466   0.124   8.263   3.584  0.9978  1.5797  2.0922
71581SOL     OW26467   6.907   0.764   7.370  0.7975  0.0072 -0.4576
71581SOL    HW126468   6.839   0.776   7.437  0.7412 -1.3430 -0.2609
71581SOL    HW226469   6.900   0.843   7.316 -0.8825 -0.0505 -0.3941
71582SOL     OW26470   9.887   7.520   1.913 -0.5119  0.0630  0.1818
71582SOL    HW126471   9.916   7.440   1.870 -1.4844  0.1861 -0.7477
71582SOL    HW226472   9.833   7.564   1.848  2.5317  3.1080 -0.5470
71583SOL     OW26473  10.253   5.248  12.977 -0.1648  0.2762 -0.1017
71583SOL    HW126474  10.232   5.211  13.063  4.4254 -0.7681  0.8353
71583SOL    HW226475  10.264   5.342  12.993 -1.2257  0.4021 -0.0420
71584SOL     OW26476   8.034   0.250   6.147 -0.0098 -0.2058 -0.0039
71584SOL    HW126477   8.039   0.181   6.213 -0.3643 -0.0659  0.1747
71584SOL    HW226478   8.102   0.229   6.084 -0.6265 -1.1586 -0.3703
71585SOL     OW26479   8.772  12.281  12.619  0.1908  0.1087  0.5834
71585SOL    HW126480   8.817  12.332  12.687 -0.4620 -0.6549  1.6209
71585SOL    HW226481   8.840  12.223  12.584  0.7539  1.1333 -0.0857
71586SOL     OW26482   8.257   1.868   5.503  0.0220  0.0655 -0.2292
71586SOL    HW126483   8.207   1.945   5.530  0.8946  0.9360 -1.0074
71586SOL    HW226484   8.346   1.883   5.536  0.1824 -0.6452 -0.3114
71587SOL     OW26485   2.353   3.803  10.718 -0.1944 -0.3297 -0.1618
71587SOL    HW126486   2.292   3.827  10.648 -0.3878 -1.2243 -0.3162
71587SOL    HW226487   2.297   3.767  10.787 -0.1216  1.5534  0.9483
71588SOL     OW26488   0.931   3.512   1.415  0.2952  0.1021 -0.1876
71588SOL    HW126489   0.995   3.471   1.474  0.3214  0.7091  0.2155
71588SOL    HW226490   0.976   3.519   1.331 -0.0427 -1.5901 -0.5554
71589SOL     OW26491   9.583   3.801   2.647  0.9976  0.3000  0.3409
71589SOL    HW126492   9.679   3.799   2.651  0.9650 -0.4943  0.9477
71589SOL    HW226493   9.563   3.828   2.558  1.7948 -0.6842 -0.1530
71590SOL     OW26494   4.432  12.667   0.030  0.0446  0.3831 -0.1503
71590SOL    HW126495   4.453  12.664  -0.064  0.3834 -1.3764 -0.0446
71590SOL    HW226496   4.502  12.618   0.072 -1.0011 -0.2888  0.8515
71591SOL     OW26497  10.680   2.831   9.294 -0.0017 -0.0269  0.0520
71591SOL    HW126498  10.669   2.749   9.343 -2.4650 -0.9606 -1.8910
71591SOL    HW226499  10.623   2.894   9.339  0.1065 -0.0190  0.1796
71592SOL     OW26500   0.645  13.150   8.849  0.1327 -0.2609  0.3530
71592SOL    HW126501   0.741  13.141   8.849  0.3361  1.5396 -0.1612
71592SOL    HW226502   0.619  13.125   8.761  0.1663 -0.4579  0.3990
71593SOL     OW26503  11.390  10.392  12.706  0.4511 -0.0605  0.0471
71593SOL    HW126504  11.420  10.421  12.620 -0.7927  0.5413 -0.2076
71593SOL    HW226505  11.360  10.302  12.691  0.9499 -0.2286  0.0336
71594SOL     OW26506   0.704  11.229   4.271  0.1006  0.4223 -0.0754
71594SOL    HW126507   0.640  11.288   4.310  1.1040  2.1875 -1.0004
71594SOL    HW226508   0.789  11.265   4.296  0.7626 -0.7888 -0.4738
71595SOL     OW26509  13.546   0.729   3.234  0.4326 -0.7668  0.1365
71595SOL    HW126510  13.506   0.710   3.320  1.5739 -1.0665  0.6190
71595SOL    HW226511  13.567   0.822   3.238  0.1832 -0.7058  0.0499
71596SOL     OW26512   2.987  11.897  13.289  0.1242  0.3140 -0.0581
71596SOL    HW126513   3.049  11.824  13.292  1.2951  1.1465 -2.1934
71596SOL    HW226514   2.989  11.932  13.378 -0.0811 -1.8856  0.8831
71597SOL     OW26515   1.795   3.403   2.320  0.3158  0.3204 -0.0970
71597SOL    HW126516   1.699   3.404   2.317  0.2344 -0.2549 -4.6279
71597SOL    HW226517   1.818   3.312   2.301  1.7178  0.7917 -0.7855
71598SOL     OW26518   8.360  13.604   4.718 -0.5152 -0.7804 -0.3293
71598SOL    HW126519   8.275  13.560   4.720  0.0463 -1.9404 -1.1309
71598SOL    HW226520   8.421  13.540   4.755  0.3772 -0.8502 -1.8624
71599SOL     OW26521   4.462  10.551  10.038  0.6746 -0.3443 -0.0017
71599SOL    HW126522   4.547  10.507  10.033  0.2676 -1.0579 -0.8915
71599SOL    HW226523   4.404  10.487  10.079 -0.3473 -1.3895 -2.8664
71600SOL     OW26524   7.080   2.381  12.875  0.2190  0.7006  0.2210
71600SOL    HW126525   7.085   2.291  12.906 -1.5938  0.3132 -0.4850
71600SOL    HW226526   7.167   2.399  12.840  1.3897  0.1193  2.6075
71601SOL     OW26527   1.960   4.668  10.648 -0.6004  0.1097  0.8912
71601SOL    HW126528   1.933   4.685  10.739 -0.5590 -0.5157  1.0228
71601SOL    HW226529   1.880   4.682  10.597 -0.0303  3.2557  0.6435
71602SOL     OW26530   7.709   0.155  13.654 -0.1313 -0.0677 -0.0154
71602SOL    HW126531   7.751   0.174  13.570 -2.0761 -1.3543 -1.3766
71602SOL    HW226532   7.692   0.061  13.651 -1.5341  0.1115  1.1766
71603SOL     OW26533   3.149  12.611   1.593  0.0022 -0.0257 -0.1507
71603SOL    HW126534   3.097  12.687   1.566 -0.1197 -0.7937 -2.3047
71603SOL    HW226535   3.153  12.556   1.514  0.4005 -2.0768  1.2256
71604SOL     OW26536  10.669   3.506  13.172  0.3632  0.5234  0.4271
71604SOL    HW126537  10.706   3.418  13.186  0.6068  0.9813  3.4337
71604SOL    HW226538  10.574   3.493  13.179  0.4437  0.6190  2.5077
71605SOL     OW26539   4.837  12.672   9.570  0.0464  0.6284 -0.0220
71605SOL    HW126540   4.900  12.644   9.636 -0.2257  1.0254  0.4105
71605SOL    HW226541   4.803  12.590   9.534 -0.4949  0.3834  0.9962
71606SOL     OW26542  13.534   4.097   2.584 -0.3555 -0.6134  0.5673
71606SOL    HW126543  13.561   4.012   2.548 -0.3001 -0.3575 -0.0004
71606SOL    HW226544  13.482   4.074   2.662  0.6401 -1.1347  1.0970
71607SOL     OW26545  13.134   4.705  10.141 -0.5517 -0.0108  0.9148
71607SOL    HW126546  13.176   4.790  10.141 -0.8829  0.2393 -1.6689
71607SOL    HW226547  13.205   4.643  10.126 -0.5859  0.0506  0.4748
71608SOL     OW26548   2.070  12.544  10.957  0.3446  0.1155 -0.3853
71608SOL    HW126549   2.033  12.496  10.883  1.2690  0.4603 -1.0854
71608SOL    HW226550   2.149  12.495  10.981 -0.8048 -0.9467  1.4745
71609SOL     OW26551   9.060  13.032  11.645  0.3897  0.3377  0.2251
71609SOL    HW126552   9.008  12.987  11.711  0.7538 -0.3976  0.0232
71609SOL    HW226553   9.031  13.123  11.649  0.8838  0.4520  1.8716
71610SOL     OW26554   1.273   3.155   9.180  0.3261 -0.2987  0.1888
71610SOL    HW126555   1.249   3.247   9.187  0.6433 -0.0614 -1.4177
71610SOL    HW226556   1.215   3.110   9.241 -0.0397  0.9284  0.7698
71611SOL     OW26557   8.014  11.004   6.092  0.5441  0.2604  0.6321
71611SOL    HW126558   8.085  10.941   6.096 -0.9654 -1.5123  0.5694
71611SOL    HW226559   8.052  11.085   6.127  2.9379 -0.2352 -0.6061
71612SOL     OW26560  13.486   8.645   8.888 -0.3304  0.3362  0.2083
71612SOL    HW126561  13.392   8.663   8.891 -0.3332  0.2499  0.5560
71612SOL    HW226562  13.493   8.552   8.868 -0.3182  0.2592  0.5776
71613SOL     OW26563  12.327   5.152  10.028 -0.1530 -0.1052  0.7275
71613SOL    HW126564  12.384   5.227  10.042  0.6638 -0.3454 -0.9941
71613SOL    HW226565  12.263   5.157  10.098  1.1092  1.0172  1.8590
71614SOL     OW26566  10.905   7.128   7.054 -0.4401 -0.0411 -0.0474
71614SOL    HW126567  10.851   7.078   6.992 -1.8196  2.5015 -1.0455
71614SOL    HW226568  10.842   7.181   7.103  0.9681  1.1199  0.5803
71615SOL     OW26569   6.013   0.746   9.978 -0.5867 -0.2877  0.1106
71615SOL    HW126570   6.001   0.840   9.991 -0.0701  0.2428 -2.7435
71615SOL    HW226571   5.930   0.716   9.942 -1.3071 -1.3053  2.4469
71616SOL     OW26572   4.915  10.963   4.005  0.0811 -0.0112 -0.0950
71616SOL    HW126573   4.967  10.917   4.071  1.5160 -0.0670 -1.2085
71616SOL    HW226574   4.907  11.052   4.038 -1.4563 -0.6385  1.3715
71617SOL     OW26575   7.024   9.530   1.496 -0.2476 -0.2371 -0.6275
71617SOL    HW126576   7.041   9.621   1.520  1.4223 -0.7739  0.4213
71617SOL    HW226577   6.951   9.504   1.553 -0.4999  0.3301 -0.6809
71618SOL     OW26578   9.062   9.056   1.233  0.2602 -0.6729 -0.1510
71618SOL    HW126579   9.053   9.151   1.244  0.8656 -0.7678  1.4277
71618SOL    HW226580   8.978   9.020   1.263  1.7077 -0.8921  4.2289
71619SOL     OW26581   9.779  10.845   1.289 -0.6845 -0.1326  0.1507
71619SOL    HW126582   9.857  10.900   1.295 -0.5559 -0.1815 -0.9090
71619SOL    HW226583   9.762  10.818   1.379 -1.0697  2.0751  0.8063
71620SOL     OW26584   9.451   3.369   6.135 -0.0772 -0.1968  0.3545
71620SOL    HW126585   9.441   3.293   6.193 -0.8148 -0.1697  0.2688
71620SOL    HW226586   9.522   3.419   6.174  0.0239 -0.6317  0.7403
71621SOL     OW26587   0.988   6.654   6.790  0.1662  0.1646 -0.0740
71621SOL    HW126588   0.919   6.681   6.730 -0.1234 -1.2502 -0.4138
71621SOL    HW226589   1.023   6.736   6.825 -0.2734  0.9810 -1.4740
71622SOL     OW26590   6.638  11.932   2.495  0.1085  0.3064  0.4510
71622SOL    HW126591   6.671  12.020   2.512  0.9598 -0.2818  2.0988
71622SOL    HW226592   6.543  11.942   2.490  0.2713  1.5180 -0.9329
71623SOL     OW26593  12.458   1.624   7.587  0.2678  0.2479  0.6513
71623SOL    HW126594  12.477   1.710   7.549 -0.0601  1.0143  2.1421
71623SOL    HW226595  12.362   1.620   7.591  0.2703 -0.4022  0.1310
71624SOL     OW26596   3.621   7.743   5.239  0.2718 -0.6981 -0.3171
71624SOL    HW126597   3.565   7.786   5.303 -2.1029 -1.5216 -1.6926
71624SOL    HW226598   3.691   7.703   5.290  0.4994  1.6214  1.3442
71625SOL     OW26599   8.014  11.686   2.702  0.6331 -0.2728 -0.2891
71625SOL    HW126600   7.921  11.680   2.726  0.3985  0.0313 -1.1035
71625SOL    HW226601   8.023  11.772   2.662  1.3730 -0.1190  0.1831
71626SOL     OW26602   8.630   7.249   9.837  0.4400 -0.3059 -0.6218
71626SOL    HW126603   8.637   7.155   9.852  0.4243 -0.0958  0.9407
71626SOL    HW226604   8.664   7.288   9.918  0.3326  1.0263 -1.1971
71627SOL     OW26605   4.474   1.079   1.715 -0.2223  0.7140 -0.1346
71627SOL    HW126606   4.384   1.111   1.724 -0.3735  0.3425 -0.3100
71627SOL    HW226607   4.511   1.129   1.643 -0.9887 -0.6414 -1.5320
71628SOL     OW26608   9.766   1.668   9.946  0.3855 -0.6675 -0.2407
71628SOL    HW126609   9.709   1.744   9.960  0.3991 -0.7895  0.5433
71628SOL    HW226610   9.770   1.657   9.851 -0.0821 -0.0402 -0.3351
71629SOL     OW26611  10.403   7.193   8.011  0.4022 -0.1629  0.6662
71629SOL    HW126612  10.390   7.099   8.025  0.0552 -0.1709  0.2961
71629SOL    HW226613  10.426   7.200   7.919  1.2354  0.0362  0.8806
71630SOL     OW26614   0.245   2.711   0.859 -0.3752  0.3288 -0.9049
71630SOL    HW126615   0.174   2.709   0.794 -0.1153  1.9005 -1.2754
71630SOL    HW226616   0.324   2.693   0.808 -0.4561 -1.3092 -0.5103
71631SOL     OW26617   9.894   8.824  10.321 -0.3750 -0.0809  0.9344
71631SOL    HW126618   9.837   8.753  10.292  0.1721 -0.1854  0.0895
71631SOL    HW226619   9.983   8.790  10.311 -0.1037  0.7374  0.4751
71632SOL     OW26620   9.870   2.826   5.842 -0.0196  0.4835  0.8875
71632SOL    HW126621   9.849   2.870   5.760  0.1362 -0.0459  0.5633
71632SOL    HW226622   9.882   2.735   5.819  0.0199  0.3258  1.5024
71633SOL     OW26623   4.570   4.868   2.753 -0.4841 -0.3295 -0.0638
71633SOL    HW126624   4.641   4.853   2.691 -0.6653  0.9836 -0.6202
71633SOL    HW226625   4.574   4.793   2.812  0.5432 -0.9289 -0.8559
71634SOL     OW26626   8.962   4.261  13.090  0.3070 -0.5197  0.1398
71634SOL    HW126627   8.983   4.200  13.020 -2.3975 -0.5801 -0.7241
71634SOL    HW226628   8.866   4.266  13.090  0.3198  3.8582  0.0080
71635SOL     OW26629   2.524   9.860   8.329 -0.7112 -0.1199 -0.2813
71635SOL    HW126630   2.435   9.839   8.302 -0.6652 -0.3480 -0.2637
71635SOL    HW226631   2.525   9.955   8.340 -1.0459 -0.1546  0.0609
71636SOL     OW26632   6.843  10.026   3.381 -0.2034 -0.1181  0.3240
71636SOL    HW126633   6.850  10.114   3.418  2.6144 -1.0370  2.2927
71636SOL    HW226634   6.814   9.971   3.453  2.1250 -1.4210  0.3783
71637SOL     OW26635  12.823   5.059  11.496 -0.1041 -0.0372  0.2216
71637SOL    HW126636  12.817   5.051  11.400 -0.8030  0.5800  0.2065
71637SOL    HW226637  12.862   4.976  11.524 -1.1319 -0.7957 -0.4822
71638SOL     OW26638   0.353  11.492   7.656  0.3443 -0.0116  0.6379
71638SOL    HW126639   0.448  11.478   7.656  0.3298 -0.1293 -0.0922
71638SOL    HW226640   0.318  11.420   7.603 -0.0692  0.5764  0.0924
71639SOL     OW26641   3.738   3.129   0.499  0.0669  0.0414  0.3648
71639SOL    HW126642   3.751   3.173   0.583  0.5874 -0.1840  0.4074
71639SOL    HW226643   3.790   3.180   0.437 -1.7128  1.2899 -0.2020
71640SOL     OW26644  12.039   5.962   7.052 -0.3712  0.0156  0.3804
71640SOL    HW126645  12.057   5.918   6.969 -0.3674 -0.4075  0.6056
71640SOL    HW226646  12.119   5.950   7.103  0.9443  2.9939 -0.6942
71641SOL     OW26647   1.970  13.390   1.832  0.1544 -0.2391  0.0291
71641SOL    HW126648   2.030  13.451   1.874 -2.0989  1.0774  1.5181
71641SOL    HW226649   1.920  13.444   1.770 -0.8234 -0.8795  0.2360
71642SOL     OW26650  11.253  11.578   3.948 -0.0246  0.4833  0.0644
71642SOL    HW126651  11.237  11.604   4.038  1.2499 -4.1040  1.9322
71642SOL    HW226652  11.348  11.568   3.942 -0.1972 -0.7805 -1.2285
71643SOL     OW26653   0.474  13.076   8.198 -0.0160  0.0837 -0.0807
71643SOL    HW126654   0.439  12.987   8.202 -0.9713  0.4415 -0.1888
71643SOL    HW226655   0.408  13.130   8.242  1.1819  0.5675  1.2028
71644SOL     OW26656  12.691  13.715   8.835 -0.1021 -0.0650 -0.2740
71644SOL    HW126657  12.681  13.809   8.849 -0.5721 -0.2421  0.6551
71644SOL    HW226658  12.706  13.706   8.741  3.1255  1.2061 -0.0188
71645SOL     OW26659   9.695  12.126   1.521 -0.2492  0.1177 -0.1137
71645SOL    HW126660   9.688  12.031   1.506  0.4741 -0.0898  0.7566
71645SOL    HW226661   9.615  12.162   1.483 -0.8928 -0.9278  0.1749
71646SOL     OW26662  11.505   6.992   6.128 -0.1875  0.2234 -0.2309
71646SOL    HW126663  11.468   7.025   6.210 -0.6152  0.3369 -0.4673
71646SOL    HW226664  11.430   6.960   6.079  0.2933 -1.8519  0.3055
71647SOL     OW26665   1.237   7.837   1.441 -0.5486 -0.1296 -0.6310
71647SOL    HW126666   1.222   7.753   1.399  0.2910 -0.2596 -0.6780
71647SOL    HW226667   1.313   7.823   1.497 -0.1196  0.7209 -0.9822
71648SOL     OW26668   1.691   7.385   2.715  0.6856  0.3402  0.0023
71648SOL    HW126669   1.779   7.347   2.715  0.8780  0.7822 -0.0103
71648SOL    HW226670   1.656   7.365   2.628  0.5673 -0.3018  0.1940
71649SOL     OW26671   5.863   2.089   6.584  0.3217  0.1145  0.9582
71649SOL    HW126672   5.786   2.032   6.588 -0.6838  1.4554  1.5799
71649SOL    HW226673   5.829   2.171   6.548  1.9876 -0.0486 -1.1987
71650SOL     OW26674   1.603   2.564  10.338 -0.1478 -0.2214  0.0451
71650SOL    HW126675   1.684   2.594  10.296  0.4162 -2.0495 -0.2427
71650SOL    HW226676   1.621   2.474  10.364 -2.8302 -1.5783 -2.1876
71651SOL     OW26677   4.191   5.338  10.438  0.0958 -0.0620 -0.0839
71651SOL    HW126678   4.248   5.344  10.515  0.7730 -0.3226 -0.5482
71651SOL    HW226679   4.148   5.253  10.447 -0.4262  0.2474  0.4023
71652SOL     OW26680  11.297   8.877  12.365 -0.2304 -1.2725 -0.8358
71652SOL    HW126681  11.387   8.897  12.391 -1.6846  3.9833  1.5471
71652SOL    HW226682  11.293   8.899  12.272  0.6132  0.1282 -0.5611
71653SOL     OW26683   3.767  11.030   1.069 -0.0224  0.0194 -0.7288
71653SOL    HW126684   3.759  11.124   1.056 -0.4203 -0.2229 -2.5955
71653SOL    HW226685   3.856  11.009   1.041 -0.0188 -0.1943 -0.5626
71654SOL     OW26686   7.720   4.590   7.972 -0.1310  0.0719 -0.0616
71654SOL    HW126687   7.700   4.681   7.994 -0.6485 -0.1643  0.4812
71654SOL    HW226688   7.755   4.594   7.883 -0.6035  0.7492 -0.2313
71655SOL     OW26689   2.476   7.353  11.487 -0.3929 -0.1217 -0.7511
71655SOL    HW126690   2.536   7.425  11.467 -0.7667  0.1840 -0.7826
71655SOL    HW226691   2.483   7.295  11.412  0.6137 -0.5981 -0.3039
71656SOL     OW26692   8.562   7.416   5.280  0.4223  0.0739 -0.0611
71656SOL    HW126693   8.561   7.500   5.325  0.1187  0.1360 -0.1806
71656SOL    HW226694   8.637   7.369   5.317 -0.2615 -0.1719  1.0394
71657SOL     OW26695   0.744   5.866   9.874  0.8125 -0.4935  0.5180
71657SOL    HW126696   0.791   5.935   9.922  0.4299 -0.4340  0.8130
71657SOL    HW226697   0.773   5.785   9.916  0.7727 -0.4684  0.5943
71658SOL     OW26698   9.816   4.214   8.222  0.1315  0.4520 -0.1607
71658SOL    HW126699   9.852   4.290   8.177  0.3631 -0.1194 -0.9699
71658SOL    HW226700   9.893   4.166   8.253  0.1420 -0.7886 -1.9207
71659SOL     OW26701   7.632   3.538   3.853  0.1173  0.7904  0.2075
71659SOL    HW126702   7.702   3.473   3.861 -1.0022 -0.5062 -0.1627
71659SOL    HW226703   7.574   3.502   3.786 -0.1872  2.5232 -0.5197
71660SOL     OW26704   9.885  12.602  10.114 -0.0911  0.4698 -0.1716
71660SOL    HW126705   9.863  12.512  10.140  0.0880 -0.1157 -1.9305
71660SOL    HW226706   9.980  12.600  10.098  0.5242  1.7784  2.7157
71661SOL     OW26707   8.562   6.108   3.051  0.0976 -0.1701 -0.2920
71661SOL    HW126708   8.567   6.012   3.050  0.5658 -0.1500 -1.5839
71661SOL    HW226709   8.473   6.128   3.020  0.2236 -0.1869 -0.6735
71662SOL     OW26710   3.099   9.555  12.514 -0.2165  0.1671  0.3945
71662SOL    HW126711   3.088   9.590  12.602  0.9975  1.3559  0.1114
71662SOL    HW226712   3.026   9.593  12.464 -0.8261 -0.4005  0.8459
71663SOL     OW26713   9.210   3.990  13.446 -0.3890 -0.1934  0.3810
71663SOL    HW126714   9.274   4.003  13.516 -0.2799  1.6116  0.0041
71663SOL    HW226715   9.125   3.993  13.489 -0.2585 -2.0843  0.8155
71664SOL     OW26716   3.349  12.848   0.795  0.0750 -0.4484 -0.0448
71664SOL    HW126717   3.327  12.929   0.842 -2.5847 -0.8479 -0.4561
71664SOL    HW226718   3.331  12.778   0.858 -0.9255 -0.8639 -0.7830
71665SOL     OW26719   9.161   8.714   2.306 -0.4868 -0.7652 -0.5064
71665SOL    HW126720   9.212   8.643   2.266 -0.3273 -1.3177  0.6267
71665SOL    HW226721   9.105   8.746   2.235 -0.2719 -1.7635 -1.1545
71666SOL     OW26722   6.746  13.660  13.436  0.1823 -0.2294 -0.1419
71666SOL    HW126723   6.745  13.756  13.446 -1.2116 -0.0727 -1.4995
71666SOL    HW226724   6.792  13.646  13.353  0.7577 -0.7906  0.2585
71667SOL     OW26725  13.532  12.762   1.277  0.2129 -0.8134  0.2560
71667SOL    HW126726  13.443  12.799   1.274  0.5498  0.0437  0.6066
71667SOL    HW226727  13.522  12.679   1.324 -0.5494 -1.1663 -0.4949
71668SOL     OW26728   1.499   9.537  10.296  0.3709 -0.1570  0.1406
71668SOL    HW126729   1.436   9.569  10.231  1.4556 -1.0447 -1.4083
71668SOL    HW226730   1.473   9.580  10.378 -1.2925  0.6760 -0.7742
71669SOL     OW26731   9.879   1.817   2.345 -0.0279  0.5153  0.2705
71669SOL    HW126732   9.884   1.786   2.255 -0.5306 -3.0954  1.3325
71669SOL    HW226733   9.968   1.808   2.379 -0.2578 -0.1480  0.7072
71670SOL     OW26734   0.043   9.012   6.925 -0.1186  0.0773  0.4680
71670SOL    HW126735   0.115   9.043   6.981 -0.0678  0.4304  0.2130
71670SOL    HW226736  -0.029   9.072   6.944  0.1745  0.7471 -0.4844
71671SOL     OW26737  12.240  10.327   9.332  0.1532 -0.1770  0.6484
71671SOL    HW126738  12.223  10.326   9.426 -0.7332 -2.5915  0.5466
71671SOL    HW226739  12.301  10.255   9.318 -1.3510 -1.2552 -0.8205
71672SOL     OW26740   5.758  11.584  12.778  0.5207 -0.0688  0.5970
71672SOL    HW126741   5.739  11.586  12.685 -1.2719  1.2256  0.9481
71672SOL    HW226742   5.800  11.668  12.796  0.7919 -0.2823  0.9801
71673SOL     OW26743   1.908  13.445   6.641  0.2925 -0.2927  0.2221
71673SOL    HW126744   1.978  13.510   6.644 -1.2612  1.5123 -0.4806
71673SOL    HW226745   1.861  13.465   6.560 -0.8410 -1.6766  0.5015
71674SOL     OW26746  13.508   1.090   1.487  0.3322  0.1209  0.1746
71674SOL    HW126747  13.473   1.031   1.554  2.9111 -0.4479  1.1142
71674SOL    HW226748  13.430   1.130   1.448 -1.4201 -2.1455  1.0882
71675SOL     OW26749  11.628  12.500   6.078  0.6897 -0.1472 -0.3070
71675SOL    HW126750  11.680  12.457   6.010  1.5536 -0.1204  0.3275
71675SOL    HW226751  11.538  12.495   6.045  0.9111 -1.3745 -0.8063
71676SOL     OW26752   4.166   3.440  11.242  0.0921 -0.5098  0.0022
71676SOL    HW126753   4.171   3.366  11.302  0.3477 -0.5299 -0.0419
71676SOL    HW226754   4.081   3.432  11.200 -0.6334  0.1892  1.2576
71677SOL     OW26755   2.016   1.590   2.458  0.2360 -0.2064 -0.2600
71677SOL    HW126756   2.007   1.660   2.523 -0.4466 -0.0921 -0.4711
71677SOL    HW226757   2.002   1.510   2.508 -0.9136 -0.0881 -0.3662
71678SOL     OW26758  13.492  11.771   8.823  0.0905 -0.5671 -0.8589
71678SOL    HW126759  13.534  11.850   8.790 -0.9005 -0.2598 -1.4067
71678SOL    HW226760  13.424  11.750   8.759  0.3385 -1.8705 -0.7268
71679SOL     OW26761   6.044   1.815  13.284  0.1369 -0.1829 -0.6021
71679SOL    HW126762   6.115   1.843  13.342 -1.4077 -0.6806  1.6861
71679SOL    HW226763   6.068   1.727  13.257  1.5079  0.5359 -1.8522
71680SOL     OW26764  10.137   9.411   6.128 -0.0145 -0.0733  0.3795
71680SOL    HW126765  10.217   9.447   6.166  0.7304 -1.1356 -0.1338
71680SOL    HW226766  10.167   9.357   6.055 -1.1321 -1.3595  0.8311
71681SOL     OW26767   2.063   8.496  13.554  0.3138 -0.3512 -0.1227
71681SOL    HW126768   2.069   8.525  13.645  2.3433  0.0886 -0.3430
71681SOL    HW226769   2.105   8.567  13.504  1.8938 -1.8648 -1.0726
71682SOL     OW26770  11.892   1.714   3.243 -0.2468 -0.5806 -0.2822
71682SOL    HW126771  11.860   1.804   3.233 -1.4266 -0.9901 -0.3916
71682SOL    HW226772  11.915   1.707   3.335 -1.3430 -0.5133  0.0178
71683SOL     OW26773  11.538   0.096   2.407 -0.4060  0.0883 -0.0158
71683SOL    HW126774  11.520   0.171   2.464  4.2863  1.4331  0.1118
71683SOL    HW226775  11.534   0.132   2.318  1.9947  0.6732  0.0515
71684SOL     OW26776  12.593   3.168   4.373 -0.3298  0.5005  0.3429
71684SOL    HW126777  12.531   3.102   4.406  0.3611  0.1080  0.8741
71684SOL    HW226778  12.677   3.145   4.413 -0.3028  2.3907  1.5355
71685SOL     OW26779  10.167   5.058   0.949 -0.0308  0.3086  0.1467
71685SOL    HW126780  10.081   5.020   0.931 -0.5542  1.0452  0.9801
71685SOL    HW226781  10.167   5.073   1.044  1.3720 -0.5142  0.3108
71686SOL     OW26782  12.160  13.129  13.305 -0.3808 -0.5074  0.2112
71686SOL    HW126783  12.181  13.220  13.283  0.3894 -1.1569 -2.0528
71686SOL    HW226784  12.066  13.131  13.325 -0.6969  0.6129 -1.1469
71687SOL     OW26785   6.613   5.760   7.655 -0.2394 -0.5548  0.7353
71687SOL    HW126786   6.625   5.727   7.566  0.9651  0.1075  0.6443
71687SOL    HW226787   6.608   5.681   7.709 -0.9130 -0.9583  0.1033
71688SOL     OW26788  10.983  10.615   5.835  0.3175 -0.1169 -0.1770
71688SOL    HW126789  10.895  10.652   5.831 -0.1706 -1.3609 -2.1535
71688SOL    HW226790  10.982  10.556   5.911 -1.3027 -1.8339 -1.4593
71689SOL     OW26791   9.527   8.981  11.032  1.0173 -0.2800 -0.3231
71689SOL    HW126792   9.519   9.055  10.972  1.6685  0.8379  0.9259
71689SOL    HW226793   9.597   8.928  10.995 -0.6180 -1.2930 -2.2088
71690SOL     OW26794   4.711  11.396  10.099  0.7614  0.6822 -0.4333
71690SOL    HW126795   4.748  11.481  10.123  1.0043  0.8085 -1.2338
71690SOL    HW226796   4.759  11.370  10.021  0.5769 -0.1218 -0.2871
71691SOL     OW26797   4.079   0.589   4.627 -0.2824 -0.2231  0.3843
71691SOL    HW126798   3.984   0.577   4.626 -0.2069 -0.8264 -0.5422
71691SOL    HW226799   4.091   0.684   4.626 -0.9001 -0.1100 -2.2229
71692SOL     OW26800  11.423   2.166   3.877 -0.0302 -0.0561  0.0152
71692SOL    HW126801  11.451   2.256   3.893 -2.9001  1.0728 -0.6363
71692SOL    HW226802  11.474   2.138   3.801 -0.1455  1.6188 -0.7424
71693SOL     OW26803   7.143   4.158  11.213  0.0822 -0.5069 -0.1465
71693SOL    HW126804   7.191   4.120  11.140  0.3760  0.7949 -0.6574
71693SOL    HW226805   7.211   4.180  11.277 -0.0511 -0.5277  0.0040
71694SOL     OW26806  13.502   1.905   5.947  0.3569  0.3139  0.0636
71694SOL    HW126807  13.431   1.941   5.999  0.5919  1.0473 -0.1160
71694SOL    HW226808  13.461   1.835   5.896 -0.5291  1.5465 -0.9893
71695SOL     OW26809   9.236   2.901  10.193  0.8619 -0.4501  0.1842
71695SOL    HW126810   9.181   2.825  10.211  0.3474 -0.3059 -0.7188
71695SOL    HW226811   9.174   2.969  10.166  1.4075 -0.0247 -0.0099
71696SOL     OW26812   3.466   5.201  11.600  0.1600  0.1863  0.2383
71696SOL    HW126813   3.557   5.170  11.603 -0.6417 -2.3802  2.0772
71696SOL    HW226814   3.434   5.188  11.690 -2.1751  0.5397 -0.4882
71697SOL     OW26815  11.901   1.432   9.605 -0.4201 -0.3442  0.4205
71697SOL    HW126816  11.808   1.414   9.619 -0.6959 -0.2372 -1.1034
71697SOL    HW226817  11.911   1.431   9.510  1.0300  0.2154  0.5489
71698SOL     OW26818  10.145   6.823   2.429 -0.0631  0.2765 -0.2480
71698SOL    HW126819  10.172   6.914   2.446  0.5391  0.1956 -0.7399
71698SOL    HW226820  10.175   6.774   2.505  1.4793  0.1353 -0.9167
71699SOL     OW26821   0.936  13.403   4.003  0.3279 -0.1114  0.1501
71699SOL    HW126822   0.935  13.339   3.932 -2.2207 -0.6142  0.5456
71699SOL    HW226823   0.929  13.351   4.083 -0.9463  0.5881  0.5214
71700SOL     OW26824   6.611  11.113   6.508 -0.0258 -0.2258  0.3564
71700SOL    HW126825   6.623  11.208   6.507 -0.4277 -0.1749  0.0296
71700SOL    HW226826   6.518  11.100   6.487  0.4001 -0.7447 -1.3843
71701SOL     OW26827   7.015  10.985   5.821  0.2427  0.6886  0.0653
71701SOL    HW126828   7.080  11.054   5.805  1.6566 -0.5781  0.0950
71701SOL    HW226829   7.009  10.981   5.916  1.3443 -0.2458  0.1172
71702SOL     OW26830   7.943  11.983   1.433 -0.0669  0.6939 -0.0020
71702SOL    HW126831   7.910  12.072   1.443  1.1751  1.0384  1.4843
71702SOL    HW226832   7.993  11.984   1.351 -1.7926  0.7507 -1.1045
71703SOL     OW26833   1.192   7.735   5.303  0.3395 -0.1238  0.0021
71703SOL    HW126834   1.282   7.732   5.336 -0.4102 -2.2325  2.1312
71703SOL    HW226835   1.170   7.643   5.285 -1.9188  0.1003  1.2456
71704SOL     OW26836  11.509   2.489   9.258 -0.1798  0.6119 -0.1032
71704SOL    HW126837  11.556   2.465   9.338 -1.3039 -0.0800  0.3812
71704SOL    HW226838  11.536   2.579   9.241  0.6014  0.5436  0.6706
71705SOL     OW26839  10.275   7.067   8.405 -0.0834 -0.0476  0.2685
71705SOL    HW126840  10.203   7.042   8.347  0.0282 -1.0107  0.5324
71705SOL    HW226841  10.353   7.065   8.349 -0.1888  0.5814  0.0858
71706SOL     OW26842  11.835   5.596   7.065 -0.0031  1.2108  0.2750
71706SOL    HW126843  11.832   5.595   6.969  1.0738  1.3254  0.2312
71706SOL    HW226844  11.927   5.582   7.086 -0.3480  0.4227  1.3127
71707SOL     OW26845   4.150   4.184  11.039 -0.2156  0.1049  0.1547
71707SOL    HW126846   4.174   4.251  10.975 -0.6113 -1.9139 -2.2706
71707SOL    HW226847   4.056   4.195  11.052 -0.0625  0.7769  0.7295
71708SOL     OW26848  11.289   3.208   1.078  0.0033 -0.3057 -0.0187
71708SOL    HW126849  11.307   3.140   1.142  2.8433  2.0830  2.0351
71708SOL    HW226850  11.333   3.179   0.998  4.7604  0.5492  1.9104
71709SOL     OW26851  12.935   7.316   9.582  0.0885 -0.2794 -0.1500
71709SOL    HW126852  12.897   7.236   9.620  0.9972 -0.7424 -0.1773
71709SOL    HW226853  12.873   7.385   9.603 -0.5605 -0.9453  0.1536
71710SOL     OW26854   7.452   0.126  10.848  0.3500  0.1389  0.4783
71710SOL    HW126855   7.484   0.190  10.784  1.9898 -1.1566 -0.0812
71710SOL    HW226856   7.512   0.052  10.839 -0.3201 -0.7006  2.4635
71711SOL     OW26857   4.897   8.288   6.474 -0.3649 -0.3991 -0.1824
71711SOL    HW126858   4.948   8.241   6.540  1.2047 -1.9162 -2.3775
71711SOL    HW226859   4.916   8.381   6.491  0.1252 -0.7413  1.3461
71712SOL     OW26860   9.017   2.446   4.349 -0.5476 -0.0709 -0.0530
71712SOL    HW126861   8.965   2.456   4.430 -0.4100 -0.3933  0.0767
71712SOL    HW226862   9.017   2.352   4.333 -0.6270 -0.0023 -0.4682
71713SOL     OW26863   6.726   7.896  11.552 -1.0436  0.1336  0.1266
71713SOL    HW126864   6.696   7.876  11.640  0.7323 -0.3862  0.6574
71713SOL    HW226865   6.819   7.915  11.562 -0.7591 -0.1075 -1.6510
71714SOL     OW26866  11.717   4.419   2.705  0.2166 -0.6705  0.2869
71714SOL    HW126867  11.718   4.488   2.639 -3.0937 -0.5386  0.1969
71714SOL    HW226868  11.764   4.346   2.665 -1.4416 -0.5084 -2.1745
71715SOL     OW26869   5.576   0.101   2.311 -0.0763  0.5194 -0.3980
71715SOL    HW126870   5.585   0.106   2.406 -0.3954  0.6695 -0.3720
71715SOL    HW226871   5.651   0.050   2.281 -0.7696 -0.8196  0.0857
71716SOL     OW26872   5.297   3.630   7.618 -0.0948 -0.7714  0.2495
71716SOL    HW126873   5.263   3.678   7.542  0.2535  0.7388  1.0146
71716SOL    HW226874   5.390   3.650   7.620 -0.0402 -1.0586  0.8854
71717SOL     OW26875   0.092   0.099  11.943 -0.4019  0.1380  0.0502
71717SOL    HW126876   0.154   0.127  11.876  0.8338 -0.2039  1.0304
71717SOL    HW226877   0.033   0.174  11.954  0.7258  1.0415  0.1458
71718SOL     OW26878   7.367   1.847   2.470 -0.1932  0.1917  0.4291
71718SOL    HW126879   7.385   1.871   2.561 -0.3112 -0.1909  0.5580
71718SOL    HW226880   7.443   1.879   2.421 -0.5727  1.2494  0.5169
71719SOL     OW26881   3.591  10.624  10.990  1.0379  0.4169 -0.4804
71719SOL    HW126882   3.626  10.616  10.901 -1.1447  3.0119 -1.7030
71719SOL    HW226883   3.561  10.714  10.996 -4.1507 -1.0481  0.7900
71720SOL     OW26884  11.051   1.218   4.366  0.4266  0.1442  0.5844
71720SOL    HW126885  11.029   1.308   4.389 -0.2907 -0.4532  2.4537
71720SOL    HW226886  10.967   1.171   4.373  0.6919 -0.6005 -0.8296
71721SOL     OW26887  13.113   3.964   5.792  0.0780 -0.2112  0.2439
71721SOL    HW126888  13.155   3.956   5.707 -0.5014  0.1677 -0.0813
71721SOL    HW226889  13.029   3.919   5.782 -0.8213  1.4379  0.0299
71722SOL     OW26890   4.471   4.632   6.369 -0.1831  0.3934  0.3764
71722SOL    HW126891   4.488   4.573   6.442 -1.5573 -0.0234  0.3910
71722SOL    HW226892   4.444   4.575   6.297 -1.9277  0.9750  0.5133
71723SOL     OW26893   8.498   2.621   2.865  0.2703  0.3288  0.6686
71723SOL    HW126894   8.487   2.597   2.773  1.9296  0.9241  0.2946
71723SOL    HW226895   8.412   2.656   2.891 -0.4028 -0.4359 -0.4520
71724SOL     OW26896   2.048  13.439   2.619 -0.4960 -0.1943  0.1604
71724SOL    HW126897   1.991  13.435   2.542 -0.8632 -0.0285  0.4235
71724SOL    HW226898   1.993  13.475   2.688 -0.0485  0.0405  0.3961
71725SOL     OW26899   3.565   4.518   8.810 -0.2769  0.2902 -0.4628
71725SOL    HW126900   3.522   4.509   8.725 -3.0006 -0.4961  0.8772
71725SOL    HW226901   3.612   4.435   8.821 -2.4707 -0.9596  0.0403
71726SOL     OW26902   3.956  12.854   8.964  0.0016  0.4348  0.0386
71726SOL    HW126903   3.983  12.767   8.934 -0.1506  0.7922 -1.1616
71726SOL    HW226904   3.861  12.856   8.953  0.1967  1.4451 -1.9119
71727SOL     OW26905  10.661   0.943  11.372  0.2432 -0.0771 -0.9614
71727SOL    HW126906  10.706   0.863  11.400 -1.3818 -0.9569 -0.7394
71727SOL    HW226907  10.707   1.014  11.416  1.4730 -0.9143 -0.8500
71728SOL     OW26908   1.148  13.050   2.000 -0.1205 -0.5298  0.7996
71728SOL    HW126909   1.241  13.052   1.977 -0.8411  1.0024 -2.6933
71728SOL    HW226910   1.126  12.957   2.001  0.8637 -0.8710 -1.5895
71729SOL     OW26911   5.179   0.910  10.158 -0.0453  0.6843 -0.5546
71729SOL    HW126912   5.121   0.955  10.096  0.6686 -1.0738 -2.6598
71729SOL    HW226913   5.122   0.846  10.201 -0.4665  1.6624  0.3873
71730SOL     OW26914  12.007   5.998   5.986  0.2327  0.4438 -0.2607
71730SOL    HW126915  11.948   5.939   5.940  0.4715 -0.0431  0.0444
71730SOL    HW226916  12.057   5.941   6.045  0.5505  0.9337 -0.0464
71731SOL     OW26917  10.615   4.468   8.401  0.3603 -0.3831 -0.1227
71731SOL    HW126918  10.669   4.468   8.322  0.2822 -2.0214 -0.2071
71731SOL    HW226919  10.661   4.410   8.461 -0.4860 -0.5426  0.3850
71732SOL     OW26920   2.269  11.040   9.657 -0.2784  1.0032 -0.6562
71732SOL    HW126921   2.323  10.964   9.678 -0.0982  1.3305  0.1181
71732SOL    HW226922   2.189  11.028   9.708  0.1464  1.7899  0.2329
71733SOL     OW26923  12.719   3.737   8.931 -0.1044  0.6112 -0.4888
71733SOL    HW126924  12.708   3.650   8.970  0.8841  2.1453  3.8511
71733SOL    HW226925  12.630   3.767   8.912 -0.7211 -0.2004  0.9541
71734SOL     OW26926   5.999   6.897  12.996  0.0550 -0.7292  0.1003
71734SOL    HW126927   6.066   6.876  12.931 -0.3031 -1.0582 -0.1706
71734SOL    HW226928   5.986   6.992  12.988 -0.5937 -0.8881 -0.9117
71735SOL     OW26929  10.358   2.410   6.019  0.1362  0.4420 -0.2508
71735SOL    HW126930  10.418   2.484   6.015  3.1703 -1.8246  0.1760
71735SOL    HW226931  10.346   2.385   5.927  0.5459  0.3877 -0.2914
71736SOL     OW26932   3.513   8.376   7.963  0.5900 -0.4861  0.4660
71736SOL    HW126933   3.442   8.414   8.014  1.6193  1.1114  0.7733
71736SOL    HW226934   3.590   8.428   7.986  1.7370 -1.7578 -0.3371
71737SOL     OW26935  10.465   1.915   4.605 -0.1710 -0.2736  0.3381
71737SOL    HW126936  10.465   1.946   4.514 -0.4008 -0.2253  0.3539
71737SOL    HW226937  10.557   1.896   4.623 -0.1337 -0.3557  0.0720
71738SOL     OW26938   5.616   5.861   9.701 -0.1128 -0.0833 -0.3757
71738SOL    HW126939   5.632   5.799   9.772  0.3739  0.4060 -0.0513
71738SOL    HW226940   5.572   5.935   9.743  1.5493  0.8932 -0.2635
71739SOL     OW26941  11.252   5.592   1.369 -0.5459 -0.0751 -1.2068
71739SOL    HW126942  11.157   5.607   1.371 -0.5233  0.0293  0.7057
71739SOL    HW226943  11.289   5.679   1.354 -0.7437 -0.2325 -2.7769
71740SOL     OW26944   5.909   9.686   8.219  0.5358  0.3836 -0.9086
71740SOL    HW126945   5.858   9.652   8.293  0.9613 -0.7618 -1.1264
71740SOL    HW226946   5.990   9.718   8.259  1.7542 -2.2722 -1.0586
71741SOL     OW26947   1.429   9.894   6.625 -0.2444  0.6733  0.6818
71741SOL    HW126948   1.404   9.962   6.688  0.9453  0.1967  1.7071
71741SOL    HW226949   1.484   9.834   6.676  2.6490  1.4334 -1.3103
71742SOL     OW26950   3.690   6.152  13.189  0.6672 -1.0361 -0.2032
71742SOL    HW126951   3.674   6.105  13.270  0.6600 -0.7750 -0.0530
71742SOL    HW226952   3.698   6.084  13.122 -0.6380 -1.1971 -0.2180
71743SOL     OW26953   0.765   3.412  12.287  0.4115  0.0018  0.4023
71743SOL    HW126954   0.755   3.319  12.266 -1.4054  0.3537 -0.5009
71743SOL    HW226955   0.803   3.412  12.375  0.4034 -1.5885  0.4452
71744SOL     OW26956   0.649   0.727   6.715  0.4085  0.0691 -0.4492
71744SOL    HW126957   0.563   0.758   6.742 -0.1716 -1.8900  0.0891
71744SOL    HW226958   0.696   0.712   6.797  1.8345  2.4458 -0.7315
71745SOL     OW26959   9.496  11.458  10.764  0.3477 -0.5491 -0.1205
71745SOL    HW126960   9.441  11.503  10.699 -0.9144  0.0411  1.3000
71745SOL    HW226961   9.526  11.528  10.821  0.3205 -1.2177  0.7250
71746SOL     OW26962   8.472  13.417  13.500 -0.1099  0.3205  0.2805
71746SOL    HW126963   8.402  13.426  13.436  0.9500 -1.4070 -1.2275
71746SOL    HW226964   8.551  13.440  13.453  0.6884 -0.9331  0.9489
71747SOL     OW26965   0.472   3.743   9.079  0.7317 -0.8361 -0.6496
71747SOL    HW126966   0.434   3.757   9.166  1.1748  0.5893 -0.6626
71747SOL    HW226967   0.407   3.689   9.033 -0.6555  0.4101 -0.2259
71748SOL     OW26968   8.154  10.123   5.772 -0.5200  0.3050 -0.4977
71748SOL    HW126969   8.158  10.070   5.852  0.2359  0.8764 -0.1423
71748SOL    HW226970   8.083  10.185   5.787  0.2362  1.0419  0.1493
71749SOL     OW26971  10.253   5.547  11.001 -0.4986 -0.5546 -0.0866
71749SOL    HW126972  10.297   5.524  10.919 -0.9110  2.2234 -1.1982
71749SOL    HW226973  10.172   5.497  11.000 -0.1768 -1.0858 -1.0257
71750SOL     OW26974  10.706   1.460  12.954  0.1355 -0.4188  0.3868
71750SOL    HW126975  10.612   1.477  12.964  0.3699  2.1764 -1.0278
71750SOL    HW226976  10.710   1.371  12.917 -1.7770 -0.4394  0.1325
71751SOL     OW26977   1.895  11.804   8.181 -0.3403 -0.0141  0.4502
71751SOL    HW126978   1.929  11.721   8.147  1.8745  0.2723  1.7385
71751SOL    HW226979   1.967  11.866   8.168 -1.6367  1.5141  0.2907
71752SOL     OW26980   7.206  13.501  13.279 -0.4414 -0.7096 -0.2727
71752SOL    HW126981   7.129  13.559  13.275 -0.2012 -0.4211 -0.7486
71752SOL    HW226982   7.218  13.470  13.190  0.7309  0.2176 -0.4570
71753SOL     OW26983   2.517   5.619  11.253 -0.1878 -0.2041  0.3331
71753SOL    HW126984   2.426   5.602  11.276 -0.4144  2.0256  1.3925
71753SOL    HW226985   2.525   5.714  11.253  2.2055 -0.3264  0.5181
71754SOL     OW26986  10.041   4.584  11.288  0.1400 -0.1169  0.2083
71754SOL    HW126987  10.128   4.545  11.280  0.4569  0.1997  1.8014
71754SOL    HW226988   9.981   4.509  11.282  0.2780 -0.0906 -3.5434
71755SOL     OW26989  11.344   4.635   8.172  0.7782 -0.0101 -0.2870
71755SOL    HW126990  11.345   4.719   8.127 -0.0011 -0.6894 -1.6547
71755SOL    HW226991  11.431   4.598   8.154  1.1736  0.5441  0.4403
71756SOL     OW26992   6.962   5.692   9.891 -0.2490 -0.1840  0.5279
71756SOL    HW126993   6.950   5.768   9.833 -1.6833 -1.6190 -1.1528
71756SOL    HW226994   7.053   5.666   9.877 -0.3128  0.0540 -0.4033
71757SOL     OW26995  10.220   2.422   0.256 -0.3897 -0.6235  0.1566
71757SOL    HW126996  10.302   2.437   0.210  0.4912  1.1081  2.0998
71757SOL    HW226997  10.169   2.502   0.241 -0.5936 -0.5652  1.0522
71758SOL     OW26998   2.249   2.834   4.715 -0.1667  0.2777 -0.7237
71758SOL    HW126999   2.266   2.891   4.640 -0.2044  1.3493  0.0520
71758SOL    HW227000   2.240   2.894   4.789 -1.6913 -0.6307 -0.1209
71759SOL     OW27001   3.178   3.409   0.424  0.2976  0.6489 -0.1545
71759SOL    HW127002   3.205   3.424   0.515 -0.0458 -1.2327  0.2999
71759SOL    HW227003   3.085   3.387   0.430  0.6944 -1.3581 -0.7122
71760SOL     OW27004  13.519   3.973   3.426  0.0248 -0.0724 -0.4061
71760SOL    HW127005  13.518   3.879   3.441 -0.4256  0.0459  0.3955
71760SOL    HW227006  13.612   3.996   3.421  0.2628 -0.1811  2.1929
71761SOL     OW27007   7.397   7.076  10.098  0.0905  0.3200  0.0866
71761SOL    HW127008   7.450   6.997  10.104 -0.2140  0.2015  1.9738
71761SOL    HW227009   7.459   7.146  10.079  0.6701 -0.0615  0.5548
71762SOL     OW27010   9.936  12.240   5.688  0.1918  0.3339 -0.0947
71762SOL    HW127011  10.007  12.303   5.701 -0.3003  0.6762  1.0265
71762SOL    HW227012   9.913  12.248   5.595  0.1157  1.8360  0.0332
71763SOL     OW27013  12.619  12.927  12.715  0.7904  1.0492 -0.5528
71763SOL    HW127014  12.636  12.953  12.805  1.1691  1.2355 -0.6733
71763SOL    HW227015  12.706  12.910  12.679  0.5424 -1.0602 -0.2789
71764SOL     OW27016   9.525   0.340   3.512 -0.1991  0.0283 -0.1492
71764SOL    HW127017   9.539   0.326   3.606  0.8856 -1.6267 -0.5118
71764SOL    HW227018   9.609   0.317   3.472 -0.0018  2.6035 -1.4030
71765SOL     OW27019   1.423  11.123   6.003 -0.3100 -0.3968  0.4941
71765SOL    HW127020   1.475  11.190   6.048  1.5828 -0.7970 -0.9411
71765SOL    HW227021   1.384  11.071   6.073  0.0650  0.7974  1.6345
71766SOL     OW27022   8.877   6.992   4.968 -0.4574 -0.3206 -1.0589
71766SOL    HW127023   8.795   7.014   5.013  0.0994  0.2335 -0.2849
71766SOL    HW227024   8.936   7.064   4.989  0.9572 -1.7732  0.3098
71767SOL     OW27025  12.529   9.921   0.362 -0.2121 -0.2467  0.3388
71767SOL    HW127026  12.505   9.856   0.296  2.2598  0.9053 -1.8692
71767SOL    HW227027  12.544   9.870   0.442  1.3577 -2.4125 -1.2207
71768SOL     OW27028   8.719   8.497   4.516 -0.4514  0.1985  0.1808
71768SOL    HW127029   8.738   8.444   4.593  1.0276 -1.4113 -1.1977
71768SOL    HW227030   8.664   8.440   4.462  0.4145  0.3778 -0.9251
71769SOL     OW27031   4.580   1.940   8.554 -0.5486  0.3811 -0.1004
71769SOL    HW127032   4.658   1.907   8.509 -1.0899  1.0547 -1.6015
71769SOL    HW227033   4.532   1.861   8.579  0.4184 -0.0290  0.5073
71770SOL     OW27034  12.577   9.215   1.382 -0.4398 -0.1130  0.3009
71770SOL    HW127035  12.534   9.300   1.379  1.5711  0.9734  0.0139
71770SOL    HW227036  12.657   9.230   1.433  1.2490 -1.1592 -1.8579
71771SOL     OW27037   0.390  11.203  11.321 -0.2630  0.2072 -0.4338
71771SOL    HW127038   0.341  11.172  11.245  0.0194 -1.0189 -0.1288
71771SOL    HW227039   0.343  11.166  11.396  0.5898 -0.2267 -0.1066
71772SOL     OW27040   2.555   4.927   6.187 -0.3815 -0.3582 -0.0848
71772SOL    HW127041   2.604   4.854   6.225  2.2170  1.1273 -0.3339
71772SOL    HW227042   2.623   4.991   6.161 -2.5105  2.7802  1.4136
71773SOL     OW27043   5.006  11.024  12.644  0.1467 -0.4907  0.0500
71773SOL    HW127044   4.993  11.058  12.556 -3.1653 -0.9552  0.2255
71773SOL    HW227045   5.032  11.100  12.696 -0.2326  0.2682 -0.8623
71774SOL     OW27046   9.725  12.963  10.531 -0.2343  0.5748 -0.5229
71774SOL    HW127047   9.683  12.974  10.446 -1.4269 -0.7817 -0.1455
71774SOL    HW227048   9.653  12.963  10.594  0.4636 -0.1734  0.3085
71775SOL     OW27049   1.029  13.464   1.730 -0.2663  0.3733  0.4868
71775SOL    HW127050   1.047  13.373   1.704 -1.9867  0.2293 -0.3169
71775SOL    HW227051   1.036  13.463   1.826 -1.7001 -0.9857  0.6253
71776SOL     OW27052   5.567   0.000  12.922  0.3129  0.2527 -0.0359
71776SOL    HW127053   5.524  -0.069  12.972  1.9936 -0.8222  0.0059
71776SOL    HW227054   5.630   0.039  12.983 -0.1363  1.3994 -0.2650
71777SOL     OW27055   5.102  10.152  10.599 -0.0311  0.1716 -0.4201
71777SOL    HW127056   5.037  10.091  10.564 -0.3514  1.6287 -2.5096
71777SOL    HW227057   5.051  10.226  10.631  0.3692 -0.4779  1.9538
71778SOL     OW27058   2.178   9.612   4.134  0.4112 -0.0547  0.5402
71778SOL    HW127059   2.261   9.601   4.180 -0.0670  1.9275  2.0696
71778SOL    HW227060   2.125   9.538   4.162  0.9639 -0.1823  1.2878
71779SOL     OW27061   5.496   6.198   1.379 -0.1241 -0.3344 -0.1029
71779SOL    HW127062   5.407   6.186   1.346 -0.3091  0.8672 -0.0590
71779SOL    HW227063   5.533   6.266   1.324  0.5178 -0.2979  0.3645
71780SOL     OW27064  11.903  11.390  12.173  0.2191  0.4314 -0.4316
71780SOL    HW127065  11.850  11.393  12.094  0.7113  1.2043 -0.7456
71780SOL    HW227066  11.915  11.297  12.190 -1.1121  0.2487 -0.4264
71781SOL     OW27067  10.896   4.072   9.184 -0.8766 -0.1566  0.4485
71781SOL    HW127068  10.845   4.035   9.257 -0.3924 -1.0217  0.3612
71781SOL    HW227069  10.854   4.037   9.105 -1.7242  1.1980  0.2770
71782SOL     OW27070   1.814  10.363   4.625 -0.1918  0.2056  0.5725
71782SOL    HW127071   1.763  10.331   4.699 -2.2206 -0.0504 -0.8645
71782SOL    HW227072   1.759  10.430   4.585 -0.1949 -1.2050 -1.9988
71783SOL     OW27073   4.898  11.417   2.089  0.2903  0.7270 -0.1164
71783SOL    HW127074   4.915  11.325   2.109  0.3235  0.9350  0.8437
71783SOL    HW227075   4.803  11.424   2.088  0.2437  0.3384 -1.8841
71784SOL     OW27076  10.923   6.922   5.669 -0.3407 -0.3751 -0.1376
71784SOL    HW127077  10.846   6.865   5.664 -1.8188  1.3501  1.3001
71784SOL    HW227078  10.995   6.864   5.693 -1.2952 -1.9591 -0.9502
71785SOL     OW27079   9.437  13.004   3.608  0.6567  0.3148 -0.5281
71785SOL    HW127080   9.354  13.018   3.563  0.5107  0.6801 -0.1495
71785SOL    HW227081   9.502  13.052   3.556  0.1879  2.3845  0.6843
71786SOL     OW27082   2.161   6.611   9.917  0.0647  0.8095 -0.0360
71786SOL    HW127083   2.175   6.690   9.864 -0.7030  1.6680  0.9837
71786SOL    HW227084   2.153   6.644  10.007  0.7816 -0.5495  0.5509
71787SOL     OW27085   4.706  11.081   2.616 -0.0824 -0.0190 -0.0663
71787SOL    HW127086   4.636  11.054   2.676 -1.2774 -0.5571 -1.6222
71787SOL    HW227087   4.782  11.095   2.672 -1.7143  1.8028  1.9034
71788SOL     OW27088   3.364   1.279  13.562  0.6510  0.4652  0.3400
71788SOL    HW127089   3.277   1.315  13.584  1.0936  2.4236 -0.8443
71788SOL    HW227090   3.400   1.251  13.646 -0.7679  0.4590  0.9796
71789SOL     OW27091   6.778   2.178   2.290  0.1430 -0.2747 -0.0047
71789SOL    HW127092   6.697   2.143   2.328 -0.2022  0.6216  0.1337
71789SOL    HW227093   6.798   2.254   2.345  1.3496 -0.7679  0.2506
71790SOL     OW27094   7.850   2.584   7.937  0.1025  0.7489  0.1330
71790SOL    HW127095   7.842   2.619   8.025 -1.0264  1.1168 -0.1084
71790SOL    HW227096   7.909   2.509   7.947 -0.9516  0.0524  1.4055
71791SOL     OW27097   6.603   0.439   1.805 -0.2444 -0.1545 -0.4632
71791SOL    HW127098   6.629   0.350   1.831 -1.8574 -0.1616  1.2854
71791SOL    HW227099   6.508   0.440   1.812 -0.1743  2.2656  1.5247
71792SOL     OW27100   0.198   1.263   9.843  0.2145  0.2663 -0.2018
71792SOL    HW127101   0.201   1.190   9.782 -3.2571 -1.0467  0.9350
71792SOL    HW227102   0.208   1.341   9.788 -2.7588 -0.8286 -2.6366
71793SOL     OW27103   6.659  11.743   0.591  0.0749 -0.0084 -0.3535
71793SOL    HW127104   6.590  11.761   0.527 -0.7644  0.5093  0.6804
71793SOL    HW227105   6.664  11.647   0.595 -0.8065 -0.0529 -0.1977
71794SOL     OW27106  11.566   0.122  10.436 -0.4486 -0.1372 -0.7549
71794SOL    HW127107  11.561   0.074  10.353 -0.8511  1.7370 -1.8896
71794SOL    HW227108  11.483   0.104  10.479  0.0511 -1.7060 -0.3829
71795SOL     OW27109   9.303  12.384   5.459  0.5460 -0.3263 -0.9005
71795SOL    HW127110   9.388  12.401   5.417 -0.0234  0.1331 -1.9163
71795SOL    HW227111   9.261  12.470   5.463  0.0867 -0.5645 -0.5104
71796SOL     OW27112   4.799   3.077   1.251  0.1757  0.4013 -0.2910
71796SOL    HW127113   4.753   3.161   1.258 -0.1349  0.2818 -0.7941
71796SOL    HW227114   4.891   3.100   1.243  0.2589  0.6358  1.1145
71797SOL     OW27115   4.605   3.087  12.301 -0.0832 -0.4073 -0.5387
71797SOL    HW127116   4.663   3.038  12.359 -0.6313 -0.9252 -0.4224
71797SOL    HW227117   4.578   3.023  12.234  1.1073  0.3500 -1.8017
71798SOL     OW27118   7.630   8.767   3.854 -0.3144 -0.3324 -0.0989
71798SOL    HW127119   7.674   8.725   3.780  0.8827 -0.6292  0.7674
71798SOL    HW227120   7.618   8.697   3.918  1.0190  0.4537  1.0532
71799SOL     OW27121   4.672   2.182   7.965 -0.0675  0.0950  0.1721
71799SOL    HW127122   4.718   2.113   8.012 -1.2792  0.1053  1.4426
71799SOL    HW227123   4.732   2.209   7.896  1.1877 -0.9232  0.8378
71800SOL     OW27124   7.850   9.542  13.304 -0.0195 -0.4563 -0.6585
71800SOL    HW127125   7.789   9.583  13.242  0.1602 -0.5045 -0.8666
71800SOL    HW227126   7.830   9.448  13.297 -1.4435 -0.3082  0.8804
71801SOL     OW27127  13.149   5.726   7.511  0.0026  0.4549  0.2695
71801SOL    HW127128  13.099   5.729   7.429 -0.2221 -1.3099  0.3137
71801SOL    HW227129  13.086   5.753   7.578  0.0711  1.5019 -0.0659
71802SOL     OW27130   4.393   6.772   8.737 -0.2211  0.0433  0.0440
71802SOL    HW127131   4.480   6.764   8.775 -0.6834 -0.6745  1.0080
71802SOL    HW227132   4.402   6.837   8.668  0.8165  0.8596  0.9213
71803SOL     OW27133   0.922   2.736  11.034 -0.0323 -0.2323 -0.5280
71803SOL    HW127134   0.903   2.668  11.098 -0.6310 -1.1523 -1.6428
71803SOL    HW227135   1.009   2.768  11.057  0.8979 -2.4035 -0.8250
71804SOL     OW27136   9.481   0.319   7.865 -0.4916 -0.1221 -0.6571
71804SOL    HW127137   9.526   0.344   7.784 -1.1306 -0.4757 -1.1270
71804SOL    HW227138   9.524   0.237   7.890  1.4128  1.2112  0.7340
71805SOL     OW27139  13.292   0.909   6.624 -0.1171  0.1721 -0.2865
71805SOL    HW127140  13.200   0.883   6.618 -0.5718  1.4294  0.9062
71805SOL    HW227141  13.324   0.902   6.534 -1.2462 -0.7037 -0.6463
71806SOL     OW27142   3.169   8.355   5.192 -0.3969  0.0402 -0.4380
71806SOL    HW127143   3.220   8.378   5.269  0.3202 -0.1015 -0.8569
71806SOL    HW227144   3.235   8.328   5.127 -0.9230  0.8834 -1.3524
71807SOL     OW27145   3.681   5.594   5.461  0.0668  0.2158  0.0157
71807SOL    HW127146   3.694   5.675   5.510  1.6297  0.5341 -0.8595
71807SOL    HW227147   3.637   5.622   5.381  1.8955  0.4826 -0.9569
71808SOL     OW27148   0.946  11.103  11.251 -0.1309  0.4972  0.2387
71808SOL    HW127149   1.029  11.090  11.298 -0.0131  3.1631  0.8986
71808SOL    HW227150   0.882  11.056  11.305  0.8886 -1.8166 -0.4075
71809SOL     OW27151   7.664   5.510  11.078  0.6015 -0.9208 -0.2215
71809SOL    HW127152   7.708   5.439  11.032  0.7135 -2.7058  2.4145
71809SOL    HW227153   7.694   5.502  11.169 -1.3939  0.8624  0.6824
71810SOL     OW27154  11.327   2.505   7.662  0.3504 -0.0948  0.0099
71810SOL    HW127155  11.261   2.529   7.728  1.6922  2.1002  0.6708
71810SOL    HW227156  11.277   2.465   7.591 -1.1221 -3.0911  2.5007
71811SOL     OW27157   6.043   7.902   7.005 -0.2476 -0.2805 -0.3562
71811SOL    HW127158   6.003   7.977   6.962  1.8499  1.8903  1.1876
71811SOL    HW227159   5.982   7.877   7.074 -0.2416  1.1126  0.1727
71812SOL     OW27160   1.357   4.888   9.973 -0.1142 -0.0475 -0.0706
71812SOL    HW127161   1.368   4.838  10.054 -0.5116  0.1948  0.1368
71812SOL    HW227162   1.446   4.902   9.940  0.1071  0.6547  0.8127
71813SOL     OW27163   6.741   2.747   1.678  0.0088 -0.2181  0.0059
71813SOL    HW127164   6.808   2.806   1.645 -0.6181  0.8367  0.5767
71813SOL    HW227165   6.788   2.666   1.697  1.0223  0.3290 -0.1062
71814SOL     OW27166   7.110   3.882   0.554 -0.1599  0.4894  0.1991
71814SOL    HW127167   7.177   3.917   0.614 -0.4832  0.5915  0.5078
71814SOL    HW227168   7.066   3.815   0.606  0.9994 -0.9891 -0.6637
71815SOL     OW27169   6.127   0.769   1.290  0.7424 -0.2469  0.5581
71815SOL    HW127170   6.031   0.768   1.298  0.6758 -0.0828 -0.1415
71815SOL    HW227171   6.143   0.777   1.196  1.4384  0.4857  0.7266
71816SOL     OW27172   8.180  11.370   9.084 -0.4904  0.5205  0.3165
71816SOL    HW127173   8.259  11.422   9.072 -0.1118 -0.5641 -3.3903
71816SOL    HW227174   8.209  11.292   9.132  1.1043 -0.4414 -2.0370
71817SOL     OW27175  13.261   9.044   5.287  0.5290 -0.6364  0.1322
71817SOL    HW127176  13.202   8.976   5.255 -0.3675  0.5688 -0.8723
71817SOL    HW227177  13.291   9.090   5.209  2.1250 -0.6425  0.6963
71818SOL     OW27178   3.816  12.392   5.047 -0.5410 -0.5081 -0.3171
71818SOL    HW127179   3.796  12.341   5.126 -1.3115  0.9545  0.4773
71818SOL    HW227180   3.838  12.327   4.981 -0.5585 -1.8097  0.9215
71819SOL     OW27181  13.579   5.443   0.747 -0.2136  0.3011 -0.5784
71819SOL    HW127182  13.525   5.367   0.724  1.1943 -0.6046 -1.0777
71819SOL    HW227183  13.668   5.414   0.728  0.6983  0.9146  2.3037
71820SOL     OW27184  10.522   9.992   6.616  0.4454 -0.4284  0.5801
71820SOL    HW127185  10.548  10.036   6.535  0.7863 -0.0058  0.9147
71820SOL    HW227186  10.431  10.017   6.629  0.5873  0.0333  0.6768
71821SOL     OW27187  10.543   7.933  12.102  0.3689 -0.3113 -0.1839
71821SOL    HW127188  10.492   8.004  12.141 -0.5991 -0.4733 -1.1014
71821SOL    HW227189  10.517   7.855  12.152  0.3876 -0.2443 -0.0708
71822SOL     OW27190   5.426   2.509  11.933  0.4162  0.0406 -0.4279
71822SOL    HW127191   5.371   2.572  11.887  1.2490 -0.0738 -1.6497
71822SOL    HW227192   5.408   2.426  11.891  0.7819 -0.1743 -0.1721
71823SOL     OW27193   4.415  12.816   4.345 -0.0670 -0.8141 -0.2563
71823SOL    HW127194   4.480  12.840   4.411 -0.0919  0.5937 -0.7181
71823SOL    HW227195   4.406  12.721   4.354  0.6301 -0.7724  1.1093
71824SOL     OW27196   1.565  12.564   7.347 -0.0501 -0.0156 -0.1708
71824SOL    HW127197   1.558  12.638   7.286  0.6100 -1.3094 -1.9057
71824SOL    HW227198   1.604  12.494   7.295  2.4748 -0.6167  2.2624
71825SOL     OW27199   3.904   1.747  13.149 -0.1732 -0.0381 -0.2087
71825SOL    HW127200   3.890   1.714  13.238  0.9046  2.2416  0.8810
71825SOL    HW227201   3.862   1.833  13.148 -1.3867 -0.5674 -2.3928
71826SOL     OW27202   0.107   7.271   2.288  0.3524 -0.6923 -0.2807
71826SOL    HW127203   0.120   7.365   2.277 -0.3560 -0.6932 -1.2222
71826SOL    HW227204   0.062   7.263   2.373 -0.0653 -0.1398 -0.4476
71827SOL     OW27205   9.777   5.989   0.843 -0.0656  0.2896 -0.0821
71827SOL    HW127206   9.743   6.025   0.762 -2.9103  1.3442  1.4630
71827SOL    HW227207   9.782   6.063   0.903  0.6282 -0.7087  1.1507
71828SOL     OW27208   1.094   4.120  11.083 -0.6599 -0.7726  0.1250
71828SOL    HW127209   1.165   4.138  11.145 -0.2055  0.5574 -0.7395
71828SOL    HW227210   1.033   4.065  11.132 -0.0053 -0.2864  1.5417
71829SOL     OW27211  11.797   8.846  13.122  0.7404  0.4333 -0.1372
71829SOL    HW127212  11.725   8.866  13.182 -0.7353 -2.5094 -0.7056
71829SOL    HW227213  11.775   8.892  13.041 -1.0241 -0.9909 -0.5453
71830SOL     OW27214  10.556  13.393  13.053  0.1593 -0.0574  0.3201
71830SOL    HW127215  10.586  13.418  13.141 -0.6416  0.2992  0.5075
71830SOL    HW227216  10.488  13.457  13.032  0.5685  0.0567 -0.7059
71831SOL     OW27217   6.619   6.281  10.567  0.3307 -0.2354  0.0413
71831SOL    HW127218   6.617   6.373  10.541  0.5529 -0.1905  0.1752
71831SOL    HW227219   6.707   6.269  10.605 -0.0011 -0.2754  0.8241
71832SOL     OW27220   5.092   4.669   6.543 -0.2702 -0.1393  0.2599
71832SOL    HW127221   5.015   4.694   6.595 -1.2962 -0.9501 -0.8019
71832SOL    HW227222   5.061   4.674   6.452  0.5551 -1.6823 -0.1404
71833SOL     OW27223   1.899   8.292   6.507 -0.2553 -0.3612 -0.0463
71833SOL    HW127224   1.850   8.220   6.466 -0.3914 -1.1779  1.4813
71833SOL    HW227225   1.982   8.294   6.460 -0.7106 -0.7327 -0.8941
71834SOL     OW27226  12.042   2.084   1.031 -0.0427 -0.3423  0.0524
71834SOL    HW127227  12.133   2.099   1.055  0.4616 -2.1466 -0.5328
71834SOL    HW227228  12.002   2.046   1.109  0.1173 -0.9000 -0.1251
71835SOL     OW27229   2.007   1.214  10.437  0.5492 -0.6247  0.2852
71835SOL    HW127230   2.082   1.201  10.495  0.5837 -1.1882  0.1176
71835SOL    HW227231   2.017   1.147  10.370  0.3639 -0.1473 -0.2246
71836SOL     OW27232  13.119   8.337   8.395 -0.4206 -0.3956  0.6893
71836SOL    HW127233  13.189   8.321   8.459 -0.3291 -1.0292  0.4418
71836SOL    HW227234  13.130   8.267   8.330  0.3959  1.0572 -0.8095
71837SOL     OW27235   7.329  13.043   5.091 -0.5624  0.2141  0.0919
71837SOL    HW127236   7.326  12.956   5.051 -2.0718  0.4901 -0.4318
71837SOL    HW227237   7.327  13.104   5.017 -1.6138  0.7052  0.5043
71838SOL     OW27238   2.899  10.446   6.835  0.0040 -0.1193  0.0558
71838SOL    HW127239   2.958  10.422   6.907 -1.1177  0.5636  1.2468
71838SOL    HW227240   2.827  10.492   6.878 -1.5311 -1.1394 -1.3150
71839SOL     OW27241   7.637   9.004  10.087 -0.1226  0.8145  0.7017
71839SOL    HW127242   7.620   8.960  10.170 -0.7594 -2.7641 -1.0990
71839SOL    HW227243   7.731   9.020  10.087  0.0265  0.0321  1.7494
71840SOL     OW27244  12.252   9.574   3.631 -0.2401 -0.4795  0.2866
71840SOL    HW127245  12.200   9.522   3.569  0.6982  0.7453 -1.6039
71840SOL    HW227246  12.201   9.654   3.643  1.7857  1.5152 -2.9345
71841SOL     OW27247   3.586   3.041   1.818 -0.1894  0.2140  0.2963
71841SOL    HW127248   3.617   3.054   1.907 -1.0683  0.9572  0.5061
71841SOL    HW227249   3.631   2.962   1.788 -0.0225 -0.1438  1.4566
71842SOL     OW27250  12.387   1.086   8.620  0.4943  0.7236 -0.1314
71842SOL    HW127251  12.358   0.997   8.599 -0.4039 -0.0819  3.6907
71842SOL    HW227252  12.307   1.139   8.613  0.9288  1.1994 -1.9305
71843SOL     OW27253  10.832   7.323   4.828  0.2091 -0.3786  0.6330
71843SOL    HW127254  10.882   7.392   4.873 -0.1708  0.3372 -0.0285
71843SOL    HW227255  10.751   7.316   4.878 -0.3243  0.5970 -0.0625
71844SOL     OW27256   7.738   1.217   7.891  0.4469  0.1124  0.0497
71844SOL    HW127257   7.739   1.179   7.978  0.2475  0.2737  0.1240
71844SOL    HW227258   7.788   1.298   7.899  0.3809  0.1558  0.0279
71845SOL     OW27259   7.106   5.224   4.348 -0.5660  0.0766  0.4525
71845SOL    HW127260   7.101   5.134   4.317 -2.2438 -0.1178  1.1655
71845SOL    HW227261   7.025   5.237   4.398 -0.0528  1.7701  0.9301
71846SOL     OW27262   6.504   0.900  11.317 -0.1594 -0.5970 -0.0854
71846SOL    HW127263   6.527   0.962  11.249 -1.0431  0.1514  0.2833
71846SOL    HW227264   6.453   0.951  11.380 -1.1775 -1.7489  0.0660
71847SOL     OW27265   5.181  11.059   1.554  0.0390 -0.5525  0.0067
71847SOL    HW127266   5.167  11.149   1.584 -2.5385 -0.3644 -1.4192
71847SOL    HW227267   5.161  11.005   1.631  0.6732  0.0612  0.6135
71848SOL     OW27268   4.988   4.033   6.462 -0.1848 -1.3311 -0.0494
71848SOL    HW127269   5.029   4.118   6.444 -1.0977 -0.8276  0.1708
71848SOL    HW227270   4.923   4.023   6.393 -0.9015 -1.2878  0.6034
71849SOL     OW27271   5.114  11.684   0.814 -0.5832  0.3264 -0.3176
71849SOL    HW127272   5.188  11.701   0.873 -1.7619  2.3615  0.7195
71849SOL    HW227273   5.106  11.765   0.763 -0.3031 -0.9846 -2.5641
71850SOL     OW27274   2.544   4.859  12.749  0.3591 -0.0837 -0.4898
71850SOL    HW127275   2.566   4.935  12.695 -1.6106 -0.7222 -2.3224
71850SOL    HW227276   2.455   4.875  12.777  0.7690 -0.5946  1.1993
71851SOL     OW27277   1.748   9.345   9.797 -0.2173 -0.2961  0.6738
71851SOL    HW127278   1.835   9.384   9.792 -0.4712  0.2578  0.5016
71851SOL    HW227279   1.763   9.255   9.826  0.3439  0.0811  1.6068
71852SOL     OW27280   2.353   1.778   6.390 -0.3525  0.3753  0.4544
71852SOL    HW127281   2.433   1.817   6.354 -1.1084 -0.1910 -2.0523
71852SOL    HW227282   2.384   1.701   6.438  0.6727  0.7580  0.4393
71853SOL     OW27283   5.555   8.874  11.679 -0.2015  0.1919  0.4334
71853SOL    HW127284   5.497   8.799  11.682  1.6733 -1.3260  1.0330
71853SOL    HW227285   5.558   8.899  11.587 -1.5470  0.1351  0.3617
71854SOL     OW27286   2.259   4.822  12.118  0.1209 -0.2898 -0.2542
71854SOL    HW127287   2.263   4.730  12.092 -0.7794 -0.3971 -0.0497
71854SOL    HW227288   2.312   4.826  12.198 -0.7774 -0.8926  0.4004
71855SOL     OW27289   7.049   2.061   2.395 -0.4032 -0.4505 -0.2416
71855SOL    HW127290   7.034   2.051   2.489  1.0888 -0.2528  0.0504
71855SOL    HW227291   6.976   2.114   2.365 -1.1393 -0.8869  0.7301
71856SOL     OW27292   1.341   5.009   5.295  0.4256 -0.2669 -0.2247
71856SOL    HW127293   1.324   5.100   5.271 -0.7481 -0.3236  0.2768
71856SOL    HW227294   1.399   5.015   5.371 -0.6052  0.1313  0.5601
71857SOL     OW27295   2.459   0.007   7.571 -0.1534 -1.3310  0.4287
71857SOL    HW127296   2.412   0.033   7.491 -0.0854  0.6764  1.0038
71857SOL    HW227297   2.404   0.038   7.642  0.6771 -1.4825  1.1466
71858SOL     OW27298   0.610   8.841   1.760  0.2611  0.0336  0.4441
71858SOL    HW127299   0.556   8.816   1.835 -0.6696  0.2143 -0.1408
71858SOL    HW227300   0.557   8.906   1.713  1.3313  0.8123  0.2768
71859SOL     OW27301   8.384  12.799   6.078  0.5581  0.5259 -0.6842
71859SOL    HW127302   8.433  12.787   6.160  0.8450 -2.4464 -1.1721
71859SOL    HW227303   8.306  12.746   6.089  1.2841 -1.1151 -2.8223
71860SOL     OW27304  13.130   5.200   7.552 -0.0204 -0.1947 -0.4022
71860SOL    HW127305  13.041   5.233   7.566 -0.2120 -1.0814  0.5869
71860SOL    HW227306  13.154   5.232   7.465 -0.2536  2.3929  0.3876
71861SOL     OW27307   6.563   4.909   8.826  0.6975 -0.5374  0.1329
71861SOL    HW127308   6.525   4.835   8.778  0.7138 -1.1017  0.9718
71861SOL    HW227309   6.494   4.975   8.826  0.7936 -0.4265 -0.8910
71862SOL     OW27310   4.760   0.852   0.448  0.3198 -0.3669  0.1225
71862SOL    HW127311   4.708   0.924   0.486 -0.7207 -0.4401 -1.0938
71862SOL    HW227312   4.695   0.791   0.414  1.1953 -0.2700 -1.8351
71863SOL     OW27313   4.616   3.720   7.792  0.2397 -0.3302  0.9028
71863SOL    HW127314   4.549   3.711   7.724 -0.7553  0.6677  1.7230
71863SOL    HW227315   4.699   3.719   7.744 -0.4326  0.1121 -0.3004
71864SOL     OW27316   3.411   8.691   9.175  0.0608 -0.3570 -0.0228
71864SOL    HW127317   3.352   8.618   9.158  1.0599 -0.6570 -2.5863
71864SOL    HW227318   3.353   8.766   9.188 -0.9624 -0.6810 -2.2633
71865SOL     OW27319   0.248   4.623   3.211  0.3339 -0.1098 -0.3758
71865SOL    HW127320   0.273   4.665   3.129 -0.3240  1.4247  0.1685
71865SOL    HW227321   0.326   4.630   3.266  0.0870  0.8535 -0.1308
71866SOL     OW27322   4.243   8.302   9.222 -0.5645 -0.1397 -0.0152
71866SOL    HW127323   4.324   8.327   9.266 -0.2580 -1.4284  0.1831
71866SOL    HW227324   4.208   8.231   9.275 -0.0817 -1.8863 -1.9167
71867SOL     OW27325   7.714   1.999   1.358  0.6678 -0.4156  0.3525
71867SOL    HW127326   7.660   1.944   1.301 -0.3601 -0.0572  0.9503
71867SOL    HW227327   7.760   1.936   1.414  1.1112 -0.7387 -0.3644
71868SOL     OW27328   3.360   1.845   3.769 -0.0621  0.5244 -0.0421
71868SOL    HW127329   3.432   1.800   3.725 -0.2267  0.8295 -0.6337
71868SOL    HW227330   3.400   1.923   3.808  0.0578  0.3315  0.2164
71869SOL     OW27331  13.064   5.447   1.510  0.0667 -0.3033 -0.1145
71869SOL    HW127332  13.123   5.412   1.577  1.1419 -0.4629 -1.1027
71869SOL    HW227333  13.115   5.518   1.468 -0.8922  0.3395 -0.2235
71870SOL     OW27334   5.654   6.491  12.101 -0.4251  0.0588 -0.2590
71870SOL    HW127335   5.563   6.501  12.075 -0.2266 -0.9939 -1.4347
71870SOL    HW227336   5.650   6.466  12.194 -1.3088  0.3279 -0.2166
71871SOL     OW27337   1.939   4.625   3.292  0.1540  0.2903 -0.0724
71871SOL    HW127338   1.975   4.591   3.210 -0.8122  0.7849 -0.7131
71871SOL    HW227339   1.964   4.560   3.358 -1.0267 -1.3109 -1.1374
71872SOL     OW27340   1.097   0.153   9.670 -0.0116  0.5546 -0.0286
71872SOL    HW127341   1.026   0.128   9.729 -0.2993 -0.3445 -0.7418
71872SOL    HW227342   1.149   0.073   9.659  1.1864  1.2139  0.5497
71873SOL     OW27343   7.654   8.006   3.338 -0.1875  0.1594 -0.0889
71873SOL    HW127344   7.705   8.019   3.418  1.3415 -0.6847 -0.8911
71873SOL    HW227345   7.680   7.920   3.306 -0.2684  0.7386 -1.8413
71874SOL     OW27346   7.052   5.702   8.504  0.4179  0.0558 -0.2377
71874SOL    HW127347   6.961   5.706   8.476  0.0686  1.8644  0.9368
71874SOL    HW227348   7.099   5.663   8.430 -1.0268  0.8780 -1.6622
71875SOL     OW27349   2.322  11.144   0.946  0.6352 -0.3791  0.0191
71875SOL    HW127350   2.300  11.154   1.039 -1.1422  0.2378 -0.4246
71875SOL    HW227351   2.406  11.189   0.936  3.0838 -3.9615  2.0874
71876SOL     OW27352   2.946   3.070   6.149  0.0793  0.4581 -0.3732
71876SOL    HW127353   2.855   3.076   6.119  0.0919  1.0982 -0.3068
71876SOL    HW227354   2.950   2.989   6.199 -0.1901 -0.1275 -1.2777
71877SOL     OW27355   8.862   4.786   0.649  0.0977 -0.1700 -0.4927
71877SOL    HW127356   8.897   4.871   0.675  0.3555 -0.5362  0.4107
71877SOL    HW227357   8.920   4.722   0.691 -0.2842 -0.7915 -0.8830
71878SOL     OW27358   8.118   8.286  11.581 -0.8671  0.0735 -0.2405
71878SOL    HW127359   8.204   8.248  11.596 -0.8040  0.3082  0.0076
71878SOL    HW227360   8.107   8.349  11.653 -2.1597 -1.4913  0.9910
71879SOL     OW27361  10.085   9.643   9.679 -0.1759  0.0770  0.0174
71879SOL    HW127362  10.068   9.603   9.765  0.7844  0.6983  0.5187
71879SOL    HW227363  10.075   9.571   9.617 -0.6293 -0.4445  0.6757
71880SOL     OW27364  13.300   9.744  10.285  0.8767 -0.2100  1.3253
71880SOL    HW127365  13.353   9.699  10.350  1.3998 -1.2039  0.2562
71880SOL    HW227366  13.350   9.822  10.262  2.5150 -1.6663 -0.4536
71881SOL     OW27367  11.099   7.631   3.781 -0.6841 -0.6370  0.2265
71881SOL    HW127368  11.189   7.643   3.750 -0.8151 -0.0876  0.0386
71881SOL    HW227369  11.045   7.652   3.705 -0.9650 -1.4748  0.1838
71882SOL     OW27370  11.513   1.245   9.492  0.3537 -0.1134  0.3228
71882SOL    HW127371  11.442   1.243   9.428  0.9360 -0.5885 -0.3146
71882SOL    HW227372  11.517   1.156   9.526 -1.6282  0.6718  2.9267
71883SOL     OW27373  11.894   0.803   6.683 -0.3092 -0.1691  0.7483
71883SOL    HW127374  11.853   0.820   6.599 -1.4233 -0.5614  1.1910
71883SOL    HW227375  11.976   0.852   6.681 -0.3325 -0.1707 -0.5483
71884SOL     OW27376  13.522   2.281  13.529 -0.0601  0.1139  0.3166
71884SOL    HW127377  13.599   2.332  13.555  0.3347 -0.2934 -0.0478
71884SOL    HW227378  13.546   2.240  13.446 -0.3382 -0.7300  0.6363
71885SOL     OW27379  13.545   3.250   0.617 -0.1963 -0.2207 -0.0632
71885SOL    HW127380  13.526   3.257   0.524  1.0634 -2.3802 -0.5655
71885SOL    HW227381  13.465   3.214   0.655 -0.8131  0.9223 -0.2177
71886SOL     OW27382   8.475   7.891  13.316 -0.3598 -0.4571  1.0230
71886SOL    HW127383   8.439   7.969  13.274  0.1461 -0.4319  0.6421
71886SOL    HW227384   8.516   7.924  13.396 -1.5808 -0.5421  1.7158
71887SOL     OW27385   1.724   1.316   5.596 -0.3889  0.1711 -0.3378
71887SOL    HW127386   1.773   1.326   5.514  1.1692  0.8713  0.6140
71887SOL    HW227387   1.644   1.269   5.572  0.4430 -0.4217 -2.0991
71888SOL     OW27388   0.786  12.965   1.543  0.2452 -1.0187 -0.1898
71888SOL    HW127389   0.695  12.984   1.565  0.1306 -1.2108 -0.4946
71888SOL    HW227390   0.837  13.007   1.612  0.0244  0.8422 -1.1021
71889SOL     OW27391   6.287   1.707  13.009 -0.2255 -0.3072  0.6501
71889SOL    HW127392   6.369   1.662  13.030 -0.0893 -1.7680 -2.3933
71889SOL    HW227393   6.315   1.790  12.970 -0.1026 -1.0255 -0.8607
71890SOL     OW27394   4.910   4.267   2.111 -0.1755 -0.3721  0.3035
71890SOL    HW127395   4.929   4.204   2.042 -1.4980 -1.8616  1.2180
71890SOL    HW227396   4.815   4.282   2.104  0.2309  2.2478 -0.4488
71891SOL     OW27397   1.673  13.229   6.638 -0.1493  0.3122  0.1547
71891SOL    HW127398   1.709  13.263   6.720  0.2136  1.3000 -0.3917
71891SOL    HW227399   1.655  13.307   6.586 -0.0114 -0.3125 -0.8565
71892SOL     OW27400   6.590   1.362   0.808  0.0289  0.2919 -0.7950
71892SOL    HW127401   6.526   1.296   0.782  1.0393 -1.0884  0.0705
71892SOL    HW227402   6.546   1.413   0.875 -0.3912 -0.2358 -0.6659
71893SOL     OW27403   5.018   3.754  11.649  0.1356 -0.3399 -1.0066
71893SOL    HW127404   5.106   3.718  11.638 -0.3203 -1.5105 -0.9326
71893SOL    HW227405   4.981   3.754  11.560 -0.4992 -1.7728 -0.7674
71894SOL     OW27406   2.963  13.401   5.417  0.5015  0.0166 -0.1559
71894SOL    HW127407   2.983  13.432   5.328  0.6197 -0.1173 -0.1765
71894SOL    HW227408   2.930  13.479   5.462 -0.5791 -0.1441 -0.6287
71895SOL     OW27409   2.489   2.074  11.112 -0.0357 -0.3322  0.6783
71895SOL    HW127410   2.496   2.090  11.206 -0.1428 -0.5225  0.7185
71895SOL    HW227411   2.578   2.049  11.085 -0.3147 -1.7357  1.0053
71896SOL     OW27412   7.554   8.847   6.925  0.1390  0.6674 -0.9898
71896SOL    HW127413   7.479   8.798   6.959 -0.3666  0.4136 -2.4325
71896SOL    HW227414   7.530   8.870   6.835  1.7077  0.7728 -1.4130
71897SOL     OW27415   8.996  13.520   4.869 -0.2192  0.2875 -0.2468
71897SOL    HW127416   9.058  13.449   4.850 -1.2315 -1.0066  1.0354
71897SOL    HW227417   8.946  13.530   4.788 -0.4975 -0.9587 -0.2588
71898SOL     OW27418   4.481  12.883   3.651 -0.2681  0.3065  0.1829
71898SOL    HW127419   4.476  12.810   3.714 -0.4369  1.3225  1.3898
71898SOL    HW227420   4.549  12.940   3.687 -1.2312  1.5249  0.1196
71899SOL     OW27421  11.878  10.241  13.191 -0.1455 -0.0516 -0.2979
71899SOL    HW127422  11.821  10.173  13.154 -0.4128 -0.1151  0.2180
71899SOL    HW227423  11.909  10.203  13.273 -0.3202  0.4651  0.0085
71900SOL     OW27424  12.516  11.808  13.141  0.5977  0.1850  0.0747
71900SOL    HW127425  12.430  11.766  13.145  0.7264 -0.0904 -0.0877
71900SOL    HW227426  12.572  11.754  13.196  0.9426 -0.2852 -0.7175
71901SOL     OW27427   3.605   5.771   4.022 -0.0403 -0.1009  0.5488
71901SOL    HW127428   3.688   5.747   3.982 -1.4348 -1.4025 -1.7893
71901SOL    HW227429   3.569   5.689   4.055 -0.7210  0.3313  0.9249
71902SOL     OW27430   7.438   3.368   5.213  0.8087 -0.5322 -0.1284
71902SOL    HW127431   7.411   3.276   5.208 -0.1241 -0.2627 -0.2264
71902SOL    HW227432   7.507   3.369   5.279  1.7150 -1.5038 -1.0184
71903SOL     OW27433  12.505   5.556  10.800 -0.1464  0.5382 -0.0923
71903SOL    HW127434  12.560   5.600  10.865 -0.8548  0.4878  0.5612
71903SOL    HW227435  12.491   5.622  10.733  1.6195  0.2054 -0.8521
71904SOL     OW27436  11.000  12.387   6.746 -0.0644  0.1451 -0.3586
71904SOL    HW127437  10.971  12.435   6.823  2.0431  0.4817  0.2872
71904SOL    HW227438  10.986  12.295   6.769 -1.0989  0.2976 -0.3125
71905SOL     OW27439  11.570   2.999   6.596 -0.1590 -0.5115  0.1838
71905SOL    HW127440  11.533   2.988   6.684 -0.0831 -0.2549  0.2478
71905SOL    HW227441  11.542   3.087   6.569 -1.7381 -1.2654 -0.7858
71906SOL     OW27442   7.236   8.679   3.415  0.9147 -0.7686  0.2232
71906SOL    HW127443   7.257   8.602   3.467  1.4244 -2.3015 -2.1308
71906SOL    HW227444   7.321   8.715   3.390  0.6896 -0.4465 -0.0917
71907SOL     OW27445   4.460  10.794   7.971  0.2439  0.2547 -0.1138
71907SOL    HW127446   4.468  10.863   7.905  0.6585  0.1527 -0.1747
71907SOL    HW227447   4.384  10.818   8.023 -0.1688  0.2707 -0.7145
71908SOL     OW27448   6.456  11.754   3.473  0.0317  0.2697 -0.5426
71908SOL    HW127449   6.366  11.786   3.474 -0.2871 -0.5998  1.0371
71908SOL    HW227450   6.461  11.692   3.546  1.9065  0.2791 -0.6082
71909SOL     OW27451   1.487  11.889   8.504  0.1068 -0.0885 -0.1517
71909SOL    HW127452   1.479  11.981   8.482  2.2047 -0.0447 -0.9419
71909SOL    HW227453   1.577  11.879   8.535 -0.5289 -1.5995  1.3871
71910SOL     OW27454   1.535   3.160   9.087 -0.0168  0.1721  0.1562
71910SOL    HW127455   1.537   3.235   9.027 -1.0522 -0.0182 -0.1532
71910SOL    HW227456   1.441   3.142   9.098  0.2147 -1.4101 -0.2114
71911SOL     OW27457   8.876   2.659   5.799 -0.6331 -0.3618 -0.0191
71911SOL    HW127458   8.812   2.644   5.869 -0.3264 -0.1574  0.3124
71911SOL    HW227459   8.825   2.657   5.718 -1.0805 -0.0242  0.2518
71912SOL     OW27460   7.670   1.348   4.830 -0.8025 -0.8147 -0.0070
71912SOL    HW127461   7.653   1.290   4.755  0.0757 -0.3039 -0.6208
71912SOL    HW227462   7.762   1.334   4.850 -0.0538  1.6704 -1.3399
71913SOL     OW27463   7.267  13.675   4.796  0.8390 -0.3546  0.3201
71913SOL    HW127464   7.177  13.703   4.814  0.6853 -0.3459 -0.4439
71913SOL    HW227465   7.320  13.753   4.812  0.5496  0.0446 -0.5983
71914SOL     OW27466   8.934  13.092   0.664 -0.5250  0.3499 -0.1807
71914SOL    HW127467   8.913  13.186   0.668  0.0395  0.4436  0.9859
71914SOL    HW227468   8.893  13.055   0.742 -0.2624 -0.2765 -0.3330
71915SOL     OW27469   3.786   3.257  12.196 -0.6635  0.5482  0.0430
71915SOL    HW127470   3.863   3.307  12.222 -0.9725 -0.0645  2.3540
71915SOL    HW227471   3.722   3.323  12.168  0.0528  1.1776 -0.1336
71916SOL     OW27472   9.695   3.180   6.546 -0.3101  0.1384 -0.1543
71916SOL    HW127473   9.627   3.113   6.540 -0.3470  0.0448  1.0576
71916SOL    HW227474   9.652   3.254   6.589  0.5972 -0.3314  1.6931
71917SOL     OW27475  13.151   5.762   7.228 -0.3643  0.1003  0.5963
71917SOL    HW127476  13.124   5.785   7.139 -0.8906 -1.0184  0.4497
71917SOL    HW227477  13.246   5.755   7.222 -0.4654 -0.9597 -0.1492
71918SOL     OW27478   7.022   7.231  10.985  0.0664 -0.0794  0.1337
71918SOL    HW127479   6.952   7.277  10.940  0.7103  0.3736 -0.4270
71918SOL    HW227480   7.046   7.289  11.058  1.1680  0.7119 -0.8237
71919SOL     OW27481  11.409   6.649   9.115  0.2498  0.1129  0.0576
71919SOL    HW127482  11.322   6.641   9.153  0.3132 -0.9329  0.0054
71919SOL    HW227483  11.430   6.742   9.121 -1.2087  0.5136 -0.6853
71920SOL     OW27484   4.699   8.561   5.036 -0.4388 -0.0749  0.0130
71920SOL    HW127485   4.788   8.527   5.032 -0.7069 -0.9621  1.0187
71920SOL    HW227486   4.644   8.485   5.014 -0.9595  0.4412 -0.5196
71921SOL     OW27487   7.990   0.488   6.761  0.1890  0.2944 -0.3777
71921SOL    HW127488   8.032   0.426   6.820 -0.8139  0.0950  0.1438
71921SOL    HW227489   7.938   0.545   6.819 -1.1822 -0.1970 -1.0703
71922SOL     OW27490   2.443   2.343   4.728 -0.1194  0.2781 -0.5594
71922SOL    HW127491   2.535   2.323   4.711 -0.2751 -0.4765 -0.5198
71922SOL    HW227492   2.427   2.425   4.681  0.1376 -0.4434 -1.9544
71923SOL     OW27493  11.022  12.953   9.952  0.5063 -0.4448  0.0952
71923SOL    HW127494  11.060  12.888  10.010  2.2241  0.0763 -0.3927
71923SOL    HW227495  10.930  12.956   9.977  0.5945 -2.3372  0.7753
71924SOL     OW27496   3.387   8.631  13.501 -0.3453  0.0647 -0.0588
71924SOL    HW127497   3.328   8.562  13.472  0.6615 -0.1734 -1.6868
71924SOL    HW227498   3.454   8.586  13.553 -1.9844  0.4516  2.5893
71925SOL     OW27499  11.384   5.330   4.400  0.0528 -0.4795  0.0230
71925SOL    HW127500  11.449   5.261   4.408  0.3711 -0.2134 -0.2382
71925SOL    HW227501  11.432   5.411   4.416 -0.3554 -0.3324  0.5100
71926SOL     OW27502  10.477   0.173   0.985  0.4493 -0.4749 -0.4304
71926SOL    HW127503  10.544   0.167   1.052 -0.1857 -3.2212  0.0943
71926SOL    HW227504  10.526   0.172   0.902  1.1260  0.0781 -0.0462
71927SOL     OW27505   3.483   1.960   3.437 -0.1322  0.2291  0.0992
71927SOL    HW127506   3.397   1.930   3.466  0.0609 -0.8133 -0.3558
71927SOL    HW227507   3.483   2.054   3.457 -1.9448  0.5843 -1.2006
71928SOL     OW27508   9.836   1.406   2.256  0.0071  0.3358 -0.3720
71928SOL    HW127509   9.795   1.319   2.262 -0.4783  0.6542  1.3931
71928SOL    HW227510   9.915   1.399   2.309  0.1897  0.8480 -0.5717
71929SOL     OW27511  11.225   5.171   4.827 -0.0809  0.1250 -0.2970
71929SOL    HW127512  11.198   5.155   4.737 -2.9028  1.0697  0.2800
71929SOL    HW227513  11.156   5.227   4.863  0.1061 -1.4956  2.9033
71930SOL     OW27514   8.355  11.543   5.933  0.0276  0.0004 -0.1428
71930SOL    HW127515   8.342  11.457   5.893 -0.9156 -0.1621  0.4729
71930SOL    HW227516   8.270  11.565   5.971  0.3501  1.0560  0.0063
71931SOL     OW27517   0.638   2.255   0.746 -0.3644 -0.1481  0.1215
71931SOL    HW127518   0.653   2.349   0.744  1.8185 -0.4429  0.4534
71931SOL    HW227519   0.544   2.246   0.761 -0.2807  2.0094  2.9077
71932SOL     OW27520  12.478  12.146   2.023 -0.0795  0.1420  0.1661
71932SOL    HW127521  12.544  12.151   1.954  0.0248  0.0917  0.2604
71932SOL    HW227522  12.399  12.115   1.980  0.5819 -2.1692  0.4594
71933SOL     OW27523   6.350  13.077   4.928  0.3293  0.1636 -0.2230
71933SOL    HW127524   6.399  13.154   4.958 -1.3315  1.5395 -0.8725
71933SOL    HW227525   6.402  13.043   4.856  0.1678  1.8647 -1.2045
71934SOL     OW27526   5.051   0.186   7.594 -0.2585 -0.3343  0.2761
71934SOL    HW127527   5.063   0.149   7.507  0.2772 -0.2827  0.3200
71934SOL    HW227528   4.957   0.191   7.606 -0.3613 -1.8391  0.3316
71935SOL     OW27529   2.274   4.644  13.558  0.2362  0.3923  0.0486
71935SOL    HW127530   2.323   4.706  13.505 -2.1030  1.0233 -1.5338
71935SOL    HW227531   2.196   4.692  13.587 -1.0698 -1.4143 -0.2572
71936SOL     OW27532   5.561   9.091   5.464  0.0257 -0.0260  0.3485
71936SOL    HW127533   5.567   9.076   5.370  1.9248 -0.0558  0.4384
71936SOL    HW227534   5.480   9.047   5.490 -0.7768  0.3951 -1.3242
71937SOL     OW27535   1.812   4.049   0.946 -0.1586  0.2482 -0.0855
71937SOL    HW127536   1.727   4.058   0.904  0.0110 -0.0127 -0.4939
71937SOL    HW227537   1.844   4.139   0.956 -0.4656  0.3424  0.0352
71938SOL     OW27538   3.327  12.877   3.410  0.7731  0.2820  0.2753
71938SOL    HW127539   3.258  12.939   3.434  1.0947  0.6964  0.1422
71938SOL    HW227540   3.382  12.925   3.348  0.1046 -0.6745 -1.1180
71939SOL     OW27541  12.169   9.171   5.854  0.0290 -0.0382 -0.1582
71939SOL    HW127542  12.189   9.263   5.835 -0.8224  0.1658 -0.1028
71939SOL    HW227543  12.169   9.165   5.949  0.2051 -0.1295 -0.1620
71940SOL     OW27544   6.765   9.786   9.983 -1.1817 -0.1320  0.0953
71940SOL    HW127545   6.687   9.841   9.973 -1.1072 -0.3366 -2.1089
71940SOL    HW227546   6.755   9.719   9.915  0.3475 -0.8691  0.5693
71941SOL     OW27547   8.519   5.211   7.870  0.6611  0.0769  0.2421
71941SOL    HW127548   8.455   5.143   7.847  1.1326 -0.0499 -0.7265
71941SOL    HW227549   8.589   5.201   7.806  0.0477  2.4434 -0.9251
71942SOL     OW27550   4.955   6.470   9.394  0.1860 -0.7271  0.3731
71942SOL    HW127551   5.037   6.430   9.364  1.6147  0.7210  2.1255
71942SOL    HW227552   4.951   6.448   9.487 -2.6137 -2.6271 -0.0775
71943SOL     OW27553   9.216  12.900  12.841 -0.3070 -0.1005 -0.1003
71943SOL    HW127554   9.216  12.866  12.931  0.5884  2.7440  1.0825
71943SOL    HW227555   9.139  12.956  12.837  0.0826  0.3879 -0.8591
71944SOL     OW27556   0.428  12.775   6.905 -0.1953  0.2558 -0.1013
71944SOL    HW127557   0.478  12.735   6.833  0.0453  1.2552 -0.5023
71944SOL    HW227558   0.474  12.747   6.984  0.2323  0.1023 -0.3978
71945SOL     OW27559   8.771   1.437   8.600 -0.0280 -0.3239 -0.2136
71945SOL    HW127560   8.756   1.403   8.688  0.1593  0.0696 -0.0268
71945SOL    HW227561   8.857   1.403   8.575 -0.4613 -1.1712 -0.6060
71946SOL     OW27562   0.742   1.385  10.627  0.1302 -0.0456  0.5033
71946SOL    HW127563   0.689   1.465  10.626  0.2831  0.0565  0.3169
71946SOL    HW227564   0.792   1.390  10.709 -0.5962 -0.4447  0.9756
71947SOL     OW27565  13.123   0.403   3.714  0.7239 -0.2097 -0.3225
71947SOL    HW127566  13.039   0.364   3.690  0.0874  1.2524 -0.6111
71947SOL    HW227567  13.129   0.389   3.809  0.2877 -0.5635 -0.3403
71948SOL     OW27568   9.789   4.464   7.292  0.3048 -0.5279 -0.0696
71948SOL    HW127569   9.697   4.491   7.292  0.9104  1.7978  1.1942
71948SOL    HW227570   9.808   4.442   7.201 -1.1970  0.0829 -0.5563
71949SOL     OW27571   4.362   7.271   8.108 -0.6476 -0.7673 -0.0305
71949SOL    HW127572   4.409   7.194   8.142 -2.3227 -2.1268 -0.6728
71949SOL    HW227573   4.427   7.341   8.112  0.5526 -1.8747  1.8406
71950SOL     OW27574   1.580   1.417   1.599 -0.3978 -0.2020  0.0549
71950SOL    HW127575   1.510   1.352   1.588 -1.0771  0.6320 -0.7033
71950SOL    HW227576   1.535   1.495   1.634  0.0756  0.4806 -0.8242
71951SOL     OW27577   9.192   5.276   0.897  0.1296  0.1878 -0.6620
71951SOL    HW127578   9.268   5.230   0.934 -0.8922  0.5442  2.0895
71951SOL    HW227579   9.144   5.208   0.849  0.4071 -0.8612  0.4836
71952SOL     OW27580   8.691   2.313   0.459  0.2873  0.5757  0.5191
71952SOL    HW127581   8.686   2.345   0.549  0.6938 -2.1443  1.5945
71952SOL    HW227582   8.772   2.263   0.455 -0.3795 -0.4674 -0.9736
71953SOL     OW27583  10.635   8.221   3.110 -0.1838  0.4200 -0.0985
71953SOL    HW127584  10.725   8.189   3.099 -0.3202  0.4037 -1.3057
71953SOL    HW227585  10.580   8.150   3.078 -0.5847  0.8470 -0.3784
71954SOL     OW27586   3.555   3.321   1.715  0.4579  0.0390  0.2176
71954SOL    HW127587   3.471   3.298   1.675  1.6641 -0.7038 -2.0911
71954SOL    HW227588   3.593   3.237   1.741  0.2041  0.4310  1.9887
71955SOL     OW27589   3.332   3.394   7.331  0.0783  0.1171  0.1462
71955SOL    HW127590   3.292   3.377   7.246 -0.6243  1.0557  0.2746
71955SOL    HW227591   3.306   3.320   7.385 -2.1495  1.0404  0.4468
71956SOL     OW27592   9.201   6.800  10.631  0.3220  0.6537 -0.2008
71956SOL    HW127593   9.216   6.733  10.564 -0.6631  2.7848 -2.7238
71956SOL    HW227594   9.128   6.766  10.683  1.8557 -1.5772  0.6583
71957SOL     OW27595   3.017   2.174   4.006  0.4007  0.0781  0.3032
71957SOL    HW127596   2.947   2.113   3.982 -0.2852  0.9820 -0.0303
71957SOL    HW227597   3.009   2.246   3.944  0.9055  0.7386  0.9858
71958SOL     OW27598   8.021  11.499   1.203  0.0199 -0.7771  0.8019
71958SOL    HW127599   8.085  11.429   1.189 -0.5517 -0.9428 -1.2971
71958SOL    HW227600   7.936  11.456   1.195 -0.3609  0.3018 -1.7978
71959SOL     OW27601   1.677  10.264   9.445  0.0396  0.2030  0.0288
71959SOL    HW127602   1.614  10.194   9.425  0.6237 -0.1438 -0.6450
71959SOL    HW227603   1.651  10.337   9.388 -1.7098  1.2580  2.0300
71960SOL     OW27604   8.414  13.580   1.731 -0.1023  0.0378  0.4553
71960SOL    HW127605   8.322  13.564   1.712  0.2621 -1.2307 -0.3766
71960SOL    HW227606   8.459  13.503   1.695  1.1783  0.1763  1.7097
71961SOL     OW27607   8.061   2.946   0.748  0.0619  0.1743  0.3216
71961SOL    HW127608   8.004   2.975   0.676  0.7095 -0.2678 -0.3805
71961SOL    HW227609   8.130   2.897   0.705  0.9993  0.7293  1.1645
71962SOL     OW27610   6.498   2.466   9.600 -0.1955  0.1695 -0.0730
71962SOL    HW127611   6.442   2.470   9.522 -0.7321 -0.5188  0.2761
71962SOL    HW227612   6.579   2.425   9.570 -0.8757 -1.2742 -0.0048
71963SOL     OW27613   1.322   8.378   3.309 -0.4156 -0.0979 -0.4494
71963SOL    HW127614   1.386   8.307   3.315  2.3963  2.3385  0.7027
71963SOL    HW227615   1.315   8.397   3.215 -0.7318 -1.4447 -0.7123
71964SOL     OW27616   0.379   8.736  12.757 -0.0389  0.5487  0.2071
71964SOL    HW127617   0.435   8.746  12.679 -0.4612  0.8496 -0.0644
71964SOL    HW227618   0.328   8.816  12.759 -0.7075  0.1249  0.2526
71965SOL     OW27619  13.207   2.356  10.833 -0.1480 -0.1099 -0.2799
71965SOL    HW127620  13.283   2.299  10.842 -0.3900 -0.2133  1.5255
71965SOL    HW227621  13.192   2.362  10.739  0.7843 -1.8072 -0.5734
71966SOL     OW27622  11.946   1.710   6.845  0.6071 -0.3353  0.5245
71966SOL    HW127623  12.029   1.755   6.854  0.4070  0.1892 -0.2135
71966SOL    HW227624  11.884   1.762   6.896 -0.3750  2.2508 -2.9707
71967SOL     OW27625   1.907   9.091   9.647 -0.1402 -0.3001  1.2708
71967SOL    HW127626   1.986   9.145   9.648 -1.3737  1.6391  0.6997
71967SOL    HW227627   1.896   9.062   9.737 -0.0121  1.3959  1.8752
71968SOL     OW27628  10.509   9.002  11.176 -0.2122  0.7087 -0.3039
71968SOL    HW127629  10.463   9.086  11.178  0.4319  1.0739 -0.6204
71968SOL    HW227630  10.580   9.016  11.114  0.3065  0.1363  0.1613
71969SOL     OW27631  12.160   2.635   1.791  0.0966  0.3812  0.1164
71969SOL    HW127632  12.245   2.635   1.834  0.5534  0.4408 -0.7547
71969SOL    HW227633  12.174   2.685   1.711 -0.5693 -0.2160 -0.3904
71970SOL     OW27634   7.080   5.103  10.438  0.2949 -0.9318 -0.2771
71970SOL    HW127635   7.044   5.165  10.376 -0.4673  0.6220  1.6113
71970SOL    HW227636   7.161   5.072  10.398  0.6098  1.1544 -1.3788
71971SOL     OW27637   6.956  12.268  11.433 -0.7249  0.0434 -0.9559
71971SOL    HW127638   6.897  12.342  11.448 -1.8450 -1.0819  0.4400
71971SOL    HW227639   6.906  12.208  11.378 -0.7050 -0.6777 -0.2039
71972SOL     OW27640  10.018   3.412   2.473  0.1500  0.2584  0.5585
71972SOL    HW127641  10.054   3.491   2.513  0.7690  1.2865 -1.8566
71972SOL    HW227642  10.070   3.340   2.509  1.6242  1.2766  0.5329
71973SOL     OW27643  11.640   3.771  10.992  0.1940  0.0414 -0.0351
71973SOL    HW127644  11.567   3.832  10.996  1.3902  1.6447  5.2230
71973SOL    HW227645  11.613   3.697  11.046  1.2614 -0.9091 -0.7516
71974SOL     OW27646  11.711   1.394  11.706 -0.0789  0.1472  0.4474
71974SOL    HW127647  11.692   1.373  11.798  0.6641  0.1944  0.6126
71974SOL    HW227648  11.780   1.332  11.681 -1.7613 -1.3696 -0.7394
71975SOL     OW27649   1.572  13.643   1.054  0.6028 -0.0904  0.2771
71975SOL    HW127650   1.625  13.611   1.127  1.4222 -0.8304 -0.6112
71975SOL    HW227651   1.561  13.567   0.997  2.3843  1.0468 -1.7615
71976SOL     OW27652   3.548   8.063  13.653  0.3781  0.3306 -0.6292
71976SOL    HW127653   3.568   7.998  13.586  0.4858  0.1285 -0.4040
71976SOL    HW227654   3.467   8.032  13.693  1.1139 -0.3822  0.3578
71977SOL     OW27655   3.915   4.111   6.925  0.5519  0.1817  0.0134
71977SOL    HW127656   3.884   4.065   7.003  0.2504  0.2249 -0.0785
71977SOL    HW227657   3.870   4.196   6.928  0.9352  0.3858  0.0638
71978SOL     OW27658  11.165   0.033   0.675 -0.0709 -0.1485 -0.1468
71978SOL    HW127659  11.251  -0.007   0.660 -1.0204 -1.4723 -2.6231
71978SOL    HW227660  11.119  -0.032   0.729 -0.1324 -0.3247 -0.4095
71979SOL     OW27661   1.785   6.169   8.628 -0.1825  0.6973 -0.2910
71979SOL    HW127662   1.791   6.079   8.597  3.1262 -0.0458  1.9735
71979SOL    HW227663   1.862   6.212   8.590 -0.4279  1.8980  0.5184
71980SOL     OW27664   0.351  12.892   4.887  0.5516 -0.6202 -0.2447
71980SOL    HW127665   0.391  12.914   4.971  2.0144 -1.4212 -0.7011
71980SOL    HW227666   0.262  12.867   4.909  0.8823 -0.7239  1.0532
71981SOL     OW27667   8.162   0.767   7.162  0.0492  0.5458 -0.0865
71981SOL    HW127668   8.072   0.766   7.130 -0.1377  1.2292  0.4032
71981SOL    HW227669   8.214   0.744   7.085 -0.5857 -0.7069 -0.1672
71982SOL     OW27670   9.186   0.032   7.746  0.1698  0.2770 -0.3370
71982SOL    HW127671   9.209   0.077   7.828 -0.5629  1.1850 -0.6179
71982SOL    HW227672   9.102  -0.009   7.763  0.5786 -0.5598 -0.2624
71983SOL     OW27673  13.728   4.155   6.037 -0.2568  0.0632  0.4044
71983SOL    HW127674  13.642   4.116   6.017 -0.4234 -0.1229  1.3856
71983SOL    HW227675  13.752   4.203   5.958 -0.5962 -1.0643 -0.4172
71984SOL     OW27676   3.503  10.465   9.048 -0.1164 -0.5395 -0.5876
71984SOL    HW127677   3.574  10.505   9.100 -0.7018 -1.3428  0.8847
71984SOL    HW227678   3.515  10.501   8.960  1.0938  0.6532  0.0237
71985SOL     OW27679  12.293   6.065  12.082 -0.1622  0.3269 -0.4014
71985SOL    HW127680  12.260   5.983  12.045  0.7462 -0.3276  0.1818
71985SOL    HW227681  12.313   6.120  12.006  1.3442 -0.8619 -0.9060
71986SOL     OW27682   0.669   7.131   3.272  0.5341 -0.1142  0.6795
71986SOL    HW127683   0.749   7.102   3.315  1.5080  0.2415 -0.8076
71986SOL    HW227684   0.698   7.164   3.187 -1.2294 -0.1935  0.0029
71987SOL     OW27685   4.176   5.254  10.034  0.0087  0.3487  0.1582
71987SOL    HW127686   4.204   5.227   9.947  0.9083  0.1160  0.5133
71987SOL    HW227687   4.103   5.195  10.055  0.1932 -0.0007 -0.1761
71988SOL     OW27688   4.142   9.137   6.340 -0.2156  0.2419  0.7963
71988SOL    HW127689   4.158   9.210   6.280 -0.2346 -0.5773 -0.2342
71988SOL    HW227690   4.179   9.165   6.423  1.2598  0.7707 -0.0095
71989SOL     OW27691   7.128  13.394   1.896  0.3828  0.2555 -0.1209
71989SOL    HW127692   7.059  13.331   1.875 -0.5169  1.0483  0.3750
71989SOL    HW227693   7.105  13.472   1.846 -0.0533  1.0966  1.3235
71990SOL     OW27694   6.468   0.532  10.157 -0.1965 -0.0167  0.4086
71990SOL    HW127695   6.502   0.546  10.069  0.6360 -0.3070  0.6727
71990SOL    HW227696   6.414   0.609  10.175  0.1594  0.3570 -0.1041
71991SOL     OW27697  10.533   5.882   5.817  0.5016 -0.2474 -0.1027
71991SOL    HW127698  10.439   5.867   5.809  0.1302 -0.7092  3.6574
71991SOL    HW227699  10.572   5.800   5.788 -0.2742 -0.4226 -0.7047
71992SOL     OW27700   6.746   7.516   7.896  0.3826 -0.1654 -0.1776
71992SOL    HW127701   6.797   7.596   7.902  0.0630  0.1682 -1.5029
71992SOL    HW227702   6.782   7.470   7.820 -0.5896 -0.4103 -0.5167
71993SOL     OW27703  12.547  11.355   3.649  0.1121  0.1043  0.4364
71993SOL    HW127704  12.609  11.379   3.717  1.4066 -0.5288 -0.4600
71993SOL    HW227705  12.509  11.437   3.620  0.2115  0.4607  1.2886
71994SOL     OW27706   3.389   6.501  13.329  0.1209 -0.1301  0.0001
71994SOL    HW127707   3.426   6.586  13.352 -0.4116  1.0484 -3.0098
71994SOL    HW227708   3.294   6.515  13.328  0.0366 -0.6801 -0.6950
71995SOL     OW27709   2.320  13.334  10.299 -0.2919 -0.3945  0.4471
71995SOL    HW127710   2.227  13.327  10.276  0.0036 -1.2017 -0.5541
71995SOL    HW227711   2.346  13.420  10.266 -0.5761 -0.3415  0.3553
71996SOL     OW27712  13.266   8.022  12.010 -0.5297  0.2169 -0.5183
71996SOL    HW127713  13.279   7.950  12.072  1.2732  1.7467  1.0142
71996SOL    HW227714  13.328   8.006  11.940  0.3949  0.6315  0.1901
71997SOL     OW27715   0.735   3.417   8.571 -0.7929  0.4521  0.7124
71997SOL    HW127716   0.808   3.373   8.527 -1.8726  2.1324 -3.2122
71997SOL    HW227717   0.776   3.479   8.630  0.9495  0.4686 -0.4419
71998SOL     OW27718  10.659  11.766   4.325  0.5544  0.6775  0.3224
71998SOL    HW127719  10.601  11.742   4.252  0.6798  1.6552 -0.1167
71998SOL    HW227720  10.601  11.810   4.388  1.0574  3.2900 -0.9135
71999SOL     OW27721   9.170   8.688  13.194  0.2795  0.5404 -0.2398
71999SOL    HW127722   9.217   8.744  13.256 -1.2436 -1.4897  3.0749
71999SOL    HW227723   9.099   8.743  13.161  0.8350  1.5603  0.2052
72000SOL     OW27724  11.714   5.229   8.059 -0.4411  0.0602  0.8953
72000SOL    HW127725  11.626   5.194   8.044  0.1262 -1.0776  0.1015
72000SOL    HW227726  11.732   5.282   7.982  0.4924 -1.6836 -0.1385
72001SOL     OW27727  11.938   1.916   0.828  0.2169 -0.0220  0.3016
72001SOL    HW127728  11.998   1.976   0.872  1.4877 -0.3405 -0.9126
72001SOL    HW227729  11.906   1.858   0.896 -0.6405  1.6793  1.4184
72002SOL     OW27730   6.720   6.808  10.910 -0.3236  0.4665 -0.1813
72002SOL    HW127731   6.651   6.850  10.962  0.9109 -1.6452  3.5771
72002SOL    HW227732   6.799   6.859  10.930 -0.1142  0.7099 -1.5521
72003SOL     OW27733   1.454  12.367   5.758  0.1350 -0.2328 -0.0395
72003SOL    HW127734   1.505  12.438   5.797  1.4475 -0.7110 -0.8018
72003SOL    HW227735   1.520  12.307   5.722 -0.9711 -0.9901 -0.8847
72004SOL     OW27736  11.729  11.635   7.490 -0.1099 -0.4255 -0.0603
72004SOL    HW127737  11.645  11.590   7.499 -0.7037  0.3717 -1.2150
72004SOL    HW227738  11.714  11.721   7.529 -0.2280  0.1468 -1.3090
72005SOL     OW27739   2.450  12.712  13.526 -0.3698 -0.1404 -0.6265
72005SOL    HW127740   2.461  12.805  13.504  0.6629 -0.7057 -2.7628
72005SOL    HW227741   2.356  12.700  13.533 -0.5040  1.2485  0.7734
72006SOL     OW27742  11.022   4.895  13.162 -0.0230 -0.1049 -0.2883
72006SOL    HW127743  10.990   4.842  13.235 -1.6674  2.2212  0.7728
72006SOL    HW227744  10.944   4.917  13.112  0.6656  0.9594 -0.9272
72007SOL     OW27745   7.366   9.461  11.591 -0.6462 -0.2753 -0.2367
72007SOL    HW127746   7.453   9.427  11.613 -0.2722  0.4088 -0.6366
72007SOL    HW227747   7.354   9.439  11.499 -1.0879 -0.7549 -0.0703
72008SOL     OW27748   3.660   1.940   9.150 -0.1566  0.0542  0.0706
72008SOL    HW127749   3.588   1.893   9.193  0.8807 -1.4035  0.2882
72008SOL    HW227750   3.654   1.914   9.058 -1.9401  2.6194 -0.6340
72009SOL     OW27751   4.114   2.791   1.268  0.3999  0.2824  0.7559
72009SOL    HW127752   4.185   2.747   1.314 -0.2100  1.3124  2.8362
72009SOL    HW227753   4.135   2.781   1.176  3.1499  0.4010  1.2814
72010SOL     OW27754   2.425   0.995  12.102 -0.2584  0.2237  0.1188
72010SOL    HW127755   2.380   0.918  12.137 -0.7920  0.7724  0.6592
72010SOL    HW227756   2.356   1.061  12.091  0.3016  0.8685  0.3506
72011SOL     OW27757  12.309   5.494   2.726 -0.2076 -0.1907  0.3647
72011SOL    HW127758  12.391   5.533   2.757  0.7916  0.7704 -3.0489
72011SOL    HW227759  12.244   5.524   2.789  1.4283  2.5550  0.9400
72012SOL     OW27760   3.748   3.066   0.811  0.1231  0.0425  0.3426
72012SOL    HW127761   3.754   3.028   0.898 -0.9723  0.7713  0.7624
72012SOL    HW227762   3.724   2.993   0.754 -0.5743 -0.1787  0.9035
72013SOL     OW27763  13.731   1.427   2.434 -0.6008 -0.1187  0.0243
72013SOL    HW127764  13.700   1.347   2.476 -1.1230  0.7430  1.3708
72013SOL    HW227765  13.666   1.445   2.366 -1.0553 -0.2780  0.4112
72014SOL     OW27766   1.636   6.663  13.526 -0.2087 -0.9495 -0.0384
72014SOL    HW127767   1.614   6.682  13.434  1.2374 -3.1022 -0.9002
72014SOL    HW227768   1.587   6.583  13.546  1.4209 -1.9011  0.2412
72015SOL     OW27769   6.344  13.224  10.285 -0.0577 -0.1690  0.6453
72015SOL    HW127770   6.353  13.281  10.362 -1.0943 -1.4996  1.8100
72015SOL    HW227771   6.433  13.216  10.250  0.1308  2.0465  0.4969
72016SOL     OW27772  10.483  11.864   2.195  0.4332  0.3529  0.3268
72016SOL    HW127773  10.506  11.910   2.115  3.4592  1.4704  1.6804
72016SOL    HW227774  10.489  11.771   2.172  0.0474  0.6433 -1.0177
72017SOL     OW27775  10.009   6.929   7.788 -0.4783 -0.1925 -0.2548
72017SOL    HW127776   9.959   6.997   7.833 -0.2472  0.6485 -1.2206
72017SOL    HW227777  10.099   6.962   7.787 -0.1089 -1.1369  0.4139
72018SOL     OW27778   3.546   1.539  10.909  0.0194 -0.1545  0.1678
72018SOL    HW127779   3.495   1.596  10.966  0.2575 -1.7797  2.1249
72018SOL    HW227780   3.505   1.453  10.918  0.3647 -0.5714 -1.7867
72019SOL     OW27781  11.403   1.710  11.838 -0.0919 -0.1405  0.2379
72019SOL    HW127782  11.381   1.799  11.810 -0.0363 -0.5516 -1.1735
72019SOL    HW227783  11.474   1.722  11.901 -1.3889  0.9236  1.5889
72020SOL     OW27784   6.770  13.631   5.020  0.0974 -0.1467  0.6731
72020SOL    HW127785   6.710  13.641   5.095 -1.6490 -0.5745 -0.6133
72020SOL    HW227786   6.839  13.573   5.053  0.1264  0.7464  2.3430
72021SOL     OW27787  11.868   7.690  10.449  0.7831  0.8475 -0.3972
72021SOL    HW127788  11.944   7.736  10.414  1.2086  0.1853 -0.3627
72021SOL    HW227789  11.881   7.691  10.544  1.1461  0.0693 -0.4338
72022SOL     OW27790   3.091   6.224   0.398 -0.5496 -0.0785 -0.6668
72022SOL    HW127791   3.068   6.241   0.307  1.2270  2.4087 -0.7676
72022SOL    HW227792   3.184   6.203   0.396 -0.4574  0.1105  0.5733
72023SOL     OW27793  11.935  13.010   4.488  0.3011 -0.1410  0.0234
72023SOL    HW127794  11.994  12.962   4.431  1.2282  0.4229  0.4772
72023SOL    HW227795  11.851  13.010   4.443  0.8431 -0.2995 -0.9960
72024SOL     OW27796   9.180  11.168   7.523  0.1352  0.2462  0.0907
72024SOL    HW127797   9.137  11.252   7.539  0.4402  0.6848 -1.2461
72024SOL    HW227798   9.107  11.107   7.507 -0.0709  0.4053  0.4123
72025SOL     OW27799   6.606  11.287   8.545 -0.4535 -0.3949  0.3678
72025SOL    HW127800   6.582  11.378   8.525 -0.0771 -0.6486 -1.4733
72025SOL    HW227801   6.527  11.237   8.527 -0.6992 -0.4378  1.5098
72026SOL     OW27802  10.259   3.151  11.359 -0.1896 -0.0721 -0.6224
72026SOL    HW127803  10.310   3.231  11.344  0.3418 -0.1232  0.7345
72026SOL    HW227804  10.294   3.116  11.442 -1.6137 -0.7602 -0.2841
72027SOL     OW27805   8.935  11.995   0.901 -0.0948  0.2152 -0.6279
72027SOL    HW127806   8.883  11.953   0.970 -0.5952  0.1017 -1.0625
72027SOL    HW227807   8.870  12.021   0.836  0.1715  1.8691 -0.2778
72028SOL     OW27808   8.813  10.634   8.558 -0.5951 -0.4597  0.3416
72028SOL    HW127809   8.790  10.648   8.650  2.0128 -0.1797  1.0207
72028SOL    HW227810   8.908  10.639   8.556 -0.5895 -0.3237 -2.4282
72029SOL     OW27811  10.680  11.120  12.881 -0.3207  0.1325 -0.6886
72029SOL    HW127812  10.748  11.067  12.920  0.1885  0.3370 -1.2801
72029SOL    HW227813  10.625  11.058  12.833 -1.4564 -0.2434  0.9980
72030SOL     OW27814  11.492  10.574   4.108  0.0863 -0.0452  0.0003
72030SOL    HW127815  11.517  10.483   4.093 -0.6157 -0.1516 -0.5977
72030SOL    HW227816  11.551  10.604   4.178 -1.2438 -1.6693  1.9322
72031SOL     OW27817   2.923   7.233  13.550  0.4075 -1.0668  0.4512
72031SOL    HW127818   3.017   7.218  13.542  0.6625  0.8247 -0.6935
72031SOL    HW227819   2.906   7.307  13.492 -1.9264 -1.8409  0.0466
72032SOL     OW27820   9.499   1.116   9.662  0.0347 -1.0441  0.2967
72032SOL    HW127821   9.522   1.049   9.597  0.6395 -0.7565  0.1992
72032SOL    HW227822   9.577   1.123   9.717 -0.0400 -0.4711  0.3416
72033SOL     OW27823   2.774  11.612   2.403 -0.0757 -0.1337  0.3235
72033SOL    HW127824   2.741  11.585   2.318  0.1808  0.6063 -0.0222
72033SOL    HW227825   2.835  11.542   2.428  1.0515  0.3791 -0.8358
72034SOL     OW27826   0.694   4.397  13.404 -0.3415  0.2603  0.2621
72034SOL    HW127827   0.677   4.391  13.311  1.2636 -2.0124  0.0308
72034SOL    HW227828   0.786   4.424  13.410  0.0338 -1.0939  1.1221
72035SOL     OW27829   7.394   5.121   8.956  0.8650 -0.3968  0.0236
72035SOL    HW127830   7.418   5.096   9.045 -0.0101 -1.6038 -0.0521
72035SOL    HW227831   7.317   5.068   8.936 -0.7141  1.8971 -0.4334
72036SOL     OW27832   8.569   6.170   5.270  0.1883 -0.5714 -0.0970
72036SOL    HW127833   8.609   6.099   5.219 -1.3850 -1.3195 -0.3322
72036SOL    HW227834   8.644   6.219   5.305  1.3445 -0.6827 -2.2065
72037SOL     OW27835  11.670  11.475   1.683 -0.0150 -0.0181  0.1619
72037SOL    HW127836  11.679  11.381   1.697 -0.4739 -0.2958 -1.1881
72037SOL    HW227837  11.602  11.482   1.616 -1.0537  1.3614  1.3116
72038SOL     OW27838  12.013   8.326  12.961  0.2937  0.9763 -0.4072
72038SOL    HW127839  12.057   8.243  12.949  0.6517  1.1602 -0.3788
72038SOL    HW227840  11.938   8.323  12.901 -1.3359 -0.5005  1.5404
72039SOL     OW27841  12.102   0.458  10.676 -0.1214  0.4745  0.7120
72039SOL    HW127842  12.182   0.493  10.637  0.0774 -0.1562  0.5401
72039SOL    HW227843  12.063   0.404  10.607  0.4078 -0.9219  1.4805
72040SOL     OW27844   2.298   6.498   1.684  0.6596  0.5360  0.5764
72040SOL    HW127845   2.394   6.503   1.694  0.5517  0.5367  1.7425
72040SOL    HW227846   2.285   6.473   1.593  1.7880  0.1726  0.4992
72041SOL     OW27847   2.961   6.262   0.157  0.0786  0.2464  0.0976
72041SOL    HW127848   2.956   6.341   0.211 -0.4495 -1.1993  2.2535
72041SOL    HW227849   2.892   6.273   0.092 -2.6787 -0.0628  2.7497
72042SOL     OW27850  12.559   8.504  12.363 -0.7848  0.0618 -0.0647
72042SOL    HW127851  12.654   8.514  12.356 -0.9426  1.0123 -1.1757
72042SOL    HW227852  12.524   8.592  12.351 -1.8943 -0.5566 -1.8031
72043SOL     OW27853  13.000  10.095   3.577  0.1840  0.2595  0.3557
72043SOL    HW127854  12.979  10.015   3.528  1.3165 -0.4224  0.9376
72043SOL    HW227855  12.960  10.165   3.526 -0.3832 -0.6260 -0.4609
72044SOL     OW27856  12.322   6.546   2.242  0.6169 -0.0374 -0.2230
72044SOL    HW127857  12.262   6.482   2.279  0.9992 -0.1942  0.1308
72044SOL    HW227858  12.266   6.618   2.212  0.0704 -1.0377 -1.7061
72045SOL     OW27859   6.642   2.221   1.444  0.3559  0.3293  0.2195
72045SOL    HW127860   6.609   2.311   1.452 -0.7039 -0.1957  2.2003
72045SOL    HW227861   6.592   2.184   1.371 -1.8078  0.3152  1.6158
72046SOL     OW27862   9.383   3.610   0.482 -0.2538 -0.1759 -0.2357
72046SOL    HW127863   9.439   3.563   0.544 -1.3856 -3.5222 -1.4846
72046SOL    HW227864   9.299   3.619   0.528  0.2995  1.9713  0.4708
72047SOL     OW27865   5.071  12.411   6.299  0.2407 -0.1705  0.2661
72047SOL    HW127866   5.011  12.388   6.370  0.3665 -0.3399  0.3201
72047SOL    HW227867   5.155  12.375   6.326  0.4367  0.3276  0.3312
72048SOL     OW27868   9.396   2.474   4.787  0.5347  0.3904 -0.0959
72048SOL    HW127869   9.395   2.502   4.879  1.4989 -0.3971  0.1720
72048SOL    HW227870   9.467   2.524   4.748 -0.4092  1.3424 -0.6374
72049SOL     OW27871  13.460   9.192  10.863 -0.0523 -0.4318 -0.4278
72049SOL    HW127872  13.511   9.158  10.789 -1.3274 -0.6146 -1.2596
72049SOL    HW227873  13.513   9.265  10.897  0.0617  0.3960 -2.2396
72050SOL     OW27874   1.958   7.393   8.464 -0.1382  0.1281 -0.1435
72050SOL    HW127875   1.868   7.425   8.473 -0.2771 -0.4984  0.7932
72050SOL    HW227876   2.012   7.472   8.472 -0.4975  0.2176  1.7495
72051SOL     OW27877   6.407   3.556   8.799  0.6343 -0.4989  0.0026
72051SOL    HW127878   6.457   3.504   8.862 -0.3255 -1.3176  0.1193
72051SOL    HW227879   6.322   3.569   8.840  0.0020 -1.0042 -1.0836
72052SOL     OW27880   5.482  12.931  11.490 -0.2386  0.1961  0.4659
72052SOL    HW127881   5.409  12.882  11.452  0.4333 -1.6126  1.3830
72052SOL    HW227882   5.443  12.977  11.565 -1.0562  1.8399 -0.9168
72053SOL     OW27883  10.954   6.775   9.417  0.3289  0.0070 -0.2046
72053SOL    HW127884  10.881   6.780   9.356 -1.4687 -1.2279  1.7303
72053SOL    HW227885  10.960   6.863   9.455  0.0632  0.1947 -0.5903
72054SOL     OW27886   6.049   2.943   0.811  0.5694  0.2234  0.3018
72054SOL    HW127887   6.073   2.942   0.718  0.7957  0.6538  0.3539
72054SOL    HW227888   5.956   2.963   0.812  0.6383  0.5531  0.1796
72055SOL     OW27889  11.858   5.689   4.073  0.0329 -0.1414 -0.1101
72055SOL    HW127890  11.919   5.626   4.112  0.8618  0.7985  0.1554
72055SOL    HW227891  11.831   5.744   4.146 -1.2660 -0.6328 -0.2040
72056SOL     OW27892   8.028   8.765   9.000 -0.7363  0.4591  0.2776
72056SOL    HW127893   7.954   8.775   8.941 -0.5236  0.7197  0.0542
72056SOL    HW227894   8.005   8.690   9.055  0.0471 -1.3057 -1.6370
72057SOL     OW27895   2.586   2.189   5.656 -0.4032 -0.0920 -0.5190
72057SOL    HW127896   2.525   2.129   5.613 -1.5619  1.0056 -0.5009
72057SOL    HW227897   2.605   2.255   5.589  1.1869 -0.6836 -0.6785
72058SOL     OW27898   4.828   1.077  13.534  0.0073  0.0971  0.4519
72058SOL    HW127899   4.803   1.058  13.624 -1.3890 -1.3432 -0.1863
72058SOL    HW227900   4.771   1.150  13.508  1.1429  1.2231  1.0247
72059SOL     OW27901   5.799   9.930   8.109 -0.2153  0.6486 -0.2151
72059SOL    HW127902   5.802   9.836   8.124 -0.7628  0.6143 -0.2958
72059SOL    HW227903   5.766   9.967   8.191 -1.0691  0.6624 -0.5530
72060SOL     OW27904   2.803   5.717  11.210  0.2525 -0.1412 -0.6861
72060SOL    HW127905   2.721   5.696  11.166 -0.9527 -0.0648  1.4144
72060SOL    HW227906   2.858   5.640  11.196 -1.1306 -1.3024  0.0291
72061SOL     OW27907  10.813   3.391   4.139  0.1840 -0.0136  0.4177
72061SOL    HW127908  10.785   3.320   4.197  0.0357  0.0290  0.3987
72061SOL    HW227909  10.890   3.357   4.095  0.3357 -0.0250  0.6888
72062SOL     OW27910   9.826   7.638   3.879  0.3391  0.3737  0.0868
72062SOL    HW127911   9.838   7.597   3.965  1.3252  1.7846  0.6605
72062SOL    HW227912   9.775   7.717   3.897 -0.1362  0.2613 -0.7486
72063SOL     OW27913  13.644   6.845  13.270 -0.0268 -0.5959  0.2368
72063SOL    HW127914  13.608   6.887  13.348 -2.7407 -1.4605 -0.4463
72063SOL    HW227915  13.733   6.822  13.295 -0.7323 -0.7211  3.0524
72064SOL     OW27916  12.916   7.283   1.468 -0.6032  0.5344 -0.3218
72064SOL    HW127917  12.891   7.302   1.378  0.9929 -0.0170 -0.9105
72064SOL    HW227918  13.007   7.312   1.474  0.0524 -1.5097  0.4349
72065SOL     OW27919  12.294   8.974   0.196  0.1313  0.8838 -0.0966
72065SOL    HW127920  12.356   8.943   0.130  0.5528 -0.8414  1.0434
72065SOL    HW227921  12.219   8.915   0.187 -0.0160  0.9614  0.6207
72066SOL     OW27922  10.258   4.430   0.595 -0.0689  0.1379 -0.2268
72066SOL    HW127923  10.197   4.487   0.547 -0.8216 -1.9768 -1.9754
72066SOL    HW227924  10.204   4.392   0.664 -0.4395 -0.7426 -0.9726
72067SOL     OW27925   4.676   0.989   1.198  0.4626  0.0568 -0.1151
72067SOL    HW127926   4.696   0.904   1.237  0.4777  0.6749  1.2986
72067SOL    HW227927   4.751   1.044   1.220 -0.6244  1.0949  1.1349
72068SOL     OW27928  11.578   6.024   3.286  0.2500 -0.1045  0.1072
72068SOL    HW127929  11.639   6.093   3.314 -0.5418  0.7601 -0.2237
72068SOL    HW227930  11.506   6.072   3.246  0.0950 -1.1884 -0.9456
72069SOL     OW27931   3.538  13.349  12.144  0.2149 -0.3762  0.6882
72069SOL    HW127932   3.535  13.292  12.067  0.4499  1.2775 -0.6001
72069SOL    HW227933   3.623  13.330  12.184  0.8053 -0.0921 -0.4065
72070SOL     OW27934   7.898   8.413   1.159  0.5815  0.0730  0.3128
72070SOL    HW127935   7.820   8.468   1.147  0.7259  1.0774  3.1681
72070SOL    HW227936   7.885   8.373   1.245  3.1624  0.1826  0.8190
72071SOL     OW27937   9.017   7.171  10.150  0.2364 -0.0138 -0.7000
72071SOL    HW127938   9.003   7.094  10.204 -2.4468  2.8792  3.3459
72071SOL    HW227939   9.112   7.175  10.137  0.8834 -1.9473  2.3843
72072SOL     OW27940   9.614   7.132  11.761  0.2621  0.2549  0.1864
72072SOL    HW127941   9.536   7.177  11.729  0.0200  0.8177  1.4986
72072SOL    HW227942   9.622   7.160  11.852  0.8058 -1.4491  0.6911
72073SOL     OW27943   6.184   3.722  11.105  0.4104  0.4505  1.2127
72073SOL    HW127944   6.271   3.692  11.132  1.1119 -1.0287 -2.2192
72073SOL    HW227945   6.201   3.793  11.043 -0.6391 -1.0277 -0.8878
72074SOL     OW27946  12.535   8.224  11.049  0.2192 -0.3193 -0.4664
72074SOL    HW127947  12.527   8.278  11.128  1.8634 -0.9963  0.2167
72074SOL    HW227948  12.478   8.149  11.065  0.3155 -0.3046 -0.0346
72075SOL     OW27949   3.129   9.357   6.892 -0.0325 -0.0194  0.2197
72075SOL    HW127950   3.178   9.433   6.923 -0.2033  0.0743  0.2554
72075SOL    HW227951   3.193   9.285   6.896  1.1841  0.7421 -3.0031
72076SOL     OW27952   2.571   5.974   0.728 -0.5430 -0.3761 -0.4448
72076SOL    HW127953   2.662   5.949   0.711 -0.7825 -1.8903  0.3596
72076SOL    HW227954   2.537   5.999   0.642  0.7228  0.6192 -0.7000
72077SOL     OW27955  11.184  12.762   2.555 -0.5924  0.7186 -0.1909
72077SOL    HW127956  11.106  12.779   2.502 -0.8286 -0.7063 -0.3592
72077SOL    HW227957  11.152  12.761   2.645 -1.5051 -2.9371 -0.3943
72078SOL     OW27958  10.965   1.792   1.256  0.7966 -0.4767  0.0639
72078SOL    HW127959  10.973   1.843   1.175 -3.6034 -0.0804 -0.3675
72078SOL    HW227960  10.929   1.853   1.320 -0.9066 -2.0242  0.6777
72079SOL     OW27961   7.973   5.984   7.656  0.3745 -0.0124  0.2927
72079SOL    HW127962   8.033   6.029   7.597  0.7632  0.1597  0.8073
72079SOL    HW227963   8.030   5.939   7.719  0.0203 -1.8481 -0.6321
72080SOL     OW27964   7.109  11.735   4.911  0.0951  0.0137 -0.3351
72080SOL    HW127965   7.139  11.756   5.000 -0.7809 -1.8936  0.4696
72080SOL    HW227966   7.021  11.774   4.906  0.3887  0.6535 -0.6066
72081SOL     OW27967   9.248   7.022   8.183  0.3801  0.2847 -0.0264
72081SOL    HW127968   9.281   7.026   8.093 -0.2835 -1.1050 -0.3470
72081SOL    HW227969   9.153   7.017   8.174  0.3627 -1.1970  0.6797
72082SOL     OW27970   8.146   6.500  11.527  0.4806 -0.5315 -0.6026
72082SOL    HW127971   8.058   6.468  11.544  0.5416 -0.7008 -0.5994
72082SOL    HW227972   8.136   6.560  11.453  0.0958  0.8377  0.5126
72083SOL     OW27973   1.521   6.423   6.491  0.4340  0.2661 -0.6181
72083SOL    HW127974   1.572   6.367   6.550  0.8350  1.2670  0.0075
72083SOL    HW227975   1.430   6.412   6.519  0.0715 -2.4234 -2.4709
72084SOL     OW27976   0.357  10.381  13.619  0.2066  0.0878  0.1827
72084SOL    HW127977   0.265  10.392  13.645 -0.5326 -3.0717 -0.6300
72084SOL    HW227978   0.355  10.392  13.523  0.6858 -0.0554  0.1596
72085SOL     OW27979   3.305   1.264   6.566  0.1290 -0.1408 -0.0704
72085SOL    HW127980   3.239   1.198   6.544  1.1899 -1.2736 -0.0049
72085SOL    HW227981   3.295   1.332   6.500  1.3738 -2.0990 -2.4584
72086SOL     OW27982   1.506  13.090  12.763  0.2000 -0.1693 -0.0520
72086SOL    HW127983   1.551  13.066  12.844 -0.2435 -0.5931  0.0690
72086SOL    HW227984   1.555  13.045  12.694  0.9919  0.7225 -0.1057
72087SOL     OW27985   7.795   8.351   5.769 -0.3823  0.4127  0.1111
72087SOL    HW127986   7.860   8.280   5.774 -0.9131 -0.0800  0.0558
72087SOL    HW227987   7.716   8.309   5.735 -0.5200  1.1559 -0.5184
72088SOL     OW27988   1.193   7.308   6.949 -0.3149 -0.5696 -0.2177
72088SOL    HW127989   1.205   7.213   6.954 -0.7059 -0.5575  1.3086
72088SOL    HW227990   1.167   7.323   6.858 -0.3473 -1.9319 -0.4628
72089SOL     OW27991   6.279   5.076   8.522 -0.0907 -0.3925 -0.2699
72089SOL    HW127992   6.325   5.079   8.606 -0.2596  0.1539 -0.1968
72089SOL    HW227993   6.346   5.102   8.458 -0.3119  0.4547 -0.1567
72090SOL     OW27994   2.218   5.488   6.574  0.8802  0.1256  0.3456
72090SOL    HW127995   2.197   5.439   6.494 -2.0624 -0.4905  1.3760
72090SOL    HW227996   2.227   5.421   6.641 -0.4511  0.8020  1.2358
72091SOL     OW27997   7.039   9.168   9.134 -0.4570  0.4653 -0.4825
72091SOL    HW127998   7.020   9.185   9.042 -1.8064  1.7196 -0.0115
72091SOL    HW227999   7.133   9.184   9.143 -0.9153  4.2902 -0.8867
72092SOL     OW28000   9.495   1.711  13.438 -0.2685  0.0341 -0.3856
72092SOL    HW128001   9.495   1.737  13.530  1.0178  0.2890 -0.4401
72092SOL    HW228002   9.535   1.624  13.437  0.0466  0.1786 -0.7347
72093SOL     OW28003   9.374   0.548   7.997  0.1928  0.6991 -0.2318
72093SOL    HW128004   9.421   0.465   7.986 -1.5698 -0.2563 -0.8858
72093SOL    HW228005   9.343   0.570   7.909  0.1119  1.7358  0.0406
72094SOL     OW28006   1.231   3.731   7.946  0.1970 -0.7016 -0.5974
72094SOL    HW128007   1.234   3.722   7.851 -0.0433 -1.5855 -0.5308
72094SOL    HW228008   1.290   3.804   7.965  1.7328 -1.7078 -1.2852
72095SOL     OW28009   1.301   5.327   9.604  0.1094 -0.3764 -0.6407
72095SOL    HW128010   1.276   5.303   9.515  0.5701  0.0963 -0.9090
72095SOL    HW228011   1.279   5.420   9.611  0.4007 -0.3230 -0.3818
72096SOL     OW28012   7.660   2.180  12.405  0.4531 -0.5447  0.4028
72096SOL    HW128013   7.718   2.255  12.398  0.1626 -0.3775 -0.3172
72096SOL    HW228014   7.585   2.211  12.456 -0.7123  0.3356 -1.7422
72097SOL     OW28015   3.440   9.936   1.467 -0.3056  0.1419 -0.0245
72097SOL    HW128016   3.511   9.997   1.485  1.1834 -1.0269 -1.6676
72097SOL    HW228017   3.395   9.927   1.551  2.3285 -0.1086  1.4709
72098SOL     OW28018   0.467  11.945  12.444  0.1959 -0.4705 -0.1191
72098SOL    HW128019   0.437  11.855  12.440  0.6694 -0.6071 -0.8379
72098SOL    HW228020   0.389  11.996  12.466 -0.2994 -0.9411 -0.7511
72099SOL     OW28021   9.897  10.181   5.818  0.2753  0.6039  0.1773
72099SOL    HW128022   9.833  10.180   5.746 -2.4915 -0.8364  2.4488
72099SOL    HW228023   9.889  10.268   5.856  1.1075  1.0655 -0.6466
72100SOL     OW28024   6.086   9.612   8.943  0.0957 -0.1269 -0.1579
72100SOL    HW128025   6.150   9.682   8.955  0.4595 -0.5455  0.3763
72100SOL    HW228026   6.079   9.571   9.029 -0.0732 -0.7841 -0.4788
72101SOL     OW28027   9.191   6.977  11.772 -0.1380 -0.2958 -0.4310
72101SOL    HW128028   9.238   7.047  11.728  1.0958  2.1978  4.1790
72101SOL    HW228029   9.099   7.002  11.767  0.1973  1.1668  0.2392
72102SOL     OW28030  10.415   6.356   7.701 -0.1418  0.2716  0.2515
72102SOL    HW128031  10.387   6.350   7.793  0.3496  0.4562  0.4156
72102SOL    HW228032  10.358   6.423   7.664 -1.6727 -1.1649 -0.0909
72103SOL     OW28033   7.731   5.104  13.256 -0.7608 -0.1790 -0.0431
72103SOL    HW128034   7.689   5.084  13.339 -1.9303 -2.8003 -1.1388
72103SOL    HW228035   7.723   5.023  13.205  0.5147  1.0930 -2.4606
72104SOL     OW28036   4.966  11.230   1.374  0.1447  0.0328  0.4428
72104SOL    HW128037   5.053  11.197   1.354  0.9100  1.4634  1.2536
72104SOL    HW228038   4.942  11.284   1.298  0.7737  1.1373  1.0109
72105SOL     OW28039  11.220  10.207  12.975  0.1003  0.1835  0.1428
72105SOL    HW128040  11.253  10.212  12.885  0.4910  0.6468  0.3161
72105SOL    HW228041  11.297  10.217  13.030 -0.0116 -0.9574  0.5380
72106SOL     OW28042   5.664   8.616   8.774  0.0707 -0.1412 -0.7868
72106SOL    HW128043   5.572   8.596   8.757 -0.2553  1.6746 -1.3455
72106SOL    HW228044   5.678   8.591   8.866 -0.6475 -1.4976 -1.0266
72107SOL     OW28045   0.552   5.855   4.515  0.1021 -0.0163  0.4887
72107SOL    HW128046   0.523   5.894   4.598  0.9240  0.2137  0.6696
72107SOL    HW228047   0.595   5.927   4.469  1.1344 -0.5528  0.5847
72108SOL     OW28048   4.091   4.902  11.698  0.5545 -0.0558  0.0660
72108SOL    HW128049   4.129   4.957  11.630  0.2988  0.2373  0.1612
72108SOL    HW228050   4.033   4.960  11.747  0.3736 -0.3776  0.2396
72109SOL     OW28051   1.589   1.397   2.287 -0.2894  0.5927  0.0084
72109SOL    HW128052   1.529   1.334   2.248  1.3457  0.5081 -2.6325
72109SOL    HW228053   1.652   1.344   2.336 -0.5402  0.4319  0.1596
72110SOL     OW28054   8.951   5.145  10.874 -0.1463 -0.4706 -0.7377
72110SOL    HW128055   8.932   5.214  10.938  1.3265 -0.5524 -0.1659
72110SOL    HW228056   9.046   5.151  10.860 -0.2594 -1.2580 -1.9972
72111SOL     OW28057   0.151  10.651   5.432 -0.5972 -0.1299 -0.0828
72111SOL    HW128058   0.115  10.662   5.520 -4.4913  1.3544 -1.6636
72111SOL    HW228059   0.206  10.728   5.418 -1.0781  0.3378  0.5527
72112SOL     OW28060   1.669   9.449   4.777  0.8179 -0.2348 -0.5026
72112SOL    HW128061   1.737   9.515   4.763  0.1551  0.4278 -0.6389
72112SOL    HW228062   1.693   9.377   4.718  2.2011 -0.6459  0.4985
72113SOL     OW28063   1.838  12.425  11.718 -0.1073 -0.2526  0.0084
72113SOL    HW128064   1.890  12.356  11.758 -0.1466  0.1060  0.6920
72113SOL    HW228065   1.748  12.393  11.725 -0.0293 -0.6562 -0.7386
72114SOL     OW28066   6.356  10.365   0.453  0.0435  0.1549  0.4298
72114SOL    HW128067   6.341  10.398   0.542 -0.2643 -0.1467  0.4901
72114SOL    HW228068   6.317  10.431   0.396 -1.6082 -0.6443  0.5844
72115SOL     OW28069   5.733   8.595   6.583  0.0965 -0.1840 -0.3876
72115SOL    HW128070   5.717   8.683   6.548  2.7779  0.5670  0.0888
72115SOL    HW228071   5.705   8.600   6.674 -1.6206 -0.4887 -0.8477
72116SOL     OW28072   3.744   1.925   4.417 -0.0265 -0.2013  0.0896
72116SOL    HW128073   3.659   1.885   4.437 -0.4823  0.3850 -0.6566
72116SOL    HW228074   3.761   1.901   4.326  0.0951  0.6016 -0.1011
72117SOL     OW28075   2.018   9.097  13.391  0.0863  0.0842 -0.3587
72117SOL    HW128076   1.949   9.036  13.364  0.9351 -0.3934 -1.5334
72117SOL    HW228077   1.994   9.180  13.350  0.1885 -0.0800 -0.7626
72118SOL     OW28078  12.596  12.875   4.152 -0.1080  0.2280 -0.4460
72118SOL    HW128079  12.526  12.814   4.127  1.0536 -1.2378 -0.2951
72118SOL    HW228080  12.601  12.936   4.079 -2.0136  0.8228 -0.1293
72119SOL     OW28081   1.550  11.432   7.422 -0.1171 -0.2995  0.4078
72119SOL    HW128082   1.516  11.519   7.403  1.4740 -0.1772 -2.5054
72119SOL    HW228083   1.608  11.444   7.497  1.8195  1.7171 -1.2784
72120SOL     OW28084   1.993   1.221   9.482  0.1526  0.3043  0.3382
72120SOL    HW128085   2.031   1.264   9.558  0.7501 -0.9112  0.7541
72120SOL    HW228086   2.068   1.186   9.433 -0.3287 -1.7872  0.9716
72121SOL     OW28087   8.329  11.155   9.237  0.1065 -0.6632  0.0551
72121SOL    HW128088   8.422  11.133   9.237  0.0056 -1.1262 -0.3411
72121SOL    HW228089   8.314  11.197   9.321  0.2266 -2.5206  1.0479
72122SOL     OW28090  13.184  10.841  11.174  0.1775  0.9891 -0.5621
72122SOL    HW128091  13.137  10.857  11.092  0.6902  1.4529 -0.7743
72122SOL    HW228092  13.207  10.748  11.171 -0.8744  0.7163 -0.3704
72123SOL     OW28093   9.584   7.790  10.341  0.5281  0.0086 -0.3452
72123SOL    HW128094   9.627   7.801  10.257 -0.5966 -0.8333 -1.0697
72123SOL    HW228095   9.543   7.874  10.359 -0.9842 -0.3921 -1.6966
72124SOL     OW28096   9.624   1.509  12.137 -0.2796  0.4191  0.6958
72124SOL    HW128097   9.650   1.555  12.217 -0.8778  1.0731  0.5171
72124SOL    HW228098   9.545   1.461  12.161  1.3943 -2.2308  1.4713
72125SOL     OW28099   9.804   8.670   3.692  0.2685  0.3747 -0.4238
72125SOL    HW128100   9.751   8.613   3.637 -0.4820  0.1168  0.5344
72125SOL    HW228101   9.860   8.718   3.631 -0.8585  0.4398 -1.4301
72126SOL     OW28102   1.690   5.381   1.555  0.0357  0.2732  0.3983
72126SOL    HW128103   1.705   5.426   1.471 -0.9758 -0.2049 -0.0535
72126SOL    HW228104   1.774   5.340   1.575  0.5078  1.0351  0.0068
72127SOL     OW28105  11.782   2.309   5.681  0.7178  0.6453 -0.2585
72127SOL    HW128106  11.867   2.267   5.662 -0.2850 -1.2783 -0.7799
72127SOL    HW228107  11.719   2.256   5.633 -0.9148  1.3529  1.0306
72128SOL     OW28108   7.491   3.093   6.154  0.0516 -0.2900  0.4518
72128SOL    HW128109   7.525   3.005   6.168 -0.6324 -0.5517  0.4941
72128SOL    HW228110   7.569   3.146   6.135  0.4081 -1.0161 -0.1556
72129SOL     OW28111  12.716   1.258   4.606 -0.1823 -0.3667 -0.1461
72129SOL    HW128112  12.668   1.214   4.676 -0.3569 -0.2418 -0.1855
72129SOL    HW228113  12.762   1.329   4.650  2.5184 -2.3467  0.4349
72130SOL     OW28114   3.402  12.461  13.416 -0.3976 -0.6432 -0.1193
72130SOL    HW128115   3.322  12.410  13.424 -1.0000  0.3629  0.4717
72130SOL    HW228116   3.373  12.552  13.411  0.6917 -0.2788 -0.2082
72131SOL     OW28117   3.818  11.189   4.401  0.9955 -0.1767  0.3881
72131SOL    HW128118   3.789  11.098   4.390 -0.1363  0.4064 -2.3134
72131SOL    HW228119   3.808  11.206   4.495 -0.6202 -2.2616  0.6796
72132SOL     OW28120   8.629   5.098  12.670 -0.6699  0.2332  0.1643
72132SOL    HW128121   8.551   5.058  12.707 -0.6572  2.0270  2.3217
72132SOL    HW228122   8.693   5.028  12.667 -1.9993 -1.0117 -0.6722
72133SOL     OW28123   1.916  12.184   8.218 -0.0515 -0.1550  0.5200
72133SOL    HW128124   1.957  12.147   8.296 -0.0393 -1.9546 -0.2987
72133SOL    HW228125   1.988  12.219   8.167  0.5854 -3.0302 -0.7670
72134SOL     OW28126   6.710  12.101   5.939  0.2987 -0.4456  0.0414
72134SOL    HW128127   6.736  12.114   5.848 -1.5318  2.5001 -0.2173
72134SOL    HW228128   6.785  12.131   5.990  0.6326 -0.3181 -0.5160
72135SOL     OW28129  11.460  11.514   5.022 -0.5153  0.6075 -0.2064
72135SOL    HW128130  11.399  11.584   5.044  0.5763  1.4871  0.1491
72135SOL    HW228131  11.427  11.478   4.940 -1.7405  0.7617  0.1970
72136SOL     OW28132   2.406  13.178  10.673 -0.4008  0.5664 -0.6652
72136SOL    HW128133   2.458  13.120  10.617 -1.1573  0.4423 -1.2473
72136SOL    HW228134   2.438  13.266  10.652  0.6583  0.3941  0.1251
72137SOL     OW28135   5.303   4.478  10.319 -0.8883 -0.5292  0.7287
72137SOL    HW128136   5.246   4.539  10.367  0.8695 -0.4605  2.8835
72137SOL    HW228137   5.254   4.458  10.239 -2.9287  1.2226  1.4279
72138SOL     OW28138   7.500   1.993   9.006 -0.0591 -0.2785 -0.0290
72138SOL    HW128139   7.477   2.068   9.061  0.8268  0.6732 -0.8993
72138SOL    HW228140   7.532   2.032   8.925  2.9899 -1.4824  0.4694
72139SOL     OW28141  10.794   5.004   8.975 -0.3184 -0.6979  0.2778
72139SOL    HW128142  10.839   5.072   9.025  0.0484 -0.2092 -0.6873
72139SOL    HW228143  10.840   4.923   8.998  1.1224 -0.2114 -0.6982
72140SOL     OW28144  10.038   7.017   6.526  0.3193 -0.1787  0.1275
72140SOL    HW128145  10.020   6.933   6.485  0.2019  0.0962 -0.3967
72140SOL    HW228146   9.982   7.019   6.604 -1.6014  0.4576 -1.1962
72141SOL     OW28147  10.910   7.217  13.724  0.0108 -0.1712  0.1438
72141SOL    HW128148  10.890   7.211  13.631 -1.5079 -0.5002  0.4637
72141SOL    HW228149  10.945   7.130  13.746  2.8900  0.6930 -0.6150
72142SOL     OW28150   2.524   2.963   9.418  0.4520 -0.3915  0.0828
72142SOL    HW128151   2.532   3.055   9.443 -0.2537 -0.0800 -0.7564
72142SOL    HW228152   2.614   2.936   9.399  0.5763  0.4341 -0.6374
72143SOL     OW28153  12.610   6.948   2.656 -0.5501  0.1476  0.0167
72143SOL    HW128154  12.609   7.029   2.607  0.3626 -0.9141 -1.8499
72143SOL    HW228155  12.522   6.940   2.692 -1.1283  1.1694 -1.1186
72144SOL     OW28156   7.314   5.031   3.716  0.0460 -0.7418 -0.2051
72144SOL    HW128157   7.309   5.073   3.802 -3.7037 -1.5273  0.1525
72144SOL    HW228158   7.405   5.041   3.689  0.9249  1.2419  2.9768
72145SOL     OW28159  12.530  12.373  12.955  0.3178  0.0745  0.3509
72145SOL    HW128160  12.449  12.362  13.006  0.5199  1.1017  0.9272
72145SOL    HW228161  12.598  12.336  13.012  0.4480  0.5897  0.5380
72146SOL     OW28162   8.850   8.888  13.550 -0.5209 -0.0720  0.2928
72146SOL    HW128163   8.838   8.845  13.465 -1.4652  0.2497  0.2557
72146SOL    HW228164   8.857   8.817  13.613  0.5796 -0.3268 -0.0910
72147SOL     OW28165  13.193   8.942   2.139 -0.0573 -0.6514 -0.1021
72147SOL    HW128166  13.133   9.003   2.096  0.2108 -1.0698 -1.1012
72147SOL    HW228167  13.256   8.998   2.184 -1.0374 -0.2110  0.7609
72148SOL     OW28168  11.196   8.877   3.492 -0.0889  0.1950 -0.0149
72148SOL    HW128169  11.253   8.817   3.443  0.5123  0.4586  0.3503
72148SOL    HW228170  11.246   8.898   3.571 -0.5072  0.7907  0.0954
72149SOL     OW28171   3.058  11.728   4.767 -0.0206 -0.0222  0.2244
72149SOL    HW128172   3.040  11.665   4.698  0.3698 -0.4815  0.5353
72149SOL    HW228173   3.053  11.677   4.848 -0.7099  0.5538  0.5584
72150SOL     OW28174   9.706   4.732   9.726 -0.7056  0.5714 -0.2265
72150SOL    HW128175   9.685   4.683   9.806  3.6171  0.6697  1.2344
72150SOL    HW228176   9.698   4.668   9.656  2.0639 -1.6224  1.2813
72151SOL     OW28177   6.636   0.593   1.539 -0.0541 -0.3147 -0.2364
72151SOL    HW128178   6.701   0.653   1.576 -1.5550  1.8720 -0.9825
72151SOL    HW228179   6.626   0.525   1.606  1.4812  0.4029  0.7773
72152SOL     OW28180  12.439   2.675   9.379  0.2072 -0.8685 -0.3870
72152SOL    HW128181  12.505   2.661   9.310  0.3300  1.5444 -0.8705
72152SOL    HW228182  12.357   2.684   9.331  0.1456 -0.1296 -0.1621
72153SOL     OW28183   3.286   4.137   8.678 -0.2976 -0.0632 -0.4487
72153SOL    HW128184   3.203   4.180   8.660 -0.0099  0.3388 -0.8334
72153SOL    HW228185   3.281   4.054   8.631 -0.1769  0.3001 -1.1172
72154SOL     OW28186   2.897   9.157   8.294 -0.5768  0.0709  0.2136
72154SOL    HW128187   2.803   9.167   8.308 -0.6235  2.7700 -1.3450
72154SOL    HW228188   2.921   9.228   8.235  2.5407 -0.3131  0.8023
72155SOL     OW28189   1.207   6.563   8.330  0.1355  0.3330  0.0258
72155SOL    HW128190   1.261   6.489   8.301 -1.2255 -1.0903  0.9834
72155SOL    HW228191   1.254   6.641   8.298  0.7258 -0.9715 -2.5146
72156SOL     OW28192   9.760   7.805  11.860  0.3176 -0.0227  0.0371
72156SOL    HW128193   9.777   7.899  11.872  0.9583 -0.0299 -0.7342
72156SOL    HW228194   9.767   7.791  11.766 -3.2353 -0.1999 -0.3483
72157SOL     OW28195   2.904   5.608   6.499 -0.5278 -0.4680  0.3903
72157SOL    HW128196   2.833   5.562   6.454  0.1438 -2.8796  1.6821
72157SOL    HW228197   2.901   5.576   6.589  1.4866  0.2648  0.7675
72158SOL     OW28198  11.579   6.881   0.380 -0.2429 -0.6617  0.0714
72158SOL    HW128199  11.529   6.960   0.399 -0.8933 -1.2738  0.9740
72158SOL    HW228200  11.657   6.888   0.434  2.0407  1.4837 -3.0883
72159SOL     OW28201   4.835   1.108   2.521 -0.1990  0.2063 -0.2613
72159SOL    HW128202   4.879   1.035   2.478  0.4341  0.0241  0.6665
72159SOL    HW228203   4.838   1.087   2.614  0.4555  1.6514  0.0772
72160SOL     OW28204   0.045   5.178   2.390 -0.1993 -0.0180  0.1001
72160SOL    HW128205   0.099   5.178   2.469  0.3541  0.9084 -0.2590
72160SOL    HW228206   0.039   5.271   2.366 -2.1917 -0.0495  0.2879
72161SOL     OW28207   7.901   4.864   6.986 -0.3191 -0.3303 -0.6359
72161SOL    HW128208   7.939   4.780   6.958 -0.0464 -0.1070 -0.9600
72161SOL    HW228209   7.953   4.929   6.939  0.6876  0.1050  1.0201
72162SOL     OW28210  13.471   8.416  10.346 -1.1472 -0.1574 -0.4416
72162SOL    HW128211  13.426   8.352  10.292  1.2272 -1.9785 -0.4674
72162SOL    HW228212  13.451   8.390  10.436 -0.9927 -0.3479 -0.4598
72163SOL     OW28213   4.954  11.119   8.986 -0.3289  0.4300  0.3018
72163SOL    HW128214   4.872  11.152   8.951  0.7788  1.8528 -1.0820
72163SOL    HW228215   5.014  11.193   8.981  0.5172  0.0709  3.2590
72164SOL     OW28216   8.875   4.259   2.143 -0.6817  0.2101 -0.1296
72164SOL    HW128217   8.907   4.349   2.148 -0.7656  0.1880  1.0266
72164SOL    HW228218   8.899   4.230   2.055 -1.4149  1.6411 -0.8353
72165SOL     OW28219   4.861   1.659   5.924 -0.0995  0.3677  0.1867
72165SOL    HW128220   4.844   1.745   5.885 -0.7464 -0.7615 -2.1609
72165SOL    HW228221   4.776   1.631   5.959 -0.1906  0.1365 -0.2150
72166SOL     OW28222  13.513   1.420   2.244  0.5828  0.1847  0.2999
72166SOL    HW128223  13.444   1.478   2.209 -0.9847 -2.5540 -1.5191
72166SOL    HW228224  13.569   1.402   2.169  1.1216 -0.5482  0.8647
72167SOL     OW28225   5.146   5.381   6.680 -0.6632 -0.1629 -0.0565
72167SOL    HW128226   5.153   5.352   6.589 -3.0462  1.2434 -0.7872
72167SOL    HW228227   5.061   5.348   6.709 -1.2518  1.8048  0.6430
72168SOL     OW28228   6.395   0.657  11.165 -0.2678  0.0343  0.0685
72168SOL    HW128229   6.437   0.722  11.222  0.5566 -1.3293  1.0859
72168SOL    HW228230   6.304   0.656  11.194 -0.9513  2.5114 -1.6841
72169SOL     OW28231  11.741   4.326  12.639  0.2337  0.6239  0.0819
72169SOL    HW128232  11.829   4.294  12.658  0.3877  0.2651 -1.1145
72169SOL    HW228233  11.690   4.305  12.717  0.9758 -0.0829  0.3896
72170SOL     OW28234   1.024   2.409   8.345 -0.0385 -0.0416 -0.3217
72170SOL    HW128235   0.931   2.416   8.327  0.2689  2.9163 -1.2819
72170SOL    HW228236   1.042   2.478   8.408  1.5510 -0.4187 -0.3030
72171SOL     OW28237   5.476  13.070   4.939  0.0721 -0.2102 -0.5574
72171SOL    HW128238   5.474  13.032   5.026  0.1912  0.5928 -0.1915
72171SOL    HW228239   5.550  13.028   4.895  0.5583  0.0195  0.0356
72172SOL     OW28240   1.825   0.515   4.890  0.2712  0.0742 -0.1760
72172SOL    HW128241   1.771   0.571   4.946 -1.0806 -0.4887 -0.8799
72172SOL    HW228242   1.908   0.563   4.882 -0.7805  1.9113 -0.6301
72173SOL     OW28243  11.451  10.700  13.678 -0.1445 -0.1035 -0.0684
72173SOL    HW128244  11.497  10.644  13.740 -1.0610 -0.8529 -0.0275
72173SOL    HW228245  11.435  10.643  13.603  1.2770  0.9032 -1.1699
72174SOL     OW28246   4.221  13.690  13.125 -0.6196  0.0604  0.6771
72174SOL    HW128247   4.202  13.708  13.033  1.0128 -0.2932  0.2386
72174SOL    HW228248   4.163  13.617  13.147 -0.0952 -0.7400 -0.4759
72175SOL     OW28249   5.187   1.989   5.734  0.0026  0.4285 -0.2418
72175SOL    HW128250   5.231   1.906   5.752 -0.4704  0.4442  1.0969
72175SOL    HW228251   5.174   1.989   5.639  3.5945  0.7971 -0.8707
72176SOL     OW28252   5.735   8.074   8.435 -0.2119 -0.9461 -0.2209
72176SOL    HW128253   5.691   7.999   8.474 -0.4548 -1.1078 -0.7867
72176SOL    HW228254   5.684   8.149   8.463  0.2363 -0.9544  0.6352
72177SOL     OW28255   2.245   7.010   8.460 -0.3814  0.4872 -0.3947
72177SOL    HW128256   2.300   6.952   8.513 -1.0684  0.9100  0.8144
72177SOL    HW228257   2.156   6.985   8.481 -0.7236  2.4333  0.7497
72178SOL     OW28258  12.821   7.901   2.459  0.1179  0.2721 -0.0132
72178SOL    HW128259  12.777   7.898   2.374  0.5672 -0.4551 -0.2317
72178SOL    HW228260  12.806   7.990   2.491 -0.0407  0.5616 -0.8651
72179SOL     OW28261   3.480   2.184   0.402  0.2170  0.5522 -0.9550
72179SOL    HW128262   3.405   2.134   0.369 -0.5891  1.5891 -0.7656
72179SOL    HW228263   3.501   2.245   0.332  1.2079 -0.0571 -1.1976
72180SOL     OW28264  13.613   2.349  11.212 -0.8469 -0.3717 -0.0231
72180SOL    HW128265  13.647   2.343  11.123  0.2751  1.4037  0.2256
72180SOL    HW228266  13.682   2.395  11.261 -2.7952  1.7447  0.9699
72181SOL     OW28267   4.491   2.304   0.319  0.0890 -0.1129 -0.1699
72181SOL    HW128268   4.569   2.351   0.348  0.5957 -1.5585  0.9435
72181SOL    HW228269   4.466   2.251   0.395  0.1611 -2.4136 -1.6576
72182SOL     OW28270   2.290  12.848   8.415 -0.3771  0.3590 -0.4494
72182SOL    HW128271   2.266  12.763   8.451 -1.8975  0.8448 -0.2461
72182SOL    HW228272   2.366  12.830   8.360 -0.0920 -0.9632  0.3301
72183SOL     OW28273  12.909   9.930   7.773 -0.3291  0.9925 -0.4879
72183SOL    HW128274  12.989   9.953   7.820 -0.5875  2.1181 -0.5497
72183SOL    HW228275  12.842   9.925   7.841 -0.1402 -0.4080 -0.3768
72184SOL     OW28276   5.847  10.776  11.616  0.2719 -0.1168  0.2967
72184SOL    HW128277   5.795  10.825  11.552  0.4647 -0.6909 -0.3048
72184SOL    HW228278   5.792  10.773  11.694  0.1228  0.7767  0.2393
72185SOL     OW28279   4.078   8.796   7.575  0.6905  0.0618  0.2240
72185SOL    HW128280   4.111   8.886   7.579 -1.9231  1.0704  1.1631
72185SOL    HW228281   4.047   8.786   7.485  0.0314  0.4992  0.3930
72186SOL     OW28282   6.453  12.323   4.652 -0.4776 -0.4165  0.1028
72186SOL    HW128283   6.362  12.335   4.679 -0.5024  1.1033 -0.4978
72186SOL    HW228284   6.448  12.312   4.557  0.0269  1.2363 -0.1553
72187SOL     OW28285   2.577  13.194   5.487 -0.0457  0.3870  0.6831
72187SOL    HW128286   2.598  13.132   5.416 -0.3890  0.4457  0.5289
72187SOL    HW228287   2.654  13.250   5.493  0.0640  0.2603  0.4844
72188SOL     OW28288   9.776   3.468  13.116  0.2267  0.1475 -0.3796
72188SOL    HW128289   9.861   3.489  13.152 -0.0185  0.0666  0.2563
72188SOL    HW228290   9.774   3.372  13.113  0.4986  0.1626 -1.2252
72189SOL     OW28291   8.789  13.176   1.139 -0.4917  0.0283  0.0415
72189SOL    HW128292   8.721  13.188   1.204 -1.6123 -1.0386 -0.8779
72189SOL    HW228293   8.762  13.230   1.065 -0.6630 -0.8274 -0.5393
72190SOL     OW28294   5.279  11.647   7.875  0.1615 -0.3325  0.0125
72190SOL    HW128295   5.224  11.701   7.933 -0.3578 -0.4107 -0.3944
72190SOL    HW228296   5.334  11.596   7.934 -1.6447 -1.7752  0.5474
72191SOL     OW28297  10.291   6.524   3.127 -0.3158  0.5305 -0.6553
72191SOL    HW128298  10.242   6.446   3.102  0.8089 -0.3799 -0.1429
72191SOL    HW228299  10.334   6.500   3.209  1.1508  1.1880 -1.1848
72192SOL     OW28300   3.211   1.223  12.754 -0.1246  0.4104  0.3590
72192SOL    HW128301   3.191   1.289  12.688  0.1899 -0.3707 -0.5334
72192SOL    HW228302   3.272   1.267  12.814  0.6022  0.7370 -0.5964
72193SOL     OW28303   2.247   4.024   2.634  0.5623  0.2160 -0.0760
72193SOL    HW128304   2.331   4.010   2.679  0.3963 -0.3824  0.0523
72193SOL    HW228305   2.269   4.081   2.560  0.6905  2.0177  1.2794
72194SOL     OW28306   9.460   3.058   5.385 -0.0716 -0.2038  0.1164
72194SOL    HW128307   9.438   3.092   5.471  0.8414  1.1784 -0.1587
72194SOL    HW228308   9.391   3.092   5.328  0.3294  0.4475  0.0045
72195SOL     OW28309   8.669   2.613   9.828  0.3410  0.7351 -0.4780
72195SOL    HW128310   8.741   2.669   9.797  0.4165  0.3503 -1.0199
72195SOL    HW228311   8.591   2.667   9.818  0.0883  0.0077 -3.2204
72196SOL     OW28312   7.832   7.314  11.270 -0.1192  0.0382  0.1422
72196SOL    HW128313   7.838   7.392  11.326 -0.8633 -0.3474  0.7838
72196SOL    HW228314   7.848   7.240  11.328 -0.9674 -0.3769 -0.1314
72197SOL     OW28315   7.918   1.618  12.994  0.0801 -0.3905  0.3568
72197SOL    HW128316   7.995   1.596  13.047  1.5209  0.1845 -1.4192
72197SOL    HW228317   7.916   1.551  12.926 -0.6955 -0.0736  0.0575
72198SOL     OW28318  12.769   3.394   7.950  0.2614 -0.0666  0.0432
72198SOL    HW128319  12.848   3.396   8.003 -0.1821 -0.1129  0.7166
72198SOL    HW228320  12.700   3.426   8.008  0.1688  2.2258 -1.2324
72199SOL     OW28321   2.972   0.171  10.521  0.4218  0.7254 -0.2074
72199SOL    HW128322   3.008   0.205  10.603  2.1733 -1.8213  0.1874
72199SOL    HW228323   3.049   0.159  10.464 -0.1489 -1.6850 -0.5771
72200SOL     OW28324   1.238   9.081   3.705 -0.0706 -0.5861  0.1339
72200SOL    HW128325   1.244   9.092   3.799 -1.5025 -1.4641  0.3656
72200SOL    HW228326   1.159   9.129   3.680 -0.2687 -1.1969 -0.4558
72201SOL     OW28327  13.206   2.465  11.305 -0.1019 -0.0385 -0.1709
72201SOL    HW128328  13.180   2.375  11.289  0.9189 -0.2301 -0.8816
72201SOL    HW228329  13.296   2.460  11.336 -0.0385  0.7256 -0.1930
72202SOL     OW28330  10.767   7.980   2.853 -1.0610 -0.4284 -0.5604
72202SOL    HW128331  10.843   8.000   2.908 -0.5224  0.1269 -1.4844
72202SOL    HW228332  10.695   8.029   2.892 -0.2184  1.7315 -1.5862
72203SOL     OW28333   2.479  12.680   8.106 -0.0672 -0.1416  0.2295
72203SOL    HW128334   2.475  12.654   8.014  0.3424 -0.6221  0.3383
72203SOL    HW228335   2.478  12.597   8.154  0.3134  0.0778  0.6258
72204SOL     OW28336   3.629  11.112  13.681 -0.3478  0.2847  0.2470
72204SOL    HW128337   3.646  11.018  13.672 -1.3788  0.1035  0.0554
72204SOL    HW228338   3.553  11.127  13.624 -0.4038  1.1681  0.5532
72205SOL     OW28339  12.368   4.680   4.526  0.2823  0.1965 -0.6039
72205SOL    HW128340  12.384   4.638   4.610 -0.9293  1.6250  0.4051
72205SOL    HW228341  12.421   4.760   4.529  0.8204 -0.1197 -1.5201
72206SOL     OW28342  12.805  12.620   9.712  0.2277  0.1063  0.1336
72206SOL    HW128343  12.715  12.625   9.682  0.3531 -1.1553 -0.5301
72206SOL    HW228344  12.857  12.654   9.639  0.3243  0.2400  0.2646
72207SOL     OW28345   3.833   1.461   7.291  0.7302  0.1543  0.1854
72207SOL    HW128346   3.903   1.397   7.304  3.1352  2.4455 -0.4537
72207SOL    HW228347   3.867   1.542   7.331 -1.1501  1.6146 -0.9768
72208SOL     OW28348   5.536   9.957   5.812 -0.6931 -0.3179  0.0698
72208SOL    HW128349   5.547   9.906   5.732 -1.0550  0.3399 -0.4082
72208SOL    HW228350   5.500  10.040   5.782  4.0207  2.0847  0.2228
72209SOL     OW28351   1.601   0.887   1.140 -0.8833 -0.0543 -0.0787
72209SOL    HW128352   1.543   0.932   1.078  1.7673  2.9095 -0.6450
72209SOL    HW228353   1.618   0.952   1.208  2.3916 -0.4452 -0.3848
72210SOL     OW28354   1.818  11.827   1.575 -0.0533 -0.1127  0.4069
72210SOL    HW128355   1.739  11.786   1.612 -0.1676  0.7295  1.1213
72210SOL    HW228356   1.879  11.829   1.648 -0.1168  1.1676  0.4335
72211SOL     OW28357   8.973   3.107  11.083  0.2389  0.0071  0.4214
72211SOL    HW128358   9.044   3.049  11.056  1.0985  1.2992 -0.1885
72211SOL    HW228359   9.013   3.194  11.085 -1.1540  0.6616  0.7753
72212SOL     OW28360   1.902   3.541  10.126 -0.1522  0.1872 -0.1121
72212SOL    HW128361   1.949   3.527  10.044 -0.0117  3.0878 -0.6130
72212SOL    HW228362   1.959   3.505  10.193  0.5634 -0.5853 -1.1066
72213SOL     OW28363   4.594   5.694   6.781  0.0193  0.0431  0.2890
72213SOL    HW128364   4.668   5.695   6.720 -0.0104  0.1065  0.2546
72213SOL    HW228365   4.633   5.674   6.866 -0.0553 -1.0016  0.0902
72214SOL     OW28366   8.668   2.494   7.544 -0.5441  0.1175  0.5163
72214SOL    HW128367   8.756   2.463   7.525  0.2598  1.0868  2.4273
72214SOL    HW228368   8.626   2.422   7.591 -0.1959  0.2838  1.0803
72215SOL     OW28369   5.924  11.271   2.495  0.2012 -0.3664  0.3650
72215SOL    HW128370   5.927  11.367   2.499  0.2480 -0.2395 -1.6309
72215SOL    HW228371   5.872  11.245   2.571 -3.4796  1.5493 -1.2371
72216SOL     OW28372   2.600   2.222   5.966 -0.5239 -0.4621  0.0778
72216SOL    HW128373   2.611   2.224   5.871 -0.5797 -0.5490  0.0699
72216SOL    HW228374   2.682   2.258   6.000 -0.8874  0.4926 -0.0274
72217SOL     OW28375   5.742  10.234   6.279 -0.4754  0.4430 -0.1405
72217SOL    HW128376   5.665  10.178   6.287  0.7445 -1.2405  0.3193
72217SOL    HW228377   5.788  10.200   6.202  1.7533 -1.1567  1.7578
72218SOL     OW28378   9.032  12.427  10.896  0.0817  0.4912  0.4095
72218SOL    HW128379   9.074  12.508  10.866 -1.9451  0.3696 -3.4019
72218SOL    HW228380   9.104  12.372  10.925  1.9084  2.3484 -0.3683
72219SOL     OW28381   1.804   9.211   8.484  0.4651  0.5842 -0.2429
72219SOL    HW128382   1.763   9.229   8.399  1.0592 -0.7858 -0.8494
72219SOL    HW228383   1.840   9.123   8.475 -3.1552 -1.5181  2.8332
72220SOL     OW28384   7.184  10.905  13.462 -0.4101  0.4802  0.6640
72220SOL    HW128385   7.275  10.915  13.487 -0.7164 -1.0550  2.6083
72220SOL    HW228386   7.185  10.842  13.390  0.1063  1.1414  0.0782
72221SOL     OW28387  13.337   8.699  12.775  0.0065  0.0054  0.3167
72221SOL    HW128388  13.427   8.687  12.805  0.1282  0.4098  0.1185
72221SOL    HW228389  13.283   8.673  12.850  0.2670 -1.0343  0.1614
72222SOL     OW28390  11.898   3.917   0.238  0.2266  0.1480  0.0127
72222SOL    HW128391  11.877   3.850   0.303  0.1133  1.4640  1.3959
72222SOL    HW228392  11.992   3.931   0.246  0.2706  0.0807 -0.3577
72223SOL     OW28393   5.903   6.582   5.998 -0.2570  0.3417  0.3736
72223SOL    HW128394   5.874   6.649   5.936 -3.0977  0.1290  1.3556
72223SOL    HW228395   5.864   6.501   5.966  1.6532 -0.5843  0.2196
72224SOL     OW28396   0.054  11.997  12.678  0.2335  0.2682  0.9458
72224SOL    HW128397   0.027  11.937  12.608 -0.2095 -1.5399  2.5640
72224SOL    HW228398   0.072  12.080  12.634 -1.6561 -0.3097 -1.0618
72225SOL     OW28399  11.471  11.296  10.544  0.3336  0.4626  0.8847
72225SOL    HW128400  11.514  11.233  10.487 -0.7208  2.8935 -2.9112
72225SOL    HW228401  11.403  11.245  10.589  0.5341 -1.3968 -0.8115
72226SOL     OW28402  12.347   7.439   0.689 -0.4211  0.6405 -0.4229
72226SOL    HW128403  12.342   7.510   0.625  0.3145  1.0211 -0.0755
72226SOL    HW228404  12.436   7.445   0.724 -1.2590  1.4527  1.7608
72227SOL     OW28405   5.151  10.546   7.175 -0.0645  0.5029  0.0096
72227SOL    HW128406   5.235  10.592   7.175  0.7500 -0.9105 -0.5787
72227SOL    HW228407   5.127  10.538   7.267  1.6478 -1.1240  0.3666
72228SOL     OW28408   9.386   7.450  12.675 -0.3292 -0.4370  0.1057
72228SOL    HW128409   9.356   7.541  12.672  1.2647  0.1625  1.1990
72228SOL    HW228410   9.376   7.424  12.766 -0.4024 -1.2509 -0.1222
72229SOL     OW28411  13.553   1.011  10.120 -0.2510  0.0377  0.1632
72229SOL    HW128412  13.479   1.073  10.120 -0.1007  0.3913 -2.8346
72229SOL    HW228413  13.631   1.067  10.123 -0.1194 -0.1558  0.3134
72230SOL     OW28414  11.240   4.182   7.914  0.2244 -0.2142 -0.2266
72230SOL    HW128415  11.268   4.187   7.823 -1.5269 -0.5049 -0.8080
72230SOL    HW228416  11.167   4.120   7.914  0.3910 -0.4564  1.4329
72231SOL     OW28417   8.087   1.090  11.564 -0.1348 -0.2934  0.2030
72231SOL    HW128418   8.061   1.176  11.529  1.4668 -0.2758 -1.0645
72231SOL    HW228419   8.174   1.105  11.601  0.0699 -1.3357  0.1609
72232SOL     OW28420  12.450  10.009  12.923 -0.0259  0.0194  0.2999
72232SOL    HW128421  12.474   9.967  12.841 -0.5958  0.3598 -0.0457
72232SOL    HW228422  12.413  10.093  12.897  0.4360  0.4354  0.9445
72233SOL     OW28423   4.004   8.766   1.980  0.9605 -0.2222 -0.0500
72233SOL    HW128424   3.959   8.694   1.935  1.5129  0.5637 -1.9435
72233SOL    HW228425   3.939   8.799   2.042 -1.2045  0.9084 -2.7293
72234SOL     OW28426   1.265   3.515  13.155  0.1225 -0.5042 -0.5242
72234SOL    HW128427   1.353   3.526  13.118  0.7872 -1.1385  0.7958
72234SOL    HW228428   1.262   3.576  13.228 -0.1296 -1.2680  0.1098
72235SOL     OW28429   6.664   7.699  13.333  0.8573 -0.0034 -0.6966
72235SOL    HW128430   6.656   7.636  13.405  0.2380  0.1168 -0.6569
72235SOL    HW228431   6.756   7.692  13.305  1.6996  1.4926  1.5013
72236SOL     OW28432   4.485   9.651  10.677 -0.2754 -0.1740 -0.3893
72236SOL    HW128433   4.470   9.558  10.660  0.8134 -0.3736 -0.3730
72236SOL    HW228434   4.572   9.653  10.718 -0.1105  0.8921 -0.7722
72237SOL     OW28435   8.167   0.837  13.606 -0.6853  0.5881  0.1585
72237SOL    HW128436   8.193   0.783  13.531  0.1528 -2.4137  2.3628
72237SOL    HW228437   8.117   0.777  13.662  1.5385  1.5513  3.5020
72238SOL     OW28438  10.628  11.793  10.058 -0.2048 -0.0051  0.2451
72238SOL    HW128439  10.534  11.783  10.046 -0.2907 -0.0008  0.8558
72238SOL    HW228440  10.639  11.798  10.153  0.3716  0.3864  0.1605
72239SOL     OW28441   5.307   0.668   3.824  0.0320  0.1119 -0.4587
72239SOL    HW128442   5.324   0.574   3.824 -2.6802 -0.4633  0.1595
72239SOL    HW228443   5.252   0.683   3.901 -1.1073  1.8629 -1.5337
72240SOL     OW28444   0.537   5.082   8.721 -0.3432 -0.4378 -0.3058
72240SOL    HW128445   0.597   5.066   8.648 -0.4795 -1.3056 -0.2455
72240SOL    HW228446   0.564   5.166   8.757  0.4190 -0.5140 -0.6781
72241SOL     OW28447  12.292   6.510  10.538  0.2588 -0.1451  0.2053
72241SOL    HW128448  12.324   6.468  10.618  1.3996 -0.8835 -0.6089
72241SOL    HW228449  12.349   6.587  10.528 -1.2622  1.1850  1.2236
72242SOL     OW28450  10.305  11.817  10.697  0.2493 -0.2564 -0.8149
72242SOL    HW128451  10.255  11.819  10.779  1.1181  1.4422 -0.2556
72242SOL    HW228452  10.244  11.847  10.630 -0.2579 -0.9386 -0.6641
72243SOL     OW28453   4.178  13.053   2.791 -0.0049  0.3753  0.1778
72243SOL    HW128454   4.222  12.973   2.762  5.0946  2.3433  1.4323
72243SOL    HW228455   4.149  13.095   2.710  0.2079 -1.2021 -0.7514
72244SOL     OW28456  12.005   4.656   1.929  0.7096 -0.1141  0.6542
72244SOL    HW128457  11.959   4.710   1.993  0.7723 -0.2395  0.8066
72244SOL    HW228458  12.024   4.575   1.976 -0.5904 -0.8252  0.0312
72245SOL     OW28459   7.823   1.628   1.220  0.3673 -0.4442  0.3220
72245SOL    HW128460   7.826   1.572   1.142  0.4677 -0.2448  0.1815
72245SOL    HW228461   7.753   1.690   1.202 -1.8690 -2.3786  1.7509
72246SOL     OW28462   8.012  12.534   8.481  1.0808 -0.1585 -0.5199
72246SOL    HW128463   8.007  12.450   8.435 -2.7083 -0.8306  0.7835
72246SOL    HW228464   7.956  12.592   8.430  1.4286  0.7544  0.1268
72247SOL     OW28465  11.421   4.422   9.016 -0.1010 -0.2318  0.4890
72247SOL    HW128466  11.500   4.472   9.036 -0.1965  0.3087 -0.4546
72247SOL    HW228467  11.366   4.433   9.094  0.8263 -0.8019  1.2516
72248SOL     OW28468  10.127  10.109   4.960  0.7370 -0.1768  0.4367
72248SOL    HW128469  10.206  10.055   4.947 -0.2710 -1.6094 -0.0168
72248SOL    HW228470  10.156  10.198   4.941  2.3226 -0.6228  0.5795
72249SOL     OW28471   6.255   5.800  12.889  0.6511  0.0367  0.1588
72249SOL    HW128472   6.262   5.877  12.946 -0.6047  0.7730 -0.6287
72249SOL    HW228473   6.297   5.730  12.939  0.6292  0.9229  1.4907
72250SOL     OW28474   0.076   4.151   9.772  0.2692  0.5554  0.6466
72250SOL    HW128475   0.005   4.182   9.829  0.0072  1.6750 -0.2530
72250SOL    HW228476   0.153   4.199   9.803  0.7565 -0.9166  1.8526
72251SOL     OW28477  10.752   7.156  12.812  0.0109 -0.6081  0.3717
72251SOL    HW128478  10.795   7.236  12.842  1.5512 -1.2137 -0.1527
72251SOL    HW228479  10.697   7.130  12.886  0.7701  0.0304  1.1831
72252SOL     OW28480   1.895   3.692  10.369  0.5663  1.1660  0.4032
72252SOL    HW128481   1.856   3.673  10.284 -1.2246 -1.0972  1.6027
72252SOL    HW228482   1.981   3.728  10.349  0.7665 -0.5622 -2.3827
72253SOL     OW28483   7.854   7.270   9.329 -0.2296 -0.6904 -0.1092
72253SOL    HW128484   7.810   7.187   9.314 -0.1606 -0.8544  0.5485
72253SOL    HW228485   7.923   7.273   9.263 -1.0468 -0.5585 -0.9617
72254SOL     OW28486   3.378  12.093   2.138  0.1959 -0.3714 -0.6470
72254SOL    HW128487   3.316  12.055   2.200 -0.0029  1.0444  0.0806
72254SOL    HW228488   3.338  12.078   2.052 -0.7212 -0.2763 -0.2477
72255SOL     OW28489   1.256   9.983   1.147  0.3981  0.5094 -0.1110
72255SOL    HW128490   1.186  10.017   1.202  0.0193  0.0593 -0.3056
72255SOL    HW228491   1.211   9.929   1.082  1.0306 -1.0472  0.6900
72256SOL     OW28492   9.965   0.707   2.791  0.0534  0.0392  0.2900
72256SOL    HW128493  10.029   0.733   2.725 -1.2393  1.7256 -0.3768
72256SOL    HW228494   9.881   0.710   2.746 -0.6840 -0.4637  1.5703
72257SOL     OW28495   8.239   2.830   9.918  0.2574  0.7518  0.1042
72257SOL    HW128496   8.302   2.902   9.928  0.8690  0.7153 -2.5156
72257SOL    HW228497   8.157   2.864   9.953  1.1021  1.8107  1.1164
72258SOL     OW28498   8.983   6.998   8.088  0.3909 -0.0996 -0.2934
72258SOL    HW128499   9.004   6.965   8.000  0.1832 -0.9987 -0.0141
72258SOL    HW228500   8.888   6.986   8.095  0.3916  0.0858  0.0035
72259SOL     OW28501   8.181   7.956   6.353 -0.5152 -0.2166  0.0888
72259SOL    HW128502   8.214   7.977   6.440  0.6266  0.0801 -0.4023
72259SOL    HW228503   8.146   7.867   6.362  0.3874 -0.5271  0.6483
72260SOL     OW28504  12.493   7.025  12.623 -0.2054 -1.2490 -0.9717
72260SOL    HW128505  12.397   7.018  12.622 -0.4792  0.1245  2.7648
72260SOL    HW228506  12.511   7.118  12.613  0.5876 -1.2216  0.4259
72261SOL     OW28507   9.575   9.512  10.629 -0.3798 -0.5336 -0.1654
72261SOL    HW128508   9.669   9.524  10.635 -0.3777 -0.7000  0.1348
72261SOL    HW228509   9.547   9.488  10.717 -0.9618  1.1831  0.1477
72262SOL     OW28510   5.796  13.095  12.301 -0.3499 -0.0036  0.1017
72262SOL    HW128511   5.704  13.072  12.289 -0.4311  0.2800  0.1915
72262SOL    HW228512   5.826  13.037  12.372 -0.8140  0.8417  1.0114
72263SOL     OW28513   2.307   2.373   2.840  0.0499 -0.3795 -0.1081
72263SOL    HW128514   2.281   2.285   2.866 -1.3396  0.3460  1.0852
72263SOL    HW228515   2.235   2.405   2.786  0.9909 -0.3016 -1.3731
72264SOL     OW28516  10.747   7.100  10.910  0.5418 -0.2653 -0.0816
72264SOL    HW128517  10.718   7.191  10.907  0.4724 -0.3009 -0.6407
72264SOL    HW228518  10.826   7.102  10.964  0.4504  0.1012  0.0427
72265SOL     OW28519  12.420   0.146   3.684  0.4928  0.2236 -0.7976
72265SOL    HW128520  12.379   0.226   3.716  0.7688  0.4645 -1.0462
72265SOL    HW228521  12.474   0.115   3.757  0.6552  0.4496 -0.8221
72266SOL     OW28522  13.428   5.594   8.817  0.5758  0.2334 -0.2139
72266SOL    HW128523  13.344   5.598   8.771 -0.0489  0.2744  0.8969
72266SOL    HW228524  13.485   5.544   8.758 -1.3460 -3.3340  0.6257
72267SOL     OW28525   6.257   4.092  10.177 -0.0684 -0.6318  0.4935
72267SOL    HW128526   6.342   4.136  10.182  0.4974 -1.4624 -0.9883
72267SOL    HW228527   6.239   4.086  10.083 -0.0931 -3.4847  0.5693
72268SOL     OW28528   4.478   1.258  12.560 -0.3974 -0.0321 -0.0100
72268SOL    HW128529   4.569   1.272  12.533 -0.0687  0.2808  1.2104
72268SOL    HW228530   4.482   1.187  12.624 -1.4320 -2.2796 -2.2745
72269SOL     OW28531  11.852  10.007  11.453  0.2670  0.1174 -0.0973
72269SOL    HW128532  11.888  10.038  11.370  2.4727 -0.4396  0.5762
72269SOL    HW228533  11.813   9.922  11.432  0.1541  0.3104 -0.6856
72270SOL     OW28534   3.593   4.177  13.570  0.9794  0.0670  0.0116
72270SOL    HW128535   3.679   4.220  13.572  0.6880  0.6609  1.6889
72270SOL    HW228536   3.531   4.249  13.557  0.6267 -0.0716  0.8242
72271SOL     OW28537   7.808  11.675   8.830  0.1089 -0.4722 -0.0250
72271SOL    HW128538   7.800  11.624   8.910 -4.0641 -2.0315 -1.1992
72271SOL    HW228539   7.867  11.624   8.774 -0.3734 -1.6625  0.5177
72272SOL     OW28540   8.102   4.339   7.419 -0.4631  0.5587  0.1467
72272SOL    HW128541   8.174   4.277   7.407  0.0633  0.5931  2.6320
72272SOL    HW228542   8.144   4.425   7.422 -0.4145  0.5092  2.5320
72273SOL     OW28543   6.462  13.229   8.569 -0.1347 -0.2816  0.6481
72273SOL    HW128544   6.558  13.231   8.574  0.0553 -1.9491 -0.9732
72273SOL    HW228545   6.440  13.295   8.503  0.0441 -0.8220  0.0298
72274SOL     OW28546   5.658   1.517  10.988  0.9682 -0.6385 -0.3350
72274SOL    HW128547   5.749   1.496  10.965  1.2948 -1.0012  1.1984
72274SOL    HW228548   5.663   1.555  11.075 -0.2942  0.0471 -0.5409
72275SOL     OW28549   7.732   6.759  12.625  0.3708  0.0160 -0.3251
72275SOL    HW128550   7.687   6.694  12.571  0.5751  0.0736 -0.5667
72275SOL    HW228551   7.732   6.838  12.571  0.1920  0.1927 -0.0629
72276SOL     OW28552   5.485   0.316   4.315 -0.2296  0.4809 -0.0125
72276SOL    HW128553   5.455   0.365   4.391 -1.6525 -0.4916  0.1009
72276SOL    HW228554   5.560   0.267   4.347 -0.7436  0.1698  0.7620
72277SOL     OW28555   9.850   3.622  12.052  0.1986  0.5078  0.3805
72277SOL    HW128556   9.779   3.593  11.994 -0.2415 -1.2078  1.6584
72277SOL    HW228557   9.925   3.568  12.027  0.6661  1.3352 -0.0422
72278SOL     OW28558   3.224   7.051  11.995 -0.2402  0.6517 -0.7615
72278SOL    HW128559   3.289   7.044  12.065 -0.6651 -1.7733 -0.5403
72278SOL    HW228560   3.276   7.071  11.917  0.9138 -1.8006 -0.6926
72279SOL     OW28561   4.769   3.206   0.994  0.2539  0.0557 -0.3114
72279SOL    HW128562   4.765   3.129   0.937 -1.4260 -0.1874  0.0658
72279SOL    HW228563   4.684   3.249   0.981  1.3539  2.1856 -0.9382
72280SOL     OW28564   4.364   7.878  10.760  0.0676  0.8194  0.1376
72280SOL    HW128565   4.438   7.860  10.702 -0.2713  0.1020 -0.0876
72280SOL    HW228566   4.404   7.910  10.841  0.5959  0.8580 -0.1335
72281SOL     OW28567   0.410   0.664  11.132  0.0559  0.2635  0.4173
72281SOL    HW128568   0.360   0.740  11.162  1.1579  0.3344  2.2801
72281SOL    HW228569   0.474   0.649  11.202  0.9238 -1.3963 -0.6660
72282SOL     OW28570  10.274   9.642   8.428 -0.0599  0.2167 -0.3943
72282SOL    HW128571  10.303   9.717   8.376  0.4831  0.1534 -0.1914
72282SOL    HW228572  10.273   9.569   8.367 -0.0278  0.2708 -0.4594
72283SOL     OW28573   9.664   9.825  11.641 -0.1792  0.8259  0.4126
72283SOL    HW128574   9.575   9.791  11.653  0.4830 -0.3265  2.4971
72283SOL    HW228575   9.686   9.864  11.726  0.4650  3.2928 -0.7807
72284SOL     OW28576   8.399  10.546   6.217 -0.5514  0.2825  0.2579
72284SOL    HW128577   8.395  10.454   6.189  2.3579  0.1807 -0.2147
72284SOL    HW228578   8.403  10.541   6.312 -0.0288 -0.1328  0.2212
72285SOL     OW28579  13.574  10.219   8.233 -0.3487  0.2712 -0.4334
72285SOL    HW128580  13.643  10.281   8.209  0.6542 -1.1987 -1.5721
72285SOL    HW228581  13.601  10.184   8.318 -0.2703  0.5153 -0.3590
72286SOL     OW28582  11.856   5.548   1.324 -0.2567  0.1952  0.5491
72286SOL    HW128583  11.874   5.548   1.230 -0.8528 -0.5225  0.4241
72286SOL    HW228584  11.892   5.630   1.356 -0.4636  0.6579 -0.3934
72287SOL     OW28585   3.235   7.541   6.079 -0.0820 -0.3682  0.3416
72287SOL    HW128586   3.263   7.472   6.019 -0.8824 -0.3224 -0.1018
72287SOL    HW228587   3.188   7.495   6.148 -0.1532 -0.3168  0.3274
72288SOL     OW28588   6.826   2.634   7.799  0.7492  0.0098  0.6806
72288SOL    HW128589   6.864   2.626   7.711  1.7150  1.4800  0.9317
72288SOL    HW228590   6.734   2.655   7.784  1.0260  0.7721  0.0005
72289SOL     OW28591  10.037   2.396  10.836  0.3184 -0.2408  0.2012
72289SOL    HW128592  10.067   2.321  10.785  0.8269  0.1538 -0.0821
72289SOL    HW228593   9.986   2.449  10.774 -1.7287 -1.3156  0.8646
72290SOL     OW28594  13.566   0.301   5.270  0.3964  0.5816  0.6222
72290SOL    HW128595  13.511   0.379   5.272 -1.7027 -0.7836 -0.4802
72290SOL    HW228596  13.566   0.270   5.361 -2.5888 -0.5593  0.3580
72291SOL     OW28597   3.261   2.551   1.956 -0.2943 -0.0944 -0.5290
72291SOL    HW128598   3.256   2.456   1.966 -1.3006  0.1940  3.6901
72291SOL    HW228599   3.175   2.577   1.922 -0.9193 -0.5907  0.6108
72292SOL     OW28600  13.640   1.648   4.328 -0.7939 -0.0101  0.0799
72292SOL    HW128601  13.678   1.583   4.388  0.9404  2.3962  1.7697
72292SOL    HW228602  13.635   1.728   4.380 -0.8758  1.7814 -2.5226
72293SOL     OW28603   6.004   5.011  10.214  0.0688  0.2606 -0.0176
72293SOL    HW128604   5.954   4.932  10.195 -1.0480  0.8229  0.4620
72293SOL    HW228605   6.061   5.023  10.137 -0.6201 -0.3306 -0.6361
72294SOL     OW28606   9.494   9.999  11.454  0.4007  0.3504  0.3782
72294SOL    HW128607   9.542   9.941  11.513  0.8461  0.7399  0.4027
72294SOL    HW228608   9.558  10.022  11.386  0.6721  1.9208  1.1145
72295SOL     OW28609  10.587   0.905   2.687  0.3309 -0.5804 -0.1203
72295SOL    HW128610  10.517   0.968   2.672 -1.2565 -2.2983 -0.3704
72295SOL    HW228611  10.646   0.948   2.749 -1.5941  0.4825  1.0639
72296SOL     OW28612   7.300   5.843   8.644 -0.1979 -0.3859 -0.1936
72296SOL    HW128613   7.271   5.786   8.715 -0.1445 -0.5002 -0.2612
72296SOL    HW228614   7.241   5.822   8.571 -0.9490  0.5161  0.1486
72297SOL     OW28615   7.576   2.425  13.056 -0.2160  0.1708 -0.1713
72297SOL    HW128616   7.661   2.381  13.045 -0.1503  0.4811 -1.0292
72297SOL    HW228617   7.582   2.502  12.999 -1.0816  0.1782 -0.2592
72298SOL     OW28618   5.823   6.403  10.638  0.1749  0.1390 -0.0249
72298SOL    HW128619   5.870   6.480  10.670 -0.2629 -0.6961  2.9668
72298SOL    HW228620   5.733   6.434  10.627  0.4177  0.5469 -0.9832
72299SOL     OW28621  11.476   2.084  13.209 -0.0062  0.1411  0.5349
72299SOL    HW128622  11.530   2.057  13.134 -0.9783  0.5095 -0.3340
72299SOL    HW228623  11.530   2.149  13.255  0.6047 -0.0746  0.1353
72300SOL     OW28624  13.183   7.046  10.584  0.6840 -0.0259  0.2220
72300SOL    HW128625  13.257   7.030  10.526  0.3974  0.7081 -0.3628
72300SOL    HW228626  13.188   6.977  10.650  2.2168  0.3560  0.5232
72301SOL     OW28627   2.149   2.914  11.500  0.2640  0.2473  0.3766
72301SOL    HW128628   2.119   2.962  11.423 -2.3560 -0.1996  1.0425
72301SOL    HW228629   2.147   2.979  11.571  1.7017  0.4035  0.3071
72302SOL     OW28630   9.265   9.869   8.735  0.2148 -0.8044  0.1714
72302SOL    HW128631   9.252   9.904   8.824  0.1372 -2.1269  0.6988
72302SOL    HW228632   9.181   9.829   8.713  1.2135 -3.4727  0.8907
72303SOL     OW28633   4.614  12.754  10.765  0.2620  0.9086  0.2824
72303SOL    HW128634   4.645  12.826  10.710 -0.8604  2.0532  1.0878
72303SOL    HW228635   4.690  12.698  10.776  1.3366  2.2679  0.0996
72304SOL     OW28636   4.267  12.631  12.864 -0.2018  0.0255  0.2633
72304SOL    HW128637   4.275  12.541  12.833 -1.9844  0.6907 -2.5714
72304SOL    HW228638   4.176  12.654  12.847  0.2832  2.4466  0.5563
72305SOL     OW28639   5.156   1.741  11.363  0.1532  0.1546 -0.4865
72305SOL    HW128640   5.088   1.784  11.310  0.4996  1.6731  0.2497
72305SOL    HW228641   5.185   1.808  11.424  0.2811 -1.3240  1.1719
72306SOL     OW28642   9.320   9.578   9.508 -0.2157  0.1330  0.0089
72306SOL    HW128643   9.412   9.550   9.504 -0.8465 -2.2288  0.3154
72306SOL    HW228644   9.322   9.672   9.489  1.9099 -0.4646 -3.6959
72307SOL     OW28645   8.400   0.296  11.654  0.3166  0.0003 -0.1422
72307SOL    HW128646   8.448   0.350  11.590  2.5410 -1.4989  0.1515
72307SOL    HW228647   8.358   0.360  11.712  2.1173  1.4541 -0.3302
72308SOL     OW28648  11.749   3.104  11.884 -0.3041  0.1837  0.5659
72308SOL    HW128649  11.699   3.049  11.945 -0.3397 -0.2959  0.1181
72308SOL    HW228650  11.799   3.041  11.832  1.9173  0.7151  1.9486
72309SOL     OW28651   0.286   4.397   2.863  0.1098 -0.1649  0.7996
72309SOL    HW128652   0.298   4.327   2.927 -1.5647 -0.8236  0.4658
72309SOL    HW228653   0.193   4.393   2.841  0.4505  0.6308 -0.9973
72310SOL     OW28654   0.482   5.830  10.151  0.0229  0.8554 -0.2230
72310SOL    HW128655   0.472   5.738  10.128 -2.3737  0.3708  2.1900
72310SOL    HW228656   0.414   5.875  10.100  1.0717  1.3256 -1.2608
72311SOL     OW28657   2.480   9.105   1.329  0.1241 -0.1503  0.7722
72311SOL    HW128658   2.423   9.131   1.401  0.7326  0.0111  1.2027
72311SOL    HW228659   2.569   9.124   1.360  0.4187 -0.4397  0.1322
72312SOL     OW28660   9.435  10.337   8.518 -0.4733 -0.2419  0.2412
72312SOL    HW128661   9.485  10.270   8.563  0.4463  0.8681  0.9305
72312SOL    HW228662   9.382  10.378   8.587 -0.3139  0.3647  0.0111
72313SOL     OW28663   0.115   4.691   1.777 -0.1945  0.3578 -0.3000
72313SOL    HW128664   0.125   4.756   1.847 -0.2001 -1.4012  1.4279
72313SOL    HW228665   0.021   4.680   1.768 -0.2189  1.2410 -1.2625
72314SOL     OW28666   8.521   8.044   4.597  0.6398  0.1232  0.0874
72314SOL    HW128667   8.560   8.073   4.679 -1.8443  2.0891  0.7066
72314SOL    HW228668   8.467   7.968   4.621 -1.9651  2.0816  0.9116
72315SOL     OW28669   7.750   2.073   1.060 -0.4397 -0.1548 -0.2458
72315SOL    HW128670   7.750   2.079   1.155 -1.4905 -1.1748 -0.1598
72315SOL    HW228671   7.843   2.066   1.037 -0.2400 -3.4394  1.0170
72316SOL     OW28672   5.826   6.568   2.652 -0.2816 -0.1066  0.7164
72316SOL    HW128673   5.808   6.624   2.727 -0.7277 -0.2454  0.7183
72316SOL    HW228674   5.801   6.480   2.681  0.2077 -0.2755  0.6413
72317SOL     OW28675   5.066   8.133   9.740 -0.0423  0.3657  0.4770
72317SOL    HW128676   5.139   8.172   9.787  0.0223 -0.1837  0.8405
72317SOL    HW228677   5.026   8.206   9.692  1.2481  0.5314 -0.3943
72318SOL     OW28678   2.822   3.352   4.764  0.3614 -0.0651 -0.1739
72318SOL    HW128679   2.809   3.258   4.751 -0.3327  0.0150 -0.1242
72318SOL    HW228680   2.840   3.361   4.858 -1.9609  0.0625  0.3230
72319SOL     OW28681   3.302   4.321   6.306  0.0286 -0.1388 -0.5839
72319SOL    HW128682   3.396   4.310   6.317 -0.2836 -2.6020  0.2121
72319SOL    HW228683   3.275   4.246   6.253 -1.6066 -0.0515  0.0612
72320SOL     OW28684   6.553  12.115  11.529 -0.0337 -0.2230  0.4354
72320SOL    HW128685   6.502  12.141  11.453 -2.1087  0.2388  1.9035
72320SOL    HW228686   6.527  12.025  11.547 -0.8463  0.2031  1.5371
72321SOL     OW28687   9.914  12.959  10.792 -0.2515  0.2122 -0.0181
72321SOL    HW128688   9.844  13.003  10.743  0.1688  1.0032  0.0805
72321SOL    HW228689   9.899  12.985  10.882 -0.3738 -0.3732  0.1360
72322SOL     OW28690   0.938  13.408  10.441  0.3900 -0.2157 -0.3534
72322SOL    HW128691   0.933  13.493  10.396  0.8401 -0.0614 -0.1148
72322SOL    HW228692   0.991  13.353  10.383  0.6273 -0.1412 -0.2070
72323SOL     OW28693   8.019   8.900  13.656 -0.2258 -0.6649  0.4227
72323SOL    HW128694   8.071   8.837  13.706  0.8603  0.3270  0.5961
72323SOL    HW228695   8.027   8.981  13.705  0.0695  0.1008 -0.8553
72324SOL     OW28696   5.837  12.824  10.353 -0.2670  0.2241 -0.0084
72324SOL    HW128697   5.754  12.776  10.346 -0.1586  0.2195 -1.7322
72324SOL    HW228698   5.894  12.783  10.288  0.3245  1.7003 -0.4615
72325SOL     OW28699   1.141   5.295  10.568  0.1843 -0.4791  0.1848
72325SOL    HW128700   1.207   5.273  10.635  0.4083  0.2348  0.2063
72325SOL    HW228701   1.174   5.376  10.528 -1.3166  0.6259  1.0775
72326SOL     OW28702  10.869   9.938   8.871 -0.2357  0.6740 -0.4234
72326SOL    HW128703  10.836   9.865   8.922  0.9690 -1.7722 -2.8667
72326SOL    HW228704  10.803   9.951   8.802  0.4293  0.5938 -1.0953
72327SOL     OW28705  12.410   8.067   8.936  0.0958 -0.1360 -0.6374
72327SOL    HW128706  12.390   8.138   8.874 -0.1379  0.8091  0.4902
72327SOL    HW228707  12.326   8.024   8.950 -0.0486  0.2604 -0.2520
72328SOL     OW28708  11.268   3.483   2.738  0.1784  0.7915  0.3700
72328SOL    HW128709  11.259   3.518   2.650 -0.9906  1.2326  0.6446
72328SOL    HW228710  11.358   3.506   2.763  0.3623  1.0934 -0.5188
72329SOL     OW28711   1.710   0.862  10.530 -0.7471  0.2039 -0.1363
72329SOL    HW128712   1.782   0.852  10.468 -0.7608  1.0197 -0.3054
72329SOL    HW228713   1.663   0.779  10.527  1.6900 -1.3761  1.9856
72330SOL     OW28714   7.859   5.762   4.303  0.6858  0.1527  0.6556
72330SOL    HW128715   7.869   5.709   4.382 -1.7551  0.3745  1.1883
72330SOL    HW228716   7.789   5.823   4.324  0.7421  0.9641 -1.3215
72331SOL     OW28717  10.952   1.591   5.518  0.0966 -0.4544 -0.7856
72331SOL    HW128718  10.968   1.590   5.612 -0.2370 -0.4045 -0.7256
72331SOL    HW228719  10.857   1.600   5.510  0.3503  3.2891 -1.1476
72332SOL     OW28720   7.621   1.284  12.571  0.0143  0.0727 -0.1258
72332SOL    HW128721   7.534   1.246  12.578  0.3795 -0.5460  1.6185
72332SOL    HW228722   7.608   1.366  12.523 -1.0116 -1.4635 -2.6535
72333SOL     OW28723   3.158   1.928   2.306 -0.0670  0.1529  0.3400
72333SOL    HW128724   3.125   1.882   2.228  0.6668  1.1180 -0.5608
72333SOL    HW228725   3.211   1.863   2.351  0.2811 -0.1481 -0.4784
72334SOL     OW28726   7.873  12.287   3.799  0.3937  0.0092  0.4045
72334SOL    HW128727   7.938  12.259   3.735  2.3797 -1.1830  2.7920
72334SOL    HW228728   7.924  12.330   3.868 -1.7710  2.2665  0.7313
72335SOL     OW28729   2.177  12.684   6.220  0.0278 -0.5610  0.2149
72335SOL    HW128730   2.152  12.726   6.137  0.4415  0.3373  0.5334
72335SOL    HW228731   2.095  12.649   6.254 -0.6903  1.4839  0.7608
72336SOL     OW28732   5.512  12.569  10.635 -0.1998  0.7562 -0.2314
72336SOL    HW128733   5.527  12.482  10.670 -0.5815  0.9964  0.5564
72336SOL    HW228734   5.580  12.580  10.568 -1.2664 -0.8450 -1.6703
72337SOL     OW28735  10.512  12.593   5.032 -0.2699  0.0219  0.0574
72337SOL    HW128736  10.456  12.566   5.105  0.6401 -0.0323  0.7498
72337SOL    HW228737  10.589  12.630   5.074  0.9139 -1.3028 -0.8631
72338SOL     OW28738   3.503   7.950   5.658  0.0089 -0.3186  0.5416
72338SOL    HW128739   3.450   8.027   5.638 -1.3141 -1.1726  0.6337
72338SOL    HW228740   3.490   7.935   5.752  0.7609 -0.2944  0.6539
72339SOL     OW28741  11.033  11.653  11.961 -0.1502 -0.3488 -0.1041
72339SOL    HW128742  11.049  11.748  11.958  1.6844 -0.3955  3.3240
72339SOL    HW228743  10.938  11.645  11.962 -0.3598  1.5693  0.6084
72340SOL     OW28744   3.740  12.923   5.803 -0.2452 -0.6925  0.0572
72340SOL    HW128745   3.752  12.918   5.708  1.2351 -0.2670  0.1928
72340SOL    HW228746   3.746  13.017   5.823 -1.4646 -0.6884  0.4844
72341SOL     OW28747   3.993   9.419  11.996 -0.5497  0.5884 -0.4085
72341SOL    HW128748   4.083   9.437  11.970 -0.8165  1.2611 -0.8947
72341SOL    HW228749   3.985   9.324  11.993  0.3285  0.4758  0.2728
72342SOL     OW28750   3.314   3.855   0.708 -0.0897  0.0212  0.3653
72342SOL    HW128751   3.404   3.840   0.680 -0.0379 -0.8807  0.9519
72342SOL    HW228752   3.304   3.950   0.710  1.2978  0.1772  1.6668
72343SOL     OW28753   9.717   8.810  10.941 -0.0039 -0.2137  0.2894
72343SOL    HW128754   9.791   8.867  10.920 -0.7831  1.4136  1.6090
72343SOL    HW228755   9.755   8.738  10.991  0.7565  0.3794  0.5897
72344SOL     OW28756   5.923   5.202  11.010  0.0423  0.4696  0.5268
72344SOL    HW128757   6.001   5.235  10.964 -1.2946  0.8339 -1.6088
72344SOL    HW228758   5.858   5.271  10.998 -1.6996 -1.3245 -0.8588
72345SOL     OW28759   1.590   7.011  12.565 -0.3564 -0.6300 -0.0566
72345SOL    HW128760   1.539   7.050  12.494  0.5462 -1.8683 -1.4419
72345SOL    HW228761   1.677   7.050  12.556  0.0073 -1.4594 -0.2111
72346SOL     OW28762  12.125   7.313   8.459  0.0189 -0.2820  0.2926
72346SOL    HW128763  12.198   7.296   8.400  0.7031  1.6169  0.5068
72346SOL    HW228764  12.054   7.343   8.401 -0.1238 -0.7410  0.2243
72347SOL     OW28765  12.577   5.053  13.341  0.0610 -0.0571  0.3222
72347SOL    HW128766  12.583   5.130  13.397 -1.6146 -1.0289  1.9526
72347SOL    HW228767  12.484   5.043  13.322  0.0607 -2.2777  1.1085
72348SOL     OW28768  12.860   7.851  12.565 -0.1658 -0.0095 -0.2423
72348SOL    HW128769  12.782   7.886  12.521 -1.3392  0.5837  2.1548
72348SOL    HW228770  12.878   7.768  12.520 -1.2522  0.5441 -1.7976
72349SOL     OW28771   5.938   4.841   2.698 -0.9403 -0.0595  0.0572
72349SOL    HW128772   5.877   4.911   2.722 -0.6456 -0.0820  0.9064
72349SOL    HW228773   5.886   4.761   2.701 -0.7269 -0.1735  1.5057
72350SOL     OW28774  13.018   4.289   6.471 -0.1215 -0.5210 -0.4003
72350SOL    HW128775  13.031   4.198   6.444  1.6152  0.0138 -1.4683
72350SOL    HW228776  13.025   4.340   6.390  1.2234  0.7658  0.4858
72351SOL     OW28777   5.078   9.119   5.199  0.7399 -0.6832  0.2915
72351SOL    HW128778   5.069   9.203   5.153 -0.1254 -0.8021  0.2263
72351SOL    HW228779   5.053   9.138   5.289  0.1419 -0.9630  0.1824
72352SOL     OW28780  13.361  13.735   1.989 -0.0531  0.6539 -0.0749
72352SOL    HW128781  13.404  13.792   1.925  0.0607 -0.3068 -0.8935
72352SOL    HW228782  13.419  13.736   2.065  0.3108  1.0544 -0.3538
72353SOL     OW28783   5.006   1.201  13.054 -0.6907 -1.1950  0.5990
72353SOL    HW128784   4.954   1.122  13.049 -1.7225 -0.5028 -0.0162
72353SOL    HW228785   4.946   1.268  13.087 -0.2580 -0.3474 -0.2689
72354SOL     OW28786   0.139   1.909   4.469 -0.2914 -0.3571  0.4426
72354SOL    HW128787   0.176   1.860   4.395 -1.6266 -1.2995  0.3633
72354SOL    HW228788   0.045   1.906   4.454 -0.6716 -1.3349  2.6537
72355SOL     OW28789   3.155   0.135   7.695  0.1594  0.1621  0.2924
72355SOL    HW128790   3.228   0.102   7.642  1.2195  1.0693  1.1375
72355SOL    HW228791   3.102   0.186   7.635  1.0841  0.7820 -0.0259
72356SOL     OW28792   7.241  13.044   2.387  0.1706 -0.0424  0.1788
72356SOL    HW128793   7.171  12.986   2.358  0.8446 -1.1219  0.6449
72356SOL    HW228794   7.310  13.034   2.321 -0.0896  1.0066 -0.2752
72357SOL     OW28795  12.221   8.529  10.761  0.6181 -0.1271  0.0916
72357SOL    HW128796  12.270   8.455  10.796 -0.1578 -2.1817 -2.8027
72357SOL    HW228797  12.240   8.529  10.668 -3.5228 -0.1081 -0.9681
72358SOL     OW28798  10.035   3.470  12.321 -0.4191  0.0463  0.1465
72358SOL    HW128799  10.099   3.421  12.269  0.4368  1.1869  0.0783
72358SOL    HW228800   9.954   3.420  12.314  0.4419 -1.4042  0.1779
72359SOL     OW28801  11.637   0.996   7.931 -0.4348 -1.0313  0.4526
72359SOL    HW128802  11.564   1.057   7.942  0.2150 -0.2329  0.4603
72359SOL    HW228803  11.675   0.989   8.019 -0.8438 -1.9065  0.5738
72360SOL     OW28804   6.367   1.238   7.118 -0.0126 -0.4326  0.5237
72360SOL    HW128805   6.412   1.237   7.033  0.7668  0.3637  0.9055
72360SOL    HW228806   6.275   1.228   7.097  0.3550 -2.6356 -0.2628
72361SOL     OW28807  10.143  12.634   8.098 -0.0204  0.1768  0.2241
72361SOL    HW128808  10.203  12.614   8.026 -1.8343 -1.6297 -0.8711
72361SOL    HW228809  10.089  12.706   8.064  0.0200  0.2529  0.3215
72362SOL     OW28810   4.694   9.809   2.974  0.2149  0.4639  0.4411
72362SOL    HW128811   4.630   9.751   3.016  0.9507 -1.2756 -0.7479
72362SOL    HW228812   4.704   9.882   3.036 -2.2467  0.3691  1.0560
72363SOL     OW28813   5.620   4.806   8.107  0.4440  0.2058  0.0918
72363SOL    HW128814   5.565   4.730   8.089  1.3503 -0.4812  0.0872
72363SOL    HW228815   5.568   4.862   8.164 -0.0868 -0.6282  0.4348
72364SOL     OW28816   3.939   3.727   1.490 -0.6810  0.0232  0.3680
72364SOL    HW128817   3.896   3.675   1.422  0.3260  1.4945 -1.4820
72364SOL    HW228818   3.897   3.699   1.571 -5.9047  1.8905 -1.2592
72365SOL     OW28819   3.906   1.344   2.238 -0.4166  0.4066 -0.0704
72365SOL    HW128820   3.814   1.342   2.266 -0.4613  0.4956 -0.2112
72365SOL    HW228821   3.952   1.292   2.304 -0.4529  0.9912  0.4266
72366SOL     OW28822   0.787  11.523   6.037 -0.1569 -0.0306 -0.0380
72366SOL    HW128823   0.733  11.497   5.962 -1.8858 -1.0836  1.4726
72366SOL    HW228824   0.756  11.610   6.060  0.7397  0.5148 -0.8226
72367SOL     OW28825  12.459   5.821  10.221 -0.1205 -0.1278  0.0308
72367SOL    HW128826  12.518   5.870  10.164 -0.9477 -0.0056 -0.7467
72367SOL    HW228827  12.379   5.810  10.169 -0.6376 -0.6383  0.9075
72368SOL     OW28828   8.907   9.506   7.268  0.0108 -0.1255  0.1479
72368SOL    HW128829   8.876   9.535   7.182  2.1245  1.4054 -0.1759
72368SOL    HW228830   8.966   9.575   7.297 -1.9514  0.3137  3.7182
72369SOL     OW28831   5.360  10.779   3.222  0.0911  0.7249 -0.0358
72369SOL    HW128832   5.370  10.874   3.217 -0.7881  0.9420  1.5375
72369SOL    HW228833   5.305  10.765   3.299  1.6447 -1.1440  0.8164
72370SOL     OW28834  12.946   6.488   3.100  0.3983 -0.0293 -0.0090
72370SOL    HW128835  12.883   6.446   3.158 -0.0169  1.1162  0.3955
72370SOL    HW228836  13.011   6.527   3.158  0.1500  0.8603 -0.3082
72371SOL     OW28837  11.949  10.979   2.204 -0.3953  0.1926 -0.1589
72371SOL    HW128838  12.035  10.938   2.219 -1.2341 -1.1407  1.2907
72371SOL    HW228839  11.926  11.017   2.288 -1.7395 -0.5039 -0.1897
72372SOL     OW28840  12.835  13.080  11.545  0.0407 -0.5291 -0.1714
72372SOL    HW128841  12.920  13.121  11.564 -0.1632 -0.7118  1.2657
72372SOL    HW228842  12.856  13.006  11.489  0.9376 -1.0197  0.7731
72373SOL     OW28843   7.740  11.212   7.217  0.2260  0.4803 -0.1961
72373SOL    HW128844   7.748  11.140   7.153 -0.1352 -1.4057  1.7714
72373SOL    HW228845   7.771  11.174   7.299 -2.3378  1.7680  1.4863
72374SOL     OW28846  13.412   4.184  12.939 -0.1542  0.6511  0.5564
72374SOL    HW128847  13.375   4.177  12.851 -1.1207 -0.1665  1.0080
72374SOL    HW228848  13.376   4.265  12.975 -1.2424  0.0558  0.8525
72375SOL     OW28849   3.682   2.826  12.184  0.1119  0.3571  0.6142
72375SOL    HW128850   3.655   2.813  12.093 -0.8813  1.1102  0.7817
72375SOL    HW228851   3.769   2.865  12.178 -0.9567  2.8273 -0.1291
72376SOL     OW28852   4.810  11.101   2.962  0.2108  0.1711  0.1150
72376SOL    HW128853   4.865  11.028   2.991  0.9407  0.3714 -0.6965
72376SOL    HW228854   4.863  11.179   2.981  0.0606  0.3876 -0.3304
72377SOL     OW28855  10.299  11.437   2.370  0.2334 -0.3925 -0.5646
72377SOL    HW128856  10.350  11.515   2.394 -0.7495  1.2872 -3.4274
72377SOL    HW228857  10.210  11.470   2.356 -0.6175 -2.3923 -0.1858
72378SOL     OW28858   6.738   9.795  10.605 -0.2357  0.5743  0.0887
72378SOL    HW128859   6.704   9.880  10.633  0.9273  0.5566  1.7501
72378SOL    HW228860   6.761   9.751  10.687 -0.0062 -1.0028 -0.7873
72379SOL     OW28861   4.617  10.280   7.643 -0.1114 -0.4255 -0.3007
72379SOL    HW128862   4.704  10.251   7.615  0.7610 -0.3683  2.1318
72379SOL    HW228863   4.556  10.230   7.588  1.4076  0.2508 -2.7493
72380SOL     OW28864  10.781   3.584   9.210 -0.6301  0.4669 -0.5293
72380SOL    HW128865  10.870   3.612   9.230 -0.0656 -1.9033  0.4921
72380SOL    HW228866  10.791   3.501   9.164 -2.3160 -0.4394  0.6180
72381SOL     OW28867   2.794   3.955   4.799  0.4609  0.5064  0.4453
72381SOL    HW128868   2.832   3.882   4.750  0.6384  1.2049 -0.4643
72381SOL    HW228869   2.841   3.953   4.883  1.4899  0.4595 -0.1145
72382SOL     OW28870  12.063  11.621   7.169 -0.1179  0.5854  0.3581
72382SOL    HW128871  12.056  11.616   7.264  0.1324  0.4742  0.3718
72382SOL    HW228872  12.000  11.557   7.136 -0.5810  0.9988  0.4399
72383SOL     OW28873   6.782   1.743  13.562  0.3382  0.2693 -0.0229
72383SOL    HW128874   6.803   1.685  13.635  1.0947 -0.0562 -0.4927
72383SOL    HW228875   6.851   1.727  13.498 -0.2050  0.6992 -0.7268
72384SOL     OW28876  10.719  10.539  12.784 -0.0379 -0.2195 -0.5451
72384SOL    HW128877  10.664  10.492  12.721  0.3454  0.5566 -1.4764
72384SOL    HW228878  10.666  10.614  12.810 -0.4377 -0.8600  0.5386
72385SOL     OW28879  10.569   3.422   5.731  0.1091  0.1203 -0.5472
72385SOL    HW128880  10.582   3.455   5.820 -0.3455  1.7030 -1.0247
72385SOL    HW228881  10.511   3.487   5.690 -0.8259 -1.3029 -1.5776
72386SOL     OW28882   0.307   0.552   5.186 -0.1750 -0.2802 -0.2823
72386SOL    HW128883   0.247   0.528   5.257 -0.8951  1.2284 -0.3349
72386SOL    HW228884   0.288   0.644   5.170  2.1259  0.2404 -0.3474
72387SOL     OW28885  10.368   4.557   7.274 -0.5833  0.3119  0.7624
72387SOL    HW128886  10.369   4.468   7.241 -0.1391  0.8747 -0.8611
72387SOL    HW228887  10.314   4.554   7.353 -0.6495 -1.3539  0.6765
72388SOL     OW28888   7.408   8.340  13.220  0.3595  0.4935  0.1811
72388SOL    HW128889   7.321   8.332  13.179  0.2281 -1.0477  0.6964
72388SOL    HW228890   7.458   8.267  13.185  1.7884  1.8775 -0.8023
72389SOL     OW28891   6.154  12.146  12.361  0.0453 -0.8183 -0.3107
72389SOL    HW128892   6.155  12.203  12.437 -0.3587  0.6976 -1.3912
72389SOL    HW228893   6.244  12.150  12.327 -0.2196 -0.0192 -0.9430
72390SOL     OW28894   4.144   4.206  12.276  0.5500  0.3871 -0.0782
72390SOL    HW128895   4.048   4.201  12.282  0.4782  1.5994  0.0189
72390SOL    HW228896   4.172   4.114  12.269 -0.8943  0.0569 -4.6046
72391SOL     OW28897   6.129   0.387   5.785 -0.2826 -0.0554 -0.1555
72391SOL    HW128898   6.064   0.411   5.719 -0.2487  0.1433 -0.1165
72391SOL    HW228899   6.206   0.359   5.734  0.0782  0.9852 -0.2065
72392SOL     OW28900  10.702   8.260  12.842  0.2287 -0.3792  0.2142
72392SOL    HW128901  10.786   8.215  12.838  0.4723 -0.0500  1.3289
72392SOL    HW228902  10.638   8.191  12.857  0.4954 -0.4704  0.9856
72393SOL     OW28903   4.383  12.874   6.903 -0.3551 -0.2064 -0.2268
72393SOL    HW128904   4.297  12.895   6.865 -1.1973  0.0879  1.7246
72393SOL    HW228905   4.428  12.959   6.909 -0.7113 -0.0578  0.5135
72394SOL     OW28906   2.014   6.878   4.225  0.0881 -0.3313 -0.2819
72394SOL    HW128907   1.986   6.970   4.225  1.4637  0.1113 -0.3436
72394SOL    HW228908   1.965   6.838   4.297 -0.5866  0.4251 -0.3043
72395SOL     OW28909   8.811  10.727  12.775 -0.4366  0.1755 -0.1549
72395SOL    HW128910   8.812  10.683  12.691  0.3332  0.5249 -0.3405
72395SOL    HW228911   8.769  10.812  12.758  0.6715  0.6898 -0.4383
72396SOL     OW28912   4.687   9.045  10.072  0.2330 -0.2674 -0.4628
72396SOL    HW128913   4.603   9.083  10.097  0.0140 -0.9546 -0.1349
72396SOL    HW228914   4.747   9.073  10.142  0.3969  0.5928 -0.9223
72397SOL     OW28915   9.997  12.072   0.994 -0.1526 -0.3905  0.4635
72397SOL    HW128916  10.058  12.014   1.040  0.0563  0.6756  1.5750
72397SOL    HW228917  10.023  12.160   1.020 -1.3696  0.1482 -0.0541
72398SOL     OW28918   6.173  12.859   8.000 -0.2566  0.1668 -0.0213
72398SOL    HW128919   6.119  12.937   8.005 -0.4593  0.0037  0.4302
72398SOL    HW228920   6.261  12.889   8.026 -0.0890  0.4629 -0.9027
72399SOL     OW28921   4.105   4.172  11.759 -0.6697  0.4421 -0.1654
72399SOL    HW128922   4.141   4.212  11.680 -0.6543 -1.4511 -1.1697
72399SOL    HW228923   4.138   4.226  11.831  0.1387  1.6132 -1.3726
72400SOL     OW28924   6.386  13.149   7.079  0.3945  0.2724 -0.0090
72400SOL    HW128925   6.379  13.201   6.998  0.6853  0.6152  0.1847
72400SOL    HW228926   6.362  13.210   7.149  0.2720  0.0122  0.1766
72401SOL     OW28927  12.916   5.961   3.523 -0.0342  0.1919 -0.0629
72401SOL    HW128928  12.997   5.942   3.477 -0.0243 -0.0113  0.0382
72401SOL    HW228929  12.893   6.050   3.496  0.6077  0.5230  0.4696
72402SOL     OW28930   0.469   9.625   6.647 -0.1687  0.4323  0.3036
72402SOL    HW128931   0.407   9.612   6.575  0.7316  0.3325 -0.4736
72402SOL    HW228932   0.486   9.719   6.646 -0.0656  0.4130  0.3212
72403SOL     OW28933  11.782   6.679   2.913 -0.1072 -0.5890 -0.0945
72403SOL    HW128934  11.824   6.733   2.979 -2.3558  0.4625  0.5916
72403SOL    HW228935  11.731   6.615   2.962 -1.0394 -0.4220 -0.8080
72404SOL     OW28936  11.883  11.742   6.527 -0.0608  0.5499  0.0855
72404SOL    HW128937  11.790  11.721   6.518  0.1941 -0.4922 -0.3147
72404SOL    HW228938  11.893  11.826   6.484 -0.6268  0.1385 -0.8889
72405SOL     OW28939   2.468   1.636   0.533 -0.0181 -0.1214  0.5052
72405SOL    HW128940   2.377   1.606   0.525 -0.3380  1.0713 -0.8010
72405SOL    HW228941   2.460   1.722   0.575  0.4224  0.4014 -0.4713
72406SOL     OW28942  12.988   6.666   6.413 -0.1679 -0.8246 -0.1856
72406SOL    HW128943  13.028   6.605   6.475  0.4819  0.3627  0.6238
72406SOL    HW228944  12.903   6.687   6.452  0.4164  0.2545  0.5917
72407SOL     OW28945  12.413   6.666   8.945  0.6333  0.3964  0.2792
72407SOL    HW128946  12.394   6.626   9.031  1.2955  0.1322  0.3112
72407SOL    HW228947  12.497   6.710   8.958  1.2451 -0.5043 -0.5018
72408SOL     OW28948  12.369  12.427   0.947 -0.1966  0.2518 -0.0287
72408SOL    HW128949  12.326  12.345   0.970  1.4532 -0.9856 -1.2005
72408SOL    HW228950  12.315  12.494   0.989 -1.8534 -1.3711  0.5697
72409SOL     OW28951  11.815   7.980   2.152 -0.3096  0.9010 -0.3104
72409SOL    HW128952  11.795   7.887   2.159 -0.7381  1.0406  0.4840
72409SOL    HW228953  11.910   7.984   2.140  0.1565  0.4319  2.5364
72410SOL     OW28954   5.975   3.425   5.320  0.1184 -0.4313 -0.4643
72410SOL    HW128955   5.897   3.393   5.275  0.2306  0.8194 -1.6139
72410SOL    HW228956   6.027   3.466   5.252  1.2951 -0.3039  0.4742
72411SOL     OW28957  10.352   4.597   6.777 -0.5024 -0.2430 -0.7278
72411SOL    HW128958  10.439   4.566   6.803  0.3636  2.3208 -0.2827
72411SOL    HW228959  10.311   4.623   6.860 -1.6906 -1.2685 -0.9525
72412SOL     OW28960  11.577  12.902  10.373  0.7121  0.2322 -0.5275
72412SOL    HW128961  11.669  12.915  10.396  0.4940  0.2146  0.4116
72412SOL    HW228962  11.575  12.821  10.324  1.0499 -0.4041  0.4818
72413SOL     OW28963   6.769   6.933   9.270  0.2713  0.1474 -0.2591
72413SOL    HW128964   6.833   6.947   9.340  0.6858  3.2633 -1.1073
72413SOL    HW228965   6.821   6.900   9.196 -0.2654 -3.8176  0.8996
72414SOL     OW28966  12.031   3.665   8.721 -0.7863  0.1147 -0.1512
72414SOL    HW128967  11.974   3.618   8.661  1.5203 -0.7051 -1.8403
72414SOL    HW228968  12.043   3.751   8.681 -0.6500  0.1928  0.0529
72415SOL     OW28969   7.820   6.752   7.032 -0.0298 -0.5092 -0.4318
72415SOL    HW128970   7.786   6.662   7.038 -0.1160 -0.3917  2.1876
72415SOL    HW228971   7.767   6.793   6.964 -2.7884 -1.3507  1.0502
72416SOL     OW28972   4.098   2.610   4.150 -0.0983  0.2326 -0.1567
72416SOL    HW128973   4.082   2.660   4.070  2.2802 -1.1886 -1.6573
72416SOL    HW228974   4.182   2.643   4.182  0.1628 -0.8693  0.3492
72417SOL     OW28975   2.190   0.265   5.641 -0.0872 -0.0559  0.4168
72417SOL    HW128976   2.260   0.277   5.705  1.5561 -0.6998 -1.1722
72417SOL    HW228977   2.126   0.209   5.685  0.3182  0.6413  1.9422
72418SOL     OW28978   5.599   0.458   8.326  0.2307 -0.2652 -0.1575
72418SOL    HW128979   5.543   0.473   8.402 -0.5098 -1.1096 -0.5229
72418SOL    HW228980   5.567   0.519   8.260  0.1609 -0.3032 -0.1577
72419SOL     OW28981   2.315   3.420  10.080  0.2840  0.8048 -0.2465
72419SOL    HW128982   2.348   3.396   9.993  1.2677  1.5766 -0.1016
72419SOL    HW228983   2.313   3.337  10.128 -1.0485  0.2240 -1.2267
72420SOL     OW28984   5.922   8.330   8.322  0.5595 -0.4836 -0.6245
72420SOL    HW128985   5.950   8.239   8.315 -0.5517 -1.0672  1.6210
72420SOL    HW228986   5.953   8.358   8.408 -1.3113  0.4059 -0.1915
72421SOL     OW28987   9.494   2.016  11.378  0.8056  0.2562 -0.2061
72421SOL    HW128988   9.470   1.925  11.363 -0.2273  0.6947 -1.4823
72421SOL    HW228989   9.476   2.031  11.470  0.4676 -0.6896 -0.1084
72422SOL     OW28990  10.833   5.131   8.511  0.5270 -0.4999 -0.4379
72422SOL    HW128991  10.842   5.163   8.601  0.8724 -0.8576 -0.3442
72422SOL    HW228992  10.768   5.061   8.517  1.9938 -1.8852 -0.1161
72423SOL     OW28993  10.099   5.883   1.997 -0.0037 -0.0024 -0.2930
72423SOL    HW128994  10.174   5.870   2.054  0.2598 -0.3787 -0.7211
72423SOL    HW228995  10.061   5.966   2.026 -0.0961 -0.3701  0.6679
72424SOL     OW28996   5.447   6.108   9.077 -0.0063  0.1863  0.6930
72424SOL    HW128997   5.353   6.103   9.096  0.0656 -1.3337  0.7340
72424SOL    HW228998   5.456   6.068   8.991  0.4861  1.3403  0.1803
72425SOL     OW28999   0.145  10.733   5.721  0.2964 -0.0707 -0.1643
72425SOL    HW129000   0.051  10.727   5.710  0.2419  0.7392 -0.2306
72425SOL    HW229001   0.164  10.827   5.716  0.6810  0.1505  3.2026
72426SOL     OW29002   9.204  10.250  10.753 -0.2346 -0.3699 -0.2998
72426SOL    HW129003   9.124  10.198  10.746  0.5178 -1.4781 -0.9173
72426SOL    HW229004   9.268  10.203  10.700  1.3760 -0.5518  1.7120
72427SOL     OW29005  10.231   1.881   6.029  0.3153  0.3257 -0.2386
72427SOL    HW129006  10.320   1.908   6.007  0.3576 -0.7334 -1.5041
72427SOL    HW229007  10.193   1.853   5.945 -0.5042 -1.2125  0.6087
72428SOL     OW29008  11.822  11.445  10.063 -0.3155  0.1340  0.2163
72428SOL    HW129009  11.780  11.486  10.139  0.6731 -0.4557  1.1040
72428SOL    HW229010  11.874  11.515  10.024  0.3078  0.0888  0.9421
72429SOL     OW29011   9.660   0.132   7.899 -0.1244 -0.1878  0.2359
72429SOL    HW129012   9.748   0.163   7.918  0.5729 -1.0718 -1.3318
72429SOL    HW229013   9.664   0.037   7.914 -0.9336 -0.1702  0.5956
72430SOL     OW29014   9.608   1.013   5.183 -0.8000 -0.2941 -0.4470
72430SOL    HW129015   9.614   1.029   5.277  0.1441 -1.9265 -0.1876
72430SOL    HW229016   9.593   0.919   5.175 -1.2998 -0.1254 -1.9364
72431SOL     OW29017   0.572   7.010   8.676 -0.0076  0.2555  0.1704
72431SOL    HW129018   0.655   7.038   8.715  0.4129 -0.3588 -0.2496
72431SOL    HW229019   0.580   7.032   8.583  1.0047 -2.5173 -0.5250
72432SOL     OW29020   1.773   0.758   4.568  0.1191 -0.1100 -0.2282
72432SOL    HW129021   1.852   0.708   4.589 -1.2061 -1.3005  2.4685
72432SOL    HW229022   1.774   0.831   4.630  0.6768  1.8205 -2.3701
72433SOL     OW29023   8.459   4.769  10.488  0.3172  0.4020  0.7815
72433SOL    HW129024   8.398   4.762  10.561 -0.3328  2.0741  0.4330
72433SOL    HW229025   8.485   4.861  10.486  1.1921  0.1622 -0.4142
72434SOL     OW29026   6.447  10.849  11.784  0.1528 -0.2989  0.0264
72434SOL    HW129027   6.413  10.815  11.701 -0.1246 -0.3940  0.1779
72434SOL    HW229028   6.438  10.776  11.845  2.5080 -1.0491 -0.3953
72435SOL     OW29029   5.642   5.305  11.301 -0.1272  0.4122 -0.1996
72435SOL    HW129030   5.631   5.211  11.285  0.1682  0.4176 -0.4326
72435SOL    HW229031   5.734   5.314  11.327 -1.1094 -0.0534  4.4740
72436SOL     OW29032   6.303  11.761  12.661  0.1227  0.0805 -0.1404
72436SOL    HW129033   6.242  11.707  12.610 -2.3944  0.7128  1.9477
72436SOL    HW229034   6.356  11.805  12.595 -0.5588 -1.7620 -2.0403
72437SOL     OW29035   8.690   4.984   0.471 -0.3011 -0.8476 -0.0096
72437SOL    HW129036   8.680   5.071   0.509  0.1711  0.1007 -1.9494
72437SOL    HW229037   8.689   4.925   0.547 -0.9156  0.7937  1.3294
72438SOL     OW29038   0.459   5.660   3.471  0.1117  0.4824  0.2493
72438SOL    HW129039   0.420   5.725   3.414 -0.4198  1.0189  1.2007
72438SOL    HW229040   0.552   5.659   3.446 -0.4137 -0.5963 -1.8210
72439SOL     OW29041   7.639   0.910   5.958 -0.2285 -0.6025 -0.0332
72439SOL    HW129042   7.644   0.908   6.053  0.2815 -0.1886 -0.0470
72439SOL    HW229043   7.728   0.932   5.929 -0.7938  1.3055 -0.5161
72440SOL     OW29044   8.140   0.500   8.935 -0.4143  0.2664  0.2300
72440SOL    HW129045   8.061   0.459   8.901  0.6877 -0.2804 -1.8730
72440SOL    HW229046   8.109   0.567   8.996 -2.3733 -1.3643  1.1072
72441SOL     OW29047   3.778   3.019   4.187 -0.6982 -0.1528  0.4819
72441SOL    HW129048   3.806   3.057   4.104 -0.2554 -0.5597  0.4413
72441SOL    HW229049   3.854   2.970   4.218  0.2360  2.3438  2.5759
72442SOL     OW29050  13.734   3.434   9.693  0.9245  0.4660  0.5808
72442SOL    HW129051  13.715   3.417   9.785  0.8720  1.2636  0.7207
72442SOL    HW229052  13.693   3.518   9.675 -0.2802 -0.3277 -0.5442
72443SOL     OW29053   9.166   7.596   6.266 -0.2256 -0.0654 -0.0382
72443SOL    HW129054   9.212   7.574   6.348  1.6161 -0.7740 -1.1956
72443SOL    HW229055   9.133   7.512   6.234 -0.2139  0.0814 -0.4351
72444SOL     OW29056  12.507   0.143   0.234  0.7852 -0.4390  0.4017
72444SOL    HW129057  12.600   0.131   0.250  0.6355 -0.1610  1.5313
72444SOL    HW229058  12.503   0.192   0.151  1.6161 -0.8310  0.1235
72445SOL     OW29059   7.548   4.637   6.859 -0.6514 -0.4080  0.0372
72445SOL    HW129060   7.614   4.674   6.800 -1.3246  0.7443 -0.0176
72445SOL    HW229061   7.567   4.543   6.859  0.1092 -0.2810 -1.0719
72446SOL     OW29062   9.203  13.682   2.899  0.2647 -0.2187 -0.3418
72446SOL    HW129063   9.126  13.674   2.843 -0.0397 -1.4846  0.2230
72446SOL    HW229064   9.213  13.596   2.940  0.3000  0.7229  1.7747
72447SOL     OW29065   4.220   9.730   0.809 -0.6182  0.0647 -0.0969
72447SOL    HW129066   4.180   9.752   0.893 -0.1394 -0.1736  0.1946
72447SOL    HW229067   4.215   9.811   0.759 -0.2444  0.4222  0.4283
72448SOL     OW29068   8.550   8.806   3.228  0.1971  0.2605 -0.6040
72448SOL    HW129069   8.511   8.861   3.160  1.1556  1.5641 -0.1379
72448SOL    HW229070   8.490   8.731   3.235 -0.5123  0.6453 -2.0832
72449SOL     OW29071   1.089   1.233  12.306  0.0253  0.6268 -0.0737
72449SOL    HW129072   1.055   1.213  12.393  1.5152  0.7394  0.5672
72449SOL    HW229073   1.081   1.328  12.298 -1.6264  0.4612 -0.7500
72450SOL     OW29074   2.063  12.254   6.148  0.1784 -0.0726  0.7109
72450SOL    HW129075   2.064  12.302   6.231  0.6485  1.3567 -0.0742
72450SOL    HW229076   2.151  12.266   6.112 -1.1151  3.1010 -1.9630
72451SOL     OW29077   5.689  13.626   1.967  0.1141 -0.0436  0.5055
72451SOL    HW129078   5.750  13.594   1.901 -0.0258 -1.5311  1.0631
72451SOL    HW229079   5.608  13.578   1.950 -0.0997 -0.0094  1.3817
72452SOL     OW29080  13.388  10.780  13.230  0.4412  0.0799  0.2806
72452SOL    HW129081  13.403  10.874  13.235  0.3006  0.1234 -0.0674
72452SOL    HW229082  13.467  10.741  13.268 -0.0250  0.3487  1.5510
72453SOL     OW29083  10.659  13.343   0.484 -0.0917  0.1018 -0.3289
72453SOL    HW129084  10.707  13.263   0.463  1.6050  1.0776 -0.3530
72453SOL    HW229085  10.632  13.378   0.399  0.5224  0.3581 -0.4187
72454SOL     OW29086   0.451  12.243  13.267  0.2852 -0.7456 -0.4298
72454SOL    HW129087   0.372  12.262  13.317 -0.6191  1.2649 -2.3992
72454SOL    HW229088   0.423  12.178  13.202  0.3645 -0.4050 -0.8086
72455SOL     OW29089   5.877   0.909  11.433 -0.0796  0.1580  0.5664
72455SOL    HW129090   5.794   0.938  11.397  0.1560 -0.2079 -0.3004
72455SOL    HW229091   5.860   0.820  11.465  0.1068 -0.1097 -0.0787
72456SOL     OW29092   2.936   6.741   5.008  0.4566 -0.2088 -0.9979
72456SOL    HW129093   3.031   6.738   5.009  0.4751  0.2391 -1.5747
72456SOL    HW229094   2.912   6.749   5.100  1.0005  0.5377 -0.9156
72457SOL     OW29095   1.200  12.446   3.968  0.6637 -0.1332  0.1224
72457SOL    HW129096   1.183  12.385   3.897 -0.2601  0.9165 -0.5937
72457SOL    HW229097   1.113  12.477   3.994  1.1212  0.9841  0.3599
72458SOL     OW29098   3.855   9.848  12.897 -0.7154  0.2745  0.3166
72458SOL    HW129099   3.836   9.758  12.923  2.5686 -0.2943  1.2395
72458SOL    HW229100   3.883   9.891  12.978  0.0752  1.3949 -0.5078
72459SOL     OW29101  11.073   0.907  10.554 -0.3613  0.4619  0.1237
72459SOL    HW129102  11.053   0.962  10.479 -2.0379  1.3806  1.1980
72459SOL    HW229103  11.164   0.928  10.576  0.1448  0.2058 -1.5728
72460SOL     OW29104   0.804  12.601   9.339  0.2030  0.1092  0.0957
72460SOL    HW129105   0.831  12.525   9.288 -2.0117  0.2598 -1.4308
72460SOL    HW229106   0.709  12.602   9.333  0.0554  1.9307  1.7016
72461SOL     OW29107   0.370   2.981  13.428 -0.0714  0.2599 -0.2143
72461SOL    HW129108   0.304   3.000  13.361  0.4272 -0.0664 -0.8155
72461SOL    HW229109   0.322   2.983  13.510 -0.6212  1.0769 -0.5415
72462SOL     OW29110   1.128   9.180   4.932  0.0982  0.3650 -0.0690
72462SOL    HW129111   1.179   9.250   4.891  0.4500  0.7649  0.9968
72462SOL    HW229112   1.172   9.165   5.016 -0.6003 -0.4109  0.1720
72463SOL     OW29113   0.850  10.635   9.956  0.3124 -0.3196 -0.9703
72463SOL    HW129114   0.759  10.664   9.944  0.6029  0.0753 -2.3313
72463SOL    HW229115   0.855  10.553   9.907 -0.0426 -1.9047  1.4576
72464SOL     OW29116   1.153  13.310  10.212 -0.2948 -0.1021 -0.0941
72464SOL    HW129117   1.218  13.288  10.146  2.3720 -0.5897  2.4779
72464SOL    HW229118   1.186  13.390  10.253 -2.4252  0.7921 -0.0041
72465SOL     OW29119   1.258   1.426   9.280  0.6282 -0.5636  0.5670
72465SOL    HW129120   1.182   1.368   9.290  0.4954 -0.3355  0.9040
72465SOL    HW229121   1.333   1.367   9.280  0.4058 -0.8743 -0.6747
72466SOL     OW29122   1.276  13.282   9.968 -0.3938  0.1467 -0.9110
72466SOL    HW129123   1.367  13.313   9.965 -0.5637  0.6585 -0.8253
72466SOL    HW229124   1.278  13.199   9.920 -0.4981  1.6568 -3.7547
72467SOL     OW29125   1.574   7.700   2.446  0.1369 -0.1781  0.5087
72467SOL    HW129126   1.636   7.773   2.437 -0.4314  0.6232  2.5542
72467SOL    HW229127   1.609   7.632   2.389  0.4868  1.7946 -1.8058
72468SOL     OW29128   7.568   8.374   6.162  0.2384  0.6356 -0.4149
72468SOL    HW129129   7.491   8.401   6.112 -0.1445  0.3350  0.0076
72468SOL    HW229130   7.533   8.319   6.232  0.8995 -0.1007 -0.6444
72469SOL     OW29131   7.842   1.837   0.589 -0.2626 -0.4316  0.0613
72469SOL    HW129132   7.785   1.801   0.657 -0.1087  0.7066  0.8199
72469SOL    HW229133   7.874   1.920   0.625 -0.5862  0.4657 -1.6069
72470SOL     OW29134  12.385   0.138   5.740 -0.1583 -0.3793 -0.2031
72470SOL    HW129135  12.390   0.162   5.648  2.4789  1.6985  0.3833
72470SOL    HW229136  12.291   0.133   5.759 -0.8547  3.2754 -2.0176
72471SOL     OW29137   0.450   9.423   0.005 -0.4142  0.5610  0.1471
72471SOL    HW129138   0.508   9.428   0.080 -0.2837 -3.7232  0.5401
72471SOL    HW229139   0.362   9.422   0.042 -0.4126 -0.1401  0.1356
72472SOL     OW29140   1.388  10.198   5.747  0.6955  0.2073 -0.2947
72472SOL    HW129141   1.476  10.221   5.716  1.3421 -0.3072  1.0413
72472SOL    HW229142   1.401  10.173   5.839 -0.5775 -1.5385 -0.5301
72473SOL     OW29143   5.832   7.287   9.824  0.3560 -0.1250 -0.4014
72473SOL    HW129144   5.854   7.355   9.761 -0.3561  0.7650  0.2798
72473SOL    HW229145   5.914   7.269   9.869  0.3656  0.9907  0.0659
72474SOL     OW29146   0.737   8.543  11.881 -0.1734  0.4076 -0.6331
72474SOL    HW129147   0.821   8.574  11.847  0.0456 -0.4034 -0.8460
72474SOL    HW229148   0.735   8.574  11.971 -0.3079  1.7009 -1.0593
72475SOL     OW29149  13.276   9.992   2.325 -0.4669 -0.6550 -0.7784
72475SOL    HW129150  13.221   9.922   2.289 -0.4358 -0.0713 -2.0082
72475SOL    HW229151  13.314   9.954   2.404 -1.2585 -1.6733 -0.8634
72476SOL     OW29152  10.175   8.903   0.357 -0.0711  0.5665  0.2518
72476SOL    HW129153  10.262   8.939   0.339 -1.4235  3.9582 -0.3227
72476SOL    HW229154  10.148   8.864   0.274  1.2702 -1.5691  0.7542
72477SOL     OW29155  11.597   8.721   0.671  0.2174 -0.4465 -0.4853
72477SOL    HW129156  11.589   8.693   0.762  2.0913  0.2797 -0.0551
72477SOL    HW229157  11.691   8.725   0.654  0.1672  3.7390 -0.9980
72478SOL     OW29158   9.549   5.750  13.176 -0.1970  0.2953  0.2502
72478SOL    HW129159   9.510   5.783  13.257 -0.8506  1.0085 -0.3503
72478SOL    HW229160   9.612   5.817  13.151 -1.5631  1.1736 -0.9972
72479SOL     OW29161   2.967   8.413   1.112  0.6373 -0.1094 -0.0024
72479SOL    HW129162   3.004   8.335   1.153  0.2287 -0.8717 -1.0500
72479SOL    HW229163   2.872   8.405   1.125  0.6634  0.9051  1.0481
72480SOL     OW29164   5.419   5.784  10.255 -0.2063 -0.1887 -0.5394
72480SOL    HW129165   5.427   5.740  10.170 -0.4139 -0.0236 -0.6452
72480SOL    HW229166   5.420   5.878  10.234  1.1113 -0.1143 -0.2431
72481SOL     OW29167   6.282   1.463  11.400  0.1352  0.4535 -0.4163
72481SOL    HW129168   6.292   1.426  11.312 -0.4177  1.7523 -1.0461
72481SOL    HW229169   6.231   1.397  11.447 -1.3803  0.6453 -1.6942
72482SOL     OW29170   3.755   7.957  12.598 -0.0884 -0.0130 -0.3298
72482SOL    HW129171   3.681   7.896  12.596 -0.5607  0.5599 -1.9401
72482SOL    HW229172   3.735   8.021  12.530  1.7676  0.3060 -0.6261
72483SOL     OW29173   6.432  10.664   4.945  0.0275 -0.5512 -0.0656
72483SOL    HW129174   6.494  10.735   4.963 -1.6610  1.0948 -0.4088
72483SOL    HW229175   6.470  10.616   4.872  2.0442 -1.1035  1.2759
72484SOL     OW29176   6.732   1.836   2.832 -0.2714 -0.0794 -0.5914
72484SOL    HW129177   6.711   1.904   2.896  0.4747 -0.7297  0.3903
72484SOL    HW229178   6.657   1.776   2.836  0.4415 -0.9319  0.8533
72485SOL     OW29179   6.942   9.179   3.318 -0.6867  0.2724  0.3516
72485SOL    HW129180   6.962   9.086   3.321 -0.4991  0.3254  1.0426
72485SOL    HW229181   6.876   9.191   3.387 -0.6946  0.6502  0.2788
72486SOL     OW29182   3.940   7.943   2.884 -0.3423  0.2045 -0.0827
72486SOL    HW129183   3.914   7.862   2.930 -0.8423 -0.3738 -1.3442
72486SOL    HW229184   3.858   7.982   2.856 -0.0448  0.5788 -0.4376
72487SOL     OW29185  10.278   5.539   4.484 -0.0046 -0.4160  0.3483
72487SOL    HW129186  10.346   5.604   4.470 -0.3111  0.2169  1.6896
72487SOL    HW229187  10.241   5.524   4.397  1.9244 -0.8859 -0.4372
72488SOL     OW29188  10.697  11.196   2.170 -0.1390  0.5842 -0.0231
72488SOL    HW129189  10.697  11.103   2.193 -0.6928  0.7742  0.7814
72488SOL    HW229190  10.781  11.210   2.126  0.1549 -0.1933  0.2765
72489SOL     OW29191   0.641  12.947  10.749 -0.2486  0.1101 -0.2892
72489SOL    HW129192   0.646  12.942  10.654  1.1398 -1.5420 -0.1756
72489SOL    HW229193   0.674  13.035  10.770 -0.5332  0.4757 -1.3007
72490SOL     OW29194   8.610   7.767   5.059  0.1582  0.5705  0.3324
72490SOL    HW129195   8.659   7.689   5.084  0.7503  1.3653  1.7009
72490SOL    HW229196   8.660   7.804   4.986 -1.0062 -1.1686 -1.4598
72491SOL     OW29197   1.709  13.005   9.723  0.2830  0.5243  0.1865
72491SOL    HW129198   1.745  13.086   9.759  0.0811  0.5777  0.2743
72491SOL    HW229199   1.705  13.020   9.628  1.4722  0.1200  0.0596
72492SOL     OW29200   5.011   4.516   7.350  0.0038  0.3061 -0.0255
72492SOL    HW129201   4.986   4.534   7.441  1.3617  1.8416  0.1025
72492SOL    HW229202   5.107   4.513   7.352  0.0639 -3.8105 -0.7235
72493SOL     OW29203  12.298   5.068   6.899 -0.2754 -0.1643 -0.3540
72493SOL    HW129204  12.240   5.108   6.834  0.5641  1.5165 -0.1119
72493SOL    HW229205  12.323   4.984   6.860  0.3335  0.8564 -2.3054
72494SOL     OW29206   7.537  13.584   3.211 -0.2792  0.0024 -0.5005
72494SOL    HW129207   7.484  13.577   3.290 -0.3530  0.0790 -0.5437
72494SOL    HW229208   7.610  13.524   3.226 -0.2078  0.1370 -0.3055
72495SOL     OW29209   3.569   9.866   1.730 -0.1536 -0.6411 -0.2331
72495SOL    HW129210   3.609   9.787   1.692 -1.8925 -1.2835 -0.8503
72495SOL    HW229211   3.552   9.842   1.821  3.7988  0.8182  1.0987
72496SOL     OW29212   7.953  11.275   6.175 -0.5258 -0.4990 -0.0176
72496SOL    HW129213   7.945  11.279   6.270 -0.3946 -0.2888 -0.0148
72496SOL    HW229214   7.873  11.232   6.146 -0.3977 -0.9017  0.2162
72497SOL     OW29215   5.887   2.320  11.863  0.5684  0.1349 -0.4919
72497SOL    HW129216   5.877   2.349  11.773  1.4823  1.3612 -0.2197
72497SOL    HW229217   5.800   2.334  11.902  0.2994  0.0475 -1.0482
72498SOL     OW29218   3.297   3.438   6.148 -0.1202 -0.0542  0.0503
72498SOL    HW129219   3.254   3.508   6.100  1.4437 -0.5395 -2.2332
72498SOL    HW229220   3.259   3.358   6.112  1.1366 -0.4256 -0.5260
72499SOL     OW29221   2.728   8.925   8.922 -0.1982 -0.1007 -0.6078
72499SOL    HW129222   2.821   8.913   8.942 -0.0172  0.7279 -0.9073
72499SOL    HW229223   2.689   8.953   9.004  0.2185  1.5697 -0.9335
72500SOL     OW29224  10.903   5.600   2.705 -0.1089  0.1153  0.2407
72500SOL    HW129225  10.944   5.667   2.760  0.2426  0.1779 -0.0902
72500SOL    HW229226  10.830   5.568   2.757  0.0144  0.4122  0.6054
72501SOL     OW29227   9.738   3.609   5.160 -0.8655 -0.0784  0.4100
72501SOL    HW129228   9.724   3.517   5.184 -1.1518 -0.2690 -0.4495
72501SOL    HW229229   9.766   3.606   5.068  0.0274  0.6367  0.6453
72502SOL     OW29230   9.325   7.692   1.568 -0.1662  0.5248  0.3571
72502SOL    HW129231   9.293   7.603   1.580 -1.7196  0.9248 -0.6135
72502SOL    HW229232   9.353   7.695   1.476 -0.9171  1.2534  0.1372
72503SOL     OW29233   7.767   6.106   7.799 -0.0161  0.1203 -0.4678
72503SOL    HW129234   7.686   6.138   7.760 -1.2189  0.8311  2.3770
72503SOL    HW229235   7.797   6.038   7.738 -2.4808  0.1477 -1.8552
72504SOL     OW29236  13.205  10.621  13.487 -0.0478  0.0781 -0.3318
72504SOL    HW129237  13.201  10.672  13.568  0.8817  0.4494 -0.4992
72504SOL    HW229238  13.252  10.678  13.426  0.1562 -0.5991 -0.8155
72505SOL     OW29239   1.672   0.672   4.063 -0.6738 -0.1837 -0.0045
72505SOL    HW129240   1.757   0.714   4.076 -0.4686 -0.3345 -0.7943
72505SOL    HW229241   1.688   0.579   4.081 -0.9253 -0.0623  0.8883
72506SOL     OW29242   1.179  10.651   6.098 -0.2901  0.5542 -0.1432
72506SOL    HW129243   1.237  10.710   6.147  2.8776 -2.1459 -0.2555
72506SOL    HW229244   1.198  10.669   6.006 -0.1861  0.1607 -0.1997
72507SOL     OW29245  13.503   1.905   8.881  0.0721 -0.5406 -0.5474
72507SOL    HW129246  13.407   1.908   8.888  0.1947  0.0624  2.0708
72507SOL    HW229247  13.531   1.852   8.956  1.8304  0.0805 -0.7188
72508SOL     OW29248   5.569   3.409   1.095 -0.4052  0.6231 -0.2057
72508SOL    HW129249   5.523   3.333   1.131  0.2877  0.6998  0.8906
72508SOL    HW229250   5.647   3.419   1.151  0.8750  0.5962 -1.8861
72509SOL     OW29251  11.239  13.456  11.639 -0.7411  0.2729 -0.2229
72509SOL    HW129252  11.151  13.439  11.605 -1.3711  0.0708  1.3988
72509SOL    HW229253  11.298  13.435  11.567 -1.9235 -1.3772 -0.7688
72510SOL     OW29254   1.499  10.880   2.199 -0.6566 -0.2884 -0.7356
72510SOL    HW129255   1.532  10.878   2.109  2.4595 -0.8268  0.3004
72510SOL    HW229256   1.508  10.790   2.230  0.4825  0.3209  0.8024
72511SOL     OW29257   8.322   3.313   5.446  0.2484 -0.0950 -0.7528
72511SOL    HW129258   8.308   3.241   5.385  0.3127 -0.2966 -0.5258
72511SOL    HW229259   8.333   3.272   5.531 -2.3838  0.2761 -0.1506
72512SOL     OW29260  10.364   2.215  13.608 -0.3348  0.3206  0.0238
72512SOL    HW129261  10.372   2.120  13.614 -3.8223 -0.0215  2.5002
72512SOL    HW229262  10.314   2.231  13.528  3.2502  0.5942 -2.4349
72513SOL     OW29263   8.631   0.244  10.136  0.3824  0.4452  0.8450
72513SOL    HW129264   8.604   0.160  10.173  0.6254  0.4438  1.0183
72513SOL    HW229265   8.569   0.259  10.064 -0.5795  0.8246  1.7377
72514SOL     OW29266   7.011   6.937  11.257 -0.3283 -0.5082  0.3569
72514SOL    HW129267   7.094   6.947  11.303  0.5491 -2.0612 -0.8078
72514SOL    HW229268   6.951   6.902  11.323  0.3923 -0.9589  0.7815
72515SOL     OW29269   7.255  11.200  12.507 -0.1573 -0.2294  0.3838
72515SOL    HW129270   7.248  11.106  12.495 -0.3157 -0.1394 -0.3062
72515SOL    HW229271   7.339  11.223  12.466 -0.5865  0.0544 -0.3652
72516SOL     OW29272  10.870   7.217   7.684 -0.0065 -0.2385  0.2322
72516SOL    HW129273  10.791   7.251   7.727 -1.4337 -1.3305 -1.4159
72516SOL    HW229274  10.893   7.139   7.735 -0.2922 -0.2193  0.3917
72517SOL     OW29275  12.364   3.333   1.064  0.0190 -0.0971 -0.5138
72517SOL    HW129276  12.321   3.250   1.084  1.3435 -1.1952 -1.9311
72517SOL    HW229277  12.428   3.344   1.134  0.0454 -0.4367 -0.4809
72518SOL     OW29278   4.971   6.005   1.696 -0.3409 -0.2376  0.0059
72518SOL    HW129279   4.999   5.948   1.625  0.9739 -1.3453  1.3300
72518SOL    HW229280   4.927   5.946   1.758 -2.9750  0.9718 -0.5957
72519SOL     OW29281   6.335   2.256  11.930 -0.4925 -0.1846 -0.2562
72519SOL    HW129282   6.415   2.285  11.974 -0.7452  2.0402 -1.1258
72519SOL    HW229283   6.365   2.191  11.866  0.3104 -0.9431  0.8583
72520SOL     OW29284   0.889   8.539   3.118  0.2813  0.4493  0.5096
72520SOL    HW129285   0.885   8.501   3.030  3.0096  1.8700 -0.3457
72520SOL    HW229286   0.938   8.475   3.169 -1.4357 -0.4478  1.1192
72521SOL     OW29287   8.159   9.366   6.819 -0.1187  0.0475 -0.0660
72521SOL    HW129288   8.114   9.356   6.735  1.5871 -0.7903 -0.9317
72521SOL    HW229289   8.214   9.443   6.807  1.5423 -1.1445 -0.4276
72522SOL     OW29290  10.388   9.785  13.713 -0.5520  0.3229 -0.2846
72522SOL    HW129291  10.368   9.723  13.643 -0.9044 -0.5548  0.5691
72522SOL    HW229292  10.483   9.780  13.723 -0.2630  1.6916 -1.7840
72523SOL     OW29293   9.114   2.793  11.809 -0.5607 -0.0881 -0.5682
72523SOL    HW129294   9.154   2.783  11.896  1.2797  1.4431 -1.1825
72523SOL    HW229295   9.153   2.724  11.756  0.6581  0.8374 -0.9244
72524SOL     OW29296   1.560   9.742   9.999  0.4765 -0.2973  0.0293
72524SOL    HW129297   1.624   9.769   9.933 -1.4718  0.2470 -1.7534
72524SOL    HW229298   1.531   9.655   9.970  0.5316 -0.6260  0.9207
72525SOL     OW29299   9.775   4.303   1.841  0.2343 -0.5142  0.0169
72525SOL    HW129300   9.795   4.317   1.749 -1.7113  0.8487 -0.2458
72525SOL    HW229301   9.810   4.216   1.860  1.2288 -0.5601 -1.8229
72526SOL     OW29302   7.741   2.394   3.503 -0.0086 -0.0983 -0.3240
72526SOL    HW129303   7.779   2.475   3.537  1.2854  0.6085 -3.1483
72526SOL    HW229304   7.816   2.342   3.475 -0.9315 -0.9483 -1.3370
72527SOL     OW29305  11.442  13.292   5.169 -0.0417 -0.5291  0.1592
72527SOL    HW129306  11.475  13.381   5.157  1.3514 -1.1784 -1.2669
72527SOL    HW229307  11.474  13.266   5.255  0.5070 -0.0189  0.1171
72528SOL     OW29308   1.566  13.637   5.387  0.0522 -0.1763 -0.2623
72528SOL    HW129309   1.608  13.712   5.429 -1.7940  1.6798 -1.5129
72528SOL    HW229310   1.630  13.606   5.323  1.1152 -0.1815  0.7651
72529SOL     OW29311  12.671   0.325   1.267 -0.4052  0.0584 -0.1735
72529SOL    HW129312  12.754   0.369   1.285 -1.0577  0.5511  1.8541
72529SOL    HW229313  12.694   0.232   1.267  0.2483  0.2090 -0.3302
72530SOL     OW29314   6.762   9.515  11.346  0.3214 -0.0274  0.3263
72530SOL    HW129315   6.759   9.455  11.272  1.7264 -2.0543  1.7862
72530SOL    HW229316   6.853   9.545  11.349  0.3761 -0.2695  1.4300
72531SOL     OW29317   0.703  11.116   3.221  0.0808 -0.2425  0.2240
72531SOL    HW129318   0.721  11.099   3.128  0.7571  0.6932  0.1667
72531SOL    HW229319   0.722  11.033   3.264  0.6388 -0.4400 -0.3743
72532SOL     OW29320  11.140   5.042   6.101 -0.2214  0.1565  0.2253
72532SOL    HW129321  11.173   4.954   6.081  1.1804  0.9636 -1.2214
72532SOL    HW229322  11.051   5.043   6.066 -0.3953 -0.8004  0.6171
72533SOL     OW29323   8.662  11.752   6.817  0.1889 -0.2494 -0.1832
72533SOL    HW129324   8.595  11.799   6.867 -1.5483 -2.5554 -0.1548
72533SOL    HW229325   8.673  11.802   6.737 -0.1877  1.1777  0.6239
72534SOL     OW29326   1.837  13.368  12.948 -0.3005 -0.1679  0.4065
72534SOL    HW129327   1.771  13.361  12.880  0.5524  0.1743 -0.4879
72534SOL    HW229328   1.884  13.449  12.928  0.3605 -0.3766  1.0491
72535SOL     OW29329  11.470   2.142  11.644 -0.4363 -0.2723  0.6850
72535SOL    HW129330  11.556   2.183  11.643 -1.9752  3.3574  1.0029
72535SOL    HW229331  11.480   2.063  11.591  2.9348  0.2112  0.3856
72536SOL     OW29332  13.709   1.630  12.241 -0.0401  0.2264 -0.3388
72536SOL    HW129333  13.656   1.550  12.240  0.9377 -0.4321 -0.0255
72536SOL    HW229334  13.702   1.665  12.152  1.8615 -1.7752 -1.3483
72537SOL     OW29335   4.603  10.806   9.518 -0.1468 -0.5714 -0.2451
72537SOL    HW129336   4.666  10.769   9.581  1.3297 -2.1357 -2.4728
72537SOL    HW229337   4.658  10.842   9.448 -1.6772  2.6198  0.0150
72538SOL     OW29338   9.711   6.786   5.091 -0.3134  0.9086  0.1947
72538SOL    HW129339   9.624   6.774   5.052 -0.6279 -0.3492  1.2288
72538SOL    HW229340   9.694   6.807   5.182  0.4685  1.1114  0.3020
72539SOL     OW29341  13.090   0.866  10.419 -0.5131  0.0059  0.1096
72539SOL    HW129342  13.122   0.847  10.507 -0.1280 -1.2361 -0.2673
72539SOL    HW229343  13.004   0.906  10.432 -0.6616 -0.5927  1.0417
72540SOL     OW29344  11.218   6.325   8.650 -0.0475 -0.0646  0.2879
72540SOL    HW129345  11.133   6.289   8.674 -0.7836  0.0529 -1.9113
72540SOL    HW229346  11.264   6.336   8.733 -1.6259 -1.4768  1.4137
72541SOL     OW29347   1.668   6.119   9.940 -0.1501  0.1905 -0.6495
72541SOL    HW129348   1.755   6.156   9.954 -0.2681  0.3506 -0.3378
72541SOL    HW229349   1.608   6.180   9.983 -0.3849 -0.1148 -0.5365
72542SOL     OW29350   2.001  11.664   3.176  0.2736  0.1501 -0.2942
72542SOL    HW129351   1.956  11.748   3.187 -1.2997 -0.7751  0.8767
72542SOL    HW229352   2.065  11.662   3.247 -0.7832 -0.2556  0.6909
72543SOL     OW29353  12.217   1.971   3.119  0.1586  0.1099 -0.2415
72543SOL    HW129354  12.155   2.040   3.094 -0.6141 -0.3892  0.2479
72543SOL    HW229355  12.206   1.963   3.214 -0.0080 -0.9087 -0.3360
72544SOL     OW29356   0.586   5.774   0.242 -0.1668  0.6405 -0.1269
72544SOL    HW129357   0.667   5.802   0.287  0.8756 -2.6444  0.2989
72544SOL    HW229358   0.523   5.761   0.313  0.0427 -0.1410 -0.0784
72545SOL     OW29359   4.563   7.669   5.633 -0.0671 -0.3304 -0.7570
72545SOL    HW129360   4.572   7.575   5.615  0.0068 -0.7179  1.1194
72545SOL    HW229361   4.485   7.675   5.688 -0.5992  0.8434 -1.5885
72546SOL     OW29362   5.739   2.167  12.868 -0.1534  0.1504 -0.9558
72546SOL    HW129363   5.730   2.241  12.929  0.2235 -0.9411  0.4729
72546SOL    HW229364   5.769   2.208  12.786 -1.3410  1.7387 -0.6600
72547SOL     OW29365  10.085   1.253   5.121 -0.4442  0.0272 -0.2189
72547SOL    HW129366  10.138   1.316   5.169 -1.3936  0.4047  0.3615
72547SOL    HW229367  10.127   1.169   5.137 -0.0854  0.3062  0.3299
72548SOL     OW29368   4.738   6.549   7.171  0.4541  0.1523 -0.1514
72548SOL    HW129369   4.793   6.472   7.154  1.1663  0.0868  2.1866
72548SOL    HW229370   4.650   6.522   7.142  1.2060 -0.4714 -2.0135
72549SOL     OW29371   1.022  10.203   0.337  0.2084  0.1862  0.3421
72549SOL    HW129372   0.992  10.173   0.251  1.6054  0.9004 -0.4335
72549SOL    HW229373   1.040  10.296   0.324 -0.7203  0.5998  1.7566
72550SOL     OW29374   4.165   7.461   8.449  0.0720  0.8026  0.3707
72550SOL    HW129375   4.221   7.538   8.440  2.4383 -0.4356  3.0387
72550SOL    HW229376   4.225   7.387   8.445 -2.0064 -0.9242 -1.1356
72551SOL     OW29377   2.499   7.058   4.142  0.0623 -0.6019  0.2098
72551SOL    HW129378   2.454   7.142   4.134  2.1870  0.5818 -0.1404
72551SOL    HW229379   2.472   7.025   4.227 -1.7094 -0.1542 -0.1242
72552SOL     OW29380   4.687   9.728   9.433  0.5753  0.0210  0.1530
72552SOL    HW129381   4.622   9.659   9.423  1.2923 -0.4124 -2.1306
72552SOL    HW229382   4.739   9.702   9.508  0.1284 -1.3464  0.0099
72553SOL     OW29383  10.836   1.969  10.593 -0.4358  0.1680 -0.1305
72553SOL    HW129384  10.756   1.984  10.541 -1.9925 -1.8817  1.5309
72553SOL    HW229385  10.843   2.047  10.648 -0.4731  0.9941 -1.2627
72554SOL     OW29386   1.946   1.060   5.869 -0.0247  0.0629 -0.1790
72554SOL    HW129387   1.889   1.136   5.857  0.7052  0.8960  1.3224
72554SOL    HW229388   2.014   1.070   5.803 -0.4801  0.1713 -0.6367
72555SOL     OW29389   7.214   3.752   1.892  0.2120 -0.1584  0.1152
72555SOL    HW129390   7.145   3.686   1.895 -0.8371  0.8730 -0.5784
72555SOL    HW229391   7.201   3.796   1.808  1.6511  0.1311  0.0221
72556SOL     OW29392   4.763  10.826   8.171 -0.0185 -0.0910  0.5711
72556SOL    HW129393   4.808  10.880   8.106 -0.4117  0.1068  0.4570
72556SOL    HW229394   4.671  10.827   8.143 -0.0699 -0.6161  0.7129
72557SOL     OW29395   0.422   6.647   5.681 -0.1452 -0.4407  0.6179
72557SOL    HW129396   0.376   6.601   5.611  0.2940 -2.3700  1.5308
72557SOL    HW229397   0.355   6.700   5.724 -0.8927 -0.9491  0.0990
72558SOL     OW29398   3.005   0.480   2.811 -0.5386  1.0589 -0.7756
72558SOL    HW129399   2.987   0.435   2.893 -1.6436  1.8772 -0.5366
72558SOL    HW229400   2.923   0.471   2.761  0.4034 -0.2246 -2.1951
72559SOL     OW29401  10.722   8.130   7.664 -0.3153 -0.0766  0.0732
72559SOL    HW129402  10.645   8.114   7.610  0.7402  1.1119 -1.8752
72559SOL    HW229403  10.702   8.211   7.711  0.0604  0.7059 -1.0872
72560SOL     OW29404  12.792   3.248  10.555  0.2212 -0.2520  0.3435
72560SOL    HW129405  12.830   3.169  10.594  1.2124 -0.1034 -0.2717
72560SOL    HW229406  12.752   3.217  10.473 -0.2752 -0.2727  0.5910
72561SOL     OW29407  12.262   1.890   5.030 -0.2173  0.0400 -0.2198
72561SOL    HW129408  12.178   1.923   5.062  0.7969  0.3996  2.2799
72561SOL    HW229409  12.238   1.823   4.966 -2.4388 -0.7569  1.3381
72562SOL     OW29410   1.780   3.093   7.170 -0.3567 -0.4875 -0.5709
72562SOL    HW129411   1.834   3.109   7.247 -0.2537 -1.7910 -0.3470
72562SOL    HW229412   1.720   3.023   7.197 -0.0395 -1.2567 -1.7826
72563SOL     OW29413   7.468  12.590   4.586  0.2785 -0.1568 -0.1127
72563SOL    HW129414   7.446  12.659   4.649 -0.8937 -0.0625 -0.6043
72563SOL    HW229415   7.409  12.604   4.512  2.0334  0.1252 -1.5500
72564SOL     OW29416   3.330   8.428  12.587  0.6488  0.2884 -0.4378
72564SOL    HW129417   3.276   8.497  12.626  0.1883  0.2120 -0.9302
72564SOL    HW229418   3.330   8.358  12.651 -0.4951 -0.0299 -0.7585
72565SOL     OW29419  11.185  12.536   8.300  0.3303 -0.0979 -0.6553
72565SOL    HW129420  11.236  12.475   8.247 -0.2146 -0.5765 -0.6234
72565SOL    HW229421  11.095  12.526   8.270  0.4442  2.0227 -1.9735
72566SOL     OW29422  10.301   0.647   0.164 -0.1234 -0.0457  0.0550
72566SOL    HW129423  10.353   0.659   0.244  2.7567  1.7019 -1.8905
72566SOL    HW229424  10.281   0.553   0.163 -0.5473 -0.0828  2.9219
72567SOL     OW29425   1.083  10.264  10.008 -0.0464  0.5386 -0.3092
72567SOL    HW129426   1.046  10.268   9.920 -0.3198 -0.7328 -0.2651
72567SOL    HW229427   1.176  10.279   9.996 -0.0774  0.3365 -0.8167
72568SOL     OW29428  11.307   2.519   9.777 -0.3364 -0.2365  0.4362
72568SOL    HW129429  11.345   2.478   9.699 -0.6505 -0.7559  0.5473
72568SOL    HW229430  11.354   2.479   9.850  0.0415  0.3384  0.5117
72569SOL     OW29431   9.717   8.542   4.658  0.4860 -0.0896 -0.6361
72569SOL    HW129432   9.799   8.583   4.686 -0.1853  1.3665 -0.6879
72569SOL    HW229433   9.744   8.470   4.602  1.7579 -0.7606  0.7927
72570SOL     OW29434   4.288  12.437  10.834 -0.0235  0.1252 -0.3191
72570SOL    HW129435   4.329  12.514  10.875  0.5969  0.0444 -0.7751
72570SOL    HW229436   4.344  12.364  10.859  1.7017  0.3611 -3.1128
72571SOL     OW29437   7.349  11.778   8.895  0.0591  0.1049 -0.2371
72571SOL    HW129438   7.427  11.829   8.920  0.3007 -0.3023 -0.1488
72571SOL    HW229439   7.380  11.688   8.890 -0.1857  0.0649 -1.1953
72572SOL     OW29440   6.164   7.982   8.590  0.0229  0.5309 -0.1472
72572SOL    HW129441   6.087   7.925   8.588 -0.1387  0.6644  1.1953
72572SOL    HW229442   6.226   7.938   8.647  0.7417  0.6910 -0.7861
72573SOL     OW29443   5.748   5.141   3.016 -0.4352  0.1878  0.2448
72573SOL    HW129444   5.822   5.149   3.076 -1.3186  0.7059  1.2986
72573SOL    HW229445   5.678   5.105   3.070 -1.5477  1.6154 -0.2136
72574SOL     OW29446   6.148   9.117   3.205  0.0657 -0.1037 -0.4068
72574SOL    HW129447   6.081   9.069   3.157 -0.4254  0.9193 -0.7728
72574SOL    HW229448   6.113   9.206   3.212  2.3362  1.0345 -2.5294
72575SOL     OW29449   0.969  13.741   9.205 -0.3057 -0.0388  0.5938
72575SOL    HW129450   1.018  13.824   9.206  0.1526 -0.2294 -1.5477
72575SOL    HW229451   0.877  13.768   9.204 -0.2601  0.7631 -3.9956
72576SOL     OW29452   3.525   9.239   4.633 -0.1231 -0.4897 -0.8983
72576SOL    HW129453   3.579   9.317   4.646 -1.3791  0.0400  1.7893
72576SOL    HW229454   3.586   9.166   4.645  0.5016  0.0827 -0.4445
72577SOL     OW29455  10.572   2.518   2.959  0.3719 -0.6300 -0.4038
72577SOL    HW129456  10.578   2.427   2.988  0.3866 -0.6082 -0.3395
72577SOL    HW229457  10.520   2.514   2.878 -2.4981 -0.3327  1.2812
72578SOL     OW29458   6.641   6.907   5.593  0.2652  0.5323  0.1276
72578SOL    HW129459   6.678   6.944   5.512 -1.1441  1.0703 -0.2924
72578SOL    HW229460   6.718   6.875   5.641  1.1684  0.5049 -1.2588
72579SOL     OW29461   2.035   6.253  11.595 -0.1226 -0.2058  0.2291
72579SOL    HW129462   1.948   6.279  11.625  0.2437  1.4975 -0.0404
72579SOL    HW229463   2.081   6.336  11.581  1.2486 -1.0458 -0.5034
72580SOL     OW29464   6.035   1.363   5.980  0.0258  0.2381 -0.3405
72580SOL    HW129465   6.028   1.433   5.915  0.4055  0.1830 -0.4407
72580SOL    HW229466   5.997   1.286   5.937 -1.2766  0.6003  0.1083
72581SOL     OW29467  10.115   8.067   7.892  0.6542 -0.0465 -0.2916
72581SOL    HW129468  10.181   8.038   7.955 -0.7639 -0.9240  0.8680
72581SOL    HW229469  10.087   7.987   7.848 -0.0054  0.2284 -0.3880
72582SOL     OW29470  13.107   9.512   2.062 -0.1138  0.1415 -0.4863
72582SOL    HW129471  13.027   9.495   2.111  1.0519 -0.6546  1.2336
72582SOL    HW229472  13.099   9.459   1.983 -2.0228  1.4434 -1.2384
72583SOL     OW29473   6.760   4.678   7.657  0.3617  0.4889  0.7672
72583SOL    HW129474   6.734   4.701   7.568  2.5134  0.8874  0.1875
72583SOL    HW229475   6.721   4.746   7.712 -1.8349 -0.3058  0.3361
72584SOL     OW29476  10.988  13.668  11.714 -0.0573  0.1134  0.0694
72584SOL    HW129477  10.899  13.666  11.677 -1.0695  1.6614  2.2542
72584SOL    HW229478  10.991  13.591  11.771  0.2584 -0.2923 -0.4823
72585SOL     OW29479   1.706  12.979   8.483  0.4389 -0.3361 -0.5172
72585SOL    HW129480   1.631  12.977   8.423  1.1833 -0.9131 -1.4549
72585SOL    HW229481   1.703  13.066   8.523 -0.2970 -0.0835 -1.1019
72586SOL     OW29482   7.216   5.540  10.787 -0.5616 -0.0131  0.5644
72586SOL    HW129483   7.154   5.565  10.856  0.7445 -0.4397  1.9521
72586SOL    HW229484   7.180   5.459  10.750 -0.9210 -0.1664  1.2419
72587SOL     OW29485   1.534   2.658  11.161 -0.0715  0.4638  0.3573
72587SOL    HW129486   1.559   2.581  11.109  0.2324  1.5471 -1.1684
72587SOL    HW229487   1.491   2.716  11.099  0.6298  1.9800  1.2277
72588SOL     OW29488  12.968   4.886   4.998 -0.1302  0.6553 -0.2729
72588SOL    HW129489  12.965   4.939   5.078 -0.0108  0.2289  0.0181
72588SOL    HW229490  13.038   4.925   4.946  2.0060 -0.9657  1.2007
72589SOL     OW29491   6.955  11.592   7.566  0.3956 -0.7275 -0.8212
72589SOL    HW129492   6.933  11.543   7.645 -0.1720  0.1998 -0.3999
72589SOL    HW229493   6.885  11.571   7.505  1.4658 -2.4251 -1.5516
72590SOL     OW29494   3.696   7.797   4.834 -0.4872 -0.4497 -0.1264
72590SOL    HW129495   3.694   7.706   4.807 -1.0830 -1.0399  1.7359
72590SOL    HW229496   3.688   7.847   4.753 -1.1358 -2.0526 -1.0858
72591SOL     OW29497   8.002  10.152  10.071  0.0808 -0.0500 -0.3353
72591SOL    HW129498   7.920  10.112  10.043  0.0664 -0.3131  0.0846
72591SOL    HW229499   7.976  10.228  10.123  0.0898 -0.5400  0.4015
72592SOL     OW29500   7.992   8.767   2.466 -0.0541 -0.0177 -0.1850
72592SOL    HW129501   7.943   8.789   2.387  1.0811  0.1451 -0.8670
72592SOL    HW229502   8.083   8.786   2.444  0.7252 -2.9197  0.0477
72593SOL     OW29503   2.454   3.663  13.610 -0.2774  0.2397 -0.0406
72593SOL    HW129504   2.413   3.692  13.692 -1.2569 -0.0607 -0.4013
72593SOL    HW229505   2.537   3.625  13.637 -0.8331 -0.3680  0.8977
72594SOL     OW29506   3.592  10.690   2.224 -0.1079 -0.1396  0.6629
72594SOL    HW129507   3.533  10.764   2.209  2.4739  2.1787  1.1392
72594SOL    HW229508   3.613  10.659   2.136 -1.4823 -0.6231  0.4716
72595SOL     OW29509   3.801  11.533   1.122 -0.0151  0.1479 -0.8690
72595SOL    HW129510   3.831  11.569   1.205  1.1728 -2.6700  0.0660
72595SOL    HW229511   3.707  11.518   1.135  0.0819  0.1174 -0.1510
72596SOL     OW29512   3.490   7.250   3.952  0.0495 -0.0457  0.4513
72596SOL    HW129513   3.505   7.286   3.865  0.0506 -0.5065  0.2570
72596SOL    HW229514   3.578   7.235   3.987  0.0878 -1.5537 -0.1893
72597SOL     OW29515   1.101  13.640   7.972  0.0444 -0.2558 -0.3847
72597SOL    HW129516   1.105  13.549   7.942  0.2320 -1.2052  2.2654
72597SOL    HW229517   1.107  13.634   8.067  1.4630  2.6566 -0.1983
72598SOL     OW29518  13.231   1.383  13.034  0.6742 -0.1338  0.1857
72598SOL    HW129519  13.137   1.371  13.042  0.3976  1.0606 -1.0485
72598SOL    HW229520  13.259   1.414  13.120 -0.1602  0.1253  0.3709
72599SOL     OW29521   7.860   9.309   3.798  0.0042 -0.0071  0.4779
72599SOL    HW129522   7.832   9.320   3.889 -0.6223 -0.2679  0.3228
72599SOL    HW229523   7.782   9.277   3.752  0.0195  1.1019 -0.3645
72600SOL     OW29524  13.540   1.678  11.460 -0.5717 -0.1801 -0.8196
72600SOL    HW129525  13.566   1.767  11.483 -0.3383 -0.4993  0.1963
72600SOL    HW229526  13.622   1.632  11.444 -0.5148 -0.8432  1.1072
72601SOL     OW29527   8.113  11.170  13.226 -0.3458 -0.0496 -0.2956
72601SOL    HW129528   8.146  11.259  13.219 -0.6829  0.3195  2.0482
72601SOL    HW229529   8.186  11.115  13.197  0.7656  0.9173  0.5661
72602SOL     OW29530   4.541   0.080  12.776 -0.3916  0.0727 -0.6230
72602SOL    HW129531   4.631   0.086  12.807 -0.8471 -0.7873  1.0059
72602SOL    HW229532   4.526  -0.014  12.763 -0.5631  0.3354 -2.4809
72603SOL     OW29533   3.992  10.188   2.948 -0.4202 -0.4715 -0.1436
72603SOL    HW129534   4.053  10.257   2.924  0.4357 -1.3731 -0.6170
72603SOL    HW229535   3.937  10.177   2.870  0.6425 -1.5691 -0.7738
72604SOL     OW29536   5.223   9.227   4.375 -0.0405  0.0376 -0.0149
72604SOL    HW129537   5.207   9.224   4.281 -0.6559 -3.7684  0.0701
72604SOL    HW229538   5.140   9.256   4.413  0.1395  1.3564 -0.5817
72605SOL     OW29539   3.509   7.108   7.680 -0.0296 -0.0459 -0.1593
72605SOL    HW129540   3.562   7.083   7.604  0.8746 -0.2781  0.5335
72605SOL    HW229541   3.537   7.198   7.700  0.8634 -0.5092  0.8107
72606SOL     OW29542  13.111   7.570  12.602 -0.0362  0.1192  0.3693
72606SOL    HW129543  13.046   7.606  12.542 -0.3143 -2.4396 -1.0231
72606SOL    HW229544  13.060   7.543  12.679 -0.8119 -2.2026 -0.8612
72607SOL     OW29545   4.887   0.441  11.050  0.4298 -0.1877  0.1750
72607SOL    HW129546   4.938   0.427  10.970 -1.2764  0.8879 -1.1546
72607SOL    HW229547   4.944   0.495  11.104  2.2379 -2.1685  0.4181
72608SOL     OW29548   2.214   3.787   7.421 -0.2123 -0.0186 -0.0307
72608SOL    HW129549   2.157   3.721   7.380 -1.7903  1.5329 -0.4723
72608SOL    HW229550   2.254   3.741   7.494 -2.2515 -1.1590  0.4603
72609SOL     OW29551   7.418  12.082  11.627 -0.4605  0.3593  0.3572
72609SOL    HW129552   7.393  12.029  11.703 -1.0805  0.1461  0.0127
72609SOL    HW229553   7.371  12.041  11.554 -1.8183  2.0233  0.2375
72610SOL     OW29554  12.398   2.234  13.469  0.5084 -0.2310  0.0991
72610SOL    HW129555  12.349   2.246  13.387  0.4839  1.7049  0.3504
72610SOL    HW229556  12.358   2.156  13.509 -1.7466  0.6839 -0.1778
72611SOL     OW29557   2.959   7.830  12.371  0.1500 -0.4516 -0.1409
72611SOL    HW129558   2.892   7.798  12.311 -0.1830 -0.8152  0.4242
72611SOL    HW229559   2.961   7.925  12.356 -0.0352 -0.5216 -0.6147
72612SOL     OW29560   4.490  11.195   6.341 -0.3769  0.4339 -0.1137
72612SOL    HW129561   4.398  11.176   6.323 -0.8228  2.0254  0.3020
72612SOL    HW229562   4.530  11.109   6.354 -2.1595 -0.2317  1.4216
72613SOL     OW29563   0.773   1.466   6.135  0.4859  0.1690 -0.5550
72613SOL    HW129564   0.715   1.484   6.060 -1.2601  0.9156  0.9122
72613SOL    HW229565   0.805   1.377   6.119 -2.3392 -0.9437 -0.7041
72614SOL     OW29566   4.258   8.458  11.902 -0.9773 -0.0849  0.0529
72614SOL    HW129567   4.304   8.507  11.970  2.8252 -0.0291 -2.3277
72614SOL    HW229568   4.200   8.522  11.861 -0.6721  0.7682  0.9205
72615SOL     OW29569  11.032   2.358  12.557 -0.3698  0.0907 -0.1994
72615SOL    HW129570  11.103   2.303  12.523 -0.2517  0.3661 -0.3999
72615SOL    HW229571  10.954   2.304  12.548 -0.8702  1.1504 -3.6233
72616SOL     OW29572   4.023  11.831  12.056 -0.2467  0.0339 -0.1665
72616SOL    HW129573   3.937  11.862  12.026  0.1237 -0.6970 -2.1049
72616SOL    HW229574   4.048  11.764  11.993  0.0799 -2.5575  2.5061
72617SOL     OW29575  10.108  11.595   7.382 -0.5693 -0.4606  0.0770
72617SOL    HW129576  10.065  11.511   7.372  0.2181 -0.7067 -1.5777
72617SOL    HW229577  10.037  11.656   7.402 -1.1611 -1.4622  1.1659
72618SOL     OW29578  10.253   5.809   5.516 -0.4225  0.5626  0.2402
72618SOL    HW129579  10.250   5.729   5.568 -0.5936  0.1367 -0.4108
72618SOL    HW229580  10.331   5.799   5.461 -1.3820  0.0360 -1.0841
72619SOL     OW29581   7.130  10.557  11.805  0.4644 -0.1255  0.5678
72619SOL    HW129582   7.182  10.552  11.885  0.2236  2.0193  0.9270
72619SOL    HW229583   7.046  10.516  11.829  0.8040 -0.5644  1.0320
72620SOL     OW29584   5.945  11.683  13.504 -0.1191 -0.2954 -0.2331
72620SOL    HW129585   5.866  11.632  13.522 -0.5001  0.2702 -0.2550
72620SOL    HW229586   5.920  11.773  13.525  0.5296 -0.1135 -0.2211
72621SOL     OW29587   1.562   7.752  10.409 -0.3443 -0.0835 -0.8065
72621SOL    HW129588   1.654   7.738  10.429 -0.5636  0.1220  0.4667
72621SOL    HW229589   1.523   7.665  10.417 -0.7498  0.2378  1.6760
72622SOL     OW29590   9.944  11.130   7.505 -0.1704  0.3419  0.2469
72622SOL    HW129591   9.889  11.108   7.430 -0.1973 -1.0153  0.6318
72622SOL    HW229592   9.889  11.114   7.582 -0.4588  2.6056  0.5793
72623SOL     OW29593  12.775   3.156   5.956  0.0427 -0.0808 -0.1359
72623SOL    HW129594  12.844   3.166   6.021  0.1635 -1.5192  0.0023
72623SOL    HW229595  12.822   3.146   5.873  0.0100 -0.6767 -0.0927
72624SOL     OW29596   2.895   7.940   9.388  0.4714 -0.1867  0.1197
72624SOL    HW129597   2.962   7.921   9.454 -0.5767  2.3771  2.1198
72624SOL    HW229598   2.918   8.027   9.355 -0.8165 -0.0781 -0.5392
72625SOL     OW29599  12.171   5.790   6.081 -0.0346  0.1246 -0.5868
72625SOL    HW129600  12.218   5.743   6.150 -2.0296  0.0511  0.7920
72625SOL    HW229601  12.238   5.808   6.015  1.3404 -2.3648  0.0112
72626SOL     OW29602  12.840  11.757   7.658  0.5403 -0.4790  0.1482
72626SOL    HW129603  12.866  11.783   7.570  0.4736 -0.6653  0.0736
72626SOL    HW229604  12.922  11.737   7.703  0.4917 -1.9421 -0.3568
72627SOL     OW29605   3.729   1.206   7.870  0.2950  0.0538 -0.3183
72627SOL    HW129606   3.709   1.228   7.778  0.1069 -2.6115 -0.9807
72627SOL    HW229607   3.823   1.222   7.878  0.5481 -0.7539 -1.3458
72628SOL     OW29608  10.250   3.887   2.531  0.1580  0.0499 -0.7310
72628SOL    HW129609  10.328   3.844   2.496  1.4498  0.3986  1.5209
72628SOL    HW229610  10.257   3.978   2.502 -0.2069 -0.2154 -1.7132
72629SOL     OW29611   3.748   7.858   4.505  1.5640 -0.1238  0.0117
72629SOL    HW129612   3.764   7.940   4.552  1.5916 -0.9185  1.4821
72629SOL    HW229613   3.654   7.843   4.516  1.7581 -0.8587  0.7856
72630SOL     OW29614   1.077   7.316  11.407  0.3384 -0.0052  0.0752
72630SOL    HW129615   0.991   7.277  11.395 -0.3826  1.3846  0.4959
72630SOL    HW229616   1.135   7.242  11.424 -0.6771 -1.0035 -0.6596
72631SOL     OW29617   0.993   8.806  10.266 -0.4063 -0.5042  0.5512
72631SOL    HW129618   0.924   8.865  10.296  0.0786 -0.4734  1.6453
72631SOL    HW229619   1.011   8.749  10.341  3.3770  1.9024  1.7503
72632SOL     OW29620   0.495   4.598   3.842 -1.0306 -0.4896 -0.0065
72632SOL    HW129621   0.439   4.632   3.912 -0.1537 -1.8082  1.3993
72632SOL    HW229622   0.488   4.663   3.772 -0.6598  1.7597  1.9309
72633SOL     OW29623   2.758   9.869   1.896 -0.3036  0.2209  0.1050
72633SOL    HW129624   2.668   9.857   1.926 -0.6116  0.0638 -0.8434
72633SOL    HW229625   2.810   9.813   1.953 -0.7309  0.7283  1.0157
72634SOL     OW29626   2.160   6.508   5.434 -0.3073  0.0566  0.1825
72634SOL    HW129627   2.169   6.516   5.529 -1.5240  2.4029  0.1688
72634SOL    HW229628   2.073   6.470   5.422  0.0135 -0.6299 -0.0048
72635SOL     OW29629  11.953   0.436   1.239  0.0119 -0.0217  0.4722
72635SOL    HW129630  11.930   0.397   1.154 -1.7354  0.3977  0.7120
72635SOL    HW229631  12.047   0.420   1.248 -0.1285 -1.7683 -0.6679
72636SOL     OW29632   5.545   3.577   9.657  0.1512 -0.3950 -0.5398
72636SOL    HW129633   5.582   3.626   9.584 -2.8469  2.5729 -0.3089
72636SOL    HW229634   5.473   3.528   9.617 -0.3518 -0.2033  0.1245
72637SOL     OW29635   2.020   4.335  13.132  0.1755  0.0951 -0.5395
72637SOL    HW129636   2.085   4.266  13.119  1.1247  0.8233  0.1221
72637SOL    HW229637   2.061   4.394  13.195 -1.4046  0.2466  0.4005
72638SOL     OW29638   0.777   3.080   3.584  0.1255  0.6070  0.6792
72638SOL    HW129639   0.824   3.132   3.520  2.2253 -0.0800  1.5713
72638SOL    HW229640   0.845   3.027   3.627 -1.3462  0.1607  2.6189
72639SOL     OW29641   7.427   6.364  10.652 -0.1916  0.1583 -0.0664
72639SOL    HW129642   7.397   6.323  10.571  1.5664 -1.0598 -0.1468
72639SOL    HW229643   7.367   6.332  10.719 -0.9717  0.2904 -0.6779
72640SOL     OW29644   4.130  12.200   9.170 -0.2961 -0.1573  0.1141
72640SOL    HW129645   4.043  12.239   9.168  0.1888  1.0681  1.0937
72640SOL    HW229646   4.122  12.127   9.231 -0.1037  1.5153  2.2784
72641SOL     OW29647   4.007  11.444   0.543  0.2602  0.6127  0.3602
72641SOL    HW129648   4.084  11.474   0.591 -0.2464  0.2465  1.4445
72641SOL    HW229649   4.003  11.500   0.466  0.3849  2.0991  1.3809
72642SOL     OW29650   0.197   9.504  11.799 -0.3222 -0.2892 -0.2432
72642SOL    HW129651   0.241   9.589  11.800  0.8004 -0.8438 -0.3214
72642SOL    HW229652   0.141   9.504  11.876  0.2232  0.2417  0.1622
72643SOL     OW29653   1.202   6.762   4.599  0.3128  0.3791 -0.1293
72643SOL    HW129654   1.159   6.797   4.521  1.1675  0.2284 -0.6822
72643SOL    HW229655   1.142   6.783   4.671 -0.6185  0.2763 -0.8534
72644SOL     OW29656   5.246   9.853  13.352 -0.0132  0.2792  0.1980
72644SOL    HW129657   5.168   9.883  13.305 -0.0034 -1.1173 -0.7523
72644SOL    HW229658   5.319   9.880  13.297  0.4071  3.4954  2.0980
72645SOL     OW29659   9.442  10.948   2.915 -0.4179  0.6533 -0.0651
72645SOL    HW129660   9.532  10.974   2.897  0.1529  0.1400  1.8485
72645SOL    HW229661   9.397  11.030   2.936 -0.0248  0.7415  0.4396
72646SOL     OW29662  10.257   3.489   4.245  0.1398 -0.5300  0.5025
72646SOL    HW129663  10.325   3.436   4.287  1.4751  0.6155 -0.1345
72646SOL    HW229664  10.187   3.427   4.226  1.4026 -1.9548  0.2966
72647SOL     OW29665   7.429   3.847   1.473  0.6040 -0.1058 -0.6299
72647SOL    HW129666   7.430   3.762   1.429 -0.9594 -1.1774  1.2215
72647SOL    HW229667   7.445   3.826   1.565 -2.5006  1.2013  0.3349
72648SOL     OW29668  13.065  13.340   6.596  0.2913  0.2191 -0.6292
72648SOL    HW129669  12.999  13.302   6.538  0.2347 -0.3899 -0.1675
72648SOL    HW229670  13.072  13.431   6.567  0.9849 -0.3015 -2.2554
72649SOL     OW29671   8.661  10.849   7.766 -0.2047 -0.2915 -0.2052
72649SOL    HW129672   8.676  10.761   7.733 -0.2306 -0.1935 -0.4822
72649SOL    HW229673   8.620  10.836   7.852  3.3429 -0.6166  1.6016
72650SOL     OW29674   2.556   9.100   3.909  0.0517  0.3025 -0.1162
72650SOL    HW129675   2.485   9.165   3.906  1.3306  1.8354  1.1113
72650SOL    HW229676   2.609   9.120   3.832  0.4048  0.6903  0.2219
72651SOL     OW29677   8.996  12.128  11.031 -0.1042  0.0859  0.2205
72651SOL    HW129678   8.947  12.196  11.078  0.0624  0.0664  0.4224
72651SOL    HW229679   9.081  12.126  11.075  0.0083 -0.0141 -0.0076
72652SOL     OW29680   8.983   6.512   9.917  0.4370  0.4844  0.1617
72652SOL    HW129681   8.949   6.526  10.005  0.4430 -0.8282  0.3865
72652SOL    HW229682   9.004   6.600   9.885 -0.0142  1.0127  1.2810
72653SOL     OW29683   0.742   7.995   6.544 -0.6881 -0.0834  0.0853
72653SOL    HW129684   0.653   8.028   6.557 -0.0313  1.2433  1.5386
72653SOL    HW229685   0.792   8.071   6.516  0.4518 -0.2428  1.5480
72654SOL     OW29686   8.061   1.095   4.847  0.0961  0.4746  0.3371
72654SOL    HW129687   8.152   1.067   4.847  0.4096  1.4697  0.4348
72654SOL    HW229688   8.013   1.020   4.880  0.5589 -1.0812 -2.2360
72655SOL     OW29689   0.980   9.725   2.425 -0.0375 -0.0597 -0.0635
72655SOL    HW129690   0.930   9.795   2.466  0.3598 -0.1088  0.5307
72655SOL    HW229691   0.984   9.748   2.332 -3.1869 -1.2733 -0.6117
72656SOL     OW29692  13.643  13.168   2.633  0.2338  0.3347  0.0313
72656SOL    HW129693  13.735  13.172   2.659  0.4573  0.4070 -0.7502
72656SOL    HW229694  13.603  13.242   2.677  0.3923 -0.1180  0.9617
72657SOL     OW29695  10.806   3.762   1.854 -0.4866  0.0034 -0.2512
72657SOL    HW129696  10.729   3.811   1.827 -0.5830  0.7863  1.3015
72657SOL    HW229697  10.777   3.671   1.858 -1.3359  0.2862  0.2838
72658SOL     OW29698   0.181  13.241   5.126  0.0073  0.2955 -0.1893
72658SOL    HW129699   0.245  13.278   5.065 -0.5472 -0.4787 -1.2782
72658SOL    HW229700   0.126  13.315   5.151  1.5844  1.0801  1.1457
72659SOL     OW29701  11.438   5.917   0.699 -0.6300 -0.0056  0.3528
72659SOL    HW129702  11.403   6.003   0.722  1.3668  0.7361  0.8115
72659SOL    HW229703  11.500   5.934   0.628  1.0184 -0.7683  1.5245
72660SOL     OW29704   3.856  13.269   4.466 -0.5905 -0.2636  0.3380
72660SOL    HW129705   3.770  13.254   4.426  0.0169  0.2387 -1.2456
72660SOL    HW229706   3.839  13.331   4.536 -1.4921  0.0028 -0.0975
72661SOL     OW29707   2.676  10.561   0.744  0.2168  0.6374 -0.1151
72661SOL    HW129708   2.680  10.467   0.762 -1.2991  0.5517 -0.0963
72661SOL    HW229709   2.737  10.574   0.671  0.2908 -0.3887 -0.2488
72662SOL     OW29710  13.562   6.084  10.339  0.1697 -0.1923  0.1634
72662SOL    HW129711  13.550   6.148  10.269  1.6366 -0.2919 -0.2154
72662SOL    HW229712  13.641   6.113  10.385  0.6352 -1.4995  0.2278
72663SOL     OW29713  11.590   9.739   0.375 -0.4512 -0.4503 -0.0237
72663SOL    HW129714  11.671   9.691   0.393 -0.7969 -0.8440  0.5003
72663SOL    HW229715  11.607   9.827   0.408  0.9645  0.4534 -2.8890
72664SOL     OW29716   1.864  11.167   1.885  0.1312 -0.4265 -0.5726
72664SOL    HW129717   1.829  11.090   1.930  2.9464 -1.4669  0.1139
72664SOL    HW229718   1.884  11.229   1.954 -0.4452  0.1706 -0.9391
72665SOL     OW29719   9.858  12.177  10.721  0.0363 -0.3881  0.2379
72665SOL    HW129720   9.906  12.152  10.642  0.0990 -2.0955  0.7853
72665SOL    HW229721   9.772  12.136  10.710 -0.8221  1.3651 -0.0224
72666SOL     OW29722  13.313  10.681   8.446 -0.2179  0.4174  0.4220
72666SOL    HW129723  13.289  10.595   8.481  0.3257  0.2601  0.4225
72666SOL    HW229724  13.265  10.688   8.364  0.3575 -0.2278  0.0240
72667SOL     OW29725   9.379  10.483  11.652  1.0212 -0.6525 -0.3926
72667SOL    HW129726   9.390  10.531  11.734  0.1005 -0.7635 -0.1886
72667SOL    HW229727   9.391  10.391  11.677 -0.7057 -0.8233 -0.0629
72668SOL     OW29728   8.464   9.161   6.243 -0.3868  0.3148 -0.0555
72668SOL    HW129729   8.399   9.140   6.177 -0.7953  0.9777  0.1243
72668SOL    HW229730   8.486   9.077   6.283 -1.8777  0.1982  0.5599
72669SOL     OW29731   2.659   5.620  12.689  0.2860 -0.4423  0.2008
72669SOL    HW129732   2.666   5.715  12.681  1.7489 -0.4639  0.8246
72669SOL    HW229733   2.645   5.589  12.599 -3.6718  0.5132  0.3353
72670SOL     OW29734   1.398   6.988   1.709  0.1379  0.0799 -0.2930
72670SOL    HW129735   1.353   6.904   1.722 -0.6370  0.6042  0.4748
72670SOL    HW229736   1.389   7.033   1.792  0.4025  1.0124 -0.7602
72671SOL     OW29737   9.628  13.643  11.594  0.1354  0.0950  0.0968
72671SOL    HW129738   9.680  13.619  11.671 -1.1167  0.5191  1.1233
72671SOL    HW229739   9.626  13.563  11.541 -0.3895 -0.7637  1.3480
72672SOL     OW29740   0.906   2.885   9.512 -0.1425  0.0219  0.6688
72672SOL    HW129741   0.891   2.795   9.541  1.1421 -0.4703 -0.1395
72672SOL    HW229742   0.972   2.878   9.444 -3.5594  1.0210 -3.1713
72673SOL     OW29743   6.957   8.873   0.502 -0.6427  0.4900  0.0390
72673SOL    HW129744   7.034   8.860   0.447 -0.2441 -0.7863  0.8798
72673SOL    HW229745   6.978   8.949   0.556  0.6967 -0.7337  1.3383
72674SOL     OW29746   3.646  11.398   4.985 -0.7902 -0.4570 -0.0155
72674SOL    HW129747   3.702  11.463   5.029  1.6442 -0.3242 -2.9888
72674SOL    HW229748   3.689  11.314   5.000 -0.5029 -0.5401 -1.2061
72675SOL     OW29749  11.018   3.010   8.307 -0.0851 -0.3007  0.0825
72675SOL    HW129750  10.997   3.104   8.299  0.2192 -0.3120 -1.0798
72675SOL    HW229751  11.067   3.004   8.389 -0.8986  0.4103  0.6397
72676SOL     OW29752   9.339  11.601  10.560 -0.8191  0.4690  0.9543
72676SOL    HW129753   9.269  11.666  10.560 -2.1007 -0.8421  0.0586
72676SOL    HW229754   9.324  11.550  10.481  0.7304 -0.3219  1.1327
72677SOL     OW29755   9.687   6.505  10.619 -0.0866  0.1168 -0.6098
72677SOL    HW129756   9.650   6.537  10.536  2.7434  1.0743 -1.6185
72677SOL    HW229757   9.698   6.411  10.605 -2.0369 -0.2153 -0.2529
72678SOL     OW29758   4.467   0.459   8.026  0.7785 -0.3933 -0.0525
72678SOL    HW129759   4.504   0.532   8.074  0.5880  0.1351 -0.7031
72678SOL    HW229760   4.375   0.481   8.015  0.5556 -1.0671  0.3689
72679SOL     OW29761  12.206   2.953   7.514  0.0933 -0.7915 -0.4489
72679SOL    HW129762  12.159   2.903   7.447  1.8969 -0.2513 -2.2032
72679SOL    HW229763  12.205   2.896   7.591 -0.8936 -2.0220 -1.3239
72680SOL     OW29764   5.397  12.856   2.481  0.2722 -0.2517 -0.0127
72680SOL    HW129765   5.444  12.806   2.548 -1.1594  0.5036  1.6421
72680SOL    HW229766   5.312  12.812   2.474 -0.8434  1.5713  1.1393
72681SOL     OW29767  10.044  12.539   1.905  0.0807  0.7893  0.1177
72681SOL    HW129768   9.988  12.561   1.980  0.2145  1.2143  0.0939
72681SOL    HW229769  10.069  12.624   1.869  0.6559  0.5962  0.0655
72682SOL     OW29770   9.252   5.986   3.358  0.7799  0.1421  1.2034
72682SOL    HW129771   9.230   6.059   3.416 -0.1378  0.3824  0.5819
72682SOL    HW229772   9.188   5.918   3.380 -0.3287  0.6516 -0.2727
72683SOL     OW29773   3.498   9.216  11.119 -0.0847 -0.1348 -0.1674
72683SOL    HW129774   3.475   9.154  11.049  3.3793  1.0897 -2.7051
72683SOL    HW229775   3.467   9.301  11.087  0.8592  0.3333  0.1150
72684SOL     OW29776   0.844   1.210   1.981 -0.3636 -0.4896  0.2518
72684SOL    HW129777   0.825   1.302   2.000  0.6767 -0.0025 -0.8596
72684SOL    HW229778   0.803   1.161   2.052 -0.9511  0.8353  0.8576
72685SOL     OW29779   9.420   1.308   1.673 -0.1232 -0.1231  0.3547
72685SOL    HW129780   9.428   1.389   1.623 -1.3552 -0.1504  0.0600
72685SOL    HW229781   9.327   1.304   1.698 -0.4086 -2.0411 -0.7422
72686SOL     OW29782   8.383   1.226   3.239  0.6589  0.0308  0.3350
72686SOL    HW129783   8.317   1.164   3.270  1.2303  0.1727  1.8922
72686SOL    HW229784   8.450   1.170   3.199 -0.8446 -0.0622 -2.3277
72687SOL     OW29785   7.912   8.138  12.913 -0.2209  0.4251 -0.2302
72687SOL    HW129786   7.867   8.054  12.920 -1.5421  1.1919  1.2668
72687SOL    HW229787   7.865   8.185  12.844 -0.3831  0.4453 -0.1063
72688SOL     OW29788   7.396  10.424   7.841  0.0378 -0.1616  0.1901
72688SOL    HW129789   7.470  10.371   7.811 -0.1999 -0.7011  0.5532
72688SOL    HW229790   7.362  10.378   7.917  0.0755  0.7196  0.7635
72689SOL     OW29791  13.319  10.530   7.366  0.7041 -0.2667 -0.3874
72689SOL    HW129792  13.273  10.554   7.285  0.9057 -0.2049 -0.4842
72689SOL    HW229793  13.408  10.511   7.338  1.4927  2.2299  0.1248
72690SOL     OW29794   6.863   1.577   6.229  0.6969 -0.6721 -0.3392
72690SOL    HW129795   6.956   1.592   6.244  0.4085  0.2882  0.6647
72690SOL    HW229796   6.847   1.489   6.264  1.0099 -0.3703  0.6048
72691SOL     OW29797   2.106   0.163   4.968  0.0278 -0.1182 -0.2199
72691SOL    HW129798   2.182   0.107   4.983 -0.0372 -0.4888 -1.1919
72691SOL    HW229799   2.031   0.111   4.997  0.1859  0.5852  1.5831
72692SOL     OW29800  12.762   8.466   3.426 -0.2060 -0.0959 -0.3487
72692SOL    HW129801  12.800   8.479   3.339  1.5574  0.0052  0.3908
72692SOL    HW229802  12.805   8.387   3.458 -1.6769 -0.7762  0.0141
72693SOL     OW29803   6.874  11.029   2.524  0.7009  0.4923 -0.0720
72693SOL    HW129804   6.891  11.074   2.607  1.8734  0.3517 -0.2271
72693SOL    HW229805   6.843  11.099   2.466  2.6315  1.1822 -0.3516
72694SOL     OW29806   0.522  12.719   8.599 -0.4463 -0.3483 -0.2470
72694SOL    HW129807   0.469  12.655   8.552 -0.8614 -0.3569  0.2255
72694SOL    HW229808   0.461  12.761   8.659 -0.8249  2.3614 -2.3390
72695SOL     OW29809  11.608  10.202   2.179  0.2382 -0.1521 -0.1783
72695SOL    HW129810  11.617  10.110   2.155  0.4735 -0.0257 -0.5888
72695SOL    HW229811  11.668  10.214   2.253  0.9561 -0.1029 -0.7560
72696SOL     OW29812   0.861  13.171   5.916 -0.4450  0.1952 -0.5081
72696SOL    HW129813   0.944  13.188   5.870  0.3695  0.2136  0.9262
72696SOL    HW229814   0.807  13.125   5.851  0.7718 -0.0306 -1.3975
72697SOL     OW29815   4.150   5.962  13.262  0.2766  0.2573  0.1682
72697SOL    HW129816   4.068   5.917  13.241  0.3759  0.5398 -0.8852
72697SOL    HW229817   4.127   6.020  13.335 -0.2655 -0.2521  0.4065
72698SOL     OW29818   6.690   2.286   6.695  0.0284 -0.3416 -0.1674
72698SOL    HW129819   6.747   2.210   6.682 -0.5575 -0.6834 -0.7583
72698SOL    HW229820   6.610   2.265   6.646 -0.3687  0.3968  0.1553
72699SOL     OW29821   7.556   3.852  13.356  0.2425 -0.8929  0.0409
72699SOL    HW129822   7.611   3.783  13.394  0.4401 -0.2155  1.0043
72699SOL    HW229823   7.521   3.900  13.431 -0.3829 -0.3152 -0.6037
72700SOL     OW29824   7.162   0.659  10.630 -0.3824 -0.5876 -0.2015
72700SOL    HW129825   7.233   0.624  10.576 -0.4812  0.2215 -0.8763
72700SOL    HW229826   7.206   0.708  10.699 -0.2728 -0.6733 -0.2108
72701SOL     OW29827   4.855  13.471   2.924  0.4906  0.5299  0.3032
72701SOL    HW129828   4.765  13.492   2.948  0.3229  1.7233 -1.2141
72701SOL    HW229829   4.848  13.425   2.841  1.3094  1.4139 -0.2797
72702SOL     OW29830   7.088   0.090  10.345  0.0000 -0.2973  0.0929
72702SOL    HW129831   7.068  -0.002  10.332  0.8598 -0.3476 -1.0212
72702SOL    HW229832   7.170   0.091  10.394  0.2584 -0.1376 -0.3335
72703SOL     OW29833   3.368  13.350   8.339  0.8608  0.1727 -0.2094
72703SOL    HW129834   3.284  13.383   8.307 -0.5162 -2.2946  0.6201
72703SOL    HW229835   3.372  13.378   8.430  0.7114 -0.1019 -0.1174
72704SOL     OW29836   2.448   0.443   8.894 -0.5584 -0.3871  0.0746
72704SOL    HW129837   2.353   0.451   8.904 -0.5159  0.2432  0.0074
72704SOL    HW229838   2.484   0.517   8.944 -0.1488 -0.0811 -0.6552
72705SOL     OW29839   8.911   3.139   9.900  0.8024  0.2209  1.0263
72705SOL    HW129840   8.975   3.209   9.915  0.6145  0.8253 -0.7860
72705SOL    HW229841   8.826   3.182   9.909  0.6851  0.3740 -0.5533
72706SOL     OW29842  13.490  12.672  11.103 -0.1684 -0.9286 -0.4621
72706SOL    HW129843  13.570  12.712  11.135  1.5945 -2.1345 -3.0837
72706SOL    HW229844  13.420  12.715  11.154  1.9696  1.1678  0.9186
72707SOL     OW29845   0.461   8.826  12.023  0.6465 -0.0986 -0.1510
72707SOL    HW129846   0.469   8.785  11.937 -0.0671  0.1352 -0.3376
72707SOL    HW229847   0.535   8.887  12.027 -0.6031  1.6496 -1.6065
72708SOL     OW29848  10.245   5.934  12.720  0.3875  0.0043 -0.1147
72708SOL    HW129849  10.177   5.877  12.756  0.0377  0.2378 -0.3902
72708SOL    HW229850  10.211   6.023  12.734 -0.7166  0.0978 -2.7751
72709SOL     OW29851   4.205  12.794   8.272 -0.2088 -0.3610 -0.3117
72709SOL    HW129852   4.258  12.838   8.338 -0.4128 -0.1630 -0.2786
72709SOL    HW229853   4.222  12.842   8.191 -1.1278  0.3610 -0.0941
72710SOL     OW29854   6.631  13.098   4.374  0.2676  0.1502  0.1408
72710SOL    HW129855   6.621  13.177   4.428 -1.4172  1.0865 -1.4203
72710SOL    HW229856   6.644  13.027   4.437  3.1873  1.7835  1.5666
72711SOL     OW29857   7.013  12.775  12.354  0.3650 -0.0255 -0.0973
72711SOL    HW129858   7.089  12.783  12.295  0.9009  0.0317  0.5814
72711SOL    HW229859   7.014  12.857  12.405  0.9668 -0.7950  1.1967
72712SOL     OW29860  12.907   4.523   8.648 -0.0728  0.1365  0.0075
72712SOL    HW129861  12.868   4.611   8.653 -0.7885 -0.1475 -0.5200
72712SOL    HW229862  13.001   4.539   8.651 -0.1295  1.0639 -1.9188
72713SOL     OW29863   3.951   7.837   0.055 -0.2868 -0.2866 -0.1617
72713SOL    HW129864   3.988   7.838  -0.033  0.4310  2.3111  0.0901
72713SOL    HW229865   3.983   7.918   0.095 -1.3167 -0.9699  2.1903
72714SOL     OW29866   6.833   8.263   1.930 -0.1877 -0.4289 -0.1505
72714SOL    HW129867   6.901   8.327   1.908 -1.2844  0.9561  0.3534
72714SOL    HW229868   6.848   8.243   2.023 -0.4357 -0.1667 -0.0545
72715SOL     OW29869   1.731  11.774   9.843 -0.5134  0.0941  0.0823
72715SOL    HW129870   1.741  11.851   9.786  0.7961  0.6633  1.0392
72715SOL    HW229871   1.820  11.753   9.871 -1.0224 -0.8143  1.0818
72716SOL     OW29872   3.134   4.912   5.711  0.2208 -0.6205 -0.0236
72716SOL    HW129873   3.079   4.980   5.749  1.4356  0.0780  0.5282
72716SOL    HW229874   3.075   4.838   5.696 -0.8821  0.1641  0.4037
72717SOL     OW29875   9.712   4.213   2.302  0.0886 -0.5588 -0.1586
72717SOL    HW129876   9.661   4.250   2.230 -1.3059  0.2346  1.1712
72717SOL    HW229877   9.655   4.146   2.340  1.1892 -1.6491 -0.3614
72718SOL     OW29878  11.191   5.868   8.141 -0.0532  0.0861 -0.1038
72718SOL    HW129879  11.236   5.949   8.120 -0.9036  0.9913  1.4162
72718SOL    HW229880  11.098   5.890   8.139 -0.3288 -0.9895 -0.1503
72719SOL     OW29881   7.591   6.559   6.035  0.2864  0.1110  0.5337
72719SOL    HW129882   7.654   6.597   6.097 -0.2869  1.0619  0.5440
72719SOL    HW229883   7.646   6.525   5.964  0.8946 -0.2340  1.1606
72720SOL     OW29884   7.015   0.296   0.830  0.0506 -0.3428 -0.0957
72720SOL    HW129885   7.041   0.249   0.908  2.0602 -1.2027 -1.2107
72720SOL    HW229886   6.920   0.289   0.828 -0.1416  0.3410  2.6072
72721SOL     OW29887  13.007   9.348   7.803  0.4934 -0.4184  0.6553
72721SOL    HW129888  12.920   9.358   7.842  0.9766 -0.3386  1.7593
72721SOL    HW229889  13.043   9.271   7.847  0.3314 -1.5200 -1.0637
72722SOL     OW29890   4.792   0.104  12.836 -0.1332 -0.0644 -0.5648
72722SOL    HW129891   4.801   0.185  12.886 -0.1444 -1.3626  1.6876
72722SOL    HW229892   4.881   0.082  12.808  0.4702 -1.0039  1.8397
72723SOL     OW29893   4.857   3.297   3.411 -0.5858  0.6455  0.2157
72723SOL    HW129894   4.907   3.353   3.471 -0.7634  1.7226 -0.6084
72723SOL    HW229895   4.803   3.243   3.469  0.0382  0.8880  1.0542
72724SOL     OW29896   2.654   9.701   4.328  0.5327  0.0328  0.9143
72724SOL    HW129897   2.669   9.622   4.381 -1.2555  0.4604  2.1370
72724SOL    HW229898   2.728   9.758   4.350  2.3824 -1.5904 -0.7126
72725SOL     OW29899  11.614   4.570  13.731  0.4971 -0.2944 -0.2130
72725SOL    HW129900  11.641   4.478  13.728 -1.7574 -1.0828  1.2590
72725SOL    HW229901  11.526   4.571  13.695 -0.2328  0.9558  1.4578
72726SOL     OW29902  12.917   1.660   7.120  0.0081  0.0736 -0.1701
72726SOL    HW129903  12.880   1.682   7.205  1.4606  0.8306  0.3136
72726SOL    HW229904  12.843   1.663   7.060 -0.9958 -0.1788  1.0096
72727SOL     OW29905   2.174   0.434   4.561 -0.5275 -0.0988  0.6114
72727SOL    HW129906   2.100   0.471   4.512  0.2012  0.9794  0.2792
72727SOL    HW229907   2.138   0.412   4.646 -0.7313  2.8938  1.4228
72728SOL     OW29908   3.201   7.742   9.308  0.1905  0.5347  0.3179
72728SOL    HW129909   3.164   7.793   9.380 -2.2263 -0.1793 -0.3148
72728SOL    HW229910   3.128   7.688   9.277  2.1320 -1.8988 -0.3020
72729SOL     OW29911  11.109   3.304   7.183 -0.0827  0.5829 -0.4232
72729SOL    HW129912  11.203   3.318   7.175  0.0425  0.0325  0.0291
72729SOL    HW229913  11.071   3.348   7.107  0.6843 -0.7644 -1.6244
72730SOL     OW29914   3.575  11.605   4.180  0.0697 -0.2402 -0.3550
72730SOL    HW129915   3.604  11.513   4.185  0.8364 -0.0147 -0.4989
72730SOL    HW229916   3.656  11.654   4.167 -0.3472  0.4562 -0.3287
72731SOL     OW29917  10.616   4.370   9.685 -0.0974  0.2518  0.3086
72731SOL    HW129918  10.629   4.421   9.766 -0.5623 -0.0162  0.5516
72731SOL    HW229919  10.549   4.306   9.707  0.5263 -0.5232  0.0214
72732SOL     OW29920   3.810   3.856   8.731  0.0568 -0.3345 -0.4600
72732SOL    HW129921   3.805   3.820   8.643 -1.0604 -0.2745 -0.4350
72732SOL    HW229922   3.816   3.951   8.718 -0.3194 -0.3109 -0.4725
72733SOL     OW29923   0.331   7.637   4.396 -0.7744  0.4237 -0.4696
72733SOL    HW129924   0.267   7.706   4.375  0.1019  0.9273 -1.5743
72733SOL    HW229925   0.414   7.683   4.404 -0.5687 -0.1820  1.3105
72734SOL     OW29926   1.358   2.050  12.189  0.2243 -0.0767 -0.1255
72734SOL    HW129927   1.376   1.979  12.250 -0.5668 -0.8160 -0.7264
72734SOL    HW229928   1.365   2.009  12.103  0.2909  0.7101 -0.5036
72735SOL     OW29929   2.237   1.755  10.777  0.4034 -0.8871  0.1486
72735SOL    HW129930   2.195   1.783  10.696 -1.8798 -1.9911  0.8786
72735SOL    HW229931   2.239   1.834  10.831  2.5166  0.0238 -1.0984
72736SOL     OW29932  10.007  11.469   4.081 -0.2683 -0.1716 -0.4123
72736SOL    HW129933  10.073  11.516   4.030 -0.7719  1.0039 -0.0113
72736SOL    HW229934   9.930  11.465   4.025 -0.0450 -1.0903 -0.6804
72737SOL     OW29935   7.573   3.531   0.547  0.2573  0.0644 -0.1181
72737SOL    HW129936   7.540   3.616   0.576  0.5878 -0.0353  0.5770
72737SOL    HW229937   7.513   3.468   0.586  0.8986 -0.0869  0.6591
72738SOL     OW29938   0.883   8.619   2.485 -0.3611  0.1678 -0.2953
72738SOL    HW129939   0.797   8.581   2.467 -0.0961 -1.3109  1.2833
72738SOL    HW229940   0.903   8.672   2.407 -3.0824  1.3385 -0.3119
72739SOL     OW29941   3.563   1.217  12.710 -0.1359 -0.5167  0.0763
72739SOL    HW129942   3.515   1.177  12.637 -1.2716 -0.2540  0.6495
72739SOL    HW229943   3.623   1.279  12.669  0.1096 -1.2506 -0.6958
72740SOL     OW29944  13.454  13.544   6.419 -0.2604 -0.1062 -0.2033
72740SOL    HW129945  13.490  13.462   6.451 -0.3859 -0.3985 -0.7901
72740SOL    HW229946  13.425  13.590   6.497 -1.8256 -1.3901  0.0087
72741SOL     OW29947   8.975   6.574   0.530 -0.2006 -0.5096 -0.1719
72741SOL    HW129948   8.946   6.564   0.439  0.5066  0.5998 -0.5397
72741SOL    HW229949   8.913   6.636   0.569 -2.1596 -2.9948  0.9422
72742SOL     OW29950   5.102  11.124  12.919 -0.3853  0.0263 -0.4731
72742SOL    HW129951   5.028  11.183  12.934 -1.6638 -1.4932 -0.4454
72742SOL    HW229952   5.080  11.046  12.970  2.1792  0.2032  1.0534
72743SOL     OW29953   9.117   8.822   4.883 -0.3771  0.3394 -0.3924
72743SOL    HW129954   9.206   8.841   4.914 -0.3806  0.4204 -0.4308
72743SOL    HW229955   9.073   8.783   4.958 -0.2787  0.2059 -0.4028
72744SOL     OW29956   0.795   0.472  10.573  0.1636  0.6841 -0.0868
72744SOL    HW129957   0.750   0.525  10.639 -1.8034 -0.5182 -0.3701
72744SOL    HW229958   0.879   0.450  10.613 -0.7621  0.4240  1.8265
72745SOL     OW29959  12.559   1.852   1.013 -0.0220  0.6200 -0.0303
72745SOL    HW129960  12.565   1.880   1.105  2.1263  0.9449 -0.2130
72745SOL    HW229961  12.538   1.931   0.965 -0.6294  0.5552  0.1250
72746SOL     OW29962   9.570   2.565   8.287  0.4809  0.0584 -0.4009
72746SOL    HW129963   9.487   2.520   8.271  1.9016 -2.2880 -1.8246
72746SOL    HW229964   9.589   2.550   8.379 -0.5140  0.3418 -0.1435
72747SOL     OW29965   9.731   6.580   8.089  0.1333 -0.1829 -0.6635
72747SOL    HW129966   9.647   6.627   8.088  0.2721  0.1254  0.4505
72747SOL    HW229967   9.722   6.513   8.021 -0.5170  0.6926 -1.4541
72748SOL     OW29968   8.376   7.650   3.619  0.9011 -0.2236  0.7782
72748SOL    HW129969   8.458   7.638   3.571  2.0767  1.8810  2.1053
72748SOL    HW229970   8.350   7.561   3.646  2.2753 -1.0074 -0.3728
72749SOL     OW29971   0.696   2.469   0.602  0.2213 -0.8446  0.2959
72749SOL    HW129972   0.717   2.549   0.554 -1.0250 -1.3486 -1.1949
72749SOL    HW229973   0.777   2.418   0.602  0.5171 -0.3823 -0.4058
72750SOL     OW29974   4.977   7.823   3.038 -0.1461  0.2013 -0.4850
72750SOL    HW129975   4.940   7.911   3.050 -1.1864 -0.3106  0.2112
72750SOL    HW229976   5.071   7.838   3.027 -0.3079  1.4030 -0.3534
72751SOL     OW29977   9.867  12.404  13.299  0.2115 -0.0376  0.0590
72751SOL    HW129978   9.813  12.348  13.243  0.0221  2.5547 -2.6005
72751SOL    HW229979   9.955  12.400  13.260 -0.1410  2.5794 -1.2062
72752SOL     OW29980   5.577   0.317  11.595  0.4561 -0.0703 -0.5787
72752SOL    HW129981   5.576   0.397  11.543 -1.4612  0.4006  0.1036
72752SOL    HW229982   5.485   0.294  11.607  0.8477 -0.8161  1.5669
72753SOL     OW29983   8.032   6.121  13.248 -0.0800 -0.8327  0.1686
72753SOL    HW129984   8.073   6.192  13.297  0.6346 -0.5618 -0.7880
72753SOL    HW229985   8.002   6.162  13.167 -0.8510 -1.3572  0.1808
72754SOL     OW29986   1.696  12.115   8.609 -0.0378  0.0465 -0.1825
72754SOL    HW129987   1.725  12.060   8.536 -1.9808 -0.3871 -0.6712
72754SOL    HW229988   1.762  12.184   8.615  2.6664 -2.3808  0.6050
72755SOL     OW29989   2.846   2.030   8.138  0.1727 -0.2616 -0.7612
72755SOL    HW129990   2.757   1.996   8.130  0.6104 -1.1946 -2.0961
72755SOL    HW229991   2.836   2.124   8.124 -0.4758 -0.5167 -2.2842
72756SOL     OW29992   7.523   5.830   7.861 -0.3111  0.0522  0.6161
72756SOL    HW129993   7.483   5.900   7.913  0.4396  0.0678  1.1912
72756SOL    HW229994   7.459   5.812   7.792 -0.7451  0.9500  0.7621
72757SOL     OW29995   5.105   2.278   3.337 -0.3295  0.2957 -0.3093
72757SOL    HW129996   5.044   2.300   3.266 -1.7985 -0.1180  0.7691
72757SOL    HW229997   5.052   2.285   3.417  1.3940  1.2185  0.8179
72758SOL     OW29998  12.384   9.162   7.154 -0.2399 -0.1670 -0.1280
72758SOL    HW129999  12.409   9.228   7.218 -0.6830  2.1431 -2.1592
72758SOL    HW230000  12.449   9.171   7.084 -1.5026 -0.4304 -1.3873
72759SOL     OW30001   9.531   4.961   5.796 -0.0396 -0.0614  0.1740
72759SOL    HW130002   9.598   4.893   5.788  0.2813  0.3342 -0.6834
72759SOL    HW230003   9.504   4.958   5.887  1.0171 -0.3608  0.4896
72760SOL     OW30004   2.134   6.664  11.685  0.2235 -0.2762  0.1012
72760SOL    HW130005   2.064   6.725  11.664  1.2171  0.7648 -0.2763
72760SOL    HW230006   2.190   6.663  11.608  1.3123 -0.0980  0.8608
72761SOL     OW30007   0.929   8.300   8.317 -0.0586  0.1622 -0.8557
72761SOL    HW130008   0.976   8.255   8.388 -2.8684  0.7532  1.5898
72761SOL    HW230009   0.989   8.370   8.290  1.3301 -0.3976  0.5888
72762SOL     OW30010   4.111   5.766   4.004 -0.0137 -0.3564 -0.1674
72762SOL    HW130011   4.150   5.750   4.090 -2.4086  0.0469  1.0713
72762SOL    HW230012   4.094   5.860   4.003 -1.6304 -0.6316 -0.3147
72763SOL     OW30013   2.190   6.995   8.799  0.2478 -0.6117  0.1220
72763SOL    HW130014   2.107   6.948   8.810 -0.0684  0.0127  0.4512
72763SOL    HW230015   2.166   7.087   8.804  0.7517 -0.3790 -1.2924
72764SOL     OW30016   0.411   5.668   1.383  0.1062 -0.3291  0.3461
72764SOL    HW130017   0.411   5.763   1.372 -1.0421  0.0374  2.7945
72764SOL    HW230018   0.383   5.633   1.298 -0.5157  1.5717 -0.2705
72765SOL     OW30019   6.348   1.965  11.776  0.4994 -0.2335  0.0250
72765SOL    HW130020   6.436   1.986  11.807 -0.0007 -0.7880  1.9275
72765SOL    HW230021   6.312   1.905  11.842 -1.7549  0.9207 -0.0449
72766SOL     OW30022   8.390   7.406  11.623 -0.1313 -0.2250  0.2037
72766SOL    HW130023   8.303   7.409  11.662 -1.4634  0.3734 -2.6346
72766SOL    HW230024   8.440   7.471  11.672 -1.8592  0.8786  0.5629
72767SOL     OW30025   5.997   9.721   9.872 -0.2770 -0.2953  0.1875
72767SOL    HW130026   6.031   9.715   9.961 -0.1770  0.6638  0.2250
72767SOL    HW230027   5.902   9.713   9.882 -0.3763  1.0632  0.5334
72768SOL     OW30028  13.402   0.843  11.903  0.2156 -0.5516  0.1057
72768SOL    HW130029  13.351   0.853  11.983  0.5457 -2.4563  0.6080
72768SOL    HW230030  13.445   0.928  11.891 -0.8497  0.1821  1.2089
72769SOL     OW30031   0.006   2.234   9.580  0.1874 -0.2802  0.0821
72769SOL    HW130032   0.020   2.328   9.572 -0.5713 -0.2252 -0.6834
72769SOL    HW230033   0.078   2.195   9.530 -0.9788 -0.0391 -1.8579
72770SOL     OW30034   8.421   0.293  12.016  0.0242  0.5883  0.1288
72770SOL    HW130035   8.407   0.210  12.064  0.0215  0.4538 -0.1045
72770SOL    HW230036   8.364   0.286  11.940 -0.2333  0.9548  0.2843
72771SOL     OW30037   7.385   2.766  13.070  0.0802 -0.0006  0.6695
72771SOL    HW130038   7.475   2.770  13.039 -0.8085 -0.5061 -2.3163
72771SOL    HW230039   7.382   2.689  13.126  1.3889 -0.3157  0.3423
72772SOL     OW30040  10.390   5.112   7.012  0.1217 -0.4343  0.2223
72772SOL    HW130041  10.298   5.109   7.037 -0.0021  3.1011  0.7133
72772SOL    HW230042  10.437   5.120   7.095  0.8490 -1.6215 -0.0585
72773SOL     OW30043   2.111   0.377   3.659  0.1620 -0.8202 -0.1767
72773SOL    HW130044   2.169   0.432   3.712 -1.2589 -0.0389  0.6250
72773SOL    HW230045   2.163   0.299   3.640  0.8691 -0.9736  2.0702
72774SOL     OW30046  12.906   3.101   8.266  0.1638  0.2294  0.3614
72774SOL    HW130047  12.863   3.162   8.325 -1.3237 -0.5559  0.1306
72774SOL    HW230048  12.932   3.027   8.321  0.7969  0.4837  0.4127
72775SOL     OW30049   4.310   9.709   1.183 -0.0877  0.8432  0.1289
72775SOL    HW130050   4.371   9.768   1.227 -1.3802  2.3347  0.0189
72775SOL    HW230051   4.236   9.764   1.159 -1.4963 -0.8840  0.2459
72776SOL     OW30052   1.012  13.283   8.000 -0.2343 -0.6593 -0.2949
72776SOL    HW130053   1.088  13.323   7.956 -0.5609 -0.0797 -0.3450
72776SOL    HW230054   1.041  13.194   8.020  0.1921 -0.6983 -1.0036
72777SOL     OW30055  12.001   9.634   1.704  0.0173 -0.3994  0.1876
72777SOL    HW130056  11.927   9.573   1.706 -0.8443  0.5857 -0.5330
72777SOL    HW230057  11.968   9.713   1.747  0.0962  0.6185 -1.5299
72778SOL     OW30058   2.825   3.311  10.477 -0.0953  0.5410  0.6116
72778SOL    HW130059   2.904   3.264  10.503 -1.4011 -0.3727  3.2191
72778SOL    HW230060   2.834   3.397  10.517 -0.8025  0.1150  1.7266
72779SOL     OW30061  12.274   0.360   8.072 -0.0546 -0.5556  0.2914
72779SOL    HW130062  12.206   0.419   8.104 -0.9305 -1.6828  0.5803
72779SOL    HW230063  12.305   0.401   7.991 -1.1946 -0.0891  0.0713
72780SOL     OW30064   6.069  13.393   9.524  0.1445 -0.4001 -0.0402
72780SOL    HW130065   5.986  13.416   9.566  0.1744  0.5098 -0.4478
72780SOL    HW230066   6.135  13.415   9.589  0.1435  0.1971 -0.2401
72781SOL     OW30067   0.562  13.383  13.645  0.2228 -0.6577 -0.2751
72781SOL    HW130068   0.530  13.294  13.654  0.6632 -0.6434  1.9794
72781SOL    HW230069   0.525  13.430  13.720  0.1059  1.0359 -1.3364
72782SOL     OW30070   5.984   8.030   8.312  0.4583 -0.0920 -0.3716
72782SOL    HW130071   6.025   7.958   8.359  0.0402  0.1236  0.3486
72782SOL    HW230072   5.896   8.035   8.349  1.1588  2.1722  1.1892
72783SOL     OW30073   7.042   7.356   6.093  0.8282 -0.3169  0.0393
72783SOL    HW130074   7.105   7.376   6.162  1.2272  2.4892 -1.0012
72783SOL    HW230075   6.974   7.303   6.137  2.0718 -0.3472  2.0406
72784SOL     OW30076   0.519   3.921   9.968 -0.6957 -0.6202  0.3067
72784SOL    HW130077   0.562   3.905  10.052  1.2689 -1.0371 -0.7227
72784SOL    HW230078   0.541   3.845   9.915 -1.5985 -0.1899 -0.7250
72785SOL     OW30079  11.706   0.430   0.124 -0.1059  0.3192  0.3870
72785SOL    HW130080  11.754   0.417   0.206  1.1740 -0.2604 -0.4362
72785SOL    HW230081  11.667   0.345   0.105 -0.7756  0.5698  0.6131
72786SOL     OW30082   4.084   2.141   2.655  0.0147  0.0966 -0.0576
72786SOL    HW130083   4.146   2.146   2.728  0.2577  0.0003 -0.2526
72786SOL    HW230084   4.135   2.170   2.579  0.0884 -0.8377 -0.3760
72787SOL     OW30085   5.128   0.538   5.781  0.4667  0.4380  0.0219
72787SOL    HW130086   5.047   0.559   5.827  1.8535  2.6320  1.6917
72787SOL    HW230087   5.151   0.450   5.810 -0.6812  0.2789  0.4729
72788SOL     OW30088   6.025   9.108   3.528 -0.4856 -0.0816 -0.3709
72788SOL    HW130089   6.005   9.015   3.517 -1.0617 -0.0330  0.1500
72788SOL    HW230090   6.058   9.115   3.618  1.2833 -0.0477 -0.9935
72789SOL     OW30091   4.215   8.877   5.751  0.4748  0.0452 -0.7475
72789SOL    HW130092   4.253   8.796   5.717  1.6228  0.5421 -0.7093
72789SOL    HW230093   4.291   8.935   5.765 -0.1984  0.6661  0.4687
72790SOL     OW30094   4.887   0.960   3.066  0.4749  0.1461  0.0452
72790SOL    HW130095   4.975   0.923   3.068 -0.0955 -1.2554  1.1408
72790SOL    HW230096   4.829   0.884   3.064 -0.7445  0.9685  1.6714
72791SOL     OW30097  11.167   6.928   8.423 -0.0710  0.2709 -0.0152
72791SOL    HW130098  11.121   6.873   8.486  0.0466  0.5996  0.3648
72791SOL    HW230099  11.128   6.906   8.338 -0.7882  0.4066  0.2730
72792SOL     OW30100   7.370  10.264  10.639 -0.2370 -0.5027  0.9111
72792SOL    HW130101   7.308  10.310  10.582  0.4769 -0.6830 -0.0393
72792SOL    HW230102   7.450  10.257  10.586  1.3581  1.6306  2.8185
72793SOL     OW30103   6.871   9.733  13.742 -0.8569  0.7361  0.0242
72793SOL    HW130104   6.929   9.660  13.724 -1.4662  0.2152  0.1305
72793SOL    HW230105   6.928   9.801  13.778 -0.3329  0.2071  0.2119
72794SOL     OW30106   0.685  12.918  12.061 -0.5887  0.4176 -0.2142
72794SOL    HW130107   0.741  12.845  12.036  2.0161  2.6962 -1.5529
72794SOL    HW230108   0.597  12.880  12.067  0.5298 -2.6567 -1.4445
72795SOL     OW30109  10.788  10.908   5.686 -0.4354 -0.1352 -0.0953
72795SOL    HW130110  10.828  10.976   5.631  0.4150  0.1112  0.8056
72795SOL    HW230111  10.834  10.914   5.769 -1.4257 -0.7879  0.5163
72796SOL     OW30112  13.116   7.271   2.191  0.1934  0.2817  0.4988
72796SOL    HW130113  13.029   7.231   2.193  0.2470  0.1801  0.7581
72796SOL    HW230114  13.122   7.323   2.271  1.1736 -1.4151  1.5817
72797SOL     OW30115   2.589   5.020   5.490  0.1974 -0.0643 -0.4806
72797SOL    HW130116   2.607   4.961   5.563 -1.3269  0.3302  0.2533
72797SOL    HW230117   2.662   5.082   5.491  0.2916 -0.1741  0.5967
72798SOL     OW30118  13.407   6.891   0.443  0.3990 -0.3017  0.1317
72798SOL    HW130119  13.485   6.901   0.497 -0.3957  0.8801  1.1116
72798SOL    HW230120  13.335   6.890   0.506 -0.3642 -2.0450 -0.6898
72799SOL     OW30121   0.723   3.211   0.274 -0.3905 -0.0758  0.2140
72799SOL    HW130122   0.791   3.259   0.227  0.7277 -0.7659  1.0821
72799SOL    HW230123   0.694   3.270   0.343 -0.1702 -0.0363  0.2727
72800SOL     OW30124   0.513   4.945   1.717  0.0522  0.2022  0.0305
72800SOL    HW130125   0.505   4.894   1.636 -0.3068 -1.0875  0.8590
72800SOL    HW230126   0.508   4.880   1.787  2.0265  1.0885  1.0678
72801SOL     OW30127   3.732   6.507   2.465 -0.0931  0.1259 -1.0199
72801SOL    HW130128   3.714   6.499   2.372  0.2438 -0.5258 -1.0329
72801SOL    HW230129   3.697   6.593   2.489 -0.8396 -0.0094 -1.5852
72802SOL     OW30130   8.343   2.907   6.097 -0.3212  0.3648  0.0657
72802SOL    HW130131   8.388   2.908   6.182  0.9956  0.9119 -0.6222
72802SOL    HW230132   8.254   2.934   6.118  0.3766  2.0520  1.0862
72803SOL     OW30133   6.161   8.331  10.278  0.6461 -0.3915 -0.3800
72803SOL    HW130134   6.124   8.287  10.355  0.6312  0.1659 -0.0661
72803SOL    HW230135   6.256   8.319  10.287  0.6607 -0.0968 -0.1334
72804SOL     OW30136  11.646   3.767   8.719  0.9824 -0.5656  0.3257
72804SOL    HW130137  11.586   3.733   8.786  1.5022  0.0113  1.0953
72804SOL    HW230138  11.609   3.852   8.696  0.1419 -1.2677 -1.0005
72805SOL     OW30139   8.357   4.088   2.801  0.3581  0.2508  0.2229
72805SOL    HW130140   8.335   4.142   2.877  2.2465  1.6459 -0.1600
72805SOL    HW230141   8.446   4.058   2.818 -0.2103 -1.8181 -0.1529
72806SOL     OW30142  11.792   7.815   0.556 -0.4507 -0.3176 -0.3226
72806SOL    HW130143  11.728   7.831   0.487 -3.2837  0.6414  2.3080
72806SOL    HW230144  11.792   7.720   0.568 -0.6201 -0.4039 -0.9361
72807SOL     OW30145   7.163  12.905  13.193  0.0509 -0.5451 -0.2835
72807SOL    HW130146   7.077  12.946  13.178  0.0871 -0.3415  0.0409
72807SOL    HW230147   7.226  12.974  13.172  0.0894  0.4539  2.5981
72808SOL     OW30148   0.451   9.880   3.267  0.2480  0.1675 -0.2628
72808SOL    HW130149   0.360   9.896   3.289  0.2205 -0.4605  0.0785
72808SOL    HW230150   0.449   9.852   3.176  0.1805  0.9097 -0.4963
72809SOL     OW30151   0.294   4.888   7.356 -0.0808  0.2457 -0.1358
72809SOL    HW130152   0.203   4.885   7.385  0.4374 -1.0101  1.5864
72809SOL    HW230153   0.298   4.831   7.280 -0.1713 -2.5385  1.8044
72810SOL     OW30154   2.842  12.786  13.445  0.1513 -0.7533 -0.0051
72810SOL    HW130155   2.794  12.833  13.377  1.5310  1.4007  0.3918
72810SOL    HW230156   2.811  12.824  13.527 -0.1319 -1.9857  0.4740
72811SOL     OW30157  10.137   7.937   3.627 -0.0799  0.7931  0.2622
72811SOL    HW130158  10.186   7.944   3.545  1.7871 -1.5834  1.0828
72811SOL    HW230159  10.049   7.908   3.599  1.2439 -2.6604 -0.9109
72812SOL     OW30160   6.843  10.973   7.876  0.5087  0.2152  0.2073
72812SOL    HW130161   6.798  10.910   7.932 -1.3811 -0.1671 -1.6396
72812SOL    HW230162   6.935  10.945   7.878 -0.0805 -1.9035  0.3572
72813SOL     OW30163  12.304   8.623   0.978 -0.1783 -0.6730  0.2925
72813SOL    HW130164  12.346   8.540   1.003  0.4376 -0.2186  0.8103
72813SOL    HW230165  12.376   8.686   0.976 -0.5364 -0.2715 -0.7185
72814SOL     OW30166   0.368   6.406   0.925 -0.3917 -0.4223  0.3561
72814SOL    HW130167   0.401   6.432   0.838 -2.3337 -2.7252 -1.1960
72814SOL    HW230168   0.438   6.431   0.985 -0.1229  3.9737 -1.3690
72815SOL     OW30169   6.070   7.074  13.362  0.0971  0.1768  0.5793
72815SOL    HW130170   6.107   7.121  13.287  1.3115 -1.2170  0.2579
72815SOL    HW230171   5.996   7.025  13.325 -0.1265  0.5161  0.5723
72816SOL     OW30172  11.102   5.073   6.486 -0.0775 -0.4365  0.8377
72816SOL    HW130173  11.026   5.062   6.429  0.5066  0.4904 -0.1612
72816SOL    HW230174  11.085   5.156   6.532  0.6534  0.1659  0.0497
72817SOL     OW30175   0.703   1.946   5.988  0.1025 -0.0936 -0.1846
72817SOL    HW130176   0.756   2.025   5.982 -0.8026  0.5055 -0.5477
72817SOL    HW230177   0.752   1.888   6.046  1.4834  0.1467 -1.0798
72818SOL     OW30178   7.328  11.471   3.902 -0.1329  0.1836 -0.2767
72818SOL    HW130179   7.237  11.482   3.876 -0.4956 -0.6100  0.6069
72818SOL    HW230180   7.369  11.426   3.828 -0.1062  1.7573 -1.2613
72819SOL     OW30181   7.647   8.433   5.285 -0.6016  0.2661 -0.1404
72819SOL    HW130182   7.682   8.440   5.373 -2.1477 -2.2878  0.7794
72819SOL    HW230183   7.567   8.485   5.287 -0.5848  0.2903 -0.0806
72820SOL     OW30184  10.073  12.178   3.619  0.4369  0.2487 -0.7239
72820SOL    HW130185   9.982  12.179   3.592  0.2922 -1.2446 -0.3934
72820SOL    HW230186  10.072  12.213   3.708  0.3023  0.9395 -0.9920
72821SOL     OW30187  12.682  10.938   2.463  0.4498 -0.4509 -0.3705
72821SOL    HW130188  12.774  10.927   2.489  0.2241  1.2142  1.2831
72821SOL    HW230189  12.643  10.851   2.477  0.6306 -0.0765  4.0535
72822SOL     OW30190   0.853   4.190   2.007  0.0662 -0.1317  0.3976
72822SOL    HW130191   0.912   4.163   1.936 -1.0704  1.4154 -1.2077
72822SOL    HW230192   0.855   4.286   2.005  0.0469 -0.0262  2.5536
72823SOL     OW30193  10.073   5.023   7.835 -0.3512  0.4447  0.4010
72823SOL    HW130194  10.047   5.067   7.915  0.2503 -0.2755  1.0079
72823SOL    HW230195  10.072   5.091   7.768 -2.0422  0.8015  0.7598
72824SOL     OW30196   3.010   3.885  11.537  0.4393 -0.0353  0.1163
72824SOL    HW130197   3.082   3.897  11.599  0.6945 -0.5887 -0.0710
72824SOL    HW230198   2.943   3.837  11.586  0.9894 -1.2338 -0.2833
72825SOL     OW30199   2.495   6.435   5.531 -0.1247  0.2349 -0.2789
72825SOL    HW130200   2.416   6.382   5.540 -1.1629  0.8357 -3.9024
72825SOL    HW230201   2.566   6.372   5.521 -0.4039 -0.3303  1.1120
72826SOL     OW30202   7.428   3.867   1.761 -0.0821  0.3580 -0.0672
72826SOL    HW130203   7.484   3.925   1.813  0.6185 -0.1794 -0.2290
72826SOL    HW230204   7.363   3.835   1.824  0.1307  0.5284  0.2433
72827SOL     OW30205   2.575   1.853   2.280  0.1958 -0.4456 -0.3001
72827SOL    HW130206   2.539   1.828   2.195 -0.8110  0.1708 -0.0701
72827SOL    HW230207   2.544   1.943   2.294  0.9872 -0.2682  0.3701
72828SOL     OW30208   6.307   2.311   3.267 -0.1160 -0.1725 -0.1177
72828SOL    HW130209   6.329   2.404   3.259  0.8299 -0.4664 -1.3342
72828SOL    HW230210   6.233   2.298   3.208  2.3935 -0.9463 -3.3824
72829SOL     OW30211   8.400  11.121   5.560  0.2289 -0.6572 -0.2945
72829SOL    HW130212   8.494  11.104   5.565 -0.0312 -2.0626  0.5153
72829SOL    HW230213   8.387  11.156   5.472  1.3957 -1.2177 -0.7189
72830SOL     OW30214   1.894  11.371   6.488  0.5301 -0.1914  0.2925
72830SOL    HW130215   1.974  11.327   6.517 -0.0139 -0.6255  1.1549
72830SOL    HW230216   1.843  11.383   6.567 -0.9082 -1.2317 -0.4281
72831SOL     OW30217   7.321  13.665   0.829 -0.0894 -0.1127 -0.1473
72831SOL    HW130218   7.401  13.696   0.872  0.0385 -0.0748 -0.4147
72831SOL    HW230219   7.255  13.666   0.899  0.5647 -1.8635  0.5341
72832SOL     OW30220   5.043   2.153   4.787 -0.3381 -0.6666  0.2776
72832SOL    HW130221   5.129   2.139   4.827 -0.4002  1.0442  1.0712
72832SOL    HW230222   4.981   2.111   4.846 -0.2586  0.2574  1.0337
72833SOL     OW30223   8.261  10.410   4.317  0.0954  0.5552 -0.7606
72833SOL    HW130224   8.315  10.400   4.396 -1.4811  0.6369  0.3811
72833SOL    HW230225   8.260  10.323   4.277  1.1322  0.5753 -0.8680
72834SOL     OW30226   9.158  10.970   1.652  0.5084 -0.0055 -0.7147
72834SOL    HW130227   9.097  10.906   1.688  1.9849  0.2754  2.6902
72834SOL    HW230228   9.220  10.918   1.601  0.6274 -1.0867  0.4905
72835SOL     OW30229   1.808   3.323  12.297  0.6289 -0.3011 -0.2510
72835SOL    HW130230   1.837   3.257  12.234 -0.7576 -0.2823 -0.9351
72835SOL    HW230231   1.800   3.403  12.245 -4.1991 -1.0535 -1.0797
72836SOL     OW30232   5.270   9.488   5.169  0.1992 -0.0412 -0.0551
72836SOL    HW130233   5.257   9.522   5.257 -2.3503 -1.6297  0.2711
72836SOL    HW230234   5.323   9.409   5.181  2.5344  1.3949 -0.3634
72837SOL     OW30235   9.979   5.184   4.274  0.7806 -0.0384 -0.3400
72837SOL    HW130236   9.999   5.097   4.238  1.8558  0.1493 -0.2111
72837SOL    HW230237   9.883   5.188   4.274  0.6870 -1.4971  0.2661
72838SOL     OW30238   6.577   1.276   6.933 -0.0112  0.0409  0.4732
72838SOL    HW130239   6.615   1.262   6.846 -0.8720  0.1779  0.0704
72838SOL    HW230240   6.635   1.340   6.974  0.9772 -0.7568  0.3871
72839SOL     OW30241   1.447   8.714   9.838  0.5652  0.0296  0.3765
72839SOL    HW130242   1.503   8.761   9.900  1.2973 -0.1318 -0.1497
72839SOL    HW230243   1.377   8.676   9.892  0.7859  0.5002  0.9983
72840SOL     OW30244   1.225   5.795   3.192  0.3067  0.2732 -0.3416
72840SOL    HW130245   1.216   5.887   3.165 -0.4166  0.0214 -1.0041
72840SOL    HW230246   1.135   5.765   3.204  0.5517 -0.2698  0.1649
72841SOL     OW30247   5.877  12.268  11.300 -0.3651  0.1847 -0.6434
72841SOL    HW130248   5.957  12.277  11.353 -0.0494 -0.5022 -0.9961
72841SOL    HW230249   5.884  12.339  11.235  1.3557 -1.4933 -2.4287
72842SOL     OW30250   8.821  10.564   1.113  0.2097 -0.3780 -0.0037
72842SOL    HW130251   8.767  10.538   1.038  0.1423 -1.3442  0.3791
72842SOL    HW230252   8.788  10.651   1.137  1.2026  0.6462 -2.0197
72843SOL     OW30253   1.589   6.845   9.004  0.4168 -0.1307  0.4031
72843SOL    HW130254   1.574   6.856   9.098 -0.5584  0.8787  0.1558
72843SOL    HW230255   1.578   6.933   8.968  1.9766 -0.2852 -0.5238
72844SOL     OW30256  11.225   4.182  13.253  0.0903 -0.2306  0.0642
72844SOL    HW130257  11.130   4.173  13.244 -0.1866  0.0630  2.1397
72844SOL    HW230258  11.240   4.277  13.254  0.2556 -0.2555  0.7860
72845SOL     OW30259  12.280   7.019   2.959  0.3003 -0.0076 -0.6271
72845SOL    HW130260  12.286   6.981   3.047 -0.9438 -2.3077 -1.4660
72845SOL    HW230261  12.242   7.106   2.973 -0.0801 -0.4137  1.0972
72846SOL     OW30262  10.871  11.891  11.191 -0.4201 -0.2934 -0.2333
72846SOL    HW130263  10.840  11.897  11.100  1.4397 -2.5402 -1.0964
72846SOL    HW230264  10.964  11.871  11.183 -0.6335 -2.6674  2.1389
72847SOL     OW30265  11.698  11.869   2.368  0.5292  0.0408 -0.2439
72847SOL    HW130266  11.618  11.906   2.406  0.6842 -0.7426  0.8963
72847SOL    HW230267  11.668  11.793   2.319  0.6472 -0.8590  1.0258
72848SOL     OW30268   4.172  10.644  10.204 -0.2440 -0.0962 -0.1240
72848SOL    HW130269   4.091  10.636  10.155  0.1383  1.7112 -1.1271
72848SOL    HW230270   4.231  10.692  10.146  0.9018  0.3365  1.3266
72849SOL     OW30271   8.545   9.924   1.597  0.7459  0.4391  0.0552
72849SOL    HW130272   8.520  10.006   1.639 -1.7339 -0.9910  1.5936
72849SOL    HW230273   8.485   9.859   1.633  1.9581 -1.8962 -1.8515
72850SOL     OW30274   5.096  13.115   0.084 -0.0936  0.1242 -0.0568
72850SOL    HW130275   5.015  13.126   0.134 -1.0030 -0.8164 -1.2532
72850SOL    HW230276   5.165  13.120   0.150 -1.1323  0.7355  1.0280
72851SOL     OW30277  11.967  12.412   3.707  0.2447 -0.0072  0.4123
72851SOL    HW130278  11.933  12.385   3.621  2.1621  0.6822 -0.6258
72851SOL    HW230279  12.025  12.485   3.687 -1.7913  2.4462  2.6903
72852SOL     OW30280   9.574   5.039   8.902  0.0373 -0.2851 -0.7090
72852SOL    HW130281   9.501   5.100   8.904 -0.6330 -1.0648 -0.8897
72852SOL    HW230282   9.596   5.025   8.995  0.8965  1.0282 -0.6939
72853SOL     OW30283   6.445   9.767   9.385 -0.5295  0.6237  0.3506
72853SOL    HW130284   6.523   9.736   9.338  0.1499 -2.1124  3.0003
72853SOL    HW230285   6.464   9.859   9.404  1.7483  0.2408  0.2337
72854SOL     OW30286   0.794  13.439  11.869  0.1238  0.2696  0.1330
72854SOL    HW130287   0.722  13.436  11.805  0.7581  2.4680 -0.7742
72854SOL    HW230288   0.757  13.400  11.948 -2.0874  1.2728 -0.3287
72855SOL     OW30289   0.588   9.798   9.106 -0.2474 -0.6041 -0.4927
72855SOL    HW130290   0.518   9.859   9.129 -1.3724 -2.0622  0.0793
72855SOL    HW230291   0.550   9.743   9.038  0.8510 -0.5158 -1.2089
72856SOL     OW30292   1.171   7.398   4.408 -0.3515 -0.0334 -0.3328
72856SOL    HW130293   1.155   7.304   4.398 -1.3952  0.1154 -0.1334
72856SOL    HW230294   1.111   7.426   4.477  2.0568  0.2326  1.7919
72857SOL     OW30295   6.832  11.299   3.250 -0.4029 -0.2773  0.6105
72857SOL    HW130296   6.825  11.354   3.172  0.5981 -0.2946  0.5016
72857SOL    HW230297   6.853  11.212   3.217  3.5468  0.3733  0.9781
72858SOL     OW30298   5.790  11.806   1.316 -0.1587 -0.0998  0.2361
72858SOL    HW130299   5.765  11.839   1.403  0.9348  1.5454 -0.0325
72858SOL    HW230300   5.868  11.753   1.332  1.6448  2.3228  0.0381
72859SOL     OW30301   7.474   2.833   4.911  0.1579 -0.4359  0.1548
72859SOL    HW130302   7.522   2.832   4.994  1.1554  1.2772 -0.3510
72859SOL    HW230303   7.538   2.864   4.847 -0.9928 -0.3590 -0.9871
72860SOL     OW30304   0.657  11.887  13.349  0.1701  0.0574 -0.5098
72860SOL    HW130305   0.608  11.885  13.266 -0.2118  0.1520 -0.2907
72860SOL    HW230306   0.643  11.975  13.383  0.6168  0.1308 -0.5121
72861SOL     OW30307  13.102  12.513   9.919  0.3593  0.0469 -0.4121
72861SOL    HW130308  13.180  12.567   9.908 -0.3512  0.8830 -1.4577
72861SOL    HW230309  13.076  12.488   9.830 -1.6375  1.3393 -0.2553
72862SOL     OW30310   2.581   6.733   4.191 -0.4250  0.6124 -0.1153
72862SOL    HW130311   2.545   6.781   4.117  1.5201  2.0320 -0.2110
72862SOL    HW230312   2.569   6.791   4.266 -1.1957 -0.2659  0.4747
72863SOL     OW30313   4.670   9.418  12.625 -0.0141 -0.1034 -0.6162
72863SOL    HW130314   4.710   9.346  12.672  1.3481  0.2118 -1.2541
72863SOL    HW230315   4.583   9.386  12.601  0.2454 -1.1976 -0.1430
72864SOL     OW30316   9.259  13.202  11.163 -0.3394  0.2862 -0.2917
72864SOL    HW130317   9.183  13.201  11.105 -1.2848 -1.9378  0.8875
72864SOL    HW230318   9.223  13.225  11.249  0.3940 -0.3373  0.1936
72865SOL     OW30319   6.484   0.059   0.358 -0.9340 -0.0186 -0.9446
72865SOL    HW130320   6.523  -0.022   0.392  0.7169  0.8856 -0.5953
72865SOL    HW230321   6.515   0.065   0.268 -0.0034  0.8291 -0.5907
72866SOL     OW30322  12.854  10.856   0.915  0.5768  0.7817  0.2179
72866SOL    HW130323  12.902  10.832   0.994 -1.3923 -1.0925  0.9558
72866SOL    HW230324  12.797  10.928   0.943 -1.0732 -0.7346  0.9681
72867SOL     OW30325   1.032   6.620  13.115  0.1940 -0.5089 -0.0022
72867SOL    HW130326   1.086   6.635  13.192  0.9734 -1.3491 -0.3698
72867SOL    HW230327   1.044   6.698  13.061  1.0781 -0.6986 -0.0916
72868SOL     OW30328   4.840  12.301   1.791 -0.1207 -0.2732 -0.3504
72868SOL    HW130329   4.805  12.390   1.798  0.6381 -0.0368  0.8781
72868SOL    HW230330   4.859  12.276   1.882  0.1619 -1.4941 -0.7236
72869SOL     OW30331  13.466   8.242  12.115 -0.6195 -0.3793  0.0645
72869SOL    HW130332  13.460   8.200  12.029 -0.6722  0.7003 -0.4721
72869SOL    HW230333  13.488   8.171  12.175 -0.7846 -1.1804 -0.8111
72870SOL     OW30334   6.186  12.891  13.657  0.6374 -0.1172 -0.0252
72870SOL    HW130335   6.243  12.929  13.590 -2.3465 -0.9647 -3.3550
72870SOL    HW230336   6.098  12.920  13.633 -0.9359 -2.9166  1.7894
72871SOL     OW30337   3.746  10.105   4.507  0.1318 -0.1595  0.0542
72871SOL    HW130338   3.681  10.060   4.561 -1.1517  0.8815 -0.5375
72871SOL    HW230339   3.808  10.142   4.569  0.4625 -1.5790  0.6154
72872SOL     OW30340   7.097   1.816   8.852  0.3954  0.3095  0.6250
72872SOL    HW130341   7.039   1.853   8.919 -1.9477  1.3464 -1.7627
72872SOL    HW230342   7.073   1.724   8.848 -1.5619  0.8171 -0.6502
72873SOL     OW30343   3.597   0.088   3.122 -0.2536  0.1749 -0.2617
72873SOL    HW130344   3.504   0.080   3.103 -0.4072  0.5652  0.3189
72873SOL    HW230345   3.638   0.090   3.035 -1.0896  3.5896 -0.7355
72874SOL     OW30346   6.814  10.485   0.748  0.0985 -0.0684 -0.1882
72874SOL    HW130347   6.770  10.526   0.822 -0.1226 -1.7852  0.6808
72874SOL    HW230348   6.768  10.519   0.671  0.1232  1.4969  0.4619
72875SOL     OW30349   0.316  13.131   8.652  0.1992 -1.0064 -0.0142
72875SOL    HW130350   0.318  13.042   8.686  0.3737 -1.0808 -0.2129
72875SOL    HW230351   0.404  13.144   8.617 -0.1075 -1.0850 -0.8311
72876SOL     OW30352   4.637   7.840   9.338  0.2976  0.4636 -0.1625
72876SOL    HW130353   4.651   7.789   9.258  0.1820  1.9220 -1.1431
72876SOL    HW230354   4.609   7.775   9.402  1.9028 -0.9916 -0.8477
72877SOL     OW30355   0.717   0.411   1.376  0.3987 -0.2014  0.0838
72877SOL    HW130356   0.746   0.391   1.287 -2.6281  2.4974 -1.7476
72877SOL    HW230357   0.695   0.326   1.413  2.1783 -1.4614 -1.5258
72878SOL     OW30358  10.512   4.063   3.876 -0.0206 -0.0704  0.5307
72878SOL    HW130359  10.569   4.135   3.849  0.4163 -0.8558 -0.7284
72878SOL    HW230360  10.569   3.987   3.878 -1.1191 -1.0181 -1.4712
72879SOL     OW30361  10.802  10.426  10.205 -0.7381  0.4320 -0.3825
72879SOL    HW130362  10.799  10.379  10.121 -0.4869  1.0129 -0.7211
72879SOL    HW230363  10.749  10.504  10.191 -1.1844  0.2367  0.1943
72880SOL     OW30364   8.560   7.630  12.749  0.2586  0.3207 -0.6180
72880SOL    HW130365   8.541   7.603  12.659 -0.2354  0.2549 -0.4951
72880SOL    HW230366   8.475   7.650  12.787  0.5965  2.4178 -0.8121
72881SOL     OW30367   9.821  10.589   2.133 -0.3464 -0.1528 -0.8212
72881SOL    HW130368   9.820  10.646   2.056 -0.9776  0.4752 -0.3494
72881SOL    HW230369   9.731  10.588   2.164 -0.1727 -0.7111 -0.3047
72882SOL     OW30370  12.435   2.885  11.637  0.5635  0.0171 -0.1275
72882SOL    HW130371  12.520   2.929  11.647  1.0965 -1.1788  0.8328
72882SOL    HW230372  12.371   2.957  11.639  1.4811  0.8551  0.1407
72883SOL     OW30373   6.823   0.320  10.857  0.3751  0.1956  0.7022
72883SOL    HW130374   6.831   0.224  10.857  0.9865  0.2442  0.4570
72883SOL    HW230375   6.883   0.349  10.788 -0.3590  0.7148  0.2720
72884SOL     OW30376   0.801   6.019   1.594 -0.2169  0.4530  0.4481
72884SOL    HW130377   0.864   6.013   1.522  1.0040 -0.8505  1.5651
72884SOL    HW230378   0.742   5.944   1.580  1.2031 -0.9961  1.8134
72885SOL     OW30379  11.541   0.324   5.875  0.0190 -0.6563  0.1355
72885SOL    HW130380  11.634   0.344   5.884 -0.1874  0.7492 -0.6305
72885SOL    HW230381  11.528   0.246   5.929  1.2303  0.3144  1.9243
72886SOL     OW30382   9.065  11.298   5.689  0.3754  0.2108  0.1864
72886SOL    HW130383   9.014  11.262   5.763 -0.1607 -0.1138 -0.3324
72886SOL    HW230384   9.152  11.259   5.699  0.6214  0.9655  1.2288
72887SOL     OW30385   7.555   2.695  11.161 -0.5825 -0.3521 -0.7591
72887SOL    HW130386   7.520   2.610  11.188  1.6403 -1.5295 -1.2546
72887SOL    HW230387   7.641   2.698  11.203  0.3913  0.5329 -2.7027
72888SOL     OW30388  11.035   4.380   9.476 -0.2541  0.2023 -0.3131
72888SOL    HW130389  11.044   4.463   9.523  1.3520 -1.4720  2.6813
72888SOL    HW230390  11.123   4.362   9.443  0.3303 -1.7581  2.0059
72889SOL     OW30391  10.832   2.285   8.780 -0.1234 -0.3134 -0.5773
72889SOL    HW130392  10.867   2.325   8.859  3.9111 -2.1512 -1.1964
72889SOL    HW230393  10.789   2.205   8.810 -0.1899 -0.1214 -0.1503
72890SOL     OW30394  10.580   0.237   1.382  0.6965  0.0892  0.2453
72890SOL    HW130395  10.599   0.315   1.330  1.8126 -0.8995 -0.8580
72890SOL    HW230396  10.559   0.272   1.469 -1.6035  1.7969 -0.8832
72891SOL     OW30397   7.800   4.374   1.490 -0.4171  0.2020 -0.3802
72891SOL    HW130398   7.869   4.322   1.449  1.6795  0.5990  2.3291
72891SOL    HW230399   7.845   4.452   1.523 -2.0901  0.3834  1.7280
72892SOL     OW30400   5.664   9.944   7.838  0.0007 -0.0141 -0.0427
72892SOL    HW130401   5.702   9.931   7.924  0.3503 -1.0028 -0.3360
72892SOL    HW230402   5.706   9.879   7.782  0.1011  0.8958 -1.0659
72893SOL     OW30403   7.246  10.873   8.107  0.0548  0.1525  0.2180
72893SOL    HW130404   7.260  10.869   8.013  1.9086 -0.2477  0.4777
72893SOL    HW230405   7.334  10.879   8.145 -0.3662 -2.8621  2.0520
72894SOL     OW30406   6.813   4.755   0.645  0.4464  0.5305 -1.1891
72894SOL    HW130407   6.780   4.667   0.663  0.0798  1.1780  1.7776
72894SOL    HW230408   6.873   4.744   0.571  0.4516 -2.2235 -0.8608
72895SOL     OW30409   7.448   5.392  10.503 -0.1386  0.1345 -0.1320
72895SOL    HW130410   7.438   5.469  10.446  1.0291  0.7337  0.4331
72895SOL    HW230411   7.441   5.427  10.592  0.8375 -0.3202  0.1380
72896SOL     OW30412   7.823   6.802   8.750  0.2324  0.3736  0.8998
72896SOL    HW130413   7.761   6.805   8.823  1.2589  0.5026  1.7998
72896SOL    HW230414   7.908   6.816   8.791  0.9247 -0.4242 -0.2283
72897SOL     OW30415   8.123   6.689   0.784 -0.4363  0.0266 -0.0288
72897SOL    HW130416   8.088   6.654   0.702  1.6824  0.0077 -0.9694
72897SOL    HW230417   8.154   6.613   0.832  0.1445  0.2090 -0.1065
72898SOL     OW30418   6.942  12.387   3.817  0.7026  0.1380 -0.1481
72898SOL    HW130419   6.902  12.459   3.768 -1.4651 -0.5322  0.5475
72898SOL    HW230420   6.958  12.424   3.904 -1.0432 -0.3439  0.4215
72899SOL     OW30421   1.361   9.105  10.840  0.1801  0.5239  0.3812
72899SOL    HW130422   1.340   9.096  10.933 -0.8880  0.6330  0.1650
72899SOL    HW230423   1.313   9.034  10.797 -1.7574  2.2261 -0.4109
72900SOL     OW30424   1.397   2.612   8.781 -0.0081 -0.0187  0.0140
72900SOL    HW130425   1.360   2.647   8.862  0.2560  1.4306 -0.4696
72900SOL    HW230426   1.465   2.675   8.756  2.7076 -2.3986  0.7369
72901SOL     OW30427  12.646   7.915  12.419 -0.2040 -0.0503 -0.2788
72901SOL    HW130428  12.601   7.882  12.341  0.9136  0.1282 -1.0254
72901SOL    HW230429  12.603   7.998  12.439 -2.1710 -1.2611  0.8357
72902SOL     OW30430   6.911   8.421  12.949  0.0188 -0.1386 -0.5583
72902SOL    HW130431   6.891   8.407  13.042  1.7781 -3.6466 -0.5520
72902SOL    HW230432   6.828   8.403  12.904 -0.5296  0.3753  0.2011
72903SOL     OW30433   1.639   8.038  10.785  0.6461 -0.1472 -0.3193
72903SOL    HW130434   1.678   8.111  10.833  0.9119 -0.2973 -0.3082
72903SOL    HW230435   1.621   7.972  10.852 -0.8076  0.4077 -0.1127
72904SOL     OW30436  12.518  10.369   2.195 -0.1647 -0.0571 -0.4399
72904SOL    HW130437  12.609  10.358   2.165 -0.2278  1.1032 -1.1086
72904SOL    HW230438  12.479  10.282   2.184  1.4771 -1.2276  2.1239
72905SOL     OW30439  13.459  13.291   1.685 -0.4298 -0.2090 -0.5008
72905SOL    HW130440  13.380  13.314   1.636 -0.5105  0.1727 -0.1958
72905SOL    HW230441  13.476  13.367   1.740 -1.3529 -1.2997  1.3638
72906SOL     OW30442   7.176  12.803   0.399  0.2313 -0.2565 -0.7919
72906SOL    HW130443   7.147  12.866   0.333 -1.3579  1.5510  1.4531
72906SOL    HW230444   7.264  12.778   0.372  1.1761  3.3834 -1.5691
72907SOL     OW30445   8.705   4.980   8.421  0.3271 -0.0389 -0.4446
72907SOL    HW130446   8.640   4.994   8.490  1.2811  0.3868  0.3961
72907SOL    HW230447   8.679   4.897   8.380 -2.5781  1.6029 -2.2564
72908SOL     OW30448   1.259   6.016  12.230  0.5867 -0.2226  0.0933
72908SOL    HW130449   1.288   5.926  12.245 -0.3277 -0.9861 -2.2568
72908SOL    HW230450   1.290   6.064  12.307  1.0984 -2.5228  1.4249
72909SOL     OW30451  10.126   6.682   6.406 -0.3809 -0.2408  0.2874
72909SOL    HW130452  10.211   6.725   6.395 -0.1544 -0.9994 -1.1833
72909SOL    HW230453  10.065   6.753   6.423  0.4763  0.3431  1.0515
72910SOL     OW30454   9.580  10.958   1.127 -0.5021 -0.0095 -0.6529
72910SOL    HW130455   9.663  10.947   1.174 -1.2192  1.0824  0.9526
72910SOL    HW230456   9.584  10.894   1.056  1.4225 -0.4435 -0.2060
72911SOL     OW30457   2.597  10.092   6.288 -0.1667  0.0796  0.5510
72911SOL    HW130458   2.655  10.073   6.361 -0.2361  0.5433  0.7317
72911SOL    HW230459   2.654  10.132   6.222 -0.4819  1.7772  1.2397
72912SOL     OW30460  11.148   4.187   5.045  0.4062 -0.5756  0.0919
72912SOL    HW130461  11.192   4.104   5.025  2.5153  0.1140  1.5395
72912SOL    HW230462  11.198   4.252   4.997  0.0562  0.0907  0.6215
72913SOL     OW30463   9.441   6.810  11.757 -0.2790 -0.4467 -0.1950
72913SOL    HW130464   9.354   6.850  11.749 -0.5816 -0.9147  0.5882
72913SOL    HW230465   9.480   6.853  11.833  0.2419 -0.1301 -0.6372
72914SOL     OW30466   8.162  13.502   1.731 -0.2638  0.1333  0.5849
72914SOL    HW130467   8.165  13.417   1.774 -0.8857  0.1195  0.6031
72914SOL    HW230468   8.070  13.515   1.708  0.0165  0.2152 -0.5874
72915SOL     OW30469   7.100   1.199   4.043  0.2960 -0.1360 -0.1590
72915SOL    HW130470   7.020   1.197   4.095  0.3339  0.5068 -0.0599
72915SOL    HW230471   7.143   1.116   4.061  0.1061 -0.0911  0.5162
72916SOL     OW30472   8.170   2.113   9.923  0.1944  0.6642  0.0281
72916SOL    HW130473   8.261   2.139   9.905 -0.2410  1.4802 -1.1002
72916SOL    HW230474   8.122   2.138   9.845 -0.5514 -2.2795 -0.5658
72917SOL     OW30475   3.878   1.422  10.322 -0.4170 -0.1181 -0.8625
72917SOL    HW130476   3.891   1.511  10.291  0.8053  0.0175 -0.0352
72917SOL    HW230477   3.902   1.367  10.247 -0.7635  0.2326 -1.2360
72918SOL     OW30478   3.285   0.481  10.559 -0.5320  0.2982  0.1606
72918SOL    HW130479   3.228   0.427  10.614 -0.5373  0.8103  0.6639
72918SOL    HW230480   3.233   0.559  10.539 -0.4108  0.2634 -0.3022
72919SOL     OW30481   2.068   8.620   8.698  0.4178 -0.1775 -0.2055
72919SOL    HW130482   2.062   8.531   8.734  0.6558  0.0563  0.4154
72919SOL    HW230483   2.108   8.608   8.612 -0.6158 -0.7979 -0.6223
72920SOL     OW30484  12.635  11.802  11.064 -0.1427 -0.6129  0.0870
72920SOL    HW130485  12.585  11.832  11.140  1.1647  0.6684  0.4929
72920SOL    HW230486  12.722  11.781  11.099 -0.0291 -1.6775 -0.7817
72921SOL     OW30487   7.103  12.714   0.708  0.6036  0.0223 -0.5601
72921SOL    HW130488   7.192  12.721   0.674  1.4356 -1.2887  1.1622
72921SOL    HW230489   7.048  12.705   0.630  2.0126  0.5112 -1.6475
72922SOL     OW30490  10.714   3.880  10.753 -0.0257  0.3219 -0.4961
72922SOL    HW130491  10.723   3.789  10.727  0.5477  0.7635 -1.9658
72922SOL    HW230492  10.752   3.885  10.841  0.1097 -0.7992 -0.4888
72923SOL     OW30493   1.661   1.538  10.820  0.1583 -0.5140 -0.1657
72923SOL    HW130494   1.672   1.501  10.733 -0.5807 -2.8882  0.6820
72923SOL    HW230495   1.576   1.582  10.817 -0.5443 -1.8358 -0.2718
72924SOL     OW30496   5.631  11.515   7.856 -0.2131  0.3551 -0.0408
72924SOL    HW130497   5.590  11.430   7.842  0.3784  0.3670 -2.2450
72924SOL    HW230498   5.714  11.511   7.808 -0.0191  2.0527  0.0630
72925SOL     OW30499   1.710   5.633  13.636  0.0605  0.7901  0.0054
72925SOL    HW130500   1.699   5.553  13.687  0.4873 -0.3041 -1.5575
72925SOL    HW230501   1.713   5.703  13.701  0.7839 -0.5649  1.4870
72926SOL     OW30502   1.418  12.305   0.189  0.0910  0.7347  0.1484
72926SOL    HW130503   1.445  12.261   0.109  0.3527 -1.9218  1.5874
72926SOL    HW230504   1.489  12.288   0.251 -1.6005 -0.3157  1.9138
72927SOL     OW30505   6.592  12.304  13.099  0.6874 -0.8061  0.1494
72927SOL    HW130506   6.507  12.266  13.121  0.3275 -1.0045 -1.4578
72927SOL    HW230507   6.654  12.232  13.111  0.4797 -0.9710  0.2547
72928SOL     OW30508   5.048   8.374   9.371 -0.4379  0.2743 -0.3739
72928SOL    HW130509   5.027   8.460   9.335  0.1045  0.3765 -0.4584
72928SOL    HW230510   5.125   8.390   9.427  0.2324 -0.3147 -1.1110
72929SOL     OW30511   3.879   4.454  12.629 -0.1045  0.4389 -0.0540
72929SOL    HW130512   3.838   4.468  12.544 -2.8994 -0.0820  1.0848
72929SOL    HW230513   3.891   4.542  12.664 -0.8676  0.6066 -0.1838
72930SOL     OW30514   9.594   2.732   8.874 -0.6215  0.4886  0.2141
72930SOL    HW130515   9.616   2.825   8.875 -0.6703  0.5304 -1.1616
72930SOL    HW230516   9.571   2.712   8.965  2.1524  1.1263  1.1333
72931SOL     OW30517  12.278   1.339  11.847 -0.1580  0.3191  0.7008
72931SOL    HW130518  12.224   1.416  11.860  0.2964  1.2139 -2.0234
72931SOL    HW230519  12.340   1.365  11.778  3.0479 -0.9946  2.8613
72932SOL     OW30520  12.308   4.409   3.403  0.1034  0.6528  0.8417
72932SOL    HW130521  12.333   4.325   3.363 -1.3540  0.9594 -0.8249
72932SOL    HW230522  12.358   4.412   3.484  3.6652  0.2210 -1.1215
72933SOL     OW30523   6.912   4.070   9.430  0.1216  0.3707 -0.3708
72933SOL    HW130524   6.988   4.060   9.486 -0.4410  0.6709  0.4580
72933SOL    HW230525   6.920   4.000   9.365  0.1787 -0.7231  0.7831
72934SOL     OW30526   2.010   2.331  11.380 -0.3556 -0.2521  0.2915
72934SOL    HW130527   2.043   2.420  11.392 -0.9072 -0.1595  1.1734
72934SOL    HW230528   2.089   2.277  11.373  0.0567 -0.0583  2.5805
72935SOL     OW30529   1.642  10.464   2.601 -0.6308  0.2165  0.1573
72935SOL    HW130530   1.610  10.375   2.614 -0.8002 -0.0173 -1.6288
72935SOL    HW230531   1.563  10.518   2.596 -0.5233  0.5587  1.5445
72936SOL     OW30532  12.384   7.585   2.620  0.5640 -0.0456  0.2271
72936SOL    HW130533  12.400   7.680   2.621 -0.1445  0.0928 -0.2154
72936SOL    HW230534  12.319   7.571   2.689  0.2670 -0.1156 -0.0589
72937SOL     OW30535  13.742   2.178   0.891  0.3493 -0.5995 -0.0637
72937SOL    HW130536  13.651   2.172   0.921  0.8791  0.1441  1.8211
72937SOL    HW230537  13.739   2.240   0.819 -0.6487 -0.6429 -0.0839
72938SOL     OW30538  10.786  11.073   1.545  0.3423  0.0832  0.3741
72938SOL    HW130539  10.724  11.061   1.474  0.3882  0.9079  0.1797
72938SOL    HW230540  10.752  11.019   1.617 -0.3034  0.1111  0.0934
72939SOL     OW30541   4.965   3.374   6.182  0.2301 -0.3100  0.0330
72939SOL    HW130542   4.998   3.444   6.237 -2.0943  2.1320 -1.4071
72939SOL    HW230543   4.884   3.345   6.225 -0.3733 -0.0074 -0.8643
72940SOL     OW30544   6.517   7.084   8.745  0.0682  0.0870 -0.4061
72940SOL    HW130545   6.529   7.012   8.808 -2.7811  0.5983  0.8966
72940SOL    HW230546   6.520   7.041   8.659  1.5905 -1.0260  0.1475
72941SOL     OW30547   7.193   5.820   0.252 -0.6184  0.1956 -0.4010
72941SOL    HW130548   7.184   5.892   0.314  1.2117 -0.0388  0.1785
72941SOL    HW230549   7.157   5.855   0.170 -2.7107  0.6410  0.6361
72942SOL     OW30550   2.924  11.117   5.426 -0.5281  0.0426  0.7029
72942SOL    HW130551   2.927  11.208   5.397  2.3941  0.1693  1.0577
72942SOL    HW230552   2.874  11.071   5.359 -0.2188  1.5593 -0.6123
72943SOL     OW30553   1.779   4.857   3.251  0.2153 -0.2043  0.4043
72943SOL    HW130554   1.789   4.892   3.339 -0.1522  0.6298  0.1231
72943SOL    HW230555   1.825   4.773   3.253 -0.0557 -0.3298  1.4652
72944SOL     OW30556  12.103   1.963   4.693 -0.2277 -0.5583 -0.2123
72944SOL    HW130557  12.117   2.049   4.653 -1.2989 -0.1874  0.1907
72944SOL    HW230558  12.191   1.926   4.700  0.0494 -0.4454 -2.4213
72945SOL     OW30559   4.326   3.846   6.938  0.2286 -0.9312  0.3713
72945SOL    HW130560   4.314   3.779   7.005  2.2989 -1.2514  0.4942
72945SOL    HW230561   4.264   3.823   6.869 -0.7509 -1.5723  1.4436
72946SOL     OW30562   2.028   0.434  12.801 -0.0294  0.1830  0.1809
72946SOL    HW130563   2.033   0.460  12.893  1.5006  0.1796  0.1354
72946SOL    HW230564   1.955   0.485  12.765 -0.2290  0.6661  1.2432
72947SOL     OW30565   5.422   7.439  11.918  0.6777 -0.0268  0.1147
72947SOL    HW130566   5.409   7.529  11.885 -1.4556  0.2883  1.6146
72947SOL    HW230567   5.486   7.449  11.988 -0.3566  0.5489  1.0111
72948SOL     OW30568   4.492   0.528   9.123 -0.1844  0.5301 -0.4635
72948SOL    HW130569   4.492   0.511   9.029  2.2833 -1.2090 -0.2690
72948SOL    HW230570   4.583   0.512   9.150 -0.9332  0.3979  2.2970
72949SOL     OW30571  12.814   7.540   4.385 -0.0141 -0.1955 -0.0126
72949SOL    HW130572  12.868   7.463   4.373 -0.3167 -0.3511 -0.4299
72949SOL    HW230573  12.771   7.527   4.469 -0.5674 -0.8011 -0.3786
72950SOL     OW30574  10.313  11.223   4.137  0.0205 -0.0138 -0.3450
72950SOL    HW130575  10.272  11.181   4.212  2.3870  0.5410  1.3700
72950SOL    HW230576  10.373  11.287   4.175  1.1654  0.4370 -2.7283
72951SOL     OW30577  10.942   8.443   5.217  0.2248 -0.2254 -0.4217
72951SOL    HW130578  10.961   8.470   5.128 -3.1151  0.3136 -1.1282
72951SOL    HW230579  10.922   8.350   5.211  1.4413 -0.5397  0.0841
72952SOL     OW30580  10.970   5.815  10.218 -0.3044 -0.9829  0.6161
72952SOL    HW130581  10.889   5.776  10.252  0.4668 -1.5505  1.8958
72952SOL    HW230582  10.965   5.907  10.244 -0.1560 -1.2067  1.4745
72953SOL     OW30583   8.965   5.048   5.330 -0.1393  0.2117  0.2899
72953SOL    HW130584   8.969   4.953   5.340  1.3633  0.1531 -0.6724
72953SOL    HW230585   8.976   5.063   5.236  1.0796  1.3899  0.5973
72954SOL     OW30586  10.650   7.925   7.490  0.5180 -0.1814 -0.3729
72954SOL    HW130587  10.615   7.860   7.551  0.5642  1.2433  1.2294
72954SOL    HW230588  10.687   7.873   7.418 -0.5584 -1.8664  0.2329
72955SOL     OW30589  11.832   8.146   7.383  0.6065 -0.1566 -0.1663
72955SOL    HW130590  11.882   8.183   7.455  1.4814  1.1816 -1.4083
72955SOL    HW230591  11.843   8.051   7.392  0.5395 -0.0266  1.5274
72956SOL     OW30592   4.531   8.772   3.163 -0.0989  0.4963 -0.0641
72956SOL    HW130593   4.593   8.709   3.200 -0.3352  0.9124  1.0750
72956SOL    HW230594   4.577   8.809   3.087  1.6492  1.7820  1.5307
72957SOL     OW30595  11.355   9.829   8.415 -0.1239  0.2768  0.0161
72957SOL    HW130596  11.447   9.852   8.430  0.1660 -0.7944  0.0098
72957SOL    HW230597  11.318   9.905   8.370  1.4027 -0.2117 -2.2599
72958SOL     OW30598   6.211   2.208   0.920  0.7422  0.3542  0.0603
72958SOL    HW130599   6.203   2.127   0.970  1.2854 -0.0910 -0.5522
72958SOL    HW230600   6.294   2.198   0.873  1.2529  1.6446  0.6556
72959SOL     OW30601   7.834   0.723   8.330 -0.0180  0.1759  0.0175
72959SOL    HW130602   7.916   0.765   8.305  0.3062 -1.2257 -1.4460
72959SOL    HW230603   7.788   0.709   8.247 -0.8175 -0.8832  0.6213
72960SOL     OW30604   6.994   0.925  11.874  0.0379 -0.0377 -0.1142
72960SOL    HW130605   7.023   0.917  11.965 -1.4729  0.1277  0.3957
72960SOL    HW230606   6.901   0.943  11.879 -0.7490 -2.9531 -1.7665
72961SOL     OW30607   2.230   3.981   9.727  0.1867  0.0482  0.7429
72961SOL    HW130608   2.235   4.066   9.772  1.1257  0.5612 -0.3049
72961SOL    HW230609   2.177   3.927   9.786  0.5479  0.9972  1.9962
72962SOL     OW30610   3.757   6.217   8.315 -0.4536 -0.5171  0.9787
72962SOL    HW130611   3.719   6.280   8.253 -0.7587 -0.1131  1.5585
72962SOL    HW230612   3.803   6.154   8.260 -1.6463 -0.8032  0.2590
72963SOL     OW30613  11.332   2.302  10.706 -0.4281 -0.6929 -0.2274
72963SOL    HW130614  11.361   2.218  10.671  1.9558 -0.1953  0.4251
72963SOL    HW230615  11.286   2.344  10.633 -1.9830 -2.6447 -0.4622
72964SOL     OW30616   9.643   3.985   9.181  0.7384  0.3241  0.3724
72964SOL    HW130617   9.650   3.891   9.194 -0.3745  0.2764  0.7077
72964SOL    HW230618   9.610   4.019   9.264  1.7424  1.1007  0.4733
72965SOL     OW30619   9.273   4.517   2.014 -0.0181 -0.4684  0.2844
72965SOL    HW130620   9.307   4.605   2.027 -2.4119  1.1534 -2.9788
72965SOL    HW230621   9.262   4.509   1.919 -1.7845 -3.5386  0.6139
72966SOL     OW30622   9.348   4.601   0.256 -0.1744  0.4024 -0.1950
72966SOL    HW130623   9.369   4.691   0.281  0.3590  0.9737 -2.4124
72966SOL    HW230624   9.255   4.591   0.278 -0.0097  1.1770  0.9138
72967SOL     OW30625  10.096   6.869  10.278 -0.1111 -0.0830  0.1432
72967SOL    HW130626  10.046   6.895  10.200 -0.8353 -0.0061  0.6204
72967SOL    HW230627  10.048   6.794  10.314  0.1803 -0.0806  0.5468
72968SOL     OW30628  11.466   7.099   0.507  0.6807 -0.2350 -0.4251
72968SOL    HW130629  11.422   7.099   0.592  1.3289  0.2503 -0.0813
72968SOL    HW230630  11.406   7.145   0.448  1.1985  1.4464  0.3069
72969SOL     OW30631  11.688  11.098  11.010  0.4782 -0.1512  0.6885
72969SOL    HW130632  11.692  11.013  11.053 -0.7422 -1.0530 -0.8640
72969SOL    HW230633  11.744  11.088  10.932  0.0668  0.3482  0.3192
72970SOL     OW30634   5.726   9.527   1.057  0.0299 -0.0263  0.6944
72970SOL    HW130635   5.676   9.478   1.122  0.7580 -0.9211  0.6118
72970SOL    HW230636   5.758   9.604   1.105 -0.6775  0.0989  0.9777
72971SOL     OW30637   7.045   0.625   0.630 -0.5116 -0.0327 -0.2907
72971SOL    HW130638   7.117   0.617   0.693  1.1165 -0.2838 -2.0732
72971SOL    HW230639   6.967   0.598   0.679  0.8441 -1.3231  1.2822
72972SOL     OW30640  13.395  13.735   5.209  0.2287 -0.3724  0.2970
72972SOL    HW130641  13.452  13.802   5.170  0.4865 -1.2941 -0.9600
72972SOL    HW230642  13.341  13.784   5.271  0.4299  1.0129 -0.5614
72973SOL     OW30643   6.444  13.402  12.921 -0.4449 -0.5385 -0.2418
72973SOL    HW130644   6.425  13.316  12.958  0.0347 -0.3799  0.3918
72973SOL    HW230645   6.413  13.464  12.987  0.0592 -0.2480 -0.2752
72974SOL     OW30646  12.752   8.999   0.950  0.3991 -0.4163  0.2948
72974SOL    HW130647  12.816   9.030   0.887  2.0573 -0.5369  1.8264
72974SOL    HW230648  12.742   9.072   1.012 -0.2937 -0.7211  0.5515
72975SOL     OW30649   6.040  11.116   7.127 -1.0765 -0.6305  0.0660
72975SOL    HW130650   6.059  11.204   7.096  0.7282 -0.4438  1.4970
72975SOL    HW230651   5.994  11.074   7.054 -0.0408  0.7994 -1.5000
72976SOL     OW30652  12.139   9.079   2.595  0.2715  0.4474  0.2573
72976SOL    HW130653  12.110   8.995   2.630 -0.4841  1.2647  1.6818
72976SOL    HW230654  12.219   9.099   2.644 -1.3363  2.0776  2.4019
72977SOL     OW30655   6.183   4.692  12.398 -0.2166 -0.0097  0.5007
72977SOL    HW130656   6.100   4.725  12.363  0.6306  0.6249 -1.0221
72977SOL    HW230657   6.158   4.642  12.475 -2.0231  0.1435  0.0671
72978SOL     OW30658   9.606  11.257  10.617 -0.3750  0.4933  0.1858
72978SOL    HW130659   9.614  11.193  10.687 -1.0087 -0.1704 -0.3292
72978SOL    HW230660   9.567  11.334  10.660 -0.2215  0.3033  0.6728
72979SOL     OW30661   9.067   3.163   4.140  0.3899  0.4941 -0.1392
72979SOL    HW130662   9.047   3.219   4.064 -0.3430  1.1383  0.5035
72979SOL    HW230663   9.008   3.089   4.131 -0.4207  1.0613  0.3084
72980SOL     OW30664  11.591  10.930   3.125  0.0228  0.1428 -0.5984
72980SOL    HW130665  11.654  10.956   3.192 -0.5470 -0.9172  0.3830
72980SOL    HW230666  11.510  10.914   3.174  0.0608 -2.3961 -1.2584
72981SOL     OW30667  13.482   5.084   7.502  0.3372 -0.0557  0.0273
72981SOL    HW130668  13.496   5.176   7.477 -0.6784 -0.3330 -1.7454
72981SOL    HW230669  13.401   5.059   7.458 -1.0588 -0.9902  2.8705
72982SOL     OW30670   4.602   0.827  10.879 -0.1821  0.2789  0.8447
72982SOL    HW130671   4.659   0.878  10.935 -1.7901  1.2684  1.6542
72982SOL    HW230672   4.528   0.803  10.935 -1.3453  0.4067 -0.5713
72983SOL     OW30673  11.879   1.677   9.205  0.1327  0.0260  0.0239
72983SOL    HW130674  11.924   1.752   9.244 -0.8687 -0.3296  1.9943
72983SOL    HW230675  11.838   1.712   9.126  0.3373  1.3623  0.4755
72984SOL     OW30676  13.276   6.085   8.375  0.7991 -0.0149  0.1790
72984SOL    HW130677  13.280   5.994   8.403 -0.2815  0.0143  0.4621
72984SOL    HW230678  13.199   6.089   8.318  0.7048  0.7668  0.3570
72985SOL     OW30679   5.749   7.406  10.542  0.2056  0.4791 -0.4135
72985SOL    HW130680   5.705   7.461  10.606  0.5721  0.8882 -0.5101
72985SOL    HW230681   5.800   7.467  10.489  1.6882 -0.0844  0.3155
72986SOL     OW30682   9.643  13.397  11.439  0.3540  0.1138  0.1070
72986SOL    HW130683   9.724  13.348  11.451 -0.8850 -2.1602 -0.2483
72986SOL    HW230684   9.614  13.374  11.350 -0.5428  1.1200  0.1138
72987SOL     OW30685   8.362   2.686  10.730  0.3498  1.1810 -0.4414
72987SOL    HW130686   8.361   2.632  10.651 -1.7027  1.3849 -0.5962
72987SOL    HW230687   8.453   2.715  10.738  1.4003 -1.7573 -0.6784
72988SOL     OW30688   9.943   3.075   6.490 -0.1385 -0.3053 -0.2026
72988SOL    HW130689   9.970   3.127   6.415 -0.7673 -2.1936 -1.8430
72988SOL    HW230690   9.861   3.114   6.519  0.0180  0.3279 -0.5988
72989SOL     OW30691   0.684   8.707   1.346  0.1001 -0.1191 -0.1313
72989SOL    HW130692   0.682   8.657   1.264  0.9733 -0.5500  0.0961
72989SOL    HW230693   0.622   8.778   1.332 -1.1704 -1.2372 -0.4784
72990SOL     OW30694   9.292   0.352   1.516 -0.0949  0.2102 -0.2865
72990SOL    HW130695   9.218   0.313   1.563 -0.5462  1.0958 -0.2542
72990SOL    HW230696   9.279   0.325   1.425 -0.8169  0.8835 -0.3936
72991SOL     OW30697  11.953  11.378   0.676 -0.3769  0.2301  0.3665
72991SOL    HW130698  11.942  11.342   0.764 -0.0338 -0.6507  0.0616
72991SOL    HW230699  12.014  11.451   0.687 -1.0129  0.6767  0.9806
72992SOL     OW30700   5.125   7.677   3.236  0.2444 -0.2283 -0.3639
72992SOL    HW130701   5.152   7.588   3.213 -0.7389 -0.4574 -0.6613
72992SOL    HW230702   5.043   7.691   3.188 -0.5421  0.1925  1.0358
72993SOL     OW30703   2.599   3.285  11.012 -0.3161  0.1911  0.6139
72993SOL    HW130704   2.532   3.334  10.965 -0.9151 -0.4400  0.7938
72993SOL    HW230705   2.615   3.208  10.958 -2.1436 -1.3564  2.1214
72994SOL     OW30706   8.139   8.144  12.700  0.2986 -0.0821 -0.2212
72994SOL    HW130707   8.151   8.052  12.676  0.7090 -0.6439  1.9463
72994SOL    HW230708   8.084   8.179  12.630  0.9820 -1.6805 -1.6672
72995SOL     OW30709  13.426  13.260   7.792  0.6278  0.1250  0.2194
72995SOL    HW130710  13.499  13.312   7.826  1.2081 -0.9503  0.6899
72995SOL    HW230711  13.436  13.175   7.835 -0.6570 -0.1817 -0.0487
72996SOL     OW30712   8.587   3.085   5.504 -0.3512 -0.2700 -0.8666
72996SOL    HW130713   8.592   2.991   5.522  1.0945 -0.1276 -0.3275
72996SOL    HW230714   8.601   3.092   5.410 -1.1760 -0.6261 -1.0236
72997SOL     OW30715   6.547   6.575   2.187 -0.4880 -0.2294  0.4142
72997SOL    HW130716   6.515   6.565   2.277  0.4165  0.8288  0.8729
72997SOL    HW230717   6.639   6.550   2.192 -0.1464  0.8915  0.0318
72998SOL     OW30718   7.358  11.359  11.464  0.0815 -0.0470 -0.7304
72998SOL    HW130719   7.288  11.294  11.462 -1.0709  1.1297 -0.6279
72998SOL    HW230720   7.312  11.443  11.454  1.4742  0.7741 -0.4813
72999SOL     OW30721  10.591   2.402   8.685 -0.7262 -0.1649 -0.1648
72999SOL    HW130722  10.683   2.375   8.693 -0.3140  1.0122 -0.6637
72999SOL    HW230723  10.569   2.382   8.594 -1.2096 -1.1045  0.1411
73000SOL     OW30724  12.164   0.346  11.112 -0.5697  0.1722  0.1153
73000SOL    HW130725  12.144   0.433  11.078 -1.5722  1.0644  2.7432
73000SOL    HW230726  12.165   0.357  11.207  0.8521 -2.3847  0.4808
73001SOL     OW30727  13.501   9.994  11.940 -0.3761  0.5155  0.4458
73001SOL    HW130728  13.526   9.958  12.025  0.4249  1.1264  0.4877
73001SOL    HW230729  13.584  10.000  11.891 -1.0356 -1.4020 -1.0208
73002SOL     OW30730   0.598  11.967   3.175  0.1711  0.4223  1.2508
73002SOL    HW130731   0.633  11.882   3.146 -1.9373  0.0616 -0.4694
73002SOL    HW230732   0.637  12.030   3.114  2.0701  0.8462  2.7854
73003SOL     OW30733   8.163   2.880   2.092 -0.2752 -0.4146  0.6422
73003SOL    HW130734   8.216   2.809   2.127 -0.7538 -0.8808  0.4377
73003SOL    HW230735   8.222   2.955   2.089  0.7353 -1.2259 -0.7388
73004SOL     OW30736   4.701   7.323   5.986  0.4885 -0.4423 -0.3354
73004SOL    HW130737   4.709   7.227   5.989 -1.5884 -0.6330  1.0352
73004SOL    HW230738   4.662   7.346   6.070 -0.1175  1.5037 -1.1048
73005SOL     OW30739   0.786   2.702   8.864 -0.2699  0.0242 -0.0457
73005SOL    HW130740   0.858   2.711   8.926 -1.3204 -1.4400  1.4754
73005SOL    HW230741   0.827   2.709   8.778  1.7171 -0.9060  0.7652
73006SOL     OW30742   0.475   7.702   2.746 -0.8500  0.2625 -0.0925
73006SOL    HW130743   0.569   7.683   2.746 -0.8438  0.0185  2.0297
73006SOL    HW230744   0.445   7.671   2.832 -2.9449 -0.0001 -0.8782
73007SOL     OW30745   2.597   7.843   0.801  0.1925 -0.1564 -0.4953
73007SOL    HW130746   2.689   7.825   0.782 -0.2709 -1.6035 -1.6147
73007SOL    HW230747   2.562   7.880   0.720 -0.2146  0.4109 -0.0701
73008SOL     OW30748   0.577   1.347   0.615 -0.6484  0.4002  0.5498
73008SOL    HW130749   0.666   1.380   0.626 -0.3847 -0.3023  0.5761
73008SOL    HW230750   0.576   1.307   0.528 -0.5474 -0.7387  1.0457
73009SOL     OW30751  11.541  10.788   6.772 -0.2585  0.8686  0.1867
73009SOL    HW130752  11.607  10.842   6.729 -0.6102  0.9405 -0.2851
73009SOL    HW230753  11.482  10.851   6.814  0.4558  0.7772  1.3564
73010SOL     OW30754  11.988   6.695  10.638 -0.3504 -0.4779  0.4647
73010SOL    HW130755  12.061   6.757  10.634 -0.0954 -0.8237 -1.5053
73010SOL    HW230756  11.915   6.742  10.596  0.1201 -1.7742 -1.9646
73011SOL     OW30757   2.945   8.600   5.678  0.0501 -0.7135  0.3744
73011SOL    HW130758   2.894   8.676   5.705  0.3244 -0.5860  0.5413
73011SOL    HW230759   2.978   8.622   5.591  0.7701 -0.3086  0.7332
73012SOL     OW30760  12.483  12.826   3.606 -0.2987 -0.3107  0.6230
73012SOL    HW130761  12.418  12.877   3.557 -0.8688 -0.3128  1.3626
73012SOL    HW230762  12.546  12.892   3.636 -0.9606 -0.0390  1.4595
73013SOL     OW30763  12.649   1.216   9.390 -0.3757 -0.3355  0.0799
73013SOL    HW130764  12.720   1.241   9.449 -0.8025 -0.7729  0.8030
73013SOL    HW230765  12.642   1.121   9.400 -0.8098 -0.3425 -0.2673
73014SOL     OW30766   9.277   8.764  10.881  0.4103  0.2862  0.3395
73014SOL    HW130767   9.197   8.802  10.844  0.2905 -0.0622  0.2266
73014SOL    HW230768   9.268   8.776  10.976 -0.5808 -1.2281  0.4800
73015SOL     OW30769   9.603   3.483   9.929  0.4026  0.5907  0.0538
73015SOL    HW130770   9.643   3.492  10.015 -0.8696  1.3253  0.5891
73015SOL    HW230771   9.609   3.570   9.891 -1.4862  0.9707  0.5266
73016SOL     OW30772  12.846   5.422  10.736 -0.2624 -0.0878 -0.1219
73016SOL    HW130773  12.768   5.416  10.791 -0.7494 -1.1475 -0.9026
73016SOL    HW230774  12.919   5.420  10.798 -0.8291  1.2619  0.6432
73017SOL     OW30775   4.653  13.589  12.096  0.2385 -0.2187 -0.3911
73017SOL    HW130776   4.585  13.632  12.148  1.4000 -0.7203  1.6992
73017SOL    HW230777   4.612  13.569  12.013 -1.1747  2.3897 -0.4327
73018SOL     OW30778  13.170   9.632   5.566  0.0173 -0.1812 -0.1160
73018SOL    HW130779  13.189   9.539   5.559 -0.9312 -0.4017  0.0577
73018SOL    HW230780  13.204   9.657   5.653 -1.1888 -0.7560  0.5486
73019SOL     OW30781   0.572   9.307  11.949 -0.4209 -0.2096 -0.0268
73019SOL    HW130782   0.479   9.312  11.931 -0.7250 -0.4692  1.3687
73019SOL    HW230783   0.609   9.262  11.872 -1.3575  0.3250 -0.8009
73020SOL     OW30784   6.778   9.681   5.839 -0.0588 -0.0463  0.0988
73020SOL    HW130785   6.846   9.623   5.806  0.0789  0.0752  0.1698
73020SOL    HW230786   6.756   9.736   5.763 -1.5497 -1.4512 -0.5440
73021SOL     OW30787   2.280  12.728   5.146 -0.1180  0.0507  0.2788
73021SOL    HW130788   2.329  12.810   5.141 -0.4653  0.1913 -1.2672
73021SOL    HW230789   2.223  12.739   5.222  0.7881  0.6904  0.8862
73022SOL     OW30790   4.727   7.965   7.264  0.1057 -0.7489 -0.7594
73022SOL    HW130791   4.706   8.052   7.297  2.1890  0.3459 -2.0618
73022SOL    HW230792   4.709   7.906   7.337 -0.7875  0.8358  0.3554
73023SOL     OW30793   5.804   0.848   6.578  0.0639 -0.1774 -0.2827
73023SOL    HW130794   5.712   0.823   6.583 -0.0151 -0.2601 -1.5847
73023SOL    HW230795   5.847   0.773   6.536  0.1653  0.9836 -2.4326
73024SOL     OW30796   9.312   7.732   6.802 -0.1668 -0.2061  0.4629
73024SOL    HW130797   9.235   7.780   6.771 -0.8101 -0.2039  1.9379
73024SOL    HW230798   9.348   7.787   6.872  0.7386 -0.5588  0.2783
73025SOL     OW30799   4.835  10.048   6.100 -0.0887 -0.0798  0.0306
73025SOL    HW130800   4.806  10.031   6.190 -1.2415 -1.4669 -0.5496
73025SOL    HW230801   4.763  10.099   6.062 -1.1613 -2.2106 -0.9743
73026SOL     OW30802  10.358   5.812   1.580 -0.4698 -0.2769  0.2208
73026SOL    HW130803  10.438   5.771   1.546 -0.1875 -1.1296  1.7991
73026SOL    HW230804  10.342   5.885   1.521  1.0752 -0.5185 -0.5633
73027SOL     OW30805   0.722  10.774  13.589 -0.0931  0.4292  0.8945
73027SOL    HW130806   0.630  10.783  13.564  0.0286 -0.1579  0.1852
73027SOL    HW230807   0.720  10.721  13.669 -0.3874  0.6653  1.0420
73028SOL     OW30808   8.458   0.163   6.278  0.5942 -0.4443  0.0888
73028SOL    HW130809   8.541   0.122   6.302  0.5862  0.0150  0.9536
73028SOL    HW230810   8.457   0.245   6.328 -0.2351 -0.3008 -0.1550
73029SOL     OW30811   7.568  13.001   0.073 -0.2317  0.2713 -0.3221
73029SOL    HW130812   7.528  13.067   0.017 -0.7675 -0.2424 -0.5453
73029SOL    HW230813   7.662  13.007   0.053 -0.2516  1.0937 -0.1967
73030SOL     OW30814   8.353   3.848   5.590  0.1211 -0.3323  0.1243
73030SOL    HW130815   8.351   3.753   5.575 -0.0311 -0.6524  1.9505
73030SOL    HW230816   8.268   3.868   5.628  0.3512  0.4546  0.2308
73031SOL     OW30817   9.874  10.849  10.006 -0.2005  0.1904  0.2892
73031SOL    HW130818   9.947  10.891  10.051  0.8298  0.0343 -1.1783
73031SOL    HW230819   9.806  10.917  10.002  0.5046  0.8969  0.1504
73032SOL     OW30820  11.348   8.559  12.586 -0.0101  0.1310  0.0088
73032SOL    HW130821  11.344   8.484  12.646 -2.2379 -0.5113 -0.8242
73032SOL    HW230822  11.326   8.634  12.641  2.5533  0.2905  0.9187
73033SOL     OW30823  11.241   8.880   5.886 -0.2112 -0.3339  0.1575
73033SOL    HW130824  11.267   8.788   5.891 -2.0401 -0.9164 -0.3625
73033SOL    HW230825  11.234   8.909   5.977 -0.2615 -0.8929  0.3327
73034SOL     OW30826  10.221   6.173   3.795  0.8143 -0.1371 -0.4546
73034SOL    HW130827  10.267   6.237   3.740  1.2342 -0.9157 -1.0271
73034SOL    HW230828  10.289   6.137   3.852  0.7158 -0.5430 -0.5893
73035SOL     OW30829  12.825   1.938   0.929  0.4082 -0.1099  0.3560
73035SOL    HW130830  12.814   2.015   0.872  1.5821 -0.2484 -0.0880
73035SOL    HW230831  12.748   1.884   0.910  0.4891  0.1128 -0.6955
73036SOL     OW30832   4.943   9.799  10.654 -0.1323  0.2744 -0.6313
73036SOL    HW130833   4.926   9.841  10.738  2.4422  0.9405 -0.3609
73036SOL    HW230834   4.856   9.779  10.619 -1.4160  3.0767  0.6131
73037SOL     OW30835   8.684   6.385   5.004 -0.2885  0.1606  0.3254
73037SOL    HW130836   8.652   6.419   5.088 -1.8923  1.7283 -0.8352
73037SOL    HW230837   8.701   6.463   4.952  0.4333 -0.7900 -0.9085
73038SOL     OW30838  10.083   7.902   8.883  0.2292  0.2773  0.0331
73038SOL    HW130839  10.163   7.848   8.881 -1.1950 -1.9620 -1.8966
73038SOL    HW230840  10.032   7.865   8.955 -0.0099  0.1567 -0.1942
73039SOL     OW30841   8.817   8.890  12.134  0.0869 -0.1345  0.2651
73039SOL    HW130842   8.825   8.983  12.115  1.3161  0.1958  2.1382
73039SOL    HW230843   8.750   8.886  12.202  0.9555 -0.4708  1.1083
73040SOL     OW30844   0.442  10.621   7.658  0.6491  0.4477 -0.6619
73040SOL    HW130845   0.471  10.700   7.611  2.3719 -0.1180 -0.6098
73040SOL    HW230846   0.436  10.554   7.590 -1.7140  0.7935 -0.8682
73041SOL     OW30847   7.619   9.343   8.270  0.2245 -0.2326  0.0498
73041SOL    HW130848   7.545   9.395   8.300 -0.6095 -1.4829  0.2510
73041SOL    HW230849   7.644   9.381   8.187 -2.3130 -1.2996 -1.3038
73042SOL     OW30850   0.653   9.749  13.240  0.3206 -0.0596  0.1840
73042SOL    HW130851   0.594   9.707  13.302  1.3298 -0.8645  0.6233
73042SOL    HW230852   0.739   9.747  13.282  0.9482 -0.2318 -1.0382
73043SOL     OW30853  10.076   6.134   4.165 -0.5671 -0.0960  0.2411
73043SOL    HW130854  10.087   6.065   4.099 -1.3704 -1.0510  1.0846
73043SOL    HW230855  10.078   6.216   4.114  1.6971 -0.6025 -0.6373
73044SOL     OW30856   7.950   1.378   5.934  0.0905  0.1059  0.5092
73044SOL    HW130857   7.926   1.313   5.867  0.6802 -0.8320  1.1852
73044SOL    HW230858   7.868   1.424   5.952 -0.8298 -1.7712  1.4133
73045SOL     OW30859   4.598   3.569   6.493  0.0074  0.6699 -0.7824
73045SOL    HW130860   4.649   3.648   6.473 -1.3456  1.7253 -0.1661
73045SOL    HW230861   4.508   3.592   6.472 -0.5099 -0.4699  0.0976
73046SOL     OW30862   6.173   9.767   4.418  0.1458 -0.6113  0.4480
73046SOL    HW130863   6.117   9.702   4.376  1.0591 -0.3645 -1.2486
73046SOL    HW230864   6.234   9.716   4.471 -0.7163 -0.9618  1.1237
73047SOL     OW30865   9.798   4.822   3.451  0.1040 -0.1517 -0.0418
73047SOL    HW130866   9.724   4.806   3.393  0.1442 -0.0248 -0.1280
73047SOL    HW230867   9.791   4.914   3.476  0.2888 -0.1116 -0.1315
73048SOL     OW30868  12.599   1.599   0.257 -0.1099  0.6202 -0.2941
73048SOL    HW130869  12.530   1.552   0.212 -0.8611  0.4053  1.0399
73048SOL    HW230870  12.621   1.544   0.332  0.3929  1.4443  0.1782
73049SOL     OW30871   2.814   2.109  12.007 -0.0089 -0.0456  0.4165
73049SOL    HW130872   2.898   2.148  11.984 -0.6057  0.6677 -0.5840
73049SOL    HW230873   2.833   2.058  12.086  2.0201 -2.2590 -1.3530
73050SOL     OW30874   4.352  12.140   4.428 -0.1441  0.0131  0.1812
73050SOL    HW130875   4.258  12.155   4.438 -0.0857  0.6873 -0.2610
73050SOL    HW230876   4.364  12.047   4.451 -0.9016 -0.0598  0.3039
73051SOL     OW30877   4.834   6.876   0.336  0.1869 -0.4035 -0.2348
73051SOL    HW130878   4.801   6.788   0.354 -2.1400  0.1056 -1.6162
73051SOL    HW230879   4.765   6.919   0.286  0.3753  2.8793  1.9431
73052SOL     OW30880  10.153  13.649   6.352 -0.7611 -0.1743 -0.1832
73052SOL    HW130881  10.072  13.699   6.344 -0.2708  0.6944  0.1833
73052SOL    HW230882  10.202  13.693   6.421  1.3141  1.1376 -2.3714
73053SOL     OW30883   1.897   4.836   4.173  0.0835  0.1367  1.0022
73053SOL    HW130884   1.882   4.895   4.099  0.6040 -0.4139  0.4466
73053SOL    HW230885   1.810   4.799   4.192  0.0435 -0.1619  0.2759
73054SOL     OW30886   4.847  10.117   7.259 -0.1476  0.1243 -0.6805
73054SOL    HW130887   4.860  10.134   7.166  0.2111  0.4191 -0.5759
73054SOL    HW230888   4.819  10.201   7.296  1.4764  0.4927 -0.1951
73055SOL     OW30889   7.335   9.284   8.103 -0.2821  0.2035 -0.7403
73055SOL    HW130890   7.342   9.194   8.070 -0.3865  0.2745 -0.9622
73055SOL    HW230891   7.337   9.276   8.198  1.6597  0.1194 -0.7481
73056SOL     OW30892  10.223  10.850   3.010  0.0575  0.3258 -0.1818
73056SOL    HW130893  10.278  10.890   2.942 -0.2246  1.3635  0.1808
73056SOL    HW230894  10.263  10.878   3.092 -0.0292 -0.3234  0.0868
73057SOL     OW30895   2.633   2.339   0.564  0.2450  0.5597  0.8434
73057SOL    HW130896   2.659   2.316   0.653 -0.5509  3.4762  1.9528
73057SOL    HW230897   2.715   2.359   0.519  0.8126 -2.5484  0.2870
73058SOL     OW30898   8.476  12.872   3.029  0.5448  0.5697  0.0411
73058SOL    HW130899   8.491  12.826   3.111 -0.0430  1.4278  0.6413
73058SOL    HW230900   8.554  12.926   3.016  1.1222 -0.3699 -0.5342
73059SOL     OW30901   3.265  10.851   8.271 -0.5610  0.3618  0.1119
73059SOL    HW130902   3.333  10.792   8.303 -0.9415 -0.1365  0.0026
73059SOL    HW230903   3.309  10.905   8.206 -0.6172 -0.9652 -1.0669
73060SOL     OW30904  10.922  12.234   5.404 -0.2208  0.2480 -0.3146
73060SOL    HW130905  10.909  12.258   5.312 -0.1985 -1.3443 -0.7644
73060SOL    HW230906  11.003  12.183   5.404 -0.2882  0.1291  0.5740
73061SOL     OW30907   4.396   7.311   5.971  0.3882  0.2006 -0.4569
73061SOL    HW130908   4.432   7.223   5.962 -0.2011 -0.0080 -0.8028
73061SOL    HW230909   4.449   7.365   5.912 -1.1254 -0.4836 -2.5546
73062SOL     OW30910   5.375   2.248  10.444  0.8836 -0.3166  0.2622
73062SOL    HW130911   5.304   2.270  10.382 -0.3121  1.8373  2.2383
73062SOL    HW230912   5.346   2.167  10.485  0.7821 -0.7553 -0.6345
73063SOL     OW30913  12.768  11.434   4.335 -0.5563 -0.4664 -0.0129
73063SOL    HW130914  12.819  11.515   4.327 -0.9456 -0.0112  1.7754
73063SOL    HW230915  12.834  11.365   4.332 -0.1204 -0.0445 -0.5324
73064SOL     OW30916   9.217   5.197  13.505 -0.1688  0.4199 -0.3232
73064SOL    HW130917   9.198   5.261  13.436 -1.5903 -0.3027 -0.6584
73064SOL    HW230918   9.200   5.243  13.587  0.1345  0.8700 -0.5163
73065SOL     OW30919   6.830   0.229   3.771  0.5690 -0.1514  0.6715
73065SOL    HW130920   6.918   0.268   3.772 -0.5679  2.7056  2.3191
73065SOL    HW230921   6.805   0.222   3.863 -0.4234 -2.3189  0.3017
73066SOL     OW30922   7.562   5.971  11.811  0.6356 -0.1091 -0.1962
73066SOL    HW130923   7.540   5.878  11.810  0.8500 -0.1562 -0.8108
73066SOL    HW230924   7.650   5.974  11.849 -0.4127  0.0936  2.4322
73067SOL     OW30925  10.422   2.043  11.515 -0.0722 -0.0745 -0.5735
73067SOL    HW130926  10.497   2.049  11.574  0.1496  0.8922 -0.9306
73067SOL    HW230927  10.459   2.022  11.429 -0.3935 -1.4755 -0.3838
73068SOL     OW30928   7.756   8.067  10.881 -0.2378  0.2980 -0.5242
73068SOL    HW130929   7.667   8.053  10.913  0.6135  0.3210  2.0655
73068SOL    HW230930   7.745   8.130  10.810 -2.2232  0.9932  0.3045
73069SOL     OW30931   4.529  12.788   4.084 -0.3499  0.4689 -0.0438
73069SOL    HW130932   4.589  12.714   4.090 -0.6685  0.2579  0.5989
73069SOL    HW230933   4.499  12.802   4.174  0.4451  1.9884  0.0228
73070SOL     OW30934   6.515  10.971   9.867  0.1851 -0.1380 -0.1393
73070SOL    HW130935   6.550  11.050   9.910 -1.5313 -0.3913  1.8431
73070SOL    HW230936   6.578  10.902   9.890  1.0011  0.3588 -0.7982
73071SOL     OW30937   2.715   0.643   4.321 -0.3287  0.3674  0.1879
73071SOL    HW130938   2.723   0.618   4.413  0.3190 -1.8421 -0.4199
73071SOL    HW230939   2.762   0.726   4.314 -3.9239  2.9077  2.6373
73072SOL     OW30940   9.673   0.765  11.786  0.0968 -0.0458 -0.5754
73072SOL    HW130941   9.746   0.809  11.828  0.7138 -2.3947  0.9654
73072SOL    HW230942   9.713   0.713  11.717 -0.3929  0.2752 -1.1100
73073SOL     OW30943  11.104   5.190   0.037 -0.0692 -0.1743 -0.3149
73073SOL    HW130944  11.033   5.222   0.093 -2.2128 -2.7886 -1.3299
73073SOL    HW230945  11.078   5.216  -0.052 -0.0105 -1.5154 -0.7475
73074SOL     OW30946   6.717  11.006  10.896 -0.7855 -0.1143 -0.3397
73074SOL    HW130947   6.759  11.032  10.978 -1.2440 -0.0703 -0.1154
73074SOL    HW230948   6.660  10.933  10.921 -1.1465  0.0903 -0.5636
73075SOL     OW30949   4.958  11.301  10.289  0.2216 -0.2395 -0.3627
73075SOL    HW130950   4.975  11.370  10.225  0.9360  1.0323  1.1320
73075SOL    HW230951   5.045  11.272  10.318 -0.0827 -0.8997 -0.0780
73076SOL     OW30952   1.400   7.277   6.586  0.5153  0.0832 -0.1574
73076SOL    HW130953   1.432   7.260   6.674 -2.3743 -2.2040  0.6293
73076SOL    HW230954   1.307   7.299   6.598 -0.0804 -0.7449 -2.6157
73077SOL     OW30955   2.974   8.722  11.027 -0.0839  0.4516 -0.1696
73077SOL    HW130956   2.962   8.627  11.017  1.9442  0.3094 -1.8022
73077SOL    HW230957   2.986   8.755  10.938  2.1485  1.7830  0.5468
73078SOL     OW30958  11.135   1.961   3.459 -0.2920 -0.0693 -0.1009
73078SOL    HW130959  11.223   1.994   3.478 -0.3171  0.6182 -1.0822
73078SOL    HW230960  11.085   1.978   3.539  0.1366  0.7480  0.0073
73079SOL     OW30961   8.404   6.600   2.897  0.5288  0.3031 -0.5766
73079SOL    HW130962   8.385   6.675   2.953  0.3205 -1.9986  2.7310
73079SOL    HW230963   8.491   6.618   2.862  0.0940  2.4705 -0.6580
73080SOL     OW30964   4.696   1.116   4.590  0.2887 -0.0400  0.3958
73080SOL    HW130965   4.659   1.042   4.541  1.5333 -0.4687  0.0574
73080SOL    HW230966   4.649   1.192   4.556 -0.1052 -0.5330 -0.2019
73081SOL     OW30967   3.484  13.036   4.030 -0.1284 -0.3097  0.2189
73081SOL    HW130968   3.472  13.005   3.940  0.3115  1.3665 -0.4427
73081SOL    HW230969   3.497  13.130   4.022  1.2130 -0.2991  1.9371
73082SOL     OW30970   2.660  11.024   0.392  0.3726 -0.0002 -0.5138
73082SOL    HW130971   2.616  10.942   0.413  0.8129 -0.5475 -1.6462
73082SOL    HW230972   2.715  11.004   0.316  0.0318  1.4830 -1.2007
73083SOL     OW30973   5.368   2.655   0.104 -0.5020  0.0672 -0.0486
73083SOL    HW130974   5.327   2.695   0.180  1.0745 -1.9453  2.0334
73083SOL    HW230975   5.366   2.561   0.123 -1.6625 -0.7014 -3.4091
73084SOL     OW30976   9.014   8.327  11.804  0.1222  0.1724 -0.2754
73084SOL    HW130977   9.107   8.349  11.811  0.1445 -0.0742  0.2362
73084SOL    HW230978   8.972   8.409  11.776  0.7021 -0.1350 -2.2490
73085SOL     OW30979   9.714   0.438   5.844  0.8702  0.1405  0.0545
73085SOL    HW130980   9.757   0.481   5.770  0.0351  1.0409  0.0785
73085SOL    HW230981   9.638   0.395   5.806  0.9252 -0.1393  0.2591
73086SOL     OW30982   0.898   9.065   5.950 -0.2028 -0.1027  0.4992
73086SOL    HW130983   0.934   8.991   5.901  0.5145  1.4486 -1.4399
73086SOL    HW230984   0.865   9.026   6.031  1.7325 -2.2809  0.3515
73087SOL     OW30985   1.975   4.184   1.292 -0.8832 -0.2010 -0.0771
73087SOL    HW130986   2.046   4.236   1.254 -0.9818 -1.3314 -1.9119
73087SOL    HW230987   1.896   4.214   1.246 -1.2904 -0.3656  0.5029
73088SOL     OW30988   0.471  13.062  11.187  0.0041 -0.4827 -0.9852
73088SOL    HW130989   0.458  13.054  11.093 -0.7899 -1.4448 -0.8098
73088SOL    HW230990   0.482  12.971  11.217 -0.4789 -0.2461 -0.0605
73089SOL     OW30991   7.857   8.413   2.454  0.1688 -0.0418  0.3618
73089SOL    HW130992   7.822   8.358   2.384  2.8377 -0.0382 -1.1184
73089SOL    HW230993   7.797   8.487   2.459 -0.0605  0.0195 -2.0650
73090SOL     OW30994  10.606   0.268   5.244  0.0185  0.1774 -0.4033
73090SOL    HW130995  10.674   0.281   5.178  0.5191 -2.2461 -0.4395
73090SOL    HW230996  10.639   0.197   5.300  0.3611  3.0551  3.5028
73091SOL     OW30997   8.688   9.485   8.632 -0.4109  0.5905 -0.2084
73091SOL    HW130998   8.687   9.550   8.702  0.3319 -1.2061  1.5716
73091SOL    HW230999   8.612   9.429   8.650  1.0162 -1.2036  0.5441
73092SOL     OW31000  12.372  10.863  12.139 -0.3946 -0.2035  0.4978
73092SOL    HW131001  12.321  10.800  12.089 -0.7918  1.7738 -1.8252
73092SOL    HW231002  12.315  10.890  12.211 -1.3618 -0.3792 -0.1893
73093SOL     OW31003   2.428   8.177   9.674 -0.0163  0.1842 -0.2275
73093SOL    HW131004   2.522   8.191   9.661  0.3807  0.0973  2.1425
73093SOL    HW231005   2.407   8.105   9.615  1.7725 -0.8384  0.2905
73094SOL     OW31006   3.905   5.179   0.344  0.0004 -0.1587 -0.1538
73094SOL    HW131007   3.943   5.102   0.302  0.5427 -0.4962  0.9197
73094SOL    HW231008   3.811   5.160   0.349  0.2642 -1.2250  1.0444
73095SOL     OW31009   7.904  10.426   5.530  0.3802  0.4599 -0.2866
73095SOL    HW131010   7.857  10.344   5.512  1.0119 -0.0861  0.4828
73095SOL    HW231011   7.995  10.406   5.509  0.6234  0.7880  0.4540
73096SOL     OW31012   9.478   0.813   9.787  0.1484  0.8319 -0.1869
73096SOL    HW131013   9.406   0.855   9.834  0.2221  1.3935 -0.5680
73096SOL    HW231014   9.556   0.862   9.814  0.2174  1.0285 -0.7274
73097SOL     OW31015  10.202   3.840  12.458 -0.2501  0.3348 -0.4906
73097SOL    HW131016  10.202   3.886  12.375  0.2106  0.3949 -0.4584
73097SOL    HW231017  10.203   3.909  12.524  1.3545  0.3010 -0.4414
73098SOL     OW31018   7.235  13.391   7.427  0.3326  0.0569  0.3242
73098SOL    HW131019   7.189  13.383   7.510  0.5683  0.5611  0.5051
73098SOL    HW231020   7.325  13.413   7.451  0.2190  1.0256 -0.0775
73099SOL     OW31021   9.869   8.541  10.811  0.0770  0.1996  0.0260
73099SOL    HW131022   9.960   8.556  10.837  0.1478  1.0499 -0.6776
73099SOL    HW231023   9.852   8.451  10.838  1.5587 -0.4485 -1.0414
73100SOL     OW31024   7.884   3.205  12.801  0.1626 -0.4213 -0.0409
73100SOL    HW131025   7.829   3.253  12.863  0.6235 -1.2350  1.0248
73100SOL    HW231026   7.860   3.113  12.815 -0.3002 -0.5752 -1.6516
73101SOL     OW31027   8.007   6.339   1.442 -0.0927 -0.3575  0.2301
73101SOL    HW131028   8.043   6.253   1.461  3.0512  1.4242  3.6633
73101SOL    HW231029   8.022   6.351   1.348  2.8189 -2.2323  0.3185
73102SOL     OW31030   3.286   0.545   0.118  0.3329  0.1936 -0.0048
73102SOL    HW131031   3.253   0.458   0.139  0.9581 -0.2147 -0.6700
73102SOL    HW231032   3.227   0.578   0.050  0.5057  0.0011 -0.2502
73103SOL     OW31033  12.143   2.114  12.029 -0.1249 -0.1321  0.2448
73103SOL    HW131034  12.127   2.027  12.065  1.2553  0.0627  1.4173
73103SOL    HW231035  12.226   2.107  11.982 -1.0290  0.0682 -1.4613
73104SOL     OW31036  13.673   8.649   3.066 -0.0736  0.8611  0.0713
73104SOL    HW131037  13.734   8.592   3.019 -0.3526 -0.8401  1.6815
73104SOL    HW231038  13.694   8.737   3.034  1.0981  0.0055 -1.6990
73105SOL     OW31039   6.392  11.302  12.176 -0.3488  0.4687  0.0772
73105SOL    HW131040   6.452  11.345  12.236 -2.0086  2.6089  0.3061
73105SOL    HW231041   6.420  11.331  12.089  0.2789 -0.3166  0.0074
73106SOL     OW31042   1.071   4.348  12.287 -0.3197 -0.2180  0.5334
73106SOL    HW131043   1.146   4.335  12.229 -0.3623  0.6037  0.2772
73106SOL    HW231044   1.004   4.385  12.230 -0.3107  0.7588  1.1442
73107SOL     OW31045   2.205   4.008   7.256 -0.4616  0.1979  0.4724
73107SOL    HW131046   2.301   4.009   7.255 -0.4199 -1.0637  0.9739
73107SOL    HW231047   2.182   3.951   7.329 -1.6199  1.2336  0.9416
73108SOL     OW31048   1.758   3.480   5.267  0.0323 -0.1804 -0.9630
73108SOL    HW131049   1.700   3.524   5.204 -0.5174  1.3425  0.5463
73108SOL    HW231050   1.796   3.551   5.319  0.9323 -1.3601  0.0554
73109SOL     OW31051  12.982   1.995   3.633 -0.3434  0.0289  0.2147
73109SOL    HW131052  13.065   1.958   3.662 -0.9460 -2.1980 -0.6994
73109SOL    HW231053  12.928   1.999   3.712 -0.1031 -0.5956  0.4134
73110SOL     OW31054   9.838   0.652   7.008  1.1280 -0.1361 -0.2458
73110SOL    HW131055   9.895   0.688   7.076 -1.3673 -1.8303  3.0237
73110SOL    HW231056   9.874   0.566   6.990 -0.7544 -1.7303  2.7279
73111SOL     OW31057  12.371   2.858   3.196  0.7062 -0.3300 -0.1172
73111SOL    HW131058  12.395   2.789   3.258 -1.0353  1.1499  2.3722
73111SOL    HW231059  12.427   2.933   3.220 -1.9517  1.2121  1.8022
73112SOL     OW31060   6.563  12.519   3.108 -0.3526  0.0061 -0.2743
73112SOL    HW131061   6.528  12.522   3.019 -0.7909 -0.6931 -0.1386
73112SOL    HW231062   6.629  12.588   3.111 -1.5319  1.1784 -0.6227
73113SOL     OW31063   4.622  13.230   4.775 -1.0001  0.3796 -0.1313
73113SOL    HW131064   4.699  13.215   4.830 -1.7632 -1.5155  0.4960
73113SOL    HW231065   4.658  13.265   4.693  1.2248 -4.8858 -1.8168
73114SOL     OW31066   0.639   8.956   6.041  0.3157 -0.5232  0.0311
73114SOL    HW131067   0.545   8.941   6.042  0.4812 -1.8008 -0.6952
73114SOL    HW231068   0.660   8.970   5.949  0.5655  1.9151  0.4081
73115SOL     OW31069   3.142  12.215   9.564 -0.1804 -0.4048 -0.6007
73115SOL    HW131070   3.073  12.155   9.593 -1.3085  0.5573 -1.1991
73115SOL    HW231071   3.157  12.272   9.639 -0.2994 -0.3929 -0.5850
73116SOL     OW31072   9.786   5.003   6.789  0.7697  0.0928 -0.2219
73116SOL    HW131073   9.733   5.058   6.731  0.1277  0.5310  0.7634
73116SOL    HW231074   9.765   5.033   6.877  0.7673 -1.3920  0.3184
73117SOL     OW31075   9.569   9.498   9.497 -0.6900 -0.6588 -0.1207
73117SOL    HW131076   9.641   9.545   9.454 -1.3355  0.7381  0.2575
73117SOL    HW231077   9.611   9.452   9.570 -0.3674  1.5695  1.1960
73118SOL     OW31078   0.456   8.531  12.155  0.0484  0.4111 -0.5387
73118SOL    HW131079   0.399   8.581  12.214 -0.2879 -0.6494  0.0547
73118SOL    HW231080   0.396   8.490  12.093  0.3893  1.3839 -1.5357
73119SOL     OW31081  11.571  10.886   4.799  0.7412 -0.0461 -0.0792
73119SOL    HW131082  11.634  10.954   4.773  1.1570  0.1323  1.3205
73119SOL    HW231083  11.607  10.805   4.762  0.4586  0.4063 -1.4072
73120SOL     OW31084  12.374   3.040  10.073 -0.3758  0.0253 -0.1233
73120SOL    HW131085  12.332   3.088  10.002 -2.8489 -0.9854  0.5575
73120SOL    HW231086  12.388   3.105  10.142  0.4745  0.6483 -0.8620
73121SOL     OW31087  13.099   4.326   3.057  0.3555  0.5109 -0.7296
73121SOL    HW131088  13.158   4.347   3.128  0.5615 -2.7859  0.2527
73121SOL    HW231089  13.123   4.386   2.986  2.6825  1.3774  0.7049
73122SOL     OW31090  12.180   4.393   8.690  0.2585  0.0493 -0.3720
73122SOL    HW131091  12.103   4.382   8.634 -1.3980 -0.5102  1.8875
73122SOL    HW231092  12.158   4.465   8.749  0.8304 -1.0387  1.2480
73123SOL     OW31093   1.375   6.857   0.594  0.4447  0.1306 -0.0999
73123SOL    HW131094   1.451   6.897   0.636  1.4010 -1.5276 -0.1443
73123SOL    HW231095   1.334   6.804   0.662 -2.0433  2.6470  0.5618
73124SOL     OW31096   7.028   8.760   4.709 -0.0462 -0.3384 -0.5701
73124SOL    HW131097   7.032   8.855   4.721 -0.2047 -0.3968 -0.0562
73124SOL    HW231098   7.120   8.734   4.697  0.2722 -0.4325  1.7181
73125SOL     OW31099   0.260   9.045   2.688 -0.5754 -0.1929  0.6307
73125SOL    HW131100   0.294   9.112   2.629 -1.1892  0.5404  1.0990
73125SOL    HW231101   0.170   9.031   2.659  0.0763 -2.2017 -0.6699
73126SOL     OW31102   9.362  13.270  13.390  0.6496  0.3908 -0.5978
73126SOL    HW131103   9.403  13.345  13.346  0.4770  0.1268 -1.2260
73126SOL    HW231104   9.380  13.284  13.483  0.6331  1.2010 -0.7045
73127SOL     OW31105   2.596   1.841   6.250 -0.0141 -0.0230 -0.7749
73127SOL    HW131106   2.607   1.814   6.158  0.0141 -0.8081 -0.5465
73127SOL    HW231107   2.653   1.917   6.259  1.6449 -1.2102 -0.8543
73128SOL     OW31108  10.183   1.867   9.966 -0.0291 -0.5985 -0.0810
73128SOL    HW131109  10.262   1.813   9.973  0.3977 -0.0294 -0.4217
73128SOL    HW231110  10.148   1.869  10.055 -0.6271 -2.2542 -0.2254
73129SOL     OW31111  10.022  12.929   2.868 -0.7435 -0.4445  0.5468
73129SOL    HW131112   9.938  12.906   2.830 -0.6270 -1.7850  1.0496
73129SOL    HW231113  10.078  12.950   2.793 -1.8405  1.7652  0.2533
73130SOL     OW31114  11.840  10.682  13.269  0.1257 -0.0472  0.1367
73130SOL    HW131115  11.783  10.689  13.345 -0.2788 -0.2738 -0.1413
73130SOL    HW231116  11.793  10.625  13.208 -0.2157  1.2183 -0.8556
73131SOL     OW31117   7.562   7.047   5.687  0.3130 -0.6301 -0.5395
73131SOL    HW131118   7.590   6.955   5.691 -0.4992 -0.8465  1.0126
73131SOL    HW231119   7.468   7.044   5.707  0.4224  0.6042  0.2395
73132SOL     OW31120   9.994  13.278   8.190 -0.5726 -0.0331 -0.6281
73132SOL    HW131121  10.068  13.297   8.133  0.6247 -0.3538  0.7722
73132SOL    HW231122  10.014  13.192   8.227 -0.7564  0.6395  1.1278
73133SOL     OW31123   5.767   9.858  10.818  0.4607 -0.3645  0.2096
73133SOL    HW131124   5.835   9.865  10.885 -0.0652  1.7250  0.5656
73133SOL    HW231125   5.751   9.948  10.790 -1.1697 -0.9540 -0.8845
73134SOL     OW31126  10.562   1.036   9.845 -0.1076 -0.1492 -0.7754
73134SOL    HW131127  10.653   1.027   9.874 -0.2640  1.9363  0.6262
73134SOL    HW231128  10.532   1.116   9.887 -2.5047 -0.5850 -1.5097
73135SOL     OW31129   3.450   4.574   7.836  0.5438 -0.0575  0.0091
73135SOL    HW131130   3.404   4.647   7.877 -0.7037 -1.4063  1.1430
73135SOL    HW231131   3.390   4.500   7.844  2.2038 -1.4859 -0.0742
73136SOL     OW31132   4.106   5.697   2.773 -0.4326 -0.3490  0.6883
73136SOL    HW131133   4.169   5.626   2.778 -0.3815 -0.3412  0.2522
73136SOL    HW231134   4.159   5.776   2.764 -0.4993 -0.3141  0.5995
73137SOL     OW31135   7.057  13.602   1.747 -0.0513 -0.0595  0.0041
73137SOL    HW131136   7.044  13.562   1.661  0.4201 -0.3827  0.0814
73137SOL    HW231137   7.116  13.676   1.731  1.0944 -0.9042  0.2449
73138SOL     OW31138   0.946   0.565  12.832 -0.5028  0.0969 -0.5098
73138SOL    HW131139   0.928   0.608  12.748 -0.0486  1.1010 -0.1135
73138SOL    HW231140   1.029   0.602  12.861  0.4385 -1.8020 -0.6074
73139SOL     OW31141  13.203   8.287   6.385  0.0464 -0.1916  0.2615
73139SOL    HW131142  13.132   8.331   6.433 -1.5432 -0.6016 -1.6047
73139SOL    HW231143  13.226   8.348   6.315  1.4574 -0.1404  0.7389
73140SOL     OW31144  11.445   6.989  13.458  0.2248  0.3677  0.3585
73140SOL    HW131145  11.514   6.941  13.413  0.3887 -0.6568  1.6236
73140SOL    HW231146  11.381   6.922  13.482 -2.0361  1.4763 -2.0808
73141SOL     OW31147   8.086   2.342   7.154 -0.3026  0.7927 -0.1678
73141SOL    HW131148   8.126   2.266   7.195 -1.6248 -0.4026 -1.0026
73141SOL    HW231149   8.080   2.320   7.061 -0.4631  2.0289 -0.4789
73142SOL     OW31150   3.148   9.216   8.422  0.0108  0.2092  0.1692
73142SOL    HW131151   3.078   9.164   8.382  1.0600 -0.9107 -0.2522
73142SOL    HW231152   3.197   9.153   8.475  0.6625  1.0021  0.5206
73143SOL     OW31153   0.787  10.859   9.523 -0.1159 -0.0655  0.3476
73143SOL    HW131154   0.788  10.856   9.619  0.1792 -1.3135  0.3250
73143SOL    HW231155   0.862  10.915   9.501  0.0182 -0.0393  0.8440
73144SOL     OW31156  11.482   1.595   6.302 -0.5299 -0.0864 -0.0469
73144SOL    HW131157  11.569   1.630   6.321 -0.8629  0.4865  0.4883
73144SOL    HW231158  11.467   1.528   6.369 -0.3355 -0.4863 -0.3984
73145SOL     OW31159   6.723   0.217  13.039  0.4669 -0.7077  0.2167
73145SOL    HW131160   6.683   0.285  12.985 -0.6071  0.6824  2.5889
73145SOL    HW231161   6.675   0.137  13.015 -0.4375 -0.0096 -0.3973
73146SOL     OW31162   9.083   9.246   6.526  0.5592 -0.3068  0.1390
73146SOL    HW131163   9.007   9.255   6.583  0.4487 -0.5781  0.0311
73146SOL    HW231164   9.140   9.184   6.572  0.7823  0.0011  0.2883
73147SOL     OW31165   2.446  12.666   0.065  0.6387  0.5051 -0.1004
73147SOL    HW131166   2.449  12.662  -0.031  0.7463  0.1185 -0.0837
73147SOL    HW231167   2.376  12.606   0.089 -0.4750  1.7976 -0.0050
73148SOL     OW31168  13.071   1.244  13.697  0.0632  0.0770 -0.4096
73148SOL    HW131169  13.000   1.291  13.742 -0.2330  0.7407 -1.5330
73148SOL    HW231170  13.131   1.313  13.670  0.0196 -0.2611 -1.3998
73149SOL     OW31171  10.474   4.950   6.821  0.2003  0.4754 -0.5836
73149SOL    HW131172  10.427   5.008   6.881 -0.5980  0.5734 -1.2847
73149SOL    HW231173  10.547   4.916   6.873  1.7885  3.4731 -0.6704
73150SOL     OW31174   9.218  11.402  11.735 -0.3297 -0.4081  0.1727
73150SOL    HW131175   9.226  11.333  11.670  1.3022 -2.6242  2.5086
73150SOL    HW231176   9.134  11.386  11.778 -0.2629 -0.5217  0.2605
73151SOL     OW31177   9.586  12.365   4.430  0.0940  0.1289  0.3639
73151SOL    HW131178   9.592  12.355   4.335  0.2279  1.4428  0.2159
73151SOL    HW231179   9.660  12.316   4.465  0.8892  0.8342 -0.3080
73152SOL     OW31180   5.341   6.273   9.366 -0.4720  0.0552  0.5852
73152SOL    HW131181   5.372   6.361   9.391 -1.3779  0.3642  0.6620
73152SOL    HW231182   5.420   6.221   9.359  0.2239  1.2468 -0.9166
73153SOL     OW31183  11.701   0.497  10.028  0.1289  0.0940 -0.2240
73153SOL    HW131184  11.724   0.424   9.971 -0.6192 -0.6384  0.3782
73153SOL    HW231185  11.708   0.574   9.972 -1.8296 -0.7085 -1.7250
73154SOL     OW31186   1.179  13.058   8.032 -0.2654 -0.7830 -0.1574
73154SOL    HW131187   1.235  13.091   8.102 -1.2453  0.9876 -0.1344
73154SOL    HW231188   1.230  13.072   7.952  0.0922 -1.0076  0.0300
73155SOL     OW31189  10.678   5.016  13.621  0.3044  1.8359 -0.2485
73155SOL    HW131190  10.587   5.041  13.606 -0.5583 -1.3180 -0.9824
73155SOL    HW231191  10.679   4.977  13.708  0.4109 -0.1994 -1.1224
73156SOL     OW31192   2.179   7.389  13.282  0.2046 -0.7732  0.0712
73156SOL    HW131193   2.166   7.472  13.328 -0.0916 -0.6388 -0.2512
73156SOL    HW231194   2.266   7.360  13.310  2.5551  2.0127 -3.4177
73157SOL     OW31195   2.763   4.473   4.679  0.3234  0.0046  0.3261
73157SOL    HW131196   2.679   4.427   4.677  0.8026 -0.9167  0.3737
73157SOL    HW231197   2.765   4.524   4.599  0.8716 -2.1693 -1.1555
73158SOL     OW31198   8.636   7.668   9.541  0.0159  0.8887  0.8026
73158SOL    HW131199   8.574   7.599   9.567 -0.2780  0.1410 -1.6263
73158SOL    HW231200   8.710   7.658   9.601 -1.3521  0.5366  2.5115
73159SOL     OW31201   9.895   1.221   7.221  0.2721 -0.5290 -0.0857
73159SOL    HW131202   9.912   1.146   7.279  1.3908 -1.4921 -1.5744
73159SOL    HW231203   9.959   1.287   7.248 -1.6485  0.5447  2.1906
73160SOL     OW31204  10.400  12.383   8.448 -0.0465  0.4580  0.1061
73160SOL    HW131205  10.424  12.347   8.533  2.7573 -0.6240 -1.0013
73160SOL    HW231206  10.385  12.306   8.393 -3.3930  1.1161 -0.1107
73161SOL     OW31207  13.419   4.583  12.247 -0.2093  0.2623 -0.7326
73161SOL    HW131208  13.423   4.617  12.158 -1.3574  0.6275 -0.6606
73161SOL    HW231209  13.457   4.496  12.241 -0.7203  0.0944 -1.6824
73162SOL     OW31210  12.468   9.193   9.436  0.1779 -0.4788 -0.5026
73162SOL    HW131211  12.504   9.272   9.395  0.2901 -0.3188 -0.1010
73162SOL    HW231212  12.380   9.184   9.398  0.2946 -0.3558 -0.8040
73163SOL     OW31213  11.628   5.192   5.294  0.1170  0.6184  0.9834
73163SOL    HW131214  11.629   5.265   5.232  1.7227 -0.3782 -0.2471
73163SOL    HW231215  11.574   5.125   5.252  1.5005 -0.1991  0.4179
73164SOL     OW31216   6.650  10.519  13.517 -0.1589  0.1016 -0.0909
73164SOL    HW131217   6.588  10.564  13.574  1.0918  0.7059  0.8376
73164SOL    HW231218   6.690  10.590  13.465  1.6905  0.1014  1.2489
73165SOL     OW31219   1.471   1.926   9.514 -0.1687  0.4184 -0.7148
73165SOL    HW131220   1.535   1.873   9.466  0.3090  0.9341 -0.6596
73165SOL    HW231221   1.523   1.976   9.576 -0.5797  1.1472 -0.9443
73166SOL     OW31222  11.734   2.428   2.895 -0.3706 -0.0669 -0.3127
73166SOL    HW131223  11.699   2.399   2.810  0.3861  0.8815 -0.9810
73166SOL    HW231224  11.829   2.419   2.885 -0.2524  0.5366  0.2473
73167SOL     OW31225   4.312  10.581  13.018  0.8567 -0.1825  0.1895
73167SOL    HW131226   4.356  10.506  12.979  0.0049 -0.5740 -0.0411
73167SOL    HW231227   4.383  10.637  13.049  1.5073 -0.8723 -0.0269
73168SOL     OW31228   5.292  12.472   6.636  0.2316 -0.1890 -0.4934
73168SOL    HW131229   5.203  12.499   6.660  0.2953  0.7157 -1.1902
73168SOL    HW231230   5.279  12.404   6.570 -0.0011  1.5709 -2.3541
73169SOL     OW31231  13.256   7.372  10.418 -0.2644 -0.1929  0.0091
73169SOL    HW131232  13.298   7.286  10.421  1.7704  0.5154 -2.9419
73169SOL    HW231233  13.267   7.400  10.327 -2.9252  2.2405  0.2920
73170SOL     OW31234   0.178   8.549   2.228  0.4271 -0.0323  1.1948
73170SOL    HW131235   0.159   8.468   2.181  1.0484 -1.5126  3.3158
73170SOL    HW231236   0.093   8.590   2.242  0.2615  0.7631 -1.5609
73171SOL     OW31237   0.596   3.775   5.153  0.0559 -0.2090 -0.5044
73171SOL    HW131238   0.622   3.683   5.151  0.0271 -0.2401  0.1873
73171SOL    HW231239   0.566   3.790   5.243 -0.1091  0.4306 -0.6557
73172SOL     OW31240  12.849   1.744   4.743  0.2383  0.1951  0.2787
73172SOL    HW131241  12.871   1.816   4.683 -0.0159 -2.2189 -2.9790
73172SOL    HW231242  12.923   1.741   4.804  0.0967  3.3466  0.7818
73173SOL     OW31243   5.581   7.203  12.033  0.1957  0.5451  0.1987
73173SOL    HW131244   5.592   7.122  12.083  0.2801  0.4831  0.0803
73173SOL    HW231245   5.486   7.216  12.027  0.0058 -1.1753 -2.3715
73174SOL     OW31246   9.108   9.369   3.084 -0.3236 -0.2056  0.3256
73174SOL    HW131247   9.034   9.363   3.024 -1.0423  1.3236  0.9986
73174SOL    HW231248   9.068   9.374   3.171  0.7115 -3.4716  1.1187
73175SOL     OW31249   9.504   7.156   8.957  0.3963 -0.2938  0.6120
73175SOL    HW131250   9.426   7.101   8.959  0.4680 -0.3782  1.0560
73175SOL    HW231251   9.508   7.188   8.866 -0.4041  0.0863  0.7021
73176SOL     OW31252   0.262   5.113   8.812 -0.2165  0.3778 -0.3375
73176SOL    HW131253   0.264   5.161   8.895  0.5506 -1.1198  0.5610
73176SOL    HW231254   0.354   5.092   8.794 -0.5039 -0.5131 -0.8352
73177SOL     OW31255  10.253  11.923  12.607  0.0637  0.0879  0.2262
73177SOL    HW131256  10.321  11.934  12.541 -1.1840 -1.0652 -1.3220
73177SOL    HW231257  10.253  12.006  12.655  0.6350  1.2131 -1.6097
73178SOL     OW31258   1.400   6.050   6.575 -0.4995 -0.0891 -0.3351
73178SOL    HW131259   1.390   6.031   6.669 -0.0773 -1.1165 -0.4884
73178SOL    HW231260   1.329   6.113   6.556 -1.1488 -0.5495  0.4723
73179SOL     OW31261   3.491   0.103   0.912  0.3044 -0.4496  0.2366
73179SOL    HW131262   3.489   0.193   0.942  0.3873 -0.6532  0.8727
73179SOL    HW231263   3.476   0.051   0.991 -0.3124 -0.9781 -0.2110
73180SOL     OW31264   8.776  13.035   4.350  0.2757 -0.3781 -0.1678
73180SOL    HW131265   8.718  12.970   4.388 -1.4345  0.9922 -0.2890
73180SOL    HW231266   8.805  12.997   4.267 -0.3105 -1.1774 -0.0155
73181SOL     OW31267  13.578  12.018   2.730 -0.0299 -0.0051 -0.5436
73181SOL    HW131268  13.663  12.061   2.725 -0.2515  0.6486  0.6806
73181SOL    HW231269  13.514  12.090   2.723 -0.4851 -0.4895 -1.4834
73182SOL     OW31270  12.440   9.269  10.382  0.2743  0.4825  0.1742
73182SOL    HW131271  12.447   9.314  10.298 -0.2325 -1.5610 -1.0335
73182SOL    HW231272  12.479   9.330  10.445 -1.5079  3.1624 -1.0708
73183SOL     OW31273   3.750   5.994  12.272  0.1431 -0.1232 -0.2298
73183SOL    HW131274   3.694   6.047  12.329  0.4476  0.9008 -0.8523
73183SOL    HW231275   3.755   5.909  12.315 -1.9530 -0.2654 -0.2034
73184SOL     OW31276   8.546   2.766   8.128  0.4306 -0.1642  0.2048
73184SOL    HW131277   8.566   2.778   8.221  0.3511  1.4459  0.0454
73184SOL    HW231278   8.617   2.710   8.096  1.3208  0.5081  0.9289
73185SOL     OW31279   4.882   7.274   4.253  0.2590 -0.6721 -0.3555
73185SOL    HW131280   4.799   7.241   4.220  0.3267 -1.1904 -0.0196
73185SOL    HW231281   4.870   7.280   4.348  0.1966  0.4272 -0.4161
73186SOL     OW31282   1.479   0.702   2.640  0.2512  0.2621 -0.5772
73186SOL    HW131283   1.424   0.761   2.589 -2.4579 -0.3663  1.4347
73186SOL    HW231284   1.509   0.754   2.714 -0.4438 -0.2846  0.1041
73187SOL     OW31285  11.765   4.626   9.345 -0.0454 -0.1773 -0.1309
73187SOL    HW131286  11.845   4.578   9.370 -0.4622 -0.9143 -0.1773
73187SOL    HW231287  11.736   4.668   9.426 -1.1885 -2.2636  0.6151
73188SOL     OW31288  11.103   5.053  12.073  0.5721  0.4505 -0.0240
73188SOL    HW131289  11.176   5.000  12.103  0.3970 -0.4203 -1.0609
73188SOL    HW231290  11.130   5.085  11.987  0.7215  2.1765  0.6241
73189SOL     OW31291   7.366   9.312   2.229  0.0469  0.4428  0.1511
73189SOL    HW131292   7.352   9.367   2.151  0.2228  0.8200  0.3804
73189SOL    HW231293   7.425   9.364   2.283  0.3113 -0.0345  0.3165
73190SOL     OW31294  11.570  10.832   2.876  0.0289 -0.0347 -0.6163
73190SOL    HW131295  11.574  10.835   2.972 -1.5614  0.3377 -0.5363
73190SOL    HW231296  11.645  10.884   2.847  0.5267 -0.1532  0.4230
73191SOL     OW31297   6.021   9.173  11.076 -0.5882 -0.0701  0.1761
73191SOL    HW131298   5.964   9.244  11.106 -2.6178 -1.5179 -0.0798
73191SOL    HW231299   6.077   9.154  11.151  1.2919  2.9099 -0.2870
73192SOL     OW31300   1.168   4.574   0.361  0.2656  0.6409 -0.3183
73192SOL    HW131301   1.258   4.543   0.367 -0.1342 -0.5393 -0.0436
73192SOL    HW231302   1.144   4.559   0.269  0.7016  2.0485 -0.6870
73193SOL     OW31303   4.878   5.083   5.841  0.3130 -0.2730 -0.1445
73193SOL    HW131304   4.915   5.107   5.926 -0.4900  0.9157 -0.1011
73193SOL    HW231305   4.870   5.166   5.794 -2.6785 -0.3554  0.0230
73194SOL     OW31306   5.564   5.919   8.481 -0.1996 -0.8501  0.2621
73194SOL    HW131307   5.605   5.942   8.564 -0.8994 -0.9456  0.6372
73194SOL    HW231308   5.549   5.824   8.487 -0.5763 -0.7961  0.1721
73195SOL     OW31309  10.737   5.438   5.836  0.3186 -0.0351  0.0785
73195SOL    HW131310  10.687   5.382   5.777 -0.3240 -0.4905  1.0437
73195SOL    HW231311  10.671   5.484   5.888  0.8664  0.6935  0.1545
73196SOL     OW31312   3.787   7.241   5.630 -0.2318  0.1731 -0.0696
73196SOL    HW131313   3.788   7.283   5.716  1.3074  0.5573 -0.2409
73196SOL    HW231314   3.833   7.158   5.644 -1.4220 -0.5395 -0.1956
73197SOL     OW31315   5.327  10.941  10.485 -0.0472  0.0739 -0.0642
73197SOL    HW131316   5.324  10.968  10.577  1.3788 -2.1220  0.6875
73197SOL    HW231317   5.298  11.019  10.437  0.5061  1.7510  2.1445
73198SOL     OW31318   2.819   8.695   8.446 -0.0730  0.7531 -0.8053
73198SOL    HW131319   2.811   8.700   8.351  1.5568  1.0221 -0.9505
73198SOL    HW231320   2.747   8.749   8.479 -0.5311  0.8172 -1.8753
73199SOL     OW31321   3.406   4.586   6.246 -0.1856  0.6275  0.4654
73199SOL    HW131322   3.435   4.557   6.160 -0.4575  2.8575 -0.4274
73199SOL    HW231323   3.363   4.509   6.284 -0.2567 -0.3319 -1.4544
73200SOL     OW31324   4.865   9.519   0.181  0.6992  0.1266  0.3734
73200SOL    HW131325   4.923   9.593   0.200  1.4725 -0.0207 -1.2502
73200SOL    HW231326   4.804   9.553   0.115 -0.2561 -0.1105  1.1062
73201SOL     OW31327   8.977  11.569   5.937  0.5820  0.3738 -0.1050
73201SOL    HW131328   8.895  11.547   5.892  0.8731  1.9130 -1.4677
73201SOL    HW231329   8.986  11.501   6.004  0.2868 -2.2266 -2.5305
73202SOL     OW31330   1.271   5.939   5.262 -0.3087  0.3353  0.0734
73202SOL    HW131331   1.226   5.861   5.295 -1.1261  0.6235 -0.3167
73202SOL    HW231332   1.218   6.012   5.296  0.1214  0.6994 -0.0345
73203SOL     OW31333  11.946   3.427   2.241  0.3653 -0.4925  0.2936
73203SOL    HW131334  11.952   3.360   2.172  0.2302  1.3555 -1.5983
73203SOL    HW231335  11.923   3.507   2.194  0.7051  0.9387  2.4722
73204SOL     OW31336   9.359   6.818   1.192 -0.4243 -0.4498 -0.0421
73204SOL    HW131337   9.391   6.811   1.283  0.5799  0.7234 -0.2811
73204SOL    HW231338   9.314   6.902   1.189 -0.4950 -0.5086 -0.6193
73205SOL     OW31339   2.608  10.796   4.486 -0.2171  0.0110  0.3854
73205SOL    HW131340   2.673  10.770   4.551  0.5559 -0.2435 -0.4742
73205SOL    HW231341   2.561  10.869   4.527 -0.9884 -1.3147  1.9722
73206SOL     OW31342   3.151  12.503   5.618  0.3807 -0.0670  0.1913
73206SOL    HW131343   3.200  12.521   5.698 -0.6879  0.9494  0.6369
73206SOL    HW231344   3.107  12.585   5.597  0.9945 -0.1747 -1.7120
73207SOL     OW31345   2.744   1.666  13.271 -0.0364  0.2194 -0.5638
73207SOL    HW131346   2.665   1.702  13.311  0.6147  1.0228  0.0326
73207SOL    HW231347   2.810   1.670  13.340  0.2461 -1.5117 -0.7064
73208SOL     OW31348   5.192   7.582   9.526 -0.3904 -0.0594 -0.1288
73208SOL    HW131349   5.157   7.537   9.603  0.2917  0.2153  0.3432
73208SOL    HW231350   5.157   7.671   9.532  0.0757  0.1077  0.1401
73209SOL     OW31351   1.697   0.038  11.749  0.0775  0.2565 -0.1976
73209SOL    HW131352   1.625   0.074  11.696  0.3703 -0.7240 -1.3017
73209SOL    HW231353   1.730   0.113  11.798 -1.7602  0.7210  0.4198
73210SOL     OW31354   8.071   3.770   3.527 -0.2707 -0.5058 -0.5262
73210SOL    HW131355   8.160   3.795   3.500  0.3001 -1.2554  0.5989
73210SOL    HW231356   8.055   3.819   3.607 -0.3120 -1.4469  0.0496
73211SOL     OW31357   5.915   9.424   6.297  0.1845  0.0189  0.3911
73211SOL    HW131358   5.975   9.353   6.318 -0.5546 -0.2684  1.6120
73211SOL    HW231359   5.969   9.503   6.299  0.6572 -0.3124  0.7522
73212SOL     OW31360   1.880   4.280   8.643  0.3067 -0.0641 -0.6399
73212SOL    HW131361   1.868   4.267   8.737  0.2217 -0.6816 -0.7338
73212SOL    HW231362   1.946   4.349   8.636  2.1008 -1.6624 -0.1257
73213SOL     OW31363   0.061   0.992   3.081  0.5031  0.2637 -0.7105
73213SOL    HW131364   0.087   0.913   3.129 -1.9126 -1.5326 -2.1389
73213SOL    HW231365   0.133   1.009   3.021  1.5881 -0.0994  0.4478
73214SOL     OW31366   2.254  13.265   2.291  0.3060  0.4387  0.0837
73214SOL    HW131367   2.222  13.211   2.219  0.1944  0.5191  0.0731
73214SOL    HW231368   2.211  13.350   2.279  0.4332  0.5118  0.1345
73215SOL     OW31369   1.382   8.469  11.244  0.0291 -0.0394 -0.0045
73215SOL    HW131370   1.302   8.466  11.191  0.6915 -0.2722 -1.0224
73215SOL    HW231371   1.411   8.378  11.248  1.9502  0.3773 -2.3769
73216SOL     OW31372   5.691   2.020   3.865  0.0370  0.4461  0.5278
73216SOL    HW131373   5.676   1.946   3.806  0.1753  0.7339  0.1323
73216SOL    HW231374   5.634   2.003   3.940  1.0991 -0.8115  1.0966
73217SOL     OW31375   1.005   5.752  10.599  0.0149  0.0003 -0.5856
73217SOL    HW131376   0.983   5.685  10.664 -0.7026 -0.1669 -1.0028
73217SOL    HW231377   1.029   5.829  10.652 -0.3169 -0.2138 -0.1188
73218SOL     OW31378   5.636   8.959   7.596 -0.0932 -0.9722  0.0249
73218SOL    HW131379   5.688   9.022   7.646 -1.2190  0.6284 -0.7083
73218SOL    HW231380   5.609   8.893   7.660  0.1061 -0.0253  1.1127
73219SOL     OW31381   6.340   9.298   4.325  0.1193  0.4521 -0.2547
73219SOL    HW131382   6.346   9.240   4.400  0.4188  0.8863  0.0662
73219SOL    HW231383   6.331   9.240   4.250 -1.6868  0.0364  0.2380
73220SOL     OW31384   9.135   7.772   7.156 -0.7813  0.3653  0.1210
73220SOL    HW131385   9.070   7.755   7.087 -0.4243 -1.4025  0.1734
73220SOL    HW231386   9.199   7.701   7.147  0.8271  1.6919  0.4806
73221SOL     OW31387   3.623   8.755  10.394 -0.6816  0.8175  0.0438
73221SOL    HW131388   3.553   8.698  10.362  0.1545 -0.1911 -0.0505
73221SOL    HW231389   3.602   8.841  10.358 -1.7781  0.5002 -0.1121
73222SOL     OW31390   0.906  13.503   9.517  0.0669 -0.1155  0.0470
73222SOL    HW131391   0.829  13.528   9.465 -1.0630 -3.7581 -0.2721
73222SOL    HW231392   0.979  13.513   9.456  0.2709  4.4963  0.6708
73223SOL     OW31393   4.746   9.625  10.778 -0.2763 -0.8079  0.1484
73223SOL    HW131394   4.820   9.601  10.832  0.3389 -2.3056 -1.2682
73223SOL    HW231395   4.767   9.590  10.691 -2.1256 -0.2982 -0.5628
73224SOL     OW31396   9.781   3.950   7.782  0.0139 -0.0056  0.3437
73224SOL    HW131397   9.701   3.966   7.832 -0.0282  0.0914  0.2470
73224SOL    HW231398   9.836   3.899   7.841 -0.5020 -0.9076  0.0736
73225SOL     OW31399  11.056   7.957   0.925 -0.1956  0.5986  0.1357
73225SOL    HW131400  11.019   7.969   1.012 -0.2583  1.3256  0.0170
73225SOL    HW231401  11.046   7.863   0.907  2.0614 -0.0382  1.8835
73226SOL     OW31402  11.091   0.687   6.436 -0.4135 -0.0629 -0.2383
73226SOL    HW131403  11.095   0.617   6.372  1.3899 -2.9084  2.6845
73226SOL    HW231404  11.002   0.683   6.470 -0.1311 -1.5431  0.4094
73227SOL     OW31405   9.555   6.147   1.837 -0.1499 -0.6246  0.3899
73227SOL    HW131406   9.600   6.125   1.919 -0.3561 -0.1573  0.6378
73227SOL    HW231407   9.615   6.207   1.792 -0.8853  0.7374  1.1465
73228SOL     OW31408   3.947   2.237   2.328  0.3364 -0.2237 -0.0660
73228SOL    HW131409   4.002   2.307   2.363  0.1032  1.5975 -3.0527
73228SOL    HW231410   4.007   2.183   2.276  0.1975 -1.3580  0.9000
73229SOL     OW31411  11.059   9.112   6.773  0.1913  0.2499  0.1504
73229SOL    HW131412  11.151   9.104   6.796  0.7885  0.4035 -1.9640
73229SOL    HW231413  11.059   9.123   6.678 -1.9297  1.7049  0.2501
73230SOL     OW31414  12.788  13.403   3.192 -0.2049 -0.0109  0.1396
73230SOL    HW131415  12.856  13.369   3.135  0.5833  1.9741 -0.1823
73230SOL    HW231416  12.727  13.330   3.204  2.0103 -1.9124  0.5449
73231SOL     OW31417   6.531   0.118   4.672  0.0022  0.1436  0.2202
73231SOL    HW131418   6.609   0.116   4.727 -1.0023  1.1592  1.7567
73231SOL    HW231419   6.565   0.113   4.582  1.9198  1.9625  0.7764
73232SOL     OW31420   2.174  12.640   9.408  0.1344  0.0577 -0.1081
73232SOL    HW131421   2.245  12.634   9.472 -0.2332 -1.0736  0.2140
73232SOL    HW231422   2.186  12.726   9.367  0.0335  1.0825  1.8800
73233SOL     OW31423   1.229  13.554   6.201  0.5910  0.0945  0.8740
73233SOL    HW131424   1.154  13.560   6.142  1.6457  0.5530 -0.4850
73233SOL    HW231425   1.296  13.509   6.150  1.1804 -0.5149  2.1345
73234SOL     OW31426   0.421   8.401   3.895  0.1339  0.0630  0.1875
73234SOL    HW131427   0.484   8.400   3.967  0.9302 -1.4218 -0.4749
73234SOL    HW231428   0.347   8.349   3.927  0.1959 -0.0254  0.1895
73235SOL     OW31429   4.299   8.429   4.075 -0.0365  0.4815 -0.4915
73235SOL    HW131430   4.384   8.385   4.085 -0.5498 -0.4689 -0.1662
73235SOL    HW231431   4.288   8.477   4.158  0.7374  1.6546 -1.0311
73236SOL     OW31432   2.354   7.719  11.943  0.4701  0.2089 -0.8330
73236SOL    HW131433   2.364   7.803  11.989  1.0592  0.0238 -0.6167
73236SOL    HW231434   2.259   7.708  11.935  0.3331  0.0301  0.7377
73237SOL     OW31435  12.501  10.253  10.446 -0.1416  0.0366  0.3604
73237SOL    HW131436  12.440  10.231  10.375  1.1013 -0.0725 -0.7043
73237SOL    HW231437  12.563  10.314  10.407  0.9384 -0.4999  1.1628
73238SOL     OW31438   3.934   7.424   8.282 -0.0721  0.5312  0.8472
73238SOL    HW131439   3.931   7.499   8.222  1.6174  1.5666  1.9599
73238SOL    HW231440   4.002   7.447   8.346  0.4042 -1.8808  1.3289
73239SOL     OW31441   0.215   5.895   9.801 -0.1347  0.0222  0.3276
73239SOL    HW131442   0.181   5.979   9.770  0.3558  0.1103  0.0243
73239SOL    HW231443   0.294   5.917   9.850  0.2311 -0.2895 -0.1078
73240SOL     OW31444   0.389  12.504   4.399  0.7069 -0.0319  0.6901
73240SOL    HW131445   0.410  12.484   4.490 -0.5804  1.5632  1.3807
73240SOL    HW231446   0.330  12.579   4.403  1.3585  0.6848 -1.5081
73241SOL     OW31447   8.838  12.365  10.330 -0.4025 -0.0475  0.0590
73241SOL    HW131448   8.903  12.434  10.347  0.9558 -1.5223  1.1180
73241SOL    HW231449   8.792  12.354  10.412  0.9513 -1.9202  0.6303
73242SOL     OW31450   9.361  11.199   9.463  0.6195  0.2077  0.1224
73242SOL    HW131451   9.398  11.285   9.483 -3.7059  2.1529  0.7624
73242SOL    HW231452   9.356  11.155   9.548  0.5306  0.3596  0.1963
73243SOL     OW31453   8.683   1.931   1.151 -0.0898  0.0732 -0.0760
73243SOL    HW131454   8.708   1.958   1.240 -0.0009 -1.1446  0.2892
73243SOL    HW231455   8.731   1.850   1.137 -0.4244  0.0433 -1.0963
73244SOL     OW31456   9.842  12.654   8.925 -0.2993  0.1492 -0.1476
73244SOL    HW131457   9.825  12.560   8.922  0.0280  0.0321  1.1582
73244SOL    HW231458   9.827  12.678   9.016  0.8844  1.1284 -0.1891
73245SOL     OW31459   3.616   3.339  10.393 -0.4937 -0.8185  0.4309
73245SOL    HW131460   3.523   3.333  10.371 -0.0680  1.2822 -2.5550
73245SOL    HW231461   3.658   3.273  10.338 -0.0952 -0.6751  0.5601
73246SOL     OW31462   8.929   3.306   4.829  0.3790 -0.2954  0.3497
73246SOL    HW131463   8.971   3.258   4.900  0.5780  1.2021  1.2795
73246SOL    HW231464   8.886   3.380   4.871  0.9323  0.9289 -1.1298
73247SOL     OW31465  13.263  13.300  12.626  0.4294  0.2052  0.3397
73247SOL    HW131466  13.295  13.352  12.551  1.8849 -1.3830 -0.2112
73247SOL    HW231467  13.216  13.363  12.680 -0.2455  1.5255 -1.6515
73248SOL     OW31468  10.803   2.855  11.456  0.2242 -0.4087  0.0012
73248SOL    HW131469  10.745   2.806  11.513  0.3047  0.2115  0.6240
73248SOL    HW231470  10.884   2.803  11.453  0.7847  0.2934  1.6922
73249SOL     OW31471  12.573   0.352   3.848  0.0045  0.5442  0.3734
73249SOL    HW131472  12.485   0.370   3.814 -0.4652 -0.7993  0.8048
73249SOL    HW231473  12.632   0.400   3.790 -1.0053  1.5386  0.1270
73250SOL     OW31474  12.490   4.384   6.637 -0.5780  0.3725  0.5437
73250SOL    HW131475  12.451   4.297   6.641  0.1416  0.0576  0.8199
73250SOL    HW231476  12.577   4.370   6.600 -0.9377  1.1503 -0.6295
73251SOL     OW31477   9.918  11.351  11.248  0.3267 -0.2514 -0.3411
73251SOL    HW131478   9.827  11.374  11.230  0.3457 -0.2988 -0.4958
73251SOL    HW231479   9.969  11.418  11.203  0.3510  0.3497  0.5656
73252SOL     OW31480  11.541  12.191   2.663  0.1067 -0.0650  0.3568
73252SOL    HW131481  11.601  12.158   2.730  0.6884  0.0982 -0.0728
73252SOL    HW231482  11.546  12.127   2.593  1.0350  0.7777 -0.3706
73253SOL     OW31483   7.931   9.709   9.703 -0.2568 -0.2520  0.2604
73253SOL    HW131484   7.990   9.763   9.755 -1.2841 -0.4994  1.7394
73253SOL    HW231485   7.863   9.770   9.674 -0.2741 -0.3352  0.1261
73254SOL     OW31486   5.951  12.399   2.956  0.1569  0.3236 -0.0439
73254SOL    HW131487   5.937  12.440   3.042  0.6124  0.8273 -0.2041
73254SOL    HW231488   6.019  12.453   2.915 -0.4012  0.3736 -0.9162
73255SOL     OW31489   1.151   2.652   9.426 -0.1700 -0.8725  0.5369
73255SOL    HW131490   1.101   2.599   9.364  2.1667 -3.1739  0.4490
73255SOL    HW231491   1.140   2.742   9.395 -4.0563 -1.2208  0.5281
73256SOL     OW31492   1.433   9.288  11.699  0.1212 -0.0358  0.3125
73256SOL    HW131493   1.457   9.218  11.759  0.5339 -0.3358 -0.2008
73256SOL    HW231494   1.510   9.346  11.697 -0.2829  0.5347  0.8741
73257SOL     OW31495   8.469   6.969  10.286 -0.2199  0.5881  0.0296
73257SOL    HW131496   8.563   6.985  10.294 -0.4582  1.8754  0.5861
73257SOL    HW231497   8.435   6.980  10.375 -0.9013  0.1269 -0.1627
73258SOL     OW31498   7.728   9.927   2.677  0.1071 -0.0089 -0.2585
73258SOL    HW131499   7.804   9.984   2.691  0.6422 -0.5494 -0.9013
73258SOL    HW231500   7.652   9.986   2.682  0.7111  1.0682 -2.4490
73259SOL     OW31501   7.191  12.255   1.045  0.0835  0.0354  0.3389
73259SOL    HW131502   7.214  12.172   1.087 -0.0661 -0.9515 -1.4352
73259SOL    HW231503   7.191  12.318   1.117 -0.6748 -1.6363  1.9122
73260SOL     OW31504  12.620   4.912   8.345  0.5698 -0.4049 -0.2424
73260SOL    HW131505  12.707   4.887   8.315  0.9013  0.6560 -0.2233
73260SOL    HW231506  12.569   4.924   8.265  1.2272  1.6345 -0.4144
73261SOL     OW31507   0.677   6.393  13.102 -0.1259  0.3895  0.2606
73261SOL    HW131508   0.615   6.432  13.040  0.0875 -1.2874 -1.0844
73261SOL    HW231509   0.756   6.377  13.050  0.4626 -0.0493  1.2576
73262SOL     OW31510   2.025   1.702   1.376 -0.9212 -0.1114 -0.3801
73262SOL    HW131511   2.042   1.728   1.285 -0.6453  0.4235 -0.1745
73262SOL    HW231512   2.065   1.615   1.383  0.4647  0.5109 -0.3172
73263SOL     OW31513   6.772   3.504   9.185 -0.2451 -0.2743  0.2651
73263SOL    HW131514   6.745   3.412   9.183  1.0719 -0.6839  0.3568
73263SOL    HW231515   6.691   3.553   9.177 -0.8997 -1.4566 -0.6859
73264SOL     OW31516  13.439  12.096  12.407  0.0005 -0.0236  0.3115
73264SOL    HW131517  13.395  12.054  12.481 -0.7197  0.0468 -0.0752
73264SOL    HW231518  13.489  12.168  12.447  0.0243 -0.2981  0.7836
73265SOL     OW31519   6.257  10.290  11.291  0.5187  0.5737  0.0105
73265SOL    HW131520   6.262  10.324  11.381 -2.7704  1.6173 -0.0717
73265SOL    HW231521   6.283  10.363  11.236  1.5384  0.2541  0.0485
73266SOL     OW31522  11.981  10.542  11.050 -0.2638  0.0450  0.1932
73266SOL    HW131523  12.049  10.490  11.093  0.1533 -0.2289 -0.7663
73266SOL    HW231524  11.899  10.503  11.079 -0.0545  0.6861  1.7531
73267SOL     OW31525   2.180   5.063   1.318  0.2744  0.4076  0.3577
73267SOL    HW131526   2.228   5.143   1.298  0.8904 -0.0620 -0.0826
73267SOL    HW231527   2.230   5.022   1.389  1.6948 -1.0524 -1.3802
73268SOL     OW31528   8.401  13.131  10.606  0.0978 -0.1412 -0.2648
73268SOL    HW131529   8.478  13.142  10.550  1.5987 -0.2575  1.6538
73268SOL    HW231530   8.422  13.053  10.659 -1.6973 -0.6297 -0.2209
73269SOL     OW31531   3.555   1.177  11.731  0.5052 -0.4217  0.1642
73269SOL    HW131532   3.487   1.194  11.795  1.2305  0.5015  0.7177
73269SOL    HW231533   3.615   1.117  11.776  0.2240 -0.9913 -0.2108
73270SOL     OW31534  10.896  10.178   7.881 -0.1199  0.3131  0.0326
73270SOL    HW131535  10.903  10.219   7.967 -2.1774  1.6314 -0.3702
73270SOL    HW231536  10.850  10.096   7.897 -0.8649  0.7474  0.1491
73271SOL     OW31537   6.699   0.784   5.757  0.3043  0.0202  0.5026
73271SOL    HW131538   6.629   0.848   5.770 -0.4309 -0.9462  1.4632
73271SOL    HW231539   6.744   0.779   5.841  0.4034 -0.6447  0.4219
73272SOL     OW31540   6.438   0.921   2.136  0.4730  0.0776  0.1973
73272SOL    HW131541   6.377   0.986   2.172 -0.6045 -0.6338 -0.2942
73272SOL    HW231542   6.432   0.847   2.196  1.1947  0.1585  0.3803
73273SOL     OW31543   3.498   0.793   9.451  0.0225 -0.1713 -0.4988
73273SOL    HW131544   3.579   0.784   9.401  1.5614 -1.7340  2.0848
73273SOL    HW231545   3.449   0.713   9.433 -0.4169  0.2102 -1.0700
73274SOL     OW31546   5.114  10.523   6.762 -0.2949 -0.1300  0.5359
73274SOL    HW131547   5.165  10.594   6.802 -0.2659 -1.1043  2.3477
73274SOL    HW231548   5.024  10.540   6.790 -0.2778 -0.8239  1.0167
73275SOL     OW31549   4.033   7.151  12.751 -0.3155 -0.4565 -0.4704
73275SOL    HW131550   3.982   7.168  12.672 -0.4234 -1.0484 -0.5363
73275SOL    HW231551   4.046   7.056  12.751 -2.9356 -0.9389  1.7766
73276SOL     OW31552  11.712  10.014  13.145 -0.4034  0.5020  0.1550
73276SOL    HW131553  11.651   9.977  13.081  0.6365 -0.3996 -0.3249
73276SOL    HW231554  11.768   9.941  13.171 -0.6380  0.9046  1.9210
73277SOL     OW31555  11.041   8.056  13.244 -0.6531  0.3618 -0.1222
73277SOL    HW131556  11.031   8.150  13.258 -2.3964  0.4239 -1.4006
73277SOL    HW231557  11.014   8.016  13.326 -0.7193  0.9646  0.1563
73278SOL     OW31558   3.567   3.813  12.843 -0.5197  0.3882  0.4233
73278SOL    HW131559   3.631   3.844  12.907 -1.9029  2.4990  0.8617
73278SOL    HW231560   3.548   3.723  12.870  0.0678  0.7298  2.0733
73279SOL     OW31561   7.840  12.360  13.458 -0.1620  0.4186  0.2128
73279SOL    HW131562   7.753  12.325  13.438 -0.0365  0.2338 -0.0145
73279SOL    HW231563   7.900  12.309  13.402  0.1218  0.3589  0.5670
73280SOL     OW31564   4.587  11.461   5.140 -0.3948  0.0156 -0.1330
73280SOL    HW131565   4.528  11.389   5.161 -1.6741  1.1328  0.2119
73280SOL    HW231566   4.600  11.456   5.046 -0.0415 -0.9718 -0.0410
73281SOL     OW31567   8.204   5.329   7.461 -0.5408  0.1820 -0.7250
73281SOL    HW131568   8.193   5.392   7.389  0.7265  0.0024 -1.0879
73281SOL    HW231569   8.286   5.283   7.441  0.1478  0.5306  1.1575
73282SOL     OW31570   7.218  10.164   7.348 -0.4752  0.2804  0.0266
73282SOL    HW131571   7.239  10.183   7.439  0.0806  0.4719 -0.1376
73282SOL    HW231572   7.126  10.136   7.349  0.0249 -1.4968  0.9047
73283SOL     OW31573   3.668   7.686   7.416  0.1930 -0.4651  0.2250
73283SOL    HW131574   3.654   7.746   7.489  0.7211 -0.1562  0.0755
73283SOL    HW231575   3.668   7.599   7.457 -1.6454 -0.4821  0.3005
73284SOL     OW31576   6.961   1.249   3.168 -0.2121 -0.4556 -0.2659
73284SOL    HW131577   6.969   1.183   3.237 -0.9064 -0.1269  0.1440
73284SOL    HW231578   6.941   1.199   3.089  0.6136 -0.8366 -0.2439
73285SOL     OW31579  13.102  12.235   5.604 -1.5628 -0.5803  0.2269
73285SOL    HW131580  13.064  12.298   5.542  0.8783  0.6137 -0.1971
73285SOL    HW231581  13.048  12.157   5.595 -4.0300  1.0460 -0.0799
73286SOL     OW31582   0.514  11.102   0.152  0.5990  0.8734 -0.5978
73286SOL    HW131583   0.468  11.180   0.181 -1.0731  0.1207 -1.0920
73286SOL    HW231584   0.447  11.034   0.151  1.7827 -0.3265 -1.1720
73287SOL     OW31585   0.619   3.597   6.019  0.4310 -0.5614  0.2876
73287SOL    HW131586   0.693   3.657   6.010  1.5762 -1.8978  0.3494
73287SOL    HW231587   0.642   3.542   6.095  0.2027 -2.0832 -0.6929
73288SOL     OW31588  11.184   4.752   6.069  0.1034  0.6520 -0.2695
73288SOL    HW131589  11.231   4.700   6.135 -0.9565  0.3012  0.2330
73288SOL    HW231590  11.105   4.701   6.051  0.1744  0.9625 -1.5079
73289SOL     OW31591   0.864   4.606   1.647 -0.4220  0.1211 -0.0867
73289SOL    HW131592   0.827   4.529   1.604 -0.7662  1.3585 -2.1578
73289SOL    HW231593   0.853   4.676   1.583  0.1002  1.8497  1.6403
73290SOL     OW31594   2.456   8.666  11.445 -0.2492 -0.2503  0.1024
73290SOL    HW131595   2.539   8.710  11.423 -0.6494 -0.1990 -1.4407
73290SOL    HW231596   2.465   8.578  11.409  0.5841 -1.6165  3.2736
73291SOL     OW31597  13.227   7.944   0.337  0.2650  0.3203 -0.4213
73291SOL    HW131598  13.195   8.031   0.316 -0.9635  0.0027  0.0377
73291SOL    HW231599  13.322   7.950   0.328  0.1140  1.3915 -1.5109
73292SOL     OW31600  13.314  10.926   3.361 -0.5104 -0.2159 -0.3856
73292SOL    HW131601  13.263  10.879   3.427 -1.5762 -0.4676 -1.3352
73292SOL    HW231602  13.249  10.981   3.316  0.0824 -0.4010 -1.5161
73293SOL     OW31603   3.209   1.492  11.758 -0.0195 -0.2974  0.4542
73293SOL    HW131604   3.297   1.489  11.720  0.2938  1.6795  0.9309
73293SOL    HW231605   3.156   1.540  11.694 -0.7924 -1.5069  0.1519
73294SOL     OW31606  11.288  11.532   4.364 -0.1146  0.5066 -0.5046
73294SOL    HW131607  11.235  11.571   4.434  0.0317 -0.4553  0.1700
73294SOL    HW231608  11.225  11.500   4.300 -0.2875  0.5706 -0.3653
73295SOL     OW31609  10.004  11.161   1.870 -0.5104 -0.2247  0.2659
73295SOL    HW131610   9.948  11.187   1.796  2.0229  1.4963 -1.2316
73295SOL    HW231611  10.061  11.093   1.834  1.4764  1.3815  0.1931
73296SOL     OW31612  11.006   3.136   9.404 -0.2808 -0.0839 -0.4242
73296SOL    HW131613  11.049   3.117   9.487 -2.7645  1.9881  1.5221
73296SOL    HW231614  11.045   3.075   9.342  3.2037 -0.3423  1.7395
73297SOL     OW31615   9.933  10.539   1.543 -0.2633 -0.2016  0.5601
73297SOL    HW131616   9.860  10.600   1.534 -0.8405 -0.7824  1.1681
73297SOL    HW231617   9.967  10.555   1.631 -0.3446 -0.6732  0.6788
73298SOL     OW31618   7.669   7.872   9.958  0.3198  0.4776  0.5809
73298SOL    HW131619   7.756   7.911   9.967 -0.1336  2.3491 -1.9125
73298SOL    HW231620   7.609   7.946   9.965 -0.9987 -0.6033  1.0921
73299SOL     OW31621   8.827  12.524   4.775 -0.2081 -0.1096  0.0883
73299SOL    HW131622   8.905  12.573   4.802  0.2664 -0.4251 -0.6710
73299SOL    HW231623   8.769  12.590   4.738  0.3560 -0.0706 -0.7663
73300SOL     OW31624   6.874  13.214   0.963  0.3313 -0.0152 -0.2817
73300SOL    HW131625   6.801  13.275   0.974 -0.1473 -0.5412 -0.5132
73300SOL    HW231626   6.889  13.213   0.868  2.1294  1.8059 -0.0907
73301SOL     OW31627   3.765   2.250   1.023  0.4372 -0.1484 -0.6545
73301SOL    HW131628   3.805   2.309   0.959  2.6228 -0.9542 -0.1230
73301SOL    HW231629   3.830   2.243   1.093 -0.0262 -2.6642 -0.3930
73302SOL     OW31630  11.205   9.890   6.930 -0.3120  0.2177  0.7562
73302SOL    HW131631  11.147   9.965   6.945 -1.2742 -0.5358  0.8561
73302SOL    HW231632  11.268   9.922   6.865 -2.2227  0.3927 -1.1515
73303SOL     OW31633   9.063   1.705  10.817 -0.1839 -0.4158  0.1668
73303SOL    HW131634   9.049   1.769  10.747 -0.5037  0.5403  1.0842
73303SOL    HW231635   9.030   1.623  10.781  0.6049 -0.1839 -1.1933
73304SOL     OW31636   6.499   7.949  12.035  0.1063  0.5040 -0.2172
73304SOL    HW131637   6.466   7.867  12.072 -0.7447  0.7818 -0.3278
73304SOL    HW231638   6.491   8.013  12.106 -2.4287  1.2678 -1.0515
73305SOL     OW31639   8.796   6.601   8.776 -0.6100  0.5318 -0.0584
73305SOL    HW131640   8.760   6.514   8.792 -0.6580  0.8890  1.9566
73305SOL    HW231641   8.739   6.638   8.708 -0.7144 -0.8994 -0.7970
73306SOL     OW31642  13.727  11.795   0.372 -0.2954 -0.4654  0.1768
73306SOL    HW131643  13.632  11.790   0.377 -0.4033 -0.8159 -1.5985
73306SOL    HW231644  13.757  11.706   0.387 -0.5315 -1.2073 -3.0932
73307SOL     OW31645  12.921   0.239   3.589  0.2373  0.2182  0.9943
73307SOL    HW131646  12.849   0.185   3.621  0.6026 -0.5539  0.5364
73307SOL    HW231647  12.882   0.293   3.521 -0.2019  0.7822  1.6780
73308SOL     OW31648  13.395   8.677   6.240 -0.0972  0.1998 -0.7095
73308SOL    HW131649  13.471   8.726   6.272 -0.3628  1.0664 -1.3997
73308SOL    HW231650  13.431   8.591   6.217  0.6160  0.5059 -0.7531
73309SOL     OW31651   3.878   5.695  10.578 -0.0793  0.3383  0.3879
73309SOL    HW131652   3.810   5.628  10.588 -0.7385  0.9474  0.0381
73309SOL    HW231653   3.878   5.741  10.662  0.9959 -0.6560  0.9590
73310SOL     OW31654  11.058   4.582   4.628  0.1562 -0.7285 -0.1189
73310SOL    HW131655  11.014   4.499   4.646  0.8415 -1.5883 -2.0819
73310SOL    HW231656  11.065   4.624   4.714 -2.6661 -1.4071  0.5590
73311SOL     OW31657   9.073  10.001   3.566 -0.6830  0.0983 -0.0672
73311SOL    HW131658   9.156   9.963   3.595 -0.4433  0.0254 -0.8379
73311SOL    HW231659   9.081  10.094   3.585 -0.5392  0.0480  0.1194
73312SOL     OW31660  12.685  11.916  11.894 -0.1874  0.1197 -0.0195
73312SOL    HW131661  12.612  11.911  11.832  0.0031  1.3596 -0.3587
73312SOL    HW231662  12.718  12.005  11.886  0.5324 -0.0251  1.0956
73313SOL     OW31663   7.821  11.713  13.303 -0.1436  0.4261  0.2279
73313SOL    HW131664   7.784  11.626  13.319 -2.5069  1.0965 -1.1514
73313SOL    HW231665   7.896  11.697  13.246 -0.5867 -0.7164 -0.0613
73314SOL     OW31666   6.207   4.464   0.272  0.1057 -0.4547  0.3359
73314SOL    HW131667   6.159   4.445   0.192 -0.5610  2.9333 -0.2326
73314SOL    HW231668   6.283   4.514   0.244  0.3255  0.0596  1.7200
73315SOL     OW31669   8.241   4.395   2.124  0.1749  0.4050 -0.3049
73315SOL    HW131670   8.165   4.426   2.076  0.1819 -0.2379 -0.7500
73315SOL    HW231671   8.315   4.442   2.086  0.0305  0.8351 -0.0526
73316SOL     OW31672   8.030  12.951   2.809 -0.4053  0.4703  0.1862
73316SOL    HW131673   8.012  12.868   2.853 -0.5222  0.5807  0.3523
73316SOL    HW231674   8.057  12.927   2.721 -0.7495  0.2705  0.1326
73317SOL     OW31675  11.353   6.862   8.183 -0.8113 -0.2207  0.6975
73317SOL    HW131676  11.438   6.849   8.224 -1.0078  1.2929  1.6729
73317SOL    HW231677  11.306   6.780   8.198 -0.0911 -0.4800  1.5822
73318SOL     OW31678  13.296   8.129   4.904  0.1956 -0.2125 -0.4660
73318SOL    HW131679  13.366   8.164   4.848  0.1945 -1.0853 -1.0285
73318SOL    HW231680  13.320   8.158   4.993  1.1257 -0.2779 -0.6875
73319SOL     OW31681   7.779  10.751  10.700  0.1816  0.5944 -0.0487
73319SOL    HW131682   7.848  10.718  10.757  0.1751 -0.2634 -0.5171
73319SOL    HW231683   7.762  10.840  10.731  0.4265  0.2728  1.0501
73320SOL     OW31684  12.227   1.966  10.418  0.2755 -0.0978 -0.0362
73320SOL    HW131685  12.154   1.977  10.478 -0.6784  0.7492 -1.3022
73320SOL    HW231686  12.234   1.871  10.406 -1.1515 -0.1624 -0.5247
73321SOL     OW31687   9.245   7.559  13.455  0.0566 -0.4835 -0.0399
73321SOL    HW131688   9.225   7.533  13.545  1.1792 -0.8945  0.1008
73321SOL    HW231689   9.327   7.608  13.462 -0.6054  0.7731 -0.6617
73322SOL     OW31690  10.427   1.724  13.611  0.1499  0.1331  0.0261
73322SOL    HW131691  10.373   1.799  13.585 -0.5286 -0.5898 -0.6997
73322SOL    HW231692  10.441   1.675  13.530 -0.0512 -0.9244  0.6106
73323SOL     OW31693  13.541   2.983   9.497 -0.0752 -0.6330 -0.4482
73323SOL    HW131694  13.547   3.065   9.546  2.7509 -0.5454 -0.7505
73323SOL    HW231695  13.581   3.002   9.412  1.3546 -2.4675 -0.2515
73324SOL     OW31696   3.618   8.316  11.667 -0.3082  0.5349  0.4079
73324SOL    HW131697   3.680   8.269  11.723  0.2075 -2.2975 -2.2718
73324SOL    HW231698   3.666   8.329  11.585 -2.7168 -0.3730 -1.2224
73325SOL     OW31699  10.929   4.265   2.205 -0.8760  0.2399 -0.2207
73325SOL    HW131700  10.975   4.246   2.123  1.0420  0.0017  0.8621
73325SOL    HW231701  10.980   4.334   2.246 -1.2781 -0.2699  1.1854
73326SOL     OW31702  12.425  12.806  11.982  0.6110  0.1864  0.0267
73326SOL    HW131703  12.452  12.745  11.912  0.8895  0.0443  0.2546
73326SOL    HW231704  12.384  12.879  11.935  0.3391 -0.1410 -0.2534
73327SOL     OW31705   3.322  13.688   2.923 -0.0112 -0.5593  0.4481
73327SOL    HW131706   3.297  13.596   2.929  0.8718 -0.9693 -1.3840
73327SOL    HW231707   3.314  13.721   3.012 -0.5835 -2.3388  1.1008
73328SOL     OW31708   8.760   0.863  10.128  0.6740  0.2830  0.1055
73328SOL    HW131709   8.828   0.884  10.064  0.7800  0.5810  0.3114
73328SOL    HW231710   8.685   0.917  10.102  0.6983  0.3611  0.1961
73329SOL     OW31711   8.340   3.830   8.734 -0.1409  0.1371  0.5424
73329SOL    HW131712   8.400   3.773   8.781 -1.1854 -2.3000 -0.8907
73329SOL    HW231713   8.376   3.918   8.745  0.6341 -0.4853  4.2830
73330SOL     OW31714   2.331   1.255   5.409  0.1981  0.8366  0.2113
73330SOL    HW131715   2.410   1.241   5.461  0.2725  2.0897  0.4699
73330SOL    HW231716   2.261   1.262   5.474 -0.1698 -0.4442 -0.0259
73331SOL     OW31717   2.027   2.842  11.189  0.0557 -0.0573  0.5057
73331SOL    HW131718   1.966   2.842  11.262  0.2299 -0.6533  0.6581
73331SOL    HW231719   2.030   2.751  11.160  2.3215 -0.4569  1.7418
73332SOL     OW31720   7.924   9.484   9.829 -0.5309 -0.4844  0.2986
73332SOL    HW131721   7.831   9.464   9.814 -0.4924 -1.5223  1.3267
73332SOL    HW231722   7.940   9.562   9.776 -2.0159 -0.2314  0.1760
73333SOL     OW31723   7.003   1.047   6.713  0.5994 -0.3684 -0.1630
73333SOL    HW131724   6.914   1.038   6.680  0.8274  0.5167 -1.0558
73333SOL    HW231725   6.995   1.104   6.789  0.1612 -1.8688  0.9485
73334SOL     OW31726   1.195  12.363  11.219  0.6482 -0.3716  0.1234
73334SOL    HW131727   1.121  12.382  11.277  2.4874 -1.1407  2.9545
73334SOL    HW231728   1.155  12.331  11.138 -2.0856 -0.5077  1.4093
73335SOL     OW31729   0.282   5.358   1.197 -0.0214 -0.4372  0.3025
73335SOL    HW131730   0.350   5.305   1.240  0.3042  0.9382  1.5275
73335SOL    HW231731   0.327   5.438   1.172 -1.2052  0.5364  1.2171
73336SOL     OW31732   8.735  11.517   7.857 -0.0734 -0.0154 -0.1938
73336SOL    HW131733   8.681  11.446   7.821 -1.3555  0.0057  1.5655
73336SOL    HW231734   8.695  11.597   7.823 -1.0906 -0.0092  0.9425
73337SOL     OW31735   5.981   6.054  10.610  0.5196  0.6567 -0.3200
73337SOL    HW131736   5.996   6.046  10.704  3.0072 -0.9160 -0.7877
73337SOL    HW231737   5.981   6.149  10.594 -1.1858  1.0083  1.3705
73338SOL     OW31738  12.799   2.394  10.801  0.3226  0.5410 -0.4758
73338SOL    HW131739  12.833   2.464  10.744  0.1823 -0.0529 -1.3045
73338SOL    HW231740  12.876   2.357  10.843  0.8370 -1.1319 -2.7233
73339SOL     OW31741   2.889   1.823   5.531  0.5871  0.0735 -0.1192
73339SOL    HW131742   2.861   1.881   5.460  0.4742  0.3519  0.1520
73339SOL    HW231743   2.894   1.879   5.608 -1.5741 -0.6655  0.6417
73340SOL     OW31744  12.348  12.024   5.212  0.4812 -0.0452 -0.3004
73340SOL    HW131745  12.419  12.017   5.148  0.9371  1.1756  0.0357
73340SOL    HW231746  12.359  12.111   5.251 -2.0160  0.7928 -1.2288
73341SOL     OW31747   3.781   5.929  13.478  0.6371  0.0490  0.1297
73341SOL    HW131748   3.713   5.995  13.495  0.5853  0.3015 -0.9818
73341SOL    HW231749   3.817   5.910  13.564 -0.3628  0.4335  0.6607
73342SOL     OW31750  10.055   5.706   0.953 -0.1166 -0.0860 -0.0087
73342SOL    HW131751  10.122   5.744   0.896  0.2740 -0.4466  0.2022
73342SOL    HW231752   9.973   5.716   0.904 -0.3987  2.8299  0.8524
73343SOL     OW31753  10.505   0.690   7.124  0.3544  0.2096 -0.9087
73343SOL    HW131754  10.534   0.774   7.089  2.5129  0.8317  1.9796
73343SOL    HW231755  10.445   0.714   7.195 -2.2719 -0.9272 -2.5856
73344SOL     OW31756   0.863   6.615   4.340  0.3768 -0.3239  0.2557
73344SOL    HW131757   0.808   6.652   4.271  2.0176  0.8265 -0.4746
73344SOL    HW231758   0.854   6.520   4.329 -3.2055 -0.3169  1.6015
73345SOL     OW31759   3.899  12.501   9.253 -0.3577  0.6493 -0.0887
73345SOL    HW131760   3.870  12.422   9.299  3.1861 -1.6358 -1.4053
73345SOL    HW231761   3.839  12.508   9.178 -0.4874 -1.0823 -0.1836
73346SOL     OW31762   0.480  13.004  10.225 -0.0468 -0.0327  0.4999
73346SOL    HW131763   0.503  13.090  10.259 -0.5486  0.5070 -0.4843
73346SOL    HW231764   0.511  13.004  10.135  0.7297 -1.2220  0.7394
73347SOL     OW31765   0.789   9.789   6.086  0.0806 -0.5147 -1.0294
73347SOL    HW131766   0.836   9.787   6.170  0.7234 -0.1699 -1.3669
73347SOL    HW231767   0.782   9.697   6.060 -0.7586 -0.6740 -0.2559
73348SOL     OW31768   2.074  10.287  10.157 -0.2959  0.1093 -0.1346
73348SOL    HW131769   2.119  10.303  10.074  0.6437 -0.9448  0.1449
73348SOL    HW231770   2.132  10.229  10.205 -1.9205 -1.2714  0.2839
73349SOL     OW31771   7.745  11.667   1.674 -0.8249  0.1166  0.0876
73349SOL    HW131772   7.820  11.614   1.701 -0.4282  0.7011  0.1474
73349SOL    HW231773   7.693  11.608   1.620 -2.0789 -1.3667  2.7298
73350SOL     OW31774  11.224   2.450  10.481 -0.6106  0.1881 -0.5222
73350SOL    HW131775  11.248   2.537  10.512  0.2297  0.5559 -2.0678
73350SOL    HW231776  11.291   2.429  10.415  0.6652 -2.6687  1.4975
73351SOL     OW31777   0.727   3.071  12.778  0.0953  0.2200 -0.1000
73351SOL    HW131778   0.739   2.996  12.719 -1.9653 -0.7849  0.6254
73351SOL    HW231779   0.800   3.066  12.839  1.0548 -0.0268 -1.2402
73352SOL     OW31780   2.253   5.517   4.026  0.1224  0.0860 -0.7208
73352SOL    HW131781   2.293   5.598   4.060  1.6819  0.1929 -2.6168
73352SOL    HW231782   2.327   5.457   4.016 -0.7689 -0.9953 -0.9279
73353SOL     OW31783   4.309   4.890  12.577  0.5795  0.2411 -0.2461
73353SOL    HW131784   4.232   4.945  12.563 -0.5024 -1.3517 -0.8880
73353SOL    HW231785   4.326   4.850  12.492  0.5051 -1.3963  0.4685
73354SOL     OW31786  11.498   5.098   3.096  0.7106  0.1600  0.3610
73354SOL    HW131787  11.584   5.140   3.097  1.3492 -1.1070  0.2742
73354SOL    HW231788  11.474   5.091   3.189 -0.5274  2.8635  0.3328
73355SOL     OW31789   9.196   4.725  11.323 -0.0664  0.0498 -0.2161
73355SOL    HW131790   9.180   4.650  11.380 -1.6698  2.3181  2.5935
73355SOL    HW231791   9.261   4.777  11.369 -0.2033  1.1914 -1.2489
73356SOL     OW31792   4.947  11.101   1.021 -0.5327  0.3608 -0.4910
73356SOL    HW131793   4.918  11.083   0.932 -0.4803 -1.4421 -0.1939
73356SOL    HW231794   4.876  11.152   1.060 -1.5204 -0.6241 -0.9490
73357SOL     OW31795   2.194  10.604   8.925 -0.7756 -0.2964  0.9153
73357SOL    HW131796   2.159  10.684   8.887 -0.4185 -0.1097  0.9743
73357SOL    HW231797   2.273  10.632   8.971  0.8170 -1.0513 -1.1908
73358SOL     OW31798  13.176   9.342  10.998 -0.1784  0.1597 -0.7073
73358SOL    HW131799  13.258   9.386  11.020 -0.6702  0.3976  0.7370
73358SOL    HW231800  13.197   9.249  10.999 -0.0167  0.1971  0.1355
73359SOL     OW31801  11.853   3.503   4.400  0.4347  0.1807 -0.0503
73359SOL    HW131802  11.882   3.526   4.489  2.6579  0.3669 -0.7893
73359SOL    HW231803  11.929   3.465   4.358  0.1213  2.0901 -2.6054
73360SOL     OW31804   8.742   9.132   6.476  0.3873 -0.4401  0.0699
73360SOL    HW131805   8.694   9.191   6.535 -0.7782 -1.6148  0.3406
73360SOL    HW231806   8.815   9.100   6.529  2.3819  2.3429 -0.7336
73361SOL     OW31807   2.472   9.278   2.290  0.3271  0.1278 -0.0534
73361SOL    HW131808   2.437   9.289   2.201  2.2080 -0.8836 -0.9827
73361SOL    HW231809   2.398   9.248   2.341 -0.4220 -0.9629 -1.6978
73362SOL     OW31810   3.966   1.098  10.861  0.0980  0.5658  0.1438
73362SOL    HW131811   3.903   1.106  10.789  2.0560  0.8563 -1.6566
73362SOL    HW231812   4.010   1.182  10.864  0.0085  0.5860  1.7952
73363SOL     OW31813   9.864   6.449   2.652 -0.2510  0.5237 -0.1629
73363SOL    HW131814   9.815   6.482   2.727  1.1091  2.0408  0.1039
73363SOL    HW231815   9.818   6.484   2.576 -1.4855 -0.8118 -0.0795
73364SOL     OW31816   5.691  11.134   9.705 -0.0391 -0.4221  0.0244
73364SOL    HW131817   5.662  11.045   9.683 -1.3813  0.3539 -1.5061
73364SOL    HW231818   5.672  11.186   9.627 -0.1672  1.4211  1.2181
73365SOL     OW31819  13.573  10.842   3.387  0.1869 -0.1865  0.2258
73365SOL    HW131820  13.486  10.881   3.383  0.3126 -0.0327 -1.3992
73365SOL    HW231821  13.585  10.800   3.302  1.1727 -1.3706  0.9197
73366SOL     OW31822   3.877  11.648   2.697 -0.1053  0.1202 -0.0450
73366SOL    HW131823   3.940  11.580   2.672  0.7463  0.8940 -0.0553
73366SOL    HW231824   3.803  11.635   2.638  0.7465  0.2219 -1.1786
73367SOL     OW31825   6.593   2.220   3.093  0.3939  0.2124  0.1117
73367SOL    HW131826   6.634   2.275   3.160 -1.6226  3.0576 -0.8256
73367SOL    HW231827   6.502   2.213   3.120 -0.0695 -0.0267 -1.4431
73368SOL     OW31828  10.641   8.185   4.976 -0.0043  0.0379  0.2383
73368SOL    HW131829  10.650   8.109   5.034  1.7178  0.0216 -0.0093
73368SOL    HW231830  10.584   8.153   4.905  1.9711 -1.6022 -0.7180
73369SOL     OW31831  11.972   5.800   1.387  0.0845 -0.4618  0.3830
73369SOL    HW131832  11.930   5.871   1.435  2.9018 -0.3108  2.8728
73369SOL    HW231833  12.048   5.840   1.345 -0.0517 -1.4223 -0.8532
73370SOL     OW31834  11.910   7.942   8.176 -0.2392 -1.0248  0.9415
73370SOL    HW131835  11.857   7.894   8.239 -2.6132  0.4879  0.2124
73370SOL    HW231836  11.869   7.923   8.091 -0.3738  1.0933  0.4898
73371SOL     OW31837   9.854   3.339   9.062 -0.4699  0.1906  0.2419
73371SOL    HW131838   9.870   3.267   9.122  0.9337  1.4613  1.4777
73371SOL    HW231839   9.879   3.418   9.111 -0.2358  1.3769 -1.6549
73372SOL     OW31840   8.779   9.999  12.069 -0.0503  0.2557 -0.1403
73372SOL    HW131841   8.707   9.982  12.128 -0.4311 -1.6111 -1.0755
73372SOL    HW231842   8.811   9.913  12.043  0.5709  0.9886 -2.0663
73373SOL     OW31843   0.447   8.941   0.169 -0.0982 -0.4295  0.0855
73373SOL    HW131844   0.426   8.928   0.076 -0.0249  0.0359  0.0019
73373SOL    HW231845   0.411   9.027   0.189  0.1428 -0.4070  0.4149
73374SOL     OW31846   4.095   3.989   3.461  0.7159  0.2148  0.0502
73374SOL    HW131847   4.079   4.068   3.513 -0.7914  0.3077 -0.5113
73374SOL    HW231848   4.112   4.020   3.373  0.5139 -0.0748 -0.0926
73375SOL     OW31849  11.843   2.880  13.391 -0.3311  0.1213 -0.3348
73375SOL    HW131850  11.908   2.940  13.354  1.9609  0.7710  4.1577
73375SOL    HW231851  11.878   2.792  13.373  0.7449  0.4183  0.2501
73376SOL     OW31852   7.804   3.739  11.562  0.4728 -0.3984 -1.0284
73376SOL    HW131853   7.756   3.741  11.645  0.3605  1.8755 -1.0796
73376SOL    HW231854   7.820   3.646  11.546  0.9543 -0.8865  1.7802
73377SOL     OW31855   7.202   3.627   9.788  0.0290 -0.2045  0.6462
73377SOL    HW131856   7.281   3.614   9.841  1.3238 -1.7059 -1.4764
73377SOL    HW231857   7.184   3.541   9.751 -0.7150  0.7607 -1.3919
73378SOL     OW31858   7.468  11.465  12.590  0.1559 -0.0391 -0.7072
73378SOL    HW131859   7.508  11.513  12.517 -1.1569  2.1805 -0.0668
73378SOL    HW231860   7.496  11.512  12.668  0.4375 -1.5661  0.1567
73379SOL     OW31861   0.688  12.995  11.513  0.1111 -0.0448 -0.5251
73379SOL    HW131862   0.780  12.995  11.540  0.1520  2.4744 -0.3871
73379SOL    HW231863   0.639  12.996  11.595 -0.0288 -0.7700 -0.5971
73380SOL     OW31864  10.583   7.014  10.684  0.1806 -0.2828  0.3148
73380SOL    HW131865  10.626   7.084  10.636  2.0396 -1.9737 -0.6529
73380SOL    HW231866  10.624   7.016  10.770  0.2937 -0.2332  0.2601
73381SOL     OW31867  13.722   3.640  11.762 -0.7103 -0.8029 -0.2459
73381SOL    HW131868  13.768   3.714  11.723 -1.5467  0.0753  0.4124
73381SOL    HW231869  13.792   3.583  11.794  0.0660 -1.7503 -3.2377
73382SOL     OW31870   0.078   3.776   4.725 -0.2301  0.0821  0.0311
73382SOL    HW131871   0.012   3.832   4.683  0.3374 -0.2651 -1.3308
73382SOL    HW231872   0.162   3.811   4.696  0.2009 -0.0089  1.0956
73383SOL     OW31873   7.333  13.059  11.858  0.3773  0.0952 -0.2842
73383SOL    HW131874   7.256  13.044  11.913  0.7210 -0.1811  0.1237
73383SOL    HW231875   7.384  12.979  11.866  0.7504  0.3111 -0.4896
73384SOL     OW31876   3.333   5.360   1.398 -0.3223 -0.4426 -0.5005
73384SOL    HW131877   3.289   5.442   1.420 -0.1714 -0.8235  1.3055
73384SOL    HW231878   3.378   5.334   1.478  2.4847 -0.5615 -1.9618
73385SOL     OW31879   2.885  11.234  13.079  0.2001 -0.2528 -0.2476
73385SOL    HW131880   2.884  11.228  13.175  1.7681  0.1814 -0.1817
73385SOL    HW231881   2.913  11.148  13.050 -0.0139 -0.3022 -0.3058
73386SOL     OW31882   9.946   4.982   7.263 -0.7293 -0.1189 -0.1861
73386SOL    HW131883   9.945   4.934   7.345  0.5851 -1.8012 -1.1058
73386SOL    HW231884   9.873   5.043   7.271 -2.5776 -2.3305  0.9959
73387SOL     OW31885  12.676   1.428   5.004 -0.2597  0.1399  0.1067
73387SOL    HW131886  12.613   1.419   4.933  2.2895 -0.1991 -2.2712
73387SOL    HW231887  12.678   1.522   5.023 -0.6930  0.2859 -0.5565
73388SOL     OW31888   7.893  11.699   4.209 -0.2352  0.3547 -0.2897
73388SOL    HW131889   7.966  11.650   4.172 -0.7974  1.0246 -2.4497
73388SOL    HW231890   7.927  11.736   4.290  2.3161  1.7907 -1.9076
73389SOL     OW31891   8.159   1.898   5.175  0.4992  0.2182 -0.1002
73389SOL    HW131892   8.143   1.965   5.109  1.4804  1.2553  0.6712
73389SOL    HW231893   8.090   1.911   5.240  0.2374 -0.0197 -0.3327
73390SOL     OW31894   0.531   3.130   3.473  0.3467  0.0568  0.2855
73390SOL    HW131895   0.608   3.110   3.525 -0.9677  1.1980  2.9094
73390SOL    HW231896   0.465   3.066   3.502  0.0635 -0.4679 -1.4005
73391SOL     OW31897  10.261  11.788   3.455  0.1356 -0.2485  0.1310
73391SOL    HW131898  10.264  11.752   3.366 -1.4620  0.5563 -0.2913
73391SOL    HW231899  10.180  11.753   3.492 -0.0471  0.7143  0.6753
73392SOL     OW31900  10.376  11.365   4.794 -0.6496  0.0586  0.6338
73392SOL    HW131901  10.377  11.316   4.876  0.6361  1.1992  1.3398
73392SOL    HW231902  10.285  11.393   4.784 -1.5932 -2.8959 -0.1327
73393SOL     OW31903   7.698   9.669   6.055 -0.4546  0.1082  0.3331
73393SOL    HW131904   7.684   9.584   6.095  0.7719  0.1753  0.9675
73393SOL    HW231905   7.737   9.722   6.124 -0.7168  1.0270 -0.2030
73394SOL     OW31906   4.546   0.330  12.591  0.1260 -0.2030 -0.2871
73394SOL    HW131907   4.541   0.249  12.641 -3.4928  1.8174  3.1458
73394SOL    HW231908   4.604   0.387  12.642 -1.8887  1.1763  0.5757
73395SOL     OW31909   8.894  10.997   7.829 -0.3447 -0.5392 -0.0609
73395SOL    HW131910   8.880  11.076   7.778 -1.6856 -1.2327 -0.8233
73395SOL    HW231911   8.821  10.939   7.805  0.3664 -1.8452  0.7757
73396SOL     OW31912   5.079   8.015  11.416  0.1209 -0.3136 -0.4626
73396SOL    HW131913   5.158   7.960  11.417  1.6877  1.7428 -1.8916
73396SOL    HW231914   5.113   8.105  11.418 -2.3126  0.6850  1.9842
73397SOL     OW31915  10.986  11.042  10.267 -0.2420  0.3209 -0.3581
73397SOL    HW131916  11.070  11.070  10.305 -0.0238 -0.7054 -0.0689
73397SOL    HW231917  10.993  10.947  10.260 -0.9525  0.3314 -1.3788
73398SOL     OW31918  10.544   4.289   5.469  0.4033 -0.3436  0.0395
73398SOL    HW131919  10.629   4.306   5.507  0.6153 -0.9703 -0.1429
73398SOL    HW231920  10.503   4.226   5.527 -0.5286  1.0098  0.9167
73399SOL     OW31921  13.554  13.223   4.939 -0.2217  0.0687  0.0959
73399SOL    HW131922  13.620  13.153   4.934 -0.1069  0.1347  0.6884
73399SOL    HW231923  13.553  13.260   4.850  1.2284  0.6862  0.3102
73400SOL     OW31924  12.345  12.710  11.195 -0.0746 -0.0076 -0.0172
73400SOL    HW131925  12.261  12.663  11.199 -0.2152  0.1912 -0.5515
73400SOL    HW231926  12.410  12.642  11.179 -0.2880 -0.0224 -0.8868
73401SOL     OW31927   1.855   5.927  12.018 -0.5350  0.7009 -0.4246
73401SOL    HW131928   1.805   5.879  12.084 -0.4128 -0.1569 -0.9319
73401SOL    HW231929   1.807   5.913  11.936  0.5702 -0.2504 -0.9431
73402SOL     OW31930  11.384  13.277   9.188  0.3038  0.4586  0.1418
73402SOL    HW131931  11.470  13.288   9.145 -0.3461  2.3295 -0.8385
73402SOL    HW231932  11.374  13.183   9.198  1.7204  0.0930 -1.3450
73403SOL     OW31933   1.169   4.699  10.171  0.3974 -0.4544  0.1005
73403SOL    HW131934   1.096   4.641  10.193 -0.4092  0.8059  0.8611
73403SOL    HW231935   1.137   4.749  10.096  0.3148  0.3715  0.6766
73404SOL     OW31936  10.495   1.372   4.967 -0.0142 -0.1412 -0.5001
73404SOL    HW131937  10.470   1.298   4.911 -0.2303  0.6042 -1.4183
73404SOL    HW231938  10.584   1.352   4.996  0.3690 -0.2255 -1.6868
73405SOL     OW31939   3.815  12.501   2.868 -0.4044  0.5152 -0.7193
73405SOL    HW131940   3.836  12.410   2.850 -0.2788  0.6651 -1.3360
73405SOL    HW231941   3.881  12.528   2.933 -0.3821  0.2010 -0.6101
73406SOL     OW31942   2.606   4.072   4.297 -0.0992  0.2000  0.2695
73406SOL    HW131943   2.588   4.157   4.337 -1.3022  0.2455 -0.3294
73406SOL    HW231944   2.608   4.010   4.370  0.1661  0.6370  0.6410
73407SOL     OW31945   2.293   1.431  13.510 -0.3146 -0.2039  0.0290
73407SOL    HW131946   2.279   1.516  13.551  1.3630  0.6004 -0.9835
73407SOL    HW231947   2.343   1.380  13.574 -0.2935 -0.0168  0.1590
73408SOL     OW31948   4.245   1.156   6.685 -0.5984  0.2114  0.0222
73408SOL    HW131949   4.306   1.230   6.681  0.2638 -0.4815 -0.0005
73408SOL    HW231950   4.223   1.138   6.594  0.2307 -0.3870 -0.0693
73409SOL     OW31951  10.800   5.275   3.310 -0.6588  0.5474 -0.1920
73409SOL    HW131952  10.763   5.214   3.374 -0.5311  1.8710  1.2179
73409SOL    HW231953  10.723   5.318   3.272 -0.6994  1.4044  0.8020
73410SOL     OW31954  12.418   9.618   8.035 -0.5529  0.3629  0.3004
73410SOL    HW131955  12.468   9.693   8.003  0.5435  0.4102  2.0084
73410SOL    HW231956  12.441   9.611   8.128  0.7340 -3.1324 -0.1366
73411SOL     OW31957   9.877   4.188   0.390  0.5614 -0.3621 -0.3108
73411SOL    HW131958   9.917   4.115   0.343 -0.0625  0.2680 -1.8711
73411SOL    HW231959   9.798   4.209   0.341 -0.8483 -0.4972  1.7783
73412SOL     OW31960   5.766   9.530   2.086 -0.8405  0.6680 -0.4106
73412SOL    HW131961   5.821   9.597   2.046 -1.4506  0.9291 -0.8269
73412SOL    HW231962   5.727   9.573   2.162 -0.7510  0.5890 -0.3181
73413SOL     OW31963   7.189   8.278   6.503  0.3891  0.5596  0.2963
73413SOL    HW131964   7.158   8.345   6.443 -0.4426 -1.0662 -1.2042
73413SOL    HW231965   7.265   8.239   6.459  0.4313  0.0530  0.8007
73414SOL     OW31966   8.855   9.095   7.084  0.1992 -0.0139  0.7159
73414SOL    HW131967   8.764   9.064   7.079  0.3398 -0.3830  0.3684
73414SOL    HW231968   8.851   9.172   7.141 -0.3056 -0.1234  0.8347
73415SOL     OW31969  11.614  10.506   3.574  0.3037  0.3373  0.3543
73415SOL    HW131970  11.646  10.500   3.664  0.2362 -2.0087  0.2798
73415SOL    HW231971  11.522  10.530   3.582  0.5328  1.0737  0.8496
73416SOL     OW31972   3.724   8.473   4.522 -0.4826  0.3264 -0.1786
73416SOL    HW131973   3.746   8.564   4.501  2.9575 -0.5636 -1.1955
73416SOL    HW231974   3.774   8.422   4.458 -0.2438 -2.3176  1.9674
73417SOL     OW31975   1.239   6.998   9.952 -0.2906 -0.1753  0.2003
73417SOL    HW131976   1.161   6.959   9.913 -0.7497  1.0765 -0.1756
73417SOL    HW231977   1.207   7.074  10.001  0.8366  1.4631 -1.4409
73418SOL     OW31978   0.098   6.136   0.629  0.0012  0.0243 -0.1076
73418SOL    HW131979   0.065   6.159   0.716 -2.4273 -3.2193  0.0078
73418SOL    HW231980   0.181   6.092   0.646  0.3100  0.7707  0.3916
73419SOL     OW31981   6.318   1.711  10.133  0.4811 -0.0569 -0.3743
73419SOL    HW131982   6.326   1.619  10.107 -1.5718 -0.5121  0.3948
73419SOL    HW231983   6.398   1.730  10.182  1.5446 -1.0062 -1.6700
73420SOL     OW31984   8.921   4.128   8.930  0.5392  0.8727  0.5180
73420SOL    HW131985   8.955   4.170   8.851 -0.6805  0.5601 -0.2211
73420SOL    HW231986   8.915   4.035   8.906  1.9581  0.4488  1.6673
73421SOL     OW31987   2.000  13.256   0.982 -0.3190  0.1487 -0.1949
73421SOL    HW131988   1.991  13.163   0.959  1.3177 -0.2736  0.6736
73421SOL    HW231989   1.913  13.282   1.013 -0.4082 -1.5998  1.2066
73422SOL     OW31990  10.211   1.425   8.373 -0.2981  0.3469  0.8454
73422SOL    HW131991  10.275   1.493   8.393  0.2789  0.5109 -1.2700
73422SOL    HW231992  10.129   1.472   8.359 -0.2765  0.4330  1.0150
73423SOL     OW31993  13.070   2.125   9.796  0.2160 -0.0824 -0.2317
73423SOL    HW131994  13.012   2.143   9.722  0.1144 -0.7616 -0.3269
73423SOL    HW231995  13.041   2.185   9.865 -0.2947 -0.0912 -0.4353
73424SOL     OW31996   4.103  11.750   8.757 -0.4633 -0.0822  0.9582
73424SOL    HW131997   4.187  11.767   8.801  0.1214 -1.5772  0.4833
73424SOL    HW231998   4.090  11.826   8.700  0.4140  0.3192  1.2687
73425SOL     OW31999   9.663   1.354   9.443 -0.2617  0.3442  0.2189
73425SOL    HW132000   9.628   1.383   9.527 -1.1831  0.1868 -0.1066
73425SOL    HW232001   9.746   1.311   9.466 -0.9423 -0.5032  1.1442
73426SOL     OW32002  12.747   9.834   8.160 -0.2536  0.4361 -0.1578
73426SOL    HW132003  12.711   9.894   8.224 -0.5935 -0.4929  0.5468
73426SOL    HW232004  12.842   9.842   8.169 -0.2671  1.8255 -1.0084
73427SOL     OW32005   0.819   3.850   8.242  0.1142  0.1359 -0.3111
73427SOL    HW132006   0.783   3.916   8.302 -1.1741 -0.2861 -0.5956
73427SOL    HW232007   0.757   3.778   8.245 -0.1237  0.1907 -2.3148
73428SOL     OW32008   5.092   5.434   0.420  0.3965 -0.3937  0.3452
73428SOL    HW132009   5.003   5.449   0.390 -0.1736 -1.6761  1.2934
73428SOL    HW232010   5.133   5.383   0.350  0.4703  0.4083 -0.2017
73429SOL     OW32011   0.484   3.073   0.272  0.0499 -0.6228 -0.3664
73429SOL    HW132012   0.443   3.085   0.187  1.3419 -0.4090 -0.9820
73429SOL    HW232013   0.571   3.113   0.263  0.2254 -0.6190  1.0396
73430SOL     OW32014   9.235  12.294   3.478 -0.5649 -0.1825  0.2118
73430SOL    HW132015   9.220  12.235   3.551 -1.0933 -0.1198  0.1574
73430SOL    HW232016   9.212  12.381   3.511  3.5346  0.6193  1.4293
73431SOL     OW32017  13.082   3.789  11.547  0.2367  0.3755  0.5695
73431SOL    HW132018  12.988   3.806  11.538  0.0278 -1.5474 -2.4070
73431SOL    HW232019  13.121   3.876  11.558 -1.6999  1.5432 -1.0647
73432SOL     OW32020   2.710   2.260   4.741 -0.6331 -0.1626 -0.1639
73432SOL    HW132021   2.728   2.186   4.799 -0.0836  0.5981  0.6641
73432SOL    HW232022   2.764   2.244   4.664  0.4854  0.0159  0.5607
73433SOL     OW32023   2.788   0.384   0.106  0.5498 -0.2802  0.3704
73433SOL    HW132024   2.822   0.431   0.030 -0.5371 -0.3219 -0.1496
73433SOL    HW232025   2.773   0.453   0.171 -0.3566  0.0144 -0.1405
73434SOL     OW32026   0.508   3.715   4.900  0.1509  0.2851  0.1146
73434SOL    HW132027   0.415   3.723   4.924 -0.0149 -0.5005 -0.2321
73434SOL    HW232028   0.555   3.751   4.975 -0.3985 -0.9044  1.0597
73435SOL     OW32029  12.450   9.289   6.655  0.4419 -0.6762  0.4442
73435SOL    HW132030  12.403   9.211   6.626  3.0011 -1.5261 -1.9221
73435SOL    HW232031  12.409   9.360   6.606 -1.8569 -0.3978  2.5578
73436SOL     OW32032   5.458  13.606   8.089  0.0149 -0.3714  0.4911
73436SOL    HW132033   5.541  13.636   8.052 -0.5413  0.8897  0.1897
73436SOL    HW232034   5.442  13.522   8.047  0.1107  0.3680 -1.0954
73437SOL     OW32035   4.446   2.223  12.524  0.2018 -0.1068 -0.5788
73437SOL    HW132036   4.501   2.173  12.464  0.1411  0.9205 -1.5135
73437SOL    HW232037   4.466   2.314  12.505  1.6004  0.3085  2.2736
73438SOL     OW32038   2.295   3.746   7.689 -0.0440  0.1820  0.2594
73438SOL    HW132039   2.281   3.655   7.714 -1.1988 -0.1992 -1.5942
73438SOL    HW232040   2.229   3.795   7.738 -1.1396 -0.3276 -0.6760
73439SOL     OW32041   2.966  10.610   4.421  0.0097 -0.3788  0.1314
73439SOL    HW132042   2.894  10.593   4.361  0.6093 -0.4860 -0.5780
73439SOL    HW232043   2.925  10.641   4.501 -0.7818  0.0770 -0.4502
73440SOL     OW32044   3.903   8.466   1.406 -0.0088  0.2621  0.0794
73440SOL    HW132045   3.920   8.448   1.498 -1.6214 -0.4584  0.2665
73440SOL    HW232046   3.916   8.560   1.397 -4.3061  1.3022  2.1823
73441SOL     OW32047   0.086   2.938  13.345 -0.1154  0.4421 -0.1881
73441SOL    HW132048   0.138   2.870  13.302  1.5071  1.2237  0.4831
73441SOL    HW232049   0.056   2.993  13.273  2.9446  1.9992 -0.4349
73442SOL     OW32050   9.110   9.909   5.720 -0.0529 -0.6632 -0.3477
73442SOL    HW132051   9.076   9.837   5.668  0.6183 -0.8458 -0.5447
73442SOL    HW232052   9.145   9.971   5.656 -1.1374  0.1145 -0.2129
73443SOL     OW32053  12.669   1.479  10.875 -0.5566 -0.5019  0.6280
73443SOL    HW132054  12.700   1.463  10.786 -2.1195 -1.6804  0.2517
73443SOL    HW232055  12.613   1.556  10.867 -0.9757 -0.8149  0.5122
73444SOL     OW32056   8.640   2.506   8.310 -0.1170  0.4054 -0.4183
73444SOL    HW132057   8.619   2.458   8.230 -0.6789  1.5696 -0.9836
73444SOL    HW232058   8.571   2.480   8.372  0.9738 -1.4071  0.1163
73445SOL     OW32059   7.635   9.055   4.324  0.2461 -0.4152  0.3366
73445SOL    HW132060   7.712   9.003   4.347  0.1537 -0.6561  0.1080
73445SOL    HW232061   7.670   9.127   4.271  0.3837 -0.1975  0.7209
73446SOL     OW32062  13.221  13.550   9.511 -0.3393  0.4147  0.7775
73446SOL    HW132063  13.279  13.474   9.511  0.7669  1.2151  2.0023
73446SOL    HW232064  13.251  13.603   9.437 -0.6556 -0.0086  0.3460
73447SOL     OW32065   6.612   9.394   4.169  0.1028  0.0098 -0.0441
73447SOL    HW132066   6.680   9.418   4.233  0.3438  0.0446 -0.3093
73447SOL    HW232067   6.532   9.387   4.220  0.4123 -0.5741  0.3700
73448SOL     OW32068   1.689  11.927   3.448  0.0313  0.0023 -0.0799
73448SOL    HW132069   1.745  11.940   3.525  1.7272  1.5309 -1.4759
73448SOL    HW232070   1.630  12.003   3.448 -1.0583 -0.8283  0.5648
73449SOL     OW32071   3.858   5.141   1.679  0.8904 -0.1256 -0.3009
73449SOL    HW132072   3.912   5.121   1.756 -1.6688 -2.8009  1.0097
73449SOL    HW232073   3.823   5.228   1.697  1.1350 -0.2890  1.1135
73450SOL     OW32074  12.047   6.058  11.779  0.1029 -0.1500 -0.1469
73450SOL    HW132075  12.097   6.007  11.843 -0.6042 -0.1315  0.4265
73450SOL    HW232076  11.956   6.045  11.804 -0.1019  1.1729 -0.1465
73451SOL     OW32077  12.850   2.041  13.361  0.0830 -0.1966  0.0089
73451SOL    HW132078  12.791   1.969  13.337 -0.8246  0.1482  1.1387
73451SOL    HW232079  12.794   2.118  13.364  0.6868  0.2258  0.6305
73452SOL     OW32080   7.030   8.992   8.024 -0.9797 -0.1993  0.1591
73452SOL    HW132081   6.985   9.057   8.078 -4.4884 -0.1169 -2.5223
73452SOL    HW232082   7.046   8.918   8.083  0.5289  1.9064  2.5585
73453SOL     OW32083   6.248   8.809   0.207  0.1390 -0.5014 -0.2176
73453SOL    HW132084   6.336   8.828   0.175  0.0234 -1.1548 -0.9535
73453SOL    HW232085   6.190   8.844   0.140 -0.1223 -1.4349 -0.4877
73454SOL     OW32086  11.992   9.985   3.570  0.4822 -0.4876  0.1395
73454SOL    HW132087  11.965  10.074   3.551  0.9947 -0.0436  1.3958
73454SOL    HW232088  11.912   9.933   3.559 -0.3392  0.4401  1.3630
73455SOL     OW32089   9.299   4.042   5.115 -0.1435  0.1791  0.1121
73455SOL    HW132090   9.367   3.996   5.067 -0.2807 -1.3495  1.3148
73455SOL    HW232091   9.346   4.097   5.177  0.0109 -0.2553  0.3849
73456SOL     OW32092  10.089  13.387   6.387  0.3835 -0.1082 -0.1337
73456SOL    HW132093  10.153  13.380   6.458 -2.5207  0.4720  2.8220
73456SOL    HW232094  10.102  13.474   6.351  0.5235  0.4823  1.2665
73457SOL     OW32095   9.422   7.050   5.138  0.2550  0.0144 -0.8024
73457SOL    HW132096   9.411   7.097   5.055 -0.1031  0.5947 -0.4319
73457SOL    HW232097   9.381   6.965   5.122  1.4873 -0.4483 -1.6884
73458SOL     OW32098   5.672  10.806   2.473 -0.1786  0.2877 -0.0170
73458SOL    HW132099   5.677  10.760   2.389  1.0232 -1.4630  0.9394
73458SOL    HW232100   5.619  10.748   2.528 -2.4367  2.2322  0.0162
73459SOL     OW32101   9.805   5.337   7.559  0.1007 -0.0155 -0.3602
73459SOL    HW132102   9.753   5.323   7.638  0.7034  0.6449  0.1658
73459SOL    HW232103   9.835   5.428   7.566 -0.9493  0.5076 -2.0107
73460SOL     OW32104   1.976  11.963  10.334  0.5959 -0.2253  0.1674
73460SOL    HW132105   1.944  12.052  10.352 -0.3493 -0.1709 -1.5775
73460SOL    HW232106   1.898  11.913  10.312  1.3675 -0.8378 -1.3023
73461SOL     OW32107  10.156   5.583   2.340  0.0157 -0.2988  0.1708
73461SOL    HW132108  10.161   5.517   2.410  1.8337 -0.6549 -0.2318
73461SOL    HW232109  10.166   5.533   2.259  3.1076  0.4883 -0.0968
73462SOL     OW32110   5.313   1.608  10.282  0.5118 -0.0236 -0.1202
73462SOL    HW132111   5.232   1.638  10.241 -0.0456 -0.1685  0.8536
73462SOL    HW232112   5.366   1.687  10.291 -1.3652  1.0754  3.4072
73463SOL     OW32113  12.742   9.164   6.406 -0.0507  0.3910 -0.2337
73463SOL    HW132114  12.750   9.069   6.415  1.3138  0.4497 -0.4665
73463SOL    HW232115  12.687   9.176   6.329  0.6889 -0.2485 -0.8969
73464SOL     OW32116   0.396  10.310  13.336  0.0577  0.0776 -0.3192
73464SOL    HW132117   0.419  10.254  13.262  0.4232  0.7981 -0.7649
73464SOL    HW232118   0.349  10.384  13.297  0.7296  0.7387  0.0813
73465SOL     OW32119   3.634  11.571  11.167 -0.0645  1.0543 -0.5346
73465SOL    HW132120   3.629  11.628  11.091  1.2339  0.1819 -1.3013
73465SOL    HW232121   3.560  11.511  11.158  1.0986 -0.2237 -2.1343
73466SOL     OW32122  13.306   1.176   8.294 -0.1734 -0.9584 -0.2780
73466SOL    HW132123  13.325   1.190   8.386 -1.3266 -0.8873 -0.0384
73466SOL    HW232124  13.272   1.260   8.263  0.9907 -0.7326 -0.9825
73467SOL     OW32125   1.846   7.138   1.118 -0.2064 -0.4126 -0.2731
73467SOL    HW132126   1.805   7.080   1.181  0.3499 -0.2320  0.2635
73467SOL    HW232127   1.799   7.221   1.128  0.8112  0.0606  0.9624
73468SOL     OW32128  11.796   5.861  11.526  0.3249 -0.1156  0.6001
73468SOL    HW132129  11.793   5.843  11.620 -3.3869 -1.8745  0.3037
73468SOL    HW232130  11.838   5.784  11.488  0.8177  0.0942  0.7127
73469SOL     OW32131   8.861   3.653  10.480  0.4625 -0.5060  0.1696
73469SOL    HW132132   8.790   3.595  10.505  0.6741 -0.6197  0.5220
73469SOL    HW232133   8.912   3.603  10.417  1.5622 -1.3576  1.6580
73470SOL     OW32134   3.398   5.231   6.287  0.3690 -0.6412  0.2968
73470SOL    HW132135   3.453   5.270   6.219 -2.6293  0.1111 -1.9762
73470SOL    HW232136   3.326   5.191   6.238 -0.9424 -1.8344  3.0061
73471SOL     OW32137  11.048   1.522   1.360 -0.1683  0.3884  0.0490
73471SOL    HW132138  11.034   1.617   1.355 -1.2299  0.2022 -0.8948
73471SOL    HW232139  11.142   1.512   1.343 -0.5449  1.1139 -3.2740
73472SOL     OW32140   1.659  11.476   8.729 -1.3025  0.1211  0.7914
73472SOL    HW132141   1.605  11.456   8.805  0.3658 -1.1777  1.7085
73472SOL    HW232142   1.615  11.433   8.656 -1.9628 -0.1530  1.3407
73473SOL     OW32143  11.694   3.871   1.875 -0.5434  0.2005  0.1310
73473SOL    HW132144  11.649   3.821   1.807 -0.1725 -0.0532  0.0698
73473SOL    HW232145  11.779   3.894   1.837  0.0220 -0.6797  0.8050
73474SOL     OW32146   5.519   9.599   5.713  0.6087 -0.0406  0.2109
73474SOL    HW132147   5.540   9.509   5.689  0.7165  0.1484 -0.4190
73474SOL    HW232148   5.491   9.594   5.804 -1.5958 -1.0607 -0.4544
73475SOL     OW32149  11.433   1.634  11.492 -0.3719  0.2660 -0.1360
73475SOL    HW132150  11.495   1.562  11.478  0.9344  1.1761  0.7303
73475SOL    HW232151  11.350   1.590  11.513  0.6363 -1.0171  1.4106
73476SOL     OW32152   0.439  12.464   4.125  0.1702  0.4977  0.2000
73476SOL    HW132153   0.450  12.490   4.216 -0.2917  0.0244  0.4002
73476SOL    HW232154   0.361  12.512   4.095  1.1741  1.8064 -0.4111
73477SOL     OW32155  12.797   5.641   2.172  0.8341  0.3580 -0.0742
73477SOL    HW132156  12.854   5.717   2.161  0.1032  1.1491  1.2544
73477SOL    HW232157  12.840   5.588   2.239  1.3349 -0.4278 -0.9851
73478SOL     OW32158   7.558   0.183   0.630 -0.8782 -0.2519  0.4376
73478SOL    HW132159   7.559   0.093   0.664  1.1089 -0.4922 -0.1188
73478SOL    HW232160   7.626   0.228   0.680 -1.1644  0.6841  0.0091
73479SOL     OW32161   6.803   2.017   4.208 -0.0915  0.1006  0.2128
73479SOL    HW132162   6.750   1.983   4.280  0.2110 -1.7631 -0.3804
73479SOL    HW232163   6.757   1.988   4.129  0.8451 -0.0037 -0.3102
73480SOL     OW32164   4.548   6.940  12.373  0.0201  0.0680 -0.1758
73480SOL    HW132165   4.469   6.913  12.418  0.8676  0.1253  1.4239
73480SOL    HW232166   4.526   7.024  12.333 -0.9344 -0.2693 -0.3706
73481SOL     OW32167   3.469  10.460   2.777  0.1109 -0.3201  0.0733
73481SOL    HW132168   3.456  10.518   2.853 -2.1659 -1.3271  0.5406
73481SOL    HW232169   3.564  10.454   2.767  0.4561  0.5850  2.2815
73482SOL     OW32170   4.707   4.120   9.726 -0.0994  0.4106  0.1665
73482SOL    HW132171   4.765   4.160   9.791  0.4792  2.2285 -1.3780
73482SOL    HW232172   4.766   4.068   9.671 -0.4261 -0.2297  0.4062
73483SOL     OW32173   6.519   6.764  12.381  0.4881 -0.0748  0.2426
73483SOL    HW132174   6.432   6.726  12.396 -0.0409  1.1143  0.2946
73483SOL    HW232175   6.550   6.722  12.301 -0.5737  0.2212 -0.3458
73484SOL     OW32176  11.961   8.756  10.430  0.1360  0.8157 -0.5842
73484SOL    HW132177  12.028   8.821  10.450  0.3564  0.6103 -0.6543
73484SOL    HW232178  11.982   8.681  10.486 -1.6083  1.7358  1.4298
73485SOL     OW32179   2.020  10.774   3.628 -0.2468 -0.0278 -0.5995
73485SOL    HW132180   1.957  10.740   3.692 -0.1353  1.2405  0.2113
73485SOL    HW232181   2.096  10.715   3.636  0.5288  1.1513  1.8454
73486SOL     OW32182   9.413   4.869   6.367  0.3095 -0.2247  0.0666
73486SOL    HW132183   9.481   4.806   6.344  0.9956  0.4304  0.2554
73486SOL    HW232184   9.332   4.829   6.338  1.1106  0.8615 -4.3682
73487SOL     OW32185   7.794  13.172   0.074  0.2919  0.3470  0.2097
73487SOL    HW132186   7.807  13.255   0.119  3.1907  0.4970 -0.7251
73487SOL    HW232187   7.747  13.194  -0.006  1.0721  1.1234 -0.0484
73488SOL     OW32188  12.026   8.612   2.832 -0.1586  0.4260  0.4303
73488SOL    HW132189  11.968   8.554   2.881  0.0113 -0.9583 -0.9283
73488SOL    HW232190  12.106   8.562   2.818  0.1036  1.0693 -0.5391
73489SOL     OW32191   9.730   6.220  10.685 -0.5856 -0.1270 -0.0180
73489SOL    HW132192   9.741   6.152  10.618 -2.3715 -1.0239  0.5423
73489SOL    HW232193   9.690   6.175  10.759 -2.4477  1.6288  0.1322
73490SOL     OW32194   9.312   4.112   5.747  0.0079 -0.0220  0.5948
73490SOL    HW132195   9.404   4.137   5.758  0.1697 -0.1544 -0.3823
73490SOL    HW232196   9.274   4.184   5.697 -0.2741 -0.2582  0.4698
73491SOL     OW32197  10.516   3.763   2.007 -0.0871 -0.2439  0.1856
73491SOL    HW132198  10.452   3.694   1.988  1.0312 -0.8824 -1.4856
73491SOL    HW232199  10.469   3.845   1.991 -0.0200 -0.7141 -2.9642
73492SOL     OW32200   2.589   1.654   7.269 -0.0470 -0.5696 -0.1407
73492SOL    HW132201   2.618   1.592   7.336 -1.3709 -0.8709  0.1788
73492SOL    HW232202   2.625   1.619   7.187  1.7232 -0.1112  0.3818
73493SOL     OW32203  10.310   5.551   6.371 -0.4672  0.6358 -0.2075
73493SOL    HW132204  10.299   5.533   6.465  1.7106  0.5020  0.0852
73493SOL    HW232205  10.308   5.465   6.330 -0.4283  0.6090 -0.1535
73494SOL     OW32206   8.069   0.460   9.777  0.4471 -0.1513 -0.7685
73494SOL    HW132207   8.033   0.405   9.708  3.3045  0.9387 -3.3862
73494SOL    HW232208   8.121   0.400   9.831  1.3735 -0.5168 -2.0032
73495SOL     OW32209   6.376  11.354   7.187  0.2649 -0.3240  0.1068
73495SOL    HW132210   6.375  11.274   7.135 -0.2409  0.4962 -1.1992
73495SOL    HW232211   6.390  11.424   7.123 -0.3268  0.7160  1.0730
73496SOL     OW32212   2.694   7.469   0.256  0.0622 -0.0130  0.1530
73496SOL    HW132213   2.702   7.374   0.245  1.4464  0.2429 -1.6079
73496SOL    HW232214   2.615   7.492   0.208 -0.0423 -0.2300  0.2187
73497SOL     OW32215   0.243   8.333  12.538  0.2825 -0.2176  0.2901
73497SOL    HW132216   0.157   8.322  12.499 -0.6713 -1.8858  2.6188
73497SOL    HW232217   0.232   8.405  12.601  0.8505  0.1308  0.0047
73498SOL     OW32218   7.661   7.186   0.959 -0.2364  0.1281  0.3587
73498SOL    HW132219   7.587   7.245   0.973 -0.9706 -1.0386  1.7624
73498SOL    HW232220   7.710   7.190   1.041 -1.1322 -2.2462  1.0979
73499SOL     OW32221   8.979  11.342  10.461  0.3516 -0.2653  0.0493
73499SOL    HW132222   8.913  11.278  10.436 -1.3802  1.6414 -0.5004
73499SOL    HW232223   9.031  11.297  10.528 -0.0359 -2.6022 -1.0987
73500SOL     OW32224   8.248  10.332   8.352 -0.0161  0.5771 -0.3796
73500SOL    HW132225   8.170  10.359   8.400 -0.1240 -0.9372  0.3530
73500SOL    HW232226   8.316  10.323   8.420  0.2009 -0.2023 -0.6832
73501SOL     OW32227   5.521  10.061   6.373 -0.0431 -0.7313  0.5119
73501SOL    HW132228   5.514  10.073   6.468  1.3103 -1.7987  0.7883
73501SOL    HW232229   5.451  10.000   6.351 -0.7657  0.0133  0.7033
73502SOL     OW32230   1.581   6.937   4.044 -0.0410  0.2046 -0.5645
73502SOL    HW132231   1.620   6.894   3.968 -0.9511  0.8322 -1.4042
73502SOL    HW232232   1.637   7.013   4.059  0.6457 -0.3796 -0.0454
73503SOL     OW32233   0.648   0.079   8.289  0.1017 -0.0705  0.0592
73503SOL    HW132234   0.586   0.117   8.351  0.4422  0.1140  0.2827
73503SOL    HW232235   0.734   0.100   8.324  0.3082 -1.2520  0.3283
73504SOL     OW32236  13.290   3.439   5.322  0.4815  0.1137 -0.1528
73504SOL    HW132237  13.359   3.425   5.257  1.8900  0.3648  1.2045
73504SOL    HW232238  13.336   3.479   5.396 -1.2040  0.5557  0.6975
73505SOL     OW32239  11.657   9.066   1.678 -0.1313  0.5396  0.3070
73505SOL    HW132240  11.744   9.071   1.640  0.1097  0.9906  0.9132
73505SOL    HW232241  11.598   9.084   1.604  0.4011  3.8818  0.5456
73506SOL     OW32242  11.786   0.375   2.986  0.3929 -0.1674 -0.2146
73506SOL    HW132243  11.778   0.300   3.045 -0.0783  0.3190  0.3394
73506SOL    HW232244  11.847   0.434   3.030  2.1107 -0.9461 -1.4172
73507SOL     OW32245   2.261   3.512   4.579 -0.0448 -0.1700 -0.0622
73507SOL    HW132246   2.172   3.491   4.607 -0.3001  0.7776 -0.1339
73507SOL    HW232247   2.275   3.602   4.608  1.0394 -0.4337  0.2898
73508SOL     OW32248   7.464   1.343   3.690  0.3559 -0.4940 -0.0837
73508SOL    HW132249   7.483   1.436   3.700  1.2435 -0.7494  0.8090
73508SOL    HW232250   7.407   1.322   3.764  1.1023 -0.8854  0.4026
73509SOL     OW32251   1.669   5.666   5.543  0.1377 -0.0886  0.3156
73509SOL    HW132252   1.714   5.713   5.613 -0.4357 -0.6292  1.0688
73509SOL    HW232253   1.578   5.696   5.550  0.4106  1.2735 -1.4173
73510SOL     OW32254   1.235   7.449   5.060  0.3504 -0.2086  0.1707
73510SOL    HW132255   1.328   7.461   5.041  0.1782  1.9888  0.4400
73510SOL    HW232256   1.191   7.500   4.993 -0.6153 -0.1507  0.8388
73511SOL     OW32257   0.233   6.534   0.117  0.5546 -0.9474  0.0548
73511SOL    HW132258   0.148   6.491   0.124 -0.2167  0.3070 -1.0516
73511SOL    HW232259   0.253   6.562   0.206 -0.0920 -1.4529  0.3689
73512SOL     OW32260   6.177   9.932   8.574 -0.5530 -0.4810 -0.3145
73512SOL    HW132261   6.149   9.999   8.511 -0.2614  0.6272  0.6946
73512SOL    HW232262   6.096   9.894   8.606 -0.8139  0.5810  0.3396
73513SOL     OW32263   6.579  10.901  12.107 -0.1031  0.4415 -0.0504
73513SOL    HW132264   6.579  10.953  12.187 -1.0861  0.1269  0.1607
73513SOL    HW232265   6.524  10.950  12.046 -0.0738  0.2382 -0.2437
73514SOL     OW32266   4.174  12.423  11.192  0.3193 -0.5786 -0.3445
73514SOL    HW132267   4.175  12.500  11.135 -0.5242 -0.9089 -0.8317
73514SOL    HW232268   4.145  12.352  11.135  0.5361 -1.1416  0.2350
73515SOL     OW32269   0.204   7.017   0.880  0.2867 -0.4044  0.2047
73515SOL    HW132270   0.134   6.963   0.843  0.1384 -0.0353 -0.0584
73515SOL    HW232271   0.210   7.092   0.822 -1.4139  1.2839  2.0847
73516SOL     OW32272   7.367   7.940   9.368  0.3932  0.4595  0.0183
73516SOL    HW132273   7.367   7.853   9.330  0.9079  0.5010 -0.0831
73516SOL    HW232274   7.332   7.997   9.300  2.1259  0.6722 -0.7459
73517SOL     OW32275   3.073   9.514   3.821  0.2950 -0.4037 -0.2081
73517SOL    HW132276   3.118   9.433   3.798 -0.9715 -0.5380 -2.5554
73517SOL    HW232277   3.002   9.521   3.757 -1.3197  1.1889  1.6148
73518SOL     OW32278   0.927   5.013   2.732  0.2969  0.2018  0.7095
73518SOL    HW132279   0.894   4.942   2.677 -2.5053  0.5188  1.7840
73518SOL    HW232280   0.938   4.973   2.818  0.0116  0.7428  1.0027
73519SOL     OW32281  13.391  11.490  11.484 -0.1191 -0.2478 -0.7468
73519SOL    HW132282  13.368  11.397  11.482  1.2288 -0.7419  1.8514
73519SOL    HW232283  13.323  11.530  11.538 -0.3192  0.1588 -1.2941
73520SOL     OW32284  11.050   2.178  11.244  0.4836 -0.4867 -0.0362
73520SOL    HW132285  10.962   2.176  11.281  0.6798 -0.1689  0.4683
73520SOL    HW232286  11.054   2.259  11.194  0.3389 -0.7345 -0.4552
73521SOL     OW32287   2.637   4.652  12.078 -0.2897  0.3832  0.6767
73521SOL    HW132288   2.568   4.600  12.120 -0.9544  1.4921  1.0028
73521SOL    HW232289   2.640   4.621  11.988 -1.4028  0.4901  0.5918
73522SOL     OW32290   3.427  10.885   6.389 -0.2696 -0.2252  0.4277
73522SOL    HW132291   3.509  10.933   6.395 -0.8986  1.0779 -0.9175
73522SOL    HW232292   3.452  10.799   6.355  0.7081 -0.4682  1.6660
73523SOL     OW32293   4.754   5.506   8.204  0.2178 -0.2019  0.0733
73523SOL    HW132294   4.720   5.427   8.246  0.9986 -0.9864 -0.7457
73523SOL    HW232295   4.716   5.578   8.255 -0.5122 -1.0930  0.8227
73524SOL     OW32296  12.594   9.041   7.773  0.0273 -0.2342 -0.2071
73524SOL    HW132297  12.545   9.041   7.855 -2.5189 -0.7828 -1.5991
73524SOL    HW232298  12.576   9.126   7.734  0.0492 -0.5052 -0.8194
73525SOL     OW32299   7.961   2.164  10.083  0.4699  0.2197 -0.3005
73525SOL    HW132300   7.989   2.223  10.153 -0.8235 -0.4685  0.8268
73525SOL    HW232301   8.035   2.105  10.069 -0.0932 -1.1986  2.2125
73526SOL     OW32302  10.618  11.213   7.308 -0.2803  0.0326  0.7601
73526SOL    HW132303  10.708  11.185   7.291 -0.5202 -0.8015  0.8298
73526SOL    HW232304  10.609  11.212   7.403  0.3379  2.4191  0.9066
73527SOL     OW32305   8.402   2.432   8.743  0.4329  0.0817  0.1757
73527SOL    HW132306   8.495   2.411   8.757  0.0072 -3.3484 -1.0212
73527SOL    HW232307   8.357   2.350   8.762 -2.1978  1.1898 -0.8871
73528SOL     OW32308   5.103  10.374  11.523  0.0131  0.1458 -0.2281
73528SOL    HW132309   5.076  10.453  11.476  0.1304  0.6362  0.5141
73528SOL    HW232310   5.160  10.328  11.462  0.9784  1.2812 -0.2163
73529SOL     OW32311   7.641   4.942   2.834 -0.4256  0.0386 -0.1369
73529SOL    HW132312   7.651   4.949   2.739  0.5566 -2.4402 -0.3054
73529SOL    HW232313   7.560   4.892   2.846  0.8901 -2.2144  0.0993
73530SOL     OW32314   7.019   3.697  12.247 -0.4717  0.2244  0.1603
73530SOL    HW132315   7.091   3.759  12.231  1.6531 -1.8753  0.9742
73530SOL    HW232316   7.013   3.692  12.342 -0.2667 -1.1109  0.1261
73531SOL     OW32317   0.602  10.938  10.013 -0.3172 -0.9404  0.7087
73531SOL    HW132318   0.594  10.889  10.095 -0.3532  0.4909  1.5960
73531SOL    HW232319   0.540  11.010  10.022  0.1147 -0.4199 -0.3392
73532SOL     OW32320   2.835  10.290   3.558 -0.2994  0.5843 -0.0016
73532SOL    HW132321   2.805  10.236   3.632 -0.5146  1.1695  0.3428
73532SOL    HW232322   2.857  10.374   3.598 -0.3339  0.8752 -0.5965
73533SOL     OW32323   2.008   8.148   9.792  0.0644  0.1704 -0.2661
73533SOL    HW132324   2.065   8.074   9.771  1.8277  1.6544 -1.0430
73533SOL    HW232325   1.984   8.135   9.883 -0.1633 -1.6410 -0.5468
73534SOL     OW32326  10.506   8.807   0.459  0.1394  0.1055 -0.9040
73534SOL    HW132327  10.500   8.741   0.528  1.2774 -0.3390 -1.1937
73534SOL    HW232328  10.503   8.891   0.505  2.3107 -0.1836 -0.1151
73535SOL     OW32329   5.024   6.609   6.886  0.1731  0.5462 -0.2380
73535SOL    HW132330   4.963   6.681   6.905  0.0605 -0.0221  1.8044
73535SOL    HW232331   5.103   6.631   6.934  0.9313  0.3536 -1.3723
73536SOL     OW32332   9.162  12.606  11.159 -0.0508  0.1928  0.1100
73536SOL    HW132333   9.179  12.688  11.113  1.7900  0.2845  0.8817
73536SOL    HW232334   9.100  12.629  11.228  0.2114  0.8758  0.1213
73537SOL     OW32335   6.735   0.238   9.467 -0.9714 -0.4788 -0.4712
73537SOL    HW132336   6.815   0.268   9.424  0.4099 -0.7392  1.7869
73537SOL    HW232337   6.707   0.162   9.415  0.4320 -0.5830 -1.1280
73538SOL     OW32338   1.061   7.499   0.684  0.0844 -0.0409 -0.2929
73538SOL    HW132339   1.067   7.594   0.676  1.1520  0.1096  1.5131
73538SOL    HW232340   0.983   7.484   0.736 -1.4822 -0.3693 -2.6000
73539SOL     OW32341  11.374  11.856   9.463 -0.0906 -0.0085  0.2483
73539SOL    HW132342  11.380  11.853   9.559 -0.3368 -0.5724  0.2499
73539SOL    HW232343  11.313  11.786   9.441 -1.7508  1.5146 -0.1725
73540SOL     OW32344   6.562  12.830  10.650  0.2470  0.7741 -0.0259
73540SOL    HW132345   6.562  12.912  10.699 -0.0115  0.3094  0.7657
73540SOL    HW232346   6.649  12.793  10.667 -0.1572  0.1818  0.8393
73541SOL     OW32347   7.552   0.924  10.666  0.4466 -0.2545  0.1940
73541SOL    HW132348   7.544   0.919  10.571  0.3103 -1.3272  0.2517
73541SOL    HW232349   7.564   1.017  10.684 -0.6168  0.0918 -0.7801
73542SOL     OW32350   7.042  12.415   8.310 -0.2318 -0.2473 -0.4377
73542SOL    HW132351   6.996  12.492   8.275 -1.5613 -0.1689  1.2994
73542SOL    HW232352   6.975  12.347   8.313  0.0547 -0.5067  0.9978
73543SOL     OW32353  12.492  12.079   1.550 -0.3575  0.0329 -0.0098
73543SOL    HW132354  12.529  12.045   1.468  0.8233  3.1838 -0.9185
73543SOL    HW232355  12.405  12.111   1.525 -0.6023 -0.3397  0.3454
73544SOL     OW32356   3.651   8.238  13.409 -0.0508  0.1075  0.3838
73544SOL    HW132357   3.745   8.222  13.416 -0.1257 -1.0410 -0.8689
73544SOL    HW232358   3.631   8.295  13.484  1.7685  1.0708  0.2072
73545SOL     OW32359   9.623   1.981   7.974  0.6062 -0.6991 -0.2309
73545SOL    HW132360   9.692   2.045   7.988  2.2891 -2.5678  0.4375
73545SOL    HW232361   9.576   1.977   8.057  1.0285 -0.8871  0.0055
73546SOL     OW32362   8.584  11.457  11.765 -0.0558 -0.6764 -0.0292
73546SOL    HW132363   8.548  11.539  11.798 -0.0519 -0.3850 -0.7191
73546SOL    HW232364   8.616  11.411  11.842 -1.7451 -0.8633  0.5943
73547SOL     OW32365   7.552   1.842   1.207 -0.4257  0.0378 -0.1066
73547SOL    HW132366   7.497   1.910   1.170 -0.6228  0.3496  0.7250
73547SOL    HW232367   7.499   1.762   1.201  0.0074 -0.1704 -1.5565
73548SOL     OW32368  10.973   0.063  10.734 -0.2019  0.2822  0.2574
73548SOL    HW132369  11.048   0.066  10.792 -0.6057  2.6933  0.7336
73548SOL    HW232370  10.898   0.055  10.793 -0.4080 -1.2384 -0.1729
73549SOL     OW32371   2.265   9.362   4.404  0.4475 -0.1177 -0.4410
73549SOL    HW132372   2.301   9.338   4.489  2.0163 -0.9634 -1.2867
73549SOL    HW232373   2.337   9.405   4.358  0.3513 -1.6138 -2.1109
73550SOL     OW32374   0.065   9.895   1.762 -0.0149 -0.0653 -0.0685
73550SOL    HW132375   0.158   9.916   1.766 -0.1330  0.5832 -0.6007
73550SOL    HW232376   0.062   9.799   1.761  0.6324 -0.0889  0.2276
73551SOL     OW32377  12.623   1.727   9.951  0.0910 -0.0460  0.0955
73551SOL    HW132378  12.532   1.745   9.972  0.1088  0.1308  0.0208
73551SOL    HW232379  12.655   1.807   9.910 -0.0964 -0.5684 -1.1089
73552SOL     OW32380  11.063   3.654   1.192 -0.0706 -0.1445 -0.2195
73552SOL    HW132381  11.003   3.727   1.174 -0.9838 -0.8527 -0.1074
73552SOL    HW232382  11.049   3.634   1.284  0.8621  0.1313 -0.0087
73553SOL     OW32383  10.334   0.192  13.294 -0.1375  0.3894  0.2120
73553SOL    HW132384  10.386   0.118  13.328  0.9518  1.4080  0.8344
73553SOL    HW232385  10.281   0.220  13.369  0.7199  1.3046  0.5002
73554SOL     OW32386   3.597  12.874  10.669 -0.3566 -0.0037 -0.1723
73554SOL    HW132387   3.672  12.933  10.674  0.1214 -0.6754  0.8244
73554SOL    HW232388   3.631  12.788  10.695 -1.2497 -0.5387 -0.6791
73555SOL     OW32389   0.214   5.171   4.700 -0.1413  0.4693 -0.3972
73555SOL    HW132390   0.155   5.246   4.711 -0.0005  0.7243 -1.2350
73555SOL    HW232391   0.167   5.097   4.738  0.5132  1.3051  2.1934
73556SOL     OW32392   8.296   4.074   7.729 -0.1001  0.0456 -0.0979
73556SOL    HW132393   8.376   4.090   7.779 -0.9086  0.9539  0.9457
73556SOL    HW232394   8.225   4.095   7.789 -1.1618 -1.3807 -0.7874
73557SOL     OW32395   2.848   6.304   0.982  0.0646 -0.4769  0.6574
73557SOL    HW132396   2.765   6.260   0.964  0.1021  0.4372 -2.4662
73557SOL    HW232397   2.915   6.244   0.950  0.5773 -0.6797  2.0306
73558SOL     OW32398   3.066   8.091   4.069  0.8395  0.2815 -0.1397
73558SOL    HW132399   3.150   8.122   4.034 -0.2554  0.5938 -2.7545
73558SOL    HW232400   3.033   8.164   4.121  1.1049  1.1164 -1.1113
73559SOL     OW32401   7.277  10.563   5.584 -0.2592  0.2994  0.2860
73559SOL    HW132402   7.200  10.539   5.636  0.1021 -0.2020  0.5910
73559SOL    HW232403   7.304  10.648   5.618  0.0399 -0.0768  0.9939
73560SOL     OW32404   3.946  11.797  13.302 -0.1591  0.0841  0.6317
73560SOL    HW132405   4.035  11.794  13.268 -0.3332 -1.4610  0.2665
73560SOL    HW232406   3.932  11.712  13.342 -1.1019  0.7067  1.6892
73561SOL     OW32407   9.989   8.980   8.298 -0.1443 -0.0733  0.5936
73561SOL    HW132408   9.942   8.965   8.380  1.0770  0.6305  1.4543
73561SOL    HW232409   9.920   8.994   8.233 -1.1395 -1.3507  1.3410
73562SOL     OW32410  11.507  10.645  13.348  0.4640 -0.2224 -0.2054
73562SOL    HW132411  11.528  10.554  13.368  3.4471 -0.0748 -2.0766
73562SOL    HW232412  11.566  10.697  13.402 -1.6020  0.7192  1.2780
73563SOL     OW32413   0.638   9.857  12.975 -0.3040 -0.2216  0.0410
73563SOL    HW132414   0.609   9.820  13.058 -0.0710  1.6271  0.9948
73563SOL    HW232415   0.576   9.823  12.910 -0.2533 -2.0071  0.8753
73564SOL     OW32416  10.575  13.310   1.097 -0.1028  0.6980  0.2679
73564SOL    HW132417  10.597  13.391   1.050  0.4568  0.8593  0.7965
73564SOL    HW232418  10.658  13.283   1.136  0.0670 -0.9113 -1.0786
73565SOL     OW32419   8.080   7.686   6.280 -0.4799  0.2627 -0.0610
73565SOL    HW132420   8.121   7.624   6.221  1.9997  1.3203  0.4384
73565SOL    HW232421   8.118   7.667   6.366 -1.5706  0.8687  0.5865
73566SOL     OW32422   3.786   0.669  10.948  0.4172 -0.4970  0.2146
73566SOL    HW132423   3.786   0.577  10.922  2.3904 -1.2469  2.5146
73566SOL    HW232424   3.862   0.706  10.903  0.0184 -0.1651 -0.1850
73567SOL     OW32425  10.604  11.972   4.789 -0.2118  0.1693  0.3067
73567SOL    HW132426  10.679  12.031   4.784 -0.7719  0.8603 -0.1117
73567SOL    HW232427  10.579  11.972   4.881 -0.5447  1.0203  0.2216
73568SOL     OW32428   5.093   2.305  11.794  0.2220  0.6708 -0.1871
73568SOL    HW132429   5.092   2.295  11.889  0.7789  0.5940 -0.1821
73568SOL    HW232430   5.055   2.391  11.778  0.0830  0.6632  0.1030
73569SOL     OW32431   1.975   7.381   0.718 -0.1784 -0.1733 -0.3431
73569SOL    HW132432   1.939   7.463   0.684  1.8680  1.6603  1.6109
73569SOL    HW232433   2.011   7.336   0.641 -0.8821  0.9879 -1.3828
73570SOL     OW32434   1.273   4.630   4.399 -0.1923 -0.0118  0.0481
73570SOL    HW132435   1.306   4.633   4.309 -0.1443 -1.5386 -0.0186
73570SOL    HW232436   1.199   4.569   4.394 -0.1757 -0.1193  1.0558
73571SOL     OW32437  10.217   3.552   9.105 -0.1306 -0.4339  0.6384
73571SOL    HW132438  10.248   3.509   9.026 -3.0482 -0.2526 -0.7193
73571SOL    HW232439  10.234   3.645   9.090 -0.4584 -0.4241  0.3135
73572SOL     OW32440   4.037  11.294   5.445 -0.5602  0.1613 -0.0500
73572SOL    HW132441   4.018  11.343   5.526 -0.4871 -0.3820  0.2976
73572SOL    HW232442   4.130  11.273   5.452 -0.5680  0.0638 -0.2542
73573SOL     OW32443   3.787  12.036   1.332 -0.2982  0.4415 -0.3390
73573SOL    HW132444   3.746  12.009   1.414  0.3701 -1.9741 -0.7292
73573SOL    HW232445   3.731  11.999   1.264  1.2863 -1.0672 -0.8911
73574SOL     OW32446  13.262   3.297   0.522 -0.1076  0.6210  0.0164
73574SOL    HW132447  13.327   3.293   0.451  0.1459  0.9130  0.2284
73574SOL    HW232448  13.272   3.384   0.560 -0.1506  0.4262  0.4936
73575SOL     OW32449   4.293   4.686  12.757 -0.1513  0.1839 -0.8963
73575SOL    HW132450   4.304   4.746  12.683  1.8361 -2.6495 -3.1505
73575SOL    HW232451   4.244   4.612  12.721  0.4904 -1.0851  0.7123
73576SOL     OW32452   2.355   3.410  12.182 -0.2485 -0.1152  0.2351
73576SOL    HW132453   2.334   3.503  12.173 -0.2255 -0.1696 -0.3831
73576SOL    HW232454   2.425   3.395  12.119  0.3431 -0.3659  0.9332
73577SOL     OW32455  10.335   0.859  12.643  0.3958 -0.1866 -0.5024
73577SOL    HW132456  10.414   0.898  12.680  0.0966  0.0820 -0.1286
73577SOL    HW232457  10.275   0.851  12.717 -0.4997  1.0749 -1.0451
73578SOL     OW32458   6.172   8.947   6.140  0.2288 -0.5922 -0.1378
73578SOL    HW132459   6.097   8.972   6.087 -0.0759  0.1818  0.6300
73578SOL    HW232460   6.245   8.941   6.078 -0.0221  0.7323 -0.5827
73579SOL     OW32461   6.497   9.327   6.954 -0.3539 -0.3793  0.3740
73579SOL    HW132462   6.497   9.404   6.896 -1.1730  0.1553  1.0616
73579SOL    HW232463   6.430   9.346   7.019 -0.6019 -1.7055  0.5383
73580SOL     OW32464   9.807   2.115  12.030  0.1319  0.7618  0.6582
73580SOL    HW132465   9.812   2.117  11.935 -1.2849 -0.5753  0.4991
73580SOL    HW232466   9.847   2.197  12.059  1.0123  0.9754 -1.0477
73581SOL     OW32467   0.278   9.843   8.465 -0.9505  0.2980  0.3948
73581SOL    HW132468   0.342   9.774   8.485 -1.0963 -0.0043 -0.1791
73581SOL    HW232469   0.297   9.869   8.375  0.0437  2.0305  1.0627
73582SOL     OW32470   6.033   9.218   6.485  0.7930 -0.1018 -0.1500
73582SOL    HW132471   6.059   9.182   6.400 -0.6556  0.0155 -0.6652
73582SOL    HW232472   6.040   9.143   6.545 -0.4045 -0.8138 -0.8510
73583SOL     OW32473   3.057   6.406   9.249 -0.7090  0.6401  1.0010
73583SOL    HW132474   3.067   6.326   9.198  0.3988  0.7399  1.0391
73583SOL    HW232475   2.963   6.424   9.247 -0.8528 -0.1271  0.1915
73584SOL     OW32476   1.957  11.808   7.766  0.4956 -0.0163  0.3475
73584SOL    HW132477   1.928  11.775   7.681  2.5363 -1.1714  0.0420
73584SOL    HW232478   1.908  11.889   7.778 -0.9741 -0.6253 -1.2105
73585SOL     OW32479   8.597   1.829  12.457  0.4066 -0.1558  0.2053
73585SOL    HW132480   8.686   1.800  12.478  0.3258 -0.0849  0.6530
73585SOL    HW232481   8.552   1.831  12.541  0.1759  0.4624  0.0753
73586SOL     OW32482  13.044   2.863   3.940  0.2586 -0.3870  0.4928
73586SOL    HW132483  13.026   2.953   3.968 -2.0579 -0.9570  1.1233
73586SOL    HW232484  13.107   2.830   4.004  1.2057  0.7802  0.2013
73587SOL     OW32485   2.989  12.701  11.933  0.2032  0.4720  0.0081
73587SOL    HW132486   2.992  12.797  11.930  2.7037  0.5314  1.0386
73587SOL    HW232487   3.080  12.676  11.950 -0.5358 -2.0487  0.6189
73588SOL     OW32488   7.043   1.488   5.937  0.3168  0.4007 -0.4539
73588SOL    HW132489   7.097   1.414   5.965 -0.6575 -1.0693 -2.1809
73588SOL    HW232490   7.091   1.566   5.965  2.8669 -0.8357 -1.0828
73589SOL     OW32491  12.207  11.215   8.224 -0.1959  0.6481 -0.1955
73589SOL    HW132492  12.249  11.181   8.303  2.0381 -1.2372 -2.0430
73589SOL    HW232493  12.265  11.284   8.193  1.1831 -1.2394 -2.1803
73590SOL     OW32494   5.151   4.520   9.376  0.0332  0.3852 -0.0025
73590SOL    HW132495   5.244   4.502   9.389  0.3047  0.3406 -1.8218
73590SOL    HW232496   5.140   4.523   9.281 -1.8565  0.2572  0.1843
73591SOL     OW32497   1.628   3.973   6.982 -0.7109  0.4763 -0.0032
73591SOL    HW132498   1.551   3.951   7.033  0.2916 -0.8392  1.0293
73591SOL    HW232499   1.678   3.891   6.978  0.7845  1.3654 -0.3704
73592SOL     OW32500  10.244   4.126   7.033  0.3073  0.1459 -0.4516
73592SOL    HW132501  10.174   4.164   7.086  0.6861  0.5825 -0.2534
73592SOL    HW232502  10.278   4.200   6.982  0.9449  0.0460 -0.1822
73593SOL     OW32503  11.915   9.557  12.303  0.5870 -0.4122  0.9672
73593SOL    HW132504  11.873   9.481  12.263  0.5496 -0.4439  1.0665
73593SOL    HW232505  12.006   9.553  12.274  0.0030  1.0909 -1.4477
73594SOL     OW32506   6.142  10.376   0.039  0.3767 -0.3876  0.0827
73594SOL    HW132507   6.137  10.284   0.065  0.1615 -0.3925  0.0211
73594SOL    HW232508   6.138  10.424   0.121  1.9349 -0.4720  0.2512
73595SOL     OW32509   1.972   1.495   6.652 -0.2214  0.0466  0.2426
73595SOL    HW132510   1.916   1.567   6.679 -0.5111  0.2323 -0.8225
73595SOL    HW232511   1.978   1.503   6.557 -0.1346 -1.2392  0.1218
73596SOL     OW32512   0.356   0.590  13.610 -0.1526  1.2903 -0.0079
73596SOL    HW132513   0.355   0.643  13.690 -1.3290 -1.4189  1.9289
73596SOL    HW232514   0.267   0.598  13.575 -0.3136  0.6568  0.2545
73597SOL     OW32515   7.963  13.600  10.583  0.3611  0.2356  0.4374
73597SOL    HW132516   7.908  13.630  10.511  0.6594  1.4566  0.6887
73597SOL    HW232517   7.988  13.511  10.560 -1.0420 -0.0391 -0.0786
73598SOL     OW32518   8.792  11.839   9.174 -0.3089  0.2621 -0.3354
73598SOL    HW132519   8.710  11.869   9.133 -0.0636  0.2172 -0.8610
73598SOL    HW232520   8.808  11.753   9.135  1.5399  1.4835 -2.4821
73599SOL     OW32521  12.743  12.193   4.140 -0.2770  0.1992  0.1194
73599SOL    HW132522  12.805  12.152   4.080 -0.7054  1.8124 -1.5247
73599SOL    HW232523  12.662  12.142   4.130  0.3194 -1.0080  1.1784
73600SOL     OW32524   3.210   7.270   7.409 -0.5196 -0.3232  0.3396
73600SOL    HW132525   3.271   7.203   7.440  0.0075 -0.1596 -0.3209
73600SOL    HW232526   3.153   7.224   7.347  1.8958  0.4121 -2.7065
73601SOL     OW32527  12.411  11.479   3.932  0.2347  0.3701  0.1510
73601SOL    HW132528  12.430  11.418   3.861  0.0066  2.2301 -1.5680
73601SOL    HW232529  12.325  11.453   3.964  0.6469 -0.9244  0.2879
73602SOL     OW32530   7.395   3.417   6.664 -0.0960  0.1609 -0.1893
73602SOL    HW132531   7.462   3.441   6.727  0.6130  1.3449 -1.3504
73602SOL    HW232532   7.329   3.486   6.673 -0.0890  0.2199 -0.5998
73603SOL     OW32533   6.781  12.967   1.722  0.6628  0.0589  0.1294
73603SOL    HW132534   6.728  12.891   1.699 -0.1715 -0.0766  2.3513
73603SOL    HW232535   6.723  13.042   1.707  0.5436  0.0589  0.5930
73604SOL     OW32536  11.166   1.134   1.814 -0.4310 -0.1497 -0.3537
73604SOL    HW132537  11.116   1.053   1.815  0.7735 -0.9195 -0.4030
73604SOL    HW232538  11.246   1.113   1.767  0.2801  0.8303  0.3511
73605SOL     OW32539   6.530   1.754   7.192 -0.0854  0.0156  0.4780
73605SOL    HW132540   6.455   1.702   7.163  1.0736 -2.1807  1.1836
73605SOL    HW232541   6.506   1.784   7.279 -0.0362 -1.0037  0.8602
73606SOL     OW32542   3.563   8.106   3.995  0.2087  0.4957 -0.1502
73606SOL    HW132543   3.535   8.022   4.033 -0.0211 -1.6666 -4.4353
73606SOL    HW232544   3.494   8.167   4.020 -1.0156 -1.2248  0.9954
73607SOL     OW32545   8.979   3.495   2.980 -0.2849 -0.0100 -0.7422
73607SOL    HW132546   9.046   3.452   3.032 -2.4385 -2.3542  0.3324
73607SOL    HW232547   8.972   3.583   3.016  0.1669 -0.7032  1.1308
73608SOL     OW32548   9.674   7.359   9.081 -0.1836  0.0342 -0.2883
73608SOL    HW132549   9.615   7.295   9.042 -0.5469  0.3676 -0.2874
73608SOL    HW232550   9.645   7.443   9.045 -0.7638  0.3991  0.9839
73609SOL     OW32551   0.444   6.650   7.196  0.6241  0.0811  0.7413
73609SOL    HW132552   0.421   6.610   7.113 -1.2196 -0.0445  1.2593
73609SOL    HW232553   0.413   6.740   7.189  2.1001  0.6007  0.6505
73610SOL     OW32554   1.313   3.817   5.337  0.4935  0.1522 -0.4277
73610SOL    HW132555   1.389   3.826   5.278 -0.9368  0.3421 -2.3387
73610SOL    HW232556   1.308   3.901   5.383  1.1536  0.3138 -0.6355
73611SOL     OW32557   1.599   0.069   9.080 -0.3886  0.1058  0.2982
73611SOL    HW132558   1.612   0.009   9.153 -0.0893 -1.3419 -0.8918
73611SOL    HW232559   1.677   0.058   9.026 -1.9569 -1.2867 -1.8625
73612SOL     OW32560  12.606  11.202   3.972  0.6660  0.2004 -0.4099
73612SOL    HW132561  12.647  11.276   3.927 -0.6067  1.8855  1.0304
73612SOL    HW232562  12.679  11.145   3.995  1.7246  1.0950 -1.3864
73613SOL     OW32563   6.250   4.309  12.794 -0.4435 -0.0119 -0.1621
73613SOL    HW132564   6.192   4.239  12.822 -0.7552  0.2176 -0.2310
73613SOL    HW232565   6.249   4.372  12.866  1.0731 -0.8041  0.6093
73614SOL     OW32566   7.472  13.694   7.783  0.5359  0.1736  0.1631
73614SOL    HW132567   7.476  13.667   7.875  1.3513  1.0463  0.3967
73614SOL    HW232568   7.561  13.677   7.750 -0.2649 -2.0684 -1.0497
73615SOL     OW32569   0.681   7.068   4.869  0.3299 -0.4247 -0.2956
73615SOL    HW132570   0.620   7.096   4.938  1.5076 -1.5879  1.3105
73615SOL    HW232571   0.750   7.134   4.870 -0.6565  0.6810 -1.8454
73616SOL     OW32572   2.387   0.855   0.148 -0.5104  0.2069 -0.0829
73616SOL    HW132573   2.439   0.836   0.226 -0.5139 -0.3551 -0.2147
73616SOL    HW232574   2.332   0.778   0.136 -0.7202  0.4123 -0.4718
73617SOL     OW32575   2.417   7.441   5.139  0.0191  0.0808 -1.0450
73617SOL    HW132576   2.506   7.441   5.175 -1.0519 -0.0777  1.8499
73617SOL    HW232577   2.369   7.504   5.194 -1.7311  0.0008 -2.3996
73618SOL     OW32578   0.028   0.060   0.909  0.6189 -0.0940 -0.6866
73618SOL    HW132579   0.104   0.076   0.853  0.6308 -0.7049 -0.8495
73618SOL    HW232580  -0.038   0.023   0.850  1.1071 -2.0751 -0.0619
73619SOL     OW32581  10.476   1.637  10.395 -0.5225 -0.1206 -0.2950
73619SOL    HW132582  10.551   1.654  10.337 -0.4733  0.8422  0.0321
73619SOL    HW232583  10.512   1.640  10.483 -1.2012  2.1023 -0.0264
73620SOL     OW32584   3.082  10.952  13.513 -0.9020 -0.7350 -0.0895
73620SOL    HW132585   3.027  10.939  13.590 -0.9234  0.2027  0.0713
73620SOL    HW232586   3.171  10.933  13.544 -0.8321  0.2250  0.3533
73621SOL     OW32587   2.500  12.635   8.715  0.3786  0.1616  0.2561
73621SOL    HW132588   2.513  12.701   8.783  0.6422  1.5896 -1.1187
73621SOL    HW232589   2.571  12.651   8.652 -1.3722  0.6927 -1.6998
73622SOL     OW32590   7.697   7.540   4.401 -0.0155 -0.0828 -0.2397
73622SOL    HW132591   7.614   7.496   4.385 -0.4995 -0.0995  1.9952
73622SOL    HW232592   7.760   7.469   4.414  0.1544 -0.0734 -0.9807
73623SOL     OW32593   4.165   3.112  12.507 -0.2700  0.7273 -0.0019
73623SOL    HW132594   4.078   3.128  12.544 -0.4997 -2.6413  1.1724
73623SOL    HW232595   4.149   3.097  12.414 -1.1893 -1.0434  0.4037
73624SOL     OW32596  12.544   9.364   1.644  0.1695 -0.3501 -0.1029
73624SOL    HW132597  12.476   9.400   1.701  1.9830 -0.0194  1.9821
73624SOL    HW232598  12.497   9.335   1.566 -2.2332  0.5711  0.9071
73625SOL     OW32599   4.510   8.288   8.979  0.2277 -0.6056 -0.3554
73625SOL    HW132600   4.449   8.217   8.956  0.0998 -1.2147  1.7060
73625SOL    HW232601   4.527   8.276   9.072  0.5642  1.8142 -0.0359
73626SOL     OW32602  12.048   1.944   3.804  0.1979  0.0195  0.5386
73626SOL    HW132603  12.061   1.927   3.897 -1.4588  0.1714  0.8232
73626SOL    HW232604  11.972   1.891   3.780 -0.2485  1.0329 -0.3874
73627SOL     OW32605  11.061   1.674   5.918 -0.1028 -0.0544 -0.2872
73627SOL    HW132606  11.111   1.675   6.000 -1.1384  1.3346  0.3685
73627SOL    HW232607  10.975   1.642   5.943  0.2779 -2.0316 -1.3355
73628SOL     OW32608  13.192   4.199   1.318  0.3708 -0.2665 -0.8776
73628SOL    HW132609  13.158   4.124   1.270  0.6751 -0.8252 -0.2370
73628SOL    HW232610  13.261   4.235   1.263 -0.2439 -0.0365 -1.5026
73629SOL     OW32611   3.402   2.857  11.780 -0.0231  0.6367  0.6271
73629SOL    HW132612   3.394   2.893  11.692  0.3362 -0.6679  0.0418
73629SOL    HW232613   3.313   2.853  11.813 -0.1961  0.7960  0.1907
73630SOL     OW32614  11.332  10.823   2.233  0.1104  0.3328  0.5336
73630SOL    HW132615  11.315  10.729   2.232 -0.5812  0.4545  0.6357
73630SOL    HW232616  11.349  10.845   2.142  0.6925  0.0371  0.5650
73631SOL     OW32617   8.133   8.841   4.656 -0.2439 -0.1670 -0.3090
73631SOL    HW132618   8.074   8.908   4.693 -0.3077  0.0212 -0.7544
73631SOL    HW232619   8.177   8.804   4.733  1.9649  2.3712 -0.1935
73632SOL     OW32620   8.186   4.234   2.350 -0.4779  0.3193  0.1984
73632SOL    HW132621   8.198   4.281   2.268 -1.8206  1.2365  0.4961
73632SOL    HW232622   8.274   4.206   2.375  0.0793  0.9371 -1.0055
73633SOL     OW32623   9.286   7.294   9.776  0.4261  0.5423  0.0068
73633SOL    HW132624   9.276   7.205   9.744 -2.2071  0.4788  0.7392
73633SOL    HW232625   9.366   7.293   9.828  1.8149 -0.7031 -2.0348
73634SOL     OW32626   6.015   9.125  10.799 -0.2281 -0.6956  0.1848
73634SOL    HW132627   6.042   9.205  10.755 -3.8887  0.0259 -1.0826
73634SOL    HW232628   6.028   9.144  10.892  1.3401  0.3617 -0.2104
73635SOL     OW32629   4.370   2.130   0.135  0.5897 -0.1595  0.9039
73635SOL    HW132630   4.296   2.115   0.194  0.3590  0.7866  0.8588
73635SOL    HW232631   4.439   2.165   0.192 -0.2986  2.7537  0.3385
73636SOL     OW32632   8.436   9.655   2.518  0.2952 -0.3951 -0.3152
73636SOL    HW132633   8.437   9.562   2.542 -0.9424  0.0186  1.4799
73636SOL    HW232634   8.510   9.664   2.457  2.5441 -1.8850  1.9886
73637SOL     OW32635   9.049  11.670   0.106 -0.9319  0.1942 -0.2649
73637SOL    HW132636   9.065  11.576   0.121 -0.0325  0.4887  0.7537
73637SOL    HW232637   9.118  11.697   0.046  0.3731  0.6999  1.3710
73638SOL     OW32638  11.765   6.420   1.416 -0.2662  0.0466  0.1991
73638SOL    HW132639  11.801   6.345   1.368 -0.8283 -1.3474  1.8662
73638SOL    HW232640  11.822   6.493   1.392 -0.8831 -0.3763 -3.0658
73639SOL     OW32641   0.351  10.750   4.041  0.1756 -0.1179  0.0521
73639SOL    HW132642   0.411  10.794   3.981  0.3524 -0.5368 -0.0836
73639SOL    HW232643   0.308  10.683   3.987 -1.1843  0.8577 -0.1114
73640SOL     OW32644   9.236   4.070  10.934 -0.1694  0.5512 -0.3557
73640SOL    HW132645   9.184   3.995  10.908  1.9922 -2.2633  2.6104
73640SOL    HW232646   9.291   4.089  10.858 -1.9591  0.3491 -1.7544
73641SOL     OW32647   1.452  12.546  12.686  1.0965 -0.3888  0.5058
73641SOL    HW132648   1.396  12.507  12.754  0.2906 -1.1865 -0.5757
73641SOL    HW232649   1.456  12.639  12.709 -1.0104 -0.2234  0.4525
73642SOL     OW32650  12.491   8.208  10.135 -0.6678 -0.3946 -0.3695
73642SOL    HW132651  12.580   8.188  10.163 -0.6423  0.5452  0.2310
73642SOL    HW232652  12.494   8.298  10.104 -1.8206  0.3448  1.5135
73643SOL     OW32653  12.374   1.693  12.303  0.0325 -0.0083  0.2106
73643SOL    HW132654  12.304   1.633  12.330  0.4680 -0.6574 -0.0784
73643SOL    HW232655  12.454   1.654  12.338  0.5705 -0.6581 -1.6221
73644SOL     OW32656   0.538   4.618  13.532 -0.3720  0.3196 -0.1446
73644SOL    HW132657   0.561   4.700  13.577 -0.0651  0.0058  0.2800
73644SOL    HW232658   0.443   4.611  13.542 -0.1041 -0.7955  2.3222
73645SOL     OW32659   9.211   3.057   7.227  0.4141  1.0155  0.6551
73645SOL    HW132660   9.232   3.100   7.310 -0.3512 -0.8222  1.8756
73645SOL    HW232661   9.296   3.046   7.184  1.5158 -1.7289  3.1777
73646SOL     OW32662   7.826  11.171   9.248 -0.4862 -0.0733 -0.1580
73646SOL    HW132663   7.733  11.190   9.241 -0.2815  1.0873  0.0216
73646SOL    HW232664   7.864  11.212   9.170  0.1415  1.4946  0.9078
73647SOL     OW32665   2.718   4.272   7.874 -0.2718 -0.1597  0.5783
73647SOL    HW132666   2.739   4.208   7.806 -0.8746  0.9971 -0.7327
73647SOL    HW232667   2.707   4.219   7.954 -1.9429 -1.8498 -0.6771
73648SOL     OW32668  10.820  11.262  13.696  0.2895  0.6530 -0.3563
73648SOL    HW132669  10.889  11.285  13.758  0.1242  2.1230 -0.6681
73648SOL    HW232670  10.858  11.192  13.642  1.0800  0.5975  0.2570
73649SOL     OW32671   6.652   1.713   7.872 -0.4762  0.4752  0.2745
73649SOL    HW132672   6.719   1.761   7.919  0.4865  0.5179 -1.0828
73649SOL    HW232673   6.669   1.731   7.780 -1.0762 -1.1672 -0.2066
73650SOL     OW32674   1.317   7.872   2.822 -0.2003 -0.8516  0.4689
73650SOL    HW132675   1.295   7.806   2.757 -0.0572  1.5951 -2.2371
73650SOL    HW232676   1.413   7.877   2.820 -0.1922 -0.7570  0.9001
73651SOL     OW32677   6.716   1.205  11.606  0.2140 -0.6067  0.1094
73651SOL    HW132678   6.732   1.292  11.570  1.9272  0.6642  3.5379
73651SOL    HW232679   6.638   1.215  11.661  0.7195 -1.0726  0.9354
73652SOL     OW32680   2.593   2.403   9.799 -0.2589  0.2577  0.8670
73652SOL    HW132681   2.531   2.465   9.760 -1.4856 -0.5384  1.4943
73652SOL    HW232682   2.658   2.458   9.841 -0.5461  1.1226  0.2105
73653SOL     OW32683  11.279   3.559   9.281  0.1926  0.7231 -0.2567
73653SOL    HW132684  11.370   3.551   9.255 -0.1601  0.3651 -1.4801
73653SOL    HW232685  11.254   3.647   9.255  0.3162  1.0091  0.5568
73654SOL     OW32686  13.029  12.653   3.111  0.2715 -0.2900  0.1437
73654SOL    HW132687  13.095  12.598   3.069  1.5197  2.8107 -2.3986
73654SOL    HW232688  13.075  12.695   3.184 -0.2896 -1.4869  1.2255
73655SOL     OW32689  12.941  11.298   1.113 -0.0194 -0.6847 -0.3111
73655SOL    HW132690  12.927  11.389   1.142  3.5352 -0.2270  0.4347
73655SOL    HW232691  12.981  11.307   1.027  2.2405 -1.3487  0.6023
73656SOL     OW32692   1.532   7.725  10.715 -0.3534  0.0040  0.0888
73656SOL    HW132693   1.465   7.767  10.662 -0.2169  0.8401  0.5656
73656SOL    HW232694   1.614   7.740  10.668 -0.3931 -0.3279 -0.0886
73657SOL     OW32695   5.917   2.376   9.130  0.0465 -0.6346 -0.2469
73657SOL    HW132696   5.907   2.465   9.163  0.7022 -1.2550  1.7577
73657SOL    HW232697   5.858   2.324   9.184  0.9337 -1.6734 -0.2566
73658SOL     OW32698  11.089   8.792   4.133 -0.0993  0.6457 -0.2818
73658SOL    HW132699  11.113   8.814   4.043  0.8729 -2.7243 -0.9745
73658SOL    HW232700  11.031   8.716   4.125  0.5896 -0.1805  1.9288
73659SOL     OW32701   4.529   2.666  13.557 -0.3355 -0.0146  0.5527
73659SOL    HW132702   4.525   2.621  13.473  0.7344  2.0010 -0.6527
73659SOL    HW232703   4.585   2.611  13.612 -0.4537 -0.9837 -0.2765
73660SOL     OW32704   2.562   2.077   7.486 -0.1925  0.5413 -0.1127
73660SOL    HW132705   2.618   2.068   7.563  0.8591  3.5405 -0.3920
73660SOL    HW232706   2.475   2.050   7.515  1.0417 -2.9787  0.7001
73661SOL     OW32707   3.856  10.758   7.366  0.3096 -0.3764  0.2013
73661SOL    HW132708   3.951  10.772   7.372  0.3824 -0.8555  0.2073
73661SOL    HW232709   3.833  10.786   7.277  0.6740 -1.4590 -0.2532
73662SOL     OW32710   1.108   3.982  10.473  0.0059  0.0320 -0.0101
73662SOL    HW132711   1.145   3.934  10.548 -1.7028 -1.4600 -0.0713
73662SOL    HW232712   1.052   4.048  10.513  0.6794  0.5971  0.0300
73663SOL     OW32713   1.494   5.407   5.815  0.0398 -0.2231  0.7304
73663SOL    HW132714   1.566   5.471   5.813 -1.7260  1.8975 -1.4174
73663SOL    HW232715   1.525   5.334   5.761  1.3820 -0.4103  1.6929
73664SOL     OW32716  13.150   0.192   4.755  0.0319 -0.3921  0.0484
73664SOL    HW132717  13.218   0.220   4.817  0.0401  1.2794 -0.6372
73664SOL    HW232718  13.178   0.106   4.726  1.7370  0.1248  0.0212
73665SOL     OW32719   8.331   9.152   6.651  0.3314  0.3403 -0.1502
73665SOL    HW132720   8.270   9.146   6.726 -0.0521  2.3888 -0.2478
73665SOL    HW232721   8.408   9.196   6.687 -0.1664  2.0573 -1.0953
73666SOL     OW32722   0.747  10.838  11.327 -0.1377 -0.2631  0.1255
73666SOL    HW132723   0.806  10.766  11.351 -0.4812  0.1782  2.5424
73666SOL    HW232724   0.687  10.799  11.263  0.0414 -1.9873  0.9298
73667SOL     OW32725  11.111  10.201   4.688 -0.6716  0.4082  0.3540
73667SOL    HW132726  11.112  10.252   4.606 -0.1558 -0.3769 -0.1511
73667SOL    HW232727  11.101  10.110   4.659  0.9481 -0.0374  1.0477
73668SOL     OW32728   2.312   1.058  13.586 -0.5743 -0.0952  1.0332
73668SOL    HW132729   2.405   1.078  13.591 -0.2753 -0.6133 -1.2043
73668SOL    HW232730   2.308   0.962  13.587 -0.8923 -0.1312 -0.3962
73669SOL     OW32731   8.210  13.085  12.551 -0.0847  0.3236 -0.4994
73669SOL    HW132732   8.271  13.147  12.591  0.4886 -1.1839  1.0287
73669SOL    HW232733   8.218  13.005  12.602 -2.7891 -0.1965 -0.7258
73670SOL     OW32734   7.542   8.934  10.674  0.1330  0.0027 -0.3634
73670SOL    HW132735   7.510   8.967  10.590 -1.8423 -1.5353 -0.2919
73670SOL    HW232736   7.501   8.991  10.739 -0.8122 -0.6550 -0.3593
73671SOL     OW32737   9.871   9.280  10.771 -0.3256  0.2572  0.7695
73671SOL    HW132738   9.846   9.373  10.769  0.0107  0.3345 -1.2136
73671SOL    HW232739   9.946   9.278  10.831  0.9781  1.6619 -0.7002
73672SOL     OW32740   7.027  12.593  11.174  0.5280  0.2080  0.3834
73672SOL    HW132741   6.990  12.680  11.191  1.0014  0.4435  0.2347
73672SOL    HW232742   7.099  12.586  11.235  1.1268  0.3353 -0.2941
73673SOL     OW32743   4.644   1.670   2.242  0.1025  0.5750  0.0566
73673SOL    HW132744   4.724   1.679   2.191  0.3316 -1.5009 -0.0160
73673SOL    HW232745   4.574   1.664   2.177  0.2811 -0.9792 -0.0326
73674SOL     OW32746   6.257   0.079   4.383  0.1511  0.2512 -0.3875
73674SOL    HW132747   6.246   0.079   4.478 -1.4931  2.2200 -0.5066
73674SOL    HW232748   6.331   0.137   4.368 -0.7622  1.4756 -0.3431
73675SOL     OW32749   1.374   8.571  12.958 -0.4295  0.0722  0.4959
73675SOL    HW132750   1.428   8.601  13.031 -1.7825  1.3531  1.0095
73675SOL    HW232751   1.401   8.480  12.945  0.5602  0.1298  1.9124
73676SOL     OW32752   7.921   6.319   0.500  0.1920 -0.2114  0.1174
73676SOL    HW132753   7.839   6.307   0.548  0.7463 -2.4156  0.5944
73676SOL    HW232754   7.984   6.262   0.544  2.0440  1.4975 -0.1785
73677SOL     OW32755   4.765  12.298   5.044  0.0787 -0.2585 -0.6411
73677SOL    HW132756   4.855  12.322   5.067  0.1778  0.3178 -1.5702
73677SOL    HW232757   4.748  12.218   5.092  1.1415 -0.4445 -0.5573
73678SOL     OW32758   8.865   3.720   5.072 -0.5088  0.3020 -0.2780
73678SOL    HW132759   8.957   3.728   5.048  0.8142 -1.1170  3.4596
73678SOL    HW232760   8.844   3.629   5.052 -0.3074 -0.0360  0.9494
73679SOL     OW32761  11.426   6.958   8.555 -0.1136  1.0496  0.1064
73679SOL    HW132762  11.489   7.002   8.498 -2.2042  4.7698  0.3324
73679SOL    HW232763  11.348   6.945   8.501 -0.1121 -1.0938  0.5223
73680SOL     OW32764   5.244  13.126   1.415 -0.3349  0.4100  0.2460
73680SOL    HW132765   5.255  13.210   1.460  0.1378  0.2954  0.3489
73680SOL    HW232766   5.265  13.145   1.324 -1.8876  0.7850 -0.0803
73681SOL     OW32767   8.757   1.206  10.631  0.3102  0.0242 -0.3148
73681SOL    HW132768   8.685   1.229  10.689  0.2399  1.1333 -0.8161
73681SOL    HW232769   8.820   1.277  10.641  1.6763 -1.2477  0.6141
73682SOL     OW32770   9.219   3.097   3.625 -0.6083 -0.7226 -0.1972
73682SOL    HW132771   9.207   3.191   3.638 -0.1404 -0.7065  0.1268
73682SOL    HW232772   9.180   3.056   3.703 -0.2317 -0.7644 -0.0308
73683SOL     OW32773   3.843   8.310   7.703 -0.3715 -0.0076  0.2976
73683SOL    HW132774   3.815   8.399   7.724 -1.4334 -0.7756  2.4413
73683SOL    HW232775   3.915   8.321   7.641 -0.9079  2.3014  0.0090
73684SOL     OW32776  10.766  12.365   3.514 -0.3459 -0.0469 -0.1172
73684SOL    HW132777  10.682  12.365   3.560 -0.7858 -0.2552 -0.9004
73684SOL    HW232778  10.807  12.282   3.540 -2.8218 -2.7971 -3.9710
73685SOL     OW32779  12.988  12.578   5.676  0.3962 -0.2892 -0.4198
73685SOL    HW132780  12.947  12.613   5.598 -0.1195 -0.3116 -0.1655
73685SOL    HW232781  13.028  12.496   5.647 -1.7427 -1.4851 -0.2133
73686SOL     OW32782  12.679   5.849   3.400  0.0495  0.4409 -0.2089
73686SOL    HW132783  12.648   5.938   3.412 -1.2517 -0.2153  1.8652
73686SOL    HW232784  12.760   5.844   3.450  0.5134  0.6279 -0.9244
73687SOL     OW32785   0.406   8.576   2.371  0.7666 -0.4221  0.4522
73687SOL    HW132786   0.335   8.568   2.307  2.0096  1.6978 -1.3375
73687SOL    HW232787   0.381   8.649   2.426  0.4169 -1.2832  1.4699
73688SOL     OW32788  13.131   1.406   8.294 -0.4945  0.7382  0.3878
73688SOL    HW132789  13.148   1.499   8.311  0.5670  0.6148  0.0778
73688SOL    HW232790  13.118   1.368   8.381 -0.2100  1.0436  0.5654
73689SOL     OW32791   3.908   4.648  13.504 -0.2244  0.2531 -0.5523
73689SOL    HW132792   3.950   4.578  13.454 -0.8374 -0.4814 -0.0609
73689SOL    HW232793   3.945   4.639  13.592  0.9695  1.6395 -0.8802
73690SOL     OW32794   9.494   9.943  13.282 -0.1204 -0.1409  0.0786
73690SOL    HW132795   9.419   9.896  13.246 -1.3653  1.2276  0.7637
73690SOL    HW232796   9.520   9.891  13.358  0.6850 -1.4822 -1.0648
73691SOL     OW32797   1.757   9.943   0.793  0.2876  0.0023 -0.0231
73691SOL    HW132798   1.731  10.035   0.790 -1.0446 -0.3106  0.9524
73691SOL    HW232799   1.720   9.910   0.875 -1.4334 -2.0003 -1.4909
73692SOL     OW32800   8.696  13.605   2.193 -0.2087  0.7130  0.3580
73692SOL    HW132801   8.623  13.647   2.147  2.6133  3.7048 -1.7897
73692SOL    HW232802   8.705  13.520   2.151 -0.4008  1.6557 -1.7044
73693SOL     OW32803  12.296   3.385   7.004 -0.4477 -0.5674  0.2470
73693SOL    HW132804  12.340   3.460   6.963 -0.8069 -1.2179 -1.4117
73693SOL    HW232805  12.330   3.309   6.957  0.2515 -1.5218  2.2142
73694SOL     OW32806  11.974   7.404  10.481  0.0021 -0.1974 -0.4102
73694SOL    HW132807  11.992   7.455  10.402 -0.0007  0.6294  0.1081
73694SOL    HW232808  11.915   7.459  10.533 -0.2869 -0.8810  0.0142
73695SOL     OW32809   8.014   3.260   1.510 -0.6013 -0.6664 -0.3414
73695SOL    HW132810   7.919   3.269   1.522 -0.5945 -2.2236  1.1697
73695SOL    HW232811   8.040   3.192   1.572  1.8288  1.0324  0.6547
73696SOL     OW32812  11.528   2.743   6.551  0.1405 -0.3984 -0.5006
73696SOL    HW132813  11.456   2.722   6.491 -2.6073  0.0810  2.3575
73696SOL    HW232814  11.548   2.834   6.533  0.3575 -0.6378 -1.5729
73697SOL     OW32815   0.099   8.154  13.229 -0.2299  0.2259  0.0131
73697SOL    HW132816   0.166   8.223  13.223 -0.5912  0.6070  0.2547
73697SOL    HW232817   0.025   8.198  13.271 -0.3172 -0.4256  0.5529
73698SOL     OW32818   9.344   9.790   6.643 -0.5647  0.0970 -0.3459
73698SOL    HW132819   9.368   9.823   6.729 -3.5829  1.6079  0.0296
73698SOL    HW232820   9.297   9.709   6.661 -1.8166  0.7789 -0.4858
73699SOL     OW32821  10.972  11.338   0.185 -0.1034  0.0698  0.6590
73699SOL    HW132822  11.012  11.267   0.235  0.7157  0.3105  0.3628
73699SOL    HW232823  10.941  11.400   0.251  2.5436  1.2505  0.8957
73700SOL     OW32824  13.390  12.593   7.117 -0.1667  0.1467 -0.1347
73700SOL    HW132825  13.404  12.656   7.046 -0.1800 -0.5984 -0.8125
73700SOL    HW232826  13.348  12.645   7.186  0.4115  1.0260 -0.4177
73701SOL     OW32827  12.376   2.523   1.960 -0.2654  0.0251  0.1058
73701SOL    HW132828  12.404   2.562   2.043  1.3998 -0.4730 -0.1761
73701SOL    HW232829  12.284   2.501   1.973  0.3830 -1.7105  2.4960
73702SOL     OW32830   5.906   4.926   9.507  0.1111  0.2550  0.3630
73702SOL    HW132831   5.822   4.903   9.469 -0.1172 -1.4029  1.6976
73702SOL    HW232832   5.931   5.008   9.465 -1.5557  0.1270 -0.9787
73703SOL     OW32833   8.023   7.140  13.432 -0.3970  0.2315  0.1078
73703SOL    HW132834   7.965   7.170  13.362 -0.5351  1.7134  0.8212
73703SOL    HW232835   8.101   7.195  13.424  0.7442 -1.3968 -0.5189
73704SOL     OW32836  12.689   6.659  11.357  0.7205  0.0195 -0.4327
73704SOL    HW132837  12.600   6.634  11.332  0.2766 -0.2182  1.2660
73704SOL    HW232838  12.737   6.663  11.274 -0.4731 -1.3981 -1.2372
73705SOL     OW32839   5.410  10.036   1.114 -0.1072  0.2739 -0.0697
73705SOL    HW132840   5.485  10.094   1.126  0.2108 -0.1174 -0.1480
73705SOL    HW232841   5.334  10.094   1.116  0.2960  0.8929 -1.7883
73706SOL     OW32842   1.303  10.813   6.357 -0.3029 -0.7874  0.0009
73706SOL    HW132843   1.227  10.871   6.351 -1.7344 -2.2785  2.0877
73706SOL    HW232844   1.374  10.862   6.317 -2.0004  1.3376 -0.5979
73707SOL     OW32845   3.176  11.895   9.065 -0.1194  0.4216  0.2495
73707SOL    HW132846   3.102  11.843   9.097 -1.2069  1.8290  0.1678
73707SOL    HW232847   3.196  11.859   8.979  0.2255 -0.8607  0.8388
73708SOL     OW32848  10.817  11.137   7.937  0.6330  0.1526  0.0073
73708SOL    HW132849  10.731  11.104   7.962  0.4290  0.6644 -0.0139
73708SOL    HW232850  10.845  11.079   7.867  0.1775  0.1599 -0.1844
73709SOL     OW32851  11.780  13.234   5.391 -0.3016 -0.3830 -0.1752
73709SOL    HW132852  11.704  13.228   5.449 -0.0935  1.7915  0.4345
73709SOL    HW232853  11.855  13.233   5.449 -0.0600  1.1961 -0.4139
73710SOL     OW32854   4.859   3.389   3.738  0.2054  0.2980 -0.3011
73710SOL    HW132855   4.790   3.439   3.694  2.2117  1.6587 -2.0946
73710SOL    HW232856   4.816   3.307   3.764 -1.7548  0.4881 -2.5685
73711SOL     OW32857   8.644   7.014  10.554 -0.2134 -0.4835 -0.3749
73711SOL    HW132858   8.647   6.919  10.571  1.0849 -0.2694  0.7473
73711SOL    HW232859   8.619   7.052  10.638 -0.6191  0.1841 -0.7971
73712SOL     OW32860  11.826  10.390  10.795 -0.0682 -0.1455  0.1638
73712SOL    HW132861  11.838  10.306  10.752  0.7376  0.1187 -0.1464
73712SOL    HW232862  11.735  10.389  10.826  0.1076 -1.3592  0.6916
73713SOL     OW32863   9.527   2.902  11.773 -0.1535  0.2764  0.3112
73713SOL    HW132864   9.573   2.952  11.840 -0.6013  0.0133  0.8171
73713SOL    HW232865   9.570   2.927  11.691  0.6835  0.2645  0.7418
73714SOL     OW32866   7.176   7.487  12.268 -0.0331  0.5928  0.3574
73714SOL    HW132867   7.166   7.396  12.242 -1.6565  0.4815  1.2230
73714SOL    HW232868   7.112   7.534  12.215 -0.5982  0.9243  1.3090
73715SOL     OW32869  12.081   8.838  13.107 -0.0907  0.4997  0.3864
73715SOL    HW132870  12.122   8.840  13.193 -2.7120  0.1270  1.7655
73715SOL    HW232871  11.987   8.831  13.126 -0.6397 -2.5210 -2.4827
73716SOL     OW32872   5.445   1.673   2.337 -0.2614  0.6371 -0.4946
73716SOL    HW132873   5.402   1.617   2.273  0.0153 -0.8985  0.6049
73716SOL    HW232874   5.539   1.654   2.327 -0.1557  0.9606 -0.1599
73717SOL     OW32875  13.600   6.634   9.418  0.6178 -0.1939  0.1972
73717SOL    HW132876  13.531   6.569   9.429  2.1154 -1.5294  2.5642
73717SOL    HW232877  13.593   6.662   9.327 -1.7847 -1.6778 -0.1472
73718SOL     OW32878  12.704   2.258   2.868 -0.2744  0.2197  0.9342
73718SOL    HW132879  12.695   2.180   2.814 -0.4413  1.3369 -0.7184
73718SOL    HW232880  12.619   2.301   2.864 -0.1586  0.5600  1.7637
73719SOL     OW32881   1.094  11.008   5.683  0.0245 -0.0052 -0.3365
73719SOL    HW132882   1.176  11.035   5.640 -1.5970  1.3983 -2.8141
73719SOL    HW232883   1.093  11.057   5.765  1.4608  0.3322 -0.4932
73720SOL     OW32884   6.555   0.342   3.991 -0.1476  0.7314 -0.1352
73720SOL    HW132885   6.557   0.247   3.982  2.0487  0.7758 -0.9419
73720SOL    HW232886   6.540   0.357   4.084  0.6553 -0.4663  0.2206
73721SOL     OW32887  10.116  12.790   0.018  0.0972  0.1426  0.1736
73721SOL    HW132888  10.056  12.735   0.068  0.2011 -0.0362  0.1008
73721SOL    HW232889  10.098  12.769  -0.074 -0.9708  1.3785  0.0804
73722SOL     OW32890   7.292   0.370   5.708  0.1371  0.0862 -0.9480
73722SOL    HW132891   7.282   0.370   5.613  1.6613 -0.6067 -1.1513
73722SOL    HW232892   7.377   0.412   5.722 -1.0393  2.1954  0.2825
73723SOL     OW32893  12.131   8.483  10.306  0.8080 -0.1230  0.7325
73723SOL    HW132894  12.053   8.467  10.359  0.1798  0.3426 -0.0310
73723SOL    HW232895  12.125   8.418  10.236  1.3954 -0.4313  0.9609
73724SOL     OW32896   9.474   0.477   4.735 -0.3143  0.1989  0.1337
73724SOL    HW132897   9.466   0.561   4.690 -0.6614  1.3735  2.2581
73724SOL    HW232898   9.532   0.494   4.809  1.1451 -1.9305 -0.4353
73725SOL     OW32899   6.476   5.901   6.960 -0.2430 -0.4203 -0.3475
73725SOL    HW132900   6.563   5.896   6.921 -0.6489 -0.7261 -1.2423
73725SOL    HW232901   6.488   5.871   7.051  0.4587 -1.1190 -0.6622
73726SOL     OW32902  13.279  10.173   0.094 -0.0778 -1.0925 -0.1832
73726SOL    HW132903  13.253  10.233   0.025 -2.0515 -1.7607 -0.0620
73726SOL    HW232904  13.347  10.221   0.143 -0.1445  0.2000 -1.3079
73727SOL     OW32905   7.766  13.638   7.465  0.0792 -0.0490 -0.1033
73727SOL    HW132906   7.837  13.672   7.411 -0.8428  0.8257 -0.8084
73727SOL    HW232907   7.762  13.696   7.541 -1.4839  1.5326 -1.2987
73728SOL     OW32908  10.783  11.283  12.194 -0.7146  0.2524 -0.1159
73728SOL    HW132909  10.783  11.321  12.282  0.5346 -2.5842  1.2602
73728SOL    HW232910  10.872  11.249  12.183 -1.4929 -1.4950 -1.4974
73729SOL     OW32911   0.242  12.651   1.712  0.4302 -0.5159 -0.0804
73729SOL    HW132912   0.153  12.639   1.746  0.3019  0.8958  0.1432
73729SOL    HW232913   0.230  12.687   1.624  0.7721  0.1979  0.1578
73730SOL     OW32914   1.134   5.947  11.259 -0.0692 -0.4490 -0.2283
73730SOL    HW132915   1.172   5.893  11.329 -0.0786  2.2960  2.0940
73730SOL    HW232916   1.209   5.976  11.207  0.3102 -0.2049  0.4380
73731SOL     OW32917   4.336   0.433   5.190 -0.0785 -0.6358  0.3631
73731SOL    HW132918   4.259   0.485   5.212  0.7747  1.5883 -1.5137
73731SOL    HW232919   4.352   0.380   5.268 -2.7312 -0.2511  1.2688
73732SOL     OW32920   2.233   5.716   5.481 -0.0839 -0.2672 -0.0242
73732SOL    HW132921   2.213   5.748   5.394 -0.4218  0.7178  0.4080
73732SOL    HW232922   2.308   5.658   5.469 -1.2177 -1.5765 -1.2264
73733SOL     OW32923   6.018  11.842  11.266 -0.3380  0.2421  0.6836
73733SOL    HW132924   6.021  11.751  11.237  0.5928  0.6581 -0.5824
73733SOL    HW232925   5.948  11.844  11.331 -0.9718 -1.1890  0.0782
73734SOL     OW32926   9.547   0.079  13.106 -0.2425 -0.3709  0.5570
73734SOL    HW132927   9.639   0.065  13.083 -0.3566  1.1570 -1.0376
73734SOL    HW232928   9.498   0.038  13.035 -0.7451  0.1105  0.6174
73735SOL     OW32929   9.864  10.181   4.915 -0.0061  0.1985 -0.2562
73735SOL    HW132930   9.815  10.124   4.856  1.5034 -0.1645 -1.2156
73735SOL    HW232931   9.942  10.131   4.938 -0.3174  0.5315  1.7134
73736SOL     OW32932   7.610   2.464   0.779 -0.8948 -0.3170 -0.1093
73736SOL    HW132933   7.554   2.405   0.728 -0.8382 -0.8250  0.4131
73736SOL    HW232934   7.577   2.552   0.758 -1.3586 -0.5657 -0.4351
73737SOL     OW32935   4.543   3.737  12.877  0.1326 -0.1708 -0.3442
73737SOL    HW132936   4.512   3.647  12.876  0.9953 -0.5651  1.8943
73737SOL    HW232937   4.497   3.777  12.951  1.6280  0.4769  0.2729
73738SOL     OW32938  11.106   5.055   7.963  0.2245  0.2186  0.0850
73738SOL    HW132939  11.067   5.002   8.033 -0.5054  0.0687 -0.4341
73738SOL    HW232940  11.032   5.101   7.923  0.6493  0.3745 -0.5330
73739SOL     OW32941   8.433   0.901   5.933 -0.1570 -0.1978 -0.1024
73739SOL    HW132942   8.380   0.825   5.958  1.1099 -1.1429 -0.2076
73739SOL    HW232943   8.379   0.947   5.868 -1.1363 -0.7248  0.3105
73740SOL     OW32944   1.398   2.163   2.096  0.1083  0.0250 -0.0767
73740SOL    HW132945   1.374   2.233   2.156  1.9175  0.2691  0.4374
73740SOL    HW232946   1.493   2.152   2.109  0.1802 -1.2987 -1.4301
73741SOL     OW32947   7.594  10.301   0.728 -0.3474 -0.1771  1.1382
73741SOL    HW132948   7.679  10.342   0.744  0.3404 -1.0733 -0.0767
73741SOL    HW232949   7.613  10.207   0.722 -1.5931 -0.5100  1.8848
73742SOL     OW32950   5.886  11.643  11.636 -0.5787 -0.2527 -0.4154
73742SOL    HW132951   5.904  11.630  11.542 -1.7937 -0.5823 -0.6225
73742SOL    HW232952   5.831  11.568  11.660  1.0465 -1.0632  0.9778
73743SOL     OW32953  12.246   0.671   1.273  0.3629 -0.3433  0.4003
73743SOL    HW132954  12.337   0.660   1.301  0.7016  1.1770 -0.0126
73743SOL    HW232955  12.252   0.713   1.188 -0.7296  2.3884  1.5628
73744SOL     OW32956   1.445   6.374   5.001 -0.8265 -0.1444 -0.3087
73744SOL    HW132957   1.360   6.360   4.959 -1.8281  1.6143  1.0268
73744SOL    HW232958   1.424   6.406   5.089  1.2240  0.3695  0.0480
73745SOL     OW32959   5.632   1.168   2.397  0.6062  0.0599  0.1879
73745SOL    HW132960   5.571   1.228   2.440  0.5599 -0.2288  0.5265
73745SOL    HW232961   5.577   1.108   2.347  0.6213 -0.0584  0.3112
73746SOL     OW32962  12.497   4.903   3.716 -0.1145 -0.0939  0.2120
73746SOL    HW132963  12.590   4.884   3.732  0.2711  1.8310  0.4556
73746SOL    HW232964  12.451   4.850   3.782  0.9371  0.4442  1.4299
73747SOL     OW32965   7.971  13.115   3.860 -0.1732  0.1269 -0.2897
73747SOL    HW132966   8.059  13.117   3.823 -0.0875 -1.9170 -0.3475
73747SOL    HW232967   7.950  13.022   3.864 -2.3320  0.5707 -0.2614
73748SOL     OW32968   4.474   9.375  10.599  0.0357 -0.5633  0.3115
73748SOL    HW132969   4.556   9.342  10.637  0.2638 -0.1051  0.2171
73748SOL    HW232970   4.455   9.314  10.527 -0.0723 -1.0731  0.7579
73749SOL     OW32971   4.793  10.855  10.222  0.3776 -0.4730  0.3422
73749SOL    HW132972   4.729  10.880  10.155  0.7006 -0.3758  0.0670
73749SOL    HW232973   4.878  10.877  10.183  0.5634 -0.3561  0.8094
73750SOL     OW32974   7.485   8.667   8.136  0.0489  0.2345 -0.4142
73750SOL    HW132975   7.492   8.669   8.232  2.6163 -0.0460 -0.5192
73750SOL    HW232976   7.438   8.586   8.117 -1.1095  0.6376  0.5913
73751SOL     OW32977   8.967   8.755   1.023  0.1302  0.2089  0.7649
73751SOL    HW132978   8.875   8.757   1.048 -0.5149  0.8313 -1.4605
73751SOL    HW232979   8.975   8.824   0.957  1.9963 -0.4502  0.2499
73752SOL     OW32980   3.812  11.711   3.957 -0.2460  0.4979  0.3911
73752SOL    HW132981   3.825  11.630   4.006  1.0015  0.5861  0.2404
73752SOL    HW232982   3.718  11.712   3.936 -0.1396 -1.3552 -0.3763
73753SOL     OW32983   5.831  11.703   1.777  0.0389  0.0072  0.0340
73753SOL    HW132984   5.856  11.792   1.753 -1.1844  0.6530  1.0091
73753SOL    HW232985   5.899  11.648   1.740  0.9637  1.3698 -0.3648
73754SOL     OW32986  10.232   6.110   5.544 -0.7813  0.2431  0.4182
73754SOL    HW132987  10.240   6.107   5.639 -2.8446 -1.2367  0.6117
73754SOL    HW232988  10.196   6.024   5.520 -0.9643  0.8333 -1.6215
73755SOL     OW32989   4.295  12.468   9.189  0.0223 -0.4789  0.5056
73755SOL    HW132990   4.234  12.395   9.203 -0.0125 -0.5057  0.2131
73755SOL    HW232991   4.381  12.426   9.185 -0.1128 -0.6584 -0.9528
73756SOL     OW32992   1.897   9.376  12.678  1.0325 -0.2340  0.0285
73756SOL    HW132993   1.817   9.413  12.716 -1.0610 -3.0411 -1.1681
73756SOL    HW232994   1.899   9.286  12.711  3.5590 -0.3671 -0.2915
73757SOL     OW32995  10.605  10.145   4.311  0.1773 -0.0010 -0.3612
73757SOL    HW132996  10.519  10.106   4.294  0.1605  0.3030 -1.0350
73757SOL    HW232997  10.598  10.233   4.275  0.3428  0.4961  0.7918
73758SOL     OW32998   4.182   6.989  11.127 -0.8660 -0.2682  0.3750
73758SOL    HW132999   4.269   7.020  11.100 -0.9345  0.1291  0.6058
73758SOL    HW233000   4.197   6.946  11.211 -1.2500  1.8447  1.5638
73759SOL     OW33001   4.620   1.029  11.471  0.1578  0.2585 -0.3525
73759SOL    HW133002   4.607   1.010  11.378  0.4662  1.0172 -0.5602
73759SOL    HW233003   4.696   0.978  11.497  0.0706  0.0472 -0.5169
73760SOL     OW33004   0.043   3.081   2.005 -0.5100 -0.1039  0.0580
73760SOL    HW133005   0.013   3.061   1.917 -1.6641  2.0550 -0.0940
73760SOL    HW233006   0.075   3.171   2.000  1.9955 -0.8320  1.2478
73761SOL     OW33007   2.866   3.071   5.399  0.2535 -0.0894  0.4173
73761SOL    HW133008   2.888   3.147   5.453  0.1705  1.1925 -1.2771
73761SOL    HW233009   2.936   3.066   5.335 -1.8242  1.2186 -2.1462
73762SOL     OW33010  10.232  13.727   6.608  0.2732  0.3608 -0.0108
73762SOL    HW133011  10.196  13.810   6.640 -1.0066 -0.2080  0.0480
73762SOL    HW233012  10.177  13.660   6.646  1.2460 -0.5351 -0.1352
73763SOL     OW33013   8.103   7.693   0.139 -0.0880  0.2523  0.9194
73763SOL    HW133014   8.037   7.725   0.077  0.3843  0.0981  0.3211
73763SOL    HW233015   8.088   7.744   0.218  0.0360  1.2972  0.2954
73764SOL     OW33016  13.589   8.663   4.343  0.4462  0.2793  0.4229
73764SOL    HW133017  13.596   8.716   4.263 -0.7206  0.6541  0.5570
73764SOL    HW233018  13.671   8.680   4.390  0.6270  0.9955 -0.1292
73765SOL     OW33019   3.113  11.662   8.220 -0.2649 -0.0785 -0.4683
73765SOL    HW133020   3.176  11.602   8.260  0.9314 -0.6473 -2.9697
73765SOL    HW233021   3.034  11.609   8.208  0.1376 -0.5848 -0.9150
73766SOL     OW33022  11.897  10.407   5.611  0.0173 -0.3814 -0.5958
73766SOL    HW133023  11.898  10.428   5.518  1.6585  2.8311 -0.0032
73766SOL    HW233024  11.854  10.483   5.652  1.8033 -0.3604  1.4514
73767SOL     OW33025   3.963   1.641   7.465 -0.0455  0.2178 -0.3338
73767SOL    HW133026   4.031   1.698   7.501  1.5717 -0.8773 -1.5133
73767SOL    HW233027   3.922   1.601   7.541  1.5396 -0.0820  0.4021
73768SOL     OW33028   8.577  10.402   5.423  0.0121 -0.4463 -0.1004
73768SOL    HW133029   8.650  10.376   5.366 -0.2597 -2.6643  0.4544
73768SOL    HW233030   8.614  10.401   5.511  0.1845  2.0286 -0.0855
73769SOL     OW33031   3.366   5.636   5.631  0.0019  0.1853 -0.0234
73769SOL    HW133032   3.274   5.622   5.654 -0.5526  0.5471 -1.8997
73769SOL    HW233033   3.406   5.550   5.640 -0.3715  0.1213  1.3161
73770SOL     OW33034   5.759   7.810   4.144 -0.2245 -0.1112 -0.5492
73770SOL    HW133035   5.803   7.748   4.202 -2.9799  0.2900  2.2510
73770SOL    HW233036   5.813   7.889   4.147  1.1037 -0.9832 -0.7645
73771SOL     OW33037   8.958  13.277   3.093  0.4774  0.2095 -0.3655
73771SOL    HW133038   8.898  13.332   3.043  1.1748  0.1450 -1.3116
73771SOL    HW233039   9.041  13.325   3.092  0.1397  0.9988  2.1502
73772SOL     OW33040   9.006  10.427  12.975  0.2720 -0.4099  0.1570
73772SOL    HW133041   9.076  10.425  12.911  1.3252  0.1190  1.2568
73772SOL    HW233042   9.043  10.387  13.053 -1.0020 -1.0897  0.4348
73773SOL     OW33043   8.707   6.971   8.120 -0.5650  0.1766  0.0170
73773SOL    HW133044   8.658   6.898   8.081 -0.7069 -0.2170  0.9092
73773SOL    HW233045   8.639   7.032   8.150 -0.7147 -1.4043  3.3173
73774SOL     OW33046  12.608   8.196  12.870  0.1195  0.2099 -0.3376
73774SOL    HW133047  12.607   8.292  12.876  0.6954  0.1872  0.2351
73774SOL    HW233048  12.630   8.178  12.779  2.4513  0.6489  0.0874
73775SOL     OW33049   7.140   0.152  11.646 -0.4349 -0.6450  0.2040
73775SOL    HW133050   7.165   0.210  11.574 -0.1151 -0.5036  0.4281
73775SOL    HW233051   7.048   0.175  11.664 -0.0599  0.4229  0.8700
73776SOL     OW33052   3.067   9.611   1.827 -0.5699  0.0225  0.2286
73776SOL    HW133053   2.997   9.591   1.889  0.8073 -0.8993  1.5579
73776SOL    HW233054   3.040   9.569   1.746 -2.0716  0.6501  0.3758
73777SOL     OW33055   9.780   6.225   3.964  0.0960 -0.0462  0.0085
73777SOL    HW133056   9.689   6.251   3.975  0.4716  0.2726  3.4008
73777SOL    HW233057   9.829   6.307   3.969  0.6267 -0.1492 -2.3143
73778SOL     OW33058  12.690  11.860   2.773 -0.2970  0.1280 -0.1617
73778SOL    HW133059  12.688  11.932   2.709 -0.6645  0.8332  0.6165
73778SOL    HW233060  12.679  11.781   2.721 -1.4034  0.7364 -0.9131
73779SOL     OW33061   8.312   5.912   9.746 -0.0595  0.0637 -0.1941
73779SOL    HW133062   8.251   5.869   9.805 -1.1505  2.0994  0.2424
73779SOL    HW233063   8.399   5.882   9.774 -0.7590 -1.7772  0.0763
73780SOL     OW33064   9.579   9.511   7.611  0.0416 -0.0732 -0.8849
73780SOL    HW133065   9.605   9.429   7.568 -0.7875  0.0976 -1.7321
73780SOL    HW233066   9.562   9.486   7.702 -1.1962 -1.0478 -1.3671
73781SOL     OW33067   0.455   1.222  10.274  0.2925 -0.0125  0.0288
73781SOL    HW133068   0.411   1.210  10.358  0.2689  1.5239  0.2781
73781SOL    HW233069   0.547   1.201  10.292  0.2257 -0.0410  0.3473
73782SOL     OW33070   7.877   5.814   0.274  0.5337  0.9245 -0.4443
73782SOL    HW133071   7.948   5.755   0.300 -0.3629 -0.0763 -0.1649
73782SOL    HW233072   7.830   5.766   0.206  0.6977  1.9890 -1.3263
73783SOL     OW33073   8.244   6.533   1.762  0.0597  0.2477 -0.5667
73783SOL    HW133074   8.315   6.586   1.798  0.7174 -2.6278  3.0073
73783SOL    HW233075   8.285   6.485   1.689  0.9797  0.6548 -0.3375
73784SOL     OW33076  13.191  10.916  11.588  0.6799  0.2996 -0.7145
73784SOL    HW133077  13.121  10.976  11.613  1.2364  0.8354 -0.3841
73784SOL    HW233078  13.192  10.918  11.493  0.2845  0.3282 -0.7199
73785SOL     OW33079   7.790   0.884   3.165 -0.3537  0.3762 -0.4665
73785SOL    HW133080   7.862   0.869   3.103  1.2946  1.3765  1.1100
73785SOL    HW233081   7.825   0.854   3.249 -2.5363 -0.9498  0.0371
73786SOL     OW33082   5.922   7.077   8.886 -0.1090 -0.0331 -0.1802
73786SOL    HW133083   5.988   7.138   8.919  0.5015 -1.0472  0.5431
73786SOL    HW233084   5.839   7.114   8.916  0.4285 -1.2912  3.3844
73787SOL     OW33085  10.867   7.630  11.697  0.4691  0.0365  0.0352
73787SOL    HW133086  10.892   7.722  11.683 -0.3719  0.1211 -1.1048
73787SOL    HW233087  10.792   7.617  11.639 -0.3741 -0.9606  1.3051
73788SOL     OW33088   0.519   2.161   5.843  0.3217 -0.1353 -0.5425
73788SOL    HW133089   0.472   2.161   5.927 -0.1260 -0.1585 -0.7945
73788SOL    HW233090   0.558   2.249   5.838  1.5123 -0.5852  0.3322
73789SOL     OW33091  11.062   3.451   9.436  0.1498  0.1580 -0.4622
73789SOL    HW133092  11.039   3.370   9.390  1.1354  0.0265 -0.7536
73789SOL    HW233093  11.138   3.485   9.388  0.2428  0.8295  0.1432
73790SOL     OW33094   2.143   9.123  12.792  0.9920 -0.1216  0.6028
73790SOL    HW133095   2.178   9.089  12.874 -0.3629 -0.1051  1.2245
73790SOL    HW233096   2.072   9.063  12.769 -1.3934  2.0909  1.6817
73791SOL     OW33097   5.247   9.838  11.535 -0.0317  0.5580  0.3251
73791SOL    HW133098   5.339   9.825  11.557 -0.0202  1.2376  0.7100
73791SOL    HW233099   5.236   9.794  11.450  0.1535 -1.2813  1.2115
73792SOL     OW33100   9.357   6.349   3.134 -0.3823  0.6136  0.1824
73792SOL    HW133101   9.397   6.392   3.209  0.1099  0.0519  0.2536
73792SOL    HW233102   9.431   6.311   3.086 -0.7635  0.2427 -0.1190
73793SOL     OW33103   4.537   2.453  11.437 -0.1840  0.8576 -0.2814
73793SOL    HW133104   4.613   2.404  11.470  0.8922  2.7897  0.2280
73793SOL    HW233105   4.465   2.390  11.440  1.3131 -0.9492 -0.4956
73794SOL     OW33106   2.396  10.822   3.926  0.3738  0.0017  0.0426
73794SOL    HW133107   2.319  10.796   3.976 -0.4149  0.1221 -1.0592
73794SOL    HW233108   2.470  10.788   3.976 -0.5049 -2.5131 -0.2259
73795SOL     OW33109   0.700   8.348  11.210 -0.3031  0.1349  0.1426
73795SOL    HW133110   0.636   8.286  11.174 -0.1697  0.1072 -0.0525
73795SOL    HW233111   0.736   8.392  11.133 -1.2359  1.2883  0.3535
73796SOL     OW33112  10.054   7.181   8.214 -0.5086  0.3026  0.2291
73796SOL    HW133113   9.961   7.193   8.234 -1.1321 -2.5921 -0.5324
73796SOL    HW233114  10.099   7.234   8.279 -2.6711  1.5975  0.7762
73797SOL     OW33115   0.383   0.086   0.126  0.0044  0.4382  0.1095
73797SOL    HW133116   0.406   0.169   0.168 -1.3452  0.7513  0.2666
73797SOL    HW233117   0.287   0.089   0.118 -0.2222 -1.6766  1.3509
73798SOL     OW33118   7.726   8.693   0.087 -0.0133 -0.0727  0.1439
73798SOL    HW133119   7.732   8.600   0.065  0.8136 -0.0705  0.3144
73798SOL    HW233120   7.810   8.713   0.129  0.3721  1.0681 -1.0971
73799SOL     OW33121  10.564   7.321  10.277 -0.1060 -0.2048 -0.1872
73799SOL    HW133122  10.644   7.290  10.235 -0.5108 -0.7671 -0.5737
73799SOL    HW233123  10.508   7.243  10.281 -0.7199  0.2308 -0.1413
73800SOL     OW33124   7.512  11.616  10.921 -0.6933  0.0303 -0.0463
73800SOL    HW133125   7.575  11.682  10.950 -1.6858  0.7799  0.4490
73800SOL    HW233126   7.524  11.611  10.826  0.8642 -0.6456  0.1562
73801SOL     OW33127   1.528   5.704   5.278  0.2389  0.8652  0.1788
73801SOL    HW133128   1.496   5.739   5.195 -0.4188  1.2393  0.5849
73801SOL    HW233129   1.550   5.781   5.330 -0.6942  0.6728  0.8750
73802SOL     OW33130   8.355   8.579   3.694  0.0267 -0.0829 -0.1148
73802SOL    HW133131   8.436   8.629   3.684 -0.1020 -0.3054 -3.6181
73802SOL    HW233132   8.289   8.632   3.648 -2.2084  0.6281  3.5219
73803SOL     OW33133  10.218   5.444  12.722  0.4404 -0.8420 -0.6769
73803SOL    HW133134  10.157   5.370  12.724 -1.3573  0.5597 -0.5676
73803SOL    HW233135  10.217   5.478  12.811  0.9200 -0.4298 -0.8263
73804SOL     OW33136   7.647   2.377   5.553  0.6836  0.2391  0.1874
73804SOL    HW133137   7.627   2.423   5.471  0.9653  0.4095  0.2136
73804SOL    HW233138   7.743   2.379   5.559  0.7880 -1.3092 -0.3678
73805SOL     OW33139   2.899   5.389   1.544  0.0112 -0.2681  0.1836
73805SOL    HW133140   2.815   5.404   1.501  0.5283  0.2885 -0.6491
73805SOL    HW233141   2.900   5.449   1.618  0.0055  0.3198 -0.2828
73806SOL     OW33142   5.945   8.903   8.002 -0.0563 -0.4236  0.1371
73806SOL    HW133143   5.895   8.836   8.049  0.1872 -0.3197  0.5514
73806SOL    HW233144   5.992   8.950   8.071 -1.1873  0.9949 -0.0060
73807SOL     OW33145   9.510   9.309   1.973  0.5500 -0.7968  0.4993
73807SOL    HW133146   9.502   9.333   2.065 -1.4437  0.6970  0.0031
73807SOL    HW233147   9.425   9.270   1.951  0.2912  0.5527 -1.1212
73808SOL     OW33148  10.917   7.556  10.470 -0.1284  0.2021 -0.1318
73808SOL    HW133149  11.002   7.564  10.513 -0.4458  2.0592  0.2724
73808SOL    HW233150  10.856   7.601  10.529 -1.5303 -1.5992 -0.1176
73809SOL     OW33151   9.912   6.863  11.189  0.2479  0.7095 -0.4065
73809SOL    HW133152  10.004   6.887  11.199  0.2284  0.0995  1.9821
73809SOL    HW233153   9.874   6.878  11.276 -2.0894  1.5854 -1.4890
73810SOL     OW33154   2.548  10.776   0.418  0.0695  0.3447 -0.4450
73810SOL    HW133155   2.612  10.710   0.444  0.3455  0.7779 -0.0052
73810SOL    HW233156   2.479  10.727   0.373  0.3074 -0.2279 -0.1903
73811SOL     OW33157  12.285  12.860  13.624  0.0106 -0.5167 -0.1830
73811SOL    HW133158  12.364  12.913  13.614  0.5775 -1.5658 -1.5530
73811SOL    HW233159  12.300  12.810  13.705  1.1275 -1.2644 -0.8133
73812SOL     OW33160  13.027   0.585  13.503  0.2305  0.1331  0.2219
73812SOL    HW133161  13.027   0.526  13.427 -3.0306 -1.3688  1.1641
73812SOL    HW233162  12.942   0.630  13.497 -1.1850 -1.6494  3.9715
73813SOL     OW33163  10.708   0.966   1.727  0.6569 -0.2524 -0.2924
73813SOL    HW133164  10.772   0.899   1.752 -0.1110 -1.2675 -0.9457
73813SOL    HW233165  10.640   0.961   1.794  0.1883 -0.7272 -0.7908
73814SOL     OW33166   0.336   6.343  12.033  0.0672 -0.0630 -0.3133
73814SOL    HW133167   0.355   6.437  12.024  0.5534 -0.0210  0.9526
73814SOL    HW233168   0.422   6.303  12.049 -0.1375 -0.7355 -0.8531
73815SOL     OW33169  10.268   3.428   8.841 -0.0455 -0.3993 -0.6158
73815SOL    HW133170  10.229   3.341   8.830 -0.6569 -0.7474  3.0185
73815SOL    HW233171  10.358   3.411   8.868 -0.4970 -0.0077  1.2399
73816SOL     OW33172   1.474   3.247   2.896 -0.0560 -0.1125  0.0184
73816SOL    HW133173   1.522   3.207   2.969 -0.2384  1.4873  1.0584
73816SOL    HW233174   1.487   3.341   2.906 -2.4274  0.3331 -0.3146
73817SOL     OW33175   6.904  10.624  10.929  0.5069 -0.3188  0.6398
73817SOL    HW133176   6.948  10.552  10.884  2.7123  0.3416  1.5574
73817SOL    HW233177   6.972  10.661  10.986 -0.1875  3.0520 -0.4672
73818SOL     OW33178   2.867   6.641   9.733  0.7216  0.0789  0.3992
73818SOL    HW133179   2.830   6.712   9.787  0.2629  0.4170 -0.3389
73818SOL    HW233180   2.794   6.614   9.677  1.1833 -0.2876 -0.0258
73819SOL     OW33181   1.338   7.989  12.602 -0.3238 -0.1423 -0.2110
73819SOL    HW133182   1.354   7.949  12.517  0.3124  0.7087 -0.5089
73819SOL    HW233183   1.255   7.952  12.632 -1.0742  0.3028 -1.6628
73820SOL     OW33184  11.993  10.935   1.878  0.0051 -0.0822 -0.1352
73820SOL    HW133185  11.966  10.944   1.786  0.5271  1.5606 -0.1565
73820SOL    HW233186  11.951  11.009   1.922  0.1090 -0.6116  0.8777
73821SOL     OW33187   5.521   9.483   7.614 -0.2660 -0.2874 -0.1098
73821SOL    HW133188   5.492   9.550   7.675 -1.1426 -0.2576 -0.5544
73821SOL    HW233189   5.464   9.408   7.630 -2.3260  0.5914 -2.6476
73822SOL     OW33190   5.079   6.273  11.150 -0.2451 -0.5689 -0.0447
73822SOL    HW133191   5.154   6.294  11.205  0.4758  0.1661 -1.2524
73822SOL    HW233192   5.084   6.178  11.137  1.7945 -0.2980 -1.8647
73823SOL     OW33193  12.759   4.044  10.916  0.2695  0.1963 -0.3542
73823SOL    HW133194  12.802   3.984  10.855  0.0249  1.5995 -1.9995
73823SOL    HW233195  12.819   4.117  10.925 -0.0690  0.3842  0.4511
73824SOL     OW33196  13.074  11.249   2.169  0.5775  0.1845  0.3866
73824SOL    HW133197  13.027  11.221   2.248 -0.1255  0.1099 -0.0572
73824SOL    HW233198  13.044  11.189   2.101  1.6583 -0.1555  0.1937
73825SOL     OW33199   7.969   7.830  10.923  1.0721  0.7061 -0.5361
73825SOL    HW133200   7.964   7.909  10.868 -0.0134  2.4906  1.9595
73825SOL    HW233201   8.040   7.849  10.984 -1.4151  1.3956  2.3472
73826SOL     OW33202   9.598   2.956   9.394 -0.2627 -0.1299 -0.2643
73826SOL    HW133203   9.565   2.874   9.430  0.4414 -0.3051 -0.0114
73826SOL    HW233204   9.661   2.930   9.327 -1.7254  0.1896 -1.8401
73827SOL     OW33205   1.123   8.731   8.832 -0.0675 -0.2354 -0.0034
73827SOL    HW133206   1.028   8.737   8.834 -0.0017  1.1049 -0.2935
73827SOL    HW233207   1.146   8.687   8.914 -0.9526 -1.1180 -0.2027
73828SOL     OW33208   9.949   0.167   4.354 -0.0086  0.1341 -0.1606
73828SOL    HW133209   9.997   0.138   4.276 -0.3943  0.9672 -0.7232
73828SOL    HW233210   9.960   0.096   4.417  1.0400 -0.1721 -0.6659
73829SOL     OW33211  13.253   8.712   9.925 -0.2403 -0.6116  0.3007
73829SOL    HW133212  13.224   8.621   9.930 -0.2813 -0.6694 -0.8183
73829SOL    HW233213  13.336   8.708   9.876 -1.6507  0.2100 -2.3605
73830SOL     OW33214  13.651   0.198   8.590 -0.5612 -0.3974  0.3397
73830SOL    HW133215  13.567   0.237   8.564  0.7675  1.1549 -1.9691
73830SOL    HW233216  13.694   0.265   8.643 -0.2008 -0.6292  0.3441
73831SOL     OW33217   6.335  13.143   2.249  0.0192 -0.6345 -0.1311
73831SOL    HW133218   6.326  13.228   2.292  0.2614 -0.1707 -0.9745
73831SOL    HW233219   6.259  13.093   2.280 -1.5652  0.7402 -1.5338
73832SOL     OW33220  10.094  11.911   5.427  0.4754 -0.1472  0.2161
73832SOL    HW133221  10.072  11.856   5.502 -0.6698  0.9914  0.7700
73832SOL    HW233222  10.077  11.856   5.351 -0.8353 -0.5248  0.7451
73833SOL     OW33223  11.906   5.194   1.276 -0.4960  0.1618 -0.1050
73833SOL    HW133224  11.885   5.270   1.222 -0.2011 -0.9075 -1.7698
73833SOL    HW233225  11.902   5.119   1.217  0.4429 -0.9955  1.2149
73834SOL     OW33226  13.207  11.675   6.756  0.3402 -0.0630 -0.2632
73834SOL    HW133227  13.195  11.670   6.851 -0.0625 -0.7594 -0.3468
73834SOL    HW233228  13.204  11.769   6.737  0.8013  0.1077  0.4541
73835SOL     OW33229  11.236   0.301   4.196  0.0210  0.1494 -0.4678
73835SOL    HW133230  11.144   0.280   4.178 -0.5543  2.3355 -0.3445
73835SOL    HW233231  11.280   0.216   4.197 -1.7610 -0.8668 -1.7825
73836SOL     OW33232  11.166   0.691   4.897 -0.5172  0.1505 -0.1907
73836SOL    HW133233  11.197   0.697   4.988  0.5521  0.4449 -0.5650
73836SOL    HW233234  11.124   0.776   4.881 -1.1224 -0.0759  0.1709
73837SOL     OW33235   3.459   1.491   1.872  0.2275  0.4152  0.2455
73837SOL    HW133236   3.386   1.553   1.880  1.4947  1.8769  1.0657
73837SOL    HW233237   3.513   1.507   1.950  3.4081  2.1435 -2.0695
73838SOL     OW33238   8.918   7.944  11.172 -0.0777  0.3672  0.2571
73838SOL    HW133239   8.912   7.902  11.086 -2.2057  1.4563 -0.2125
73838SOL    HW233240   8.919   7.872  11.235  2.2988 -0.4782 -0.6546
73839SOL     OW33241  12.579   5.643   8.985 -0.3262  0.3969  0.1667
73839SOL    HW133242  12.526   5.564   8.997 -0.2828  0.0617 -1.5927
73839SOL    HW233243  12.643   5.619   8.919 -0.3652  1.9169 -0.4639
73840SOL     OW33244   8.127   0.972   6.444  0.1154  0.5539 -0.2506
73840SOL    HW133245   8.160   0.975   6.354  0.7064  0.4570 -0.0422
73840SOL    HW233246   8.034   0.954   6.434  0.2463  0.1414 -0.8323
73841SOL     OW33247   6.525  11.378  12.734  0.5610 -0.1990  0.1834
73841SOL    HW133248   6.434  11.378  12.705  0.2927  0.0785  0.9884
73841SOL    HW233249   6.525  11.322  12.811  1.1856 -0.6397 -0.1345
73842SOL     OW33250   9.771  11.592   3.863 -0.0430  0.2521  0.0105
73842SOL    HW133251   9.682  11.623   3.844 -0.5383 -1.0506  0.0811
73842SOL    HW233252   9.810  11.662   3.915 -0.9992  0.8883 -0.0938
73843SOL     OW33253   1.097  10.623  10.053 -0.2505 -0.0791  0.5325
73843SOL    HW133254   1.157  10.602   9.982  1.8593 -0.0642  2.2148
73843SOL    HW233255   1.012  10.636  10.010  0.8520 -0.4339 -1.8966
73844SOL     OW33256   2.629   6.230   8.680  0.2176  0.2355 -0.0612
73844SOL    HW133257   2.539   6.261   8.678 -0.7763 -2.4525  0.2684
73844SOL    HW233258   2.671   6.283   8.748 -1.2240  1.1694  0.1353
73845SOL     OW33259  13.441  11.859   1.617  0.0760 -0.2667 -0.6287
73845SOL    HW133260  13.522  11.808   1.614 -0.2545 -0.8118 -0.4194
73845SOL    HW233261  13.470  11.948   1.637  0.6265 -0.4506 -0.5767
73846SOL     OW33262  13.629   9.259   3.980 -0.4801  0.2403  0.0789
73846SOL    HW133263  13.560   9.275   4.044 -1.0747  0.1473 -0.5309
73846SOL    HW233264  13.600   9.182   3.931  0.8510 -0.8498  0.9089
73847SOL     OW33265   0.805   5.223   8.690 -0.2866  0.2143 -0.2598
73847SOL    HW133266   0.806   5.130   8.715 -1.0511  0.1099 -0.5864
73847SOL    HW233267   0.808   5.222   8.595 -1.9294  0.4613 -0.3396
73848SOL     OW33268   5.085   7.300   7.175  0.5170 -0.2059 -0.3360
73848SOL    HW133269   5.039   7.292   7.092 -0.1848  2.2502 -0.2357
73848SOL    HW233270   5.027   7.257   7.238  0.2370 -0.5735 -0.8364
73849SOL     OW33271   3.109   6.602   9.920  0.0455 -0.1845 -0.0247
73849SOL    HW133272   3.064   6.674   9.965 -0.4416 -0.1760 -0.5206
73849SOL    HW233273   3.049   6.528   9.926  0.7649 -0.7142  0.9408
73850SOL     OW33274   9.761   5.583   2.195  0.0745 -0.0992 -0.3421
73850SOL    HW133275   9.803   5.665   2.220 -1.4403  0.6389 -0.1158
73850SOL    HW233276   9.737   5.542   2.279 -0.8115  0.1251 -0.4739
73851SOL     OW33277   3.896  13.420   5.996 -0.4365  0.6069 -0.0776
73851SOL    HW133278   3.831  13.480   5.959 -1.3547 -0.1081  0.3562
73851SOL    HW233279   3.931  13.466   6.072  0.2418  1.3731 -0.8251
73852SOL     OW33280   2.024   9.872   5.641  0.0635  0.3549  0.3243
73852SOL    HW133281   1.985   9.837   5.560 -0.2461  0.3933  0.4547
73852SOL    HW233282   2.115   9.890   5.618  0.2107 -0.4666  0.2354
73853SOL     OW33283  13.699   8.935   9.783  0.0809 -0.2595  0.2010
73853SOL    HW133284  13.692   8.997   9.710  0.8924 -1.1920 -0.7064
73853SOL    HW233285  13.755   8.865   9.750 -0.0180 -1.0086  1.5307
73854SOL     OW33286  10.213   2.766  12.544 -0.5685 -1.3246  0.0705
73854SOL    HW133287  10.167   2.846  12.570 -1.5221 -1.6373 -0.5967
73854SOL    HW233288  10.148   2.716  12.495  1.0253 -0.9140 -2.6967
73855SOL     OW33289   6.755   3.939   8.254  0.2606 -0.6045  0.4088
73855SOL    HW133290   6.675   3.952   8.304  0.1065 -0.5556  0.1500
73855SOL    HW233291   6.732   3.963   8.164  0.9825  0.9330  0.6073
73856SOL     OW33292  10.640   3.392   8.737 -0.5347  0.0051 -0.0596
73856SOL    HW133293  10.604   3.479   8.717 -2.2779 -0.5566  0.5073
73856SOL    HW233294  10.706   3.409   8.805  1.1578  1.1766 -1.8494
73857SOL     OW33295   9.781   9.361   1.902  0.0393 -0.1440 -0.0215
73857SOL    HW133296   9.816   9.450   1.914 -0.8125  0.3476 -0.9821
73857SOL    HW233297   9.689   9.368   1.927 -0.1125 -0.6730 -0.4107
73858SOL     OW33298   0.666   3.575   0.161 -0.3564 -0.3850  0.2762
73858SOL    HW133299   0.664   3.670   0.160 -0.1559 -0.3786  0.4027
73858SOL    HW233300   0.755   3.553   0.190 -0.5560 -0.6067  0.7267
73859SOL     OW33301   0.200   7.678  12.657 -0.0572 -0.0051  0.4228
73859SOL    HW133302   0.290   7.681  12.625 -0.3540 -2.2022 -0.8096
73859SOL    HW233303   0.180   7.585  12.666 -2.3140  0.4086  0.3342
73860SOL     OW33304   1.960   2.217   1.482  0.5514 -0.3570  0.1064
73860SOL    HW133305   1.956   2.198   1.575  1.2060 -0.8001  0.0561
73860SOL    HW233306   1.889   2.278   1.466  1.0127  0.4596  1.0751
73861SOL     OW33307   6.824   0.295  12.365  0.4994 -0.8440 -0.1857
73861SOL    HW133308   6.819   0.200  12.376 -1.7519 -0.5383  2.6135
73861SOL    HW233309   6.793   0.311  12.276 -1.0238 -2.6649 -0.0337
73862SOL     OW33310   4.911   6.169  12.976  0.4322 -0.0327 -0.1340
73862SOL    HW133311   4.848   6.123  12.921 -0.7237  0.2108  0.9270
73862SOL    HW233312   4.995   6.126  12.959 -0.3420 -1.5776 -0.2355
73863SOL     OW33313   2.529   7.589   5.707 -0.2728  0.4741 -0.0526
73863SOL    HW133314   2.588   7.610   5.779 -1.1166  0.3780  0.6808
73863SOL    HW233315   2.555   7.648   5.636  0.2757  0.8681  0.4740
73864SOL     OW33316   7.041   8.896   3.382 -0.5363 -0.5694  0.7676
73864SOL    HW133317   7.080   8.813   3.409 -0.0177 -0.4381  0.4418
73864SOL    HW233318   7.095   8.925   3.308  1.0932  1.4608  2.6293
73865SOL     OW33319  13.152   6.234   3.616 -0.3441 -0.5925 -0.1517
73865SOL    HW133320  13.229   6.245   3.560  0.7080  1.7556  1.5766
73865SOL    HW233321  13.162   6.146   3.652  0.1849 -1.2565 -1.8165
73866SOL     OW33322   0.674   9.425   0.669 -0.7398  0.2017 -0.3707
73866SOL    HW133323   0.723   9.355   0.625 -1.4133 -0.7619  0.3611
73866SOL    HW233324   0.665   9.493   0.603  0.4356 -0.1546 -0.9287
73867SOL     OW33325   1.066   7.620   6.737 -0.3609 -0.1690  0.2268
73867SOL    HW133326   1.136   7.655   6.792  0.9998  0.0956 -1.5771
73867SOL    HW233327   1.002   7.690   6.731 -0.8405 -0.4192  1.9144
73868SOL     OW33328   1.377   0.025   7.903 -0.0861  0.4051 -0.1112
73868SOL    HW133329   1.350   0.116   7.895 -0.2718  0.1734 -3.6921
73868SOL    HW233330   1.296  -0.025   7.895  0.1508 -0.1131  0.6404
73869SOL     OW33331   0.504   9.331   3.841  0.8545 -0.2903 -0.3107
73869SOL    HW133332   0.477   9.251   3.885  0.4132  0.6236  1.1234
73869SOL    HW233333   0.449   9.335   3.763 -0.8376 -0.1641  0.8559
73870SOL     OW33334   2.021   8.809   0.582 -0.0062 -0.4848 -0.1066
73870SOL    HW133335   2.101   8.756   0.588  0.1750 -0.2848 -0.6629
73870SOL    HW233336   2.002   8.811   0.488  1.4644  2.5874 -0.4568
73871SOL     OW33337   9.006   9.571   4.814  0.0530 -0.4305  0.1730
73871SOL    HW133338   8.919   9.542   4.788  0.6237 -0.9175 -1.2618
73871SOL    HW233339   9.048   9.598   4.733  0.8124  1.0440  0.9974
73872SOL     OW33340   9.663  11.991  13.161  0.1442 -0.0416 -0.4111
73872SOL    HW133341   9.683  11.907  13.202 -1.1177 -0.1217  0.0820
73872SOL    HW233342   9.680  12.056  13.229  0.5260  0.0609 -0.5977
73873SOL     OW33343  10.184   3.202   2.701  0.4828  0.2747  0.4901
73873SOL    HW133344  10.157   3.135   2.638  0.3559  2.4782 -1.9376
73873SOL    HW233345  10.104   3.226   2.747  0.0595  0.3824 -0.2873
73874SOL     OW33346   3.216   9.222   0.013  0.6834 -0.6145  0.0428
73874SOL    HW133347   3.165   9.291  -0.028  1.6964 -0.4437 -0.9639
73874SOL    HW233348   3.285   9.268   0.061 -0.1093 -0.8396  1.4418
73875SOL     OW33349   6.856   3.142   3.113 -0.4546  0.7767 -0.1488
73875SOL    HW133350   6.854   3.060   3.162 -0.9621  0.2648 -1.0154
73875SOL    HW233351   6.941   3.180   3.134 -0.2643  0.0936  0.3542
73876SOL     OW33352  11.637   6.223   2.609 -0.4467 -0.6698  0.0915
73876SOL    HW133353  11.675   6.141   2.640  0.0960 -0.4045  0.1392
73876SOL    HW233354  11.542   6.206   2.606 -0.3107 -1.4199 -0.2697
73877SOL     OW33355   3.113   1.826   2.870  0.6067  0.1273  0.0156
73877SOL    HW133356   3.041   1.782   2.915  0.0098  0.9191 -0.1551
73877SOL    HW233357   3.087   1.827   2.778  0.7185  0.6363 -0.0119
73878SOL     OW33358   9.693  12.905   8.424 -0.0547  0.4315  0.5252
73878SOL    HW133359   9.622  12.964   8.397  0.1550  0.8132  0.7875
73878SOL    HW233360   9.771  12.960   8.421 -0.0543  0.5914  2.1694
73879SOL     OW33361  11.331   7.501   0.513 -0.3481  0.0344 -0.3813
73879SOL    HW133362  11.425   7.499   0.531 -0.6251  0.4694  1.3203
73879SOL    HW233363  11.313   7.593   0.492 -0.1960 -0.2943 -2.0951
73880SOL     OW33364   6.279  11.711   7.171  0.1282 -0.1150 -0.0120
73880SOL    HW133365   6.340  11.784   7.157  0.8541 -1.0314 -2.1319
73880SOL    HW233366   6.326  11.634   7.138 -1.5190 -1.1465 -0.0480
73881SOL     OW33367  13.738   0.396   5.019  0.5022  0.0828  0.3094
73881SOL    HW133368  13.668   0.334   5.040 -0.7187  0.9389 -1.0422
73881SOL    HW233369  13.710   0.478   5.059 -0.5275  1.0398 -2.1789
73882SOL     OW33370   5.520   4.519   7.869  0.5518 -0.4192  0.0469
73882SOL    HW133371   5.489   4.545   7.956 -0.5796 -0.0654 -0.4522
73882SOL    HW233372   5.441   4.492   7.822  1.2089 -1.0317 -0.7365
73883SOL     OW33373  12.316   1.898  13.745  0.1625 -0.4999  0.4816
73883SOL    HW133374  12.352   1.973  13.794  1.4847 -2.0077  1.9707
73883SOL    HW233375  12.236   1.874  13.792 -0.5747  0.3086 -0.3407
73884SOL     OW33376  13.093   5.596   4.382  0.3473 -0.5567 -0.0857
73884SOL    HW133377  13.135   5.595   4.469  1.9573  0.1256 -0.8204
73884SOL    HW233378  13.116   5.681   4.345 -0.8560 -0.5827 -0.9529
73885SOL     OW33379   3.522   6.538   9.834  0.3594 -0.1722 -0.1682
73885SOL    HW133380   3.594   6.496   9.881 -0.4319 -1.8733 -0.4155
73885SOL    HW233381   3.509   6.484   9.756 -0.9422  0.3128 -0.3125
73886SOL     OW33382   0.126   0.255   7.159 -0.4334 -0.3214  0.3450
73886SOL    HW133383   0.167   0.242   7.073 -0.9147 -0.4234  0.1283
73886SOL    HW233384   0.137   0.170   7.203 -1.7665 -0.8649 -0.3017
73887SOL     OW33385  11.983  10.122  12.362 -0.0725  0.1453 -0.4804
73887SOL    HW133386  11.984  10.077  12.278 -0.3162 -0.3206 -0.2382
73887SOL    HW233387  11.911  10.081  12.411 -0.9314  1.4488 -0.5974
73888SOL     OW33388  12.146   2.099  10.196  0.7056  0.0552 -0.0725
73888SOL    HW133389  12.113   2.021  10.152 -0.1865 -0.5675  1.6015
73888SOL    HW233390  12.205   2.065  10.264  1.3680  0.9247 -0.1911
73889SOL     OW33391  12.615   1.884   1.279  0.0124 -0.4665  0.1488
73889SOL    HW133392  12.560   1.857   1.353  0.0139 -1.4461 -0.1941
73889SOL    HW233393  12.699   1.906   1.319 -0.1460 -0.4883  0.5010
73890SOL     OW33394   2.553   3.467   6.970 -0.1323 -0.1807 -0.1726
73890SOL    HW133395   2.490   3.443   6.902  0.9437 -0.5768 -1.0543
73890SOL    HW233396   2.634   3.424   6.944  0.3315 -0.2678  1.3298
73891SOL     OW33397   9.706   2.675   4.748 -0.1562  0.3013 -0.8763
73891SOL    HW133398   9.728   2.592   4.706  0.3405  1.0417 -2.1074
73891SOL    HW233399   9.760   2.740   4.704  1.9438  0.8755  2.2538
73892SOL     OW33400   9.437   7.757  12.863 -0.3255  0.0635  0.7635
73892SOL    HW133401   9.414   7.739  12.772  0.8079  0.3527  0.4054
73892SOL    HW233402   9.358   7.736  12.913 -0.7321 -0.7696 -0.2107
73893SOL     OW33403   0.336   7.726  13.290 -0.1497  0.1930 -0.3054
73893SOL    HW133404   0.426   7.751  13.266 -0.9028  3.1148 -0.4157
73893SOL    HW233405   0.301   7.685  13.210  0.4373  0.9695 -0.9874
73894SOL     OW33406   3.675   9.822   6.938 -0.0680  0.4442  0.4941
73894SOL    HW133407   3.729   9.875   6.996  0.6282 -1.1989  1.4000
73894SOL    HW233408   3.666   9.738   6.983 -4.2679  0.9052  0.9079
73895SOL     OW33409  13.046   7.483  10.847 -0.1243 -0.0189 -0.1770
73895SOL    HW133410  13.056   7.445  10.760  0.5242 -3.3484  1.2117
73895SOL    HW233411  13.135   7.507  10.873 -0.5360  3.0008 -1.1148
73896SOL     OW33412   7.320  13.323   8.195  0.2060  0.0117 -0.3247
73896SOL    HW133413   7.294  13.396   8.250  1.2633 -1.2295  1.9435
73896SOL    HW233414   7.361  13.364   8.119 -0.8866  1.7679 -0.0209
73897SOL     OW33415   5.627   1.054  11.430 -0.6440 -0.4873 -0.1940
73897SOL    HW133416   5.668   1.091  11.351  2.2830  1.4364  2.0003
73897SOL    HW233417   5.560   1.118  11.455  1.7196  1.5791  1.3856
73898SOL     OW33418   7.038   5.893  12.368 -0.0175 -0.3095 -0.0577
73898SOL    HW133419   7.047   5.941  12.451 -1.0822  0.7346 -0.5132
73898SOL    HW233420   7.024   5.802  12.395 -0.9158  0.0972  0.9457
73899SOL     OW33421  11.497   9.158   5.901 -0.3325 -0.8110  0.5088
73899SOL    HW133422  11.486   9.249   5.872  1.1553 -0.7434  0.0957
73899SOL    HW233423  11.510   9.108   5.820 -0.2720 -1.2661  0.7970
73900SOL     OW33424   7.918   6.704   1.360  0.3111  0.6119  0.5124
73900SOL    HW133425   7.901   6.612   1.343 -0.5924  1.0788 -1.3739
73900SOL    HW233426   7.931   6.742   1.273 -3.6008  3.0323  0.7288
73901SOL     OW33427  10.684   5.608   7.261  0.6723  0.0607  0.0487
73901SOL    HW133428  10.589   5.609   7.272  0.5787 -1.3409 -0.4226
73901SOL    HW233429  10.706   5.696   7.229 -0.5385  0.1966 -0.4498
73902SOL     OW33430   6.209  12.306  13.348  0.4577 -0.4957  0.1224
73902SOL    HW133431   6.237  12.247  13.418 -1.0584 -0.0061  1.1876
73902SOL    HW233432   6.219  12.254  13.268  0.0309 -1.9050  0.9406
73903SOL     OW33433   5.006   1.564  10.892  0.4217 -0.3241 -0.2803
73903SOL    HW133434   4.992   1.631  10.959 -0.7668  0.1176 -0.9396
73903SOL    HW233435   5.088   1.522  10.916 -0.4087 -0.7947  1.9978
73904SOL     OW33436   7.671   2.290   7.602  0.2043  0.0690 -0.3956
73904SOL    HW133437   7.676   2.379   7.637  0.5657 -0.8346  2.0213
73904SOL    HW233438   7.737   2.241   7.650 -1.7549 -2.1093  0.3028
73905SOL     OW33439   2.177   9.832   5.388  0.4354 -0.0200 -0.2851
73905SOL    HW133440   2.098   9.785   5.362 -0.5346  0.5500  1.4810
73905SOL    HW233441   2.180   9.908   5.329 -1.0825  0.6430  0.4411
73906SOL     OW33442   1.198   6.602   7.550 -0.1417 -0.3405  0.2330
73906SOL    HW133443   1.220   6.509   7.542  0.0307 -0.2396 -0.5132
73906SOL    HW233444   1.280   6.644   7.575 -0.4856 -0.5363  1.8340
73907SOL     OW33445   6.020   1.261  13.584  0.1664  0.3268  0.5423
73907SOL    HW133446   5.985   1.310  13.509  0.8086  0.9525  0.6386
73907SOL    HW233447   5.951   1.265  13.650 -0.2166  0.1774  0.1550
73908SOL     OW33448  10.173  12.793  10.530 -0.2641  0.0220  0.3320
73908SOL    HW133449  10.223  12.811  10.451 -1.9893 -0.5048 -0.9383
73908SOL    HW233450  10.087  12.832  10.513 -1.4589 -2.2122  0.8901
73909SOL     OW33451   1.360  11.028  13.067 -0.2621  0.8762 -0.5518
73909SOL    HW133452   1.281  11.062  13.109 -0.9371 -0.3195 -0.7815
73909SOL    HW233453   1.352  10.933  13.076  2.1303  0.7661  1.1439
73910SOL     OW33454   8.218  13.073   5.804 -0.0857 -0.0898  0.3307
73910SOL    HW133455   8.238  13.082   5.710  0.5985  1.6792  0.6042
73910SOL    HW233456   8.148  13.136   5.819  0.0057 -0.1595  1.0537
73911SOL     OW33457  13.508   2.064  12.694 -0.7013  0.9099  0.4399
73911SOL    HW133458  13.595   2.055  12.733 -0.2750 -0.5653 -0.7586
73911SOL    HW233459  13.476   2.149  12.725  0.9368  1.2368  1.3247
73912SOL     OW33460   3.132   2.220   9.097 -0.0551 -0.1454  0.1438
73912SOL    HW133461   3.199   2.209   9.030 -0.6564 -0.0664 -0.4769
73912SOL    HW233462   3.177   2.267   9.168  0.8654 -1.1342  0.2477
73913SOL     OW33463  12.549   4.123   4.365 -0.3278  0.2331 -0.8972
73913SOL    HW133464  12.602   4.046   4.343  0.1393  0.4938 -0.6976
73913SOL    HW233465  12.470   4.087   4.406  0.3331 -0.1002  0.1041
73914SOL     OW33466  12.030   9.960  12.139  0.5985  0.5749 -1.0013
73914SOL    HW133467  11.946   9.949  12.095  0.8029  2.0706 -1.8239
73914SOL    HW233468  12.072  10.032  12.092  1.2088  1.6367  1.0922
73915SOL     OW33469   9.476   4.456   9.941 -0.2208  0.5683 -0.0229
73915SOL    HW133470   9.431   4.438  10.024 -1.1656  0.9226 -0.4498
73915SOL    HW233471   9.496   4.370   9.905  0.5344  0.4061  0.7406
73916SOL     OW33472   6.511   0.099  12.264 -0.0331  0.4523 -0.5142
73916SOL    HW133473   6.591   0.055  12.233  0.2266  0.4203  0.1796
73916SOL    HW233474   6.514   0.185  12.223  0.1533  0.3106 -0.8056
73917SOL     OW33475  10.997   4.023   0.630  0.0564 -0.0403  0.0185
73917SOL    HW133476  10.998   4.102   0.575  0.3079  0.4671  0.7365
73917SOL    HW233477  11.046   3.958   0.579  1.7346  0.9154  0.3368
73918SOL     OW33478  10.517   9.902   8.779  0.2862  0.2817  0.6012
73918SOL    HW133479  10.504   9.814   8.745 -0.1284  1.0161 -1.2810
73918SOL    HW233480  10.432   9.926   8.818  0.5161 -0.2627  1.4681
73919SOL     OW33481   2.709   8.488  13.200 -0.2123 -0.8728 -0.3627
73919SOL    HW133482   2.800   8.459  13.189 -0.4504 -1.0840 -2.1226
73919SOL    HW233483   2.704   8.517  13.291  1.4293 -1.5012 -0.0315
73920SOL     OW33484   7.521   9.113   6.021 -0.0809 -0.1742  0.1519
73920SOL    HW133485   7.499   9.074   5.937 -0.7441  3.4753 -1.5383
73920SOL    HW233486   7.598   9.167   6.002 -0.1342  0.5850  1.9623
73921SOL     OW33487   8.644  12.879   4.108  0.1483  0.0686 -0.4283
73921SOL    HW133488   8.706  12.946   4.081  0.3402 -0.0743 -0.3459
73921SOL    HW233489   8.668  12.802   4.056 -0.8683  0.4175 -1.4570
73922SOL     OW33490  12.377  10.462   5.804  0.2745  0.0780 -0.0695
73922SOL    HW133491  12.325  10.444   5.882  1.0098  0.9028  0.6279
73922SOL    HW233492  12.313  10.483   5.737 -0.3492 -0.2623  0.4118
73923SOL     OW33493   3.981   4.151   1.420 -0.0156  0.1214  0.5130
73923SOL    HW133494   4.021   4.236   1.400  0.8777 -0.8025 -2.1091
73923SOL    HW233495   4.054   4.095   1.444 -0.2979 -0.4392  0.0853
73924SOL     OW33496   4.668  11.974   5.546  0.3380  0.3293  0.1947
73924SOL    HW133497   4.762  11.959   5.557  0.0070 -2.4543 -0.1014
73924SOL    HW233498   4.645  11.925   5.467 -1.3369  1.1352  0.1429
73925SOL     OW33499   4.469   6.738  11.188  0.5546  0.0167  0.7926
73925SOL    HW133500   4.375   6.753  11.195  0.3122  0.5221 -2.1800
73925SOL    HW233501   4.478   6.669  11.123  2.2136  2.3578 -1.7278
73926SOL     OW33502   9.458   6.535   1.966 -0.0399  0.3932 -0.4506
73926SOL    HW133503   9.404   6.549   1.888 -1.5510 -1.3268  0.2100
73926SOL    HW233504   9.405   6.571   2.038 -0.7018 -1.9478  0.3071
73927SOL     OW33505   5.081  11.971   1.855  0.1542  0.7611 -0.2922
73927SOL    HW133506   5.038  12.035   1.910  1.1592  2.2492 -1.1711
73927SOL    HW233507   5.121  11.909   1.917 -0.0707  1.4912  0.6030
73928SOL     OW33508  10.830   8.503   2.843  0.4523  0.0023 -0.3357
73928SOL    HW133509  10.856   8.411   2.838  1.4177  0.2101  0.6045
73928SOL    HW233510  10.905   8.552   2.810  0.6607  0.5389  0.8955
73929SOL     OW33511   5.672   1.350   2.189 -0.2548  0.2740 -0.0563
73929SOL    HW133512   5.588   1.392   2.170 -0.3908  0.0519  0.0471
73929SOL    HW233513   5.650   1.279   2.249 -0.1955 -0.6757 -1.1078
73930SOL     OW33514   3.768   5.331   7.472 -0.4678  0.2280 -0.3936
73930SOL    HW133515   3.798   5.396   7.409  2.1021 -1.5896 -1.2274
73930SOL    HW233516   3.728   5.262   7.418 -1.3871  0.1942  0.3025
73931SOL     OW33517   9.311   2.159   5.940 -0.1290  0.5798 -0.4994
73931SOL    HW133518   9.310   2.082   5.884 -1.1012 -1.3053  1.9202
73931SOL    HW233519   9.220   2.189   5.943 -0.4133 -0.3007  1.1787
73932SOL     OW33520  12.662   8.940   0.508  0.0201  0.5918  0.2426
73932SOL    HW133521  12.619   9.025   0.521 -1.8717 -0.1011 -0.9980
73932SOL    HW233522  12.681   8.937   0.414 -1.4574 -0.9604 -0.0655
73933SOL     OW33523   0.381   2.040  11.032 -0.1013 -0.1585  0.5264
73933SOL    HW133524   0.459   1.995  11.001 -0.1452 -0.2070  0.4860
73933SOL    HW233525   0.339   2.074  10.953 -0.0212  0.0296  0.5642
73934SOL     OW33526   3.815   6.328  10.281 -0.2309  0.1596  0.0571
73934SOL    HW133527   3.905   6.341  10.311 -0.1676 -1.7577  0.8453
73934SOL    HW233528   3.761   6.346  10.358 -0.2984 -1.5496  0.4367
73935SOL     OW33529  13.553   9.757   5.862 -0.7588  0.0026  0.4478
73935SOL    HW133530  13.591   9.843   5.878  0.3855 -0.5839  0.9944
73935SOL    HW233531  13.473   9.757   5.914 -0.5288  0.5673  0.8167
73936SOL     OW33532   3.243  10.729  13.243 -0.5238 -0.1728 -0.7072
73936SOL    HW133533   3.183  10.690  13.306  1.0591 -1.7709 -0.1044
73936SOL    HW233534   3.193  10.801  13.203 -1.2860  1.5292  2.9442
73937SOL     OW33535   3.988   0.466   2.182 -0.1046  0.1869 -0.5470
73937SOL    HW133536   4.017   0.375   2.179  0.5442  0.3859 -0.5044
73937SOL    HW233537   4.051   0.514   2.128 -0.2061  0.6667 -0.2538
73938SOL     OW33538  12.691  10.007   8.349  0.1733 -0.0557 -0.4017
73938SOL    HW133539  12.759  10.057   8.394 -0.2808 -0.1763  0.4412
73938SOL    HW233540  12.621  10.070   8.333  0.0419 -0.1706 -0.2886
73939SOL     OW33541   8.166  12.345   9.476 -0.0306 -0.4186  0.1240
73939SOL    HW133542   8.100  12.347   9.545 -0.6139 -0.3232 -0.4181
73939SOL    HW233543   8.212  12.263   9.488 -1.7643 -1.6123 -0.8472
73940SOL     OW33544  12.483   5.982  13.494  0.5011 -0.7110 -0.3696
73940SOL    HW133545  12.476   5.907  13.553  0.7939 -0.3225  0.1671
73940SOL    HW233546  12.393   6.007  13.477  0.3549  1.3689  2.7700
73941SOL     OW33547   3.419   1.149   3.216 -0.1036  0.5752 -0.3373
73941SOL    HW133548   3.377   1.180   3.136 -0.0798 -0.1434 -0.6266
73941SOL    HW233549   3.381   1.203   3.285  0.9661  2.2530 -0.9878
73942SOL     OW33550  11.818   2.239   7.310 -0.2534 -0.0138  0.4021
73942SOL    HW133551  11.775   2.324   7.310 -0.9985 -0.3431 -1.9258
73942SOL    HW233552  11.776   2.191   7.382 -0.0258  1.4386  1.5498
73943SOL     OW33553  10.426   5.865  12.153 -0.6658 -0.3218 -0.0950
73943SOL    HW133554  10.381   5.817  12.222  0.7512  0.7697  1.6652
73943SOL    HW233555  10.443   5.799  12.085 -4.1456 -0.9366 -0.5514
73944SOL     OW33556   1.310   2.131   4.407  0.3378 -0.1033 -0.6046
73944SOL    HW133557   1.323   2.036   4.405 -0.3955 -0.2104 -0.6414
73944SOL    HW233558   1.359   2.160   4.484  2.8848 -0.1076 -2.1129
73945SOL     OW33559   5.342   4.963  12.767 -0.1103  0.0180  0.2992
73945SOL    HW133560   5.298   4.979  12.851  1.6486 -1.9710  1.6993
73945SOL    HW233561   5.344   4.868  12.759  0.1425  0.1666 -1.8252
73946SOL     OW33562   5.867   0.159  10.549  0.6030 -0.4183  0.1377
73946SOL    HW133563   5.911   0.103  10.485 -0.6857 -0.6770 -0.5697
73946SOL    HW233564   5.774   0.139  10.537  0.1100  1.7330  0.0230
73947SOL     OW33565  11.895   9.820   0.567 -0.3236 -0.1620 -0.1360
73947SOL    HW133566  11.852   9.866   0.495 -0.6296 -0.8088 -0.3770
73947SOL    HW233567  11.986   9.851   0.564 -0.8652  1.5729  0.6870
73948SOL     OW33568   7.973  13.586   7.882 -0.0450 -0.1094 -0.2243
73948SOL    HW133569   7.928  13.601   7.965  0.8266  1.8968 -0.0586
73948SOL    HW233570   8.055  13.634   7.891 -0.5849  1.4511 -2.8020
73949SOL     OW33571  12.923   8.819   8.988 -0.7220  0.8801 -0.0417
73949SOL    HW133572  12.952   8.887   8.927 -0.6770 -0.5171 -1.6364
73949SOL    HW233573  12.956   8.738   8.951 -2.0640 -0.1953  1.0116
73950SOL     OW33574   3.625   4.811   3.524 -0.2062 -0.1268 -0.0456
73950SOL    HW133575   3.531   4.812   3.542 -0.1462  1.5197  0.3602
73950SOL    HW233576   3.654   4.725   3.554 -1.3954 -0.2579  0.8292
73951SOL     OW33577   0.287   6.999   1.530  0.2270 -0.3746 -0.2922
73951SOL    HW133578   0.295   6.984   1.624  2.5803  1.5231 -0.0824
73951SOL    HW233579   0.196   6.981   1.510 -0.7702  0.7812  2.6664
73952SOL     OW33580   0.996   1.587  13.055  0.4588  0.5802  0.7136
73952SOL    HW133581   1.054   1.653  13.018  0.5733  0.2858  0.3615
73952SOL    HW233582   0.939   1.561  12.983  0.2285  0.4961  0.9216
73953SOL     OW33583   1.682   7.494   9.415  0.0915 -0.0375 -0.5108
73953SOL    HW133584   1.750   7.518   9.477  0.5623  0.2406 -1.1259
73953SOL    HW233585   1.702   7.403   9.392 -2.6611 -1.8195  3.1078
73954SOL     OW33586   1.431   3.507   4.778 -0.0174 -0.1799 -0.1699
73954SOL    HW133587   1.406   3.588   4.824 -1.4862 -1.2683  1.0645
73954SOL    HW233588   1.469   3.452   4.846 -1.9728 -1.7235 -0.2331
73955SOL     OW33589  13.440   1.120  12.775  0.8044  0.0420  0.0795
73955SOL    HW133590  13.475   1.206  12.750  1.7561 -0.2912  0.2135
73955SOL    HW233591  13.465   1.110  12.867  0.3237 -0.2019  0.1865
73956SOL     OW33592   6.646  13.571  10.273 -0.4404  0.0749  0.4583
73956SOL    HW133593   6.562  13.556  10.318  0.2118 -1.0056  1.3766
73956SOL    HW233594   6.674  13.658  10.302 -0.5220 -0.1874  1.3720
73957SOL     OW33595   2.039   9.323   4.272  0.4984  0.2437 -0.0884
73957SOL    HW133596   1.965   9.366   4.315  0.0680 -1.6384  1.1815
73957SOL    HW233597   2.114   9.342   4.327  0.4985  0.2075 -0.0754
73958SOL     OW33598   8.255   2.233   5.643 -0.4326  0.6926  0.3902
73958SOL    HW133599   8.327   2.209   5.585 -1.7437  0.5307 -1.2414
73958SOL    HW233600   8.285   2.207   5.730  1.3299  0.3364 -0.2849
73959SOL     OW33601   3.235   4.832  11.196 -0.1646 -0.5314  0.0924
73959SOL    HW133602   3.203   4.850  11.284 -2.1220  0.4979 -0.7599
73959SOL    HW233603   3.213   4.740  11.181 -2.0059 -0.1009 -0.1171
73960SOL     OW33604   7.416  11.291   8.759 -0.0105 -0.1570  0.5472
73960SOL    HW133605   7.321  11.293   8.773 -0.0409  2.2329  0.3829
73960SOL    HW233606   7.428  11.327   8.671  1.0431 -0.8731  0.3813
73961SOL     OW33607  13.651   3.622   7.014  0.3783 -0.1650 -0.2620
73961SOL    HW133608  13.600   3.664   6.945 -3.1116  0.2320  2.3287
73961SOL    HW233609  13.663   3.691   7.080 -0.1694 -1.5819  1.3923
73962SOL     OW33610   5.383  10.113   8.776  0.4533  0.2362 -0.3558
73962SOL    HW133611   5.440  10.037   8.786  0.7696  0.6794  1.7621
73962SOL    HW233612   5.359  10.137   8.866 -2.5724  0.4726 -1.1346
73963SOL     OW33613   7.962   9.159  11.081  0.1271 -0.5652 -0.0927
73963SOL    HW133614   7.941   9.089  11.019  0.6943  0.1073 -1.0798
73963SOL    HW233615   8.055   9.178  11.065 -0.3231  1.2608 -0.7599
73964SOL     OW33616   3.219   5.789   0.107  0.1326 -0.4818  0.5554
73964SOL    HW133617   3.155   5.849   0.147  0.8806  1.6980 -1.3468
73964SOL    HW233618   3.256   5.741   0.182 -2.5461 -0.7045  1.8598
73965SOL     OW33619   9.416   8.718   7.942  0.3338 -0.0502 -0.0508
73965SOL    HW133620   9.436   8.721   7.848  1.5446  1.1256  0.2010
73965SOL    HW233621   9.412   8.811   7.967 -1.9855 -0.2962  0.6884
73966SOL     OW33622  10.796   1.914  12.869  0.0299 -0.0692  0.2843
73966SOL    HW133623  10.858   1.841  12.868 -0.5949 -0.6682  1.7238
73966SOL    HW233624  10.712   1.873  12.890 -0.3456  1.0457  1.0222
73967SOL     OW33625  13.709  10.868  12.962 -0.6530 -0.1430  0.3105
73967SOL    HW133626  13.666  10.786  12.940  2.4648 -1.9938  0.5344
73967SOL    HW233627  13.786  10.870  12.905  2.1107  0.0039  3.7264
73968SOL     OW33628   7.875   4.101   0.006  0.4574 -0.1122  0.6492
73968SOL    HW133629   7.911   4.029   0.056  2.8440  1.1371  0.9100
73968SOL    HW233630   7.930   4.105  -0.073 -1.1937 -0.0668 -0.5631
73969SOL     OW33631   4.410  10.758   5.088 -0.2383 -0.0062  0.3726
73969SOL    HW133632   4.359  10.804   5.022 -0.9486  1.8327  2.0935
73969SOL    HW233633   4.345  10.705   5.135  0.1384 -0.7227  0.1070
73970SOL     OW33634   6.336   1.328   8.198 -0.2287  0.0157 -0.0951
73970SOL    HW133635   6.293   1.349   8.281 -0.2124  0.9074 -0.3027
73970SOL    HW233636   6.293   1.248   8.168  1.4497 -1.8207  2.0098
73971SOL     OW33637   9.201   7.060  10.636  0.0411  0.1827 -0.2343
73971SOL    HW133638   9.225   6.967  10.639 -1.3637 -0.1930  1.3471
73971SOL    HW233639   9.222   7.093  10.723 -1.2792  0.8294 -0.1347
73972SOL     OW33640  10.925   8.893   3.481  0.9536  0.2642  0.1672
73972SOL    HW133641  11.011   8.868   3.513  0.5532 -0.9896  0.3201
73972SOL    HW233642  10.928   8.878   3.386  1.1568  1.0247  0.0444
73973SOL     OW33643   1.733   1.176   5.058  0.3790 -0.6993 -0.3869
73973SOL    HW133644   1.823   1.172   5.090 -0.0551  1.2167  1.2963
73973SOL    HW233645   1.739   1.153   4.965  2.0228 -4.2247  0.4501
73974SOL     OW33646   2.341   8.268  13.336  0.2035  0.1108 -0.0953
73974SOL    HW133647   2.416   8.231  13.288  0.6064  0.6433  0.1205
73974SOL    HW233648   2.292   8.191  13.367  1.9352 -0.2940  1.7938
73975SOL     OW33649   1.422  12.479  10.649  0.1041  0.5662 -0.0029
73975SOL    HW133650   1.408  12.415  10.719  1.2865 -1.5855 -1.6078
73975SOL    HW233651   1.472  12.550  10.690  1.2871 -0.9198  1.2199
73976SOL     OW33652  10.980   5.585   4.462  0.3397  0.1564 -0.1971
73976SOL    HW133653  11.046   5.647   4.493  0.5107  0.0081 -0.2631
73976SOL    HW233654  11.027   5.502   4.454  0.1973  0.0996 -0.4553
73977SOL     OW33655   0.322   4.312  11.849  0.1084 -0.2912  0.6287
73977SOL    HW133656   0.285   4.224  11.860 -0.0662 -0.1466  1.2216
73977SOL    HW233657   0.245   4.368  11.835  0.1581 -0.1193  1.0257
73978SOL     OW33658   7.296   8.336  10.124  0.1776  0.4018  0.1560
73978SOL    HW133659   7.263   8.423  10.150  0.4051  0.8458 -0.9983
73978SOL    HW233660   7.388   8.351  10.103 -0.1287  0.2047 -1.4667
73979SOL     OW33661   6.119   5.050   1.801  0.0767 -0.6576 -0.1946
73979SOL    HW133662   6.179   4.992   1.754  2.5790  0.6109  1.2434
73979SOL    HW233663   6.086   4.996   1.873 -1.6635 -1.7602 -1.7059
73980SOL     OW33664   6.306  10.585   7.164 -0.1949 -0.3397 -0.3841
73980SOL    HW133665   6.215  10.606   7.144 -0.6436 -1.1123  0.7734
73980SOL    HW233666   6.322  10.503   7.117  0.3381  0.4440 -1.6489
73981SOL     OW33667   4.621   7.764  12.382  0.1344 -0.3047  0.6332
73981SOL    HW133668   4.642   7.854  12.408 -2.5882  0.9233 -0.9073
73981SOL    HW233669   4.568   7.730  12.454 -1.2718  0.4429 -0.0074
73982SOL     OW33670   2.358   3.285   8.847 -0.0354 -0.1291 -0.3667
73982SOL    HW133671   2.405   3.366   8.869 -0.0885 -0.4534  1.0341
73982SOL    HW233672   2.348   3.289   8.752  0.6670  1.1242 -0.4204
73983SOL     OW33673  10.022   7.626   7.465 -0.9863  0.1230 -0.1304
73983SOL    HW133674  10.041   7.557   7.402  3.4469  1.1270 -0.2393
73983SOL    HW233675  10.020   7.706   7.413  0.1777  0.6859  0.6493
73984SOL     OW33676   0.573   7.065  11.100 -0.0349  0.6803 -1.0432
73984SOL    HW133677   0.542   7.142  11.052 -0.4248  0.0018 -1.9122
73984SOL    HW233678   0.591   7.098  11.188 -0.7737  1.6346 -1.2215
73985SOL     OW33679   9.856  10.664   4.735  0.2052 -0.7346  0.0152
73985SOL    HW133680   9.791  10.733   4.746  1.4034  0.4101  0.1044
73985SOL    HW233681   9.813  10.600   4.678 -0.1264  1.2136 -2.0844
73986SOL     OW33682  11.403   5.944   3.870 -0.5536  0.1314 -0.0138
73986SOL    HW133683  11.380   6.034   3.845 -0.4710 -0.1129 -0.9972
73986SOL    HW233684  11.342   5.889   3.821  1.2525 -0.4771 -1.7114
73987SOL     OW33685   6.801   2.243  12.900  0.2296 -0.6427 -0.4084
73987SOL    HW133686   6.834   2.319  12.947 -0.3254 -1.4913  1.4222
73987SOL    HW233687   6.785   2.275  12.811  0.9740  1.0958  0.0553
73988SOL     OW33688   9.620   9.521  13.025 -0.0531 -0.1587  0.0885
73988SOL    HW133689   9.615   9.473  12.942 -1.3016  0.4143 -0.1989
73988SOL    HW233690   9.710   9.510  13.054  0.9103  1.0589 -2.2152
73989SOL     OW33691   9.006  13.008   3.197 -0.2352  0.8095 -0.3450
73989SOL    HW133692   9.043  12.950   3.130  1.1594  1.7679 -0.4562
73989SOL    HW233693   9.006  13.095   3.156 -0.2227  1.2554  0.5778
73990SOL     OW33694  10.916   3.015   5.642 -0.1900  0.2503 -0.5823
73990SOL    HW133695  10.960   3.036   5.560 -0.0002 -0.3078 -0.6283
73990SOL    HW233696  10.982   3.029   5.709 -0.1224  0.0118 -0.5956
73991SOL     OW33697   9.884   1.841   3.108 -0.2190 -0.0856  0.0634
73991SOL    HW133698   9.834   1.919   3.084  0.2317  0.2156  0.0989
73991SOL    HW233699   9.820   1.785   3.153 -0.0474  1.2330  2.1123
73992SOL     OW33700   9.002  10.768  11.903 -0.0596  0.4615 -0.2418
73992SOL    HW133701   8.990  10.863  11.898 -1.2202  0.4271  1.1024
73992SOL    HW233702   9.043  10.754  11.988  1.0827 -0.1883 -0.8786
73993SOL     OW33703   7.595   8.937   5.199  0.2080 -0.4726 -0.0173
73993SOL    HW133704   7.623   8.895   5.280 -0.3477 -1.5879 -0.3912
73993SOL    HW233705   7.504   8.962   5.215 -0.1583 -1.4125 -0.5602
73994SOL     OW33706  13.716  12.925   8.514 -0.2203  0.2414 -0.1938
73994SOL    HW133707  13.652  12.856   8.496 -0.0549  0.3882 -1.4656
73994SOL    HW233708  13.672  12.983   8.576 -1.3895  0.3945 -1.1084
73995SOL     OW33709   3.051   2.828   4.257 -0.1568 -0.7467  0.7464
73995SOL    HW133710   3.116   2.757   4.259 -1.3914 -2.0992 -1.9123
73995SOL    HW233711   3.014   2.824   4.169 -1.0602  2.5740  0.8273
73996SOL     OW33712  13.257   2.485   2.127 -0.0174 -0.1991 -0.0928
73996SOL    HW133713  13.251   2.575   2.160 -0.5040  0.1515 -1.0876
73996SOL    HW233714  13.317   2.491   2.053  0.9885 -0.9504  0.6437
73997SOL     OW33715   0.197   5.422   6.915 -0.2033 -0.0253 -0.2668
73997SOL    HW133716   0.269   5.390   6.969 -0.8832  0.1095  0.7644
73997SOL    HW233717   0.119   5.407   6.969 -0.8950  0.2559 -1.1661
73998SOL     OW33718  12.593   5.750  11.833 -0.3818  0.0579 -0.5146
73998SOL    HW133719  12.536   5.673  11.832 -2.7992  1.6945  0.3219
73998SOL    HW233720  12.582   5.786  11.921  2.4050  0.2246 -0.1622
73999SOL     OW33721  12.147   3.729   6.904 -0.2054 -0.0345 -0.1828
73999SOL    HW133722  12.128   3.769   6.989 -0.1236 -1.6712  0.6469
73999SOL    HW233723  12.238   3.701   6.912 -0.4489 -0.9361 -0.4922
74000SOL     OW33724   8.461   2.440  12.067 -0.3402  0.0191 -0.6810
74000SOL    HW133725   8.489   2.398  12.148  0.0928  1.0527 -0.2849
74000SOL    HW233726   8.496   2.529  12.072 -1.1287  0.3961 -1.5655
74001SOL     OW33727   3.285   3.705  12.534  0.2688  0.6833 -0.2816
74001SOL    HW133728   3.269   3.679  12.625  0.4250 -2.3007 -0.9919
74001SOL    HW233729   3.229   3.782  12.521 -2.5202 -0.8953  1.3390
74002SOL     OW33730   3.739   7.595  10.754 -0.2515  0.3151 -0.0429
74002SOL    HW133731   3.776   7.565  10.837  0.3465  1.4771  0.1334
74002SOL    HW233732   3.767   7.529  10.690  1.8806  0.9671  0.1519
74003SOL     OW33733   9.585   9.192   0.072  0.6837  0.0748 -0.6405
74003SOL    HW133734   9.594   9.103   0.106 -1.1445  0.3360  0.6155
74003SOL    HW233735   9.673   9.229   0.081  0.9221 -0.8016  1.2150
74004SOL     OW33736  11.173   6.958  12.751  0.0695  0.0560 -0.3741
74004SOL    HW133737  11.110   6.888  12.768  0.8946 -0.9432 -1.2607
74004SOL    HW233738  11.120   7.033  12.725 -0.8736 -0.0101  1.2667
74005SOL     OW33739   7.501   0.611   9.509 -0.3791 -0.4365  0.3579
74005SOL    HW133740   7.569   0.631   9.444 -2.4202  3.5223 -0.8869
74005SOL    HW233741   7.538   0.642   9.592  0.1571 -0.3732  0.1049
74006SOL     OW33742   6.702   3.879   1.689 -0.3588 -0.2640 -0.8341
74006SOL    HW133743   6.662   3.932   1.758 -0.0492 -0.3701 -0.5731
74006SOL    HW233744   6.666   3.791   1.703 -1.1223 -0.0699 -1.4622
74007SOL     OW33745   2.672   6.578  13.507  0.2452  0.0972 -0.0815
74007SOL    HW133746   2.738   6.647  13.518 -0.3676  1.0132 -1.7359
74007SOL    HW233747   2.648   6.553  13.596  0.2406  2.2773  0.5842
74008SOL     OW33748  12.099  10.264   0.123 -0.1597 -0.0698  0.3259
74008SOL    HW133749  12.054  10.215   0.055  0.3207  0.5673 -0.4734
74008SOL    HW233750  12.033  10.277   0.191 -0.4326 -1.3714  0.3386
74009SOL     OW33751  12.329   8.205   8.720 -0.1072  1.0275  0.0091
74009SOL    HW133752  12.286   8.249   8.646 -1.2651  3.1612  1.8394
74009SOL    HW233753  12.265   8.209   8.790  0.9692 -0.9373  1.1681
74010SOL     OW33754   9.017   6.015  10.027 -0.1240 -0.1003  0.6800
74010SOL    HW133755   9.064   6.068   9.963 -0.1548 -1.0589 -0.1649
74010SOL    HW233756   8.934   6.060  10.041 -0.5479 -0.3947 -0.7411
74011SOL     OW33757  13.304   1.696   7.626 -0.3198  0.3077 -0.4060
74011SOL    HW133758  13.343   1.770   7.673  0.0984 -1.0524  1.5078
74011SOL    HW233759  13.342   1.701   7.538  0.0191  2.0927 -0.1926
74012SOL     OW33760   3.895   0.959   6.506  0.0226 -0.1878  0.0695
74012SOL    HW133761   3.818   0.905   6.485 -1.2686  1.6492 -0.1763
74012SOL    HW233762   3.915   0.938   6.597 -1.5870  0.2023  0.5485
74013SOL     OW33763   6.602   8.381   9.288 -0.4000  0.4568 -0.3662
74013SOL    HW133764   6.550   8.359   9.211 -2.3112  2.4436  0.2387
74013SOL    HW233765   6.538   8.391   9.359  0.9754  1.3431  0.8268
74014SOL     OW33766   5.250   6.176  10.101 -0.2681  0.0183 -0.2113
74014SOL    HW133767   5.289   6.261  10.081  0.0771 -0.4040 -1.3934
74014SOL    HW233768   5.175   6.170  10.042 -0.8990 -0.0694  0.5857
74015SOL     OW33769  11.471   4.706   9.796  0.1870  0.1613 -0.5307
74015SOL    HW133770  11.514   4.740   9.718  0.5950 -1.3891 -1.0152
74015SOL    HW233771  11.543   4.678   9.853 -0.0229 -3.0865 -1.6332
74016SOL     OW33772   8.203   0.349   8.350  0.2740 -0.0206 -0.1130
74016SOL    HW133773   8.276   0.411   8.351  0.7777 -0.5445  1.8910
74016SOL    HW233774   8.216   0.298   8.270  2.4572 -0.4328  0.4219
74017SOL     OW33775   1.577   4.583  11.943  0.1702  0.3374 -0.0072
74017SOL    HW133776   1.575   4.489  11.963  1.8919 -0.0136 -1.2542
74017SOL    HW233777   1.485   4.607  11.934 -0.2840 -1.5143 -0.8430
74018SOL     OW33778   3.427   0.422   8.632 -0.2847  0.3890  0.2752
74018SOL    HW133779   3.522   0.427   8.648 -0.1164  1.1830 -0.8857
74018SOL    HW233780   3.409   0.493   8.571 -1.5354 -0.1539 -0.0177
74019SOL     OW33781   1.227   1.943   8.906 -0.0014 -0.5727 -0.4445
74019SOL    HW133782   1.315   1.978   8.892 -0.5555  0.8743 -0.3945
74019SOL    HW233783   1.183   1.953   8.822 -1.0982  1.6732  0.3096
74020SOL     OW33784   6.912   3.774  11.058  0.4018 -0.2783  0.0643
74020SOL    HW133785   6.982   3.736  11.113  0.0662 -0.3007  0.4829
74020SOL    HW233786   6.899   3.862  11.094 -0.2784 -0.5310  0.4527
74021SOL     OW33787   3.558   5.278   8.608  0.0618 -0.4214  0.6230
74021SOL    HW133788   3.546   5.347   8.543 -0.0966  2.1226  3.1476
74021SOL    HW233789   3.479   5.225   8.603 -0.7576  0.8207 -0.0249
74022SOL     OW33790   0.036   2.269   6.132  0.4037 -0.0680 -0.3524
74022SOL    HW133791  -0.017   2.284   6.210 -1.9097 -0.4467 -1.7416
74022SOL    HW233792   0.110   2.329   6.140  0.0139  0.1789  1.9015
74023SOL     OW33793  13.395  10.635   9.806 -0.6106 -0.2827 -0.8842
74023SOL    HW133794  13.375  10.721   9.771 -1.1833  0.4084  0.9975
74023SOL    HW233795  13.467  10.650   9.867 -1.5658 -0.8435  0.4554
74024SOL     OW33796  13.056   2.098   4.462 -0.5133  0.1929 -0.3075
74024SOL    HW133797  12.970   2.101   4.506 -0.9274  0.4914 -1.1192
74024SOL    HW233798  13.061   2.181   4.415  0.3946  0.3406  0.0287
74025SOL     OW33799   5.802   7.388   8.804 -0.1670 -0.5854  0.0091
74025SOL    HW133800   5.795   7.389   8.708 -2.6232  1.8732  0.0845
74025SOL    HW233801   5.740   7.322   8.833 -3.0001  1.7955 -0.1212
74026SOL     OW33802   6.114  11.454  11.800  0.9805 -0.1251  0.0564
74026SOL    HW133803   6.111  11.529  11.740  2.5318 -0.5819 -0.6662
74026SOL    HW233804   6.054  11.391  11.761 -2.0388  1.4376  1.8218
74027SOL     OW33805   9.646   7.294   6.304 -0.6042 -0.0017  0.0611
74027SOL    HW133806   9.571   7.276   6.360 -1.3907  0.8140 -0.6948
74027SOL    HW233807   9.607   7.310   6.218  0.4172  0.7739 -0.2627
74028SOL     OW33808   4.730   0.825   9.985 -0.0620  0.3482 -0.4653
74028SOL    HW133809   4.646   0.841   9.943 -0.5383  0.9234  0.6899
74028SOL    HW233810   4.708   0.792  10.072  0.9179 -0.6279 -0.5612
74029SOL     OW33811   5.682   2.834   7.116  0.0511  0.0690 -0.9405
74029SOL    HW133812   5.603   2.877   7.151 -0.4207 -1.9089  0.5752
74029SOL    HW233813   5.733   2.810   7.193  1.3698 -0.1511 -1.8477
74030SOL     OW33814  12.420  10.718   9.781  0.7385  0.1413 -0.7525
74030SOL    HW133815  12.372  10.663   9.719  0.5448  0.4744 -0.9059
74030SOL    HW233816  12.398  10.808   9.754  0.4490  0.2893 -0.0454
74031SOL     OW33817   8.848   2.322   0.101 -0.1055 -0.1206  0.4040
74031SOL    HW133818   8.788   2.389   0.067 -0.6795 -1.1703 -0.7431
74031SOL    HW233819   8.935   2.359   0.086 -0.4079  0.3344 -0.3273
74032SOL     OW33820  11.364   7.478   3.425 -0.8053 -0.4930 -0.0345
74032SOL    HW133821  11.304   7.551   3.437  1.3701  1.5683 -0.8203
74032SOL    HW233822  11.365   7.461   3.331  0.2025 -0.1186 -0.1078
74033SOL     OW33823   1.381  13.414   4.077 -1.0367 -0.0416  0.3638
74033SOL    HW133824   1.332  13.482   4.031 -0.5743  0.8095  1.1128
74033SOL    HW233825   1.423  13.364   4.007 -0.8008  0.8814 -0.1711
74034SOL     OW33826   7.110   8.327   7.500  0.5985 -0.5673  1.1590
74034SOL    HW133827   7.033   8.277   7.471  1.2036 -1.3139  0.8140
74034SOL    HW233828   7.182   8.265   7.495  1.5439  0.5883 -0.1279
74035SOL     OW33829  11.824  12.368  12.767  0.2126  0.6047  0.7173
74035SOL    HW133830  11.836  12.286  12.813 -1.2876  1.4390  2.7539
74035SOL    HW233831  11.905  12.417  12.782  0.9104 -0.2671 -0.0899
74036SOL     OW33832  10.147   8.603   5.184 -0.1484 -0.4516  0.6417
74036SOL    HW133833  10.109   8.578   5.269  1.4198 -1.0075  1.2231
74036SOL    HW233834  10.146   8.522   5.133  0.7820 -0.6326  0.8902
74037SOL     OW33835  13.435   0.981   3.219  0.1281 -0.5280 -0.2677
74037SOL    HW133836  13.362   0.955   3.163 -1.2772  1.9808  0.2702
74037SOL    HW233837  13.394   1.024   3.294  2.1317  1.8314 -0.3960
74038SOL     OW33838  12.642  11.193  11.601  0.0697  0.3701 -0.2976
74038SOL    HW133839  12.642  11.219  11.693  1.9709  0.2639 -0.2379
74038SOL    HW233840  12.578  11.122  11.596  0.0678  0.2689  0.9618
74039SOL     OW33841   5.345   4.399   8.390 -0.3522  0.7446  0.0208
74039SOL    HW133842   5.254   4.376   8.372 -0.5163  0.1841  1.4012
74039SOL    HW233843   5.348   4.494   8.379 -0.5320  0.5305 -2.2638
74040SOL     OW33844   3.533  12.181   7.906  0.3612 -1.1015 -0.4181
74040SOL    HW133845   3.511  12.108   7.964 -0.9356 -1.1033 -0.8872
74040SOL    HW233846   3.589  12.237   7.959  0.8658 -2.1188  0.1615
74041SOL     OW33847  11.859   7.646   1.336  0.0512 -0.2734 -0.0826
74041SOL    HW133848  11.869   7.556   1.367 -0.5435 -0.6908 -1.0895
74041SOL    HW233849  11.785   7.644   1.276  0.5052  0.7376 -0.7121
74042SOL     OW33850   6.233   1.661  13.450 -0.4335  0.2802 -0.5786
74042SOL    HW133851   6.325   1.658  13.423  0.2490 -0.1948  1.5401
74042SOL    HW233852   6.206   1.569  13.450 -1.4838  0.5456 -2.8356
74043SOL     OW33853  13.207   7.031   6.402 -0.4316  0.0947  0.5426
74043SOL    HW133854  13.210   6.947   6.357  0.1986 -0.4147  1.5111
74043SOL    HW233855  13.146   7.017   6.475 -1.1734  0.8045  0.0762
74044SOL     OW33856  10.559   7.374   9.057 -0.3580 -0.0217 -0.1169
74044SOL    HW133857  10.581   7.423   9.136  1.3862  1.4949 -1.4348
74044SOL    HW233858  10.617   7.298   9.058 -0.7558 -0.3211  0.3379
74045SOL     OW33859   0.599   2.730   6.040 -0.1136  0.3613  0.1353
74045SOL    HW133860   0.558   2.678   5.971 -2.4486  0.3158  1.4504
74045SOL    HW233861   0.550   2.811   6.042 -0.8563 -0.0576  2.3972
74046SOL     OW33862  11.133   0.315   2.804  0.3930 -0.3095 -0.3301
74046SOL    HW133863  11.119   0.227   2.768 -0.9968 -0.3636  0.2840
74046SOL    HW233864  11.098   0.374   2.736 -1.3945 -0.3779  0.4700
74047SOL     OW33865   3.861  12.180   7.698  0.1819  0.5478  0.4896
74047SOL    HW133866   3.804  12.195   7.774 -0.8717  0.9417 -0.3402
74047SOL    HW233867   3.808  12.209   7.624  1.5063  0.9564 -0.3146
74048SOL     OW33868   9.801  11.758  10.650 -0.3187 -0.0789 -0.3605
74048SOL    HW133869   9.733  11.763  10.718  1.2359  1.3352  1.1893
74048SOL    HW233870   9.767  11.811  10.579 -1.0156  0.2996  0.2364
74049SOL     OW33871  10.716   2.108   5.871 -0.2999  0.4033  0.1834
74049SOL    HW133872  10.737   2.185   5.923  1.7719  0.3976 -0.5478
74049SOL    HW233873  10.713   2.036   5.934 -0.4417  0.7956  0.6265
74050SOL     OW33874  13.620  11.271   1.243  0.0723  0.1788  0.0776
74050SOL    HW133875  13.534  11.240   1.269 -0.1348  1.1712  0.6284
74050SOL    HW233876  13.608  11.364   1.224  1.2844  0.6554  1.4569
74051SOL     OW33877   3.199   0.730   9.024  0.2737 -0.7877 -0.1260
74051SOL    HW133878   3.225   0.779   8.946 -0.5437  0.4791  0.3747
74051SOL    HW233879   3.242   0.645   9.014  1.6015 -0.0340 -1.0811
74052SOL     OW33880   8.637   8.453   6.854 -0.5837 -0.2160  0.7020
74052SOL    HW133881   8.543   8.435   6.851 -1.0643  1.5520  2.8350
74052SOL    HW233882   8.676   8.371   6.885 -1.4718 -0.7909  0.3458
74053SOL     OW33883   3.681   1.520   2.488  0.3539 -0.1956 -0.1088
74053SOL    HW133884   3.649   1.455   2.426 -0.7079 -0.8224  1.0496
74053SOL    HW233885   3.776   1.506   2.492  0.6114  0.5486 -2.3181
74054SOL     OW33886   7.854   8.255  13.406  0.4375 -0.2806  0.5223
74054SOL    HW133887   7.900   8.282  13.326  0.2339  0.1225  0.5407
74054SOL    HW233888   7.883   8.317  13.472 -0.3197  0.1259  0.4768
74055SOL     OW33889   1.894   7.140   5.461  0.3613 -0.0746  0.3463
74055SOL    HW133890   1.979   7.182   5.457  0.8069 -0.6392  2.4427
74055SOL    HW233891   1.909   7.060   5.512 -1.1723 -0.8622 -0.3620
74056SOL     OW33892  12.897   6.441   7.815  0.4603  0.6509 -0.1887
74056SOL    HW133893  12.934   6.476   7.896  2.6814 -0.4768 -0.6276
74056SOL    HW233894  12.806   6.422   7.836  0.8776  0.7300  1.9354
74057SOL     OW33895   6.667   3.115   9.984 -0.7824 -0.1319  0.1212
74057SOL    HW133896   6.585   3.125  10.033 -0.3173  3.1721  0.4784
74057SOL    HW233897   6.722   3.061  10.041 -1.5883  0.4154  1.4920
74058SOL     OW33898   0.082   6.884   7.370 -0.4665 -0.2552  0.2291
74058SOL    HW133899   0.135   6.817   7.326  0.9637  1.6973 -1.1849
74058SOL    HW233900   0.055   6.943   7.299 -1.3871  0.8706  1.4726
74059SOL     OW33901  12.400   5.567  11.831  0.3216 -0.3860  0.0849
74059SOL    HW133902  12.312   5.595  11.805  0.5149 -0.6290 -0.8560
74059SOL    HW233903  12.386   5.485  11.877  0.0086 -0.1542  0.4135
74060SOL     OW33904  12.481  12.759   1.466  0.1182  0.0092  0.3948
74060SOL    HW133905  12.393  12.723   1.452  0.0803 -0.8686  2.5528
74060SOL    HW233906  12.535  12.717   1.399 -0.8742 -0.3553 -0.1900
74061SOL     OW33907   0.434  10.761   0.866  0.2107 -0.1818  0.2042
74061SOL    HW133908   0.524  10.728   0.877  0.9661  1.1646 -1.4480
74061SOL    HW233909   0.391  10.693   0.814  0.4446 -0.5714  0.5126
74062SOL     OW33910   1.153   0.810  13.722  0.8172  0.1468  0.1293
74062SOL    HW133911   1.061   0.837  13.720  0.5590 -0.7606 -1.0109
74062SOL    HW233912   1.201   0.893  13.725 -0.0037  0.7410 -1.5948
74063SOL     OW33913   9.774   7.320   0.430  0.3289 -0.3678  0.4256
74063SOL    HW133914   9.819   7.327   0.513 -0.5192 -1.4175  1.0091
74063SOL    HW233915   9.699   7.380   0.437 -0.0183 -0.8159  0.6261
74064SOL     OW33916  12.344   9.293   4.903 -0.4089  0.1221 -0.3557
74064SOL    HW133917  12.419   9.338   4.865 -0.7937  1.4212  0.3409
74064SOL    HW233918  12.375   9.262   4.988 -0.4706  0.0888 -0.3450
74065SOL     OW33919   7.085   2.342   6.313 -0.5238  0.1768  0.6213
74065SOL    HW133920   7.012   2.305   6.263  0.1107 -3.2638  1.9541
74065SOL    HW233921   7.130   2.399   6.252 -2.8101  0.3431 -1.0358
74066SOL     OW33922  11.555   4.753   2.076 -0.3031 -0.4503  0.1687
74066SOL    HW133923  11.467   4.743   2.038 -0.0303  0.2782 -0.6887
74066SOL    HW233924  11.556   4.843   2.109 -0.5415 -1.0780  1.9678
74067SOL     OW33925   7.542   0.418   4.663  0.3905 -0.3795  0.1225
74067SOL    HW133926   7.458   0.413   4.708 -0.9844 -0.9000 -2.2865
74067SOL    HW233927   7.535   0.495   4.607  1.5358 -0.4062 -0.0760
74068SOL     OW33928   1.171   4.471   3.381  0.2524 -0.1106  0.7492
74068SOL    HW133929   1.241   4.481   3.316 -0.8823  0.1101 -0.4624
74068SOL    HW233930   1.148   4.378   3.378 -0.3305  0.0477  0.2739
74069SOL     OW33931   7.437   2.067   1.692  0.4664 -0.1139  0.3399
74069SOL    HW133932   7.380   2.134   1.729 -1.9646 -1.4671 -0.6207
74069SOL    HW233933   7.458   2.099   1.604 -0.6980 -0.5223 -0.1209
74070SOL     OW33934  11.343   4.916  12.201 -0.0887 -0.4092  0.5889
74070SOL    HW133935  11.299   4.832  12.204 -0.1556 -0.3862  0.2825
74070SOL    HW233936  11.428   4.900  12.243  0.5806 -1.0487 -0.9565
74071SOL     OW33937   2.855   0.505   8.323  0.0493 -0.0850  0.3730
74071SOL    HW133938   2.761   0.493   8.310  0.2734  1.6230 -5.3368
74071SOL    HW233939   2.892   0.417   8.312 -0.6879 -0.6406  1.9476
74072SOL     OW33940  10.777  10.452   2.186 -0.7686 -0.2433  0.3396
74072SOL    HW133941  10.773  10.373   2.240 -0.9353 -0.0203  0.6633
74072SOL    HW233942  10.705  10.506   2.219 -0.2868  0.2976  0.5340
74073SOL     OW33943  13.190  10.218   1.105  0.4644 -0.1589 -0.1524
74073SOL    HW133944  13.282  10.244   1.105 -0.1495  2.3350 -1.2352
74073SOL    HW233945  13.160  10.234   1.015 -1.3508  0.4722  0.5072
74074SOL     OW33946   6.216   5.367   0.270 -0.3084 -0.2229  0.0659
74074SOL    HW133947   6.136   5.377   0.218 -0.0209  4.4445  0.0762
74074SOL    HW233948   6.186   5.366   0.360 -0.4588 -2.7806  0.0686
74075SOL     OW33949   0.554   6.803   3.311  0.7021 -0.0133 -0.4983
74075SOL    HW133950   0.532   6.710   3.305 -0.1742  0.2166 -0.9878
74075SOL    HW233951   0.510   6.843   3.235  2.4363  0.5423 -1.2675
74076SOL     OW33952   8.669  12.065   6.074  0.0111 -0.3683 -0.0188
74076SOL    HW133953   8.739  12.071   6.009 -1.5460 -1.0390 -1.8554
74076SOL    HW233954   8.603  12.129   6.045 -0.7542 -0.7415  0.8454
74077SOL     OW33955   1.935   4.329   2.859 -0.1526 -0.0119 -0.1627
74077SOL    HW133956   1.876   4.261   2.890 -0.1802 -0.1996 -0.6207
74077SOL    HW233957   1.988   4.286   2.791 -0.0553  0.3776 -0.3376
74078SOL     OW33958   0.160   8.973   3.714  0.1517 -0.4399 -0.1196
74078SOL    HW133959   0.223   8.910   3.678  1.4033 -0.1955  1.5407
74078SOL    HW233960   0.155   9.042   3.649  1.5177 -0.5300 -0.3512
74079SOL     OW33961   9.810   2.947   4.221  0.0813 -0.3426 -0.0486
74079SOL    HW133962   9.763   2.870   4.189  0.1586 -0.8758  1.0724
74079SOL    HW233963   9.740   3.008   4.247  0.0191 -0.5078  0.1696
74080SOL     OW33964  11.636   2.598   3.089  0.4692  0.4033  0.5829
74080SOL    HW133965  11.689   2.566   3.162 -2.1826 -1.8815  1.7144
74080SOL    HW233966  11.661   2.542   3.016  0.8324  0.5014  0.6307
74081SOL     OW33967   6.802   6.407   9.416  0.2627  0.4581 -0.1376
74081SOL    HW133968   6.784   6.333   9.359 -0.0308  1.6494 -1.6633
74081SOL    HW233969   6.732   6.404   9.482 -0.7253  0.3300 -1.1665
74082SOL     OW33970   6.485   9.230  13.028  0.4008 -0.1688 -0.1212
74082SOL    HW133971   6.521   9.319  13.022 -1.1753  0.5742  0.6211
74082SOL    HW233972   6.475   9.214  13.122 -1.3523 -0.2060 -0.2656
74083SOL     OW33973   5.329  11.794  11.164  0.0160  0.4533 -0.0810
74083SOL    HW133974   5.273  11.797  11.242 -1.0767 -0.2601 -0.8155
74083SOL    HW233975   5.361  11.704  11.161  0.6921  0.6833 -0.0406
74084SOL     OW33976   1.198  10.461  10.251  0.5145  0.0033 -0.1777
74084SOL    HW133977   1.138  10.508  10.192 -0.0474 -1.3537 -0.7196
74084SOL    HW233978   1.215  10.378  10.207  2.5666  0.2276  0.1320
74085SOL     OW33979   9.317   6.836   4.200  0.4449 -0.3186 -0.1833
74085SOL    HW133980   9.255   6.869   4.135  0.2157 -1.8593 -0.8011
74085SOL    HW233981   9.402   6.839   4.155  0.8950  1.8489  0.6834
74086SOL     OW33982   2.677   9.429  13.594  0.0013  0.6040 -0.1249
74086SOL    HW133983   2.623   9.432  13.515  0.1586  0.7360 -0.2263
74086SOL    HW233984   2.766   9.416  13.562 -0.1589 -1.2650  0.1110
74087SOL     OW33985  12.825  12.488   7.606  0.1762  0.5089 -0.3576
74087SOL    HW133986  12.758  12.431   7.643 -0.4532  0.7633 -1.0859
74087SOL    HW233987  12.798  12.576   7.632 -0.0565  0.6539 -1.0796
74088SOL     OW33988   6.459  10.157   0.308 -0.3181  0.5253  0.5943
74088SOL    HW133989   6.416  10.231   0.351  0.0528  0.8337  0.4438
74088SOL    HW233990   6.455  10.177   0.215  1.1695  1.1398  0.6347
74089SOL     OW33991  12.812   5.975   2.518  0.5635 -0.0231  0.5626
74089SOL    HW133992  12.755   6.051   2.532 -1.3723 -1.5491  1.5429
74089SOL    HW233993  12.897   6.013   2.497 -0.4443  2.4005  0.4357
74090SOL     OW33994   2.211   5.334   4.999 -0.4497  0.2080 -0.6420
74090SOL    HW133995   2.241   5.336   4.908  0.4293 -1.5646 -0.4139
74090SOL    HW233996   2.282   5.294   5.048 -0.8436  1.2759  0.8925
74091SOL     OW33997   9.698   0.156   3.358 -0.5652  0.5622 -0.6222
74091SOL    HW133998   9.664   0.086   3.302  0.9518 -1.1390  0.4385
74091SOL    HW233999   9.689   0.121   3.447  1.8867  0.9045 -0.1706
74092SOL     OW34000   2.675  12.384  13.256  0.1970 -0.1197  0.1648
74092SOL    HW134001   2.660  12.290  13.267  0.6385 -0.1171  0.8906
74092SOL    HW234002   2.640  12.423  13.336  0.2069  0.3118 -0.0380
74093SOL     OW34003   6.612   0.868   8.738  0.4574  0.3592  0.0700
74093SOL    HW134004   6.653   0.785   8.759 -0.5457 -0.4101 -0.8714
74093SOL    HW234005   6.674   0.911   8.679  0.4215 -0.3012 -0.4620
74094SOL     OW34006   9.595  11.856   0.769 -0.4022 -0.2561  0.2597
74094SOL    HW134007   9.506  11.842   0.736  0.3241 -0.3058 -1.8377
74094SOL    HW234008   9.619  11.943   0.737  0.5243 -0.4993  0.2731
74095SOL     OW34009   3.023   4.705   3.848 -0.3653  0.1197 -0.0416
74095SOL    HW134010   2.979   4.621   3.847  0.6365 -0.4227 -0.0158
74095SOL    HW234011   3.089   4.697   3.917 -0.1174  0.8443 -0.1833
74096SOL     OW34012   9.592   7.763   5.161  0.2008 -0.2642 -0.1410
74096SOL    HW134013   9.637   7.679   5.169 -0.4502 -0.6991 -0.9319
74096SOL    HW234014   9.560   7.782   5.249 -0.8504 -1.5367 -0.2160
74097SOL     OW34015  10.583   0.309  13.169 -0.3449 -0.5893  0.0445
74097SOL    HW134016  10.490   0.287  13.179 -0.3701 -1.0491 -1.0268
74097SOL    HW234017  10.582   0.395  13.127 -0.2569  0.3218  1.8342
74098SOL     OW34018   1.673   0.024   3.391 -0.2613 -0.1553  0.4503
74098SOL    HW134019   1.654   0.025   3.485 -2.5319  0.4635  0.0452
74098SOL    HW234020   1.627  -0.054   3.358  1.1694 -0.8171 -0.0590
74099SOL     OW34021   8.832   7.866   7.204 -0.2759  0.2553  0.0897
74099SOL    HW134022   8.898   7.912   7.255 -0.0331 -1.0025  0.9564
74099SOL    HW234023   8.749   7.898   7.238 -0.1313 -1.1593  1.9212
74100SOL     OW34024   1.811   0.281   5.321 -0.8958  0.2316 -0.0821
74100SOL    HW134025   1.791   0.266   5.413  1.0353  1.1565  0.5505
74100SOL    HW234026   1.887   0.340   5.322  0.9410 -1.8471 -2.1579
74101SOL     OW34027  11.432   9.995   9.876 -0.4211 -0.0805 -0.0247
74101SOL    HW134028  11.436  10.004   9.972  2.1549  0.5503 -0.1048
74101SOL    HW234029  11.468   9.908   9.859  2.5246  1.0931 -0.4703
74102SOL     OW34030  11.374  13.170   4.922  0.4120  0.5425  0.0205
74102SOL    HW134031  11.395  13.078   4.940  0.5830  0.3866 -0.9204
74102SOL    HW234032  11.389  13.214   5.005  1.6170 -0.0657  0.1587
74103SOL     OW34033  10.750  13.735   3.135 -0.3931  0.1570  0.5919
74103SOL    HW134034  10.807  13.680   3.189 -0.3861 -3.3914 -2.6430
74103SOL    HW234035  10.807  13.767   3.065 -1.7001 -1.4198 -1.3073
74104SOL     OW34036   0.189   5.042   0.766  0.2698 -0.2080 -0.6921
74104SOL    HW134037   0.100   5.030   0.801  0.0672 -1.3448 -1.5201
74104SOL    HW234038   0.240   4.971   0.806  0.4153 -0.5258 -1.4262
74105SOL     OW34039   3.679   4.799   3.266 -0.0017  0.7494 -0.1671
74105SOL    HW134040   3.695   4.704   3.263  0.2535  0.8095 -1.4436
74105SOL    HW234041   3.655   4.817   3.356 -1.8809 -0.8291 -0.2954
74106SOL     OW34042   8.324   8.975   2.032 -0.4191  0.3890 -0.1550
74106SOL    HW134043   8.268   9.047   2.002 -0.7987  0.3607  0.4712
74106SOL    HW234044   8.264   8.903   2.049  0.0803 -0.5211 -1.9677
74107SOL     OW34045   0.560   5.631   8.401 -0.2657  0.3762  0.8457
74107SOL    HW134046   0.533   5.701   8.341 -0.9477 -0.4212  0.1990
74107SOL    HW234047   0.502   5.558   8.381  1.4234 -0.9268  0.3967
74108SOL     OW34048   8.921  12.955   1.047  0.4217 -0.4683 -0.2488
74108SOL    HW134049   9.014  12.976   1.055  0.3937  0.3438 -1.7085
74108SOL    HW234050   8.878  13.014   1.108  0.9361 -1.8687  1.5509
74109SOL     OW34051  11.035  11.875   3.535  0.4385 -0.9054 -0.3653
74109SOL    HW134052  10.980  11.830   3.599  0.3504  0.3955  0.5213
74109SOL    HW234053  11.122  11.837   3.547  0.4392 -0.6430  0.5999
74110SOL     OW34054   5.526   7.907   6.771  0.2583  0.3242 -0.0596
74110SOL    HW134055   5.621   7.917   6.774  0.2252  0.4505  0.5895
74110SOL    HW234056   5.509   7.825   6.817 -0.0994  1.3341  1.7016
74111SOL     OW34057  10.263   5.261   3.187 -0.4203 -0.0975  0.3789
74111SOL    HW134058  10.311   5.254   3.270 -0.1627  0.0989  0.2454
74111SOL    HW234059  10.171   5.256   3.213 -0.3313 -0.4660  0.6364
74112SOL     OW34060   7.386   8.825   4.250  0.0704 -0.0720  0.4058
74112SOL    HW134061   7.401   8.733   4.273  0.0623  0.1915  1.4924
74112SOL    HW234062   7.445   8.875   4.307  0.2518  0.5941 -0.3433
74113SOL     OW34063   1.256  12.900   1.617 -0.2271  0.4162 -0.1407
74113SOL    HW134064   1.199  12.830   1.651 -0.4146  0.4683 -0.3465
74113SOL    HW234065   1.343  12.878   1.650 -0.0435 -0.6036 -1.2462
74114SOL     OW34066  12.529  12.659  10.661 -0.1224  0.3544  0.4423
74114SOL    HW134067  12.492  12.577  10.693 -1.5037  1.3446  1.4612
74114SOL    HW234068  12.623  12.650  10.676 -0.2985 -0.8585  0.9332
74115SOL     OW34069   7.897   2.166   7.737  0.4223  0.4217 -0.0697
74115SOL    HW134070   7.864   2.077   7.725 -0.8491  0.9207 -0.4663
74115SOL    HW234071   7.854   2.197   7.816  0.0887  1.0195 -0.4794
74116SOL     OW34072  12.990   9.895   8.240  0.5030  0.1464 -0.1988
74116SOL    HW134073  13.005   9.958   8.310 -1.2188 -0.8028  1.1047
74116SOL    HW234074  13.064   9.834   8.246  0.3377  0.0251  0.8943
74117SOL     OW34075   8.704  11.183   8.656  0.1352 -0.0111  0.5394
74117SOL    HW134076   8.749  11.250   8.707 -0.1207 -0.3683  1.2516
74117SOL    HW234077   8.686  11.224   8.572  2.5831 -0.1222 -0.1200
74118SOL     OW34078   7.682   2.564   4.917  0.1083 -0.0835  0.3655
74118SOL    HW134079   7.765   2.608   4.898 -0.4602  0.9516  0.2501
74118SOL    HW234080   7.649   2.538   4.831 -0.3339  0.6978  0.2959
74119SOL     OW34081   5.570  12.168  10.283  0.3325 -0.1599 -0.4876
74119SOL    HW134082   5.627  12.144  10.356  0.6999 -0.6081 -0.9221
74119SOL    HW234083   5.598  12.112  10.210  0.1332  0.4529 -1.0458
74120SOL     OW34084   8.303  10.165   8.596  0.0809 -0.1368 -0.2090
74120SOL    HW134085   8.366  10.198   8.661  1.3226 -3.5334  0.5252
74120SOL    HW234086   8.218  10.190   8.631  0.8694  1.4772  0.6719
74121SOL     OW34087   1.815   6.180   4.256 -0.3793  0.1771 -0.2202
74121SOL    HW134088   1.766   6.122   4.197 -1.2763  2.0326 -1.3751
74121SOL    HW234089   1.875   6.228   4.198  0.5005  0.2889  0.7461
74122SOL     OW34090   9.304  13.134   4.852  0.0624 -0.4705 -0.5210
74122SOL    HW134091   9.277  13.223   4.829 -1.2444 -0.8659 -0.6123
74122SOL    HW234092   9.335  13.141   4.942 -1.2195 -0.1205 -0.0762
74123SOL     OW34093   6.915  11.700  10.270  0.2384 -0.0681 -0.2958
74123SOL    HW134094   7.010  11.687  10.275  0.3520  0.1431 -1.5231
74123SOL    HW234095   6.902  11.748  10.188 -0.9587 -0.4401 -0.3411
74124SOL     OW34096  10.884  11.616   8.011  0.1584 -0.4069  0.1436
74124SOL    HW134097  10.949  11.608   7.941 -1.7058 -0.7977 -1.6268
74124SOL    HW234098  10.936  11.638   8.088  2.0989  2.7996 -1.8435
74125SOL     OW34099   4.056   4.294  12.791  0.4399 -0.0564  0.0464
74125SOL    HW134100   4.123   4.257  12.733  1.1191  1.1511  0.0299
74125SOL    HW234101   4.009   4.356  12.736  0.5120  0.4529  0.5524
74126SOL     OW34102   7.308  10.790   4.341 -0.0330  0.1489 -0.1893
74126SOL    HW134103   7.308  10.876   4.300  0.1638  1.6681  2.7308
74126SOL    HW234104   7.399  10.760   4.335  0.4039  1.2218  0.7815
74127SOL     OW34105   9.035   2.442   2.850  0.3096 -1.0055  0.9585
74127SOL    HW134106   9.018   2.522   2.799  0.3709 -3.6027 -3.6564
74127SOL    HW234107   9.126   2.452   2.878  2.2577 -1.3355 -4.1261
74128SOL     OW34108   5.891   1.626  12.208 -0.6858 -0.1279 -0.5215
74128SOL    HW134109   5.914   1.565  12.137  0.3441 -0.8486  0.3923
74128SOL    HW234110   5.937   1.592  12.285 -0.7562  1.3539  0.2175
74129SOL     OW34111   0.814   1.884   2.962  0.2852 -0.4052  0.2280
74129SOL    HW134112   0.765   1.904   3.041  1.9371  0.7422  1.0183
74129SOL    HW234113   0.772   1.937   2.894 -1.6882 -2.0437  0.0764
74130SOL     OW34114  11.385   8.894   4.600 -0.1591 -0.2254  0.3261
74130SOL    HW134115  11.302   8.854   4.575 -0.7099  0.2050  1.3917
74130SOL    HW234116  11.366   8.988   4.604  0.4459 -0.0992  0.3557
74131SOL     OW34117  10.884  11.687   3.697 -0.1702 -0.0572  0.0975
74131SOL    HW134118  10.954  11.703   3.761  0.9723 -1.2607 -0.7979
74131SOL    HW234119  10.848  11.602   3.721  1.0271 -1.0674 -1.4513
74132SOL     OW34120   5.367   5.610  10.747 -1.4841  0.2585 -0.0485
74132SOL    HW134121   5.363   5.697  10.787 -0.6940 -0.1783  1.0184
74132SOL    HW234122   5.447   5.611  10.695 -0.2075 -0.5413  1.7862
74133SOL     OW34123  11.704   8.183  13.689  0.0793  0.1774  0.2389
74133SOL    HW134124  11.703   8.278  13.676  0.5989 -0.0470 -1.9098
74133SOL    HW234125  11.711   8.172  13.784 -0.7004  2.2621  0.5966
74134SOL     OW34126   1.975  12.959  12.795 -0.4269  0.0210  0.1066
74134SOL    HW134127   1.981  13.049  12.830  0.6707 -0.3901  1.0507
74134SOL    HW234128   2.006  12.967  12.705 -0.6525  0.6467  0.0754
74135SOL     OW34129  13.048   4.336   3.720 -0.3135 -0.3810  0.0978
74135SOL    HW134130  13.139   4.306   3.715 -0.1212  0.1725  0.2657
74135SOL    HW234131  13.038   4.392   3.643 -0.0059  0.9255  0.9841
74136SOL     OW34132  10.692   1.743  12.578 -0.5306 -0.1723 -0.3486
74136SOL    HW134133  10.656   1.771  12.662  1.1455 -1.9415  1.0407
74136SOL    HW234134  10.650   1.801  12.514 -1.4741  1.5845  1.7237
74137SOL     OW34135   2.945  11.484   8.483 -0.6703 -0.5401 -0.5087
74137SOL    HW134136   2.871  11.444   8.528 -0.0813  0.0659  1.0666
74137SOL    HW234137   2.977  11.416   8.424 -2.2314 -0.9275 -0.9523
74138SOL     OW34138  12.721  10.429   6.349  0.0815  1.1971 -0.1162
74138SOL    HW134139  12.774  10.429   6.269  0.7362  0.7279  0.3081
74138SOL    HW234140  12.746  10.348   6.394 -0.8242  1.0917  0.2053
74139SOL     OW34141   3.363   6.358  12.129  0.2182 -0.0404  0.2887
74139SOL    HW134142   3.428   6.315  12.073  1.1574 -0.3780  1.6056
74139SOL    HW234143   3.288   6.372  12.071  0.2448 -2.5137 -0.4641
74140SOL     OW34144  12.583   9.933  10.692  0.0430 -0.2008 -0.1812
74140SOL    HW134145  12.624  10.009  10.652  0.0808  0.5652  1.2289
74140SOL    HW234146  12.513   9.970  10.747  0.4556 -1.1118  1.0080
74141SOL     OW34147   4.987   2.145   2.217 -0.7144  0.2484 -0.2089
74141SOL    HW134148   4.921   2.081   2.242 -1.1084  0.2892 -1.1272
74141SOL    HW234149   5.036   2.103   2.146  0.7161 -0.0647  0.8973
74142SOL     OW34150   1.267   9.336  12.498 -0.3097 -0.2459  0.2510
74142SOL    HW134151   1.286   9.259  12.445 -1.6753 -0.9527  0.7255
74142SOL    HW234152   1.316   9.322  12.579  0.6259  0.1309 -0.2333
74143SOL     OW34153   1.457  11.805   2.975  0.4130  0.4022 -0.6441
74143SOL    HW134154   1.519  11.745   2.935  0.4962  0.3732 -0.4738
74143SOL    HW234155   1.478  11.803   3.068 -0.1631  0.0157 -0.5209
74144SOL     OW34156   0.128   3.969   6.255  0.3142  0.3200 -0.0829
74144SOL    HW134157   0.207   3.932   6.216  0.2139  0.9899 -0.9574
74144SOL    HW234158   0.097   3.902   6.316  0.4534 -0.7950 -1.1925
74145SOL     OW34159  11.259   2.204  12.447 -0.1341  0.2033  0.0418
74145SOL    HW134160  11.252   2.281  12.390 -0.2521  0.2539  0.1230
74145SOL    HW234161  11.247   2.129  12.387  1.0021  0.2008 -0.2086
74146SOL     OW34162   2.039  11.293   8.356  0.4649 -0.1129 -0.3792
74146SOL    HW134163   1.974  11.297   8.426 -0.9087 -2.2575 -1.4196
74146SOL    HW234164   2.054  11.384   8.332 -3.3600  0.5243 -1.0914
74147SOL     OW34165   1.487  13.357   5.332 -0.3538 -0.1740 -0.3220
74147SOL    HW134166   1.487  13.447   5.363  2.4829 -0.4089  0.6409
74147SOL    HW234167   1.475  13.305   5.411 -0.6533 -0.6613 -0.6832
74148SOL     OW34168   5.246  12.632   6.142  0.4913  0.1789 -0.2130
74148SOL    HW134169   5.222  12.542   6.165 -0.4579  0.1008 -1.4618
74148SOL    HW234170   5.332  12.624   6.101 -0.4961 -0.4591 -2.2580
74149SOL     OW34171   5.851   0.376   6.288 -0.0989 -0.5314 -0.3066
74149SOL    HW134172   5.860   0.353   6.195 -2.8913  2.4247 -1.4788
74149SOL    HW234173   5.788   0.313   6.322 -0.8207 -0.2293 -1.0564
74150SOL     OW34174   4.456   8.999   2.791 -0.0140 -0.8321 -0.1067
74150SOL    HW134175   4.545   8.976   2.816 -0.3244 -1.6940  0.2657
74150SOL    HW234176   4.403   8.970   2.866 -0.7572 -1.6357 -0.9231
74151SOL     OW34177   7.974   7.141   8.675 -0.8993 -0.3426  0.0643
74151SOL    HW134178   7.971   7.229   8.638  0.4308  0.5280  1.8417
74151SOL    HW234179   7.886   7.105   8.662 -1.0273  0.6111 -2.0844
74152SOL     OW34180  11.366   5.292  11.408  0.1789  0.2201  0.3649
74152SOL    HW134181  11.291   5.247  11.370 -1.5118  2.2427  1.0885
74152SOL    HW234182  11.342   5.305  11.500  1.2580  1.2118  0.5254
74153SOL     OW34183   6.773  13.505   2.056  0.2369  0.3547  0.2028
74153SOL    HW134184   6.706  13.524   2.122  0.0305  1.4776 -0.3071
74153SOL    HW234185   6.796  13.413   2.071 -1.4092 -0.0558  0.3879
74154SOL     OW34186  11.223   8.161   1.223  0.3311 -0.4618 -0.0737
74154SOL    HW134187  11.304   8.124   1.190  0.6319  0.8632 -0.9169
74154SOL    HW234188  11.219   8.248   1.183 -0.4912  0.2795  1.5545
74155SOL     OW34189   3.639   3.261  11.082  0.1301 -0.6496 -0.4779
74155SOL    HW134190   3.582   3.333  11.055  0.5562 -0.7182 -1.5883
74155SOL    HW234191   3.656   3.278  11.175  0.2141  0.6758 -0.7228
74156SOL     OW34192   2.916  12.301  11.968 -0.4419  0.3869  0.7075
74156SOL    HW134193   2.969  12.345  11.902  1.2382 -0.4104  1.4707
74156SOL    HW234194   2.842  12.264  11.919  1.2550 -1.0411 -0.9328
74157SOL     OW34195   4.454   3.882  12.040  0.0689 -0.0139  0.5310
74157SOL    HW134196   4.421   3.800  12.001 -0.2447  0.8241 -1.0683
74157SOL    HW234197   4.402   3.951  11.997  1.3315  1.1023  0.7553
74158SOL     OW34198   5.741  13.727   5.568  0.2628  0.2295  0.1248
74158SOL    HW134199   5.677  13.762   5.630  2.4185  2.5495  1.2501
74158SOL    HW234200   5.691  13.667   5.513 -2.6300  1.1509  1.5298
74159SOL     OW34201   1.702   3.007   6.673  0.0536 -0.3665  0.1964
74159SOL    HW134202   1.704   3.100   6.651 -0.1197  0.1319  2.1445
74159SOL    HW234203   1.789   2.989   6.708 -0.6052 -0.3854  1.8782
74160SOL     OW34204   1.870  12.400   7.394 -0.0760  0.3802  0.0746
74160SOL    HW134205   1.830  12.376   7.310  0.2626  1.7017 -0.4741
74160SOL    HW234206   1.825  12.480   7.420  0.7701  0.7275  0.4864
74161SOL     OW34207   1.555  12.145   9.808  0.0309  0.3130  0.1717
74161SOL    HW134208   1.627  12.104   9.856  0.8753  1.3683 -0.1619
74161SOL    HW234209   1.597  12.192   9.736 -1.1408 -0.4607 -1.0729
74162SOL     OW34210   8.141   5.245   0.532 -0.1216  0.0663 -0.0847
74162SOL    HW134211   8.085   5.220   0.605  0.9566 -0.0315  0.7250
74162SOL    HW234212   8.194   5.168   0.513 -1.2525 -0.3318 -1.8222
74163SOL     OW34213  10.147   3.631   2.615 -0.1449 -0.8124 -0.0343
74163SOL    HW134214  10.209   3.582   2.669 -0.3090 -0.2159  0.7100
74163SOL    HW234215  10.184   3.719   2.610 -1.8809  0.1269  2.0881
74164SOL     OW34216   3.013   4.819   8.772 -0.0015 -0.2703 -0.2751
74164SOL    HW134217   3.029   4.815   8.678 -0.0480  1.9708 -0.4514
74164SOL    HW234218   2.949   4.890   8.782  0.3963 -0.1059  1.4606
74165SOL     OW34219  13.436   9.922   5.114  0.1958  0.2014 -0.1485
74165SOL    HW134220  13.468   9.832   5.108  1.7182  0.7744 -1.3383
74165SOL    HW234221  13.495   9.965   5.177 -1.3311  0.0953  1.4491
74166SOL     OW34222   4.303  11.363   5.977  0.4217  0.5980  0.0311
74166SOL    HW134223   4.320  11.375   5.884  1.5114 -0.5499  0.0602
74166SOL    HW234224   4.226  11.417   5.995 -0.6107 -0.2047 -1.8183
74167SOL     OW34225   9.133  12.708   0.733 -0.2104 -0.2656 -0.1320
74167SOL    HW134226   9.139  12.803   0.721 -0.4023 -0.0271  1.4239
74167SOL    HW234227   9.050  12.684   0.691  0.7347 -0.0916 -2.2390
74168SOL     OW34228   5.378   8.872   2.919 -0.0052  0.1848  0.0288
74168SOL    HW134229   5.436   8.796   2.917 -0.2931 -0.0250 -0.4552
74168SOL    HW234230   5.416   8.933   2.855  0.1278  0.3816  0.2915
74169SOL     OW34231  10.140   9.022   7.056  0.2859 -0.2758  0.3792
74169SOL    HW134232  10.173   8.932   7.063  3.0719  0.6711  0.6681
74169SOL    HW234233  10.172   9.052   6.970  1.2909  1.0966  1.2003
74170SOL     OW34234   8.284   7.134   5.572 -0.5177  0.3557  0.2649
74170SOL    HW134235   8.197   7.161   5.545 -1.8937 -1.1212  2.8048
74170SOL    HW234236   8.321   7.211   5.616 -0.7381  0.8133 -0.3379
74171SOL     OW34237   8.187   9.236   6.418 -0.0666 -0.0691 -0.0267
74171SOL    HW134238   8.234   9.233   6.502 -0.7231 -0.1539  0.3398
74171SOL    HW234239   8.248   9.197   6.355 -0.2302 -1.5898  0.7240
74172SOL     OW34240  13.581   8.827   6.943  0.6452  0.4623 -0.0334
74172SOL    HW134241  13.604   8.735   6.954  0.2564  0.4796  1.0186
74172SOL    HW234242  13.664   8.873   6.949  1.1300  0.0670 -2.5522
74173SOL     OW34243   0.819  11.632   9.420 -0.3076  0.2748 -0.3149
74173SOL    HW134244   0.818  11.711   9.474  0.1169  0.1501 -0.1235
74173SOL    HW234245   0.832  11.560   9.482 -0.4417  0.0741 -0.5175
74174SOL     OW34246  11.629   7.840   7.923  0.9222  0.3265 -0.0521
74174SOL    HW134247  11.658   7.923   7.885  1.1371 -0.1960 -1.0638
74174SOL    HW234248  11.647   7.775   7.855 -0.1118 -0.4142  0.3551
74175SOL     OW34249   3.719   0.500   5.823  0.0203  0.1742 -0.3197
74175SOL    HW134250   3.753   0.428   5.770 -0.3214 -0.7034  0.6152
74175SOL    HW234251   3.638   0.466   5.861 -0.2974  1.1598 -0.0834
74176SOL     OW34252  11.319   7.685  11.380 -0.1581  0.8473 -0.0027
74176SOL    HW134253  11.410   7.672  11.405 -0.0721 -0.0814 -0.7462
74176SOL    HW234254  11.323   7.736  11.299 -0.0932 -2.2476 -2.0772
74177SOL     OW34255   3.260   1.242  10.558 -0.7990 -0.0338  0.0060
74177SOL    HW134256   3.208   1.322  10.570 -1.8498 -0.3826 -1.9348
74177SOL    HW234257   3.343   1.273  10.521 -1.1226  0.1920 -0.5455
74178SOL     OW34258   8.912   3.844  12.483  0.2913  0.1634 -0.2003
74178SOL    HW134259   8.985   3.782  12.470 -0.9387 -1.6955  1.1312
74178SOL    HW234260   8.856   3.831  12.407  1.3818  1.7528 -1.3361
74179SOL     OW34261   0.377   4.933  13.183 -0.1530 -0.3808  0.2528
74179SOL    HW134262   0.377   4.863  13.249  1.2164 -0.9762 -0.3332
74179SOL    HW234263   0.284   4.954  13.170 -0.5470 -1.5454  1.0064
74180SOL     OW34264   5.468  11.763  12.001  0.2283 -0.3031 -0.3253
74180SOL    HW134265   5.471  11.843  11.949  0.3686 -0.1107 -0.0237
74180SOL    HW234266   5.536  11.707  11.963 -0.6018 -0.7194 -1.2447
74181SOL     OW34267  13.516   5.292   1.685 -0.2244  0.1797 -0.0997
74181SOL    HW134268  13.604   5.322   1.707 -0.2707  0.2340  0.0080
74181SOL    HW234269  13.521   5.269   1.592 -0.5830  2.0452 -0.6193
74182SOL     OW34270  12.932  11.027   2.054 -0.1060  0.3684  0.2869
74182SOL    HW134271  12.932  10.974   1.975  1.6649 -0.3229  0.6930
74182SOL    HW234272  12.932  10.963   2.126  0.4108  0.9390  0.8104
74183SOL     OW34273  12.036   3.875   0.738  0.4059  0.3609 -0.1692
74183SOL    HW134274  12.055   3.956   0.784  1.6173 -0.6656  1.2074
74183SOL    HW234275  12.019   3.811   0.807 -1.0527 -0.4598 -1.2356
74184SOL     OW34276   0.971   6.820   3.544 -0.8616 -0.1075  0.4932
74184SOL    HW134277   1.059   6.834   3.509 -0.7915 -1.4308  0.0719
74184SOL    HW234278   0.912   6.849   3.475 -0.7245 -2.4745 -0.7445
74185SOL     OW34279   0.715  11.146   1.487 -0.1815 -0.6427 -0.1226
74185SOL    HW134280   0.793  11.104   1.525 -0.6436 -0.3328  1.2140
74185SOL    HW234281   0.744  11.235   1.466  0.3450 -1.0980 -1.4557
74186SOL     OW34282   7.209   8.894   8.904 -0.1448 -0.0245  0.0072
74186SOL    HW134283   7.158   8.942   8.969 -0.5437  0.4400 -0.6393
74186SOL    HW234284   7.282   8.951   8.883  1.2256 -1.0786  1.6307
74187SOL     OW34285   9.416   7.229   3.009  0.5965 -0.3262 -0.1907
74187SOL    HW134286   9.442   7.201   2.921  0.7258 -0.6305 -0.0570
74187SOL    HW234287   9.431   7.323   3.009 -1.7192  0.1220 -1.3061
74188SOL     OW34288  11.043   8.896  10.936 -0.3709  0.6436  0.2889
74188SOL    HW134289  11.138   8.891  10.925 -0.3380 -0.4388  0.9228
74188SOL    HW234290  11.009   8.825  10.881 -0.6072 -0.7251  2.1065
74189SOL     OW34291  13.596   5.288   2.082  0.2412  0.5044 -0.0681
74189SOL    HW134292  13.588   5.365   2.025  1.4026  1.5606  1.1166
74189SOL    HW234293  13.623   5.324   2.167  0.5321 -1.2066  0.6026
74190SOL     OW34294   5.265   5.080  12.515 -1.0284  0.5523 -0.3216
74190SOL    HW134295   5.170   5.071  12.506 -0.8843 -1.3426 -0.4137
74190SOL    HW234296   5.279   5.088  12.610 -1.2422  0.1329 -0.2520
74191SOL     OW34297  10.224  13.649  11.955  0.6319  0.1159  0.2120
74191SOL    HW134298  10.207  13.559  11.927 -0.0847  0.1420  0.5570
74191SOL    HW234299  10.285  13.641  12.028 -0.1046 -0.1510  0.8125
74192SOL     OW34300   9.265   6.249   3.481  0.4484  0.0415 -0.4509
74192SOL    HW134301   9.312   6.316   3.531  0.4815 -0.7258  0.6097
74192SOL    HW234302   9.192   6.295   3.441 -1.6020  0.2083  3.0318
74193SOL     OW34303   0.260  11.793   3.270  0.0580 -0.0384  0.2324
74193SOL    HW134304   0.172  11.831   3.270  0.4160  0.9781 -2.3151
74193SOL    HW234305   0.248  11.704   3.301 -1.9114  0.0118 -0.2624
74194SOL     OW34306  12.380   8.699   3.897  0.0380  0.2781 -0.6608
74194SOL    HW134307  12.320   8.684   3.825 -1.4413  1.4217  0.2706
74194SOL    HW234308  12.467   8.698   3.856 -0.7099  0.3226 -2.3504
74195SOL     OW34309   9.181  10.835   3.353 -0.2605  0.8665 -0.0484
74195SOL    HW134310   9.237  10.784   3.412  1.1480  1.5064 -0.7721
74195SOL    HW234311   9.234  10.846   3.274 -1.2570  1.8752 -0.5987
74196SOL     OW34312   1.240   7.732  11.094 -0.2364 -0.4334 -0.8066
74196SOL    HW134313   1.224   7.724  11.188  1.0292 -1.2816 -0.6310
74196SOL    HW234314   1.153   7.724  11.053 -0.6015 -1.9480  0.1930
74197SOL     OW34315   1.052   6.976   6.534  0.4794  0.4448  0.3601
74197SOL    HW134316   1.128   6.969   6.592  1.8930  0.1072 -1.4357
74197SOL    HW234317   1.042   6.888   6.498  0.1943  0.8520 -0.5659
74198SOL     OW34318  11.210   5.969   4.981 -0.8055 -0.0208  0.0139
74198SOL    HW134319  11.293   5.949   4.935 -0.1783  1.7174  0.3289
74198SOL    HW234320  11.218   6.061   5.005 -3.3233  0.5229 -0.9359
74199SOL     OW34321   1.778  10.218   2.043  1.0912 -0.2018 -0.3997
74199SOL    HW134322   1.687  10.231   2.018  0.9233 -0.4036  0.0844
74199SOL    HW234323   1.826  10.288   1.999  0.3275  1.6573  1.5195
74200SOL     OW34324   0.063   0.554   2.399  0.0287  0.0406  0.3417
74200SOL    HW134325  -0.012   0.499   2.378  0.1422 -0.1410  0.4072
74200SOL    HW234326   0.044   0.586   2.488  0.9691 -1.6402  1.2052
74201SOL     OW34327   1.180   3.419   6.382 -0.0553 -0.2370  0.7280
74201SOL    HW134328   1.252   3.390   6.437 -0.2027  0.3294  1.2209
74201SOL    HW234329   1.203   3.507   6.355 -0.5133 -0.0902  0.8049
74202SOL     OW34330   8.907   5.357   8.014  0.0499 -0.2187  0.8869
74202SOL    HW134331   8.833   5.310   8.054  0.5199  0.0207  2.0863
74202SOL    HW234332   8.925   5.429   8.074 -0.4887  1.4030 -0.7975
74203SOL     OW34333   3.425   2.500   9.701  1.2784  0.0665  0.1634
74203SOL    HW134334   3.468   2.499   9.787  1.1486 -1.3633  0.2432
74203SOL    HW234335   3.335   2.472   9.719  0.7079  1.5336 -0.2158
74204SOL     OW34336  12.620  11.023   7.501  0.1974 -0.4053 -0.2010
74204SOL    HW134337  12.674  11.078   7.558  0.3503 -0.2181 -0.5212
74204SOL    HW234338  12.575  11.085   7.444  0.1577 -0.5988 -0.3798
74205SOL     OW34339   3.852   3.540  11.959  0.0456 -0.0697  0.4502
74205SOL    HW134340   3.897   3.549  11.875  1.0333  3.4585  1.1844
74205SOL    HW234341   3.912   3.489  12.013  0.5934 -0.1403 -0.2119
74206SOL     OW34342   3.575   0.169   8.718 -0.2245  0.1090 -0.6598
74206SOL    HW134343   3.665   0.175   8.686 -0.2411  0.9638 -0.5682
74206SOL    HW234344   3.525   0.221   8.657 -0.6456 -0.2600 -0.6329
74207SOL     OW34345   5.709   0.244   4.471 -0.0320  0.1342  0.2633
74207SOL    HW134346   5.661   0.173   4.512  0.1797  0.5383  1.2321
74207SOL    HW234347   5.721   0.216   4.380 -3.2629  0.5915 -0.4086
74208SOL     OW34348   4.420  10.154   9.934 -0.1521  0.7361  0.0910
74208SOL    HW134349   4.505  10.111   9.923 -0.4092 -0.0143  0.9978
74208SOL    HW234350   4.411  10.166  10.029 -0.3849  2.2087 -0.0868
74209SOL     OW34351   8.320   5.877   0.558  0.1757  0.6427  0.6865
74209SOL    HW134352   8.407   5.912   0.579 -0.4238  1.5961  1.7273
74209SOL    HW234353   8.299   5.821   0.633 -0.0530  0.3058  0.3710
74210SOL     OW34354  12.809  11.520   7.036 -0.1762 -0.1160  0.2288
74210SOL    HW134355  12.814  11.595   6.976 -0.8660 -0.4139 -0.2234
74210SOL    HW234356  12.878  11.535   7.100  1.7077 -0.6023 -1.5868
74211SOL     OW34357   4.269  12.077  11.145  0.0060  0.3680  0.0699
74211SOL    HW134358   4.281  11.982  11.140  0.8928  0.5313 -3.0717
74211SOL    HW234359   4.178  12.088  11.173 -1.1650 -1.5554 -2.4957
74212SOL     OW34360   5.394  11.800   9.868 -0.0805  0.5559 -0.2797
74212SOL    HW134361   5.431  11.870   9.921 -0.9447 -0.6409  2.0529
74212SOL    HW234362   5.467  11.739   9.854  0.3516  1.2630 -1.2287
74213SOL     OW34363   7.849   3.548   9.666  0.3004 -0.2978 -0.3071
74213SOL    HW134364   7.773   3.577   9.616 -0.3961 -0.4462  0.6213
74213SOL    HW234365   7.838   3.589   9.752  1.9000  0.6146 -0.5052
74214SOL     OW34366  12.725   1.644  11.841  0.4584 -0.6899  0.6416
74214SOL    HW134367  12.735   1.605  11.754 -1.7647 -0.1479  0.0779
74214SOL    HW234368  12.656   1.591  11.883  0.7566 -0.2851  1.6794
74215SOL     OW34369   1.801   7.629   0.728 -0.5468  0.3824  0.2870
74215SOL    HW134370   1.807   7.584   0.813 -0.9965  1.4851  0.9290
74215SOL    HW234371   1.768   7.716   0.750 -1.3872  0.4422 -1.1159
74216SOL     OW34372   9.952  12.989   6.693 -0.3034 -0.6064  0.5855
74216SOL    HW134373   9.916  13.064   6.645 -0.7539 -2.7078 -2.6197
74216SOL    HW234374   9.913  12.997   6.780 -1.8927  1.7967 -0.2168
74217SOL     OW34375   2.670   6.916  13.364 -0.6925 -0.2229  0.0712
74217SOL    HW134376   2.751   6.874  13.393  0.0925  0.8174 -0.5380
74217SOL    HW234377   2.629   6.947  13.445  0.9795  1.7671  0.2201
74218SOL     OW34378   3.311   5.987   7.345 -0.1717  0.5805  0.1944
74218SOL    HW134379   3.303   5.927   7.419  0.0779 -0.9371 -0.9554
74218SOL    HW234380   3.238   6.047   7.354  0.1992  0.8183  1.9939
74219SOL     OW34381   6.180  12.074  11.161  0.7144 -0.8151 -0.2949
74219SOL    HW134382   6.112  12.010  11.139  1.8053 -1.8857 -0.6652
74219SOL    HW234383   6.150  12.156  11.121 -1.4028 -0.6918  1.3488
74220SOL     OW34384   7.267   9.746  12.510  0.5680  0.5735 -0.4743
74220SOL    HW134385   7.269   9.840  12.492  1.5246  1.0268  1.6568
74220SOL    HW234386   7.279   9.705  12.424 -4.5402  2.1831 -2.2967
74221SOL     OW34387   6.919   8.236   2.640 -1.0083 -0.2268  0.2659
74221SOL    HW134388   6.849   8.202   2.696 -0.4843 -1.4299  0.2255
74221SOL    HW234389   6.997   8.188   2.668 -0.3008  0.6923 -0.0659
74222SOL     OW34390   0.658   7.036   1.249 -0.9531  0.0137 -0.1750
74222SOL    HW134391   0.699   7.074   1.171 -1.3645  1.7464  0.3974
74222SOL    HW234392   0.641   7.111   1.306 -1.8805 -1.0526  1.0197
74223SOL     OW34393   7.551  11.234   9.237 -0.3141  0.1900 -0.3199
74223SOL    HW134394   7.497  11.258   9.311 -0.9211 -2.0167  0.0308
74223SOL    HW234395   7.504  11.268   9.160 -0.6279  0.8913  0.1777
74224SOL     OW34396   7.523   1.987   4.007  0.2385  0.0924 -0.0861
74224SOL    HW134397   7.615   1.990   3.980 -0.1298 -0.4764 -1.4766
74224SOL    HW234398   7.524   1.936   4.087  1.2871  1.2101  0.6557
74225SOL     OW34399   3.094   2.018   7.251  0.1222 -0.0788 -0.4401
74225SOL    HW134400   3.157   2.029   7.323  0.4945  1.7198 -0.9922
74225SOL    HW234401   3.127   2.076   7.182 -1.6252  0.1664 -1.0974
74226SOL     OW34402  13.081   3.758   6.069 -0.1120  0.1669  0.0698
74226SOL    HW134403  13.094   3.739   5.976  0.2948 -1.5407  0.4433
74226SOL    HW234404  13.168   3.783   6.100 -0.0488 -0.1834  0.1805
74227SOL     OW34405  13.608   4.555   5.673 -0.5565 -0.1620 -0.1383
74227SOL    HW134406  13.687   4.610   5.669 -0.3607 -0.4625 -0.6685
74227SOL    HW234407  13.616   4.498   5.596 -1.1949 -0.3300 -0.0842
74228SOL     OW34408   8.863   5.370  10.726 -0.0660  0.2863  0.5284
74228SOL    HW134409   8.830   5.283  10.748  0.6737  0.0282  0.6394
74228SOL    HW234410   8.821   5.428  10.788 -2.1545  0.3149 -0.8086
74229SOL     OW34411   5.568  11.640   7.080 -0.0030  0.2112  0.1280
74229SOL    HW134412   5.558  11.644   7.175 -2.8737 -1.2837 -0.0108
74229SOL    HW234413   5.648  11.589   7.067  1.9882  2.6890  1.6155
74230SOL     OW34414   0.882   9.513   6.531  0.0296 -0.6535  0.0877
74230SOL    HW134415   0.843   9.566   6.600 -0.0061 -0.4348 -0.1006
74230SOL    HW234416   0.972   9.497   6.561  0.1717 -0.1310 -0.0501
74231SOL     OW34417  11.009   6.150   9.211  0.0589  0.7545  0.7067
74231SOL    HW134418  11.085   6.186   9.165  0.7427 -0.1461  1.0824
74231SOL    HW234419  11.044   6.123   9.296 -0.5659 -0.1880  0.6760
74232SOL     OW34420   3.881   3.074   5.513 -0.4812  0.5397 -0.3591
74232SOL    HW134421   3.939   2.997   5.512  0.6521  1.2976  1.2163
74232SOL    HW234422   3.804   3.048   5.463 -0.3107 -1.7892  0.4705
74233SOL     OW34423   7.420   2.363   3.618  0.0918  0.2884  0.4303
74233SOL    HW134424   7.442   2.391   3.707  0.6651  0.7092  0.1670
74233SOL    HW234425   7.379   2.277   3.628  0.5535  0.1389  1.0639
74234SOL     OW34426   1.481   2.409   2.222  0.0600 -0.1189 -0.6284
74234SOL    HW134427   1.542   2.437   2.154  0.8466  0.0601  0.1284
74234SOL    HW234428   1.439   2.489   2.252  1.0640  0.0714  0.3521
74235SOL     OW34429   8.426  11.178   1.992  0.0040 -0.0951 -0.4152
74235SOL    HW134430   8.349  11.187   1.935 -0.1376  0.8244 -0.1022
74235SOL    HW234431   8.391  11.187   2.081  0.3956 -0.2581 -0.2443
74236SOL     OW34432  11.069   9.664   6.949  0.0511  0.1872 -0.7476
74236SOL    HW134433  11.149   9.717   6.948  0.6487 -0.7011 -0.7602
74236SOL    HW234434  11.013   9.704   6.883  0.2247  1.2026 -0.2987
74237SOL     OW34435   6.967   5.344  10.285 -0.4399  0.3697  0.3819
74237SOL    HW134436   7.020   5.393  10.222 -3.4525  1.1064 -1.7979
74237SOL    HW234437   6.922   5.411  10.335  0.3081 -0.2476  1.9380
74238SOL     OW34438  11.285   5.551   6.077 -0.7316  0.1363 -0.0243
74238SOL    HW134439  11.249   5.465   6.054 -0.7099  0.0528  0.2516
74238SOL    HW234440  11.364   5.559   6.024 -0.0146 -0.5768  0.9050
74239SOL     OW34441   4.716   1.564  10.074  0.6419 -0.6173  0.0597
74239SOL    HW134442   4.726   1.474  10.042 -0.3603 -1.0575  0.9266
74239SOL    HW234443   4.698   1.554  10.167  0.5412  0.4985  0.1724
74240SOL     OW34444  12.221   1.755   4.264  0.4748  0.6636  0.2823
74240SOL    HW134445  12.242   1.725   4.352 -1.8382 -3.2091 -0.2520
74240SOL    HW234446  12.261   1.690   4.206 -0.9125  1.1592 -1.3284
74241SOL     OW34447   4.663   9.712   3.625  0.4606 -0.2722  0.2761
74241SOL    HW134448   4.701   9.693   3.539 -0.3142 -0.8306  0.0416
74241SOL    HW234449   4.731   9.760   3.672  0.2339  1.7384 -1.3081
74242SOL     OW34450   0.616  10.568   7.286 -0.6205  0.1716  0.1093
74242SOL    HW134451   0.577  10.540   7.203  0.3902 -2.0012  0.3121
74242SOL    HW234452   0.579  10.510   7.352  0.8902 -0.1683  0.7049
74243SOL     OW34453   2.854   7.739  13.721  0.1283 -0.3172  0.5176
74243SOL    HW134454   2.821   7.767  13.636 -0.8016  0.1348  1.0107
74243SOL    HW234455   2.780   7.753  13.781 -0.7585 -4.5919  0.7076
74244SOL     OW34456  13.116  12.980   7.280 -0.3728  0.7081  0.2026
74244SOL    HW134457  13.045  13.037   7.249 -0.9743  0.1635  0.5553
74244SOL    HW234458  13.099  12.969   7.374 -0.7573 -0.7211 -0.0081
74245SOL     OW34459   2.749   5.775   0.616  0.0545 -0.3217  0.9954
74245SOL    HW134460   2.813   5.823   0.565  0.3512  0.7297  2.2935
74245SOL    HW234461   2.685   5.743   0.552 -0.6384  2.5503  0.1186
74246SOL     OW34462   0.194  13.191   6.092  0.0536  0.0011  0.3912
74246SOL    HW134463   0.270  13.247   6.076 -0.1862  0.0857 -0.4985
74246SOL    HW234464   0.221  13.134   6.164  0.3997  1.0677  1.1327
74247SOL     OW34465   8.637   5.570   8.139  0.2210  0.6147 -0.0974
74247SOL    HW134466   8.631   5.624   8.217  0.9254 -0.8585  1.0291
74247SOL    HW234467   8.725   5.533   8.142  0.4096  0.8368 -1.8139
74248SOL     OW34468  12.473   7.025   1.944  0.0372  0.2886 -0.0918
74248SOL    HW134469  12.380   7.042   1.928  0.6103  3.2800 -1.0592
74248SOL    HW234470  12.481   7.025   2.039 -0.8422  1.0362  0.0061
74249SOL     OW34471   4.429  10.760   3.630  0.1195 -0.1821 -0.0477
74249SOL    HW134472   4.342  10.758   3.591 -0.2520 -0.8369  0.7955
74249SOL    HW234473   4.477  10.826   3.579 -1.3085  1.2781  0.4253
74250SOL     OW34474   6.024  13.599   5.760 -0.2783 -0.2638 -0.2192
74250SOL    HW134475   6.118  13.590   5.744 -0.3459 -0.3088 -0.6062
74250SOL    HW234476   5.987  13.618   5.674 -0.6973 -0.8674 -0.1807
74251SOL     OW34477   2.408   2.713   3.449  0.3863  0.5716  0.1768
74251SOL    HW134478   2.355   2.647   3.403 -0.9087  1.3536  0.5005
74251SOL    HW234479   2.410   2.788   3.390 -1.1485  1.5259  1.2668
74252SOL     OW34480   8.787  11.753   5.660  0.3360 -0.7276 -0.1545
74252SOL    HW134481   8.754  11.800   5.736  0.7497 -0.5216 -0.0982
74252SOL    HW234482   8.757  11.804   5.585  0.2538 -0.7178 -0.1146
74253SOL     OW34483   2.594   3.886   4.489 -0.1059 -0.3294 -0.4301
74253SOL    HW134484   2.581   3.807   4.541 -0.6118  0.8284  1.2653
74253SOL    HW234485   2.675   3.924   4.523 -0.8546  0.8564  0.0898
74254SOL     OW34486   8.403   5.724  11.338 -0.0222 -0.2243 -0.2193
74254SOL    HW134487   8.348   5.681  11.402  1.6492 -0.3847  1.1889
74254SOL    HW234488   8.381   5.817  11.344 -0.0235 -0.2688  0.4421
74255SOL     OW34489  12.563  13.581   3.153  0.7025 -0.4304 -0.0432
74255SOL    HW134490  12.582  13.675   3.160  0.2497 -0.4455  2.0578
74255SOL    HW234491  12.628  13.539   3.209  0.5279 -1.3321 -0.4920
74256SOL     OW34492   4.326   3.319   7.144  0.5873 -0.2117  0.2392
74256SOL    HW134493   4.230   3.321   7.154  0.5444 -0.0024 -0.1894
74256SOL    HW234494   4.359   3.319   7.233  0.1547 -2.2560  0.4572
74257SOL     OW34495  13.526  13.236  12.712  0.4585  0.4690 -0.0925
74257SOL    HW134496  13.449  13.266  12.664 -0.6702  0.3020  1.5675
74257SOL    HW234497  13.529  13.142  12.697 -0.3501  0.2970  0.7831
74258SOL     OW34498   7.048  12.446  13.599 -0.5266 -0.2657 -0.3146
74258SOL    HW134499   7.048  12.410  13.689 -2.3447 -1.3582 -0.7069
74258SOL    HW234500   7.124  12.505  13.598 -0.3035 -0.3987  1.8629
74259SOL     OW34501  12.380  11.039   3.280  0.3782 -0.0120 -0.1904
74259SOL    HW134502  12.441  10.967   3.293 -2.3019 -2.2831  0.8880
74259SOL    HW234503  12.347  11.026   3.190 -0.5271 -0.5633  0.2004
74260SOL     OW34504   5.401  10.593   8.675 -0.1407 -0.2423 -0.4278
74260SOL    HW134505   5.305  10.596   8.677 -0.2018 -0.7330  2.2287
74260SOL    HW234506   5.427  10.648   8.750  1.4955 -2.3646  0.6548
74261SOL     OW34507   3.536  10.700   4.312  0.1164 -0.3730 -0.6990
74261SOL    HW134508   3.461  10.664   4.361  0.9678 -2.1626 -0.6127
74261SOL    HW234509   3.602  10.631   4.317  1.4400  0.7869 -1.5758
74262SOL     OW34510   7.816   8.254   8.012 -0.3449 -0.0753 -0.0984
74262SOL    HW134511   7.862   8.315   8.068  0.1912 -0.0079 -0.6080
74262SOL    HW234512   7.791   8.305   7.935 -0.3556 -0.3636 -0.2891
74263SOL     OW34513  10.236  12.099   3.945  0.2265  0.2261  0.4161
74263SOL    HW134514  10.230  12.191   3.968 -1.1418  0.2430  0.0615
74263SOL    HW234515  10.183  12.054   4.010 -1.0149 -0.0546 -0.7451
74264SOL     OW34516  12.768   8.265  10.533  0.4662  0.2195  0.0101
74264SOL    HW134517  12.725   8.324  10.471 -0.8602 -0.8727 -0.1669
74264SOL    HW234518  12.714   8.270  10.612  0.3914 -0.6386  0.0292
74265SOL     OW34519   7.262   9.050   2.830 -0.2019 -0.3720  0.4735
74265SOL    HW134520   7.176   9.064   2.791 -0.3496  1.7233  1.4207
74265SOL    HW234521   7.256   8.963   2.870 -1.1356 -1.1597 -1.2638
74266SOL     OW34522   2.468   2.691   0.737 -0.4076  0.7564  0.3798
74266SOL    HW134523   2.382   2.732   0.731 -0.4356  1.2701  3.0163
74266SOL    HW234524   2.461   2.630   0.811  1.0575 -0.3399 -0.3278
74267SOL     OW34525  10.511  13.290   0.738  0.6839  0.2757 -0.0135
74267SOL    HW134526  10.523  13.304   0.644  2.5317  3.5878  0.5821
74267SOL    HW234527  10.547  13.202   0.753  1.6198  0.2117 -2.1892
74268SOL     OW34528   6.172   1.951  10.135  0.3321  0.3086 -0.2716
74268SOL    HW134529   6.093   1.971  10.085  0.9310  1.4435 -0.8129
74268SOL    HW234530   6.187   1.858  10.121 -1.7083 -0.2942  1.0352
74269SOL     OW34531  12.322   3.287   3.394  0.0577 -0.8719 -0.1059
74269SOL    HW134532  12.267   3.270   3.318  1.7676  0.2586 -1.6843
74269SOL    HW234533  12.392   3.343   3.361  1.0924 -0.6587  2.2347
74270SOL     OW34534   5.081   2.786   7.875 -0.4827  0.7202 -0.2813
74270SOL    HW134535   5.135   2.848   7.825 -0.3842  1.0659  0.2441
74270SOL    HW234536   5.017   2.754   7.812  0.5504  0.0381 -1.0163
74271SOL     OW34537  10.540   7.073   1.889  0.1971  0.1904 -0.2712
74271SOL    HW134538  10.516   6.993   1.841  0.9967 -1.3806  1.7796
74271SOL    HW234539  10.574   7.131   1.821  1.0055 -1.7997 -1.7006
74272SOL     OW34540  11.886   1.172   4.104  0.1371 -0.0004 -0.4745
74272SOL    HW134541  11.957   1.236   4.110  0.8016 -0.7567  0.1309
74272SOL    HW234542  11.816   1.217   4.057  0.5215  1.2143  0.0760
74273SOL     OW34543   1.080   1.179   7.456  0.7313 -0.5281 -0.2307
74273SOL    HW134544   1.003   1.213   7.410  0.8618  0.3985  0.2288
74273SOL    HW234545   1.137   1.255   7.467  1.1965 -0.9715  0.4732
74274SOL     OW34546  12.976   3.069  12.867  0.3493  0.5622  0.2688
74274SOL    HW134547  12.917   3.001  12.836  1.0130 -0.1172  0.4569
74274SOL    HW234548  12.931   3.151  12.848 -1.1544  0.0482  1.4264
74275SOL     OW34549   6.155   2.226   6.443  0.1494 -0.9098  0.2429
74275SOL    HW134550   6.212   2.188   6.376  0.1680  0.2113 -0.4092
74275SOL    HW234551   6.070   2.234   6.400 -0.0252 -0.8458  0.5947
74276SOL     OW34552   1.080   5.658   4.801  0.4523 -0.0429 -0.0671
74276SOL    HW134553   1.135   5.599   4.750  1.3860  0.3894  0.4000
74276SOL    HW234554   1.012   5.602   4.839  0.0828 -0.4531 -1.3051
74277SOL     OW34555  13.156   6.516  11.813  0.4750  0.0973 -0.1287
74277SOL    HW134556  13.086   6.470  11.859  0.9300 -1.6066 -1.0915
74277SOL    HW234557  13.111   6.561  11.741 -0.1930  2.5174  1.6561
74278SOL     OW34558   1.655  11.294  12.530 -0.5168  0.3985 -0.0547
74278SOL    HW134559   1.712  11.370  12.539 -0.5462  0.2855  1.3812
74278SOL    HW234560   1.679  11.255  12.446  0.1570  1.4428 -0.3664
74279SOL     OW34561   6.301  13.522   6.641 -0.5205 -0.1262 -0.0543
74279SOL    HW134562   6.221  13.573   6.649 -0.6750 -0.0599 -1.6451
74279SOL    HW234563   6.362  13.580   6.595 -0.1646 -0.7928 -0.4481
74280SOL     OW34564   4.349   8.130   0.004  0.5586 -0.0631  0.8294
74280SOL    HW134565   4.425   8.108  -0.049 -0.6717 -0.7432 -0.7255
74280SOL    HW234566   4.298   8.191  -0.050 -1.4278 -1.8351  0.5596
74281SOL     OW34567   0.669   1.430   6.829  0.3498 -0.4146  0.6046
74281SOL    HW134568   0.663   1.506   6.887  0.1986  0.1163 -0.0913
74281SOL    HW234569   0.760   1.401   6.835  0.5400  0.1444  0.4800
74282SOL     OW34570   3.059  13.334   7.381  0.6139  0.5019  0.1727
74282SOL    HW134571   3.037  13.248   7.346  0.8608  0.4897  0.0430
74282SOL    HW234572   2.995  13.393   7.341 -0.6634  0.1303  1.6107
74283SOL     OW34573  13.336  10.091   2.869  0.2110 -0.0168 -0.2980
74283SOL    HW134574  13.313  10.178   2.902  2.6063  1.2791 -1.7972
74283SOL    HW234575  13.266  10.070   2.807 -0.8284  0.4291  0.6838
74284SOL     OW34576   9.461  10.111   4.851 -0.0416 -0.7853  0.1907
74284SOL    HW134577   9.521  10.078   4.785 -0.4822 -0.5234 -0.3474
74284SOL    HW234578   9.374  10.101   4.812 -0.4834 -2.3993  1.4834
74285SOL     OW34579   2.597  12.440   5.052  0.4325 -0.1040  0.2172
74285SOL    HW134580   2.625  12.473   5.138  1.3004 -1.1002  0.3374
74285SOL    HW234581   2.595  12.518   4.996 -1.8389  0.8511  1.5304
74286SOL     OW34582   5.116   2.188   5.916 -0.9863  0.2443 -0.4845
74286SOL    HW134583   5.151   2.123   5.855 -0.4932 -0.0471  0.0950
74286SOL    HW234584   5.128   2.272   5.871 -1.3390 -0.0332 -1.1055
74287SOL     OW34585   6.969   7.226   9.231 -0.4392  0.5374 -0.0120
74287SOL    HW134586   6.952   7.282   9.155  3.5169 -0.4990 -1.9182
74287SOL    HW234587   6.927   7.143   9.209 -0.4783  0.6629 -0.4317
74288SOL     OW34588   6.735   2.461  11.847  0.0661  0.0289  0.2429
74288SOL    HW134589   6.734   2.556  11.835  0.0400  0.2103  1.5633
74288SOL    HW234590   6.826   2.436  11.827 -0.0279  0.2543 -0.5180
74289SOL     OW34591  12.027  13.515   9.420 -0.0513  0.1750 -0.6672
74289SOL    HW134592  12.057  13.590   9.369  0.1045  0.5185 -0.0760
74289SOL    HW234593  12.107  13.473   9.451 -0.1457  0.3262 -0.1996
74290SOL     OW34594   6.036   0.554  11.637 -0.3197  0.6256  0.1345
74290SOL    HW134595   6.067   0.473  11.677 -0.1273  1.1783  1.1251
74290SOL    HW234596   6.040   0.619  11.707 -1.4783  1.2548 -0.3539
74291SOL     OW34597   7.400  13.638  11.178  0.2220  0.0915  0.2849
74291SOL    HW134598   7.490  13.605  11.179 -0.2236 -1.1839  0.2084
74291SOL    HW234599   7.381  13.659  11.269 -0.1032 -1.6844  0.6566
74292SOL     OW34600   9.995   4.231  12.888  0.0181  0.3598 -0.3769
74292SOL    HW134601  10.062   4.181  12.936  1.0014  1.1553 -0.8943
74292SOL    HW234602   9.913   4.208  12.932  0.5627 -0.9537  0.0154
74293SOL     OW34603  13.700   9.125  12.486  0.3693  0.2474  0.3283
74293SOL    HW134604  13.709   9.030  12.482 -1.6050 -0.0101  0.8585
74293SOL    HW234605  13.684   9.144  12.578  1.6916  1.2396  0.3879
74294SOL     OW34606  12.255   1.630   4.489 -0.3326 -0.2619 -0.5676
74294SOL    HW134607  12.216   1.624   4.577  0.6615 -0.8882 -0.1528
74294SOL    HW234608  12.347   1.607   4.502 -0.2965 -0.9501 -1.8743
74295SOL     OW34609   3.764  10.155   8.585 -0.3082  0.0108  0.8018
74295SOL    HW134610   3.716  10.166   8.503 -1.0075  2.9992  1.5130
74295SOL    HW234611   3.746  10.064   8.610  0.0592 -1.0722 -2.3417
74296SOL     OW34612   4.493   3.515   0.778  0.0986 -0.6292  0.6282
74296SOL    HW134613   4.577   3.560   0.783  0.1456 -0.4841 -0.9303
74296SOL    HW234614   4.476   3.485   0.867  0.9556  0.8491  1.3179
74297SOL     OW34615   3.195   8.973   7.274  0.0860 -0.5016 -0.3387
74297SOL    HW134616   3.235   9.056   7.247 -1.3216  0.3633  0.1326
74297SOL    HW234617   3.240   8.907   7.222  4.4831 -0.0695  2.3868
74298SOL     OW34618   1.259   4.467  12.941 -0.5220 -0.1345  1.1028
74298SOL    HW134619   1.287   4.467  13.032  1.1975 -1.6615  0.6226
74298SOL    HW234620   1.328   4.515  12.894 -1.7117  1.2168  0.6526
74299SOL     OW34621   0.027   6.949  12.549 -0.3968  0.0896  0.2522
74299SOL    HW134622  -0.042   7.004  12.585  1.3636  1.0456  2.4330
74299SOL    HW234623   0.100   7.009  12.533  0.2494 -1.0031 -1.2015
74300SOL     OW34624   2.837  13.174   0.891 -0.1803 -0.0505  0.8399
74300SOL    HW134625   2.907  13.116   0.862  1.4446  2.6976 -1.2472
74300SOL    HW234626   2.760  13.143   0.843  0.3242 -1.2095  0.7436
74301SOL     OW34627   5.361   3.419  12.302 -0.1407 -0.1017 -0.0724
74301SOL    HW134628   5.295   3.366  12.345  1.2868 -1.7943  0.1368
74301SOL    HW234629   5.385   3.485  12.368  0.7897 -1.6011  1.1616
74302SOL     OW34630   0.934   1.483  10.437  0.3995 -0.1672  0.0922
74302SOL    HW134631   0.875   1.460  10.509 -1.3039 -0.3407 -1.3016
74302SOL    HW234632   0.906   1.428  10.364 -0.3759  2.5272 -1.7949
74303SOL     OW34633   2.384   6.832   1.796 -0.4163  0.3060  0.1461
74303SOL    HW134634   2.385   6.839   1.700  0.5362  0.6843  0.1740
74303SOL    HW234635   2.472   6.858   1.823  0.2281 -2.3878  0.9484
74304SOL     OW34636   9.453   2.549   5.050 -0.2378 -0.0567 -0.3593
74304SOL    HW134637   9.400   2.626   5.070 -0.6173 -0.4205  0.0673
74304SOL    HW234638   9.423   2.483   5.113  0.5799 -0.3324 -0.2510
74305SOL     OW34639   6.441  10.424   8.679  0.0939  0.0006 -0.5630
74305SOL    HW134640   6.417  10.507   8.720  1.0834  0.3954 -0.7667
74305SOL    HW234641   6.357  10.385   8.655 -0.4466  0.4054  0.5510
74306SOL     OW34642   4.691  10.693   4.178  0.5101 -0.2934 -0.1591
74306SOL    HW134643   4.630  10.761   4.149  1.0232 -0.6169 -2.1212
74306SOL    HW234644   4.683  10.624   4.112  1.2842 -1.3840  0.8408
74307SOL     OW34645   1.951   7.104   6.897  0.1753  0.6630  0.1469
74307SOL    HW134646   2.002   7.029   6.926 -1.2279 -0.8989 -1.2401
74307SOL    HW234647   1.891   7.122   6.970  1.6674  1.6195  1.2022
74308SOL     OW34648   8.903   4.843   9.223  0.5006  0.3692  0.1000
74308SOL    HW134649   8.853   4.764   9.245 -1.9290  1.3500 -1.4403
74308SOL    HW234650   8.968   4.813   9.159  0.5635 -0.5892  0.5838
74309SOL     OW34651   5.510   3.847   2.655  0.0447  0.0951 -0.4700
74309SOL    HW134652   5.506   3.756   2.625  1.0908  0.3817 -1.5549
74309SOL    HW234653   5.603   3.870   2.648 -0.1469  1.1261  0.1851
74310SOL     OW34654   0.237   6.537   9.450  0.1546  0.5713  0.0706
74310SOL    HW134655   0.220   6.529   9.356  0.6643 -0.0428  0.0258
74310SOL    HW234656   0.150   6.545   9.489 -0.1298 -0.3131 -0.3547
74311SOL     OW34657   8.132   4.087   9.581  0.2060 -0.0434 -0.1441
74311SOL    HW134658   8.057   4.030   9.564  0.3878 -0.5062  0.5679
74311SOL    HW234659   8.132   4.100   9.676  1.1571 -0.2376 -0.1035
74312SOL     OW34660   9.600  13.158   1.304  0.8008 -0.1819 -0.4007
74312SOL    HW134661   9.626  13.158   1.396 -0.9217 -0.3483  0.1203
74312SOL    HW234662   9.576  13.067   1.286 -0.4205  0.1593 -0.5406
74313SOL     OW34663   2.180   7.865  12.978 -0.1146  0.1466  0.1919
74313SOL    HW134664   2.263   7.900  12.946 -0.5260 -0.3185 -1.5352
74313SOL    HW234665   2.114   7.925  12.943 -0.6446 -0.8303 -0.5487
74314SOL     OW34666   1.929   3.281   7.562  0.5316  0.2810  0.4559
74314SOL    HW134667   2.017   3.305   7.532 -0.4344  3.3821 -0.2219
74314SOL    HW234668   1.924   3.186   7.548  3.3454  0.1922 -0.5636
74315SOL     OW34669  10.088  11.271   5.943 -0.4012 -0.4099 -0.5409
74315SOL    HW134670  10.118  11.184   5.916 -2.6648 -1.3230 -0.4003
74315SOL    HW234671  10.151  11.299   6.009 -0.2474 -2.5087  0.2905
74316SOL     OW34672   8.907  13.126  12.568 -0.5669 -0.0198 -0.6117
74316SOL    HW134673   8.818  13.097  12.549 -0.6601 -0.6242  0.6584
74316SOL    HW234674   8.905  13.220  12.552 -1.7365  0.1581  0.3972
74317SOL     OW34675  12.923  11.708  10.048  0.5399  0.1000 -0.0900
74317SOL    HW134676  12.908  11.682  10.139  0.7789  0.8158  0.1586
74317SOL    HW234677  12.881  11.793  10.040  1.5665  0.6036 -0.3081
74318SOL     OW34678   4.920  11.064  10.698  0.3861  0.1933  0.5354
74318SOL    HW134679   4.914  11.004  10.772  0.8281 -0.1938  0.2552
74318SOL    HW234680   4.854  11.131  10.717 -1.1102 -1.1110  0.1651
74319SOL     OW34681  10.420   6.498   0.547  0.3506  0.3303  0.1025
74319SOL    HW134682  10.457   6.586   0.558  1.1617  0.2280 -1.5445
74319SOL    HW234683  10.496   6.441   0.536 -0.0942 -0.8513  2.3972
74320SOL     OW34684  12.504   6.088   0.469 -0.6288  0.0782  0.2224
74320SOL    HW134685  12.458   6.171   0.458 -2.8389 -1.2242 -1.0870
74320SOL    HW234686  12.522   6.058   0.379 -0.4121 -1.1278  0.6475
74321SOL     OW34687   7.028   8.051  13.520  0.2909  0.0003  0.2906
74321SOL    HW134688   7.059   8.082  13.606  0.1776 -0.1343  0.3792
74321SOL    HW234689   7.079   7.972  13.504  0.5124  0.1767  0.1055
74322SOL     OW34690  12.590  11.726   9.585 -0.4420 -0.2295 -0.3276
74322SOL    HW134691  12.680  11.716   9.554  0.1943  2.6282  0.2829
74322SOL    HW234692  12.541  11.755   9.508 -0.0230  1.6135  0.0504
74323SOL     OW34693  10.146   8.269   8.038  0.5089 -0.3042  0.2824
74323SOL    HW134694  10.106   8.217   8.108 -0.4593 -1.0565 -0.7922
74323SOL    HW234695  10.131   8.218   7.958  1.0509  0.8209 -0.5724
74324SOL     OW34696   8.208   4.927   9.202 -0.1606  0.2942 -0.2753
74324SOL    HW134697   8.284   4.984   9.208  0.3408 -0.0675 -2.3547
74324SOL    HW234698   8.230   4.864   9.133 -2.3873  0.2813 -1.0804
74325SOL     OW34699   0.310   4.040   3.510 -0.0606 -0.0352 -0.2331
74325SOL    HW134700   0.243   4.059   3.576 -0.4904  0.3008 -0.7599
74325SOL    HW234701   0.272   3.970   3.457  0.9733 -1.5233  0.8861
74326SOL     OW34702   3.306   4.480  10.654 -0.4936  0.1674  0.3113
74326SOL    HW134703   3.263   4.562  10.631  0.0695  1.1584  2.5598
74326SOL    HW234704   3.234   4.417  10.663 -0.9182  0.3218 -1.5701
74327SOL     OW34705   9.236  12.843   9.202 -0.0541  0.0335  0.2790
74327SOL    HW134706   9.257  12.932   9.230 -0.8104  0.6303 -0.9826
74327SOL    HW234707   9.176  12.811   9.269 -0.6842  0.8958  0.1406
74328SOL     OW34708   5.265   7.206  11.437 -0.2200  0.6291 -0.1172
74328SOL    HW134709   5.215   7.221  11.518 -0.9070 -1.6799 -0.0578
74328SOL    HW234710   5.354   7.235  11.459 -0.2703 -0.3854  1.6670
74329SOL     OW34711   0.589   3.142   9.546 -0.6067 -0.2831  0.4354
74329SOL    HW134712   0.541   3.113   9.469  0.0264  0.7323 -0.3762
74329SOL    HW234713   0.593   3.065   9.602  0.1298 -1.4841 -1.1619
74330SOL     OW34714  11.609   2.718  10.593  0.2688  0.2155  0.2229
74330SOL    HW134715  11.659   2.745  10.670 -0.1624  3.0465 -0.3771
74330SOL    HW234716  11.551   2.792  10.575 -2.0974 -1.7595 -0.8456
74331SOL     OW34717   0.378   6.571   3.057 -0.3981 -0.5692 -0.2284
74331SOL    HW134718   0.438   6.500   3.035  1.4700  0.5165  1.0569
74331SOL    HW234719   0.381   6.577   3.152 -2.2736 -0.2133 -0.1605
74332SOL     OW34720   3.070   7.742  11.107  0.2999  0.0409 -0.4307
74332SOL    HW134721   2.992   7.718  11.056  0.0717  0.5680 -0.3305
74332SOL    HW234722   3.126   7.789  11.045 -0.2985  1.3265 -0.0219
74333SOL     OW34723   0.774   8.517  12.477 -0.7341 -0.3534  0.0079
74333SOL    HW134724   0.857   8.518  12.525 -0.6600 -0.5293 -0.1160
74333SOL    HW234725   0.784   8.447  12.412 -1.7995 -1.8927  1.4351
74334SOL     OW34726   2.137   4.025   7.662 -0.1121 -0.2073 -0.6347
74334SOL    HW134727   2.189   3.976   7.598  0.5739  0.1832 -0.3894
74334SOL    HW234728   2.094   3.958   7.714 -0.2190 -0.5328 -1.1312
74335SOL     OW34729  11.962   3.547   3.252  0.1222 -0.5089 -0.7281
74335SOL    HW134730  11.924   3.465   3.220 -0.5464 -0.5487  0.1311
74335SOL    HW234731  12.027   3.520   3.316  0.4025 -0.3923 -0.9652
74336SOL     OW34732   3.201   8.462   2.356 -0.0914 -0.2972  0.0591
74336SOL    HW134733   3.290   8.492   2.375 -0.2212 -0.2880  0.6871
74336SOL    HW234734   3.171   8.519   2.285 -0.2052  0.8436  0.9946
74337SOL     OW34735  11.271   4.310   1.251 -0.0959 -0.4018 -0.3328
74337SOL    HW134736  11.367   4.306   1.255  0.2392 -0.6775 -4.2220
74337SOL    HW234737  11.253   4.374   1.182 -2.7765 -0.0902  0.5395
74338SOL     OW34738   9.622  11.746   8.627 -0.1114 -0.4398  0.5788
74338SOL    HW134739   9.710  11.770   8.598 -0.0839 -0.7958  0.3509
74338SOL    HW234740   9.635  11.700   8.709 -0.2792  1.5755  1.8032
74339SOL     OW34741   1.198   5.359  10.911  0.3931  0.6470 -0.3771
74339SOL    HW134742   1.151   5.337  10.991  0.4423 -0.7799 -0.7073
74339SOL    HW234743   1.143   5.424  10.867 -0.5282  0.1081 -0.0405
74340SOL     OW34744   4.518  11.457   1.137  0.1092  0.0533  0.3467
74340SOL    HW134745   4.489  11.400   1.066  0.2951 -0.1530  0.4330
74340SOL    HW234746   4.470  11.539   1.124  0.0825 -0.0117  0.0325
74341SOL     OW34747   9.093   4.852   0.805 -1.2553 -0.4857  0.2692
74341SOL    HW134748   9.169   4.890   0.849  0.8358 -2.2006 -1.6249
74341SOL    HW234749   9.029   4.923   0.802  1.1969  1.8689 -0.2117
74342SOL     OW34750   6.664   1.815   7.629  0.1314  0.4783  0.0837
74342SOL    HW134751   6.703   1.897   7.660  0.4977  0.1884  0.3961
74342SOL    HW234752   6.638   1.834   7.539 -0.1051  1.0456  0.2631
74343SOL     OW34753   1.224  13.456   5.759  0.5892  0.7334  0.2294
74343SOL    HW134754   1.153  13.450   5.694 -0.1272 -2.9198  1.0856
74343SOL    HW234755   1.304  13.444   5.708  0.4090  2.0235 -0.4018
74344SOL     OW34756   2.549  12.850  11.940  0.0681  0.9041 -0.2157
74344SOL    HW134757   2.613  12.878  11.874 -0.1352  3.0528  0.4285
74344SOL    HW234758   2.479  12.808  11.889  0.6817  1.0466 -1.2047
74345SOL     OW34759  12.869   8.205   8.193  0.1734  0.1248  0.1674
74345SOL    HW134760  12.886   8.281   8.137  1.6632  0.2712  0.7695
74345SOL    HW234761  12.897   8.130   8.141  0.6423  0.1774  0.3378
74346SOL     OW34762  13.393  12.362   4.766 -0.2476  0.7945 -0.6732
74346SOL    HW134763  13.351  12.333   4.685  0.4472  1.3488 -1.2552
74346SOL    HW234764  13.436  12.445   4.742  1.5748  0.0252 -0.2603
74347SOL     OW34765   7.234  12.336   4.285  0.1642 -0.4810 -0.4230
74347SOL    HW134766   7.173  12.352   4.212  0.2910  0.1928 -0.3892
74347SOL    HW234767   7.292  12.268   4.252 -0.1835 -0.6480 -0.7089
74348SOL     OW34768   9.328   8.332   0.399  0.8051  0.5568  0.2362
74348SOL    HW134769   9.401   8.393   0.407  0.6176  0.8311 -0.0766
74348SOL    HW234770   9.255   8.386   0.367  0.6360  0.1685 -0.0499
74349SOL     OW34771   3.781  12.982   1.534  0.4180 -0.0608  0.7017
74349SOL    HW134772   3.726  12.938   1.469 -0.1526 -2.4484  2.6512
74349SOL    HW234773   3.862  12.932   1.535  0.6951  0.3947  1.3159
74350SOL     OW34774   2.733  10.743   0.930  0.0627 -0.2062  0.2037
74350SOL    HW134775   2.737  10.656   0.892 -1.4925  0.3411 -1.3085
74350SOL    HW234776   2.824  10.774   0.928  0.5685 -1.6045  0.3881
74351SOL     OW34777   2.822   9.733  12.009  0.0314 -0.2135 -0.3990
74351SOL    HW134778   2.780   9.730  11.924  0.4890  1.3072 -0.7207
74351SOL    HW234779   2.755   9.705  12.071 -0.0350 -2.2125 -1.3237
74352SOL     OW34780   6.391   9.530  10.718 -0.2184  0.4595  0.3186
74352SOL    HW134781   6.381   9.613  10.672 -0.4531  0.9253  1.1790
74352SOL    HW234782   6.316   9.527  10.778 -1.6823 -1.5803 -1.4795
74353SOL     OW34783  13.254   5.617  12.780 -0.1679  0.9524  0.1234
74353SOL    HW134784  13.272   5.693  12.724 -0.8782  0.8282 -0.2763
74353SOL    HW234785  13.248   5.653  12.869 -0.8009  1.4072 -0.1024
74354SOL     OW34786   2.374   6.483   8.415 -0.3887  0.1610  0.4152
74354SOL    HW134787   2.459   6.450   8.444 -0.5507  0.3935  1.1644
74354SOL    HW234788   2.320   6.483   8.493 -1.1514 -0.1776 -0.0974
74355SOL     OW34789   5.689  10.282   6.636 -0.2256  0.4834  0.5447
74355SOL    HW134790   5.773  10.254   6.598 -0.2326  0.8207  0.2782
74355SOL    HW234791   5.660  10.206   6.686 -1.1698 -0.7370 -1.6761
74356SOL     OW34792  11.125  13.104  13.501 -0.6316 -0.3317 -0.6853
74356SOL    HW134793  11.093  13.128  13.588 -1.3393 -0.3759 -0.9229
74356SOL    HW234794  11.074  13.027  13.477  0.9672 -1.5537 -0.3185
74357SOL     OW34795   4.510  13.676   2.431  0.4219 -0.4572  0.3114
74357SOL    HW134796   4.432  13.721   2.465  1.0766 -1.3560  3.2746
74357SOL    HW234797   4.480  13.636   2.349 -1.1697  2.2125 -0.5409
74358SOL     OW34798   5.276  10.926  12.749  0.1900  0.6602  0.3355
74358SOL    HW134799   5.241  10.879  12.825 -0.2687  0.6334  0.1116
74358SOL    HW234800   5.198  10.952  12.700  0.5267 -1.2183 -1.2901
74359SOL     OW34801   3.520   4.391  12.577 -0.0753  0.5921  0.2005
74359SOL    HW134802   3.444   4.350  12.617  1.3288 -1.6676  0.7613
74359SOL    HW234803   3.504   4.387  12.483 -0.5561 -0.0209  0.3089
74360SOL     OW34804   2.038  11.515  12.993  0.5471 -0.2406 -0.2709
74360SOL    HW134805   1.958  11.517  12.939 -1.0960  2.3348  1.9872
74360SOL    HW234806   2.014  11.463  13.069  1.3013 -0.1283  0.0489
74361SOL     OW34807  10.517   9.830  11.074  0.5464 -0.0853  0.4934
74361SOL    HW134808  10.427   9.820  11.106  0.7285  0.5706  1.2329
74361SOL    HW234809  10.536   9.923  11.083  1.0179 -0.0860 -0.4414
74362SOL     OW34810  13.172   3.555   4.858  0.1953 -0.0032 -0.7489
74362SOL    HW134811  13.120   3.599   4.791 -2.2876 -1.0232  0.3886
74362SOL    HW234812  13.195   3.624   4.920 -1.8588  0.1413 -0.0736
74363SOL     OW34813   2.900   2.317   9.048  0.2396  0.0131  0.1623
74363SOL    HW134814   2.984   2.285   9.080 -0.0541  0.0916  1.0402
74363SOL    HW234815   2.835   2.275   9.104 -0.3098 -0.0418 -0.5045
74364SOL     OW34816   9.675  12.036   2.128  0.1701  0.2773 -0.6714
74364SOL    HW134817   9.748  12.026   2.067  1.0893 -0.3294  0.4846
74364SOL    HW234818   9.703  12.105   2.187 -0.3441  0.2782 -0.4248
74365SOL     OW34819   3.263   4.056   9.607  0.3514  0.4887  0.3875
74365SOL    HW134820   3.309   4.005   9.541 -0.3664  0.7270 -0.3129
74365SOL    HW234821   3.223   4.128   9.558 -0.1153  0.7167  1.0921
74366SOL     OW34822   1.738   1.560  12.501 -0.0177 -0.2557  0.0404
74366SOL    HW134823   1.825   1.553  12.542 -0.3457 -0.2004  0.7634
74366SOL    HW234824   1.708   1.470  12.492  0.6079 -0.3482 -1.3185
74367SOL     OW34825  10.806   7.341   7.239  0.3397  0.0432  0.4974
74367SOL    HW134826  10.715   7.316   7.225  0.4711 -0.3906  0.4003
74367SOL    HW234827  10.843   7.270   7.291  0.7402 -0.0130  0.1453
74368SOL     OW34828   0.925   7.391   5.388  0.1556  0.8051  0.4775
74368SOL    HW134829   0.875   7.382   5.469  1.3077 -1.0456  1.0395
74368SOL    HW234830   0.862   7.373   5.319 -0.3729  0.3445  1.0684
74369SOL     OW34831   9.244   1.881   2.188 -0.2324  0.8857  0.1937
74369SOL    HW134832   9.258   1.974   2.174 -0.5583  0.7538 -1.1637
74369SOL    HW234833   9.150   1.868   2.176 -0.1546  0.3418  0.1188
74370SOL     OW34834   6.033   7.075  11.324  0.3583 -0.4642  0.3290
74370SOL    HW134835   6.119   7.105  11.295 -0.1454 -1.3330 -2.3745
74370SOL    HW234836   6.048   6.986  11.357  0.7114 -0.0529  1.2879
74371SOL     OW34837  10.740   6.012  11.790  0.4025 -0.1345  0.0653
74371SOL    HW134838  10.653   6.016  11.752 -0.2931  0.9836  1.6690
74371SOL    HW234839  10.790   6.080  11.744  1.0638 -2.0205 -2.1870
74372SOL     OW34840   4.458   2.551   0.608  0.0151  0.1542 -0.0819
74372SOL    HW134841   4.480   2.485   0.674 -0.3067  0.5383  0.4144
74372SOL    HW234842   4.543   2.578   0.573  0.1975  0.0246  0.2551
74373SOL     OW34843  10.238   6.102   6.067 -0.1369 -0.6039 -0.2221
74373SOL    HW134844  10.325   6.065   6.082  0.7695  0.5357 -2.2537
74373SOL    HW234845  10.253   6.197   6.061 -1.3566 -0.4567 -1.4625
74374SOL     OW34846   0.905   0.334   6.671  0.4816  0.2934 -0.4314
74374SOL    HW134847   0.956   0.374   6.600  3.3854 -0.8689  0.8765
74374SOL    HW234848   0.922   0.390   6.747 -0.7051  0.2013 -0.0821
74375SOL     OW34849   2.611  11.858  12.724  0.3765  0.1699 -0.2260
74375SOL    HW134850   2.555  11.895  12.792  0.7967  0.0161  0.1998
74375SOL    HW234851   2.691  11.832  12.769  0.3965 -0.5420 -0.6599
74376SOL     OW34852   1.041  11.007   9.483  0.4088  0.4901 -0.1153
74376SOL    HW134853   1.120  11.056   9.507 -0.0705  1.2803 -0.1037
74376SOL    HW234854   1.073  10.930   9.436  1.3298 -0.5896  2.1485
74377SOL     OW34855   8.418   9.272  12.212  0.2445  0.3179  0.4839
74377SOL    HW134856   8.386   9.361  12.199 -1.4880 -0.2329  0.7600
74377SOL    HW234857   8.340   9.217  12.209  1.1353 -1.0849  1.4430
74378SOL     OW34858   9.124   4.076   2.188  0.2240  0.7581  0.0786
74378SOL    HW134859   9.049   4.066   2.130  0.8730 -1.1985 -0.4774
74378SOL    HW234860   9.187   4.010   2.159  1.9588  1.9669  0.8839
74379SOL     OW34861   2.325   6.858   2.193 -0.8120  0.6482  0.2016
74379SOL    HW134862   2.255   6.859   2.128 -0.7794  0.5365  0.1655
74379SOL    HW234863   2.391   6.799   2.157 -0.8684  0.4536  0.4165
74380SOL     OW34864   1.011   4.714   8.085 -0.4466  0.5191  0.1530
74380SOL    HW134865   1.102   4.686   8.074 -0.2528  1.2160 -0.0734
74380SOL    HW234866   0.998   4.716   8.179 -0.8208 -1.4005  0.1971
74381SOL     OW34867   9.387   7.078   7.212 -0.0815 -0.5465  0.1732
74381SOL    HW134868   9.369   6.998   7.261 -0.1524 -0.0018  1.0544
74381SOL    HW234869   9.434   7.134   7.274  1.4418 -0.5286 -0.9307
74382SOL     OW34870   4.559   2.743  13.244  0.1950  0.3018  0.2240
74382SOL    HW134871   4.613   2.664  13.250  0.5274  0.4038 -1.1822
74382SOL    HW234872   4.605   2.799  13.183 -0.4076  1.3050  0.6666
74383SOL     OW34873   0.586   2.839   6.732  0.1168  0.4784 -0.2125
74383SOL    HW134874   0.588   2.912   6.794 -1.0071  0.2181  0.1521
74383SOL    HW234875   0.498   2.842   6.694 -0.1574 -1.0267  0.2283
74384SOL     OW34876   0.083   6.038   8.765 -0.9019 -0.3208 -0.5444
74384SOL    HW134877   0.103   6.118   8.718 -1.0481  1.9223  2.8213
74384SOL    HW234878  -0.013   6.032   8.763 -1.0158  0.6872  0.7110
74385SOL     OW34879   6.025  11.290   4.044 -0.5096 -0.1522  0.3354
74385SOL    HW134880   6.038  11.333   4.129  0.1204 -0.4653  0.3987
74385SOL    HW234881   5.976  11.210   4.065  0.7148 -0.8693  0.5826
74386SOL     OW34882  10.170   8.124   7.607  0.1535 -0.0196  0.4280
74386SOL    HW134883  10.189   8.031   7.620  1.4166  0.0603 -0.6218
74386SOL    HW234884  10.197   8.142   7.516  0.7101  1.5506  0.8605
74387SOL     OW34885  10.305   8.714  13.261  0.0312 -0.8937 -0.2388
74387SOL    HW134886  10.385   8.767  13.257  0.1653 -0.9176  1.2794
74387SOL    HW234887  10.337   8.625  13.280 -0.3563 -0.6525  1.8644
74388SOL     OW34888   5.114   2.398   3.645 -0.1167 -0.5496  0.1494
74388SOL    HW134889   5.078   2.402   3.734 -0.0545 -1.0799  0.1966
74388SOL    HW234890   5.081   2.316   3.609  0.0430 -0.4436 -0.2389
74389SOL     OW34891   4.351  12.675   1.471  0.0471 -0.1298  0.1271
74389SOL    HW134892   4.393  12.688   1.556 -0.2165  1.7196  0.0150
74389SOL    HW234893   4.382  12.747   1.417 -1.6199  0.0869 -0.6136
74390SOL     OW34894  12.832   6.550   6.213  0.5100 -0.3383  0.3248
74390SOL    HW134895  12.889   6.573   6.287  0.4495  1.2765 -0.0962
74390SOL    HW234896  12.818   6.456   6.222  2.7949 -0.7012  0.7633
74391SOL     OW34897   1.735   9.384   3.667 -0.0057 -0.0137  0.1828
74391SOL    HW134898   1.783   9.427   3.737 -0.0885 -0.2548  0.3881
74391SOL    HW234899   1.800   9.329   3.623 -0.2150 -0.7797  0.8165
74392SOL     OW34900   2.754   0.227  10.721  0.2775 -0.0903  0.1196
74392SOL    HW134901   2.818   0.287  10.759  2.2309 -0.6209 -2.1124
74392SOL    HW234902   2.795   0.141  10.727 -0.7535 -0.6313 -0.2908
74393SOL     OW34903   1.999   3.978   5.785  0.2725 -0.2642 -0.2685
74393SOL    HW134904   2.057   4.013   5.717 -0.6416 -0.8602 -1.4065
74393SOL    HW234905   2.019   3.885   5.787  0.6136 -0.1803  0.6324
74394SOL     OW34906   8.021  10.360   9.681  0.1696  0.1412 -0.4730
74394SOL    HW134907   7.977  10.442   9.702 -0.0052  0.2557 -1.2578
74394SOL    HW234908   8.015  10.353   9.586  0.6269 -0.5323 -0.4601
74395SOL     OW34909  10.013  11.480   2.467  0.6301 -0.1149 -0.3458
74395SOL    HW134910   9.958  11.504   2.392 -0.5633 -0.1803  0.4836
74395SOL    HW234911   9.997  11.387   2.480 -0.4331  0.2255  0.9735
74396SOL     OW34912   2.938  13.344   4.404  0.0200  0.4763  0.7121
74396SOL    HW134913   2.860  13.291   4.387  1.7978 -2.0836 -0.1032
74396SOL    HW234914   2.907  13.434   4.401 -2.7727 -0.4177 -0.2827
74397SOL     OW34915   7.866   3.576   5.007 -0.6240  0.4436  0.8543
74397SOL    HW134916   7.824   3.496   4.976  0.1871 -0.3480  1.7500
74397SOL    HW234917   7.843   3.581   5.100 -0.0661  0.8705  0.9735
74398SOL     OW34918   9.081   9.707   3.205 -0.1272 -0.3338  0.2835
74398SOL    HW134919   9.001   9.686   3.158 -0.7316 -1.0930  1.5831
74398SOL    HW234920   9.151   9.691   3.142 -0.8587 -1.9046 -0.1836
74399SOL     OW34921   2.298   1.952   7.524 -0.3652 -0.0580  0.1108
74399SOL    HW134922   2.262   1.880   7.576  1.5932 -0.4754  0.9852
74399SOL    HW234923   2.275   2.031   7.573 -1.7832 -0.1153 -0.4098
74400SOL     OW34924  13.175   0.888   9.976  0.3351 -0.0781 -0.3417
74400SOL    HW134925  13.263   0.900   9.938  0.5558  0.2910  0.2850
74400SOL    HW234926  13.181   0.805  10.022 -0.1765 -0.9513 -1.7733
74401SOL     OW34927  12.673  13.280   3.916  0.4125 -0.4645  0.2791
74401SOL    HW134928  12.732  13.211   3.885  2.1330 -0.1417  2.5858
74401SOL    HW234929  12.614  13.295   3.842  1.2583 -2.9516 -1.0420
74402SOL     OW34930   2.186   1.035   0.145  0.7127  0.2493  0.1090
74402SOL    HW134931   2.116   1.013   0.083 -0.1244  1.1907  0.7007
74402SOL    HW234932   2.253   0.969   0.129 -0.5577 -1.0533 -0.0749
74403SOL     OW34933  11.081   8.890   6.388 -0.8981 -0.7834 -0.5210
74403SOL    HW134934  11.101   8.835   6.463 -1.8322 -2.3496 -1.3737
74403SOL    HW234935  11.063   8.976   6.425  0.7152 -0.9773  0.8402
74404SOL     OW34936  11.027   7.541   8.203  0.1818 -0.2024 -0.5421
74404SOL    HW134937  10.988   7.607   8.146 -1.0948  0.5668  1.1360
74404SOL    HW234938  11.095   7.587   8.251 -0.0910 -0.3206 -0.0308
74405SOL     OW34939   2.087   0.333   5.216 -0.1650 -0.4270 -0.0810
74405SOL    HW134940   2.120   0.316   5.128 -1.7114 -2.0527 -0.4090
74405SOL    HW234941   2.082   0.247   5.257 -0.2761  0.2174  1.3096
74406SOL     OW34942   0.730   1.903   2.617  0.1965  0.2869  0.6336
74406SOL    HW134943   0.684   1.967   2.671  1.3242  1.3252  0.4242
74406SOL    HW234944   0.796   1.955   2.570 -0.3406 -0.6565 -1.2803
74407SOL     OW34945   2.578   0.298  13.298 -0.6052  0.0629 -0.2848
74407SOL    HW134946   2.606   0.208  13.316  0.0349  0.2977 -0.0805
74407SOL    HW234947   2.597   0.311  13.206  1.7596  0.8354  0.2624
74408SOL     OW34948   9.496   0.713   2.549 -0.1402 -0.1911 -0.1574
74408SOL    HW134949   9.507   0.765   2.470  0.1867 -0.7602 -0.4972
74408SOL    HW234950   9.453   0.633   2.519  0.1417 -0.4845  0.2125
74409SOL     OW34951  13.583   9.767   7.960 -0.3574 -0.1979  0.0184
74409SOL    HW134952  13.550   9.856   7.952  1.2239  0.2593 -2.0975
74409SOL    HW234953  13.662   9.765   7.906 -0.5645 -2.9976 -0.3185
74410SOL     OW34954   6.177   6.762   1.081  0.0063 -0.2294 -0.0397
74410SOL    HW134955   6.110   6.746   1.147  0.2081  0.0269  0.2285
74410SOL    HW234956   6.136   6.820   1.018  0.0592  0.1313  0.2592
74411SOL     OW34957   5.375   7.708  13.192 -0.1619 -0.3828  0.1054
74411SOL    HW134958   5.313   7.728  13.123  0.4235  0.0349 -0.3120
74411SOL    HW234959   5.458   7.744  13.161 -0.0196  0.3997  1.3028
74412SOL     OW34960   2.433   5.407   7.123  0.7625 -0.1188  0.4537
74412SOL    HW134961   2.479   5.398   7.207 -0.2771 -0.7830  0.9725
74412SOL    HW234962   2.345   5.438   7.147  1.2331  2.2503 -0.5927
74413SOL     OW34963   6.366   1.352   6.759  0.3146 -0.0392 -0.2772
74413SOL    HW134964   6.415   1.370   6.839 -0.0256 -1.5457  0.2965
74413SOL    HW234965   6.345   1.259   6.763 -0.5495  0.0570 -1.6549
74414SOL     OW34966   5.509   8.963   8.307  0.0929  0.2444  0.2004
74414SOL    HW134967   5.459   8.899   8.357  0.4958  0.4050  0.8109
74414SOL    HW234968   5.507   9.042   8.361  3.7385 -0.6072  1.8710
74415SOL     OW34969   4.416   7.166   3.453  0.4491 -0.3297 -0.2050
74415SOL    HW134970   4.335   7.151   3.503 -0.9304 -1.4185 -2.6110
74415SOL    HW234971   4.464   7.084   3.461  0.8611 -0.0394  0.3797
74416SOL     OW34972   6.915  13.516   2.894 -0.9623 -0.4848  0.2009
74416SOL    HW134973   6.958  13.439   2.858 -1.9762 -0.5478 -0.9773
74416SOL    HW234974   6.982  13.584   2.892 -0.7640 -0.6927 -1.1690
74417SOL     OW34975   9.501   8.996  11.724 -0.0564 -0.4282 -0.4596
74417SOL    HW134976   9.550   8.921  11.690 -0.7256 -1.8461  1.5036
74417SOL    HW234977   9.412   8.964  11.735 -0.6041  0.9981 -0.5775
74418SOL     OW34978  11.075   8.625   3.362 -0.0755 -0.4863  0.2868
74418SOL    HW134979  11.026   8.572   3.425  0.0012  0.9918  1.6805
74418SOL    HW234980  11.167   8.608   3.382 -0.0499  0.1450  0.7629
74419SOL     OW34981   7.463   0.536   8.113 -0.1375  0.5207  0.4473
74419SOL    HW134982   7.444   0.461   8.170 -1.3770  0.4221 -0.0795
74419SOL    HW234983   7.382   0.586   8.110 -0.5838 -0.2362 -2.3478
74420SOL     OW34984  13.266   4.484   1.427 -0.3039  0.1298 -0.0192
74420SOL    HW134985  13.223   4.399   1.421 -0.1827  0.0357  0.4488
74420SOL    HW234986  13.212   4.536   1.486  0.1857  0.0322  0.5186
74421SOL     OW34987  11.277   8.540  13.662 -0.3769  0.0023  0.0343
74421SOL    HW134988  11.289   8.514  13.753 -0.0102  0.2828  0.0682
74421SOL    HW234989  11.193   8.586  13.661 -0.4258 -0.0818  0.2102
74422SOL     OW34990   8.632  12.421  10.839  0.3140  0.0377  0.6641
74422SOL    HW134991   8.671  12.450  10.756 -2.2691  0.3206 -0.5436
74422SOL    HW234992   8.679  12.341  10.860  1.1494  0.0332 -1.0030
74423SOL     OW34993   9.527  10.035   9.589 -0.6245 -0.5077 -0.9689
74423SOL    HW134994   9.475   9.987   9.653  1.6614  0.0807  1.5325
74423SOL    HW234995   9.554   9.969   9.525 -0.8582 -1.6880  0.1144
74424SOL     OW34996  11.289  11.146   3.489  0.6342 -0.4868  0.3554
74424SOL    HW134997  11.283  11.232   3.446  0.0317 -0.1490  1.1083
74424SOL    HW234998  11.270  11.083   3.419  0.2471  0.0289 -0.0112
74425SOL     OW34999  10.447   8.176   2.320 -0.7362  0.4422  0.6936
74425SOL    HW135000  10.390   8.112   2.277  1.4039  0.3957 -2.3668
74425SOL    HW235001  10.412   8.261   2.293 -0.6929  0.4748  0.7400
74426SOL     OW35002   0.916  13.087   8.808 -0.0385 -0.3167  0.3894
74426SOL    HW135003   0.945  13.141   8.734 -1.0102 -0.9120 -0.4596
74426SOL    HW235004   0.995  13.041   8.836 -0.0173 -1.8560 -1.8330
74427SOL     OW35005   6.355  12.419   9.619  0.2920  0.4655 -0.4241
74427SOL    HW135006   6.291  12.440   9.551  0.1318 -0.9063 -0.7239
74427SOL    HW235007   6.320  12.342   9.662  0.8493  0.7804  0.6273
74428SOL     OW35008   9.285   9.030   2.447 -0.5099  0.7436  0.2491
74428SOL    HW135009   9.328   9.072   2.522  0.8735  1.2263 -0.7819
74428SOL    HW235010   9.243   8.952   2.484  2.0358 -0.2864  1.1887
74429SOL     OW35011  11.303   6.424  12.091 -0.3696 -0.1458  0.0928
74429SOL    HW135012  11.242   6.495  12.070 -0.3052  0.0366  0.5048
74429SOL    HW235013  11.265   6.381  12.167 -0.6771 -0.8937 -0.4812
74430SOL     OW35014   9.579  13.217   6.717 -0.7827 -0.0893 -0.1193
74430SOL    HW135015   9.561  13.310   6.708  0.3600  0.2396  0.8130
74430SOL    HW235016   9.492  13.178   6.729 -1.1335  1.2114  2.2569
74431SOL     OW35017   8.829  11.164  11.957  0.3872 -0.1108 -0.0509
74431SOL    HW135018   8.876  11.190  12.036  0.5818 -2.1867  0.5774
74431SOL    HW235019   8.743  11.206  11.966  0.6978  0.3717  0.8415
74432SOL     OW35020   0.777   0.973   8.786 -0.1895  0.4312  0.8703
74432SOL    HW135021   0.812   1.003   8.870  0.6128 -0.3633  0.8436
74432SOL    HW235022   0.699   0.922   8.809  1.4569 -2.0544  1.4517
74433SOL     OW35023   3.500  11.479   5.464 -0.3849  0.0927 -0.5792
74433SOL    HW135024   3.510  11.407   5.525  0.4925  0.6302 -0.0769
74433SOL    HW235025   3.427  11.530   5.499 -0.7319 -0.3107 -0.7056
74434SOL     OW35026   8.200  11.768   8.003  0.0439 -0.2700  0.3869
74434SOL    HW135027   8.118  11.734   7.967 -0.6585  1.7334 -0.0425
74434SOL    HW235028   8.269  11.715   7.962 -0.8617  0.3233 -2.0209
74435SOL     OW35029  12.445  10.369   1.775 -1.0435  0.1337 -0.0942
74435SOL    HW135030  12.495  10.303   1.726  0.1516  0.3197  0.8192
74435SOL    HW235031  12.394  10.318   1.838 -0.9322  0.0175 -0.0967
74436SOL     OW35032   2.650   2.010  11.809 -0.7980 -0.1964  0.0116
74436SOL    HW135033   2.742   2.033  11.818 -0.4799 -1.2368 -0.4347
74436SOL    HW235034   2.622   1.989  11.898  0.0722 -2.2346 -0.1305
74437SOL     OW35035   6.827   2.949  11.517 -0.0705  0.0749  0.1996
74437SOL    HW135036   6.922   2.950  11.520 -0.0460  1.0942 -0.6272
74437SOL    HW235037   6.801   2.928  11.607  0.9217  2.4659  1.1312
74438SOL     OW35038   1.743  12.102   2.696 -0.5089  0.3068 -0.1783
74438SOL    HW135039   1.721  12.017   2.734 -0.2392  0.4049  0.1976
74438SOL    HW235040   1.772  12.154   2.770 -0.3579  0.6243 -0.4621
74439SOL     OW35041  10.993   7.260   1.952 -0.9732 -0.4089 -0.2103
74439SOL    HW135042  11.085   7.252   1.977 -1.6961 -1.0811  2.5356
74439SOL    HW235043  10.979   7.355   1.945 -0.2137 -0.2826 -0.2113
74440SOL     OW35044  13.191   9.062   8.544 -0.1291 -0.0088 -0.7296
74440SOL    HW135045  13.190   9.157   8.541  1.5681  0.1046  0.8772
74440SOL    HW235046  13.100   9.037   8.524 -1.2536  2.0392  1.3434
74441SOL     OW35047   1.653   4.049   2.115  0.0441  0.2512 -0.1490
74441SOL    HW135048   1.598   3.990   2.063 -0.9365 -0.0834  1.1872
74441SOL    HW235049   1.743   4.029   2.088 -0.2322 -2.0796  0.3978
74442SOL     OW35050   1.925   3.477   4.207  0.0530 -0.0712 -0.3792
74442SOL    HW135051   1.979   3.401   4.184 -0.2168 -0.8372  1.3631
74442SOL    HW235052   1.988   3.545   4.230  0.2909 -0.1891 -0.6728
74443SOL     OW35053   1.803   5.211   6.609 -0.2630  0.4296  0.0874
74443SOL    HW135054   1.708   5.209   6.617 -0.1491 -1.8594  2.0114
74443SOL    HW235055   1.828   5.297   6.643 -1.5192  0.0375  2.1671
74444SOL     OW35056   9.367   3.094  10.998  0.1962  0.9499  0.2107
74444SOL    HW135057   9.461   3.079  11.013  0.0892  0.0120  0.0506
74444SOL    HW235058   9.358   3.090  10.903 -0.0166  0.9934  0.2297
74445SOL     OW35059   5.313   1.896   4.185 -0.4259  0.1792  0.3886
74445SOL    HW135060   5.306   1.802   4.171  1.5362  0.1786 -0.8366
74445SOL    HW235061   5.232   1.919   4.232 -2.6773 -1.5212 -2.2887
74446SOL     OW35062   0.613   8.575   9.241 -0.5009 -0.2897 -0.3215
74446SOL    HW135063   0.643   8.550   9.154  1.6430  0.4304  0.1562
74446SOL    HW235064   0.575   8.662   9.230 -0.1188 -0.1458 -0.5288
74447SOL     OW35065  13.654   9.086   4.634  0.4219 -0.6048  0.1795
74447SOL    HW135066  13.691   9.173   4.616  0.8618 -0.7404  0.4295
74447SOL    HW235067  13.676   9.034   4.557 -2.5964  0.3474 -1.4673
74448SOL     OW35068   7.384   6.138   5.263  0.4713 -0.5719 -0.3253
74448SOL    HW135069   7.383   6.094   5.177  0.7759 -0.7100 -0.2597
74448SOL    HW235070   7.444   6.086   5.315  2.5125  1.1269 -0.8704
74449SOL     OW35071  10.696   3.260   2.005 -0.3190 -0.6441  0.1487
74449SOL    HW135072  10.700   3.294   2.095 -1.3856 -0.9952  0.3383
74449SOL    HW235073  10.632   3.188   2.009 -1.2828  0.1074 -1.1411
74450SOL     OW35074  13.567   2.799   5.530 -0.6082  0.0841  0.4409
74450SOL    HW135075  13.497   2.756   5.579  0.0668  0.5164  1.8230
74450SOL    HW235076  13.523   2.863   5.475 -1.5878 -1.8851 -1.2007
74451SOL     OW35077  12.990  10.573   8.591 -0.1714 -0.3509  0.3505
74451SOL    HW135078  13.067  10.518   8.600 -0.5937 -1.0994 -0.4924
74451SOL    HW235079  13.019  10.660   8.619  1.0395 -0.5701 -0.1724
74452SOL     OW35080   4.837   7.227   4.532 -0.1757 -0.5507 -0.1457
74452SOL    HW135081   4.785   7.287   4.585  0.8867  0.0448  0.2488
74452SOL    HW235082   4.792   7.143   4.540 -1.5734  0.1287 -0.5408
74453SOL     OW35083   6.716   3.425   3.349 -0.0824 -0.0753 -0.0748
74453SOL    HW135084   6.633   3.380   3.336  0.0753 -0.1735 -0.7711
74453SOL    HW235085   6.729   3.476   3.269 -0.5578  1.7157  0.9391
74454SOL     OW35086  11.669   2.008   7.562 -0.0230  0.4447 -0.0906
74454SOL    HW135087  11.736   1.947   7.529 -0.9117 -0.1275 -0.8907
74454SOL    HW235088  11.593   1.991   7.507 -1.6831 -0.7152  2.4171
74455SOL     OW35089   3.976  12.494   5.491 -0.0962  0.1881  0.0414
74455SOL    HW135090   3.948  12.487   5.400 -1.8402 -0.0054  0.5447
74455SOL    HW235091   3.903  12.538   5.535  1.5440  2.1442  0.9903
74456SOL     OW35092   8.049   7.568  10.210 -0.2665 -0.2710 -0.0468
74456SOL    HW135093   8.025   7.483  10.246  2.3212  0.5334  4.2523
74456SOL    HW235094   7.983   7.629  10.244  1.3887  0.2652  2.4733
74457SOL     OW35095   2.155  13.317   6.885 -0.0327  0.1767 -0.1411
74457SOL    HW135096   2.164  13.362   6.969 -0.4578 -0.7994  0.4498
74457SOL    HW235097   2.133  13.227   6.909 -1.1354  0.1064 -1.3006
74458SOL     OW35098   9.386   8.185   9.609  0.5290 -0.1812  0.3932
74458SOL    HW135099   9.370   8.142   9.693 -1.5826  0.0881  0.1780
74458SOL    HW235100   9.447   8.256   9.629  0.2065 -0.2505  1.6721
74459SOL     OW35101  11.829   1.382  10.497 -0.1692  0.0393 -0.5273
74459SOL    HW135102  11.800   1.384  10.588 -1.0979 -0.7977 -0.7862
74459SOL    HW235103  11.839   1.474  10.473  0.2887  0.2606  0.4731
74460SOL     OW35104   9.764   8.752   7.729 -0.4752  0.2137  0.2740
74460SOL    HW135105   9.804   8.694   7.794 -1.7166 -0.5690  0.3877
74460SOL    HW235106   9.760   8.837   7.773 -2.0922 -0.4949  1.6336
74461SOL     OW35107  10.935   0.383  13.497  0.3397  0.3219  0.1787
74461SOL    HW135108  10.990   0.438  13.441  1.0687  0.1394  0.7008
74461SOL    HW235109  10.959   0.293  13.474 -1.3903  0.1757 -1.2124
74462SOL     OW35110   0.086  12.613   5.376  0.1317  0.0742  0.3006
74462SOL    HW135111   0.157  12.640   5.318  3.3062 -2.0056  2.9266
74462SOL    HW235112   0.057  12.694   5.418 -0.0783  1.1406 -1.7893
74463SOL     OW35113   7.316   9.513   6.673  0.3264 -0.0227 -0.3011
74463SOL    HW135114   7.248   9.568   6.634  2.7209  2.5481 -1.2303
74463SOL    HW235115   7.340   9.558   6.753  1.1087 -0.7432 -0.1192
74464SOL     OW35116  10.964   9.762   3.353  0.1344  0.9060  0.2900
74464SOL    HW135117  10.993   9.826   3.418  0.0836  0.5705  0.6457
74464SOL    HW235118  10.998   9.794   3.270  1.2344  0.6991  0.6495
74465SOL     OW35119  11.622   8.946   6.834 -0.1236  0.2505  0.2619
74465SOL    HW135120  11.666   8.934   6.749 -1.2934  0.2706 -0.3588
74465SOL    HW235121  11.684   8.911   6.898  0.6129 -0.1166 -0.6348
74466SOL     OW35122   5.833   0.567  12.042  1.0921  0.2481 -0.3296
74466SOL    HW135123   5.844   0.599  12.131  0.5605  0.6395 -0.3955
74466SOL    HW235124   5.824   0.647  11.989  0.8479  0.0119 -0.6531
74467SOL     OW35125   4.621   0.035   1.268 -0.3005  0.5746 -0.1589
74467SOL    HW135126   4.562   0.038   1.343 -0.7673  0.9772 -0.5404
74467SOL    HW235127   4.666  -0.050   1.277 -0.7861  0.3517  0.2403
74468SOL     OW35128  12.249   9.640   0.211 -0.0057  0.0818  0.2845
74468SOL    HW135129  12.211   9.563   0.168 -2.5505  0.9766  0.7035
74468SOL    HW235130  12.229   9.628   0.304  2.5736 -0.3008  0.8560
74469SOL     OW35131  11.202  13.207   3.002 -0.1686  0.0731 -0.0370
74469SOL    HW135132  11.248  13.130   3.035 -1.7958 -0.8075  0.3116
74469SOL    HW235133  11.232  13.216   2.911  0.9283 -0.2469  0.2793
74470SOL     OW35134   6.298   4.098   2.911  0.0900  0.0514 -0.2468
74470SOL    HW135135   6.320   4.164   2.845 -1.0684  0.4841 -0.2364
74470SOL    HW235136   6.382   4.068   2.945  0.7253 -0.5162 -2.2239
74471SOL     OW35137   0.445   9.652  11.782  0.4605 -0.2159 -0.0128
74471SOL    HW135138   0.515   9.633  11.844  3.0698  0.0780 -2.6241
74471SOL    HW235139   0.428   9.568  11.738  0.7109  0.1498 -0.8289
74472SOL     OW35140   9.545  12.391   5.914 -0.0770  0.1904  0.1698
74472SOL    HW135141   9.489  12.449   5.863  0.2249  2.2212  1.9877
74472SOL    HW235142   9.586  12.448   5.979  0.7619 -1.9700  1.6746
74473SOL     OW35143  13.214  10.551  11.875  0.0542  0.2331 -0.3120
74473SOL    HW135144  13.152  10.617  11.844 -1.0546 -0.0741  1.1399
74473SOL    HW235145  13.299  10.581  11.844 -0.6616  1.2916 -1.3407
74474SOL     OW35146  12.777   2.460   7.693  0.6378 -0.5505 -0.3626
74474SOL    HW135147  12.801   2.552   7.676  2.5036 -1.0740 -0.7431
74474SOL    HW235148  12.712   2.465   7.763 -1.1717  1.2070 -2.0175
74475SOL     OW35149  13.528   1.252   5.783 -0.1028  0.1194 -0.3990
74475SOL    HW135150  13.613   1.295   5.789  0.7018 -1.5170  1.3750
74475SOL    HW235151  13.532   1.201   5.702 -0.0352  1.2882 -1.1401
74476SOL     OW35152   5.440   5.409   8.070  0.0813  0.5252  0.4712
74476SOL    HW135153   5.475   5.322   8.055  1.0394  0.7203  1.4516
74476SOL    HW235154   5.478   5.463   8.000 -0.0395  0.2854  0.2206
74477SOL     OW35155   6.760  12.385   1.472  0.1091 -0.0830  0.3421
74477SOL    HW135156   6.688  12.442   1.444  1.4192  1.3366 -0.3140
74477SOL    HW235157   6.839  12.426   1.435  1.4032 -0.8771  2.0671
74478SOL     OW35158   4.364   6.604   7.528 -0.4302 -0.5782  0.0348
74478SOL    HW135159   4.322   6.561   7.602 -0.3262 -1.6036 -0.4794
74478SOL    HW235160   4.382   6.533   7.466  0.3159  0.1196 -0.5782
74479SOL     OW35161   7.878   0.004   2.994 -0.5934 -0.5305  0.7059
74479SOL    HW135162   7.852  -0.030   3.080 -1.8939  0.9078  0.9166
74479SOL    HW235163   7.848  -0.063   2.932 -0.9192 -0.9097  1.2624
74480SOL     OW35164   3.539   1.971  10.294 -0.7909 -0.2672 -0.0833
74480SOL    HW135165   3.524   2.053  10.341 -0.4686 -0.1333 -0.2132
74480SOL    HW235166   3.460   1.957  10.243 -1.4481 -0.7729  1.0290
74481SOL     OW35167   1.689  13.476   4.059  0.1133 -0.8271  0.2264
74481SOL    HW135168   1.765  13.454   4.114  1.4939 -0.3958 -1.4281
74481SOL    HW235169   1.614  13.442   4.108  1.2015  0.0066  2.6176
74482SOL     OW35170  11.980   5.980   8.861 -0.0119 -0.3940  0.1787
74482SOL    HW135171  11.993   5.952   8.771  0.0879 -1.7590  0.5896
74482SOL    HW235172  11.889   6.011   8.864 -0.5419 -1.8129 -0.0703
74483SOL     OW35173   9.123   2.672   9.164 -0.6621  0.0271 -0.3014
74483SOL    HW135174   9.106   2.710   9.077  0.5831  0.3355 -0.4248
74483SOL    HW235175   9.084   2.734   9.225 -0.1249  0.6481 -0.5807
74484SOL     OW35176   6.926  10.104   2.930  0.2847  0.1496 -0.0988
74484SOL    HW135177   6.863  10.175   2.936 -0.3502 -0.2484 -1.7228
74484SOL    HW235178   6.970  10.117   2.846  2.8789  0.7895  1.2554
74485SOL     OW35179  10.851  10.154   6.674  0.9653  0.5081 -0.3695
74485SOL    HW135180  10.815  10.242   6.686  1.5677  1.0090 -2.0302
74485SOL    HW235181  10.846  10.138   6.580  0.6394 -1.3543 -0.0757
74486SOL     OW35182   0.244   3.400   6.735  0.5712  0.1281  0.2515
74486SOL    HW135183   0.206   3.424   6.650  0.3378 -2.5104 -0.4654
74486SOL    HW235184   0.338   3.410   6.723  0.8619 -3.2233 -1.5173
74487SOL     OW35185   6.292  13.572   5.764 -0.1716 -0.2249 -0.2830
74487SOL    HW135186   6.370  13.591   5.712 -0.6763 -0.7606 -1.2563
74487SOL    HW235187   6.262  13.657   5.794  0.0286  0.1087 -1.0111
74488SOL     OW35188   1.762  10.226  12.669 -0.0181 -0.0969  0.1336
74488SOL    HW135189   1.723  10.142  12.695 -0.0595  0.3562  1.6416
74488SOL    HW235190   1.721  10.290  12.727  0.8070  0.8121 -0.2625
74489SOL     OW35191   0.886   2.365   5.365  0.0703  0.0045  0.6232
74489SOL    HW135192   0.980   2.363   5.352 -0.1011 -1.2162 -0.6613
74489SOL    HW235193   0.849   2.352   5.277 -1.2761 -0.5301  1.2386
74490SOL     OW35194   6.377  10.551   4.178 -0.4510  0.3702 -0.1977
74490SOL    HW135195   6.362  10.603   4.256 -1.1580  0.1169 -0.1601
74490SOL    HW235196   6.362  10.461   4.206 -0.4519  0.2553 -0.5628
74491SOL     OW35197   3.213  12.994   8.115 -0.8109  0.2643 -0.1216
74491SOL    HW135198   3.124  12.974   8.086 -0.6050  1.1074 -1.3994
74491SOL    HW235199   3.238  13.071   8.064  0.4028  0.4546  0.7303
74492SOL     OW35200   4.043   0.202   2.101  0.2381  0.5574  0.2230
74492SOL    HW135201   4.042   0.199   2.005  1.8890  0.2547  0.1864
74492SOL    HW235202   4.031   0.111   2.128  4.6677 -0.2788  0.1178
74493SOL     OW35203   8.032  12.885  10.151  0.2188  0.3253  1.3935
74493SOL    HW135204   8.045  12.978  10.168  0.0314  0.7450 -0.5935
74493SOL    HW235205   8.102  12.861  10.091  0.2616 -0.8340  1.8698
74494SOL     OW35206  11.218   7.275  13.536  0.0615  0.5624  0.3333
74494SOL    HW135207  11.304   7.295  13.498 -0.2158  0.4800 -0.3670
74494SOL    HW235208  11.233   7.199  13.590 -0.0146 -1.0285 -1.7490
74495SOL     OW35209   3.087   2.697   7.497 -0.6359  0.0874 -0.1157
74495SOL    HW135210   3.152   2.762   7.524  0.0492 -1.2218  1.6112
74495SOL    HW235211   3.048   2.734   7.418  1.1523  1.6210 -0.3758
74496SOL     OW35212  13.618  13.003   1.765  0.5762 -0.9021 -0.2853
74496SOL    HW135213  13.698  13.041   1.801 -2.0700  3.0126  2.3462
74496SOL    HW235214  13.602  13.053   1.685 -2.0005  3.0577  2.2941
74497SOL     OW35215   3.189  11.039   3.535  0.3467 -0.5964 -0.1338
74497SOL    HW135216   3.168  11.131   3.547  0.6909 -0.7847  2.3146
74497SOL    HW235217   3.103  10.996   3.525  0.2022 -0.0169 -1.8189
74498SOL     OW35218  10.469  13.591   2.064  0.1694  0.1732  0.1054
74498SOL    HW135219  10.518  13.510   2.056  1.9672  1.2642 -0.5996
74498SOL    HW235220  10.470  13.629   1.976 -0.3993  1.0974  0.4732
74499SOL     OW35221  13.444   2.587   6.542  0.6311  0.3471  0.7340
74499SOL    HW135222  13.381   2.582   6.470 -0.6706 -0.1642  1.8518
74499SOL    HW235223  13.523   2.546   6.508 -0.0435 -0.1108 -0.3365
74500SOL     OW35224  10.010   3.124   7.740 -0.2555 -0.2240 -0.1660
74500SOL    HW135225   9.953   3.201   7.737 -0.8943 -0.5824  1.4855
74500SOL    HW235226  10.099   3.159   7.737 -0.5383  0.4621 -0.9718
74501SOL     OW35227  13.489   6.773   7.275 -0.1955 -0.0404  0.4795
74501SOL    HW135228  13.449   6.837   7.334  0.2599  1.3963 -0.7081
74501SOL    HW235229  13.546   6.720   7.331 -0.1313  0.9781  1.4026
74502SOL     OW35230   0.027   8.071  11.763 -0.3935  0.7541  0.1814
74502SOL    HW135231   0.068   7.994  11.804  0.3745  0.7696 -0.5303
74502SOL    HW235232   0.027   8.051  11.670 -1.1686  1.1732  0.0872
74503SOL     OW35233  12.876   4.574   3.072 -0.3640 -0.4324  0.2002
74503SOL    HW135234  12.965   4.563   3.106  1.1660  2.3858 -2.4810
74503SOL    HW235235  12.836   4.638   3.131  0.7193  1.0272 -0.5784
74504SOL     OW35236   3.091   9.980   6.904 -0.3440 -0.0922  0.3838
74504SOL    HW135237   3.150   9.970   6.829 -1.5882 -1.6738 -0.4600
74504SOL    HW235238   3.009   9.941   6.875 -0.8709 -0.7597  2.5706
74505SOL     OW35239  10.667   4.851   9.649 -0.2153  0.0405  0.2375
74505SOL    HW135240  10.621   4.923   9.692 -0.7360  0.8218 -1.5423
74505SOL    HW235241  10.755   4.883   9.635 -0.2509  0.0572  0.0597
74506SOL     OW35242   0.322  12.848  13.311  0.3696 -0.0803  0.0359
74506SOL    HW135243   0.280  12.932  13.324 -0.7518 -0.2590 -2.0492
74506SOL    HW235244   0.307  12.827  13.218  4.2965 -0.5635 -0.6887
74507SOL     OW35245   9.112   7.242   0.204  0.8071 -0.1962 -0.2615
74507SOL    HW135246   9.036   7.209   0.253  1.1694 -0.0513  0.4180
74507SOL    HW235247   9.086   7.329   0.175  0.5840 -0.2861 -0.3316
74508SOL     OW35248   1.559  10.277   8.538 -0.9610 -0.2022  0.6601
74508SOL    HW135249   1.531  10.275   8.446  0.2553 -2.2933  0.2701
74508SOL    HW235250   1.605  10.360   8.547  1.9518 -1.3591 -1.6736
74509SOL     OW35251  10.350   4.038  11.730 -0.8959 -0.2866  0.0319
74509SOL    HW135252  10.374   4.129  11.714 -0.7861 -0.2032  0.6473
74509SOL    HW235253  10.420   3.987  11.689 -1.0098 -0.0988 -0.4016
74510SOL     OW35254   7.189   2.389   5.842 -0.1821 -0.5046 -0.4634
74510SOL    HW135255   7.184   2.440   5.761 -1.0092  0.7956  0.3759
74510SOL    HW235256   7.126   2.317   5.830  0.0643 -0.6079 -1.1597
74511SOL     OW35257   4.553   5.405   9.017 -0.2699 -0.3266  0.0105
74511SOL    HW135258   4.648   5.408   9.022 -0.2283  1.4677 -1.1184
74511SOL    HW235259   4.530   5.316   9.045  1.7392 -0.8614  0.0733
74512SOL     OW35260   2.655   8.274   4.615  0.4983 -0.6561  0.0780
74512SOL    HW135261   2.742   8.249   4.648  0.7608  1.1188  0.8362
74512SOL    HW235262   2.650   8.368   4.630 -0.3432 -0.1480 -2.8675
74513SOL     OW35263  12.120   4.635   3.996 -0.5022  0.5814 -0.5428
74513SOL    HW135264  12.071   4.621   3.914  1.0583  2.0021 -1.7872
74513SOL    HW235265  12.059   4.683   4.051 -0.6244  2.2448 -2.0323
74514SOL     OW35266   8.931   5.607  13.088  0.0796  0.8575 -0.0251
74514SOL    HW135267   8.910   5.526  13.043  0.6338 -0.3119  1.7176
74514SOL    HW235268   8.856   5.664  13.071 -0.3528 -0.0301 -1.2196
74515SOL     OW35269   5.757   5.520  12.281 -0.2027  0.4279 -0.8246
74515SOL    HW135270   5.699   5.447  12.302  1.3252 -0.7921 -0.6748
74515SOL    HW235271   5.700   5.597  12.279 -1.7185 -0.6452 -0.1936
74516SOL     OW35272   5.569  13.647   9.022 -0.0841  0.0712  0.0646
74516SOL    HW135273   5.565  13.669   8.929  1.3816 -2.3856 -0.6670
74516SOL    HW235274   5.505  13.577   9.033  2.2421 -2.1725  0.0329
74517SOL     OW35275  13.292  12.522   5.889 -0.0080 -0.1456 -0.3625
74517SOL    HW135276  13.251  12.437   5.902  1.9182 -0.9422  0.9527
74517SOL    HW235277  13.360  12.527   5.956  0.2373  2.2560 -0.6900
74518SOL     OW35278   8.056   5.067   2.971  0.2324 -0.5366  0.1840
74518SOL    HW135279   8.017   5.113   3.046  0.1359 -0.1845 -0.0840
74518SOL    HW235280   8.136   5.028   3.007 -1.4015 -3.1135  1.3238
74519SOL     OW35281  12.322   9.481   2.164 -0.5626  0.0691  0.3047
74519SOL    HW135282  12.404   9.505   2.208  0.4106  0.4469 -1.6394
74519SOL    HW235283  12.334   9.389   2.139 -1.0158 -0.0709  0.5835
74520SOL     OW35284   9.031  11.666   5.677  0.1532 -0.2530 -0.2787
74520SOL    HW135285   8.943  11.700   5.667  0.1246 -0.0810  0.4725
74520SOL    HW235286   9.029  11.617   5.759  1.2359  1.3851  0.7872
74521SOL     OW35287   1.288   9.466   3.535  0.1590 -0.0738  0.4704
74521SOL    HW135288   1.359   9.508   3.488  0.3934 -1.2568 -0.2650
74521SOL    HW235289   1.265   9.528   3.605  0.0967  1.5265 -0.9048
74522SOL     OW35290   1.348   5.725   8.209  0.7117  0.3064 -0.4595
74522SOL    HW135291   1.324   5.677   8.287 -0.7537 -0.0618 -1.1038
74522SOL    HW235292   1.305   5.679   8.137  1.6671  0.8766 -1.4438
74523SOL     OW35293   8.267   8.757  10.850  0.2295  0.1929 -0.1463
74523SOL    HW135294   8.191   8.760  10.909  1.5470  1.1900  1.6026
74523SOL    HW235295   8.289   8.849  10.836  1.3193 -0.0930 -0.3604
74524SOL     OW35296   4.120   8.291   5.841 -0.7663  0.4353  0.5323
74524SOL    HW135297   4.158   8.290   5.929 -1.5063  0.4738  0.8577
74524SOL    HW235298   4.026   8.305   5.855 -0.9031  0.3701 -0.2603
74525SOL     OW35299   3.915   5.878  13.691 -0.1385  0.0987  0.0216
74525SOL    HW135300   3.957   5.949  13.740 -1.7149  0.8450  0.3424
74525SOL    HW235301   3.893   5.814  13.758 -0.0929 -0.0013 -0.0594
74526SOL     OW35302   4.858   9.853   0.148  0.1807 -0.7198 -0.3298
74526SOL    HW135303   4.857   9.848   0.244  2.0465 -0.0654 -0.2261
74526SOL    HW235304   4.768   9.874   0.124 -0.5376 -1.8208  1.2042
74527SOL     OW35305   6.589   0.787  13.509 -0.5716 -0.2202  0.3893
74527SOL    HW135306   6.559   0.855  13.569 -2.5404 -1.5372  0.9844
74527SOL    HW235307   6.653   0.737  13.560 -1.0039 -0.3357  0.8209
74528SOL     OW35308   5.864   5.025  12.688 -0.2344 -0.6280 -0.0374
74528SOL    HW135309   5.780   4.981  12.698  0.0543 -1.5393 -1.3752
74528SOL    HW235310   5.927   4.969  12.734  0.0416 -1.3728 -1.2679
74529SOL     OW35311  12.264   5.654   9.840 -0.1533  0.5313 -0.2168
74529SOL    HW135312  12.276   5.730   9.783 -4.0050  0.7574 -0.9775
74529SOL    HW235313  12.295   5.580   9.788  1.1205  1.2468 -0.5209
74530SOL     OW35314   7.560  11.751   8.225 -0.1135 -0.3278 -0.0877
74530SOL    HW135315   7.646  11.707   8.227 -0.2262 -0.5795  1.8770
74530SOL    HW235316   7.577  11.836   8.185  0.8225 -0.8091 -0.7562
74531SOL     OW35317   0.672   9.580   8.227 -0.2639 -0.2146 -0.6879
74531SOL    HW135318   0.688   9.656   8.283 -0.4170 -0.4074 -0.3763
74531SOL    HW235319   0.582   9.590   8.198 -1.1700 -1.5298  1.3768
74532SOL     OW35320   0.446   5.076   2.358  0.0322 -0.0932 -0.2021
74532SOL    HW135321   0.366   5.127   2.352  1.1487  1.6309 -1.4468
74532SOL    HW235322   0.505   5.129   2.412  0.3746 -1.3275  0.6990
74533SOL     OW35323   1.683   8.866   8.852  0.7307  0.5599  0.2509
74533SOL    HW135324   1.674   8.954   8.815  1.2188  0.1542 -0.8915
74533SOL    HW235325   1.734   8.818   8.786 -0.0861 -0.7589  0.5478
74534SOL     OW35326   4.365  12.995   9.265  0.0384  0.1579  0.3029
74534SOL    HW135327   4.364  12.982   9.170  0.4430  0.8886  0.1959
74534SOL    HW235328   4.364  12.906   9.301 -1.0057 -0.1169 -0.3640
74535SOL     OW35329   7.201   3.053   2.109  0.0331  0.5213  0.4063
74535SOL    HW135330   7.151   3.038   2.029 -0.1570  1.7710  0.2602
74535SOL    HW235331   7.137   3.045   2.180 -0.1853  1.1600  0.2902
74536SOL     OW35332   1.228   3.958   4.020  0.3279 -0.4674  0.3378
74536SOL    HW135333   1.244   3.995   3.932  0.9562 -0.9021  0.2640
74536SOL    HW235334   1.253   4.029   4.080 -0.9185  0.1452  0.1677
74537SOL     OW35335  13.239   6.234   5.070 -0.2101  0.0240  0.4128
74537SOL    HW135336  13.295   6.261   4.997  0.4399 -0.9839  0.5260
74537SOL    HW235337  13.271   6.147   5.094 -0.9486  0.0037  1.3692
74538SOL     OW35338   8.310   1.997   0.549  0.3962  0.4156 -0.5539
74538SOL    HW135339   8.239   2.009   0.487 -0.6665  1.2021  0.7542
74538SOL    HW235340   8.297   1.909   0.585 -0.9277  1.1441  0.8512
74539SOL     OW35341   1.396   2.595   9.593  0.1900 -0.8380  0.2150
74539SOL    HW135342   1.398   2.623   9.685  0.0127 -0.9692  0.2583
74539SOL    HW235343   1.321   2.641   9.556 -0.9070 -2.2360  0.6028
74540SOL     OW35344  13.042   6.895   4.629 -1.1573  0.2768 -0.9095
74540SOL    HW135345  13.041   6.801   4.610  2.3642 -0.0835 -0.0035
74540SOL    HW235346  13.130   6.924   4.604 -1.4084  2.8718  0.8027
74541SOL     OW35347  10.827  13.027  11.760 -0.2841  0.2401  0.1306
74541SOL    HW135348  10.785  13.040  11.675  0.5538 -0.2216 -0.3674
74541SOL    HW235349  10.885  12.952  11.747  0.9917  1.0942  0.6737
74542SOL     OW35350  11.404   9.136   4.803  0.2577  0.2512 -0.0846
74542SOL    HW135351  11.473   9.172   4.747  1.8989  0.7840  2.1444
74542SOL    HW235352  11.391   9.202   4.870 -0.9949 -0.7625  0.7244
74543SOL     OW35353   3.708  12.622   2.226 -0.2006 -0.2326 -0.0285
74543SOL    HW135354   3.664  12.599   2.144  1.3599 -1.5350 -0.5440
74543SOL    HW235355   3.801  12.614   2.207  0.2078 -0.2310  1.7742
74544SOL     OW35356   6.750   6.532  10.926 -0.2486  0.0198 -0.2231
74544SOL    HW135357   6.766   6.491  10.841 -2.1074  1.3658 -1.2800
74544SOL    HW235358   6.755   6.626  10.909  1.9017  0.3711  1.7433
74545SOL     OW35359   3.500   0.979  12.205 -0.2272  0.2671 -0.0060
74545SOL    HW135360   3.407   0.989  12.185 -0.6027 -0.9083  1.0041
74545SOL    HW235361   3.504   0.981  12.301  0.6187 -0.9612  0.0092
74546SOL     OW35362   4.323  10.231   2.200  0.1315  0.4224 -0.7255
74546SOL    HW135363   4.380  10.240   2.277 -2.8698  2.0989  1.5565
74546SOL    HW235364   4.293  10.140   2.203  2.8720 -0.6703 -2.3027
74547SOL     OW35365   2.261   3.766   1.033  0.5013  0.0429 -0.5499
74547SOL    HW135366   2.212   3.684   1.044 -0.0164  0.2921 -0.9110
74547SOL    HW235367   2.312   3.753   0.953  0.5846 -0.0114 -0.4869
74548SOL     OW35368  10.061   7.363   4.118  0.1215 -0.4912 -0.0091
74548SOL    HW135369  10.087   7.357   4.026  1.1738 -1.4616  0.3256
74548SOL    HW235370  10.102   7.443   4.149 -2.5146  1.3769 -1.0351
74549SOL     OW35371   5.654  11.375   1.002  0.3745 -0.0701 -0.0797
74549SOL    HW135372   5.578  11.342   0.953 -0.5725  0.2665  1.1170
74549SOL    HW235373   5.621  11.389   1.090  2.1580 -1.1158  0.8050
74550SOL     OW35374  11.204   9.430   1.127  0.7400  0.1253  0.4259
74550SOL    HW135375  11.281   9.417   1.072 -0.2059  0.5346 -1.0411
74550SOL    HW235376  11.174   9.342   1.148  2.4084 -0.0818  2.2476
74551SOL     OW35377  13.259  13.271  13.678  0.5093  0.0555  0.2772
74551SOL    HW135378  13.308  13.288  13.598 -0.0927 -0.0044 -0.1118
74551SOL    HW235379  13.291  13.186  13.708  0.2459 -0.2485 -0.2815
74552SOL     OW35380   4.138   1.195  10.225 -0.2436 -0.1816  0.0886
74552SOL    HW135381   4.059   1.249  10.211  0.4136  0.7397 -0.1429
74552SOL    HW235382   4.199   1.253  10.270 -0.2742 -1.3962  1.8005
74553SOL     OW35383   7.170   4.767  10.060 -0.7303  0.0014 -0.1096
74553SOL    HW135384   7.132   4.853  10.073 -2.4234 -0.4167 -1.8970
74553SOL    HW235385   7.134   4.714  10.130 -1.5981  0.1977 -0.3901
74554SOL     OW35386   9.417   7.058   6.012  0.2253  0.0589  0.1914
74554SOL    HW135387   9.462   6.995   6.069 -0.1707  0.6028  1.1291
74554SOL    HW235388   9.326   7.029   6.010  0.5108 -0.8199 -1.4008
74555SOL     OW35389   1.305   8.301   9.096 -0.2159  0.4115 -0.0943
74555SOL    HW135390   1.252   8.370   9.056 -3.8912 -2.5596 -1.0223
74555SOL    HW235391   1.246   8.261   9.160  1.8308 -1.6361  0.6129
74556SOL     OW35392   6.668   8.924   5.188  0.3841  0.3400  1.1517
74556SOL    HW135393   6.578   8.942   5.159  0.5194 -1.7184 -0.8441
74556SOL    HW235394   6.722   8.980   5.133  0.4179 -0.4148  0.3887
74557SOL     OW35395   1.853   0.845   0.264  0.0034 -0.1945  0.3892
74557SOL    HW135396   1.895   0.774   0.214 -0.2994 -1.2868  1.6401
74557SOL    HW235397   1.915   0.864   0.334 -0.4063  0.0413  0.6869
74558SOL     OW35398   4.190   0.377   0.566  0.5373 -0.0260  0.3752
74558SOL    HW135399   4.134   0.299   0.556 -0.6064  0.7154  0.8132
74558SOL    HW235400   4.193   0.415   0.478  1.8727 -1.0519 -0.0518
74559SOL     OW35401   7.620   8.733   9.818  0.6708 -0.3537 -0.1768
74559SOL    HW135402   7.534   8.702   9.846  0.7352  0.7587  1.3797
74559SOL    HW235403   7.666   8.754   9.899  2.2179 -0.3885 -1.0001
74560SOL     OW35404   8.928   8.392  12.192  0.0899  0.1315 -0.1595
74560SOL    HW135405   8.935   8.472  12.140  0.7988  0.1753 -0.0072
74560SOL    HW235406   8.835   8.387  12.215  0.3920  2.3835  2.0744
74561SOL     OW35407   2.536   6.228   6.481  0.1502  0.4843  0.1086
74561SOL    HW135408   2.595   6.157   6.455 -0.5937 -0.1023  0.0192
74561SOL    HW235409   2.491   6.253   6.401  0.8406  1.4894  0.0090
74562SOL     OW35410   8.118   5.321  13.491 -0.2390 -0.5044  0.1464
74562SOL    HW135411   8.046   5.259  13.503  0.1578 -0.7622  1.3246
74562SOL    HW235412   8.086   5.383  13.426 -1.5948 -0.5209  0.7660
74563SOL     OW35413   5.282  11.494   6.928 -0.0025  0.1733 -0.0605
74563SOL    HW135414   5.327  11.429   6.982 -0.6399  0.0651  0.3501
74563SOL    HW235415   5.303  11.578   6.969  2.2016  0.4506 -1.5393
74564SOL     OW35416   9.242   7.446  11.058 -0.2817  0.0568  0.5189
74564SOL    HW135417   9.205   7.426  11.144 -1.0821  0.6261  0.3233
74564SOL    HW235418   9.166   7.459  11.001  0.2221 -1.7590 -0.6506
74565SOL     OW35419  11.025   1.729   1.905 -0.3346 -0.2736 -0.2625
74565SOL    HW135420  11.121   1.728   1.897 -0.2151  2.1423  0.2231
74565SOL    HW235421  11.005   1.651   1.958  1.4285 -0.3930  0.2950
74566SOL     OW35422   2.182  11.085   2.855  0.2801 -0.3486  0.2797
74566SOL    HW135423   2.216  11.166   2.892  2.5700 -1.0229 -0.1389
74566SOL    HW235424   2.227  11.076   2.771 -0.6101 -1.5817 -0.0956
74567SOL     OW35425   0.941   3.779   7.569 -0.5228  0.0945 -0.4072
74567SOL    HW135426   0.868   3.746   7.517 -0.1884 -1.1181 -0.1492
74567SOL    HW235427   0.961   3.707   7.630  1.3440  0.1011 -0.9592
74568SOL     OW35428  11.988   5.356  11.609  0.2150  0.0456 -0.3889
74568SOL    HW135429  12.056   5.378  11.546  0.9478 -1.5028 -0.1831
74568SOL    HW235430  11.908   5.352  11.558  0.8350 -1.4250 -1.3005
74569SOL     OW35431   0.718   4.372   6.701 -0.1861  0.2048 -0.0479
74569SOL    HW135432   0.638   4.325   6.726 -0.5245  0.1640 -1.1274
74569SOL    HW235433   0.784   4.303   6.690  0.7086  0.4081  3.1285
74570SOL     OW35434  12.537  13.117   0.843 -0.2326  0.3842  0.6985
74570SOL    HW135435  12.624  13.112   0.803  0.0131 -0.8455  1.3548
74570SOL    HW235436  12.552  13.103   0.936 -1.3245 -2.1502  0.5767
74571SOL     OW35437   2.975   1.121   1.702 -0.1174  0.0998  0.0584
74571SOL    HW135438   3.057   1.168   1.720 -0.1019  1.4733 -2.9952
74571SOL    HW235439   2.979   1.101   1.609 -1.6473 -3.1919  0.5573
74572SOL     OW35440  10.368  12.249   9.616  0.3024 -0.5200  0.4862
74572SOL    HW135441  10.401  12.337   9.632  0.7705 -0.9045  1.7225
74572SOL    HW235442  10.390  12.232   9.524  0.6422  0.4595  0.3715
74573SOL     OW35443  11.569  12.402  11.601  0.3348  0.1476 -0.6036
74573SOL    HW135444  11.557  12.485  11.648 -0.0002  0.9917 -2.1168
74573SOL    HW235445  11.482  12.381  11.566  0.4245 -0.8422 -0.2591
74574SOL     OW35446  11.374   5.199  11.045  0.1712 -0.1630 -0.1647
74574SOL    HW135447  11.396   5.130  10.983 -0.4352  1.0188 -1.7891
74574SOL    HW235448  11.278   5.198  11.049  0.1949 -0.1391  0.6827
74575SOL     OW35449   4.337   2.301  10.366 -0.4202  0.2626 -0.4371
74575SOL    HW135450   4.285   2.262  10.295  1.2753 -1.5832 -0.7491
74575SOL    HW235451   4.327   2.239  10.439 -1.0533  1.4582  0.5365
74576SOL     OW35452   1.507   5.565   2.871 -0.0932  0.0607  0.0196
74576SOL    HW135453   1.549   5.584   2.955  0.1950  2.2993 -0.5810
74576SOL    HW235454   1.501   5.469   2.869  2.3107 -0.2073  1.4357
74577SOL     OW35455   5.860  12.692  10.681  0.0267  0.0792  0.2766
74577SOL    HW135456   5.841  12.609  10.726 -0.8142 -0.3029 -0.7217
74577SOL    HW235457   5.897  12.665  10.597  2.3009  0.7855  0.9856
74578SOL     OW35458   4.601   8.362   7.552 -0.1751 -0.5170 -0.2092
74578SOL    HW135459   4.535   8.351   7.485  0.4403 -0.6212 -0.8099
74578SOL    HW235460   4.678   8.315   7.518  0.1366 -0.5846  0.5672
74579SOL     OW35461   9.208   8.746  11.483 -0.1271 -0.4189  0.8561
74579SOL    HW135462   9.256   8.693  11.419 -0.6015  0.6394 -0.4200
74579SOL    HW235463   9.126   8.698  11.496 -0.6686  0.0762 -0.4971
74580SOL     OW35464   5.196   3.361   8.950 -0.2223  0.4768  0.3791
74580SOL    HW135465   5.156   3.373   8.863  1.0258 -1.4822 -0.5382
74580SOL    HW235466   5.261   3.432   8.956  0.3398  0.0902 -0.7331
74581SOL     OW35467   3.543   7.907   7.169 -0.0389  0.2009  0.0852
74581SOL    HW135468   3.498   7.891   7.252 -0.4913 -0.3650 -0.2667
74581SOL    HW235469   3.527   8.000   7.151 -0.5807  0.1417  0.2447
74582SOL     OW35470   2.014   8.817   9.509  0.0984 -0.4588 -0.3001
74582SOL    HW135471   2.025   8.900   9.463  1.7514  0.0988  1.0094
74582SOL    HW235472   2.101   8.778   9.511 -0.7565 -2.6157 -1.5115
74583SOL     OW35473  13.445   8.432   9.311  0.3138 -1.0477  0.6425
74583SOL    HW135474  13.500   8.496   9.265 -1.1674  0.2188  0.5352
74583SOL    HW235475  13.485   8.348   9.290 -0.0764 -0.5445 -2.7984
74584SOL     OW35476  10.876   0.852   0.108 -0.0701 -0.6386 -0.2789
74584SOL    HW135477  10.942   0.796   0.149 -1.2155 -1.5391  0.3891
74584SOL    HW235478  10.836   0.797   0.041 -1.8288 -0.9799  0.9759
74585SOL     OW35479   8.404   7.899   1.202 -0.2996 -0.0578 -0.1371
74585SOL    HW135480   8.404   7.851   1.119  0.9637 -0.5967  0.1505
74585SOL    HW235481   8.400   7.991   1.177  1.4385 -0.1489 -0.8750
74586SOL     OW35482   0.443  10.531  12.616 -0.5280 -0.1012 -0.5423
74586SOL    HW135483   0.468  10.439  12.621 -1.8831 -0.4738 -0.0233
74586SOL    HW235484   0.415  10.553  12.705  2.1732  1.5870  0.0044
74587SOL     OW35485  13.006  10.536   0.215  0.2651 -0.7142 -0.4277
74587SOL    HW135486  12.946  10.555   0.288 -0.8826 -2.2373 -0.9381
74587SOL    HW235487  13.045  10.621   0.194 -1.0663  0.1647  0.5051
74588SOL     OW35488  11.490   9.103   7.079 -0.0615 -0.8456 -0.1580
74588SOL    HW135489  11.562   9.052   7.116 -0.7701 -2.1617 -0.4930
74588SOL    HW235490  11.531   9.169   7.024  0.9080 -0.9276  0.4541
74589SOL     OW35491   1.670  12.889   0.333 -0.1907 -0.3344  0.1226
74589SOL    HW135492   1.738  12.840   0.380  0.1043  0.9084  1.0385
74589SOL    HW235493   1.654  12.966   0.387  0.0228  1.0728 -1.7104
74590SOL     OW35494   9.525   5.162   2.907  0.3636 -0.4998 -0.6773
74590SOL    HW135495   9.497   5.196   2.992 -0.7086 -0.8360 -0.8718
74590SOL    HW235496   9.521   5.067   2.917  1.4116 -0.5602 -0.7401
74591SOL     OW35497   6.629   1.282   1.807  0.2449  0.0261 -0.3401
74591SOL    HW135498   6.590   1.195   1.810 -0.7308  0.4674  1.7017
74591SOL    HW235499   6.690   1.279   1.733  1.6959 -3.0052  0.8022
74592SOL     OW35500   0.196   9.719   3.870 -0.2146  0.3449 -0.0109
74592SOL    HW135501   0.279   9.735   3.915  0.8538  0.8718 -2.0035
74592SOL    HW235502   0.140   9.791   3.897  0.9218  1.5290 -0.6525
74593SOL     OW35503   1.318  12.523   5.262  0.0713  0.1884 -0.5990
74593SOL    HW135504   1.231  12.482   5.266  1.2024 -2.3114  0.7965
74593SOL    HW235505   1.355  12.490   5.180 -0.0220  0.6800 -0.8411
74594SOL     OW35506   7.869  12.563   3.221  0.2869  0.3376 -0.3963
74594SOL    HW135507   7.806  12.627   3.254 -0.7852 -0.2740 -1.2013
74594SOL    HW235508   7.816  12.486   3.200  0.9845  0.4628 -2.9101
74595SOL     OW35509  13.504  11.550   0.326 -0.2282  0.2409 -0.2615
74595SOL    HW135510  13.588  11.542   0.372 -0.3213  1.5575  0.1779
74595SOL    HW235511  13.527  11.544   0.233  0.3807  0.7147 -0.1530
74596SOL     OW35512   5.770   4.910   9.992  0.4400 -0.2540 -0.4868
74596SOL    HW135513   5.858   4.915   9.954  0.7015  3.7293  0.1917
74596SOL    HW235514   5.715   4.958   9.930 -0.3636  0.9047  1.0570
74597SOL     OW35515   2.298   4.940   9.413  0.7040 -0.0993 -0.1025
74597SOL    HW135516   2.207   4.910   9.417  1.0983 -1.3739  2.8572
74597SOL    HW235517   2.299   5.019   9.467  1.2592  0.2772 -0.6558
74598SOL     OW35518   7.752  11.408  13.255 -0.9912  0.6478  0.1489
74598SOL    HW135519   7.699  11.458  13.193  0.0288  0.3110 -1.0211
74598SOL    HW235520   7.833  11.390  13.208 -0.8611 -1.0728  0.9736
74599SOL     OW35521   8.487   6.010  12.677  0.0804 -0.0230 -0.5618
74599SOL    HW135522   8.414   6.034  12.620 -0.0016 -3.2244 -2.0550
74599SOL    HW235523   8.445   5.970  12.753  0.2584  1.0123  0.0918
74600SOL     OW35524   6.210   8.379   5.212 -0.0865  0.7202 -0.0763
74600SOL    HW135525   6.219   8.452   5.151 -0.0581  0.6802 -0.1193
74600SOL    HW235526   6.117   8.381   5.238  0.0748  1.2159  0.4785
74601SOL     OW35527   8.977   2.377  13.419 -0.2408  0.2956  0.0532
74601SOL    HW135528   9.037   2.428  13.472 -1.1359  0.9321  0.4817
74601SOL    HW235529   9.005   2.286  13.431  2.7036  0.7476 -2.3915
74602SOL     OW35530   7.150   7.936   0.656  0.3743  0.2806 -0.2128
74602SOL    HW135531   7.156   7.841   0.646 -1.0706 -0.3968  3.5969
74602SOL    HW235532   7.236   7.962   0.690  0.4552  0.1809 -0.3414
74603SOL     OW35533   3.776  11.331  12.246 -0.2242 -0.0367  0.3503
74603SOL    HW135534   3.820  11.260  12.293  1.6498  0.4919 -0.5009
74603SOL    HW235535   3.842  11.362  12.183 -1.6643  1.1714 -0.6216
74604SOL     OW35536   3.498   6.441   0.142  0.4757  0.4138  0.5986
74604SOL    HW135537   3.523   6.415   0.230  1.1431  0.7688  0.5166
74604SOL    HW235538   3.576   6.480   0.104  0.3445 -0.1655 -0.3285
74605SOL     OW35539   1.442   7.265   0.877  0.0261 -0.4876  0.1006
74605SOL    HW135540   1.453   7.296   0.787  1.2941 -2.4708 -0.5082
74605SOL    HW235541   1.369   7.203   0.872  1.6164 -2.4315 -0.1436
74606SOL     OW35542   4.533   9.742   0.883  0.4180 -0.4049  0.2283
74606SOL    HW135543   4.581   9.789   0.950 -0.7973 -1.2856  1.8087
74606SOL    HW235544   4.596   9.727   0.813  1.8006  0.3617  1.2723
74607SOL     OW35545   3.055  13.611   2.536  0.5185  0.3697 -0.3069
74607SOL    HW135546   2.972  13.614   2.583  0.4507 -0.9891 -0.2971
74607SOL    HW235547   3.031  13.584   2.447  0.8116  1.3273 -0.6830
74608SOL     OW35548   8.313  12.331   8.347  0.0310  0.4581 -0.1077
74608SOL    HW135549   8.290  12.310   8.438  2.9550  0.7478  0.8042
74608SOL    HW235550   8.299  12.249   8.299  0.2861 -0.2573  1.0139
74609SOL     OW35551   9.664   6.502  12.760  0.5094  0.1411 -0.2366
74609SOL    HW135552   9.662   6.435  12.692  1.4263 -1.0705  0.8878
74609SOL    HW235553   9.732   6.563  12.731 -0.0880  0.4295 -1.0863
74610SOL     OW35554   2.099   3.190  11.902 -0.0664 -0.3770 -0.1510
74610SOL    HW135555   2.100   3.094  11.902  0.7462 -0.4014 -2.3604
74610SOL    HW235556   2.022   3.212  11.955  1.0436 -2.1521  2.4626
74611SOL     OW35557  12.168   0.981  12.853  0.3635  0.7209  0.2017
74611SOL    HW135558  12.256   0.972  12.889  0.3880 -1.5924 -0.2333
74611SOL    HW235559  12.154   0.899  12.805 -2.9799 -0.1939  2.4055
74612SOL     OW35560  11.192   5.887  11.454 -0.1359  0.2824  0.1641
74612SOL    HW135561  11.120   5.838  11.493  0.8464  0.3158  2.1027
74612SOL    HW235562  11.256   5.821  11.428 -0.1813  0.3547 -0.1425
74613SOL     OW35563   9.687   4.598   0.668  0.1533 -0.2378  0.2300
74613SOL    HW135564   9.660   4.522   0.617  1.4025 -1.3163  1.1200
74613SOL    HW235565   9.717   4.562   0.751  2.3098  1.0441  0.0820
74614SOL     OW35566  10.384   5.488  11.698 -0.3296 -0.0340 -0.0290
74614SOL    HW135567  10.439   5.566  11.689  0.5215 -0.6475 -0.3372
74614SOL    HW235568  10.446   5.417  11.715 -1.1414 -0.5439  0.9029
74615SOL     OW35569   5.363   1.127   7.568 -0.3072 -0.5612  0.2569
74615SOL    HW135570   5.382   1.035   7.549 -1.0442 -0.6984  0.1548
74615SOL    HW235571   5.446   1.172   7.554 -0.1463 -1.0836 -0.5332
74616SOL     OW35572   6.032  13.621  11.925 -0.2354  0.2918 -0.3955
74616SOL    HW135573   6.033  13.713  11.952 -1.8945  0.0244  0.6726
74616SOL    HW235574   6.077  13.575  11.996  1.0204  0.2920 -1.1531
74617SOL     OW35575  13.239   2.614  10.119  0.0560  0.2213  0.1134
74617SOL    HW135576  13.309   2.620  10.053  0.6320 -1.5074  0.5075
74617SOL    HW235577  13.165   2.660  10.080  0.5836 -0.2132 -1.4814
74618SOL     OW35578  13.249   1.680   6.578 -0.2425 -0.1822 -0.5218
74618SOL    HW135579  13.185   1.610   6.580 -1.4946  0.9256 -0.5633
74618SOL    HW235580  13.223   1.740   6.648  0.1515  0.7847 -1.1650
74619SOL     OW35581   1.154  12.269  11.647  0.1376 -0.1061  0.1131
74619SOL    HW135582   1.243  12.244  11.622  1.5754  4.0576  0.1686
74619SOL    HW235583   1.161  12.286  11.742 -0.8619 -0.2275  0.2141
74620SOL     OW35584   0.301   9.729   6.249 -0.0452 -0.1560 -0.1077
74620SOL    HW135585   0.253   9.742   6.168  0.6792  0.1393 -0.4948
74620SOL    HW235586   0.387   9.697   6.222  0.2841  0.1583  0.5301
74621SOL     OW35587  12.075   8.233   0.722  0.2965  0.0353 -0.5840
74621SOL    HW135588  12.065   8.140   0.701 -0.2391  0.0163 -0.2678
74621SOL    HW235589  12.168   8.243   0.740  0.3737 -0.4231 -0.7026
74622SOL     OW35590   4.857  10.232   6.981  0.0061  0.6156  0.1346
74622SOL    HW135591   4.918  10.235   6.907 -0.5470 -0.2134 -0.3712
74622SOL    HW235592   4.772  10.212   6.941 -0.1838 -0.5176  1.0573
74623SOL     OW35593   0.012   4.583  13.353  0.3427 -0.1036  0.6830
74623SOL    HW135594   0.041   4.517  13.290  0.0682 -1.3503  1.8375
74623SOL    HW235595  -0.025   4.533  13.425 -2.7542  1.3763  0.2477
74624SOL     OW35596   8.728   2.613  10.132 -0.2132  0.4457 -0.2757
74624SOL    HW135597   8.644   2.615  10.086  0.6714  0.2214 -1.9773
74624SOL    HW235598   8.757   2.704  10.133  0.0657  0.3691 -0.7786
74625SOL     OW35599  11.881   1.860   4.817 -0.1318  0.5671  0.1990
74625SOL    HW135600  11.973   1.868   4.789 -0.0522  0.7685  0.5141
74625SOL    HW235601  11.886   1.838   4.910 -0.4042  0.8165  0.2763
74626SOL     OW35602  11.190   3.579   2.509  0.0694 -0.0476 -0.0407
74626SOL    HW135603  11.138   3.500   2.497  0.3012 -0.1367 -0.4592
74626SOL    HW235604  11.126   3.645   2.538 -0.7147  0.4275 -2.5851
74627SOL     OW35605  10.162   0.456   3.994  0.1556  0.3710 -0.2689
74627SOL    HW135606  10.228   0.502   4.046  1.5410 -2.4267  0.6610
74627SOL    HW235607  10.200   0.447   3.907  1.4114 -1.7935  0.4321
74628SOL     OW35608   4.576   1.651   9.721  0.1616 -0.0426  0.4907
74628SOL    HW135609   4.522   1.643   9.642 -2.4517  3.3596  1.6575
74628SOL    HW235610   4.533   1.595   9.785  0.7217 -0.7906  0.2176
74629SOL     OW35611   9.294   7.987   6.052  0.2814 -0.1066  0.6208
74629SOL    HW135612   9.217   8.005   6.105 -1.5901  2.0992 -2.4917
74629SOL    HW235613   9.352   8.061   6.067  0.5787 -0.4033  0.9428
74630SOL     OW35614   6.350   2.434   9.380 -0.4285 -0.3376 -0.1732
74630SOL    HW135615   6.401   2.376   9.323 -0.5948 -0.4384 -0.2227
74630SOL    HW235616   6.267   2.388   9.392 -0.9458  0.3579 -1.0235
74631SOL     OW35617  11.246   1.099   9.465  0.2718 -0.0119 -0.0462
74631SOL    HW135618  11.294   1.076   9.385  0.7634  0.6472  0.0524
74631SOL    HW235619  11.225   1.015   9.506 -1.2177 -0.4433 -1.5752
74632SOL     OW35620   3.814   3.583   2.775 -0.2299 -0.4615 -0.1304
74632SOL    HW135621   3.907   3.578   2.754 -0.0932  1.5532 -0.1942
74632SOL    HW235622   3.810   3.572   2.870  0.1775  0.2469 -0.0222
74633SOL     OW35623  12.314   6.478  13.247  0.3915  0.3492  0.3140
74633SOL    HW135624  12.339   6.570  13.244  1.8586 -0.0287  0.3124
74633SOL    HW235625  12.387   6.435  13.291  1.0375 -1.2167 -2.1250
74634SOL     OW35626   2.979  10.219   0.194 -0.3436 -0.4214 -0.1630
74634SOL    HW135627   2.910  10.164   0.156 -0.8857  0.1730 -0.0590
74634SOL    HW235628   3.059  10.167   0.185 -0.6332 -0.7112 -1.2036
74635SOL     OW35629  10.057   3.804  11.668  0.2976 -0.2419 -0.2229
74635SOL    HW135630  10.108   3.829  11.746  1.4443  0.6878 -1.2304
74635SOL    HW235631  10.112   3.830  11.594 -0.9516 -0.7160 -1.3582
74636SOL     OW35632  11.050   1.320  10.097 -0.5958 -0.0175 -0.1041
74636SOL    HW135633  11.118   1.359  10.151 -0.7483  0.5662 -0.3219
74636SOL    HW235634  10.981   1.295  10.159 -0.6378  0.3690  0.0101
74637SOL     OW35635   3.905  12.364  12.011 -0.2491  0.6124 -0.3040
74637SOL    HW135636   3.935  12.277  11.984 -0.5382  1.0208 -2.1016
74637SOL    HW235637   3.983  12.420  12.003  0.0566  0.4570  1.3093
74638SOL     OW35638   8.913   5.667   2.450 -0.8731  0.0153 -0.1082
74638SOL    HW135639   8.978   5.658   2.519  0.4489  1.0852 -1.1691
74638SOL    HW235640   8.907   5.579   2.411 -0.3586 -0.1866  0.2566
74639SOL     OW35641   2.848   3.552  12.160  0.2162  0.1175 -0.0611
74639SOL    HW135642   2.936   3.560  12.124 -0.9173  2.6602 -2.7761
74639SOL    HW235643   2.817   3.466  12.132  0.9004  0.3410 -1.5795
74640SOL     OW35644   8.342   9.794  13.288  0.1689  0.2048 -0.3609
74640SOL    HW135645   8.416   9.747  13.251  0.5249  0.2440  0.2840
74640SOL    HW235646   8.285   9.726  13.325 -0.2640  0.1542 -1.1050
74641SOL     OW35647   5.879   8.336   9.622  0.4070 -0.1104 -0.1806
74641SOL    HW135648   5.879   8.393   9.699  1.4703  1.5061 -1.3116
74641SOL    HW235649   5.791   8.300   9.619 -0.3063  1.4667  0.6201
74642SOL     OW35650  12.390   5.125  12.405 -0.3114  0.3393 -0.6249
74642SOL    HW135651  12.453   5.158  12.468  0.2138  1.0202 -1.4767
74642SOL    HW235652  12.370   5.201  12.349 -1.8451  0.1261 -0.4040
74643SOL     OW35653  10.275  10.844   1.586 -0.2262  0.0096 -0.0879
74643SOL    HW135654  10.231  10.785   1.524  1.9033 -0.2922 -1.4154
74643SOL    HW235655  10.310  10.785   1.654 -1.4075  0.1949  0.6984
74644SOL     OW35656   4.935  12.847   3.546 -0.1832  0.1619  0.1066
74644SOL    HW135657   5.028  12.856   3.569  0.1728 -2.0694 -0.2289
74644SOL    HW235658   4.892  12.828   3.629  0.0813 -1.2453 -0.0463
74645SOL     OW35659   3.870   6.821   0.761  0.1476 -0.0991 -0.0774
74645SOL    HW135660   3.804   6.771   0.713  0.1753 -0.8139  0.6105
74645SOL    HW235661   3.943   6.760   0.771  0.1447  0.0490  0.8620
74646SOL     OW35662   4.754   6.397  12.993 -0.0602  0.0037 -0.5703
74646SOL    HW135663   4.805   6.316  12.999  0.0482  0.1238  0.2312
74646SOL    HW235664   4.665   6.371  13.017  0.3622  0.4719  1.8358
74647SOL     OW35665   5.557   1.584   6.348  0.0002 -0.0677  0.0997
74647SOL    HW135666   5.553   1.518   6.417 -1.0586 -1.4929 -1.2423
74647SOL    HW235667   5.609   1.544   6.279 -0.4309  0.6062 -0.6378
74648SOL     OW35668   8.815   7.454   2.688 -0.2206 -0.1167  0.5309
74648SOL    HW135669   8.721   7.474   2.681 -0.0278  0.5155 -0.4854
74648SOL    HW235670   8.856   7.515   2.626  0.7638 -1.0943  0.2062
74649SOL     OW35671   6.161  12.578   9.284  0.0216  0.1119  0.3893
74649SOL    HW135672   6.226  12.643   9.311 -0.0327 -0.0189  0.8510
74649SOL    HW235673   6.133  12.606   9.197  2.3767 -1.1128 -0.8436
74650SOL     OW35674   1.359  13.308  12.840  0.3287  0.2053 -0.4729
74650SOL    HW135675   1.344  13.306  12.935 -2.4572  0.1887 -0.8042
74650SOL    HW235676   1.406  13.227  12.822 -2.4469 -1.8261  0.5710
74651SOL     OW35677   1.000   0.063  11.174  0.1595 -0.3865  0.3486
74651SOL    HW135678   1.042  -0.007  11.224  0.1417 -0.8730 -0.3186
74651SOL    HW235679   0.910   0.033  11.162 -0.0583  0.1015  0.7138
74652SOL     OW35680  12.812  13.127   3.368 -0.7599  0.4788 -0.6191
74652SOL    HW135681  12.869  13.052   3.354 -0.0891  0.8327  0.1319
74652SOL    HW235682  12.862  13.185   3.425 -1.1462  1.6316 -1.4151
74653SOL     OW35683   9.364   1.750   3.017  0.1172 -0.0947  0.1133
74653SOL    HW135684   9.270   1.730   3.022 -0.2841  1.9086  1.5268
74653SOL    HW235685   9.405   1.664   3.003 -1.9233 -0.9702 -1.0574
74654SOL     OW35686   9.898  11.605   4.429 -0.2927  0.1396 -0.5105
74654SOL    HW135687   9.960  11.674   4.454  0.1203 -0.5041  0.3076
74654SOL    HW235688   9.954  11.537   4.391 -0.2207 -1.2144  1.8472
74655SOL     OW35689   1.807   1.410   9.021  0.3216  0.1775  0.3587
74655SOL    HW135690   1.895   1.375   9.007  0.6042  0.1562  1.9410
74655SOL    HW235691   1.787   1.390   9.112 -0.5131  1.9378  0.6250
74656SOL     OW35692  12.127   6.708   8.930  0.0564  0.2187  0.0204
74656SOL    HW135693  12.056   6.759   8.891  1.2116  2.5782  0.8327
74656SOL    HW235694  12.207   6.751   8.901  1.0272  0.8663  3.2437
74657SOL     OW35695   5.257   1.202   3.639  0.0924  0.0404  0.8019
74657SOL    HW135696   5.309   1.127   3.609 -0.4203 -1.1114  2.5966
74657SOL    HW235697   5.312   1.278   3.620 -0.1394 -0.5266 -2.7654
74658SOL     OW35698  12.028  11.434   2.219  0.1311  0.1640 -0.0048
74658SOL    HW135699  11.944  11.393   2.237  0.3021  0.3206  1.2990
74658SOL    HW235700  12.086  11.399   2.288  0.9833  0.4797 -0.5478
74659SOL     OW35701  11.290  13.203   3.988  0.5057  0.6809 -0.4304
74659SOL    HW135702  11.303  13.276   4.047  1.7269  1.1953 -1.3039
74659SOL    HW235703  11.215  13.228   3.934  0.4656  0.9677 -0.2395
74660SOL     OW35704   9.440   1.749   5.000 -0.0896 -0.6473 -0.3470
74660SOL    HW135705   9.396   1.825   5.038  1.3147 -0.0357  0.1227
74660SOL    HW235706   9.370   1.701   4.954 -0.6898  1.9333 -2.3509
74661SOL     OW35707   4.771   9.788  11.995 -0.3557 -0.2479 -0.0738
74661SOL    HW135708   4.822   9.799  11.915 -0.6325  0.8707 -0.1127
74661SOL    HW235709   4.732   9.701  11.987 -0.8899  0.0921 -1.4597
74662SOL     OW35710   5.663   0.537   2.874 -0.4857  0.3274  0.0829
74662SOL    HW135711   5.642   0.587   2.795 -1.6951 -0.8650 -0.3999
74662SOL    HW235712   5.636   0.447   2.853  0.2343 -0.2404  1.4480
74663SOL     OW35713   6.312   4.336   2.768  0.1372  0.7354  0.2173
74663SOL    HW135714   6.375   4.408   2.765  1.6846 -0.5534  0.4063
74663SOL    HW235715   6.310   4.304   2.678  0.2144  0.3990  0.3355
74664SOL     OW35716   4.005  12.154  10.467 -0.1645 -0.1869 -0.4634
74664SOL    HW135717   4.039  12.222  10.409 -0.3722 -0.7519 -1.2666
74664SOL    HW235718   4.057  12.076  10.446 -0.8300 -0.6236 -0.5176
74665SOL     OW35719   5.817  13.146  11.433 -0.2736 -0.2043  0.2792
74665SOL    HW135720   5.804  13.053  11.452 -2.8064  0.4698  2.3562
74665SOL    HW235721   5.831  13.187  11.518  1.4398  1.2919 -0.6495
74666SOL     OW35722   5.543   9.306   0.436 -0.4832 -0.1453  0.2166
74666SOL    HW135723   5.463   9.274   0.478 -1.5642  1.2309 -0.7141
74666SOL    HW235724   5.614   9.266   0.487 -1.7320 -1.5862  0.9282
74667SOL     OW35725   0.961  12.113   4.333 -0.5823 -0.4716 -0.1315
74667SOL    HW135726   1.036  12.099   4.275  0.7086  1.7726  0.8671
74667SOL    HW235727   0.890  12.138   4.274  0.1806 -0.0883 -0.9190
74668SOL     OW35728   0.650  12.155   8.999 -0.0418 -0.2024 -0.1881
74668SOL    HW135729   0.737  12.181   9.029 -0.5375  2.2565 -0.6633
74668SOL    HW235730   0.592  12.172   9.074 -0.3403 -0.3727 -0.3763
74669SOL     OW35731   5.707   0.826  11.209 -0.0361  0.4872 -0.3848
74669SOL    HW135732   5.738   0.737  11.228 -0.1667  0.7189  1.0645
74669SOL    HW235733   5.612   0.817  11.199  0.0573  0.3307 -1.2326
74670SOL     OW35734   7.740  10.590   5.630  0.5067 -0.7136 -0.2496
74670SOL    HW135735   7.812  10.536   5.597  1.3183 -0.5590  1.1878
74670SOL    HW235736   7.688  10.611   5.552  1.9173 -0.9605 -1.2971
74671SOL     OW35737   9.133   6.256  11.050 -0.0246 -0.7775  0.1604
74671SOL    HW135738   9.184   6.320  11.100 -1.0865 -0.7188  1.1924
74671SOL    HW235739   9.161   6.172  11.084  2.8779 -1.1277 -2.5620
74672SOL     OW35740   7.353   1.990  11.562 -0.0492  0.0518  0.0900
74672SOL    HW135741   7.356   1.963  11.471  0.6540 -0.4276  0.2490
74672SOL    HW235742   7.340   1.909  11.611 -0.7373  0.3396  0.4086
74673SOL     OW35743  11.743   9.557   7.086  0.1207  0.1079 -0.4071
74673SOL    HW135744  11.834   9.543   7.059  0.2485  0.4062 -0.1323
74673SOL    HW235745  11.724   9.646   7.057 -0.6100 -0.5110 -1.9343
74674SOL     OW35746   8.956   1.886   7.914 -0.5146  0.4655  0.0075
74674SOL    HW135747   9.001   1.884   7.998 -1.8210 -1.5717  0.7349
74674SOL    HW235748   9.015   1.841   7.853  0.4922  2.0633 -0.2400
74675SOL     OW35749  12.645   3.875   2.028  0.1152 -0.0674 -0.2555
74675SOL    HW135750  12.694   3.953   2.003 -1.1411  0.9252  0.2479
74675SOL    HW235751  12.643   3.878   2.124  0.2223 -0.8423 -0.2208
74676SOL     OW35752   8.148   3.656   5.302 -0.4165  0.2238 -0.2121
74676SOL    HW135753   8.131   3.636   5.210 -2.3855 -0.7942  0.3117
74676SOL    HW235754   8.124   3.748   5.311  0.0820  0.4141 -0.7789
74677SOL     OW35755  11.294  10.164   3.628 -0.1774 -0.1831 -0.3956
74677SOL    HW135756  11.256  10.246   3.658 -2.6848 -0.3020 -2.8197
74677SOL    HW235757  11.267  10.099   3.694  2.7672  0.9489  2.1419
74678SOL     OW35758   4.525   2.138   3.027 -0.0420 -0.0996 -0.0532
74678SOL    HW135759   4.527   2.170   2.937 -1.7097 -2.5362 -1.0776
74678SOL    HW235760   4.440   2.168   3.061 -0.4001 -1.0457 -0.0871
74679SOL     OW35761   2.808  11.539  11.216 -0.0388 -0.0572  0.5959
74679SOL    HW135762   2.752  11.616  11.222 -0.5925 -0.3762 -0.2194
74679SOL    HW235763   2.784  11.499  11.132 -0.1960 -1.4559  1.2817
74680SOL     OW35764   7.658   1.549  13.126  0.0078  0.9093  0.0450
74680SOL    HW135765   7.685   1.516  13.212 -0.8050 -0.0114 -0.0236
74680SOL    HW235766   7.737   1.585  13.088  0.1123  2.5999  1.7237
74681SOL     OW35767   2.363   8.244  12.631  0.2449  0.3964 -0.0256
74681SOL    HW135768   2.400   8.257  12.719  1.2676 -1.3587 -0.1558
74681SOL    HW235769   2.426   8.285  12.572  0.8667 -0.6058 -0.0851
74682SOL     OW35770   9.155   3.438   9.256  0.6077 -0.9427 -0.0967
74682SOL    HW135771   9.238   3.414   9.297  0.2543  0.6307  1.6822
74682SOL    HW235772   9.091   3.378   9.294  0.1126  1.0798  2.6296
74683SOL     OW35773   4.770   4.066   5.649  0.3935 -0.1592 -0.0938
74683SOL    HW135774   4.845   4.022   5.688  0.4888  0.7850  0.8268
74683SOL    HW235775   4.808   4.120   5.579  0.6482  0.6414  0.6436
74684SOL     OW35776   1.503   5.265   6.838  0.4371  0.3473 -0.0471
74684SOL    HW135777   1.499   5.335   6.904  1.2700  0.3827 -0.0170
74684SOL    HW235778   1.477   5.186   6.885 -1.6996  0.8067 -0.3777
74685SOL     OW35779   4.380   0.574   3.683  0.3451  0.2834 -0.1931
74685SOL    HW135780   4.384   0.494   3.736  0.0988 -0.5728 -1.4214
74685SOL    HW235781   4.331   0.548   3.605 -0.7182  1.9313 -0.1304
74686SOL     OW35782   7.020   2.657   8.616  0.0475 -0.0924 -0.2440
74686SOL    HW135783   7.031   2.750   8.633 -0.7573 -0.1640  0.7622
74686SOL    HW235784   6.926   2.645   8.605  0.2772 -0.5409 -1.9692
74687SOL     OW35785   4.427   3.249   3.321 -1.0606 -0.1119 -0.3041
74687SOL    HW135786   4.417   3.222   3.412 -0.3831 -1.2684 -0.5590
74687SOL    HW235787   4.411   3.343   3.322 -2.4642 -0.3340  0.7779
74688SOL     OW35788  13.160   3.463   9.640  0.6927  0.1408 -0.7082
74688SOL    HW135789  13.219   3.448   9.713 -0.7257  0.7430  0.6153
74688SOL    HW235790  13.081   3.414   9.662  0.2300  0.3406 -1.8345
74689SOL     OW35791   0.548   0.246   6.435  0.0584 -0.1496 -0.3453
74689SOL    HW135792   0.553   0.330   6.480  0.9660 -0.2004 -0.3478
74689SOL    HW235793   0.612   0.191   6.478 -0.5797 -0.8769 -0.2957
74690SOL     OW35794   2.177  10.618   2.658 -0.1483  0.3558  0.2304
74690SOL    HW135795   2.188  10.643   2.750 -2.5779 -0.2452  0.7521
74690SOL    HW235796   2.088  10.646   2.636 -0.4253 -1.4790 -1.2682
74691SOL     OW35797   8.645   9.330   0.803  0.7119  0.1240  0.5092
74691SOL    HW135798   8.614   9.380   0.878  0.3011  0.9674 -0.2139
74691SOL    HW235799   8.585   9.353   0.732  0.3177 -1.6225  0.2200
74692SOL     OW35800   8.519   2.910   0.834  0.1229  0.3234 -0.1799
74692SOL    HW135801   8.502   2.817   0.846  2.2516 -0.0181  0.7305
74692SOL    HW235802   8.522   2.922   0.740  1.8048 -0.9950 -0.3419
74693SOL     OW35803   9.443   1.379   5.157  0.0921 -0.4002 -0.1602
74693SOL    HW135804   9.426   1.314   5.226  1.3918  0.4819  1.0504
74693SOL    HW235805   9.409   1.461   5.192  1.1543  0.1459 -0.3646
74694SOL     OW35806   9.600  12.411   6.868 -0.1417  0.7816 -0.7780
74694SOL    HW135807   9.524  12.414   6.809 -1.8674 -0.0790  1.2391
74694SOL    HW235808   9.588  12.485   6.928  1.6266  1.7062 -1.5041
74695SOL     OW35809   2.858   7.996  11.536 -0.0491  0.4986 -0.2390
74695SOL    HW135810   2.912   8.042  11.471 -0.4391  1.4787  0.1105
74695SOL    HW235811   2.768   8.008  11.506 -0.1094 -1.2459 -0.8950
74696SOL     OW35812  10.011   0.194   6.710 -0.4760 -0.0313 -0.4677
74696SOL    HW135813   9.976   0.145   6.785 -0.1015 -0.4749 -0.5759
74696SOL    HW235814  10.088   0.239   6.746 -0.2834 -0.2613 -0.5838
74697SOL     OW35815   4.307  10.333  12.152 -0.1560 -0.7545  0.1048
74697SOL    HW135816   4.242  10.305  12.087  0.7282  0.8024 -1.5267
74697SOL    HW235817   4.309  10.428  12.145  0.5827 -0.6033  1.8663
74698SOL     OW35818   3.598   7.593  11.574  0.3653  0.2479 -0.5566
74698SOL    HW135819   3.531   7.526  11.583  1.0826 -0.3823  0.2771
74698SOL    HW235820   3.646   7.591  11.657  0.7703  1.3957 -0.7326
74699SOL     OW35821  11.808   9.473   5.514  0.3311  0.1190 -0.2057
74699SOL    HW135822  11.844   9.431   5.592  0.6444  0.0773 -0.3677
74699SOL    HW235823  11.776   9.401   5.460  1.2710  0.0308 -0.6845
74700SOL     OW35824   6.039  10.330   0.466  0.1555  0.2583  0.1809
74700SOL    HW135825   6.028  10.338   0.560  2.0541  3.3343  0.3012
74700SOL    HW235826   6.102  10.259   0.454  2.8688  2.2353  1.6510
74701SOL     OW35827   2.730   9.574   7.130 -0.1743 -0.2847 -0.0687
74701SOL    HW135828   2.742   9.655   7.180 -3.4047  0.4810 -0.3083
74701SOL    HW235829   2.772   9.590   7.046 -0.7914  1.2099 -0.1219
74702SOL     OW35830  12.131   9.688  11.172  0.5028 -0.4815 -0.3969
74702SOL    HW135831  12.042   9.699  11.204  1.3127  0.1606  1.8144
74702SOL    HW235832  12.123   9.628  11.098 -1.7726 -0.2009 -0.4380
74703SOL     OW35833  10.081  11.808  13.324  0.0519  0.5452  0.0316
74703SOL    HW135834  10.075  11.893  13.367  0.3581  1.2797 -1.3338
74703SOL    HW235835  10.113  11.749  13.392 -0.4168  1.4547  1.0657
74704SOL     OW35836   7.494   2.469  11.263  0.4659  0.5813  0.5363
74704SOL    HW135837   7.453   2.411  11.327  1.4948  0.2205  0.9060
74704SOL    HW235838   7.563   2.415  11.223 -0.5339  0.6174 -1.3151
74705SOL     OW35839   9.370  10.985   6.057 -0.1669  0.1184 -0.8867
74705SOL    HW135840   9.304  10.973   5.989 -0.0445 -1.1019 -0.8144
74705SOL    HW235841   9.358  11.075   6.086 -1.5018  0.0644 -1.1830
74706SOL     OW35842   1.874   6.511   6.332 -0.1680  0.5200 -0.1981
74706SOL    HW135843   1.923   6.567   6.272  1.0065 -2.0647 -1.8466
74706SOL    HW235844   1.783   6.523   6.307  0.1535  0.8907 -1.2538
74707SOL     OW35845  10.129  11.472  11.484  0.3307 -0.2049  0.0653
74707SOL    HW135846  10.190  11.464  11.557 -0.5662  0.3165  0.8919
74707SOL    HW235847  10.054  11.420  11.510  0.7089 -1.4856 -1.2892
74708SOL     OW35848   2.597   4.712   1.003 -0.3620 -0.3818  0.3970
74708SOL    HW135849   2.640   4.745   1.083  1.6114 -2.0864  0.1317
74708SOL    HW235850   2.529   4.652   1.036 -0.3404 -0.1888  0.8041
74709SOL     OW35851  10.172   1.454   5.555 -0.4679 -0.2954  0.4419
74709SOL    HW135852  10.082   1.477   5.578  0.0630  1.7361  0.6922
74709SOL    HW235853  10.175   1.464   5.460 -0.1272  1.3298  0.5868
74710SOL     OW35854   7.887   9.502  12.334  0.1899 -0.0554 -0.1233
74710SOL    HW135855   7.864   9.463  12.249  0.0254 -0.8990  0.2917
74710SOL    HW235856   7.918   9.427  12.386  3.3780  0.8798 -0.4515
74711SOL     OW35857   3.253  11.089  10.729  0.3087 -0.1833  0.0542
74711SOL    HW135858   3.288  11.111  10.815  0.1003 -0.5381  0.2320
74711SOL    HW235859   3.158  11.100  10.738  0.3560  0.7171 -0.4065
74712SOL     OW35860   6.348   7.921   7.033 -0.2143 -0.0596 -0.2985
74712SOL    HW135861   6.382   7.938   7.120 -0.1199 -0.3420 -0.2790
74712SOL    HW235862   6.256   7.900   7.047 -0.0472 -0.7355 -0.1995
74713SOL     OW35863   0.912   3.840  10.383  0.3674  0.6927 -0.9831
74713SOL    HW135864   0.837   3.890  10.415  0.8367  0.1982  1.0258
74713SOL    HW235865   0.987   3.881  10.425  0.8239 -1.2767  0.2169
74714SOL     OW35866   9.845   2.955  11.193 -0.3084  0.1615  0.6511
74714SOL    HW135867   9.895   2.991  11.267  0.8271  4.0787 -1.7071
74714SOL    HW235868   9.903   2.888  11.156  0.2034 -0.0724  1.8171
74715SOL     OW35869   9.160   0.137   5.194 -0.0336 -0.0140  0.1333
74715SOL    HW135870   9.139   0.168   5.106  0.3739  0.4070  0.1829
74715SOL    HW235871   9.135   0.045   5.194 -2.3364  0.5334  0.3144
74716SOL     OW35872  12.309   7.466   1.196 -0.1642 -0.2606  0.3364
74716SOL    HW135873  12.244   7.399   1.215 -0.3782 -0.6143 -1.4080
74716SOL    HW235874  12.261   7.534   1.150  0.1023  1.0096  1.8703
74717SOL     OW35875   7.669   6.020   9.880  0.1872 -0.3718  0.6537
74717SOL    HW135876   7.581   5.984   9.886  0.4094 -1.0199  0.1539
74717SOL    HW235877   7.714   5.962   9.819  0.3122  1.2137 -0.8625
74718SOL     OW35878   2.139   8.613   0.074 -0.1240  0.3388  0.0858
74718SOL    HW135879   2.181   8.682   0.125 -2.8074  1.9481  0.3628
74718SOL    HW235880   2.124   8.542   0.136 -0.4181  0.9376  0.7036
74719SOL     OW35881   4.846   2.224   2.903  0.3116 -0.0410 -0.3162
74719SOL    HW135882   4.755   2.247   2.886  0.2291 -1.1674 -1.5665
74719SOL    HW235883   4.875   2.179   2.823  1.4129 -1.2935  0.7431
74720SOL     OW35884  13.476   8.368   1.965  0.4462 -0.5461  0.2979
74720SOL    HW135885  13.396   8.385   2.015  0.1846  2.5235 -0.8946
74720SOL    HW235886  13.447   8.368   1.874  1.6997  0.2177 -0.1256
74721SOL     OW35887  12.291   3.761   4.186 -0.1375 -0.3921  0.5667
74721SOL    HW135888  12.378   3.798   4.172  1.4683 -3.0150  2.7032
74721SOL    HW235889  12.282   3.695   4.117 -0.3525 -0.2733  0.4798
74722SOL     OW35890   4.129  10.283   6.092  0.2936  0.2375  0.3663
74722SOL    HW135891   4.111  10.242   6.007  2.1811 -2.2409  1.0393
74722SOL    HW235892   4.143  10.376   6.071  3.0590 -0.6329 -2.5149
74723SOL     OW35893  12.765   6.609   7.601  0.1804  0.2351  0.0526
74723SOL    HW135894  12.837   6.567   7.649  1.0342  0.5627 -0.9128
74723SOL    HW235895  12.718   6.536   7.560 -0.1413  0.0069  0.8076
74724SOL     OW35896  12.172  12.965  10.066  0.0550 -0.0597 -0.7088
74724SOL    HW135897  12.129  12.889  10.105 -0.6570  1.0340  0.7650
74724SOL    HW235898  12.201  12.936   9.980 -0.4940 -1.8813 -0.3112
74725SOL     OW35899  10.942   9.710  13.187 -0.2574  0.3064  0.6107
74725SOL    HW135900  10.983   9.795  13.169 -2.3219  1.3081  0.3103
74725SOL    HW235901  10.926   9.711  13.281  1.3593 -0.5686  0.9211
74726SOL     OW35902   7.775  12.984   8.259 -0.0392  0.0166  0.1943
74726SOL    HW135903   7.740  13.073   8.260  1.2480  0.5663 -0.9006
74726SOL    HW235904   7.702  12.930   8.229 -1.2910  0.4327  2.2632
74727SOL     OW35905  13.553   2.182   0.132  0.1548 -0.1738 -0.3872
74727SOL    HW135906  13.634   2.160   0.086  0.8643 -1.2513  1.2800
74727SOL    HW235907  13.490   2.117   0.104  0.2470 -0.1234 -0.7110
74728SOL     OW35908   7.358  13.483   6.486 -0.0341  0.0342 -0.7015
74728SOL    HW135909   7.296  13.550   6.515  1.7225  0.6434  2.1184
74728SOL    HW235910   7.306  13.404   6.474 -1.4331  0.5757  1.3103
74729SOL     OW35911  13.294   1.623   8.907  0.0147 -0.3410 -0.0592
74729SOL    HW135912  13.241   1.701   8.890 -0.4329 -0.1193  2.0596
74729SOL    HW235913  13.251   1.554   8.857  0.0887  0.6171 -1.5204
74730SOL     OW35914   2.218  13.615   9.765  1.2471 -0.2763  0.9906
74730SOL    HW135915   2.216  13.638   9.673 -1.0678  2.7004  1.6372
74730SOL    HW235916   2.173  13.531   9.770 -1.3184  0.8901 -0.3929
74731SOL     OW35917   5.314   0.214   5.425 -0.0932 -0.0465  0.0698
74731SOL    HW135918   5.237   0.160   5.445 -1.0701  1.2165 -0.1361
74731SOL    HW235919   5.348   0.238   5.511  0.1719 -0.7120  0.1632
74732SOL     OW35920   3.080   2.120   6.689  0.3219  0.4558  0.4148
74732SOL    HW135921   3.072   2.098   6.782  0.8100  1.2463  0.6563
74732SOL    HW235922   3.059   2.038   6.643 -1.3660  0.4243  1.1671
74733SOL     OW35923   5.857   8.276  12.536  0.5100  0.1860 -0.3006
74733SOL    HW135924   5.801   8.301  12.609  1.6222 -0.2669  0.7426
74733SOL    HW235925   5.862   8.354  12.481  0.0010  0.6649  0.3182
74734SOL     OW35926  13.630   6.232   7.335 -0.1585  0.1514 -0.0280
74734SOL    HW135927  13.537   6.252   7.348 -0.4141 -1.4573  0.7657
74734SOL    HW235928  13.665   6.219   7.423  0.3837 -1.0847 -0.4065
74735SOL     OW35929   1.379   1.618   0.840  0.4542 -0.2503  0.1578
74735SOL    HW135930   1.456   1.615   0.782  1.3067 -0.6789  1.2806
74735SOL    HW235931   1.344   1.529   0.837 -1.0992  0.3393 -1.7191
74736SOL     OW35932   6.140  13.461  10.444  0.1505 -0.1041 -0.2138
74736SOL    HW135933   6.064  13.409  10.470 -0.1919 -0.1034 -1.1713
74736SOL    HW235934   6.134  13.467  10.349  1.7282 -0.6963 -0.3936
74737SOL     OW35935  11.526   4.558  11.278  0.9638  0.1458  0.1637
74737SOL    HW135936  11.535   4.466  11.255  2.9174  0.3636 -0.0948
74737SOL    HW235937  11.464   4.593  11.214  0.1590 -0.9866  0.3108
74738SOL     OW35938  12.572  12.405   3.140 -0.1467 -0.1758 -0.2140
74738SOL    HW135939  12.506  12.348   3.103 -1.9217  0.9532  1.0696
74738SOL    HW235940  12.572  12.386   3.233 -0.1633  1.2963  0.1150
74739SOL     OW35941   8.271   1.160   1.358  0.5690 -0.4935  0.4749
74739SOL    HW135942   8.273   1.118   1.444  1.2860  0.8072  1.1306
74739SOL    HW235943   8.285   1.253   1.377 -1.6108  0.1737 -0.8404
74740SOL     OW35944   9.130   0.896   2.242 -0.3089 -0.2189  0.1995
74740SOL    HW135945   9.216   0.871   2.274 -1.1590 -0.1213  2.7959
74740SOL    HW235946   9.135   0.991   2.229  0.0062 -0.2187  0.3209
74741SOL     OW35947  12.453   2.146   3.517  0.0802 -0.3265 -0.2778
74741SOL    HW135948  12.476   2.183   3.601 -0.9723  1.1756 -0.6037
74741SOL    HW235949  12.535   2.143   3.468  0.7053 -1.2455  0.7746
74742SOL     OW35950   4.311   0.187   9.967 -0.8992  0.0511 -0.0939
74742SOL    HW135951   4.379   0.175  10.034 -0.3162 -1.0526 -0.8608
74742SOL    HW235952   4.286   0.279   9.975  1.6414  0.8800 -0.6788
74743SOL     OW35953   4.071  10.947  12.394  0.4516  1.0664  0.5422
74743SOL    HW135954   4.124  10.881  12.349 -1.1404  0.5132 -0.6116
74743SOL    HW235955   4.075  10.922  12.486  2.9420  1.6167  0.6761
74744SOL     OW35956   7.720   6.976   9.919 -0.4005 -0.2206  0.4454
74744SOL    HW135957   7.792   6.936   9.970 -0.7157 -1.8233 -0.2994
74744SOL    HW235958   7.752   7.063   9.897  0.6902 -0.3434  1.4236
74745SOL     OW35959  12.304  11.015  11.869 -0.1929  0.2017  0.4990
74745SOL    HW135960  12.245  11.037  11.942 -1.3315  1.8885 -0.8315
74745SOL    HW235961  12.246  11.008  11.793  1.2647  1.7580 -0.8360
74746SOL     OW35962   4.643  11.580   4.678 -0.0792 -0.0927  0.2787
74746SOL    HW135963   4.561  11.629   4.664 -1.1595 -0.9782  2.9196
74746SOL    HW235964   4.670  11.554   4.590 -1.4108  2.1058 -0.8827
74747SOL     OW35965   9.593  12.716   3.362 -0.5412 -0.0884  1.0143
74747SOL    HW135966   9.518  12.771   3.336 -0.1154  0.1894  0.3422
74747SOL    HW235967   9.566  12.627   3.339 -0.9372 -0.0770  1.4159
74748SOL     OW35968   0.391   5.641   6.021 -0.3125 -0.6534 -0.5603
74748SOL    HW135969   0.430   5.601   5.944  0.3325  0.2822 -0.7233
74748SOL    HW235970   0.296   5.633   6.007 -0.1994 -1.8827 -0.7028
74749SOL     OW35971   7.171  12.756   3.795 -0.0036 -0.0368 -0.6253
74749SOL    HW135972   7.078  12.742   3.777 -0.0034 -0.3429 -0.3901
74749SOL    HW235973   7.185  12.716   3.881 -0.1080  1.7729  0.2910
74750SOL     OW35974  11.662   1.356   6.231 -0.1186 -0.2668  0.2315
74750SOL    HW135975  11.569   1.337   6.216 -0.1883  0.0196  0.2959
74750SOL    HW235976  11.663   1.415   6.306 -0.0175  1.1422 -0.8287
74751SOL     OW35977   4.837  10.605   5.721 -0.0351 -0.1411  0.3134
74751SOL    HW135978   4.870  10.693   5.700 -1.3133  0.4694  0.7554
74751SOL    HW235979   4.907  10.546   5.695  0.5538  0.9654 -0.6912
74752SOL     OW35980   9.936   2.643   2.052  0.6510 -0.5064 -0.5742
74752SOL    HW135981   9.863   2.582   2.056 -1.5229  1.8302 -2.0588
74752SOL    HW235982   9.967   2.648   2.142 -1.1116 -1.4366  0.1345
74753SOL     OW35983   5.731   0.935   7.597 -0.0449 -0.0052 -0.2157
74753SOL    HW135984   5.724   1.019   7.552 -2.1311  0.5754  1.0533
74753SOL    HW235985   5.646   0.894   7.586  0.3550 -1.1494  0.7183
74754SOL     OW35986   8.679  13.714   3.015  0.3398 -0.2364  0.1617
74754SOL    HW135987   8.601  13.769   3.014  1.0159  0.7559  0.5528
74754SOL    HW235988   8.746  13.767   2.973  1.2044 -0.4416  1.2328
74755SOL     OW35989  12.745   6.046   8.251  0.1231 -0.3267  0.1039
74755SOL    HW135990  12.685   5.972   8.244 -0.2068  0.0456 -1.5909
74755SOL    HW235991  12.715   6.107   8.184  0.8842  0.9885  0.9235
74756SOL     OW35992   8.536   1.251  11.488  1.0038 -0.1036 -0.5307
74756SOL    HW135993   8.532   1.346  11.482  1.3527 -0.1082 -0.9270
74756SOL    HW235994   8.502   1.230  11.575  2.5218  0.4965  0.2512
74757SOL     OW35995   7.952  10.461  10.119  0.2696 -0.9529 -0.2921
74757SOL    HW135996   7.971  10.554  10.107  0.9334 -1.1905 -1.1601
74757SOL    HW235997   7.922  10.431  10.033 -1.8059 -1.1355  0.4284
74758SOL     OW35998  10.530  11.174   0.930  0.0295  0.2720 -0.2802
74758SOL    HW135999  10.604  11.125   0.893 -1.0713 -1.2768 -0.5397
74758SOL    HW236000  10.558  11.265   0.927  1.7363 -0.2205 -0.8043
74759SOL     OW36001   2.279   2.917   4.214  0.0100  0.1198  0.0781
74759SOL    HW136002   2.263   2.967   4.134 -1.6383  0.4794  0.6018
74759SOL    HW236003   2.279   2.826   4.186 -1.5902  0.1838 -0.2001
74760SOL     OW36004   0.896  12.123   9.132  0.0840 -0.2332  0.5149
74760SOL    HW136005   0.862  12.113   9.221  2.8482  1.6474  1.8880
74760SOL    HW236006   0.899  12.033   9.098 -2.2620 -0.8681  1.7264
74761SOL     OW36007   7.770   0.101   5.580 -0.3437 -0.0533 -0.0779
74761SOL    HW136008   7.754   0.014   5.616  0.4115  1.0121  3.2908
74761SOL    HW236009   7.688   0.149   5.596  0.3875  0.7627  1.4456
74762SOL     OW36010   2.374  12.925  11.261  0.3125 -0.0127 -0.0867
74762SOL    HW136011   2.452  12.907  11.209 -0.2778 -0.4298 -0.8473
74762SOL    HW236012   2.303  12.933  11.197 -0.1354  1.1645  0.5231
74763SOL     OW36013   3.673   3.609  10.421  0.1210 -0.8279  0.3317
74763SOL    HW136014   3.586   3.614  10.382  0.7075  0.3700 -0.9301
74763SOL    HW236015   3.696   3.516  10.417 -0.1490 -0.8476 -1.5532
74764SOL     OW36016   6.966   4.975   3.031  0.8150  0.1828  0.0951
74764SOL    HW136017   7.055   4.939   3.038  1.4252  1.5944 -0.0922
74764SOL    HW236018   6.915   4.924   3.094  1.9736 -0.0257  0.9032
74765SOL     OW36019  11.090   4.079  12.131 -0.7993  0.0753 -0.0209
74765SOL    HW136020  11.125   4.065  12.219  0.0710 -0.6270 -0.4638
74765SOL    HW236021  11.141   4.153  12.097  0.9100 -1.4523 -0.9648
74766SOL     OW36022   4.089   9.003   8.836 -0.1936  0.5847  0.3406
74766SOL    HW136023   4.152   9.070   8.810 -0.7610  0.6758 -0.8583
74766SOL    HW236024   4.142   8.937   8.881  0.1726  2.4385  2.8007
74767SOL     OW36025   0.439   5.802   9.177 -0.2102  0.3326 -0.0357
74767SOL    HW136026   0.452   5.739   9.248 -0.1037  0.6875  0.2660
74767SOL    HW236027   0.513   5.863   9.185  0.1168  0.0403 -0.8176
74768SOL     OW36028   7.293   2.209  13.632  0.2952  0.0760  0.4781
74768SOL    HW136029   7.322   2.119  13.646  0.2058 -0.6294 -2.9040
74768SOL    HW236030   7.212   2.217  13.683  0.4140 -1.6789  1.0159
74769SOL     OW36031   5.798   8.443  13.233  0.4178  0.2168 -0.3842
74769SOL    HW136032   5.873   8.499  13.249  0.5936 -0.3673  0.9448
74769SOL    HW236033   5.732   8.502  13.195  1.1523  0.9624 -0.5345
74770SOL     OW36034   5.826   2.011  10.900 -0.4157  0.4631  0.3039
74770SOL    HW136035   5.867   2.097  10.904  0.9297 -0.1924  1.2871
74770SOL    HW236036   5.893   1.951  10.932 -1.9265 -0.7332  1.3847
74771SOL     OW36037   2.429  10.786   7.344  0.0956 -0.0893 -0.5131
74771SOL    HW136038   2.483  10.834   7.407  1.8661 -1.2231 -1.0956
74771SOL    HW236039   2.372  10.732   7.398 -0.0013  0.6310  0.1198
74772SOL     OW36040   8.730   2.736  13.720  0.4572 -0.1385  0.3530
74772SOL    HW136041   8.817   2.742  13.681  1.0466 -2.3360  1.1739
74772SOL    HW236042   8.743   2.749  13.813  0.0220 -0.9987  0.5542
74773SOL     OW36043  13.369   5.606   6.291 -0.6337 -0.8459  0.0406
74773SOL    HW136044  13.324   5.567   6.365  1.2991  0.2383  1.9015
74773SOL    HW236045  13.409   5.685   6.326  1.0590 -0.7292 -1.9396
74774SOL     OW36046   5.045   4.166   9.348 -0.1851 -0.7130 -0.3181
74774SOL    HW136047   5.063   4.184   9.440  0.5346 -1.7556 -0.2290
74774SOL    HW236048   5.079   4.077   9.334  1.5547  0.1436 -2.0793
74775SOL     OW36049   3.459   3.695   0.451  0.3428  0.1486 -0.5850
74775SOL    HW136050   3.406   3.672   0.374  1.7903 -0.2296 -1.4952
74775SOL    HW236051   3.534   3.636   0.448  0.4735  0.1673  1.1058
74776SOL     OW36052   2.596  10.570   6.717  0.3287 -0.4112  0.1945
74776SOL    HW136053   2.592  10.545   6.625  0.8949 -1.5063  0.4577
74776SOL    HW236054   2.633  10.494   6.761 -1.7320 -0.6602  1.6309
74777SOL     OW36055  13.414   1.083   4.918 -0.0577 -0.3783 -0.7139
74777SOL    HW136056  13.387   1.158   4.971 -0.3141 -0.8373 -0.1964
74777SOL    HW236057  13.467   1.029   4.976 -1.4237 -1.5579 -0.5114
74778SOL     OW36058  12.152   5.601   5.395 -0.1966 -0.3958 -0.4257
74778SOL    HW136059  12.180   5.523   5.443  0.8121 -0.2231 -0.7184
74778SOL    HW236060  12.115   5.566   5.314 -0.0639 -0.5924 -0.4043
74779SOL     OW36061   5.556   4.249   6.158  0.3271 -0.0713 -0.4073
74779SOL    HW136062   5.506   4.241   6.077 -1.0026 -0.1714  0.4063
74779SOL    HW236063   5.623   4.315   6.138  0.7926 -0.9378 -1.9384
74780SOL     OW36064  10.957   6.991   9.598  0.2021 -0.5824 -0.3903
74780SOL    HW136065  10.942   7.052   9.671  0.1337  0.8046 -1.5289
74780SOL    HW236066  11.052   6.976   9.598  0.4873  0.9881 -1.1903
74781SOL     OW36067  12.520  12.218   6.088  0.2975 -0.0236 -0.4066
74781SOL    HW136068  12.504  12.309   6.061  1.1851 -0.2926 -1.9692
74781SOL    HW236069  12.436  12.174   6.075  0.0477  0.4179 -0.3096
74782SOL     OW36070   6.694   1.742   3.410  0.1226 -0.0982 -0.6157
74782SOL    HW136071   6.767   1.745   3.348  0.0198  0.9965 -0.7055
74782SOL    HW236072   6.671   1.650   3.415  0.0947 -0.2175 -2.2598
74783SOL     OW36073   1.348   0.820   3.850  0.3581 -0.3122 -0.5428
74783SOL    HW136074   1.321   0.868   3.928  0.0064 -2.0852  0.4765
74783SOL    HW236075   1.288   0.851   3.782  1.2188  1.8722 -0.3612
74784SOL     OW36076  11.651   7.765   1.062 -0.2209  0.0201 -0.0043
74784SOL    HW136077  11.679   7.673   1.066  0.1475  0.1605  0.6927
74784SOL    HW236078  11.673   7.792   0.973  1.7497  0.0803  0.4569
74785SOL     OW36079   8.553  12.739   5.104 -0.4163  0.0871  0.1956
74785SOL    HW136080   8.496  12.732   5.181  0.2881 -1.4507  0.6090
74785SOL    HW236081   8.640  12.721   5.138  0.0415  0.3860 -0.8046
74786SOL     OW36082   1.394  10.755   0.474  0.3223  0.7393 -0.1703
74786SOL    HW136083   1.367  10.686   0.413  0.5585  0.1811  0.3474
74786SOL    HW236084   1.486  10.738   0.491  0.4715  1.3853 -0.2918
74787SOL     OW36085   4.618   0.041   6.339 -0.1810  0.0438  0.4852
74787SOL    HW136086   4.622   0.052   6.435  0.2257 -0.3105  0.5115
74787SOL    HW236087   4.675   0.110   6.305 -1.2394  0.9122  0.4409
74788SOL     OW36088   0.380  10.880  12.209 -0.4295 -0.4878  0.1183
74788SOL    HW136089   0.473  10.870  12.186 -0.8453  2.0391 -3.4408
74788SOL    HW236090   0.341  10.796  12.186  0.6908 -1.0061  0.0172
74789SOL     OW36091   8.383  11.669  10.837 -0.1540 -0.4027 -0.3588
74789SOL    HW136092   8.447  11.610  10.798  0.8185 -0.5537  1.3733
74789SOL    HW236093   8.356  11.625  10.918 -1.0937  0.5126 -0.1535
74790SOL     OW36094   1.771  13.129  11.646 -0.0328  0.2057 -0.3800
74790SOL    HW136095   1.760  13.151  11.738  1.3840  0.8630 -0.3578
74790SOL    HW236096   1.748  13.209  11.599 -2.8079 -0.6982 -0.7802
74791SOL     OW36097  12.782  10.803  11.838  0.2297  0.5542  0.3139
74791SOL    HW136098  12.781  10.891  11.874 -1.2928  1.4837 -1.8053
74791SOL    HW236099  12.773  10.815  11.744  0.0132 -1.8592 -0.0454
74792SOL     OW36100   0.530   2.753  10.853  0.5736  0.3436  0.5951
74792SOL    HW136101   0.582   2.776  10.776 -1.0605 -1.4078 -1.1686
74792SOL    HW236102   0.566   2.668  10.881 -1.3449 -1.0430 -0.8356
74793SOL     OW36103   2.820   7.213   1.023  0.0680  0.2636  0.4271
74793SOL    HW136104   2.746   7.235   0.966 -0.0851  2.6944  1.4546
74793SOL    HW236105   2.781   7.163   1.095 -0.6439  1.5933  1.0007
74794SOL     OW36106   3.140   1.424  12.545 -0.4220 -0.7366 -0.6359
74794SOL    HW136107   3.079   1.483  12.501  0.6900  0.4889 -0.6027
74794SOL    HW236108   3.216   1.420  12.487  0.6437  0.0887  0.6424
74795SOL     OW36109   4.692  12.285   4.692 -0.3712  0.4167 -0.4518
74795SOL    HW136110   4.711  12.365   4.741  1.4545 -0.2910  0.0414
74795SOL    HW236111   4.625  12.312   4.629 -2.6225  1.4298  2.1711
74796SOL     OW36112   5.074   2.396   9.225  0.6060  0.0755  0.3014
74796SOL    HW136113   5.153   2.415   9.176  0.1256 -0.3986 -0.6829
74796SOL    HW236114   5.064   2.301   9.218 -1.8765  0.4164 -2.5399
74797SOL     OW36115   7.217   3.741   5.108 -0.3900 -0.1960  0.0258
74797SOL    HW136116   7.208   3.822   5.157  3.1221  0.2425  0.2452
74797SOL    HW236117   7.212   3.767   5.016 -0.2067  0.1421  0.1094
74798SOL     OW36118   9.655   9.327  12.286 -0.3584  0.2205  0.2546
74798SOL    HW136119   9.622   9.372  12.208 -0.5387  0.9879  0.7606
74798SOL    HW236120   9.746   9.307  12.265 -0.2765  0.8151  0.0034
74799SOL     OW36121  10.195   8.110  10.320 -0.3763 -0.1424 -0.3100
74799SOL    HW136122  10.193   8.033  10.376 -1.9064  0.2053  0.1645
74799SOL    HW236123  10.207   8.075  10.232 -0.7033 -0.9042 -0.0583
74800SOL     OW36124   4.610   0.448   8.481  0.4066  0.1748  0.0135
74800SOL    HW136125   4.519   0.421   8.468  0.6150 -0.0813 -0.9712
74800SOL    HW236126   4.605   0.520   8.544 -0.3112 -1.0009  1.3683
74801SOL     OW36127   6.877   7.330   8.977 -0.1683  0.1454 -0.0160
74801SOL    HW136128   6.851   7.408   8.927 -0.2310 -0.1293 -0.4177
74801SOL    HW236129   6.838   7.257   8.929  0.0934 -0.1548  0.2255
74802SOL     OW36130   4.612  13.010  12.621  0.2570  0.6275  0.0738
74802SOL    HW136131   4.692  13.010  12.569 -0.4807  0.6168 -1.0774
74802SOL    HW236132   4.621  13.085  12.679  2.2313 -0.8015  1.7710
74803SOL     OW36133   9.221   1.943   4.104  0.3766 -0.3132  0.1424
74803SOL    HW136134   9.168   1.982   4.035 -0.5813 -1.7152  0.0582
74803SOL    HW236135   9.263   1.868   4.063  3.2737  1.2663 -0.0640
74804SOL     OW36136   2.078  12.310   0.872 -0.0852  0.7750 -0.1474
74804SOL    HW136137   2.028  12.247   0.924  1.0600  1.2058  1.5413
74804SOL    HW236138   2.159  12.264   0.851  0.2519  1.2736  0.0615
74805SOL     OW36139   1.215   8.937   6.856 -1.2474  0.8543 -0.5635
74805SOL    HW136140   1.201   9.031   6.866 -0.6165  0.9460 -0.4606
74805SOL    HW236141   1.234   8.926   6.763 -0.9425  0.8885 -0.5080
74806SOL     OW36142  12.271  12.338   5.124  0.0386  0.1298 -0.4434
74806SOL    HW136143  12.328  12.342   5.201 -0.3241 -1.8463 -0.0248
74806SOL    HW236144  12.182  12.338   5.160 -0.2063  1.2834 -0.9956
74807SOL     OW36145   9.956   3.978   6.887  0.2874  0.3040 -0.2102
74807SOL    HW136146  10.035   3.965   6.940 -1.2419 -0.9543  1.9140
74807SOL    HW236147   9.949   4.073   6.877  0.9510  0.5593  1.4269
74808SOL     OW36148   1.208   9.844   7.938 -0.1021  0.5214 -0.3777
74808SOL    HW136149   1.212   9.917   8.001  0.4596  0.2333 -0.0707
74808SOL    HW236150   1.122   9.853   7.896  0.3708  2.0171 -1.1264
74809SOL     OW36151   0.298   5.801  12.976  0.0537 -0.1558 -0.7243
74809SOL    HW136152   0.274   5.858  12.902  1.1727  0.3580 -0.7039
74809SOL    HW236153   0.238   5.827  13.046 -0.5183 -0.1311 -1.2069
74810SOL     OW36154   0.073   1.768   9.470 -0.0935  0.3724  0.6135
74810SOL    HW136155   0.065   1.832   9.541 -0.7031  0.9050  0.0746
74810SOL    HW236156   0.125   1.811   9.403  0.0110  0.0747  0.4996
74811SOL     OW36157   1.740   0.037   2.449  0.1019 -0.1041 -0.0547
74811SOL    HW136158   1.678   0.022   2.521 -0.1381 -2.0106 -0.6242
74811SOL    HW236159   1.823   0.056   2.493 -0.2511 -0.2931  0.7117
74812SOL     OW36160  13.605   4.771   7.078  0.5915  0.5408  0.4159
74812SOL    HW136161  13.653   4.700   7.035  1.8592  1.3850  0.3691
74812SOL    HW236162  13.596   4.742   7.169 -0.1497 -0.2760  0.0988
74813SOL     OW36163  13.530   2.780   3.933  0.1909  0.2532  0.1808
74813SOL    HW136164  13.454   2.831   3.906  1.1794  1.6451 -0.0834
74813SOL    HW236165  13.501   2.732   4.010 -0.9920  0.6635  0.0022
74814SOL     OW36166   9.715   8.946   3.403 -0.8212 -0.5440 -0.2099
74814SOL    HW136167   9.761   8.944   3.487  0.9352 -0.6860 -1.1276
74814SOL    HW236168   9.715   9.038   3.377 -1.6334 -0.4552  0.0569
74815SOL     OW36169   1.806   1.347   9.737  1.0080 -0.4329 -0.5363
74815SOL    HW136170   1.878   1.407   9.717  1.8429 -0.1683  2.7741
74815SOL    HW236171   1.728   1.394   9.710  1.7938  1.2339 -0.0398
74816SOL     OW36172   9.060   5.334  12.434  0.3054 -0.5104  0.0021
74816SOL    HW136173   9.129   5.314  12.497  1.5659  1.2879 -0.7142
74816SOL    HW236174   8.997   5.386  12.483  0.7552 -0.0098  0.0641
74817SOL     OW36175   7.360  11.755   6.978  0.2118  0.4037  0.8158
74817SOL    HW136176   7.273  11.771   7.016 -0.0252 -1.3743  1.1036
74817SOL    HW236177   7.378  11.663   6.997  1.3858  0.2561 -0.8180
74818SOL     OW36178   6.663   0.414  12.835 -0.1631 -0.5414  0.5643
74818SOL    HW136179   6.576   0.452  12.832  0.1574  0.2519 -2.5821
74818SOL    HW236180   6.718   0.482  12.873 -0.4685  0.1008 -0.1240
74819SOL     OW36181   9.052   0.732   0.428 -0.3230 -0.2773 -0.1917
74819SOL    HW136182   8.983   0.738   0.495 -0.0470  0.0886  0.0685
74819SOL    HW236183   9.037   0.808   0.372  0.7973  0.6989  0.7793
74820SOL     OW36184   2.358   9.126   1.574 -0.0578 -0.1601 -0.1726
74820SOL    HW136185   2.297   9.160   1.638  0.4387  1.3435 -0.4659
74820SOL    HW236186   2.363   9.032   1.593 -3.8846 -0.7710 -1.3212
74821SOL     OW36187  11.878   9.824  10.577  0.4116 -0.2150  0.1517
74821SOL    HW136188  11.914   9.788  10.497 -0.3114 -0.2976 -0.1475
74821SOL    HW236189  11.796   9.866  10.550  1.1339  1.4872  0.5169
74822SOL     OW36190   9.026   9.067   2.253 -0.0461 -0.6289 -0.6701
74822SOL    HW136191   9.002   9.155   2.283 -2.4971 -1.0689 -1.0560
74822SOL    HW236192   9.107   9.047   2.299 -0.6508  0.9305  1.2255
74823SOL     OW36193   0.278  10.005  13.286  0.4449 -0.1798  0.1693
74823SOL    HW136194   0.340  10.030  13.217 -1.6335  0.5215 -1.5476
74823SOL    HW236195   0.246   9.919  13.260 -1.7656  0.8726 -0.9067
74824SOL     OW36196   1.216   4.981  12.129  0.7037 -0.4702  0.2091
74824SOL    HW136197   1.124   4.967  12.151  0.7816  0.8521  1.5102
74824SOL    HW236198   1.262   4.908  12.170  0.3155 -0.7016  0.2383
74825SOL     OW36199   3.161   0.670   0.372 -0.3293 -0.2009  0.6138
74825SOL    HW136200   3.208   0.608   0.317  0.8048 -0.0323  1.3641
74825SOL    HW236201   3.181   0.642   0.461 -1.0532  0.3331  0.9510
74826SOL     OW36202   6.104   2.331   7.635  0.0321  0.9919 -0.2389
74826SOL    HW136203   6.179   2.325   7.575  0.1997  1.5729 -0.0893
74826SOL    HW236204   6.037   2.275   7.594  0.0356  1.6091 -1.1283
74827SOL     OW36205  10.882   4.832   2.067  0.0311  0.0934 -0.4667
74827SOL    HW136206  10.845   4.797   2.149 -0.1488  2.2581  0.4570
74827SOL    HW236207  10.961   4.878   2.094  0.4567  0.0887 -1.6524
74828SOL     OW36208   3.113   8.754   8.043 -0.1616  0.0461 -0.3311
74828SOL    HW136209   3.202   8.788   8.049 -0.6127  1.3340 -0.5751
74828SOL    HW236210   3.058   8.824   8.077 -1.3350  0.5290 -2.9734
74829SOL     OW36211   4.405   9.839  12.192 -0.5220  0.4903  0.3295
74829SOL    HW136212   4.368   9.760  12.151 -1.3828  0.5211  1.0174
74829SOL    HW236213   4.349   9.855  12.268  0.3896  1.0611  0.8999
74830SOL     OW36214   7.093  12.895   7.242 -0.1347  0.5897 -0.1316
74830SOL    HW136215   7.013  12.917   7.290 -0.3398  2.7194 -1.3351
74830SOL    HW236216   7.149  12.973   7.251  1.3454 -0.4081 -0.2852
74831SOL     OW36217   4.466   8.295   4.358  0.0482 -0.1467 -0.0161
74831SOL    HW136218   4.515   8.368   4.319  1.8023 -0.4710  1.4202
74831SOL    HW236219   4.462   8.229   4.289  0.2446  0.5275 -0.6830
74832SOL     OW36220   7.843   7.557   7.452 -0.1794  0.0371 -0.7398
74832SOL    HW136221   7.815   7.477   7.407 -0.2884 -1.3038  1.5795
74832SOL    HW236222   7.915   7.591   7.399  1.1697 -2.6870 -0.7778
74833SOL     OW36223  10.724   3.882   3.836 -0.3483 -0.3205 -0.3538
74833SOL    HW136224  10.804   3.933   3.844 -0.5556 -0.2499  3.1404
74833SOL    HW236225  10.753   3.796   3.806  1.1360 -0.3842  1.1085
74834SOL     OW36226   2.366   7.418   6.364  0.2452 -0.1939  0.4606
74834SOL    HW136227   2.405   7.348   6.417  0.3028 -0.5114  0.0055
74834SOL    HW236228   2.357   7.379   6.277 -1.8795 -0.4160  0.7431
74835SOL     OW36229   4.521   1.777   0.859 -0.4770 -0.4719  0.0339
74835SOL    HW136230   4.532   1.746   0.949 -1.0178  0.1319  0.3158
74835SOL    HW236231   4.483   1.703   0.812  1.6541 -1.4939 -0.2032
74836SOL     OW36232   6.567   6.807  11.348 -0.3038  0.1050 -0.9300
74836SOL    HW136233   6.527   6.811  11.435  1.6247 -0.0487  0.0264
74836SOL    HW236234   6.568   6.713  11.327  0.7622 -0.0407 -0.3173
74837SOL     OW36235   8.804   2.355   5.120  0.1909  0.1730 -0.1600
74837SOL    HW136236   8.895   2.329   5.134  0.0903  0.2224  0.6065
74837SOL    HW236237   8.795   2.439   5.166 -0.3932 -0.1126  0.2555
74838SOL     OW36238   6.878   3.906   6.959  0.0682 -0.3658 -0.2449
74838SOL    HW136239   6.813   3.836   6.957 -0.7836  0.4274 -0.9864
74838SOL    HW236240   6.877   3.937   7.050 -0.0607 -0.8418 -0.0807
74839SOL     OW36241   1.253  11.802  10.615  0.5628  0.6170  0.4000
74839SOL    HW136242   1.259  11.861  10.690 -0.6985  0.1334  0.9128
74839SOL    HW236243   1.284  11.718  10.647 -3.1210 -0.5213  1.5244
74840SOL     OW36244   2.955   9.736   7.321  0.5559 -0.3979  0.0655
74840SOL    HW136245   2.860   9.752   7.327  0.5352  0.0674 -1.3183
74840SOL    HW236246   2.972   9.675   7.393 -0.6471  0.1301  0.8435
74841SOL     OW36247  10.877  12.793   3.370  0.4223  0.2899  0.1083
74841SOL    HW136248  10.847  12.881   3.395 -2.4643 -0.6487  0.4013
74841SOL    HW236249  10.937  12.768   3.440 -0.0713  1.3996  0.9761
74842SOL     OW36250   9.044   6.182  11.978 -0.2207  0.3881  0.1216
74842SOL    HW136251   9.012   6.101  11.939 -0.7719  0.7103 -0.1058
74842SOL    HW236252   9.087   6.228  11.906  1.7408 -0.5195  0.6535
74843SOL     OW36253   6.140   1.710  11.734 -0.0396  0.0226  0.4350
74843SOL    HW136254   6.048   1.685  11.733 -0.4669  1.4591 -1.2512
74843SOL    HW236255   6.145   1.783  11.796 -0.1404  0.2074  0.2306
74844SOL     OW36256   4.620  11.969   7.020 -0.1162 -0.2526 -0.0353
74844SOL    HW136257   4.699  12.004   6.979 -1.5063  0.7874 -1.9917
74844SOL    HW236258   4.639  11.876   7.033  0.9815 -0.2948 -1.6204
74845SOL     OW36259  10.493   3.825   0.511 -0.1926  0.1820 -0.0230
74845SOL    HW136260  10.459   3.915   0.507 -0.9585 -0.0826  0.3119
74845SOL    HW236261  10.580   3.834   0.549 -0.4020  0.7490  0.3322
74846SOL     OW36262   5.837  13.552   8.782  0.2103  0.0640  0.1876
74846SOL    HW136263   5.864  13.561   8.691 -1.4930  0.3263 -0.3172
74846SOL    HW236264   5.793  13.467   8.787 -0.3232  0.3582  0.6004
74847SOL     OW36265   4.777   8.210   7.414 -0.2475  0.2665 -0.1777
74847SOL    HW136266   4.800   8.226   7.323  0.4171  0.4647  0.0239
74847SOL    HW236267   4.859   8.217   7.462 -0.3767 -1.0297  0.2875
74848SOL     OW36268   7.919  12.906   0.683 -0.2940  0.2557 -0.1624
74848SOL    HW136269   8.002  12.869   0.714  0.0254 -0.0590 -1.3211
74848SOL    HW236270   7.924  12.999   0.705  0.2658  0.1897 -0.0056
74849SOL     OW36271   0.418  10.745  11.921  0.1890  0.1363  0.3922
74849SOL    HW136272   0.406  10.747  12.016 -0.2579 -0.9473  0.3709
74849SOL    HW236273   0.499  10.793  11.906  0.0660  0.6474  1.2844
74850SOL     OW36274  12.003   8.814   3.020  0.5847  0.4962  0.0285
74850SOL    HW136275  12.089   8.854   3.031  1.0785 -0.4371 -0.3263
74850SOL    HW236276  11.997   8.794   2.927  0.3603 -0.2621  0.1955
74851SOL     OW36277   5.124  13.179   1.686 -0.5857 -0.0531  0.3531
74851SOL    HW136278   5.198  13.165   1.746  0.3764  0.4839 -0.6509
74851SOL    HW236279   5.069  13.102   1.697  0.4640 -0.7879  0.6605
74852SOL     OW36280   8.471  10.083  10.846 -0.2620  0.5166  0.0349
74852SOL    HW136281   8.504  10.022  10.780  0.5179 -0.5557  1.3583
74852SOL    HW236282   8.540  10.148  10.856  0.6020 -0.5401  1.2921
74853SOL     OW36283   5.150   3.820   7.078 -0.1775 -0.2525 -0.2016
74853SOL    HW136284   5.137   3.794   6.987 -1.9126  2.2943 -0.7966
74853SOL    HW236285   5.080   3.882   7.096  1.3053  0.9064  2.2405
74854SOL     OW36286  13.177   4.383   9.659  0.1440 -0.0586 -0.0641
74854SOL    HW136287  13.145   4.473   9.658  0.5534  0.0873 -0.1818
74854SOL    HW236288  13.156   4.349   9.572  1.0223  0.2968 -0.4303
74855SOL     OW36289   7.264   1.443   0.467 -0.2483  0.2204  0.1111
74855SOL    HW136290   7.246   1.457   0.374 -1.3703  0.1181  0.3046
74855SOL    HW236291   7.278   1.349   0.475 -0.4908  0.1821  0.0967
74856SOL     OW36292  13.389   4.844   1.112 -0.0859 -0.3310 -0.0922
74856SOL    HW136293  13.427   4.824   1.027  1.5031  0.6291  0.3530
74856SOL    HW236294  13.418   4.772   1.169 -2.0094 -1.5397 -0.5347
74857SOL     OW36295  12.048   2.965   5.767 -0.4371 -0.0851  0.2154
74857SOL    HW136296  12.062   2.978   5.673 -0.5030 -1.0863  0.0642
74857SOL    HW236297  11.963   2.921   5.773 -1.0245  1.0752  0.8294
74858SOL     OW36298  10.723   1.001  11.105 -0.0037 -0.0076  0.0840
74858SOL    HW136299  10.817   0.979  11.106 -0.0040  0.0029  1.1571
74858SOL    HW236300  10.692   0.976  11.191 -0.7502  1.0574  0.1377
74859SOL     OW36301   0.448   5.947   1.931  0.2511 -0.4077  0.0840
74859SOL    HW136302   0.359   5.951   1.897 -0.0647  0.8104  0.9643
74859SOL    HW236303   0.481   5.862   1.902  0.0851  0.5314 -3.3481
74860SOL     OW36304  11.122  12.384   2.860  0.4161  0.0862 -0.2720
74860SOL    HW136305  11.203  12.371   2.810 -0.5769  0.8832 -2.2087
74860SOL    HW236306  11.067  12.309   2.838  0.1645  0.1589  0.0927
74861SOL     OW36307   6.333  11.777   4.565  0.2691 -0.6546 -0.4923
74861SOL    HW136308   6.280  11.699   4.549 -1.0079  0.0349  0.1737
74861SOL    HW236309   6.350  11.775   4.659  0.2739 -0.1742 -0.4814
74862SOL     OW36310   0.048   3.507  10.348  0.1680 -0.2317 -0.4309
74862SOL    HW136311   0.062   3.510  10.442 -1.3495 -3.5554  0.0204
74862SOL    HW236312   0.059   3.415  10.324 -0.2793  0.3767 -3.3836
74863SOL     OW36313  11.055   6.378   5.572  0.9751  0.0532  0.1110
74863SOL    HW136314  11.112   6.317   5.618 -0.0179 -0.2310  0.9919
74863SOL    HW236315  11.018   6.327   5.500 -0.2764 -0.5881  1.1638
74864SOL     OW36316   2.209   9.812  13.712 -0.4504  0.1519 -0.0712
74864SOL    HW136317   2.264   9.890  13.715  0.4500 -0.4153 -1.0774
74864SOL    HW236318   2.128   9.838  13.755  0.0714  1.4470  0.1650
74865SOL     OW36319  12.759   4.310  10.179 -0.7716 -0.6436 -0.0510
74865SOL    HW136320  12.704   4.327  10.102  0.7556  1.7622 -0.6934
74865SOL    HW236321  12.816   4.238  10.152 -0.9190 -0.4888 -0.7924
74866SOL     OW36322  10.840  10.592   0.213 -0.3112  0.4653  0.1283
74866SOL    HW136323  10.912  10.626   0.160 -0.1814  0.0547  0.0362
74866SOL    HW236324  10.764  10.597   0.156 -0.5296  1.6863  0.5096
74867SOL     OW36325   2.367  12.272   8.421 -0.0253 -0.3255 -0.3206
74867SOL    HW136326   2.425  12.196   8.411 -0.0977 -0.4889  0.4538
74867SOL    HW236327   2.357  12.282   8.516 -0.8658  0.0074 -0.4407
74868SOL     OW36328   6.002   3.884   1.295 -0.7697  0.0320 -0.1300
74868SOL    HW136329   6.074   3.891   1.232  1.6535 -0.3194  2.3935
74868SOL    HW236330   6.030   3.940   1.368 -2.4504 -1.1473  1.4817
74869SOL     OW36331   2.390   5.010   1.011 -0.4774  0.3664 -0.5570
74869SOL    HW136332   2.482   4.999   1.035 -1.1317 -0.4298  1.8683
74869SOL    HW236333   2.365   4.926   0.974 -0.6941 -0.1039  0.6109
74870SOL     OW36334  11.836   2.193   4.624  0.0992  0.3397 -0.2579
74870SOL    HW136335  11.773   2.150   4.681  0.0781  0.9017  0.1499
74870SOL    HW236336  11.842   2.136   4.547 -1.4253  0.6452 -0.6240
74871SOL     OW36337  10.729  12.967   2.484 -0.0407  0.2313  0.5454
74871SOL    HW136338  10.791  13.025   2.529  0.3293 -0.4719  0.9630
74871SOL    HW236339  10.782  12.924   2.417 -0.5761  1.2367 -0.5713
74872SOL     OW36340   1.346   8.273  12.056 -0.2256  0.3341  0.1482
74872SOL    HW136341   1.376   8.362  12.078  0.6170 -0.1837  1.1673
74872SOL    HW236342   1.380   8.258  11.968  0.7894  0.5437  0.4796
74873SOL     OW36343  12.192   2.769   1.549  0.0003 -0.5599  0.2900
74873SOL    HW136344  12.097   2.759   1.546  0.0271 -0.5475 -1.4545
74873SOL    HW236345  12.221   2.753   1.459  1.3695  2.0691  0.1542
74874SOL     OW36346   9.991  12.672   2.978  0.0257  0.5742 -0.2223
74874SOL    HW136347   9.940  12.735   2.927 -0.5781 -0.7500 -1.3284
74874SOL    HW236348  10.065  12.722   3.012  0.3560  1.5483 -2.2748
74875SOL     OW36349   1.688   4.018   1.766  0.3046 -0.1796 -0.0394
74875SOL    HW136350   1.649   3.932   1.758 -0.5740  0.3449 -2.1456
74875SOL    HW236351   1.719   4.023   1.857 -1.3727 -1.9331  0.6831
74876SOL     OW36352   5.200   5.365   5.411  0.2145 -0.0962  0.4158
74876SOL    HW136353   5.144   5.311   5.354 -1.0093  0.6679  0.8624
74876SOL    HW236354   5.243   5.426   5.351  1.6162 -1.4969 -0.0996
74877SOL     OW36355  12.390   6.566   4.926 -0.7339  0.1905 -0.0382
74877SOL    HW136356  12.362   6.550   4.836 -0.4455  0.2109 -0.1335
74877SOL    HW236357  12.408   6.659   4.930 -0.9723  0.2331  0.1078
74878SOL     OW36358   6.399   3.591   0.650 -0.1060  0.2617  0.3733
74878SOL    HW136359   6.365   3.546   0.573 -1.9861  1.1807  0.6064
74878SOL    HW236360   6.450   3.525   0.697 -0.0147 -0.6542 -0.9866
74879SOL     OW36361   5.581  11.363  10.691  0.0646 -0.2611  0.3670
74879SOL    HW136362   5.587  11.384  10.598 -0.0186  0.2354  0.4708
74879SOL    HW236363   5.669  11.335  10.715  0.1431 -0.1656  0.1912
74880SOL     OW36364   1.750   6.349   9.064 -0.2561  0.3596  0.1335
74880SOL    HW136365   1.807   6.315   9.133  0.4720  1.9854  0.3745
74880SOL    HW236366   1.666   6.306   9.079 -0.4318  1.3827  2.6942
74881SOL     OW36367   6.268   8.588   5.069  0.1545 -0.6698  0.0022
74881SOL    HW136368   6.339   8.633   5.023  1.2111 -3.2152 -1.0782
74881SOL    HW236369   6.189   8.613   5.022  0.7377 -0.2027 -0.7625
74882SOL     OW36370   3.397  10.271   0.404 -0.2200 -0.0382 -0.0320
74882SOL    HW136371   3.417  10.362   0.382 -2.0054  0.5233  0.4890
74882SOL    HW236372   3.372  10.274   0.496 -2.7056 -0.5695 -0.5959
74883SOL     OW36373  11.751  12.600   1.650 -0.0192 -0.4901  0.3426
74883SOL    HW136374  11.763  12.505   1.650 -1.5866 -0.7268 -0.5098
74883SOL    HW236375  11.688  12.616   1.720 -1.6793 -0.4153 -1.0914
74884SOL     OW36376   8.842  13.591   8.744 -0.5215 -0.1378 -0.1039
74884SOL    HW136377   8.795  13.671   8.768 -1.4383  0.0544 -2.3684
74884SOL    HW236378   8.882  13.610   8.660  0.4316 -1.6080 -0.0225
74885SOL     OW36379   7.584   8.106   5.966  0.0112 -0.2022  0.3676
74885SOL    HW136380   7.564   8.039   5.902 -2.4680  1.8265 -1.1895
74885SOL    HW236381   7.645   8.165   5.921 -2.0078  1.4172 -0.3841
74886SOL     OW36382  10.463   7.655   2.160 -0.4013 -0.1407 -0.4852
74886SOL    HW136383  10.489   7.629   2.072 -0.2183 -0.8094 -0.2469
74886SOL    HW236384  10.545   7.682   2.202 -0.2869 -0.9264 -0.1700
74887SOL     OW36385   9.681   8.787   5.072 -0.3429 -0.4047 -0.2024
74887SOL    HW136386   9.742   8.716   5.050  0.1165  0.1478 -0.7424
74887SOL    HW236387   9.715   8.863   5.026 -0.1152  0.4863  1.3878
74888SOL     OW36388  11.844   9.721  12.510  0.3043  0.1216 -0.0290
74888SOL    HW136389  11.878   9.672  12.435 -0.2855  1.0502 -0.9395
74888SOL    HW236390  11.915   9.720  12.574  1.8988  1.5679 -1.6493
74889SOL     OW36391   7.349  10.617   9.076 -0.4858 -0.3199  0.2695
74889SOL    HW136392   7.306  10.701   9.060 -0.1355 -0.2349 -0.2543
74889SOL    HW236393   7.349  10.607   9.171 -0.6222  0.2213  0.3263
74890SOL     OW36394  11.654   5.297  12.319  0.6489  0.3925  0.2809
74890SOL    HW136395  11.688   5.210  12.340 -0.5085  0.2643  1.7899
74890SOL    HW236396  11.560   5.290  12.333  0.5979  2.0435  1.0376
74891SOL     OW36397   8.844  11.255   0.077 -0.1353 -0.0286 -0.0923
74891SOL    HW136398   8.810  11.226   0.162 -0.9974  2.5282  0.5238
74891SOL    HW236399   8.773  11.237   0.016 -0.1060 -0.4974  0.0090
74892SOL     OW36400  11.597  10.002   0.438  0.5385 -0.2150  0.0864
74892SOL    HW136401  11.629  10.054   0.512  0.1614 -0.2799  0.2985
74892SOL    HW236402  11.658  10.021   0.367  1.2513 -0.6055  0.5821
74893SOL     OW36403  11.312   9.642   1.332 -0.5822 -0.1523 -0.5204
74893SOL    HW136404  11.291   9.624   1.240 -1.0787 -0.0041 -0.4435
74893SOL    HW236405  11.242   9.701   1.361  0.6589  1.4301 -0.5991
74894SOL     OW36406   4.066  10.391   6.796  0.3542 -0.0449 -0.3215
74894SOL    HW136407   3.978  10.404   6.832  0.8705 -0.5658  1.1793
74894SOL    HW236408   4.057  10.313   6.741  0.0217 -0.5024  0.3674
74895SOL     OW36409   2.455   3.693   8.772 -0.3954 -0.4715  0.4320
74895SOL    HW136410   2.370   3.658   8.798  0.1324 -1.4975  0.8239
74895SOL    HW236411   2.485   3.743   8.848 -0.7470  0.1073  0.2004
74896SOL     OW36412   0.866  12.313   0.248  0.2182 -0.0199  0.2521
74896SOL    HW136413   0.776  12.299   0.218  0.1964 -0.1885  0.3957
74896SOL    HW236414   0.902  12.378   0.187  0.0006  0.0438  0.1928
74897SOL     OW36415   9.040   0.939  10.605  0.1824  0.0736 -0.1551
74897SOL    HW136416   9.000   1.026  10.609  0.4900  0.2083 -0.0117
74897SOL    HW236417   8.980   0.883  10.654 -0.1507  0.1494 -0.4647
74898SOL     OW36418  10.847  12.279   3.027 -0.1792 -0.2543  0.1311
74898SOL    HW136419  10.855  12.323   3.111  0.1885 -0.0507 -0.0064
74898SOL    HW236420  10.930  12.232   3.017 -0.8363 -1.5426  0.5892
74899SOL     OW36421   7.355   6.724   0.279 -0.3109  0.1487  0.1149
74899SOL    HW136422   7.446   6.753   0.287 -0.0215  0.0184 -2.0969
74899SOL    HW236423   7.356   6.659   0.210 -2.0904  0.0769  0.1021
74900SOL     OW36424   2.366  10.928   7.710  0.0618  0.5105 -0.3755
74900SOL    HW136425   2.386  10.894   7.797  1.5703 -0.8803 -1.2349
74900SOL    HW236426   2.450  10.933   7.666 -0.6532  1.4173 -1.7081
74901SOL     OW36427   0.496   6.295  12.733  0.0236  0.5162  0.2362
74901SOL    HW136428   0.485   6.349  12.655  1.1040  1.6570  0.8439
74901SOL    HW236429   0.423   6.318  12.789 -1.4989 -1.2381 -0.9026
74902SOL     OW36430  12.231   0.789   1.022  0.2140  0.0249 -0.6088
74902SOL    HW136431  12.249   0.877   0.991 -2.3016  0.9381  0.2259
74902SOL    HW236432  12.166   0.755   0.960 -1.1348 -0.0001  0.7478
74903SOL     OW36433   5.017  10.945   1.843 -0.1878 -0.7038  0.2148
74903SOL    HW136434   5.093  10.888   1.834  0.4938  0.1867  0.2494
74903SOL    HW236435   4.942  10.888   1.825  0.5935 -1.0974 -2.0841
74904SOL     OW36436   5.291  12.424  13.181  0.7771 -0.2131  0.0202
74904SOL    HW136437   5.275  12.504  13.132  5.2665  1.4314  0.7223
74904SOL    HW236438   5.375  12.393  13.148 -1.1102 -5.3465 -0.8626
74905SOL     OW36439  13.510   7.433   8.409  0.3552  0.6639 -0.1869
74905SOL    HW136440  13.500   7.391   8.495  2.9962  0.4151  0.0970
74905SOL    HW236441  13.426   7.475   8.393 -1.3330 -1.9327  1.0541
74906SOL     OW36442   6.673   6.014   8.943  0.1535  0.2830 -0.1223
74906SOL    HW136443   6.755   6.015   8.893 -0.0659  0.2222 -0.4903
74906SOL    HW236444   6.634   5.929   8.923 -0.7574  0.9249 -1.2210
74907SOL     OW36445   5.420   9.822   3.705 -0.0366  0.0521 -0.4693
74907SOL    HW136446   5.358   9.793   3.772 -0.5723  0.9462 -0.5560
74907SOL    HW236447   5.436   9.914   3.726  0.4096  0.1239 -1.1029
74908SOL     OW36448  11.440  11.712  10.049 -0.1717  0.2146 -0.2489
74908SOL    HW136449  11.429  11.698   9.955 -2.8115  1.4010 -0.2053
74908SOL    HW236450  11.377  11.652  10.090 -1.2379  1.8286  0.5678
74909SOL     OW36451   5.580   3.647   3.574  0.8367  0.2624  0.0005
74909SOL    HW136452   5.616   3.688   3.652  1.0020 -1.2382  0.7428
74909SOL    HW236453   5.598   3.554   3.584  0.6417 -0.0095 -1.7187
74910SOL     OW36454   9.197   7.248   2.200 -0.1697 -0.0056  0.0382
74910SOL    HW136455   9.244   7.173   2.163 -0.9082  0.1962 -1.3732
74910SOL    HW236456   9.247   7.271   2.278  0.8784 -1.0824 -0.2808
74911SOL     OW36457   5.198   4.823   9.280  0.3055  0.4821  0.4422
74911SOL    HW136458   5.153   4.886   9.224 -0.2211 -1.3225 -1.2498
74911SOL    HW236459   5.128   4.769   9.317  0.8690 -0.5270  0.0725
74912SOL     OW36460   9.449   3.997   7.485 -0.4524  0.0022 -0.3106
74912SOL    HW136461   9.520   4.009   7.422 -0.8622  1.3139 -0.5545
74912SOL    HW236462   9.418   4.085   7.503 -2.8639 -0.5808 -1.1741
74913SOL     OW36463   0.493  10.386   4.874 -0.2318  0.0822 -0.2423
74913SOL    HW136464   0.484  10.352   4.963 -2.2764  0.9176 -0.0866
74913SOL    HW236465   0.483  10.481   4.883  0.9209  0.3294 -1.2218
74914SOL     OW36466   9.289   6.599   2.192 -0.1180  0.4176  0.1842
74914SOL    HW136467   9.235   6.643   2.126 -0.0135 -0.9684 -0.8996
74914SOL    HW236468   9.226   6.553   2.248 -0.1873  1.2541  0.8033
74915SOL     OW36469  10.300   4.534  13.722 -0.7537  0.1131 -0.2157
74915SOL    HW136470  10.362   4.468  13.690 -0.5382  0.6515 -0.9299
74915SOL    HW236471  10.314   4.536  13.816 -0.3960 -0.4936 -0.2476
74916SOL     OW36472   7.322   1.435  10.640 -0.2592 -0.7351 -0.3634
74916SOL    HW136473   7.353   1.501  10.578 -0.9030 -0.8953 -0.8714
74916SOL    HW236474   7.305   1.358  10.586 -2.1570 -0.4536 -0.2489
74917SOL     OW36475   1.613   6.985  10.444  0.0397  0.0484  0.1262
74917SOL    HW136476   1.527   6.959  10.412  0.3523 -1.2200  0.2591
74917SOL    HW236477   1.643   7.050  10.381  0.1668 -1.5861 -1.6092
74918SOL     OW36478   6.193  12.343   5.671  0.2885 -0.6926  0.2225
74918SOL    HW136479   6.208  12.269   5.612 -0.0349 -0.9783  0.4980
74918SOL    HW236480   6.182  12.303   5.757  1.7287 -0.2161  0.6657
74919SOL     OW36481  11.811  13.701   9.882 -0.6681 -0.0638 -0.2932
74919SOL    HW136482  11.804  13.618   9.928  1.6001  0.2609  0.7645
74919SOL    HW236483  11.875  13.684   9.813  2.1646  1.4352  1.7644
74920SOL     OW36484   6.840   5.435   7.656  0.1049  0.0248  0.5834
74920SOL    HW136485   6.933   5.454   7.640  0.0015 -0.1128 -0.2150
74920SOL    HW236486   6.831   5.441   7.752  1.0051 -0.2667  0.7022
74921SOL     OW36487   9.067  12.069   1.528  0.8370 -0.0264  0.1352
74921SOL    HW136488   9.041  11.988   1.571 -0.4690  1.2769  1.9649
74921SOL    HW236489   8.995  12.090   1.469  0.8192  0.2037  0.2370
74922SOL     OW36490  13.174  11.483   1.294  0.2541 -0.1743 -0.4139
74922SOL    HW136491  13.174  11.532   1.376 -0.3615 -1.9950  0.7282
74922SOL    HW236492  13.098  11.517   1.246 -1.3921 -1.3448  1.2430
74923SOL     OW36493   3.290   2.546   5.738 -0.2589 -0.1932  0.0392
74923SOL    HW136494   3.382   2.528   5.752  0.0733  1.0706 -0.4027
74923SOL    HW236495   3.252   2.461   5.713  1.0370 -0.4848 -1.0434
74924SOL     OW36496   2.478   7.526   0.668  0.2616 -0.1264  0.4534
74924SOL    HW136497   2.555   7.473   0.646  2.3907  2.7422  0.3110
74924SOL    HW236498   2.477   7.596   0.602 -1.1296  1.1661  1.7504
74925SOL     OW36499   2.499   9.425   8.753 -0.2290 -0.1095 -0.3496
74925SOL    HW136500   2.588   9.396   8.733  0.2482  0.9287  0.1496
74925SOL    HW236501   2.452   9.419   8.670 -0.0700 -1.8854 -0.3586
74926SOL     OW36502  12.236   4.702   3.631 -0.0281  0.0232  0.8143
74926SOL    HW136503  12.262   4.772   3.570 -2.6848  1.6375  1.3810
74926SOL    HW236504  12.294   4.712   3.706  1.3735 -0.1364 -0.2141
74927SOL     OW36505   7.075  10.331   3.717 -0.4051 -0.5399  0.2583
74927SOL    HW136506   7.102  10.393   3.649  1.8969 -2.9940 -1.3001
74927SOL    HW236507   6.981  10.321   3.704 -0.4847  1.1250 -0.7248
74928SOL     OW36508  10.191   8.695   9.275  0.3184  0.1609  0.3826
74928SOL    HW136509  10.234   8.617   9.308 -0.2993 -0.6566 -0.6818
74928SOL    HW236510  10.243   8.720   9.198 -0.8181 -0.5842 -0.6553
74929SOL     OW36511   1.550   6.036  13.342 -0.1375 -0.2876  0.0336
74929SOL    HW136512   1.491   6.038  13.418  0.3161  0.4853  0.3801
74929SOL    HW236513   1.622   5.979  13.369  1.9248  2.8282  1.6912
74930SOL     OW36514  12.913   0.505   1.236 -0.0530  0.0018  0.1179
74930SOL    HW136515  12.953   0.526   1.152  0.0924  1.6989  0.5878
74930SOL    HW236516  12.841   0.566   1.245 -0.5329 -0.6549  0.9062
74931SOL     OW36517   2.577   8.452  10.687 -0.0139 -0.0273 -0.1669
74931SOL    HW136518   2.610   8.528  10.736  3.0479 -0.8812 -0.6991
74931SOL    HW236519   2.572   8.382  10.752  0.3729 -0.1768 -0.2906
74932SOL     OW36520   8.107   3.306   8.727 -0.3202 -0.0079 -0.0162
74932SOL    HW136521   8.185   3.343   8.769  0.9839 -0.7552 -1.6800
74932SOL    HW236522   8.035   3.362   8.758  0.7532  0.3746  1.9910
74933SOL     OW36523  11.582   3.526  11.112  0.0659  0.0406 -0.2635
74933SOL    HW136524  11.495   3.494  11.137  0.0106  0.8722  0.6659
74933SOL    HW236525  11.612   3.464  11.045  0.3783 -2.5447  2.0877
74934SOL     OW36526   5.393  10.143  13.119 -0.1892  0.3629  0.4537
74934SOL    HW136527   5.421  10.056  13.146 -0.3404  0.7458  1.8984
74934SOL    HW236528   5.322  10.127  13.057 -1.2590 -0.5300  1.8699
74935SOL     OW36529   6.878   2.040   5.656 -0.0446 -0.0825  0.0597
74935SOL    HW136530   6.927   2.113   5.618 -1.3204  0.1368 -1.2801
74935SOL    HW236531   6.883   1.971   5.590 -2.1376  0.2260 -0.4974
74936SOL     OW36532   9.024   7.158   4.495 -0.7619 -0.0265 -0.3759
74936SOL    HW136533   9.108   7.165   4.539 -1.9388 -0.1635  2.0613
74936SOL    HW236534   9.002   7.065   4.498 -0.9890 -0.0079 -1.0669
74937SOL     OW36535   5.243   9.763   0.329  0.6232 -0.1389 -0.2164
74937SOL    HW136536   5.320   9.721   0.291  1.2397  0.2634  0.5695
74937SOL    HW236537   5.205   9.814   0.257  0.1080 -1.6769 -1.0583
74938SOL     OW36538   5.775   0.154   2.905 -0.2753  0.2535 -0.2246
74938SOL    HW136539   5.820   0.223   2.954 -0.2349 -0.9508  1.5335
74938SOL    HW236540   5.682   0.174   2.917 -0.2901  1.4012 -1.8798
74939SOL     OW36541  13.674   2.009  13.576  0.3138 -0.2524  0.4440
74939SOL    HW136542  13.658   1.968  13.661  1.1499 -3.1068 -0.6500
74939SOL    HW236543  13.745   2.072  13.592 -0.0204 -0.2274  1.9487
74940SOL     OW36544  10.228   7.636   3.664 -0.1288  0.0410  0.0014
74940SOL    HW136545  10.199   7.727   3.660  0.3222  0.1443 -1.1657
74940SOL    HW236546  10.311   7.639   3.711 -0.9966 -0.0133  1.6002
74941SOL     OW36547  11.943   3.899   6.681 -0.0270  0.7554 -0.1798
74941SOL    HW136548  11.998   3.961   6.729  1.0396  1.1925 -1.8830
74941SOL    HW236549  11.997   3.821   6.671  0.0755  0.9626 -1.3425
74942SOL     OW36550   5.021   2.724  10.813 -0.0515  0.1508  0.1934
74942SOL    HW136551   4.960   2.790  10.847 -0.6677 -1.2051  1.8435
74942SOL    HW236552   4.997   2.715  10.721  1.0901  3.3265 -0.5369
74943SOL     OW36553   1.792   1.964  11.975  0.3092  0.5891 -0.1923
74943SOL    HW136554   1.780   2.054  11.946 -0.2389  0.1415 -1.4258
74943SOL    HW236555   1.856   1.970  12.046 -1.4120  2.1952  1.3284
74944SOL     OW36556   5.104   0.691   1.012  0.3795  0.1047 -0.1573
74944SOL    HW136557   5.018   0.725   1.035 -0.2724 -0.4201 -1.6677
74944SOL    HW236558   5.096   0.666   0.920  2.2506  0.3699 -0.4392
74945SOL     OW36559   7.739   5.085  12.546 -0.1308  0.2174 -0.2360
74945SOL    HW136560   7.823   5.105  12.589  0.2967 -1.5021 -0.1727
74945SOL    HW236561   7.754   5.105  12.454  1.1208 -2.0283 -0.6003
74946SOL     OW36562   9.378   0.010   3.825 -0.0727  0.4376  0.0834
74946SOL    HW136563   9.432  -0.002   3.903 -1.0744  1.3518  0.9522
74946SOL    HW236564   9.396   0.099   3.795 -1.1483  0.8053  0.4620
74947SOL     OW36565   2.555   8.448  11.626  0.5775 -0.3562  0.4798
74947SOL    HW136566   2.491   8.442  11.554  0.6308  0.1070  0.3871
74947SOL    HW236567   2.565   8.359  11.657  0.0821 -0.4723  0.3166
74948SOL     OW36568   0.168  13.744   9.636 -0.6822  0.3889 -0.2094
74948SOL    HW136569   0.187  13.716   9.546 -0.0277  0.8205 -0.2085
74948SOL    HW236570   0.097  13.686   9.664  0.3302 -0.9775 -0.3494
74949SOL     OW36571   1.940   6.687   0.397  0.0158  0.4428  0.4476
74949SOL    HW136572   1.885   6.749   0.349 -0.2250 -0.1353 -0.0242
74949SOL    HW236573   1.993   6.742   0.455  0.1152  1.1254 -0.2756
74950SOL     OW36574   7.717  12.584   6.902 -0.1283  0.8093 -0.0353
74950SOL    HW136575   7.628  12.576   6.936  0.0078 -0.0221  0.1305
74950SOL    HW236576   7.773  12.588   6.980 -0.0364  1.6463 -0.1320
74951SOL     OW36577  10.528  11.918   7.578 -0.4583 -0.0751 -0.2306
74951SOL    HW136578  10.505  11.975   7.652  0.3090  0.5658 -0.4615
74951SOL    HW236579  10.470  11.947   7.508 -0.4945  0.0094 -0.1673
74952SOL     OW36580   9.335  12.490  12.870 -0.1334  0.2023 -1.0573
74952SOL    HW136581   9.312  12.457  12.956  0.2925 -1.9831 -1.7223
74952SOL    HW236582   9.337  12.412  12.814 -0.5905  1.5796 -3.0909
74953SOL     OW36583   5.467  12.697   1.016  0.0031  0.6362  0.0962
74953SOL    HW136584   5.510  12.680   1.099 -1.8343  2.0050  1.4075
74953SOL    HW236585   5.507  12.635   0.955  1.1980 -0.6071  2.0428
74954SOL     OW36586   0.639   2.053   9.315 -0.1390  0.5391  0.4231
74954SOL    HW136587   0.580   2.108   9.264 -0.2539  0.6483  0.6721
74954SOL    HW236588   0.721   2.053   9.266 -1.1302 -1.8637 -1.4469
74955SOL     OW36589   0.165   6.155   9.687  0.2806 -0.0190  0.0287
74955SOL    HW136590   0.213   6.224   9.733  0.6646  0.3024 -0.8261
74955SOL    HW236591   0.111   6.202   9.624  1.3637 -0.5235 -1.3285
74956SOL     OW36592  13.172  10.375  13.260 -0.1300 -0.0656 -0.0890
74956SOL    HW136593  13.142  10.300  13.208  0.6092  0.8730 -1.9566
74956SOL    HW236594  13.145  10.452  13.209  1.3396  0.8710  0.4943
74957SOL     OW36595   2.470   0.085  10.482  0.1663 -0.1247  0.3326
74957SOL    HW136596   2.497   0.063  10.571  1.9989 -0.2768 -0.2039
74957SOL    HW236597   2.478   0.180  10.477  2.3828 -0.2708 -0.2752
74958SOL     OW36598  12.494   7.208   0.443  0.4127 -0.0090  0.0654
74958SOL    HW136599  12.510   7.150   0.517  0.6475  1.2360  1.0150
74958SOL    HW236600  12.556   7.279   0.454 -0.9104  1.2368 -0.1716
74959SOL     OW36601   1.374  12.396   7.091  0.2626  0.3188 -0.5088
74959SOL    HW136602   1.400  12.321   7.036 -0.8404 -0.1194 -0.4508
74959SOL    HW236603   1.334  12.356   7.168 -0.3046  0.9776 -0.4636
74960SOL     OW36604   5.057   1.234   8.525  0.1147 -0.0288 -0.3388
74960SOL    HW136605   5.007   1.275   8.455  0.5251  0.5294 -0.3142
74960SOL    HW236606   5.147   1.234   8.494 -0.2091 -3.8435 -1.7295
74961SOL     OW36607   8.450   3.935  12.797 -0.4657  0.2602 -0.3497
74961SOL    HW136608   8.525   3.876  12.783 -0.2381  0.3735  0.3424
74961SOL    HW236609   8.400   3.893  12.868 -1.4248 -0.1575 -1.2502
74962SOL     OW36610  12.869  13.184   8.721 -0.0794  0.0140 -0.2597
74962SOL    HW136611  12.839  13.171   8.811  0.2568  1.6277  0.1028
74962SOL    HW236612  12.789  13.175   8.668 -0.2946 -0.8472  0.1875
74963SOL     OW36613   8.974   0.412  13.372  0.3031  0.1367 -0.0518
74963SOL    HW136614   9.033   0.464  13.318 -0.1895 -1.3789 -2.1491
74963SOL    HW236615   9.030   0.343  13.408  0.4247  0.5619  0.5939
74964SOL     OW36616   2.276   0.347   0.504 -0.2638 -0.0214  0.3697
74964SOL    HW136617   2.317   0.276   0.454 -1.9364 -0.8600  0.1027
74964SOL    HW236618   2.349   0.402   0.532  1.0039 -1.3235 -0.2282
74965SOL     OW36619   0.127   5.145   5.110 -0.2861  0.0388 -0.5391
74965SOL    HW136620   0.036   5.127   5.086 -0.6339 -0.2373  0.8842
74965SOL    HW236621   0.132   5.121   5.203  0.8125  1.6154 -0.1595
74966SOL     OW36622   4.146  13.152   9.320 -0.3430  0.6740  0.5689
74966SOL    HW136623   4.079  13.127   9.256 -1.1621  1.6982  0.9989
74966SOL    HW236624   4.219  13.091   9.303 -1.1541 -0.1031 -0.2757
74967SOL     OW36625  13.206  10.290   9.680  0.1708  0.0286  0.4165
74967SOL    HW136626  13.156  10.354   9.629 -0.3828 -0.1876  0.6790
74967SOL    HW236627  13.237  10.340   9.756 -0.3874 -0.0443  0.6979
74968SOL     OW36628   9.419   1.334   6.814  0.0467  0.2585  0.3082
74968SOL    HW136629   9.401   1.402   6.879 -0.2861 -0.6433  1.1929
74968SOL    HW236630   9.339   1.281   6.813  0.2856 -0.1054 -0.3998
74969SOL     OW36631  11.423  13.431   1.766  0.1580  0.1327  0.0357
74969SOL    HW136632  11.460  13.364   1.823 -0.5528  0.3752  0.8039
74969SOL    HW236633  11.365  13.482   1.823  0.7529  1.4665 -0.5125
74970SOL     OW36634   6.809  11.748  13.464 -0.7407 -0.6335 -0.6344
74970SOL    HW136635   6.752  11.685  13.419 -2.9838  0.3033  0.7163
74970SOL    HW236636   6.795  11.731  13.557 -0.4026  0.9859 -0.2475
74971SOL     OW36637   3.483   1.707   9.645 -0.2259 -0.4929 -0.6428
74971SOL    HW136638   3.503   1.741   9.732  1.2677 -0.3115 -1.0360
74971SOL    HW236639   3.490   1.783   9.587 -0.5004 -0.7591 -1.0309
74972SOL     OW36640   6.979   2.218   2.967 -0.3724 -0.5308 -0.1870
74972SOL    HW136641   7.036   2.184   2.899  0.6646 -0.8343  0.8096
74972SOL    HW236642   6.954   2.142   3.019  0.0786 -0.1031  0.6725
74973SOL     OW36643  13.522   0.097  11.393 -0.2067 -0.4026  0.3116
74973SOL    HW136644  13.548   0.159  11.325  0.3209 -2.0552 -1.0788
74973SOL    HW236645  13.585   0.110  11.464 -0.2489  0.7727  0.1475
74974SOL     OW36646   1.415  12.025  12.338  0.0490 -0.1003 -0.5681
74974SOL    HW136647   1.452  11.995  12.421  0.5614  0.4878 -0.5775
74974SOL    HW236648   1.383  11.946  12.296 -1.0707 -0.3069  0.6057
74975SOL     OW36649   6.246   1.054   8.209 -0.6672 -0.0708 -0.3085
74975SOL    HW136650   6.267   0.995   8.137  0.4764 -0.2501  0.1495
74975SOL    HW236651   6.184   1.005   8.263  0.6100 -1.0591  0.3029
74976SOL     OW36652  11.169   6.849   3.062 -0.4614 -0.6796 -0.2876
74976SOL    HW136653  11.082   6.878   3.034 -0.3845 -1.2863 -1.1899
74976SOL    HW236654  11.212   6.820   2.982 -1.1380 -4.9274  0.6659
74977SOL     OW36655   1.311   8.834   0.996 -0.3009 -0.4885  0.0007
74977SOL    HW136656   1.401   8.806   1.014  0.3530  1.8610  0.7552
74977SOL    HW236657   1.303   8.918   1.040 -2.5514 -0.1363 -0.9493
74978SOL     OW36658  10.142   0.396   4.834 -0.1199  0.1543 -0.0804
74978SOL    HW136659  10.178   0.473   4.789 -0.9208  0.8774  0.4838
74978SOL    HW236660  10.096   0.347   4.766  1.1519 -0.3252 -0.6306
74979SOL     OW36661   7.278  10.436  10.447 -0.4139 -0.0017 -0.3048
74979SOL    HW136662   7.198  10.474  10.411  0.1462  1.9481  0.3804
74979SOL    HW236663   7.345  10.454  10.381 -0.0016  0.8771  0.3301
74980SOL     OW36664  12.997   6.658   7.995  0.4456 -0.1981  0.0282
74980SOL    HW136665  12.923   6.634   8.051 -2.4930  1.3695 -2.8364
74980SOL    HW236666  12.998   6.754   7.996  1.4204 -0.1665 -1.2540
74981SOL     OW36667  11.981   0.019   4.106 -0.0283 -0.7204 -0.1085
74981SOL    HW136668  11.894   0.017   4.067 -0.2263  0.8740  0.1818
74981SOL    HW236669  11.980  -0.050   4.172  0.0495 -2.9467 -2.3241
74982SOL     OW36670  13.451   9.037   7.092  0.8642 -0.2344  0.0476
74982SOL    HW136671  13.526   9.096   7.106  1.4357 -1.1109  0.7901
74982SOL    HW236672  13.489   8.962   7.046  0.1571 -0.0713 -0.8193
74983SOL     OW36673   3.410   9.076   2.985  0.5243 -0.1656  0.8640
74983SOL    HW136674   3.350   9.144   3.015  1.0605  0.6557  0.1188
74983SOL    HW236675   3.484   9.081   3.045  0.6400  0.0244  0.7051
74984SOL     OW36676   2.947   0.868  12.272  0.4589  0.2959  0.0869
74984SOL    HW136677   3.025   0.842  12.322  0.0323 -1.3423 -0.0165
74984SOL    HW236678   2.981   0.912  12.195  1.2319  0.6798  0.6354
74985SOL     OW36679   5.542  11.983  12.615  0.4859 -0.6066  0.0851
74985SOL    HW136680   5.549  12.076  12.635 -1.0419 -0.9348  2.6916
74985SOL    HW236681   5.497  11.979  12.531  0.0459  0.9992  0.2241
74986SOL     OW36682   0.736   9.147   2.820  0.0161 -0.0593  0.1147
74986SOL    HW136683   0.757   9.153   2.913 -0.8872 -1.5630  0.4458
74986SOL    HW236684   0.672   9.217   2.806 -2.0422 -1.6013  1.3217
74987SOL     OW36685   7.131   0.735   2.502  0.1159 -0.6180 -0.4913
74987SOL    HW136686   7.050   0.725   2.552  0.7975  2.0068  1.3288
74987SOL    HW236687   7.197   0.689   2.553  0.2111 -0.7693 -0.7488
74988SOL     OW36688   0.640  10.371   0.444 -0.3828 -0.1557 -0.2669
74988SOL    HW136689   0.713  10.309   0.455 -0.4205 -0.2841 -0.7189
74988SOL    HW236690   0.570  10.336   0.499 -0.6981 -0.9868 -1.1798
74989SOL     OW36691   1.796   2.523   4.507  0.3453 -0.0841  0.2326
74989SOL    HW136692   1.722   2.474   4.471  2.4326 -3.3982  0.0171
74989SOL    HW236693   1.800   2.496   4.599  1.6975 -0.6416  0.0472
74990SOL     OW36694   6.587   2.716   8.300 -0.3335 -0.2782  0.1413
74990SOL    HW136695   6.646   2.647   8.270  0.9040  1.1476 -0.8443
74990SOL    HW236696   6.561   2.763   8.221 -3.0779 -1.0058  0.5073
74991SOL     OW36697   1.512   3.865  12.675  0.1268 -0.0835 -0.6056
74991SOL    HW136698   1.579   3.813  12.632  3.0333  1.2070  1.9866
74991SOL    HW236699   1.489   3.815  12.753 -0.1653  0.5612 -0.2703
74992SOL     OW36700  10.212  11.925   5.120 -0.3435 -0.4570  0.7005
74992SOL    HW136701  10.214  11.851   5.059 -0.8535  0.3232 -0.2940
74992SOL    HW236702  10.301  11.961   5.117 -0.4056 -0.3360  0.3159
74993SOL     OW36703   7.928   3.633   8.674 -0.3020 -0.3200  0.5057
74993SOL    HW136704   7.939   3.622   8.579 -0.0483  2.0826  0.1956
74993SOL    HW236705   7.930   3.727   8.687 -3.3493 -0.4185  2.5737
74994SOL     OW36706  11.302   0.374   3.020  0.1822  0.4947  0.6675
74994SOL    HW136707  11.377   0.317   3.003  0.0258  0.5328 -0.1896
74994SOL    HW236708  11.249   0.368   2.941 -0.3397  1.0548  0.9675
74995SOL     OW36709   7.636   2.389   4.137  0.0577 -0.7407 -0.2282
74995SOL    HW136710   7.717   2.439   4.150  0.0129 -1.1195  1.8994
74995SOL    HW236711   7.566   2.452   4.155 -0.1051 -0.7221 -0.8946
74996SOL     OW36712   6.246  13.649   3.879  0.2956  0.3484  0.0149
74996SOL    HW136713   6.283  13.665   3.966  0.5653  0.2840 -0.0875
74996SOL    HW236714   6.211  13.560   3.884  2.2830 -0.5077 -0.6156
74997SOL     OW36715  10.447   7.848   4.055  0.5858  0.0903 -0.2023
74997SOL    HW136716  10.460   7.943   4.046  2.0673 -0.0771 -0.0977
74997SOL    HW236717  10.490   7.826   4.137 -2.5605 -0.2184  1.5116
74998SOL     OW36718   6.789   5.694  13.699  0.1505  0.0491 -0.1164
74998SOL    HW136719   6.812   5.638  13.625 -0.1529  0.2767 -0.3910
74998SOL    HW236720   6.805   5.783  13.667  3.1549  0.0848  1.1813
74999SOL     OW36721  10.794   7.239   3.030  0.0318 -0.1424  0.0517
74999SOL    HW136722  10.835   7.162   2.989  2.7562  1.2392 -0.0656
74999SOL    HW236723  10.828   7.238   3.120 -2.6713 -0.9024  1.1634
75000SOL     OW36724   9.247   9.634   6.217 -0.0676 -0.0445  0.2799
75000SOL    HW136725   9.196   9.581   6.278 -1.0823  0.4945 -0.0704
75000SOL    HW236726   9.271   9.713   6.267 -0.8635  0.3777  0.0162
75001SOL     OW36727   2.542   0.613   9.092  0.0025 -0.3862 -0.1548
75001SOL    HW136728   2.488   0.663   9.153  1.1141  0.6257  0.0341
75001SOL    HW236729   2.631   0.644   9.108  0.8110 -2.6356  0.1749
75002SOL     OW36730  10.781  12.790  12.456 -0.0882 -0.3250 -0.1858
75002SOL    HW136731  10.845  12.734  12.413 -0.7094 -2.4459  1.4496
75002SOL    HW236732  10.828  12.826  12.532 -0.3727 -0.6799  0.1678
75003SOL     OW36733   4.590  13.133  13.610  0.3212  0.0888  0.5668
75003SOL    HW136734   4.582  13.148  13.516  0.4327 -1.0493  0.3538
75003SOL    HW236735   4.641  13.052  13.617 -0.0188 -0.0571  1.5943
75004SOL     OW36736   5.872  10.901   9.979 -0.3935  0.3473  0.4646
75004SOL    HW136737   5.926  10.980   9.980  0.2572 -0.0872  1.4049
75004SOL    HW236738   5.820  10.906  10.059 -2.3091  1.0934 -0.7548
75005SOL     OW36739  10.169   6.346   4.012  0.2297 -0.4690  0.4033
75005SOL    HW136740  10.185   6.299   3.930  2.0996  4.1510 -2.3158
75005SOL    HW236741  10.256   6.356   4.051 -0.3734 -0.7578  1.8883
75006SOL     OW36742   7.422  12.156   4.204 -0.0371 -0.6229  0.5644
75006SOL    HW136743   7.486  12.088   4.186 -0.9481 -1.7417  1.3396
75006SOL    HW236744   7.454  12.233   4.158  1.4802 -1.3364  0.3714
75007SOL     OW36745   6.050   4.173   8.896 -0.0625 -0.6035  0.5981
75007SOL    HW136746   6.095   4.214   8.969  0.0233 -1.5006  1.0717
75007SOL    HW236747   6.043   4.241   8.829 -0.4001  0.3083  1.5517
75008SOL     OW36748   9.357  12.447   6.722 -0.4472  0.1070 -0.3110
75008SOL    HW136749   9.306  12.503   6.780  0.6860 -1.2995  2.2456
75008SOL    HW236750   9.325  12.358   6.740  1.9214 -0.6685  0.4276
75009SOL     OW36751   4.424   4.164   8.863  0.0662 -0.8176 -0.2079
75009SOL    HW136752   4.330   4.179   8.871  0.4877  2.7479 -0.4536
75009SOL    HW236753   4.452   4.139   8.951 -0.7946  0.5245  0.4771
75010SOL     OW36754   9.541   5.088   4.914 -0.0439 -0.1418 -0.6781
75010SOL    HW136755   9.467   5.059   4.861  0.1048 -0.1011 -0.9045
75010SOL    HW236756   9.516   5.176   4.943 -0.0462 -0.0928 -0.8272
75011SOL     OW36757   0.625  12.389   5.327  0.0397 -0.3728 -0.4232
75011SOL    HW136758   0.689  12.439   5.377 -0.5200  0.8073 -0.8654
75011SOL    HW236759   0.659  12.299   5.329  0.5850 -0.1699  1.1568
75012SOL     OW36760  13.684   9.373   8.095  0.1124  0.3084 -0.0331
75012SOL    HW136761  13.594   9.369   8.127  0.2793  1.4640  0.6075
75012SOL    HW236762  13.704   9.282   8.072 -1.1201 -0.0131  0.0600
75013SOL     OW36763   0.980   7.779   2.727  0.1055 -0.2217  0.7529
75013SOL    HW136764   0.962   7.720   2.655  2.0377  1.3609 -1.1535
75013SOL    HW236765   1.010   7.723   2.798 -0.2920 -1.6853 -0.2043
75014SOL     OW36766   0.540   7.080  12.814 -0.4382  0.4058  0.2491
75014SOL    HW136767   0.622   7.111  12.776 -0.2316  0.4232  0.7043
75014SOL    HW236768   0.561   7.062  12.906 -1.2967  1.7810  0.7482
75015SOL     OW36769   2.618  12.969   8.343 -0.2847 -0.6848 -0.3642
75015SOL    HW136770   2.591  12.956   8.434 -0.3319  1.8259  0.0337
75015SOL    HW236771   2.698  12.917   8.335 -0.5177 -1.3099  0.9629
75016SOL     OW36772   0.639   4.871   9.254  0.5088  0.3798  0.5388
75016SOL    HW136773   0.680   4.789   9.280 -0.3337  0.7010  3.0863
75016SOL    HW236774   0.694   4.940   9.292 -0.0835  0.9190  0.4455
75017SOL     OW36775   6.441  13.395   3.668 -0.5325 -0.1869 -0.4128
75017SOL    HW136776   6.375  13.356   3.725  0.1372 -0.9618 -0.1544
75017SOL    HW236777   6.438  13.342   3.588  2.8506 -3.2739  1.2171
75018SOL     OW36778   8.285   3.286   9.767  0.0252 -0.6954  0.1631
75018SOL    HW136779   8.301   3.345   9.842  2.6144 -0.1442 -0.7199
75018SOL    HW236780   8.192   3.298   9.747  0.3146  2.9356  0.2433
75019SOL     OW36781  10.553  13.397  10.429  0.3795 -0.8634  0.1057
75019SOL    HW136782  10.624  13.352  10.383 -0.2203 -1.3177 -0.3996
75019SOL    HW236783  10.592  13.479  10.458  1.0158 -0.9546 -0.4588
75020SOL     OW36784   5.094  13.040   3.132  0.2421  0.3005  0.1172
75020SOL    HW136785   5.035  13.093   3.079 -0.7280 -1.5787 -0.7740
75020SOL    HW236786   5.038  12.995   3.195  0.4212 -2.4646 -1.5311
75021SOL     OW36787   2.587   1.263  12.081 -0.4301  0.0897  0.1295
75021SOL    HW136788   2.557   1.303  12.163  0.4971 -0.2130  0.6254
75021SOL    HW236789   2.512   1.214  12.050 -1.0059  0.7442  0.4577
75022SOL     OW36790   2.626  11.621   9.807 -0.4609  0.4067 -0.5766
75022SOL    HW136791   2.538  11.659   9.807 -1.7324 -2.3057  0.1228
75022SOL    HW236792   2.623  11.556   9.737  0.5886 -0.5978  0.2938
75023SOL     OW36793  13.737   4.495  12.721  0.3317 -0.0722  0.0706
75023SOL    HW136794  13.727   4.567  12.783 -1.2575  0.1764 -0.4211
75023SOL    HW236795  13.666   4.508  12.658 -0.4802 -2.4612  0.3722
75024SOL     OW36796   9.849   5.948  11.214 -0.3300  0.2028  0.2858
75024SOL    HW136797   9.919   5.890  11.242 -1.0377 -0.6999  0.2303
75024SOL    HW236798   9.891   6.034  11.203  0.3462  0.1643  2.2151
75025SOL     OW36799   1.551   7.647   0.407 -0.3321 -0.0591 -0.3025
75025SOL    HW136800   1.526   7.671   0.317 -0.3153 -1.8247 -0.8014
75025SOL    HW236801   1.571   7.731   0.449  2.7726  0.6666 -2.8600
75026SOL     OW36802  11.993   2.588   5.806 -0.3783  0.0123  0.7198
75026SOL    HW136803  11.999   2.645   5.882 -2.5511 -0.0196  0.9572
75026SOL    HW236804  11.901   2.589   5.781 -0.2059 -2.1369 -0.2471
75027SOL     OW36805   7.754   4.145   7.152 -0.1081 -0.4205 -0.8204
75027SOL    HW136806   7.702   4.177   7.078 -1.0559 -1.0824 -0.4593
75027SOL    HW236807   7.700   4.077   7.193 -0.3033  0.9651  1.4161
75028SOL     OW36808   9.304   2.991   9.109 -0.0919 -0.2341  0.3709
75028SOL    HW136809   9.266   2.990   9.021 -1.7947  0.9176  1.0181
75028SOL    HW236810   9.373   2.925   9.107 -1.0068 -1.2105 -1.4254
75029SOL     OW36811   8.745   2.516   6.631  0.6980  0.0837  0.2409
75029SOL    HW136812   8.751   2.611   6.621  0.1338  0.5294  3.3442
75029SOL    HW236813   8.816   2.493   6.691 -0.0135 -1.2398  0.6216
75030SOL     OW36814  10.241   9.901   8.771 -0.4042 -0.2452  0.2447
75030SOL    HW136815  10.184   9.977   8.782  2.1466  1.6610  0.9332
75030SOL    HW236816  10.195   9.846   8.706 -3.7354  0.3692  1.8418
75031SOL     OW36817   6.141  10.118   8.357  0.5380  0.1753 -0.4290
75031SOL    HW136818   6.077  10.187   8.373 -0.5148 -1.3095  2.6911
75031SOL    HW236819   6.225  10.164   8.355 -0.2408  1.7132  0.1137
75032SOL     OW36820   9.062   7.994   3.737  0.1527 -0.1254 -0.4656
75032SOL    HW136821   9.116   8.047   3.678 -0.3774  0.5143 -0.3884
75032SOL    HW236822   8.973   8.024   3.721 -0.0391 -0.2269  0.3609
75033SOL     OW36823   0.957  10.120   3.950  0.6788  0.3066 -0.4815
75033SOL    HW136824   0.973  10.045   3.892 -2.1375 -0.3370 -0.5661
75033SOL    HW236825   0.948  10.082   4.037 -1.0874  0.4586 -0.5730
75034SOL     OW36826   0.070   8.341   1.132 -0.2102 -0.3069  0.6334
75034SOL    HW136827   0.095   8.431   1.154 -0.8707  0.0204  0.1039
75034SOL    HW236828   0.047   8.301   1.215 -0.9985  0.3671  0.7510
75035SOL     OW36829   4.895   1.398  11.908  0.4700  0.2929  0.1922
75035SOL    HW136830   4.838   1.324  11.928  0.9807 -0.6520 -1.6306
75035SOL    HW236831   4.961   1.362  11.849  1.0967  2.0739 -0.2464
75036SOL     OW36832   3.719   2.275   4.309 -0.2816 -0.0856  0.1043
75036SOL    HW136833   3.677   2.208   4.255  0.5651 -0.8018  0.3133
75036SOL    HW236834   3.716   2.354   4.254  1.8352 -1.1158 -1.6819
75037SOL     OW36835  12.219   7.037   3.757 -0.2980  0.4821  0.3890
75037SOL    HW136836  12.297   6.984   3.775  0.1141  0.3437 -1.6288
75037SOL    HW236837  12.250   7.128   3.767 -0.0637  0.4123  0.3143
75038SOL     OW36838   5.144   9.382   4.130 -0.0461  0.0227  0.3187
75038SOL    HW136839   5.098   9.425   4.202  0.8216 -1.1522  1.6189
75038SOL    HW236840   5.218   9.440   4.110 -0.8426  0.8439 -0.3309
75039SOL     OW36841   5.764  11.516  13.611 -0.5221 -0.2161  0.4548
75039SOL    HW136842   5.765  11.433  13.564  0.3419  0.7292 -1.3010
75039SOL    HW236843   5.808  11.497  13.694 -0.6633 -1.5826  0.2369
75040SOL     OW36844  12.503  12.426   9.445  0.1827  0.2578 -0.5379
75040SOL    HW136845  12.435  12.368   9.480 -0.0820  1.4717  1.0784
75040SOL    HW236846  12.579  12.369   9.433  0.0221 -0.3922  1.2938
75041SOL     OW36847   6.407   6.594   2.425 -0.3898 -0.2344  0.0473
75041SOL    HW136848   6.319   6.587   2.388 -0.6012 -0.6343  0.6227
75041SOL    HW236849   6.399   6.558   2.513  0.7032 -1.7531 -0.4332
75042SOL     OW36850   3.522  10.656   6.289 -0.2909  0.2541  0.0533
75042SOL    HW136851   3.617  10.643   6.287 -0.2236  0.7855 -0.6536
75042SOL    HW236852   3.490  10.615   6.209 -0.6972 -0.1630  0.4233
75043SOL     OW36853  12.815   2.480  13.298  0.6457 -0.2899  0.1883
75043SOL    HW136854  12.749   2.413  13.311 -0.7560  0.3332 -2.8407
75043SOL    HW236855  12.772   2.562  13.326  0.7443 -0.0926 -0.2361
75044SOL     OW36856   5.929  12.613  12.056 -0.0426  0.1129  0.8539
75044SOL    HW136857   6.010  12.621  12.006 -0.0103  0.4932  0.9584
75044SOL    HW236858   5.864  12.581  11.994 -0.5235  2.5500  0.0001
75045SOL     OW36859  11.508   6.861   5.218  0.3032 -0.1592 -0.1706
75045SOL    HW136860  11.485   6.858   5.311  0.8649  0.3447 -0.0054
75045SOL    HW236861  11.494   6.952   5.193  1.5748  0.0599 -0.1815
75046SOL     OW36862   2.393   4.649   5.114  0.2648  0.0892  0.2652
75046SOL    HW136863   2.483   4.676   5.133  0.7145 -0.4918 -0.9506
75046SOL    HW236864   2.341   4.689   5.183  1.2008  2.1002 -0.1358
75047SOL     OW36865   9.864   1.130   0.296  0.2681 -0.0249 -0.9383
75047SOL    HW136866   9.829   1.216   0.273  0.0841 -0.0173 -0.6310
75047SOL    HW236867   9.787   1.073   0.296  0.3423 -0.1227 -0.8150
75048SOL     OW36868  10.845   5.584   7.492 -0.1111  0.8024 -0.5316
75048SOL    HW136869  10.896   5.528   7.434 -0.7283 -0.0840 -0.2384
75048SOL    HW236870  10.813   5.654   7.435  0.0652  0.4539 -1.0691
75049SOL     OW36871  11.765   3.090   6.319 -0.3472 -0.3159 -0.1617
75049SOL    HW136872  11.693   3.027   6.323 -1.1096  0.5939  1.2328
75049SOL    HW236873  11.725   3.169   6.284  0.0666  0.0798  0.2512
75050SOL     OW36874   6.357   3.784   1.398  0.0698  0.3432  0.4125
75050SOL    HW136875   6.293   3.822   1.457 -0.0838  0.4063  0.2070
75050SOL    HW236876   6.316   3.705   1.364  0.3868 -0.0057  0.8335
75051SOL     OW36877   2.210   7.824   4.870  0.1880  0.0584 -0.4057
75051SOL    HW136878   2.235   7.786   4.955  0.4764  1.4787  0.1755
75051SOL    HW236879   2.276   7.891   4.854 -1.2392  1.4814 -0.5576
75052SOL     OW36880  12.850   0.573   0.850 -0.4465 -0.0127  0.0241
75052SOL    HW136881  12.852   0.621   0.767 -0.2277 -0.5762 -0.3008
75052SOL    HW236882  12.760   0.541   0.856 -0.1841 -0.9130 -0.5542
75053SOL     OW36883   0.516   9.661   1.967 -0.2706  0.3754 -0.0633
75053SOL    HW136884   0.427   9.652   1.999 -0.0787 -0.9521  0.1843
75053SOL    HW236885   0.567   9.598   2.019  0.6418  0.4877 -0.7767
75054SOL     OW36886   0.467   3.747   1.832 -1.0356  0.0344 -0.1206
75054SOL    HW136887   0.439   3.776   1.745 -1.2946 -0.7272 -0.2961
75054SOL    HW236888   0.476   3.828   1.882 -0.6976  0.4994 -0.9076
75055SOL     OW36889   6.747   4.150  13.325 -0.5605 -0.0484  0.1757
75055SOL    HW136890   6.712   4.091  13.259  0.2799  0.0334 -0.3659
75055SOL    HW236891   6.710   4.119  13.407 -0.4728 -1.0686 -0.1505
75056SOL     OW36892  12.071   6.994  13.478  0.4353 -0.2052 -0.2991
75056SOL    HW136893  12.080   6.967  13.386 -0.9807  1.3723 -0.9623
75056SOL    HW236894  12.099   7.085  13.479  0.7793 -0.3096  0.9279
75057SOL     OW36895   1.159   5.204  10.134 -0.0965  0.6611 -0.3883
75057SOL    HW136896   1.201   5.244  10.058  0.1152 -1.1751 -1.3018
75057SOL    HW236897   1.230   5.191  10.196  0.2804 -0.3448 -1.0091
75058SOL     OW36898   7.902   8.102   5.556  0.4006 -0.2702  0.1523
75058SOL    HW136899   7.996   8.088   5.565  0.3512  0.3318  2.5177
75058SOL    HW236900   7.863   8.015   5.567  0.6139 -0.1821  1.8975
75059SOL     OW36901   8.658   6.415   2.858 -0.4489 -0.1235  0.4253
75059SOL    HW136902   8.626   6.449   2.775  1.3811  0.0563 -0.2408
75059SOL    HW236903   8.635   6.322   2.856  2.0531 -0.7968 -1.6236
75060SOL     OW36904  12.297   0.426   9.841 -0.3499  0.0297 -0.9504
75060SOL    HW136905  12.204   0.447   9.847  0.0017  1.8261 -1.2585
75060SOL    HW236906  12.312   0.362   9.912 -1.5577  0.6498 -0.1027
75061SOL     OW36907   2.847   1.398   5.075 -0.3641 -0.0671 -0.1582
75061SOL    HW136908   2.834   1.490   5.097 -1.2984 -0.4870  1.1656
75061SOL    HW236909   2.856   1.354   5.160 -3.5469 -1.7015 -0.5252
75062SOL     OW36910   9.102  11.835   0.349  0.0623  0.2708 -0.3817
75062SOL    HW136911   9.060  11.788   0.277 -0.3927 -0.6714  0.4752
75062SOL    HW236912   9.165  11.893   0.306 -0.1332 -0.3398 -1.5344
75063SOL     OW36913   7.808   9.765  12.251 -0.0032 -0.0684 -0.4393
75063SOL    HW136914   7.779   9.743  12.339  2.2870 -0.9724  0.1561
75063SOL    HW236915   7.829   9.681  12.210 -0.4086  0.3871 -1.6342
75064SOL     OW36916   3.094   4.870   9.352  0.1521 -0.5341 -0.0716
75064SOL    HW136917   3.139   4.799   9.306  0.9516  0.0971 -0.2838
75064SOL    HW236918   3.038   4.826   9.415 -0.2895 -1.3922 -1.0344
75065SOL     OW36919   9.945   0.545  11.998  0.3393  0.3748  0.0483
75065SOL    HW136920   9.926   0.472  12.057 -0.1437 -0.8179 -1.4952
75065SOL    HW236921  10.039   0.560  12.007  0.2180  0.4809  1.3660
75066SOL     OW36922   1.413   4.807  10.276  0.1026  0.3145 -0.1386
75066SOL    HW136923   1.408   4.801  10.371  0.1646  0.1137 -0.1477
75066SOL    HW236924   1.356   4.738  10.244  0.8937 -0.3071 -0.2451
75067SOL     OW36925   9.404   8.586  11.045 -0.4235  0.4747 -0.0590
75067SOL    HW136926   9.460   8.512  11.023 -1.5584 -0.3837 -0.1649
75067SOL    HW236927   9.410   8.644  10.968  1.5358  1.2064  0.5857
75068SOL     OW36928   6.499   2.351  10.016 -0.5148  0.1687  0.0834
75068SOL    HW136929   6.517   2.275  10.071  1.5658 -0.3339 -1.1663
75068SOL    HW236930   6.448   2.410  10.071 -1.7530 -1.8894  1.2652
75069SOL     OW36931   0.440   0.123   3.769  0.6804  0.1284  0.4836
75069SOL    HW136932   0.368   0.125   3.706  0.5064  0.0277  0.6802
75069SOL    HW236933   0.443   0.212   3.804  1.2511  0.3871 -0.2010
75070SOL     OW36934   2.845   6.727   8.350  0.1344 -0.2039 -0.1356
75070SOL    HW136935   2.938   6.708   8.335 -0.3519 -2.3032 -0.7713
75070SOL    HW236936   2.801   6.691   8.273 -1.2485  0.6445  0.2243
75071SOL     OW36937   4.263   9.972   0.093  0.2016 -0.2541 -0.1540
75071SOL    HW136938   4.180  10.020   0.100 -0.5609 -1.4884 -0.3273
75071SOL    HW236939   4.318  10.010   0.161 -1.0040 -0.3160  0.9091
75072SOL     OW36940   0.465   7.812  12.709  0.1923 -0.3825  0.0524
75072SOL    HW136941   0.535   7.834  12.647  0.8579 -0.1550  0.8631
75072SOL    HW236942   0.511   7.790  12.790 -0.6646 -0.6414  0.4807
75073SOL     OW36943  13.583   4.527  13.056  0.1227 -0.6175 -0.1006
75073SOL    HW136944  13.631   4.602  13.091  0.0533 -0.5633 -0.1193
75073SOL    HW236945  13.554   4.555  12.969 -1.1017 -0.1453  0.4311
75074SOL     OW36946   3.472  10.192   0.072  0.1912 -0.5933 -0.1763
75074SOL    HW136947   3.490  10.167  -0.019  0.8059  0.2492 -0.3002
75074SOL    HW236948   3.533  10.139   0.124 -1.5561 -2.6063 -0.0549
75075SOL     OW36949   4.071  11.459  12.782 -0.6854 -0.2825 -0.5296
75075SOL    HW136950   4.158  11.487  12.752 -0.3577  0.4351  0.9635
75075SOL    HW236951   4.079  11.364  12.791  0.0151 -0.2076 -0.2471
75076SOL     OW36952  10.497   9.689   1.813 -0.0730 -0.4990 -0.4330
75076SOL    HW136953  10.465   9.766   1.766 -0.6716 -0.4444  0.0576
75076SOL    HW236954  10.541   9.724   1.890  1.8927 -0.5246 -1.4662
75077SOL     OW36955  10.051   4.914   4.183 -0.0531  0.1193  0.3046
75077SOL    HW136956  10.013   4.827   4.183 -0.5956  0.3371  1.5325
75077SOL    HW236957  10.146   4.899   4.183 -0.1390 -0.4933  1.0957
75078SOL     OW36958   6.711  10.101   0.337 -0.2906  0.1526  0.3711
75078SOL    HW136959   6.621  10.132   0.323 -0.4061 -0.6144 -0.7585
75078SOL    HW236960   6.702  10.006   0.341  0.6212 -0.0143 -1.0982
75079SOL     OW36961   1.420   2.565   3.750 -0.2388  0.0490  0.5336
75079SOL    HW136962   1.461   2.613   3.822  1.6888  0.6001 -0.8592
75079SOL    HW236963   1.493   2.530   3.700 -1.5566 -1.1224 -0.6532
75080SOL     OW36964  10.285   5.124  11.649  0.4636  0.3578  0.4292
75080SOL    HW136965  10.371   5.086  11.666  0.4974  0.5162  0.6236
75080SOL    HW236966  10.301   5.192  11.584  0.2094 -0.7998 -0.8814
75081SOL     OW36967   4.846   2.539   2.251  0.2361 -0.1594  0.2467
75081SOL    HW136968   4.925   2.584   2.279 -0.2077  0.6456  0.2214
75081SOL    HW236969   4.865   2.512   2.160  0.4918 -0.0101  0.2552
75082SOL     OW36970   4.878   8.738   7.327 -0.4677 -0.5255 -0.1288
75082SOL    HW136971   4.884   8.804   7.396 -0.8482 -0.1620 -0.4353
75082SOL    HW236972   4.807   8.680   7.355  1.7256 -2.5674  1.5991
75083SOL     OW36973   4.123  12.562   9.560 -0.4007 -0.0972 -0.3490
75083SOL    HW136974   4.129  12.566   9.655  1.7764  0.1508 -0.4480
75083SOL    HW236975   4.055  12.497   9.543 -0.4601 -0.5331  1.3751
75084SOL     OW36976   1.555   4.412  13.275  0.7279  0.0316  0.4871
75084SOL    HW136977   1.568   4.339  13.214 -0.5755 -0.1205  0.3696
75084SOL    HW236978   1.503   4.476  13.227 -1.5662 -0.7018  1.8187
75085SOL     OW36979   6.570   1.330   9.195  0.4481 -0.1566  0.2936
75085SOL    HW136980   6.493   1.373   9.231  1.1104  0.1574  1.3684
75085SOL    HW236981   6.644   1.379   9.230  1.1562 -0.5978 -0.5292
75086SOL     OW36982  12.853   6.530   1.167  0.5769  0.4607 -0.2655
75086SOL    HW136983  12.766   6.504   1.137  0.0002  0.3303  1.4446
75086SOL    HW236984  12.891   6.450   1.202  0.9784  0.7306 -0.0760
75087SOL     OW36985   8.250  13.235   2.874 -0.3667  0.3899 -0.0468
75087SOL    HW136986   8.330  13.268   2.834  0.1980 -1.2812 -0.3692
75087SOL    HW236987   8.194  13.211   2.800  0.2800 -1.7572  0.0729
75088SOL     OW36988   5.587   8.923  10.107 -0.1051  0.5416  0.3430
75088SOL    HW136989   5.572   9.015  10.126 -0.3224  0.8973 -1.3984
75088SOL    HW236990   5.682   8.913  10.112  0.0397  1.1989 -0.8165
75089SOL     OW36991   5.632   3.491   6.099 -0.1804 -0.7152  0.4045
75089SOL    HW136992   5.645   3.582   6.070 -1.3724 -1.0456 -1.2905
75089SOL    HW236993   5.700   3.478   6.165  0.4122  1.2182  0.2527
75090SOL     OW36994   1.881   7.334   9.709  0.2246 -0.3733 -0.2615
75090SOL    HW136995   1.803   7.309   9.759  0.0066  1.3323  0.3188
75090SOL    HW236996   1.867   7.426   9.688  0.6236 -0.8498 -2.9499
75091SOL     OW36997   1.848  12.618   1.091 -0.2554  0.0363  0.1220
75091SOL    HW136998   1.839  12.638   1.184 -0.0667 -2.1802  0.6864
75091SOL    HW236999   1.940  12.597   1.079 -0.4870 -0.7880 -0.3025
75092SOL     OW37000  12.383   6.102   1.795 -0.8328 -0.0931 -0.0313
75092SOL    HW137001  12.327   6.055   1.857 -0.6607  0.9326  0.9437
75092SOL    HW237002  12.383   6.193   1.827  0.7900  0.0746 -0.4082
75093SOL     OW37003   7.159  13.171   9.409 -0.4185 -0.4287 -0.2501
75093SOL    HW137004   7.159  13.171   9.314  1.2950  0.3318 -0.2908
75093SOL    HW237005   7.246  13.203   9.433 -1.0426  0.0463  1.5648
75094SOL     OW37006   5.069   8.583   3.732 -0.7975  0.1563  0.3858
75094SOL    HW137007   5.153   8.628   3.741  0.2212 -1.3618 -1.1017
75094SOL    HW237008   5.088   8.491   3.753 -1.8536 -0.3924 -0.8947
75095SOL     OW37009  13.100   4.315   0.701 -0.4595 -0.9609 -0.3805
75095SOL    HW137010  13.127   4.331   0.610 -0.7240 -0.1724 -0.3284
75095SOL    HW237011  13.047   4.392   0.724  1.8292  0.2159  1.3501
75096SOL     OW37012   1.397  13.185  13.076 -0.4188  0.0914  0.4868
75096SOL    HW137013   1.434  13.105  13.112 -2.8567 -1.5112 -0.3314
75096SOL    HW237014   1.433  13.255  13.131  2.1935 -1.4560  0.8966
75097SOL     OW37015   7.655   3.343  11.257 -0.2335  0.2032 -0.4605
75097SOL    HW137016   7.608   3.286  11.318  0.6576 -0.7829 -0.6749
75097SOL    HW237017   7.689   3.414  11.313 -0.0427 -0.3000  0.0674
75098SOL     OW37018   3.286   7.227   8.115 -0.2578 -0.1581 -0.0788
75098SOL    HW137019   3.270   7.133   8.108 -0.4478 -0.0636 -1.1288
75098SOL    HW237020   3.216   7.267   8.064 -1.3075  0.6733  1.9190
75099SOL     OW37021   5.611   0.759  11.959 -0.0149 -0.3759 -0.1704
75099SOL    HW137022   5.686   0.774  11.901  0.9436 -0.8291  0.8962
75099SOL    HW237023   5.553   0.702  11.909  0.5888 -0.4164 -0.8451
75100SOL     OW37024   0.716   4.130   9.604 -0.4560 -0.3337  0.2297
75100SOL    HW137025   0.807   4.120   9.632 -1.0401 -1.3145  1.8862
75100SOL    HW237026   0.720   4.127   9.508  1.1434 -1.4748  0.2998
75101SOL     OW37027   9.381   2.372   2.665 -0.6375  0.0115  0.6616
75101SOL    HW137028   9.312   2.309   2.647 -0.4316 -0.0827  0.1852
75101SOL    HW237029   9.351   2.453   2.625 -0.5620  0.0194  0.6200
75102SOL     OW37030   8.424   8.093   8.143 -0.3201 -0.0516 -0.1963
75102SOL    HW137031   8.405   8.027   8.077 -1.0179  0.9989 -1.0752
75102SOL    HW237032   8.456   8.043   8.218  0.3251 -1.2757 -1.2516
75103SOL     OW37033  11.432  13.723   2.098  0.3308 -0.4949  0.0633
75103SOL    HW137034  11.495  13.793   2.116 -0.4841 -0.0723  1.4527
75103SOL    HW237035  11.376  13.721   2.176 -1.5464 -0.6666 -1.2262
75104SOL     OW37036   5.931   9.529   4.974  0.0618 -0.6976 -0.4492
75104SOL    HW137037   5.907   9.617   4.945 -0.7700  0.0480  2.1977
75104SOL    HW237038   5.886   9.470   4.913 -1.3095  0.7175 -0.8651
75105SOL     OW37039   7.990   7.476   6.052 -0.3758  0.3930  0.0146
75105SOL    HW137040   7.982   7.381   6.063 -0.1603  0.3242 -0.4344
75105SOL    HW237041   7.981   7.490   5.958 -1.1909  0.8920  0.1579
75106SOL     OW37042   6.985  11.976   4.561  0.0658 -0.1871 -0.1899
75106SOL    HW137043   7.041  12.052   4.547  0.8436 -0.5418  0.8039
75106SOL    HW237044   6.985  11.963   4.656 -2.3126  0.2249 -0.0669
75107SOL     OW37045   5.054   5.694  13.580 -0.7870  0.2611 -0.0882
75107SOL    HW137046   5.075   5.731  13.495 -1.2651 -1.0838 -0.8192
75107SOL    HW237047   5.029   5.604  13.562 -0.3860 -0.2227  1.5334
75108SOL     OW37048  13.363   7.318  11.759  0.3101 -0.0109  0.4513
75108SOL    HW137049  13.360   7.395  11.703 -0.5140  0.4264  1.0749
75108SOL    HW237050  13.445   7.274  11.736  0.1707  0.3622 -0.8020
75109SOL     OW37051   8.217   4.395  13.346 -0.2649  0.0946  0.0070
75109SOL    HW137052   8.260   4.475  13.377 -0.4534  0.2260 -0.0641
75109SOL    HW237053   8.288   4.337  13.319 -0.1282  0.2412  0.0547
75110SOL     OW37054   4.759  10.896   2.446  0.0347  0.3448  0.2338
75110SOL    HW137055   4.727  10.921   2.359 -1.8588 -2.0220  0.1273
75110SOL    HW237056   4.752  10.975   2.498 -2.8434  0.8845 -0.7489
75111SOL     OW37057   6.568   9.418   4.871 -0.2590  0.1256 -0.2720
75111SOL    HW137058   6.590   9.481   4.939  0.5391 -0.4077 -0.0212
75111SOL    HW237059   6.482   9.385   4.895 -1.3816  2.1692 -1.2011
75112SOL     OW37060   2.235   7.199   6.643  0.1635 -0.7368 -0.3401
75112SOL    HW137061   2.246   7.205   6.548  0.3846 -1.3214 -0.3566
75112SOL    HW237062   2.202   7.110   6.658 -0.5527 -0.4044  0.0718
75113SOL     OW37063  10.694   7.957   8.342 -0.4673 -0.5482  0.3274
75113SOL    HW137064  10.781   7.962   8.381  0.1572 -0.3287 -1.0323
75113SOL    HW237065  10.634   7.950   8.417  0.7055 -0.6695  1.2802
75114SOL     OW37066   6.008  12.245   6.973 -0.0448 -0.3709 -0.0452
75114SOL    HW137067   6.002  12.198   6.890 -0.6468  1.1707 -0.9139
75114SOL    HW237068   5.935  12.212   7.025 -1.0483  0.2489 -1.0106
75115SOL     OW37069  11.373   3.545   0.027  0.3077  0.3444  0.2909
75115SOL    HW137070  11.451   3.568   0.079  0.1859  0.3045  0.4953
75115SOL    HW237071  11.403   3.477  -0.033 -0.1456 -1.6264  2.1481
75116SOL     OW37072  10.643   4.445   9.959 -0.2817  0.7686  0.2255
75116SOL    HW137073  10.562   4.469  10.005 -0.3561 -0.1778  0.5979
75116SOL    HW237074  10.712   4.471  10.020 -0.3315  0.7614  0.2863
75117SOL     OW37075  13.516   0.696   2.028 -0.3911  0.0351  0.1170
75117SOL    HW137076  13.584   0.687   1.962 -1.0151 -1.9807 -0.3338
75117SOL    HW237077  13.497   0.606   2.056 -3.1510  0.4464 -0.0930
75118SOL     OW37078   1.102   3.950   2.097  0.2267  0.2051 -0.5754
75118SOL    HW137079   1.156   3.892   2.151 -0.9395  1.3374  1.9720
75118SOL    HW237080   1.165   4.005   2.050  1.3337 -2.4063 -2.3659
75119SOL     OW37081   6.858   4.296   0.316  0.0291  0.2640 -0.6631
75119SOL    HW137082   6.766   4.319   0.319 -0.2028 -0.7396  1.1827
75119SOL    HW237083   6.863   4.208   0.353  1.5546 -0.3625 -2.2104
75120SOL     OW37084   0.866  10.625   9.421  0.6565 -0.1443 -0.2448
75120SOL    HW137085   0.943  10.675   9.396  0.8598 -0.9223 -1.2530
75120SOL    HW237086   0.801  10.691   9.446  1.5430  0.5256  0.3246
75121SOL     OW37087  11.971   2.187   2.701  0.1315 -0.1640  0.4821
75121SOL    HW137088  12.059   2.191   2.663  0.2261 -0.2951  0.6862
75121SOL    HW237089  11.917   2.147   2.633 -0.4008  2.5000 -0.8139
75122SOL     OW37090   4.086  11.685   2.895 -0.3767 -0.0205 -0.0446
75122SOL    HW137091   4.055  11.733   2.818 -0.8435  1.5237  1.0684
75122SOL    HW237092   4.180  11.678   2.882 -0.4372  0.3018 -0.7127
75123SOL     OW37093   8.923  10.454  11.794 -0.5845 -0.1456  0.0542
75123SOL    HW137094   9.005  10.470  11.841 -1.1063  0.4549  0.8062
75123SOL    HW237095   8.874  10.395  11.851 -1.0149  0.1750  0.0250
75124SOL     OW37096   6.515   8.012   4.568  0.3307  0.5793 -0.1238
75124SOL    HW137097   6.555   8.099   4.566  0.7756  0.3650 -1.4281
75124SOL    HW237098   6.551   7.967   4.492 -0.0334 -0.6942  0.4293
75125SOL     OW37099   1.323  10.285   4.153  0.2487  0.6976 -0.2039
75125SOL    HW137100   1.376  10.358   4.184  0.5489  1.2311 -1.8894
75125SOL    HW237101   1.284  10.316   4.072  0.1594 -0.9184 -0.8178
75126SOL     OW37102   9.052  11.958   7.100  0.2666 -0.0717 -0.6929
75126SOL    HW137103   9.070  12.047   7.131 -0.8302  0.2624 -0.9803
75126SOL    HW237104   9.062  11.904   7.178  0.3186  0.3854 -0.3723
75127SOL     OW37105   4.881   3.473  10.226  0.0472 -0.3332 -0.1766
75127SOL    HW137106   4.952   3.536  10.242 -0.6005  0.7236 -1.2622
75127SOL    HW237107   4.817   3.523  10.176 -1.3155 -1.3723  0.4908
75128SOL     OW37108   1.761   9.294  13.083 -0.3961 -0.4292 -0.9874
75128SOL    HW137109   1.714   9.213  13.100  0.1192 -0.3982  0.7011
75128SOL    HW237110   1.694   9.352  13.045 -1.0502 -1.2449 -1.1213
75129SOL     OW37111   1.261   7.941  10.029  0.2607  0.0453  0.6245
75129SOL    HW137112   1.191   7.881  10.054  0.1915  0.5441  1.6540
75129SOL    HW237113   1.327   7.931  10.098  1.5435 -0.9117 -0.6547
75130SOL     OW37114   0.641   7.531  13.286  0.3760  0.4897 -0.1604
75130SOL    HW137115   0.623   7.441  13.259  3.3903 -0.3027  0.0581
75130SOL    HW237116   0.658   7.525  13.380  0.2127  1.3532 -0.0709
75131SOL     OW37117   0.527   7.380   0.890  0.4418 -0.3569 -0.7988
75131SOL    HW137118   0.574   7.383   0.973  1.3511  0.9743 -1.3188
75131SOL    HW237119   0.587   7.421   0.827  0.9478 -3.7149 -2.7442
75132SOL     OW37120   3.256   5.844   8.197  0.1314  0.1700 -0.1413
75132SOL    HW137121   3.188   5.780   8.174  1.3719 -1.8026  1.3882
75132SOL    HW237122   3.219   5.893   8.270 -0.7328  1.1247 -1.1707
75133SOL     OW37123  12.490   1.537   8.638  0.0609 -0.1192 -0.1887
75133SOL    HW137124  12.527   1.611   8.686 -1.1698 -1.2265  2.6628
75133SOL    HW237125  12.473   1.572   8.550  2.4277  2.0131  0.0767
75134SOL     OW37126   6.280  11.718   3.048  0.1376  0.1682  0.4349
75134SOL    HW137127   6.365  11.742   3.010  0.1761 -0.1092  0.3431
75134SOL    HW237128   6.223  11.707   2.972  0.1460 -0.1278  0.4734
75135SOL     OW37129   2.079   7.119  10.489 -0.4793 -0.0410  0.0204
75135SOL    HW137130   2.004   7.162  10.529 -0.7532 -0.8390  0.3951
75135SOL    HW237131   2.148   7.185  10.489 -1.1284  0.6551 -0.1889
75136SOL     OW37132   0.021   1.866   4.190  0.5702  0.2715 -0.3763
75136SOL    HW137133  -0.007   1.775   4.180  0.0774  0.2288  1.0722
75136SOL    HW237134  -0.030   1.898   4.265 -0.7554  2.3649 -2.0449
75137SOL     OW37135   5.057   0.237  11.498  0.2334 -0.2236 -0.0888
75137SOL    HW137136   5.022   0.265  11.583  2.4066 -0.9214  1.1102
75137SOL    HW237137   5.028   0.147  11.488 -0.6210  0.0820 -0.4517
75138SOL     OW37138  13.444  12.313   2.465  0.1419  0.0752 -0.4367
75138SOL    HW137139  13.372  12.343   2.410  0.1102  1.0376  0.1184
75138SOL    HW237140  13.405  12.301   2.552  0.8399  1.5660  0.1114
75139SOL     OW37141  12.729   4.983   6.070  0.1896  0.2696  0.0809
75139SOL    HW137142  12.737   4.893   6.103 -1.8569 -0.4800 -1.3142
75139SOL    HW237143  12.797   5.031   6.117 -0.0514 -1.5302  2.4660
75140SOL     OW37144  13.203   1.417  10.297  0.2109  0.2133  0.2738
75140SOL    HW137145  13.277   1.391  10.244  1.2152 -0.5779  1.9952
75140SOL    HW237146  13.156   1.482  10.243  0.4873 -1.3899 -2.0152
75141SOL     OW37147   7.211   1.557   0.200 -0.4289 -0.3719  0.0897
75141SOL    HW137148   7.301   1.590   0.197 -0.7083  0.4596  0.5863
75141SOL    HW237149   7.157   1.636   0.197 -1.1176 -0.7220  2.1724
75142SOL     OW37150   5.188   5.619  11.817 -0.4818 -0.5754  0.1851
75142SOL    HW137151   5.120   5.679  11.787  0.9053  1.4084  0.7628
75142SOL    HW237152   5.264   5.640  11.763  0.0276 -1.9170  0.3386
75143SOL     OW37153   8.939   1.722   1.160  0.0302 -0.3709  0.4020
75143SOL    HW137154   9.010   1.659   1.151 -0.9532 -1.5463  0.6626
75143SOL    HW237155   8.869   1.688   1.105 -0.1016  1.1722 -0.4669
75144SOL     OW37156   7.841   4.453   2.392  0.2813  0.6470  0.9451
75144SOL    HW137157   7.878   4.379   2.440  1.9500  0.4869 -0.4972
75144SOL    HW237158   7.761   4.418   2.353  0.0325  0.1837  1.8289
75145SOL     OW37159  11.524  12.826   7.109 -0.7449  0.3235 -0.4650
75145SOL    HW137160  11.606  12.809   7.064 -0.0253  0.8436  0.6207
75145SOL    HW237161  11.475  12.882   7.049  0.6635  1.9510 -0.1471
75146SOL     OW37162   6.928   6.000   9.197 -0.0587 -0.0250  0.0111
75146SOL    HW137163   6.926   5.944   9.275 -0.0278 -0.4175 -0.2691
75146SOL    HW237164   7.005   6.056   9.211 -0.3417  0.2510  0.4967
75147SOL     OW37165   4.931   5.243  12.319  0.2003  0.1446  0.2831
75147SOL    HW137166   4.964   5.328  12.289 -2.6192  1.0159 -0.6488
75147SOL    HW237167   4.967   5.180  12.256 -0.0285  1.0635 -0.7976
75148SOL     OW37168  13.240   4.537   7.067 -0.4835 -0.7976  0.3469
75148SOL    HW137169  13.226   4.485   6.987  0.2737 -0.7652  0.1855
75148SOL    HW237170  13.238   4.472   7.138  1.6981 -1.2745  0.0408
75149SOL     OW37171   0.316   2.039   6.350 -0.2622 -0.7171  0.3021
75149SOL    HW137172   0.283   1.965   6.299 -2.1855 -0.8915  1.6938
75149SOL    HW237173   0.239   2.073   6.395  0.7925  1.4241  0.6061
75150SOL     OW37174   4.398   3.288   0.003  0.5190 -0.1510  0.7715
75150SOL    HW137175   4.361   3.210  -0.038 -1.7685  1.4659 -0.4416
75150SOL    HW237176   4.481   3.302  -0.043  1.1660 -1.9763  1.2557
75151SOL     OW37177   2.285   9.314   6.275 -0.3136 -0.4770 -0.3229
75151SOL    HW137178   2.217   9.377   6.253  0.1148 -0.1880 -0.8556
75151SOL    HW237179   2.366   9.355   6.246  0.3047 -0.0888  1.7884
75152SOL     OW37180   3.771   9.453  10.415 -0.5659  0.3434  0.1507
75152SOL    HW137181   3.848   9.505  10.436 -1.5742  1.1859  1.9671
75152SOL    HW237182   3.760   9.394  10.490  0.5882 -2.6902 -1.8594
75153SOL     OW37183   2.903   9.102   9.517  0.1157 -0.3406 -0.5964
75153SOL    HW137184   2.864   9.024   9.555 -0.4042 -0.1486 -0.7339
75153SOL    HW237185   2.908   9.164   9.589 -0.5219 -0.1070 -0.7543
75154SOL     OW37186   7.531   9.976   4.637  0.2019 -0.2392 -0.1207
75154SOL    HW137187   7.610   9.924   4.645 -0.0469 -0.7624 -0.9667
75154SOL    HW237188   7.531  10.007   4.547 -0.6953 -0.4945 -0.2221
75155SOL     OW37189   3.928   0.731  11.554 -0.6877 -0.0717 -0.1554
75155SOL    HW137190   3.965   0.721  11.642 -0.0574 -2.6474 -0.6223
75155SOL    HW237191   3.987   0.792  11.510 -0.2200  0.1820  0.7907
75156SOL     OW37192   8.169   1.450   6.642 -0.3050 -0.2345 -0.5272
75156SOL    HW137193   8.240   1.472   6.702  0.9532 -1.9459 -1.2888
75156SOL    HW237194   8.168   1.522   6.579 -1.8936  1.7803  1.6167
75157SOL     OW37195   6.523  11.038  12.741  0.1048  0.0250  0.3536
75157SOL    HW137196   6.553  11.114  12.791 -1.3108 -0.1045  1.4669
75157SOL    HW237197   6.598  11.013  12.687  1.2445  0.9973  1.4384
75158SOL     OW37198   9.709   1.595   2.977  0.0437  0.1588  0.2436
75158SOL    HW137199   9.686   1.590   3.070  0.6532 -1.2320  0.3384
75158SOL    HW237200   9.634   1.555   2.932  0.4166 -0.5451  0.2474
75159SOL     OW37201  11.680   5.012   9.405  0.4405  0.1553  0.0804
75159SOL    HW137202  11.713   4.955   9.336  1.9682  1.3574 -0.2397
75159SOL    HW237203  11.692   4.961   9.486  3.7185  0.7028  0.0528
75160SOL     OW37204   0.954  12.921  10.533 -0.8103  0.0047 -0.3319
75160SOL    HW137205   1.034  12.970  10.510 -1.5965  0.7096 -1.7137
75160SOL    HW237206   0.923  12.962  10.614  0.2171 -0.2771  0.2198
75161SOL     OW37207  11.513   9.289   1.756 -0.0498 -0.3851  0.0924
75161SOL    HW137208  11.508   9.249   1.842 -1.1753 -0.6653 -0.0864
75161SOL    HW237209  11.582   9.240   1.710  0.6804 -0.1114  0.8695
75162SOL     OW37210   5.659   0.871  12.787 -0.5810 -0.0666 -0.3423
75162SOL    HW137211   5.613   0.788  12.775 -2.1754  0.9469 -1.6758
75162SOL    HW237212   5.633   0.901  12.874 -2.2073  0.2822 -0.9097
75163SOL     OW37213  10.855  10.121  11.122  0.5497  0.1571  0.1541
75163SOL    HW137214  10.919  10.157  11.183  0.4680  0.6775 -0.0607
75163SOL    HW237215  10.781  10.094  11.177  0.2125  1.2084  0.2308
75164SOL     OW37216   7.947   1.549   8.762 -0.2128  0.6750 -0.2705
75164SOL    HW137217   7.888   1.475   8.772 -0.0918  0.5826 -0.2388
75164SOL    HW237218   7.964   1.579   8.851  1.1699 -0.3887 -0.1360
75165SOL     OW37219   3.934   9.270   4.596  0.2765 -0.0423 -0.3241
75165SOL    HW137220   3.844   9.281   4.627  0.2583 -2.3979  0.6992
75165SOL    HW237221   3.989   9.295   4.671  0.4967  0.7708 -0.7342
75166SOL     OW37222   0.166   6.844   3.411  0.2501  0.4550 -0.5608
75166SOL    HW137223   0.136   6.846   3.320 -0.7012 -0.2761 -0.2804
75166SOL    HW237224   0.112   6.908   3.456  0.5884  0.6768 -0.4626
75167SOL     OW37225   1.657   5.919   0.545 -0.2439  0.0618 -0.1655
75167SOL    HW137226   1.568   5.954   0.548 -0.0083  1.0955 -2.8201
75167SOL    HW237227   1.711   5.986   0.588 -0.2866  1.3883 -2.0504
75168SOL     OW37228   8.516  11.259  12.955 -0.0337 -0.3668  0.5022
75168SOL    HW137229   8.533  11.343  12.911  0.3211 -0.9233 -0.4434
75168SOL    HW237230   8.595  11.242  13.007  0.4951 -0.8033 -0.4278
75169SOL     OW37231   0.587  13.540  10.828 -0.5206 -0.5400  0.2976
75169SOL    HW137232   0.653  13.582  10.773  0.2001 -3.0206 -0.9032
75169SOL    HW237233   0.637  13.491  10.893 -1.2070 -1.4472  0.1647
75170SOL     OW37234  10.124   6.535  12.189 -0.0330  0.3042  0.5096
75170SOL    HW137235  10.210   6.552  12.228  0.6073  1.1588 -1.1898
75170SOL    HW237236  10.089   6.461  12.240  1.6578 -0.0037  1.2908
75171SOL     OW37237  10.533  13.224   8.923  0.3799  0.2178  0.3481
75171SOL    HW137238  10.449  13.197   8.887 -0.9982  1.7927  2.1708
75171SOL    HW237239  10.568  13.286   8.859  0.4312 -0.8473 -0.6736
75172SOL     OW37240  10.537  11.592   9.588 -0.2156 -0.3246 -0.4025
75172SOL    HW137241  10.573  11.554   9.669 -1.9559  0.1488  0.6444
75172SOL    HW237242  10.479  11.662   9.618 -1.4929 -0.6289 -2.0124
75173SOL     OW37243  12.750  11.622  11.982  0.2459 -0.5412 -0.6662
75173SOL    HW137244  12.708  11.696  11.939  2.3805  0.6584 -0.8606
75173SOL    HW237245  12.724  11.630  12.074  0.3533  0.3990 -0.7078
75174SOL     OW37246   9.469   2.321  12.611  0.0241 -0.1839  0.2457
75174SOL    HW137247   9.442   2.339  12.521 -0.3120  0.6741  0.5013
75174SOL    HW237248   9.551   2.272  12.603 -0.4535 -0.8676 -0.5250
75175SOL     OW37249  10.802   2.490   5.364  0.4681 -0.1010 -0.4411
75175SOL    HW137250  10.716   2.525   5.388  0.0702 -2.3449  1.9229
75175SOL    HW237251  10.865   2.545   5.410  0.3267  1.3321 -1.8947
75176SOL     OW37252  11.714   8.537  12.911 -0.5414  0.0311 -0.1714
75176SOL    HW137253  11.773   8.493  12.850  3.0931 -1.0484  3.6494
75176SOL    HW237254  11.649   8.471  12.934 -0.3606 -0.4104 -0.9236
75177SOL     OW37255   9.373   1.406   7.094 -0.2935 -0.1390  0.7954
75177SOL    HW137256   9.325   1.339   7.144 -1.5577  1.5376  1.9509
75177SOL    HW237257   9.336   1.489   7.125  2.7294  1.2261  1.0573
75178SOL     OW37258   1.143   0.077   8.504  0.5612 -0.1586 -0.2438
75178SOL    HW137259   1.195   0.138   8.452  0.4614 -0.6816 -0.9739
75178SOL    HW237260   1.180  -0.009   8.484  0.6421 -0.3522  0.7035
75179SOL     OW37261  12.349  13.386  13.274  0.1328  0.9482 -0.1167
75179SOL    HW137262  12.288  13.399  13.201 -1.5324  0.1933  1.0663
75179SOL    HW237263  12.390  13.471  13.286  0.4735  1.0857 -1.9193
75180SOL     OW37264   1.000   0.960   9.698  0.5661 -0.0312 -0.2396
75180SOL    HW137265   1.002   0.936   9.606  0.0430 -0.1808 -0.2163
75180SOL    HW237266   1.018   1.054   9.699 -2.1378  0.5736 -0.7424
75181SOL     OW37267   7.156   2.449   7.153 -0.0468 -0.1981 -0.4320
75181SOL    HW137268   7.186   2.401   7.075  0.9623  1.7128 -1.3000
75181SOL    HW237269   7.200   2.406   7.226  2.1859  0.3774 -1.3566
75182SOL     OW37270   7.085  12.856   8.040 -0.3195  0.8460 -0.2650
75182SOL    HW137271   7.158  12.806   8.004  0.0474  1.4249 -0.3532
75182SOL    HW237272   7.038  12.889   7.964 -0.8225  0.2734 -0.2082
75183SOL     OW37273   3.832  12.740   4.636  0.2453 -0.6623 -0.4587
75183SOL    HW137274   3.848  12.824   4.594  0.8266 -1.4198 -1.8273
75183SOL    HW237275   3.743  12.747   4.671 -0.5429 -0.2113 -2.4369
75184SOL     OW37276   2.315   4.263   6.673  0.2068  0.1503 -0.0808
75184SOL    HW137277   2.304   4.249   6.767 -1.5844 -3.1419 -0.6158
75184SOL    HW237278   2.408   4.282   6.662  1.0675 -2.1480  2.1809
75185SOL     OW37279   3.459  10.097   7.826  0.2095 -0.3259  0.8321
75185SOL    HW137280   3.493  10.182   7.798 -0.0803 -0.0260  1.3757
75185SOL    HW237281   3.523  10.034   7.792 -0.9282 -0.1607 -1.9510
75186SOL     OW37282   8.947   5.227   2.930  0.1920  0.1768  0.1315
75186SOL    HW137283   9.041   5.242   2.940  0.6451 -1.6067 -0.9949
75186SOL    HW237284   8.925   5.271   2.848 -0.4845  2.4483  1.4263
75187SOL     OW37285  12.423   8.045   7.745  0.2339 -0.5176 -0.4748
75187SOL    HW137286  12.459   7.964   7.709  0.4646  0.3550 -2.3570
75187SOL    HW237287  12.380   8.087   7.670 -0.6341  0.6894  0.6549
75188SOL     OW37288   8.256   6.750   8.898 -0.5481 -0.1859 -0.7259
75188SOL    HW137289   8.304   6.674   8.929 -0.4646 -0.0715 -0.5754
75188SOL    HW237290   8.289   6.765   8.809  0.6883  0.7096 -0.1471
75189SOL     OW37291  10.833   3.502   2.808  0.4428  0.6118 -0.0407
75189SOL    HW137292  10.789   3.580   2.775  0.4999  1.0771  0.9526
75189SOL    HW237293  10.915   3.534   2.845  0.9017 -0.0434 -0.4780
75190SOL     OW37294  11.308   7.559   1.281  0.1183  0.1009  0.3213
75190SOL    HW137295  11.251   7.501   1.331  0.7506  0.2175  1.2113
75190SOL    HW237296  11.248   7.620   1.238 -0.5285 -0.9537 -0.3192
75191SOL     OW37297   6.568  10.865   1.352 -0.5833 -0.1487 -0.0288
75191SOL    HW137298   6.631  10.857   1.423 -2.0398 -2.0251  1.1408
75191SOL    HW237299   6.560  10.776   1.317 -0.4985  0.5870 -2.0544
75192SOL     OW37300   4.510  12.025   1.726 -0.3547 -0.0789 -0.1980
75192SOL    HW137301   4.457  12.040   1.648  1.6507  2.5340 -1.2036
75192SOL    HW237302   4.593  11.991   1.692  0.5165  0.9880  0.7852
75193SOL     OW37303   2.788   1.163   5.990 -0.5225 -0.7649 -0.3555
75193SOL    HW137304   2.757   1.232   5.931 -0.6421  0.0275  0.6152
75193SOL    HW237305   2.768   1.195   6.078  1.1640 -1.1756  0.2185
75194SOL     OW37306   6.037  10.276   1.669  0.0297  0.4940  0.2285
75194SOL    HW137307   6.006  10.332   1.597  1.3860 -0.0434 -0.7924
75194SOL    HW237308   6.104  10.328   1.713  1.9804 -0.6311 -1.3044
75195SOL     OW37309   7.060  11.313   0.235  0.0067 -0.4059  0.0535
75195SOL    HW137310   7.046  11.344   0.325  2.0834  0.7298  0.0433
75195SOL    HW237311   6.975  11.324   0.192 -0.1094  2.6469  0.8613
75196SOL     OW37312  10.975  13.185  11.931  0.1612 -0.2785 -0.4284
75196SOL    HW137313  10.907  13.123  11.904 -1.8632  2.2266 -1.5715
75196SOL    HW237314  10.942  13.222  12.014  1.1774 -0.4813  0.0812
75197SOL     OW37315  12.405   3.664   5.566  0.4391  0.3522 -0.6926
75197SOL    HW137316  12.378   3.585   5.519 -0.9442 -0.6871  1.6527
75197SOL    HW237317  12.333   3.726   5.552  0.2619  0.2220 -0.3655
75198SOL     OW37318   1.120  11.431   7.998 -0.0151  0.1843  0.7884
75198SOL    HW137319   1.069  11.430   8.079  1.8172  0.8052  1.9978
75198SOL    HW237320   1.152  11.521   7.990  1.1109 -0.2466  0.2166
75199SOL     OW37321   3.745   9.307  10.660 -0.1778 -0.3965 -0.3206
75199SOL    HW137322   3.774   9.218  10.639  0.9566 -0.0047 -0.4855
75199SOL    HW237323   3.664   9.295  10.709  0.2421 -1.5470  0.1217
75200SOL     OW37324   8.061   1.253   1.574  0.1012  0.3707 -0.0568
75200SOL    HW137325   7.988   1.212   1.620 -1.2005  1.1649 -1.3484
75200SOL    HW237326   8.139   1.213   1.613 -1.0409 -2.6097 -0.5666
75201SOL     OW37327   7.037  11.661   8.307  0.1748 -0.6529 -0.2822
75201SOL    HW137328   7.007  11.621   8.226 -1.3959  1.3596 -0.7587
75201SOL    HW237329   7.084  11.739   8.280 -0.9486  0.4145  0.7263
75202SOL     OW37330   2.459   3.417  11.374 -0.2951 -0.0414 -0.6781
75202SOL    HW137331   2.500   3.471  11.442  0.3527  0.8304 -1.7115
75202SOL    HW237332   2.463   3.472  11.295  0.9036 -1.8057 -1.9121
75203SOL     OW37333   9.159   1.740   0.770  0.3642 -0.0814 -0.4577
75203SOL    HW137334   9.107   1.662   0.750 -0.7510  0.4798  0.0894
75203SOL    HW237335   9.127   1.806   0.709  0.1613  0.3678  0.1149
75204SOL     OW37336   3.940   5.481   0.200 -0.2706  0.0033 -0.3090
75204SOL    HW137337   3.979   5.399   0.232 -0.7453 -0.1611 -0.1399
75204SOL    HW237338   3.876   5.452   0.134  0.2506  0.2993 -0.9608
75205SOL     OW37339   1.264   6.286   9.361  0.3570  0.4064 -0.3809
75205SOL    HW137340   1.261   6.362   9.303  0.5979  0.9120  0.2566
75205SOL    HW237341   1.346   6.242   9.339 -0.2171 -0.2086 -1.3979
75206SOL     OW37342   7.539  10.730  12.977  0.0519  0.2193 -0.3326
75206SOL    HW137343   7.522  10.824  12.969 -2.2350  0.0203  1.3298
75206SOL    HW237344   7.453  10.689  12.968  1.2287 -1.9391 -2.9267
75207SOL     OW37345  11.410   7.167   4.653  0.1820 -0.1916  0.3107
75207SOL    HW137346  11.320   7.200   4.654  0.1168 -0.2912 -0.8123
75207SOL    HW237347  11.454   7.219   4.586  0.5964 -1.0604 -0.1076
75208SOL     OW37348  11.847   0.870   1.538 -0.5211 -0.5701 -0.3328
75208SOL    HW137349  11.781   0.801   1.546  0.2922 -1.7305 -2.7275
75208SOL    HW237350  11.904   0.857   1.614 -0.6785 -2.2025 -0.4580
75209SOL     OW37351  10.275  11.781  11.633 -0.1827 -0.3890 -0.1679
75209SOL    HW137352  10.352  11.819  11.674  0.9450 -1.2597 -1.3710
75209SOL    HW237353  10.249  11.709  11.691 -0.9468  0.7362  0.9331
75210SOL     OW37354  12.242   7.943   3.711  0.4816 -0.3918  0.1499
75210SOL    HW137355  12.184   7.950   3.787 -0.3501 -1.6169 -0.3357
75210SOL    HW237356  12.193   7.983   3.639  0.0931 -1.6401 -0.3156
75211SOL     OW37357   1.208   8.069  12.160 -0.4682  0.0021  0.1641
75211SOL    HW137358   1.123   8.098  12.127  0.0530  0.3340 -0.9374
75211SOL    HW237359   1.270   8.136  12.130  0.0782  0.1777  1.6303
75212SOL     OW37360   9.401  11.095   2.396 -0.2676  0.9427  0.6495
75212SOL    HW137361   9.312  11.129   2.385 -0.7754 -0.2529  0.8560
75212SOL    HW237362   9.398  11.051   2.481  0.5492  0.9555  0.6876
75213SOL     OW37363  10.829  11.334   5.092  0.2186  0.8253  0.7211
75213SOL    HW137364  10.917  11.365   5.072  0.6882 -1.2620 -0.7742
75213SOL    HW237365  10.783  11.413   5.122  1.7527  2.6269 -1.2759
75214SOL     OW37366  12.902   1.818   0.530 -0.2204 -0.1506  0.4632
75214SOL    HW137367  12.968   1.751   0.548  0.0191 -0.6488 -1.9024
75214SOL    HW237368  12.895   1.819   0.434  0.5080  3.8933  0.2808
75215SOL     OW37369   8.598   5.563  11.212 -0.4070 -0.4009  0.0150
75215SOL    HW137370   8.607   5.630  11.145 -0.4857  0.6307  1.0007
75215SOL    HW237371   8.524   5.592  11.265 -0.1989 -1.0660  0.6889
75216SOL     OW37372  11.534   1.265   3.702  0.0643  0.2253 -0.2822
75216SOL    HW137373  11.564   1.336   3.645 -0.5308 -0.5345 -1.5848
75216SOL    HW237374  11.454   1.233   3.660 -1.9073  1.3194  2.3426
75217SOL     OW37375  13.011   4.435   5.246 -0.3005 -0.1819  0.0688
75217SOL    HW137376  13.018   4.521   5.287 -0.9900  0.2605 -0.7060
75217SOL    HW237377  12.921   4.408   5.262  0.1612 -1.1728  1.0833
75218SOL     OW37378   2.111   0.496   6.242 -0.0906  0.2700 -0.6033
75218SOL    HW137379   2.190   0.487   6.188  0.4795  0.8343  0.1176
75218SOL    HW237380   2.144   0.502   6.332 -0.9613  0.4958 -0.2936
75219SOL     OW37381   6.269  13.357   0.821  0.0249 -0.4321 -0.2356
75219SOL    HW137382   6.327  13.428   0.792  0.1033  0.0452  1.0323
75219SOL    HW237383   6.320  13.277   0.806  0.0280 -0.2264 -1.4479
75220SOL     OW37384   1.568   2.221   8.978 -0.7765 -0.4000  0.2776
75220SOL    HW137385   1.501   2.281   9.009  0.4268  1.4946 -0.5950
75220SOL    HW237386   1.541   2.135   9.012 -2.3923  0.6503  1.8414
75221SOL     OW37387  13.368   7.216  10.922  0.0441 -0.4787 -0.2590
75221SOL    HW137388  13.380   7.194  11.014 -0.1891 -0.6231 -0.2620
75221SOL    HW237389  13.451   7.192  10.881  0.1012 -0.5391 -0.1084
75222SOL     OW37390   8.821  13.527  13.023  0.3430 -0.0080  0.0180
75222SOL    HW137391   8.888  13.470  13.061  0.0395 -0.0495  0.4920
75222SOL    HW237392   8.798  13.588  13.093  0.2445  0.3268 -0.3030
75223SOL     OW37393   0.550  13.301   3.540 -0.2063 -0.1449 -0.5729
75223SOL    HW137394   0.455  13.308   3.552 -0.2907  0.8928 -1.7381
75223SOL    HW237395   0.586  13.311   3.628 -1.1104  1.1041 -0.3181
75224SOL     OW37396  13.626  12.746  11.681 -0.2521  1.5523 -0.3210
75224SOL    HW137397  13.701  12.697  11.645 -1.2913 -0.5924  0.2512
75224SOL    HW237398  13.663  12.830  11.709  1.3971  1.6121 -2.4568
75225SOL     OW37399   7.416   7.749  10.455 -0.1328  0.1191  0.2367
75225SOL    HW137400   7.483   7.816  10.469 -0.0657 -0.0085  0.5330
75225SOL    HW237401   7.344   7.795  10.410 -0.2358  0.4699  0.7574
75226SOL     OW37402   0.135  12.710   6.933 -0.7413  0.3446 -0.0319
75226SOL    HW137403   0.200  12.777   6.910  0.2661 -0.2172  1.0291
75226SOL    HW237404   0.119  12.664   6.851  3.1764 -1.9966  0.2406
75227SOL     OW37405  13.219   1.831   7.247  0.1022  0.0728 -0.0161
75227SOL    HW137406  13.231   1.799   7.336  2.3099  1.0195  0.0832
75227SOL    HW237407  13.224   1.752   7.192  0.2657 -0.3400  0.5840
75228SOL     OW37408   8.789   8.855   3.738 -0.5848 -0.0900  0.8936
75228SOL    HW137409   8.844   8.928   3.711  0.4001 -0.8145  0.8758
75228SOL    HW237410   8.704   8.894   3.757 -1.1298  0.6333 -2.3731
75229SOL     OW37411   1.669   3.242   2.622 -0.0837 -0.3391  0.0952
75229SOL    HW137412   1.739   3.179   2.603 -0.8372 -1.1031 -0.2257
75229SOL    HW237413   1.593   3.188   2.644 -0.3278  0.4918  1.3739
75230SOL     OW37414  13.630  10.608   8.480 -0.2615 -0.4674  0.1607
75230SOL    HW137415  13.539  10.622   8.454 -0.5106 -0.2553  1.1103
75230SOL    HW237416  13.629  10.523   8.525  0.1621 -0.8404 -0.5209
75231SOL     OW37417  12.861   2.653   6.076  0.4496  0.4747  0.0280
75231SOL    HW137418  12.898   2.575   6.117 -0.2160 -0.2587 -0.7169
75231SOL    HW237419  12.881   2.724   6.136  0.7211 -0.3371  0.9184
75232SOL     OW37420   9.423   8.264   0.815  0.4482  0.0005  0.4828
75232SOL    HW137421   9.490   8.222   0.868  0.2826  0.1070  0.7782
75232SOL    HW237422   9.430   8.357   0.836  1.1475  0.2000 -0.5411
75233SOL     OW37423   3.836   7.592   0.829  0.4767 -0.3227 -0.1909
75233SOL    HW137424   3.836   7.668   0.770 -0.2618 -1.0711 -1.1880
75233SOL    HW237425   3.836   7.517   0.771  2.0338 -1.1347  0.7833
75234SOL     OW37426   2.005   8.605   2.127 -0.1789  0.6243 -0.2850
75234SOL    HW137427   1.950   8.537   2.088 -0.3805  0.9361 -0.5476
75234SOL    HW237428   1.973   8.611   2.218 -0.3969  0.6122 -0.3590
75235SOL     OW37429   9.344   8.323   2.365 -0.1626 -0.2670 -0.4765
75235SOL    HW137430   9.373   8.289   2.449 -1.6694  0.8858  0.5572
75235SOL    HW237431   9.397   8.401   2.351 -1.4849  0.8959  0.6143
75236SOL     OW37432   2.308   8.037   0.720  0.3909 -0.1804 -1.1383
75236SOL    HW137433   2.254   7.969   0.759  0.9826  0.0866  0.2172
75236SOL    HW237434   2.337   8.000   0.637  2.5598 -2.5902  0.5370
75237SOL     OW37435   9.724   4.442   3.195  0.4772  0.1886 -0.3138
75237SOL    HW137436   9.713   4.520   3.141  0.3307  0.5553  0.2412
75237SOL    HW237437   9.717   4.473   3.285  0.1236 -0.5073 -0.0893
75238SOL     OW37438  13.312  11.051   0.320 -0.8005  0.4203  0.5062
75238SOL    HW137439  13.277  11.140   0.315 -0.5096  0.5464  0.6982
75238SOL    HW237440  13.372  11.052   0.394 -0.1628  0.2902  0.0076
75239SOL     OW37441   3.801   1.644   8.917 -0.0996  0.7522 -0.6514
75239SOL    HW137442   3.891   1.670   8.899 -0.1902  0.8568 -0.9516
75239SOL    HW237443   3.749   1.721   8.897 -0.3368  0.4408 -1.2370
75240SOL     OW37444   3.613   6.017   8.048 -0.7001 -0.2649  0.6041
75240SOL    HW137445   3.668   6.042   7.974  0.5181 -0.6004  1.3624
75240SOL    HW237446   3.642   5.929   8.071 -2.0519 -0.7370  0.5999
75241SOL     OW37447   8.508   3.385   2.737 -0.3055  0.6644  0.4769
75241SOL    HW137448   8.566   3.328   2.787  0.9856  2.0730  0.6510
75241SOL    HW237449   8.556   3.405   2.657 -0.2376  2.3630  0.9086
75242SOL     OW37450  13.414   6.890  12.397 -0.0876  0.0347 -0.0292
75242SOL    HW137451  13.353   6.824  12.365 -1.5497  1.8491 -1.2067
75242SOL    HW237452  13.501   6.853  12.378 -0.5882 -3.3127  3.0971
75243SOL     OW37453   8.253   1.316   7.732 -0.3030 -0.6544 -0.5131
75243SOL    HW137454   8.333   1.343   7.776  0.1013 -1.7728 -0.5401
75243SOL    HW237455   8.283   1.267   7.655 -1.0005 -1.1409 -0.4898
75244SOL     OW37456   1.563   4.858  12.575 -0.1650 -0.2854  0.5170
75244SOL    HW137457   1.601   4.770  12.570  0.5704  0.0417  0.1999
75244SOL    HW237458   1.540   4.879  12.484 -1.1609 -0.4933  0.7093
75245SOL     OW37459  10.239   6.484   3.669 -0.1154 -0.6396  0.2822
75245SOL    HW137460  10.185   6.512   3.743  0.7761  0.6062  0.4830
75245SOL    HW237461  10.290   6.561   3.645 -1.7954 -0.3350 -2.9596
75246SOL     OW37462   2.232   2.117  11.384 -0.2039 -0.0409  0.4532
75246SOL    HW137463   2.269   2.029  11.394  0.4092  0.2527  0.8555
75246SOL    HW237464   2.245   2.159  11.469  0.7887  0.9092 -0.1376
75247SOL     OW37465   3.691   3.297   3.401 -0.1221 -0.3739  0.3077
75247SOL    HW137466   3.616   3.355   3.409 -1.2280 -1.4853 -1.2374
75247SOL    HW237467   3.748   3.319   3.474 -1.0630  1.7949  0.4375
75248SOL     OW37468  10.446  12.662   4.724  0.1832  0.2908 -1.1172
75248SOL    HW137469  10.450  12.660   4.819 -1.8226 -4.7398 -0.8022
75248SOL    HW237470  10.535  12.640   4.695  0.3419 -0.1784 -0.2917
75249SOL     OW37471   1.282  11.251  12.661  0.1264  0.2641 -0.4100
75249SOL    HW137472   1.315  11.328  12.614  2.1795 -0.6802 -0.6240
75249SOL    HW237473   1.359  11.213  12.703 -1.2331 -0.3552  1.7044
75250SOL     OW37474  11.068  11.250   8.453  0.1917 -0.5769 -0.0094
75250SOL    HW137475  10.995  11.289   8.404  0.5712  0.0868 -0.0594
75250SOL    HW237476  11.107  11.188   8.392 -1.8358 -2.8105  0.8436
75251SOL     OW37477   0.297   1.800   6.498  0.5215  0.0410  0.3151
75251SOL    HW137478   0.371   1.821   6.555  0.1920  0.1740  0.6985
75251SOL    HW237479   0.334   1.796   6.410  0.6955  1.7179  0.2898
75252SOL     OW37480   0.581   4.137   8.758 -0.0579  0.1028 -0.9601
75252SOL    HW137481   0.588   4.233   8.758  0.5510  0.0803  0.4487
75252SOL    HW237482   0.523   4.117   8.830 -1.7379 -0.5505 -2.4192
75253SOL     OW37483   0.183  10.713   4.912 -0.4680 -0.0311  0.5782
75253SOL    HW137484   0.109  10.688   4.967 -1.1847 -2.6352 -1.3374
75253SOL    HW237485   0.143  10.746   4.831  0.2070 -3.1185 -1.2091
75254SOL     OW37486   4.041   6.412   7.016 -0.0032  0.4410 -0.6347
75254SOL    HW137487   4.003   6.431   7.102 -2.1497 -3.2113 -0.5786
75254SOL    HW237488   4.135   6.429   7.027 -0.4502  1.7121  1.8843
75255SOL     OW37489  12.454   7.189   6.138  0.3264 -0.2829  0.0783
75255SOL    HW137490  12.364   7.191   6.173  0.3159  0.3189  0.0310
75255SOL    HW237491  12.451   7.122   6.069 -1.1781  2.4613 -2.7747
75256SOL     OW37492   9.193  10.065  11.221  0.1469  0.1073 -0.2991
75256SOL    HW137493   9.179  10.123  11.147 -0.2090 -0.6022 -0.7997
75256SOL    HW237494   9.205  10.123  11.296  1.9176  0.8879 -1.1352
75257SOL     OW37495   7.671   8.813   7.241 -0.6838  0.5313  0.3141
75257SOL    HW137496   7.676   8.825   7.147 -1.2198 -1.1962  0.0401
75257SOL    HW237497   7.587   8.771   7.257  0.8029 -2.4406  1.1290
75258SOL     OW37498  11.661  10.291   0.320 -0.5845  0.2697  0.7030
75258SOL    HW137499  11.644  10.353   0.391 -1.3343 -0.2454  0.9847
75258SOL    HW237500  11.756  10.283   0.318 -0.4322  1.9099  0.2297
75259SOL     OW37501   2.096   6.434   8.970  0.1535  0.0862  0.1299
75259SOL    HW137502   2.190   6.443   8.958  0.2788 -0.4080  0.7263
75259SOL    HW237503   2.069   6.375   8.899  0.2018  0.6558 -0.3681
75260SOL     OW37504  13.708   8.277   0.689  0.3064  0.0906 -0.4580
75260SOL    HW137505  13.640   8.226   0.645  1.4968 -0.9852 -1.0934
75260SOL    HW237506  13.708   8.244   0.779 -0.8610  1.0094 -0.0818
75261SOL     OW37507  10.409   6.026   0.725  0.4681 -0.2049 -0.5600
75261SOL    HW137508  10.488   5.988   0.687  0.5367 -0.4835 -0.1489
75261SOL    HW237509  10.430   6.035   0.818 -0.5191 -1.6810 -0.1709
75262SOL     OW37510  13.701   9.948  10.607  0.1643  0.0767 -0.7248
75262SOL    HW137511  13.781   9.950  10.554 -0.2947  1.9893 -1.4522
75262SOL    HW237512  13.719   9.885  10.676  1.6699 -0.7569 -1.8270
75263SOL     OW37513   3.439   6.558   9.402  0.2390  0.2652 -0.4587
75263SOL    HW137514   3.512   6.566   9.464 -0.3322 -2.1464  0.6396
75263SOL    HW237515   3.415   6.466   9.406 -0.8674  0.3685 -3.1606
75264SOL     OW37516   7.964   0.925   7.403 -0.0607  0.3205 -0.1141
75264SOL    HW137517   7.887   0.918   7.459  0.1821  1.5629  0.4207
75264SOL    HW237518   8.030   0.968   7.459  1.9322 -3.0005  0.3508
75265SOL     OW37519  10.676   0.340  12.647  0.4674 -0.1128  0.1564
75265SOL    HW137520  10.716   0.256  12.626 -0.1933 -0.0655 -1.4637
75265SOL    HW237521  10.590   0.317  12.684  1.7006 -0.2035  3.3293
75266SOL     OW37522  11.625   5.231   4.009  0.0571 -0.1563 -0.4386
75266SOL    HW137523  11.551   5.172   3.998 -2.0395  1.3970  3.1816
75266SOL    HW237524  11.702   5.174   4.015 -1.0426 -1.9720 -2.4050
75267SOL     OW37525  10.312   8.648   5.567 -0.3936  0.2413 -0.3843
75267SOL    HW137526  10.291   8.564   5.527  0.3005  0.6049 -1.5351
75267SOL    HW237527  10.240   8.706   5.541 -0.3178  0.2897 -0.4824
75268SOL     OW37528   1.058   8.712   0.072  0.7907  0.3729 -0.0181
75268SOL    HW137529   1.151   8.694   0.086  0.2911 -1.8402  0.9716
75268SOL    HW237530   1.049   8.723  -0.023  2.3074  2.6363  0.0242
75269SOL     OW37531   3.344   2.271   3.973  0.0592  0.4744 -0.0219
75269SOL    HW137532   3.335   2.286   3.878  2.0923  1.9406 -0.0405
75269SOL    HW237533   3.320   2.179   3.985 -0.7333  0.3896 -1.8668
75270SOL     OW37534   9.387   5.590   0.566  1.0258 -0.5188  0.3350
75270SOL    HW137535   9.395   5.599   0.471  0.4010  0.9594  0.3830
75270SOL    HW237536   9.451   5.524   0.590  0.4250 -1.7399 -1.2398
75271SOL     OW37537  12.256   0.690   4.912  0.7102  0.7175 -0.7491
75271SOL    HW137538  12.340   0.645   4.919 -0.9966 -2.6554 -0.0524
75271SOL    HW237539  12.241   0.700   4.818  0.6902 -1.1939 -0.9788
75272SOL     OW37540   5.427  11.046   3.247 -0.4615  0.3875  0.6278
75272SOL    HW137541   5.396  11.132   3.275 -1.1339  0.5897 -0.6765
75272SOL    HW237542   5.489  11.065   3.177  2.8116  0.0059  3.1670
75273SOL     OW37543   0.855  12.204   4.088  0.4563  0.8641  0.4810
75273SOL    HW137544   0.829  12.265   4.018 -0.8949 -0.3206 -0.0867
75273SOL    HW237545   0.947  12.186   4.070  0.1432  0.5828 -1.0282
75274SOL     OW37546   5.963   5.468  10.039  0.1084 -0.8606 -0.3458
75274SOL    HW137547   5.908   5.390  10.042 -2.5377  0.8979 -0.6320
75274SOL    HW237548   5.981   5.489  10.130 -0.4119 -0.9600 -0.2213
75275SOL     OW37549   8.028  12.390  10.501 -0.0752 -0.1104  0.0850
75275SOL    HW137550   8.032  12.299  10.471  0.0290 -0.8009  2.0453
75275SOL    HW237551   7.934  12.409  10.508 -0.1639 -1.1714  2.6399
75276SOL     OW37552  12.056   1.352  13.084 -0.4232  0.2588 -0.1507
75276SOL    HW137553  12.091   1.391  13.004  1.2939  1.5902  1.1644
75276SOL    HW237554  11.964   1.334  13.064 -0.2012  1.1418 -2.1888
75277SOL     OW37555   3.215   3.853  11.725 -0.2369  0.0461 -0.4525
75277SOL    HW137556   3.277   3.925  11.730 -0.1595 -0.0720  0.4502
75277SOL    HW237557   3.269   3.774  11.732 -0.4604 -0.0651  0.0191
75278SOL     OW37558   2.117   1.630   3.310  0.1081 -0.8091  0.0977
75278SOL    HW137559   2.143   1.721   3.298 -2.2395 -0.0851 -0.0331
75278SOL    HW237560   2.101   1.597   3.221 -2.3437 -0.2200  0.2405
75279SOL     OW37561   6.515  10.048   8.906 -0.1847 -0.2440  0.0151
75279SOL    HW137562   6.426  10.080   8.916  0.0852  1.9531 -3.1010
75279SOL    HW237563   6.522  10.022   8.815  3.0886  2.6683 -0.8157
75280SOL     OW37564   3.452  10.019  12.692 -0.4155  0.2978  0.5305
75280SOL    HW137565   3.436   9.927  12.671 -0.8573  0.3666  0.5650
75280SOL    HW237566   3.461  10.061  12.607  1.2046 -0.0127  0.5070
75281SOL     OW37567   2.761  12.852   7.219 -0.3040  0.2315  0.1861
75281SOL    HW137568   2.783  12.934   7.176 -0.2277  1.0063  1.6180
75281SOL    HW237569   2.842  12.801   7.220  0.2396  1.0691  1.1929
75282SOL     OW37570   1.073   2.417   9.753  0.1976 -0.0787 -0.4144
75282SOL    HW137571   1.113   2.350   9.698  1.5630  0.2170  0.1686
75282SOL    HW237572   1.131   2.423   9.829  1.0820  2.9258 -1.2048
75283SOL     OW37573   3.272  11.926   4.991 -0.7095  0.2656 -0.7935
75283SOL    HW137574   3.199  11.864   5.002 -0.8068  0.3285 -1.0778
75283SOL    HW237575   3.231  12.004   4.955 -0.4683  0.2304 -1.1459
75284SOL     OW37576   8.443   5.379  12.224  0.0899 -0.2337 -0.1586
75284SOL    HW137577   8.507   5.357  12.292  0.2510  0.1631 -0.1801
75284SOL    HW237578   8.444   5.475  12.221  0.5046 -0.2641 -1.1305
75285SOL     OW37579   8.017   1.924  10.447 -0.0939 -0.5127  0.5887
75285SOL    HW137580   7.956   1.894  10.379 -1.5960  0.1069  1.6003
75285SOL    HW237581   7.973   2.000  10.486  1.9246  0.7568  0.5288
75286SOL     OW37582   4.024  10.410  11.259  0.1937  0.1022 -0.4742
75286SOL    HW137583   4.056  10.338  11.206 -1.7315 -1.0864 -0.1061
75286SOL    HW237584   3.942  10.437  11.217 -0.7576 -0.0728  1.1749
75287SOL     OW37585   1.246  10.826  13.409  0.1167  0.5540  0.0796
75287SOL    HW137586   1.158  10.864  13.401 -0.8188 -1.5732 -0.3738
75287SOL    HW237587   1.231  10.735  13.433  2.0931 -0.4711 -2.1751
75288SOL     OW37588   9.008  11.669   3.638 -0.0812  0.4269  0.0363
75288SOL    HW137589   9.104  11.665   3.631  0.0542  0.7652  1.4324
75288SOL    HW237590   8.982  11.732   3.571  0.6426  0.1467 -0.5260
75289SOL     OW37591   7.668   6.735  11.488 -0.9870 -0.0685 -0.8467
75289SOL    HW137592   7.711   6.799  11.544  0.9998 -2.3695  0.4748
75289SOL    HW237593   7.609   6.687  11.546 -0.6850 -0.9388 -1.2307
75290SOL     OW37594  11.569   5.144   3.653 -0.1202 -0.0262  0.4621
75290SOL    HW137595  11.518   5.149   3.734 -0.8592  1.5983 -0.0521
75290SOL    HW237596  11.658   5.127   3.681 -0.5855 -0.7462  1.5326
75291SOL     OW37597   1.324   3.674   7.492 -0.0436  0.0768 -0.3769
75291SOL    HW137598   1.391   3.612   7.464 -0.5246 -0.8309  0.4640
75291SOL    HW237599   1.242   3.625   7.488 -0.6482  1.1011 -1.1491
75292SOL     OW37600   3.434   3.596  12.328  0.2675 -0.0602  0.3003
75292SOL    HW137601   3.386   3.514  12.332  0.3673 -0.3673 -2.6453
75292SOL    HW237602   3.400   3.648  12.401 -1.6447 -1.7597  0.6787
75293SOL     OW37603  11.685   0.925   4.043 -0.0957 -0.3530 -0.2807
75293SOL    HW137604  11.714   1.015   4.032  0.0741 -0.3250  0.3435
75293SOL    HW237605  11.636   0.925   4.125  1.4803 -1.1838  0.7208
75294SOL     OW37606   6.822   3.419   5.523  0.1401 -0.2729 -0.4839
75294SOL    HW137607   6.907   3.437   5.482 -0.0329  0.5445 -0.4988
75294SOL    HW237608   6.843   3.357   5.593  0.6514 -0.5803 -0.8980
75295SOL     OW37609  11.315   3.341   0.239 -0.0944 -0.5607 -0.0586
75295SOL    HW137610  11.252   3.312   0.173 -1.6623 -2.7719  2.2131
75295SOL    HW237611  11.264   3.399   0.296  1.3187  1.5833 -0.8630
75296SOL     OW37612   3.084  10.997   4.221  0.5670  0.2836 -0.0459
75296SOL    HW137613   3.133  11.018   4.301  0.1004  0.9302  0.0837
75296SOL    HW237614   3.005  10.952   4.253 -0.9275  2.8342  0.1266
75297SOL     OW37615   8.642  12.625   3.524 -0.7616  0.2720 -0.1379
75297SOL    HW137616   8.602  12.545   3.558 -0.1353 -0.1359 -0.3535
75297SOL    HW237617   8.646  12.683   3.600 -0.0058 -0.3872  0.3385
75298SOL     OW37618   9.739  13.735  13.698  0.2312  0.4273  0.1544
75298SOL    HW137619   9.685  13.793  13.752 -0.6391 -1.1992  1.1130
75298SOL    HW237620   9.771  13.668  13.758 -1.3157 -1.8564 -1.3730
75299SOL     OW37621  12.928   1.876   8.316 -0.3677 -0.8781  0.0067
75299SOL    HW137622  12.932   1.825   8.397 -0.9459  0.1352  0.6981
75299SOL    HW237623  12.927   1.967   8.345 -1.5373 -0.5122 -1.0898
75300SOL     OW37624   4.799  12.857   8.121  0.1667  0.0755 -0.0148
75300SOL    HW137625   4.861  12.928   8.137  0.1421  0.2217 -0.5568
75300SOL    HW237626   4.828  12.787   8.179 -0.6552  1.0032  1.5864
75301SOL     OW37627   5.715   2.605  10.067  0.0272  0.2913  0.1345
75301SOL    HW137628   5.683   2.686  10.107 -0.9658 -0.5375  1.0920
75301SOL    HW237629   5.636   2.556  10.046  0.6087 -0.8717  0.5339
75302SOL     OW37630   4.948  13.093  12.786 -0.5941 -0.0269 -0.4500
75302SOL    HW137631   4.901  13.174  12.806  0.7633  1.5032 -2.9863
75302SOL    HW237632   5.038  13.109  12.814 -0.2633 -0.5831 -1.1661
75303SOL     OW37633  12.156  12.412  10.166  0.3169 -0.0069  0.0724
75303SOL    HW137634  12.137  12.350  10.236  1.5899  1.5979  1.9634
75303SOL    HW237635  12.242  12.447  10.188  0.3347  1.2654 -1.7834
75304SOL     OW37636  12.015   1.976   0.474 -0.0949  0.1963  0.3492
75304SOL    HW137637  12.104   2.012   0.476 -0.0183 -0.0261  1.3808
75304SOL    HW237638  12.027   1.881   0.470 -0.2868  0.1856  0.0030
75305SOL     OW37639   4.765   5.583  11.870 -0.5342  0.2491  0.1698
75305SOL    HW137640   4.828   5.612  11.936  1.1384 -0.1860 -1.1706
75305SOL    HW237641   4.725   5.505  11.907 -0.8878  0.9809  1.3795
75306SOL     OW37642   8.957   8.082   5.073 -0.1102  0.1943 -0.6797
75306SOL    HW137643   8.928   8.054   5.160 -1.3514 -2.4745 -1.8409
75306SOL    HW237644   9.052   8.080   5.078 -0.1662 -0.2375  0.5439
75307SOL     OW37645   9.507   0.203   9.288  0.2062  0.4575 -0.4319
75307SOL    HW137646   9.476   0.168   9.204 -1.0008  0.6167 -0.0679
75307SOL    HW237647   9.581   0.146   9.312 -0.7584 -0.8989 -0.5940
75308SOL     OW37648   5.461   9.878  13.150  0.1001  0.8645  0.1641
75308SOL    HW137649   5.546   9.836  13.163 -0.6673 -0.4490  1.0951
75308SOL    HW237650   5.427   9.840  13.069 -1.4186 -1.8902  1.9381
75309SOL     OW37651   8.757   9.411   3.709 -0.4621  0.2964  0.6105
75309SOL    HW137652   8.662   9.402   3.721 -0.6781  0.9850 -0.4400
75309SOL    HW237653   8.767   9.487   3.651  0.6741 -0.4017 -0.1513
75310SOL     OW37654  10.765  10.724   5.964 -0.0794  0.7899 -0.1127
75310SOL    HW137655  10.673  10.748   5.957 -0.5727 -1.0733 -0.5200
75310SOL    HW237656  10.778  10.706   6.057 -0.0203  1.4347  0.0055
75311SOL     OW37657   9.621  13.516   3.570 -0.2917  0.1659  0.0016
75311SOL    HW137658   9.545  13.568   3.543 -0.2658  0.4575  0.4844
75311SOL    HW237659   9.585  13.448   3.626 -0.2528  0.0126 -0.1584
75312SOL     OW37660   7.935   0.997   9.830  0.1694 -0.0013 -0.1069
75312SOL    HW137661   7.918   1.022   9.921  0.8767 -2.1455  0.6698
75312SOL    HW237662   8.022   0.958   9.832  0.3890  0.3455 -1.8149
75313SOL     OW37663   4.275   0.695   7.710 -0.0113  0.2892 -0.0936
75313SOL    HW137664   4.253   0.631   7.642 -0.5563  0.2444  0.1186
75313SOL    HW237665   4.266   0.780   7.667  1.4733  0.2204 -0.5965
75314SOL     OW37666   7.087   1.938  11.983 -0.2675 -0.0760 -0.6843
75314SOL    HW137667   7.030   1.936  11.906 -0.9339 -0.5230 -0.1925
75314SOL    HW237668   7.126   2.025  11.982  0.3487 -0.3580 -1.9662
75315SOL     OW37669   0.099   2.721   7.859  0.4559  0.5813  0.4106
75315SOL    HW137670   0.128   2.809   7.835 -2.4225  1.5040 -0.1095
75315SOL    HW237671   0.132   2.708   7.948  1.7637  1.7583  0.1231
75316SOL     OW37672  11.019   6.531   4.056  0.3193  0.4706  0.1136
75316SOL    HW137673  11.065   6.475   4.118 -0.6476  1.2573  1.5932
75316SOL    HW237674  10.943   6.480   4.029 -0.7237  1.1201  1.6891
75317SOL     OW37675   8.549  11.224   9.012  0.1558  0.1565 -0.1414
75317SOL    HW137676   8.552  11.300   8.955  2.8097  0.3607  0.1381
75317SOL    HW237677   8.527  11.258   9.098  1.8501  0.7733  0.0948
75318SOL     OW37678   9.912   9.904  12.830 -0.1957  0.3087  0.4971
75318SOL    HW137679   9.978   9.954  12.781 -0.7865  0.8397  0.2347
75318SOL    HW237680   9.963   9.854  12.894  0.4307  1.0435  0.5879
75319SOL     OW37681   3.419  10.168  12.397  0.3249  0.1546 -0.8045
75319SOL    HW137682   3.368  10.197  12.321  1.6592  0.5876 -1.5748
75319SOL    HW237683   3.428  10.246  12.451  1.7235  0.5992 -1.6086
75320SOL     OW37684  11.175  12.343  10.899 -0.1468  0.2307 -0.4673
75320SOL    HW137685  11.155  12.297  10.817  0.5779  0.5898 -0.8584
75320SOL    HW237686  11.093  12.389  10.920 -1.0589 -1.6197  0.2258
75321SOL     OW37687   2.147  10.050   6.772 -0.5643 -0.2748 -0.2090
75321SOL    HW137688   2.204   9.977   6.797  2.2036  1.9240  0.3837
75321SOL    HW237689   2.091  10.065   6.849  0.2885 -0.4881  0.4670
75322SOL     OW37690   0.178  13.341   1.970  0.1692  0.1664 -0.0818
75322SOL    HW137691   0.101  13.309   1.922  0.4571 -1.5901  0.5611
75322SOL    HW237692   0.142  13.401   2.036 -0.4211  0.9751 -1.0904
75323SOL     OW37693  12.200   0.662   1.935  0.1583 -0.4045  0.0872
75323SOL    HW137694  12.125   0.617   1.974 -0.0178 -0.6169 -0.4926
75323SOL    HW237695  12.195   0.642   1.842  1.8952 -1.8264  0.2389
75324SOL     OW37696  12.980   9.999  12.738 -0.3381  0.4905  0.2217
75324SOL    HW137697  12.914  10.014  12.670  0.1396  0.4969 -0.2508
75324SOL    HW237698  12.960  10.065  12.805 -1.5127 -0.2608  0.6300
75325SOL     OW37699  11.968   0.796   4.849 -0.5159  0.0450 -0.0869
75325SOL    HW137700  11.879   0.829   4.841 -0.7081 -0.4262  0.0812
75325SOL    HW237701  11.999   0.789   4.758 -0.7344 -0.0192 -0.1561
75326SOL     OW37702   6.203  10.101   2.328  0.1194  0.4157  0.0385
75326SOL    HW137703   6.158  10.177   2.366  0.3219  0.3159  0.4857
75326SOL    HW237704   6.258  10.068   2.399 -1.2150 -1.1585  0.4177
75327SOL     OW37705  10.674   2.533  13.350  0.5166 -0.9993  0.0059
75327SOL    HW137706  10.697   2.530  13.443  1.1185 -1.8978 -0.1603
75327SOL    HW237707  10.578   2.536  13.349  0.4644 -1.9908  0.6476
75328SOL     OW37708   7.037  12.526   3.376  0.5715  0.2373 -0.5348
75328SOL    HW137709   7.083  12.587   3.318  1.8309 -0.9137 -0.7885
75328SOL    HW237710   7.003  12.458   3.318  0.3325 -0.0069 -0.1159
75329SOL     OW37711  12.954  10.971   2.544  0.5606  0.4345 -0.1182
75329SOL    HW137712  12.988  11.001   2.628  4.4606 -2.6514 -0.2998
75329SOL    HW237713  12.983  11.037   2.481  2.3766  0.1393  0.3661
75330SOL     OW37714   5.634   1.049   7.137  0.3523 -0.3321 -0.3136
75330SOL    HW137715   5.571   1.107   7.179  0.7172 -0.1644  0.0062
75330SOL    HW237716   5.592   0.963   7.137  0.3049 -0.3090  0.2956
75331SOL     OW37717   5.164  13.527   0.520 -0.4648  0.3639 -0.1609
75331SOL    HW137718   5.208  13.468   0.459  1.5520  1.7873 -0.1983
75331SOL    HW237719   5.083  13.551   0.475 -0.4968 -0.9918 -0.8970
75332SOL     OW37720   7.933   9.922   8.982 -0.0926  0.3819  0.0734
75332SOL    HW137721   7.999   9.924   8.913  1.2341 -2.0147  1.1631
75332SOL    HW237722   7.983   9.915   9.063 -1.6054  3.2620  1.3974
75333SOL     OW37723   7.839  12.127   8.954 -0.9873  0.2226  0.1601
75333SOL    HW137724   7.842  12.034   8.974 -0.5065 -0.4883 -2.7590
75333SOL    HW237725   7.750  12.142   8.921 -0.4944  0.3292 -1.1788
75334SOL     OW37726   6.896   6.510  11.127 -0.4962  0.3249 -0.4289
75334SOL    HW137727   6.965   6.566  11.091 -0.4080 -0.2213 -1.1211
75334SOL    HW237728   6.826   6.513  11.061 -1.1318  0.8529  0.2515
75335SOL     OW37729  12.094   4.087   5.903  0.3516 -0.1003 -0.4512
75335SOL    HW137730  12.104   4.177   5.871 -1.5071  0.4530  0.3603
75335SOL    HW237731  12.176   4.067   5.947  1.0900  0.9070 -1.3364
75336SOL     OW37732  10.813  12.069   0.076  0.0064  0.1645 -0.2385
75336SOL    HW137733  10.839  12.013   0.002  1.4415 -0.4624  0.6893
75336SOL    HW237734  10.760  12.012   0.131  0.1886  0.1752 -0.0508
75337SOL     OW37735   0.329   3.197  12.556 -0.3886  0.3121  0.2750
75337SOL    HW137736   0.399   3.254  12.589  1.6670 -1.9416  0.0410
75337SOL    HW237737   0.307   3.233  12.470  0.8735  0.7451  0.1143
75338SOL     OW37738  13.066   3.614   8.528 -0.0608  0.0239 -0.5633
75338SOL    HW137739  13.030   3.637   8.614  2.8677  1.5527  0.3877
75338SOL    HW237740  12.989   3.599   8.473 -2.0431 -0.0461  2.0527
75339SOL     OW37741   7.088   4.822   3.233  0.4104  0.2177 -0.3701
75339SOL    HW137742   7.085   4.817   3.328  0.3471 -1.1618 -0.4258
75339SOL    HW237743   7.178   4.799   3.211 -0.0354 -1.3352 -0.7064
75340SOL     OW37744   8.848   8.974   0.371  0.4182  0.5178  0.0682
75340SOL    HW137745   8.917   8.967   0.305  0.9259 -0.4145  0.6780
75340SOL    HW237746   8.784   9.035   0.333  0.1717 -0.7869 -1.7527
75341SOL     OW37747  10.564   6.285   0.422 -0.5439 -0.7927  0.0092
75341SOL    HW137748  10.564   6.261   0.329 -0.9107 -2.0164  0.3050
75341SOL    HW237749  10.557   6.201   0.468 -0.6713 -0.1775  1.1375
75342SOL     OW37750   5.248   7.267   7.550 -0.2262  0.4269 -0.4176
75342SOL    HW137751   5.192   7.323   7.496  2.4151  3.2894 -0.4112
75342SOL    HW237752   5.246   7.307   7.637 -0.1865 -1.0002  0.2734
75343SOL     OW37753  11.793  10.281  13.615  0.1525 -0.1351 -0.0735
75343SOL    HW137754  11.762  10.282  13.706  3.5777  0.2647  1.2208
75343SOL    HW237755  11.840  10.198  13.608 -0.1103 -0.1788 -1.5481
75344SOL     OW37756   3.089  12.269   1.264 -0.4248 -1.0729  0.0461
75344SOL    HW137757   3.131  12.253   1.348 -0.1994 -0.2578  0.0898
75344SOL    HW237758   3.102  12.188   1.215 -1.3571 -1.9093  1.1205
75345SOL     OW37759   0.651   9.964   5.365 -0.8205  0.3507  0.0062
75345SOL    HW137760   0.646   9.883   5.416 -0.3257 -0.8604 -1.7505
75345SOL    HW237761   0.566   9.970   5.322 -0.4697  0.1100 -0.7481
75346SOL     OW37762   9.401   6.400   2.414  0.1903 -0.3957  0.5250
75346SOL    HW137763   9.354   6.356   2.343 -0.1263  0.4376  0.2028
75346SOL    HW237764   9.332   6.431   2.473  0.4128 -0.3949  0.7847
75347SOL     OW37765  13.329  11.681   5.173 -0.6755  0.1409  0.0766
75347SOL    HW137766  13.306  11.774   5.167 -1.0182  0.0398 -0.2782
75347SOL    HW237767  13.408  11.679   5.227 -0.0097  0.7527 -0.8208
75348SOL     OW37768  11.956   2.145   8.050  0.5628  0.0004 -0.2995
75348SOL    HW137769  11.965   2.221   7.992  1.3323  0.1606  0.0175
75348SOL    HW237770  12.006   2.169   8.128 -0.2723 -0.3060  0.3420
75349SOL     OW37771   9.581   0.591   1.392 -0.2518  0.5862 -0.0864
75349SOL    HW137772   9.659   0.628   1.351  0.4382 -0.6615  0.0478
75349SOL    HW237773   9.517   0.587   1.321  0.5499 -0.4497 -0.7935
75350SOL     OW37774   9.293   9.857   2.293  0.2322 -0.0508 -0.2504
75350SOL    HW137775   9.321   9.937   2.339 -0.7598  0.0612  0.2087
75350SOL    HW237776   9.200   9.872   2.276 -0.3420 -1.6969  1.1398
75351SOL     OW37777   5.802  12.283   2.316  0.2351  0.4754  0.3550
75351SOL    HW137778   5.799  12.187   2.311  0.4309  0.5103 -0.6435
75351SOL    HW237779   5.792  12.302   2.409  0.0395 -0.5098  0.5522
75352SOL     OW37780   9.758   4.191  13.045  0.1441  0.2122 -0.4663
75352SOL    HW137781   9.770   4.179  13.140 -1.5990  0.9369 -0.1096
75352SOL    HW237782   9.751   4.285  13.034 -0.6172  0.0742 -1.1814
75353SOL     OW37783  11.300   4.253  12.065 -0.5217 -0.1520  0.1296
75353SOL    HW137784  11.326   4.332  12.017  0.3776 -0.4889  0.0365
75353SOL    HW237785  11.333   4.181  12.011  2.3591 -0.5445  2.1743
75354SOL     OW37786   7.363  10.113   5.794  0.1556  0.4967  0.5563
75354SOL    HW137787   7.375  10.193   5.844  0.4695  0.1612  1.0229
75354SOL    HW237788   7.306  10.058   5.848 -0.0758  0.4087  0.2302
75355SOL     OW37789  12.792   7.440   1.646 -0.3740 -0.0885  0.0694
75355SOL    HW137790  12.866   7.486   1.686 -1.4184  0.2840  1.6932
75355SOL    HW237791  12.830   7.393   1.572  1.1576  1.5021 -0.2374
75356SOL     OW37792   0.536   0.182   2.418 -0.0681  0.3948  0.7185
75356SOL    HW137793   0.501   0.270   2.429 -1.3636 -0.1636  1.2656
75356SOL    HW237794   0.598   0.190   2.346  0.0982  1.8133  0.9800
75357SOL     OW37795  12.540  13.464   1.633  0.4390  0.3852 -0.3565
75357SOL    HW137796  12.581  13.520   1.699  1.8842  1.1960 -1.8325
75357SOL    HW237797  12.478  13.521   1.588 -1.3011 -0.4421  0.9106
75358SOL     OW37798  10.521  11.266   0.581  0.5730  0.1597 -0.1120
75358SOL    HW137799  10.566  11.261   0.496 -0.4979  1.3019 -0.7926
75358SOL    HW237800  10.430  11.241   0.561  0.5260 -0.5574  0.9150
75359SOL     OW37801   4.898   8.953   9.000  0.0295  0.7050 -0.0863
75359SOL    HW137802   4.806   8.977   9.013 -0.4216 -0.9178 -0.0980
75359SOL    HW237803   4.919   8.898   9.075  0.5837 -0.0624 -0.7986
75360SOL     OW37804   7.374  13.503   3.457  0.4417  0.1777  0.0285
75360SOL    HW137805   7.425  13.427   3.485 -0.0588  0.0799  0.6887
75360SOL    HW237806   7.307  13.467   3.398  1.3865  0.3626 -1.2073
75361SOL     OW37807   7.466   6.388   7.932 -0.8049  0.0478 -0.2918
75361SOL    HW137808   7.514   6.359   8.009 -2.0226  1.4049  1.0183
75361SOL    HW237809   7.374   6.382   7.956 -1.3491 -1.6176 -2.4451
75362SOL     OW37810   9.229   6.696   3.294 -0.5747  0.1302  0.2267
75362SOL    HW137811   9.175   6.675   3.218 -1.1144 -1.1738  0.9393
75362SOL    HW237812   9.297   6.755   3.260 -0.7222 -0.5282 -1.2846
75363SOL     OW37813  10.559  13.576   2.303  0.2978 -0.1962 -0.3375
75363SOL    HW137814  10.507  13.502   2.333  0.4803  0.2515  1.1270
75363SOL    HW237815  10.515  13.603   2.222 -0.2013 -1.4270 -0.5063
75364SOL     OW37816   6.772   5.100   9.373 -0.0689  0.1741 -0.1221
75364SOL    HW137817   6.769   5.061   9.286  2.0280  0.1066 -0.2079
75364SOL    HW237818   6.684   5.086   9.408 -0.3474 -1.6698 -1.4003
75365SOL     OW37819   0.402   2.873  11.551 -0.3899  0.2910 -0.4733
75365SOL    HW137820   0.385   2.961  11.584 -1.0105 -0.2340  0.6700
75365SOL    HW237821   0.315   2.837  11.534 -0.2708 -0.8200  1.0667
75366SOL     OW37822   9.520  12.773  11.113  0.4138 -0.3399 -0.5776
75366SOL    HW137823   9.526  12.688  11.070 -0.7369 -1.4722  1.3734
75366SOL    HW237824   9.442  12.814  11.074  0.4065 -0.5833 -0.8253
75367SOL     OW37825   6.616   4.330   1.342  0.1260 -0.1527  0.2262
75367SOL    HW137826   6.609   4.337   1.437 -1.0317  0.8274  0.1016
75367SOL    HW237827   6.708   4.309   1.326  0.2197 -0.8810  1.5754
75368SOL     OW37828  12.370   4.717  10.338 -0.0015 -0.6580 -0.0238
75368SOL    HW137829  12.315   4.664  10.279  0.3416 -1.0676  0.0156
75368SOL    HW237830  12.450   4.666  10.347 -0.6592 -1.4126  2.0826
75369SOL     OW37831  13.701   4.775   8.605  0.1912  0.1947 -0.0624
75369SOL    HW137832  13.710   4.869   8.622 -1.3070 -0.0154  2.3589
75369SOL    HW237833  13.668   4.739   8.687  0.5586 -2.4571 -0.9836
75370SOL     OW37834   4.862   8.917   7.535 -1.1242  0.0428 -0.3949
75370SOL    HW137835   4.939   8.960   7.572 -0.2953  0.3449 -2.3542
75370SOL    HW237836   4.794   8.929   7.602  0.2717  0.5361  1.0008
75371SOL     OW37837   9.260  12.130   4.174 -0.8971  0.5596  0.1455
75371SOL    HW137838   9.170  12.097   4.183 -1.6014  1.7314 -1.8094
75371SOL    HW237839   9.273  12.136   4.079  1.7672 -0.8049  0.3353
75372SOL     OW37840   5.889   2.365   3.808 -0.2380 -0.5417  0.7130
75372SOL    HW137841   5.973   2.395   3.842 -1.1981  1.4545  1.4680
75372SOL    HW237842   5.858   2.302   3.873 -0.6619  0.9765  2.0470
75373SOL     OW37843  13.523   0.686  13.088 -0.3913  0.2958 -0.7246
75373SOL    HW137844  13.548   0.731  13.007 -0.0884  0.4781 -0.5305
75373SOL    HW237845  13.605   0.661  13.129 -0.4942  1.2987  0.1342
75374SOL     OW37846  12.830   9.740   2.089  0.3859 -0.1816 -0.4945
75374SOL    HW137847  12.820   9.731   1.994 -0.2564 -0.0254 -0.4521
75374SOL    HW237848  12.804   9.655   2.124  0.4067 -0.1691 -0.4483
75375SOL     OW37849   6.355  10.932   2.141  0.4609  0.2429  0.2108
75375SOL    HW137850   6.338  11.025   2.156 -0.1973 -0.0242  1.1790
75375SOL    HW237851   6.439  10.916   2.184  0.5841  0.3886  0.0274
75376SOL     OW37852   0.018  13.368   0.183 -0.1606 -0.0528 -0.2023
75376SOL    HW137853  -0.026  13.283   0.185  1.2600 -0.8204 -0.3466
75376SOL    HW237854   0.007  13.398   0.093 -1.3638  0.3271  0.0447
75377SOL     OW37855   5.555  11.802   0.023  0.0501  0.3013 -0.0042
75377SOL    HW137856   5.642  11.841   0.025  0.1396  0.1623 -0.8298
75377SOL    HW237857   5.517  11.822   0.109  0.7878  0.5986  0.2558
75378SOL     OW37858   1.705   2.380   8.254 -0.3679 -0.0607  0.0410
75378SOL    HW137859   1.631   2.430   8.287 -0.2482  0.9204 -1.1154
75378SOL    HW237860   1.719   2.311   8.319 -2.5656 -0.5527  0.0485
75379SOL     OW37861  10.541   5.335   6.330  0.4477  0.0128  0.1623
75379SOL    HW137862  10.493   5.300   6.405  1.6994  0.4786  1.2303
75379SOL    HW237863  10.633   5.329   6.357  1.1054 -1.7491 -2.1572
75380SOL     OW37864   5.645   1.698  13.086 -0.1123  0.6183  0.2089
75380SOL    HW137865   5.558   1.735  13.068 -0.7711 -1.2099 -0.7003
75380SOL    HW237866   5.700   1.773  13.105 -1.0590  2.2102 -2.7054
75381SOL     OW37867   2.662   4.360  10.510  0.4415  0.5304 -0.3414
75381SOL    HW137868   2.634   4.436  10.459 -0.1637 -0.4429 -1.5278
75381SOL    HW237869   2.728   4.317  10.455  1.5335  0.7225  0.7603
75382SOL     OW37870   1.597   1.427  11.299  0.2726 -0.4605 -0.4878
75382SOL    HW137871   1.601   1.334  11.321  2.9303  0.1719  2.4486
75382SOL    HW237872   1.653   1.437  11.223  0.4539 -1.1848 -0.4504
75383SOL     OW37873   2.534   2.571   1.397 -0.5933 -0.2296 -0.0013
75383SOL    HW137874   2.542   2.521   1.478  1.0232  0.3963  0.2814
75383SOL    HW237875   2.610   2.544   1.345 -1.8875 -1.0269 -1.5789
75384SOL     OW37876   5.709   2.931   9.444 -0.1405 -0.1256 -0.0055
75384SOL    HW137877   5.709   2.835   9.449  1.4932 -0.2115 -0.8613
75384SOL    HW237878   5.778   2.951   9.381  0.2016  1.6509  0.8777
75385SOL     OW37879  10.328   7.474   1.420 -0.3183 -0.4572  0.6374
75385SOL    HW137880  10.248   7.516   1.453  0.6466  0.9751  1.2834
75385SOL    HW237881  10.399   7.518   1.467  0.8718 -1.4875 -0.1297
75386SOL     OW37882   4.585  12.466   5.171  0.0659 -0.0999 -0.1442
75386SOL    HW137883   4.502  12.419   5.179  1.3568 -2.4389  0.3867
75386SOL    HW237884   4.640  12.408   5.118  0.9801  2.0144 -1.6373
75387SOL     OW37885   7.783   4.601   5.774  0.3181  0.5424  0.3059
75387SOL    HW137886   7.878   4.608   5.769  0.2952  1.4090  1.0393
75387SOL    HW237887   7.767   4.535   5.841  0.4054  3.7434  3.7869
75388SOL     OW37888  11.228   3.231   8.514  0.0296  0.6808 -0.0017
75388SOL    HW137889  11.247   3.324   8.524  1.1802  0.6349 -1.4472
75388SOL    HW237890  11.292   3.200   8.449  0.3780 -1.3509  1.2238
75389SOL     OW37891  11.796  11.728   3.894 -0.4220  0.0038 -0.1657
75389SOL    HW137892  11.841  11.811   3.908 -1.7303  1.0079 -1.6463
75389SOL    HW237893  11.703  11.748   3.905 -0.6635 -1.8138  1.8685
75390SOL     OW37894   3.705   9.208   0.637 -0.1336  0.1894 -0.3246
75390SOL    HW137895   3.781   9.156   0.664 -0.7341 -0.3596  0.3423
75390SOL    HW237896   3.631   9.148   0.644 -0.5669  0.5638 -1.4812
75391SOL     OW37897   2.611   9.005   8.002  0.4472  0.2121  0.1993
75391SOL    HW137898   2.665   8.937   7.960 -2.9819 -1.7898 -1.4063
75391SOL    HW237899   2.603   8.976   8.093 -0.7324 -1.5019 -0.4007
75392SOL     OW37900  13.478   5.622   8.347  0.2041  0.3834  0.4210
75392SOL    HW137901  13.441   5.535   8.362  0.9546 -0.0363 -0.1456
75392SOL    HW237902  13.571   5.613   8.367  0.7643  0.4401 -1.9557
75393SOL     OW37903  13.262   3.979   4.822  0.1478  0.2690 -0.0153
75393SOL    HW137904  13.283   3.922   4.896  0.1594 -0.5138 -0.5976
75393SOL    HW237905  13.333   4.042   4.819  0.6940 -0.3317  0.0168
75394SOL     OW37906   2.250   5.577  10.316  0.0929  0.1819 -0.1756
75394SOL    HW137907   2.165   5.599  10.354  0.8339  1.9445  0.5615
75394SOL    HW237908   2.310   5.643  10.350  1.4645 -0.0910 -1.8860
75395SOL     OW37909   4.366   1.168   9.976  0.3904  0.0082 -0.2012
75395SOL    HW137910   4.291   1.172  10.035 -0.5642  2.7089 -1.4304
75395SOL    HW237911   4.435   1.214  10.023  0.1447  0.6761 -0.4788
75396SOL     OW37912   0.850   7.845   7.673  0.0827 -0.3383  0.2947
75396SOL    HW137913   0.776   7.854   7.733  0.0150 -1.0347  0.3199
75396SOL    HW237914   0.895   7.930   7.678 -0.1345 -0.2603  1.0419
75397SOL     OW37915   9.266   1.438  12.114  0.7796  0.6532  0.6166
75397SOL    HW137916   9.182   1.450  12.070  0.8868  1.6679  0.6561
75397SOL    HW237917   9.314   1.378  12.058  0.0014 -0.0286  0.6471
75398SOL     OW37918  10.283  12.138  12.789  0.4017 -0.8534 -0.6381
75398SOL    HW137919  10.253  12.215  12.837 -2.2782 -3.1459  1.7123
75398SOL    HW237920  10.379  12.147  12.786  0.4881  0.8295  2.7290
75399SOL     OW37921   1.127  12.937  12.035  0.0216 -0.8511  0.1967
75399SOL    HW137922   1.127  12.993  11.957 -2.3593 -0.6027  0.2904
75399SOL    HW237923   1.114  12.997  12.108 -1.4763 -1.3787  0.4022
75400SOL     OW37924   0.674   2.653   8.283  0.7775 -0.1192  0.1284
75400SOL    HW137925   0.618   2.637   8.207  2.0108 -0.8319 -0.6551
75400SOL    HW237926   0.695   2.566   8.317  1.5636  0.1250  0.2880
75401SOL     OW37927   9.914   5.180  12.373  0.7061  0.2206 -0.3252
75401SOL    HW137928  10.004   5.208  12.354  0.4328 -0.5194 -3.0205
75401SOL    HW237929   9.910   5.089  12.343 -0.6883 -0.0915  0.7117
75402SOL     OW37930   5.200   0.703   4.885  0.8027  0.0630 -0.5154
75402SOL    HW137931   5.257   0.760   4.936  0.9482  0.3617 -1.0088
75402SOL    HW237932   5.166   0.640   4.949 -0.5119  1.5673  0.3759
75403SOL     OW37933  11.491  11.865   4.224 -0.5560 -0.4846 -0.1159
75403SOL    HW137934  11.500  11.960   4.225 -2.4400 -0.1643 -2.8192
75403SOL    HW237935  11.398  11.850   4.244 -0.1989 -1.8043  0.6681
75404SOL     OW37936   4.178   9.046   8.170  0.3233  0.0873 -0.6594
75404SOL    HW137937   4.116   8.982   8.137  0.5557 -0.3303 -0.2992
75404SOL    HW237938   4.133   9.087   8.244  0.3874 -0.0550 -0.5406
75405SOL     OW37939  10.964   9.525   5.312  0.6035  0.0783 -0.4087
75405SOL    HW137940  10.894   9.460   5.309 -0.5028  1.1953  0.3989
75405SOL    HW237941  10.969   9.560   5.223 -0.5270  0.6476 -0.2642
75406SOL     OW37942   7.478  12.401   9.796  0.0534 -0.7031 -0.1760
75406SOL    HW137943   7.406  12.396   9.858  0.9953 -1.1827  0.9061
75406SOL    HW237944   7.492  12.495   9.783 -1.6264 -0.5826 -1.4666
75407SOL     OW37945   3.505   4.010   1.516  0.4861  0.2573  0.2353
75407SOL    HW137946   3.481   3.922   1.487 -0.1196  1.3901 -3.2963
75407SOL    HW237947   3.599   4.016   1.500  0.5466  0.2313  0.5736
75408SOL     OW37948   3.025   3.193   4.604  0.0017 -0.4588 -0.9618
75408SOL    HW137949   3.078   3.207   4.682  0.3927  0.5056 -1.3843
75408SOL    HW237950   2.937   3.176   4.636  0.4396 -1.5334 -0.2676
75409SOL     OW37951   3.580   2.894  11.140  0.0555 -0.3763  0.2627
75409SOL    HW137952   3.663   2.935  11.166 -0.4975  0.0429  1.4216
75409SOL    HW237953   3.595   2.866  11.050  1.0496  0.7880  0.0357
75410SOL     OW37954   2.547  10.702   1.670  0.0911 -0.2708 -0.2152
75410SOL    HW137955   2.551  10.711   1.765  0.9810 -1.2172 -0.1402
75410SOL    HW237956   2.638  10.709   1.641 -0.2354  0.5783 -1.0636
75411SOL     OW37957  12.914   3.526  13.578  0.1950  0.4358 -0.2100
75411SOL    HW137958  12.901   3.509  13.485  0.1028 -0.6466 -0.0063
75411SOL    HW237959  12.985   3.467  13.603  0.1863  0.6868  0.4236
75412SOL     OW37960  11.302   0.302   9.697 -0.4843  0.9899  0.2481
75412SOL    HW137961  11.260   0.363   9.636  3.3734  1.7147 -2.0352
75412SOL    HW237962  11.331   0.358   9.770  0.3460  1.3734 -0.3546
75413SOL     OW37963   7.255  12.748   4.735  0.0148  0.2505  0.4382
75413SOL    HW137964   7.177  12.693   4.749  0.4955 -0.2905  1.0482
75413SOL    HW237965   7.224  12.819   4.679 -0.8428 -0.1383  0.3989
75414SOL     OW37966  11.434  13.366  10.724 -0.1522 -0.3751 -0.7219
75414SOL    HW137967  11.401  13.330  10.807  0.0184 -0.7727 -0.8263
75414SOL    HW237968  11.509  13.310  10.702  0.6641  0.5577 -0.4415
75415SOL     OW37969   2.706   4.155  13.318  0.3178 -0.3454 -0.0428
75415SOL    HW137970   2.790   4.131  13.279  0.5175  0.0565  0.1429
75415SOL    HW237971   2.641   4.108  13.265  0.6255 -0.2905 -0.4745
75416SOL     OW37972   0.797   8.781  12.952  0.1156 -0.1497 -0.1557
75416SOL    HW137973   0.728   8.724  12.919  1.8526 -1.6512 -1.3780
75416SOL    HW237974   0.842   8.727  13.017  0.4897  0.6107  0.2203
75417SOL     OW37975  11.361  12.321  10.588 -0.2554  0.2183 -0.2063
75417SOL    HW137976  11.291  12.280  10.640 -0.6951 -1.0625 -1.7414
75417SOL    HW237977  11.441  12.302  10.637 -0.7383 -0.2590  0.4238
75418SOL     OW37978  13.100   4.885   5.444  0.1039 -0.0948  0.3867
75418SOL    HW137979  13.079   4.969   5.404 -0.3701 -0.2824  0.2370
75418SOL    HW237980  13.109   4.904   5.537 -1.5062 -0.1330  0.5811
75419SOL     OW37981   2.300   9.859  12.228 -0.3909  0.7025  0.5455
75419SOL    HW137982   2.385   9.871  12.270 -0.9521  1.5695  1.4654
75419SOL    HW237983   2.239   9.846  12.301 -0.8343 -1.5941 -0.1393
75420SOL     OW37984   0.595   3.231   0.644 -0.1519  0.1628  0.3727
75420SOL    HW137985   0.509   3.205   0.613  1.3301 -3.1130 -1.4818
75420SOL    HW237986   0.629   3.288   0.575  0.3742 -1.3081 -0.6454
75421SOL     OW37987   9.620   8.372   4.846  0.5685  0.8905  0.0035
75421SOL    HW137988   9.609   8.448   4.789 -2.2993  0.0663 -0.6699
75421SOL    HW237989   9.712   8.348   4.834  0.1494  0.6104 -4.5579
75422SOL     OW37990   9.445   7.789   7.452  0.2128 -0.1866  0.3236
75422SOL    HW137991   9.350   7.798   7.452  0.1599 -0.7159  0.0714
75422SOL    HW237992   9.470   7.792   7.545  0.3905  4.0791  0.3375
75423SOL     OW37993   7.649   2.864   0.830  0.1207  0.0968 -0.2176
75423SOL    HW137994   7.598   2.926   0.882 -0.4870  0.1663 -0.8680
75423SOL    HW237995   7.730   2.851   0.879  0.9420  2.5478 -0.7492
75424SOL     OW37996   5.257  13.267  11.016  0.2437  0.3195  0.0952
75424SOL    HW137997   5.331  13.327  11.028 -0.6844  1.6229 -0.5509
75424SOL    HW237998   5.180  13.323  11.010 -0.4768 -0.7709 -2.3312
75425SOL     OW37999   5.669   2.076   5.772  0.5152 -0.0989  0.1401
75425SOL    HW138000   5.752   2.075   5.821  0.4654  0.2936  0.2307
75425SOL    HW238001   5.618   2.004   5.809  0.6382 -0.0572  0.3864
75426SOL     OW38002  13.156   1.236   2.201  0.3112  0.0542  0.4206
75426SOL    HW138003  13.116   1.150   2.189 -1.5159  0.6932  1.5148
75426SOL    HW238004  13.098   1.296   2.153 -0.3258  1.0478  2.3198
75427SOL     OW38005  10.039   2.919   7.969  0.1691  0.5577  0.0176
75427SOL    HW138006  10.122   2.884   8.001  1.2269  0.2241 -2.8755
75427SOL    HW238007  10.063   2.989   7.908 -1.6784  0.5067 -0.8478
75428SOL     OW38008   6.034  12.196   4.264  0.2719  0.3462  0.5705
75428SOL    HW138009   6.113  12.149   4.291 -1.9488 -3.3159  1.2594
75428SOL    HW238010   5.982  12.205   4.343 -0.0167  2.9998  0.1951
75429SOL     OW38011  11.777   9.538   6.036  0.1109  0.5465  0.3525
75429SOL    HW138012  11.796   9.552   5.943 -3.4628 -0.6120 -0.7192
75429SOL    HW238013  11.801   9.446   6.052 -0.5525  0.3475  0.1978
75430SOL     OW38014  10.647   9.699   3.655  0.4460  0.3826 -0.0643
75430SOL    HW138015  10.730   9.707   3.702  1.2036  0.2878 -1.3431
75430SOL    HW238016  10.672   9.668   3.568 -0.8717  1.1013 -0.7179
75431SOL     OW38017   7.837  11.588  10.137 -0.7624  0.6216  0.1978
75431SOL    HW138018   7.885  11.562  10.217  0.6559 -1.3070 -1.1640
75431SOL    HW238019   7.791  11.508  10.110 -0.9747  1.1457 -1.0590
75432SOL     OW38020   4.187  12.728   0.838  0.2619 -0.1641  0.0667
75432SOL    HW138021   4.103  12.700   0.874 -0.5230 -0.7561 -2.0968
75432SOL    HW238022   4.239  12.648   0.834  0.5581  0.0062  0.3762
75433SOL     OW38023   8.219   6.655  12.022 -0.3021 -0.5899  0.2026
75433SOL    HW138024   8.217   6.567  11.984 -1.4212 -0.4932 -0.0042
75433SOL    HW238025   8.150   6.702  11.976  1.3828  0.9295 -0.9141
75434SOL     OW38026  11.618   4.201   0.642  0.2658  0.0040 -0.9274
75434SOL    HW138027  11.602   4.239   0.556  0.8944  0.5456 -0.8175
75434SOL    HW238028  11.713   4.185   0.645  0.4975  1.3162  0.1581
75435SOL     OW38029   8.063  10.739   2.091  0.3008 -0.1095  0.0897
75435SOL    HW138030   8.072  10.725   1.997  1.8313 -0.3885  0.2501
75435SOL    HW238031   8.151  10.764   2.120 -0.2119  0.2587  1.4049
75436SOL     OW38032  12.873  13.618  10.265  0.0764  0.2489 -0.5292
75436SOL    HW138033  12.815  13.690  10.289 -1.1298 -0.9763  0.3921
75436SOL    HW238034  12.923  13.651  10.190 -0.8470  1.8206 -0.4891
75437SOL     OW38035   1.568   8.465   0.816 -0.6405  0.3473 -0.2760
75437SOL    HW138036   1.489   8.492   0.862 -0.6338 -0.0818 -0.0078
75437SOL    HW238037   1.623   8.544   0.815 -0.0217  0.0084  1.7742
75438SOL     OW38038   2.599   0.354  12.384 -0.1686 -0.8104  0.1834
75438SOL    HW138039   2.513   0.360  12.342 -0.3737 -1.1331  0.5446
75438SOL    HW238040   2.640   0.278  12.344 -0.3348 -1.0745  0.5076
75439SOL     OW38041  10.047  13.131   5.020 -0.8038  0.3762  0.5153
75439SOL    HW138042  10.126  13.087   5.050 -0.9044  0.1728  0.4824
75439SOL    HW238043   9.975  13.080   5.058 -1.0071 -1.1483 -1.7102
75440SOL     OW38044   5.883   8.628   4.360 -0.4533  0.2909 -0.4771
75440SOL    HW138045   5.866   8.535   4.379 -0.8914  0.3701 -0.4622
75440SOL    HW238046   5.935   8.627   4.280 -0.9848  0.0451 -0.8271
75441SOL     OW38047   5.253   9.577   0.955 -0.7574  0.5045  0.7682
75441SOL    HW138048   5.327   9.552   0.900 -0.3095 -0.2114  1.6689
75441SOL    HW238049   5.176   9.543   0.909 -0.5264  1.0998 -0.0834
75442SOL     OW38050   3.788   0.966   4.227 -0.2950  0.2098  0.4921
75442SOL    HW138051   3.819   1.043   4.180  1.4104 -0.7884 -0.1282
75442SOL    HW238052   3.692   0.970   4.220 -0.1634  0.4448 -2.5656
75443SOL     OW38053   0.602  11.911   8.889 -0.8404  0.1098  0.1241
75443SOL    HW138054   0.651  11.890   8.809 -2.0422  0.7396 -0.8036
75443SOL    HW238055   0.631  11.999   8.912 -0.2319 -0.2065  0.6055
75444SOL     OW38056  13.731   1.172   1.609  0.1355  0.0386 -0.3826
75444SOL    HW138057  13.758   1.099   1.664  0.5269 -0.2175 -0.9085
75444SOL    HW238058  13.644   1.148   1.578 -0.2014  0.3069  0.3307
75445SOL     OW38059  13.244  11.028   9.970  0.5893  0.3351  0.0548
75445SOL    HW138060  13.232  11.122   9.960  0.4089  0.2659 -0.3965
75445SOL    HW238061  13.259  11.016  10.064 -0.3661  0.7101  0.2749
75446SOL     OW38062  12.209   8.386   9.881  0.2896 -0.3685  0.0127
75446SOL    HW138063  12.158   8.328   9.937  1.6994 -1.1561  0.5254
75446SOL    HW238064  12.226   8.463   9.935 -0.1346 -0.2130 -0.0735
75447SOL     OW38065   4.207   9.269   9.559 -0.1778 -0.2985  0.6781
75447SOL    HW138066   4.133   9.229   9.605 -0.5450  0.1046  0.4393
75447SOL    HW238067   4.283   9.247   9.613 -0.4127 -1.0616  0.7108
75448SOL     OW38068   0.121   0.716   9.264 -0.4028 -0.8831 -0.1787
75448SOL    HW138069   0.034   0.753   9.276  1.1389  3.9328 -1.7481
75448SOL    HW238070   0.125   0.692   9.172 -0.1186 -1.2522 -0.0740
75449SOL     OW38071  12.730   6.782   2.186 -0.2194 -0.1178  0.5741
75449SOL    HW138072  12.707   6.689   2.175 -1.0807  0.3115 -1.9425
75449SOL    HW238073  12.650   6.823   2.218 -0.0668 -0.1135  0.9554
75450SOL     OW38074  11.541   0.575   7.992  0.0236  0.4010 -0.7401
75450SOL    HW138075  11.472   0.560   8.056  0.3247  0.1496 -0.4708
75450SOL    HW238076  11.554   0.489   7.951 -0.5235  0.6653 -1.5065
75451SOL     OW38077  12.810   7.585   7.995 -0.1567  0.8786 -0.5895
75451SOL    HW138078  12.742   7.625   8.049 -0.2045  0.0849 -0.0416
75451SOL    HW238079  12.847   7.657   7.945 -0.7562  1.4736 -0.1866
75452SOL     OW38080  11.121   5.643  12.827 -0.0680 -0.3278 -0.2294
75452SOL    HW138081  11.165   5.712  12.875  0.9199 -0.7281 -0.5409
75452SOL    HW238082  11.169   5.563  12.849  0.7846 -0.4434 -2.2654
75453SOL     OW38083   3.444  13.524  11.890 -0.2511 -0.1262 -0.4761
75453SOL    HW138084   3.444  13.603  11.837  1.6995  1.6746  2.0289
75453SOL    HW238085   3.352  13.513  11.916 -0.9232 -0.0275 -2.5944
75454SOL     OW38086   9.088   8.432   4.677 -0.0107  0.8903 -0.5575
75454SOL    HW138087   9.150   8.451   4.747 -1.2711  1.2338  0.5097
75454SOL    HW238088   9.077   8.337   4.680 -2.3629  1.1259  1.8474
75455SOL     OW38089  11.187   3.349  13.603 -0.1444  0.3531 -0.4899
75455SOL    HW138090  11.111   3.303  13.638 -0.0243  0.6767  0.1977
75455SOL    HW238091  11.155   3.437  13.581  0.4790  1.2098  1.7740
75456SOL     OW38092  10.188   8.059   9.566  0.5399 -0.4098 -0.4760
75456SOL    HW138093  10.177   8.104   9.482  0.0103  1.5321  0.5675
75456SOL    HW238094  10.118   8.094   9.621  0.7041 -1.8489  0.7056
75457SOL     OW38095  11.947   3.710  12.600  0.3082  0.7568  0.0240
75457SOL    HW138096  12.028   3.733  12.645  0.0519  1.1079  0.3139
75457SOL    HW238097  11.928   3.787  12.545 -0.2629  1.0217  0.5813
75458SOL     OW38098   9.859   5.835   0.318  0.7574 -0.4130 -0.2792
75458SOL    HW138099   9.775   5.807   0.281 -0.6299  0.4554  1.9432
75458SOL    HW238100   9.866   5.927   0.295 -0.6860  0.4602  2.2754
75459SOL     OW38101   5.550   0.995   6.224  0.5194 -0.1536  0.1053
75459SOL    HW138102   5.635   1.006   6.267  0.3408 -0.1302  0.4616
75459SOL    HW238103   5.546   0.902   6.202  0.1292 -0.4203  1.2066
75460SOL     OW38104  10.124  12.412   6.136 -0.2041  0.5352 -0.5321
75460SOL    HW138105  10.083  12.326   6.127 -0.6702  0.6225  0.5505
75460SOL    HW238106  10.158  12.413   6.225  0.5620  1.1596 -0.8205
75461SOL     OW38107   9.199   1.056   3.236 -0.0272  0.4720 -0.0161
75461SOL    HW138108   9.280   1.039   3.283  1.5444  0.2124 -2.5873
75461SOL    HW238109   9.162   0.969   3.219 -1.0850  0.5996  1.4140
75462SOL     OW38110  12.719  10.624   3.264 -0.1976 -0.0552  0.1284
75462SOL    HW138111  12.770  10.652   3.340  0.6306  0.1781 -0.4966
75462SOL    HW238112  12.666  10.551   3.296  2.9761 -2.5924  0.0666
75463SOL     OW38113   0.769   0.995   8.213  0.3549  0.0299 -0.1597
75463SOL    HW138114   0.831   0.924   8.197 -0.4619 -0.8646  0.5392
75463SOL    HW238115   0.701   0.983   8.147 -0.9472 -1.2410  1.3331
75464SOL     OW38116   6.502   6.180   7.031  0.0330 -0.0785 -0.1831
75464SOL    HW138117   6.448   6.109   6.998  0.9645 -0.9122  0.0314
75464SOL    HW238118   6.460   6.260   6.999 -2.1634 -0.5901  1.1848
75465SOL     OW38119   3.102  13.667   4.398 -0.1350 -0.5505  0.2798
75465SOL    HW138120   3.190  13.641   4.370 -0.1762  0.3373 -0.7538
75465SOL    HW238121   3.082  13.744   4.345 -0.2649  1.2078  2.7524
75466SOL     OW38122   8.422   9.844   1.846  0.2543 -0.5174  0.2331
75466SOL    HW138123   8.506   9.799   1.844  0.5714 -0.0427 -3.3341
75466SOL    HW238124   8.358   9.776   1.868  1.1703 -1.7964 -0.9246
75467SOL     OW38125  12.215   5.525   1.466  0.1986  0.5858 -0.1801
75467SOL    HW138126  12.187   5.433   1.463  0.5808  0.4802 -1.0243
75467SOL    HW238127  12.152   5.568   1.524  2.0708 -0.8953  3.2113
75468SOL     OW38128   7.219   9.977   3.931  0.6779 -0.2086  0.0964
75468SOL    HW138129   7.306  10.012   3.915  0.9011  0.0579  1.6931
75468SOL    HW238130   7.162  10.023   3.869  1.6233 -0.2626 -0.8371
75469SOL     OW38131   7.878  12.851   7.985 -0.1066  0.1000 -0.1758
75469SOL    HW138132   7.832  12.782   8.032  1.7028 -1.8026 -0.9853
75469SOL    HW238133   7.945  12.882   8.046  1.1952 -1.2355 -0.8551
75470SOL     OW38134   2.622  10.801   3.086  0.0221 -0.3220  0.1391
75470SOL    HW138135   2.551  10.844   3.133 -1.4314 -0.3852 -1.8438
75470SOL    HW238136   2.670  10.752   3.153  0.4249  2.5356  2.1353
75471SOL     OW38137   2.515   6.348  13.332  0.4119 -0.6162  0.1113
75471SOL    HW138138   2.606   6.374  13.320  0.3619 -0.3254  0.3628
75471SOL    HW238139   2.487   6.391  13.413 -0.3614  0.3898 -0.6659
75472SOL     OW38140   7.846  11.422   5.120  0.2120  0.0067  0.0148
75472SOL    HW138141   7.772  11.368   5.146  1.2936 -1.2232  0.6736
75472SOL    HW238142   7.825  11.510   5.152 -1.9316  0.2057 -1.7533
75473SOL     OW38143   1.753   4.144   8.381  1.0696 -0.2465  0.2633
75473SOL    HW138144   1.784   4.195   8.456  1.2045 -2.6679  2.0074
75473SOL    HW238145   1.673   4.102   8.413  0.1001  0.0669 -1.6170
75474SOL     OW38146   7.461   8.673  11.477  0.0216  0.7580  0.0056
75474SOL    HW138147   7.508   8.711  11.551 -1.1728  0.5132  0.9237
75474SOL    HW238148   7.522   8.680  11.403  1.9247 -0.5652  1.3776
75475SOL     OW38149  12.166   4.231   8.889  0.3660 -0.3055 -0.3859
75475SOL    HW138150  12.163   4.293   8.816  1.4178 -0.7198 -0.8051
75475SOL    HW238151  12.252   4.190   8.881  0.5296 -0.2986  1.1535
75476SOL     OW38152  11.644   1.265   3.969 -0.5224 -0.6306 -0.1044
75476SOL    HW138153  11.642   1.353   4.006  0.3389 -0.7746  0.3088
75476SOL    HW238154  11.591   1.271   3.890 -0.3250  0.3058 -0.1782
75477SOL     OW38155   9.652  10.118   0.559  0.1450  0.2208  0.1661
75477SOL    HW138156   9.727  10.175   0.543 -1.1996  2.2050  0.5867
75477SOL    HW238157   9.594  10.134   0.485 -1.5507  1.6976  1.7198
75478SOL     OW38158   0.208   0.603   0.344 -0.9505 -0.3225  0.4855
75478SOL    HW138159   0.206   0.696   0.364 -0.2234  0.0593 -1.0817
75478SOL    HW238160   0.245   0.562   0.422  0.2020  0.8833  0.5942
75479SOL     OW38161   8.495   1.192   9.642 -0.0106  0.2502 -0.3818
75479SOL    HW138162   8.475   1.219   9.732  2.7328 -1.5023  0.9027
75479SOL    HW238163   8.455   1.106   9.633  0.5627 -0.0104 -0.4655
75480SOL     OW38164   7.305   7.276   4.320  0.2989 -0.4493 -0.3683
75480SOL    HW138165   7.400   7.286   4.329  0.2670 -0.7655  0.3839
75480SOL    HW238166   7.268   7.350   4.368  0.1619  0.4725 -1.8198
75481SOL     OW38167   3.307  12.341  12.034  0.0641 -0.4573  0.7014
75481SOL    HW138168   3.359  12.419  12.053  0.8549 -1.0886  1.1830
75481SOL    HW238169   3.231  12.347  12.093  0.2846 -0.2094  0.9600
75482SOL     OW38170   1.093   6.615   4.842  0.3563  0.4276 -0.4169
75482SOL    HW138171   1.012   6.612   4.893  0.9903 -0.1617  0.5868
75482SOL    HW238172   1.071   6.575   4.759  0.0915 -1.5705  0.5641
75483SOL     OW38173   3.103  13.070   6.267  0.1959 -0.1181  0.2078
75483SOL    HW138174   3.127  12.977   6.263  1.7272  0.2548  0.2235
75483SOL    HW238175   3.123  13.096   6.357 -1.4152 -0.0502  0.5753
75484SOL     OW38176   3.082  12.306   8.899 -0.1163 -0.7028 -0.1259
75484SOL    HW138177   3.166  12.348   8.881  0.4115 -1.2670  0.9531
75484SOL    HW238178   3.067  12.250   8.822 -0.3306  0.6349 -1.0962
75485SOL     OW38179  12.571   0.114   1.842 -0.7135 -0.3869 -0.3582
75485SOL    HW138180  12.632   0.094   1.771 -1.0054 -0.2088 -0.6594
75485SOL    HW238181  12.617   0.176   1.898 -0.4858 -0.5257 -0.3907
75486SOL     OW38182  12.100   2.308  13.442 -0.0003  0.5265 -0.3735
75486SOL    HW138183  12.074   2.350  13.524 -0.1882  0.4582 -0.3967
75486SOL    HW238184  12.120   2.218  13.465 -0.5994  0.3558 -0.4904
75487SOL     OW38185   8.765   6.644   9.048  0.0577 -0.6316 -0.1189
75487SOL    HW138186   8.784   6.729   9.086 -2.0258 -0.5232  0.8126
75487SOL    HW238187   8.771   6.658   8.953  0.1647  0.4317  0.0318
75488SOL     OW38188   3.840   4.319  13.636  0.4420 -0.1526 -0.1898
75488SOL    HW138189   3.921   4.304  13.684 -0.2425 -0.6376  0.8503
75488SOL    HW238190   3.790   4.379  13.692 -0.7595 -1.4534  0.1876
75489SOL     OW38191   4.798   8.325   7.154  0.1539 -0.4659 -0.9197
75489SOL    HW138192   4.822   8.407   7.111 -0.7901 -0.4413 -1.4264
75489SOL    HW238193   4.706   8.312   7.130 -0.8530  0.2238  2.1255
75490SOL     OW38194   3.450   1.010   0.627  1.1767  0.4653 -0.4165
75490SOL    HW138195   3.435   0.924   0.665  2.3926 -0.4971 -1.9504
75490SOL    HW238196   3.449   0.995   0.532  1.0820  2.1988 -0.7308
75491SOL     OW38197   4.110  13.300   4.326  0.5806 -0.4421 -0.3341
75491SOL    HW138198   4.177  13.324   4.391  1.1963 -0.9049 -0.7743
75491SOL    HW238199   4.027  13.316   4.370  0.9724  0.5912  0.0639
75492SOL     OW38200  11.740   1.128   3.418 -0.0903 -0.9452 -0.0368
75492SOL    HW138201  11.752   1.103   3.510  1.2578  1.5572  0.5592
75492SOL    HW238202  11.646   1.118   3.402 -0.1616 -2.6328  1.1882
75493SOL     OW38203   8.267   8.313   3.733 -0.3526  0.1384  0.2942
75493SOL    HW138204   8.299   8.402   3.718 -0.5981  0.3625  1.0079
75493SOL    HW238205   8.308   8.286   3.815 -0.2861 -0.4052  0.0862
75494SOL     OW38206   4.730  13.161   3.298 -0.2331 -0.0192  0.1886
75494SOL    HW138207   4.658  13.114   3.340  0.3792 -2.9704 -1.7930
75494SOL    HW238208   4.780  13.093   3.252  1.4072  2.4389 -1.9573
75495SOL     OW38209   7.291   5.725   7.302  0.1735 -0.1528  0.1839
75495SOL    HW138210   7.340   5.796   7.343  0.1742 -0.0181 -0.0485
75495SOL    HW238211   7.200   5.749   7.314  0.1826  0.5367 -1.0172
75496SOL     OW38212   1.867   2.227  11.635 -0.3471  0.2146 -0.1121
75496SOL    HW138213   1.894   2.256  11.548  0.2477 -0.3491 -0.1247
75496SOL    HW238214   1.929   2.157  11.657 -1.7387 -1.0707 -0.0996
75497SOL     OW38215   1.933   2.397   8.649  0.6751  0.1096 -0.5419
75497SOL    HW138216   1.874   2.357   8.713 -0.5401  0.2085 -1.5676
75497SOL    HW238217   2.011   2.420   8.700  0.6037 -1.7199  0.4815
75498SOL     OW38218   9.979  11.638   0.353  0.7031  0.0804 -0.2661
75498SOL    HW138219   9.896  11.590   0.352  1.1177 -0.6704 -0.0521
75498SOL    HW238220  10.038  11.584   0.301  1.4495 -0.1587  0.7891
75499SOL     OW38221   2.211  12.585   5.854 -0.2084 -0.0427 -0.1429
75499SOL    HW138222   2.183  12.587   5.762 -0.1220  1.0871 -0.1479
75499SOL    HW238223   2.167  12.660   5.894 -0.6493 -0.8193  0.8664
75500SOL     OW38224   7.845   5.879   8.505  0.4098 -0.2470  0.5316
75500SOL    HW138225   7.890   5.806   8.461 -0.9685 -0.6578 -0.2707
75500SOL    HW238226   7.816   5.842   8.588  1.6713  0.0681  1.1230
75501SOL     OW38227   5.882   0.199  12.641 -0.5385  0.2725 -0.5556
75501SOL    HW138228   5.800   0.150  12.631  0.5198 -1.9098  0.8973
75501SOL    HW238229   5.874   0.241  12.727  0.3459 -0.9873  0.1657
75502SOL     OW38230   5.426   1.384   3.555 -0.5674  0.0816  0.3279
75502SOL    HW138231   5.502   1.331   3.581  0.5013  0.6645 -1.4323
75502SOL    HW238232   5.430   1.460   3.612 -1.8551 -1.4295  2.5721
75503SOL     OW38233   1.287   3.281   4.175  0.3685 -0.2930  0.4482
75503SOL    HW138234   1.198   3.296   4.146  0.6916 -0.0508 -0.4343
75503SOL    HW238235   1.315   3.202   4.129  1.7630  1.5023 -2.0148
75504SOL     OW38236   9.216   8.303   7.763 -0.0821  0.4496 -0.0874
75504SOL    HW138237   9.255   8.391   7.767  0.1447  0.3002  1.5143
75504SOL    HW238238   9.122   8.319   7.773 -0.1607  0.5754 -0.9226
75505SOL     OW38239   0.167   8.985   9.406  0.4339 -0.5459  0.0067
75505SOL    HW138240   0.135   8.944   9.486 -1.0653  1.3519  0.4465
75505SOL    HW238241   0.225   9.055   9.436  0.4453 -0.2894 -0.6077
75506SOL     OW38242   9.404  12.259   3.064  0.1523 -0.0662  0.0861
75506SOL    HW138243   9.397  12.336   3.008 -1.8022 -1.6188 -1.9882
75506SOL    HW238244   9.321  12.256   3.111  0.9494  0.0600  1.5660
75507SOL     OW38245   4.944   3.475  12.737  0.5099 -0.0353  0.1887
75507SOL    HW138246   4.885   3.550  12.729  0.6807  0.1319  0.4991
75507SOL    HW238247   5.031   3.511  12.726  0.5114 -0.4432 -1.3447
75508SOL     OW38248   0.385   3.003   9.069 -0.1902 -0.4701 -0.6133
75508SOL    HW138249   0.450   2.953   9.020  1.4377  1.5133 -0.5614
75508SOL    HW238250   0.327   3.039   9.002 -1.2629 -2.1566 -0.6654
75509SOL     OW38251   0.773  12.143  13.144  0.3297  0.0230 -0.5781
75509SOL    HW138252   0.701  12.206  13.136 -1.1571 -1.5839 -0.3849
75509SOL    HW238253   0.734  12.059  13.123  1.1895 -1.4743  3.0042
75510SOL     OW38254  11.115  10.791  10.139  0.7048 -0.8268  0.1909
75510SOL    HW138255  11.191  10.849  10.142  0.4290 -0.3893 -0.7700
75510SOL    HW238256  11.142  10.720  10.081  0.6576 -1.0910  0.4902
75511SOL     OW38257   4.548   1.128   7.506 -0.0209 -0.3900 -0.2363
75511SOL    HW138258   4.551   1.135   7.410  1.0802 -1.2929 -0.2895
75511SOL    HW238259   4.481   1.062   7.523 -0.5615  0.1193 -0.3499
75512SOL     OW38260  11.487   9.859  13.269  0.3049 -0.4132  0.1315
75512SOL    HW138261  11.531   9.830  13.189 -0.2050 -0.6818 -0.0606
75512SOL    HW238262  11.525   9.945  13.287 -0.7190  0.3941 -1.3201
75513SOL     OW38263   3.654   4.552   3.523 -0.6300  0.3913  0.9235
75513SOL    HW138264   3.692   4.515   3.444 -0.7431  0.8725  0.6351
75513SOL    HW238265   3.696   4.506   3.595 -1.4240 -0.9285  0.5696
75514SOL     OW38266   8.642  11.615   4.609 -0.3668  0.0598  0.0176
75514SOL    HW138267   8.638  11.681   4.540  0.8136 -1.1680 -1.3096
75514SOL    HW238268   8.690  11.657   4.680 -1.0008  1.1320 -0.1735
75515SOL     OW38269   2.608  11.061   2.937  0.7411 -0.3047 -0.0576
75515SOL    HW138270   2.675  11.080   3.004 -0.0147 -0.7667  0.8438
75515SOL    HW238271   2.600  10.966   2.937 -0.4506 -0.2094  0.3765
75516SOL     OW38272   3.695   0.367  13.002  0.1377  0.0622  0.1992
75516SOL    HW138273   3.634   0.296  12.980  0.3529 -1.2185  3.2903
75516SOL    HW238274   3.774   0.322  13.032  1.0759  1.6563  0.2242
75517SOL     OW38275   2.800   8.231   6.440  0.1087 -0.7948 -0.3618
75517SOL    HW138276   2.756   8.300   6.390 -0.2846  0.8331  2.0499
75517SOL    HW238277   2.889   8.229   6.405 -0.0142  0.5930 -0.8233
75518SOL     OW38278   3.140   3.699  12.058 -0.0055 -0.1204 -0.0947
75518SOL    HW138279   3.191   3.627  12.022  0.6811  0.3384 -0.0660
75518SOL    HW238280   3.206   3.760  12.093 -0.6557 -1.1230  3.1218
75519SOL     OW38281   9.885   9.304  13.602  0.3389  0.1982  0.6814
75519SOL    HW138282   9.882   9.377  13.541  0.1459 -0.0357  0.4099
75519SOL    HW238283   9.844   9.337  13.682  1.1876  0.7112  0.9082
75520SOL     OW38284   4.121   2.516   6.422  0.0048 -0.3278 -0.0314
75520SOL    HW138285   4.177   2.593   6.433 -0.0454 -0.4326  1.0767
75520SOL    HW238286   4.061   2.519   6.496 -2.1435  0.3020 -1.7095
75521SOL     OW38287  10.027   4.113   6.509 -0.2401 -0.0501  0.1290
75521SOL    HW138288  10.073   4.143   6.431 -0.4604  0.2753  0.1235
75521SOL    HW238289  10.095   4.071   6.562  0.1986  1.0035  0.4189
75522SOL     OW38290   3.258  13.333   6.205 -0.7233 -0.1949 -0.1397
75522SOL    HW138291   3.293  13.316   6.117  1.5850 -0.7152  0.8296
75522SOL    HW238292   3.196  13.262   6.220 -1.4345  0.0948 -1.4444
75523SOL     OW38293   3.689  12.720   7.907 -0.6448 -0.4081  0.3471
75523SOL    HW138294   3.691  12.797   7.850 -0.7389  0.4340  1.4580
75523SOL    HW238295   3.690  12.646   7.846 -1.1684  0.4618 -0.7631
75524SOL     OW38296   0.891  10.895   8.859  0.1970  0.1447 -0.3832
75524SOL    HW138297   0.957  10.898   8.928  0.1414 -0.4566 -0.2935
75524SOL    HW238298   0.907  10.811   8.815 -0.7711 -0.2145 -0.0817
75525SOL     OW38299   4.709   4.758  13.055  0.1853  0.8305 -0.2640
75525SOL    HW138300   4.709   4.766  12.960  0.8170  0.2254 -0.3286
75525SOL    HW238301   4.687   4.666  13.070  1.5092  0.5476  0.1111
75526SOL     OW38302  10.422   9.259   3.921  0.4716  0.7994 -0.2279
75526SOL    HW138303  10.462   9.231   4.003 -0.2387 -0.5122 -0.3046
75526SOL    HW238304  10.365   9.187   3.896 -0.9615  2.0679 -0.7807
75527SOL     OW38305   7.814   2.992  11.235 -0.1769  0.0867  0.6644
75527SOL    HW138306   7.796   2.946  11.153 -0.7767 -0.2063  0.9519
75527SOL    HW238307   7.758   2.949  11.299 -0.1217  0.6729  1.1144
75528SOL     OW38308   4.929   6.743  12.408 -0.1561  0.0967  0.6599
75528SOL    HW138309   4.866   6.671  12.414  0.4000 -0.3027  1.9791
75528SOL    HW238310   4.962   6.738  12.318 -2.4329  0.7059 -0.2799
75529SOL     OW38311   5.315   9.015   5.544  0.1377 -0.2510  0.0556
75529SOL    HW138312   5.225   9.006   5.513  0.5476 -0.4829 -1.1312
75529SOL    HW238313   5.353   8.928   5.535  0.2850 -0.3367  1.2733
75530SOL     OW38314   8.222  10.567  11.622  0.4884  0.1592 -0.4924
75530SOL    HW138315   8.201  10.495  11.681 -1.4865 -1.3259 -2.8073
75530SOL    HW238316   8.301  10.538  11.576 -0.6981 -1.0024 -1.9344
75531SOL     OW38317  12.099   9.820   8.179  0.4868 -0.1519 -0.3364
75531SOL    HW138318  12.108   9.725   8.175  0.3228 -0.1576 -0.5658
75531SOL    HW238319  12.023   9.840   8.125  0.7638  0.1457 -0.6234
75532SOL     OW38320   7.310   2.549  13.260 -0.2644  0.3093  0.5409
75532SOL    HW138321   7.280   2.473  13.210  0.6885 -0.2514  0.7904
75532SOL    HW238322   7.296   2.524  13.351  1.3224 -0.1701  0.6931
75533SOL     OW38323   9.797   1.301   1.340  0.2064  0.0957  0.4474
75533SOL    HW138324   9.874   1.337   1.297 -0.2190 -0.6012 -0.9578
75533SOL    HW238325   9.817   1.306   1.433  2.2553 -0.7587  0.1028
75534SOL     OW38326   3.738   8.863  13.637 -0.7112 -0.1445  0.0304
75534SOL    HW138327   3.809   8.815  13.595 -0.9718 -0.2664 -0.2749
75534SOL    HW238328   3.669   8.866  13.571 -0.6509  0.7599  0.0040
75535SOL     OW38329   1.821   5.373   3.069 -0.5332  0.6197 -0.2674
75535SOL    HW138330   1.839   5.408   3.156 -0.1689  0.1916 -0.1712
75535SOL    HW238331   1.835   5.447   3.010 -0.6612  0.8774  0.0233
75536SOL     OW38332  11.216   5.039   1.807  0.0154  0.2943 -0.1996
75536SOL    HW138333  11.135   4.989   1.800  1.1413 -1.4934 -1.3013
75536SOL    HW238334  11.191   5.128   1.783 -2.0802  0.3775  1.9287
75537SOL     OW38335   0.698   8.659  12.115  0.8080  0.8851 -0.0190
75537SOL    HW138336   0.610   8.624  12.135  1.0925  0.7106  1.0073
75537SOL    HW238337   0.687   8.754  12.119  0.7101  0.8610  0.3135
75538SOL     OW38338   1.734   9.638   0.896  0.0916 -0.1255 -0.0870
75538SOL    HW138339   1.691   9.708   0.945 -1.8229 -0.8244 -0.7045
75538SOL    HW238340   1.812   9.681   0.859 -1.0137  1.7228 -0.4437
75539SOL     OW38341   3.090   8.843  11.968 -0.2737 -0.3165 -0.0030
75539SOL    HW138342   3.069   8.936  11.973 -1.9371 -0.6971  0.8518
75539SOL    HW238343   3.171   8.834  12.018  0.6740  0.8333 -1.2351
75540SOL     OW38344   4.953  13.100   2.083  0.3198 -0.2399  0.0824
75540SOL    HW138345   4.928  13.013   2.112  1.1703 -0.7918 -0.7579
75540SOL    HW238346   4.871  13.145   2.067 -0.1653 -0.2978  2.1458
75541SOL     OW38347   9.566   3.776   1.734 -0.2643 -0.4040  0.0444
75541SOL    HW138348   9.626   3.848   1.714  1.0611 -1.4855 -0.0028
75541SOL    HW238349   9.497   3.784   1.668  1.3777 -0.8706 -1.8508
75542SOL     OW38350   5.658   7.936  13.714  0.3541 -0.4708  0.2664
75542SOL    HW138351   5.607   7.859  13.689  1.1200 -0.9944  0.2782
75542SOL    HW238352   5.628   7.956  13.803 -0.3258 -0.3413  0.0141
75543SOL     OW38353   2.062  11.038   2.151  0.4924  0.3123 -0.1299
75543SOL    HW138354   2.029  10.949   2.161  0.6597  0.1487 -0.9943
75543SOL    HW238355   2.123  11.049   2.223 -0.5924  0.2347  0.8383
75544SOL     OW38356   0.144   6.407   6.537  0.0758 -0.3978  0.0128
75544SOL    HW138357   0.094   6.487   6.523 -1.9605 -1.5855  0.0155
75544SOL    HW238358   0.148   6.366   6.450  0.2755 -0.7569  0.1890
75545SOL     OW38359   9.320   5.590   2.351  0.4654  0.3621 -0.3122
75545SOL    HW138360   9.399   5.535   2.345  0.7923  0.8958 -1.1077
75545SOL    HW238361   9.248   5.528   2.359  0.6027 -0.3247 -3.3119
75546SOL     OW38362   2.897   1.350   7.229  0.1281 -0.2744 -0.3815
75546SOL    HW138363   2.932   1.324   7.144  0.8788  2.7610 -1.1301
75546SOL    HW238364   2.973   1.349   7.288  0.6122  1.7364 -0.8714
75547SOL     OW38365   1.511  10.937   8.118  0.5142  0.7283  0.6590
75547SOL    HW138366   1.520  10.850   8.158  0.4232  0.2460 -0.3252
75547SOL    HW238367   1.593  10.982   8.141  1.0392 -0.0090  0.2882
75548SOL     OW38368   2.477   5.233  12.502  0.5807 -0.3651 -0.1686
75548SOL    HW138369   2.381   5.236  12.508  0.5931  1.1801 -0.4008
75548SOL    HW238370   2.508   5.278  12.580  1.0738  0.6330 -0.9183
75549SOL     OW38371   6.752   2.773   0.391  0.0738  0.3942 -0.3916
75549SOL    HW138372   6.838   2.731   0.392 -0.4931 -0.8423  0.6109
75549SOL    HW238373   6.699   2.716   0.335 -0.3999  0.4599 -0.0163
75550SOL     OW38374   5.553   8.067   9.494 -0.1037 -0.1497  0.6615
75550SOL    HW138375   5.561   8.007   9.420 -2.1253  1.5991 -1.0815
75550SOL    HW238376   5.643   8.076   9.527  0.9129 -0.8202 -1.6992
75551SOL     OW38377   7.933  11.284   9.027 -0.1832 -0.3108  0.3917
75551SOL    HW138378   7.881  11.364   9.022  0.6892  0.4261  2.1496
75551SOL    HW238379   8.021  11.314   9.051  0.6115 -1.6722 -0.6720
75552SOL     OW38380   1.892   6.940   3.795  0.0103 -0.0613 -0.0241
75552SOL    HW138381   1.886   7.014   3.855  0.6948  0.4756 -0.5928
75552SOL    HW238382   1.986   6.931   3.777 -0.1103 -0.7574 -0.3462
75553SOL     OW38383  10.023   7.579   8.679 -0.0897  0.4146  0.3196
75553SOL    HW138384  10.059   7.588   8.591 -0.6886  1.6064  0.1743
75553SOL    HW238385   9.940   7.627   8.676  0.0557  0.7821  1.6245
75554SOL     OW38386   9.105   4.937   2.014  0.1706  0.3879 -0.8065
75554SOL    HW138387   9.083   5.012   1.959  0.3376 -0.0217 -1.4440
75554SOL    HW238388   9.074   4.861   1.964 -0.7731  0.0791  0.2112
75555SOL     OW38389   3.519   5.716   5.875  0.0992 -0.5969 -0.2843
75555SOL    HW138390   3.550   5.732   5.786 -0.1059  1.0756 -0.0780
75555SOL    HW238391   3.599   5.703   5.927  0.2543 -0.6864 -0.5460
75556SOL     OW38392   3.210  10.660  12.938  0.0610  0.1392  0.3628
75556SOL    HW138393   3.128  10.635  12.896  0.6942  0.1187 -0.9057
75556SOL    HW238394   3.190  10.742  12.984 -0.2477  1.1346 -1.4599
75557SOL     OW38395  13.195   9.963   1.718 -0.2444  0.0657 -0.5086
75557SOL    HW138396  13.104   9.958   1.745  0.4634  0.4101  2.1936
75557SOL    HW238397  13.238  10.013   1.787  2.1234 -0.5826 -1.4159
75558SOL     OW38398   2.468   7.950  12.632 -0.1245  0.5535  0.1092
75558SOL    HW138399   2.487   7.974  12.541 -0.9671 -0.1851 -0.2722
75558SOL    HW238400   2.420   8.024  12.667  2.0609  1.8056  0.6383
75559SOL     OW38401   2.212   1.048   7.830  0.0281 -0.0042 -1.0720
75559SOL    HW138402   2.135   1.063   7.884  0.3144 -1.4347 -0.2046
75559SOL    HW238403   2.283   1.096   7.874  0.0322 -0.2804 -0.7747
75560SOL     OW38404   3.593  12.797  12.436 -0.3770  0.0338 -0.0204
75560SOL    HW138405   3.516  12.798  12.493  0.6440 -0.7062  1.4407
75560SOL    HW238406   3.614  12.889  12.421 -1.2189  0.2307  0.0172
75561SOL     OW38407   4.980  10.971   9.216 -0.1381  0.1003  0.3956
75561SOL    HW138408   4.981  11.058   9.256  0.0866  0.4264 -0.2998
75561SOL    HW238409   4.961  10.987   9.123 -0.5478 -0.6302  0.3470
75562SOL     OW38410  11.728   4.868   2.974  0.0790 -0.0462 -0.0912
75562SOL    HW138411  11.651   4.923   2.989 -0.6873 -0.8646 -0.8929
75562SOL    HW238412  11.716   4.833   2.885  0.5445 -1.4811  0.3786
75563SOL     OW38413   0.287   3.461   5.452 -0.2080 -0.4056 -0.5183
75563SOL    HW138414   0.199   3.485   5.483 -0.0758 -0.9537  0.3225
75563SOL    HW238415   0.333   3.434   5.531  0.6681 -0.2998 -0.9841
75564SOL     OW38416  13.623   0.479  11.785  0.7837  0.4844 -0.1200
75564SOL    HW138417  13.628   0.521  11.871  0.5807  1.1519 -0.4225
75564SOL    HW238418  13.714   0.476  11.754  0.7142  1.5299 -0.4700
75565SOL     OW38419   1.810   1.916   2.316  0.0755  0.9810 -0.1132
75565SOL    HW138420   1.727   1.880   2.349  0.1485  1.6060  0.7810
75565SOL    HW238421   1.787   1.959   2.234 -0.4049  0.8048 -0.0743
75566SOL     OW38422  13.080   0.255  11.676 -0.0730  0.3992  0.1720
75566SOL    HW138423  13.008   0.309  11.710  0.0577  0.4823  0.3178
75566SOL    HW238424  13.137   0.317  11.631  0.9558  0.6623  1.7683
75567SOL     OW38425  10.296   7.050   7.318 -0.1199 -0.0373 -0.2267
75567SOL    HW138426  10.319   6.959   7.338 -1.2519 -0.5691 -1.1923
75567SOL    HW238427  10.259   7.084   7.399  1.3217 -0.0651  0.4738
75568SOL     OW38428   9.965   8.900   5.061 -0.3673 -0.4751 -0.1639
75568SOL    HW138429   9.976   8.949   5.142  0.1331  0.1590 -0.6028
75568SOL    HW238430   9.891   8.942   5.017  1.2761  1.2190 -1.4570
75569SOL     OW38431   5.162   9.902   4.524  0.3023  0.3266  0.2595
75569SOL    HW138432   5.121   9.856   4.451 -1.0154 -1.1112  1.8099
75569SOL    HW238433   5.183   9.989   4.489 -0.7912 -0.1056 -1.6394
75570SOL     OW38434  13.212   5.251   3.761 -0.4259  0.5173 -0.3434
75570SOL    HW138435  13.121   5.254   3.791  0.4363 -1.0652  2.7646
75570SOL    HW238436  13.252   5.329   3.799  0.1853 -0.3848  0.9204
75571SOL     OW38437   8.136  10.887  10.034  0.4064  0.6356 -0.4670
75571SOL    HW138438   8.162  10.861   9.946 -2.5280  2.2153 -1.9557
75571SOL    HW238439   8.081  10.815  10.065  1.8605 -0.1618  0.3654
75572SOL     OW38440   0.260   3.325   8.385  0.0610  0.2730  0.6572
75572SOL    HW138441   0.346   3.290   8.364 -0.4584 -0.6485 -0.0084
75572SOL    HW238442   0.200   3.276   8.329 -0.6777  2.4303 -0.5393
75573SOL     OW38443  11.953   5.269  10.769 -0.6502  0.3158 -0.1017
75573SOL    HW138444  11.991   5.207  10.708 -0.9383  0.4001 -0.3693
75573SOL    HW238445  12.021   5.335  10.782 -0.8664  0.7278 -0.9535
75574SOL     OW38446  10.923  10.122  11.610 -0.9102 -0.0354 -0.4521
75574SOL    HW138447  10.945  10.079  11.528  1.1569 -1.1577  0.6230
75574SOL    HW238448  10.948  10.214  11.597  0.5623 -0.4578 -0.6927
75575SOL     OW38449   9.056   0.234  11.507 -0.4905  0.1326 -0.6208
75575SOL    HW138450   9.128   0.272  11.456 -0.4145  0.7334 -0.0766
75575SOL    HW238451   9.080   0.249  11.598 -1.4392  0.5966 -0.4337
75576SOL     OW38452  13.626  10.412  10.286  0.3964  0.9196 -0.2024
75576SOL    HW138453  13.610  10.400  10.193 -1.8714  1.1242  0.1052
75576SOL    HW238454  13.637  10.323  10.321  1.1081  0.8367 -0.6219
75577SOL     OW38455   8.446   4.473  12.251  0.3330  0.4618 -0.1778
75577SOL    HW138456   8.457   4.388  12.208  1.1454  0.4562  0.0232
75577SOL    HW238457   8.354   4.495  12.238 -0.8272 -2.0363  2.6868
75578SOL     OW38458  10.536  13.192  12.236  0.3822 -0.2981 -0.4004
75578SOL    HW138459  10.446  13.163  12.226  0.4304 -0.1393 -1.3488
75578SOL    HW238460  10.572  13.135  12.304 -0.6374  0.1230  0.5355
75579SOL     OW38461   9.903   5.506  11.654 -0.6096 -0.2220 -0.4001
75579SOL    HW138462   9.944   5.435  11.605  0.5577  0.3574 -0.2987
75579SOL    HW238463   9.973   5.541  11.709 -1.2103  0.8628 -0.2872
75580SOL     OW38464  10.585  11.710   9.196  0.5890 -0.0175 -0.0548
75580SOL    HW138465  10.518  11.652   9.232 -3.2787  2.2317 -2.8809
75580SOL    HW238466  10.592  11.781   9.260 -0.9348  0.4453 -0.3523
75581SOL     OW38467   1.873  11.815   6.458 -0.0620 -0.1991  0.4594
75581SOL    HW138468   1.920  11.888   6.418 -0.1353 -0.3423  0.1072
75581SOL    HW238469   1.862  11.841   6.550 -3.2574  1.9283 -0.3532
75582SOL     OW38470   9.551  11.708  11.662 -0.1806 -0.7389 -0.0286
75582SOL    HW138471   9.611  11.711  11.737  0.7463 -0.9854 -0.7414
75582SOL    HW238472   9.479  11.653  11.691  0.1948 -0.8858  0.6599
75583SOL     OW38473   4.586   0.941   7.255 -0.0510 -1.1550  0.5473
75583SOL    HW138474   4.563   0.871   7.315  0.7444 -0.3377  1.8698
75583SOL    HW238475   4.678   0.962   7.275 -0.0135 -0.2917 -0.3770
75584SOL     OW38476   2.960   1.639   8.687  0.0161  0.0450  0.0594
75584SOL    HW138477   3.005   1.711   8.642 -1.7961 -0.9037 -3.7392
75584SOL    HW238478   3.012   1.561   8.666 -0.6987 -0.3924 -0.1185
75585SOL     OW38479   6.781   1.394   0.635 -0.0188 -0.3436  0.0150
75585SOL    HW138480   6.718   1.394   0.707 -0.2159 -0.9128 -0.1603
75585SOL    HW238481   6.735   1.436   0.562  0.5283  1.2101  0.5085
75586SOL     OW38482   1.053   7.889  11.961  0.4173 -0.4888  0.1653
75586SOL    HW138483   1.105   7.834  11.903 -1.0868 -0.3991 -1.3643
75586SOL    HW238484   1.116   7.925  12.023  1.8125 -1.9905 -0.3048
75587SOL     OW38485   5.955   7.007   8.053 -0.6996  0.0477 -0.0346
75587SOL    HW138486   5.965   6.953   8.132  1.4510 -0.8526 -0.8715
75587SOL    HW238487   5.901   7.081   8.082  0.2544 -0.1071  2.3696
75588SOL     OW38488  10.016  12.546  12.017 -0.1929 -0.2967  0.6752
75588SOL    HW138489  10.107  12.571  12.029 -0.4982 -0.1971  3.2229
75588SOL    HW238490   9.971  12.580  12.094 -2.0195 -2.0943  0.4871
75589SOL     OW38491   4.091   5.705   7.818 -0.0720  0.3063  0.0249
75589SOL    HW138492   4.154   5.645   7.858  0.5139 -0.2110 -1.5972
75589SOL    HW238493   4.059   5.658   7.741 -1.6691  0.9906  0.2329
75590SOL     OW38494   3.112   8.504   2.766 -0.3253  1.0373 -0.0852
75590SOL    HW138495   3.194   8.546   2.793 -0.3635  1.8498 -1.1670
75590SOL    HW238496   3.043   8.561   2.799 -0.4460  0.6815  0.2892
75591SOL     OW38497   7.502   2.393   3.872 -0.0540  0.0713 -0.0583
75591SOL    HW138498   7.565   2.351   3.929  0.4445  1.0195  0.1127
75591SOL    HW238499   7.416   2.367   3.906  0.2280  0.9775  1.4076
75592SOL     OW38500   8.926  12.501   6.918  0.0454  0.5266  0.1382
75592SOL    HW138501   8.916  12.449   6.838  0.4511  0.4750  0.1163
75592SOL    HW238502   8.839  12.535   6.936  0.1476  1.3651 -0.8956
75593SOL     OW38503   8.763   9.737   3.797  0.3133  0.5015  0.1401
75593SOL    HW138504   8.782   9.683   3.721  2.7254  0.6319  0.5783
75593SOL    HW238505   8.757   9.826   3.763 -0.2147  0.3806 -0.0965
75594SOL     OW38506   6.517  11.439  10.266  0.1176 -0.1692  0.4218
75594SOL    HW138507   6.610  11.428  10.244 -0.1564 -1.0636 -0.3761
75594SOL    HW238508   6.517  11.501  10.339  1.2230  1.2777 -0.7488
75595SOL     OW38509   9.810  10.478  10.994  0.0643  0.4074 -0.5289
75595SOL    HW138510   9.794  10.400  11.046 -0.5188  1.2350  0.5554
75595SOL    HW238511   9.800  10.551  11.055 -0.3252  1.3880 -1.7211
75596SOL     OW38512   0.840  11.160   6.813  0.3263  0.0186  0.3162
75596SOL    HW138513   0.833  11.068   6.839 -0.8293  0.1449  0.5288
75596SOL    HW238514   0.798  11.208   6.885 -1.3690  0.5068 -0.9271
75597SOL     OW38515   1.506   5.576   8.822  0.6212 -0.3302  0.2474
75597SOL    HW138516   1.422   5.550   8.861  1.6861 -2.0457  1.5301
75597SOL    HW238517   1.568   5.510   8.852  2.3386  0.5637 -1.1581
75598SOL     OW38518   7.891   5.490   8.497  0.1162  0.2885  0.5542
75598SOL    HW138519   7.862   5.548   8.566 -1.4404  0.5777 -0.2995
75598SOL    HW238520   7.911   5.547   8.423 -0.5715 -0.1775 -0.0070
75599SOL     OW38521   4.689  11.195   8.949 -0.2626 -0.6990 -0.2329
75599SOL    HW138522   4.674  11.270   8.892  0.1481 -0.5167 -0.1048
75599SOL    HW238523   4.665  11.227   9.036 -1.6490 -1.2130 -0.4026
75600SOL     OW38524   7.604   9.958  12.359  0.0410  0.1478 -0.2088
75600SOL    HW138525   7.554   9.911  12.293 -1.3150  1.1965  0.0282
75600SOL    HW238526   7.623  10.043  12.318 -0.9181  0.8596  0.7532
75601SOL     OW38527   9.931  13.490   3.782 -0.1878  0.0046  0.3305
75601SOL    HW138528   9.963  13.571   3.821 -0.8032  0.2321  0.3824
75601SOL    HW238529   9.898  13.439   3.856 -1.0395  0.2892  0.1638
75602SOL     OW38530  10.045   5.416   3.023  0.0779  0.3507 -0.1080
75602SOL    HW138531  10.009   5.347   3.078 -1.4157  1.0109 -0.2253
75602SOL    HW238532   9.976   5.481   3.016  0.3962  0.5604 -2.3242
75603SOL     OW38533   6.357   2.110   4.409  0.0815 -0.6013 -0.1133
75603SOL    HW138534   6.385   2.066   4.489 -1.0925 -0.3471  0.4454
75603SOL    HW238535   6.404   2.194   4.411  0.5628 -0.8650 -0.0379
75604SOL     OW38536   3.040   4.304   5.363 -0.1937  0.3343  0.4403
75604SOL    HW138537   3.084   4.234   5.315 -1.0150 -0.4346  0.7857
75604SOL    HW238538   3.085   4.309   5.447  0.1291  0.5157  0.2614
75605SOL     OW38539   0.762   5.222  12.817  0.5262 -0.1841  0.0934
75605SOL    HW138540   0.717   5.157  12.870  0.6760 -0.8982 -0.6184
75605SOL    HW238541   0.751   5.305  12.863 -0.1175 -0.6329  0.7487
75606SOL     OW38542   7.780   8.734  12.290  0.3263  0.2770  0.2204
75606SOL    HW138543   7.752   8.772  12.373  0.9024  0.1148  0.4894
75606SOL    HW238544   7.871   8.707  12.305  1.0804  1.9600 -1.0323
75607SOL     OW38545   5.771   3.321   5.180 -0.2490  0.2072  0.1149
75607SOL    HW138546   5.735   3.235   5.202 -1.1134  0.8521  1.3044
75607SOL    HW238547   5.751   3.331   5.086 -1.9319 -0.0670  0.4040
75608SOL     OW38548   4.415   3.122   9.425 -0.0635  0.4682  0.1590
75608SOL    HW138549   4.495   3.116   9.372 -0.9208  1.2037 -1.3033
75608SOL    HW238550   4.422   3.050   9.488  0.5205 -1.1906 -1.6816
75609SOL     OW38551   8.072   1.703  11.416  0.2500 -0.4844  0.5800
75609SOL    HW138552   8.015   1.638  11.458 -0.7108  0.3596  0.6046
75609SOL    HW238553   8.040   1.787  11.447  1.4521  0.0185  0.4917
75610SOL     OW38554   2.094   8.097   1.033 -0.2095 -0.2268  0.0826
75610SOL    HW138555   2.188   8.110   1.022 -0.4429  0.7397 -1.0544
75610SOL    HW238556   2.077   8.120   1.124  0.5720  0.1508  0.1466
75611SOL     OW38557  10.884   7.315  10.589 -0.2811  0.4688  0.1839
75611SOL    HW138558  10.868   7.402  10.553 -0.7200 -0.0087 -0.8443
75611SOL    HW238559  10.979   7.309  10.597  0.0224 -0.0189 -2.6691
75612SOL     OW38560   1.013   1.149   2.786  0.2869  0.0369  0.1835
75612SOL    HW138561   0.963   1.141   2.867 -0.8181  2.8431 -0.1015
75612SOL    HW238562   0.982   1.231   2.747  2.3772 -0.0940 -1.9657
75613SOL     OW38563   5.187  13.313   2.710 -0.1311  0.0560  0.5094
75613SOL    HW138564   5.177  13.294   2.617  0.6411  0.4409  0.3386
75613SOL    HW238565   5.226  13.233   2.746 -1.9289 -0.7305  0.8319
75614SOL     OW38566   3.241   2.958  12.067  0.2520  0.1000 -0.5610
75614SOL    HW138567   3.239   2.954  11.971 -0.0329  0.2684 -0.5648
75614SOL    HW238568   3.324   2.918  12.091  0.0614 -0.4976 -0.8554
75615SOL     OW38569  11.928   8.620   4.555  0.5008 -0.2715 -0.6619
75615SOL    HW138570  11.838   8.621   4.524  0.4005 -0.6702 -0.3851
75615SOL    HW238571  11.947   8.711   4.579  0.1243 -0.2146 -0.5818
75616SOL     OW38572   9.697   1.270   8.229 -0.5876 -0.3488 -0.0168
75616SOL    HW138573   9.620   1.285   8.174 -0.5653  4.2157  0.8076
75616SOL    HW238574   9.771   1.279   8.169 -0.6471  0.5960  0.0347
75617SOL     OW38575   7.344   5.718   6.258 -0.1659  0.0463  0.4625
75617SOL    HW138576   7.331   5.753   6.346 -0.5091 -0.8312  0.7658
75617SOL    HW238577   7.334   5.794   6.200  1.3362  0.9004  1.2463
75618SOL     OW38578   5.186   9.329  12.296  0.0730 -0.4123  0.1574
75618SOL    HW138579   5.150   9.350  12.210 -2.1999 -0.6175  0.9980
75618SOL    HW238580   5.197   9.414  12.339  1.0578 -0.3201 -0.2550
75619SOL     OW38581   0.072  10.785  13.223  0.5666  0.7334 -0.2467
75619SOL    HW138582   0.091  10.871  13.259 -2.3846  1.3608  0.0667
75619SOL    HW238583   0.046  10.802  13.132  3.1788 -0.2964 -1.3066
75620SOL     OW38584  10.058   4.125   4.821  0.0868 -0.0299 -0.5579
75620SOL    HW138585  10.046   4.195   4.885 -3.6815  0.4110 -1.5188
75620SOL    HW238586  10.049   4.044   4.872 -0.3317  0.2605 -0.1664
75621SOL     OW38587   8.204  12.049   5.656 -0.2778  0.5118 -0.2088
75621SOL    HW138588   8.178  11.993   5.729 -0.8517  0.9068 -0.1083
75621SOL    HW238589   8.163  12.133   5.674  0.8726  1.0836 -0.1766
75622SOL     OW38590  12.328  12.728   0.533 -0.2937  0.2502  0.3519
75622SOL    HW138591  12.344  12.806   0.586  1.8136 -1.0008  1.7057
75622SOL    HW238592  12.369  12.657   0.582 -1.0201 -1.5174 -1.4620
75623SOL     OW38593   8.364   8.306   3.090 -0.1689  0.1332  0.4985
75623SOL    HW138594   8.379   8.232   3.032 -0.6435  1.3537 -1.2508
75623SOL    HW238595   8.269   8.310   3.100 -0.1244  0.3044  0.8931
75624SOL     OW38596   3.138  12.975  11.906  0.6269  0.1711  0.0463
75624SOL    HW138597   3.105  13.053  11.861  0.1721  0.1145  0.2742
75624SOL    HW238598   3.175  12.921  11.837  0.7582  0.4953 -0.1404
75625SOL     OW38599   9.518   7.391   5.748  0.1176 -0.0322  0.6306
75625SOL    HW138600   9.496   7.299   5.732 -1.3542  0.6872 -2.2066
75625SOL    HW238601   9.452   7.420   5.810  0.7761 -0.9305  1.7867
75626SOL     OW38602   0.211   9.676  10.975  0.6498 -0.1335  0.5268
75626SOL    HW138603   0.286   9.645  10.924 -1.4956 -2.8984 -1.2760
75626SOL    HW238604   0.186   9.759  10.935  1.8342  0.0948  0.2263
75627SOL     OW38605   1.403  12.854   8.673  0.1038 -0.1794 -0.4700
75627SOL    HW138606   1.391  12.900   8.590 -1.0867  0.5980  0.1071
75627SOL    HW238607   1.316  12.819   8.694  0.4036 -0.4138  0.4230
75628SOL     OW38608  10.853  10.830  13.588 -0.3930  0.1482  0.1349
75628SOL    HW138609  10.765  10.835  13.627 -1.1737 -3.7100 -0.7187
75628SOL    HW238610  10.839  10.854  13.496 -0.4032  0.2722  0.1687
75629SOL     OW38611   8.029   4.272   1.332  0.2926  0.3673  0.0953
75629SOL    HW138612   7.982   4.286   1.250 -2.4067  0.9998  1.6278
75629SOL    HW238613   8.041   4.177   1.337  0.2659  0.3021 -0.9032
75630SOL     OW38614   2.074   8.761   5.101  0.3010  0.1312  0.0244
75630SOL    HW138615   2.160   8.743   5.141  1.4597  0.0262 -2.3568
75630SOL    HW238616   2.020   8.687   5.128  1.3602 -0.5243  0.4427
75631SOL     OW38617   8.797   5.766   5.747 -0.0169  0.5640 -0.0271
75631SOL    HW138618   8.724   5.717   5.785 -1.1199  1.0876 -1.4016
75631SOL    HW238619   8.759   5.847   5.715  1.1970  0.9450 -0.5957
75632SOL     OW38620   0.905   1.605   5.797 -0.4715 -0.0356  0.0149
75632SOL    HW138621   0.890   1.617   5.890 -1.0559 -1.6316  0.1548
75632SOL    HW238622   0.954   1.683   5.770 -1.4550  1.0900  1.3622
75633SOL     OW38623   2.480   2.707   4.986  0.0719 -0.1358 -0.5678
75633SOL    HW138624   2.402   2.762   4.994  0.2278  0.1462 -0.9864
75633SOL    HW238625   2.530   2.746   4.914  0.4400 -0.5097 -0.5170
75634SOL     OW38626   6.307   0.438  11.354 -0.0945  0.3023  0.5744
75634SOL    HW138627   6.350   0.355  11.374 -0.4295  0.1404  0.6298
75634SOL    HW238628   6.253   0.419  11.278  1.0871  0.8858 -0.4519
75635SOL     OW38629   3.483  11.531   0.888 -0.1315  0.0322  0.2681
75635SOL    HW138630   3.465  11.567   0.802 -0.2096 -0.0647  0.2442
75635SOL    HW238631   3.507  11.439   0.872 -0.2475 -0.0136  0.3589
75636SOL     OW38632   0.024  12.673  10.576 -0.3748  0.1886  0.4246
75636SOL    HW138633   0.039  12.692  10.668 -0.2545  1.3306  0.1765
75636SOL    HW238634   0.043  12.579  10.568  0.7743  0.3237  1.3156
75637SOL     OW38635   6.734   8.903  11.288  0.2148 -0.3364 -0.1968
75637SOL    HW138636   6.803   8.874  11.348  0.7897  0.7825 -0.2886
75637SOL    HW238637   6.777   8.906  11.202 -0.6877 -2.2441 -0.7576
75638SOL     OW38638   0.241   4.189   4.134  0.0039  0.0272  0.2155
75638SOL    HW138639   0.170   4.249   4.109 -0.3986 -0.5205  0.0309
75638SOL    HW238640   0.252   4.132   4.059  1.2575  0.6626 -0.1064
75639SOL     OW38641   2.342   5.450  12.970 -0.1467  0.2442 -0.5181
75639SOL    HW138642   2.263   5.415  12.929  0.0760  0.0845 -0.8149
75639SOL    HW238643   2.412   5.391  12.942 -0.1842 -0.6385  1.1420
75640SOL     OW38644   3.234   8.432   8.530 -0.1104 -0.0686 -0.5962
75640SOL    HW138645   3.143   8.432   8.500 -1.6838  0.6927  3.4566
75640SOL    HW238646   3.273   8.511   8.493 -1.3251  0.0126 -1.7609
75641SOL     OW38647   4.759  11.842   4.882 -0.0049 -0.0416 -0.2722
75641SOL    HW138648   4.813  11.913   4.846 -0.3923  0.3617 -0.0675
75641SOL    HW238649   4.688  11.887   4.929 -0.1877 -0.5638 -0.0383
75642SOL     OW38650   6.353   3.784  10.025  0.4149 -0.8717 -0.1230
75642SOL    HW138651   6.343   3.740  10.109 -0.9381 -0.2270  0.0834
75642SOL    HW238652   6.337   3.876  10.044  0.4537 -0.6719 -1.0191
75643SOL     OW38653   4.086   8.193   8.454  0.5229  0.5786  0.5089
75643SOL    HW138654   4.010   8.185   8.398  1.4495 -1.8899 -0.5558
75643SOL    HW238655   4.051   8.215   8.540 -1.3867 -0.3818  0.0216
75644SOL     OW38656   2.363   2.333   6.621  0.1194 -0.0844 -0.2487
75644SOL    HW138657   2.399   2.268   6.560  0.8184 -1.3846  1.4672
75644SOL    HW238658   2.313   2.281   6.684  0.8987  0.9906  1.3131
75645SOL     OW38659   4.261   7.003   6.151 -0.1451  0.1921  0.3981
75645SOL    HW138660   4.199   6.954   6.097 -0.8923  2.4405 -0.9293
75645SOL    HW238661   4.277   6.947   6.227 -0.9871 -2.0157 -0.9565
75646SOL     OW38662  10.981   3.403   5.239  0.2441  0.0146 -0.3694
75646SOL    HW138663  11.034   3.427   5.315  0.7363 -0.5481 -0.5358
75646SOL    HW238664  10.960   3.311   5.251  1.3154 -0.3988 -1.5001
75647SOL     OW38665   7.877   4.217  10.724 -0.8759  0.7219 -0.0404
75647SOL    HW138666   7.944   4.181  10.781  0.8517 -1.3227 -3.1021
75647SOL    HW238667   7.918   4.294  10.684 -0.5860 -0.0291 -1.2607
75648SOL     OW38668  13.533   0.097   7.503 -0.5379 -0.0306  0.3399
75648SOL    HW138669  13.517   0.021   7.447  1.0493 -0.3274  0.2398
75648SOL    HW238670  13.471   0.089   7.574 -1.8958 -0.2117 -0.8274
75649SOL     OW38671   1.268  10.999  10.365 -0.3068  0.2511  0.3127
75649SOL    HW138672   1.340  11.015  10.427 -0.0427 -0.1262  0.1064
75649SOL    HW238673   1.307  10.946  10.296 -0.6133  0.6376 -0.1602
75650SOL     OW38674   9.783   6.967   9.368  0.3055 -0.1338  0.1158
75650SOL    HW138675   9.798   7.056   9.337  1.8525 -0.9303 -1.5411
75650SOL    HW238676   9.721   6.929   9.306  0.0927 -0.3991  0.4836
75651SOL     OW38677  12.063   9.426  10.170  0.6735  0.0464 -0.0284
75651SOL    HW138678  12.091   9.337  10.148  0.8062  0.0753  0.0242
75651SOL    HW238679  11.970   9.427  10.150  0.4838 -0.3681  0.8039
75652SOL     OW38680  10.211   5.548  13.316  0.0964 -0.1898 -1.0124
75652SOL    HW138681  10.240   5.457  13.305  2.3123  0.5151 -1.7332
75652SOL    HW238682  10.273   5.585  13.379 -1.6430  0.4981  0.3710
75653SOL     OW38683  11.056  12.594   9.849  0.0004  0.1123  0.3487
75653SOL    HW138684  11.021  12.659   9.789  3.5185  0.7405 -1.2634
75653SOL    HW238685  11.106  12.534   9.794  1.2400 -0.8212  2.3531
75654SOL     OW38686   9.550  10.462   7.354  0.1621 -0.1216 -0.1786
75654SOL    HW138687   9.480  10.473   7.418  0.5981  0.5051  0.1960
75654SOL    HW238688   9.565  10.550   7.320  2.2929  0.1684  1.3651
75655SOL     OW38689   2.838   0.981   3.634 -0.6074 -0.2566  0.3614
75655SOL    HW138690   2.915   1.030   3.605 -0.0918 -0.4324  1.3782
75655SOL    HW238691   2.766   1.014   3.581  0.0340  0.4595 -0.0728
75656SOL     OW38692   8.713   4.212  10.932  0.1409 -0.2763  0.2336
75656SOL    HW138693   8.776   4.282  10.915 -1.3044  1.2664  1.0397
75656SOL    HW238694   8.742   4.141  10.875  0.9763  1.3582 -1.5020
75657SOL     OW38695   8.837   8.089   9.575 -0.5283  0.1256  0.3086
75657SOL    HW138696   8.903   8.067   9.640  2.4388  2.8213 -1.4932
75657SOL    HW238697   8.813   8.180   9.594  0.6047  1.0907 -2.2473
75658SOL     OW38698   8.053   1.912   6.283  0.1442 -0.5130 -0.3233
75658SOL    HW138699   8.020   1.857   6.354  0.3261  0.1236  0.2730
75658SOL    HW238700   8.093   1.851   6.221 -1.1818 -1.1955 -0.5346
75659SOL     OW38701   4.774   6.254   2.199 -0.2790  0.1859 -0.1427
75659SOL    HW138702   4.793   6.244   2.292  0.2906  1.3068 -0.1238
75659SOL    HW238703   4.860   6.262   2.158 -0.5512  0.5834 -0.6506
75660SOL     OW38704   2.688  12.407  10.582  0.0897 -0.1281 -0.1835
75660SOL    HW138705   2.613  12.348  10.579  0.8434 -1.0938 -0.3685
75660SOL    HW238706   2.739  12.386  10.504  1.6802 -1.0353  1.0354
75661SOL     OW38707   5.767   3.043   0.809  0.1095 -0.4621 -0.1767
75661SOL    HW138708   5.765   3.137   0.824 -0.5699 -0.1595 -1.8994
75661SOL    HW238709   5.746   3.004   0.894  3.0874  0.8011  1.2788
75662SOL     OW38710   9.184  11.999   5.046  0.3232 -0.3241  0.0493
75662SOL    HW138711   9.249  11.960   5.104 -0.9317  0.8354  2.3633
75662SOL    HW238712   9.209  12.091   5.041  1.4457 -0.6782 -2.8388
75663SOL     OW38713   2.175  13.531  13.706  0.1548  0.3098 -0.2175
75663SOL    HW138714   2.229  13.460  13.671 -2.8898 -1.5406 -1.6690
75663SOL    HW238715   2.148  13.500  13.793 -0.2850  0.1919 -0.3933
75664SOL     OW38716  12.887   7.989   3.400 -0.0076  0.0647 -0.0231
75664SOL    HW138717  12.886   7.916   3.461 -0.0623 -0.3055 -0.4648
75664SOL    HW238718  12.980   7.999   3.377  0.0146  0.2126  0.1277
75665SOL     OW38719  13.328  13.685  12.700 -0.1720  0.4523 -0.3626
75665SOL    HW138720  13.291  13.637  12.627 -1.4075  0.8140 -0.0040
75665SOL    HW238721  13.293  13.642  12.778  1.5180 -0.2428  0.0543
75666SOL     OW38722   7.340   5.570  12.780  0.1264  0.0645  0.0673
75666SOL    HW138723   7.373   5.495  12.829  0.7868 -2.1344 -3.4377
75666SOL    HW238724   7.257   5.540  12.742  0.2347  1.2411 -1.1653
75667SOL     OW38725   5.034   2.266  13.592  0.0083  0.3885  0.5178
75667SOL    HW138726   5.097   2.305  13.531  0.2286  0.4249  0.7694
75667SOL    HW238727   5.075   2.184  13.620 -0.9187 -0.5908 -0.8418
75668SOL     OW38728  10.079  11.936   4.100  0.4008  0.1828 -0.4115
75668SOL    HW138729  10.011  11.868   4.099 -0.7987  1.3389 -0.5765
75668SOL    HW238730  10.128  11.919   4.181 -0.8550  0.0303  0.3474
75669SOL     OW38731  10.792   8.504   5.512  0.5250  0.4836  0.3182
75669SOL    HW138732  10.828   8.483   5.426  0.0416 -1.1107  0.4783
75669SOL    HW238733  10.714   8.557   5.494  0.6364  0.4682 -0.2084
75670SOL     OW38734   5.247   3.435  10.080 -0.2105  0.3932 -0.0124
75670SOL    HW138735   5.320   3.490  10.053 -0.7038  0.8204 -0.5211
75670SOL    HW238736   5.178   3.497  10.102 -0.3833 -0.0015  0.5616
75671SOL     OW38737  10.222   6.512   9.713  0.3102 -0.3054  0.3244
75671SOL    HW138738  10.203   6.528   9.620  2.3770  2.3940  0.2299
75671SOL    HW238739  10.185   6.589   9.757  0.2065 -1.0882  1.6330
75672SOL     OW38740   0.634   5.494  10.370  0.0614 -0.4669 -0.1806
75672SOL    HW138741   0.655   5.456  10.285  1.8685 -0.5339  0.2531
75672SOL    HW238742   0.705   5.556  10.387  0.8023 -1.8139  2.0917
75673SOL     OW38743   5.179   3.022  10.499  0.0808 -0.5106  0.6797
75673SOL    HW138744   5.092   3.061  10.495  1.7647  3.8651  0.9003
75673SOL    HW238745   5.187   2.973  10.417 -2.4005 -0.7305  0.4950
75674SOL     OW38746   0.495   2.940   5.800  0.4030 -0.2645  0.0693
75674SOL    HW138747   0.480   3.031   5.827  0.1848 -0.1330 -0.4747
75674SOL    HW238748   0.425   2.922   5.738  1.8520  0.0306 -1.7577
75675SOL     OW38749  10.743   7.117   2.623  0.3514  0.0368  0.6264
75675SOL    HW138750  10.710   7.174   2.692  0.6620  1.6822 -0.5249
75675SOL    HW238751  10.815   7.165   2.584  1.6197 -1.8167  0.5520
75676SOL     OW38752  11.686   2.326   1.488  0.1660 -0.9007  0.3827
75676SOL    HW138753  11.749   2.254   1.483  0.8417 -0.3946  1.4927
75676SOL    HW238754  11.601   2.282   1.486  0.5627 -1.8839  2.6157
75677SOL     OW38755  11.237   5.857   3.648  0.0259  0.1575  0.5265
75677SOL    HW138756  11.318   5.897   3.616 -0.0137 -0.3614 -0.2259
75677SOL    HW238757  11.230   5.774   3.601 -1.3725  0.5634 -0.0461
75678SOL     OW38758  10.660   9.335  10.323 -0.5102 -0.6897  0.5189
75678SOL    HW138759  10.581   9.291  10.291 -1.0210 -0.0604  0.8835
75678SOL    HW238760  10.660   9.320  10.417 -1.5116  1.2824  0.9015
75679SOL     OW38761  10.233   3.239   3.599 -0.3897  0.7653  0.4647
75679SOL    HW138762  10.256   3.243   3.692  1.5341  1.9920 -0.0031
75679SOL    HW238763  10.313   3.210   3.556 -0.6868  2.0167 -0.9883
75680SOL     OW38764   7.966   9.063  11.832  0.1284 -0.3950 -0.0874
75680SOL    HW138765   8.010   8.986  11.868  0.7978 -0.0351 -0.1175
75680SOL    HW238766   7.876   9.035  11.818  0.7539 -1.7427 -1.7691
75681SOL     OW38767   5.910   9.179   0.988  0.4222  1.1785 -0.7736
75681SOL    HW138768   5.817   9.202   0.976  0.3004  0.3778 -1.4535
75681SOL    HW238769   5.942   9.167   0.899  0.6324 -0.6734 -0.4714
75682SOL     OW38770   3.127  10.741   5.955  0.2474 -0.4109  0.1901
75682SOL    HW138771   3.106  10.831   5.930 -2.3533 -0.6896  1.0880
75682SOL    HW238772   3.223  10.738   5.958  0.5453  1.3807 -3.1549
75683SOL     OW38773  11.646   1.116   6.858  0.8718 -0.0297  0.0715
75683SOL    HW138774  11.670   1.039   6.909  1.9901 -0.5589 -1.1978
75683SOL    HW238775  11.727   1.145   6.817  0.0933  0.6365 -1.0585
75684SOL     OW38776   1.689   6.783   5.191 -0.4197 -0.0649 -0.9912
75684SOL    HW138777   1.772   6.770   5.238  0.0320  1.3058 -1.3617
75684SOL    HW238778   1.698   6.729   5.112  0.0942  0.0038 -0.9863
75685SOL     OW38779   2.833   9.075   6.807  0.3601 -0.0046 -0.4503
75685SOL    HW138780   2.926   9.077   6.830  0.9177  0.0772 -2.5291
75685SOL    HW238781   2.810   8.982   6.811  0.6200 -0.0611 -0.2372
75686SOL     OW38782   7.191   0.986  10.327  0.0626  0.5616 -0.2263
75686SOL    HW138783   7.281   0.979  10.295  0.1053 -0.0351  0.0129
75686SOL    HW238784   7.149   1.047  10.267  0.5490  0.6124 -0.5192
75687SOL     OW38785   5.100   6.894   0.388  0.6371  0.5013 -0.5174
75687SOL    HW138786   5.018   6.880   0.340  0.9605 -2.6509 -0.3861
75687SOL    HW238787   5.086   6.975   0.435 -1.2261  1.6590 -2.8145
75688SOL     OW38788  10.028   6.088  11.804 -0.2590  0.3158 -1.2615
75688SOL    HW138789  10.033   6.184  11.812 -0.1872  0.2232 -0.0126
75688SOL    HW238790   9.935   6.071  11.788 -0.5047  0.5271 -0.1503
75689SOL     OW38791   4.063  11.301  10.138 -0.3834 -0.1795  0.2246
75689SOL    HW138792   4.158  11.310  10.141 -0.4995  1.3786 -0.1072
75689SOL    HW238793   4.037  11.347  10.058 -1.3299 -1.5620 -0.3076
75690SOL     OW38794   2.330   6.225   9.011  0.2447  0.0381  0.2709
75690SOL    HW138795   2.349   6.246   8.919  2.4523  0.5063  0.7750
75690SOL    HW238796   2.336   6.309   9.056 -3.6977  0.3407  0.5178
75691SOL     OW38797   5.338  13.085  10.820  0.0160 -0.4111 -0.4574
75691SOL    HW138798   5.393  13.022  10.867  0.0430 -1.1161 -1.3963
75691SOL    HW238799   5.341  13.164  10.873 -1.3607 -1.6816  1.6430
75692SOL     OW38800  13.121  12.940  12.560  0.3107  0.4282 -0.4972
75692SOL    HW138801  13.201  12.907  12.521  0.2052 -0.7417  0.2132
75692SOL    HW238802  13.098  12.875  12.627 -1.1269  0.8213 -0.5619
75693SOL     OW38803  11.908   5.476  12.093 -0.2650  0.4001  0.0065
75693SOL    HW138804  11.815   5.498  12.084 -0.2195  0.0263 -1.6331
75693SOL    HW238805  11.915   5.386  12.061  1.0775  1.3952 -2.8885
75694SOL     OW38806   9.034   2.133   6.272  0.0741 -0.3351  0.1030
75694SOL    HW138807   9.095   2.061   6.287  1.7133  1.0344  0.2986
75694SOL    HW238808   9.071   2.206   6.320 -2.2825  0.3276  1.0585
75695SOL     OW38809  12.538   4.899   1.776 -0.3694 -0.0574 -0.1080
75695SOL    HW138810  12.603   4.897   1.705 -1.4417 -0.5056 -1.1155
75695SOL    HW238811  12.478   4.828   1.756  0.4461 -1.5781  2.4486
75696SOL     OW38812  13.346  10.777   7.429  0.5138 -0.4791 -0.5052
75696SOL    HW138813  13.332  10.683   7.421  0.9298 -0.4943 -1.1272
75696SOL    HW238814  13.362  10.792   7.522  3.3433 -1.4563 -0.7431
75697SOL     OW38815   6.514   9.138   0.817 -1.1226 -0.0958 -0.4802
75697SOL    HW138816   6.531   9.209   0.755 -0.9282 -0.0509 -0.3751
75697SOL    HW238817   6.578   9.070   0.794 -0.0936  0.4909  0.5851
75698SOL     OW38818  10.482   2.756   1.760 -0.1098  0.6275 -0.3036
75698SOL    HW138819  10.489   2.715   1.847  0.7457 -0.7754 -0.9858
75698SOL    HW238820  10.550   2.823   1.760 -0.3937  0.9225  0.2530
75699SOL     OW38821  11.256   1.697   9.242  0.3168 -0.7942 -0.3339
75699SOL    HW138822  11.345   1.725   9.264  0.5450 -1.5502 -0.2661
75699SOL    HW238823  11.250   1.609   9.277 -0.9293 -0.2666  0.8556
75700SOL     OW38824  12.408   9.904   1.697 -0.2746 -0.1956  0.5023
75700SOL    HW138825  12.373   9.922   1.609 -0.1715  0.4602  0.5893
75700SOL    HW238826  12.336   9.928   1.756  0.7183  2.4869  0.7615
75701SOL     OW38827   2.556   3.358  13.460  0.5175  0.1150  0.2225
75701SOL    HW138828   2.464   3.369  13.436  1.2034  1.1537 -2.2367
75701SOL    HW238829   2.559   3.274  13.507 -1.7651  0.4367  1.0495
75702SOL     OW38830   1.247  12.444   4.759 -0.1625  0.1580  0.0526
75702SOL    HW138831   1.259  12.497   4.680 -1.4051 -0.5794 -0.6611
75702SOL    HW238832   1.314  12.376   4.753 -2.6011 -2.2877 -2.4797
75703SOL     OW38833   1.133  11.920  11.132 -0.3596  0.4982 -0.0542
75703SOL    HW138834   1.138  11.825  11.143  1.2005  0.5069 -0.4681
75703SOL    HW238835   1.156  11.956  11.218  1.3097  0.4859 -0.4572
75704SOL     OW38836  10.953   4.546   3.464  0.5662 -0.6872  0.9238
75704SOL    HW138837  11.047   4.555   3.478  0.5503 -0.2697  0.7495
75704SOL    HW238838  10.918   4.635   3.468  0.3656 -0.6813 -0.3515
75705SOL     OW38839   9.112   0.686   4.723  0.1516 -0.5264 -0.1377
75705SOL    HW138840   9.103   0.645   4.637 -0.3273  0.8259 -0.7670
75705SOL    HW238841   9.177   0.756   4.709 -1.0713  0.7257  0.1753
75706SOL     OW38842   0.257   2.953   3.101  0.3880 -0.3730  0.0626
75706SOL    HW138843   0.251   3.023   3.036 -1.4028 -2.5539 -2.3266
75706SOL    HW238844   0.338   2.971   3.148  0.2838  2.9658 -0.7547
75707SOL     OW38845  10.062   9.214   4.916  0.5057 -0.3201  0.0983
75707SOL    HW138846  10.155   9.214   4.936  0.2084 -2.6802  1.9692
75707SOL    HW238847  10.020   9.246   4.995 -0.3510 -1.7763  0.2769
75708SOL     OW38848  10.179   1.070  12.038  0.0539 -0.1139 -0.0394
75708SOL    HW138849  10.267   1.083  12.003  0.6053 -2.1749  0.4611
75708SOL    HW238850  10.121   1.097  11.966  0.9943  2.3360 -0.0006
75709SOL     OW38851   0.500   7.460   9.585 -0.5264 -0.3421  0.5853
75709SOL    HW138852   0.466   7.502   9.506 -1.7147  0.5769  1.5425
75709SOL    HW238853   0.595   7.459   9.572 -0.7284 -0.8022 -1.1107
75710SOL     OW38854   0.975   3.193  12.972  0.7704 -0.2440 -0.2455
75710SOL    HW138855   1.058   3.239  12.964  1.1117 -0.7577  0.3008
75710SOL    HW238856   0.915   3.258  13.010  0.7895  0.2671 -1.0795
75711SOL     OW38857   9.557   4.027   9.429  0.3928 -0.0316 -0.1366
75711SOL    HW138858   9.486   4.042   9.491  1.5163  0.4933  1.0833
75711SOL    HW238859   9.580   3.935   9.440  1.1885  0.2736  0.9367
75712SOL     OW38860   3.125  11.186   6.573  0.1380  0.1462  0.0428
75712SOL    HW138861   3.096  11.102   6.610  0.0993 -0.4965 -1.3828
75712SOL    HW238862   3.051  11.245   6.588  0.1703 -0.0561  1.0783
75713SOL     OW38863   7.177  12.029   1.195 -0.5554  0.3184 -0.0859
75713SOL    HW138864   7.191  12.022   1.290 -0.4803  0.0464 -0.1173
75713SOL    HW238865   7.094  11.984   1.180  0.5409 -1.6977 -0.4626
75714SOL     OW38866   2.241   2.833   3.650 -0.1913 -0.0937 -0.3635
75714SOL    HW138867   2.247   2.852   3.557 -0.1936 -0.5488 -0.4541
75714SOL    HW238868   2.263   2.740   3.658 -1.6907 -0.4432 -0.0832
75715SOL     OW38869   1.273  11.312   1.672 -0.5095 -0.2653 -0.0206
75715SOL    HW138870   1.209  11.354   1.729 -0.5581  0.6853 -0.7462
75715SOL    HW238871   1.220  11.278   1.599 -0.2984 -0.2466 -0.1840
75716SOL     OW38872  13.613   1.278   4.701  0.6875  0.2066  0.3855
75716SOL    HW138873  13.583   1.197   4.659  0.6947  0.7392 -0.6618
75716SOL    HW238874  13.612   1.257   4.795 -1.1742 -0.3885  0.2778
75717SOL     OW38875   0.239   0.691   0.092  0.1851  0.1288  0.3585
75717SOL    HW138876   0.253   0.648   0.177  1.7807 -0.5219 -0.1861
75717SOL    HW238877   0.153   0.660   0.063 -0.5217  0.5944  1.8470
75718SOL     OW38878   0.436   7.335  12.597  0.1099 -0.2519 -0.5966
75718SOL    HW138879   0.487   7.327  12.678 -0.5407  1.3004  0.0120
75718SOL    HW238880   0.496   7.377  12.535 -0.1986  1.0050 -0.0719
75719SOL     OW38881   0.348   9.648   9.255  0.0014 -0.2173 -0.4532
75719SOL    HW138882   0.334   9.735   9.219 -1.0962 -0.3939 -0.5078
75719SOL    HW238883   0.440   9.646   9.279  0.0448  0.9473 -0.4647
75720SOL     OW38884   3.325  12.636   3.315  0.0030 -0.2822 -0.6186
75720SOL    HW138885   3.280  12.637   3.230 -1.6882  1.2582  0.2367
75720SOL    HW238886   3.334  12.729   3.338  2.3489 -0.5965 -0.0537
75721SOL     OW38887   6.546   2.154   9.476  0.2621 -0.3583  0.2929
75721SOL    HW138888   6.542   2.196   9.390  0.3512 -0.1565  0.3863
75721SOL    HW238889   6.631   2.110   9.477  0.6379  0.3657  0.6112
75722SOL     OW38890  11.454   5.025  12.999  0.0802 -0.3999  0.1985
75722SOL    HW138891  11.402   5.042  13.078 -1.0563 -0.8888 -0.4122
75722SOL    HW238892  11.538   5.068  13.015  0.1710 -1.1519  1.9984
75723SOL     OW38893   5.934  10.629   7.587  0.3048 -0.0816 -0.8489
75723SOL    HW138894   6.016  10.651   7.543  0.4264 -0.9047 -1.0575
75723SOL    HW238895   5.915  10.705   7.641  1.8751 -0.3638  0.1803
75724SOL     OW38896  12.001   5.843   1.861  0.4954 -0.7279  0.4986
75724SOL    HW138897  12.018   5.764   1.912  0.2857 -0.4075  1.0750
75724SOL    HW238898  12.062   5.908   1.896  1.0833 -0.7976 -0.3770
75725SOL     OW38899   8.266   1.014   1.023 -0.0060  0.1913 -0.2656
75725SOL    HW138900   8.245   1.102   1.056  0.0047 -0.2578  0.9966
75725SOL    HW238901   8.181   0.976   1.003 -0.0537  0.2584 -0.1940
75726SOL     OW38902   6.209   6.995   1.914  0.0074 -0.2185  0.3366
75726SOL    HW138903   6.291   6.969   1.872 -0.7043 -2.1230  0.0310
75726SOL    HW238904   6.221   6.973   2.006 -0.5295 -1.5576  0.1079
75727SOL     OW38905   1.896   7.757   1.923 -0.0724 -0.6956  0.9593
75727SOL    HW138906   1.985   7.789   1.913 -0.3323  0.2243  1.3780
75727SOL    HW238907   1.898   7.707   2.005  0.4966 -2.3939 -0.0561
75728SOL     OW38908  13.133   8.005   4.519  0.7277  0.0503  0.1671
75728SOL    HW138909  13.136   8.043   4.607 -1.4145  1.3762 -0.2664
75728SOL    HW238910  13.085   7.923   4.530  2.4533 -0.9584  0.5539
75729SOL     OW38911   6.574  11.117   0.557  0.1655  0.1071 -0.3969
75729SOL    HW138912   6.614  11.113   0.643  1.2900  0.2815 -0.8957
75729SOL    HW238913   6.531  11.032   0.546 -0.8919  0.4719  0.7448
75730SOL     OW38914  11.864   1.935  11.949 -0.6639  0.3303  0.5142
75730SOL    HW138915  11.875   1.958  11.857 -2.2198  1.4038  0.5646
75730SOL    HW238916  11.952   1.911  11.978 -0.1441  0.0152 -1.2277
75731SOL     OW38917   2.953   1.177  10.590 -0.4651 -0.0089  0.6751
75731SOL    HW138918   3.046   1.187  10.609 -0.2363 -0.9400  0.0862
75731SOL    HW238919   2.930   1.255  10.538 -0.1364  0.4587  1.2207
75732SOL     OW38920   1.047  12.418   9.551 -0.4288 -0.1637 -0.4145
75732SOL    HW138921   1.092  12.372   9.480 -1.1568  1.0069 -1.6778
75732SOL    HW238922   0.954  12.397   9.537 -0.6025  0.3146  0.0009
75733SOL     OW38923  11.146   0.941   2.821 -0.0341 -0.0562  0.4203
75733SOL    HW138924  11.136   1.025   2.864 -1.0123  1.1069 -1.8943
75733SOL    HW238925  11.140   0.877   2.891 -2.1698  1.6590  1.9435
75734SOL     OW38926  10.306   3.454   6.062  0.6433  0.4597 -0.0730
75734SOL    HW138927  10.266   3.525   6.113  2.4196 -1.0961  3.8960
75734SOL    HW238928  10.393   3.487   6.041  0.7714  0.1842  0.0327
75735SOL     OW38929   4.295  13.419   5.057  0.3305  0.1227  0.0687
75735SOL    HW138930   4.272  13.333   5.091 -1.0617  0.4954  0.1527
75735SOL    HW238931   4.215  13.472   5.069  1.0944  1.3716 -0.1349
75736SOL     OW38932   2.721   6.178  12.731 -0.1964  0.3666  0.1625
75736SOL    HW138933   2.699   6.201  12.822 -1.7022 -0.9637  0.1778
75736SOL    HW238934   2.752   6.260  12.693 -0.7394  1.2476  1.5265
75737SOL     OW38935   5.588   5.744  12.321 -0.1090 -1.0623  0.0944
75737SOL    HW138936   5.638   5.823  12.341 -0.7011 -0.6264 -0.1062
75737SOL    HW238937   5.540   5.765  12.241  0.4920 -1.9867 -0.5264
75738SOL     OW38938  12.102  11.018  11.677 -0.0567  0.4914 -0.1436
75738SOL    HW138939  12.049  11.069  11.615 -0.3213 -1.6078 -1.7993
75738SOL    HW238940  12.039  10.989  11.744 -0.8909 -1.1204 -1.5344
75739SOL     OW38941   2.453   4.887  11.034  0.0119  0.0814  0.0191
75739SOL    HW138942   2.547   4.889  11.056 -0.0511  0.2659  0.2824
75739SOL    HW238943   2.447   4.825  10.961  0.4703  0.7953 -0.6388
75740SOL     OW38944   5.555   0.841   9.046  0.3738 -0.2173  0.6223
75740SOL    HW138945   5.558   0.785   8.969  1.6521  0.9673 -0.2331
75740SOL    HW238946   5.638   0.825   9.091  1.1417  1.5495 -0.0832
75741SOL     OW38947   2.528   2.153   9.900  0.2078 -0.1752  0.0180
75741SOL    HW138948   2.556   2.226   9.845  1.1406 -0.0843  0.5851
75741SOL    HW238949   2.610   2.113   9.930 -0.1450  1.3610  3.4537
75742SOL     OW38950   8.864   5.826   9.404  0.0787  0.1920 -0.0550
75742SOL    HW138951   8.848   5.841   9.311  0.7570  0.4424 -0.1376
75742SOL    HW238952   8.801   5.759   9.429 -0.4733  0.5159 -0.5661
75743SOL     OW38953   2.703  12.167   7.772 -0.5239 -0.3617 -0.0270
75743SOL    HW138954   2.637  12.227   7.737 -0.2442  0.4850  0.8275
75743SOL    HW238955   2.772  12.165   7.706  0.2872  1.6918  0.6486
75744SOL     OW38956   5.942   4.690  11.285  0.8678 -0.5730 -0.0948
75744SOL    HW138957   5.853   4.694  11.251  0.9781  2.8554 -0.2891
75744SOL    HW238958   5.931   4.671  11.378  0.1726 -3.0500 -0.6171
75745SOL     OW38959   9.328   1.111  10.067 -0.3758  0.0721  0.1090
75745SOL    HW138960   9.364   1.023  10.073 -1.5208 -0.5760 -1.6307
75745SOL    HW238961   9.255   1.111  10.129 -1.9661 -1.1233 -1.6277
75746SOL     OW38962   5.760  11.859  11.378 -0.0023  0.0495  0.3885
75746SOL    HW138963   5.724  11.778  11.342 -0.8144  0.6549 -0.2129
75746SOL    HW238964   5.683  11.910  11.403  0.4712  0.8767  0.2094
75747SOL     OW38965  11.235   7.231   4.932  0.0511 -0.0885 -0.3723
75747SOL    HW138966  11.316   7.282   4.929 -0.3327  0.6777  1.1575
75747SOL    HW238967  11.198   7.239   4.845  0.9083  0.7412 -0.6840
75748SOL     OW38968  10.150   3.388   3.388 -0.2072 -0.0294  0.4291
75748SOL    HW138969  10.212   3.366   3.318  0.4844 -1.1543  1.3585
75748SOL    HW238970  10.193   3.360   3.468 -1.0361  1.1399  1.3166
75749SOL     OW38971   9.467   6.229  11.159 -0.2669 -0.4645  0.1306
75749SOL    HW138972   9.415   6.309  11.170  0.6461 -0.1297  2.6454
75749SOL    HW238973   9.452   6.180  11.240 -0.1517 -2.4936 -1.0157
75750SOL     OW38974  12.147  11.795  12.351 -0.5316  0.1398 -0.2037
75750SOL    HW138975  12.212  11.821  12.285 -0.7257 -0.2404 -0.5446
75750SOL    HW238976  12.129  11.703  12.332 -0.4495 -0.0215  0.4997
75751SOL     OW38977   2.287   9.934  11.431  0.0673 -0.7763  0.0616
75751SOL    HW138978   2.261   9.875  11.360  0.5420 -0.0742 -0.7230
75751SOL    HW238979   2.205   9.966  11.467 -0.1949 -0.0190 -1.1496
75752SOL     OW38980   8.436   6.951  10.030  0.0759 -0.2938  0.5996
75752SOL    HW138981   8.369   7.018  10.017 -0.4784 -0.9989 -0.2831
75752SOL    HW238982   8.455   6.955  10.124  1.1203  2.0720  0.3626
75753SOL     OW38983  12.864  10.693   3.916 -0.2605 -0.3113  0.0080
75753SOL    HW138984  12.785  10.640   3.908  0.1930 -0.8275 -1.2905
75753SOL    HW238985  12.932  10.644   3.869  0.5275  0.7076  0.0300
75754SOL     OW38986   0.606  12.662   1.695 -0.1439 -0.6684 -0.3867
75754SOL    HW138987   0.543  12.591   1.710 -0.2104 -1.0703 -2.3117
75754SOL    HW238988   0.691  12.619   1.694  0.0945 -0.2850  1.1180
75755SOL     OW38989   7.121   9.431   7.682  0.2355 -0.3400 -0.3159
75755SOL    HW138990   7.121   9.376   7.760 -2.2509  2.3002  1.8213
75755SOL    HW238991   7.068   9.383   7.618  1.7944 -2.2650 -0.2525
75756SOL     OW38992   6.506   1.688   3.175 -0.1613  0.2208  0.5622
75756SOL    HW138993   6.582   1.740   3.148  0.2832 -0.9918 -0.6364
75756SOL    HW238994   6.536   1.598   3.170 -1.4691 -0.2425  0.7815
75757SOL     OW38995   0.129   7.161   6.407  1.0176 -0.0976  0.1445
75757SOL    HW138996   0.068   7.212   6.460  0.4704 -0.4403 -0.1477
75757SOL    HW238997   0.146   7.216   6.330  0.8968 -0.1039  0.1139
75758SOL     OW38998   6.606  11.658   6.147  0.3503  0.8089  0.0870
75758SOL    HW138999   6.597  11.573   6.105 -1.2598  0.6773  0.6428
75758SOL    HW239000   6.690  11.691   6.116 -0.0321  0.0195 -1.9312
75759SOL     OW39001   8.249  11.964   9.687 -0.3217 -0.5510  0.5957
75759SOL    HW139002   8.166  11.978   9.643 -0.2635 -0.9842  0.3418
75759SOL    HW239003   8.284  11.884   9.649  0.7213  0.1878 -0.0811
75760SOL     OW39004   0.464   1.012   3.475 -0.5490  0.1253 -0.0142
75760SOL    HW139005   0.411   1.021   3.396  0.4169 -1.7906 -0.9352
75760SOL    HW239006   0.520   0.936   3.459 -1.5037 -1.4586  3.1457
75761SOL     OW39007   9.335   9.425   9.220 -0.0838 -0.1280  0.1660
75761SOL    HW139008   9.250   9.383   9.208 -0.0827  0.3301 -1.8872
75761SOL    HW239009   9.379   9.372   9.287 -0.7868 -2.2867 -0.9695
75762SOL     OW39010  11.379  10.995   8.516  0.4351  0.1001  0.1235
75762SOL    HW139011  11.319  10.969   8.446  1.4801 -0.7917 -0.4929
75762SOL    HW239012  11.386  11.090   8.507  0.5367  0.0082 -0.9949
75763SOL     OW39013   1.556   1.445   0.181  0.4070  0.0466 -0.5278
75763SOL    HW139014   1.614   1.391   0.234  0.7632  1.5824  0.7117
75763SOL    HW239015   1.614   1.482   0.114  0.3743 -0.2389 -0.7179
75764SOL     OW39016  12.473  11.255   7.438  1.0606  0.1935  0.2818
75764SOL    HW139017  12.401  11.205   7.475  0.4610  1.0614  0.3219
75764SOL    HW239018  12.507  11.307   7.511  1.5029  0.0400  0.1863
75765SOL     OW39019   7.981   8.523   6.356  0.0641  0.3252 -0.2798
75765SOL    HW139020   7.964   8.498   6.265 -0.1606 -0.2933 -0.0718
75765SOL    HW239021   7.927   8.464   6.408 -0.2176  1.0276  0.2427
75766SOL     OW39022  10.112   3.757   6.430  0.9132 -0.1217  0.2101
75766SOL    HW139023  10.027   3.715   6.445  0.5081  0.2215 -0.9716
75766SOL    HW239024  10.127   3.810   6.508  0.3819 -0.7365  0.7399
75767SOL     OW39025  11.348  11.124   3.785  0.1450  0.6587 -0.4446
75767SOL    HW139026  11.323  11.100   3.696  0.6427 -0.2063 -0.3581
75767SOL    HW239027  11.440  11.100   3.792 -0.5505 -1.8774  1.1617
75768SOL     OW39028   3.158   2.677  11.264  0.0096  0.2588 -0.5197
75768SOL    HW139029   3.206   2.625  11.329  0.8526  1.3534 -0.2495
75768SOL    HW239030   3.199   2.763  11.265 -1.1009  0.8365 -1.2567
75769SOL     OW39031  12.265   3.275  10.415 -0.1872 -0.2246 -0.1568
75769SOL    HW139032  12.285   3.194  10.462  0.7672  0.4315  0.5945
75769SOL    HW239033  12.284   3.345  10.477 -0.2945  0.6114 -1.0360
75770SOL     OW39034   5.007  10.030   0.419  0.0956  0.6644 -0.1128
75770SOL    HW139035   5.040   9.942   0.436  0.8683  0.2957 -3.0046
75770SOL    HW239036   5.036  10.081   0.494 -1.2209 -1.6610  2.1648
75771SOL     OW39037   9.709   7.345  10.965 -0.7042 -0.6185  0.6576
75771SOL    HW139038   9.625   7.329  11.008 -1.5861 -1.3353 -1.1912
75771SOL    HW239039   9.711   7.440  10.951 -1.5625 -0.6745  0.0763
75772SOL     OW39040   0.791   7.150   1.724  0.1038  0.4301 -0.2940
75772SOL    HW139041   0.832   7.209   1.661  0.0284 -0.0107 -0.7734
75772SOL    HW239042   0.731   7.205   1.774 -0.0717  0.7281 -0.8271
75773SOL     OW39043   8.806   2.783   3.688 -0.1568  0.4147  0.1520
75773SOL    HW139044   8.781   2.692   3.672 -1.3928  0.2583  2.4548
75773SOL    HW239045   8.858   2.780   3.768  3.3716  1.3483 -1.9135
75774SOL     OW39046  13.222   1.414   5.910  0.3778 -0.0526 -0.3326
75774SOL    HW139047  13.255   1.373   5.990  1.1164 -0.5066 -0.8589
75774SOL    HW239048  13.211   1.341   5.849 -0.4106  0.2579 -0.5740
75775SOL     OW39049   3.006   0.833   6.484 -0.0994 -0.0080 -0.7385
75775SOL    HW139050   3.014   0.763   6.549  0.9739  0.1730 -0.6625
75775SOL    HW239051   3.017   0.789   6.400 -0.9422 -0.1531 -0.7893
75776SOL     OW39052  13.634  13.284   5.205 -0.4466  0.1835 -0.1969
75776SOL    HW139053  13.631  13.224   5.130  0.4369 -3.5825  2.5143
75776SOL    HW239054  13.564  13.255   5.263  0.4117  1.3926  1.5366
75777SOL     OW39055   8.073   2.300  10.342 -0.0523  0.6257  0.0411
75777SOL    HW139056   7.998   2.264  10.389 -0.6841  0.8928 -0.7431
75777SOL    HW239057   8.067   2.395  10.355  0.0163  0.6660 -0.2068
75778SOL     OW39058   5.920  12.681   3.810 -0.2519 -0.0379  0.0569
75778SOL    HW139059   6.010  12.679   3.843  0.6405 -0.8724 -2.2323
75778SOL    HW239060   5.883  12.597   3.838 -1.0811  1.1128  2.7420
75779SOL     OW39061  10.058   8.288   0.715  0.4559  0.0063 -0.2499
75779SOL    HW139062   9.975   8.330   0.739  0.1146 -0.5049 -0.5051
75779SOL    HW239063  10.116   8.360   0.690 -0.7463  0.2435 -2.6484
75780SOL     OW39064  12.127  11.978  13.743  0.6900 -0.0529 -0.4315
75780SOL    HW139065  12.172  11.900  13.710  0.5884 -0.4717  0.3858
75780SOL    HW239066  12.043  11.978  13.697 -0.0733 -1.4604  0.8373
75781SOL     OW39067   1.940   8.789  10.630 -0.4240  0.1946  0.1742
75781SOL    HW139068   1.930   8.701  10.668 -1.5884 -0.4104 -1.4123
75781SOL    HW239069   1.915   8.848  10.701 -0.9306 -0.8186  0.8736
75782SOL     OW39070   1.772   8.781   1.991  0.3238 -0.1647  0.4999
75782SOL    HW139071   1.859   8.742   1.983  1.0312  1.2410  1.1457
75782SOL    HW239072   1.748   8.769   2.083 -0.6169 -1.4055  0.1316
75783SOL     OW39073   7.340   0.403   9.715 -0.1768  0.5571  0.1634
75783SOL    HW139074   7.346   0.348   9.793 -0.8478  1.2487  0.7151
75783SOL    HW239075   7.431   0.416   9.689  0.0549  0.2586  0.7826
75784SOL     OW39076   7.283   4.940   9.198 -0.0974  0.0313 -0.7764
75784SOL    HW139077   7.272   4.846   9.217  0.0592  0.1334 -0.1701
75784SOL    HW239078   7.377   4.955   9.204 -0.0768  0.1491 -1.2894
75785SOL     OW39079  12.463  12.680   8.182  0.1988 -0.9084  0.0309
75785SOL    HW139080  12.481  12.595   8.222 -1.9008 -0.8704  1.1879
75785SOL    HW239081  12.489  12.743   8.250  0.6428 -0.6522 -0.3693
75786SOL     OW39082   0.108   2.249  13.594 -0.2509  0.1527 -0.6981
75786SOL    HW139083   0.198   2.262  13.566  0.2878  0.7985  1.1757
75786SOL    HW239084   0.063   2.329  13.568  0.1973  0.6673  0.0693
75787SOL     OW39085   9.958   5.641  12.308  0.8184  0.3135 -0.0378
75787SOL    HW139086   9.934   5.601  12.224  1.1346 -0.5013  0.2446
75787SOL    HW239087  10.003   5.722  12.284 -0.1889  0.7188 -0.6181
75788SOL     OW39088   2.147   8.344   8.552  0.1992 -0.1728  0.2955
75788SOL    HW139089   2.180   8.344   8.462  0.5492  0.9025  0.4119
75788SOL    HW239090   2.224   8.327   8.606  0.1392  0.0103  0.4382
75789SOL     OW39091   1.013   3.085   0.086 -0.2366 -0.3042 -0.1462
75789SOL    HW139092   0.963   3.006   0.108 -0.6809  0.4826  1.8600
75789SOL    HW239093   1.102   3.066   0.114 -0.6647  0.4383  1.9363
75790SOL     OW39094  10.696   1.128   3.343 -0.3924 -0.2905 -0.2708
75790SOL    HW139095  10.742   1.132   3.427 -0.6388  0.7397 -0.1631
75790SOL    HW239096  10.616   1.080   3.362  0.5365 -1.9734 -0.4272
75791SOL     OW39097  10.798  11.317   5.858  0.0174 -0.4757 -0.1524
75791SOL    HW139098  10.783  11.293   5.767  2.2053  1.2264 -1.0495
75791SOL    HW239099  10.710  11.324   5.896 -0.9357 -1.3944 -2.0415
75792SOL     OW39100   4.492   3.821   0.869 -0.2891 -0.7043  0.5023
75792SOL    HW139101   4.585   3.808   0.888  0.2202  3.4793  1.7647
75792SOL    HW239102   4.448   3.750   0.917  2.1304 -2.6222  0.1133
75793SOL     OW39103   7.314   4.083   9.197 -0.4050  0.1695  0.2014
75793SOL    HW139104   7.276   3.998   9.222  0.3634  0.0827  1.1249
75793SOL    HW239105   7.239   4.136   9.172 -1.1113 -0.1538  1.5336
75794SOL     OW39106   4.742   7.226   9.036  0.5213 -0.2996 -0.4667
75794SOL    HW139107   4.835   7.207   9.029  0.0674 -3.6302  0.7783
75794SOL    HW239108   4.700   7.169   8.971 -0.7344 -0.0390  0.0722
75795SOL     OW39109  11.063   9.066   7.213  0.3402 -0.7013  0.2498
75795SOL    HW139110  11.149   9.104   7.230  0.2006  0.1124 -0.7549
75795SOL    HW239111  11.081   8.990   7.159  0.4677 -0.8935  0.5581
75796SOL     OW39112   8.431  12.046   3.651 -0.6474  0.4737  0.0930
75796SOL    HW139113   8.427  12.123   3.595  1.6087 -0.0268 -0.8853
75796SOL    HW239114   8.475  11.979   3.598 -2.2458 -1.4220  1.0058
75797SOL     OW39115   6.320   1.497  11.805  0.0601 -0.2256  0.1415
75797SOL    HW139116   6.274   1.566  11.756  1.9115 -0.0516 -1.4421
75797SOL    HW239117   6.307   1.522  11.897 -1.7645  0.5820 -0.2723
75798SOL     OW39118   9.772   3.943   8.614 -0.5887 -0.1322 -0.0374
75798SOL    HW139119   9.866   3.940   8.595 -0.3174  0.2709  1.1454
75798SOL    HW239120   9.733   3.983   8.536  0.0188 -1.6745 -1.1635
75799SOL     OW39121  11.691   6.640   1.011 -0.4216 -0.3759 -0.2238
75799SOL    HW139122  11.642   6.695   1.072 -0.5384 -0.3273 -0.3587
75799SOL    HW239123  11.655   6.552   1.023 -1.4229 -0.1367 -1.1933
75800SOL     OW39124  13.731   9.109   8.043 -0.1456 -0.2818 -0.2505
75800SOL    HW139125  13.825   9.117   8.024 -0.2366  1.9474  0.0174
75800SOL    HW239126  13.694   9.072   7.962  1.0875 -2.5866  0.1390
75801SOL     OW39127   6.325   2.436   8.371 -0.4465 -0.8542 -0.2118
75801SOL    HW139128   6.292   2.459   8.458  2.2291  1.1085  0.4374
75801SOL    HW239129   6.267   2.483   8.310  0.6672  2.1682  0.8496
75802SOL     OW39130   6.276   7.302   8.631  0.5570  0.1926  0.1265
75802SOL    HW139131   6.367   7.280   8.610  0.5436 -0.1423  0.4033
75802SOL    HW239132   6.231   7.217   8.632 -0.0525  0.4755 -1.3306
75803SOL     OW39133  11.427  11.754  12.661  0.4016  0.5170 -0.2908
75803SOL    HW139134  11.344  11.789  12.627  0.8901  0.2649 -1.7781
75803SOL    HW239135  11.406  11.664  12.687  0.0480  0.6864  0.0273
75804SOL     OW39136   1.212   9.227   0.634  0.4781  0.6179 -0.6065
75804SOL    HW139137   1.274   9.165   0.595  0.9679  2.3587 -2.7845
75804SOL    HW239138   1.260   9.267   0.706  1.1561  0.4421 -0.9517
75805SOL     OW39139   7.343   4.307  12.153 -0.4313 -0.2896 -0.2251
75805SOL    HW139140   7.270   4.247  12.137 -0.7876  0.2950 -0.8626
75805SOL    HW239141   7.305   4.395  12.141  0.4140  0.0150 -0.7288
75806SOL     OW39142   8.651   5.293  12.064 -0.3430 -0.0915 -0.1033
75806SOL    HW139143   8.612   5.372  12.028  0.3398 -0.4482 -1.7247
75806SOL    HW239144   8.597   5.271  12.139 -1.8920  0.6773 -0.9550
75807SOL     OW39145  11.806  10.405  12.121 -0.0346  0.3275 -0.2631
75807SOL    HW139146  11.789  10.406  12.027 -1.9848  2.8467  0.0010
75807SOL    HW239147  11.761  10.326  12.153 -0.7063  0.3013 -1.2446
75808SOL     OW39148   0.683  12.544   0.343 -0.1156  0.6348 -0.2978
75808SOL    HW139149   0.650  12.509   0.426 -0.0772 -0.3708 -0.6933
75808SOL    HW239150   0.655  12.481   0.277  1.6617  0.2861 -0.7808
75809SOL     OW39151   4.391   7.547  10.159 -0.4156  0.3110  0.2186
75809SOL    HW139152   4.342   7.526  10.080  1.1253 -1.4842 -0.3488
75809SOL    HW239153   4.469   7.592  10.127  1.2233 -2.2048  0.4127
75810SOL     OW39154   6.118   2.503   5.532 -0.1365 -0.6293 -0.4121
75810SOL    HW139155   6.143   2.526   5.443  0.7283  1.2200  0.2647
75810SOL    HW239156   6.173   2.559   5.588 -1.7723 -0.5996  1.2535
75811SOL     OW39157   1.037   0.078  10.689  0.2576 -0.0378  0.0064
75811SOL    HW139158   0.973   0.140  10.724  0.0800 -1.9011  3.4078
75811SOL    HW239159   1.107   0.078  10.754  0.5408 -2.9027 -0.1891
75812SOL     OW39160  13.203  11.694   5.822  0.7737  0.1520  0.7714
75812SOL    HW139161  13.150  11.644   5.885 -0.6442  0.2331 -0.3057
75812SOL    HW239162  13.207  11.639   5.745  2.0481  0.2894  0.7232
75813SOL     OW39163   3.115   0.577  13.657  1.0163 -1.1164  0.1719
75813SOL    HW139164   3.133   0.640  13.586 -0.9782 -2.1564 -1.3778
75813SOL    HW239165   3.019   0.576  13.663  1.1003 -2.3368  1.7312
75814SOL     OW39166   6.303   3.314   1.109 -0.4310 -0.0637  0.2211
75814SOL    HW139167   6.236   3.300   1.043  0.2049  0.1497 -0.4853
75814SOL    HW239168   6.354   3.233   1.110  0.2681  0.3612 -0.3847
75815SOL     OW39169   7.499  12.828   1.625 -0.1020 -0.0632  0.1114
75815SOL    HW139170   7.560  12.755   1.613  1.1544  1.2224 -1.7527
75815SOL    HW239171   7.554  12.903   1.648 -1.1785  0.6857  0.3340
75816SOL     OW39172   3.273  11.589   0.016  0.1780 -0.1252 -0.2284
75816SOL    HW139173   3.225  11.661  -0.025  0.6201 -1.1452 -2.7040
75816SOL    HW239174   3.346  11.572  -0.043  2.1525 -0.3205  2.1370
75817SOL     OW39175  12.939   5.081   3.112  0.7788  0.0003  0.4006
75817SOL    HW139176  12.918   5.104   3.203  0.5532  1.0730  0.0926
75817SOL    HW239177  12.855   5.086   3.066  1.1242  0.9288 -0.1532
75818SOL     OW39178   9.242   1.670   9.134  0.2654 -0.1889  0.2109
75818SOL    HW139179   9.235   1.648   9.227 -0.5888  0.7533  0.3946
75818SOL    HW239180   9.205   1.758   9.128 -1.8379 -1.0921 -1.3627
75819SOL     OW39181   7.120  13.034   7.552  0.6509  0.1136 -0.4134
75819SOL    HW139182   7.212  13.022   7.527  0.6920 -0.9163  0.1692
75819SOL    HW239183   7.088  12.945   7.569  0.0408  0.5896  1.1126
75820SOL     OW39184   3.566   7.575   0.415  0.8892 -0.3097 -0.0265
75820SOL    HW139185   3.552   7.645   0.478  1.0144  0.8250 -1.2238
75820SOL    HW239186   3.660   7.561   0.414  0.7710 -1.3783  1.1014
75821SOL     OW39187   1.357   4.406   1.621  0.0013  0.2631 -0.4537
75821SOL    HW139188   1.382   4.488   1.578 -1.0874  2.7402  3.1375
75821SOL    HW239189   1.279   4.428   1.672 -0.3387 -3.0517  0.7196
75822SOL     OW39190  11.844  12.735  12.181  0.2892  0.3286  0.2593
75822SOL    HW139191  11.827  12.664  12.243 -0.3319  0.6210  0.4297
75822SOL    HW239192  11.819  12.698  12.096 -1.4574  0.8153  0.5282
75823SOL     OW39193   8.769   4.996   1.586 -0.4382 -0.7071  0.3333
75823SOL    HW139194   8.830   4.957   1.523  0.9362  1.3698  0.2966
75823SOL    HW239195   8.721   5.062   1.535 -2.3829 -1.9059  0.4996
75824SOL     OW39196   0.962   1.618  11.054  0.2530 -0.1654  0.0565
75824SOL    HW139197   0.958   1.707  11.088  1.3255 -1.0576  2.7972
75824SOL    HW239198   1.053   1.609  11.024  0.6888 -0.8361  1.4851
75825SOL     OW39199  12.478  13.564  10.103  0.0595 -0.2807  0.1417
75825SOL    HW139200  12.509  13.492  10.159 -0.2452 -0.5214  0.0090
75825SOL    HW239201  12.496  13.643  10.153 -1.3117 -0.5549  1.1342
75826SOL     OW39202   7.613   8.248   7.796 -0.1634  0.2154  0.0240
75826SOL    HW139203   7.673   8.322   7.781 -0.5291  0.1348 -2.2436
75826SOL    HW239204   7.528   8.289   7.811 -0.2953  0.2932 -0.8694
75827SOL     OW39205   3.789  11.220   7.946  0.3882 -1.0083 -0.3354
75827SOL    HW139206   3.742  11.153   7.897 -1.0257  0.6855 -1.3954
75827SOL    HW239207   3.765  11.302   7.905  3.7839  0.0715 -0.4918
75828SOL     OW39208   1.943   8.837   0.312 -0.5319  0.3556  0.1814
75828SOL    HW139209   1.888   8.914   0.317 -2.1276 -0.6945 -0.4235
75828SOL    HW239210   1.899   8.780   0.248  0.0597 -1.4551  1.3115
75829SOL     OW39211   7.552   2.893  10.503  0.3041 -0.3996  0.1408
75829SOL    HW139212   7.612   2.819  10.500  0.0543 -0.6204 -2.8591
75829SOL    HW239213   7.469   2.858  10.470 -0.7354  0.5276  1.6547
75830SOL     OW39214   9.706   4.092   5.167 -0.1483 -0.5079  0.1872
75830SOL    HW139215   9.722   4.043   5.086 -0.2660 -0.7311  0.2953
75830SOL    HW239216   9.643   4.038   5.215 -0.6252 -0.0260  0.1118
75831SOL     OW39217   8.379   6.563   5.646 -0.3719  0.6684  0.6561
75831SOL    HW139218   8.419   6.478   5.662 -1.4682 -0.7409 -2.8864
75831SOL    HW239219   8.434   6.603   5.578 -2.1695  0.7965 -0.8112
75832SOL     OW39220   8.107   9.413   4.481 -0.7296 -0.0236 -0.5395
75832SOL    HW139221   8.104   9.373   4.568 -1.4469 -1.0844 -1.0256
75832SOL    HW239222   8.144   9.500   4.495 -3.5247  0.9975  1.2623
75833SOL     OW39223   9.193  11.879   1.075  0.1594  0.4269  0.3218
75833SOL    HW139224   9.169  11.838   1.158 -0.5594  2.0773  0.9814
75833SOL    HW239225   9.133  11.842   1.011  0.4210 -0.5276  0.6071
75834SOL     OW39226   7.498   8.258   6.429  0.1834 -0.2762 -0.1407
75834SOL    HW139227   7.521   8.221   6.514  1.2019  0.5414 -0.0439
75834SOL    HW239228   7.489   8.181   6.372  0.8275 -0.7637  0.3901
75835SOL     OW39229  13.473   8.406  11.477 -0.0245 -0.6459 -0.0200
75835SOL    HW139230  13.459   8.340  11.409  2.2119  0.7602 -2.0065
75835SOL    HW239231  13.568   8.412  11.486 -0.2281  0.2708  2.2346
75836SOL     OW39232  12.557   0.927   7.490  0.1994  0.2500 -0.1733
75836SOL    HW139233  12.609   0.982   7.430  0.5727 -2.2167 -2.2548
75836SOL    HW239234  12.619   0.899   7.557  0.2921  1.3093  0.2073
75837SOL     OW39235   0.495   4.490   6.329 -0.1321 -0.1683 -0.6034
75837SOL    HW139236   0.501   4.402   6.365  0.8341 -0.2282 -0.8728
75837SOL    HW239237   0.428   4.485   6.261  0.6354 -0.9519 -1.3196
75838SOL     OW39238  11.850   3.389   7.801  0.2806 -0.2359 -0.1052
75838SOL    HW139239  11.853   3.295   7.784 -0.9642 -0.7548  2.0863
75838SOL    HW239240  11.905   3.401   7.878 -1.9187  0.2366  1.5133
75839SOL     OW39241  11.832   3.584   1.158 -0.2125  0.3575 -0.2787
75839SOL    HW139242  11.905   3.532   1.190 -1.4026 -0.6044  0.9808
75839SOL    HW239243  11.845   3.670   1.197  0.2179  0.1792 -0.0247
75840SOL     OW39244  12.534  13.501   0.805  0.4136 -0.6118  0.2526
75840SOL    HW139245  12.540  13.547   0.889  3.6955 -1.0305  0.3560
75840SOL    HW239246  12.615  13.522   0.759 -0.1759 -2.3855 -1.7801
75841SOL     OW39247   8.511   2.644   7.365 -0.5406  0.5868 -0.0934
75841SOL    HW139248   8.507   2.559   7.409 -0.7497  0.2710 -0.7024
75841SOL    HW239249   8.493   2.708   7.433 -0.6106  0.1262  0.3274
75842SOL     OW39250   6.995   0.004   7.230 -0.1417  0.1078 -0.3875
75842SOL    HW139251   6.966   0.082   7.182  0.8456  1.0032  0.4207
75842SOL    HW239252   7.074   0.032   7.277 -0.6750 -0.9121  1.2201
75843SOL     OW39253   2.061   0.779   9.163 -0.9510  0.0718  0.2770
75843SOL    HW139254   2.105   0.703   9.200  0.0983  0.3813 -0.2906
75843SOL    HW239255   2.112   0.801   9.085 -2.6230 -0.0945 -0.9350
75844SOL     OW39256  12.552   3.350  11.978 -0.8384  0.0206  0.2101
75844SOL    HW139257  12.487   3.283  11.959  0.1028 -1.2147  1.1393
75844SOL    HW239258  12.619   3.340  11.910  0.1436 -1.1673  1.3072
75845SOL     OW39259  11.651   4.285  13.148  0.2825  0.2843  0.0049
75845SOL    HW139260  11.687   4.270  13.061  0.9193  0.2423  0.2727
75845SOL    HW239261  11.556   4.273  13.137  0.5497 -2.6078 -0.1202
75846SOL     OW39262  12.821   6.021   3.138 -0.0139 -0.6491  0.2837
75846SOL    HW139263  12.908   6.061   3.146 -1.0996  2.2155 -0.8326
75846SOL    HW239264  12.777   6.042   3.220 -0.3572 -0.1011 -0.0298
75847SOL     OW39265  13.375   6.788  13.724  0.1855  0.3235 -0.0207
75847SOL    HW139266  13.355   6.720  13.660  0.8563  1.7361 -1.8209
75847SOL    HW239267  13.322   6.863  13.697  0.6303  1.0213  0.9710
75848SOL     OW39268   9.376  11.037   8.254 -0.6194  0.0568 -0.6251
75848SOL    HW139269   9.414  11.109   8.305 -1.2667  0.2291 -0.3848
75848SOL    HW239270   9.452  10.988   8.223 -0.2042 -0.5071  1.1786
75849SOL     OW39271  11.605   8.733   1.568  0.1305 -0.3126  0.0810
75849SOL    HW139272  11.581   8.646   1.539  0.5557  0.1057 -1.6633
75849SOL    HW239273  11.676   8.759   1.509 -1.0637  1.8186 -0.5414
75850SOL     OW39274   8.961   5.441  11.196  0.0381  0.1419 -0.0757
75850SOL    HW139275   9.000   5.508  11.253  0.7408 -0.5289  0.2393
75850SOL    HW239276   8.937   5.370  11.256  1.1535 -0.7467 -0.6444
75851SOL     OW39277   2.303   7.172   2.582 -0.0139 -0.1373 -0.6497
75851SOL    HW139278   2.273   7.195   2.670 -1.7785  1.8247 -1.6853
75851SOL    HW239279   2.316   7.077   2.586 -0.2351 -0.1285  1.6580
75852SOL     OW39280   1.771   0.203   0.775 -0.4648  0.8215 -0.0316
75852SOL    HW139281   1.679   0.177   0.773 -0.5388  1.0940 -0.1797
75852SOL    HW239282   1.799   0.199   0.683 -0.4954  1.3219 -0.0672
75853SOL     OW39283  13.179   2.645   3.050 -0.4053 -0.3249  0.1377
75853SOL    HW139284  13.119   2.708   3.010 -2.1567 -0.3212  2.5869
75853SOL    HW239285  13.260   2.695   3.064 -1.0583  0.7661  0.1371
75854SOL     OW39286   8.000   2.281   2.317 -0.5231 -0.2460 -0.2540
75854SOL    HW139287   8.085   2.323   2.328 -0.1549 -1.2258  0.9530
75854SOL    HW239288   7.951   2.338   2.258  0.8088  0.5682 -0.5938
75855SOL     OW39289  10.588   3.627   8.607  0.3750 -0.6261 -0.6975
75855SOL    HW139290  10.612   3.612   8.516  0.7803  0.5106 -0.7991
75855SOL    HW239291  10.630   3.710   8.629  0.3660 -0.9355  0.5579
75856SOL     OW39292  11.418   2.382   1.093 -0.4725 -0.2604 -0.3170
75856SOL    HW139293  11.367   2.328   1.033 -1.3656  0.5506 -0.3160
75856SOL    HW239294  11.509   2.368   1.068 -0.7644 -0.8734 -1.0492
75857SOL     OW39295   1.051   3.449   3.830 -0.1571  0.0681 -1.1930
75857SOL    HW139296   1.100   3.509   3.887  0.7770 -1.1186 -0.7051
75857SOL    HW239297   1.007   3.506   3.767  0.6054  1.2705 -0.6725
75858SOL     OW39298   6.718   3.421  10.134 -0.1406  0.1430 -0.1200
75858SOL    HW139299   6.759   3.449  10.052  1.0180 -0.6843  0.1617
75858SOL    HW239300   6.624   3.436  10.120  0.2090  1.8426 -0.8625
75859SOL     OW39301   2.207   8.613  12.827  0.6261  0.2562 -0.0993
75859SOL    HW139302   2.188   8.671  12.753 -0.5795 -0.0148 -0.0311
75859SOL    HW239303   2.301   8.622  12.841  0.3295  3.2786  0.7736
75860SOL     OW39304   7.717   1.270   1.491 -0.2483 -0.1495 -0.5718
75860SOL    HW139305   7.692   1.180   1.510 -2.4594  0.5040 -0.1117
75860SOL    HW239306   7.805   1.263   1.455 -1.1219 -2.6898 -2.5520
75861SOL     OW39307  12.499   7.650   9.282 -0.4485  0.4793 -0.1766
75861SOL    HW139308  12.463   7.608   9.204  0.0543  0.7820 -0.5746
75861SOL    HW239309  12.457   7.736   9.284 -1.1911  0.1174  0.4290
75862SOL     OW39310   9.160   6.620   9.121  0.1454 -0.0283  0.7597
75862SOL    HW139311   9.106   6.548   9.089 -1.2171  1.6775 -0.9975
75862SOL    HW239312   9.108   6.661   9.189  0.1409  0.3594  0.5243
75863SOL     OW39313  11.202   7.074   3.247 -0.0177 -0.1249 -0.2507
75863SOL    HW139314  11.266   7.035   3.307 -0.0273  0.9548  0.4970
75863SOL    HW239315  11.238   7.058   3.160  1.1121  0.1635  0.1460
75864SOL     OW39316   5.467   0.869  13.064 -0.5422  0.1140 -0.5522
75864SOL    HW139317   5.390   0.916  13.097  0.5203  0.7763  1.0540
75864SOL    HW239318   5.542   0.922  13.092  0.5887 -1.3622 -0.6885
75865SOL     OW39319   4.870   0.627   4.239 -0.0325  0.5244 -0.1276
75865SOL    HW139320   4.820   0.556   4.280 -0.7581  0.2614 -1.4220
75865SOL    HW239321   4.928   0.582   4.177 -2.0908  1.1150 -2.6475
75866SOL     OW39322   4.708   0.827  13.495 -0.2365 -0.2893  0.0173
75866SOL    HW139323   4.725   0.921  13.501 -1.5900  0.0805 -1.3186
75866SOL    HW239324   4.698   0.798  13.585 -0.6511  1.0246  0.4097
75867SOL     OW39325   1.467  10.033  12.733 -0.0952 -0.3025  0.3545
75867SOL    HW139326   1.479   9.981  12.654 -0.1468 -1.2977  0.9909
75867SOL    HW239327   1.437  10.118  12.701 -0.6081 -0.8475 -0.6613
75868SOL     OW39328   1.854  10.160   0.514  0.2112 -0.0177  0.1713
75868SOL    HW139329   1.840  10.150   0.420  0.0453 -1.0719  0.2946
75868SOL    HW239330   1.767  10.181   0.549 -0.4885 -3.0797  0.4965
75869SOL     OW39331   8.114   5.239   6.705  0.7750  0.0288  0.0085
75869SOL    HW139332   8.197   5.281   6.682  0.8778 -0.5763 -0.7793
75869SOL    HW239333   8.063   5.240   6.623 -0.6404  1.7886  0.8263
75870SOL     OW39334   8.757   5.002   6.297  0.4110  0.3291  0.3278
75870SOL    HW139335   8.691   4.938   6.270 -0.3931  0.9214  0.8507
75870SOL    HW239336   8.716   5.087   6.283  1.6579  0.7859 -0.8505
75871SOL     OW39337   0.672   0.269  11.319 -0.1537  0.2327  0.1831
75871SOL    HW139338   0.667   0.176  11.338 -2.4249  0.1954 -0.2801
75871SOL    HW239339   0.684   0.311  11.404  0.4704 -0.4505  0.4334
75872SOL     OW39340  11.825   1.511   0.275 -0.3424 -0.1592  0.1961
75872SOL    HW139341  11.735   1.480   0.280 -0.5634  0.2595 -0.9578
75872SOL    HW239342  11.829   1.564   0.195  1.2629 -1.2625 -0.5105
75873SOL     OW39343   8.082   4.074   9.836 -0.2232  0.4973 -0.3265
75873SOL    HW139344   8.000   4.027   9.852  0.7238 -0.8078  0.9186
75873SOL    HW239345   8.128   4.073   9.920  0.7537  1.8827 -0.8002
75874SOL     OW39346  12.076  10.859   3.689 -0.1836  0.3531 -0.1710
75874SOL    HW139347  12.132  10.895   3.620  1.2649 -1.5085 -0.0364
75874SOL    HW239348  12.136  10.835   3.759 -1.6127  2.1951  1.8123
75875SOL     OW39349  10.969  13.415  11.536  0.0579  0.1113 -0.0569
75875SOL    HW139350  10.990  13.389  11.447  2.0055 -2.5780  1.0245
75875SOL    HW239351  10.885  13.374  11.555 -0.7319  1.3106 -0.8156
75876SOL     OW39352   3.197   2.437   5.418 -0.1763 -0.0199  0.3355
75876SOL    HW139353   3.188   2.375   5.345  2.0783  0.6207 -0.5701
75876SOL    HW239354   3.223   2.519   5.378 -0.7771  0.9077  1.7383
75877SOL     OW39355   5.998   0.289   0.817  0.0027 -0.1582  0.1490
75877SOL    HW139356   6.004   0.193   0.815  0.7700 -0.1136 -0.0687
75877SOL    HW239357   6.006   0.311   0.910 -0.6528 -0.3298  0.2473
75878SOL     OW39358   0.363  10.035  12.799 -0.4396 -0.3920 -0.4010
75878SOL    HW139359   0.291  10.034  12.736 -1.7161 -0.4017  0.9933
75878SOL    HW239360   0.353   9.953  12.848  0.0995 -0.0618  0.2772
75879SOL     OW39361   2.935   3.617   5.471 -0.2188 -0.4221  0.5083
75879SOL    HW139362   2.925   3.689   5.533 -1.4023 -1.9179  2.2060
75879SOL    HW239363   3.010   3.567   5.504  0.7417  0.1215 -0.7879
75880SOL     OW39364  13.520   8.020   3.499 -0.6322  0.3576  0.2827
75880SOL    HW139365  13.508   8.100   3.448 -1.0815  0.0670 -0.0821
75880SOL    HW239366  13.442   8.014   3.554 -1.2868 -0.5440 -0.7034
75881SOL     OW39367   5.519   2.743   0.653 -0.3191  0.2767  0.0709
75881SOL    HW139368   5.487   2.774   0.738 -0.1643 -2.2560  1.1132
75881SOL    HW239369   5.602   2.789   0.641 -0.9592  1.6435  0.6319
75882SOL     OW39370   7.567   3.794  12.446  0.1691 -0.2241 -0.1835
75882SOL    HW139371   7.501   3.805  12.378  1.0354 -0.2312 -1.0357
75882SOL    HW239372   7.517   3.798  12.528 -1.1009 -1.6957 -0.8373
75883SOL     OW39373  12.775   3.969   9.829  0.1298  0.3818 -0.4107
75883SOL    HW139374  12.761   3.874   9.830 -1.5005  0.6028  0.5590
75883SOL    HW239375  12.722   4.001   9.757 -0.1371  0.6555 -0.0984
75884SOL     OW39376   2.483  10.287  11.625  0.3980  0.1032  0.4238
75884SOL    HW139377   2.556  10.270  11.684 -0.6165  0.3545  1.7977
75884SOL    HW239378   2.408  10.300  11.683 -0.8219 -0.5156 -0.9502
75885SOL     OW39379   0.864   1.789   6.151 -0.0314  0.0464 -0.1526
75885SOL    HW139380   0.886   1.723   6.217  0.5606  0.3304 -0.0612
75885SOL    HW239381   0.948   1.825   6.124 -0.3522  0.8756 -0.0818
75886SOL     OW39382  13.233  11.999  10.370 -0.2708 -0.0650 -0.0422
75886SOL    HW139383  13.239  12.063  10.299  0.8686 -0.7162 -0.5511
75886SOL    HW239384  13.305  12.022  10.429 -0.0760 -0.6624 -0.0436
75887SOL     OW39385   1.935   9.441   1.965 -0.1998 -0.2702  0.2349
75887SOL    HW139386   1.891   9.361   1.935  0.2892 -0.7927  0.9034
75887SOL    HW239387   2.010   9.450   1.906 -1.2373  0.7261 -1.0337
75888SOL     OW39388   1.268   1.830  11.990  0.3439  0.3509 -0.1316
75888SOL    HW139389   1.349   1.782  11.973  0.3542  0.6061 -0.8193
75888SOL    HW239390   1.206   1.762  12.018  0.6534  0.0883 -0.0796
75889SOL     OW39391   3.545   4.131   7.491  0.1565 -0.3583 -0.2579
75889SOL    HW139392   3.537   4.050   7.542 -0.7209 -0.7397 -0.9841
75889SOL    HW239393   3.458   4.145   7.454  0.8336 -0.2266 -1.8647
75890SOL     OW39394  11.691   0.905  12.785  0.5001  0.1217 -0.2999
75890SOL    HW139395  11.675   0.903  12.691 -1.2500 -1.9361 -0.0438
75890SOL    HW239396  11.748   0.830  12.801  0.3432  0.1262  0.3168
75891SOL     OW39397  11.778  13.471   8.291  0.4448 -0.1910  0.5006
75891SOL    HW139398  11.847  13.405   8.305  0.9329  0.1037 -0.3684
75891SOL    HW239399  11.697  13.421   8.286  0.8705 -0.8067 -0.6604
75892SOL     OW39400  10.396   0.246   2.106 -0.8011 -0.7397 -0.4012
75892SOL    HW139401  10.304   0.229   2.085 -1.3681 -0.6175  1.8043
75892SOL    HW239402  10.402   0.234   2.200  0.7473  2.3158  0.0142
75893SOL     OW39403   4.296  11.480   9.589  0.1621  0.8608  0.0698
75893SOL    HW139404   4.304  11.386   9.607  0.4514  1.0015  0.6860
75893SOL    HW239405   4.363  11.521   9.643 -1.0659  1.5848  1.0842
75894SOL     OW39406  12.163   7.878   8.179  0.3001 -0.0897  0.1266
75894SOL    HW139407  12.202   7.965   8.191 -0.5098  0.1954  0.8318
75894SOL    HW239408  12.068   7.894   8.180  0.1350 -1.0200  0.6725
75895SOL     OW39409   1.424   9.585   4.769  0.3156 -0.3890  0.0297
75895SOL    HW139410   1.504   9.544   4.801  0.9919 -0.7593 -1.9986
75895SOL    HW239411   1.450   9.629   4.687 -1.5131 -0.4622 -0.6401
75896SOL     OW39412  12.063   5.123   0.396 -0.4379 -0.1555 -0.2323
75896SOL    HW139413  12.106   5.083   0.472 -1.3178  0.9304  0.8930
75896SOL    HW239414  12.054   5.216   0.420 -1.0475  0.1440 -1.5276
75897SOL     OW39415   8.236   1.429   5.203  0.2016  0.6292  0.0219
75897SOL    HW139416   8.228   1.400   5.295  3.1463 -0.2025  0.1143
75897SOL    HW239417   8.252   1.523   5.209 -1.2544  0.8932  0.2109
75898SOL     OW39418   6.122  11.800   4.181  0.0176  0.2345 -0.0851
75898SOL    HW139419   6.193  11.839   4.130  0.3540  0.5007  0.5699
75898SOL    HW239420   6.047  11.800   4.122  0.4248  0.4323 -0.6121
75899SOL     OW39421   9.386  13.624   2.534  0.1543  0.8809 -0.3591
75899SOL    HW139422   9.399  13.707   2.488 -1.6820  0.1080 -2.4568
75899SOL    HW239423   9.386  13.558   2.465 -0.5153 -0.6198  1.0217
75900SOL     OW39424   8.003  11.242   7.070 -0.3435  0.4549 -0.0081
75900SOL    HW139425   8.024  11.335   7.068  0.7273  0.2255  0.0422
75900SOL    HW239426   7.916  11.237   7.110 -0.4204  1.4292 -0.0479
75901SOL     OW39427   2.675  10.528   7.099 -0.5823  0.1077  0.4321
75901SOL    HW139428   2.745  10.587   7.129 -0.0319 -0.0873 -0.4079
75901SOL    HW239429   2.685  10.449   7.153  1.3422 -0.8291 -1.1615
75902SOL     OW39430  12.859   2.742   8.210  0.0939 -0.7806 -0.1563
75902SOL    HW139431  12.898   2.691   8.139  0.3534  0.4906 -0.9518
75902SOL    HW239432  12.819   2.817   8.167  0.9400  0.4436  1.0957
75903SOL     OW39433   5.340  12.323   3.652 -0.1297 -0.1866 -0.6794
75903SOL    HW139434   5.302  12.321   3.564 -1.8974 -0.7130  0.0512
75903SOL    HW239435   5.345  12.417   3.673 -3.7438 -0.0552  0.2287
75904SOL     OW39436  13.128   1.037   7.390 -0.1404 -0.9657 -0.2381
75904SOL    HW139437  13.174   1.099   7.333  1.0556 -0.0853  1.6005
75904SOL    HW239438  13.137   1.074   7.478 -2.1871 -2.1210  0.5226
75905SOL     OW39439   2.918   7.803   6.585 -0.1851 -0.3068 -0.4676
75905SOL    HW139440   2.856   7.732   6.602 -1.0983  0.6306  0.1954
75905SOL    HW239441   2.912   7.817   6.490  0.4517 -1.4840 -0.7139
75906SOL     OW39442  10.818  13.584   2.739  0.0470 -0.1175 -0.2893
75906SOL    HW139443  10.766  13.524   2.793 -0.5763 -0.8582 -1.6714
75906SOL    HW239444  10.768  13.594   2.658  0.1101  2.3490 -0.1016
75907SOL     OW39445   6.675   3.672  10.980  0.2108 -0.1551 -0.1166
75907SOL    HW139446   6.650   3.739  10.916 -0.0019  0.5488  0.6774
75907SOL    HW239447   6.762   3.698  11.009  0.0443 -0.1043  0.3447
75908SOL     OW39448  13.444   7.453  10.747  0.0685 -0.1881 -0.3218
75908SOL    HW139449  13.532   7.418  10.756  0.5025  1.0003  0.2877
75908SOL    HW239450  13.386   7.384  10.779  0.9903  0.2412  2.5064
75909SOL     OW39451   3.584   7.701   3.145 -0.5328  0.2819 -0.4745
75909SOL    HW139452   3.666   7.719   3.190 -3.0976  1.0685  4.6019
75909SOL    HW239453   3.565   7.782   3.098  0.6431  0.8094 -0.0850
75910SOL     OW39454   5.125   6.874   9.498  0.4194  0.2279  0.1606
75910SOL    HW139455   5.042   6.917   9.477  0.7607 -0.1302 -2.2615
75910SOL    HW239456   5.186   6.906   9.431  1.5247 -1.5172  0.2619
75911SOL     OW39457   8.082  13.681   5.022 -0.3188 -0.5178  0.3668
75911SOL    HW139458   8.069  13.766   5.065  1.2741 -0.7105  1.2899
75911SOL    HW239459   8.085  13.702   4.928 -0.2760  0.3927  0.5596
75912SOL     OW39460   3.005  13.136  10.772  0.3123  0.0517 -0.2559
75912SOL    HW139461   2.977  13.104  10.686  1.7433  1.6646 -1.3869
75912SOL    HW239462   3.012  13.057  10.825  0.0524 -1.0866 -1.8243
75913SOL     OW39463  11.302   0.625   9.610 -0.3355 -0.3820  0.2156
75913SOL    HW139464  11.211   0.641   9.636 -1.0588 -1.5307 -1.4265
75913SOL    HW239465  11.316   0.680   9.533 -0.1581 -1.3182 -0.4432
75914SOL     OW39466   1.088  13.583  12.482 -0.2727  0.5017 -0.0252
75914SOL    HW139467   1.152  13.623  12.423 -0.7973  1.3810 -0.0196
75914SOL    HW239468   1.074  13.649  12.550 -0.4829 -0.0664  0.4940
75915SOL     OW39469   6.190   8.126   6.819  0.1795 -0.3613 -0.5393
75915SOL    HW139470   6.214   8.051   6.874 -1.6696 -0.1996  0.5744
75915SOL    HW239471   6.115   8.164   6.863  0.0253  1.1434 -2.0247
75916SOL     OW39472   3.231  11.239   5.378 -0.5170 -0.1743 -0.4603
75916SOL    HW139473   3.284  11.159   5.380 -0.3636 -0.0627  0.2067
75916SOL    HW239474   3.221  11.263   5.470 -1.6633 -0.1435 -0.5813
75917SOL     OW39475   3.979  10.243  13.030 -0.3028 -0.7018  0.1659
75917SOL    HW139476   4.011  10.274  13.115 -0.2789 -0.3070  0.0114
75917SOL    HW239477   4.029  10.293  12.966 -2.0592  0.8336 -0.1007
75918SOL     OW39478  11.596   8.062  12.221 -0.8569  0.3033 -0.2114
75918SOL    HW139479  11.608   7.983  12.169 -0.1901  1.1860 -1.4675
75918SOL    HW239480  11.585   8.132  12.157 -1.0456  1.2958  0.8567
75919SOL     OW39481  12.221   4.575  11.418 -0.6423  0.4835 -0.0530
75919SOL    HW139482  12.154   4.512  11.393 -0.0359 -0.5772  0.8891
75919SOL    HW239483  12.299   4.547  11.370  0.3288 -1.1243  2.2585
75920SOL     OW39484   1.222   3.372   7.050 -0.2531  0.1094  0.4238
75920SOL    HW139485   1.257   3.309   6.987  1.6157  0.4665  1.0349
75920SOL    HW239486   1.242   3.457   7.012  1.9042  0.3510  1.9136
75921SOL     OW39487   4.260  13.017   4.676 -0.4864 -0.0357 -0.5448
75921SOL    HW139488   4.202  13.065   4.617  2.6207  0.0580 -3.9187
75921SOL    HW239489   4.239  12.925   4.660 -1.5196  0.0384  0.3468
75922SOL     OW39490   3.871   9.535   3.507 -0.2033 -0.0329  0.0029
75922SOL    HW139491   3.780   9.513   3.526  0.0997 -0.9238  0.4606
75922SOL    HW239492   3.900   9.468   3.446 -0.0030  0.5556 -0.5611
75923SOL     OW39493  13.391   6.494  11.487 -0.4897  0.1207 -0.8234
75923SOL    HW139494  13.461   6.559  11.483  1.7009 -1.9039  0.9892
75923SOL    HW239495  13.402   6.443  11.406  0.6067 -0.5870 -0.2466
75924SOL     OW39496   0.530  13.283   6.368 -0.0901 -0.2708  0.3427
75924SOL    HW139497   0.535  13.250   6.457 -0.5118 -1.4124 -0.0329
75924SOL    HW239498   0.471  13.357   6.373  0.7715  0.3890  1.1923
75925SOL     OW39499  12.939   0.370  10.772 -0.5450  0.1197  0.2052
75925SOL    HW139500  12.990   0.375  10.853 -0.7262 -0.7251  0.3772
75925SOL    HW239501  12.882   0.447  10.775 -0.1766  0.3841  0.6188
75926SOL     OW39502  10.192   1.342   7.112  0.2994 -0.3194  0.2532
75926SOL    HW139503  10.276   1.367   7.074  0.7800  0.5766  1.8411
75926SOL    HW239504  10.207   1.341   7.206 -1.5642  0.2537  0.5916
75927SOL     OW39505   6.831  10.320   2.070  0.2233 -0.0510  0.4634
75927SOL    HW139506   6.748  10.314   2.117 -1.5244  3.2489 -1.7313
75927SOL    HW239507   6.886  10.375   2.126  0.2247 -0.6630  1.0703
75928SOL     OW39508  12.792   9.330   8.580 -0.1077  0.2198 -0.0388
75928SOL    HW139509  12.858   9.379   8.531 -0.1911 -0.0428 -0.4162
75928SOL    HW239510  12.797   9.366   8.669  1.1741 -0.4230  0.1632
75929SOL     OW39511  12.105   5.221   4.659 -0.1670 -0.1533 -0.1351
75929SOL    HW139512  12.182   5.166   4.645 -0.6986 -1.4707  1.7415
75929SOL    HW239513  12.031   5.163   4.641 -0.7470  0.8546 -1.0972
75930SOL     OW39514   5.197   4.928   0.026  0.3108 -0.4046 -0.3668
75930SOL    HW139515   5.263   4.996   0.035  1.5210 -1.3024 -1.9823
75930SOL    HW239516   5.114   4.974   0.037  1.1501  0.9569  0.5235
75931SOL     OW39517   8.239   5.140   8.784 -0.9963 -0.1064 -0.1274
75931SOL    HW139518   8.183   5.070   8.817 -2.9480  1.2348 -0.4476
75931SOL    HW239519   8.286   5.171   8.862 -1.4074 -0.5987  0.3260
75932SOL     OW39520   4.612   7.195   7.270  0.2401 -0.0207  0.2925
75932SOL    HW139521   4.538   7.209   7.211 -0.7556  1.0038  1.6963
75932SOL    HW239522   4.591   7.113   7.315  1.2409 -1.0617 -1.0680
75933SOL     OW39523  11.854   0.534   1.885  0.1558  0.3330  0.3683
75933SOL    HW139524  11.787   0.468   1.867  2.3065 -1.7340 -0.6028
75933SOL    HW239525  11.898   0.502   1.964  1.1381  0.6531 -0.0366
75934SOL     OW39526   2.147  11.975   5.247  0.5068 -0.0494  0.6721
75934SOL    HW139527   2.144  12.031   5.324  0.0553  2.1769 -0.8900
75934SOL    HW239528   2.059  11.980   5.210  0.9265 -0.4448 -0.4302
75935SOL     OW39529  10.593   8.256   3.401  0.0235 -0.0593  0.2541
75935SOL    HW139530  10.594   8.277   3.307  1.6932  0.8272  0.4357
75935SOL    HW239531  10.632   8.169   3.406  0.4192  0.1136  0.1733
75936SOL     OW39532  11.580   5.401   8.501 -0.0121  0.0339  0.3000
75936SOL    HW139533  11.639   5.393   8.426  1.8705  1.1602  1.5744
75936SOL    HW239534  11.559   5.494   8.505 -0.9397 -0.1758  0.5739
75937SOL     OW39535   4.381   2.065   2.724 -0.0865 -0.2504  0.1432
75937SOL    HW139536   4.321   2.000   2.761 -0.4066 -0.5832 -0.9349
75937SOL    HW239537   4.451   2.013   2.683 -0.3467  0.0656 -0.7338
75938SOL     OW39538   9.985  11.328   5.471  0.5435 -0.6865 -0.1120
75938SOL    HW139539  10.020  11.380   5.543  3.4282 -3.2786  0.6029
75938SOL    HW239540  10.030  11.361   5.394 -0.9708  0.6886 -0.4655
75939SOL     OW39541   4.440   7.044  11.575 -0.1965 -0.0563 -0.4551
75939SOL    HW139542   4.446   6.981  11.647 -2.5665 -0.6062 -0.6610
75939SOL    HW239543   4.513   7.023  11.518  1.6665  0.3006  1.6724
75940SOL     OW39544   3.352  12.826   7.781 -0.0707 -0.3658  0.4923
75940SOL    HW139545   3.370  12.910   7.739 -1.8302  0.1253  0.6573
75940SOL    HW239546   3.334  12.847   7.872 -0.8686 -0.8664  0.4623
75941SOL     OW39547   5.196   6.414   3.953  0.5879  0.0442 -0.2120
75941SOL    HW139548   5.170   6.331   3.994 -1.4709  1.5728  1.8534
75941SOL    HW239549   5.231   6.466   4.025  1.0382  1.2929 -1.2968
75942SOL     OW39550  10.802   3.019   6.548  0.0068  0.0723 -0.3377
75942SOL    HW139551  10.868   2.956   6.519  1.1194  0.6345  0.9045
75942SOL    HW239552  10.819   3.098   6.495 -0.4210 -0.1544 -0.8240
75943SOL     OW39553   5.338  11.346   7.291 -0.1915 -0.4122 -0.1060
75943SOL    HW139554   5.346  11.327   7.197  0.4510  1.5351 -0.4795
75943SOL    HW239555   5.412  11.403   7.311 -0.6333 -0.3493  1.4769
75944SOL     OW39556   7.514   4.121  10.861 -0.3811 -0.1990  0.5135
75944SOL    HW139557   7.567   4.186  10.815 -1.9286  0.9448  0.2521
75944SOL    HW239558   7.572   4.085  10.928  0.8208  0.7176  0.0055
75945SOL     OW39559   0.341   3.437   7.681  0.6376 -0.7144 -0.2483
75945SOL    HW139560   0.271   3.458   7.743  1.7511  0.0057  0.8165
75945SOL    HW239561   0.307   3.363   7.631 -2.5706  2.0547 -2.6357
75946SOL     OW39562   9.884   8.855   3.125 -0.5257  0.8065 -0.0746
75946SOL    HW139563   9.829   8.845   3.202  0.7337  0.2561  0.7805
75946SOL    HW239564   9.926   8.940   3.136 -0.3774  0.7472 -0.1748
75947SOL     OW39565  11.541  12.279   7.742 -0.2565 -0.1772  0.3909
75947SOL    HW139566  11.514  12.234   7.662  0.1321 -0.5844  0.4860
75947SOL    HW239567  11.608  12.341   7.712 -1.3581  0.9410  0.1320
75948SOL     OW39568   4.055   1.297   9.565 -0.1438 -0.2499  0.0459
75948SOL    HW139569   4.107   1.370   9.599 -1.1157  0.9487 -0.9477
75948SOL    HW239570   4.044   1.238   9.640  1.9507 -0.1687  0.4708
75949SOL     OW39571   7.120  10.336   5.848  0.2095  0.7847 -0.5747
75949SOL    HW139572   7.184  10.407   5.844  1.5173 -0.3970 -1.9824
75949SOL    HW239573   7.134  10.296   5.934  1.2574  0.6698 -0.7801
75950SOL     OW39574  10.818   3.541   0.952 -0.1556 -0.1673 -0.3778
75950SOL    HW139575  10.862   3.625   0.969 -0.0864 -0.5149  1.2967
75950SOL    HW239576  10.884   3.475   0.976 -0.0352 -0.7346 -2.1365
75951SOL     OW39577   7.681   9.809   1.037  0.6796  0.2127  0.1883
75951SOL    HW139578   7.743   9.872   0.999  0.3528  1.1428  1.1378
75951SOL    HW239579   7.599   9.859   1.046  0.5623 -0.1727  1.4599
75952SOL     OW39580   7.986   2.307   3.103 -0.6752  0.0331  0.2348
75952SOL    HW139581   7.970   2.366   3.177 -0.2943  1.1169 -0.5252
75952SOL    HW239582   7.977   2.219   3.140  2.1490  0.4462  2.2643
75953SOL     OW39583  10.746  11.296  11.152 -0.8906  0.0444  0.3630
75953SOL    HW139584  10.753  11.215  11.202 -3.3590 -1.5711 -1.6286
75953SOL    HW239585  10.680  11.348  11.197 -0.2374  0.4024  0.9255
75954SOL     OW39586   5.239   4.733  10.828  0.4629 -0.0092  0.3165
75954SOL    HW139587   5.264   4.752  10.737  2.5709  1.2680  1.0877
75954SOL    HW239588   5.143   4.737  10.828  0.4620  3.0084 -1.2867
75955SOL     OW39589  13.245   2.129  11.307 -0.1249  0.1616 -0.1204
75955SOL    HW139590  13.284   2.167  11.228 -1.3763  1.2307 -0.2634
75955SOL    HW239591  13.161   2.094  11.277 -0.4170  0.1837  0.6524
75956SOL     OW39592  12.443   8.360  12.590  0.1237  0.3455 -0.7272
75956SOL    HW139593  12.529   8.397  12.612  0.8021 -1.0434 -0.9714
75956SOL    HW239594  12.404   8.424  12.530  0.9017  1.0782 -0.4700
75957SOL     OW39595   7.603   1.936   7.274 -0.4803 -0.1890 -0.4092
75957SOL    HW139596   7.526   1.903   7.321 -1.5304 -0.2959 -2.1082
75957SOL    HW239597   7.628   1.864   7.216 -0.8353  0.8131 -1.8586
75958SOL     OW39598   8.030  10.847  11.981  0.0289 -0.5127  0.5061
75958SOL    HW139599   8.011  10.822  11.891 -0.1252  1.9648 -0.2034
75958SOL    HW239600   7.944  10.862  12.020  0.1335 -0.6995  0.8126
75959SOL     OW39601  10.704  10.174   9.580 -0.1609 -0.0631  0.4670
75959SOL    HW139602  10.701  10.111   9.508  1.8867  1.0466 -0.6329
75959SOL    HW239603  10.758  10.131   9.647 -2.2673 -1.2004  1.5500
75960SOL     OW39604   0.717   1.369   0.236  0.7044  0.4377  0.2773
75960SOL    HW139605   0.787   1.349   0.174 -0.6831  0.0974 -1.2484
75960SOL    HW239606   0.663   1.434   0.191 -1.2812 -1.0470  0.3546
75961SOL     OW39607  11.746  10.042   7.724  0.4145 -0.2868 -0.0867
75961SOL    HW139608  11.797  10.095   7.663  0.5229 -0.2869  0.0029
75961SOL    HW239609  11.655  10.066   7.707  0.5507  1.1002  1.0565
75962SOL     OW39610   3.719   0.199  13.633  0.2597  0.3198 -0.0075
75962SOL    HW139611   3.639   0.178  13.585 -0.2931  0.7504  0.7014
75962SOL    HW239612   3.742   0.118  13.679  1.9066 -0.7226 -2.4801
75963SOL     OW39613  12.622   4.811   3.025  0.3634 -0.8686  0.0251
75963SOL    HW139614  12.557   4.810   2.955  0.6139 -1.0770 -0.2108
75963SOL    HW239615  12.571   4.807   3.106  0.0293  0.3994 -0.1044
75964SOL     OW39616   3.717  13.438   2.370 -0.7742 -0.4251  0.1852
75964SOL    HW139617   3.675  13.373   2.314 -2.1134 -0.0013  0.6633
75964SOL    HW239618   3.659  13.514   2.367  0.1104  0.2935  0.6523
75965SOL     OW39619  12.723  12.878   9.513 -0.0699  0.5075 -0.2417
75965SOL    HW139620  12.740  12.933   9.436  0.4336  1.2651  0.3823
75965SOL    HW239621  12.721  12.789   9.479  0.6421  0.7834 -1.0681
75966SOL     OW39622   3.646  11.985   3.680  0.0126  0.4987 -0.1264
75966SOL    HW139623   3.561  11.954   3.648  0.5491  0.2849 -1.4069
75966SOL    HW239624   3.673  11.919   3.744 -1.1012  0.9433  0.8283
75967SOL     OW39625   9.958   4.468   3.667  0.3470 -0.0493  0.9514
75967SOL    HW139626   9.998   4.396   3.619 -1.6816  0.0990 -1.1059
75967SOL    HW239627   9.878   4.430   3.706 -0.4708  0.9216  0.2786
75968SOL     OW39628  11.582   9.245  10.732  0.9736 -0.5091 -0.9177
75968SOL    HW139629  11.618   9.159  10.754 -0.7158 -1.2293 -0.7774
75968SOL    HW239630  11.529   9.228  10.654 -0.0953  0.2080 -0.3647
75969SOL     OW39631  10.232   2.876  12.114 -0.5878 -0.2558 -0.0244
75969SOL    HW139632  10.183   2.826  12.179  0.2592 -2.3332 -0.9114
75969SOL    HW239633  10.197   2.849  12.030  0.6215 -0.1672 -0.5786
75970SOL     OW39634   9.027   2.145   6.015 -0.8184  0.0908 -0.2271
75970SOL    HW139635   9.034   2.132   6.109  2.1390  0.5255 -0.2811
75970SOL    HW239636   8.966   2.219   6.005  0.0819  1.1357  1.4866
75971SOL     OW39637   3.703  13.677   0.779  0.1561 -0.1214  0.5579
75971SOL    HW139638   3.741  13.592   0.801  2.1705  0.6454  0.2219
75971SOL    HW239639   3.647  13.698   0.855  0.7445 -1.0933  1.2831
75972SOL     OW39640   7.685   1.967   5.616 -0.1348  0.2879 -0.2449
75972SOL    HW139641   7.693   2.038   5.553  0.4249  1.4835  1.1238
75972SOL    HW239642   7.600   1.927   5.596  0.0499  0.5742 -1.7648
75973SOL     OW39643  10.399   6.641   7.969  0.0733  0.4709  0.9784
75973SOL    HW139644  10.405   6.546   7.957  0.7777  0.7864 -1.7828
75973SOL    HW239645  10.306   6.657   7.979  0.0130 -0.5741  2.4222
75974SOL     OW39646   3.126   7.900   1.107  0.9326  0.1688  0.2296
75974SOL    HW139647   3.203   7.912   1.051  1.7987  0.9306  1.5243
75974SOL    HW239648   3.076   7.831   1.064  1.9409  0.2012 -1.0686
75975SOL     OW39649   6.723   7.860  11.829  0.7317 -0.1291  0.4054
75975SOL    HW139650   6.684   7.905  11.904 -0.8814  1.3234 -1.1994
75975SOL    HW239651   6.711   7.767  11.847 -0.8719  0.2280  1.3554
75976SOL     OW39652   2.152   3.475   3.907 -0.2865  0.6977  0.4596
75976SOL    HW139653   2.081   3.453   3.967  0.1352 -1.2443  0.2948
75976SOL    HW239654   2.122   3.441   3.822 -0.3596  2.3644 -0.2256
75977SOL     OW39655   1.741   0.468   8.273 -0.4337  0.2635  0.2129
75977SOL    HW139656   1.743   0.453   8.368 -2.0438 -1.6896 -0.0026
75977SOL    HW239657   1.828   0.442   8.243  0.7493  2.6381  1.3068
75978SOL     OW39658   6.428   0.206   7.215  0.1952  0.6241 -0.2321
75978SOL    HW139659   6.478   0.124   7.219 -0.1482  0.4566  1.5464
75978SOL    HW239660   6.479   0.268   7.265 -1.5563  0.2849  2.1695
75979SOL     OW39661  11.959   5.706   2.679  0.1603  0.3386  0.0646
75979SOL    HW139662  11.967   5.699   2.774 -1.5313  2.1701  0.4120
75979SOL    HW239663  12.036   5.755   2.651  0.9127 -0.6296  0.4072
75980SOL     OW39664   9.221   1.965   9.321  0.2390 -0.1795  0.3952
75980SOL    HW139665   9.168   2.028   9.369 -1.2399 -0.8784 -0.2588
75980SOL    HW239666   9.167   1.939   9.247  1.7524 -0.4708 -0.6650
75981SOL     OW39667  12.065  12.148   3.847  0.3134  0.3669 -0.4133
75981SOL    HW139668  12.088  12.238   3.825 -2.2302  0.5070 -3.1026
75981SOL    HW239669  12.029  12.112   3.766  2.4761 -3.5817  0.1372
75982SOL     OW39670   8.415   7.296   0.711  0.1086 -0.6249  0.0530
75982SOL    HW139671   8.465   7.307   0.792 -0.2046 -0.1874  0.1951
75982SOL    HW239672   8.341   7.241   0.736  0.6818 -1.5572 -0.2338
75983SOL     OW39673  11.028   8.706  12.729  0.4813  0.1363  0.2388
75983SOL    HW139674  11.016   8.757  12.809  0.3260  2.3075 -1.1053
75983SOL    HW239675  11.033   8.615  12.760 -0.7064  0.7817  2.5827
75984SOL     OW39676  11.704  11.155   6.105  0.2408 -0.1109  0.4578
75984SOL    HW139677  11.775  11.099   6.073  0.6248 -0.7014  2.2323
75984SOL    HW239678  11.648  11.097   6.155 -2.4371  0.0149 -2.1340
75985SOL     OW39679   1.652   6.712   2.531 -0.6256 -0.1206 -0.0799
75985SOL    HW139680   1.680   6.679   2.446  1.9704  2.0415 -0.1770
75985SOL    HW239681   1.615   6.798   2.513  0.6840  0.7127  0.9994
75986SOL     OW39682  13.297   1.457  13.304 -0.1621 -0.7348  0.4556
75986SOL    HW139683  13.257   1.524  13.359  1.7711  0.6345  0.2942
75986SOL    HW239684  13.276   1.374  13.347 -2.1901 -0.0189  0.9285
75987SOL     OW39685  10.624   1.082   9.491  0.1932 -0.3897  0.3085
75987SOL    HW139686  10.604   1.085   9.584 -0.3235  1.5455  0.1818
75987SOL    HW239687  10.566   1.147   9.452  2.3082  0.8665 -0.9623
75988SOL     OW39688  13.603  13.174   8.121  0.3943 -0.6942  0.5285
75988SOL    HW139689  13.634  13.224   8.045 -0.1414 -1.6634 -0.3459
75988SOL    HW239690  13.642  13.087   8.110 -0.5222 -1.1534  0.8095
75989SOL     OW39691   6.382   4.839  12.519 -0.2195 -0.1447 -0.0276
75989SOL    HW139692   6.322   4.798  12.456  0.4166 -0.5092 -0.4026
75989SOL    HW239693   6.447   4.772  12.537 -0.1074  0.1399  0.6333
75990SOL     OW39694   3.090  12.624   4.741 -0.1208  0.4943  0.2742
75990SOL    HW139695   3.024  12.687   4.769  0.9954  1.5928  0.5413
75990SOL    HW239696   3.164  12.678   4.711  0.7258 -0.6780  0.1726
75991SOL     OW39697   0.518   2.767   2.450  0.1630  0.0844  0.3100
75991SOL    HW139698   0.448   2.703   2.439  0.9102 -1.0395  1.6853
75991SOL    HW239699   0.530   2.806   2.363 -1.5604 -0.3105 -0.1324
75992SOL     OW39700  13.318   5.401   6.796 -0.3516 -0.0257 -0.2363
75992SOL    HW139701  13.320   5.306   6.810 -0.4003  0.1357  1.0664
75992SOL    HW239702  13.225   5.422   6.788 -0.3437 -0.0856 -0.4868
75993SOL     OW39703  13.202  13.407   8.523 -0.4800 -0.3758 -0.3031
75993SOL    HW139704  13.190  13.337   8.459 -1.7647 -0.4378 -0.0152
75993SOL    HW239705  13.139  13.388   8.592  1.0589 -0.4478  1.1381
75994SOL     OW39706   7.220   2.236   1.514 -0.2501  0.2967  0.1255
75994SOL    HW139707   7.247   2.246   1.605  0.7990  0.3107 -0.1669
75994SOL    HW239708   7.297   2.262   1.463 -0.8398  0.3599 -0.7668
75995SOL     OW39709   4.696   0.274   4.871  0.3147 -0.1972 -0.5418
75995SOL    HW139710   4.612   0.286   4.916  0.8925  0.6322  0.3498
75995SOL    HW239711   4.725   0.187   4.898  1.1489  0.6781  1.6225
75996SOL     OW39712  13.606   5.027   3.732 -0.1656  0.0386 -0.4216
75996SOL    HW139713  13.516   4.999   3.746 -0.3217  0.4698 -0.5487
75996SOL    HW239714  13.603   5.122   3.737  0.4177  0.0297  0.3338
75997SOL     OW39715   8.954  11.349  12.460 -0.2284 -0.4561 -0.7500
75997SOL    HW139716   9.045  11.362  12.489 -0.3555 -1.9408  0.4326
75997SOL    HW239717   8.908  11.426  12.492  0.5820  0.2592 -1.2558
75998SOL     OW39718   7.631  11.283   5.158  0.4829 -0.0642  0.3362
75998SOL    HW139719   7.595  11.356   5.210  1.8845  1.3779 -0.6054
75998SOL    HW239720   7.572  11.276   5.083  1.0783  1.0655 -0.2710
75999SOL     OW39721  12.653   8.740  11.017 -0.5515  0.3402 -0.2453
75999SOL    HW139722  12.698   8.754  10.933 -0.3034  1.2613  0.0237
75999SOL    HW239723  12.663   8.824  11.063 -0.8677 -0.0857  0.6179
76000SOL     OW39724   0.456   0.922  13.039 -0.3498  0.1898 -0.7260
76000SOL    HW139725   0.411   0.883  12.963  0.7398  0.0303 -1.3090
76000SOL    HW239726   0.457   1.016  13.019 -1.5447  0.3612 -0.0889
76001SOL     OW39727   6.886  12.710   0.506 -0.2897  0.4749 -0.2151
76001SOL    HW139728   6.880  12.625   0.461 -0.9999 -0.5171  1.6540
76001SOL    HW239729   6.795  12.739   0.515 -0.4570 -0.6034  2.7373
76002SOL     OW39730   0.901   3.336   2.781 -0.1940 -0.3125  0.0931
76002SOL    HW139731   0.957   3.386   2.722 -0.2665 -0.8195 -0.4020
76002SOL    HW239732   0.962   3.290   2.839 -0.1079  1.4449  1.5268
76003SOL     OW39733   8.350   3.559   1.220  0.2380 -0.3605 -0.3414
76003SOL    HW139734   8.366   3.623   1.150  1.2160 -0.8942 -0.6255
76003SOL    HW239735   8.318   3.482   1.174  0.4304 -0.5561 -0.1460
76004SOL     OW39736   1.647  12.765   8.742 -0.0035  0.1621  0.2548
76004SOL    HW139737   1.557  12.785   8.719 -0.7713 -4.4095 -1.8987
76004SOL    HW239738   1.642  12.723   8.828 -0.1499 -0.9539 -0.2781
76005SOL     OW39739  13.103  13.656  11.347 -0.1961  0.3013 -0.3127
76005SOL    HW139740  13.043  13.730  11.354 -0.9840 -0.3033 -0.4814
76005SOL    HW239741  13.177  13.690  11.297  0.8341  1.7886  2.0389
76006SOL     OW39742   9.482   6.890  10.598  0.0853 -0.0595  0.0386
76006SOL    HW139743   9.415   6.865  10.662 -0.3926  0.4516 -0.2459
76006SOL    HW239744   9.447   6.860  10.514  0.1539  0.3192 -0.1268
76007SOL     OW39745   7.642   1.249   4.320  0.3464  0.2238  0.2068
76007SOL    HW139746   7.555   1.273   4.288  0.7909  2.4120  0.4605
76007SOL    HW239747   7.624   1.202   4.402 -0.6250 -1.4171 -0.8825
76008SOL     OW39748   7.092   4.176  12.106 -0.3168 -0.0756 -0.0249
76008SOL    HW139749   7.029   4.147  12.040  0.4503 -0.1501 -0.7457
76008SOL    HW239750   7.049   4.158  12.190 -2.2585  2.1257 -0.4670
76009SOL     OW39751  13.558   6.972   5.643  0.1328  0.0708 -0.0919
76009SOL    HW139752  13.650   6.947   5.648 -0.2484 -1.2309  0.8048
76009SOL    HW239753  13.522   6.951   5.729 -1.4937 -1.4710 -1.0784
76010SOL     OW39754   3.784   1.252   4.874  0.1518 -0.9328 -0.4186
76010SOL    HW139755   3.772   1.190   4.802 -0.5268  0.0097 -1.1427
76010SOL    HW239756   3.795   1.337   4.831  1.4011 -0.5736  0.5382
76011SOL     OW39757  10.005   7.402   0.192  0.9620  0.8077  0.9369
76011SOL    HW139758   9.926   7.441   0.228  0.9288  1.9639 -0.3079
76011SOL    HW239759   9.994   7.308   0.207 -0.3088  1.0113  1.4250
76012SOL     OW39760   5.190  13.668   6.919  0.2414 -0.7710 -0.0402
76012SOL    HW139761   5.212  13.596   6.860  0.9341 -1.6241  1.2005
76012SOL    HW239762   5.275  13.706   6.943 -0.1633  1.5502 -1.9075
76013SOL     OW39763   6.076   2.269   8.674 -0.3745 -0.8018 -0.1425
76013SOL    HW139764   6.114   2.332   8.612 -2.4403 -0.3018 -0.9960
76013SOL    HW239765   6.146   2.251   8.736  0.9181  0.7874 -1.0594
76014SOL     OW39766   7.498   1.517   7.278 -0.2297  0.4484  0.2373
76014SOL    HW139767   7.409   1.547   7.258 -1.0392 -0.7038  1.8720
76014SOL    HW239768   7.507   1.530   7.372  1.3890  0.6075  0.0940
76015SOL     OW39769   8.889  13.243  12.128  0.3750  0.2735  0.1056
76015SOL    HW139770   8.908  13.325  12.082  0.1195  0.3496  0.1380
76015SOL    HW239771   8.893  13.267  12.221  0.9678  0.1034  0.1307
76016SOL     OW39772   3.279   8.315   1.192  0.4153  0.5162 -0.2637
76016SOL    HW139773   3.367   8.278   1.197  1.4789  2.8511 -0.3803
76016SOL    HW239774   3.240   8.294   1.277  0.6152 -1.5356 -0.6304
76017SOL     OW39775   2.503   1.127   3.178 -0.1531  0.0875 -1.2056
76017SOL    HW139776   2.513   1.091   3.266 -1.7866  0.0770 -0.9842
76017SOL    HW239777   2.462   1.057   3.128  0.7776  0.0888 -2.0014
76018SOL     OW39778   0.287   8.470   9.164  0.8257  0.0042  0.0616
76018SOL    HW139779   0.314   8.411   9.234  0.8476 -1.1201 -0.8573
76018SOL    HW239780   0.311   8.557   9.195  1.2301 -0.5080  1.2511
76019SOL     OW39781   5.919   2.642   2.963 -0.3085  0.4539 -0.0853
76019SOL    HW139782   5.879   2.556   2.978 -0.3488  0.2072 -1.4782
76019SOL    HW239783   6.010   2.630   2.988  0.2525 -0.7016 -2.4305
76020SOL     OW39784  11.986   3.724   0.491  0.2332  0.0907 -0.5275
76020SOL    HW139785  11.967   3.776   0.569 -0.5823  1.0980 -1.3571
76020SOL    HW239786  12.046   3.656   0.521 -0.1845  0.3565  1.0015
76021SOL     OW39787   6.135   0.317   5.457 -0.1671 -0.0280 -0.5251
76021SOL    HW139788   6.165   0.226   5.452  1.4732  0.3982  0.7504
76021SOL    HW239789   6.215   0.369   5.458 -0.9152  1.2389  1.9104
76022SOL     OW39790   7.338   0.719   6.894 -0.5834  0.0034 -0.0966
76022SOL    HW139791   7.270   0.758   6.840  1.3217  1.5038 -1.5754
76022SOL    HW239792   7.337   0.771   6.975  0.0607  1.3876 -0.9269
76023SOL     OW39793   2.475   8.902   4.081 -0.4675 -0.1430 -0.8036
76023SOL    HW139794   2.450   8.951   4.160 -0.0181 -0.1805 -0.6316
76023SOL    HW239795   2.488   8.970   4.014 -0.3710 -0.0709 -0.7125
76024SOL     OW39796   0.811   6.866   5.749  0.5077 -0.3619 -0.4393
76024SOL    HW139797   0.874   6.797   5.730  1.6908  0.8230 -1.0302
76024SOL    HW239798   0.865   6.944   5.763 -0.7850  0.4506  0.1611
76025SOL     OW39799   0.566   1.349   4.126 -0.0627 -0.9073 -0.2751
76025SOL    HW139800   0.500   1.299   4.174 -0.1276 -0.0178  0.6109
76025SOL    HW239801   0.649   1.318   4.160 -0.1212  1.0647  1.9624
76026SOL     OW39802   1.475   0.560  12.657 -0.1601 -0.1400  0.4026
76026SOL    HW139803   1.525   0.479  12.661 -0.3068 -0.2942 -0.5814
76026SOL    HW239804   1.503   0.610  12.733  0.4205 -0.8305  0.6504
76027SOL     OW39805   1.770   9.558  10.824 -0.9164  0.1332  0.0692
76027SOL    HW139806   1.677   9.553  10.847 -1.1055  0.7433 -0.5340
76027SOL    HW239807   1.793   9.649  10.840 -0.7359  0.2759 -0.9416
76028SOL     OW39808   3.718   9.044   4.657  0.3239 -0.4669  0.3216
76028SOL    HW139809   3.766   9.004   4.585  1.5239  1.2516  0.0817
76028SOL    HW239810   3.760   9.009   4.736  0.8462 -0.2824  0.1304
76029SOL     OW39811   6.648  11.996   7.509  0.0587 -0.3524 -0.0670
76029SOL    HW139812   6.618  11.929   7.448 -1.7044 -1.6610  2.0605
76029SOL    HW239813   6.567  12.036   7.542  0.8817 -0.2915  2.0015
76030SOL     OW39814   8.803   0.488   9.883 -0.3060 -0.2158  0.3832
76030SOL    HW139815   8.715   0.522   9.867 -0.4339  0.7592  2.7424
76030SOL    HW239816   8.861   0.545   9.832 -0.9921 -0.8257 -1.1343
76031SOL     OW39817   5.438   5.100  11.914 -0.4860  0.1233 -0.5492
76031SOL    HW139818   5.368   5.151  11.874 -1.5976 -0.4827  0.5637
76031SOL    HW239819   5.431   5.013  11.874 -1.2573 -0.3288  0.5280
76032SOL     OW39820   2.222   5.281  12.537 -0.2848  0.4689  0.7245
76032SOL    HW139821   2.189   5.243  12.618 -0.6586 -0.5034  0.1380
76032SOL    HW239822   2.147   5.280  12.478  0.4507 -0.6174 -0.2353
76033SOL     OW39823   8.236   4.566   7.380  0.0159  0.3021 -0.1708
76033SOL    HW139824   8.203   4.647   7.419  1.0557  0.0353  1.3655
76033SOL    HW239825   8.325   4.587   7.352  0.5888 -0.4725  0.9530
76034SOL     OW39826   9.509   9.406   4.365  0.5004  0.6437  0.6562
76034SOL    HW139827   9.491   9.328   4.417  0.3597 -1.1695 -1.9084
76034SOL    HW239828   9.423   9.436   4.337  0.6451  0.6126  0.1644
76035SOL     OW39829   1.951   8.087  10.050  0.0640 -0.2104 -0.4235
76035SOL    HW139830   1.923   7.996  10.042  1.1520 -0.6774  0.8321
76035SOL    HW239831   1.923   8.113  10.137 -0.8370  0.8993 -1.0160
76036SOL     OW39832  12.731   6.302  10.678 -0.5376  0.1987  0.2385
76036SOL    HW139833  12.793   6.369  10.708 -2.4676  0.8027  3.3602
76036SOL    HW239834  12.713   6.324  10.587 -0.7988  3.7709  1.0149
76037SOL     OW39835   5.376  10.849   9.488  0.4189  0.5836  0.2528
76037SOL    HW139836   5.421  10.845   9.404  1.6634  0.7535  0.8932
76037SOL    HW239837   5.283  10.856   9.465  0.7555  0.8692 -1.1013
76038SOL     OW39838  10.651   7.927   5.782  0.2201  0.1170 -0.0137
76038SOL    HW139839  10.652   7.886   5.695  0.2482  0.4117 -0.1513
76038SOL    HW239840  10.720   7.881   5.830  0.4378  0.1854 -0.2545
76039SOL     OW39841  13.728   6.285   9.139 -0.0402  0.5150 -0.0983
76039SOL    HW139842  13.753   6.378   9.140 -0.4549  0.6309 -0.1953
76039SOL    HW239843  13.635   6.286   9.116 -0.3118  0.1381  0.9349
76040SOL     OW39844   7.142   9.917   5.149  0.2448  0.2692 -0.1115
76040SOL    HW139845   7.135   9.921   5.054  1.2285 -3.2279 -0.4678
76040SOL    HW239846   7.052   9.921   5.180 -0.1648  0.3134 -1.2679
76041SOL     OW39847  10.252   4.288  11.869 -0.0556 -0.7241 -0.2645
76041SOL    HW139848  10.314   4.222  11.899 -0.7348 -1.4336 -0.3786
76041SOL    HW239849  10.214   4.251  11.789  1.2536  0.8522 -1.6798
76042SOL     OW39850   1.675   8.102   4.443  0.1172 -0.1546  0.3471
76042SOL    HW139851   1.758   8.055   4.440 -0.0435 -0.3910 -0.8474
76042SOL    HW239852   1.699   8.194   4.430  0.0885 -0.3998 -1.9402
76043SOL     OW39853   2.450   7.373   8.711  0.0957  0.1206 -0.0918
76043SOL    HW139854   2.476   7.438   8.777 -0.4378 -0.1144  0.3540
76043SOL    HW239855   2.423   7.425   8.635  1.1399  0.3856 -0.2969
76044SOL     OW39856  13.672  11.066   7.653  0.5443 -0.0789  0.1228
76044SOL    HW139857  13.704  10.991   7.703  0.8052  0.3510  0.6141
76044SOL    HW239858  13.751  11.116   7.632  0.6045 -0.9561 -1.9153
76045SOL     OW39859   4.788  11.995   8.279  0.5039 -0.3927 -0.1090
76045SOL    HW139860   4.704  12.032   8.305  0.7053 -1.5284  2.5627
76045SOL    HW239861   4.781  11.902   8.302  3.1118 -0.1555  2.1526
76046SOL     OW39862   3.716   9.814   6.642  0.5853 -0.1444 -0.2653
76046SOL    HW139863   3.676   9.838   6.726  1.2769  0.1715 -0.0159
76046SOL    HW239864   3.666   9.737   6.613 -0.6141  0.6116 -0.2873
76047SOL     OW39865   3.867   3.579   9.980 -0.2647  0.4764  0.1852
76047SOL    HW139866   3.826   3.505  10.024 -1.0527  0.2222 -0.9514
76047SOL    HW239867   3.795   3.641   9.965 -0.1068  0.3525 -1.1648
76048SOL     OW39868   6.805  12.974   9.421  0.4680  0.5422  0.0675
76048SOL    HW139869   6.898  12.958   9.439  0.8465  1.7705 -0.7067
76048SOL    HW239870   6.772  13.019   9.499  0.6383  0.5415  0.1401
76049SOL     OW39871  12.201   2.622   9.245  0.3499 -0.4761  0.3476
76049SOL    HW139872  12.203   2.526   9.244  0.9182 -0.4936 -2.2532
76049SOL    HW239873  12.229   2.648   9.157 -1.6360  2.0560  0.3616
76050SOL     OW39874   2.481   6.489   4.205  0.0275  0.2149 -0.5864
76050SOL    HW139875   2.390   6.505   4.179 -0.9694  0.0709  2.4151
76050SOL    HW239876   2.521   6.575   4.206 -0.4117  0.4250 -0.7278
76051SOL     OW39877  13.088   4.675   9.491  0.2822  0.1339 -0.1562
76051SOL    HW139878  13.171   4.706   9.452  0.6032 -1.2294 -0.5859
76051SOL    HW239879  13.040   4.637   9.417  0.6367 -1.9284  0.6137
76052SOL     OW39880   4.787  11.773  11.245 -0.2857  0.3077 -0.0655
76052SOL    HW139881   4.877  11.805  11.239  0.2251 -1.3139 -3.2015
76052SOL    HW239882   4.733  11.853  11.243  1.0053  1.2804  1.5193
76053SOL     OW39883  11.538   9.521   4.541 -0.0117 -0.8889 -0.0236
76053SOL    HW139884  11.473   9.470   4.492 -0.9863  0.0496  0.2687
76053SOL    HW239885  11.588   9.455   4.589 -1.7472 -1.5549  0.9637
76054SOL     OW39886   5.276   0.455   6.972 -0.0684  0.6620  0.2775
76054SOL    HW139887   5.299   0.381   7.029  0.8307  0.0974 -0.7824
76054SOL    HW239888   5.263   0.528   7.032 -0.4174 -0.2239  1.3077
76055SOL     OW39889   5.223   9.271  10.737  0.0196 -0.2710  0.0495
76055SOL    HW139890   5.236   9.274  10.832  0.7054 -0.3016 -0.0393
76055SOL    HW239891   5.298   9.222  10.704 -0.2782 -0.3624 -0.5005
76056SOL     OW39892   4.874   0.286   9.207 -0.3881 -0.2351 -0.0494
76056SOL    HW139893   4.881   0.299   9.112  1.1391 -0.7375 -0.0334
76056SOL    HW239894   4.962   0.303   9.240 -0.9173 -0.0036  1.2982
76057SOL     OW39895   3.478  11.476  11.706 -0.0924 -0.4200  0.1733
76057SOL    HW139896   3.430  11.548  11.746  1.7507  0.7993  0.3056
76057SOL    HW239897   3.546  11.453  11.770  0.4429 -1.0922 -0.6016
76058SOL     OW39898   7.957   0.891   6.854 -0.3858  0.1088  0.3004
76058SOL    HW139899   7.900   0.815   6.861  0.6077 -0.5283  2.1867
76058SOL    HW239900   8.039   0.857   6.818  0.3632  0.0524  1.9592
76059SOL     OW39901   9.872   9.163   9.616 -0.0494 -0.4335 -0.6286
76059SOL    HW139902   9.927   9.088   9.639 -0.5536 -0.2639  1.2619
76059SOL    HW239903   9.848   9.148   9.524  0.3695 -2.2608 -0.4727
76060SOL     OW39904   8.625   3.957   9.846  0.1062  0.2656 -0.4173
76060SOL    HW139905   8.566   3.985   9.776 -1.4988 -0.0367  0.7629
76060SOL    HW239906   8.640   4.035   9.899  1.5380  0.5605 -1.1862
76061SOL     OW39907   9.206  13.319   9.106  0.2038 -0.3700  0.1123
76061SOL    HW139908   9.201  13.412   9.086 -0.6575 -0.4969 -0.3158
76061SOL    HW239909   9.119  13.297   9.139  0.2025 -1.1544 -0.3837
76062SOL     OW39910  13.088   0.950   3.177  0.1001  0.0594  0.3229
76062SOL    HW139911  13.106   0.857   3.194 -1.4564 -0.4138 -0.4299
76062SOL    HW239912  13.139   0.970   3.099 -0.2888 -0.4376 -0.0648
76063SOL     OW39913   0.221   7.404   0.250 -0.1953 -0.3312 -0.1783
76063SOL    HW139914   0.267   7.486   0.233 -1.1634  0.2188 -0.2038
76063SOL    HW239915   0.290   7.342   0.273  0.4961  0.6278  0.3978
76064SOL     OW39916  12.432   6.852   4.965  0.4290 -0.1335 -0.3301
76064SOL    HW139917  12.402   6.891   5.047 -0.0157 -2.4289  0.6710
76064SOL    HW239918  12.525   6.874   4.960  0.2964  0.6110  0.4383
76065SOL     OW39919   4.269   9.065   0.007 -0.2806  0.0358 -0.0047
76065SOL    HW139920   4.201   9.002   0.032 -1.4476  1.2367 -0.0237
76065SOL    HW239921   4.223   9.130  -0.047  1.0723  0.4200 -0.7464
76066SOL     OW39922  12.294  12.400   3.600 -0.1965 -0.1284  0.5838
76066SOL    HW139923  12.238  12.446   3.538  1.1112 -1.4268 -1.6804
76066SOL    HW239924  12.359  12.465   3.626 -0.5814  0.3541  0.3569
76067SOL     OW39925   4.702  11.387  12.679  0.4119  0.6100 -0.0306
76067SOL    HW139926   4.722  11.469  12.724  0.2167  0.2744  0.6810
76067SOL    HW239927   4.737  11.399  12.590  2.7690  0.4894  0.8183
76068SOL     OW39928   2.303   1.504  11.312  0.4849 -0.4388 -0.2669
76068SOL    HW139929   2.232   1.441  11.325  0.4822 -0.0277  1.9871
76068SOL    HW239930   2.259   1.582  11.277 -0.0594 -0.4575  0.3577
76069SOL     OW39931   4.620   7.737   8.004  0.0579 -0.0467  0.4603
76069SOL    HW139932   4.692   7.798   8.015  1.7790 -1.7369 -0.7877
76069SOL    HW239933   4.575   7.766   7.924 -0.4258  0.7691  1.0167
76070SOL     OW39934  10.048   2.918  10.278  0.3962 -0.1180  0.0327
76070SOL    HW139935  10.006   2.918  10.192  0.1860 -1.0357  0.1223
76070SOL    HW239936  10.116   2.851  10.271  2.2349  1.6825 -0.2680
76071SOL     OW39937   0.488   8.509   1.446  0.4561  0.2845 -0.3868
76071SOL    HW139938   0.577   8.526   1.478  0.4154  0.2054 -0.2291
76071SOL    HW239939   0.489   8.417   1.420 -0.1267 -0.3070  1.4962
76072SOL     OW39940   4.440   3.115  11.021 -0.2901  0.3543  0.0712
76072SOL    HW139941   4.513   3.171  11.048  0.4120  0.6348 -2.1969
76072SOL    HW239942   4.411   3.152  10.937 -1.9078 -0.7966  0.0708
76073SOL     OW39943   6.983   5.773   9.390  0.3387 -0.2482 -0.5595
76073SOL    HW139944   6.917   5.704   9.379  0.4206 -0.1767 -1.6349
76073SOL    HW239945   7.062   5.737   9.350  1.2197 -0.6753  1.4946
76074SOL     OW39946   1.302   5.131  11.437  0.5865  0.2527 -0.1536
76074SOL    HW139947   1.246   5.113  11.362 -0.9766  2.5056  0.3870
76074SOL    HW239948   1.244   5.168  11.503  2.0514 -0.9224  1.9456
76075SOL     OW39949   5.403  12.682   0.250 -0.4690 -0.7021  0.5829
76075SOL    HW139950   5.337  12.735   0.204 -1.0897 -0.2260  1.9879
76075SOL    HW239951   5.453  12.746   0.301 -1.0673 -1.4300  2.1114
76076SOL     OW39952   1.711   2.998   8.014  0.2359  0.4139 -0.4091
76076SOL    HW139953   1.670   3.064   7.959 -0.4336  1.5058  1.3042
76076SOL    HW239954   1.751   3.048   8.086 -0.3634 -1.0218  0.9895
76077SOL     OW39955   7.328  11.612   7.624 -0.3281 -0.3405 -0.0481
76077SOL    HW139956   7.302  11.568   7.543  0.9528 -2.1838  0.4702
76077SOL    HW239957   7.248  11.616   7.676 -0.8631 -0.3899 -0.8506
76078SOL     OW39958   0.142  12.877   3.663 -0.5477  0.9515  0.4255
76078SOL    HW139959   0.200  12.836   3.728  0.6019  1.7656 -0.0448
76078SOL    HW239960   0.112  12.957   3.706  1.3617  2.2438 -0.4932
76079SOL     OW39961   1.780  12.202  11.067 -0.8032 -0.1905  0.1636
76079SOL    HW139962   1.744  12.116  11.087  0.1197 -0.3959  1.0335
76079SOL    HW239963   1.712  12.245  11.015 -1.2865 -1.4289 -0.2733
76080SOL     OW39964   9.402   7.222   3.795 -0.6164  0.0715  0.2382
76080SOL    HW139965   9.381   7.308   3.760  0.8016  1.3238  2.2597
76080SOL    HW239966   9.495   7.211   3.778 -0.1155  0.2707  2.4934
76081SOL     OW39967  12.109   6.647   7.059 -0.2001 -0.4473 -0.0127
76081SOL    HW139968  12.067   6.563   7.075 -0.8606 -0.1065  0.0658
76081SOL    HW239969  12.071   6.706   7.125  0.7676 -0.2491  0.3865
76082SOL     OW39970   3.708   5.102  10.469 -0.5735 -0.1385 -0.3790
76082SOL    HW139971   3.762   5.146  10.535 -1.3825 -0.1067  0.2785
76082SOL    HW239972   3.687   5.171  10.405 -0.2598 -0.0337 -0.3699
76083SOL     OW39973   8.571   0.748   4.931 -0.0173  0.4343  0.6056
76083SOL    HW139974   8.662   0.728   4.956 -0.7720  0.7140  4.0714
76083SOL    HW239975   8.576   0.835   4.893  1.3259 -0.1963 -0.8069
76084SOL     OW39976  11.089   3.584   2.901  0.2673 -0.6618  0.7734
76084SOL    HW139977  11.161   3.535   2.861  2.8566  2.1517  1.6261
76084SOL    HW239978  11.082   3.549   2.990  3.5977  1.6590  2.1365
76085SOL     OW39979  11.445   4.771  11.846  0.1628  0.5019  0.5047
76085SOL    HW139980  11.385   4.823  11.792  0.4512  0.2265 -0.0835
76085SOL    HW239981  11.524   4.824  11.852  0.3948  0.2100  0.0484
76086SOL     OW39982   0.351  13.598   9.168 -0.0255  0.0736 -0.9779
76086SOL    HW139983   0.426  13.544   9.143 -0.0526 -0.7554  0.5731
76086SOL    HW239984   0.277  13.562   9.119 -0.1609 -1.7609  0.4388
76087SOL     OW39985   4.449   0.435   2.530 -0.6736 -0.0776  0.5231
76087SOL    HW139986   4.466   0.426   2.624  0.7163  1.1313  0.4281
76087SOL    HW239987   4.405   0.520   2.522  1.6006  1.1328 -0.1086
76088SOL     OW39988  11.171   0.269   5.092  0.2546  0.0319 -0.3690
76088SOL    HW139989  11.159   0.323   5.014 -0.3506  1.2603  0.5531
76088SOL    HW239990  11.244   0.308   5.138 -1.2530  1.1739  1.1695
76089SOL     OW39991  10.245   2.539   8.343  0.1120 -0.1475 -0.1390
76089SOL    HW139992  10.229   2.505   8.431 -3.2047  0.5744 -0.3472
76089SOL    HW239993  10.234   2.634   8.351 -1.0578 -0.1374 -1.4284
76090SOL     OW39994   0.170   5.944   7.511 -0.0802 -0.6870 -0.0736
76090SOL    HW139995   0.190   5.866   7.459  0.0300 -0.1110 -0.9130
76090SOL    HW239996   0.197   5.921   7.600  2.8652 -0.5698 -0.8148
76091SOL     OW39997  12.594   3.016   4.079  0.7077 -0.3381  0.4645
76091SOL    HW139998  12.546   3.041   4.000  0.0222  0.3120  1.0743
76091SOL    HW239999  12.648   3.092   4.100  0.5858 -0.3518  0.8428
76092SOL     OW40000  10.099   5.791   8.411  0.6181 -0.1097  0.1984
76092SOL    HW140001  10.151   5.731   8.358  0.3296  0.4197 -0.7036
76092SOL    HW240002  10.128   5.878   8.386  0.4114  0.1563  0.8480
76093SOL     OW40003   9.427  11.668   7.691  0.2450  0.8570 -0.1183
76093SOL    HW140004   9.457  11.749   7.731 -1.5978  1.1460  0.7925
76093SOL    HW240005   9.347  11.692   7.644 -0.9737 -0.5544  1.0826
76094SOL     OW40006   4.896   4.208   5.453  0.3286  0.8410  0.4973
76094SOL    HW140007   4.957   4.134   5.462  1.9536  2.2471  1.8850
76094SOL    HW240008   4.929   4.258   5.379 -0.8599  0.1526 -0.5381
76095SOL     OW40009   6.259   1.709   2.220  0.1115  0.0151 -0.2939
76095SOL    HW140010   6.239   1.792   2.265 -0.5384  0.0621 -0.6638
76095SOL    HW240011   6.234   1.725   2.129 -0.8576 -0.8872 -0.1915
76096SOL     OW40012   4.244   9.583   0.450 -0.1907  0.1203 -0.3050
76096SOL    HW140013   4.203   9.532   0.520  1.8547  1.7321  2.2246
76096SOL    HW240014   4.296   9.649   0.495  0.1735  2.1595 -3.4008
76097SOL     OW40015   4.125  13.311   1.553  0.2655 -0.4738  0.1242
76097SOL    HW140016   4.204  13.266   1.581  1.5184  0.4162 -1.8195
76097SOL    HW240017   4.147  13.349   1.468 -2.0755  0.2717 -0.2241
76098SOL     OW40018   7.284   9.453   1.759 -0.1340  0.8683 -0.2443
76098SOL    HW140019   7.277   9.423   1.668  0.0252 -0.3310  0.1214
76098SOL    HW240020   7.210   9.412   1.804 -0.1509  1.3698  0.1913
76099SOL     OW40021   6.251   2.400   0.274 -0.3931  0.2566 -0.1308
76099SOL    HW140022   6.276   2.492   0.266 -1.0884  0.4150 -0.5822
76099SOL    HW240023   6.164   2.395   0.235  0.2395 -0.8680 -1.4924
76100SOL     OW40024   0.759   0.769   8.399 -0.8148 -0.1213  0.1431
76100SOL    HW140025   0.816   0.712   8.346 -1.9343 -0.8476 -0.3145
76100SOL    HW240026   0.757   0.852   8.352 -0.9133 -0.4069 -0.3614
76101SOL     OW40027  12.591   9.876  11.713  0.2704  0.0609 -0.2951
76101SOL    HW140028  12.506   9.841  11.740  0.3032  0.4606  0.3554
76101SOL    HW240029  12.650   9.800  11.713 -0.1419 -0.2598 -0.9894
76102SOL     OW40030   7.373   1.972  13.457  0.0113 -0.3503 -0.4841
76102SOL    HW140031   7.360   1.914  13.532  0.4800 -0.3806 -0.4244
76102SOL    HW240032   7.301   1.951  13.397 -0.9827  0.3860  0.3963
76103SOL     OW40033  13.670   2.374   9.159 -0.6470 -0.2710  0.0477
76103SOL    HW140034  13.648   2.398   9.249  0.8582  0.8023  0.1578
76103SOL    HW240035  13.602   2.311   9.134 -1.4763 -0.0794  1.6914
76104SOL     OW40036   9.081   2.407   9.069 -0.1695  0.0215  0.0415
76104SOL    HW140037   9.082   2.430   8.976  0.3542  0.7119  0.2136
76104SOL    HW240038   9.078   2.491   9.115 -0.5520 -0.3153  0.6548
76105SOL     OW40039   0.161  10.550  11.209  0.0644 -0.1189  0.2668
76105SOL    HW140040   0.074  10.589  11.199  0.4990  0.9679  0.4969
76105SOL    HW240041   0.196  10.591  11.289  1.2877  0.4896 -0.5464
76106SOL     OW40042   1.138   9.446   6.621  0.4869 -0.0129 -0.3094
76106SOL    HW140043   1.151   9.365   6.571 -1.6075  0.7090 -2.1575
76106SOL    HW240044   1.210   9.503   6.594  0.0837 -0.0788 -1.5576
76107SOL     OW40045  11.339  10.566  11.567 -0.4341  0.1356 -0.3515
76107SOL    HW140046  11.389  10.646  11.550 -0.9285  0.6888  0.7171
76107SOL    HW240047  11.258  10.578  11.516 -0.6487  0.4801  0.0573
76108SOL     OW40048  10.689   4.632   1.268  0.6178  0.0784 -0.1543
76108SOL    HW140049  10.722   4.583   1.192 -2.3025 -0.2527 -1.3580
76108SOL    HW240050  10.718   4.581   1.343  0.3519 -1.7956 -1.2522
76109SOL     OW40051   0.320  12.275   8.027 -0.1533  0.6396 -0.2310
76109SOL    HW140052   0.283  12.349   7.979 -0.6954  1.0947  0.8700
76109SOL    HW240053   0.411  12.302   8.045  0.0325  0.4965 -0.9190
76110SOL     OW40054   6.519   5.146  13.292 -0.2541 -0.1543 -0.4819
76110SOL    HW140055   6.599   5.120  13.247  0.9750  0.0235  1.4899
76110SOL    HW240056   6.503   5.075  13.355  1.2224  2.0252  2.5826
76111SOL     OW40057   2.547  13.485   3.232 -0.0987 -0.5412 -0.7073
76111SOL    HW140058   2.624  13.534   3.202  0.0757 -0.1282  0.3581
76111SOL    HW240059   2.522  13.529   3.314  0.1739 -2.3423  0.3809
76112SOL     OW40060   7.041   3.576   9.178 -0.5113  0.3729 -0.3345
76112SOL    HW140061   6.955   3.535   9.184  0.1234 -1.0915 -0.9028
76112SOL    HW240062   7.099   3.519   9.228  0.2903  0.8940 -0.6496
76113SOL     OW40063   1.485   0.751   9.578  0.5844  0.4817  0.0047
76113SOL    HW140064   1.432   0.690   9.629  0.3811  0.4656 -0.2265
76113SOL    HW240065   1.538   0.797   9.643 -1.5816  2.3938  0.5426
76114SOL     OW40066  11.343   7.136   9.214  0.3232  0.1489 -0.0598
76114SOL    HW140067  11.261   7.185   9.221  0.5094  0.5163 -0.4210
76114SOL    HW240068  11.392   7.161   9.292 -0.2032 -0.6349  0.5385
76115SOL     OW40069   9.479   8.861   2.328 -0.2646  0.5948 -0.2373
76115SOL    HW140070   9.424   8.892   2.399  0.6066 -1.2166  1.3102
76115SOL    HW240071   9.417   8.832   2.261 -1.0993  2.1466 -0.1777
76116SOL     OW40072  11.485  13.665   2.784 -0.2478  0.0970  0.1849
76116SOL    HW140073  11.508  13.670   2.692  1.7863  4.2519  0.6452
76116SOL    HW240074  11.569  13.658   2.830 -0.8963  1.4712  1.7176
76117SOL     OW40075   0.833   8.827  11.704  0.0396 -0.1101  0.1195
76117SOL    HW140076   0.746   8.868  11.711 -0.7084 -1.4451 -0.8433
76117SOL    HW240077   0.891   8.885  11.753 -0.9574  2.0700 -1.1361
76118SOL     OW40078   2.925   7.710   9.234  0.3487  0.0345 -0.2085
76118SOL    HW140079   2.899   7.792   9.276  1.3261  0.1175  0.2594
76118SOL    HW240080   2.891   7.717   9.145  0.4447  0.9580 -0.1831
76119SOL     OW40081   6.657  11.607   9.033  0.3223 -0.2586  0.1408
76119SOL    HW140082   6.626  11.553   8.960  1.6026 -0.9403  0.0670
76119SOL    HW240083   6.578  11.629   9.082 -0.2863 -1.8665 -0.0584
76120SOL     OW40084   0.780  10.607   0.675  0.1803 -0.3701  0.4031
76120SOL    HW140085   0.808  10.565   0.593 -1.0863 -0.4771 -0.0005
76120SOL    HW240086   0.753  10.534   0.731 -1.6342 -0.1814 -0.1479
76121SOL     OW40087   1.401   5.288   1.051  0.1193 -0.4842 -0.3696
76121SOL    HW140088   1.353   5.287   0.968 -2.0054  1.4421  0.7245
76121SOL    HW240089   1.491   5.264   1.027  0.1178  2.0458 -3.5758
76122SOL     OW40090   0.702   3.422   0.454  0.2672  0.0132  0.5353
76122SOL    HW140091   0.625   3.478   0.465  0.8530  0.7794  0.7527
76122SOL    HW240092   0.774   3.482   0.438  0.8453 -0.6979  0.4171
76123SOL     OW40093   4.073  13.078   9.834  0.1984 -0.2502  0.3364
76123SOL    HW140094   4.021  13.119   9.765 -0.7883 -1.2192  0.4808
76123SOL    HW240095   4.099  13.150   9.891  0.2546  0.4389 -0.5340
76124SOL     OW40096  11.959  10.063  13.685  0.5451  0.0792  0.8583
76124SOL    HW140097  12.006  10.080  13.604  0.4178  1.9122  1.1254
76124SOL    HW240098  11.956   9.968  13.692 -1.2561 -0.2373 -2.3537
76125SOL     OW40099   6.042   5.875   5.651  0.3165  0.0494 -0.1853
76125SOL    HW140100   6.071   5.955   5.607 -0.7511  0.2711 -0.5086
76125SOL    HW240101   5.990   5.906   5.726 -0.3814 -0.3342 -0.5012
76126SOL     OW40102   9.452  11.531   2.882  0.0380 -0.2394  0.5031
76126SOL    HW140103   9.499  11.462   2.929 -0.2781 -2.0003 -1.5922
76126SOL    HW240104   9.376  11.551   2.938  1.5743  0.4900  2.4712
76127SOL     OW40105   4.363   3.354   5.821 -0.1169 -0.3170 -0.3779
76127SOL    HW140106   4.439   3.299   5.843  0.4878  0.1967 -1.1375
76127SOL    HW240107   4.318   3.306   5.751  0.0605 -0.1407 -0.6111
76128SOL     OW40108  10.827   4.624   0.739 -0.4274 -0.3323 -0.3787
76128SOL    HW140109  10.903   4.585   0.782 -1.1669  0.4194  1.7279
76128SOL    HW240110  10.863   4.695   0.687  0.2240  1.2244  2.0554
76129SOL     OW40111   9.058   1.855   4.963 -0.5437 -0.1914  0.1841
76129SOL    HW140112   8.970   1.861   4.924  0.0138  2.5961 -0.8903
76129SOL    HW240113   9.118   1.868   4.890  0.7836 -1.1186  1.0550
76130SOL     OW40114   5.817   9.794   9.023  0.1415  0.0433 -0.2004
76130SOL    HW140115   5.835   9.723   9.085 -0.3755 -0.1999 -0.3280
76130SOL    HW240116   5.830   9.874   9.075  1.7224 -0.1027 -0.3197
76131SOL     OW40117   0.615   4.253   2.494  0.0130 -0.1976  0.1425
76131SOL    HW140118   0.525   4.221   2.503  1.0322 -4.5468 -2.1737
76131SOL    HW240119   0.665   4.205   2.560  1.2683 -1.6588 -1.7509
76132SOL     OW40120  11.337   6.975   4.910  0.2001 -0.6275 -0.4069
76132SOL    HW140121  11.392   6.961   4.987 -1.4824 -0.4899  0.8886
76132SOL    HW240122  11.315   7.068   4.913 -3.0761 -1.2775  1.3511
76133SOL     OW40123  13.654  11.538   7.279  0.1306 -0.2255 -0.1639
76133SOL    HW140124  13.623  11.468   7.337  1.3435  0.7033  1.7381
76133SOL    HW240125  13.705  11.595   7.337 -0.0611  1.7456 -1.8261
76134SOL     OW40126   6.703   9.207  12.424 -0.2815 -0.2071  0.2075
76134SOL    HW140127   6.707   9.171  12.513  1.4721  1.5361  0.9234
76134SOL    HW240128   6.795   9.218  12.399 -0.7445 -0.2948 -1.6919
76135SOL     OW40129   7.467   3.813   6.691 -0.3470  0.2092  0.9282
76135SOL    HW140130   7.402   3.751   6.723  0.2095 -0.9091 -0.0401
76135SOL    HW240131   7.547   3.761   6.678 -0.4366  0.5857 -1.9281
76136SOL     OW40132   7.485   9.971   1.086 -0.0947  0.2854  0.4652
76136SOL    HW140133   7.483  10.044   1.023 -0.4737 -0.6814 -0.6861
76136SOL    HW240134   7.397   9.971   1.125 -0.3986 -0.0966 -0.1987
76137SOL     OW40135   9.745   6.405   5.303  0.1623  0.2197  0.0207
76137SOL    HW140136   9.664   6.400   5.252 -1.8695  0.6921  2.9869
76137SOL    HW240137   9.771   6.497   5.297 -0.5357  0.4571  0.4689
76138SOL     OW40138   7.132   0.018   5.381  0.0448 -0.5889  0.4785
76138SOL    HW140139   7.108   0.069   5.458 -2.8097 -3.1020  1.3929
76138SOL    HW240140   7.212  -0.027   5.407 -0.0231 -0.2220  1.3742
76139SOL     OW40141   1.886   6.516   4.520 -0.2433  0.7879  0.2020
76139SOL    HW140142   1.852   6.464   4.592 -0.2788 -0.3740 -0.6311
76139SOL    HW240143   1.966   6.470   4.493 -1.5200 -0.2297 -2.0790
76140SOL     OW40144  13.318  13.343   8.108 -0.3092 -0.2325  0.4296
76140SOL    HW140145  13.391  13.282   8.093  0.0126  0.1360  0.4774
76140SOL    HW240146  13.248  13.310   8.053 -0.1813 -0.7242  0.5541
76141SOL     OW40147   1.403   9.189   6.741  0.0155 -0.1155  0.4442
76141SOL    HW140148   1.463   9.263   6.731 -0.7404  0.3925 -0.6243
76141SOL    HW240149   1.446   9.131   6.803  0.4583  1.4066  1.6356
76142SOL     OW40150   4.824   0.399   1.439 -0.3682  0.4383  0.4685
76142SOL    HW140151   4.771   0.478   1.443  1.0327  1.3742  2.1250
76142SOL    HW240152   4.775   0.334   1.489 -0.7572  0.7469  0.4921
76143SOL     OW40153  12.258  13.092   7.709 -0.4519 -0.5296  1.0290
76143SOL    HW140154  12.351  13.079   7.692 -0.4336  0.5047  0.2319
76143SOL    HW240155  12.224  13.129   7.628 -1.5739 -0.9259  1.2992
76144SOL     OW40156   4.005  11.499   8.719  0.3118  0.0431 -0.0023
76144SOL    HW140157   3.913  11.523   8.732  0.5301  0.4819  0.8641
76144SOL    HW240158   4.054  11.580   8.739  1.0075 -0.7986  2.0180
76145SOL     OW40159   9.288  11.420   8.659 -0.2177  0.4372 -0.1899
76145SOL    HW140160   9.314  11.500   8.614 -0.8609  1.0820  0.5530
76145SOL    HW240161   9.363  11.400   8.715  1.2827 -1.2630 -2.5941
76146SOL     OW40162  10.982  11.813   5.323 -0.0341  0.0210  0.0165
76146SOL    HW140163  10.934  11.865   5.387  2.0449 -0.0616  1.7137
76146SOL    HW240164  11.004  11.732   5.369 -0.6095 -1.1287 -1.6219
76147SOL     OW40165   5.725  12.071   1.851 -0.0375 -0.1137  0.5599
76147SOL    HW140166   5.641  12.080   1.806  0.0487 -0.1054  0.3999
76147SOL    HW240167   5.731  12.148   1.907 -0.3390 -0.3424  0.9035
76148SOL     OW40168  11.863   0.167   7.920 -0.0629  0.4994 -0.0469
76148SOL    HW140169  11.884   0.257   7.895 -1.6492  0.6434 -0.9895
76148SOL    HW240170  11.949   0.126   7.935  0.6615  2.4653  1.6691
76149SOL     OW40171   6.790   1.862  11.198 -0.2378 -0.0773 -0.2398
76149SOL    HW140172   6.801   1.783  11.146 -0.4226 -0.3844  0.1822
76149SOL    HW240173   6.789   1.933  11.134 -0.1867 -0.4246 -0.6303
76150SOL     OW40174   1.141   9.772   7.427  0.3561 -0.3071 -0.2873
76150SOL    HW140175   1.163   9.706   7.362 -0.0576 -0.4427 -0.2936
76150SOL    HW240176   1.077   9.828   7.383  1.8166  1.0157 -0.8239
76151SOL     OW40177  12.672   1.959   2.983 -0.3176 -0.5099 -0.3098
76151SOL    HW140178  12.653   1.964   2.890  0.5835  1.1526 -0.4433
76151SOL    HW240179  12.606   2.015   3.024  1.2378  1.4321 -0.3185
76152SOL     OW40180   5.752  10.156   4.961 -0.0122  0.2534 -0.0278
76152SOL    HW140181   5.697  10.090   4.920 -1.4284  1.3376  0.0528
76152SOL    HW240182   5.804  10.107   5.025 -3.2566 -0.4846  2.3433
76153SOL     OW40183  11.264   7.439   9.438  0.1791 -0.5654  0.3217
76153SOL    HW140184  11.300   7.510   9.384 -0.3021  0.4177  1.2717
76153SOL    HW240185  11.339   7.404   9.484  0.4117 -0.6464 -0.1099
76154SOL     OW40186   9.444   1.803   7.237 -0.3048 -0.2850 -0.5070
76154SOL    HW140187   9.409   1.717   7.263  2.2986 -1.4638 -0.5178
76154SOL    HW240188   9.498   1.829   7.312  0.3880  0.4464 -1.2479
76155SOL     OW40189   8.040   7.867   3.922 -0.3119  0.4732  0.1679
76155SOL    HW140190   8.076   7.805   3.859  0.4112  0.7884  0.2519
76155SOL    HW240191   8.044   7.822   4.006  1.5773  1.1152  0.4749
76156SOL     OW40192   7.699   1.855   9.518 -0.2618 -0.3111 -0.0335
76156SOL    HW140193   7.732   1.903   9.443 -0.9588  0.3159  0.0533
76156SOL    HW240194   7.688   1.765   9.486 -0.4440 -0.0760 -0.6465
76157SOL     OW40195   6.691   5.027   8.118 -0.0343  0.4697 -0.5348
76157SOL    HW140196   6.663   4.939   8.092 -0.0412  0.4025 -0.3016
76157SOL    HW240197   6.726   5.016   8.206 -2.5724  1.1530  0.6570
76158SOL     OW40198   2.466   0.417   9.801 -0.4328 -0.0081 -0.0683
76158SOL    HW140199   2.410   0.494   9.788 -0.0538  0.3172  0.2077
76158SOL    HW240200   2.515   0.410   9.718  0.1395  0.5529  0.2123
76159SOL     OW40201   2.305   6.569  11.171  0.1612 -0.4288  0.1143
76159SOL    HW140202   2.299   6.581  11.077  0.3874 -2.5641 -0.2209
76159SOL    HW240203   2.231   6.512  11.193 -0.3445  0.6700  1.3635
76160SOL     OW40204  11.951  11.396  10.418  0.1094 -0.0806  0.0949
76160SOL    HW140205  11.904  11.479  10.418 -0.2668 -0.2850  0.7361
76160SOL    HW240206  11.892  11.335  10.461 -0.7983 -1.3757 -2.7122
76161SOL     OW40207   1.157   7.786   2.330  0.0675  0.0790  0.4382
76161SOL    HW140208   1.193   7.844   2.263 -0.7303 -0.0035 -0.0731
76161SOL    HW240209   1.065   7.778   2.307  0.1623 -1.3767  0.5092
76162SOL     OW40210   6.027   5.710  10.719  0.1904  0.5396  0.5898
76162SOL    HW140211   6.017   5.615  10.726 -0.0603  0.5339  0.1605
76162SOL    HW240212   5.943   5.745  10.747  0.1697  0.6221  0.4233
76163SOL     OW40213   6.165  10.885   0.954 -0.4045  0.1506 -0.0345
76163SOL    HW140214   6.166  10.933   1.037 -1.1077  0.2734 -0.0914
76163SOL    HW240215   6.236  10.821   0.962  0.5374  1.1905  0.0443
76164SOL     OW40216  12.280  13.350   1.683 -0.6145 -0.5393 -0.1785
76164SOL    HW140217  12.374  13.372   1.690 -0.2869 -0.4534 -3.4792
76164SOL    HW240218  12.236  13.435   1.685 -0.4307 -0.4299 -0.6551
76165SOL     OW40219   6.769   7.095   6.397 -0.4475 -0.1900  0.0930
76165SOL    HW140220   6.716   7.174   6.384 -0.7282 -0.4878 -0.6348
76165SOL    HW240221   6.722   7.046   6.464 -0.0921  0.4138  0.7922
76166SOL     OW40222   1.591   4.297   3.741  0.0273 -0.0175  0.2410
76166SOL    HW140223   1.558   4.262   3.823 -0.8590 -1.8011 -0.8305
76166SOL    HW240224   1.624   4.384   3.764 -1.2802  0.0143  2.2370
76167SOL     OW40225   0.361   7.375   5.167 -0.0117 -0.1998  0.1658
76167SOL    HW140226   0.331   7.465   5.156  0.9885 -0.0868 -2.1719
76167SOL    HW240227   0.337   7.353   5.257  0.4344  2.6393  1.0726
76168SOL     OW40228   3.228  13.209   3.355 -0.8585 -0.3864 -0.0531
76168SOL    HW140229   3.256  13.219   3.446 -2.4673  1.5136  0.3210
76168SOL    HW240230   3.308  13.186   3.307  0.3993  0.4334  1.5568
76169SOL     OW40231  11.905   3.214   3.419 -0.4032 -0.1110  0.3540
76169SOL    HW140232  11.925   3.267   3.496  1.4119 -0.0299 -0.1338
76169SOL    HW240233  11.959   3.136   3.429 -1.0404 -0.6416 -0.2672
76170SOL     OW40234   9.659   2.130   0.158 -0.8971 -0.5399 -0.0130
76170SOL    HW140235   9.678   2.140   0.065  0.9805 -0.3506  0.3648
76170SOL    HW240236   9.740   2.098   0.196 -1.4872 -0.1308  1.6509
76171SOL     OW40237   9.933   7.409   0.622  0.1882  0.1871 -0.6594
76171SOL    HW140238   9.959   7.387   0.712  1.5916 -0.4455 -1.1924
76171SOL    HW240239   9.877   7.485   0.632 -1.9655 -1.4817  0.9733
76172SOL     OW40240  11.104   5.887   1.082 -0.1177 -0.1552 -0.2245
76172SOL    HW140241  11.096   5.835   1.002  2.0244 -0.6493 -0.1930
76172SOL    HW240242  11.091   5.825   1.153 -1.9676  0.2730 -0.1522
76173SOL     OW40243   3.980   2.891   3.234 -0.1356  0.6052 -0.3200
76173SOL    HW140244   4.071   2.867   3.247 -0.3438 -0.0552 -0.0401
76173SOL    HW240245   3.932   2.840   3.299 -0.4452  3.2684  1.7179
76174SOL     OW40246   2.235  12.959   8.662  0.3692  0.5039 -0.2451
76174SOL    HW140247   2.281  12.942   8.580  1.1183 -0.0221  0.2808
76174SOL    HW240248   2.303  12.982   8.724 -0.1170  0.1558  0.4311
76175SOL     OW40249  11.413   4.046  11.901 -0.3342 -0.4507 -0.8837
76175SOL    HW140250  11.464   3.980  11.855 -0.3006  0.2119 -1.8375
76175SOL    HW240251  11.477   4.092  11.956  0.0557  0.1706 -1.8334
76176SOL     OW40252   2.928   7.160   8.157  0.1276  0.1505  0.2959
76176SOL    HW140253   2.879   7.087   8.119 -0.3665  0.7900 -0.3119
76176SOL    HW240254   2.980   7.195   8.085  0.2135  0.5248  0.5336
76177SOL     OW40255   1.541  10.989   4.019  0.1957 -0.6197 -0.8848
76177SOL    HW140256   1.502  11.070   3.989  0.0206 -0.1502  0.5647
76177SOL    HW240257   1.635  11.000   4.001  0.5832  1.0544  1.6775
76178SOL     OW40258   7.639  10.653  10.324 -0.4403  0.0268 -0.3728
76178SOL    HW140259   7.564  10.596  10.306  0.3015 -0.5225 -1.9015
76178SOL    HW240260   7.601  10.736  10.352 -1.6558 -0.0107 -1.8178
76179SOL     OW40261   9.074  12.881  13.266  0.7508  0.0240 -0.7217
76179SOL    HW140262   8.993  12.858  13.311  0.7679 -0.5150 -0.9594
76179SOL    HW240263   9.097  12.967  13.301  1.5527 -0.9958  1.4180
76180SOL     OW40264   7.869  13.393   1.091 -0.0283 -0.0353 -0.2736
76180SOL    HW140265   7.848  13.315   1.039  1.1098 -0.9976  0.6599
76180SOL    HW240266   7.830  13.376   1.176 -1.4260  1.3030 -0.6190
76181SOL     OW40267   1.773  12.160  13.733 -0.6921  0.6372  0.5043
76181SOL    HW140268   1.681  12.139  13.718 -0.4598  0.6184 -1.1623
76181SOL    HW240269   1.819  12.076  13.722 -0.4295  0.7360  0.8326
76182SOL     OW40270   1.154  10.589  13.138  0.1429  0.0658 -0.0687
76182SOL    HW140271   1.231  10.645  13.123  0.2652 -0.5597 -2.0610
76182SOL    HW240272   1.082  10.651  13.150  0.6989  0.6504  0.3785
76183SOL     OW40273   7.453   9.735   0.296 -0.7730 -0.4435 -0.1376
76183SOL    HW140274   7.525   9.690   0.339 -0.2234 -1.2062 -1.7861
76183SOL    HW240275   7.376   9.682   0.318 -0.6121 -0.4552  0.4212
76184SOL     OW40276   9.595   9.154  11.451 -0.0511 -0.2108 -0.4777
76184SOL    HW140277   9.602   9.198  11.536  0.3378  1.0322 -1.1163
76184SOL    HW240278   9.600   9.061  11.471 -2.7626 -0.0910  1.1337
76185SOL     OW40279  12.352  13.449  10.755  0.0834  0.5492  0.1065
76185SOL    HW140280  12.258  13.453  10.736  0.0718 -0.7974 -0.2742
76185SOL    HW240281  12.359  13.478  10.846 -0.3615  3.1989 -0.6299
76186SOL     OW40282   4.460   8.337   6.315 -0.2218 -0.0903  0.0526
76186SOL    HW140283   4.499   8.305   6.234 -1.4391 -1.3019 -0.0956
76186SOL    HW240284   4.443   8.430   6.299 -3.0250 -0.8444 -2.2128
76187SOL     OW40285   7.520   5.952   7.113  0.6268  0.2927  0.1071
76187SOL    HW140286   7.488   6.006   7.042 -1.3752 -2.1230 -0.9814
76187SOL    HW240287   7.585   6.006   7.158 -0.9123  3.3656 -1.1105
76188SOL     OW40288   1.731   9.655  12.928 -0.0502 -0.1705 -0.0105
76188SOL    HW140289   1.675   9.674  13.004 -1.0646 -0.0074 -0.7859
76188SOL    HW240290   1.757   9.740  12.895 -0.4703 -0.2151 -0.4659
76189SOL     OW40291   4.464   9.269   7.781 -0.2040 -0.2281 -0.0046
76189SOL    HW140292   4.492   9.354   7.747  1.2608 -0.5947  0.1819
76189SOL    HW240293   4.401   9.290   7.850 -0.4704  0.6605 -0.5050
76190SOL     OW40294  13.478   6.342   1.306  0.4801  0.1132 -0.4514
76190SOL    HW140295  13.412   6.399   1.265  1.0407  1.5430  0.5774
76190SOL    HW240296  13.560   6.367   1.265  0.6603 -0.4057 -0.4242
76191SOL     OW40297  13.643   4.648   4.290  0.0829  0.5100  0.8294
76191SOL    HW140298  13.619   4.740   4.305  0.9057  0.8765  0.0369
76191SOL    HW240299  13.720   4.634   4.345 -0.4604  0.0724  1.4904
76192SOL     OW40300  12.047   1.395   7.398  0.5209  0.0737  0.0354
76192SOL    HW140301  11.959   1.381   7.364  0.3135  1.7810 -0.2208
76192SOL    HW240302  12.037   1.389   7.493 -0.5259  3.1207  0.2254
76193SOL     OW40303   3.379   3.671   7.940 -0.4149  0.0344 -0.0615
76193SOL    HW140304   3.297   3.690   7.894 -0.2956 -1.2218 -0.8306
76193SOL    HW240305   3.366   3.584   7.978  0.4140 -0.0042  0.1597
76194SOL     OW40306   8.027   5.066   6.874 -0.2327 -0.1366  0.2065
76194SOL    HW140307   8.073   5.128   6.817 -0.9517  0.1166 -0.1137
76194SOL    HW240308   8.037   5.104   6.962 -0.2753  0.1957  0.0721
76195SOL     OW40309   2.440  11.870   3.210  0.2630 -0.3021 -0.7518
76195SOL    HW140310   2.419  11.780   3.186 -0.3046 -0.9512  1.8867
76195SOL    HW240311   2.536  11.874   3.206  0.4195 -1.5951  0.7792
76196SOL     OW40312  13.394   7.796   2.715  0.5585  0.5786  0.3048
76196SOL    HW140313  13.389   7.864   2.782 -1.3639 -0.2532  1.1070
76196SOL    HW240314  13.362   7.838   2.635 -0.7793  0.6019  0.8315
76197SOL     OW40315   2.517  11.038   2.342 -0.7751 -0.1239  0.2969
76197SOL    HW140316   2.458  11.073   2.276 -1.4438 -0.1055  0.8894
76197SOL    HW240317   2.460  10.990   2.402 -0.0486 -0.9900  0.3044
76198SOL     OW40318  10.132   4.981   9.310 -0.0435 -0.3431  0.4331
76198SOL    HW140319  10.221   4.946   9.319 -0.4934 -1.4996  0.5105
76198SOL    HW240320  10.115   5.027   9.392 -0.2869 -1.9448  1.3120
76199SOL     OW40321  11.133   4.363   8.654  0.3253  0.0816 -0.1672
76199SOL    HW140322  11.155   4.425   8.724  0.0424 -0.7772  0.7010
76199SOL    HW240323  11.161   4.407   8.574  2.6238  0.2320  0.6335
76200SOL     OW40324   1.029   1.029   8.685  0.2315  0.0637 -0.5158
76200SOL    HW140325   1.045   0.966   8.754 -1.7086 -0.0272 -0.1084
76200SOL    HW240326   0.936   1.049   8.690 -0.2106 -0.6311 -3.6626
76201SOL     OW40327   9.976  11.306  12.906 -0.1826  0.0966  0.5742
76201SOL    HW140328   9.953  11.257  12.985  1.6943  0.8447  1.6513
76201SOL    HW240329  10.065  11.278  12.886  0.0195  1.2578 -0.2305
76202SOL     OW40330  10.509   1.106   5.585  0.6847  0.4520  0.2453
76202SOL    HW140331  10.483   1.189   5.624 -0.1867 -1.3282  3.9289
76202SOL    HW240332  10.452   1.041   5.627  0.8795 -2.0258 -2.9176
76203SOL     OW40333   4.675   4.151   8.148  0.4507  0.7087 -0.0339
76203SOL    HW140334   4.611   4.145   8.076 -0.8301 -0.6864  1.1309
76203SOL    HW240335   4.713   4.063   8.152  0.2541  0.6742  1.1993
76204SOL     OW40336   2.672   4.220   2.068  0.2244  0.0377  0.7441
76204SOL    HW140337   2.635   4.207   1.981 -0.4690  0.8611  0.9075
76204SOL    HW240338   2.735   4.291   2.057  2.5929 -1.9607  0.2586
76205SOL     OW40339   6.777  12.454  13.403 -0.2944  0.1139  0.6858
76205SOL    HW140340   6.867  12.485  13.414  0.1860 -0.1616 -1.7348
76205SOL    HW240341   6.787  12.367  13.363 -1.6377 -0.1998  1.0012
76206SOL     OW40342   6.836  11.925  11.955  0.1123 -0.4101 -0.9143
76206SOL    HW140343   6.751  11.914  11.998  0.7665  0.2477  0.6279
76206SOL    HW240344   6.815  11.927  11.862 -1.2763 -2.8504 -0.7399
76207SOL     OW40345   4.737   2.895  13.737  0.7431  0.0433  0.1018
76207SOL    HW140346   4.831   2.884  13.748  0.6535 -0.5255  0.3051
76207SOL    HW240347   4.722   2.879  13.644  0.8119 -0.1077  0.1168
76208SOL     OW40348   6.723  10.160   2.413 -1.0108 -0.4798  0.9681
76208SOL    HW140349   6.743  10.070   2.387  2.2004  0.1051  1.0960
76208SOL    HW240350   6.681  10.198   2.336 -1.1531 -1.6980  0.4207
76209SOL     OW40351   4.183   0.493   7.913 -0.4167 -0.1736  0.1189
76209SOL    HW140352   4.229   0.542   7.845  0.8551 -1.6586 -0.1648
76209SOL    HW240353   4.090   0.512   7.898 -0.0948  0.3556 -1.3695
76210SOL     OW40354   2.301   9.824   4.442 -0.2083 -0.7720  0.1874
76210SOL    HW140355   2.269   9.903   4.399 -1.9971 -0.0352  2.6418
76210SOL    HW240356   2.222   9.777   4.469  0.8047 -1.9178  1.3147
76211SOL     OW40357   7.202   9.446   9.860 -0.5064 -0.1589 -0.3210
76211SOL    HW140358   7.228   9.512   9.796  0.8091  0.0547  0.3858
76211SOL    HW240359   7.107   9.445   9.856 -0.6212  2.1854  0.0039
76212SOL     OW40360   9.438   8.208  13.065  0.3345  0.0892 -0.4285
76212SOL    HW140361   9.389   8.125  13.065 -2.5537  1.6803 -0.6760
76212SOL    HW240362   9.453   8.227  12.972  1.9016 -0.5736 -0.3505
76213SOL     OW40363   1.482  10.600   2.047  0.1744 -0.3999 -0.6891
76213SOL    HW140364   1.514  10.544   2.118  0.3316  0.2943 -0.2011
76213SOL    HW240365   1.401  10.558   2.018  1.7166 -2.4843 -2.3048
76214SOL     OW40366   3.846   0.457   0.066  0.4574 -0.3903  0.1040
76214SOL    HW140367   3.815   0.404   0.139 -0.9124  0.6113  0.2860
76214SOL    HW240368   3.821   0.408  -0.012 -0.4686 -0.2175  0.2770
76215SOL     OW40369  11.639   8.126   4.226  0.3653 -0.1928 -0.8294
76215SOL    HW140370  11.587   8.207   4.232 -0.2634 -0.7202  3.8073
76215SOL    HW240371  11.717   8.144   4.278 -0.2926 -2.7870  1.2576
76216SOL     OW40372  11.363   5.508   5.270 -0.0111  0.2566  0.2204
76216SOL    HW140373  11.405   5.476   5.349 -0.3248 -0.6342  0.0326
76216SOL    HW240374  11.300   5.573   5.301  0.5505  0.6200  0.6116
76217SOL     OW40375   8.644   3.521  10.565  0.2266 -0.8769  0.0208
76217SOL    HW140376   8.591   3.464  10.619  0.7786 -2.3928 -0.9621
76217SOL    HW240377   8.622   3.496  10.475  0.2105  0.7330 -0.4577
76218SOL     OW40378   1.084   9.093   7.906 -1.0211  0.0327  0.2455
76218SOL    HW140379   1.011   9.155   7.898  0.0848  1.3057 -0.2965
76218SOL    HW240380   1.162   9.145   7.887  0.2818 -0.7409  2.9688
76219SOL     OW40381   7.210   1.293   3.790  0.4748  0.0419  0.1821
76219SOL    HW140382   7.185   1.227   3.725  1.3140 -0.0469 -0.0667
76219SOL    HW240383   7.179   1.257   3.873  0.6833 -0.5429  0.0118
76220SOL     OW40384   7.132   8.913   4.379  0.6353 -0.4436  0.0189
76220SOL    HW140385   7.205   8.937   4.436  0.3054  0.0298  0.2483
76220SOL    HW240386   7.173   8.874   4.301  1.2695  1.9982 -0.9419
76221SOL     OW40387  13.030   0.210  12.765  0.3135  0.4756  0.3377
76221SOL    HW140388  12.948   0.257  12.783  0.1655  0.7847 -0.9854
76221SOL    HW240389  13.073   0.264  12.699  0.0555 -1.3089 -1.3882
76222SOL     OW40390   2.810   5.710   5.822 -0.1441 -0.8084 -0.6857
76222SOL    HW140391   2.863   5.790   5.822  0.6971 -1.3441 -1.9503
76222SOL    HW240392   2.803   5.685   5.730 -0.0793 -2.3987 -0.2874
76223SOL     OW40393   2.095   3.089   4.801  0.3646  0.5129  0.1069
76223SOL    HW140394   2.084   3.142   4.723  0.4481  2.3158  1.2732
76223SOL    HW240395   2.113   3.151   4.871 -1.4467 -0.8701  1.9389
76224SOL     OW40396   1.537   3.182  11.621 -1.2965  0.2420 -0.2922
76224SOL    HW140397   1.608   3.154  11.564 -0.4163 -1.1283  1.3725
76224SOL    HW240398   1.459   3.141  11.584 -0.6520 -1.1169 -0.2095
76225SOL     OW40399  11.179  10.708   3.795 -0.2961  0.7322 -0.1537
76225SOL    HW140400  11.254  10.747   3.839 -0.3263 -1.0411  1.6072
76225SOL    HW240401  11.103  10.745   3.841 -0.3131 -1.9057  2.1983
76226SOL     OW40402  11.835   7.429   4.693  0.3057  0.4372 -0.3744
76226SOL    HW140403  11.815   7.377   4.770  0.0249  2.6938  1.1635
76226SOL    HW240404  11.930   7.443   4.698  0.4487 -0.2473 -1.0174
76227SOL     OW40405   8.081   0.306   8.588 -0.0458  0.0531  0.0049
76227SOL    HW140406   8.116   0.321   8.500  3.7790  1.5060  1.5648
76227SOL    HW240407   8.133   0.233   8.622  0.3640  1.2045  1.9334
76228SOL     OW40408   8.365  12.386   6.804 -0.3553  0.1309  0.2266
76228SOL    HW140409   8.385  12.477   6.781  0.4337 -0.3323 -1.0273
76228SOL    HW240410   8.429  12.334   6.754 -1.4506 -1.1696  0.1266
76229SOL     OW40411   1.425  13.157   1.209 -0.0054  0.0101  0.5102
76229SOL    HW140412   1.426  13.234   1.152  4.3510  0.5740  1.0189
76229SOL    HW240413   1.494  13.101   1.175  0.8543 -0.9248  3.4831
76230SOL     OW40414   0.549  12.849   2.810 -0.0335 -0.9052 -0.5644
76230SOL    HW140415   0.567  12.787   2.880 -0.4609 -1.7360 -1.1678
76230SOL    HW240416   0.456  12.836   2.791 -0.8114  1.7202  1.0116
76231SOL     OW40417   0.660  13.355  13.101  0.1780  0.2635  0.0795
76231SOL    HW140418   0.620  13.274  13.133 -0.1758 -0.0848 -1.2132
76231SOL    HW240419   0.742  13.361  13.150 -0.0646 -0.5638  0.6186
76232SOL     OW40420   7.812   2.033  12.735 -0.0933  0.2799  0.0075
76232SOL    HW140421   7.878   2.039  12.803  0.4472  0.6189 -0.5373
76232SOL    HW240422   7.862   2.027  12.653 -0.7178 -0.7412 -0.3204
76233SOL     OW40423   2.310   2.135   7.280  0.6869 -0.6106 -0.4858
76233SOL    HW140424   2.345   2.071   7.342  0.5726  0.5837  0.8890
76233SOL    HW240425   2.231   2.169   7.323  0.2816 -0.1498 -1.5506
76234SOL     OW40426   8.060   9.934   1.049 -0.0195 -0.1652 -0.1530
76234SOL    HW140427   8.025   9.852   1.083  1.1676 -0.5664  0.1486
76234SOL    HW240428   7.983   9.990   1.038 -0.7608 -1.0496  0.3556
76235SOL     OW40429   5.850  12.958  13.421  0.1699 -0.2948  0.0525
76235SOL    HW140430   5.912  13.011  13.471 -0.6006  1.0452 -0.3395
76235SOL    HW240431   5.764  12.986  13.453 -0.3032 -0.1549 -1.2718
76236SOL     OW40432   1.278   0.500  12.288 -0.4980  0.7480  0.1492
76236SOL    HW140433   1.262   0.500  12.383  1.2502  0.3749  0.4684
76236SOL    HW240434   1.282   0.593  12.265 -0.5834  0.8405  0.4897
76237SOL     OW40435   7.646   1.545  12.354 -0.4309  0.1066 -0.3256
76237SOL    HW140436   7.671   1.626  12.310 -0.4364  1.1599  1.5020
76237SOL    HW240437   7.591   1.574  12.427 -0.8881 -1.6061  0.0536
76238SOL     OW40438  13.522   5.012   1.366 -0.4636 -0.0328  0.4235
76238SOL    HW140439  13.531   5.100   1.403 -0.6003 -0.4073  1.3836
76238SOL    HW240440  13.432   5.009   1.333 -0.6219  0.0243  0.8409
76239SOL     OW40441   0.163   2.355   9.093 -0.5010  0.1509 -0.0056
76239SOL    HW140442   0.076   2.392   9.110 -1.9994 -2.3801 -1.4572
76239SOL    HW240443   0.180   2.375   9.001  0.6393  0.9021  0.3552
76240SOL     OW40444   2.190   6.931  12.848 -0.1411 -0.6355  0.0188
76240SOL    HW140445   2.229   6.977  12.922 -0.8185  1.5662 -0.8863
76240SOL    HW240446   2.230   6.971  12.771 -1.7961 -0.5449 -0.8547
76241SOL     OW40447   0.331  10.706   6.800  0.2590 -0.1744 -0.4667
76241SOL    HW140448   0.326  10.683   6.707  1.3388 -1.9423 -0.1397
76241SOL    HW240449   0.323  10.622   6.846 -0.0701  0.6464  1.0296
76242SOL     OW40450  12.515   8.242   1.923 -0.1837 -0.1617 -0.2028
76242SOL    HW140451  12.505   8.171   1.860  0.9326  0.3994 -1.0317
76242SOL    HW240452  12.572   8.306   1.880  0.4688  0.3196  1.2836
76243SOL     OW40453   7.524  10.820   0.152  0.0782  0.1562 -0.5305
76243SOL    HW140454   7.534  10.904   0.107  0.0528 -0.3234 -1.4588
76243SOL    HW240455   7.595  10.766   0.117 -0.4242 -0.4769 -0.5770
76244SOL     OW40456   8.685   2.672  10.530 -0.0610  0.2015  0.2006
76244SOL    HW140457   8.643   2.659  10.445  2.0053  0.8458 -0.9876
76244SOL    HW240458   8.668   2.764  10.551 -0.6601  0.0148  0.5488
76245SOL     OW40459   3.115   2.328   5.663  0.1102  0.2877 -0.5122
76245SOL    HW140460   3.117   2.369   5.576  0.2894  1.1249 -0.1283
76245SOL    HW240461   3.027   2.347   5.696 -0.3316 -0.9605 -0.9324
76246SOL     OW40462   1.157   4.366   7.457  0.1762 -0.1017 -0.2811
76246SOL    HW140463   1.243   4.325   7.464 -0.5586 -1.9400 -1.2794
76246SOL    HW240464   1.144   4.380   7.363  0.4814  2.7968  0.0052
76247SOL     OW40465   2.958   7.497   4.491  0.1650  0.2487  0.0758
76247SOL    HW140466   2.883   7.487   4.433  0.1970 -1.2157  0.2483
76247SOL    HW240467   2.923   7.478   4.578  0.8578 -1.2140  0.0711
76248SOL     OW40468   6.842   8.898   7.775 -0.0204  0.0199 -0.2028
76248SOL    HW140469   6.938   8.903   7.775  0.1049 -1.7586  0.9815
76248SOL    HW240470   6.816   8.937   7.858 -0.2790 -0.2360 -0.1640
76249SOL     OW40471  11.219   3.585  10.260 -0.4922  0.7329 -0.0943
76249SOL    HW140472  11.274   3.623  10.328 -0.0187 -0.7780  0.4043
76249SOL    HW240473  11.148   3.541  10.307 -0.4350  0.1016 -0.5738
76250SOL     OW40474   2.660   6.949   6.551  0.8914 -0.7617 -0.8253
76250SOL    HW140475   2.650   6.873   6.609  1.4507 -0.5978 -0.5011
76250SOL    HW240476   2.583   6.947   6.495  0.6770 -1.3138 -0.5203
76251SOL     OW40477  12.524   3.862   3.285  0.3301  0.6016 -0.2567
76251SOL    HW140478  12.520   3.954   3.261  0.2203  0.2690 -1.5802
76251SOL    HW240479  12.592   3.858   3.353  1.7399  1.3708 -1.5635
76252SOL     OW40480  11.858   1.501   7.104  0.9954 -0.0047  0.0616
76252SOL    HW140481  11.938   1.474   7.060  1.1857  0.1175  0.3307
76252SOL    HW240482  11.869   1.595   7.119 -0.0809  0.4692 -1.7578
76253SOL     OW40483   4.148   2.381   6.922 -0.1330 -0.4624 -0.3325
76253SOL    HW140484   4.136   2.323   6.998  0.3787 -0.1453 -0.0044
76253SOL    HW240485   4.120   2.328   6.847  1.5546 -1.6233 -0.2041
76254SOL     OW40486  12.049   4.597   9.750 -0.9866 -0.1464 -0.1259
76254SOL    HW140487  12.075   4.675   9.700  0.3321  0.8154  1.8751
76254SOL    HW240488  12.092   4.524   9.705  0.8731  0.7852  0.0410
76255SOL     OW40489  13.020  12.088  10.627 -0.5117 -0.3177  0.2336
76255SOL    HW140490  13.073  12.146  10.683  1.3004  0.3617 -1.9909
76255SOL    HW240491  12.980  12.147  10.563 -1.2400 -1.2108 -0.1541
76256SOL     OW40492   2.013   2.350   6.594 -0.3378 -0.8286 -0.6779
76256SOL    HW140493   2.063   2.297   6.656  0.3544 -0.9465 -1.3214
76256SOL    HW240494   1.938   2.295   6.571 -2.4427  0.4374  2.4775
76257SOL     OW40495   9.864   6.960  10.584  0.4626  0.3298  0.2513
76257SOL    HW140496   9.835   7.012  10.659 -0.3037 -0.0600  0.2440
76257SOL    HW240497   9.885   6.874  10.622  2.5818  0.8693  0.4043
76258SOL     OW40498   5.643  12.536   0.458 -0.1521  0.0244  0.1464
76258SOL    HW140499   5.700  12.603   0.418 -1.1182 -0.5595 -2.4350
76258SOL    HW240500   5.587  12.507   0.386 -3.9133  0.6934  2.5381
76259SOL     OW40501   7.420   7.376   5.647  0.3262 -0.2446 -0.7581
76259SOL    HW140502   7.483   7.384   5.576  1.3967  1.3692  0.2941
76259SOL    HW240503   7.471   7.343   5.721  0.3807  2.4713  0.5306
76260SOL     OW40504  10.988   6.190   8.086  0.3513  0.0486  0.0561
76260SOL    HW140505  10.952   6.101   8.090  0.1749  0.0499 -1.1258
76260SOL    HW240506  11.042   6.197   8.164 -3.0097  0.4494  2.5371
76261SOL     OW40507   0.171   2.688   8.127  0.4606  0.0633 -0.1295
76261SOL    HW140508   0.212   2.602   8.119  1.6347  0.6971 -1.4523
76261SOL    HW240509   0.193   2.717   8.215  0.2989 -0.8587  0.2257
76262SOL     OW40510   4.632   9.003   9.016 -0.7108 -0.3630  0.2992
76262SOL    HW140511   4.670   9.091   9.014 -0.4658 -0.4707  0.1209
76262SOL    HW240512   4.580   8.998   8.936 -1.8016  0.0851  0.9651
76263SOL     OW40513  11.115   4.376   9.946  0.0746 -0.4220  0.4368
76263SOL    HW140514  11.045   4.419   9.897 -0.1708 -0.6525  0.5842
76263SOL    HW240515  11.144   4.442  10.009 -0.3982 -0.5159  0.7590
76264SOL     OW40516  11.923   4.609  10.781  0.2838 -0.2602 -0.0227
76264SOL    HW140517  11.907   4.585  10.872  1.1858  0.3830  0.3156
76264SOL    HW240518  11.970   4.533  10.744 -0.4843 -0.7107 -0.0850
76265SOL     OW40519   0.370  10.006   4.000 -0.0575  0.2065  0.4462
76265SOL    HW140520   0.461   9.996   4.027  1.4233  3.6850 -2.4560
76265SOL    HW240521   0.335  10.076   4.056 -0.6130 -0.2933  0.7427
76266SOL     OW40522   0.823  12.899   9.808  0.2911 -0.2710  0.5487
76266SOL    HW140523   0.917  12.897   9.788  0.3825  1.6162  0.6947
76266SOL    HW240524   0.782  12.938   9.731  0.3061  4.1656  2.4963
76267SOL     OW40525   7.506   9.379   4.369 -0.0681 -0.0035 -0.0917
76267SOL    HW140526   7.457   9.336   4.299  0.1717 -1.2716  0.4996
76267SOL    HW240527   7.444   9.440   4.408 -0.6200 -0.2887 -0.5205
76268SOL     OW40528  10.017  11.711   5.595 -0.0362 -0.4345 -0.3223
76268SOL    HW140529   9.999  11.617   5.590  0.1258 -0.5096  0.4225
76268SOL    HW240530  10.029  11.728   5.689 -3.9575  1.0236  0.1278
76269SOL     OW40531   0.668   3.250   1.187 -0.4704  0.3203 -0.3808
76269SOL    HW140532   0.713   3.224   1.268 -2.2327 -0.2346  0.4828
76269SOL    HW240533   0.609   3.176   1.168  0.1886  0.2632 -2.4273
76270SOL     OW40534   0.341   9.068   4.815 -0.3041  0.6124 -0.3296
76270SOL    HW140535   0.398   9.143   4.833  0.2936 -0.0704  0.7227
76270SOL    HW240536   0.300   9.049   4.900  1.6726 -1.9783  0.1707
76271SOL     OW40537   1.223  11.621   6.945 -0.3857 -0.4247  0.4592
76271SOL    HW140538   1.242  11.674   6.867 -1.2957 -0.9665 -0.1395
76271SOL    HW240539   1.309  11.602   6.982  0.0736 -0.4131 -0.5765
76272SOL     OW40540   5.625   4.933   2.860  0.1237  0.1286  0.4325
76272SOL    HW140541   5.563   4.867   2.891 -0.4806  0.9177  0.9811
76272SOL    HW240542   5.610   5.008   2.918  1.6949  0.3073  0.6615
76273SOL     OW40543   5.610   2.202   1.766  0.0477  0.5471 -0.2881
76273SOL    HW140544   5.569   2.196   1.680  0.3367 -0.7668 -0.3589
76273SOL    HW240545   5.704   2.195   1.748  0.1320  0.6225  0.1133
76274SOL     OW40546   2.149  12.814   3.915  0.7369 -0.0629  0.0629
76274SOL    HW140547   2.097  12.877   3.964  0.5768 -1.4419  1.7497
76274SOL    HW240548   2.195  12.867   3.849  0.4230  1.7683  1.2462
76275SOL     OW40549   0.891  10.474   3.271 -0.3569  0.2987  0.2457
76275SOL    HW140550   0.843  10.497   3.191  2.0775  1.3228 -1.0350
76275SOL    HW240551   0.965  10.423   3.240 -0.3156 -0.8310  2.0914
76276SOL     OW40552  11.359   9.281   2.907 -0.0326 -0.1041 -0.2548
76276SOL    HW140553  11.426   9.312   2.967  0.4444  0.4759 -1.0613
76276SOL    HW240554  11.292   9.240   2.963  0.9564 -0.6403  0.5645
76277SOL     OW40555  11.767  12.311   8.426 -0.0103 -0.1343  0.0933
76277SOL    HW140556  11.855  12.287   8.455 -0.7247 -0.9366  1.7093
76277SOL    HW240557  11.781  12.357   8.343  1.9803  0.3529  0.6468
76278SOL     OW40558   0.924   5.653   8.058 -0.0930  0.3684  0.6082
76278SOL    HW140559   0.954   5.585   8.118 -0.7977 -0.6352 -0.1481
76278SOL    HW240560   0.847   5.616   8.015 -0.1459  1.4144 -0.2608
76279SOL     OW40561   9.203   0.519   9.834 -0.2540 -0.0165 -0.0253
76279SOL    HW140562   9.198   0.428   9.863 -0.2490  0.4072  1.3571
76279SOL    HW240563   9.273   0.519   9.768 -1.7191 -1.4055 -1.7036
76280SOL     OW40564   7.508   1.138  11.644 -0.7777 -0.1007  0.4927
76280SOL    HW140565   7.551   1.223  11.646 -0.4132 -0.2781  0.2521
76280SOL    HW240566   7.437   1.146  11.708 -0.8397  0.4307  0.3685
76281SOL     OW40567  11.403   3.979   0.012  0.3735 -0.0838 -0.1159
76281SOL    HW140568  11.350   4.048   0.051 -0.5157 -1.2220  0.7529
76281SOL    HW240569  11.339   3.915  -0.020  1.1357  0.0310 -1.9988
76282SOL     OW40570   2.072   9.647  13.552  0.6548 -0.3110  0.1295
76282SOL    HW140571   2.136   9.689  13.610  2.0635 -0.3153 -1.3228
76282SOL    HW240572   2.100   9.556  13.549  0.0584 -0.4931  0.1390
76283SOL     OW40573   7.193   5.125  11.663 -0.1229  0.2917  0.1094
76283SOL    HW140574   7.116   5.139  11.608 -1.0979 -0.2433  1.2985
76283SOL    HW240575   7.267   5.148  11.607 -1.1645  1.3241 -0.8929
76284SOL     OW40576   1.849   8.810   7.528  0.1461  0.6173  0.0138
76284SOL    HW140577   1.867   8.724   7.490  0.8023  1.4924 -1.7579
76284SOL    HW240578   1.754   8.818   7.525  0.1422  0.3534 -0.7272
76285SOL     OW40579   3.016  11.537  11.359 -0.2387  0.2566  0.0347
76285SOL    HW140580   2.939  11.546  11.303 -1.1307  0.3635  1.2537
76285SOL    HW240581   2.997  11.590  11.436  2.0791  2.2485 -0.6580
76286SOL     OW40582  11.547   0.045  10.149 -0.3741  0.7386 -0.0824
76286SOL    HW140583  11.502   0.130  10.139 -0.5812  0.4323 -2.1346
76286SOL    HW240584  11.640   0.067  10.146 -0.4260  0.9122 -0.4449
76287SOL     OW40585  13.549   0.102  13.170 -0.1654 -0.3461 -0.6300
76287SOL    HW140586  13.479   0.054  13.125 -0.4250  0.2299 -0.8619
76287SOL    HW240587  13.602   0.139  13.099 -0.4466  0.3798 -0.4752
76288SOL     OW40588   7.235   4.143   0.848  0.2199 -0.6842  0.0172
76288SOL    HW140589   7.172   4.201   0.807  1.1652  0.4350  0.1041
76288SOL    HW240590   7.320   4.186   0.835  0.8600 -1.6877  0.7039
76289SOL     OW40591   8.311  12.929   1.517  0.4472 -0.1452 -0.3776
76289SOL    HW140592   8.338  13.020   1.507 -1.9411  0.5216 -1.5824
76289SOL    HW240593   8.337  12.886   1.436  1.1328 -0.4300 -0.0137
76290SOL     OW40594   4.352   9.160   6.577  0.0307 -0.1061 -0.9344
76290SOL    HW140595   4.327   9.091   6.638 -0.4042  1.0717  0.2767
76290SOL    HW240596   4.411   9.118   6.515 -0.1783 -1.5360 -0.2013
76291SOL     OW40597   8.382  12.104   7.310  0.5565  0.6100  0.0273
76291SOL    HW140598   8.362  12.173   7.246  0.2364 -2.2873 -3.2942
76291SOL    HW240599   8.298  12.088   7.354  0.5805  2.0950  0.6789
76292SOL     OW40600   1.272  11.959   0.319  0.5478  0.0443 -0.2629
76292SOL    HW140601   1.236  11.879   0.357  0.1206  1.4347  2.5349
76292SOL    HW240602   1.355  11.972   0.365  1.0860  0.7362 -1.3771
76293SOL     OW40603   3.906   0.423   8.162 -0.3852 -0.1708  0.4034
76293SOL    HW140604   3.973   0.476   8.118 -1.3290 -0.3189 -1.3180
76293SOL    HW240605   3.842   0.405   8.093 -0.9927 -2.0402  1.4050
76294SOL     OW40606   8.493   5.923  12.357 -0.0419 -0.2303 -0.2350
76294SOL    HW140607   8.444   5.997  12.391 -1.9211 -1.4154 -0.2408
76294SOL    HW240608   8.584   5.953  12.355 -0.5150  1.4647  1.3610
76295SOL     OW40609   5.358   0.181  13.196  0.2630 -0.3357  0.0043
76295SOL    HW140610   5.263   0.183  13.189  0.2135  1.7826  0.5627
76295SOL    HW240611   5.376   0.115  13.263 -0.7584 -1.1617 -0.5089
76296SOL     OW40612  11.230  10.386   0.816  1.0886 -0.0219  0.7289
76296SOL    HW140613  11.232  10.441   0.738  0.1506 -1.2924 -0.2453
76296SOL    HW240614  11.315  10.399   0.857  0.7387  2.4619  0.8043
76297SOL     OW40615  13.085  11.730  13.323  0.0278 -0.3616 -0.2836
76297SOL    HW140616  13.089  11.634  13.323 -0.2180 -0.4069 -2.0583
76297SOL    HW240617  13.155  11.758  13.264  1.3842  0.6888  1.7083
76298SOL     OW40618   0.707   1.252   7.125 -0.0867  0.0451  0.1091
76298SOL    HW140619   0.631   1.238   7.069 -1.3544  1.1035  1.5021
76298SOL    HW240620   0.689   1.334   7.171  1.7541  0.1599  0.7158
76299SOL     OW40621   8.212   1.024   3.158  0.2421 -0.2505 -0.3768
76299SOL    HW140622   8.178   1.096   3.105  0.4095  0.3780  0.3455
76299SOL    HW240623   8.234   0.955   3.095  1.0163  0.7031 -1.1669
76300SOL     OW40624   3.255   9.454   1.093 -0.2070  0.4452  0.2086
76300SOL    HW140625   3.304   9.418   1.019  1.4590  0.7618  1.0956
76300SOL    HW240626   3.276   9.547   1.093  1.1335  0.2096  1.9680
76301SOL     OW40627   9.081  11.541   2.136 -0.5228  0.0606 -0.2434
76301SOL    HW140628   9.077  11.585   2.221  0.0508  0.5445 -0.4531
76301SOL    HW240629   8.989  11.530   2.110 -0.7597 -1.5944  1.1708
76302SOL     OW40630   3.123   2.063   3.318 -0.2114 -0.3056  0.4956
76302SOL    HW140631   3.047   2.074   3.376 -0.4317 -1.7165  0.5028
76302SOL    HW240632   3.193   2.034   3.377  0.9961  2.8857  0.8692
76303SOL     OW40633   0.433   5.155   4.529 -0.2733  0.8813  0.5510
76303SOL    HW140634   0.375   5.198   4.592  1.0099 -0.1692  2.5509
76303SOL    HW240635   0.518   5.154   4.572  1.1025  1.6409 -1.9525
76304SOL     OW40636   9.702  12.640  11.657 -0.1607  0.3804 -0.2729
76304SOL    HW140637   9.634  12.707  11.652 -1.2976 -0.7514 -0.5251
76304SOL    HW240638   9.761  12.671  11.726 -0.5199  1.7349 -0.5405
76305SOL     OW40639   1.926  11.934   8.747  0.1500 -0.7267  0.1042
76305SOL    HW140640   1.913  11.925   8.841  1.3013 -1.3068  0.2207
76305SOL    HW240641   1.838  11.925   8.710 -0.4257  0.2767  1.1576
76306SOL     OW40642   9.637   0.308  11.718  0.5098 -0.2947  0.2271
76306SOL    HW140643   9.685   0.266  11.647  0.6225  1.9300 -1.0992
76306SOL    HW240644   9.563   0.249  11.735  2.5031 -2.7681  0.9320
76307SOL     OW40645  11.021  10.818  12.453 -0.2597  0.9547  0.6398
76307SOL    HW140646  11.101  10.803  12.403 -0.1595  1.8658  0.5009
76307SOL    HW240647  10.967  10.872  12.396 -1.6683 -0.9476  0.0767
76308SOL     OW40648   8.528  11.523   1.073 -0.2418  0.3239 -0.3994
76308SOL    HW140649   8.528  11.457   1.142 -1.6768  0.6518 -0.0616
76308SOL    HW240650   8.449  11.504   1.022 -0.0640  1.0905 -0.9756
76309SOL     OW40651   4.737  12.394   8.116  0.5169 -0.1676 -0.6376
76309SOL    HW140652   4.770  12.407   8.027 -2.1093 -0.4392 -1.7262
76309SOL    HW240653   4.642  12.397   8.108  0.1152 -2.3306  1.8292
76310SOL     OW40654   3.579  13.316   4.338 -0.5366  0.3611 -0.0926
76310SOL    HW140655   3.535  13.344   4.418 -0.3281 -2.5813  1.1668
76310SOL    HW240656   3.534  13.236   4.313  1.3256 -0.3978 -1.2241
76311SOL     OW40657   7.739   9.901   3.010  0.1614  0.1147 -0.6222
76311SOL    HW140658   7.657   9.864   2.977  0.5074 -0.3747 -0.9507
76311SOL    HW240659   7.728   9.995   3.001 -0.6879  0.0989  0.1119
76312SOL     OW40660   6.195  10.314   8.578  0.1501  0.3549 -0.4954
76312SOL    HW140661   6.109  10.325   8.537 -0.4146 -0.8324  0.2974
76312SOL    HW240662   6.254  10.299   8.504 -0.4104  0.6432 -1.0188
76313SOL     OW40663   1.727   8.464   0.474 -0.6945  0.4323  0.5868
76313SOL    HW140664   1.802   8.433   0.526 -1.5433  1.0519  2.2621
76313SOL    HW240665   1.686   8.531   0.529 -1.8324  0.9189 -0.7864
76314SOL     OW40666   0.110   5.375   6.615  0.4393  0.2249 -0.4691
76314SOL    HW140667   0.189   5.362   6.562  0.8003 -0.8253  0.2965
76314SOL    HW240668   0.143   5.399   6.702 -0.0669 -0.5036 -0.0647
76315SOL     OW40669  11.578   8.940   2.980 -0.2690 -0.0625 -0.2552
76315SOL    HW140670  11.570   8.847   3.001  1.4427 -0.1931 -0.0810
76315SOL    HW240671  11.523   8.984   3.046 -1.2218 -0.9327 -0.4424
76316SOL     OW40672  13.645   6.007  10.958 -0.8211  0.1206  0.0867
76316SOL    HW140673  13.617   6.068  11.026 -0.8519  0.4739 -0.2429
76316SOL    HW240674  13.638   5.921  10.999  0.2775  0.4143  0.9103
76317SOL     OW40675   8.572   2.485  10.974 -0.2314  0.1381  0.4904
76317SOL    HW140676   8.553   2.429  10.899  0.3956  1.4722 -0.7146
76317SOL    HW240677   8.532   2.440  11.049 -1.6037 -0.8081 -0.7669
76318SOL     OW40678   1.261  11.386   6.756  0.0981 -0.3039  0.1256
76318SOL    HW140679   1.239  11.425   6.841  1.3934 -0.6160  0.6172
76318SOL    HW240680   1.176  11.379   6.711 -0.4793  0.7635  0.9973
76319SOL     OW40681   5.196   0.436   4.203  0.0711 -0.3182 -0.3835
76319SOL    HW140682   5.260   0.365   4.209  0.6196  0.2836  1.9224
76319SOL    HW240683   5.139   0.423   4.279 -0.6525  0.9207 -0.6876
76320SOL     OW40684   3.672   1.174  13.422 -0.0975  0.3100 -0.1394
76320SOL    HW140685   3.762   1.174  13.390 -0.0336 -0.1740  0.0410
76320SOL    HW240686   3.626   1.113  13.364  0.1048 -0.8932  0.9198
76321SOL     OW40687  10.664   7.612  10.929  0.2250  0.0176  0.0716
76321SOL    HW140688  10.671   7.516  10.921  0.6962  0.1552 -1.3051
76321SOL    HW240689  10.602   7.625  11.001 -0.5544 -1.3320 -0.3157
76322SOL     OW40690  11.237  12.121   2.612  0.0645  0.2318 -0.0390
76322SOL    HW140691  11.311  12.105   2.671 -0.8527  1.6718  1.5611
76322SOL    HW240692  11.164  12.076   2.654 -0.6099  1.3182 -0.0312
76323SOL     OW40693   2.295   1.452   7.032  0.4318 -0.3730 -0.4723
76323SOL    HW140694   2.268   1.516   7.098  2.9241  0.2204  0.0688
76323SOL    HW240695   2.307   1.503   6.952  1.8226 -0.2153 -0.1932
76324SOL     OW40696  10.885   1.419   4.409 -0.3224 -0.2605 -0.4289
76324SOL    HW140697  10.871   1.454   4.321 -1.0277  0.4706 -0.0415
76324SOL    HW240698  10.818   1.461   4.462  0.8828  0.2970  0.7208
76325SOL     OW40699   3.881  10.141  11.170 -0.2068 -0.0092 -0.3320
76325SOL    HW140700   3.905  10.088  11.247 -3.3355 -0.9286  0.1495
76325SOL    HW240701   3.962  10.148  11.120  1.3515 -1.5580  1.7861
76326SOL     OW40702   1.753   0.867   5.883  0.3445  0.0298  0.2175
76326SOL    HW140703   1.785   0.817   5.959 -0.9857  1.0023  1.4661
76326SOL    HW240704   1.825   0.927   5.862  1.3259 -1.2765 -0.2879
76327SOL     OW40705   2.133   4.333   9.663 -0.6333  0.2251 -0.1892
76327SOL    HW140706   2.138   4.292   9.749 -2.9203  0.6554  0.2140
76327SOL    HW240707   2.193   4.407   9.667  0.0611 -0.3732  0.6577
76328SOL     OW40708   2.859   7.057   1.835 -0.4607  0.1042  1.0196
76328SOL    HW140709   2.927   7.124   1.825  0.6500 -1.1463 -0.3015
76328SOL    HW240710   2.779   7.100   1.807  0.1615  0.9946  0.5566
76329SOL     OW40711   8.195  12.523  12.962  0.3691 -0.3471  0.2012
76329SOL    HW140712   8.234  12.608  12.981 -1.2816  0.1821  1.4686
76329SOL    HW240713   8.211  12.471  13.041 -0.8658 -0.3237  0.4876
76330SOL     OW40714   2.827   9.935   8.773  0.2493 -0.0570 -0.5962
76330SOL    HW140715   2.780  10.017   8.758 -0.9393 -0.7517 -0.8525
76330SOL    HW240716   2.881   9.952   8.850 -0.5157  0.7497 -0.2165
76331SOL     OW40717   0.699   3.521  10.784  0.5490 -0.0378 -0.4503
76331SOL    HW140718   0.749   3.494  10.706 -0.5143 -0.6056 -0.9459
76331SOL    HW240719   0.764   3.566  10.839  2.8647 -4.5993  1.0511
76332SOL     OW40720   5.105   2.752  11.295  0.5360 -0.1208 -0.1619
76332SOL    HW140721   5.113   2.847  11.286  0.1326 -0.1200 -0.5214
76332SOL    HW240722   5.063   2.723  11.214 -0.5346 -0.4516  0.4849
76333SOL     OW40723   1.263   4.844   2.939 -0.2775 -0.4517 -0.1113
76333SOL    HW140724   1.285   4.777   3.004 -0.2311 -0.4052 -0.0786
76333SOL    HW240725   1.171   4.829   2.920 -0.9532  0.9523  1.6757
76334SOL     OW40726  12.133   6.595  10.084 -0.2493  1.1038  0.2812
76334SOL    HW140727  12.058   6.536  10.093  0.1919  0.1868 -1.5236
76334SOL    HW240728  12.151   6.596   9.990  1.9941  1.3082  0.6607
76335SOL     OW40729   1.830   3.936   1.215 -0.2433 -0.2934 -0.4977
76335SOL    HW140730   1.737   3.952   1.235 -0.2114  1.2350 -1.4706
76335SOL    HW240731   1.834   3.937   1.120  0.9887  0.9014 -0.4468
76336SOL     OW40732   5.137   6.318   7.026  0.2179 -0.3546 -0.6823
76336SOL    HW140733   5.186   6.280   7.099  0.1715 -0.6266 -0.7921
76336SOL    HW240734   5.205   6.348   6.965  0.3124  1.5686  0.3035
76337SOL     OW40735   2.703   8.500   5.474 -0.3402  0.4490  0.1926
76337SOL    HW140736   2.780   8.533   5.428  0.6944 -0.3525  1.2800
76337SOL    HW240737   2.660   8.443   5.410  0.4289  0.2533 -0.1684
76338SOL     OW40738  13.254  11.008   1.155  0.2324  0.4089  0.4101
76338SOL    HW140739  13.341  11.000   1.115  0.0988  0.2627  0.1440
76338SOL    HW240740  13.256  11.093   1.199 -0.0052  1.1297 -0.9039
76339SOL     OW40741   6.200   4.262   0.462  0.2709  0.1874  0.3113
76339SOL    HW140742   6.198   4.344   0.413 -0.3297 -1.0418 -1.8602
76339SOL    HW240743   6.123   4.267   0.520  0.2171  1.1073  0.1799
76340SOL     OW40744   3.755   3.119  11.502 -0.5452 -0.1623  0.2215
76340SOL    HW140745   3.698   3.172  11.446 -1.7529 -1.4604  0.1426
76340SOL    HW240746   3.784   3.047  11.446  1.3936  0.5921  0.2095
76341SOL     OW40747  10.911   9.035   8.454  0.1352 -0.0005 -0.9008
76341SOL    HW140748  10.924   9.123   8.418  0.1237 -0.2769 -1.6012
76341SOL    HW240749  10.931   8.976   8.381  0.2777 -0.5874 -0.4006
76342SOL     OW40750  11.940   6.925   3.843  0.0701 -0.0516  0.4712
76342SOL    HW140751  12.029   6.949   3.870 -0.5859 -0.3540  3.2588
76342SOL    HW240752  11.951   6.840   3.799  1.1743 -0.1309  0.8615
76343SOL     OW40753   7.894   0.292  11.220 -0.0195  0.0703  0.7947
76343SOL    HW140754   7.946   0.271  11.143  0.0833  3.0287 -0.0630
76343SOL    HW240755   7.803   0.281  11.192  0.0038 -2.4136  1.4599
76344SOL     OW40756   8.091  10.364  12.481  0.1967  0.1963  0.5909
76344SOL    HW140757   8.168  10.419  12.489  0.2028  0.4658 -1.0544
76344SOL    HW240758   8.085  10.319  12.565  0.4983  2.2810  1.8004
76345SOL     OW40759  13.201  12.101   4.685  0.4665  0.3497  0.2657
76345SOL    HW140760  13.224  12.157   4.611 -0.1497  0.6385  0.2877
76345SOL    HW240761  13.276  12.042   4.694  0.6203  0.4133 -0.4911
76346SOL     OW40762   4.370   1.784   2.425 -0.2463  0.1964  0.0800
76346SOL    HW140763   4.451   1.790   2.475  0.0129  0.8929 -0.4131
76346SOL    HW240764   4.319   1.861   2.451 -1.2604 -0.8357  1.2550
76347SOL     OW40765   6.733   5.534  13.472  0.2771 -0.1218 -0.5962
76347SOL    HW140766   6.667   5.539  13.404  1.1085 -0.9397 -1.5009
76347SOL    HW240767   6.811   5.500  13.428  0.3512 -2.3796  1.0586
76348SOL     OW40768   1.756   6.069   1.629  0.1349  0.4083  0.1978
76348SOL    HW140769   1.810   6.008   1.579  0.3515  0.0929  0.8063
76348SOL    HW240770   1.817   6.136   1.660 -0.3784  2.0121 -2.0161
76349SOL     OW40771   1.559   7.915  11.647 -0.3075  0.7086  0.0312
76349SOL    HW140772   1.553   8.007  11.620 -1.7253  1.4660  2.5811
76349SOL    HW240773   1.612   7.917  11.727  0.0877 -0.7885 -0.1669
76350SOL     OW40774   9.972  11.905   0.753 -0.3487  0.5315 -0.4843
76350SOL    HW140775  10.016  11.971   0.699 -0.3344  0.8348 -0.1097
76350SOL    HW240776   9.940  11.955   0.829 -0.9138  0.2285 -0.5205
76351SOL     OW40777   9.297   6.196  10.330  0.3237 -0.4897 -0.2243
76351SOL    HW140778   9.336   6.109  10.332 -0.7226 -0.9498  1.0968
76351SOL    HW240779   9.362   6.253  10.371  0.9018 -0.6735 -0.8648
76352SOL     OW40780   9.376   7.685  11.072 -0.9023  0.0321 -0.0386
76352SOL    HW140781   9.353   7.592  11.069 -1.3075  0.0423  1.8363
76352SOL    HW240782   9.403   7.706  10.982 -0.5629 -1.9419 -0.4329
76353SOL     OW40783   0.896   8.108   3.684  0.5827  0.2235  0.3105
76353SOL    HW140784   0.915   8.187   3.633 -1.0471 -0.2633 -1.1586
76353SOL    HW240785   0.978   8.060   3.686  0.8900  0.6240 -1.2682
76354SOL     OW40786   3.776   3.631   1.266 -0.4578  0.1326  0.5582
76354SOL    HW140787   3.737   3.552   1.305  1.5313 -1.0566  0.3271
76354SOL    HW240788   3.826   3.597   1.191 -3.0914  2.1697 -2.3860
76355SOL     OW40789   5.398   8.619   4.619  0.1357 -0.0559  0.5650
76355SOL    HW140790   5.482   8.581   4.647  0.3078  1.0362  1.6525
76355SOL    HW240791   5.415   8.713   4.615 -0.7106  0.0657 -0.4589
76356SOL     OW40792  11.067   4.916   7.721 -0.1204  0.2569  0.3509
76356SOL    HW140793  11.096   4.951   7.805  1.2103 -0.2477  0.1382
76356SOL    HW240794  11.058   4.992   7.664 -0.5921  0.5565  0.8194
76357SOL     OW40795  12.670   6.835  11.574  0.1230 -0.2637 -0.2646
76357SOL    HW140796  12.750   6.805  11.616 -0.7757 -1.6042  0.5533
76357SOL    HW240797  12.666   6.786  11.492 -0.5138 -1.1910  0.3091
76358SOL     OW40798   1.073   5.765   9.834  0.3553  0.0263 -0.3208
76358SOL    HW140799   1.068   5.856   9.807 -1.3530 -0.2393 -1.0339
76358SOL    HW240800   1.096   5.768   9.927  0.6163  1.1582 -0.4175
76359SOL     OW40801  12.658   2.356   0.759  0.2238  0.3773  0.1238
76359SOL    HW140802  12.641   2.266   0.786  0.9458  0.7671  2.0536
76359SOL    HW240803  12.634   2.359   0.667  1.0606 -2.0122 -0.2282
76360SOL     OW40804   3.861  10.978   5.099 -0.4523 -0.1734 -0.2379
76360SOL    HW140805   3.774  10.948   5.072 -1.6545 -0.0125  3.0039
76360SOL    HW240806   3.846  11.022   5.182  2.5212  1.5850 -0.4842
76361SOL     OW40807   6.851  12.818  13.236 -0.5405 -0.4837  0.6725
76361SOL    HW140808   6.876  12.818  13.328  1.6807  0.3324  0.1368
76361SOL    HW240809   6.880  12.904  13.203 -2.8430 -0.0540 -0.4295
76362SOL     OW40810   3.032   7.794   4.921 -0.4181 -0.0922  0.3292
76362SOL    HW140811   3.031   7.782   5.016 -2.5292  0.3579  0.4116
76362SOL    HW240812   3.076   7.879   4.909 -1.4777  0.5857  1.0361
76363SOL     OW40813   0.753  13.127   3.456 -0.1369 -0.2734  0.2763
76363SOL    HW140814   0.708  13.190   3.513  0.5009 -0.9477  1.5760
76363SOL    HW240815   0.685  13.096   3.396 -0.8047  0.5551  0.5897
76364SOL     OW40816   0.890   4.620   6.790  0.0897  0.3061  1.3675
76364SOL    HW140817   0.843   4.702   6.810 -1.5431 -0.5444  1.2021
76364SOL    HW240818   0.836   4.578   6.723  1.8286 -0.1338  0.1901
76365SOL     OW40819   1.121   2.045  11.857 -0.2712  0.1573  0.2644
76365SOL    HW140820   1.133   1.983  11.929 -2.9224  1.1149  1.6903
76365SOL    HW240821   1.109   1.990  11.779  1.6292 -0.9356  0.6997
76366SOL     OW40822   2.699  13.588   0.881 -0.4169 -0.4549  0.0600
76366SOL    HW140823   2.785  13.553   0.907 -0.8391 -2.8478 -1.4475
76366SOL    HW240824   2.640  13.558   0.950 -0.7494 -2.8283 -1.1431
76367SOL     OW40825  10.141   7.275  12.656 -0.1882 -0.4993 -0.5240
76367SOL    HW140826  10.101   7.229  12.729 -0.5380  0.7273  0.0796
76367SOL    HW240827  10.067   7.308  12.605  0.0524 -1.1309 -1.3062
76368SOL     OW40828   3.695   3.754   3.952  0.0368  0.2911 -0.3872
76368SOL    HW140829   3.660   3.770   4.040  1.9916 -1.9701  0.8994
76368SOL    HW240830   3.709   3.660   3.949 -1.6670 -0.0030 -3.8658
76369SOL     OW40831   4.408   8.518   0.230 -0.3742  0.2929  0.1401
76369SOL    HW140832   4.341   8.566   0.279 -1.6721 -2.0647  0.8317
76369SOL    HW240833   4.480   8.509   0.293 -0.8509 -0.1806  0.6353
76370SOL     OW40834   7.192   5.672   1.224 -0.5248 -0.0117  0.3292
76370SOL    HW140835   7.202   5.668   1.129  1.0821 -0.3964  0.4813
76370SOL    HW240836   7.237   5.593   1.256 -0.3549  0.5177  1.4467
76371SOL     OW40837   2.661   7.010   5.269 -0.2385  0.3911 -0.2263
76371SOL    HW140838   2.612   7.088   5.244  1.1967  0.8356 -1.8381
76371SOL    HW240839   2.721   7.040   5.337 -1.2410  0.1324  0.8117
76372SOL     OW40840  11.045  12.098   3.066 -0.0231  0.0364 -0.1646
76372SOL    HW140841  11.020  12.079   3.157  0.2428 -0.5698 -0.2179
76372SOL    HW240842  11.135  12.128   3.072 -0.1371  0.3937 -0.1879
76373SOL     OW40843  12.693  13.082   0.049 -0.4726 -0.1502 -0.0786
76373SOL    HW140844  12.711  13.176   0.054 -0.7895 -0.0780 -0.2723
76373SOL    HW240845  12.779  13.042   0.041 -0.4377  0.3215 -3.0196
76374SOL     OW40846   8.828  12.939   5.179  0.4436 -0.3501  0.0425
76374SOL    HW140847   8.892  12.868   5.186  1.2447  0.2586 -0.8830
76374SOL    HW240848   8.835  12.969   5.088 -1.8010 -0.8489 -0.3616
76375SOL     OW40849   0.781  10.764   6.641 -0.3502  0.3488 -0.3463
76375SOL    HW140850   0.818  10.836   6.589 -0.1238 -0.0790 -0.7870
76375SOL    HW240851   0.702  10.738   6.593 -2.0607  2.1518  1.2904
76376SOL     OW40852   8.510   1.975   4.732  0.6432 -0.2391  0.1439
76376SOL    HW140853   8.538   2.006   4.646 -0.9320  1.5772  0.2052
76376SOL    HW240854   8.470   1.890   4.716  1.2410 -0.3637 -0.7497
76377SOL     OW40855   6.614   1.145   4.567 -0.4323  0.1922  0.1240
76377SOL    HW140856   6.672   1.181   4.500  0.0343 -2.1158 -0.8310
76377SOL    HW240857   6.526   1.172   4.540 -0.1111  0.6204 -0.5110
76378SOL     OW40858  13.187   9.737   2.923  0.1156 -0.0130 -0.1107
76378SOL    HW140859  13.244   9.738   3.000  0.3193  1.6564 -0.2475
76378SOL    HW240860  13.131   9.813   2.934  0.6042  0.6511 -1.9405
76379SOL     OW40861   7.605  13.077   9.444  0.1894  0.3005  0.1177
76379SOL    HW140862   7.546  13.142   9.484 -0.6052  0.5836 -1.4240
76379SOL    HW240863   7.661  13.129   9.386  1.7352 -0.0179  1.2736
76380SOL     OW40864   7.187   8.725  11.540  0.1229  0.4518  0.0757
76380SOL    HW140865   7.277   8.739  11.511  0.1399 -1.3662 -0.9012
76380SOL    HW240866   7.195   8.692  11.629  0.3409  1.3828  0.4106
76381SOL     OW40867   2.402   4.880   3.258 -0.2077 -0.4937 -0.3687
76381SOL    HW140868   2.381   4.949   3.322  2.1771 -1.4441  1.6004
76381SOL    HW240869   2.348   4.806   3.284 -0.3243 -0.4073 -0.3655
76382SOL     OW40870   7.364   0.130   8.503  0.0510  0.2310  0.1272
76382SOL    HW140871   7.439   0.187   8.520 -0.7775  0.7842  2.2789
76382SOL    HW240872   7.402   0.043   8.493  1.0689  0.6855 -0.1084
76383SOL     OW40873   6.448   4.701  10.582 -0.3562  0.0501 -0.3037
76383SOL    HW140874   6.522   4.655  10.623  1.4510  1.8988 -1.2972
76383SOL    HW240875   6.456   4.680  10.489 -0.5817  0.9301 -0.5251
76384SOL     OW40876   6.706   9.076   5.605  0.0267  0.1066 -0.3900
76384SOL    HW140877   6.691   8.982   5.592 -1.0890 -0.1979  2.3921
76384SOL    HW240878   6.651   9.118   5.539 -4.2193 -1.2439  1.8892
76385SOL     OW40879   8.327   1.852   0.885 -0.0119  0.2423 -0.8379
76385SOL    HW140880   8.303   1.935   0.926  1.5912  0.4059 -0.1466
76385SOL    HW240881   8.260   1.837   0.819 -0.6892  1.7546 -0.5288
76386SOL     OW40882  12.114   1.103   2.105 -0.6021  0.1636  0.4741
76386SOL    HW140883  12.055   1.114   2.179 -0.2745 -0.8605  0.8977
76386SOL    HW240884  12.202   1.104   2.144 -0.2919  1.7989 -0.1555
76387SOL     OW40885   2.005  12.991  13.085 -0.2757 -0.6166 -0.2060
76387SOL    HW140886   2.023  13.061  13.022  2.4511 -0.1467  0.9694
76387SOL    HW240887   1.978  12.917  13.031  0.2798  0.2773 -1.7776
76388SOL     OW40888   4.339   9.199   0.552  0.3644  0.4003  0.5701
76388SOL    HW140889   4.260   9.145   0.542  1.9708 -2.1170  0.7032
76388SOL    HW240890   4.365   9.221   0.462 -1.1067  2.3524  0.5468
76389SOL     OW40891   3.207   5.471  11.287 -0.1328 -0.0083 -0.4090
76389SOL    HW140892   3.286   5.437  11.328 -2.2506 -3.3351  1.3798
76389SOL    HW240893   3.159   5.392  11.258 -2.7326  1.8218 -1.5215
76390SOL     OW40894   3.706   0.726   6.397  0.0966 -0.4735  0.5409
76390SOL    HW140895   3.711   0.632   6.382  2.7491 -0.2964 -0.1561
76390SOL    HW240896   3.638   0.736   6.465  0.1713 -2.9170  1.0531
76391SOL     OW40897   1.569   1.942   3.089 -0.0171 -0.1318 -0.2449
76391SOL    HW140898   1.513   1.887   3.035  0.1771  0.4384 -1.0518
76391SOL    HW240899   1.619   1.995   3.026 -1.1438  1.9186  0.4753
76392SOL     OW40900  13.301   3.543   1.953 -0.3629  0.0226  0.0836
76392SOL    HW140901  13.370   3.608   1.959 -1.8246  1.9964 -2.4270
76392SOL    HW240902  13.221   3.590   1.979 -1.1964 -1.3769  0.1832
76393SOL     OW40903   1.703  11.891   7.368 -0.1337  0.4422  0.3097
76393SOL    HW140904   1.735  11.848   7.288 -2.5096  1.4029 -1.2864
76393SOL    HW240905   1.754  11.971   7.374 -0.3855  0.6965 -0.6846
76394SOL     OW40906  10.745   7.695   6.746  0.2264 -0.7526  0.1338
76394SOL    HW140907  10.728   7.618   6.799 -0.3600 -1.7888 -1.4744
76394SOL    HW240908  10.754   7.662   6.657 -0.5604  1.0786 -0.6957
76395SOL     OW40909   7.273  12.880   6.648  0.1519  0.3909 -0.1338
76395SOL    HW140910   7.278  12.863   6.742  0.4821  2.3761  0.2503
76395SOL    HW240911   7.356  12.846   6.613  1.2386  2.0134  0.7433
76396SOL     OW40912   1.431   5.678  11.361  0.0757 -0.4276  0.1495
76396SOL    HW140913   1.410   5.749  11.422 -0.4394 -0.1383 -0.3440
76396SOL    HW240914   1.346   5.654  11.324  0.2750 -1.1951  0.1920
76397SOL     OW40915   8.884   1.744   9.552 -0.1569 -0.0644  0.1279
76397SOL    HW140916   8.853   1.827   9.589  0.0171  0.0801 -0.0507
76397SOL    HW240917   8.975   1.737   9.583 -1.0479 -1.6282  2.6447
76398SOL     OW40918   1.342   5.354   8.171  0.3943  0.1622  0.0081
76398SOL    HW140919   1.277   5.415   8.207  1.3962  1.5751 -0.4858
76398SOL    HW240920   1.376   5.398   8.093  1.6309 -0.7361  0.0142
76399SOL     OW40921   5.726  10.064   8.886  0.3876 -0.1819 -0.2254
76399SOL    HW140922   5.685  10.090   8.969  0.0334  1.6726 -0.9284
76399SOL    HW240923   5.673   9.991   8.855 -0.9348  0.6236  0.0622
76400SOL     OW40924  11.004   3.715   7.622  0.2285 -0.0838 -0.0370
76400SOL    HW140925  11.090   3.687   7.590  1.0015  2.3334 -0.2776
76400SOL    HW240926  10.993   3.803   7.588 -1.3302  0.5620  1.9130
76401SOL     OW40927  12.407  12.526   9.149 -0.1263 -0.0256  0.1960
76401SOL    HW140928  12.415  12.447   9.095 -0.4896 -1.3845  2.0118
76401SOL    HW240929  12.388  12.596   9.087  1.3819 -1.1281 -1.6152
76402SOL     OW40930   8.146   9.701  13.000 -0.7385 -0.0667  0.5451
76402SOL    HW140931   8.238   9.728  13.001 -1.1482  1.4906 -0.5170
76402SOL    HW240932   8.143   9.628  12.938 -0.5464  1.2827 -1.1155
76403SOL     OW40933  13.567  13.612   4.911 -0.0966  0.3197  0.0219
76403SOL    HW140934  13.594  13.703   4.922 -1.5341  0.8475 -0.6340
76403SOL    HW240935  13.487  13.604   4.962 -0.1854 -0.4827 -0.2252
76404SOL     OW40936   6.486   4.634  11.616 -0.4617  0.9688 -0.4126
76404SOL    HW140937   6.575   4.651  11.587 -0.2148  2.1473  0.8731
76404SOL    HW240938   6.471   4.699  11.685 -1.9324  0.0962  0.1446
76405SOL     OW40939  12.098   8.572   0.795  0.6528  1.0872 -0.0484
76405SOL    HW140940  12.067   8.482   0.785  3.9553  0.0011 -2.0328
76405SOL    HW240941  12.167   8.566   0.861  0.5928  2.2629  0.1366
76406SOL     OW40942  12.979   3.784  12.402  0.2538  0.6652 -0.2784
76406SOL    HW140943  12.977   3.879  12.389 -2.8163  0.6468 -0.5355
76406SOL    HW240944  12.962   3.747  12.315  1.3771 -0.1536 -0.1741
76407SOL     OW40945  10.704   5.185   8.746  0.3651 -0.0320  0.0190
76407SOL    HW140946  10.618   5.206   8.711  0.4251 -0.8305 -0.6212
76407SOL    HW240947  10.687   5.119   8.813  0.5205 -0.5497 -0.4455
76408SOL     OW40948   4.566   1.080   3.270  0.1475  0.3390 -0.5057
76408SOL    HW140949   4.563   1.152   3.332 -1.1440 -1.3026  1.4398
76408SOL    HW240950   4.620   1.014   3.313 -1.3359 -1.1054 -0.8011
76409SOL     OW40951   1.408  12.175   6.638 -0.2451  0.1704  0.0063
76409SOL    HW140952   1.351  12.226   6.580  1.4798 -0.0421 -1.9622
76409SOL    HW240953   1.497  12.196   6.611  0.5919 -1.6898  1.0635
76410SOL     OW40954   4.219   0.018   0.685 -0.4708 -0.1794  0.3113
76410SOL    HW140955   4.174   0.078   0.626 -0.6440 -0.9983 -0.4108
76410SOL    HW240956   4.218   0.062   0.770 -2.2391  0.0297  0.2165
76411SOL     OW40957   2.547   6.527  11.679 -0.5866 -0.0063  0.0488
76411SOL    HW140958   2.516   6.436  11.677  2.5607 -1.3368  2.6144
76411SOL    HW240959   2.607   6.533  11.605  1.1538 -0.9393  1.3163
76412SOL     OW40960   2.137  13.044   1.710 -0.5680 -0.0974 -0.8213
76412SOL    HW140961   2.216  13.096   1.698 -0.5046  0.4181  1.4167
76412SOL    HW240962   2.073  13.106   1.745 -1.9523 -0.5362 -2.4682
76413SOL     OW40963   4.066   8.617  11.851 -0.0095  0.2133 -0.2064
76413SOL    HW140964   4.053   8.661  11.935  0.8392 -1.1520  0.6666
76413SOL    HW240965   3.980   8.621  11.809 -0.6410  0.2892  1.0417
76414SOL     OW40966  11.631   2.071   5.275 -0.0585  0.2141  0.4773
76414SOL    HW140967  11.724   2.064   5.256  0.0687  0.2187  1.0951
76414SOL    HW240968  11.626   2.117   5.359 -0.6450  0.9999  0.0358
76415SOL     OW40969   1.500   4.684  10.638 -0.3690 -0.1402 -0.2824
76415SOL    HW140970   1.470   4.775  10.632 -0.3792 -0.1569 -0.4818
76415SOL    HW240971   1.426   4.633  10.605 -1.3010 -0.3929  1.9975
76416SOL     OW40972   9.437   6.527   4.521  0.1543 -0.6142 -0.9040
76416SOL    HW140973   9.365   6.559   4.467  1.4392 -0.6789 -2.7445
76416SOL    HW240974   9.396   6.464   4.580 -2.1581  2.9346  1.6729
76417SOL     OW40975   5.953   9.419  11.239 -0.1565  0.3411  0.4818
76417SOL    HW140976   5.942   9.511  11.264 -1.0862  0.5170 -0.4845
76417SOL    HW240977   5.867   9.380  11.254 -0.1916 -0.0008 -0.5548
76418SOL     OW40978   7.874   2.264   4.912  0.2789 -0.1970  0.3743
76418SOL    HW140979   7.779   2.259   4.920  0.1898 -1.1885 -0.9615
76418SOL    HW240980   7.893   2.357   4.899 -0.4624  0.0445  0.9886
76419SOL     OW40981  10.378   8.678   3.860  0.1625  0.2586 -0.1818
76419SOL    HW140982  10.378   8.676   3.955  1.4264 -0.9502 -0.1791
76419SOL    HW240983  10.388   8.771   3.838  1.7636  0.3742  0.8973
76420SOL     OW40984   9.729   9.857  13.547 -0.0922  0.1980  0.5299
76420SOL    HW140985   9.701   9.936  13.592 -1.3876  1.1898 -1.8160
76420SOL    HW240986   9.775   9.888  13.469 -1.2914 -1.2691 -0.8650
76421SOL     OW40987  13.477  10.665   4.341 -0.2440 -0.3153 -0.0106
76421SOL    HW140988  13.529  10.678   4.261  2.1477 -1.5475  1.2352
76421SOL    HW240989  13.453  10.573   4.338 -0.0420 -0.3940  0.7436
76422SOL     OW40990   5.627   8.191  13.198 -0.6239  0.1049 -0.3918
76422SOL    HW140991   5.587   8.203  13.111  0.3898  1.7990 -0.6721
76422SOL    HW240992   5.692   8.122  13.184 -0.2280  0.6033 -1.0715
76423SOL     OW40993   5.876   9.794   4.920 -0.1775  0.2893 -0.6823
76423SOL    HW140994   5.962   9.825   4.892  0.0826 -0.4565 -0.7218
76423SOL    HW240995   5.815   9.862   4.888  0.4454  1.1553 -0.0655
76424SOL     OW40996   2.519  10.853   9.733  0.3062  0.2720  0.5212
76424SOL    HW140997   2.579  10.917   9.771 -0.0026  0.3231  0.9292
76424SOL    HW240998   2.461  10.828   9.806  0.2319 -0.2400  0.2883
76425SOL     OW40999   3.571  11.797   0.268 -0.0297  0.2291 -0.4522
76425SOL    HW141000   3.482  11.831   0.279  0.2595  0.8803 -0.0446
76425SOL    HW241001   3.597  11.827   0.181  0.1344  0.8663 -0.1908
76426SOL     OW41002  11.486   1.730   1.482 -0.0389 -0.0920 -0.2770
76426SOL    HW141003  11.520   1.743   1.571  1.0413 -0.2371 -0.6558
76426SOL    HW241004  11.421   1.800   1.471  0.0227  0.1028  0.5193
76427SOL     OW41005   2.104  10.890   0.279  0.1828  0.7543  0.1395
76427SOL    HW141006   2.050  10.811   0.286  0.8684  0.2808  0.1720
76427SOL    HW241007   2.172  10.878   0.346  1.3960  0.4772 -1.0928
76428SOL     OW41008   0.636   5.036   6.419  0.1785  0.4725 -0.4229
76428SOL    HW141009   0.558   5.022   6.471 -0.1910  1.2331 -0.7496
76428SOL    HW241010   0.632   5.128   6.394 -0.3562 -0.1493 -2.8863
76429SOL     OW41011   2.369  11.667  10.425  0.3296  0.1455 -0.3405
76429SOL    HW141012   2.323  11.748  10.404  0.9549  0.5592 -0.1627
76429SOL    HW241013   2.429  11.653  10.352 -0.0474 -0.3757 -0.5611
76430SOL     OW41014   6.662   8.954  11.820  0.1762 -0.2085  0.2894
76430SOL    HW141015   6.643   9.048  11.824 -1.4428 -0.5443  1.2903
76430SOL    HW241016   6.646   8.922  11.909  1.7966 -1.2676  0.2465
76431SOL     OW41017   6.965   8.758   3.052 -0.1895 -0.2222  0.2694
76431SOL    HW141018   6.912   8.817   3.105  1.2608  1.1521  0.2421
76431SOL    HW241019   7.043   8.742   3.105 -0.4827 -2.0396  0.2186
76432SOL     OW41020   9.287   1.793   8.846  0.1893  0.3226 -0.0272
76432SOL    HW141021   9.252   1.880   8.866 -0.8526 -0.0785 -0.0108
76432SOL    HW241022   9.295   1.750   8.931  1.1150  0.5453  0.0039
76433SOL     OW41023  12.791  11.583   5.988  0.2633  0.2199 -0.1412
76433SOL    HW141024  12.789  11.492   5.957 -0.9063 -0.3547  1.4708
76433SOL    HW241025  12.759  11.578   6.078 -0.8743  2.3872 -0.3560
76434SOL     OW41026   2.820  11.704   6.537  0.0751  0.1833 -0.5102
76434SOL    HW141027   2.761  11.774   6.565  0.3598  0.5893 -0.9268
76434SOL    HW241028   2.761  11.636   6.503 -0.1623  0.5415 -0.8275
76435SOL     OW41029   6.812   0.026   0.235 -0.3087 -0.2912 -0.0961
76435SOL    HW141030   6.898   0.070   0.232 -1.2286  1.7461  1.0264
76435SOL    HW241031   6.770   0.051   0.152 -0.0663 -0.7441 -0.3560
76436SOL     OW41032   7.630  11.595   4.299  0.1454  0.2722 -0.3520
76436SOL    HW141033   7.576  11.578   4.222  0.1398 -0.1654 -0.2510
76436SOL    HW241034   7.719  11.603   4.264  0.0845  0.5248 -0.4574
76437SOL     OW41035   1.262  11.762   2.611  0.3754  0.1760 -0.2485
76437SOL    HW141036   1.229  11.848   2.583 -2.0580 -0.3664  0.6799
76437SOL    HW241037   1.283  11.717   2.530  0.0080  1.0260 -0.8374
76438SOL     OW41038  10.474   1.195   4.272 -0.4539 -0.2415 -0.3065
76438SOL    HW141039  10.489   1.188   4.367  0.0502  0.6394 -0.3061
76438SOL    HW241040  10.427   1.277   4.261  2.2592  1.3523 -1.0519
76439SOL     OW41041  12.378   2.085  10.922  0.0841 -0.3804  0.4873
76439SOL    HW141042  12.336   2.171  10.928  0.9542  0.2125 -1.2273
76439SOL    HW241043  12.312   2.024  10.956 -1.0109  0.8384  0.6429
76440SOL     OW41044   1.606   8.897   6.731  0.0104 -0.0484 -0.1175
76440SOL    HW141045   1.609   8.813   6.686 -2.5113  0.5847 -1.6724
76440SOL    HW241046   1.601   8.961   6.660 -1.1415  1.2001  1.0419
76441SOL     OW41047   9.730   5.489  13.461 -0.0711 -0.0145  0.3072
76441SOL    HW141048   9.719   5.439  13.380 -1.3332 -0.8006  0.9396
76441SOL    HW241049   9.793   5.557  13.438 -0.9014  0.1931 -1.5253
76442SOL     OW41050   0.085  10.226   4.489 -0.5872  0.7943  0.2965
76442SOL    HW141051   0.106  10.159   4.424  0.5191  0.1835  1.2509
76442SOL    HW241052   0.132  10.304   4.458 -0.0683  0.5089  0.3649
76443SOL     OW41053   7.976   4.846  11.891 -0.1245  0.2571 -0.0306
76443SOL    HW141054   8.003   4.916  11.952  1.3091  0.1151 -0.4671
76443SOL    HW241055   8.023   4.769  11.922 -1.4994 -0.4807  0.2883
76444SOL     OW41056   7.038   0.871   4.214  0.2217 -0.5479  0.0509
76444SOL    HW141057   7.077   0.906   4.134 -1.4881  1.8959  0.1669
76444SOL    HW241058   6.976   0.805   4.184  1.6296 -1.7274 -0.3771
76445SOL     OW41059  12.166   0.150   7.726 -0.3748 -0.6588 -0.1827
76445SOL    HW141060  12.216   0.215   7.775 -3.6452  1.5005  0.5514
76445SOL    HW241061  12.190   0.066   7.767  3.4160  0.0086 -0.6909
76446SOL     OW41062   8.514   6.030  10.725  0.0768  0.3306  0.3054
76446SOL    HW141063   8.444   6.079  10.768 -0.2022  1.3593 -1.2505
76446SOL    HW241064   8.593   6.084  10.739  0.1020  0.3544  0.0766
76447SOL     OW41065   9.817   0.754  13.016 -0.2445 -0.1195  0.4465
76447SOL    HW141066   9.842   0.846  13.024 -1.9471  0.6187 -1.7877
76447SOL    HW241067   9.732   0.749  13.061  0.4697 -0.9494  1.7529
76448SOL     OW41068   0.749   4.208   0.915  0.3821  0.4222  0.3232
76448SOL    HW141069   0.714   4.167   0.994  1.9850 -1.4236  0.1481
76448SOL    HW241070   0.678   4.201   0.851  0.0734 -0.7269  0.7680
76449SOL     OW41071   7.359   2.969  11.379  0.4157  0.1223  0.0427
76449SOL    HW141072   7.357   2.884  11.422  1.6410  0.4295  0.7697
76449SOL    HW241073   7.269   3.002  11.387  0.2843 -0.4365  1.1396
76450SOL     OW41074   4.790  12.519  13.618 -0.2373 -0.2538 -0.2046
76450SOL    HW141075   4.745  12.452  13.669 -0.6179  0.1250 -0.0375
76450SOL    HW241076   4.820  12.582  13.683 -1.2142  0.5229 -0.4859
76451SOL     OW41077   9.491   8.165   1.822  0.0761 -0.5344  0.0116
76451SOL    HW141078   9.500   8.180   1.728 -0.9366 -3.0430 -0.5702
76451SOL    HW241079   9.580   8.177   1.856  0.5666 -0.0619 -1.3471
76452SOL     OW41080   8.260   8.923  11.324 -0.3980 -0.1653  0.3253
76452SOL    HW141081   8.319   8.866  11.275  0.8745 -0.9727  2.6416
76452SOL    HW241082   8.276   8.902  11.416 -1.8389  2.0564  1.1916
76453SOL     OW41083   8.033   7.384   7.659 -0.4892 -0.3268 -0.0928
76453SOL    HW141084   8.036   7.465   7.710  0.1258  0.5344 -1.4662
76453SOL    HW241085   8.117   7.382   7.612 -0.2226 -2.0868  0.3924
76454SOL     OW41086  11.414   3.477   5.210  0.3447  0.1571  1.4559
76454SOL    HW141087  11.485   3.430   5.254 -0.1861 -1.8297  0.3039
76454SOL    HW241088  11.436   3.472   5.117 -0.3370  1.2130  1.2217
76455SOL     OW41089  11.347   4.798   1.297 -0.6873  0.1117  0.2814
76455SOL    HW141090  11.349   4.892   1.282 -1.9186  0.3331  1.3464
76455SOL    HW241091  11.339   4.788   1.392  0.6513 -1.1069  0.3135
76456SOL     OW41092  11.581   3.336  10.892  0.1456 -0.1694 -0.4760
76456SOL    HW141093  11.505   3.280  10.876  0.0226  0.1665 -1.0683
76456SOL    HW241094  11.650   3.275  10.920  0.2150 -0.7153 -1.7588
76457SOL     OW41095   6.494   0.731   8.161  0.1594  0.0257 -0.2478
76457SOL    HW141096   6.519   0.643   8.135 -0.4975 -1.0369  2.3740
76457SOL    HW241097   6.557   0.788   8.116  1.0134 -1.8063 -1.4931
76458SOL     OW41098  11.657   5.236   2.730 -0.3569  0.0743 -0.3882
76458SOL    HW141099  11.590   5.175   2.698 -1.2141  0.6682  0.1967
76458SOL    HW241100  11.737   5.184   2.735 -1.3850 -1.4771  1.5889
76459SOL     OW41101   9.556   9.513   7.139  0.0366 -0.0602 -0.2128
76459SOL    HW141102   9.528   9.553   7.222  0.6196 -0.5928  0.2465
76459SOL    HW241103   9.614   9.578   7.100  1.1638 -0.5165  0.6389
76460SOL     OW41104   5.329   3.281  11.905  0.8278  0.0756  0.3736
76460SOL    HW141105   5.386   3.328  11.844  0.1624  0.6410  0.1699
76460SOL    HW241106   5.312   3.344  11.975 -0.8438  0.5099 -0.3769
76461SOL     OW41107  12.710   4.676   8.850 -0.5178  0.0085  0.1526
76461SOL    HW141108  12.797   4.684   8.811  0.6390 -1.0305  2.3465
76461SOL    HW241109  12.661   4.622   8.787  1.0867 -1.1555 -0.1663
76462SOL     OW41110  12.320  10.985   2.995  0.2982  0.4132  0.2317
76462SOL    HW141111  12.282  10.951   2.914 -0.6837 -0.7259  1.1390
76462SOL    HW241112  12.360  10.909   3.037  0.0112  0.8033  1.2466
76463SOL     OW41113   4.212   8.628  13.647  0.2261  0.4153  0.6508
76463SOL    HW141114   4.191   8.596  13.559  0.1457 -0.6470  1.0486
76463SOL    HW241115   4.302   8.601  13.662  0.0857  0.1868  1.0785
76464SOL     OW41116  12.970   5.710   1.758 -0.3948  0.2365 -0.1166
76464SOL    HW141117  12.892   5.753   1.724 -1.0866 -0.4080  0.6160
76464SOL    HW241118  12.997   5.650   1.689 -1.1319 -0.2555  0.0186
76465SOL     OW41119   6.392   7.784   6.772 -0.5391  0.6208 -0.2313
76465SOL    HW141120   6.311   7.739   6.748 -0.3260 -0.3548  0.7793
76465SOL    HW241121   6.376   7.818   6.860  0.3760 -0.1995  0.2699
76466SOL     OW41122   3.924   4.872  10.685  0.2837  0.8314 -0.4840
76466SOL    HW141123   3.862   4.921  10.738  0.1115 -0.4026  0.4917
76466SOL    HW241124   3.871   4.807  10.638  0.6853  0.5989 -0.6237
76467SOL     OW41125  10.880  12.144   7.633  0.3352 -0.3671  0.0849
76467SOL    HW141126  10.958  12.190   7.664 -1.5559  1.7478  2.0681
76467SOL    HW241127  10.843  12.201   7.565  0.7511 -1.6504 -1.2898
76468SOL     OW41128  10.892   4.424   6.710 -0.0096  0.3844  0.3528
76468SOL    HW141129  10.841   4.489   6.759 -0.2505  1.4706 -1.2624
76468SOL    HW241130  10.886   4.344   6.762 -0.7735  1.3161  1.7580
76469SOL     OW41131   9.517   6.100   3.443 -0.0600 -0.3274 -0.0296
76469SOL    HW141132   9.437   6.153   3.455 -0.2230 -0.4915 -0.3862
76469SOL    HW241133   9.529   6.097   3.349  1.6789  1.6476  0.0572
76470SOL     OW41134   6.669   2.244  13.184 -0.6005  0.0476  0.1502
76470SOL    HW141135   6.607   2.213  13.118 -0.6771  0.1826  0.1580
76470SOL    HW241136   6.649   2.337  13.193  2.1079  1.0293 -2.6115
76471SOL     OW41137  11.481   5.182   9.500 -0.0814  0.4342  0.2759
76471SOL    HW141138  11.542   5.125   9.453  0.2687  1.1134 -0.1065
76471SOL    HW241139  11.511   5.271   9.481 -1.0864  0.7807  0.2218
76472SOL     OW41140   8.314   6.319  12.681 -0.1745 -0.1242  0.2367
76472SOL    HW141141   8.306   6.397  12.626  2.1028  1.1820  1.5661
76472SOL    HW241142   8.360   6.350  12.760  1.2215 -2.8710  0.6515
76473SOL     OW41143   9.627   5.145   8.260  0.3768  0.2631  0.0182
76473SOL    HW141144   9.582   5.091   8.195 -0.5492  0.0992  0.7829
76473SOL    HW241145   9.619   5.234   8.225 -1.3595  0.3568  0.5759
76474SOL     OW41146   8.933  10.678  10.986  0.4795 -0.1432  0.2123
76474SOL    HW141147   8.907  10.587  11.003  0.7765 -0.5038 -1.1159
76474SOL    HW241148   8.854  10.729  11.000  0.1312 -0.6969  0.3027
76475SOL     OW41149   5.303   8.599   6.440  0.2242  0.4854  0.4698
76475SOL    HW141150   5.267   8.623   6.354  0.3716  0.1676  0.3153
76475SOL    HW241151   5.319   8.504   6.433 -1.7142  0.0312  1.5589
76476SOL     OW41152   3.506   1.738   0.012 -0.1135  0.6460 -0.2455
76476SOL    HW141153   3.449   1.745  -0.064 -1.0086 -1.2920  0.1781
76476SOL    HW241154   3.594   1.738  -0.023 -0.4878 -4.3810 -1.8827
76477SOL     OW41155   2.258   9.958   7.097  0.2086  0.5336 -0.2663
76477SOL    HW141156   2.173   9.938   7.059 -1.2574  0.5308  2.6930
76477SOL    HW241157   2.307   9.876   7.092 -0.2380  0.3147 -1.2849
76478SOL     OW41158   9.682  11.476   3.304 -0.6650  0.3227 -0.3705
76478SOL    HW141159   9.734  11.557   3.301 -2.0672  1.2730 -0.1948
76478SOL    HW241160   9.734  11.416   3.357  0.6131  0.9581 -0.8605
76479SOL     OW41161  11.784   5.694   9.326 -0.0988  0.7647 -0.5166
76479SOL    HW141162  11.861   5.730   9.369 -0.0983  0.5153 -0.3090
76479SOL    HW241163  11.796   5.599   9.330  1.3762  0.6970 -3.6924
76480SOL     OW41164  12.132   3.530  12.008  0.3286  0.6188  0.4125
76480SOL    HW141165  12.106   3.612  12.051  0.1168  1.0346 -0.4950
76480SOL    HW241166  12.140   3.553  11.916  0.6203 -0.3074  0.2018
76481SOL     OW41167   2.979   9.592   2.595 -0.1735  0.6867  0.5977
76481SOL    HW141168   2.966   9.515   2.538 -1.2904  0.7600  0.7392
76481SOL    HW241169   3.061   9.574   2.640  0.4811  0.3863 -0.6562
76482SOL     OW41170   5.628   0.909   9.404  0.7008 -0.0946  0.1235
76482SOL    HW141171   5.562   0.964   9.363  0.8833  0.6492  0.8180
76482SOL    HW241172   5.700   0.906   9.340  0.0013 -0.9520 -0.6560
76483SOL     OW41173   0.753   2.789   3.953  0.1565 -0.2129 -0.4286
76483SOL    HW141174   0.748   2.694   3.950 -0.1708 -0.2406  0.7464
76483SOL    HW241175   0.807   2.812   3.877 -0.3625 -1.2750 -1.1378
76484SOL     OW41176   0.084   8.184   4.676  0.1813 -0.6235  0.5917
76484SOL    HW141177   0.151   8.139   4.727  0.9358 -0.5861 -0.3365
76484SOL    HW241178   0.058   8.259   4.730 -0.5909 -1.7565  1.8426
76485SOL     OW41179   9.540   3.637   7.471  0.4219  0.2053  0.0268
76485SOL    HW141180   9.615   3.696   7.476  0.9385 -0.4319 -0.1952
76485SOL    HW241181   9.567   3.559   7.519  0.3967 -0.5582 -1.1709
76486SOL     OW41182   5.591   0.623  13.095  0.5991 -0.7578  0.5138
76486SOL    HW141183   5.591   0.581  13.009 -2.3515 -1.5247  0.7646
76486SOL    HW241184   5.541   0.704  13.082  0.2509 -0.8016  1.4634
76487SOL     OW41185   7.206  12.410   0.103 -0.0756 -0.3479  0.2316
76487SOL    HW141186   7.267  12.339   0.126  0.2951 -0.0746  0.0976
76487SOL    HW241187   7.164  12.434   0.185  0.4825 -0.0837  0.4417
76488SOL     OW41188  10.279   5.512   9.865  0.0117  0.2496  0.3114
76488SOL    HW141189  10.324   5.488   9.945  1.0185 -0.6686 -0.4970
76488SOL    HW241190  10.335   5.577   9.824 -0.1565  0.2246  0.0363
76489SOL     OW41191   8.236   0.390   1.749  0.5582  0.2077  0.2083
76489SOL    HW141192   8.330   0.380   1.738  0.3836 -0.2028 -1.0149
76489SOL    HW241193   8.221   0.378   1.843  1.7625  0.6725  0.4756
76490SOL     OW41194  10.678   0.481   5.937 -0.5175 -0.0487  0.5243
76490SOL    HW141195  10.640   0.464   6.023 -1.2928  0.3043  0.2567
76490SOL    HW241196  10.692   0.576   5.935  0.5928 -0.1882  0.6980
76491SOL     OW41197   9.605   7.799   9.643 -0.5127 -0.0851  0.6732
76491SOL    HW141198   9.576   7.792   9.552  0.1042 -1.2623  0.5450
76491SOL    HW241199   9.526   7.788   9.695 -0.8936  0.7615  0.2813
76492SOL     OW41200  11.412  11.372   8.308 -0.3048 -0.5067 -0.3482
76492SOL    HW141201  11.461  11.324   8.375 -0.6359 -0.7298 -0.2643
76492SOL    HW241202  11.407  11.311   8.234 -1.3941 -0.9077  0.0387
76493SOL     OW41203  10.898   9.060  10.410  0.2465 -0.5310 -0.0159
76493SOL    HW141204  10.968   9.063  10.475 -1.1449  0.9296  1.5312
76493SOL    HW241205  10.831   9.005  10.450 -0.1821 -0.5199 -0.7054
76494SOL     OW41206   8.770  10.217  10.072  0.5923  0.2504 -0.2316
76494SOL    HW141207   8.713  10.286  10.106  0.4846 -0.6483  1.5468
76494SOL    HW241208   8.855  10.259  10.060  0.2463  0.9592 -0.2309
76495SOL     OW41209  11.116  13.551   1.527  0.3237 -0.1090 -0.4247
76495SOL    HW141210  11.122  13.570   1.433  1.8888  1.2656 -0.0948
76495SOL    HW241211  11.040  13.600   1.557  0.2948  0.0940 -0.8233
76496SOL     OW41212  11.507   0.869  12.235 -0.3807 -0.3376 -0.1733
76496SOL    HW141213  11.472   0.783  12.254  0.1076 -0.6911 -0.8079
76496SOL    HW241214  11.456   0.929  12.289 -0.4928 -1.0573  0.5322
76497SOL     OW41215   6.794   8.108   6.313  0.2107  0.0726 -0.0575
76497SOL    HW141216   6.832   8.159   6.384  2.6676 -0.6986 -0.7133
76497SOL    HW241217   6.699   8.111   6.328  0.6415 -0.3548  3.4087
76498SOL     OW41218   5.972  11.386   4.457  0.1610 -0.5951  0.1707
76498SOL    HW141219   5.911  11.425   4.394 -1.2553  0.7739  2.2862
76498SOL    HW241220   6.005  11.308   4.411 -1.6037 -0.2719 -1.8505
76499SOL     OW41221   6.694   9.445  12.680 -0.4782 -0.3266 -0.2714
76499SOL    HW141222   6.687   9.506  12.754  0.1394  0.0444 -0.5091
76499SOL    HW241223   6.604   9.433  12.650 -0.5668  0.7755 -0.4699
76500SOL     OW41224  11.988  10.606  12.178  0.2039  0.0388  0.4799
76500SOL    HW141225  12.046  10.570  12.246 -0.7851  0.5492  1.6279
76500SOL    HW241226  11.926  10.535  12.160 -0.0619  0.2072  0.7353
76501SOL     OW41227  11.742   7.898   6.611 -0.1052 -0.3241  0.4051
76501SOL    HW141228  11.655   7.925   6.642  0.2825  1.0737  0.3474
76501SOL    HW241229  11.796   7.977   6.620  0.6156 -0.5384 -1.5752
76502SOL     OW41230   3.619   5.773   9.929  0.4436 -0.4673  0.2022
76502SOL    HW141231   3.609   5.693   9.876 -0.5985 -0.3516  0.1963
76502SOL    HW241232   3.632   5.842   9.865 -1.2010 -0.2699  0.0388
76503SOL     OW41233  10.414   8.284  10.366  0.4811  0.0190  0.2334
76503SOL    HW141234  10.321   8.262  10.374 -0.1141  2.3475  0.4641
76503SOL    HW241235  10.449   8.220  10.304 -1.2501 -0.9276  0.1676
76504SOL     OW41236   1.648   8.025   8.684  0.2061  0.0294 -0.4965
76504SOL    HW141237   1.628   7.944   8.729 -0.2052 -0.0665 -0.8443
76504SOL    HW241238   1.669   8.087   8.754  0.2423 -0.2955 -0.2161
76505SOL     OW41239   9.122   5.341   5.307  0.6257 -0.0670 -0.0053
76505SOL    HW141240   9.082   5.394   5.238 -0.3478 -1.6886 -0.7295
76505SOL    HW241241   9.177   5.279   5.260  0.6138 -0.6512  0.7400
76506SOL     OW41242   4.629  13.189   2.513  0.3908 -0.2425  0.0825
76506SOL    HW141243   4.713  13.224   2.541  0.8459 -1.0521 -0.2399
76506SOL    HW241244   4.573  13.195   2.590  0.6578  0.5563  0.2190
76507SOL     OW41245   6.927   9.489   3.408 -0.1783  0.2606 -0.0658
76507SOL    HW141246   6.971   9.412   3.373 -1.1745 -0.0416 -0.6963
76507SOL    HW241247   6.988   9.524   3.473  0.9966 -0.1038 -0.9391
76508SOL     OW41248   2.242   5.245   6.783 -0.0676 -0.5136  0.2193
76508SOL    HW141249   2.285   5.213   6.863 -0.3752 -0.0597  0.5695
76508SOL    HW241250   2.155   5.273   6.812  0.1662  0.5703 -0.0919
76509SOL     OW41251   3.154   5.728   0.377  0.0200 -0.1828 -0.0142
76509SOL    HW141252   3.118   5.809   0.414  0.2940 -0.3028  0.5206
76509SOL    HW241253   3.091   5.702   0.310  0.0716  0.6284 -0.3902
76510SOL     OW41254   6.128  13.412   9.808 -0.7022 -0.1790  0.0100
76510SOL    HW141255   6.198  13.462   9.848 -2.0988  0.1543  2.1918
76510SOL    HW241256   6.125  13.331   9.858 -2.1785  0.0261  0.2949
76511SOL     OW41257   1.249   2.877   6.175  0.0751  0.4517 -0.0846
76511SOL    HW141258   1.324   2.837   6.219  0.8149  1.1431 -0.6856
76511SOL    HW241259   1.181   2.883   6.242  0.9526  0.8922  0.7782
76512SOL     OW41260   7.520   0.231   3.602 -0.2107 -0.3369 -0.6487
76512SOL    HW141261   7.518   0.136   3.589  0.0164 -0.4509  0.0582
76512SOL    HW241262   7.613   0.252   3.609 -0.2838 -0.2228  0.1741
76513SOL     OW41263   0.479   2.857   0.696 -0.1448 -0.1243  0.6975
76513SOL    HW141264   0.500   2.854   0.603 -0.6523 -1.7360  0.6020
76513SOL    HW241265   0.385   2.871   0.700 -0.0411  0.5479  0.9954
76514SOL     OW41266  10.038   4.173   7.512  0.0533  0.1349 -0.5134
76514SOL    HW141267   9.976   4.200   7.579 -1.7790 -1.0124 -1.6676
76514SOL    HW241268  10.082   4.096   7.550  0.4327  0.6522  0.1095
76515SOL     OW41269   4.434   1.762   1.680  0.1206  0.2223  0.0854
76515SOL    HW141270   4.459   1.670   1.689 -0.4032  0.0984  0.3488
76515SOL    HW241271   4.419   1.791   1.770  0.5448  0.6459  0.0250
76516SOL     OW41272   8.727   5.045   7.449 -0.6189 -0.2244 -0.0287
76516SOL    HW141273   8.685   4.960   7.463 -3.5669  0.7715 -1.8288
76516SOL    HW241274   8.786   5.030   7.375 -1.0731 -0.7082 -0.2979
76517SOL     OW41275   0.841   7.231   2.810 -0.3037  0.1417  0.0082
76517SOL    HW141276   0.921   7.191   2.777  1.4671  3.5283 -0.2999
76517SOL    HW241277   0.798   7.267   2.732 -1.0126  0.1668  0.4039
76518SOL     OW41278   0.285   0.287   6.374  0.0254  0.3181  0.1110
76518SOL    HW141279   0.239   0.242   6.445 -1.5235  0.9911 -0.4228
76518SOL    HW241280   0.370   0.243   6.369 -0.3161 -0.5767  1.5333
76519SOL     OW41281  10.143   7.136  11.499  0.0754 -0.8533  0.7917
76519SOL    HW141282  10.151   7.056  11.448 -0.7846 -1.6356  1.8330
76519SOL    HW241283  10.135   7.106  11.589 -0.0948  0.4184  1.2179
76520SOL     OW41284  10.140   9.464  12.524  0.3888  0.1725 -0.0671
76520SOL    HW141285  10.228   9.496  12.506  0.5912 -1.3042 -2.1572
76520SOL    HW241286  10.097   9.464  12.438 -2.0574  1.8728  1.0268
76521SOL     OW41287  11.062  11.609  10.850 -0.0326  0.4245 -0.1506
76521SOL    HW141288  11.144  11.567  10.877  0.0448  0.3955 -0.4357
76521SOL    HW241289  11.011  11.616  10.931  0.6122  1.2662  0.2009
76522SOL     OW41290   3.075   6.813  10.663  0.2888  0.2091 -0.2439
76522SOL    HW141291   3.117   6.729  10.644  0.8048  0.4074  0.0081
76522SOL    HW241292   3.058   6.810  10.758 -0.8076 -0.1107 -0.4314
76523SOL     OW41293   1.081   2.551   1.878 -0.0824 -0.7276  0.4080
76523SOL    HW141294   1.118   2.496   1.809  0.3004 -0.6455  0.5471
76523SOL    HW241295   1.011   2.600   1.834 -0.9232 -1.8521  0.4524
76524SOL     OW41296   5.547  11.958   4.673 -0.1690  0.2206 -0.5102
76524SOL    HW141297   5.556  11.863   4.670  2.6570  0.3895 -0.0676
76524SOL    HW241298   5.550  11.985   4.581 -1.3382 -0.1022 -0.6603
76525SOL     OW41299   2.988  13.168   2.018 -0.0040 -0.1787  0.0567
76525SOL    HW141300   3.009  13.137   1.929 -0.9367 -3.0173  0.7079
76525SOL    HW241301   3.067  13.152   2.068 -0.1145 -0.4490  0.1472
76526SOL     OW41302  11.695   5.056   9.750  0.1426 -0.3916  0.5343
76526SOL    HW141303  11.777   5.033   9.706  0.1757 -0.4028  0.6016
76526SOL    HW241304  11.677   5.146   9.720 -0.0608 -0.5516  0.1577
76527SOL     OW41305  11.063  13.073  10.421  0.3113 -0.0989  0.3490
76527SOL    HW141306  11.117  13.071  10.342 -0.0129  0.8551  0.0868
76527SOL    HW241307  11.043  13.165  10.434 -2.5009 -0.5297 -0.4214
76528SOL     OW41308   3.826  12.960   2.051 -0.3444 -0.6222 -0.1812
76528SOL    HW141309   3.760  12.952   2.119 -0.8802 -0.1038 -0.6281
76528SOL    HW241310   3.777  12.977   1.971  0.1952 -2.3837 -0.9404
76529SOL     OW41311   7.109   3.068   1.837 -0.1734 -0.7338  0.5243
76529SOL    HW141312   7.116   3.122   1.759  0.3432 -0.1137  0.9914
76529SOL    HW241313   7.027   3.095   1.878 -0.6374 -1.3295  0.0053
76530SOL     OW41314   2.796   3.826  12.816  0.0439  0.4962 -0.0489
76530SOL    HW141315   2.873   3.861  12.769  0.7233  0.4276  0.9771
76530SOL    HW241316   2.780   3.741  12.775 -1.3306  1.7327 -2.2551
76531SOL     OW41317   1.712   7.005   5.046 -0.0752  0.0319 -0.2750
76531SOL    HW141318   1.709   6.923   5.095  2.1586  1.2612  2.1927
76531SOL    HW241319   1.622   7.038   5.048 -0.3984 -0.8610  1.4189
76532SOL     OW41320   5.012   8.738  12.378  0.2931  0.1644 -0.1992
76532SOL    HW141321   5.011   8.767  12.287  0.5140 -1.5327 -0.7783
76532SOL    HW241322   5.095   8.692  12.387  0.6078  0.9453  1.0880
76533SOL     OW41323  10.155   4.498   5.622  0.0815  0.2078 -0.6576
76533SOL    HW141324  10.151   4.448   5.704  1.7753  0.9156 -0.0754
76533SOL    HW241325  10.249   4.512   5.609  0.1721 -2.4461 -4.3462
76534SOL     OW41326   9.129   6.721   5.681  0.1117 -0.0181  0.5131
76534SOL    HW141327   9.122   6.648   5.618 -0.6935 -0.5897  1.2323
76534SOL    HW241328   9.041   6.759   5.682  0.4764  0.8306  0.3112
76535SOL     OW41329   8.143  11.732   6.910  0.4867 -0.3632 -0.3344
76535SOL    HW141330   8.135  11.648   6.956 -0.3426  0.9905  2.1706
76535SOL    HW241331   8.079  11.726   6.838 -0.9201 -1.2161  0.9257
76536SOL     OW41332   8.726  10.811   3.811 -0.0099 -0.2255 -0.0132
76536SOL    HW141333   8.722  10.821   3.716  1.0093 -0.2394 -0.0671
76536SOL    HW241334   8.701  10.897   3.845 -1.1146 -0.4370 -0.2735
76537SOL     OW41335   0.683  13.591   9.357  0.5238 -0.5313  0.1562
76537SOL    HW141336   0.628  13.629   9.425  1.5960 -0.8372  1.2271
76537SOL    HW241337   0.671  13.648   9.281  0.9243  1.0604  1.2466
76538SOL     OW41338   5.930   2.714   0.989 -0.0401 -0.2592  0.0774
76538SOL    HW141339   5.968   2.756   0.911  1.1719  0.8865  1.2354
76538SOL    HW241340   6.001   2.659   1.023 -0.2104  0.0461  0.9410
76539SOL     OW41341   7.709   6.164   0.255  0.1597 -0.2912  0.0372
76539SOL    HW141342   7.626   6.119   0.271  0.1251 -0.9469 -1.7560
76539SOL    HW241343   7.685   6.256   0.244 -0.1492 -0.2704  0.8530
76540SOL     OW41344  10.278   7.164   5.971 -0.3823  0.4522  0.0076
76540SOL    HW141345  10.231   7.182   5.889  0.6134  1.3325 -0.3859
76540SOL    HW241346  10.370   7.177   5.949 -0.1276  1.0135  1.3434
76541SOL     OW41347   8.529  12.271   5.212 -0.2669  1.0509 -0.0639
76541SOL    HW141348   8.455  12.325   5.240 -0.3865  1.0441 -0.3643
76541SOL    HW241349   8.569  12.242   5.293 -1.7913 -0.6100  0.1562
76542SOL     OW41350   0.209   4.938  11.269 -0.0641 -0.3120 -0.0760
76542SOL    HW141351   0.134   4.879  11.263 -0.0665 -0.4600  1.1680
76542SOL    HW241352   0.252   4.915  11.352  1.6895 -0.6101 -1.0144
76543SOL     OW41353  11.411   0.317   2.504 -0.0711 -0.2646  0.4768
76543SOL    HW141354  11.405   0.412   2.491 -0.3561 -0.4637 -0.9602
76543SOL    HW241355  11.323   0.291   2.531  0.3961  0.0735  2.5151
76544SOL     OW41356   2.118   8.338  10.501  0.2503 -0.0806  0.4572
76544SOL    HW141357   2.096   8.324  10.593  0.8346  0.0619  0.6220
76544SOL    HW241358   2.177   8.413  10.501  0.8672 -0.5511  0.0478
76545SOL     OW41359   6.066   9.812  13.438 -0.1785  0.3313  0.0947
76545SOL    HW141360   6.022   9.728  13.446 -1.7214  1.2388  1.9634
76545SOL    HW241361   6.128   9.800  13.367  0.6857 -2.7966  1.2339
76546SOL     OW41362   1.105   3.307   7.851  0.0884  0.4393  0.9431
76546SOL    HW141363   1.029   3.264   7.813 -0.0258  0.5567  1.0369
76546SOL    HW241364   1.083   3.400   7.849  0.7736  0.5993 -0.2491
76547SOL     OW41365   4.244   9.764  11.666  0.2262 -0.5911  0.2008
76547SOL    HW141366   4.239   9.766  11.571 -1.5147  2.3349  0.2207
76547SOL    HW241367   4.314   9.825  11.688 -1.2695  1.0152  0.7516
76548SOL     OW41368  12.097  10.174  10.968  0.1266 -0.0060 -0.0672
76548SOL    HW141369  12.105  10.229  10.891 -0.3007 -1.8960 -1.5295
76548SOL    HW241370  12.184  10.136  10.980 -0.4009 -1.6953 -1.2299
76549SOL     OW41371  11.066   3.958  11.733  0.2729  0.7757 -0.4581
76549SOL    HW141372  11.056   4.054  11.734 -1.6329  0.6140 -0.3295
76549SOL    HW241373  11.077   3.936  11.641 -0.5895  1.0221 -0.6278
76550SOL     OW41374   8.654   6.149  10.335 -0.2247  0.1165  0.0978
76550SOL    HW141375   8.569   6.142  10.378 -0.6787 -0.2831 -0.8170
76550SOL    HW241376   8.692   6.061  10.341 -0.0853  0.1760  0.1014
76551SOL     OW41377   1.560  10.526   1.134  0.2110 -0.3742  0.4521
76551SOL    HW141378   1.530  10.486   1.216  3.1708 -0.5505  1.5718
76551SOL    HW241379   1.653  10.544   1.149  0.1956  2.2740 -1.8558
76552SOL     OW41380   4.014  10.047   8.142 -0.3695 -0.0705 -0.3518
76552SOL    HW141381   4.049  10.008   8.222  0.5383  1.4979  0.0534
76552SOL    HW241382   4.008  10.141   8.161  0.9144  0.5092 -2.4683
76553SOL     OW41383   5.488   8.942  13.012 -0.6207 -0.6056 -0.0316
76553SOL    HW141384   5.410   8.912  12.966 -1.3163 -0.3355  0.9596
76553SOL    HW241385   5.528   9.006  12.952 -0.7097 -1.3109 -0.8765
76554SOL     OW41386   4.028   3.474   1.168 -0.2543  0.4313 -0.0162
76554SOL    HW141387   4.105   3.444   1.120 -1.5718 -0.8642 -1.4251
76554SOL    HW241388   3.957   3.469   1.104 -1.9982 -0.7897  1.8966
76555SOL     OW41389   4.352   2.176   2.382 -0.9911  0.4740 -0.0880
76555SOL    HW141390   4.428   2.197   2.436 -1.3238  1.3821  0.0392
76555SOL    HW241391   4.294   2.251   2.391 -0.7728  0.9556 -2.2146
76556SOL     OW41392   2.109   6.253  13.173  0.1600  0.0247 -0.1358
76556SOL    HW141393   2.190   6.243  13.123 -0.7858 -0.7339 -1.5416
76556SOL    HW241394   2.133   6.224  13.262  1.0363 -1.7535 -0.9005
76557SOL     OW41395  10.515   0.847   8.594 -0.3251  0.5085 -0.0538
76557SOL    HW141396  10.491   0.893   8.514  1.4827  0.2200 -0.8162
76557SOL    HW241397  10.590   0.896   8.629  0.1479 -0.4893  0.3829
76558SOL     OW41398  10.908   0.207   7.680 -0.3023 -0.5392 -0.0752
76558SOL    HW141399  10.982   0.146   7.676 -1.2143 -1.7081  0.4290
76558SOL    HW241400  10.835   0.155   7.714 -0.9940  0.9672  0.8585
76559SOL     OW41401  12.658   8.747   5.649 -0.0996  0.4983 -0.3608
76559SOL    HW141402  12.685   8.775   5.562  1.2421  2.3254  0.5633
76559SOL    HW241403  12.739   8.717   5.690 -0.6107  0.1758  0.4339
76560SOL     OW41404   3.635   3.861   1.201 -0.5607 -0.0339  0.3026
76560SOL    HW141405   3.681   3.777   1.203 -0.6411 -0.0684  0.8577
76560SOL    HW241406   3.686   3.918   1.259  0.5139  0.8575 -1.3943
76561SOL     OW41407   4.638   4.443  13.355  0.5599  0.1106 -0.1138
76561SOL    HW141408   4.641   4.352  13.325 -1.1861  0.1541 -0.5419
76561SOL    HW241409   4.669   4.494  13.279 -1.4660  0.0467 -1.0500
76562SOL     OW41410   2.869   7.309  10.058  0.4111  0.2547 -1.4114
76562SOL    HW141411   2.955   7.289  10.022  0.3464 -1.4744 -0.6890
76562SOL    HW241412   2.877   7.295  10.152 -0.3452  1.2663 -1.1767
76563SOL     OW41413  11.876   9.004   8.146 -0.5888 -0.4457  0.1219
76563SOL    HW141414  11.861   8.991   8.240  0.6806  2.9951  0.9515
76563SOL    HW241415  11.807   9.066   8.120  0.1890  0.0825 -0.7347
76564SOL     OW41416   8.868   4.345   0.089  0.0272  0.5718 -0.0873
76564SOL    HW141417   8.841   4.313   0.002  1.4418 -0.9583 -0.0131
76564SOL    HW241418   8.822   4.288   0.150  2.8375 -1.8070  0.0455
76565SOL     OW41419  11.955  12.208   1.491 -0.2717 -0.1016 -0.1602
76565SOL    HW141420  11.946  12.269   1.418 -1.1997  0.7501  0.6376
76565SOL    HW241421  11.916  12.253   1.565 -1.3441 -1.8037  0.3721
76566SOL     OW41422   9.575   1.368   4.938 -0.4010 -0.3338  0.0308
76566SOL    HW141423   9.641   1.300   4.948  1.5269  1.5190  0.6502
76566SOL    HW241424   9.522   1.363   5.018  1.5812  0.7233  1.4945
76567SOL     OW41425   0.496   5.353   8.908  0.4211  0.2342  0.3700
76567SOL    HW141426   0.463   5.302   8.982  2.6196 -0.3431  1.0085
76567SOL    HW241427   0.591   5.349   8.915  0.7022  2.2776 -1.0668
76568SOL     OW41428   5.233   2.122   6.513 -0.5830  0.2737 -0.0749
76568SOL    HW141429   5.321   2.085   6.521  1.1874  4.2144  1.4309
76568SOL    HW241430   5.178   2.065   6.566  1.5281 -1.0806  0.7937
76569SOL     OW41431  10.132   5.164  11.321 -0.6811 -0.0580  0.6274
76569SOL    HW141432  10.158   5.181  11.231 -2.1218  0.2455  0.2486
76569SOL    HW241433  10.169   5.236  11.371  0.9320 -0.7261  0.4605
76570SOL     OW41434   6.691   0.183  13.437 -0.2833  0.5768 -0.0220
76570SOL    HW141435   6.599   0.189  13.412 -0.3320  0.2903  0.0884
76570SOL    HW241436   6.698   0.235  13.517 -0.3331  0.6548 -0.0687
76571SOL     OW41437   0.749  10.760   8.182 -0.3556  0.1596 -0.4227
76571SOL    HW141438   0.809  10.693   8.148  0.8814  0.6685  0.6639
76571SOL    HW241439   0.664  10.716   8.185  0.0748 -0.7979 -1.3712
76572SOL     OW41440   1.673  12.942   9.311  0.8120  0.7599 -0.1102
76572SOL    HW141441   1.688  13.022   9.361 -0.1195 -0.1546  1.7266
76572SOL    HW241442   1.725  12.876   9.356  0.6074  0.0686 -0.8655
76573SOL     OW41443   0.025   0.172   6.064 -0.1853  0.4304  0.0583
76573SOL    HW141444   0.113   0.192   6.031 -0.0833 -2.6512 -1.9829
76573SOL    HW241445   0.034   0.086   6.105 -1.8089  1.1714  2.1270
76574SOL     OW41446   8.827  13.420   5.739 -0.6484 -0.3900  0.1235
76574SOL    HW141447   8.874  13.373   5.670 -0.7750 -0.0089 -0.2265
76574SOL    HW241448   8.896  13.454   5.796 -0.5274 -0.4061 -0.0126
76575SOL     OW41449  12.089   4.684   4.538  0.1846  0.1838 -0.1624
76575SOL    HW141450  12.184   4.683   4.530  0.1492  0.4762 -0.7335
76575SOL    HW241451  12.068   4.608   4.592  0.8446  1.0122  1.2935
76576SOL     OW41452   0.739   5.674  10.793  0.2963  0.4251  0.5087
76576SOL    HW141453   0.692   5.678  10.710  0.6035  3.0403  0.3645
76576SOL    HW241454   0.696   5.740  10.848  1.0808 -0.1585  1.8716
76577SOL     OW41455  13.745   1.571   7.346  0.0542 -0.3564 -0.3502
76577SOL    HW141456  13.684   1.501   7.324  1.6050 -1.6200 -0.8131
76577SOL    HW241457  13.737   1.634   7.274  0.8510 -1.6019 -1.5886
76578SOL     OW41458   3.267   7.952  11.325  0.0757 -0.1562  0.0773
76578SOL    HW141459   3.232   7.863  11.322  1.4313 -0.6936 -1.3340
76578SOL    HW241460   3.192   8.008  11.311 -0.3760 -1.2365 -2.3762
76579SOL     OW41461   0.935  12.881   0.363 -0.7401  0.3202  0.0550
76579SOL    HW141462   1.019  12.886   0.316 -0.0911  0.3127  1.1784
76579SOL    HW241463   0.894  12.801   0.329  0.0788 -0.1181  0.0705
76580SOL     OW41464  10.709   4.747   0.372 -0.2814 -0.2152  0.4244
76580SOL    HW141465  10.626   4.704   0.393 -1.4857  0.8803 -1.7510
76580SOL    HW241466  10.716   4.741   0.277  2.0249  0.0173  0.5062
76581SOL     OW41467   8.783  10.254   9.344 -0.0655  0.3602  0.2475
76581SOL    HW141468   8.759  10.346   9.338 -1.4657 -0.0408 -1.0193
76581SOL    HW241469   8.867  10.253   9.389 -1.2175  2.0730  2.6330
76582SOL     OW41470   6.763   3.869  11.866  0.1875 -0.0369  0.1304
76582SOL    HW141471   6.788   3.807  11.797  0.7589 -1.3751  1.4637
76582SOL    HW241472   6.685   3.913  11.832  2.5678  2.2602 -3.0232
76583SOL     OW41473  12.822  11.533   8.575 -0.6334  0.5567  0.4221
76583SOL    HW141474  12.810  11.624   8.549 -1.8161 -0.0796 -1.4878
76583SOL    HW241475  12.762  11.521   8.649  0.0866  1.4812  1.1872
76584SOL     OW41476  12.688   3.895   9.389 -0.1002 -0.2242  0.1340
76584SOL    HW141477  12.600   3.877   9.358  0.1302 -1.1909  0.0114
76584SOL    HW241478  12.746   3.860   9.321  0.3785 -0.5494  0.6913
76585SOL     OW41479  12.890   0.703   8.481  0.6021  0.7201  0.1442
76585SOL    HW141480  12.898   0.776   8.419  0.1545  1.3302  0.7951
76585SOL    HW241481  12.907   0.742   8.566 -0.5879  0.2553  0.6078
76586SOL     OW41482   8.965   0.993   3.621 -0.3544  0.3706  0.3287
76586SOL    HW141483   8.898   1.024   3.682 -1.7722  0.2636 -1.0932
76586SOL    HW241484   8.931   0.910   3.588  0.0779  0.6938 -1.0128
76587SOL     OW41485  11.798  10.508   9.778  0.3395  0.3326 -0.0147
76587SOL    HW141486  11.876  10.452   9.778 -1.1311 -1.8539 -0.3643
76587SOL    HW241487  11.784  10.529   9.686  0.4904  0.6736  0.0416
76588SOL     OW41488   0.009   3.242  10.371 -0.2915  0.3587 -0.3000
76588SOL    HW141489   0.095   3.204  10.353  0.9479  1.8003  2.0335
76588SOL    HW241490  -0.029   3.183  10.437 -0.2203  0.7935  0.1331
76589SOL     OW41491  11.177   1.563   4.494 -0.1986 -0.3621  0.3139
76589SOL    HW141492  11.125   1.590   4.418  0.5737  0.3535  0.0280
76589SOL    HW241493  11.219   1.643   4.525  2.1193 -1.1564 -0.5395
76590SOL     OW41494  12.453  11.550   9.159  0.3967 -0.7618 -0.7797
76590SOL    HW141495  12.364  11.584   9.167  0.3551 -0.4154 -2.3734
76590SOL    HW241496  12.499  11.586   9.235 -0.6867 -0.5542 -0.1959
76591SOL     OW41497  12.671  11.146   3.510  0.2597 -0.7416  0.0994
76591SOL    HW141498  12.586  11.166   3.550  0.0133 -1.0695 -0.2455
76591SOL    HW241499  12.722  11.226   3.521 -1.0361  0.5281 -2.1266
76592SOL     OW41500   0.737   7.148   0.998 -0.1829  0.0164 -0.0832
76592SOL    HW141501   0.825   7.133   1.032  0.2036 -0.3335 -1.1972
76592SOL    HW241502   0.750   7.177   0.908 -1.2315 -2.0337 -0.9639
76593SOL     OW41503   8.149  13.032   7.418  0.0059 -0.0358  0.2056
76593SOL    HW141504   8.099  13.113   7.413  1.6392  0.9492 -1.4802
76593SOL    HW241505   8.086  12.963   7.395 -0.7896  1.0592 -1.0523
76594SOL     OW41506  13.317   0.734   6.407  0.3439 -0.5045  0.0084
76594SOL    HW141507  13.406   0.700   6.397  0.4167 -0.2472 -0.2269
76594SOL    HW241508  13.273   0.710   6.326  0.2709 -0.4137  0.0207
76595SOL     OW41509   0.949  11.139   4.027  0.3049  0.4678 -0.1377
76595SOL    HW141510   0.880  11.187   4.072 -2.1434 -1.3258 -1.6958
76595SOL    HW241511   0.981  11.199   3.960  0.6888  1.5152  0.9561
76596SOL     OW41512   0.773  13.004   4.659 -0.3799 -0.1306  0.1921
76596SOL    HW141513   0.853  13.022   4.709 -0.5012  0.4665  0.1853
76596SOL    HW241514   0.779  12.912   4.636  0.1776 -0.1578  0.4273
76597SOL     OW41515   9.890  11.844   8.805 -0.1667 -0.1688  0.4929
76597SOL    HW141516   9.857  11.826   8.717 -1.6467  2.0928  0.5053
76597SOL    HW241517   9.984  11.833   8.798 -0.0157  1.7861 -1.9372
76598SOL     OW41518   1.143  11.942   2.918 -0.3561  0.1620  0.0365
76598SOL    HW141519   1.178  11.853   2.906 -0.0616 -0.4185  4.0487
76598SOL    HW241520   1.053  11.937   2.885  0.1121 -1.1807 -1.1392
76599SOL     OW41521   1.997   0.684   4.184  0.1317  0.0775  0.0266
76599SOL    HW141522   2.024   0.707   4.094  0.0248  0.3698  0.0670
76599SOL    HW241523   1.965   0.766   4.220  1.9871  0.4449  0.9889
76600SOL     OW41524   9.420  12.366  11.981 -0.8297  0.3134  0.1810
76600SOL    HW141525   9.423  12.285  11.930  2.7006  1.2769 -1.4673
76600SOL    HW241526   9.392  12.433  11.918  1.7743  1.2103 -0.1264
76601SOL     OW41527   5.592   2.325   7.330 -0.1146  0.7602 -0.4202
76601SOL    HW141528   5.567   2.251   7.274  0.7924 -1.4802  1.9407
76601SOL    HW241529   5.512   2.378   7.336 -2.2737 -2.3336  1.1778
76602SOL     OW41530   8.027   9.831  11.964 -0.5253 -0.0894 -0.2804
76602SOL    HW141531   7.932   9.830  11.979 -0.2847  0.4673  1.4793
76602SOL    HW241532   8.039   9.893  11.892 -1.3575  1.4353  0.8282
76603SOL     OW41533   7.424   9.724   6.120  0.2292 -0.0692  0.7195
76603SOL    HW141534   7.358   9.655   6.112 -1.0231  0.8694  2.4240
76603SOL    HW241535   7.507   9.679   6.101 -0.5618 -1.9930  1.5134
76604SOL     OW41536   4.460  10.592   2.090  0.2307  0.1767  0.2297
76604SOL    HW141537   4.462  10.675   2.042 -1.0281  0.9401  1.4330
76604SOL    HW241538   4.547  10.585   2.129  0.2357  1.1104  0.4022
76605SOL     OW41539   5.804   0.123   3.955 -0.1179  0.1232  0.7839
76605SOL    HW141540   5.875   0.179   3.988  0.0942 -0.7219  1.8510
76605SOL    HW241541   5.849   0.050   3.912 -0.1117 -1.9139  3.8740
76606SOL     OW41542   8.274  13.383   8.755  0.2996  0.0204  0.4954
76606SOL    HW141543   8.190  13.429   8.751 -0.3755 -1.2105 -0.0091
76606SOL    HW241544   8.331  13.431   8.696  0.0459  1.0383  1.0632
76607SOL     OW41545  11.951   2.964   9.126  0.1844 -0.2092  0.6247
76607SOL    HW141546  11.871   3.016   9.129  1.5038  2.1588 -1.3845
76607SOL    HW241547  11.994   2.982   9.210  0.1328  1.1846  0.3779
76608SOL     OW41548  10.736  11.500  10.951 -0.0389  0.0579  0.0238
76608SOL    HW141549  10.643  11.497  10.928 -0.0762 -0.4488  0.2495
76608SOL    HW241550  10.744  11.443  11.027  1.0250 -2.5813 -1.9345
76609SOL     OW41551   0.440   4.157   4.605  0.1892 -0.0312 -0.2012
76609SOL    HW141552   0.516   4.099   4.612  0.2419  0.0963  0.3319
76609SOL    HW241553   0.474   4.239   4.570  0.3087  0.0521  0.1132
76610SOL     OW41554   1.118   0.804   5.428  0.5074  0.3254 -0.2926
76610SOL    HW141555   1.191   0.802   5.366 -0.0385  1.5956 -1.0278
76610SOL    HW241556   1.158   0.788   5.513  1.4131 -0.5425 -0.8637
76611SOL     OW41557  11.133  10.189   3.425  0.0327  0.1344 -0.1762
76611SOL    HW141558  11.179  10.152   3.500  0.3710 -2.2698 -1.4933
76611SOL    HW241559  11.041  10.168   3.441 -0.0922  0.9708  0.2677
76612SOL     OW41560  12.699   0.051   3.743  0.5646 -0.1219  0.2316
76612SOL    HW141561  12.728  -0.041   3.747  1.1475  0.1039  2.1249
76612SOL    HW241562  12.638   0.060   3.816 -0.8743  0.5725 -1.0192
76613SOL     OW41563   8.258   7.981   0.832  0.2500  0.2017 -0.7166
76613SOL    HW141564   8.218   8.067   0.849  0.5186  0.1226  0.3884
76613SOL    HW241565   8.190   7.918   0.857  0.2779  0.0857 -0.9346
76614SOL     OW41566   3.364  10.918  13.587 -0.4113  0.0442  0.5127
76614SOL    HW141567   3.405  10.953  13.508 -1.0507  0.7014  0.4632
76614SOL    HW241568   3.434  10.869  13.631 -0.1200 -0.5862 -0.5996
76615SOL     OW41569   9.364   4.555   6.656  0.5698 -0.0545 -0.0071
76615SOL    HW141570   9.296   4.602   6.609  0.4406  1.2132  1.3649
76615SOL    HW241571   9.406   4.621   6.712  1.6882 -1.1769  0.5572
76616SOL     OW41572   1.950   8.396   4.279 -0.6078 -0.4509  0.4741
76616SOL    HW141573   1.923   8.487   4.293 -1.8113 -0.8156  0.6508
76616SOL    HW241574   1.968   8.390   4.185  1.0624  0.3643  0.7230
76617SOL     OW41575   8.059   6.435   9.893  0.5629  0.1545  0.2523
76617SOL    HW141576   8.126   6.502   9.910  1.0936 -0.3846  0.2895
76617SOL    HW241577   8.007   6.434   9.974 -0.0752  1.2265 -0.1176
76618SOL     OW41578   2.097   6.517   3.215  0.0521  0.2514 -0.3198
76618SOL    HW141579   2.090   6.450   3.147 -0.7779  0.0456 -0.0406
76618SOL    HW241580   2.059   6.596   3.176  3.4650  1.4424 -1.6792
76619SOL     OW41581   3.155   7.381   3.779  0.4160 -0.0222 -0.0668
76619SOL    HW141582   3.096   7.349   3.847 -0.5122  0.8807 -0.4166
76619SOL    HW241583   3.137   7.325   3.703  1.3678 -0.9528  0.3708
76620SOL     OW41584  10.061   4.320   7.303  0.2046 -0.0464 -0.4873
76620SOL    HW141585  10.073   4.272   7.385  0.3722  0.4230 -0.2356
76620SOL    HW241586   9.987   4.378   7.319 -1.1705 -1.4785 -1.3761
76621SOL     OW41587  12.427   5.648   1.120  0.5788  0.1117  0.0069
76621SOL    HW141588  12.460   5.588   1.053  1.6050  0.2049  0.4089
76621SOL    HW241589  12.505   5.676   1.168 -0.2994 -2.3122  3.2172
76622SOL     OW41590   3.305   1.435  11.412  0.1736  1.0316 -0.3154
76622SOL    HW141591   3.349   1.353  11.387 -0.1015  1.6129 -3.0535
76622SOL    HW241592   3.370   1.503  11.395  0.0900  1.4917  1.0832
76623SOL     OW41593  13.439   1.152  13.079 -0.2124 -0.1653 -0.0078
76623SOL    HW141594  13.426   1.074  13.133 -2.4721 -0.9625 -1.5330
76623SOL    HW241595  13.350   1.181  13.058  0.5842  1.2653 -1.6389
76624SOL     OW41596  12.699  10.508   1.897  0.8320  0.2538 -0.5108
76624SOL    HW141597  12.629  10.455   1.859 -0.3069 -1.9082  3.8880
76624SOL    HW241598  12.780  10.469   1.863 -0.0554 -0.5117 -1.8136
76625SOL     OW41599   4.229  12.659   3.482 -0.2591 -0.2364 -0.2380
76625SOL    HW141600   4.217  12.586   3.543  2.7835 -0.7402 -0.1056
76625SOL    HW241601   4.168  12.726   3.513 -3.8896 -2.9439 -0.9719
76626SOL     OW41602  13.389   3.602   8.877  0.1461 -0.2759 -0.7685
76626SOL    HW141603  13.358   3.537   8.940  0.9876  0.9607  1.0024
76626SOL    HW241604  13.346   3.578   8.795 -2.0182 -1.1966  0.5374
76627SOL     OW41605   5.072  11.527   1.909 -0.3493 -0.7444  0.1149
76627SOL    HW141606   5.092  11.605   1.961 -0.1783 -0.4049 -0.4610
76627SOL    HW241607   5.007  11.480   1.962  0.3043 -0.7398  0.9541
76628SOL     OW41608   4.461  11.087   1.615 -0.2727 -0.0697 -0.4167
76628SOL    HW141609   4.370  11.058   1.620 -0.1828 -0.4614 -0.9498
76628SOL    HW241610   4.455  11.182   1.601 -0.5660  0.2803  1.6845
76629SOL     OW41611  12.629   2.811   6.549 -0.2999 -0.1252  0.5068
76629SOL    HW141612  12.687   2.886   6.563 -2.5746  1.7983  0.3880
76629SOL    HW241613  12.585   2.831   6.467 -1.5776 -1.1727  0.9141
76630SOL     OW41614   6.187  11.467   6.675  0.5516  0.0443 -0.2845
76630SOL    HW141615   6.247  11.481   6.603 -0.2334 -0.1094 -0.9878
76630SOL    HW241616   6.120  11.535   6.665 -1.2819 -1.8511 -1.5833
76631SOL     OW41617  13.328  12.601   0.605 -0.0571 -0.1802  0.2802
76631SOL    HW141618  13.237  12.590   0.578 -0.3017 -0.0842  1.0283
76631SOL    HW241619  13.359  12.512   0.622  0.1991 -0.2660 -0.6306
76632SOL     OW41620   0.364  10.102   6.672 -0.1630  0.2146 -0.7466
76632SOL    HW141621   0.445  10.135   6.633  0.0856  1.9730  1.0825
76632SOL    HW241622   0.324  10.050   6.603  3.2238 -2.0652 -1.2848
76633SOL     OW41623  12.020   4.516   7.904 -0.4601  0.0019 -0.0240
76633SOL    HW141624  12.026   4.592   7.962 -2.0988  0.5303 -0.4923
76633SOL    HW241625  11.997   4.443   7.962 -1.6115  0.4333  0.1047
76634SOL     OW41626   1.243   9.493   2.129  0.2172 -0.0309  0.5972
76634SOL    HW141627   1.169   9.474   2.186  0.7141 -0.7119  1.0450
76634SOL    HW241628   1.225   9.443   2.049 -0.4495  0.8734  0.1695
76635SOL     OW41629  12.108  11.178   2.980  0.1804 -0.3479  0.1446
76635SOL    HW141630  12.045  11.130   3.034  0.9658 -1.4727  0.0690
76635SOL    HW241631  12.189  11.128   2.986  0.2032 -0.6823 -2.3371
76636SOL     OW41632   5.062   8.722   8.189 -0.1783  0.1732 -0.5303
76636SOL    HW141633   5.035   8.732   8.098 -0.2572 -0.5285 -0.5864
76636SOL    HW241634   5.078   8.812   8.219 -0.0436  0.4035 -1.2657
76637SOL     OW41635   9.852   4.365   5.875  0.0163 -0.0910 -0.0381
76637SOL    HW141636   9.804   4.410   5.806  0.1194  0.4171  0.2109
76637SOL    HW241637   9.908   4.433   5.914 -0.5081 -0.2082  0.9636
76638SOL     OW41638  11.091  11.608   4.569  0.1799  0.3033 -0.3008
76638SOL    HW141639  11.076  11.611   4.664  0.4573  1.3321 -0.2869
76638SOL    HW241640  11.052  11.524   4.542  1.1897 -0.5945  0.9034
76639SOL     OW41641  10.776   3.576   6.823  0.1284  0.2762 -0.0234
76639SOL    HW141642  10.821   3.600   6.903 -0.2446  1.6611 -0.2133
76639SOL    HW241643  10.718   3.504   6.849  0.0975  0.6313  0.9208
76640SOL     OW41644  12.866  12.731   3.619  0.2387 -0.2881  0.0748
76640SOL    HW141645  12.814  12.770   3.548  0.9463  0.9322  0.1911
76640SOL    HW241646  12.829  12.770   3.699  0.1024 -0.8817  0.3053
76641SOL     OW41647  11.771   0.600  13.093 -0.5421  0.6527 -0.5035
76641SOL    HW141648  11.681   0.632  13.089 -0.2420  1.4456 -1.1828
76641SOL    HW241649  11.814   0.638  13.017  0.0714 -0.6904 -0.8639
76642SOL     OW41650   2.621   8.863   0.709  0.3994 -0.2361 -0.7126
76642SOL    HW141651   2.577   8.900   0.785  1.4515 -0.7424  0.1777
76642SOL    HW241652   2.606   8.927   0.639  3.5329  2.8779  1.1461
76643SOL     OW41653   2.298   7.368   0.539 -0.1712 -0.6167 -0.7171
76643SOL    HW141654   2.369   7.427   0.565  0.1532 -0.8954 -0.9578
76643SOL    HW241655   2.260   7.409   0.461 -2.7601  1.5421  1.4598
76644SOL     OW41656   6.467   9.043   4.806 -0.2735 -0.4629 -0.2491
76644SOL    HW141657   6.446   9.053   4.899  0.0551 -1.4705 -0.0601
76644SOL    HW241658   6.560   9.066   4.800 -0.3217 -0.2915 -0.3532
76645SOL     OW41659  11.485   1.034   5.391  0.7736 -0.1041  0.2564
76645SOL    HW141660  11.434   0.977   5.333  0.2789  0.2242  0.3676
76645SOL    HW241661  11.456   1.123   5.369  0.1945 -0.0002  1.3615
76646SOL     OW41662   6.505   2.660   0.292  0.1315 -0.1949 -0.0535
76646SOL    HW141663   6.547   2.723   0.234  0.0247 -0.5466 -0.5154
76646SOL    HW241664   6.463   2.714   0.359 -0.4411  0.2655 -0.7583
76647SOL     OW41665  12.722   5.120  13.088 -0.3899  0.4902  0.5552
76647SOL    HW141666  12.704   5.196  13.142 -2.4024 -0.2805  1.0616
76647SOL    HW241667  12.643   5.109  13.034  0.1579 -0.7890 -0.0326
76648SOL     OW41668   0.810  11.829   9.629  0.1679 -0.2150  0.4029
76648SOL    HW141669   0.746  11.776   9.677 -0.8979 -0.7448 -1.4996
76648SOL    HW241670   0.874  11.856   9.695 -0.6831 -1.7216  1.9086
76649SOL     OW41671   8.221  10.749  12.324 -0.3328  0.1359  0.3143
76649SOL    HW141672   8.253  10.732  12.236 -0.5967  0.6142  0.1211
76649SOL    HW241673   8.127  10.733  12.320  0.0551 -3.0119  1.3223
76650SOL     OW41674   4.353   4.135  11.965 -0.5011  0.6629  0.4821
76650SOL    HW141675   4.258   4.135  11.952 -0.5737  2.6214  0.7034
76650SOL    HW241676   4.366   4.180  12.049  0.6143 -0.1180  0.7666
76651SOL     OW41677   9.064   0.648  10.516  0.0880  0.1137  0.1276
76651SOL    HW141678   9.019   0.653  10.432  1.1678  1.0968 -0.4209
76651SOL    HW241679   9.012   0.703  10.574  1.6197  2.9818 -1.0349
76652SOL     OW41680   4.915   2.208   5.544 -0.2491  0.1777  0.9080
76652SOL    HW141681   4.848   2.275   5.556  0.9740  1.4091  1.2631
76652SOL    HW241682   4.979   2.249   5.485  0.1553 -0.9745  0.5208
76653SOL     OW41683   5.192   3.445   0.152 -0.1173 -0.5614  0.4058
76653SOL    HW141684   5.119   3.390   0.182 -0.4775 -0.9243 -1.0828
76653SOL    HW241685   5.251   3.449   0.228 -1.8397  0.0660  1.7963
76654SOL     OW41686   0.071  10.126   8.760  0.1993  0.4954  0.5727
76654SOL    HW141687   0.105  10.045   8.720 -0.2918  0.4314  0.2782
76654SOL    HW241688   0.096  10.119   8.852 -1.1268 -0.7146  0.8809
76655SOL     OW41689   5.581   3.197  10.922  0.3500 -0.4175  0.3484
76655SOL    HW141690   5.569   3.166  10.832 -0.7889  0.0695  0.3064
76655SOL    HW241691   5.661   3.250  10.919 -0.6858  1.1945 -0.8611
76656SOL     OW41692   3.374   8.975  10.102  0.0099 -0.2612 -0.0148
76656SOL    HW141693   3.300   8.923  10.073 -0.6195  0.0910  0.9164
76656SOL    HW241694   3.407   9.016  10.022 -1.7836  0.8259 -0.2636
76657SOL     OW41695   5.723  11.109   5.507 -0.2314  0.0830  0.5059
76657SOL    HW141696   5.783  11.084   5.437 -1.1600  1.0519 -0.6752
76657SOL    HW241697   5.710  11.203   5.495 -0.6464  0.2140  1.8100
76658SOL     OW41698   4.076   3.855  12.049 -0.3570 -0.8001 -0.3245
76658SOL    HW141699   4.139   3.827  11.983  1.2148  1.6706 -0.0143
76658SOL    HW241700   3.991   3.831  12.013  0.5238 -0.7262 -2.6138
76659SOL     OW41701   2.414   0.807   9.882  0.1629  0.4392  0.5042
76659SOL    HW141702   2.392   0.786   9.973  0.8703 -1.0436  0.3708
76659SOL    HW241703   2.330   0.810   9.837 -0.0546 -2.4020  0.5353
76660SOL     OW41704   4.847  13.316   2.676 -0.2422  0.1065  0.0792
76660SOL    HW141705   4.890  13.232   2.692 -0.1370  0.1767  0.1770
76660SOL    HW241706   4.890  13.351   2.598 -0.5554 -0.1084 -0.1882
76661SOL     OW41707   6.830   4.711   0.937 -0.0883 -0.2265 -0.0529
76661SOL    HW141708   6.917   4.673   0.923  0.2191 -0.0258  1.2518
76661SOL    HW241709   6.800   4.733   0.849 -0.5919 -4.1118 -1.0782
76662SOL     OW41710   1.991   2.251  12.232 -0.1727  0.1534 -0.0561
76662SOL    HW141711   2.040   2.325  12.197  0.0788  0.7064  1.4004
76662SOL    HW241712   1.900   2.280  12.233 -0.7212 -1.0584 -3.2456
76663SOL     OW41713   7.838   7.311   4.464  0.5036  0.2920 -0.2140
76663SOL    HW141714   7.930   7.337   4.451  0.7870 -0.5799 -0.0310
76663SOL    HW241715   7.829   7.304   4.559  0.5634 -0.6923 -0.2747
76664SOL     OW41716   8.907  10.361   2.577 -0.0187 -0.8604  0.1409
76664SOL    HW141717   8.818  10.386   2.554  0.0599 -0.3951  0.3249
76664SOL    HW241718   8.898  10.278   2.622 -0.4894 -0.2294  1.2416
76665SOL     OW41719   0.298   8.784   4.703 -0.2245  0.6914 -0.2530
76665SOL    HW141720   0.303   8.873   4.739  0.3815  0.2713  0.7610
76665SOL    HW241721   0.384   8.746   4.722 -0.4024 -0.0451 -0.8692
76666SOL     OW41722  11.103   9.642  10.374  0.1407  0.2596  0.0277
76666SOL    HW141723  11.192   9.616  10.349  1.9480  3.1418  2.6836
76666SOL    HW241724  11.062   9.671  10.292  1.8759 -0.4499 -1.1479
76667SOL     OW41725   2.852   2.944   4.397  0.7329  0.0438 -0.1710
76667SOL    HW141726   2.894   3.028   4.411  2.5523 -0.9534  0.6127
76667SOL    HW241727   2.914   2.894   4.345  0.5103 -1.4401  0.9119
76668SOL     OW41728   5.602   1.063   5.827  0.1435  0.4319  0.0049
76668SOL    HW141729   5.607   1.116   5.747  2.0131  0.7528  0.3014
76668SOL    HW241730   5.588   1.127   5.897  0.1555  0.3098  0.1196
76669SOL     OW41731   8.751   0.098   2.768  1.3289  0.2826  0.5102
76669SOL    HW141732   8.787   0.186   2.759  0.4993  0.6034  0.1916
76669SOL    HW241733   8.699   0.085   2.688  0.2760  0.0756  1.2048
76670SOL     OW41734  10.402   0.230   3.928 -0.2792 -0.0788 -0.2703
76670SOL    HW141735  10.445   0.150   3.955 -0.0234  0.1972  0.1534
76670SOL    HW241736  10.438   0.298   3.986  2.0174  0.9702 -2.7404
76671SOL     OW41737   8.232   9.552   9.218  1.0790  0.4741 -0.1472
76671SOL    HW141738   8.142   9.559   9.187  1.6659 -0.1267 -2.1004
76671SOL    HW241739   8.263   9.642   9.226  0.3308  0.6810  0.5021
76672SOL     OW41740   1.155  10.723  12.387  0.4372  0.6191 -0.3454
76672SOL    HW141741   1.180  10.667  12.461 -1.5657 -0.1773 -0.2139
76672SOL    HW241742   1.200  10.683  12.311  2.6387  1.5429  0.3856
76673SOL     OW41743   2.860   8.745   3.610 -0.3804 -0.0883  0.3932
76673SOL    HW141744   2.895   8.824   3.650  0.0141  0.5186 -1.1089
76673SOL    HW241745   2.936   8.687   3.601 -0.4434 -0.1733  0.4006
76674SOL     OW41746   8.520   1.391   7.726  0.1427  0.3609 -0.4758
76674SOL    HW141747   8.558   1.316   7.771 -0.4923 -0.0293 -0.5814
76674SOL    HW241748   8.529   1.463   7.789  2.2041  0.6065 -0.9771
76675SOL     OW41749  10.118   1.996   8.416  0.5205 -0.1587  0.3829
76675SOL    HW141750  10.145   2.064   8.478 -0.5202 -0.7828  1.5668
76675SOL    HW241751  10.144   1.914   8.459 -1.4065 -0.6742  0.6428
76676SOL     OW41752   6.647  13.146   7.141 -0.2979 -0.0077  0.2397
76676SOL    HW141753   6.653  13.216   7.207  0.9777  0.6461 -0.5289
76676SOL    HW241754   6.557  13.150   7.110 -0.9732 -0.3998  1.9890
76677SOL     OW41755   8.758   1.392   4.361 -0.2793 -0.0213 -0.1824
76677SOL    HW141756   8.786   1.347   4.281  0.8479 -0.8118  0.6313
76677SOL    HW241757   8.665   1.369   4.370  0.0115 -1.3544 -0.3503
76678SOL     OW41758   3.734   7.438   5.422 -0.2042 -0.5587 -0.4879
76678SOL    HW141759   3.805   7.498   5.445 -0.1689 -1.2331  1.2681
76678SOL    HW241760   3.742   7.366   5.484 -1.7385 -1.1895 -0.9837
76679SOL     OW41761   0.381  12.816   8.192 -0.2522 -0.0613  0.0132
76679SOL    HW141762   0.365  12.723   8.175 -0.5854  0.0760 -0.4398
76679SOL    HW241763   0.345  12.831   8.280 -2.1482  0.1012 -0.7312
76680SOL     OW41764   2.732   0.302   2.482 -0.8783  0.2717 -0.1452
76680SOL    HW141765   2.657   0.245   2.469 -1.4961  1.0084  0.1192
76680SOL    HW241766   2.804   0.258   2.436 -1.7223  0.1282 -1.3631
76681SOL     OW41767   3.798   1.979  13.715 -0.3215 -0.4536  0.2829
76681SOL    HW141768   3.732   2.023  13.661 -0.6075 -1.2373 -0.0201
76681SOL    HW241769   3.875   1.973  13.658 -0.0318  0.3271  0.5849
76682SOL     OW41770   5.964   0.058   2.134 -0.3783  0.0628 -0.9270
76682SOL    HW141771   5.993   0.091   2.219  0.7512  0.5690 -1.4874
76682SOL    HW241772   5.968  -0.038   2.142 -2.1442  0.0316  0.1881
76683SOL     OW41773   1.835  12.183   1.697 -0.0697  0.3018  0.2684
76683SOL    HW141774   1.749  12.151   1.725 -0.6754  1.7966  0.2540
76683SOL    HW241775   1.889  12.178   1.776 -0.5272  0.4865  0.5975
76684SOL     OW41776   3.671   3.383  10.788  0.3304 -0.0960  0.5403
76684SOL    HW141777   3.642   3.293  10.800 -0.6296  0.0631 -0.3796
76684SOL    HW241778   3.757   3.387  10.828 -0.3214 -0.9839  2.0896
76685SOL     OW41779   1.773   8.791  12.846 -0.3004 -0.9241 -0.3306
76685SOL    HW141780   1.807   8.724  12.906  0.2907 -0.0186  0.3846
76685SOL    HW241781   1.703   8.748  12.798  1.2268 -2.5989 -1.1673
76686SOL     OW41782   3.907   8.194   1.836  0.6470 -0.4237  0.1678
76686SOL    HW141783   3.838   8.243   1.880  1.9550  1.2855  0.4268
76686SOL    HW241784   3.863   8.148   1.765 -0.6504  1.3809 -0.2754
76687SOL     OW41785   5.959  11.006   6.891 -0.0535  0.1654 -0.1474
76687SOL    HW141786   5.928  10.920   6.862 -1.6215  0.7950 -0.3803
76687SOL    HW241787   5.933  11.066   6.822 -1.2848  1.2264  1.1762
76688SOL     OW41788   9.280   6.613   6.438 -0.5675  0.5897 -0.4214
76688SOL    HW141789   9.231   6.535   6.464  0.2626  0.6018  1.2777
76688SOL    HW241790   9.288   6.664   6.518  0.9255  1.2977 -0.9927
76689SOL     OW41791  12.561   3.602  12.822 -0.1487  0.0270 -0.3711
76689SOL    HW141792  12.514   3.649  12.890 -0.5465  1.0257 -1.3032
76689SOL    HW241793  12.635   3.560  12.867 -1.5585 -1.0771  1.0108
76690SOL     OW41794   1.480   3.367   8.881 -0.3294 -0.1456 -0.1016
76690SOL    HW141795   1.391   3.386   8.909 -0.2960 -0.7989  0.4869
76690SOL    HW241796   1.489   3.409   8.796 -1.0197  0.3854  0.0812
76691SOL     OW41797   2.370   1.947   7.942 -0.0978 -0.0358  0.3030
76691SOL    HW141798   2.378   1.910   8.030  0.6418 -0.6800 -0.0199
76691SOL    HW241799   2.318   1.882   7.894 -1.9306  1.0775  0.6622
76692SOL     OW41800   4.194   9.637   6.184  0.4596  0.5878 -0.2362
76692SOL    HW141801   4.139   9.704   6.226 -1.0582 -1.2686  0.9029
76692SOL    HW241802   4.170   9.642   6.091 -0.0260  1.2844 -0.0858
76693SOL     OW41803   5.044   1.505   9.959  0.2409 -0.1393  0.0787
76693SOL    HW141804   4.953   1.479   9.941  0.2912  0.6159 -1.4673
76693SOL    HW241805   5.042   1.601   9.955  0.9272 -0.0705  1.0544
76694SOL     OW41806  12.361  10.747   9.319  0.1751  0.1610 -0.9011
76694SOL    HW141807  12.295  10.782   9.259  0.6886 -0.3899 -1.8071
76694SOL    HW241808  12.427  10.817   9.326  0.9441 -0.3856 -2.3086
76695SOL     OW41809   0.973   7.914   3.228  0.2962  0.0920  0.1266
76695SOL    HW141810   0.887   7.875   3.244  0.9429 -0.6605  2.0605
76695SOL    HW241811   0.979   7.921   3.133 -0.9044 -2.1444 -0.1672
76696SOL     OW41812   4.535  10.109   1.659  0.0412  0.3529  0.5741
76696SOL    HW141813   4.502  10.020   1.673  2.1409 -0.6251 -0.3098
76696SOL    HW241814   4.464  10.153   1.611 -1.7490 -0.2416  2.5007
76697SOL     OW41815   6.734   3.363   8.166  0.1335 -0.3976  0.0864
76697SOL    HW141816   6.819   3.380   8.206 -0.1249 -0.0442  0.4902
76697SOL    HW241817   6.670   3.388   8.233 -0.3007  0.0352 -0.4800
76698SOL     OW41818   4.178   9.160  11.870 -0.0205 -0.1328 -0.0519
76698SOL    HW141819   4.111   9.170  11.937 -1.6014  1.2546 -1.7419
76698SOL    HW241820   4.146   9.091  11.813  0.7546 -0.5242 -0.0245
76699SOL     OW41821   8.459   3.384   7.655 -0.8178  0.8945  0.2715
76699SOL    HW141822   8.425   3.302   7.691  0.5753  0.5852  0.9449
76699SOL    HW241823   8.537   3.402   7.706  0.7687  0.9091 -1.9936
76700SOL     OW41824   3.438  12.617   7.981 -0.1639 -0.6312  0.5416
76700SOL    HW141825   3.502  12.687   7.970  0.0710 -0.8127  0.7440
76700SOL    HW241826   3.393  12.613   7.897 -1.0786  0.6314  0.9431
76701SOL     OW41827   5.360   0.215   8.443 -0.0619 -0.4439  0.2301
76701SOL    HW141828   5.439   0.180   8.485  0.3066 -0.5946 -0.5759
76701SOL    HW241829   5.386   0.229   8.352  0.1183  2.7350  0.6301
76702SOL     OW41830   8.651   4.166   0.530 -0.3898  0.3700 -0.1314
76702SOL    HW141831   8.615   4.190   0.616 -1.3717 -0.8589 -0.1768
76702SOL    HW241832   8.744   4.153   0.546 -0.1657  2.2249  0.2936
76703SOL     OW41833  11.275  12.292   8.225 -0.4390  0.3686 -0.3239
76703SOL    HW141834  11.329  12.251   8.292  0.5167 -0.9759 -1.8343
76703SOL    HW241835  11.321  12.275   8.143 -2.8414 -0.3579 -1.6298
76704SOL     OW41836   5.963   2.709   3.281  0.0572  0.0855  0.3756
76704SOL    HW141837   5.868   2.711   3.280  0.0126 -1.1091 -0.7832
76704SOL    HW241838   5.984   2.617   3.297  0.9430 -0.4254 -2.9303
76705SOL     OW41839  10.055   7.215   4.778  0.1327 -0.0793  0.0925
76705SOL    HW141840   9.975   7.165   4.797  0.1856 -0.3412 -0.3694
76705SOL    HW241841  10.099   7.165   4.710  2.4930 -1.8411  2.7128
76706SOL     OW41842   4.311   6.573   7.064  0.1268 -0.3327 -0.3476
76706SOL    HW141843   4.359   6.653   7.041 -0.3983 -0.2294 -1.1554
76706SOL    HW241844   4.269   6.594   7.148 -1.1709  0.8064 -1.2217
76707SOL     OW41845   8.000   5.004  10.210  0.1266 -0.2176  0.4406
76707SOL    HW141846   8.037   5.092  10.211  0.4174 -0.0782 -3.9610
76707SOL    HW241847   7.916   5.013  10.166  0.7203 -2.2378 -1.2628
76708SOL     OW41848  12.317  11.064   2.404  0.3842  0.0959  0.8360
76708SOL    HW141849  12.255  11.136   2.396  0.2958 -0.0195  0.4853
76708SOL    HW241850  12.282  11.011   2.476 -1.2981 -1.3014 -0.8965
76709SOL     OW41851   3.193   0.265   0.101 -0.2638  0.0031 -0.2083
76709SOL    HW141852   3.134   0.200   0.140  2.3270 -2.7878 -0.5580
76709SOL    HW241853   3.156   0.280   0.014 -1.1702 -0.7025  0.0304
76710SOL     OW41854   1.322  11.226   0.356 -0.0910  0.4264 -0.2232
76710SOL    HW141855   1.331  11.304   0.302  0.2420  1.4495  1.2288
76710SOL    HW241856   1.405  11.180   0.347  0.8095  1.7162  1.0428
76711SOL     OW41857   5.057  10.387   4.594  0.2283  0.1602 -0.3936
76711SOL    HW141858   5.034  10.475   4.564  0.7348  0.7134  0.8090
76711SOL    HW241859   5.079  10.398   4.686 -0.5314 -1.3737 -0.0014
76712SOL     OW41860   5.037   1.776  11.048  0.3418 -0.7370  0.0501
76712SOL    HW141861   5.000   1.836  11.113 -0.6313 -0.6703 -0.5457
76712SOL    HW241862   5.107   1.825  11.007  0.6151 -0.5912  0.6872
76713SOL     OW41863   5.777   3.135   8.997  0.3227 -0.1379 -0.2183
76713SOL    HW141864   5.871   3.147   8.985  0.0714  1.5209 -0.6694
76713SOL    HW241865   5.760   3.164   9.087  0.0848  0.6122 -0.4991
76714SOL     OW41866   0.260  12.833   0.375  0.0373  0.5906  0.2254
76714SOL    HW141867   0.332  12.892   0.397 -0.5344  0.8651  1.4520
76714SOL    HW241868   0.286  12.748   0.410  0.5755  0.2341 -0.9803
76715SOL     OW41869   1.521   7.475  13.297  0.3644  0.1233  0.2959
76715SOL    HW141870   1.455   7.543  13.281  0.1672  0.0988  0.9718
76715SOL    HW241871   1.599   7.524  13.324  0.3776  0.1079  0.2859
76716SOL     OW41872   0.797  13.256   6.759  0.5260 -0.2997 -0.4404
76716SOL    HW141873   0.844  13.194   6.816 -0.0460 -0.7666 -0.4713
76716SOL    HW241874   0.801  13.217   6.672 -0.3949 -0.6234 -0.3451
76717SOL     OW41875   2.943   8.817   7.090 -0.3179 -0.0059  0.4101
76717SOL    HW141876   2.854   8.783   7.076  0.1068 -1.0799  0.2252
76717SOL    HW241877   2.949   8.829   7.185 -0.8481  0.6343  0.3730
76718SOL     OW41878   5.877   2.433  10.255  0.0174 -0.1130  0.7829
76718SOL    HW141879   5.815   2.368  10.288  0.1110 -1.0449 -0.7493
76718SOL    HW241880   5.821   2.503  10.219 -0.2339 -1.1337 -0.9577
76719SOL     OW41881   1.633   8.132   9.517 -0.6201 -0.2151 -0.0743
76719SOL    HW141882   1.627   8.130   9.612 -0.5288 -0.0338 -0.0653
76719SOL    HW241883   1.624   8.225   9.494 -1.9270 -0.3763 -0.3216
76720SOL     OW41884   3.572   1.224   6.669 -0.5897  0.4466 -0.1717
76720SOL    HW141885   3.624   1.241   6.591 -2.0841  1.1234 -1.0489
76720SOL    HW241886   3.482   1.241   6.643 -1.2096 -0.0681  1.4895
76721SOL     OW41887   4.470   8.043  11.615  0.1303  0.1589  0.1369
76721SOL    HW141888   4.473   7.987  11.537  1.9787  1.3013 -0.7039
76721SOL    HW241889   4.485   7.984  11.688  1.2008 -0.5921 -0.6588
76722SOL     OW41890   0.404  10.570   4.255 -0.6419  0.1769 -0.0423
76722SOL    HW141891   0.489  10.607   4.280 -0.3053  0.4750 -1.5698
76722SOL    HW241892   0.359  10.640   4.209 -1.9716  0.1951  1.1842
76723SOL     OW41893   1.642  11.187  10.169 -0.4431  0.1146 -0.0222
76723SOL    HW141894   1.720  11.241  10.164 -0.6976  0.4313 -0.9125
76723SOL    HW241895   1.672  11.097  10.153  0.0807 -0.1494  2.1398
76724SOL     OW41896   5.824  13.221   0.782 -0.1769  0.0271  0.4115
76724SOL    HW141897   5.849  13.302   0.828  1.4580  0.9255 -1.8649
76724SOL    HW241898   5.900  13.200   0.727 -1.2320 -2.1163 -0.3477
76725SOL     OW41899  11.829   5.793   2.309  0.4202 -0.5300  0.7006
76725SOL    HW141900  11.829   5.814   2.216 -0.8468 -1.6482  0.4044
76725SOL    HW241901  11.742   5.754   2.324 -1.1969  3.4346  3.2437
76726SOL     OW41902  11.610   1.715  12.213  0.2635 -0.6039 -0.1714
76726SOL    HW141903  11.647   1.722  12.125  0.0923 -0.6344 -0.2458
76726SOL    HW241904  11.555   1.792  12.223  0.4836 -0.4695  0.0049
76727SOL     OW41905   9.711   1.463   1.903  0.1383 -0.3762 -0.4547
76727SOL    HW141906   9.776   1.464   1.833  0.2575 -0.4510 -0.3458
76727SOL    HW241907   9.643   1.522   1.872 -0.1264 -0.9165 -0.9262
76728SOL     OW41908   9.915  12.930   6.069  0.2737  0.1839 -0.3079
76728SOL    HW141909   9.936  12.842   6.101 -1.6715 -0.3361 -0.3124
76728SOL    HW241910   9.849  12.962   6.131  0.4237  1.3551 -0.7312
76729SOL     OW41911  12.253   4.503   4.293 -0.7043 -0.4431 -0.2764
76729SOL    HW141912  12.305   4.545   4.362  1.1563  0.0924 -1.8945
76729SOL    HW241913  12.214   4.575   4.245 -2.3811 -0.8304  0.4375
76730SOL     OW41914   4.787   2.486   7.849  0.4568  0.2243  0.5498
76730SOL    HW141915   4.832   2.402   7.840 -0.8684 -1.0084  3.9119
76730SOL    HW241916   4.850   2.550   7.816  1.4296 -1.9915 -2.3587
76731SOL     OW41917   7.980   0.803  12.328 -0.8046 -0.3293 -0.0263
76731SOL    HW141918   7.957   0.750  12.405 -2.0383  0.3412  0.0988
76731SOL    HW241919   7.980   0.893  12.361 -0.4635 -0.1125 -0.6149
76732SOL     OW41920   2.554   5.624   1.257 -0.3786  0.0374 -0.1203
76732SOL    HW141921   2.547   5.694   1.193  1.3929 -0.5601 -1.0518
76732SOL    HW241922   2.640   5.584   1.239  0.3119  0.0225  2.8083
76733SOL     OW41923   8.090   9.356  10.722  0.3723 -0.3594 -0.4269
76733SOL    HW141924   8.127   9.377  10.636 -0.4047  1.7168 -0.3189
76733SOL    HW241925   8.159   9.380  10.784  0.1941  0.1243 -0.4042
76734SOL     OW41926  10.874   1.179  11.330  0.4204 -0.4267  0.0277
76734SOL    HW141927  10.829   1.257  11.297 -1.9426 -2.1971 -1.1955
76734SOL    HW241928  10.857   1.180  11.424 -0.9561 -0.2574 -0.2050
76735SOL     OW41929  13.276  11.791   7.887  0.0011 -0.2794  0.7091
76735SOL    HW141930  13.324  11.804   7.969  0.3711  2.3689  0.1675
76735SOL    HW241931  13.336  11.824   7.819 -1.5463  0.6792 -0.2551
76736SOL     OW41932   9.616   5.163   3.593  0.1927 -0.0185 -0.2144
76736SOL    HW141933   9.582   5.184   3.680  0.8947 -0.2960  0.1345
76736SOL    HW241934   9.693   5.109   3.610 -0.2215 -0.8824 -1.0446
76737SOL     OW41935  13.109   7.035   7.999 -0.0912 -0.2969  0.3122
76737SOL    HW141936  13.036   6.981   8.028 -1.3176  0.5471 -1.0598
76737SOL    HW241937  13.090   7.122   8.034  0.9461 -0.3515  1.0370
76738SOL     OW41938   5.069   2.195  11.537  0.2443  0.1006 -0.0864
76738SOL    HW141939   5.073   2.227  11.627 -1.1989 -1.1273  0.4607
76738SOL    HW241940   5.109   2.108  11.541  1.5454  0.6237 -0.9722
76739SOL     OW41941   9.034   3.114  13.180 -0.4766 -0.2220  0.7585
76739SOL    HW141942   9.060   3.056  13.109 -3.3269  0.7970 -1.3111
76739SOL    HW241943   8.956   3.159  13.147  1.0429  4.2415  2.4969
76740SOL     OW41944  11.695   6.826   3.289  0.2159 -0.5172  0.2305
76740SOL    HW141945  11.727   6.916   3.286  0.1672 -0.4086  1.8378
76740SOL    HW241946  11.606   6.831   3.252  0.4847 -0.0528 -0.3673
76741SOL     OW41947   2.016   5.414   0.455  0.0672 -0.3214  0.0561
76741SOL    HW141948   1.922   5.421   0.440  0.1183 -0.3975 -0.3136
76741SOL    HW241949   2.051   5.386   0.370 -0.0407 -4.2976  1.1239
76742SOL     OW41950   5.405   2.130   4.458  0.2133  0.2001  0.1157
76742SOL    HW141951   5.418   2.143   4.364  0.0092  1.7965  0.2703
76742SOL    HW241952   5.320   2.171   4.476  0.5613  0.5184  1.1018
76743SOL     OW41953   9.023   6.922  10.268  0.2241 -0.1330 -0.0657
76743SOL    HW141954   9.102   6.926  10.322  1.0543 -0.1779 -1.2254
76743SOL    HW241955   9.039   6.849  10.208 -0.1749  0.5969 -1.0844
76744SOL     OW41956   0.316   1.769   5.005  0.0947  0.6203 -0.7324
76744SOL    HW141957   0.335   1.678   4.984 -0.2944  0.1519  0.8091
76744SOL    HW241958   0.253   1.798   4.939 -1.3848 -0.8762 -0.0228
76745SOL     OW41959   7.459  13.650   5.113 -0.4988  0.0003  0.2922
76745SOL    HW141960   7.528  13.700   5.070 -0.3877 -0.3740  0.0232
76745SOL    HW241961   7.444  13.695   5.196 -0.3102  0.3973  0.1120
76746SOL     OW41962   1.510   2.931   8.398 -0.4641  0.3163  0.9371
76746SOL    HW141963   1.437   2.945   8.459 -0.0978  1.1529  1.1945
76746SOL    HW241964   1.579   2.990   8.429  0.5197 -0.8270  1.0160
76747SOL     OW41965   2.216   7.924   4.026  0.6175 -0.0055  0.3415
76747SOL    HW141966   2.155   7.901   3.956  0.9212  0.1644  0.0149
76747SOL    HW241967   2.211   7.851   4.088  1.5757 -0.9828 -0.6755
76748SOL     OW41968   3.431  10.421   6.888 -0.1747 -0.7062 -0.3440
76748SOL    HW141969   3.481  10.499   6.914  0.3414 -1.6090  1.5933
76748SOL    HW241970   3.496  10.352   6.880 -0.8369 -1.3732 -0.1015
76749SOL     OW41971  13.214   2.532   6.387  0.0990 -0.2611 -0.1205
76749SOL    HW141972  13.123   2.531   6.418 -0.6037 -1.5090 -2.0148
76749SOL    HW241973  13.207   2.533   6.291  1.9794 -3.4098 -0.4393
76750SOL     OW41974   3.213  13.011   2.127 -0.4152 -0.2761 -0.1013
76750SOL    HW141975   3.121  12.987   2.116  0.0464 -2.3730  0.1907
76750SOL    HW241976   3.236  12.981   2.215  1.0051 -1.4877 -0.8386
76751SOL     OW41977   2.404   5.288   5.190  0.0592 -0.3759 -0.0491
76751SOL    HW141978   2.338   5.334   5.241  0.1240 -1.7301  1.3248
76751SOL    HW241979   2.460   5.358   5.155 -0.2612  0.6416  1.3729
76752SOL     OW41980   6.040   1.784  12.885  0.1018 -0.6266  0.4485
76752SOL    HW141981   6.129   1.763  12.914  0.1503  0.7959  1.4361
76752SOL    HW241982   6.046   1.872  12.849 -1.1360  0.0780  1.8274
76753SOL     OW41983   8.544   9.800  13.605  0.2330  0.1955 -0.3046
76753SOL    HW141984   8.596   9.854  13.665 -0.8465 -1.4858  2.3302
76753SOL    HW241985   8.462   9.847  13.596 -0.0178 -0.0842  0.4722
76754SOL     OW41986   5.598   8.098  10.464 -0.1755 -0.1988 -0.0725
76754SOL    HW141987   5.614   8.160  10.535 -0.9213 -1.1226  0.9318
76754SOL    HW241988   5.515   8.127  10.425  0.1413  0.1978 -0.4643
76755SOL     OW41989  12.324   9.215  12.335  0.5209 -0.6348  0.3594
76755SOL    HW141990  12.356   9.183  12.251 -0.9370  1.1653 -0.9528
76755SOL    HW241991  12.398   9.262  12.373  1.2742 -1.6835  0.2435
76756SOL     OW41992  12.048  11.634   6.198 -0.0865  0.7156  0.2145
76756SOL    HW141993  12.039  11.639   6.293  0.5410  3.0468  0.1997
76756SOL    HW241994  12.128  11.683   6.178 -1.3124  2.1202 -1.6501
76757SOL     OW41995   8.666  11.119   6.046 -0.3749  0.6518 -0.1002
76757SOL    HW141996   8.577  11.126   6.012 -0.0360  3.8679 -0.6625
76757SOL    HW241997   8.675  11.194   6.104  1.2178 -1.0458  2.0303
76758SOL     OW41998   9.585   6.288   9.318 -0.0206  0.3015  0.1885
76758SOL    HW141999   9.514   6.352   9.316  1.3490  1.9173  0.6545
76758SOL    HW242000   9.647   6.320   9.252  0.4300 -0.8960  0.0124
76759SOL     OW42001  11.743   4.880  11.839  0.2181  0.7962 -0.0342
76759SOL    HW142002  11.721   4.922  11.922  0.2879  0.1164  0.3411
76759SOL    HW242003  11.770   4.951  11.782  2.9165  1.0578  1.3921
76760SOL     OW42004   5.200  13.252   2.169 -0.2168 -0.2396 -0.1444
76760SOL    HW142005   5.178  13.290   2.084 -0.8603 -1.5678 -0.5982
76760SOL    HW242006   5.152  13.169   2.172  1.6006 -1.3349  0.5426
76761SOL     OW42007   9.029   5.834  11.359  0.3002 -0.3636  0.2421
76761SOL    HW142008   8.961   5.771  11.381  1.9366 -1.7479  1.6312
76761SOL    HW242009   8.999   5.916  11.400 -0.7534 -0.8043  0.3831
76762SOL     OW42010   8.339   0.337   5.814 -0.3899 -1.1118  0.0576
76762SOL    HW142011   8.402   0.336   5.886 -0.0909 -1.6710 -0.2082
76762SOL    HW242012   8.387   0.374   5.740 -0.5282 -1.0560 -0.0040
76763SOL     OW42013   9.548   9.245   8.115  0.4014  0.4481 -0.6654
76763SOL    HW142014   9.503   9.290   8.187  0.9705 -0.8157  0.5362
76763SOL    HW242015   9.641   9.255   8.136  0.5586 -0.2584 -1.0109
76764SOL     OW42016  13.017   8.339  11.782  0.4475 -0.5885  0.5144
76764SOL    HW142017  13.102   8.337  11.738  0.5051 -0.6559  0.6263
76764SOL    HW242018  13.037   8.317  11.873  0.3196 -0.5289  0.5566
76765SOL     OW42019  11.845   0.053  10.488  0.2261  0.4349  0.5263
76765SOL    HW142020  11.750   0.064  10.484  0.2087  0.1806  0.2184
76765SOL    HW242021  11.859  -0.041  10.496  0.3896  0.5977  2.7213
76766SOL     OW42022   1.183   3.616  12.259 -0.1380  0.5214 -0.1538
76766SOL    HW142023   1.244   3.611  12.333 -1.8322  2.6599  1.4821
76766SOL    HW242024   1.113   3.556  12.281  0.6897 -1.0048 -1.4597
76767SOL     OW42025   0.184  12.510   7.486 -0.3342 -0.2446  0.2497
76767SOL    HW142026   0.200  12.600   7.513 -0.8719  0.1821 -0.7896
76767SOL    HW242027   0.090  12.498   7.499 -0.4265 -0.3456 -0.4688
76768SOL     OW42028  11.186   5.725   5.102  0.4019  0.4201 -0.5242
76768SOL    HW142029  11.206   5.695   5.014  1.2884  1.2165 -0.6072
76768SOL    HW242030  11.174   5.820   5.094  0.8959  0.5640  0.2723
76769SOL     OW42031  13.713   6.703   9.865  0.3532 -0.0749 -0.4883
76769SOL    HW142032  13.736   6.656   9.785  2.4208  0.0025  0.0153
76769SOL    HW242033  13.789   6.757   9.884  0.0872 -0.4007  1.7675
76770SOL     OW42034   0.690   6.531   7.773  0.8643 -0.6239  0.0537
76770SOL    HW142035   0.734   6.571   7.848  1.8521  0.6317 -1.1265
76770SOL    HW242036   0.609   6.581   7.763  0.8543 -0.6238  0.1379
76771SOL     OW42037  10.521   5.708   6.472  0.2216 -0.3959 -0.0976
76771SOL    HW142038  10.497   5.631   6.419  1.1773  1.0365 -2.8360
76771SOL    HW242039  10.612   5.726   6.448  1.5195 -0.8445  3.7603
76772SOL     OW42040  12.346   3.226   6.401 -0.3702 -0.2335 -0.4839
76772SOL    HW142041  12.304   3.299   6.356 -1.4836 -0.0902  0.7204
76772SOL    HW242042  12.291   3.150   6.381 -0.1429 -0.4148 -0.4240
76773SOL     OW42043   2.770   4.462   9.786 -0.4148 -0.3442 -0.1781
76773SOL    HW142044   2.795   4.550   9.814 -0.1783 -0.9200  1.5646
76773SOL    HW242045   2.846   4.429   9.740 -0.2737  0.1276 -0.2908
76774SOL     OW42046   6.099  10.886   3.340  0.1598  0.2069  0.0589
76774SOL    HW142047   6.067  10.912   3.427  2.1285 -0.3054  0.9913
76774SOL    HW242048   6.056  10.802   3.322 -0.7712  0.6368  0.2137
76775SOL     OW42049   0.539   7.049   8.403 -0.2254 -0.4293  0.0074
76775SOL    HW142050   0.542   7.092   8.317 -1.5880  0.2646  0.2801
76775SOL    HW242051   0.534   6.956   8.383 -2.3180 -0.2169 -0.7731
76776SOL     OW42052   9.628   8.510   6.816 -0.1668  1.1134 -0.2402
76776SOL    HW142053   9.669   8.438   6.865 -1.2163  0.7083  0.0695
76776SOL    HW242054   9.677   8.588   6.842  0.1475  0.7006  0.4386
76777SOL     OW42055  10.357   3.736   8.719  0.1702 -0.0967 -0.0732
76777SOL    HW142056  10.292   3.678   8.759  0.5908 -0.1786  0.5110
76777SOL    HW242057  10.419   3.677   8.677  1.1469 -0.1488  1.3598
76778SOL     OW42058   3.398   3.793  12.118  0.3469  0.1104  0.1120
76778SOL    HW142059   3.410   3.719  12.178 -0.4642 -1.3652 -1.4375
76778SOL    HW242060   3.449   3.769  12.040  0.5328  1.4762 -0.2099
76779SOL     OW42061   2.597  10.849   8.172  0.1664 -0.0953  0.1530
76779SOL    HW142062   2.552  10.862   8.089  0.7543  0.4024 -0.0965
76779SOL    HW242063   2.640  10.764   8.163  1.0795  0.4142 -0.4624
76780SOL     OW42064  10.386  13.279   5.468 -0.6542  0.4677  0.1786
76780SOL    HW142065  10.452  13.271   5.399 -1.1527  1.1849 -0.3993
76780SOL    HW242066  10.303  13.281   5.421 -1.0012  0.9502  0.8020
76781SOL     OW42067  13.027   1.822   4.446  0.2565  0.0760 -0.2420
76781SOL    HW142068  13.041   1.912   4.477  0.4979  0.1696 -0.6176
76781SOL    HW242069  13.112   1.779   4.456  0.0456 -0.2318  0.3058
76782SOL     OW42070   7.753   6.435  12.018 -0.2532  0.5929  0.0561
76782SOL    HW142071   7.715   6.363  11.968  0.7144 -0.6257  0.9961
76782SOL    HW242072   7.830   6.461  11.967  0.6042 -0.4982  0.7264
76783SOL     OW42073   4.602  13.373   9.533  0.1938  0.4612  0.0069
76783SOL    HW142074   4.531  13.413   9.582 -1.4054 -1.0784 -0.9578
76783SOL    HW242075   4.577  13.281   9.524  2.0189  0.0035 -0.8825
76784SOL     OW42076   3.102   0.775   4.888  0.9764 -0.1488  0.2087
76784SOL    HW142077   3.060   0.849   4.931 -0.4614 -0.5439 -0.4842
76784SOL    HW242078   3.115   0.803   4.798  1.4628 -0.3363  0.2146
76785SOL     OW42079   7.271   1.963   3.906  0.1959  0.8772 -0.1961
76785SOL    HW142080   7.226   2.018   3.970 -0.7274 -1.0642  0.9397
76785SOL    HW242081   7.362   1.962   3.936  0.0616  1.1530  0.2296
76786SOL     OW42082  13.550  12.850   9.930  0.6314  0.0346 -0.3623
76786SOL    HW142083  13.501  12.884  10.006  0.3035  2.2713 -1.4847
76786SOL    HW242084  13.604  12.779   9.966 -2.2462 -1.5391  1.2219
76787SOL     OW42085   9.663   2.382   6.872 -0.0561 -0.6578  0.0344
76787SOL    HW142086   9.659   2.450   6.940 -1.6801 -0.0385 -0.6361
76787SOL    HW242087   9.587   2.327   6.887 -0.1167 -0.8628 -0.9208
76788SOL     OW42088   7.162  10.295   2.887 -0.2681  0.2696  0.0539
76788SOL    HW142089   7.155  10.220   2.946  1.0568 -0.2047 -0.3510
76788SOL    HW242090   7.155  10.257   2.800 -3.0363  1.0559 -0.1738
76789SOL     OW42091   7.028   6.197   6.654 -0.2383 -0.6650 -0.2786
76789SOL    HW142092   7.075   6.276   6.681 -1.8598 -0.3273  1.8366
76789SOL    HW242093   7.060   6.179   6.566  1.8913  1.0027  0.0722
76790SOL     OW42094  11.112   6.881   0.539  0.2935  0.4539  0.1746
76790SOL    HW142095  11.162   6.903   0.460 -1.6228  0.3671 -1.1263
76790SOL    HW242096  11.087   6.790   0.527  1.6643 -0.2051  1.8860
76791SOL     OW42097   7.449  12.148   5.047 -0.5866 -0.1209 -0.2492
76791SOL    HW142098   7.383  12.138   4.978 -1.5410  0.8231  0.4826
76791SOL    HW242099   7.399  12.146   5.128  0.5936 -1.8379  0.4792
76792SOL     OW42100  10.188   2.238  10.256  0.7257 -0.0962 -0.5568
76792SOL    HW142101  10.159   2.290  10.181 -0.9608 -0.1049  0.0434
76792SOL    HW242102  10.177   2.296  10.331  0.5744 -0.7045 -0.0984
76793SOL     OW42103   3.754   1.962  10.107 -0.8407  0.2524 -0.7667
76793SOL    HW142104   3.712   2.002  10.031 -1.6877 -2.4109 -1.8308
76793SOL    HW242105   3.698   1.986  10.181 -1.9436  0.1284 -1.5344
76794SOL     OW42106   9.703   0.365   1.407  0.0751  0.1638 -0.2271
76794SOL    HW142107   9.652   0.288   1.432  1.4844 -1.0710 -0.9725
76794SOL    HW242108   9.647   0.439   1.429 -1.6588 -1.0870 -0.2162
76795SOL     OW42109  11.205  12.670  10.336  0.2751 -0.4386  0.0475
76795SOL    HW142110  11.273  12.612  10.371  0.0928  0.0581  1.2955
76795SOL    HW242111  11.177  12.722  10.412 -1.3069 -0.4369 -0.5002
76796SOL     OW42112   4.218  13.284  12.817 -0.4986 -0.2292 -0.0419
76796SOL    HW142113   4.167  13.220  12.767 -0.7250 -0.3433  0.3308
76796SOL    HW242114   4.225  13.246  12.904  0.3022 -0.2548 -0.1090
76797SOL     OW42115   3.483   2.246  10.282  0.4967  0.3648  0.0319
76797SOL    HW142116   3.453   2.302  10.210 -1.0394 -1.6435 -0.9958
76797SOL    HW242117   3.416   2.256  10.350  1.7840  2.0182  1.1397
76798SOL     OW42118   2.219   7.300   8.856  0.1831  0.3916  0.1407
76798SOL    HW142119   2.290   7.332   8.800  0.4924  1.7436  1.2619
76798SOL    HW242120   2.225   7.353   8.935 -0.3298 -1.3806  1.4270
76799SOL     OW42121  11.327   2.784   9.779 -0.0586  0.0606  0.0044
76799SOL    HW142122  11.258   2.813   9.719 -0.4479  0.0797  0.4580
76799SOL    HW242123  11.326   2.688   9.773 -0.2192  0.0549  0.1125
76800SOL     OW42124   7.173   4.639   7.305 -0.2653 -0.2024 -0.1370
76800SOL    HW142125   7.088   4.637   7.349 -1.0704  2.3298 -1.4386
76800SOL    HW242126   7.226   4.700   7.357  0.5310 -1.1098  0.1672
76801SOL     OW42127   1.252  12.082  12.546  0.3416  0.3463 -0.5842
76801SOL    HW142128   1.188  12.021  12.582  0.9831  0.2747  0.4897
76801SOL    HW242129   1.308  12.028  12.490  0.5615  0.0459 -0.0846
76802SOL     OW42130   8.972  13.251   9.630 -0.2040 -0.7611 -0.7841
76802SOL    HW142131   8.883  13.285   9.641 -0.2499 -1.2562  0.6126
76802SOL    HW242132   8.965  13.185   9.562 -0.4659  0.7165 -2.2485
76803SOL     OW42133   4.672   4.471   7.260  0.8621 -0.5153 -0.4272
76803SOL    HW142134   4.622   4.455   7.180  0.8001 -1.2185 -0.2591
76803SOL    HW242135   4.712   4.557   7.247 -0.2767 -0.0056 -0.6167
76804SOL     OW42136   4.664   3.484   8.554 -0.3796 -0.2063 -0.1329
76804SOL    HW142137   4.701   3.515   8.471 -1.8702  0.8274 -0.4498
76804SOL    HW242138   4.652   3.390   8.542 -2.2284  0.1866 -1.7960
76805SOL     OW42139  11.058   8.147   9.691  0.4179 -0.1809  0.4520
76805SOL    HW142140  10.987   8.137   9.754  0.8127  3.4510  1.7009
76805SOL    HW242141  11.134   8.170   9.745  1.3833  0.5693 -1.1500
76806SOL     OW42142   5.838   2.508  12.316 -0.0926  0.3357  0.1703
76806SOL    HW142143   5.912   2.456  12.345  0.6031  0.4799 -1.2604
76806SOL    HW242144   5.873   2.565  12.248 -1.3794  0.8675 -0.0873
76807SOL     OW42145   6.313   8.780   3.576 -0.5675 -0.2155  0.2690
76807SOL    HW142146   6.376   8.822   3.634 -1.4280  0.2996  0.8615
76807SOL    HW242147   6.270   8.853   3.531 -0.1733 -0.5962 -0.7510
76808SOL     OW42148   8.837   1.828   3.923  0.4180  0.0474  0.4948
76808SOL    HW142149   8.767   1.790   3.869  1.8400 -1.5297 -0.3583
76808SOL    HW242150   8.829   1.922   3.910  0.0682 -0.2266 -1.7183
76809SOL     OW42151   2.667  13.079  10.992 -0.0670  0.2891 -0.9825
76809SOL    HW142152   2.652  13.174  11.000  1.1828  0.4147  0.3520
76809SOL    HW242153   2.758  13.067  11.018 -0.4064 -1.3672 -0.4110
76810SOL     OW42154   1.665  12.818   5.359  0.2445 -0.0742 -0.0721
76810SOL    HW142155   1.663  12.870   5.279 -2.4700 -0.7607 -0.5383
76810SOL    HW242156   1.670  12.728   5.329 -1.2311 -0.3604  0.4715
76811SOL     OW42157   7.685  11.618  13.612 -0.1248 -0.1284 -0.4878
76811SOL    HW142158   7.776  11.589  13.613  0.1210  0.2389  3.2870
76811SOL    HW242159   7.689  11.709  13.582  0.7538 -0.0735 -0.2290
76812SOL     OW42160   5.294   4.832  10.576  0.3293 -0.2146 -0.6148
76812SOL    HW142161   5.355   4.880  10.519 -1.3384 -0.9008 -3.1514
76812SOL    HW242162   5.209   4.841  10.533 -0.5515 -3.0547  0.3244
76813SOL     OW42163   2.836   9.008  12.167 -0.5197  0.4207 -0.2633
76813SOL    HW142164   2.761   9.060  12.196 -1.0821 -0.2285 -0.5174
76813SOL    HW242165   2.821   8.994  12.074  0.2093  0.7477 -0.4352
76814SOL     OW42166   6.212   4.259  12.333  0.3716 -0.0197 -0.1342
76814SOL    HW142167   6.167   4.259  12.418 -0.2493 -0.8344 -0.4572
76814SOL    HW242168   6.155   4.209  12.275  1.0925  0.0016 -0.8774
76815SOL     OW42169  12.253  12.406   1.314  0.0594 -0.1834 -0.3471
76815SOL    HW142170  12.217  12.428   1.228  0.7982 -2.1791 -1.2256
76815SOL    HW242171  12.338  12.450   1.316  0.0846 -0.2111 -0.6942
76816SOL     OW42172   7.109   7.081   4.209 -0.1502  0.2634  0.1426
76816SOL    HW142173   7.098   7.112   4.119 -4.0603  2.7833  1.2106
76816SOL    HW242174   7.177   7.137   4.246 -1.1759  1.8739 -0.3172
76817SOL     OW42175  13.102  10.850   6.966  0.5810 -0.2524  0.6866
76817SOL    HW142176  13.067  10.910   7.032 -0.8276 -0.7717  0.4630
76817SOL    HW242177  13.081  10.893   6.883 -0.8001 -1.1791  0.5110
76818SOL     OW42178   0.051   6.352   8.830  0.2853  0.2255  0.1760
76818SOL    HW142179   0.129   6.401   8.857  1.8713 -2.3864  0.6652
76818SOL    HW242180   0.064   6.338   8.736  1.5811 -2.0122  0.6242
76819SOL     OW42181   9.051  11.602  11.385  0.3107  0.5257  0.7561
76819SOL    HW142182   9.060  11.513  11.419  0.4782  0.3458  0.2491
76819SOL    HW242183   9.140  11.637  11.382  0.0863  1.3456  2.6061
76820SOL     OW42184   3.448   7.567  10.314 -0.1746 -0.0882  0.3503
76820SOL    HW142185   3.464   7.493  10.372  1.9438  0.7757  0.9681
76820SOL    HW242186   3.449   7.643  10.372 -1.0697  0.5441 -0.4309
76821SOL     OW42187   6.766   8.888  10.366  0.0406  0.3833 -0.2796
76821SOL    HW142188   6.776   8.980  10.341 -0.0810 -0.2616 -3.0513
76821SOL    HW242189   6.822   8.840  10.305 -0.9186 -1.4677  0.2005
76822SOL     OW42190  12.539   4.890   8.028 -0.5926 -0.6945  0.5725
76822SOL    HW142191  12.493   4.821   7.980 -0.1830 -0.8127  0.3472
76822SOL    HW242192  12.508   4.971   7.990 -0.3873 -0.7832  0.2097
76823SOL     OW42193   5.992  12.960   5.515  0.9195  0.2678 -0.0097
76823SOL    HW142194   5.946  12.926   5.591  1.3601 -0.3329 -0.0118
76823SOL    HW242195   5.979  13.055   5.521  0.9647  0.2300  0.8161
76824SOL     OW42196   7.447  12.352   7.067 -0.1701  0.1134 -0.2691
76824SOL    HW142197   7.426  12.445   7.065  0.6549  0.3129  0.0636
76824SOL    HW242198   7.542  12.348   7.055 -0.5528 -0.8951 -4.2856
76825SOL     OW42199   0.034   2.771  11.764 -0.1866  0.7002 -0.0163
76825SOL    HW142200   0.054   2.858  11.797 -0.4293  0.0676  1.9074
76825SOL    HW242201  -0.047   2.746  11.808  0.0232 -0.6033 -0.3208
76826SOL     OW42202   6.830  12.124   1.117 -0.1639  0.2230 -0.0484
76826SOL    HW142203   6.736  12.116   1.100  0.1166 -0.3695 -1.4702
76826SOL    HW242204   6.862  12.034   1.116  0.3136  0.3682  1.1499
76827SOL     OW42205   6.219   2.384   0.552 -0.0442  0.1784  0.0226
76827SOL    HW142206   6.206   2.290   0.558  0.1125  0.1500 -0.0576
76827SOL    HW242207   6.251   2.398   0.463 -1.8164  0.5274 -0.5963
76828SOL     OW42208  10.675   0.308  10.003  0.0239  0.2950 -0.3839
76828SOL    HW142209  10.698   0.297  10.095 -1.1821 -0.2441 -0.1275
76828SOL    HW242210  10.745   0.264   9.955 -1.4781 -3.3510  0.4485
76829SOL     OW42211  10.727   4.666   1.641 -0.2853  0.0234 -0.2053
76829SOL    HW142212  10.740   4.585   1.592 -0.5953  0.6744 -1.3873
76829SOL    HW242213  10.788   4.660   1.715 -3.0135 -3.0913  2.1026
76830SOL     OW42214   5.835   9.482   2.428 -0.8354  0.4264  0.2023
76830SOL    HW142215   5.749   9.519   2.405 -0.7604  0.2053 -0.4542
76830SOL    HW242216   5.852   9.418   2.360  0.4545  1.4077 -0.4331
76831SOL     OW42217   7.596  10.328   2.767  0.3767  0.5824  0.4999
76831SOL    HW142218   7.545  10.394   2.814  0.0485  0.9421 -0.3253
76831SOL    HW242219   7.659  10.296   2.831  0.5312  1.6882  0.9247
76832SOL     OW42220   9.444   0.358   9.722 -0.0929 -0.5470  0.2819
76832SOL    HW142221   9.469   0.346   9.814 -0.9469 -0.0853  0.5903
76832SOL    HW242222   9.527   0.359   9.675  0.4976  0.9341  1.2551
76833SOL     OW42223   2.680   2.316   7.433 -0.1977 -0.1248 -0.6118
76833SOL    HW142224   2.653   2.225   7.443 -0.3232  0.1785  3.0308
76833SOL    HW242225   2.775   2.310   7.417 -0.0835 -0.8781  0.2715
76834SOL     OW42226   9.421   8.472  10.489  0.1071  0.2705 -0.2991
76834SOL    HW142227   9.503   8.510  10.521  0.0343  0.6636 -0.5733
76834SOL    HW242228   9.441   8.379  10.474  0.2549  0.1747  0.4818
76835SOL     OW42229  10.107  11.365   9.314 -1.0473  0.2128  0.7514
76835SOL    HW142230  10.118  11.455   9.345 -0.3263  0.5560 -0.4504
76835SOL    HW242231  10.024  11.365   9.268  0.0059  0.9083 -1.2868
76836SOL     OW42232   4.223   2.146   3.650 -0.0114 -0.7256 -0.1726
76836SOL    HW142233   4.301   2.152   3.594  0.4231  0.0066  0.4943
76836SOL    HW242234   4.246   2.196   3.728 -1.4678  0.2543 -0.3259
76837SOL     OW42235  12.042  13.346  12.002 -0.4230 -0.3442 -0.3163
76837SOL    HW142236  12.132  13.322  11.981 -0.5242 -0.2864 -0.8235
76837SOL    HW242237  12.025  13.303  12.086  0.6689  1.0926  0.6880
76838SOL     OW42238   0.565   0.305  10.556  0.1768  0.5260 -0.2043
76838SOL    HW142239   0.654   0.342  10.556  0.0995  0.7294 -0.6498
76838SOL    HW242240   0.510   0.376  10.589  0.4625 -0.4075  2.5397
76839SOL     OW42241  10.010   3.414   4.787  0.2875 -0.1707 -0.2832
76839SOL    HW142242  10.067   3.383   4.857  1.9521  1.0667 -1.0093
76839SOL    HW242243  10.011   3.509   4.796 -1.2105 -0.0940 -0.6961
76840SOL     OW42244   3.798   0.472   7.380  0.6715  0.8379  0.1592
76840SOL    HW142245   3.777   0.437   7.293 -0.4858  3.8301 -0.9082
76840SOL    HW242246   3.893   0.467   7.385  0.6499 -1.1100 -0.4340
76841SOL     OW42247   6.024   4.062   2.104 -0.6119 -0.3713  0.4009
76841SOL    HW142248   6.078   4.087   2.179 -0.2642  0.6446 -0.1594
76841SOL    HW242249   6.084   4.014   2.046 -0.2463  0.8630 -0.2773
76842SOL     OW42250  11.601   8.576  10.056  0.0679  0.1608 -0.1734
76842SOL    HW142251  11.593   8.516  10.130  0.7035  0.2578 -0.0219
76842SOL    HW242252  11.562   8.658  10.087 -1.8408 -0.4575 -0.7556
76843SOL     OW42253   7.554  10.905   7.752  0.2835  0.0308  0.2581
76843SOL    HW142254   7.612  10.852   7.698 -2.3195  1.2893 -4.2062
76843SOL    HW242255   7.495  10.842   7.793  0.7562 -0.8396 -0.3673
76844SOL     OW42256   5.799  11.127   2.732 -0.2130  0.4058  0.0315
76844SOL    HW142257   5.798  11.031   2.732 -1.1798  0.3548 -2.1059
76844SOL    HW242258   5.707  11.151   2.745 -0.0604  1.0291 -0.0344
76845SOL     OW42259   3.857   4.437  12.286 -0.4643  0.3988  0.6100
76845SOL    HW142260   3.838   4.437  12.192 -0.8682 -0.5952  0.6762
76845SOL    HW242261   3.847   4.345  12.313  0.8837  0.4428  1.3821
76846SOL     OW42262  11.000   1.046   6.097 -0.6243  0.2209 -0.3285
76846SOL    HW142263  10.965   0.981   6.037 -0.5807 -1.9526  1.8442
76846SOL    HW242264  10.923   1.094   6.129 -0.9360 -0.3883 -0.1606
76847SOL     OW42265   1.595   4.863  11.118 -0.1104 -0.2695 -0.1962
76847SOL    HW142266   1.575   4.947  11.078 -2.0700 -1.3224 -1.6095
76847SOL    HW242267   1.584   4.800  11.046  1.0301 -1.7684  0.8799
76848SOL     OW42268   0.441  12.887   6.542 -0.5892  0.0245  0.3240
76848SOL    HW142269   0.496  12.916   6.470 -0.3211 -1.4710 -0.1063
76848SOL    HW242270   0.498  12.833   6.596 -1.3232 -0.5979  0.5028
76849SOL     OW42271  13.389  11.974   3.497  0.1923  0.1334 -0.0640
76849SOL    HW142272  13.416  11.905   3.559 -0.6935  1.1347  1.5172
76849SOL    HW242273  13.342  11.927   3.429 -0.7799 -0.8160  1.2098
76850SOL     OW42274   9.093  12.575   3.401  0.2529 -0.5868 -0.4735
76850SOL    HW142275   9.130  12.601   3.317  0.0824 -1.8978 -0.9877
76850SOL    HW242276   9.001  12.556   3.382 -0.2039  0.6555  0.3631
76851SOL     OW42277   1.205  11.371  12.365 -0.5772  0.3754  0.2948
76851SOL    HW142278   1.277  11.423  12.402 -0.3283  0.0316  0.3023
76851SOL    HW242279   1.220  11.374  12.270 -1.5165  1.6973  0.1615
76852SOL     OW42280   9.204   9.226  11.928 -0.2749 -0.0939 -0.2062
76852SOL    HW142281   9.279   9.284  11.915 -1.1868  0.9167 -1.2110
76852SOL    HW242282   9.240   9.150  11.973  1.2414  0.6027 -0.1741
76853SOL     OW42283   5.810   7.317  11.938 -0.4478 -0.1168 -0.1890
76853SOL    HW142284   5.733   7.272  11.972  0.6157 -2.8746 -1.1904
76853SOL    HW242285   5.871   7.321  12.012 -0.6208 -0.1692 -0.0444
76854SOL     OW42286   3.281   4.441   0.190  0.1079 -0.6989  0.7517
76854SOL    HW142287   3.261   4.419   0.099  2.5272  1.5724 -0.4363
76854SOL    HW242288   3.334   4.367   0.221 -0.1844 -1.1828  0.1266
76855SOL     OW42289   5.718   0.474   9.567 -0.2227 -0.0938  0.1527
76855SOL    HW142290   5.682   0.562   9.582 -0.5931  0.1346 -1.8303
76855SOL    HW242291   5.802   0.489   9.524 -0.1521 -0.7139  0.0647
76856SOL     OW42292   2.528   9.891   1.053 -0.3362  0.3211 -0.3379
76856SOL    HW142293   2.610   9.926   1.019 -0.0868 -0.5202 -0.6231
76856SOL    HW242294   2.549   9.859   1.140 -0.2345 -0.3469 -0.6010
76857SOL     OW42295  10.977   6.725   2.475 -0.0239 -0.1219 -0.0631
76857SOL    HW142296  10.909   6.673   2.432 -0.0670  0.3932 -0.6336
76857SOL    HW242297  10.930   6.779   2.537  0.0420 -0.9058  0.6882
76858SOL     OW42298   8.605   2.955  12.485 -0.1479  0.1415 -0.2977
76858SOL    HW142299   8.614   2.904  12.565 -1.5760  0.0998 -0.1387
76858SOL    HW242300   8.640   2.899  12.417 -1.1855 -0.8709 -0.0447
76859SOL     OW42301  13.675   2.936   9.023  0.0140  0.2584  0.6928
76859SOL    HW142302  13.685   2.982   8.940  1.9218  1.1048  1.3256
76859SOL    HW242303  13.690   2.844   9.001  0.4871  0.4718  0.0987
76860SOL     OW42304   8.275   6.618   9.963  0.6346 -0.0623  0.0967
76860SOL    HW142305   8.349   6.645   9.909  0.1175 -1.1514 -1.2210
76860SOL    HW242306   8.267   6.687  10.029  3.5453 -0.4927  1.0443
76861SOL     OW42307   4.986   7.932   3.321  0.1314 -0.6690 -0.2880
76861SOL    HW142308   4.938   7.865   3.369  2.6508 -1.4737  1.3145
76861SOL    HW242309   5.048   7.883   3.267  0.6619  0.3386 -0.6275
76862SOL     OW42310   7.829   4.367   6.855 -0.6915  0.1710 -0.4343
76862SOL    HW142311   7.831   4.398   6.946 -0.2287 -0.3660 -0.2555
76862SOL    HW242312   7.738   4.339   6.841 -0.6951 -0.0182 -0.0428
76863SOL     OW42313   8.258   4.727   0.573 -0.0924 -0.4784  0.1509
76863SOL    HW142314   8.165   4.745   0.562 -0.4653 -1.8465  0.9028
76863SOL    HW242315   8.265   4.688   0.660  1.0714 -1.1024 -0.2030
76864SOL     OW42316   9.462   2.735   6.968  0.2750 -0.1915  0.3550
76864SOL    HW142317   9.539   2.769   6.923 -0.1275  1.0560  0.5768
76864SOL    HW242318   9.388   2.765   6.916 -0.1509  0.4475  1.3076
76865SOL     OW42319   1.666  10.768   7.152  0.2697 -0.1418  0.0179
76865SOL    HW142320   1.696  10.774   7.061  1.1517 -1.1425  0.2198
76865SOL    HW242321   1.574  10.744   7.145  0.4548 -0.7344 -0.6330
76866SOL     OW42322   0.156  13.633  10.091  0.0739 -0.2743  0.1456
76866SOL    HW142323   0.141  13.594  10.005 -0.4085  2.1121 -0.9081
76866SOL    HW242324   0.084  13.599  10.145 -0.5178 -0.5759 -0.8017
76867SOL     OW42325  10.330   4.022  12.762  0.0805  0.5913 -0.3316
76867SOL    HW142326  10.336   4.115  12.783 -2.8682  0.5633  1.3213
76867SOL    HW242327  10.244   4.013  12.720  0.4997 -1.3151 -0.8632
76868SOL     OW42328   4.456  10.720  11.429 -0.1172 -0.0046 -0.1901
76868SOL    HW142329   4.367  10.685  11.432 -0.4140  0.7825  1.8024
76868SOL    HW242330   4.449  10.806  11.471  1.6817 -0.2139  0.6480
76869SOL     OW42331   6.987   3.409   3.296  0.2132 -0.1110 -0.2845
76869SOL    HW142332   6.898   3.401   3.331  0.4589 -0.5033  0.2561
76869SOL    HW242333   7.015   3.319   3.280 -0.0910  0.0583 -2.0319
76870SOL     OW42334  13.272   4.056   6.325  0.4159 -0.5583 -0.0039
76870SOL    HW142335  13.186   4.049   6.283  0.2782 -0.2865  0.2296
76870SOL    HW242336  13.308   4.139   6.293 -0.7819  0.9980  2.3805
76871SOL     OW42337   5.018  12.135   7.381 -0.2719  0.3461  0.1846
76871SOL    HW142338   4.933  12.131   7.425 -1.2821 -0.1875 -1.6832
76871SOL    HW242339   5.048  12.225   7.396 -0.7480  0.3010  1.5567
76872SOL     OW42340   3.630   3.566   0.909  0.1060 -0.6633 -0.1724
76872SOL    HW142341   3.603   3.490   0.858 -1.9056 -0.2334  0.1847
76872SOL    HW242342   3.725   3.555   0.920  0.1201 -2.2399 -1.5242
76873SOL     OW42343   9.471   7.192   2.444 -0.0268 -0.0629 -0.4956
76873SOL    HW142344   9.421   7.273   2.441 -0.1896 -0.0833  1.0680
76873SOL    HW242345   9.473   7.162   2.353  0.1681  1.7537 -1.1310
76874SOL     OW42346  10.857   5.480  10.048  0.0328  0.3185 -0.5702
76874SOL    HW142347  10.843   5.433  10.130 -0.1332 -0.6799 -1.1572
76874SOL    HW242348  10.789   5.547  10.047 -1.7016 -1.3634 -1.1072
76875SOL     OW42349   0.753   7.429   3.641  0.1865  0.3437 -0.2359
76875SOL    HW142350   0.813   7.359   3.615  2.1080  2.2613 -1.2590
76875SOL    HW242351   0.793   7.466   3.720 -0.1460  1.0928 -0.4177
76876SOL     OW42352  11.714  12.239   8.766 -0.0451 -0.2928 -0.3114
76876SOL    HW142353  11.723  12.173   8.836  0.3979 -0.7736 -0.8169
76876SOL    HW242354  11.716  12.188   8.685 -1.4192  0.1655 -0.6710
76877SOL     OW42355   7.768   0.734  12.461  0.4588 -0.2893  0.3655
76877SOL    HW142356   7.782   0.807  12.521  0.7272  1.1032 -1.3183
76877SOL    HW242357   7.696   0.762  12.405 -0.6126 -2.0750  0.7701
76878SOL     OW42358   5.030  13.734   7.147 -0.4893 -0.4758 -0.0085
76878SOL    HW142359   4.992  13.816   7.116  0.3731 -0.1795 -0.3098
76878SOL    HW242360   5.087  13.705   7.075 -0.0858 -0.8661  0.4596
76879SOL     OW42361  12.082  13.660   1.048 -0.2652  0.0230  0.0163
76879SOL    HW142362  12.146  13.594   1.021  2.3313  1.1938  2.7496
76879SOL    HW242363  12.121  13.743   1.022 -2.1829  0.6998 -0.8954
76880SOL     OW42364  10.524   3.171   2.361  0.1939 -0.1316 -0.3310
76880SOL    HW142365  10.437   3.158   2.323 -0.0883 -1.1770  0.6131
76880SOL    HW242366  10.515   3.141   2.452  1.5247 -0.1549 -0.1861
76881SOL     OW42367   4.493   8.910   4.909 -0.2331  0.9456  0.1293
76881SOL    HW142368   4.429   8.851   4.950 -0.9351  0.2631 -1.8118
76881SOL    HW242369   4.568   8.908   4.968 -0.6440 -1.0698  0.6945
76882SOL     OW42370  10.273  10.987   0.312  0.0443 -0.0631 -0.2317
76882SOL    HW142371  10.307  11.074   0.291  0.6791  0.1464  1.5750
76882SOL    HW242372  10.276  10.940   0.228  1.9286  0.8992 -0.7571
76883SOL     OW42373   6.290   6.126  11.456  0.6424 -0.7193 -0.1850
76883SOL    HW142374   6.223   6.059  11.471  1.6681 -1.7646 -0.1328
76883SOL    HW242375   6.241   6.208  11.456 -0.3436 -1.2424  2.0730
76884SOL     OW42376   8.431  13.087   7.994 -0.6633 -0.2268 -0.1218
76884SOL    HW142377   8.448  13.166   7.943 -1.4320  0.7194  1.0246
76884SOL    HW242378   8.507  13.079   8.052 -1.7781  1.2731  1.6602
76885SOL     OW42379   4.218  12.956   6.703 -0.2968  0.7209  0.8160
76885SOL    HW142380   4.181  12.968   6.616 -1.6309 -4.1259  0.4147
76885SOL    HW242381   4.156  13.000   6.762 -1.4556  0.8600 -0.4713
76886SOL     OW42382   0.419  11.247   0.533 -0.2868 -0.3609 -0.3149
76886SOL    HW142383   0.340  11.205   0.500 -0.9285  1.0545 -0.6853
76886SOL    HW242384   0.451  11.190   0.602 -2.9557  0.1558  1.4686
76887SOL     OW42385   5.587   7.809   5.510  0.3811 -0.1217  0.4186
76887SOL    HW142386   5.668   7.802   5.561  0.6408  0.1826  0.0540
76887SOL    HW242387   5.616   7.805   5.419 -0.0369 -0.2151  0.2908
76888SOL     OW42388   4.992   5.988   3.547  0.2157 -0.3451 -0.0812
76888SOL    HW142389   4.960   5.919   3.489 -0.1711 -1.8290  1.8136
76888SOL    HW242390   5.082   5.963   3.568  0.1266 -0.1863  0.4999
76889SOL     OW42391   3.037  10.303   2.659  0.0389  0.9441  0.0097
76889SOL    HW142392   2.992  10.329   2.579 -0.5641 -0.9920 -0.3413
76889SOL    HW242393   2.994  10.353   2.729 -0.9463  0.9992 -0.6209
76890SOL     OW42394  10.792   6.879  12.085  0.3062 -0.2759  0.1443
76890SOL    HW142395  10.712   6.896  12.135  1.2586  0.6572  1.4299
76890SOL    HW242396  10.811   6.787  12.104  0.7606  0.1091  1.7453
76891SOL     OW42397   8.973   8.852   8.954  0.1697 -0.2405 -0.1141
76891SOL    HW142398   9.033   8.822   9.022 -1.2404  0.1908  1.4024
76891SOL    HW242399   8.995   8.800   8.877  0.1291 -2.6343  1.3847
76892SOL     OW42400  12.599   9.899   5.161  0.5200 -0.2588 -0.5503
76892SOL    HW142401  12.536   9.906   5.232  1.6362  0.7725  0.3981
76892SOL    HW242402  12.617   9.805   5.152 -1.5594 -0.6237 -1.2635
76893SOL     OW42403   3.151   3.335   6.785  0.0417 -0.4357  0.2661
76893SOL    HW142404   3.120   3.248   6.761  0.6409 -1.1083  1.7972
76893SOL    HW242405   3.235   3.343   6.739 -0.1338 -0.5587 -0.0811
76894SOL     OW42406   5.837  12.949   2.273 -0.4630  0.2946 -0.2440
76894SOL    HW142407   5.804  12.867   2.236 -1.4688  1.1526 -1.2963
76894SOL    HW242408   5.877  12.995   2.199  0.8873  0.4070  0.5094
76895SOL     OW42409   1.525   5.954   3.716 -0.2388 -0.0002  0.7123
76895SOL    HW142410   1.526   5.880   3.777  0.2625  1.1181  2.1302
76895SOL    HW242411   1.453   5.935   3.656 -1.8239 -0.4413  2.6193
76896SOL     OW42412   3.849   9.820  10.828 -0.3284  0.2737 -0.6784
76896SOL    HW142413   3.776   9.876  10.854 -0.2925 -0.2860  0.7488
76896SOL    HW242414   3.809   9.752  10.774 -1.0814 -0.6482  0.9784
76897SOL     OW42415   0.574   8.757   2.042 -0.7981 -0.0768 -0.1379
76897SOL    HW142416   0.632   8.769   2.117  0.7197 -1.8134 -0.9708
76897SOL    HW242417   0.487   8.781   2.075 -0.0736 -0.1469  1.9592
76898SOL     OW42418  13.533   6.305  10.936  0.4198 -0.2886  0.3356
76898SOL    HW142419  13.603   6.281  10.996  0.4931  0.6006  0.6244
76898SOL    HW242420  13.458   6.253  10.964  1.3514 -2.4403 -0.9529
76899SOL     OW42421   2.478  13.683   5.907  0.5704  0.1768  0.6320
76899SOL    HW142422   2.432  13.600   5.897  0.9971 -0.1253  1.1545
76899SOL    HW242423   2.418  13.738   5.956  0.4829  0.0093  0.7145
76900SOL     OW42424   6.641  13.087   6.283  0.5716 -0.3000 -0.0615
76900SOL    HW142425   6.619  13.110   6.374  2.0366  1.4802 -0.1018
76900SOL    HW242426   6.601  13.001   6.270  0.7944 -0.8614  2.4521
76901SOL     OW42427   4.820   0.409   9.705  0.0641  0.1534  0.1091
76901SOL    HW142428   4.842   0.451   9.788  1.2639  0.5254 -0.3897
76901SOL    HW242429   4.752   0.346   9.729  1.7525 -1.1799  1.7696
76902SOL     OW42430  12.397   5.534   5.982  0.3665  0.3557 -0.7517
76902SOL    HW142431  12.323   5.514   5.925  0.2779 -0.7720 -0.2652
76902SOL    HW242432  12.362   5.529   6.071  0.8247  0.7144 -0.5429
76903SOL     OW42433   0.486  10.241   5.948  0.2796 -0.1730 -0.6708
76903SOL    HW142434   0.540  10.176   5.903 -0.8185 -0.5427 -1.5020
76903SOL    HW242435   0.527  10.325   5.925  0.9609 -0.4964 -0.6428
76904SOL     OW42436   4.980  10.208   6.574 -0.2062  0.1672  0.1563
76904SOL    HW142437   5.028  10.136   6.532  0.5340  0.9696 -0.4028
76904SOL    HW242438   4.904  10.166   6.614 -0.6086 -0.7198 -1.4460
76905SOL     OW42439   1.874  10.354   8.448  0.2449  0.1419 -0.3942
76905SOL    HW142440   1.846  10.279   8.396  1.5468  0.1444 -1.1421
76905SOL    HW242441   1.861  10.430   8.391 -1.3263  0.5644  0.4540
76906SOL     OW42442  10.565  13.292   3.828  0.0223 -0.2877  0.4223
76906SOL    HW142443  10.633  13.278   3.763 -0.1383 -0.9864  0.4029
76906SOL    HW242444  10.608  13.282   3.912  0.2431  0.6697  0.4376
76907SOL     OW42445   3.264  11.096   9.365  0.0757 -0.6241 -0.0344
76907SOL    HW142446   3.216  11.014   9.350 -0.4221 -0.3324 -0.0844
76907SOL    HW242447   3.203  11.150   9.415  0.8846 -0.7577  1.1336
76908SOL     OW42448   3.389   3.727   2.647  0.3584  0.3623  0.0572
76908SOL    HW142449   3.316   3.709   2.588  0.6289 -1.8369  0.3308
76908SOL    HW242450   3.408   3.644   2.689  3.2457  0.7487 -0.2447
76909SOL     OW42451  11.790   1.095  10.922  0.1568 -0.2263 -0.0237
76909SOL    HW142452  11.803   1.129  11.010 -1.4890 -0.7523  0.4575
76909SOL    HW242453  11.878   1.070  10.893  0.7088 -0.2358  1.5449
76910SOL     OW42454   1.043   1.997   5.134  0.2353  0.3644 -0.7505
76910SOL    HW142455   1.078   2.020   5.220  1.1093  0.5808 -1.1456
76910SOL    HW242456   0.963   2.049   5.125  0.6329  1.0433 -0.4402
76911SOL     OW42457   0.767   0.129   8.863 -0.2021 -0.4047 -0.8165
76911SOL    HW142458   0.825   0.180   8.920  0.9573 -1.1547 -1.2701
76911SOL    HW242459   0.820   0.054   8.837 -1.5164 -1.2980 -1.0024
76912SOL     OW42460   0.789   2.179   2.875 -0.2505 -0.4398 -0.3861
76912SOL    HW142461   0.875   2.154   2.840  0.7169  0.5966  1.1220
76912SOL    HW242462   0.805   2.199   2.967 -2.0898 -0.0507 -0.1042
76913SOL     OW42463  11.691   3.508   5.267  0.3104  0.5327 -0.2427
76913SOL    HW142464  11.733   3.457   5.197 -1.7628 -1.9704  0.2081
76913SOL    HW242465  11.741   3.486   5.346  2.1851  2.7850 -0.7000
76914SOL     OW42466   9.216   4.671   3.350 -0.3856 -0.3611  0.2500
76914SOL    HW142467   9.185   4.605   3.413 -0.5926  0.6000  1.1866
76914SOL    HW242468   9.296   4.634   3.314 -0.7566 -1.3388  0.3932
76915SOL     OW42469   9.173   5.418   4.169 -0.3658  0.1038  0.0169
76915SOL    HW142470   9.249   5.447   4.120  1.5292  1.3689  3.3492
76915SOL    HW242471   9.099   5.465   4.130  0.9699  0.9657 -1.5725
76916SOL     OW42472   7.077  13.627  11.684 -0.8589 -0.6458 -0.3420
76916SOL    HW142473   7.114  13.553  11.636  0.7063  0.5352 -1.0197
76916SOL    HW242474   7.109  13.705  11.638 -1.0473  0.5005  1.3723
76917SOL     OW42475   0.095   7.942   8.902  0.1060  0.1580  0.2307
76917SOL    HW142476   0.070   7.888   8.977 -0.9266  0.2321 -0.0549
76917SOL    HW242477   0.046   8.023   8.913  1.0554  0.7570  0.2363
76918SOL     OW42478   5.251   6.457  10.312 -0.3435  0.3087  0.2433
76918SOL    HW142479   5.229   6.447  10.220 -0.5056  0.3164  0.2820
76918SOL    HW242480   5.190   6.523  10.345 -0.2920  0.2998  0.3581
76919SOL     OW42481  10.375   8.462  12.494  0.3522  1.0398 -0.3763
76919SOL    HW142482  10.441   8.516  12.450 -0.6949  1.2521 -1.7515
76919SOL    HW242483  10.319   8.430  12.424 -1.2540  1.1979  0.7801
76920SOL     OW42484   9.191   2.421  10.484  0.7381  0.0264  0.3881
76920SOL    HW142485   9.199   2.505  10.529 -2.5073  0.1393  0.9284
76920SOL    HW242486   9.212   2.441  10.393  0.3733  1.3565  0.5723
76921SOL     OW42487   5.291   0.473   1.467 -0.1976 -0.0085 -0.7166
76921SOL    HW142488   5.326   0.453   1.554 -1.6920 -2.4971 -0.6103
76921SOL    HW242489   5.265   0.565   1.472 -0.1464 -0.0736  1.4178
76922SOL     OW42490  13.061   9.227   8.817 -0.5229 -0.0594 -0.3578
76922SOL    HW142491  12.990   9.276   8.858  0.2645  1.0733 -0.3056
76922SOL    HW242492  13.072   9.268   8.732 -0.2790 -0.5853 -0.5865
76923SOL     OW42493   3.881   0.251   2.387 -0.4886 -0.4039 -0.1712
76923SOL    HW142494   3.899   0.335   2.429  0.3357 -1.2280  1.1746
76923SOL    HW242495   3.882   0.271   2.293 -0.4430  1.1078  0.1225
76924SOL     OW42496   4.701  12.991   3.771 -0.3516 -0.4291  0.3235
76924SOL    HW142497   4.720  13.067   3.715  0.8074 -0.0364  1.2267
76924SOL    HW242498   4.785  12.964   3.805 -0.4990 -3.1776 -1.2123
76925SOL     OW42499   2.569   7.076  11.860 -0.2068 -0.1934  0.3825
76925SOL    HW142500   2.552   7.003  11.920 -0.7332 -0.5070 -0.1424
76925SOL    HW242501   2.563   7.154  11.915 -0.4261 -0.4931  0.7930
76926SOL     OW42502  12.990   0.562  13.187  0.0716 -0.3817 -0.0611
76926SOL    HW142503  13.080   0.530  13.184  0.0160 -0.4639 -1.3945
76926SOL    HW242504  12.977   0.605  13.103 -1.2098 -0.5451  0.0338
76927SOL     OW42505   6.248  12.599   1.341 -0.3862 -0.6512  0.2927
76927SOL    HW142506   6.248  12.599   1.246 -2.0866 -0.3120  0.2504
76927SOL    HW242507   6.238  12.506   1.365 -2.3185 -0.5651  0.0366
76928SOL     OW42508   8.996   8.073   1.060 -0.1821  0.0970 -0.6288
76928SOL    HW142509   9.038   8.156   1.038  0.2465 -0.1336 -0.7105
76928SOL    HW242510   9.056   8.007   1.025 -0.1245 -0.2600  0.1352
76929SOL     OW42511   6.763   2.806   4.571  0.3692  0.2736 -0.2672
76929SOL    HW142512   6.706   2.733   4.593  1.2458 -0.1194  0.7777
76929SOL    HW242513   6.852   2.773   4.586  0.8335  1.1638 -0.9608
76930SOL     OW42514  10.383  12.835  13.354 -0.0086 -0.4626 -0.2550
76930SOL    HW142515  10.404  12.926  13.336  0.2683 -0.3221  0.7634
76930SOL    HW242516  10.294  12.837  13.388 -0.6775 -0.7713 -1.8795
76931SOL     OW42517   5.225   3.410  11.568  0.2622  0.7952 -0.3728
76931SOL    HW142518   5.297   3.389  11.508 -0.4455 -2.6883 -0.2421
76931SOL    HW242519   5.260   3.388  11.655 -0.1299  1.6666  0.0194
76932SOL     OW42520   2.269  12.340  11.049 -0.1509  0.6181  0.3483
76932SOL    HW142521   2.330  12.385  11.107 -0.1858  1.3597 -0.1721
76932SOL    HW242522   2.206  12.299  11.108  0.2726  0.6908  0.8584
76933SOL     OW42523   1.513   0.421   6.499 -0.6553 -0.3073  0.1220
76933SOL    HW142524   1.530   0.394   6.589 -0.6933  2.0184  0.8914
76933SOL    HW242525   1.493   0.339   6.453  0.0339 -1.6321  2.0460
76934SOL     OW42526  10.220   3.126   6.902  0.1999 -0.1357  0.6320
76934SOL    HW142527  10.271   3.190   6.952  1.2071 -0.4913  0.0913
76934SOL    HW242528  10.285   3.067   6.865 -0.5276  0.0155 -0.9810
76935SOL     OW42529   2.349  12.400   8.902  0.1537  0.3814 -0.1632
76935SOL    HW142530   2.398  12.475   8.867 -1.3119  1.3338 -0.2659
76935SOL    HW242531   2.331  12.424   8.993  0.0028 -0.0246 -0.0826
76936SOL     OW42532   6.762  10.274   4.531 -0.1049  0.0481 -0.0947
76936SOL    HW142533   6.771  10.181   4.510  1.0733  0.1182 -0.0035
76936SOL    HW242534   6.668  10.291   4.527 -0.3367 -1.1477 -0.0911
76937SOL     OW42535   4.950   7.401  12.135 -0.5987  0.3362 -0.1493
76937SOL    HW142536   4.909   7.396  12.222  1.3835 -1.0437  0.7747
76937SOL    HW242537   5.032   7.447  12.150 -0.7951  1.1982 -1.5696
76938SOL     OW42538   0.032   8.464  10.843  0.4191  0.8053 -0.3898
76938SOL    HW142539  -0.022   8.528  10.890  0.5466 -0.5391  1.6954
76938SOL    HW242540   0.106   8.448  10.901  1.4721  0.2690 -1.8175
76939SOL     OW42541   9.373   1.981   3.148 -0.0185 -0.2684 -0.8248
76939SOL    HW142542   9.368   1.892   3.113 -1.2636  0.1581 -1.8150
76939SOL    HW242543   9.390   1.969   3.242  1.2580 -1.4983 -1.1854
76940SOL     OW42544   8.658   1.265  12.963  0.0277  0.2391 -0.5143
76940SOL    HW142545   8.736   1.263  12.908  0.1325 -1.4961 -0.3462
76940SOL    HW242546   8.680   1.327  13.033  0.8093  0.6266 -1.0893
76941SOL     OW42547   1.112   3.298  13.288  0.1664 -0.4350  0.0464
76941SOL    HW142548   1.124   3.205  13.268  1.3831 -0.7430  1.8742
76941SOL    HW242549   1.201   3.331  13.303 -0.1344  1.3421 -1.6577
76942SOL     OW42550   1.010  10.965   2.234  0.3371  0.1522 -0.1532
76942SOL    HW142551   1.045  10.995   2.317 -1.6383  0.4383  0.6335
76942SOL    HW242552   1.079  10.910   2.197  1.7600  1.0663  1.0426
76943SOL     OW42553   5.393   9.752   5.555  0.3712  0.1386 -0.0963
76943SOL    HW142554   5.449   9.710   5.621  0.6918 -0.4449 -0.7277
76943SOL    HW242555   5.453   9.804   5.502  0.1487  0.4054 -0.0908
76944SOL     OW42556   2.921  13.171   1.177  0.5483  0.1663  0.3529
76944SOL    HW142557   2.873  13.250   1.200 -1.7419 -0.3874 -1.9405
76944SOL    HW242558   2.921  13.170   1.081  1.9887 -1.7706  0.2948
76945SOL     OW42559  10.418   5.418   5.580 -0.3242 -0.4562  0.0941
76945SOL    HW142560  10.362   5.480   5.626 -0.5645 -0.7872  0.2525
76945SOL    HW242561  10.384   5.417   5.490  0.7660  0.9349 -0.3697
76946SOL     OW42562   4.172  10.643   6.732  0.0690 -0.5035 -0.2312
76946SOL    HW142563   4.191  10.549   6.738  0.6058 -0.3862 -0.0802
76946SOL    HW242564   4.082  10.650   6.762 -0.1637 -1.0413 -0.7730
76947SOL     OW42565   9.368  11.557   8.341 -0.3294  0.6715  0.3308
76947SOL    HW142566   9.293  11.515   8.299  0.4449 -0.1744 -0.2275
76947SOL    HW242567   9.331  11.599   8.419 -1.4001  0.3814 -0.0010
76948SOL     OW42568   4.390  11.336   8.084 -0.0212  0.6039 -0.1162
76948SOL    HW142569   4.329  11.342   8.158 -0.7939 -0.3953 -0.6477
76948SOL    HW242570   4.471  11.375   8.116 -0.3776  0.2772  1.2215
76949SOL     OW42571  12.229   1.243  10.653  0.4009  0.3313 -0.2349
76949SOL    HW142572  12.230   1.217  10.745  2.5731 -1.4219 -0.6830
76949SOL    HW242573  12.150   1.202  10.617  0.3491 -0.2239  0.4913
76950SOL     OW42574   0.580   5.026   0.736  0.0470  0.1404  0.5464
76950SOL    HW142575   0.550   5.100   0.789  1.5855  1.2272 -0.0136
76950SOL    HW242576   0.559   5.051   0.646 -1.5514 -1.1993  0.5077
76951SOL     OW42577  13.222   7.768   9.164 -0.0333 -0.2347 -0.2636
76951SOL    HW142578  13.248   7.792   9.253  0.4465 -0.7097 -0.2758
76951SOL    HW242579  13.291   7.709   9.133  0.0952  0.3597 -1.1570
76952SOL     OW42580   3.948   0.166  11.751 -0.1917 -0.2701 -0.1427
76952SOL    HW142581   3.960   0.157  11.657  1.9077 -0.9542  0.1291
76952SOL    HW242582   3.945   0.260  11.767 -1.1178 -0.1580 -0.9370
76953SOL     OW42583  10.496   7.655   2.607 -0.4344  0.0283 -0.2064
76953SOL    HW142584  10.553   7.665   2.683 -1.9540  1.9656  0.7498
76953SOL    HW242585  10.444   7.577   2.625 -1.1176  0.7400  1.0110
76954SOL     OW42586   0.147   9.453   4.033 -0.1103  0.1344  0.3691
76954SOL    HW142587   0.170   9.422   3.946 -0.5120  1.3586 -0.1921
76954SOL    HW242588   0.064   9.409   4.052 -0.6962  0.8642 -0.4311
76955SOL     OW42589   0.778   9.647  12.404 -0.0202  0.3883 -0.5074
76955SOL    HW142590   0.868   9.633  12.375  0.3125  1.1465  0.1073
76955SOL    HW242591   0.773   9.603  12.489  0.0351  1.0870 -0.1379
76956SOL     OW42592  11.101   7.763   5.602  0.1170  0.0881  0.3870
76956SOL    HW142593  11.039   7.810   5.546  0.9218  0.6485 -0.0613
76956SOL    HW242594  11.100   7.812   5.684  1.2478  1.1778 -0.2109
76957SOL     OW42595  11.835   2.956   6.094 -0.5690 -0.5733 -0.0969
76957SOL    HW142596  11.915   3.007   6.083 -0.9041 -0.3966 -2.2318
76957SOL    HW242597  11.807   2.974   6.183 -0.0755  2.1410 -0.4066
76958SOL     OW42598  11.883  12.768   3.786  0.2043 -0.0799  0.1271
76958SOL    HW142599  11.839  12.695   3.744  2.3456 -0.8199 -1.0129
76958SOL    HW242600  11.935  12.728   3.856 -0.2860  0.6601  0.9387
76959SOL     OW42601   4.832  11.161  11.271 -0.3308 -0.6806 -0.3232
76959SOL    HW142602   4.756  11.215  11.293 -0.5113 -0.4354 -1.4836
76959SOL    HW242603   4.807  11.116  11.191  0.9983 -0.0684 -1.1119
76960SOL     OW42604  11.198   0.399  13.614  0.1989 -0.2840 -0.2650
76960SOL    HW142605  11.153   0.315  13.617  0.2565 -0.2887  1.1973
76960SOL    HW242606  11.183   0.431  13.525 -1.0060 -1.1929 -0.4184
76961SOL     OW42607   4.796   9.598   4.357 -0.4838 -0.4803 -0.2409
76961SOL    HW142608   4.789   9.510   4.319 -1.3352 -1.2103  1.4694
76961SOL    HW242609   4.886   9.625   4.340 -0.7272 -0.8984 -2.4050
76962SOL     OW42610   6.642  13.002   9.682 -0.8164  0.1292  0.2176
76962SOL    HW142611   6.641  13.085   9.730  2.0101  0.8379 -0.7283
76962SOL    HW242612   6.566  13.008   9.624 -0.7082  2.0817  0.1881
76963SOL     OW42613  13.082   4.506  10.733 -0.0493  0.3384  0.0428
76963SOL    HW142614  12.991   4.538  10.735  0.3390  1.4710  0.2699
76963SOL    HW242615  13.135   4.586  10.727  0.9198 -0.3422 -0.6477
76964SOL     OW42616   8.996  12.951  10.548  0.2120 -0.0624 -0.1573
76964SOL    HW142617   8.999  12.992  10.634 -1.6082 -0.4856  0.1597
76964SOL    HW242618   8.954  12.867  10.562  1.2630 -0.8005 -1.2483
76965SOL     OW42619   4.538   8.067  12.988  0.3470  0.4032 -0.0920
76965SOL    HW142620   4.490   8.136  13.033  1.0530  0.5223  0.4966
76965SOL    HW242621   4.527   8.087  12.895 -1.7419 -0.2627 -0.0364
76966SOL     OW42622  10.340   4.750   2.260  0.0542 -0.5620 -0.2512
76966SOL    HW142623  10.328   4.813   2.331  0.9717  0.0608 -0.6287
76966SOL    HW242624  10.420   4.778   2.217  1.0594 -2.5865  0.1919
76967SOL     OW42625  10.915  10.692   3.154 -0.1289  0.7617  0.0390
76967SOL    HW142626  10.956  10.749   3.219  0.0387 -0.7139  1.2835
76967SOL    HW242627  10.985  10.633   3.126 -0.4981  0.6185 -0.5945
76968SOL     OW42628  10.679   0.630   3.124  0.8479 -0.1042 -0.9218
76968SOL    HW142629  10.670   0.720   3.093  0.3551  0.0214 -0.4177
76968SOL    HW242630  10.624   0.579   3.065 -0.5676  0.2158  0.0855
76969SOL     OW42631   8.381  10.640  10.892  0.0498 -0.0979 -0.3146
76969SOL    HW142632   8.459  10.682  10.855  0.5794 -0.5908  0.2193
76969SOL    HW242633   8.324  10.626  10.817  1.3336 -1.5965 -1.0816
76970SOL     OW42634   3.732  13.725   6.364 -0.3019  0.5996 -0.2229
76970SOL    HW142635   3.703  13.663   6.297 -1.1632  1.0857 -0.3269
76970SOL    HW242636   3.701  13.688   6.446  1.3326 -0.3304 -0.0003
76971SOL     OW42637  12.189  12.184   5.652  0.4031 -0.0434 -0.0641
76971SOL    HW142638  12.116  12.188   5.590  1.0172  0.3041 -0.7819
76971SOL    HW242639  12.210  12.275   5.670  2.3808 -0.0445 -1.9653
76972SOL     OW42640   5.004   2.035   6.721  0.0690  0.1028  0.2928
76972SOL    HW142641   4.916   2.004   6.698  0.9312 -2.5762  0.2897
76972SOL    HW242642   4.989   2.114   6.773 -2.4700 -1.3360  1.9618
76973SOL     OW42643   3.622   8.697   7.812  0.0050  0.0446  0.1172
76973SOL    HW142644   3.668   8.683   7.894  2.2494  1.4303 -0.7974
76973SOL    HW242645   3.677   8.655   7.746 -1.4719 -0.5730 -0.7668
76974SOL     OW42646   2.159   3.800   2.168  0.0609 -0.3591 -0.0371
76974SOL    HW142647   2.218   3.738   2.126 -0.3300 -1.0437  0.4064
76974SOL    HW242648   2.110   3.748   2.231  0.1968  0.5345  0.8224
76975SOL     OW42649   3.025   1.582   5.742  0.4572  0.0382 -0.5789
76975SOL    HW142650   3.082   1.518   5.785  1.4865  1.7415  0.6951
76975SOL    HW242651   3.083   1.633   5.686 -0.0959  0.7734 -0.4945
76976SOL     OW42652   6.896   9.278   5.580 -0.0392 -0.8699 -0.0312
76976SOL    HW142653   6.851   9.322   5.508 -0.5678  0.4734  1.0708
76976SOL    HW242654   6.831   9.218   5.616 -0.1645 -0.6562  0.0950
76977SOL     OW42655  13.423  10.819   2.125  0.4160 -0.0981  0.0771
76977SOL    HW142656  13.384  10.837   2.210 -0.1324  0.7395 -0.3350
76977SOL    HW242657  13.517  10.829   2.139  0.4380 -1.2448  0.8710
76978SOL     OW42658  13.553   4.175   8.388  0.1691  0.2322 -0.6439
76978SOL    HW142659  13.515   4.088   8.399  2.4540 -0.5112  2.7419
76978SOL    HW242660  13.526   4.223   8.466  1.8558  1.3588 -0.7090
76979SOL     OW42661   8.715   1.889   3.390  0.0849 -0.8047  0.3438
76979SOL    HW142662   8.719   1.932   3.475 -0.2163 -2.7979  1.4185
76979SOL    HW242663   8.621   1.882   3.371  0.0599 -2.1312  0.8347
76980SOL     OW42664   2.783  12.636   8.269  0.4091 -0.4835  0.0442
76980SOL    HW142665   2.854  12.591   8.223 -1.4784 -1.2069 -2.3515
76980SOL    HW242666   2.703  12.599   8.232 -1.2772  0.1965  2.7311
76981SOL     OW42667   3.202   6.604   8.461  0.5478 -0.1604  0.0368
76981SOL    HW142668   3.168   6.680   8.508  0.7348 -0.4297  0.6139
76981SOL    HW242669   3.253   6.641   8.389 -0.5779  0.2538 -0.5874
76982SOL     OW42670   3.795   8.440   8.650 -0.2217  0.2118 -0.5626
76982SOL    HW142671   3.888   8.436   8.629 -0.1156  0.7561 -0.2279
76982SOL    HW242672   3.769   8.349   8.665  0.6188  0.1868  0.8655
76983SOL     OW42673   7.366   7.743   9.935  0.3442  0.4968  0.0845
76983SOL    HW142674   7.296   7.677   9.937  1.0135 -0.3773 -2.2190
76983SOL    HW242675   7.334   7.810   9.874  1.0750  0.6032 -0.1911
76984SOL     OW42676  12.397   8.994   3.445 -0.3703  0.2994 -0.2443
76984SOL    HW142677  12.358   9.064   3.394 -1.6542  0.1611  0.4964
76984SOL    HW242678  12.448   8.943   3.382  0.4529  1.7791 -0.8150
76985SOL     OW42679  11.973  11.669   3.087  0.2966 -0.0455 -0.1879
76985SOL    HW142680  12.043  11.604   3.077 -0.1109 -0.3934 -0.8029
76985SOL    HW242681  12.001  11.744   3.034  1.4912  0.9281  1.6771
76986SOL     OW42682   2.651   2.368   5.452 -0.3506 -0.7684  0.7764
76986SOL    HW142683   2.658   2.307   5.379 -0.4707 -2.6307  2.2405
76986SOL    HW242684   2.713   2.439   5.431  0.2096 -1.6528 -0.7075
76987SOL     OW42685   3.865   5.140   9.156 -0.8973  0.3654  0.2190
76987SOL    HW142686   3.776   5.123   9.186 -0.6433 -1.9341 -0.1996
76987SOL    HW242687   3.869   5.101   9.069  1.0725 -1.3899  1.0243
76988SOL     OW42688   2.468  11.395  12.131  0.2368  0.3933 -0.2139
76988SOL    HW142689   2.474  11.459  12.202  0.9460 -0.5792  0.6319
76988SOL    HW242690   2.390  11.421  12.081 -0.4782  0.8929  1.1222
76989SOL     OW42691   0.350   8.975  13.667  0.0795  0.1712  0.3425
76989SOL    HW142692   0.376   8.912  13.599 -1.3791 -0.6201  0.4789
76989SOL    HW242693   0.387   9.058  13.637 -0.1477 -0.2378 -1.2025
76990SOL     OW42694   2.065  13.206  12.912  0.4403 -0.0197  0.4032
76990SOL    HW142695   1.974  13.231  12.933 -0.1378 -0.4849 -1.4072
76990SOL    HW242696   2.113  13.288  12.913 -0.1448  0.3295  0.6573
76991SOL     OW42697   4.748  12.993   8.771 -0.2783  0.6958 -0.1263
76991SOL    HW142698   4.835  12.999   8.811  0.4174 -0.0659 -1.4531
76991SOL    HW242699   4.688  12.984   8.845  0.7372  1.4620  0.8295
76992SOL     OW42700  10.779  12.004   8.407  0.6222 -0.2667  0.1677
76992SOL    HW142701  10.713  12.058   8.364 -0.7185 -1.3117  0.8312
76992SOL    HW242702  10.810  11.945   8.339  0.9109  0.2488 -0.1541
76993SOL     OW42703  10.584   1.581   6.822  0.0226  0.6513  0.1906
76993SOL    HW142704  10.586   1.537   6.737 -1.9177  0.4116  0.2304
76993SOL    HW242705  10.674   1.573   6.855  1.0687  1.5857 -2.2190
76994SOL     OW42706  12.676   0.796   3.647  0.2684 -0.7141  0.2930
76994SOL    HW142707  12.748   0.860   3.647  0.9541 -1.4605  0.7274
76994SOL    HW242708  12.643   0.798   3.737  0.0212 -0.6710  0.2007
76995SOL     OW42709   0.632  12.739   9.615 -0.3771 -0.2450  0.2863
76995SOL    HW142710   0.707  12.681   9.627 -0.1715 -0.3124 -1.1763
76995SOL    HW242711   0.670  12.827   9.617 -0.2324 -0.2803 -0.4984
76996SOL     OW42712   0.295   8.336  13.171 -0.0005  0.3684 -0.0402
76996SOL    HW142713   0.303   8.337  13.075 -1.2388  2.1609 -0.1782
76996SOL    HW242714   0.232   8.405  13.190  0.1607 -0.0124  2.0904
76997SOL     OW42715   9.401   4.873  12.642 -0.3617 -0.1835 -0.0792
76997SOL    HW142716   9.424   4.923  12.564  2.3239  1.0856  1.4163
76997SOL    HW242717   9.306   4.881  12.648 -0.3705  1.7796 -1.8431
76998SOL     OW42718  11.156   9.704   9.022  0.5727 -0.4194 -0.1702
76998SOL    HW142719  11.174   9.758   9.099  0.1796 -0.6573  0.0915
76998SOL    HW242720  11.122   9.622   9.058  0.4840 -0.5683 -0.5944
76999SOL     OW42721   2.481  13.324   0.324 -0.3602  0.6144 -0.4142
76999SOL    HW142722   2.453  13.415   0.338 -0.6918  0.3399  0.8142
76999SOL    HW242723   2.564  13.317   0.371  0.4668  0.6920 -1.8179
77000SOL     OW42724   3.244  11.022   4.900  0.4782  0.0723 -0.0994
77000SOL    HW142725   3.211  10.935   4.881 -1.7081  0.4098  1.6468
77000SOL    HW242726   3.204  11.045   4.984  1.3699  2.5656 -0.2551
77001SOL     OW42727  11.767   9.008  12.638 -0.4228  0.1393  0.0589
77001SOL    HW142728  11.838   9.018  12.574  0.8024 -0.5270  1.2540
77001SOL    HW242729  11.699   8.960  12.590  0.6015 -0.6504 -0.6745
77002SOL     OW42730   6.552   1.375   1.246 -0.7082  0.1655 -0.1588
77002SOL    HW142731   6.573   1.446   1.307 -1.4747 -1.5269  2.2255
77002SOL    HW242732   6.467   1.342   1.276 -0.1720 -2.0348 -0.8572
77003SOL     OW42733  10.910   6.575   5.920 -0.2565  0.0251  0.0988
77003SOL    HW142734  10.971   6.505   5.945  0.2658  0.5236  0.2350
77003SOL    HW242735  10.887   6.555   5.829 -0.8941 -0.8777  0.4427
77004SOL     OW42736   6.525   1.742   9.248  0.6409  0.4743  0.2920
77004SOL    HW142737   6.549   1.804   9.179  1.2917 -0.2507 -0.1480
77004SOL    HW242738   6.460   1.789   9.300  0.2630  1.1038 -0.7072
77005SOL     OW42739   6.367   4.609   1.364  0.2181 -0.3885  0.2136
77005SOL    HW142740   6.279   4.572   1.365  0.6181 -1.3757  0.9214
77005SOL    HW242741   6.357   4.695   1.405 -0.7209  0.3132 -1.4029
77006SOL     OW42742  13.043   4.735   6.345  0.3872 -0.1809 -0.7605
77006SOL    HW142743  13.080   4.801   6.404 -0.1758  3.1022 -3.7191
77006SOL    HW242744  13.100   4.659   6.356  2.2004  1.3530  1.6506
77007SOL     OW42745  11.407  11.995   2.804  0.0079 -0.0943 -0.4526
77007SOL    HW142746  11.357  11.985   2.885  0.7960 -0.2143  0.0231
77007SOL    HW242747  11.495  12.021   2.832  0.3342 -0.2945 -1.2604
77008SOL     OW42748   3.028  13.208   2.482 -0.3203 -0.5992  0.2454
77008SOL    HW142749   2.972  13.151   2.428  1.3266 -1.2501 -0.8484
77008SOL    HW242750   3.069  13.148   2.544  2.4670 -1.0084 -1.7650
77009SOL     OW42751  10.116   8.213  13.667  0.4728  0.6245 -0.1226
77009SOL    HW142752  10.205   8.177  13.670  0.0275 -0.5093  1.6052
77009SOL    HW242753  10.127   8.307  13.681  1.3377  0.2041  2.7033
77010SOL     OW42754  12.314   5.576  11.294 -0.1160  0.3303 -0.4669
77010SOL    HW142755  12.346   5.647  11.239  1.5026  1.0052  1.2101
77010SOL    HW242756  12.369   5.580  11.373 -1.7500 -1.0965  0.8443
77011SOL     OW42757  11.925   1.205   6.452  0.5878  0.0046 -0.6710
77011SOL    HW142758  11.918   1.152   6.372  0.9526  0.9444 -1.3315
77011SOL    HW242759  11.999   1.263   6.436  1.9797 -1.1622  1.1708
77012SOL     OW42760   5.962   8.785   9.577 -0.4347  0.3153  0.3347
77012SOL    HW142761   5.962   8.832   9.660 -1.5062  1.0415 -0.0594
77012SOL    HW242762   5.881   8.812   9.533 -0.4871 -0.9634 -0.4338
77013SOL     OW42763   2.045  11.597  12.365 -0.3548 -0.4430 -0.4390
77013SOL    HW142764   1.952  11.596  12.388 -0.4567  2.6233 -0.3139
77013SOL    HW242765   2.090  11.601  12.450 -0.3558  2.0736 -0.4885
77014SOL     OW42766   1.002   4.681   3.809 -0.4690 -0.6264  0.3721
77014SOL    HW142767   0.957   4.625   3.745  0.4968 -0.4867 -0.4654
77014SOL    HW242768   1.092   4.685   3.777 -0.2158  0.3355  1.1634
77015SOL     OW42769  12.453  13.646  13.260 -0.0453 -0.3667  0.4422
77015SOL    HW142770  12.507  13.714  13.301 -0.1850  0.2036 -0.3002
77015SOL    HW242771  12.365  13.684  13.255 -0.0064 -0.3648 -0.4853
77016SOL     OW42772  10.991   2.252  12.216  0.2626 -0.5841  0.0401
77016SOL    HW142773  10.927   2.312  12.177 -1.0004 -0.5608  1.9993
77016SOL    HW242774  11.064   2.309  12.241  0.2766 -0.3174 -0.5818
77017SOL     OW42775  11.738   5.989   9.374  0.0986  0.3879  0.4147
77017SOL    HW142776  11.715   5.915   9.317 -1.6243  0.2397  1.2289
77017SOL    HW242777  11.704   6.066   9.328 -0.3244  0.3816  0.7046
77018SOL     OW42778   4.022   0.138   0.516 -0.0130  0.4920  0.2483
77018SOL    HW142779   3.996   0.142   0.424 -0.5591 -1.0601  0.3148
77018SOL    HW242780   3.943   0.109   0.562  0.4798  0.4879  1.1114
77019SOL     OW42781   4.794   9.462  10.539 -0.1253  0.7595  0.1325
77019SOL    HW142782   4.726   9.404  10.504  0.4320  0.4135 -0.3992
77019SOL    HW242783   4.844   9.489  10.461 -0.0050  1.4678  0.4468
77020SOL     OW42784  12.505   3.501  11.759  0.2440 -0.1199  0.3277
77020SOL    HW142785  12.569   3.443  11.716  1.2775 -0.0248  1.6896
77020SOL    HW242786  12.524   3.493  11.852 -1.1692  0.6108  0.7014
77021SOL     OW42787  10.794  11.797   6.778 -0.1182  0.2540 -0.1551
77021SOL    HW142788  10.852  11.847   6.721  0.0978  1.2555  0.8945
77021SOL    HW242789  10.837  11.799   6.864 -0.7147 -0.7130  0.1829
77022SOL     OW42790   3.509  12.943  12.102 -0.7229 -0.0886  0.0129
77022SOL    HW142791   3.545  12.867  12.148  1.2151  0.4030 -0.6068
77022SOL    HW242792   3.528  12.926  12.010 -0.8904  0.8370 -0.1947
77023SOL     OW42793   8.578   3.270   8.239  0.2634 -0.4830  0.2616
77023SOL    HW142794   8.518   3.328   8.193 -2.5282 -3.5263 -0.2813
77023SOL    HW242795   8.563   3.288   8.332  0.0521  0.2009  0.0991
77024SOL     OW42796   3.313   1.170   3.673  0.0149  0.0583  0.7256
77024SOL    HW142797   3.255   1.122   3.613  0.7487  0.3049 -0.2072
77024SOL    HW242798   3.395   1.122   3.669  0.2820  0.4919  0.9932
77025SOL     OW42799   5.423   1.946   0.759 -0.2942  0.4265  0.0231
77025SOL    HW142800   5.365   1.925   0.832  1.4108 -1.2652  1.0271
77025SOL    HW242801   5.410   1.874   0.697 -0.0480  0.6002 -0.2324
77026SOL     OW42802  11.265   1.411   5.904  0.5285  0.1577 -0.0481
77026SOL    HW142803  11.184   1.402   5.954  2.1663 -2.8415  2.4039
77026SOL    HW242804  11.295   1.500   5.922 -1.8169  1.1124 -0.5203
77027SOL     OW42805  12.860   5.082  13.417  0.8264  0.3100  0.0345
77027SOL    HW142806  12.765   5.081  13.405  0.9534  0.1587 -1.1230
77027SOL    HW242807  12.881   4.997  13.454  0.3494  0.9497  1.8617
77028SOL     OW42808   5.702   9.296   6.194  0.3147 -0.4075  0.1908
77028SOL    HW142809   5.778   9.343   6.228  0.4835 -1.3926  1.2499
77028SOL    HW242810   5.628   9.352   6.213  0.6663  0.1293  0.0137
77029SOL     OW42811   1.921  10.758   2.640  0.5055  0.2281 -0.3106
77029SOL    HW142812   1.883  10.707   2.568  0.8940 -0.3326 -0.1267
77029SOL    HW242813   1.853  10.821   2.664 -0.0080 -0.2554 -0.4932
77030SOL     OW42814   1.860   4.289  12.280  0.3911  0.0580  0.1722
77030SOL    HW142815   1.939   4.340  12.263  0.6664  0.4372  2.3429
77030SOL    HW242816   1.788   4.352  12.269  0.5753  0.3537  0.6405
77031SOL     OW42817  12.405   0.023   0.692  0.3160  0.1984 -0.7146
77031SOL    HW142818  12.378   0.073   0.615 -0.3025  0.1183 -0.5502
77031SOL    HW242819  12.498   0.005   0.677  0.8853  2.4269 -0.2140
77032SOL     OW42820   6.832   0.257   3.067  0.2297 -0.3650 -0.3928
77032SOL    HW142821   6.737   0.244   3.074  0.1119  0.1291 -1.0346
77032SOL    HW242822   6.845   0.351   3.077  0.6479 -0.4256 -0.3505
77033SOL     OW42823   2.018  11.525   8.208  0.8621  0.3671  0.3292
77033SOL    HW142824   1.979  11.544   8.122  1.4400 -0.2397 -0.0780
77033SOL    HW242825   2.095  11.582   8.211 -0.0474  1.6086  1.1557
77034SOL     OW42826  13.531   1.987   1.434 -0.2146 -0.1977  0.6312
77034SOL    HW142827  13.517   2.022   1.346 -0.0597  0.6026  0.9128
77034SOL    HW242828  13.468   1.916   1.442 -1.4951  0.8906  0.5153
77035SOL     OW42829   4.366   0.788   1.054  0.3894  0.4600 -0.0715
77035SOL    HW142830   4.313   0.765   0.978  1.6908 -0.6436 -0.6814
77035SOL    HW242831   4.416   0.709   1.073 -0.5081  0.4145  2.4826
77036SOL     OW42832   4.294   3.911   6.040 -0.2138  0.0250  0.1093
77036SOL    HW142833   4.364   3.898   6.103 -1.1255  0.4155  1.2350
77036SOL    HW242834   4.234   3.838   6.053 -0.0242 -0.3230 -0.8584
77037SOL     OW42835   7.630   8.260  13.567  0.0988 -0.1154 -0.6732
77037SOL    HW142836   7.641   8.222  13.655 -0.6211  1.8826  0.3402
77037SOL    HW242837   7.714   8.247  13.524  1.6822  1.9239  1.5894
77038SOL     OW42838   5.468   9.292   3.956  0.9242 -0.0770 -0.2198
77038SOL    HW142839   5.399   9.270   3.894  0.0466 -0.8733  0.9803
77038SOL    HW242840   5.506   9.207   3.981 -0.1514 -0.0065  1.8631
77039SOL     OW42841   5.880   7.621   7.792 -0.0996 -0.5476  0.4301
77039SOL    HW142842   5.826   7.547   7.820  0.6323 -1.1485  0.2826
77039SOL    HW242843   5.880   7.616   7.697 -0.6402  0.0907  0.3816
77040SOL     OW42844  11.086   1.481   9.520 -0.3423  0.3038  0.5054
77040SOL    HW142845  11.101   1.402   9.468 -0.0621  0.6324  0.0837
77040SOL    HW242846  11.173   1.512   9.543 -0.4469 -0.7810  2.6446
77041SOL     OW42847   7.158   1.259   2.043  0.4876 -0.2105 -0.8575
77041SOL    HW142848   7.122   1.173   2.019  0.6173 -0.9734  1.4376
77041SOL    HW242849   7.246   1.260   2.005  0.1029 -0.6424 -1.7867
77042SOL     OW42850   0.404   6.941  13.549 -0.6425 -0.1053  0.5994
77042SOL    HW142851   0.378   7.033  13.551 -1.4920 -0.2903 -0.7646
77042SOL    HW242852   0.347   6.898  13.613  1.9933  0.7624  3.8312
77043SOL     OW42853  12.158   0.556   9.003  0.2254 -0.6522 -0.1524
77043SOL    HW142854  12.216   0.584   8.932  0.5197 -1.7709 -0.3728
77043SOL    HW242855  12.071   0.582   8.974  0.1497 -2.4324 -1.6593
77044SOL     OW42856   0.504   1.831   9.172 -0.6531  0.8814  0.1635
77044SOL    HW142857   0.571   1.862   9.110  0.0133 -2.7583 -1.1788
77044SOL    HW242858   0.545   1.840   9.258  0.0961  2.0133 -0.2763
77045SOL     OW42859   1.815  13.547  13.228  0.5286 -0.0400 -0.0222
77045SOL    HW142860   1.864  13.629  13.239 -2.1525  1.5757  0.9508
77045SOL    HW242861   1.793  13.545  13.135  2.6055 -0.9838 -0.5551
77046SOL     OW42862  10.878   9.424   1.179  0.5689 -0.5544 -0.0103
77046SOL    HW142863  10.833   9.341   1.163  1.0433 -0.8674  0.2423
77046SOL    HW242864  10.961   9.399   1.220  0.7703  0.0388 -0.0393
77047SOL     OW42865  10.071   5.889  12.273 -0.1140  0.3608 -0.3930
77047SOL    HW142866  10.013   5.963  12.257 -1.2170  0.2692  2.6474
77047SOL    HW242867  10.146   5.926  12.320  0.2376 -0.1826 -0.5155
77048SOL     OW42868  12.789   8.686   6.081  0.2407  0.1249  0.4009
77048SOL    HW142869  12.795   8.610   6.023  0.6415 -0.5766  1.3522
77048SOL    HW242870  12.701   8.681   6.118  0.0109  0.5323 -0.0749
77049SOL     OW42871   0.700   6.272   1.067 -0.6438 -0.0998  0.5831
77049SOL    HW142872   0.756   6.272   1.145 -0.0049  0.4438  0.1343
77049SOL    HW242873   0.640   6.199   1.081 -0.8006  0.2337  1.7662
77050SOL     OW42874   5.402   8.039  12.589 -0.3401  0.4570  0.1788
77050SOL    HW142875   5.431   8.113  12.643  0.1564 -1.6348  2.9595
77050SOL    HW242876   5.308   8.032  12.606 -0.2360 -0.0287  0.5680
77051SOL     OW42877   0.325   0.877   2.297  0.0440 -0.2453  0.2310
77051SOL    HW142878   0.384   0.886   2.222 -1.0649 -0.7152 -0.7396
77051SOL    HW242879   0.324   0.783   2.316 -2.3939 -0.6654 -1.5180
77052SOL     OW42880   5.284   7.315   6.572 -0.1007 -0.1241  0.0774
77052SOL    HW142881   5.290   7.377   6.499 -0.0622 -0.1612  0.0492
77052SOL    HW242882   5.261   7.232   6.530  3.2553 -0.9856 -0.3323
77053SOL     OW42883   9.001   5.346   1.097 -0.4113  0.4637 -0.0257
77053SOL    HW142884   9.054   5.364   1.019  1.6429 -0.6654  1.0430
77053SOL    HW242885   8.969   5.432   1.124  2.1684  1.4857  0.1256
77054SOL     OW42886   8.157   6.942   2.847  0.2321  0.2213  0.3006
77054SOL    HW142887   8.144   7.036   2.838  0.6764  0.1430 -1.4075
77054SOL    HW242888   8.224   6.934   2.914  0.5894  1.1456  0.0682
77055SOL     OW42889   9.101  10.844   0.930 -0.6009 -0.2640  0.0694
77055SOL    HW142890   9.086  10.830   0.836  1.3998 -0.0243 -0.3313
77055SOL    HW242891   9.058  10.928   0.948 -0.3133  0.0850 -0.8242
77056SOL     OW42892   0.747   9.338  13.427  0.2828 -0.9866 -0.3369
77056SOL    HW142893   0.716   9.323  13.338 -1.8164  4.0697 -0.8278
77056SOL    HW242894   0.831   9.383  13.416  0.2936 -0.8497  0.2646
77057SOL     OW42895   1.880   4.138  11.444  0.0535 -0.7081 -0.0591
77057SOL    HW142896   1.853   4.049  11.421  0.9173 -0.9638 -0.1075
77057SOL    HW242897   1.800   4.190  11.434 -0.0388 -1.1140 -1.9384
77058SOL     OW42898   9.100   3.435   5.792 -0.1364  0.5312 -0.3300
77058SOL    HW142899   9.009   3.457   5.814  0.0664 -0.4586  1.7901
77058SOL    HW242900   9.152   3.476   5.861  0.7422 -1.3482  0.1918
77059SOL     OW42901   1.450   9.326   6.170  0.5706  0.0585  0.0361
77059SOL    HW142902   1.465   9.315   6.076 -0.5822  0.3857 -0.2093
77059SOL    HW242903   1.387   9.258   6.192 -3.4724  3.1803 -0.6609
77060SOL     OW42904  10.365  11.050  10.568  0.3182 -0.0084  0.3760
77060SOL    HW142905  10.321  11.127  10.533 -0.6107  0.9795  3.4655
77060SOL    HW242906  10.410  11.081  10.646  0.8455 -2.3819  1.0985
77061SOL     OW42907  12.834  10.366  13.380 -0.4599  0.0860 -0.2936
77061SOL    HW142908  12.843  10.281  13.338 -1.6860 -0.9550  1.4172
77061SOL    HW242909  12.746  10.366  13.417 -0.0107  1.5594  0.9063
77062SOL     OW42910   1.749   0.998  11.780  0.3509  0.9056 -0.1758
77062SOL    HW142911   1.690   0.923  11.785  0.7553  0.4934 -1.3092
77062SOL    HW242912   1.702   1.062  11.726  0.0999  1.3974  0.6037
77063SOL     OW42913   6.581   2.607  12.717  0.6241 -0.1348 -0.0908
77063SOL    HW142914   6.531   2.683  12.745 -1.9784 -1.9554  0.5860
77063SOL    HW242915   6.653   2.601  12.780 -0.9217  0.0411  1.7960
77064SOL     OW42916  10.715   0.063   1.928  0.2053  0.0032  0.4167
77064SOL    HW142917  10.692   0.094   2.016  1.4879  0.5956  0.5563
77064SOL    HW242918  10.794   0.012   1.940  0.4753  0.2078 -0.4115
77065SOL     OW42919   6.862   6.462   7.650  0.6512 -0.1661 -0.2846
77065SOL    HW142920   6.813   6.541   7.629 -1.2240 -1.3794 -0.7777
77065SOL    HW242921   6.917   6.486   7.724 -1.0579  1.1772  0.6127
77066SOL     OW42922  12.158   9.392   4.373 -0.3702 -0.1862  0.2936
77066SOL    HW142923  12.122   9.331   4.308 -0.4812 -1.4389  1.4858
77066SOL    HW242924  12.249   9.404   4.345 -0.8955  0.7636 -1.1213
77067SOL     OW42925  13.240   7.191  11.962  0.9896  0.1741 -0.4283
77067SOL    HW142926  13.319   7.180  12.015  1.0514 -1.1196 -0.7641
77067SOL    HW242927  13.272   7.222  11.878  1.0385  0.6433 -0.2397
77068SOL     OW42928   3.194   8.558  12.112  0.4203  0.0489 -0.1441
77068SOL    HW142929   3.225   8.646  12.134 -1.3001  1.2781 -2.1538
77068SOL    HW242930   3.257   8.525  12.049  1.7618 -0.7541  1.5413
77069SOL     OW42931   8.046   8.092  13.129 -0.3797 -0.5241  0.3438
77069SOL    HW142932   7.992   8.120  13.055  0.8187 -0.5752 -0.5765
77069SOL    HW242933   8.004   8.012  13.160 -1.8933  0.4052  0.8516
77070SOL     OW42934  11.591   7.793   3.207  0.6446 -0.7272 -0.2385
77070SOL    HW142935  11.669   7.840   3.237  0.9886 -0.7207 -1.1065
77070SOL    HW242936  11.624   7.706   3.182  0.2651 -0.9286 -0.0467
77071SOL     OW42937   6.595  11.625   6.437 -0.0031 -0.3277 -0.1510
77071SOL    HW142938   6.593  11.647   6.344  2.2486 -3.0802 -0.9984
77071SOL    HW242939   6.674  11.668   6.470  0.0350 -0.5909  0.1052
77072SOL     OW42940   8.150  11.702   2.967  0.0935  0.3588 -0.2292
77072SOL    HW142941   8.114  11.714   2.879 -0.7922 -1.7495 -0.2106
77072SOL    HW242942   8.106  11.624   3.001  2.7046 -0.7628  0.8898
77073SOL     OW42943   7.541   1.424   8.268  0.7912 -0.5748  0.2549
77073SOL    HW142944   7.520   1.442   8.360 -1.1526 -2.0607  0.1575
77073SOL    HW242945   7.522   1.506   8.223 -1.3023 -0.7388  0.7617
77074SOL     OW42946   4.818   1.929   5.862 -0.4491  0.2074  0.1108
77074SOL    HW142947   4.788   1.925   5.771  0.0506  0.6315 -0.0810
77074SOL    HW242948   4.753   1.984   5.907 -1.1851 -0.7382  0.2172
77075SOL     OW42949  10.148   7.642   5.440 -0.9473 -0.2242 -0.1604
77075SOL    HW142950  10.168   7.594   5.520 -0.7632 -1.7912 -1.1103
77075SOL    HW242951  10.234   7.667   5.405 -0.8772 -1.6176 -1.0646
77076SOL     OW42952   6.684   6.392   2.501  0.6225 -0.0844 -0.5077
77076SOL    HW142953   6.715   6.456   2.437  0.4930  0.0213 -0.4655
77076SOL    HW242954   6.660   6.445   2.577 -1.6549  0.0654 -1.2675
77077SOL     OW42955  12.516   8.512   2.637  0.3701 -0.0510 -0.6848
77077SOL    HW142956  12.606   8.519   2.605  0.8416  2.5512  0.9020
77077SOL    HW242957  12.503   8.592   2.688 -2.4496 -0.9537  0.1657
77078SOL     OW42958   5.681  11.878   6.302  0.1123 -0.0125 -0.5313
77078SOL    HW142959   5.643  11.793   6.323 -1.1656  0.6934  0.1459
77078SOL    HW242960   5.606  11.938   6.297  0.9749  1.0811 -1.0087
77079SOL     OW42961   8.744   0.252   7.530  0.5018 -0.2299  0.1136
77079SOL    HW142962   8.743   0.158   7.545  1.5279 -0.1906  0.4668
77079SOL    HW242963   8.774   0.290   7.612 -0.2153  0.4366  0.0824
77080SOL     OW42964  12.294   9.976   1.473 -0.0641  0.0010  0.5108
77080SOL    HW142965  12.354   9.982   1.399 -0.1359 -1.1645  0.3452
77080SOL    HW242966  12.221   9.924   1.441 -1.1094  1.2622  0.7691
77081SOL     OW42967  11.430   7.759   7.565 -0.5103 -0.0330  0.2589
77081SOL    HW142968  11.496   7.731   7.629 -0.4724  0.4401  0.4291
77081SOL    HW242969  11.364   7.690   7.568  1.3485 -2.1190 -2.0582
77082SOL     OW42970  10.759   7.227   4.135  0.1404 -0.2214  0.7162
77082SOL    HW142971  10.785   7.186   4.053  0.4222  2.7305 -0.7646
77082SOL    HW242972  10.673   7.189   4.154 -0.2299 -0.4992 -1.2796
77083SOL     OW42973   2.791   3.136   5.742 -0.0045 -0.4034 -0.2114
77083SOL    HW142974   2.773   3.209   5.682  0.4990 -0.4467 -0.4192
77083SOL    HW242975   2.870   3.163   5.789  0.4908 -1.0364 -0.6583
77084SOL     OW42976   0.897   0.285  12.821  0.5365 -0.5328 -0.3004
77084SOL    HW142977   0.912   0.379  12.810 -2.7090  0.1265 -0.0646
77084SOL    HW242978   0.914   0.269  12.914 -1.0469  0.3737  0.1912
77085SOL     OW42979   4.859  12.247  13.113 -0.3192  0.5362 -0.5943
77085SOL    HW142980   4.894  12.280  13.030 -1.2919  0.8634 -0.8754
77085SOL    HW242981   4.778  12.295  13.127  0.4726  1.4482  1.2176
77086SOL     OW42982   6.890   2.387   2.445 -0.2798 -0.0198  0.5941
77086SOL    HW142983   6.914   2.475   2.476  1.0561 -0.1877  0.1412
77086SOL    HW242984   6.881   2.335   2.525 -1.2488  0.5645  0.8736
77087SOL     OW42985   7.935   3.621   0.166 -0.1857 -0.0454  0.3621
77087SOL    HW142986   7.854   3.570   0.168 -0.3136  0.1064 -0.3572
77087SOL    HW242987   7.988   3.579   0.098 -0.1698  0.5888 -0.0295
77088SOL     OW42988   9.593   1.758   4.207 -0.6957  0.5953  0.0390
77088SOL    HW142989   9.604   1.829   4.271 -0.1795 -0.4908  1.2125
77088SOL    HW242990   9.515   1.711   4.237  0.2123 -0.6131  0.6036
77089SOL     OW42991   5.524   7.553  13.483  0.0331 -0.4792  0.1961
77089SOL    HW142992   5.498   7.550  13.391 -1.5689 -0.4084  0.6225
77089SOL    HW242993   5.535   7.462  13.508  0.0973 -0.5131  0.0461
77090SOL     OW42994   9.239  13.484  13.154 -0.1554 -0.1900 -0.2705
77090SOL    HW142995   9.300  13.439  13.095 -0.7032  0.7122 -1.5688
77090SOL    HW242996   9.219  13.566  13.109  0.1130  0.9532  1.6292
77091SOL     OW42997   1.079   0.624   4.675  0.5676 -0.0595 -0.1799
77091SOL    HW142998   1.120   0.540   4.695  0.0909 -0.0505  0.9039
77091SOL    HW242999   1.094   0.636   4.581  4.0892  0.5063  0.2834
77092SOL     OW43000   9.263   1.363   7.671  0.1692 -0.0812 -0.2516
77092SOL    HW143001   9.339   1.420   7.681 -1.1374  1.6886  0.3598
77092SOL    HW243002   9.295   1.285   7.627  2.0307  1.2248 -1.3191
77093SOL     OW43003   2.999   0.827   1.163  0.2647 -0.3323 -0.2839
77093SOL    HW143004   2.955   0.907   1.136 -0.6894 -0.2302  1.4466
77093SOL    HW243005   3.045   0.797   1.084 -1.8937  0.2243 -1.8322
77094SOL     OW43006   1.201   5.461   5.083  0.2873 -0.3897  0.0649
77094SOL    HW143007   1.116   5.506   5.077  0.2512 -0.5920 -1.4080
77094SOL    HW243008   1.195   5.391   5.018  1.2160 -1.0559  0.6737
77095SOL     OW43009  11.964  11.650   1.142  0.4810 -0.0411 -0.0731
77095SOL    HW143010  11.877  11.679   1.115  1.0138 -0.5150 -2.4505
77095SOL    HW243011  11.948  11.577   1.201 -0.7300  0.7345  0.5962
77096SOL     OW43012   9.715   7.299   2.034  0.5297 -0.0960  0.2316
77096SOL    HW143013   9.684   7.267   1.949  0.4122 -1.0358  0.6137
77096SOL    HW243014   9.723   7.393   2.023 -0.4830 -0.0833 -0.5089
77097SOL     OW43015  12.780  12.066  13.520  0.0267  0.2976  0.6397
77097SOL    HW143016  12.738  12.148  13.492  1.1358  0.3619 -0.9533
77097SOL    HW243017  12.781  12.012  13.441  1.7311 -0.1921  0.9686
77098SOL     OW43018  12.720  11.526   0.042 -0.1881 -0.2136 -0.1581
77098SOL    HW143019  12.626  11.543   0.044 -0.0453  0.5103  1.2645
77098SOL    HW243020  12.749  11.535   0.133  1.2910 -0.2342 -0.5944
77099SOL     OW43021   7.476  10.073   3.496 -0.1636 -0.4150 -0.5859
77099SOL    HW143022   7.561  10.091   3.456 -0.3140  0.1341 -0.6673
77099SOL    HW243023   7.413  10.107   3.433 -0.3817  1.9366  0.7675
77100SOL     OW43024  12.436   3.077   0.204 -0.1285  0.1711  0.7017
77100SOL    HW143025  12.413   3.151   0.148 -0.7744 -0.0911  0.6132
77100SOL    HW243026  12.405   3.000   0.156  2.1107 -0.3482 -0.0753
77101SOL     OW43027   2.983  12.456   0.860 -0.1109 -0.1900  0.0279
77101SOL    HW143028   2.893  12.429   0.840 -1.0377  0.5776  2.7380
77101SOL    HW243029   2.978  12.552   0.865  0.7747 -0.1681  0.5618
77102SOL     OW43030   1.047   9.692   0.447 -0.1124  0.5408  0.4776
77102SOL    HW143031   1.042   9.606   0.489 -1.5385 -0.3195 -1.3468
77102SOL    HW243032   0.982   9.745   0.494 -2.0427 -0.5528 -0.8313
77103SOL     OW43033   6.301  12.709   3.692  0.1219 -0.1296 -0.3810
77103SOL    HW143034   6.238  12.673   3.754 -0.3159  0.5553 -0.4132
77103SOL    HW243035   6.252  12.717   3.610  0.3023  0.2394 -0.4546
77104SOL     OW43036   7.506   2.594  10.361 -0.7079 -0.8624 -0.0698
77104SOL    HW143037   7.578   2.543  10.398 -1.4797 -0.7363  1.6867
77104SOL    HW243038   7.451   2.617  10.436 -1.0919  1.4376 -0.9759
77105SOL     OW43039  11.229  11.787   9.682  0.6901  0.2939 -0.4331
77105SOL    HW143040  11.303  11.742   9.722  1.9876  2.3536 -0.3628
77105SOL    HW243041  11.167  11.801   9.754  0.8148 -0.2801 -0.2108
77106SOL     OW43042   2.349   2.857  12.343 -0.1797  0.3128 -0.1889
77106SOL    HW143043   2.266   2.849  12.296 -0.5027 -0.6116  0.4932
77106SOL    HW243044   2.333   2.811  12.426  0.1019  2.5408  1.1653
77107SOL     OW43045   5.600   1.396  12.818  0.6339 -0.8767 -0.0712
77107SOL    HW143046   5.651   1.315  12.817  2.8519  0.4256 -1.2527
77107SOL    HW243047   5.666   1.465  12.827 -1.2573  0.7979  2.1297
77108SOL     OW43048   1.520  13.644  10.213  0.1586  0.4985 -0.4546
77108SOL    HW143049   1.543  13.724  10.260  1.3494  0.7442 -1.3878
77108SOL    HW243050   1.498  13.674  10.124 -2.1475  0.0647 -0.0950
77109SOL     OW43051   5.398  12.338   4.017 -0.5688 -0.1717 -0.0311
77109SOL    HW143052   5.362  12.262   4.063  1.9129 -0.6917  1.2580
77109SOL    HW243053   5.476  12.304   3.974 -0.2875  1.3377 -0.7631
77110SOL     OW43054   0.402   9.168   9.509  0.1123 -0.0107 -0.0226
77110SOL    HW143055   0.433   9.256   9.532 -0.5637  1.1278 -3.0029
77110SOL    HW243056   0.478   9.112   9.523  0.7156  1.0957  1.4416
77111SOL     OW43057   5.842   1.379   2.994 -0.6677  0.1800  0.6439
77111SOL    HW143058   5.893   1.436   3.051 -0.4183  1.2398 -0.5814
77111SOL    HW243059   5.811   1.309   3.051  1.4662 -0.0551  1.6181
77112SOL     OW43060   1.997  13.297   6.016  0.2457  0.0857  0.0986
77112SOL    HW143061   2.032  13.374   6.060 -0.0743  1.4204 -1.8243
77112SOL    HW243062   2.046  13.292   5.934 -0.3837 -1.2345 -0.2329
77113SOL     OW43063   3.859  10.346  10.284 -0.0243  0.5043 -0.7208
77113SOL    HW143064   3.775  10.353  10.330  0.5979  1.0936  0.3657
77113SOL    HW243065   3.871  10.252  10.269  0.0254  0.2333  0.8652
77114SOL     OW43066   3.351   9.870   8.859 -0.5754  0.1586 -0.0508
77114SOL    HW143067   3.288   9.819   8.808  0.9225 -0.6110 -1.2156
77114SOL    HW243068   3.327   9.962   8.843 -0.4867 -0.0798 -1.7583
77115SOL     OW43069  13.562   1.058   8.970 -0.6721 -0.4786  0.1659
77115SOL    HW143070  13.654   1.081   8.986 -0.9092  1.8595 -1.2590
77115SOL    HW243071  13.566   0.973   8.926  1.0700  0.5294 -1.8652
77116SOL     OW43072   2.560   2.821   5.485 -0.4423 -0.2354  0.5633
77116SOL    HW143073   2.592   2.772   5.409 -1.3374  0.1748 -0.0895
77116SOL    HW243074   2.513   2.756   5.537 -0.5382 -0.3415  0.3461
77117SOL     OW43075  13.234  12.383   8.281  0.0331  0.3524  0.1894
77117SOL    HW143076  13.148  12.347   8.257 -0.1128  1.4648 -1.0713
77117SOL    HW243077  13.242  12.462   8.228  2.3030 -0.2761 -0.4784
77118SOL     OW43078   7.014   8.936   9.497  0.5188  0.0829 -0.5959
77118SOL    HW143079   6.979   9.019   9.464  0.7373  1.4226  2.2828
77118SOL    HW243080   7.073   8.906   9.427  0.1417  2.1386 -1.8900
77119SOL     OW43081   8.176  11.995  11.283 -0.0648 -0.0965 -0.9252
77119SOL    HW143082   8.245  12.028  11.340 -1.1780  2.5983 -0.9845
77119SOL    HW243083   8.222  11.970  11.202  1.1468 -1.2268  0.0665
77120SOL     OW43084  10.090   8.787  10.018 -0.2949  0.1296  0.5769
77120SOL    HW143085  10.108   8.774  10.112  1.4565  0.2763  0.2975
77120SOL    HW243086  10.055   8.703   9.988  0.6606 -0.4492  1.0379
77121SOL     OW43087   8.927   7.248   6.032 -0.5249  0.2768  0.3296
77121SOL    HW143088   8.871   7.326   6.039 -1.1598 -0.1310 -0.1408
77121SOL    HW243089   8.994   7.272   5.969 -0.7634  0.4156  0.1295
77122SOL     OW43090   3.979  10.901  10.989 -0.2068 -0.5359  0.1490
77122SOL    HW143091   4.051  10.949  10.949 -0.3650 -0.2982  0.1420
77122SOL    HW243092   4.007  10.810  10.990  0.6780 -0.2820  1.3849
77123SOL     OW43093  12.135  10.140  11.657 -0.4297 -0.2490 -0.0563
77123SOL    HW143094  12.080  10.182  11.592  0.0359 -2.4518 -2.0024
77123SOL    HW243095  12.157  10.054  11.619  2.4002 -0.4064  1.6291
77124SOL     OW43096   6.777  11.617  10.486  0.1959 -0.0340  0.2646
77124SOL    HW143097   6.692  11.661  10.491 -0.4787 -1.2530  0.0505
77124SOL    HW243098   6.809  11.637  10.399  1.1846  2.2250  1.0717
77125SOL     OW43099  13.060   9.073   2.560  0.0009 -0.3692 -0.2130
77125SOL    HW143100  13.152   9.099   2.556  0.5542 -2.3798 -3.3060
77125SOL    HW243101  13.048   9.044   2.651  2.6966 -0.8888  0.0736
77126SOL     OW43102  11.670   2.209  12.571 -0.5159 -0.7302 -0.2668
77126SOL    HW143103  11.586   2.223  12.615 -0.9884  0.2671 -1.4548
77126SOL    HW243104  11.735   2.238  12.635 -1.0591 -1.4098  0.6225
77127SOL     OW43105   2.244   8.107   3.384 -0.3190 -0.4548 -0.4295
77127SOL    HW143106   2.218   8.124   3.293  0.1668  0.3731 -0.4264
77127SOL    HW243107   2.337   8.088   3.379  0.1888  1.6089  0.0794
77128SOL     OW43108   4.533   8.018   8.667 -0.4121  0.4124 -0.0761
77128SOL    HW143109   4.445   8.053   8.650 -1.1322  0.1358  2.5960
77128SOL    HW243110   4.578   8.088   8.714  0.2882 -0.0193 -0.0838
77129SOL     OW43111   0.667   8.059  10.279 -0.3221 -0.2753 -0.5349
77129SOL    HW143112   0.591   8.097  10.323  1.0815  1.7182  0.3319
77129SOL    HW243113   0.663   8.097  10.191 -0.3164 -0.1398 -0.4782
77130SOL     OW43114   5.923   0.296   0.555 -0.0712  0.2069 -0.2167
77130SOL    HW143115   5.938   0.333   0.643  1.1863  0.3132 -0.4555
77130SOL    HW243116   5.874   0.215   0.571  0.4397  0.0510  0.6172
77131SOL     OW43117   0.372   7.263   5.961 -0.2376 -0.1309  0.1972
77131SOL    HW143118   0.382   7.315   5.882  1.7841 -1.4667 -0.5008
77131SOL    HW243119   0.437   7.297   6.022  0.3324 -1.0828  0.1421
77132SOL     OW43120   3.967   6.820   6.455 -0.3332 -0.6340 -0.3142
77132SOL    HW143121   4.040   6.758   6.450 -1.5786 -2.1717 -0.2125
77132SOL    HW243122   4.009   6.906   6.464  1.4492 -1.4482 -0.4166
77133SOL     OW43123  11.868  12.570  10.896 -0.0755  0.2180  0.2540
77133SOL    HW143124  11.947  12.568  10.842 -0.7562  1.0137 -0.7942
77133SOL    HW243125  11.839  12.478  10.898  1.2300 -0.2151  1.2445
77134SOL     OW43126   4.902  13.399   4.268  0.1865  0.2452 -0.3561
77134SOL    HW143127   4.891  13.486   4.307  2.4837  0.8331 -0.8569
77134SOL    HW243128   4.888  13.414   4.174 -1.5176 -0.3871 -0.2263
77135SOL     OW43129   1.345   0.955   9.827 -0.0891  0.3653 -0.1115
77135SOL    HW143130   1.335   0.860   9.818 -0.6645  0.5023 -1.0369
77135SOL    HW243131   1.336   0.988   9.738 -0.2860  1.3273  0.2592
77136SOL     OW43132   8.286   7.463  10.343  0.0853 -0.3276 -0.3288
77136SOL    HW143133   8.371   7.427  10.317  0.0332  0.3254 -1.4528
77136SOL    HW243134   8.241   7.482  10.261 -0.9060 -0.0758  0.2520
77137SOL     OW43135   2.763   3.103  13.277 -0.2040  0.1420  0.3877
77137SOL    HW143136   2.836   3.066  13.228  0.4168  1.4681  0.2570
77137SOL    HW243137   2.771   3.198  13.264 -1.7382  0.3406  0.6697
77138SOL     OW43138   7.958   5.523   3.503  0.2806 -0.0551  0.3324
77138SOL    HW143139   7.883   5.552   3.554  1.6370  2.1609  1.2123
77138SOL    HW243140   7.952   5.573   3.421  0.5772 -0.1718  0.2388
77139SOL     OW43141   0.039   2.923   2.379  0.2602 -0.5578  0.3670
77139SOL    HW143142   0.118   2.925   2.325  0.2688 -0.5116  0.3819
77139SOL    HW243143  -0.022   2.982   2.336  0.7593  0.5842  1.1828
77140SOL     OW43144   5.233   0.932  13.235 -0.5873 -0.2769 -0.3538
77140SOL    HW143145   5.223   0.839  13.212  1.2015 -0.4318 -0.6672
77140SOL    HW243146   5.176   0.945  13.311  0.0797 -1.9590  0.4803
77141SOL     OW43147   4.460   4.080   1.517  0.2443  0.1170 -0.0097
77141SOL    HW143148   4.473   4.015   1.586 -0.2546  2.5685  2.5795
77141SOL    HW243149   4.548   4.108   1.493  0.3925  0.0715  0.4717
77142SOL     OW43150  10.703   9.776   7.191 -0.5290 -0.3545  0.6900
77142SOL    HW143151  10.663   9.692   7.170 -0.6730 -0.0129 -0.4491
77142SOL    HW243152  10.794   9.755   7.210 -0.6204 -0.8007  0.6482
77143SOL     OW43153  10.817  12.299  10.229  0.0988  0.0106 -0.5876
77143SOL    HW143154  10.853  12.345  10.153  0.4341  0.2977 -0.2574
77143SOL    HW243155  10.846  12.351  10.304  0.2109 -0.5663 -0.2299
77144SOL     OW43156   7.411   5.235  11.521  0.4414 -0.2087 -0.1213
77144SOL    HW143157   7.503   5.251  11.500  0.2390  0.0381 -0.8843
77144SOL    HW243158   7.376   5.322  11.540  0.4626 -0.3549  0.6081
77145SOL     OW43159  11.622  13.485   4.008 -0.4195 -0.2323 -0.3480
77145SOL    HW143160  11.602  13.477   3.915 -1.0498 -0.4414 -0.1994
77145SOL    HW243161  11.560  13.426   4.051 -0.9276  0.7337  0.2938
77146SOL     OW43162  13.267   0.610  11.511  0.1560  0.1318 -0.0321
77146SOL    HW143163  13.226   0.527  11.488 -0.1643  0.3333 -0.2051
77146SOL    HW243164  13.336   0.587  11.574 -0.1423 -0.2283  0.1678
77147SOL     OW43165  11.991   2.401  11.544 -0.1482  0.2637  0.1216
77147SOL    HW143166  11.986   2.397  11.640 -1.4064 -1.3657  0.0470
77147SOL    HW243167  12.077   2.366  11.523 -0.4762 -0.9391  0.6478
77148SOL     OW43168   8.429  13.569   5.113 -0.0442 -0.1879 -0.2273
77148SOL    HW143169   8.389  13.587   5.029  0.0581 -1.6632 -0.6140
77148SOL    HW243170   8.355  13.559   5.174 -0.1140  0.9642 -0.1001
77149SOL     OW43171   8.795   9.509   5.716  0.2750  0.4348 -0.9030
77149SOL    HW143172   8.731   9.554   5.661  0.3990  2.4857  0.5628
77149SOL    HW243173   8.745   9.440   5.759 -1.1030  2.2132  0.4815
77150SOL     OW43174   6.737   7.715  11.345 -0.0949  0.0315 -0.3815
77150SOL    HW143175   6.802   7.754  11.287 -0.6523  0.9933 -0.3739
77150SOL    HW243176   6.724   7.779  11.414  0.7061 -1.1759  0.9558
77151SOL     OW43177   4.913  11.267  13.217 -0.0781  0.1331  0.3568
77151SOL    HW143178   4.974  11.328  13.259  1.5553 -1.5196  0.5022
77151SOL    HW243179   4.965  11.224  13.149 -1.3785 -0.5876 -0.2093
77152SOL     OW43180   7.864   8.035  12.207 -0.0493 -0.1101 -0.5410
77152SOL    HW143181   7.920   8.105  12.172 -1.3949  1.1231 -0.3472
77152SOL    HW243182   7.834   8.069  12.292 -0.1605 -1.2554 -0.1022
77153SOL     OW43183  11.707   7.311  12.312  0.1214  0.0056  0.0993
77153SOL    HW143184  11.632   7.341  12.260  0.3385 -0.6574 -0.6317
77153SOL    HW243185  11.679   7.226  12.347  0.6498 -0.4376 -0.5066
77154SOL     OW43186   2.717   0.491  13.412 -0.4496 -0.2895  0.0952
77154SOL    HW143187   2.657   0.422  13.384 -0.8959 -0.0866  0.5166
77154SOL    HW243188   2.660   0.567  13.427 -0.1624 -0.2530  1.0460
77155SOL     OW43189  10.184   9.495   3.587  0.4460 -0.3309 -0.9557
77155SOL    HW143190  10.103   9.471   3.542  0.2928 -0.1797 -0.7659
77155SOL    HW243191  10.177   9.452   3.672  1.0722 -1.2251 -1.3469
77156SOL     OW43192   4.445   7.053   5.931 -0.1831 -0.0952  0.5813
77156SOL    HW143193   4.391   7.055   6.010 -1.9278 -1.7678 -0.4758
77156SOL    HW243194   4.452   6.960   5.910 -0.3349  0.3359 -1.5851
77157SOL     OW43195   2.478  12.229  10.621  0.3793  0.1163 -0.3979
77157SOL    HW143196   2.386  12.205  10.638  0.2623  0.3671 -0.6854
77157SOL    HW243197   2.520  12.224  10.707 -0.3698  2.0785  0.1211
77158SOL     OW43198  11.190  12.169   6.352  0.4686 -0.0660 -0.0695
77158SOL    HW143199  11.274  12.123   6.344  1.5177  1.6846  0.4591
77158SOL    HW243200  11.131  12.119   6.296  2.1703 -0.6200 -1.4776
77159SOL     OW43201   3.373   2.679  10.761 -0.0405 -0.0315  0.5362
77159SOL    HW143202   3.437   2.609  10.753 -1.4315 -1.6022  2.3152
77159SOL    HW243203   3.300   2.651  10.706 -0.2274  0.4995  0.5049
77160SOL     OW43204  10.973  11.150   9.615 -0.2505  0.1363  0.0850
77160SOL    HW143205  10.942  11.116   9.531  1.8805  1.5302 -1.3694
77160SOL    HW243206  10.893  11.173   9.662 -1.6070 -2.9311 -0.4797
77161SOL     OW43207   8.787   9.799  10.227 -0.3375  0.0552 -0.7599
77161SOL    HW143208   8.749   9.812  10.314 -1.2058 -0.5474 -1.0310
77161SOL    HW243209   8.813   9.707  10.226  1.9034  0.6251 -0.3172
77162SOL     OW43210   2.185  11.343   0.360 -0.1547  0.3544 -0.0108
77162SOL    HW143211   2.237  11.408   0.314 -1.9690  0.9383 -1.3204
77162SOL    HW243212   2.139  11.393   0.428  0.6494 -0.0984  0.9016
77163SOL     OW43213   6.409   9.240   1.987  0.4075 -0.0113 -0.6623
77163SOL    HW143214   6.358   9.316   1.958 -0.3041 -0.1823  0.0958
77163SOL    HW243215   6.483   9.277   2.035 -0.4298  0.2203  0.5134
77164SOL     OW43216   0.847   9.866   1.762 -0.3683 -0.1801 -0.0790
77164SOL    HW143217   0.893   9.947   1.740 -1.0300 -0.0882 -1.2207
77164SOL    HW243218   0.782   9.892   1.827 -3.2078  1.1025 -3.1445
77165SOL     OW43219   9.674   9.799   5.133  0.5962 -0.3662 -0.2706
77165SOL    HW143220   9.691   9.888   5.164  2.4325 -0.3261 -1.3119
77165SOL    HW243221   9.595   9.807   5.079  0.2812  0.4558  0.2901
77166SOL     OW43222   9.700   4.690  12.000  0.3147 -0.6824 -0.1177
77166SOL    HW143223   9.753   4.769  11.988  0.6312 -0.8345  0.2464
77166SOL    HW243224   9.634   4.695  11.932  0.8114 -0.4932 -0.5961
77167SOL     OW43225   8.366   0.007  12.430  0.5143  0.4175  0.4275
77167SOL    HW143226   8.348   0.086  12.379  3.1423 -0.6004 -2.3408
77167SOL    HW243227   8.279  -0.031  12.445 -0.5533  1.8584 -1.5455
77168SOL     OW43228   4.051   6.078  13.511  0.7321  0.0178  0.2128
77168SOL    HW143229   4.014   5.999  13.550  1.3891 -0.5999 -0.3803
77168SOL    HW243230   4.016   6.150  13.564 -0.4205 -0.6111  0.3400
77169SOL     OW43231   7.834  10.767  11.517  0.1248 -0.4676 -0.2282
77169SOL    HW143232   7.900  10.820  11.472 -0.4268  0.2172 -0.2456
77169SOL    HW243233   7.762  10.759  11.456  0.0172 -0.8766 -0.0562
77170SOL     OW43234   7.586   0.941   7.740 -0.7151 -0.4223  0.3752
77170SOL    HW143235   7.682   0.935   7.746 -0.7128  0.5398  1.6675
77170SOL    HW243236   7.563   1.013   7.798 -2.2222 -0.5188 -0.0744
77171SOL     OW43237   1.018   2.027   0.872 -0.0821 -0.0225 -0.5220
77171SOL    HW143238   1.031   1.957   0.937 -1.3522 -0.6095 -0.8566
77171SOL    HW243239   1.097   2.081   0.879 -0.5204  0.4566  2.1249
77172SOL     OW43240  10.958   0.816   5.257  0.1193 -0.0169 -0.0867
77172SOL    HW143241  11.048   0.790   5.273 -0.1439 -0.8631  0.0709
77172SOL    HW243242  10.928   0.850   5.342  0.9821  2.4796 -0.7093
77173SOL     OW43243   0.479  10.326  10.825 -0.1376 -0.1558  0.4244
77173SOL    HW143244   0.415  10.341  10.894  0.4270  0.9601  0.7156
77173SOL    HW243245   0.425  10.304  10.748 -0.8959  0.8364  0.6402
77174SOL     OW43246   8.512  10.906   8.054  0.0865 -0.0991 -0.2646
77174SOL    HW143247   8.417  10.900   8.050 -0.0330  1.6710 -2.7393
77174SOL    HW243248   8.543  10.821   8.022 -0.6554 -0.6046  0.3388
77175SOL     OW43249   0.466   3.588   1.248  0.6595  0.2399  0.5718
77175SOL    HW143250   0.547   3.637   1.263  0.9983 -0.4758  1.1617
77175SOL    HW243251   0.477   3.507   1.298  0.1350 -0.4668 -0.4138
77176SOL     OW43252   9.429  11.760   0.145  0.1976  0.4154 -0.1590
77176SOL    HW143253   9.379  11.833   0.181  0.6326  0.1783  0.9944
77176SOL    HW243254   9.451  11.707   0.222  2.8853  0.9059 -0.4879
77177SOL     OW43255   6.500   3.064   6.746  0.2935 -0.1966 -0.0987
77177SOL    HW143256   6.450   3.065   6.664  0.3079 -0.8064 -0.1179
77177SOL    HW243257   6.494   3.154   6.778  0.3209  0.0612 -0.7890
77178SOL     OW43258  12.302   5.938   0.249  0.2062  0.0590  0.5644
77178SOL    HW143259  12.396   5.952   0.258  0.6218 -1.8058 -0.4446
77178SOL    HW243260  12.289   5.846   0.271 -1.2397  0.0385 -0.2322
77179SOL     OW43261   0.821   6.724   3.277  0.2140 -0.3558  0.2473
77179SOL    HW143262   0.793   6.641   3.240 -0.5523 -0.8479  1.8573
77179SOL    HW243263   0.750   6.785   3.256 -0.2896 -0.6701  0.9963
77180SOL     OW43264   8.652   7.168   6.412 -0.0089  0.3654 -0.3667
77180SOL    HW143265   8.607   7.242   6.373 -0.9242 -0.5928 -1.1872
77180SOL    HW243266   8.603   7.091   6.382 -0.1678 -0.4795  1.8805
77181SOL     OW43267  11.197   1.738   4.886  0.1117  0.0975 -0.4043
77181SOL    HW143268  11.287   1.765   4.906  0.4740 -0.6540 -0.9571
77181SOL    HW243269  11.187   1.755   4.792 -0.0818 -0.4910 -0.4938
77182SOL     OW43270   1.198   6.091   1.895  0.4748  0.3092  0.6323
77182SOL    HW143271   1.155   6.028   1.838  1.1603  0.9906 -0.6756
77182SOL    HW243272   1.273   6.044   1.931 -0.5514 -0.4529  1.8469
77183SOL     OW43273   7.714   1.775  12.898  0.4197  0.1120 -0.6981
77183SOL    HW143274   7.755   1.830  12.831  1.2851  1.1828  0.6543
77183SOL    HW243275   7.787   1.725  12.936  0.3931  1.4104  1.1543
77184SOL     OW43276  10.680   0.744   5.990  0.4476  0.4265 -0.0056
77184SOL    HW143277  10.605   0.793   6.025  1.2045  0.5359  1.5807
77184SOL    HW243278  10.741   0.811   5.959 -0.3962  0.3216 -2.0524
77185SOL     OW43279   9.480  10.485  12.371 -0.0381 -0.3894  0.1907
77185SOL    HW143280   9.513  10.469  12.283  0.2110  0.3082  0.1535
77185SOL    HW243281   9.492  10.402  12.417 -0.8709 -0.9868 -0.6494
77186SOL     OW43282  11.260   8.463   6.875 -0.2790  0.0860 -0.0183
77186SOL    HW143283  11.294   8.494   6.959  0.6889 -1.1939  0.0830
77186SOL    HW243284  11.273   8.537   6.816  1.4921  0.1122  0.3398
77187SOL     OW43285   4.246   5.587  13.650  0.2528 -0.3665  0.0314
77187SOL    HW143286   4.249   5.643  13.573  1.9325 -0.9800 -0.3826
77187SOL    HW243287   4.219   5.646  13.721  3.0244  1.3309 -0.1567
77188SOL     OW43288   6.734  13.314  10.576 -0.5318  0.3531  0.4824
77188SOL    HW143289   6.749  13.254  10.649  1.8623  0.7944  0.4328
77188SOL    HW243290   6.730  13.401  10.616 -2.3681  0.3719  0.3700
77189SOL     OW43291   3.867   3.317   7.692 -0.2736  0.4583  0.0577
77189SOL    HW143292   3.834   3.323   7.602  2.3521  0.1904 -1.0019
77189SOL    HW243293   3.918   3.397   7.704 -0.6652  0.5288  1.3673
77190SOL     OW43294  11.216   8.903  12.621  0.2748  0.9228 -0.1109
77190SOL    HW143295  11.162   8.826  12.640  1.5475  0.3471  1.3568
77190SOL    HW243296  11.247   8.888  12.531 -0.6269  0.4500 -0.3644
77191SOL     OW43297  11.612   0.280   9.499  0.2436  0.1093  0.5853
77191SOL    HW143298  11.590   0.357   9.551 -0.5140  1.1285 -1.1453
77191SOL    HW243299  11.706   0.268   9.513  0.1808  0.7581  1.6419
77192SOL     OW43300  11.301   3.444   1.411  0.0060 -0.2301 -0.1794
77192SOL    HW143301  11.334   3.520   1.363 -0.5084  1.1222  1.5271
77192SOL    HW243302  11.212   3.468   1.436 -0.6074 -1.9025 -0.6254
77193SOL     OW43303  10.799   1.090   4.387 -0.4353 -0.3760  0.5454
77193SOL    HW143304  10.740   1.151   4.433 -1.2164 -1.0166  0.4237
77193SOL    HW243305  10.766   1.089   4.297 -0.1731 -0.6669  0.4540
77194SOL     OW43306   8.852  12.987   0.425 -0.7882 -0.1390 -0.2042
77194SOL    HW143307   8.885  13.000   0.514 -0.0727  0.3414 -0.5321
77194SOL    HW243308   8.768  12.942   0.437 -1.1984  0.8343  0.7655
77195SOL     OW43309   8.957   6.184   7.370  0.2803 -0.4848 -0.5805
77195SOL    HW143310   8.958   6.125   7.295 -0.4420  0.2102 -1.1617
77195SOL    HW243311   8.913   6.263   7.338  0.3109 -0.0197  0.4622
77196SOL     OW43312  10.435   9.443   9.344 -0.3094 -0.0499 -0.4424
77196SOL    HW143313  10.403   9.373   9.401  0.1614  0.2843  0.2357
77196SOL    HW243314  10.356   9.492   9.320 -0.3055  1.0539  1.6115
77197SOL     OW43315   6.143  10.748  13.357 -0.2230  0.4275  0.2653
77197SOL    HW143316   6.235  10.760  13.379 -0.3780  1.4045  0.4637
77197SOL    HW243317   6.099  10.821  13.401 -1.1657 -0.3519  0.6559
77198SOL     OW43318   1.472  12.915   2.941 -0.5420 -0.4903  0.1782
77198SOL    HW143319   1.539  12.888   3.004 -1.1029  0.2767  1.1314
77198SOL    HW243320   1.442  12.833   2.902  0.3081 -0.9206  0.3869
77199SOL     OW43321   9.124   4.855   2.813  0.6664 -0.4189 -0.1462
77199SOL    HW143322   9.056   4.842   2.748  0.6793 -2.7791  0.2564
77199SOL    HW243323   9.192   4.904   2.766 -0.2593 -0.1373 -1.2455
77200SOL     OW43324  12.589   0.932   5.289  0.4041  1.1128  0.0043
77200SOL    HW143325  12.538   0.970   5.361 -0.9925  0.6605 -0.6934
77200SOL    HW243326  12.556   0.977   5.211 -1.0012 -1.1005 -0.8070
77201SOL     OW43327   8.647   5.765   4.015  0.6514  0.5499 -0.3307
77201SOL    HW143328   8.596   5.745   3.937 -2.5010  1.5436  1.3127
77201SOL    HW243329   8.661   5.681   4.058 -2.1276  0.4212  0.5319
77202SOL     OW43330   6.869   2.457   1.766 -0.4094 -0.4813 -0.0556
77202SOL    HW143331   6.930   2.472   1.839 -1.5725  0.8306  0.7077
77202SOL    HW243332   6.816   2.383   1.794  0.2794 -1.1122 -0.3722
77203SOL     OW43333   2.275   6.352  10.222  0.5284 -0.1239 -0.5924
77203SOL    HW143334   2.216   6.283  10.191 -0.6764  0.7768 -0.4083
77203SOL    HW243335   2.358   6.335  10.178 -0.1923 -0.7896 -1.7524
77204SOL     OW43336   4.433   5.325   6.485 -0.1611 -0.2336  0.8193
77204SOL    HW143337   4.361   5.267   6.461  0.5022 -0.7275 -0.0347
77204SOL    HW243338   4.448   5.307   6.578 -1.1239 -0.1347  1.0003
77205SOL     OW43339   9.771   3.300   3.266 -0.0793  0.0446  0.4786
77205SOL    HW143340   9.820   3.239   3.321 -2.3133 -1.2966  1.1084
77205SOL    HW243341   9.719   3.351   3.327  0.0429  1.0283 -0.2115
77206SOL     OW43342   8.067   0.684   8.634  0.0832  0.0484 -0.5671
77206SOL    HW143343   8.129   0.655   8.567  2.5533 -0.1253  1.6154
77206SOL    HW243344   8.062   0.779   8.623  0.8126  0.0725 -0.7642
77207SOL     OW43345   4.835  12.873  11.959 -0.0580 -0.0069  0.2913
77207SOL    HW143346   4.904  12.819  11.998 -2.1836 -1.0982  2.8382
77207SOL    HW243347   4.815  12.831  11.876  2.1223  0.2214 -0.4196
77208SOL     OW43348  12.978   7.306   8.087  0.6671  0.2432  0.1352
77208SOL    HW143349  12.919   7.273   8.019  0.5177  1.0826 -0.1541
77208SOL    HW243350  13.002   7.393   8.057  1.4448  0.2091  0.6421
77209SOL     OW43351   9.588   1.109   5.940 -0.0038  0.1866  0.4419
77209SOL    HW143352   9.511   1.065   5.902  1.5473 -1.3818 -1.0570
77209SOL    HW243353   9.595   1.191   5.891 -0.6351  0.2649  0.4747
77210SOL     OW43354  12.886   7.425   7.711  0.1130  0.0808  0.0841
77210SOL    HW143355  12.926   7.432   7.798  0.1510 -0.0825  0.0813
77210SOL    HW243356  12.918   7.502   7.663 -0.2005  0.3644  0.3319
77211SOL     OW43357   0.073   5.058   6.909 -0.2333 -0.5984  0.3672
77211SOL    HW143358   0.040   5.052   6.999 -0.9675  0.5353  0.1875
77211SOL    HW243359   0.147   5.118   6.915  0.3337 -1.2756  0.3569
77212SOL     OW43360   0.390   2.033  12.828 -0.0735  0.2855 -0.8030
77212SOL    HW143361   0.335   1.976  12.882 -1.2898  1.6859 -0.5086
77212SOL    HW243362   0.379   2.000  12.739  1.6938 -1.8461 -0.3348
77213SOL     OW43363  10.551   7.501   0.717 -1.3537 -0.0499 -0.1512
77213SOL    HW143364  10.551   7.575   0.656  4.2880  1.6649  1.3336
77213SOL    HW243365  10.580   7.427   0.664  1.5291  0.9835 -0.2270
77214SOL     OW43366   7.103   2.083  10.281 -0.5175 -0.2781  0.0079
77214SOL    HW143367   7.174   2.142  10.254  0.3644 -0.6216  1.4676
77214SOL    HW243368   7.148   2.010  10.323 -1.7406 -0.1979  1.5477
77215SOL     OW43369   1.034  13.377  11.591 -0.2940  0.2679 -0.9280
77215SOL    HW143370   0.949  13.415  11.612 -1.2319 -1.0543 -2.0698
77215SOL    HW243371   1.071  13.352  11.675 -1.2441  0.4541 -0.4373
77216SOL     OW43372   7.562   0.680   0.986 -0.3477 -0.8666 -0.2079
77216SOL    HW143373   7.582   0.609   1.047 -0.2005 -0.2276  0.5018
77216SOL    HW243374   7.499   0.735   1.033  1.7195  1.0827  0.4816
77217SOL     OW43375   6.794   7.107   9.709 -0.0164 -0.5030 -0.2773
77217SOL    HW143376   6.848   7.083   9.785 -0.7620 -2.1003 -0.2118
77217SOL    HW243377   6.836   7.063   9.636  0.5564  0.8339 -0.7755
77218SOL     OW43378  12.320   5.836   3.543  0.6913 -0.1844 -0.3272
77218SOL    HW143379  12.238   5.836   3.592  0.5930 -2.5777 -0.3771
77218SOL    HW243380  12.295   5.808   3.455  1.7355 -2.7955  0.1344
77219SOL     OW43381   0.785   1.602  10.193 -0.4042 -0.4464  0.3317
77219SOL    HW143382   0.716   1.632  10.252  1.6118  2.7625  1.3323
77219SOL    HW243383   0.787   1.507  10.203 -3.4725 -0.4952  1.5025
77220SOL     OW43384  10.184   2.509   8.601  0.0240  0.0195 -0.6352
77220SOL    HW143385  10.228   2.491   8.685  1.1393 -1.1684 -1.4193
77220SOL    HW243386  10.151   2.598   8.610  1.8141  0.6513  0.3791
77221SOL     OW43387  12.081   6.070  12.262  0.0696  0.0071 -0.4093
77221SOL    HW143388  12.162   6.060  12.211  0.2103  3.2382 -1.0487
77221SOL    HW243389  12.030   5.992  12.241  2.4571 -1.5425 -0.9566
77222SOL     OW43390   2.916  13.418   0.501 -0.3452  0.5980  0.3325
77222SOL    HW143391   2.938  13.404   0.408  0.5950 -0.0682  0.6363
77222SOL    HW243392   3.000  13.436   0.543 -0.4502 -1.0929  1.3849
77223SOL     OW43393  13.513  12.141   5.885 -0.1986 -0.4531 -0.2620
77223SOL    HW143394  13.442  12.149   5.948  0.2712  0.1470  0.2069
77223SOL    HW243395  13.473  12.165   5.801 -0.5134  0.0214  0.0203
77224SOL     OW43396   2.696   6.137   4.552  0.1891 -0.2552 -0.2114
77224SOL    HW143397   2.707   6.130   4.646 -0.4671  3.1805  0.2561
77224SOL    HW243398   2.615   6.089   4.533 -0.0425 -0.3955  1.0728
77225SOL     OW43399   8.863   9.751   4.497 -0.2568 -0.2358 -0.0276
77225SOL    HW143400   8.807   9.799   4.436 -0.1846 -1.1915 -0.8840
77225SOL    HW243401   8.803   9.697   4.549 -0.1602 -1.6190 -1.2657
77226SOL     OW43402   1.690   4.039   6.587  0.1018 -0.0447  0.5535
77226SOL    HW143403   1.785   4.039   6.585  0.1259  1.0668  0.8194
77226SOL    HW243404   1.664   4.060   6.497  0.1132 -0.2082  0.5128
77227SOL     OW43405  13.643   6.381  12.306  0.5673  0.0023  0.4624
77227SOL    HW143406  13.620   6.289  12.296 -0.1966  0.1784  0.5162
77227SOL    HW243407  13.677   6.408  12.221 -1.0162  0.1599 -0.1408
77228SOL     OW43408   9.084   0.979  10.109 -0.3850 -0.1173  0.1990
77228SOL    HW143409   9.019   0.959  10.041  0.3016 -0.7696 -0.2894
77228SOL    HW243410   9.072   1.072  10.128 -0.9853 -0.0693 -0.3961
77229SOL     OW43411   0.612   2.207   6.216 -0.5025  0.6918  0.2154
77229SOL    HW143412   0.600   2.149   6.291  1.6471  1.2382  1.0652
77229SOL    HW243413   0.578   2.157   6.142 -2.4783  0.0507  1.4761
77230SOL     OW43414   2.211   9.343  13.381  0.2353 -0.3237  0.1336
77230SOL    HW143415   2.192   9.334  13.474  0.9079  1.4320  0.4845
77230SOL    HW243416   2.125   9.356  13.340  0.0582  0.4782  0.7343
77231SOL     OW43417  12.477   8.289   2.821 -0.2406 -0.1353  0.1529
77231SOL    HW143418  12.516   8.363   2.775 -0.4638  1.2944  2.1680
77231SOL    HW243419  12.538   8.270   2.892  0.3961 -2.6860 -0.9552
77232SOL     OW43420  13.329   1.960  13.092 -0.1656 -0.3484  0.3127
77232SOL    HW143421  13.243   1.941  13.129 -0.4441 -0.6110 -0.4616
77232SOL    HW243422  13.387   1.895  13.131 -0.6562 -1.2919 -0.4830
77233SOL     OW43423   1.495   9.684  10.532 -0.0452 -0.1712  0.3870
77233SOL    HW143424   1.553   9.684  10.609  0.0393  2.1489  0.3996
77233SOL    HW243425   1.521   9.762  10.483 -1.7258 -0.2730 -0.7407
77234SOL     OW43426   6.979   0.614   6.254  0.2000 -0.2445  0.8535
77234SOL    HW143427   7.073   0.621   6.271  0.3095  0.6187 -0.0374
77234SOL    HW243428   6.945   0.702   6.267 -0.3840 -0.4227  0.5606
77235SOL     OW43429   2.106   1.635   5.137 -0.3147  0.0968 -0.0686
77235SOL    HW143430   2.108   1.626   5.233 -2.7235 -0.6632 -0.0334
77235SOL    HW243431   2.186   1.591   5.108  0.3668  0.1633  1.5651
77236SOL     OW43432   5.889   8.488   7.723 -0.5135  0.2245 -0.2861
77236SOL    HW143433   5.951   8.441   7.667 -0.4007 -0.9811  0.7941
77236SOL    HW243434   5.819   8.516   7.664  0.1523 -0.0171 -1.2124
77237SOL     OW43435   8.465  11.290   9.951 -0.0279  0.9826 -0.8800
77237SOL    HW143436   8.453  11.231  10.026  4.1639  0.4971 -0.3622
77237SOL    HW243437   8.426  11.373   9.979 -0.8389  0.0982  0.7481
77238SOL     OW43438   5.268   8.154   9.940  0.2680  0.7924 -0.3397
77238SOL    HW143439   5.271   8.249   9.945 -2.3906  0.9510 -0.3049
77238SOL    HW243440   5.330   8.131   9.870  1.5411  2.4307  0.1932
77239SOL     OW43441   0.951   9.466  11.971 -0.2149  0.2257 -0.0064
77239SOL    HW143442   0.988   9.390  12.015 -0.0856 -0.6915 -1.5934
77239SOL    HW243443   0.958   9.445  11.877 -2.3830  1.1391 -0.4478
77240SOL     OW43444   0.020   0.616   5.876 -0.1437  0.2859 -0.0344
77240SOL    HW143445  -0.037   0.543   5.898  1.0212 -0.5712  0.2412
77240SOL    HW243446   0.012   0.676   5.950 -1.5595  0.7544 -0.5319
77241SOL     OW43447   3.446   0.609   8.403 -0.6485  0.4137 -0.5685
77241SOL    HW143448   3.534   0.623   8.368 -1.5237  1.2097 -2.5885
77241SOL    HW243449   3.391   0.597   8.326 -2.1017 -1.5852  0.6954
77242SOL     OW43450   0.834   5.249   2.026  0.3466 -0.6292  0.0302
77242SOL    HW143451   0.776   5.294   2.087  1.3401 -0.0642  0.5883
77242SOL    HW243452   0.777   5.221   1.955 -0.3257  1.6251 -0.3987
77243SOL     OW43453  12.800   9.676   8.802  0.1757  0.4914  0.0710
77243SOL    HW143454  12.862   9.705   8.735  0.3981  0.1311  0.1145
77243SOL    HW243455  12.837   9.708   8.884 -0.0505  0.8569  0.0293
77244SOL     OW43456  10.668   5.814  12.910  0.1355  0.8149 -0.3931
77244SOL    HW143457  10.612   5.850  12.842 -1.7193  0.9749  1.1315
77244SOL    HW243458  10.713   5.890  12.947 -1.2143  1.1872  0.5707
77245SOL     OW43459  11.983   3.908  12.406  0.4587  0.5157 -0.0517
77245SOL    HW143460  12.015   3.975  12.465  0.3256  0.2503  0.3234
77245SOL    HW243461  11.946   3.956  12.332  2.4070  0.8255 -0.8684
77246SOL     OW43462   8.340   0.963   4.787 -0.2432 -0.0933  0.0789
77246SOL    HW143463   8.346   0.875   4.750  2.2404 -0.4772  1.1845
77246SOL    HW243464   8.403   1.015   4.737 -1.9821  1.2157 -0.8441
77247SOL     OW43465   6.326   4.912   7.224 -0.8051  0.4810 -0.8645
77247SOL    HW143466   6.285   4.883   7.143 -0.3255 -3.1958  0.0290
77247SOL    HW243467   6.415   4.876   7.221 -0.8373  0.0409  1.3291
77248SOL     OW43468  12.320   6.207  12.885  0.4567 -0.2107  0.6613
77248SOL    HW143469  12.301   6.276  12.821  1.5262 -0.3711  0.1447
77248SOL    HW243470  12.383   6.246  12.945 -0.1525 -0.2296  1.3202
77249SOL     OW43471   3.638   8.592   1.712 -0.2748  0.0923  0.4617
77249SOL    HW143472   3.559   8.545   1.739 -1.6372  2.0304  0.0650
77249SOL    HW243473   3.609   8.648   1.641  1.7952 -0.0799 -0.5771
77250SOL     OW43474  10.948   1.950   9.969 -0.3709  0.0875 -0.6535
77250SOL    HW143475  10.987   1.912   9.891 -2.6069 -0.9395 -1.3441
77250SOL    HW243476  10.912   2.033   9.940 -2.2197 -0.8140 -1.0577
77251SOL     OW43477   2.555   3.956   9.638 -0.0179  0.3855 -0.5317
77251SOL    HW143478   2.587   4.036   9.597  4.6391 -0.7799  0.3021
77251SOL    HW243479   2.525   3.984   9.725  1.9342  1.2430 -0.0913
77252SOL     OW43480   6.697   1.979   3.060  0.1602  0.4871  0.4658
77252SOL    HW143481   6.778   1.985   3.110  0.8533  0.2257 -0.6102
77252SOL    HW243482   6.653   2.063   3.076  1.2294  1.1333  0.0633
77253SOL     OW43483  10.695   0.368   9.389  0.0418  0.3064 -0.6464
77253SOL    HW143484  10.639   0.328   9.322  1.4075 -1.2537 -0.9347
77253SOL    HW243485  10.728   0.448   9.349  0.3885 -0.3219 -1.6503
77254SOL     OW43486  10.034   3.857   2.132 -0.5882 -0.7554  0.4730
77254SOL    HW143487   9.939   3.858   2.142 -0.8837 -2.1174 -1.6396
77254SOL    HW243488  10.061   3.775   2.173 -0.5419 -1.1457 -0.3185
77255SOL     OW43489  11.986   3.778   3.940 -0.2143  0.3390  0.3475
77255SOL    HW143490  11.916   3.781   3.874 -0.7343 -0.6958  0.8294
77255SOL    HW243491  12.011   3.686   3.943 -0.7264  0.2305  2.1364
77256SOL     OW43492   8.420  12.332   0.472  0.4341  0.0536 -0.3619
77256SOL    HW143493   8.514  12.329   0.490  0.6485 -2.1169 -1.5306
77256SOL    HW243494   8.413  12.334   0.377 -0.6981 -0.4020 -0.3058
77257SOL     OW43495   2.911   0.521   0.888  0.6740  0.1298  0.3240
77257SOL    HW143496   2.878   0.490   0.803  1.1091 -0.7110  0.4568
77257SOL    HW243497   2.833   0.541   0.939  0.3831 -0.9051  0.2885
77258SOL     OW43498   9.319   2.093   4.299  0.6220 -0.4631 -0.2754
77258SOL    HW143499   9.291   2.048   4.219  0.4931  0.1115 -0.5581
77258SOL    HW243500   9.336   2.022   4.361 -1.4499 -0.8678 -0.0902
77259SOL     OW43501   4.626   6.994   6.961  0.1459  0.1762  0.8170
77259SOL    HW143502   4.640   6.982   6.867 -1.3317  0.0597  0.5937
77259SOL    HW243503   4.688   7.063   6.985  0.5053  0.2492 -0.2550
77260SOL     OW43504  12.569   5.595   0.670  0.1201 -0.1260 -0.1035
77260SOL    HW143505  12.658   5.562   0.659 -0.0026  0.2324 -3.0437
77260SOL    HW243506  12.576   5.689   0.653 -0.9645 -0.3045 -1.8094
77261SOL     OW43507  12.367   0.685   3.324 -0.0428  0.1000 -0.4440
77261SOL    HW143508  12.420   0.765   3.319 -0.3712  0.2521 -1.7351
77261SOL    HW243509  12.292   0.709   3.379  1.0299 -0.0285  1.1471
77262SOL     OW43510  11.553   7.547   3.611  0.5784 -0.3340  0.5013
77262SOL    HW143511  11.573   7.457   3.635  0.5719 -0.0727  1.5168
77262SOL    HW243512  11.497   7.539   3.534  0.2663 -1.2080  0.8043
77263SOL     OW43513   9.082   0.348   7.190  0.4653  0.4382 -0.1187
77263SOL    HW143514   9.041   0.431   7.164 -0.5813  0.6675  2.0532
77263SOL    HW243515   9.158   0.374   7.241  1.5165  0.0004 -1.3959
77264SOL     OW43516   4.956  10.162   4.903  0.0071 -0.2218  0.0125
77264SOL    HW143517   4.861  10.173   4.903 -0.1785 -1.6384 -0.6291
77264SOL    HW243518   4.973  10.097   4.971  0.4705 -0.4056 -0.2760
77265SOL     OW43519   2.373   2.935  10.140 -0.0844 -0.1862  0.2624
77265SOL    HW143520   2.421   3.013  10.112  0.5672  0.0800  1.9811
77265SOL    HW243521   2.308   2.920  10.072 -0.8851  2.4474  0.3601
77266SOL     OW43522   5.202   0.479  11.365 -0.0156 -0.1814 -0.4614
77266SOL    HW143523   5.238   0.436  11.288  0.7962 -1.1345  0.4195
77266SOL    HW243524   5.150   0.412  11.408  0.0048  0.1649  0.1208
77267SOL     OW43525   1.038   0.533   6.267  0.4230 -0.3702  0.7219
77267SOL    HW143526   1.022   0.623   6.240 -2.8047 -1.1691 -0.4581
77267SOL    HW243527   1.010   0.529   6.358 -0.1226 -0.3364  0.5560
77268SOL     OW43528   8.814   7.269   9.602  0.2846 -0.4779 -0.2286
77268SOL    HW143529   8.880   7.337   9.613 -0.2154  0.5325 -2.7613
77268SOL    HW243530   8.761   7.273   9.682  1.9262  0.1798  0.8825
77269SOL     OW43531   3.191  11.153   0.672  0.1725 -0.2888 -0.1841
77269SOL    HW143532   3.119  11.213   0.652  0.6890  0.2965 -0.3144
77269SOL    HW243533   3.179  11.132   0.764  0.0630  0.1202 -0.1016
77270SOL     OW43534   2.829   9.794   4.070 -0.2305 -0.3977  0.2249
77270SOL    HW143535   2.818   9.846   4.150 -0.1727  0.1688 -0.1316
77270SOL    HW243536   2.741   9.770   4.044 -0.5365  2.0378 -1.2509
77271SOL     OW43537  10.836   5.124   1.737 -0.6413 -0.0295  0.1816
77271SOL    HW143538  10.778   5.073   1.682  1.9469 -3.0942 -0.0281
77271SOL    HW243539  10.880   5.184   1.677 -0.9110 -0.3391 -0.3279
77272SOL     OW43540   6.313  13.574  10.766  0.9947  0.5790 -0.1880
77272SOL    HW143541   6.330  13.600  10.676  1.7646 -1.5503 -0.7270
77272SOL    HW243542   6.218  13.565  10.772  1.0238 -0.8264 -1.3061
77273SOL     OW43543   9.424   0.846  12.893 -0.3637 -0.2124  0.3790
77273SOL    HW143544   9.330   0.845  12.911 -0.3477 -1.3762  0.4474
77273SOL    HW243545   9.462   0.891  12.969 -0.7879 -0.4336  0.7275
77274SOL     OW43546   4.542   8.207   7.781  0.2714  0.4387  0.4145
77274SOL    HW143547   4.506   8.274   7.839  1.8887  0.3331  1.6208
77274SOL    HW243548   4.594   8.256   7.717 -1.2991  0.5343 -0.8517
77275SOL     OW43549  12.048  12.977   9.721  0.3417 -0.4327 -0.3003
77275SOL    HW143550  12.126  12.941   9.763 -0.3778 -0.9440  0.6281
77275SOL    HW243551  11.977  12.922   9.751 -0.8719  1.8845  1.4569
77276SOL     OW43552   5.306   8.955   5.134 -0.0953  0.1625  0.3746
77276SOL    HW143553   5.373   8.997   5.079  1.6679 -1.7788  0.9049
77276SOL    HW243554   5.253   9.028   5.166  1.2871  1.7306 -0.6886
77277SOL     OW43555  12.103   3.414   0.417  0.4284  0.1181 -0.2273
77277SOL    HW143556  12.184   3.399   0.369  1.0554 -1.7081  1.2764
77277SOL    HW243557  12.130   3.456   0.499 -0.2219  0.1231 -0.0022
77278SOL     OW43558   0.946  12.975   4.896  0.3914  0.0347 -0.1143
77278SOL    HW143559   1.027  13.003   4.939  1.9077 -0.1152 -2.6108
77278SOL    HW243560   0.949  12.879   4.899  1.0324 -0.0053 -1.3340
77279SOL     OW43561   7.967  13.620   3.355  0.1143  0.3719 -0.0596
77279SOL    HW143562   7.958  13.700   3.304  1.2698  0.5518 -0.0139
77279SOL    HW243563   8.061  13.613   3.373 -0.0679 -0.5503  0.6495
77280SOL     OW43564   5.843  10.276  10.974  0.0169 -0.6991 -0.1800
77280SOL    HW143565   5.922  10.227  10.997  1.3000  1.5448  0.5814
77280SOL    HW243566   5.787  10.268  11.052 -0.1721 -1.6192 -0.3978
77281SOL     OW43567  13.536   9.324   8.872  0.1150 -0.3124 -0.3053
77281SOL    HW143568  13.598   9.396   8.860 -0.8019  0.5844  0.2070
77281SOL    HW243569  13.591   9.247   8.884  1.1147  0.2019 -1.4046
77282SOL     OW43570  11.889  12.678  13.314 -0.8527  0.2464  0.1873
77282SOL    HW143571  11.806  12.692  13.269 -1.0973  0.0243  0.5628
77282SOL    HW243572  11.868  12.615  13.383 -0.1757 -0.5216 -0.2896
77283SOL     OW43573   1.960  10.506   3.071  0.4303 -0.5938  0.5017
77283SOL    HW143574   2.041  10.468   3.104  0.8518  0.4188  0.6603
77283SOL    HW243575   1.950  10.588   3.119  1.1185  0.9837 -1.8619
77284SOL     OW43576  13.542   8.854   5.328  0.1026 -0.3143 -0.6264
77284SOL    HW143577  13.556   8.923   5.264  4.0503 -0.3558 -0.0524
77284SOL    HW243578  13.488   8.895   5.396 -1.0373  0.8592 -2.1714
77285SOL     OW43579   9.664  12.249   7.864  0.1422  0.2291 -0.1637
77285SOL    HW143580   9.737  12.295   7.821 -0.1999  0.8520 -0.0856
77285SOL    HW243581   9.693  12.158   7.868 -0.2901 -0.0816 -2.7319
77286SOL     OW43582   0.031   7.921  12.650  0.0957 -0.0202  0.0912
77286SOL    HW143583   0.085   7.980  12.597  0.3660  0.2872  0.6953
77286SOL    HW243584   0.085   7.842  12.660 -0.3893 -0.5157 -0.9737
77287SOL     OW43585   5.330   9.934   7.954 -0.2109  0.2101 -0.0359
77287SOL    HW143586   5.424   9.947   7.942 -0.1250 -0.9615 -0.7232
77287SOL    HW243587   5.300  10.016   7.994  1.0542  0.6853 -0.0092
77288SOL     OW43588   2.246   8.924   8.687  0.5388  0.1631 -0.1521
77288SOL    HW143589   2.250   8.886   8.599  0.5369 -1.0692  0.3558
77288SOL    HW243590   2.329   8.971   8.697  0.2769  0.8323 -1.0227
77289SOL     OW43591   8.873   5.022   0.769 -0.1811  0.3978 -0.4267
77289SOL    HW143592   8.812   5.090   0.797  0.7541  1.1148 -0.0790
77289SOL    HW243593   8.941   5.068   0.721  0.5394 -0.2688 -0.0708
77290SOL     OW43594   5.235  10.428   4.008 -0.3703  0.4470 -0.2787
77290SOL    HW143595   5.295  10.375   3.955 -2.5985 -1.1476 -1.3890
77290SOL    HW243596   5.292  10.481   4.062  2.0452 -1.2669 -0.9470
77291SOL     OW43597   6.129  12.917   8.375 -0.0930  0.0455  0.3150
77291SOL    HW143598   6.054  12.891   8.322 -0.8054  0.2607  1.1953
77291SOL    HW243599   6.205  12.886   8.326 -0.7863 -0.8999 -0.1879
77292SOL     OW43600  11.557  12.675  12.629  0.2475 -0.1178 -0.1570
77292SOL    HW143601  11.476  12.726  12.633  0.5590  0.3676  0.0553
77292SOL    HW243602  11.535  12.600  12.574 -0.1452  0.3913 -0.7143
77293SOL     OW43603  10.844   1.528   9.382 -0.0656 -0.3250 -0.2560
77293SOL    HW143604  10.762   1.547   9.428  0.6898  0.7093  0.7158
77293SOL    HW243605  10.910   1.526   9.451  0.7667 -0.9630 -1.0511
77294SOL     OW43606  11.267   6.545  12.460 -0.2211 -0.2162 -0.4438
77294SOL    HW143607  11.298   6.456  12.443 -0.7245 -0.4437 -0.1961
77294SOL    HW243608  11.172   6.537  12.460 -0.2576  0.1845  0.3298
77295SOL     OW43609  12.303   9.004   4.052 -0.3476 -0.0257  0.3863
77295SOL    HW143610  12.370   8.997   3.985  0.7114 -2.0131  1.5665
77295SOL    HW243611  12.242   8.933   4.032  0.0423 -0.7147  1.5420
77296SOL     OW43612   4.864  11.970   3.597 -0.0587  0.4715  0.5100
77296SOL    HW143613   4.916  11.898   3.561 -0.4372  0.6061 -0.3271
77296SOL    HW243614   4.870  12.039   3.530 -2.2261  0.0858 -0.1471
77297SOL     OW43615   6.253   3.477   5.926 -0.0477 -0.3494  0.3459
77297SOL    HW143616   6.322   3.464   5.990 -0.7716 -0.9757  1.0123
77297SOL    HW243617   6.234   3.571   5.930  1.8787  0.1477 -1.0358
77298SOL     OW43618   0.421  13.594   6.441 -0.3094  0.1605  0.3796
77298SOL    HW143619   0.502  13.584   6.491 -0.4641 -0.4585  0.5103
77298SOL    HW243620   0.356  13.621   6.505 -0.0065  1.5854  0.1146
77299SOL     OW43621   2.129  12.438   1.353 -0.5521 -0.1788  0.6891
77299SOL    HW143622   2.109  12.478   1.268 -1.1450 -0.5137  0.6641
77299SOL    HW243623   2.188  12.500   1.395 -0.3246  0.0373  0.0700
77300SOL     OW43624  11.339   7.082  11.834 -0.3501  0.3799 -0.4528
77300SOL    HW143625  11.426   7.070  11.871  0.0418  1.0770 -1.1148
77300SOL    HW243626  11.354   7.085  11.739 -1.2195 -0.5093 -0.6394
77301SOL     OW43627   8.519  13.248  11.075  0.2510 -0.2998  0.1924
77301SOL    HW143628   8.589  13.200  11.032  0.2855 -0.0453 -0.0342
77301SOL    HW243629   8.541  13.340  11.062  0.4039 -0.2150  0.9782
77302SOL     OW43630  13.210  11.400   4.547 -0.5234  0.2183  0.0716
77302SOL    HW143631  13.300  11.420   4.574 -0.4191  1.0606 -0.8011
77302SOL    HW243632  13.174  11.347   4.618  0.6454 -0.0866  0.4573
77303SOL     OW43633   9.780   6.931   1.985 -0.2936 -0.6076  0.4988
77303SOL    HW143634   9.821   6.929   1.899 -0.6506  1.4035  0.2330
77303SOL    HW243635   9.851   6.912   2.046  0.2973 -0.5666 -0.1678
77304SOL     OW43636   7.917   9.690  11.591  0.3091 -0.4944 -0.4979
77304SOL    HW143637   8.002   9.649  11.610  0.3875  0.1250  0.5033
77304SOL    HW243638   7.860   9.616  11.570  0.6449 -1.0721  0.5425
77305SOL     OW43639  13.189   1.212   9.141 -0.7174  0.7699  0.0656
77305SOL    HW143640  13.216   1.209   9.049 -1.1663 -1.6826 -0.0493
77305SOL    HW243641  13.094   1.199   9.138 -0.5450 -0.9564  0.9004
77306SOL     OW43642  12.697   5.993   7.775  0.0901  0.7061  0.9124
77306SOL    HW143643  12.657   6.026   7.856 -2.7986 -0.2275 -0.0386
77306SOL    HW243644  12.651   6.039   7.705  0.7731 -0.3391 -0.2609
77307SOL     OW43645   2.972  10.850   0.490 -0.7295  0.3333  0.0080
77307SOL    HW143646   2.938  10.783   0.431  1.3845  1.1102 -2.2599
77307SOL    HW243647   2.963  10.932   0.441  3.2594  0.7140 -0.4609
77308SOL     OW43648  13.324   4.491   5.331  0.6304  0.0750  0.3930
77308SOL    HW143649  13.284   4.558   5.277 -1.0070 -2.1978 -1.3914
77308SOL    HW243650  13.342   4.419   5.271  1.1057 -1.6040  2.4308
77309SOL     OW43651   1.456  10.029   3.848  0.0111  0.3360  0.3007
77309SOL    HW143652   1.490  10.106   3.894  1.3524  0.2016 -0.4166
77309SOL    HW243653   1.434  10.062   3.761 -0.6999  0.1857  0.4199
77310SOL     OW43654   0.358   3.813   6.224  0.4469 -0.6267 -0.3213
77310SOL    HW143655   0.405   3.869   6.285  1.0157  0.0296 -1.3213
77310SOL    HW243656   0.362   3.725   6.263 -1.1874  0.1141  1.6853
77311SOL     OW43657  12.009   9.666   8.466  0.2066 -0.3159  0.0761
77311SOL    HW143658  12.096   9.644   8.433 -0.8203 -2.8703 -1.2225
77311SOL    HW243659  12.004   9.626   8.553  0.3995  0.0105  0.2365
77312SOL     OW43660   9.451   9.878  10.050 -0.3825 -0.3590 -0.0243
77312SOL    HW143661   9.515   9.886   9.980 -0.4539  0.1365 -0.0329
77312SOL    HW243662   9.500   9.840  10.123 -0.0754  0.0323 -0.0256
77313SOL     OW43663   9.374   8.453  12.041  0.2198 -0.0100  0.5104
77313SOL    HW143664   9.385   8.368  12.083  1.0918  0.2016  0.7225
77313SOL    HW243665   9.289   8.484  12.074 -0.3415 -0.9979  0.0488
77314SOL     OW43666   4.472  13.349  13.031  0.0840  0.8380 -0.3265
77314SOL    HW143667   4.472  13.352  13.127 -0.5559  1.3227 -0.3406
77314SOL    HW243668   4.565  13.357  13.007  0.3065  0.1919  0.2598
77315SOL     OW43669   0.154   6.229   3.678  0.2152 -0.3912  0.1615
77315SOL    HW143670   0.156   6.296   3.746 -1.2153 -0.4956  0.3419
77315SOL    HW243671   0.089   6.260   3.615  0.5145 -0.9681 -0.4469
77316SOL     OW43672  13.410   4.727  11.979  0.2264  0.2958  0.1829
77316SOL    HW143673  13.436   4.819  11.985  0.3137  0.2043  1.6141
77316SOL    HW243674  13.443   4.698  11.894  2.3998  0.9580  0.7216
77317SOL     OW43675   0.205  13.154   9.944 -0.2739 -0.3308  0.3137
77317SOL    HW143676   0.140  13.134  10.011  0.1155 -2.0888  0.2159
77317SOL    HW243677   0.285  13.172   9.993 -0.4932  0.5477  0.3766
77318SOL     OW43678   9.874   9.259   8.055  0.3670 -0.4769 -0.1719
77318SOL    HW143679   9.911   9.339   8.018  0.7337  0.7631  2.6124
77318SOL    HW243680   9.921   9.188   8.011  0.4437  0.8279 -2.2916
77319SOL     OW43681  13.192   3.959   9.368  0.7210  0.1207  0.1764
77319SOL    HW143682  13.172   3.955   9.274  2.5814  0.1018 -0.2546
77319SOL    HW243683  13.107   3.974   9.409 -0.4118 -1.6004 -1.3538
77320SOL     OW43684   4.033   3.544   7.698  0.0153 -0.2615  0.2506
77320SOL    HW143685   4.123   3.577   7.697  0.7208 -2.0354  0.7424
77320SOL    HW243686   3.998   3.571   7.783  0.7159 -1.0397  0.8069
77321SOL     OW43687  11.196   5.688   5.419 -0.7226 -0.3109  0.0708
77321SOL    HW143688  11.180   5.782   5.405  2.3456  0.5295  1.2512
77321SOL    HW243689  11.168   5.672   5.509  1.2421  0.2256  0.8255
77322SOL     OW43690  10.524   1.215   7.497 -0.7333 -0.2432  0.0369
77322SOL    HW143691  10.588   1.155   7.536 -0.2369 -0.9388 -1.7509
77322SOL    HW243692  10.441   1.169   7.502 -0.4283 -0.9473 -0.9339
77323SOL     OW43693   7.852   1.588   5.430 -0.1008  0.1296  0.6753
77323SOL    HW143694   7.833   1.617   5.341  0.0193 -2.7210 -0.3787
77323SOL    HW243695   7.938   1.626   5.450 -0.3986  1.2889 -0.1647
77324SOL     OW43696  11.811  10.769  12.441  0.6941 -0.6704 -0.1737
77324SOL    HW143697  11.890  10.820  12.422 -0.6206  1.0277 -1.3616
77324SOL    HW243698  11.830  10.727  12.525  3.4163 -1.5366 -1.0993
77325SOL     OW43699   0.353   1.733   2.882 -0.1241  0.3958 -0.3101
77325SOL    HW143700   0.285   1.799   2.868 -1.3982 -0.6918  0.4260
77325SOL    HW243701   0.400   1.729   2.798 -2.3773 -0.3117 -1.6376
77326SOL     OW43702   1.855   8.974  10.415  0.0218 -0.3513  0.3369
77326SOL    HW143703   1.890   8.889  10.440  0.0965 -0.3610  0.2012
77326SOL    HW243704   1.768   8.977  10.454  0.0786 -0.4271  0.4694
77327SOL     OW43705  11.211   8.971   5.446 -0.3566  0.0357 -0.0156
77327SOL    HW143706  11.176   8.950   5.359 -0.5076  2.6713 -0.6974
77327SOL    HW243707  11.303   8.992   5.430 -0.0238 -0.8153  0.7210
77328SOL     OW43708  11.723  13.536   7.177  0.2645  0.3074  0.2068
77328SOL    HW143709  11.734  13.455   7.128 -0.0074 -0.2660  1.0735
77328SOL    HW243710  11.663  13.589   7.124  0.7665  0.1155 -0.5621
77329SOL     OW43711   8.253   9.816  10.177  0.2987  0.2885 -0.1087
77329SOL    HW143712   8.322   9.755  10.204 -1.4338 -1.4165  0.7686
77329SOL    HW243713   8.199   9.766  10.116 -2.7600 -0.2062  2.6730
77330SOL     OW43714   0.068   7.059  11.486  0.4494  0.4548 -0.0156
77330SOL    HW143715   0.134   7.083  11.422  0.0974  0.7294 -0.2828
77330SOL    HW243716   0.015   7.138  11.497 -0.7826 -0.1971 -0.9771
77331SOL     OW43717  11.546   2.988   8.034 -0.0911 -0.3092  0.0306
77331SOL    HW143718  11.450   2.986   8.036 -0.2070 -0.5066 -2.5610
77331SOL    HW243719  11.570   3.054   8.099 -2.0757  1.1576 -0.6402
77332SOL     OW43720   6.983  11.044   3.268  0.3505  0.4407  0.0932
77332SOL    HW143721   6.929  11.014   3.195  1.0427  1.0907 -0.7123
77332SOL    HW243722   7.045  11.105   3.228  0.9309  0.5915  1.1858
77333SOL     OW43723   8.491   6.664   1.039  0.0304  0.3831  0.0020
77333SOL    HW143724   8.438   6.624   0.970  0.0087  0.2580  0.0897
77333SOL    HW243725   8.474   6.758   1.031 -0.9098  0.2728  0.6048
77334SOL     OW43726   8.252  13.083   6.080 -0.3709 -0.4654 -0.0137
77334SOL    HW143727   8.230  13.077   5.987 -0.9505 -1.9487  0.1963
77334SOL    HW243728   8.292  12.998   6.101  1.2493  0.4254  0.7406
77335SOL     OW43729   6.375   0.093   2.043 -0.3922  0.4411  0.1542
77335SOL    HW143730   6.291   0.048   2.032 -1.1787  1.7053  0.6960
77335SOL    HW243731   6.417   0.089   1.957 -1.1368  0.0397 -0.1985
77336SOL     OW43732   4.762   6.546  13.386 -0.3204 -0.2311  0.1653
77336SOL    HW143733   4.727   6.459  13.403 -0.6555 -0.0085  0.6629
77336SOL    HW243734   4.856   6.538  13.404  0.1303 -1.0981 -2.2098
77337SOL     OW43735   6.326   4.006   8.942 -0.4366 -0.5262  0.1159
77337SOL    HW143736   6.324   4.018   9.037 -2.6204 -0.3783  0.1008
77337SOL    HW243737   6.343   4.093   8.907  2.9331 -0.9560  0.3349
77338SOL     OW43738   6.983  11.743   9.842  0.0733  0.1570  0.0615
77338SOL    HW143739   6.916  11.687   9.804  1.2551 -0.3887 -1.3013
77338SOL    HW243740   7.040  11.683   9.891  0.2583  0.4329  0.1867
77339SOL     OW43741   8.298   3.459   6.385  0.2704 -0.4695  0.0716
77339SOL    HW143742   8.293   3.544   6.341 -2.0625 -0.8058 -0.4368
77339SOL    HW243743   8.328   3.479   6.473 -0.2547  0.9094 -0.0439
77340SOL     OW43744   9.810   9.253   8.505 -0.6975  0.1221  0.1071
77340SOL    HW143745   9.886   9.311   8.505 -0.1704 -0.5177  1.1653
77340SOL    HW243746   9.791   9.238   8.598 -2.2083  0.3687 -0.1296
77341SOL     OW43747  11.559   3.372   3.317  0.2467  0.1919  0.2750
77341SOL    HW143748  11.527   3.363   3.227  2.5128 -1.2152 -0.4575
77341SOL    HW243749  11.639   3.423   3.310  1.3760 -1.3660  1.2383
77342SOL     OW43750  12.757   0.062  13.008  0.1248  0.6507 -0.0239
77342SOL    HW143751  12.784   0.125  13.075  0.5171 -0.3625  0.8052
77342SOL    HW243752  12.819  -0.010  13.018 -1.2222 -0.5327  0.0775
77343SOL     OW43753   0.800  12.450   2.874 -0.1871  0.1082 -0.1169
77343SOL    HW143754   0.880  12.442   2.926 -0.9609 -0.6608  0.9918
77343SOL    HW243755   0.730  12.429   2.935 -1.2838  1.1712 -0.9593
77344SOL     OW43756   4.123  10.855  10.597  0.1511 -0.1152 -0.4178
77344SOL    HW143757   4.200  10.905  10.626  1.1162 -1.5628 -0.3857
77344SOL    HW243758   4.048  10.910  10.622  1.1322  0.8722  0.4638
77345SOL     OW43759  13.179  12.624   1.245 -0.5174  0.0839 -0.2090
77345SOL    HW143760  13.244  12.588   1.184 -1.3408 -2.6017  0.3487
77345SOL    HW243761  13.119  12.673   1.189  0.1393 -0.2224 -1.2142
77346SOL     OW43762   2.082   1.681   6.286 -0.0492 -0.2115  0.4589
77346SOL    HW143763   2.066   1.720   6.200 -1.0891  2.9829  1.9363
77346SOL    HW243764   2.175   1.701   6.304  0.3945 -1.5835 -0.1882
77347SOL     OW43765   4.444   9.908   0.568 -0.2938  0.1363 -0.1996
77347SOL    HW143766   4.362   9.929   0.612 -0.2476 -0.3147  0.1049
77347SOL    HW243767   4.508   9.965   0.609 -0.6936  1.5142 -1.3998
77348SOL     OW43768   9.069   1.492   4.299 -0.1051  0.6097 -0.0327
77348SOL    HW143769   9.027   1.479   4.384 -0.0952  1.1464  0.0626
77348SOL    HW243770   9.148   1.438   4.302  0.6323  1.6794  0.8517
77349SOL     OW43771  12.647  12.768   2.072 -0.3270 -0.8322  0.3839
77349SOL    HW143772  12.618  12.827   2.142  0.0479 -0.5763  0.3222
77349SOL    HW243773  12.741  12.783   2.065 -0.3254 -1.0297 -0.0172
77350SOL     OW43774  11.866   4.132   7.004 -0.2298  0.1260  0.2912
77350SOL    HW143775  11.852   4.038   7.017  1.5941 -0.2729 -0.3856
77350SOL    HW243776  11.780   4.166   6.978 -0.9567 -1.3060  0.7269
77351SOL     OW43777   4.400  13.403   3.595  0.3271 -0.1447 -0.5478
77351SOL    HW143778   4.478  13.352   3.573 -0.1669 -0.4456 -1.6617
77351SOL    HW243779   4.434  13.482   3.636  1.1460 -0.9558  0.3797
77352SOL     OW43780   6.367   2.464   6.767 -0.3818 -0.2419  0.6407
77352SOL    HW143781   6.275   2.466   6.741 -0.3259  0.6300  0.4612
77352SOL    HW243782   6.392   2.372   6.762 -1.3019 -0.5097  0.9067
77353SOL     OW43783   7.935   4.413   5.492 -0.4206 -0.2982  0.4727
77353SOL    HW143784   7.994   4.421   5.568 -1.0772 -0.2902  0.9879
77353SOL    HW243785   7.908   4.503   5.474 -1.0419 -0.4022  0.8591
77354SOL     OW43786  11.205   5.917  10.561  0.0517 -0.0734 -0.6619
77354SOL    HW143787  11.265   5.883  10.628  0.1338 -0.4763 -0.9348
77354SOL    HW243788  11.163   5.839  10.526 -2.0916  0.3099  0.8576
77355SOL     OW43789   5.678  13.176  12.797 -0.2169  0.0626 -0.3367
77355SOL    HW143790   5.677  13.266  12.764 -0.9420 -0.1347 -0.8545
77355SOL    HW243791   5.678  13.121  12.719  0.6211 -0.3970 -0.0297
77356SOL     OW43792  10.570   3.248  11.010  0.5509 -0.3040  0.0549
77356SOL    HW143793  10.475   3.241  10.996  0.6839  0.5697 -1.4420
77356SOL    HW243794  10.601   3.157  11.005 -0.1476 -0.5616  0.1555
77357SOL     OW43795  12.050  12.610   4.714 -0.2951 -0.4435  0.4559
77357SOL    HW143796  11.989  12.612   4.641 -0.6866 -2.8770  0.6325
77357SOL    HW243797  12.136  12.618   4.673 -0.6268  3.0215  0.2082
77358SOL     OW43798   6.201   0.854   0.554  0.2348 -0.1204 -0.0922
77358SOL    HW143799   6.260   0.929   0.552 -0.3522  0.3449 -0.3441
77358SOL    HW243800   6.117   0.890   0.583 -0.6047 -0.2648 -2.1596
77359SOL     OW43801  10.824   9.220   7.231  0.5348 -0.1649  0.2164
77359SOL    HW143802  10.853   9.299   7.185  0.2179 -0.7410 -1.0167
77359SOL    HW243803  10.893   9.156   7.214 -0.1965 -0.7766 -0.6036
77360SOL     OW43804  13.374  12.140   7.897 -0.5193 -0.3143 -0.1889
77360SOL    HW143805  13.449  12.199   7.892  0.2076 -1.1176  0.8828
77360SOL    HW243806  13.405  12.057   7.862 -0.1862 -1.2861  2.1687
77361SOL     OW43807   2.699   3.859  13.529  0.0892  0.5882  0.1813
77361SOL    HW143808   2.744   3.792  13.579  0.9204  0.7053 -0.3951
77361SOL    HW243809   2.768   3.906  13.483 -0.6925 -0.2192 -1.9558
77362SOL     OW43810   5.498  10.502   5.399 -0.2437 -0.4168  0.1554
77362SOL    HW143811   5.497  10.586   5.353  2.0325 -0.2823  0.2280
77362SOL    HW243812   5.440  10.514   5.474  1.1529  1.6470  0.9878
77363SOL     OW43813   0.226   7.592   2.061 -0.2740 -0.2312  0.0940
77363SOL    HW143814   0.286   7.666   2.060  0.0041 -0.4580 -0.2310
77363SOL    HW243815   0.227   7.561   2.151 -0.2943  0.0779  0.2022
77364SOL     OW43816  10.571  13.147   5.908 -0.0727 -0.7682 -0.2694
77364SOL    HW143817  10.478  13.143   5.931  0.1792  0.1708  0.9374
77364SOL    HW243818  10.591  13.058   5.878 -1.6435 -0.6793 -1.7483
77365SOL     OW43819   9.066   5.991   2.974 -0.0845  0.1398 -0.1250
77365SOL    HW143820   9.073   5.896   2.975  0.3360  0.1187 -1.8101
77365SOL    HW243821   9.151   6.022   3.004 -0.3341  0.0080  0.7558
77366SOL     OW43822   8.453   4.657   6.520 -0.0621 -0.1447 -0.1645
77366SOL    HW143823   8.455   4.607   6.602  0.2838 -1.2728 -0.8450
77366SOL    HW243824   8.460   4.591   6.451  3.0285  0.9722 -1.0708
77367SOL     OW43825   4.707   9.375  11.691 -0.2780 -0.2645 -0.6133
77367SOL    HW143826   4.765   9.362  11.617 -0.5529 -1.2425 -0.6672
77367SOL    HW243827   4.619   9.365  11.655 -0.4086 -0.8514 -0.1471
77368SOL     OW43828   0.876   5.615   2.963  0.0013  0.1940  0.4861
77368SOL    HW143829   0.887   5.670   2.885  0.3687  0.8176  0.9752
77368SOL    HW243830   0.954   5.560   2.965  0.3448  0.6864  0.8137
77369SOL     OW43831   9.360  10.236   9.505 -0.3956 -0.8325 -0.0761
77369SOL    HW143832   9.421  10.176   9.547  2.0604  0.9632 -0.8008
77369SOL    HW243833   9.277  10.223   9.551  1.3368 -1.1193  3.2824
77370SOL     OW43834  11.857   2.988  12.243  0.1909 -0.5300 -0.3084
77370SOL    HW143835  11.772   2.956  12.272 -0.9586  1.8557 -0.8309
77370SOL    HW243836  11.913   2.910  12.243 -1.6755 -1.9615  1.0946
77371SOL     OW43837   0.903   0.846   7.718 -0.7654 -0.3205  0.1958
77371SOL    HW143838   0.936   0.919   7.769 -1.3745 -0.1335  0.3175
77371SOL    HW243839   0.817   0.874   7.687 -0.8663 -0.8575 -0.0226
77372SOL     OW43840   8.950  13.016   9.479  0.1395 -0.0021 -0.2856
77372SOL    HW143841   8.954  13.027   9.384 -0.8906  0.6650 -0.2619
77372SOL    HW243842   8.860  12.988   9.496 -0.3980  2.0958  0.6825
77373SOL     OW43843   4.454   1.380   9.782  0.6448  0.6116 -0.4153
77373SOL    HW143844   4.480   1.341   9.699  1.6800  1.2027 -0.3993
77373SOL    HW243845   4.445   1.306   9.842  0.7544  0.2515 -0.8390
77374SOL     OW43846  11.853   2.355   1.816 -0.0080 -0.1329  0.1417
77374SOL    HW143847  11.915   2.283   1.800 -0.9908 -0.8704 -0.4418
77374SOL    HW243848  11.791   2.319   1.880 -1.6220 -0.5212 -1.5489
77375SOL     OW43849   7.202   2.639   9.882  0.1416 -0.2217 -0.4760
77375SOL    HW143850   7.205   2.579   9.957  2.6918  0.3124 -0.0474
77375SOL    HW243851   7.172   2.722   9.919  1.5654  0.0890  0.0535
77376SOL     OW43852   3.789   3.812  13.028  0.5304  0.0375  0.4027
77376SOL    HW143853   3.781   3.859  13.111  3.9026  0.6739  0.5117
77376SOL    HW243854   3.883   3.798  13.017  0.0197 -2.6771 -1.8976
77377SOL     OW43855   6.634  13.111  12.559 -0.5445  0.7820 -0.2717
77377SOL    HW143856   6.638  13.049  12.631  1.0228 -0.1184 -1.0789
77377SOL    HW243857   6.665  13.194  12.596  0.9331  0.1602 -0.0479
77378SOL     OW43858   3.108  11.607   5.454 -0.2411  0.4087  0.5754
77378SOL    HW143859   3.162  11.537   5.418 -0.2677  0.4515  0.4524
77378SOL    HW243860   3.131  11.684   5.402 -0.0680  0.5354  0.8373
77379SOL     OW43861   2.673  12.562   7.551  0.1992  0.4178 -0.3898
77379SOL    HW143862   2.646  12.633   7.609 -0.1297  0.3809 -0.4993
77379SOL    HW243863   2.768  12.576   7.540  0.2488  0.4680  0.0873
77380SOL     OW43864   6.284   3.313  11.163 -0.3878  0.0085 -0.6008
77380SOL    HW143865   6.333   3.363  11.096  1.6714 -1.7254 -0.5035
77380SOL    HW243866   6.305   3.222  11.144 -4.1054 -0.9464 -0.8310
77381SOL     OW43867   4.481  13.636   3.720  0.1208 -0.1200  0.2015
77381SOL    HW143868   4.401  13.646   3.772  1.6399 -0.9644  2.9264
77381SOL    HW243869   4.529  13.718   3.732  0.9737 -0.7241  1.1142
77382SOL     OW43870   7.644   5.241   0.679 -0.2761  0.5909  0.4893
77382SOL    HW143871   7.556   5.275   0.698 -0.7804 -0.8355  0.8192
77382SOL    HW243872   7.674   5.204   0.762 -0.5383 -1.4396 -0.2685
77383SOL     OW43873  12.581  10.963   1.259 -0.2935 -0.2698 -0.6017
77383SOL    HW143874  12.637  11.028   1.217 -0.4894 -0.0905 -0.5829
77383SOL    HW243875  12.637  10.885   1.266 -0.6421 -0.7219 -2.3564
77384SOL     OW43876   9.110   7.236   7.137 -0.2537  0.7635  0.1698
77384SOL    HW143877   9.032   7.245   7.193 -0.4820 -1.2815  0.2687
77384SOL    HW243878   9.118   7.141   7.124  1.6530  1.0110 -0.6619
77385SOL     OW43879  13.526   7.242   9.489  0.5266  0.5338  0.1035
77385SOL    HW143880  13.566   7.242   9.402  0.9166 -0.4893  0.2756
77385SOL    HW243881  13.595   7.210   9.547  0.7595  2.5240  1.0385
77386SOL     OW43882   1.542   6.542   4.472 -0.1282  0.0341 -0.5712
77386SOL    HW143883   1.499   6.627   4.470 -2.1660 -0.9342 -0.4318
77386SOL    HW243884   1.636   6.562   4.467 -0.4422  2.3549  1.1372
77387SOL     OW43885  11.329   3.298   5.875  0.1050 -0.4081  0.1710
77387SOL    HW143886  11.374   3.343   5.803 -0.2441 -0.5573 -0.1455
77387SOL    HW243887  11.379   3.321   5.953  1.8251 -2.0286 -0.3947
77388SOL     OW43888   6.446   4.113  12.295  0.1262  0.5268 -0.5464
77388SOL    HW143889   6.471   4.096  12.204 -1.5436  3.3066 -1.6321
77388SOL    HW243890   6.355   4.142  12.290  0.7854  3.4156  1.6411
77389SOL     OW43891   3.627   7.419   0.135  0.0864  0.0282 -0.3599
77389SOL    HW143892   3.640   7.443   0.227  1.5097 -0.2805 -0.4630
77389SOL    HW243893   3.659   7.494   0.086  0.5433 -0.3358 -0.6187
77390SOL     OW43894   0.399   4.346  13.433  0.1731 -0.6326  0.2349
77390SOL    HW143895   0.309   4.358  13.465 -0.2102 -0.2173 -0.9384
77390SOL    HW243896   0.400   4.390  13.348  1.0577 -1.9916 -0.4873
77391SOL     OW43897  13.736  11.097  10.146 -0.6608  0.1438 -0.3630
77391SOL    HW143898  13.718  11.064  10.058  1.0944  0.4132 -0.8542
77391SOL    HW243899  13.675  11.049  10.202 -2.4173  0.5938 -1.7960
77392SOL     OW43900  10.147   7.471   6.834  0.0036 -0.0679 -0.1233
77392SOL    HW143901  10.139   7.474   6.929  0.6011  0.4558 -0.0805
77392SOL    HW243902  10.064   7.435   6.804  0.5331 -2.1214  0.6917
77393SOL     OW43903  10.221   1.177  11.389  0.1750  0.1322  0.3867
77393SOL    HW143904  10.228   1.086  11.419  0.4608  0.0559  0.0959
77393SOL    HW243905  10.225   1.171  11.294 -0.4587  0.3973  0.3416
77394SOL     OW43906   3.168   7.469   1.252  0.6810  0.0583  0.1264
77394SOL    HW143907   3.218   7.550   1.249  1.1925 -0.2235  0.6944
77394SOL    HW243908   3.192   7.423   1.172 -2.6377  2.1550 -2.3019
77395SOL     OW43909   7.903   0.009   0.599  0.0664  0.1752  0.9247
77395SOL    HW143910   7.861   0.039   0.680 -2.0333  0.7209 -0.2719
77395SOL    HW243911   7.868  -0.079   0.586  0.0706  0.2479  0.4166
77396SOL     OW43912   7.517   5.478  10.772 -0.0198 -0.0736  0.4303
77396SOL    HW143913   7.457   5.458  10.843 -0.8793  0.3644 -0.1588
77396SOL    HW243914   7.599   5.435  10.797  0.0891  1.0912  2.2919
77397SOL     OW43915   3.967   2.079   7.231  0.6695  0.1338 -0.4892
77397SOL    HW143916   3.899   2.146   7.230  1.2272  0.8311  2.1680
77397SOL    HW243917   4.049   2.128   7.232  1.1272 -0.6239 -0.1239
77398SOL     OW43918  13.011   8.555   7.134 -0.3625  0.0704  0.2503
77398SOL    HW143919  13.093   8.552   7.182  0.1230  0.8712 -0.5178
77398SOL    HW243920  12.963   8.629   7.171 -0.0704  0.5685 -0.3652
77399SOL     OW43921  11.866  11.156   9.165 -0.1493  0.5201  0.4038
77399SOL    HW143922  11.914  11.206   9.099  0.3128 -0.7655 -0.2820
77399SOL    HW243923  11.799  11.109   9.116 -0.2625  0.1019  0.9516
77400SOL     OW43924  13.424  13.280  10.493 -0.1954 -0.2521 -0.1219
77400SOL    HW143925  13.370  13.354  10.520 -1.0394  0.6982 -3.7842
77400SOL    HW243926  13.514  13.308  10.512 -0.5913  1.2240 -0.2818
77401SOL     OW43927  13.050   5.361   4.189  0.3566  0.1857  0.2524
77401SOL    HW143928  13.089   5.382   4.104 -1.1230 -0.9284 -0.7366
77401SOL    HW243929  13.086   5.427   4.248 -0.0776  2.2457 -1.6370
77402SOL     OW43930   2.090   8.990  10.194  0.0115  0.1912  0.2989
77402SOL    HW143931   2.090   9.085  10.206  2.7632  0.0654  2.3272
77402SOL    HW243932   2.013   8.960  10.242 -0.2654  1.3387  0.5896
77403SOL     OW43933  10.391   3.281   7.564 -0.3903 -0.4533 -0.4214
77403SOL    HW143934  10.298   3.304   7.573 -0.2193  0.8602 -1.5886
77403SOL    HW243935  10.397   3.191   7.596 -2.0002 -0.4404 -0.0055
77404SOL     OW43936   9.708   9.052   2.476 -0.2464  0.1228  0.0447
77404SOL    HW143937   9.684   9.118   2.541 -1.7637 -0.0663 -0.2898
77404SOL    HW243938   9.684   8.968   2.516 -1.0816 -0.0059 -0.6735
77405SOL     OW43939   2.745   3.745   3.653 -0.0094 -0.3240 -0.2345
77405SOL    HW143940   2.747   3.822   3.596  0.2479  0.1964  0.4731
77405SOL    HW243941   2.668   3.758   3.709 -0.3787 -0.9313 -0.5823
77406SOL     OW43942  12.822   5.074   1.072 -0.0327 -0.3441 -0.1747
77406SOL    HW143943  12.887   5.053   1.005 -0.5486  1.6497 -1.3813
77406SOL    HW243944  12.873   5.110   1.145  0.3515 -0.4242 -0.4025
77407SOL     OW43945   7.554  13.039  12.790 -0.5521  0.1370 -0.1145
77407SOL    HW143946   7.492  13.110  12.774 -0.1884  0.9368  1.6868
77407SOL    HW243947   7.524  12.999  12.871  0.5364 -0.2898  0.0985
77408SOL     OW43948   2.111  10.118   7.872  0.0101 -0.0531 -0.4424
77408SOL    HW143949   2.182  10.127   7.936 -0.5921  0.3910  0.1635
77408SOL    HW243950   2.079  10.028   7.885 -0.2648  0.1142  0.0373
77409SOL     OW43951  12.809   2.395  11.447  0.3341 -0.1645 -0.3971
77409SOL    HW143952  12.798   2.367  11.357 -2.4159  2.4953 -1.0159
77409SOL    HW243953  12.835   2.487  11.442  0.1683  0.0467  1.5221
77410SOL     OW43954  11.371   9.277   4.479  0.6589  0.0747 -0.3231
77410SOL    HW143955  11.423   9.207   4.440 -1.1941 -1.0909 -0.8326
77410SOL    HW243956  11.329   9.320   4.404 -2.1974 -1.5806  0.2034
77411SOL     OW43957   4.102   0.769   3.407 -0.1407  0.4440  0.8759
77411SOL    HW143958   4.193   0.749   3.383 -0.2106  1.4445 -0.2823
77411SOL    HW243959   4.108   0.801   3.497  0.5017 -0.5716  1.2129
77412SOL     OW43960  13.114   4.897   9.692  0.4179  0.0982  0.1158
77412SOL    HW143961  13.135   4.848   9.613  1.2195  4.0563 -2.4147
77412SOL    HW243962  13.193   4.890   9.746  0.3431 -1.6215  0.0618
77413SOL     OW43963   0.683   9.556  11.966  0.6738  0.5442 -0.4513
77413SOL    HW143964   0.778   9.547  11.961  0.6537  0.4625 -0.6772
77413SOL    HW243965   0.652   9.467  11.984  0.7067  0.7286  0.5874
77414SOL     OW43966  13.292   6.148   1.736  0.2194 -0.8933 -0.1381
77414SOL    HW143967  13.372   6.196   1.714 -0.2048 -0.9027 -1.8714
77414SOL    HW243968  13.247   6.138   1.652 -2.5258  0.7115  1.0284
77415SOL     OW43969   2.293  12.815  11.796 -0.0379 -0.1826  0.2259
77415SOL    HW143970   2.363  12.834  11.734 -1.3050  0.0341 -1.1745
77415SOL    HW243971   2.244  12.897  11.803  0.8027  0.2079  2.5407
77416SOL     OW43972   7.008   7.829   5.355 -0.1629  0.5260  0.0874
77416SOL    HW143973   7.102   7.814   5.368 -0.0152  1.6953  0.5090
77416SOL    HW243974   7.004   7.898   5.289 -0.6539  1.7562  1.3550
77417SOL     OW43975   8.355   7.220   2.406  0.0424  0.7827 -0.6784
77417SOL    HW143976   8.433   7.166   2.390 -1.4583 -1.2519 -1.6037
77417SOL    HW243977   8.383   7.309   2.385  2.6986  0.4839  1.1429
77418SOL     OW43978   4.633   2.498  12.135  0.2388  0.4340 -0.2056
77418SOL    HW143979   4.633   2.424  12.075  3.0613 -0.2325  0.4972
77418SOL    HW243980   4.706   2.553  12.105  0.4065  1.1290  1.3848
77419SOL     OW43981   2.545   7.593  13.452 -0.1016  0.4340 -0.8041
77419SOL    HW143982   2.586   7.526  13.507 -0.0528  1.1694  0.0770
77419SOL    HW243983   2.613   7.619  13.390  0.9914  1.9850  0.9413
77420SOL     OW43984   6.791  10.538   6.665 -0.6033 -0.6521 -0.3097
77420SOL    HW143985   6.821  10.545   6.756 -0.9402 -3.5083  0.1270
77420SOL    HW243986   6.871  10.545   6.613 -0.4309  1.2073  0.1346
77421SOL     OW43987   2.885   4.653  12.682 -0.2204  0.1294  0.0529
77421SOL    HW143988   2.901   4.644  12.776 -1.6117  0.9670  0.3957
77421SOL    HW243989   2.971   4.675  12.645  0.7040 -1.8380  0.8583
77422SOL     OW43990   4.194   4.004  10.838 -0.4068 -0.6950 -0.3056
77422SOL    HW143991   4.281   4.022  10.803  0.7341 -3.2198  0.9465
77422SOL    HW243992   4.188   4.059  10.917  0.3653 -1.0209 -0.0113
77423SOL     OW43993   2.394  12.181  11.914 -0.0565  0.1892 -0.0534
77423SOL    HW143994   2.327  12.114  11.918 -0.9293  0.9968 -0.6881
77423SOL    HW243995   2.456  12.150  11.848  0.3214 -0.6511  0.6806
77424SOL     OW43996   5.862   2.232  13.307  0.3286 -0.2570  0.1453
77424SOL    HW143997   5.793   2.195  13.361  1.0012 -2.1905 -0.2448
77424SOL    HW243998   5.911   2.289  13.366  0.4408 -1.5336  1.3274
77425SOL     OW43999   3.840   5.735   3.871  0.0585 -0.8309  0.1285
77425SOL    HW144000   3.932   5.745   3.897 -0.1700  0.6160  0.4289
77425SOL    HW244001   3.838   5.652   3.823  2.0146  0.2609 -2.0205
77426SOL     OW44002   1.104  11.949   6.581  0.5642  0.5573 -0.3811
77426SOL    HW144003   1.129  11.929   6.491 -0.4481  0.2923 -0.6107
77426SOL    HW244004   1.101  12.045   6.584  2.1527  0.6409 -0.1760
77427SOL     OW44005   5.981   9.665  12.036  0.0100  0.1227  0.0333
77427SOL    HW144006   5.911   9.627  12.089  0.4635  1.6029  1.8015
77427SOL    HW244007   6.009   9.742  12.085  1.6115  0.6273 -1.5649
77428SOL     OW44008  13.160  13.426   4.704  0.4291  0.1473  0.3382
77428SOL    HW144009  13.112  13.390   4.779 -3.0577  0.4538 -1.5471
77428SOL    HW244010  13.159  13.521   4.719 -0.3775  0.2176 -0.1042
77429SOL     OW44011  11.358  12.787   1.453  0.1763 -0.2236  0.2183
77429SOL    HW144012  11.372  12.706   1.502  1.2652  0.1235  0.5305
77429SOL    HW244013  11.366  12.856   1.519  1.0123  0.2161 -0.3282
77430SOL     OW44014   2.266  12.835  12.368 -0.4252  0.3753  0.0543
77430SOL    HW144015   2.356  12.856  12.343 -0.3326 -0.0068  0.0685
77430SOL    HW244016   2.254  12.743  12.343 -0.3287 -0.0287  1.4253
77431SOL     OW44017   8.963   8.970  11.006  0.1527 -0.1312  0.0416
77431SOL    HW144018   9.002   9.056  10.990 -0.3072  0.1509  0.4037
77431SOL    HW244019   9.022   8.930  11.070  1.6927 -1.0526 -1.8432
77432SOL     OW44020  11.570  11.369   3.125  0.5587 -0.5608 -0.4549
77432SOL    HW144021  11.660  11.398   3.138  0.0789  1.0594 -0.4967
77432SOL    HW244022  11.533  11.367   3.213  0.4114 -0.4346 -0.5135
77433SOL     OW44023   4.101   5.357   7.880 -0.4195  0.6380 -0.8220
77433SOL    HW144024   4.075   5.307   7.957  1.7212  1.2416  0.3856
77433SOL    HW244025   4.033   5.339   7.815 -0.8433 -2.1386  0.2488
77434SOL     OW44026   9.597   0.834   7.649  0.0777 -0.0619  0.1609
77434SOL    HW144027   9.620   0.925   7.633  0.5237  0.0752  1.4264
77434SOL    HW244028   9.513   0.838   7.696 -0.8183 -0.4043 -1.3507
77435SOL     OW44029  13.004   0.914   6.906  0.2194  0.0090 -0.2398
77435SOL    HW144030  13.015   0.975   6.833  2.4083 -0.0919 -0.0795
77435SOL    HW244031  12.940   0.955   6.963  1.8651  2.3911  0.0329
77436SOL     OW44032   8.942   0.877   4.260 -0.6505  0.4320  0.3589
77436SOL    HW144033   8.899   0.794   4.244 -0.4245  0.3980 -0.0997
77436SOL    HW244034   9.023   0.873   4.208  0.0385  0.3862  1.4111
77437SOL     OW44035   4.733  11.170   4.106 -0.1453  0.0130 -0.1924
77437SOL    HW144036   4.704  11.223   4.180  0.6403 -1.4000  1.1758
77437SOL    HW244037   4.791  11.228   4.056  0.1878  0.6549  0.9104
77438SOL     OW44038   6.619  10.241  11.911  0.0149  0.2210 -0.2336
77438SOL    HW144039   6.608  10.213  11.820  0.4996  0.3009 -0.3155
77438SOL    HW244040   6.645  10.333  11.905  0.4997  0.0991 -0.0303
77439SOL     OW44041   8.889   8.248   4.357 -0.4526 -0.2583 -0.2774
77439SOL    HW144042   8.865   8.214   4.271  1.0243 -3.2997  0.3779
77439SOL    HW244043   8.938   8.177   4.398 -1.1431  1.0503  3.1305
77440SOL     OW44044   6.108   6.110   5.968 -0.0398 -0.3054  0.1570
77440SOL    HW144045   6.061   6.043   5.917 -0.2724  1.6250 -2.3682
77440SOL    HW244046   6.050   6.130   6.041 -0.8570 -1.4583 -0.1510
77441SOL     OW44047   9.527  10.577  13.355 -0.7046 -0.3231  0.1300
77441SOL    HW144048   9.615  10.597  13.324 -0.6925 -1.1378 -0.3895
77441SOL    HW244049   9.511  10.488  13.325 -1.9899  0.0766 -0.4353
77442SOL     OW44050   3.587  10.505   9.735 -0.8348  0.5120 -0.4433
77442SOL    HW144051   3.601  10.599   9.720 -0.8031  0.5764 -0.0401
77442SOL    HW244052   3.675  10.468   9.738 -0.8648  0.3439 -1.3304
77443SOL     OW44053   2.174   8.034   5.831 -0.0317  0.4702 -0.4308
77443SOL    HW144054   2.200   8.037   5.923 -0.8434  0.7322 -0.2015
77443SOL    HW244055   2.107   7.966   5.827 -0.3684  0.8124 -0.7315
77444SOL     OW44056   0.654  10.951   5.571 -0.0185  0.2947 -0.2015
77444SOL    HW144057   0.666  11.001   5.651 -0.8194  0.9501 -0.4772
77444SOL    HW244058   0.603  11.009   5.514 -2.6550 -1.4830  0.1578
77445SOL     OW44059   7.455   8.498  11.892 -0.4494 -0.3889  0.1914
77445SOL    HW144060   7.403   8.436  11.943  0.1082 -1.5693 -0.6228
77445SOL    HW244061   7.447   8.466  11.802 -0.9020  1.2801 -0.3880
77446SOL     OW44062   4.547   0.445   8.864 -0.3727  0.2432  0.4254
77446SOL    HW144063   4.455   0.421   8.850  0.0358 -0.0131 -2.6544
77446SOL    HW244064   4.558   0.528   8.817  1.0068  0.1093  0.4614
77447SOL     OW44065   8.522  10.479   1.204 -0.2532 -0.3791  0.1030
77447SOL    HW144066   8.466  10.446   1.274 -0.0315 -0.3118  0.3153
77447SOL    HW244067   8.549  10.401   1.156  1.5255 -0.7039  1.5406
77448SOL     OW44068   5.451  10.482   3.481 -0.3793  0.4267 -0.2415
77448SOL    HW144069   5.367  10.447   3.451 -1.6109  1.8221  1.3531
77448SOL    HW244070   5.503  10.405   3.501 -0.3548 -0.5187 -3.4573
77449SOL     OW44071   9.608  13.360   9.085  0.6383  0.0248  0.0849
77449SOL    HW144072   9.596  13.412   9.164 -2.1190  1.5387 -1.1736
77449SOL    HW244073   9.647  13.422   9.022 -0.3522 -0.1339 -0.7058
77450SOL     OW44074   0.049   8.728   5.854 -0.1755 -0.4305  0.0888
77450SOL    HW144075   0.134   8.685   5.862 -0.8399 -1.5883  1.4253
77450SOL    HW244076   0.051   8.797   5.920 -0.1635 -0.2563 -0.0927
77451SOL     OW44077  10.595   4.903  10.798  0.0459  0.7088  0.5453
77451SOL    HW144078  10.623   4.831  10.855 -0.2642 -0.0426 -0.2313
77451SOL    HW244079  10.675   4.954  10.784  0.4407  0.0790  0.4753
77452SOL     OW44080  11.733   5.485  10.348 -0.1128  0.0673  0.0513
77452SOL    HW144081  11.652   5.442  10.324 -0.3732  0.2001  0.6769
77452SOL    HW244082  11.730   5.492  10.443  0.6589  0.0197  0.0887
77453SOL     OW44083  11.930  10.204   7.943 -0.1965 -0.0001 -0.0686
77453SOL    HW144084  11.917  10.113   7.915  1.4201  0.1439 -1.4724
77453SOL    HW244085  11.883  10.256   7.878 -1.0436  0.1987  0.6818
77454SOL     OW44086  10.890   4.663   5.136 -0.8058  0.2087 -0.8383
77454SOL    HW144087  10.881   4.673   5.231 -1.9173  1.4418 -1.0451
77454SOL    HW244088  10.917   4.572   5.124 -1.5809 -0.2445  0.6073
77455SOL     OW44089   4.414  12.414   0.168  0.2975  0.1013 -0.3701
77455SOL    HW144090   4.345  12.347   0.170 -1.7582  2.0616 -1.1806
77455SOL    HW244091   4.463  12.396   0.088  0.5456 -1.1143  0.0358
77456SOL     OW44092  10.349   9.984   2.655 -0.2110  0.2367  0.0415
77456SOL    HW144093  10.429   9.935   2.640 -0.5659 -0.5023  0.5387
77456SOL    HW244094  10.294   9.964   2.579 -0.5923 -0.6334  0.5335
77457SOL     OW44095   7.425  11.323   6.336  0.0928 -0.2993  0.1620
77457SOL    HW144096   7.508  11.307   6.291  0.0846 -1.6141  0.5833
77457SOL    HW244097   7.436  11.410   6.376  0.1671  0.8210 -2.1455
77458SOL     OW44098   4.178   4.009   8.811 -0.5671  0.4303  0.0678
77458SOL    HW144099   4.262   3.974   8.779 -1.0037 -0.4421 -0.1558
77458SOL    HW244100   4.117   3.994   8.739 -0.7249  1.9200 -0.1373
77459SOL     OW44101   4.569   2.425   3.358  0.3580 -0.1416 -0.2799
77459SOL    HW144102   4.628   2.381   3.419  0.9444 -0.3370 -0.9686
77459SOL    HW244103   4.499   2.362   3.342  0.3424 -0.1924 -0.0211
77460SOL     OW44104   8.577   6.958  11.639  0.0425 -0.1893 -0.0640
77460SOL    HW144105   8.530   7.020  11.583 -1.3087 -0.8011  0.3599
77460SOL    HW244106   8.579   6.999  11.725  0.2683 -0.1772 -0.0740
77461SOL     OW44107   7.127   9.605   4.907 -0.0842  0.0372  0.0606
77461SOL    HW144108   7.035   9.578   4.909  0.4749 -2.0490  0.4433
77461SOL    HW244109   7.153   9.610   4.999  0.3666 -0.0876 -0.0556
77462SOL     OW44110   7.606   9.513   4.062  0.2981 -0.1704  0.4279
77462SOL    HW144111   7.541   9.447   4.037 -0.5893 -0.8174  3.9292
77462SOL    HW244112   7.690   9.470   4.049 -0.1979 -1.3397  0.9545
77463SOL     OW44113   0.072   0.104   9.087 -0.2625  0.0041 -0.4136
77463SOL    HW144114   0.035   0.146   9.009 -1.7843  2.1907  1.3556
77463SOL    HW244115   0.100   0.177   9.143  2.5405 -1.5208  0.3610
77464SOL     OW44116  10.446   7.516   4.578 -0.7534 -0.1851 -0.3679
77464SOL    HW144117  10.476   7.599   4.613 -0.5358  0.1797 -1.3707
77464SOL    HW244118  10.522   7.482   4.530 -1.0142 -0.6895 -0.4292
77465SOL     OW44119  12.790   8.221   1.593  0.4352 -0.6603 -0.4424
77465SOL    HW144120  12.734   8.226   1.515  0.5029  0.0130 -0.4566
77465SOL    HW244121  12.862   8.164   1.568  0.7431 -0.0193 -1.0674
77466SOL     OW44122   9.777   4.925  11.838  0.4235  0.0546 -0.1221
77466SOL    HW144123   9.844   4.969  11.891 -2.7783  2.9035  1.9540
77466SOL    HW244124   9.777   4.973  11.755  0.1064  0.9177  0.3679
77467SOL     OW44125   6.357  13.146   3.003  0.2226 -0.3807  0.0794
77467SOL    HW144126   6.437  13.192   2.980  1.1251 -3.1566 -3.0058
77467SOL    HW244127   6.286  13.198   2.964  0.8307  0.2214 -0.2314
77468SOL     OW44128   9.763  12.661   1.679 -0.1279 -0.2825 -0.4203
77468SOL    HW144129   9.684  12.696   1.719  0.4892 -0.1642  0.7475
77468SOL    HW244130   9.776  12.576   1.721  0.0037 -0.6045 -1.0931
77469SOL     OW44131  13.652  11.199   7.934  0.5900 -0.1119 -0.0159
77469SOL    HW144132  13.706  11.121   7.926  0.2190 -0.2487 -1.4439
77469SOL    HW244133  13.693  11.249   8.005  1.2823 -1.2317  0.3954
77470SOL     OW44134   8.276   6.023   7.465 -0.4316 -0.0264  0.3445
77470SOL    HW144135   8.240   6.110   7.482  1.4933  1.1774 -1.3129
77470SOL    HW244136   8.370   6.035   7.469 -0.0760 -1.6602 -1.5579
77471SOL     OW44137   6.224   3.762  11.435  0.0921 -0.2232 -0.3254
77471SOL    HW144138   6.241   3.668  11.442  0.0613 -0.4142 -2.2981
77471SOL    HW244139   6.305   3.799  11.401  0.1172  0.5006  0.4727
77472SOL     OW44140  11.328   8.141  13.431  0.5611 -0.4883 -0.5022
77472SOL    HW144141  11.345   8.107  13.343  2.0956 -0.5963 -0.1923
77472SOL    HW244142  11.409   8.123  13.480  0.5815  1.5681  0.3119
77473SOL     OW44143   9.335  11.948   2.718  0.1634 -0.1625  0.0161
77473SOL    HW144144   9.341  11.870   2.663 -0.8226 -1.6022  1.8467
77473SOL    HW244145   9.378  11.923   2.801 -0.1139  1.2614  0.6280
77474SOL     OW44146   4.281  11.996  11.946 -0.0796  0.0736 -0.1662
77474SOL    HW144147   4.205  11.970  11.893 -0.7687 -1.3731  1.4756
77474SOL    HW244148   4.278  12.092  11.946 -2.4529  0.0545  0.5757
77475SOL     OW44149  12.388   8.240   4.317  0.4529 -0.2110 -0.0864
77475SOL    HW144150  12.431   8.179   4.379  0.5707  0.4366  0.4868
77475SOL    HW244151  12.311   8.193   4.287 -0.7887  0.2123  2.1705
77476SOL     OW44152   0.846   3.611   8.724 -0.0402 -0.3513  0.0266
77476SOL    HW144153   0.832   3.705   8.707 -0.0748 -0.3512  0.0558
77476SOL    HW244154   0.938   3.605   8.750  0.0435 -0.3669 -0.2719
77477SOL     OW44155   8.391   7.192   5.956 -0.7985  0.2016  0.1953
77477SOL    HW144156   8.305   7.153   5.938  0.0017 -0.8868 -1.6672
77477SOL    HW244157   8.410   7.245   5.878  0.4816 -0.1249  0.2553
77478SOL     OW44158  12.512   9.784   4.847 -0.1949 -0.2424  0.2273
77478SOL    HW144159  12.587   9.807   4.792  0.9919  0.4185  2.0256
77478SOL    HW244160  12.470   9.868   4.867  0.2345 -0.2994  1.4516
77479SOL     OW44161   4.080  10.744   9.391  0.4347  0.4802  0.4063
77479SOL    HW144162   4.119  10.658   9.376 -0.3454  0.4067 -1.4840
77479SOL    HW244163   4.147  10.792   9.441  1.1273 -1.0026  0.9651
77480SOL     OW44164   8.372   2.605   4.603  0.1133  0.2845 -0.2538
77480SOL    HW144165   8.439   2.624   4.537  0.3299 -0.1496 -0.1599
77480SOL    HW244166   8.316   2.540   4.561  1.5194 -1.6895  0.7687
77481SOL     OW44167   4.810   7.353  12.363  0.1836  0.3881 -0.2719
77481SOL    HW144168   4.835   7.261  12.370 -1.2655 -0.1078 -0.9597
77481SOL    HW244169   4.804   7.384  12.453  0.9095 -0.1297 -0.0429
77482SOL     OW44170   3.527   9.857   5.800  0.5833 -0.0764 -0.1897
77482SOL    HW144171   3.560   9.779   5.846  0.0710 -0.2864 -0.1732
77482SOL    HW244172   3.606   9.905   5.775  0.9257 -0.8868 -0.6995
77483SOL     OW44173  10.263  11.677   3.201  0.0955 -0.7853  0.2724
77483SOL    HW144174  10.217  11.757   3.177 -1.0657 -1.1734  1.0809
77483SOL    HW244175  10.350  11.686   3.162  0.1423  1.0569  0.6899
77484SOL     OW44176   0.315   4.653  10.979 -0.2731  0.2694  0.1044
77484SOL    HW144177   0.293   4.719  10.913 -0.7652  1.8183  1.7413
77484SOL    HW244178   0.231   4.625  11.014 -0.0095 -0.3624  0.2415
77485SOL     OW44179   7.696  13.043   6.532 -0.6194 -0.2991  0.5013
77485SOL    HW144180   7.642  13.083   6.464 -0.1898 -1.6320 -0.6866
77485SOL    HW244181   7.634  13.013   6.598 -1.2017 -0.4326 -0.0966
77486SOL     OW44182   1.006   5.221  10.339 -0.0066  0.1102  0.1502
77486SOL    HW144183   1.076   5.218  10.274 -0.3757 -0.7502 -0.2241
77486SOL    HW244184   1.047   5.256  10.418  0.8733 -0.4612 -0.0410
77487SOL     OW44185   5.690   1.142  11.980  0.3632 -0.2896 -0.1650
77487SOL    HW144186   5.666   1.178  11.894  1.0727  0.4996 -0.0511
77487SOL    HW244187   5.766   1.194  12.006 -1.6979  1.7538  2.4063
77488SOL     OW44188   9.068   7.742   3.809 -0.4249 -0.0275 -0.3933
77488SOL    HW144189   8.976   7.724   3.793 -0.1694 -0.8549 -1.0389
77488SOL    HW244190   9.079   7.834   3.786 -0.8464 -0.2427 -1.5557
77489SOL     OW44191   4.117   6.032   9.353 -0.0869  0.0976 -0.6342
77489SOL    HW144192   4.174   6.079   9.292  0.1530 -0.0793 -0.5481
77489SOL    HW244193   4.177   5.996   9.418 -0.3174  0.0674 -0.4379
77490SOL     OW44194   0.334   2.276   0.258  0.3644 -0.2449  0.1478
77490SOL    HW144195   0.247   2.237   0.271  1.7610 -3.1973  1.5096
77490SOL    HW244196   0.359   2.307   0.346  0.7350  0.6227 -0.2490
77491SOL     OW44197   3.662   1.765  10.378  0.0220  0.3856 -0.0604
77491SOL    HW144198   3.588   1.705  10.391  0.0835  0.0828 -1.0146
77491SOL    HW244199   3.623   1.844  10.341  0.1232  0.3896 -0.1576
77492SOL     OW44200   1.470   2.361   8.693  0.4796  0.0687  0.0238
77492SOL    HW144201   1.392   2.311   8.718  0.9340 -0.5207  0.2983
77492SOL    HW244202   1.458   2.447   8.733  1.1561 -0.8201  2.2770
77493SOL     OW44203   2.329  11.628  13.721 -0.2817 -0.6758 -0.3526
77493SOL    HW144204   2.367  11.699  13.772  0.0053 -0.4458 -0.8779
77493SOL    HW244205   2.340  11.655  13.630 -3.5570  0.3950 -0.5797
77494SOL     OW44206   9.783   9.355  12.764 -0.1573  0.4451  0.3128
77494SOL    HW144207   9.728   9.308  12.826 -0.1897  0.3468  0.2118
77494SOL    HW244208   9.724   9.419  12.724 -0.8032 -1.0925 -1.3839
77495SOL     OW44209  11.206   9.928  13.173 -1.2747  0.2191  0.0613
77495SOL    HW144210  11.240   9.845  13.140  0.7622  0.5423  1.1799
77495SOL    HW244211  11.246   9.994  13.117 -2.5288  0.4948 -0.5359
77496SOL     OW44212  12.765  13.570   4.759 -0.4483 -0.1164  0.0726
77496SOL    HW144213  12.773  13.665   4.761 -0.9541 -0.0684 -0.1550
77496SOL    HW244214  12.815  13.543   4.682  0.1895 -0.0900  0.4672
77497SOL     OW44215  10.508   2.189   2.528  0.6604  0.2297  0.4160
77497SOL    HW144216  10.534   2.146   2.610  2.0433 -0.9183 -0.5849
77497SOL    HW244217  10.414   2.173   2.522  0.6845 -0.3603  1.3877
77498SOL     OW44218  13.635  12.480   7.201 -0.3524 -0.1513 -0.0626
77498SOL    HW144219  13.638  12.391   7.237  0.5983 -1.2741 -2.6969
77498SOL    HW244220  13.549  12.486   7.159 -0.6884  0.4620  0.6820
77499SOL     OW44221   2.146  10.156  13.672 -0.3882  0.0594  0.1175
77499SOL    HW144222   2.185  10.225  13.617  1.3083 -0.2374  0.8796
77499SOL    HW244223   2.163  10.075  13.624  0.4111 -0.1222  0.6904
77500SOL     OW44224   7.387  12.018   3.442 -0.0257  0.3486 -0.0525
77500SOL    HW144225   7.383  12.093   3.383 -2.1468  0.4730  0.1822
77500SOL    HW244226   7.443  11.955   3.396  2.1465  2.1635 -0.0722
77501SOL     OW44227   7.477   3.138   2.164  0.2722  0.2869  0.4244
77501SOL    HW144228   7.480   3.210   2.101 -0.6631 -0.3410 -0.3672
77501SOL    HW244229   7.386   3.108   2.161  0.4047 -0.2583  1.5154
77502SOL     OW44230   8.085  11.137   5.431 -0.3689 -0.5982 -0.0301
77502SOL    HW144231   8.116  11.049   5.453 -0.2539 -0.8479 -1.1549
77502SOL    HW244232   8.036  11.127   5.350 -0.4580  0.3596 -0.1144
77503SOL     OW44233   2.561   2.495   2.791  0.3001 -0.1064  0.0647
77503SOL    HW144234   2.471   2.467   2.806  1.2774 -3.6004  0.5343
77503SOL    HW244235   2.598   2.424   2.737  3.6092 -0.6007  2.6814
77504SOL     OW44236   9.677   5.994  13.130 -0.5806 -0.8252  0.5990
77504SOL    HW144237   9.593   6.038  13.145  0.8788  1.4647  2.7841
77504SOL    HW244238   9.700   6.016  13.040 -1.0176  1.0047  0.8914
77505SOL     OW44239  12.717   3.416   4.827 -0.7281 -0.1648  0.0471
77505SOL    HW144240  12.772   3.464   4.889 -0.6558 -1.0381  0.6815
77505SOL    HW244241  12.693   3.481   4.761  0.7049  0.3500 -0.0047
77506SOL     OW44242   0.672   3.817   2.228 -0.4380  0.6713 -0.4734
77506SOL    HW144243   0.632   3.873   2.161 -2.2429  0.4973  0.3879
77506SOL    HW244244   0.614   3.827   2.304  1.1495  0.3097  0.8379
77507SOL     OW44245   0.539   3.393  11.979 -0.0778 -0.6294 -0.2000
77507SOL    HW144246   0.457   3.395  12.028  1.1923 -0.8476  2.0732
77507SOL    HW244247   0.586   3.317  12.013  1.7327  0.4015 -0.2515
77508SOL     OW44248   8.755  10.915   9.918  0.4188  0.4281 -0.2766
77508SOL    HW144249   8.781  10.824   9.932  0.3325  0.3591 -0.5726
77508SOL    HW244250   8.667  10.910   9.882  0.5944  0.6117 -0.7406
77509SOL     OW44251   5.008   9.166   7.271 -0.1333 -0.0370 -0.4155
77509SOL    HW144252   4.935   9.144   7.328  0.9813 -0.6236  0.8332
77509SOL    HW244253   5.028   9.085   7.224  0.4914 -0.2114  0.1490
77510SOL     OW44254   7.125   5.054   1.910  0.7736 -0.1735 -0.1714
77510SOL    HW144255   7.032   5.064   1.890  0.8753 -0.6741 -0.9111
77510SOL    HW244256   7.160   5.144   1.908 -0.0569  0.2786  2.0938
77511SOL     OW44257   9.560  10.512   2.203 -0.1094  0.4144 -0.5392
77511SOL    HW144258   9.560  10.441   2.267  1.7002  2.0660  1.4370
77511SOL    HW244259   9.468  10.521   2.178 -0.7291 -0.9973  0.9930
77512SOL     OW44260  11.199   2.869  10.327  0.3475  0.8438 -0.3625
77512SOL    HW144261  11.161   2.784  10.307 -1.4762  0.8443  2.5474
77512SOL    HW244262  11.284   2.848  10.367  0.5099  0.4793 -0.8863
77513SOL     OW44263   8.105   2.136   4.996 -0.0082  0.5845  0.5062
77513SOL    HW144264   8.028   2.183   4.963  1.8144  2.1319 -1.8791
77513SOL    HW244265   8.150   2.201   5.050 -0.5763 -0.4810  2.3278
77514SOL     OW44266   6.298   6.361   2.174 -0.1835  0.0663  0.1918
77514SOL    HW144267   6.344   6.277   2.187  0.3000  0.3822  0.5424
77514SOL    HW244268   6.247   6.373   2.254  0.4876  0.5662  0.5527
77515SOL     OW44269  12.827  10.672  12.402 -0.1923 -0.0811  0.6085
77515SOL    HW144270  12.773  10.596  12.425 -0.1890 -0.5419 -0.7957
77515SOL    HW244271  12.765  10.735  12.365  0.1718 -0.5947 -0.9677
77516SOL     OW44272   8.499   3.993  10.514  0.1015  0.1147  0.4929
77516SOL    HW144273   8.473   3.932  10.445  0.5420  0.3558  0.1151
77516SOL    HW244274   8.459   3.957  10.594 -2.1082  0.8802 -0.1790
77517SOL     OW44275  11.211   7.743  12.301  0.0493  0.1572  0.3967
77517SOL    HW144276  11.290   7.723  12.353 -0.1598  0.0838  0.6906
77517SOL    HW244277  11.205   7.672  12.238 -0.8782 -0.9280  1.6589
77518SOL     OW44278  13.318   7.267   8.162 -0.2567 -0.7270  0.1629
77518SOL    HW144279  13.232   7.234   8.138 -0.2723 -1.5137  1.2346
77518SOL    HW244280  13.301   7.344   8.215 -0.3109 -0.9130  0.4187
77519SOL     OW44281  12.734   4.351  10.639 -0.2152  0.0049 -0.1651
77519SOL    HW144282  12.741   4.261  10.606  0.9694  0.0390 -0.0462
77519SOL    HW244283  12.769   4.405  10.569 -1.0237  0.3903 -0.2787
77520SOL     OW44284  10.169  13.568   2.128  0.2058  0.9447  0.5691
77520SOL    HW144285  10.264  13.570   2.129  0.2869 -0.5156 -0.5292
77520SOL    HW244286  10.145  13.584   2.037 -0.3401 -3.0902 -0.1935
77521SOL     OW44287  10.475   9.498   2.856  0.0583 -0.8321 -0.0823
77521SOL    HW144288  10.541   9.432   2.877 -1.3442 -1.9043  1.1793
77521SOL    HW244289  10.392   9.451   2.860 -1.0623  1.1385  1.5635
77522SOL     OW44290   4.631  12.862   9.670  0.3490 -0.4889  0.5732
77522SOL    HW144291   4.702  12.817   9.623 -0.5217 -1.4858  0.1617
77522SOL    HW244292   4.666  12.949   9.689  1.4341 -0.7291 -0.2159
77523SOL     OW44293   3.185   8.919  11.114  0.2688  0.0251  0.1581
77523SOL    HW144294   3.110   8.867  11.087  0.3726 -0.5337  0.9152
77523SOL    HW244295   3.253   8.897  11.050 -0.4482  1.2222 -1.0878
77524SOL     OW44296   7.442  12.331   5.902 -0.5158  0.7755  0.0069
77524SOL    HW144297   7.464  12.347   5.994 -0.4136  0.7948 -0.0206
77524SOL    HW244298   7.477  12.408   5.856  0.3735  0.2731 -0.1836
77525SOL     OW44299   7.023  12.598   8.673 -0.8692 -0.4678 -0.0187
77525SOL    HW144300   6.999  12.516   8.717  0.1421 -0.8004 -0.0538
77525SOL    HW244301   7.030  12.662   8.744 -1.7419 -0.3891 -0.0003
77526SOL     OW44302  12.124  11.917   8.461 -0.0962 -0.0432  0.0378
77526SOL    HW144303  12.098  11.848   8.400 -1.4210  0.4636  0.0095
77526SOL    HW244304  12.210  11.889   8.493 -0.0270 -1.0429 -0.9551
77527SOL     OW44305   0.614   6.642   5.448 -0.2060  0.4758  0.3777
77527SOL    HW144306   0.546   6.608   5.506 -0.1242 -1.0098 -0.3626
77527SOL    HW244307   0.691   6.588   5.467 -0.4749 -0.8009 -1.8409
77528SOL     OW44308   1.332   6.768   7.156 -0.3042 -0.4505 -0.1943
77528SOL    HW144309   1.405   6.772   7.218  0.8737 -0.1452 -1.5433
77528SOL    HW244310   1.358   6.701   7.093 -1.2981 -0.4941 -0.5769
77529SOL     OW44311   8.493   8.497   0.508 -0.5423  0.3570 -0.3686
77529SOL    HW144312   8.405   8.477   0.476  0.6044 -1.6336 -2.6609
77529SOL    HW244313   8.543   8.516   0.429  1.1489  1.3127  0.8651
77530SOL     OW44314  11.311  11.341   2.194 -0.2650  0.4688  0.3000
77530SOL    HW144315  11.267  11.345   2.109  0.4445 -1.0830 -0.1906
77530SOL    HW244316  11.241  11.323   2.257 -0.9204  2.4988  0.2193
77531SOL     OW44317   1.715   2.144   6.656 -0.5068  0.4835  0.5784
77531SOL    HW144318   1.714   2.098   6.740 -0.1456  0.2011  0.4317
77531SOL    HW244319   1.653   2.216   6.667 -1.5536 -0.3858  0.6222
77532SOL     OW44320   1.198  10.969   6.641  0.8684 -0.2546  0.6431
77532SOL    HW144321   1.173  10.884   6.675  0.0536 -0.1026  0.4420
77532SOL    HW244322   1.198  11.027   6.717  0.4238 -0.2185  0.6192
77533SOL     OW44323   5.062   7.647  11.681 -0.6715  0.2183  0.1074
77533SOL    HW144324   4.971   7.619  11.673 -0.3331 -1.1331  0.7277
77533SOL    HW244325   5.107   7.605  11.608 -0.9106  2.7100 -1.5766
77534SOL     OW44326   1.631  13.655   2.653 -0.0975  0.2177  0.1703
77534SOL    HW144327   1.610  13.652   2.746  0.4871 -0.4681  0.2915
77534SOL    HW244328   1.598  13.573   2.618  1.4569 -0.4547  0.1855
77535SOL     OW44329  10.813   2.146  11.373 -0.0571  0.4658 -0.2487
77535SOL    HW144330  10.764   2.211  11.323 -0.9515 -0.0725 -0.0949
77535SOL    HW244331  10.835   2.189  11.455 -1.5475  0.2688  0.2884
77536SOL     OW44332   0.296   1.022   2.959  0.1454  0.2825  0.2664
77536SOL    HW144333   0.300   1.117   2.961 -0.1475  0.2990  1.8606
77536SOL    HW244334   0.376   0.993   3.003  0.0152 -0.1798  0.2109
77537SOL     OW44335  12.389   3.463   9.982 -0.6229 -0.1270  0.0457
77537SOL    HW144336  12.346   3.530  10.035 -0.9077  1.2917 -1.8741
77537SOL    HW244337  12.417   3.396  10.045 -0.1173  1.8902  2.0674
77538SOL     OW44338   2.234   1.444   4.601 -0.9581 -0.2852 -0.3800
77538SOL    HW144339   2.234   1.379   4.671  0.2974  0.4002  0.2812
77538SOL    HW244340   2.160   1.418   4.545 -2.1995 -0.6583  1.3465
77539SOL     OW44341   4.606   2.053  12.373  0.2223  0.5362 -0.1128
77539SOL    HW144342   4.593   2.046  12.279  0.2287  0.6922 -0.1264
77539SOL    HW244343   4.602   1.963  12.405  0.1758  0.4873 -0.2562
77540SOL     OW44344   6.045  12.846  11.738  0.5556 -0.7867  0.0798
77540SOL    HW144345   6.048  12.940  11.758  1.3753 -1.0002  0.9983
77540SOL    HW244346   6.096  12.837  11.657  0.6245 -0.4687  0.0884
77541SOL     OW44347   0.138   2.240  13.052 -0.5062  0.7753 -0.2627
77541SOL    HW144348   0.111   2.156  13.015  1.1659  0.3018 -0.4760
77541SOL    HW244349   0.174   2.288  12.977  1.0553  0.5941  0.3386
77542SOL     OW44350   3.851   2.158   4.513 -0.0933  0.2507 -0.4275
77542SOL    HW144351   3.824   2.215   4.441 -3.4946  0.5921  0.9347
77542SOL    HW244352   3.812   2.073   4.493  1.3006 -0.4533 -0.3040
77543SOL     OW44353   5.787   8.548  12.658 -0.2742  0.1362 -0.1356
77543SOL    HW144354   5.806   8.541  12.564  1.2893  0.3442  0.1385
77543SOL    HW244355   5.734   8.628  12.665  0.8080  0.9459 -0.7116
77544SOL     OW44356  12.169  11.902   2.403  0.1450  0.4866  0.2569
77544SOL    HW144357  12.076  11.902   2.426  0.5763 -1.1193  2.2453
77544SOL    HW244358  12.193  11.810   2.401  1.6473  0.8787 -0.4892
77545SOL     OW44359   5.955   1.492  11.989 -0.2762  0.5069 -0.4015
77545SOL    HW144360   5.995   1.422  11.937 -0.3529  0.0656  0.1145
77545SOL    HW244361   5.918   1.552  11.925  0.9494  0.7702 -0.8821
77546SOL     OW44362   3.208   4.460  11.748  0.7237  0.0723  0.6063
77546SOL    HW144363   3.129   4.407  11.737 -0.2808  1.1773  2.0779
77546SOL    HW244364   3.189   4.540  11.699  1.6191 -0.2925 -0.3645
77547SOL     OW44365   7.804  11.156   7.533  0.2717 -0.0534 -0.0277
77547SOL    HW144366   7.747  11.185   7.604  0.2096  2.3361 -0.9534
77547SOL    HW244367   7.840  11.073   7.563 -1.4241 -0.1777  1.8352
77548SOL     OW44368  11.491  10.230   6.926 -0.1901 -0.3592 -0.1654
77548SOL    HW144369  11.568  10.288   6.926 -0.9191  0.6283 -0.3433
77548SOL    HW244370  11.451  10.244   7.011 -0.7390 -0.0910 -0.4637
77549SOL     OW44371   5.882   9.130  13.317 -0.3422  0.0106 -0.1565
77549SOL    HW144372   5.792   9.130  13.349  0.0545  0.0667  0.9991
77549SOL    HW244373   5.935   9.112  13.395  0.7056  0.9051 -0.6399
77550SOL     OW44374   0.724   7.207  13.446 -0.1292 -0.2320 -0.0308
77550SOL    HW144375   0.770   7.183  13.526  1.5899  3.1318  0.1737
77550SOL    HW244376   0.788   7.260  13.397 -2.7150  1.9288 -1.3172
77551SOL     OW44377   3.027   8.772   2.433  0.1858  0.0015  0.2696
77551SOL    HW144378   2.982   8.757   2.516 -0.3796 -0.9868 -0.1871
77551SOL    HW244379   3.087   8.845   2.450  0.5407 -0.5859  1.7168
77552SOL     OW44380   8.210  10.193  12.805 -0.5793 -0.1025  0.6158
77552SOL    HW144381   8.181  10.218  12.893 -0.3842 -0.0498  0.6655
77552SOL    HW244382   8.135  10.146  12.767 -0.9663  0.5748  0.5166
77553SOL     OW44383  11.435  13.040  10.572 -0.1022 -0.6542  0.4983
77553SOL    HW144384  11.510  13.085  10.611 -0.7883 -0.9668  2.2998
77553SOL    HW244385  11.470  12.956  10.542  1.2697  1.0716 -3.2540
77554SOL     OW44386   8.092   8.672  11.449  0.0864 -0.2249 -0.0817
77554SOL    HW144387   8.036   8.653  11.524  1.0657 -1.2592  0.4303
77554SOL    HW244388   8.176   8.696  11.488  0.8176 -1.4472 -0.8137
77555SOL     OW44389   5.143   3.026  11.257 -0.3528 -0.1039  0.4345
77555SOL    HW144390   5.236   3.037  11.237 -0.1631 -0.0437  1.2777
77555SOL    HW244391   5.098   3.083  11.195 -0.0103 -1.8776 -1.5387
77556SOL     OW44392  10.950   9.923   9.254 -0.2446  0.4182  0.2810
77556SOL    HW144393  10.882   9.904   9.189 -1.2312 -0.7929  1.5725
77556SOL    HW244394  10.901   9.953   9.331  0.7313  0.0718  1.0619
77557SOL     OW44395   9.019  10.451   8.750  0.2832  0.1127 -0.0582
77557SOL    HW144396   9.100  10.486   8.785 -0.3815  1.1384  0.5068
77557SOL    HW244397   8.989  10.389   8.816 -0.5361  1.4225  0.8442
77558SOL     OW44398   4.494   1.928   8.190 -0.2349  0.2736  0.4319
77558SOL    HW144399   4.454   2.008   8.224 -0.2096  0.2769  0.4548
77558SOL    HW244400   4.587   1.951   8.182 -0.0513 -0.0807  1.4154
77559SOL     OW44401   6.605  13.246   0.574  0.7057  0.2160 -0.7199
77559SOL    HW144402   6.589  13.270   0.482  1.0218 -2.1533 -1.4417
77559SOL    HW244403   6.518  13.226   0.609  0.6073  0.9399 -0.5256
77560SOL     OW44404   1.129  11.589   5.367 -0.1035  0.1099  0.0462
77560SOL    HW144405   1.143  11.684   5.361  0.5982  0.3899  3.4936
77560SOL    HW244406   1.034  11.580   5.378 -0.2451  0.3478 -0.9425
77561SOL     OW44407   4.638   9.181  12.055  0.0846 -0.2447 -0.0269
77561SOL    HW144408   4.650   9.094  12.093 -2.6386  0.0070  1.6689
77561SOL    HW244409   4.582   9.167  11.979  0.1758 -0.0070 -0.1408
77562SOL     OW44410   2.429  13.499   3.800  0.1566 -0.1552 -0.4369
77562SOL    HW144411   2.350  13.527   3.754  0.0981  0.5735  0.0706
77562SOL    HW244412   2.444  13.569   3.864 -0.4284 -1.6415  1.4453
77563SOL     OW44413   6.826   4.267   9.593  0.3686  0.0823  0.1196
77563SOL    HW144414   6.869   4.346   9.561  0.0530  0.0500 -0.3849
77563SOL    HW244415   6.852   4.199   9.531  2.1225 -0.6173  1.5546
77564SOL     OW44416  12.818   9.154   0.192 -0.5503 -0.0786  0.1492
77564SOL    HW144417  12.854   9.129   0.277  0.6433  0.5086 -0.1632
77564SOL    HW244418  12.745   9.093   0.178  1.6350 -2.8002 -0.1803
77565SOL     OW44419  11.603   0.156  11.241  0.1112  0.0672  0.0760
77565SOL    HW144420  11.560   0.137  11.325  0.9805  1.8595  0.9660
77565SOL    HW244421  11.552   0.228  11.203  0.5158  0.1564 -0.3102
77566SOL     OW44422   1.611   6.245   1.329  0.1856 -0.6352 -0.0989
77566SOL    HW144423   1.522   6.258   1.295  0.1151  1.6189  0.7419
77566SOL    HW244424   1.614   6.153   1.352 -1.8863 -0.8223 -0.3191
77567SOL     OW44425   6.256  10.321  10.485  0.2955 -0.5574  0.0747
77567SOL    HW144426   6.258  10.405  10.439  1.0154 -0.5514  0.1070
77567SOL    HW244427   6.255  10.256  10.415  2.1913 -0.5691  0.0103
77568SOL     OW44428   5.495  10.773   7.808 -0.6475  0.0538  0.3442
77568SOL    HW144429   5.436  10.712   7.853  0.5664 -2.8766 -1.6489
77568SOL    HW244430   5.478  10.756   7.715  2.4162 -0.0127 -0.2793
77569SOL     OW44431  11.852  10.001   8.804  0.1741  0.0666  0.0611
77569SOL    HW144432  11.940   9.991   8.768 -0.0707 -1.9393 -0.0944
77569SOL    HW244433  11.833   9.917   8.845 -1.5785  0.5458  0.3189
77570SOL     OW44434  12.520  10.147   1.634  0.5112  0.3065  0.1198
77570SOL    HW144435  12.483  10.063   1.662 -1.5885  1.3511  0.7480
77570SOL    HW244436  12.597  10.124   1.582  0.3511 -1.9622  0.7867
77571SOL     OW44437   2.828  11.957  13.080 -0.0452  0.6375  0.3739
77571SOL    HW144438   2.849  11.947  13.173  1.2475  1.9752  0.2559
77571SOL    HW244439   2.733  11.970  13.079 -0.1974 -0.2062  1.4119
77572SOL     OW44440   0.923   6.978   4.504  0.4550 -0.3067 -0.6512
77572SOL    HW144441   0.958   6.904   4.454  1.4935 -0.7593  0.6559
77572SOL    HW244442   0.918   6.945   4.594 -1.1246  0.5447 -0.3873
77573SOL     OW44443   6.741  10.884   6.432  0.6474 -0.7431 -0.5678
77573SOL    HW144444   6.696  10.966   6.454  1.5067 -0.1878 -0.8236
77573SOL    HW244445   6.790  10.862   6.511 -1.2035 -2.1578  0.2478
77574SOL     OW44446   3.250  12.100   9.838  0.5918 -0.0923 -0.5425
77574SOL    HW144447   3.249  12.096   9.934  2.7097 -2.4461 -0.5076
77574SOL    HW244448   3.212  12.185   9.817  1.5404  1.1890  2.4332
77575SOL     OW44449   7.430   7.697   9.237 -0.2594  0.1944 -0.5070
77575SOL    HW144450   7.446   7.613   9.280  0.2062  1.0313  1.0194
77575SOL    HW244451   7.509   7.712   9.184 -0.0502 -0.0339 -0.2661
77576SOL     OW44452   0.890   3.694   0.634  0.1564 -0.0824 -0.1256
77576SOL    HW144453   0.800   3.670   0.654  0.3013  0.4111  1.1841
77576SOL    HW244454   0.917   3.751   0.706  2.2957 -2.1260  0.8472
77577SOL     OW44455  11.602   1.651   3.416  0.3358 -0.2843 -0.1112
77577SOL    HW144456  11.638   1.678   3.331  4.4085 -0.2161  1.3894
77577SOL    HW244457  11.672   1.669   3.478 -1.9842 -1.4851  3.1445
77578SOL     OW44458   6.738   5.151   9.823  0.4880  0.0918 -0.0836
77578SOL    HW144459   6.669   5.144   9.888  0.2603  0.0028 -0.3358
77578SOL    HW244460   6.754   5.245   9.816 -1.0622  0.2934 -1.5436
77579SOL     OW44461   6.434  12.305   1.782 -0.2065  0.0772 -0.2077
77579SOL    HW144462   6.496  12.259   1.725 -2.7049 -1.7414 -1.6470
77579SOL    HW244463   6.399  12.375   1.726 -0.3333  0.3480  0.2058
77580SOL     OW44464  11.231   6.490   9.890  0.3259 -0.4850  0.3698
77580SOL    HW144465  11.175   6.536   9.828 -1.8167  0.2666  2.6697
77580SOL    HW244466  11.302   6.551   9.909  0.8800 -0.6423 -1.1286
77581SOL     OW44467  13.168  13.445   2.067  0.3127 -0.0335 -0.1952
77581SOL    HW144468  13.082  13.451   2.107  0.8577  0.4715  0.9304
77581SOL    HW244469  13.225  13.412   2.137  0.8619 -1.3143 -1.1895
77582SOL     OW44470   8.801   9.035   7.382  0.2743  0.3698 -0.2262
77582SOL    HW144471   8.736   9.083   7.331 -0.5040  0.8282  1.1226
77582SOL    HW244472   8.839   9.102   7.440  1.6627  0.0257 -0.7084
77583SOL     OW44473   5.565  12.528  11.396 -0.4896 -0.2040  0.7948
77583SOL    HW144474   5.472  12.552  11.395 -0.6466 -0.7917 -0.6524
77583SOL    HW244475   5.574  12.464  11.326  1.1102  0.1896  0.6086
77584SOL     OW44476   2.974   8.767   6.806  0.6929 -0.7101  0.4466
77584SOL    HW144477   2.957   8.776   6.900 -0.0770 -0.8420  0.3307
77584SOL    HW244478   2.907   8.706   6.776 -0.1080  0.5570 -0.4713
77585SOL     OW44479  10.919   7.353  12.542  0.6073  0.4915 -0.3981
77585SOL    HW144480  10.936   7.428  12.599  1.3646  1.4977 -1.8830
77585SOL    HW244481  10.922   7.389  12.454  0.9141 -1.2874 -1.1571
77586SOL     OW44482  13.293   5.498   0.865  0.4779  0.1376  0.4865
77586SOL    HW144483  13.374   5.449   0.853  0.8808  0.3166  2.2098
77586SOL    HW244484  13.315   5.587   0.837  0.4919 -0.0748 -0.2104
77587SOL     OW44485   2.212   7.425  10.861  0.5929 -0.3529  0.2806
77587SOL    HW144486   2.136   7.448  10.808  2.4128 -0.0728 -2.3996
77587SOL    HW244487   2.209   7.330  10.870  0.3892 -0.4405 -0.6288
77588SOL     OW44488  10.980  10.529   1.514  0.3745  0.1028  0.5164
77588SOL    HW144489  11.048  10.480   1.560  0.4959 -1.7841 -1.5065
77588SOL    HW244490  11.025  10.606   1.478  1.3293 -0.7548 -0.1986
77589SOL     OW44491   6.955   5.175   0.073  1.1018 -0.2774  0.3143
77589SOL    HW144492   6.905   5.093   0.076  0.3205  0.1604 -0.3885
77589SOL    HW244493   6.890   5.244   0.082  1.8026  0.2804  1.3442
77590SOL     OW44494   4.555   2.090  10.546  0.1062  0.4595 -0.1655
77590SOL    HW144495   4.581   2.132  10.628 -1.5206  1.4335 -0.0986
77590SOL    HW244496   4.464   2.063  10.561  0.0013  0.0756 -1.4190
77591SOL     OW44497  10.779   7.701  12.204  0.5018 -0.2270 -0.5326
77591SOL    HW144498  10.692   7.683  12.167  0.7572  0.0750 -1.2882
77591SOL    HW244499  10.788   7.796  12.199  0.8744 -0.2574 -0.4460
77592SOL     OW44500  10.884   1.136  13.355 -0.2726  0.0555 -0.5614
77592SOL    HW144501  10.801   1.182  13.367  0.7250  1.7145  0.4185
77592SOL    HW244502  10.935   1.193  13.297  0.0621 -1.1243 -1.4612
77593SOL     OW44503   0.840   2.990  11.418  0.5252 -0.0998  0.2951
77593SOL    HW144504   0.842   3.039  11.336 -0.2146  1.7802  1.3500
77593SOL    HW244505   0.814   2.901  11.392 -3.7377  1.3121 -1.1582
77594SOL     OW44506   3.193  12.249  10.742 -0.2625 -0.1881 -0.4831
77594SOL    HW144507   3.229  12.207  10.664 -1.6509  0.7789 -1.7077
77594SOL    HW244508   3.124  12.307  10.708  0.5916  1.9866  1.2441
77595SOL     OW44509   4.602  13.401   4.197 -0.0413  0.5726 -0.3675
77595SOL    HW144510   4.674  13.394   4.135 -0.7691 -0.8187 -1.0993
77595SOL    HW244511   4.552  13.320   4.186 -1.3891  1.2292  0.5358
77596SOL     OW44512   8.396   2.234   6.203 -0.2653  0.1286 -0.2752
77596SOL    HW144513   8.455   2.231   6.278 -2.8039 -0.3921  1.8895
77596SOL    HW244514   8.357   2.321   6.206 -1.1016 -0.2281 -0.3534
77597SOL     OW44515   9.677   4.383   5.088  0.1532 -0.1593  0.2246
77597SOL    HW144516   9.764   4.416   5.112 -0.3696 -0.3657  2.6093
77597SOL    HW244517   9.688   4.288   5.084  0.3380 -0.1066 -0.9486
77598SOL     OW44518   1.986   1.496  10.517 -0.0137 -0.0298 -0.7737
77598SOL    HW144519   2.033   1.498  10.601 -1.0513 -0.3494 -0.1735
77598SOL    HW244520   2.016   1.415  10.475  2.9485  1.6425 -2.2004
77599SOL     OW44521  13.439  11.281   8.599  0.5734 -0.0723  0.0684
77599SOL    HW144522  13.453  11.214   8.532  0.0124  0.1537 -0.2781
77599SOL    HW244523  13.425  11.232   8.680  2.1801 -0.3340  0.2165
77600SOL     OW44524  12.716   8.657  12.020  0.1873  0.0931 -0.0081
77600SOL    HW144525  12.722   8.575  12.070  0.1207 -0.3855 -0.7719
77600SOL    HW244526  12.799   8.702  12.037 -0.0563  0.1947  0.9642
77601SOL     OW44527   0.772  12.718   6.920  0.7041 -0.2622 -0.3105
77601SOL    HW144528   0.844  12.751   6.867  1.7000  1.9064  2.1724
77601SOL    HW244529   0.698  12.776   6.898  0.8937  0.1353  0.0905
77602SOL     OW44530  10.665   2.891   5.687  0.6721  0.1510 -0.1077
77602SOL    HW144531  10.757   2.918   5.685  0.5996  0.3517 -0.6912
77602SOL    HW244532  10.643   2.873   5.596  0.4438 -0.9530  0.1495
77603SOL     OW44533   7.179  11.745  13.130  0.5416  0.2071  0.4042
77603SOL    HW144534   7.186  11.715  13.039  0.6260  0.2626  0.3911
77603SOL    HW244535   7.149  11.836  13.123  1.1418  0.4124  0.4025
77604SOL     OW44536   4.071   6.858   5.969 -0.5980  0.3654 -0.2116
77604SOL    HW144537   4.046   6.797   6.038 -0.2316  1.0840  0.5789
77604SOL    HW244538   4.036   6.820   5.889  0.6152 -1.4684  0.0874
77605SOL     OW44539   3.436   5.384  11.415 -0.1968  0.7257 -0.0705
77605SOL    HW144540   3.456   5.318  11.481 -0.3672  1.2280  0.4968
77605SOL    HW244541   3.487   5.358  11.338 -1.5104 -0.9649 -0.4063
77606SOL     OW44542   2.540  11.745  12.087  0.1091  0.1059 -0.4803
77606SOL    HW144543   2.556  11.694  12.007  1.3480 -0.7059  0.2543
77606SOL    HW244544   2.471  11.698  12.132  0.2852 -0.1332 -0.4640
77607SOL     OW44545   8.691   1.647   1.081 -0.0373 -0.1310 -0.3955
77607SOL    HW144546   8.600   1.644   1.111  0.4860 -1.8899  1.1817
77607SOL    HW244547   8.701   1.569   1.027  0.6589 -0.1827 -0.2026
77608SOL     OW44548   5.706  13.206   4.276 -0.2146 -0.3262  0.3157
77608SOL    HW144549   5.672  13.119   4.298  2.0093 -1.0807  1.0009
77608SOL    HW244550   5.788  13.213   4.325  1.1802  0.9481 -2.0255
77609SOL     OW44551   9.929   2.304   2.254 -0.3201 -0.1883  0.2187
77609SOL    HW144552   9.876   2.286   2.332 -0.1339  2.6174  1.0935
77609SOL    HW244553   9.877   2.366   2.204 -0.2423 -1.6351 -1.7801
77610SOL     OW44554   5.960  10.920   1.493 -0.6582  0.2857 -0.1840
77610SOL    HW144555   5.977  10.865   1.570  1.3355  0.4329 -0.4657
77610SOL    HW244556   5.951  10.858   1.421  1.8421  0.2289 -0.5463
77611SOL     OW44557   1.584   6.348   4.156 -0.0521  0.0602  0.3569
77611SOL    HW144558   1.504   6.312   4.120 -1.2884 -0.1411  3.0558
77611SOL    HW244559   1.622   6.277   4.208  0.8577  0.7404  0.6633
77612SOL     OW44560  12.202   1.173  10.156  0.4827  0.4507  0.4233
77612SOL    HW144561  12.211   1.107  10.225  1.2039  0.1951  0.0976
77612SOL    HW244562  12.224   1.127  10.075 -1.7001  0.3899 -0.1907
77613SOL     OW44563  10.117   1.171   6.523 -0.2051  0.4082 -0.6777
77613SOL    HW144564  10.144   1.248   6.572  0.3825  0.1854 -0.6371
77613SOL    HW244565  10.040   1.199   6.473  0.3465  1.1884 -1.1088
77614SOL     OW44566   7.999   2.927  10.341  0.3346 -0.2392 -0.3332
77614SOL    HW144567   7.915   2.922  10.385 -0.2251 -0.4153 -1.3939
77614SOL    HW244568   8.061   2.887  10.402 -0.1224  0.9575  0.9609
77615SOL     OW44569  13.224   2.765   4.115  0.1310  0.2177  0.4199
77615SOL    HW144570  13.199   2.815   4.193 -2.0877 -0.2714  0.0939
77615SOL    HW244571  13.283   2.697   4.148  1.0042  1.3295  1.2839
77616SOL     OW44572   0.917  10.056   6.823 -0.6886  0.1634  0.0618
77616SOL    HW144573   0.969  10.127   6.861 -0.7633 -0.3437  1.1422
77616SOL    HW244574   0.856  10.031   6.892  0.2554 -1.8737  0.2235
77617SOL     OW44575   4.371   8.905   5.461  0.0058  0.0321  0.3275
77617SOL    HW144576   4.338   8.829   5.508  0.0125 -0.9651 -1.1998
77617SOL    HW244577   4.449   8.932   5.509 -0.4875 -0.3861  1.3816
77618SOL     OW44578  10.380   2.924   7.201 -0.1342  0.7652 -0.5037
77618SOL    HW144579  10.362   2.836   7.168  1.4930 -0.0318  0.5833
77618SOL    HW244580  10.329   2.931   7.282 -3.7589  2.5501 -2.6802
77619SOL     OW44581  10.304   8.008   5.531 -0.1686  0.0767 -0.0011
77619SOL    HW144582  10.383   8.003   5.477 -0.5422 -0.1848 -0.5261
77619SOL    HW244583  10.288   7.919   5.560  0.0635  0.2234  0.6005
77620SOL     OW44584   0.812   9.458   1.496 -0.1809 -0.1206  0.1416
77620SOL    HW144585   0.844   9.387   1.551 -0.0704  0.9123  1.4738
77620SOL    HW244586   0.723   9.475   1.528  0.6354  1.9015  1.5226
77621SOL     OW44587  11.669   0.499  11.367 -0.5687 -0.0048  0.4426
77621SOL    HW144588  11.733   0.459  11.427 -0.1664 -1.4216 -0.8559
77621SOL    HW244589  11.656   0.587  11.401  1.6557  0.1395  1.0807
77622SOL     OW44590   0.757  11.705   3.436  0.1703 -0.6756  0.0231
77622SOL    HW144591   0.838  11.753   3.421 -0.9348  1.4749  0.5054
77622SOL    HW244592   0.722  11.690   3.348  1.4304 -2.3827 -0.2483
77623SOL     OW44593   6.998   6.361   0.148 -0.2316  0.4292  0.3556
77623SOL    HW144594   6.970   6.441   0.193 -1.1293  1.0260 -1.1961
77623SOL    HW244595   6.924   6.302   0.156 -0.3700  0.5167 -0.2894
77624SOL     OW44596   1.574   2.806   2.830  0.2934 -0.6633  0.1506
77624SOL    HW144597   1.541   2.888   2.794 -1.2995 -1.2720  0.1623
77624SOL    HW244598   1.661   2.828   2.864  0.3125  0.7720 -0.7505
77625SOL     OW44599   7.768   7.649  10.973  0.1375  0.3750 -0.0271
77625SOL    HW144600   7.721   7.632  10.891  0.6663  0.5290 -0.3678
77625SOL    HW244601   7.851   7.688  10.945  0.6140 -0.2153  0.5572
77626SOL     OW44602   7.181   0.042  12.842  0.3446  0.0541 -0.1251
77626SOL    HW144603   7.208   0.053  12.751 -1.1818 -1.0039 -0.7458
77626SOL    HW244604   7.092   0.078  12.845  0.0221 -0.7785  0.7104
77627SOL     OW44605   0.482   5.315  12.177 -0.4825 -0.4362  0.3405
77627SOL    HW144606   0.412   5.264  12.135 -0.5167  0.8298 -1.2688
77627SOL    HW244607   0.563   5.270  12.151 -0.5950 -0.7292  0.4916
77628SOL     OW44608  10.331   7.994   2.044  0.6598 -0.2224  0.6156
77628SOL    HW144609  10.401   7.937   2.076  1.0520  0.2588  0.6195
77628SOL    HW244610  10.302   7.954   1.963  2.3944  0.7095 -0.5184
77629SOL     OW44611   7.431   4.750   8.181 -0.1239  0.0145  0.0896
77629SOL    HW144612   7.451   4.725   8.271  0.4977  1.6188  0.4321
77629SOL    HW244613   7.515   4.781   8.146 -0.5766  0.3451 -0.7242
77630SOL     OW44614  11.431  13.324   0.920 -0.2973 -0.5771  0.2632
77630SOL    HW144615  11.453  13.247   0.973  1.0996  0.9225  2.0079
77630SOL    HW244616  11.516  13.365   0.901 -1.0662  1.1836  0.4295
77631SOL     OW44617   6.920  13.426   8.268 -0.6169  0.2723  0.4002
77631SOL    HW144618   6.940  13.333   8.275 -0.3551  0.2995  0.0360
77631SOL    HW244619   6.895  13.439   8.177 -1.1611  0.4643  0.5767
77632SOL     OW44620  13.216   1.516   0.407  0.1952 -0.7810  0.5655
77632SOL    HW144621  13.132   1.474   0.388 -0.0765  0.0212 -0.0756
77632SOL    HW244622  13.205   1.553   0.494 -0.2004 -0.4990  0.4000
77633SOL     OW44623   9.959   3.082  12.136  0.0976  0.1093  0.5634
77633SOL    HW144624  10.030   3.097  12.074 -1.5025 -1.6898 -1.9097
77633SOL    HW244625   9.889   3.141  12.108 -0.2087  0.2237  1.5272
77634SOL     OW44626  10.609  12.347   6.391  0.0173 -0.6495  0.1335
77634SOL    HW144627  10.624  12.375   6.481  1.1183  0.0829 -0.2661
77634SOL    HW244628  10.521  12.380   6.370  0.1865  0.0965  0.5830
77635SOL     OW44629   3.865   3.942   0.198 -0.4250  0.0074  0.2203
77635SOL    HW144630   3.782   3.979   0.228 -1.5006  1.0609 -3.5730
77635SOL    HW244631   3.848   3.848   0.190 -0.8708  0.0657  0.4684
77636SOL     OW44632   0.634   3.662   0.729  0.1977 -0.2593  0.4102
77636SOL    HW144633   0.595   3.625   0.809  0.8578 -0.8019  0.5009
77636SOL    HW244634   0.594   3.612   0.658 -0.4659  0.2928  0.3873
77637SOL     OW44635   3.113   8.587  10.064  0.1379  0.0444  0.2066
77637SOL    HW144636   3.119   8.539  10.147 -0.5478  0.8813  0.7503
77637SOL    HW244637   3.058   8.532  10.008  0.2965 -0.3454  0.4289
77638SOL     OW44638   8.186   3.697   8.338  0.1803 -0.0192  0.1236
77638SOL    HW144639   8.173   3.607   8.310  0.0091  0.3409 -0.9804
77638SOL    HW244640   8.103   3.741   8.319  0.7898  0.7468 -0.8877
77639SOL     OW44641  10.724   7.462   5.979 -0.1944 -0.0917 -0.5882
77639SOL    HW144642  10.699   7.386   5.927 -1.3499  0.1181 -0.3629
77639SOL    HW244643  10.677   7.452   6.062  0.7329  0.1642 -0.0128
77640SOL     OW44644  11.815  13.652   5.468  0.3476  0.3871  0.1735
77640SOL    HW144645  11.818  13.579   5.530  0.4486  0.1324 -0.1268
77640SOL    HW244646  11.859  13.618   5.389  0.1449  0.6752 -0.0669
77641SOL     OW44647   3.308   5.141   5.661  0.3203 -0.5787 -0.0204
77641SOL    HW144648   3.256   5.061   5.661 -0.7739 -0.0173  3.1408
77641SOL    HW244649   3.362   5.135   5.741  0.4443  1.6575  0.1450
77642SOL     OW44650   0.484   0.398  13.459  0.5964  0.2449 -0.1878
77642SOL    HW144651   0.454   0.468  13.516 -2.0161  0.0481 -1.1727
77642SOL    HW244652   0.470   0.318  13.509 -0.0175  0.1928 -0.4346
77643SOL     OW44653   9.110   4.121  10.496 -0.4672 -0.0410 -0.3768
77643SOL    HW144654   9.060   4.180  10.440 -0.2925  0.4988  0.0343
77643SOL    HW244655   9.051   4.046  10.510 -2.0144  1.4506  1.7369
77644SOL     OW44656   0.304   4.055  11.892  0.2311  0.1612 -0.7930
77644SOL    HW144657   0.346   4.008  11.965 -3.1625 -2.8461 -0.4900
77644SOL    HW244658   0.313   3.996  11.818 -0.4470  1.0441 -1.5891
77645SOL     OW44659   9.521   8.661   6.596  0.3737  0.2633  0.1428
77645SOL    HW144660   9.449   8.713   6.631  1.3107  1.2519  0.6351
77645SOL    HW244661   9.558   8.616   6.672 -0.7290 -1.5634 -0.3388
77646SOL     OW44662   8.963   2.883  12.155 -0.1085 -0.2822  0.4848
77646SOL    HW144663   8.891   2.923  12.106  0.2901  0.6963  0.6776
77646SOL    HW244664   8.923   2.807  12.198 -0.5469 -0.9554 -1.0445
77647SOL     OW44665   2.136   6.710   8.690 -0.0294  0.0450 -0.6317
77647SOL    HW144666   2.100   6.752   8.768 -2.0330  1.2680 -2.1121
77647SOL    HW244667   2.203   6.771   8.658 -0.0039  0.0942 -0.4830
77648SOL     OW44668  11.054   0.710   0.259  0.0875  0.4014  0.1633
77648SOL    HW144669  11.086   0.645   0.196 -0.5073  1.3063 -1.1224
77648SOL    HW244670  11.129   0.729   0.315  0.8713  0.1560 -0.7822
77649SOL     OW44671   9.082   6.152   9.403 -0.1819  0.3800 -0.5737
77649SOL    HW144672   9.126   6.235   9.422  1.0218 -0.3112 -0.2792
77649SOL    HW244673   9.000   6.158   9.452  0.7473  0.6244  1.0415
77650SOL     OW44674  13.524  13.159   6.768  0.3464 -0.1640 -0.3470
77650SOL    HW144675  13.495  13.173   6.678  0.5392 -0.5850 -0.4776
77650SOL    HW244676  13.477  13.081   6.797 -3.3907  2.4868  1.5434
77651SOL     OW44677  12.456   2.474   9.550 -0.0503 -0.3072 -0.6227
77651SOL    HW144678  12.457   2.562   9.513  0.0844  0.0802  0.2775
77651SOL    HW244679  12.363   2.450   9.550  0.0491 -0.8012 -2.2925
77652SOL     OW44680   4.927   9.793   5.661 -0.0317  0.3823 -0.3030
77652SOL    HW144681   4.882   9.861   5.711 -0.0030  0.7526 -0.7680
77652SOL    HW244682   5.014   9.829   5.643  0.4745 -0.3305  0.5906
77653SOL     OW44683   9.888  11.826  10.914  0.0511 -0.5150 -0.3462
77653SOL    HW144684   9.843  11.857  10.835 -0.1539 -1.1713 -0.4937
77653SOL    HW244685   9.979  11.853  10.902 -0.3085  0.9481  0.0154
77654SOL     OW44686   3.568  11.470   0.557 -0.0956 -0.3727  0.1190
77654SOL    HW144687   3.620  11.465   0.477 -0.3249 -0.8834 -0.0014
77654SOL    HW244688   3.533  11.381   0.569 -0.9669 -0.0317  0.1788
77655SOL     OW44689   8.000   3.968  11.802 -0.5286  0.1055 -0.0912
77655SOL    HW144690   7.988   4.019  11.882  1.4008  0.2442  0.1791
77655SOL    HW244691   8.007   3.877  11.833  0.7644  0.2129  0.0109
77656SOL     OW44692   4.077   3.757  12.903  0.3625 -0.0333  0.4347
77656SOL    HW144693   4.125   3.798  12.832  2.0010  0.5647  1.8275
77656SOL    HW244694   4.118   3.671  12.914 -0.5412 -0.5409  0.0563
77657SOL     OW44695  11.859   2.859   4.856  0.1042 -0.1534  0.4659
77657SOL    HW144696  11.856   2.934   4.797 -2.0019 -1.0395 -0.6462
77657SOL    HW244697  11.861   2.897   4.944  1.8326  1.1779 -0.0834
77658SOL     OW44698  12.220  13.652   0.034 -0.8928  0.4227 -0.0781
77658SOL    HW144699  12.223  13.584  -0.034 -2.2678 -0.1217  0.3774
77658SOL    HW244700  12.248  13.608   0.114  0.6208  1.0406 -0.2221
77659SOL     OW44701   3.061   7.249   1.463  0.0435  0.1969 -0.7779
77659SOL    HW144702   3.108   7.323   1.424  0.2817  0.5237  0.1254
77659SOL    HW244703   3.127   7.200   1.511 -0.8694  2.2417  2.9734
77660SOL     OW44704  10.395   8.321   8.139  0.3393  0.5239  0.3058
77660SOL    HW144705  10.300   8.314   8.128  0.1317  1.8868  0.9328
77660SOL    HW244706  10.431   8.249   8.088 -0.8804  1.8331 -2.6749
77661SOL     OW44707  12.964   1.543   5.237 -0.0473  0.3222  0.3556
77661SOL    HW144708  12.917   1.462   5.258  0.9362 -0.2795  0.2683
77661SOL    HW244709  12.984   1.535   5.144  1.9621 -0.3745  0.7922
77662SOL     OW44710  12.001   4.175   9.915  0.1243  0.2002 -0.0905
77662SOL    HW144711  11.970   4.086   9.900  0.5524 -0.4054  2.1678
77662SOL    HW244712  11.922   4.229   9.918 -0.4154 -0.6414  1.5553
77663SOL     OW44713  12.940  12.927   1.818 -0.4779 -0.0538  0.4846
77663SOL    HW144714  12.971  12.842   1.849  2.1671  1.0886  1.2043
77663SOL    HW244715  12.854  12.908   1.780  0.2975 -3.1600 -0.0224
77664SOL     OW44716   1.002   1.121  10.768  0.6104 -0.4446  0.0269
77664SOL    HW144717   1.079   1.159  10.726  1.3314 -1.6385  0.2443
77664SOL    HW244718   0.964   1.063  10.701  0.2436 -0.3328  0.1323
77665SOL     OW44719   2.263   7.370   3.554  0.2958  0.6111  0.1091
77665SOL    HW144720   2.227   7.284   3.532 -1.3253  1.2165  0.2310
77665SOL    HW244721   2.346   7.352   3.599  0.1183 -0.8668 -0.1410
77666SOL     OW44722   0.061   4.698  10.381 -0.1616 -0.3274  0.0922
77666SOL    HW144723   0.030   4.772  10.330  0.4786 -1.3209 -1.8529
77666SOL    HW244724   0.153   4.718  10.400  0.8195 -1.6557 -2.6998
77667SOL     OW44725   2.096  11.434  13.724 -0.0543 -0.3814  0.3768
77667SOL    HW144726   2.106  11.349  13.767 -1.2300 -0.3307  0.7984
77667SOL    HW244727   2.175  11.444  13.671  0.8051 -1.0552  1.4813
77668SOL     OW44728  11.711   3.371   1.311 -0.6776  0.0981 -0.3604
77668SOL    HW144729  11.726   3.379   1.217 -0.5433 -1.0293 -0.4524
77668SOL    HW244730  11.631   3.318   1.319 -0.1548 -0.6528  0.1387
77669SOL     OW44731   2.076   7.704  10.801  0.0983 -0.1100  0.1538
77669SOL    HW144732   2.028   7.785  10.818  0.4828 -0.0487  1.0293
77669SOL    HW244733   2.088   7.665  10.888  1.3866 -0.2584 -0.0694
77670SOL     OW44734   0.709   1.543  11.635  0.3933  0.0395  0.1488
77670SOL    HW144735   0.795   1.555  11.596  0.3105  0.8350  0.1912
77670SOL    HW244736   0.688   1.450  11.621  1.1493 -0.1011 -0.0652
77671SOL     OW44737   0.551   4.276  10.402  0.2353  0.3442 -0.2008
77671SOL    HW144738   0.467   4.252  10.442  0.0453  0.8668 -0.2768
77671SOL    HW244739   0.541   4.254  10.310 -0.1565  1.2414 -0.3865
77672SOL     OW44740   1.377   8.583   1.279 -0.2160 -0.8439 -0.0367
77672SOL    HW144741   1.295   8.613   1.319 -0.2906  0.4171 -1.0778
77672SOL    HW244742   1.442   8.587   1.349 -1.0610 -2.0897  0.8726
77673SOL     OW44743  10.406   8.361   0.412 -0.2380 -0.2140 -0.2182
77673SOL    HW144744  10.359   8.317   0.341 -2.5110  0.0321  1.0192
77673SOL    HW244745  10.498   8.358   0.386 -0.9976  0.2305 -3.3273
77674SOL     OW44746   1.178  13.561   3.943  0.5496 -0.3280 -0.0571
77674SOL    HW144747   1.176  13.531   3.852 -1.1281  1.1916 -0.5955
77674SOL    HW244748   1.091  13.540   3.977 -0.0706  2.1152  0.0763
77675SOL     OW44749   5.883   4.348  12.109  0.6056  0.0269  0.9099
77675SOL    HW144750   5.962   4.318  12.064  0.3817 -0.1750  0.6536
77675SOL    HW244751   5.892   4.443  12.112  0.4777  0.0678  0.1622
77676SOL     OW44752   6.746  11.200   6.215  0.0508  0.1128  0.0763
77676SOL    HW144753   6.678  11.153   6.166 -0.0124  0.8662 -0.5957
77676SOL    HW244754   6.817  11.136   6.226 -0.0241 -0.1408 -0.8263
77677SOL     OW44755   7.072   8.009   6.924 -0.3939 -0.1844 -0.3781
77677SOL    HW144756   7.160   7.972   6.929  0.5978  1.8713 -1.5002
77677SOL    HW244757   7.067   8.068   7.000  0.1306  1.4627 -1.5584
77678SOL     OW44758  10.921  10.942   3.579 -0.0832 -0.0262  0.3597
77678SOL    HW144759  10.881  10.881   3.518  0.4724 -0.0034 -0.0361
77678SOL    HW244760  10.899  11.028   3.544  0.1730 -0.0128  0.2303
77679SOL     OW44761  13.659   6.429   3.204  0.3928 -0.0386  0.0357
77679SOL    HW144762  13.708   6.475   3.135  1.1258 -0.5473  0.1974
77679SOL    HW244763  13.580   6.481   3.216  1.2349  1.2403  0.2696
77680SOL     OW44764  11.598   3.582   2.971  0.0284  0.3093 -0.6173
77680SOL    HW144765  11.554   3.501   2.997 -0.5771  0.8460  0.0778
77680SOL    HW244766  11.602   3.634   3.051 -0.5561  1.4070 -1.2780
77681SOL     OW44767   0.573   8.101   0.411  0.9954  0.0303 -0.0268
77681SOL    HW144768   0.608   8.184   0.442  2.8882 -0.6020 -0.3344
77681SOL    HW244769   0.510   8.125   0.343  1.4847  1.2048 -0.0928
77682SOL     OW44770  10.799   2.513   7.048 -0.2849 -0.0576  0.4766
77682SOL    HW144771  10.760   2.492   6.964  0.4779  1.4160 -0.2806
77682SOL    HW244772  10.732   2.490   7.112 -1.8993  1.1741 -0.6926
77683SOL     OW44773   4.825  13.518   8.095  0.6841  0.0974 -0.1867
77683SOL    HW144774   4.877  13.596   8.115 -0.1561  0.9257 -1.1587
77683SOL    HW244775   4.735  13.545   8.107  0.4080 -1.0419  0.4774
77684SOL     OW44776  12.041   2.483   2.034 -0.2564 -1.1275  0.1659
77684SOL    HW144777  11.993   2.439   2.105 -1.7088 -0.5140 -0.4007
77684SOL    HW244778  12.022   2.430   1.956  0.2908 -1.0820  0.0003
77685SOL     OW44779  12.813   5.386   6.535 -0.8230 -0.5565  0.1958
77685SOL    HW144780  12.896   5.422   6.506 -1.7833  0.8272 -0.9428
77685SOL    HW244781  12.766   5.364   6.455 -2.7449  1.5350  0.6377
77686SOL     OW44782   9.595   6.462  11.850 -1.1470 -0.6510  0.1406
77686SOL    HW144783   9.616   6.450  11.943 -1.2660 -2.0797  0.0032
77686SOL    HW244784   9.637   6.545  11.827 -0.8741 -0.4115  1.3961
77687SOL     OW44785  12.479   5.761  13.158  0.0652 -0.1563  0.4338
77687SOL    HW144786  12.515   5.775  13.246 -0.9812  2.6972  0.5013
77687SOL    HW244787  12.462   5.849  13.124  0.2177 -1.1702 -2.5760
77688SOL     OW44788   0.943   0.832   4.204 -0.6394  0.0398  0.6371
77688SOL    HW144789   0.957   0.925   4.219 -0.3780 -0.1430  1.5976
77688SOL    HW244790   1.003   0.788   4.264  0.9611 -0.7797 -1.4297
77689SOL     OW44791   1.903   4.378   6.394 -0.7319 -0.1845 -0.3544
77689SOL    HW144792   1.897   4.411   6.484  0.0538  1.0650 -0.7319
77689SOL    HW244793   1.994   4.348   6.386 -0.5338  0.5602 -0.9921
77690SOL     OW44794  10.982   2.481   5.934 -0.4056  0.5168 -0.2667
77690SOL    HW144795  11.012   2.535   5.862 -1.6852  2.8970  0.8632
77690SOL    HW244796  10.889   2.467   5.917 -0.3662 -0.2659  0.1107
77691SOL     OW44797   5.331   2.502   1.389 -0.1509 -0.3766  0.4298
77691SOL    HW144798   5.267   2.502   1.318 -0.8197 -1.6717  0.9973
77691SOL    HW244799   5.414   2.480   1.347 -0.1100  0.9690 -0.2558
77692SOL     OW44800   8.468  11.253   3.421  0.6615  0.0149 -0.4417
77692SOL    HW144801   8.418  11.334   3.431  1.8499  0.7960 -0.7211
77692SOL    HW244802   8.401  11.187   3.403 -0.2526  1.0766 -1.0784
77693SOL     OW44803   4.948  12.941   4.473  0.2275  0.0425  0.3843
77693SOL    HW144804   4.978  13.024   4.510  0.9425 -0.2253  0.4112
77693SOL    HW244805   4.966  12.948   4.379 -0.9946  0.4655  0.1685
77694SOL     OW44806   2.026   3.008   7.517  0.0883  0.4505 -0.1507
77694SOL    HW144807   2.086   3.075   7.549  1.3735  0.8060 -2.9809
77694SOL    HW244808   2.078   2.957   7.455 -2.1424 -0.0690 -1.7490
77695SOL     OW44809   8.894   2.316  12.763  0.3930 -0.1171  0.2588
77695SOL    HW144810   8.870   2.224  12.752 -0.6957  0.3422 -1.7269
77695SOL    HW244811   8.953   2.335  12.690  1.2846  0.5802  1.1200
77696SOL     OW44812  11.467   9.158  10.955  0.3963  0.4111 -0.5285
77696SOL    HW144813  11.478   9.217  10.880  0.4916  0.6609 -0.3217
77696SOL    HW244814  11.556   9.126  10.973  0.1818 -0.6957 -1.3535
77697SOL     OW44815   0.318   8.062   9.210 -0.1348  0.0621  0.0718
77697SOL    HW144816   0.235   8.108   9.210 -0.5597 -0.6780 -0.2995
77697SOL    HW244817   0.384   8.131   9.209 -0.7402  0.6584  0.4020
77698SOL     OW44818   9.856  13.392   3.533 -0.1768 -0.6853  0.0277
77698SOL    HW144819   9.915  13.439   3.592  0.5239 -1.0685 -0.3586
77698SOL    HW244820   9.772  13.436   3.544  0.1428 -0.2116  0.6808
77699SOL     OW44821   1.245   8.719   9.297 -0.1152  0.3631 -0.4428
77699SOL    HW144822   1.194   8.671   9.362 -0.3428 -2.9138 -2.8127
77699SOL    HW244823   1.336   8.701   9.319 -0.1640  0.2143 -0.3674
77700SOL     OW44824   7.298  10.774  10.933  0.5386  0.2380 -0.5404
77700SOL    HW144825   7.368  10.729  10.982  0.1465  0.2417  0.0358
77700SOL    HW244826   7.315  10.752  10.842 -0.3621 -2.1367 -0.2004
77701SOL     OW44827  11.580   6.428  12.562 -0.6122 -0.9982  0.0759
77701SOL    HW144828  11.528   6.503  12.590 -1.6527 -1.1646 -1.3555
77701SOL    HW244829  11.524   6.380  12.501  0.3622 -2.4596  0.2761
77702SOL     OW44830   9.744   4.069   2.645  0.3341 -0.5316 -0.2055
77702SOL    HW144831   9.834   4.068   2.615  0.3285  1.8085 -0.4985
77702SOL    HW244832   9.691   4.062   2.566  0.3144  1.3609 -0.4076
77703SOL     OW44833   8.376   3.514   6.653  0.5943  0.5241 -0.3799
77703SOL    HW144834   8.329   3.507   6.736 -0.9050  0.1396 -1.2304
77703SOL    HW244835   8.420   3.430   6.643  0.9086  0.6276  0.0776
77704SOL     OW44836   8.657   5.348  12.783 -0.2950 -0.5826  0.7395
77704SOL    HW144837   8.643   5.269  12.731  1.0153  0.1319 -0.7914
77704SOL    HW244838   8.714   5.320  12.855  1.4653 -0.7789 -0.6652
77705SOL     OW44839  12.166  12.322   8.698 -0.0060  0.1246 -0.0079
77705SOL    HW144840  12.088  12.364   8.734  0.6140  1.3994 -0.0917
77705SOL    HW244841  12.235  12.388   8.707  1.3944 -1.4239  1.2708
77706SOL     OW44842  12.734   0.262   8.781  0.2505 -0.1530  0.2079
77706SOL    HW144843  12.719   0.355   8.798  2.3235  0.4779 -1.0537
77706SOL    HW244844  12.706   0.250   8.690  1.0964 -0.4760 -0.0123
77707SOL     OW44845   7.053  10.410   1.679 -0.8942  0.4282 -0.2856
77707SOL    HW144846   7.088  10.482   1.626 -1.1724  1.8748  1.3991
77707SOL    HW244847   7.074  10.434   1.769 -3.0240 -0.4351  0.5134
77708SOL     OW44848   5.658   0.205   3.522 -0.0606  0.4074  0.2099
77708SOL    HW144849   5.703   0.249   3.594 -0.3725  1.5797 -0.2916
77708SOL    HW244850   5.591   0.152   3.566  1.3616 -0.8879  0.9188
77709SOL     OW44851  11.191   9.071   3.024  0.4805  0.6004 -0.3148
77709SOL    HW144852  11.133   9.105   3.092  0.3980  1.3398 -0.7484
77709SOL    HW244853  11.267   9.037   3.072 -1.4553 -3.0930  0.5792
77710SOL     OW44854   6.663   2.798   1.944 -0.0655 -0.3553  0.3369
77710SOL    HW144855   6.632   2.766   1.859  0.0212  0.7354 -0.1231
77710SOL    HW244856   6.585   2.837   1.983  0.5134  1.8995 -0.5853
77711SOL     OW44857  10.157   7.251   1.923 -0.2195 -0.6689  0.5116
77711SOL    HW144858  10.103   7.258   1.845 -2.2216 -0.3097  1.8521
77711SOL    HW244859  10.157   7.158   1.944 -0.6997 -0.6227  0.7382
77712SOL     OW44860   1.431  10.618   8.727  0.2770 -0.3114 -0.3675
77712SOL    HW144861   1.386  10.544   8.687 -0.8011 -1.1584  2.1606
77712SOL    HW244862   1.522  10.589   8.738 -0.3632 -1.8370  1.6140
77713SOL     OW44863   1.724  12.592  12.806  0.0679  0.1683  0.2889
77713SOL    HW144864   1.797  12.537  12.779 -0.2329  0.0384 -0.2736
77713SOL    HW244865   1.657  12.579  12.738  0.3463  1.9556 -0.3717
77714SOL     OW44866   2.990   6.361   9.713  0.3403 -0.1922 -0.0066
77714SOL    HW144867   3.038   6.319   9.784  0.1655  1.5390  1.2070
77714SOL    HW244868   2.986   6.295   9.644  0.9807 -1.7497  1.3818
77715SOL     OW44869   6.878   1.657   9.177  0.2587  0.1298  0.6024
77715SOL    HW144870   6.815   1.651   9.105  1.3558  0.0737 -0.3817
77715SOL    HW244871   6.934   1.580   9.166 -0.1614 -0.4282  2.1345
77716SOL     OW44872   4.450   2.809   0.734  0.8260 -0.3265  0.1194
77716SOL    HW144873   4.515   2.769   0.793 -2.3566 -2.9429  2.2149
77716SOL    HW244874   4.421   2.737   0.679 -1.6174  0.2111  0.5983
77717SOL     OW44875   2.340   0.014   3.370 -0.6309  0.6150 -0.2515
77717SOL    HW144876   2.272  -0.033   3.321 -0.8725  2.4503 -1.7991
77717SOL    HW244877   2.411   0.025   3.307 -1.1646  3.5146 -0.4828
77718SOL     OW44878   0.160   4.582   9.781 -0.0388  0.0459 -0.3680
77718SOL    HW144879   0.076   4.545   9.809  0.6432 -0.3023  1.3050
77718SOL    HW244880   0.148   4.599   9.687 -1.9176 -0.1298 -0.1980
77719SOL     OW44881   9.876   3.482   8.396  0.0218  0.2503  0.4010
77719SOL    HW144882   9.903   3.482   8.487  0.8875 -0.5699  0.1618
77719SOL    HW244883   9.858   3.574   8.376 -0.9543  0.3381  1.6074
77720SOL     OW44884   2.238   4.436   4.658  0.2192 -0.2669 -0.3964
77720SOL    HW144885   2.148   4.428   4.689 -0.0388 -0.7121 -1.2459
77720SOL    HW244886   2.284   4.482   4.729  0.0943 -2.8654  1.5059
77721SOL     OW44887  11.955   2.258   3.851 -0.2970  0.5601  0.4554
77721SOL    HW144888  11.911   2.174   3.840  0.7835  0.1501 -0.9713
77721SOL    HW244889  11.922   2.312   3.778 -0.2107  1.0268  0.7576
77722SOL     OW44890  12.844  13.708   3.988 -0.1268 -0.3477 -0.3376
77722SOL    HW144891  12.833  13.803   3.995  0.3318 -0.2434 -1.0112
77722SOL    HW244892  12.936  13.693   4.009 -0.2223 -0.6596 -0.1386
77723SOL     OW44893  11.050  12.766   5.551  0.1646 -0.0856 -0.3102
77723SOL    HW144894  10.983  12.702   5.527  0.3333 -1.2833  2.1234
77723SOL    HW244895  11.000  12.839   5.589  0.1323 -0.6513  0.7980
77724SOL     OW44896  12.028  13.098  10.335 -0.0648  0.3433  0.0374
77724SOL    HW144897  12.063  13.021  10.379 -0.4108  0.1955  0.0585
77724SOL    HW244898  11.973  13.063  10.265 -0.4364  0.5643  0.2158
77725SOL     OW44899   7.428   1.236   3.221 -0.7355 -0.1587 -0.1918
77725SOL    HW144900   7.466   1.310   3.268 -0.4449 -0.5736  0.2396
77725SOL    HW244901   7.503   1.183   3.194 -0.8542  0.4018 -1.7164
77726SOL     OW44902   4.988   3.564   8.148  0.5023 -0.4655  0.2670
77726SOL    HW144903   5.037   3.509   8.087  0.8346 -0.0134  0.1233
77726SOL    HW244904   5.022   3.540   8.234 -0.3402 -1.4876  0.3378
77727SOL     OW44905   4.296   4.007   0.844  0.5168 -0.1640  0.6385
77727SOL    HW144906   4.368   3.945   0.848 -0.4311 -1.4935 -1.3644
77727SOL    HW244907   4.217   3.953   0.854 -0.2784  1.2032  2.4557
77728SOL     OW44908  11.975   6.308  12.291 -0.1984 -0.3598  0.2431
77728SOL    HW144909  12.025   6.227  12.297  0.4570 -0.0082 -0.3793
77728SOL    HW244910  11.890   6.287  12.330  0.1595 -1.1830  0.5878
77729SOL     OW44911  10.407   8.030   5.808 -0.0515  0.5006 -0.2851
77729SOL    HW144912  10.382   8.034   5.716 -3.4281 -3.7774  0.1431
77729SOL    HW244913  10.496   7.994   5.808 -0.6370 -1.0396 -1.9072
77730SOL     OW44914   7.983   7.374  13.636 -0.5785  0.0918 -0.0198
77730SOL    HW144915   8.052   7.366  13.702  0.3277  0.9701 -0.8165
77730SOL    HW244916   7.944   7.286  13.632 -0.9888  0.1241  1.9837
77731SOL     OW44917   2.536   7.658  11.700 -0.0951 -0.0611  0.4271
77731SOL    HW144918   2.623   7.688  11.727 -0.2022 -0.4560  1.2498
77731SOL    HW244919   2.490   7.641  11.782 -1.0164  0.3224 -0.0014
77732SOL     OW44920   8.659  11.168   5.563 -0.2678 -0.0354 -0.4679
77732SOL    HW144921   8.744  11.152   5.523  0.3164  0.5901  0.4842
77732SOL    HW244922   8.664  11.259   5.594 -0.8010 -0.4027  0.7449
77733SOL     OW44923  13.024   3.660  12.624  0.2581 -0.5388 -0.1724
77733SOL    HW144924  13.004   3.712  12.546 -0.9194  0.7374  0.9373
77733SOL    HW244925  13.098   3.704  12.665  0.3575 -0.7389 -0.1332
77734SOL     OW44926   0.144  12.970   2.207 -0.5696 -0.0649  0.5918
77734SOL    HW144927   0.078  13.022   2.252 -1.4190  0.3235 -1.0178
77734SOL    HW244928   0.227  12.993   2.250 -1.2531  0.7011  1.5428
77735SOL     OW44929   6.489   8.384   6.449 -0.4918 -0.1967  0.2019
77735SOL    HW144930   6.490   8.354   6.540  0.2772  0.4127  0.4031
77735SOL    HW244931   6.425   8.327   6.406 -1.4521  0.0098  1.2854
77736SOL     OW44932   9.643   0.238  10.968 -0.3217 -1.1956 -0.8411
77736SOL    HW144933   9.715   0.204  11.020 -0.6206 -1.2997 -0.4922
77736SOL    HW244934   9.684   0.302  10.909 -0.2957  0.7844  1.2030
77737SOL     OW44935   0.694   0.665   0.304  0.2382 -0.0663  0.1616
77737SOL    HW144936   0.781   0.705   0.304  0.0134  0.4831  1.4461
77737SOL    HW244937   0.710   0.573   0.325  0.6454 -0.4100 -1.5005
77738SOL     OW44938  12.380   0.195   6.021  0.0764 -0.1686 -0.4784
77738SOL    HW144939  12.300   0.151   6.051  0.0500  0.3453  0.2227
77738SOL    HW244940  12.368   0.202   5.926 -0.4974 -0.5230 -0.4406
77739SOL     OW44941  11.725   1.277   5.095  0.2234  0.4630  0.1537
77739SOL    HW144942  11.712   1.209   5.028  0.0159  0.4667  0.1889
77739SOL    HW244943  11.677   1.352   5.062 -0.5314  0.2187  0.6769
77740SOL     OW44944   8.981   6.023   8.016  0.0862  0.5752  0.0677
77740SOL    HW144945   8.954   6.090   8.079 -1.1289  1.0093 -0.8903
77740SOL    HW244946   9.032   6.071   7.950  0.4071  0.3099  0.1201
77741SOL     OW44947  10.950  13.678   7.238 -0.6853 -0.1095 -0.7323
77741SOL    HW144948  10.947  13.726   7.156 -1.7666 -0.8461 -1.1503
77741SOL    HW244949  10.867  13.699   7.281 -0.6213 -0.6071 -0.3566
77742SOL     OW44950   9.930   9.037   4.278  0.1750  0.3957  0.3701
77742SOL    HW144951   9.836   9.052   4.282 -0.5179 -2.7958 -1.0939
77742SOL    HW244952   9.953   9.005   4.365  0.1199  1.8469  0.9538
77743SOL     OW44953   3.139   7.122   4.315  0.6469 -0.0195  0.0939
77743SOL    HW144954   3.194   7.136   4.238  1.2869 -0.6864  0.4150
77743SOL    HW244955   3.126   7.209   4.352  1.4624  0.1458 -0.0036
77744SOL     OW44956   2.364   5.163   6.204 -0.9007 -0.3107 -0.2944
77744SOL    HW144957   2.333   5.217   6.131  1.3536  0.8250 -0.4690
77744SOL    HW244958   2.394   5.082   6.163  0.2648  0.2845 -0.6538
77745SOL     OW44959   3.173  10.934   3.845  0.4351  0.0286 -0.4154
77745SOL    HW144960   3.169  10.999   3.775  1.2761 -0.9401 -1.4072
77745SOL    HW244961   3.210  10.981   3.920 -0.4491  1.0770 -0.6058
77746SOL     OW44962  13.002  10.145   0.201 -0.5884  0.2605  0.1437
77746SOL    HW144963  13.048  10.170   0.121  0.3842  0.9037  0.8835
77746SOL    HW244964  12.910  10.166   0.184 -1.1315 -3.2050 -2.2486
77747SOL     OW44965   4.954   0.844   8.837 -0.0515 -0.5218  0.1159
77747SOL    HW144966   4.977   0.785   8.909 -1.2443  0.3910  1.2873
77747SOL    HW244967   4.861   0.861   8.849 -0.5475 -1.1192 -2.2463
77748SOL     OW44968   1.465   1.751   7.508 -0.0874 -0.2808 -0.1934
77748SOL    HW144969   1.393   1.702   7.468 -0.4143 -1.2472  1.4662
77748SOL    HW244970   1.425   1.834   7.536 -0.1761 -0.1696 -0.6453
77749SOL     OW44971  12.404   9.075   3.166  0.2051  0.0576 -0.6082
77749SOL    HW144972  12.345   9.148   3.144  0.6201  0.4634 -0.3845
77749SOL    HW244973  12.492   9.110   3.153  0.4251 -0.1663  0.2391
77750SOL     OW44974  11.062  11.249  13.366 -0.4678  0.2370  0.5692
77750SOL    HW144975  11.072  11.171  13.313 -1.4235  1.6292 -1.8431
77750SOL    HW244976  10.982  11.291  13.332  0.5728  2.7786  1.0077
77751SOL     OW44977   3.422  12.685   0.013 -0.9010  0.1819 -0.1103
77751SOL    HW144978   3.494  12.714   0.070  0.8220 -1.2150 -1.4633
77751SOL    HW244979   3.382  12.766  -0.018  0.8387  1.0539 -0.2233
77752SOL     OW44980   2.744   4.246  12.798 -0.3825 -0.8296 -0.2865
77752SOL    HW144981   2.700   4.268  12.716  1.5788  2.7959 -0.5450
77752SOL    HW244982   2.702   4.302  12.863 -1.4856 -3.2022  1.2250
77753SOL     OW44983   1.946   2.566   9.075  0.0224  0.0858 -0.3898
77753SOL    HW144984   1.926   2.648   9.121  0.3406  0.0348 -0.1612
77753SOL    HW244985   1.862   2.519   9.074  0.4000 -0.7671  1.8502
77754SOL     OW44986   3.465   9.978   5.057 -0.2906 -0.6893  0.1138
77754SOL    HW144987   3.465   9.908   5.123 -0.4085  1.4276  2.5266
77754SOL    HW244988   3.501  10.054   5.103  1.5016  0.4444 -2.9021
77755SOL     OW44989  10.935  12.135   6.878 -0.9171 -0.3683 -0.6629
77755SOL    HW144990  10.855  12.107   6.833 -1.9716 -0.1438  0.9409
77755SOL    HW244991  10.972  12.054   6.913 -0.4961 -0.4603 -1.3161
77756SOL     OW44992  12.341   3.975  10.315  0.2861 -0.1789  0.0825
77756SOL    HW144993  12.404   4.027  10.264  1.1975  0.3457  1.6737
77756SOL    HW244994  12.256   4.011  10.291  0.9054  2.6368  1.6484
77757SOL     OW44995   1.169   3.305  11.931  0.2662  0.4924 -0.3579
77757SOL    HW144996   1.136   3.263  11.851  1.1240 -0.4527 -0.2383
77757SOL    HW244997   1.095   3.357  11.962  0.1770  1.5483 -2.1998
77758SOL     OW44998  13.000   5.055   0.633  0.0196 -0.0428  0.3218
77758SOL    HW144999  13.063   5.047   0.562  0.3641  2.3997  0.2771
77758SOL    HW245000  12.925   5.004   0.604  0.9132 -0.7000 -0.8880
77759SOL     OW45001   5.721  10.305   3.681 -0.0340  0.0036  0.1594
77759SOL    HW145002   5.704  10.228   3.735  1.8545  0.6354  1.7299
77759SOL    HW245003   5.677  10.377   3.726  0.1175  0.2517 -0.0834
77760SOL     OW45004   1.394   4.295  12.703  0.0206  1.1380 -0.4067
77760SOL    HW145005   1.473   4.297  12.648 -0.5837  1.4806 -1.2799
77760SOL    HW245006   1.411   4.359  12.772  1.2639 -0.1092  0.5051
77761SOL     OW45007   6.604   8.932   2.748 -0.4266  0.5464  0.5570
77761SOL    HW145008   6.564   8.988   2.682  1.9073  1.5691 -0.0873
77761SOL    HW245009   6.633   8.855   2.700 -0.2827  0.5054  0.7067
77762SOL     OW45010   4.405  12.313   3.399 -0.5432 -0.0063 -0.1435
77762SOL    HW145011   4.329  12.367   3.419 -1.6076 -1.1613 -0.9098
77762SOL    HW245012   4.472  12.375   3.369 -0.0145  1.3944  3.4522
77763SOL     OW45013   2.395   2.669  13.483 -0.2396 -0.0871  0.2024
77763SOL    HW145014   2.324   2.612  13.514  0.4354 -1.4343 -0.6360
77763SOL    HW245015   2.404   2.736  13.551 -2.6158  0.4118  0.1007
77764SOL     OW45016  12.383   1.160  13.298 -0.2421 -0.3233 -0.3820
77764SOL    HW145017  12.375   1.084  13.356 -2.0420  1.2094  1.5281
77764SOL    HW245018  12.476   1.181  13.297  0.0716 -1.6108  0.3006
77765SOL     OW45019   1.711  11.260   4.591  0.0711 -0.4025  0.0955
77765SOL    HW145020   1.635  11.232   4.540 -0.6040 -0.2144  0.9812
77765SOL    HW245021   1.675  11.294   4.672  1.1010 -0.1906  0.4845
77766SOL     OW45022  10.825   8.500  13.132  0.0375 -0.0885  0.3774
77766SOL    HW145023  10.822   8.595  13.121  1.7956  0.0102  0.3354
77766SOL    HW245024  10.752   8.467  13.081  0.8461  1.1110 -1.6957
77767SOL     OW45025   0.786   3.887   8.695 -0.4069 -0.1894  0.1109
77767SOL    HW145026   0.743   3.879   8.780  0.7596  0.3389  0.7796
77767SOL    HW245027   0.716   3.909   8.634 -1.3046 -0.8678  0.8782
77768SOL     OW45028   3.761   1.610   6.677  0.1159  0.4720  0.1665
77768SOL    HW145029   3.771   1.527   6.723 -1.3884 -0.0242 -0.3407
77768SOL    HW245030   3.765   1.586   6.584 -0.9826  0.8466  0.0079
77769SOL     OW45031   0.998   0.550   6.528  0.7708  0.3338 -0.6735
77769SOL    HW145032   1.089   0.573   6.543  0.4239  2.0725 -1.0124
77769SOL    HW245033   0.950   0.633   6.535 -0.7157 -0.4514 -0.9985
77770SOL     OW45034   3.796   9.351  12.915 -0.3560 -0.2148 -0.3855
77770SOL    HW145035   3.830   9.265  12.937 -1.3505 -0.0862  1.9016
77770SOL    HW245036   3.706   9.336  12.889 -0.3930  0.0870 -0.4388
77771SOL     OW45037   0.777   2.177  11.110  0.2621  0.3366 -0.2700
77771SOL    HW145038   0.825   2.257  11.088 -0.6512  0.9782 -0.0229
77771SOL    HW245039   0.818   2.146  11.191  0.2908  0.8524 -0.0825
77772SOL     OW45040  12.506   5.434   7.195  0.8570  0.1737 -0.0418
77772SOL    HW145041  12.468   5.346   7.191 -0.2720  0.6672 -0.6595
77772SOL    HW245042  12.505   5.457   7.288 -0.6067  0.2516 -0.0504
77773SOL     OW45043  10.756   6.729   0.983  0.5111  0.1927 -0.3040
77773SOL    HW145044  10.703   6.805   1.009  0.6551  0.0890  0.3168
77773SOL    HW245045  10.843   6.766   0.964  0.1439  0.4093 -1.6480
77774SOL     OW45046  12.797   7.023   5.826  0.0480  0.4006 -0.0662
77774SOL    HW145047  12.726   7.081   5.801  1.2855  2.6946  1.3616
77774SOL    HW245048  12.815   7.044   5.917  1.2866 -1.4978  0.1975
77775SOL     OW45049   9.445   1.323  10.197  0.2103  0.3383  0.0772
77775SOL    HW145050   9.415   1.248  10.146  0.3004  0.6626 -0.4580
77775SOL    HW245051   9.528   1.348  10.158  0.0166  0.9280  0.0359
77776SOL     OW45052   2.503   7.044   1.114  0.3024 -0.2693  0.0015
77776SOL    HW145053   2.513   7.127   1.067 -1.2852  0.1047  0.2818
77776SOL    HW245054   2.435   7.061   1.179 -1.2031 -2.2072 -0.9511
77777SOL     OW45055   1.061  11.112  12.790 -0.2407  0.1049 -0.8245
77777SOL    HW145056   1.061  11.171  12.865 -0.2955 -0.1515 -0.6214
77777SOL    HW245057   1.098  11.164  12.718  0.4712  0.1276 -0.4458
77778SOL     OW45058   9.544   9.434  12.005 -0.0144 -0.5366 -0.3364
77778SOL    HW145059   9.556   9.342  11.982  0.1804 -0.7172  0.4492
77778SOL    HW245060   9.459   9.457  11.968  1.6311  0.1761 -4.1625
77779SOL     OW45061   7.023   5.370   6.400 -0.0274  0.7573  0.6834
77779SOL    HW145062   6.934   5.400   6.420  0.2570 -0.0531  3.7695
77779SOL    HW245063   7.079   5.444   6.422  0.2188  0.2530  1.8632
77780SOL     OW45064  12.748   1.622  10.175  0.1864  0.3866  0.2924
77780SOL    HW145065  12.710   1.668  10.101 -2.6286 -0.7430  0.9151
77780SOL    HW245066  12.724   1.530  10.162  0.7566 -0.0352  1.9427
77781SOL     OW45067   8.681  10.077   6.918  0.6220  0.0786 -0.3874
77781SOL    HW145068   8.753  10.128   6.879  0.7489 -0.4507 -0.8527
77781SOL    HW245069   8.604  10.099   6.866  1.0451 -1.6341 -1.8433
77782SOL     OW45070   4.803  10.608   9.264  0.4161  0.3011 -0.1405
77782SOL    HW145071   4.861  10.579   9.335  1.0527  1.4442 -0.1531
77782SOL    HW245072   4.859  10.606   9.186  0.3397  1.0218 -0.2247
77783SOL     OW45073   8.356  13.158   9.463 -0.1290 -0.8804  0.1299
77783SOL    HW145074   8.302  13.204   9.399 -1.0035 -0.1672  1.3388
77783SOL    HW245075   8.311  13.074   9.476 -0.9303 -0.3215  1.0732
77784SOL     OW45076  12.292  10.601   7.190  0.3552  0.3869 -0.4924
77784SOL    HW145077  12.359  10.601   7.257 -0.2863  0.4684  0.1607
77784SOL    HW245078  12.309  10.523   7.138  0.5241  0.0280  0.1041
77785SOL     OW45079  12.935   5.720   5.560  0.4092  0.0697 -0.5031
77785SOL    HW145080  12.946   5.811   5.586  1.9602  0.2692 -1.6823
77785SOL    HW245081  13.008   5.704   5.500  1.8613 -2.7654  1.7790
77786SOL     OW45082   4.565   1.121  11.838 -0.8251 -0.2984  0.2264
77786SOL    HW145083   4.552   1.211  11.807 -0.1701 -0.3073 -0.0905
77786SOL    HW245084   4.639   1.127  11.899 -1.0036 -0.5674  0.4731
77787SOL     OW45085   2.577   3.803   3.284  0.8892  0.1706 -0.6291
77787SOL    HW145086   2.605   3.860   3.356 -0.2232  0.1889 -0.1965
77787SOL    HW245087   2.497   3.843   3.251 -0.1781 -1.3704 -0.0012
77788SOL     OW45088  11.428   7.804   4.224 -0.3583 -0.5055 -0.0964
77788SOL    HW145089  11.379   7.729   4.257  0.2334  0.3865  3.1496
77788SOL    HW245090  11.516   7.793   4.260  0.6647  0.1769 -2.1990
77789SOL     OW45091   7.164   8.773  10.998  0.3211  0.2277 -0.3947
77789SOL    HW145092   7.174   8.690  11.045  0.8400  0.2032 -0.5389
77789SOL    HW245093   7.194   8.839  11.061  0.8021  0.2156 -0.6049
77790SOL     OW45094   1.558   5.069   3.643  0.0081  0.6798 -0.1075
77790SOL    HW145095   1.477   5.035   3.606  0.0401  1.1383 -0.6073
77790SOL    HW245096   1.607   4.991   3.669 -0.9727  0.4129  1.0466
77791SOL     OW45097   3.719   7.105   6.505  0.1553 -0.7489  0.3198
77791SOL    HW145098   3.756   7.114   6.417  0.5574 -2.3349  0.2982
77791SOL    HW245099   3.794   7.078   6.559 -0.7725 -3.5777  0.3608
77792SOL     OW45100   7.821   9.026   8.497  0.2218  0.0829  0.1445
77792SOL    HW145101   7.838   8.938   8.532 -1.8662  0.2958  1.8731
77792SOL    HW245102   7.731   9.022   8.465  0.3262  1.4344 -0.3697
77793SOL     OW45103   7.812   7.278   9.871 -0.7154  0.2620  0.1765
77793SOL    HW145104   7.789   7.260   9.779  2.2392  1.5699 -0.9470
77793SOL    HW245105   7.908   7.279   9.871 -0.6509  1.6955  3.0208
77794SOL     OW45106   2.272   5.825   1.114 -0.4099 -0.1646  0.1481
77794SOL    HW145107   2.225   5.786   1.041 -0.8525 -0.1476  0.4261
77794SOL    HW245108   2.268   5.920   1.097  1.2410 -0.2310 -0.8882
77795SOL     OW45109   0.246   1.104   3.776  0.0312  0.1399  0.0896
77795SOL    HW145110   0.326   1.052   3.772 -0.0629 -0.0037  0.0672
77795SOL    HW245111   0.264   1.181   3.721  0.5153  0.6044  0.8832
77796SOL     OW45112   3.421   2.088   7.123 -0.0888  0.1990  0.2756
77796SOL    HW145113   3.409   2.016   7.062  0.2782  1.2426 -1.0806
77796SOL    HW245114   3.335   2.131   7.128  0.5681  1.9848 -2.0281
77797SOL     OW45115  13.728   0.686   8.090  0.4644 -0.5423 -0.3145
77797SOL    HW145116  13.795   0.726   8.036  0.9093 -2.2842 -1.1396
77797SOL    HW245117  13.646   0.726   8.060  0.9143 -0.0258 -0.8757
77798SOL     OW45118   6.105   2.736  11.767  0.4997  0.4930 -0.3413
77798SOL    HW145119   6.011   2.749  11.755  0.5639  0.7704 -0.5442
77798SOL    HW245120   6.133   2.808  11.823  0.9445  1.5394 -1.8587
77799SOL     OW45121   4.797   1.267   1.020 -0.0009 -0.6232 -0.1447
77799SOL    HW145122   4.860   1.288   0.951  1.7804  0.1119  1.6016
77799SOL    HW245123   4.845   1.207   1.077 -1.6152 -1.6311  0.2032
77800SOL     OW45124   0.720   4.876   3.623 -0.0977  0.3755 -0.6617
77800SOL    HW145125   0.757   4.879   3.711  0.5729 -1.7695 -0.7977
77800SOL    HW245126   0.796   4.887   3.565 -0.1670 -0.4846 -0.9380
77801SOL     OW45127   5.449   9.492   6.299  0.1964  0.3220  0.0993
77801SOL    HW145128   5.408   9.489   6.386  1.3003 -0.4426  0.6342
77801SOL    HW245129   5.378   9.512   6.239 -0.8182 -0.2527  1.0652
77802SOL     OW45130   4.905   3.934  12.678 -0.4939 -0.3694  0.0452
77802SOL    HW145131   4.981   3.931  12.736 -0.1608 -1.7775 -0.4382
77802SOL    HW245132   4.834   3.966  12.734  0.4926  1.3529  0.4034
77803SOL     OW45133  12.770   7.647   5.241  0.2505 -0.0830  0.4967
77803SOL    HW145134  12.797   7.663   5.332 -1.1505  1.5474  0.6865
77803SOL    HW245135  12.836   7.692   5.189 -0.7392  1.9640  0.8816
77804SOL     OW45136  10.378  12.056  10.084  0.0693  0.3331 -0.1307
77804SOL    HW145137  10.453  12.031  10.139 -0.0096  0.7730  0.1797
77804SOL    HW245138  10.415  12.067   9.997  0.7424  2.3890  0.3566
77805SOL     OW45139   1.183   2.882  10.274  0.3691  0.2376  0.1239
77805SOL    HW145140   1.129   2.863  10.197  0.9392 -1.7252  0.1582
77805SOL    HW245141   1.257   2.823  10.267  2.0357  2.1424  0.6305
77806SOL     OW45142   7.989  10.734   3.208 -0.3374  0.1386  1.1338
77806SOL    HW145143   7.940  10.729   3.126 -0.9777  1.3407  1.4169
77806SOL    HW245144   8.003  10.828   3.221 -0.3019 -0.0404  2.4389
77807SOL     OW45145   1.885  11.224   5.047  0.0341  0.2069  0.6363
77807SOL    HW145146   1.973  11.204   5.017  0.2964 -0.5151  1.8378
77807SOL    HW245147   1.862  11.152   5.107 -1.3737  0.3687  0.3446
77808SOL     OW45148   9.516  10.972   4.476 -0.2910  0.1064 -0.1108
77808SOL    HW145149   9.451  10.979   4.406  0.1756  1.3241 -0.4561
77808SOL    HW245150   9.599  10.998   4.435 -0.3674  3.0932  1.3475
77809SOL     OW45151   4.380   4.646   9.936  0.6300 -0.1475  0.3376
77809SOL    HW145152   4.359   4.553   9.943 -0.9844  0.0107 -1.5215
77809SOL    HW245153   4.458   4.657   9.991  1.8087 -2.8883 -0.5756
77810SOL     OW45154  12.065   7.060   3.484 -0.2196  0.2749 -0.1107
77810SOL    HW145155  12.075   6.983   3.427  0.9015  0.4141 -0.1171
77810SOL    HW245156  12.124   7.043   3.557 -1.3985  0.2544  0.8553
77811SOL     OW45157   3.764   0.295   0.404  0.6266  0.0011  0.1885
77811SOL    HW145158   3.685   0.248   0.432  0.3122  0.3295 -0.1251
77811SOL    HW245159   3.811   0.233   0.349  0.3897 -0.0681  0.0628
77812SOL     OW45160   8.495   5.798   5.163  0.2923  0.0286  0.1434
77812SOL    HW145161   8.403   5.821   5.173  0.0835 -0.6661 -0.1456
77812SOL    HW245162   8.495   5.704   5.146  1.1080 -0.1246  0.9153
77813SOL     OW45163   7.588   0.349  13.054 -0.4291 -0.3977 -0.0018
77813SOL    HW145164   7.539   0.431  13.047 -0.6199 -0.4305  0.7787
77813SOL    HW245165   7.527   0.282  13.021 -0.5537 -0.3155  0.0584
77814SOL     OW45166   8.916  11.387  10.897 -0.2329  0.5357 -0.1214
77814SOL    HW145167   8.942  11.386  10.989  0.8595 -0.4106 -0.4173
77814SOL    HW245168   8.954  11.307  10.860 -1.6483  0.2914 -1.1330
77815SOL     OW45169  11.257  12.479   0.936 -0.3417  0.4960 -0.1278
77815SOL    HW145170  11.274  12.573   0.944 -1.3547  0.6280  0.6608
77815SOL    HW245171  11.343  12.439   0.942 -0.0579  1.2513  1.7981
77816SOL     OW45172   6.178   3.903   7.969 -0.2599 -0.4812  0.3988
77816SOL    HW145173   6.133   3.930   8.049  0.3181 -0.7730  0.8320
77816SOL    HW245174   6.109   3.898   7.903 -0.5468  1.0803  0.5363
77817SOL     OW45175   0.366  10.283  11.302  0.3340 -0.3088  0.7282
77817SOL    HW145176   0.414  10.350  11.351 -0.3823 -0.6875  1.9685
77817SOL    HW245177   0.324  10.229  11.368 -2.1680  0.2456 -0.2937
77818SOL     OW45178   0.775   4.665   2.318 -0.3835 -0.5506 -0.4638
77818SOL    HW145179   0.741   4.755   2.314  0.2135 -0.1966  1.3532
77818SOL    HW245180   0.703   4.614   2.354 -0.2832 -0.5504 -0.2637
77819SOL     OW45181  10.772   5.099  10.750 -0.1755  0.0473  0.4923
77819SOL    HW145182  10.705   5.153  10.710  0.6674  1.6288  1.1522
77819SOL    HW245183  10.837   5.161  10.783  3.6878 -1.3168 -3.4979
77820SOL     OW45184   3.406  13.018   3.023 -0.9841  0.8490 -0.1844
77820SOL    HW145185   3.463  13.082   2.981  1.2657 -1.7808 -1.4773
77820SOL    HW245186   3.366  12.970   2.951 -3.2846  1.2320  0.7437
77821SOL     OW45187  10.455   7.720   4.909  0.2502  0.3921 -0.5825
77821SOL    HW145188  10.406   7.794   4.873 -0.8927 -0.1967 -0.2711
77821SOL    HW245189  10.512   7.692   4.837 -0.8169  0.2671 -1.3964
77822SOL     OW45190   9.891   1.953  13.135  0.3051 -0.2780 -0.0083
77822SOL    HW145191   9.941   2.035  13.131  1.2170 -0.7374  1.2926
77822SOL    HW245192   9.950   1.888  13.096 -0.3917 -0.3524 -0.9781
77823SOL     OW45193   7.042   4.036   7.686 -0.1013  0.0366 -0.0643
77823SOL    HW145194   6.985   3.963   7.662  0.0524 -0.2797  0.5203
77823SOL    HW245195   7.113   4.033   7.621 -0.6740  0.3535 -0.7135
77824SOL     OW45196   7.510   1.102   0.357  0.5766  0.6600  0.0981
77824SOL    HW145197   7.521   1.033   0.291  0.6764  1.2585 -0.5288
77824SOL    HW245198   7.416   1.117   0.361  0.6183  1.1232 -0.4524
77825SOL     OW45199   5.576  10.443  11.028 -0.0502  0.9109 -0.2324
77825SOL    HW145200   5.585  10.348  11.035 -0.2871  0.8045 -1.2471
77825SOL    HW245201   5.481  10.457  11.023 -0.0041  1.1754 -0.3680
77826SOL     OW45202   0.674  11.890  11.462 -0.5828 -0.0795  0.0271
77826SOL    HW145203   0.722  11.813  11.432  0.2044  1.0610 -1.7896
77826SOL    HW245204   0.613  11.910  11.392 -0.4659  1.2037  0.2638
77827SOL     OW45205  10.529  11.433   9.366 -0.5678 -0.5767  0.2791
77827SOL    HW145206  10.511  11.478   9.449  0.0190 -1.1848  0.7514
77827SOL    HW245207  10.608  11.382   9.384 -0.6192 -0.9580 -0.5648
77828SOL     OW45208   5.432   0.399   4.574  0.8104  0.5069  0.0240
77828SOL    HW145209   5.494   0.381   4.644  1.4471  1.4084 -0.3021
77828SOL    HW245210   5.401   0.488   4.591  0.1726  0.3416 -0.2449
77829SOL     OW45211   0.111  12.103   6.024 -0.1806 -0.1183 -0.9201
77829SOL    HW145212   0.117  12.197   6.044  1.0139  0.3911 -3.3019
77829SOL    HW245213   0.198  12.068   6.046 -1.6462 -1.6652  3.6884
77830SOL     OW45214   9.908   0.049   7.341 -0.1427  0.0468 -0.2147
77830SOL    HW145215   9.847   0.071   7.412 -0.9970  2.7427 -1.6519
77830SOL    HW245216   9.852   0.030   7.266  0.7766 -0.7859 -0.7130
77831SOL     OW45217  13.332   3.428   1.065 -0.2409 -0.3635  0.5069
77831SOL    HW145218  13.319   3.452   1.157  0.2676 -1.1601  0.7976
77831SOL    HW245219  13.319   3.509   1.017  1.4982  0.5290  1.4562
77832SOL     OW45220   3.246   3.475   4.807  0.9925  0.1698  0.3686
77832SOL    HW145221   3.204   3.396   4.841  0.1670  0.0506 -0.8665
77832SOL    HW245222   3.234   3.470   4.713  0.3625  2.0788  0.3000
77833SOL     OW45223   5.567   8.366   9.610  0.4179  0.0654 -0.2340
77833SOL    HW145224   5.540   8.283   9.571  0.5194 -0.1833  0.2316
77833SOL    HW245225   5.553   8.430   9.540 -0.9131 -0.1341 -0.1787
77834SOL     OW45226  11.990   2.538   6.814 -0.3339 -0.4312 -0.7191
77834SOL    HW145227  11.944   2.622   6.816  1.4105  0.6191  1.8922
77834SOL    HW245228  11.930   2.476   6.855 -1.1264 -0.1711 -1.4679
77835SOL     OW45229   2.154   8.259  11.437 -0.6781  0.1762 -0.6254
77835SOL    HW145230   2.067   8.222  11.421  0.1186 -1.5511 -1.1361
77835SOL    HW245231   2.214   8.201  11.391  0.8165  1.0393  0.1531
77836SOL     OW45232  13.585  12.492   2.631 -0.3603 -0.3663  0.0122
77836SOL    HW145233  13.674  12.513   2.659 -0.3061  0.6063 -0.8000
77836SOL    HW245234  13.593  12.408   2.586  0.4529  0.3823 -1.3394
77837SOL     OW45235  11.176  11.963   0.365  0.2233  0.2281 -0.1976
77837SOL    HW145236  11.112  11.999   0.305  0.8310  0.9922 -0.4050
77837SOL    HW245237  11.159  11.869   0.365 -0.4193  0.3410 -0.7965
77838SOL     OW45238   5.590   9.897   5.426  0.1042  0.4915 -0.6803
77838SOL    HW145239   5.573   9.883   5.332 -1.0131  0.6688 -0.5158
77838SOL    HW245240   5.675   9.940   5.428 -0.5347  1.8980 -1.7242
77839SOL     OW45241   0.943   9.048   2.109  0.6234 -0.3007  0.0457
77839SOL    HW145242   1.025   8.999   2.100  0.6593  0.0063 -1.4079
77839SOL    HW245243   0.948   9.085   2.198  1.7048 -0.9031  0.2590
77840SOL     OW45244   3.974  11.742   1.725 -0.2717 -0.0580  0.4041
77840SOL    HW145245   3.895  11.691   1.738  0.2010 -0.7679  0.5199
77840SOL    HW245246   3.949  11.831   1.751 -0.6298 -0.5520  1.8248
77841SOL     OW45247   6.953   9.395  10.034 -0.5979  0.3899 -0.2160
77841SOL    HW145248   6.974   9.403  10.128 -0.5536  0.4383 -0.2300
77841SOL    HW245249   6.975   9.481   9.998  1.7937 -0.3813 -0.7399
77842SOL     OW45250   2.252  10.700   4.680 -0.3568  0.2533 -0.2259
77842SOL    HW145251   2.211  10.684   4.765 -1.6586  1.2112 -0.6481
77842SOL    HW245252   2.345  10.682   4.695 -0.4623  0.9855  1.5624
77843SOL     OW45253   3.083   1.192  10.984  0.6018  0.3673 -0.2655
77843SOL    HW145254   3.016   1.239  10.936  1.3100  1.0533 -0.6033
77843SOL    HW245255   3.110   1.252  11.054  0.0187 -0.3761  0.6192
77844SOL     OW45256   4.867  10.666   2.792  0.0123 -0.3509 -0.2129
77844SOL    HW145257   4.939  10.607   2.813  0.1889 -0.3261 -0.7331
77844SOL    HW245258   4.864  10.666   2.696 -0.2832  0.1261 -0.2026
77845SOL     OW45259   8.685  12.587   3.105 -0.2087 -0.2922  0.1081
77845SOL    HW145260   8.685  12.670   3.057 -1.8262 -0.5181 -0.3186
77845SOL    HW245261   8.656  12.523   3.041  2.5538 -1.5405 -0.0473
77846SOL     OW45262   3.391   9.565   5.544  0.9398 -0.1608  0.8276
77846SOL    HW145263   3.349   9.479   5.536  2.3536 -0.8660  0.6837
77846SOL    HW245264   3.351   9.617   5.473  0.2250 -0.7521  0.7803
77847SOL     OW45265   2.168   0.754   2.074 -0.2942 -0.0219 -0.0805
77847SOL    HW145266   2.120   0.775   1.994 -0.3092  0.3818  0.0318
77847SOL    HW245267   2.107   0.772   2.145  0.2343  1.1481  0.0985
77848SOL     OW45268  13.023   7.581  12.886  0.0154 -0.0260  1.1099
77848SOL    HW145269  13.041   7.573  12.980  1.1288 -0.0947  0.9060
77848SOL    HW245270  12.946   7.638  12.881  0.5064  0.7501  2.0347
77849SOL     OW45271   3.460  13.196   1.174 -0.4165  0.3707 -0.4616
77849SOL    HW145272   3.491  13.279   1.212  0.5376 -0.7778  1.4149
77849SOL    HW245273   3.368  13.191   1.200 -0.6527  1.1097 -1.1176
77850SOL     OW45274  11.536  12.396   0.897  0.2562  0.2098  0.0916
77850SOL    HW145275  11.501  12.461   0.835  0.4737  1.0611  0.8364
77850SOL    HW245276  11.631  12.403   0.886  0.2573 -0.8542 -0.6810
77851SOL     OW45277   3.483   0.277   1.316  0.0257 -0.1539  0.5586
77851SOL    HW145278   3.397   0.262   1.355 -0.0667 -1.0525  0.0369
77851SOL    HW245279   3.466   0.296   1.224  0.3214  0.7137  0.6776
77852SOL     OW45280  12.186   1.962   4.089 -0.7140 -0.5311 -0.5236
77852SOL    HW145281  12.241   1.928   4.160 -0.5592 -0.4254 -0.5909
77852SOL    HW245282  12.102   1.980   4.130 -0.4108  0.1952 -0.2088
77853SOL     OW45283  13.056   5.825  10.309 -0.1898 -1.0199 -0.5096
77853SOL    HW145284  13.077   5.783  10.226 -2.7425 -1.8961 -0.8069
77853SOL    HW245285  13.131   5.806  10.365  1.8146 -0.0313 -2.6709
77854SOL     OW45286  11.725  11.285   1.146 -0.2745  0.1944  0.2342
77854SOL    HW145287  11.635  11.318   1.134 -0.4110 -0.0900  0.4724
77854SOL    HW245288  11.766  11.348   1.206 -0.7527 -0.4388  1.2554
77855SOL     OW45289  12.467   5.178   3.697 -0.4395 -0.0897  0.0425
77855SOL    HW145290  12.409   5.185   3.773  2.4618 -0.3592  2.4469
77855SOL    HW245291  12.487   5.085   3.691 -2.1276 -0.3851 -2.3790
77856SOL     OW45292   2.417   4.036   4.649 -0.5549 -0.1002 -0.3953
77856SOL    HW145293   2.365   4.074   4.578 -1.0634 -0.0470 -0.0015
77856SOL    HW245294   2.469   3.967   4.606  1.1854  1.6978 -1.3164
77857SOL     OW45295   5.372   0.359   5.170 -0.3658  0.0935  0.6523
77857SOL    HW145296   5.353   0.272   5.205  1.9944 -0.8274 -0.2111
77857SOL    HW245297   5.365   0.417   5.246 -0.7209 -1.0208  1.5050
77858SOL     OW45298   5.415   8.722   3.960 -0.2291  0.3572 -0.2984
77858SOL    HW145299   5.386   8.685   3.877  2.5085 -2.1131 -0.3289
77858SOL    HW245300   5.495   8.770   3.938  0.5919 -0.4303  0.8640
77859SOL     OW45301   5.481   2.495   7.963  0.0482 -0.1062 -0.0553
77859SOL    HW145302   5.570   2.515   7.933  0.1736 -0.1922  0.2666
77859SOL    HW245303   5.475   2.535   8.050  0.8280 -2.7840  1.3327
77860SOL     OW45304   0.733   8.774  10.601  0.2212  0.6381  0.4480
77860SOL    HW145305   0.701   8.814  10.520  2.0888 -0.2273 -0.7996
77860SOL    HW245306   0.672   8.803  10.668 -0.7380  2.3476 -1.0679
77861SOL     OW45307  13.153   8.439   9.202  0.4145 -0.2732 -0.4220
77861SOL    HW145308  13.131   8.359   9.155 -1.6411 -1.4970  2.4029
77861SOL    HW245309  13.242   8.425   9.234  0.2257 -1.2689 -0.3198
77862SOL     OW45310   1.472  12.048   2.328  0.1372  0.2954  0.3241
77862SOL    HW145311   1.458  12.105   2.403 -0.4862  1.9382 -0.9810
77862SOL    HW245312   1.538  12.093   2.275  1.1746 -1.2264  0.2289
77863SOL     OW45313  10.145   1.503  12.495  0.2651 -0.1492  0.0250
77863SOL    HW145314  10.112   1.413  12.499 -2.1492  0.5959 -1.1834
77863SOL    HW245315  10.229   1.495  12.450  0.9642 -1.9518  1.5067
77864SOL     OW45316  10.844   9.960   7.068 -0.5548 -0.1214 -0.4632
77864SOL    HW145317  10.880   9.922   6.989  0.6455  0.2004 -0.0874
77864SOL    HW245318  10.779   9.896   7.098  0.9550 -1.5888 -0.1921
77865SOL     OW45319   2.465   5.994   8.360 -0.5002 -0.1632  0.0497
77865SOL    HW145320   2.506   5.909   8.378  0.2862 -0.3649 -2.2975
77865SOL    HW245321   2.383   5.993   8.410 -0.1637 -1.9967  0.6311
77866SOL     OW45322   3.815   2.154  10.621  0.2211 -0.2013 -0.6809
77866SOL    HW145323   3.771   2.073  10.645  0.0044  0.1613  0.1991
77866SOL    HW245324   3.832   2.146  10.527 -0.7915 -0.7952 -0.8275
77867SOL     OW45325  10.197   4.098   4.341  0.4787 -0.1470 -0.6138
77867SOL    HW145326  10.224   4.054   4.421 -0.7275 -1.3869 -0.8474
77867SOL    HW245327  10.277   4.103   4.288  1.0253 -0.4058  0.1777
77868SOL     OW45328   9.758   5.853   7.559  0.5089  0.4756  0.5160
77868SOL    HW145329   9.679   5.811   7.526  1.5517 -0.8930 -0.3414
77868SOL    HW245330   9.823   5.839   7.491  2.4123 -1.3842  2.5662
77869SOL     OW45331   2.744   1.173   5.479 -0.6924 -0.0332  0.1781
77869SOL    HW145332   2.788   1.230   5.417 -1.9561  0.2344 -0.4864
77869SOL    HW245333   2.800   1.095   5.483  0.9248  1.0869  0.9220
77870SOL     OW45334   5.389   0.650  11.843  0.6238  0.2238  0.2540
77870SOL    HW145335   5.414   0.569  11.800 -0.8127  0.3946 -0.9598
77870SOL    HW245336   5.306   0.674  11.803  0.7628  2.0242  0.9638
77871SOL     OW45337  10.010   0.853   4.806  0.7936  0.1738  0.4794
77871SOL    HW145338   9.967   0.864   4.722 -0.1046 -3.4212  0.3117
77871SOL    HW245339   9.946   0.883   4.871  0.1181 -0.2311  0.0061
77872SOL     OW45340   4.195   5.613   6.584  0.7054 -0.0550 -0.2368
77872SOL    HW145341   4.262   5.621   6.515  1.6349  1.2814  0.7805
77872SOL    HW245342   4.157   5.700   6.590 -0.5816 -0.6021 -0.2264
77873SOL     OW45343  12.259   7.371   5.818 -0.8646 -0.8271 -0.3590
77873SOL    HW145344  12.192   7.305   5.801 -0.2401 -1.7036  0.5333
77873SOL    HW245345  12.257   7.383   5.913 -0.7587  0.2264 -0.4770
77874SOL     OW45346   1.865   0.049   9.047 -0.2603 -0.6983  0.2886
77874SOL    HW145347   1.941   0.032   9.103  1.2416  0.0514 -1.4365
77874SOL    HW245348   1.860  -0.027   8.990 -1.2242 -1.0334  0.7968
77875SOL     OW45349  11.392   9.195   2.439  0.4115  0.1015  0.2572
77875SOL    HW145350  11.478   9.202   2.398 -0.7577  1.9326 -2.1550
77875SOL    HW245351  11.407   9.219   2.531  2.7101 -1.4386  0.3588
77876SOL     OW45352  10.320   5.891   3.587  0.3049 -0.4358  0.0030
77876SOL    HW145353  10.374   5.944   3.527  1.5649 -1.3500  0.2778
77876SOL    HW245354  10.304   5.810   3.539  0.7518 -0.9009  0.6229
77877SOL     OW45355  12.321   5.642   6.233 -0.2213 -0.2075 -0.1818
77877SOL    HW145356  12.337   5.587   6.309 -0.4776  1.4402  1.1148
77877SOL    HW245357  12.408   5.666   6.202 -0.1189 -0.7022 -0.2874
77878SOL     OW45358  12.540   4.296   7.321 -0.2053 -0.1666 -0.1201
77878SOL    HW145359  12.619   4.322   7.369 -1.0697  0.0416  1.2713
77878SOL    HW245360  12.513   4.375   7.274  0.5206 -0.2983 -0.7617
77879SOL     OW45361   1.869   6.103   0.602 -0.6516 -0.4348  0.3379
77879SOL    HW145362   1.912   6.142   0.678  0.4085  0.3981 -0.6490
77879SOL    HW245363   1.855   6.176   0.542  0.7949 -1.4103 -1.2804
77880SOL     OW45364  10.774   6.586   4.629  0.7236 -0.1795 -0.3579
77880SOL    HW145365  10.736   6.501   4.652 -0.6261  0.3614 -0.4573
77880SOL    HW245366  10.698   6.642   4.611  1.5975  0.8722 -0.9344
77881SOL     OW45367   4.893   0.430   2.019  0.1200 -0.4115 -0.9116
77881SOL    HW145368   4.904   0.335   2.020  2.5600 -0.2126  0.7707
77881SOL    HW245369   4.935   0.458   1.937  1.0191 -0.6767 -0.5547
77882SOL     OW45370   5.194   9.105   3.490  0.8177 -1.0151  0.0933
77882SOL    HW145371   5.252   9.167   3.534  2.2480 -2.2892  0.0609
77882SOL    HW245372   5.205   9.023   3.538 -0.5946 -1.4225 -0.2285
77883SOL     OW45373   1.951   6.437   6.818  0.2453 -0.2645 -0.0301
77883SOL    HW145374   1.875   6.491   6.795 -1.7180 -1.9775  1.9300
77883SOL    HW245375   1.978   6.398   6.735 -2.3900 -1.1737 -0.5682
77884SOL     OW45376  13.738   8.870   3.302  0.1329 -0.3275  0.1728
77884SOL    HW145377  13.741   8.867   3.206  1.0377 -2.3628  0.2155
77884SOL    HW245378  13.814   8.821   3.330 -0.3013 -0.0536  1.9640
77885SOL     OW45379  13.436  10.384   1.578 -0.1652 -0.5297  0.1622
77885SOL    HW145380  13.355  10.352   1.618 -0.1994 -0.3280  0.2520
77885SOL    HW245381  13.501  10.379   1.648 -0.3718  0.4338  0.4345
77886SOL     OW45382   7.397  11.037   2.986  0.4061  0.2819 -0.4614
77886SOL    HW145383   7.382  10.947   3.013 -0.3081  0.5921  0.2338
77886SOL    HW245384   7.461  11.070   3.049 -0.1754  0.5815 -0.0161
77887SOL     OW45385   6.351   9.763   3.899  0.1988  0.1648 -0.1327
77887SOL    HW145386   6.406   9.686   3.897  0.5837  0.4376 -0.1290
77887SOL    HW245387   6.275   9.741   3.845  0.1958 -0.2944  0.0579
77888SOL     OW45388   2.109   6.511   1.195 -0.3015 -0.0480 -0.0609
77888SOL    HW145389   2.193   6.513   1.149 -1.0578 -0.7209 -1.5314
77888SOL    HW245390   2.083   6.419   1.194 -2.2011  0.4352 -1.8504
77889SOL     OW45391   9.234   5.590  10.502  0.2948 -0.0026  0.2700
77889SOL    HW145392   9.256   5.541  10.581  1.0825  0.1034  0.1191
77889SOL    HW245393   9.209   5.677  10.534  1.8005  0.4261  0.3225
77890SOL     OW45394   6.560   1.086   3.734  0.2062 -0.1897 -0.2259
77890SOL    HW145395   6.631   1.067   3.795  1.2933 -0.5149 -1.5415
77890SOL    HW245396   6.530   1.001   3.705  0.6062 -0.0303 -1.1392
77891SOL     OW45397   1.236   4.702   5.665 -0.3871 -0.2520  0.4799
77891SOL    HW145398   1.159   4.730   5.714 -0.5630  1.0098 -0.4774
77891SOL    HW245399   1.204   4.691   5.575  0.1410 -1.6034  0.4338
77892SOL     OW45400   9.266   1.262   0.635  0.7106 -0.5102 -0.0145
77892SOL    HW145401   9.220   1.179   0.629  0.8741 -0.5855 -0.2401
77892SOL    HW245402   9.275   1.278   0.729  0.0260 -0.3802  0.0308
77893SOL     OW45403   2.120  11.389   0.772  0.2810 -0.2699 -0.5869
77893SOL    HW145404   2.090  11.299   0.760  0.2703 -0.0769 -2.1352
77893SOL    HW245405   2.203  11.381   0.819 -1.8742 -0.8415  3.5953
77894SOL     OW45406   9.617  10.045   1.833  0.6024 -1.3059  0.2400
77894SOL    HW145407   9.663  10.033   1.749  3.0128  0.0681  1.2684
77894SOL    HW245408   9.587  10.136   1.830 -2.4199 -2.2226 -0.4886
77895SOL     OW45409   0.188   3.964   9.577 -0.0326 -0.2596 -0.0994
77895SOL    HW145410   0.278   3.987   9.600  0.2258 -0.7297 -0.6075
77895SOL    HW245411   0.135   4.036   9.612  0.1399 -1.5482  3.1196
77896SOL     OW45412  13.095   1.095  11.872  0.1038  0.2130  0.0340
77896SOL    HW145413  13.112   1.030  11.940 -0.6501 -0.9018 -0.7988
77896SOL    HW245414  13.033   1.156  11.911  0.2887  0.0400  0.6062
77897SOL     OW45415  11.317   7.773  13.508  0.0689 -0.5044  0.1430
77897SOL    HW145416  11.294   7.863  13.485  3.1462  0.6622  1.1473
77897SOL    HW245417  11.355   7.737  13.429 -0.9680 -0.8794 -0.1960
77898SOL     OW45418   2.865   8.504   0.085  0.1283  0.0885 -0.0182
77898SOL    HW145419   2.908   8.491   0.170 -0.2850 -1.0365  0.0340
77898SOL    HW245420   2.773   8.518   0.107 -0.3902 -2.3618 -0.3430
77899SOL     OW45421   0.516   4.951   2.117  0.2806 -0.2272  0.1545
77899SOL    HW145422   0.479   4.996   2.192 -1.5238 -0.2879 -0.6498
77899SOL    HW245423   0.486   5.001   2.041  2.0655 -0.1580 -0.5650
77900SOL     OW45424   0.817   9.943   4.561 -0.6420 -0.0342  0.5427
77900SOL    HW145425   0.831   9.989   4.478  1.3115 -0.1595  0.7639
77900SOL    HW245426   0.850   9.855   4.545  0.5495  0.1745  1.6788
77901SOL     OW45427  12.458  10.162   6.216 -0.2706  0.1503  0.2626
77901SOL    HW145428  12.388  10.189   6.276 -0.4498  0.5620 -0.1322
77901SOL    HW245429  12.480  10.241   6.167  0.3818 -0.0081  0.2872
77902SOL     OW45430   6.152   4.803   3.496  0.3107 -0.1145  0.0141
77902SOL    HW145431   6.147   4.868   3.426  0.4771  0.6606  0.7126
77902SOL    HW245432   6.198   4.729   3.456  1.5214  0.7982 -0.3502
77903SOL     OW45433   7.272   2.073   0.154 -0.2262 -0.1018 -0.4258
77903SOL    HW145434   7.222   2.115   0.224  1.1387 -1.0476  1.1944
77903SOL    HW245435   7.239   1.983   0.152 -0.3846 -0.0316 -1.1407
77904SOL     OW45436   1.154   5.672   5.339  0.2248 -0.3746  0.4582
77904SOL    HW145437   1.129   5.668   5.246  0.3405  1.6472  0.2777
77904SOL    HW245438   1.150   5.582   5.369  2.0894 -1.3813 -1.9951
77905SOL     OW45439   8.037   9.118   3.915 -0.0568  0.1884  0.0530
77905SOL    HW145440   7.980   9.179   3.868  0.8381 -0.0462 -1.3812
77905SOL    HW245441   8.107   9.097   3.853  0.1018 -1.6801  0.8014
77906SOL     OW45442  11.765   6.685   1.884 -0.5243  0.8924  0.0599
77906SOL    HW145443  11.836   6.745   1.862  0.5072  0.0255  0.9325
77906SOL    HW245444  11.803   6.626   1.949 -1.2484 -1.1844 -1.2966
77907SOL     OW45445  12.155   0.654  12.553  0.1121  0.2244  0.3875
77907SOL    HW145446  12.197   0.655  12.639  1.3648 -0.0646 -0.1884
77907SOL    HW245447  12.188   0.732  12.509  0.1397 -0.0581 -0.1125
77908SOL     OW45448  10.126   2.550   3.266 -0.1205 -0.0229 -0.2511
77908SOL    HW145449  10.200   2.587   3.219  0.8222 -1.2435  0.2165
77908SOL    HW245450  10.152   2.552   3.358 -1.1202  0.4920  0.0425
77909SOL     OW45451   6.538   9.980  11.961  0.3062  0.5133  0.2087
77909SOL    HW145452   6.560  10.073  11.959  0.5827  0.4434  0.0204
77909SOL    HW245453   6.617   9.935  11.931  0.3079  0.1895  0.6898
77910SOL     OW45454   1.124   1.396   1.388  0.0776 -0.0880 -0.2698
77910SOL    HW145455   1.091   1.336   1.321 -0.9924  0.1518  0.0241
77910SOL    HW245456   1.103   1.483   1.354  0.1573  0.0595  0.0545
77911SOL     OW45457   9.742  11.009   1.845 -0.3579  0.2486  0.0879
77911SOL    HW145458   9.747  11.072   1.773  1.1599  0.2434  0.1451
77911SOL    HW245459   9.737  11.063   1.924  2.5581  0.4232  0.2550
77912SOL     OW45460   7.668   3.247   2.339 -0.1621  0.1180 -0.3995
77912SOL    HW145461   7.602   3.195   2.294 -0.4073  0.0387  0.0513
77912SOL    HW245462   7.631   3.335   2.341 -0.6780 -0.1098  0.6751
77913SOL     OW45463   8.306   5.723   6.830  0.1319  0.0977  0.2963
77913SOL    HW145464   8.390   5.743   6.871 -0.5756 -0.6431  2.2026
77913SOL    HW245465   8.316   5.632   6.799 -0.5368 -0.6423  2.1613
77914SOL     OW45466   8.677   9.847  10.457  0.2324  0.2079 -0.4986
77914SOL    HW145467   8.616   9.918  10.438  0.3928  0.2023 -1.0647
77914SOL    HW245468   8.676   9.838  10.552 -0.0639  0.7253 -0.4540
77915SOL     OW45469   0.370  12.984   4.616  0.1618 -0.0190 -0.4197
77915SOL    HW145470   0.337  12.978   4.706 -1.6475 -1.9206 -1.1384
77915SOL    HW245471   0.370  13.078   4.597  1.8521  0.5616  1.9583
77916SOL     OW45472   3.305   9.100  10.386  0.3554  0.2820 -0.1001
77916SOL    HW145473   3.220   9.073  10.353 -0.2493  3.2439 -1.2936
77916SOL    HW245474   3.367   9.041  10.344 -0.9412 -0.3950 -1.1328
77917SOL     OW45475  11.590  10.905   5.471 -0.0420 -0.1350  0.0657
77917SOL    HW145476  11.618  10.986   5.513  1.1692  0.0932 -1.1118
77917SOL    HW245477  11.668  10.850   5.470 -0.7982 -1.2699  0.6896
77918SOL     OW45478   0.719  10.436  10.936 -0.1339 -0.4124  0.0938
77918SOL    HW145479   0.644  10.399  10.890 -1.0797  2.1879 -0.6315
77918SOL    HW245480   0.736  10.519  10.891  1.0015  0.7112  2.4207
77919SOL     OW45481   2.109  10.386   8.036 -0.7019 -0.0200 -0.3885
77919SOL    HW145482   2.115  10.365   8.130 -1.1013  0.1671 -0.3221
77919SOL    HW245483   2.114  10.301   7.992 -0.3795 -0.0986 -0.2059
77920SOL     OW45484   1.364   4.200  11.727  0.1299 -0.0938 -0.0346
77920SOL    HW145485   1.302   4.130  11.750  0.3160 -0.6328 -1.0828
77920SOL    HW245486   1.393   4.235  11.811  0.0857 -1.3447  0.5363
77921SOL     OW45487  13.372   1.867  12.806 -0.4660 -0.1912 -1.2752
77921SOL    HW145488  13.327   1.911  12.878  1.6258 -0.3007  0.2201
77921SOL    HW245489  13.425   1.936  12.766  0.7597 -0.7405 -0.6599
77922SOL     OW45490   9.395   8.569   6.340  0.0598 -0.2101  0.1403
77922SOL    HW145491   9.455   8.516   6.288  0.1441  0.6469 -0.6600
77922SOL    HW245492   9.436   8.572   6.427  0.6370 -0.4931 -0.1166
77923SOL     OW45493  10.989   5.426   0.495 -0.4836  0.2949  0.1718
77923SOL    HW145494  11.074   5.385   0.511  0.6353  2.1544 -0.6701
77923SOL    HW245495  10.925   5.359   0.518  1.1960 -1.0325  1.1800
77924SOL     OW45496   8.036   9.706   2.674 -1.1858  0.3753 -0.3072
77924SOL    HW145497   8.122   9.747   2.662 -1.7558  1.7912  0.2461
77924SOL    HW245498   8.005   9.740   2.758 -1.6847 -1.2597  0.2151
77925SOL     OW45499   0.380  13.439   7.937  0.9529 -0.1900  0.0931
77925SOL    HW145500   0.299  13.445   7.886  1.2416  1.2011 -0.2460
77925SOL    HW245501   0.405  13.530   7.953  1.1315 -0.5728  2.3363
77926SOL     OW45502  10.116  11.511   8.700  0.0266  0.1658 -0.2900
77926SOL    HW145503  10.088  11.531   8.610 -1.2398 -1.2952 -0.2706
77926SOL    HW245504  10.150  11.422   8.695 -0.9486 -0.2867  0.8449
77927SOL     OW45505   5.440  11.292   7.822 -0.3794  0.1568  0.3880
77927SOL    HW145506   5.404  11.335   7.745  1.5505  0.8737 -0.1590
77927SOL    HW245507   5.467  11.205   7.790  0.4189  0.4535  0.2368
77928SOL     OW45508   9.575   1.223   2.412 -0.2508  0.0783 -0.0912
77928SOL    HW145509   9.606   1.238   2.501  1.9094 -1.3879 -0.5080
77928SOL    HW245510   9.502   1.283   2.402  1.0738  2.2027  1.7809
77929SOL     OW45511   7.875   9.198   9.091 -0.8566 -0.1630 -0.3218
77929SOL    HW145512   7.933   9.131   9.126 -0.3362  1.0302  1.2465
77929SOL    HW245513   7.930   9.249   9.032 -1.4215 -1.4453 -2.0384
77930SOL     OW45514   2.114  11.390   9.037  0.1941 -0.0490 -0.6011
77930SOL    HW145515   2.124  11.472   9.086  0.8754  0.0127 -0.8250
77930SOL    HW245516   2.053  11.411   8.966  2.1772  0.9759 -2.1180
77931SOL     OW45517   8.395   0.880   0.033 -0.7708 -0.1147  0.0815
77931SOL    HW145518   8.357   0.881  -0.055  1.7685 -0.5787 -1.1298
77931SOL    HW245519   8.373   0.793   0.068  0.1911 -0.8697 -1.1024
77932SOL     OW45520   6.769   4.627  11.325  0.4680  0.0795  0.4319
77932SOL    HW145521   6.705   4.676  11.273  0.1453  0.7017  1.3922
77932SOL    HW245522   6.799   4.557  11.266  0.7855  1.2931 -0.9042
77933SOL     OW45523   0.475   0.903  12.335  0.6352 -0.2517 -0.0137
77933SOL    HW145524   0.487   0.998  12.337  0.8716 -0.2872  0.3130
77933SOL    HW245525   0.564   0.869  12.322  0.9158 -0.5175  2.2638
77934SOL     OW45526   1.071  13.687   2.385  0.4086 -0.3762  0.1015
77934SOL    HW145527   1.034  13.760   2.336  2.2392  0.1018 -0.6482
77934SOL    HW245528   0.996  13.631   2.405 -0.7927  0.8694 -0.7358
77935SOL     OW45529  12.003   2.967   1.435  0.2226  0.2448 -0.3746
77935SOL    HW145530  11.961   2.889   1.469  1.7892 -0.6016 -0.2833
77935SOL    HW245531  12.001   2.957   1.340  1.3623 -0.4687 -0.3467
77936SOL     OW45532   5.877   8.388  10.730 -0.0642  0.1111 -0.5027
77936SOL    HW145533   5.968   8.372  10.707  0.1207  1.2515 -0.6295
77936SOL    HW245534   5.866   8.348  10.816  0.5178 -0.1411 -0.5434
77937SOL     OW45535   0.148   5.736   6.962 -0.6492  0.1472 -0.0363
77937SOL    HW145536   0.210   5.807   6.948 -1.5579  0.9017 -0.3353
77937SOL    HW245537   0.157   5.681   6.884  1.3904 -1.1485  1.0152
77938SOL     OW45538  13.406   1.325   4.149 -0.5736 -0.2553 -0.2045
77938SOL    HW145539  13.415   1.242   4.102  0.0001 -1.1940  1.4797
77938SOL    HW245540  13.466   1.385   4.105  0.4911 -1.3129 -0.2385
77939SOL     OW45541  10.125   5.231  11.893  0.1614  0.0340 -0.1111
77939SOL    HW145542  10.161   5.206  11.808 -0.0637  0.7188 -0.4153
77939SOL    HW245543  10.165   5.316  11.912  1.6168 -0.8948  1.3249
77940SOL     OW45544   6.766   0.924  11.506  0.0889  0.2314  0.2103
77940SOL    HW145545   6.830   0.965  11.565 -0.4394  0.1899  0.8294
77940SOL    HW245546   6.727   0.998  11.459  1.5250  0.1559 -1.1587
77941SOL     OW45547  12.150   3.514   5.342  0.1474 -0.0401  0.1609
77941SOL    HW145548  12.166   3.608   5.331  0.0757  0.1415  1.4777
77941SOL    HW245549  12.231   3.481   5.380 -1.0978  0.2091  3.3229
77942SOL     OW45550   4.295   1.618   4.969  0.5920 -0.1597 -0.2814
77942SOL    HW145551   4.320   1.525   4.964  1.1184 -0.0450  0.1342
77942SOL    HW245552   4.251   1.635   4.886  0.6645 -0.7352 -0.4438
77943SOL     OW45553   9.813  11.193   1.650 -0.2294 -0.1595  0.2204
77943SOL    HW145554   9.729  11.217   1.690  0.0090  1.5707 -0.2520
77943SOL    HW245555   9.830  11.263   1.587  1.2322 -0.8755 -0.2124
77944SOL     OW45556   5.229  10.274   2.322  0.2686 -0.1468  0.2945
77944SOL    HW145557   5.139  10.241   2.328  0.2952 -0.2296  0.2251
77944SOL    HW245558   5.280  10.217   2.379  0.4058 -0.5459 -0.2228
77945SOL     OW45559  10.582   7.318   8.268  0.4912  0.2318 -0.3482
77945SOL    HW145560  10.546   7.246   8.217  0.6339 -0.4056  0.4226
77945SOL    HW245561  10.646   7.359   8.211  0.6980 -0.5097 -0.6569
77946SOL     OW45562   2.914   7.434  13.319  0.2634 -0.2435  0.0687
77946SOL    HW145563   2.850   7.368  13.291  1.3252 -1.2841  0.0371
77946SOL    HW245564   2.865   7.516  13.318 -0.8386 -0.8788 -0.8185
77947SOL     OW45565  12.807  13.582   9.400 -0.1373 -0.1649  0.2077
77947SOL    HW145566  12.870  13.523   9.442  0.3650  0.1669 -0.0738
77947SOL    HW245567  12.759  13.622   9.473  1.4396  1.2034  0.5502
77948SOL     OW45568   9.899   3.083   0.578 -0.7457 -0.0704  0.0903
77948SOL    HW145569   9.873   2.991   0.571 -1.8584  0.1901  0.6097
77948SOL    HW245570   9.901   3.100   0.672 -1.5147  0.6957 -0.0169
77949SOL     OW45571   7.213   1.812   8.337 -0.1884 -0.7551  0.0659
77949SOL    HW145572   7.226   1.842   8.427 -2.4109 -0.6188  0.3961
77949SOL    HW245573   7.273   1.865   8.285  0.6654 -0.3825  1.3916
77950SOL     OW45574  10.593   5.943  13.471  0.1794 -0.6009 -0.5247
77950SOL    HW145575  10.632   5.855  13.466  1.2869 -0.1160 -0.7827
77950SOL    HW245576  10.624   5.978  13.555  3.7120  1.2731 -2.3816
77951SOL     OW45577   5.926   9.151   8.672 -0.0212  0.2565  0.2575
77951SOL    HW145578   5.984   9.218   8.708 -1.1614  2.0646 -1.0610
77951SOL    HW245579   5.926   9.081   8.737  1.5101  1.3725  1.5399
77952SOL     OW45580   8.901   3.394   7.238 -0.1529  0.1650  0.2400
77952SOL    HW145581   8.927   3.375   7.328 -0.6635 -0.0971  0.3378
77952SOL    HW245582   8.857   3.479   7.244  0.8849  0.7261  0.0356
77953SOL     OW45583   6.886  11.694   7.986 -0.3201 -0.6089  0.0833
77953SOL    HW145584   6.940  11.619   8.013  0.7823 -0.1635 -0.8174
77953SOL    HW245585   6.804  11.655   7.957  0.9909 -1.7306 -2.4096
77954SOL     OW45586   1.172   3.641   4.382  0.0167  0.2848  0.5452
77954SOL    HW145587   1.103   3.574   4.372  1.3978 -1.1177 -0.0137
77954SOL    HW245588   1.212   3.620   4.467  0.6086  0.2491  0.2585
77955SOL     OW45589  13.304  12.123   1.850 -0.7665 -0.1696 -0.1636
77955SOL    HW145590  13.269  12.036   1.829 -0.8428  0.2942 -2.2714
77955SOL    HW245591  13.227  12.181   1.845 -0.5894  0.1203  0.4619
77956SOL     OW45592   4.011  11.064   1.503  0.0657  0.1441 -0.1237
77956SOL    HW145593   3.992  11.148   1.461 -0.8384  0.0835  0.1469
77956SOL    HW245594   3.987  10.998   1.438  0.4271  0.0843 -0.1991
77957SOL     OW45595   2.389   9.178  10.004  0.3027 -0.3209 -0.2861
77957SOL    HW145596   2.425   9.196   9.917 -1.0401 -0.8106 -0.9697
77957SOL    HW245597   2.344   9.094   9.995 -0.4000 -0.0758  0.7072
77958SOL     OW45598  10.934   5.216   7.808 -0.1451 -0.6127  0.4085
77958SOL    HW145599  10.901   5.305   7.815  1.9254  0.0969  2.0775
77958SOL    HW245600  10.964   5.209   7.717 -1.6772 -0.1680 -0.1632
77959SOL     OW45601  13.580   0.902   1.297 -0.1542 -0.0566  0.3860
77959SOL    HW145602  13.596   0.966   1.367  2.0385  0.4565 -0.4902
77959SOL    HW245603  13.533   0.952   1.230 -0.5112 -0.0166  0.6611
77960SOL     OW45604  10.780  11.788   9.827 -0.0446 -0.0368  0.5049
77960SOL    HW145605  10.821  11.858   9.777  0.7202 -0.6835  0.2147
77960SOL    HW245606  10.721  11.834   9.887  0.8971  0.9030  0.7471
77961SOL     OW45607   5.154   7.846   1.651  0.2637  0.7002 -0.0215
77961SOL    HW145608   5.161   7.907   1.577  1.2301  0.0729 -0.4703
77961SOL    HW245609   5.069   7.865   1.689  0.3017  1.9467 -0.4936
77962SOL     OW45610  10.732  11.464   7.646 -0.5672  0.3938 -0.3185
77962SOL    HW145611  10.809  11.517   7.625 -0.8417  0.5869 -0.8731
77962SOL    HW245612  10.658  11.517   7.615 -0.8452 -0.3480 -0.9599
77963SOL     OW45613   4.499   1.436  13.156  0.2610 -0.3643 -0.2303
77963SOL    HW145614   4.464   1.403  13.239  2.1609  1.0961  1.2614
77963SOL    HW245615   4.463   1.524  13.148 -1.4074 -1.1381 -1.9952
77964SOL     OW45616   2.281   0.321   7.126 -0.5244 -0.5892 -0.5415
77964SOL    HW145617   2.235   0.349   7.206 -1.1864 -1.3628 -0.6361
77964SOL    HW245618   2.247   0.379   7.058  0.1549  0.1777 -0.2586
77965SOL     OW45619   8.123  11.173   7.321 -0.1418  0.4115  0.0767
77965SOL    HW145620   8.101  11.171   7.228  3.7567 -0.5052 -1.0279
77965SOL    HW245621   8.195  11.237   7.327  0.8227 -0.7570  2.1102
77966SOL     OW45622  11.536   9.764   1.429 -0.3343 -0.3387  1.2095
77966SOL    HW145623  11.454   9.723   1.400  0.1910 -0.1021 -0.7270
77966SOL    HW245624  11.587   9.774   1.349  1.4591 -0.1635  2.3340
77967SOL     OW45625   3.379   8.983   6.553 -0.4282  0.2843  0.5751
77967SOL    HW145626   3.371   8.888   6.538  0.5287  0.1514  0.8493
77967SOL    HW245627   3.301   9.005   6.603 -0.8633 -0.2838  0.1697
77968SOL     OW45628   2.875   5.369  11.184 -0.0897  0.3825 -0.4530
77968SOL    HW145629   2.786   5.375  11.217  0.3981 -0.0335  0.9997
77968SOL    HW245630   2.918   5.305  11.241  0.6675 -0.7741 -2.2159
77969SOL     OW45631   9.411  12.039   8.492  0.3703 -0.3178  0.2392
77969SOL    HW145632   9.341  12.028   8.428 -0.6659 -0.3139  1.3514
77969SOL    HW245633   9.490  12.010   8.445 -0.4896 -1.1915 -0.7331
77970SOL     OW45634   1.318  11.762   0.111  0.2290 -0.3282  0.6288
77970SOL    HW145635   1.368  11.687   0.145 -1.5129 -1.6366  0.4735
77970SOL    HW245636   1.293  11.812   0.189  0.4620 -0.5248  0.8324
77971SOL     OW45637   8.757  10.971  10.205  0.2707  0.1221 -0.1362
77971SOL    HW145638   8.733  10.878  10.202 -1.3135  0.5273 -1.7578
77971SOL    HW245639   8.758  10.999  10.114  1.9500  1.4463  0.2393
77972SOL     OW45640  10.538   9.322   1.529 -0.2022 -0.1932  0.3429
77972SOL    HW145641  10.497   9.294   1.447 -2.5477  1.3508  0.8670
77972SOL    HW245642  10.504   9.261   1.595  0.4723 -0.5101  0.4027
77973SOL     OW45643  13.643   0.017  10.358 -0.0427  0.0028 -0.6548
77973SOL    HW145644  13.719   0.016  10.416 -0.1250  0.3479 -0.5392
77973SOL    HW245645  13.659  -0.055  10.296 -0.4837 -1.0848  0.4671
77974SOL     OW45646  10.916  11.801   3.093 -0.1237  0.0003  0.2841
77974SOL    HW145647  10.861  11.725   3.112  1.4923 -1.4047 -0.4055
77974SOL    HW245648  10.856  11.876   3.101 -1.6134 -1.2450  1.6654
77975SOL     OW45649   0.244   5.025  13.537 -0.6776  0.0708 -0.1303
77975SOL    HW145650   0.209   4.939  13.515 -1.5031  0.1339  0.8710
77975SOL    HW245651   0.183   5.060  13.602  0.2703  0.9404  0.3178
77976SOL     OW45652   5.524   5.636   8.391  0.3690  0.2760 -0.3629
77976SOL    HW145653   5.433   5.645   8.363  0.2145 -1.1996 -0.4031
77976SOL    HW245654   5.552   5.551   8.358  0.8219 -0.6583  2.1440
77977SOL     OW45655   0.167   1.732  13.650 -0.1412 -0.0519 -0.0258
77977SOL    HW145656   0.247   1.706  13.604 -0.3296  0.2053 -0.4957
77977SOL    HW245657   0.173   1.828  13.657 -0.7998  0.0592 -0.8012
77978SOL     OW45658   7.900  12.366  12.257 -0.4550  0.4741  0.0115
77978SOL    HW145659   7.929  12.409  12.338 -1.4001  2.2661 -0.5303
77978SOL    HW245660   7.817  12.326  12.279 -0.2430  0.1258  0.1743
77979SOL     OW45661   0.337   6.877   9.938 -0.0873 -0.2922  0.4917
77979SOL    HW145662   0.293   6.796   9.911  0.7046 -0.2668 -1.0113
77979SOL    HW245663   0.408   6.848   9.994  0.2235 -0.6597 -0.0813
77980SOL     OW45664   3.743   1.173  10.346  0.1087 -0.0257 -0.4878
77980SOL    HW145665   3.661   1.154  10.302  0.1035 -0.1460 -0.4278
77980SOL    HW245666   3.769   1.259  10.313  0.2935 -0.2783 -1.0110
77981SOL     OW45667   0.635   1.555   8.058  0.2414  0.2736 -0.1920
77981SOL    HW145668   0.717   1.596   8.028  0.4111  0.7201  0.8414
77981SOL    HW245669   0.589   1.625   8.105 -1.5719  0.5616 -2.2195
77982SOL     OW45670   6.162  10.793   5.597 -0.2685  0.2462  0.2585
77982SOL    HW145671   6.113  10.711   5.585 -1.4826  1.0432 -0.4607
77982SOL    HW245672   6.177  10.825   5.508 -0.4231  1.1537  0.5513
77983SOL     OW45673   1.530   4.321   2.944 -0.2909  0.2328  0.3360
77983SOL    HW145674   1.530   4.228   2.922 -0.2891  0.2671  0.1845
77983SOL    HW245675   1.476   4.328   3.022  0.9077 -0.0906  1.2213
77984SOL     OW45676   7.321   1.741  12.601  0.2866 -0.0136  0.0912
77984SOL    HW145677   7.334   1.673  12.667  0.7680  0.5393  0.5809
77984SOL    HW245678   7.409   1.765  12.573  0.0796 -2.1004 -2.7608
77985SOL     OW45679   8.678   1.025   9.821 -0.2027  0.1539 -0.3272
77985SOL    HW145680   8.674   1.116   9.850  0.6793  0.1320 -0.1067
77985SOL    HW245681   8.680   1.030   9.726 -2.1579  0.2689 -0.3955
77986SOL     OW45682   0.259   3.884   9.341  0.2794  0.2058 -0.2629
77986SOL    HW145683   0.213   3.931   9.412 -1.2304  0.0975 -1.1343
77986SOL    HW245684   0.351   3.883   9.370 -0.2023  0.6126  1.4463
77987SOL     OW45685   9.084   5.550   2.126 -0.0695 -0.2189 -0.0618
77987SOL    HW145686   9.141   5.502   2.186  1.3494  1.2567 -0.1603
77987SOL    HW245687   9.108   5.517   2.039  0.0209 -0.1979 -0.0447
77988SOL     OW45688  10.954   6.071  13.691 -0.1961  0.2432  0.5606
77988SOL    HW145689  10.948   6.124  13.612 -0.2807 -1.2048 -0.4371
77988SOL    HW245690  11.008   6.123  13.751  1.5581  0.4848 -1.1654
77989SOL     OW45691  13.400   4.177   9.098 -0.3266  0.3566  0.2950
77989SOL    HW145692  13.381   4.096   9.051 -2.9233  1.1837 -0.2314
77989SOL    HW245693  13.363   4.246   9.044  2.4745  2.0659  0.3472
77990SOL     OW45694   2.749  13.294  11.597 -0.1477 -0.1237 -0.1055
77990SOL    HW145695   2.800  13.280  11.677  0.8651  1.2695 -0.4695
77990SOL    HW245696   2.790  13.369  11.555 -1.2978 -0.1924 -1.4355
77991SOL     OW45697   2.887   3.154  11.891 -0.1099  0.0801 -0.6500
77991SOL    HW145698   2.832   3.080  11.918 -0.4002  0.4452 -0.2194
77991SOL    HW245699   2.845   3.187  11.812  1.1705 -1.4681 -2.0572
77992SOL     OW45700   0.316   3.069  11.704 -0.5965  0.2812 -0.1735
77992SOL    HW145701   0.311   3.153  11.659  0.3228  1.0080  1.0146
77992SOL    HW245702   0.285   3.087  11.793 -2.4022 -1.1226 -0.4363
77993SOL     OW45703  13.734  11.594   9.074  0.0837  0.3862  0.3676
77993SOL    HW145704  13.806  11.530   9.071 -0.1763  0.1102 -2.1481
77993SOL    HW245705  13.684  11.577   8.994 -0.9372  2.6924  0.4557
77994SOL     OW45706   9.837   6.898   3.804  0.5188 -0.2084  0.4021
77994SOL    HW145707   9.849   6.887   3.710  1.3920 -0.2749  0.5062
77994SOL    HW245708   9.794   6.818   3.833  1.1753 -0.6435  0.2045
77995SOL     OW45709   4.996   7.066   6.689  0.8727 -0.1092  0.2897
77995SOL    HW145710   5.040   7.150   6.701  0.2536  0.2671 -0.0657
77995SOL    HW245711   5.008   7.021   6.773 -0.8889  1.3204  1.3776
77996SOL     OW45712  11.233   4.210  10.742  0.0257 -0.5117  0.5206
77996SOL    HW145713  11.257   4.144  10.807 -0.4169 -0.4921  0.7027
77996SOL    HW245714  11.317   4.235  10.702  0.2599 -0.7718  0.8408
77997SOL     OW45715   9.481   3.083  10.428  0.4685 -0.1002 -0.2992
77997SOL    HW145716   9.477   3.031  10.348 -0.4100  1.0821 -1.0573
77997SOL    HW245717   9.567   3.063  10.466  0.6789 -1.0795 -1.2519
77998SOL     OW45718   4.464   8.570  13.712  0.3618 -0.0688  0.4652
77998SOL    HW145719   4.456   8.535  13.800  0.8236  0.3790  0.6906
77998SOL    HW245720   4.516   8.505  13.665  1.0783  0.2319  0.8367
77999SOL     OW45721   1.376   3.611  13.655 -0.2732  0.1682  0.2910
77999SOL    HW145722   1.367   3.531  13.707 -1.3934 -0.9622 -1.5484
77999SOL    HW245723   1.444   3.590  13.591 -1.1426  0.3511 -0.7284
78000SOL     OW45724   1.377  12.850  10.865  0.0053  0.3814  0.5321
78000SOL    HW145725   1.341  12.939  10.861 -0.4650  0.1472 -1.6240
78000SOL    HW245726   1.320  12.804  10.926 -0.6695  1.1744  0.5249
78001SOL     OW45727   8.000   3.587   3.079 -0.1330  0.4401 -0.1103
78001SOL    HW145728   7.977   3.544   2.996  0.4527  0.4966 -0.3033
78001SOL    HW245729   7.919   3.586   3.129 -0.0773 -1.1290 -0.0048
78002SOL     OW45730   0.961  12.795   6.760 -0.3728  0.3393  0.1857
78002SOL    HW145731   0.969  12.836   6.674 -0.6348  0.4972  0.2348
78002SOL    HW245732   1.030  12.835   6.813 -0.6054  0.6922  0.2227
78003SOL     OW45733   5.390  12.344  10.139  0.6746  0.7196  0.0901
78003SOL    HW145734   5.448  12.361  10.064  0.8155  0.1303  0.0620
78003SOL    HW245735   5.449  12.315  10.208  0.4060  0.0499  0.0410
78004SOL     OW45736  11.282   7.392   7.325 -0.3129  0.0926  0.1389
78004SOL    HW145737  11.302   7.418   7.415  0.0699  3.9952 -0.8661
78004SOL    HW245738  11.186   7.396   7.320 -0.2864  1.2045  0.1241
78005SOL     OW45739   5.664   5.406   8.322 -0.0466 -0.5331 -0.4743
78005SOL    HW145740   5.722   5.475   8.291  0.5053 -0.3044  0.9798
78005SOL    HW245741   5.703   5.324   8.290  1.2064 -0.3946  0.6204
78006SOL     OW45742   2.581   2.476   3.416  0.3471 -0.5712  0.0366
78006SOL    HW145743   2.503   2.422   3.426 -1.1847  1.1165 -2.0892
78006SOL    HW245744   2.552   2.565   3.432  1.9482  0.0667 -0.3411
78007SOL     OW45745   1.430   8.750  11.282  0.4649 -0.9705 -0.2157
78007SOL    HW145746   1.439   8.657  11.300  1.4004 -0.8605 -0.0970
78007SOL    HW245747   1.509   8.790  11.317  0.6436 -0.2892 -1.3436
78008SOL     OW45748   6.614   0.472   9.682  0.1857 -0.3856 -0.9209
78008SOL    HW145749   6.701   0.436   9.662  1.1173 -0.0367  1.9100
78008SOL    HW245750   6.555   0.426   9.623  1.9212 -3.0633 -0.7804
78009SOL     OW45751  13.617   2.589   1.094 -0.1060  0.4806  0.0723
78009SOL    HW145752  13.537   2.583   1.146 -0.2276 -0.3200 -0.1982
78009SOL    HW245753  13.670   2.515   1.123 -0.9452 -1.1482 -2.2089
78010SOL     OW45754   5.707   5.656   2.906  0.2077  0.4093  0.0024
78010SOL    HW145755   5.749   5.662   2.992 -0.6593 -0.5231  0.5084
78010SOL    HW245756   5.766   5.704   2.847  0.0833  2.4112  1.3776
78011SOL     OW45757  13.346   9.199   3.070 -0.6133 -0.1908  0.2042
78011SOL    HW145758  13.431   9.223   3.106 -0.1080  1.7101 -2.0055
78011SOL    HW245759  13.306   9.283   3.047 -2.0186 -1.1611 -1.0706
78012SOL     OW45760   1.561   6.543   9.592 -0.5307  0.4534 -0.2954
78012SOL    HW145761   1.593   6.490   9.519 -1.7617  0.6397 -1.0024
78012SOL    HW245762   1.585   6.493   9.670  0.8047  0.2474 -0.8071
78013SOL     OW45763  13.736   6.989  11.819  0.5334  0.3006  0.0118
78013SOL    HW145764  13.724   6.904  11.860  0.9967 -0.9664 -2.2733
78013SOL    HW245765  13.830   6.993  11.800  0.2225  0.3781 -1.6900
78014SOL     OW45766   4.230  12.003   6.879 -0.0924  0.2654  0.4690
78014SOL    HW145767   4.180  12.083   6.869 -0.8058  0.0493  2.0672
78014SOL    HW245768   4.196  11.945   6.810  0.4969  1.3271 -0.7565
78015SOL     OW45769   7.112   7.155   8.064  0.0116 -0.0363  0.2756
78015SOL    HW145770   7.143   7.245   8.073  3.1251 -0.7783 -1.6618
78015SOL    HW245771   7.115   7.120   8.153  0.2503  1.3222  0.8235
78016SOL     OW45772   1.793   9.841   0.284 -0.6300 -0.6444 -0.4241
78016SOL    HW145773   1.805   9.841   0.379  1.8043 -1.3633 -0.6723
78016SOL    HW245774   1.722   9.779   0.268 -0.7562 -0.8624  0.8919
78017SOL     OW45775   9.293   4.666   3.052  0.6021 -0.0501 -0.3380
78017SOL    HW145776   9.228   4.616   3.004 -0.8702  0.9176  0.5735
78017SOL    HW245777   9.244   4.707   3.123  1.8745  2.0195 -0.5775
78018SOL     OW45778  12.582   5.337  12.958 -0.0218  0.0563 -0.4541
78018SOL    HW145779  12.528   5.370  13.030  0.4299 -1.1665  0.4853
78018SOL    HW245780  12.561   5.394  12.885 -0.5060  1.3466  0.6355
78019SOL     OW45781   1.267  10.418  11.784 -0.0661 -0.0594  0.6843
78019SOL    HW145782   1.285  10.335  11.828  0.7277  0.3527  1.1793
78019SOL    HW245783   1.262  10.482  11.855  0.2780  0.4645  0.2447
78020SOL     OW45784  10.173   3.171   8.801  0.1711 -0.2574 -0.5886
78020SOL    HW145785  10.098   3.120   8.833  0.1899  0.2422  0.2827
78020SOL    HW245786  10.244   3.108   8.793  0.5162 -0.1962  1.5815
78021SOL     OW45787   0.538   1.996   8.837  0.3688 -0.1449 -0.3271
78021SOL    HW145788   0.460   2.008   8.891  0.2879 -0.5440 -0.3555
78021SOL    HW245789   0.594   2.070   8.859  0.3880 -0.3718  0.3841
78022SOL     OW45790  10.416   9.041   2.537 -0.0863  0.3743  0.2235
78022SOL    HW145791  10.386   9.091   2.462  1.7313  1.1102 -0.0644
78022SOL    HW245792  10.504   9.075   2.555 -0.1857 -0.2961  2.2227
78023SOL     OW45793   1.002   2.611   5.178  0.0658 -0.3839  0.4263
78023SOL    HW145794   0.996   2.532   5.232 -1.7271 -1.1410 -0.7890
78023SOL    HW245795   0.927   2.664   5.205  0.7488  0.5204  0.5977
78024SOL     OW45796   0.491  11.553   3.484 -0.6061  0.6061  0.1117
78024SOL    HW145797   0.569  11.605   3.466 -0.6135  0.2935 -0.9049
78024SOL    HW245798   0.521  11.482   3.541 -0.5587  1.5847  1.3550
78025SOL     OW45799   0.294  10.181   5.580  0.5217  0.1060 -0.0701
78025SOL    HW145800   0.356  10.132   5.633 -1.1489 -0.6856  1.2696
78025SOL    HW245801   0.330  10.269   5.576  1.7357 -0.3347  0.6240
78026SOL     OW45802   1.797   4.490  13.397  0.4584  0.1740 -0.0472
78026SOL    HW145803   1.835   4.531  13.319 -1.0200  2.2584  0.2570
78026SOL    HW245804   1.728   4.434  13.363  0.9278 -0.2491 -0.3202
78027SOL     OW45805   9.527   8.714   0.834  0.2909  0.5820  0.4633
78027SOL    HW145806   9.623   8.713   0.837  0.2650 -0.0149  1.7868
78027SOL    HW245807   9.500   8.684   0.921 -1.0960 -2.0620 -0.7698
78028SOL     OW45808  13.158   5.491   5.300  0.2325 -0.1836  0.4184
78028SOL    HW145809  13.136   5.571   5.348  1.5502  0.3086  0.2564
78028SOL    HW245810  13.242   5.511   5.258  0.9742 -1.9143  0.9990
78029SOL     OW45811   9.970  10.165  13.012  0.2973  0.3200  0.7303
78029SOL    HW145812   9.889  10.125  12.980  0.5928 -1.2133  1.8024
78029SOL    HW245813  10.029  10.161  12.937  0.0924 -0.6370  0.6041
78030SOL     OW45814   6.973   1.428  13.088 -0.1522 -0.6269 -0.1260
78030SOL    HW145815   7.030   1.505  13.080 -1.3595  0.2929 -0.2446
78030SOL    HW245816   7.026   1.355  13.055  1.0113  0.1485 -0.0466
78031SOL     OW45817   6.939  10.337   5.669  0.4671  0.2522  0.4010
78031SOL    HW145818   6.942  10.243   5.649 -1.1440  0.1207  0.6033
78031SOL    HW245819   6.999  10.348   5.743 -0.3571 -0.9015  1.2862
78032SOL     OW45820   2.282   8.142   3.122  0.1222  0.2139  0.1305
78032SOL    HW145821   2.370   8.153   3.085  0.4413 -1.2610  0.4161
78032SOL    HW245822   2.225   8.186   3.059  1.0573  1.2322 -0.0386
78033SOL     OW45823   5.074   3.111   1.207 -0.5161  0.3918  0.2900
78033SOL    HW145824   5.134   3.159   1.149 -1.5724 -0.1657 -1.3562
78033SOL    HW245825   5.114   3.117   1.293  1.7925  0.2260 -0.6916
78034SOL     OW45826   8.109   9.506   6.040 -0.3864  0.2403  0.0930
78034SOL    HW145827   8.124   9.498   6.134  0.8658 -1.1011 -0.1914
78034SOL    HW245828   8.176   9.568   6.010  0.8766 -1.2641 -0.2795
78035SOL     OW45829  13.133   9.551   8.801 -0.1994 -0.1440 -0.5905
78035SOL    HW145830  13.092   9.614   8.861 -0.9042 -1.5404  0.4584
78035SOL    HW245831  13.147   9.473   8.855  1.5670 -0.5563 -1.5999
78036SOL     OW45832   8.678   1.039  12.292 -0.1444 -0.1521  0.0535
78036SOL    HW145833   8.683   1.120  12.242 -0.2605  0.4751  1.0378
78036SOL    HW245834   8.719   0.973  12.235 -0.9853  0.3615 -1.1963
78037SOL     OW45835   4.982   9.321   0.309  0.1645  0.8194 -0.0912
78037SOL    HW145836   5.047   9.283   0.250 -0.7859 -0.6512 -0.2526
78037SOL    HW245837   4.931   9.381   0.254  0.1216  0.4585 -0.4494
78038SOL     OW45838  10.586   6.131   2.160  0.5761  0.3737  0.2533
78038SOL    HW145839  10.632   6.126   2.244  0.9535  1.6489  0.1474
78038SOL    HW245840  10.518   6.197   2.175  0.4376  0.3626 -0.3379
78039SOL     OW45841   5.619  10.846   5.539  0.0141 -0.2958 -0.5308
78039SOL    HW145842   5.553  10.832   5.471 -0.2519 -0.1902 -0.2985
78039SOL    HW245843   5.653  10.934   5.522  0.2826 -0.4549 -0.8105
78040SOL     OW45844  11.180  11.058   8.060 -0.5527 -0.0902 -0.2447
78040SOL    HW145845  11.133  10.980   8.033 -2.8663  1.5050 -1.1130
78040SOL    HW245846  11.114  11.126   8.065  1.5940  2.2629 -1.3183
78041SOL     OW45847  12.763   5.327   7.211 -0.0753 -0.6542  0.0505
78041SOL    HW145848  12.690   5.387   7.226 -1.9138 -2.3360 -1.5112
78041SOL    HW245849  12.820   5.374   7.150 -0.1839  0.4275  0.7551
78042SOL     OW45850   3.793   4.951  11.468  0.2211 -0.0844 -0.4675
78042SOL    HW145851   3.708   4.937  11.427  0.5763  0.4834 -1.4327
78042SOL    HW245852   3.834   4.864  11.471  0.0482 -0.1814 -0.9984
78043SOL     OW45853   7.980   0.412  13.286  0.5255  0.3885 -0.4648
78043SOL    HW145854   7.941   0.466  13.354 -1.5039 -1.3046 -0.1906
78043SOL    HW245855   7.916   0.413  13.215  1.0614 -0.5934 -0.9823
78044SOL     OW45856  10.486   0.723   5.266 -0.0126  0.1440  0.4056
78044SOL    HW145857  10.542   0.800   5.280  0.4330  0.2475 -1.6736
78044SOL    HW245858  10.543   0.648   5.286 -0.1993  0.3142  1.6303
78045SOL     OW45859  11.291  12.174  12.144  0.1233  0.5656 -0.2822
78045SOL    HW145860  11.237  12.219  12.079 -0.4238  0.3477  0.0266
78045SOL    HW245861  11.336  12.245  12.191  0.2466  0.7365 -0.6541
78046SOL     OW45862   6.520   7.298   7.894  0.3117 -0.1116  0.4938
78046SOL    HW145863   6.493   7.300   7.802 -0.3651 -1.2475  0.6468
78046SOL    HW245864   6.595   7.357   7.898  2.0216 -1.9583 -1.3540
78047SOL     OW45865   9.578   6.152   4.602 -0.5263 -0.4442 -0.1882
78047SOL    HW145866   9.494   6.198   4.596  0.8032  2.0181 -1.7665
78047SOL    HW245867   9.580   6.117   4.691 -2.3362  1.2972  0.6181
78048SOL     OW45868   4.649  10.247   4.094  0.6871 -0.0051 -0.2474
78048SOL    HW145869   4.614  10.198   4.020  1.0612 -0.5697 -0.0539
78048SOL    HW245870   4.661  10.336   4.060 -0.4774  0.0918 -0.4493
78049SOL     OW45871  12.611   5.054   0.387  0.2282  0.3453  0.1764
78049SOL    HW145872  12.568   5.004   0.318  1.7671  0.0786 -0.6447
78049SOL    HW245873  12.608   5.144   0.356  0.5168  0.2863 -0.0294
78050SOL     OW45874  13.230   8.608  13.552 -0.4447 -0.0879 -0.1255
78050SOL    HW145875  13.245   8.666  13.627 -1.0834 -1.0151  0.7443
78050SOL    HW245876  13.232   8.666  13.476  0.4227  0.8419  0.5832
78051SOL     OW45877   8.115   0.739   2.540 -0.3768  0.2202  0.4262
78051SOL    HW145878   8.125   0.815   2.483  0.3284 -0.9508 -1.0721
78051SOL    HW245879   8.155   0.766   2.623 -0.6711  1.6579  0.1297
78052SOL     OW45880   2.500   0.859   3.348  0.0242 -0.3201  0.2532
78052SOL    HW145881   2.580   0.852   3.296  0.5752 -0.1523  1.0696
78052SOL    HW245882   2.443   0.789   3.314  1.2626 -1.7162  0.9474
78053SOL     OW45883  11.491   4.994   1.768  0.6654 -0.7112 -0.2814
78053SOL    HW145884  11.407   5.010   1.810 -0.4187 -2.9060 -1.4317
78053SOL    HW245885  11.483   5.034   1.681  1.1917 -0.0973 -0.0555
78054SOL     OW45886   4.641   9.724   6.082 -0.1293  0.2551 -0.1551
78054SOL    HW145887   4.732   9.756   6.083 -0.2302  0.7042 -2.3607
78054SOL    HW245888   4.650   9.629   6.084  0.3545  0.2990  0.2488
78055SOL     OW45889   1.268   8.106   7.887 -0.1346  0.5380 -0.3606
78055SOL    HW145890   1.219   8.185   7.909  0.6219  0.6924  0.8794
78055SOL    HW245891   1.344   8.108   7.945  0.0051 -1.0015 -0.4465
78056SOL     OW45892   3.670   8.097   6.459  0.1182 -0.3043  0.0355
78056SOL    HW145893   3.706   8.181   6.432  0.9613  0.0318  2.0320
78056SOL    HW245894   3.588   8.118   6.503 -0.8960 -0.7856 -1.5131
78057SOL     OW45895  11.221   4.750  13.637 -0.0190  0.1870  0.1935
78057SOL    HW145896  11.233   4.685  13.707 -1.2600 -1.0541 -0.6810
78057SOL    HW245897  11.300   4.741  13.583 -0.4908 -1.1518 -0.3190
78058SOL     OW45898  13.391  11.689  13.480  0.7001 -0.2804 -0.8232
78058SOL    HW145899  13.399  11.674  13.386  0.1240  1.5844 -1.2122
78058SOL    HW245900  13.465  11.642  13.518  0.3558 -1.9107 -2.0832
78059SOL     OW45901   1.042  10.169  12.525 -0.2906 -0.2583 -0.4961
78059SOL    HW145902   1.000  10.094  12.483  0.9412 -1.0540 -0.3578
78059SOL    HW245903   0.975  10.237  12.526 -1.8637 -1.7485  0.5210
78060SOL     OW45904   8.666   8.938   7.659 -0.4531  0.2512 -0.2363
78060SOL    HW145905   8.623   8.932   7.744 -0.1970 -0.2382 -0.1418
78060SOL    HW245906   8.698   9.029   7.655 -0.3794  0.2479  0.2313
78061SOL     OW45907  11.124   6.723   1.323  0.3955 -0.4302 -0.0448
78061SOL    HW145908  11.068   6.689   1.393  0.1383  0.9618  0.4456
78061SOL    HW245909  11.076   6.797   1.287  0.8784 -0.6560 -1.2028
78062SOL     OW45910  10.669   1.092   2.017  0.3010 -0.0265  0.1349
78062SOL    HW145911  10.597   1.136   2.060 -0.9918  0.2838 -2.1804
78062SOL    HW245912  10.728   1.163   1.989  0.6062 -0.1462  0.4628
78063SOL     OW45913   2.441  12.743   3.978 -0.4213 -0.1778 -0.0609
78063SOL    HW145914   2.347  12.757   3.970 -0.5341 -0.7089  0.2784
78063SOL    HW245915   2.480  12.811   3.923 -1.0163 -0.2494 -0.5894
78064SOL     OW45916   6.060  12.193  10.800 -0.0495 -0.5305  0.2862
78064SOL    HW145917   6.005  12.227  10.730 -0.8559 -1.5195  0.4225
78064SOL    HW245918   6.013  12.116  10.833  0.6183 -0.4436  1.4998
78065SOL     OW45919  12.978   3.662   1.471  0.0275 -0.4538  0.0231
78065SOL    HW145920  13.006   3.652   1.380  0.2537  0.7906 -0.0647
78065SOL    HW245921  12.887   3.632   1.472 -0.1178 -0.0623 -0.7170
78066SOL     OW45922   7.036  12.224   5.625  0.1339 -0.2909  0.5417
78066SOL    HW145923   7.013  12.266   5.707  1.7680 -0.3889  1.0837
78066SOL    HW245924   7.130  12.207   5.632  0.3063 -0.3418 -1.3192
78067SOL     OW45925  13.525   2.352  12.092 -0.0972  0.3330 -0.0952
78067SOL    HW145926  13.544   2.312  12.007 -0.2841 -1.2338  0.5541
78067SOL    HW245927  13.587   2.424  12.099  0.5092 -0.0521 -1.1978
78068SOL     OW45928   1.824   2.436  13.190 -0.4130 -0.0123 -0.2370
78068SOL    HW145929   1.834   2.515  13.243 -2.6949 -0.7356  1.4672
78068SOL    HW245930   1.845   2.464  13.101 -1.2592  2.5561  0.2822
78069SOL     OW45931  11.381   4.472  11.490  0.0769 -0.2822 -0.0512
78069SOL    HW145932  11.433   4.507  11.418 -2.2200 -0.5275 -1.9626
78069SOL    HW245933  11.390   4.377  11.482 -0.7150 -0.3347 -0.5075
78070SOL     OW45934   4.730  12.597  12.478  0.4694  0.4781 -0.1475
78070SOL    HW145935   4.813  12.569  12.517 -0.2893 -0.9361  0.4957
78070SOL    HW245936   4.677  12.627  12.552 -0.8723 -1.9531 -0.0253
78071SOL     OW45937   0.784   8.326   9.631  0.4579  0.2959 -0.0332
78071SOL    HW145938   0.810   8.235   9.624 -2.7211 -0.7815  0.5479
78071SOL    HW245939   0.773   8.341   9.725 -2.4246  0.1011 -0.2560
78072SOL     OW45940   0.641  10.395   1.896 -0.2667  0.1781  0.0973
78072SOL    HW145941   0.598  10.402   1.811 -0.5060 -0.4782  0.1622
78072SOL    HW245942   0.692  10.314   1.891  0.0329  0.3390  0.4410
78073SOL     OW45943   5.993  10.628   6.085  0.0107  0.0439  0.0500
78073SOL    HW145944   6.071  10.664   6.044  0.1938 -2.2065 -1.8280
78073SOL    HW245945   6.025  10.569   6.153 -0.2209  1.6626  1.6328
78074SOL     OW45946   8.434   4.916  12.737  0.2312  0.0278  0.3948
78074SOL    HW145947   8.446   4.846  12.672  0.2944  1.4867 -1.2340
78074SOL    HW245948   8.343   4.907  12.765  0.0129 -0.2585 -0.3570
78075SOL     OW45949  10.599   0.923  10.852  0.7457 -0.0389  0.7946
78075SOL    HW145950  10.648   0.886  10.780  0.5542 -1.0541  1.1668
78075SOL    HW245951  10.664   0.971  10.904  0.9270  0.4684  0.1009
78076SOL     OW45952   3.484  10.047   6.433 -0.1962  0.4186  0.1804
78076SOL    HW145953   3.444   9.962   6.419 -0.4226  0.5160  0.2230
78076SOL    HW245954   3.569  10.028   6.472  0.2986  0.1532 -0.9657
78077SOL     OW45955  13.117   9.465   6.620 -0.2854 -0.3594  0.3582
78077SOL    HW145956  13.059   9.402   6.577 -1.7548  0.4729  1.0427
78077SOL    HW245957  13.078   9.550   6.601  1.0628  0.2852  0.3540
78078SOL     OW45958   0.420   5.935   2.739 -0.1808  0.4031 -0.5424
78078SOL    HW145959   0.448   6.019   2.776 -0.1812 -0.0518  0.5238
78078SOL    HW245960   0.362   5.958   2.666 -0.8724  1.3223  0.2845
78079SOL     OW45961   3.478  12.441   1.726  0.2208 -0.1139  0.0243
78079SOL    HW145962   3.449  12.358   1.687 -0.3956 -0.0542  0.3420
78079SOL    HW245963   3.452  12.508   1.663  0.3402 -0.1282 -0.0394
78080SOL     OW45964   5.954  13.667   3.789 -0.3465  0.3508  0.0247
78080SOL    HW145965   6.043  13.641   3.813 -0.9179 -1.0367  0.7692
78080SOL    HW245966   5.901  13.588   3.803 -1.8776  1.4244  0.6251
78081SOL     OW45967  13.261   7.365   7.118  0.1770 -0.1223 -0.4650
78081SOL    HW145968  13.327   7.429   7.144  1.0380 -1.3743  0.5352
78081SOL    HW245969  13.186   7.418   7.089  0.7246  1.3304  0.6690
78082SOL     OW45970   5.779  13.550   2.399 -0.0346  0.1187  0.2190
78082SOL    HW145971   5.848  13.572   2.461  0.5135  0.0759 -0.3682
78082SOL    HW245972   5.706  13.521   2.454  0.7569 -0.8116  0.8056
78083SOL     OW45973  11.755   3.144   2.105  0.0842 -0.4643  0.6788
78083SOL    HW145974  11.774   3.121   2.196 -0.0168  1.8248  1.3458
78083SOL    HW245975  11.686   3.210   2.111  0.4478  0.1297 -1.0201
78084SOL     OW45976   0.430   1.374   6.746 -0.0762  0.3106  0.4000
78084SOL    HW145977   0.514   1.401   6.785  0.4131 -2.8724  1.9243
78084SOL    HW245978   0.450   1.359   6.654  0.1122  2.7307 -0.0347
78085SOL     OW45979   6.473   6.703  10.554  0.3720  0.1855 -0.0584
78085SOL    HW145980   6.487   6.734  10.464  0.7153  0.3746  0.0590
78085SOL    HW245981   6.395   6.749  10.583 -0.5023 -0.8232 -0.6949
78086SOL     OW45982  11.297  10.594   3.094 -0.2000  0.6838 -0.3866
78086SOL    HW145983  11.216  10.550   3.068 -0.7206  2.3350 -1.7580
78086SOL    HW245984  11.280  10.625   3.183 -0.2673 -0.7892  0.1324
78087SOL     OW45985  13.675   5.172  13.155 -0.0143  0.4613 -0.3979
78087SOL    HW145986  13.641   5.225  13.083 -2.2300 -0.2278  0.0709
78087SOL    HW245987  13.746   5.224  13.192 -0.5706  2.0116 -1.4353
78088SOL     OW45988   6.821  12.785   8.673 -0.2250 -0.5896 -0.4434
78088SOL    HW145989   6.886  12.854   8.683 -0.8896 -0.2079  1.5212
78088SOL    HW245990   6.873  12.705   8.660  0.5763 -0.0498 -0.6348
78089SOL     OW45991   2.169   7.880   1.671  0.4033 -0.1296 -0.0244
78089SOL    HW145992   2.143   7.789   1.681  1.5627 -0.6170 -1.1086
78089SOL    HW245993   2.264   7.879   1.676  0.3942  1.3041  1.7924
78090SOL     OW45994  12.328   1.296   0.295 -0.0257  0.4300  0.1093
78090SOL    HW145995  12.358   1.220   0.344  1.8833  0.9219 -0.2194
78090SOL    HW245996  12.324   1.366   0.360  0.4508  0.5796 -0.0187
78091SOL     OW45997   0.498   2.386   6.990 -0.6955  0.4169  0.2342
78091SOL    HW145998   0.580   2.395   7.038 -0.6309  1.1889  0.0060
78091SOL    HW245999   0.511   2.310   6.934  0.1080  0.8848 -0.2429
78092SOL     OW46000   8.755  12.748   6.918  0.1466 -0.0047  0.0281
78092SOL    HW146001   8.778  12.833   6.882 -0.8722  0.7275  1.0170
78092SOL    HW246002   8.796  12.748   7.005 -1.5570  0.3634  0.8683
78093SOL     OW46003   4.725   7.576   7.593 -0.4424  0.3826 -0.0098
78093SOL    HW146004   4.762   7.499   7.636  0.5827 -0.0590 -1.5918
78093SOL    HW246005   4.718   7.552   7.501 -0.9442  1.8726 -0.3974
78094SOL     OW46006   4.954   2.361  10.811 -0.1572  0.0039  0.9207
78094SOL    HW146007   4.891   2.414  10.859 -0.6448 -0.2702  0.5999
78094SOL    HW246008   4.900   2.299  10.762  0.1886  1.1892 -1.1274
78095SOL     OW46009   7.579   8.057   7.444  0.1646  0.0470 -0.3770
78095SOL    HW146010   7.632   8.047   7.524 -0.1481  0.0465 -0.1656
78095SOL    HW246011   7.603   7.981   7.390 -2.1086 -1.9389  1.1754
78096SOL     OW46012   3.414   5.744   0.341  0.4128 -0.7150  0.0123
78096SOL    HW146013   3.333   5.756   0.391  1.0682  1.5010  0.6591
78096SOL    HW246014   3.418   5.821   0.284  2.8407  0.1458  1.1994
78097SOL     OW46015  11.358   1.661   3.908  0.1868 -0.3008  0.2348
78097SOL    HW146016  11.377   1.720   3.834 -1.9832 -0.9655 -0.9561
78097SOL    HW246017  11.359   1.718   3.984  2.5639  0.4026 -0.2496
78098SOL     OW46018   4.725  10.090   0.370  0.9372 -0.0283  0.6783
78098SOL    HW146019   4.775  10.127   0.298  0.5839 -2.6445 -1.0729
78098SOL    HW246020   4.790  10.055   0.430  1.2439 -0.0633  0.3269
78099SOL     OW46021  13.219  12.692   4.156 -0.1949  0.0536  0.1453
78099SOL    HW146022  13.289  12.692   4.091  0.7922  0.3187  1.1708
78099SOL    HW246023  13.263  12.708   4.239 -1.6876  2.1339  0.6144
78100SOL     OW46024  11.886   9.897   6.474 -0.7539 -0.0452  0.3778
78100SOL    HW146025  11.841   9.982   6.469 -0.1759  0.3355  1.3399
78100SOL    HW246026  11.831   9.845   6.533 -1.9930 -0.9349 -1.4854
78101SOL     OW46027  10.101   6.277  12.317  0.1763 -0.4332 -0.1770
78101SOL    HW146028  10.045   6.213  12.360  1.8680 -1.0188  1.2819
78101SOL    HW246029  10.189   6.239  12.322  0.7861  0.5753 -2.1266
78102SOL     OW46030   0.150   3.600  11.449  0.2699 -0.0514  0.4352
78102SOL    HW146031   0.172   3.567  11.536 -0.4435 -0.8822  0.3115
78102SOL    HW246032   0.218   3.664  11.430  0.7068 -0.2121  1.4024
78103SOL     OW46033   5.392   0.257  10.660  0.0060  0.3431 -0.1747
78103SOL    HW146034   5.403   0.335  10.607  0.4292  0.7545  0.5000
78103SOL    HW246035   5.451   0.270  10.735 -1.1778  0.1519  0.8164
78104SOL     OW46036  12.396   6.512   1.368 -0.8120  0.5517  0.0094
78104SOL    HW146037  12.339   6.438   1.389  0.2748  0.3811  2.6240
78104SOL    HW246038  12.372   6.534   1.278 -3.0015 -1.2930  0.0277
78105SOL     OW46039  13.165   4.687   8.958 -0.0367 -0.4719  0.2018
78105SOL    HW146040  13.175   4.763   9.015 -1.0390 -0.7127  0.7275
78105SOL    HW246041  13.255   4.662   8.935  0.2892  1.3186 -0.6070
78106SOL     OW46042   4.426   9.027   1.210  0.3031 -0.2390 -0.1654
78106SOL    HW146043   4.485   8.979   1.151  0.9657  0.5762 -0.1967
78106SOL    HW246044   4.353   8.968   1.224  1.8631 -1.9699  1.1493
78107SOL     OW46045   5.596  11.546   3.795  0.1869 -0.2254 -0.4944
78107SOL    HW146046   5.536  11.507   3.731 -1.5517  0.2487  0.7881
78107SOL    HW246047   5.588  11.640   3.781 -0.3295 -0.1087  0.5088
78108SOL     OW46048   8.141   1.560   8.272  0.0277  0.2329  0.1353
78108SOL    HW146049   8.132   1.505   8.194  1.7362  0.8095 -0.5352
78108SOL    HW246050   8.059   1.609   8.276 -0.2504 -0.0843 -1.1081
78109SOL     OW46051   6.912   9.167   7.639 -0.0877 -0.1680  0.4056
78109SOL    HW146052   6.862   9.224   7.580 -0.3539  0.0594  0.8400
78109SOL    HW246053   6.858   9.088   7.647 -0.9930  0.5419  1.8003
78110SOL     OW46054   5.745   7.977   1.840 -0.0860 -0.4529  0.3126
78110SOL    HW146055   5.713   8.067   1.838 -0.9427 -0.7614 -0.0440
78110SOL    HW246056   5.673   7.926   1.877 -0.1796 -1.2056 -0.8545
78111SOL     OW46057  13.548   7.472   4.334  0.1428 -0.0681 -0.0158
78111SOL    HW146058  13.508   7.479   4.248  2.1389  1.1545 -0.9221
78111SOL    HW246059  13.493   7.410   4.382 -1.0212 -0.7690 -2.1472
78112SOL     OW46060   4.478   4.423  10.560  0.0140 -0.3635  0.6247
78112SOL    HW146061   4.397   4.432  10.509  0.4219 -0.6566 -0.0862
78112SOL    HW246062   4.513   4.338  10.534  1.3503  0.4227 -0.2455
78113SOL     OW46063   2.218  11.726  11.427 -0.5825 -0.7080 -0.4605
78113SOL    HW146064   2.134  11.680  11.423 -0.7024 -0.5192 -0.2046
78113SOL    HW246065   2.200  11.801  11.484 -0.2846 -0.5713 -0.5480
78114SOL     OW46066   3.323   1.116  11.274  0.1662 -0.0660 -0.0572
78114SOL    HW146067   3.395   1.096  11.335  0.1354 -0.8802 -0.2802
78114SOL    HW246068   3.245   1.083  11.318  0.1620 -0.7954 -0.5968
78115SOL     OW46069   1.629   8.910   7.798 -0.0910  0.1668 -0.6357
78115SOL    HW146070   1.593   8.993   7.830  0.1808 -0.0639  0.3248
78115SOL    HW246071   1.585   8.895   7.714 -2.6359 -0.3232  0.6525
78116SOL     OW46072  10.470   7.169   4.291 -0.1887  0.1931 -0.5850
78116SOL    HW146073  10.393   7.113   4.278 -0.8833  0.9228  0.1961
78116SOL    HW246074  10.535   7.112   4.331 -0.5030 -0.3166 -0.7967
78117SOL     OW46075   0.368   2.623   4.605  0.3585 -0.3917  0.3053
78117SOL    HW146076   0.394   2.711   4.634 -0.8760  0.2699 -0.5056
78117SOL    HW246077   0.397   2.618   4.514  0.9637 -1.0850  0.5189
78118SOL     OW46078   2.759  13.741   4.001  0.3961  0.4618 -0.1826
78118SOL    HW146079   2.666  13.748   3.980  0.4095 -0.2730 -0.5262
78118SOL    HW246080   2.767  13.659   4.050  0.4059  2.0345  2.6473
78119SOL     OW46081  11.423  11.036  11.004 -0.0554  0.1933  0.1126
78119SOL    HW146082  11.420  10.967  10.937 -0.1764 -0.8934  1.1930
78119SOL    HW246083  11.514  11.065  11.003 -0.1639  0.5455 -0.8529
78120SOL     OW46084  12.643   5.268   8.236 -0.0362 -0.0437 -0.6281
78120SOL    HW146085  12.653   5.362   8.222  3.5447 -0.1974 -0.1713
78120SOL    HW246086  12.565   5.260   8.291 -0.0280  2.7481 -0.0512
78121SOL     OW46087   8.599   2.947   3.267 -0.2593  0.2336 -0.4903
78121SOL    HW146088   8.601   2.958   3.172  1.5202  0.0509 -0.5085
78121SOL    HW246089   8.572   3.033   3.300  1.4059  1.0423 -1.1058
78122SOL     OW46090   5.395   0.488   7.726  0.2277 -0.1923 -0.2385
78122SOL    HW146091   5.393   0.451   7.814 -0.8721 -0.0387 -0.1874
78122SOL    HW246092   5.466   0.553   7.729  1.9057 -1.9436 -0.2204
78123SOL     OW46093  11.594   8.197   8.161  0.2107  0.1965  0.9258
78123SOL    HW146094  11.597   8.111   8.203 -0.0167 -0.6816 -0.7602
78123SOL    HW246095  11.561   8.179   8.072  4.3981  1.3159 -1.0953
78124SOL     OW46096  10.499   0.138   7.544  0.4617 -0.5781 -0.0037
78124SOL    HW146097  10.424   0.152   7.601 -1.3856 -0.0796 -2.3920
78124SOL    HW246098  10.562   0.090   7.598 -0.3530  1.4215  2.9598
78125SOL     OW46099   8.030  13.274   6.538 -0.2981  0.3316  0.4291
78125SOL    HW146100   8.074  13.335   6.479  1.1606  0.7842  1.9018
78125SOL    HW246101   8.008  13.199   6.483 -0.1096  1.2512 -0.9432
78126SOL     OW46102   7.809   0.855   5.297 -0.4094 -0.0279 -0.5450
78126SOL    HW146103   7.845   0.767   5.309  0.0204  0.1430 -0.5328
78126SOL    HW246104   7.779   0.857   5.206 -1.2960 -0.4920 -0.2666
78127SOL     OW46105   6.366   2.616   0.664 -0.0628 -0.6477 -0.0671
78127SOL    HW146106   6.340   2.642   0.752  1.4398 -1.2739  0.5974
78127SOL    HW246107   6.305   2.546   0.640 -2.1989  1.2933 -0.6646
78128SOL     OW46108   0.188  13.323   1.442 -0.2337  1.0714  0.3703
78128SOL    HW146109   0.273  13.346   1.479 -0.2577  0.3455  0.8946
78128SOL    HW246110   0.126  13.379   1.488 -0.0705  1.4724  0.1170
78129SOL     OW46111  10.738   3.226   9.527 -0.0230 -0.0823  0.0378
78129SOL    HW146112  10.734   3.137   9.562  2.4921  0.6762  2.6522
78129SOL    HW246113  10.831   3.247   9.525 -0.5528  2.6266 -0.0740
78130SOL     OW46114   7.164   6.227  12.814 -0.3042  0.6047 -0.4724
78130SOL    HW146115   7.186   6.280  12.891  0.2252  0.2502 -0.3749
78130SOL    HW246116   7.241   6.232  12.758 -1.1512  1.8967 -1.5842
78131SOL     OW46117   4.450   5.345   7.281  0.2327 -0.0961  0.0891
78131SOL    HW146118   4.544   5.344   7.301  0.2950 -0.7283 -0.2278
78131SOL    HW246119   4.422   5.433   7.307  1.3674  0.9071 -1.8387
78132SOL     OW46120  10.929   5.011  11.819 -0.8684 -0.5462 -0.5135
78132SOL    HW146121  10.905   5.054  11.737 -0.4073  0.7232 -0.0165
78132SOL    HW246122  10.866   5.045  11.883  0.5723  0.8383  0.2653
78133SOL     OW46123   3.029   6.150   2.991 -0.0860 -0.0620 -0.2290
78133SOL    HW146124   2.972   6.106   3.054 -0.1026 -0.5767 -0.5935
78133SOL    HW246125   2.995   6.122   2.905  0.4250 -0.0009 -0.4516
78134SOL     OW46126   1.105   6.498   5.176  0.1525  0.0993 -0.6113
78134SOL    HW146127   1.048   6.461   5.110  0.0338  1.1754 -1.1439
78134SOL    HW246128   1.075   6.589   5.186  1.0583  0.3609 -0.0967
78135SOL     OW46129   0.084  12.343   6.387  0.4307  0.1762 -0.6262
78135SOL    HW146130   0.127  12.309   6.309  0.4278 -0.6123 -0.2842
78135SOL    HW246131   0.140  12.316   6.460  0.4071  0.8630 -0.3400
78136SOL     OW46132   0.508   3.908   7.735 -0.4380  0.0018 -0.3277
78136SOL    HW146133   0.475   3.902   7.645 -0.3299  1.6499 -0.4979
78136SOL    HW246134   0.601   3.887   7.728 -0.6718 -1.1057 -0.3846
78137SOL     OW46135   2.958  11.531   9.005  0.5199 -0.7000 -0.2951
78137SOL    HW146136   2.903  11.568   8.936  2.5336  0.8776 -1.1532
78137SOL    HW246137   2.984  11.606   9.058 -0.4975 -1.8010  1.9205
78138SOL     OW46138   9.043   7.379   3.379 -0.4429 -0.6677  0.8444
78138SOL    HW146139   9.037   7.416   3.467  0.7061  1.3923  0.1144
78138SOL    HW246140   9.098   7.302   3.390 -0.2844 -0.4238  1.9212
78139SOL     OW46141   6.176   1.326   0.748  0.0618  0.0734  0.5861
78139SOL    HW146142   6.141   1.390   0.810  2.3222  1.2255  0.7805
78139SOL    HW246143   6.202   1.378   0.672 -0.5208 -1.0167 -0.3953
78140SOL     OW46144  10.653   5.239   3.621  0.8510  0.1649 -0.3903
78140SOL    HW146145  10.641   5.260   3.714  0.2991  1.7024 -0.7691
78140SOL    HW246146  10.702   5.313   3.586  0.1556  0.1183 -1.5204
78141SOL     OW46147   0.604   7.203   6.341 -0.4109  0.0728 -0.3795
78141SOL    HW146148   0.621   7.208   6.247  0.3889  2.6397 -0.1762
78141SOL    HW246149   0.683   7.239   6.381 -1.4380  0.6662  1.1943
78142SOL     OW46150   5.295   7.532   6.321  0.0431  0.5172  0.7262
78142SOL    HW146151   5.370   7.585   6.292 -2.3975  2.8359 -2.0431
78142SOL    HW246152   5.286   7.464   6.253 -1.2096  1.2508  0.1152
78143SOL     OW46153   7.496   8.538  13.026  0.3120  0.3490 -0.2977
78143SOL    HW146154   7.468   8.460  13.073  1.4399 -0.1548 -0.4345
78143SOL    HW246155   7.417   8.592  13.020 -0.5192 -0.8260 -0.3036
78144SOL     OW46156  13.618   1.165   0.001 -0.9124  0.0395 -0.1188
78144SOL    HW146157  13.571   1.247   0.015 -0.4083  0.1240  1.2854
78144SOL    HW246158  13.623   1.125   0.088  1.1542 -0.1843 -0.2891
78145SOL     OW46159   8.767   5.145   8.834  0.4651  0.2970 -0.0678
78145SOL    HW146160   8.680   5.109   8.850  0.3960  0.1286 -0.7664
78145SOL    HW246161   8.806   5.156   8.921  0.1584 -0.6495  0.2008
78146SOL     OW46162   0.976   9.003   3.500  0.3867  0.4505  0.1381
78146SOL    HW146163   0.892   8.964   3.526 -0.1449 -0.2096 -2.3266
78146SOL    HW246164   0.989   9.075   3.561 -2.4667  1.1499  0.0457
78147SOL     OW46165   8.577  12.997   6.317 -0.1762  0.0716 -0.3490
78147SOL    HW146166   8.609  13.016   6.229  0.0681  0.6671 -0.1356
78147SOL    HW246167   8.577  12.902   6.322 -0.7701  0.0161 -1.2056
78148SOL     OW46168  10.823   4.670   7.060  0.1980  0.1917 -0.0032
78148SOL    HW146169  10.890   4.605   7.082 -0.2048 -0.1759  0.1610
78148SOL    HW246170  10.742   4.635   7.098  0.0392  0.9606  0.3889
78149SOL     OW46171  11.175  13.743  13.031 -0.2067  0.5668 -0.1173
78149SOL    HW146172  11.153  13.802  13.102  0.3084  0.1973  0.3612
78149SOL    HW246173  11.095  13.692  13.015  0.2570 -0.8207  1.6447
78150SOL     OW46174   6.869  12.125   6.382 -0.1599  0.3359  0.3543
78150SOL    HW146175   6.914  12.191   6.435  0.8973 -2.0223  2.6202
78150SOL    HW246176   6.783  12.117   6.422 -0.3754  0.4678 -0.0708
78151SOL     OW46177   2.357  12.992   5.162 -0.9006 -0.0101  0.6239
78151SOL    HW146178   2.326  13.030   5.244  0.3266  2.3360  0.0786
78151SOL    HW246179   2.453  12.998   5.168 -0.7591 -0.9212 -0.4789
78152SOL     OW46180   7.837   0.396   8.328 -0.4152  0.3460  0.2903
78152SOL    HW146181   7.809   0.487   8.338 -0.0727  0.4718  0.1135
78152SOL    HW246182   7.916   0.390   8.382 -0.5136  0.1196  0.4077
78153SOL     OW46183   1.473  11.733   4.601  0.0498  0.1088  0.9472
78153SOL    HW146184   1.394  11.680   4.608 -0.2850  0.4998  0.2842
78153SOL    HW246185   1.450  11.816   4.642  0.4193 -0.0866  1.5628
78154SOL     OW46186  13.484   4.298   5.787  0.5610  0.1609 -0.6485
78154SOL    HW146187  13.576   4.273   5.776  0.2616 -2.1363  1.2520
78154SOL    HW246188  13.435   4.233   5.737 -0.1062 -0.7068  1.0456
78155SOL     OW46189  10.626   1.448  11.854 -0.0036  0.5789 -0.3562
78155SOL    HW146190  10.713   1.477  11.883  0.0253  0.0020  0.1627
78155SOL    HW246191  10.566   1.486  11.918  0.0796 -0.8934  0.6506
78156SOL     OW46192   7.877   7.163   6.996 -0.6605 -0.1673 -0.0494
78156SOL    HW146193   7.845   7.252   6.985 -0.5863  0.0191  1.1660
78156SOL    HW246194   7.961   7.162   6.950  2.2338  2.1006  4.4592
78157SOL     OW46195  11.984  12.758   1.793  0.2633 -0.7974 -0.2662
78157SOL    HW146196  12.009  12.681   1.845 -1.4674 -0.8393  0.5881
78157SOL    HW246197  11.889  12.751   1.785  0.2622  0.4063 -1.5777
78158SOL     OW46198   0.768  10.662   5.879  0.0375 -0.3034 -0.3107
78158SOL    HW146199   0.748  10.742   5.928  4.1736 -0.2685  1.8142
78158SOL    HW246200   0.847  10.684   5.829 -0.3329 -2.2973 -1.8925
78159SOL     OW46201   0.234   6.267   5.849 -0.4722  0.4025  0.0549
78159SOL    HW146202   0.226   6.258   5.754  0.0701  0.4906 -0.0043
78159SOL    HW246203   0.195   6.187   5.884  0.8849 -0.4530 -0.3168
78160SOL     OW46204  12.589   9.340   2.091 -0.1712  0.3023 -0.2466
78160SOL    HW146205  12.506   9.296   2.074  0.0207 -0.3470  0.4493
78160SOL    HW246206  12.606   9.323   2.184 -1.4414  4.1540  0.8742
78161SOL     OW46207   0.861   9.342  12.263 -0.1504 -0.1487  0.2355
78161SOL    HW146208   0.916   9.413  12.230 -0.1083 -0.0298  0.5560
78161SOL    HW246209   0.887   9.333  12.355  1.4404 -2.0623 -0.3334
78162SOL     OW46210   9.055   8.688   1.290  0.1485  0.6393 -0.5327
78162SOL    HW146211   9.000   8.695   1.213  0.0155 -0.0419 -0.5054
78162SOL    HW246212   9.129   8.747   1.273 -0.3418  1.1869 -0.7740
78163SOL     OW46213  11.489   6.933   9.821 -0.3965 -0.0707 -0.2129
78163SOL    HW146214  11.515   7.023   9.838 -1.4264 -0.2333  2.6564
78163SOL    HW246215  11.430   6.939   9.746  0.1188  1.5041 -0.5301
78164SOL     OW46216   2.264  10.933   8.342  0.5791  0.6793  0.5863
78164SOL    HW146217   2.258  11.019   8.301 -1.3838  0.1239 -0.4420
78164SOL    HW246218   2.192  10.933   8.406  0.4366 -0.2511  0.4329
78165SOL     OW46219   4.405   2.426   7.278 -0.2325  0.4575  0.1249
78165SOL    HW146220   4.363   2.477   7.346  0.4968  0.6319  0.4516
78165SOL    HW246221   4.467   2.370   7.324 -0.3797 -0.0787 -0.3129
78166SOL     OW46222   3.854   1.933   9.538 -0.5084 -0.0521 -0.2405
78166SOL    HW146223   3.917   1.861   9.533 -0.3835 -0.0926  1.3364
78166SOL    HW246224   3.838   1.945   9.632 -1.0255  1.5404 -0.4893
78167SOL     OW46225  11.057   7.559   9.204 -0.1834 -0.5046  0.2624
78167SOL    HW146226  11.091   7.600   9.124  0.4328  0.2632  0.9048
78167SOL    HW246227  11.037   7.632   9.262  0.8765 -1.0835  1.4127
78168SOL     OW46228   1.370   1.252  11.567  0.0972  0.2066 -0.6813
78168SOL    HW146229   1.322   1.334  11.557  2.1630  1.7758  1.1096
78168SOL    HW246230   1.304   1.188  11.594 -1.0741  2.2168  1.5913
78169SOL     OW46231  12.008  12.986   1.665  0.1034  0.2434 -0.3732
78169SOL    HW146232  12.000  13.056   1.731  0.0450 -0.3592  0.2692
78169SOL    HW246233  11.976  12.908   1.709 -0.8974  0.0127 -1.4537
78170SOL     OW46234  11.630  12.540   7.886 -0.0081 -0.3520  0.2786
78170SOL    HW146235  11.595  12.560   7.973 -0.5561  4.0630 -0.7386
78170SOL    HW246236  11.554  12.506   7.838  0.0233 -1.6973  1.1050
78171SOL     OW46237   8.923   3.549   0.151  0.1875  0.0609  0.6065
78171SOL    HW146238   8.844   3.586   0.191 -0.1643 -0.1777  0.1494
78171SOL    HW246239   8.897   3.530   0.060  1.0678  0.9505  0.1481
78172SOL     OW46240   9.530   5.659   5.450  0.4345 -0.5855  0.2348
78172SOL    HW146241   9.566   5.720   5.514 -1.6833  1.1461 -0.0780
78172SOL    HW246242   9.445   5.697   5.427 -0.5277 -3.1550 -0.7899
78173SOL     OW46243   5.467   7.762   2.174  0.2100  0.3541 -0.2869
78173SOL    HW146244   5.501   7.689   2.123  2.1203  0.8617  0.1922
78173SOL    HW246245   5.373   7.746   2.180  0.0639 -0.2323 -3.1021
78174SOL     OW46246  10.630   6.104   4.767  0.1234 -0.5755  0.4842
78174SOL    HW146247  10.601   6.013   4.777  1.1121 -0.8468  0.9788
78174SOL    HW246248  10.714   6.099   4.723  0.5180  0.0553  1.1413
78175SOL     OW46249   0.344  13.588  12.836 -0.0503  0.2660  0.2390
78175SOL    HW146250   0.255  13.560  12.815 -1.3081  1.4525  3.4577
78175SOL    HW246251   0.400  13.527  12.788 -2.5912 -1.6032 -0.5446
78176SOL     OW46252   3.727   5.759  12.439  0.6968  0.0867 -0.2347
78176SOL    HW146253   3.707   5.734  12.530 -1.0959  2.2789  0.0600
78176SOL    HW246254   3.744   5.675  12.395  0.1786 -1.1675  1.7923
78177SOL     OW46255   5.589   6.871   9.157  0.1005 -0.3569  0.1975
78177SOL    HW146256   5.584   6.806   9.227  0.5256 -1.0491 -0.3914
78177SOL    HW246257   5.659   6.838   9.099  1.4987  1.4849  0.7340
78178SOL     OW46258   0.727   4.668   5.911  0.0378  0.1296 -0.0439
78178SOL    HW146259   0.685   4.636   5.990  2.7710  0.5703  1.7303
78178SOL    HW246260   0.751   4.758   5.932 -1.1787  1.0620 -2.2910
78179SOL     OW46261   6.706   1.020   1.592  0.5532 -0.5609 -0.1680
78179SOL    HW146262   6.737   0.968   1.518  0.9396  2.4073 -2.2905
78179SOL    HW246263   6.765   1.095   1.594 -0.6089  0.3856  2.0034
78180SOL     OW46264   0.384   7.141  10.564  0.2543 -0.0548 -0.0833
78180SOL    HW146265   0.320   7.084  10.606  1.1110 -0.0188  1.3536
78180SOL    HW246266   0.387   7.219  10.619  3.4275 -1.1457  1.5418
78181SOL     OW46267   9.467   9.216   8.450  0.3327  0.0294  0.7192
78181SOL    HW146268   9.552   9.243   8.486  0.9477 -1.1475  0.2144
78181SOL    HW246269   9.422   9.174   8.523 -0.1490  1.3102  1.1897
78182SOL     OW46270   3.763   4.212   6.570  0.5693  0.3714 -0.0377
78182SOL    HW146271   3.834   4.238   6.512  0.6425  0.3159  0.0270
78182SOL    HW246272   3.768   4.273   6.644 -0.3644  1.3254 -0.7188
78183SOL     OW46273  11.384  11.747   1.269  0.1146  0.3960  0.8687
78183SOL    HW146274  11.349  11.830   1.302 -0.6958  0.6180 -0.4580
78183SOL    HW246275  11.306  11.695   1.249  0.5812  0.0086  0.0036
78184SOL     OW46276   9.469   3.700   1.975  0.7053 -0.0874  0.5219
78184SOL    HW146277   9.494   3.736   1.890 -3.1342  0.9065 -0.3631
78184SOL    HW246278   9.435   3.613   1.955 -3.2299  1.3154  0.3352
78185SOL     OW46279  11.741   1.434   1.596 -0.0335  0.0977  0.5879
78185SOL    HW146280  11.660   1.443   1.646  0.3694  1.8263  0.9887
78185SOL    HW246281  11.769   1.344   1.612 -1.3670 -0.2358  1.2058
78186SOL     OW46282   4.669   1.949   1.150 -0.0907 -0.0370 -0.3288
78186SOL    HW146283   4.633   1.887   1.214  0.6458  0.6710  0.8252
78186SOL    HW246284   4.756   1.915   1.129 -0.5227 -0.5299 -1.3489
78187SOL     OW46285   6.005   5.272   8.080  0.0559 -0.3570 -0.3309
78187SOL    HW146286   6.095   5.304   8.075  1.0157 -2.9541 -1.0047
78187SOL    HW246287   5.990   5.228   7.997 -1.5708 -0.6617  0.0893
78188SOL     OW46288  11.139   7.522   2.515  0.1145 -0.1093  0.3647
78188SOL    HW146289  11.187   7.605   2.521 -0.4573  0.3903 -1.3159
78188SOL    HW246290  11.100   7.509   2.601  2.3155  0.0288  1.4604
78189SOL     OW46291   3.496  11.580   8.101 -0.2894  0.2201 -0.4726
78189SOL    HW146292   3.447  11.531   8.167 -1.6747  0.7645 -1.0631
78189SOL    HW246293   3.438  11.653   8.077 -0.1123 -0.3323 -2.7944
78190SOL     OW46294   8.473   9.102   1.603  0.0797  0.2439  0.1100
78190SOL    HW146295   8.493   9.030   1.545  1.8129  0.7291  0.0560
78190SOL    HW246296   8.514   9.078   1.686 -0.5681  0.5236  0.5233
78191SOL     OW46297  12.153   5.965  12.902 -0.2514  0.0919  0.0580
78191SOL    HW146298  12.235   6.014  12.898  1.4574 -2.6125 -1.1360
78191SOL    HW246299  12.169   5.897  12.967 -1.6389 -0.3129 -0.0069
78192SOL     OW46300   9.560  10.335   0.812  0.4319  0.1414 -0.3966
78192SOL    HW146301   9.627  10.350   0.746  2.2833 -1.1980  1.0458
78192SOL    HW246302   9.497  10.277   0.769  1.1419 -0.0243 -1.2536
78193SOL     OW46303   5.284   4.025   7.866  0.0720 -0.2578  0.0712
78193SOL    HW146304   5.241   3.943   7.844  0.9634 -0.2521 -1.8983
78193SOL    HW246305   5.366   4.024   7.817 -0.8505  2.7141 -1.8308
78194SOL     OW46306   6.157   2.079   3.722  0.0223 -0.4991 -0.6501
78194SOL    HW146307   6.169   2.064   3.816 -1.7170 -0.8815 -0.4486
78194SOL    HW246308   6.117   1.999   3.689  0.8750 -0.4840 -1.8017
78195SOL     OW46309   9.490   6.927  12.733  0.1271 -0.3522  0.4143
78195SOL    HW146310   9.415   6.966  12.687 -0.3617  0.6842  2.0159
78195SOL    HW246311   9.540   6.884  12.663 -0.7820  0.8082 -1.0336
78196SOL     OW46312  12.022   6.916   2.819  0.3171 -0.2412 -0.2495
78196SOL    HW146313  12.010   6.885   2.909  1.1828 -0.8701 -0.3377
78196SOL    HW246314  12.034   7.011   2.828 -0.0918 -0.2359  0.2516
78197SOL     OW46315   0.530   3.373   3.363 -0.2162  0.1180 -0.0273
78197SOL    HW146316   0.553   3.281   3.380 -0.9329 -0.3812 -1.4905
78197SOL    HW246317   0.536   3.381   3.268 -0.5944  1.4772  0.0468
78198SOL     OW46318   5.269   7.215  12.019 -0.0699 -0.2657 -0.1219
78198SOL    HW146319   5.330   7.262  11.963 -0.1964  0.3449  0.2529
78198SOL    HW246320   5.198   7.189  11.961 -0.4380  0.7866 -0.1554
78199SOL     OW46321   5.833   8.816  10.574  0.2165 -0.4030  0.0926
78199SOL    HW146322   5.890   8.778  10.641  0.4707  0.1964  0.2223
78199SOL    HW246323   5.810   8.742  10.518  1.2489 -0.6434 -0.0484
78200SOL     OW46324  13.474   3.942  11.451 -0.5251 -0.0713  0.2969
78200SOL    HW146325  13.549   3.888  11.427 -1.0838 -0.4379 -0.7119
78200SOL    HW246326  13.498   3.982  11.534  0.0761 -1.5415  0.8565
78201SOL     OW46327   3.417   8.580   3.692 -0.3203  0.1035  0.4110
78201SOL    HW146328   3.444   8.661   3.648  0.4760  0.9167  2.2843
78201SOL    HW246329   3.323   8.591   3.705 -0.6013 -0.2142 -1.1359
78202SOL     OW46330  12.198   9.822   0.572  0.4469  0.1497 -0.3446
78202SOL    HW146331  12.164   9.896   0.622  1.7229  0.1553  0.5505
78202SOL    HW246332  12.286   9.808   0.606  0.4818 -1.3549 -0.9656
78203SOL     OW46333   9.878   8.292   9.469 -0.0350  0.3060  0.3340
78203SOL    HW146334   9.953   8.341   9.437 -0.1037 -1.0813 -2.1981
78203SOL    HW246335   9.904   8.264   9.557  1.8272  1.0138  0.0571
78204SOL     OW46336   6.488   0.732   1.200 -0.3066 -0.1076  0.3222
78204SOL    HW146337   6.451   0.733   1.112 -0.9743 -1.3134  0.5608
78204SOL    HW246338   6.488   0.823   1.228 -0.0489  0.2956 -0.9272
78205SOL     OW46339   6.362   9.629   2.491 -0.8508  0.0661 -0.2047
78205SOL    HW146340   6.435   9.674   2.533 -0.5720 -0.0765 -0.5356
78205SOL    HW246341   6.384   9.536   2.498 -1.4540 -0.0316  0.5367
78206SOL     OW46342  12.074  10.578  11.867 -0.0872 -0.6155 -0.1712
78206SOL    HW146343  12.154  10.538  11.832  0.3050  0.9457 -1.1872
78206SOL    HW246344  12.106  10.651  11.920 -0.8027  0.6628 -1.4152
78207SOL     OW46345   7.492   5.043   1.240  0.4336 -0.4641 -0.0560
78207SOL    HW146346   7.511   4.991   1.162 -1.6347  1.4901 -1.9632
78207SOL    HW246347   7.401   5.024   1.260  0.3021  0.7584  0.5607
78208SOL     OW46348  11.315   1.205   2.349 -0.2132  0.2056  0.4092
78208SOL    HW146349  11.255   1.132   2.336  0.3883 -0.0056 -1.4376
78208SOL    HW246350  11.384   1.192   2.284 -0.4235  2.7974 -0.4432
78209SOL     OW46351   5.616  11.828   8.495  0.0481 -0.5899  0.0402
78209SOL    HW146352   5.616  11.785   8.409 -1.8761 -1.4175  0.3844
78209SOL    HW246353   5.655  11.914   8.480 -0.9478 -0.4206 -1.8366
78210SOL     OW46354   8.258  13.614   3.605  0.2385 -0.4896 -0.0117
78210SOL    HW146355   8.313  13.544   3.641  1.0416  0.8093  1.4357
78210SOL    HW246356   8.269  13.609   3.510  3.5054  0.1582  0.2302
78211SOL     OW46357   2.462  12.134   2.341  0.1960  0.0183 -0.2922
78211SOL    HW146358   2.382  12.133   2.394 -0.6869 -0.2919 -1.5944
78211SOL    HW246359   2.533  12.124   2.405 -0.8561 -0.8407  0.7859
78212SOL     OW46360   9.605   2.638  13.564 -0.2445 -0.1799  0.4908
78212SOL    HW146361   9.568   2.589  13.491  0.3521 -0.9914  0.7207
78212SOL    HW246362   9.557   2.721  13.564 -2.4789 -1.3890  1.1450
78213SOL     OW46363   4.010   2.881   4.284 -0.5014 -0.1242  0.3037
78213SOL    HW146364   4.026   2.965   4.240  1.6989  0.3418  1.8027
78213SOL    HW246365   4.096   2.856   4.319 -1.9609 -0.5241  4.1108
78214SOL     OW46366   2.124   8.135   5.342 -0.1967 -0.2342 -0.0338
78214SOL    HW146367   2.201   8.155   5.289  0.3178 -1.3907  0.2468
78214SOL    HW246368   2.156   8.136   5.432 -1.1805  2.2906  0.3807
78215SOL     OW46369   3.142  10.876   8.841 -0.3000  0.1297 -0.2382
78215SOL    HW146370   3.216  10.864   8.782 -0.0200 -1.2791  0.3585
78215SOL    HW246371   3.065  10.854   8.789 -0.2029  0.4329 -0.5146
78216SOL     OW46372   9.829   7.989   3.281 -0.3419  0.5638  0.4619
78216SOL    HW146373   9.875   8.001   3.364  0.9410  0.3932 -0.1878
78216SOL    HW246374   9.737   8.005   3.301 -0.3504 -1.3508  2.3250
78217SOL     OW46375  13.032  10.565   7.917  0.1237 -0.3761 -0.0884
78217SOL    HW146376  13.026  10.592   8.009 -0.4940 -0.8176  0.0122
78217SOL    HW246377  13.077  10.637   7.873  0.3182 -0.1091  0.5402
78218SOL     OW46378   2.416   8.652   3.317 -0.1581  0.1556 -0.4923
78218SOL    HW146379   2.427   8.654   3.412  2.6754  0.2047 -0.7554
78218SOL    HW246380   2.498   8.618   3.283 -1.4327 -0.7559 -2.9241
78219SOL     OW46381   0.022   5.954   7.272 -0.3697  0.1095  0.1089
78219SOL    HW146382   0.014   5.877   7.328 -0.6245  0.1097  0.0756
78219SOL    HW246383  -0.018   6.025   7.323  1.3931  0.6111  0.8759
78220SOL     OW46384   4.460   2.304   6.606  0.7227  0.5140  0.4098
78220SOL    HW146385   4.389   2.241   6.600 -0.7780  1.9587  1.8825
78220SOL    HW246386   4.535   2.260   6.566 -0.5948 -1.6272  0.1433
78221SOL     OW46387   0.789   5.800   5.183 -0.4905 -0.3054 -0.1365
78221SOL    HW146388   0.706   5.778   5.140 -1.1937 -0.4823  1.2537
78221SOL    HW246389   0.764   5.821   5.273  0.9254  0.1402  0.1724
78222SOL     OW46390   9.431   8.798   9.296  0.1638 -0.1309  0.5347
78222SOL    HW146391   9.523   8.806   9.272 -0.2752  0.0987 -1.2132
78222SOL    HW246392   9.432   8.773   9.389  1.9641  0.0118  0.5818
78223SOL     OW46393   7.271   2.253   9.626 -0.1666  0.0618 -0.3120
78223SOL    HW146394   7.209   2.264   9.698  0.2503  0.1142  0.0451
78223SOL    HW246395   7.337   2.322   9.640 -0.6552  0.7765 -1.3544
78224SOL     OW46396   1.037   6.322   2.927  0.2141  0.4370  0.1178
78224SOL    HW146397   1.098   6.264   2.882 -0.3067  1.5662 -2.1671
78224SOL    HW246398   1.092   6.393   2.960  0.2702  1.0120 -1.1824
78225SOL     OW46399   9.079   7.475   9.684  0.0566 -0.6673  0.3639
78225SOL    HW146400   9.101   7.482   9.591 -0.0584 -1.9472  0.2148
78225SOL    HW246401   9.152   7.425   9.722 -0.8434 -1.8724  0.5585
78226SOL     OW46402  11.171   4.666   4.355 -0.5650 -0.2888  0.6378
78226SOL    HW146403  11.172   4.760   4.337  0.5927 -0.5080 -0.5755
78226SOL    HW246404  11.141   4.660   4.446 -0.9784  1.2226  0.6335
78227SOL     OW46405   0.133   4.426  13.179  0.3349  0.5121 -0.0942
78227SOL    HW146406   0.125   4.333  13.157 -0.3694 -0.3095  3.0235
78227SOL    HW246407   0.227   4.441  13.188  0.4157 -0.8385  2.3260
78228SOL     OW46408   7.360   2.624  10.626 -0.8083 -0.1160 -0.0496
78228SOL    HW146409   7.397   2.535  10.625  1.2796  0.6872  0.2401
78228SOL    HW246410   7.288   2.620  10.689 -0.1742 -1.3937  0.6297
78229SOL     OW46411   8.035   6.805   8.240 -0.0361  0.0082 -0.3426
78229SOL    HW146412   7.983   6.747   8.296  0.8762 -0.7617 -0.2828
78229SOL    HW246413   8.072   6.748   8.173 -2.3347  1.0917 -2.7438
78230SOL     OW46414   4.176   0.741  10.758 -0.1595 -0.2077 -0.8381
78230SOL    HW146415   4.107   0.784  10.708 -2.6287 -0.1796  2.2982
78230SOL    HW246416   4.254   0.794  10.741 -1.5282  1.4572 -2.3375
78231SOL     OW46417  12.514  10.339   7.863 -0.0450 -0.2180  0.8066
78231SOL    HW146418  12.578  10.279   7.824  0.3935  1.2414 -0.8501
78231SOL    HW246419  12.554  10.366   7.946  0.9599 -0.2194  0.3395
78232SOL     OW46420   2.484   1.821   2.890 -0.6843 -0.3004 -0.4542
78232SOL    HW146421   2.499   1.806   2.797  0.3356 -1.1267 -0.1827
78232SOL    HW246422   2.570   1.808   2.930 -0.9506  0.7986  0.5201
78233SOL     OW46423   5.471   9.332   2.362 -0.6646  0.1190  0.5793
78233SOL    HW146424   5.410   9.390   2.407  0.0309  0.3369  1.2603
78233SOL    HW246425   5.549   9.386   2.347 -1.3061  0.4649 -2.0661
78234SOL     OW46426   9.818   8.690  11.285  0.5531 -0.0149 -0.9626
78234SOL    HW146427   9.893   8.648  11.243  1.4575  0.9397 -0.3506
78234SOL    HW246428   9.763   8.617  11.314  1.0018 -0.7193 -1.8330
78235SOL     OW46429  11.853   4.423   8.927 -0.0515 -0.0958 -0.4052
78235SOL    HW146430  11.900   4.344   8.955  1.2904  0.4087 -1.0998
78235SOL    HW246431  11.918   4.470   8.875 -1.3350  0.7115 -1.2952
78236SOL     OW46432  11.496   3.237   1.355 -0.1325 -0.1663 -0.1027
78236SOL    HW146433  11.452   3.170   1.302  0.5316  1.1826 -2.5440
78236SOL    HW246434  11.429   3.304   1.368 -0.7604 -1.1558  2.2356
78237SOL     OW46435   1.676   1.615   3.932  0.5554  0.0618 -0.2361
78237SOL    HW146436   1.690   1.521   3.942 -0.3755 -0.1269 -0.5464
78237SOL    HW246437   1.663   1.648   4.021  0.3556 -0.2062 -0.1652
78238SOL     OW46438  11.852   9.355   2.489 -0.0091  0.0093 -0.6284
78238SOL    HW146439  11.927   9.323   2.439  0.5741 -0.8616  0.7718
78238SOL    HW246440  11.880   9.439   2.525  0.8007 -0.8956  0.9417
78239SOL     OW46441   9.410   3.433   5.412  0.2839  0.6146  0.4335
78239SOL    HW146442   9.447   3.447   5.499 -0.1995 -0.1964  0.7869
78239SOL    HW246443   9.316   3.423   5.428  0.2341  0.1328 -0.1325
78240SOL     OW46444  12.594  12.897   5.813 -0.6996  0.2442 -0.4423
78240SOL    HW146445  12.560  12.866   5.897 -3.7681 -0.9807 -1.9408
78240SOL    HW246446  12.544  12.977   5.796  0.6292  1.0472 -0.6917
78241SOL     OW46447   9.275   2.333  11.294 -0.4266 -0.2433 -0.8129
78241SOL    HW146448   9.337   2.317  11.223  2.5690 -1.6642  1.8563
78241SOL    HW246449   9.311   2.410  11.339 -0.0945 -1.5059  1.1890
78242SOL     OW46450   2.495  10.262   5.111  0.7901 -0.5146  0.1896
78242SOL    HW146451   2.500  10.313   5.192  0.6705  0.9051 -0.6641
78242SOL    HW246452   2.463  10.176   5.139 -1.1858  0.5397  1.4191
78243SOL     OW46453  10.210   3.484   9.385 -0.1411  0.3549 -0.5846
78243SOL    HW146454  10.195   3.495   9.291 -1.7213  0.2119 -0.3710
78243SOL    HW246455  10.131   3.518   9.426 -0.5368 -1.8162  0.5852
78244SOL     OW46456   1.595   7.509   8.730 -0.6475 -0.5493 -0.0399
78244SOL    HW146457   1.628   7.448   8.796  1.5671 -0.4191 -0.9321
78244SOL    HW246458   1.529   7.459   8.681 -0.7582 -1.3398  0.8893
78245SOL     OW46459   5.433   7.544   8.772 -0.6536 -0.1161 -0.2272
78245SOL    HW146460   5.460   7.568   8.861 -0.7422  1.3801 -0.5730
78245SOL    HW246461   5.482   7.605   8.716 -0.5274 -1.1036 -1.2103
78246SOL     OW46462   4.570   8.759  11.695  0.0647 -0.1896  0.3806
78246SOL    HW146463   4.495   8.701  11.707 -0.1991 -0.4776 -2.0151
78246SOL    HW246464   4.641   8.701  11.667 -0.1912  0.5330 -2.0053
78247SOL     OW46465   0.914  10.907  10.119  0.2646  0.4772 -0.0217
78247SOL    HW146466   0.845  10.969  10.143  0.1188  0.1734  0.3560
78247SOL    HW246467   0.868  10.829  10.089  0.4487  0.5754 -0.5752
78248SOL     OW46468   9.086  10.779  12.163 -0.0773 -0.3967  0.1772
78248SOL    HW146469   9.050  10.713  12.222  0.1323 -1.2372 -0.6107
78248SOL    HW246470   9.171  10.800  12.200 -0.6492  0.3613  1.1138
78249SOL     OW46471  11.718   7.719   6.411  0.4770  0.3285  0.8037
78249SOL    HW146472  11.711   7.779   6.485 -1.2580  0.9145  0.2385
78249SOL    HW246473  11.722   7.632   6.450 -1.7314  0.5340  1.6427
78250SOL     OW46474   4.365   5.178  13.720  0.8064  0.3037 -0.4706
78250SOL    HW146475   4.316   5.160  13.640 -0.1046 -1.8823  0.5113
78250SOL    HW246476   4.301   5.218  13.779  0.2090 -2.0927  0.6339
78251SOL     OW46477   6.113  10.426   2.829  0.0627  0.1925  0.2253
78251SOL    HW146478   6.039  10.367   2.817  0.4292 -0.9149  2.8113
78251SOL    HW246479   6.083  10.489   2.894  1.1879  0.0157  0.9481
78252SOL     OW46480   9.838   3.439   6.900  0.2208  0.2219 -0.5020
78252SOL    HW146481   9.745   3.463   6.905 -0.9330 -3.5296 -1.0401
78252SOL    HW246482   9.839   3.356   6.853  3.8752 -0.0678 -0.2063
78253SOL     OW46483   1.420   6.701   7.661 -0.3539 -0.2915  0.1446
78253SOL    HW146484   1.472   6.689   7.740 -0.4600  0.4754  0.3408
78253SOL    HW246485   1.399   6.794   7.660 -1.4156 -0.5195 -0.1307
78254SOL     OW46486  11.422  11.913   3.770  0.0359  0.8538  0.2066
78254SOL    HW146487  11.375  11.952   3.844  0.0663 -0.0251  0.7035
78254SOL    HW246488  11.458  11.832   3.805 -1.2795 -0.3925 -1.1964
78255SOL     OW46489   4.916   1.374   2.095  0.1517 -0.1401  0.1859
78255SOL    HW146490   4.965   1.411   2.167  0.3383 -0.4039  0.1954
78255SOL    HW246491   4.879   1.293   2.130 -2.2936  1.2069  0.9465
78256SOL     OW46492   0.029  12.655   0.475  0.2113 -0.4452  0.3149
78256SOL    HW146493   0.002  12.593   0.543  1.6840 -2.1671 -0.5788
78256SOL    HW246494   0.080  12.602   0.414 -1.1829  0.9775 -2.2598
78257SOL     OW46495   5.491  11.944   7.082  0.5511 -0.5619  0.6697
78257SOL    HW146496   5.440  11.964   7.161 -2.1690 -1.0953 -0.8147
78257SOL    HW246497   5.538  11.864   7.103 -0.5815 -1.0200  1.6104
78258SOL     OW46498   6.930   4.681   8.297 -0.3597 -0.2068  0.5043
78258SOL    HW146499   6.969   4.680   8.209  0.9594 -1.3314  1.0607
78258SOL    HW246500   6.927   4.774   8.320  2.3664 -0.0300  0.5299
78259SOL     OW46501   4.873  12.747  11.124  0.0815  0.3295 -0.3822
78259SOL    HW146502   4.864  12.840  11.143 -1.8132  0.1812 -0.4010
78259SOL    HW246503   4.871  12.741  11.028 -0.2571  0.2197 -0.3663
78260SOL     OW46504  10.669   8.699   6.814  0.0293  0.2770  0.1754
78260SOL    HW146505  10.741   8.637   6.828 -1.4691 -1.5732  0.2004
78260SOL    HW246506  10.597   8.644   6.783 -1.6050  1.9386  0.8563
78261SOL     OW46507   0.231   7.467   6.666  0.0683 -0.0566 -0.2826
78261SOL    HW146508   0.315   7.485   6.625  0.2801  0.1650  0.2404
78261SOL    HW246509   0.168   7.518   6.616  0.3053  0.1014 -0.4178
78262SOL     OW46510   8.684   8.375   9.069  0.3252  0.4789  0.8502
78262SOL    HW146511   8.663   8.306   9.132 -1.1279  1.3122  1.3339
78262SOL    HW246512   8.776   8.395   9.086  0.5643 -0.7905  1.2215
78263SOL     OW46513   3.318   8.778   7.112  0.1232  0.2610 -0.5347
78263SOL    HW146514   3.399   8.758   7.158 -0.1579  1.3973  0.5087
78263SOL    HW246515   3.345   8.805   7.025  0.8644  0.5497 -0.2229
78264SOL     OW46516   1.045   7.625  12.631  0.1374 -0.8868  0.2123
78264SOL    HW146517   1.067   7.562  12.699  1.7060 -0.2059  0.3828
78264SOL    HW246518   1.075   7.709  12.665 -0.4306 -0.2968 -0.6956
78265SOL     OW46519   1.283   5.449   1.243  0.2539  0.4556 -0.2605
78265SOL    HW146520   1.325   5.404   1.170 -1.7432 -0.8412 -0.7049
78265SOL    HW246521   1.332   5.423   1.320  2.2434  1.6301 -1.0465
78266SOL     OW46522   0.948   3.857  11.576  0.1709 -0.0036 -0.3274
78266SOL    HW146523   0.994   3.921  11.521 -1.0191  0.3604 -0.9287
78266SOL    HW246524   0.940   3.780  11.521  0.4501 -0.2235 -0.0638
78267SOL     OW46525   1.783   0.482  12.677 -0.4572  0.0790  0.0322
78267SOL    HW146526   1.733   0.405  12.703 -2.0234  0.9135 -0.3904
78267SOL    HW246527   1.806   0.466  12.585 -0.2393 -0.1505  0.1251
78268SOL     OW46528   2.393   9.213   1.879  0.2915  0.2196 -0.1485
78268SOL    HW146529   2.319   9.189   1.934  0.5867  0.3174  0.2909
78268SOL    HW246530   2.470   9.190   1.931  0.5776 -0.4494 -0.8379
78269SOL     OW46531  10.481   9.089   8.501 -0.8465  0.5797  0.1608
78269SOL    HW146532  10.501   9.150   8.430  0.4191 -0.6754 -0.6218
78269SOL    HW246533  10.476   9.004   8.458  0.6221 -0.3105  1.6224
78270SOL     OW46534   5.686   4.822   9.363  0.1418 -0.3242  0.0467
78270SOL    HW146535   5.726   4.745   9.404  1.1044  0.1674  0.0786
78270SOL    HW246536   5.592   4.812   9.378  0.3839 -0.6140  1.6114
78271SOL     OW46537   8.853   2.012  12.482 -0.7914  0.9425  0.6299
78271SOL    HW146538   8.864   1.917  12.483  2.5745  1.2015  0.1594
78271SOL    HW246539   8.874   2.039  12.572 -0.5522  1.3231  0.4605
78272SOL     OW46540   7.246   7.076   5.795 -0.1266  0.1778 -0.3712
78272SOL    HW146541   7.187   7.145   5.823 -0.0593  0.1385 -0.1314
78272SOL    HW246542   7.243   7.011   5.865  0.3193  0.2479 -0.2812
78273SOL     OW46543  13.451  10.964   5.706 -0.1033 -0.3482 -0.1055
78273SOL    HW146544  13.392  10.930   5.640 -1.4982  2.4481 -0.4146
78273SOL    HW246545  13.421  11.053   5.723  0.6931 -0.6101  3.7080
78274SOL     OW46546   9.890   8.972  10.538 -0.2139 -0.2372 -0.2580
78274SOL    HW146547   9.844   9.056  10.532  1.3224  0.7514  1.0904
78274SOL    HW246548   9.899   8.943  10.448  0.3945  1.7168 -0.8729
78275SOL     OW46549   1.530   1.370   4.120 -0.2047 -0.0116  0.6914
78275SOL    HW146550   1.617   1.359   4.082 -0.1935 -1.3341  1.0492
78275SOL    HW246551   1.478   1.410   4.051 -0.0541 -1.8705 -0.5789
78276SOL     OW46552   0.431   7.156   5.052  0.1066  0.2837 -0.6774
78276SOL    HW146553   0.350   7.116   5.083  1.1901  0.2984  2.5377
78276SOL    HW246554   0.428   7.245   5.086  2.0430 -0.1403  0.7766
78277SOL     OW46555   5.982  10.818   5.136  0.3609  0.0598  0.4158
78277SOL    HW146556   5.973  10.723   5.143  0.9095  0.0773  1.7055
78277SOL    HW246557   5.988  10.835   5.042  1.0525 -1.2578  0.2000
78278SOL     OW46558  13.352   5.956   2.173  0.0183  0.0014  0.0756
78278SOL    HW146559  13.308   6.039   2.156 -0.0436 -0.0310  0.0806
78278SOL    HW246560  13.413   5.946   2.099  0.5513  0.4069  0.4550
78279SOL     OW46561   5.364   4.826  10.029 -0.0587  0.0820 -0.3320
78279SOL    HW146562   5.307   4.895   9.995 -2.5664 -1.1648  1.0028
78279SOL    HW246563   5.339   4.748   9.979  0.2209 -0.5616  0.5143
78280SOL     OW46564  13.355   2.221  10.450  0.3865 -0.1057  0.1808
78280SOL    HW146565  13.314   2.256  10.371  1.3617  0.5920 -0.0386
78280SOL    HW246566  13.359   2.296  10.510  0.7710 -0.3146  0.4224
78281SOL     OW46567   2.868   4.619   7.669  0.1740  0.4969 -0.4070
78281SOL    HW146568   2.799   4.594   7.730  0.1840  2.1868  0.3635
78281SOL    HW246569   2.846   4.709   7.644  1.3924  0.6132 -1.1453
78282SOL     OW46570  10.952   2.853   0.828  0.2621 -0.1828  0.0223
78282SOL    HW146571  10.939   2.903   0.747 -0.1234  1.4787  1.0632
78282SOL    HW246572  11.029   2.893   0.869  1.8119 -2.4283 -0.5168
78283SOL     OW46573   4.971  12.769   1.190 -0.6448 -0.3663 -0.6718
78283SOL    HW146574   5.064  12.781   1.171 -0.9155 -0.4265 -2.1421
78283SOL    HW246575   4.958  12.813   1.274  0.5562  0.2908 -0.8087
78284SOL     OW46576   6.534   6.121   5.690 -0.2202 -0.5104 -0.7191
78284SOL    HW146577   6.471   6.107   5.620 -1.8631  0.1613  0.5651
78284SOL    HW246578   6.487   6.096   5.770  1.8920 -2.1633  0.1062
78285SOL     OW46579   9.685  13.010   6.243  0.1066  0.1344 -0.1128
78285SOL    HW146580   9.652  12.988   6.330  0.5015  1.1904  0.3128
78285SOL    HW246581   9.607  13.033   6.193  0.0445  1.3340  0.5056
78286SOL     OW46582   2.602   1.313   4.593 -0.1813 -0.1301 -0.1805
78286SOL    HW146583   2.663   1.323   4.521 -0.6200 -1.5679 -0.7939
78286SOL    HW246584   2.575   1.403   4.615 -0.5634  0.3203 -2.2633
78287SOL     OW46585   9.109   7.055   2.980 -0.7078  0.3634  0.0586
78287SOL    HW146586   9.162   7.038   3.057 -2.8353 -0.3957  1.4532
78287SOL    HW246587   9.136   7.142   2.950  0.6533  0.3626  1.2139
78288SOL     OW46588  13.442   6.652   7.955 -0.1752 -0.0355 -0.5862
78288SOL    HW146589  13.496   6.638   7.878  0.0877  1.0517 -0.6180
78288SOL    HW246590  13.434   6.747   7.962 -0.4334 -0.1238  0.5648
78289SOL     OW46591   8.408  13.065   9.001  0.0615 -0.2325 -0.1824
78289SOL    HW146592   8.404  13.160   9.006 -0.0679 -0.2414 -0.1122
78289SOL    HW246593   8.338  13.034   9.058 -0.8265 -0.3482 -1.2862
78290SOL     OW46594  12.140   5.705   3.370 -0.0356 -0.1720 -0.0153
78290SOL    HW146595  12.133   5.624   3.318 -1.0516  0.8987 -1.6432
78290SOL    HW246596  12.060   5.752   3.350 -0.6924  0.1258  2.9490
78291SOL     OW46597   3.323   2.673   8.526  0.3050  0.0336  0.1883
78291SOL    HW146598   3.247   2.715   8.567  0.6104 -0.2900  1.1202
78291SOL    HW246599   3.398   2.710   8.572  0.7651  0.7788 -1.1175
78292SOL     OW46600   6.228  12.040  13.533 -0.0835  0.9954 -0.1596
78292SOL    HW146601   6.294  12.012  13.468  0.3759  1.5821  0.0519
78292SOL    HW246602   6.160  11.973  13.527 -0.0768  1.0607 -1.2918
78293SOL     OW46603  12.798  11.473  12.341 -0.9975  0.0706 -0.7165
78293SOL    HW146604  12.876  11.489  12.288 -1.8396  0.0212 -1.9962
78293SOL    HW246605  12.742  11.549  12.327 -0.1669  1.3961  2.2270
78294SOL     OW46606   8.379   7.247   7.380 -0.0202  0.1052 -0.7757
78294SOL    HW146607   8.352   7.302   7.454  0.5414  0.0971 -0.5621
78294SOL    HW246608   8.466   7.278   7.358 -1.2541  2.1093 -3.3659
78295SOL     OW46609   0.104   2.131   0.347  0.1861 -0.5394  0.2453
78295SOL    HW146610   0.073   2.157   0.434 -1.3061 -0.8999 -0.1325
78295SOL    HW246611   0.039   2.066   0.318  0.7710 -0.5727 -1.0507
78296SOL     OW46612   7.783   2.791  11.002  0.0304 -0.2590 -0.4562
78296SOL    HW146613   7.807   2.699  10.994 -0.3761 -0.4881  0.7320
78296SOL    HW246614   7.690   2.793  10.978 -0.2915 -0.3890  0.6939
78297SOL     OW46615   6.695  12.085  12.179  0.0063 -0.0485  0.1352
78297SOL    HW146616   6.726  12.163  12.225  1.2754  0.1843 -1.0511
78297SOL    HW246617   6.662  12.118  12.095 -1.4895 -0.5614  0.4859
78298SOL     OW46618   4.034   2.827  12.643  0.6565 -0.0935  0.1112
78298SOL    HW146619   3.991   2.767  12.583 -0.7040  0.5620  0.3985
78298SOL    HW246620   3.994   2.912  12.625 -0.4686 -0.0259  2.5177
78299SOL     OW46621   5.197   4.027   9.049 -0.1948  0.4963 -0.3991
78299SOL    HW146622   5.120   4.081   9.028 -0.8166  0.5744  1.8849
78299SOL    HW246623   5.163   3.957   9.104  1.5604  1.4244  2.0359
78300SOL     OW46624   1.212   4.343   6.845  0.0390 -0.0222 -0.1508
78300SOL    HW146625   1.201   4.327   6.752 -1.2273  0.4117 -0.0988
78300SOL    HW246626   1.261   4.425   6.850  1.1855 -0.6693 -0.4143
78301SOL     OW46627   5.060  10.501   9.357  0.6087  0.0917  0.3961
78301SOL    HW146628   5.155  10.490   9.350  0.6767  0.1893  1.0763
78301SOL    HW246629   5.047  10.540   9.444 -0.1325 -1.0310  0.8077
78302SOL     OW46630   3.514  11.834   4.801  0.1312 -0.2499  0.5985
78302SOL    HW146631   3.427  11.829   4.840 -0.4582 -0.3799 -0.6850
78302SOL    HW246632   3.529  11.927   4.788 -1.0225 -0.3145 -1.6959
78303SOL     OW46633  12.784  13.074   9.985 -0.0034  0.0183  0.1499
78303SOL    HW146634  12.804  13.018   9.910 -2.1127  2.0104 -2.0948
78303SOL    HW246635  12.731  13.020  10.043  2.5471 -1.9004  0.8937
78304SOL     OW46636  11.009   6.860   0.977  0.3845  0.1724  0.2001
78304SOL    HW146637  11.003   6.944   0.933 -1.1026  0.1186  0.2711
78304SOL    HW246638  11.063   6.806   0.918  2.1421  1.3996  0.5909
78305SOL     OW46639   5.200   4.920   1.917 -0.3707 -0.0318  0.4783
78305SOL    HW146640   5.160   4.994   1.872  2.4267  0.1592 -1.9743
78305SOL    HW246641   5.218   4.856   1.848  3.5092 -0.0149  1.2377
78306SOL     OW46642   5.797  12.611   3.062 -0.2644 -0.0302 -0.6339
78306SOL    HW146643   5.887  12.621   3.095 -0.8420  1.4616  0.6091
78306SOL    HW246644   5.806  12.619   2.967  1.0163 -0.7652 -0.5955
78307SOL     OW46645   0.663   3.191   0.897  0.1033  0.1883 -0.0424
78307SOL    HW146646   0.676   3.211   0.805  0.1677 -0.0729 -0.0904
78307SOL    HW246647   0.661   3.095   0.901 -0.3056  0.2041  0.1704
78308SOL     OW46648   4.768  11.341  10.468 -0.1933  0.8486 -0.3705
78308SOL    HW146649   4.829  11.321  10.397 -0.0603  2.3205 -0.7062
78308SOL    HW246650   4.820  11.332  10.547  0.0153  0.4932 -0.5451
78309SOL     OW46651  11.469   9.830  10.654 -0.0918  0.4827  0.5666
78309SOL    HW146652  11.540   9.839  10.718  1.5238 -0.2396 -1.0515
78309SOL    HW246653  11.511   9.842  10.569 -1.8336 -0.4237 -0.4783
78310SOL     OW46654   8.189   6.367   0.387  0.2620  0.6454 -0.2202
78310SOL    HW146655   8.098   6.354   0.360  0.2025 -0.1578  0.3287
78310SOL    HW246656   8.232   6.283   0.368  0.7324  0.8004  0.1280
78311SOL     OW46657  11.387  13.565   1.533 -0.0365  0.5190  0.2776
78311SOL    HW146658  11.405  13.505   1.606 -1.4826 -1.6380 -1.0361
78311SOL    HW246659  11.293  13.579   1.536  0.0201  1.1821 -0.6374
78312SOL     OW46660   7.608  10.602   4.720  0.5523  0.2088 -0.5325
78312SOL    HW146661   7.525  10.636   4.686 -0.4884 -0.2796  1.3937
78312SOL    HW246662   7.583  10.544   4.792  2.4766 -1.5564 -1.1704
78313SOL     OW46663   4.158  13.299  10.583 -0.3604  0.3732  0.1466
78313SOL    HW146664   4.077  13.297  10.636 -1.1062  2.3426 -0.8036
78313SOL    HW246665   4.141  13.239  10.511 -0.6998  0.2367  0.3373
78314SOL     OW46666   7.754   8.288   2.243  0.2840  0.1847 -0.5593
78314SOL    HW146667   7.822   8.244   2.192  1.2201 -1.4988  1.9670
78314SOL    HW246668   7.688   8.220   2.259  0.1446  0.5810  0.6504
78315SOL     OW46669  12.719   9.201   4.242  0.6696 -0.5110  0.3496
78315SOL    HW146670  12.632   9.160   4.245 -0.7244  2.1325 -0.3830
78315SOL    HW246671  12.732   9.221   4.149  0.6018  1.9014  0.8050
78316SOL     OW46672  10.243   0.605   5.410 -0.0840 -0.8819 -0.3692
78316SOL    HW146673  10.255   0.531   5.469 -0.0483 -1.3872 -1.0040
78316SOL    HW246674  10.331   0.624   5.377 -0.2128 -1.0932 -0.8434
78317SOL     OW46675   4.227   3.821   6.595  0.1691 -0.0992 -0.5114
78317SOL    HW146676   4.135   3.822   6.621  0.4629  1.2337  0.5940
78317SOL    HW246677   4.265   3.898   6.638  2.2000 -1.5902  0.5325
78318SOL     OW46678  13.014   4.881   4.503 -0.7987  0.2391  0.2069
78318SOL    HW146679  13.068   4.943   4.553  0.9409  0.2981 -1.6285
78318SOL    HW246680  13.047   4.795   4.529 -1.7879  0.1272  1.1759
78319SOL     OW46681  13.463   2.879  10.519 -0.1208  0.3713  0.7214
78319SOL    HW146682  13.424   2.823  10.586 -0.3822 -0.3146  0.0149
78319SOL    HW246683  13.438   2.838  10.436  2.8675 -0.6185  0.2087
78320SOL     OW46684  11.420   3.014   1.244 -0.1337 -0.1428 -0.4303
78320SOL    HW146685  11.343   2.957   1.249 -0.0769 -0.2057 -0.2731
78320SOL    HW246686  11.484   2.973   1.302 -0.5433  0.7525  0.6882
78321SOL     OW46687  13.070   7.827   5.896 -0.4291 -0.1924 -0.3397
78321SOL    HW146688  12.976   7.839   5.908 -0.0508  2.1409  0.8620
78321SOL    HW246689  13.103   7.801   5.982  0.6472  4.4432  0.9147
78322SOL     OW46690   5.657   5.796   4.460  0.4674 -0.5441  0.3635
78322SOL    HW146691   5.715   5.796   4.537  2.3536  1.1947 -0.9764
78322SOL    HW246692   5.575   5.836   4.492 -0.0862 -2.9065  2.2479
78323SOL     OW46693   5.263   0.878   1.856 -0.4762  0.0953  0.6320
78323SOL    HW146694   5.208   0.949   1.823  0.7654  0.0813 -1.5853
78323SOL    HW246695   5.284   0.905   1.946 -1.5642  1.6034  0.4758
78324SOL     OW46696   0.127  11.063   9.209  0.0976  0.6703  0.1951
78324SOL    HW146697   0.190  11.073   9.138 -1.1426  0.3160 -0.9900
78324SOL    HW246698   0.073  10.989   9.183  0.0999  0.0287  1.9041
78325SOL     OW46699   1.266  12.107   0.791  0.1328  0.3192  0.0654
78325SOL    HW146700   1.214  12.041   0.745 -1.9472  1.2602  0.9126
78325SOL    HW246701   1.205  12.146   0.854  1.7509  1.8688  0.7755
78326SOL     OW46702   2.830   5.423   8.781 -0.1935  0.1389  0.7284
78326SOL    HW146703   2.892   5.486   8.818  1.2002 -0.8087  0.0578
78326SOL    HW246704   2.812   5.363   8.853 -1.4068  1.1622  1.3249
78327SOL     OW46705   6.473   3.828   7.425  0.0424  0.2837 -0.0410
78327SOL    HW146706   6.414   3.821   7.500 -0.9949 -1.7748 -0.9537
78327SOL    HW246707   6.431   3.893   7.368 -1.4575 -1.2027 -0.7088
78328SOL     OW46708  13.710  12.105  10.647 -0.6338  0.0784 -0.4219
78328SOL    HW146709  13.672  12.169  10.708  1.2233  2.0085 -1.1638
78328SOL    HW246710  13.790  12.075  10.691  0.6587  1.3905 -1.7624
78329SOL     OW46711  13.360   5.618  13.596  0.1133 -0.1279 -0.0173
78329SOL    HW146712  13.285   5.566  13.624  0.6916 -0.2464  1.4134
78329SOL    HW246713  13.432   5.589  13.652  1.1558  0.2352 -1.1022
78330SOL     OW46714  12.603   9.628  11.225  0.4735  0.2277 -0.1135
78330SOL    HW146715  12.688   9.592  11.250 -0.6350 -1.1892  1.9015
78330SOL    HW246716  12.569   9.567  11.159 -0.3909 -1.2470  1.5960
78331SOL     OW46717   1.538   3.685   2.133  0.4946  0.1204  0.1315
78331SOL    HW146718   1.633   3.694   2.128  0.4624 -0.1964 -1.6903
78331SOL    HW246719   1.521   3.592   2.123 -0.0853  0.4167 -2.1125
78332SOL     OW46720   7.687   6.272   5.424  0.0684 -0.0402  0.2776
78332SOL    HW146721   7.743   6.287   5.500 -1.7828  0.8877  1.5498
78332SOL    HW246722   7.652   6.184   5.437  0.4423 -0.2276  0.0216
78333SOL     OW46723  11.058   7.940   4.098 -0.2809 -0.2530  0.3236
78333SOL    HW146724  11.047   7.980   4.011 -0.7984  1.0451  0.9585
78333SOL    HW246725  11.133   7.881   4.088 -0.1890  0.0521 -0.9478
78334SOL     OW46726  10.711  13.144   8.085 -0.5513 -0.9379 -0.4917
78334SOL    HW146727  10.795  13.186   8.070 -1.0678  0.5534  0.6175
78334SOL    HW246728  10.671  13.139   7.998  0.0924 -0.3770 -0.8257
78335SOL     OW46729   1.323  10.154   6.515  0.0928 -0.0041 -0.1634
78335SOL    HW146730   1.380  10.175   6.589  0.8176  1.7259 -1.1478
78335SOL    HW246731   1.240  10.129   6.555  0.6622  0.2403  1.2455
78336SOL     OW46732   4.698  12.944   9.380  0.0122  0.1606  0.4282
78336SOL    HW146733   4.633  12.990   9.434  1.8937 -0.7035  3.7462
78336SOL    HW246734   4.660  12.857   9.365  0.1906 -0.2493  2.1136
78337SOL     OW46735  10.103   2.423   4.367  1.0054 -0.6278  0.2036
78337SOL    HW146736  10.075   2.349   4.313  0.3662 -1.1915  1.2760
78337SOL    HW246737  10.198   2.413   4.373  0.9350 -1.3173  0.2589
78338SOL     OW46738   4.095   8.532  10.444 -0.1997 -0.0212  0.5997
78338SOL    HW146739   4.017   8.584  10.460  0.4673  0.9054  0.9675
78338SOL    HW246740   4.147   8.540  10.524  0.0014 -1.1275  0.5966
78339SOL     OW46741   5.148   9.345   1.333  0.1968  0.1428 -0.3363
78339SOL    HW146742   5.191   9.419   1.288  0.6261  0.5928  0.7666
78339SOL    HW246743   5.221   9.287   1.357  0.0352  0.1528  0.1937
78340SOL     OW46744   3.242   7.985   4.990  0.1587  0.4370  0.1491
78340SOL    HW146745   3.316   7.925   5.000 -1.4853 -1.7781 -0.2642
78340SOL    HW246746   3.268   8.041   4.916  0.7424 -1.4530 -1.1763
78341SOL     OW46747  10.269  11.455   1.559 -0.3648  0.4064 -0.2319
78341SOL    HW146748  10.260  11.483   1.468 -1.0563  2.1794  0.3564
78341SOL    HW246749  10.345  11.396   1.558 -0.0867  0.7404 -1.8686
78342SOL     OW46750   2.971  10.756   2.611  0.0741  0.2858 -0.3118
78342SOL    HW146751   3.044  10.755   2.549  0.2812  0.0280 -0.0630
78342SOL    HW246752   3.001  10.812   2.683  0.8783 -1.5212  0.8157
78343SOL     OW46753  12.442   9.759   9.534 -0.6528  0.7607  0.6395
78343SOL    HW146754  12.411   9.776   9.623 -1.2682  0.1593  0.5506
78343SOL    HW246755  12.493   9.678   9.541 -0.3231  0.9568  0.5244
78344SOL     OW46756   1.286  10.275  12.929  0.4309 -0.0642  0.1119
78344SOL    HW146757   1.267  10.362  12.895  0.5917 -0.0196  0.1373
78344SOL    HW246758   1.300  10.288  13.023 -2.5186 -0.5241  0.7227
78345SOL     OW46759   2.456   0.379   5.610  0.0746  0.3133  0.2808
78345SOL    HW146760   2.517   0.429   5.556  0.5880 -0.3523  0.2407
78345SOL    HW246761   2.383   0.358   5.551 -1.4716  3.2290  0.9230
78346SOL     OW46762   1.007   5.185  12.721 -0.3588  0.1558 -0.4054
78346SOL    HW146763   0.993   5.135  12.641 -2.6951 -0.1324  0.1217
78346SOL    HW246764   0.919   5.206  12.752  0.5154  1.4643  1.3441
78347SOL     OW46765  10.116   2.666   0.263 -0.0025 -0.8175  0.6843
78347SOL    HW146766  10.189   2.727   0.253 -1.4556  0.7300 -1.1185
78347SOL    HW246767  10.102   2.662   0.358  0.3342  1.4219  0.8822
78348SOL     OW46768   7.833  11.420   2.448 -0.1583  0.3156 -0.1252
78348SOL    HW146769   7.895  11.364   2.401  1.7032  3.0022 -1.1412
78348SOL    HW246770   7.755  11.421   2.392  0.0936 -0.5791 -0.5099
78349SOL     OW46771   1.574   6.357   1.908 -0.6820  1.0343  0.2532
78349SOL    HW146772   1.651   6.401   1.872  0.9404 -0.8666  1.1540
78349SOL    HW246773   1.550   6.292   1.842  1.2489 -1.2897  1.6246
78350SOL     OW46774   5.860  12.672  10.058  0.3532  0.5077  0.0979
78350SOL    HW146775   5.862  12.593  10.004 -0.1802  0.2122  0.4904
78350SOL    HW246776   5.766  12.693  10.065  0.4490  0.8031  0.5224
78351SOL     OW46777   6.034   0.559  11.371  0.0353  0.2386 -0.4947
78351SOL    HW146778   6.055   0.502  11.444 -1.0865  0.4630  0.0274
78351SOL    HW246779   6.096   0.632  11.378  0.6263 -0.2608 -0.4130
78352SOL     OW46780  10.780  10.915   5.352 -0.2806 -0.0942  0.3411
78352SOL    HW146781  10.754  10.843   5.409 -0.0390  1.5469  2.6925
78352SOL    HW246782  10.874  10.902   5.338 -0.3548 -0.5459  0.2386
78353SOL     OW46783   1.411   1.159   4.234  0.7959  0.0667  0.2448
78353SOL    HW146784   1.445   1.240   4.196 -0.2582  0.3759 -0.0596
78353SOL    HW246785   1.387   1.183   4.323  0.7952 -0.0015  0.2630
78354SOL     OW46786   8.339   4.107   5.166 -0.1148  0.2306 -0.8054
78354SOL    HW146787   8.299   4.056   5.095  0.9556 -0.7373 -0.7388
78354SOL    HW246788   8.431   4.115   5.140  0.1082  0.5943  0.0800
78355SOL     OW46789   3.530  12.172  11.506 -0.0796  0.0829  0.5215
78355SOL    HW146790   3.572  12.087  11.501 -0.8165 -0.2401 -0.4729
78355SOL    HW246791   3.602  12.234  11.519  0.6110 -0.5439 -0.2480
78356SOL     OW46792  12.505   8.401   8.041 -0.4109 -0.6060  0.4757
78356SOL    HW146793  12.545   8.319   8.012  0.5775 -0.9378  2.5847
78356SOL    HW246794  12.543   8.468   7.984  0.0482 -1.4244 -0.1915
78357SOL     OW46795  10.195  10.312   6.161 -0.0959 -0.1028  0.6336
78357SOL    HW146796  10.117  10.267   6.194  0.0431  0.2768  1.5044
78357SOL    HW246797  10.240  10.247   6.107 -0.2097 -0.8133  1.3819
78358SOL     OW46798   2.034   6.383   2.249 -0.2434  0.5054  0.6359
78358SOL    HW146799   2.116   6.412   2.289 -0.2699 -0.4412  1.3899
78358SOL    HW246800   1.987   6.338   2.319 -0.4855 -0.8048 -0.3267
78359SOL     OW46801   3.067   6.569   7.986 -0.2189  0.1486 -0.0702
78359SOL    HW146802   3.086   6.476   7.995 -1.2563 -0.2889 -2.0369
78359SOL    HW246803   2.989   6.584   8.040 -2.4755 -1.0412 -2.7774
78360SOL     OW46804   6.025   5.306   6.792  0.4166  0.1178 -0.1063
78360SOL    HW146805   5.951   5.305   6.731  0.4763  1.2792 -0.2286
78360SOL    HW246806   5.991   5.351   6.869  1.3069  1.7477 -0.6188
78361SOL     OW46807  13.479  12.738   1.696 -0.0211  0.4142 -0.2067
78361SOL    HW146808  13.554  12.793   1.718  0.1571  0.8767 -1.8147
78361SOL    HW246809  13.428  12.790   1.634 -0.6230 -0.6549 -0.6412
78362SOL     OW46810   8.000   7.812   9.858 -0.2963  0.1150 -0.3373
78362SOL    HW146811   8.006   7.823   9.763  0.4547  1.0343 -0.1988
78362SOL    HW246812   7.957   7.892   9.888 -0.2608 -0.0380  0.1192
78363SOL     OW46813   5.714   3.580   0.580 -0.0982 -0.1551 -0.0197
78363SOL    HW146814   5.790   3.527   0.605  0.4659  1.0449  0.9117
78363SOL    HW246815   5.646   3.555   0.642 -0.3869 -1.0046 -0.6592
78364SOL     OW46816   2.583  11.672   9.199 -0.4956 -0.0368 -0.0855
78364SOL    HW146817   2.599  11.735   9.268 -2.2648  0.9883 -0.5489
78364SOL    HW246818   2.636  11.702   9.125 -0.0291 -0.0820  0.2290
78365SOL     OW46819   2.770   5.768   8.149 -0.1209  0.3200  0.0495
78365SOL    HW146820   2.781   5.689   8.202  2.3941  1.9433  2.1937
78365SOL    HW246821   2.677   5.769   8.128 -0.3721 -2.8550  0.4459
78366SOL     OW46822   1.466   0.157   7.555 -0.4271 -0.3250  0.4636
78366SOL    HW146823   1.466   0.124   7.465  0.1164  1.2898 -0.1690
78366SOL    HW246824   1.378   0.192   7.569 -0.7016 -1.1310  0.7881
78367SOL     OW46825   2.775   9.762   1.460 -0.4154  0.2428  0.5096
78367SOL    HW146826   2.773   9.679   1.508 -1.1987  0.1831  0.3842
78367SOL    HW246827   2.702   9.757   1.398 -0.5287  1.0558  0.5546
78368SOL     OW46828   5.964   6.396  10.117  0.5898 -0.6956  0.0039
78368SOL    HW146829   5.935   6.399  10.208  0.5689  1.0317 -0.0196
78368SOL    HW246830   5.960   6.487  10.088  2.7264 -0.8780 -1.0577
78369SOL     OW46831  10.825   4.920  12.095 -0.5248  0.1345  0.0099
78369SOL    HW146832  10.782   4.896  12.012  0.3150  0.3074 -0.4858
78369SOL    HW246833  10.913   4.947  12.069  0.0958 -0.8035  1.0888
78370SOL     OW46834   6.315  12.990   1.264 -0.3943  0.3148  0.1709
78370SOL    HW146835   6.269  12.945   1.194 -0.2840  1.3598 -0.6060
78370SOL    HW246836   6.405  12.961   1.257 -0.4498  0.1635  0.0965
78371SOL     OW46837   0.167   3.532  10.876 -0.3378 -0.5769  0.3355
78371SOL    HW146838   0.096   3.594  10.859 -0.2782 -0.7141 -0.4467
78371SOL    HW246839   0.214   3.569  10.952 -0.6393  0.0347  0.2289
78372SOL     OW46840  13.009  13.307   3.054 -0.5888  0.4277  0.1951
78372SOL    HW146841  13.043  13.328   3.140 -1.2183  1.5396  0.1882
78372SOL    HW246842  13.046  13.221   3.034 -0.1722  0.3035  1.4218
78373SOL     OW46843   5.284   2.870   0.525 -0.2693  0.3241  0.0074
78373SOL    HW146844   5.317   2.954   0.492 -0.1329  0.1128 -0.4014
78373SOL    HW246845   5.357   2.832   0.573  0.5048 -0.6562 -1.8319
78374SOL     OW46846   9.846   6.397   6.434 -0.2170  0.1042  0.0993
78374SOL    HW146847   9.894   6.447   6.369 -1.7883 -0.9928 -2.0556
78374SOL    HW246848   9.913   6.356   6.489  1.1810  0.6595 -1.1613
78375SOL     OW46849   0.910  12.474   6.036  0.1073 -0.0524 -0.4034
78375SOL    HW146850   0.897  12.415   5.962 -1.7556 -3.4337  2.3101
78375SOL    HW246851   0.825  12.518   6.046 -0.0121 -0.4653  0.3938
78376SOL     OW46852   2.258   2.842   7.762  0.1107 -0.0278 -0.6904
78376SOL    HW146853   2.264   2.937   7.771  0.0191 -0.0458 -0.4616
78376SOL    HW246854   2.178   2.817   7.807  0.5020 -0.2966 -0.1255
78377SOL     OW46855   1.675  13.015   5.158  0.0990  0.3630  0.1560
78377SOL    HW146856   1.702  13.107   5.165 -0.7818  0.6093  0.4157
78377SOL    HW246857   1.650  13.004   5.066 -0.1407  0.4825  0.2068
78378SOL     OW46858  12.622   7.389   2.649 -0.4328 -0.5678  0.4671
78378SOL    HW146859  12.683   7.449   2.692  1.6677 -2.2279  0.0313
78378SOL    HW246860  12.544   7.441   2.632  1.4756  2.2446 -0.5073
78379SOL     OW46861   9.437   0.036  10.020 -0.4595  0.4066 -0.4399
78379SOL    HW146862   9.407  -0.030   9.958  0.6708  0.8825 -1.5421
78379SOL    HW246863   9.492   0.095   9.968  1.0422  0.4749  1.1098
78380SOL     OW46864   6.790  12.806  10.005 -0.2171  0.1254  0.0370
78380SOL    HW146865   6.792  12.825   9.911  2.0549 -1.2780 -0.2457
78380SOL    HW246866   6.697  12.810  10.027 -0.7855  0.8346 -2.1837
78381SOL     OW46867   9.020   9.135   8.348  0.3603 -0.1417  0.1213
78381SOL    HW146868   8.980   9.218   8.321 -1.2367 -0.9071  0.0434
78381SOL    HW246869   8.981   9.115   8.433  0.9520 -0.6684  0.2794
78382SOL     OW46870   2.097   5.192   8.157 -0.2532  0.3622  0.1040
78382SOL    HW146871   2.130   5.225   8.074 -0.4180  0.1733 -0.0379
78382SOL    HW246872   2.003   5.209   8.154 -0.2197  0.6098  0.3718
78383SOL     OW46873   5.047  11.000  11.431  0.3746  0.4747  0.0167
78383SOL    HW146874   4.996  11.000  11.511  0.7509  0.6551  0.2588
78383SOL    HW246875   5.014  11.075  11.380  0.2809  0.4862  0.0960
78384SOL     OW46876   8.300   7.755   2.074 -0.0436  0.4911 -0.0914
78384SOL    HW146877   8.299   7.671   2.028 -0.7559  0.4559 -0.0235
78384SOL    HW246878   8.220   7.799   2.046 -0.6008  0.3867  1.2492
78385SOL     OW46879   9.029   5.225   3.338 -0.2106  0.1809 -0.2041
78385SOL    HW146880   9.101   5.203   3.397 -1.0836 -0.9104  0.4785
78385SOL    HW246881   9.073   5.262   3.260  1.0739 -0.3750  0.2271
78386SOL     OW46882  12.272  11.239   9.773  0.0400 -0.1567 -0.1818
78386SOL    HW146883  12.234  11.284   9.697 -0.8701 -0.1904  0.2343
78386SOL    HW246884  12.361  11.274   9.780 -0.7457  1.8867  0.3389
78387SOL     OW46885  10.224   2.643   9.989 -0.1603 -0.0364  0.0235
78387SOL    HW146886  10.259   2.658  10.077  1.0982  1.1275 -0.6423
78387SOL    HW246887  10.138   2.604  10.004 -0.0530  0.3112  1.7670
78388SOL     OW46888   9.440   4.659   3.594  0.0518 -0.3002  0.3816
78388SOL    HW146889   9.448   4.623   3.506 -1.4423  0.6822 -0.2073
78388SOL    HW246890   9.438   4.754   3.581 -1.2225 -0.1610  1.3387
78389SOL     OW46891  11.669   6.430   3.039 -0.4130 -0.0472 -0.0909
78389SOL    HW146892  11.583   6.433   2.997 -0.5987  0.2825  0.3009
78389SOL    HW246893  11.710   6.351   3.005 -0.2832  0.5687 -1.4305
78390SOL     OW46894   6.148   8.420  11.317  0.1024  0.1567  0.0263
78390SOL    HW146895   6.179   8.409  11.227  1.7661  1.4256  0.4026
78390SOL    HW246896   6.068   8.472  11.308 -1.0295 -1.6299 -0.8304
78391SOL     OW46897  10.756   1.706   2.590 -0.2359 -0.3443  0.6056
78391SOL    HW146898  10.846   1.683   2.611 -0.4238 -0.3353  1.4719
78391SOL    HW246899  10.761   1.798   2.562  0.1071 -0.5349  0.0415
78392SOL     OW46900   6.131   8.640  12.267  0.2259 -0.5815 -0.3397
78392SOL    HW146901   6.180   8.559  12.251  1.8894  0.5689 -1.3832
78392SOL    HW246902   6.164   8.672  12.351 -1.8300 -1.8848  1.0765
78393SOL     OW46903   5.373  11.605   5.917  0.1756 -0.0192  0.0647
78393SOL    HW146904   5.383  11.669   5.988  0.3043 -1.4856  1.4444
78393SOL    HW246905   5.406  11.523   5.955  2.0962 -0.4760 -2.3446
78394SOL     OW46906  11.768  10.395  12.573  0.0958  0.3868  0.2253
78394SOL    HW146907  11.801  10.307  12.590  1.6348  1.0092  0.6698
78394SOL    HW246908  11.721  10.388  12.490 -1.8987 -1.3431  1.3997
78395SOL     OW46909   9.678   9.615   8.056  1.0584  0.2689 -0.6484
78395SOL    HW146910   9.675   9.710   8.060  1.0679  0.2447  0.1437
78395SOL    HW246911   9.667   9.587   8.147  0.3672 -0.5079 -0.9613
78396SOL     OW46912   4.200   9.492   2.616 -0.2448  0.4349  0.1695
78396SOL    HW146913   4.112   9.481   2.651  0.9122 -1.5042  2.7485
78396SOL    HW246914   4.237   9.404   2.613  0.8380  0.8600 -3.2949
78397SOL     OW46915  13.018   3.048  13.163  0.4600  0.1198  0.1721
78397SOL    HW146916  13.059   2.982  13.218  0.5447  0.5542  0.6332
78397SOL    HW246917  13.051   3.030  13.075 -0.2718 -1.0589  0.1177
78398SOL     OW46918   1.525   2.460   2.582  0.0320  0.0284  0.7639
78398SOL    HW146919   1.466   2.526   2.618 -0.6081 -0.3006  0.3283
78398SOL    HW246920   1.472   2.381   2.576  0.4744 -0.2323  0.2211
78399SOL     OW46921   3.589  11.410  10.393 -0.1307 -0.4309  0.1915
78399SOL    HW146922   3.617  11.348  10.325 -1.6246  2.4618 -3.4453
78399SOL    HW246923   3.505  11.376  10.424 -0.8701 -0.4005 -1.6537
78400SOL     OW46924   9.117   7.430   0.938  0.1369 -0.2720  0.0571
78400SOL    HW146925   9.041   7.488   0.950 -0.0533 -0.9320  2.7059
78400SOL    HW246926   9.193   7.489   0.944 -0.0929 -0.0689  1.2169
78401SOL     OW46927   9.084   3.957   9.695 -0.8646  0.0887 -0.5131
78401SOL    HW146928   8.988   3.954   9.694 -0.8735  0.4670 -1.0406
78401SOL    HW246929   9.105   4.050   9.702 -0.5310  0.0003 -0.2959
78402SOL     OW46930  10.565  10.042   5.075 -0.2987 -0.6558 -0.3416
78402SOL    HW146931  10.633  10.108   5.084  0.6227 -1.7111  1.0493
78402SOL    HW246932  10.548  10.013   5.165 -1.7604 -1.2422 -0.7697
78403SOL     OW46933  11.798   5.555   6.795 -0.3386 -0.5926 -0.0309
78403SOL    HW146934  11.731   5.499   6.755 -0.5217 -0.4771  0.1127
78403SOL    HW246935  11.772   5.644   6.772  1.7054 -0.6310 -3.0641
78404SOL     OW46936  11.717  13.433   2.410 -0.1900  0.2737  0.1216
78404SOL    HW146937  11.787  13.487   2.374  0.3207 -0.5507 -0.1596
78404SOL    HW246938  11.753  13.397   2.491 -0.3057 -0.0965  0.0121
78405SOL     OW46939   7.923   3.289  11.063 -0.4980  0.2488 -0.3367
78405SOL    HW146940   7.924   3.210  11.008 -0.5878 -1.0399  1.4097
78405SOL    HW246941   7.830   3.302  11.083 -0.3722 -0.0210  0.4646
78406SOL     OW46942  13.237   8.505   7.586  0.4537  0.9403 -0.2707
78406SOL    HW146943  13.248   8.411   7.600 -0.6187  0.9968  1.0726
78406SOL    HW246944  13.172   8.512   7.516  0.3185  0.6905 -0.1692
78407SOL     OW46945   8.001   3.396  12.155 -0.0430  0.5798  0.5656
78407SOL    HW146946   7.974   3.447  12.079  0.4374 -0.4022 -0.2826
78407SOL    HW246947   7.955   3.312  12.146  1.2864 -0.1626  0.4507
78408SOL     OW46948   0.167   9.031  11.829  0.3646 -0.0162 -0.1785
78408SOL    HW146949   0.106   8.966  11.865  0.6268 -0.7105 -0.9503
78408SOL    HW246950   0.211   9.068  11.905  0.6643 -1.2127  0.2465
78409SOL     OW46951  13.527   3.430   6.162  0.1462  0.2311  0.1442
78409SOL    HW146952  13.584   3.496   6.202 -0.5011  2.0594 -1.8092
78409SOL    HW246953  13.579   3.350   6.162  1.8092  1.2775  0.5235
78410SOL     OW46954  10.438   8.693   2.311  0.2787 -0.6359 -0.4215
78410SOL    HW146955  10.459   8.701   2.404  0.7743  0.0146 -0.5778
78410SOL    HW246956  10.395   8.776   2.290 -0.2760 -0.9780 -0.6679
78411SOL     OW46957  12.641   8.269   2.207  0.3890  0.5485  0.2974
78411SOL    HW146958  12.589   8.231   2.135 -0.5719 -0.5824  1.5419
78411SOL    HW246959  12.637   8.364   2.191 -1.1481  0.4230 -0.2898
78412SOL     OW46960  12.359   1.983  11.868  0.5350  0.1074  0.2757
78412SOL    HW146961  12.398   1.933  11.939  0.7537 -0.2883 -0.1177
78412SOL    HW246962  12.425   1.983  11.799 -0.2623 -0.8531 -0.5223
78413SOL     OW46963   8.352  12.978   4.742  0.1695  0.3311 -0.2134
78413SOL    HW146964   8.435  12.951   4.781 -0.0403 -0.4202 -0.2725
78413SOL    HW246965   8.296  12.901   4.748 -0.2754  0.5941 -0.8597
78414SOL     OW46966   9.701  12.539   5.234 -0.0301 -0.5106  0.1215
78414SOL    HW146967   9.678  12.618   5.185 -0.2529  0.2366  1.3951
78414SOL    HW246968   9.796  12.542   5.240  0.1037 -1.2806 -1.3442
78415SOL     OW46969   2.016   7.795   0.947  0.5308 -0.5291  0.0325
78415SOL    HW146970   1.989   7.868   1.003  1.6650 -0.0820  0.0315
78415SOL    HW246971   2.043   7.727   1.009 -0.9323 -1.1379  0.0403
78416SOL     OW46972   6.405  10.783   4.342 -0.0851 -0.2311  0.1266
78416SOL    HW146973   6.405  10.866   4.296 -1.0427  0.5564  1.4791
78416SOL    HW246974   6.497  10.768   4.365  0.2600 -0.1522 -1.1260
78417SOL     OW46975   6.309   8.196   5.655  0.3664 -0.6147  1.2852
78417SOL    HW146976   6.218   8.168   5.666  1.1913 -3.9885  0.7581
78417SOL    HW246977   6.308   8.248   5.575 -0.6704 -4.1718 -1.3106
78418SOL     OW46978   3.000  11.448   0.946 -0.4031 -0.0745 -0.3196
78418SOL    HW146979   3.044  11.499   0.879 -0.2422  1.3212  0.7947
78418SOL    HW246980   3.066  11.435   1.014 -0.6002 -1.3283 -0.3399
78419SOL     OW46981   9.290  10.463   3.800  0.7216 -0.0486 -0.4842
78419SOL    HW146982   9.385  10.466   3.790  0.6013  0.4262 -1.6212
78419SOL    HW246983   9.259  10.543   3.758 -0.1398  0.1831  0.5510
78420SOL     OW46984   2.734   3.637   5.267 -0.0381  0.1684 -0.3615
78420SOL    HW146985   2.754   3.552   5.227  2.2594  0.6249 -0.3174
78420SOL    HW246986   2.802   3.649   5.333  0.2730  2.4639 -1.0022
78421SOL     OW46987   9.583   9.984   0.929 -0.3314  0.5821 -0.5458
78421SOL    HW146988   9.600   9.921   0.859 -0.4298  1.5629 -1.4864
78421SOL    HW246989   9.489   9.978   0.945  0.0799 -1.6723  1.5449
78422SOL     OW46990   8.675   9.385   1.125 -0.8022  0.4515  0.4998
78422SOL    HW146991   8.770   9.384   1.118 -0.8038 -0.5624  0.5878
78422SOL    HW246992   8.657   9.455   1.188 -0.1383  0.8995  0.2032
78423SOL     OW46993  11.486   0.166  12.416  0.1880  0.4050 -0.1728
78423SOL    HW146994  11.400   0.198  12.387  0.5540  2.1668  0.5207
78423SOL    HW246995  11.535   0.149  12.336 -0.4004  0.5700 -0.5724
78424SOL     OW46996  13.147   9.954   6.754  0.2281  0.3289  0.6161
78424SOL    HW146997  13.205  10.020   6.790  2.5353 -0.9735 -0.5291
78424SOL    HW246998  13.144   9.885   6.820 -0.2867  0.5088  0.7917
78425SOL     OW46999  11.934  13.626  13.467 -0.1745  0.6147  0.3888
78425SOL    HW147000  11.924  13.705  13.414 -0.0507  0.4549  0.1200
78425SOL    HW247001  11.940  13.555  13.402  1.2214  0.5463  0.5671
78426SOL     OW47002   0.534   8.063   1.616  0.4165 -0.1979  0.3604
78426SOL    HW147003   0.465   8.103   1.669 -0.3918 -0.2369 -0.6193
78426SOL    HW247004   0.500   7.976   1.594 -0.1630  0.4750 -1.7409
78427SOL     OW47005   6.853  11.486   1.415  0.0844  0.6127 -0.3762
78427SOL    HW147006   6.905  11.422   1.464 -1.0113  0.3213  0.4567
78427SOL    HW247007   6.858  11.566   1.466 -0.0482  0.6659 -0.4461
78428SOL     OW47008   9.330   5.503   2.901  0.0729  0.3889  0.4595
78428SOL    HW147009   9.348   5.464   2.987  0.5400 -1.0221 -0.2315
78428SOL    HW247010   9.235   5.514   2.898 -0.1492 -1.2896  0.4780
78429SOL     OW47011   2.718   5.461   5.878  0.2980 -0.3483  0.2227
78429SOL    HW147012   2.625   5.479   5.860  0.3232  0.0312  0.4687
78429SOL    HW247013   2.763   5.542   5.854  0.5488 -0.4888  0.2256
78430SOL     OW47014   8.996   9.900   4.697 -0.6725  0.0610  0.4718
78430SOL    HW147015   8.960   9.845   4.627 -0.7609  0.1288  0.4634
78430SOL    HW247016   8.952   9.984   4.686 -0.5923  0.1109  0.5304
78431SOL     OW47017  13.108   0.726   7.521 -0.1294  0.3458  0.3898
78431SOL    HW147018  13.174   0.732   7.591 -0.8700  1.4860  1.0233
78431SOL    HW247019  13.040   0.669   7.558 -0.0409  0.1110  0.1907
78432SOL     OW47020   0.017  12.779   1.526 -0.4491  0.3678  0.4276
78432SOL    HW147021   0.058  12.866   1.524  2.8797 -0.9947 -2.9136
78432SOL    HW247022  -0.067  12.792   1.483  0.7761  1.7115 -1.7524
78433SOL     OW47023   6.357   1.961   9.582 -0.5320 -0.0739  0.5775
78433SOL    HW147024   6.416   2.033   9.560 -0.4878 -0.3338 -0.1654
78433SOL    HW247025   6.281   2.003   9.621 -0.5693  0.3917  0.0106
78434SOL     OW47026   4.667   2.716   6.834 -0.4931  0.6798 -0.1758
78434SOL    HW147027   4.572   2.714   6.847 -0.4082  1.3462  0.6057
78434SOL    HW247028   4.678   2.731   6.740 -1.1815  1.7638 -0.1038
78435SOL     OW47029   9.687   3.343   0.709 -0.3925 -0.3870 -0.1035
78435SOL    HW147030   9.742   3.384   0.643  1.6818 -1.6425  0.7520
78435SOL    HW247031   9.667   3.412   0.771  0.1345  0.1100 -0.4818
78436SOL     OW47032  10.852   2.876  10.307 -0.5597  0.1184 -0.1951
78436SOL    HW147033  10.764   2.908  10.290 -0.7641  0.0121  0.6605
78436SOL    HW247034  10.908   2.926  10.247 -1.1794  0.2517 -0.6675
78437SOL     OW47035   2.453  12.692   5.419  0.4813  0.5575  0.5822
78437SOL    HW147036   2.412  12.763   5.368  0.2581 -0.5575 -0.8619
78437SOL    HW247037   2.546  12.714   5.420  0.3093  1.3031  0.8662
78438SOL     OW47038  10.018  10.212  13.551 -0.0935 -0.4923 -0.0067
78438SOL    HW147039  10.071  10.144  13.592 -0.9061 -1.3304 -0.3020
78438SOL    HW247040   9.993  10.175  13.466  1.0033  0.9451 -0.9957
78439SOL     OW47041   6.713   3.226   9.164  0.2319  0.2851 -0.2645
78439SOL    HW147042   6.789   3.169   9.172  1.4078  1.8175  0.1634
78439SOL    HW247043   6.658   3.185   9.098  0.1219 -2.2533  1.2827
78440SOL     OW47044   2.828   0.610   8.835 -0.1501  0.4198  0.1713
78440SOL    HW147045   2.891   0.644   8.899  0.6208  0.1015 -0.3987
78440SOL    HW247046   2.882   0.575   8.764 -0.9956  1.1546 -0.8645
78441SOL     OW47047   8.320  11.301   5.358 -0.0112 -0.0121 -0.0647
78441SOL    HW147048   8.229  11.272   5.363 -0.5211  1.5459  0.2359
78441SOL    HW247049   8.345  11.287   5.267 -1.5078  2.1836 -0.8762
78442SOL     OW47050   0.544   9.104  13.147 -0.0747 -0.4335  0.1082
78442SOL    HW147051   0.481   9.039  13.116 -0.0922 -0.5273  0.3387
78442SOL    HW247052   0.593   9.129  13.068 -1.1789  0.5094 -0.3223
78443SOL     OW47053   2.305   0.053   7.019  0.4542  0.2222  0.4219
78443SOL    HW147054   2.343   0.058   6.931 -2.3391 -0.5413 -0.9222
78443SOL    HW247055   2.282   0.144   7.040  0.1911  0.2746 -0.0828
78444SOL     OW47056   4.691   0.208  13.504 -0.0810  0.0600  0.5217
78444SOL    HW147057   4.745   0.254  13.568 -0.3859  0.3953  0.5392
78444SOL    HW247058   4.606   0.253  13.506 -0.3277 -0.3862  0.4093
78445SOL     OW47059   7.743   8.254   3.281 -0.0111  0.2404  0.3780
78445SOL    HW147060   7.714   8.277   3.193 -1.6638 -0.8562  0.5800
78445SOL    HW247061   7.691   8.176   3.303 -0.7057  1.3120  2.8580
78446SOL     OW47062   3.941   2.516   7.254 -0.0291  0.5872  0.4778
78446SOL    HW147063   3.997   2.524   7.177  2.0469  0.7060  1.9156
78446SOL    HW247064   3.894   2.599   7.259  0.7896  1.0834  0.0562
78447SOL     OW47065   8.693   6.240   3.485 -0.3290 -0.3186 -0.0713
78447SOL    HW147066   8.617   6.188   3.457  0.1740 -0.4802 -1.2027
78447SOL    HW247067   8.675   6.328   3.451 -1.0884  0.2542  1.6742
78448SOL     OW47068  11.670   6.521   6.437 -0.2197 -0.1923  0.2196
78448SOL    HW147069  11.576   6.536   6.424  0.2773  1.7173 -2.0126
78448SOL    HW247070  11.687   6.437   6.393 -0.8420 -0.4510  0.4591
78449SOL     OW47071   8.743   0.697  10.529 -0.6131 -0.2423 -0.8686
78449SOL    HW147072   8.771   0.651  10.450 -1.1818  0.2870 -1.4016
78449SOL    HW247073   8.648   0.708  10.517 -0.4392  1.4584 -0.9963
78450SOL     OW47074   2.708   8.135   8.004 -0.0670  0.0893 -0.0491
78450SOL    HW147075   2.699   8.040   7.994 -0.8955  0.3380 -2.3427
78450SOL    HW247076   2.617   8.167   8.002  0.2034  0.9324  0.7420
78451SOL     OW47077   8.246  11.412   1.642  0.0377  0.1704 -0.1794
78451SOL    HW147078   8.259  11.505   1.661 -0.0591  0.2422 -0.4607
78451SOL    HW247079   8.154  11.406   1.615 -0.0662 -0.0672  0.2051
78452SOL     OW47080  13.540  12.541  10.875  0.0378  0.1491  0.4100
78452SOL    HW147081  13.617  12.584  10.839  0.1753  0.1539  0.7012
78452SOL    HW247082  13.517  12.594  10.952  0.4247 -0.4947  0.9822
78453SOL     OW47083   9.109   8.166   6.634 -0.4628 -0.1376  0.0546
78453SOL    HW147084   9.128   8.125   6.718  0.5363 -2.3405 -1.1553
78453SOL    HW247085   9.061   8.245   6.656  0.0806 -0.4579  2.6988
78454SOL     OW47086   1.300   9.937   0.108 -0.1018  0.4868  0.5349
78454SOL    HW147087   1.377   9.893   0.071 -0.5345 -0.4878  0.7483
78454SOL    HW247088   1.241   9.865   0.132 -1.8718  1.2546 -1.3131
78455SOL     OW47089  11.069  12.947   4.952  0.0959  0.1251  0.2735
78455SOL    HW147090  11.109  12.871   4.910 -0.6370  0.2688 -0.7053
78455SOL    HW247091  11.143  12.995   4.990  0.5041 -1.4776  1.6522
78456SOL     OW47092   1.938   2.695   4.342 -0.1844  0.0058  0.4561
78456SOL    HW147093   1.992   2.637   4.290 -1.3607 -0.3120 -0.4418
78456SOL    HW247094   1.896   2.638   4.407 -1.5112 -0.2277 -0.5649
78457SOL     OW47095   5.759   1.446   6.678 -0.3522 -0.1531  0.2877
78457SOL    HW147096   5.687   1.390   6.649 -0.6602  0.1836  0.3965
78457SOL    HW247097   5.716   1.527   6.706  0.1355  0.3017 -0.2827
78458SOL     OW47098   1.843   7.489   6.993  0.8297  0.6209  0.0040
78458SOL    HW147099   1.749   7.491   6.975  0.9717 -0.4008 -0.8879
78458SOL    HW247100   1.851   7.526   7.081 -0.4851 -0.0183  0.4134
78459SOL     OW47101  11.450   3.661   4.205 -0.3167  0.9884 -0.4016
78459SOL    HW147102  11.390   3.644   4.277 -0.8427  0.0917 -1.0321
78459SOL    HW247103  11.428   3.750   4.177 -0.4700  1.1426  0.2002
78460SOL     OW47104  13.549   4.879   5.362  0.3368  0.3072  0.3622
78460SOL    HW147105  13.596   4.959   5.384 -1.0828  1.1802  0.3285
78460SOL    HW247106  13.509   4.850   5.444  1.3385 -0.7381  0.5120
78461SOL     OW47107  11.371   7.795   0.030  0.1955 -0.1927  0.2213
78461SOL    HW147108  11.308   7.731   0.062 -0.5416  0.9820  1.2113
78461SOL    HW247109  11.375   7.780  -0.065 -0.4489 -1.2425  0.3452
78462SOL     OW47110   9.261  11.430   3.385  0.7137 -0.1471 -0.4151
78462SOL    HW147111   9.194  11.406   3.449  0.6500  1.2623  0.0844
78462SOL    HW247112   9.317  11.353   3.378  0.4709 -0.4829  1.0343
78463SOL     OW47113   2.789   6.363  11.261  0.1012  0.3456  0.4006
78463SOL    HW147114   2.847   6.379  11.186  0.3254 -0.5717  0.3705
78463SOL    HW247115   2.770   6.270  11.258 -0.0742  0.3377  1.3640
78464SOL     OW47116   0.508   7.800   0.426  0.7809  0.3513 -0.6154
78464SOL    HW147117   0.415   7.815   0.443  1.3530  2.8612  0.7834
78464SOL    HW247118   0.525   7.846   0.345  0.7381 -0.5301 -1.1393
78465SOL     OW47119   6.601   4.504   1.835  0.2417 -0.1495 -0.3192
78465SOL    HW147120   6.613   4.442   1.908 -0.2639 -0.7270 -0.7176
78465SOL    HW247121   6.537   4.567   1.868  0.7460  0.1589  0.0838
78466SOL     OW47122   2.249   6.546   1.940 -0.7641  0.0191 -0.0841
78466SOL    HW147123   2.281   6.462   1.972  3.6096  1.0477 -0.9658
78466SOL    HW247124   2.266   6.544   1.846 -1.0239  1.6870 -0.2037
78467SOL     OW47125  13.343   3.813   1.231  0.2682 -0.1324  0.1026
78467SOL    HW147126  13.375   3.858   1.153  2.0930 -2.2670 -0.4729
78467SOL    HW247127  13.251   3.840   1.238  0.9305  2.6924 -0.8153
78468SOL     OW47128   1.325  11.483   0.270  0.1019  0.4741 -0.3320
78468SOL    HW147129   1.271  11.553   0.306 -0.4240  0.0086 -0.1991
78468SOL    HW247130   1.412  11.497   0.309 -0.0719  0.8744 -0.0825
78469SOL     OW47131   8.873   8.579   9.196  0.0229 -0.2929 -0.0548
78469SOL    HW147132   8.791   8.615   9.164  0.4062  2.0080  1.3134
78469SOL    HW247133   8.911   8.533   9.121 -1.1731  1.0302 -1.5247
78470SOL     OW47134   5.541  12.774   9.643  0.4193  0.4857  0.3500
78470SOL    HW147135   5.534  12.715   9.568 -0.1643  1.9867 -0.8137
78470SOL    HW247136   5.635  12.785   9.656  0.5344 -0.4522  0.4131
78471SOL     OW47137   0.903  10.116   8.073 -0.0584  0.0790 -0.4883
78471SOL    HW147138   0.936  10.027   8.086 -1.3453 -0.4693 -0.7558
78471SOL    HW247139   0.907  10.156   8.160 -0.0631 -0.4646 -0.2372
78472SOL     OW47140   3.325   2.213   1.172  0.2996 -0.1763 -0.2993
78472SOL    HW147141   3.255   2.277   1.155  0.9726  0.2215 -1.6632
78472SOL    HW247142   3.281   2.128   1.164  0.2870  0.0090 -2.9727
78473SOL     OW47143   6.655  10.151   7.928 -0.6649  0.4822  0.5698
78473SOL    HW147144   6.739  10.116   7.896 -1.6163 -0.8093 -0.6132
78473SOL    HW247145   6.618  10.080   7.980 -0.8231  1.2404  1.5340
78474SOL     OW47146   5.965  12.416   9.435 -0.0650 -0.1922 -0.1103
78474SOL    HW147147   5.921  12.384   9.356 -1.3336  2.8063 -0.7450
78474SOL    HW247148   6.017  12.491   9.405  0.0650  0.5232  1.7756
78475SOL     OW47149   0.899   0.169  11.772  0.6103  0.0689 -0.3393
78475SOL    HW147150   0.896   0.147  11.865 -1.5126  0.7618 -0.1852
78475SOL    HW247151   0.989   0.150  11.745  1.2073 -0.3444  1.7931
78476SOL     OW47152   5.620   9.094  13.442 -0.3750  0.4440 -0.5202
78476SOL    HW147153   5.610   9.159  13.511  1.2564  1.2869 -1.0319
78476SOL    HW247154   5.532   9.056  13.433 -0.9827  1.3922  0.9253
78477SOL     OW47155   0.701   4.253  12.320 -0.0338 -0.1455 -0.4385
78477SOL    HW147156   0.719   4.307  12.243 -1.6586  0.0177 -0.7330
78477SOL    HW247157   0.681   4.317  12.389  2.2695 -0.2479  0.4148
78478SOL     OW47158  13.192   3.524   6.521  0.0475 -0.1580  0.7072
78478SOL    HW147159  13.222   3.493   6.436 -0.9231 -1.7303  0.8961
78478SOL    HW247160  13.169   3.616   6.507  0.0926 -0.3373 -0.6635
78479SOL     OW47161   2.331   6.004   0.021  0.2505  0.4929  0.5548
78479SOL    HW147162   2.341   6.012   0.116 -0.0283  1.9986  0.4738
78479SOL    HW247163   2.240   5.980   0.008  0.2714  0.3535  0.6607
78480SOL     OW47164  12.359   9.564  13.104  0.1859  0.0111  0.1367
78480SOL    HW147165  12.442   9.612  13.110 -0.3342  1.1310 -1.1412
78480SOL    HW247166  12.355   9.535  13.013 -0.9882  0.2982  0.0792
78481SOL     OW47167   5.164   0.303   1.848 -0.0129 -0.0896 -0.1876
78481SOL    HW147168   5.119   0.260   1.920  0.9514  0.7115  0.9392
78481SOL    HW247169   5.094   0.343   1.796 -0.8578 -2.2950 -0.8319
78482SOL     OW47170   1.290   0.689   9.812 -0.0621 -0.5614  0.4174
78482SOL    HW147171   1.197   0.705   9.795  0.0454 -0.3526  0.0068
78482SOL    HW247172   1.298   0.594   9.819  0.0444 -0.7419 -1.7061
78483SOL     OW47173  10.980  12.114  12.857 -0.8854  0.1861 -0.0829
78483SOL    HW147174  11.040  12.135  12.929 -1.1428  0.6602  0.0015
78483SOL    HW247175  10.900  12.161  12.880 -1.4921 -0.9162  0.1175
78484SOL     OW47176   7.639   4.528   2.140  0.0242  0.3452  0.1565
78484SOL    HW147177   7.574   4.588   2.176  0.4555  0.1054  1.3853
78484SOL    HW247178   7.610   4.442   2.169 -0.9025 -0.1762 -2.0587
78485SOL     OW47179  10.756   9.827   0.904 -0.4207  0.1570  0.1868
78485SOL    HW147180  10.823   9.895   0.900 -1.4927  1.2115 -0.8349
78485SOL    HW247181  10.784   9.768   0.974  1.4322  0.6836 -0.0718
78486SOL     OW47182   4.795   5.649   6.596  0.1907  0.2568  0.1300
78486SOL    HW147183   4.771   5.651   6.503 -0.6933  0.9058  0.3622
78486SOL    HW247184   4.828   5.560   6.610  2.3352  0.7586 -1.2741
78487SOL     OW47185  11.217  13.500  10.632 -0.6403 -0.3067  0.4689
78487SOL    HW147186  11.293  13.443  10.638  1.5061  2.3600  0.6071
78487SOL    HW247187  11.163  13.477  10.708  0.0424 -2.1859  0.4267
78488SOL     OW47188   8.783   0.176  12.918 -0.3376 -0.1719 -0.3833
78488SOL    HW147189   8.777   0.261  12.961  0.3910 -0.9366  1.3070
78488SOL    HW247190   8.864   0.181  12.867 -1.3265  0.8210 -1.9413
78489SOL     OW47191   8.217   8.767   4.938 -0.4042  0.6625  0.1522
78489SOL    HW147192   8.287   8.733   4.994  0.0487 -0.2713 -0.9460
78489SOL    HW247193   8.137   8.735   4.978 -0.1514  0.9066  0.8647
78490SOL     OW47194   0.646   4.646  12.864  0.0920  0.3843 -0.0411
78490SOL    HW147195   0.741   4.645  12.876  0.0691 -2.4209  0.5751
78490SOL    HW247196   0.611   4.657  12.952 -0.1571  0.2578 -0.1235
78491SOL     OW47197   5.857   8.605  10.220  0.5486 -0.8379  0.3758
78491SOL    HW147198   5.836   8.516  10.248 -0.2837 -0.8000 -0.0797
78491SOL    HW247199   5.946   8.621  10.252  0.9262 -2.0434 -0.0437
78492SOL     OW47200   3.370   2.155  12.798  0.2148  0.0314  0.2415
78492SOL    HW147201   3.337   2.131  12.885  0.7106 -2.7673 -0.2426
78492SOL    HW247202   3.463   2.172  12.812 -0.0806  1.5626  0.5364
78493SOL     OW47203   7.432   0.067   1.288  0.4017 -0.2740  0.2802
78493SOL    HW147204   7.348   0.113   1.295  0.5574  0.7009 -2.8759
78493SOL    HW247205   7.410  -0.025   1.302 -1.4560 -0.1747 -1.4690
78494SOL     OW47206  10.768   1.604   6.541  0.2325 -0.0907  0.3818
78494SOL    HW147207  10.691   1.554   6.568  0.6852 -0.7297  0.5346
78494SOL    HW247208  10.761   1.609   6.446 -0.9279  1.4370  0.5141
78495SOL     OW47209   6.560   5.055   6.965  0.2678  0.0411 -0.3467
78495SOL    HW147210   6.500   5.116   6.922 -0.3457 -1.1947 -1.3021
78495SOL    HW247211   6.544   5.067   7.058  0.6484  1.8093 -0.4766
78496SOL     OW47212   5.383   9.267   5.990  0.3243 -0.6633  0.8274
78496SOL    HW147213   5.325   9.290   6.063 -0.5599  0.8320 -0.2994
78496SOL    HW247214   5.429   9.348   5.970  0.5914 -1.0737 -0.2550
78497SOL     OW47215  12.405   9.067   2.393 -0.1852  0.0326  0.4513
78497SOL    HW147216  12.453   8.986   2.382 -0.6833 -0.2173  0.0413
78497SOL    HW247217  12.361   9.058   2.478  0.2812  0.1593  0.7117
78498SOL     OW47218   7.117   2.783  12.226 -0.2528 -0.8661  0.1340
78498SOL    HW147219   7.115   2.752  12.317 -3.0509 -0.1472  0.4062
78498SOL    HW247220   7.191   2.845  12.223 -0.5261 -0.3800  2.1174
78499SOL     OW47221  10.913   1.420   1.565 -0.2854  0.2996  0.0353
78499SOL    HW147222  10.971   1.426   1.489 -0.1106  1.7203  0.2547
78499SOL    HW247223  10.837   1.474   1.541 -0.7850 -0.2307  0.3972
78500SOL     OW47224   2.356   2.422  12.103  0.1612  0.4650  0.3680
78500SOL    HW147225   2.351   2.333  12.066  0.9189  0.3997  0.4171
78500SOL    HW247226   2.303   2.417  12.183 -0.5346  0.3002 -0.0959
78501SOL     OW47227   1.852  13.621  10.709  0.4003 -0.2449  0.6646
78501SOL    HW147228   1.923  13.674  10.744  0.2052  0.2263  0.3654
78501SOL    HW247229   1.777  13.681  10.706  0.5852 -0.0392 -1.2408
78502SOL     OW47230   9.989   1.752   1.118 -0.4735 -0.5234  0.0774
78502SOL    HW147231  10.057   1.707   1.167  0.6014 -0.4497 -1.2868
78502SOL    HW247232  10.025   1.762   1.030 -2.2690 -0.5206 -0.7080
78503SOL     OW47233   5.430   5.295   8.780  0.5767  0.2384  0.0212
78503SOL    HW147234   5.405   5.223   8.839  0.4696 -1.6040 -2.1173
78503SOL    HW247235   5.525   5.286   8.771  0.6215  0.6486  0.0946
78504SOL     OW47236  11.737   5.950   7.439  0.4600 -0.5914 -0.3089
78504SOL    HW147237  11.770   5.890   7.373  1.7847  0.5137 -0.7100
78504SOL    HW247238  11.779   6.034   7.418 -2.7829  1.0266 -0.9685
78505SOL     OW47239   0.629   3.944   0.695 -0.6335 -0.7941  0.0375
78505SOL    HW147240   0.639   3.935   0.600 -1.7110 -0.6803 -0.1061
78505SOL    HW247241   0.635   3.855   0.729 -1.1375 -0.9367 -0.2398
78506SOL     OW47242   0.827   4.440  12.103  0.2826  0.3786 -0.0029
78506SOL    HW147243   0.857   4.396  12.023  0.1384 -0.7471  0.5419
78506SOL    HW247244   0.774   4.513  12.071  0.4026  0.0784 -0.9418
78507SOL     OW47245   0.726   7.129   7.997  0.2272 -0.3506 -0.7346
78507SOL    HW147246   0.682   7.198   7.948 -1.5522 -1.1951 -0.3977
78507SOL    HW247247   0.734   7.057   7.935 -0.5623 -0.8467 -0.2835
78508SOL     OW47248   2.858   0.617  13.661  0.1606 -0.2012  0.1378
78508SOL    HW147249   2.835   0.691  13.717  0.3997  0.9147 -1.1889
78508SOL    HW247250   2.781   0.602  13.607 -0.1949 -1.4952  0.9497
78509SOL     OW47251   6.406   6.715   5.314  0.2454  0.1363  0.1662
78509SOL    HW147252   6.427   6.642   5.373  0.5135  1.4134  1.7390
78509SOL    HW247253   6.491   6.755   5.295 -0.0031  0.6758  0.1938
78510SOL     OW47254   7.306   2.216  11.063 -0.0504 -0.3501 -0.0632
78510SOL    HW147255   7.310   2.168  10.980 -1.9454  0.9280 -0.9969
78510SOL    HW247256   7.351   2.299  11.044  0.1229 -0.3360  0.4113
78511SOL     OW47257   3.538  13.126   8.020 -0.0846 -0.3204 -0.3554
78511SOL    HW147258   3.453  13.133   8.063 -0.2081  0.7091 -0.7426
78511SOL    HW247259   3.558  13.215   7.991  0.7629 -0.6954 -0.9665
78512SOL     OW47260  11.163   4.535   6.717  0.2941 -0.0720 -0.3170
78512SOL    HW147261  11.159   4.628   6.697 -1.4972 -0.4456 -2.0436
78512SOL    HW247262  11.072   4.506   6.715  0.6960 -1.6637  1.4007
78513SOL     OW47263   6.429   7.826  12.704  0.1330  0.6459  0.0796
78513SOL    HW147264   6.412   7.766  12.777 -0.0638  1.7676  0.9855
78513SOL    HW247265   6.342   7.856  12.677  0.2583  1.0124  0.0705
78514SOL     OW47266   7.303   6.932  11.271 -0.8460 -0.1704 -0.2472
78514SOL    HW147267   7.334   6.975  11.351 -2.0081 -0.6206  0.4629
78514SOL    HW247268   7.372   6.950  11.206 -0.0998  0.5779  0.7223
78515SOL     OW47269   6.755  10.233  10.103 -0.0069 -0.5959  0.4045
78515SOL    HW147270   6.798  10.160  10.060 -0.8087 -2.1945  2.2093
78515SOL    HW247271   6.664  10.229  10.071 -0.3278 -1.0958  1.3686
78516SOL     OW47272   2.661   8.179   7.136  0.2762  0.0844 -0.4798
78516SOL    HW147273   2.698   8.092   7.150 -1.2988 -0.5260  0.1306
78516SOL    HW247274   2.614   8.198   7.217 -1.2000  0.5691 -1.4130
78517SOL     OW47275  11.043  13.223   1.571  0.0778  0.2724 -0.3687
78517SOL    HW147276  10.951  13.224   1.595  0.1641 -0.2006 -0.0095
78517SOL    HW247277  11.054  13.299   1.513 -0.1107  1.5757  1.2253
78518SOL     OW47278  11.918  11.784   5.876 -0.2811  0.0578 -0.2066
78518SOL    HW147279  11.953  11.853   5.820 -0.6636  0.6404  0.2633
78518SOL    HW247280  11.996  11.739   5.909 -0.0336  0.1763 -0.6243
78519SOL     OW47281   6.270   6.917  11.025  0.7271  0.2852 -0.1941
78519SOL    HW147282   6.250   6.871  10.943  0.4250  0.2456 -0.1009
78519SOL    HW247283   6.247   6.854  11.093  1.6858  0.0339 -0.0830
78520SOL     OW47284   2.776   1.095  10.801  0.7054  0.6593 -0.2714
78520SOL    HW147285   2.840   1.110  10.732  1.0452 -3.1143 -0.9779
78520SOL    HW247286   2.779   1.001  10.816 -1.1306  1.0073  3.2223
78521SOL     OW47287  10.639  10.496   0.011 -0.3234 -0.0323  0.3460
78521SOL    HW147288  10.620  10.583  -0.025  0.1946 -0.2170 -0.3841
78521SOL    HW247289  10.697  10.455  -0.053  1.9349  0.2213  2.1036
78522SOL     OW47290   2.025   7.650  12.394 -0.0385  0.6317  0.3728
78522SOL    HW147291   2.021   7.736  12.434  0.8475  0.4222  0.9335
78522SOL    HW247292   2.092   7.603  12.443 -0.1175 -0.1951 -0.2775
78523SOL     OW47293  12.312   3.540   5.814  1.0369 -0.0688  0.6706
78523SOL    HW147294  12.371   3.476   5.855  0.8595 -0.7709 -0.1378
78523SOL    HW247295  12.363   3.579   5.744  0.7691 -0.1678  0.4186
78524SOL     OW47296  12.723  11.027  11.976  0.9195 -0.0674  0.1815
78524SOL    HW147297  12.671  11.082  11.917 -0.0069 -0.0264  1.0035
78524SOL    HW247298  12.799  11.081  11.999  1.2001 -0.0127 -0.8053
78525SOL     OW47299   4.792   3.696  12.643  0.5928  0.4307  0.2567
78525SOL    HW147300   4.847   3.774  12.654  0.7964  0.3943 -0.4364
78525SOL    HW247301   4.712   3.715  12.692  1.6550  0.0316  2.2477
78526SOL     OW47302  10.254   6.161   8.764  0.0083  0.0714  0.2313
78526SOL    HW147303  10.316   6.219   8.809 -0.2513  0.0314  0.6438
78526SOL    HW247304  10.188   6.221   8.728 -0.1188  0.0525  0.4343
78527SOL     OW47305   6.527  10.483   3.670  0.2144 -0.5003 -0.1750
78527SOL    HW147306   6.590  10.545   3.709 -0.0487 -0.5266  0.3070
78527SOL    HW247307   6.533  10.499   3.576  1.4843 -1.0241 -0.2035
78528SOL     OW47308   0.049  13.010  12.249  0.8129 -0.6511 -0.5423
78528SOL    HW147309   0.020  12.985  12.161  0.2519 -1.4215 -0.1546
78528SOL    HW247310   0.055  13.105  12.246 -0.1586 -0.5919 -1.1342
78529SOL     OW47311   2.778  10.810  11.009 -0.1717 -0.4563 -0.0551
78529SOL    HW147312   2.791  10.863  11.087 -1.5471 -0.6251  0.3154
78529SOL    HW247313   2.684  10.817  10.990  0.4484  1.5845 -3.1400
78530SOL     OW47314  11.471   2.814  11.764 -0.5921 -0.1157 -0.3414
78530SOL    HW147315  11.545   2.871  11.745 -0.4818 -0.2031 -0.1743
78530SOL    HW247316  11.501   2.727  11.738  0.1904 -0.5420  1.7747
78531SOL     OW47317   6.491   6.144   2.990  0.0774  0.4563 -0.1011
78531SOL    HW147318   6.464   6.230   3.023 -1.2359 -0.1011  0.3546
78531SOL    HW247319   6.410   6.094   2.986  0.3735  0.0398 -2.8670
78532SOL     OW47320   7.217   0.463   2.970 -0.1840  0.1705 -0.1678
78532SOL    HW147321   7.177   0.401   2.908 -0.2421  2.3053 -2.4164
78532SOL    HW247322   7.153   0.471   3.041 -1.8722  0.3888 -1.6522
78533SOL     OW47323   6.603  12.866   2.731 -0.2489 -0.2760  0.0514
78533SOL    HW147324   6.619  12.849   2.824 -1.4556 -0.3766  0.2485
78533SOL    HW247325   6.600  12.779   2.691 -1.6247 -0.3305  0.2478
78534SOL     OW47326   8.767  13.164   3.318  0.2421  0.4386  0.2877
78534SOL    HW147327   8.712  13.235   3.285  1.5053  2.4406  2.2101
78534SOL    HW247328   8.836  13.155   3.252 -0.2810  0.5458 -0.2830
78535SOL     OW47329  12.921   0.313   4.815 -0.1875 -0.0359  0.7615
78535SOL    HW147330  12.853   0.248   4.800 -0.5206  0.6158 -0.7156
78535SOL    HW247331  13.000   0.274   4.779  0.1594 -0.5903  2.0457
78536SOL     OW47332  12.383   2.258   1.344  0.2926 -0.5216 -0.3000
78536SOL    HW147333  12.467   2.287   1.378  0.0409 -1.9009  1.6700
78536SOL    HW247334  12.322   2.270   1.417 -1.4942  1.3390 -1.9614
78537SOL     OW47335  11.423  11.240   5.662 -0.0591 -0.1513  0.6074
78537SOL    HW147336  11.484  11.178   5.702  0.4436  0.1320  0.3041
78537SOL    HW247337  11.380  11.190   5.592  0.2053 -0.2150  0.4874
78538SOL     OW47338   6.386   8.223  10.831 -0.5935  0.0104 -0.0663
78538SOL    HW147339   6.390   8.244  10.737  1.1701 -0.9783 -0.2729
78538SOL    HW247340   6.478   8.222  10.858 -0.9735 -1.4530  1.2672
78539SOL     OW47341   1.168   0.992  11.147 -0.1460  0.3241 -0.4932
78539SOL    HW147342   1.227   0.922  11.177 -1.2193 -0.8858 -1.1146
78539SOL    HW247343   1.224   1.051  11.098  0.4447 -1.2961 -1.8843
78540SOL     OW47344   8.931   5.907   6.898 -0.3182  0.1311  0.0996
78540SOL    HW147345   9.005   5.890   6.839  1.1414 -0.2053  1.9126
78540SOL    HW247346   8.866   5.840   6.875 -0.0822  0.4182 -1.5175
78541SOL     OW47347   8.937   9.811   1.732 -0.8413  0.0717 -0.0932
78541SOL    HW147348   8.949   9.895   1.688 -0.7297  0.1533  0.0917
78541SOL    HW247349   8.975   9.824   1.820  0.0227 -0.4520 -0.3761
78542SOL     OW47350   9.836   6.178   2.309 -0.2196  0.0074 -0.0253
78542SOL    HW147351   9.921   6.205   2.343 -0.9517 -1.0015  3.0024
78542SOL    HW247352   9.829   6.086   2.335 -1.4860 -0.4912 -1.9294
78543SOL     OW47353  11.276   3.484   2.194  0.1180 -0.4137 -0.4322
78543SOL    HW147354  11.295   3.405   2.145  0.9755 -0.5339  0.0794
78543SOL    HW247355  11.202   3.461   2.250  0.6286 -0.9908  0.0176
78544SOL     OW47356   8.974   5.556   3.548  0.4012 -0.1817  0.2835
78544SOL    HW147357   9.026   5.477   3.564 -0.9012 -1.1133  0.1637
78544SOL    HW247358   8.921   5.566   3.627  0.1364  0.2317  0.0565
78545SOL     OW47359  10.381   2.228   6.216 -0.3127 -0.1381  0.0467
78545SOL    HW147360  10.365   2.291   6.286  1.2575 -1.2483  1.4792
78545SOL    HW247361  10.380   2.281   6.136  0.0291  1.5530  1.1022
78546SOL     OW47362   8.655   8.314   8.266 -0.1112  0.2796 -0.8548
78546SOL    HW147363   8.671   8.338   8.357  0.0883  0.7215 -1.0061
78546SOL    HW247364   8.608   8.230   8.271 -1.9694  1.3058 -0.2921
78547SOL     OW47365  13.698  12.081  11.525 -0.4016  0.2742 -0.1295
78547SOL    HW147366  13.684  11.998  11.479 -0.4320  0.1859  0.0402
78547SOL    HW247367  13.792  12.084  11.541 -0.3723  0.3684 -0.3175
78548SOL     OW47368   1.285   4.179  10.746 -0.4294  0.1619 -0.3574
78548SOL    HW147369   1.238   4.263  10.742 -1.0644 -0.1916 -0.4794
78548SOL    HW247370   1.217   4.115  10.768  0.3172 -0.1085  1.3294
78549SOL     OW47371   7.436   8.448  11.626  0.8847 -0.5655  0.2451
78549SOL    HW147372   7.341   8.439  11.613  0.4303  1.6940  1.4164
78549SOL    HW247373   7.461   8.519  11.568  1.8704 -1.1113 -0.0069
78550SOL     OW47374  12.814   9.433  10.756  0.4001 -0.3252 -0.0386
78550SOL    HW147375  12.833   9.527  10.753  0.8025 -0.3755  0.7775
78550SOL    HW247376  12.882   9.392  10.702  0.1881 -0.1532 -0.4447
78551SOL     OW47377   9.161   6.165   3.165  0.0566  0.4779 -0.3022
78551SOL    HW147378   9.221   6.239   3.159 -0.0201  0.6375  0.6629
78551SOL    HW247379   9.199   6.108   3.232 -1.4779  1.2004  1.2579
78552SOL     OW47380   9.061   9.570   2.769  0.2700  0.2200 -0.3668
78552SOL    HW147381   9.017   9.625   2.833 -2.2922 -0.1613 -1.6800
78552SOL    HW247382   9.138   9.535   2.815  0.2169  2.3483  1.4543
78553SOL     OW47383  13.730   2.655   5.852 -0.1090 -0.2169 -0.0034
78553SOL    HW147384  13.658   2.716   5.867  0.1365  0.1942 -0.4814
78553SOL    HW247385  13.689   2.569   5.853 -0.2385 -0.2020  2.2843
78554SOL     OW47386   8.439   0.141   2.977 -0.4699  0.2815  0.3604
78554SOL    HW147387   8.417   0.134   3.070  1.7151  0.2834  0.9188
78554SOL    HW247388   8.382   0.211   2.944 -1.7780 -0.1933  1.5002
78555SOL     OW47389   5.739  13.130   5.223  0.0042 -0.3451 -0.1312
78555SOL    HW147390   5.697  13.198   5.275 -0.8041 -0.0603 -1.1323
78555SOL    HW247391   5.669  13.067   5.204 -0.5809  1.0989 -3.4517
78556SOL     OW47392  12.447  13.643   6.172 -0.0049  0.1306 -0.3590
78556SOL    HW147393  12.389  13.568   6.189 -2.1080  1.1033 -2.6851
78556SOL    HW247394  12.418  13.710   6.233  2.9946 -1.2509  2.9594
78557SOL     OW47395  10.566  10.846   2.038  0.8433 -0.4336  0.2490
78557SOL    HW147396  10.475  10.861   2.062  0.8936 -0.9441  0.7904
78557SOL    HW247397  10.616  10.899   2.101  0.9450 -0.9202  0.5842
78558SOL     OW47398   3.402   8.748   5.876 -1.0014 -0.2304  0.5784
78558SOL    HW147399   3.338   8.696   5.926 -0.7813  0.3518  1.4736
78558SOL    HW247400   3.480   8.750   5.931 -0.8402  0.6406  0.3325
78559SOL     OW47401   0.772   4.002  10.765  0.3384 -0.3600 -0.2138
78559SOL    HW147402   0.712   4.064  10.725  0.2482 -1.3364 -1.6787
78559SOL    HW247403   0.848   4.055  10.790 -0.1015  0.4787 -0.6208
78560SOL     OW47404   7.415   7.244   7.920  0.2147  0.2047 -0.2155
78560SOL    HW147405   7.438   7.215   8.009  1.2873  1.6784  0.0233
78560SOL    HW247406   7.347   7.310   7.934  0.5912  0.6480 -0.4584
78561SOL     OW47407  10.546   1.251  11.102 -0.5605  0.1378  0.0463
78561SOL    HW147408  10.590   1.166  11.112 -1.4293 -0.4066 -0.6033
78561SOL    HW247409  10.595   1.310  11.159  0.2429 -0.7306  0.2869
78562SOL     OW47410  11.772  13.054  10.898  0.1508 -0.6763 -0.4594
78562SOL    HW147411  11.762  12.959  10.898 -0.0896 -0.7237 -3.3348
78562SOL    HW247412  11.684  13.088  10.912  0.2963 -0.8267  0.9737
78563SOL     OW47413   8.806  13.734   9.377 -0.0728 -0.2682 -0.3040
78563SOL    HW147414   8.720  13.735   9.418  0.7134 -0.3409  1.4190
78563SOL    HW247415   8.849  13.657   9.414  1.2611  0.6009  0.0319
78564SOL     OW47416   7.294   8.379   9.741 -0.4508  0.1502  0.0392
78564SOL    HW147417   7.336   8.361   9.658 -1.7123  1.5720 -0.9744
78564SOL    HW247418   7.242   8.301   9.761  0.4052 -0.4689 -0.1346
78565SOL     OW47419   4.843  12.743   8.950 -0.5566  0.0941  0.0306
78565SOL    HW147420   4.879  12.662   8.985 -0.7390  0.2936  0.6889
78565SOL    HW247421   4.810  12.719   8.863 -0.6851 -0.5528  0.2548
78566SOL     OW47422  12.945  12.490  11.778  0.0423  0.0975  0.0356
78566SOL    HW147423  12.872  12.544  11.751 -0.4514 -0.7309 -0.3166
78566SOL    HW247424  12.945  12.416  11.717  1.2579  0.1502 -0.0626
78567SOL     OW47425  11.468   1.230   5.820 -0.1614  0.7712  0.1342
78567SOL    HW147426  11.414   1.157   5.789  0.7700 -0.1915  0.7391
78567SOL    HW247427  11.405   1.294   5.852 -1.0808  0.9967 -1.9508
78568SOL     OW47428   5.050   2.715   4.467 -0.2754  0.3273 -0.1485
78568SOL    HW147429   5.011   2.629   4.481 -1.5708  0.8593 -0.4323
78568SOL    HW247430   4.995   2.757   4.401  0.8162  1.0777 -0.6189
78569SOL     OW47431   6.819  10.707   0.098  0.2661 -0.8198  0.3782
78569SOL    HW147432   6.777  10.622   0.087 -0.4441 -0.3003 -1.2555
78569SOL    HW247433   6.844  10.733   0.010 -2.1283  1.9018  0.3316
78570SOL     OW47434   5.608   5.456   2.167  0.7206 -0.2455 -0.2004
78570SOL    HW147435   5.639   5.504   2.244 -2.5464  0.1137  1.0770
78570SOL    HW247436   5.557   5.383   2.203 -1.1628  0.0965 -1.9580
78571SOL     OW47437  13.465   3.262   0.357  0.3386  0.2815 -0.0266
78571SOL    HW147438  13.450   3.301   0.271  0.9914 -0.1004 -0.3257
78571SOL    HW247439  13.484   3.170   0.338 -1.6218 -0.3298  0.6881
78572SOL     OW47440   3.899   3.053   5.194  0.1683 -0.2540 -0.1480
78572SOL    HW147441   3.846   3.133   5.195  0.5157 -0.0123 -0.6967
78572SOL    HW247442   3.835   2.982   5.186 -0.5729 -0.4055  4.4774
78573SOL     OW47443  11.652   0.671   2.148 -0.5497  0.1091 -0.0067
78573SOL    HW147444  11.727   0.705   2.196 -0.5124  0.6864 -0.4667
78573SOL    HW247445  11.655   0.576   2.162  1.1469 -0.0705 -1.2220
78574SOL     OW47446   6.302  11.996   4.431 -0.6559 -0.0765 -0.0328
78574SOL    HW147447   6.315  11.912   4.475 -1.2154  0.0994  0.4890
78574SOL    HW247448   6.314  11.977   4.338 -3.3311 -1.3237 -0.2132
78575SOL     OW47449  11.775   2.919  12.548 -0.1271 -0.5120 -0.1293
78575SOL    HW147450  11.865   2.951  12.558  0.2885 -1.1843 -1.4633
78575SOL    HW247451  11.729   2.992  12.507 -0.1114 -0.2769  0.2692
78576SOL     OW47452   3.077   9.045   6.942  0.5997  0.2111  0.4622
78576SOL    HW147453   3.057   8.972   7.001  1.7175 -0.0071  0.5878
78576SOL    HW247454   3.114   9.003   6.864  0.8138  0.6181  0.3412
78577SOL     OW47455   5.223   3.621   4.536 -0.4702 -0.7265  0.2034
78577SOL    HW147456   5.269   3.593   4.457 -2.7011 -1.7815 -0.8333
78577SOL    HW247457   5.164   3.690   4.506 -0.7311 -0.5417  1.1101
78578SOL     OW47458   4.746   8.542   7.952 -0.8026 -0.6642 -0.3262
78578SOL    HW147459   4.735   8.593   7.873  2.9915 -2.2649 -2.1371
78578SOL    HW247460   4.762   8.607   8.021  0.0813  0.6756 -1.7461
78579SOL     OW47461  13.368  12.203   6.133 -0.4062 -0.1100  0.5875
78579SOL    HW147462  13.454  12.224   6.170 -0.4792 -0.5515  1.0298
78579SOL    HW247463  13.309  12.269   6.170 -0.1023  0.7617 -0.4501
78580SOL     OW47464   0.797   4.262   6.090 -0.0271 -0.3469 -0.1225
78580SOL    HW147465   0.805   4.288   6.182  3.1140 -0.1907 -0.3346
78580SOL    HW247466   0.870   4.305   6.046 -1.5498 -0.2504 -2.7902
78581SOL     OW47467   0.147   9.967   1.115 -0.0602  0.2400  0.3716
78581SOL    HW147468   0.104   9.958   1.199  1.3666  1.8241  1.3376
78581SOL    HW247469   0.120  10.053   1.083 -0.8993 -0.5010 -1.0178
78582SOL     OW47470  10.094   8.346   8.971  0.5486  0.8350  1.0511
78582SOL    HW147471  10.160   8.290   8.931  1.2974  2.1937  0.3132
78582SOL    HW247472  10.135   8.380   9.050  0.1012  0.3591  1.4925
78583SOL     OW47473   5.833  10.816  11.034  0.0075 -0.2048 -0.0577
78583SOL    HW147474   5.804  10.775  10.952 -2.7862  1.7746 -0.2098
78583SOL    HW247475   5.811  10.751  11.102  0.3410 -0.9803 -0.6737
78584SOL     OW47476   9.724  11.184  11.384  0.0646  0.3482 -0.2909
78584SOL    HW147477   9.665  11.259  11.388  0.2870  0.5150 -0.0896
78584SOL    HW247478   9.810  11.222  11.366  0.4677  0.3015  1.3575
78585SOL     OW47479   7.044  10.088   2.381 -0.6006 -0.1578 -0.4726
78585SOL    HW147480   6.977  10.028   2.349 -0.7051 -0.2846 -0.0297
78585SOL    HW247481   7.056  10.151   2.311 -2.2397  0.7316  0.0234
78586SOL     OW47482   8.504   4.408   0.052 -0.3194 -0.0868 -0.3829
78586SOL    HW147483   8.487   4.320   0.017  0.0448  0.5998 -2.4379
78586SOL    HW247484   8.524   4.393   0.144 -2.5652 -1.8901 -0.0974
78587SOL     OW47485   8.671  10.516  11.703  0.0554 -0.4619 -0.0193
78587SOL    HW147486   8.761  10.532  11.733 -0.0572 -0.0317  0.1041
78587SOL    HW247487   8.677  10.436  11.652  1.0827  1.0452 -2.4478
78588SOL     OW47488   1.328   1.453   6.619  1.0467  0.2526 -0.3974
78588SOL    HW147489   1.287   1.492   6.542  1.5695  0.7335 -0.4326
78588SOL    HW247490   1.380   1.380   6.585  0.3047 -0.3006 -0.3626
78589SOL     OW47491  12.988  10.583  13.256 -0.2730 -0.1441  0.2191
78589SOL    HW147492  12.945  10.500  13.280 -2.1191  0.3451 -1.1415
78589SOL    HW247493  13.032  10.611  13.336 -1.6653 -1.2202  1.4283
78590SOL     OW47494  10.165   3.511   8.184 -0.4233  0.4340  0.0019
78590SOL    HW147495  10.215   3.436   8.153 -2.6378 -0.6558 -1.1231
78590SOL    HW247496  10.169   3.506   8.279 -1.3655 -1.7333 -0.0313
78591SOL     OW47497   1.914  11.579  12.119  0.2364 -0.1391 -0.3255
78591SOL    HW147498   1.845  11.518  12.148 -0.2715  0.6439  0.1582
78591SOL    HW247499   1.982  11.571  12.186 -0.6234  1.1334  0.7561
78592SOL     OW47500   9.087   5.792   3.463 -0.2286  0.2339 -0.4074
78592SOL    HW147501   9.048   5.706   3.472 -0.8143  0.4204 -1.0925
78592SOL    HW247502   9.100   5.822   3.553  0.5254 -0.7977 -0.1567
78593SOL     OW47503   3.204   5.130   6.109  0.1639 -0.2600  0.4316
78593SOL    HW147504   3.146   5.183   6.055  0.5819  0.4801  0.6970
78593SOL    HW247505   3.258   5.082   6.046  0.3908  0.3097  0.1826
78594SOL     OW47506   9.667   0.844   4.356  0.1838  0.4568 -0.3782
78594SOL    HW147507   9.695   0.857   4.266 -0.3722  0.1170 -0.6021
78594SOL    HW247508   9.586   0.895   4.363  0.0063  0.1454 -0.1845
78595SOL     OW47509  10.915   2.449  10.647 -0.4706 -0.0564 -0.1603
78595SOL    HW147510  10.954   2.384  10.705 -0.3594 -0.2144 -0.4126
78595SOL    HW247511  10.983   2.468  10.583 -0.1371  1.0586  0.4980
78596SOL     OW47512   9.538   1.879   3.565  0.3129 -0.3590 -0.4891
78596SOL    HW147513   9.512   1.788   3.580  1.8657 -0.6910  0.4007
78596SOL    HW247514   9.500   1.927   3.639  1.1341 -0.6351  0.1287
78597SOL     OW47515  10.595   4.214   0.380 -0.0946 -0.1868 -0.8112
78597SOL    HW147516  10.577   4.190   0.471  1.1849  1.1553 -0.1520
78597SOL    HW247517  10.665   4.155   0.353  0.2212  0.0758 -0.5760
78598SOL     OW47518  10.453   7.817   3.736  0.4275  0.0983 -0.3332
78598SOL    HW147519  10.451   7.912   3.728  1.3272  0.1162 -0.4111
78598SOL    HW247520  10.449   7.801   3.831  1.2939  0.2565 -0.2595
78599SOL     OW47521   8.850  10.108   7.496  0.2160  0.5329  0.6412
78599SOL    HW147522   8.829  10.017   7.474  0.4742  0.7385 -0.5074
78599SOL    HW247523   8.945  10.113   7.488  0.0243  1.6121 -2.3625
78600SOL     OW47524   7.226   9.452   1.341  0.1522 -0.6150  0.1654
78600SOL    HW147525   7.157   9.499   1.388  0.7712  0.8944 -0.3464
78600SOL    HW247526   7.300   9.513   1.341  1.0336 -1.6515 -0.4669
78601SOL     OW47527  12.052   5.538   5.119 -0.0576 -0.2502  0.4867
78601SOL    HW147528  12.029   5.561   5.029 -0.8620 -0.6019  0.5928
78601SOL    HW247529  12.023   5.448   5.129  0.2275 -0.2868  1.0351
78602SOL     OW47530   4.232   8.788   3.767 -0.1445 -0.6029 -0.1941
78602SOL    HW147531   4.222   8.857   3.833 -1.3555  1.1091 -2.0286
78602SOL    HW247532   4.194   8.711   3.807  0.2116  0.0581  1.5229
78603SOL     OW47533  10.334   1.699   0.586 -0.3569 -0.0046  0.3509
78603SOL    HW147534  10.409   1.668   0.535  0.1262  0.0644  0.9907
78603SOL    HW247535  10.367   1.778   0.630 -0.6850 -0.1912  0.9381
78604SOL     OW47536  13.408   9.905   2.567  0.3550  0.1192 -0.0407
78604SOL    HW147537  13.430   9.839   2.632  0.9621  0.5882  0.2333
78604SOL    HW247538  13.341   9.959   2.610 -0.9787 -0.9543 -0.6637
78605SOL     OW47539   4.522  12.637   2.951  0.0480  0.5382 -0.4017
78605SOL    HW147540   4.574  12.639   2.871 -0.5466  0.3667 -0.7971
78605SOL    HW247541   4.525  12.545   2.979  3.7461  1.1863  2.1279
78606SOL     OW47542  11.622   9.390  11.261 -0.0042  0.1782  0.0147
78606SOL    HW147543  11.658   9.453  11.323 -0.8455  0.5247  0.1692
78606SOL    HW247544  11.652   9.305  11.292  1.1972  0.5032 -0.2337
78607SOL     OW47545   5.843   1.887  13.128 -0.5044 -0.2386  0.3445
78607SOL    HW147546   5.848   1.982  13.141  1.7263 -0.1768 -0.6020
78607SOL    HW247547   5.898   1.851  13.197 -0.4496 -0.7745  0.0212
78608SOL     OW47548   1.171  10.027   8.821 -0.1395 -0.9721 -0.0674
78608SOL    HW147549   1.171   9.950   8.877  0.9528 -1.4189 -0.6495
78608SOL    HW247550   1.263  10.054   8.817 -0.0041 -1.5403 -2.3799
78609SOL     OW47551   4.920   5.790   2.963 -0.3333 -0.1936 -0.2896
78609SOL    HW147552   4.846   5.780   2.903 -0.5460  2.0071 -0.4691
78609SOL    HW247553   4.924   5.884   2.980  0.8657 -0.5667  1.7230
78610SOL     OW47554   3.771   4.359   3.686  0.0424  0.6504  0.4021
78610SOL    HW147555   3.837   4.319   3.629 -1.5530 -1.2075 -0.2874
78610SOL    HW247556   3.820   4.395   3.759  1.8936  0.2873 -0.6075
78611SOL     OW47557   1.938   6.940   2.029 -0.4701  0.1697 -0.4088
78611SOL    HW147558   2.016   6.908   1.984  0.0562  1.4642 -0.4530
78611SOL    HW247559   1.918   6.873   2.094 -0.4436 -1.0813 -1.6352
78612SOL     OW47560   9.624   4.683   9.244 -0.2071  0.2591 -0.1372
78612SOL    HW147561   9.716   4.663   9.227 -0.6050 -1.8990 -0.0820
78612SOL    HW247562   9.576   4.637   9.174 -1.3237 -0.3055  0.9522
78613SOL     OW47563   5.663   8.594  10.590 -0.4462 -0.4328 -0.0659
78613SOL    HW147564   5.586   8.649  10.602  0.6458  1.0174  0.5652
78613SOL    HW247565   5.713   8.606  10.671  0.2619 -1.6650 -0.2971
78614SOL     OW47566  13.029   0.368   5.702 -0.1240 -0.1573  0.4238
78614SOL    HW147567  13.070   0.392   5.620 -0.1121  0.3245  0.5682
78614SOL    HW247568  12.935   0.374   5.685 -0.1430 -1.0437  0.1577
78615SOL     OW47569   9.875   7.735  13.212 -0.4500  0.7775  0.1523
78615SOL    HW147570   9.935   7.809  13.211  2.6110 -1.4700  0.7443
78615SOL    HW247571   9.868   7.709  13.120 -0.6727  1.1553  0.0606
78616SOL     OW47572   4.939   3.227  10.453  0.1884 -0.1306  0.5540
78616SOL    HW147573   4.999   3.299  10.434  0.1064 -0.3525 -0.6126
78616SOL    HW247574   4.899   3.207  10.368 -0.0426 -1.3240  0.9373
78617SOL     OW47575  12.753  12.090   7.216 -0.0165  0.4272 -0.3174
78617SOL    HW147576  12.663  12.105   7.185 -0.0113 -0.3883 -0.7544
78617SOL    HW247577  12.784  12.177   7.242 -0.3283  1.0214 -1.7967
78618SOL     OW47578   0.036  10.770  10.934  0.0217  0.0623 -0.1080
78618SOL    HW147579   0.058  10.677  10.939 -0.6101 -0.0432  0.7388
78618SOL    HW247580   0.052  10.804  11.022  1.1410  0.9681 -0.6369
78619SOL     OW47581   9.974   3.715   9.613 -0.1384  0.3815 -0.0763
78619SOL    HW147582   9.926   3.760   9.544 -1.0995 -0.9231 -0.2885
78619SOL    HW247583   9.947   3.623   9.607  0.6213  0.0210  1.3005
78620SOL     OW47584   2.932  11.010   9.950  0.2327  0.0244  0.0623
78620SOL    HW147585   2.932  10.991   9.857  0.6247  0.5738 -0.0527
78620SOL    HW247586   2.868  11.081   9.960  1.0771  0.8195  0.0198
78621SOL     OW47587   4.815  13.070   9.738  0.4147 -0.2856 -0.6765
78621SOL    HW147588   4.885  13.012   9.708  2.5330  0.7706  1.8092
78621SOL    HW247589   4.848  13.158   9.721 -1.9063  0.3158 -2.6015
78622SOL     OW47590   0.318  11.988   3.744  0.3531  0.3655 -0.3128
78622SOL    HW147591   0.314  11.913   3.684 -0.8585  0.3194 -0.1975
78622SOL    HW247592   0.256  11.966   3.814  1.6249  0.4879  0.9007
78623SOL     OW47593   1.696   5.660  12.242 -0.1844  0.2486  0.6400
78623SOL    HW147594   1.782   5.666  12.202  0.0345  2.5390  1.3044
78623SOL    HW247595   1.675   5.566  12.242  1.5321 -0.1904 -1.0817
78624SOL     OW47596   7.179   5.388  11.094 -0.4892 -0.0048  0.6721
78624SOL    HW147597   7.105   5.441  11.062 -0.5556 -1.2156 -1.3759
78624SOL    HW247598   7.255   5.446  11.086 -1.0879  1.0548  2.2347
78625SOL     OW47599   2.355   8.484  13.083  0.1983  0.3966 -0.4009
78625SOL    HW147600   2.313   8.435  13.154  0.8720 -0.8298 -0.8216
78625SOL    HW247601   2.282   8.515  13.029 -0.2516 -0.0170 -0.0396
78626SOL     OW47602   0.588   8.137  10.638  0.4880  0.5163  0.1234
78626SOL    HW147603   0.579   8.156  10.545 -1.6931  0.5451  0.2997
78626SOL    HW247604   0.501   8.150  10.674  0.9065 -1.0855  1.8792
78627SOL     OW47605   0.773   2.854   5.819 -0.2837 -0.4027  0.0401
78627SOL    HW147606   0.680   2.876   5.815  0.0812  1.2174 -0.1920
78627SOL    HW247607   0.813   2.901   5.746  0.6506 -1.5234 -0.2104
78628SOL     OW47608   4.221  12.591   2.166  0.1289  0.0145  0.4491
78628SOL    HW147609   4.140  12.586   2.218 -0.4953  0.4602 -0.4531
78628SOL    HW247610   4.255  12.502   2.165 -0.9804 -0.4204 -0.1235
78629SOL     OW47611   4.174   0.960   7.886 -0.5986 -0.2142  0.0153
78629SOL    HW147612   4.245   0.947   7.948 -0.6973 -0.4818  0.0730
78629SOL    HW247613   4.216   0.958   7.800 -0.4214  0.4445  0.0868
78630SOL     OW47614   9.005   5.318  10.321  0.2725 -0.3661  0.5920
78630SOL    HW147615   8.976   5.330  10.231  0.2720 -0.7228  0.5463
78630SOL    HW247616   8.972   5.395  10.367  0.6976  0.0659  0.1840
78631SOL     OW47617   9.073  11.198   9.788  0.0250  0.1074 -0.1711
78631SOL    HW147618   9.164  11.215   9.812 -0.2089  1.5529 -0.2185
78631SOL    HW247619   9.024  11.210   9.870  0.1306 -3.6667  0.6252
78632SOL     OW47620   0.411   2.622   2.682 -0.4816  0.2675  0.1644
78632SOL    HW147621   0.476   2.652   2.618 -0.8262  1.8960  0.5228
78632SOL    HW247622   0.372   2.544   2.643  0.2872  0.4319 -0.9669
78633SOL     OW47623   8.296   1.363   6.918  0.2996 -0.0350  0.1710
78633SOL    HW147624   8.383   1.401   6.902  0.3409  0.7468  2.0123
78633SOL    HW247625   8.263   1.410   6.994 -1.3259 -1.0426  0.1338
78634SOL     OW47626  10.987   7.844  11.518 -0.6490  0.0037 -0.2799
78634SOL    HW147627  10.929   7.906  11.562  2.8600  3.2325  0.3351
78634SOL    HW247628  11.000   7.882  11.431  2.1087  0.7372  0.3423
78635SOL     OW47629   0.790   5.728   7.712 -0.1480 -0.1163  0.2579
78635SOL    HW147630   0.849   5.787   7.759 -0.7306  1.5947 -1.0664
78635SOL    HW247631   0.704   5.743   7.752  0.0352 -1.7128  1.3622
78636SOL     OW47632   3.309  10.024   7.093  0.7236  0.4919 -0.0022
78636SOL    HW147633   3.336   9.933   7.079 -0.7533  0.2076 -1.1826
78636SOL    HW247634   3.225  10.032   7.048  0.0269  2.0124  1.4809
78637SOL     OW47635   4.476   7.101   5.486 -0.3702  0.1898 -0.0670
78637SOL    HW147636   4.552   7.159   5.492  2.3290 -3.1679  3.1380
78637SOL    HW247637   4.506   7.027   5.433 -2.2380 -0.2502 -0.5837
78638SOL     OW47638   7.818   8.235  10.651 -0.5364 -0.4423 -0.6694
78638SOL    HW147639   7.747   8.248  10.588  0.0066  1.2228 -0.9847
78638SOL    HW247640   7.895   8.273  10.608  0.0108  0.0060  0.6649
78639SOL     OW47641   7.280   7.036   9.211 -0.0151  0.2012 -0.4016
78639SOL    HW147642   7.338   7.090   9.157 -0.2041 -0.2276 -1.0434
78639SOL    HW247643   7.294   6.947   9.179 -0.5391  0.0153 -0.1146
78640SOL     OW47644  12.694   9.642   3.597  0.0071  0.3577  0.1821
78640SOL    HW147645  12.627   9.653   3.664 -0.1919  1.1021 -0.1297
78640SOL    HW247646  12.646   9.645   3.514  0.4719  1.3908 -0.0656
78641SOL     OW47647  11.460   0.177   0.516  1.1168  0.3354  0.0406
78641SOL    HW147648  11.460   0.264   0.554 -0.5135  1.3570 -2.0632
78641SOL    HW247649  11.370   0.163   0.487  1.8185 -1.0956 -1.6648
78642SOL     OW47650   3.531  12.973   3.251 -0.0914 -0.3137  0.0768
78642SOL    HW147651   3.492  12.981   3.163  0.1046 -1.8812 -0.1803
78642SOL    HW247652   3.625  12.981   3.236 -0.0169 -1.1962  0.0525
78643SOL     OW47653   4.489  11.715   6.699 -0.0795 -0.1122 -0.0988
78643SOL    HW147654   4.500  11.808   6.718  0.0204 -0.2008  0.2783
78643SOL    HW247655   4.415  11.712   6.639 -0.0498  0.2156 -0.1557
78644SOL     OW47656  11.564   2.081   8.441 -0.8736  0.2166  0.1220
78644SOL    HW147657  11.657   2.093   8.462 -1.2722  1.3244  1.3474
78644SOL    HW247658  11.555   1.986   8.431  1.0092  0.2209 -3.1743
78645SOL     OW47659   7.065  11.996   0.302  0.0061 -0.2093 -0.2101
78645SOL    HW147660   6.999  11.946   0.350 -1.6745 -0.7318 -2.8171
78645SOL    HW247661   7.134  11.932   0.283  0.2761 -0.2116  0.7621
78646SOL     OW47662   2.238   5.093  12.062  0.4324  0.0432  0.5552
78646SOL    HW147663   2.249   4.998  12.056 -0.7053 -0.3805  3.5908
78646SOL    HW247664   2.155   5.105  12.107  0.3046  2.5349 -0.1898
78647SOL     OW47665   1.837  11.050   2.402  0.3352 -0.4877 -0.5907
78647SOL    HW147666   1.842  11.117   2.471  0.9793 -1.0439 -0.0756
78647SOL    HW247667   1.836  10.967   2.450  0.0210 -0.8608 -1.2377
78648SOL     OW47668   9.769  13.243   3.883 -0.3278 -0.3747 -0.1465
78648SOL    HW147669   9.856  13.208   3.905  0.3588  1.5617  0.4712
78648SOL    HW247670   9.729  13.175   3.829  1.0442 -1.8998  0.6467
78649SOL     OW47671   4.300  10.415  10.607  0.2061 -0.1459 -0.1241
78649SOL    HW147672   4.258  10.403  10.522  0.1095  0.3885 -0.1605
78649SOL    HW247673   4.366  10.347  10.612  0.5845  0.1647 -0.8650
78650SOL     OW47674   4.923   7.371   9.346 -0.2692  0.1790  0.2389
78650SOL    HW147675   4.967   7.299   9.302  0.1545  0.2292  0.5719
78650SOL    HW247676   4.897   7.335   9.431  0.7124  0.6540  0.7590
78651SOL     OW47677   3.995  13.289   1.127 -0.1918  0.1988  0.2208
78651SOL    HW147678   4.030  13.368   1.168 -2.1971  1.5924 -0.5923
78651SOL    HW247679   3.944  13.246   1.196  0.8458 -0.3701  0.6455
78652SOL     OW47680  11.276  11.221   9.344 -0.2700  0.0801  0.8259
78652SOL    HW147681  11.254  11.314   9.350 -0.1815  0.1631 -0.0027
78652SOL    HW247682  11.224  11.180   9.412 -2.9564  0.2987 -0.9262
78653SOL     OW47683   2.764   8.825   5.017  0.3530  0.2160 -0.0390
78653SOL    HW147684   2.819   8.826   4.938 -0.0408  1.0037 -0.3189
78653SOL    HW247685   2.675   8.813   4.984  0.1569  0.8174  0.2652
78654SOL     OW47686   9.313  12.550   5.868  0.1294  0.4693 -0.5832
78654SOL    HW147687   9.236  12.502   5.837  0.3304 -0.2509  0.0198
78654SOL    HW247688   9.277  12.615   5.928  0.0117 -0.0437 -0.0943
78655SOL     OW47689  12.439   6.715  10.986  0.5361 -0.3414  0.3371
78655SOL    HW147690  12.373   6.785  10.989  0.1310 -0.5574 -1.7745
78655SOL    HW247691  12.387   6.634  10.986  0.6233 -0.5030 -2.4447
78656SOL     OW47692   9.552   5.807  12.060 -0.1575  0.0771 -0.1831
78656SOL    HW147693   9.580   5.775  12.146 -1.1874 -2.6007 -0.7405
78656SOL    HW247694   9.630   5.797  12.005  0.2177  0.8501  0.1947
78657SOL     OW47695   6.168   8.669   4.616  0.2542  0.2447 -0.3619
78657SOL    HW147696   6.248   8.721   4.617  0.7164 -0.3339 -2.6908
78657SOL    HW247697   6.187   8.597   4.555 -1.3034 -1.1329  0.6887
78658SOL     OW47698   5.517   8.659   5.771  0.1628 -0.0612 -0.2015
78658SOL    HW147699   5.467   8.605   5.833  1.5956 -1.3919 -0.1292
78658SOL    HW247700   5.601   8.675   5.816  1.2059 -1.0065 -1.7239
78659SOL     OW47701   6.814  11.099  11.146 -0.1899  0.2983 -0.0112
78659SOL    HW147702   6.785  11.128  11.233  1.0467  1.5850  0.0119
78659SOL    HW247703   6.840  11.179  11.101 -1.3699 -0.2615 -1.8352
78660SOL     OW47704   1.554   2.923  13.298 -0.0710  0.3876 -0.7671
78660SOL    HW147705   1.575   2.968  13.380  0.2440 -0.1612 -0.5362
78660SOL    HW247706   1.461   2.942  13.284  0.1067  1.2726 -0.7944
78661SOL     OW47707   9.384   2.262   5.568  0.0868 -0.0791  0.3115
78661SOL    HW147708   9.400   2.326   5.499  0.3908 -0.8595 -0.3561
78661SOL    HW247709   9.366   2.180   5.521  0.3350 -0.6278  1.1578
78662SOL     OW47710   2.227  10.366   9.192 -0.5576 -0.3618 -0.6985
78662SOL    HW147711   2.285  10.324   9.128  0.8817  0.4513  0.0158
78662SOL    HW247712   2.149  10.389   9.142  0.6100  0.4191 -2.2371
78663SOL     OW47713  11.280   2.418   1.529 -0.8737  0.5349  0.0411
78663SOL    HW147714  11.314   2.490   1.583  2.3271  0.3117 -1.4810
78663SOL    HW247715  11.189   2.443   1.512 -0.7061  2.7822  1.8653
78664SOL     OW47716   4.962   9.353   8.748 -0.0164  0.2140  0.2031
78664SOL    HW147717   4.964   9.432   8.801  0.2164  0.5376 -0.2859
78664SOL    HW247718   4.947   9.384   8.659  0.7318 -0.2495 -0.0868
78665SOL     OW47719  10.282  11.728   8.677  0.1504 -0.3553  0.5135
78665SOL    HW147720  10.368  11.709   8.716 -0.0476 -1.0599  0.6191
78665SOL    HW247721  10.231  11.649   8.693 -0.6595  0.2168  0.8268
78666SOL     OW47722   8.639   9.056   0.681  0.0090  0.0721  0.1944
78666SOL    HW147723   8.566   9.011   0.639  1.3574  0.5253 -2.9438
78666SOL    HW247724   8.601   9.139   0.712 -1.0146 -0.1049 -0.5340
78667SOL     OW47725   6.100   3.078  13.728  0.7877  0.2646 -0.1724
78667SOL    HW147726   6.048   3.015  13.777  0.8873 -1.1250 -1.7550
78667SOL    HW247727   6.144   3.026  13.661  2.1409  1.8015 -0.5447
78668SOL     OW47728   0.778  11.853   8.322 -0.0003  0.7303  0.4859
78668SOL    HW147729   0.860  11.828   8.282 -0.1757  0.9064  0.0143
78668SOL    HW247730   0.799  11.931   8.374 -0.2688  1.9899 -1.2329
78669SOL     OW47731  12.263  10.250   6.378  0.0641  0.5754 -0.4278
78669SOL    HW147732  12.187  10.194   6.389  1.2195 -0.5291  3.7265
78669SOL    HW247733  12.227  10.339   6.373 -1.6322  0.2273  2.7084
78670SOL     OW47734   3.576   2.801   8.657 -0.3660 -0.2103 -0.4187
78670SOL    HW147735   3.636   2.803   8.583  0.9665  0.4681  0.6319
78670SOL    HW247736   3.616   2.741   8.719 -2.6324 -2.6342 -1.1174
78671SOL     OW47737   6.425   7.689  10.191  0.1107  0.0756 -0.4901
78671SOL    HW147738   6.471   7.617  10.234  0.1726  0.7858  0.6819
78671SOL    HW247739   6.333   7.676  10.217 -0.4059 -1.2503 -2.6943
78672SOL     OW47740  10.600  12.086   0.831  0.0241  0.0267  0.2141
78672SOL    HW147741  10.680  12.048   0.868  0.6910  1.1369 -0.0453
78672SOL    HW247742  10.612  12.180   0.841 -0.9334  0.2333 -0.5096
78673SOL     OW47743   5.568  10.355   8.749  0.2679  0.3700  0.4283
78673SOL    HW147744   5.506  10.283   8.755 -1.6662  1.8940 -0.1847
78673SOL    HW247745   5.514  10.433   8.737  2.3517  1.6279 -1.7377
78674SOL     OW47746  11.024   0.021   2.741  0.2993  0.3530  0.3057
78674SOL    HW147747  10.938  -0.020   2.728 -0.1664  0.9247  1.4941
78674SOL    HW247748  11.085  -0.052   2.738 -0.4759 -0.4199  1.8869
78675SOL     OW47749   6.107   1.209   3.304  0.4308 -0.1178  0.9134
78675SOL    HW147750   6.087   1.172   3.390 -0.4894 -0.4403  0.5680
78675SOL    HW247751   6.201   1.229   3.308  0.3013  0.3301  2.1631
78676SOL     OW47752  12.770   4.170   5.833 -0.1684 -0.1886  0.4630
78676SOL    HW147753  12.682   4.147   5.863 -0.5576  1.0407  0.3222
78676SOL    HW247754  12.757   4.213   5.749  0.6044 -0.2663  0.2898
78677SOL     OW47755   4.692   0.636  10.422  0.0704 -0.4505  0.3938
78677SOL    HW147756   4.756   0.671  10.484  1.4809  0.6377 -1.5839
78677SOL    HW247757   4.608   0.665  10.457  0.6046 -1.5959  2.8462
78678SOL     OW47758   0.078  11.793  10.092  0.0363 -0.0180  0.2670
78678SOL    HW147759   0.047  11.792  10.183  0.1035 -0.8918  0.2945
78678SOL    HW247760  -0.002  11.799  10.040 -0.1539 -1.2742  0.3604
78679SOL     OW47761   7.297   4.744   6.470  0.0944  0.1158 -0.2353
78679SOL    HW147762   7.297   4.689   6.392 -3.2537 -0.1655 -0.1862
78679SOL    HW247763   7.264   4.829   6.439  0.4084  0.5489  0.5832
78680SOL     OW47764   4.375   6.380   8.973  0.7983  0.2982 -0.2402
78680SOL    HW147765   4.282   6.384   8.951  0.7389  0.2010 -0.0077
78680SOL    HW247766   4.420   6.383   8.889  0.6481  2.1462 -0.3087
78681SOL     OW47767  11.681  12.110  12.544  0.9059  0.1763 -0.6220
78681SOL    HW147768  11.667  12.037  12.604  0.1154  0.8548  0.0528
78681SOL    HW247769  11.770  12.099  12.512  0.5027 -1.5706 -1.2212
78682SOL     OW47770   5.932  10.173  10.557  0.9556 -0.3365 -0.4262
78682SOL    HW147771   5.862  10.170  10.622  0.1704 -0.2636 -1.2643
78682SOL    HW247772   5.908  10.245  10.499  1.4798 -0.6259 -1.0105
78683SOL     OW47773   5.274  13.656   2.409  0.0483 -0.3731 -0.2141
78683SOL    HW147774   5.365  13.665   2.381  0.4746 -0.5999  1.0432
78683SOL    HW247775   5.229  13.619   2.333  0.7303  0.9230 -1.2866
78684SOL     OW47776   3.857   4.594   8.082  0.6624 -0.7873  0.0598
78684SOL    HW147777   3.936   4.617   8.032 -1.0794 -1.2611 -3.1845
78684SOL    HW247778   3.796   4.561   8.016 -1.8768 -1.5228  2.5959
78685SOL     OW47779  11.255  10.241   1.800 -0.3395 -0.2478  0.0014
78685SOL    HW147780  11.250  10.303   1.727 -2.5521 -0.5953 -0.1928
78685SOL    HW247781  11.259  10.155   1.759 -1.3528 -0.4315  0.2590
78686SOL     OW47782   1.493   9.050  13.010 -0.5111 -0.3992 -0.3384
78686SOL    HW147783   1.472   9.065  12.918 -1.0077 -0.6179 -0.2661
78686SOL    HW247784   1.425   8.989  13.040  0.9647 -2.1630 -0.4101
78687SOL     OW47785   0.973   1.289   1.186 -0.1662 -0.1299 -0.1846
78687SOL    HW147786   0.889   1.302   1.231 -0.3558  0.5870 -0.7221
78687SOL    HW247787   0.951   1.292   1.093 -0.0622 -3.4043 -0.4257
78688SOL     OW47788   9.931   4.738   2.841 -0.3899 -0.5273  0.7226
78688SOL    HW147789  10.001   4.789   2.881  0.4481 -0.6151 -0.5673
78688SOL    HW247790   9.906   4.674   2.907  2.2237 -1.8941  0.5127
78689SOL     OW47791   6.658   1.877   6.997  0.4716 -0.0180  0.1839
78689SOL    HW147792   6.611   1.811   6.944  0.0356  0.6030 -0.2196
78689SOL    HW247793   6.623   1.866   7.085  0.2803 -0.2204  0.0845
78690SOL     OW47794  13.621   6.161   9.371 -0.0338 -0.2115 -0.7220
78690SOL    HW147795  13.678   6.176   9.295  0.2437 -0.6253 -0.5979
78690SOL    HW247796  13.534   6.182   9.339  0.0947 -0.2857 -1.1316
78691SOL     OW47797   2.389   4.572  10.972  0.4048 -0.4293  0.3990
78691SOL    HW147798   2.361   4.542  11.058 -0.4053  0.4825  0.4761
78691SOL    HW247799   2.320   4.542  10.912 -0.0151  0.5564  0.3656
78692SOL     OW47800   6.784  10.465   7.861  0.1414 -0.1718 -0.3992
78692SOL    HW147801   6.879  10.462   7.872  0.2890  0.5508 -1.3752
78692SOL    HW247802   6.764  10.389   7.806  0.4319  0.8180 -1.9279
78693SOL     OW47803  13.225  11.084   2.407 -0.7782 -0.3694 -0.3876
78693SOL    HW147804  13.265  11.112   2.490 -0.9050 -2.1165  0.3054
78693SOL    HW247805  13.249  11.153   2.345 -1.9450  1.7769  1.4052
78694SOL     OW47806   4.472   3.480  12.855 -0.6369  0.0720 -0.0550
78694SOL    HW147807   4.382   3.447  12.858 -0.3877 -0.6325 -0.0807
78694SOL    HW247808   4.526   3.401  12.846 -0.1318  0.5709 -2.0855
78695SOL     OW47809   3.309  10.867   2.887  0.1982  0.1865  0.2325
78695SOL    HW147810   3.354  10.946   2.854  0.5940  0.0763  0.5014
78695SOL    HW247811   3.361  10.840   2.962 -0.1209 -0.1520  0.3308
78696SOL     OW47812   2.399   8.400  11.393 -0.0477  0.1436  0.0733
78696SOL    HW147813   2.399   8.324  11.334 -0.0693 -0.1955  0.4992
78696SOL    HW247814   2.308   8.408  11.421  0.5448 -2.2064  3.1916
78697SOL     OW47815   9.723   2.868   3.898  0.0782  0.0597 -0.0343
78697SOL    HW147816   9.793   2.907   3.845 -0.8691  1.8283 -0.0820
78697SOL    HW247817   9.694   2.792   3.848  0.2911  0.7603 -1.2775
78698SOL     OW47818  13.010   3.329   3.698  0.0442 -0.3259  0.0248
78698SOL    HW147819  13.013   3.275   3.619  1.1476 -0.9463  0.4580
78698SOL    HW247820  13.087   3.386   3.690 -1.6780  2.0017 -0.9444
78699SOL     OW47821  12.443  10.775   1.479  0.1737 -0.5880 -0.2572
78699SOL    HW147822  12.484  10.846   1.430 -0.8784 -0.9061 -1.6315
78699SOL    HW247823  12.349  10.791   1.472 -0.0408 -1.2915  0.7021
78700SOL     OW47824   7.454   2.648  11.811  0.1415 -0.0810  0.0532
78700SOL    HW147825   7.522   2.641  11.744  2.5219 -0.9284  2.3810
78700SOL    HW247826   7.442   2.559  11.843 -1.7389  0.1440  0.0788
78701SOL     OW47827  12.814  10.967   5.039  0.4073 -0.0885 -0.1696
78701SOL    HW147828  12.880  10.971   5.108 -1.2297  0.8384  1.4174
78701SOL    HW247829  12.789  10.875   5.036  1.9825 -0.5223 -1.0469
78702SOL     OW47830   4.027   4.486   7.531  0.6722  0.0184 -0.0423
78702SOL    HW147831   4.041   4.539   7.453 -0.8335  0.2515 -0.1850
78702SOL    HW247832   3.975   4.411   7.501  0.1661  0.0510  0.6999
78703SOL     OW47833   9.893  11.505  10.178  0.3535 -0.2797 -0.5026
78703SOL    HW147834   9.964  11.505  10.114 -1.6903  0.7187 -2.9778
78703SOL    HW247835   9.875  11.598  10.194 -1.7997 -0.4044 -1.7549
78704SOL     OW47836  13.692  13.301  11.007 -0.2461  0.0779 -0.0619
78704SOL    HW147837  13.640  13.326  11.083  1.1506  2.5126  0.1957
78704SOL    HW247838  13.739  13.381  10.982 -0.8068 -0.5550 -3.6596
78705SOL     OW47839  12.625   2.509   3.577 -0.2196 -0.4436  0.1522
78705SOL    HW147840  12.681   2.433   3.591  1.0134  0.7959  2.4697
78705SOL    HW247841  12.683   2.576   3.542 -0.9248 -0.0048 -0.2193
78706SOL     OW47842   4.712   4.609  11.955  0.3473  0.1153 -0.1542
78706SOL    HW147843   4.794   4.622  11.909  1.3415 -1.1610  1.1555
78706SOL    HW247844   4.674   4.531  11.914 -1.9934  2.5356 -3.0604
78707SOL     OW47845   5.099  10.575  12.341  0.0532  0.3579  0.2215
78707SOL    HW147846   5.191  10.571  12.314 -0.0423  0.3258 -0.1065
78707SOL    HW247847   5.093  10.653  12.396  0.7960 -0.9139  2.2247
78708SOL     OW47848   9.213   1.726   2.736 -0.2035 -0.0522 -0.0476
78708SOL    HW147849   9.231   1.672   2.659  0.7687 -0.8315  0.7030
78708SOL    HW247850   9.204   1.815   2.702 -0.7427 -0.5159 -1.1672
78709SOL     OW47851  11.071  12.208   5.154  0.1100  0.3823 -0.7131
78709SOL    HW147852  11.094  12.140   5.090  1.7629  0.3245 -0.1104
78709SOL    HW247853  11.135  12.196   5.225  1.1242  3.1823 -1.0467
78710SOL     OW47854   4.977   3.247  13.089  0.1450 -0.2265  0.1174
78710SOL    HW147855   4.947   3.320  13.035  1.5239 -0.3947 -0.9047
78710SOL    HW247856   4.998   3.177  13.027  0.7261 -0.8043  0.9445
78711SOL     OW47857   7.485   6.864   6.639 -0.4411  0.4384 -0.0187
78711SOL    HW147858   7.572   6.884   6.604 -0.8039  0.0362 -1.2060
78711SOL    HW247859   7.485   6.902   6.727  1.6056 -1.2078  0.7852
78712SOL     OW47860   2.538  11.601  11.863 -0.0770 -0.2802  0.0733
78712SOL    HW147861   2.517  11.508  11.868  0.4667 -0.3902  0.3550
78712SOL    HW247862   2.483  11.634  11.791 -1.5314 -0.4648  1.0449
78713SOL     OW47863   7.642  10.146  11.923 -0.1655 -0.0507  0.1942
78713SOL    HW147864   7.707  10.134  11.855  0.2651  1.4920  0.2952
78713SOL    HW247865   7.687  10.125  12.005  0.6212  2.0794  0.3841
78714SOL     OW47866   2.826  12.866   1.725 -0.1501  0.3729 -0.2244
78714SOL    HW147867   2.795  12.807   1.794  1.4215  0.3551  0.5211
78714SOL    HW247868   2.753  12.926   1.709 -0.9663 -0.3737  0.6052
78715SOL     OW47869  12.061   7.919   0.480 -0.0401  0.8247  0.4897
78715SOL    HW147870  11.969   7.893   0.490  0.3306 -0.3005  1.2006
78715SOL    HW247871  12.059   7.995   0.423 -1.3348  0.1946 -0.3444
78716SOL     OW47872  12.620  11.333   2.674  0.0779  0.1856 -0.6937
78716SOL    HW147873  12.642  11.326   2.581  1.0154  2.5456 -0.7109
78716SOL    HW247874  12.588  11.246   2.697  0.9322 -0.8114 -2.9330
78717SOL     OW47875   1.658   4.535   5.216  1.0810 -0.0453  0.4266
78717SOL    HW147876   1.736   4.576   5.253 -0.2765  1.8413  1.4093
78717SOL    HW247877   1.588   4.599   5.233 -1.0821 -2.5437  1.5142
78718SOL     OW47878  10.973   3.746  10.552  0.1715 -0.3008 -0.4321
78718SOL    HW147879  11.051   3.761  10.606  0.3246 -0.0260 -0.7291
78718SOL    HW247880  10.900   3.753  10.614  0.3189  0.4301 -0.3358
78719SOL     OW47881  10.998   8.202  12.316 -0.6210 -0.1648 -0.1482
78719SOL    HW147882  10.999   8.262  12.242 -1.5685 -0.4947 -0.4416
78719SOL    HW247883  11.063   8.135  12.294  0.0352  0.4409 -0.0734
78720SOL     OW47884   7.069   3.918   2.155 -0.3755  0.3575 -0.1699
78720SOL    HW147885   7.052   3.825   2.172 -0.1377  0.0388 -1.5535
78720SOL    HW247886   6.985   3.952   2.121  0.3456 -0.1315 -2.6410
78721SOL     OW47887  13.383   5.071   2.420 -0.1861 -0.3023  0.2650
78721SOL    HW147888  13.474   5.045   2.433 -0.0215  0.6073  1.0753
78721SOL    HW247889  13.367   5.058   2.327  0.6765 -0.7628  0.1717
78722SOL     OW47890   2.175   9.198   5.079  0.0336  0.0715 -0.8370
78722SOL    HW147891   2.168   9.281   5.126  0.6035 -0.1565 -0.3344
78722SOL    HW247892   2.107   9.202   5.011 -0.7759  0.4173 -0.0151
78723SOL     OW47893   5.150  11.700  10.813  0.2530  1.0223  0.1184
78723SOL    HW147894   5.197  11.617  10.804  2.1210  2.1269 -1.1467
78723SOL    HW247895   5.125  11.722  10.723 -1.0351  1.4004  0.5582
78724SOL     OW47896   4.791   4.726  11.391  0.0133 -0.2318 -0.2086
78724SOL    HW147897   4.731   4.798  11.410 -0.9241 -0.6338 -1.4744
78724SOL    HW247898   4.742   4.648  11.416  0.3434 -0.5222 -0.4603
78725SOL     OW47899  12.559  11.066   2.692 -0.6200  0.2192 -0.5750
78725SOL    HW147900  12.474  11.023   2.684 -0.1709 -0.6159 -1.0742
78725SOL    HW247901  12.609  11.033   2.617  0.7847 -0.8200  0.7438
78726SOL     OW47902   3.199  13.512   7.811 -0.3184 -0.4484 -0.5986
78726SOL    HW147903   3.195  13.465   7.728  0.7977 -0.2649 -0.7661
78726SOL    HW247904   3.108  13.513   7.842 -0.5154 -1.8954 -1.0394
78727SOL     OW47905   1.269   3.856   4.569 -0.1796 -0.4875 -0.2521
78727SOL    HW147906   1.209   3.855   4.494  0.0076  0.3501 -0.4246
78727SOL    HW247907   1.313   3.771   4.565 -3.3606 -2.4406  1.5628
78728SOL     OW47908   2.496   8.506   8.251 -0.1166 -0.2860 -0.4510
78728SOL    HW147909   2.410   8.466   8.244 -0.1167 -0.3473 -0.1084
78728SOL    HW247910   2.495   8.577   8.186 -0.7829  0.3465  0.2302
78729SOL     OW47911   4.100   1.350   7.208 -0.0989 -0.6676 -0.4542
78729SOL    HW147912   4.063   1.325   7.124  0.2131 -0.8107 -0.5510
78729SOL    HW247913   4.086   1.274   7.264  0.0395 -0.7185 -0.4884
78730SOL     OW47914   4.764  10.410   4.666 -0.5885 -0.5053 -0.2110
78730SOL    HW147915   4.706  10.467   4.616 -0.3533 -0.1953 -0.1347
78730SOL    HW247916   4.821  10.370   4.600 -2.2489 -2.4677 -0.5509
78731SOL     OW47917   6.589   1.811   8.468  0.4604 -0.0374  0.3742
78731SOL    HW147918   6.598   1.869   8.544  0.0742 -0.2359  0.5767
78731SOL    HW247919   6.567   1.869   8.396  0.0046  0.0634  0.5920
78732SOL     OW47920   5.357   9.494   0.297  0.2575 -0.2848  0.2459
78732SOL    HW147921   5.430   9.436   0.317  0.0977 -0.8431 -0.7162
78732SOL    HW247922   5.290   9.436   0.261  0.3087  0.5506 -1.2985
78733SOL     OW47923  12.750   6.712   9.152  0.1513  0.5039 -0.3210
78733SOL    HW147924  12.716   6.637   9.201  0.2773 -0.1741 -1.2430
78733SOL    HW247925  12.815   6.752   9.211 -0.2027  0.1361  0.3333
78734SOL     OW47926   0.188   1.900   9.758  0.2129 -0.1171 -0.4543
78734SOL    HW147927   0.274   1.862   9.741  0.3077 -0.6822  1.1432
78734SOL    HW247928   0.207   1.993   9.773  0.2367  0.2173 -2.2253
78735SOL     OW47929   9.963   0.707  13.641  0.1124  0.1243 -0.1746
78735SOL    HW147930   9.937   0.748  13.559  0.1625 -0.8294 -0.6853
78735SOL    HW247931   9.888   0.722  13.700 -0.1032  0.4412 -0.5247
78736SOL     OW47932  11.538   7.004   7.101 -0.8650  0.0103  0.1524
78736SOL    HW147933  11.528   6.909   7.105 -1.5672  0.0275 -0.7763
78736SOL    HW247934  11.449   7.038   7.110 -0.7326  0.5366 -0.4105
78737SOL     OW47935  11.175  12.942   3.977  0.1582  0.0722 -0.3240
78737SOL    HW147936  11.228  13.012   3.940 -0.3106  1.0752  0.8352
78737SOL    HW247937  11.085  12.965   3.954 -0.0250  0.0143  0.3312
78738SOL     OW47938   8.952  11.816  11.033 -0.3822  0.0502 -0.3397
78738SOL    HW147939   8.894  11.891  11.050 -1.8856 -1.3882  1.3332
78738SOL    HW247940   8.894  11.749  10.997  0.3047 -1.2524  0.8670
78739SOL     OW47941   5.581   1.675  11.882  0.2077  0.3715 -0.0487
78739SOL    HW147942   5.535   1.599  11.846 -0.1658  1.3003 -1.6789
78739SOL    HW247943   5.673   1.661  11.858  0.4686 -0.4812  1.3754
78740SOL     OW47944  13.572   7.219   0.995 -0.4035 -0.2886 -0.2229
78740SOL    HW147945  13.614   7.216   0.909  1.1098  0.8184  0.4324
78740SOL    HW247946  13.610   7.145   1.043  2.4478  1.8076  1.0154
78741SOL     OW47947  10.545   9.061   2.114  0.2421  0.3071 -0.0655
78741SOL    HW147948  10.621   9.097   2.159 -0.5422  1.6061  0.2981
78741SOL    HW247949  10.579   9.030   2.030  1.3651 -0.2584  0.5801
78742SOL     OW47950  12.150   2.883   3.044  0.4280 -0.2195  0.3220
78742SOL    HW147951  12.235   2.866   3.084  1.0998  0.1711 -0.8788
78742SOL    HW247952  12.139   2.815   2.978  0.1406  0.1450 -0.0185
78743SOL     OW47953   8.746  11.697   2.986 -0.3642  0.0979  0.3762
78743SOL    HW147954   8.748  11.623   2.925  1.3960 -0.2601  0.8280
78743SOL    HW247955   8.665  11.685   3.036 -1.5759  0.1101 -1.4987
78744SOL     OW47956  10.983   2.500   6.418  0.4720 -0.6577 -0.3570
78744SOL    HW147957  11.066   2.452   6.421  0.0441 -1.4158 -0.3798
78744SOL    HW247958  10.918   2.437   6.448  0.0693  0.3144  0.8817
78745SOL     OW47959   6.263   9.644  10.305 -0.1799 -0.1387 -0.4596
78745SOL    HW147960   6.336   9.620  10.247 -0.1293 -0.4543 -0.2680
78745SOL    HW247961   6.268   9.581  10.376  0.7317  1.1949  0.7172
78746SOL     OW47962   8.755   6.799   9.428 -0.3586 -0.0487  0.9056
78746SOL    HW147963   8.752   6.866   9.496  0.4986 -0.3120  1.2239
78746SOL    HW247964   8.849   6.782   9.416 -0.4865  0.0824 -0.4280
78747SOL     OW47965  11.856   6.019  12.459 -0.3776  0.0826  0.7095
78747SOL    HW147966  11.934   6.068  12.485 -0.7209  1.6632 -0.9962
78747SOL    HW247967  11.784   6.067  12.499 -0.7826  1.6055 -1.6324
78748SOL     OW47968   8.652   7.055   5.077  0.0911  0.0388  0.7361
78748SOL    HW147969   8.644   7.036   5.171 -0.4258  0.2201  0.7344
78748SOL    HW247970   8.660   7.150   5.072  0.9208 -0.0308  0.6404
78749SOL     OW47971   9.183  10.907   5.835  0.0572  0.4288 -0.8646
78749SOL    HW147972   9.146  10.876   5.752 -0.7442  0.1149 -0.4030
78749SOL    HW247973   9.171  10.833   5.895  0.7504  0.6029 -0.5033
78750SOL     OW47974  10.325   6.978   1.177  0.0002  0.0570 -0.0188
78750SOL    HW147975  10.276   6.898   1.161 -0.6204  0.7012 -1.5729
78750SOL    HW247976  10.399   6.951   1.231 -0.8908 -1.3223  0.5447
78751SOL     OW47977   1.283   4.429  11.581 -0.1426  0.1715  0.2123
78751SOL    HW147978   1.302   4.497  11.646  2.3096  0.9056 -1.1309
78751SOL    HW247979   1.321   4.349  11.617  0.8771  0.4972 -0.0986
78752SOL     OW47980   5.937  13.363   3.380 -0.0539 -0.2815 -0.4431
78752SOL    HW147981   6.011  13.393   3.433 -0.1356 -1.0671  0.1248
78752SOL    HW247982   5.970  13.287   3.333 -0.2047 -0.0298 -0.9657
78753SOL     OW47983   3.532  13.213  13.168 -0.5080  0.5952 -0.2552
78753SOL    HW147984   3.615  13.188  13.209 -0.7037 -0.5496 -0.5041
78753SOL    HW247985   3.492  13.129  13.143 -0.5373  1.2085 -2.5099
78754SOL     OW47986   8.500   1.118   1.184 -0.0756  0.2797  0.3535
78754SOL    HW147987   8.423   1.136   1.237 -0.9189  0.6069 -0.9549
78754SOL    HW247988   8.467   1.076   1.105  1.2628 -1.1796  0.5154
78755SOL     OW47989   2.998   9.311  11.818 -0.2451 -0.1388 -0.5330
78755SOL    HW147990   2.959   9.323  11.904 -0.5198 -1.1719 -0.4999
78755SOL    HW247991   3.061   9.382  11.810 -1.2295  0.8279 -0.0720
78756SOL     OW47992  13.575  11.785   9.980 -0.1958  0.2072  0.3263
78756SOL    HW147993  13.511  11.723  10.015  0.4586  0.1368  1.4228
78756SOL    HW247994  13.622  11.735   9.913 -1.7474  0.4763 -1.0483
78757SOL     OW47995   7.972   8.395   5.457  0.2885 -0.1743 -0.6545
78757SOL    HW147996   7.940   8.334   5.524 -0.1090  1.1064  0.3731
78757SOL    HW247997   8.038   8.346   5.409  0.8093 -1.0611  0.8932
78758SOL     OW47998   6.411  10.969  10.941  0.6860  0.5155 -0.1699
78758SOL    HW147999   6.321  10.997  10.921  0.5685  0.4757  0.2853
78758SOL    HW248000   6.423  10.889  10.889  0.1450  0.0303  0.4378
78759SOL     OW48001  12.933   3.908   6.593  0.6203 -0.3784 -0.0151
78759SOL    HW148002  12.848   3.901   6.550  0.8732 -1.6229 -0.3449
78759SOL    HW248003  12.991   3.853   6.541  1.0596 -1.5410  1.6267
78760SOL     OW48004  13.723   4.963   2.138  0.4790 -0.1853 -0.0706
78760SOL    HW148005  13.710   5.047   2.182  0.5662  0.4897 -1.2802
78760SOL    HW248006  13.643   4.913   2.157  0.8368 -0.2095  1.4474
78761SOL     OW48007   3.996  12.645   1.166  0.5316  0.4715 -0.0277
78761SOL    HW148008   3.967  12.554   1.169  1.4140  0.2105  1.2208
78761SOL    HW248009   4.091  12.640   1.160  0.6186  1.3113  0.4965
78762SOL     OW48010   9.335   5.464  10.832 -0.1713  0.4869 -0.7169
78762SOL    HW148011   9.269   5.398  10.853  0.7986  0.0781  1.2876
78762SOL    HW248012   9.345   5.515  10.913  2.3097  0.1910 -0.7517
78763SOL     OW48013   0.505   1.663   8.726  0.4725  0.2812  0.2878
78763SOL    HW148014   0.474   1.674   8.816  1.1104  0.6679  0.4720
78763SOL    HW248015   0.500   1.568   8.710 -0.2874  0.2833  0.4875
78764SOL     OW48016   8.642   2.185   0.992  0.0425  0.2200  0.1044
78764SOL    HW148017   8.638   2.104   1.043 -2.7271  0.1802 -0.0137
78764SOL    HW248018   8.724   2.179   0.944  0.6387 -1.7959  1.2478
78765SOL     OW48019   1.364  10.538   9.414 -0.3179 -0.0799 -0.0799
78765SOL    HW148020   1.325  10.451   9.413  0.2366 -0.3504  0.8501
78765SOL    HW248021   1.425  10.537   9.488  0.5738  0.7154 -0.7674
78766SOL     OW48022  13.004  13.274   1.685 -0.7686 -0.3984 -0.2181
78766SOL    HW148023  13.028  13.260   1.594 -0.7674  2.2065 -0.6917
78766SOL    HW248024  13.027  13.365   1.703 -3.1557 -0.0311  1.5863
78767SOL     OW48025   7.018   1.014  11.573 -0.1340  0.1951 -0.0855
78767SOL    HW148026   7.037   0.923  11.550 -0.2834  0.1444 -0.0134
78767SOL    HW248027   7.103   1.053  11.593 -0.1150 -0.0437  0.2980
78768SOL     OW48028  13.028   0.361  10.337 -0.3388  0.2099  0.0649
78768SOL    HW148029  13.096   0.314  10.288 -1.2599 -1.2765  0.1447
78768SOL    HW248030  13.051   0.346  10.429 -1.0661 -0.7818  0.0982
78769SOL     OW48031   2.018   3.193   2.247  0.2216  0.0580 -0.4018
78769SOL    HW148032   2.027   3.174   2.154  1.1764  0.3640 -0.3785
78769SOL    HW248033   2.087   3.256   2.266  0.2660 -0.2645  0.5915
78770SOL     OW48034   4.376  11.023  10.284 -0.2012 -0.6556 -0.2828
78770SOL    HW148035   4.459  11.070  10.283 -0.2148 -0.6325 -0.5647
78770SOL    HW248036   4.309  11.092  10.289 -0.1875 -0.7081  0.8633
78771SOL     OW48037  12.921   0.957  10.172  0.3944  0.3701  0.0643
78771SOL    HW148038  12.937   1.048  10.198  0.4685  0.3114  0.2263
78771SOL    HW248039  12.982   0.941  10.100  1.6007 -0.0853  1.1632
78772SOL     OW48040   0.131   1.321   4.723 -0.0886 -0.1499 -0.2979
78772SOL    HW148041   0.045   1.278   4.730 -0.3736  0.5634  0.8435
78772SOL    HW248042   0.188   1.254   4.685 -1.0342 -0.8033 -0.6167
78773SOL     OW48043   0.799   6.102   0.410  0.0183  0.4249  0.2601
78773SOL    HW148044   0.891   6.116   0.430  0.5018  1.3728 -2.1742
78773SOL    HW248045   0.787   6.007   0.413  1.2525  0.2442 -0.0396
78774SOL     OW48046   8.355  10.659   4.877  0.4611  0.1046 -0.6711
78774SOL    HW148047   8.338  10.737   4.823  0.2529  1.3355  1.0737
78774SOL    HW248048   8.283  10.600   4.858  0.5060  0.4068 -1.8719
78775SOL     OW48049  10.629  13.687   2.561  0.2533  0.0828 -0.0851
78775SOL    HW148050  10.600  13.771   2.526  0.5692  0.3945  0.3981
78775SOL    HW248051  10.613  13.625   2.490 -0.6924  0.4138 -0.1710
78776SOL     OW48052   4.681   7.235  10.589 -0.0198 -0.1715 -0.1843
78776SOL    HW148053   4.585   7.233  10.589 -0.1029 -0.1900  2.9457
78776SOL    HW248054   4.702   7.328  10.581 -0.2510 -0.1686 -0.8977
78777SOL     OW48055  10.384  12.066   8.412  0.4132  0.2976 -0.2969
78777SOL    HW148056  10.476  12.094   8.418  0.6199 -0.5855  0.9709
78777SOL    HW248057  10.389  11.977   8.379 -0.0835  0.6741 -1.4470
78778SOL     OW48058  10.963  11.510   5.330 -0.7298 -0.0580 -0.1555
78778SOL    HW148059  10.870  11.531   5.324 -0.2291  1.9092 -2.6378
78778SOL    HW248060  10.990  11.543   5.416 -2.3525 -0.9767  0.7410
78779SOL     OW48061   2.105  11.502   2.177 -0.2749 -0.6586 -0.3381
78779SOL    HW148062   2.147  11.584   2.155 -1.5558  0.4566  1.1375
78779SOL    HW248063   2.068  11.517   2.264 -2.1507 -2.1572 -0.8203
78780SOL     OW48064   3.423   5.360   7.240 -0.6223 -0.6675 -0.0852
78780SOL    HW148065   3.448   5.267   7.237  0.3573 -0.4066 -1.5669
78780SOL    HW248066   3.479   5.401   7.174 -2.4876  0.6262 -0.9460
78781SOL     OW48067   7.786   9.949   1.288 -0.0633 -0.1768 -0.3228
78781SOL    HW148068   7.797  10.035   1.248 -0.2009  0.0689  0.1530
78781SOL    HW248069   7.748   9.894   1.219 -0.9538  0.4176 -0.3164
78782SOL     OW48070  12.650   1.530   7.736  0.3630  0.3766  0.8079
78782SOL    HW148071  12.571   1.556   7.689  0.8066 -0.9052 -0.7308
78782SOL    HW248072  12.619   1.478   7.810 -0.2708  0.8595  0.8828
78783SOL     OW48073   9.811   6.669   5.726  0.0732 -0.0911  0.1022
78783SOL    HW148074   9.856   6.607   5.785  0.3230  0.2873  0.3118
78783SOL    HW248075   9.836   6.755   5.759  2.8802  0.2222 -2.4827
78784SOL     OW48076   7.646   6.690   4.867 -0.1004 -0.2426  0.2574
78784SOL    HW148077   7.659   6.656   4.955 -2.1740 -0.0240  0.6992
78784SOL    HW248078   7.655   6.784   4.876  0.0897 -0.2514  0.1580
78785SOL     OW48079   2.590   2.648  10.692  0.4200  0.2669  0.5353
78785SOL    HW148080   2.506   2.633  10.735  0.9119  0.9997  1.8256
78785SOL    HW248081   2.643   2.573  10.717  0.4460  0.2893  0.5490
78786SOL     OW48082   7.522  13.036   7.330  0.4653  0.0739 -0.1785
78786SOL    HW148083   7.556  12.970   7.270 -0.0637  0.5129 -0.9865
78786SOL    HW248084   7.551  13.120   7.294  1.2388  0.2959  0.9061
78787SOL     OW48085   7.045   2.974   8.502  0.5039  0.0276  0.0937
78787SOL    HW148086   6.957   2.962   8.539 -0.9428 -0.4762 -3.0852
78787SOL    HW248087   7.056   3.069   8.498  0.0957  0.0966  0.4855
78788SOL     OW48088   9.433   7.460   4.851 -0.1584 -0.3115 -0.2371
78788SOL    HW148089   9.443   7.467   4.756  1.2658  2.3142  0.0189
78788SOL    HW248090   9.518   7.431   4.882  0.6387  2.4927  0.4522
78789SOL     OW48091  12.519   5.144   3.420  0.8135  0.1583 -0.3786
78789SOL    HW148092  12.499   5.159   3.512  3.3379  3.3010 -0.1653
78789SOL    HW248093  12.439   5.169   3.374  0.4224  1.3533  0.8730
78790SOL     OW48094  13.573  13.121  13.118 -0.5451  0.0233 -0.2472
78790SOL    HW148095  13.498  13.180  13.122 -1.3438 -1.0098  0.6510
78790SOL    HW248096  13.554  13.065  13.043 -1.2109 -0.9047  0.5911
78791SOL     OW48097   8.839   6.252  11.434 -0.1109  0.0449 -0.5009
78791SOL    HW148098   8.933   6.240  11.418 -0.0247  0.1635 -0.1007
78791SOL    HW248099   8.813   6.173  11.481  0.2967  1.0331  1.4649
78792SOL     OW48100   2.905   5.641  10.040 -0.9401  0.1402  0.3878
78792SOL    HW148101   2.902   5.729  10.004  1.8888  0.7977  1.4874
78792SOL    HW248102   2.880   5.651  10.132  2.0224  0.3970  1.2670
78793SOL     OW48103   1.892  10.438   1.933  0.6469 -0.2520 -0.1976
78793SOL    HW148104   1.923  10.466   2.019 -1.7437  1.1405  0.3050
78793SOL    HW248105   1.854  10.516   1.893 -0.5984 -1.4070 -1.4373
78794SOL     OW48106  11.717   4.346  10.997 -0.3709 -0.6835  0.0303
78794SOL    HW148107  11.652   4.299  10.945  1.2972 -1.1648 -1.7319
78794SOL    HW248108  11.784   4.281  11.016  1.2230  0.5434 -1.1050
78795SOL     OW48109  10.503   9.300   8.306 -0.1622  0.7989 -0.2071
78795SOL    HW148110  10.584   9.332   8.265 -0.2238  0.0544 -0.9247
78795SOL    HW248111  10.435   9.357   8.270 -0.1829  0.3062 -0.9627
78796SOL     OW48112   8.615  13.154   5.555  0.1137  0.0053 -0.3282
78796SOL    HW148113   8.552  13.099   5.508  0.9144 -0.6210 -0.6826
78796SOL    HW248114   8.576  13.241   5.555  0.1184  0.0353 -2.1907
78797SOL     OW48115   7.753   3.915   4.592  0.3130  0.5579  0.2981
78797SOL    HW148116   7.821   3.895   4.528 -1.5832  0.9374 -1.9712
78797SOL    HW248117   7.773   3.859   4.667  1.9064 -0.8579 -1.1154
78798SOL     OW48118  10.399   8.646  10.978 -0.3229  0.0463 -0.1654
78798SOL    HW148119  10.440   8.611  10.898  0.1030  0.3808 -0.1015
78798SOL    HW248120  10.334   8.708  10.947  0.4929  0.8827 -0.2519
78799SOL     OW48121   2.211   3.403  11.023 -0.6237  0.4014 -0.3299
78799SOL    HW148122   2.145   3.396  10.953  1.5120  0.9540 -2.5344
78799SOL    HW248123   2.257   3.319  11.020  0.1885  0.8396 -0.3591
78800SOL     OW48124  10.591   6.525   0.870  0.6357  0.2581 -0.0118
78800SOL    HW148125  10.653   6.591   0.900  0.6820  0.6150 -0.8739
78800SOL    HW248126  10.604   6.451   0.929  3.2091 -0.4186 -1.2704
78801SOL     OW48127   9.851   3.151   0.838  0.0084 -0.1518  0.1555
78801SOL    HW148128   9.776   3.195   0.797 -0.7669 -0.4568  1.2026
78801SOL    HW248129   9.900   3.223   0.879 -1.2326 -0.1889  1.8262
78802SOL     OW48130  12.283  10.231   0.328 -0.2925  0.7124  0.0768
78802SOL    HW148131  12.240  10.169   0.387 -1.6586  1.7249  0.1785
78802SOL    HW248132  12.228  10.230   0.249  1.3229 -0.3801 -1.1128
78803SOL     OW48133  12.934   1.370   7.340  0.1971 -0.0158  0.4139
78803SOL    HW148134  13.029   1.381   7.336  0.1665 -0.1856 -1.9232
78803SOL    HW248135  12.899   1.459   7.339  0.2879  0.1235  2.8401
78804SOL     OW48136   7.769  13.045   3.280  0.1233  0.1808  0.2599
78804SOL    HW148137   7.807  13.119   3.326 -0.2691 -0.2167  1.2624
78804SOL    HW248138   7.842  13.004   3.234  0.6519  0.2477  1.0229
78805SOL     OW48139   4.863  12.378   5.640  0.0345 -0.0944  0.1971
78805SOL    HW148140   4.889  12.353   5.551 -1.3586  0.1071 -0.2857
78805SOL    HW248141   4.888  12.470   5.647 -1.2067  0.3214 -0.5441
78806SOL     OW48142   5.561   8.426   6.440  0.2278  0.0637  0.3587
78806SOL    HW148143   5.574   8.354   6.502 -2.6633  0.8085  2.0204
78806SOL    HW248144   5.626   8.491   6.466  0.4023 -0.4627  1.3080
78807SOL     OW48145   7.546   1.432  12.890  0.2220  0.0264 -0.1413
78807SOL    HW148146   7.590   1.474  12.964  0.3049 -0.0471 -0.1484
78807SOL    HW248147   7.598   1.354  12.872  0.5075  0.3194 -0.6141
78808SOL     OW48148  10.685   4.904  10.083 -0.3022 -0.2032  0.1675
78808SOL    HW148149  10.608   4.880  10.032 -1.6505 -0.3192  2.1273
78808SOL    HW248150  10.726   4.820  10.104 -0.2580 -0.2162  0.0311
78809SOL     OW48151   1.559   7.579   8.080 -0.1889  0.0467  0.3242
78809SOL    HW148152   1.497   7.652   8.073 -0.0086  0.1339 -0.4459
78809SOL    HW248153   1.507   7.508   8.120 -0.0008  0.9839  2.3557
78810SOL     OW48154   2.177  10.909   6.374 -0.4769 -0.4877 -0.3980
78810SOL    HW148155   2.215  10.996   6.361 -1.2326  0.0000  0.5037
78810SOL    HW248156   2.125  10.893   6.295 -1.7821  0.6799  0.1691
78811SOL     OW48157  11.371   5.332   6.597 -0.5506 -0.3562  0.3967
78811SOL    HW148158  11.373   5.376   6.512 -1.7167 -3.0080 -1.1430
78811SOL    HW248159  11.450   5.362   6.641 -1.0801  2.9018 -0.5837
78812SOL     OW48160   8.745  13.577   8.186 -0.2458  0.0132 -0.3407
78812SOL    HW148161   8.661  13.534   8.169 -0.1863  0.4764 -1.9149
78812SOL    HW248162   8.741  13.600   8.279 -0.8558 -2.0842  0.2123
78813SOL     OW48163   5.207   0.149   0.709 -0.2839 -0.7352  0.0741
78813SOL    HW148164   5.228   0.086   0.777  0.6408 -0.5502 -0.0197
78813SOL    HW248165   5.232   0.106   0.627  0.6225 -0.1666  0.0309
78814SOL     OW48166   8.396   3.724   1.024 -0.5271 -0.1308  0.1349
78814SOL    HW148167   8.409   3.808   0.980 -1.6324  0.1505  0.3231
78814SOL    HW248168   8.479   3.678   1.010  0.3866  1.2713  0.6734
78815SOL     OW48169  10.524  11.661   1.351  0.0556  0.4783  0.2740
78815SOL    HW148170  10.570  11.694   1.273 -0.4286  3.3204  1.0786
78815SOL    HW248171  10.443  11.711   1.354 -0.4249 -0.3384  2.0366
78816SOL     OW48172   9.661   7.463  11.961 -0.0929  0.3198  0.1354
78816SOL    HW148173   9.708   7.501  12.035  0.0928  0.9371 -0.2958
78816SOL    HW248174   9.672   7.526  11.890 -3.1888  1.4680  0.5180
78817SOL     OW48175   0.556   6.088   9.374  0.8458 -0.0959 -0.2929
78817SOL    HW148176   0.614   6.133   9.313  0.5282 -0.8640 -1.1675
78817SOL    HW248177   0.591   6.000   9.381  1.5015  0.2678  1.4674
78818SOL     OW48178  10.256   2.653   1.686 -0.5616  0.0973  0.1029
78818SOL    HW148179  10.206   2.671   1.765 -1.8119 -1.8518 -0.1648
78818SOL    HW248180  10.335   2.706   1.694 -1.0312  0.5380  2.2674
78819SOL     OW48181   5.354   4.184  10.313 -0.1378  0.7245  0.1880
78819SOL    HW148182   5.367   4.161  10.221 -1.4616  0.2908  0.0815
78819SOL    HW248183   5.373   4.278  10.318  2.4201  0.2920  0.0149
78820SOL     OW48184   9.894   3.758   3.856  0.1593  0.3739  0.5841
78820SOL    HW148185   9.940   3.837   3.828  0.0756  0.1479 -0.2266
78820SOL    HW248186   9.911   3.752   3.950  2.1628  0.0493  0.2308
78821SOL     OW48187   4.753   1.661   5.525  0.3145 -0.0587  0.2903
78821SOL    HW148188   4.706   1.676   5.607  1.0334 -0.7305  0.8448
78821SOL    HW248189   4.820   1.596   5.548  0.3663 -0.4306 -0.8936
78822SOL     OW48190   9.915   1.599   5.596  0.2162 -0.4185  0.3786
78822SOL    HW148191   9.872   1.629   5.516  2.5500 -0.1529 -0.8563
78822SOL    HW248192   9.913   1.675   5.654 -1.8967 -0.7477  0.8081
78823SOL     OW48193   9.649   2.871   7.128  0.1583  0.8533  0.2648
78823SOL    HW148194   9.594   2.840   7.056  0.0669 -0.9092  1.0391
78823SOL    HW248195   9.588   2.912   7.189 -0.5136 -1.6168  1.4061
78824SOL     OW48196   5.344  12.485   3.041 -0.6543 -0.5733  0.7881
78824SOL    HW148197   5.340  12.567   3.090 -0.8090 -0.7630  1.0963
78824SOL    HW248198   5.336  12.511   2.950 -3.4889 -0.4373  0.9987
78825SOL     OW48199   5.961   4.326   7.015  0.2895  0.1478  0.1065
78825SOL    HW148200   5.882   4.322   6.960 -0.4062  0.2484  1.0769
78825SOL    HW248201   5.940   4.270   7.090  0.9811  0.5352  0.5937
78826SOL     OW48202  10.011   4.441   0.456  0.1310  0.0286 -0.0880
78826SOL    HW148203   9.993   4.365   0.400 -0.3859 -0.2547  0.4544
78826SOL    HW248204   9.945   4.506   0.429  0.6732  0.3541 -0.6618
78827SOL     OW48205   6.392   1.263  10.980 -0.0305  0.6573  0.0078
78827SOL    HW148206   6.330   1.222  10.920 -1.0630  1.0622  0.7616
78827SOL    HW248207   6.344   1.335  11.019  0.1742 -0.3154  2.2263
78828SOL     OW48208   2.764   9.205   6.352  0.1337  0.3172 -0.2390
78828SOL    HW148209   2.794   9.228   6.264  0.2411  0.4656 -0.1650
78828SOL    HW248210   2.692   9.266   6.369 -0.4401 -0.2632 -0.5511
78829SOL     OW48211   7.072   0.845   1.273 -0.4375  0.6166 -0.6351
78829SOL    HW148212   7.062   0.793   1.194 -0.7846 -1.6797  0.8330
78829SOL    HW248213   7.013   0.920   1.260 -1.3825 -0.3247 -2.0555
78830SOL     OW48214   2.534  12.316   4.815 -0.2025  0.5924  0.1283
78830SOL    HW148215   2.545  12.368   4.894 -1.1453  2.3977 -0.8631
78830SOL    HW248216   2.459  12.259   4.834  0.4816 -0.0254  1.0239
78831SOL     OW48217   4.587  12.077   1.979  0.4872  0.4992  0.1744
78831SOL    HW148218   4.536  12.077   1.898 -1.8913 -1.4852  1.5509
78831SOL    HW248219   4.655  12.012   1.964 -1.0696 -1.2349  0.3469
78832SOL     OW48220  10.791   2.887  13.463 -0.0571  0.5516 -0.2010
78832SOL    HW148221  10.748   2.807  13.494  0.4458  0.0787 -0.7040
78832SOL    HW248222  10.833   2.862  13.381  1.0194  1.0446  0.1802
78833SOL     OW48223  13.290   5.264   7.764  0.2556 -0.3068  0.1730
78833SOL    HW148224  13.252   5.348   7.789 -0.6482 -1.0111  1.2651
78833SOL    HW248225  13.244   5.239   7.684  0.9162  0.4843 -0.4624
78834SOL     OW48226   1.004  11.620   2.775  0.4054 -0.5148 -0.1705
78834SOL    HW148227   1.074  11.581   2.723  2.6731  0.0854  2.2837
78834SOL    HW248228   0.982  11.701   2.729 -0.6271 -1.9516 -2.3900
78835SOL     OW48229  10.473   4.626  10.217  0.0581  0.3830  0.5319
78835SOL    HW148230  10.547   4.646  10.275  1.9305 -0.2224 -1.4955
78835SOL    HW248231  10.400   4.677  10.252  1.2009  0.3849  3.0973
78836SOL     OW48232   3.887   3.036  12.846 -0.6599  0.0775  0.4146
78836SOL    HW148233   3.978   3.008  12.841 -0.1530  1.6968 -0.2449
78836SOL    HW248234   3.868   3.038  12.940  0.0206 -0.1760  0.5654
78837SOL     OW48235   8.539   4.113   7.371  0.3437  0.5740  1.0135
78837SOL    HW148236   8.530   4.188   7.430  1.2639  1.7162 -0.2454
78837SOL    HW248237   8.535   4.151   7.283  2.4024 -0.6308  0.3329
78838SOL     OW48238  10.163   4.479   5.922  0.5149  0.3441 -0.4001
78838SOL    HW148239  10.227   4.429   5.972  1.1040 -0.1184 -1.5726
78838SOL    HW248240  10.194   4.570   5.926  0.8552  0.2279 -0.3855
78839SOL     OW48241  10.852   0.969   8.343 -0.1104 -0.0876 -0.2025
78839SOL    HW148242  10.798   0.901   8.302 -0.1850  0.7103 -1.4532
78839SOL    HW248243  10.890   0.925   8.419 -0.8287 -1.2871 -0.4980
78840SOL     OW48244   7.556   5.810   2.043  0.2490 -0.3774 -0.4263
78840SOL    HW148245   7.561   5.904   2.025  0.3286 -0.2835  0.0676
78840SOL    HW248246   7.620   5.796   2.112  0.6572 -0.8995 -0.8982
78841SOL     OW48247   9.925  13.216  10.310  0.2486 -0.0416 -0.4519
78841SOL    HW148248   9.956  13.165  10.385  1.9947  2.1411  0.4199
78841SOL    HW248249   9.851  13.166  10.276  0.2694 -1.8212  1.8763
78842SOL     OW48250   8.878   5.817   5.232 -0.4191 -0.1401  0.2952
78842SOL    HW148251   8.973   5.815   5.217 -0.3529 -1.4420  0.7296
78842SOL    HW248252   8.852   5.725   5.227 -1.9711  0.3431 -1.6138
78843SOL     OW48253  10.854   4.606   8.642 -0.7283 -0.3271  0.1186
78843SOL    HW148254  10.873   4.560   8.561  0.2632  0.1726  0.0538
78843SOL    HW248255  10.872   4.542   8.711 -0.9422 -0.5495 -0.0340
78844SOL     OW48256   5.046   3.632  13.277  0.0140 -0.5994 -0.1657
78844SOL    HW148257   4.989   3.649  13.203 -1.7606 -0.5352  1.1648
78844SOL    HW248258   5.012   3.553  13.318  1.6500 -1.2875 -0.0255
78845SOL     OW48259   0.996  12.282  10.375 -0.4627 -0.4477 -0.3322
78845SOL    HW148260   1.067  12.342  10.398 -0.3760 -0.9432  0.7611
78845SOL    HW248261   0.919  12.338  10.368 -0.8788 -0.4022  2.9792
78846SOL     OW48262  13.692   0.754   0.657 -0.0540  0.6178  0.9023
78846SOL    HW148263  13.772   0.807   0.669  1.1809 -0.4793 -1.6464
78846SOL    HW248264  13.690   0.696   0.733  1.2637  1.0517  1.3027
78847SOL     OW48265  12.471   8.236   5.595  0.2003  0.0154  0.2039
78847SOL    HW148266  12.385   8.220   5.555  0.4036  1.0295 -0.6890
78847SOL    HW248267  12.485   8.160   5.652 -1.4022 -0.0417  0.5877
78848SOL     OW48268  11.041  11.763   2.119 -0.2703  0.2194  0.1993
78848SOL    HW148269  10.985  11.750   2.043 -0.5938  1.4368  0.2039
78848SOL    HW248270  11.017  11.850   2.152  0.3769  0.0225  1.2565
78849SOL     OW48271   1.624   8.865   3.794  0.2591  0.1279  0.3093
78849SOL    HW148272   1.706   8.835   3.834 -0.1203 -1.1741  0.1527
78849SOL    HW248273   1.560   8.798   3.818 -0.6772  0.9383  0.1096
78850SOL     OW48274   6.869   1.821   9.948  0.0978  0.0969 -0.2701
78850SOL    HW148275   6.804   1.797   9.881 -1.4352 -2.7293  1.9508
78850SOL    HW248276   6.845   1.910   9.974 -1.8066 -0.2047 -0.8073
78851SOL     OW48277  12.960   7.892   9.233 -0.7318  0.2558  0.6240
78851SOL    HW148278  12.983   7.954   9.302  0.1890  1.4917 -0.7156
78851SOL    HW248279  13.045   7.862   9.200 -1.1331  0.3066 -0.4797
78852SOL     OW48280   7.534   9.614   7.353  0.2344  0.1772 -0.4533
78852SOL    HW148281   7.575   9.561   7.285  1.6020  0.4829  0.1078
78852SOL    HW248282   7.454   9.566   7.375  0.8695 -1.0702 -0.7556
78853SOL     OW48283   2.601   2.288   6.744 -0.6039  0.1905  0.0909
78853SOL    HW148284   2.588   2.240   6.826  0.8811 -0.6829 -0.1513
78853SOL    HW248285   2.515   2.326   6.725 -0.9103  0.6384  2.1734
78854SOL     OW48286   1.721  13.020   1.905  0.6860 -0.1723 -0.5061
78854SOL    HW148287   1.739  13.091   1.967 -1.2341 -0.7495  0.7813
78854SOL    HW248288   1.766  13.047   1.824 -0.9261  3.1106 -0.4575
78855SOL     OW48289   6.460  11.753   0.368  0.2221  0.6695  0.1978
78855SOL    HW148290   6.417  11.811   0.305  0.8228  1.5970  0.6032
78855SOL    HW248291   6.389  11.712   0.416 -0.2402  0.0199 -1.0129
78856SOL     OW48292  10.511  13.079   0.113  0.1428  0.1139 -0.1083
78856SOL    HW148293  10.468  12.997   0.136  0.9168 -0.3236 -0.1681
78856SOL    HW248294  10.480  13.098   0.025 -0.2464  0.0259  0.0069
78857SOL     OW48295   7.660   4.637   9.900 -0.4381 -0.4078  0.9529
78857SOL    HW148296   7.662   4.542   9.914  0.4969 -0.3224  1.5419
78857SOL    HW248297   7.570   4.662   9.920 -0.6746 -1.1599  0.8831
78858SOL     OW48298   7.907   6.415  11.603  0.0097  0.0901 -0.2016
78858SOL    HW148299   7.879   6.486  11.660 -2.8160  0.2135 -1.5516
78858SOL    HW248300   7.858   6.339  11.635 -0.1735 -0.2616 -1.2790
78859SOL     OW48301   5.259   2.896   1.505 -0.6693  0.4515 -0.1840
78859SOL    HW148302   5.206   2.817   1.514 -0.8745  0.6539  0.4418
78859SOL    HW248303   5.325   2.889   1.575  0.0602  0.2592 -0.8798
78860SOL     OW48304   7.453   8.800  10.994  0.3906 -0.8902  0.2841
78860SOL    HW148305   7.477   8.708  10.992  0.5098 -0.9137  1.5820
78860SOL    HW248306   7.396   8.812  10.918 -0.4527 -2.2774  0.6569
78861SOL     OW48307  11.283   7.687   8.239 -0.5153 -0.6143 -0.1588
78861SOL    HW148308  11.322   7.607   8.274  0.1587 -0.1580  0.1535
78861SOL    HW248309  11.304   7.685   8.146 -1.2374 -1.2110 -0.3245
78862SOL     OW48310   8.891   8.507   2.530 -0.0354  0.1770  0.9008
78862SOL    HW148311   8.818   8.555   2.493 -2.0134 -2.9205  0.4240
78862SOL    HW248312   8.859   8.474   2.614  0.5764 -1.6438  0.4705
78863SOL     OW48313   1.502   3.299   8.442  0.2063  0.3869 -0.1396
78863SOL    HW148314   1.572   3.238   8.420  1.2281  1.6274 -0.4143
78863SOL    HW248315   1.497   3.359   8.368 -1.4091  0.1107 -0.2924
78864SOL     OW48316   7.099  13.120   3.655 -0.0714  0.0553  0.3615
78864SOL    HW148317   7.037  13.175   3.701  0.2728  1.0012 -0.2776
78864SOL    HW248318   7.045  13.065   3.598 -0.5589 -1.5820  2.2690
78865SOL     OW48319   0.866   2.810   8.069  0.6279 -0.2905 -0.1775
78865SOL    HW148320   0.867   2.898   8.105  0.2277  0.1607 -1.2402
78865SOL    HW248321   0.789   2.768   8.107 -0.7297  0.7178 -1.7203
78866SOL     OW48322  13.256   0.985   4.478 -0.0794  0.0956  0.6849
78866SOL    HW148323  13.212   1.070   4.477 -1.3031 -0.5246  0.4058
78866SOL    HW248324  13.196   0.926   4.433  1.3346 -0.6448 -0.2968
78867SOL     OW48325   0.494   0.213  11.681  0.3706 -0.8062 -0.1727
78867SOL    HW148326   0.538   0.152  11.621  0.7358  0.8936 -1.7012
78867SOL    HW248327   0.554   0.288  11.687 -0.3966 -0.2655  1.1073
78868SOL     OW48328   5.485  13.086  11.881 -0.2778  0.2318  0.0129
78868SOL    HW148329   5.447  13.117  11.964  0.8355  0.3245  0.4977
78868SOL    HW248330   5.523  13.001  11.902  0.6131  0.5616 -0.2322
78869SOL     OW48331  12.939   3.246   3.430 -0.6035  0.0639  0.3846
78869SOL    HW148332  12.928   3.339   3.408  2.8037  0.7095  0.7946
78869SOL    HW248333  12.999   3.213   3.364  0.7258 -0.9616  2.0107
78870SOL     OW48334   6.021   8.536  13.379  0.2585 -0.2068  0.2650
78870SOL    HW148335   6.036   8.454  13.425 -3.2710 -0.6809  0.8789
78870SOL    HW248336   6.100   8.550  13.328  1.8237 -2.8762  1.7391
78871SOL     OW48337   6.872   8.471   8.771  0.2173  0.3708  0.6309
78871SOL    HW148338   6.784   8.464   8.810 -0.1341  0.6628 -0.1043
78871SOL    HW248339   6.872   8.555   8.726 -0.3915 -1.1457 -2.4447
78872SOL     OW48340  10.160   4.777   3.151  0.1072  0.1220 -0.1757
78872SOL    HW148341  10.156   4.828   3.232  0.3640 -0.7721  0.4147
78872SOL    HW248342  10.192   4.691   3.178  0.1105 -0.2224 -1.2171
78873SOL     OW48343   3.049   9.282   9.918  0.3162  0.2728  0.3559
78873SOL    HW148344   2.980   9.283   9.852  1.5928  0.5658 -1.0247
78873SOL    HW248345   3.107   9.211   9.891  1.1776  0.7851  0.8031
78874SOL     OW48346   8.886   1.521   4.874 -0.0354 -0.3545 -0.2495
78874SOL    HW148347   8.958   1.519   4.812  0.2042  0.1911  0.0055
78874SOL    HW248348   8.873   1.614   4.894 -0.3068 -0.4979  0.2852
78875SOL     OW48349   0.315  10.812   2.867  0.6123 -1.2347 -0.0824
78875SOL    HW148350   0.244  10.841   2.810  0.5666 -1.0613  0.0615
78875SOL    HW248351   0.363  10.892   2.888  0.4188 -1.2407  0.4073
78876SOL     OW48352   6.719  13.141   3.176 -0.1659  0.2300 -0.3388
78876SOL    HW148353   6.800  13.161   3.223 -0.1390  0.3923 -0.4558
78876SOL    HW248354   6.698  13.221   3.129 -0.3829  0.1796 -0.3255
78877SOL     OW48355  13.421   0.640   3.924 -0.2672  0.3043 -0.2443
78877SOL    HW148356  13.417   0.721   3.872 -0.4239  0.6200  0.2540
78877SOL    HW248357  13.453   0.574   3.862  0.1693  0.8123 -0.5792
78878SOL     OW48358   8.722   9.885   8.363  0.1199 -0.2796 -0.0123
78878SOL    HW148359   8.702   9.794   8.382 -1.3800  0.0659  0.1998
78878SOL    HW248360   8.808   9.900   8.402  0.2836 -1.5288  0.1419
78879SOL     OW48361   0.280  11.303   8.748  0.1399  0.0271  0.2450
78879SOL    HW148362   0.352  11.326   8.689 -0.7147  1.1851 -0.3971
78879SOL    HW248363   0.206  11.354   8.715 -1.2899 -1.9910  0.1678
78880SOL     OW48364   0.531   0.718  13.287  0.1990 -0.1287  0.2241
78880SOL    HW148365   0.438   0.722  13.266  0.0441 -1.4412  0.5307
78880SOL    HW248366   0.570   0.791  13.240 -1.0378  0.6563  0.3833
78881SOL     OW48367  12.061  11.716   5.053  0.3572  0.3836 -0.1807
78881SOL    HW148368  12.098  11.644   5.104  1.0760 -0.0160 -1.2387
78881SOL    HW248369  12.138  11.758   5.013 -0.1375  1.1165 -0.3833
78882SOL     OW48370   8.777   2.025  11.562  0.3757  0.0069 -0.3285
78882SOL    HW148371   8.837   1.950  11.555  2.0695  1.1682  0.8369
78882SOL    HW248372   8.705   1.993  11.617  1.3156 -0.6640  0.5660
78883SOL     OW48373  10.882   1.368   2.299 -0.5101 -0.5768 -0.0545
78883SOL    HW148374  10.819   1.410   2.357 -0.1015 -0.9061  0.6366
78883SOL    HW248375  10.856   1.276   2.297 -1.5888 -0.2837 -1.8065
78884SOL     OW48376   9.197   5.685   5.970 -0.1477  0.1971  0.5604
78884SOL    HW148377   9.142   5.748   5.923  1.5956  1.4112  0.0453
78884SOL    HW248378   9.180   5.601   5.926  0.2734  1.0144 -1.2594
78885SOL     OW48379   7.609   3.058  13.638  0.1218  0.5456 -0.3370
78885SOL    HW148380   7.676   3.082  13.574  0.7982 -0.8459 -0.2021
78885SOL    HW248381   7.609   3.130  13.701  0.9353  0.9386 -0.7628
78886SOL     OW48382   1.919  12.307   8.565 -0.1562  1.1708 -0.1856
78886SOL    HW148383   1.966  12.344   8.640 -0.9699  0.6905  0.5652
78886SOL    HW248384   1.985  12.255   8.519  0.4307  1.7339 -0.0043
78887SOL     OW48385   5.173   9.063   4.899 -0.2855  0.1153  0.0143
78887SOL    HW148386   5.096   9.074   4.843  0.3222 -0.2223 -0.9045
78887SOL    HW248387   5.194   9.152   4.927 -1.8092  0.0947  1.4215
78888SOL     OW48388   8.393  12.233   3.458 -0.3786  0.4500 -0.5632
78888SOL    HW148389   8.401  12.147   3.416  0.2460 -0.3444  1.1060
78888SOL    HW248390   8.350  12.287   3.392 -2.9024 -1.7300 -0.8966
78889SOL     OW48391  12.799   1.161  11.417 -0.2479  0.1492 -0.1044
78889SOL    HW148392  12.844   1.190  11.497 -1.4479  0.5489  0.4368
78889SOL    HW248393  12.815   1.067  11.414  0.1724  0.2008  0.3709
78890SOL     OW48394   7.373  10.252   9.561 -0.2218 -0.0357  0.0569
78890SOL    HW148395   7.283  10.219   9.567 -0.7878  1.3162 -0.4897
78890SOL    HW248396   7.398  10.272   9.651 -0.6825  0.1139  0.1531
78891SOL     OW48397   0.489   2.538   9.120 -0.3769 -0.3112  0.1839
78891SOL    HW148398   0.571   2.569   9.160 -0.4293 -0.1008  0.1280
78891SOL    HW248399   0.428   2.611   9.131  0.2661  0.7091 -2.3795
78892SOL     OW48400   6.359  10.081   7.793  0.2778 -0.1621  0.2765
78892SOL    HW148401   6.324  10.064   7.880 -0.8621  0.4440 -0.0446
78892SOL    HW248402   6.299  10.145   7.755  0.4356 -0.8346 -1.1672
78893SOL     OW48403   1.200   5.601   2.361 -0.1967 -0.4346 -0.2180
78893SOL    HW148404   1.198   5.552   2.279  2.6410  0.4647 -0.9258
78893SOL    HW248405   1.243   5.543   2.423  2.3420  0.6545 -0.8204
78894SOL     OW48406   1.390   2.274   0.184  0.0600  0.2481  0.3092
78894SOL    HW148407   1.407   2.288   0.277 -1.1434  0.2923  0.5377
78894SOL    HW248408   1.309   2.223   0.182  1.1309 -1.5297 -0.6664
78895SOL     OW48409   3.356  13.267   8.824 -0.1724 -0.1815 -0.1983
78895SOL    HW148410   3.364  13.319   8.905  1.7407  0.4627 -0.7367
78895SOL    HW248411   3.328  13.181   8.854 -0.3038  0.2721  1.0658
78896SOL     OW48412   6.122   6.524   5.311 -0.0887  0.2833  0.5314
78896SOL    HW148413   6.116   6.568   5.396 -2.2775  1.0179  0.0710
78896SOL    HW248414   6.133   6.595   5.249 -2.6718  0.2159 -0.1294
78897SOL     OW48415   0.396   0.797   6.794 -0.2862 -0.7834 -0.4054
78897SOL    HW148416   0.322   0.857   6.784  0.3656 -0.2231 -2.4738
78897SOL    HW248417   0.363   0.726   6.848 -1.7890  0.3047  0.1783
78898SOL     OW48418  13.557  13.030   3.807 -0.3370 -0.1554 -0.6187
78898SOL    HW148419  13.488  13.018   3.741  0.9925 -2.6411 -1.7075
78898SOL    HW248420  13.510  13.034   3.890 -1.8878 -0.6986 -1.4144
78899SOL     OW48421   3.792   2.126   3.189  0.2013  0.8275  0.2902
78899SOL    HW148422   3.720   2.115   3.127  1.1099 -0.1570 -0.6576
78899SOL    HW248423   3.754   2.174   3.263 -1.8433 -1.0896  0.5893
78900SOL     OW48424  11.304   3.693   3.840  0.4422 -0.0429  0.4292
78900SOL    HW148425  11.270   3.646   3.763  0.7230  0.2062  0.1471
78900SOL    HW248426  11.397   3.669   3.843  0.8109  1.1744 -0.2507
78901SOL     OW48427   9.900   4.182   6.047  0.1747 -0.1943 -0.4332
78901SOL    HW148428   9.949   4.217   6.121 -0.7878  0.0952  0.0898
78901SOL    HW248429   9.871   4.259   5.998 -2.5113 -0.1073  1.0860
78902SOL     OW48430   7.340  13.616   6.810 -0.6524  0.2456  0.4241
78902SOL    HW148431   7.301  13.643   6.893 -2.1923 -0.5541 -0.0009
78902SOL    HW248432   7.284  13.655   6.743  1.0313  1.5629 -0.3054
78903SOL     OW48433   2.145   2.582  11.184  0.2219  0.3190  0.3691
78903SOL    HW148434   2.124   2.515  11.118 -1.1096  1.1964 -0.1519
78903SOL    HW248435   2.230   2.617  11.157 -0.0860  0.3317 -0.6263
78904SOL     OW48436   7.193  11.524   7.410  0.4328 -0.3657 -0.1327
78904SOL    HW148437   7.160  11.435   7.393 -1.1366  0.4560 -1.6175
78904SOL    HW248438   7.121  11.569   7.453  1.8787 -0.2870  2.3844
78905SOL     OW48439  11.643   3.429   7.458 -0.5520  0.1478  0.1691
78905SOL    HW148440  11.737   3.442   7.473  0.0944 -1.9465 -1.6070
78905SOL    HW248441  11.612   3.514   7.425  0.9142  0.5996 -0.0986
78906SOL     OW48442  10.144   1.309   7.367  0.0282 -0.4172  0.0863
78906SOL    HW148443  10.202   1.249   7.413  2.3484  0.6693 -1.2368
78906SOL    HW248444  10.151   1.391   7.416 -0.4586 -0.2827 -0.0594
78907SOL     OW48445   0.151   7.475  11.902 -0.0381  0.4450 -0.5718
78907SOL    HW148446   0.085   7.406  11.889 -0.6900  0.7070  1.0926
78907SOL    HW248447   0.233   7.427  11.914 -0.4121 -0.0332  0.1370
78908SOL     OW48448   8.275   2.760  11.835  0.6387  0.1124 -0.2009
78908SOL    HW148449   8.244   2.741  11.923  2.0905 -1.6809 -0.0108
78908SOL    HW248450   8.311   2.849  11.840 -0.9341  0.7330  0.5146
78909SOL     OW48451  13.400   5.343  10.080  0.3110 -0.2424  0.1791
78909SOL    HW148452  13.430   5.289  10.153  1.2109 -0.1996 -0.1397
78909SOL    HW248453  13.364   5.422  10.121  0.4427 -0.3918  0.5890
78910SOL     OW48454  11.915  13.661   9.631  0.0828  0.0361 -0.6088
78910SOL    HW148455  11.964  13.594   9.583  0.2784  0.1738 -0.6029
78910SOL    HW248456  11.842  13.683   9.573  0.2687  0.1372 -0.8051
78911SOL     OW48457  12.901   1.072   8.369  0.4560 -0.2619 -0.2443
78911SOL    HW148458  12.811   1.073   8.401 -0.1283 -1.2019 -1.7512
78911SOL    HW248459  12.949   1.127   8.431 -0.9000 -0.7052  1.2848
78912SOL     OW48460  13.445   9.846   7.240  0.4696 -0.2847 -0.0739
78912SOL    HW148461  13.472   9.918   7.298 -0.2127  0.3572 -0.5347
78912SOL    HW248462  13.365   9.812   7.281 -0.2040  0.3933 -0.8094
78913SOL     OW48463   3.190   1.480  12.971 -0.2293  0.5022 -0.1093
78913SOL    HW148464   3.129   1.505  12.902 -1.0453  0.5262  0.6066
78913SOL    HW248465   3.264   1.441  12.924  0.3606  2.7486 -1.1453
78914SOL     OW48466  10.539  11.106   5.447 -0.1655  0.1117 -0.2851
78914SOL    HW148467  10.457  11.068   5.416 -0.1467 -0.6202  0.5274
78914SOL    HW248468  10.607  11.060   5.398 -0.2293  0.6978 -0.9372
78915SOL     OW48469   5.780  13.210   4.002 -0.1066  0.2572 -0.5116
78915SOL    HW148470   5.745  13.209   4.091 -0.5898 -0.9926 -0.6935
78915SOL    HW248471   5.768  13.300   3.972  0.5326  0.8203  0.8570
78916SOL     OW48472  13.206  11.677   7.068  0.0582  0.1805  0.1111
78916SOL    HW148473  13.289  11.712   7.100  0.2078 -0.7107  0.7255
78916SOL    HW248474  13.214  11.583   7.078 -0.2982 -0.0696 -1.5831
78917SOL     OW48475   3.525   3.873   6.566  0.0113 -0.8293  0.0756
78917SOL    HW148476   3.620   3.877   6.553  0.1353 -2.3064  0.3811
78917SOL    HW248477   3.502   3.959   6.603  0.9414  0.2127 -1.6167
78918SOL     OW48478   6.756   3.317  10.378  0.3650  0.3382  0.3423
78918SOL    HW148479   6.784   3.226  10.371  0.7605  0.4510  0.4004
78918SOL    HW248480   6.734   3.342  10.288 -0.0591  0.0869  0.3784
78919SOL     OW48481   7.799   9.942  11.646  0.3442 -0.5031 -0.0201
78919SOL    HW148482   7.853   9.998  11.701 -0.2553  1.4368 -1.3071
78919SOL    HW248483   7.860   9.875  11.614  2.2868  1.9394 -1.9106
78920SOL     OW48484   8.036   0.471  10.251  0.3021  0.2509 -0.2954
78920SOL    HW148485   7.990   0.438  10.328 -2.1174  0.6850 -1.4797
78920SOL    HW248486   8.068   0.557  10.278 -0.0287  0.1669  0.3984
78921SOL     OW48487  11.449   8.698   7.150 -0.7272 -0.1190 -0.6994
78921SOL    HW148488  11.465   8.609   7.183 -2.5409  0.3409  1.6865
78921SOL    HW248489  11.532   8.743   7.161 -0.3795 -0.9385  0.1548
78922SOL     OW48490   8.609  11.558   6.529 -0.3329  0.6098 -0.3926
78922SOL    HW148491   8.643  11.647   6.536  0.7198  0.4827 -2.8029
78922SOL    HW248492   8.552  11.560   6.451 -0.0435 -0.8706 -0.6689
78923SOL     OW48493   2.592   8.053  11.486 -0.3293  0.2718 -0.0234
78923SOL    HW148494   2.537   7.976  11.497 -0.1762 -0.0281 -1.2467
78923SOL    HW248495   2.571   8.108  11.562 -1.0013 -0.6148  0.4619
78924SOL     OW48496  12.527   8.375  11.268  0.1672 -0.0910 -0.0416
78924SOL    HW148497  12.556   8.399  11.356 -1.9665 -0.7811  0.9237
78924SOL    HW248498  12.592   8.413  11.210  1.4720  0.6609  1.8158
78925SOL     OW48499  11.183   9.136   8.059  0.3213  0.3570 -0.3224
78925SOL    HW148500  11.270   9.162   8.028  0.1782  1.7252  0.3490
78925SOL    HW248501  11.126   9.208   8.033 -0.7112 -0.7050 -1.0886
78926SOL     OW48502   3.610   9.022   0.302  0.1800  0.2257 -0.7850
78926SOL    HW148503   3.528   8.976   0.317  0.3582  0.1428 -0.0557
78926SOL    HW248504   3.678   8.965   0.338  0.3942  1.0788  0.1929
78927SOL     OW48505  10.456   1.435   7.031  0.0805  0.5210  0.1995
78927SOL    HW148506  10.484   1.485   7.107 -0.4448  0.8768  0.1612
78927SOL    HW248507  10.501   1.477   6.957  0.5943  0.1721  0.3030
78928SOL     OW48508  11.546   8.613   2.204 -0.3415 -0.2791  0.6283
78928SOL    HW148509  11.563   8.527   2.242 -1.1848 -0.2801  1.0232
78928SOL    HW248510  11.462   8.604   2.160 -0.3434  0.2874  0.5086
78929SOL     OW48511   8.907  10.378  11.545  0.5479  0.3357  0.6862
78929SOL    HW148512   8.935  10.407  11.631 -2.2968  1.5278  1.3268
78929SOL    HW248513   8.883  10.286  11.557  0.2691  0.4664  1.1378
78930SOL     OW48514   5.738   8.363   5.887  0.1175 -0.0097  0.1255
78930SOL    HW148515   5.727   8.455   5.862  2.5720  0.1765 -0.4827
78930SOL    HW248516   5.704   8.314   5.812 -1.1736  0.3532  0.4372
78931SOL     OW48517  10.584   1.213   0.258  0.2357  0.2059  0.1396
78931SOL    HW148518  10.667   1.205   0.304  0.3763  0.9386  0.0202
78931SOL    HW248519  10.548   1.296   0.287 -0.0233  0.3244 -0.5094
78932SOL     OW48520   9.069  11.299   3.046  0.5234 -0.2349 -0.4505
78932SOL    HW148521   9.061  11.384   3.090  0.7052  0.2722 -1.3881
78932SOL    HW248522   9.038  11.236   3.111 -1.2863  0.7008 -0.3380
78933SOL     OW48523  12.408   6.596   3.404  0.6363  0.1937  0.2872
78933SOL    HW148524  12.403   6.534   3.332 -0.1108  3.7986 -3.1362
78933SOL    HW248525  12.481   6.654   3.381 -0.3495  2.1798  1.8136
78934SOL     OW48526  13.617   6.556  13.560 -0.2604  0.1484  0.0396
78934SOL    HW148527  13.649   6.469  13.534  0.5731  0.8781 -1.5195
78934SOL    HW248528  13.696   6.605  13.583 -0.8014  0.2414  1.8894
78935SOL     OW48529   0.752   6.368   5.774 -0.4447  0.0399  0.2635
78935SOL    HW148530   0.684   6.344   5.836  0.4599  1.0510  1.7317
78935SOL    HW248531   0.829   6.320   5.803  0.2883  1.3959  0.6901
78936SOL     OW48532   6.916  11.048   0.986  0.4885  0.2277 -0.1746
78936SOL    HW148533   6.902  10.960   0.951  1.8080 -0.7223  1.4918
78936SOL    HW248534   6.843  11.063   1.045  1.2177 -0.5963  0.9891
78937SOL     OW48535  12.402   5.979   4.692  0.0140  0.0292 -0.1134
78937SOL    HW148536  12.382   6.063   4.734  1.5188  0.2051  0.2773
78937SOL    HW248537  12.418   5.919   4.765 -0.7445 -0.5417 -0.3988
78938SOL     OW48538   4.850  12.412   7.826  0.3423 -0.3615 -0.3060
78938SOL    HW148539   4.785  12.344   7.813  0.2383 -0.3169 -0.0258
78938SOL    HW248540   4.915  12.397   7.757 -0.3442  0.0549 -1.0625
78939SOL     OW48541   4.008   5.068  10.144  0.0471  0.0661  0.3745
78939SOL    HW148542   4.007   5.079  10.239  0.8040 -2.1888  0.7142
78939SOL    HW248543   4.012   4.973  10.132  0.0285  0.3182 -1.9203
78940SOL     OW48544  13.025   8.588   8.894 -0.1232  0.8098  0.3859
78940SOL    HW148545  13.066   8.540   8.822 -1.0617 -0.7039  0.8221
78940SOL    HW248546  12.972   8.523   8.939 -1.5502  2.2961  0.9440
78941SOL     OW48547  13.401   2.245   5.824 -0.1713 -0.0724 -0.5893
78941SOL    HW148548  13.377   2.196   5.903 -0.3196  2.0596  0.7634
78941SOL    HW248549  13.326   2.301   5.806 -0.3169 -0.8095 -2.5601
78942SOL     OW48550   5.338   0.805   8.471  0.3266 -0.0310 -0.3577
78942SOL    HW148551   5.302   0.844   8.392  1.5216 -0.9674 -1.4011
78942SOL    HW248552   5.426   0.841   8.479  0.4970 -0.5194  0.1143
78943SOL     OW48553   1.120   6.862  10.614 -0.3283  0.6132  0.0220
78943SOL    HW148554   1.066   6.870  10.535 -0.0627 -3.9845 -0.8883
78943SOL    HW248555   1.057   6.851  10.685 -0.5326  2.7218  0.2373
78944SOL     OW48556   5.863  11.939   3.839 -0.4017 -0.2720 -0.1950
78944SOL    HW148557   5.842  11.991   3.916  1.4130  0.9313 -0.4605
78944SOL    HW248558   5.850  11.848   3.867  1.1948  0.0775  1.8589
78945SOL     OW48559   8.699   3.288   2.396 -0.2973  0.3907 -0.4912
78945SOL    HW148560   8.630   3.346   2.428 -0.8675 -0.2932 -0.4542
78945SOL    HW248561   8.683   3.280   2.302 -0.8841 -0.5482 -0.3281
78946SOL     OW48562  12.466  11.660   2.472  0.3412  0.0426 -0.6946
78946SOL    HW148563  12.546  11.637   2.519 -0.5812 -0.6172  0.5890
78946SOL    HW248564  12.398  11.606   2.511 -0.9746  1.4378 -0.9544
78947SOL     OW48565   8.607   7.393  13.438 -0.0984 -0.1757  0.3725
78947SOL    HW148566   8.615   7.489  13.438 -0.4549 -0.1036 -1.7846
78947SOL    HW248567   8.539   7.376  13.504 -0.7142  1.1510  0.1340
78948SOL     OW48568   1.779   1.201   0.184  0.6490 -0.2473 -0.2978
78948SOL    HW148569   1.814   1.282   0.147 -0.9972  0.5041 -0.2744
78948SOL    HW248570   1.763   1.145   0.108  0.1220  0.1385 -0.4776
78949SOL     OW48571   3.860   4.990   7.691  0.0940  0.0817 -0.0398
78949SOL    HW148572   3.928   4.949   7.637  3.5332  1.9457  2.4664
78949SOL    HW248573   3.845   4.927   7.762  1.3955  0.7909  0.9108
78950SOL     OW48574  10.725   8.867  10.495  0.4541  0.3474  0.0400
78950SOL    HW148575  10.768   8.786  10.466  0.1377 -0.0159  0.5537
78950SOL    HW248576  10.695   8.909  10.415  0.4876 -0.1273 -0.2241
78951SOL     OW48577  13.050   7.559   0.387 -0.1107  0.1424  0.5276
78951SOL    HW148578  13.068   7.466   0.373 -0.6452 -0.2755  2.4180
78951SOL    HW248579  13.004   7.586   0.307 -4.8040 -2.5687  1.9152
78952SOL     OW48580   2.366   0.954   3.042 -0.1618  0.3817 -0.1260
78952SOL    HW148581   2.276   0.923   3.029 -0.8592  2.5281 -0.8295
78952SOL    HW248582   2.420   0.889   2.997 -1.3095 -1.0833  0.5303
78953SOL     OW48583   8.509   1.912   6.022 -0.3945 -0.3436  0.1657
78953SOL    HW148584   8.471   1.958   6.097 -0.3844 -0.3058  0.1479
78953SOL    HW248585   8.438   1.856   5.990 -0.5597  0.0259 -0.1137
78954SOL     OW48586   2.959  12.850   6.039 -0.1179 -0.1962  0.4268
78954SOL    HW148587   2.991  12.926   5.990  0.4541 -0.8157 -0.1705
78954SOL    HW248588   2.875  12.879   6.075  0.4839  1.0122  0.9248
78955SOL     OW48589   6.646   1.200   6.117 -0.2636 -0.3749 -0.9763
78955SOL    HW148590   6.722   1.155   6.080 -0.2239  0.3327 -1.8068
78955SOL    HW248591   6.590   1.130   6.150  0.6942 -0.9095 -0.4588
78956SOL     OW48592   6.956   5.212   8.261  0.2033  0.4474  0.1099
78956SOL    HW148593   6.982   5.180   8.174  2.5756  1.8705  0.2043
78956SOL    HW248594   6.937   5.133   8.311 -1.6922 -0.4060 -1.7776
78957SOL     OW48595   1.370   9.900  12.953  0.0829  0.4131 -0.6535
78957SOL    HW148596   1.430   9.941  13.016  1.4863 -0.4558 -1.3663
78957SOL    HW248597   1.385   9.947  12.871 -0.8105  0.7081 -0.6557
78958SOL     OW48598   5.938   1.276   4.281 -0.3107  0.3642 -0.1236
78958SOL    HW148599   5.877   1.252   4.212  0.9786 -0.7004 -0.9481
78958SOL    HW248600   5.950   1.195   4.331 -0.4127  0.8485  0.7013
78959SOL     OW48601   8.598   3.512  13.743 -0.0474 -0.2323  0.0817
78959SOL    HW148602   8.674   3.483  13.691 -0.5326 -0.7188 -0.3683
78959SOL    HW248603   8.636   3.566  13.812  0.6144  0.6221 -0.9007
78960SOL     OW48604   4.156   4.461   6.660  0.2500  0.0859 -0.0146
78960SOL    HW148605   4.078   4.412   6.632  1.0814  0.0029 -2.3988
78960SOL    HW248606   4.153   4.457   6.756 -2.7406  0.2307  0.0051
78961SOL     OW48607  12.198   6.015  13.593 -1.1323  0.0660  0.6333
78961SOL    HW148608  12.220   6.108  13.595  0.6661 -0.2610 -0.9287
78961SOL    HW248609  12.114   6.011  13.547 -0.5038  0.8541 -0.6444
78962SOL     OW48610   9.459   4.929   1.509  0.6986  0.2350 -0.7008
78962SOL    HW148611   9.487   4.882   1.430  0.5230 -2.1519  0.5755
78962SOL    HW248612   9.511   4.891   1.580 -0.8837  0.5453  0.7071
78963SOL     OW48613   8.519   5.191  10.678 -0.2580  0.2197 -0.1591
78963SOL    HW148614   8.487   5.271  10.636  0.0972  0.8404  0.7299
78963SOL    HW248615   8.498   5.202  10.771  0.0839 -0.5823  0.0256
78964SOL     OW48616   6.689   1.499   7.419  0.2166  0.0040 -0.3606
78964SOL    HW148617   6.636   1.425   7.389 -1.8929  0.9584  0.7818
78964SOL    HW248618   6.641   1.533   7.495  0.8899  2.7743 -1.0776
78965SOL     OW48619   5.992   8.147   7.645 -0.1560 -0.2980  0.4378
78965SOL    HW148620   6.006   8.057   7.616 -1.3329  0.0340 -1.2971
78965SOL    HW248621   5.935   8.140   7.721 -1.2364 -0.9779 -0.4190
78966SOL     OW48622   0.802   1.052  12.111 -0.3497 -0.0473 -0.4131
78966SOL    HW148623   0.897   1.047  12.112 -0.2296  1.1540 -2.3387
78966SOL    HW248624   0.781   1.133  12.158 -0.3441  0.4065 -1.1885
78967SOL     OW48625   5.114  12.063   2.490  0.6247 -0.5229  0.2872
78967SOL    HW148626   5.019  12.053   2.486  0.4671 -0.2101  2.0692
78967SOL    HW248627   5.140  12.008   2.564  1.1961  2.7387  2.7452
78968SOL     OW48628   9.197   7.077  10.989 -0.5540 -0.2804 -0.3943
78968SOL    HW148629   9.132   7.126  10.938 -0.9911  1.6414  1.8689
78968SOL    HW248630   9.167   7.082  11.079  2.9928  1.2418  0.9007
78969SOL     OW48631   3.242   3.744   1.189  0.6087  0.0653  0.7179
78969SOL    HW148632   3.311   3.696   1.143  1.3274  1.2830  0.4742
78969SOL    HW248633   3.284   3.776   1.268 -0.1565 -0.5845  1.3996
78970SOL     OW48634  12.481   7.663   6.046 -0.1366  0.6444  0.6591
78970SOL    HW148635  12.505   7.570   6.051 -1.3327  0.1676 -1.2638
78970SOL    HW248636  12.437   7.672   5.961 -0.3862  2.9087  0.9552
78971SOL     OW48637  12.441   5.571   0.015  0.5917 -0.2829 -0.6389
78971SOL    HW148638  12.375   5.551  -0.052  2.6988  1.8568 -3.6587
78971SOL    HW248639  12.449   5.666   0.012  3.3122 -0.4170  0.0693
78972SOL     OW48640   5.003   7.592   7.791 -0.4225  0.2710  0.0275
78972SOL    HW148641   5.067   7.658   7.763 -0.8547  0.6772 -0.0129
78972SOL    HW248642   4.953   7.635   7.860 -1.3062  0.3136 -0.6199
78973SOL     OW48643   7.873   9.209  10.672 -0.0454  0.3628 -0.7045
78973SOL    HW148644   7.847   9.243  10.587 -1.9630  1.4867  0.2662
78973SOL    HW248645   7.950   9.260  10.697  0.6347 -0.0975 -1.8106
78974SOL     OW48646   8.409   9.463   7.986  0.3306 -0.1467  0.5153
78974SOL    HW148647   8.483   9.426   7.937 -1.8827 -0.3481 -3.0787
78974SOL    HW248648   8.421   9.431   8.075  2.6531 -3.2077 -0.6997
78975SOL     OW48649   9.167   0.067   8.854 -0.0999  0.3301 -0.5534
78975SOL    HW148650   9.180  -0.025   8.833  0.9794  0.5309 -0.8259
78975SOL    HW248651   9.253   0.097   8.885  0.6609  2.1498 -3.9486
78976SOL     OW48652  13.474   1.488  11.954  0.0509  0.3251 -0.3836
78976SOL    HW148653  13.390   1.529  11.973  0.0727 -0.4827  1.6713
78976SOL    HW248654  13.478   1.486  11.858 -0.6737  3.5120 -0.5903
78977SOL     OW48655  12.471   5.280   8.742 -0.1005 -0.4263 -0.4149
78977SOL    HW148656  12.525   5.342   8.693 -1.8509  1.7755  0.2382
78977SOL    HW248657  12.531   5.239   8.804  1.2097  0.2923 -1.1607
78978SOL     OW48658   5.186   3.200   8.253 -0.4991  0.2113 -0.0256
78978SOL    HW148659   5.272   3.238   8.237 -0.3029  0.0414  0.6003
78978SOL    HW248660   5.180   3.128   8.190  0.6459 -1.0372  1.2034
78979SOL     OW48661   0.416   1.436  13.675 -0.1506 -0.3484 -0.3059
78979SOL    HW148662   0.425   1.504  13.608  2.2796  1.6166  1.8202
78979SOL    HW248663   0.499   1.389  13.673 -0.3289 -0.7422  0.8102
78980SOL     OW48664   1.506   3.886   1.948 -0.2524 -0.2020 -0.1746
78980SOL    HW148665   1.424   3.874   1.900  0.5268 -0.2122 -1.5879
78980SOL    HW248666   1.508   3.814   2.010 -1.5867  0.1539  0.3227
78981SOL     OW48667   9.172   7.255   4.759 -0.4545  0.0953  0.2389
78981SOL    HW148668   9.236   7.295   4.700  1.2274 -0.3699  1.6258
78981SOL    HW248669   9.160   7.166   4.726 -1.2831  0.5404 -0.6822
78982SOL     OW48670  11.784   4.775   9.592 -0.0354  0.5400  0.0319
78982SOL    HW148671  11.761   4.736   9.676 -0.0745  1.7032  0.5715
78982SOL    HW248672  11.874   4.805   9.603  0.4617 -0.5576 -0.8177
78983SOL     OW48673   6.857   1.126   4.147 -0.1820 -0.5281 -0.0377
78983SOL    HW148674   6.778   1.168   4.182 -0.4485  0.4735 -1.7195
78983SOL    HW248675   6.826   1.075   4.072  0.7172 -0.4087 -0.4980
78984SOL     OW48676   4.729   9.881   9.012  0.2690 -0.4491 -0.6641
78984SOL    HW148677   4.677   9.930   9.075  0.7266  0.0952 -0.7061
78984SOL    HW248678   4.797   9.838   9.064  1.8692  1.5736 -0.9629
78985SOL     OW48679   7.477   9.810   6.654  0.4596  0.6994  0.4548
78985SOL    HW148680   7.472   9.757   6.574  1.7390 -0.7362  1.2797
78985SOL    HW248681   7.505   9.896   6.623  0.6481  0.2478 -0.6880
78986SOL     OW48682  10.319   0.754   8.209  0.3230  0.1317 -0.4881
78986SOL    HW148683  10.373   0.795   8.277 -0.5562  0.5287 -0.0091
78986SOL    HW248684  10.259   0.822   8.182 -0.2122 -0.4218 -0.7144
78987SOL     OW48685  12.593   0.752   8.877 -0.0233 -0.1094  0.5186
78987SOL    HW148686  12.498   0.750   8.864 -0.2546 -1.9946  1.9673
78987SOL    HW248687  12.606   0.815   8.948 -0.0666  0.8650 -0.3192
78988SOL     OW48688   1.931   3.813   1.479 -0.1114 -0.0187  0.7136
78988SOL    HW148689   1.847   3.798   1.522  0.0891  0.2491  1.2076
78988SOL    HW248690   1.949   3.732   1.432 -1.2797  0.3858 -0.4834
78989SOL     OW48691   7.854   5.987   1.519  0.2936 -0.4550 -0.3801
78989SOL    HW148692   7.799   6.005   1.595  0.0714  1.0688 -0.8782
78989SOL    HW248693   7.929   6.046   1.529  0.2167 -0.1802 -1.3871
78990SOL     OW48694  10.448   0.988   8.372 -0.2300 -0.2284 -0.0912
78990SOL    HW148695  10.524   1.008   8.316  1.1093  1.6680  2.2178
78990SOL    HW248696  10.390   1.064   8.361  0.0914  0.2137  1.0827
78991SOL     OW48697  10.017  12.670  11.753 -0.1325 -0.6127 -0.1442
78991SOL    HW148698  10.010  12.605  11.822  0.8337 -2.8416 -2.0061
78991SOL    HW248699   9.974  12.748  11.788 -1.9682 -2.4486  1.9522
78992SOL     OW48700   2.974   4.672   9.770  0.0435 -0.1946 -0.0083
78992SOL    HW148701   2.987   4.617   9.847 -0.7834 -0.6546 -0.1832
78992SOL    HW248702   2.922   4.746   9.800 -0.6244 -0.5767 -0.1884
78993SOL     OW48703   1.266   2.343   7.480  0.4069  0.0487  0.0259
78993SOL    HW148704   1.202   2.343   7.552  2.8701  1.5015  2.4413
78993SOL    HW248705   1.214   2.362   7.402 -2.3641 -0.9564  1.4619
78994SOL     OW48706   7.888   3.396   2.557 -0.1849 -0.4140 -0.7484
78994SOL    HW148707   7.901   3.443   2.640  4.2968  0.6797 -1.8385
78994SOL    HW248708   7.851   3.461   2.498 -0.1290 -0.1707 -0.5181
78995SOL     OW48709  13.731   6.348   3.500  0.0375 -0.1165 -0.7407
78995SOL    HW148710  13.724   6.423   3.559  0.6441 -0.8971  0.3709
78995SOL    HW248711  13.695   6.379   3.417  0.4524  1.4554 -0.3704
78996SOL     OW48712   2.405   3.126   4.434 -0.0123  0.1298  0.1581
78996SOL    HW148713   2.341   3.194   4.413 -1.1350 -0.1826  2.3051
78996SOL    HW248714   2.355   3.058   4.479  1.5629 -0.8971  0.4540
78997SOL     OW48715   2.079  13.680   7.380  0.4861 -0.3318 -0.4641
78997SOL    HW148716   2.106  13.676   7.471 -0.5789  0.7753 -0.0646
78997SOL    HW248717   1.987  13.709   7.384  0.6405  0.4380 -1.8999
78998SOL     OW48718   5.033   8.408  13.017 -0.0291 -0.1247  0.4108
78998SOL    HW148719   5.051   8.320  13.050  1.9521  0.2685  0.4595
78998SOL    HW248720   5.115   8.438  12.979 -1.3350  0.7424 -1.9668
78999SOL     OW48721   0.250  11.003   3.613 -0.5670 -0.5297  0.4412
78999SOL    HW148722   0.172  10.948   3.613 -0.7946 -0.2737  2.3093
78999SOL    HW248723   0.225  11.079   3.666  0.6235  0.0796  0.1563
79000SOL     OW48724   4.053   5.903   6.007 -0.7366  0.2153 -0.3297
79000SOL    HW148725   4.090   5.987   6.035 -2.6928  1.6419 -1.7246
79000SOL    HW248726   3.987   5.882   6.074 -1.0774  0.4109 -0.6032
79001SOL     OW48727   7.781   3.750  12.580 -0.5156  0.2487 -0.0562
79001SOL    HW148728   7.700   3.751  12.530 -0.4080 -0.4560 -0.2547
79001SOL    HW248729   7.778   3.669  12.631  0.0993  0.1683 -0.1316
79002SOL     OW48730   6.801  10.735   0.547  0.3092  0.3020 -0.2297
79002SOL    HW148731   6.854  10.752   0.469 -0.8609  2.2324 -0.6752
79002SOL    HW248732   6.718  10.701   0.512  0.7572 -1.5872  0.3925
79003SOL     OW48733   1.283   7.742   3.729  0.5906  0.3390 -0.5430
79003SOL    HW148734   1.295   7.683   3.803  1.1293 -1.1161 -1.7255
79003SOL    HW248735   1.207   7.707   3.683 -0.8583  2.2832  0.2449
79004SOL     OW48736  10.349  11.782   5.306 -0.1157 -0.2004 -0.1591
79004SOL    HW148737  10.275  11.840   5.288 -1.1306 -1.0196  1.1892
79004SOL    HW248738  10.398  11.827   5.376 -1.9860 -1.7234  2.3161
79005SOL     OW48739   5.930   9.863  12.442 -0.0764 -0.4051 -0.1571
79005SOL    HW148740   5.990   9.857  12.368  0.2526  1.7563 -0.1321
79005SOL    HW248741   5.987   9.882  12.517 -0.6648  0.1354  0.1569
79006SOL     OW48742   6.878  12.058   2.473  0.4530 -0.3051 -0.4683
79006SOL    HW148743   6.914  12.135   2.430 -0.9005  0.1035 -0.9303
79006SOL    HW248744   6.845  12.003   2.402 -1.0735 -0.0045 -0.0482
79007SOL     OW48745   6.093   3.322  12.164 -0.6083  0.0589  0.6553
79007SOL    HW148746   6.062   3.231  12.164  0.4286 -0.3390  2.4447
79007SOL    HW248747   6.055   3.361  12.242  0.7403  0.5002  1.1160
79008SOL     OW48748  12.152   2.687   2.403  0.2411  0.0585 -0.4212
79008SOL    HW148749  12.084   2.621   2.385 -0.0389  0.0887  0.4546
79008SOL    HW248750  12.181   2.667   2.492  1.2268  0.1941 -0.7083
79009SOL     OW48751   7.929  10.329  12.985 -0.3942 -0.0987  0.3677
79009SOL    HW148752   7.981  10.278  13.047  0.3245  0.1194 -0.0368
79009SOL    HW248753   7.970  10.415  12.985 -0.0652 -0.2404 -0.7725
79010SOL     OW48754   7.543   9.413   6.928 -0.5209  0.4020  0.1627
79010SOL    HW148755   7.553   9.389   7.020  0.6545  0.4871  0.0727
79010SOL    HW248756   7.544   9.509   6.929  1.1155  0.4069 -0.0779
79011SOL     OW48757   0.478   2.017   0.444 -0.0872 -0.0447  0.1427
79011SOL    HW148758   0.408   1.980   0.498 -1.5702  0.5810 -1.2904
79011SOL    HW248759   0.529   2.071   0.504 -1.8771  0.8819  0.8938
79012SOL     OW48760   0.720  10.521   3.940  0.1320 -0.1438  0.0811
79012SOL    HW148761   0.757  10.565   4.017 -2.1965 -0.4284  1.4636
79012SOL    HW248762   0.643  10.475   3.974 -1.2015  0.0395 -2.5005
79013SOL     OW48763   5.905   2.745   8.380  0.5165 -0.3219  0.1440
79013SOL    HW148764   5.937   2.808   8.443  0.4254 -0.3740  0.2432
79013SOL    HW248765   5.874   2.671   8.433 -0.0795 -0.1328  0.0736
79014SOL     OW48766  11.478   4.341   2.488 -0.4264  0.3222  0.2289
79014SOL    HW148767  11.520   4.406   2.544 -0.1927 -0.7029  1.2698
79014SOL    HW248768  11.384   4.354   2.504 -0.3418 -0.6375  1.6819
79015SOL     OW48769   9.219   2.447   5.726 -0.5370 -0.5012 -0.7932
79015SOL    HW148770   9.272   2.378   5.687 -1.5609 -1.5105 -0.4756
79015SOL    HW248771   9.135   2.442   5.680 -1.4001 -1.0167  0.7431
79016SOL     OW48772  11.222   9.139   9.392  0.4788 -0.2895  0.3185
79016SOL    HW148773  11.138   9.186   9.391 -0.6261 -2.0148  2.4231
79016SOL    HW248774  11.285   9.204   9.424 -0.5280  0.4089  0.9404
79017SOL     OW48775  13.257   6.859   7.688  0.2386 -0.1897  0.1085
79017SOL    HW148776  13.165   6.836   7.674 -0.2255  1.2799  0.5672
79017SOL    HW248777  13.287   6.891   7.603 -0.2950  1.2611  0.4330
79018SOL     OW48778  12.380   3.399   5.448  0.3854  0.2036  0.0268
79018SOL    HW148779  12.447   3.363   5.505  1.8561  0.7158 -1.3083
79018SOL    HW248780  12.413   3.384   5.359 -1.4437  0.1481 -0.6847
79019SOL     OW48781   0.734   3.641   6.702  0.1560 -0.1901  0.2652
79019SOL    HW148782   0.766   3.574   6.643 -1.0174 -1.9643  1.5486
79019SOL    HW248783   0.740   3.602   6.789 -0.1300  1.5471  1.1239
79020SOL     OW48784   4.162   0.800   1.519 -0.4926  0.4714  0.2111
79020SOL    HW148785   4.213   0.721   1.533 -1.2694  0.1399  1.3830
79020SOL    HW248786   4.207   0.847   1.449 -0.1635 -1.1233 -0.6755
79021SOL     OW48787   2.069  11.967   8.081 -0.5008  0.1768 -0.4688
79021SOL    HW148788   2.097  11.953   7.990  1.5177  0.8831 -0.0240
79021SOL    HW248789   2.116  12.047   8.108  1.7155 -1.8237  2.2007
79022SOL     OW48790   6.353  13.046  12.124  0.3013 -0.0488 -0.2699
79022SOL    HW148791   6.279  12.985  12.118  0.3778 -0.2255  0.4977
79022SOL    HW248792   6.424  12.995  12.163 -0.4530  1.2051  3.0489
79023SOL     OW48793  13.568   1.569   5.769  0.2680  0.3511  0.0306
79023SOL    HW148794  13.498   1.557   5.705  0.3497  0.7218 -0.1303
79023SOL    HW248795  13.524   1.600   5.847  0.4093  2.1067 -0.5482
79024SOL     OW48796   4.951  10.465   6.481 -0.5280  0.2947 -0.3452
79024SOL    HW148797   5.042  10.493   6.489 -0.8596  1.2125  0.4975
79024SOL    HW248798   4.944  10.388   6.538 -0.5374  0.9195  0.5207
79025SOL     OW48799   9.677   2.365  10.715  0.2593  0.5257 -0.0297
79025SOL    HW148800   9.703   2.449  10.752  1.8993 -0.1345  0.4132
79025SOL    HW248801   9.679   2.305  10.789  0.3010 -0.1366 -0.5615
79026SOL     OW48802   9.938  10.831   7.375  0.0804 -0.4278  0.3614
79026SOL    HW148803   9.968  10.790   7.456  0.0482  0.9056  1.0687
79026SOL    HW248804   9.850  10.797   7.362 -0.1123 -0.2459  1.1699
79027SOL     OW48805   3.502  11.377  12.250 -0.6860 -0.1740  0.2252
79027SOL    HW148806   3.589  11.347  12.222 -0.1445  1.3574  0.1718
79027SOL    HW248807   3.453  11.386  12.168  0.2404  2.2997 -0.1348
79028SOL     OW48808  11.669   9.312   6.994 -0.3066 -0.1013  0.0549
79028SOL    HW148809  11.739   9.328   6.931  0.3286 -1.9594  0.2516
79028SOL    HW248810  11.675   9.385   7.056 -0.8612  1.7019 -1.8943
79029SOL     OW48811   8.249  11.056   7.024  0.3385  0.3627 -0.1076
79029SOL    HW148812   8.285  11.109   6.952  0.8169  1.9914  1.2649
79029SOL    HW248813   8.296  11.086   7.102 -0.1132 -1.4052  0.8918
79030SOL     OW48814   2.147   0.075   3.815 -0.0521 -0.1668  0.1293
79030SOL    HW148815   2.182  -0.001   3.768  0.9457  1.0036 -1.1151
79030SOL    HW248816   2.067   0.043   3.857  0.2261 -1.8366 -0.5304
79031SOL     OW48817   1.478   7.221   3.466  0.2864  0.0640  0.1863
79031SOL    HW148818   1.462   7.316   3.470 -0.4161 -0.0131 -0.5401
79031SOL    HW248819   1.544   7.205   3.533  0.4919  1.0884  0.2440
79032SOL     OW48820   6.700   1.164   6.707 -0.0970  0.1508  0.4870
79032SOL    HW148821   6.643   1.200   6.638 -0.8882 -1.6936  0.1143
79032SOL    HW248822   6.716   1.074   6.680 -0.1229 -0.5226  2.5214
79033SOL     OW48823  10.813   5.034   7.416  0.1401 -0.5110  0.1129
79033SOL    HW148824  10.778   5.070   7.498 -1.1145 -1.9687  0.2594
79033SOL    HW248825  10.856   4.952   7.443  0.1354 -0.7644 -0.6366
79034SOL     OW48826  10.358  12.905   4.546  0.4426 -0.2158  0.0671
79034SOL    HW148827  10.317  12.818   4.544  1.1919 -0.5779 -0.8520
79034SOL    HW248828  10.378  12.923   4.454 -0.1998  1.1925  0.1847
79035SOL     OW48829   6.099   8.551   9.928 -0.3367  0.0174  0.8038
79035SOL    HW148830   6.180   8.542   9.977  0.1861 -1.3270 -0.2536
79035SOL    HW248831   6.126   8.594   9.846 -0.8506  0.4046  0.8346
79036SOL     OW48832  13.558  10.654  13.724  0.0933  0.2909  0.8373
79036SOL    HW148833  13.503  10.700  13.788  0.9535  0.4089  1.5145
79036SOL    HW248834  13.524  10.565  13.723  1.7154 -0.4543  3.5030
79037SOL     OW48835   2.057   0.683   4.616 -0.0661 -0.1458  0.2017
79037SOL    HW148836   2.045   0.689   4.711  0.2262 -2.3188  0.4316
79037SOL    HW248837   2.147   0.654   4.604 -0.3502 -0.7396 -0.6772
79038SOL     OW48838  12.909   3.559   3.347  0.0492 -0.6590  0.2893
79038SOL    HW148839  12.865   3.617   3.408  2.6669  0.1394  1.5612
79038SOL    HW248840  12.893   3.598   3.261 -0.2277  0.5741  0.8875
79039SOL     OW48841   7.487   8.873  13.514 -0.6556 -0.1191 -0.1352
79039SOL    HW148842   7.558   8.902  13.571  0.2256 -1.9704 -0.2374
79039SOL    HW248843   7.522   8.882  13.426 -0.6352 -0.7956 -0.1979
79040SOL     OW48844  10.080   5.189   0.633 -0.0745  0.0469  0.2663
79040SOL    HW148845  10.122   5.268   0.667 -0.5858 -0.3529  1.9577
79040SOL    HW248846   9.987   5.209   0.633 -0.0376  0.3576 -1.8948
79041SOL     OW48847   4.844   1.199   3.764  0.7410  0.0682  0.1702
79041SOL    HW148848   4.884   1.171   3.845  0.4708 -1.2138 -0.1125
79041SOL    HW248849   4.899   1.162   3.695 -0.3416 -0.9042 -0.2162
79042SOL     OW48850   9.246  12.272   5.091 -0.1534  0.0680 -0.0420
79042SOL    HW148851   9.329  12.316   5.111 -0.0485  0.4826 -1.3042
79042SOL    HW248852   9.196  12.278   5.172  1.2135 -0.6025  0.9041
79043SOL     OW48853   2.815   2.456   6.419 -0.1076  0.3492 -0.0571
79043SOL    HW148854   2.721   2.476   6.419  0.2999  3.1353  3.1140
79043SOL    HW248855   2.827   2.398   6.493  0.5499 -1.3159 -1.4086
79044SOL     OW48856   8.420   9.243   9.659 -0.5996 -0.0672  0.1576
79044SOL    HW148857   8.350   9.281   9.607  0.3156 -0.8835 -1.7582
79044SOL    HW248858   8.405   9.148   9.655  1.0482 -0.3152 -1.0038
79045SOL     OW48859   0.233   3.813  10.083  0.5241 -0.5537  0.0744
79045SOL    HW148860   0.182   3.890  10.060  0.6920 -0.9287 -1.6629
79045SOL    HW248861   0.317   3.847  10.113 -0.2464  0.0081  1.7301
79046SOL     OW48862   1.756   2.422   1.477  0.2997  0.0408  0.3388
79046SOL    HW148863   1.796   2.497   1.432  0.2061 -0.3368 -0.3822
79046SOL    HW248864   1.663   2.443   1.480  0.1364 -0.4686 -0.7187
79047SOL     OW48865   7.140  11.759   8.699  0.1430 -0.2342  0.5179
79047SOL    HW148866   7.233  11.740   8.714  0.1240 -0.9184 -0.1583
79047SOL    HW248867   7.100  11.752   8.786  0.8097  0.6152  0.8988
79048SOL     OW48868   8.753   8.094   7.947  0.0032 -0.2651 -0.1776
79048SOL    HW148869   8.813   8.090   8.022 -0.1927 -1.1717 -0.0557
79048SOL    HW248870   8.731   8.003   7.929 -2.4214  0.0763  0.6631
79049SOL     OW48871   7.666   6.459  10.600 -0.8259  0.1755  0.9106
79049SOL    HW148872   7.587   6.409  10.619 -2.1012  2.0407  0.7411
79049SOL    HW248873   7.635   6.540  10.562  1.0117  2.0473  3.0913
79050SOL     OW48874   6.572   1.122  10.481 -0.1555  0.4695  0.0167
79050SOL    HW148875   6.478   1.127  10.499 -0.3716  0.0284 -0.9228
79050SOL    HW248876   6.609   1.199  10.525 -0.7113 -0.2068  1.7457
79051SOL     OW48877   3.699   7.086   8.029 -0.1601 -0.1336  0.1667
79051SOL    HW148878   3.638   7.159   8.020 -3.0845 -2.4265 -0.0099
79051SOL    HW248879   3.647   7.008   8.009  2.6868 -2.3500  0.7090
79052SOL     OW48880   0.093  10.481   9.260 -0.2966  0.2181  0.1599
79052SOL    HW148881   0.184  10.498   9.237 -0.3156 -0.5341 -0.5271
79052SOL    HW248882   0.051  10.461   9.177 -0.7959 -0.7220  0.6240
79053SOL     OW48883   4.480  13.199   1.237 -0.1693  0.2956  0.2733
79053SOL    HW148884   4.394  13.173   1.202  0.1675  0.4822 -0.7079
79053SOL    HW248885   4.515  13.261   1.174  1.3937 -0.9822 -0.1840
79054SOL     OW48886  13.376   1.211   8.555 -0.0897 -0.2709  0.5912
79054SOL    HW148887  13.451   1.153   8.563  0.2849  0.3240  1.7478
79054SOL    HW248888  13.304   1.164   8.598 -0.0089 -0.2367  0.7630
79055SOL     OW48889  12.702   2.293   3.167  0.8007 -0.3859 -0.1743
79055SOL    HW148890  12.610   2.312   3.183  1.1053  1.2541 -0.2397
79055SOL    HW248891  12.708   2.282   3.072  0.4052 -2.2112 -0.0307
79056SOL     OW48892   0.614   5.249   9.826 -0.2056 -0.0030  0.1657
79056SOL    HW148893   0.547   5.223   9.889  1.0752 -0.7411  1.2906
79056SOL    HW248894   0.663   5.168   9.808  0.9915  0.6859  0.1729
79057SOL     OW48895   2.846   5.443  10.496 -0.1365 -0.6387 -0.0480
79057SOL    HW148896   2.850   5.357  10.537  1.0221 -0.6875 -0.2400
79057SOL    HW248897   2.858   5.505  10.568  0.6745 -0.6923 -0.1276
79058SOL     OW48898  11.953   4.871  12.094  0.0659 -0.2835 -0.2585
79058SOL    HW148899  12.004   4.939  12.049 -2.1710  0.1876 -2.3672
79058SOL    HW248900  11.999   4.790  12.075  1.4042  0.3729  0.1006
79059SOL     OW48901   4.767   1.859   4.666 -0.1143 -1.2297  0.0710
79059SOL    HW148902   4.734   1.817   4.587  0.9817  0.0028 -1.0982
79059SOL    HW248903   4.691   1.867   4.723 -1.4830 -0.0195 -1.8267
79060SOL     OW48904  13.169  10.781   4.630 -0.8836  0.0812 -0.9193
79060SOL    HW148905  13.254  10.779   4.674 -0.6486 -0.7354 -1.4008
79060SOL    HW248906  13.106  10.756   4.699 -0.7207  0.5164 -0.6081
79061SOL     OW48907   1.986   4.598   4.909 -0.3085  0.5059 -0.0241
79061SOL    HW148908   1.983   4.688   4.942  0.6743  0.2138  0.9169
79061SOL    HW248909   1.959   4.544   4.983 -0.9797  0.0196 -0.6122
79062SOL     OW48910   9.813   2.671  12.257  0.3456 -0.3388 -0.1361
79062SOL    HW148911   9.783   2.592  12.301  0.2942 -1.1617 -1.5706
79062SOL    HW248912   9.759   2.741  12.294  0.8172 -0.8407  1.6004
79063SOL     OW48913   6.322   2.917   6.333  0.4142 -0.1300 -0.3291
79063SOL    HW148914   6.383   2.922   6.260  1.8915 -1.2148  0.7558
79063SOL    HW248915   6.338   2.831   6.372 -0.3946  0.3698  1.2160
79064SOL     OW48916   3.689  12.861   9.027  0.2823  0.0450 -0.1752
79064SOL    HW148917   3.692  12.957   9.022 -2.5566  0.2246  0.0180
79064SOL    HW248918   3.607  12.837   8.984  0.8575 -2.3117 -0.0909
79065SOL     OW48919  11.301  12.744   0.732 -0.3010  0.5431 -0.6324
79065SOL    HW148920  11.249  12.749   0.652 -2.3160  2.2282  0.6797
79065SOL    HW248921  11.237  12.737   0.803  1.4326 -1.9108  0.8660
79066SOL     OW48922   4.186  12.644   8.850  0.0881 -0.6088 -0.0772
79066SOL    HW148923   4.120  12.583   8.819 -2.0182  0.1267  2.6001
79066SOL    HW248924   4.206  12.698   8.774 -0.5901 -2.3562 -1.5716
79067SOL     OW48925   4.272   4.597   9.692 -0.0779  0.2959  0.4153
79067SOL    HW148926   4.286   4.615   9.785  0.0880  2.7575 -0.0166
79067SOL    HW248927   4.355   4.620   9.650 -0.1897 -0.6651 -0.3830
79068SOL     OW48928   4.488  12.873   5.409  0.7994  0.6723  0.4822
79068SOL    HW148929   4.400  12.852   5.377  0.3338  2.1108  0.7097
79068SOL    HW248930   4.546  12.815   5.360 -0.3334 -0.9191  0.9423
79069SOL     OW48931   1.100   2.077   0.581  0.1152  0.2663 -0.1303
79069SOL    HW148932   1.043   2.089   0.506 -0.0946 -1.1639 -0.2312
79069SOL    HW248933   1.046   2.032   0.646  1.2184 -1.6130 -0.4292
79070SOL     OW48934   9.269   2.232  11.567  0.2063  0.2189  0.4303
79070SOL    HW148935   9.317   2.256  11.488 -0.2346  1.6146  0.5651
79070SOL    HW248936   9.331   2.178  11.617 -0.0259 -2.0233 -1.5176
79071SOL     OW48937   1.771   3.094   2.328 -0.1742 -0.0082 -0.0916
79071SOL    HW148938   1.860   3.093   2.292 -0.1940 -3.3427 -0.4077
79071SOL    HW248939   1.783   3.085   2.423 -0.0563 -2.6204 -0.2762
79072SOL     OW48940   3.347  11.630   5.626 -0.4988  0.2407  0.0614
79072SOL    HW148941   3.312  11.718   5.618  1.0092  1.0299  1.4416
79072SOL    HW248942   3.402  11.633   5.705  0.6795 -1.5422 -0.6120
79073SOL     OW48943   4.691   9.157  12.449  0.6165 -0.2971 -0.4975
79073SOL    HW148944   4.675   9.249  12.472 -0.0389 -0.6001  0.3292
79073SOL    HW248945   4.784   9.153  12.428  1.0422  0.2449  1.0987
79074SOL     OW48946   0.141   6.376   2.342  0.4897  0.5656 -0.1693
79074SOL    HW148947   0.104   6.324   2.414  0.5421  0.2761 -0.3499
79074SOL    HW248948   0.235   6.363   2.350  0.4963  0.5481 -0.2775
79075SOL     OW48949   1.144   6.282   4.140 -0.3260 -0.3857  0.1461
79075SOL    HW148950   1.118   6.317   4.055  0.6156  1.8244  0.7051
79075SOL    HW248951   1.156   6.359   4.196  0.8121 -1.6610  1.7809
79076SOL     OW48952   2.667   9.992   1.632 -0.1195  0.1671  0.6285
79076SOL    HW148953   2.705   9.997   1.720 -1.1167 -0.6896  1.1224
79076SOL    HW248954   2.697   9.907   1.598  0.0249  0.3693  0.2397
79077SOL     OW48955  11.583   3.186   7.804  0.1069 -0.5553 -0.2567
79077SOL    HW148956  11.590   3.109   7.861  2.5693  0.1412  0.4851
79077SOL    HW248957  11.584   3.151   7.715  1.7852 -1.3955  0.0596
79078SOL     OW48958  11.363   7.273  12.309 -0.1868 -0.4626  0.0089
79078SOL    HW148959  11.279   7.243  12.274 -0.9799  1.5159  0.0711
79078SOL    HW248960  11.405   7.318  12.235  0.4559 -0.7255  0.2081
79079SOL     OW48961  10.423   6.375   7.993 -0.0237 -0.0032  0.4367
79079SOL    HW148962  10.512   6.353   8.020 -0.1978  0.3958  1.3822
79079SOL    HW248963  10.369   6.306   8.029  0.0045 -0.8732 -1.1056
79080SOL     OW48964  13.021  11.301   9.023 -0.3271  0.5358  0.0644
79080SOL    HW148965  12.934  11.282   8.987 -0.1784  0.6777 -0.3757
79080SOL    HW248966  13.025  11.250   9.104  0.6406 -2.6292 -1.7928
79081SOL     OW48967  12.161  12.757   5.231 -0.7351 -0.1824  0.0716
79081SOL    HW148968  12.182  12.704   5.155  0.7414 -1.7078  1.4515
79081SOL    HW248969  12.231  12.822   5.237 -1.1206  0.2584 -0.1396
79082SOL     OW48970   0.993  10.037   0.117  0.3932 -0.5914 -0.1994
79082SOL    HW148971   1.067   9.976   0.127  1.7960  0.9931 -0.5067
79082SOL    HW248972   0.978  10.040   0.022  0.4884 -0.2924 -0.2066
79083SOL     OW48973   1.627   4.966   3.958  0.3212  0.1342  0.0786
79083SOL    HW148974   1.604   5.039   4.015  1.4244  1.1111 -0.6733
79083SOL    HW248975   1.705   4.928   3.998 -1.5370 -2.1810  1.7624
79084SOL     OW48976  13.399  12.923   8.328 -0.5349  0.5319 -0.3309
79084SOL    HW148977  13.442  13.006   8.346 -0.7779  0.5501  0.1894
79084SOL    HW248978  13.447  12.859   8.380 -1.3054  0.5981  0.4801
79085SOL     OW48979   8.149   2.793  10.526  0.0379 -0.4124 -0.0149
79085SOL    HW148980   8.241   2.816  10.527  0.1219 -0.7331  0.7623
79085SOL    HW248981   8.110   2.846  10.596  0.2753 -2.6100  1.9539
79086SOL     OW48982  12.126   1.337   5.633  0.3057 -0.1826  0.5147
79086SOL    HW148983  12.054   1.350   5.695 -0.3484  0.6835 -0.3958
79086SOL    HW248984  12.182   1.414   5.644 -0.4445  0.5823 -0.7666
79087SOL     OW48985  12.110  12.965   8.824  0.1815 -0.1250 -0.2871
79087SOL    HW148986  12.031  13.017   8.837 -0.8178 -1.4062 -0.9798
79087SOL    HW248987  12.159  13.012   8.756 -1.0762 -0.4700 -1.4669
79088SOL     OW48988  12.458   5.161   6.023  0.3691 -0.1265  0.4037
79088SOL    HW148989  12.466   5.140   6.116 -1.2441  0.0876  0.6188
79088SOL    HW248990  12.368   5.140   6.002  0.3830  0.9469 -0.8276
79089SOL     OW48991   9.264   9.680  13.476  0.1042 -0.2517 -0.6549
79089SOL    HW148992   9.354   9.690  13.506  0.0801 -1.5234 -0.0886
79089SOL    HW248993   9.212   9.674  13.557 -0.6174  1.2521 -0.9623
79090SOL     OW48994   9.108   4.042   0.946  0.2651 -0.3702  0.2712
79090SOL    HW148995   9.134   4.016   1.035  0.9957  1.8744  0.7696
79090SOL    HW248996   9.014   4.023   0.943  0.5576 -2.1042  0.8799
79091SOL     OW48997   4.205   8.610   8.805  0.3143  0.0916 -0.4750
79091SOL    HW148998   4.300   8.620   8.814  0.2149  0.4894  0.2572
79091SOL    HW248999   4.184   8.533   8.858  0.2712 -0.2029 -0.9170
79092SOL     OW49000   5.424   9.080  10.648  0.1501  0.0677 -0.4914
79092SOL    HW149001   5.375   9.011  10.692  0.2731  2.2009  3.3913
79092SOL    HW249002   5.516   9.051  10.653  0.1526  0.2469  0.6230
79093SOL     OW49003   1.611   0.787   5.672  0.1330 -0.0351 -0.0870
79093SOL    HW149004   1.559   0.861   5.640 -1.4757 -0.0655  2.2214
79093SOL    HW249005   1.647   0.817   5.755 -0.4509 -1.7617  0.8316
79094SOL     OW49006   6.273   5.179   6.826  0.1044 -0.4110  0.7646
79094SOL    HW149007   6.213   5.231   6.773  0.6550  2.2709  2.5499
79094SOL    HW249008   6.359   5.197   6.789  0.2569 -0.4384  1.1052
79095SOL     OW49009   4.198   9.539  11.837 -0.2743  0.1651 -0.1919
79095SOL    HW149010   4.214   9.620  11.787 -2.9447 -0.0049 -1.4719
79095SOL    HW249011   4.115   9.506  11.804  0.2184 -2.5957  1.0536
79096SOL     OW49012  12.192  12.170   7.544  0.2730  0.7274 -0.1656
79096SOL    HW149013  12.181  12.086   7.500 -1.5408  0.4387  0.7315
79096SOL    HW249014  12.269  12.208   7.504  0.0042 -0.5034 -1.9759
79097SOL     OW49015  10.059   0.955   8.569 -0.7452  0.4635 -0.4394
79097SOL    HW149016  10.096   1.036   8.533 -0.8962  0.3830 -0.7744
79097SOL    HW249017  10.076   0.961   8.663  1.9758 -0.5274 -0.7929
79098SOL     OW49018  12.308  13.059   5.059 -0.5789 -0.0660 -0.1952
79098SOL    HW149019  12.262  13.140   5.037 -2.5389 -0.8519  0.7520
79098SOL    HW249020  12.324  13.017   4.974 -0.1795  0.9564 -0.6410
79099SOL     OW49021  13.273  13.667   4.672  0.0538  0.3129 -0.4444
79099SOL    HW149022  13.336  13.720   4.623 -0.0367  0.1654 -0.7224
79099SOL    HW249023  13.311  13.659   4.760  0.8050 -0.4365 -0.8268
79100SOL     OW49024   5.928   2.526   1.239 -0.0067 -0.3182 -0.0380
79100SOL    HW149025   5.953   2.543   1.330  0.9702  4.4034 -0.9434
79100SOL    HW249026   5.832   2.531   1.240 -0.0573 -1.1751  0.8287
79101SOL     OW49027  13.696   1.933   0.086  0.3694 -0.3898 -0.2053
79101SOL    HW149028  13.666   1.939   0.177  0.3124 -2.7209 -0.0110
79101SOL    HW249029  13.791   1.919   0.093  0.1760 -1.9711 -0.4031
79102SOL     OW49030   5.332  13.429  12.007  0.2021 -0.0758 -0.4351
79102SOL    HW149031   5.320  13.437  11.912  1.7342  2.7269 -0.4899
79102SOL    HW249032   5.424  13.407  12.018  0.0572 -0.2683  0.4274
79103SOL     OW49033   1.802  12.796  11.334  0.1778 -0.3021 -0.1365
79103SOL    HW149034   1.866  12.748  11.281 -0.3139  0.2907 -1.3008
79103SOL    HW249035   1.817  12.765  11.423  0.5506 -1.8666 -0.7063
79104SOL     OW49036  12.830  12.283  12.893  0.1718 -0.4580 -0.0855
79104SOL    HW149037  12.832  12.366  12.847 -2.0630 -0.8776 -1.0169
79104SOL    HW249038  12.795  12.304  12.980 -0.4446 -0.4363 -0.3402
79105SOL     OW49039   6.611  10.513  10.721  0.2137  0.1491  0.1349
79105SOL    HW149040   6.661  10.443  10.762  0.6799  0.2764 -0.1980
79105SOL    HW249041   6.672  10.552  10.658  0.1141  1.1302  0.6163
79106SOL     OW49042  11.247   0.742   7.689 -0.0052 -0.0331  0.1419
79106SOL    HW149043  11.269   0.650   7.709  0.6269  0.1610  0.3620
79106SOL    HW249044  11.314   0.769   7.626 -1.0645 -0.1617 -1.0833
79107SOL     OW49045  10.940  11.916  13.625  0.4423  0.6308  0.2645
79107SOL    HW149046  10.937  11.926  13.530  4.2048  0.9658  0.0181
79107SOL    HW249047  10.926  11.823  13.640 -0.2533  0.5854 -0.6132
79108SOL     OW49048  12.362   6.328  13.643  0.1469  0.3555  0.0010
79108SOL    HW149049  12.355   6.423  13.633 -1.0737  0.1243 -2.1465
79108SOL    HW249050  12.297   6.306  13.709 -1.2902  0.8315 -1.1974
79109SOL     OW49051   5.453   1.403   5.274  0.5174  0.1810  0.1720
79109SOL    HW149052   5.448   1.316   5.313  3.3186  0.0395  0.4029
79109SOL    HW249053   5.406   1.459   5.336 -0.4433 -0.9754  0.5358
79110SOL     OW49054  10.173   9.335   1.774 -0.3366 -0.2890  0.3810
79110SOL    HW149055  10.100   9.289   1.733 -0.5290 -0.8535  1.3372
79110SOL    HW249056  10.199   9.279   1.848  0.2715  0.4945  0.7788
79111SOL     OW49057   1.357  12.047  13.203 -0.4414 -0.2244  0.7684
79111SOL    HW149058   1.417  11.980  13.237  0.3676  0.2218  0.2675
79111SOL    HW249059   1.281  11.998  13.172 -0.4593 -0.7834  1.6496
79112SOL     OW49060  10.763   3.491   1.877 -0.2183  0.2131  0.1792
79112SOL    HW149061  10.730   3.421   1.932  0.4431  0.2389  0.6245
79112SOL    HW249062  10.693   3.508   1.815 -0.9329  0.1013  0.9382
79113SOL     OW49063  12.470   4.757   5.216 -0.3403 -0.2758  0.0905
79113SOL    HW149064  12.530   4.700   5.264 -0.6192 -0.6750 -0.0337
79113SOL    HW249065  12.396   4.770   5.275  0.2755  1.0052  0.6409
79114SOL     OW49066  11.377  11.673  11.892  0.5525  0.7549 -0.6430
79114SOL    HW149067  11.415  11.587  11.876 -0.2757  0.5650 -1.6235
79114SOL    HW249068  11.385  11.685  11.987 -0.6831 -1.0368 -0.2655
79115SOL     OW49069   2.914   0.854   7.528 -0.9224 -0.4213 -0.3418
79115SOL    HW149070   2.869   0.867   7.611 -2.5489 -0.3956 -1.1816
79115SOL    HW249071   2.868   0.912   7.467 -1.2224 -2.0265 -1.7263
79116SOL     OW49072  11.136  10.839  12.978 -0.3158  0.1746  0.3754
79116SOL    HW149073  11.099  10.863  12.893 -0.5644 -0.8561  0.1862
79116SOL    HW249074  11.223  10.880  12.979  0.7581 -1.8907 -1.4507
79117SOL     OW49075   5.549  12.385  12.138 -0.5239  0.3658 -0.1455
79117SOL    HW149076   5.515  12.298  12.158  0.6710 -0.0223  0.3317
79117SOL    HW249077   5.557  12.428  12.224 -1.5735  1.1419 -0.4180
79118SOL     OW49078   6.703   6.837   0.192 -0.5369  0.6267  0.1163
79118SOL    HW149079   6.748   6.754   0.205 -0.1531  0.3915 -2.3439
79118SOL    HW249080   6.742   6.896   0.257  3.4414  0.4434 -1.8097
79119SOL     OW49081   0.962   4.229   6.714  0.1455 -0.1252  0.2469
79119SOL    HW149082   1.047   4.268   6.731 -0.1145  0.1331  0.9955
79119SOL    HW249083   0.968   4.194   6.625  0.8163  0.4458  0.0673
79120SOL     OW49084  10.437  11.761   0.992 -0.2440  0.1225  0.2419
79120SOL    HW149085  10.430  11.781   0.899  0.4152 -0.0086  0.1562
79120SOL    HW249086  10.420  11.667   0.997 -2.6063  0.5128  0.5542
79121SOL     OW49087  13.617   3.628  12.341  0.1463 -0.0983  0.7450
79121SOL    HW149088  13.655   3.641  12.428 -0.7112  0.5018  1.0512
79121SOL    HW249089  13.557   3.554  12.352 -0.2218  0.1989  0.7588
79122SOL     OW49090   1.462  12.960  11.131  0.0218  0.1785 -0.0616
79122SOL    HW149091   1.489  12.952  11.039  0.9203  2.8080 -0.1259
79122SOL    HW249092   1.393  13.026  11.129 -0.0411  0.1610  1.1280
79123SOL     OW49093   2.554   2.103   6.940  0.1212 -0.3665 -0.5798
79123SOL    HW149094   2.575   2.014   6.967  0.4440  0.0782  0.6873
79123SOL    HW249095   2.460   2.113   6.957  0.3221 -0.0881  0.4512
79124SOL     OW49096  11.906   5.285   8.955  0.1251  0.2730 -0.1504
79124SOL    HW149097  11.969   5.249   8.894  0.5958  2.1437 -0.8190
79124SOL    HW249098  11.838   5.217   8.962  1.1324 -0.8680 -1.0505
79125SOL     OW49099   1.797   2.421   4.757  0.5286 -0.8171  0.0439
79125SOL    HW149100   1.825   2.342   4.802  1.0869 -0.5707  0.1344
79125SOL    HW249101   1.829   2.493   4.812 -0.5067 -0.5228  0.2900
79126SOL     OW49102   0.968   1.935  12.707 -0.3889  0.4160 -0.4433
79126SOL    HW149103   1.056   1.967  12.687 -0.4749  0.0307 -1.4676
79126SOL    HW249104   0.960   1.947  12.802  0.7838  0.3953 -0.3252
79127SOL     OW49105   3.970  12.668  12.320  0.1443  0.1136  0.6249
79127SOL    HW149106   4.053  12.662  12.368 -0.2374  1.8385  1.5534
79127SOL    HW249107   3.903  12.671  12.388 -0.7913 -1.8765 -0.1157
79128SOL     OW49108   8.698  12.204   3.884  0.7616  0.1119 -0.4211
79128SOL    HW149109   8.623  12.242   3.839  0.4148 -0.5378 -0.4056
79128SOL    HW249110   8.741  12.279   3.926 -0.0762  0.4506 -0.1382
79129SOL     OW49111  12.560   9.657  10.415  0.0258 -0.0181  0.0499
79129SOL    HW149112  12.566   9.709  10.335 -0.2045  0.1325  0.1301
79129SOL    HW249113  12.491   9.700  10.467  1.2629  0.8554  1.0364
79130SOL     OW49114   2.861  12.452   9.061 -0.5829 -0.4378  0.1976
79130SOL    HW149115   2.889  12.527   9.113  0.1513 -1.4117  1.2457
79130SOL    HW249116   2.936  12.432   9.005  0.1231 -1.8064  1.5785
79131SOL     OW49117   9.148  10.142   8.582 -0.0657 -0.1320  0.2052
79131SOL    HW149118   9.235  10.107   8.599 -0.6434 -2.0359 -0.4833
79131SOL    HW249119   9.099  10.126   8.663 -0.6637 -2.1731 -0.4842
79132SOL     OW49120   2.691   9.977  12.952 -0.2226  0.3589 -0.2507
79132SOL    HW149121   2.688   9.881  12.953  1.7428  0.2298  1.9610
79132SOL    HW249122   2.784   9.997  12.946 -0.6321  2.1708 -1.0147
79133SOL     OW49123   7.500   3.448  11.594  0.2782 -0.4619 -0.6486
79133SOL    HW149124   7.405   3.445  11.582  0.2678  0.5865 -0.9677
79133SOL    HW249125   7.534   3.372  11.547 -0.4654 -1.3314  0.1946
79134SOL     OW49126   9.075   7.147   9.449 -0.2927  0.0243  0.4894
79134SOL    HW149127   8.982   7.170   9.446 -0.7143 -1.3104 -3.6288
79134SOL    HW249128   9.122   7.229   9.436 -0.9946  0.4111  0.3932
79135SOL     OW49129   8.136   4.247   3.167 -0.3529  0.1774  0.2357
79135SOL    HW149130   8.125   4.173   3.227  1.1439 -0.6510 -0.4852
79135SOL    HW249131   8.229   4.248   3.146 -1.0425 -0.7889 -3.6058
79136SOL     OW49132   1.742   3.021   4.830  0.0187  0.2680 -0.0626
79136SOL    HW149133   1.804   3.076   4.782 -0.0732 -0.3662 -0.9376
79136SOL    HW249134   1.795   2.952   4.869  0.1507  1.0115  1.1410
79137SOL     OW49135  11.626  11.787   8.900 -0.5954  0.5271  0.4092
79137SOL    HW149136  11.610  11.749   8.987 -3.0507 -0.7821 -0.5229
79137SOL    HW249137  11.642  11.880   8.918 -0.5458  0.2101  2.2832
79138SOL     OW49138  11.853   4.326   9.588  0.5773  0.7189  0.7028
79138SOL    HW149139  11.937   4.371   9.584 -0.3452  2.5122  0.7547
79138SOL    HW249140  11.871   4.248   9.641  2.4763  0.3729 -0.3529
79139SOL     OW49141  11.342   5.609  11.329 -0.6321  0.7570 -0.3174
79139SOL    HW149142  11.257   5.601  11.287 -1.6319  2.0101  1.3649
79139SOL    HW249143  11.337   5.551  11.405 -0.6737  2.1108  0.7642
79140SOL     OW49144   2.981   9.842   2.481 -0.4002  0.9406 -0.0024
79140SOL    HW149145   2.985   9.757   2.524 -0.9765  1.2019  0.5752
79140SOL    HW249146   2.966   9.905   2.552  1.0710  1.6486 -0.2796
79141SOL     OW49147  13.531   9.598   8.189 -0.1212  0.0223  0.0651
79141SOL    HW149148  13.550   9.652   8.112  0.1674 -0.5590 -0.2866
79141SOL    HW249149  13.612   9.549   8.204  0.0839  0.6917  1.2215
79142SOL     OW49150  10.219  10.905   3.494  0.1720 -0.4421 -0.3518
79142SOL    HW149151  10.272  10.983   3.511  1.1993 -0.8796 -1.3977
79142SOL    HW249152  10.129  10.935   3.502  0.5475  0.8188 -0.5729
79143SOL     OW49153   5.535  12.398   8.778 -0.0484 -0.2310  0.6597
79143SOL    HW149154   5.444  12.381   8.757  0.4675  0.2599 -2.5334
79143SOL    HW249155   5.582  12.320   8.748  0.6467 -0.3501  1.9829
79144SOL     OW49156   5.806   8.049   2.169 -0.0230 -0.0893 -0.2183
79144SOL    HW149157   5.711   8.033   2.167 -0.2365  0.7206  1.5505
79144SOL    HW249158   5.826   8.089   2.085 -1.6697  1.7351  0.1879
79145SOL     OW49159   0.893   4.860  13.382  0.1466  0.4611  0.2667
79145SOL    HW149160   0.847   4.910  13.314  0.6627  1.8533  0.9186
79145SOL    HW249161   0.873   4.906  13.463  1.6707  0.3439  0.7273
79146SOL     OW49162  12.792   9.054  12.506  0.2855  0.2915  0.1494
79146SOL    HW149163  12.778   8.973  12.556  2.0565  0.5692  1.1883
79146SOL    HW249164  12.878   9.085  12.534 -0.0039  2.1326 -0.8297
79147SOL     OW49165  11.604  10.010   6.757  0.2397  0.5678 -0.6810
79147SOL    HW149166  11.520   9.967   6.770  1.2095 -1.1073  0.3313
79147SOL    HW249167  11.592  10.098   6.793 -0.6156 -0.1566  0.8725
79148SOL     OW49168   5.610   2.013   8.519 -0.4825  0.3227 -0.5238
79148SOL    HW149169   5.550   2.012   8.445 -0.0320  0.8367 -0.9043
79148SOL    HW249170   5.605   2.102   8.554 -0.0686  0.3243 -0.4579
79149SOL     OW49171  13.625  10.610  13.291  0.0733  0.0118  0.4482
79149SOL    HW149172  13.696  10.675  13.293 -0.4755  0.6204  0.9907
79149SOL    HW249173  13.659  10.539  13.238  1.6298 -0.3322  1.8144
79150SOL     OW49174   2.282  13.528   8.218 -0.5640 -0.0133 -0.7360
79150SOL    HW149175   2.243  13.573   8.293 -0.0845  0.2489 -0.6390
79150SOL    HW249176   2.208  13.493   8.169 -0.8788 -0.3368 -0.0459
79151SOL     OW49177   7.108   9.766   0.459 -0.0415  0.3335 -0.3486
79151SOL    HW149178   7.095   9.689   0.516 -2.3354  1.0658  0.2109
79151SOL    HW249179   7.156   9.828   0.513  0.7386 -0.2168 -0.3873
79152SOL     OW49180  11.681  11.418   5.986  0.1748 -0.3225 -0.1402
79152SOL    HW149181  11.703  11.331   6.020 -0.1180  0.1664  1.3464
79152SOL    HW249182  11.740  11.477   6.031 -0.0435  0.3355 -0.6994
79153SOL     OW49183  10.930  11.316   4.467  0.2239  0.4016 -0.0060
79153SOL    HW149184  10.987  11.277   4.401 -0.1798  0.6293 -0.4934
79153SOL    HW249185  10.873  11.375   4.418  1.1336  1.9807  0.7568
79154SOL     OW49186   2.577  11.227   0.925 -0.1181 -0.1120  0.8218
79154SOL    HW149187   2.632  11.303   0.946  1.8788 -0.4324 -2.6021
79154SOL    HW249188   2.632  11.151   0.943  0.0409 -0.5006 -1.1304
79155SOL     OW49189  12.256   5.317   4.270  0.3988  0.7897  0.2628
79155SOL    HW149190  12.290   5.319   4.181 -1.2548  0.8866 -0.3943
79155SOL    HW249191  12.335   5.320   4.325  1.6093 -1.9514 -1.1375
79156SOL     OW49192   6.023   2.312   9.944  0.3089 -0.0435 -0.2887
79156SOL    HW149193   6.082   2.386   9.953  1.5923 -1.0157 -0.4786
79156SOL    HW249194   6.013   2.277  10.032 -1.3002  1.0648  0.0138
79157SOL     OW49195   4.679   3.901   1.701 -0.0283  0.2353  0.9226
79157SOL    HW149196   4.593   3.863   1.721  0.3872 -1.1903  0.1919
79157SOL    HW249197   4.741   3.831   1.722  0.8413  0.7452  0.1266
79158SOL     OW49198   3.447   7.239   8.699 -0.4864  0.0672  0.2738
79158SOL    HW149199   3.411   7.151   8.687  0.1698 -0.2677  0.7063
79158SOL    HW249200   3.374   7.290   8.734 -0.3543 -0.8103  1.9687
79159SOL     OW49201  12.810   4.802  13.434  0.5723 -0.1515  0.0992
79159SOL    HW149202  12.721   4.814  13.400  0.8403  0.2864 -0.4735
79159SOL    HW249203  12.856   4.757  13.363  0.9357  0.0636  0.1976
79160SOL     OW49204   4.766   1.635  12.193  0.4713  0.0339  0.0880
79160SOL    HW149205   4.759   1.669  12.282  2.2677  0.6353  0.0361
79160SOL    HW249206   4.787   1.712  12.140 -3.2869  0.2345 -1.3827
79161SOL     OW49207  10.340  12.224   0.564 -0.0167  0.1898 -0.1124
79161SOL    HW149208  10.413  12.168   0.538 -0.4733 -0.3579 -0.2372
79161SOL    HW249209  10.374  12.276   0.636  0.1415 -0.9132  0.6330
79162SOL     OW49210   0.398  11.777   9.221 -0.1243 -0.4741  0.1859
79162SOL    HW149211   0.415  11.694   9.266 -2.3498 -0.5369  1.0342
79162SOL    HW249212   0.426  11.844   9.283  1.2313 -0.5454 -0.3113
79163SOL     OW49213   6.462   2.185   0.799  0.2000  0.5699 -0.0297
79163SOL    HW149214   6.488   2.258   0.743  1.4435  0.1903  0.0287
79163SOL    HW249215   6.466   2.108   0.743 -2.9745  0.6953 -0.6385
79164SOL     OW49216   5.065  10.643  11.422  0.3465 -0.7899  0.0936
79164SOL    HW149217   5.060  10.653  11.517  2.2199 -0.0983  0.1771
79164SOL    HW249218   4.998  10.702  11.388  0.7524  0.2149  0.9699
79165SOL     OW49219   7.943   5.915   9.416  0.1920 -0.1931  0.2107
79165SOL    HW149220   7.887   5.881   9.346  0.1843 -0.4386  0.3352
79165SOL    HW249221   8.009   5.967   9.370 -1.3997  1.9261  0.1886
79166SOL     OW49222   7.776   8.924   4.999 -0.1020 -0.1221 -0.1945
79166SOL    HW149223   7.806   9.006   5.039 -0.0321 -0.7578  1.0966
79166SOL    HW249224   7.704   8.895   5.055  0.6358 -1.5490  0.0546
79167SOL     OW49225   9.639  10.758   3.313 -0.0115 -0.4836 -0.1520
79167SOL    HW149226   9.646  10.854   3.317  0.8278 -0.5459 -0.0721
79167SOL    HW249227   9.677  10.735   3.229 -2.0029 -0.6067 -1.0829
79168SOL     OW49228  12.948  12.067   6.552  0.0060 -0.1762  0.2126
79168SOL    HW149229  13.007  12.130   6.509 -0.5811  0.4404  0.2961
79168SOL    HW249230  12.860  12.100   6.534 -0.3093 -0.8662  0.4366
79169SOL     OW49231   3.869   2.956   0.113  0.4408 -0.5354 -0.0709
79169SOL    HW149232   3.803   2.934   0.179  0.9408 -0.8114  0.3419
79169SOL    HW249233   3.916   2.874   0.098 -0.2718 -0.7174 -1.4760
79170SOL     OW49234  13.480   8.343   7.232 -0.0563 -0.1604  0.3297
79170SOL    HW149235  13.501   8.367   7.142 -1.2065  1.6497  0.4813
79170SOL    HW249236  13.517   8.256   7.243 -1.4723 -1.2386 -2.4738
79171SOL     OW49237  13.085  10.923  12.584  0.2968 -0.6408  0.1602
79171SOL    HW149238  13.173  10.944  12.615  1.3196 -0.3965 -2.6016
79171SOL    HW249239  13.073  10.978  12.506 -2.8118  0.2118  1.0739
79172SOL     OW49240   1.608   1.037   6.048  0.3539  0.0904  0.3181
79172SOL    HW149241   1.656   0.969   6.000  0.7154  1.3901 -1.2865
79172SOL    HW249242   1.624   1.117   5.997 -0.4177  1.2939  1.8858
79173SOL     OW49243   2.023  11.823  12.897 -0.1081 -0.0495 -0.0131
79173SOL    HW149244   1.956  11.758  12.919 -0.9643  0.8914  0.2447
79173SOL    HW249245   2.078  11.829  12.975 -0.7999  0.4463  0.4556
79174SOL     OW49246  12.935   8.349   9.586  0.4225  0.2693 -0.0083
79174SOL    HW149247  12.954   8.442   9.599  0.4662  0.1262  0.9899
79174SOL    HW249248  12.860   8.348   9.526  1.5451  0.9012 -1.4968
79175SOL     OW49249   6.302   1.186   6.357 -0.4508 -0.1619  0.1601
79175SOL    HW149250   6.230   1.205   6.417  0.6360  2.1892  0.8542
79175SOL    HW249251   6.292   1.250   6.286 -0.4205 -1.4285 -1.0310
79176SOL     OW49252   4.826   9.977   3.417 -0.8297 -0.5418  0.2366
79176SOL    HW149253   4.899   9.976   3.355  0.0777  2.6733  1.0660
79176SOL    HW249254   4.795   9.886   3.419  0.7303 -1.2899 -2.9313
79177SOL     OW49255  10.196   5.696   1.222  0.0892 -0.4830 -0.0123
79177SOL    HW149256  10.288   5.724   1.219 -0.1929  0.4592 -0.0427
79177SOL    HW249257  10.169   5.692   1.130 -0.3497  0.8076  0.0375
79178SOL     OW49258  10.508   8.441   2.193 -0.2110 -0.1860  0.9984
79178SOL    HW149259  10.422   8.424   2.154  0.0198  2.6386 -1.0942
79178SOL    HW249260  10.495   8.522   2.242  1.4437  0.9076 -0.2711
79179SOL     OW49261  10.088   8.705   4.222 -0.6836  0.3974  0.1993
79179SOL    HW149262  10.007   8.655   4.221  0.6078 -1.8301  0.5104
79179SOL    HW249263  10.077   8.768   4.294 -1.5368 -0.9374  1.2866
79180SOL     OW49264   5.184   0.062   2.762  0.3959 -0.1650  0.0370
79180SOL    HW149265   5.197  -0.026   2.725  1.5346  0.5923 -1.4413
79180SOL    HW249266   5.094   0.061   2.794  0.5792 -2.0642  0.6085
79181SOL     OW49267   5.118  10.114  13.279  0.0567 -0.1298 -0.5389
79181SOL    HW149268   5.143  10.188  13.334 -0.0946 -1.5662  1.5968
79181SOL    HW249269   5.080  10.154  13.200  1.6123  2.0226 -0.2764
79182SOL     OW49270   0.531   4.259  10.033  0.4736 -0.5750 -0.3183
79182SOL    HW149271   0.601   4.302   9.984 -0.3964  0.9953 -0.2521
79182SOL    HW249272   0.566   4.172  10.053  2.2430  0.0192 -0.6120
79183SOL     OW49273   6.940   1.389   7.019 -0.2232 -0.3142  0.4045
79183SOL    HW149274   6.899   1.474   7.002  0.1592  0.1479  1.7277
79183SOL    HW249275   6.869   1.334   7.054 -0.1882 -0.1677  0.7024
79184SOL     OW49276  11.188  11.082   3.027  0.0175  0.6587 -0.6620
79184SOL    HW149277  11.243  11.133   2.968 -2.3221  5.6839  0.9591
79184SOL    HW249278  11.101  11.083   2.986 -0.5720 -0.0668  0.5254
79185SOL     OW49279   2.056   5.978   8.159 -0.2818  0.9516 -0.4318
79185SOL    HW149280   2.071   5.897   8.208 -1.8199 -1.4071 -3.4906
79185SOL    HW249281   2.136   6.029   8.172  0.6767 -0.9167  1.8176
79186SOL     OW49282  13.310  10.817   5.504  0.6318  0.1949  0.1842
79186SOL    HW149283  13.216  10.831   5.491  0.7675  1.6262  0.5507
79186SOL    HW249284  13.316  10.730   5.545 -0.3244 -1.0404 -2.0791
79187SOL     OW49285   4.393   8.991  11.647  0.1126  0.3123 -0.1797
79187SOL    HW149286   4.428   8.905  11.667  1.2032  0.5814 -0.8609
79187SOL    HW249287   4.298   8.978  11.643  0.1968 -0.6607  0.5872
79188SOL     OW49288   4.575   6.342   9.345  0.1965  0.7820  0.1139
79188SOL    HW149289   4.625   6.261   9.359  0.3814  0.7591 -0.6296
79188SOL    HW249290   4.568   6.381   9.432 -0.7380 -0.5153  0.6576
79189SOL     OW49291  10.122   4.327   9.146 -0.0510 -0.3223 -0.5619
79189SOL    HW149292  10.049   4.281   9.188  1.3289 -1.7182  0.3932
79189SOL    HW249293  10.080   4.386   9.084 -2.0374 -0.3686  0.6574
79190SOL     OW49294   1.507   5.949  10.078  0.0847 -0.7371  0.1738
79190SOL    HW149295   1.474   5.889  10.011  1.7388 -0.4808 -0.9293
79190SOL    HW249296   1.576   5.999  10.034  1.5844 -0.8925  2.1781
79191SOL     OW49297   8.085   1.519   7.066 -0.4940  0.6911 -0.5014
79191SOL    HW149298   8.017   1.530   7.000 -1.2804  1.2376  0.3664
79191SOL    HW249299   8.053   1.568   7.142  0.8253  0.8649 -0.0292
79192SOL     OW49300   2.047   9.329   8.842  0.3872 -0.7218 -0.2625
79192SOL    HW149301   2.036   9.236   8.823  1.0415 -0.4043 -2.4616
79192SOL    HW249302   2.121   9.332   8.904 -0.0036 -1.6802  0.2608
79193SOL     OW49303  12.388   4.902   5.526 -0.2853  0.0026  0.5744
79193SOL    HW149304  12.303   4.879   5.487  0.7791  1.0273 -2.7431
79193SOL    HW249305  12.373   4.987   5.567 -1.0987 -0.2824  0.8835
79194SOL     OW49306   4.312   2.148  10.710  0.0894 -0.4320 -0.4196
79194SOL    HW149307   4.376   2.085  10.744 -0.0221  0.5154  1.6690
79194SOL    HW249308   4.237   2.141  10.768  0.3182  2.0393  0.2965
79195SOL     OW49309   8.285   6.352   1.257 -0.1549 -0.2376 -0.2890
79195SOL    HW149310   8.213   6.292   1.238 -0.3268 -0.0239 -0.3227
79195SOL    HW249311   8.248   6.439   1.243  0.2786 -0.1398 -0.8988
79196SOL     OW49312  10.512  10.794  13.338 -0.1019  0.1178  0.0506
79196SOL    HW149313  10.495  10.795  13.244  1.3355 -0.5960 -0.2363
79196SOL    HW249314  10.459  10.722  13.371  0.6844 -0.7193 -0.4903
79197SOL     OW49315  13.265  10.107   8.709  0.7063 -0.5131  0.6834
79197SOL    HW149316  13.352  10.070   8.726  1.3182  1.2007  1.5446
79197SOL    HW249317  13.281  10.179   8.649 -0.5105 -1.7676 -1.2603
79198SOL     OW49318   7.629   2.046  11.167  0.0262  0.4014  0.3946
79198SOL    HW149319   7.704   2.008  11.211  1.3809  0.9851 -1.2938
79198SOL    HW249320   7.611   1.987  11.094  0.5066  1.5645 -0.7125
79199SOL     OW49321   4.583  10.996   2.868  0.0902  0.4062 -0.3278
79199SOL    HW149322   4.597  10.902   2.882  1.4322  0.2022 -2.5709
79199SOL    HW249323   4.659  11.038   2.907  0.7913  0.3151 -1.5419
79200SOL     OW49324   1.529   7.326   7.412  0.0214  0.1344  0.1741
79200SOL    HW149325   1.579   7.355   7.336 -1.1820  1.8415 -0.0336
79200SOL    HW249326   1.472   7.257   7.378 -0.7993  1.1581 -0.6211
79201SOL     OW49327  13.664   8.247   5.959  0.6220 -0.2752  0.2045
79201SOL    HW149328  13.748   8.283   5.932 -0.2652  1.4717 -0.3468
79201SOL    HW249329  13.626   8.314   6.017 -1.2534 -0.0871 -1.1506
79202SOL     OW49330   7.777  10.875  12.039  0.3119  0.0371  0.1471
79202SOL    HW149331   7.758  10.812  12.108  0.4728 -0.8084 -0.5720
79202SOL    HW249332   7.711  10.858  11.972 -0.3575  1.3940  0.4174
79203SOL     OW49333   9.651   7.175   5.511 -0.0628 -0.3739  0.4459
79203SOL    HW149334   9.728   7.165   5.568  0.6220 -0.2913 -0.4427
79203SOL    HW249335   9.585   7.118   5.551  0.6747 -0.9741  0.8538
79204SOL     OW49336   5.349   7.300   8.696 -0.5902  0.3058  0.1196
79204SOL    HW149337   5.384   7.385   8.724  1.5123 -0.6145  0.4010
79204SOL    HW249338   5.265   7.293   8.742  0.2262  1.2602  1.8468
79205SOL     OW49339   0.172   7.301   1.822 -0.2230  0.4967  0.0645
79205SOL    HW149340   0.092   7.259   1.855 -0.1469 -0.3125 -0.7300
79205SOL    HW249341   0.148   7.392   1.808 -0.9060  0.3367  0.1574
79206SOL     OW49342   0.049   2.361   7.762  0.0316  0.0276  0.0395
79206SOL    HW149343   0.122   2.401   7.715 -0.6530 -0.0250 -1.0982
79206SOL    HW249344  -0.029   2.389   7.714 -0.7510  0.4830  1.5145
79207SOL     OW49345   3.076   0.087   3.547  0.0286 -0.1720  0.1004
79207SOL    HW149346   3.026   0.027   3.602  1.7409 -1.1634  0.6451
79207SOL    HW249347   3.093   0.162   3.602 -1.3380  0.4762 -0.2943
79208SOL     OW49348   2.319   0.497  13.630  0.2362 -0.4991  0.5299
79208SOL    HW149349   2.370   0.452  13.696  1.2297  0.6183  0.5471
79208SOL    HW249350   2.324   0.440  13.553  0.4079 -1.0184  0.9194
79209SOL     OW49351  12.268   1.659   8.449 -0.1135 -0.2840 -1.0417
79209SOL    HW149352  12.271   1.632   8.357 -0.6633  1.4453 -1.6067
79209SOL    HW249353  12.250   1.753   8.446  3.9159  0.7682  0.7155
79210SOL     OW49354   7.284   9.149  10.593  0.5981 -0.3006 -0.0187
79210SOL    HW149355   7.218   9.216  10.611  3.0015  1.8739  1.5054
79210SOL    HW249356   7.316   9.123  10.680  0.6200 -2.5818 -0.6348
79211SOL     OW49357   1.737   3.713  12.600  0.2057  0.9031 -0.4204
79211SOL    HW149358   1.814   3.659  12.616 -0.6981 -0.4564 -0.5494
79211SOL    HW249359   1.752   3.749  12.512  0.1421 -0.3441 -0.9663
79212SOL     OW49360   9.951   9.099   5.241 -0.8467  0.1233 -0.1119
79212SOL    HW149361   9.885   9.114   5.308  0.2438  1.6821  0.6476
79212SOL    HW249362   9.963   9.184   5.198 -1.2505 -0.7429 -2.0782
79213SOL     OW49363   5.312   3.800   2.302  0.6289 -0.3161 -0.3844
79213SOL    HW149364   5.376   3.871   2.300  0.9461 -0.5648  0.4936
79213SOL    HW249365   5.239   3.834   2.354  0.3894 -0.3159 -0.7168
79214SOL     OW49366   8.542   1.947  10.289 -0.4647  0.4478 -0.5372
79214SOL    HW149367   8.637   1.940  10.280 -0.4722 -0.7693 -0.0235
79214SOL    HW249368   8.509   1.948  10.200  0.0118  0.2512 -0.7212
79215SOL     OW49369   3.676  10.811  10.288  0.1621  0.1856  0.3852
79215SOL    HW149370   3.654  10.853  10.372  1.1909 -1.6694  1.6572
79215SOL    HW249371   3.771  10.803  10.289  0.0176 -2.6622  0.5431
79216SOL     OW49372   3.156   9.230   2.198 -0.2236  0.2416 -0.0074
79216SOL    HW149373   3.166   9.301   2.262 -0.9800  1.8458 -1.5867
79216SOL    HW249374   3.180   9.270   2.114 -3.8816 -0.2893 -1.5096
79217SOL     OW49375  10.364  13.508   6.252  0.4702 -0.2729 -0.1757
79217SOL    HW149376  10.426  13.490   6.322 -0.8777  1.3827  1.5484
79217SOL    HW249377  10.284  13.536   6.297 -0.1284  1.8501 -2.3413
79218SOL     OW49378   0.434  13.117  13.588 -0.3833 -0.1060 -0.0916
79218SOL    HW149379   0.364  13.092  13.649 -0.1247  2.7456  1.5476
79218SOL    HW249380   0.505  13.054  13.606 -0.8310 -0.1762  1.5923
79219SOL     OW49381   9.086   5.419  11.687 -0.2206  0.2302 -0.4686
79219SOL    HW149382   9.154   5.426  11.754 -1.3661  0.9788  0.6722
79219SOL    HW249383   9.092   5.329  11.656  0.6160 -0.0176  0.3514
79220SOL     OW49384   0.711   8.642   1.082 -0.2445  0.2128  0.0830
79220SOL    HW149385   0.661   8.692   1.018 -0.1726  0.1863  0.0047
79220SOL    HW249386   0.798   8.632   1.042 -0.2484  0.0555  0.1141
79221SOL     OW49387  10.258   1.110  11.064  0.3966  0.2555  0.7695
79221SOL    HW149388  10.316   1.127  10.989 -1.6777  0.1303 -0.9637
79221SOL    HW249389  10.206   1.035  11.036 -1.6113  1.2696  1.5885
79222SOL     OW49390  11.342   2.799   8.908  0.0890  0.6045 -0.5946
79222SOL    HW149391  11.274   2.864   8.893  0.7774  1.9184  1.6107
79222SOL    HW249392  11.309   2.746   8.981  0.3206 -0.4073 -1.2063
79223SOL     OW49393   6.183   7.551  10.242  0.3254 -0.3933  0.0109
79223SOL    HW149394   6.122   7.536  10.170 -0.1412 -0.2101  0.3597
79223SOL    HW249395   6.228   7.468  10.254 -0.5468 -0.8257  0.3790
79224SOL     OW49396  13.123   3.256   4.816 -0.2630 -0.4519  0.5574
79224SOL    HW149397  13.060   3.228   4.750 -0.6014 -1.2398  1.2021
79224SOL    HW249398  13.092   3.343   4.844 -0.7926 -0.6289  0.5251
79225SOL     OW49399  13.287   3.913  11.042 -0.0089 -0.2021  0.6016
79225SOL    HW149400  13.289   3.970  11.120 -0.9315 -0.0605  0.5260
79225SOL    HW249401  13.202   3.870  11.046 -0.3899  0.3963 -0.7496
79226SOL     OW49402   8.628   9.193   6.750  0.0679 -0.4872  0.8130
79226SOL    HW149403   8.644   9.235   6.834 -0.0936 -0.0344  0.6180
79226SOL    HW249404   8.598   9.104   6.773  1.3413 -0.8290  1.1949
79227SOL     OW49405   6.329  12.863  10.977  0.0701  0.0592  0.1633
79227SOL    HW149406   6.234  12.866  10.989  0.1678 -0.1497  1.0905
79227SOL    HW249407   6.355  12.955  10.971 -0.2695  0.1020 -0.8795
79228SOL     OW49408   7.719   3.267   8.291  0.8718  0.0536 -0.1514
79228SOL    HW149409   7.747   3.257   8.382  1.0108 -0.1922 -0.2180
79228SOL    HW249410   7.632   3.227   8.288  1.1247 -0.5079 -0.2572
79229SOL     OW49411  11.984   9.064   6.914  0.2829  0.2700 -0.1672
79229SOL    HW149412  11.923   8.990   6.918  1.4965 -0.9126 -1.8996
79229SOL    HW249413  12.041   9.053   6.989  0.9088 -1.0228 -0.8001
79230SOL     OW49414   3.681   5.330   8.251  0.3307  0.0591 -0.0009
79230SOL    HW149415   3.658   5.350   8.161 -0.5475 -2.1058 -0.3300
79230SOL    HW249416   3.739   5.254   8.244  1.9705  1.1384  1.1873
79231SOL     OW49417  12.892   6.239   9.671  0.2055  0.0394 -0.0786
79231SOL    HW149418  12.848   6.296   9.609 -0.0476  1.4131  1.2930
79231SOL    HW249419  12.949   6.297   9.721 -0.4849 -0.7551  1.7435
79232SOL     OW49420   0.225   1.701  10.823 -0.0673 -0.4517  0.3130
79232SOL    HW149421   0.212   1.612  10.789  0.5704 -1.1901  1.9236
79232SOL    HW249422   0.274   1.746  10.754  2.6824 -2.4008  0.8156
79233SOL     OW49423   5.538  10.393   2.721 -0.1888 -0.1170 -0.0232
79233SOL    HW149424   5.562  10.333   2.792 -0.0389 -1.8220 -1.4344
79233SOL    HW249425   5.616  10.397   2.666 -0.8773 -0.2969 -1.0440
79234SOL     OW49426   3.597   8.373   5.610 -0.4635 -0.0004  0.6271
79234SOL    HW149427   3.612   8.356   5.703  0.0775 -1.9407  0.2328
79234SOL    HW249428   3.679   8.347   5.568 -0.9308  0.2376 -0.4587
79235SOL     OW49429  11.112   6.086   8.948  0.3305 -0.7567 -0.2369
79235SOL    HW149430  11.073   6.011   8.992  0.4587 -0.0962  1.0285
79235SOL    HW249431  11.204   6.083   8.971  0.7343 -1.2867 -1.7639
79236SOL     OW49432   4.359   4.671   1.116 -0.1376 -0.5903  0.0755
79236SOL    HW149433   4.298   4.701   1.184  0.0587 -0.7537  0.3232
79236SOL    HW249434   4.313   4.689   1.033 -0.3939 -0.4315  0.2508
79237SOL     OW49435   2.409   3.530   3.717 -0.2632  0.2019 -0.0093
79237SOL    HW149436   2.412   3.584   3.638  0.3122  0.3146  0.0840
79237SOL    HW249437   2.387   3.442   3.685  1.7013 -0.1396 -0.5163
79238SOL     OW49438   0.498  12.939   0.196 -0.4290  0.9055 -0.2018
79238SOL    HW149439   0.516  12.918   0.288 -2.5506  1.6024  0.4123
79238SOL    HW249440   0.544  13.021   0.182  0.4859  0.4504  0.0048
79239SOL     OW49441   6.388   1.876   9.826  0.3414  0.3327 -0.0257
79239SOL    HW149442   6.384   1.926   9.744 -0.8044  0.7613  0.2831
79239SOL    HW249443   6.373   1.941   9.895  0.0352 -0.2341  0.4532
79240SOL     OW49444   8.486  11.978   6.896  0.0111  0.3638 -0.2967
79240SOL    HW149445   8.522  11.986   6.985  2.1193 -0.3073 -1.0171
79240SOL    HW249446   8.393  11.995   6.906 -0.0646 -1.0865  2.2916
79241SOL     OW49447   7.812  11.521  11.226 -0.4129 -0.0878 -0.0857
79241SOL    HW149448   7.848  11.608  11.242  0.7468 -0.7234  0.8968
79241SOL    HW249449   7.729  11.520  11.275  0.2609 -0.0015  1.0828
79242SOL     OW49450  10.918   1.657   4.794  0.2507  0.0283 -0.3343
79242SOL    HW149451  10.998   1.702   4.821  1.1939 -2.0012  0.4800
79242SOL    HW249452  10.948   1.573   4.760 -1.4650 -0.2751 -1.2398
79243SOL     OW49453  13.659  11.326   6.238 -0.1066 -0.2942  0.0905
79243SOL    HW149454  13.747  11.363   6.244  0.3606 -0.8945 -2.0500
79243SOL    HW249455  13.649  11.305   6.145 -2.3140 -0.7460  0.3878
79244SOL     OW49456   4.432  13.635  11.270  0.0438 -0.1140  0.1801
79244SOL    HW149457   4.344  13.668  11.292 -0.4025  0.2457 -1.9882
79244SOL    HW249458   4.419  13.542  11.251  0.2388 -0.1844  0.3849
79245SOL     OW49459   1.592   7.510   5.349 -0.7689  0.4328  0.1909
79245SOL    HW149460   1.669   7.461   5.377  0.4028  2.7642  1.3933
79245SOL    HW249461   1.518   7.456   5.375  0.4262 -1.6255 -0.4830
79246SOL     OW49462   0.131   3.353   2.061  0.2180  0.0579 -0.1076
79246SOL    HW149463   0.060   3.375   2.120 -0.5425  0.3122 -1.0872
79246SOL    HW249464   0.127   3.420   1.993  1.3379  0.0185 -0.2262
79247SOL     OW49465   7.436   1.415   0.903 -0.0605 -0.1308 -0.6954
79247SOL    HW149466   7.351   1.380   0.930  0.4362 -0.6410  0.2867
79247SOL    HW249467   7.428   1.429   0.809 -0.2110 -3.2088 -1.2529
79248SOL     OW49468  11.917   6.703  10.905 -1.0498  0.0931 -0.6269
79248SOL    HW149469  11.962   6.787  10.916  0.4232 -0.3685 -2.6691
79248SOL    HW249470  11.897   6.698  10.812 -0.6791 -2.0201 -0.6408
79249SOL     OW49471   4.170   2.247   7.154 -0.2004 -0.2261  0.0601
79249SOL    HW149472   4.213   2.166   7.125  0.2471 -0.3744  1.0926
79249SOL    HW249473   4.230   2.284   7.219 -0.0281  1.3607 -0.9577
79250SOL     OW49474   0.280  10.256  12.083  0.2732  0.2564 -0.2010
79250SOL    HW149475   0.341  10.319  12.123 -1.5339  0.8672  1.7808
79250SOL    HW249476   0.257  10.296  11.999  1.5901  0.6291 -0.4160
79251SOL     OW49477   2.493   0.773  12.434  0.3652 -0.3369  0.3697
79251SOL    HW149478   2.532   0.844  12.485 -0.9247 -0.3129  1.3727
79251SOL    HW249479   2.566   0.737  12.382  0.9223  2.1951 -0.7592
79252SOL     OW49480  10.429  12.330   8.117  0.0383 -0.2906  0.6381
79252SOL    HW149481  10.403  12.383   8.041  0.4368 -1.5671 -0.4290
79252SOL    HW249482  10.358  12.267   8.128  0.2637 -0.4916  0.9629
79253SOL     OW49483   4.749   2.622   6.053  0.3227  0.2321  0.1777
79253SOL    HW149484   4.835   2.592   6.021 -0.8853 -1.8189 -1.4121
79253SOL    HW249485   4.686   2.573   6.001 -1.8731  2.3179  0.6868
79254SOL     OW49486   1.795  13.032   5.567  0.0290  0.1519  0.2650
79254SOL    HW149487   1.748  13.113   5.547 -1.0074 -0.3873  0.4329
79254SOL    HW249488   1.799  12.985   5.484  2.7753  1.3804 -0.4257
79255SOL     OW49489   7.947   7.863  13.213 -0.0705  0.3888 -0.4834
79255SOL    HW149490   7.891   7.897  13.283  0.8251  0.2924  0.2849
79255SOL    HW249491   7.888   7.806  13.163 -0.3446 -0.8489  1.1456
79256SOL     OW49492   4.296   9.397   3.877  0.4546  0.7041  0.3228
79256SOL    HW149493   4.238   9.444   3.817  1.5547  0.2061 -1.2098
79256SOL    HW249494   4.384   9.414   3.842  1.3112  1.6651  2.7175
79257SOL     OW49495   1.804   8.229  10.943 -0.7330 -0.2967  0.7850
79257SOL    HW149496   1.805   8.189  11.030 -1.1828 -1.8049  0.1176
79257SOL    HW249497   1.864   8.303  10.950 -1.4086  0.1322  2.6213
79258SOL     OW49498   1.259   4.533   7.741 -0.0711 -0.0294 -0.4686
79258SOL    HW149499   1.208   4.504   7.665  2.1875  0.6589 -2.3486
79258SOL    HW249500   1.350   4.533   7.711  0.8167  1.2409  1.9430
79259SOL     OW49501   7.812   6.160   9.104  0.1084 -0.6096 -0.2468
79259SOL    HW149502   7.826   6.121   9.018  0.8587 -0.0101 -0.3999
79259SOL    HW249503   7.895   6.149   9.150 -0.3203 -1.0338  0.4596
79260SOL     OW49504  13.168   7.857  13.077 -0.2584  0.0158  0.1417
79260SOL    HW149505  13.242   7.840  13.135  0.5089  1.2819 -0.4118
79260SOL    HW249506  13.201   7.839  12.989 -0.7516  0.1224 -0.0718
79261SOL     OW49507   1.435   5.738   1.338 -0.0060 -0.5325 -0.5868
79261SOL    HW149508   1.499   5.726   1.268  0.1329  1.3385 -0.8299
79261SOL    HW249509   1.350   5.739   1.294 -0.0438 -0.9177 -0.5256
79262SOL     OW49510  11.729  10.155   8.409 -0.1547 -0.3349  0.6786
79262SOL    HW149511  11.814  10.157   8.364 -0.1222 -1.4245  0.6486
79262SOL    HW249512  11.714  10.062   8.426 -0.9054 -0.0697  1.5303
79263SOL     OW49513  12.626  13.381   0.247 -0.0871  0.1520 -0.1285
79263SOL    HW149514  12.670  13.308   0.291 -1.2408  0.1462  1.1118
79263SOL    HW249515  12.635  13.362   0.154 -0.0258 -1.3813  0.1627
79264SOL     OW49516  13.453  13.235   7.477 -0.4857  0.2860 -0.2544
79264SOL    HW149517  13.424  13.226   7.568  0.4856  1.6148  0.2247
79264SOL    HW249518  13.380  13.278   7.432 -0.0347  1.9838  0.5276
79265SOL     OW49519  10.642   5.276  10.441  0.1386 -0.1404  0.4252
79265SOL    HW149520  10.649   5.358  10.491 -2.7290 -0.4496  1.5298
79265SOL    HW249521  10.714   5.280  10.378  0.5269  2.8738  0.9110
79266SOL     OW49522   0.726  10.691  10.815 -0.3814  0.4167 -0.5748
79266SOL    HW149523   0.641  10.731  10.832 -0.8508 -0.3082 -1.1219
79266SOL    HW249524   0.752  10.725  10.730 -2.6352 -3.2300 -3.0397
79267SOL     OW49525   7.869  10.019  12.478 -0.7318 -0.3203  0.2157
79267SOL    HW149526   7.873   9.935  12.525 -0.1990 -0.8605 -0.7748
79267SOL    HW249527   7.789  10.013  12.426 -0.2255 -0.6022 -0.5486
79268SOL     OW49528   1.991   2.874   5.186  0.0677  0.5862  0.8569
79268SOL    HW149529   2.062   2.898   5.245 -0.6231 -0.8517  2.3534
79268SOL    HW249530   1.912   2.905   5.229 -0.5621 -1.5572  1.3810
79269SOL     OW49531  12.590   3.051   2.264  0.3970  0.4976  0.0364
79269SOL    HW149532  12.521   3.087   2.209  0.2669 -1.6026 -1.2793
79269SOL    HW249533  12.566   3.077   2.353 -0.9989  1.4534 -0.5805
79270SOL     OW49534   7.680   1.784   8.794  0.1500  0.5724 -0.0016
79270SOL    HW149535   7.657   1.745   8.878  0.5162  0.5706  0.1008
79270SOL    HW249536   7.776   1.791   8.797  0.2099  0.1197 -0.6081
79271SOL     OW49537   1.983  11.522  13.468  0.0222  0.0112  0.3127
79271SOL    HW149538   2.078  11.516  13.460  0.1177 -0.4556  1.6305
79271SOL    HW249539   1.952  11.432  13.465 -0.3724  0.1540 -0.0163
79272SOL     OW49540   3.849  12.990  10.605 -0.2386  0.0790  0.0589
79272SOL    HW149541   3.920  12.937  10.569 -2.5709 -2.0998 -1.7016
79272SOL    HW249542   3.828  13.053  10.536  1.5963  2.6134  1.6142
79273SOL     OW49543   7.785   6.127  11.502 -0.1355  0.5488 -0.5717
79273SOL    HW149544   7.769   6.101  11.411  0.2035  1.2464 -0.8349
79273SOL    HW249545   7.861   6.075  11.529 -1.0697 -0.7006 -0.2199
79274SOL     OW49546   3.740   6.059  10.220 -0.1378  0.1836 -0.2153
79274SOL    HW149547   3.779   6.132  10.268 -1.7091  1.5843 -0.9512
79274SOL    HW249548   3.774   6.068  10.131  0.1353 -0.3527 -0.1658
79275SOL     OW49549   2.520  13.421  10.621 -0.1073 -0.9774  0.4702
79275SOL    HW149550   2.510  13.474  10.542  1.0720 -2.5805 -0.8394
79275SOL    HW249551   2.615  13.419  10.636 -0.3072 -0.8175  1.8483
79276SOL     OW49552  12.206   1.498   9.690 -0.2347 -0.2383  0.0533
79276SOL    HW149553  12.240   1.511   9.602 -1.4500  0.2456 -0.3679
79276SOL    HW249554  12.128   1.445   9.678  0.2070 -1.1246  0.9662
79277SOL     OW49555  12.641   9.219   8.279  0.1342  0.5934 -0.6595
79277SOL    HW149556  12.731   9.250   8.270  0.7340 -1.3248 -2.0640
79277SOL    HW249557  12.593   9.263   8.209  0.3757  0.3603 -0.9735
79278SOL     OW49558   8.431   1.062   6.648 -0.5901 -0.1871  0.2216
79278SOL    HW149559   8.491   1.011   6.594 -1.6867 -1.2778 -0.0153
79278SOL    HW249560   8.405   1.135   6.592 -1.3340 -1.0385 -0.5758
79279SOL     OW49561   8.645   5.726   8.443 -1.2721  0.0511 -0.0003
79279SOL    HW149562   8.554   5.696   8.432 -1.2259 -0.5282  1.0423
79279SOL    HW249563   8.668   5.699   8.532  0.3406 -0.9006 -0.6728
79280SOL     OW49564   1.591   1.785   0.067  0.2153  0.2103 -0.2322
79280SOL    HW149565   1.560   1.874   0.081  0.7268  0.1429  1.6029
79280SOL    HW249566   1.612   1.753   0.155 -0.8829 -2.0731 -0.7251
79281SOL     OW49567   1.008   0.723   2.315  0.3892 -0.9182 -0.4554
79281SOL    HW149568   0.991   0.668   2.238  1.6895  0.1917 -1.6012
79281SOL    HW249569   1.008   0.662   2.388 -2.9528 -1.7207 -0.9841
79282SOL     OW49570   9.025  11.491   8.507 -0.3677  0.2179  0.4735
79282SOL    HW149571   9.076  11.429   8.560 -0.8222 -0.0690  0.5823
79282SOL    HW249572   8.968  11.435   8.454  1.3139  0.3757 -1.6714
79283SOL     OW49573  10.906   5.265   2.424 -0.2146  0.0206  0.5822
79283SOL    HW149574  10.823   5.280   2.470  0.4968  1.3344  1.5287
79283SOL    HW249575  10.973   5.294   2.486  0.9236 -0.3803 -0.4193
79284SOL     OW49576   3.984   6.284   5.472  0.3163 -0.1225 -0.6370
79284SOL    HW149577   3.891   6.263   5.472  0.0286  1.0695 -0.1127
79284SOL    HW249578   4.028   6.199   5.461 -0.8242 -0.6404 -1.3532
79285SOL     OW49579  10.468  11.182  13.370  0.1965  0.3950 -0.1630
79285SOL    HW149580  10.457  11.274  13.344  1.1709  0.6434  0.2699
79285SOL    HW249581  10.531  11.147  13.308  2.9075  1.1170  2.0130
79286SOL     OW49582   2.981   9.941   9.271  0.2750  0.1200  0.2378
79286SOL    HW149583   2.898   9.922   9.314  2.3281 -0.1927  4.6193
79286SOL    HW249584   3.005  10.029   9.301  2.0484 -0.2445  0.0300
79287SOL     OW49585   3.251   1.694   7.198  0.0952  0.4889  0.1886
79287SOL    HW149586   3.330   1.642   7.210  0.2634  0.8181  0.5252
79287SOL    HW249587   3.249   1.752   7.274 -0.7513  0.1290  0.4471
79288SOL     OW49588  10.060  12.096  13.418  0.4901 -0.3183 -0.7083
79288SOL    HW149589  10.095  12.181  13.391  0.9034 -0.3894 -0.4025
79288SOL    HW249590  10.095  12.083  13.506 -2.3266  0.7892  0.7230
79289SOL     OW49591   4.461   7.447   9.316 -0.1829 -0.0428 -0.6227
79289SOL    HW149592   4.504   7.465   9.400 -1.2371 -1.2803  0.2254
79289SOL    HW249593   4.398   7.518   9.305  1.0172  0.9842 -1.1705
79290SOL     OW49594   7.494  12.225   8.235  0.3383 -0.3084  0.0325
79290SOL    HW149595   7.492  12.266   8.322  1.2271 -1.3020  0.5541
79290SOL    HW249596   7.412  12.178   8.229  0.0864  0.1067  0.1542
79291SOL     OW49597  12.752   8.130   3.744 -0.0858  0.0931 -0.3742
79291SOL    HW149598  12.659   8.151   3.751 -0.2611 -0.5735 -0.6504
79291SOL    HW249599  12.761   8.043   3.783 -0.0638 -1.0367 -2.6983
79292SOL     OW49600  11.945  10.928  13.142 -0.1356  0.6968  0.1371
79292SOL    HW149601  11.924  10.850  13.193 -1.2156  0.3884 -0.7352
79292SOL    HW249602  11.898  10.916  13.060  1.4422  1.2540 -0.8887
79293SOL     OW49603  10.039   1.362   1.221  0.1326 -0.2335 -0.3029
79293SOL    HW149604  10.097   1.293   1.253 -0.7929 -1.6306 -1.4980
79293SOL    HW249605  10.045   1.356   1.126 -2.7108 -1.1745 -0.5379
79294SOL     OW49606   6.171  11.425  10.955  0.2208 -0.0035  0.4852
79294SOL    HW149607   6.227  11.349  10.938 -2.3648 -1.8097 -0.6835
79294SOL    HW249608   6.156  11.462  10.868 -0.9084  0.0211  0.6861
79295SOL     OW49609   9.334   5.502   3.942 -0.1083  0.2355  0.6413
79295SOL    HW149610   9.421   5.499   3.901  0.0685  0.8301  0.9511
79295SOL    HW249611   9.301   5.589   3.919 -1.3791 -0.6243 -0.9806
79296SOL     OW49612   9.749   1.122   7.011 -0.0141  0.4603 -0.0360
79296SOL    HW149613   9.802   1.089   6.937  1.2638  2.3669 -0.0425
79296SOL    HW249614   9.813   1.141   7.079 -0.9354  0.9589  0.7073
79297SOL     OW49615  11.293  11.563   0.465 -0.3669  0.1111 -0.6513
79297SOL    HW149616  11.333  11.545   0.550 -0.7423 -1.3106 -0.7398
79297SOL    HW249617  11.365  11.557   0.403 -0.0578  1.3291 -0.4411
79298SOL     OW49618   8.301   6.285   6.776 -0.8817 -0.6266 -0.1671
79298SOL    HW149619   8.210   6.258   6.779 -1.1738  0.3477  0.1246
79298SOL    HW249620   8.333   6.253   6.691 -1.5799 -0.7003 -0.4096
79299SOL     OW49621   4.214   7.635   9.459  0.1778  0.4719  0.1952
79299SOL    HW149622   4.244   7.663   9.546  0.5700 -0.2737  0.3117
79299SOL    HW249623   4.235   7.709   9.402 -0.4628  1.1398  0.8002
79300SOL     OW49624   3.189  10.240   4.669 -0.4041 -0.1715  0.3917
79300SOL    HW149625   3.096  10.248   4.692 -0.0834  1.1543  1.3661
79300SOL    HW249626   3.219  10.162   4.716 -0.4984  0.7437  2.0660
79301SOL     OW49627  11.741   6.284   3.394 -0.0335 -0.0873 -0.7556
79301SOL    HW149628  11.701   6.320   3.473  0.4281 -0.4131 -0.3749
79301SOL    HW249629  11.774   6.361   3.347 -1.6084  0.2533 -1.3713
79302SOL     OW49630   1.912  11.061   6.586 -0.3582 -0.3527 -0.1440
79302SOL    HW149631   2.006  11.051   6.572 -0.5501  0.4222 -2.2653
79302SOL    HW249632   1.905  11.097   6.675  1.2716 -1.2048  0.3697
79303SOL     OW49633   1.121   4.356   0.158  0.3287 -0.7586  0.2085
79303SOL    HW149634   1.087   4.320   0.240 -0.4843  0.6703  0.5296
79303SOL    HW249635   1.170   4.284   0.119 -1.4252 -2.3009  0.6994
79304SOL     OW49636   7.932   1.114   2.926  0.5924  0.0062  0.0343
79304SOL    HW149637   7.853   1.167   2.915  0.0275 -0.8005  0.0787
79304SOL    HW249638   7.994   1.172   2.971 -0.5588  0.1422  1.5271
79305SOL     OW49639   2.361   7.511  10.321 -0.2950 -0.0157  0.0083
79305SOL    HW149640   2.313   7.431  10.298 -0.3249 -0.3519  1.1610
79305SOL    HW249641   2.448   7.480  10.343 -0.2172  0.3165  0.1663
79306SOL     OW49642  13.448   4.434   2.609  0.3135 -0.2409 -0.4169
79306SOL    HW149643  13.531   4.388   2.622  0.7892  0.7187  0.0898
79306SOL    HW249644  13.382   4.365   2.609  1.0501 -0.9644 -0.1650
79307SOL     OW49645   4.167   9.661   7.267  0.1899  0.9127 -0.3338
79307SOL    HW149646   4.096   9.597   7.273  0.0316  0.8418 -2.4501
79307SOL    HW249647   4.241   9.612   7.231  0.5766  1.5448 -0.4247
79308SOL     OW49648  13.356   9.406   5.721 -0.1720  0.3396 -0.5832
79308SOL    HW149649  13.431   9.366   5.764  1.5461  2.6637 -1.2388
79308SOL    HW249650  13.291   9.335   5.714  1.4148 -1.3858  1.1983
79309SOL     OW49651   6.258  11.924  11.374 -0.1745 -1.0390 -0.1808
79309SOL    HW149652   6.290  11.982  11.304 -1.2349 -0.0072  0.1582
79309SOL    HW249653   6.177  11.886  11.338 -1.0628 -0.0235  0.6836
79310SOL     OW49654   5.442   7.683   5.796  0.3937 -0.2639  0.3154
79310SOL    HW149655   5.450   7.748   5.865 -0.9507  0.9288 -0.6097
79310SOL    HW249656   5.444   7.733   5.714 -2.4176 -1.1221 -0.3881
79311SOL     OW49657   4.425   1.886  12.638  0.0655 -0.6882  0.1315
79311SOL    HW149658   4.409   1.860  12.728 -1.7762  1.0765  0.3972
79311SOL    HW249659   4.419   1.804  12.588 -2.0652 -1.3146  1.2707
79312SOL     OW49660  12.410   7.295   4.470 -0.2256 -0.5043 -0.0906
79312SOL    HW149661  12.385   7.262   4.384  0.4473  0.9863 -0.8861
79312SOL    HW249662  12.358   7.374   4.481 -0.7594 -1.0019  1.1686
79313SOL     OW49663   9.656   1.921   6.138  0.3796  0.2988 -0.0062
79313SOL    HW149664   9.575   1.966   6.163 -0.5796 -1.8580  1.0207
79313SOL    HW249665   9.713   1.991   6.106 -1.8706  1.8946 -0.8033
79314SOL     OW49666  10.468   6.760   0.519 -0.1879  0.0782  0.2241
79314SOL    HW149667  10.530   6.779   0.448  0.4372 -2.2340  0.0939
79314SOL    HW249668  10.493   6.821   0.589  0.8899  0.5915 -0.5799
79315SOL     OW49669   1.591   9.732   4.125 -0.7395  0.5053 -0.1513
79315SOL    HW149670   1.675   9.705   4.088 -1.4087  0.1751 -1.5360
79315SOL    HW249671   1.613   9.788   4.199  0.7044 -1.7194  1.2002
79316SOL     OW49672   2.674   0.420  11.347  0.3179 -0.6818  0.1519
79316SOL    HW149673   2.644   0.452  11.262  2.5387 -0.5711 -0.6533
79316SOL    HW249674   2.666   0.496  11.405 -0.4970 -0.5425 -0.1257
79317SOL     OW49675   2.246   8.454   4.336  0.2525 -0.2390  0.0701
79317SOL    HW149676   2.275   8.368   4.365 -0.1724 -0.9298 -1.4361
79317SOL    HW249677   2.312   8.482   4.272  0.1123  0.3215  0.1606
79318SOL     OW49678   4.640   9.041   6.660 -0.2630 -0.2092  0.2375
79318SOL    HW149679   4.600   8.993   6.732  2.4959 -0.2621  1.8918
79318SOL    HW249680   4.614   8.993   6.581  1.9390 -4.2982  1.7152
79319SOL     OW49681   7.390   9.460   3.691 -0.5124  0.4477  0.7138
79319SOL    HW149682   7.383   9.380   3.640  0.7705  0.7329  0.0495
79319SOL    HW249683   7.406   9.430   3.781  0.1718 -0.0517  0.4333
79320SOL     OW49684   3.785  13.242   9.297 -0.4385 -0.1910 -0.0084
79320SOL    HW149685   3.769  13.237   9.203 -1.8686  0.0482  0.1990
79320SOL    HW249686   3.839  13.165   9.316  2.9328  1.5995 -1.5377
79321SOL     OW49687   0.314   9.728   2.687 -0.5643 -0.4204  0.0308
79321SOL    HW149688   0.228   9.732   2.645 -0.7004 -1.5599  0.1448
79321SOL    HW249689   0.369   9.786   2.635 -0.6289 -2.0480 -1.9933
79322SOL     OW49690   8.974   7.213  10.925  0.0948  0.0585 -0.4029
79322SOL    HW149691   8.911   7.256  10.868  0.5547 -0.4545 -1.3044
79322SOL    HW249692   8.974   7.267  11.005 -2.7444 -0.8911  0.3358
79323SOL     OW49693   2.520   2.247   1.093  0.3235  0.1968  0.0161
79323SOL    HW149694   2.491   2.259   1.183 -0.1240 -0.9960  0.0544
79323SOL    HW249695   2.474   2.168   1.064  0.2299  0.7266 -1.3548
79324SOL     OW49696   3.769   1.528   4.801 -0.2292 -0.4009 -0.2811
79324SOL    HW149697   3.766   1.593   4.731  1.3724 -0.6080 -0.5909
79324SOL    HW249698   3.816   1.571   4.872  0.1260 -0.9311 -0.1853
79325SOL     OW49699   1.396   1.215   2.138  0.5439  0.5204  0.0843
79325SOL    HW149700   1.349   1.134   2.117 -0.7019  1.4685 -0.9811
79325SOL    HW249701   1.332   1.285   2.121  1.0567  1.6801  2.4710
79326SOL     OW49702   0.546   9.450  10.400  0.1602 -0.8746 -0.4534
79326SOL    HW149703   0.550   9.402  10.318  2.9211 -0.2927 -0.7610
79326SOL    HW249704   0.549   9.383  10.468 -0.6487 -1.2886 -0.8207
79327SOL     OW49705  13.447   4.056   9.338  0.2484 -0.1649 -0.1204
79327SOL    HW149706  13.458   4.091   9.249  1.4823 -3.3266 -1.3531
79327SOL    HW249707  13.356   4.026   9.340  0.2037 -0.0448 -0.3035
79328SOL     OW49708  10.914  13.372   6.024  0.1534  0.3582 -0.1402
79328SOL    HW149709  10.820  13.384   6.037  0.2884  0.0212  1.3828
79328SOL    HW249710  10.936  13.428   5.949 -1.1499  0.9002 -0.1370
79329SOL     OW49711   5.152   0.445  10.860  0.2976 -0.0241 -0.6112
79329SOL    HW149712   5.147   0.541  10.852  0.5148 -0.0449 -1.0376
79329SOL    HW249713   5.224   0.420  10.801  0.6157 -0.3975 -0.0696
79330SOL     OW49714  13.264   4.397   7.283 -0.7086  0.1016 -0.4056
79330SOL    HW149715  13.260   4.302   7.293 -1.2175 -0.0215 -1.6427
79330SOL    HW249716  13.350   4.421   7.318 -0.6699 -0.7802  0.1254
79331SOL     OW49717   2.534   6.244  12.004  0.0869 -0.4067 -0.4988
79331SOL    HW149718   2.522   6.160  12.049 -0.4817  1.4291  3.2507
79331SOL    HW249719   2.445   6.272  11.982  0.1800 -0.3323 -0.7754
79332SOL     OW49720   3.995   4.913   0.308  0.2122 -0.2599  0.1953
79332SOL    HW149721   3.933   4.853   0.267 -0.6386  1.1322 -0.6122
79332SOL    HW249722   3.989   4.894   0.401 -1.8566  0.2203  0.1929
79333SOL     OW49723   6.141   5.482   2.483 -0.6359  0.0831  0.2613
79333SOL    HW149724   6.073   5.529   2.435 -0.1962 -0.1248 -0.5851
79333SOL    HW249725   6.140   5.394   2.445 -0.4549 -0.1697  0.8226
79334SOL     OW49726  12.272   7.381   1.577 -0.0277 -0.2911 -0.9596
79334SOL    HW149727  12.292   7.475   1.569 -1.0590  0.0456  0.1165
79334SOL    HW249728  12.350   7.337   1.542  0.8616  0.9598 -0.6418
79335SOL     OW49729   5.510  13.279   5.885  0.1080 -0.4385  0.5327
79335SOL    HW149730   5.430  13.305   5.840  0.4546  0.3871  0.3737
79335SOL    HW249731   5.499  13.311   5.974  0.7011  0.6301  0.2358
79336SOL     OW49732  11.241   2.720   5.005 -0.1435  0.4998 -0.5231
79336SOL    HW149733  11.301   2.724   4.930 -1.2526  1.4201 -1.4024
79336SOL    HW249734  11.161   2.761   4.973 -1.0784 -0.2522  0.7873
79337SOL     OW49735   0.468   9.881  12.064 -0.4572  0.0207 -0.7077
79337SOL    HW149736   0.503   9.807  12.114 -1.0659  0.5489  0.5405
79337SOL    HW249737   0.423   9.935  12.129 -0.7078  1.0832 -1.7285
79338SOL     OW49738   6.837  10.792  12.778 -0.5109  0.0435 -1.0384
79338SOL    HW149739   6.792  10.721  12.732  1.1238  0.6208 -3.7636
79338SOL    HW249740   6.911  10.750  12.821 -1.2989 -0.3066  0.0158
79339SOL     OW49741   5.330   7.058   1.818 -0.0114  0.3217  0.1255
79339SOL    HW149742   5.373   7.104   1.746  0.0374 -0.7010 -0.5244
79339SOL    HW249743   5.248   7.026   1.780  0.5524 -1.2404  0.1584
79340SOL     OW49744  12.595   9.426  10.552  0.5791 -0.1663  0.2249
79340SOL    HW149745  12.607   9.516  10.521  0.2357 -0.8256 -1.9628
79340SOL    HW249746  12.661   9.416  10.620  0.3305  1.8642  0.8499
79341SOL     OW49747  10.638   1.861   9.952  0.0655 -0.4523 -0.4493
79341SOL    HW149748  10.650   1.925  10.022  0.8663 -0.4918 -0.5387
79341SOL    HW249749  10.715   1.804   9.958 -1.2571 -2.2601  0.5155
79342SOL     OW49750  11.947  10.589   4.368  0.1032 -0.1637 -0.7705
79342SOL    HW149751  11.994  10.667   4.340  0.2688 -0.4165 -1.2036
79342SOL    HW249752  11.913  10.551   4.287  0.3691 -0.7609 -0.6059
79343SOL     OW49753  13.578   8.461   9.798 -0.3932 -0.2402 -0.5212
79343SOL    HW149754  13.606   8.448   9.708 -0.7828  1.5915 -0.9516
79343SOL    HW249755  13.524   8.540   9.795 -2.1342 -1.3047  0.9896
79344SOL     OW49756   1.047   7.010   5.813 -0.6977  0.2730 -0.3468
79344SOL    HW149757   1.016   7.039   5.899  1.0477  0.4135  0.2807
79344SOL    HW249758   1.115   6.945   5.833 -0.3038  0.2662 -1.6215
79345SOL     OW49759  11.957   7.475  11.405 -0.0188 -0.3638  0.5240
79345SOL    HW149760  11.998   7.543  11.458 -0.0598 -1.1542  1.6138
79345SOL    HW249761  11.871   7.510  11.381  0.6971  0.7258 -0.5674
79346SOL     OW49762   7.271   2.898   8.341 -0.4489 -0.2066  0.7273
79346SOL    HW149763   7.196   2.941   8.383 -1.4178 -1.0926 -0.0232
79346SOL    HW249764   7.240   2.809   8.323 -0.5549  0.4066 -2.8603
79347SOL     OW49765   3.163   6.980   8.006  0.0431 -0.2050  0.4831
79347SOL    HW149766   3.113   6.946   7.932  1.8043  0.1284 -0.9077
79347SOL    HW249767   3.111   6.954   8.083 -1.0278 -1.9566 -0.7492
79348SOL     OW49768  10.193   0.136   2.679 -0.1277  0.6306 -0.3059
79348SOL    HW149769  10.255   0.177   2.741  0.0150  0.3829 -0.2844
79348SOL    HW249770  10.233   0.052   2.658 -1.6837 -0.7276  1.7436
79349SOL     OW49771  12.915   0.867   7.265  0.3800 -0.3897 -0.1775
79349SOL    HW149772  12.867   0.887   7.185 -0.2485 -1.9908 -0.2525
79349SOL    HW249773  12.898   0.940   7.323 -0.2612  0.1604 -1.0358
79350SOL     OW49774   3.366   5.125   9.931 -0.0412 -0.4496  0.1260
79350SOL    HW149775   3.418   5.112   9.851 -0.6605 -3.3826  0.0923
79350SOL    HW249776   3.295   5.183   9.903  1.3537  0.9839 -0.6386
79351SOL     OW49777   3.628   0.477   3.624 -0.0128 -0.0773  0.0619
79351SOL    HW149778   3.684   0.502   3.551 -1.2557  0.9805 -0.5652
79351SOL    HW249779   3.553   0.536   3.618 -0.4923 -0.4660  1.7590
79352SOL     OW49780   8.020  13.352   2.418  0.2703 -0.6048 -0.4327
79352SOL    HW149781   8.085  13.305   2.366 -0.0526 -1.5850  0.0238
79352SOL    HW249782   7.985  13.286   2.479  0.1598  0.3430  0.5718
79353SOL     OW49783   5.884  13.390  10.970  0.2364 -0.8428  0.2402
79353SOL    HW149784   5.804  13.414  11.018  0.9352 -2.1298  2.2002
79353SOL    HW249785   5.852  13.347  10.891 -0.9839  0.3038  0.0641
79354SOL     OW49786  11.276   6.759  13.575  0.5330  0.0596 -0.2580
79354SOL    HW149787  11.185   6.735  13.558  0.4816  1.4970 -2.3375
79354SOL    HW249788  11.328   6.693  13.530  0.5915 -1.3055  1.7120
79355SOL     OW49789  11.057   9.662  13.699 -0.3318 -0.3192  0.4953
79355SOL    HW149790  11.138   9.629  13.739 -1.1765 -2.0849  0.8227
79355SOL    HW249791  10.987   9.615  13.745 -1.4431 -0.5435 -1.3552
79356SOL     OW49792   9.280  10.297   5.789  0.0907 -0.4200  0.1418
79356SOL    HW149793   9.291  10.387   5.761 -0.6856 -0.7845 -1.4733
79356SOL    HW249794   9.332  10.246   5.726 -0.5517 -1.1814  0.2186
79357SOL     OW49795   5.312  12.011  11.586  0.4474 -0.7936 -0.2261
79357SOL    HW149796   5.376  11.940  11.592  1.4603 -0.1154 -2.2001
79357SOL    HW249797   5.359  12.089  11.616  0.3596 -0.4198 -1.0217
79358SOL     OW49798  11.285   8.522   1.609 -0.6508 -0.5935  0.3332
79358SOL    HW149799  11.317   8.450   1.664 -1.6339 -1.2337  0.0933
79358SOL    HW249800  11.358   8.541   1.550 -0.8666 -2.3937 -0.5808
79359SOL     OW49801   8.184   1.189   4.508  0.3723 -0.1758  0.3009
79359SOL    HW149802   8.145   1.214   4.424 -0.5220 -1.3284  0.3467
79359SOL    HW249803   8.268   1.151   4.484  0.1639 -0.4122 -0.0676
79360SOL     OW49804  11.061  12.551   6.274 -0.0874  0.0028  0.0780
79360SOL    HW149805  11.056  12.601   6.355 -0.6394 -0.4395  0.3225
79360SOL    HW249806  10.971  12.525   6.257  0.2511 -1.3037  0.2062
79361SOL     OW49807   9.038   6.815   7.240 -1.2615 -0.0426 -0.3235
79361SOL    HW149808   8.942   6.820   7.236 -1.2173  3.6676 -0.0211
79361SOL    HW249809   9.068   6.893   7.195  1.5302  0.3911  1.9863
79362SOL     OW49810   6.342  10.526   7.482 -0.1769 -0.4222  0.2404
79362SOL    HW149811   6.283  10.563   7.416 -0.2405 -0.2615  0.3834
79362SOL    HW249812   6.283  10.481   7.543 -0.1344 -0.4247  0.2794
79363SOL     OW49813   2.961   0.225   5.936 -0.3015 -0.3921  0.3455
79363SOL    HW149814   2.872   0.190   5.942 -0.5830 -0.1124 -1.4798
79363SOL    HW249815   2.948   0.318   5.917  0.3010 -0.7102 -1.9421
79364SOL     OW49816   2.959   5.945   0.472  0.0385  0.4529  0.7013
79364SOL    HW149817   3.035   6.004   0.481  1.1007 -0.5393 -1.2448
79364SOL    HW249818   2.918   5.972   0.390 -0.8852  0.0258  1.0212
79365SOL     OW49819  10.383   3.538   6.863  0.4419  0.0510 -0.3205
79365SOL    HW149820  10.448   3.485   6.816  0.0074 -0.3905 -0.4313
79365SOL    HW249821  10.366   3.488   6.943  1.4514  0.9796  0.5018
79366SOL     OW49822   4.481   8.649   6.874  0.3383 -0.1052 -0.3851
79366SOL    HW149823   4.411   8.697   6.829 -1.0773  0.0240  1.8067
79366SOL    HW249824   4.481   8.562   6.835 -0.9579 -0.0518 -0.5198
79367SOL     OW49825  13.095  13.411  11.243  0.0553 -0.2591 -0.2054
79367SOL    HW149826  13.091  13.499  11.282  0.1716 -1.1239  1.8845
79367SOL    HW249827  13.181  13.408  11.202  0.1486  0.5191 -0.0916
79368SOL     OW49828   1.145   5.707   3.482 -0.2576 -0.0173  0.1979
79368SOL    HW149829   1.198   5.728   3.405  0.4117 -2.3307 -0.0470
79368SOL    HW249830   1.055   5.706   3.449 -0.0815  0.1559 -0.3003
79369SOL     OW49831   4.322   8.072   7.622 -0.2816 -0.5772 -0.4844
79369SOL    HW149832   4.261   8.073   7.696  0.2654 -0.9732 -0.0170
79369SOL    HW249833   4.391   8.134   7.647  0.2976 -1.2708 -0.3002
79370SOL     OW49834   7.104   6.530   7.773 -0.0846 -0.4078  0.0513
79370SOL    HW149835   7.168   6.550   7.841 -0.6464  0.2976  0.3861
79370SOL    HW249836   7.119   6.598   7.706  0.4423 -1.0749 -0.5261
79371SOL     OW49837  12.993   6.953  10.439 -0.1898 -0.5153  0.0290
79371SOL    HW149838  13.003   6.859  10.450  0.0190 -0.6009 -0.8005
79371SOL    HW249839  13.062   6.992  10.493 -1.2006 -0.7635  1.5720
79372SOL     OW49840   4.287   2.073   6.552  0.3201 -0.7518  0.1114
79372SOL    HW149841   4.316   2.089   6.463 -1.8726  3.6286 -0.0931
79372SOL    HW249842   4.201   2.033   6.543 -0.5054  0.9401  0.1167
79373SOL     OW49843   5.072   2.492   9.527 -0.1758  0.4163 -0.4395
79373SOL    HW149844   5.061   2.483   9.432  1.2055  0.9322 -0.6695
79373SOL    HW249845   5.165   2.510   9.539 -0.1125 -0.7707  1.1184
79374SOL     OW49846   8.909   0.515   5.431 -0.7059  0.1481  0.3043
79374SOL    HW149847   8.935   0.427   5.403 -1.4696 -0.0032  0.0481
79374SOL    HW249848   8.956   0.529   5.513 -1.5383 -0.9997  1.0021
79375SOL     OW49849  12.004   4.638   2.652  0.3514  0.0243 -0.3418
79375SOL    HW149850  12.061   4.651   2.728  0.6407 -1.6577 -0.2160
79375SOL    HW249851  12.027   4.550   2.621 -0.4286  0.3127 -1.8078
79376SOL     OW49852   1.358   6.946   7.603 -0.1039 -0.1220 -0.1135
79376SOL    HW149853   1.391   7.032   7.629  2.0395 -1.0463  0.4989
79376SOL    HW249854   1.309   6.963   7.522  0.2683  1.6669 -0.0167
79377SOL     OW49855  12.281   6.885   9.326 -0.0374  0.7567  0.2304
79377SOL    HW149856  12.198   6.917   9.292  0.5239  0.4786 -1.4529
79377SOL    HW249857  12.269   6.790   9.333  0.8829  0.3616 -2.3898
79378SOL     OW49858   8.164   5.970   6.391  0.6652  0.3655 -0.4000
79378SOL    HW149859   8.220   5.915   6.446  1.8129  0.1269 -1.7479
79378SOL    HW249860   8.221   5.995   6.317 -0.0235  2.7762 -0.1894
79379SOL     OW49861   1.530  10.523  12.649 -0.4865  0.6000  0.6862
79379SOL    HW149862   1.455  10.582  12.647  0.3808  1.7342  0.6142
79379SOL    HW249863   1.588  10.554  12.579  1.5592  1.8677  2.7767
79380SOL     OW49864   2.211   1.414   1.582 -0.0677 -0.4873  0.3509
79380SOL    HW149865   2.171   1.467   1.513 -1.0239  0.8308  1.8393
79380SOL    HW249866   2.191   1.324   1.558  0.5417 -0.1284 -1.6135
79381SOL     OW49867   7.778   0.245   4.940  0.2798 -0.3458  0.4414
79381SOL    HW149868   7.739   0.270   5.024 -0.3272  1.7713 -0.3976
79381SOL    HW249869   7.810   0.156   4.954  1.1079  0.2999  3.2049
79382SOL     OW49870   9.757   6.423  13.600 -0.4426 -0.8048 -0.2823
79382SOL    HW149871   9.848   6.401  13.581 -0.6401 -2.0748  0.1280
79382SOL    HW249872   9.754   6.436  13.695 -0.8547 -1.7076 -0.1610
79383SOL     OW49873   8.492   8.448  12.534  0.4383 -0.5395 -0.3380
79383SOL    HW149874   8.424   8.445  12.467  0.2547 -0.2786 -0.1648
79383SOL    HW249875   8.507   8.356  12.557  1.2835 -0.7192 -1.5173
79384SOL     OW49876  13.391   3.511  13.597 -1.0429 -0.5439 -0.1541
79384SOL    HW149877  13.483   3.531  13.580 -0.9635 -1.3076 -0.6783
79384SOL    HW249878  13.352   3.596  13.618  0.1108 -0.4373  1.7506
79385SOL     OW49879   9.909   5.819   3.321  0.0144  0.0054 -0.4781
79385SOL    HW149880   9.858   5.800   3.400  0.4301  0.8106 -0.0048
79385SOL    HW249881   9.844   5.848   3.257 -0.2857 -0.3276 -0.3288
79386SOL     OW49882  12.868   2.257  12.250  0.8557 -0.3687  0.2868
79386SOL    HW149883  12.852   2.274  12.157 -1.0846  2.3393  0.9839
79386SOL    HW249884  12.877   2.162  12.256  0.3504 -0.6817 -2.5755
79387SOL     OW49885   6.922   4.835   3.496 -0.7441 -0.1603  0.1632
79387SOL    HW149886   6.908   4.759   3.552 -0.1943 -0.4216 -0.0539
79387SOL    HW249887   6.834   4.873   3.485 -0.9876 -0.6375  0.4391
79388SOL     OW49888   6.742   2.904   6.580  0.2600  0.1502  0.1403
79388SOL    HW149889   6.684   2.952   6.520 -0.1484 -0.8247 -0.2587
79388SOL    HW249890   6.683   2.865   6.644  0.4972 -0.6230 -0.1081
79389SOL     OW49891   7.741  11.029   6.055 -0.2173 -0.1523 -0.7752
79389SOL    HW149892   7.699  10.943   6.056 -0.6465 -0.0653  2.8836
79389SOL    HW249893   7.833  11.011   6.077 -0.1888  0.2765 -0.5277
79390SOL     OW49894  10.265  12.344   7.878  0.5545 -0.1594 -0.7750
79390SOL    HW149895  10.207  12.285   7.926  0.5078  0.7915  0.3729
79390SOL    HW249896  10.298  12.291   7.805 -0.1044 -1.3480 -0.2371
79391SOL     OW49897   9.640   7.438   2.289 -0.3494  0.2208 -0.2744
79391SOL    HW149898   9.695   7.365   2.317 -1.0252 -0.0521  0.3451
79391SOL    HW249899   9.649   7.502   2.360  0.4880  0.8897 -0.9554
79392SOL     OW49900   6.376  11.525   5.134  0.1083 -0.3301 -0.1935
79392SOL    HW149901   6.364  11.430   5.138 -2.1597 -0.2340 -2.3819
79392SOL    HW249902   6.446  11.538   5.070 -0.5176 -0.5375 -0.9391
79393SOL     OW49903   4.789   3.824   6.464 -0.2152  0.2731 -0.3128
79393SOL    HW149904   4.749   3.896   6.415  0.4649 -0.1077 -1.4496
79393SOL    HW249905   4.826   3.865   6.542 -1.1598  0.9115 -0.1860
79394SOL     OW49906   0.025   0.792   6.069 -0.0242 -0.3630 -0.3026
79394SOL    HW149907   0.107   0.830   6.100  0.8198  0.6516 -3.4020
79394SOL    HW249908  -0.036   0.803   6.143  2.6082 -1.4310  2.2090
79395SOL     OW49909  11.728  12.394   6.507 -0.4934 -0.0444  0.1147
79395SOL    HW149910  11.669  12.360   6.440  2.5097  0.3158 -2.9802
79395SOL    HW249911  11.738  12.487   6.485  1.4713 -0.1870  0.2671
79396SOL     OW49912   7.536   0.340  10.702  0.2442 -0.2783  0.0631
79396SOL    HW149913   7.620   0.379  10.680 -0.4924  0.0797 -2.4120
79396SOL    HW249914   7.472   0.409  10.686 -0.6570 -0.9439  0.6526
79397SOL     OW49915  11.798  12.465   0.881 -0.3650 -1.0716 -0.0476
79397SOL    HW149916  11.864  12.434   0.819 -0.0448 -0.6237  0.0613
79397SOL    HW249917  11.832  12.550   0.912 -0.5477 -1.2587  0.6908
79398SOL     OW49918  12.535   3.090   6.083 -0.5166 -0.0056  0.2912
79398SOL    HW149919  12.607   3.137   6.041 -1.2341  2.6801  1.7759
79398SOL    HW249920  12.485   3.052   6.010  1.5155 -0.6643 -0.8403
79399SOL     OW49921  11.693  13.361  12.437  0.2971  0.4707  0.6417
79399SOL    HW149922  11.732  13.290  12.488  0.7524  0.0896 -0.2112
79399SOL    HW249923  11.757  13.378  12.367 -0.8353  0.1638 -0.5033
79400SOL     OW49924   7.925   0.558  11.918  0.4894 -0.0127 -0.2183
79400SOL    HW149925   7.890   0.620  11.982  2.6127 -0.5540  1.6012
79400SOL    HW249926   7.950   0.612  11.843 -1.2704  0.7468 -0.3202
79401SOL     OW49927   3.001   4.581   5.685  0.1574 -0.0823  0.2959
79401SOL    HW149928   2.946   4.647   5.727 -0.6437 -0.2466 -0.4712
79401SOL    HW249929   3.036   4.624   5.607  0.1882 -0.3384  0.1647
79402SOL     OW49930   7.541   6.969  10.815  0.5937  0.3442 -0.2244
79402SOL    HW149931   7.608   6.963  10.747 -0.1673  0.3273 -0.9973
79402SOL    HW249932   7.460   6.940  10.771  0.4585 -1.6824  1.2412
79403SOL     OW49933   9.694   2.703   1.588  0.4991  0.0774  0.1137
79403SOL    HW149934   9.765   2.696   1.651  0.1297  1.1259  0.6645
79403SOL    HW249935   9.647   2.620   1.596 -0.5102  0.7900  2.4203
79404SOL     OW49936   6.703   4.614   2.130 -0.1439 -0.3296  0.0586
79404SOL    HW149937   6.636   4.550   2.105  0.5550 -0.8159 -0.6295
79404SOL    HW249938   6.776   4.596   2.070  0.5020  0.3566  0.6270
79405SOL     OW49939   4.254  12.775   2.374  0.5808  0.2416  0.1156
79405SOL    HW149940   4.162  12.775   2.398  0.4166  2.0671 -0.3419
79405SOL    HW249941   4.258  12.728   2.292 -0.2172  1.4232 -0.6388
79406SOL     OW49942   0.197   0.868   3.513 -0.8981 -0.0946 -0.3311
79406SOL    HW149943   0.193   0.797   3.577  1.9125 -1.3074 -1.3005
79406SOL    HW249944   0.273   0.920   3.540 -0.8373  0.4965 -1.5519
79407SOL     OW49945   0.414   5.344   8.372  0.1268  0.1827 -0.1527
79407SOL    HW149946   0.334   5.362   8.322 -0.6021  0.7718  1.1738
79407SOL    HW249947   0.384   5.335   8.462  1.5239  0.0732  0.3209
79408SOL     OW49948  11.318   8.417   7.866 -0.0253 -0.1283  0.7397
79408SOL    HW149949  11.247   8.477   7.890 -0.2219  0.0493 -0.2512
79408SOL    HW249950  11.280   8.362   7.797  0.4277 -0.8293  1.0326
79409SOL     OW49951   0.288  12.012   8.621  0.6663  0.1186  0.5898
79409SOL    HW149952   0.371  12.057   8.606  1.7577 -1.5760  1.2810
79409SOL    HW249953   0.283  12.001   8.716 -0.6431  0.6897  0.6058
79410SOL     OW49954  12.740   7.127   0.651 -1.1253  0.3092  0.0813
79410SOL    HW149955  12.662   7.078   0.679 -1.0249 -0.0488 -0.2609
79410SOL    HW249956  12.812   7.066   0.663 -1.1190  0.0172 -1.2740
79411SOL     OW49957   4.051  11.080   5.966  0.0891  0.0022 -0.2758
79411SOL    HW149958   4.093  11.112   6.046 -1.3142  0.4016  0.3453
79411SOL    HW249959   4.021  10.992   5.988 -1.0257  0.4192 -0.0616
79412SOL     OW49960   0.493  11.039   0.692  0.2789  0.1688 -0.8341
79412SOL    HW149961   0.509  11.041   0.787  0.2876 -2.5286 -0.6984
79412SOL    HW249962   0.548  10.967   0.660  0.4797  1.1885 -2.9669
79413SOL     OW49963   0.308   4.062  11.408 -0.2577 -0.0589 -0.6026
79413SOL    HW149964   0.335   4.068  11.500 -2.3400 -1.4276  0.1817
79413SOL    HW249965   0.212   4.067  11.411 -0.6141 -3.2351 -2.3168
79414SOL     OW49966   5.285   6.967  11.329  0.1210  0.3465  0.3406
79414SOL    HW149967   5.201   6.958  11.283  0.4231  0.9907 -0.3546
79414SOL    HW249968   5.288   7.059  11.353  1.4728  0.7833 -1.3209
79415SOL     OW49969  10.042  11.086  10.738 -0.5269 -0.0187 -0.1381
79415SOL    HW149970  10.114  11.121  10.685 -0.7161 -0.4337 -0.6802
79415SOL    HW249971   9.993  11.163  10.765 -0.0650  0.2440 -0.0268
79416SOL     OW49972   0.835   8.389  10.386  0.2049 -0.8754 -0.4486
79416SOL    HW149973   0.915   8.433  10.413 -0.4566  0.2451 -0.2329
79416SOL    HW249974   0.831   8.309  10.438 -0.0771  0.2885  1.4181
79417SOL     OW49975   9.247   5.253   6.367  0.2210  0.5816 -0.2580
79417SOL    HW149976   9.316   5.318   6.383 -0.4758  1.4033 -0.5196
79417SOL    HW249977   9.223   5.265   6.275  0.6708 -0.6429 -0.5567
79418SOL     OW49978   7.326   1.887  10.636  0.9440  0.3059  0.0285
79418SOL    HW149979   7.371   1.820  10.687  1.8180  0.1574 -0.9149
79418SOL    HW249980   7.395   1.945  10.606  0.3300  0.9434 -0.1870
79419SOL     OW49981  10.717   7.924   1.028 -0.3622  0.4505 -0.2139
79419SOL    HW149982  10.631   7.915   1.068 -0.8419 -0.5801 -1.4183
79419SOL    HW249983  10.767   7.848   1.061 -0.3569  0.2906 -0.5893
79420SOL     OW49984   2.945   3.008   6.956  0.0323 -0.1170 -0.6498
79420SOL    HW149985   2.887   2.972   7.023  0.4673  1.4767  0.6581
79420SOL    HW249986   3.027   2.960   6.968 -0.3261 -0.8337 -1.0182
79421SOL     OW49987  12.903   0.632   8.132 -0.6649  0.0010  0.5554
79421SOL    HW149988  12.877   0.724   8.138 -0.2948  0.0776  1.1580
79421SOL    HW249989  12.999   0.634   8.133 -0.6536 -0.4051  0.9659
79422SOL     OW49990   2.654  13.284   4.505 -0.6203  0.5536  0.3835
79422SOL    HW149991   2.696  13.204   4.536 -0.8504  0.7845  1.3104
79422SOL    HW249992   2.561  13.261   4.497 -0.5488  0.4693 -0.2310
79423SOL     OW49993  10.825   5.526   6.819 -0.0405  0.2898 -0.0629
79423SOL    HW149994  10.912   5.500   6.849 -0.6731 -0.8919  0.8262
79423SOL    HW249995  10.765   5.462   6.859 -1.1386 -0.1932 -2.2834
79424SOL     OW49996   8.130   0.397  12.180  0.1890 -0.7693 -0.0037
79424SOL    HW149997   8.053   0.360  12.138  0.0818 -0.8456  0.2590
79424SOL    HW249998   8.117   0.492  12.176  1.0597 -0.6948 -1.8171
79425SOL     OW49999   5.520   9.254   8.863 -0.1648 -0.2894  0.2553
79425SOL    HW150000   5.453   9.193   8.894 -1.3031  0.7351 -0.0779
79425SOL    HW250001   5.470   9.332   8.837  1.2810  1.0427  1.2958
79426SOL     OW50002   9.732   7.340   3.555  0.1223 -0.2443  0.0534
79426SOL    HW150003   9.811   7.390   3.573 -0.7868  1.5362 -0.7223
79426SOL    HW250004   9.721   7.345   3.460 -0.5996 -0.9861  0.0898
79427SOL     OW50005  13.197   1.364   9.535 -0.4773  0.0064 -0.1661
79427SOL    HW150006  13.159   1.393   9.617  3.7221 -0.6493  2.2930
79427SOL    HW250007  13.262   1.431   9.513 -0.3315 -0.6837 -2.0629
79428SOL     OW50008   6.549   2.328   1.054 -0.9073  0.6568 -0.1275
79428SOL    HW150009   6.513   2.260   1.111 -0.4245  0.7958  0.3472
79428SOL    HW250010   6.496   2.322   0.974 -1.1195 -0.0209  0.0528
79429SOL     OW50011   2.265   5.310   5.990 -0.1429  0.1331  0.4660
79429SOL    HW150012   2.222   5.393   6.006 -0.4948  0.0097  0.1718
79429SOL    HW250013   2.209   5.265   5.926  0.0748 -0.3005  0.5718
79430SOL     OW50014  11.963   5.630  11.695 -0.2455  0.5277 -0.0090
79430SOL    HW150015  11.961   5.554  11.637 -0.6411  0.9690 -0.5827
79430SOL    HW250016  11.874   5.666  11.691 -0.5089  0.0965  1.5083
79431SOL     OW50017  12.855   6.020   6.042 -0.0772  0.1414 -0.1746
79431SOL    HW150018  12.902   6.078   5.982  1.3160  0.7325  1.3875
79431SOL    HW250019  12.916   5.948   6.059 -0.3069  0.1479  0.7429
79432SOL     OW50020   7.027   9.622   6.888  0.0403  0.1588  0.1567
79432SOL    HW150021   6.962   9.612   6.818 -0.8653  0.5413  0.9146
79432SOL    HW250022   7.098   9.672   6.849 -1.2297  1.8855 -0.0201
79433SOL     OW50023   4.624   0.237   6.664 -0.4983  0.0938 -0.1064
79433SOL    HW150024   4.563   0.164   6.650  0.9844 -1.2905  0.2761
79433SOL    HW250025   4.591   0.282   6.741 -1.6040  0.0223 -0.5171
79434SOL     OW50026  10.793   9.135  12.264 -0.5906  0.1596  0.1796
79434SOL    HW150027  10.857   9.132  12.335 -0.4217 -0.3538  0.0140
79434SOL    HW250028  10.750   9.049  12.268 -0.5496  0.1137 -0.3656
79435SOL     OW50029   5.440   1.238   7.228  0.1774 -0.0178 -0.6754
79435SOL    HW150030   5.513   1.281   7.271  0.3278 -1.7201  0.8346
79435SOL    HW250031   5.380   1.310   7.206  1.6848  1.2491 -0.7890
79436SOL     OW50032   5.592   0.306   9.004 -0.2177 -0.1319  0.0713
79436SOL    HW150033   5.525   0.242   8.979 -1.6845  1.5956 -0.6700
79436SOL    HW250034   5.651   0.310   8.929  0.7259 -1.6235  0.7023
79437SOL     OW50035   1.957  13.631   1.441  0.0592 -0.2726 -0.1268
79437SOL    HW150036   1.941  13.563   1.375  1.3652 -0.2206 -0.5321
79437SOL    HW250037   1.933  13.591   1.524  0.2438 -1.0357 -0.4312
79438SOL     OW50038   5.624   3.805   0.479 -0.1254  0.1739  0.0032
79438SOL    HW150039   5.706   3.829   0.435 -0.4803  0.8233 -0.3219
79438SOL    HW250040   5.649   3.733   0.538  0.4597 -0.4134 -0.9166
79439SOL     OW50041  12.974  12.778   8.861 -0.3540  0.8911 -0.0408
79439SOL    HW150042  13.009  12.689   8.855 -1.6364  0.4400 -1.6067
79439SOL    HW250043  13.041  12.827   8.908 -0.8575 -1.4939  3.5485
79440SOL     OW50044  10.056   5.529   5.307  0.3982  0.1036  0.1179
79440SOL    HW150045  10.020   5.610   5.344  1.3390  0.0542  1.1693
79440SOL    HW250046  10.029   5.460   5.367 -1.8543 -0.6804 -1.6476
79441SOL     OW50047   8.377  11.762   7.548  0.1516 -0.2567  0.2328
79441SOL    HW150048   8.415  11.758   7.636 -1.6775 -0.2904  1.0826
79441SOL    HW250049   8.385  11.853   7.522 -1.3716  0.2984  1.4878
79442SOL     OW50050  10.853   9.638  10.515  0.0635  0.4704  0.2624
79442SOL    HW150051  10.862   9.543  10.523 -1.0292  0.3673  0.4105
79442SOL    HW250052  10.937   9.667  10.479  0.2392 -0.6032 -0.2340
79443SOL     OW50053   3.582   9.840   1.160 -0.4748 -0.4369  0.7456
79443SOL    HW150054   3.593   9.782   1.236 -0.4884  0.5896  1.5626
79443SOL    HW250055   3.543   9.784   1.093  0.4809 -1.6328  1.1418
79444SOL     OW50056   1.566   5.863  12.334 -0.3824 -0.5474 -0.1161
79444SOL    HW150057   1.612   5.788  12.299 -1.1827 -1.1019 -0.0120
79444SOL    HW250058   1.478   5.831  12.353 -0.0038 -0.2999  2.4432
79445SOL     OW50059   7.304   5.618   0.379 -0.1221 -0.3147 -0.1492
79445SOL    HW150060   7.377   5.597   0.320 -1.0442 -0.0467 -1.4316
79445SOL    HW250061   7.266   5.698   0.343  0.7606  1.3191  2.2481
79446SOL     OW50062   7.644  13.673   9.441 -0.2660 -0.1001 -0.2062
79446SOL    HW150063   7.720  13.727   9.464 -1.3021  0.6587  1.6773
79446SOL    HW250064   7.645  13.603   9.507 -1.5997  0.3370  0.2984
79447SOL     OW50065   1.769   3.317   0.917 -0.4455  0.0294 -0.1218
79447SOL    HW150066   1.707   3.373   0.963 -0.4995 -0.5772  0.5626
79447SOL    HW250067   1.726   3.231   0.915  1.2492 -0.9893  2.3491
79448SOL     OW50068   0.680  13.709   0.275 -0.7056  0.4204  0.0367
79448SOL    HW150069   0.719  13.786   0.233 -0.1030 -0.2758 -0.7181
79448SOL    HW250070   0.612  13.681   0.213  2.1322 -2.3858 -2.1354
79449SOL     OW50071   5.278  11.055   6.186  0.0570  0.3506 -0.1345
79449SOL    HW150072   5.210  11.031   6.123 -1.2924 -0.0315  1.4081
79449SOL    HW250073   5.360  11.030   6.143 -0.8728 -0.7276 -1.3787
79450SOL     OW50074   1.259   9.851   6.154  0.3683  0.5765 -0.0885
79450SOL    HW150075   1.311   9.831   6.076 -1.3010  0.0540 -1.1275
79450SOL    HW250076   1.273   9.776   6.212 -0.0743 -0.1109 -0.8427
79451SOL     OW50077  11.948   4.283   3.538  0.3921  0.3410  0.1916
79451SOL    HW150078  11.980   4.266   3.627  0.7997 -0.1120 -0.0335
79451SOL    HW250079  11.975   4.373   3.519 -1.8601  1.3501  1.4402
79452SOL     OW50080  11.429  12.257   4.504 -0.2508 -0.3213 -0.1548
79452SOL    HW150081  11.492  12.263   4.432 -0.4877 -0.8931 -0.4131
79452SOL    HW250082  11.432  12.344   4.545  0.0418 -0.0568 -0.7195
79453SOL     OW50083   9.646   5.478  13.715 -0.2499  0.2432 -0.0707
79453SOL    HW150084   9.556   5.475  13.683 -0.7457  0.6594  1.2620
79453SOL    HW250085   9.699   5.467  13.636 -1.4616 -0.5456 -0.8053
79454SOL     OW50086   7.002  10.983   6.096  0.1013  0.0249 -0.1452
79454SOL    HW150087   7.095  10.982   6.121  0.2796  1.3934 -0.6352
79454SOL    HW250088   6.969  10.897   6.122  1.0687  0.1642  1.6895
79455SOL     OW50089  13.128   0.301  10.591 -0.0430  0.5166  0.4278
79455SOL    HW150090  13.073   0.313  10.669  0.6448 -1.3967  1.2657
79455SOL    HW250091  13.159   0.211  10.597  2.5646  1.2638 -0.4349
79456SOL     OW50092   8.956   0.849   4.992  0.1278 -0.3300 -0.6551
79456SOL    HW150093   8.982   0.810   5.075 -2.1782 -2.5100 -0.8313
79456SOL    HW250094   8.904   0.781   4.949 -1.9575  2.0421 -2.1665
79457SOL     OW50095   6.985   0.928   6.308 -0.3209 -0.2595 -0.3576
79457SOL    HW150096   6.987   0.923   6.212  1.4882 -1.4432 -0.3131
79457SOL    HW250097   6.896   0.956   6.329 -0.6461  0.3754 -2.3923
79458SOL     OW50098   2.648  12.701  10.639 -0.3771  0.1738  0.7254
79458SOL    HW150099   2.709  12.709  10.713 -0.0920  1.2863  0.3800
79458SOL    HW250100   2.636  12.606  10.629 -0.0625 -0.0028  1.9039
79459SOL     OW50101   3.949  11.337   5.140  0.1577 -0.0503 -0.0621
79459SOL    HW150102   3.895  11.374   5.210 -0.7328 -0.5331 -0.4754
79459SOL    HW250103   3.981  11.414   5.092 -0.3247  0.2328  0.0656
79460SOL     OW50104   1.211  12.019   8.219  0.1312  0.2605  0.2479
79460SOL    HW150105   1.208  12.107   8.258 -1.9739  0.7841 -0.9531
79460SOL    HW250106   1.119  11.991   8.216  0.2690 -0.1718 -3.2765
79461SOL     OW50107   9.519   9.891   9.357  0.0755  0.2271 -0.0817
79461SOL    HW150108   9.552   9.803   9.376  1.2533  0.2936 -1.5649
79461SOL    HW250109   9.514   9.894   9.262 -0.3910  1.6154 -0.0323
79462SOL     OW50110   5.555  11.972   0.843  0.5612 -0.1529 -0.4109
79462SOL    HW150111   5.532  11.882   0.868 -0.6272  0.6334  1.4886
79462SOL    HW250112   5.478  12.004   0.796 -0.2648  0.8172  1.5228
79463SOL     OW50113   0.731   9.338  12.651  0.0309 -0.7239 -0.2067
79463SOL    HW150114   0.656   9.331  12.591 -0.4547 -1.5367  0.4710
79463SOL    HW250115   0.804   9.300  12.603 -0.2906 -1.1088 -0.3999
79464SOL     OW50116   8.393   5.002   6.802 -0.0069 -0.6187 -0.5477
79464SOL    HW150117   8.453   4.969   6.735  2.0952  1.3312  0.2403
79464SOL    HW250118   8.431   5.085   6.830 -1.7228 -0.5302  1.8797
79465SOL     OW50119  11.874   5.834   7.669 -0.2400 -0.2597  0.2462
79465SOL    HW150120  11.806   5.808   7.731 -0.8544 -0.2756 -0.4311
79465SOL    HW250121  11.833   5.826   7.583 -0.1230  1.9170 -0.0600
79466SOL     OW50122   1.897  11.491   8.906  0.0216 -0.1070  0.2924
79466SOL    HW150123   1.871  11.456   8.822 -2.1671  0.9510  0.4627
79466SOL    HW250124   1.899  11.586   8.893  0.1828  0.0419  1.2902
79467SOL     OW50125   5.869   8.686   0.455  0.3701  0.4228  0.8975
79467SOL    HW150126   5.864   8.726   0.542 -0.1489  0.3547  0.9024
79467SOL    HW250127   5.796   8.624   0.452  1.6553 -1.1720  1.2004
79468SOL     OW50128   5.481  11.331   1.665 -0.2266 -0.3597 -0.7681
79468SOL    HW150129   5.532  11.387   1.725 -0.4916  2.4367 -2.9627
79468SOL    HW250130   5.435  11.271   1.723  0.1485  1.6481  1.8109
79469SOL     OW50131  11.296  12.734   6.038  0.3996 -0.3745 -0.2111
79469SOL    HW150132  11.234  12.704   5.971 -1.5173  0.3582  1.1574
79469SOL    HW250133  11.305  12.660   6.097 -2.7866  0.8546  2.0646
79470SOL     OW50134  10.230   2.490  12.163 -0.4797  0.1711  0.7293
79470SOL    HW150135  10.181   2.420  12.205 -1.3257 -0.9457 -1.9163
79470SOL    HW250136  10.239   2.462  12.072  2.4647  1.7660  0.4059
79471SOL     OW50137   0.068   0.536   5.385 -0.6005  0.7441 -0.4826
79471SOL    HW150138   0.014   0.562   5.311 -1.3552  0.0121 -0.2063
79471SOL    HW250139   0.037   0.590   5.458  0.2030  1.5290 -0.7109
79472SOL     OW50140   6.318  10.483  11.085  0.1251  0.4424 -0.2023
79472SOL    HW150141   6.226  10.492  11.061  0.3730 -1.1019 -1.9637
79472SOL    HW250142   6.343  10.570  11.117 -2.6726  0.1506  3.3299
79473SOL     OW50143   8.571   0.695   6.713  0.2884 -0.8596  0.4565
79473SOL    HW150144   8.657   0.724   6.682 -1.0354  1.0659 -1.7728
79473SOL    HW250145   8.511   0.714   6.641 -2.0280 -2.2507  1.8643
79474SOL     OW50146   0.945   9.219   4.381  0.4541  0.2503  0.2160
79474SOL    HW150147   0.864   9.170   4.367 -0.6112  1.7468  0.8799
79474SOL    HW250148   0.972   9.195   4.470  1.0261 -0.5951 -0.1660
79475SOL     OW50149   0.142   9.365   6.787  0.2994  0.7076  0.3640
79475SOL    HW150150   0.117   9.356   6.879 -0.8948 -0.9820 -0.0809
79475SOL    HW250151   0.066   9.406   6.746  0.1770 -0.0186 -0.1443
79476SOL     OW50152   9.064  12.500   3.821  0.1129  0.0795  0.7919
79476SOL    HW150153   9.112  12.441   3.880  0.2986 -1.7463 -1.0641
79476SOL    HW250154   8.972  12.488   3.847  0.1359 -1.1499  0.3921
79477SOL     OW50155   3.277   3.674   4.428  0.3981 -0.0949  0.2151
79477SOL    HW150156   3.241   3.587   4.445  0.3743  0.0552  0.9640
79477SOL    HW250157   3.202   3.733   4.435  0.0755 -0.1671 -1.9520
79478SOL     OW50158  10.664   4.787   7.629 -0.1891  0.0149 -0.3615
79478SOL    HW150159  10.589   4.769   7.686  0.3823 -0.5184  0.2323
79478SOL    HW250160  10.719   4.847   7.680  0.3515 -0.5075 -0.3157
79479SOL     OW50161   0.191   7.579   5.197  0.9037  0.2246  0.0590
79479SOL    HW150162   0.213   7.660   5.152  0.0496 -0.6513 -2.0810
79479SOL    HW250163   0.153   7.607   5.280  0.1593  2.0449 -0.8313
79480SOL     OW50164   6.720   4.425   7.974  0.0431 -0.0203 -0.1472
79480SOL    HW150165   6.656   4.383   7.918 -1.0522  0.0864  0.9789
79480SOL    HW250166   6.717   4.518   7.950 -2.6735  0.6022  2.0420
79481SOL     OW50167   7.610   2.068  13.361  0.5414  0.2184  0.0067
79481SOL    HW150168   7.529   2.028  13.393  0.2461  0.1191 -0.8421
79481SOL    HW250169   7.583   2.118  13.284  1.4588 -0.7211 -0.9541
79482SOL     OW50170  10.693  10.947   6.455 -0.1200 -0.2235 -0.1391
79482SOL    HW150171  10.750  11.018   6.427  0.2565 -0.0175  1.0708
79482SOL    HW250172  10.715  10.934   6.547 -1.4115 -0.7291  0.1232
79483SOL     OW50173  11.593   1.852   6.715 -0.1363 -0.3084 -0.2318
79483SOL    HW150174  11.513   1.854   6.662 -1.9311 -0.1532  2.3132
79483SOL    HW250175  11.580   1.778   6.775  0.2271  1.4925  2.2039
79484SOL     OW50176   1.258  12.358  13.175 -0.2423 -0.3465 -0.0751
79484SOL    HW150177   1.350  12.359  13.146 -0.8503 -0.2621 -2.1351
79484SOL    HW250178   1.243  12.447  13.206  0.1068 -0.0832 -0.6399
79485SOL     OW50179   1.742  11.895  10.209 -0.2421  0.0704  0.1626
79485SOL    HW150180   1.678  11.854  10.150  1.4614 -1.3530 -0.7835
79485SOL    HW250181   1.760  11.980  10.168  0.4263 -0.6318 -1.0557
79486SOL     OW50182  11.021   0.662   2.232  0.1590  0.2304  0.1190
79486SOL    HW150183  10.992   0.590   2.176 -1.2979 -0.2536  1.4530
79486SOL    HW250184  10.943   0.717   2.244  0.3598  0.1719  1.8869
79487SOL     OW50185   7.560   1.320   6.130 -0.2242 -0.1061 -0.6564
79487SOL    HW150186   7.474   1.279   6.138  0.1663 -0.4977  2.7388
79487SOL    HW250187   7.562   1.387   6.198  2.5835 -0.9880  0.2769
79488SOL     OW50188   0.172  11.021   7.192  0.1213 -0.6384  0.2109
79488SOL    HW150189   0.102  10.958   7.178  2.7084 -3.8285  0.6211
79488SOL    HW250190   0.238  10.999   7.126  2.2086 -0.0634  1.9882
79489SOL     OW50191   9.023   9.443   5.453 -0.5117  0.1213  0.1407
79489SOL    HW150192   8.928   9.445   5.448 -0.5345  0.4882  0.6183
79489SOL    HW250193   9.044   9.493   5.532  0.1025  0.5752 -0.2953
79490SOL     OW50194   8.728  12.949   5.776 -0.2452  0.0087 -0.2082
79490SOL    HW150195   8.644  12.904   5.785 -0.2880 -0.2322 -1.6473
79490SOL    HW250196   8.708  13.041   5.792 -1.1414  0.1992 -2.1273
79491SOL     OW50197  13.110  12.487   0.466  0.0405 -0.0516 -0.3870
79491SOL    HW150198  13.068  12.402   0.459 -0.5299  0.0346  1.4948
79491SOL    HW250199  13.040  12.547   0.489  0.8708  0.4286  0.9871
79492SOL     OW50200  10.629   6.004   7.439  0.1640  0.3346  0.6434
79492SOL    HW150201  10.661   5.960   7.518  0.6101  0.1482  0.3621
79492SOL    HW250202  10.650   5.943   7.368 -3.2585 -1.1575  0.6687
79493SOL     OW50203   3.183   2.302  12.680  0.1552  0.6061 -0.4822
79493SOL    HW150204   3.258   2.247  12.704 -0.7986 -1.3638 -1.8083
79493SOL    HW250205   3.108   2.260  12.722 -0.7404  0.2519 -2.3273
79494SOL     OW50206  12.427  12.215   3.011  0.0628 -0.2040  0.0514
79494SOL    HW150207  12.391  12.253   2.931  2.3779 -1.1240 -1.5144
79494SOL    HW250208  12.468  12.133   2.983  1.9495  0.0087  1.9533
79495SOL     OW50209   1.710  10.879   6.652 -0.5390 -0.4712 -0.1333
79495SOL    HW150210   1.628  10.929   6.649 -1.1769 -1.4821 -2.5388
79495SOL    HW250211   1.775  10.940   6.617 -0.6090 -0.2196  0.1688
79496SOL     OW50212   6.483   3.884   6.910 -0.0837  0.4785  0.0444
79496SOL    HW150213   6.557   3.829   6.935  2.2801  1.8594 -3.3427
79496SOL    HW250214   6.462   3.933   6.989  1.4160 -1.1961  1.5743
79497SOL     OW50215  11.469   3.456   2.386  0.1124  0.0259  0.1382
79497SOL    HW150216  11.428   3.374   2.414  0.0346  0.3205  0.9245
79497SOL    HW250217  11.400   3.502   2.337 -0.0770 -0.0570  0.3244
79498SOL     OW50218   1.557   5.127   2.166 -0.5621  0.1180 -0.7832
79498SOL    HW150219   1.642   5.166   2.146 -1.4221  1.8485 -1.2399
79498SOL    HW250220   1.531   5.084   2.085 -1.3988  2.1054 -1.6314
79499SOL     OW50221   3.863  11.562   7.792  0.2051 -0.8840  0.0028
79499SOL    HW150222   3.772  11.589   7.806 -0.0252 -0.7814 -1.5672
79499SOL    HW250223   3.890  11.525   7.877 -1.5249 -1.5780  0.2899
79500SOL     OW50224   4.364  12.723   9.055  0.5784  0.2649  0.1195
79500SOL    HW150225   4.345  12.644   9.106  0.1144  1.0691  1.2322
79500SOL    HW250226   4.311  12.714   8.976 -0.1819 -0.1086  0.6598
79501SOL     OW50227   8.363   1.703   7.857 -0.1284  0.1419  0.4161
79501SOL    HW150228   8.355   1.616   7.895  1.2207  0.1536  0.7636
79501SOL    HW250229   8.278   1.719   7.816 -0.9960 -0.6299  1.8277
79502SOL     OW50230   1.569  12.254  10.901  0.3095 -0.4641 -0.0863
79502SOL    HW150231   1.505  12.198  10.856  0.1951  1.3689 -2.3924
79502SOL    HW250232   1.515  12.322  10.943  0.5811 -0.7870  0.8093
79503SOL     OW50233  11.584   9.855  12.626 -0.0936 -0.1295  0.5339
79503SOL    HW150234  11.618   9.808  12.702 -1.3456  0.6013  1.5901
79503SOL    HW250235  11.509   9.904  12.660 -1.1776 -0.3929 -1.3382
79504SOL     OW50236   6.820  12.354   8.824  0.2928  0.0100 -0.0259
79504SOL    HW150237   6.743  12.298   8.823  0.7102 -0.5679 -1.0941
79504SOL    HW250238   6.822  12.390   8.913  1.0066 -3.0803  1.3675
79505SOL     OW50239   9.850  11.494   8.402 -0.1039  0.2093  0.3601
79505SOL    HW150240   9.907  11.525   8.332 -0.1976  1.9742  1.0210
79505SOL    HW250241   9.838  11.401   8.383  0.8288  0.3790 -1.2831
79506SOL     OW50242   1.278   8.972   4.053  0.0278  0.0229 -0.0916
79506SOL    HW150243   1.353   9.028   4.070  0.0680 -0.4209  1.3500
79506SOL    HW250244   1.203   9.031   4.050  0.2968  0.3468 -0.4589
79507SOL     OW50245   6.764   2.420   9.971 -0.6220  0.5353 -0.5225
79507SOL    HW150246   6.808   2.340   9.944 -0.4775  0.6746 -0.7037
79507SOL    HW250247   6.671   2.401   9.961 -0.5974  0.3082 -0.3321
79508SOL     OW50248   1.910   8.877   9.832  0.2015  0.3476  0.5521
79508SOL    HW150249   1.851   8.805   9.855 -0.8720  1.6794  2.3283
79508SOL    HW250250   1.958   8.847   9.755 -1.1324 -1.7234  0.4686
79509SOL     OW50251  13.532   3.353  11.129 -0.0239 -0.7722  0.2830
79509SOL    HW150252  13.537   3.266  11.169  0.5014 -0.2114  1.4670
79509SOL    HW250253  13.595   3.349  11.056  1.2323 -0.8736  1.3413
79510SOL     OW50254   0.240   9.738  13.169 -0.0740 -0.2474  0.3223
79510SOL    HW150255   0.184   9.685  13.111 -1.2090 -1.0959  2.0950
79510SOL    HW250256   0.228   9.698  13.256  1.6814  0.8767  1.1262
79511SOL     OW50257   4.816  10.973  12.958  0.3865 -0.2258  0.8862
79511SOL    HW150258   4.846  11.047  12.905 -1.8313 -0.5339 -0.9475
79511SOL    HW250259   4.882  10.966  13.028  2.9623  0.8033 -1.2434
79512SOL     OW50260   6.983   2.525   6.072  0.0131 -0.8149  0.7556
79512SOL    HW150261   7.020   2.579   6.142  0.0330 -0.1223  0.2222
79512SOL    HW250262   7.057   2.510   6.012 -0.8352  1.9818 -1.1931
79513SOL     OW50263   7.801   0.777   2.267 -0.2650 -0.3542 -0.4849
79513SOL    HW150264   7.818   0.730   2.349  2.1048 -0.2005 -0.8228
79513SOL    HW250265   7.818   0.869   2.289 -2.6566  0.1390 -0.4110
79514SOL     OW50266   9.914   8.378   2.409  0.0948 -0.1601  0.2165
79514SOL    HW150267   9.868   8.324   2.345  0.0102 -1.9359  1.7166
79514SOL    HW250268   9.905   8.331   2.492  2.0412  0.9803  1.1390
79515SOL     OW50269   9.391  12.242  10.011 -0.4755 -0.3486 -0.0694
79515SOL    HW150270   9.378  12.161   9.962 -0.2445  0.0690 -0.8413
79515SOL    HW250271   9.335  12.233  10.088  0.5903 -1.8226  0.5744
79516SOL     OW50272  13.057   6.632   8.568  0.1316 -0.0853 -0.8289
79516SOL    HW150273  13.008   6.567   8.516 -3.7250  1.6076  0.2878
79516SOL    HW250274  13.090   6.694   8.503  0.8014 -1.2703 -1.6532
79517SOL     OW50275   4.404   3.715   5.167 -0.0243 -0.0352  0.1815
79517SOL    HW150276   4.482   3.772   5.172  0.3024 -0.4631 -0.0141
79517SOL    HW250277   4.439   3.629   5.146 -0.6440 -0.0022 -1.1090
79518SOL     OW50278  10.515   9.163   4.161 -0.0815 -0.1073 -1.0576
79518SOL    HW150279  10.599   9.207   4.168 -1.0540  1.6985  0.3422
79518SOL    HW250280  10.450   9.234   4.166 -1.7463 -1.6301  1.2148
79519SOL     OW50281  12.174   5.358   8.933 -0.3786  0.3034 -0.4802
79519SOL    HW150282  12.110   5.344   9.003 -2.5713  0.1822 -2.3899
79519SOL    HW250283  12.161   5.450   8.907 -0.2117  0.0981 -1.2993
79520SOL     OW50284   5.763   0.755   0.803 -0.0999 -0.1116  0.7175
79520SOL    HW150285   5.802   0.676   0.839  2.1824  1.3012  1.5632
79520SOL    HW250286   5.668   0.742   0.813  0.1626 -2.8510  0.4278
79521SOL     OW50287   6.132   8.406   4.492 -0.1213 -0.1242  0.2278
79521SOL    HW150288   6.037   8.392   4.492 -0.0004 -1.0047  0.4534
79521SOL    HW250289   6.160   8.378   4.579  0.1717  1.5148  0.7003
79522SOL     OW50290   9.329   3.971   9.907 -0.6290  0.2645 -0.1505
79522SOL    HW150291   9.332   4.008   9.819  0.8601 -0.4099 -0.4172
79522SOL    HW250292   9.303   3.880   9.895  0.1997 -0.0072  0.0176
79523SOL     OW50293   0.679  13.226   2.323  0.3790 -0.7164 -0.0437
79523SOL    HW150294   0.765  13.269   2.326 -0.0095  0.0722  2.3230
79523SOL    HW250295   0.696  13.140   2.285  1.8358  0.1424 -1.4685
79524SOL     OW50296   6.519   4.568   9.251  0.2425  0.1503  0.4552
79524SOL    HW150297   6.597   4.596   9.299 -0.5836  0.9949  1.3519
79524SOL    HW250298   6.460   4.536   9.318  0.1431 -1.3532 -0.3105
79525SOL     OW50299  10.241   7.348   3.016  0.1247 -0.2402 -0.1603
79525SOL    HW150300  10.219   7.434   3.053  0.1316  0.1853 -1.0959
79525SOL    HW250301  10.190   7.343   2.935  0.3061 -1.0199 -0.2375
79526SOL     OW50302  12.249   8.536   0.053  0.4391  0.1513  0.1042
79526SOL    HW150303  12.258   8.441   0.055 -0.7756 -0.0640 -1.7072
79526SOL    HW250304  12.158   8.551   0.027  0.6341  1.8173  0.2400
79527SOL     OW50305  13.584   8.216  13.392  0.3031 -0.2260  0.1774
79527SOL    HW150306  13.529   8.165  13.333  0.5771 -0.7328  0.3562
79527SOL    HW250307  13.521   8.260  13.450  0.0847 -0.8401  0.4159
79528SOL     OW50308  12.239   3.984   3.250  0.7433 -0.3192  0.6696
79528SOL    HW150309  12.167   3.937   3.207  0.9690  0.8603 -1.1660
79528SOL    HW250310  12.309   3.920   3.258  0.3481 -0.8362  0.1201
79529SOL     OW50311   7.977   3.891   0.169  0.7712 -0.6579  0.4933
79529SOL    HW150312   7.962   3.798   0.158  3.3185 -1.2396  1.2805
79529SOL    HW250313   8.010   3.900   0.258  0.2729  1.0546  0.5445
79530SOL     OW50314   4.029   2.445   1.733  0.4921 -0.0987  0.2777
79530SOL    HW150315   3.958   2.381   1.737 -0.6640  1.2134  2.8729
79530SOL    HW250316   4.104   2.400   1.772  0.1684 -0.4533  0.4982
79531SOL     OW50317   0.777   3.893   1.784  0.3256  0.0994 -0.6874
79531SOL    HW150318   0.839   3.944   1.836  1.1174 -0.6143 -0.9112
79531SOL    HW250319   0.699   3.948   1.779  0.4990  0.4976  0.6214
79532SOL     OW50320   7.308   7.359  11.837 -0.6466  0.1069 -0.1687
79532SOL    HW150321   7.294   7.447  11.870  0.8624  0.7090 -1.0886
79532SOL    HW250322   7.266   7.359  11.751 -0.2976  0.0378 -0.3364
79533SOL     OW50323   6.001   0.639   2.320  0.4121 -0.4311  0.1111
79533SOL    HW150324   6.073   0.579   2.298 -0.4178 -0.9847 -1.2071
79533SOL    HW250325   6.044   0.724   2.332  1.2705 -0.6803 -1.0110
79534SOL     OW50326   9.576  13.341  12.394  0.3279  0.3047  0.0892
79534SOL    HW150327   9.490  13.362  12.359 -0.0474  0.1797  0.9205
79534SOL    HW250328   9.595  13.412  12.456  1.1265  0.6962 -0.5625
79535SOL     OW50329   7.749   7.633   7.138 -0.2920  0.0413  0.4434
79535SOL    HW150330   7.742   7.693   7.211 -1.2366 -0.5438  0.8472
79535SOL    HW250331   7.699   7.673   7.067  0.3260  0.4344  0.2148
79536SOL     OW50332   2.308  11.754   5.369  0.2433 -0.1103 -0.3782
79536SOL    HW150333   2.391  11.724   5.331  0.5466 -0.4525  0.5258
79536SOL    HW250334   2.289  11.836   5.323  1.3341  0.2240 -0.2651
79537SOL     OW50335   9.553   8.411   2.657  0.4857 -0.1542 -0.2224
79537SOL    HW150336   9.644   8.423   2.685 -0.2064  0.3420  1.9784
79537SOL    HW250337   9.558   8.343   2.589  2.5279  0.2091 -0.4957
79538SOL     OW50338   0.474   0.317   0.554  0.1174  0.6937  0.3177
79538SOL    HW150339   0.499   0.261   0.627  1.5983 -2.6249 -2.4304
79538SOL    HW250340   0.406   0.267   0.508  1.1607  1.2869 -2.0104
79539SOL     OW50341   8.289   8.182  12.082  0.4470 -0.6817  0.2737
79539SOL    HW150342   8.371   8.133  12.084 -0.1817 -1.7527  0.7798
79539SOL    HW250343   8.301   8.253  12.144  1.2790 -0.3415 -0.2669
79540SOL     OW50344   5.546   0.631   7.411 -0.0577  0.5647  0.1561
79540SOL    HW150345   5.468   0.597   7.455 -0.0995  0.8997  0.3456
79540SOL    HW250346   5.598   0.554   7.390 -1.0833  0.2132 -1.2138
79541SOL     OW50347   7.667   0.358   3.367 -0.8909 -0.7378 -0.2556
79541SOL    HW150348   7.702   0.389   3.451 -4.5263 -0.1125  1.2035
79541SOL    HW250349   7.699   0.268   3.359  0.3961 -0.4504  1.2631
79542SOL     OW50350  12.743   0.739   3.095 -0.3179 -0.2515  0.1998
79542SOL    HW150351  12.698   0.665   3.054  0.9148 -1.7854  1.4856
79542SOL    HW250352  12.706   0.744   3.183  0.3339  0.0006  0.4659
79543SOL     OW50353  12.572  13.099   6.289 -0.0463  0.1367  0.3337
79543SOL    HW150354  12.639  13.144   6.237 -1.9784  1.0643 -1.5356
79543SOL    HW250355  12.562  13.014   6.246  1.2380 -0.8229  1.8205
79544SOL     OW50356   8.637   1.144   5.585 -0.0446 -0.1208 -0.1792
79544SOL    HW150357   8.715   1.189   5.555  0.5375 -0.5560  0.6451
79544SOL    HW250358   8.645   1.142   5.680 -1.4061  0.4499 -0.0262
79545SOL     OW50359   9.329   2.838  11.481 -0.2884 -0.4042 -0.2350
79545SOL    HW150360   9.287   2.873  11.402 -0.4621  0.9549  0.4299
79545SOL    HW250361   9.341   2.915  11.537  1.0204 -1.1322  0.5293
79546SOL     OW50362   7.653   0.591   2.902 -0.3191  0.3240  0.1604
79546SOL    HW150363   7.696   0.510   2.875 -0.7247  0.5495 -1.2727
79546SOL    HW250364   7.665   0.595   2.997  0.9565 -0.6773  0.0654
79547SOL     OW50365   9.724  10.454  10.717  0.1675  0.3778  0.1750
79547SOL    HW150366   9.722  10.481  10.809  3.5547  0.2249  0.4325
79547SOL    HW250367   9.761  10.530  10.671  1.0081 -0.4672 -0.5981
79548SOL     OW50368   5.751   0.311   3.199  0.2095  0.1698  0.8374
79548SOL    HW150369   5.840   0.312   3.163 -0.4635  2.1486 -1.0097
79548SOL    HW250370   5.758   0.361   3.280  1.0872 -1.3164  1.7276
79549SOL     OW50371   8.340   6.485   0.875  0.4292 -0.5389 -0.6234
79549SOL    HW150372   8.376   6.402   0.906 -1.9912 -1.7961 -0.8742
79549SOL    HW250373   8.310   6.467   0.786 -0.8793  0.3208 -0.3981
79550SOL     OW50374   5.784   7.109   5.854 -0.1350 -0.6489 -0.5251
79550SOL    HW150375   5.786   7.097   5.949 -1.2289 -0.1441 -0.4191
79550SOL    HW250376   5.872   7.142   5.832 -0.5873  1.6054  0.6718
79551SOL     OW50377  10.128   0.233   2.216 -0.7249 -0.0993 -0.2556
79551SOL    HW150378  10.107   0.324   2.192  0.0930  0.1518 -0.0535
79551SOL    HW250379  10.057   0.181   2.177 -0.2691  0.4479 -1.8915
79552SOL     OW50380  10.649   3.086  11.512  0.0990  0.3712 -0.3151
79552SOL    HW150381  10.648   2.992  11.495 -0.9927  0.3650 -0.2700
79552SOL    HW250382  10.670   3.126  11.428  1.7714  0.0551 -0.0831
79553SOL     OW50383  10.761   2.044  13.331  0.1330 -0.0846 -0.5845
79553SOL    HW150384  10.856   2.031  13.325  0.3429  0.1450  1.6440
79553SOL    HW250385  10.724   1.959  13.307  1.0306 -1.0415  1.2106
79554SOL     OW50386   1.698  10.599   6.048 -0.6150  0.2807 -0.0305
79554SOL    HW150387   1.788  10.630   6.055 -0.3217 -0.6374  0.5952
79554SOL    HW250388   1.646  10.677   6.032  0.4239  0.6803 -1.7159
79555SOL     OW50389   4.747   8.536   0.213  0.0513  0.0576  0.2616
79555SOL    HW150390   4.696   8.614   0.190  0.7520  0.5974  0.5122
79555SOL    HW250391   4.735   8.477   0.138  0.6748  0.9851 -0.5998
79556SOL     OW50392  12.570  10.264   4.251  0.0988 -0.2607  0.8272
79556SOL    HW150393  12.555  10.302   4.164  0.4945 -2.2020 -0.1538
79556SOL    HW250394  12.595  10.338   4.305 -0.1362  1.0152 -0.7236
79557SOL     OW50395   0.787  10.094   9.887  0.2736  0.0340 -0.2656
79557SOL    HW150396   0.821  10.142   9.962  0.7557  1.2277 -1.2186
79557SOL    HW250397   0.698  10.070   9.912  0.5676  0.0481  0.8434
79558SOL     OW50398  11.853   9.776  11.263 -0.1154 -0.5021 -0.7707
79558SOL    HW150399  11.798   9.707  11.299  0.7881 -2.1091 -2.3150
79558SOL    HW250400  11.832   9.778  11.169  1.1202  0.1091 -1.0598
79559SOL     OW50401  11.402   0.698  10.418  0.0592 -0.8436  0.0691
79559SOL    HW150402  11.362   0.641  10.484  1.3551 -0.1107  1.5487
79559SOL    HW250403  11.414   0.782  10.464 -0.0196  0.0324 -1.4549
79560SOL     OW50404   3.502  12.852   2.635 -0.1540 -0.1106  0.0696
79560SOL    HW150405   3.587  12.887   2.661 -1.0799  1.0479  1.6761
79560SOL    HW250406   3.509  12.758   2.653  1.2192 -0.2852 -1.1341
79561SOL     OW50407   8.408   3.451  11.972  0.5544 -0.1096 -0.0998
79561SOL    HW150408   8.499   3.468  11.999  0.8918 -0.4641 -0.9705
79561SOL    HW250409   8.392   3.515  11.902  0.6206 -0.9878 -0.9277
79562SOL     OW50410   9.125   8.256  13.151  0.0673  0.7734  0.4032
79562SOL    HW150411   9.173   8.178  13.125 -1.6172 -0.7316  1.5411
79562SOL    HW250412   9.056   8.265  13.085  0.2300  1.3005  0.2961
79563SOL     OW50413   1.480  12.802  12.770 -0.2085  0.4957  0.2258
79563SOL    HW150414   1.501  12.805  12.864 -2.0422  2.7831  0.6559
79563SOL    HW250415   1.560  12.830  12.727 -0.0720  1.8161  1.2869
79564SOL     OW50416   1.499   7.292  12.207 -0.1750  0.2618  0.6632
79564SOL    HW150417   1.584   7.333  12.223  0.3092 -1.0231  1.5951
79564SOL    HW250418   1.508   7.250  12.122 -1.4021  3.7418 -1.3968
79565SOL     OW50419   4.245   5.314   9.220  0.5857  0.5879 -0.1419
79565SOL    HW150420   4.201   5.370   9.285 -0.5598  0.9423 -1.1831
79565SOL    HW250421   4.252   5.369   9.142  0.8933 -0.2051 -0.6800
79566SOL     OW50422   5.003  13.540   3.157  0.2282  0.1201 -0.2323
79566SOL    HW150423   4.957  13.512   3.078 -1.0750 -0.6391  0.7363
79566SOL    HW250424   4.961  13.624   3.180  1.5476  1.0388 -1.0714
79567SOL     OW50425   1.790   2.207   8.455 -0.3300  0.4455 -0.6776
79567SOL    HW150426   1.855   2.258   8.503 -0.0469  0.4421 -1.0595
79567SOL    HW250427   1.721   2.190   8.520  0.2420  0.0835 -0.1582
79568SOL     OW50428   4.914   2.658   7.679  0.5710 -0.1356 -0.6396
79568SOL    HW150429   4.829   2.689   7.647  1.4723  2.3080 -0.9174
79568SOL    HW250430   4.964   2.638   7.600  1.4224  1.9888 -0.7166
79569SOL     OW50431   8.019   7.994   1.078 -0.8452 -0.1983  0.0835
79569SOL    HW150432   8.070   7.914   1.071  2.0468  1.5301 -0.3622
79569SOL    HW250433   7.998   8.001   1.171 -1.7034 -1.7113  0.0422
79570SOL     OW50434   1.348   4.590   2.059 -0.5702 -0.2815 -0.3323
79570SOL    HW150435   1.360   4.640   1.979 -0.1368  0.0275 -0.0753
79570SOL    HW250436   1.331   4.655   2.127 -0.0673 -0.4760 -0.0098
79571SOL     OW50437   2.998  12.727   7.232 -0.5441  0.5470  0.5275
79571SOL    HW150438   3.002  12.675   7.151 -0.1566 -0.1247  0.9654
79571SOL    HW250439   3.089  12.744   7.254 -0.6669  1.5772  0.3073
79572SOL     OW50440   7.114   2.965   9.249  0.1407 -0.1786 -0.5161
79572SOL    HW150441   7.038   2.908   9.240 -1.0041  0.9595  1.2445
79572SOL    HW250442   7.186   2.906   9.272 -1.3842 -0.9407  3.1081
79573SOL     OW50443   3.092   4.968   6.588  0.7808  0.2553 -0.1941
79573SOL    HW150444   3.069   4.878   6.610  0.1067  0.5437  0.3158
79573SOL    HW250445   3.068   4.976   6.495  1.8355 -0.3917 -0.5376
79574SOL     OW50446  13.302   3.154   0.101 -0.3166  0.8245 -0.0252
79574SOL    HW150447  13.286   3.226   0.161 -0.0346  0.4511  0.5124
79574SOL    HW250448  13.216   3.115   0.085 -0.3804  0.8714  0.2093
79575SOL     OW50449   9.749   0.791  10.052  0.9223 -0.1094  0.4650
79575SOL    HW150450   9.822   0.787   9.991  0.5237  0.3438 -0.0473
79575SOL    HW250451   9.764   0.870  10.104  0.2356  0.5899 -0.3736
79576SOL     OW50452   2.075   0.757  13.552 -0.0915  0.2622  0.3864
79576SOL    HW150453   2.023   0.834  13.576  1.7542  0.8630  2.7628
79576SOL    HW250454   2.160   0.792  13.527 -0.0783 -0.8621 -1.2950
79577SOL     OW50455   6.306   6.603   6.644  0.5823 -0.4959 -0.2394
79577SOL    HW150456   6.313   6.634   6.734  0.5679 -1.0805 -0.0323
79577SOL    HW250457   6.284   6.510   6.652 -0.2621 -0.3653 -0.8421
79578SOL     OW50458   4.038   9.299   2.057 -0.4859  0.1650 -0.1163
79578SOL    HW150459   3.967   9.238   2.075 -1.6169  1.2673 -0.6436
79578SOL    HW250460   4.007   9.383   2.092  0.1832  0.8602 -1.1325
79579SOL     OW50461   9.833  12.011   0.468  0.0274  0.1571  0.2871
79579SOL    HW150462   9.921  12.029   0.502  0.0782 -0.0589  0.2739
79579SOL    HW250463   9.848  11.953   0.393 -0.1090  0.3153  0.1386
79580SOL     OW50464  13.387   0.908   8.286  0.3367  0.3265 -0.0855
79580SOL    HW150465  13.428   0.900   8.200  1.2092 -1.0545  0.4161
79580SOL    HW250466  13.357   0.998   8.290  0.7955  0.5822 -1.6099
79581SOL     OW50467   5.558   7.835  12.994  0.1640  0.0751  0.2651
79581SOL    HW150468   5.651   7.856  12.987 -0.0814  0.6771 -1.5295
79581SOL    HW250469   5.541   7.773  12.924 -0.7373 -0.2692  0.7690
79582SOL     OW50470   5.470  13.130   2.167  0.6616  0.5436  0.5346
79582SOL    HW150471   5.524  13.205   2.194 -0.3211  0.9855  1.3179
79582SOL    HW250472   5.383  13.167   2.153  0.5045 -0.1953 -0.5489
79583SOL     OW50473   9.106   3.201   6.553  0.0687 -0.2349 -0.4410
79583SOL    HW150474   9.053   3.174   6.628 -0.2069 -0.7795 -0.8220
79583SOL    HW250475   9.044   3.247   6.496  0.6418  1.7210  0.4434
79584SOL     OW50476   1.996   7.199   8.644 -0.1203  0.0493 -0.3278
79584SOL    HW150477   2.017   7.259   8.716 -1.9365  0.8358 -0.3892
79584SOL    HW250478   1.994   7.254   8.566  0.4135 -0.5297 -0.7561
79585SOL     OW50479  11.115   5.288   4.405 -0.3086 -0.0504 -0.0970
79585SOL    HW150480  11.207   5.315   4.396  0.0038 -1.4820 -1.7935
79585SOL    HW250481  11.112   5.240   4.488  0.2957  0.6463  0.3451
79586SOL     OW50482   8.822   0.289   8.216  0.2450 -0.1456 -0.3253
79586SOL    HW150483   8.728   0.278   8.231  0.5583 -0.3915  1.7043
79586SOL    HW250484   8.857   0.315   8.301  2.0176 -0.0085 -1.0641
79587SOL     OW50485  12.117  13.301   1.414 -0.1092  0.3239 -0.2131
79587SOL    HW150486  12.176  13.358   1.463 -0.7047 -0.5493  1.6490
79587SOL    HW250487  12.103  13.226   1.473  0.1276 -1.4370 -2.2725
79588SOL     OW50488   4.786   8.546  13.419  0.1333 -0.2360 -0.8615
79588SOL    HW150489   4.702   8.591  13.409  1.1132  1.6900 -0.8792
79588SOL    HW250490   4.839   8.578  13.346  1.2597 -0.5096 -0.1852
79589SOL     OW50491  12.541  10.955   0.670 -0.3535 -0.2707  0.4818
79589SOL    HW150492  12.628  10.916   0.658 -0.5574 -1.2449  1.8590
79589SOL    HW250493  12.480  10.885   0.646 -0.7812  0.4462 -0.5871
79590SOL     OW50494   2.958   8.809   7.615 -0.0567  0.2067  0.2424
79590SOL    HW150495   3.019   8.860   7.668  0.8727 -1.4807  0.8721
79590SOL    HW250496   2.996   8.721   7.613 -1.7671 -0.5564 -0.5229
79591SOL     OW50497  13.192  12.060  10.960 -0.5448  0.1539 -0.2968
79591SOL    HW150498  13.154  12.078  11.045 -0.8957  2.9325 -0.9493
79591SOL    HW250499  13.126  12.007  10.915 -1.4803  0.7779  0.2974
79592SOL     OW50500  10.467   2.547  12.818  0.0545  0.6653  0.5582
79592SOL    HW150501  10.396   2.541  12.882  1.7687 -2.8456  2.4292
79592SOL    HW250502  10.444   2.482  12.751  1.4607 -0.5410  1.2113
79593SOL     OW50503   8.387  10.527   7.711 -0.0755  0.7679 -0.4961
79593SOL    HW150504   8.344  10.611   7.697 -0.5001  0.6945  0.3178
79593SOL    HW250505   8.357  10.473   7.638 -1.3249  0.7369  0.0183
79594SOL     OW50506   2.265   3.391   3.067  0.2934  0.0548 -0.5499
79594SOL    HW150507   2.358   3.411   3.062  0.2659  0.0984 -0.9537
79594SOL    HW250508   2.244   3.353   2.981  0.2940 -1.5213  0.1112
79595SOL     OW50509   3.480   8.016   8.743 -0.2204  0.2222 -0.4843
79595SOL    HW150510   3.400   7.965   8.727  1.2933 -2.4549 -0.2012
79595SOL    HW250511   3.456   8.075   8.815 -2.7593  1.7734 -2.4310
79596SOL     OW50512   6.130  13.477  11.171  0.1218  0.2664 -0.0267
79596SOL    HW150513   6.037  13.455  11.178  0.0497 -0.1035 -1.6387
79596SOL    HW250514   6.160  13.430  11.093  1.3310  1.4262 -0.3027
79597SOL     OW50515   6.352   4.926   9.793  0.3296  0.5773 -0.0597
79597SOL    HW150516   6.412   4.958   9.861  0.2138  1.7018 -0.4666
79597SOL    HW250517   6.327   5.005   9.745  0.0219 -0.1419 -1.0976
79598SOL     OW50518  10.483   6.889  12.584  0.0859  0.1238 -0.1020
79598SOL    HW150519  10.418   6.839  12.633  0.4560  0.6396  0.9735
79598SOL    HW250520  10.433   6.934  12.516 -0.7146  0.5927  0.7669
79599SOL     OW50521   1.707   7.524   5.769 -0.0206 -0.1238 -0.1652
79599SOL    HW150522   1.709   7.617   5.746  1.1030 -0.4554 -1.6551
79599SOL    HW250523   1.789   7.510   5.817 -1.5784  0.2095  2.7782
79600SOL     OW50524   1.614   7.378   4.540  0.5219  0.1139 -0.2679
79600SOL    HW150525   1.544   7.403   4.480 -0.5184  0.2338  0.9574
79600SOL    HW250526   1.621   7.451   4.602  0.8441 -0.4500  0.3875
79601SOL     OW50527   3.414   1.731   4.904 -0.4918  0.1132  0.2217
79601SOL    HW150528   3.407   1.674   4.827  1.0829 -0.2907  0.3463
79601SOL    HW250529   3.480   1.688   4.959 -0.2384  1.3774  0.9315
79602SOL     OW50530  10.982   5.944   6.424 -0.3147 -0.0361 -0.2356
79602SOL    HW150531  10.964   5.957   6.518 -1.0248  0.0915 -0.3814
79602SOL    HW250532  11.046   5.873   6.422  0.3408  0.5158  0.3829
79603SOL     OW50533   8.415  13.552  12.193  0.1613  0.5548  0.0928
79603SOL    HW150534   8.327  13.523  12.217 -1.4588  3.2136 -1.9729
79603SOL    HW250535   8.458  13.569  12.277 -2.5998  2.5025  1.2887
79604SOL     OW50536  11.533   7.673   8.493  0.1054 -0.7034  0.5524
79604SOL    HW150537  11.475   7.625   8.552  2.0242 -0.4153  2.8642
79604SOL    HW250538  11.536   7.762   8.529  0.2703 -0.1234 -0.8340
79605SOL     OW50539   0.908   4.894  10.536 -0.8065  0.3419 -0.0597
79605SOL    HW150540   0.929   4.807  10.503 -0.2769  1.0267 -1.5803
79605SOL    HW250541   0.862   4.877  10.619  0.1382 -1.3420  0.1678
79606SOL     OW50542  13.337   3.433  12.094 -0.1881  0.2540  0.2146
79606SOL    HW150543  13.279   3.370  12.050  0.6764  0.0821 -0.7035
79606SOL    HW250544  13.418   3.430  12.044 -0.2652  2.4480 -0.1449
79607SOL     OW50545   3.237  10.307   3.279  0.1196 -0.1842  0.8096
79607SOL    HW150546   3.270  10.366   3.211 -1.0110  0.3050  0.6617
79607SOL    HW250547   3.198  10.364   3.344  0.0890 -0.7169  1.2682
79608SOL     OW50548   1.455  13.560   5.039 -0.1392  0.0615 -0.0783
79608SOL    HW150549   1.472  13.654   5.046  0.4677 -0.0751  0.3508
79608SOL    HW250550   1.436  13.533   5.129  0.8391 -0.4391 -0.0171
79609SOL     OW50551  11.801   4.291  10.630 -0.5113  0.2517  0.0811
79609SOL    HW150552  11.887   4.333  10.644 -0.1704 -1.2191  3.4208
79609SOL    HW250553  11.745   4.361  10.597  2.0693  1.0636 -3.1727
79610SOL     OW50554   3.163   0.326   8.654  0.0317  0.0254 -0.4013
79610SOL    HW150555   3.154   0.309   8.560  1.1926 -0.5338 -0.4186
79610SOL    HW250556   3.248   0.368   8.663  0.4732 -1.0242  0.5360
79611SOL     OW50557   0.400   1.170  11.006  0.0512 -0.0204  0.1399
79611SOL    HW150558   0.427   1.241  11.065 -1.9729 -0.6867  1.9547
79611SOL    HW250559   0.482   1.123  10.987  0.9321  0.8619  1.5413
79612SOL     OW50560   8.043   4.584   5.752 -0.2798 -0.1887  0.4670
79612SOL    HW150561   8.084   4.536   5.824 -0.9011  1.1210  1.7448
79612SOL    HW250562   8.110   4.646   5.723 -0.3476 -0.0782  0.5459
79613SOL     OW50563   5.012   9.539   2.934 -0.0482 -0.5367  0.4187
79613SOL    HW150564   5.011   9.632   2.956 -1.9663 -0.5028  0.3705
79613SOL    HW250565   4.990   9.537   2.841 -1.4444 -1.0506  0.7243
79614SOL     OW50566  11.117   3.056  11.027  0.5282 -0.0529 -0.1658
79614SOL    HW150567  11.025   3.030  11.020  0.4296  0.3700 -0.4676
79614SOL    HW250568  11.143   3.031  11.116 -0.7234  2.5286  1.0044
79615SOL     OW50569  10.874   8.093   6.028  0.3332 -0.1663 -0.2221
79615SOL    HW150570  10.842   8.003   6.028  2.7818 -1.1751  2.5688
79615SOL    HW250571  10.894   8.111   5.936 -0.8031 -2.2014 -0.9290
79616SOL     OW50572  10.056   2.345  12.310  0.2117 -0.0170  0.3580
79616SOL    HW150573  10.023   2.258  12.332  1.0078 -0.4723 -0.1582
79616SOL    HW250574  10.126   2.361  12.373 -0.0312  0.3111  0.5432
79617SOL     OW50575   2.015   2.035   4.211  0.1315  0.3881 -0.0024
79617SOL    HW150576   2.054   2.039   4.124  0.4260  1.9821  0.1882
79617SOL    HW250577   1.921   2.036   4.196  0.1720 -0.1041 -0.3158
79618SOL     OW50578  11.843   8.224   4.392 -0.1741 -0.8470  0.3925
79618SOL    HW150579  11.789   8.301   4.409  1.1447  0.3130 -0.3793
79618SOL    HW250580  11.924   8.241   4.440  0.9088 -0.7652 -1.3754
79619SOL     OW50581   9.481   8.214  10.446  0.3569 -0.4266  0.5323
79619SOL    HW150582   9.451   8.155  10.376 -1.1402 -0.2327  0.9744
79619SOL    HW250583   9.421   8.197  10.519  0.6145  0.8275  1.0649
79620SOL     OW50584   9.340   6.365  12.996  0.4777 -0.0472  0.7564
79620SOL    HW150585   9.267   6.397  12.943  0.4216 -1.0137  0.2230
79620SOL    HW250586   9.325   6.401  13.083 -1.4791 -1.4243  1.0415
79621SOL     OW50587   5.782   5.200   0.111  0.2840  0.4824 -0.0378
79621SOL    HW150588   5.830   5.224   0.190 -1.1532  0.1868  0.9589
79621SOL    HW250589   5.808   5.266   0.047  0.1270  1.8028  1.2030
79622SOL     OW50590   8.950   3.115   7.879  0.4608 -1.1042 -0.1359
79622SOL    HW150591   9.038   3.078   7.890  0.3675 -0.7225  2.6192
79622SOL    HW250592   8.935   3.164   7.960 -0.5181  2.6824 -2.3740
79623SOL     OW50593   8.844   4.108  10.176  0.5008 -0.3753 -0.2493
79623SOL    HW150594   8.825   4.183  10.232  1.0762  0.2796 -0.9183
79623SOL    HW250595   8.788   4.038  10.210 -0.6720  0.5824 -0.1485
79624SOL     OW50596   7.867  10.731   8.997  0.8911  0.1427  0.3246
79624SOL    HW150597   7.877  10.822   9.026 -0.0583  0.0929  0.8500
79624SOL    HW250598   7.831  10.686   9.073  3.1656 -1.1313  0.7664
79625SOL     OW50599  13.072   7.813  12.190  0.4188 -0.3344 -0.4594
79625SOL    HW150600  13.038   7.741  12.136  1.5709 -0.8519 -0.5095
79625SOL    HW250601  13.167   7.806  12.183  0.5636  0.4454  0.5256
79626SOL     OW50602   9.684   4.658   1.396  0.8125 -0.3026 -0.1005
79626SOL    HW150603   9.606   4.669   1.341  0.2014  0.3569  0.8719
79626SOL    HW250604   9.733   4.588   1.354  0.8377  0.7864 -2.0218
79627SOL     OW50605  13.180   0.181   2.018  0.0738  0.0633 -0.3429
79627SOL    HW150606  13.217   0.093   2.022 -0.0330  0.0383  0.0951
79627SOL    HW250607  13.208   0.223   2.099 -0.3895  0.2288 -0.2646
79628SOL     OW50608  11.318   9.689  13.058  0.8668  0.4659  0.0060
79628SOL    HW150609  11.281   9.732  12.981 -0.0112 -0.4582 -0.1222
79628SOL    HW250610  11.407   9.722  13.064  0.1840  2.4367  0.0521
79629SOL     OW50611   4.420  13.024  13.411  0.4890  0.5208 -0.1376
79629SOL    HW150612   4.464  12.939  13.402  2.5861  1.3014  1.8964
79629SOL    HW250613   4.455  13.077  13.339  1.9226  0.7094  0.6640
79630SOL     OW50614  13.454   9.925  10.139  0.2776  0.7338  0.0472
79630SOL    HW150615  13.414   9.873  10.069  0.0437  0.2122  0.5655
79630SOL    HW250616  13.433  10.016  10.115  1.3966  0.6649 -1.2956
79631SOL     OW50617   7.779   1.671   3.611 -0.1757  0.5811 -0.0109
79631SOL    HW150618   7.867   1.641   3.631  0.1294  0.2351 -1.7207
79631SOL    HW250619   7.750   1.717   3.690  1.0141 -0.4482  1.0510
79632SOL     OW50620   3.873   4.659  11.218 -0.0934 -0.7087 -0.4963
79632SOL    HW150621   3.778   4.658  11.232 -0.2691 -0.1548 -1.5308
79632SOL    HW250622   3.895   4.752  11.212  0.9931 -0.6801  2.5310
79633SOL     OW50623   2.598  13.261   0.725 -0.6654 -0.7038 -0.3967
79633SOL    HW150624   2.588  13.349   0.760 -0.1783 -0.1790 -1.5228
79633SOL    HW250625   2.639  13.274   0.640  1.0104 -2.1426  0.1470
79634SOL     OW50626  13.328   3.544   1.314 -0.2104 -0.4494  0.3477
79634SOL    HW150627  13.277   3.525   1.393 -0.2801 -1.7993 -0.0002
79634SOL    HW250628  13.325   3.639   1.306 -2.6203 -0.4722  0.3775
79635SOL     OW50629   2.471   3.042  11.960  0.6721  0.4682  0.6456
79635SOL    HW150630   2.508   3.019  12.045  0.3618  0.2398  0.7211
79635SOL    HW250631   2.419   2.965  11.934 -1.1395  1.3889  1.3300
79636SOL     OW50632   2.272   1.171  10.164  0.3679 -0.4807 -0.1637
79636SOL    HW150633   2.274   1.254  10.213 -0.3763  0.9407 -2.3684
79636SOL    HW250634   2.321   1.110  10.218  2.2030  1.7897  0.8991
79637SOL     OW50635   7.573   1.853  12.537 -0.0100  0.0263 -0.6865
79637SOL    HW150636   7.654   1.882  12.494  1.3888 -1.3555  0.8796
79637SOL    HW250637   7.564   1.909  12.614 -1.2273  0.9384 -1.4499
79638SOL     OW50638  13.267   5.825  12.408 -0.8179  0.4186 -0.0373
79638SOL    HW150639  13.247   5.731  12.410 -0.0386  0.2564  1.1746
79638SOL    HW250640  13.183   5.868  12.426 -1.1325 -0.0519 -0.3555
79639SOL     OW50641   2.647   9.777   2.275 -0.0267 -0.0095 -0.2045
79639SOL    HW150642   2.716   9.843   2.277  1.2651 -1.3396  0.0787
79639SOL    HW250643   2.610   9.783   2.186  1.9326 -0.7440 -1.1206
79640SOL     OW50644  12.734   7.361   0.498 -0.2184  0.2531 -0.5051
79640SOL    HW150645  12.727   7.290   0.562 -0.8717  1.8512  1.3018
79640SOL    HW250646  12.793   7.424   0.540  0.2277  0.8643 -1.9920
79641SOL     OW50647   3.462   2.236   8.224 -0.1316 -0.1639 -0.3992
79641SOL    HW150648   3.420   2.197   8.148 -2.1707 -2.4790  1.7118
79641SOL    HW250649   3.541   2.184   8.238 -2.4542 -3.4812  1.9552
79642SOL     OW50650  12.259   9.481   9.809 -0.3212 -0.3518 -0.0651
79642SOL    HW150651  12.337   9.479   9.865 -0.9076 -2.4229  0.7881
79642SOL    HW250652  12.258   9.396   9.766 -0.6233  0.6925 -2.2754
79643SOL     OW50653   2.343   6.216   6.798 -0.1352  0.4376  1.0465
79643SOL    HW150654   2.324   6.212   6.704  2.3699  2.4061  0.3393
79643SOL    HW250655   2.258   6.201   6.840 -1.3956 -0.2418 -1.5006
79644SOL     OW50656   6.868   2.114   2.029  0.3069  0.2029  0.4989
79644SOL    HW150657   6.928   2.041   2.048  3.0888  2.1775 -0.1543
79644SOL    HW250658   6.831   2.136   2.114  3.0866  0.9690  1.6386
79645SOL     OW50659   0.889   5.008  11.672  0.1308  0.4077 -1.0081
79645SOL    HW150660   0.889   4.957  11.752 -1.9308 -0.5786 -1.5813
79645SOL    HW250661   0.828   5.080  11.688  1.8035  1.8458 -0.7688
79646SOL     OW50662  13.620  12.416   1.217  1.2326 -0.4034 -0.2143
79646SOL    HW150663  13.557  12.355   1.177 -1.0818  1.9017 -0.3403
79646SOL    HW250664  13.576  12.448   1.295  2.2244  1.3326 -0.3203
79647SOL     OW50665  11.061  12.821  10.889  0.2785 -0.8781 -0.2404
79647SOL    HW150666  10.982  12.859  10.851  0.7591  0.3993 -0.0201
79647SOL    HW250667  11.133  12.862  10.840  0.8746 -0.0314  1.2635
79648SOL     OW50668   4.292   2.687   8.787 -0.0855 -0.8235  0.0116
79648SOL    HW150669   4.273   2.645   8.702  1.2199  0.7524 -1.1138
79648SOL    HW250670   4.226   2.756   8.794  0.0038 -0.7521  0.1403
79649SOL     OW50671   9.646   7.085  13.732 -0.4881 -0.4354 -0.3401
79649SOL    HW150672   9.713   7.109  13.668 -0.0098  0.9097  0.6284
79649SOL    HW250673   9.637   6.990  13.722 -1.3024 -0.1635 -3.2208
79650SOL     OW50674  10.669   1.485   2.471  0.3561 -0.9081  0.1785
79650SOL    HW150675  10.690   1.578   2.484 -0.4837 -0.5756 -0.7367
79650SOL    HW250676  10.713   1.440   2.543  2.3539 -0.0269 -0.4383
79651SOL     OW50677   0.623   1.545   5.831 -0.1414 -0.0234 -0.0600
79651SOL    HW150678   0.687   1.588   5.774 -1.2046  1.2731 -0.3462
79651SOL    HW250679   0.598   1.612   5.895  0.9510 -1.4262  1.9347
79652SOL     OW50680  13.444   8.894  13.391  0.0374  0.2026  0.1076
79652SOL    HW150681  13.447   8.946  13.471 -0.1122 -0.5716  0.6229
79652SOL    HW250682  13.494   8.815  13.412 -1.0171 -0.5530 -0.1589
79653SOL     OW50683   9.520   5.766  10.628 -0.3176  0.0529 -0.4721
79653SOL    HW150684   9.541   5.731  10.541  0.6151 -0.5017 -0.0444
79653SOL    HW250685   9.428   5.743  10.643 -0.3247 -0.3156 -1.0855
79654SOL     OW50686   9.310   4.208   6.908  0.0794  0.3179  0.4791
79654SOL    HW150687   9.385   4.161   6.942  0.6165  1.4067  0.8253
79654SOL    HW250688   9.317   4.296   6.945 -0.5482  0.8712 -0.6523
79655SOL     OW50689   6.661  11.868   9.377 -0.1883  0.4733 -0.2059
79655SOL    HW150690   6.616  11.837   9.455  0.0138  1.4392  0.3123
79655SOL    HW250691   6.753  11.843   9.391 -0.4653 -1.1309 -1.0734
79656SOL     OW50692  10.145   6.789   1.134  0.2099 -0.1964 -0.2205
79656SOL    HW150693  10.070   6.829   1.090 -0.5050 -1.2142  0.0347
79656SOL    HW250694  10.161   6.708   1.087 -0.4339 -1.1964  1.2114
79657SOL     OW50695  11.634   0.622  10.655  0.1185 -0.5692  0.1429
79657SOL    HW150696  11.650   0.532  10.626  1.2232 -0.0927 -0.8098
79657SOL    HW250697  11.647   0.675  10.576 -0.3922  0.4436  0.7235
79658SOL     OW50698  10.997   2.110   8.964 -0.4443  0.4989  0.5259
79658SOL    HW150699  11.037   2.057   9.033  0.1688  1.7851  1.1905
79658SOL    HW250700  11.063   2.113   8.895 -0.5059  0.3616  0.4594
79659SOL     OW50701  10.945   4.262  12.427  0.0720 -0.3111 -0.9027
79659SOL    HW150702  10.866   4.245  12.377  0.0143  0.9436 -1.2787
79659SOL    HW250703  11.013   4.277  12.361  0.5429 -0.9751 -0.5855
79660SOL     OW50704   2.937  13.418   9.590  0.3591  0.2046  0.1186
79660SOL    HW150705   2.979  13.479   9.650 -0.6939  0.0115  1.0819
79660SOL    HW250706   3.006  13.356   9.566  0.5968 -0.2080  1.7930
79661SOL     OW50707  10.523   3.869   5.279 -0.0734 -0.4649  0.4703
79661SOL    HW150708  10.536   3.776   5.294 -0.8459 -1.2634 -2.9126
79661SOL    HW250709  10.604   3.899   5.238  0.9035  0.9042  3.1473
79662SOL     OW50710   8.543   6.486  11.903 -0.4039  0.2567 -0.3434
79662SOL    HW150711   8.477   6.469  11.836 -1.8765 -0.1453  1.1395
79662SOL    HW250712   8.528   6.576  11.930  0.6090  0.6299 -0.9726
79663SOL     OW50713   4.990  10.875   5.625 -0.3159  0.2291  0.0311
79663SOL    HW150714   4.962  10.956   5.582 -0.7338  0.1709  0.1829
79663SOL    HW250715   5.007  10.814   5.553 -0.6565  0.2448 -0.0657
79664SOL     OW50716   6.392   8.251  13.156 -0.1871  0.1131 -0.5918
79664SOL    HW150717   6.310   8.273  13.113 -0.6109 -1.4366 -0.6237
79664SOL    HW250718   6.368   8.190  13.225  0.8208  0.4078  0.0420
79665SOL     OW50719   6.708   8.394   7.386 -0.3359 -0.0901  0.3989
79665SOL    HW150720   6.752   8.390   7.471  0.1158  0.6113  0.2107
79665SOL    HW250721   6.767   8.447   7.331  0.1941 -1.8610 -0.8431
79666SOL     OW50722   4.255   7.745   7.683  0.2016  0.0905  0.3730
79666SOL    HW150723   4.283   7.713   7.597 -1.0733 -1.1593  0.3820
79666SOL    HW250724   4.283   7.677   7.744  0.5835  0.6983  0.8901
79667SOL     OW50725   5.065   9.991   9.868  0.5895 -0.1077 -0.3870
79667SOL    HW150726   4.982  10.020   9.905  0.7602  0.0503 -0.1281
79667SOL    HW250727   5.131  10.024   9.928  0.7998 -0.8259 -0.2143
79668SOL     OW50728   1.712   6.626   9.941 -0.3946  0.5149 -0.5078
79668SOL    HW150729   1.735   6.718   9.949 -1.0530  0.6807 -0.4466
79668SOL    HW250730   1.654   6.609  10.016 -0.6862  0.1813 -0.8076
79669SOL     OW50731  11.867   0.411   3.649 -0.3726 -0.3774 -0.7700
79669SOL    HW150732  11.935   0.355   3.687 -0.6169 -0.8818 -1.0753
79669SOL    HW250733  11.899   0.500   3.663 -0.5897 -0.5347  0.8652
79670SOL     OW50734  12.154   9.032   2.116 -0.5216 -0.2472 -0.0991
79670SOL    HW150735  12.111   9.065   2.195  0.4753 -0.9208  0.7436
79670SOL    HW250736  12.153   8.937   2.127 -3.0782 -0.6191 -2.3410
79671SOL     OW50737  10.061  10.240   2.174  0.2433  0.4860 -0.4840
79671SOL    HW150738  10.137  10.287   2.141 -0.2180  1.1497 -0.6141
79671SOL    HW250739   9.989  10.267   2.116 -0.2104  0.3045 -0.0147
79672SOL     OW50740  11.908   7.089   1.080  0.4131 -0.1752  0.6699
79672SOL    HW150741  11.824   7.045   1.077 -0.1496  0.8347  0.9925
79672SOL    HW250742  11.970   7.026   1.044 -0.6732 -0.4764 -0.7797
79673SOL     OW50743  12.792   4.199   2.667 -0.2937 -0.3174 -0.0863
79673SOL    HW150744  12.735   4.151   2.606  0.7743  0.0376 -1.4306
79673SOL    HW250745  12.868   4.142   2.678  0.1108  0.2001 -0.1515
79674SOL     OW50746  10.270   8.576   1.651 -0.3760  0.0962  0.6881
79674SOL    HW150747  10.276   8.628   1.731 -2.1986  0.7973  0.4296
79674SOL    HW250748  10.360   8.553   1.630  0.9018  4.7682 -0.2178
79675SOL     OW50749  10.575  12.142  12.692 -0.5529 -0.4548  0.4681
79675SOL    HW150750  10.630  12.158  12.769 -0.8171  1.4902  0.2889
79675SOL    HW250751  10.637  12.123  12.622 -0.1499  0.3862  0.5811
79676SOL     OW50752  13.356  12.299   5.011  0.0112 -0.0221  0.0877
79676SOL    HW150753  13.424  12.237   5.036 -0.8474 -1.3622 -0.7813
79676SOL    HW250754  13.377  12.324   4.921  0.4594  1.1413  0.4885
79677SOL     OW50755   8.752   4.203   8.041 -0.3373  0.1752  0.2074
79677SOL    HW150756   8.825   4.262   8.057  0.3165 -0.3730 -0.6758
79677SOL    HW250757   8.764   4.133   8.106  0.5527 -0.4605 -0.6096
79678SOL     OW50758   7.022   9.489  11.986 -0.0512 -0.0142 -0.0761
79678SOL    HW150759   7.010   9.567  11.932 -3.8193  0.2976  0.9707
79678SOL    HW250760   7.023   9.522  12.076  1.2219 -0.9717  0.2928
79679SOL     OW50761  11.488   4.327  10.030 -0.6894 -0.1968 -0.3618
79679SOL    HW150762  11.542   4.295  10.103 -1.0934 -0.7042 -0.2807
79679SOL    HW250763  11.454   4.411  10.061 -0.6102 -0.2656 -0.0809
79680SOL     OW50764   7.431  12.621   2.544 -0.5289 -0.7015 -0.4206
79680SOL    HW150765   7.412  12.627   2.637 -2.6460 -0.6994 -0.7938
79680SOL    HW250766   7.478  12.702   2.524 -0.4778 -0.4807  0.5494
79681SOL     OW50767   5.589  10.219   1.133 -0.2239  0.0188  0.1498
79681SOL    HW150768   5.634  10.253   1.211  1.8875  1.2772 -1.5093
79681SOL    HW250769   5.535  10.292   1.104  0.3021  0.1527 -0.5024
79682SOL     OW50770   4.290   7.322  11.995  0.4157 -0.1402 -0.2334
79682SOL    HW150771   4.319   7.290  11.910  2.3135 -1.0810  0.7072
79682SOL    HW250772   4.359   7.384  12.022  0.3462 -0.5685  1.0037
79683SOL     OW50773   2.436   5.371   8.788 -0.1440  0.3870 -0.1719
79683SOL    HW150774   2.487   5.369   8.869  0.0486  0.5376 -0.2877
79683SOL    HW250775   2.434   5.464   8.764 -3.1656  0.9138  1.5358
79684SOL     OW50776   5.994   3.092   8.286  0.1831  0.7346 -0.4772
79684SOL    HW150777   5.899   3.105   8.292  0.1312  0.9399 -1.5145
79684SOL    HW250778   6.014   3.026   8.352 -0.8960 -0.3209 -1.1756
79685SOL     OW50779   3.409   3.436   5.559 -0.0990  0.0142 -0.1108
79685SOL    HW150780   3.473   3.365   5.558 -0.1047 -0.0098  0.8319
79685SOL    HW250781   3.429   3.487   5.481  1.0632 -0.0007  0.1664
79686SOL     OW50782   2.619  10.298   0.947  0.1158 -0.0870  0.4429
79686SOL    HW150783   2.709  10.268   0.935 -0.0254 -0.0942 -0.8092
79686SOL    HW250784   2.568  10.247   0.884 -0.8446 -0.4042  1.4471
79687SOL     OW50785   1.489   0.297   8.751 -0.2932  0.1050  0.2206
79687SOL    HW150786   1.402   0.337   8.742 -0.1952  0.4145  0.6093
79687SOL    HW250787   1.526   0.338   8.829  0.5818  0.6537 -0.4683
79688SOL     OW50788  13.120  12.430   0.811  0.3038 -0.0834 -0.3905
79688SOL    HW150789  13.212  12.448   0.790  0.5100 -0.8922 -0.2556
79688SOL    HW250790  13.085  12.390   0.731 -0.1003  0.7541 -0.6422
79689SOL     OW50791  13.520  11.876   5.495 -0.3364  0.4935  0.4453
79689SOL    HW150792  13.442  11.891   5.547 -0.6960  0.4493 -0.0711
79689SOL    HW250793  13.524  11.949   5.433 -1.3301 -0.7218 -1.1485
79690SOL     OW50794   0.711   0.200  10.824  0.1565  0.9505  0.1817
79690SOL    HW150795   0.686   0.137  10.757  1.9320  0.5522 -0.1666
79690SOL    HW250796   0.630   0.246  10.845 -1.1693 -1.2866  0.3066
79691SOL     OW50797   9.299  10.964   7.776 -0.2051  0.5777  0.5433
79691SOL    HW150798   9.346  10.973   7.693 -1.1168 -0.6504 -0.1476
79691SOL    HW250799   9.303  11.051   7.816  2.3966  0.5901  0.4115
79692SOL     OW50800  11.428   9.852  11.002 -0.0459 -0.2770  0.5492
79692SOL    HW150801  11.424   9.839  10.907  0.0922 -2.0066  0.7466
79692SOL    HW250802  11.516   9.885  11.018 -0.5564  1.5329 -0.0374
79693SOL     OW50803  12.410   9.082   1.188  0.2346 -0.9382 -0.0490
79693SOL    HW150804  12.373   9.164   1.155 -2.3217 -1.6497  0.8916
79693SOL    HW250805  12.444   9.104   1.275  0.9631 -0.5766 -0.4088
79694SOL     OW50806   6.886  11.602  11.916 -0.5615  0.2639  0.0269
79694SOL    HW150807   6.834  11.541  11.864  0.4873 -0.4970 -0.1674
79694SOL    HW250808   6.885  11.683  11.865  0.8452 -0.6083 -1.4810
79695SOL     OW50809   6.134   0.420   1.064 -0.0297 -0.0540 -0.8235
79695SOL    HW150810   6.208   0.382   1.016 -1.0366 -0.1303 -2.3594
79695SOL    HW250811   6.108   0.496   1.013 -0.7776  0.1915 -0.0914
79696SOL     OW50812   7.120   3.195   3.240 -0.2193  0.5908  0.3870
79696SOL    HW150813   7.147   3.136   3.170 -0.6504 -0.1616  0.8412
79696SOL    HW250814   7.184   3.180   3.310 -0.0269  1.0418  0.3089
79697SOL     OW50815   0.326   9.136   3.048 -0.1797  0.2707 -0.1990
79697SOL    HW150816   0.300   9.078   2.977 -1.9579  1.6647 -0.7521
79697SOL    HW250817   0.406   9.178   3.018 -0.3359  0.0532 -0.9230
79698SOL     OW50818   3.619  12.272  13.589  0.1151  0.2862  0.6828
79698SOL    HW150819   3.531  12.292  13.619  0.8792  1.3955  2.3251
79698SOL    HW250820   3.644  12.346  13.535  0.1564  0.1253  0.4800
79699SOL     OW50821   3.881   1.958   8.520  0.6447 -0.2302 -0.5876
79699SOL    HW150822   3.925   1.953   8.435  3.1316 -0.1949  0.6038
79699SOL    HW250823   3.845   1.871   8.533  0.1189 -0.1952 -1.7308
79700SOL     OW50824  13.095  10.739   9.903 -0.2763  0.5364 -0.0056
79700SOL    HW150825  13.117  10.697   9.987  0.0724  2.4924  0.9431
79700SOL    HW250826  13.044  10.816   9.928 -0.3505  1.0346 -1.6211
79701SOL     OW50827   2.645   6.838   8.499 -0.4352 -0.5914 -0.5616
79701SOL    HW150828   2.613   6.927   8.485  1.0111  0.2827  1.2229
79701SOL    HW250829   2.725   6.832   8.447  0.2535 -0.3099  0.4298
79702SOL     OW50830   0.956   0.374   5.086 -0.4862 -0.3825 -0.8173
79702SOL    HW150831   0.947   0.449   5.145  1.2631 -0.4570 -0.3782
79702SOL    HW250832   0.907   0.399   5.008 -1.6728  0.3162  0.1184
79703SOL     OW50833   3.361   7.831   8.934  0.1015  0.2755  0.3165
79703SOL    HW150834   3.363   7.748   8.984 -0.6167  0.0622 -0.0072
79703SOL    HW250835   3.338   7.805   8.845  0.4525  0.7684  0.0773
79704SOL     OW50836   2.799  13.446  10.232 -0.1037 -0.0782 -0.0181
79704SOL    HW150837   2.770  13.500  10.306 -0.1893  1.2949 -1.0315
79704SOL    HW250838   2.741  13.470  10.160 -0.1418 -1.5334 -0.5188
79705SOL     OW50839   8.523   1.076  11.072  0.2825 -0.4339 -0.3073
79705SOL    HW150840   8.462   1.028  11.128  0.0354  1.9106  1.5559
79705SOL    HW250841   8.603   1.022  11.073 -0.8202 -2.1648 -0.5696
79706SOL     OW50842   0.565  10.886   1.301  0.1240 -0.3518 -0.6796
79706SOL    HW150843   0.594  10.877   1.391  0.7474  0.5395 -0.7757
79706SOL    HW250844   0.489  10.944   1.305  1.0330  0.8980 -0.8472
79707SOL     OW50845   0.623   7.332   1.893 -0.5250  0.2446  0.2985
79707SOL    HW150846   0.611   7.407   1.835 -0.9821  0.3151  0.4849
79707SOL    HW250847   0.546   7.278   1.880 -0.2649 -0.1244  0.2726
79708SOL     OW50848  11.078   6.278   0.086 -0.7024 -0.5952 -0.1757
79708SOL    HW150849  11.097   6.358   0.037 -0.7333 -1.0927 -1.0119
79708SOL    HW250850  11.149   6.272   0.150 -0.1643 -0.4123 -0.7477
79709SOL     OW50851   2.721  12.411   3.062 -0.3820 -0.3343  0.1929
79709SOL    HW150852   2.795  12.464   3.030 -0.7309  0.0565  0.0172
79709SOL    HW250853   2.661  12.475   3.100 -0.5222 -0.6756  0.5544
79710SOL     OW50854   9.598   4.758   6.773  0.3479 -0.5436 -0.3923
79710SOL    HW150855   9.643   4.675   6.789 -3.5498 -2.5998  1.4774
79710SOL    HW250856   9.597   4.802   6.858 -0.2278 -0.0714 -0.6326
79711SOL     OW50857   2.407   7.971   5.483  0.3092 -0.1510 -0.1008
79711SOL    HW150858   2.449   7.933   5.560 -0.2666 -1.7801 -0.5400
79711SOL    HW250859   2.345   8.035   5.518 -0.1213 -1.0409  0.8274
79712SOL     OW50860   3.678   4.073   8.109 -0.2491 -0.1426  0.1009
79712SOL    HW150861   3.639   3.993   8.145 -0.0141  0.7036  2.3277
79712SOL    HW250862   3.772   4.055   8.108 -0.2795 -0.3030 -0.5116
79713SOL     OW50863   7.156  13.283   7.671 -0.5074  0.3260  0.0072
79713SOL    HW150864   7.121  13.202   7.633 -1.8396  0.2088  1.3808
79713SOL    HW250865   7.146  13.270   7.766  0.9278  1.3787  0.3296
79714SOL     OW50866   3.675   9.690  10.652  0.1990 -0.2506  0.2793
79714SOL    HW150867   3.680   9.602  10.687  2.2660 -0.5970 -0.7327
79714SOL    HW250868   3.583   9.702  10.630  0.0037 -2.4603 -0.3132
79715SOL     OW50869  12.469   2.224   8.621 -0.1468 -0.5478 -0.6562
79715SOL    HW150870  12.530   2.183   8.560  1.0980 -0.0303  0.2147
79715SOL    HW250871  12.441   2.153   8.679  2.0443 -0.2419  0.8835
79716SOL     OW50872   0.296   8.029  12.601 -0.2614 -0.1314  0.6991
79716SOL    HW150873   0.373   8.073  12.636  0.2368 -1.8655  1.9223
79716SOL    HW250874   0.317   7.936  12.604 -1.1724 -0.5240 -2.0347
79717SOL     OW50875  13.618  10.999  12.663 -0.2716 -0.0820 -0.1247
79717SOL    HW150876  13.559  10.927  12.642 -0.1546  0.2016 -1.5159
79717SOL    HW250877  13.700  10.957  12.688 -0.1879 -0.4514 -0.9891
79718SOL     OW50878   7.962   6.183  10.995 -0.5301  0.3764  0.3394
79718SOL    HW150879   7.904   6.107  10.983 -0.0357  0.1350 -0.6181
79718SOL    HW250880   7.902   6.256  11.011 -1.1100  0.1308 -0.6414
79719SOL     OW50881   1.860   1.669  10.945  0.3636  0.2026  0.3862
79719SOL    HW150882   1.867   1.739  10.880  0.0021 -0.7352 -0.6963
79719SOL    HW250883   1.783   1.619  10.919  2.2774 -2.3800 -0.6970
79720SOL     OW50884   8.580  12.282   8.515  0.0942 -0.4980  0.1175
79720SOL    HW150885   8.528  12.213   8.557 -0.3014  0.1746  0.7520
79720SOL    HW250886   8.556  12.277   8.422  0.3493 -1.4499  0.0917
79721SOL     OW50887   6.219  11.528   4.188  0.2428  0.5807  0.1674
79721SOL    HW150888   6.204  11.622   4.194  1.2488  0.7442  0.3095
79721SOL    HW250889   6.184  11.492   4.270  1.4224  1.0545  0.8915
79722SOL     OW50890   9.192   7.189   7.425 -0.0624 -0.2425  0.4506
79722SOL    HW150891   9.109   7.222   7.460  0.2254  1.6623 -0.4823
79722SOL    HW250892   9.174   7.172   7.333  0.2444 -1.1129  0.5485
79723SOL     OW50893   4.595   7.042  13.184 -0.0633 -0.2989  0.4061
79723SOL    HW150894   4.690   7.030  13.185  0.0679  0.6442  0.1521
79723SOL    HW250895   4.569   7.042  13.276  0.2621 -0.0172  0.4983
79724SOL     OW50896   3.094  10.846   9.526 -0.4969  0.4005  0.3684
79724SOL    HW150897   3.184  10.876   9.543  0.5359 -1.6555 -1.0431
79724SOL    HW250898   3.102  10.751   9.518 -2.5310  0.3134 -1.3381
79725SOL     OW50899  12.047   6.878   9.970 -0.2098  0.7826 -0.3967
79725SOL    HW150900  11.961   6.881  10.014 -0.4614  4.9007 -0.7638
79725SOL    HW250901  12.106   6.923  10.030  1.2203 -0.0491 -1.1272
79726SOL     OW50902   3.277   5.445  12.045 -0.0138  0.1310 -0.5019
79726SOL    HW150903   3.243   5.521  11.997  0.2469  0.5138 -0.0964
79726SOL    HW250904   3.261   5.466  12.137  1.5091  0.4305 -0.2828
79727SOL     OW50905   4.826   4.521   6.299 -0.1255  0.1762  0.5781
79727SOL    HW150906   4.904   4.532   6.353  1.2452  0.2199 -1.3205
79727SOL    HW250907   4.834   4.588   6.232 -1.2508 -0.5135 -0.2778
79728SOL     OW50908  10.799   6.673  13.726 -0.1083 -0.3627 -0.0136
79728SOL    HW150909  10.779   6.758  13.765  0.2881 -0.5137  0.5326
79728SOL    HW250910  10.715   6.641  13.694 -0.2036  0.3874 -0.5425
79729SOL     OW50911   9.770   0.989   6.290 -0.7732 -0.1804 -0.4527
79729SOL    HW150912   9.824   1.068   6.287 -1.2155  0.0997 -1.3017
79729SOL    HW250913   9.823   0.921   6.248 -1.4169  0.3177 -2.1310
79730SOL     OW50914   6.404   4.984   4.776 -0.2150  0.0332 -0.0699
79730SOL    HW150915   6.386   4.915   4.712  0.4744 -0.1604 -0.0577
79730SOL    HW250916   6.466   5.042   4.732 -1.6277  1.2909 -0.5150
79731SOL     OW50917   3.973  11.975   3.030  0.0129 -0.4138 -0.4624
79731SOL    HW150918   3.896  11.918   3.041  0.8394 -1.0576  2.7931
79731SOL    HW250919   3.960  12.045   3.093  0.9103  0.9470 -1.7268
79732SOL     OW50920   0.941  13.326   8.662  0.1487  0.0870  0.2746
79732SOL    HW150921   0.850  13.337   8.634 -0.4388 -1.7806  1.2775
79732SOL    HW250922   0.989  13.392   8.612 -1.6176  0.5543 -0.9306
79733SOL     OW50923   1.147   3.526  11.021 -0.2171 -0.0751 -0.3024
79733SOL    HW150924   1.127   3.443  11.064 -1.9339 -0.2521 -1.3894
79733SOL    HW250925   1.220   3.506  10.963  0.6357 -0.3464  0.8109
79734SOL     OW50926   3.857   8.053   4.634 -0.7516 -0.3099  0.4546
79734SOL    HW150927   3.910   8.050   4.713 -1.5728 -0.1204  1.0328
79734SOL    HW250928   3.794   8.123   4.651  0.4337  1.2657 -1.2580
79735SOL     OW50929  13.382  13.592   8.600 -0.4866  0.1129  0.1138
79735SOL    HW150930  13.349  13.627   8.682 -0.6778 -1.1015  0.5854
79735SOL    HW250931  13.322  13.520   8.579 -0.1948  0.1404 -0.8680
79736SOL     OW50932  12.574   7.384   0.175 -0.2383  0.9474  0.4886
79736SOL    HW150933  12.539   7.313   0.228  0.8791 -0.7077 -0.8443
79736SOL    HW250934  12.580   7.458   0.234  0.6216 -0.6900  2.5830
79737SOL     OW50935   3.185  10.255   8.278  0.1017  0.0451  0.9393
79737SOL    HW150936   3.247  10.252   8.206 -0.1830  1.9716  0.5628
79737SOL    HW250937   3.108  10.299   8.242 -0.7267 -0.5306  1.9470
79738SOL     OW50938   6.962  10.093   9.420  0.1355  0.2161  0.2589
79738SOL    HW150939   7.026  10.129   9.481 -0.5055 -0.3304  1.2888
79738SOL    HW250940   7.002  10.103   9.333  0.9152  1.3233  0.7272
79739SOL     OW50941   6.493   3.785  11.208  0.2874  0.0201 -0.1298
79739SOL    HW150942   6.512   3.726  11.282  0.2151 -0.0414 -0.1603
79739SOL    HW250943   6.561   3.764  11.144 -0.8958 -1.4412 -0.9738
79740SOL     OW50944   1.072  12.245   5.880 -0.1590 -0.4008 -0.1842
79740SOL    HW150945   1.118  12.174   5.835  0.2021 -2.2544  2.8242
79740SOL    HW250946   0.983  12.242   5.845  0.2569 -1.3236 -1.2221
79741SOL     OW50947   3.519   8.175   7.196 -0.0562  0.1259  0.3712
79741SOL    HW150948   3.446   8.235   7.209 -0.2413 -0.2495  1.1712
79741SOL    HW250949   3.576   8.189   7.272 -0.0675 -0.6468  0.5400
79742SOL     OW50950   9.753   7.655   2.816 -0.4576  0.0116 -0.1396
79742SOL    HW150951   9.725   7.567   2.792 -1.8021  0.6566 -1.0875
79742SOL    HW250952   9.792   7.691   2.736 -0.7849  0.5944 -0.0435
79743SOL     OW50953  10.244  13.162   2.574  0.7815  0.2250  0.5253
79743SOL    HW150954  10.214  13.072   2.583 -1.3615  0.7799 -0.5026
79743SOL    HW250955  10.198  13.210   2.643  0.9203  0.7542  0.2573
79744SOL     OW50956   0.925   8.993   4.908 -0.5192 -0.4238  0.2583
79744SOL    HW150957   0.968   9.078   4.895 -0.0243 -0.7758 -0.4428
79744SOL    HW250958   0.991   8.939   4.951 -0.0318 -1.1315 -1.2933
79745SOL     OW50959   3.151  12.758   3.844  0.0313  0.2400 -0.3864
79745SOL    HW150960   3.065  12.768   3.803  0.1812  0.4973 -0.6389
79745SOL    HW250961   3.162  12.664   3.855 -0.2530  0.2039 -0.4131
79746SOL     OW50962   4.017   1.806   8.844 -0.2056  0.4412  0.0377
79746SOL    HW150963   4.104   1.810   8.884  0.5779 -0.7487 -1.4494
79746SOL    HW250964   4.024   1.860   8.765 -0.1263 -1.3507 -1.2394
79747SOL     OW50965  10.157   4.149  10.138  0.1252 -0.2027  0.0180
79747SOL    HW150966  10.141   4.063  10.098  0.4275  0.2726 -1.1571
79747SOL    HW250967  10.074   4.196  10.128  0.0749 -0.2244  0.3288
79748SOL     OW50968   4.453   9.781   7.519 -0.3383 -0.4616 -0.6735
79748SOL    HW150969   4.418   9.740   7.441 -1.3862 -0.7623 -0.0609
79748SOL    HW250970   4.399   9.859   7.532  2.0062  1.5663 -2.1825
79749SOL     OW50971  11.167   4.045   6.641  0.0028 -0.5666 -0.5089
79749SOL    HW150972  11.122   4.117   6.597 -2.2225 -0.8241  1.1368
79749SOL    HW250973  11.130   3.966   6.601  0.1180 -0.7877 -0.1798
79750SOL     OW50974   1.640   6.287   9.474  0.2912 -0.4074 -0.7489
79750SOL    HW150975   1.576   6.241   9.420 -0.9185  0.2228  0.1042
79750SOL    HW250976   1.640   6.240   9.557  0.1129  0.2360 -0.3756
79751SOL     OW50977   3.129   2.064   4.244  0.0575 -0.1242  0.0236
79751SOL    HW150978   3.223   2.073   4.230  0.0277 -0.0980 -0.1514
79751SOL    HW250979   3.089   2.101   4.166 -0.0927 -0.3976 -0.0286
79752SOL     OW50980   8.395  11.039   3.848  0.0844 -0.2697  0.2097
79752SOL    HW150981   8.329  10.983   3.889 -0.1609  1.7350  2.8205
79752SOL    HW250982   8.348  11.119   3.825  1.1294  0.2731 -0.1222
79753SOL     OW50983   5.756  11.543  11.052 -0.1935 -0.1621 -0.4184
79753SOL    HW150984   5.713  11.628  11.060 -0.3609 -0.3633  1.1792
79753SOL    HW250985   5.849  11.563  11.050 -0.2608  0.1118 -1.1447
79754SOL     OW50986   8.449   6.764   6.921 -0.3992 -0.6156  0.0233
79754SOL    HW150987   8.507   6.836   6.898 -0.7075 -0.7398 -1.2302
79754SOL    HW250988   8.507   6.688   6.929 -0.3802 -0.8120 -1.5665
79755SOL     OW50989   3.315   7.234   5.078  0.1019  0.5685  0.2575
79755SOL    HW150990   3.310   7.329   5.078  0.4455  0.6087 -0.8994
79755SOL    HW250991   3.377   7.213   5.148 -0.6713  1.1273  1.1334
79756SOL     OW50992   8.047   8.114   7.053 -0.2783  0.7567  0.0297
79756SOL    HW150993   8.123   8.164   7.084 -0.8175  0.8042  1.3796
79756SOL    HW250994   8.006   8.082   7.134 -0.0920 -1.6831 -0.7824
79757SOL     OW50995   9.928   2.024   0.202  0.1222  0.3838 -0.8057
79757SOL    HW150996   9.879   1.979   0.271  0.3063  1.6983  0.2187
79757SOL    HW250997   9.971   1.954   0.153 -0.6924 -0.6248 -0.1102
79758SOL     OW50998  12.656  12.098   5.703 -0.9364  0.0983 -0.0461
79758SOL    HW150999  12.645  12.048   5.784  1.9852  1.8964  1.7041
79758SOL    HW251000  12.621  12.185   5.725  0.1748  0.6931 -0.5463
79759SOL     OW51001   3.516   9.575  12.294  0.2233  0.1351  0.1903
79759SOL    HW151002   3.427   9.608  12.309 -0.6559 -2.2537  0.6968
79759SOL    HW251003   3.554   9.568  12.381  1.2040  1.7737 -0.0680
79760SOL     OW51004   2.914   4.903   6.063 -0.0101  0.1860  0.1479
79760SOL    HW151005   2.881   4.814   6.072 -0.1769  0.3707  1.5976
79760SOL    HW251006   2.966   4.902   5.982  1.8703 -1.8095  1.2912
79761SOL     OW51007   8.048   7.798   0.905 -0.4379 -0.2974 -0.5833
79761SOL    HW151008   8.041   7.705   0.928 -1.3314 -0.3787 -1.1238
79761SOL    HW251009   7.960   7.833   0.917  0.1906  0.8514  1.0346
79762SOL     OW51010   3.954   2.165  12.117  0.1023  0.4607 -0.1748
79762SOL    HW151011   3.947   2.235  12.181 -0.6228  0.4330 -0.2218
79762SOL    HW251012   3.939   2.085  12.167  2.9225  0.1230  0.2969
79763SOL     OW51013   9.497   1.006   5.624 -0.0631  0.6833 -0.4922
79763SOL    HW151014   9.557   1.030   5.554  1.6526  2.3988  1.4232
79763SOL    HW251015   9.411   1.035   5.593  0.7909  2.2555 -1.5182
79764SOL     OW51016   9.850   1.572  11.192 -0.3543  0.7851  0.6864
79764SOL    HW151017   9.855   1.660  11.156  1.4545  0.3038 -0.3799
79764SOL    HW251018   9.938   1.555  11.225 -0.2184 -1.1548 -0.5256
79765SOL     OW51019   1.792  11.008   5.971 -0.6375  0.4972 -0.9681
79765SOL    HW151020   1.765  11.074   6.034 -0.0850  1.9052 -2.1498
79765SOL    HW251021   1.865  10.963   6.013  0.5872  2.2869 -1.0452
79766SOL     OW51022   5.486   5.925  10.520 -0.2840  0.4256  0.1632
79766SOL    HW151023   5.553   5.992  10.507  0.1717 -0.0884 -0.2156
79766SOL    HW251024   5.475   5.886  10.433  0.2054 -0.6807  0.5870
79767SOL     OW51025  13.567   3.108   3.011  0.1739  0.6413 -0.0237
79767SOL    HW151026  13.480   3.070   3.001  0.6808 -0.8492  0.8853
79767SOL    HW251027  13.586   3.147   2.925  0.4235 -3.0380 -1.8706
79768SOL     OW51028   2.638   8.989   6.028  0.2005  0.1894 -0.7639
79768SOL    HW151029   2.552   8.956   6.054  0.4727 -0.4403 -0.6448
79768SOL    HW251030   2.627   9.084   6.022 -0.7815  0.0279 -1.7806
79769SOL     OW51031   3.854   8.154   4.920  0.0980  0.4055  0.5525
79769SOL    HW151032   3.793   8.213   4.876  0.8734  0.4090 -0.5693
79769SOL    HW251033   3.925   8.211   4.950 -0.5176  0.4380  2.0521
79770SOL     OW51034  12.618   7.376  11.635 -0.0007 -0.5072  0.1666
79770SOL    HW151035  12.573   7.292  11.645 -0.5713 -0.0747  1.3304
79770SOL    HW251036  12.571   7.419  11.563 -0.2812 -0.8156  0.1594
79771SOL     OW51037  11.373   6.383   8.876  0.3411  0.5601 -0.1163
79771SOL    HW151038  11.415   6.371   8.961  0.1344  0.1487 -0.0681
79771SOL    HW251039  11.309   6.453   8.890 -0.5299 -0.3203  0.3810
79772SOL     OW51040  12.019   4.313  12.673 -0.0833  0.0574  0.0380
79772SOL    HW151041  12.019   4.384  12.609  0.9743 -0.2658 -0.3499
79772SOL    HW251042  11.990   4.354  12.755 -0.8971  0.6005 -0.5066
79773SOL     OW51043  10.056   9.540   6.660  0.1708 -0.1539  0.1009
79773SOL    HW151044  10.112   9.516   6.587 -0.3282  0.2171 -0.4123
79773SOL    HW251045  10.002   9.612   6.627  0.1934  0.2719  0.9474
79774SOL     OW51046   6.502  10.296   1.659  0.1007 -0.2996 -0.7013
79774SOL    HW151047   6.461  10.233   1.719 -0.1397 -0.0401 -0.5893
79774SOL    HW251048   6.573  10.247   1.619 -0.5116 -0.8568 -1.1325
79775SOL     OW51049  12.166  12.862   8.238 -0.3315  0.1813 -0.2984
79775SOL    HW151050  12.228  12.792   8.221 -0.1295  0.4356 -0.6380
79775SOL    HW251051  12.090  12.819   8.276 -0.6692 -0.3818 -1.5506
79776SOL     OW51052   3.330   5.849   7.112  0.0388  0.8593 -0.5911
79776SOL    HW151053   3.289   5.889   7.188 -0.0600  0.7526 -0.5880
79776SOL    HW251054   3.266   5.859   7.042 -1.0350 -1.4205 -0.0291
79777SOL     OW51055   9.583  12.396   3.302 -0.4588  0.6866  0.4485
79777SOL    HW151056   9.578  12.334   3.375  0.2366  0.3795  0.2424
79777SOL    HW251057   9.669  12.381   3.264 -0.8146  0.8385 -0.4389
79778SOL     OW51058   2.480   5.786  10.190 -0.0404  0.9039  0.2828
79778SOL    HW151059   2.533   5.765  10.267 -1.4177 -0.3406  0.9383
79778SOL    HW251060   2.423   5.710  10.178 -0.2824  1.3223 -1.6232
79779SOL     OW51061   0.899   8.650  13.154  0.2747 -0.0054  0.0745
79779SOL    HW151062   0.845   8.658  13.233 -1.4173  1.0849 -1.1223
79779SOL    HW251063   0.943   8.565  13.164  1.1238  0.6464  2.7471
79780SOL     OW51064   5.559  10.110   9.092  0.1911  0.6739 -0.1104
79780SOL    HW151065   5.583  10.092   9.183 -0.2221 -0.8527 -0.2732
79780SOL    HW251066   5.464  10.121   9.094 -0.0088 -0.7025 -0.5114
79781SOL     OW51067   5.404  13.353   8.016  0.2602 -0.5586 -0.8606
79781SOL    HW151068   5.355  13.291   8.069  1.6024  0.1694  1.3293
79781SOL    HW251069   5.347  13.371   7.941 -2.0552 -1.0395  0.7080
79782SOL     OW51070   9.131   9.297   9.480  0.4871  0.0637  0.0184
79782SOL    HW151071   9.093   9.269   9.398 -1.8045 -1.6403  1.5501
79782SOL    HW251072   9.226   9.297   9.464  0.1407 -0.8203 -2.3939
79783SOL     OW51073   7.514   0.203   6.397  0.0429 -0.1850 -0.1690
79783SOL    HW151074   7.608   0.206   6.379  0.2183 -0.0747  0.7187
79783SOL    HW251075   7.478   0.278   6.350  0.6531  0.7682  0.8333
79784SOL     OW51076   4.067  10.417  11.961 -0.3486  0.0026  0.8094
79784SOL    HW151077   3.975  10.418  11.985 -0.7164  0.6164 -0.5552
79784SOL    HW251078   4.091  10.509  11.951  0.3281 -0.1602  0.8272
79785SOL     OW51079   9.730   0.010   9.606  0.5656  0.0384  0.0291
79785SOL    HW151080   9.758   0.035   9.518 -0.9530  0.0362 -0.4813
79785SOL    HW251081   9.705  -0.082   9.598  2.7036 -0.6962  1.0602
79786SOL     OW51082   7.300  12.640   5.785 -0.1972 -0.1755  0.2318
79786SOL    HW151083   7.393  12.619   5.776 -0.0207  1.1444 -1.5622
79786SOL    HW251084   7.298  12.734   5.799 -1.2689 -0.1819  0.1760
79787SOL     OW51085  12.059   7.937   1.841  0.5497 -0.3680 -0.1165
79787SOL    HW151086  12.005   7.864   1.809  0.9097  0.1189 -1.9133
79787SOL    HW251087  12.111   7.963   1.765  1.6359  0.6848  0.9615
79788SOL     OW51088   3.267  12.390  10.957  0.2233 -0.1550 -0.2458
79788SOL    HW151089   3.357  12.419  10.948  0.3375  0.0055  1.1957
79788SOL    HW251090   3.248  12.345  10.874  0.9470  1.5268 -1.3874
79789SOL     OW51091  13.527   7.100  11.665  0.3130  0.2055  0.2273
79789SOL    HW151092  13.602   7.066  11.713  0.7463 -1.9580 -1.8248
79789SOL    HW251093  13.473   7.023  11.647 -0.2443  1.0511 -1.9924
79790SOL     OW51094   5.489  12.219   9.066  0.2630  0.2555  0.2060
79790SOL    HW151095   5.397  12.204   9.091 -0.1779  0.3514 -1.2759
79790SOL    HW251096   5.492  12.311   9.041  0.8149  0.2888  0.3868
79791SOL     OW51097  12.432  12.978   8.048 -0.2801  0.0728  0.0485
79791SOL    HW151098  12.453  12.890   8.077  1.3178  0.4509  0.1284
79791SOL    HW251099  12.415  12.970   7.954  2.1459 -0.0108 -0.4370
79792SOL     OW51100  11.465   6.046   5.239  0.2862 -0.1843 -0.0980
79792SOL    HW151101  11.486   6.125   5.289  1.0414  0.1245 -0.8717
79792SOL    HW251102  11.453   6.077   5.149  1.3824 -1.0305 -0.5647
79793SOL     OW51103   7.004  11.636  11.283  0.0249  0.1959 -0.2560
79793SOL    HW151104   7.046  11.682  11.355 -0.9137  1.6035 -0.5613
79793SOL    HW251105   6.922  11.684  11.268 -0.9619 -1.5475 -0.6586
79794SOL     OW51106   7.444   5.319   6.441 -0.1762 -0.0726  0.4369
79794SOL    HW151107   7.408   5.400   6.476  0.9063  0.8383 -0.4750
79794SOL    HW251108   7.535   5.318   6.471 -0.0195 -0.6654 -0.0350
79795SOL     OW51109   0.187   9.395   0.486 -0.1510 -0.7042  0.0758
79795SOL    HW151110   0.130   9.376   0.412 -2.2678 -3.1546  2.1663
79795SOL    HW251111   0.128   9.419   0.557  1.8082  1.5624  1.0792
79796SOL     OW51112   8.832   0.973  12.945  0.0633 -0.3817  0.3899
79796SOL    HW151113   8.780   0.932  12.877 -0.6229  0.9341  0.0915
79796SOL    HW251114   8.768   1.004  13.009  0.4629  0.9826  0.1688
79797SOL     OW51115   8.606   5.566  11.987  0.0953 -0.1885  0.0377
79797SOL    HW151116   8.534   5.617  12.023  1.2147 -0.1862  2.4500
79797SOL    HW251117   8.666   5.631  11.950  1.3983  0.3776  2.8791
79798SOL     OW51118  13.223   6.353  10.736  0.0129  0.5029  0.2699
79798SOL    HW151119  13.236   6.261  10.714 -0.6588  0.5723 -0.4706
79798SOL    HW251120  13.254   6.400  10.658  1.3193  0.9683  1.0348
79799SOL     OW51121   0.971   6.215  12.570  0.0587  0.3173 -0.3329
79799SOL    HW151122   1.024   6.227  12.649 -1.2217 -0.0535  0.6071
79799SOL    HW251123   0.953   6.303  12.539  0.4514  0.4674 -0.1454
79800SOL     OW51124   3.643   4.320  10.973 -0.6405 -0.2416 -0.5565
79800SOL    HW151125   3.577   4.362  11.028  1.2525  1.8446  0.2973
79800SOL    HW251126   3.621   4.349  10.884 -1.5136 -0.5245 -0.4421
79801SOL     OW51127   6.437   3.662  11.747  0.3186 -0.0107  0.5561
79801SOL    HW151128   6.493   3.588  11.769  0.3771 -0.1445 -0.0067
79801SOL    HW251129   6.348   3.626  11.744  0.3908 -0.1608 -0.1115
79802SOL     OW51130  11.970  12.585   5.344  0.1882  0.2077 -0.1389
79802SOL    HW151131  12.000  12.503   5.305 -1.2559 -1.3545  1.7810
79802SOL    HW251132  12.040  12.648   5.326  1.4730 -1.5022 -1.4618
79803SOL     OW51133   2.907   1.574   7.538 -0.3258 -0.5889  0.2013
79803SOL    HW151134   2.837   1.525   7.494  0.2052 -1.3524  0.1818
79803SOL    HW251135   2.911   1.658   7.493 -1.3231 -0.4790  0.2936
79804SOL     OW51136   3.371   0.742  11.640 -0.4527  0.5819  0.4676
79804SOL    HW151137   3.367   0.647  11.640 -0.6135  0.5784 -0.6946
79804SOL    HW251138   3.430   0.764  11.712  1.5331 -0.4880 -0.7446
79805SOL     OW51139   3.310   8.701   0.179  0.3442 -0.1597 -0.5568
79805SOL    HW151140   3.324   8.763   0.251  0.9001  0.1293 -0.9077
79805SOL    HW251141   3.379   8.721   0.116 -0.2927 -0.2349 -1.2941
79806SOL     OW51142   3.279   5.006   4.145  0.3952 -0.6166 -0.1809
79806SOL    HW151143   3.232   5.075   4.190  0.9751 -0.3623  0.0457
79806SOL    HW251144   3.276   4.932   4.206  1.9534  0.0033  0.7025
79807SOL     OW51145   6.416  12.712   5.764 -0.3574 -0.2188 -0.4307
79807SOL    HW151146   6.448  12.622   5.756 -2.1832 -1.0433  0.9252
79807SOL    HW251147   6.381  12.733   5.677 -1.2069 -1.3771 -0.3938
79808SOL     OW51148   1.945   4.116   9.174  0.2439  0.1232  0.6494
79808SOL    HW151149   1.915   4.025   9.173 -0.0343  0.2068 -0.9509
79808SOL    HW251150   1.973   4.131   9.265  1.9902 -2.1226  0.5863
79809SOL     OW51151  13.259   3.577   0.599  0.1361 -0.2390  0.3215
79809SOL    HW151152  13.352   3.586   0.580 -0.0575  0.4097 -0.3858
79809SOL    HW251153  13.247   3.627   0.680  0.3348  0.0302  0.1897
79810SOL     OW51154   0.501   0.140   0.786  0.0296 -0.3958  0.1929
79810SOL    HW151155   0.421   0.090   0.802 -0.3835  0.4479  0.8122
79810SOL    HW251156   0.566   0.099   0.843 -0.1570 -0.5816  0.2739
79811SOL     OW51157   8.320   0.346   0.039  0.2160 -0.3484  0.0723
79811SOL    HW151158   8.364   0.281  -0.016 -1.7127 -2.0862  0.4799
79811SOL    HW251159   8.229   0.346   0.008 -0.3090  0.5770  1.5137
79812SOL     OW51160   5.549  10.381  13.622 -0.3882 -0.2771  0.2804
79812SOL    HW151161   5.633  10.351  13.656 -0.7839 -1.2458  0.4561
79812SOL    HW251162   5.571  10.432  13.544  0.3763 -0.2322  0.5175
79813SOL     OW51163  13.485  11.295   9.299 -0.6457 -0.1590 -0.0974
79813SOL    HW151164  13.420  11.273   9.233  0.6450 -1.0968 -1.1150
79813SOL    HW251165  13.562  11.324   9.249  0.4627 -1.1587  0.9400
79814SOL     OW51166   3.326  12.142   3.664  0.4317  0.1617  0.1486
79814SOL    HW151167   3.238  12.143   3.626 -0.0776  1.4603  1.2832
79814SOL    HW251168   3.383  12.123   3.589 -0.5964  1.8721 -1.1728
79815SOL     OW51169  13.145   9.380   4.993  0.3702  0.1233  0.6533
79815SOL    HW151170  13.182   9.466   4.976 -2.8124  1.0845 -2.4675
79815SOL    HW251171  13.067   9.396   5.046 -0.6631 -0.6620 -0.5564
79816SOL     OW51172   9.621   8.616   1.928  0.1512  0.1678  0.0573
79816SOL    HW151173   9.637   8.705   1.897  0.6384 -0.1319 -0.5729
79816SOL    HW251174   9.591   8.569   1.850  0.0947 -0.2736  0.3415
79817SOL     OW51175  13.043  12.174   9.035  0.0189 -0.2356 -0.1207
79817SOL    HW151176  13.069  12.169   8.943  1.1125 -0.3089  0.1758
79817SOL    HW251177  12.993  12.255   9.041 -0.0270 -0.2083 -0.7765
79818SOL     OW51178   9.887   8.318   7.386 -0.2094 -0.6096  0.2088
79818SOL    HW151179   9.945   8.369   7.328  1.0943 -0.6141  1.4498
79818SOL    HW251180   9.917   8.339   7.474 -2.2118 -0.5307  0.9247
79819SOL     OW51181   4.452   4.375  11.009  0.1062 -0.1589  0.5218
79819SOL    HW151182   4.440   4.306  11.075 -0.9764  0.0378  0.5506
79819SOL    HW251183   4.547   4.384  11.001  0.2606 -1.3551  0.8288
79820SOL     OW51184   3.701  13.061  12.418 -0.2755 -0.0400  0.2027
79820SOL    HW151185   3.729  13.079  12.329 -0.5532 -0.1556  0.0914
79820SOL    HW251186   3.715  13.144  12.465 -1.2401  0.3782 -0.2254
79821SOL     OW51187  13.731   7.016   8.846 -0.2939 -0.1976 -0.2779
79821SOL    HW151188  13.660   6.954   8.831 -1.5543  0.5261  2.1731
79821SOL    HW251189  13.781   6.979   8.919  0.1446  0.6758 -0.1169
79822SOL     OW51190   7.162  11.829  10.467 -0.2306 -0.1964  0.2620
79822SOL    HW151191   7.210  11.747  10.479  3.4474  1.3612 -1.7932
79822SOL    HW251192   7.141  11.858  10.556  3.5354 -0.7556  1.5507
79823SOL     OW51193   2.515  13.428   8.146  0.2972  0.2526 -0.5468
79823SOL    HW151194   2.425  13.452   8.167  0.3615 -0.8811  1.1415
79823SOL    HW251195   2.512  13.399   8.055 -0.9042  0.8234 -0.7026
79824SOL     OW51196  12.075   7.709   8.813 -0.3339 -0.0114 -0.4417
79824SOL    HW151197  11.984   7.700   8.784 -0.9032 -1.1507  1.4869
79824SOL    HW251198  12.112   7.621   8.802 -0.2555 -0.2090  1.1296
79825SOL     OW51199   6.333   3.334   5.686 -0.4599 -0.1178 -0.0440
79825SOL    HW151200   6.286   3.381   5.617 -2.3314 -0.2724  1.0725
79825SOL    HW251201   6.320   3.388   5.765  0.9910 -0.3404  0.3851
79826SOL     OW51202   0.396   8.072   6.872 -1.0836  0.3797  0.5514
79826SOL    HW151203   0.406   8.168   6.875  0.5062  0.2257  1.4743
79826SOL    HW251204   0.460   8.040   6.936  0.1672 -1.3970 -1.4740
79827SOL     OW51205  10.440  13.137   2.737  0.0840  0.1651  0.0904
79827SOL    HW151206  10.376  13.169   2.673 -1.4056  0.1697  1.5226
79827SOL    HW251207  10.411  13.048   2.757  0.3260  0.2863  0.9990
79828SOL     OW51208   0.246   4.987  12.603 -0.0783 -0.0049  0.9147
79828SOL    HW151209   0.203   5.031  12.530  0.0254 -2.3160 -0.6307
79828SOL    HW251210   0.240   4.894  12.583  2.8242 -0.6093  2.2101
79829SOL     OW51211   5.176   4.581   6.782  0.1499 -1.0834  0.0039
79829SOL    HW151212   5.242   4.642   6.815  0.2594 -1.5107  0.5894
79829SOL    HW251213   5.138   4.625   6.706  0.1678 -0.2564  0.4694
79830SOL     OW51214  12.787   5.906   1.649 -0.2165  0.1062 -0.3711
79830SOL    HW151215  12.726   5.968   1.689  0.1617 -0.0933  0.5481
79830SOL    HW251216  12.734   5.827   1.634 -0.5706  0.4718 -1.0618
79831SOL     OW51217   3.489  10.825   0.351 -0.0988  0.4467 -0.1366
79831SOL    HW151218   3.570  10.836   0.401 -0.4188  2.1272  0.0763
79831SOL    HW251219   3.420  10.854   0.411 -1.3072 -3.6018  0.7881
79832SOL     OW51220   8.801   8.965   3.216 -0.3295 -0.5608 -0.2403
79832SOL    HW151221   8.737   8.896   3.233  0.6135 -1.0674  1.5009
79832SOL    HW251222   8.855   8.968   3.295  0.5573  1.2035 -0.8595
79833SOL     OW51223   8.809   7.770   9.174  0.0170  0.2054  0.2981
79833SOL    HW151224   8.813   7.828   9.097  1.8369 -0.2928 -0.0312
79833SOL    HW251225   8.877   7.804   9.232  1.5120 -1.8759 -0.1338
79834SOL     OW51226   0.863   6.559  11.234 -0.1639  0.5895  0.2360
79834SOL    HW151227   0.800   6.525  11.171 -0.8968  2.1029  0.1103
79834SOL    HW251228   0.854   6.654  11.228 -2.1796  0.8905  4.3823
79835SOL     OW51229   5.691  11.127   2.108 -0.0727 -0.1567  0.0366
79835SOL    HW151230   5.757  11.063   2.079  0.1040  0.3253 -0.6545
79835SOL    HW251231   5.619  11.074   2.141  0.0734 -0.7187 -0.5314
79836SOL     OW51232  13.459  10.596   6.958 -0.0681  0.6149 -0.4281
79836SOL    HW151233  13.432  10.637   7.040 -1.5510 -0.9849 -0.0694
79836SOL    HW251234  13.385  10.608   6.899 -0.6821 -1.7166 -0.2175
79837SOL     OW51235   9.074   0.480   9.460 -0.3189 -0.0959 -0.2512
79837SOL    HW151236   9.144   0.417   9.446 -0.2208  0.4014 -2.1726
79837SOL    HW251237   9.118   0.564   9.471 -0.5439 -0.0571  0.4327
79838SOL     OW51238   9.608   6.975   9.159  0.3684 -0.2453  0.3387
79838SOL    HW151239   9.574   7.038   9.096  0.6364  0.0720  0.5128
79838SOL    HW251240   9.559   6.894   9.140 -0.0503  0.0387  0.1880
79839SOL     OW51241   4.892  13.252   5.188  0.6665 -0.2480  0.2056
79839SOL    HW151242   4.973  13.260   5.237  0.6598  1.9099 -0.0405
79839SOL    HW251243   4.823  13.266   5.253  0.5994  0.6984 -0.0566
79840SOL     OW51244  12.588  12.558   1.293 -0.5633 -0.1896 -0.5767
79840SOL    HW151245  12.619  12.612   1.220  1.5168  0.7133  0.8802
79840SOL    HW251246  12.642  12.479   1.289  3.2217  1.8994  2.6943
79841SOL     OW51247  12.703   2.676   4.442 -0.1346  0.5831 -0.0367
79841SOL    HW151248  12.670   2.592   4.411  0.2977  0.7235 -0.9012
79841SOL    HW251249  12.742   2.716   4.365 -0.1406  1.4862  0.4201
79842SOL     OW51250   6.285   0.045  13.343  0.0650  0.2052 -0.3643
79842SOL    HW151251   6.318   0.122  13.390  0.0059 -1.5470  2.7837
79842SOL    HW251252   6.196   0.069  13.318 -0.6783  0.5577  2.3520
79843SOL     OW51253   5.320   0.735  12.882 -0.5859 -0.0139  0.5056
79843SOL    HW151254   5.246   0.795  12.883  0.3879  1.2474 -0.0763
79843SOL    HW251255   5.355   0.737  12.971  0.8105  2.1103 -0.0207
79844SOL     OW51256   1.944   5.187   0.867  0.2050 -0.1974 -0.3399
79844SOL    HW151257   2.032   5.203   0.833  0.2590  0.4125  0.0609
79844SOL    HW251258   1.893   5.263   0.839  0.2628  0.3467  0.9352
79845SOL     OW51259   8.908   5.408  12.033 -0.4686 -0.0945  0.6563
79845SOL    HW151260   8.947   5.341  12.089  0.9346 -1.0683 -1.3636
79845SOL    HW251261   8.815   5.384  12.029 -0.0227 -1.8764  0.0823
79846SOL     OW51262   0.688   1.608   3.939 -0.3229  0.2811  0.0152
79846SOL    HW151263   0.761   1.552   3.914 -0.8019 -0.0261 -0.7372
79846SOL    HW251264   0.610   1.553   3.926 -0.8379  1.2463 -1.1481
79847SOL     OW51265   3.815   4.333   0.188  0.2142  0.0401  0.0553
79847SOL    HW151266   3.744   4.379   0.142  0.6154  0.8425  0.2242
79847SOL    HW251267   3.773   4.294   0.264 -0.0808  0.3776  0.0689
79848SOL     OW51268  11.397  12.243   7.981 -0.3431 -0.8061 -0.0929
79848SOL    HW151269  11.471  12.250   7.921 -0.0253 -1.1738  0.2466
79848SOL    HW251270  11.367  12.152   7.972 -0.1837 -0.9163  0.4214
79849SOL     OW51271   5.392   8.069   9.706 -0.1014 -0.7539  0.2633
79849SOL    HW151272   5.431   8.079   9.619 -2.5814 -0.5281 -0.9034
79849SOL    HW251273   5.368   7.977   9.711  0.9285 -0.9942  1.1604
79850SOL     OW51274   2.872   6.295  10.730  0.0456 -0.6401  0.2663
79850SOL    HW151275   2.916   6.345  10.662 -0.5549 -1.0163 -0.4248
79850SOL    HW251276   2.796   6.256  10.686 -0.7150 -0.3871  1.2991
79851SOL     OW51277   8.505   4.351   8.092  0.2549  0.0311 -0.0827
79851SOL    HW151278   8.420   4.308   8.081 -1.1694  2.6563 -0.0096
79851SOL    HW251279   8.567   4.292   8.049 -1.5698 -1.9698 -0.1346
79852SOL     OW51280   3.578   1.405   2.708 -0.0281  0.3599 -0.2499
79852SOL    HW151281   3.598   1.456   2.630 -1.4630  2.9515  0.9351
79852SOL    HW251282   3.529   1.329   2.676  0.4783  0.7228 -1.9515
79853SOL     OW51283   2.865   4.337   5.765 -0.1125 -0.1023  0.2363
79853SOL    HW151284   2.824   4.350   5.851  1.6959  0.3891  1.0650
79853SOL    HW251285   2.902   4.422   5.743 -1.7253  0.1760 -1.7355
79854SOL     OW51286   0.800  11.386   6.517 -0.4147  0.8124 -0.8747
79854SOL    HW151287   0.729  11.322   6.523 -0.1741  0.5491 -0.7997
79854SOL    HW251288   0.757  11.468   6.492 -0.7169  0.6068 -1.0315
79855SOL     OW51289  10.895   8.367   3.287 -0.2183  0.0574 -0.3353
79855SOL    HW151290  10.918   8.408   3.371 -0.5945 -0.6642  0.1264
79855SOL    HW251291  10.831   8.425   3.248  0.2034  0.5686 -0.2787
79856SOL     OW51292   9.734   1.969   6.679 -0.1281 -0.2393  0.6758
79856SOL    HW151293   9.789   1.918   6.620  0.5664 -0.2714  1.3310
79856SOL    HW251294   9.743   2.059   6.648  1.2094 -0.0762  1.4331
79857SOL     OW51295  12.196   3.954   3.917  0.2271  0.1357 -0.1223
79857SOL    HW151296  12.271   3.904   3.886 -0.2103  0.1032 -1.1535
79857SOL    HW251297  12.122   3.892   3.912 -0.3335  0.8918 -1.4905
79858SOL     OW51298  10.527   3.326   5.400  0.1647  0.2685 -0.2276
79858SOL    HW151299  10.603   3.306   5.456 -1.6417 -2.7433  1.3867
79858SOL    HW251300  10.551   3.292   5.314  0.5190 -1.0434  0.3661
79859SOL     OW51301  11.141   7.844  11.756  0.1752  0.4449  0.5089
79859SOL    HW151302  11.133   7.939  11.751  2.3962  0.6345 -0.7147
79859SOL    HW251303  11.109   7.813  11.672  0.2152  0.1876  0.5884
79860SOL     OW51304   1.462  12.546   3.881  0.0076  0.3507  0.2085
79860SOL    HW151305   1.452  12.641   3.873 -0.6331  0.1525 -2.0942
79860SOL    HW251306   1.375  12.515   3.906 -0.6971  0.1806 -2.1353
79861SOL     OW51307   3.528   1.261   8.044 -0.3995 -0.1923  0.2026
79861SOL    HW151308   3.573   1.322   8.103 -2.0514 -0.0042  1.3319
79861SOL    HW251309   3.589   1.249   7.972  0.3691  2.1357  0.3633
79862SOL     OW51310   1.099   8.117   2.543  0.0328 -0.1837  0.1019
79862SOL    HW151311   1.071   8.097   2.632  0.0493  0.8537  0.3540
79862SOL    HW251312   1.173   8.057   2.527  0.2528 -0.1333  0.9099
79863SOL     OW51313   5.660   4.167   6.423 -0.2677 -0.4486  1.0463
79863SOL    HW151314   5.636   4.214   6.343  0.5923 -0.6885  0.6438
79863SOL    HW251315   5.587   4.106   6.437 -0.3973 -0.4494  0.4124
79864SOL     OW51316  10.991   5.720   1.309  0.0457 -0.0870  0.1475
79864SOL    HW151317  10.961   5.631   1.329  0.0804 -0.0326  0.4438
79864SOL    HW251318  10.957   5.773   1.380 -0.1897  0.1815 -0.1632
79865SOL     OW51319  12.823   7.131   3.426  0.3389  0.2636  0.2806
79865SOL    HW151320  12.888   7.067   3.396 -0.7385 -0.4527 -0.6052
79865SOL    HW251321  12.802   7.182   3.348 -0.6096  0.0706  0.3953
79866SOL     OW51322  12.672   9.258  12.088 -0.1576  0.0987  0.2092
79866SOL    HW151323  12.701   9.314  12.160 -0.2583  1.0139 -0.4420
79866SOL    HW251324  12.735   9.186  12.087 -0.1922  0.0311  1.2469
79867SOL     OW51325   9.527  11.436  12.194  0.3506 -0.0037  0.2069
79867SOL    HW151326   9.460  11.467  12.133  1.3932  1.4017 -0.2734
79867SOL    HW251327   9.610  11.453  12.149  1.0828 -0.8676  1.1643
79868SOL     OW51328   4.363   4.640  13.279 -0.4218  0.0051 -0.1888
79868SOL    HW151329   4.323   4.603  13.357 -0.0064  0.7902  0.4030
79868SOL    HW251330   4.323   4.591  13.207 -2.7957  1.0476  0.3347
79869SOL     OW51331   7.453  12.711   4.059 -0.2858  0.6812  0.4338
79869SOL    HW151332   7.400  12.652   4.005 -0.3693 -0.0359  1.2774
79869SOL    HW251333   7.544  12.689   4.035 -0.2225 -1.4202  2.3374
79870SOL     OW51334   0.394   6.060   8.082  0.6812  0.3532 -0.4089
79870SOL    HW151335   0.357   6.136   8.127  0.8314 -0.7331  1.6280
79870SOL    HW251336   0.486   6.081   8.069  0.4377  1.0552 -1.1209
79871SOL     OW51337  12.989  12.088   0.778  0.1511  0.1394  0.3394
79871SOL    HW151338  13.044  12.066   0.703  0.0294 -0.3015  0.3767
79871SOL    HW251339  12.921  12.021   0.779  0.0102  0.2827  0.7023
79872SOL     OW51340  12.236   8.600   4.894 -0.1891  0.0372 -0.2221
79872SOL    HW151341  12.143   8.591   4.872 -0.4428  0.4967  0.6034
79872SOL    HW251342  12.267   8.510   4.904 -0.3332 -0.1447 -1.3269
79873SOL     OW51343  10.261   8.566   7.223  0.5637  0.2167  0.2878
79873SOL    HW151344  10.269   8.649   7.175  1.1767 -0.3610 -0.6386
79873SOL    HW251345  10.283   8.499   7.159  1.0142 -0.6088  1.2781
79874SOL     OW51346   0.918   5.245   5.935  0.1451 -0.1817  0.4277
79874SOL    HW151347   0.852   5.277   5.874  1.4150 -0.3175 -1.0889
79874SOL    HW251348   0.972   5.322   5.954 -0.6426  0.0235  1.9659
79875SOL     OW51349  12.569   1.663   8.379 -0.3492 -0.0475  0.1150
79875SOL    HW151350  12.556   1.750   8.341  1.5316  1.2249  2.1314
79875SOL    HW251351  12.650   1.631   8.339 -0.7991 -0.6979 -0.2915
79876SOL     OW51352   1.958   9.668   8.629  0.6080 -0.3890 -0.2763
79876SOL    HW151353   1.959   9.584   8.583 -0.2300  0.2980 -1.6096
79876SOL    HW251354   2.042   9.671   8.675  0.8533 -1.7376 -0.5865
79877SOL     OW51355  11.211  10.488   1.665 -0.0641  0.1313 -0.2608
79877SOL    HW151356  11.231  10.525   1.751  0.6616  0.0225 -0.3790
79877SOL    HW251357  11.275  10.528   1.606  0.1876 -0.6658 -0.5421
79878SOL     OW51358   2.286  13.671   6.574 -0.7119  0.1472  0.1969
79878SOL    HW151359   2.335  13.692   6.653  1.3775 -0.0456 -0.9585
79878SOL    HW251360   2.267  13.577   6.581 -1.2105  0.2866  0.7932
79879SOL     OW51361   4.161  10.692  12.310 -0.0678 -0.1159  0.5647
79879SOL    HW151362   4.092  10.634  12.277  0.1942 -1.1571  1.7769
79879SOL    HW251363   4.229  10.633  12.342  1.5771  0.8707 -0.8743
79880SOL     OW51364  10.148  11.932   3.069  0.5202  0.5669  0.3794
79880SOL    HW151365  10.206  11.950   2.995  0.1577 -1.5188 -0.4846
79880SOL    HW251366  10.062  11.964   3.041  0.7472  1.4231  0.6507
79881SOL     OW51367  10.134  12.385   4.678 -0.2013  0.2052  0.5341
79881SOL    HW151368  10.112  12.467   4.722 -0.6775 -0.1123  0.8910
79881SOL    HW251369  10.182  12.334   4.744 -1.4227 -0.5078  0.8930
79882SOL     OW51370   4.309   5.642   8.247 -0.4183 -0.1727 -0.1155
79882SOL    HW151371   4.291   5.604   8.161 -0.4612 -0.3097 -0.0448
79882SOL    HW251372   4.274   5.579   8.309  1.1996 -0.9548  0.0634
79883SOL     OW51373   9.855   9.163   3.996  0.1227 -0.4183 -0.2515
79883SOL    HW151374   9.864   9.068   3.989 -2.8518 -0.8778  0.6504
79883SOL    HW251375   9.898   9.185   4.079 -0.7117 -1.3045  0.4489
79884SOL     OW51376  13.090   3.522   5.667 -0.2537  0.4871  0.3333
79884SOL    HW151377  13.004   3.507   5.628 -0.5059  1.3683  0.5276
79884SOL    HW251378  13.137   3.576   5.603  0.3874 -0.4828 -0.0473
79885SOL     OW51379  11.527   4.051   9.649 -0.0473  0.2995 -0.7060
79885SOL    HW151380  11.491   4.139   9.657 -1.0917  0.0499 -2.1937
79885SOL    HW251381  11.453   3.998   9.619  0.3972 -1.2262  0.7542
79886SOL     OW51382   7.233   4.767   9.529 -0.2306 -0.1956  0.0323
79886SOL    HW151383   7.322   4.740   9.551 -1.2641 -2.0759  2.4616
79886SOL    HW251384   7.217   4.730   9.442  1.3249  0.1728 -0.4450
79887SOL     OW51385   9.797  10.672   2.741  0.1243  0.9191 -0.2019
79887SOL    HW151386   9.858  10.736   2.778 -1.0002  2.2461 -0.5600
79887SOL    HW251387   9.834  10.587   2.765  1.7865  1.6897  0.0870
79888SOL     OW51388   5.901   4.626  12.095  0.6054 -0.2678  0.4994
79888SOL    HW151389   5.893   4.689  12.167  0.8287 -0.0144  0.3012
79888SOL    HW251390   5.969   4.662  12.039  2.0331 -1.6009  1.3166
79889SOL     OW51391   0.502   9.197   7.971  0.0033 -1.1292 -0.7621
79889SOL    HW151392   0.572   9.235   8.023 -2.0540  1.7042  0.2174
79889SOL    HW251393   0.512   9.102   7.983  3.0119 -0.8139  0.0579
79890SOL     OW51394   9.961   6.442   7.721  0.5798  0.4092  0.0012
79890SOL    HW151395  10.021   6.427   7.794  1.0508  2.6648  0.1606
79890SOL    HW251396   9.884   6.389   7.741  1.2976 -0.1533  1.3752
79891SOL     OW51397   9.966  12.378   2.652 -0.1037 -0.1874 -0.3608
79891SOL    HW151398  10.008  12.356   2.735 -2.0039  0.9649  0.9756
79891SOL    HW251399   9.939  12.294   2.616  0.9133 -0.7154  0.0696
79892SOL     OW51400   0.996   8.963  13.087 -0.3271 -0.3843 -0.1738
79892SOL    HW151401   0.939   8.886  13.088 -0.3917 -0.3408  0.9464
79892SOL    HW251402   0.935   9.037  13.091 -0.3550 -0.1661 -2.8211
79893SOL     OW51403   5.974   4.631  10.957  0.4016 -0.1105  0.4440
79893SOL    HW151404   5.971   4.611  11.051 -0.1296 -0.7872  0.2957
79893SOL    HW251405   6.022   4.558  10.919  0.1332 -0.1273  0.1263
79894SOL     OW51406   1.491   8.735   6.088  0.1280  0.1217 -0.3798
79894SOL    HW151407   1.564   8.673   6.088  0.0656  0.0313  0.6355
79894SOL    HW251408   1.415   8.683   6.114  0.3268  0.8436  1.9620
79895SOL     OW51409  10.708   3.907  12.655  0.2990 -0.1517  0.0358
79895SOL    HW151410  10.788   3.862  12.631 -0.4548 -0.2782 -2.5585
79895SOL    HW251411  10.723   3.937  12.745  2.0339 -2.7532  0.7161
79896SOL     OW51412  11.765   3.458   8.872  0.0965  0.1252 -0.1524
79896SOL    HW151413  11.812   3.417   8.945  1.0544  2.0581  0.3851
79896SOL    HW251414  11.829   3.461   8.801  0.2128  1.1574 -0.0080
79897SOL     OW51415  12.769   1.753   3.920 -0.6397 -0.4365 -0.2999
79897SOL    HW151416  12.780   1.731   3.828  1.0377 -0.9069 -0.0195
79897SOL    HW251417  12.780   1.848   3.923 -0.2644 -0.4680 -0.5491
79898SOL     OW51418  10.459   4.732   4.402  0.4685  0.1668 -0.0271
79898SOL    HW151419  10.550   4.757   4.421  0.1508  0.8709  0.5773
79898SOL    HW251420  10.420   4.715   4.488 -0.1864  0.6090 -0.2345
79899SOL     OW51421  12.061   1.027  13.723  0.0125  0.5773 -0.1120
79899SOL    HW151422  12.022   0.945  13.693 -0.7632  0.5143  1.0029
79899SOL    HW251423  12.065   1.081  13.644  0.7075 -0.5805 -0.9034
79900SOL     OW51424  10.366   8.914  10.461 -0.8099  0.0087 -0.6643
79900SOL    HW151425  10.401   8.840  10.509 -1.2249  1.1489  1.4986
79900SOL    HW251426  10.442   8.955  10.420 -0.3085 -0.3925 -0.1406
79901SOL     OW51427   9.124   1.855   8.595 -0.1608 -0.4164  0.4338
79901SOL    HW151428   9.164   1.873   8.680 -0.8384 -1.0151  0.8914
79901SOL    HW251429   9.046   1.804   8.615 -1.2759  0.8981 -0.4430
79902SOL     OW51430   6.540   0.646   4.857  0.3503  0.0504 -0.3752
79902SOL    HW151431   6.447   0.633   4.876  0.3386 -0.0676 -0.5208
79902SOL    HW251432   6.584   0.576   4.906  0.4658  0.9112  0.7900
79903SOL     OW51433  12.423   3.278  10.194  0.1552  0.3464 -0.1703
79903SOL    HW151434  12.366   3.293  10.269  1.7806  0.7255  1.0512
79903SOL    HW251435  12.507   3.255  10.233  1.0481  0.5698 -1.8853
79904SOL     OW51436   1.881   1.287   1.238 -0.5468  0.3544 -0.3931
79904SOL    HW151437   1.924   1.346   1.300 -1.1341  0.9740 -0.5604
79904SOL    HW251438   1.872   1.339   1.158  0.1609 -0.4221 -0.9932
79905SOL     OW51439   1.123  12.425   2.383 -0.6112 -0.3013  0.2214
79905SOL    HW151440   1.035  12.433   2.421 -0.8608 -0.1722 -0.3663
79905SOL    HW251441   1.108  12.427   2.288  0.1502  1.1645  0.1050
79906SOL     OW51442  11.132  10.020   4.328  0.0880  0.2399  0.2991
79906SOL    HW151443  11.054  10.075   4.320 -0.0680  0.1088  0.8805
79906SOL    HW251444  11.190  10.070   4.386  0.4955  0.4024 -0.2404
79907SOL     OW51445  11.059   6.606   5.330  0.1161  0.1716 -0.2658
79907SOL    HW151446  11.113   6.629   5.406 -1.8466 -2.0206  2.0218
79907SOL    HW251447  11.105   6.534   5.289  0.8648  0.9300 -0.7758
79908SOL     OW51448   8.618  10.423  10.181 -0.5529  0.1385  0.3512
79908SOL    HW151449   8.569  10.454  10.105 -1.2444 -0.6007  0.4727
79908SOL    HW251450   8.629  10.500  10.236  0.9919  0.9454 -1.0197
79909SOL     OW51451   5.515   6.912  11.605  0.2326 -0.0088 -0.3019
79909SOL    HW151452   5.563   6.965  11.541 -0.5890 -0.1304 -1.0258
79909SOL    HW251453   5.445   6.969  11.635  0.1514 -0.2258 -0.0816
79910SOL     OW51454  10.670   7.549   3.118  0.1390 -0.0085  0.1287
79910SOL    HW151455  10.717   7.480   3.072 -0.4763  0.9341 -2.0067
79910SOL    HW251456  10.589   7.560   3.069 -1.3546 -0.0594  2.4055
79911SOL     OW51457   6.887   2.728   8.268 -0.3510  0.0989  0.2028
79911SOL    HW151458   6.982   2.724   8.281 -0.2578 -2.4272 -0.7194
79911SOL    HW251459   6.859   2.636   8.268 -2.7236  0.7578 -0.1695
79912SOL     OW51460   5.140   3.652  12.709 -0.1322  0.1369 -0.1419
79912SOL    HW151461   5.174   3.686  12.626 -1.9742  0.5871 -0.7600
79912SOL    HW251462   5.130   3.729  12.764  1.9924 -0.2618  0.9156
79913SOL     OW51463  13.429   3.352   2.521 -0.5904 -0.2724 -0.0460
79913SOL    HW151464  13.376   3.362   2.443 -1.3918 -2.6877  0.1150
79913SOL    HW251465  13.518   3.336   2.488 -0.6005  0.3299 -0.3872
79914SOL     OW51466   9.489   2.791   2.136  0.5566  0.2023  0.5091
79914SOL    HW151467   9.565   2.798   2.078 -1.5911 -0.4352 -2.6349
79914SOL    HW251468   9.436   2.868   2.115  0.5443  0.9795  3.1031
79915SOL     OW51469   8.515   9.493   3.665 -0.3345 -0.4681 -0.0497
79915SOL    HW151470   8.423   9.473   3.650 -0.0342  0.3683 -4.3730
79915SOL    HW251471   8.519   9.589   3.662  0.7428 -0.5208 -0.7033
79916SOL     OW51472   0.666   8.724  10.971 -0.4419  0.3388  0.7779
79916SOL    HW151473   0.597   8.684  10.917 -0.1352  2.4467 -1.3254
79916SOL    HW251474   0.741   8.666  10.961 -0.3320  0.7578 -1.3327
79917SOL     OW51475  12.780  13.702   2.668 -0.2031 -0.0150 -0.1914
79917SOL    HW151476  12.735  13.670   2.590  0.1513  1.5068 -1.0447
79917SOL    HW251477  12.737  13.656   2.740 -1.3041 -0.6011 -1.1867
79918SOL     OW51478   0.771   6.630  13.230  0.0005 -0.0221  0.5584
79918SOL    HW151479   0.713   6.567  13.188  0.3856 -0.5111  0.7484
79918SOL    HW251480   0.859   6.602  13.205  0.1257  1.6464 -1.0338
79919SOL     OW51481  12.012   4.830   4.846 -0.1282 -0.1215 -0.3906
79919SOL    HW151482  12.096   4.784   4.853 -0.8818 -1.3436  1.4139
79919SOL    HW251483  11.982   4.812   4.757  1.0132 -0.5724 -0.7120
79920SOL     OW51484   3.743   0.271   7.903  0.1855  0.0659  0.6619
79920SOL    HW151485   3.748   0.340   7.836  2.4524  0.7292  1.4249
79920SOL    HW251486   3.649   0.265   7.924 -0.6483 -0.2693 -2.5892
79921SOL     OW51487   3.651  10.311   5.703  0.3861 -0.4009  0.0616
79921SOL    HW151488   3.560  10.306   5.732  0.1971 -0.8381 -0.5699
79921SOL    HW251489   3.672  10.221   5.676  0.9213 -0.2481 -0.0359
79922SOL     OW51490  10.189   0.207  12.073  0.0719 -0.2348 -0.3291
79922SOL    HW151491  10.141   0.279  12.113 -0.7999 -1.4591  0.8901
79922SOL    HW251492  10.130   0.172  12.007 -0.1616 -0.8431  0.1939
79923SOL     OW51493  12.766   7.541   9.577 -0.2433 -0.1330 -0.7145
79923SOL    HW151494  12.745   7.621   9.528 -1.1965 -0.8147 -1.4756
79923SOL    HW251495  12.730   7.557   9.664  1.2348  0.9905 -0.2710
79924SOL     OW51496   7.113   1.057   1.886 -0.2040 -0.4320  0.0763
79924SOL    HW151497   7.160   1.120   1.832  1.2484 -0.5930  1.1190
79924SOL    HW251498   7.114   0.976   1.834  1.0052 -0.5328  0.2239
79925SOL     OW51499  12.484  13.225   9.091 -0.3579  0.2928 -0.0817
79925SOL    HW151500  12.443  13.286   9.153  0.4241  1.1947 -0.4166
79925SOL    HW251501  12.569  13.265   9.072 -0.4313 -0.1720 -1.4548
79926SOL     OW51502   9.748  13.103  13.106  0.1155  0.0555 -0.2344
79926SOL    HW151503   9.673  13.062  13.063  0.2887 -1.4771  0.8051
79926SOL    HW251504   9.732  13.197  13.099 -0.5817 -0.1795 -2.2835
79927SOL     OW51505   4.190  13.003   3.325  0.4316 -1.0942  0.0295
79927SOL    HW151506   4.110  12.951   3.333  0.2528 -0.5946  1.7603
79927SOL    HW251507   4.201  13.015   3.230 -2.3165  0.0173 -0.2307
79928SOL     OW51508   5.010   9.324  11.648 -0.0392  0.1165 -0.3921
79928SOL    HW151509   5.094   9.369  11.657 -0.5798  1.1617 -0.5251
79928SOL    HW251510   4.953   9.366  11.711 -0.9179  0.4987 -1.4117
79929SOL     OW51511   7.043   3.472   5.816  0.2016  0.1013  0.6618
79929SOL    HW151512   7.049   3.393   5.869  2.0821 -0.1078  0.2020
79929SOL    HW251513   7.039   3.440   5.726 -1.8993  0.4841  0.5763
79930SOL     OW51514   8.751   8.260   5.006 -0.3505 -0.3281 -0.4964
79930SOL    HW151515   8.766   8.310   4.925 -0.7316  1.0359  0.2384
79930SOL    HW251516   8.826   8.201   5.012  0.5548  0.7432 -0.9855
79931SOL     OW51517   3.938   7.721  12.484 -0.2427 -0.2516 -0.2431
79931SOL    HW151518   3.874   7.652  12.500 -2.2266  1.5052 -0.2286
79931SOL    HW251519   3.917   7.789  12.547 -1.0677  2.1177 -2.8949
79932SOL     OW51520   2.066  10.211  12.792  0.4574 -0.3319 -0.7051
79932SOL    HW151521   2.005  10.277  12.760  1.6560 -0.6339 -4.1234
79932SOL    HW251522   2.024  10.128  12.771 -0.0506 -0.6664  1.4815
79933SOL     OW51523   3.331  10.693   8.950  0.2451  0.2915  0.1957
79933SOL    HW151524   3.272  10.713   8.877  1.1415  0.8340 -0.4097
79933SOL    HW251525   3.398  10.636   8.912  1.7244  1.9985  0.0920
79934SOL     OW51526  11.610  12.813   9.554  0.0055  0.0526 -0.0635
79934SOL    HW151527  11.690  12.801   9.604 -0.4893 -0.9779  0.5251
79934SOL    HW251528  11.586  12.905   9.567  0.6388  0.1481  0.4442
79935SOL     OW51529   2.690  13.607   0.593 -0.3580 -0.0419  0.0946
79935SOL    HW151530   2.782  13.591   0.573 -0.5361 -0.2570 -0.5781
79935SOL    HW251531   2.687  13.612   0.689  0.2195 -0.8876  0.1682
79936SOL     OW51532   7.122   9.098   1.975 -0.0552  0.2121  0.2514
79936SOL    HW151533   7.177   9.032   1.933 -0.0769 -0.8397  1.8154
79936SOL    HW251534   7.133   9.083   2.069 -2.5802  0.3004  0.6328
79937SOL     OW51535   4.013  13.167   6.069  0.2974  0.1215  0.1522
79937SOL    HW151536   3.977  13.249   6.035  3.0102  0.7937 -1.3701
79937SOL    HW251537   4.060  13.192   6.148  0.2746 -0.1665  0.2596
79938SOL     OW51538   3.095  10.547  11.873 -0.1828  0.1185 -0.0580
79938SOL    HW151539   3.148  10.624  11.891 -0.3133  0.2149 -0.0810
79938SOL    HW251540   3.152  10.489  11.823  0.2959 -0.2891  0.9267
79939SOL     OW51541  13.449   4.334  11.591 -0.6779  0.0551  0.2737
79939SOL    HW151542  13.498   4.369  11.518 -2.4711  1.6799 -0.2269
79939SOL    HW251543  13.377   4.285  11.551 -0.7714 -0.4026  0.9676
79940SOL     OW51544   9.886   9.741   6.554  0.1397  0.1057  0.3759
79940SOL    HW151545   9.914   9.832   6.544 -1.6171  0.7172  0.5993
79940SOL    HW251546   9.800   9.747   6.596  0.1081 -1.6787  0.6463
79941SOL     OW51547   5.077   7.310  11.611  0.1150 -0.4363 -0.6275
79941SOL    HW151548   5.087   7.390  11.559 -0.0064 -0.9752 -1.4826
79941SOL    HW251549   5.003   7.264  11.571  0.6824 -1.3624 -0.6344
79942SOL     OW51550   2.191  11.248   1.503 -0.5542 -0.2343 -0.2203
79942SOL    HW151551   2.244  11.327   1.501 -1.3642  0.3216 -0.2133
79942SOL    HW251552   2.195  11.219   1.594  0.6793 -0.8627 -0.4597
79943SOL     OW51553   1.179   1.690   2.408  0.0023  0.1323 -0.1918
79943SOL    HW151554   1.138   1.701   2.323  1.3657 -2.7079 -1.3831
79943SOL    HW251555   1.269   1.719   2.395 -0.6135  3.0804  1.4044
79944SOL     OW51556  11.617  13.466  12.756  0.2664 -0.2234 -0.0752
79944SOL    HW151557  11.546  13.527  12.774  1.5156  1.8688 -1.7026
79944SOL    HW251558  11.601  13.437  12.666 -0.1035 -2.1017  0.5458
79945SOL     OW51559   5.067   9.318   5.789  0.2293 -0.3201  0.1175
79945SOL    HW151560   5.081   9.300   5.881 -0.6007  0.5861  0.4416
79945SOL    HW251561   4.985   9.272   5.768  0.4791 -0.6235 -0.1953
79946SOL     OW51562  10.540  11.148   8.018  0.1987 -0.4178 -0.5090
79946SOL    HW151563  10.505  11.094   8.089 -1.3659  0.1094 -0.8387
79946SOL    HW251564  10.572  11.227   8.062  1.9039 -1.2992 -0.0998
79947SOL     OW51565   9.153   6.600   7.802 -0.1707 -0.1719 -0.3731
79947SOL    HW151566   9.089   6.557   7.746  0.7834 -0.5613 -1.2102
79947SOL    HW251567   9.154   6.547   7.882 -0.4224 -0.5483 -0.6155
79948SOL     OW51568  11.608   2.200   3.198 -0.2771  0.1816  0.2347
79948SOL    HW151569  11.629   2.286   3.235  0.4166  0.2631 -0.3347
79948SOL    HW251570  11.512   2.200   3.194 -0.3421  0.3995  1.4535
79949SOL     OW51571  13.642   1.995  13.315  0.8353  0.0015  0.2004
79949SOL    HW151572  13.659   1.979  13.408  0.2010 -0.1512  0.2933
79949SOL    HW251573  13.634   2.090  13.309  2.0469  0.1183  0.0874
79950SOL     OW51574   1.218   1.475  11.508  0.4378  0.3325  0.3194
79950SOL    HW151575   1.190   1.485  11.417 -1.2940  0.4834  0.8421
79950SOL    HW251576   1.156   1.413  11.546  1.3907 -0.0434  1.2965
79951SOL     OW51577  10.500   9.490   9.745 -0.1086 -0.2556  0.2697
79951SOL    HW151578  10.432   9.439   9.701  0.8599  0.2934 -2.0026
79951SOL    HW251579  10.464   9.578   9.752  0.1955 -0.0628 -0.5454
79952SOL     OW51580  11.981  12.364   9.935 -0.4044  0.0208  0.1902
79952SOL    HW151581  11.966  12.448   9.892  1.0046  0.6393  0.8441
79952SOL    HW251582  12.036  12.385  10.010 -1.8508 -1.1868  1.6796
79953SOL     OW51583  13.496  10.111  13.277  0.0168 -1.3254  0.5403
79953SOL    HW151584  13.589  10.128  13.263 -0.0591 -0.6514  0.7916
79953SOL    HW251585  13.456  10.119  13.191 -0.3489  2.1196  0.8799
79954SOL     OW51586   8.563   6.258   6.458 -0.1832 -0.5746  0.1138
79954SOL    HW151587   8.542   6.187   6.519  0.0153 -0.0516  0.8016
79954SOL    HW251588   8.485   6.265   6.402  0.1356 -1.9144 -0.5573
79955SOL     OW51589   1.549  11.541   9.253  0.2163 -0.4600 -0.2432
79955SOL    HW151590   1.610  11.556   9.325  0.7061 -1.1775 -0.4823
79955SOL    HW251591   1.463  11.563   9.288  0.7718  2.3382 -0.4444
79956SOL     OW51592   9.901   5.841   3.998 -0.1844 -0.2524  0.4572
79956SOL    HW151593   9.993   5.830   4.019 -0.2146 -0.3993  0.5129
79956SOL    HW251594   9.898   5.920   3.944  0.2091 -1.2380 -1.0793
79957SOL     OW51595   7.861   3.990   0.964 -0.2692 -0.1655  0.4765
79957SOL    HW151596   7.797   3.941   0.913 -1.6406 -0.2760  2.2148
79957SOL    HW251597   7.930   3.926   0.984 -1.2019 -0.9472  1.2761
79958SOL     OW51598   2.735   9.829  13.269  0.2717  0.1287  0.0497
79958SOL    HW151599   2.669   9.888  13.233  0.4108  0.0018 -0.4185
79958SOL    HW251600   2.746   9.761  13.203  1.8357  0.8681 -0.4929
79959SOL     OW51601   6.402  11.405  11.837  0.2747  0.6058 -0.4802
79959SOL    HW151602   6.377  11.475  11.897 -0.0305  0.6328 -0.6417
79959SOL    HW251603   6.321  11.382  11.791  0.0628 -0.7271  0.4793
79960SOL     OW51604   3.785   0.153   8.282  0.0213  0.8172  0.5687
79960SOL    HW151605   3.817   0.139   8.371  1.3956 -0.1501 -0.0483
79960SOL    HW251606   3.862   0.144   8.227 -1.2861 -1.7136 -1.0193
79961SOL     OW51607   0.278   3.128  13.199  0.2509 -0.5444 -0.2403
79961SOL    HW151608   0.262   3.220  13.177  2.1218 -0.4957 -1.7014
79961SOL    HW251609   0.371   3.115  13.181  0.4512 -2.3039  1.6273
79962SOL     OW51610   3.931   1.397  10.595  0.2533  0.3829  0.0149
79962SOL    HW151611   3.910   1.391  10.502 -0.9564 -0.5946  0.3168
79962SOL    HW251612   4.000   1.463  10.601 -0.4384  1.2635 -1.4383
79963SOL     OW51613   8.021   8.983   3.109 -0.5598 -0.1771  0.0897
79963SOL    HW151614   8.071   8.950   3.035 -1.4975 -0.4564 -0.4418
79963SOL    HW251615   8.033   9.078   3.106  1.5237 -0.3609  1.1677
79964SOL     OW51616   9.660   7.237  12.453 -0.5725  0.0818 -0.6016
79964SOL    HW151617   9.669   7.323  12.411 -1.2451  0.4493 -0.0233
79964SOL    HW251618   9.605   7.254  12.529 -1.2433 -0.9812 -0.8353
79965SOL     OW51619   0.415   8.059   5.913 -0.4418  0.1836  0.0295
79965SOL    HW151620   0.465   8.112   5.975 -1.0195 -0.6793  1.2491
79965SOL    HW251621   0.442   7.969   5.930 -0.7424 -0.0916 -0.8624
79966SOL     OW51622   9.392   0.282   6.880  0.1245 -0.1060  0.0891
79966SOL    HW151623   9.301   0.254   6.869 -0.1559  0.5423  0.6279
79966SOL    HW251624   9.386   0.377   6.892  1.0269  0.1966 -1.5425
79967SOL     OW51625   4.775   2.018   8.159  0.2194 -0.0428 -0.0524
79967SOL    HW151626   4.809   2.034   8.247 -1.4277 -1.2216  0.8494
79967SOL    HW251627   4.843   1.967   8.115  0.8529  0.1542  0.6802
79968SOL     OW51628   1.862  11.796   7.155  0.1985  0.2110  0.1693
79968SOL    HW151629   1.916  11.739   7.100 -0.1516 -0.4881  0.5235
79968SOL    HW251630   1.895  11.884   7.139  1.1814 -0.1602  0.0831
79969SOL     OW51631   5.225  12.844   8.305 -0.4777  0.1274 -0.3044
79969SOL    HW151632   5.218  12.895   8.386  0.7231  0.2402 -0.2476
79969SOL    HW251633   5.317  12.852   8.280 -0.5020 -1.1520 -0.8724
79970SOL     OW51634   0.900   3.865   3.926  0.5854  0.6260 -0.2576
79970SOL    HW151635   0.854   3.866   4.010 -1.2419  0.5621 -1.2030
79970SOL    HW251636   0.958   3.789   3.932 -1.1517 -0.7245  0.1426
79971SOL     OW51637  11.228   4.710  13.114 -0.3086  0.4577 -0.1557
79971SOL    HW151638  11.219   4.688  13.022  0.3642  1.5871 -0.5108
79971SOL    HW251639  11.166   4.782  13.128  1.6273  2.2727 -0.4770
79972SOL     OW51640  11.646   6.855   4.462  0.2052 -0.1855 -0.3825
79972SOL    HW151641  11.701   6.813   4.396 -0.0233 -2.4929  0.8022
79972SOL    HW251642  11.582   6.789   4.486  0.4230  0.4743  2.2942
79973SOL     OW51643   7.020  12.661  11.492 -0.6023  0.0240  0.0220
79973SOL    HW151644   6.925  12.674  11.486 -0.6680 -0.8827 -3.1464
79973SOL    HW251645   7.057  12.736  11.444  0.0973 -0.8181 -0.8052
79974SOL     OW51646  10.399   2.151   7.995  0.4287  0.4055  0.0875
79974SOL    HW151647  10.329   2.088   8.015  2.7690 -1.8216  2.0007
79974SOL    HW251648  10.382   2.225   8.052 -1.3019  0.7459 -0.7897
79975SOL     OW51649  11.243  13.193  12.115  0.1403 -0.1917  0.3059
79975SOL    HW151650  11.298  13.213  12.040 -0.5148 -0.2733 -0.2012
79975SOL    HW251651  11.219  13.279  12.151 -1.6163 -0.0334 -1.1057
79976SOL     OW51652   2.176  10.124   7.590 -1.1795 -0.2364 -0.1836
79976SOL    HW151653   2.248  10.063   7.573  0.6349  1.4251  1.2310
79976SOL    HW251654   2.158  10.115   7.683 -1.4792  0.7440 -0.1350
79977SOL     OW51655  10.680   1.110   7.840  0.0790  0.2830  0.5673
79977SOL    HW151656  10.636   1.195   7.843 -0.8543  0.0267 -2.6231
79977SOL    HW251657  10.747   1.115   7.909  0.0391  3.5795  0.5168
79978SOL     OW51658   2.132   9.799   9.346  0.0936  0.6626  0.2036
79978SOL    HW151659   2.221   9.830   9.329  0.2405  1.5840  2.3498
79978SOL    HW251660   2.130   9.711   9.308  2.2179  0.2440  0.8854
79979SOL     OW51661   0.248   7.899   0.376 -0.0941 -0.4307  0.0508
79979SOL    HW151662   0.233   7.935   0.289  1.8835  1.5058  0.4227
79979SOL    HW251663   0.213   7.964   0.436  1.2349 -0.2979  0.7180
79980SOL     OW51664   5.044  10.664  11.693  0.4455 -0.1720  0.0423
79980SOL    HW151665   5.113  10.598  11.689 -0.2448 -0.9109  0.1960
79980SOL    HW251666   5.073  10.725  11.762  1.2550 -0.0994 -0.3455
79981SOL     OW51667   1.279   2.255  11.503  0.2853  0.4373 -0.6906
79981SOL    HW151668   1.327   2.233  11.423  2.0049  2.2422 -0.2444
79981SOL    HW251669   1.343   2.244  11.573 -0.9534 -0.3032  0.3737
79982SOL     OW51670  11.798  12.834  13.028 -0.3649  0.1545  0.1173
79982SOL    HW151671  11.883  12.790  13.031  0.1960  1.2240  0.9305
79982SOL    HW251672  11.777  12.841  12.935  0.4014 -0.1973 -0.0894
79983SOL     OW51673  10.587  10.012  12.723 -0.0478 -0.4633 -0.4009
79983SOL    HW151674  10.667  10.058  12.696 -0.3950  0.1441 -0.4296
79983SOL    HW251675  10.618   9.942  12.780  0.6646 -1.4353 -1.9181
79984SOL     OW51676  11.911   6.999   5.338  0.0850  0.3382  0.2005
79984SOL    HW151677  11.974   7.071   5.336  0.9375 -0.3557  1.2468
79984SOL    HW251678  11.837   7.034   5.388  0.2781  0.6536  0.2690
79985SOL     OW51679   4.205  11.465   9.953 -0.1081 -0.3094  0.4465
79985SOL    HW151680   4.290  11.471   9.997 -0.0512 -0.9516  0.4295
79985SOL    HW251681   4.224  11.426   9.868 -0.1764  1.2032 -0.3065
79986SOL     OW51682  12.629  10.003   0.864 -0.3716 -0.2281  0.3510
79986SOL    HW151683  12.551  10.020   0.916 -1.3753 -0.3368 -1.0674
79986SOL    HW251684  12.693   9.969   0.927 -1.2441  0.4313  1.6456
79987SOL     OW51685   9.680  11.847   6.834  0.0055 -0.1887 -0.3534
79987SOL    HW151686   9.598  11.840   6.883  0.0307  0.5164 -0.1960
79987SOL    HW251687   9.724  11.924   6.871 -0.8491  1.5721 -2.7460
79988SOL     OW51688   9.427   1.863   0.857  0.5784  0.3007  0.4567
79988SOL    HW151689   9.409   1.838   0.766  0.5752 -0.5505  0.6878
79988SOL    HW251690   9.474   1.946   0.850 -0.3769  0.8005 -0.2880
79989SOL     OW51691   0.285   0.374   0.053  0.0788 -0.2612  0.5200
79989SOL    HW151692   0.329   0.439  -0.001  0.3628 -0.5578  0.3961
79989SOL    HW251693   0.221   0.333  -0.005 -1.0525  0.8263  0.9410
79990SOL     OW51694   1.819   3.565  12.152  0.2113  0.2150 -0.2133
79990SOL    HW151695   1.843   3.548  12.060 -1.9944  0.5563 -0.9167
79990SOL    HW251696   1.738   3.616  12.146 -0.8071 -1.0371  1.9264
79991SOL     OW51697   2.528   5.790   5.670 -0.0271 -0.1396 -0.7536
79991SOL    HW151698   2.502   5.853   5.736  0.1523 -0.7192 -0.1230
79991SOL    HW251699   2.502   5.830   5.587 -1.6634 -0.0906 -0.2468
79992SOL     OW51700   2.232   6.469   4.984 -0.4787  0.2310  0.3468
79992SOL    HW151701   2.300   6.493   4.921  0.0092  1.1837  1.2119
79992SOL    HW251702   2.182   6.401   4.940  1.0271 -0.4910 -0.3163
79993SOL     OW51703   9.247   5.184   5.131  0.1754  0.0362 -0.3069
79993SOL    HW151704   9.318   5.199   5.069 -0.4008 -0.3722 -1.0885
79993SOL    HW251705   9.169   5.178   5.076 -0.3837 -0.0653  0.4887
79994SOL     OW51706  11.301  11.201   7.140  0.4686 -0.2504  0.0473
79994SOL    HW151707  11.223  11.257   7.145  1.1581  0.6482  1.5858
79994SOL    HW251708  11.370  11.260   7.111  1.1203 -0.3582  1.2893
79995SOL     OW51709  11.999  12.059   3.273  0.8147 -0.1424  0.2376
79995SOL    HW151710  11.939  11.996   3.314  1.1607 -0.6331  0.0035
79995SOL    HW251711  12.073  12.006   3.245  1.2769  0.4328  0.3548
79996SOL     OW51712   0.389   3.156   7.852 -0.4669  0.0702  0.5190
79996SOL    HW151713   0.474   3.151   7.896 -0.9052  1.2800  1.5735
79996SOL    HW251714   0.351   3.238   7.883 -1.1104  0.6308 -1.6345
79997SOL     OW51715   7.164  11.728   0.829  0.2502 -0.1011  0.5755
79997SOL    HW151716   7.116  11.649   0.854  2.6028 -1.9058 -0.1887
79997SOL    HW251717   7.158  11.730   0.734 -0.7978  1.3851  0.6475
79998SOL     OW51718   0.023   0.010   6.410  0.0452  0.9734  0.0808
79998SOL    HW151719  -0.041  -0.060   6.424 -0.3044  1.1980 -0.3466
79998SOL    HW251720   0.086  -0.027   6.348  1.9373 -0.2398  2.5513
79999SOL     OW51721  11.225   3.498   8.494  0.4570  0.6246 -0.5068
79999SOL    HW151722  11.204   3.576   8.545 -1.3614 -1.1378  1.6505
79999SOL    HW251723  11.320   3.499   8.486  1.2026 -0.0006  4.9470
80000SOL     OW51724   2.122   4.730   8.484  0.2058 -0.0449  0.3277
80000SOL    HW151725   2.209   4.704   8.455  0.2060 -0.2535  0.5037
80000SOL    HW251726   2.102   4.810   8.437 -0.0435 -0.6976 -0.7102
80001SOL     OW51727   6.274   8.066   5.337 -0.1171  0.5218 -0.2976
80001SOL    HW151728   6.179   8.067   5.351 -0.1674  0.0743 -0.5900
80001SOL    HW251729   6.296   8.156   5.316 -0.2804  0.8978  1.0669
80002SOL     OW51730   2.377   4.870   6.870  0.0492  0.0743  0.0096
80002SOL    HW151731   2.379   4.965   6.859  1.6856  0.6523  3.6993
80002SOL    HW251732   2.284   4.848   6.868 -0.5116  2.0865  0.9166
80003SOL     OW51733   6.420  13.623  13.530  0.4609  0.5696 -0.6681
80003SOL    HW151734   6.468  13.559  13.478 -2.0092 -1.2366 -0.9410
80003SOL    HW251735   6.372  13.675  13.466 -0.2166  0.3594 -0.3497
80004SOL     OW51736   7.044   8.883  13.725  0.3433  0.1766 -0.1851
80004SOL    HW151737   7.098   8.961  13.712  0.6651 -0.3051 -1.9383
80004SOL    HW251738   7.081   8.818  13.666 -0.2647 -1.1561  0.8432
80005SOL     OW51739   9.115   6.150   5.277  0.1111 -0.4726 -0.2327
80005SOL    HW151740   9.127   6.111   5.190  0.3954 -0.0441 -0.3921
80005SOL    HW251741   9.086   6.240   5.258 -0.1894 -0.4935  0.1226
80006SOL     OW51742   7.048   7.218   3.271  0.2569 -0.0700 -0.0480
80006SOL    HW151743   7.052   7.253   3.182 -0.6995 -1.8390 -0.8423
80006SOL    HW251744   7.125   7.161   3.278 -1.5168 -2.8364 -1.1567
80007SOL     OW51745   9.391   3.335   8.128 -0.4666  0.6273 -0.4561
80007SOL    HW151746   9.470   3.305   8.173 -0.6568  0.1443 -0.4400
80007SOL    HW251747   9.328   3.349   8.198 -0.6453  0.2385 -0.5391
80008SOL     OW51748   2.361   9.739   5.009  0.1448  0.5719  0.1277
80008SOL    HW151749   2.338   9.675   4.941  0.4519 -0.4349  0.9511
80008SOL    HW251750   2.413   9.805   4.963  0.7699 -0.3585 -0.5307
80009SOL     OW51751   9.344   4.384   3.742  0.0698  0.0173 -0.1337
80009SOL    HW151752   9.379   4.369   3.654  0.9476 -0.6509  0.3168
80009SOL    HW251753   9.403   4.450   3.779  0.6759 -0.8748  0.5143
80010SOL     OW51754   9.846  11.096   7.242 -0.2048 -0.0726 -0.2619
80010SOL    HW151755   9.933  11.057   7.239  0.3040  0.8656  1.1411
80010SOL    HW251756   9.855  11.179   7.194 -0.6096 -0.4529 -1.0112
80011SOL     OW51757   6.364   2.573   0.065 -0.0408  0.2306 -0.0787
80011SOL    HW151758   6.430   2.604   0.126 -0.4835  1.8173 -0.3767
80011SOL    HW251759   6.412   2.514   0.006  0.5636 -0.6214  1.2298
80012SOL     OW51760   0.537  11.446  11.624 -0.0233  0.2318 -0.2701
80012SOL    HW151761   0.544  11.530  11.671  0.7044 -1.1750  2.3724
80012SOL    HW251762   0.615  11.444  11.569 -0.0437  1.2884 -0.3604
80013SOL     OW51763   9.498   3.613   8.877 -0.9535  0.1421  0.1009
80013SOL    HW151764   9.581   3.657   8.860 -1.0751  0.2324 -0.2792
80013SOL    HW251765   9.507   3.527   8.836 -0.7471 -0.1643  0.7738
80014SOL     OW51766   0.162   4.887   1.955  0.0379 -0.1621 -0.0903
80014SOL    HW151767   0.167   4.974   1.915 -0.5649  0.8537  1.9332
80014SOL    HW251768   0.086   4.892   2.013  3.0362 -0.1191  4.3202
80015SOL     OW51769   4.709  13.567   6.235 -0.7541  0.2032 -0.3448
80015SOL    HW151770   4.722  13.597   6.145 -0.3665  1.8789  0.2236
80015SOL    HW251771   4.672  13.643   6.280 -0.4395 -0.4288  1.0314
80016SOL     OW51772   5.306   1.122   6.161 -0.0579  0.3103  0.1182
80016SOL    HW151773   5.389   1.104   6.205 -0.1979  1.1460  0.7559
80016SOL    HW251774   5.306   1.064   6.085  1.5024  0.9212 -0.3938
80017SOL     OW51775   0.076   0.770   8.990  0.1176 -0.2131 -0.1812
80017SOL    HW151776   0.016   0.797   8.920  0.8774 -1.1545 -1.2438
80017SOL    HW251777   0.122   0.850   9.015 -0.7516  0.2958 -0.1661
80018SOL     OW51778  12.196  10.403  13.648  0.0492 -0.2993 -0.2800
80018SOL    HW151779  12.124  10.459  13.617  1.0077  1.5104  0.5694
80018SOL    HW251780  12.164  10.368  13.731  0.2821  0.8617  0.3199
80019SOL     OW51781   1.674   7.351  11.802  0.1954  0.4101 -0.3394
80019SOL    HW151782   1.721   7.434  11.805 -0.9444  1.0329  1.1580
80019SOL    HW251783   1.732   7.293  11.753  2.2540  1.3179  0.8966
80020SOL     OW51784   1.882   4.902   2.390 -0.0805 -0.7051 -0.1940
80020SOL    HW151785   1.870   4.975   2.328 -0.7037 -1.2573 -0.7357
80020SOL    HW251786   1.881   4.824   2.335  1.1020 -1.1095  0.3194
80021SOL     OW51787   2.422   7.846  11.565 -0.1128  0.1960  0.5669
80021SOL    HW151788   2.346   7.887  11.607 -0.1178  0.4412  0.3176
80021SOL    HW251789   2.447   7.775  11.625 -1.8717 -1.3097 -0.3713
80022SOL     OW51790  10.611   4.483   0.856  0.4370  0.4776  0.4946
80022SOL    HW151791  10.702   4.475   0.828 -0.0402 -1.0014 -0.7611
80022SOL    HW251792  10.565   4.413   0.809 -1.8850  2.9096 -1.1939
80023SOL     OW51793  10.136   9.468   7.671 -0.2102 -0.1079 -0.4405
80023SOL    HW151794  10.091   9.496   7.591  0.6110  0.9737 -0.5429
80023SOL    HW251795  10.199   9.538   7.689 -0.3588 -0.3411  1.1434
80024SOL     OW51796   7.095   8.971   6.928 -0.0196  0.0583 -0.1986
80024SOL    HW151797   7.142   9.029   6.987 -1.0455  1.3664 -0.5896
80024SOL    HW251798   7.161   8.938   6.868  0.5598  1.1044 -0.1582
80025SOL     OW51799  10.649  10.268   6.414 -0.0654 -0.1481 -0.8028
80025SOL    HW151800  10.736  10.228   6.413  0.2594  0.5319 -1.0922
80025SOL    HW251801  10.603  10.229   6.340 -0.0511 -0.6063 -0.5704
80026SOL     OW51802   3.709   6.085   6.655 -0.1707 -0.8258 -0.0257
80026SOL    HW151803   3.796   6.090   6.696 -0.7657 -1.7568  1.4246
80026SOL    HW251804   3.653   6.049   6.723 -2.8256  4.0726  0.8315
80027SOL     OW51805   3.763   9.962   9.872 -0.2977  0.1479 -0.0287
80027SOL    HW151806   3.838   9.906   9.895  0.5417  0.9825 -0.6480
80027SOL    HW251807   3.728   9.990   9.956  1.0186  0.9443  0.2839
80028SOL     OW51808   2.385  12.836   6.123  0.4123 -0.1982 -0.2035
80028SOL    HW151809   2.437  12.885   6.187 -0.4491 -1.0413  1.1866
80028SOL    HW251810   2.347  12.764   6.173 -1.4897 -0.0481 -1.3321
80029SOL     OW51811  13.490   7.039   5.188  0.4290  0.7863 -0.4571
80029SOL    HW151812  13.443   6.979   5.246 -0.5511  0.7663 -1.2579
80029SOL    HW251813  13.477   7.125   5.228 -1.0974  0.9089 -1.1623
80030SOL     OW51814   7.540  10.353   5.218 -0.3453  0.5050  0.1537
80030SOL    HW151815   7.512  10.361   5.309  0.7149 -1.0887  0.6590
80030SOL    HW251816   7.473  10.298   5.177  1.5901 -3.0233  1.2786
80031SOL     OW51817   6.147   6.226   5.361  0.4894 -0.0253  0.2063
80031SOL    HW151818   6.126   6.314   5.329 -3.2030 -0.1339  1.8352
80031SOL    HW251819   6.123   6.168   5.289 -2.6654  0.0718  1.0234
80032SOL     OW51820   7.183   0.785   8.877 -0.2593  0.2479  0.6939
80032SOL    HW151821   7.134   0.859   8.914 -1.4400 -0.8193  1.3659
80032SOL    HW251822   7.270   0.792   8.916 -0.4891  1.0503  1.0820
80033SOL     OW51823  13.071  10.517   3.440 -0.3181  0.2012  0.0018
80033SOL    HW151824  13.066  10.443   3.379  1.1108 -1.1899  1.4546
80033SOL    HW251825  13.148  10.497   3.494 -0.4530  2.3075  1.0476
80034SOL     OW51826   8.190  12.446   1.125  0.0287  0.3691 -0.0112
80034SOL    HW151827   8.198  12.409   1.213  1.8616  1.0747  0.1625
80034SOL    HW251828   8.138  12.381   1.076  0.2873 -0.7760  1.1774
80035SOL     OW51829  10.419   7.519  11.070  0.3650 -0.4041  0.0029
80035SOL    HW151830  10.337   7.476  11.048 -0.7462  1.0596  1.0915
80035SOL    HW251831  10.465   7.458  11.128 -0.5137 -0.7225  0.3690
80036SOL     OW51832   9.390   9.750  11.658 -0.4239  0.1140  0.7834
80036SOL    HW151833   9.345   9.778  11.579 -0.0271 -0.9689  0.1578
80036SOL    HW251834   9.322   9.711  11.712 -0.9183  1.8944  1.5145
80037SOL     OW51835   3.756   1.737   7.028 -0.1632  0.3678  0.1737
80037SOL    HW151836   3.770   1.758   7.120 -2.5149  0.1949  0.6452
80037SOL    HW251837   3.692   1.666   7.030  0.5925 -0.4164 -1.5928
80038SOL     OW51838  10.324   9.497   6.994 -0.3492  0.0756 -0.2341
80038SOL    HW151839  10.376   9.553   7.052  0.8266 -2.1440  1.0177
80038SOL    HW251840  10.384   9.474   6.923 -0.3775 -0.6045 -0.0452
80039SOL     OW51841   4.846   1.870   2.867  0.0168  0.1852  0.7717
80039SOL    HW151842   4.941   1.874   2.879 -0.1127  3.2539  1.6095
80039SOL    HW251843   4.830   1.914   2.784 -0.7231  0.3355  0.9817
80040SOL     OW51844   7.720   2.601   2.482 -0.0740 -0.0603  0.7916
80040SOL    HW151845   7.790   2.589   2.418  0.4746  1.8804  0.9600
80040SOL    HW251846   7.639   2.586   2.433  0.3911 -0.1359  0.0340
80041SOL     OW51847  12.258   0.118  11.963 -0.4043 -0.1381 -0.2756
80041SOL    HW151848  12.315   0.055  11.919 -0.8704  0.3515 -1.6448
80041SOL    HW251849  12.171   0.102  11.924 -0.3795  1.8610 -1.2462
80042SOL     OW51850   5.437   2.353   8.354 -0.1837  0.6934 -0.0333
80042SOL    HW151851   5.447   2.436   8.308 -1.2282  1.2912  0.8002
80042SOL    HW251852   5.343   2.337   8.357 -0.0116 -0.4766 -0.0841
80043SOL     OW51853   7.532   5.710  11.418 -0.0397 -0.1673  0.2836
80043SOL    HW151854   7.608   5.748  11.463  0.4567 -1.0529  0.2237
80043SOL    HW251855   7.560   5.621  11.396 -0.9981 -0.4047 -0.0023
80044SOL     OW51856  12.207   4.220   6.353 -0.4688 -0.5038  0.8740
80044SOL    HW151857  12.278   4.187   6.408  0.2495 -0.5122 -0.0315
80044SOL    HW251858  12.132   4.166   6.377 -0.4539  0.1828  2.5762
80045SOL     OW51859  13.318   6.969   1.741  0.4106 -0.2932  0.0055
80045SOL    HW151860  13.384   7.010   1.797  0.1236 -0.2306  0.3002
80045SOL    HW251861  13.296   6.887   1.785 -1.8058  0.9795  1.4568
80046SOL     OW51862   3.037  12.512   5.140  0.1831  0.2461  0.1154
80046SOL    HW151863   3.043  12.464   5.223 -0.3243 -0.3149 -0.1616
80046SOL    HW251864   3.043  12.444   5.073  0.5168  0.6890 -0.3090
80047SOL     OW51865  12.536   4.883   4.587  0.3171  0.0229  0.2832
80047SOL    HW151866  12.559   4.923   4.503  0.6460  0.4127  0.5583
80047SOL    HW251867  12.616   4.840   4.616  0.8041  1.6108  1.3713
80048SOL     OW51868   9.259   3.258   0.956 -0.4187  0.4497  0.1312
80048SOL    HW151869   9.301   3.331   0.910 -2.1365  0.8565 -0.8908
80048SOL    HW251870   9.326   3.225   1.016  1.8306  0.0741 -2.4326
80049SOL     OW51871  13.455  11.016   1.375 -0.1462 -0.0450 -0.4239
80049SOL    HW151872  13.446  11.065   1.293  0.6884  1.2027  0.2063
80049SOL    HW251873  13.377  11.039   1.425  0.1219  0.4541 -0.2304
80050SOL     OW51874   9.000   5.087   9.509  0.4506  0.4758  0.1095
80050SOL    HW151875   8.964   5.033   9.580 -1.1679  1.1003 -0.1925
80050SOL    HW251876   8.979   5.177   9.535 -1.0271  0.6642 -1.5760
80051SOL     OW51877   4.455   4.244   6.077  0.1815  0.6597 -0.1103
80051SOL    HW151878   4.471   4.231   5.984 -3.9423 -0.5938 -0.8539
80051SOL    HW251879   4.511   4.180   6.121  0.0717 -0.7894 -1.9916
80052SOL     OW51880  10.546   6.487  11.615  0.6789 -0.1582 -0.0673
80052SOL    HW151881  10.539   6.519  11.525  0.0169  0.7178  0.2781
80052SOL    HW251882  10.526   6.394  11.609 -2.4672  0.4326 -0.4453
80053SOL     OW51883   1.752  10.958   4.741  0.2968 -0.3539  0.4144
80053SOL    HW151884   1.757  11.053   4.746 -0.8196 -0.2807  0.2309
80053SOL    HW251885   1.838  10.931   4.708  0.5606  0.5887  0.3143
80054SOL     OW51886   9.706   3.144   3.973 -0.0152  0.0273  0.2519
80054SOL    HW151887   9.741   3.055   3.970 -0.4023 -0.1211  0.1116
80054SOL    HW251888   9.782   3.200   3.958  0.3157 -0.2613  0.7875
80055SOL     OW51889   9.805   1.187   8.793 -0.2313  0.1109  1.0041
80055SOL    HW151890   9.808   1.127   8.718  3.0986 -0.5687  1.5188
80055SOL    HW251891   9.745   1.256   8.766 -1.5552 -1.6779 -0.9860
80056SOL     OW51892   3.009   9.979   8.980 -0.3193 -0.6704 -0.1861
80056SOL    HW151893   2.998   9.958   9.072  2.5287  1.3310  0.7448
80056SOL    HW251894   3.050   9.902   8.942 -1.5447 -1.5176  0.1556
80057SOL     OW51895  11.731   4.887   7.528 -0.4334  0.0655 -0.0462
80057SOL    HW151896  11.750   4.872   7.436  0.7216 -1.9875  0.4644
80057SOL    HW251897  11.774   4.970   7.549  1.4786 -0.6879 -0.7779
80058SOL     OW51898  11.034   3.853   2.853  0.7557 -0.1737  0.3849
80058SOL    HW151899  11.050   3.872   2.945 -0.5929 -0.0684  0.6138
80058SOL    HW251900  11.073   3.766   2.840  3.1563  0.8076  0.3906
80059SOL     OW51901   3.011   6.009   6.140 -0.2678 -0.4835 -0.1563
80059SOL    HW151902   3.047   5.927   6.173 -0.7048  0.0862  1.9012
80059SOL    HW251903   3.075   6.039   6.076  2.7579  0.1671  2.8616
80060SOL     OW51904   2.092  10.340   0.327  0.0072  0.3335 -0.1494
80060SOL    HW151905   2.073  10.432   0.312  0.6901 -0.0377 -5.8171
80060SOL    HW251906   2.188  10.336   0.330  0.0165 -0.1745 -0.7656
80061SOL     OW51907  13.435   5.903   3.022  0.5481  0.4028 -0.1896
80061SOL    HW151908  13.485   5.834   3.066 -1.5719 -1.8218 -1.0379
80061SOL    HW251909  13.408   5.961   3.093  0.4945 -0.9163  0.9174
80062SOL     OW51910   3.201  13.193   0.320  0.4083  0.6273 -0.0653
80062SOL    HW151911   3.247  13.221   0.240 -0.8729 -2.2406 -1.9583
80062SOL    HW251912   3.262  13.132   0.362  0.3842  0.8259  0.2627
80063SOL     OW51913   0.114   9.856   6.630 -0.0434 -0.7856 -0.1902
80063SOL    HW151914   0.181   9.880   6.567 -0.8555  0.2851 -0.6758
80063SOL    HW251915   0.099   9.763   6.615  1.0348 -0.9487 -0.3385
80064SOL     OW51916   3.834   7.662   9.193 -0.3863  0.1271  0.0345
80064SOL    HW151917   3.768   7.732   9.190  1.3047  1.7569 -0.9438
80064SOL    HW251918   3.894   7.682   9.122  1.5215 -0.9778  1.2530
80065SOL     OW51919   6.223   1.168   8.963 -0.4662  0.0230 -0.7616
80065SOL    HW151920   6.230   1.168   9.058 -3.2179  0.7022 -0.4937
80065SOL    HW251921   6.284   1.098   8.935  2.5227  1.6203  1.1922
80066SOL     OW51922   3.156  13.656  10.575 -0.0398  0.1092 -0.2275
80066SOL    HW151923   3.223  13.703  10.623 -0.7189  0.5407  0.3070
80066SOL    HW251924   3.084  13.718  10.567 -0.2889 -0.2670 -1.0071
80067SOL     OW51925   1.640   4.818   4.315 -0.6537 -0.0822  0.0209
80067SOL    HW151926   1.684   4.791   4.395  2.0857 -0.3566 -1.4476
80067SOL    HW251927   1.590   4.741   4.287  0.2628 -0.7690  0.2545
80068SOL     OW51928   9.359  10.215   0.671 -0.3614 -0.0221  0.6063
80068SOL    HW151929   9.418  10.182   0.604  0.2921 -0.1284  1.2240
80068SOL    HW251930   9.289  10.150   0.675 -0.7952  0.3583 -0.4785
80069SOL     OW51931   1.028   5.992   5.733  0.3972 -0.1053 -0.1255
80069SOL    HW151932   0.971   5.990   5.657  1.0508 -1.0663 -0.6108
80069SOL    HW251933   0.998   6.067   5.784  0.8670  1.4913 -2.0451
80070SOL     OW51934   0.777   4.927  10.763 -0.0293  0.4989 -0.2709
80070SOL    HW151935   0.681   4.917  10.760 -0.0462 -0.7557  1.8539
80070SOL    HW251936   0.793   5.018  10.738 -1.7842  0.7563 -0.5865
80071SOL     OW51937   6.454  10.847   3.542  0.4335 -0.0950  0.3670
80071SOL    HW151938   6.483  10.926   3.588 -0.9059  1.0431 -0.6561
80071SOL    HW251939   6.524  10.831   3.479  0.4433  0.6470  0.1719
80072SOL     OW51940   8.567   4.345  11.271  0.1307 -0.5517 -0.6659
80072SOL    HW151941   8.532   4.258  11.293  0.7289 -0.7832 -0.6093
80072SOL    HW251942   8.505   4.406  11.309  0.3121 -0.9512  0.2926
80073SOL     OW51943  12.045  11.401   6.741  0.0280  0.1364 -0.0078
80073SOL    HW151944  11.994  11.475   6.774 -0.9408  0.5643 -2.2767
80073SOL    HW251945  12.123  11.400   6.797 -1.9572  0.0088  2.9943
80074SOL     OW51946   3.655  12.448   6.925  0.1386 -0.7802 -0.5502
80074SOL    HW151947   3.646  12.367   6.975 -1.0270 -0.8596 -0.8563
80074SOL    HW251948   3.609  12.514   6.977  0.9119 -0.3439 -0.3996
80075SOL     OW51949   1.914   4.961   1.400  0.3641  0.1228  0.3264
80075SOL    HW151950   1.953   4.878   1.427  0.4998 -0.3751 -1.3004
80075SOL    HW251951   1.987   5.012   1.367 -0.0706 -0.1046 -1.0310
80076SOL     OW51952   1.970   0.609  10.022 -0.8303  0.5261  0.6047
80076SOL    HW151953   2.054   0.629  10.063 -0.3458  0.2633 -0.2286
80076SOL    HW251954   1.922   0.692  10.025  0.3630  1.3411 -0.9713
80077SOL     OW51955   6.689  13.595   0.415 -0.6090  0.2361  0.3985
80077SOL    HW151956   6.743  13.650   0.359 -0.8836 -0.5048 -0.6239
80077SOL    HW251957   6.746  13.571   0.488  0.7035 -1.1011 -1.0065
80078SOL     OW51958   1.054   7.135  11.697  0.1678  0.0650 -0.2817
80078SOL    HW151959   0.982   7.122  11.636  0.6377  0.1757 -0.8705
80078SOL    HW251960   1.023   7.201  11.759  0.2907  1.2033 -1.4040
80079SOL     OW51961  13.225  12.690   7.380 -0.4908 -0.1953 -0.2540
80079SOL    HW151962  13.235  12.627   7.451 -1.2352 -0.4078 -0.3324
80079SOL    HW251963  13.288  12.760   7.401  0.2029 -0.8608 -0.0656
80080SOL     OW51964  11.819  10.246   4.466  0.2515 -0.0927 -0.0396
80080SOL    HW151965  11.779  10.298   4.397  0.5838 -1.4704 -1.3244
80080SOL    HW251966  11.908  10.229   4.434  0.0857 -1.6009  0.2228
80081SOL     OW51967   9.187   4.687   5.825 -0.5726  0.4816  0.2628
80081SOL    HW151968   9.158   4.596   5.825 -0.3735  0.3662  2.3432
80081SOL    HW251969   9.281   4.683   5.808 -0.4719  0.2488  0.8607
80082SOL     OW51970  12.252  12.356   9.677  0.5175  0.3296 -0.0878
80082SOL    HW151971  12.176  12.311   9.713  0.9676 -1.9091 -1.7208
80082SOL    HW251972  12.318  12.351   9.745 -0.5979  1.9692  1.2042
80083SOL     OW51973   9.591   8.261   5.350  0.1801 -0.7381  0.2424
80083SOL    HW151974   9.594   8.179   5.300  1.4004 -0.8760  0.5168
80083SOL    HW251975   9.622   8.327   5.288 -0.7450 -0.4847  0.0403
80084SOL     OW51976   5.947   2.889   9.700  0.6775 -0.0801  0.4073
80084SOL    HW151977   5.944   2.820   9.766  0.5697  0.2857  0.7874
80084SOL    HW251978   5.864   2.936   9.710  0.8447  0.2416  0.2958
80085SOL     OW51979   6.643   1.870   8.986 -0.5039  0.0065 -0.0777
80085SOL    HW151980   6.697   1.801   8.946 -0.7035 -0.1211 -0.1312
80085SOL    HW251981   6.558   1.862   8.942 -0.7201 -0.1204  0.3555
80086SOL     OW51982  12.083   8.444   4.401  1.3650  0.6376 -0.5089
80086SOL    HW151983  12.017   8.496   4.446 -1.0240 -1.2139 -1.6405
80086SOL    HW251984  12.056   8.446   4.309  1.9362 -1.4688 -0.7705
80087SOL     OW51985   3.220   5.391   7.722 -0.1577  0.3164 -0.7213
80087SOL    HW151986   3.289   5.367   7.659  1.5598 -0.3608  1.2895
80087SOL    HW251987   3.257   5.368   7.807 -2.6428  0.5905  0.5177
80088SOL     OW51988   9.768  10.735  10.474 -0.4670 -0.2364 -0.4229
80088SOL    HW151989   9.815  10.695  10.400 -0.1508  0.8212 -0.8169
80088SOL    HW251990   9.826  10.806  10.503  0.7602 -2.3154  2.6540
80089SOL     OW51991  13.734  11.356   5.301  0.6114 -0.6272 -0.4113
80089SOL    HW151992  13.674  11.305   5.354  1.0213  0.3013  1.0146
80089SOL    HW251993  13.697  11.354   5.213 -0.7907 -1.1356  0.1707
80090SOL     OW51994   9.481  10.514  10.608 -0.0726  0.0399  0.3291
80090SOL    HW151995   9.459  10.440  10.551 -0.8337  0.6643 -0.1974
80090SOL    HW251996   9.561  10.486  10.653 -1.4051 -1.9257  1.6293
80091SOL     OW51997  13.633   6.514   0.492 -0.3620 -0.5106  0.3743
80091SOL    HW151998  13.546   6.497   0.528 -0.1312 -1.2901  0.5966
80091SOL    HW251999  13.693   6.475   0.556  0.1722  0.4311  0.4585
80092SOL     OW52000   2.952  10.092   5.646 -0.2143  1.0223 -0.1702
80092SOL    HW152001   3.030  10.120   5.598  0.0832 -1.3365 -1.1821
80092SOL    HW252002   2.985  10.036   5.716 -0.9940 -1.8866 -1.9751
80093SOL     OW52003  11.108  11.015   2.160 -0.1039  0.0197  0.0351
80093SOL    HW152004  11.187  11.009   2.215  0.8622  3.9578 -0.5838
80093SOL    HW252005  11.041  10.968   2.209  1.5091  0.5375  2.9886
80094SOL     OW52006   2.647   0.498  11.073 -0.2678  0.5792 -0.7825
80094SOL    HW152007   2.674   0.588  11.055 -1.1590  0.4770 -2.8640
80094SOL    HW252008   2.714   0.444  11.033 -0.5879  0.3262 -0.9833
80095SOL     OW52009  10.548   9.419  12.494  0.4101  0.4240 -0.2355
80095SOL    HW152010  10.619   9.364  12.529 -0.6710 -0.6136  0.3883
80095SOL    HW252011  10.560   9.504  12.538  0.0685 -0.3598  1.4360
80096SOL     OW52012   4.161   0.071   6.911  0.0386 -0.2229  0.6893
80096SOL    HW152013   4.189   0.049   6.822  0.5903 -1.7058  1.1933
80096SOL    HW252014   4.242   0.065   6.962 -0.3356  0.3026  1.3461
80097SOL     OW52015   5.578  11.583   9.920 -0.4100 -0.1334 -0.1111
80097SOL    HW152016   5.566  11.534  10.001 -3.7059 -1.6190 -1.3469
80097SOL    HW252017   5.611  11.519   9.857  0.8782  0.7010 -0.3218
80098SOL     OW52018  12.234   7.729   4.297 -0.4127 -0.6495  0.1007
80098SOL    HW152019  12.251   7.648   4.248 -2.6392 -0.2810 -1.3952
80098SOL    HW252020  12.267   7.798   4.240  2.0806 -0.4274  1.6556
80099SOL     OW52021  12.935   3.576   3.788  0.0823  0.8296 -0.3091
80099SOL    HW152022  13.016   3.626   3.793  0.0212  0.8969  0.0620
80099SOL    HW252023  12.960   3.493   3.749  0.3602  0.7945 -0.0595
80100SOL     OW52024   8.029   9.766  13.430 -0.2911  0.0109  0.6477
80100SOL    HW152025   8.015   9.678  13.397  1.5972 -0.5596  1.2734
80100SOL    HW252026   7.968   9.773  13.505  0.6141 -1.3367  1.5505
80101SOL     OW52027   0.565   3.338   4.006 -0.3300 -0.0051  0.1319
80101SOL    HW152028   0.471   3.353   3.999  0.0409  1.9485 -3.0706
80101SOL    HW252029   0.585   3.277   3.935  0.7996 -0.4165  0.7863
80102SOL     OW52030  10.120  11.512   0.175 -0.1410  0.1385  0.2287
80102SOL    HW152031  10.207  11.519   0.212 -0.6320  0.1134  1.4357
80102SOL    HW252032  10.133  11.471   0.089  1.3345  2.9230 -0.9860
80103SOL     OW52033   2.936  10.783  12.473  0.4725  0.6867 -0.1437
80103SOL    HW152034   2.915  10.808  12.563  1.7545 -0.6711  0.5625
80103SOL    HW252035   2.977  10.861  12.435 -0.1640  1.2965  0.4040
80104SOL     OW52036   4.093   6.818   8.842  0.1174  0.1248  0.1472
80104SOL    HW152037   4.114   6.910   8.827  0.5126 -0.3032 -2.2506
80104SOL    HW252038   4.175   6.771   8.824 -0.3973 -0.7972  0.1173
80105SOL     OW52039   2.630  13.026   5.850  0.4479 -0.4993  0.6627
80105SOL    HW152040   2.717  13.031   5.890  1.1669 -1.4970 -0.7230
80105SOL    HW252041   2.641  12.968   5.775 -1.7148 -1.7081  1.2085
80106SOL     OW52042   0.141   8.551   6.257  0.0418  0.0608  0.2039
80106SOL    HW152043   0.088   8.630   6.260  0.9270  0.6485  0.8041
80106SOL    HW252044   0.195   8.561   6.179 -1.1029 -0.8027 -0.7302
80107SOL     OW52045   7.835  13.663  10.314  0.2549 -0.3115  0.4513
80107SOL    HW152046   7.909  13.722  10.331  1.0796 -1.3974  0.7284
80107SOL    HW252047   7.854  13.624  10.229 -0.1902 -0.3290  0.3583
80108SOL     OW52048  11.754   7.575  11.267  0.5858 -0.0400 -0.2367
80108SOL    HW152049  11.793   7.618  11.191 -0.4651 -0.1450 -0.8534
80108SOL    HW252050  11.689   7.515  11.230  1.2925 -1.4059  0.6587
80109SOL     OW52051   9.872   1.350   5.678  0.0365 -0.2682 -0.0161
80109SOL    HW152052   9.777   1.343   5.685  0.1073 -0.9406  0.3572
80109SOL    HW252053   9.888   1.442   5.657 -0.6954 -0.1577 -0.1147
80110SOL     OW52054   5.314  11.425  11.509 -0.5887 -0.5287  0.1403
80110SOL    HW152055   5.225  11.396  11.532  0.3479 -3.9140  0.0823
80110SOL    HW252056   5.309  11.443  11.415 -1.5725  1.1171  0.4662
80111SOL     OW52057  11.964   7.479   1.912 -0.3350 -0.0401  0.3590
80111SOL    HW152058  11.915   7.404   1.947  3.4281 -2.4923  1.0837
80111SOL    HW252059  11.988   7.452   1.824 -1.9567  2.0457 -0.7984
80112SOL     OW52060   0.953   0.728   3.291  0.1471  0.5229  0.2460
80112SOL    HW152061   0.874   0.695   3.334 -0.0334  0.4038 -0.1761
80112SOL    HW252062   1.007   0.650   3.277  1.3011  0.8397  2.4464
80113SOL     OW52063  10.374   9.467  12.844 -0.3094 -0.2201 -0.5234
80113SOL    HW152064  10.467   9.488  12.846 -0.4228  0.2712  1.3182
80113SOL    HW252065  10.331   9.550  12.820 -0.3738  0.0971  0.6307
80114SOL     OW52066   7.753  12.366   7.966 -0.1730 -0.5490  0.0746
80114SOL    HW152067   7.685  12.434   7.966  0.5201  0.1707  0.6580
80114SOL    HW252068   7.812  12.392   8.037  2.0605  0.2215 -1.9472
80115SOL     OW52069   7.709   4.792  12.536  0.5852  0.2701 -0.0518
80115SOL    HW152070   7.776   4.736  12.498  0.9293 -0.7573  1.8995
80115SOL    HW252071   7.752   4.877  12.549  1.3526 -0.2165  0.6705
80116SOL     OW52072   0.984   9.876   5.869  0.2897 -0.3494 -0.0270
80116SOL    HW152073   0.902   9.875   5.919 -0.0799  1.4469 -0.5305
80116SOL    HW252074   1.042   9.933   5.919  0.4584  0.1825 -0.8043
80117SOL     OW52075  12.525   6.289   9.322 -0.7641  0.2782 -0.2267
80117SOL    HW152076  12.564   6.369   9.286 -0.2577  0.5409  0.8904
80117SOL    HW252077  12.554   6.220   9.262  1.0342  0.5309  0.2936
80118SOL     OW52078   8.494   1.358   4.368  0.2173 -0.1156 -0.8583
80118SOL    HW152079   8.454   1.272   4.354 -3.7940  1.2553  0.6660
80118SOL    HW252080   8.481   1.376   4.461 -0.8477  2.8459 -1.4591
80119SOL     OW52081   4.700  10.121   2.882 -0.1857  0.0169  0.4415
80119SOL    HW152082   4.792  10.126   2.907  0.1647  1.6843 -0.9607
80119SOL    HW252083   4.696  10.166   2.797 -2.6292  1.9054  1.4473
80120SOL     OW52084   7.188   5.512  13.491  0.3364 -0.1336 -0.8117
80120SOL    HW152085   7.213   5.582  13.551  1.5285  0.8949 -2.4100
80120SOL    HW252086   7.125   5.459  13.540  1.3645  0.5537  1.3649
80121SOL     OW52087   7.541  10.803   8.058  0.5155  0.1984 -0.4546
80121SOL    HW152088   7.614  10.744   8.077 -1.0756 -1.5296  0.5849
80121SOL    HW252089   7.507  10.772   7.974 -0.4164 -0.5109  0.1644
80122SOL     OW52090   1.093   4.743   4.145  0.9626 -0.3670  0.1286
80122SOL    HW152091   1.087   4.788   4.229  1.6197 -1.6723  0.9060
80122SOL    HW252092   1.007   4.702   4.133  0.5862  0.5092 -0.2627
80123SOL     OW52093   9.966   9.938   6.029 -0.3774 -0.2335 -0.2955
80123SOL    HW152094   9.975   9.845   6.008  1.6864 -0.0262 -0.5906
80123SOL    HW252095   9.895   9.969   5.973 -0.5097 -1.4532 -0.8252
80124SOL     OW52096  11.724   0.477   5.642 -0.0976  0.2773 -0.1749
80124SOL    HW152097  11.753   0.441   5.558 -2.6566 -0.3159 -0.9010
80124SOL    HW252098  11.735   0.571   5.632  1.1023  0.1162 -0.5460
80125SOL     OW52099   2.291   2.034  11.964 -0.0768 -0.4852 -0.2220
80125SOL    HW152100   2.286   2.058  11.872  3.1169 -1.1607 -0.6755
80125SOL    HW252101   2.375   2.069  11.994 -0.1877 -1.8720  1.9486
80126SOL     OW52102   2.302   1.863   9.004  0.4209 -0.2907 -0.2982
80126SOL    HW152103   2.213   1.828   8.998  0.1960  0.0444  0.8227
80126SOL    HW252104   2.316   1.909   8.922 -1.3354  1.6730  0.4093
80127SOL     OW52105  10.808  13.205   0.675  0.1477 -0.1050  0.0106
80127SOL    HW152106  10.813  13.148   0.598  0.1175 -0.0308 -0.0469
80127SOL    HW252107  10.805  13.293   0.638 -2.5094 -0.1393 -0.0029
80128SOL     OW52108   8.433   2.133   5.436 -0.0052 -0.1998  0.1200
80128SOL    HW152109   8.403   2.198   5.373  1.2455  1.3539  1.0351
80128SOL    HW252110   8.463   2.060   5.383  0.0448  0.6375 -1.0434
80129SOL     OW52111  11.588   8.614   5.994 -0.1178 -0.1153  0.2893
80129SOL    HW152112  11.624   8.668   5.924 -0.8800  1.5307  1.1161
80129SOL    HW252113  11.659   8.608   6.058  0.1219 -0.5061 -0.0032
80130SOL     OW52114   2.986   0.733  12.689 -0.1754  0.3989 -0.2555
80130SOL    HW152115   2.922   0.686  12.635 -0.0443 -1.1826  0.9000
80130SOL    HW252116   2.933   0.794  12.740 -0.4196  1.1441 -1.3597
80131SOL     OW52117   5.664   5.716   9.294  0.3001 -0.0373  0.6021
80131SOL    HW152118   5.700   5.782   9.234 -0.7428  0.1203  0.1285
80131SOL    HW252119   5.612   5.659   9.239 -1.0660  0.3867  1.4135
80132SOL     OW52120   3.564   2.726   4.913  0.5059 -0.1336  0.0012
80132SOL    HW152121   3.498   2.674   4.958  0.4388  0.2709  0.3756
80132SOL    HW252122   3.621   2.661   4.871 -1.4834 -0.4739 -2.3676
80133SOL     OW52123   9.838   5.772   4.358 -0.2378 -0.4943 -0.0600
80133SOL    HW152124   9.902   5.775   4.287 -0.3775 -1.9553 -0.2912
80133SOL    HW252125   9.800   5.859   4.360  0.3779 -0.1758 -1.2121
80134SOL     OW52126   6.971   2.112   1.655 -0.2480 -0.4760 -0.2840
80134SOL    HW152127   6.881   2.145   1.656 -0.8110 -1.7177 -2.2559
80134SOL    HW252128   7.025   2.187   1.678 -1.6563  1.0096 -1.5547
80135SOL     OW52129   1.376   8.097   2.991 -0.6886  0.2753 -0.0236
80135SOL    HW152130   1.441   8.041   3.034  0.4062  1.5715  0.0530
80135SOL    HW252131   1.347   8.046   2.915  0.6645 -0.1894 -0.2454
80136SOL     OW52132   9.245   5.361   5.837 -0.3063  0.5785  0.4957
80136SOL    HW152133   9.226   5.276   5.797  0.0505 -0.1785  1.9042
80136SOL    HW252134   9.294   5.408   5.769 -1.7089  0.2115 -0.8261
80137SOL     OW52135  13.091   7.645   2.255 -0.6540  0.0840  0.0072
80137SOL    HW152136  13.177   7.634   2.296  0.5085 -1.5231 -2.5775
80137SOL    HW252137  13.028   7.622   2.323  1.1468 -2.9063  0.8360
80138SOL     OW52138   1.415  13.709  11.504  0.3654  0.4806 -0.1454
80138SOL    HW152139   1.454  13.744  11.424 -0.3503  0.0815 -0.6882
80138SOL    HW252140   1.410  13.783  11.564 -2.8446  1.8694 -1.9064
80139SOL     OW52141   7.234   0.990   9.737  0.1095  0.0737 -0.1166
80139SOL    HW152142   7.195   1.077   9.751 -0.2081  0.2112 -1.7222
80139SOL    HW252143   7.161   0.929   9.751 -0.6268  0.3013 -2.5621
80140SOL     OW52144   2.130   4.639  12.733 -0.6502 -0.3120  0.2926
80140SOL    HW152145   2.134   4.644  12.638  1.0651 -0.4670  0.3205
80140SOL    HW252146   2.164   4.551  12.753 -0.9322 -0.2536  1.0426
80141SOL     OW52147   0.771  10.386   5.408  0.1521 -0.1418 -0.0310
80141SOL    HW152148   0.779  10.307   5.462 -0.7582  0.6463  1.2911
80141SOL    HW252149   0.828  10.450   5.451  0.2637  0.1807 -0.6475
80142SOL     OW52150  11.370  10.956   6.931 -0.0119  0.3399 -0.5128
80142SOL    HW152151  11.314  11.031   6.948  0.0539  0.3231 -0.2220
80142SOL    HW252152  11.318  10.880   6.958  0.0642  0.3071 -0.4568
80143SOL     OW52153  10.696  10.338   9.937  0.5564 -0.1756  0.4968
80143SOL    HW152154  10.622  10.399   9.939  1.1747  0.5856  0.6106
80143SOL    HW252155  10.655  10.252   9.926 -0.3742  0.1787  0.9775
80144SOL     OW52156   8.258  11.279   6.257 -0.0500  0.0862  0.0830
80144SOL    HW152157   8.202  11.339   6.208 -0.2310  0.6225  0.9224
80144SOL    HW252158   8.288  11.330   6.332 -0.0480 -0.8038  0.7115
80145SOL     OW52159   4.747  11.019   2.198  0.0076 -0.8952 -0.8125
80145SOL    HW152160   4.686  11.007   2.125  0.4656  0.5708 -1.4740
80145SOL    HW252161   4.719  11.100   2.240  1.7859  0.0888 -1.4535
80146SOL     OW52162  12.362   6.824   0.853 -0.1243 -0.1457  0.2527
80146SOL    HW152163  12.313   6.793   0.777 -2.4499 -0.4180  1.7370
80146SOL    HW252164  12.452   6.795   0.838 -0.4145  0.1346 -2.5180
80147SOL     OW52165   0.552   6.218   5.934  0.5169  0.0260 -0.1491
80147SOL    HW152166   0.475   6.249   5.983  1.3468  1.8257  0.0970
80147SOL    HW252167   0.516   6.156   5.870 -0.8663 -0.7282  1.2830
80148SOL     OW52168   7.434  10.626   8.817 -0.0935 -0.3965  0.3377
80148SOL    HW152169   7.379  10.640   8.894  1.9528  0.2131  1.7501
80148SOL    HW252170   7.491  10.703   8.813  1.9473 -1.8352  0.0613
80149SOL     OW52171  10.525   2.897  13.717  0.1872  0.0417  0.6666
80149SOL    HW152172  10.528   2.891  13.622 -1.8224 -0.5369  0.6015
80149SOL    HW252173  10.493   2.812  13.746  1.1895  0.0502  1.9128
80150SOL     OW52174  10.860  10.187   1.762 -0.1461 -0.2095 -0.1568
80150SOL    HW152175  10.770  10.169   1.792 -1.3978  4.0436 -0.7145
80150SOL    HW252176  10.848  10.226   1.675  2.3887 -0.5706 -0.7343
80151SOL     OW52177   5.192   4.746   1.702 -0.2408  0.0482 -0.2764
80151SOL    HW152178   5.144   4.673   1.741 -2.7756  0.8260 -1.7563
80151SOL    HW252179   5.131   4.786   1.640  2.9068 -0.1053 -3.9206
80152SOL     OW52180   8.668   6.153   7.795  0.2569  0.0240  0.3650
80152SOL    HW152181   8.730   6.118   7.730  1.6034 -0.2870  1.7766
80152SOL    HW252182   8.605   6.082   7.808  0.5244 -0.2641  0.1010
80153SOL     OW52183   7.348   9.190   3.656 -0.1388  0.8620  0.6804
80153SOL    HW152184   7.257   9.176   3.680 -1.0969  3.1509 -1.2771
80153SOL    HW252185   7.354   9.160   3.565  1.3499 -0.1414  1.0632
80154SOL     OW52186   9.773   3.355  12.355  0.0704  0.1671 -0.4231
80154SOL    HW152187   9.684   3.320  12.349 -0.2780  1.0173 -0.2867
80154SOL    HW252188   9.808   3.317  12.436 -0.7147  1.0450  0.3430
80155SOL     OW52189   7.093   5.183  11.256 -0.3180  0.2208  0.1461
80155SOL    HW152190   7.171   5.129  11.269  0.2767  0.9271 -0.3672
80155SOL    HW252191   7.124   5.257  11.204 -1.4318  0.3088 -0.4140
80156SOL     OW52192   7.682   4.008   3.837  0.2747 -0.7795 -0.9742
80156SOL    HW152193   7.632   3.961   3.770 -1.8577  1.1185 -0.8120
80156SOL    HW252194   7.633   3.996   3.917  0.4717  0.5049 -0.6385
80157SOL     OW52195   5.572   9.710   7.300 -0.1243  0.2013  0.4246
80157SOL    HW152196   5.488   9.672   7.275  0.1850 -0.4164  0.2834
80157SOL    HW252197   5.550   9.788   7.351 -0.7771  0.4239 -0.1836
80158SOL     OW52198   0.588   0.596  11.377 -0.0005  0.4549  0.7810
80158SOL    HW152199   0.660   0.656  11.396 -0.0929  0.2869  1.7296
80158SOL    HW252200   0.630   0.520  11.336  0.3789  0.3527  1.3403
80159SOL     OW52201   1.747   5.191  13.111  0.2236  0.0129  0.1738
80159SOL    HW152202   1.717   5.239  13.034  1.3575 -0.8400 -0.8440
80159SOL    HW252203   1.744   5.099  13.084  2.6709 -0.1821  0.3648
80160SOL     OW52204   4.562   9.354   9.290  0.0309 -1.0023  0.3350
80160SOL    HW152205   4.630   9.380   9.229 -0.4761 -1.3825 -0.4009
80160SOL    HW252206   4.521   9.437   9.318 -0.0367 -0.8582 -0.1904
80161SOL     OW52207  13.624  12.480  10.195  0.2367 -0.5707 -0.5931
80161SOL    HW152208  13.676  12.468  10.116 -2.3865 -2.2938 -2.2088
80161SOL    HW252209  13.535  12.492  10.163 -0.8169 -0.6347  2.0968
80162SOL     OW52210   3.678  12.958  11.470  0.7132  0.0851  0.3292
80162SOL    HW152211   3.695  12.946  11.376  0.6708  0.4605  0.2708
80162SOL    HW252212   3.584  12.973  11.474  1.0071  2.3181  0.1733
80163SOL     OW52213  10.645   2.844   7.434 -0.1347  0.2090 -0.3197
80163SOL    HW152214  10.570   2.808   7.481  0.7631 -1.6239 -0.1607
80163SOL    HW252215  10.610   2.873   7.350 -1.0808 -0.3489 -0.1325
80164SOL     OW52216  10.078  10.066   3.829  0.1922  0.2665  0.7143
80164SOL    HW152217   9.986  10.040   3.833  0.0433  0.3075 -1.3967
80164SOL    HW252218  10.125   9.992   3.868 -0.4952 -1.6753 -1.8732
80165SOL     OW52219  11.235  13.627   6.149  0.1832 -0.0795  0.3736
80165SOL    HW152220  11.301  13.572   6.191  0.3553 -1.3720 -1.4829
80165SOL    HW252221  11.154  13.610   6.198  0.6221 -0.6601  0.9020
80166SOL     OW52222  11.775   6.545   3.274 -0.3426 -0.0066  0.0714
80166SOL    HW152223  11.735   6.627   3.302 -0.9552 -0.3925  0.3369
80166SOL    HW252224  11.716   6.512   3.206  0.9898  0.8000 -1.5717
80167SOL     OW52225   6.640   5.123  10.905  0.0682 -0.2026  0.9994
80167SOL    HW152226   6.701   5.127  10.831 -0.5374 -0.9069  0.4453
80167SOL    HW252227   6.632   5.214  10.934  0.1346  0.1200  0.0434
80168SOL     OW52228   2.803   9.528   9.015  0.3355 -0.4238 -0.6294
80168SOL    HW152229   2.792   9.577   8.934  2.3281  2.7799  0.8674
80168SOL    HW252230   2.875   9.467   8.996  1.0804  0.5986 -1.1521
80169SOL     OW52231   2.362   9.221  13.107  0.4806 -0.2334  0.0215
80169SOL    HW152232   2.338   9.248  13.196  1.0282 -0.1974  0.1650
80169SOL    HW252233   2.443   9.171  13.119  0.5259 -0.2768 -0.4527
80170SOL     OW52234  12.159   3.139   0.806 -0.0856  0.2486  0.4323
80170SOL    HW152235  12.153   3.109   0.715  2.4154 -1.0524  0.6277
80170SOL    HW252236  12.112   3.072   0.856 -1.2208  0.8204  0.1705
80171SOL     OW52237   8.915  11.096  12.565  0.0541 -0.3124  0.5896
80171SOL    HW152238   8.921  11.190  12.544 -0.3039 -0.3862  0.1394
80171SOL    HW252239   8.914  11.053  12.479 -3.3041 -0.5240  0.5991
80172SOL     OW52240   5.436   9.588  11.484  0.1417 -0.0582 -0.2160
80172SOL    HW152241   5.510   9.576  11.424 -0.8459 -1.3443 -1.2171
80172SOL    HW252242   5.472   9.643  11.554  2.2078 -1.0319 -0.4162
80173SOL     OW52243  12.529   5.955   1.454 -0.2366  0.2604 -0.1137
80173SOL    HW152244  12.463   5.983   1.518 -0.1822 -1.7154  0.8631
80173SOL    HW252245  12.505   5.865   1.432  0.1847  0.6239 -2.3551
80174SOL     OW52246   3.955   8.972   9.285 -0.4629 -0.5236  0.1416
80174SOL    HW152247   4.039   8.950   9.324  1.1894  1.1487 -2.2360
80174SOL    HW252248   3.931   8.895   9.233  0.1006 -0.6022  0.0007
80175SOL     OW52249   0.964  12.127   2.666  0.1283 -0.2296 -0.3306
80175SOL    HW152250   0.896  12.061   2.654  0.8757 -0.8948 -1.0573
80175SOL    HW252251   0.918  12.211   2.656 -0.4521 -0.6729 -1.5931
80176SOL     OW52252   8.074  10.322   0.885  0.2552 -0.0024 -0.1861
80176SOL    HW152253   8.080  10.318   0.980  0.5361 -0.9305 -0.2297
80176SOL    HW252254   8.154  10.366   0.857  0.3383 -0.0456 -0.0136
80177SOL     OW52255   8.864  12.765   7.181  0.2769  0.7917  0.0282
80177SOL    HW152256   8.928  12.823   7.221 -0.2790  1.1325  0.4389
80177SOL    HW252257   8.809  12.736   7.254  2.5201 -2.9445  0.4879
80178SOL     OW52258  13.427   9.653   8.747 -0.1644  0.0937 -0.1060
80178SOL    HW152259  13.375   9.575   8.730 -1.2619  0.5870  0.8285
80178SOL    HW252260  13.517   9.621   8.755 -0.5316 -1.0036 -0.1873
80179SOL     OW52261   4.885   4.897   7.396 -0.7050  0.5646 -0.4415
80179SOL    HW152262   4.948   4.842   7.443 -1.9528 -1.5464 -1.1193
80179SOL    HW252263   4.839   4.945   7.466 -0.8207 -0.6187  0.3150
80180SOL     OW52264  11.355   4.830   9.221 -0.6179 -0.7130  0.4771
80180SOL    HW152265  11.376   4.816   9.313  2.0291 -1.7905 -0.1997
80180SOL    HW252266  11.297   4.906   9.221  1.1039  0.7334  2.8767
80181SOL     OW52267   8.970   6.704   1.639 -0.1065 -0.3429  0.2195
80181SOL    HW152268   8.882   6.739   1.647  0.3204  0.4491  1.7980
80181SOL    HW252269   8.963   6.637   1.570 -1.7391  0.2486 -0.2349
80182SOL     OW52270   4.982   1.374   7.644 -0.0907 -0.3617 -0.3399
80182SOL    HW152271   4.958   1.393   7.735  0.4267 -1.0178 -0.0625
80182SOL    HW252272   4.898   1.367   7.598 -0.3750 -0.6457  0.2112
80183SOL     OW52273   1.631   4.206  12.482  0.3801  0.0261 -0.3986
80183SOL    HW152274   1.555   4.174  12.434  1.6660 -1.2805 -1.6714
80183SOL    HW252275   1.679   4.259  12.419  0.9569  0.1323  0.1177
80184SOL     OW52276   1.898   8.307  13.683 -0.3075 -0.3113 -0.4066
80184SOL    HW152277   1.850   8.368  13.740  0.6010 -1.7158  1.9979
80184SOL    HW252278   1.944   8.364  13.622 -3.1110  1.1813 -1.3430
80185SOL     OW52279   3.576   4.342   6.316  0.3075  0.1782  0.3884
80185SOL    HW152280   3.650   4.389   6.277 -0.0321  1.0819  0.7976
80185SOL    HW252281   3.611   4.305   6.397  0.6775 -0.6119 -0.1240
80186SOL     OW52282   1.721  10.925   2.669  0.2773 -0.1119  0.4113
80186SOL    HW152283   1.666  10.878   2.732  0.0845  0.7463  0.8978
80186SOL    HW252284   1.661  10.986   2.625  0.6138  0.0138  0.1225
80187SOL     OW52285  11.522   1.928  10.814  0.0985  0.1714  0.2966
80187SOL    HW152286  11.506   1.848  10.764  1.7147  0.7961 -1.3281
80187SOL    HW252287  11.442   1.940  10.866  0.0136 -2.7413  0.9947
80188SOL     OW52288  11.494   4.242  10.588 -0.2493  0.1746  0.4295
80188SOL    HW152289  11.535   4.317  10.546 -0.4410 -0.5678 -1.1298
80188SOL    HW252290  11.541   4.166  10.554 -0.9192 -0.4984  0.9677
80189SOL     OW52291   7.197   3.607   6.489 -0.1925  0.1382  0.0246
80189SOL    HW152292   7.134   3.546   6.528 -0.7858 -0.3479 -1.6132
80189SOL    HW252293   7.151   3.643   6.413  0.5804  1.7630  0.2826
80190SOL     OW52294   1.453   2.636   4.195  0.0190  0.5180  0.2983
80190SOL    HW152295   1.357   2.630   4.200 -0.0846 -0.2379 -1.6872
80190SOL    HW252296   1.482   2.545   4.188  0.7548  0.8007 -0.4786
80191SOL     OW52297   7.446   7.366  11.329  0.2696  0.1677  0.2772
80191SOL    HW152298   7.360   7.324  11.325  0.9519 -1.2700  0.3999
80191SOL    HW252299   7.481   7.342  11.415  1.3639 -0.4035 -0.3154
80192SOL     OW52300   7.413   5.980   8.058 -0.2158  0.2527  0.4813
80192SOL    HW152301   7.460   6.043   8.112 -0.1109  0.4167  0.2021
80192SOL    HW252302   7.351   5.938   8.118 -0.4806  0.8168  0.6091
80193SOL     OW52303   0.276  13.335   0.045 -0.2354 -0.3356 -0.0945
80193SOL    HW152304   0.257  13.261   0.101 -1.9853  0.3395  0.2696
80193SOL    HW252305   0.346  13.382   0.091  0.7955 -1.6499 -0.2672
80194SOL     OW52306   1.513   9.698   7.564  0.4795 -0.4621 -0.8118
80194SOL    HW152307   1.578   9.762   7.592 -0.0337 -0.4695  0.4420
80194SOL    HW252308   1.440   9.708   7.626  1.9565 -4.9635  2.1962
80195SOL     OW52309   1.746   5.689   6.493 -0.2323  0.1269  0.6393
80195SOL    HW152310   1.712   5.759   6.548  1.8773 -0.1017  2.3562
80195SOL    HW252311   1.841   5.700   6.495  0.1370 -2.4035  0.4751
80196SOL     OW52312  12.383  12.016  13.450 -0.4839 -0.0437 -0.4080
80196SOL    HW152313  12.298  11.982  13.423 -0.3689 -0.5253 -0.1662
80196SOL    HW252314  12.402  11.970  13.532  0.0001  0.0766 -0.4535
80197SOL     OW52315  12.485  13.625   7.854  0.1639 -0.0636 -0.2141
80197SOL    HW152316  12.483  13.540   7.898  0.7041  0.1403  0.2096
80197SOL    HW252317  12.572  13.661   7.874  0.7188 -0.2822 -2.0337
80198SOL     OW52318   7.777   2.624   4.512  0.1021 -0.0339  0.3387
80198SOL    HW152319   7.755   2.531   4.512 -1.0948  0.2222 -0.3506
80198SOL    HW252320   7.787   2.646   4.419  0.3517  0.5228  0.4954
80199SOL     OW52321  11.677   2.912  12.799  0.0299  0.1577 -0.2933
80199SOL    HW152322  11.617   2.837  12.797  1.0740 -0.6904 -0.2009
80199SOL    HW252323  11.709   2.919  12.709  2.2595 -1.4484  0.3045
80200SOL     OW52324   0.983  12.335  12.574  0.3049  0.0138  0.2047
80200SOL    HW152325   1.040  12.288  12.633 -1.0218 -2.3142 -0.2525
80200SOL    HW252326   0.918  12.271  12.546 -0.9899  1.8480 -1.3204
80201SOL     OW52327   2.754   0.470  12.780  0.7663 -0.0534 -0.1635
80201SOL    HW152328   2.730   0.424  12.860  0.5060  0.3457 -0.0062
80201SOL    HW252329   2.848   0.484  12.787  0.5248  1.2628  0.7685
80202SOL     OW52330   2.008   4.017   6.748 -0.5527  0.5912 -0.9322
80202SOL    HW152331   1.988   4.111   6.753  0.7866  0.8496  0.1992
80202SOL    HW252332   2.016   3.990   6.839 -1.3110 -0.7245 -1.2428
80203SOL     OW52333   5.186   2.500  10.759  0.0298 -0.1117  0.5201
80203SOL    HW152334   5.108   2.443  10.753 -0.9669  1.2733 -0.1603
80203SOL    HW252335   5.154   2.579  10.803  1.1295  0.3811  0.4488
80204SOL     OW52336   2.117  12.562  12.649  0.1420  0.0203  0.4380
80204SOL    HW152337   2.139  12.622  12.721  2.2854 -0.4296  0.2224
80204SOL    HW252338   2.081  12.485  12.693  0.8785 -0.0086  1.0131
80205SOL     OW52339   9.087   8.130  13.411  0.1949 -0.5009 -0.0998
80205SOL    HW152340   9.182   8.122  13.396  0.2394 -0.9415  0.3788
80205SOL    HW252341   9.054   8.173  13.333  1.0932  1.6936  0.6416
80206SOL     OW52342   2.897   0.204   0.254 -0.4142  0.5090  0.4751
80206SOL    HW152343   2.857   0.267   0.194 -1.3503 -0.2323  0.2872
80206SOL    HW252344   2.858   0.120   0.229 -0.2218  0.0679  1.6053
80207SOL     OW52345  13.559   4.628  10.298 -0.1851  0.3047  0.2885
80207SOL    HW152346  13.518   4.542  10.304 -1.3059  0.9191  1.9364
80207SOL    HW252347  13.646   4.616  10.337 -0.0934 -0.2018 -0.0548
80208SOL     OW52348   7.522  13.531   9.848  0.5208  0.2967  0.2983
80208SOL    HW152349   7.524  13.480   9.929  1.0938  0.7463  0.5698
80208SOL    HW252350   7.502  13.620   9.876  0.7930  0.4675 -0.0448
80209SOL     OW52351   7.659  11.330   2.906 -0.1942  0.6201 -0.2945
80209SOL    HW152352   7.697  11.255   2.950 -0.6454 -0.0595 -1.0333
80209SOL    HW252353   7.656  11.305   2.813 -0.1558  1.6284 -0.5799
80210SOL     OW52354  10.736   4.102   0.661  0.0409  0.5128 -0.2449
80210SOL    HW152355  10.723   4.010   0.641 -0.6614  0.9323 -1.8533
80210SOL    HW252356  10.829   4.109   0.684  0.0743 -0.5994  0.0063
80211SOL     OW52357  11.544   2.454   2.115 -0.0249 -0.2670  0.3349
80211SOL    HW152358  11.628   2.500   2.112 -0.0344 -0.2826 -1.7991
80211SOL    HW252359  11.567   2.361   2.114 -0.0602 -0.3433  2.3456
80212SOL     OW52360   1.778   6.792  10.577 -0.3311 -0.1114  0.5912
80212SOL    HW152361   1.729   6.786  10.659 -0.5190  0.1617  0.5021
80212SOL    HW252362   1.735   6.863  10.529 -0.5512 -0.6185  0.0311
80213SOL     OW52363   8.898   2.811   4.741 -0.3022 -0.2251  0.3674
80213SOL    HW152364   8.929   2.788   4.654  0.9776  0.7394  0.5414
80213SOL    HW252365   8.877   2.904   4.735 -0.4111 -0.2038  1.0250
80214SOL     OW52366   6.059   4.424   8.782  0.1182  0.3158  1.1826
80214SOL    HW152367   6.155   4.427   8.777  0.1416 -0.8391  0.5267
80214SOL    HW252368   6.032   4.516   8.779  1.1402  0.6122 -0.4973
80215SOL     OW52369   0.930   4.566   2.711 -0.0123  0.3979 -0.0280
80215SOL    HW152370   0.897   4.498   2.652  0.4923 -0.3133  0.4956
80215SOL    HW252371   0.878   4.644   2.689 -0.1312  0.0322 -1.1022
80216SOL     OW52372   2.388   7.327   4.879 -0.6135 -0.3616 -0.0637
80216SOL    HW152373   2.415   7.368   4.962 -0.6590 -0.6897  0.1137
80216SOL    HW252374   2.311   7.276   4.902 -2.2511  1.6406 -0.8283
80217SOL     OW52375   5.351   0.595   9.500 -0.0051 -0.3796 -0.7760
80217SOL    HW152376   5.365   0.503   9.522 -0.8798 -0.3744 -0.1597
80217SOL    HW252377   5.392   0.644   9.571 -0.3097 -0.3089 -0.6494
80218SOL     OW52378   5.446   8.193   4.771 -0.8276 -0.7978 -0.2274
80218SOL    HW152379   5.363   8.146   4.783 -0.7022 -0.2705  5.1783
80218SOL    HW252380   5.441   8.265   4.834  2.5560  1.1625 -1.9627
80219SOL     OW52381   7.309   5.668  10.409  0.6454  0.1716 -0.1653
80219SOL    HW152382   7.246   5.633  10.472  0.4379  2.5992  1.1125
80219SOL    HW252383   7.366   5.725  10.461  1.7729  0.6840 -1.8542
80220SOL     OW52384  13.248   2.403   3.809 -0.2722  0.2685 -0.0781
80220SOL    HW152385  13.241   2.498   3.800 -2.6080  0.2718  1.0813
80220SOL    HW252386  13.163   2.369   3.781  0.2742 -1.4304  0.1867
80221SOL     OW52387  12.090   3.918  13.402  0.2933 -0.2276  0.1030
80221SOL    HW152388  12.046   3.835  13.385 -0.8288  0.1448  1.0606
80221SOL    HW252389  12.063   3.943  13.490  1.0476  0.8874  0.0488
80222SOL     OW52390  11.425   5.474   6.358 -0.7417 -0.1446 -0.5628
80222SOL    HW152391  11.367   5.501   6.286 -0.3158  1.1536 -0.4531
80222SOL    HW252392  11.482   5.408   6.319 -0.1858  0.8927 -1.5815
80223SOL     OW52393  11.308   8.613   3.975  0.6459  0.1230  0.4512
80223SOL    HW152394  11.332   8.691   3.925 -1.8484  1.5177  1.2155
80223SOL    HW252395  11.349   8.625   4.061  2.2279 -0.6498 -0.1616
80224SOL     OW52396   0.359   2.033   8.167 -0.3274 -0.4676 -0.1056
80224SOL    HW152397   0.392   2.056   8.080  0.3913  1.0150  0.5394
80224SOL    HW252398   0.264   2.041   8.158 -0.2845 -0.6382 -0.8347
80225SOL     OW52399   4.535   9.947   5.369  0.0976 -0.1063 -0.1685
80225SOL    HW152400   4.526   9.937   5.274 -0.1080  1.7531 -0.3766
80225SOL    HW252401   4.486   9.873   5.406 -1.1478  0.0198 -1.4888
80226SOL     OW52402   2.045   9.769  12.906 -0.5258 -0.1005 -0.1878
80226SOL    HW152403   2.014   9.733  12.989  0.3522  0.4336  0.3921
80226SOL    HW252404   2.074   9.693  12.855  1.3928 -0.2455  1.0501
80227SOL     OW52405   2.251   8.254   8.291  0.0712  0.2526 -0.5233
80227SOL    HW152406   2.174   8.200   8.275  0.1350  0.3250 -1.1028
80227SOL    HW252407   2.325   8.199   8.267  0.2977 -0.2918  1.2906
80228SOL     OW52408   5.609   8.105   9.889 -0.2561  0.4903 -0.3182
80228SOL    HW152409   5.549   8.105   9.814 -0.5115  0.6290 -0.1149
80228SOL    HW252410   5.688   8.063   9.856 -0.1981  0.9658 -0.8074
80229SOL     OW52411   6.725   0.752  12.413 -0.3564  0.1958  0.0883
80229SOL    HW152412   6.691   0.749  12.323  1.3329 -0.4548 -0.5653
80229SOL    HW252413   6.659   0.705  12.465 -1.6746  1.1482 -0.6681
80230SOL     OW52414  11.083   9.415   3.120  0.3295 -0.0101  0.0840
80230SOL    HW152415  11.013   9.465   3.161  0.4082  0.7798 -0.7044
80230SOL    HW252416  11.039   9.347   3.070  0.0228  1.2264 -1.4021
80231SOL     OW52417  10.998   0.127   1.807 -0.0152 -0.1269  0.1410
80231SOL    HW152418  10.959   0.040   1.809  0.8077 -0.5004  0.2827
80231SOL    HW252419  11.035   0.134   1.719 -0.5960  0.3200 -0.0759
80232SOL     OW52420   5.501   0.818   3.354 -0.6348 -0.0298  0.0499
80232SOL    HW152421   5.489   0.748   3.418 -1.0111 -0.9698 -1.0007
80232SOL    HW252422   5.565   0.782   3.292 -2.4246 -0.3778 -1.7164
80233SOL     OW52423   1.191   1.564  10.447  0.8166 -0.3223  0.2676
80233SOL    HW152424   1.237   1.482  10.434 -0.2848 -1.3986  2.6059
80233SOL    HW252425   1.098   1.540  10.443  0.4686  0.9935 -0.0175
80234SOL     OW52426   8.063   4.009   3.311  0.1022  0.1905 -0.2815
80234SOL    HW152427   8.039   3.938   3.370 -0.8273  1.6346  1.1667
80234SOL    HW252428   8.067   3.969   3.225  0.5782 -1.8040  0.6251
80235SOL     OW52429   7.127   1.650  12.222  0.1410  0.7375  0.2200
80235SOL    HW152430   7.123   1.745  12.234  1.9853  0.7619  0.9239
80235SOL    HW252431   7.173   1.618  12.299 -2.2491 -1.0137  1.0570
80236SOL     OW52432   2.432  10.865  13.200 -0.0860  0.1489  0.1604
80236SOL    HW152433   2.473  10.874  13.114  1.0385  0.0759  0.6626
80236SOL    HW252434   2.356  10.808  13.185  1.1386 -1.3879 -0.4943
80237SOL     OW52435   0.525   2.442   3.965 -0.1571  0.2045  0.2682
80237SOL    HW152436   0.452   2.383   3.986 -0.5696  1.3592  2.3727
80237SOL    HW252437   0.482   2.520   3.929  0.4269 -0.9433 -3.3532
80238SOL     OW52438   2.791  12.067  10.840  0.4519 -0.4015 -0.9782
80238SOL    HW152439   2.885  12.058  10.859  0.0973 -0.7674  0.7082
80238SOL    HW252440   2.771  11.994  10.782  1.1832 -0.4100 -1.2265
80239SOL     OW52441  12.665   0.877   6.827  0.1190 -0.3657 -0.3369
80239SOL    HW152442  12.700   0.966   6.830 -0.2959 -0.1501 -1.3597
80239SOL    HW252443  12.716   0.828   6.891 -0.5669  0.9261  1.2738
80240SOL     OW52444   8.201  11.241   1.103  0.0479  0.0078 -0.3071
80240SOL    HW152445   8.160  11.157   1.122  2.7338 -1.1543  1.0079
80240SOL    HW252446   8.239  11.268   1.186  1.1277  1.3970 -1.2118
80241SOL     OW52447  12.908   0.911   0.154 -0.3093  0.0243 -0.9304
80241SOL    HW152448  12.867   0.997   0.160  1.2997  0.7589  1.2295
80241SOL    HW252449  12.904   0.888   0.062 -1.6573  1.9667 -1.4154
80242SOL     OW52450   2.326   8.406   2.906  0.2867 -0.2078 -0.4900
80242SOL    HW152451   2.236   8.428   2.884  0.2804  0.3050  0.0199
80242SOL    HW252452   2.364   8.488   2.939  0.7628 -0.5604 -0.1348
80243SOL     OW52453   9.353   5.708   2.055  0.8600 -0.3423 -0.0003
80243SOL    HW152454   9.336   5.660   2.135  0.2682  0.1492  0.1794
80243SOL    HW252455   9.367   5.641   1.988 -1.6895 -0.8460 -0.1435
80244SOL     OW52456   3.241   5.155  12.412 -0.1013  0.3829 -0.0728
80244SOL    HW152457   3.307   5.193  12.354  1.7579  2.0605  2.9299
80244SOL    HW252458   3.287   5.085  12.458 -1.1017  0.0459  0.4374
80245SOL     OW52459   6.873  13.547   6.052 -0.0785 -0.1212 -0.6895
80245SOL    HW152460   6.946  13.490   6.026  0.2554 -0.1956  0.3782
80245SOL    HW252461   6.802  13.486   6.073  0.8119 -0.3194  2.1575
80246SOL     OW52462   3.743  11.621  10.099 -0.2941  0.5051 -0.0384
80246SOL    HW152463   3.793  11.702  10.108  1.1042 -0.2032 -1.0748
80246SOL    HW252464   3.747  11.581  10.186  1.9199 -0.0471 -0.3447
80247SOL     OW52465   0.049  11.836  11.965  0.2815 -0.0825  0.6605
80247SOL    HW152466   0.009  11.757  11.999  0.0617  0.0751  0.7736
80247SOL    HW252467   0.002  11.853  11.883  0.7898 -0.4449  0.2861
80248SOL     OW52468   9.534   6.744   8.291 -0.2433  0.5036 -0.7240
80248SOL    HW152469   9.524   6.839   8.288 -2.0357  0.4946  1.6964
80248SOL    HW252470   9.585   6.727   8.371  0.1386 -0.5595 -1.1702
80249SOL     OW52471   7.370   2.708   4.143  0.5681 -0.4120 -0.5926
80249SOL    HW152472   7.284   2.739   4.173  1.0041 -1.3805  1.9079
80249SOL    HW252473   7.384   2.627   4.191  2.3914 -0.9070 -1.8581
80250SOL     OW52474  13.219  11.314   9.732 -0.1619  0.3059  0.1450
80250SOL    HW152475  13.137  11.319   9.782  0.1290 -0.9009  0.7756
80250SOL    HW252476  13.285  11.350   9.792 -0.1930  1.1902 -0.3297
80251SOL     OW52477   5.544   7.107   6.117  0.3451  0.1956  0.4850
80251SOL    HW152478   5.617   7.049   6.141  0.8653  0.8176  0.4514
80251SOL    HW252479   5.510   7.070   6.035  1.1033  0.3116  0.1027
80252SOL     OW52480  13.647   1.351   1.006 -0.2431  0.8490  0.0091
80252SOL    HW152481  13.597   1.384   1.081  0.0882  1.2374  0.0611
80252SOL    HW252482  13.605   1.267   0.985  0.7745 -0.1698  1.7694
80253SOL     OW52483   0.968  10.017   4.194  0.0325  0.1518 -0.1507
80253SOL    HW152484   0.981  10.086   4.258  1.7953 -1.3058  1.1906
80253SOL    HW252485   1.027   9.947   4.223 -0.4042 -1.2367 -2.4052
80254SOL     OW52486  12.124   0.472  13.272  0.2742 -0.1637 -0.4261
80254SOL    HW152487  12.064   0.512  13.209 -0.1296 -2.0848 -1.3393
80254SOL    HW252488  12.089   0.495  13.358 -1.6814 -1.0838 -0.9370
80255SOL     OW52489   6.272   1.222   5.025  0.2438 -0.0646 -0.3786
80255SOL    HW152490   6.317   1.224   5.109  1.6236 -1.8795 -0.9924
80255SOL    HW252491   6.311   1.295   4.975 -0.6146  1.0422  0.5276
80256SOL     OW52492   3.564   2.227   9.640 -0.0418  0.1672  0.3431
80256SOL    HW152493   3.510   2.295   9.680 -0.5287  0.0643 -0.1306
80256SOL    HW252494   3.636   2.214   9.702 -0.5449  0.3199  0.9670
80257SOL     OW52495   3.654   2.856   8.417 -0.4015  0.5238  0.5685
80257SOL    HW152496   3.686   2.937   8.456 -1.0058  0.0492  2.1686
80257SOL    HW252497   3.594   2.884   8.348  0.4923  1.4147  0.1408
80258SOL     OW52498   2.702   9.361   0.387  0.0746  0.4274 -0.2690
80258SOL    HW152499   2.687   9.330   0.298 -1.0453  0.2125 -0.0215
80258SOL    HW252500   2.684   9.455   0.383 -0.3392  0.3542 -0.2000
80259SOL     OW52501   5.080   2.183  10.579  0.3726  0.0187  0.1596
80259SOL    HW152502   5.021   2.108  10.586 -1.5466  1.2949 -1.3321
80259SOL    HW252503   5.035   2.243  10.520  2.2750  1.9586  0.5815
80260SOL     OW52504   1.268   2.685   5.138  0.2193  0.1844  0.1177
80260SOL    HW152505   1.284   2.738   5.216  1.0482 -1.6039  1.2196
80260SOL    HW252506   1.177   2.659   5.145 -0.1599  1.3080 -0.3684
80261SOL     OW52507   3.485   0.638   1.272  0.8303  0.0327  0.2998
80261SOL    HW152508   3.480   0.565   1.334  0.0736  0.3155  0.5818
80261SOL    HW252509   3.546   0.700   1.313  2.7106 -1.1070 -0.6686
80262SOL     OW52510  10.018   1.246   8.537 -0.0566 -0.1099 -0.2006
80262SOL    HW152511  10.037   1.331   8.497  0.2725  0.0591  0.3052
80262SOL    HW252512   9.922   1.239   8.534 -0.1149  0.4776  0.1372
80263SOL     OW52513   1.061   5.736   9.263  0.3897  0.0656  0.1839
80263SOL    HW152514   1.124   5.684   9.213 -1.6154 -0.3551 -2.1361
80263SOL    HW252515   1.010   5.672   9.312  0.7359  0.2607  0.8064
80264SOL     OW52516   0.465   4.147  12.646 -0.1323  0.4357  0.7454
80264SOL    HW152517   0.556   4.117  12.652 -0.1021  0.2273 -0.4322
80264SOL    HW252518   0.466   4.233  12.687  0.5368  0.3184  1.0010
80265SOL     OW52519   8.279   9.650   1.970 -0.0358 -0.1472 -0.5441
80265SOL    HW152520   8.352   9.616   2.021  1.7476 -0.4422 -3.1018
80265SOL    HW252521   8.218   9.576   1.964 -1.3755  0.4878  2.7180
80266SOL     OW52522  11.030   1.463  12.717 -0.0875 -0.3663  0.3799
80266SOL    HW152523  11.111   1.483  12.763  0.4185  2.2022 -1.4458
80266SOL    HW252524  11.040   1.504  12.631 -2.3578 -2.0553 -0.7916
80267SOL     OW52525   4.811   9.011   8.332 -0.1770  0.0153  0.2570
80267SOL    HW152526   4.802   8.942   8.267  0.5001 -0.2430  0.4257
80267SOL    HW252527   4.895   9.052   8.312  0.6101 -0.8156  1.6397
80268SOL     OW52528   3.096   1.571  11.514  0.1751  0.2145 -1.0851
80268SOL    HW152529   3.024   1.509  11.515 -0.8116  1.3163 -1.5801
80268SOL    HW252530   3.167   1.525  11.468 -0.1363 -0.9312 -0.4554
80269SOL     OW52531   3.266   0.695   3.802 -0.7933 -0.0069 -0.1558
80269SOL    HW152532   3.321   0.678   3.726 -0.1795  0.9507  0.0620
80269SOL    HW252533   3.177   0.699   3.767 -0.2775  3.3378 -1.3788
80270SOL     OW52534  11.625   7.051   3.812 -0.6377 -0.5691  0.4981
80270SOL    HW152535  11.571   6.981   3.776  0.3858 -1.4462  0.6046
80270SOL    HW252536  11.712   7.011   3.823  0.6013  1.3221 -1.5611
80271SOL     OW52537   9.532   3.438   2.852  0.2071  0.6543 -0.3243
80271SOL    HW152538   9.466   3.373   2.878 -0.4768  1.2487 -0.5519
80271SOL    HW252539   9.481   3.513   2.821  0.9895  0.6974 -1.5672
80272SOL     OW52540   2.076   4.922  12.446  0.2937 -0.4603 -0.4009
80272SOL    HW152541   2.057   4.947  12.356  1.4117  1.7777 -0.0938
80272SOL    HW252542   2.156   4.870  12.440  0.2682 -0.4654 -0.7284
80273SOL     OW52543   1.844   2.552   5.306  0.5218 -0.4867 -0.4980
80273SOL    HW152544   1.844   2.536   5.401  1.0826  1.5292 -0.1102
80273SOL    HW252545   1.913   2.496   5.272  0.6427 -0.8765  0.3648
80274SOL     OW52546   9.876   7.649   7.213 -0.2990  0.3714  0.0325
80274SOL    HW152547   9.869   7.700   7.293 -0.9724  1.0864 -0.4606
80274SOL    HW252548   9.805   7.584   7.220 -1.0709  1.1349 -0.4518
80275SOL     OW52549   7.328   8.213   4.557  0.2548 -0.0217  0.0316
80275SOL    HW152550   7.247   8.258   4.532 -0.6898 -0.1595  2.5301
80275SOL    HW252551   7.398   8.271   4.527 -0.8333  1.2001 -0.2312
80276SOL     OW52552   6.041   0.529   9.129 -0.4419  0.1954 -0.1955
80276SOL    HW152553   6.005   0.465   9.191 -1.3080  0.6644 -0.1968
80276SOL    HW252554   6.094   0.587   9.183  0.6019 -0.6816 -0.2372
80277SOL     OW52555   0.836  11.907   7.434 -0.0227  0.2872 -0.2734
80277SOL    HW152556   0.793  11.869   7.358  0.2386  0.0249 -0.2918
80277SOL    HW252557   0.767  11.912   7.501 -0.4025  1.0679 -0.7098
80278SOL     OW52558   6.280   8.092  10.071 -0.0843  0.1177  0.2267
80278SOL    HW152559   6.320   8.041  10.142  0.0456 -0.1001 -0.0019
80278SOL    HW252560   6.335   8.170  10.063 -0.9625  0.8917  1.3752
80279SOL     OW52561   4.409  11.848  12.143  0.4430  0.3648  0.2628
80279SOL    HW152562   4.473  11.915  12.166 -0.2674  1.6574 -1.3436
80279SOL    HW252563   4.367  11.881  12.064  0.1046 -2.0209 -0.6371
80280SOL     OW52564   8.478   5.400   5.983 -0.1671  0.4417  0.2828
80280SOL    HW152565   8.539   5.422   6.054  0.1889  0.7492 -0.1151
80280SOL    HW252566   8.399   5.451   6.003  0.5626  1.9528 -0.5008
80281SOL     OW52567  13.435  13.605   7.381 -0.2705  0.0347  0.2367
80281SOL    HW152568  13.343  13.595   7.357 -0.5634  2.5893 -0.0247
80281SOL    HW252569  13.482  13.602   7.299 -0.3927  0.9109  0.1243
80282SOL     OW52570   1.749   4.596   0.597  0.2394  0.4549 -1.0440
80282SOL    HW152571   1.814   4.649   0.643 -1.1918  0.5334  1.0437
80282SOL    HW252572   1.791   4.511   0.586  0.5951  0.3730  0.6566
80283SOL     OW52573   0.825   3.734   9.565 -0.2509 -0.2574 -0.0794
80283SOL    HW152574   0.886   3.705   9.634 -1.0769  1.8910  1.6977
80283SOL    HW252575   0.833   3.668   9.496  2.4176 -1.2494  1.0309
80284SOL     OW52576   6.664  11.933  12.794 -0.3621 -0.1311  0.8909
80284SOL    HW152577   6.671  11.931  12.698  0.2038 -0.3994  0.9303
80284SOL    HW252578   6.572  11.951  12.811 -0.9373 -2.1314  0.2779
80285SOL     OW52579   1.568   7.480   3.131 -0.3243  0.4853  0.2411
80285SOL    HW152580   1.582   7.572   3.153 -0.0416  0.3216  0.7836
80285SOL    HW252581   1.652   7.438   3.149  0.1298  0.4216 -1.7693
80286SOL     OW52582  11.450   8.850   7.964  0.1432 -0.2666 -0.1324
80286SOL    HW152583  11.496   8.887   7.888  0.1697 -0.5837 -0.2778
80286SOL    HW252584  11.473   8.907   8.037  2.5829 -1.6074  0.2871
80287SOL     OW52585   6.705  12.580  10.314 -0.0547  0.0851 -0.2654
80287SOL    HW152586   6.710  12.671  10.285  1.3068  0.1926  0.2262
80287SOL    HW252587   6.795  12.558  10.338 -0.6910 -0.8149  1.4159
80288SOL     OW52588   2.281   8.134   7.994 -0.5196  0.3561 -0.0853
80288SOL    HW152589   2.193   8.134   8.031 -0.3634 -2.2429  0.5376
80288SOL    HW252590   2.339   8.144   8.069 -0.2754 -0.1493 -0.1977
80289SOL     OW52591   9.101   9.859  11.896 -0.1144 -0.1256  0.2150
80289SOL    HW152592   9.090   9.848  11.991 -0.2996 -3.8181 -0.0911
80289SOL    HW252593   9.159   9.934  11.887 -1.2320  1.2442  3.1690
80290SOL     OW52594  10.642   6.470   6.039 -0.0608  0.2930 -0.4115
80290SOL    HW152595  10.638   6.432   5.951 -0.0987 -1.1298  0.1721
80290SOL    HW252596  10.718   6.527   6.037  2.1518 -2.4532 -0.3842
80291SOL     OW52597   2.859   8.930   1.552  0.3054 -0.1776  0.1030
80291SOL    HW152598   2.793   8.868   1.519 -0.1156 -0.1936  0.9335
80291SOL    HW252599   2.850   8.925   1.648  2.4900 -1.2289  0.3143
80292SOL     OW52600   1.069   1.310   0.296  0.4803  0.0500  0.0838
80292SOL    HW152601   1.148   1.364   0.302 -0.1542  1.0640 -0.3788
80292SOL    HW252602   1.041   1.299   0.387  0.8589  0.1253  0.2144
80293SOL     OW52603   3.359   1.634   0.901  0.6088 -0.1989 -0.0474
80293SOL    HW152604   3.277   1.589   0.922 -0.2915  1.0693 -0.6373
80293SOL    HW252605   3.397   1.656   0.986  0.4388 -0.9723  0.2346
80294SOL     OW52606  13.343  11.899  12.573 -0.3448  0.2197  0.0881
80294SOL    HW152607  13.284  11.884  12.499 -1.5566  1.6777  0.7138
80294SOL    HW252608  13.303  11.851  12.646  0.7845 -1.1176 -0.1124
80295SOL     OW52609   6.162  10.205   9.107 -0.6650  0.2488  0.0811
80295SOL    HW152610   6.077  10.249   9.106 -0.9011 -0.2063 -0.7257
80295SOL    HW252611   6.162  10.151   9.028  0.7286  0.9421 -0.4337
80296SOL     OW52612  12.219  13.025  10.638 -0.0350  0.3553  0.3513
80296SOL    HW152613  12.297  13.079  10.654 -0.1750  0.6478  0.0652
80296SOL    HW252614  12.154  13.060  10.700  0.1996 -0.1975  0.9200
80297SOL     OW52615   1.633   0.719   9.340 -0.3771 -0.0111 -0.2098
80297SOL    HW152616   1.595   0.752   9.421 -2.8310  0.8575 -1.6233
80297SOL    HW252617   1.707   0.664   9.369 -0.8294  0.6777  2.5389
80298SOL     OW52618   4.774   3.562  13.682  0.0112 -0.7846  0.4486
80298SOL    HW152619   4.863   3.544  13.711  0.0144 -0.7670  0.4495
80298SOL    HW252620   4.744   3.634  13.738  0.2819 -0.2439 -0.0854
80299SOL     OW52621   5.138   5.723  12.478  0.3215  0.4201 -0.5658
80299SOL    HW152622   5.217   5.726  12.533  1.0816 -1.3421 -1.4871
80299SOL    HW252623   5.073   5.772  12.528  1.2991 -0.1337  1.3753
80300SOL     OW52624  12.597   5.726   3.168 -0.0566 -0.6523 -0.4225
80300SOL    HW152625  12.625   5.742   3.258  0.0572  1.0862 -0.7228
80300SOL    HW252626  12.677   5.704   3.122 -0.0945 -1.4100 -0.1421
80301SOL     OW52627   0.834   1.129   3.812  0.3232 -0.1740  0.1793
80301SOL    HW152628   0.884   1.200   3.770  0.0931 -0.6155 -0.8699
80301SOL    HW252629   0.894   1.055   3.813  0.2004 -0.2716  0.3205
80302SOL     OW52630  11.303  10.181   5.836 -0.7383 -0.8662 -0.1469
80302SOL    HW152631  11.245  10.256   5.848 -1.1151 -0.7213 -2.4996
80302SOL    HW252632  11.354  10.177   5.918 -1.4376  1.2902  0.4527
80303SOL     OW52633  10.616   4.108   6.824 -0.4038  0.2417 -0.7010
80303SOL    HW152634  10.692   4.081   6.876  0.8621  0.8974 -2.1272
80303SOL    HW252635  10.588   4.190   6.864 -1.5050 -0.8592  0.9123
80304SOL     OW52636  12.775  11.259   8.944 -0.1524  0.8395 -0.3212
80304SOL    HW152637  12.761  11.270   9.038 -0.8173  3.0052 -0.6243
80304SOL    HW252638  12.737  11.173   8.924  0.7297 -0.0325  1.4877
80305SOL     OW52639   9.305   1.890   1.413 -0.1729  0.4759 -0.7820
80305SOL    HW152640   9.365   1.952   1.454  1.0241 -0.1339 -1.5587
80305SOL    HW252641   9.256   1.852   1.486  1.2971  0.0487  0.0041
80306SOL     OW52642  11.258  10.075   8.161  0.1657  0.0442 -0.0132
80306SOL    HW152643  11.190  10.109   8.220  0.6618  0.6371  0.2323
80306SOL    HW252644  11.210  10.024   8.096 -0.5381  0.6100  0.0469
80307SOL     OW52645   2.365   7.298   4.195 -0.5388  0.8588  0.5768
80307SOL    HW152646   2.400   7.386   4.184 -0.9290  1.2159  1.9524
80307SOL    HW252647   2.303   7.306   4.268 -0.3297 -0.6200  0.9498
80308SOL     OW52648   7.793   2.026   3.981 -0.2728  0.4071  0.1540
80308SOL    HW152649   7.868   1.970   3.998 -1.6004 -1.7476 -0.6518
80308SOL    HW252650   7.797   2.094   4.049  1.0397 -1.0490  1.5980
80309SOL     OW52651   7.656   4.019   4.336 -0.0621  0.0093  0.2791
80309SOL    HW152652   7.719   3.999   4.266  0.6537 -0.8509  1.1352
80309SOL    HW252653   7.698   3.985   4.415 -1.5694 -0.4696  0.8934
80310SOL     OW52654  11.413   2.683   4.797  0.2474  0.6042 -0.2636
80310SOL    HW152655  11.398   2.603   4.747  0.4678 -0.6304  1.5410
80310SOL    HW252656  11.499   2.670   4.838 -0.2159  1.2415  0.9732
80311SOL     OW52657   2.700   6.037   6.365 -0.2689  0.3282  0.2343
80311SOL    HW152658   2.726   5.988   6.287  0.6186 -0.4996  1.0291
80311SOL    HW252659   2.660   5.972   6.422 -1.0288  0.9549  0.4325
80312SOL     OW52660  10.714   8.931   3.644  0.0918 -0.0750  0.2083
80312SOL    HW152661  10.774   8.931   3.570  1.1622 -0.5558  1.0417
80312SOL    HW252662  10.769   8.908   3.719 -1.0919 -0.2641  1.0436
80313SOL     OW52663   3.624   8.212   8.963 -0.2749 -0.5276  0.3340
80313SOL    HW152664   3.639   8.298   9.001 -1.7298  0.0888 -0.3821
80313SOL    HW252665   3.683   8.208   8.888  0.5704 -0.6093  0.9895
80314SOL     OW52666  11.924   2.733   1.954 -0.4061 -0.1160  0.2444
80314SOL    HW152667  12.011   2.693   1.954  0.0586  0.8511  0.8269
80314SOL    HW252668  11.940   2.826   1.936 -1.2255  0.2257  1.1763
80315SOL     OW52669   3.684   0.819   0.453 -0.2905  0.5821  0.0630
80315SOL    HW152670   3.615   0.850   0.396 -1.2323 -0.2977  0.6943
80315SOL    HW252671   3.642   0.806   0.538  0.4776 -0.6229  0.2879
80316SOL     OW52672   4.984   5.683  12.801 -0.6602 -0.1461 -0.1748
80316SOL    HW152673   4.956   5.749  12.737 -1.0214 -0.6168 -0.5102
80316SOL    HW252674   4.970   5.599  12.756  1.0951 -0.4216 -0.2897
80317SOL     OW52675   3.027  12.397   6.140  0.1885 -0.0398  1.0528
80317SOL    HW152676   3.007  12.446   6.060  0.5619 -0.4703  0.6904
80317SOL    HW252677   3.041  12.465   6.207  0.7032  0.3506  0.5557
80318SOL     OW52678  12.844   1.725  11.496  0.0599  0.2897 -0.3053
80318SOL    HW152679  12.816   1.774  11.418 -2.6194  1.5129  1.2882
80318SOL    HW252680  12.847   1.634  11.467  0.8598  0.8922 -2.2618
80319SOL     OW52681   1.370  13.114   5.254  0.0993 -0.3145  0.1277
80319SOL    HW152682   1.386  13.067   5.336  0.6443 -0.3461  0.0054
80319SOL    HW252683   1.416  13.197   5.265  0.6288 -0.5387 -0.3568
80320SOL     OW52684   5.288   6.904   9.852  0.3666  0.1697  0.0332
80320SOL    HW152685   5.342   6.924   9.775 -0.7621 -1.7708 -1.3733
80320SOL    HW252686   5.215   6.852   9.817 -1.4452  1.1439  2.1248
80321SOL     OW52687   6.937  11.179  12.092 -0.4813  0.0649 -0.2607
80321SOL    HW152688   6.929  11.190  12.187 -2.0299  2.1317 -0.5672
80321SOL    HW252689   6.968  11.264  12.061 -0.1135 -0.5467 -1.6486
80322SOL     OW52690  11.503   0.843   7.594  0.5070 -0.3052  0.1860
80322SOL    HW152691  11.524   0.751   7.606 -1.6938 -0.6808  1.9098
80322SOL    HW252692  11.535   0.864   7.507  0.7811 -2.7800 -0.3777
80323SOL     OW52693   9.828   4.769  11.184  0.5029  0.1695 -0.0409
80323SOL    HW152694   9.869   4.690  11.221  0.4475 -0.0270 -0.3916
80323SOL    HW252695   9.873   4.782  11.100  0.7871  0.7414  0.1995
80324SOL     OW52696   8.683  11.060   9.534 -0.1362  0.6768 -0.3501
80324SOL    HW152697   8.767  11.013   9.536 -0.2606  0.4730  0.6307
80324SOL    HW252698   8.707  11.152   9.550 -0.2436  0.3669  1.7771
80325SOL     OW52699  13.161   2.466  12.658  0.2171 -0.0782 -0.2007
80325SOL    HW152700  13.091   2.423  12.609 -1.4733 -0.4943  2.3967
80325SOL    HW252701  13.116   2.530  12.714  2.0318  0.4807  0.7159
80326SOL     OW52702   5.449  13.555  12.707 -0.0825 -0.6476  0.3504
80326SOL    HW152703   5.357  13.554  12.681 -0.5748 -1.0275  1.9905
80326SOL    HW252704   5.455  13.628  12.769  1.4494  1.4008 -2.0010
80327SOL     OW52705  10.587   2.729   0.596 -0.4959 -0.5559  0.2670
80327SOL    HW152706  10.624   2.778   0.523  1.0205 -0.4025  1.0929
80327SOL    HW252707  10.493   2.724   0.577 -0.1185 -0.6712 -1.7480
80328SOL     OW52708   4.079  12.812   7.072  0.0497  0.1861  0.3598
80328SOL    HW152709   4.150  12.861   7.115  1.2648 -1.7194  0.6315
80328SOL    HW252710   4.121  12.732   7.041 -1.8643 -0.6744 -0.1263
80329SOL     OW52711  12.717   0.377  10.516  0.1365  0.0134 -0.0870
80329SOL    HW152712  12.780   0.449  10.516  0.5496 -0.3222 -1.1827
80329SOL    HW252713  12.648   0.405  10.456 -0.6734  0.2840  0.9377
80330SOL     OW52714   0.073  10.648  11.995 -0.4065  0.2312  0.2124
80330SOL    HW152715   0.040  10.737  11.980 -2.1367 -0.4601 -0.3353
80330SOL    HW252716  -0.005  10.596  12.013  0.6808 -0.9719  1.7761
80331SOL     OW52717  12.952  11.896   4.139  0.9292  0.6148 -0.1436
80331SOL    HW152718  12.920  11.950   4.067 -0.2369  1.0033  0.6351
80331SOL    HW252719  12.881  11.833   4.155  0.2758  1.7570  1.8986
80332SOL     OW52720  10.962   6.741   2.815  0.0974  0.3355  0.0965
80332SOL    HW152721  10.922   6.803   2.753  0.1014 -0.1493 -0.3934
80332SOL    HW252722  10.887   6.699   2.858  0.0624 -0.7059 -0.9536
80333SOL     OW52723   0.396   2.756   7.928  0.3307 -0.2332  0.0694
80333SOL    HW152724   0.399   2.729   7.837  1.6560  2.3780 -0.7543
80333SOL    HW252725   0.304   2.781   7.943  0.5024  1.3971 -1.2840
80334SOL     OW52726   9.987  10.346   2.589  0.7836 -0.3928 -0.2111
80334SOL    HW152727   9.961  10.425   2.541 -2.0324  0.5604  2.5608
80334SOL    HW252728   9.951  10.274   2.537 -0.0095  0.4227 -0.8440
80335SOL     OW52729   8.020   1.844   7.505 -0.3633  0.5345  0.3946
80335SOL    HW152730   7.931   1.878   7.505 -1.2437 -1.5459 -0.8016
80335SOL    HW252731   8.030   1.799   7.589 -0.9332 -0.2843  0.0433
80336SOL     OW52732  10.164   6.027   7.932 -0.6037  0.1547  0.5716
80336SOL    HW152733  10.076   5.991   7.944 -0.7187  0.7001  1.4841
80336SOL    HW252734  10.204   5.971   7.866 -1.3931 -0.5348  0.6586
80337SOL     OW52735   8.650   5.919   6.021  0.0848  0.0949 -0.0021
80337SOL    HW152736   8.578   5.868   6.058 -0.0879 -1.5311 -2.3817
80337SOL    HW252737   8.722   5.857   6.014  0.6149  0.7895 -0.8383
80338SOL     OW52738   0.809   7.911   4.460  0.2285  0.5798  0.4769
80338SOL    HW152739   0.855   7.990   4.489  1.6858  0.2697 -0.8828
80338SOL    HW252740   0.863   7.838   4.490  0.5957  0.2004 -1.0273
80339SOL     OW52741   3.515   2.049  11.720  0.0205  0.4036 -0.1665
80339SOL    HW152742   3.596   2.024  11.764  0.2974  0.2288 -0.7632
80339SOL    HW252743   3.449   2.053  11.790  0.3932 -0.1160  0.2186
80340SOL     OW52744  12.425   1.602   5.858  0.6912  0.2780  0.0326
80340SOL    HW152745  12.514   1.569   5.872  0.4915 -0.8676 -1.1863
80340SOL    HW252746  12.377   1.572   5.936  0.8929 -0.9851 -0.3084
80341SOL     OW52747   5.578  12.306   0.596 -0.2082 -0.0944  0.1979
80341SOL    HW152748   5.579  12.385   0.543  1.3914 -0.2929 -0.1298
80341SOL    HW252749   5.671  12.286   0.611 -0.5755 -1.7643  0.4708
80342SOL     OW52750  13.441  11.937  11.955  0.4914  0.1422  0.3665
80342SOL    HW152751  13.455  11.853  11.911 -2.0198 -0.7560  1.1100
80342SOL    HW252752  13.430  11.914  12.047 -2.4527  0.9312  0.3036
80343SOL     OW52753   2.129   7.137  11.553  0.6545  0.3234  0.3867
80343SOL    HW152754   2.134   7.050  11.514 -0.5148 -0.5652  2.0988
80343SOL    HW252755   2.220   7.160  11.574  1.1652  0.2855 -1.5618
80344SOL     OW52756   7.806   0.567   5.347  0.0474  0.4973 -0.1390
80344SOL    HW152757   7.830   0.519   5.426 -1.5885  2.4695  1.6703
80344SOL    HW252758   7.714   0.545   5.333  0.0004  1.0899 -0.8127
80345SOL     OW52759   7.045   9.363   0.004  0.0676  0.0859 -0.2502
80345SOL    HW152760   6.964   9.367  -0.047 -0.6520  0.1948  0.8562
80345SOL    HW252761   7.019   9.389   0.092  1.0025 -1.3233  0.4856
80346SOL     OW52762   0.957   0.335  10.785 -0.2640  0.0678  0.3403
80346SOL    HW152763   1.007   0.376  10.855  0.2713 -1.3702  0.8529
80346SOL    HW252764   0.867   0.332  10.818 -0.0300 -0.5126  0.9567
80347SOL     OW52765  12.434   9.488   4.258  0.2082 -0.4474  0.1321
80347SOL    HW152766  12.514   9.442   4.284  0.4430 -0.6106 -0.8398
80347SOL    HW252767  12.399   9.437   4.186  0.6391  1.0472 -1.1963
80348SOL     OW52768   3.680  13.389  10.582  0.2288  0.6086  0.1427
80348SOL    HW152769   3.737  13.424  10.652 -0.6725  2.0295  0.2113
80348SOL    HW252770   3.679  13.458  10.516 -0.4173  0.0556 -0.4360
80349SOL     OW52771   3.743   8.339   2.457  0.5688  0.5065 -0.2960
80349SOL    HW152772   3.694   8.343   2.375 -1.1444  0.7873  0.6959
80349SOL    HW252773   3.702   8.267   2.506  0.8846  1.0069  0.7295
80350SOL     OW52774   3.667   1.459   9.602  0.1326  0.0212  0.4775
80350SOL    HW152775   3.586   1.505   9.626 -1.1202 -1.7931 -0.0031
80350SOL    HW252776   3.637   1.391   9.540  1.9981 -0.8633  0.4969
80351SOL     OW52777   8.750   6.237   6.730 -0.1991  0.5347 -0.0424
80351SOL    HW152778   8.708   6.202   6.809  0.4898  0.8791  0.4865
80351SOL    HW252779   8.679   6.282   6.683 -1.0490 -1.2579 -0.5947
80352SOL     OW52780   8.090   7.940  10.622  0.9890  0.4776 -0.8435
80352SOL    HW152781   8.060   8.001  10.556 -0.9135  2.0566  1.3603
80352SOL    HW252782   8.119   7.995  10.695  0.0252 -1.1787  0.8782
80353SOL     OW52783  10.203   3.371  11.111 -0.3782  0.6135 -0.7364
80353SOL    HW152784  10.109   3.357  11.118 -0.0573 -0.9079  1.7700
80353SOL    HW252785  10.224   3.430  11.183  1.0377 -2.1623  1.2881
80354SOL     OW52786   8.343   5.841  13.207 -0.6770  0.4872 -0.1817
80354SOL    HW152787   8.272   5.782  13.181 -0.3667  0.6530 -1.4989
80354SOL    HW252788   8.423   5.790  13.194 -0.4179  1.1065 -1.1626
80355SOL     OW52789   1.006   9.490  10.404 -0.3813 -0.4801  0.5806
80355SOL    HW152790   1.101   9.502  10.410 -0.4491 -0.2976  1.5332
80355SOL    HW252791   0.985   9.428  10.474 -1.0191 -0.1911  0.6529
80356SOL     OW52792   1.468   2.951   4.512 -0.2110  0.0445  0.5278
80356SOL    HW152793   1.437   3.041   4.508 -0.2148 -0.0043 -0.9834
80356SOL    HW252794   1.518   2.939   4.432  2.0684 -0.5024  1.9580
80357SOL     OW52795   9.631   2.059   8.845 -0.1794 -0.0970  0.1503
80357SOL    HW152796   9.565   2.127   8.857 -2.5529 -1.6963 -2.3434
80357SOL    HW252797   9.627   2.007   8.925 -1.1676  0.4941  0.5060
80358SOL     OW52798   7.678   1.975   6.429 -0.0323  0.2427  0.2736
80358SOL    HW152799   7.591   1.987   6.467 -0.6555 -0.8905 -0.7297
80358SOL    HW252800   7.681   2.037   6.356 -1.1117 -1.5776 -1.4216
80359SOL     OW52801  12.545   0.652  12.591  0.5884 -0.5749  0.4122
80359SOL    HW152802  12.549   0.618  12.502  1.2107  1.7565 -0.5327
80359SOL    HW252803  12.589   0.586  12.645 -0.2268 -2.2468 -0.9077
80360SOL     OW52804   6.734   9.115   3.475  0.6172  0.2290 -0.3747
80360SOL    HW152805   6.759   9.036   3.524 -0.2663  1.3264  2.0257
80360SOL    HW252806   6.669   9.085   3.412 -0.9926 -0.7822  1.6461
80361SOL     OW52807   1.624   5.721   4.359  0.3216 -0.2757 -0.0342
80361SOL    HW152808   1.562   5.774   4.308  0.1610 -0.8372 -0.4347
80361SOL    HW252809   1.584   5.633   4.360  1.4396 -0.8211 -0.8972
80362SOL     OW52810  12.344   1.548   4.092  0.2832 -0.1727 -0.6106
80362SOL    HW152811  12.346   1.556   3.997 -1.3098 -0.7826 -0.7158
80362SOL    HW252812  12.377   1.460   4.110 -0.6045 -0.5224 -0.6823
80363SOL     OW52813   0.824   8.215   7.585 -0.1559  0.3073  0.4944
80363SOL    HW152814   0.755   8.164   7.543  0.8799 -1.8554  1.2611
80363SOL    HW252815   0.903   8.163   7.572  0.8524  1.4146  1.8840
80364SOL     OW52816  13.219   2.640  13.696 -0.2234 -1.0758  0.0547
80364SOL    HW152817  13.201   2.560  13.745 -0.2082 -0.6018  0.8401
80364SOL    HW252818  13.139   2.691  13.704 -0.2550 -1.0322 -0.4988
80365SOL     OW52819   2.855   1.114   0.466  0.0176 -0.4488 -0.2834
80365SOL    HW152820   2.928   1.068   0.424  1.4670  1.2363  0.2758
80365SOL    HW252821   2.828   1.180   0.401  0.3100  0.2237  0.2704
80366SOL     OW52822   7.581   0.324   9.585 -0.0095  0.5904  0.6657
80366SOL    HW152823   7.631   0.403   9.569  1.5919 -0.5730 -0.4077
80366SOL    HW252824   7.536   0.307   9.503 -0.2424  0.3184  0.8450
80367SOL     OW52825  12.878   7.408   8.687  0.1630  0.2449  0.0184
80367SOL    HW152826  12.857   7.404   8.594 -0.4237 -1.9516  0.1740
80367SOL    HW252827  12.973   7.398   8.691 -0.0270 -2.3446 -0.3227
80368SOL     OW52828   4.409   3.183   3.614 -0.2807 -0.2537 -0.3020
80368SOL    HW152829   4.432   3.266   3.655 -1.6662  1.3797 -2.5997
80368SOL    HW252830   4.421   3.118   3.683 -0.7930  2.0509  2.1192
80369SOL     OW52831  12.568   9.419   0.652 -1.3083 -0.7238 -0.2418
80369SOL    HW152832  12.559   9.400   0.745 -0.0898 -0.3442 -0.0395
80369SOL    HW252833  12.583   9.334   0.612  0.7013 -0.6370  0.2404
80370SOL     OW52834  12.047  10.835   8.022 -0.6974 -0.2429  0.4112
80370SOL    HW152835  12.020  10.821   8.112 -0.6624 -0.0317  0.4524
80370SOL    HW252836  11.979  10.791   7.970 -0.0188 -1.5373  0.5701
80371SOL     OW52837  13.431   0.072   8.797 -0.2212 -0.2015 -0.4912
80371SOL    HW152838  13.355   0.017   8.817  0.5541 -1.0297  0.2753
80371SOL    HW252839  13.398   0.162   8.803 -1.5674 -0.5401 -1.9660
80372SOL     OW52840   2.508   0.831  13.019 -0.0657  0.3658 -0.9509
80372SOL    HW152841   2.555   0.761  13.064 -0.5121 -0.5766 -1.9348
80372SOL    HW252842   2.554   0.841  12.936  0.2724  1.5644 -0.6450
80373SOL     OW52843  10.403  10.180   4.879  0.7979  0.1944  0.0405
80373SOL    HW152844  10.441  10.130   4.951  1.8094 -0.3666 -0.8432
80373SOL    HW252845  10.348  10.246   4.921 -0.0895 -1.2591  1.2727
80374SOL     OW52846  10.891   8.376   8.281 -0.2932  0.4547 -0.0553
80374SOL    HW152847  10.912   8.284   8.299  1.2129  0.9673  1.0474
80374SOL    HW252848  10.836   8.374   8.203 -0.8823 -1.4271  0.3651
80375SOL     OW52849   6.821   0.231   8.956 -0.2658  0.1046  0.0545
80375SOL    HW152850   6.741   0.236   8.904 -0.2211  0.6159  0.0240
80375SOL    HW252851   6.842   0.138   8.959 -0.0894  0.0915 -1.1194
80376SOL     OW52852  10.969  11.412   7.382 -0.0021  0.0453  0.0819
80376SOL    HW152853  10.951  11.452   7.467  0.7189 -0.8571  0.6809
80376SOL    HW252854  10.914  11.333   7.380 -1.1186  0.8024 -0.9245
80377SOL     OW52855   8.607  10.287   8.409  0.1451 -0.2421 -0.0416
80377SOL    HW152856   8.697  10.296   8.440  0.4569 -0.3559 -0.8892
80377SOL    HW252857   8.615  10.248   8.322 -0.6953  0.3474 -0.4001
80378SOL     OW52858  13.155  11.425   3.714  0.0939  0.0533  0.0605
80378SOL    HW152859  13.198  11.340   3.719  0.3297  0.1895  0.3696
80378SOL    HW252860  13.200  11.472   3.644 -0.1686 -0.1471 -0.2469
80379SOL     OW52861   1.409   4.387  12.313 -0.1016 -0.1365  0.2246
80379SOL    HW152862   1.372   4.447  12.379 -1.1854  1.1321 -1.4513
80379SOL    HW252863   1.488   4.432  12.282 -0.0002 -0.3827  0.1250
80380SOL     OW52864   3.864  12.771   9.872 -0.1736 -0.4071  0.4855
80380SOL    HW152865   3.839  12.851   9.824  1.8237 -0.2817 -0.4171
80380SOL    HW252866   3.935  12.799   9.930  0.7672 -1.5901 -0.0724
80381SOL     OW52867   1.714  11.840  13.214  0.0864 -0.1523  0.1906
80381SOL    HW152868   1.766  11.920  13.204  1.2069 -0.9873 -0.8930
80381SOL    HW252869   1.628  11.872  13.241  0.6351  1.3906  0.2440
80382SOL     OW52870  13.430   9.709   0.465 -0.3493 -0.0576  0.1042
80382SOL    HW152871  13.445   9.750   0.551 -0.0694  0.0022  0.0277
80382SOL    HW252872  13.465   9.773   0.402 -0.2037 -0.2729 -0.0337
80383SOL     OW52873   6.854   6.092  12.752  0.0804 -0.2512  0.1867
80383SOL    HW152874   6.833   6.182  12.778  0.4282  0.0549 -0.5469
80383SOL    HW252875   6.949   6.093  12.740 -0.1938  0.1410 -2.8063
80384SOL     OW52876   6.274  11.182  11.392  0.5809  0.6875 -0.4324
80384SOL    HW152877   6.332  11.130  11.337 -0.1536  2.5264 -3.1309
80384SOL    HW252878   6.324  11.197  11.472  1.6485 -2.2295 -0.4113
80385SOL     OW52879   2.928   8.188   9.599  0.0632  0.1296 -0.1561
80385SOL    HW152880   2.924   8.284   9.606 -2.3639  0.2354 -1.8280
80385SOL    HW252881   2.996   8.172   9.533 -1.8006  0.9452 -2.3866
80386SOL     OW52882   3.108   6.066  10.653  0.0890 -0.2085  1.3188
80386SOL    HW152883   3.155   5.992  10.693  0.1242  0.2531  2.1621
80386SOL    HW252884   3.069   6.030  10.573  1.1939 -0.8010  1.0341
80387SOL     OW52885   4.566   2.187  13.436  0.0498  0.5138 -0.1299
80387SOL    HW152886   4.658   2.168  13.457 -0.8344 -1.0831  2.8399
80387SOL    HW252887   4.559   2.172  13.341  2.3350 -1.6284 -0.0469
80388SOL     OW52888   3.893   1.504   9.763 -0.0657  0.3443 -0.6553
80388SOL    HW152889   3.891   1.575   9.698 -1.6210  2.4665  1.5092
80388SOL    HW252890   3.831   1.440   9.731  0.5818  0.4383 -2.1635
80389SOL     OW52891   4.021   2.593   9.051  0.2246 -0.2829  0.3654
80389SOL    HW152892   4.020   2.557   9.139  0.2619 -0.7261  0.1883
80389SOL    HW252893   4.033   2.687   9.063 -0.3166 -0.2742  0.8476
80390SOL     OW52894   1.383   3.238  12.610 -0.3966 -0.0283 -0.0302
80390SOL    HW152895   1.325   3.248  12.534 -0.2731 -0.4746 -0.1833
80390SOL    HW252896   1.421   3.151  12.601  1.0226  0.6083 -0.4262
80391SOL     OW52897  11.758   5.306   5.482 -0.1112 -0.2058 -0.0173
80391SOL    HW152898  11.742   5.259   5.563  0.8214  0.7427  0.7366
80391SOL    HW252899  11.694   5.270   5.420 -0.8053 -0.9592  1.1185
80392SOL     OW52900   4.464   0.063  11.866  0.1093 -0.3692 -0.2276
80392SOL    HW152901   4.393   0.000  11.856  0.0918 -0.5140  0.7066
80392SOL    HW252902   4.543   0.011  11.853  0.0704 -0.3825 -0.4173
80393SOL     OW52903   1.222   9.748  12.487  0.6793 -0.4020 -0.8045
80393SOL    HW152904   1.171   9.722  12.564  0.1855  0.0106 -0.9888
80393SOL    HW252905   1.305   9.701  12.496  0.4869 -0.6316 -0.2048
80394SOL     OW52906  11.681   2.119   0.952 -0.1077  0.1534  0.1561
80394SOL    HW152907  11.660   2.111   0.858  0.7001  0.7198 -0.0741
80394SOL    HW252908  11.710   2.031   0.977 -0.5570 -0.0636 -0.0564
80395SOL     OW52909   9.168   5.580   8.091 -0.2478  0.1235 -0.1113
80395SOL    HW152910   9.146   5.545   8.177 -0.6422  0.3766 -0.1072
80395SOL    HW252911   9.090   5.629   8.064 -0.5228 -0.7866 -1.0551
80396SOL     OW52912   2.104  11.150   1.767  0.2720  0.3412  0.0122
80396SOL    HW152913   2.163  11.105   1.827 -0.6505 -1.7288 -0.5249
80396SOL    HW252914   2.022  11.159   1.816  0.6388  2.1781  0.3634
80397SOL     OW52915   3.325   7.469  10.986  0.3792 -0.0263  0.0297
80397SOL    HW152916   3.245   7.505  10.947  0.3776 -0.4771 -0.3882
80397SOL    HW252917   3.300   7.382  11.016  0.5793  0.0326  0.3749
80398SOL     OW52918   9.923   6.029   7.284 -0.6011 -0.2322  0.2099
80398SOL    HW152919  10.008   6.020   7.327  0.2729  0.4218 -1.2692
80398SOL    HW252920   9.934   6.105   7.226 -2.3282  0.1008  0.2666
80399SOL     OW52921   4.485   9.509   1.547  0.1148 -0.0780  0.1212
80399SOL    HW152922   4.466   9.443   1.480 -0.0452 -0.3168  0.4005
80399SOL    HW252923   4.578   9.498   1.565  0.3122  0.4377 -0.5437
80400SOL     OW52924   4.358  10.170   3.380 -0.1514  0.7164  0.3526
80400SOL    HW152925   4.391  10.205   3.463  0.2083  0.2619  0.4071
80400SOL    HW252926   4.384  10.235   3.314  1.2802  0.1597  0.3279
80401SOL     OW52927   8.721   0.839   5.835 -0.2584 -0.4141  0.0536
80401SOL    HW152928   8.638   0.851   5.880 -0.9866 -0.0476 -1.3357
80401SOL    HW252929   8.701   0.853   5.743  1.6068  1.0081 -0.1881
80402SOL     OW52930   1.618   6.158   4.983 -0.1208  0.6326 -1.3115
80402SOL    HW152931   1.579   6.245   4.990 -1.9768 -0.1068 -1.9603
80402SOL    HW252932   1.588   6.124   4.899 -1.6563 -1.6312  0.0182
80403SOL     OW52933  10.529   5.027  11.665  0.4569  0.4203 -0.3646
80403SOL    HW152934  10.604   5.082  11.688  1.3393 -1.2623  1.0134
80403SOL    HW252935  10.527   4.960  11.733 -2.9070  0.9456  0.1947
80404SOL     OW52936   6.904   8.718   1.469  0.1393  0.1820 -0.2340
80404SOL    HW152937   6.925   8.779   1.398  0.7011  0.5647  0.2526
80404SOL    HW252938   6.858   8.772   1.534 -1.7565 -0.4829 -0.9450
80405SOL     OW52939   9.769   2.688   6.510  0.2182  0.2720  0.2917
80405SOL    HW152940   9.727   2.621   6.563  1.5951 -2.2925 -1.5977
80405SOL    HW252941   9.855   2.700   6.551  0.4295 -0.0474 -0.0493
80406SOL     OW52942   8.646   2.093   2.228  1.2499 -0.8152 -0.3038
80406SOL    HW152943   8.603   2.074   2.311 -2.0689 -0.9572 -1.8653
80406SOL    HW252944   8.677   2.183   2.236  1.6067 -1.0640  1.2913
80407SOL     OW52945   2.556   6.576   6.982  0.3938  0.7477  0.1773
80407SOL    HW152946   2.650   6.560   6.980  0.1588 -0.6708 -0.9025
80407SOL    HW252947   2.530   6.552   7.071  1.1392  1.7776  0.6869
80408SOL     OW52948   3.966  11.146   3.729  0.1297  0.7777  0.3282
80408SOL    HW152949   3.907  11.173   3.799  0.1305  0.7405  0.3430
80408SOL    HW252950   3.945  11.204   3.656 -1.8627 -1.0008 -0.6343
80409SOL     OW52951  10.433   4.124   7.636 -0.0453 -0.2602  0.3500
80409SOL    HW152952  10.484   4.067   7.694 -1.3722 -1.5085  0.3470
80409SOL    HW252953  10.485   4.130   7.556  0.9053 -0.0763  0.9676
80410SOL     OW52954   5.713  11.411   2.927 -0.1041 -0.5087  0.5218
80410SOL    HW152955   5.652  11.439   2.995  0.7523  0.8814  0.7689
80410SOL    HW252956   5.760  11.338   2.966  0.4840  0.3720  1.5387
80411SOL     OW52957   5.940  10.016   2.775  0.2215  0.0437 -0.2901
80411SOL    HW152958   6.001   9.980   2.711  0.8924 -0.0244  0.3827
80411SOL    HW252959   5.966   9.977   2.858  0.9264  1.9861  0.4540
80412SOL     OW52960  12.838   8.800   3.882  0.1412 -0.0443 -0.2564
80412SOL    HW152961  12.897   8.791   3.808  0.2080 -2.3982 -0.0051
80412SOL    HW252962  12.755   8.763   3.851 -0.0366 -0.3877  0.5857
80413SOL     OW52963   8.491   1.530  11.404 -0.0143  0.0224 -0.6262
80413SOL    HW152964   8.497   1.594  11.475  1.8102 -0.7848  0.0112
80413SOL    HW252965   8.536   1.571  11.330  0.4606 -0.1780 -0.4575
80414SOL     OW52966   5.214   0.404   6.330  0.3976  0.0411 -0.1735
80414SOL    HW152967   5.174   0.374   6.248  1.2443 -2.7298  0.3205
80414SOL    HW252968   5.150   0.383   6.397  0.1652  1.2984  0.0200
80415SOL     OW52969   3.158   2.367   4.904  0.3044 -0.2777 -0.1276
80415SOL    HW152970   3.224   2.424   4.942  1.0948  0.2190 -2.0901
80415SOL    HW252971   3.193   2.344   4.818 -0.8997 -2.1529 -0.1687
80416SOL     OW52972   7.338  12.742   7.264 -0.4173  0.0311  0.4829
80416SOL    HW152973   7.248  12.774   7.266 -0.1306  0.8221  1.0788
80416SOL    HW252974   7.338  12.664   7.320 -1.1796 -1.2272 -1.1973
80417SOL     OW52975   2.837   7.266   5.698  0.6268 -0.8650  0.2158
80417SOL    HW152976   2.762   7.254   5.639  0.4238  1.8769 -0.2384
80417SOL    HW252977   2.846   7.183   5.743 -2.2640 -1.5321 -0.2340
80418SOL     OW52978   0.125   5.901  13.218 -0.8822  0.1001 -0.5989
80418SOL    HW152979   0.059   5.843  13.181 -0.8954 -1.1882  1.2829
80418SOL    HW252980   0.090   5.925  13.304  2.7085 -4.0570  2.4406
80419SOL     OW52981   8.273   9.972   2.117  0.8631 -0.0243  0.4896
80419SOL    HW152982   8.304   9.967   2.208  1.8798  0.2049  0.1737
80419SOL    HW252983   8.316   9.899   2.073 -0.4754 -0.7958  0.4084
80420SOL     OW52984   6.415   4.323   0.653 -0.1510 -0.6445  0.6588
80420SOL    HW152985   6.350   4.297   0.587  1.4057  0.1776 -1.2962
80420SOL    HW252986   6.477   4.251   0.655  0.9991  0.2646 -0.4728
80421SOL     OW52987  12.503   2.609   8.155  0.0385  0.6524 -0.4108
80421SOL    HW152988  12.482   2.698   8.129 -0.0710  0.0749 -2.4887
80421SOL    HW252989  12.419   2.572   8.185 -0.5442  0.4575 -2.1474
80422SOL     OW52990   2.279   4.226  12.390  0.8356 -0.3220  0.0358
80422SOL    HW152991   2.272   4.217  12.485  0.8862 -1.1745 -0.0332
80422SOL    HW252992   2.330   4.151  12.363  1.6879  0.4574 -0.5669
80423SOL     OW52993   9.149   5.772  12.985 -0.3567  0.1105 -0.1249
80423SOL    HW152994   9.189   5.708  12.926 -1.8174  0.3241 -1.3937
80423SOL    HW252995   9.072   5.728  13.021 -1.2324  1.0263 -0.8080
80424SOL     OW52996   5.774  10.586   0.733  0.6410  0.5063 -0.1681
80424SOL    HW152997   5.834  10.532   0.783  0.7026  0.6509 -0.0862
80424SOL    HW252998   5.822  10.611   0.654  0.4389  0.0274 -0.4471
80425SOL     OW52999   8.763   2.142  13.319  0.0113 -0.0994 -0.1426
80425SOL    HW153000   8.761   2.170  13.227 -1.3015  0.9697  0.1853
80425SOL    HW253001   8.680   2.171  13.355  0.5475 -0.4060  1.4299
80426SOL     OW53002   8.494   2.456   1.380 -0.1776 -0.4183  0.0043
80426SOL    HW153003   8.555   2.451   1.306  0.0543 -0.2099  0.1810
80426SOL    HW253004   8.491   2.367   1.414 -0.4331 -0.5586 -0.3720
80427SOL     OW53005   9.521  12.679   3.705  0.2625  0.6286  0.1783
80427SOL    HW153006   9.447  12.737   3.688  0.8244  1.1772 -0.4780
80427SOL    HW253007   9.573  12.726   3.771  0.4245  0.6154  0.0613
80428SOL     OW53008   2.728   3.332  12.903  1.0696 -0.1857  0.7116
80428SOL    HW153009   2.687   3.281  12.834 -0.7936  1.2889  0.6474
80428SOL    HW253010   2.672   3.320  12.980  1.5998  0.3264  1.2030
80429SOL     OW53011   1.255  10.894  12.766  0.3033 -0.9445  0.3616
80429SOL    HW153012   1.333  10.945  12.788  0.6851 -1.1129 -0.5546
80429SOL    HW253013   1.182  10.948  12.794  0.7536 -1.3678  2.4848
80430SOL     OW53014  10.818  12.554   4.101  0.0519 -0.4406  0.3407
80430SOL    HW153015  10.740  12.526   4.150  0.3855  1.1649  1.8719
80430SOL    HW253016  10.876  12.592   4.167  0.1435  2.7152 -1.3478
80431SOL     OW53017   9.417   3.837   0.312  0.3479  0.3748  0.2138
80431SOL    HW153018   9.395   3.748   0.341  0.3897 -0.1133 -1.1857
80431SOL    HW253019   9.500   3.827   0.266 -1.5787  0.2946 -3.6600
80432SOL     OW53020  12.800   3.837  10.615 -0.0044  0.4229 -0.4847
80432SOL    HW153021  12.776   3.771  10.549  0.2636 -0.3473  0.1651
80432SOL    HW253022  12.803   3.919  10.567  2.1211 -0.3909 -1.9043
80433SOL     OW53023   0.011   8.188   1.379 -0.3936  0.0811 -0.3705
80433SOL    HW153024   0.027   8.207   1.472  1.2193  3.1232 -1.1259
80433SOL    HW253025  -0.073   8.228   1.360 -0.2343  0.3888 -0.4350
80434SOL     OW53026   7.667   7.494  13.292  0.0626 -0.2628  0.2365
80434SOL    HW153027   7.630   7.455  13.372  0.2283 -1.1977 -0.1408
80434SOL    HW253028   7.751   7.530  13.321  0.3487 -1.0270  0.3924
80435SOL     OW53029  12.381   1.100   4.023  0.2824 -0.6425  0.0499
80435SOL    HW153030  12.420   1.033   4.079  2.1828 -0.9971 -1.5864
80435SOL    HW253031  12.431   1.180   4.043  2.0004 -1.0907 -2.0286
80436SOL     OW53032   6.370  10.910  10.329  0.1376 -0.2933  0.6038
80436SOL    HW153033   6.378  11.005  10.318  2.1687 -0.5448 -0.3675
80436SOL    HW253034   6.305  10.900  10.399 -0.4147  1.7831  0.4517
80437SOL     OW53035   6.234  11.930   7.340  0.6539 -0.3811  0.0510
80437SOL    HW153036   6.241  11.913   7.434 -0.4363 -0.3556  0.1485
80437SOL    HW253037   6.215  11.845   7.301 -3.7391  0.1867  0.4279
80438SOL     OW53038   4.854   3.619   7.559  0.7776  0.2677  0.3728
80438SOL    HW153039   4.930   3.592   7.508  0.4555 -0.7312  0.3873
80438SOL    HW253040   4.806   3.679   7.502  0.3540 -0.9265 -0.5693
80439SOL     OW53041  10.542   4.798   8.234  0.7927  0.3376  0.0654
80439SOL    HW153042  10.557   4.738   8.161 -0.6937 -1.0459  0.8385
80439SOL    HW253043  10.510   4.742   8.304  2.8237  1.5048  2.0596
80440SOL     OW53044  13.616   1.376   7.626 -0.2725  0.1753  0.2003
80440SOL    HW153045  13.660   1.457   7.653  3.1918 -1.3365 -0.3617
80440SOL    HW253046  13.631   1.316   7.699  1.2217 -1.2200 -1.1646
80441SOL     OW53047   8.648   1.587  11.881 -0.1636  0.4007 -0.0122
80441SOL    HW153048   8.724   1.605  11.827  0.5980  0.5475  1.0701
80441SOL    HW253049   8.679   1.599  11.971 -1.1939 -0.5350  0.4958
80442SOL     OW53050   7.399   3.855   6.157 -0.4363  0.7743  0.3407
80442SOL    HW153051   7.418   3.811   6.240  0.5240  0.4179 -0.0451
80442SOL    HW253052   7.485   3.878   6.123 -0.6339 -1.0277 -1.5952
80443SOL     OW53053  12.550  13.236   8.715 -0.0474 -0.4740 -0.2823
80443SOL    HW153054  12.537  13.262   8.806  1.1572 -1.0032  0.0614
80443SOL    HW253055  12.538  13.141   8.716 -0.9115 -0.3795 -0.8555
80444SOL     OW53056   2.483   3.681   8.285 -0.4115 -0.1063 -0.3314
80444SOL    HW153057   2.570   3.640   8.284 -0.5131 -0.3171 -0.6434
80444SOL    HW253058   2.456   3.678   8.376  0.4210  1.0457 -0.0181
80445SOL     OW53059   2.152  10.085   0.244 -0.0738 -0.6369  0.0799
80445SOL    HW153060   2.111  10.162   0.283  0.7331  0.0439 -0.3813
80445SOL    HW253061   2.085  10.048   0.187 -0.5033 -0.3462  0.3906
80446SOL     OW53062   0.183   5.278  12.854  0.2516  0.7421  0.3691
80446SOL    HW153063   0.256   5.336  12.877  2.3397 -1.6421  0.2994
80446SOL    HW253064   0.152   5.310  12.770  0.3070  2.5960  1.0071
80447SOL     OW53065   0.599  10.334   9.611 -0.2100 -0.0712  0.1744
80447SOL    HW153066   0.557  10.394   9.673 -0.3440  1.5547 -1.4223
80447SOL    HW253067   0.533  10.319   9.543  0.9763  0.7480 -1.2106
80448SOL     OW53068  10.686   2.272   1.643 -0.4885  0.7573 -0.0904
80448SOL    HW153069  10.775   2.302   1.663  0.2013 -0.6532 -0.8462
80448SOL    HW253070  10.656   2.231   1.724  0.0556  0.1374 -0.1909
80449SOL     OW53071  10.602   3.884   4.939 -0.3217 -0.6319 -0.3430
80449SOL    HW153072  10.570   3.973   4.952  0.0526 -0.1540 -2.3270
80449SOL    HW253073  10.672   3.874   5.003 -1.0461  0.1146  0.5948
80450SOL     OW53074   3.702   7.987   3.232 -0.7523 -0.4414 -0.4550
80450SOL    HW153075   3.779   7.956   3.280  0.2766 -0.0860 -1.8280
80450SOL    HW253076   3.643   8.019   3.300  0.7795  0.3311  0.5608
80451SOL     OW53077   9.683  11.693   4.626 -0.1690  0.7194  0.0853
80451SOL    HW153078   9.750  11.677   4.693 -1.9786 -1.4807  1.5162
80451SOL    HW253079   9.602  11.702   4.675 -1.5586 -0.9401 -1.7840
80452SOL     OW53080   9.498   3.513   2.528  0.0416  0.1797 -0.0896
80452SOL    HW153081   9.525   3.450   2.595 -0.2761  1.3759  1.2276
80452SOL    HW253082   9.407   3.533   2.550 -1.0628 -1.5592 -2.6725
80453SOL     OW53083   8.485   1.163  13.334  0.2066 -0.3635  0.1573
80453SOL    HW153084   8.527   1.093  13.383  0.5069 -1.7543 -1.9546
80453SOL    HW253085   8.555   1.225  13.315  0.2627 -0.2463  0.7405
80454SOL     OW53086   7.624  12.565   4.326  0.0097  0.1221 -0.5539
80454SOL    HW153087   7.597  12.572   4.417 -1.1635  0.7237 -0.9229
80454SOL    HW253088   7.714  12.532   4.329  0.3405  1.0958  0.8492
80455SOL     OW53089   3.303   5.182  13.221  0.1696  0.0402 -0.3076
80455SOL    HW153090   3.393   5.148  13.214  0.2668  0.3046 -0.3578
80455SOL    HW253091   3.248   5.104  13.219  0.3658 -0.0878 -0.9655
80456SOL     OW53092  10.123   1.596  11.312 -0.2455  0.3934 -0.1607
80456SOL    HW153093  10.194   1.541  11.280 -0.9303 -0.6662  0.1014
80456SOL    HW253094  10.165   1.678  11.337  1.0018 -0.4696  0.6616
80457SOL     OW53095   9.483  11.316  13.409  0.1967 -0.2953 -0.2509
80457SOL    HW153096   9.393  11.342  13.429  0.6130  0.8775  0.2021
80457SOL    HW253097   9.528  11.319  13.493  1.4410  2.4661 -0.9143
80458SOL     OW53098  12.772   4.062   0.330  0.2887 -0.3719  0.1143
80458SOL    HW153099  12.786   4.153   0.302  1.8061 -0.2723  1.1121
80458SOL    HW253100  12.691   4.065   0.381  0.0280  0.3070 -0.3154
80459SOL     OW53101  10.385   4.581  11.874 -0.2406 -0.0668  0.0174
80459SOL    HW153102  10.405   4.533  11.954 -0.5195  0.2596  0.2888
80459SOL    HW253103  10.290   4.572  11.864 -0.4557  1.2450  0.6197
80460SOL     OW53104  12.955   1.125  10.764 -0.1273  0.0449 -0.1093
80460SOL    HW153105  12.917   1.158  10.845  1.7726  2.5232 -0.0990
80460SOL    HW253106  13.043   1.163  10.762  0.5075 -1.3385 -2.5191
80461SOL     OW53107  11.493  11.356   7.054 -0.1758 -0.2089 -0.1464
80461SOL    HW153108  11.456  11.329   6.970  0.0874 -0.3106 -0.2311
80461SOL    HW253109  11.470  11.448   7.062  1.1568  0.2373 -1.0773
80462SOL     OW53110  12.227   2.502   1.233 -0.3686  0.1430 -0.0915
80462SOL    HW153111  12.273   2.418   1.237  2.9807  1.9063  2.3010
80462SOL    HW253112  12.276   2.554   1.169  1.0102  2.0059  2.3474
80463SOL     OW53113   1.693  10.278   1.353 -0.1024  0.3371  0.6777
80463SOL    HW153114   1.788  10.279   1.340 -0.1036 -0.4973  0.5041
80463SOL    HW253115   1.675  10.354   1.407  0.6049  0.7951  0.2853
80464SOL     OW53116   9.767   5.800   4.873  0.1182 -0.4044  0.2702
80464SOL    HW153117   9.788   5.741   4.800 -0.6583 -0.6556  0.2406
80464SOL    HW253118   9.815   5.764   4.947 -0.1342 -0.9198  0.1864
80465SOL     OW53119   9.850  11.787   3.635 -0.3056 -0.9366  0.0502
80465SOL    HW153120   9.774  11.764   3.689 -0.6000 -1.0482 -0.3984
80465SOL    HW253121   9.896  11.854   3.685 -1.6173  0.3610 -0.3997
80466SOL     OW53122  11.255  13.204  13.277  0.1151 -0.3970 -0.0504
80466SOL    HW153123  11.248  13.165  13.363 -1.9126 -1.5201 -0.6571
80466SOL    HW253124  11.344  13.240  13.273  0.6802 -1.4732  1.9864
80467SOL     OW53125   3.346   2.855  12.712 -0.0918 -0.0713 -0.1162
80467SOL    HW153126   3.291   2.917  12.760  0.5632  0.5551 -0.1604
80467SOL    HW253127   3.403   2.911  12.658  0.8348 -0.6934  0.1987
80468SOL     OW53128  11.216   7.103   1.835 -0.3326 -0.0834  0.3135
80468SOL    HW153129  11.267   7.038   1.884 -1.4854 -0.7303  0.7036
80468SOL    HW253130  11.140   7.054   1.804 -0.4162  0.7100 -0.7771
80469SOL     OW53131   3.405   8.796   8.702  0.6533  0.4308 -0.6047
80469SOL    HW153132   3.342   8.748   8.755  0.9553  0.0237 -0.6085
80469SOL    HW253133   3.465   8.835   8.767  1.4649 -0.6794 -0.6538
80470SOL     OW53134   5.153   5.896   2.766 -0.4021 -0.2722  0.6067
80470SOL    HW153135   5.117   5.968   2.817  1.0628  1.4020 -0.5755
80470SOL    HW253136   5.099   5.891   2.687 -1.0964 -1.1428  1.1249
80471SOL     OW53137   6.169   1.947   4.649  0.0115 -0.2192  0.0113
80471SOL    HW153138   6.118   1.871   4.623 -1.1000  1.1619 -2.1247
80471SOL    HW253139   6.247   1.910   4.691 -0.1427 -2.5454 -1.5735
80472SOL     OW53140   1.578   2.689   1.981  0.1793  0.6880 -0.4660
80472SOL    HW153141   1.529   2.734   2.050  1.7737  0.0190  1.2348
80472SOL    HW253142   1.517   2.624   1.945  0.1628 -1.3707  2.7977
80473SOL     OW53143   0.241  11.555   5.645 -0.0312 -0.0563  0.4884
80473SOL    HW153144   0.295  11.477   5.644  0.6792  0.4004  1.3218
80473SOL    HW253145   0.298  11.624   5.680 -1.1007  0.4742  1.2678
80474SOL     OW53146   8.970   8.308   0.113  0.3323 -0.0110  0.1241
80474SOL    HW153147   8.900   8.326   0.051 -0.7488 -0.2929  1.2342
80474SOL    HW253148   9.004   8.223   0.087 -0.1052 -0.1214 -0.0896
80475SOL     OW53149   0.781   1.120   5.755  0.1654 -0.2128  0.2974
80475SOL    HW153150   0.870   1.100   5.785 -0.0241 -1.6832 -0.0380
80475SOL    HW253151   0.789   1.132   5.661  0.0295 -0.1629  0.2918
80476SOL     OW53152   5.459   1.394   8.268  0.1313 -0.1141 -0.0638
80476SOL    HW153153   5.476   1.370   8.359 -0.8440 -1.7158 -0.2571
80476SOL    HW253154   5.538   1.439   8.240  0.3346  0.6853  1.6540
80477SOL     OW53155   4.765   0.260   7.683 -0.0243 -0.4404 -0.1396
80477SOL    HW153156   4.698   0.273   7.750 -1.2339 -2.2831 -0.8999
80477SOL    HW253157   4.767   0.342   7.634 -0.2978  0.3324  1.1088
80478SOL     OW53158  12.810   9.364   3.222  0.4097  0.5073  0.4259
80478SOL    HW153159  12.746   9.364   3.293 -0.7154 -0.9315 -0.5218
80478SOL    HW253160  12.895   9.363   3.267 -0.2599  0.0595  1.7594
80479SOL     OW53161   3.086   9.711   4.023  0.1036 -0.1956  0.1299
80479SOL    HW153162   3.091   9.697   3.929 -2.3134 -0.3670 -0.0394
80479SOL    HW253163   2.995   9.738   4.039  0.6108  0.4521  2.3374
80480SOL     OW53164   0.591   6.336  13.679 -0.4536 -0.2253 -0.3690
80480SOL    HW153165   0.571   6.370  13.592  2.6138 -0.7878 -1.3831
80480SOL    HW253166   0.631   6.251  13.664  0.9123  0.0227  1.5244
80481SOL     OW53167   8.134   1.033   6.031  0.0783  0.0418 -0.5352
80481SOL    HW153168   8.158   1.064   6.118 -1.1533 -0.6865  0.0898
80481SOL    HW253169   8.198   1.075   5.973  0.4455  1.1604  0.6116
80482SOL     OW53170   9.868  11.284   4.798  0.4368  0.0782 -0.2894
80482SOL    HW153171   9.842  11.303   4.888 -1.5791  1.1680 -1.0439
80482SOL    HW253172   9.792  11.241   4.759  1.0069  0.2767 -1.6900
80483SOL     OW53173  13.368   5.946  11.388 -0.5666 -0.2238 -0.0064
80483SOL    HW153174  13.331   5.861  11.413  0.3901 -0.2331  1.4492
80483SOL    HW253175  13.303   6.010  11.418  0.0512 -0.2995  1.5540
80484SOL     OW53176   2.534   4.737   8.528 -0.3158  0.1473 -0.4864
80484SOL    HW153177   2.503   4.766   8.442 -1.8318  1.6909  0.5275
80484SOL    HW253178   2.512   4.643   8.530  0.8506 -0.2056 -2.2181
80485SOL     OW53179   6.349  11.162   6.928  0.2985 -0.4477  0.0284
80485SOL    HW153180   6.392  11.080   6.955  1.0122 -0.8538 -2.1203
80485SOL    HW253181   6.374  11.172   6.836 -0.9761  1.4474 -0.1523
80486SOL     OW53182   3.348   7.408  11.851 -0.4916  0.0056 -0.0450
80486SOL    HW153183   3.386   7.321  11.844 -0.1940  0.0710  0.7199
80486SOL    HW253184   3.257   7.392  11.878 -0.8642 -0.1231 -1.3084
80487SOL     OW53185   0.992   1.620  11.745 -0.2629 -0.4657  0.2139
80487SOL    HW153186   0.970   1.544  11.798  0.9258  0.1239  1.6314
80487SOL    HW253187   1.087   1.620  11.741 -0.2672  0.6109 -0.2834
80488SOL     OW53188   8.586   8.512  13.552 -0.2252  0.4797  0.9403
80488SOL    HW153189   8.532   8.468  13.618 -3.0260  1.2147 -0.6488
80488SOL    HW253190   8.579   8.456  13.474  1.4375  0.5684  0.6964
80489SOL     OW53191   6.311  11.285  13.187 -0.0326 -0.5847 -0.1008
80489SOL    HW153192   6.395  11.256  13.223  0.9418  0.6782 -1.2600
80489SOL    HW253193   6.271  11.334  13.258 -0.4487 -2.3000  0.9264
80490SOL     OW53194   0.076   9.119   3.196 -0.1314 -0.5484 -0.2100
80490SOL    HW153195   0.162   9.141   3.159 -0.2552  0.6385  0.1629
80490SOL    HW253196   0.049   9.041   3.148  0.6116 -0.2172 -1.2190
80491SOL     OW53197  11.405   8.055   0.306  0.1613  0.5423  0.4905
80491SOL    HW153198  11.377   8.063   0.397  0.4991 -0.3581  0.6871
80491SOL    HW253199  11.454   8.136   0.289  0.0417  0.7503  1.0895
80492SOL     OW53200   0.969  12.678   9.566  0.1265 -0.1662  0.1460
80492SOL    HW153201   0.909  12.686   9.492  0.4331  1.1012  0.0056
80492SOL    HW253202   1.009  12.592   9.555 -0.6846 -0.4812 -0.4979
80493SOL     OW53203   4.118  12.665   1.605  0.0880 -0.1848  0.2595
80493SOL    HW153204   4.067  12.746   1.610  3.2404  2.0151 -0.2148
80493SOL    HW253205   4.178  12.679   1.532  0.2534 -3.3508 -0.3425
80494SOL     OW53206   9.487  10.350  10.133  0.3258 -0.4477  0.3403
80494SOL    HW153207   9.491  10.376  10.225  0.8198 -1.4359  0.6162
80494SOL    HW253208   9.575  10.317  10.114  0.1488 -0.5073 -0.4135
80495SOL     OW53209  12.866   5.958  12.665  0.2022 -0.2022 -0.0828
80495SOL    HW153210  12.957   5.966  12.695  0.3474  2.8447 -0.9163
80495SOL    HW253211  12.815   5.939  12.743  1.3579  0.1423  0.7756
80496SOL     OW53212   4.448   6.719   2.038  0.1241 -0.3664 -0.2740
80496SOL    HW153213   4.419   6.790   1.981 -0.6527 -1.1004 -0.8224
80496SOL    HW253214   4.373   6.700   2.093  0.5056 -0.4192  0.2387
80497SOL     OW53215  10.878   6.071   4.641 -0.2131  0.4388  0.1131
80497SOL    HW153216  10.943   6.138   4.623  0.9020 -0.7226 -0.3644
80497SOL    HW253217  10.922   6.009   4.699 -1.1535  0.0371  0.4200
80498SOL     OW53218  12.706   3.240   5.226 -0.1115  0.3003 -0.3301
80498SOL    HW153219  12.777   3.302   5.241  0.8952 -1.1237  1.1782
80498SOL    HW253220  12.629   3.295   5.212  0.9059  1.8807  0.0170
80499SOL     OW53221   1.211   1.578   0.036  0.0402 -0.3870  0.1519
80499SOL    HW153222   1.195   1.594  -0.057 -2.5922  1.7151  0.8402
80499SOL    HW253223   1.306   1.577   0.044  0.3346 -0.4963 -2.5305
80500SOL     OW53224   2.269   4.585   2.369  1.0475 -0.3654 -0.9534
80500SOL    HW153225   2.227   4.624   2.292 -1.0652  0.6637  0.5979
80500SOL    HW253226   2.313   4.507   2.336  0.6040  0.2948 -3.2615
80501SOL     OW53227   7.699   1.012   1.559  0.0740 -0.5877 -1.0607
80501SOL    HW153228   7.786   1.043   1.581 -0.2091 -1.0967  1.0033
80501SOL    HW253229   7.711   0.918   1.544  0.0682 -0.4492 -1.9365
80502SOL     OW53230  10.121  13.302   4.438 -0.0710  0.4547  0.0317
80502SOL    HW153231  10.204  13.335   4.405  0.5231 -0.7997  0.2438
80502SOL    HW253232  10.057  13.367   4.408  0.5957  0.0453 -2.5384
80503SOL     OW53233   4.288   9.181   9.308 -0.2506 -0.3259  0.0925
80503SOL    HW153234   4.377   9.210   9.325 -0.5259  0.1338  0.8038
80503SOL    HW253235   4.244   9.187   9.393 -1.2407  0.5032 -0.4512
80504SOL     OW53236  10.347   5.176  13.682 -0.1608  0.2357  0.5701
80504SOL    HW153237  10.322   5.084  13.671  0.5170  0.0063  0.9212
80504SOL    HW253238  10.274   5.214  13.730 -0.6279 -0.0219  0.0834
80505SOL     OW53239   4.142  13.371  11.517 -0.5409 -0.3901  0.7828
80505SOL    HW153240   4.187  13.455  11.528  0.4358 -0.8902  0.7934
80505SOL    HW253241   4.084  13.365  11.592  0.7856 -0.5618  1.8363
80506SOL     OW53242   7.501   6.166   0.964  0.2150 -0.2087 -0.2348
80506SOL    HW153243   7.422   6.217   0.981  1.3925  1.2191  1.3650
80506SOL    HW253244   7.500   6.097   1.032  0.2907 -0.2532 -0.2787
80507SOL     OW53245  10.705   8.073   2.268 -0.0952  0.6491 -0.1077
80507SOL    HW153246  10.760   8.110   2.338  0.0378  0.0847  0.0877
80507SOL    HW253247  10.623   8.122   2.274  0.5393  1.8204 -0.6992
80508SOL     OW53248   6.942   7.855  10.804  0.2153  0.4715 -0.2345
80508SOL    HW153249   6.941   7.884  10.713  0.0255 -0.7375 -0.6235
80508SOL    HW253250   6.963   7.935  10.854  2.0094  0.8098 -1.4471
80509SOL     OW53251  10.839   6.298  12.921  0.2453  0.1057 -0.3676
80509SOL    HW153252  10.838   6.204  12.937  1.5391  0.4890  2.4621
80509SOL    HW253253  10.880   6.307  12.835  0.8150 -1.8717 -0.3566
80510SOL     OW53254   6.660  11.531   9.967  0.0240 -0.3260 -1.0130
80510SOL    HW153255   6.650  11.616  10.010  0.9572 -1.3266  1.3012
80510SOL    HW253256   6.572  11.495   9.965  0.2321 -1.5314  3.0145
80511SOL     OW53257  10.061  11.404   5.097  0.3925  0.4344 -0.1378
80511SOL    HW153258  10.113  11.363   5.166 -0.9115 -1.4771 -0.2189
80511SOL    HW253259  10.110  11.386   5.017  0.3732 -0.0351 -0.0485
80512SOL     OW53260   1.533   3.561  13.130 -0.1098  0.3712 -0.4834
80512SOL    HW153261   1.619   3.533  13.099 -0.0230  0.8741 -0.7235
80512SOL    HW253262   1.549   3.647  13.169 -0.4933  0.4536 -0.4996
80513SOL     OW53263   3.291  10.436  11.713  0.4590  0.4716 -0.2401
80513SOL    HW153264   3.285  10.523  11.674  1.4072  0.8909  0.5112
80513SOL    HW253265   3.383  10.412  11.706  0.2080 -0.4908 -0.4491
80514SOL     OW53266  10.347   4.888   1.351  0.6205  0.6802  0.2012
80514SOL    HW153267  10.361   4.949   1.279 -0.8201 -0.6603 -1.2997
80514SOL    HW253268  10.319   4.943   1.424 -2.1340  1.8032 -1.5189
80515SOL     OW53269   4.455  11.122  13.199  0.0024 -0.1433 -0.1464
80515SOL    HW153270   4.456  11.027  13.202 -0.7922 -0.1548  0.0026
80515SOL    HW253271   4.454  11.143  13.106 -0.8852 -0.3076 -0.1810
80516SOL     OW53272   9.643   6.935   4.358  0.1084  0.3073 -0.0991
80516SOL    HW153273   9.719   6.960   4.305 -0.4227 -1.6532 -1.9184
80516SOL    HW253274   9.667   6.850   4.395 -1.3004 -0.4907 -0.9543
80517SOL     OW53275   5.721  10.905   4.693  0.0915  0.1866 -0.4712
80517SOL    HW153276   5.729  10.945   4.607  0.0864 -1.4218 -1.2611
80517SOL    HW253277   5.628  10.883   4.701  0.2723 -0.6589 -0.5516
80518SOL     OW53278  10.062   0.685   4.430  0.4763  0.4189  0.0167
80518SOL    HW153279  10.001   0.745   4.473  0.7742  0.2462  0.6962
80518SOL    HW253280  10.008   0.612   4.400  0.3186  0.3509  0.4601
80519SOL     OW53281   4.075   1.339   4.376 -0.1610  0.3323 -0.2608
80519SOL    HW153282   4.118   1.359   4.292 -0.2496  1.6891 -0.0005
80519SOL    HW253283   4.016   1.413   4.391 -0.8129 -0.3387  0.5743
80520SOL     OW53284   4.530   0.139   8.521  0.2313 -0.1074  0.0209
80520SOL    HW153285   4.487   0.193   8.587 -0.9569 -0.9400 -0.0337
80520SOL    HW253286   4.616   0.120   8.557  0.2723  0.9613  0.4982
80521SOL     OW53287   3.549   9.568  11.100 -0.3313  0.2998 -0.3878
80521SOL    HW153288   3.483   9.507  11.068  0.3444 -0.0734 -1.1162
80521SOL    HW253289   3.631   9.537  11.061 -0.2504  2.8637 -2.5246
80522SOL     OW53290  11.655   0.365   7.791  0.0898  0.2741  0.1463
80522SOL    HW153291  11.742   0.358   7.830 -0.0208  0.5659  0.4489
80522SOL    HW253292  11.656   0.301   7.719  0.0339 -0.8466  1.1057
80523SOL     OW53293   6.119   9.078   0.252  0.6249 -0.5142  0.1617
80523SOL    HW153294   6.024   9.075   0.246  0.5670 -1.5508  1.2100
80523SOL    HW253295   6.143   8.999   0.300  2.1261 -1.0068 -1.2824
80524SOL     OW53296  11.904   3.102   4.747  0.1989  0.4011 -0.5592
80524SOL    HW153297  11.977   3.134   4.695 -0.6653  1.5538 -1.1198
80524SOL    HW253298  11.848   3.179   4.759 -0.3611 -0.1948  0.8074
80525SOL     OW53299  11.834   5.455   4.659  0.2588 -0.1832  0.1925
80525SOL    HW153300  11.759   5.401   4.637 -0.3619  0.0875  1.5262
80525SOL    HW253301  11.897   5.439   4.589 -0.5687 -1.3372 -0.3179
80526SOL     OW53302   6.067  11.333   1.507 -0.3030 -0.6207  0.1424
80526SOL    HW153303   6.102  11.248   1.533  0.6241 -0.1812  0.3794
80526SOL    HW253304   5.999  11.313   1.442  2.0534 -1.4342 -2.2491
80527SOL     OW53305   1.122   0.902   4.435 -0.9994 -0.6738  0.3238
80527SOL    HW153306   1.164   0.901   4.520  1.1507  0.1778 -0.6685
80527SOL    HW253307   1.103   0.994   4.418 -1.4487 -0.8418 -0.1245
80528SOL     OW53308  10.692  11.922   3.711 -0.1509  0.3004 -0.0944
80528SOL    HW153309  10.622  11.862   3.685 -1.3738  0.6883  2.0268
80528SOL    HW253310  10.768  11.866   3.725 -0.8341 -0.5547  0.2743
80529SOL     OW53311   8.156   3.669   9.861  0.2192 -0.2113  0.0244
80529SOL    HW153312   8.157   3.678   9.957  1.4331  0.2233 -0.0105
80529SOL    HW253313   8.146   3.575   9.847  1.2488 -0.4342  0.6203
80530SOL     OW53314   4.572   1.863  11.853  0.0051  0.0651 -0.4257
80530SOL    HW153315   4.650   1.822  11.815  1.7480  1.7779  1.1010
80530SOL    HW253316   4.536   1.916  11.782  1.1995  0.5217 -0.7125
80531SOL     OW53317   6.254   4.329   3.449  0.0669  0.3157 -0.1535
80531SOL    HW153318   6.185   4.292   3.504  0.6985 -0.8095 -0.0935
80531SOL    HW253319   6.244   4.285   3.365 -1.1854  2.3479 -1.1647
80532SOL     OW53320   9.651  13.148   5.222 -0.3921 -0.4725  0.1374
80532SOL    HW153321   9.623  13.238   5.239 -1.5820 -0.7576 -0.1823
80532SOL    HW253322   9.569  13.100   5.207  0.2280 -1.5780  0.1539
80533SOL     OW53323   5.064   2.109  12.775  0.1574 -0.6984  0.1115
80533SOL    HW153324   5.064   2.148  12.863  3.1168  2.1944 -0.9467
80533SOL    HW253325   4.990   2.151  12.730  0.5178  0.2233  0.3524
80534SOL     OW53326   9.099   5.192   6.731 -0.1405  0.1214  0.0188
80534SOL    HW153327   9.067   5.173   6.643 -0.8232  0.0908  0.2711
80534SOL    HW253328   9.093   5.108   6.777  2.2238 -0.4030 -0.4930
80535SOL     OW53329   6.189  10.949   5.335  0.3749  0.7970 -0.4639
80535SOL    HW153330   6.278  10.945   5.298  0.8128  0.5286  0.5984
80535SOL    HW253331   6.132  10.925   5.262  1.2306  0.2266 -0.9595
80536SOL     OW53332   2.900   5.418   3.874  0.7255  0.5830  0.0731
80536SOL    HW153333   2.923   5.502   3.835  0.5900  0.7292  0.3053
80536SOL    HW253334   2.923   5.427   3.967 -0.6075  0.8881  0.4085
80537SOL     OW53335   9.702   6.425   8.489 -0.0792  0.1537 -0.0426
80537SOL    HW153336   9.751   6.354   8.531 -3.2302 -2.8829 -1.0660
80537SOL    HW253337   9.667   6.476   8.562  0.9565 -0.2536  0.7653
80538SOL     OW53338   5.507   0.541   5.819  0.0474  0.2397  0.2371
80538SOL    HW153339   5.470   0.588   5.894  0.9181  0.5792  0.4620
80538SOL    HW253340   5.599   0.526   5.843 -0.0601 -1.0576 -0.0833
80539SOL     OW53341  12.091   6.322  11.709 -0.1944 -0.6972 -0.0136
80539SOL    HW153342  12.047   6.383  11.769 -0.9694 -0.7666 -0.5047
80539SOL    HW253343  12.039   6.242  11.713 -0.0154 -0.8398 -0.4709
80540SOL     OW53344   8.869   1.868   0.838 -0.1701  0.0770  0.6707
80540SOL    HW153345   8.859   1.795   0.777 -1.0521  1.1517 -0.5201
80540SOL    HW253346   8.780   1.893   0.861  0.1327  0.6319  1.2708
80541SOL     OW53347   3.040   0.258   8.386  0.2753  0.8363  0.2010
80541SOL    HW153348   2.973   0.215   8.333  1.5007 -0.6216 -0.2330
80541SOL    HW253349   3.121   0.248   8.336  0.8819  2.3952  0.8008
80542SOL     OW53350  13.296   0.510  13.032 -0.7285 -0.4388 -0.2143
80542SOL    HW153351  13.364   0.574  13.053 -0.1871 -1.4176  1.1237
80542SOL    HW253352  13.265   0.536  12.945 -1.1113  2.1102  0.6073
80543SOL     OW53353   0.968   1.248   5.011  0.6380 -0.1313  0.0853
80543SOL    HW153354   0.970   1.265   5.105  3.2346  0.9974 -0.0778
80543SOL    HW253355   0.909   1.315   4.976 -0.1244 -0.3826  0.8569
80544SOL     OW53356  11.048   3.371  11.113 -0.7264  0.4993  0.1421
80544SOL    HW153357  11.144   3.373  11.112 -0.6512 -0.9318  1.6244
80544SOL    HW253358  11.024   3.326  11.032 -0.2761  2.5381 -1.2108
80545SOL     OW53359   7.099   2.325   9.379 -0.2702 -0.0542  0.1981
80545SOL    HW153360   7.056   2.357   9.458 -0.7211 -3.3105  1.4591
80545SOL    HW253361   7.175   2.276   9.412 -1.2269 -2.6670 -1.1654
80546SOL     OW53362  11.076   8.718   0.606  0.8288  0.3016 -0.4560
80546SOL    HW153363  10.986   8.742   0.583  0.4489 -0.2510  0.4099
80546SOL    HW253364  11.098   8.774   0.680  1.5338  1.0721 -1.2273
80547SOL     OW53365   2.665   7.860   7.891 -0.8643 -0.1411  0.6164
80547SOL    HW153366   2.604   7.790   7.915 -1.2143  0.0653  0.3424
80547SOL    HW253367   2.747   7.815   7.873 -0.9255 -0.4219  1.0221
80548SOL     OW53368  12.524   6.491   3.694  0.4337 -0.7937 -1.0123
80548SOL    HW153369  12.459   6.543   3.646 -1.3075 -0.0973  1.8530
80548SOL    HW253370  12.494   6.401   3.685 -1.7228 -0.3901  1.1762
80549SOL     OW53371   6.401   0.170   1.757 -0.2289  0.6994 -0.0567
80549SOL    HW153372   6.340   0.231   1.716 -2.8504 -0.2208  2.1434
80549SOL    HW253373   6.428   0.111   1.687 -2.1227  0.9801 -1.0847
80550SOL     OW53374  11.411   4.404  11.100 -0.1965 -0.2844 -0.5559
80550SOL    HW153375  11.484   4.366  11.052  0.7602 -0.2448  0.8201
80550SOL    HW253376  11.333   4.374  11.053  0.6559 -1.1597 -1.4536
80551SOL     OW53377   5.699   1.211  12.434  0.3247 -0.3462  0.4178
80551SOL    HW153378   5.692   1.124  12.475  0.3394 -0.1567  0.8298
80551SOL    HW253379   5.622   1.217  12.378  0.4115 -0.6935  0.2581
80552SOL     OW53380   2.553   3.325  11.994  0.4047  0.6834  0.6463
80552SOL    HW153381   2.621   3.325  12.061 -0.2593 -1.2853  1.3736
80552SOL    HW253382   2.540   3.233  11.971 -0.5804  1.1731 -0.9746
80553SOL     OW53383   9.505   5.358   2.299 -0.1631  0.6801 -0.3126
80553SOL    HW153384   9.442   5.291   2.275  1.5636 -0.4510 -1.9607
80553SOL    HW253385   9.533   5.396   2.216  2.1728  0.2962  0.2223
80554SOL     OW53386   8.789   2.897  11.912 -0.1907  0.6940  0.2775
80554SOL    HW153387   8.772   2.951  11.835 -3.3529 -1.4880 -0.7496
80554SOL    HW253388   8.824   2.815  11.876 -1.3997 -0.2304  1.1388
80555SOL     OW53389   2.407  11.944   6.840  0.1473 -0.0061  0.2816
80555SOL    HW153390   2.360  11.890   6.903  0.9899 -1.8742 -0.6135
80555SOL    HW253391   2.346  11.953   6.767  0.0091  0.2771  0.4285
80556SOL     OW53392   8.792   9.847   5.360  0.1437  0.0688  0.5514
80556SOL    HW153393   8.712   9.863   5.411  0.1243  0.4549  0.4010
80556SOL    HW253394   8.827   9.935   5.342 -0.3081 -0.0276 -0.8475
80557SOL     OW53395  13.303  13.259  13.244  0.1858  0.4540 -0.2949
80557SOL    HW153396  13.235  13.321  13.271 -0.4923  0.2148 -1.3920
80557SOL    HW253397  13.259  13.175  13.239  0.6868  0.1999 -0.5067
80558SOL     OW53398  10.615   2.034  10.460  0.4452  0.3506 -0.0285
80558SOL    HW153399  10.592   2.119  10.421  1.7902 -0.5388 -3.0755
80558SOL    HW253400  10.533   1.985  10.458  0.0839  0.9425 -0.0562
80559SOL     OW53401   5.270  12.286  13.494 -0.0844  0.4390  0.1239
80559SOL    HW153402   5.189  12.321  13.532 -0.6097 -1.4434  0.8515
80559SOL    HW253403   5.265  12.311  13.402 -0.8203  1.5297  0.4422
80560SOL     OW53404   1.304   8.851   1.953  0.7664  0.6965  0.0257
80560SOL    HW153405   1.388   8.862   1.998  0.9310 -0.7906  0.1133
80560SOL    HW253406   1.327   8.846   1.860  0.8395 -0.1659  0.0814
80561SOL     OW53407   3.083   0.581   7.707  0.3560  0.4099  0.2256
80561SOL    HW153408   3.136   0.660   7.718 -0.1769  0.6095  1.6032
80561SOL    HW253409   3.046   0.589   7.619 -0.1970  2.0339  0.5612
80562SOL     OW53410  10.861  13.180  13.245 -0.4247 -0.1375  0.2144
80562SOL    HW153411  10.824  13.251  13.192 -0.0090  0.7237  1.0585
80562SOL    HW253412  10.902  13.224  13.319  1.0368 -1.1802  0.0554
80563SOL     OW53413   7.339   8.615   7.783  0.4910 -0.3646 -0.8766
80563SOL    HW153414   7.298   8.655   7.860 -0.8871  0.6904 -2.1021
80563SOL    HW253415   7.352   8.524   7.808  2.8095  0.5174  1.6638
80564SOL     OW53416   7.008   3.673  13.013  0.6045  0.0695  1.0297
80564SOL    HW153417   6.985   3.765  13.029 -0.6327  0.0054 -0.2468
80564SOL    HW253418   6.927   3.625  13.028  1.1323 -0.7767  1.2439
80565SOL     OW53419   8.050  11.934   2.243  0.1839  0.3299  0.4190
80565SOL    HW153420   8.125  11.891   2.286  0.1985 -0.1854 -0.1156
80565SOL    HW253421   7.980  11.870   2.248  0.8245 -0.7205 -2.3654
80566SOL     OW53422   2.389   9.716   2.460  0.7178  0.3799 -0.1736
80566SOL    HW153423   2.449   9.704   2.387 -1.3363  1.0698 -2.1070
80566SOL    HW253424   2.313   9.662   2.437 -0.2101  1.0357  1.2068
80567SOL     OW53425  12.608   4.578   7.920  0.2384  0.3569 -0.6117
80567SOL    HW153426  12.654   4.642   7.865  0.0088 -0.4762 -1.7949
80567SOL    HW253427  12.558   4.525   7.859  0.4508 -0.9858  0.3413
80568SOL     OW53428  12.204  13.247   9.957  0.3839 -0.1762  0.7477
80568SOL    HW153429  12.299  13.247   9.943  0.0363  0.2554 -2.0920
80568SOL    HW253430  12.189  13.170  10.012  2.2259 -1.2329 -0.1118
80569SOL     OW53431   9.117   4.882  10.816 -0.0112 -0.3434 -0.1937
80569SOL    HW153432   9.030   4.866  10.781 -0.1752 -0.0249  0.0696
80569SOL    HW253433   9.103   4.904  10.908  0.1870  1.4793 -0.5720
80570SOL     OW53434  10.970   3.581   6.628 -0.0038  0.4418  1.0716
80570SOL    HW153435  10.900   3.603   6.689  0.7920 -0.1514  2.2419
80570SOL    HW253436  11.028   3.524   6.678 -0.9651 -2.7817 -1.1966
80571SOL     OW53437   3.765   4.678   0.673  0.4205 -0.0037  0.1991
80571SOL    HW153438   3.810   4.667   0.757 -0.2423  0.0868  0.5793
80571SOL    HW253439   3.711   4.599   0.666 -0.3164  0.4719  0.3693
80572SOL     OW53440   7.631   2.935   5.847 -0.7525  0.1631 -0.1370
80572SOL    HW153441   7.548   2.893   5.868  0.0654 -1.6158 -0.2930
80572SOL    HW253442   7.612   3.029   5.850 -2.6357 -0.1965  0.2917
80573SOL     OW53443   0.396   7.028   6.371  0.1663  0.7144 -0.1800
80573SOL    HW153444   0.477   7.079   6.357  0.1042  0.8620 -0.0033
80573SOL    HW253445   0.328   7.094   6.381  0.2319  0.6173  0.9816
80574SOL     OW53446   1.522   7.552   1.394 -0.2158  0.2937 -0.0029
80574SOL    HW153447   1.606   7.524   1.432 -0.8636 -1.1336  0.4365
80574SOL    HW253448   1.516   7.502   1.312 -2.0882 -2.2300  1.5105
80575SOL     OW53449   8.741   0.990   2.903 -0.4256 -0.3604 -0.0269
80575SOL    HW153450   8.707   0.905   2.930 -2.9183  1.1427  2.0416
80575SOL    HW253451   8.677   1.022   2.839 -1.2810  1.1699  1.5076
80576SOL     OW53452  12.192  12.038   1.212 -0.2928 -0.5904 -0.3741
80576SOL    HW153453  12.223  12.065   1.299  1.6749 -1.1787 -0.8264
80576SOL    HW253454  12.214  11.944   1.207  0.3617 -0.3891 -1.7713
80577SOL     OW53455   1.914   9.496   9.491 -0.3776  0.4356  0.2511
80577SOL    HW153456   1.927   9.419   9.434  2.1432  0.0990  1.1364
80577SOL    HW253457   1.827   9.484   9.529 -1.0722 -0.6425 -1.5602
80578SOL     OW53458   3.968   6.731   5.755  0.6783  0.2006 -0.3471
80578SOL    HW153459   3.931   6.656   5.801  1.0214 -1.4290 -2.5486
80578SOL    HW253460   4.055   6.701   5.727 -0.0055  0.5231 -3.1616
80579SOL     OW53461   8.922   0.915   1.473 -0.0987 -0.3434 -0.4066
80579SOL    HW153462   8.888   0.947   1.389  1.1696  1.8743 -0.1365
80579SOL    HW253463   9.016   0.911   1.460  0.1584  0.4797  1.0468
80580SOL     OW53464   4.480   0.224   0.871 -0.5575 -0.2437  0.3430
80580SOL    HW153465   4.451   0.137   0.901 -1.0654  0.6479  2.6337
80580SOL    HW253466   4.533   0.258   0.943  0.9514  0.7545 -1.1719
80581SOL     OW53467   4.241  10.893   8.535 -0.2475  0.0961 -0.3939
80581SOL    HW153468   4.330  10.915   8.505 -0.5786  2.7492  0.2982
80581SOL    HW253469   4.184  10.918   8.463 -0.5189 -0.6871 -0.4597
80582SOL     OW53470   7.775   8.946   0.710 -0.1285 -0.0136 -0.6620
80582SOL    HW153471   7.690   8.936   0.752 -0.4847 -0.5825 -1.4933
80582SOL    HW253472   7.782   8.871   0.651  0.7159  0.3175 -1.0028
80583SOL     OW53473   0.460   2.940   7.414 -0.0529 -0.6344 -0.0102
80583SOL    HW153474   0.452   3.005   7.484 -0.6059 -0.3812 -0.2961
80583SOL    HW253475   0.552   2.916   7.414  0.6289  1.6783 -1.2423
80584SOL     OW53476  10.141  12.235   4.434 -0.0080  0.1944 -0.0207
80584SOL    HW153477  10.113  12.149   4.466 -1.5897  0.1933 -1.2782
80584SOL    HW253478  10.104  12.297   4.497 -0.9818  0.0666 -0.4539
80585SOL     OW53479   8.669   6.305  13.609  0.1250 -0.3013 -0.3359
80585SOL    HW153480   8.734   6.237  13.629  1.9423  1.2930 -0.5311
80585SOL    HW253481   8.700   6.345  13.528 -1.3369  0.2706 -0.6484
80586SOL     OW53482   0.667   7.306   0.599 -0.1108 -0.2870 -0.1732
80586SOL    HW153483   0.653   7.399   0.582  0.5228 -0.4828 -1.9075
80586SOL    HW253484   0.652   7.263   0.515  0.3545 -1.6736  0.4217
80587SOL     OW53485  13.264  13.659   4.959 -0.0655  0.0233 -0.2634
80587SOL    HW153486  13.172  13.684   4.967 -0.1129 -0.1868 -0.1296
80587SOL    HW253487  13.296  13.659   5.050 -0.4311 -1.7503 -0.0992
80588SOL     OW53488   5.410   1.174   1.231 -0.0340  0.7659 -0.3856
80588SOL    HW153489   5.336   1.228   1.204 -0.2723  0.4013 -0.4640
80588SOL    HW253490   5.481   1.198   1.172  0.0243  1.3871 -0.0728
80589SOL     OW53491   2.870  12.474   9.467 -0.3859 -0.2306 -0.2316
80589SOL    HW153492   2.922  12.418   9.409 -0.4077 -0.6065  0.1045
80589SOL    HW253493   2.794  12.500   9.415 -0.4162 -0.5861 -0.3647
80590SOL     OW53494   7.342  11.316   7.139 -0.0652  0.5595  0.2807
80590SOL    HW153495   7.368  11.224   7.132 -0.3556  0.5424 -0.7499
80590SOL    HW253496   7.305  11.324   7.227 -2.6836 -1.0286 -0.5553
80591SOL     OW53497  10.760   4.169  13.083 -0.2545 -1.1351  0.2342
80591SOL    HW153498  10.695   4.224  13.039 -0.0953 -0.6392  0.6204
80591SOL    HW253499  10.720   4.082  13.083 -0.6272 -0.9675 -0.1302
80592SOL     OW53500   7.391  12.888   9.635 -0.1617 -1.3122 -0.5570
80592SOL    HW153501   7.478  12.854   9.614  0.3186 -0.9658  0.7680
80592SOL    HW253502   7.405  12.983   9.644 -0.6817 -1.2538 -0.3584
80593SOL     OW53503   4.959   4.367   5.247 -0.2700  0.0020 -0.0660
80593SOL    HW153504   5.013   4.354   5.170 -0.0657  3.2217 -0.6303
80593SOL    HW253505   4.882   4.414   5.214 -0.5888  0.6753  1.5383
80594SOL     OW53506  11.882  13.093   2.306  0.1680  0.4766 -0.0184
80594SOL    HW153507  11.958  13.126   2.354  0.8095 -0.4655 -0.3409
80594SOL    HW253508  11.817  13.075   2.373  0.7416 -0.0044  0.4236
80595SOL     OW53509   0.019  11.603   3.647  0.1944  0.2990  0.1066
80595SOL    HW153510   0.113  11.594   3.664 -0.0229  0.2230  1.3362
80595SOL    HW253511  -0.023  11.555   3.718 -0.7982  1.0079  0.0189
80596SOL     OW53512  12.514  13.686  11.467 -0.5557  0.2028  0.2646
80596SOL    HW153513  12.596  13.647  11.498 -0.7625  0.4189  1.1135
80596SOL    HW253514  12.531  13.707  11.375 -0.9467 -3.3669 -0.7867
80597SOL     OW53515  12.071   8.400   0.453 -0.8052 -0.3527 -0.1702
80597SOL    HW153516  12.015   8.458   0.402 -0.2220 -1.2442 -1.8961
80597SOL    HW253517  12.104   8.455   0.524 -0.4792  1.3668 -1.5745
80598SOL     OW53518   8.617  10.133   4.453  0.5714  0.8835  1.0426
80598SOL    HW153519   8.678  10.093   4.391  1.1714  1.3498  1.3132
80598SOL    HW253520   8.635  10.227   4.447 -0.7401  1.1166  0.4889
80599SOL     OW53521  12.631   2.437   0.459 -0.6219  0.5629  0.2263
80599SOL    HW153522  12.698   2.449   0.392 -0.2097 -0.5888  0.4101
80599SOL    HW253523  12.647   2.508   0.522 -0.1812  0.8603 -0.2081
80600SOL     OW53524   0.460   9.504   5.654  0.5555  0.3543 -0.2617
80600SOL    HW153525   0.372   9.539   5.642  0.3242 -0.0363  0.2842
80600SOL    HW253526   0.461   9.471   5.744  1.3946  0.7534 -0.1146
80601SOL     OW53527  13.021   1.499   9.020 -0.3320 -0.2466  0.1492
80601SOL    HW153528  12.947   1.480   8.963  0.4526  1.8791 -1.7208
80601SOL    HW253529  13.095   1.455   8.978  0.2576  1.3565 -0.5891
80602SOL     OW53530   4.193   4.646  13.040 -0.2466 -0.3140 -0.2239
80602SOL    HW153531   4.167   4.687  12.957 -3.0309  0.2208  0.8066
80602SOL    HW253532   4.151   4.560  13.038 -3.4025  0.9522  1.9152
80603SOL     OW53533  10.633   7.362   5.222  0.3242 -0.1614  0.3012
80603SOL    HW153534  10.555   7.373   5.277  1.5058  0.9454  1.8448
80603SOL    HW253535  10.633   7.439   5.165 -0.3997 -0.8423 -0.6556
80604SOL     OW53536  13.319  11.968   1.146  0.2037  0.0057  0.1767
80604SOL    HW153537  13.323  11.874   1.128 -1.8060 -0.5012  1.9039
80604SOL    HW253538  13.378  11.981   1.220  1.7609  0.4622 -1.0976
80605SOL     OW53539  13.735   2.845  12.951  0.3362 -0.7409  0.2278
80605SOL    HW153540  13.659   2.809  12.997  0.6452 -0.1776  1.2045
80605SOL    HW253541  13.767   2.915  13.008  2.6024 -2.0378  0.6856
80606SOL     OW53542  13.500   8.228  10.777  0.3657  0.0276 -0.0065
80606SOL    HW153543  13.488   8.133  10.777 -0.2977  0.1005  0.8851
80606SOL    HW253544  13.591   8.240  10.750  0.9432 -0.9330  1.3820
80607SOL     OW53545   5.063   4.467   7.816  0.1509  0.1967 -0.2108
80607SOL    HW153546   5.042   4.374   7.819 -0.9184  0.4253  0.1623
80607SOL    HW253547   4.994   4.508   7.868 -0.4957  1.3728 -1.9043
80608SOL     OW53548   6.522  10.891   8.867  0.1447 -0.2306 -0.2787
80608SOL    HW153549   6.496  10.962   8.925  1.7643 -0.7980  1.2383
80608SOL    HW253550   6.556  10.824   8.925 -0.3213 -1.8268 -1.7510
80609SOL     OW53551   4.829   7.763  10.079  0.1051 -0.1593 -0.1368
80609SOL    HW153552   4.862   7.742  10.166 -2.0161  2.0831  1.3597
80609SOL    HW253553   4.868   7.848  10.058 -0.3416 -0.1122 -0.8144
80610SOL     OW53554   6.895  11.616   9.414  0.2408  0.0564 -0.3134
80610SOL    HW153555   6.912  11.603   9.321  1.6020  1.6850 -0.3521
80610SOL    HW253556   6.912  11.709   9.428 -2.0652  0.3412  1.1556
80611SOL     OW53557  13.603  11.311   2.686 -0.1264  0.2582  0.4473
80611SOL    HW153558  13.654  11.392   2.681 -0.6255  0.6872  1.6776
80611SOL    HW253559  13.571  11.309   2.777 -3.8747  1.0247 -0.6590
80612SOL     OW53560   5.035  11.797   4.740 -0.4104  0.0331 -0.5079
80612SOL    HW153561   5.106  11.815   4.679 -1.1014  0.3975 -1.2346
80612SOL    HW253562   5.046  11.861   4.810 -0.4463  0.5841 -0.9956
80613SOL     OW53563   1.072   2.109  11.284 -0.2164 -0.3675  0.0510
80613SOL    HW153564   1.067   2.085  11.377 -0.7794  0.1120  0.1445
80613SOL    HW253565   1.142   2.053  11.249 -0.0859 -0.6398  0.7339
80614SOL     OW53566   9.434  12.259   6.172  0.1230  0.5260  0.2340
80614SOL    HW153567   9.455  12.242   6.080 -1.1951 -2.4043  0.3606
80614SOL    HW253568   9.519  12.260   6.216  0.6856  0.5146 -0.8113
80615SOL     OW53569  13.670   6.977   1.147 -0.2903 -0.4137 -0.1670
80615SOL    HW153570  13.758   7.001   1.117  0.2056  0.5474  1.8708
80615SOL    HW253571  13.686   6.920   1.222 -1.4232 -0.3649  0.1224
80616SOL     OW53572   1.071   9.990   2.608 -0.0066 -0.3381 -0.7448
80616SOL    HW153573   0.979   9.963   2.610 -0.1048  0.0094  0.2863
80616SOL    HW253574   1.110   9.949   2.685 -0.3384  2.9388  1.3718
80617SOL     OW53575  11.891   0.933   2.039  0.1474  0.2348 -0.3885
80617SOL    HW153576  11.868   0.975   2.122  0.5647  0.1615 -0.2336
80617SOL    HW253577  11.956   0.991   1.999  1.2638 -0.5893  0.1584
80618SOL     OW53578   5.230  10.109   7.449 -0.2807  0.2784  0.6385
80618SOL    HW153579   5.263  10.197   7.431  0.2044 -0.1099 -0.4730
80618SOL    HW253580   5.185  10.084   7.368  1.9562 -1.5542 -0.1481
80619SOL     OW53581  13.585  10.030   3.027  0.6027 -0.3829  0.5261
80619SOL    HW153582  13.493  10.021   3.004  0.3362 -2.0039  1.9913
80619SOL    HW253583  13.619   9.940   3.027  1.7059 -0.0050  1.8198
80620SOL     OW53584   1.236   6.748  12.320 -0.0873 -0.5102  0.5572
80620SOL    HW153585   1.161   6.806  12.333 -0.7605 -0.7548 -1.7863
80620SOL    HW253586   1.310   6.807  12.304 -0.0767 -0.2782  1.4535
80621SOL     OW53587   1.289   3.934   3.513  0.3632 -0.2486 -0.3085
80621SOL    HW153588   1.304   3.841   3.533 -2.5098 -0.7819 -0.1684
80621SOL    HW253589   1.194   3.941   3.500  0.4904  2.6788 -0.3935
80622SOL     OW53590   9.025   3.869   8.819 -0.1168 -0.2296  0.1978
80622SOL    HW153591   9.110   3.853   8.859  0.4928  2.6717  0.2703
80622SOL    HW253592   9.038   3.851   8.726  0.2993 -0.6483  0.3315
80623SOL     OW53593  13.553  11.451  12.308 -0.0210 -0.0646  0.0581
80623SOL    HW153594  13.618  11.386  12.280 -0.5921 -1.3083  1.4478
80623SOL    HW253595  13.591  11.490  12.387 -1.2341 -1.3574  1.3372
80624SOL     OW53596   7.664   1.833   2.168  0.3083  0.0649  0.0675
80624SOL    HW153597   7.731   1.898   2.149  0.8008  0.2304  2.1500
80624SOL    HW253598   7.688   1.798   2.253 -2.1170 -0.0583  0.7651
80625SOL     OW53599   0.082   4.064   3.701 -0.0410  0.3460  0.1013
80625SOL    HW153600   0.028   4.141   3.683 -0.4064 -0.0328 -0.4397
80625SOL    HW253601   0.021   3.998   3.732  0.2051  0.1215  0.1077
80626SOL     OW53602   4.719  10.234  11.077 -0.7261  0.0878 -0.1992
80626SOL    HW153603   4.674  10.159  11.040  0.4151 -0.1269 -1.1986
80626SOL    HW253604   4.716  10.219  11.172 -2.4542 -0.0550 -0.2446
80627SOL     OW53605  13.417  13.068   2.544  0.5295  0.3696  0.1419
80627SOL    HW153606  13.505  13.104   2.556  0.8556 -0.2503 -0.3204
80627SOL    HW253607  13.379  13.121   2.474  1.2059 -0.4918 -0.9151
80628SOL     OW53608   5.616   7.478   9.654 -0.0319 -0.2597 -0.4322
80628SOL    HW153609   5.711   7.482   9.650 -0.0544 -0.1878 -0.9456
80628SOL    HW253610   5.598   7.391   9.692  0.2363 -0.2362 -0.2479
80629SOL     OW53611   0.945  12.551   4.082  0.1836 -0.0144  0.1242
80629SOL    HW153612   0.863  12.546   4.033  0.1192 -0.0371  0.2336
80629SOL    HW253613   0.926  12.505   4.164  0.6322 -0.9901 -0.2982
80630SOL     OW53614  11.575   6.704   0.158  0.0405  0.2023 -0.9411
80630SOL    HW153615  11.583   6.777   0.220  0.8612  0.8755 -1.7968
80630SOL    HW253616  11.481   6.695   0.143 -0.1400  0.2487  0.1355
80631SOL     OW53617   0.549   2.427  12.353 -0.1100 -0.3023 -0.2323
80631SOL    HW153618   0.578   2.450  12.264 -0.7602 -0.6608 -0.5428
80631SOL    HW253619   0.630   2.429  12.405  0.2375  0.1793 -0.7690
80632SOL     OW53620  10.732   5.013  13.112 -0.3890  0.7516  0.8683
80632SOL    HW153621  10.688   5.046  13.034 -2.0711 -0.0846  1.4103
80632SOL    HW253622  10.748   5.090  13.166  0.4288  1.2863 -0.1180
80633SOL     OW53623  11.067   0.544  12.157  0.1467  0.2551  0.3391
80633SOL    HW153624  10.985   0.585  12.128  0.1501  0.2402  0.3080
80633SOL    HW253625  11.129   0.561  12.087  0.4914  1.2780  0.8622
80634SOL     OW53626   5.270  10.615   3.717 -0.5148 -0.5344  0.1557
80634SOL    HW153627   5.210  10.665   3.772 -1.0613 -1.8256  0.7750
80634SOL    HW253628   5.352  10.613   3.766 -0.5629 -0.4572  0.2389
80635SOL     OW53629   2.346  13.197   5.633 -0.0595  0.0527  0.3816
80635SOL    HW153630   2.419  13.232   5.582  0.4002 -1.3567  0.0119
80635SOL    HW253631   2.336  13.107   5.601  0.7458 -1.1821  3.2544
80636SOL     OW53632   7.141   2.883   6.416  0.1333 -0.5169 -0.3486
80636SOL    HW153633   7.196   2.961   6.420  1.6731 -1.5396 -1.0106
80636SOL    HW253634   7.159   2.837   6.498 -1.6587  0.3426  0.5945
80637SOL     OW53635  10.107  13.595   9.228 -0.2022  0.6520 -0.5226
80637SOL    HW153636  10.125  13.680   9.268 -1.2744  0.5233  0.3062
80637SOL    HW253637  10.153  13.532   9.284 -0.1710  0.6154 -0.5896
80638SOL     OW53638   7.940   9.871  13.011 -0.1170  0.2055 -0.5360
80638SOL    HW153639   7.961   9.932  13.082  0.7072  0.0872 -0.6696
80638SOL    HW253640   7.987   9.791  13.033 -0.3187 -0.0232 -0.9274
80639SOL     OW53641   1.981   2.919   3.541  0.2542 -0.0631  0.4069
80639SOL    HW153642   2.041   2.912   3.615  0.7137 -1.1588 -0.0481
80639SOL    HW253643   2.033   2.894   3.465 -0.7774 -1.1095  0.0073
80640SOL     OW53644  12.571   8.038   4.268  0.0085  0.1610 -0.0292
80640SOL    HW153645  12.582   7.948   4.296 -0.7253 -0.3204 -1.1949
80640SOL    HW253646  12.659   8.077   4.275  0.3143 -0.6245  0.5313
80641SOL     OW53647   9.281   6.042   6.215  0.2803 -0.2338  0.5024
80641SOL    HW153648   9.338   5.973   6.180  2.3837  1.3867  0.5236
80641SOL    HW253649   9.309   6.052   6.306 -1.4658 -0.7333  1.1440
80642SOL     OW53650   3.528   7.981  10.655  0.1870  0.4523  0.1032
80642SOL    HW153651   3.576   7.986  10.737 -0.5862  0.0585  0.5958
80642SOL    HW253652   3.584   8.025  10.591  1.1434  0.0980  0.6733
80643SOL     OW53653  10.565   7.373  10.569  0.3332 -0.2259  0.4820
80643SOL    HW153654  10.569   7.352  10.476 -0.6155 -0.4085  0.4809
80643SOL    HW253655  10.482   7.419  10.581  0.8288  0.5491  1.0928
80644SOL     OW53656   3.480   5.478   8.407  0.4234  0.3375  0.0030
80644SOL    HW153657   3.571   5.468   8.379  1.7659  3.9616  2.3854
80644SOL    HW253658   3.439   5.530   8.338  0.9223  0.8799  0.1053
80645SOL     OW53659   1.611  13.176   4.271 -0.3034  0.4648 -0.1503
80645SOL    HW153660   1.698  13.147   4.297  0.4570  2.6350 -0.0979
80645SOL    HW253661   1.590  13.124   4.193 -0.2619 -2.1559  1.4571
80646SOL     OW53662   4.027   7.917  11.469  0.0887 -0.7929 -0.1786
80646SOL    HW153663   4.066   7.840  11.427  0.6321  0.1042 -1.3973
80646SOL    HW253664   4.083   7.935  11.544  0.9472 -0.6243 -0.8420
80647SOL     OW53665   9.476   1.009  10.360 -0.4916 -0.1404 -0.1705
80647SOL    HW153666   9.498   1.064  10.436  2.7100 -1.3485 -0.0936
80647SOL    HW253667   9.380   1.010  10.358 -0.6464  2.9828  1.5842
80648SOL     OW53668   8.645   8.743   7.190 -0.1794 -0.2297  0.5304
80648SOL    HW153669   8.719   8.690   7.161 -0.1851  0.0176  0.0529
80648SOL    HW253670   8.636   8.722   7.283  0.6756 -0.0330  0.6666
80649SOL     OW53671   3.160   0.292   1.967  0.5310  0.7313  0.1160
80649SOL    HW153672   3.224   0.298   1.896 -0.0194 -0.4672 -0.5234
80649SOL    HW253673   3.082   0.337   1.933 -0.0967 -0.7561 -0.5167
80650SOL     OW53674   3.125   3.047   5.262 -0.0030 -0.5912 -0.3982
80650SOL    HW153675   3.193   3.059   5.328  0.2915  0.5182 -0.8847
80650SOL    HW253676   3.169   2.999   5.191  0.4046  0.4792 -0.8876
80651SOL     OW53677   8.567   2.260   9.027 -0.0003  0.2407 -0.2857
80651SOL    HW153678   8.529   2.218   8.951 -0.6930  1.2085 -0.4919
80651SOL    HW253679   8.617   2.333   8.992  0.1087  0.3798  0.1471
80652SOL     OW53680  10.921   1.790   3.337 -0.1907 -0.0715 -0.0034
80652SOL    HW153681  10.957   1.708   3.371 -2.0390 -0.1848  1.8370
80652SOL    HW253682  10.983   1.857   3.366  0.9636 -0.7087 -0.9192
80653SOL     OW53683  12.171  11.310   9.521  0.3174 -0.3097  0.1401
80653SOL    HW153684  12.131  11.378   9.467  1.3739 -0.8669 -1.4575
80653SOL    HW253685  12.114  11.234   9.508  0.6423 -0.4809 -0.3369
80654SOL     OW53686  10.901   1.518   3.448  0.2252  0.6233 -0.5400
80654SOL    HW153687  10.905   1.458   3.373  1.5805  0.0698 -0.0741
80654SOL    HW253688  10.943   1.470   3.519 -2.8801  0.2940  1.2417
80655SOL     OW53689   3.713   6.957   7.506 -0.2392  0.1031  0.2265
80655SOL    HW153690   3.761   6.964   7.589 -0.2198  0.2850  0.1993
80655SOL    HW253691   3.741   6.872   7.470 -1.5654 -0.7824  1.2203
80656SOL     OW53692   9.085  12.268   5.330  0.3790 -0.3217 -0.3716
80656SOL    HW153693   9.045  12.182   5.343 -1.8984  0.8518  1.1691
80656SOL    HW253694   9.146  12.278   5.402 -0.0664 -0.2866  0.0044
80657SOL     OW53695   8.249   2.485   1.965 -0.2261  0.5225  0.1892
80657SOL    HW153696   8.186   2.504   1.896  0.9858 -0.3293 -1.2089
80657SOL    HW253697   8.331   2.526   1.936 -0.0286  1.4476  1.8660
80658SOL     OW53698   3.581   7.822   0.211 -0.5450 -0.2812 -0.3033
80658SOL    HW153699   3.629   7.766   0.149 -1.4411 -0.5785 -0.7562
80658SOL    HW253700   3.497   7.839   0.167 -0.0080  2.0884 -0.5252
80659SOL     OW53701   1.710  12.612   9.184  0.0349  0.0827 -0.4812
80659SOL    HW153702   1.649  12.678   9.153 -0.3748 -0.3748 -0.6576
80659SOL    HW253703   1.796  12.644   9.158  0.2076  2.1249  2.1643
80660SOL     OW53704   0.842  10.131   1.492 -0.2086 -0.0092  0.1882
80660SOL    HW153705   0.874  10.195   1.428  1.1910  0.3291  1.1850
80660SOL    HW253706   0.834  10.050   1.442  0.1141  0.4221 -0.5892
80661SOL     OW53707   1.804   5.779   9.514 -0.3265  0.3027 -0.2312
80661SOL    HW153708   1.806   5.690   9.477  0.3912  0.5804 -0.8869
80661SOL    HW253709   1.714   5.807   9.504 -0.9795 -0.9721  1.5166
80662SOL     OW53710  12.795   1.319   9.604  0.5037 -0.0701  0.5832
80662SOL    HW153711  12.861   1.360   9.547 -0.9347 -0.9829 -1.8845
80662SOL    HW253712  12.835   1.321   9.691  3.0418  0.9633 -0.4889
80663SOL     OW53713  12.272   9.821   1.117  0.3088 -0.3397 -0.2825
80663SOL    HW153714  12.240   9.792   1.031  1.9847 -1.3818 -0.6108
80663SOL    HW253715  12.205   9.881   1.149 -1.0976 -1.1190 -1.6373
80664SOL     OW53716   8.654   2.670   3.371 -0.5099  0.7338 -0.1245
80664SOL    HW153717   8.578   2.620   3.401  0.2699 -0.5546 -0.2444
80664SOL    HW253718   8.618   2.756   3.348 -1.7715  0.4540  0.7009
80665SOL     OW53719   0.532  12.648   7.136  0.3368  0.2963  0.5869
80665SOL    HW153720   0.628  12.642   7.134  0.2494 -1.4595 -0.3582
80665SOL    HW253721   0.502  12.559   7.116 -1.5013  0.7109  1.3167
80666SOL     OW53722   0.407   3.873   7.443  0.2140 -0.2771  0.3974
80666SOL    HW153723   0.435   3.943   7.383  0.3403 -0.6266  0.0470
80666SOL    HW253724   0.407   3.794   7.390 -1.1144 -0.3519  0.4726
80667SOL     OW53725   0.340   4.434   6.943 -0.0982  0.1039  0.2346
80667SOL    HW153726   0.374   4.365   7.000 -0.4671  0.3197  0.7283
80667SOL    HW253727   0.314   4.504   7.004  0.3638  0.7208 -0.2597
80668SOL     OW53728  11.942   4.656  11.524  0.8697  0.0471  0.2190
80668SOL    HW153729  12.022   4.605  11.519  0.4742 -0.4722 -1.0506
80668SOL    HW253730  11.873   4.596  11.498  0.3077  1.0182 -0.5942
80669SOL     OW53731  10.582   3.647   0.309 -0.0473  0.5489  0.4440
80669SOL    HW153732  10.534   3.712   0.360  0.9527  0.2359  1.8325
80669SOL    HW253733  10.558   3.563   0.348  0.1697  0.2451 -0.0710
80670SOL     OW53734  10.364  11.539   3.585 -0.0229 -0.3772 -0.0995
80670SOL    HW153735  10.377  11.489   3.665  2.0601 -1.9198 -1.3231
80670SOL    HW253736  10.405  11.624   3.603 -0.0078 -0.5365  0.6324
80671SOL     OW53737  13.568   0.701  11.579  0.1083 -0.0594 -0.4454
80671SOL    HW153738  13.537   0.790  11.559  4.1053  1.6636  0.0494
80671SOL    HW253739  13.607   0.709  11.666  0.9061 -2.2315 -0.5585
80672SOL     OW53740   9.888  13.639   6.122 -0.1646 -0.1517  0.2069
80672SOL    HW153741   9.806  13.592   6.134 -0.0221 -0.2386  0.8436
80672SOL    HW253742   9.874  13.724   6.164  0.3084 -0.4268  0.9250
80673SOL     OW53743  13.169   7.475  11.327 -0.1055  0.0499 -0.4513
80673SOL    HW153744  13.183   7.387  11.290  2.3640  0.1956 -0.0075
80673SOL    HW253745  13.073   7.483  11.333 -0.4420 -2.0185 -1.8726
80674SOL     OW53746   0.763  10.854   4.513 -0.3732 -0.2060  0.3854
80674SOL    HW153747   0.734  10.916   4.446 -0.4443  0.7738  1.3084
80674SOL    HW253748   0.772  10.771   4.466 -2.6251 -0.0772 -0.3688
80675SOL     OW53749   1.276   7.602   4.053  0.1702 -0.4278 -0.1444
80675SOL    HW153750   1.219   7.556   3.991  0.8795 -2.3599  0.5532
80675SOL    HW253751   1.219   7.625   4.126 -0.5556  1.3917 -1.2189
80676SOL     OW53752   1.386   1.006  12.092  0.0297  0.1711 -0.5390
80676SOL    HW153753   1.391   0.988  11.998  2.0261  0.9708 -0.6387
80676SOL    HW253754   1.393   1.101  12.098  0.8688  0.0669  0.4379
80677SOL     OW53755   8.840   2.503  13.180  0.1389 -0.0942 -0.2969
80677SOL    HW153756   8.753   2.530  13.208  1.0919  1.6929  1.1754
80677SOL    HW253757   8.875   2.454  13.255  1.1522  1.0510  0.0097
80678SOL     OW53758   3.100   5.686  13.124  0.2211  0.2662 -0.0384
80678SOL    HW153759   3.101   5.594  13.149 -2.7155  0.2955  0.5198
80678SOL    HW253760   3.027   5.694  13.063  0.5787  2.2089 -0.2883
80679SOL     OW53761   0.943   8.799   3.207  0.7106 -0.4592  0.4195
80679SOL    HW153762   0.892   8.803   3.288 -1.1571 -1.2387 -0.6559
80679SOL    HW253763   0.934   8.708   3.178  1.9424 -0.3624 -0.3189
80680SOL     OW53764  10.422   7.406   2.693 -0.1535 -0.3879 -0.4079
80680SOL    HW153765  10.338   7.365   2.673  0.3558 -0.6160 -2.2565
80680SOL    HW253766  10.487   7.348   2.652  1.1592 -1.4449  2.7841
80681SOL     OW53767   4.099  13.637   9.227  0.0169 -0.7400  0.3690
80681SOL    HW153768   4.133  13.550   9.249  2.6024  0.2523  0.6632
80681SOL    HW253769   4.108  13.643   9.132 -1.1704 -1.1609  0.2199
80682SOL     OW53770  10.717  10.646   1.362 -0.3580 -0.5124 -0.5935
80682SOL    HW153771  10.750  10.669   1.275 -0.4892  0.6732 -0.3492
80682SOL    HW253772  10.641  10.591   1.345 -1.0015  0.5385 -1.2831
80683SOL     OW53773  11.898  13.257  13.306  0.4984 -0.3269 -0.1154
80683SOL    HW153774  11.882  13.190  13.239 -0.8879  0.7263 -0.8787
80683SOL    HW253775  11.845  13.230  13.380  1.8936 -1.3946  0.5510
80684SOL     OW53776  11.147  10.725   3.317  0.5485  0.1418 -0.2658
80684SOL    HW153777  11.128  10.633   3.333 -2.8553  0.6183 -0.9570
80684SOL    HW253778  11.169  10.760   3.404  0.4094 -1.0033  0.2485
80685SOL     OW53779   7.261   0.213  13.230  0.2472  0.0229  0.7756
80685SOL    HW153780   7.296   0.234  13.144 -0.9503 -1.2621 -0.0542
80685SOL    HW253781   7.248   0.299  13.272  2.1108  0.6055  0.2311
80686SOL     OW53782   6.267   5.162   9.705  1.1164  0.3277 -0.2008
80686SOL    HW153783   6.265   5.208   9.621 -0.7352 -2.1841 -1.6701
80686SOL    HW253784   6.217   5.217   9.765  0.4185  1.0419 -1.4118
80687SOL     OW53785   7.921   1.307   4.910  0.3845 -0.3713  0.1891
80687SOL    HW153786   7.895   1.283   4.999  0.7545 -2.1003 -0.1251
80687SOL    HW253787   7.976   1.234   4.881  2.3342  1.3157 -0.5895
80688SOL     OW53788  11.448   6.529   7.685  0.2321 -0.1476 -0.2696
80688SOL    HW153789  11.542   6.535   7.704  0.0925  0.8683  0.1595
80688SOL    HW253790  11.442   6.465   7.614  1.1606 -0.8640  0.2744
80689SOL     OW53791   9.846  13.474   4.662  0.0716 -0.5715  0.1576
80689SOL    HW153792   9.848  13.487   4.567 -0.6676  0.9035  0.3122
80689SOL    HW253793   9.934  13.497   4.692  0.0282 -0.0906 -0.0751
80690SOL     OW53794   9.838   0.092   6.512 -0.2120 -0.5470  0.1130
80690SOL    HW153795   9.902   0.128   6.574 -0.6911  0.3556  0.0974
80690SOL    HW253796   9.847  -0.002   6.521  1.1225 -0.4432  0.1235
80691SOL     OW53797  13.330   5.151   9.736 -0.1583  0.1549 -0.3227
80691SOL    HW153798  13.423   5.167   9.752 -0.1147  1.0878 -1.3509
80691SOL    HW253799  13.315   5.062   9.766  1.1455 -0.1169 -0.4260
80692SOL     OW53800   6.074   2.593   8.201  0.0374 -0.1158 -0.1085
80692SOL    HW153801   6.012   2.530   8.237  0.2895 -0.2799  0.0400
80692SOL    HW253802   6.041   2.678   8.231 -0.1958 -0.1887 -0.1511
80693SOL     OW53803  10.848  13.311   0.043 -0.0800  0.5614  0.0943
80693SOL    HW153804  10.874  13.279   0.130  0.6449 -0.1414 -0.3652
80693SOL    HW253805  10.863  13.405   0.046 -0.0395  0.5396  0.7250
80694SOL     OW53806  13.106   2.209   1.546 -0.0996 -0.4077 -0.5289
80694SOL    HW153807  13.153   2.212   1.462  1.1225 -0.7959  0.1109
80694SOL    HW253808  13.049   2.285   1.545  2.1905  1.4274 -0.4247
80695SOL     OW53809  13.560   3.472  11.405 -0.7372  0.1492 -0.2130
80695SOL    HW153810  13.584   3.457  11.314 -0.4394  1.7950 -0.4402
80695SOL    HW253811  13.466   3.457  11.408 -1.1509  2.1299 -1.3166
80696SOL     OW53812   9.294   2.013   7.253 -0.7697  0.1392  0.3102
80696SOL    HW153813   9.342   2.072   7.311 -1.5627 -0.6293  1.8363
80696SOL    HW253814   9.357   1.943   7.234 -0.4013  0.5563 -0.0341
80697SOL     OW53815  13.573   3.243   1.364  0.4928  0.3251  0.9450
80697SOL    HW153816  13.620   3.323   1.340  0.3817  0.0191 -0.3608
80697SOL    HW253817  13.636   3.173   1.349 -0.2821 -0.0770 -0.6899
80698SOL     OW53818   5.201   3.183   6.823  0.5772  0.2678  0.1117
80698SOL    HW153819   5.242   3.103   6.791  0.5416 -0.1349  1.0171
80698SOL    HW253820   5.155   3.155   6.903  0.9114  1.2637  0.6696
80699SOL     OW53821   4.721  11.984   1.392  0.0398  0.1572 -0.2865
80699SOL    HW153822   4.709  11.898   1.432  1.9692 -0.0203 -0.0067
80699SOL    HW253823   4.755  12.039   1.463 -1.9260  1.4248 -0.2362
80700SOL     OW53824  13.640   8.874  12.039 -0.0710  0.4972 -0.2206
80700SOL    HW153825  13.712   8.928  12.073  0.5988 -1.1992  1.2463
80700SOL    HW253826  13.672   8.784  12.048 -1.6737 -0.2260 -1.2931
80701SOL     OW53827   7.081   3.874   0.984 -0.4229  0.3960  0.4769
80701SOL    HW153828   7.090   3.782   1.009  0.1936  0.1127 -0.7306
80701SOL    HW253829   7.157   3.892   0.928 -2.2010  0.7299 -1.9438
80702SOL     OW53830   5.751  11.065   3.987 -0.2255  0.3788  0.6715
80702SOL    HW153831   5.752  10.971   3.971 -0.8217  0.4129  0.3995
80702SOL    HW253832   5.770  11.105   3.902  1.1960  0.4955  1.0231
80703SOL     OW53833  12.732   4.798   9.580  0.8472  0.7391 -0.2876
80703SOL    HW153834  12.746   4.798   9.675 -0.5732  0.6779 -0.0563
80703SOL    HW253835  12.817   4.824   9.544  1.6374  0.0290  0.9520
80704SOL     OW53836  11.716  11.838   3.006 -0.2852 -0.3131 -0.2367
80704SOL    HW153837  11.639  11.790   2.976 -0.6456  0.1536 -0.0778
80704SOL    HW253838  11.735  11.801   3.092 -1.1093  0.4218  0.2855
80705SOL     OW53839   7.579  13.507   1.729 -0.1004  0.0552 -0.0199
80705SOL    HW153840   7.511  13.450   1.694  1.1178 -0.2040 -2.1164
80705SOL    HW253841   7.536  13.555   1.800 -1.9193 -1.4262 -0.0413
80706SOL     OW53842   5.469  13.739   3.576  0.4351 -0.3492 -0.2808
80706SOL    HW153843   5.465  13.722   3.482  1.4074  0.1670 -0.4293
80706SOL    HW253844   5.381  13.721   3.607 -0.6887  2.1237 -1.7229
80707SOL     OW53845   8.526   2.939   7.404  0.0630 -0.0144  0.4194
80707SOL    HW153846   8.567   3.024   7.422 -0.6651  0.4099  0.1214
80707SOL    HW253847   8.562   2.880   7.470  0.6913  0.4896  0.5337
80708SOL     OW53848   7.324   4.062   0.368 -0.8493  0.2815 -0.1868
80708SOL    HW153849   7.334   3.995   0.301  1.1806  0.3776 -0.0442
80708SOL    HW253850   7.259   4.122   0.332 -0.5863 -0.2353 -1.6024
80709SOL     OW53851  12.264   3.282   4.066 -0.2212  0.0399  0.3861
80709SOL    HW153852  12.282   3.278   3.972 -2.1107  2.4836 -0.1792
80709SOL    HW253853  12.349   3.299   4.106  0.7175 -1.6008 -0.7528
80710SOL     OW53854   4.876   2.212   7.771  0.3790  0.1567  0.0078
80710SOL    HW153855   4.963   2.185   7.801  0.2007 -0.4076  0.0276
80710SOL    HW253856   4.828   2.131   7.761 -0.8328  0.5490  2.0536
80711SOL     OW53857   6.023   1.168   8.458 -0.1449  0.5749  0.4730
80711SOL    HW153858   6.050   1.092   8.510  3.5268  0.4396 -1.3164
80711SOL    HW253859   6.093   1.232   8.471 -0.2470  1.4152 -2.4326
80712SOL     OW53860   8.406  12.619  10.286 -0.2517 -0.0784  0.4135
80712SOL    HW153861   8.455  12.540  10.265  0.1011  0.1697  0.3104
80712SOL    HW253862   8.320  12.587  10.315  0.4872 -0.6166  2.1690
80713SOL     OW53863   7.785   0.546   9.534  0.4845 -0.0150  0.6577
80713SOL    HW153864   7.814   0.625   9.579  0.3654 -0.9564  2.4987
80713SOL    HW253865   7.856   0.484   9.547  0.8760 -0.0618 -1.3424
80714SOL     OW53866   9.578   5.764   9.263  0.6759 -0.2565  0.3769
80714SOL    HW153867   9.565   5.856   9.283  1.0132 -0.2780  0.7265
80714SOL    HW253868   9.504   5.719   9.304  1.0997 -0.2485  1.1700
80715SOL     OW53869   1.417   4.812   2.195 -0.0005  0.3430  0.6200
80715SOL    HW153870   1.453   4.784   2.279 -1.3144 -1.1883  0.7481
80715SOL    HW253871   1.392   4.903   2.208 -1.5508 -0.2644  2.4410
80716SOL     OW53872  13.039   2.476   7.793 -0.0398  0.5904 -0.2476
80716SOL    HW153873  12.957   2.427   7.789  0.6638 -0.7934  1.2564
80716SOL    HW253874  13.085   2.453   7.712  0.3274 -1.4139  0.4765
80717SOL     OW53875   4.369   2.428   3.816 -0.4436 -0.3999 -0.4069
80717SOL    HW153876   4.444   2.484   3.835 -1.0001 -0.1411  1.1604
80717SOL    HW253877   4.322   2.473   3.745 -0.4935  0.7670  0.3514
80718SOL     OW53878   9.577   9.845   0.655 -0.4968  0.1930 -0.7872
80718SOL    HW153879   9.579   9.937   0.629 -0.0435  0.1482 -0.9254
80718SOL    HW253880   9.669   9.819   0.658 -0.5160  0.2336  1.0139
80719SOL     OW53881   7.137  10.640  11.562  0.5460 -0.2305  0.2747
80719SOL    HW153882   7.130  10.557  11.516  1.1779 -0.6259  0.8825
80719SOL    HW253883   7.157  10.617  11.653  0.9482  0.5785  0.4076
80720SOL     OW53884   7.859   6.441   3.631  0.7223  0.2423 -0.1972
80720SOL    HW153885   7.764   6.439   3.643  0.8498 -2.3490  1.1513
80720SOL    HW253886   7.871   6.415   3.540  0.1377 -0.4089 -0.1003
80721SOL     OW53887  10.330  13.672   8.481  0.3375  0.1077  0.0186
80721SOL    HW153888  10.418  13.647   8.510  1.1938  0.5114 -2.0503
80721SOL    HW253889  10.344  13.716   8.398 -1.6594  2.1216  0.6550
80722SOL     OW53890  12.907  13.153   2.338  0.1978  0.6455  0.1992
80722SOL    HW153891  12.901  13.208   2.260  0.4751  0.8031  0.2881
80722SOL    HW253892  12.840  13.187   2.397  0.8144  1.3273  0.5252
80723SOL     OW53893   3.355   7.160  13.560  0.5940 -0.5897 -0.0610
80723SOL    HW153894   3.363   7.171  13.465 -1.1669 -0.4159 -0.2140
80723SOL    HW253895   3.403   7.235  13.597  0.0791  0.1563 -0.8556
80724SOL     OW53896   8.826   8.161   3.682 -0.4446  0.2328  0.1709
80724SOL    HW153897   8.826   8.174   3.587  2.1201 -1.6381 -0.2030
80724SOL    HW253898   8.768   8.086   3.696  0.4974 -0.5944 -0.1928
80725SOL     OW53899   6.060  11.076  12.973  0.0539  1.1134  0.0316
80725SOL    HW153900   6.018  11.104  12.892 -0.6584  0.4359  0.1486
80725SOL    HW253901   6.012  11.122  13.042 -0.8736 -0.0625  0.1981
80726SOL     OW53902   6.559   2.973   9.072 -0.2691  0.2348  0.5849
80726SOL    HW153903   6.513   2.937   8.996 -1.2639  0.2689  1.1638
80726SOL    HW253904   6.491   2.988   9.137  0.3702  1.5169  0.9953
80727SOL     OW53905  11.474   0.650  12.764 -0.2767  0.6740 -0.2629
80727SOL    HW153906  11.517   0.663  12.680 -0.7262 -0.3764 -0.6732
80727SOL    HW253907  11.387   0.615  12.742 -0.8694  1.5209  0.5965
80728SOL     OW53908  10.469   2.778   8.745  0.2930 -0.0683  0.1158
80728SOL    HW153909  10.515   2.772   8.829 -0.4540  1.9909  0.7381
80728SOL    HW253910  10.528   2.737   8.682  1.9789  0.4882  1.2604
80729SOL     OW53911   3.971   7.850   5.753  0.2303  0.5866  0.4886
80729SOL    HW153912   4.044   7.911   5.742  0.8920 -0.2838 -0.0782
80729SOL    HW253913   4.004   7.783   5.813 -0.2530  0.4123  0.5706
80730SOL     OW53914   1.481  11.690   7.060  0.5437  0.0745 -0.0053
80730SOL    HW153915   1.557  11.671   7.005  0.0465  0.5943 -0.9010
80730SOL    HW253916   1.469  11.611   7.113  1.0960 -0.4061 -0.5819
80731SOL     OW53917   8.513   0.822  11.207 -0.1561  1.1579  0.3832
80731SOL    HW153918   8.492   0.881  11.279 -0.6355  0.4994  0.7964
80731SOL    HW253919   8.585   0.767  11.240 -0.9986  0.2275  0.7200
80732SOL     OW53920   9.992   6.530   2.323  0.3516  0.5122 -0.1731
80732SOL    HW153921  10.041   6.569   2.251 -1.0188 -0.5463 -1.7653
80732SOL    HW253922   9.912   6.581   2.328 -1.3169 -1.6794 -2.0619
80733SOL     OW53923   8.205   1.349   4.240 -0.0134 -0.4379  0.0602
80733SOL    HW153924   8.183   1.275   4.183  0.3229 -0.6577  0.2074
80733SOL    HW253925   8.299   1.338   4.257 -0.4138 -1.3679  2.0346
80734SOL     OW53926   6.716  10.698   8.941 -1.0967 -0.2771 -0.7378
80734SOL    HW153927   6.753  10.643   9.010 -0.5345  0.7557 -0.1933
80734SOL    HW253928   6.743  10.656   8.859 -1.0423 -1.0382 -0.3349
80735SOL     OW53929   4.818  11.711   6.346  0.0135  0.4551 -0.3812
80735SOL    HW153930   4.754  11.654   6.389 -0.5675  0.5688 -1.0841
80735SOL    HW253931   4.873  11.743   6.418 -0.5907  0.1988  0.2102
80736SOL     OW53932   0.158   2.256  12.565  0.0495 -0.5837  0.1079
80736SOL    HW153933   0.191   2.168  12.584  0.8056 -0.4037 -0.3253
80736SOL    HW253934   0.152   2.260  12.470 -1.5224 -0.7007  0.1835
80737SOL     OW53935   1.366   1.167   1.387  0.3249  0.5061 -0.3357
80737SOL    HW153936   1.350   1.091   1.332 -0.2647  2.0946 -2.4564
80737SOL    HW253937   1.342   1.242   1.333  0.6606  2.2162  1.7565
80738SOL     OW53938   4.550  10.793   9.926 -0.2137  0.1108  0.3730
80738SOL    HW153939   4.616  10.759   9.865 -2.3577  0.7527 -2.4907
80738SOL    HW253940   4.532  10.719   9.985  1.9148 -0.5572  0.2883
80739SOL     OW53941   0.491  11.532  10.811 -0.2685  0.4931 -0.6255
80739SOL    HW153942   0.526  11.482  10.737 -0.0913  0.4964 -0.5457
80739SOL    HW253943   0.401  11.500  10.822 -0.7831  1.4892 -1.7347
80740SOL     OW53944   0.041   1.602   2.630  0.5939 -0.7841  0.4673
80740SOL    HW153945   0.096   1.680   2.620 -2.2654  1.3030 -0.1836
80740SOL    HW253946   0.045   1.560   2.544 -0.8533  0.8859 -0.4918
80741SOL     OW53947   7.190  13.007  12.828 -0.2461  0.1949 -1.1386
80741SOL    HW153948   7.236  13.039  12.905 -1.2787  0.4769 -0.6210
80741SOL    HW253949   7.168  12.917  12.848 -1.1696  0.4904 -0.7816
80742SOL     OW53950   5.917   1.683   6.631  0.1743 -0.2191 -0.2204
80742SOL    HW153951   5.918   1.592   6.602 -0.0201 -0.1042 -0.5943
80742SOL    HW253952   5.882   1.732   6.557  1.0574  0.2686 -0.3309
80743SOL     OW53953   6.629   0.347   5.324 -0.0310 -0.4285 -0.0435
80743SOL    HW153954   6.722   0.344   5.301  0.1289  0.2624  0.4789
80743SOL    HW253955   6.607   0.440   5.321 -0.8646 -0.6396 -0.7642
80744SOL     OW53956  10.344   8.522  11.849 -0.2488 -0.2244  0.1200
80744SOL    HW153957  10.411   8.526  11.781 -0.1324 -0.8560  0.1901
80744SOL    HW253958  10.316   8.613  11.860  0.3648  0.0045 -0.1394
80745SOL     OW53959  10.607   6.843  13.404 -0.1067 -0.6179 -0.0037
80745SOL    HW153960  10.514   6.841  13.385 -0.4397  0.9060  1.2771
80745SOL    HW253961  10.618   6.916  13.464  1.9556 -0.6156 -0.3073
80746SOL     OW53962  10.512   3.115   8.883 -0.2382 -0.3352  0.5286
80746SOL    HW153963  10.548   3.039   8.929  0.9465  1.0932  2.0769
80746SOL    HW253964  10.463   3.163   8.949 -0.5670  0.5057 -0.2948
80747SOL     OW53965  12.379  11.896   8.605  0.0944  0.3681 -0.0005
80747SOL    HW153966  12.345  11.838   8.673  1.8976  0.8175  1.3564
80747SOL    HW253967  12.417  11.837   8.540 -0.2616 -0.0242  0.1397
80748SOL     OW53968  12.768  11.225   3.082  0.2155 -0.0684  0.4365
80748SOL    HW153969  12.849  11.238   3.033  0.5241  1.1720  1.2377
80748SOL    HW253970  12.703  11.205   3.015  1.1292 -0.9465 -0.2301
80749SOL     OW53971  11.133   5.694   2.008 -0.0091 -0.1174 -0.1998
80749SOL    HW153972  11.082   5.626   1.964  0.1415 -0.0468 -0.4849
80749SOL    HW253973  11.071   5.736   2.067 -0.1898 -0.2742 -0.2777
80750SOL     OW53974   2.456   5.639   8.199 -0.0048  0.3440  0.2579
80750SOL    HW153975   2.400   5.564   8.181  0.0980  0.1934  0.5662
80750SOL    HW253976   2.464   5.684   8.114 -0.0056 -0.0309  0.0577
80751SOL     OW53977   8.845   7.972  12.241 -0.1425 -0.5359  0.1331
80751SOL    HW153978   8.880   8.019  12.316  2.5419  0.9385 -1.8681
80751SOL    HW253979   8.885   7.885  12.246 -1.2356 -1.0178  1.1698
80752SOL     OW53980   7.204   9.660   0.131 -0.1494 -0.1107  0.2228
80752SOL    HW153981   7.168   9.606   0.201  0.0744 -1.9035 -0.9846
80752SOL    HW253982   7.207   9.602   0.055  2.7576  0.7355 -0.4247
80753SOL     OW53983  11.952   2.567   1.262  0.2171 -0.0286  0.4363
80753SOL    HW153984  12.041   2.537   1.276 -0.4543 -1.7925  1.1313
80753SOL    HW253985  11.950   2.597   1.171  1.2809 -0.7957  0.1565
80754SOL     OW53986  10.205   1.761   7.342 -0.1139 -0.4068  0.0141
80754SOL    HW153987  10.137   1.733   7.282 -0.4993  1.7273 -0.6310
80754SOL    HW253988  10.279   1.703   7.324 -0.4620 -0.2957 -2.0473
80755SOL     OW53989   1.241  11.857   6.010 -0.3735 -0.8344 -0.3345
80755SOL    HW153990   1.317  11.893   5.966  0.6285 -1.0349  1.1417
80755SOL    HW253991   1.173  11.855   5.944  0.5136  0.6175 -1.3350
80756SOL     OW53992   9.862   5.008   5.230  0.4147 -0.4390 -0.3976
80756SOL    HW153993   9.819   5.092   5.244  0.5383 -0.6271  1.3621
80756SOL    HW253994   9.862   4.997   5.135 -0.4508  1.0935 -0.6188
80757SOL     OW53995   1.020   3.334  11.157  0.1073  0.6204  0.0163
80757SOL    HW153996   0.980   3.392  11.221  0.0874 -1.1778  1.7382
80757SOL    HW253997   0.969   3.253  11.163  0.9532 -0.0413 -1.3231
80758SOL     OW53998  11.267   8.575   3.083 -0.4344  0.3840  0.0334
80758SOL    HW153999  11.217   8.527   3.149 -1.0931  1.8138  0.6277
80758SOL    HW254000  11.282   8.512   3.013 -3.2117 -0.1007 -0.2381
80759SOL     OW54001   5.342   6.317  11.932  0.3996  0.1588  0.7614
80759SOL    HW154002   5.380   6.400  11.961  0.2738  0.3904  0.2659
80759SOL    HW254003   5.254   6.340  11.902 -0.0229 -0.3216  1.5889
80760SOL     OW54004  12.147   9.139  11.895 -0.4559  0.4657 -0.1522
80760SOL    HW154005  12.225   9.179  11.934  1.6709 -1.7979 -1.7611
80760SOL    HW254006  12.126   9.195  11.820 -0.4900  1.1433  0.3492
80761SOL     OW54007  10.240   4.877   9.692 -0.2911 -0.1172  0.1441
80761SOL    HW154008  10.266   4.822   9.765  0.4894 -0.0306 -0.0647
80761SOL    HW254009  10.146   4.892   9.706 -0.0135  0.5035  1.5371
80762SOL     OW54010   4.839   0.001   3.190 -0.2901  0.4785  0.3829
80762SOL    HW154011   4.890   0.078   3.216  1.7848 -0.2490 -1.2906
80762SOL    HW254012   4.775   0.035   3.127  0.0181  0.9626  0.3295
80763SOL     OW54013   9.375   3.162   7.647 -0.1991 -0.3810 -0.2511
80763SOL    HW154014   9.402   3.071   7.657 -1.1156 -0.5581  0.7860
80763SOL    HW254015   9.331   3.183   7.729 -0.1161  0.9617 -0.5290
80764SOL     OW54016  11.743   2.112   4.164  0.4723  0.0010  0.0524
80764SOL    HW154017  11.835   2.137   4.172  0.5754  0.1778 -1.4469
80764SOL    HW254018  11.743   2.038   4.104 -0.4541  0.7613 -0.9275
80765SOL     OW54019  12.903   9.392  13.064 -0.2038 -0.7374  0.1705
80765SOL    HW154020  12.839   9.340  13.112 -1.8635  1.9199  1.0144
80765SOL    HW254021  12.906   9.476  13.109 -1.0538  1.5985 -3.6497
80766SOL     OW54022  12.944   6.206   0.556 -0.0451  1.1537  0.1636
80766SOL    HW154023  12.904   6.198   0.469  0.5366  0.4251 -0.0487
80766SOL    HW254024  13.034   6.174   0.544 -0.3202 -0.1318  1.2978
80767SOL     OW54025  11.142  13.274   7.798 -0.0899  0.5228  0.2012
80767SOL    HW154026  11.108  13.279   7.709 -3.4401  1.4396  1.3990
80767SOL    HW254027  11.182  13.359   7.813 -1.0369  1.0006  0.0960
80768SOL     OW54028  10.205  12.780   5.966 -0.2070 -0.0768 -0.1449
80768SOL    HW154029  10.180  12.836   6.039 -1.6585 -0.2804 -0.4640
80768SOL    HW254030  10.179  12.828   5.888 -1.2743 -1.0685 -0.4315
80769SOL     OW54031   5.245   5.330   8.546 -0.1807  0.1639  0.4985
80769SOL    HW154032   5.318   5.354   8.604  0.1001  0.1926  0.1360
80769SOL    HW254033   5.283   5.269   8.483 -0.5687 -0.1370  0.5547
80770SOL     OW54034   9.453   3.315   8.503  0.3239 -0.4542 -0.2096
80770SOL    HW154035   9.511   3.384   8.472 -1.3801  0.5578 -1.3053
80770SOL    HW254036   9.449   3.328   8.598  1.2275 -0.0453 -0.2162
80771SOL     OW54037   6.265   6.963  12.833  0.2237  0.0208  0.5025
80771SOL    HW154038   6.312   7.005  12.761  0.0227 -0.7319 -0.0873
80771SOL    HW254039   6.248   7.033  12.895  0.0591  0.7656 -0.3616
80772SOL     OW54040   1.065   4.170   1.239  0.1135 -0.1067 -0.3050
80772SOL    HW154041   1.108   4.249   1.270 -0.6894  0.5043 -0.7077
80772SOL    HW254042   1.030   4.129   1.318  0.2644  0.0958 -0.1326
80773SOL     OW54043  11.556   0.593   6.189 -0.1994  0.3423 -0.5204
80773SOL    HW154044  11.628   0.619   6.245 -2.1792  2.9148  1.0568
80773SOL    HW254045  11.546   0.499   6.204  2.3220  0.0567 -0.2901
80774SOL     OW54046   7.376   0.253   6.820 -0.6009  0.3477 -0.3603
80774SOL    HW154047   7.416   0.198   6.752 -1.7421  0.4709 -1.1747
80774SOL    HW254048   7.298   0.204   6.848 -1.6152  1.4903 -1.0706
80775SOL     OW54049   0.012   5.528   8.373 -0.5616  0.0068 -0.8468
80775SOL    HW154050   0.024   5.517   8.467 -2.0153  2.3335 -0.3100
80775SOL    HW254051   0.101   5.530   8.337  0.0306 -0.1285  0.5562
80776SOL     OW54052  13.548   1.167   0.800  0.4855  0.0288 -0.4040
80776SOL    HW154053  13.627   1.173   0.746  0.0127 -0.1675 -1.1350
80776SOL    HW254054  13.484   1.220   0.753  0.3056  0.5593  0.4242
80777SOL     OW54055   3.031   0.050   5.738 -0.1709 -0.5334  0.0795
80777SOL    HW154056   3.121   0.024   5.756  0.0514  0.1171 -0.0650
80777SOL    HW254057   3.006   0.104   5.813 -0.4790 -0.8097  0.1761
80778SOL     OW54058  12.595   4.258   0.996  0.2027 -0.3157  0.0966
80778SOL    HW154059  12.678   4.240   0.951 -0.8546 -0.1239 -2.0575
80778SOL    HW254060  12.575   4.349   0.974 -0.8650 -0.5408  0.0789
80779SOL     OW54061   9.059   2.133   1.185  0.5947 -0.5820  1.0205
80779SOL    HW154062   9.007   2.102   1.258  0.0414 -0.8253  0.5271
80779SOL    HW254063   9.072   2.056   1.129  0.2193 -0.1999  0.3930
80780SOL     OW54064  11.513   1.919   4.568 -0.1412 -0.0817 -0.1518
80780SOL    HW154065  11.530   1.974   4.492  1.1271 -0.0402  0.1361
80780SOL    HW254066  11.547   1.833   4.544 -0.9254 -0.4075 -0.1123
80781SOL     OW54067   2.013   3.727  13.147  0.2898  0.1407  0.6282
80781SOL    HW154068   1.942   3.732  13.083 -0.7570 -0.3843  1.7108
80781SOL    HW254069   1.977   3.769  13.225  1.4898  0.6335  0.9296
80782SOL     OW54070   7.231   5.291   1.844 -0.4857 -0.0752  0.0503
80782SOL    HW154071   7.316   5.271   1.806  0.2660  0.1658  1.5405
80782SOL    HW254072   7.173   5.305   1.768  1.0159  0.7320 -0.9954
80783SOL     OW54073   0.303   1.101   6.645 -0.3831  0.3667  0.1301
80783SOL    HW154074   0.370   1.167   6.663 -0.8344  1.2709 -1.2752
80783SOL    HW254075   0.261   1.132   6.565 -0.1585 -1.9896 -0.9883
80784SOL     OW54076   5.178   6.424   9.200  0.1900 -0.5485 -0.5809
80784SOL    HW154077   5.231   6.479   9.142  0.5317  0.6728  0.8573
80784SOL    HW254078   5.242   6.365   9.241  0.0365 -0.9342 -0.8788
80785SOL     OW54079   8.272  11.831   4.250 -0.1763  0.1801 -0.0248
80785SOL    HW154080   8.234  11.807   4.335  0.9079  3.2643  1.5042
80785SOL    HW254081   8.206  11.888   4.210 -0.7268 -1.3413 -1.3697
80786SOL     OW54082   5.282  10.221   9.025  0.2042 -0.0919  0.4202
80786SOL    HW154083   5.198  10.189   9.057  0.5626 -0.1851  1.2952
80786SOL    HW254084   5.270  10.316   9.018 -0.1842 -0.1760 -0.1235
80787SOL     OW54085   2.745   3.266  11.660 -0.0693 -0.7076  0.0787
80787SOL    HW154086   2.676   3.332  11.653  0.3209 -0.3275 -0.2673
80787SOL    HW254087   2.745   3.223  11.574  0.7701 -0.0470 -0.2614
80788SOL     OW54088   0.220   8.256   0.295  0.4702  0.4690 -0.0066
80788SOL    HW154089   0.216   8.207   0.377  0.6052  0.9363  0.2834
80788SOL    HW254090   0.174   8.201   0.232  0.3606  0.1068  0.3847
80789SOL     OW54091   8.383   5.588   4.062 -0.0225  0.1474 -0.0118
80789SOL    HW154092   8.456   5.551   4.012  0.2580  1.3365 -0.5268
80789SOL    HW254093   8.305   5.551   4.021  0.2635 -0.4568 -0.0208
80790SOL     OW54094   2.951  13.382   3.925 -0.2450  0.7892  0.2892
80790SOL    HW154095   2.931  13.441   3.998 -0.8741  0.6182  0.2612
80790SOL    HW254096   2.957  13.296   3.965 -0.2919  0.7364  0.1832
80791SOL     OW54097   9.998   4.853  10.255 -0.4545 -0.0031 -0.0988
80791SOL    HW154098   9.991   4.945  10.280  0.3380  0.4650 -1.4695
80791SOL    HW254099   9.938   4.844  10.181  0.3924 -0.2541 -0.7720
80792SOL     OW54100  11.770   8.809   3.628 -0.1949  0.5531 -0.4965
80792SOL    HW154101  11.779   8.852   3.712 -0.7574  0.2513 -0.2706
80792SOL    HW254102  11.696   8.749   3.640 -0.0609  0.2581 -1.0981
80793SOL     OW54103  13.741  10.249   7.419  0.3118  0.2536  0.6291
80793SOL    HW154104  13.787  10.267   7.501  0.7707 -0.6652  0.5780
80793SOL    HW254105  13.805  10.204   7.365 -0.6390 -1.0826  0.5634
80794SOL     OW54106   0.210   5.930   1.794  0.2821 -0.4462 -0.4551
80794SOL    HW154107   0.136   5.966   1.843  1.1178 -0.5655  0.9302
80794SOL    HW254108   0.171   5.861   1.740 -0.3869 -1.7158  1.5549
80795SOL     OW54109   4.219   6.353  13.204  0.0057  0.4956  0.0556
80795SOL    HW154110   4.215   6.410  13.128 -0.7061 -0.1889 -0.4355
80795SOL    HW254111   4.162   6.280  13.182  0.4322 -0.1135  0.9164
80796SOL     OW54112  12.485   9.330   7.329  0.1417  0.0951  0.0084
80796SOL    HW154113  12.453   9.325   7.419 -0.7707  1.2297 -0.2194
80796SOL    HW254114  12.572   9.368   7.337 -0.9805  2.8523  0.3023
80797SOL     OW54115  13.647  10.727   5.289  0.3804 -0.7329 -0.2313
80797SOL    HW154116  13.743  10.723   5.291  0.4333  0.2991  1.8815
80797SOL    HW254117  13.618  10.649   5.336  0.2787  0.0063  0.9835
80798SOL     OW54118  11.366   9.272  11.372 -0.3920 -0.0705 -0.2443
80798SOL    HW154119  11.365   9.196  11.313 -1.8950  0.4792 -0.9751
80798SOL    HW254120  11.397   9.344  11.317 -2.8116  0.6784 -0.7495
80799SOL     OW54121   3.340   3.169   7.766 -0.0441  0.6499  0.8483
80799SOL    HW154122   3.325   3.085   7.810 -0.0590 -0.4299 -1.1300
80799SOL    HW254123   3.414   3.207   7.813 -0.2732 -0.2719  2.0236
80800SOL     OW54124   5.220  12.171  13.127 -0.2569 -0.4270  0.1543
80800SOL    HW154125   5.139  12.183  13.078 -0.9994 -0.9205  1.2268
80800SOL    HW254126   5.244  12.259  13.156 -2.4564 -0.5767  2.9481
80801SOL     OW54127  11.417  13.199   0.504 -0.0829  0.0861 -0.2074
80801SOL    HW154128  11.466  13.195   0.586 -0.3136  1.3765  0.0117
80801SOL    HW254129  11.429  13.112   0.465  1.4285  0.0009  0.3722
80802SOL     OW54130   9.404   9.223  12.754  0.0665  0.3746 -0.2960
80802SOL    HW154131   9.403   9.145  12.809 -2.1212  1.7597  1.8089
80802SOL    HW254132   9.477   9.208  12.694 -0.5360 -3.4472 -0.3189
80803SOL     OW54133   8.694  10.912   1.285  0.6749 -0.3768 -0.2030
80803SOL    HW154134   8.744  10.856   1.345  0.3043 -1.6919 -1.0810
80803SOL    HW254135   8.604  10.882   1.294  0.6091 -0.5810 -1.3825
80804SOL     OW54136   0.664   2.229   7.591 -0.5121 -0.7929 -0.3470
80804SOL    HW154137   0.684   2.141   7.558 -2.1269 -1.3649  0.0775
80804SOL    HW254138   0.584   2.254   7.546  1.7066  2.0649 -3.1935
80805SOL     OW54139  12.303   5.536   0.662  0.5423  0.4394  0.3371
80805SOL    HW154140  12.391   5.570   0.673  0.0323  2.5640 -1.5297
80805SOL    HW254141  12.246   5.612   0.674 -1.0248 -0.7564  0.8648
80806SOL     OW54142   0.225   3.524   2.672 -0.0674  0.3159  0.3090
80806SOL    HW154143   0.219   3.612   2.710 -1.4631  1.0106 -1.3684
80806SOL    HW254144   0.142   3.483   2.694  0.0886 -0.1423  0.0563
80807SOL     OW54145   8.701   0.243  10.983 -0.4532 -0.5426 -0.4459
80807SOL    HW154146   8.794   0.234  10.966 -0.3280 -1.1959  0.5457
80807SOL    HW254147   8.691   0.333  11.015 -0.0260 -0.7474  0.2816
80808SOL     OW54148   7.616   8.694   8.893 -0.0507 -0.4998 -0.6103
80808SOL    HW154149   7.588   8.776   8.853  0.3868 -0.1397 -0.2033
80808SOL    HW254150   7.546   8.671   8.953  0.4190  0.3055  0.2779
80809SOL     OW54151   2.672   9.168   5.435  0.2664 -0.1207 -0.4049
80809SOL    HW154152   2.606   9.102   5.416  0.3991 -0.1847 -0.6475
80809SOL    HW254153   2.740   9.121   5.484 -1.1584  0.5199  2.4296
80810SOL     OW54154  12.639   6.865   9.464 -0.7014 -1.0620  0.2848
80810SOL    HW154155  12.625   6.772   9.451 -2.1534 -0.5997 -1.9214
80810SOL    HW254156  12.620   6.880   9.557 -2.0848 -2.6871  0.2905
80811SOL     OW54157   9.282   1.585   6.626 -0.6177  0.6151 -0.0064
80811SOL    HW154158   9.337   1.507   6.632  0.9796  1.7869  1.8429
80811SOL    HW254159   9.215   1.572   6.694 -0.3957  0.7982  0.2516
80812SOL     OW54160   0.860   4.906   0.201 -0.4015 -0.2292 -0.3933
80812SOL    HW154161   0.954   4.920   0.217 -0.7451  0.0525  1.6317
80812SOL    HW254162   0.830   4.989   0.163 -0.2079  0.4833  0.9353
80813SOL     OW54163   0.167   8.081  12.376 -0.3642  0.2431 -0.1503
80813SOL    HW154164   0.198   8.164  12.339  0.7844  0.2016  0.6806
80813SOL    HW254165   0.228   8.062  12.448 -0.8435 -1.1234 -0.0760
80814SOL     OW54166   6.852   2.926  11.796  0.4762 -0.4123  0.7542
80814SOL    HW154167   6.941   2.894  11.782  0.5472 -0.1934  0.6974
80814SOL    HW254168   6.860   2.993  11.864  0.3598 -0.3726  0.7301
80815SOL     OW54169   2.244   9.692   1.978  0.7536 -0.3630 -0.4171
80815SOL    HW154170   2.199   9.756   1.922 -1.1825 -0.3037  1.0939
80815SOL    HW254171   2.206   9.608   1.954  0.3127 -0.4027  0.3671
80816SOL     OW54172   8.975   4.451  12.173 -0.6650  0.1150  0.0680
80816SOL    HW154173   9.000   4.468  12.082 -2.4620  1.2212 -0.2632
80816SOL    HW254174   9.049   4.482  12.224 -0.7980  2.2506 -0.9170
80817SOL     OW54175   9.215   1.935   6.313  0.0765 -0.3181  0.3204
80817SOL    HW154176   9.197   1.842   6.305  1.3335 -0.4865 -1.0756
80817SOL    HW254177   9.279   1.953   6.244 -0.0152  1.5451  0.6641
80818SOL     OW54178   2.364   7.228  10.507  0.2803  0.3832  0.4111
80818SOL    HW154179   2.419   7.172  10.453  0.6472  1.3150 -0.2109
80818SOL    HW254180   2.424   7.293  10.543 -0.1547  0.4612  1.0102
80819SOL     OW54181  12.980  12.701   8.214 -0.0742  0.2053  0.0520
80819SOL    HW154182  12.994  12.759   8.140 -0.5400 -0.8565 -0.9034
80819SOL    HW254183  13.009  12.615   8.184 -0.1794 -0.2325  1.1306
80820SOL     OW54184  12.788   3.845   5.105  0.5164  0.1934 -0.7907
80820SOL    HW154185  12.696   3.857   5.083  0.0540 -0.7715  0.4819
80820SOL    HW254186  12.810   3.923   5.156 -0.1633 -0.4271  0.5099
80821SOL     OW54187   8.411   6.531   9.043 -0.3466 -0.3784  0.4616
80821SOL    HW154188   8.378   6.500   8.959 -2.5091  0.8982  0.7617
80821SOL    HW254189   8.492   6.482   9.056  0.1520 -0.5252 -2.4149
80822SOL     OW54190   9.560   9.205   6.481  0.1064  0.0543 -0.1296
80822SOL    HW154191   9.576   9.151   6.403 -0.8241 -0.1428 -0.1862
80822SOL    HW254192   9.570   9.145   6.555 -1.4839 -0.3568 -0.2148
80823SOL     OW54193  11.764  11.537   8.162 -0.3911 -0.0308 -0.6793
80823SOL    HW154194  11.734  11.543   8.253 -0.5604 -1.4203 -0.6257
80823SOL    HW254195  11.782  11.444   8.149  1.7941  0.4432 -1.3958
80824SOL     OW54196   4.057   9.238   3.160 -0.4285 -0.4882 -0.0264
80824SOL    HW154197   4.112   9.209   3.233 -2.6902 -1.9315  1.2553
80824SOL    HW254198   4.064   9.168   3.095  0.6354  0.2043 -0.6660
80825SOL     OW54199   4.565   2.647  10.456 -0.0615  0.1183  0.0705
80825SOL    HW154200   4.486   2.688  10.492 -0.5243  0.2644 -1.0747
80825SOL    HW254201   4.629   2.718  10.454 -0.8149  0.8338 -1.7614
80826SOL     OW54202   8.728  10.728   2.062 -0.5807  0.8434 -0.0590
80826SOL    HW154203   8.642  10.709   2.100 -1.1635  0.5972 -1.4549
80826SOL    HW254204   8.791  10.698   2.128 -1.5452 -0.4997  0.2866
80827SOL     OW54205   5.689  11.278  11.022 -0.2802 -0.1510  0.4307
80827SOL    HW154206   5.721  11.368  11.032 -1.8999  0.3896  1.1240
80827SOL    HW254207   5.727  11.248  10.940 -2.5068  2.4688 -1.7528
80828SOL     OW54208  10.197   4.320  12.172 -0.4909 -0.0751  0.1728
80828SOL    HW154209  10.120   4.289  12.125 -0.2202 -0.8196  0.2135
80828SOL    HW254210  10.166   4.336  12.261 -0.9354  1.0630 -0.1606
80829SOL     OW54211   3.594   9.515  13.187  0.1753  0.0106  0.1102
80829SOL    HW154212   3.554   9.428  13.182  1.2419 -0.5240  0.6089
80829SOL    HW254213   3.651   9.511  13.263  0.6125  0.9916 -0.1510
80830SOL     OW54214  12.352   5.217   2.664 -0.3778  0.2577  0.3987
80830SOL    HW154215  12.447   5.216   2.675 -0.1096 -0.2205 -1.5062
80830SOL    HW254216  12.329   5.310   2.656  0.3760  0.3026 -1.9423
80831SOL     OW54217   8.013   2.846   1.873 -0.2462 -0.2388 -0.0672
80831SOL    HW154218   8.074   2.844   1.946 -0.1669 -0.4974 -0.1375
80831SOL    HW254219   8.020   2.934   1.837  1.0379 -0.6411 -0.8789
80832SOL     OW54220  13.296   3.298  13.105  0.3393 -0.2477  0.1480
80832SOL    HW154221  13.313   3.371  13.164  2.8112  0.4424 -1.2666
80832SOL    HW254222  13.251   3.338  13.030  0.4922 -0.4285 -0.0415
80833SOL     OW54223  10.838   5.299   6.147 -0.3392  0.2861 -0.2776
80833SOL    HW154224  10.851   5.334   6.059 -3.5213  0.3055 -0.8561
80833SOL    HW254225  10.849   5.204   6.138  0.7104  0.4068 -0.3618
80834SOL     OW54226  13.371  10.290   3.135  0.3362 -0.6073 -0.1953
80834SOL    HW154227  13.375  10.356   3.204  2.3428 -1.4579  0.5730
80834SOL    HW254228  13.425  10.324   3.065  0.7765 -1.0761 -0.0941
80835SOL     OW54229   4.546   1.835   7.916  0.3937  0.1831  0.1770
80835SOL    HW154230   4.507   1.830   8.003  0.5548 -0.1592  0.2319
80835SOL    HW254231   4.481   1.793   7.859 -0.3964  1.7370 -0.1140
80836SOL     OW54232   9.612   9.295   0.823 -0.2945 -0.1727 -1.1443
80836SOL    HW154233   9.695   9.262   0.858 -1.1800 -0.8436  0.4213
80836SOL    HW254234   9.616   9.390   0.839 -1.0007 -0.5379  1.6875
80837SOL     OW54235   2.111   0.422  11.558 -0.1400 -0.0091  0.0638
80837SOL    HW154236   2.149   0.445  11.643 -0.4931 -1.9632  0.8164
80837SOL    HW254237   2.065   0.340  11.574 -2.3571  0.8407 -1.4561
80838SOL     OW54238  13.448   1.137   8.050 -0.6213 -0.1885 -0.4516
80838SOL    HW154239  13.537   1.167   8.071 -0.9251 -0.2643  1.1152
80838SOL    HW254240  13.400   1.148   8.132 -1.7105 -1.4142 -0.8962
80839SOL     OW54241   2.032   8.245   4.467 -0.1833 -0.0126 -0.3354
80839SOL    HW154242   2.000   8.302   4.397  0.8010 -0.2102 -0.9604
80839SOL    HW254243   2.000   8.286   4.547 -1.0470  0.3984 -0.8787
80840SOL     OW54244   2.047   2.530   1.890 -0.0087  0.4760 -0.5977
80840SOL    HW154245   2.091   2.482   1.961 -1.4778 -0.3522 -0.2056
80840SOL    HW254246   1.985   2.587   1.935 -0.8069  0.0945 -1.1925
80841SOL     OW54247   2.092   5.038   8.425 -0.2712  0.1287 -0.7182
80841SOL    HW154248   2.100   5.078   8.512  0.4786 -1.1073 -0.1933
80841SOL    HW254249   2.122   5.106   8.365  1.8597  0.1006  0.2305
80842SOL     OW54250  10.405  10.835   9.530 -0.4047 -0.3154 -0.5771
80842SOL    HW154251  10.427  10.832   9.436 -0.2807  0.1371 -0.5633
80842SOL    HW254252  10.322  10.882   9.534 -1.6885 -2.4395 -0.6725
80843SOL     OW54253   3.721   8.836  11.443 -0.2029 -0.0301  0.2691
80843SOL    HW154254   3.755   8.791  11.365  0.2709  1.2367 -0.2924
80843SOL    HW254255   3.784   8.906  11.458 -1.6849  1.3544  0.2208
80844SOL     OW54256   9.427   0.144  11.836 -1.0394 -0.0630 -0.2540
80844SOL    HW154257   9.451   0.052  11.828 -0.7969 -0.2126  1.5667
80844SOL    HW254258   9.455   0.168  11.925  0.9637  2.3899 -1.4288
80845SOL     OW54259  11.991   9.680   5.192 -0.0419 -0.4367 -0.2362
80845SOL    HW154260  12.012   9.673   5.099  0.6882 -1.0570 -0.0334
80845SOL    HW254261  11.921   9.616   5.205 -0.4645 -0.0216 -0.4458
80846SOL     OW54262  10.165   8.346   1.758 -0.4446 -0.3562 -0.4817
80846SOL    HW154263  10.193   8.432   1.728 -0.7409  0.2863  1.0290
80846SOL    HW254264  10.209   8.285   1.698 -0.3315  0.8251 -1.6552
80847SOL     OW54265   2.114   7.133   3.475 -0.3490  0.6174 -0.4761
80847SOL    HW154266   2.025   7.149   3.442 -0.3380  1.4350 -0.1420
80847SOL    HW254267   2.113   7.041   3.502 -1.2470  0.7405 -0.0462
80848SOL     OW54268   9.644   6.581   9.562  0.1916 -0.0143 -0.1590
80848SOL    HW154269   9.661   6.488   9.577  2.2982  0.2546 -0.5806
80848SOL    HW254270   9.730   6.622   9.567 -0.8670  2.1688  1.5682
80849SOL     OW54271  10.448  10.856   0.765  0.2842  0.5814  0.3253
80849SOL    HW154272  10.468  10.831   0.855 -1.0108 -2.0685 -0.0099
80849SOL    HW254273  10.520  10.913   0.739  2.2132 -0.8829  2.1320
80850SOL     OW54274   8.003   2.396  11.616  0.5611 -0.1047  0.5133
80850SOL    HW154275   8.003   2.333  11.689 -0.9629  1.3433  1.8317
80850SOL    HW254276   8.069   2.461  11.641  1.4022 -0.5880 -0.3609
80851SOL     OW54277  13.206  12.730  11.153  0.0907 -0.4185 -0.4289
80851SOL    HW154278  13.156  12.786  11.094  1.9765  0.6587 -1.0900
80851SOL    HW254279  13.163  12.739  11.237 -0.9540  0.2867 -1.0213
80852SOL     OW54280   2.414   8.800   2.140  0.5337 -0.3395  0.4258
80852SOL    HW154281   2.441   8.740   2.209 -0.0962 -2.1486 -0.8285
80852SOL    HW254282   2.347   8.855   2.181  0.2624 -1.2809  1.2901
80853SOL     OW54283  13.296   5.230  11.736 -0.3341  0.2823 -0.1745
80853SOL    HW154284  13.326   5.159  11.680  0.4860  0.6964 -0.2909
80853SOL    HW254285  13.336   5.213  11.821 -3.8941 -1.9588  1.2567
80854SOL     OW54286  10.962   5.986   6.704 -0.8095 -0.3191  0.2519
80854SOL    HW154287  10.918   6.029   6.778 -0.8498 -1.7361  1.0987
80854SOL    HW254288  10.926   5.898   6.703 -0.5794 -0.4125 -1.2996
80855SOL     OW54289   3.078   9.871  10.110  0.3171 -0.0372 -0.0829
80855SOL    HW154290   3.138   9.946  10.111  0.7740 -0.3893 -0.6193
80855SOL    HW254291   3.001   9.901  10.158  0.3312  0.9057 -0.6296
80856SOL     OW54292   6.542   2.084   0.464 -0.1268 -0.3068 -0.4326
80856SOL    HW154293   6.472   2.095   0.400  1.0255 -1.3278 -1.9263
80856SOL    HW254294   6.604   2.155   0.444  0.4310 -0.8695 -0.7168
80857SOL     OW54295   3.432   8.296   1.425  0.3104  0.1369 -0.0102
80857SOL    HW154296   3.463   8.370   1.372 -1.6098  0.3823 -0.8783
80857SOL    HW254297   3.370   8.335   1.487 -0.6052 -0.6988 -0.3747
80858SOL     OW54298   4.533   0.821   1.614  0.1999  0.1624  0.1243
80858SOL    HW154299   4.515   0.911   1.643 -1.0533 -0.0636  0.1075
80858SOL    HW254300   4.525   0.768   1.694  0.3087 -0.0108  0.0215
80859SOL     OW54301   0.716  10.647   2.688 -0.2242  0.1784  0.0802
80859SOL    HW154302   0.680  10.734   2.708 -0.0539  0.4822 -0.8454
80859SOL    HW254303   0.699  10.636   2.594  0.1706 -0.5975  0.0931
80860SOL     OW54304   7.217  11.311   1.724 -0.1422 -0.6192 -0.0852
80860SOL    HW154305   7.238  11.361   1.802  1.9051  0.3702 -1.2081
80860SOL    HW254306   7.255  11.224   1.740 -0.4372 -0.6757  0.3284
80861SOL     OW54307   1.626  12.997   4.601 -0.1975 -0.3703  0.2225
80861SOL    HW154308   1.583  12.952   4.529  1.2762 -0.9173 -0.3643
80861SOL    HW254309   1.558  13.050   4.641 -1.2724 -0.8153 -0.9597
80862SOL     OW54310   4.302   3.372  11.987  0.0243  0.1433  0.5180
80862SOL    HW154311   4.274   3.447  12.039  0.4385  2.1220 -1.8853
80862SOL    HW254312   4.395   3.362  12.006 -0.2792 -0.5540  1.7124
80863SOL     OW54313   1.086   9.514   4.370 -0.3142 -0.4318  0.2824
80863SOL    HW154314   1.056   9.579   4.432  1.3472  2.8646 -2.0836
80863SOL    HW254315   1.174   9.491   4.399  0.2223  0.6442 -0.4271
80864SOL     OW54316   5.986   9.505  13.440 -0.4417  0.1088  0.2882
80864SOL    HW154317   6.068   9.471  13.477 -0.9377 -1.0666  0.3483
80864SOL    HW254318   5.955   9.435  13.382 -0.9616  0.9039 -0.4035
80865SOL     OW54319   5.363   4.274  10.040  0.4902 -0.1969  0.1514
80865SOL    HW154320   5.404   4.311   9.963  0.9013  1.7755  1.2626
80865SOL    HW254321   5.282   4.325  10.051 -1.3287 -2.6516 -0.8175
80866SOL     OW54322   5.717   6.346  11.093 -0.2831  0.3180  0.0225
80866SOL    HW154323   5.670   6.424  11.063 -1.1985 -0.4063 -0.4624
80866SOL    HW254324   5.784   6.380  11.152 -1.5051  1.3866  0.8502
80867SOL     OW54325   9.643   7.845  11.582  0.4268  0.0951  0.0270
80867SOL    HW154326   9.726   7.891  11.571 -0.2058  0.9786 -1.3435
80867SOL    HW254327   9.606   7.841  11.494 -1.2999  0.3336  0.7095
80868SOL     OW54328   7.775   9.309   2.576 -0.1909 -0.6290  0.2799
80868SOL    HW154329   7.726   9.298   2.657 -0.2797 -0.4813  0.2462
80868SOL    HW254330   7.780   9.404   2.563  0.6247 -0.6217  0.6008
80869SOL     OW54331  13.376  11.790   9.117  0.4750  0.1528  0.0302
80869SOL    HW154332  13.461  11.794   9.162  1.2032 -0.1107 -1.2587
80869SOL    HW254333  13.396  11.819   9.027 -0.6895 -0.4486 -0.4408
80870SOL     OW54334  11.544   0.097  12.013 -0.5667 -0.5523  0.2286
80870SOL    HW154335  11.574   0.055  12.093 -0.5361  0.2035  0.6208
80870SOL    HW254336  11.453   0.070  12.005 -0.1005 -2.0151 -0.4132
80871SOL     OW54337   2.526   2.815   2.341  0.1375 -0.4429  0.2639
80871SOL    HW154338   2.512   2.829   2.247  2.1727 -0.1833 -0.0535
80871SOL    HW254339   2.537   2.720   2.349 -2.5576 -0.8030  0.6952
80872SOL     OW54340   4.894   1.043   6.189  0.2305  0.6449  0.6078
80872SOL    HW154341   4.959   1.044   6.259 -0.6399 -0.9446  1.5209
80872SOL    HW254342   4.856   1.131   6.190  3.0345  1.9683 -0.6878
80873SOL     OW54343   9.811   4.834   6.562  0.1698  0.3319 -0.4015
80873SOL    HW154344   9.872   4.891   6.608  1.9536 -3.9187  3.2690
80873SOL    HW254345   9.736   4.827   6.621 -0.2027 -0.6913 -0.9689
80874SOL     OW54346   4.476   1.857   8.901 -0.0651 -0.6511 -0.4328
80874SOL    HW154347   4.505   1.945   8.880 -1.0016 -0.1697  0.2065
80874SOL    HW254348   4.394   1.869   8.949 -0.9009 -1.9078 -1.4547
80875SOL     OW54349   4.421  11.167   0.430  0.2037  0.4228  0.0651
80875SOL    HW154350   4.330  11.146   0.412 -0.1554  0.3025  1.8337
80875SOL    HW254351   4.450  11.099   0.490  2.3165 -1.1098 -2.4590
80876SOL     OW54352   7.840   9.980   0.540  0.1596 -0.2414  0.4577
80876SOL    HW154353   7.843  10.031   0.460  2.5059 -2.2652 -0.9023
80876SOL    HW254354   7.881   9.897   0.517 -2.7581 -2.5404  2.6920
80877SOL     OW54355  12.622  13.684   0.546  0.3460 -0.0012  0.1207
80877SOL    HW154356  12.688  13.616   0.558 -0.1547 -0.7068 -0.9333
80877SOL    HW254357  12.662  13.746   0.485  0.5755  0.3396  0.6140
80878SOL     OW54358   2.575   4.082   2.273  0.0228 -0.0834  0.4052
80878SOL    HW154359   2.490   4.071   2.230  0.2217 -0.7409  0.1742
80878SOL    HW254360   2.620   4.147   2.219 -0.1377 -0.1082  0.2402
80879SOL     OW54361  13.491   3.712   6.820 -0.3794  0.5421 -0.1671
80879SOL    HW154362  13.484   3.627   6.777 -0.7661  1.1224 -1.3000
80879SOL    HW254363  13.425   3.711   6.888 -0.8884  0.2085 -0.6640
80880SOL     OW54364  11.834   3.088  12.944  0.3926  0.0680  0.3278
80880SOL    HW154365  11.779   3.018  12.909 -0.1158  0.6093  0.0373
80880SOL    HW254366  11.816   3.088  13.038 -0.3145  0.4278  0.1942
80881SOL     OW54367   2.888   5.295   9.316 -0.2688 -0.3985 -0.3489
80881SOL    HW154368   2.850   5.295   9.403  0.8320 -2.5525  0.2047
80881SOL    HW254369   2.853   5.374   9.274 -1.4677  0.2419  1.7274
80882SOL     OW54370   3.327   5.832   7.583  0.3602  0.2268 -0.3385
80882SOL    HW154371   3.357   5.822   7.673 -0.6287  0.8854  0.0816
80882SOL    HW254372   3.356   5.752   7.539 -0.2256 -0.6924  0.8775
80883SOL     OW54373   0.583  11.412   0.385  0.2212 -0.1302  0.5852
80883SOL    HW154374   0.520  11.459   0.330 -0.9505 -2.4105 -0.1062
80883SOL    HW254375   0.530  11.364   0.447  1.4726  0.6928  2.3699
80884SOL     OW54376   7.467   9.209   7.712  0.3794  0.1501 -0.0348
80884SOL    HW154377   7.533   9.165   7.765 -0.8972 -1.4009  0.3509
80884SOL    HW254378   7.411   9.138   7.680 -1.5020  1.4323  0.2240
80885SOL     OW54379  10.827   3.272  11.287 -0.1372  0.2977  0.2292
80885SOL    HW154380  10.902   3.318  11.250 -0.1542  0.0014 -0.1770
80885SOL    HW254381  10.851   3.179  11.285  1.4184  0.3831  4.3092
80886SOL     OW54382   5.557   5.498  11.131  0.0819  0.5215 -0.1326
80886SOL    HW154383   5.568   5.426  11.192 -0.2630  0.7670  0.2224
80886SOL    HW254384   5.593   5.574  11.176  1.0894  0.4536 -0.7807
80887SOL     OW54385   9.718   9.811   8.277  0.0592 -0.1238 -0.0291
80887SOL    HW154386   9.760   9.896   8.262 -1.5326  0.7020  0.0156
80887SOL    HW254387   9.628   9.832   8.300 -0.0062 -1.7711  1.4708
80888SOL     OW54388   5.740   9.361   9.178 -0.1668  0.0862 -0.0028
80888SOL    HW154389   5.751   9.358   9.083 -0.3774  0.6544 -0.0504
80888SOL    HW254390   5.688   9.283   9.198 -1.0682  0.5474 -0.4916
80889SOL     OW54391  12.481   4.883   0.827 -0.1520  0.0991  0.1898
80889SOL    HW154392  12.487   4.809   0.767 -1.6580  0.3953 -0.3689
80889SOL    HW254393  12.473   4.842   0.914 -0.7463 -0.4080 -0.0919
80890SOL     OW54394   2.338   9.337   3.940  0.2422  0.1916 -0.5618
80890SOL    HW154395   2.309   9.420   3.902  2.4921  1.2043 -0.2554
80890SOL    HW254396   2.426   9.356   3.973  0.4785 -2.1091  0.2950
80891SOL     OW54397   5.331   4.367  13.116 -0.0634  0.3368 -0.1447
80891SOL    HW154398   5.286   4.451  13.116 -0.5255  0.1051 -1.0913
80891SOL    HW254399   5.300   4.322  13.194 -1.7793  0.0390 -0.9598
80892SOL     OW54400   9.307  10.049   7.079  0.4277  0.0631  0.0538
80892SOL    HW154401   9.342  10.055   7.168  1.5812  0.3779 -0.3982
80892SOL    HW254402   9.264  10.133   7.064  1.0431  0.3745 -0.0029
80893SOL     OW54403   2.750   6.739  11.822  0.0418 -0.2343 -0.0741
80893SOL    HW154404   2.665   6.696  11.825 -0.0199 -0.0898  0.2086
80893SOL    HW254405   2.742   6.804  11.751 -0.3246  0.2947  0.4458
80894SOL     OW54406   9.254   7.445   0.464  0.2452 -0.4148 -0.1295
80894SOL    HW154407   9.289   7.367   0.420 -2.0191 -1.6877  0.1857
80894SOL    HW254408   9.269   7.516   0.401  1.9521 -1.1366 -0.6121
80895SOL     OW54409  12.853   0.052   7.071 -0.1656  0.5364  0.3673
80895SOL    HW154410  12.873   0.141   7.099  2.1253 -0.6098  2.8891
80895SOL    HW254411  12.810   0.013   7.147  0.5456 -0.9849  0.0226
80896SOL     OW54412   9.978   2.329   7.471  0.3327  0.5470 -0.3499
80896SOL    HW154413   9.980   2.415   7.514 -0.0428 -0.5060  1.8868
80896SOL    HW254414  10.039   2.275   7.521 -0.8626 -1.0254 -0.5211
80897SOL     OW54415   4.726   1.416   8.792 -0.3307  0.4464 -0.3384
80897SOL    HW154416   4.674   1.401   8.713 -0.7968 -0.5015  0.1178
80897SOL    HW254417   4.809   1.451   8.761 -0.9473  1.2167 -1.1488
80898SOL     OW54418   1.349   7.416   2.079 -0.5295  0.0028 -0.0861
80898SOL    HW154419   1.288   7.407   2.153 -1.8843  0.0004 -1.1686
80898SOL    HW254420   1.300   7.382   2.004  0.6525  0.4463 -1.0778
80899SOL     OW54421  12.508   6.762   7.290  0.1101  0.6221  0.4566
80899SOL    HW154422  12.559   6.810   7.224  0.6325  1.4002  1.3905
80899SOL    HW254423  12.456   6.700   7.239 -0.7897  2.3521 -0.8483
80900SOL     OW54424   1.476   9.400   4.368 -0.2606 -0.7514  0.3572
80900SOL    HW154425   1.518   9.315   4.381  1.5920 -0.2598 -1.8337
80900SOL    HW254426   1.419   9.410   4.445  1.1457 -2.9483  1.8108
80901SOL     OW54427   1.608  10.681   8.258 -0.3996 -0.0576  0.8037
80901SOL    HW154428   1.684  10.669   8.315 -0.3135  1.6220  1.1106
80901SOL    HW254429   1.533  10.668   8.316 -0.3291 -0.5688  0.7777
80902SOL     OW54430   4.979   4.764   6.310 -0.3638 -0.0111 -0.6698
80902SOL    HW154431   5.063   4.767   6.263 -0.2474 -3.2523 -0.8303
80902SOL    HW254432   4.913   4.778   6.243 -0.0527 -0.9731 -1.1922
80903SOL     OW54433   3.256   6.527   9.691  0.8058 -0.1798  0.5980
80903SOL    HW154434   3.300   6.558   9.771 -0.2753  0.6058  0.9113
80903SOL    HW254435   3.325   6.482   9.642  1.5483 -0.5041  1.8756
80904SOL     OW54436   1.034   1.834   9.060  0.0496 -0.2933  0.4244
80904SOL    HW154437   1.088   1.894   9.008 -1.5484  2.1010  1.3939
80904SOL    HW254438   1.095   1.793   9.121  1.0662  0.9787  0.2902
80905SOL     OW54439   6.897   8.519   7.231 -0.0607  0.1554 -0.0740
80905SOL    HW154440   6.916   8.475   7.148  1.8195 -0.3354  0.5711
80905SOL    HW254441   6.946   8.601   7.227  0.7248 -0.2439  0.8569
80906SOL     OW54442  12.423   2.275  12.716 -0.1442 -0.0820 -0.1791
80906SOL    HW154443  12.376   2.348  12.676  0.4673  0.2810 -0.2616
80906SOL    HW254444  12.516   2.297  12.703  0.0507 -0.5522  0.3760
80907SOL     OW54445   4.208  12.577   0.219 -0.4747  0.2910 -0.0107
80907SOL    HW154446   4.137  12.542   0.165 -0.0471 -0.8571  0.1304
80907SOL    HW254447   4.287  12.562   0.166 -0.3813  2.3453 -0.5533
80908SOL     OW54448   7.638   3.887   0.811 -0.2130 -0.0664 -0.4268
80908SOL    HW154449   7.549   3.852   0.808 -0.1226 -0.2369 -3.3679
80908SOL    HW254450   7.626   3.980   0.834 -0.8141 -0.7344  2.3903
80909SOL     OW54451  12.175   6.840   1.331 -0.1756 -0.7050  0.1390
80909SOL    HW154452  12.226   6.820   1.252 -1.0294 -0.6935 -0.4238
80909SOL    HW254453  12.204   6.927   1.358  0.7282 -1.0515  0.3385
80910SOL     OW54454   0.440  13.621  11.777 -0.2472  0.2949 -0.4896
80910SOL    HW154455   0.420  13.540  11.824  0.4054 -0.5185 -1.5457
80910SOL    HW254456   0.472  13.681  11.844 -5.2470  1.5012  1.2618
80911SOL     OW54457   8.295   8.216  10.119 -0.1824  0.0563  0.1992
80911SOL    HW154458   8.249   8.296  10.093 -0.5986  0.0992  1.0128
80911SOL    HW254459   8.388   8.236  10.109 -0.2577  0.8807  1.0309
80912SOL     OW54460   0.735  10.990  13.380  0.0163  0.2967 -0.3105
80912SOL    HW154461   0.812  11.002  13.436 -1.0750  1.8827  0.9611
80912SOL    HW254462   0.680  10.929  13.429  0.7813 -1.5339 -1.6248
80913SOL     OW54463  10.113  12.365   3.796 -0.1187 -0.0430 -0.0948
80913SOL    HW154464  10.157  12.436   3.843  0.2207  0.0309 -0.5179
80913SOL    HW254465  10.028  12.402   3.772  0.3023  0.4489 -0.8689
80914SOL     OW54466   5.503   8.745   6.246  0.0679 -0.5776  0.2377
80914SOL    HW154467   5.517   8.775   6.335  0.2059  3.5182 -0.9453
80914SOL    HW254468   5.590   8.732   6.210  0.0791 -0.4036  0.1988
80915SOL     OW54469   6.766   6.228   5.589  0.3954 -0.0710 -0.2543
80915SOL    HW154470   6.751   6.307   5.537 -1.1561 -1.0365 -1.3515
80915SOL    HW254471   6.680   6.186   5.595  0.6876 -0.4875  2.3476
80916SOL     OW54472   5.101   1.762   1.904  0.1727 -0.3498  0.0084
80916SOL    HW154473   5.179   1.713   1.880 -0.3386 -0.3846 -1.7259
80916SOL    HW254474   5.064   1.790   1.821 -0.8153  1.0111  0.8630
80917SOL     OW54475  10.851   7.802  10.097 -0.6888 -0.7802  0.3092
80917SOL    HW154476  10.929   7.748  10.094  0.2080  0.4947 -2.9126
80917SOL    HW254477  10.783   7.749  10.056 -0.8861 -0.9402  0.8318
80918SOL     OW54478   4.766   9.515   1.615 -0.2654 -0.1671  0.2521
80918SOL    HW154479   4.783   9.572   1.690  1.5349 -0.3428  0.0249
80918SOL    HW254480   4.782   9.426   1.647 -1.4941 -0.4407  0.1760
80919SOL     OW54481   0.403   8.029   5.651 -0.5051 -0.2792  0.1814
80919SOL    HW154482   0.399   8.041   5.746 -0.1656 -1.3782  0.3414
80919SOL    HW254483   0.477   7.970   5.637 -0.8506 -0.5125 -0.7318
80920SOL     OW54484   0.943   3.558  10.420  0.0138 -0.0155 -0.0003
80920SOL    HW154485   1.036   3.574  10.430 -0.0464 -0.0001  0.5663
80920SOL    HW254486   0.902   3.644  10.431 -0.3538 -0.4884  3.5806
80921SOL     OW54487   7.428   6.198  12.665 -0.7566  0.2633  0.1875
80921SOL    HW154488   7.450   6.289  12.643  1.2031 -0.2282 -0.0495
80921SOL    HW254489   7.409   6.157  12.581  1.0265 -0.1791 -0.0368
80922SOL     OW54490   3.690  13.516  11.465 -0.2381  0.0762 -0.5594
80922SOL    HW154491   3.653  13.432  11.493  0.5659 -1.2465 -3.1790
80922SOL    HW254492   3.650  13.533  11.380  2.3879  0.3866 -1.8322
80923SOL     OW54493   0.640   8.045   8.875  0.0564  0.4928 -0.0773
80923SOL    HW154494   0.696   7.971   8.850 -1.2908  0.1242 -2.2702
80923SOL    HW254495   0.551   8.011   8.872 -0.4045  1.1774  2.9732
80924SOL     OW54496   7.902  13.016   9.658 -0.8513 -0.0258 -0.2979
80924SOL    HW154497   7.913  12.970   9.575  2.2755  1.3975 -0.8265
80924SOL    HW254498   7.962  12.973   9.718 -0.7405  0.9261  0.3000
80925SOL     OW54499   2.854   0.709   7.854  0.1872 -0.8331  0.1454
80925SOL    HW154500   2.910   0.779   7.888  0.6572 -0.1631 -1.9046
80925SOL    HW254501   2.915   0.646   7.816 -0.3155 -1.7219  0.7583
80926SOL     OW54502   8.239  10.621   6.942  0.2714  0.1243  0.4483
80926SOL    HW154503   8.273  10.701   6.902 -0.9341 -0.3440 -1.6367
80926SOL    HW254504   8.296  10.552   6.908  0.7170 -0.0360  1.4874
80927SOL     OW54505   5.540  13.577   0.509  0.1418 -0.0592 -0.2125
80927SOL    HW154506   5.634  13.583   0.528  0.1213 -2.5510  1.0543
80927SOL    HW254507   5.536  13.557   0.415  0.8598  0.2311 -0.3119
80928SOL     OW54508   4.188   8.107   7.843 -0.4871  0.0018 -0.4446
80928SOL    HW154509   4.135   8.163   7.901  0.9494  1.0044 -0.0566
80928SOL    HW254510   4.221   8.038   7.901 -2.5507 -1.5583 -0.9915
80929SOL     OW54511   4.863   6.060   6.970  0.0481 -0.1475 -0.1508
80929SOL    HW154512   4.910   6.006   7.034 -1.2688 -0.2006  0.8105
80929SOL    HW254513   4.817   5.997   6.915  1.3074 -0.1081 -1.2954
80930SOL     OW54514  12.392   9.530   8.980 -0.3035 -0.1009  0.2222
80930SOL    HW154515  12.309   9.572   9.001  0.9309  1.9535  1.2414
80930SOL    HW254516  12.414   9.562   8.893 -0.5409 -0.6322 -0.0411
80931SOL     OW54517   2.429  13.047   8.856 -0.5448 -0.3372  0.3414
80931SOL    HW154518   2.442  13.138   8.882 -2.5549  0.1464 -0.1248
80931SOL    HW254519   2.513  13.005   8.871  0.3944  1.5638  0.6965
80932SOL     OW54520  11.653   8.285   0.412 -1.0276 -0.3350 -0.0900
80932SOL    HW154521  11.588   8.324   0.471 -0.4781 -0.7164  0.7905
80932SOL    HW254522  11.713   8.357   0.392 -1.0766 -0.2650  0.0149
80933SOL     OW54523  10.812   1.532  10.778  0.1545  0.2050 -0.7193
80933SOL    HW154524  10.806   1.441  10.748  1.1405 -0.6189  1.4084
80933SOL    HW254525  10.899   1.539  10.817  0.0357  2.0467 -0.7054
80934SOL     OW54526  12.893   7.359  12.147 -0.1661 -0.0964  0.4406
80934SOL    HW154527  12.841   7.315  12.080 -0.7810  2.8717 -1.1934
80934SOL    HW254528  12.983   7.333  12.129 -0.5492 -1.1209 -0.0673
80935SOL     OW54529   7.450   8.159  10.769 -0.1493 -1.0998  0.2318
80935SOL    HW154530   7.415   8.071  10.757  0.8600 -1.5863  0.7426
80935SOL    HW254531   7.479   8.161  10.860  0.1532 -0.3442  0.1276
80936SOL     OW54532   6.330   8.416   7.191 -0.5083 -0.1165  0.1843
80936SOL    HW154533   6.251   8.465   7.212  0.1347  1.4110 -0.8121
80936SOL    HW254534   6.314   8.380   7.104  0.3297  1.2284 -0.5554
80937SOL     OW54535   5.583   7.880  13.410 -0.1523  0.1067 -0.4680
80937SOL    HW154536   5.561   7.788  13.425 -1.5062  0.3604 -0.7378
80937SOL    HW254537   5.627   7.908  13.490 -0.8041 -0.4723  0.1133
80938SOL     OW54538  10.864   7.179   1.719  0.0656 -0.3580  0.2574
80938SOL    HW154539  10.917   7.216   1.789 -0.0172  1.4451 -0.5648
80938SOL    HW254540  10.912   7.102   1.689 -0.7228 -2.2228  3.3563
80939SOL     OW54541  12.852  10.589  11.167 -0.4949 -0.3711  1.0721
80939SOL    HW154542  12.880  10.502  11.196  1.0451 -0.1015  0.4354
80939SOL    HW254543  12.906  10.609  11.091 -0.7339  1.1994  1.2721
80940SOL     OW54544  13.388   2.568  12.296  0.2419  0.5077  0.9536
80940SOL    HW154545  13.295   2.578  12.318 -0.0768 -0.0501 -0.0388
80940SOL    HW254546  13.420   2.499  12.354 -0.1216  0.3101  0.9247
80941SOL     OW54547  12.862   9.151   0.768 -0.0383  1.0307 -0.5657
80941SOL    HW154548  12.899   9.231   0.804 -0.3436  0.3256  1.5047
80941SOL    HW254549  12.778   9.178   0.730  1.5413  2.2847 -3.4477
80942SOL     OW54550   1.458   3.396   0.200 -0.3069 -0.1952  0.0608
80942SOL    HW154551   1.453   3.434   0.288  0.1828  2.1213 -0.8409
80942SOL    HW254552   1.367   3.386   0.172 -0.4615  0.9140  0.1184
80943SOL     OW54553   3.231   9.998   6.220  0.4188 -0.6072 -0.1419
80943SOL    HW154554   3.298  10.054   6.181  1.4249 -0.2783  1.9002
80943SOL    HW254555   3.208  10.042   6.301  0.0948 -2.3565  0.7615
80944SOL     OW54556   7.989   0.969   1.503  0.4402 -0.0959  0.0426
80944SOL    HW154557   7.974   1.040   1.440 -0.1982 -0.7958 -0.6092
80944SOL    HW254558   8.077   0.938   1.483  0.5329  0.1861  0.0037
80945SOL     OW54559   6.295   4.593   3.419  0.1499  0.3249  0.5379
80945SOL    HW154560   6.347   4.591   3.338 -1.4472  1.6845 -0.5893
80945SOL    HW254561   6.264   4.503   3.430  0.4190  0.1162 -0.3355
80946SOL     OW54562   9.013   3.572   3.582 -0.2272  0.3131  0.5398
80946SOL    HW154563   9.005   3.641   3.647  2.1394  1.7226 -0.5255
80946SOL    HW254564   9.081   3.603   3.522  0.5438 -2.6853 -0.3402
80947SOL     OW54565  10.205  13.366  11.920  0.2392  0.1478  0.1220
80947SOL    HW154566  10.266  13.377  11.847 -2.5788 -0.0251 -2.4228
80947SOL    HW254567  10.185  13.272  11.921  0.4904  0.0859  1.3996
80948SOL     OW54568  12.133  11.839   2.939 -0.0013 -0.3919 -0.8546
80948SOL    HW154569  12.177  11.895   3.003 -1.4947  0.5320 -0.5916
80948SOL    HW254570  12.172  11.864   2.855  1.7857 -1.4290 -0.3845
80949SOL     OW54571  10.067   8.122   4.732  0.1663  0.2452 -0.2573
80949SOL    HW154572  10.157   8.112   4.701  0.3872  0.4722  0.2857
80949SOL    HW254573  10.029   8.034   4.726  0.7308 -0.0556  0.4304
80950SOL     OW54574   4.317  11.209   8.956  0.2397 -0.0295  0.1606
80950SOL    HW154575   4.248  11.263   8.918  2.1068  2.5144  0.1832
80950SOL    HW254576   4.299  11.210   9.050 -0.7572 -1.0413  0.0079
80951SOL     OW54577   8.318  11.783   6.703 -0.0267 -0.1924 -0.6209
80951SOL    HW154578   8.268  11.768   6.782  0.0122 -1.8747 -0.8822
80951SOL    HW254579   8.404  11.812   6.734  0.0862 -1.1339 -0.0215
80952SOL     OW54580  10.025   8.573  13.654 -0.0128  0.1546  0.8067
80952SOL    HW154581  10.114   8.582  13.620 -0.2341 -0.6783 -0.0414
80952SOL    HW254582  10.033   8.587  13.748  0.4950  3.5149  0.3913
80953SOL     OW54583   6.360   8.108   7.550 -0.4163 -0.9780 -0.3443
80953SOL    HW154584   6.287   8.165   7.572 -0.4085 -0.8217 -0.7206
80953SOL    HW254585   6.405   8.152   7.478  1.0126 -0.2704  0.9411
80954SOL     OW54586  12.570  11.692   3.030  0.2133 -0.1471 -0.4423
80954SOL    HW154587  12.630  11.645   2.972 -1.5176 -0.2115 -2.2690
80954SOL    HW254588  12.483  11.667   3.001 -0.7549  0.3000  1.8409
80955SOL     OW54589  12.358  11.077   3.928  0.0749  0.8967 -0.1554
80955SOL    HW154590  12.339  11.101   3.837  0.7084  0.3649 -0.4363
80955SOL    HW254591  12.438  11.125   3.949  0.2397  0.5809 -0.0621
80956SOL     OW54592   9.481   2.133   9.976 -0.3447  0.6370 -0.8022
80956SOL    HW154593   9.405   2.081   9.951 -0.3186  0.8863 -1.4062
80956SOL    HW254594   9.444   2.204  10.029 -0.1179 -1.5475  2.5883
80957SOL     OW54595   9.366   3.002   5.093 -0.5273  0.2692 -0.0859
80957SOL    HW154596   9.457   3.013   5.066 -0.2462  0.8712  1.0484
80957SOL    HW254597   9.329   3.090   5.089 -1.0020  0.0630 -0.3225
80958SOL     OW54598   5.794   0.794  11.773  0.9641  1.1947 -0.3729
80958SOL    HW154599   5.849   0.862  11.734 -0.8940  2.6453 -0.6117
80958SOL    HW254600   5.758   0.746  11.699  0.2162  1.6712 -0.3312
80959SOL     OW54601   7.118   1.025  13.144 -0.2205 -0.0376 -0.4875
80959SOL    HW154602   7.120   1.086  13.070 -0.3907  0.6231  0.0449
80959SOL    HW254603   7.195   0.969  13.132  1.6079  2.0969  0.5280
80960SOL     OW54604   8.533   6.555   1.423  0.5574 -0.3640  0.1233
80960SOL    HW154605   8.471   6.490   1.455  0.1546  0.8989  2.0709
80960SOL    HW254606   8.533   6.543   1.328 -1.8090 -1.1751  0.1535
80961SOL     OW54607   6.320   4.093   9.251 -0.1176  0.0236 -0.4868
80961SOL    HW154608   6.338   4.149   9.327  1.0194 -0.6222 -0.2543
80961SOL    HW254609   6.337   4.004   9.282 -1.5557 -0.4447 -0.9552
80962SOL     OW54610  13.243   0.259   3.224 -0.1689  0.1709  0.5043
80962SOL    HW154611  13.336   0.271   3.245 -0.1907  1.3233  0.0205
80962SOL    HW254612  13.215   0.186   3.279  0.6287  0.8412  1.8553
80963SOL     OW54613   4.415   4.052   8.254 -0.6407 -0.1588  0.1319
80963SOL    HW154614   4.384   4.097   8.175 -0.0200 -0.2073 -0.1456
80963SOL    HW254615   4.434   4.122   8.316 -0.5469 -0.0835  0.0204
80964SOL     OW54616  11.023   2.618  12.409  0.6028  0.3394  0.2110
80964SOL    HW154617  10.946   2.671  12.390 -0.5320 -2.1394 -2.9914
80964SOL    HW254618  10.997   2.564  12.484 -0.3272  0.3681 -0.0826
80965SOL     OW54619   2.055   5.423   4.709  0.7345  0.5983  0.1968
80965SOL    HW154620   1.971   5.437   4.753 -0.9148 -0.6821 -2.2949
80965SOL    HW254621   2.075   5.330   4.723  1.2997  0.6910  0.0471
80966SOL     OW54622   5.771   5.756  10.830 -0.1024  0.5459 -0.0235
80966SOL    HW154623   5.751   5.848  10.813  1.2051  1.1265  1.3747
80966SOL    HW254624   5.767   5.748  10.926 -1.2364 -1.1210 -0.1622
80967SOL     OW54625   5.874  10.570  10.891 -0.4414 -0.0312 -0.0652
80967SOL    HW154626   5.842  10.539  10.806  2.0531 -1.2686 -0.6331
80967SOL    HW254627   5.897  10.490  10.938 -0.6360  0.7022  1.3412
80968SOL     OW54628  12.970   5.687   9.836  0.5903 -0.2628  0.2331
80968SOL    HW154629  12.906   5.675   9.906  1.3110  0.0749  0.9599
80968SOL    HW254630  12.924   5.657   9.757 -1.0322  1.4115  0.4566
80969SOL     OW54631   9.870   8.550   4.163 -0.0478  0.5182  0.5468
80969SOL    HW154632   9.851   8.516   4.075 -1.5152 -2.9840  2.0129
80969SOL    HW254633   9.785   8.578   4.197  0.4851  1.7436  0.9125
80970SOL     OW54634   3.115   3.411   5.504  0.6595  0.1454 -0.0661
80970SOL    HW154635   3.198   3.435   5.545  0.9013  0.6036 -0.8047
80970SOL    HW254636   3.109   3.316   5.515  3.0307 -0.5113 -3.0577
80971SOL     OW54637   9.890   8.622   5.042  0.0008  0.0372  0.2238
80971SOL    HW154638   9.951   8.586   4.977 -0.1971 -0.6338  0.3938
80971SOL    HW254639   9.929   8.705   5.068 -0.4503  0.8267 -1.5194
80972SOL     OW54640   8.262   6.694   0.399 -0.1392  0.3403  0.2063
80972SOL    HW154641   8.338   6.695   0.458 -0.4123 -0.2256  0.5787
80972SOL    HW254642   8.196   6.643   0.446 -0.9479  1.2809  0.1201
80973SOL     OW54643   1.373   6.566   5.217  0.3581 -0.3941  0.2483
80973SOL    HW154644   1.365   6.646   5.269 -0.8867 -2.0644  2.8311
80973SOL    HW254645   1.283   6.541   5.197  0.5986 -2.1615  1.2085
80974SOL     OW54646   2.117   2.314   3.468  0.3619 -0.1088  0.1998
80974SOL    HW154647   2.115   2.243   3.404  1.0706 -0.5438  0.6486
80974SOL    HW254648   2.030   2.311   3.509 -0.1874  0.3418 -0.9079
80975SOL     OW54649   9.819   0.227   9.732  0.5289 -0.2724  0.9540
80975SOL    HW154650   9.800   0.138   9.704  1.8398 -0.4007  0.3921
80975SOL    HW254651   9.777   0.283   9.667  2.3613 -0.5558 -0.5663
80976SOL     OW54652   7.014  13.497  11.935  0.3682 -0.1353  0.2152
80976SOL    HW154653   7.050  13.560  11.997 -0.4732  2.2792 -1.5933
80976SOL    HW254654   7.046  13.525  11.850 -0.3398 -1.9745 -0.7285
80977SOL     OW54655   9.791   6.558   4.981  0.1771 -0.6919  0.8319
80977SOL    HW154656   9.797   6.632   5.041  0.6663 -1.3339  1.5946
80977SOL    HW254657   9.698   6.553   4.959  0.0038 -0.3778  1.4544
80978SOL     OW54658  10.054   0.254  11.574 -0.0576  0.0923 -0.1836
80978SOL    HW154659  10.066   0.196  11.649  0.3965  0.9009  0.3903
80978SOL    HW254660  10.120   0.225  11.510 -0.3494 -0.5028 -0.2234
80979SOL     OW54661   6.156   3.735  13.390  0.6510 -0.1425  0.5777
80979SOL    HW154662   6.083   3.793  13.410  0.5807 -0.6151  1.8290
80979SOL    HW254663   6.182   3.758  13.301  0.1156  1.2464  0.7496
80980SOL     OW54664   0.648   6.470  11.045 -0.3071 -0.2753  0.2927
80980SOL    HW154665   0.567   6.446  10.999 -0.5291 -0.3349  0.7100
80980SOL    HW254666   0.718   6.442  10.985 -0.5965  0.5021 -0.4281
80981SOL     OW54667   5.729   3.193   9.281 -0.1343 -0.0156 -0.6168
80981SOL    HW154668   5.711   3.264   9.342 -3.2869 -2.1360  1.2218
80981SOL    HW254669   5.823   3.177   9.290 -0.1307  1.0491  2.2347
80982SOL     OW54670   5.122   7.906   7.877  0.1724 -0.5279 -0.4442
80982SOL    HW154671   5.158   7.859   7.802  0.8542 -0.4732 -0.1545
80982SOL    HW254672   5.138   7.998   7.857 -0.4347 -0.4603 -0.6357
80983SOL     OW54673   1.872  11.550   4.761 -0.0064  0.0769  0.0523
80983SOL    HW154674   1.806  11.501   4.810 -1.6109  2.7180  0.7162
80983SOL    HW254675   1.862  11.641   4.791  3.7922  0.6796  0.0212
80984SOL     OW54676   4.951   1.532  13.249 -0.0196  0.1610  0.0653
80984SOL    HW154677   4.887   1.460  13.246 -1.3167  1.2366  0.9696
80984SOL    HW254678   4.914   1.598  13.191  1.5601 -0.1643 -1.3788
80985SOL     OW54679  12.175  11.993  13.109 -0.3752 -0.4576 -0.2585
80985SOL    HW154680  12.118  12.040  13.170  2.3193 -0.3642  2.4235
80985SOL    HW254681  12.203  11.916  13.158  1.8294 -0.4556 -1.4261
80986SOL     OW54682   8.492   5.975   8.428 -0.3549  0.3744  0.2726
80986SOL    HW154683   8.459   5.928   8.504  0.6370  0.6550  0.9095
80986SOL    HW254684   8.567   5.923   8.399 -1.5243 -0.4776 -1.3874
80987SOL     OW54685  13.681   1.008  13.321  0.3841 -0.4591  0.1860
80987SOL    HW154686  13.590   1.027  13.346  0.8757  3.0771 -0.2604
80987SOL    HW254687  13.675   0.978  13.230 -0.3142  0.4215 -0.0732
80988SOL     OW54688   1.111   9.590  10.139 -0.8216 -0.5092  0.2479
80988SOL    HW154689   1.181   9.655  10.145 -0.4941 -0.9697  1.6865
80988SOL    HW254690   1.154   9.513  10.102 -1.1934  0.0103 -1.3834
80989SOL     OW54691   3.896   1.282  10.083  0.4797  0.3066  0.1912
80989SOL    HW154692   3.834   1.255  10.015 -0.2779  0.7621  0.6939
80989SOL    HW254693   3.949   1.350  10.041 -1.0546  1.7715  0.5224
80990SOL     OW54694   5.402  13.549   7.425 -0.0527 -0.3173 -0.2876
80990SOL    HW154695   5.389  13.637   7.390  0.2233 -0.0193  0.3487
80990SOL    HW254696   5.339  13.495   7.377 -0.5106  0.3006 -0.3993
80991SOL     OW54697   2.908   3.496   3.267 -0.4634 -0.8593  0.5929
80991SOL    HW154698   2.941   3.576   3.307 -0.2401 -0.7025  0.1054
80991SOL    HW254699   2.852   3.457   3.334  0.8821 -1.2595  1.5334
80992SOL     OW54700   7.796   7.646  10.308  0.1237 -0.2175  0.3278
80992SOL    HW154701   7.720   7.631  10.253  0.1457 -0.4799  0.3658
80992SOL    HW254702   7.763   7.639  10.398  0.7484 -3.7827  0.4551
80993SOL     OW54703   4.396   1.941   5.350  0.0579  0.0440  0.8784
80993SOL    HW154704   4.392   1.862   5.297 -1.7242  1.0689 -0.6682
80993SOL    HW254705   4.310   1.945   5.393 -0.5503  1.9075 -0.3715
80994SOL     OW54706   0.012   4.644   7.712  0.0722 -0.8190 -0.7146
80994SOL    HW154707   0.074   4.695   7.766 -0.5276 -2.4272  1.6657
80994SOL    HW254708   0.064   4.613   7.639  0.7828  2.0155 -1.5577
80995SOL     OW54709   3.363   6.763   3.118  0.2342 -0.0575  0.6726
80995SOL    HW154710   3.315   6.754   3.200 -1.0992 -1.2744 -0.1940
80995SOL    HW254711   3.302   6.734   3.051  1.3168  0.8240 -0.7637
80996SOL     OW54712   4.182   8.974   2.568  0.3308  0.8737  0.8165
80996SOL    HW154713   4.151   8.884   2.576  1.3055  0.4440 -0.0063
80996SOL    HW254714   4.154   9.002   2.480 -1.3308  1.9536  1.6205
80997SOL     OW54715   8.022  13.064   1.168  0.0955  0.1573  0.2474
80997SOL    HW154716   8.042  13.098   1.080  1.5475  1.1659  0.9117
80997SOL    HW254717   8.065  13.126   1.227 -1.8632  0.1841  1.7363
80998SOL     OW54718   9.449   8.678  12.842  0.3697  0.1908 -0.1597
80998SOL    HW154719   9.431   8.640  12.928 -0.1078  1.2413  0.2195
80998SOL    HW254720   9.489   8.607  12.792  1.0263 -0.3155  1.0542
80999SOL     OW54721   7.696  12.021   9.808 -0.4348  0.3583 -0.6494
80999SOL    HW154722   7.736  12.083   9.869  0.1209  0.0909 -0.7352
80999SOL    HW254723   7.615  12.064   9.779 -0.0756  1.0169 -0.6798
81000SOL     OW54724  13.219  10.677   1.581 -0.3418 -1.1114  0.3330
81000SOL    HW154725  13.302  10.678   1.535 -0.9298 -0.3340 -0.7455
81000SOL    HW254726  13.223  10.599   1.636  1.2440 -0.8742  0.5966
81001SOL     OW54727   1.133  10.056   5.399 -0.2440  0.0404 -0.2504
81001SOL    HW154728   1.107  10.023   5.485 -1.1161  1.4688  0.0673
81001SOL    HW254729   1.074  10.012   5.338  0.6542 -1.3007 -0.1967
81002SOL     OW54730   9.013  11.699   0.751  0.2014  0.1643 -0.2943
81002SOL    HW154731   8.953  11.675   0.822  1.2876  0.8662  0.9174
81002SOL    HW254732   8.982  11.784   0.721  1.3342  1.1930  1.2817
81003SOL     OW54733  12.568   3.487   0.420  0.0739 -0.0977  0.1098
81003SOL    HW154734  12.622   3.548   0.369 -0.6259  0.9239  0.5595
81003SOL    HW254735  12.624   3.410   0.431  0.7001  0.1494 -1.1189
81004SOL     OW54736   5.994   0.972   3.182 -0.0861  0.2779 -0.9856
81004SOL    HW154737   6.040   1.055   3.193 -0.9149  0.5242  1.0030
81004SOL    HW254738   5.944   0.961   3.263 -1.7749 -1.0645 -2.1422
81005SOL     OW54739   0.310  11.804  11.666  0.0404 -0.2798 -0.0642
81005SOL    HW154740   0.279  11.725  11.622  1.3490 -0.0068 -1.5428
81005SOL    HW254741   0.262  11.876  11.625 -2.9397 -0.3594  2.8886
81006SOL     OW54742  13.073   3.562   8.959 -0.0688 -0.2217 -0.0401
81006SOL    HW154743  13.002   3.512   8.918 -1.1140  1.0801  0.1256
81006SOL    HW254744  13.146   3.500   8.962 -0.1571 -0.6470 -3.1315
81007SOL     OW54745   7.565  12.077   2.521  0.2063 -0.3251  0.3900
81007SOL    HW154746   7.569  12.005   2.584 -0.3788 -1.1354 -0.4663
81007SOL    HW254747   7.544  12.034   2.437  0.2179  0.8016 -0.2055
81008SOL     OW54748  12.168   4.814   6.081 -0.1078  0.3311  0.0577
81008SOL    HW154749  12.262   4.831   6.087  0.2733 -1.3476 -0.5835
81008SOL    HW254750  12.141   4.795   6.171 -0.0997  1.9315  0.4286
81009SOL     OW54751  13.375  10.257   5.317 -0.1830 -0.4829  0.4633
81009SOL    HW154752  13.325  10.204   5.254  0.1036 -0.5711  0.3091
81009SOL    HW254753  13.344  10.347   5.302 -0.2137 -0.5207  0.2898
81010SOL     OW54754   5.980   0.654   8.121 -0.2105 -0.1922  0.1695
81010SOL    HW154755   6.018   0.698   8.045  0.0951 -1.5972 -0.5320
81010SOL    HW254756   5.915   0.594   8.083 -0.3372 -0.6269  1.0488
81011SOL     OW54757  12.628   6.909  11.039  0.1843  0.2139 -0.4663
81011SOL    HW154758  12.549   6.854  11.037 -0.8465  1.5575  0.6600
81011SOL    HW254759  12.701   6.847  11.031 -0.9111 -1.3184  0.7294
81012SOL     OW54760   8.995   6.968   6.085 -0.1835  0.2964  0.7075
81012SOL    HW154761   8.977   7.062   6.088 -1.6054  0.0781  0.1783
81012SOL    HW254762   9.042   6.956   6.002 -1.6654  0.3425 -0.1976
81013SOL     OW54763   7.289  11.597  11.308 -0.2165  0.2333 -0.1741
81013SOL    HW154764   7.306  11.640  11.224 -0.1971  0.9913  0.2151
81013SOL    HW254765   7.194  11.598  11.316 -0.1753  1.0388  0.2638
81014SOL     OW54766   4.851  10.559  10.155  0.0766 -0.1574  0.0307
81014SOL    HW154767   4.915  10.560  10.226  1.1105  0.3324 -0.8875
81014SOL    HW254768   4.828  10.652  10.143 -0.0953 -0.2377 -0.2732
81015SOL     OW54769  10.239  12.656   3.854  0.2511 -0.0296  0.1178
81015SOL    HW154770  10.202  12.744   3.850 -0.7673 -0.3390  1.7873
81015SOL    HW254771  10.195  12.615   3.929  2.4510 -1.1377  0.8842
81016SOL     OW54772   3.522  11.651  13.564 -0.2589  0.4238  0.1915
81016SOL    HW154773   3.560  11.703  13.635  0.3548 -2.4680  2.1901
81016SOL    HW254774   3.513  11.712  13.491 -0.6074  3.5404  2.5950
81017SOL     OW54775   0.825   7.644   7.223 -0.4332 -0.3531  0.1995
81017SOL    HW154776   0.789   7.558   7.203  2.9242 -1.9899  0.4733
81017SOL    HW254777   0.859   7.635   7.312  1.1146  0.8144 -0.2353
81018SOL     OW54778  12.894   1.162  12.717  0.5708 -0.0621  0.1708
81018SOL    HW154779  12.990   1.156  12.718  0.7731  0.6954 -3.2073
81018SOL    HW254780  12.876   1.243  12.670 -1.7212 -0.7340 -0.2198
81019SOL     OW54781   8.264  10.595   1.099  0.0517  0.3982 -0.1910
81019SOL    HW154782   8.289  10.653   1.027  1.9089 -0.4038 -0.2630
81019SOL    HW254783   8.346  10.552   1.124 -1.1592 -1.8665  0.1478
81020SOL     OW54784  10.116   5.452  10.184  0.2077  0.0837  0.0012
81020SOL    HW154785  10.024   5.430  10.169  0.0197 -0.0957  1.2404
81020SOL    HW254786  10.115   5.546  10.202  0.2746  0.0951 -0.0552
81021SOL     OW54787   4.946  10.585  12.089 -0.5613 -0.6691  0.4226
81021SOL    HW154788   4.936  10.677  12.062 -1.0650 -0.9299 -0.3402
81021SOL    HW254789   4.994  10.589  12.171 -1.1665  0.3244  0.7559
81022SOL     OW54790  12.102   7.462   4.699  0.0072 -0.0466 -0.6305
81022SOL    HW154791  12.127   7.484   4.789  0.7230  0.6650 -0.9888
81022SOL    HW254792  12.178   7.488   4.646 -0.6134  0.0332 -1.5012
81023SOL     OW54793   2.752   7.743   5.840 -0.0494  0.3430 -0.3646
81023SOL    HW154794   2.795   7.815   5.795 -0.0382 -0.7910 -2.2976
81023SOL    HW254795   2.818   7.673   5.842 -0.7709 -0.3648 -0.5825
81024SOL     OW54796   1.045   2.105   2.231 -0.6251 -0.4653 -0.7626
81024SOL    HW154797   1.103   2.162   2.180  1.4496 -1.7554  0.0618
81024SOL    HW254798   0.983   2.071   2.166 -0.1363  0.4913 -1.7749
81025SOL     OW54799   8.993   0.647   9.748 -0.3345  0.5526 -0.3081
81025SOL    HW154800   9.004   0.595   9.668  2.6428  1.4411 -0.6214
81025SOL    HW254801   9.065   0.618   9.805 -0.2135  2.4143  0.5515
81026SOL     OW54802   3.571   6.763  10.587  0.4168  0.2288  0.2323
81026SOL    HW154803   3.602   6.824  10.520  0.1966  1.7384  1.4312
81026SOL    HW254804   3.503   6.813  10.634  0.8129 -0.6296  1.7845
81027SOL     OW54805   3.978  10.287   3.571 -0.1226  0.0100  0.2736
81027SOL    HW154806   3.892  10.248   3.555 -0.5820  0.7899  0.7333
81027SOL    HW254807   3.958  10.379   3.592  0.9868  0.8164 -1.9087
81028SOL     OW54808  11.708  10.796   6.151 -0.0522 -0.5526  0.2674
81028SOL    HW154809  11.729  10.735   6.080 -1.3466  0.4479 -1.0607
81028SOL    HW254810  11.792  10.823   6.187  0.6110 -1.5401 -0.5133
81029SOL     OW54811  12.053   2.966  12.583 -0.5408  0.5493 -0.0416
81029SOL    HW154812  12.062   2.995  12.673  2.1391 -0.6239  0.1490
81029SOL    HW254813  12.124   3.010  12.536  0.2299 -1.4406 -0.8306
81030SOL     OW54814   5.943  10.050   3.379 -0.3404  0.3795  0.3967
81030SOL    HW154815   5.859  10.085   3.409 -0.5228  0.5545 -0.3113
81030SOL    HW254816   5.971  10.111   3.310 -1.0545 -1.2677 -1.4454
81031SOL     OW54817   9.414   9.990   5.865 -0.9166 -0.2270 -0.0900
81031SOL    HW154818   9.510   9.982   5.866 -0.9667 -0.8770  0.1450
81031SOL    HW254819   9.396  10.048   5.791 -0.2928  0.8081  0.5425
81032SOL     OW54820   8.626   3.400   0.414 -0.8192 -0.4942  0.0539
81032SOL    HW154821   8.709   3.363   0.444 -1.0706 -1.1104 -0.0062
81032SOL    HW254822   8.560   3.364   0.474 -0.8438  1.3992  1.2395
81033SOL     OW54823   9.931  11.970   4.525 -0.0764  0.2948  0.3580
81033SOL    HW154824   9.940  11.950   4.618  2.1337  1.9627  0.5573
81033SOL    HW254825  10.015  11.944   4.487 -1.1703 -0.9736 -1.3480
81034SOL     OW54826   0.856   8.227   5.085 -0.0844 -0.2227 -0.0402
81034SOL    HW154827   0.767   8.236   5.119  1.0857  0.3957  3.2280
81034SOL    HW254828   0.875   8.310   5.043 -1.7116 -1.1381 -2.8294
81035SOL     OW54829   0.470   2.155   9.550  0.1913 -0.6918  0.3686
81035SOL    HW154830   0.475   2.231   9.608 -1.6705 -1.0492  1.0799
81035SOL    HW254831   0.558   2.146   9.515  0.2991  2.2597 -0.3739
81036SOL     OW54832   5.291   2.925   6.210  0.2467 -0.3306 -0.5619
81036SOL    HW154833   5.246   3.004   6.240  0.2195 -0.3558 -0.5355
81036SOL    HW254834   5.229   2.882   6.152  0.4979 -0.0156 -1.0667
81037SOL     OW54835   6.423   3.014  10.133  0.8349  0.2950 -0.2033
81037SOL    HW154836   6.338   3.048  10.106 -0.2668 -1.2582  1.1588
81037SOL    HW254837   6.408   2.922  10.153  2.3498  0.4441  2.0448
81038SOL     OW54838   2.602  11.841  13.385 -0.3130 -0.4928 -0.6508
81038SOL    HW154839   2.509  11.863  13.394  0.0966  2.1746 -2.1176
81038SOL    HW254840   2.641  11.866  13.469 -0.5975  0.4289 -0.7791
81039SOL     OW54841   8.512  13.606   9.531  0.8417  0.0497  0.6525
81039SOL    HW154842   8.511  13.682   9.589 -1.4151  1.0275 -0.5257
81039SOL    HW254843   8.459  13.540   9.576 -1.0468  0.8667 -0.2707
81040SOL     OW54844  13.613   6.008   4.151  0.7919  0.0504 -0.0095
81040SOL    HW154845  13.544   6.073   4.138  0.9959  0.0403 -1.3082
81040SOL    HW254846  13.680   6.031   4.086  1.4235 -0.7057  0.3601
81041SOL     OW54847   4.554  13.583   8.133  0.0573 -0.3932 -0.1862
81041SOL    HW154848   4.508  13.499   8.141 -1.5246  0.4646  0.1297
81041SOL    HW254849   4.517  13.637   8.203 -0.0758  1.0593 -1.3303
81042SOL     OW54850  13.709   0.859  10.357  0.4064  0.0591  0.3570
81042SOL    HW154851  13.642   0.915  10.320 -1.0652 -1.0449  1.2244
81042SOL    HW254852  13.711   0.881  10.450  0.2170 -0.8910  0.6036
81043SOL     OW54853  12.489   7.429  12.784  0.1694 -0.5296 -0.1255
81043SOL    HW154854  12.490   7.521  12.810 -0.7641 -0.2499 -1.0151
81043SOL    HW254855  12.418   7.391  12.835  0.1273 -0.6073 -0.2422
81044SOL     OW54856   5.162  11.525   1.204  0.0236 -0.3229  0.0733
81044SOL    HW154857   5.171  11.540   1.298 -2.0137 -0.2863  0.3029
81044SOL    HW254858   5.147  11.431   1.195  2.8083 -0.7805 -0.4914
81045SOL     OW54859   5.277   1.933   8.556  0.2016  1.0174  0.0363
81045SOL    HW154860   5.301   2.009   8.503  0.7856 -0.4078 -1.8326
81045SOL    HW254861   5.329   1.861   8.520  0.1318 -0.1725  2.1455
81046SOL     OW54862   1.423   5.277   0.363 -0.2748  0.0583 -0.0200
81046SOL    HW154863   1.432   5.201   0.305  0.2927 -0.6355  0.9466
81046SOL    HW254864   1.464   5.249   0.444  0.8976  1.7876  0.0180
81047SOL     OW54865   7.137  11.510  12.665  0.4985  0.2455  0.5624
81047SOL    HW154866   7.103  11.586  12.619 -1.3000 -1.5282 -1.2454
81047SOL    HW254867   7.227  11.500  12.632  0.7948  1.5919  0.9117
81048SOL     OW54868   4.427   2.483   0.114  0.3174  0.0724 -0.0305
81048SOL    HW154869   4.494   2.447   0.055 -0.0839 -1.1243  0.2116
81048SOL    HW254870   4.427   2.424   0.189  0.3246  1.1754  0.8644
81049SOL     OW54871   4.375   8.549   5.157 -0.9211 -0.1247  0.7161
81049SOL    HW154872   4.310   8.586   5.216 -0.1382  2.5890 -0.0051
81049SOL    HW254873   4.459   8.568   5.198 -0.4768 -1.2862  0.3808
81050SOL     OW54874   6.712  11.962  12.487  0.1670 -0.6745 -0.2857
81050SOL    HW154875   6.740  12.042  12.444  2.4460  0.3546  2.7014
81050SOL    HW254876   6.758  11.892  12.440  2.2290  0.3464  0.0703
81051SOL     OW54877  11.228   9.905  13.442 -0.0453  0.2630 -0.4740
81051SOL    HW154878  11.232   9.927  13.349  2.9586  2.3099 -0.0307
81051SOL    HW254879  11.290   9.833  13.452 -1.0159 -0.5412 -0.1682
81052SOL     OW54880  12.158   7.433   7.898  1.2985  0.6894  0.3056
81052SOL    HW154881  12.064   7.441   7.885  0.9929 -1.3735  0.8649
81052SOL    HW254882  12.191   7.523   7.894 -0.7843  1.5359  0.8878
81053SOL     OW54883   2.944   9.437   7.380  0.2459 -0.6775  0.2583
81053SOL    HW154884   3.025   9.453   7.332  0.4642  0.4201  0.9476
81053SOL    HW254885   2.875   9.462   7.319  0.4734 -0.3942  0.1129
81054SOL     OW54886   3.760   9.459  10.978  0.7067 -0.7911  0.4294
81054SOL    HW154887   3.849   9.490  10.961  0.2738  0.5690  0.5443
81054SOL    HW254888   3.721   9.450  10.891  0.3672  0.4674  0.4314
81055SOL     OW54889  10.931   9.865   5.504 -0.3553  0.1031  0.3286
81055SOL    HW154890  10.863   9.926   5.475  0.0933 -0.1487 -1.3877
81055SOL    HW254891  11.012   9.917   5.502 -0.1048 -0.2918 -0.2973
81056SOL     OW54892   9.649   4.414   5.680 -0.8529  0.0144  0.6566
81056SOL    HW154893   9.638   4.371   5.595 -1.3802  2.2409 -0.4986
81056SOL    HW254894   9.559   4.428   5.711 -0.6906  0.0658  1.1044
81057SOL     OW54895  11.654   8.162  10.547  0.3154  0.2441  0.5295
81057SOL    HW154896  11.725   8.203  10.498 -0.3279  0.4491 -0.2610
81057SOL    HW254897  11.577   8.215  10.526 -0.5143 -1.2635 -0.4409
81058SOL     OW54898   6.236  12.615   2.556 -0.3700 -0.1963 -0.2106
81058SOL    HW154899   6.313  12.611   2.499 -1.1745  0.9046 -1.4455
81058SOL    HW254900   6.171  12.559   2.514 -0.0603 -1.7043  1.2119
81059SOL     OW54901   6.526   0.092  10.884 -0.2342  0.1494 -0.0119
81059SOL    HW154902   6.495   0.007  10.914 -0.7549  0.7243  1.1192
81059SOL    HW254903   6.458   0.122  10.824  0.0786 -0.3298 -0.6249
81060SOL     OW54904  12.242   0.417   8.741 -0.0841  0.4611  0.1424
81060SOL    HW154905  12.321   0.462   8.711 -0.3192  0.1980 -0.9255
81060SOL    HW254906  12.264   0.324   8.736 -0.7066  0.3574 -0.9139
81061SOL     OW54907   0.921  10.856   8.466 -0.0220  0.3648 -0.0258
81061SOL    HW154908   0.869  10.787   8.425 -2.0103  0.6958  1.7531
81061SOL    HW254909   0.984  10.810   8.521  0.7464 -0.0245 -1.1944
81062SOL     OW54910   8.335   2.464  12.851 -0.3332 -0.2430 -0.0970
81062SOL    HW154911   8.267   2.528  12.829 -1.4308 -1.1333  0.5473
81062SOL    HW254912   8.377   2.500  12.930 -0.8693 -0.2519  0.1993
81063SOL     OW54913   4.460  10.022  13.497  0.4061 -0.0244  0.4042
81063SOL    HW154914   4.419   9.986  13.419  0.8632 -0.8019  0.5068
81063SOL    HW254915   4.453  10.116  13.487  2.5118 -0.0036 -1.7529
81064SOL     OW54916   7.663   2.438  10.828 -0.9209  0.0506  0.5197
81064SOL    HW154917   7.737   2.499  10.827 -1.0576  0.2959 -2.0037
81064SOL    HW254918   7.694   2.365  10.881  0.8953  0.4239  0.0682
81065SOL     OW54919   5.786   3.227  10.048 -0.0273  0.0919  0.1044
81065SOL    HW154920   5.749   3.298   9.995  0.8081  0.2887 -0.2295
81065SOL    HW254921   5.755   3.244  10.137 -0.0379  0.7401 -0.0186
81066SOL     OW54922   1.714   2.392  12.260 -0.2635 -0.1527 -0.2616
81066SOL    HW154923   1.634   2.400  12.313  0.1418  0.8916  0.2388
81066SOL    HW254924   1.773   2.458  12.297  0.2641  0.1782 -1.6187
81067SOL     OW54925   8.649   2.865   3.985  0.2316  0.1627 -0.1273
81067SOL    HW154926   8.588   2.857   4.058  0.3307 -0.9476 -0.1565
81067SOL    HW254927   8.628   2.792   3.927  0.5216  0.7041 -0.9439
81068SOL     OW54928   8.850  13.010   5.552 -0.3119 -0.0357 -0.7469
81068SOL    HW154929   8.787  13.077   5.524 -1.0251  0.1804  1.2354
81068SOL    HW254930   8.829  12.994   5.644  2.7390  0.2334  0.1046
81069SOL     OW54931   6.679  10.786   7.607 -0.2788 -0.0486  0.4149
81069SOL    HW154932   6.667  10.694   7.583  1.5431 -0.2664  0.2164
81069SOL    HW254933   6.662  10.789   7.701  2.1137 -1.1221  0.9408
81070SOL     OW54934   5.051   1.289   5.477  0.6250 -0.6131 -0.2580
81070SOL    HW154935   5.032   1.285   5.383  0.7007  1.2777 -0.3903
81070SOL    HW254936   5.043   1.198   5.507 -2.2012 -0.8731 -1.5201
81071SOL     OW54937   7.614   4.654  10.851  0.0049  0.3468  0.2400
81071SOL    HW154938   7.666   4.688  10.924 -1.0619  1.2153  0.6148
81071SOL    HW254939   7.662   4.681  10.773  1.6937 -1.4443  0.5748
81072SOL     OW54940   0.637   3.064   1.847  0.7566  0.2640 -0.8383
81072SOL    HW154941   0.624   2.981   1.893  3.4319 -0.3100 -0.9646
81072SOL    HW254942   0.657   3.127   1.916  2.3867 -0.0668 -0.9680
81073SOL     OW54943   5.507   3.608  13.657  0.2984 -0.5334 -0.1229
81073SOL    HW154944   5.474   3.530  13.700  1.2977 -1.1345 -0.4052
81073SOL    HW254945   5.519   3.582  13.565  0.7853 -0.1059 -0.1852
81074SOL     OW54946   0.742   3.997   6.775 -0.3220 -0.7353 -0.4518
81074SOL    HW154947   0.825   3.950   6.762 -0.9840 -1.5903 -1.7898
81074SOL    HW254948   0.719   4.029   6.688 -2.4822 -2.4187 -0.5794
81075SOL     OW54949  11.865   1.625   7.978 -0.1059  0.3316  0.1360
81075SOL    HW154950  11.933   1.587   7.923 -1.4509 -1.8754 -0.1755
81075SOL    HW254951  11.898   1.711   8.003  2.6289 -0.5330 -0.2077
81076SOL     OW54952   5.535   6.868   8.666 -0.7990 -0.3557 -0.2310
81076SOL    HW154953   5.500   6.921   8.738  0.8233  1.0324 -0.3890
81076SOL    HW254954   5.598   6.809   8.708 -1.2178 -0.8524 -0.2936
81077SOL     OW54955   8.643   0.330   3.136  0.2254  0.3211  0.4407
81077SOL    HW154956   8.581   0.275   3.088 -0.9565  0.7582  1.4134
81077SOL    HW254957   8.623   0.313   3.228 -1.8050  4.0170  0.8661
81078SOL     OW54958   2.758   7.987   9.725 -0.3222  0.0011 -0.0346
81078SOL    HW154959   2.818   8.032   9.665 -2.2612  0.1026 -2.0343
81078SOL    HW254960   2.691   7.949   9.668 -1.9830 -0.4032  2.0548
81079SOL     OW54961   4.608   8.441  10.298 -0.0372 -0.0628 -0.4268
81079SOL    HW154962   4.613   8.356  10.255  0.9411  0.4402 -1.3602
81079SOL    HW254963   4.553   8.494  10.240 -2.1463 -0.5068  1.0263
81080SOL     OW54964  10.154   5.377   2.164  0.2106 -0.0359  0.5026
81080SOL    HW154965  10.068   5.372   2.122  0.3968 -0.9855  0.2079
81080SOL    HW254966  10.216   5.363   2.092  0.5971  0.1522  0.7968
81081SOL     OW54967  11.228  10.489   6.877 -0.1942  0.4168  0.5691
81081SOL    HW154968  11.217  10.401   6.840 -2.4627  0.4163  1.0741
81081SOL    HW254969  11.267  10.541   6.806 -1.0919 -0.4359 -0.5788
81082SOL     OW54970  10.357   6.271   1.192 -0.1124 -0.5125 -0.2241
81082SOL    HW154971  10.382   6.179   1.181 -2.1164 -1.7031  3.5266
81082SOL    HW254972  10.276   6.280   1.143 -0.2332 -0.9106 -0.0975
81083SOL     OW54973   0.386   0.710   6.153  0.1252  0.3452 -0.1333
81083SOL    HW154974   0.348   0.623   6.154  1.3974 -0.2441 -0.6974
81083SOL    HW254975   0.444   0.712   6.229  1.6140 -0.0472 -1.2031
81084SOL     OW54976   6.358  12.783  12.697 -0.7380  0.2381  0.1638
81084SOL    HW154977   6.322  12.835  12.626 -0.2476 -1.0962 -1.1054
81084SOL    HW254978   6.361  12.694  12.663  1.3310 -0.1352  1.1403
81085SOL     OW54979   4.240  11.811   1.170  0.6228 -0.1233 -0.1759
81085SOL    HW154980   4.214  11.896   1.135  1.8571  0.7751  1.0324
81085SOL    HW254981   4.324  11.792   1.127  1.5977  0.4729  1.3897
81086SOL     OW54982   0.937  12.862   6.025 -0.0505  0.3626 -0.6103
81086SOL    HW154983   1.009  12.848   5.963 -2.0923 -0.0701 -3.0612
81086SOL    HW254984   0.865  12.894   5.971 -1.7547  0.6829  1.7108
81087SOL     OW54985   7.552   3.187   4.846  0.1533 -0.1240 -0.1537
81087SOL    HW154986   7.476   3.218   4.895  1.9213  2.9046  0.9664
81087SOL    HW254987   7.517   3.161   4.761 -2.4604 -1.6558  1.2446
81088SOL     OW54988   6.563   7.861  10.058 -0.0046 -0.1464 -0.6156
81088SOL    HW154989   6.551   7.845   9.964  1.2107 -0.3338 -0.7534
81088SOL    HW254990   6.507   7.796  10.101  0.4365 -0.9377 -1.2098
81089SOL     OW54991  10.144   6.717  12.498  0.5081  0.4582 -0.3214
81089SOL    HW154992  10.088   6.794  12.506 -0.5029 -0.3581  0.8397
81089SOL    HW254993  10.083   6.644  12.492  1.4540 -0.4339  0.6508
81090SOL     OW54994   6.312   1.388   9.645 -0.0091 -0.1978  0.0374
81090SOL    HW154995   6.257   1.437   9.584  1.2171  0.6080 -0.4621
81090SOL    HW254996   6.318   1.445   9.722 -0.4906 -0.6243  0.3907
81091SOL     OW54997  10.383  12.363   4.348 -0.0148  0.0615  0.2022
81091SOL    HW154998  10.309  12.303   4.357  1.1878 -1.6171 -0.6434
81091SOL    HW254999  10.373  12.423   4.422 -0.1962 -2.3847  2.3194
81092SOL     OW55000   2.744   5.219   0.166 -0.5624 -0.2048  0.0837
81092SOL    HW155001   2.815   5.229   0.103 -0.7008 -1.0406 -0.2265
81092SOL    HW255002   2.772   5.147   0.223 -0.6064  0.2928  0.7410
81093SOL     OW55003   0.008   9.418  12.030 -0.5161 -0.8265  0.0074
81093SOL    HW155004   0.006   9.359  12.106  0.3900 -2.1633 -0.9628
81093SOL    HW255005  -0.040   9.372  11.962 -1.6409  0.5298 -0.1529
81094SOL     OW55006   1.523   1.211   5.277 -0.2793  0.4448 -0.1631
81094SOL    HW155007   1.436   1.169   5.275  1.2050 -3.0775  1.0624
81094SOL    HW255008   1.559   1.197   5.190 -0.1288 -0.0890 -0.0193
81095SOL     OW55009  10.248   6.848  10.835  0.2545 -0.5710  0.5659
81095SOL    HW155010  10.303   6.824  10.909  1.2039 -0.1116  0.0297
81095SOL    HW255011  10.207   6.766  10.807 -0.3841 -0.6855  1.8001
81096SOL     OW55012   8.131   9.568  11.920 -0.5840  0.1109  0.0780
81096SOL    HW155013   8.178   9.567  11.837  2.8458  1.5793  1.8021
81096SOL    HW255014   8.087   9.653  11.922  0.2211  0.5327  0.1743
81097SOL     OW55015   3.020   2.329   6.329  0.1670 -0.0542 -0.3923
81097SOL    HW155016   2.943   2.381   6.354  0.7863 -0.0483  1.6809
81097SOL    HW255017   3.056   2.375   6.254 -0.9739  0.8309 -0.4340
81098SOL     OW55018   8.280   1.456   2.195  0.1056  0.2681  0.1061
81098SOL    HW155019   8.364   1.498   2.213  1.5168 -0.8070 -3.2066
81098SOL    HW255020   8.217   1.529   2.196  1.6418  1.6843 -0.6349
81099SOL     OW55021  11.731  12.959   4.867  0.0458 -0.1388  0.3333
81099SOL    HW155022  11.783  13.038   4.853  0.2300  0.1101  2.1554
81099SOL    HW255023  11.791  12.898   4.910  0.2985 -1.8128 -2.1673
81100SOL     OW55024   5.788   1.912  12.842 -0.3064 -0.1335  0.2078
81100SOL    HW155025   5.761   2.002  12.863 -0.1066 -0.2448  0.9510
81100SOL    HW255026   5.854   1.890  12.908 -0.4263 -0.8612  0.0950
81101SOL     OW55027   8.651  12.028   1.046  0.5788  0.0390 -0.6415
81101SOL    HW155028   8.716  11.980   1.098  0.1982  1.0589  0.8368
81101SOL    HW255029   8.567  11.993   1.076  0.3856 -0.2987 -1.5555
81102SOL     OW55030   4.417   0.889   2.219 -0.1568 -0.2038 -0.2049
81102SOL    HW155031   4.325   0.867   2.204  0.3277 -0.5696 -3.2322
81102SOL    HW255032   4.454   0.811   2.260 -1.1628 -0.0473  1.0530
81103SOL     OW55033   5.533   0.174   6.016 -0.2489 -0.3911 -0.2603
81103SOL    HW155034   5.627   0.167   6.032  0.2570  0.5204 -2.5681
81103SOL    HW255035   5.505   0.248   6.070  1.1739  1.8501 -2.3861
81104SOL     OW55036  12.428   4.569   4.796 -0.0216  0.0968 -0.4162
81104SOL    HW155037  12.500   4.593   4.856  0.3606  0.6259 -1.0769
81104SOL    HW255038  12.419   4.475   4.808 -0.2680  0.2509  0.8249
81105SOL     OW55039   8.532  11.202  11.635 -0.3542  0.1829  0.1049
81105SOL    HW155040   8.612  11.199  11.582  0.0843 -1.0071  0.8104
81105SOL    HW255041   8.527  11.293  11.664  2.4606 -0.2936  2.5555
81106SOL     OW55042  13.315   2.031   4.841  0.3094 -0.2148  0.1240
81106SOL    HW155043  13.279   2.045   4.753  0.3533 -1.9585 -0.2136
81106SOL    HW255044  13.391   2.088   4.845 -0.2182  0.5730 -0.6188
81107SOL     OW55045  12.323   6.273   9.517 -0.3621  0.4895  0.1733
81107SOL    HW155046  12.384   6.266   9.443 -0.2948 -0.6197  0.3233
81107SOL    HW255047  12.369   6.231   9.590 -2.0527 -2.1910 -0.1801
81108SOL     OW55048   6.151   9.622  12.548  0.1049  0.6489 -0.1109
81108SOL    HW155049   6.149   9.533  12.514  0.9202  0.5732  0.0257
81108SOL    HW255050   6.242   9.650  12.537 -0.0743  1.3471  0.1381
81109SOL     OW55051   4.496   6.562  10.980  0.5538 -0.0665 -0.3568
81109SOL    HW155052   4.557   6.489  10.981  1.4058  0.6195 -0.5963
81109SOL    HW255053   4.415   6.526  10.943  0.0417 -1.5529  2.0077
81110SOL     OW55054   3.221   8.405   5.809  0.1846  0.1296  0.0172
81110SOL    HW155055   3.283   8.335   5.830 -0.5043 -0.3449  0.5144
81110SOL    HW255056   3.263   8.454   5.738  1.4672  0.2733  0.8389
81111SOL     OW55057   3.863   1.284  12.552 -0.3245 -0.0624 -0.3539
81111SOL    HW155058   3.846   1.196  12.519  1.7768 -0.8327  0.4392
81111SOL    HW255059   3.939   1.314  12.501  0.3002  0.4387  0.8450
81112SOL     OW55060   3.498   4.888   3.027  0.2370  0.4403  0.2595
81112SOL    HW155061   3.417   4.846   2.998  1.1393 -1.4374  0.3364
81112SOL    HW255062   3.499   4.877   3.122  0.8839 -0.1673  0.1952
81113SOL     OW55063  13.427   3.131   1.559  0.4834 -0.6997  0.0043
81113SOL    HW155064  13.470   3.196   1.503  0.9983 -1.0334  0.0141
81113SOL    HW255065  13.488   3.058   1.563 -0.2375 -1.3250 -0.2707
81114SOL     OW55066   8.210   5.692  13.545 -0.2868  0.2223 -0.3059
81114SOL    HW155067   8.145   5.622  13.537 -1.1100  0.8941  0.2940
81114SOL    HW255068   8.161   5.772  13.526 -0.0215  0.8929  1.6113
81115SOL     OW55069  10.243  11.113   1.006  0.2083  0.0162 -0.2374
81115SOL    HW155070  10.335  11.089   1.004 -0.0070 -1.3292  2.1299
81115SOL    HW255071  10.235  11.170   1.083 -1.1806 -1.2455  0.6046
81116SOL     OW55072  10.115   0.309   4.553  0.2562  0.2600  0.0757
81116SOL    HW155073  10.088   0.218   4.546 -0.9061  0.6244 -0.3496
81116SOL    HW255074  10.182   0.320   4.486  0.3334 -0.2540  0.0684
81117SOL     OW55075  13.244   0.608   5.049  0.0099  0.5101 -0.5206
81117SOL    HW155076  13.222   0.701   5.055 -0.6266  0.4922 -2.0248
81117SOL    HW255077  13.186   0.574   4.980 -1.0616 -1.4017  1.1714
81118SOL     OW55078   3.983   6.693   9.887  0.4383 -0.2198  0.5748
81118SOL    HW155079   4.001   6.740   9.806 -0.5009  1.4956  1.3027
81118SOL    HW255080   3.944   6.610   9.859  1.8062 -0.4573 -0.7383
81119SOL     OW55081   3.746   0.957   4.990 -0.1096 -0.3845 -0.3457
81119SOL    HW155082   3.770   1.039   5.032  0.5356 -1.0105  0.5680
81119SOL    HW255083   3.771   0.968   4.898  3.0149 -0.6495  0.3573
81120SOL     OW55084  10.416   9.529  10.336 -0.2888  0.4783  0.9724
81120SOL    HW155085  10.486   9.471  10.365 -0.4618  0.6061  1.6483
81120SOL    HW255086  10.462   9.603  10.295 -0.0214 -1.8673 -3.6473
81121SOL     OW55087   7.448   7.741   0.196 -0.1353  0.2047  0.1925
81121SOL    HW155088   7.542   7.740   0.179 -0.1692 -0.9603  0.0309
81121SOL    HW255089   7.416   7.657   0.164 -1.4393  1.0526 -0.8197
81122SOL     OW55090   1.677   8.797   9.124 -0.0791  0.1821  0.7383
81122SOL    HW155091   1.699   8.823   9.034  1.2934  1.7952  1.4784
81122SOL    HW255092   1.760   8.802   9.171 -0.6394 -1.3609  1.9674
81123SOL     OW55093   6.887  11.095   9.443  0.1684  0.2259  0.1930
81123SOL    HW155094   6.870  11.099   9.537 -0.4179  3.1465  0.0532
81123SOL    HW255095   6.848  11.175   9.408  2.0288  0.1689 -2.2884
81124SOL     OW55096  11.922  11.959   3.975  0.1321  0.1813  0.3990
81124SOL    HW155097  11.949  12.019   3.905  0.6457  0.3160  0.7080
81124SOL    HW255098  11.949  12.003   4.056 -1.5110  0.5816  0.7736
81125SOL     OW55099   3.054  12.117  12.236  0.2480 -0.4616  0.1971
81125SOL    HW155100   3.056  12.086  12.145  1.4781 -0.5996  0.2580
81125SOL    HW255101   3.038  12.211  12.229  0.9100 -0.3738 -0.1937
81126SOL     OW55102   5.866   9.674  11.301 -0.3430  0.2871  0.2326
81126SOL    HW155103   5.798   9.683  11.234  0.1779  2.2735 -0.0933
81126SOL    HW255104   5.819   9.688  11.384 -0.3496  1.6745  0.0075
81127SOL     OW55105   3.786  12.182   8.306 -0.3653  0.4542  1.0970
81127SOL    HW155106   3.739  12.125   8.245  1.7186 -1.2662  1.0214
81127SOL    HW255107   3.821  12.123   8.372  2.0232  1.5832  0.9304
81128SOL     OW55108  10.441   0.602   8.556  0.4379  0.3628 -0.0538
81128SOL    HW155109  10.463   0.691   8.582 -1.1457  0.9349 -0.5559
81128SOL    HW255110  10.507   0.579   8.491 -0.1203  1.8466 -1.2005
81129SOL     OW55111  12.323  11.226   4.629  0.0338  0.2565 -0.3601
81129SOL    HW155112  12.336  11.312   4.589 -0.2176 -0.0486 -1.1093
81129SOL    HW255113  12.229  11.212   4.625 -0.1634  0.7409  1.4620
81130SOL     OW55114   1.282   8.552  10.029 -0.5547  0.2588 -0.0249
81130SOL    HW155115   1.262   8.611  10.101 -0.8786  0.9190 -0.6480
81130SOL    HW255116   1.297   8.467  10.071 -0.7616  0.6269  0.8085
81131SOL     OW55117   7.546  10.628   1.472  0.7702  0.2351  0.2962
81131SOL    HW155118   7.480  10.673   1.419  0.8733 -0.0739 -0.0990
81131SOL    HW255119   7.510  10.629   1.561  0.2168  0.0351  0.0778
81132SOL     OW55120  12.536   6.646   4.069  0.1033 -0.2019  0.1689
81132SOL    HW155121  12.587   6.599   4.003 -0.4769 -1.3557  0.5041
81132SOL    HW255122  12.496   6.576   4.121  0.4883  0.6738  1.6946
81133SOL     OW55123   0.029   8.741   0.689 -0.3476 -1.1258  0.0231
81133SOL    HW155124   0.103   8.799   0.669  0.7890 -1.9014  1.7252
81133SOL    HW255125  -0.041   8.800   0.717  0.5997 -0.4864  1.1608
81134SOL     OW55126   2.398   6.837   8.647  0.9096 -0.0489  0.2717
81134SOL    HW155127   2.471   6.835   8.586  1.2910  1.3016  0.6377
81134SOL    HW255128   2.421   6.774   8.715  0.3538 -1.7615 -1.0761
81135SOL     OW55129  11.045  10.415  13.092 -0.3727  0.3459  0.1974
81135SOL    HW155130  11.117  10.378  13.040 -0.6685 -0.4449  0.3383
81135SOL    HW255131  10.966  10.374  13.058 -0.5427 -0.4411  1.4782
81136SOL     OW55132  11.845  13.327   5.909  0.3573 -0.0458  0.3584
81136SOL    HW155133  11.928  13.333   5.862  0.4845 -2.2269  0.2176
81136SOL    HW255134  11.841  13.408   5.960  1.6335  0.9875 -1.0861
81137SOL     OW55135  10.216  10.028   9.113 -0.1177  0.2999  0.1609
81137SOL    HW155136  10.187   9.942   9.146  0.4103 -0.3556 -1.0159
81137SOL    HW255137  10.235  10.078   9.192  0.4047 -0.9725  0.8770
81138SOL     OW55138   2.137  13.199   4.041  0.0329  0.0143 -0.3691
81138SOL    HW155139   2.147  13.238   4.127  0.1339  1.4211 -0.9879
81138SOL    HW255140   2.130  13.273   3.981  0.0291 -0.9206 -1.5865
81139SOL     OW55141   8.551  11.274   1.728  0.1572 -1.0002  0.1707
81139SOL    HW155142   8.563  11.239   1.816  1.0104 -0.0848  0.4297
81139SOL    HW255143   8.518  11.363   1.741 -1.6719 -1.5321 -0.4780
81140SOL     OW55144  12.904   0.124   9.832 -0.4709  0.1045 -0.1089
81140SOL    HW155145  12.850   0.200   9.810 -2.4060 -1.4859 -1.2763
81140SOL    HW255146  12.842   0.063   9.874  0.8711 -1.0730  0.2349
81141SOL     OW55147   3.999   9.199   8.315  0.2880 -0.1043 -0.5381
81141SOL    HW155148   3.925   9.223   8.259 -1.4573 -0.0339  1.6345
81141SOL    HW255149   3.960   9.144   8.383  2.2181  0.0544  0.7814
81142SOL     OW55150  10.467  12.128   1.070 -0.8280 -0.0141  0.4524
81142SOL    HW155151  10.533  12.089   1.015 -1.4331 -1.3500  0.6410
81142SOL    HW255152  10.384  12.097   1.035 -1.3049  0.5503  1.0358
81143SOL     OW55153   1.547   8.431   9.861  0.3038 -0.1625  0.5881
81143SOL    HW155154   1.540   8.520   9.826  0.4089 -0.9640 -1.6254
81143SOL    HW255155   1.635   8.402   9.835 -0.1736 -1.3261  0.2110
81144SOL     OW55156   7.631   5.682   8.169 -0.0434 -0.1948  0.3311
81144SOL    HW155157   7.658   5.592   8.185 -1.1719 -0.4446  0.9345
81144SOL    HW255158   7.644   5.695   8.074 -0.0929 -1.0571  0.2022
81145SOL     OW55159  13.466   8.111   1.652 -0.6013  0.3878 -0.2344
81145SOL    HW155160  13.448   8.043   1.716 -0.2181  0.3556 -0.1551
81145SOL    HW255161  13.396   8.103   1.587 -0.6551  0.0305 -0.1336
81146SOL     OW55162   4.792   3.712   5.913 -0.4325 -0.0128 -0.2622
81146SOL    HW155163   4.879   3.709   5.875  0.6811 -0.3750  2.1562
81146SOL    HW255164   4.767   3.620   5.922  0.0863 -0.0295  1.4056
81147SOL     OW55165   9.626   9.184   9.385  0.3256 -0.5136 -0.5264
81147SOL    HW155166   9.670   9.261   9.351 -0.0063  0.7689  1.7813
81147SOL    HW255167   9.694   9.116   9.386  1.8517  0.9368  1.3308
81148SOL     OW55168   7.865   7.191   9.602 -0.2877 -0.1371  0.1873
81148SOL    HW155169   7.881   7.099   9.579 -1.0543 -0.4391  0.8159
81148SOL    HW255170   7.850   7.235   9.518 -3.4141 -1.2773  0.0228
81149SOL     OW55171  11.128   4.519  12.901  0.5784 -0.3359 -0.5289
81149SOL    HW155172  11.046   4.562  12.880  0.3339  0.6312  2.0096
81149SOL    HW255173  11.109   4.426  12.893 -0.9176 -0.1465  0.3675
81150SOL     OW55174   0.171  13.265  13.477 -0.0881 -0.3806  0.0126
81150SOL    HW155175   0.182  13.255  13.571  0.4167 -1.2904 -0.1282
81150SOL    HW255176   0.214  13.188  13.439  1.3035  0.8758 -1.0588
81151SOL     OW55177   7.267  11.321   8.204  0.0104 -0.0780 -0.2192
81151SOL    HW155178   7.291  11.267   8.280 -0.3301 -0.1975 -0.1969
81151SOL    HW255179   7.176  11.343   8.219  0.2908  0.9526  0.0351
81152SOL     OW55180   8.732   5.470   1.295  0.2427  0.2146  0.3404
81152SOL    HW155181   8.803   5.522   1.256 -0.5653  0.1945 -1.2576
81152SOL    HW255182   8.653   5.521   1.277 -0.2715 -0.2324  1.2386
81153SOL     OW55183   7.692  13.105   2.055  0.3571 -0.3516 -0.4022
81153SOL    HW155184   7.752  13.031   2.064  1.5491  0.6243 -0.1726
81153SOL    HW255185   7.736  13.177   2.099 -1.1473  0.3092  0.0926
81154SOL     OW55186   1.238   3.659  10.456 -0.2306 -0.1713  0.5169
81154SOL    HW155187   1.226   3.570  10.490  0.8219 -1.0297 -1.2143
81154SOL    HW255188   1.332   3.676  10.467 -0.2936  0.4280  0.1448
81155SOL     OW55189  12.214   5.860  11.929  0.0120 -0.3926 -0.0452
81155SOL    HW155190  12.161   5.784  11.955 -1.5346  0.2396 -1.1883
81155SOL    HW255191  12.301   5.824  11.914 -0.5907 -1.8742 -0.1807
81156SOL     OW55192   1.572   1.455   9.715 -0.0875  0.0419 -0.1510
81156SOL    HW155193   1.561   1.475   9.808 -1.6868  0.5884 -0.4206
81156SOL    HW255194   1.579   1.540   9.672 -0.6736 -0.1574 -0.6600
81157SOL     OW55195  13.148   1.639   6.979 -0.5784  0.5706  0.7055
81157SOL    HW155196  13.215   1.585   7.021  0.3718  0.6555 -0.6379
81157SOL    HW255197  13.077   1.643   7.042  0.9538  1.0446  2.4804
81158SOL     OW55198   9.780   3.850   3.567 -0.4588  0.4530  0.0521
81158SOL    HW155199   9.736   3.902   3.634  0.2209  0.3977  0.5462
81158SOL    HW255200   9.873   3.870   3.578  0.0324 -2.0882  1.3777
81159SOL     OW55201   4.114  13.283   4.774  0.1560 -0.1603 -0.0702
81159SOL    HW155202   4.206  13.273   4.796  0.2768  0.2249 -0.3935
81159SOL    HW255203   4.070  13.213   4.822  0.4225  0.5722  1.2882
81160SOL     OW55204   8.091   6.308  11.211  0.4721  0.5295  0.3622
81160SOL    HW155205   8.029   6.281  11.143  1.0908 -1.2708  0.4702
81160SOL    HW255206   8.059   6.394  11.239  0.9235  1.9809 -3.0653
81161SOL     OW55207   2.388  11.544  10.044  0.2664 -0.2834 -0.7484
81161SOL    HW155208   2.428  11.470   9.998  0.9011 -0.1759 -0.3854
81161SOL    HW255209   2.386  11.615   9.980  0.9623 -0.1940 -0.6807
81162SOL     OW55210   5.042  10.264   9.571 -0.4561  0.0154 -0.8951
81162SOL    HW155211   5.059  10.353   9.601 -0.2273  0.3274 -1.9182
81162SOL    HW255212   5.085  10.208   9.635 -2.5157  0.5333  1.0679
81163SOL     OW55213   7.204  12.629   8.472  0.2168  0.0234  0.2280
81163SOL    HW155214   7.148  12.625   8.549  0.3757 -1.1042  0.3023
81163SOL    HW255215   7.188  12.547   8.425 -1.1952  1.4299 -1.9141
81164SOL     OW55216   0.315   1.228   5.677  0.4698  0.2471 -0.4465
81164SOL    HW155217   0.345   1.310   5.638  1.1157  0.7443  1.0587
81164SOL    HW255218   0.377   1.162   5.646  1.1126  0.6785 -0.0949
81165SOL     OW55219   2.167  10.142   9.737  0.2831  0.1507 -0.4961
81165SOL    HW155220   2.231  10.147   9.808 -0.2011  0.5284 -0.0774
81165SOL    HW255221   2.216  10.106   9.663 -0.0127 -3.5785  0.9312
81166SOL     OW55222   8.142   9.920   1.725  0.5815 -0.3520 -0.3133
81166SOL    HW155223   8.227   9.910   1.768  0.1660 -2.3839  0.1439
81166SOL    HW255224   8.078   9.887   1.789 -0.3804 -0.4559 -1.2875
81167SOL     OW55225  10.248   5.591   7.732 -0.4531  0.3647  0.7541
81167SOL    HW155226  10.224   5.597   7.825  0.4732  0.4260  1.0078
81167SOL    HW255227  10.275   5.499   7.721 -2.2368 -0.1099  0.0957
81168SOL     OW55228   4.412  13.613   1.680  0.1524  0.4356 -0.4289
81168SOL    HW155229   4.371  13.547   1.735 -1.4990  1.7918  0.0407
81168SOL    HW255230   4.476  13.656   1.737 -1.4463  1.7363  0.4623
81169SOL     OW55231   5.069   1.407   3.162 -0.2758 -0.1312  0.0590
81169SOL    HW155232   5.121   1.478   3.124 -1.5588  0.4324 -0.7458
81169SOL    HW255233   4.978   1.438   3.153 -0.8575 -1.8345 -0.2194
81170SOL     OW55234   0.196   7.517   3.884 -0.3061 -0.3058 -0.3900
81170SOL    HW155235   0.190   7.519   3.980 -0.8656  1.0475 -0.4294
81170SOL    HW255236   0.218   7.607   3.860  1.5735 -0.9892 -1.4455
81171SOL     OW55237  11.959   9.946   1.997  0.2838 -0.3529  0.6097
81171SOL    HW155238  11.903   9.911   1.928 -1.2704  0.6073  1.2969
81171SOL    HW255239  11.897   9.980   2.062  1.6188  2.6018  0.5014
81172SOL     OW55240   2.020   8.604   6.741  0.3907  0.0125  0.3711
81172SOL    HW155241   2.094   8.568   6.693  0.4982  1.1272 -0.3326
81172SOL    HW255242   1.970   8.528   6.769  0.6585 -0.6895 -0.9781
81173SOL     OW55243  12.442   2.638   2.209 -0.3289  0.6686 -0.3612
81173SOL    HW155244  12.529   2.602   2.227 -0.9410 -0.8990 -0.3987
81173SOL    HW255245  12.401   2.647   2.295 -0.2741  1.0504 -0.3727
81174SOL     OW55246   5.454   6.748   7.477 -0.1725 -0.2977  0.2147
81174SOL    HW155247   5.447   6.750   7.572 -0.7576  0.6289  0.1721
81174SOL    HW255248   5.445   6.840   7.451 -2.4310 -0.7622 -0.8719
81175SOL     OW55249  13.342  11.403  12.544  0.0094  0.0827 -0.2683
81175SOL    HW155250  13.353  11.471  12.611 -0.8542 -0.7948  0.8098
81175SOL    HW255251  13.431  11.378  12.520  0.3348  0.8382  0.1023
81176SOL     OW55252   4.540   7.954  10.951 -0.1757  0.1681 -0.3599
81176SOL    HW155253   4.602   7.888  10.920  1.4264  1.5266 -0.1974
81176SOL    HW255254   4.555   7.958  11.046  0.7220  1.6534 -0.5267
81177SOL     OW55255   4.308   3.571  11.046  0.1208  0.6443  0.5107
81177SOL    HW155256   4.396   3.534  11.042  0.4408  1.4119  0.2817
81177SOL    HW255257   4.262   3.518  11.110 -0.4541 -2.2962 -2.0890
81178SOL     OW55258   2.033   4.722   1.474 -0.0200 -0.1370 -0.3491
81178SOL    HW155259   2.107   4.718   1.413 -1.5105  1.1509 -2.3468
81178SOL    HW255260   2.000   4.632   1.477  0.9164 -0.4928 -0.3045
81179SOL     OW55261   5.752   9.981  12.063 -0.5221 -0.4943  0.4146
81179SOL    HW155262   5.832  10.016  12.102  0.0763 -0.4208 -0.8360
81179SOL    HW255263   5.726   9.910  12.122  0.6285 -0.7246  0.6661
81180SOL     OW55264  12.411   6.720   1.984  0.4054  0.1418 -0.4725
81180SOL    HW155265  12.430   6.805   1.943  3.4574 -1.2636 -2.3131
81180SOL    HW255266  12.495   6.675   1.985 -0.9652 -2.6006  1.1890
81181SOL     OW55267   6.893   9.343  10.831  0.0537 -0.3018  0.6911
81181SOL    HW155268   6.940   9.329  10.749 -0.2959 -2.4858  0.8118
81181SOL    HW255269   6.804   9.366  10.804 -0.0888 -1.1167  0.4267
81182SOL     OW55270   3.460   9.542   4.560 -0.2566  0.1223  0.1831
81182SOL    HW155271   3.396   9.541   4.631  0.3546  1.6035  0.7752
81182SOL    HW255272   3.541   9.509   4.600  0.4567  2.2237  0.5927
81183SOL     OW55273   9.871   9.289   4.540 -0.1129 -0.5227 -0.0461
81183SOL    HW155274   9.886   9.288   4.446  2.3496 -0.4473  0.2894
81183SOL    HW255275   9.789   9.336   4.551 -0.8669 -1.2332 -2.1764
81184SOL     OW55276  10.704   3.382   8.276 -0.1706 -0.6154 -0.2877
81184SOL    HW155277  10.790   3.339   8.271  0.3930  0.5493 -1.0850
81184SOL    HW255278  10.720   3.460   8.330 -0.8599 -0.6833  0.0154
81185SOL     OW55279   2.851  10.493   4.844  0.8101  0.4007 -0.1414
81185SOL    HW155280   2.846  10.413   4.792 -0.6945  0.2406  0.1987
81185SOL    HW255281   2.926  10.480   4.902  2.1409  0.3208 -1.7955
81186SOL     OW55282  10.803  12.573   7.828 -0.4162  0.3222  0.2505
81186SOL    HW155283  10.851  12.501   7.869  0.4269  0.4327 -0.5099
81186SOL    HW255284  10.810  12.556   7.734 -0.6056  1.1488  0.0767
81187SOL     OW55285   4.922  13.296  10.318  0.2995  0.1555  0.2269
81187SOL    HW155286   4.998  13.325  10.368 -0.4118  1.0548  0.8056
81187SOL    HW255287   4.959  13.263  10.236  1.5824 -2.1780  1.6252
81188SOL     OW55288   0.789   0.471  10.307 -0.2330 -0.4310 -0.3066
81188SOL    HW155289   0.796   0.463  10.402 -1.2752  0.6525 -0.1088
81188SOL    HW255290   0.707   0.428  10.284  0.1456 -0.9285 -0.7599
81189SOL     OW55291   5.787   6.764  12.146 -0.0535  0.2005 -0.3768
81189SOL    HW155292   5.828   6.759  12.059  1.4491 -1.2198  0.3494
81189SOL    HW255293   5.760   6.674  12.164  0.7519  0.2212  1.1105
81190SOL     OW55294  13.159   4.618   3.110 -0.1690  0.1843  0.0598
81190SOL    HW155295  13.136   4.642   3.020 -1.8448  3.0623  1.1253
81190SOL    HW255296  13.244   4.658   3.125  1.0307 -1.9191 -0.7531
81191SOL     OW55297  11.564  10.627   2.421 -0.3035 -0.0948 -0.2406
81191SOL    HW155298  11.565  10.694   2.490 -0.9382 -0.1304 -0.1838
81191SOL    HW255299  11.561  10.678   2.339 -0.2229 -0.0517 -0.2167
81192SOL     OW55300   9.734   0.046   3.643  0.0189  0.4324  0.4960
81192SOL    HW155301   9.758   0.064   3.734  0.3397  0.1421  0.4705
81192SOL    HW255302   9.710  -0.047   3.643 -0.8240  0.6402  0.4597
81193SOL     OW55303  11.323   0.432  12.891  0.4921  0.3024  0.5774
81193SOL    HW155304  11.383   0.402  12.959  1.0298  0.5560  0.2281
81193SOL    HW255305  11.347   0.380  12.814 -0.3394 -0.2304  0.6622
81194SOL     OW55306   2.713   6.347   0.616 -0.3031  0.2010 -0.3071
81194SOL    HW155307   2.722   6.441   0.631 -1.2250  0.2408  0.0557
81194SOL    HW255308   2.667   6.340   0.533 -1.1039  0.0985  0.1342
81195SOL     OW55309   0.391   7.217   7.102  0.0941 -0.0001 -0.0870
81195SOL    HW155310   0.338   7.219   7.022 -0.2645 -1.1549  0.1001
81195SOL    HW255311   0.481   7.203   7.071  0.1804  1.0560 -0.3540
81196SOL     OW55312   4.477   5.866  12.276  0.2935 -0.4504  0.6640
81196SOL    HW155313   4.417   5.880  12.203  0.1988 -0.5565  0.7211
81196SOL    HW255314   4.471   5.772  12.294  2.8418 -1.1045 -1.3856
81197SOL     OW55315  10.029   3.015   4.383  0.3704 -0.3716 -0.4116
81197SOL    HW155316  10.102   2.956   4.368  0.6679 -0.1985  0.3138
81197SOL    HW255317   9.960   2.984   4.324 -0.2362 -2.7501  1.3937
81198SOL     OW55318   8.243   5.866   0.090  0.5758  0.1623  0.2896
81198SOL    HW155319   8.200   5.894   0.170  1.9067 -0.0461  1.1033
81198SOL    HW255320   8.208   5.778   0.074  0.1411  0.2924  0.4920
81199SOL     OW55321  10.439   7.096   5.558  0.1311 -0.4462 -0.3268
81199SOL    HW155322  10.401   7.158   5.495 -1.1805 -0.1186  0.7405
81199SOL    HW255323  10.533   7.112   5.553 -0.0833  0.7654 -0.9855
81200SOL     OW55324  11.337  12.224   0.249 -0.7833  0.4815 -0.4145
81200SOL    HW155325  11.345  12.160   0.178 -0.6559 -0.2358  0.2334
81200SOL    HW255326  11.273  12.185   0.309 -3.1136  2.3502 -1.4742
81201SOL     OW55327  12.619  11.742   3.795 -0.5478 -0.1992 -0.4113
81201SOL    HW155328  12.526  11.763   3.804 -0.2365  0.8564  0.4992
81201SOL    HW255329  12.637  11.682   3.866  0.0646  1.7746  1.1863
81202SOL     OW55330  10.370   6.671   0.850  0.2389 -0.0709  0.1576
81202SOL    HW155331  10.402   6.746   0.800 -0.2632 -1.4079 -2.2778
81202SOL    HW255332  10.446   6.614   0.860  0.0360 -0.4210 -0.2688
81203SOL     OW55333   8.322   3.985   0.920  0.5324 -1.0031 -0.7191
81203SOL    HW155334   8.403   4.017   0.880 -0.8503  0.3592 -2.6343
81203SOL    HW255335   8.282   4.063   0.959 -0.6924 -1.2763 -1.3756
81204SOL     OW55336   3.143   5.910   7.830  0.1885  0.2130  0.1152
81204SOL    HW155337   3.226   5.866   7.848 -0.1557 -1.2510 -1.6171
81204SOL    HW255338   3.139   5.981   7.895  1.5325 -1.3018  1.9895
81205SOL     OW55339   7.101   0.773   9.854  0.0455  0.1397 -0.1674
81205SOL    HW155340   7.081   0.707   9.921  0.7896  0.0349 -0.0345
81205SOL    HW255341   7.030   0.836   9.859  0.3375  0.3946  1.0728
81206SOL     OW55342  12.802   0.609  10.800 -0.3910  0.6078 -0.2354
81206SOL    HW155343  12.746   0.680  10.833 -2.2754 -0.0555 -1.8535
81206SOL    HW255344  12.843   0.645  10.722  0.9540  0.8462  0.5502
81207SOL     OW55345   8.725   9.499  13.146  0.2639 -0.1066 -0.0333
81207SOL    HW155346   8.800   9.551  13.174  1.7756 -1.1966 -1.8323
81207SOL    HW255347   8.700   9.448  13.223 -0.2735  2.0750  1.3022
81208SOL     OW55348   3.788  10.109   6.852 -0.2862  0.3617  0.5508
81208SOL    HW155349   3.726  10.155   6.795  0.2346  0.1702 -0.1974
81208SOL    HW255350   3.745  10.106   6.937 -0.5581  1.7585  0.4840
81209SOL     OW55351   7.073  10.091   2.674  0.7445  0.8562 -0.5828
81209SOL    HW155352   7.108  10.008   2.705  1.3302  1.3109  0.0161
81209SOL    HW255353   7.059  10.078   2.580 -0.9043 -0.4860 -0.1759
81210SOL     OW55354   5.015   1.817  10.456 -0.3129 -0.0204  0.2763
81210SOL    HW155355   5.083   1.780  10.512 -0.6790  1.4190  1.7694
81210SOL    HW255356   4.957   1.863  10.517 -0.9120  1.3635 -1.2615
81211SOL     OW55357  13.734   0.224   0.279  0.4623 -0.1964  0.2642
81211SOL    HW155358  13.658   0.166   0.274  0.0556  0.3478 -0.0201
81211SOL    HW255359  13.794   0.190   0.213  0.2186 -0.2943  0.0889
81212SOL     OW55360  13.264   1.297   6.726  0.2604  0.0045 -1.0106
81212SOL    HW155361  13.292   1.215   6.766  0.3762  0.1184 -0.8557
81212SOL    HW255362  13.337   1.323   6.670 -0.0624 -0.3565 -1.6087
81213SOL     OW55363   2.139   8.319   9.606 -0.4753  0.0882  0.4690
81213SOL    HW155364   2.114   8.266   9.681 -1.2949 -0.4623 -0.1779
81213SOL    HW255365   2.213   8.371   9.637 -0.4644 -0.5144  1.4902
81214SOL     OW55366  11.274   6.728  13.005 -0.3135 -0.1442  0.7401
81214SOL    HW155367  11.182   6.752  13.004  0.1893  2.0365  0.3776
81214SOL    HW255368  11.276   6.637  12.978 -2.2706  0.2227 -0.8629
81215SOL     OW55369   2.016   4.401   0.186  0.0961 -0.0982 -0.3053
81215SOL    HW155370   2.050   4.478   0.140  1.2474  0.2733  1.1056
81215SOL    HW255371   2.052   4.326   0.138 -0.0649  0.2478 -0.9761
81216SOL     OW55372   5.698   7.772   8.159  0.6433 -0.6562  0.1225
81216SOL    HW155373   5.631   7.705   8.149 -0.2286  0.2497 -0.2898
81216SOL    HW255374   5.649   7.854   8.166  1.6920 -0.0306  0.3638
81217SOL     OW55375   6.524   0.488  13.655  0.0504  0.2059 -0.2016
81217SOL    HW155376   6.478   0.549  13.597  1.3487  2.0771  0.6258
81217SOL    HW255377   6.485   0.503  13.741 -0.1133 -0.6756 -0.1171
81218SOL     OW55378  10.817   0.847   8.763 -0.4593 -0.3418 -0.2722
81218SOL    HW155379  10.845   0.778   8.703  0.4965  0.4333 -0.7358
81218SOL    HW255380  10.801   0.923   8.707  1.5825  0.7366  0.5341
81219SOL     OW55381   2.324  10.615  11.262 -0.1397  0.4382 -0.6662
81219SOL    HW155382   2.305  10.559  11.337  2.3360  0.7586  0.3003
81219SOL    HW255383   2.277  10.696  11.280  0.3087  0.4597  0.5086
81220SOL     OW55384   5.490   9.408   6.608 -0.0363  0.2850  0.0497
81220SOL    HW155385   5.580   9.375   6.599 -0.1829  0.2588 -1.7968
81220SOL    HW255386   5.501   9.501   6.628  0.3663 -0.3451  3.2210
81221SOL     OW55387   6.014  10.451   5.031  0.1836  0.9968  0.3101
81221SOL    HW155388   6.020  10.388   4.960  0.5547  1.6989 -0.2995
81221SOL    HW255389   5.942  10.509   5.006  0.4573  1.3780  0.3835
81222SOL     OW55390   7.040   9.546  12.244  0.5018  0.0724  0.1876
81222SOL    HW155391   6.989   9.516  12.319  0.4149 -0.0602  0.0765
81222SOL    HW255392   7.056   9.639  12.262  1.6888 -0.2724  1.0513
81223SOL     OW55393   1.132   3.135   0.869  0.1982  0.0923 -0.6498
81223SOL    HW155394   1.187   3.209   0.842 -0.9725  0.5372 -1.9504
81223SOL    HW255395   1.105   3.156   0.958  1.9805 -0.0706 -0.0298
81224SOL     OW55396   7.258   3.353   3.822  0.3456 -0.1931  0.6597
81224SOL    HW155397   7.343   3.373   3.783 -0.4408  2.4257  0.1420
81224SOL    HW255398   7.219   3.288   3.762  1.4809 -0.5483  0.2765
81225SOL     OW55399   9.495  10.313  11.235  0.4525  0.1808 -0.5858
81225SOL    HW155400   9.507  10.365  11.156  0.9412  1.0123  0.0232
81225SOL    HW255401   9.495  10.222  11.204  0.3250  0.5068 -1.5703
81226SOL     OW55402   9.440   5.486   6.400  0.3865 -0.1710 -0.5745
81226SOL    HW155403   9.388   5.555   6.358 -2.8879 -1.0013  1.7545
81226SOL    HW255404   9.450   5.514   6.491  1.4259 -1.4941 -0.2374
81227SOL     OW55405  11.052   6.770  10.711  0.1673 -0.4790  0.1163
81227SOL    HW155406  11.129   6.813  10.673 -0.4055  1.3905  0.9099
81227SOL    HW255407  11.087   6.708  10.774  1.0909  1.3981  1.5571
81228SOL     OW55408   1.431   3.436  11.610 -0.8129 -0.1910  0.2934
81228SOL    HW155409   1.356   3.377  11.610 -0.6625 -0.4824 -1.9254
81228SOL    HW255410   1.507   3.377  11.615 -0.6899 -0.1463 -0.7834
81229SOL     OW55411   2.741   7.966   0.373 -0.0552  0.1333  0.1203
81229SOL    HW155412   2.806   7.995   0.437  1.7426  1.3829 -2.1204
81229SOL    HW255413   2.758   7.873   0.361  1.3069  0.4096 -0.3183
81230SOL     OW55414  11.865  11.131   4.897 -0.3403 -0.3526 -0.7013
81230SOL    HW155415  11.812  11.126   4.818 -0.5777  3.2513 -0.9223
81230SOL    HW255416  11.909  11.216   4.892  2.1190 -1.3174  1.5782
81231SOL     OW55417   0.137  10.874  12.732  0.2318 -0.4657  0.4127
81231SOL    HW155418   0.230  10.896  12.744 -0.2038  1.5048  0.6668
81231SOL    HW255419   0.130  10.850  12.640  0.7817  0.7134  0.0404
81232SOL     OW55420   2.029   2.985   0.608 -0.3977 -0.1137 -0.0929
81232SOL    HW155421   2.014   3.028   0.692  1.5768 -0.3031  0.3965
81232SOL    HW255422   1.950   3.004   0.557 -1.0724  1.1027  1.3353
81233SOL     OW55423   0.943  11.936  12.041  0.6212  0.1478 -0.1569
81233SOL    HW155424   0.851  11.909  12.049  0.2799  0.3505 -2.7285
81233SOL    HW255425   0.951  12.007  12.104 -0.8189 -0.2575  0.5484
81234SOL     OW55426   4.055   9.960   7.575 -0.3338 -0.3668  0.3209
81234SOL    HW155427   4.128   9.982   7.517 -0.2090  0.0505  0.6295
81234SOL    HW255428   3.986   9.928   7.517  0.2114 -1.0889  0.0558
81235SOL     OW55429  11.268  10.217   3.961 -0.4330 -0.5334 -0.0760
81235SOL    HW155430  11.182  10.201   3.999 -0.1103 -0.5068  0.6866
81235SOL    HW255431  11.271  10.312   3.946  0.4049 -0.0950  2.3426
81236SOL     OW55432   6.146   1.307  11.831 -0.0591  0.6542 -0.3368
81236SOL    HW155433   6.204   1.381  11.846 -0.3591  0.9583 -0.6767
81236SOL    HW255434   6.194   1.231  11.866  0.9909  0.7282 -1.5555
81237SOL     OW55435  10.280  10.647   5.217 -0.3379  0.9475 -0.2903
81237SOL    HW155436  10.324  10.722   5.258  1.5050 -0.6984  0.9392
81237SOL    HW255437  10.297  10.658   5.124  1.2362  1.2890  0.0090
81238SOL     OW55438  12.167  13.373   7.655  0.1906 -0.1422 -0.8189
81238SOL    HW155439  12.098  13.327   7.704 -0.8272  0.8124 -1.3255
81238SOL    HW255440  12.154  13.347   7.564  0.7738 -0.2779 -0.8707
81239SOL     OW55441   8.375   5.031   1.831  0.4388  0.8796 -0.4885
81239SOL    HW155442   8.314   5.070   1.894 -0.3860 -0.5263 -0.3831
81239SOL    HW255443   8.461   5.037   1.873  0.0323  0.7921  0.3729
81240SOL     OW55444   0.297   8.244   1.388  0.5627  1.1126 -0.1014
81240SOL    HW155445   0.241   8.295   1.328 -0.6078  1.7682  1.4554
81240SOL    HW255446   0.325   8.168   1.337 -1.4703  0.9598 -1.0872
81241SOL     OW55447   6.308   9.389   8.213 -0.0814  0.5428 -0.2059
81241SOL    HW155448   6.229   9.336   8.222  0.0238  0.4891  0.3990
81241SOL    HW255449   6.367   9.356   8.280  1.7901 -1.7558 -2.7520
81242SOL     OW55450   4.811   0.798   7.587  0.2377 -0.1373 -0.8593
81242SOL    HW155451   4.833   0.876   7.638 -0.0164 -0.6039 -0.0149
81242SOL    HW255452   4.811   0.828   7.496  0.9976  0.6410 -0.6153
81243SOL     OW55453  13.349  12.049   9.423  0.5952 -0.2214  0.1018
81243SOL    HW155454  13.280  12.076   9.362  1.4705  0.2120 -0.7243
81243SOL    HW255455  13.344  11.953   9.423  0.4186 -0.2182 -0.4681
81244SOL     OW55456   7.521   1.752   4.158 -0.0519  0.0378 -0.1267
81244SOL    HW155457   7.562   1.693   4.221  2.4929  2.7680  1.0289
81244SOL    HW255458   7.427   1.738   4.170  0.4204 -2.3507  1.4140
81245SOL     OW55459   9.723   9.449   1.308 -0.1191  0.8247  0.2496
81245SOL    HW155460   9.666   9.518   1.273 -0.8244  0.1436  0.0201
81245SOL    HW255461   9.682   9.367   1.279  1.5219  0.3206 -0.7321
81246SOL     OW55462  12.773   8.707  13.239 -0.4959 -0.1061  0.2914
81246SOL    HW155463  12.712   8.774  13.269  0.2327  0.2347  1.0781
81246SOL    HW255464  12.814   8.745  13.161 -0.1961  0.3177  0.6480
81247SOL     OW55465   7.099  11.064   8.938  0.1462  0.2156  0.0451
81247SOL    HW155466   7.091  11.073   9.033 -0.1186 -1.5915  0.2491
81247SOL    HW255467   7.011  11.037   8.910  0.1932  0.8457 -0.7294
81248SOL     OW55468  10.175   1.840   7.773  0.4763 -0.0043  0.3464
81248SOL    HW155469  10.090   1.843   7.815 -0.0654 -0.2759 -0.6930
81248SOL    HW255470  10.221   1.768   7.816 -0.3720 -0.8152 -0.0974
81249SOL     OW55471  10.148   8.056  10.715 -0.0997 -0.4771 -0.1951
81249SOL    HW155472  10.224   8.043  10.771  0.1691  0.0670 -0.4232
81249SOL    HW255473  10.185   8.072  10.628 -0.5046 -1.0645 -0.4800
81250SOL     OW55474  11.327   0.350   5.721 -0.6639  1.3521  0.3184
81250SOL    HW155475  11.410   0.341   5.767 -0.2127  0.3471 -0.6573
81250SOL    HW255476  11.261   0.320   5.784 -0.1588  0.9325  0.6454
81251SOL     OW55477  12.047   6.431  13.158 -0.2236 -0.3843  0.6185
81251SOL    HW155478  12.042   6.407  13.065 -0.8531  0.9778  0.2792
81251SOL    HW255479  12.140   6.422  13.180  0.0682  0.0510 -0.3671
81252SOL     OW55480   7.690   9.040  11.781 -0.2372  0.4127  0.2434
81252SOL    HW155481   7.639   9.009  11.856 -0.8489 -0.1479 -0.3902
81252SOL    HW255482   7.687   8.967  11.719  3.0194 -0.5211  0.9513
81253SOL     OW55483   6.141   8.900   0.494 -0.6332  0.1980 -0.0508
81253SOL    HW155484   6.196   8.822   0.491 -0.1120  0.4258  2.1129
81253SOL    HW255485   6.064   8.873   0.545 -1.8853  0.3061 -1.7848
81254SOL     OW55486   2.349   1.486   2.655 -0.0450  0.6592  0.6196
81254SOL    HW155487   2.388   1.470   2.741  0.3443  1.4214  0.5949
81254SOL    HW255488   2.358   1.403   2.609  1.2538  0.7067  0.7385
81255SOL     OW55489   5.409   8.420  10.211 -0.2705  0.1382  0.1454
81255SOL    HW155490   5.463   8.348  10.178 -1.4461 -0.0604 -1.4819
81255SOL    HW255491   5.459   8.499  10.188 -0.9932  0.0034 -2.1607
81256SOL     OW55492  10.029  12.065  12.837 -0.5765  0.2629  0.1180
81256SOL    HW155493  10.117  12.099  12.820 -0.3438 -1.0647 -1.6250
81256SOL    HW255494  10.042  11.996  12.902 -0.4776  0.6846  0.5546
81257SOL     OW55495   1.130  13.378   1.969 -0.4226 -0.1085 -0.3521
81257SOL    HW155496   1.221  13.361   1.946  1.0506  2.5769  2.5883
81257SOL    HW255497   1.107  13.309   2.031 -0.0744 -0.3243 -0.4645
81258SOL     OW55498  10.247   5.801   9.709  0.3018 -0.5167 -0.5735
81258SOL    HW155499  10.302   5.786   9.632  1.5563  0.2514  0.1366
81258SOL    HW255500  10.307   5.798   9.783 -0.9943 -1.9847  0.4884
81259SOL     OW55501   6.645  13.589   8.334  0.5561  0.2239  0.0323
81259SOL    HW155502   6.627  13.679   8.361  0.6367  0.0287  0.7566
81259SOL    HW255503   6.740  13.579   8.342  0.6473  0.3013 -0.7973
81260SOL     OW55504   4.127   8.154   4.031 -0.2790  0.5725 -0.0124
81260SOL    HW155505   4.054   8.097   4.056 -0.0939  0.4784  0.3217
81260SOL    HW255506   4.137   8.214   4.105 -0.2717  0.8346 -0.2279
81261SOL     OW55507   4.953   0.430   1.682  0.1819 -0.0111 -0.2553
81261SOL    HW155508   4.994   0.517   1.682  0.2140 -0.0175 -0.9434
81261SOL    HW255509   4.903   0.427   1.601  2.2279 -1.5620 -1.5839
81262SOL     OW55510   4.530   9.013   1.588  0.5436  0.9117 -0.0235
81262SOL    HW155511   4.482   9.024   1.506  0.2492 -0.7973 -0.1190
81262SOL    HW255512   4.468   9.043   1.655 -0.0442  0.2880 -0.2744
81263SOL     OW55513   4.034   9.865   2.923 -0.1435 -0.0570 -0.3996
81263SOL    HW155514   4.037   9.959   2.906 -2.0093  0.0727 -0.1869
81263SOL    HW255515   4.114   9.831   2.882  0.0861  1.4868 -1.3192
81264SOL     OW55516  10.889   8.356   0.204 -0.4005 -0.0489  0.0434
81264SOL    HW155517  10.896   8.262   0.185 -0.7657  0.0345 -0.5161
81264SOL    HW255518  10.980   8.385   0.212 -0.2609 -0.9191  2.6873
81265SOL     OW55519  11.507   0.923  11.772  0.3107 -0.2212 -0.0127
81265SOL    HW155520  11.545   0.852  11.721  0.8835 -1.2085  1.7148
81265SOL    HW255521  11.540   0.909  11.861 -2.6907 -0.0941  1.2285
81266SOL     OW55522   5.389   4.005   8.151 -0.1206  0.3439 -0.4224
81266SOL    HW155523   5.423   3.919   8.127  2.4164  1.6984 -2.2193
81266SOL    HW255524   5.317   4.021   8.091  0.1191 -0.0868 -0.8304
81267SOL     OW55525   7.538   4.430   9.182 -0.1409  0.1069 -0.9185
81267SOL    HW155526   7.610   4.494   9.180  0.6824 -0.6752  0.9636
81267SOL    HW255527   7.576   4.350   9.145 -0.0555 -0.2881  0.0112
81268SOL     OW55528   9.552   6.373   0.718  0.0756 -0.2553  0.0952
81268SOL    HW155529   9.583   6.385   0.808 -0.7871  0.8223  0.2809
81268SOL    HW255530   9.630   6.384   0.664  0.7466 -1.6525  0.7337
81269SOL     OW55531   6.142   3.017   6.908  0.5973  0.0701 -0.3284
81269SOL    HW155532   6.084   2.975   6.972  1.1231  1.5559  1.2085
81269SOL    HW255533   6.165   2.947   6.847  0.1817 -1.4697  1.1993
81270SOL     OW55534   3.289   1.913   8.266 -0.5379 -0.5667  0.1557
81270SOL    HW155535   3.379   1.881   8.264 -0.4046 -0.1543 -0.7625
81270SOL    HW255536   3.286   1.981   8.199 -1.5485 -0.6107  0.1454
81271SOL     OW55537  11.770  12.229   4.783 -0.5652  0.0499 -0.2590
81271SOL    HW155538  11.787  12.200   4.693 -1.7773 -1.7930  0.0383
81271SOL    HW255539  11.857  12.233   4.823 -0.1240 -0.6965 -1.0814
81272SOL     OW55540   1.809  10.106  10.542  0.1724  0.4648  0.2935
81272SOL    HW155541   1.835  10.195  10.518 -0.8202  1.1459  1.6045
81272SOL    HW255542   1.839  10.095  10.632  0.2401 -0.5201  0.1651
81273SOL     OW55543   8.375   1.755   6.481  0.5363  0.2363 -0.0261
81273SOL    HW155544   8.375   1.841   6.441  0.0337  0.3736  0.2629
81273SOL    HW255545   8.286   1.722   6.468  0.7137 -0.2221 -0.0986
81274SOL     OW55546  13.261   7.268  12.614 -0.4776 -0.6693  0.2590
81274SOL    HW155547  13.197   7.322  12.567  0.3140 -0.1750 -0.2739
81274SOL    HW255548  13.346   7.305  12.590  0.0763 -1.9882  0.1008
81275SOL     OW55549   7.155  11.418   5.517  0.1503 -0.1453  0.9558
81275SOL    HW155550   7.069  11.388   5.545 -0.1104 -1.4077 -1.0516
81275SOL    HW255551   7.214  11.346   5.540  0.3039 -0.2190  0.3348
81276SOL     OW55552   2.857   2.413  12.931  0.2753  0.3339  0.2216
81276SOL    HW155553   2.948   2.399  12.956  0.3172 -0.5948 -0.3985
81276SOL    HW255554   2.854   2.505  12.904  0.3006  1.2740  3.1365
81277SOL     OW55555  13.404   7.977  10.742 -0.2484 -0.2833 -0.1084
81277SOL    HW155556  13.394   7.940  10.655 -1.3901  1.5009 -0.8012
81277SOL    HW255557  13.315   7.996  10.771  0.2028  3.5435 -0.6472
81278SOL     OW55558  10.623   9.138   3.315  0.2037  0.1651  0.1165
81278SOL    HW155559  10.645   9.126   3.223 -0.6155  0.0343 -0.0717
81278SOL    HW255560  10.683   9.080   3.362 -0.2213 -0.7332 -0.4278
81279SOL     OW55561   8.107   8.905   1.680  0.0491 -0.7076  0.0873
81279SOL    HW155562   8.158   8.984   1.694  0.7485 -1.0045 -0.7493
81279SOL    HW255563   8.109   8.860   1.764 -2.2356  1.1994  1.2975
81280SOL     OW55564   2.534   2.290   8.181  0.3793 -0.0674 -0.1578
81280SOL    HW155565   2.500   2.377   8.160 -1.7263 -0.8810 -0.3764
81280SOL    HW255566   2.626   2.294   8.158  0.1996  1.9342 -0.7108
81281SOL     OW55567   9.082   2.615   4.164 -0.3095  0.1827 -0.1013
81281SOL    HW155568   9.163   2.579   4.129 -0.9796 -0.1867 -1.3230
81281SOL    HW255569   9.057   2.555   4.235 -0.0916 -0.3349 -0.4592
81282SOL     OW55570   9.882   1.116   2.362 -0.6446  0.2720  0.2422
81282SOL    HW155571   9.791   1.100   2.335 -0.2979 -1.3915 -0.0789
81282SOL    HW255572   9.906   1.036   2.410  0.1494  1.3583  1.7346
81283SOL     OW55573   5.657   8.520   8.394 -0.2588  0.3903  0.6857
81283SOL    HW155574   5.738   8.568   8.409  0.0208  1.1062 -2.4562
81283SOL    HW255575   5.678   8.430   8.419  1.9012  0.3510 -0.9676
81284SOL     OW55576  12.633   6.443   7.865 -0.3383  0.7104  0.2199
81284SOL    HW155577  12.607   6.373   7.926 -0.0785 -0.2500 -0.7299
81284SOL    HW255578  12.580   6.427   7.787  0.5254  0.8897 -0.4205
81285SOL     OW55579   9.979   7.258   1.726  0.5211 -0.0632  0.0556
81285SOL    HW155580   9.922   7.253   1.649  1.4093 -0.7807 -0.5763
81285SOL    HW255581   9.977   7.170   1.763  1.1494 -0.0740  0.0728
81286SOL     OW55582   7.935   9.087  11.344  0.3628  0.6528  0.8860
81286SOL    HW155583   7.933   9.118  11.253 -0.4950 -0.7315  0.4159
81286SOL    HW255584   8.016   9.125  11.380  0.0773  2.2597 -0.0534
81287SOL     OW55585  10.925  13.702   3.340 -0.3468  0.5560  0.3375
81287SOL    HW155586  11.012  13.736   3.320  0.5514 -1.2334  0.9123
81287SOL    HW255587  10.940  13.640   3.412 -1.5874 -1.9374 -1.3995
81288SOL     OW55588  12.083   3.730   4.336 -0.3593  0.0544 -0.1499
81288SOL    HW155589  12.153   3.742   4.273  0.9691 -1.0377  1.0531
81288SOL    HW255590  12.056   3.638   4.324  0.0662 -0.2348  0.9997
81289SOL     OW55591   4.371   1.095   5.487  0.5572 -0.2772 -0.0397
81289SOL    HW155592   4.392   1.111   5.395  1.4751  0.7805  0.3305
81289SOL    HW255593   4.456   1.089   5.531  0.1372  0.6242  0.9545
81290SOL     OW55594   7.689  12.678   3.383 -0.1355 -0.3944  0.3849
81290SOL    HW155595   7.689  12.633   3.467 -0.0600  0.1003  0.6487
81290SOL    HW255596   7.613  12.642   3.336 -1.0349  0.3793  1.2207
81291SOL     OW55597   3.876   6.774   6.892  0.0864  0.3454 -0.1572
81291SOL    HW155598   3.840   6.832   6.959 -0.7076  1.5235 -1.5405
81291SOL    HW255599   3.824   6.694   6.899 -0.3893  0.6828  0.2419
81292SOL     OW55600  10.348   5.447   4.107 -0.2083 -0.2895 -0.0011
81292SOL    HW155601  10.351   5.429   4.013  0.5513  0.4828 -0.1446
81292SOL    HW255602  10.440   5.446   4.134 -0.4791 -1.3728  0.9156
81293SOL     OW55603  12.121   7.809  12.479 -0.8212 -0.7498 -0.4104
81293SOL    HW155604  12.202   7.821  12.428 -0.4676 -0.1484  0.2864
81293SOL    HW255605  12.143   7.739  12.541 -0.7624 -0.4418 -0.0815
81294SOL     OW55606   5.194   1.972  11.580  0.7000  0.1939  0.2383
81294SOL    HW155607   5.194   1.884  11.617  0.0842  0.5644  1.1615
81294SOL    HW255608   5.276   2.011  11.611  0.7255  0.1196  0.2639
81295SOL     OW55609   6.743   8.605   8.465 -0.1665 -0.1607  0.4672
81295SOL    HW155610   6.772   8.682   8.513 -1.2182  0.0600  0.7630
81295SOL    HW255611   6.731   8.635   8.375 -0.1823 -0.0816  0.4962
81296SOL     OW55612   7.647   2.912  11.447  0.1038 -0.5103  0.0685
81296SOL    HW155613   7.615   2.889  11.534  1.0430 -2.8742 -0.1482
81296SOL    HW255614   7.658   2.828  11.402  0.4399  0.5951 -2.0644
81297SOL     OW55615  12.682  11.230   0.268  0.3510  0.0155  0.3950
81297SOL    HW155616  12.668  11.207   0.360  0.4007 -0.6843  0.2293
81297SOL    HW255617  12.722  11.317   0.271 -0.7394  0.5111  0.9951
81298SOL     OW55618   9.735   3.833   5.319  0.3977  0.5201  0.0374
81298SOL    HW155619   9.738   3.766   5.251 -3.4911  0.6217 -0.4878
81298SOL    HW255620   9.766   3.788   5.398 -1.5256 -1.8744 -0.4143
81299SOL     OW55621   3.972   0.487   1.650 -0.0374  0.2481  0.1812
81299SOL    HW155622   3.942   0.562   1.700  1.5593  0.0497  1.5357
81299SOL    HW255623   4.065   0.479   1.672  0.5676 -0.3208 -2.2593
81300SOL     OW55624  10.529   8.095   1.353  0.7283  0.1224 -0.2927
81300SOL    HW155625  10.608   8.133   1.314  2.1449 -1.8066  0.5165
81300SOL    HW255626  10.491   8.042   1.283  1.3135 -0.5752 -0.0877
81301SOL     OW55627   3.230  10.333   7.876  0.4179 -0.0715 -0.1840
81301SOL    HW155628   3.182  10.286   7.807  1.0065 -1.1126  0.0943
81301SOL    HW255629   3.309  10.281   7.890  1.0581  0.9709  0.2069
81302SOL     OW55630   5.771   9.248  10.043 -0.1991 -0.3227 -0.1072
81302SOL    HW155631   5.784   9.154  10.047  1.4389 -0.1817 -1.1664
81302SOL    HW255632   5.784   9.278  10.133  0.7998 -0.9492 -0.0337
81303SOL     OW55633   6.590  10.376   8.048 -0.3308  0.7526 -0.4066
81303SOL    HW155634   6.680  10.408   8.043 -0.8632  2.4299 -0.0070
81303SOL    HW255635   6.591  10.292   8.002  1.6299  0.2823  0.4139
81304SOL     OW55636   1.652  11.273   2.202 -0.4314  0.0220  0.4279
81304SOL    HW155637   1.676  11.183   2.222 -0.2739  0.4228  2.2745
81304SOL    HW255638   1.733  11.323   2.217 -0.8439  0.6214  0.6872
81305SOL     OW55639   6.794   9.714  10.884  0.3036 -0.1341  0.4876
81305SOL    HW155640   6.722   9.719  10.947  1.2782 -0.2638  1.6421
81305SOL    HW255641   6.867   9.677  10.934  0.8924 -0.9540 -0.9212
81306SOL     OW55642   3.972   8.463   9.864 -0.2522 -0.3368 -0.2562
81306SOL    HW155643   4.012   8.522   9.929 -0.8229  1.2238 -1.2533
81306SOL    HW255644   4.045   8.429   9.814  0.1711 -1.3053  0.9653
81307SOL     OW55645  11.126   9.554   1.846  1.0098  0.5182 -0.3007
81307SOL    HW155646  11.195   9.608   1.885  0.1535  0.4203  1.4147
81307SOL    HW255647  11.137   9.468   1.885 -0.3109  0.6028  0.3207
81308SOL     OW55648   1.137   1.568   1.144 -0.4143  0.0078  0.7958
81308SOL    HW155649   1.227   1.551   1.171 -0.2819  1.0111  1.0164
81308SOL    HW255650   1.105   1.483   1.110  0.2770 -0.5916  1.6251
81309SOL     OW55651   9.513   5.044   7.573 -0.2093  0.8441 -0.3601
81309SOL    HW155652   9.506   5.111   7.505 -3.1511  1.4554  0.3731
81309SOL    HW255653   9.556   5.089   7.646 -0.2741  1.2854 -0.5926
81310SOL     OW55654   9.241   7.923  11.181 -0.0103 -0.4817  0.2079
81310SOL    HW155655   9.187   7.968  11.116  2.6863  1.3583 -0.9484
81310SOL    HW255656   9.281   7.850  11.134  0.8448  0.0000  0.1706
81311SOL     OW55657   5.399  10.344  10.457  0.4329  0.1835 -0.1483
81311SOL    HW155658   5.378  10.324  10.548 -3.3801 -0.5252 -1.0193
81311SOL    HW255659   5.418  10.259  10.417 -0.1230  0.1998 -0.4598
81312SOL     OW55660  11.301   8.881   9.913  0.6217 -0.1046  0.3471
81312SOL    HW155661  11.393   8.903   9.896  0.7276 -1.9628 -2.0865
81312SOL    HW255662  11.253   8.926   9.844 -0.1936  0.1330  1.0639
81313SOL     OW55663   4.751   8.414  13.035 -0.0245 -0.2319 -0.5626
81313SOL    HW155664   4.839   8.427  12.999  0.9102  1.6504  2.0709
81313SOL    HW255665   4.693   8.455  12.972  1.2071  0.3210 -1.3851
81314SOL     OW55666   2.568   4.465   4.913  0.2518  0.0032  0.5325
81314SOL    HW155667   2.477   4.490   4.930  0.0617  1.3570 -2.0278
81314SOL    HW255668   2.562   4.391   4.853  0.8208  0.2876  0.1170
81315SOL     OW55669   1.727   0.500   2.360 -0.0882 -0.8971 -0.3698
81315SOL    HW155670   1.635   0.480   2.373 -0.4619  0.3568 -0.9149
81315SOL    HW255671   1.758   0.529   2.446 -0.4317 -0.4924 -0.3795
81316SOL     OW55672   7.848   1.953  11.346 -0.8695  0.1179 -0.3329
81316SOL    HW155673   7.891   1.944  11.431 -0.8236  1.2897 -0.2192
81316SOL    HW255674   7.902   2.015  11.297 -0.9230 -0.4989 -1.2134
81317SOL     OW55675   5.613   4.180   7.404  0.4063  0.0277 -0.9028
81317SOL    HW155676   5.575   4.267   7.414  0.6158  0.0296 -0.0534
81317SOL    HW255677   5.537   4.122   7.390  0.2300  0.2728 -0.9596
81318SOL     OW55678   9.652   7.194  12.775 -0.1917  0.1353 -0.1324
81318SOL    HW155679   9.588   7.123  12.768 -0.5089  0.4232 -0.1475
81318SOL    HW255680   9.719   7.159  12.834  0.3870 -0.7124 -1.2686
81319SOL     OW55681  10.705   0.847   6.853  0.3527 -0.2788 -0.0320
81319SOL    HW155682  10.790   0.843   6.810  0.3713 -0.0863 -0.0113
81319SOL    HW255683  10.721   0.816   6.942  0.5936  0.6737  0.2717
81320SOL     OW55684  11.735   5.237   9.263 -0.1947  0.6334 -0.5045
81320SOL    HW155685  11.730   5.202   9.174 -0.1217  1.1482 -0.7163
81320SOL    HW255686  11.721   5.161   9.320  0.4802  0.1698 -0.9397
81321SOL     OW55687   1.407   1.438   4.813 -0.6911  0.1913 -0.1787
81321SOL    HW155688   1.315   1.425   4.834 -1.4709  1.9336 -2.1201
81321SOL    HW255689   1.418   1.534   4.811  0.6622  0.0682 -1.7409
81322SOL     OW55690   4.677   6.107  12.807  0.4303  0.3200  0.0187
81322SOL    HW155691   4.642   6.168  12.872  1.3614 -1.2943  2.1925
81322SOL    HW255692   4.614   6.035  12.805  1.1458 -0.3336  0.3019
81323SOL     OW55693   1.906   8.974   3.771  0.3001  0.1502 -0.7006
81323SOL    HW155694   1.920   9.034   3.845  2.1647 -0.6628 -0.3358
81323SOL    HW255695   1.873   9.030   3.701  0.0630  1.2355  0.2418
81324SOL     OW55696   3.474  11.384   3.243  0.4535  0.1187  0.2253
81324SOL    HW155697   3.540  11.436   3.196  1.0582  0.6722  1.6297
81324SOL    HW255698   3.409  11.363   3.176  0.9056  1.5021 -0.7052
81325SOL     OW55699   0.671   2.634  10.028 -0.1811  0.1428  0.2439
81325SOL    HW155700   0.671   2.651   9.934 -1.1234 -0.4496  0.1259
81325SOL    HW255701   0.629   2.548  10.037 -0.0719  0.1783  1.2013
81326SOL     OW55702   8.050   0.646  11.146 -0.0138 -0.0377 -0.4388
81326SOL    HW155703   8.015   0.604  11.067  2.2348  0.1548 -1.6315
81326SOL    HW255704   7.976   0.693  11.183 -1.5691 -1.5487 -1.4452
81327SOL     OW55705  11.995   3.917  11.176 -0.1865 -0.2969  0.1024
81327SOL    HW155706  11.900   3.923  11.187 -0.2267 -0.6489 -0.0636
81327SOL    HW255707  12.013   3.824  11.166  0.1874 -0.2402  0.2134
81328SOL     OW55708   9.824   7.898   4.194  0.5718  0.2133  0.4103
81328SOL    HW155709   9.769   7.873   4.120  0.3225  0.3209  0.5582
81328SOL    HW255710   9.848   7.815   4.236 -1.7244  0.2386  1.9687
81329SOL     OW55711   3.107   4.120  10.493  0.5852 -0.8115  0.0262
81329SOL    HW155712   3.096   4.214  10.479 -1.8786 -1.2518 -1.6857
81329SOL    HW255713   3.173   4.113  10.562  0.1859  2.1725  0.8346
81330SOL     OW55714   7.596   2.752   7.049 -0.5520  0.1860  0.2014
81330SOL    HW155715   7.550   2.706   7.118  0.1551  0.2994  0.7563
81330SOL    HW255716   7.604   2.688   6.978 -1.5483  0.1667  0.0920
81331SOL     OW55717   0.339   6.306   4.807  0.0420 -0.5277 -0.2908
81331SOL    HW155718   0.300   6.383   4.848  0.8671 -0.3687  0.2294
81331SOL    HW255719   0.291   6.295   4.725  0.0046  0.6188 -0.4318
81332SOL     OW55720   9.673   6.642   4.520  0.4917 -0.1732 -0.0549
81332SOL    HW155721   9.589   6.596   4.515 -0.3601  1.3671 -0.8907
81332SOL    HW255722   9.735   6.584   4.477 -0.3813 -0.8524 -0.4322
81333SOL     OW55723   9.286   0.322   9.433 -0.2967  0.1113 -0.2405
81333SOL    HW155724   9.338   0.348   9.509 -0.3754  2.0053 -0.7845
81333SOL    HW255725   9.348   0.280   9.374  1.2384  3.9030 -1.6762
81334SOL     OW55726  11.364   0.428   7.769 -0.2990  0.0857  0.5011
81334SOL    HW155727  11.366   0.340   7.732 -1.3217 -0.3355  1.4091
81334SOL    HW255728  11.423   0.479   7.713  0.6969 -1.2794  0.2554
81335SOL     OW55729  10.474   6.052   8.593 -0.3099 -0.4083  0.2328
81335SOL    HW155730  10.448   5.966   8.560  0.8462 -0.7592  0.1958
81335SOL    HW255731  10.406   6.075   8.655 -1.4670 -0.6341 -0.9063
81336SOL     OW55732   0.417   3.462   2.108  0.1646  0.2096  0.2277
81336SOL    HW155733   0.345   3.399   2.107  1.7938 -1.7624 -1.0096
81336SOL    HW255734   0.465   3.444   2.189  0.7096 -0.2591 -0.1920
81337SOL     OW55735   2.259   0.468   4.117  0.0044  0.0524 -0.3303
81337SOL    HW155736   2.346   0.453   4.153  0.2637  0.3077 -0.8313
81337SOL    HW255737   2.244   0.393   4.059  0.6182  0.8571 -1.5695
81338SOL     OW55738   1.688   4.634   0.981  0.4359  0.3712  0.1389
81338SOL    HW155739   1.679   4.691   1.057 -2.4736 -1.8825  1.6953
81338SOL    HW255740   1.776   4.597   0.988  0.4633  0.7169  2.0650
81339SOL     OW55741  12.089  13.183  12.229  0.4358  0.1722  0.0406
81339SOL    HW155742  12.092  13.094  12.265  2.4033  0.5726  0.9933
81339SOL    HW255743  12.097  13.240  12.305 -0.8290  1.1957 -0.5593
81340SOL     OW55744  10.015   9.973  10.745 -0.3187 -0.7107 -0.6598
81340SOL    HW155745  10.103   9.970  10.784 -0.6096 -3.0966 -0.0885
81340SOL    HW255746   9.958   9.999  10.817 -0.3320 -1.0515 -0.5490
81341SOL     OW55747   1.961  11.546   6.009  0.3664 -0.2203 -0.4824
81341SOL    HW155748   1.917  11.507   5.935 -1.5498 -0.8397  0.9039
81341SOL    HW255749   1.924  11.502   6.086 -0.5330  2.8998  1.0750
81342SOL     OW55750   3.154   2.853   0.254  0.9735  0.0905  0.3837
81342SOL    HW155751   3.211   2.805   0.194 -0.1654 -0.5712 -0.2132
81342SOL    HW255752   3.066   2.822   0.232  0.4296  0.7239  1.6058
81343SOL     OW55753   6.084   2.002  10.387 -0.3395  0.3975  0.1152
81343SOL    HW155754   6.116   1.985  10.299 -1.0718  3.5908 -0.9020
81343SOL    HW255755   6.022   1.930  10.405 -0.5907 -0.0352 -2.1879
81344SOL     OW55756   7.011   8.987   8.658  0.1049 -0.4718 -0.6121
81344SOL    HW155757   7.068   9.022   8.727  1.2471  0.2372 -1.8445
81344SOL    HW255758   7.005   9.059   8.594 -1.4550 -0.8674 -0.9595
81345SOL     OW55759  11.068   3.714  12.675 -0.2716 -0.5221  0.6457
81345SOL    HW155760  11.083   3.626  12.708 -0.1171 -0.7252  0.0564
81345SOL    HW255761  11.003   3.702  12.605 -0.3972 -0.1432  0.6948
81346SOL     OW55762   7.679   7.044   8.893  0.7031  0.7311 -0.1693
81346SOL    HW155763   7.678   7.049   8.797 -1.5449  0.6122 -0.2174
81346SOL    HW255764   7.671   6.951   8.913 -1.2421  0.8974  0.0457
81347SOL     OW55765   4.683   0.803   4.183 -0.0355  0.0931  0.1398
81347SOL    HW155766   4.749   0.735   4.197  0.5943  0.1798 -2.0186
81347SOL    HW255767   4.652   0.789   4.094 -0.7652  1.8946  0.0511
81348SOL     OW55768   5.270  11.148  10.307 -0.7062  0.0570  0.0412
81348SOL    HW155769   5.308  11.130  10.221 -0.4691  0.8315 -0.0298
81348SOL    HW255770   5.307  11.233  10.332 -1.0040 -0.0198  0.7763
81349SOL     OW55771  11.970   3.548   1.798  0.2853 -0.6683 -0.1192
81349SOL    HW155772  11.951   3.556   1.705 -1.1578 -1.0145  0.1256
81349SOL    HW255773  12.027   3.623   1.818  0.4271 -0.4709 -1.2191
81350SOL     OW55774   7.694  10.649  12.254 -0.2559 -0.1697  0.3737
81350SOL    HW155775   7.685  10.566  12.301 -0.2189  0.5453  1.6930
81350SOL    HW255776   7.611  10.694  12.269 -0.4712 -0.1677 -0.7616
81351SOL     OW55777   4.194   9.034   4.370 -0.4780  0.0237  0.6450
81351SOL    HW155778   4.288   9.042   4.355 -0.5433 -1.7105 -0.9742
81351SOL    HW255779   4.178   8.940   4.378 -1.8383  0.3699  2.8615
81352SOL     OW55780   6.861  11.226  12.959  0.2124  0.3333  0.4188
81352SOL    HW155781   6.800  11.238  12.887 -0.6417 -0.8647  0.9013
81352SOL    HW255782   6.948  11.229  12.919 -0.2627 -0.7871 -0.7460
81353SOL     OW55783   2.479   4.027  13.638 -0.0496  0.9067 -0.2220
81353SOL    HW155784   2.545   3.967  13.603 -2.2781 -0.5551 -2.2139
81353SOL    HW255785   2.476   4.008  13.732  1.1127 -0.2438 -0.3994
81354SOL     OW55786   4.502  10.493   5.502 -1.0724  0.2786  0.3142
81354SOL    HW155787   4.429  10.493   5.440 -0.0933 -0.1243 -0.8553
81354SOL    HW255788   4.499  10.581   5.541 -0.6063  1.2143 -1.6329
81355SOL     OW55789   7.266   9.739   1.141 -0.4457 -0.2274 -0.3135
81355SOL    HW155790   7.233   9.747   1.052 -0.4055  1.2603 -0.2297
81355SOL    HW255791   7.189   9.747   1.196 -0.5783 -1.9571 -0.2049
81356SOL     OW55792  12.742  12.616   2.767  0.1652 -0.2091 -0.2551
81356SOL    HW155793  12.828  12.580   2.788  0.3106  0.4603  0.3305
81356SOL    HW255794  12.694  12.612   2.849 -0.4877 -0.9156 -0.6676
81357SOL     OW55795   6.141   9.475  11.014  0.5402 -0.0651 -0.2739
81357SOL    HW155796   6.139   9.555  11.066  0.4881  0.0649 -0.4748
81357SOL    HW255797   6.065   9.425  11.044  0.3362  0.1465 -0.4415
81358SOL     OW55798   9.215   5.957   3.695  0.2727  0.2950  0.4563
81358SOL    HW155799   9.173   6.033   3.736 -1.7930 -0.5394  0.0413
81358SOL    HW255800   9.292   5.992   3.652 -0.0743  1.9837  1.1351
81359SOL     OW55801   6.020  10.388  12.886  0.3640 -0.2817  0.2997
81359SOL    HW155802   6.057  10.315  12.935 -0.7485 -0.5173  0.8082
81359SOL    HW255803   6.007  10.354  12.797  0.4355 -0.4998  0.3736
81360SOL     OW55804   4.209   4.879   6.755  0.1503  0.0866 -0.3981
81360SOL    HW155805   4.272   4.883   6.684 -1.1575 -1.9777 -1.7916
81360SOL    HW255806   4.139   4.940   6.729  0.3144  0.3764 -0.1702
81361SOL     OW55807   4.855   0.686   8.454  0.2120  0.1231 -0.2544
81361SOL    HW155808   4.931   0.708   8.509  0.5820 -3.8384  1.1388
81361SOL    HW255809   4.893   0.637   8.381 -0.9043 -1.7509  0.3648
81362SOL     OW55810   3.022   7.604   9.896 -0.0019 -0.4528  0.4909
81362SOL    HW155811   3.032   7.598   9.991  0.5390  0.2690  0.4877
81362SOL    HW255812   3.101   7.648   9.866 -0.0223 -0.9549 -0.3379
81363SOL     OW55813  13.104   9.512   1.188  0.2011 -0.0663 -0.0291
81363SOL    HW155814  13.175   9.465   1.143 -1.5517 -1.3572 -1.5748
81363SOL    HW255815  13.145   9.547   1.267  3.0626  0.9252 -1.7864
81364SOL     OW55816   2.190   6.072  11.405 -0.1252  0.1965 -0.1835
81364SOL    HW155817   2.191   6.161  11.368  0.0393 -0.1406 -1.0211
81364SOL    HW255818   2.112   6.032  11.367 -1.0179  0.4249  1.3208
81365SOL     OW55819   9.605   6.036   8.838 -0.1573 -0.0143  0.1459
81365SOL    HW155820   9.527   6.050   8.892  0.1283 -1.5899  1.0099
81365SOL    HW255821   9.667   5.991   8.895  0.3241 -1.3418 -1.3389
81366SOL     OW55822   0.891  13.475   3.350 -0.0746  0.3123  0.1904
81366SOL    HW155823   0.907  13.423   3.271 -0.4047  0.0123  0.3181
81366SOL    HW255824   0.900  13.413   3.422  1.3997  0.8188  0.4894
81367SOL     OW55825  11.785  11.879  12.943  0.3882  0.0430 -0.6240
81367SOL    HW155826  11.746  11.857  12.858 -0.6550  0.3917 -0.2500
81367SOL    HW255827  11.717  11.857  13.007  0.4321  1.5461 -0.0240
81368SOL     OW55828   4.884  10.202   7.725 -0.2669  0.9149  0.1074
81368SOL    HW155829   4.850  10.156   7.648 -1.4157  0.7613  0.6897
81368SOL    HW255830   4.972  10.167   7.737 -0.3209  0.4558 -0.7344
81369SOL     OW55831   8.366   5.407   6.557  0.1931  0.1607  0.1771
81369SOL    HW155832   8.358   5.352   6.479 -0.3659  1.7831 -0.9632
81369SOL    HW255833   8.400   5.490   6.524 -1.3638  1.3498  1.4453
81370SOL     OW55834   6.299   2.504  10.183 -0.2249  0.0553 -0.5644
81370SOL    HW155835   6.228   2.506  10.248  0.1469 -1.8235 -0.0314
81370SOL    HW255836   6.352   2.581  10.202  0.4535 -0.9702  2.0856
81371SOL     OW55837   0.363   5.387   8.640  0.6070 -0.0854 -0.3000
81371SOL    HW155838   0.391   5.358   8.726  2.2986 -1.2334 -1.1706
81371SOL    HW255839   0.399   5.476   8.632 -0.6047  0.5143  0.6019
81372SOL     OW55840   7.066   5.111   8.036 -0.6724  0.0109 -0.3999
81372SOL    HW155841   7.025   5.040   7.986  0.8846 -0.6901 -0.7238
81372SOL    HW255842   7.160   5.093   8.032 -0.3330  1.3699  0.6350
81373SOL     OW55843  10.800   2.913  12.127  0.4892  0.4539  0.4930
81373SOL    HW155844  10.706   2.926  12.116  0.2684 -1.5570 -0.6065
81373SOL    HW255845  10.840   2.970  12.061 -0.0528  0.2601 -0.0139
81374SOL     OW55846   0.866   1.261  10.234 -0.0296 -0.2355 -0.0685
81374SOL    HW155847   0.862   1.217  10.149  0.0518 -0.7770  0.2040
81374SOL    HW255848   0.946   1.227  10.275  0.4946  0.7957 -0.1924
81375SOL     OW55849   3.102  13.156  11.715 -0.7234  0.0019 -0.0747
81375SOL    HW155850   3.094  13.244  11.752 -1.8770  0.2757 -0.9347
81375SOL    HW255851   3.108  13.169  11.621 -0.3818 -0.8283 -0.1802
81376SOL     OW55852  10.979  11.981   7.184 -0.7613 -0.1459  0.0252
81376SOL    HW155853  11.017  12.049   7.239 -2.4758 -0.1302  1.2766
81376SOL    HW255854  11.042  11.969   7.113  0.4652  1.4008  0.7981
81377SOL     OW55855   1.482   9.168   8.546 -0.6238 -0.1795  0.5053
81377SOL    HW155856   1.406   9.202   8.498  0.4962  1.0019 -0.5200
81377SOL    HW255857   1.557   9.194   8.492  0.5162 -1.2812  1.5103
81378SOL     OW55858   1.832   5.668   7.247 -0.0704 -0.4488 -0.3253
81378SOL    HW155859   1.752   5.627   7.278 -0.4416  1.0370  0.7773
81378SOL    HW255860   1.826   5.662   7.151 -1.0007 -1.2416 -0.2333
81379SOL     OW55861   7.219   6.898   5.983 -0.0904 -0.5030  0.7574
81379SOL    HW155862   7.250   6.810   5.962  0.1068 -0.3310  0.3208
81379SOL    HW255863   7.234   6.907   6.077  1.1988 -0.4252  0.5600
81380SOL     OW55864   6.023   9.462   6.780  0.3265 -0.1350 -0.3062
81380SOL    HW155865   5.944   9.513   6.759  0.1886 -0.6957 -1.1915
81380SOL    HW255866   6.011   9.437   6.872 -0.1924  0.3739 -0.2282
81381SOL     OW55867   6.423   5.923  13.105 -0.3011  0.2710 -0.0983
81381SOL    HW155868   6.387   6.003  13.067 -1.1658 -0.5825 -1.1586
81381SOL    HW255869   6.475   5.885  13.034 -0.4103 -0.4162  0.1841
81382SOL     OW55870   0.064  12.457  12.118 -0.0034 -0.1650 -0.0779
81382SOL    HW155871   0.097  12.519  12.053  0.1044 -1.8803 -1.7482
81382SOL    HW255872  -0.031  12.456  12.104  0.1440 -1.5729 -1.2676
81383SOL     OW55873   0.583  11.574   4.963 -0.0255  0.5211  0.2507
81383SOL    HW155874   0.586  11.635   5.037  0.2083 -1.1532  1.6823
81383SOL    HW255875   0.503  11.524   4.976  1.3194 -1.5884  0.9216
81384SOL     OW55876   6.667   8.172  13.742 -0.2685 -0.2159  0.1760
81384SOL    HW155877   6.740   8.231  13.762  0.8004 -1.3301 -0.3437
81384SOL    HW255878   6.603   8.189  13.811  0.4560  0.7997  0.6241
81385SOL     OW55879   6.856   5.564  11.735  0.6951  0.4539 -0.4364
81385SOL    HW155880   6.949   5.566  11.713  0.8283 -0.8502 -0.0840
81385SOL    HW255881   6.832   5.472  11.729 -0.3774  0.6663  0.2986
81386SOL     OW55882  11.537   6.748   7.527 -0.0602 -0.3185  0.5768
81386SOL    HW155883  11.620   6.722   7.567  1.9701  0.8691 -2.5034
81386SOL    HW255884  11.522   6.683   7.458 -1.0288  0.2017  0.2738
81387SOL     OW55885   5.028   8.067  12.309 -0.9063  0.4259 -0.0581
81387SOL    HW155886   4.962   8.109  12.254  0.8439  0.4314 -2.2765
81387SOL    HW255887   5.108   8.117  12.294 -0.3983  0.6436  2.8354
81388SOL     OW55888   1.069   6.481   1.540 -0.0014 -0.2575  0.3981
81388SOL    HW155889   1.156   6.443   1.534 -0.1510 -0.7035  0.9982
81388SOL    HW255890   1.028   6.437   1.614 -0.6806  0.0661  0.2250
81389SOL     OW55891   8.208   1.724   4.316 -0.0250  0.0153 -0.2552
81389SOL    HW155892   8.288   1.715   4.264 -0.0903 -0.0235 -0.3501
81389SOL    HW255893   8.194   1.637   4.353 -0.3431 -0.1332 -0.7099
81390SOL     OW55894   4.457  11.400  12.864 -0.5847  0.4341  0.0015
81390SOL    HW155895   4.528  11.463  12.877  0.0841 -0.0178 -1.2139
81390SOL    HW255896   4.395  11.445  12.806 -1.5937  1.0217  1.4760
81391SOL     OW55897   8.665  13.632   5.889  0.0796 -0.0221  0.0288
81391SOL    HW155898   8.708  13.576   5.825  2.0014  1.9010 -0.4687
81391SOL    HW255899   8.605  13.686   5.837  0.0843  0.0990  0.1498
81392SOL     OW55900   6.863  10.717   6.259  0.7137  0.3970  0.4320
81392SOL    HW155901   6.955  10.733   6.279  0.9490  2.3875 -1.8398
81392SOL    HW255902   6.815  10.767   6.325  1.1719 -1.0110  1.9078
81393SOL     OW55903   1.124  13.103   7.612  0.8503  0.6949  0.7078
81393SOL    HW155904   1.083  13.021   7.639  1.8439 -0.5080 -1.2386
81393SOL    HW255905   1.068  13.171   7.649 -1.8227 -0.8463 -0.2600
81394SOL     OW55906   0.457   0.065  12.624 -0.3508  0.4505  0.3476
81394SOL    HW155907   0.525   0.025  12.569 -0.0563  0.4271  0.7326
81394SOL    HW255908   0.484   0.047  12.714 -1.4568 -0.5715  0.5069
81395SOL     OW55909   8.591   8.113   9.894  0.1526  0.0788  0.1279
81395SOL    HW155910   8.599   8.076   9.806 -0.2344  1.4074 -0.4986
81395SOL    HW255911   8.553   8.043   9.946 -1.5351 -0.1032 -1.2605
81396SOL     OW55912   9.430   8.568   7.165 -0.2733  0.3686 -0.5955
81396SOL    HW155913   9.518   8.560   7.128 -1.5984 -1.2812 -3.8721
81396SOL    HW255914   9.399   8.653   7.133 -0.3863  0.2576 -0.7852
81397SOL     OW55915   5.308   4.072  12.504 -0.2069  0.0349 -0.0867
81397SOL    HW155916   5.394   4.038  12.482  0.4080  1.6096 -0.2879
81397SOL    HW255917   5.325   4.139  12.571 -1.3098  0.0995  0.1526
81398SOL     OW55918   3.977   0.029  12.598  0.4619 -0.0712  0.0024
81398SOL    HW155919   3.977   0.105  12.656 -2.3446 -0.3833  0.5510
81398SOL    HW255920   3.935  -0.041  12.649  0.9473 -1.3487 -1.2572
81399SOL     OW55921   7.044   5.593  11.382 -0.3321 -0.1050  0.2654
81399SOL    HW155922   7.012   5.653  11.315  2.3988  1.3302  0.0989
81399SOL    HW255923   7.068   5.649  11.455  1.2222 -1.0863  0.5565
81400SOL     OW55924   0.220   4.763   8.466  0.0039  0.5322  0.0645
81400SOL    HW155925   0.280   4.793   8.534  0.9804 -1.1011 -0.0411
81400SOL    HW255926   0.133   4.789   8.498  0.6790  2.5180  0.4334
81401SOL     OW55927  11.198  11.104  10.415  0.0206 -0.3108 -0.2375
81401SOL    HW155928  11.182  11.049  10.491  0.1921  0.8003  0.6286
81401SOL    HW255929  11.290  11.090  10.394 -0.1505 -0.9865 -0.5412
81402SOL     OW55930   1.718   2.722   0.589 -0.1045  0.8219  0.0802
81402SOL    HW155931   1.773   2.682   0.523 -1.9699 -0.6904 -0.6508
81402SOL    HW255932   1.779   2.751   0.657  1.5032 -2.0069 -0.0014
81403SOL     OW55933   2.054  10.829   9.236  0.2432  0.4688 -0.1192
81403SOL    HW155934   2.116  10.874   9.178  1.3046 -0.2106  0.4541
81403SOL    HW255935   2.077  10.860   9.324  2.0878 -2.2777  0.5025
81404SOL     OW55936  10.734   6.744   9.266  0.5954  0.6256  0.5360
81404SOL    HW155937  10.683   6.822   9.245  1.5648  1.8226  2.2912
81404SOL    HW255938  10.673   6.686   9.310  0.0307  0.6987 -0.1397
81405SOL     OW55939  13.229   5.142  11.112  0.1185 -0.0655  0.2663
81405SOL    HW155940  13.138   5.139  11.082 -0.4174 -0.9992  1.8912
81405SOL    HW255941  13.266   5.058  11.085 -0.1455 -0.5868  1.4703
81406SOL     OW55942   7.000   8.759   7.066 -0.3433 -0.4167 -0.2100
81406SOL    HW155943   7.042   8.834   7.023  1.7238 -1.3306  0.1428
81406SOL    HW255944   7.066   8.690   7.065 -2.9283 -3.1449 -2.7093
81407SOL     OW55945  12.808   7.580  11.833 -0.3519  0.6955  0.2090
81407SOL    HW155946  12.823   7.659  11.781  0.7304  1.4527  1.5861
81407SOL    HW255947  12.844   7.509  11.780  0.6356  1.4224 -0.1220
81408SOL     OW55948   2.670   2.840  13.389 -0.3307 -0.1485  0.1597
81408SOL    HW155949   2.640   2.757  13.425  0.0250 -0.9317 -1.2476
81408SOL    HW255950   2.756   2.854  13.429 -0.3270 -0.5386  0.2921
81409SOL     OW55951   0.389   2.584   7.418 -0.4262 -0.6472 -0.4195
81409SOL    HW155952   0.466   2.529   7.405 -0.2553 -0.3044 -0.8751
81409SOL    HW255953   0.367   2.616   7.331  0.6106  1.5100  0.0488
81410SOL     OW55954   9.793   5.189   7.296 -0.2867  0.0418  0.0870
81410SOL    HW155955   9.803   5.234   7.380  0.1401 -0.3797  0.2667
81410SOL    HW255956   9.849   5.238   7.236 -1.0810  0.7265 -0.1085
81411SOL     OW55957   2.969   5.525   5.424  0.4746  0.4278 -0.1031
81411SOL    HW155958   2.918   5.529   5.504  0.8042 -0.5506  0.1704
81411SOL    HW255959   3.038   5.461   5.442 -0.6961 -1.4622 -1.8590
81412SOL     OW55960  12.373   6.550  12.128  0.3589  0.5173 -0.1250
81412SOL    HW155961  12.428   6.628  12.134  0.7891  0.2187 -0.1648
81412SOL    HW255962  12.304   6.575  12.067  0.7362  0.7231 -0.4725
81413SOL     OW55963  12.821   1.124   7.399 -0.1073 -0.0554  0.0050
81413SOL    HW155964  12.865   1.102   7.481  1.9429 -0.3036 -1.0923
81413SOL    HW255965  12.858   1.209   7.375 -0.5282 -0.0896 -0.7742
81414SOL     OW55966   5.247  13.202   9.615 -0.6102 -0.0836  0.7176
81414SOL    HW155967   5.325  13.157   9.646 -0.0578 -0.6767 -1.3375
81414SOL    HW255968   5.250  13.287   9.659  1.3608  0.0198  0.5124
81415SOL     OW55969   9.939   0.684   9.277  0.4414  0.3720  0.3457
81415SOL    HW155970  10.001   0.727   9.218  0.3145  2.2899  1.5154
81415SOL    HW255971   9.938   0.739   9.355  0.1512 -1.7414  1.9248
81416SOL     OW55972  12.100   5.615  12.497  0.4643 -0.6262 -0.5417
81416SOL    HW155973  12.043   5.547  12.462  0.2569 -0.9073  0.3093
81416SOL    HW255974  12.166   5.567  12.547  0.7645 -0.2404 -0.5671
81417SOL     OW55975   6.253  13.115   9.650 -0.3368  0.0660  0.7986
81417SOL    HW155976   6.310  13.043   9.623 -1.1658  0.1566 -1.4333
81417SOL    HW255977   6.195  13.128   9.575 -0.9389  2.3345  1.5973
81418SOL     OW55978  10.346   5.540   0.861  0.2417 -0.9546 -0.2463
81418SOL    HW155979  10.314   5.626   0.833  1.1014 -0.0789  1.3091
81418SOL    HW255980  10.314   5.480   0.794  0.7648  0.7452 -2.1234
81419SOL     OW55981   2.248   2.851  10.557 -0.1362 -0.0976  0.0222
81419SOL    HW155982   2.280   2.790  10.623 -0.0817 -1.3346 -1.1151
81419SOL    HW255983   2.153   2.836  10.554  0.0345 -1.1464 -1.2036
81420SOL     OW55984   4.397  12.467   4.828 -0.1189  0.3699 -0.3163
81420SOL    HW155985   4.462  12.489   4.895 -0.0542  0.1089 -0.2929
81420SOL    HW255986   4.353  12.389   4.862  0.3746 -0.1679 -0.8855
81421SOL     OW55987   9.083   3.399   3.931  0.0705 -0.2913 -0.8437
81421SOL    HW155988   9.128   3.474   3.971  0.8418 -0.9913 -0.3649
81421SOL    HW255989   8.993   3.405   3.962  0.3617 -0.1150 -0.0120
81422SOL     OW55990  12.751   3.297  10.238 -0.4161  0.5217  0.3770
81422SOL    HW155991  12.754   3.341  10.153 -2.0716  0.3542  0.2087
81422SOL    HW255992  12.813   3.346  10.292  0.1151  1.0856 -0.7101
81423SOL     OW55993   7.665   6.220   0.640  0.1343  0.6310  0.0752
81423SOL    HW155994   7.609   6.143   0.652 -0.7563  1.3546  0.6277
81423SOL    HW255995   7.615   6.278   0.584  1.1748  0.4642 -1.0766
81424SOL     OW55996  10.045   0.458  13.648 -0.4440 -0.2960  0.2060
81424SOL    HW155997  10.128   0.454  13.600 -2.1957  1.6814 -3.4306
81424SOL    HW255998  10.017   0.549  13.639 -3.7647 -1.2271 -0.1418
81425SOL     OW55999   6.968   1.933  11.762 -0.5275  0.5321 -0.1389
81425SOL    HW156000   6.879   1.926  11.729 -0.0617  1.6162 -1.7513
81425SOL    HW256001   7.007   2.003  11.711  1.2092  0.2058  0.6603
81426SOL     OW56002   1.498   2.396  12.422 -0.1292 -0.1824  0.1243
81426SOL    HW156003   1.409   2.365  12.401  0.0028 -0.7717  0.4257
81426SOL    HW256004   1.521   2.350  12.502 -0.7268  2.2470  1.8030
81427SOL     OW56005   8.376   2.639   4.889  0.4676 -0.0173 -0.4539
81427SOL    HW156006   8.464   2.663   4.860  0.7041 -1.3038 -0.9069
81427SOL    HW256007   8.331   2.613   4.808  0.2156 -0.9337 -0.0396
81428SOL     OW56008   6.532  12.910  12.389  0.2905  0.3084 -0.5321
81428SOL    HW156009   6.542  12.983  12.450 -0.4542 -0.4408  0.5175
81428SOL    HW256010   6.605  12.851  12.411 -1.4719 -1.2410  1.5249
81429SOL     OW56011  13.125   2.997   9.447 -0.2834 -0.4699 -0.6174
81429SOL    HW156012  13.069   3.044   9.385 -0.8513  1.8151  1.4504
81429SOL    HW256013  13.162   3.066   9.502  1.1666 -2.2802  0.7947
81430SOL     OW56014   1.549   0.671   6.437  0.0612  0.3040  0.1140
81430SOL    HW156015   1.641   0.688   6.419 -0.1219  0.2445 -0.9203
81430SOL    HW256016   1.546   0.578   6.461 -0.0457 -0.3890 -2.3519
81431SOL     OW56017   0.609   0.324   6.159  0.0232 -1.0874 -0.2906
81431SOL    HW156018   0.582   0.265   6.230  0.3192 -0.9720 -0.0793
81431SOL    HW256019   0.558   0.404   6.174 -0.3807 -1.2841 -0.5793
81432SOL     OW56020   0.482   7.677  11.108  0.0786 -0.2857  0.1483
81432SOL    HW156021   0.575   7.660  11.122  0.1246  0.2405  0.5542
81432SOL    HW256022   0.474   7.695  11.015  0.5688  0.6680  0.2705
81433SOL     OW56023   6.651   4.952   6.708 -0.5870 -0.1000  0.0839
81433SOL    HW156024   6.624   4.982   6.795  1.4931 -0.6643  0.9811
81433SOL    HW256025   6.598   4.874   6.693  0.2448 -1.0293  1.6683
81434SOL     OW56026   2.805  11.000   2.398  0.4724 -0.2670 -0.5526
81434SOL    HW156027   2.723  11.048   2.413  1.6494  2.0469 -1.0722
81434SOL    HW256028   2.857  11.016   2.476  0.1355 -2.5098  0.1879
81435SOL     OW56029  12.015   1.683   0.413 -0.6543  0.3410 -0.7401
81435SOL    HW156030  11.958   1.621   0.369 -1.1475  0.2874 -0.0376
81435SOL    HW256031  12.102   1.643   0.409 -0.8707 -0.1216 -0.7912
81436SOL     OW56032   9.449   9.489   5.612  0.5221  0.2198 -0.0470
81436SOL    HW156033   9.420   9.442   5.690  1.6244  2.2304  1.6864
81436SOL    HW256034   9.511   9.430   5.570  0.3279 -0.6883  0.9134
81437SOL     OW56035   3.221   3.417   4.539  0.4271  0.7628  0.4623
81437SOL    HW156036   3.290   3.352   4.525 -0.9184 -0.1967 -2.6637
81437SOL    HW256037   3.142   3.365   4.554 -0.0135  1.8052  1.9553
81438SOL     OW56038   4.328   6.881   6.844 -0.2834  0.0509  0.1416
81438SOL    HW156039   4.388   6.861   6.915  0.8056 -0.6107 -0.9471
81438SOL    HW256040   4.261   6.813   6.849 -1.3051  1.1057  1.7007
81439SOL     OW56041   3.981   3.521   5.986  0.0341 -0.1257  0.4518
81439SOL    HW156042   4.041   3.456   6.023  0.7194 -0.9791 -1.9804
81439SOL    HW256043   4.033   3.567   5.920 -1.7164 -0.2680 -1.0991
81440SOL     OW56044   3.291   6.747  12.904 -0.1168  0.0198 -0.4607
81440SOL    HW156045   3.316   6.658  12.927 -0.4740  0.3123  1.1661
81440SOL    HW256046   3.213   6.737  12.849  0.0428 -0.6764 -0.5647
81441SOL     OW56047  11.203   4.232   2.390 -0.1946 -0.2010 -0.3480
81441SOL    HW156048  11.133   4.221   2.454 -1.1729 -1.3539 -1.5641
81441SOL    HW256049  11.220   4.144   2.358  0.8039  0.2597 -1.1436
81442SOL     OW56050   7.911  12.592   9.956  0.3536  0.1627 -0.1663
81442SOL    HW156051   7.984  12.634   9.910 -0.4452  0.0254 -1.6410
81442SOL    HW256052   7.835  12.608   9.900 -0.8080  0.4702  1.4253
81443SOL     OW56053   7.684   2.974   7.996 -0.2243  0.1831 -0.1565
81443SOL    HW156054   7.760   3.020   8.032 -0.6404 -0.1999  1.2660
81443SOL    HW256055   7.640   2.937   8.072 -0.6254 -1.4750 -1.1517
81444SOL     OW56056   9.689   8.422   5.143  0.0792 -0.2234  0.0823
81444SOL    HW156057   9.703   8.517   5.139 -0.2871 -0.1871 -0.3401
81444SOL    HW256058   9.631   8.403   5.069  0.7482 -0.8840 -0.2799
81445SOL     OW56059  10.225  13.631   9.729  0.1734 -0.1236 -0.1444
81445SOL    HW156060  10.193  13.592   9.810 -1.3265  1.8382  0.2819
81445SOL    HW256061  10.311  13.666   9.752 -1.1235  2.3895  1.3724
81446SOL     OW56062   8.848   7.201   7.761  0.2662 -0.2210  0.2092
81446SOL    HW156063   8.771   7.201   7.703 -0.3991 -0.8162  1.0578
81446SOL    HW256064   8.811   7.211   7.849  0.9482 -2.5401  0.8404
81447SOL     OW56065   2.420   0.662   0.824  0.0166  0.2655  0.2256
81447SOL    HW156066   2.506   0.697   0.800 -0.4850  0.0926 -2.1209
81447SOL    HW256067   2.366   0.740   0.840 -0.0513  0.4777 -0.9521
81448SOL     OW56068   5.740   8.368   9.100  0.1506 -0.0005 -0.1520
81448SOL    HW156069   5.775   8.310   9.033  0.4033 -1.4380  1.1621
81448SOL    HW256070   5.768   8.455   9.074  0.6449 -0.5851 -1.6454
81449SOL     OW56071   9.845  13.161   8.378  0.1405 -0.2257  0.4899
81449SOL    HW156072   9.880  13.231   8.322 -1.8731  1.0280  0.7203
81449SOL    HW256073   9.836  13.201   8.464 -0.8280 -0.8334  0.6843
81450SOL     OW56074  13.225   7.064   1.172 -0.1207  0.2833  0.3845
81450SOL    HW156075  13.268   7.050   1.256 -1.0087 -2.4083  0.4520
81450SOL    HW256076  13.235   6.982   1.125 -2.6171  0.5452 -0.7687
81451SOL     OW56077   8.552   6.564   9.787  0.6817  0.1584 -0.2042
81451SOL    HW156078   8.635   6.569   9.740  0.6511 -0.2475 -0.2977
81451SOL    HW256079   8.540   6.652   9.823  1.1524  0.2157 -0.1873
81452SOL     OW56080   0.492   8.083   3.817  0.7030 -0.1565  0.1756
81452SOL    HW156081   0.562   8.141   3.849 -0.2286  0.9481  0.3046
81452SOL    HW256082   0.412   8.117   3.859 -0.0814 -0.6523 -0.8579
81453SOL     OW56083   3.093  12.352  12.573 -0.2063 -0.9646  0.1471
81453SOL    HW156084   3.179  12.309  12.565  1.3261  1.7778  0.4125
81453SOL    HW256085   3.063  12.362  12.483 -0.4763 -2.3379  0.0734
81454SOL     OW56086   2.583   1.421  11.615 -0.2942 -0.2310 -0.4047
81454SOL    HW156087   2.524   1.448  11.685  1.4607 -0.4806  1.2706
81454SOL    HW256088   2.664   1.395  11.661  0.5575 -1.4403 -2.4528
81455SOL     OW56089   4.088   2.199  11.859 -0.2129 -0.3809  0.3641
81455SOL    HW156090   4.168   2.197  11.911  0.4120 -3.2626 -0.5602
81455SOL    HW256091   4.018   2.178  11.920  0.0179 -0.1643  0.7090
81456SOL     OW56092  10.962  13.074   8.716  0.0891 -0.8873  0.3827
81456SOL    HW156093  10.930  13.158   8.683  0.0858 -1.1045 -0.1750
81456SOL    HW256094  10.914  13.060   8.798 -1.0503 -1.0662 -0.2890
81457SOL     OW56095   8.790   9.445   4.711  0.2473  0.1131 -0.3259
81457SOL    HW156096   8.769   9.370   4.766  0.0980  1.2443  1.2132
81457SOL    HW256097   8.845   9.409   4.642  0.4320 -1.3651  0.5551
81458SOL     OW56098   7.671   2.109   6.142 -0.2138 -0.1237 -0.2322
81458SOL    HW156099   7.763   2.085   6.127 -0.3314 -1.2572  0.6985
81458SOL    HW256100   7.621   2.049   6.086 -0.3858  1.0949 -1.4357
81459SOL     OW56101   3.471   6.569   9.124  0.0717  0.8194  0.2168
81459SOL    HW156102   3.551   6.524   9.095  1.2218  2.1898  1.1070
81459SOL    HW256103   3.475   6.565   9.219 -1.6384 -0.2330  0.2789
81460SOL     OW56104  11.351   5.029   0.958 -0.4744  0.7703 -0.0937
81460SOL    HW156105  11.284   5.022   0.890 -0.2359  1.3831 -0.4007
81460SOL    HW256106  11.413   5.094   0.924 -0.2567  0.9495  0.6306
81461SOL     OW56107  12.014   8.003  12.640  0.0039 -0.4568  0.5105
81461SOL    HW156108  12.049   7.938  12.579 -0.2764 -0.4988  0.3930
81461SOL    HW256109  11.919   8.001  12.625 -0.5979 -3.1684  3.5315
81462SOL     OW56110   0.761   6.783   8.474 -0.0299 -0.4271  0.4102
81462SOL    HW156111   0.727   6.725   8.406 -2.6177 -0.0631  1.2957
81462SOL    HW256112   0.833   6.829   8.432 -1.2142 -0.5714 -1.9382
81463SOL     OW56113  11.313   8.650   9.458 -0.1292 -0.7970  0.2117
81463SOL    HW156114  11.342   8.741   9.453 -0.8226 -0.6338 -0.9836
81463SOL    HW256115  11.392   8.602   9.485  0.4834  0.0226 -0.0681
81464SOL     OW56116   2.391   0.291   8.675 -0.0808 -0.7126 -0.1391
81464SOL    HW156117   2.451   0.301   8.749 -1.8288  0.9351  1.1256
81464SOL    HW256118   2.417   0.360   8.613 -1.2988  0.7617  0.9183
81465SOL     OW56119   9.708   7.154   6.752  0.2529  0.1199  0.1159
81465SOL    HW156120   9.681   7.240   6.720  1.0802  0.0695 -0.7420
81465SOL    HW256121   9.641   7.131   6.817 -0.0112  1.3773  0.3225
81466SOL     OW56122   6.441  12.978   9.509  0.1447  0.3893 -0.2696
81466SOL    HW156123   6.452  13.053   9.450 -2.5430 -0.7194 -2.4175
81466SOL    HW256124   6.449  12.901   9.452 -0.5012 -0.8318  1.2047
81467SOL     OW56125   3.887   3.472   0.916 -0.0520 -0.1049 -0.2185
81467SOL    HW156126   3.878   3.419   0.837  0.7247  2.1259 -1.9069
81467SOL    HW256127   3.968   3.520   0.903  0.3407 -0.0252  2.1977
81468SOL     OW56128  10.974   5.707  11.518 -0.5620  0.4672  0.0892
81468SOL    HW156129  10.892   5.735  11.477  0.1837  1.5636 -0.6842
81468SOL    HW256130  10.978   5.755  11.601  0.4005  2.2494 -0.9380
81469SOL     OW56131  10.906  10.326  10.442  0.2350  0.5164 -0.1283
81469SOL    HW156132  10.870  10.368  10.364 -0.5350  1.5370  0.7510
81469SOL    HW256133  10.854  10.247  10.452 -0.1108  0.7198 -0.2753
81470SOL     OW56134   6.167  10.424   3.912 -0.0984  0.0294  0.5077
81470SOL    HW156135   6.215  10.472   3.844 -0.5637 -0.6847 -0.3495
81470SOL    HW256136   6.224  10.351   3.934 -0.4795 -0.4402 -0.0283
81471SOL     OW56137  13.583   7.692   0.517  0.6397  0.6741  0.3760
81471SOL    HW156138  13.649   7.688   0.447 -0.1725 -1.1073 -0.3456
81471SOL    HW256139  13.627   7.654   0.593  0.4862 -0.5152 -0.1048
81472SOL     OW56140   4.049  10.405   2.313 -0.2254  0.4873 -0.0815
81472SOL    HW156141   4.044  10.347   2.236  0.2856 -1.6490  1.4111
81472SOL    HW256142   3.958  10.432   2.327 -0.2559  1.3789 -1.7293
81473SOL     OW56143  10.424   8.123   4.817  0.3870  0.4106  0.3086
81473SOL    HW156144  10.401   8.044   4.769  1.2941 -0.2004  0.8655
81473SOL    HW256145  10.339   8.165   4.835 -0.0298  0.1875 -0.9880
81474SOL     OW56146   5.821   2.406   3.164 -0.0613 -0.0198 -0.5627
81474SOL    HW156147   5.771   2.328   3.140 -0.0664  0.0561 -0.8036
81474SOL    HW256148   5.764   2.453   3.225  0.3665 -0.7173  0.3925
81475SOL     OW56149   8.367   7.471   1.005 -0.1301  0.3638 -0.4344
81475SOL    HW156150   8.288   7.425   0.976  0.4154  0.2052 -1.7633
81475SOL    HW256151   8.401   7.511   0.925  1.2281  0.2994  0.0923
81476SOL     OW56152   6.195   2.458  11.729 -0.4584  0.4645 -0.0924
81476SOL    HW156153   6.164   2.546  11.752  1.1310  1.1897 -0.6162
81476SOL    HW256154   6.243   2.428  11.806  0.0415  0.5722 -0.3563
81477SOL     OW56155  12.189   3.038   0.550  0.1024 -0.0748 -0.1125
81477SOL    HW156156  12.172   2.983   0.474  2.8996 -1.1207 -0.0724
81477SOL    HW256157  12.245   3.108   0.517  0.5007  0.0366  0.7731
81478SOL     OW56158   8.536   1.018  10.153  0.0935 -0.1565 -0.0695
81478SOL    HW156159   8.557   1.098  10.105 -0.0306 -0.5337 -0.7788
81478SOL    HW256160   8.566   1.034  10.242 -1.5000  1.3619  0.2524
81479SOL     OW56161  12.661   9.751   7.658 -0.2203 -0.5432  0.0082
81479SOL    HW156162  12.731   9.810   7.629 -0.5411 -0.1068  0.1090
81479SOL    HW256163  12.648   9.772   7.750 -1.3924  0.3360 -0.3238
81480SOL     OW56164   3.652   7.348   8.236 -0.2013  0.1298 -0.4131
81480SOL    HW156165   3.604   7.280   8.283 -1.2410  1.5417  0.6574
81480SOL    HW256166   3.734   7.357   8.286 -1.2187  1.4859  1.0912
81481SOL     OW56167   6.584   9.644   5.033 -0.3612  0.1435  0.6200
81481SOL    HW156168   6.676   9.630   5.011 -0.8800 -0.6031 -1.2424
81481SOL    HW256169   6.586   9.689   5.118  1.6795 -0.7490  1.0908
81482SOL     OW56170   6.870   4.005   9.805 -0.2258 -0.1557  0.3433
81482SOL    HW156171   6.793   4.006   9.749  0.4582  2.8086 -0.7191
81482SOL    HW256172   6.919   3.927   9.777 -2.1901 -1.4105  0.2161
81483SOL     OW56173  12.664   7.640   9.823 -0.7290  0.3797 -0.0076
81483SOL    HW156174  12.703   7.567   9.871  0.9174  0.0759 -1.6746
81483SOL    HW256175  12.570   7.634   9.842 -0.3310 -0.6208  1.8890
81484SOL     OW56176   0.555   7.264   3.656 -0.1261 -0.0701 -0.3584
81484SOL    HW156177   0.604   7.345   3.663  1.4058 -0.8424 -1.4977
81484SOL    HW256178   0.516   7.251   3.743  2.1891  0.2972  0.8048
81485SOL     OW56179   2.877   9.096  10.513  0.1257 -0.0604 -0.3071
81485SOL    HW156180   2.844   9.134  10.431 -0.2806 -0.8777 -0.5288
81485SOL    HW256181   2.836   9.010  10.518  0.7769 -0.3418  0.3606
81486SOL     OW56182  10.349   9.376  10.622  0.0128  0.3189  0.5889
81486SOL    HW156183  10.321   9.463  10.595 -2.9968 -0.4229  0.9882
81486SOL    HW256184  10.301   9.316  10.564  1.2114 -1.1077  1.0141
81487SOL     OW56185   3.693   9.828   3.433 -0.0278 -0.2913  0.2397
81487SOL    HW156186   3.622   9.790   3.485  0.1652 -0.4286  0.3992
81487SOL    HW256187   3.708   9.764   3.363 -0.3174 -0.0861 -0.0160
81488SOL     OW56188  12.019  10.113  11.240 -0.0106 -0.2996 -0.1064
81488SOL    HW156189  12.111  10.134  11.254 -0.3011  1.4040 -0.4196
81488SOL    HW256190  12.004  10.130  11.147 -0.4140 -1.5599 -0.2803
81489SOL     OW56191   4.450  10.150   8.845  0.2399 -0.7016 -0.2818
81489SOL    HW156192   4.480  10.220   8.788 -0.6455 -1.0572 -1.2138
81489SOL    HW256193   4.528  10.098   8.864  0.9361  0.5839  0.5313
81490SOL     OW56194   0.388  11.775   6.460  0.5536 -0.0912 -0.2307
81490SOL    HW156195   0.397  11.863   6.423 -1.5354  0.1936 -0.1716
81490SOL    HW256196   0.469  11.762   6.509  1.3636  1.3767 -1.0819
81491SOL     OW56197   6.905   2.986   0.658  0.1958 -0.5198  0.3961
81491SOL    HW156198   6.945   3.073   0.664  0.3468 -0.2456 -2.7381
81491SOL    HW256199   6.962   2.937   0.598 -0.0296 -2.7452  1.8672
81492SOL     OW56200   2.774  11.059  10.360  0.1723  0.7790  0.8510
81492SOL    HW156201   2.731  10.978  10.390 -0.5714  1.6353  2.2218
81492SOL    HW256202   2.797  11.042  10.269 -0.2996 -0.8434  1.0051
81493SOL     OW56203   4.797  10.177   8.556  0.6667  0.0090 -0.1944
81493SOL    HW156204   4.852  10.103   8.532  0.1923 -0.1645 -0.7789
81493SOL    HW256205   4.771  10.160   8.647  0.0213 -0.8896 -0.5328
81494SOL     OW56206   1.473   3.118  11.172  0.0093 -0.0102  0.2091
81494SOL    HW156207   1.547   3.059  11.157 -0.3749 -0.2020 -1.1186
81494SOL    HW256208   1.431   3.085  11.251  0.4146 -0.8815  0.0711
81495SOL     OW56209   8.296   5.914   8.101 -0.3302  0.0614  0.2886
81495SOL    HW156210   8.214   5.914   8.151 -0.4164 -0.1607  0.1489
81495SOL    HW256211   8.302   6.002   8.064 -0.7695 -0.0789 -0.1290
81496SOL     OW56212   1.089   7.711   5.634 -0.6134 -0.4497 -0.1530
81496SOL    HW156213   1.121   7.785   5.582 -1.9216  0.9959  0.9782
81496SOL    HW256214   1.122   7.633   5.589 -0.6810  0.7517 -2.4269
81497SOL     OW56215  12.732   9.394   4.437  0.5267 -0.4961 -0.0184
81497SOL    HW156216  12.717   9.333   4.365 -0.7498 -1.3605  0.9493
81497SOL    HW256217  12.785   9.345   4.500  0.3423 -0.2677  0.3187
81498SOL     OW56218   5.738   1.644   9.731  0.0421 -0.3264 -0.5757
81498SOL    HW156219   5.667   1.701   9.701 -0.0655 -0.3406 -0.3456
81498SOL    HW256220   5.697   1.558   9.741  0.0587 -0.3048 -0.3112
81499SOL     OW56221   0.193   4.889  10.092  0.3091 -0.2373  0.7035
81499SOL    HW156222   0.102   4.865  10.074  0.2142  1.3259 -1.2724
81499SOL    HW256223   0.225   4.926  10.010  3.1963 -1.9531  0.9171
81500SOL     OW56224  10.273   1.974   5.309 -0.2078  0.5062  0.0201
81500SOL    HW156225  10.310   1.908   5.251 -0.7091 -0.3939  0.7040
81500SOL    HW256226  10.236   1.925   5.382 -1.3220  1.4920  0.1527
81501SOL     OW56227   9.358  13.018  12.178 -0.3734 -0.2414  0.0670
81501SOL    HW156228   9.346  12.967  12.258 -1.1850 -0.0826  0.0515
81501SOL    HW256229   9.282  13.076  12.174 -1.0313 -1.1241 -1.4641
81502SOL     OW56230   0.311  10.884   5.916  0.6683 -0.0049  0.5701
81502SOL    HW156231   0.371  10.826   5.963 -0.8042 -1.1078  1.1751
81502SOL    HW256232   0.224  10.855   5.943 -0.1550  1.3227 -0.5348
81503SOL     OW56233   9.394  10.860   3.208  0.9688 -0.0716  0.2004
81503SOL    HW156234   9.427  10.770   3.209  2.0134  0.2962  0.9668
81503SOL    HW256235   9.413  10.892   3.120  0.7355 -0.5500 -0.0258
81504SOL     OW56236   1.150   4.384   4.853  0.3971 -0.1826 -0.0848
81504SOL    HW156237   1.111   4.453   4.799  0.2413 -1.1783 -1.2825
81504SOL    HW256238   1.244   4.402   4.851  0.2842  0.4860  0.3269
81505SOL     OW56239   8.964   4.932   0.327  0.1303  0.1017  0.1895
81505SOL    HW156240   8.954   4.970   0.240  0.5336  0.7985  0.4417
81505SOL    HW256241   8.875   4.911   0.355 -0.0670  0.5945 -0.0705
81506SOL     OW56242   1.950   2.874   8.268  0.4732 -0.0153  0.6164
81506SOL    HW156243   1.973   2.829   8.350 -0.2926  1.7186  1.8556
81506SOL    HW256244   2.018   2.941   8.258  1.0664 -0.7791 -0.6856
81507SOL     OW56245   3.516  12.943   7.229  0.4364 -0.1577  0.0010
81507SOL    HW156246   3.571  12.907   7.159 -0.1044 -2.2169  0.5753
81507SOL    HW256247   3.569  12.931   7.309 -0.1493 -0.6047  0.3275
81508SOL     OW56248  13.667  11.601   4.287 -0.4454 -0.0442 -0.0670
81508SOL    HW156249  13.681  11.554   4.370  1.1000  1.6882  0.7136
81508SOL    HW256250  13.741  11.576   4.232 -0.5151  0.1779 -0.2626
81509SOL     OW56251   7.280   7.344  13.153 -0.3698 -0.1082 -0.3750
81509SOL    HW156252   7.296   7.437  13.166  0.6482 -0.0885 -1.5668
81509SOL    HW256253   7.341   7.318  13.084 -0.0171 -1.8708  0.5455
81510SOL     OW56254  11.112   9.453   7.362 -0.0085 -0.2912  0.6352
81510SOL    HW156255  11.188   9.511   7.365 -0.3291  0.1054  1.3570
81510SOL    HW256256  11.113   9.417   7.273 -0.6562  1.9717 -0.3681
81511SOL     OW56257   7.773  13.224  11.266 -0.1799  0.2264  0.0364
81511SOL    HW156258   7.763  13.316  11.242  1.8393  0.3715 -0.3601
81511SOL    HW256259   7.866  13.213  11.283  0.5789 -2.7085 -4.2902
81512SOL     OW56260  13.614   4.414  10.898 -0.1190 -0.3589  0.1892
81512SOL    HW156261  13.655   4.387  10.816 -0.1620 -2.8465  0.8826
81512SOL    HW256262  13.666   4.370  10.966 -0.8006  0.6725  1.4198
81513SOL     OW56263   9.400   6.092   2.922  0.5749  0.0558  0.1376
81513SOL    HW156264   9.475   6.061   2.873 -0.2354  0.4002 -1.3809
81513SOL    HW256265   9.410   6.187   2.924  0.9285  0.0157  1.2319
81514SOL     OW56266   0.811  12.520  11.525 -0.4957  0.4651 -0.0109
81514SOL    HW156267   0.875  12.454  11.496 -0.9843  1.2147 -3.1264
81514SOL    HW256268   0.865  12.593  11.555  0.1978  0.7221 -1.7279
81515SOL     OW56269   0.550   2.183  13.234 -0.2203  0.1336  0.0495
81515SOL    HW156270   0.558   2.095  13.197  0.3531  0.0021  0.4709
81515SOL    HW256271   0.631   2.196  13.282 -0.3884  0.8217  0.1531
81516SOL     OW56272  10.549   2.638   5.400  0.3267  0.1383  0.1047
81516SOL    HW156273  10.525   2.630   5.307  0.3013  1.1314  0.0234
81516SOL    HW256274  10.532   2.729   5.422  0.4353 -0.0629  1.0674
81517SOL     OW56275   4.216  12.019   7.356  0.1567 -0.8529  0.1659
81517SOL    HW156276   4.124  12.043   7.361  0.0462 -0.9314 -1.0950
81517SOL    HW256277   4.248  12.061   7.276  0.9056 -1.7913 -0.0545
81518SOL     OW56278   0.300  10.843   9.686  0.4944  0.1144 -0.1603
81518SOL    HW156279   0.212  10.807   9.675  1.4333 -1.7324 -2.5695
81518SOL    HW256280   0.287  10.938   9.685 -1.4786 -0.1184 -0.2109
81519SOL     OW56281   7.214   0.817  10.864 -0.4129  0.0192  0.2179
81519SOL    HW156282   7.189   0.746  10.923 -1.1821  0.6666  0.6903
81519SOL    HW256283   7.307   0.832  10.883  0.5252 -2.5962 -1.7481
81520SOL     OW56284   1.249   7.249   0.083 -0.3047 -0.1162  0.5117
81520SOL    HW156285   1.303   7.279   0.156 -0.6521  1.9267 -0.0157
81520SOL    HW256286   1.164   7.291   0.098 -1.7736 -2.9788  1.1559
81521SOL     OW56287  10.094   8.974  12.011  0.5063  0.1397 -0.6302
81521SOL    HW156288  10.066   9.052  11.964  0.6694  1.3027  1.1402
81521SOL    HW256289  10.137   9.007  12.090  1.0852 -1.7276 -0.1143
81522SOL     OW56290   5.748   7.696  13.173  0.4716 -0.2047  0.0237
81522SOL    HW156291   5.737   7.789  13.193  1.2617 -0.0442 -0.2520
81522SOL    HW256292   5.802   7.695  13.094  0.9680 -0.9059  0.3648
81523SOL     OW56293   5.320   3.349  13.691 -0.4363  0.3361 -0.3132
81523SOL    HW156294   5.385   3.288  13.725 -2.5160 -2.4545 -0.8774
81523SOL    HW256295   5.266   3.372  13.766 -0.8595 -0.1964 -0.4461
81524SOL     OW56296  12.998   7.827   1.568 -0.2373  0.3877 -0.3209
81524SOL    HW156297  13.032   7.739   1.551 -0.8941  0.3334 -1.4503
81524SOL    HW256298  12.908   7.824   1.535 -0.2175  1.5256 -0.4979
81525SOL     OW56299  13.717   8.675  11.797  0.0496  0.5540 -0.0932
81525SOL    HW156300  13.762   8.700  11.878  0.2037  0.4860 -0.1584
81525SOL    HW256301  13.768   8.714  11.727 -0.8830  1.8431 -0.1014
81526SOL     OW56302  10.899   9.913   2.133  0.2926  0.2652 -0.0150
81526SOL    HW156303  10.950   9.994   2.124  0.4642  0.1426 -0.1652
81526SOL    HW256304  10.808   9.940   2.122  0.1781  0.7364  1.7215
81527SOL     OW56305   2.882   1.369  11.438  0.3255 -0.1992  0.2220
81527SOL    HW156306   2.859   1.340  11.527 -1.4721  0.7552  0.1081
81527SOL    HW256307   2.867   1.291  11.384 -0.1369 -0.3343  0.5349
81528SOL     OW56308   7.200  11.209   6.261  0.2479 -0.5698 -0.4452
81528SOL    HW156309   7.189  11.198   6.167  1.3188 -0.5446 -0.5761
81528SOL    HW256310   7.286  11.248   6.271  0.1619 -0.6105  0.5558
81529SOL     OW56311   3.029   1.697   8.049  0.0144  0.0253  0.1310
81529SOL    HW156312   3.054   1.759   8.118  0.2499  0.4114 -0.2952
81529SOL    HW256313   2.942   1.727   8.021  0.1385  0.1771 -0.0909
81530SOL     OW56314   6.077   7.513  11.768 -0.1561 -0.4195 -0.5573
81530SOL    HW156315   6.000   7.467  11.736 -0.8630  0.4047 -0.0953
81530SOL    HW256316   6.126   7.537  11.689 -1.8065  1.4814 -1.0944
81531SOL     OW56317   8.764   6.644  10.291 -0.1703 -0.0117 -0.0538
81531SOL    HW156318   8.768   6.550  10.303 -2.7731 -0.2085 -0.0719
81531SOL    HW256319   8.810   6.660  10.209  1.0220 -1.1223  0.3619
81532SOL     OW56320   6.714   2.345   9.070  0.1142  0.1953  0.2112
81532SOL    HW156321   6.781   2.401   9.109  1.0933  0.1394 -1.3218
81532SOL    HW256322   6.755   2.259   9.064  0.2578  0.3567 -1.5534
81533SOL     OW56323   9.043   1.151  12.989 -0.4275  0.0110  0.2729
81533SOL    HW156324   8.984   1.223  12.965 -1.3084 -0.1618  1.7790
81533SOL    HW256325   8.996   1.072  12.960 -0.2650 -0.0528  0.1823
81534SOL     OW56326   9.669   8.393   0.514 -0.2099  0.5673  0.3927
81534SOL    HW156327   9.717   8.424   0.591  0.7835 -0.7046  0.3071
81534SOL    HW256328   9.602   8.460   0.501  1.5564  2.4749  0.4725
81535SOL     OW56329  13.428  13.592   3.840  0.1759  0.4026 -0.3953
81535SOL    HW156330  13.427  13.574   3.934 -1.0229 -0.5469 -0.5719
81535SOL    HW256331  13.489  13.528   3.804 -0.5002 -0.2352 -0.4337
81536SOL     OW56332   5.258  11.449  11.248 -0.5333  0.2974 -0.0643
81536SOL    HW156333   5.293  11.494  11.171 -1.8107  0.2401 -0.7188
81536SOL    HW256334   5.192  11.509  11.283  1.5737  1.3562  2.4057
81537SOL     OW56335   0.254   0.990   5.811 -0.2396 -0.0642  0.1539
81537SOL    HW156336   0.278   1.070   5.765 -0.1042 -1.1431 -1.7334
81537SOL    HW256337   0.328   0.974   5.870 -0.4266  1.3568  0.8129
81538SOL     OW56338   1.236  10.847  11.948  0.2124  0.5056 -0.3057
81538SOL    HW156339   1.167  10.910  11.968  0.3884  0.7661 -0.5037
81538SOL    HW256340   1.315  10.900  11.941  0.5736  0.1213  0.6607
81539SOL     OW56341  12.170  12.427   7.905  0.0991 -0.1113  0.0537
81539SOL    HW156342  12.191  12.336   7.926  3.0674  0.2992 -0.5874
81539SOL    HW256343  12.178  12.432   7.810  1.9157  1.1384  0.2015
81540SOL     OW56344   2.613   4.252   6.677 -0.1780 -0.3076  0.4518
81540SOL    HW156345   2.604   4.158   6.693 -1.9805 -0.7545 -2.3707
81540SOL    HW256346   2.655   4.257   6.590 -0.6578  1.4743  0.2925
81541SOL     OW56347   9.080   2.857   2.911  0.5277  0.0300  0.7026
81541SOL    HW156348   9.018   2.801   2.958  1.1469 -1.1093  0.2092
81541SOL    HW256349   9.061   2.946   2.942 -0.6836 -0.4116  1.2813
81542SOL     OW56350  11.819  13.291   1.337  0.5220 -0.4104  0.2639
81542SOL    HW156351  11.899  13.246   1.311  1.0590  1.5368 -1.7511
81542SOL    HW256352  11.847  13.381   1.353 -0.7418 -0.3698  2.8265
81543SOL     OW56353   5.953   9.926   8.756  0.3839  0.3261  0.1813
81543SOL    HW156354   5.890   9.985   8.797 -0.2157 -0.5065  0.4937
81543SOL    HW256355   5.989   9.875   8.829  0.5451 -0.0062 -0.1278
81544SOL     OW56356   1.402  13.208  12.101 -0.1578 -0.1680 -0.1710
81544SOL    HW156357   1.334  13.265  12.067  0.3666  0.2611 -0.5231
81544SOL    HW256358   1.446  13.260  12.169 -0.4306 -0.5850  0.3328
81545SOL     OW56359   9.793   7.743   8.766 -0.2647  0.3886  0.3977
81545SOL    HW156360   9.871   7.796   8.752 -0.9689  1.2221 -0.4326
81545SOL    HW256361   9.732   7.801   8.812 -0.7671  0.0698  0.1456
81546SOL     OW56362   8.691   4.797   7.231 -0.1616  0.2049  0.6925
81546SOL    HW156363   8.697   4.727   7.296  2.4915 -1.8913 -1.5681
81546SOL    HW256364   8.766   4.853   7.249 -1.0419  1.2972  1.1206
81547SOL     OW56365  10.539   1.403   5.327  0.5032  0.1215  0.0361
81547SOL    HW156366  10.504   1.427   5.241  0.7807 -0.5248 -0.2603
81547SOL    HW256367  10.630   1.379   5.310  1.0630  1.5768  0.7712
81548SOL     OW56368   1.751   7.377   5.516  0.3729 -0.6620  0.3366
81548SOL    HW156369   1.734   7.353   5.607 -1.0305  0.4145  0.4083
81548SOL    HW256370   1.752   7.294   5.468 -2.6715 -1.0617  0.7923
81549SOL     OW56371   4.038   6.205  13.076 -0.3938  0.2586  0.2012
81549SOL    HW156372   4.023   6.229  12.984 -6.2225  0.0358  0.7514
81549SOL    HW256373   4.039   6.109  13.076  0.3333  0.2626  0.3298
81550SOL     OW56374  13.441  13.557   3.171  0.0356  0.4329  0.2622
81550SOL    HW156375  13.499  13.572   3.246  1.0028 -0.7032 -0.2391
81550SOL    HW256376  13.354  13.546   3.211  0.6926 -1.2631  1.3569
81551SOL     OW56377  12.434   7.891   6.161 -0.6262 -0.2240  0.0972
81551SOL    HW156378  12.432   7.816   6.101 -0.7075  0.3813 -0.6827
81551SOL    HW256379  12.462   7.965   6.106  0.3902  0.1396  1.0665
81552SOL     OW56380  11.602   7.917   5.471 -0.2856 -1.2550  0.0481
81552SOL    HW156381  11.534   7.867   5.516 -0.3178 -1.7657 -0.5485
81552SOL    HW256382  11.564   7.936   5.385 -1.0394  1.4316  0.8537
81553SOL     OW56383   6.439   2.368  11.527  0.4561  0.0137  0.2130
81553SOL    HW156384   6.514   2.340  11.580  0.7424 -1.6552 -0.9964
81553SOL    HW256385   6.377   2.402  11.590  0.7912 -1.8967  1.6747
81554SOL     OW56386   9.988  12.771   7.272 -0.2207 -0.0732  0.7609
81554SOL    HW156387   9.961  12.748   7.183  0.2910  0.8818  0.3418
81554SOL    HW256388  10.002  12.687   7.316 -0.7618 -0.5561  0.0300
81555SOL     OW56389   7.345   6.854   8.282 -0.0998  0.0132 -0.1131
81555SOL    HW156390   7.336   6.884   8.372 -1.7663 -0.8496  0.0622
81555SOL    HW256391   7.438   6.838   8.270  0.1950  0.5562  1.3179
81556SOL     OW56392   1.354   4.016   2.439 -0.4495 -0.2330  0.2598
81556SOL    HW156393   1.319   4.006   2.527 -1.4037  0.8164  0.0246
81556SOL    HW256394   1.310   3.948   2.387 -0.7061 -0.1438  0.3617
81557SOL     OW56395   6.958   1.792  12.858  0.1681 -0.0066 -0.1007
81557SOL    HW156396   6.927   1.875  12.894 -1.3948 -0.0730 -1.1974
81557SOL    HW256397   6.961   1.733  12.934 -0.6813  0.5071  0.3456
81558SOL     OW56398   8.337   4.160  12.683  0.4880 -0.3880  0.2017
81558SOL    HW156399   8.374   4.159  12.595 -0.4335  1.2276 -0.2406
81558SOL    HW256400   8.352   4.071  12.716 -0.7839 -1.6428 -2.2940
81559SOL     OW56401   8.211  11.445   8.673 -0.5653 -0.1186  0.0693
81559SOL    HW156402   8.259  11.515   8.717  1.4199 -0.7394 -0.9471
81559SOL    HW256403   8.272  11.370   8.676 -1.6556 -1.0757 -0.9531
81560SOL     OW56404   6.898   1.126   5.350 -0.4742  0.4172 -0.0716
81560SOL    HW156405   6.944   1.098   5.270  0.4714 -0.6138  0.7947
81560SOL    HW256406   6.878   1.045   5.395 -0.2696  1.0211  1.1352
81561SOL     OW56407   4.432   0.566  12.864 -0.5505  0.0022  0.0738
81561SOL    HW156408   4.447   0.623  12.939 -1.2624 -1.3369  1.2833
81561SOL    HW256409   4.514   0.519  12.853  0.1976  1.5020 -1.2145
81562SOL     OW56410   0.129   8.993  11.045  0.1235  0.0198  0.2416
81562SOL    HW156411   0.211   9.024  11.084  0.0163 -2.0252  2.3377
81562SOL    HW256412   0.061   9.041  11.091  0.0796  0.5251 -0.3376
81563SOL     OW56413   8.868   9.086   4.310 -0.3552  0.2676 -0.2706
81563SOL    HW156414   8.889   9.021   4.243 -0.9480  0.2328 -0.4262
81563SOL    HW256415   8.873   9.038   4.392 -0.6229  0.0583 -0.3728
81564SOL     OW56416   5.817  12.666  11.348  0.2952 -0.1414  0.1523
81564SOL    HW156417   5.750  12.630  11.406  0.6781  0.3683  0.9346
81564SOL    HW256418   5.842  12.594  11.291  0.2650 -0.7974  0.9558
81565SOL     OW56419  12.433  11.011   4.446 -0.8106 -0.2682  0.6351
81565SOL    HW156420  12.441  11.103   4.471 -0.8572 -0.0165 -0.2494
81565SOL    HW256421  12.523  10.978   4.448 -0.6228  0.1607 -0.3815
81566SOL     OW56422   3.718   3.409   1.426 -0.2470  0.2071  0.0324
81566SOL    HW156423   3.776   3.408   1.502 -0.0283  1.1031 -0.1108
81566SOL    HW256424   3.636   3.370   1.457 -0.4533  1.3605  0.9825
81567SOL     OW56425   9.966   3.880  13.703 -0.1763  0.1161  0.5700
81567SOL    HW156426   9.920   3.961  13.726  0.0976  0.0070  1.5646
81567SOL    HW256427   9.931   3.814  13.763 -0.1210 -0.4151  0.0263
81568SOL     OW56428  13.053   1.445  11.004  0.8680  0.4764 -0.1077
81568SOL    HW156429  13.082   1.383  11.070 -0.5309 -0.2204 -0.1155
81568SOL    HW256430  12.959   1.453  11.018  0.9111  2.0797 -0.5548
81569SOL     OW56431   2.391   4.369  13.144 -0.2600 -0.5526  0.3754
81569SOL    HW156432   2.387   4.334  13.233 -0.5256  1.0380  1.0316
81569SOL    HW256433   2.484   4.383  13.127 -0.2728  0.0859  0.8082
81570SOL     OW56434   9.019  12.065   8.192 -0.5315 -0.1425  0.1801
81570SOL    HW156435   8.983  12.103   8.273 -1.1951  0.9634 -0.5968
81570SOL    HW256436   9.002  11.972   8.200 -0.6931 -0.0389  1.2693
81571SOL     OW56437   8.458   3.173   3.658 -0.1038 -0.2231 -0.2539
81571SOL    HW156438   8.535   3.128   3.624  0.4393  2.1638 -2.6203
81571SOL    HW256439   8.492   3.257   3.689 -1.6500  0.7232 -0.9963
81572SOL     OW56440  12.255  12.687   6.963  0.1484 -0.2929 -0.4015
81572SOL    HW156441  12.247  12.770   6.915 -0.4088 -1.2505 -2.0282
81572SOL    HW256442  12.320  12.637   6.914  0.7050 -0.7250  0.7477
81573SOL     OW56443  12.486  10.731   2.764  0.1407  0.3671  0.3958
81573SOL    HW156444  12.541  10.714   2.688 -0.8630  0.3820 -0.3623
81573SOL    HW256445  12.415  10.786   2.730 -1.7979 -1.7949  0.7096
81574SOL     OW56446  13.062  12.624  11.982 -0.1492  0.3213  0.3173
81574SOL    HW156447  12.994  12.601  12.045 -0.6975 -0.1225 -0.4090
81574SOL    HW256448  13.034  12.581  11.901  1.8343 -1.2337  0.3866
81575SOL     OW56449   4.488   4.677  11.235 -0.1303  0.4577 -0.5368
81575SOL    HW156450   4.505   4.736  11.308  1.4891  0.8391 -1.1712
81575SOL    HW256451   4.526   4.593  11.262 -0.9034  0.1653 -0.3312
81576SOL     OW56452  12.653  12.151   2.601  0.0486  0.4197 -0.2230
81576SOL    HW156453  12.639  12.245   2.608  0.5396  0.5982 -1.3452
81576SOL    HW256454  12.741  12.136   2.636  0.6990  0.6657 -1.6573
81577SOL     OW56455   3.765   4.331   6.918 -0.2619 -0.0790  0.0500
81577SOL    HW156456   3.791   4.363   7.004 -2.0851  3.3813 -0.4766
81577SOL    HW256457   3.677   4.295   6.931 -0.0462 -0.7000 -0.1720
81578SOL     OW56458   6.128  10.256   6.822  0.5210 -0.2060 -0.2227
81578SOL    HW156459   6.162  10.167   6.811 -0.0758 -0.4434 -0.1567
81578SOL    HW256460   6.206  10.310   6.833  0.8503 -0.8935  0.9845
81579SOL     OW56461   1.105  12.578   4.968 -0.3943  0.3622 -0.2195
81579SOL    HW156462   1.176  12.531   4.924 -1.4050 -1.8577  0.3577
81579SOL    HW256463   1.074  12.516   5.034 -1.1748  2.2815  1.3055
81580SOL     OW56464   1.904  10.340  11.265 -0.3979 -0.3768 -0.2371
81580SOL    HW156465   1.930  10.423  11.306 -1.9848  0.3026 -0.5205
81580SOL    HW256466   1.851  10.367  11.189 -1.4136 -1.6373 -0.0078
81581SOL     OW56467  12.250   3.618   4.662 -0.7117  0.0933  0.0691
81581SOL    HW156468  12.287   3.624   4.574 -2.3294  1.2502 -0.5735
81581SOL    HW256469  12.267   3.704   4.700 -0.2224 -0.3299  0.8257
81582SOL     OW56470  13.150   0.059   0.821 -0.0248  0.1617 -0.0008
81582SOL    HW156471  13.220   0.011   0.864  0.0578 -0.5252 -0.8753
81582SOL    HW256472  13.078  -0.004   0.813  0.1096  0.1377 -1.2244
81583SOL     OW56473  12.326  11.778   3.749 -0.3716  0.3965 -0.2358
81583SOL    HW156474  12.334  11.732   3.665  1.0423  0.4289 -0.1365
81583SOL    HW256475  12.296  11.866   3.725 -1.0311  0.0822 -0.5991
81584SOL     OW56476   1.031  13.726   3.073 -0.1510 -0.2626 -0.5272
81584SOL    HW156477   1.096  13.667   3.112 -3.0794 -0.9170  4.2468
81584SOL    HW256478   0.987  13.674   3.007  0.5645 -1.7614  0.1268
81585SOL     OW56479   4.995   0.387   6.868  0.3410 -0.3174 -0.4625
81585SOL    HW156480   5.087   0.407   6.853  1.0793 -1.7462  1.6307
81585SOL    HW256481   4.976   0.314   6.810  0.6035 -0.2347 -0.6561
81586SOL     OW56482  11.026   1.265   2.680  0.0137 -0.7945 -0.8429
81586SOL    HW156483  10.934   1.291   2.685  0.0209 -0.8442 -0.3726
81586SOL    HW256484  11.047   1.236   2.769  0.2271 -1.6659 -1.1661
81587SOL     OW56485   6.135   2.020   6.712 -0.4616  0.4683  0.4261
81587SOL    HW156486   6.068   2.058   6.656 -1.2131 -1.8545 -0.3780
81587SOL    HW256487   6.089   1.999   6.794 -0.5437 -0.3823  0.1728
81588SOL     OW56488   8.329   1.859  13.409  0.0244 -0.0280 -0.2573
81588SOL    HW156489   8.403   1.808  13.444  0.0699 -0.0292 -0.3546
81588SOL    HW256490   8.296   1.806  13.336  1.1364  0.8717 -1.4534
81589SOL     OW56491   5.855   8.015   3.442 -0.7774  0.0627  0.4910
81589SOL    HW156492   5.773   8.009   3.491 -0.6880  0.4723  0.6937
81589SOL    HW256493   5.887   8.104   3.459 -0.2645 -0.1129  0.4562
81590SOL     OW56494   0.816   7.450   7.703 -0.4882  0.3639  0.2348
81590SOL    HW156495   0.864   7.467   7.784  0.6142 -0.3490 -0.2523
81590SOL    HW256496   0.774   7.365   7.717  2.2794 -1.3378 -1.0475
81591SOL     OW56497   7.929   5.570   9.083 -0.2374 -0.1787 -0.3956
81591SOL    HW156498   7.975   5.621   9.016  0.2804  1.0194  0.8523
81591SOL    HW256499   7.960   5.480   9.069 -0.0654  0.0594 -1.6902
81592SOL     OW56500   8.631  11.257   8.417  0.2008  0.2754  0.8036
81592SOL    HW156501   8.607  11.194   8.348 -0.7187 -0.0214  1.3705
81592SOL    HW256502   8.681  11.325   8.371  2.8550 -1.7457  0.4635
81593SOL     OW56503   8.242   9.827   4.388  0.2326 -0.3756  0.8053
81593SOL    HW156504   8.199   9.901   4.432  2.3916  1.3151  0.2593
81593SOL    HW256505   8.198   9.750   4.422 -3.0844  1.1482  0.4166
81594SOL     OW56506   2.326   8.005   2.800  0.4750 -0.0067  0.1992
81594SOL    HW156507   2.230   8.002   2.809  0.3992 -1.4998 -0.7590
81594SOL    HW256508   2.345   8.097   2.780 -0.6110  0.5873  1.6458
81595SOL     OW56509  12.483   4.071   4.749 -0.0289 -0.3316  0.4070
81595SOL    HW156510  12.566   4.109   4.718  0.8412 -3.3694 -1.3000
81595SOL    HW256511  12.440   4.144   4.794  2.2872  2.1429 -1.0489
81596SOL     OW56512   4.460   3.090  12.536 -0.2891 -0.6028 -0.1098
81596SOL    HW156513   4.370   3.113  12.516  0.8045  3.8581 -0.8033
81596SOL    HW256514   4.502   3.078  12.451  0.4188  0.3697  0.0922
81597SOL     OW56515  11.823   3.582   8.574 -0.2590 -0.2076  0.3650
81597SOL    HW156516  11.791   3.505   8.526  0.4788 -1.1673  1.3504
81597SOL    HW256517  11.747   3.614   8.622 -1.1227  1.0289 -1.7059
81598SOL     OW56518   8.495   3.647   3.327  0.3608 -0.6279 -0.4094
81598SOL    HW156519   8.407   3.658   3.291  0.7609 -0.7774 -1.4930
81598SOL    HW256520   8.486   3.662   3.421 -0.5314  1.0165 -0.7283
81599SOL     OW56521   7.991  10.122  10.904  0.1824  0.2150 -0.3783
81599SOL    HW156522   7.913  10.134  10.959 -1.0172  0.6025 -2.0945
81599SOL    HW256523   7.987  10.030  10.876  2.7981 -1.1640  2.9854
81600SOL     OW56524   3.696  13.440   2.978  0.7731 -0.0775  0.6832
81600SOL    HW156525   3.776  13.398   3.008  1.5785  1.0119  0.1373
81600SOL    HW256526   3.726  13.521   2.936 -0.6645  0.7327  1.1503
81601SOL     OW56527   6.806   2.790   9.704 -0.2499  0.6073  0.0280
81601SOL    HW156528   6.766   2.714   9.748 -1.1141  0.0907 -1.5620
81601SOL    HW256529   6.887   2.755   9.665 -0.7405  0.4355 -0.8595
81602SOL     OW56530   3.632   8.668   8.565  0.0462 -0.0037  0.1024
81602SOL    HW156531   3.551   8.693   8.609  0.3439  0.6007  0.3133
81602SOL    HW256532   3.653   8.582   8.601  0.4327  0.5949  1.3658
81603SOL     OW56533   7.647   7.927  11.743 -0.5208 -0.1761 -0.6514
81603SOL    HW156534   7.592   7.950  11.669 -0.9096  2.1421  0.2851
81603SOL    HW256535   7.594   7.946  11.820  1.1006  0.9378  0.2605
81604SOL     OW56536   1.865   5.538   8.907 -0.0235 -0.8023  0.2682
81604SOL    HW156537   1.872   5.620   8.955 -2.8806 -0.7106  0.7497
81604SOL    HW256538   1.952   5.499   8.911  0.9650  1.3780  1.5116
81605SOL     OW56539   6.959  12.442   7.151 -0.0350 -0.4493  0.2779
81605SOL    HW156540   7.017  12.372   7.122  0.2848  0.4207 -1.2721
81605SOL    HW256541   6.985  12.519   7.100 -1.4055  0.4131  0.7975
81606SOL     OW56542   4.022   7.430   9.491 -0.5020  0.1130 -0.1276
81606SOL    HW156543   4.102   7.478   9.468 -0.3271 -0.1776 -0.1264
81606SOL    HW256544   3.973   7.491   9.546 -0.3151  0.3202 -0.1876
81607SOL     OW56545   1.002   8.844   0.418 -0.5938  0.1131 -0.0671
81607SOL    HW156546   0.926   8.840   0.360  0.1241 -0.9807 -0.9709
81607SOL    HW256547   1.000   8.762   0.467 -0.6777  0.6283  0.8188
81608SOL     OW56548   2.759   3.008   9.906 -0.1097  0.6329  0.2043
81608SOL    HW156549   2.764   2.917   9.937 -1.4182  0.3493 -0.3312
81608SOL    HW256550   2.846   3.026   9.871  0.4290 -0.1190  1.1203
81609SOL     OW56551  11.439   5.649   7.282  0.2650 -0.1138 -1.0242
81609SOL    HW156552  11.500   5.575   7.282 -0.9742 -1.1784  0.3961
81609SOL    HW256553  11.382   5.633   7.206  0.8550  0.1340 -1.5255
81610SOL     OW56554   6.997   2.139   4.362 -0.0987 -0.8783  0.1188
81610SOL    HW156555   6.922   2.092   4.324  0.3387 -1.9261  0.5163
81610SOL    HW256556   7.010   2.098   4.447  0.7458 -0.5090  0.1718
81611SOL     OW56557   5.489  11.190   9.245  0.3779  0.2166 -0.3062
81611SOL    HW156558   5.414  11.236   9.205  0.8898  1.2539 -0.1159
81611SOL    HW256559   5.534  11.150   9.171  0.1971  0.4381 -0.5395
81612SOL     OW56560   8.846   1.870   4.205 -0.4788  0.5786  0.5079
81612SOL    HW156561   8.755   1.901   4.213 -1.6816 -2.6215  0.5102
81612SOL    HW256562   8.849   1.829   4.118  1.2821  1.3723  0.1503
81613SOL     OW56563   9.847   9.909   1.211  0.7461 -0.0720  0.0253
81613SOL    HW156564   9.752   9.907   1.221  0.6884 -1.2236 -0.6232
81613SOL    HW256565   9.873   9.818   1.197  2.1614 -0.0300  1.9112
81614SOL     OW56566   0.506  13.397   5.216 -0.2898 -0.2573  0.7019
81614SOL    HW156567   0.570  13.406   5.145 -0.5192 -1.5272  0.3079
81614SOL    HW256568   0.469  13.484   5.225 -0.2295 -0.0509 -0.7239
81615SOL     OW56569   2.849   4.011  10.561 -0.0417  0.5871 -0.1029
81615SOL    HW156570   2.927   4.043  10.516  0.1688  0.5841  0.2529
81615SOL    HW256571   2.850   4.056  10.645  0.2208 -0.2893  0.3730
81616SOL     OW56572  10.333  12.384   5.946  0.2214  0.6752  0.5491
81616SOL    HW156573  10.266  12.381   6.014  2.3779 -0.4736  2.7894
81616SOL    HW256574  10.369  12.472   5.951  0.3863  0.5880  0.9180
81617SOL     OW56575  10.286   0.139   2.397  0.3813  0.0620  0.0885
81617SOL    HW156576  10.233   0.183   2.330  1.0371  0.3903 -0.2271
81617SOL    HW256577  10.232   0.066   2.426 -0.5285  0.7727  0.2570
81618SOL     OW56578  12.357   9.782   4.551 -0.3178 -0.6424 -0.1033
81618SOL    HW156579  12.452   9.792   4.543 -0.2072  0.4632  2.0539
81618SOL    HW256580  12.330   9.747   4.466  1.9451 -0.5464 -0.9305
81619SOL     OW56581  10.106   1.363  10.135 -0.4088 -0.2836 -0.1599
81619SOL    HW156582  10.061   1.443  10.163 -1.1860 -0.7727  0.0032
81619SOL    HW256583  10.138   1.383  10.047 -0.7789  0.1404 -0.2006
81620SOL     OW56584   4.239   2.098   0.386 -0.0510 -0.3493  0.1807
81620SOL    HW156585   4.285   2.082   0.468  1.6066 -0.7230 -0.7787
81620SOL    HW256586   4.205   2.013   0.359 -0.8213 -0.1780  0.6094
81621SOL     OW56587  13.400   8.853  11.145  0.3857  0.2913  0.0776
81621SOL    HW156588  13.383   8.767  11.182 -0.4078  0.2885 -0.2876
81621SOL    HW256589  13.322   8.904  11.165  0.0501  0.3733 -1.3535
81622SOL     OW56590  10.729  10.498   5.179  0.5698 -0.3716 -0.0460
81622SOL    HW156591  10.721  10.548   5.098 -1.4249 -0.6976 -0.0951
81622SOL    HW256592  10.750  10.409   5.150 -0.0157 -0.4589 -0.2263
81623SOL     OW56593   7.499  13.009   5.625 -0.5867 -0.0943  0.0937
81623SOL    HW156594   7.442  12.953   5.572 -0.0087  1.3718 -2.2187
81623SOL    HW256595   7.448  13.089   5.640 -0.3028 -0.0286  0.7705
81624SOL     OW56596   5.032   5.906  11.784 -0.0099  0.2307  0.5267
81624SOL    HW156597   5.036   5.975  11.717  1.5224 -0.1201  0.2138
81624SOL    HW256598   5.028   5.953  11.867  1.4398  0.7381  0.3366
81625SOL     OW56599   7.131   7.766   8.757 -0.3056  0.3643  0.3314
81625SOL    HW156600   7.193   7.792   8.688 -1.1084  0.0944 -0.5036
81625SOL    HW256601   7.173   7.795   8.838  0.4433  1.1111 -0.3005
81626SOL     OW56602   0.794   2.568   0.938 -0.3854  0.4723 -0.0032
81626SOL    HW156603   0.840   2.595   0.858  1.2015 -0.6471  0.4795
81626SOL    HW256604   0.724   2.510   0.906 -0.4351  0.8672 -0.6339
81627SOL     OW56605   3.803   0.779  10.582  1.1581  0.0342  0.4925
81627SOL    HW156606   3.848   0.798  10.500 -0.2733  0.9677 -0.1290
81627SOL    HW256607   3.771   0.865  10.611  0.8935 -0.4235  1.5610
81628SOL     OW56608   6.718   6.619   5.664 -0.1051  0.1503 -0.8120
81628SOL    HW156609   6.761   6.572   5.592  0.3445 -0.5193 -0.1282
81628SOL    HW256610   6.779   6.690   5.686  1.0445 -1.2045  0.6086
81629SOL     OW56611  13.137  11.285   6.594 -0.3167  0.1265 -0.1547
81629SOL    HW156612  13.094  11.205   6.566 -0.3206  0.0497  0.0733
81629SOL    HW256613  13.218  11.255   6.636 -0.3345  0.2398 -0.0391
81630SOL     OW56614  11.525  12.055   8.955  0.3992 -0.4440 -0.4402
81630SOL    HW156615  11.577  12.108   9.015 -0.6857  0.9782 -0.7004
81630SOL    HW256616  11.449  12.028   9.006 -1.4682  2.3070 -1.5716
81631SOL     OW56617   1.521   8.474   6.314  0.8391  0.8036  0.4439
81631SOL    HW156618   1.530   8.426   6.396  1.9570 -0.8270 -0.5545
81631SOL    HW256619   1.610   8.475   6.277  0.3585  1.4743 -0.7518
81632SOL     OW56620  10.161  13.325   9.324 -0.0026 -0.6330 -0.3122
81632SOL    HW156621  10.139  13.332   9.231 -2.5534  0.3356  0.2685
81632SOL    HW256622  10.099  13.261   9.359  1.5497 -1.7249  0.6026
81633SOL     OW56623  12.191   1.628   2.124 -0.3594 -0.1310 -0.5515
81633SOL    HW156624  12.286   1.636   2.116 -0.2290  0.4621  1.1607
81633SOL    HW256625  12.172   1.537   2.099  0.6451 -0.2558 -0.8945
81634SOL     OW56626   0.713  11.484   9.222 -0.2368 -0.0516  0.2281
81634SOL    HW156627   0.626  11.514   9.247 -0.7401 -1.7978  0.7231
81634SOL    HW256628   0.771  11.523   9.288 -0.7285  0.5156  0.3362
81635SOL     OW56629   4.502   9.747   0.011  0.3361  0.2287 -0.0264
81635SOL    HW156630   4.560   9.795  -0.047  0.9729  0.0692  0.4671
81635SOL    HW256631   4.421   9.799   0.013 -0.0216 -0.2062 -1.7089
81636SOL     OW56632   7.364   7.380   6.460  0.2789 -0.5228  0.3403
81636SOL    HW156633   7.436   7.442   6.476  1.2370 -1.6353  0.5141
81636SOL    HW256634   7.387   7.340   6.375  0.4947 -1.7021  0.9342
81637SOL     OW56635   0.728   6.872  13.625  0.3036 -0.0521 -0.0592
81637SOL    HW156636   0.758   6.867  13.535  0.4188  0.4596 -0.0520
81637SOL    HW256637   0.798   6.830  13.676  0.1827 -0.4497 -0.2158
81638SOL     OW56638   2.406   6.096  13.439 -0.3480 -0.0304 -0.1859
81638SOL    HW156639   2.415   6.017  13.386 -1.1660  0.2030 -0.7028
81638SOL    HW256640   2.477   6.153  13.409  1.5032 -1.3110  1.6072
81639SOL     OW56641   4.922  11.972  11.526  0.5722 -0.4413  0.7978
81639SOL    HW156642   4.908  12.029  11.602  1.9182  1.2827 -0.1680
81639SOL    HW256643   4.884  12.021  11.453  2.9358 -0.0630 -0.2792
81640SOL     OW56644   7.350  11.073   4.744  0.5707  0.2785 -0.5340
81640SOL    HW156645   7.383  11.072   4.654 -0.1848  1.6750 -0.8621
81640SOL    HW256646   7.323  11.164   4.759 -2.4379 -0.5602 -0.0893
81641SOL     OW56647  13.480   6.778   7.002  0.0844 -0.0112 -0.2628
81641SOL    HW156648  13.561   6.725   6.996 -1.5797 -2.8381  0.2349
81641SOL    HW256649  13.478   6.809   7.092  1.4068  1.5644 -0.7311
81642SOL     OW56650   2.197   3.032   3.836 -0.0044 -0.2899  0.0390
81642SOL    HW156651   2.291   3.039   3.851  0.2902  0.1171 -1.7663
81642SOL    HW256652   2.189   2.972   3.761 -1.0683  0.7799 -0.7452
81643SOL     OW56653  13.118   8.397   8.720  0.5187  0.4495 -0.4724
81643SOL    HW156654  13.082   8.308   8.723 -0.7287  0.9175 -0.9757
81643SOL    HW256655  13.189   8.392   8.656  2.4771 -0.8445  1.6543
81644SOL     OW56656   8.436  12.560   8.382  0.0574 -0.3742 -0.5313
81644SOL    HW156657   8.528  12.543   8.359  0.9506  0.9222  1.7463
81644SOL    HW256658   8.395  12.473   8.382  1.4251 -1.0482 -1.0312
81645SOL     OW56659   8.135   9.116   6.870 -0.0890 -0.5292 -0.4517
81645SOL    HW156660   8.078   9.109   6.947  0.2838 -0.6954 -0.1910
81645SOL    HW256661   8.139   9.210   6.852 -0.0391 -0.4780 -0.1677
81646SOL     OW56662   6.995   9.242  11.267 -0.2208  0.2110  0.5787
81646SOL    HW156663   7.088   9.261  11.259  0.6048 -3.3500 -0.0162
81646SOL    HW256664   6.972   9.274  11.354  1.9762 -0.1664  1.3781
81647SOL     OW56665   4.361   6.146   3.785  0.3587  0.4365  0.1910
81647SOL    HW156666   4.388   6.070   3.733 -0.4952  0.0725  0.2668
81647SOL    HW256667   4.440   6.173   3.831  1.2525  0.9965 -1.5662
81648SOL     OW56668   4.651  11.847   6.186  0.0738 -0.4488 -0.7161
81648SOL    HW156669   4.698  11.930   6.193 -0.7642  0.0689 -1.0904
81648SOL    HW256670   4.704  11.786   6.237  0.7750  0.2804 -0.5411
81649SOL     OW56671   9.305   6.425  11.171 -0.4010 -0.3607  0.2203
81649SOL    HW156672   9.324   6.486  11.243  0.4587 -0.4372  0.0619
81649SOL    HW256673   9.275   6.482  11.100 -1.6643 -0.3209  0.7646
81650SOL     OW56674  12.762  12.697   0.291  0.4719  0.2217 -0.1702
81650SOL    HW156675  12.676  12.656   0.296  0.5417  0.0660 -0.2520
81650SOL    HW256676  12.819  12.629   0.256  0.6121  0.3498 -0.1891
81651SOL     OW56677   3.946  11.397   1.609  0.1574  0.1604 -0.1390
81651SOL    HW156678   3.890  11.457   1.659 -0.0186 -0.7716  0.7981
81651SOL    HW256679   3.986  11.340   1.675  0.5755 -0.5489 -0.9870
81652SOL     OW56680  11.252   6.267  12.740  0.4704 -0.0738 -0.2042
81652SOL    HW156681  11.250   6.178  12.704  2.1707 -0.2926  0.1533
81652SOL    HW256682  11.308   6.261  12.818  0.8276  1.3450 -0.3131
81653SOL     OW56683   8.527   2.840   4.549  0.4650  0.1991 -0.3404
81653SOL    HW156684   8.555   2.927   4.576  1.1228 -0.4589  1.2213
81653SOL    HW256685   8.552   2.783   4.621  1.0277 -1.4644 -1.7745
81654SOL     OW56686  12.014  11.030   6.907  0.4651  0.0216  0.1908
81654SOL    HW156687  12.013  11.110   6.960 -0.5819 -0.2281  0.5892
81654SOL    HW256688  12.026  10.960   6.970  2.1400 -0.1103 -0.2371
81655SOL     OW56689   7.613  11.093  10.965 -0.3307  0.0348 -0.7443
81655SOL    HW156690   7.636  11.057  11.050 -0.8959  0.8047 -0.2516
81655SOL    HW256691   7.585  11.183  10.984 -1.1150 -0.0038 -1.6519
81656SOL     OW56692   1.243  12.236  10.023  0.0381 -0.3327  0.1116
81656SOL    HW156693   1.315  12.286  10.061 -1.3179  0.3697  1.9347
81656SOL    HW256694   1.223  12.280   9.941  0.0757  1.0222  0.8078
81657SOL     OW56695  10.445   0.259   7.191 -0.2897  0.6259 -0.2656
81657SOL    HW156696  10.394   0.203   7.250  1.0228 -0.0979  0.2187
81657SOL    HW256697  10.536   0.249   7.221  0.2745  1.0766 -1.7517
81658SOL     OW56698  12.785   1.422   3.603 -0.4344 -0.4689  0.0448
81658SOL    HW156699  12.690   1.434   3.595 -0.5592 -0.6778  1.0125
81658SOL    HW256700  12.816   1.502   3.644  0.0271  0.1803 -1.5061
81659SOL     OW56701  10.713  13.234   2.271  0.0121  0.1129  0.1180
81659SOL    HW156702  10.656  13.160   2.290 -0.6992  0.8500  0.9849
81659SOL    HW256703  10.796  13.195   2.246 -0.6375 -0.9784 -0.4124
81660SOL     OW56704   2.098   6.904   4.620  0.0959 -0.1760  0.6562
81660SOL    HW156705   2.039   6.888   4.547  0.1370  0.9715  0.3569
81660SOL    HW256706   2.055   6.971   4.673 -0.2614 -1.4678  2.0843
81661SOL     OW56707   0.176  13.132   2.626 -0.6347  0.4624  0.2132
81661SOL    HW156708   0.242  13.094   2.683 -0.8290 -1.6277 -0.8693
81661SOL    HW256709   0.208  13.221   2.608  1.4884 -0.2252  0.3382
81662SOL     OW56710   4.118  12.240  12.278 -0.5502 -0.1295 -0.0283
81662SOL    HW156711   4.121  12.145  12.279 -0.4072 -0.2257 -2.6317
81662SOL    HW256712   4.177  12.266  12.207  0.2092  1.9710  1.2759
81663SOL     OW56713   4.896   7.638   8.056  0.2399  0.5068 -0.5460
81663SOL    HW156714   4.910   7.727   8.024  0.3186  0.7295  0.0871
81663SOL    HW256715   4.803   7.634   8.074  0.4433  0.9226  0.7228
81664SOL     OW56716   7.806  10.497   2.100 -0.0512  0.2695 -0.0614
81664SOL    HW156717   7.868  10.530   2.166 -0.2473  1.6132 -0.5234
81664SOL    HW256718   7.859  10.437   2.047  0.3065 -0.2315  0.8374
81665SOL     OW56719  11.524   3.748  13.597 -0.0332 -0.0080 -0.4831
81665SOL    HW156720  11.533   3.744  13.692  2.0102 -0.6553 -0.6669
81665SOL    HW256721  11.488   3.835  13.580 -0.3027  0.1620  0.8709
81666SOL     OW56722   1.986   0.450  10.347 -0.2158 -0.7162 -0.7668
81666SOL    HW156723   1.993   0.402  10.430 -1.7039 -0.2762 -0.3510
81666SOL    HW256724   2.048   0.407  10.289  3.2024  0.8494  1.4254
81667SOL     OW56725   2.108   2.441   2.661  0.2279  0.0067  0.3578
81667SOL    HW156726   2.070   2.355   2.643 -0.4719  0.4574 -0.3399
81667SOL    HW256727   2.061   2.501   2.604  1.3908  0.7126  0.0963
81668SOL     OW56728  13.568   1.387   9.575  0.7265  0.0656  0.0420
81668SOL    HW156729  13.527   1.442   9.642 -0.8694  0.8312 -1.4760
81668SOL    HW256730  13.632   1.444   9.532  0.8549 -0.0398  0.0910
81669SOL     OW56731   4.842  11.579  11.683  0.2461  0.1235  0.6264
81669SOL    HW156732   4.872  11.492  11.655  0.8723  0.2825  0.7934
81669SOL    HW256733   4.915  11.637  11.663 -0.2542  0.6542  0.3169
81670SOL     OW56734   0.948   3.904   0.811 -0.0312  0.0959 -0.0814
81670SOL    HW156735   0.925   3.918   0.903  1.4986  0.1400  0.3093
81670SOL    HW256736   0.927   3.987   0.769 -0.7940  0.0590  0.2002
81671SOL     OW56737   2.410  10.915  10.518  0.4453 -0.5802 -0.7916
81671SOL    HW156738   2.478  10.948  10.577  0.0193 -1.9594  0.5213
81671SOL    HW256739   2.365  10.994  10.487  1.5515  0.2430 -0.3496
81672SOL     OW56740  11.762  13.694   8.544 -0.1475  0.1224  0.1317
81672SOL    HW156741  11.794  13.609   8.511  0.2068  0.1555  0.3837
81672SOL    HW256742  11.833  13.726   8.600 -0.0805  0.8050 -0.3267
81673SOL     OW56743  11.739  12.502   4.390 -0.0014 -0.3755 -0.0664
81673SOL    HW156744  11.816  12.449   4.412 -1.2298 -2.0440  0.3685
81673SOL    HW256745  11.678  12.488   4.462 -1.6143 -0.9292 -1.4682
81674SOL     OW56746   3.452   4.056   0.066 -0.3139  0.5149  0.0542
81674SOL    HW156747   3.486   3.967   0.075  0.4067  0.8967  1.4028
81674SOL    HW256748   3.466   4.077  -0.026  2.7629  0.4462  0.3917
81675SOL     OW56749  11.447   2.246   7.091  0.1941  0.4123 -0.0383
81675SOL    HW156750  11.354   2.256   7.073  0.4861  1.0197 -1.3109
81675SOL    HW256751  11.489   2.244   7.005  1.4378  0.9291  0.5236
81676SOL     OW56752   1.549  12.183   5.195 -0.2687 -0.3297 -0.0811
81676SOL    HW156753   1.570  12.132   5.117 -2.8689  0.0741 -1.1400
81676SOL    HW256754   1.466  12.148   5.226  0.6384 -0.4329  2.5400
81677SOL     OW56755  13.517   2.793   1.911 -0.2026  0.0854 -0.0149
81677SOL    HW156756  13.474   2.714   1.876  2.3042  0.3120 -4.4632
81677SOL    HW256757  13.569   2.761   1.985 -1.9218 -1.6537  0.5270
81678SOL     OW56758   7.224   7.466   9.543 -0.0571 -0.2504 -0.0684
81678SOL    HW156759   7.164   7.401   9.506 -1.4353  1.8651 -1.8243
81678SOL    HW256760   7.168   7.523   9.597  1.1771 -0.6806  1.7438
81679SOL     OW56761   7.614   3.741   8.597  0.0594 -0.4862 -0.3338
81679SOL    HW156762   7.613   3.774   8.507  0.8521  0.3437 -0.0574
81679SOL    HW256763   7.636   3.649   8.589 -0.9483 -0.6758 -1.0581
81680SOL     OW56764   5.083   2.858   6.020 -0.5602  0.2178 -0.1014
81680SOL    HW156765   5.138   2.906   5.958  0.3328  0.0859  0.5797
81680SOL    HW256766   4.995   2.892   6.004 -0.1166  1.2513 -0.4183
81681SOL     OW56767  11.604   3.077   1.579  0.3724 -0.2185 -0.3662
81681SOL    HW156768  11.542   3.124   1.523 -0.0469 -0.6602 -0.2753
81681SOL    HW256769  11.595   3.118   1.665 -0.6189 -1.0032 -0.0688
81682SOL     OW56770   0.280  13.530  11.515  0.0512 -0.5087 -0.0332
81682SOL    HW156771   0.206  13.500  11.462  0.0826 -3.6970  1.5075
81682SOL    HW256772   0.240  13.571  11.592 -0.2063 -2.3640  0.8727
81683SOL     OW56773   4.521   3.206   9.990 -0.7410  0.0848 -0.1149
81683SOL    HW156774   4.478   3.216  10.075 -0.6009  0.2470 -0.0616
81683SOL    HW256775   4.450   3.210   9.926 -1.0798 -1.7707  0.0712
81684SOL     OW56776   2.425   5.537   5.419 -0.2027  0.1593 -0.3146
81684SOL    HW156777   2.515   5.549   5.448 -0.0374  0.1956 -0.8285
81684SOL    HW256778   2.389   5.472   5.479  0.4858 -0.6335 -0.7361
81685SOL     OW56779   4.268   8.952   3.984 -0.1318 -0.0055  0.3384
81685SOL    HW156780   4.362   8.933   3.981  0.1929  0.9212  2.5918
81685SOL    HW256781   4.264   9.046   4.001 -1.5284  0.2248 -1.0931
81686SOL     OW56782   0.520   4.285   0.461 -0.4900 -0.5730  0.3881
81686SOL    HW156783   0.501   4.207   0.409  1.1521 -0.6211 -0.1901
81686SOL    HW256784   0.572   4.341   0.404  1.8725 -0.8679  2.0903
81687SOL     OW56785  10.371   2.128  11.127 -0.1518  0.1162  0.2794
81687SOL    HW156786  10.416   2.158  11.049  0.4697  1.1626  1.0126
81687SOL    HW256787  10.289   2.178  11.129 -0.9512 -1.0937 -0.5421
81688SOL     OW56788  13.216  10.421   9.182 -0.4632 -0.6061  0.0113
81688SOL    HW156789  13.258  10.408   9.097 -1.7519 -2.1193 -0.4146
81688SOL    HW256790  13.287  10.409   9.245  0.6047  0.9644 -0.8120
81689SOL     OW56791   3.506   3.178   0.353  0.0784 -0.2330 -0.3967
81689SOL    HW156792   3.578   3.145   0.406  0.9231 -2.2177 -2.6052
81689SOL    HW256793   3.433   3.118   0.370 -0.0180 -0.1854 -0.6375
81690SOL     OW56794   0.600   9.560   1.691  0.6504  0.2347  0.2630
81690SOL    HW156795   0.548   9.594   1.763  1.4866 -0.9759  1.4943
81690SOL    HW256796   0.627   9.473   1.720 -2.3065 -2.1417 -3.0889
81691SOL     OW56797   3.596  11.231   6.973  0.4952 -0.2695 -0.1476
81691SOL    HW156798   3.647  11.295   6.922  0.6323 -0.0716  0.2384
81691SOL    HW256799   3.508  11.268   6.976  0.7171  0.2266  0.6162
81692SOL     OW56800   0.413   7.858   0.053 -0.1596  0.0461 -0.5699
81692SOL    HW156801   0.431   7.946   0.085  1.6948 -0.2409 -0.6755
81692SOL    HW256802   0.456   7.855  -0.033  0.9146 -1.3254 -0.0284
81693SOL     OW56803   6.889   1.852   1.143 -0.1429  0.3787 -0.1899
81693SOL    HW156804   6.832   1.795   1.092 -0.7298  0.5148  0.3009
81693SOL    HW256805   6.875   1.939   1.107  0.1778  0.3293 -0.4364
81694SOL     OW56806   4.163  10.279   6.376  0.0150  0.2258  0.0204
81694SOL    HW156807   4.180  10.271   6.282 -3.0405 -1.1810 -0.5418
81694SOL    HW256808   4.129  10.368   6.387  0.4012  0.4033 -0.1967
81695SOL     OW56809  11.524  12.035   8.652 -0.3370 -0.1089 -0.1091
81695SOL    HW156810  11.608  12.030   8.605 -1.0964  1.0379 -1.6820
81695SOL    HW256811  11.548  12.023   8.744  1.4013 -0.9878 -0.6198
81696SOL     OW56812   6.451   1.041   7.695 -0.0314 -0.0455 -0.3238
81696SOL    HW156813   6.425   1.108   7.759  1.0337  0.5664 -0.5066
81696SOL    HW256814   6.420   1.075   7.611  0.9919  0.5063 -0.4918
81697SOL     OW56815  13.162  13.032  13.363  0.3133 -0.1747 -0.2153
81697SOL    HW156816  13.216  13.048  13.441 -2.1123  0.7245  1.4038
81697SOL    HW256817  13.096  12.969  13.393 -2.5821  2.5113 -0.4838
81698SOL     OW56818   0.692  12.709   0.938 -1.0935  0.0672  0.0442
81698SOL    HW156819   0.752  12.770   0.981 -1.6143  2.5415 -2.4326
81698SOL    HW256820   0.717  12.623   0.971  0.3408  1.4706  3.0076
81699SOL     OW56821   5.945  11.667   4.785  0.3808  0.0500  0.3285
81699SOL    HW156822   5.947  11.612   4.706 -0.9051  0.7639 -0.2408
81699SOL    HW256823   6.018  11.636   4.838  1.6524 -0.0516 -1.4085
81700SOL     OW56824   0.245   7.258   5.414  0.3173 -0.1241  0.0753
81700SOL    HW156825   0.156   7.283   5.436  0.5614 -0.6490  1.7548
81700SOL    HW256826   0.236   7.176   5.365 -0.0987 -0.3691  0.5639
81701SOL     OW56827  13.130   4.388   7.579 -0.6602 -0.1693 -0.9377
81701SOL    HW156828  13.171   4.468   7.612  0.3199 -1.4169  1.1198
81701SOL    HW256829  13.044   4.386   7.622  0.2143 -1.2827  0.8972
81702SOL     OW56830  11.524   2.465   8.545 -0.7277 -0.3284  0.0461
81702SOL    HW156831  11.593   2.523   8.511 -1.0891 -0.8837 -1.7293
81702SOL    HW256832  11.557   2.437   8.630  1.2986 -0.6140 -0.7670
81703SOL     OW56833   8.693   7.712   0.303 -0.2792 -0.1063 -0.0844
81703SOL    HW156834   8.654   7.783   0.354 -2.3138 -0.6776 -0.7670
81703SOL    HW256835   8.769   7.685   0.354 -0.1233  1.7609  0.7700
81704SOL     OW56836   9.253  12.689   5.267  0.3515 -0.7171 -0.2054
81704SOL    HW156837   9.285  12.615   5.214  0.3994 -3.0289  2.8059
81704SOL    HW256838   9.321  12.756   5.258  1.1306 -1.6555 -1.7193
81705SOL     OW56839   3.440  13.299   2.683  0.5123 -0.0567  0.1320
81705SOL    HW156840   3.434  13.249   2.602 -0.5101 -0.8476  0.6818
81705SOL    HW256841   3.350  13.315   2.709  0.8133 -0.0957  1.2805
81706SOL     OW56842  11.861   9.320   7.859  0.0200  0.1862  0.3300
81706SOL    HW156843  11.779   9.367   7.872  0.1823  0.1889  1.4244
81706SOL    HW256844  11.885   9.287   7.946  0.1989 -1.4641 -0.3044
81707SOL     OW56845  13.276   6.558   6.746  0.1192  0.3138  0.8222
81707SOL    HW156846  13.247   6.588   6.832 -1.0477  1.0848  0.1917
81707SOL    HW256847  13.283   6.638   6.694 -0.9515 -0.2693 -0.2889
81708SOL     OW56848   5.965  12.314   9.686 -0.0843  0.2627 -0.1704
81708SOL    HW156849   5.912  12.240   9.655  1.9344 -0.9029 -1.0230
81708SOL    HW256850   5.975  12.370   9.609  0.2153  0.2848 -0.1169
81709SOL     OW56851  12.735   3.845   6.409  0.0621  0.0348 -0.1362
81709SOL    HW156852  12.658   3.817   6.359  0.0582 -1.5761  0.7066
81709SOL    HW256853  12.808   3.800   6.366  0.2663 -0.0569  0.3066
81710SOL     OW56854   4.233   7.710   5.532 -0.1008  0.5171 -0.1835
81710SOL    HW156855   4.200   7.629   5.493 -1.3893  1.3738 -0.9137
81710SOL    HW256856   4.237   7.690   5.626 -0.8710 -0.2482 -0.2941
81711SOL     OW56857   6.178   5.264  10.098  0.7175 -0.1081 -0.1321
81711SOL    HW156858   6.156   5.180  10.057 -0.2612  0.7467 -1.4223
81711SOL    HW256859   6.133   5.330  10.045  3.0534  1.4259 -0.3625
81712SOL     OW56860   1.247   9.368   4.542 -0.0607  0.0800 -0.0531
81712SOL    HW156861   1.244   9.407   4.629  0.6429  0.7351 -0.3164
81712SOL    HW256862   1.183   9.297   4.546  0.0929 -0.0174  1.0552
81713SOL     OW56863  13.727   1.014   7.941 -0.3761 -0.3419 -0.1614
81713SOL    HW156864  13.728   1.109   7.944  1.9429 -0.3309  2.2293
81713SOL    HW256865  13.638   0.990   7.969 -0.5911  1.1079  0.4837
81714SOL     OW56866   6.383   4.688   8.221 -0.1976  0.1222 -0.0382
81714SOL    HW156867   6.407   4.605   8.180 -0.9845 -0.0576 -0.1478
81714SOL    HW256868   6.290   4.698   8.202 -0.3261  0.5675  0.7864
81715SOL     OW56869   3.358  12.817   2.312  0.7821  0.4602 -0.2075
81715SOL    HW156870   3.370  12.759   2.236  1.3018 -1.1434  1.0392
81715SOL    HW256871   3.443  12.858   2.325  0.6217  0.9342 -0.6400
81716SOL     OW56872  10.328   1.134   0.153  0.7538  0.2390  0.2803
81716SOL    HW156873  10.406   1.167   0.198  2.6313 -2.3315 -0.8761
81716SOL    HW256874  10.303   1.055   0.201 -0.2853  0.2219 -0.2468
81717SOL     OW56875   1.592   6.498   2.283  0.3330  0.8424  0.7390
81717SOL    HW156876   1.634   6.568   2.232  0.8729  0.3531  0.5051
81717SOL    HW256877   1.654   6.425   2.279 -0.5920  0.0640  0.2879
81718SOL     OW56878   0.282  12.559   8.192 -0.0715 -0.0272 -0.3889
81718SOL    HW156879   0.188  12.548   8.181 -0.0145 -1.6627  0.6285
81718SOL    HW256880   0.314  12.474   8.219  1.5185  0.8332  0.6090
81719SOL     OW56881   0.840   4.899   3.879 -0.4941  0.0873 -0.2972
81719SOL    HW156882   0.896   4.822   3.867 -0.1599  0.5260 -1.7550
81719SOL    HW256883   0.899   4.968   3.908 -0.3753  0.3739 -1.1901
81720SOL     OW56884   5.590  11.831   2.102  0.5158  0.0724 -0.6179
81720SOL    HW156885   5.560  11.870   2.020 -1.3841 -0.8376 -0.4129
81720SOL    HW256886   5.623  11.745   2.077 -1.7315 -0.9512 -0.2801
81721SOL     OW56887  10.264   4.510  11.566 -0.1162  0.5362 -0.2399
81721SOL    HW156888  10.177   4.539  11.595  0.5300  1.1111  1.2298
81721SOL    HW256889  10.311   4.591  11.544 -0.9013  0.1175 -4.2087
81722SOL     OW56890   4.398  11.983   2.859 -0.3590 -0.4481  0.3840
81722SOL    HW156891   4.481  12.004   2.901  0.0529 -0.9467 -0.1668
81722SOL    HW256892   4.372  12.064   2.815  1.3071 -1.0404 -1.8939
81723SOL     OW56893   7.831   6.436  10.036  0.0418  0.1392  0.5059
81723SOL    HW156894   7.835   6.404  10.126 -1.2030 -1.0376  0.1842
81723SOL    HW256895   7.794   6.523  10.043 -1.4303 -0.5003  1.0534
81724SOL     OW56896   1.852   3.246   9.924  0.4000  0.4561  0.1165
81724SOL    HW156897   1.864   3.192  10.001 -2.3474  1.2812  1.2417
81724SOL    HW256898   1.848   3.184   9.851 -0.4865 -0.6881  1.1034
81725SOL     OW56899   4.588   4.664  10.956  0.0490 -0.3843 -0.0131
81725SOL    HW156900   4.532   4.666  11.033  1.1665 -0.1125  0.8155
81725SOL    HW256901   4.649   4.592  10.972  0.9112  0.2891 -0.1887
81726SOL     OW56902  11.558   8.772   1.023 -0.1196 -0.1446  0.3934
81726SOL    HW156903  11.626   8.757   0.958 -1.7286  2.4788 -2.1639
81726SOL    HW256904  11.596   8.835   1.084 -0.0575  1.0083 -0.7946
81727SOL     OW56905   5.776   2.312   0.419 -0.1157  0.1710 -0.1834
81727SOL    HW156906   5.727   2.254   0.478 -0.3943 -0.5522 -1.0975
81727SOL    HW256907   5.833   2.362   0.477 -0.8528 -0.0440  0.7656
81728SOL     OW56908   2.670  11.864   6.735 -0.8255  0.1911 -0.0438
81728SOL    HW156909   2.714  11.813   6.804  1.5254  3.2110  0.8840
81728SOL    HW256910   2.577  11.859   6.758 -0.3775 -1.0825  1.7615
81729SOL     OW56911  12.716   6.740   4.294 -0.4811  0.0957 -0.0090
81729SOL    HW156912  12.692   6.728   4.202  2.2961 -0.1435 -0.7818
81729SOL    HW256913  12.717   6.835   4.306 -0.8970  0.1255 -0.1739
81730SOL     OW56914   8.976   4.779  13.136 -0.1238  0.6848  0.5172
81730SOL    HW156915   8.905   4.760  13.075 -0.8073 -0.5454  1.6226
81730SOL    HW256916   9.056   4.768  13.085 -0.6823  0.1997 -0.2797
81731SOL     OW56917   3.553   8.806   4.340  0.0190 -0.0624  0.1723
81731SOL    HW156918   3.641   8.791   4.376  1.6345  2.6809 -2.2091
81731SOL    HW256919   3.513   8.868   4.400  0.9301  0.9876 -0.2688
81732SOL     OW56920  11.347   9.598  13.723 -0.4652 -0.1449  0.3441
81732SOL    HW156921  11.384   9.618  13.637  2.1571 -1.2398  1.1284
81732SOL    HW256922  11.361   9.504  13.734 -2.4139 -0.3799  1.2638
81733SOL     OW56923  13.176   7.368   8.651 -0.4875  0.2226 -0.2692
81733SOL    HW156924  13.194   7.408   8.565  1.7662  1.7354  0.8070
81733SOL    HW256925  13.179   7.441   8.712  1.3506 -1.2260  1.5108
81734SOL     OW56926   7.238  10.053   1.191  0.0779 -0.2326 -0.1633
81734SOL    HW156927   7.246  10.025   1.282 -0.0937  0.0516 -0.0590
81734SOL    HW256928   7.218  10.147   1.196  2.9327  0.4789 -0.5372
81735SOL     OW56929   8.577   7.154   2.930  0.0472 -0.0629 -0.0337
81735SOL    HW156930   8.666   7.190   2.933  0.2269 -0.4589 -0.4653
81735SOL    HW256931   8.547   7.172   2.840 -0.8562  1.3508  0.5259
81736SOL     OW56932   2.793   6.326  12.045  0.5770 -0.1108 -0.3684
81736SOL    HW156933   2.698   6.322  12.035  0.4395  1.7689 -0.2550
81736SOL    HW256934   2.821   6.235  12.049 -1.4816 -0.7742  2.0991
81737SOL     OW56935   1.319   0.344  10.395 -0.1471 -0.3164  0.2700
81737SOL    HW156936   1.277   0.301  10.470 -0.6126 -0.8154 -0.2656
81737SOL    HW256937   1.246   0.365  10.336  0.3602 -1.3051 -0.7269
81738SOL     OW56938   4.486   2.914   0.115 -0.0041  0.2699  0.4281
81738SOL    HW156939   4.511   2.958   0.196  0.7078  1.1154 -0.2253
81738SOL    HW256940   4.569   2.903   0.067 -0.5411  0.9111 -0.7063
81739SOL     OW56941  10.771  11.432   8.555 -0.1453  0.0234 -0.6018
81739SOL    HW156942  10.786  11.459   8.646  0.1453  1.5983 -1.0783
81739SOL    HW256943  10.770  11.337   8.558 -1.7182  0.0344  1.3094
81740SOL     OW56944  12.422   4.119   6.635 -0.2492 -0.1252 -0.1504
81740SOL    HW156945  12.342   4.071   6.618 -0.9532  0.1687  2.0430
81740SOL    HW256946  12.467   4.068   6.703 -0.6441  1.8261  1.6719
81741SOL     OW56947   6.660   1.248  11.339 -0.4577  0.0300 -0.0712
81741SOL    HW156948   6.755   1.260  11.342 -0.3326 -0.5472 -1.2866
81741SOL    HW256949   6.636   1.231  11.430  0.8490 -1.4853  0.0426
81742SOL     OW56950   6.566   0.060   1.210  0.0977  0.4536 -0.5321
81742SOL    HW156951   6.630   0.131   1.215  0.5258  0.0576 -0.3787
81742SOL    HW256952   6.516   0.067   1.291  0.1070  0.6089 -0.5395
81743SOL     OW56953  12.009   7.155   0.775 -0.4818 -0.8040  0.1736
81743SOL    HW156954  11.949   7.135   0.704  0.5052 -2.2968 -0.2762
81743SOL    HW256955  12.000   7.082   0.836  0.5037 -0.7989  0.3413
81744SOL     OW56956   9.271   6.637   4.354 -0.6175 -0.1393  0.0209
81744SOL    HW156957   9.276   6.694   4.277  0.5886 -0.9689 -0.5339
81744SOL    HW256958   9.185   6.655   4.391 -1.4628 -0.1336 -1.8417
81745SOL     OW56959   3.626   3.483  13.541  0.3978  0.4657 -0.3039
81745SOL    HW156960   3.585   3.404  13.577 -1.7453  1.0347 -1.4032
81745SOL    HW256961   3.560   3.551  13.551  1.1879  1.5027 -1.8503
81746SOL     OW56962   7.962   2.615   2.935  0.6681  0.0013 -0.0700
81746SOL    HW156963   7.953   2.521   2.922 -0.2287  0.0806 -0.0994
81746SOL    HW256964   7.905   2.654   2.868  1.5249  0.5818 -0.4805
81747SOL     OW56965   3.077  12.478   2.603  0.1183 -0.0176 -0.5724
81747SOL    HW156966   3.014  12.407   2.592  0.3889 -0.2476 -0.6781
81747SOL    HW256967   3.086  12.516   2.515 -0.8881  0.9024 -0.2970
81748SOL     OW56968   7.317   9.759   9.972 -0.4146  0.4365 -0.5619
81748SOL    HW156969   7.280   9.724  10.053 -0.0124 -0.5189 -0.7863
81748SOL    HW256970   7.375   9.690   9.940 -0.9470  0.5977 -1.9205
81749SOL     OW56971  12.639   5.436  11.141 -0.5137 -0.0496  0.1660
81749SOL    HW156972  12.556   5.394  11.118  0.1546 -1.2085 -0.2697
81749SOL    HW256973  12.644   5.512  11.084  0.0181 -1.5823 -1.9689
81750SOL     OW56974  12.963  11.625   7.236 -0.2387  0.2006  0.5351
81750SOL    HW156975  13.001  11.619   7.324  0.6726 -0.1635  0.1281
81750SOL    HW256976  13.025  11.677   7.186 -0.0192 -0.8051 -0.2713
81751SOL     OW56977   2.334   0.444   0.982  0.0050 -0.2066 -0.0370
81751SOL    HW156978   2.377   0.502   0.920  0.8756  0.4356  1.1307
81751SOL    HW256979   2.242   0.469   0.978 -0.3187 -1.4579 -2.4173
81752SOL     OW56980   1.618   4.793   8.880 -0.3809 -0.3526 -0.0735
81752SOL    HW156981   1.663   4.864   8.834  0.1140 -1.2676 -1.0437
81752SOL    HW256982   1.678   4.769   8.950 -0.6925  0.3851  0.4599
81753SOL     OW56983   1.426   6.495   5.727  0.0064  0.2327  0.2053
81753SOL    HW156984   1.457   6.417   5.681 -0.1312  0.9287 -1.1254
81753SOL    HW256985   1.476   6.567   5.688 -1.1080  1.0166  0.1661
81754SOL     OW56986   9.794  11.784  13.269  0.0012 -0.4006 -0.3022
81754SOL    HW156987   9.789  11.777  13.364  0.8610 -2.9558 -0.3601
81754SOL    HW256988   9.888  11.789  13.250 -0.1944  1.1285 -1.0073
81755SOL     OW56989   6.571   5.362  10.412 -0.0678  0.0695 -0.5756
81755SOL    HW156990   6.503   5.398  10.354  0.2605 -0.3871 -1.2538
81755SOL    HW256991   6.524   5.303  10.471 -0.3361  0.1823 -0.6737
81756SOL     OW56992   1.795  11.822   1.951  0.3506 -0.1931  0.1454
81756SOL    HW156993   1.714  11.856   1.911 -0.4127  1.1726  2.6643
81756SOL    HW256994   1.777  11.729   1.965  0.1792 -0.4353 -1.4955
81757SOL     OW56995  10.898  10.269   0.286  0.0722  0.7281  0.7489
81757SOL    HW156996  10.852  10.187   0.300 -0.9984  0.9083 -1.3096
81757SOL    HW256997  10.852  10.332   0.341 -0.1844  0.2860  1.0422
81758SOL     OW56998   5.600   5.940  11.103  1.2447  0.1044  0.0326
81758SOL    HW156999   5.691   5.911  11.099  1.2236 -0.5345  2.6921
81758SOL    HW257000   5.552   5.863  11.133 -0.3026  0.2917 -1.7781
81759SOL     OW57001  12.535  11.660   5.567  0.0704  0.1038 -0.4458
81759SOL    HW157002  12.452  11.694   5.600 -0.0863  0.4757 -1.2012
81759SOL    HW257003  12.596  11.672   5.639 -0.4052  0.3383 -0.0766
81760SOL     OW57004   8.864   7.946   5.732 -0.0545  0.0667  0.2397
81760SOL    HW157005   8.848   7.939   5.827 -0.3501 -1.7725  0.1069
81760SOL    HW257006   8.952   7.982   5.726  1.7345 -3.5098  1.4346
81761SOL     OW57007   1.505   5.249  11.266  0.1287  0.2313  0.6579
81761SOL    HW157008   1.443   5.305  11.219 -0.5738 -2.0431 -1.2646
81761SOL    HW257009   1.452   5.206  11.333  0.1563  0.0361  0.5526
81762SOL     OW57010  10.799   3.274  12.002 -0.0739 -0.4344 -0.2736
81762SOL    HW157011  10.861   3.201  12.004 -0.3378 -0.6565  0.4974
81762SOL    HW257012  10.780   3.292  12.095 -0.2009  0.4564 -0.4611
81763SOL     OW57013   2.181   0.137   4.424  0.3504 -0.3700  0.1140
81763SOL    HW157014   2.162   0.188   4.345 -0.4356 -2.1669 -0.9190
81763SOL    HW257015   2.262   0.174   4.458  1.1217 -0.0212 -1.9805
81764SOL     OW57016   4.603   2.080  12.073 -0.3157  0.5224  0.1797
81764SOL    HW157017   4.614   2.025  11.996 -1.6079  0.5469 -0.0448
81764SOL    HW257018   4.652   2.160  12.052 -0.4738  0.4414 -0.5195
81765SOL     OW57019   8.979   3.467  13.032 -0.3416  0.7405 -0.4384
81765SOL    HW157020   9.045   3.515  13.082 -0.9681 -0.6934  1.9046
81765SOL    HW257021   9.028   3.395  12.992 -0.2058  0.5892 -0.0083
81766SOL     OW57022  13.720   4.333   0.222  0.0429 -0.1540 -0.7212
81766SOL    HW157023  13.762   4.249   0.206 -1.6949 -0.7936 -2.3526
81766SOL    HW257024  13.674   4.322   0.305  0.4842 -0.5273 -0.5243
81767SOL     OW57025   8.185   4.857  10.561  0.0378  0.3041 -0.9880
81767SOL    HW157026   8.098   4.893  10.549 -0.4972 -0.7657 -0.4319
81767SOL    HW257027   8.198   4.798  10.487 -0.5399 -1.0628 -0.0513
81768SOL     OW57028   5.980   9.463   7.310 -0.2700 -0.0479  0.0784
81768SOL    HW157029   5.932   9.531   7.356 -0.2453 -0.0842  0.1572
81768SOL    HW257030   5.985   9.391   7.373  0.6796  0.2926  0.4126
81769SOL     OW57031  12.966  13.379   9.825  0.3085  0.2778  0.1924
81769SOL    HW157032  12.898  13.415   9.882 -0.8595  0.8107 -1.4630
81769SOL    HW257033  13.007  13.309   9.877 -1.5305 -0.1047  1.2053
81770SOL     OW57034   2.876   3.907   1.040 -0.4840 -0.3486 -0.8308
81770SOL    HW157035   2.971   3.916   1.043 -0.4388  0.7672 -3.1342
81770SOL    HW257036   2.843   3.991   1.072 -0.6590 -0.2857 -1.1716
81771SOL     OW57037   5.023  10.900   2.483  0.4449  0.6852  0.5855
81771SOL    HW157038   4.928  10.886   2.476  0.6597 -0.9311  0.5541
81771SOL    HW257039   5.050  10.920   2.393  0.3244 -0.2404  0.3343
81772SOL     OW57040   4.158   7.726  13.421 -0.0344  1.0307  0.3343
81772SOL    HW157041   4.203   7.788  13.479  0.4329  0.5579  0.4909
81772SOL    HW257042   4.065   7.737  13.441  0.0559  1.5346  0.5026
81773SOL     OW57043   8.673   5.306   9.355  0.5153 -0.7299 -0.3051
81773SOL    HW157044   8.616   5.229   9.345  0.7411 -1.0010  0.4002
81773SOL    HW257045   8.728   5.285   9.431  3.1309 -1.4870 -2.2547
81774SOL     OW57046  12.742   6.978   1.016 -0.1876 -0.2820 -0.1936
81774SOL    HW157047  12.673   7.029   1.058  0.2941  0.1661  0.0810
81774SOL    HW257048  12.819   7.035   1.020  0.4405 -1.1349  0.3600
81775SOL     OW57049   4.026   7.891   4.105 -0.5186  0.0950 -0.1928
81775SOL    HW157050   4.120   7.874   4.098 -0.8929 -1.4530 -3.5214
81775SOL    HW257051   3.988   7.805   4.122 -1.4863  0.0136 -2.4199
81776SOL     OW57052  11.010  12.190  11.281 -0.3204 -0.3802  0.0459
81776SOL    HW157053  10.991  12.126  11.212  0.5856 -0.7109  0.0886
81776SOL    HW257054  10.969  12.271  11.250 -1.6882 -1.0125  0.0969
81777SOL     OW57055  11.056   9.351   1.375 -0.3503  0.2795  0.5088
81777SOL    HW157056  11.009   9.285   1.425  0.5780 -0.2471  0.7092
81777SOL    HW257057  11.024   9.435   1.409 -1.4278 -0.0623  0.3490
81778SOL     OW57058   9.796   8.694   1.088 -0.3853 -0.5541  0.3418
81778SOL    HW157059   9.834   8.709   1.175 -1.6682 -1.2005  1.0498
81778SOL    HW257060   9.804   8.599   1.075  0.6955 -0.3364 -0.7019
81779SOL     OW57061   7.843  12.127   7.412 -0.6370  0.7153 -0.2242
81779SOL    HW157062   7.809  12.180   7.484  1.9854 -0.3152  1.9536
81779SOL    HW257063   7.795  12.044   7.418 -1.1558  1.0055 -0.3408
81780SOL     OW57064   3.094   9.637  12.082 -0.4294  0.3062  0.1334
81780SOL    HW157065   3.148   9.603  12.010  0.2566 -1.5630  1.4654
81780SOL    HW257066   3.012   9.663  12.040  0.7372  1.3607 -1.6431
81781SOL     OW57067   4.150  12.468   4.286 -0.4237 -0.6572 -0.1171
81781SOL    HW157068   4.107  12.388   4.256 -0.1246 -0.0441 -2.4499
81781SOL    HW257069   4.090  12.539   4.259  0.6839  0.0368 -0.8556
81782SOL     OW57070   8.245   9.603   3.957  0.4090  0.0398  0.4377
81782SOL    HW157071   8.269   9.607   4.049 -1.6053 -2.0632  1.1265
81782SOL    HW257072   8.257   9.511   3.932 -0.2031  0.3351 -1.0813
81783SOL     OW57073   1.565   0.104   4.762 -0.1673 -0.7044 -0.0957
81783SOL    HW157074   1.600   0.191   4.746 -1.2244  0.1993  2.0453
81783SOL    HW257075   1.640   0.053   4.792  0.3196 -0.3509 -0.6866
81784SOL     OW57076   7.968   9.672   4.007 -0.9725  0.3925 -0.5360
81784SOL    HW157077   8.063   9.672   4.020 -0.9754  0.7979 -0.4792
81784SOL    HW257078   7.936   9.600   4.060 -0.9065  1.5395  1.1407
81785SOL     OW57079   1.504   3.409   2.131  0.1287  0.2243  0.2531
81785SOL    HW157080   1.539   3.339   2.075 -0.9752 -0.3178  0.2105
81785SOL    HW257081   1.482   3.364   2.213 -0.8974  0.4528  0.1061
81786SOL     OW57082   8.365   7.791   6.782  0.4633 -0.2193 -0.6694
81786SOL    HW157083   8.408   7.716   6.741 -0.6293 -1.3158  0.1074
81786SOL    HW257084   8.342   7.760   6.870  1.3871  1.5617  0.2479
81787SOL     OW57085  13.058  11.452   7.947  0.1052  0.0437  0.0186
81787SOL    HW157086  13.078  11.495   8.030 -0.5429  0.8842 -0.2393
81787SOL    HW257087  12.996  11.383   7.970 -0.5128  0.6328  0.1843
81788SOL     OW57088   0.898   8.610  13.498  0.1323  0.3958 -0.2357
81788SOL    HW157089   0.838   8.604  13.572  0.9573  1.0276  0.4948
81788SOL    HW257090   0.858   8.675  13.440  1.2242  2.5973  1.3474
81789SOL     OW57091  10.036  11.347   8.041 -0.0453 -0.0225  0.4507
81789SOL    HW157092  10.040  11.439   8.067  1.0707 -0.3325  1.4256
81789SOL    HW257093   9.991  11.349   7.956  0.3789  1.4607  0.2288
81790SOL     OW57094   0.483   8.425   4.389  0.2085 -0.0450 -0.4408
81790SOL    HW157095   0.495   8.451   4.481 -0.4982  3.2424 -1.1863
81790SOL    HW257096   0.422   8.351   4.394 -1.7764  1.5607  1.6923
81791SOL     OW57097   6.894  11.025  10.267 -0.2617  0.1478 -0.3624
81791SOL    HW157098   6.953  10.950  10.275  0.0132  0.3931 -0.0279
81791SOL    HW257099   6.849  11.029  10.351 -0.5779  0.1122 -0.5292
81792SOL     OW57100   4.661   2.844   4.034  0.0533  0.0231  0.7412
81792SOL    HW157101   4.719   2.822   3.961  0.2127 -1.7568  1.3499
81792SOL    HW257102   4.717   2.892   4.095  0.3740  0.0142  0.4579
81793SOL     OW57103   3.006   5.573  11.047 -1.0975  0.7969  0.0230
81793SOL    HW157104   3.063   5.645  11.073 -0.9339  0.2641  1.1914
81793SOL    HW257105   3.008   5.512  11.121 -0.8613 -0.6472 -1.1193
81794SOL     OW57106  12.306   1.438   9.145  0.4363 -0.4672 -0.0643
81794SOL    HW157107  12.366   1.364   9.145 -0.0102 -0.8329  0.3680
81794SOL    HW257108  12.287   1.454   9.238 -0.7281 -0.8507 -0.2185
81795SOL     OW57109  13.666   4.567   8.202 -0.2841  0.1183  0.2412
81795SOL    HW157110  13.729   4.610   8.144 -1.1523  0.3810 -0.5246
81795SOL    HW257111  13.720   4.527   8.270  0.9842 -1.9519 -1.8258
81796SOL     OW57112   3.556   1.447   7.650 -0.1161 -0.3035 -0.0193
81796SOL    HW157113   3.522   1.534   7.628  1.4397  0.4690  0.4853
81796SOL    HW257114   3.530   1.433   7.741  0.0133 -0.1622  0.0406
81797SOL     OW57115   2.754   2.741   2.025 -0.3495  0.1093  0.5518
81797SOL    HW157116   2.688   2.694   2.075  0.5712  0.2763  1.9906
81797SOL    HW257117   2.759   2.827   2.067  0.6435  0.1519  0.3724
81798SOL     OW57118   2.989   3.451  12.974 -0.7577  0.0477  0.6158
81798SOL    HW157119   3.021   3.541  12.966  0.6394 -0.5551 -1.5344
81798SOL    HW257120   2.896   3.457  12.952 -0.4685  0.8650 -0.4741
81799SOL     OW57121   8.077   3.517  12.370  0.6644  0.5481  0.2739
81799SOL    HW157122   8.052   3.473  12.289  1.8327 -2.7578  1.5544
81799SOL    HW257123   7.994   3.537  12.412  0.0363 -1.0319 -0.1313
81800SOL     OW57124   9.693   5.444   0.258 -0.0956  0.0569 -0.1290
81800SOL    HW157125   9.654   5.466   0.174 -2.1569 -1.2215  0.4185
81800SOL    HW257126   9.785   5.427   0.239 -1.0097 -2.8819 -2.6681
81801SOL     OW57127   8.277   3.682   9.409  0.1091  0.1608 -0.0420
81801SOL    HW157128   8.292   3.774   9.389 -1.4579  0.3041 -0.7067
81801SOL    HW257129   8.211   3.682   9.479  0.7113 -0.4494  0.5426
81802SOL     OW57130   3.197  11.018   7.464  0.0851  0.7050 -0.5960
81802SOL    HW157131   3.196  11.112   7.444 -0.6689  0.6871 -0.6603
81802SOL    HW257132   3.172  10.976   7.382  0.0802  0.4615 -0.4715
81803SOL     OW57133   9.454   1.328  11.927 -0.2741 -0.2684 -0.1302
81803SOL    HW157134   9.546   1.325  11.900 -0.5335 -0.3204 -1.0373
81803SOL    HW257135   9.418   1.244  11.899 -0.3764 -0.6609  1.1052
81804SOL     OW57136   4.880   0.718   6.729  0.3528  0.3250 -0.0647
81804SOL    HW157137   4.828   0.648   6.767 -1.0656  0.2134 -2.0406
81804SOL    HW257138   4.969   0.703   6.762 -0.4274 -0.7861  1.6457
81805SOL     OW57139   9.661   0.297   8.312 -0.4953  0.0014  0.5288
81805SOL    HW157140   9.660   0.207   8.280 -0.1235  0.3825 -0.6103
81805SOL    HW257141   9.716   0.294   8.391 -0.4372 -0.7609  0.4639
81806SOL     OW57142   5.577   0.103   5.740 -0.6687 -0.1015 -0.2281
81806SOL    HW157143   5.653   0.131   5.791 -0.5950 -0.5365 -0.0991
81806SOL    HW257144   5.502   0.123   5.795 -0.7540  1.6034 -0.9095
81807SOL     OW57145   1.763   7.768  13.160 -0.8664  0.4683  0.1501
81807SOL    HW157146   1.679   7.799  13.128 -1.6427 -2.5991 -1.1489
81807SOL    HW257147   1.741   7.708  13.232  0.1316 -0.6470 -0.4378
81808SOL     OW57148  12.063   6.655   2.520 -0.8178  0.0837  0.4837
81808SOL    HW157149  12.071   6.568   2.481 -3.2773 -0.5996  1.3431
81808SOL    HW257150  12.151   6.674   2.552  0.0646 -1.5349 -0.8108
81809SOL     OW57151  12.264   7.183   0.673 -0.0086  0.8040  0.0780
81809SOL    HW157152  12.287   7.276   0.682 -0.6329  1.0507 -0.7642
81809SOL    HW257153  12.171   7.179   0.693  0.3284  0.1009  1.6126
81810SOL     OW57154   9.033   3.685   3.957  0.1284 -0.1424 -0.1815
81810SOL    HW157155   9.036   3.731   3.872 -0.4641  0.2684  0.0103
81810SOL    HW257156   8.943   3.652   3.962 -0.5629  1.7597  1.2645
81811SOL     OW57157  10.107  10.536  13.307 -0.0690 -0.0241 -0.3328
81811SOL    HW157158  10.036  10.490  13.261  0.5751 -0.4593 -0.9270
81811SOL    HW257159  10.101  10.626  13.276  0.3385 -0.3060 -1.2757
81812SOL     OW57160   9.987   8.552   5.383  0.0807 -0.3841  0.5502
81812SOL    HW157161   9.899   8.519   5.362 -0.5310  1.4878  0.0035
81812SOL    HW257162   9.972   8.641   5.415  1.7265 -0.3127  1.2022
81813SOL     OW57163   9.048   9.141   8.711  0.0729  0.5547  0.5534
81813SOL    HW157164   8.991   9.124   8.786  0.2277  0.9107  0.7548
81813SOL    HW257165   8.995   9.197   8.654 -0.2512 -0.1676  0.1271
81814SOL     OW57166   0.023  11.822   6.446 -0.0902 -0.1998  0.2479
81814SOL    HW157167  -0.015  11.873   6.517 -0.1960 -0.7068  0.5614
81814SOL    HW257168  -0.030  11.843   6.370 -0.8464 -0.6935  0.6214
81815SOL     OW57169   6.587   6.967   9.517  0.0807  0.1720  0.2789
81815SOL    HW157170   6.663   6.966   9.460 -0.7594  0.3585 -0.8716
81815SOL    HW257171   6.548   7.053   9.504 -1.0235 -0.3664 -0.1042
81816SOL     OW57172  12.262   8.934   6.842  0.6560  0.0698 -0.1856
81816SOL    HW157173  12.212   8.853   6.835 -0.4043  0.6348  0.5928
81816SOL    HW257174  12.255   8.959   6.934 -1.2352  2.3805 -0.8352
81817SOL     OW57175  13.050  11.649  12.490 -0.0566 -0.4401 -0.3976
81817SOL    HW157176  13.007  11.564  12.487  0.0450 -0.4803 -0.8062
81817SOL    HW257177  13.138  11.633  12.457 -0.4617  0.0599 -1.8230
81818SOL     OW57178  13.206   1.667   5.330 -0.4176 -0.9996 -0.4448
81818SOL    HW157179  13.124   1.624   5.305  0.0072 -0.3656 -3.2025
81818SOL    HW257180  13.201   1.754   5.291  1.3156 -0.7267 -0.1512
81819SOL     OW57181   6.232  12.407   3.496  0.6875  0.1095  0.1244
81819SOL    HW157182   6.223  12.501   3.510  2.3893  0.0533  2.2399
81819SOL    HW257183   6.142  12.374   3.495  0.1006  1.5017  1.8052
81820SOL     OW57184   5.975   2.517   4.234  0.2925 -0.0072  0.3622
81820SOL    HW157185   6.002   2.575   4.305  1.5174 -0.7391  0.5201
81820SOL    HW257186   6.055   2.473   4.207 -0.6486 -1.9021  0.4954
81821SOL     OW57187   9.641  11.955  11.607  0.9446 -0.0981  0.3505
81821SOL    HW157188   9.616  11.866  11.631  0.5807  0.2640  1.3926
81821SOL    HW257189   9.563  11.991  11.564  0.9009 -0.1105  0.4197
81822SOL     OW57190   7.505   6.015   9.170 -0.4369  0.0754 -0.0242
81822SOL    HW157191   7.486   5.924   9.147 -1.8677  0.0249  1.2360
81822SOL    HW257192   7.457   6.066   9.105 -1.2317 -0.0735  0.4387
81823SOL     OW57193   8.284   2.889   6.646  0.3278  0.2498 -0.5547
81823SOL    HW157194   8.340   2.959   6.679  2.7493 -1.3776 -0.9334
81823SOL    HW257195   8.340   2.811   6.647 -2.0900 -1.5976 -0.6206
81824SOL     OW57196   9.993   9.196  12.759 -0.2336 -1.0103  0.1324
81824SOL    HW157197   9.919   9.255  12.769  0.6085  0.3691 -1.2602
81824SOL    HW257198  10.044   9.208  12.839  0.0476  0.3905 -0.2173
81825SOL     OW57199   2.113   2.022  10.875  0.0477  0.2501 -0.2930
81825SOL    HW157200   2.163   2.069  10.942 -0.0061 -1.4501  0.9813
81825SOL    HW257201   2.059   2.090  10.834  0.3322  1.3853  1.1445
81826SOL     OW57202   2.542   8.785  12.360  0.1119  0.0188 -0.3013
81826SOL    HW157203   2.470   8.725  12.379  0.1851  0.2170  0.6379
81826SOL    HW257204   2.616   8.750  12.411  0.1947  0.8181  0.1470
81827SOL     OW57205   3.703  11.200   6.216 -0.2890  0.4834  0.8292
81827SOL    HW157206   3.635  11.136   6.238  0.4543 -0.6729 -0.0856
81827SOL    HW257207   3.780  11.171   6.264  0.4192 -0.1107 -0.6025
81828SOL     OW57208  12.043   1.081   3.178  0.0321 -0.1825 -0.1040
81828SOL    HW157209  12.051   1.176   3.191  0.5892 -0.4177  1.4893
81828SOL    HW257210  12.010   1.049   3.262  0.7745 -1.5089 -0.3019
81829SOL     OW57211  12.164  13.280   6.999  0.0010  0.1308  0.3612
81829SOL    HW157212  12.230  13.294   6.931  1.0737 -1.9202  0.8851
81829SOL    HW257213  12.104  13.354   6.990 -1.2880 -1.1350 -4.3847
81830SOL     OW57214   0.653   7.230   7.302 -0.6385 -0.2393 -0.2162
81830SOL    HW157215   0.735   7.202   7.343 -0.1365  2.2256  0.6213
81830SOL    HW257216   0.586   7.176   7.345 -0.0510  1.6245  3.4705
81831SOL     OW57217   1.358   0.770   5.256  0.5078  0.1782  0.3274
81831SOL    HW157218   1.421   0.829   5.215  0.6254 -0.3057 -0.2062
81831SOL    HW257219   1.410   0.695   5.283  0.0034 -0.7544 -1.1732
81832SOL     OW57220   3.518  11.089   4.242 -0.1716 -0.1884  0.1775
81832SOL    HW157221   3.473  11.064   4.322 -2.3660 -1.3460 -1.3254
81832SOL    HW257222   3.556  11.175   4.261 -0.8115 -0.3324  2.3394
81833SOL     OW57223  11.019   9.840  11.263  0.4376 -0.1442  0.1866
81833SOL    HW157224  11.076   9.913  11.239  2.5255 -2.1853 -1.4821
81833SOL    HW257225  11.032   9.829  11.357  3.4498 -0.9326 -0.2268
81834SOL     OW57226   2.529   9.032   8.732 -0.2426  0.5110 -0.8864
81834SOL    HW157227   2.582   8.988   8.798 -0.1498  0.1878 -1.1713
81834SOL    HW257228   2.577   9.020   8.650  0.8746  2.9743 -0.6627
81835SOL     OW57229  12.394   1.743  10.173  0.2548  0.2652  0.6685
81835SOL    HW157230  12.435   1.657  10.167 -1.3438 -0.5132  0.3984
81835SOL    HW257231  12.399   1.766  10.266  0.8982  0.0021  0.7061
81836SOL     OW57232  13.267   0.179   6.073 -0.3576  0.0062 -0.3449
81836SOL    HW157233  13.194   0.233   6.041 -1.7502 -0.6046  1.6317
81836SOL    HW257234  13.242   0.154   6.162  2.2182 -0.3774  0.3534
81837SOL     OW57235  12.580   7.669   0.238  0.7054  0.0270  0.7944
81837SOL    HW157236  12.615   7.740   0.292  0.6865 -1.0216  2.2480
81837SOL    HW257237  12.621   7.682   0.153  1.7859  0.9785  1.4220
81838SOL     OW57238   7.101  10.053   3.677  0.6217  0.4692  0.0412
81838SOL    HW157239   7.084  10.044   3.583 -0.2286  0.1374  0.2220
81838SOL    HW257240   7.109  10.147   3.691  2.1301  0.4770 -0.5833
81839SOL     OW57241   1.609  11.425   0.944 -0.1134 -0.0055 -0.1993
81839SOL    HW157242   1.693  11.453   0.907 -0.6232  0.3981 -1.0873
81839SOL    HW257243   1.562  11.507   0.961 -0.7832 -0.2520 -0.8079
81840SOL     OW57244   4.581   2.281   1.382  0.6890  0.3891 -0.2938
81840SOL    HW157245   4.619   2.265   1.296 -0.0098 -1.6013 -0.2892
81840SOL    HW257246   4.597   2.200   1.430 -0.9415  0.5942  0.6592
81841SOL     OW57247   0.568   4.546   5.383 -0.1237 -0.5962  0.4229
81841SOL    HW157248   0.575   4.555   5.478  1.8251  2.1090  0.1436
81841SOL    HW257249   0.648   4.499   5.358 -0.5782 -1.1984  0.0751
81842SOL     OW57250   0.676  10.555   0.258 -0.2308  0.4314 -0.1179
81842SOL    HW157251   0.758  10.601   0.278 -0.2204  0.5801 -0.4894
81842SOL    HW257252   0.670  10.487   0.325  0.4611  0.0871 -0.3949
81843SOL     OW57253   8.416   2.287   0.843 -0.0075 -0.9346 -0.2658
81843SOL    HW157254   8.484   2.247   0.898 -0.8751 -1.4808  0.4318
81843SOL    HW257255   8.350   2.318   0.905  1.7107  4.0288 -0.4751
81844SOL     OW57256  12.468   3.395  10.818  0.3185 -0.3422  0.3538
81844SOL    HW157257  12.554   3.410  10.780  0.3915 -1.7513 -0.0920
81844SOL    HW257258  12.464   3.454  10.893  1.3248  0.3644 -0.1351
81845SOL     OW57259   5.889   7.819   7.987  0.2473 -0.1612  0.2576
81845SOL    HW157260   5.879   7.735   7.942  0.7281 -0.4159  0.6244
81845SOL    HW257261   5.824   7.816   8.057  0.8339 -0.5791  0.7892
81846SOL     OW57262   8.227  11.863  11.678  0.0598  0.4336 -0.2011
81846SOL    HW157263   8.252  11.948  11.713  0.2792 -0.0579  0.8899
81846SOL    HW257264   8.306  11.831  11.634  0.3307  0.3320  0.3437
81847SOL     OW57265   3.079   5.533   6.294  0.3024  0.2391 -0.3249
81847SOL    HW157266   3.033   5.580   6.363 -0.2331  0.6009 -0.9097
81847SOL    HW257267   3.042   5.445   6.295  0.9730 -0.0387  0.4667
81848SOL     OW57268   6.318   0.512   7.961  0.3006  0.2499 -0.4306
81848SOL    HW157269   6.359   0.561   7.890  2.0719  0.0782  0.4387
81848SOL    HW257270   6.341   0.421   7.943 -2.8364 -0.3808 -1.9558
81849SOL     OW57271   0.726   5.177  13.216 -0.0975 -0.4035  0.1079
81849SOL    HW157272   0.771   5.256  13.185  0.6544 -1.1785 -0.8699
81849SOL    HW257273   0.648   5.171  13.160 -0.0688 -0.4383  0.0714
81850SOL     OW57274   4.279   5.879   9.089 -0.5423  0.1880 -0.4676
81850SOL    HW157275   4.315   5.967   9.100 -0.8023  0.4309 -1.4670
81850SOL    HW257276   4.344   5.833   9.036 -0.4388 -0.2146 -0.0028
81851SOL     OW57277   8.619   3.986   9.393 -0.4237 -0.4800 -0.0438
81851SOL    HW157278   8.543   3.947   9.437 -1.8730  0.2111 -1.7897
81851SOL    HW257279   8.596   4.078   9.384  0.8141 -0.1860 -0.2856
81852SOL     OW57280   2.399   4.512  13.742 -0.0320 -0.0162  0.4641
81852SOL    HW157281   2.360   4.544  13.660 -0.9380 -1.1333  0.4298
81852SOL    HW257282   2.358   4.566  13.810 -0.2367  0.0649  0.2779
81853SOL     OW57283  13.664   8.912  10.044  0.5448 -0.0745 -0.0679
81853SOL    HW157284  13.570   8.894  10.048  0.0652  1.9921 -0.9759
81853SOL    HW257285  13.686   8.904   9.951  1.2592 -0.3983  0.1186
81854SOL     OW57286  12.801   3.835   8.587  0.3890 -0.5714  0.1110
81854SOL    HW157287  12.777   3.903   8.651  2.9358  1.4492 -0.8948
81854SOL    HW257288  12.828   3.761   8.641 -0.1116  0.0772  1.3096
81855SOL     OW57289   3.888   1.007   6.968  0.0742  0.1649  0.0282
81855SOL    HW157290   3.847   1.094   6.961  0.4898  0.2397 -2.1891
81855SOL    HW257291   3.979   1.025   6.990  0.4495  0.3951 -1.6171
81856SOL     OW57292  12.425  12.136   3.827 -0.3784  0.1211 -0.2545
81856SOL    HW157293  12.501  12.120   3.770 -0.4543  0.8156 -0.5571
81856SOL    HW257294  12.351  12.099   3.779  0.1571 -3.6877  1.5183
81857SOL     OW57295   3.428   4.858   5.578  1.0444  0.3417 -0.3092
81857SOL    HW157296   3.374   4.893   5.506  1.1488  0.4756 -0.3240
81857SOL    HW257297   3.366   4.812   5.634  1.1632 -0.9539 -1.2066
81858SOL     OW57298   9.332   6.771   2.739  0.1864 -0.5164  0.2298
81858SOL    HW157299   9.247   6.758   2.697 -0.1629 -0.9524  1.0335
81858SOL    HW257300   9.327   6.718   2.819  1.2597 -0.6375  0.2264
81859SOL     OW57301   4.789  11.521  12.179  0.5970  0.1096 -0.3726
81859SOL    HW157302   4.771  11.609  12.146  0.3657 -0.3155 -1.4384
81859SOL    HW257303   4.884  11.512  12.175  0.7498  0.8231  1.1473
81860SOL     OW57304   2.726   5.197   7.421 -0.2588  0.5123  0.0599
81860SOL    HW157305   2.807   5.149   7.436 -0.3730  0.4602  0.5295
81860SOL    HW257306   2.712   5.246   7.502 -0.8577  0.2817  0.1033
81861SOL     OW57307   4.147   3.238   7.861  0.5545 -0.2855 -0.1114
81861SOL    HW157308   4.102   3.315   7.896  0.0216 -0.5811 -0.1219
81861SOL    HW257309   4.082   3.167   7.870 -0.3523 -0.0280 -3.3621
81862SOL     OW57310  11.805   7.460  12.805  0.4546  0.5180 -0.0573
81862SOL    HW157311  11.710   7.455  12.795  0.4456  0.9606 -0.1899
81862SOL    HW257312  11.832   7.369  12.819  0.1379  0.2481 -1.1510
81863SOL     OW57313   1.326   8.489   0.969  0.5590  0.0818 -0.2272
81863SOL    HW157314   1.322   8.537   1.052  1.9060 -1.0197  0.5266
81863SOL    HW257315   1.327   8.397   0.995  0.8680 -0.2863 -1.4869
81864SOL     OW57316   3.619   6.205   4.332  0.1630  0.0877 -0.1958
81864SOL    HW157317   3.578   6.292   4.325  2.0901  1.1704  0.9961
81864SOL    HW257318   3.680   6.201   4.259 -0.5518 -0.6557 -0.7650
81865SOL     OW57319   7.762   5.119   5.731 -0.2925 -0.2208 -0.0711
81865SOL    HW157320   7.687   5.075   5.772 -1.7004  2.6517  0.7345
81865SOL    HW257321   7.758   5.209   5.765  2.3561  0.5870 -1.6099
81866SOL     OW57322  11.725  12.671   6.448  0.1146 -0.0464 -0.2549
81866SOL    HW157323  11.792  12.684   6.382  1.3563  0.1766  1.0046
81866SOL    HW257324  11.646  12.709   6.409  1.1098  1.2659 -1.0932
81867SOL     OW57325   4.384  10.989  12.679  0.1799  0.9287 -0.1960
81867SOL    HW157326   4.400  10.988  12.584  0.5489 -0.1253 -0.1377
81867SOL    HW257327   4.371  10.897  12.702  0.1766  1.1653  0.7914
81868SOL     OW57328   5.166   5.715  10.392  0.3166  0.0342  0.4008
81868SOL    HW157329   5.194   5.799  10.428  1.4759 -0.2548  0.2195
81868SOL    HW257330   5.243   5.659  10.398 -0.3654 -0.9498  0.2873
81869SOL     OW57331   5.500  12.114   5.611 -0.3833  0.2971  0.0564
81869SOL    HW157332   5.439  12.068   5.669 -1.0608  1.3348  0.1939
81869SOL    HW257333   5.493  12.206   5.637  0.3928  0.5803 -0.7013
81870SOL     OW57334  11.023  11.767  10.632 -0.2344  0.6534  0.5694
81870SOL    HW157335  11.089  11.834  10.614 -0.1042  0.0631 -1.3801
81870SOL    HW257336  11.040  11.741  10.723  1.7035  1.0891  0.3816
81871SOL     OW57337  11.890   7.785  13.686 -0.4124 -0.2261  0.6298
81871SOL    HW157338  11.963   7.746  13.638  0.3261 -0.4374  1.8658
81871SOL    HW257339  11.925   7.868  13.718 -0.4567 -0.6433  1.8165
81872SOL     OW57340   2.403   8.674   0.616  0.3811  0.3912  0.7097
81872SOL    HW157341   2.492   8.641   0.601 -0.2603 -2.8568  3.0610
81872SOL    HW257342   2.416   8.761   0.654  2.5600 -0.1085  1.2717
81873SOL     OW57343   7.468  13.279   3.258  0.1749  0.4614  0.3525
81873SOL    HW157344   7.397  13.221   3.283 -0.6713  1.6837  0.8918
81873SOL    HW257345   7.520  13.289   3.338  0.6018  0.0627  0.1278
81874SOL     OW57346   2.299   3.300   3.603 -0.4947 -0.3176 -0.2427
81874SOL    HW157347   2.205   3.288   3.609 -0.4328 -0.4285  0.8943
81874SOL    HW257348   2.316   3.320   3.511 -1.5405 -0.9377 -0.5829
81875SOL     OW57349   7.713   6.341  11.072  0.1626 -0.3185 -0.2425
81875SOL    HW157350   7.714   6.384  11.158  0.0736  0.3743 -0.5754
81875SOL    HW257351   7.714   6.414  11.009 -0.1523 -0.8054 -0.8241
81876SOL     OW57352  13.118  12.714   5.054  0.0966  0.1831  0.6259
81876SOL    HW157353  13.076  12.647   5.109  0.0790  0.3404  0.8071
81876SOL    HW257354  13.185  12.666   5.005  0.8676  0.2267  1.6023
81877SOL     OW57355  11.016   1.987   9.509 -0.4057  0.1201  0.9637
81877SOL    HW157356  10.973   1.970   9.425  0.2368 -0.8674  0.8070
81877SOL    HW257357  10.956   2.044   9.556 -0.6842  0.8715 -0.2535
81878SOL     OW57358  10.798   6.411   8.735 -0.0148  0.4739  0.2025
81878SOL    HW157359  10.869   6.385   8.794  0.1931  0.3004 -0.1263
81878SOL    HW257360  10.718   6.396   8.786  0.0996 -0.7362  0.0529
81879SOL     OW57361   0.500   0.492   3.633 -0.3520 -0.1500  0.0180
81879SOL    HW157362   0.474   0.474   3.723 -0.0161 -2.4925 -0.2755
81879SOL    HW257363   0.425   0.538   3.595 -0.8844  0.0119  1.2347
81880SOL     OW57364   9.629  12.771  10.751  0.2468  0.0575  0.1348
81880SOL    HW157365   9.687  12.767  10.675 -0.3116 -0.5337 -0.2819
81880SOL    HW257366   9.679  12.731  10.822  0.4878 -0.1020 -0.1245
81881SOL     OW57367   1.599  10.017  12.099 -0.1994  0.4513 -0.2348
81881SOL    HW157368   1.636   9.997  12.013  2.1037  1.6752  0.3944
81881SOL    HW257369   1.649   9.962  12.159 -0.7475  0.7284  0.4815
81882SOL     OW57370  10.291   4.087   6.333 -0.0624 -0.0364 -0.0784
81882SOL    HW157371  10.311   4.139   6.255 -0.4342  0.2372  0.0089
81882SOL    HW257372  10.313   3.997   6.307  0.2412  0.1098 -0.3480
81883SOL     OW57373   3.150   1.393  11.166 -0.5014 -0.2735 -0.4699
81883SOL    HW157374   3.241   1.416  11.152 -0.5399 -0.4193 -0.9891
81883SOL    HW257375   3.136   1.405  11.260 -0.1928  0.6097 -0.5315
81884SOL     OW57376   2.036   6.869   8.046 -0.0687  0.3221  0.2247
81884SOL    HW157377   2.096   6.922   7.994 -0.8601  0.1853 -0.8549
81884SOL    HW257378   1.978   6.932   8.089  1.2420  0.4997  1.8438
81885SOL     OW57379   3.066   3.689   4.181  0.3066  0.5926 -0.5546
81885SOL    HW157380   3.139   3.662   4.125  0.9131 -0.0924  0.5253
81885SOL    HW257381   3.016   3.609   4.196  0.3536  0.6865  0.1506
81886SOL     OW57382   6.398   5.000  12.733 -0.3135 -0.1505 -0.0060
81886SOL    HW157383   6.313   5.043  12.738 -0.1820  0.1157 -0.0509
81886SOL    HW257384   6.398   4.956  12.648 -0.9230 -1.2482  0.5382
81887SOL     OW57385   2.990   3.348   6.175  0.2095 -0.0290 -0.0462
81887SOL    HW157386   2.967   3.257   6.193 -0.5836  0.1429 -0.1589
81887SOL    HW257387   2.906   3.392   6.159  0.6071  0.6469 -0.3407
81888SOL     OW57388   1.202   0.513   7.292  0.2761  0.6384 -0.2436
81888SOL    HW157389   1.115   0.549   7.277  0.1382  1.0285  1.2963
81888SOL    HW257390   1.229   0.479   7.207 -0.7374  1.8996 -1.1162
81889SOL     OW57391   8.055  11.360   3.826  0.2443  0.0607  0.6283
81889SOL    HW157392   8.065  11.451   3.852  2.1481 -0.2587  1.1986
81889SOL    HW257393   7.969  11.356   3.783  0.0737  2.0717  0.6914
81890SOL     OW57394  12.964   6.975   5.627 -0.6501  0.2513 -0.4409
81890SOL    HW157395  12.961   6.884   5.595  3.0879  0.3319 -1.5000
81890SOL    HW257396  12.917   6.972   5.710 -4.2783 -1.6348 -2.2648
81891SOL     OW57397   4.441   0.679   1.398 -0.5547  0.1493  0.6664
81891SOL    HW157398   4.387   0.724   1.333 -1.1053 -0.9888  0.3179
81891SOL    HW257399   4.460   0.746   1.464 -0.5576  1.1408 -0.3056
81892SOL     OW57400   3.235   5.176  11.184  0.5532  0.0709  0.4966
81892SOL    HW157401   3.278   5.191  11.100 -0.3067  1.5478  0.2788
81892SOL    HW257402   3.294   5.116  11.231  1.6084  0.1203 -0.7070
81893SOL     OW57403   5.441   7.031  11.028 -0.3438  0.2160 -0.4297
81893SOL    HW157404   5.443   6.942  11.064  0.8655  0.0546 -0.8416
81893SOL    HW257405   5.436   7.018  10.933 -0.4257  0.5916 -0.4797
81894SOL     OW57406   6.011   2.273  12.730 -0.3495  0.1561 -0.0923
81894SOL    HW157407   6.068   2.198  12.744 -1.1669 -0.7458 -1.3165
81894SOL    HW257408   5.981   2.298  12.817  1.3149  0.2018  0.5026
81895SOL     OW57409   7.340  13.136   1.221 -0.3836  0.0882  0.2945
81895SOL    HW157410   7.321  13.215   1.171  0.1178  0.3585  0.5188
81895SOL    HW257411   7.364  13.168   1.308 -0.6563 -0.3418  0.5299
81896SOL     OW57412  11.821   0.998   0.298  0.0757 -0.3666 -0.1998
81896SOL    HW157413  11.831   1.082   0.254 -1.6124  0.5984  1.1558
81896SOL    HW257414  11.753   1.013   0.364 -0.2143 -2.7751  0.1342
81897SOL     OW57415   1.975  12.033   4.883  0.1867  0.6395  0.3686
81897SOL    HW157416   2.020  12.095   4.940  0.6526  1.0622 -0.4440
81897SOL    HW257417   1.972  11.951   4.933  2.4762  0.3878  0.1781
81898SOL     OW57418  12.552   4.506   2.629 -0.0379  0.1591  0.1834
81898SOL    HW157419  12.511   4.567   2.568 -0.0429 -0.1486 -0.1261
81898SOL    HW257420  12.622   4.555   2.670  0.4228  0.1599 -0.5911
81899SOL     OW57421   8.459   1.919   5.258 -0.0043  0.0955 -0.8125
81899SOL    HW157422   8.491   1.882   5.175 -2.0022  0.5904 -1.8634
81899SOL    HW257423   8.368   1.944   5.240 -0.7432 -0.4525  1.7585
81900SOL     OW57424  12.816  10.920  10.750 -0.9857 -0.2959 -1.0276
81900SOL    HW157425  12.794  10.835  10.787 -1.2296 -0.2352 -1.0308
81900SOL    HW257426  12.761  10.982  10.799  1.6443  0.3087  1.4536
81901SOL     OW57427   0.071  11.163  10.717 -0.0571 -0.1470  0.6895
81901SOL    HW157428  -0.013  11.180  10.760 -1.6345 -1.9375 -1.3911
81901SOL    HW257429   0.091  11.072  10.738  0.2587 -0.3771 -0.5040
81902SOL     OW57430  13.552   0.222   1.347  0.2258  0.1523  0.1711
81902SOL    HW157431  13.633   0.268   1.371  0.1563  0.6439 -0.5211
81902SOL    HW257432  13.483   0.275   1.388  0.0790  1.2064 -1.3620
81903SOL     OW57433  11.499   8.793  10.162  0.1935  0.0490  0.2238
81903SOL    HW157434  11.457   8.871  10.126 -1.4967 -1.5005 -1.3705
81903SOL    HW257435  11.436   8.758  10.225 -0.5087 -1.5928 -1.2629
81904SOL     OW57436   2.816   3.032   0.522  0.0029 -0.2822  0.3478
81904SOL    HW157437   2.894   3.043   0.576  0.5518 -2.7840  0.1854
81904SOL    HW257438   2.834   3.084   0.444  1.0041  0.0496  0.7755
81905SOL     OW57439   8.360  11.088  13.080  0.1157 -0.2264 -0.2510
81905SOL    HW157440   8.316  11.031  13.017 -1.1693 -0.2765  0.6763
81905SOL    HW257441   8.408  11.151  13.025  0.1176 -1.0899 -1.2738
81906SOL     OW57442  11.019  13.176  12.775  0.4361  0.3016  0.3584
81906SOL    HW157443  10.934  13.168  12.818  0.2152  0.1691 -0.0866
81906SOL    HW257444  11.060  13.252  12.816  0.5445 -0.2597  1.3127
81907SOL     OW57445   8.185   6.931  12.399  0.3233  0.0053 -0.6480
81907SOL    HW157446   8.118   6.868  12.426 -0.7191  1.0664 -0.6784
81907SOL    HW257447   8.186   6.926  12.303  0.2742 -0.0019 -0.6479
81908SOL     OW57448   1.902   5.866   1.502 -0.3381 -0.1702 -0.2148
81908SOL    HW157449   1.864   5.842   1.418 -0.7384 -0.5857  0.0772
81908SOL    HW257450   1.956   5.791   1.527  0.9939  0.5502 -0.7870
81909SOL     OW57451  10.195   4.334   2.075 -0.4775 -0.3068  0.0998
81909SOL    HW157452  10.199   4.333   1.980 -1.4378 -0.3812  0.0483
81909SOL    HW257453  10.167   4.246   2.100 -2.7341  0.3805  0.2761
81910SOL     OW57454   3.442   6.305  11.870 -0.2794  0.0018 -0.0848
81910SOL    HW157455   3.412   6.326  11.781 -0.5248  1.0387  0.2325
81910SOL    HW257456   3.394   6.225  11.892  0.2572 -0.6373 -1.1123
81911SOL     OW57457   2.722   4.017   2.943 -0.6634  0.2322 -0.8162
81911SOL    HW157458   2.686   3.993   2.858 -1.0641 -0.9952 -0.3300
81911SOL    HW257459   2.816   4.007   2.934 -0.6392  0.9020 -1.3429
81912SOL     OW57460  10.203  13.052  11.371  0.1233 -1.0706 -0.2066
81912SOL    HW157461  10.141  12.993  11.328  2.0468 -2.4557 -1.2304
81912SOL    HW257462  10.216  13.123  11.308 -1.6126  0.1290  0.7086
81913SOL     OW57463  13.566  12.698  12.927 -0.2265 -0.1998 -0.1835
81913SOL    HW157464  13.654  12.736  12.936 -0.2592 -0.2647  0.4677
81913SOL    HW257465  13.569  12.619  12.981 -0.0327 -1.3656 -1.8510
81914SOL     OW57466   4.383   1.676  13.114 -0.0985  0.3695 -0.5944
81914SOL    HW157467   4.355   1.747  13.172  0.0380 -0.1333  0.1121
81914SOL    HW257468   4.302   1.635  13.085 -0.2318  1.4553 -1.8753
81915SOL     OW57469   1.963  13.707   3.989  0.0495  0.2728  0.1649
81915SOL    HW157470   2.020  13.731   4.062 -0.8828  1.5244  0.5223
81915SOL    HW257471   1.881  13.755   4.006 -0.8773 -0.9446 -0.6801
81916SOL     OW57472   2.057   8.012   1.455 -0.4687  0.3120 -0.6233
81916SOL    HW157473   1.974   7.972   1.431  0.1814 -1.0895 -0.6007
81916SOL    HW257474   2.088   7.961   1.529 -0.8422  2.4915  1.1496
81917SOL     OW57475  13.464   8.164   8.265 -0.1444 -0.4791  0.0586
81917SOL    HW157476  13.457   8.085   8.318 -3.2233  0.0016  0.5559
81917SOL    HW257477  13.422   8.140   8.182 -0.9091  0.5247  0.1378
81918SOL     OW57478   4.384  11.613   0.303  0.4775  0.0019 -0.5319
81918SOL    HW157479   4.291  11.593   0.311  0.1311  1.6211 -0.0331
81918SOL    HW257480   4.427  11.553   0.364 -0.5245  0.9577  1.1864
81919SOL     OW57481   2.582   1.059   4.169 -0.4241 -0.2339  0.7463
81919SOL    HW157482   2.592   1.051   4.264 -0.8336 -0.9707  0.7338
81919SOL    HW257483   2.488   1.061   4.154 -0.5401 -3.9239  0.1102
81920SOL     OW57484   2.342  10.309  11.003  0.3967 -0.0883 -0.2845
81920SOL    HW157485   2.298  10.241  10.953 -2.8212  1.7658 -0.2224
81920SOL    HW257486   2.313  10.295  11.093  1.0145  0.4318  0.0034
81921SOL     OW57487   4.092   6.360   0.204 -0.4946 -0.2820 -0.1000
81921SOL    HW157488   4.079   6.365   0.299  2.2602 -1.5724  0.4450
81921SOL    HW257489   4.147   6.435   0.183 -0.3464 -0.5024 -0.5220
81922SOL     OW57490  11.421   1.077  12.602  0.7532  0.5104  0.3274
81922SOL    HW157491  11.400   1.095  12.510  0.9838  0.4826  0.2701
81922SOL    HW257492  11.373   1.143  12.651  1.4124  1.1437  0.1325
81923SOL     OW57493  13.214   5.629   4.632 -0.6606 -0.7186  0.1223
81923SOL    HW157494  13.281   5.685   4.673 -0.1203 -2.3739  1.6724
81923SOL    HW257495  13.135   5.647   4.682 -1.0848  0.3233 -0.8961
81924SOL     OW57496   1.126  12.405  12.249 -0.0132  0.0469 -0.4235
81924SOL    HW157497   1.167  12.491  12.247 -1.1266  0.6327  0.5687
81924SOL    HW257498   1.150  12.369  12.334 -0.3918 -0.1886 -0.4114
81925SOL     OW57499   8.515  10.390   6.502  0.0007  0.6049 -0.4535
81925SOL    HW157500   8.566  10.429   6.573 -0.5914 -0.8440  0.8264
81925SOL    HW257501   8.426  10.423   6.517 -0.1658  0.1267 -0.4016
81926SOL     OW57502   1.275   3.925   0.215 -0.8631  0.3494 -0.0618
81926SOL    HW157503   1.346   3.974   0.255 -0.8486  0.4704 -0.2365
81926SOL    HW257504   1.267   3.846   0.269 -2.6678  1.7597  1.8718
81927SOL     OW57505  11.280   2.514   7.131  0.1323 -0.0159 -0.2151
81927SOL    HW157506  11.201   2.542   7.178  1.3921 -1.1111  2.7674
81927SOL    HW257507  11.252   2.436   7.082 -1.5450  1.9293 -2.6116
81928SOL     OW57508  12.517  11.857  11.334 -0.0695  0.2521  0.1242
81928SOL    HW157509  12.505  11.767  11.361 -0.4986 -0.0064 -0.8618
81928SOL    HW257510  12.435  11.900  11.355 -0.0817  0.2646  0.0541
81929SOL     OW57511  12.779   6.711  13.013 -0.2670  0.9180 -0.4976
81929SOL    HW157512  12.694   6.753  13.026 -0.0533  1.2609 -0.1832
81929SOL    HW257513  12.817   6.757  12.938  0.5855  2.3127  0.7298
81930SOL     OW57514  13.442  10.180   4.925 -0.1738 -0.1424  0.4037
81930SOL    HW157515  13.456  10.112   4.859 -0.0200  0.5772 -0.3211
81930SOL    HW257516  13.483  10.145   5.005  0.7429 -0.4803 -0.2027
81931SOL     OW57517  12.194   6.395   1.692 -0.2470  0.1146  0.6218
81931SOL    HW157518  12.289   6.397   1.676 -0.6164  0.2453 -1.8786
81931SOL    HW257519  12.185   6.429   1.781  1.9774  1.0455  0.5777
81932SOL     OW57520  11.858   5.170   4.902  0.4096 -0.4670  0.1265
81932SOL    HW157521  11.800   5.228   4.852  0.4445  1.2413  1.9361
81932SOL    HW257522  11.881   5.101   4.840 -2.6702 -0.6468 -1.0030
81933SOL     OW57523   6.465   0.943   0.916  0.0907  0.1046 -0.5715
81933SOL    HW157524   6.372   0.917   0.917 -0.0695  0.6622  1.0128
81933SOL    HW257525   6.469   1.019   0.974  1.8210 -0.9030  0.7049
81934SOL     OW57526   6.130   6.921   0.826  0.1415  0.4377  0.4238
81934SOL    HW157527   6.106   7.012   0.807  0.2690  0.2193 -0.8972
81934SOL    HW257528   6.127   6.878   0.741 -1.0390 -1.0754  1.1778
81935SOL     OW57529   2.136   5.730  11.708  0.1700  0.2972 -0.1036
81935SOL    HW157530   2.100   5.677  11.779  0.3481 -0.3817 -0.5175
81935SOL    HW257531   2.098   5.817  11.722 -1.0041 -0.2014 -0.0655
81936SOL     OW57532  13.028   6.266  11.591 -0.1903 -0.0041  0.0148
81936SOL    HW157533  12.942   6.245  11.554  0.4162 -1.0390 -0.8816
81936SOL    HW257534  13.069   6.180  11.607  0.7271  0.4696  0.2959
81937SOL     OW57535   1.048   3.678   4.791  0.2161  0.3132  0.1337
81937SOL    HW157536   1.105   3.738   4.839  0.3542 -0.8767  1.5330
81937SOL    HW257537   1.096   3.657   4.711  0.3444  1.7158 -0.1793
81938SOL     OW57538   2.577  11.261   0.509  0.1366  0.3848  0.1600
81938SOL    HW157539   2.495  11.239   0.553 -0.0006  1.8904  0.7176
81938SOL    HW257540   2.613  11.176   0.482 -1.2044 -0.3587  0.5990
81939SOL     OW57541  10.823   5.407   0.024  0.2477 -0.3101  0.3624
81939SOL    HW157542  10.886   5.385  -0.044 -1.6571  1.2006 -2.0329
81939SOL    HW257543  10.740   5.372  -0.008 -0.5447 -0.4456  2.4241
81940SOL     OW57544   2.048  12.650  13.284 -0.0543 -0.3041 -0.0830
81940SOL    HW157545   2.045  12.660  13.189  2.6149 -1.5230 -0.3792
81940SOL    HW257546   1.985  12.581  13.302 -1.2666  0.5635 -0.8091
81941SOL     OW57547  10.741  12.868   1.469 -0.0929 -0.4067  0.0111
81941SOL    HW157548  10.775  12.801   1.528 -0.0052 -1.8118 -1.5808
81941SOL    HW257549  10.730  12.946   1.525  2.5131 -0.8573  1.2915
81942SOL     OW57550   2.760   2.017  10.965  0.7355 -0.0855 -0.0287
81942SOL    HW157551   2.816   2.091  10.943  0.1217  0.9526  1.6970
81942SOL    HW257552   2.752   1.967  10.883  3.5496  0.1031 -0.5140
81943SOL     OW57553  10.882  10.053   0.545  0.6441  0.4504 -0.2192
81943SOL    HW157554  10.953  10.004   0.585 -0.0623 -1.1268 -0.8060
81943SOL    HW257555  10.874  10.016   0.457 -1.2734  0.1465  0.0368
81944SOL     OW57556   1.427  13.185   4.544 -0.0758 -0.0136 -0.1065
81944SOL    HW157557   1.346  13.217   4.504  0.5527  0.1450 -1.3018
81944SOL    HW257558   1.479  13.152   4.470  0.6940 -0.6855  0.7142
81945SOL     OW57559   5.537  13.583  11.538  0.3582  0.0218  0.2132
81945SOL    HW157560   5.559  13.669  11.502  0.1387 -0.2704 -0.6540
81945SOL    HW257561   5.569  13.585  11.628 -2.1840  2.0539  1.2119
81946SOL     OW57562   1.879  10.129  10.102 -0.0921  0.7572  0.1741
81946SOL    HW157563   1.943  10.191  10.137 -0.1271  0.9599 -0.1197
81946SOL    HW257564   1.877  10.146  10.008 -0.4163  0.6042  0.1497
81947SOL     OW57565   8.812  11.621   9.865 -0.2622  0.4578  0.3654
81947SOL    HW157566   8.902  11.599   9.842 -0.2413  0.0249  0.8561
81947SOL    HW257567   8.760  11.549   9.830 -0.5720  1.3431 -1.0747
81948SOL     OW57568   0.828   9.747   0.696 -0.0785  0.4023  0.3980
81948SOL    HW157569   0.871   9.830   0.677 -1.5397  1.0765 -0.1707
81948SOL    HW257570   0.788   9.760   0.782 -1.1694  0.7092 -0.1226
81949SOL     OW57571   8.593   3.747   2.816  0.1509  0.7934 -0.1831
81949SOL    HW157572   8.588   3.753   2.912 -0.4478 -1.4404 -0.0383
81949SOL    HW257573   8.663   3.808   2.793 -1.3118  3.2458  1.4092
81950SOL     OW57574  13.487   1.115   3.823  0.0295  0.0250  0.0846
81950SOL    HW157575  13.463   1.098   3.914 -0.2149 -1.0589 -0.1690
81950SOL    HW257576  13.579   1.089   3.818  0.6327  1.9793  0.4931
81951SOL     OW57577   2.632   0.186   5.445  0.1897 -0.4813 -0.2205
81951SOL    HW157578   2.694   0.127   5.488  0.2784 -0.4127 -0.2531
81951SOL    HW257579   2.592   0.236   5.516  1.4078  0.6758 -0.3085
81952SOL     OW57580   9.173  11.832   8.802 -0.2848 -0.2011  0.6970
81952SOL    HW157581   9.114  11.874   8.739  0.1489 -1.0714 -0.3088
81952SOL    HW257582   9.232  11.902   8.829 -1.3374  0.5182  1.2067
81953SOL     OW57583   2.367   4.169   7.647 -0.3258  0.0060  0.1140
81953SOL    HW157584   2.291   4.116   7.672  1.2008 -2.8758 -0.8566
81953SOL    HW257585   2.422   4.170   7.725 -0.6537  0.7710  0.3399
81954SOL     OW57586   4.720   5.839   2.786  0.1729  0.4644 -0.0506
81954SOL    HW157587   4.675   5.896   2.724 -0.4515 -0.7989 -0.7795
81954SOL    HW257588   4.681   5.753   2.773  1.7069 -0.3362  0.4112
81955SOL     OW57589  11.098   7.933   6.536  0.0082 -0.8389 -0.3724
81955SOL    HW157590  11.170   7.992   6.555  0.0607 -0.4792 -1.6101
81955SOL    HW257591  11.034   7.950   6.605  0.9173 -0.8674  0.4929
81956SOL     OW57592   7.848   4.827  11.446  0.0687  0.4107  0.0088
81956SOL    HW157593   7.783   4.805  11.513  1.4890 -1.3373  0.8928
81956SOL    HW257594   7.910   4.754  11.448  1.8858  1.8478 -1.0148
81957SOL     OW57595  10.080   7.147   2.397 -0.1321  0.3529  0.1147
81957SOL    HW157596  10.173   7.137   2.378  0.1255  1.5806  0.5901
81957SOL    HW257597  10.036   7.132   2.314  0.6685  1.8787 -0.6143
81958SOL     OW57598   1.056   1.325   0.570  0.3111  0.1254 -0.1036
81958SOL    HW157599   1.151   1.336   0.576  0.4008  0.1722 -1.4396
81958SOL    HW257600   1.036   1.260   0.638  1.5799 -1.4037 -1.1239
81959SOL     OW57601  11.986   5.592   6.002  0.2323 -1.0072  0.3681
81959SOL    HW157602  12.016   5.680   6.021 -2.5498  0.4670 -1.3788
81959SOL    HW257603  12.050   5.558   5.939  0.6489  0.2318  0.1002
81960SOL     OW57604  12.078  10.078   6.388 -0.0475 -0.5152  0.6963
81960SOL    HW157605  12.008  10.029   6.431 -1.0403  0.0558 -0.2050
81960SOL    HW257606  12.079  10.046   6.298 -0.0734  0.4311  0.3415
81961SOL     OW57607  11.920   4.885   8.375 -0.0132 -0.0140  0.4233
81961SOL    HW157608  11.860   4.869   8.449  0.3260 -1.4823  0.4141
81961SOL    HW257609  11.904   4.811   8.316  0.3967  0.6493 -0.5231
81962SOL     OW57610   6.868   1.434  11.224 -0.3636  0.4059 -0.2631
81962SOL    HW157611   6.817   1.440  11.143 -1.1942  1.7075  0.3293
81962SOL    HW257612   6.905   1.521  11.236  0.9088 -0.1598  0.0398
81963SOL     OW57613  13.531   9.622   5.635 -0.1939  0.0958 -0.0660
81963SOL    HW157614  13.475   9.551   5.665  1.3237 -1.0654  0.0978
81963SOL    HW257615  13.548   9.674   5.713  0.2507 -0.4533  0.1991
81964SOL     OW57616   5.775   9.728  10.582 -0.7679  0.1099 -0.1956
81964SOL    HW157617   5.771   9.793  10.512 -0.9573  0.9656  0.5910
81964SOL    HW257618   5.783   9.780  10.663  1.5594 -0.8904  0.2860
81965SOL     OW57619   0.146   7.734   3.235  0.2617 -0.2422  0.5069
81965SOL    HW157620   0.183   7.659   3.188 -0.5835 -0.5891  0.3763
81965SOL    HW257621   0.222   7.780   3.270  0.8690 -0.3923 -0.5680
81966SOL     OW57622   7.503   7.573  11.871 -0.1625 -0.2927  0.6903
81966SOL    HW157623   7.481   7.589  11.963  1.2335  0.6358  0.9011
81966SOL    HW257624   7.461   7.644  11.824 -0.6882 -0.6385  0.6330
81967SOL     OW57625  11.623  12.387   9.048  0.7814 -0.1287 -0.4294
81967SOL    HW157626  11.674  12.453   9.000  0.4653  0.3592 -0.0931
81967SOL    HW257627  11.533  12.403   9.021  0.7144 -0.4916 -0.4211
81968SOL     OW57628   8.523   6.746  13.661 -0.3666 -0.6799  0.7260
81968SOL    HW157629   8.467   6.687  13.611 -0.9059 -1.0699  1.7739
81968SOL    HW257630   8.487   6.745  13.749  0.0615  0.6565  0.9390
81969SOL     OW57631   3.504  13.458   1.298  0.5230 -0.4390  0.2890
81969SOL    HW157632   3.460  13.542   1.314 -1.1290 -0.4787 -3.2033
81969SOL    HW257633   3.595  13.474   1.326 -0.3708  1.5115  2.4275
81970SOL     OW57634   8.645   0.018   2.522 -0.1698 -0.3063  0.2619
81970SOL    HW157635   8.737  -0.002   2.506 -0.1848 -0.3269  0.1968
81970SOL    HW257636   8.611   0.044   2.436  0.0060  0.6181  0.4640
81971SOL     OW57637   5.262   5.554   8.359 -0.1232 -0.3263  0.0545
81971SOL    HW157638   5.186   5.592   8.314  0.3976  0.0734 -0.5113
81971SOL    HW257639   5.233   5.467   8.386 -0.8260 -0.1252 -0.0287
81972SOL     OW57640   5.260   0.202   4.476  0.3218  0.2197  0.3201
81972SOL    HW157641   5.314   0.257   4.532  1.0439  1.9513 -1.9660
81972SOL    HW257642   5.198   0.262   4.435 -0.8847 -1.1552  0.0280
81973SOL     OW57643   5.826  12.676   2.780  0.0273 -0.0994 -0.2661
81973SOL    HW157644   5.758  12.743   2.772  0.6067  0.4227 -1.0160
81973SOL    HW257645   5.902  12.713   2.733  1.4237  0.0981  1.9980
81974SOL     OW57646   7.450   4.020  13.558 -0.0465  0.8352 -0.2484
81974SOL    HW157647   7.504   3.964  13.614 -0.5252  1.1724  0.5645
81974SOL    HW257648   7.368   3.972  13.548 -0.1196  0.9735 -0.3138
81975SOL     OW57649   5.928   3.875  12.282  0.2834  0.3650 -0.1458
81975SOL    HW157650   5.911   3.916  12.367  0.2278  0.5513 -0.2464
81975SOL    HW257651   5.897   3.785  12.292  0.3780  0.3553  0.0658
81976SOL     OW57652   8.510   0.110   7.336 -0.2074 -0.0573  0.2958
81976SOL    HW157653   8.427   0.157   7.350 -0.2415 -0.4526  1.5996
81976SOL    HW257654   8.573   0.179   7.316 -0.3708  0.5159  1.6367
81977SOL     OW57655   5.775  10.613  12.788  0.0562 -0.2674  0.1902
81977SOL    HW157656   5.756  10.705  12.803  2.9428  0.3706  0.5514
81977SOL    HW257657   5.803  10.580  12.874  0.4464 -1.1105 -0.2472
81978SOL     OW57658   0.539  11.792  10.879 -0.0544 -0.2307  0.3977
81978SOL    HW157659   0.555  11.837  10.796  1.9951  0.1777  0.9659
81978SOL    HW257660   0.512  11.704  10.853  0.1333  0.0209 -0.7035
81979SOL     OW57661   9.469   7.900   1.186  0.2185 -0.0108 -0.3627
81979SOL    HW157662   9.470   7.953   1.266 -2.8133 -2.2238  1.3344
81979SOL    HW257663   9.553   7.854   1.187  1.3187  1.8789  0.0906
81980SOL     OW57664   1.546   6.223   5.511 -0.2351  0.6712 -0.2454
81980SOL    HW157665   1.455   6.207   5.534 -0.4482  1.3386 -0.5915
81980SOL    HW257666   1.593   6.225   5.594 -0.9688  2.9623  0.1904
81981SOL     OW57667   5.303   5.969   8.871  0.1836 -0.0696  0.0415
81981SOL    HW157668   5.354   5.926   8.802 -0.1737  1.7786 -1.4603
81981SOL    HW257669   5.224   5.917   8.879  0.4823 -0.6313 -0.5455
81982SOL     OW57670   5.453   3.218   6.315 -0.6143  0.2727  0.1734
81982SOL    HW157671   5.363   3.185   6.324 -0.9731  0.4105 -2.3524
81982SOL    HW257672   5.444   3.313   6.307 -0.1644  0.3560  0.5719
81983SOL     OW57673   9.330  12.119  13.538 -0.0741 -0.5516 -0.3708
81983SOL    HW157674   9.264  12.051  13.524  0.1150 -0.6344 -0.8680
81983SOL    HW257675   9.413  12.073  13.530  0.0786 -0.7845  1.8204
81984SOL     OW57676  10.531  11.268   5.920  0.3358 -0.4960  0.0752
81984SOL    HW157677  10.515  11.349   5.872 -1.1494 -0.9626 -0.2622
81984SOL    HW257678  10.502  11.198   5.861 -1.4968 -1.0938  1.5625
81985SOL     OW57679   9.252   7.336  12.444 -0.0790 -0.6155 -0.4813
81985SOL    HW157680   9.284   7.375  12.525 -0.1171 -0.8681 -0.3418
81985SOL    HW257681   9.170   7.293  12.468 -1.3092  1.2422 -1.1331
81986SOL     OW57682   7.662   8.597   2.521  0.0332  0.4744 -0.0604
81986SOL    HW157683   7.589   8.586   2.581 -0.6544 -2.2915 -1.2579
81986SOL    HW257684   7.632   8.663   2.458  0.0673  2.0517  1.4911
81987SOL     OW57685   6.834  13.046  10.699  0.1016  0.8429  0.0946
81987SOL    HW157686   6.757  13.060  10.755 -1.5855 -0.6075 -1.7070
81987SOL    HW257687   6.863  12.958  10.721  1.9153  1.7026  1.4154
81988SOL     OW57688   3.063   9.239   2.638  0.3599 -0.5774 -0.2140
81988SOL    HW157689   3.029   9.280   2.559  1.6375  0.5481 -0.2202
81988SOL    HW257690   3.143   9.288   2.658  0.1725 -0.9645  1.6666
81989SOL     OW57691   3.807   6.345   0.236  0.6387  0.1031  0.5986
81989SOL    HW157692   3.761   6.296   0.168  0.0403  1.2011  0.1743
81989SOL    HW257693   3.897   6.349   0.206  0.2393  1.2521 -0.5856
81990SOL     OW57694   1.740   7.985   1.720 -0.2405  0.2610 -0.0203
81990SOL    HW157695   1.822   8.034   1.730  0.2475 -0.5472  0.0439
81990SOL    HW257696   1.698   8.024   1.644  0.8694 -0.2130 -0.9108
81991SOL     OW57697   4.788  12.092   8.605  0.3664 -0.0609 -0.0090
81991SOL    HW157698   4.717  12.038   8.640  0.8820 -0.6970  0.0588
81991SOL    HW257699   4.828  12.133   8.682  0.8607 -0.6731  0.0620
81992SOL     OW57700  12.161  10.995   3.464  0.0987 -0.3501  0.1463
81992SOL    HW157701  12.229  10.994   3.396 -0.9162 -1.8911 -0.9093
81992SOL    HW257702  12.146  11.088   3.481  0.5991  0.0668 -1.5263
81993SOL     OW57703  12.619   3.718  11.637  0.8098 -1.1118  0.2911
81993SOL    HW157704  12.575   3.662  11.701  0.7976  1.3669  2.5961
81993SOL    HW257705  12.586   3.687  11.552 -1.3163 -2.7316  1.5880
81994SOL     OW57706  11.775   0.232   8.777 -0.5809 -0.2586 -0.3001
81994SOL    HW157707  11.719   0.169   8.823  0.1138  0.0699  1.0471
81994SOL    HW257708  11.863   0.193   8.782  0.1261  1.3738  1.7756
81995SOL     OW57709  10.551   4.692   1.899 -0.0964  0.5909  0.4841
81995SOL    HW157710  10.545   4.779   1.939 -0.6173  0.1282  1.4358
81995SOL    HW257711  10.558   4.709   1.805  2.0099  1.7429  0.7842
81996SOL     OW57712  11.152   4.471  11.821 -0.5851  0.5097 -0.0250
81996SOL    HW157713  11.224   4.428  11.775  0.0377  0.9834  0.4945
81996SOL    HW257714  11.195   4.533  11.880 -1.2944 -0.7964  1.9668
81997SOL     OW57715  13.670  11.034   0.232  0.1448  0.3226  0.4679
81997SOL    HW157716  13.701  10.945   0.247 -2.1213 -0.4836  0.7189
81997SOL    HW257717  13.606  11.050   0.301 -3.3501  0.1143 -2.3811
81998SOL     OW57718   0.881   2.823   4.950 -0.0344  0.5013  0.2881
81998SOL    HW157719   0.944   2.786   5.012 -1.3420 -1.8258  0.3389
81998SOL    HW257720   0.926   2.821   4.866 -0.0069 -1.1330  0.3245
81999SOL     OW57721  11.333   1.129  11.700  0.4965  0.1462  0.0707
81999SOL    HW157722  11.298   1.094  11.618  1.0735  0.1875 -0.1978
81999SOL    HW257723  11.399   1.065  11.727  1.3984  0.8970 -0.3046
82000SOL     OW57724   1.753  10.394  10.562  0.3861  0.1540  0.1353
82000SOL    HW157725   1.839  10.431  10.582  0.8937 -1.4028  1.0600
82000SOL    HW257726   1.698  10.469  10.542  1.8988  1.2055 -0.2196
82001SOL     OW57727   5.883   1.255  10.312  0.1905  0.3798  0.4365
82001SOL    HW157728   5.854   1.173  10.352  0.7911  0.7225  1.6084
82001SOL    HW257729   5.882   1.319  10.383  0.7554  1.1485 -0.2229
82002SOL     OW57730   7.124  12.879  11.338 -0.7332  0.3258 -0.2182
82002SOL    HW157731   7.205  12.893  11.290 -0.7729 -0.6456 -0.6026
82002SOL    HW257732   7.063  12.844  11.273 -0.3282 -2.5122  0.7650
82003SOL     OW57733   4.312   7.652   5.780 -0.0232  0.7602  0.7590
82003SOL    HW157734   4.336   7.687   5.866  1.0546 -0.2718  0.9154
82003SOL    HW257735   4.252   7.580   5.800 -0.0546  0.7480  0.6225
82004SOL     OW57736   5.137  10.599   2.563 -0.1232 -0.6486 -0.3143
82004SOL    HW157737   5.217  10.585   2.512 -0.3100  0.2894 -0.8953
82004SOL    HW257738   5.071  10.625   2.497 -1.0237 -1.8279  0.0947
82005SOL     OW57739   8.061  12.365  13.162 -0.8816 -0.0786  0.6852
82005SOL    HW157740   8.026  12.285  13.202  0.7963 -1.3000 -0.1291
82005SOL    HW257741   8.155  12.360  13.178  0.0538 -1.0235 -3.8151
82006SOL     OW57742  11.115   2.066   0.966 -0.0073  0.2958  0.0767
82006SOL    HW157743  11.112   2.140   0.905  0.4573  0.0880 -0.2005
82006SOL    HW257744  11.024   2.055   0.994 -0.0025  1.3599  0.5848
82007SOL     OW57745   0.205  10.157   4.164 -0.5389 -0.2887 -0.3896
82007SOL    HW157746   0.115  10.190   4.153 -0.0136  2.1870  1.6881
82007SOL    HW257747   0.197  10.088   4.229 -1.1517 -1.6521 -1.8422
82008SOL     OW57748   7.914   8.950   6.277 -0.0453 -0.3348 -0.0117
82008SOL    HW157749   7.820   8.941   6.291 -0.1682  0.5256 -0.2456
82008SOL    HW257750   7.922   8.968   6.183  0.3072  0.1938  0.1162
82009SOL     OW57751   0.750   7.767   3.772 -0.2034  0.1253 -0.0841
82009SOL    HW157752   0.789   7.764   3.684  1.9658  2.5767  0.6910
82009SOL    HW257753   0.748   7.859   3.794  1.2944 -0.5163  3.2753
82010SOL     OW57754   2.601   2.357  13.302 -0.2139 -0.1675  0.1397
82010SOL    HW157755   2.573   2.367  13.393  1.8203  0.5427  0.7409
82010SOL    HW257756   2.691   2.326  13.309  0.7349  1.9881 -1.5936
82011SOL     OW57757  11.087  11.968   9.488 -0.2100  0.4102  0.3396
82011SOL    HW157758  11.149  11.906   9.527  0.5168  0.8083 -0.1436
82011SOL    HW257759  11.131  11.998   9.408 -2.2084 -1.4180 -1.5826
82012SOL     OW57760  12.895   3.201   2.234 -0.0608  0.1199  0.4794
82012SOL    HW157761  12.815   3.229   2.190  1.2619  2.3549 -0.7052
82012SOL    HW257762  12.868   3.179   2.323 -2.2168 -0.9033 -0.3643
82013SOL     OW57763  12.190  13.307   4.147  0.4956 -0.4599  0.0832
82013SOL    HW157764  12.187  13.367   4.072 -0.8447  1.1665  1.3471
82013SOL    HW257765  12.130  13.236   4.123  0.4987 -0.2390 -0.6143
82014SOL     OW57766  11.327   6.426   0.258 -0.4643  0.4209  0.4024
82014SOL    HW157767  11.340   6.461   0.170 -0.2611  1.9640  1.0247
82014SOL    HW257768  11.362   6.493   0.316 -2.1583  0.2131  1.7357
82015SOL     OW57769   1.197   7.594   8.744  0.3968 -0.8198 -0.2916
82015SOL    HW157770   1.108   7.589   8.711 -0.3925  3.0070  0.7108
82015SOL    HW257771   1.251   7.605   8.666 -0.2724 -1.0339 -0.7908
82016SOL     OW57772   6.360   0.671   2.316 -0.2283 -0.2330  0.1526
82016SOL    HW157773   6.322   0.656   2.402 -0.0888  0.8661  0.4297
82016SOL    HW257774   6.450   0.698   2.334 -0.2469  0.1651 -0.3226
82017SOL     OW57775  13.282   5.074   1.209  0.5539 -0.2539 -0.4215
82017SOL    HW157776  13.351   5.042   1.151  1.0043 -0.2346  0.0906
82017SOL    HW257777  13.225   5.126   1.153  1.6339  0.7488 -0.6266
82018SOL     OW57778   3.023   5.592   9.234  0.4458 -0.1314 -0.4381
82018SOL    HW157779   3.056   5.679   9.213  2.5290 -0.7588 -0.0015
82018SOL    HW257780   3.099   5.534   9.224  0.5669 -1.1837  4.0720
82019SOL     OW57781  13.202   7.562   6.380  0.2431  0.2028  0.2058
82019SOL    HW157782  13.275   7.513   6.342 -0.3042 -0.3077 -0.2014
82019SOL    HW257783  13.131   7.498   6.387  0.4554  0.1367  2.5429
82020SOL     OW57784   2.318   8.013   7.291 -0.4877 -0.0266  0.0029
82020SOL    HW157785   2.373   7.945   7.252 -1.6720 -0.7412 -0.4831
82020SOL    HW257786   2.231   7.998   7.253 -0.7271  1.9276 -0.3070
82021SOL     OW57787  11.360   5.901   7.777 -0.0953 -0.2137 -0.3079
82021SOL    HW157788  11.300   5.954   7.725 -1.5987  0.4666  1.9604
82021SOL    HW257789  11.312   5.820   7.794  0.5459 -0.6033 -0.3225
82022SOL     OW57790  13.200  11.013   9.024  0.3230 -0.6018 -0.2049
82022SOL    HW157791  13.267  10.945   9.031 -0.0231 -1.0452 -1.0488
82022SOL    HW257792  13.163  11.019   9.113  0.1632 -1.7237 -0.1755
82023SOL     OW57793   2.998   9.065   2.056 -0.7727 -0.5438 -0.2824
82023SOL    HW157794   3.032   9.055   1.967 -2.6128 -1.0406 -0.9699
82023SOL    HW257795   3.074   9.094   2.108  0.0044  1.3445 -2.3126
82024SOL     OW57796   0.575   0.956   6.925 -0.0956  0.5871  0.1277
82024SOL    HW157797   0.514   0.921   6.859  0.1298 -1.1874  0.8222
82024SOL    HW257798   0.543   1.045   6.940 -1.2130  0.4434 -1.0967
82025SOL     OW57799   8.714   0.520   0.565 -0.3684  0.3932  0.2530
82025SOL    HW157800   8.619   0.522   0.559 -0.3053 -0.6269 -2.3199
82025SOL    HW257801   8.735   0.429   0.589 -0.0384 -0.9182 -4.1396
82026SOL     OW57802   5.169   7.322  12.454 -0.2835  0.1671  0.0910
82026SOL    HW157803   5.177   7.226  12.456 -0.1065  0.1420  3.2989
82026SOL    HW257804   5.090   7.341  12.504  0.8444  1.7106  1.4218
82027SOL     OW57805   1.669   5.239   2.429  0.3257 -0.0402 -0.4480
82027SOL    HW157806   1.573   5.243   2.432  0.3076  1.3627 -2.0388
82027SOL    HW257807   1.695   5.229   2.521 -1.3156 -0.2059  0.0314
82028SOL     OW57808  13.032   8.440   1.506  0.0258 -0.2747  0.0409
82028SOL    HW157809  12.969   8.424   1.436  1.2577  0.6353 -1.3436
82028SOL    HW257810  13.011   8.527   1.539  0.1751 -0.2272  0.0097
82029SOL     OW57811  12.110  10.003   1.226  0.0668 -0.8432  0.0762
82029SOL    HW157812  12.061  10.075   1.185 -1.1264 -0.6405  1.7578
82029SOL    HW257813  12.163  10.046   1.293  1.0481 -1.3121 -0.3776
82030SOL     OW57814  12.017   8.523   6.655  0.1282  0.1697  0.1913
82030SOL    HW157815  11.936   8.575   6.658 -0.3363 -0.3148 -1.8239
82030SOL    HW257816  12.056   8.546   6.570  0.3738 -2.0383 -0.3461
82031SOL     OW57817   9.136  13.237   6.850 -0.4990 -0.1173  0.3916
82031SOL    HW157818   9.048  13.205   6.870 -0.1894 -0.5388  1.1386
82031SOL    HW257819   9.194  13.177   6.897  0.1565  0.5930  0.5072
82032SOL     OW57820   4.612   9.127   0.339 -0.4231  0.6862 -0.0771
82032SOL    HW157821   4.649   9.131   0.251 -0.1948 -0.0869 -0.0244
82032SOL    HW257822   4.573   9.213   0.353 -1.0527  0.5872 -1.1872
82033SOL     OW57823   1.052   1.300   3.899  0.9607  0.1179  0.4207
82033SOL    HW157824   1.075   1.376   3.953  1.3364 -0.6091  1.2953
82033SOL    HW257825   1.011   1.239   3.960 -0.3867  0.0617 -0.4945
82034SOL     OW57826   2.334   2.301   8.876  0.9415  0.0495  0.2260
82034SOL    HW157827   2.252   2.313   8.925  0.7623  1.9727 -0.4277
82034SOL    HW257828   2.341   2.381   8.824  1.6255 -1.4733 -2.1518
82035SOL     OW57829   7.312  10.730   9.336 -0.2072 -0.5045  0.2832
82035SOL    HW157830   7.372  10.781   9.391 -0.6968  0.1204  0.2518
82035SOL    HW257831   7.311  10.643   9.376  1.1186 -0.6830 -0.0267
82036SOL     OW57832  11.238   8.395   4.973  0.4046 -0.1205 -0.2458
82036SOL    HW157833  11.301   8.448   5.021  0.8230 -1.3998  0.6814
82036SOL    HW257834  11.275   8.307   4.974 -1.7654 -1.1036  1.1035
82037SOL     OW57835   9.948  10.442   6.644  0.6613  0.8546  0.1763
82037SOL    HW157836   9.942  10.379   6.715  0.9015  2.9463  2.1643
82037SOL    HW257837   9.921  10.393   6.566  0.9025 -1.6725  1.5735
82038SOL     OW57838   2.011   0.501  13.598 -0.2114 -0.1479 -0.1833
82038SOL    HW157839   2.104   0.481  13.606 -0.3127 -0.0847  1.3333
82038SOL    HW257840   2.008   0.595  13.579  0.0329 -0.1617 -0.2863
82039SOL     OW57841   6.078   5.384   5.103  0.0344  0.7020 -0.0712
82039SOL    HW157842   5.993   5.377   5.146  1.0014  0.0285  1.8502
82039SOL    HW257843   6.114   5.467   5.134  1.5907 -0.6879  2.2590
82040SOL     OW57844   4.533  13.722   7.892 -0.1970 -0.5238 -0.2954
82040SOL    HW157845   4.511  13.665   7.965  0.8072 -1.4883 -0.7028
82040SOL    HW257846   4.617  13.761   7.915 -0.0028 -0.6232 -0.8045
82041SOL     OW57847  11.553   5.324   7.422  0.0217  0.1172 -0.1251
82041SOL    HW157848  11.549   5.235   7.387  0.6097  0.3226 -0.7453
82041SOL    HW257849  11.590   5.376   7.350  0.0798  0.7828  0.3778
82042SOL     OW57850   5.562  10.451  10.710 -0.2543  0.0700 -0.2843
82042SOL    HW157851   5.620  10.502  10.767  0.8295  2.1250 -2.9782
82042SOL    HW257852   5.475  10.486  10.727  0.2287  1.5695 -0.7363
82043SOL     OW57853   8.760   6.920   3.502 -0.0538 -0.1854  0.3293
82043SOL    HW157854   8.824   6.962   3.560 -0.5383  2.5330 -0.9518
82043SOL    HW257855   8.747   6.833   3.540  2.0207  0.3042  2.4149
82044SOL     OW57856   5.135   6.023   7.630  0.4408  0.0507  0.5535
82044SOL    HW157857   5.190   6.101   7.634  0.3436  0.1681 -0.3130
82044SOL    HW257858   5.192   5.955   7.595  0.2446 -0.0168  0.3615
82045SOL     OW57859  11.819  10.777  11.006 -0.0913  0.7280  0.0267
82045SOL    HW157860  11.877  10.702  11.020 -0.1123  0.8895  1.0381
82045SOL    HW257861  11.770  10.785  11.088  2.7119  4.3373  1.5867
82046SOL     OW57862   7.405   0.254  12.165  0.0344 -0.4448  0.0042
82046SOL    HW157863   7.404   0.175  12.111 -1.6020  0.1047 -0.8374
82046SOL    HW257864   7.438   0.224  12.250  1.2918 -1.6207 -0.8596
82047SOL     OW57865  10.494   6.236  11.957 -0.3117  0.3053 -0.4536
82047SOL    HW157866  10.500   6.210  12.049 -1.1881 -2.2793 -1.0481
82047SOL    HW257867  10.576   6.283  11.940  0.6835 -0.7286  1.1916
82048SOL     OW57868   7.564  12.882  10.323 -0.2619  0.4664  0.2108
82048SOL    HW157869   7.480  12.851  10.290 -0.4557 -1.0334  1.9221
82048SOL    HW257870   7.630  12.834  10.272 -0.5133 -0.3828  0.6716
82049SOL     OW57871   2.998  12.959  11.230  0.4039  0.0540  0.6111
82049SOL    HW157872   2.965  12.918  11.311  0.8317 -0.7112  0.4046
82049SOL    HW257873   2.987  13.053  11.245  1.4719 -0.0064  2.0036
82050SOL     OW57874  13.661   3.040   9.267 -0.3441 -0.0200  0.0829
82050SOL    HW157875  13.664   3.131   9.237  0.9668 -0.1581 -0.2562
82050SOL    HW257876  13.660   2.988   9.187 -2.1659 -0.3225  0.2543
82051SOL     OW57877  12.412   6.021  13.086  0.0748  0.0332 -0.2464
82051SOL    HW157878  12.337   6.017  13.146 -0.2355 -1.1512 -0.6749
82051SOL    HW257879  12.430   6.114  13.076 -1.4660  0.3548 -0.2824
82052SOL     OW57880   9.294   8.779  11.766  0.2941  0.0436 -0.0137
82052SOL    HW157881   9.206   8.803  11.793  0.3871  0.3469  0.0242
82052SOL    HW257882   9.286   8.757  11.674  0.1395 -0.1368  0.0429
82053SOL     OW57883   5.338  12.460   9.760  0.0734 -0.3683 -0.1857
82053SOL    HW157884   5.319  12.511   9.681  0.8573  0.3745  0.0902
82053SOL    HW257885   5.340  12.369   9.730 -3.2459 -0.5102 -0.3578
82054SOL     OW57886   2.083   8.131   0.078  0.3405  0.0737 -0.4147
82054SOL    HW157887   2.157   8.164   0.027  1.2145 -0.0446  0.7380
82054SOL    HW257888   2.009   8.184   0.049  0.7393 -0.2027 -2.0203
82055SOL     OW57889  10.157   5.422   4.275 -0.3423 -0.4484  0.2228
82055SOL    HW157890  10.231   5.420   4.215 -1.6014  1.5124 -1.5663
82055SOL    HW257891  10.115   5.337   4.265  0.9750 -1.1385  0.3718
82056SOL     OW57892   1.344   6.932   3.597 -0.0217  0.1116 -0.0803
82056SOL    HW157893   1.315   6.966   3.513  0.6687  1.6569  0.2689
82056SOL    HW257894   1.337   7.006   3.657  1.6789 -0.2941  0.6852
82057SOL     OW57895   2.484   6.020   9.757 -0.0624 -0.0233 -0.2879
82057SOL    HW157896   2.485   5.950   9.692 -2.0191  0.5160 -0.9670
82057SOL    HW257897   2.414   5.995   9.818  1.1062 -0.0414  1.1164
82058SOL     OW57898   8.205   7.592  12.330 -0.0253 -0.9163  0.5395
82058SOL    HW157899   8.150   7.546  12.266 -1.4549  0.7247  0.5457
82058SOL    HW257900   8.144   7.635  12.389  1.2609  0.5399  0.8812
82059SOL     OW57901  13.163   1.311   0.695  0.7567  0.3716  0.3419
82059SOL    HW157902  13.243   1.361   0.678  0.8673 -0.5838 -2.5251
82059SOL    HW257903  13.173   1.231   0.643 -1.9196  0.1157  0.0724
82060SOL     OW57904   7.027  10.936   8.672  0.4883  0.3009  0.0800
82060SOL    HW157905   7.035  10.996   8.598  1.4320  0.8076  0.5752
82060SOL    HW257906   7.111  10.944   8.718  1.2798 -2.5416 -0.6772
82061SOL     OW57907  11.508   1.206   9.020  0.3658  0.5385  0.2855
82061SOL    HW157908  11.425   1.205   9.067  0.0707 -1.9699 -0.1296
82061SOL    HW257909  11.520   1.115   8.992  2.3122  1.2294 -1.3300
82062SOL     OW57910  10.185   2.011  12.586 -0.0650  0.3001  0.8021
82062SOL    HW157911  10.232   1.928  12.594  1.3328  1.0745  0.9477
82062SOL    HW257912  10.199   2.054  12.671 -1.2103  0.4744  0.9146
82063SOL     OW57913  13.667   2.460   2.429 -0.2633  0.3150  0.6171
82063SOL    HW157914  13.629   2.548   2.441 -0.0760  0.3492  0.9573
82063SOL    HW257915  13.632   2.409   2.502  0.6096  0.4328  1.1273
82064SOL     OW57916   1.805   4.134   5.070  0.5603  0.1894  0.3311
82064SOL    HW157917   1.737   4.130   5.136  0.3121 -0.6598  0.0376
82064SOL    HW257918   1.885   4.107   5.116  0.2943 -0.9006  0.1785
82065SOL     OW57919  10.540   7.565   1.578  0.0513 -0.0890 -0.3602
82065SOL    HW157920  10.469   7.624   1.605  1.2734  0.6402  1.4536
82065SOL    HW257921  10.618   7.600   1.622  1.7227 -0.4255 -2.8787
82066SOL     OW57922   0.230   3.104   4.718  0.5108 -0.1904 -0.5506
82066SOL    HW157923   0.260   3.081   4.806  1.7255  0.2618 -0.8330
82066SOL    HW257924   0.283   3.179   4.693 -1.1468  0.9206 -0.9299
82067SOL     OW57925   7.181   4.763   5.908  0.0019 -0.0480  0.2314
82067SOL    HW157926   7.192   4.842   5.856 -0.4734 -0.0166  0.1723
82067SOL    HW257927   7.186   4.691   5.845  0.3886 -0.0654  0.2790
82068SOL     OW57928   7.758   0.420   4.117 -0.0699  1.0160  0.4348
82068SOL    HW157929   7.745   0.327   4.138  2.4027  0.5213  0.1113
82068SOL    HW257930   7.759   0.463   4.202  1.5822  0.2718  0.8410
82069SOL     OW57931   0.446  13.064   3.675 -0.3028  0.0927 -0.4614
82069SOL    HW157932   0.515  13.089   3.737 -0.5655  0.5957 -0.3723
82069SOL    HW257933   0.380  13.132   3.683 -1.0568 -0.6569 -0.1754
82070SOL     OW57934  10.026  12.719  13.150  0.2180 -0.4530  0.0650
82070SOL    HW157935  10.037  12.814  13.144  0.6337 -0.3679  1.6848
82070SOL    HW257936   9.936  12.708  13.182  0.0711 -0.6170 -0.4075
82071SOL     OW57937   5.956  10.159  12.681 -0.3518 -0.1313 -0.1347
82071SOL    HW157938   5.935  10.204  12.599 -0.3789  0.8772  0.4165
82071SOL    HW257939   6.012  10.086  12.654  0.8760  1.0485 -0.9237
82072SOL     OW57940  11.559   5.567   4.448 -0.3579 -1.0060  0.0994
82072SOL    HW157941  11.594   5.508   4.382  1.1808  0.1916 -0.2160
82072SOL    HW257942  11.541   5.649   4.401 -1.9246 -1.0158  0.6265
82073SOL     OW57943  11.847   5.765   8.410 -0.3603 -0.1519 -0.3879
82073SOL    HW157944  11.780   5.749   8.476  0.6616  0.5257  0.8773
82073SOL    HW257945  11.799   5.776   8.328 -1.6823 -0.8482  0.2705
82074SOL     OW57946  11.981   4.379   4.006  0.1551 -0.1184  0.1773
82074SOL    HW157947  12.065   4.426   4.010  0.8847 -1.4392  1.5396
82074SOL    HW257948  11.916   4.447   3.989  1.2929  1.2158  0.9294
82075SOL     OW57949   1.600  11.211   6.705  0.1619  0.1244 -0.2330
82075SOL    HW157950   1.690  11.237   6.722  0.8253 -2.1388  0.1344
82075SOL    HW257951   1.556  11.218   6.790  0.6948 -1.1594  0.1747
82076SOL     OW57952  12.860  12.468   4.428  0.1029 -0.0809 -0.4376
82076SOL    HW157953  12.805  12.446   4.504 -0.5551  0.5436 -0.7179
82076SOL    HW257954  12.910  12.545   4.457 -0.7362  0.6517 -0.8928
82077SOL     OW57955   8.732  13.247   9.360 -0.2536  0.4279  0.5840
82077SOL    HW157956   8.659  13.281   9.309 -0.2922 -1.4186 -0.6556
82077SOL    HW257957   8.727  13.295   9.443 -1.8881  1.4768 -0.0696
82078SOL     OW57958   3.306   6.421  11.614  0.0704 -0.2529  0.4024
82078SOL    HW157959   3.302   6.491  11.549  1.5845 -0.6152 -0.1504
82078SOL    HW257960   3.233   6.437  11.673 -0.4532  0.9539 -0.5394
82079SOL     OW57961   9.514  13.385  10.023 -0.1627  0.4798 -0.6446
82079SOL    HW157962   9.561  13.461   9.991  1.3074  0.1207  0.5822
82079SOL    HW257963   9.483  13.409  10.110  2.6670 -1.1410  0.9528
82080SOL     OW57964   6.358   1.687  12.306 -0.0225  0.2265  0.5339
82080SOL    HW157965   6.343   1.779  12.287 -2.9110 -0.2755 -0.1181
82080SOL    HW257966   6.285   1.662  12.363  1.1117 -1.4955  1.3047
82081SOL     OW57967   1.486   1.003   6.846  0.0634 -0.6755  0.5499
82081SOL    HW157968   1.418   1.043   6.792  0.2039 -0.2014  0.7210
82081SOL    HW257969   1.441   0.978   6.927  0.4324  1.2170  1.3786
82082SOL     OW57970  10.892   3.334   3.750 -0.2502  0.0766  0.1750
82082SOL    HW157971  10.900   3.326   3.655 -1.3379 -0.7161  0.1327
82082SOL    HW257972  10.982   3.342   3.782  0.1552 -0.2909 -0.8623
82083SOL     OW57973  13.396  13.606   6.978 -0.7813 -0.6971 -0.1533
82083SOL    HW157974  13.470  13.585   7.034  0.6418 -0.3338 -1.8105
82083SOL    HW257975  13.319  13.591   7.033  0.5033 -1.0563  1.6270
82084SOL     OW57976   6.249   2.167   1.394  0.2281 -0.1431 -0.0984
82084SOL    HW157977   6.287   2.189   1.479  3.4108 -1.7078 -0.9597
82084SOL    HW257978   6.211   2.080   1.407  2.3285 -1.2024 -0.6052
82085SOL     OW57979  11.708   5.242   1.458  0.3178  0.9033 -0.6579
82085SOL    HW157980  11.732   5.304   1.527 -0.8374  0.7208 -0.0629
82085SOL    HW257981  11.775   5.254   1.391  0.4995  2.3150 -0.2623
82086SOL     OW57982   7.572  13.746   8.731  0.2889  0.2841 -0.1985
82086SOL    HW157983   7.502  13.684   8.753  0.7469 -0.4571 -0.7460
82086SOL    HW257984   7.557  13.821   8.787 -0.3952 -0.2573  0.3622
82087SOL     OW57985   6.462   9.360   8.439  0.0416 -0.5127 -0.0172
82087SOL    HW157986   6.553   9.348   8.412  0.4719 -0.9838  1.5241
82087SOL    HW257987   6.456   9.314   8.523 -1.1687  0.9253  0.7341
82088SOL     OW57988   3.119   3.913   6.650  0.6324  0.3959 -0.3665
82088SOL    HW157989   3.122   3.823   6.683  1.6777  0.5856  0.0979
82088SOL    HW257990   3.027   3.939   6.660  0.1857 -0.8114 -1.0744
82089SOL     OW57991   1.546   2.747   5.074 -0.0726 -0.1992  0.1583
82089SOL    HW157992   1.461   2.708   5.095 -0.1591  0.4743  1.1527
82089SOL    HW257993   1.587   2.763   5.159  1.3491 -1.1030 -0.3137
82090SOL     OW57994   3.789  10.308   6.428  0.9294  0.1206 -0.2658
82090SOL    HW157995   3.862  10.354   6.469 -0.3123  2.1128 -0.1521
82090SOL    HW257996   3.779  10.228   6.479  1.7885  0.7560  0.9500
82091SOL     OW57997  13.124   0.742   9.331  0.1032 -0.1770 -0.9189
82091SOL    HW157998  13.056   0.800   9.364  0.2411  0.3175 -1.4802
82091SOL    HW257999  13.153   0.783   9.249 -1.0605 -1.9623 -2.3079
82092SOL     OW58000   8.562  11.635   7.397 -0.3113  0.1728 -0.3168
82092SOL    HW158001   8.480  11.659   7.440 -0.1499 -1.7697  1.2059
82092SOL    HW258002   8.629  11.683   7.445 -0.3747  0.1536 -0.2092
82093SOL     OW58003  10.779   6.192  10.700 -0.0629  0.0713 -0.0459
82093SOL    HW158004  10.727   6.230  10.630  2.7790  0.2989 -2.2247
82093SOL    HW258005  10.834   6.263  10.732 -1.2692 -0.0233  2.5461
82094SOL     OW58006   7.588   2.034   2.398  0.5616 -0.0805  0.6614
82094SOL    HW158007   7.655   2.093   2.365 -1.7327  1.3730 -1.7593
82094SOL    HW258008   7.519   2.091   2.433  0.7597 -1.5255  3.7975
82095SOL     OW58009   6.914  12.357   9.558  0.1245 -0.3303 -0.2046
82095SOL    HW158010   7.007  12.364   9.540 -0.1740 -0.1592 -1.7760
82095SOL    HW258011   6.891  12.440   9.600  0.6497 -0.3392  0.1051
82096SOL     OW58012   2.511   7.990  13.507 -0.5953 -0.2751 -0.2708
82096SOL    HW158013   2.542   8.002  13.597  1.1172  1.4452 -1.0090
82096SOL    HW258014   2.417   8.009  13.510 -0.0001  3.1638  0.6536
82097SOL     OW58015   2.737  12.613   4.835  0.2106  0.1098  0.1932
82097SOL    HW158016   2.791  12.689   4.813 -0.2860  1.1621  2.2966
82097SOL    HW258017   2.792  12.560   4.892 -0.6480  0.8574  1.8067
82098SOL     OW58018   1.409   9.764   3.912 -0.2179 -0.4769  0.0007
82098SOL    HW158019   1.440   9.850   3.886 -2.9655  0.8869  0.8802
82098SOL    HW258020   1.463   9.741   3.987  0.8732  0.2227 -0.5425
82099SOL     OW58021   1.534  13.736   6.776 -0.2794  0.0634  0.6666
82099SOL    HW158022   1.548  13.671   6.845  0.1935  0.4271  0.9214
82099SOL    HW258023   1.450  13.712   6.737  0.1116 -0.9873  0.4397
82100SOL     OW58024   8.497   1.046   9.319  0.0612 -0.0908 -0.2083
82100SOL    HW158025   8.467   1.130   9.354  1.5512 -0.6837  2.8160
82100SOL    HW258026   8.421   0.989   9.327 -0.8527  0.7785 -1.9504
82101SOL     OW58027  10.560   9.632  13.109  0.8616  0.2510 -0.4876
82101SOL    HW158028  10.492   9.565  13.122  0.5393  0.9914  2.2684
82101SOL    HW258029  10.634   9.600  13.161  1.9047  0.4876 -1.7829
82102SOL     OW58030   6.177   6.569  10.411 -0.1901 -0.2756  0.1253
82102SOL    HW158031   6.109   6.594  10.473  0.3766  0.0426  0.6328
82102SOL    HW258032   6.195   6.477  10.431  1.3443  0.3241  1.7801
82103SOL     OW58033   6.301   6.449  11.419 -0.4932 -0.4861  0.1814
82103SOL    HW158034   6.285   6.515  11.351 -1.0555 -1.3978 -0.5872
82103SOL    HW258035   6.217   6.441  11.464 -0.5484 -0.9741 -0.0026
82104SOL     OW58036   4.088   7.467   0.257  0.3794 -0.1991 -0.4088
82104SOL    HW158037   4.123   7.389   0.301 -0.0155 -0.8939 -1.3004
82104SOL    HW258038   4.058   7.435   0.172  0.5082  0.9994 -0.9165
82105SOL     OW58039  11.746   1.227   0.879 -0.0745 -0.2877  0.2045
82105SOL    HW158040  11.721   1.294   0.816  1.9323 -0.2150 -0.5878
82105SOL    HW258041  11.711   1.146   0.842 -1.9079  0.1708  0.8157
82106SOL     OW58042  10.719  11.434   0.666 -0.0412  0.1889  0.1154
82106SOL    HW158043  10.643  11.390   0.630 -0.4362  0.2699  0.8401
82106SOL    HW258044  10.767  11.365   0.713 -0.4741  0.4493  0.9505
82107SOL     OW58045   3.408  12.985  13.062 -0.6581  0.6711 -0.1779
82107SOL    HW158046   3.405  12.891  13.044  1.3288 -0.1917  3.1549
82107SOL    HW258047   3.342  12.999  13.129 -0.6215  1.6047 -0.3206
82108SOL     OW58048  11.894   9.577   6.398 -0.2570 -0.2405 -0.4406
82108SOL    HW158049  11.916   9.666   6.423  0.3600 -0.4625 -0.1855
82108SOL    HW258050  11.939   9.522   6.462  0.4541 -0.7738 -1.3741
82109SOL     OW58051   2.627   7.448   7.518  0.0248 -0.3688  0.1511
82109SOL    HW158052   2.542   7.489   7.496  0.1649  0.2634  0.7360
82109SOL    HW258053   2.659   7.413   7.436 -0.5218 -0.0530 -0.2021
82110SOL     OW58054   3.250   7.725  13.370  0.1404  0.3242 -0.0853
82110SOL    HW158055   3.186   7.727  13.299  1.2072  1.0207 -1.0713
82110SOL    HW258056   3.222   7.794  13.430  1.0065  1.9906 -1.5036
82111SOL     OW58057   0.447   5.577  11.057 -0.2853 -0.8601  0.0918
82111SOL    HW158058   0.409   5.490  11.048 -2.8757  0.1405  0.5094
82111SOL    HW258059   0.418   5.625  10.979  1.0653 -0.3341 -0.1164
82112SOL     OW58060  10.324   1.805   1.877 -0.1885 -0.0253 -0.2814
82112SOL    HW158061  10.241   1.756   1.875  0.7815 -1.7380 -0.9514
82112SOL    HW258062  10.358   1.797   1.788  1.3098 -0.4762  0.2980
82113SOL     OW58063   6.473   3.422  10.704 -0.5526  0.7017 -0.1284
82113SOL    HW158064   6.565   3.440  10.683 -0.5651  1.2996  0.2832
82113SOL    HW258065   6.467   3.326  10.703  0.6427  0.5276  2.0497
82114SOL     OW58066   6.089   4.339  10.261 -0.0096  0.0631  0.2377
82114SOL    HW158067   6.145   4.262  10.250 -0.4245 -0.1995 -0.0253
82114SOL    HW258068   6.000   4.306  10.255 -0.2251  0.8702 -2.3156
82115SOL     OW58069   8.215   8.302   6.144 -0.2574 -0.3232 -0.0978
82115SOL    HW158070   8.237   8.353   6.222  0.7861 -3.1074  1.5708
82115SOL    HW258071   8.279   8.232   6.142 -1.2287 -1.2530 -2.6259
82116SOL     OW58072   8.775   9.555   7.877 -0.2796 -0.3534 -0.1015
82116SOL    HW158073   8.727   9.527   7.799 -0.3516  1.8206 -0.9035
82116SOL    HW258074   8.726   9.631   7.909  1.2503  0.4301  0.4651
82117SOL     OW58075   3.203   3.600   7.458 -0.3133  0.1966  0.2624
82117SOL    HW158076   3.258   3.547   7.400 -0.8691 -0.4500  0.3063
82117SOL    HW258077   3.203   3.552   7.541 -0.2305  0.6602  0.5339
82118SOL     OW58078   3.082   0.201   7.239  0.7589  0.0566 -0.1865
82118SOL    HW158079   3.046   0.139   7.302 -0.2097  0.0086 -0.7696
82118SOL    HW258080   3.037   0.283   7.259  2.3472  0.7215  0.8729
82119SOL     OW58081  11.798   9.352  12.132 -0.1620  0.2193 -0.1364
82119SOL    HW158082  11.719   9.313  12.170 -0.9340  2.3898  0.6516
82119SOL    HW258083  11.859   9.280  12.124 -1.7811 -1.2862  0.4467
82120SOL     OW58084   7.085   9.645  13.214  0.1125 -0.0431 -0.1661
82120SOL    HW158085   7.143   9.569  13.205 -0.2005 -0.2797 -0.2102
82120SOL    HW258086   7.144   9.717  13.238  0.3635 -0.3831  0.2757
82121SOL     OW58087   4.253   1.826  13.312  0.5185 -0.0965  0.7463
82121SOL    HW158088   4.182   1.805  13.373 -0.2716 -1.5571 -0.6136
82121SOL    HW258089   4.333   1.810  13.362 -0.1046 -0.4399  1.6643
82122SOL     OW58090   1.395   7.277   5.325 -0.4476  0.6115 -0.0804
82122SOL    HW158091   1.378   7.300   5.416 -0.8704  0.9661 -0.2511
82122SOL    HW258092   1.311   7.244   5.292 -0.2474  0.3022 -0.2884
82123SOL     OW58093  10.482   3.573  10.316 -0.2090 -0.1014 -0.1950
82123SOL    HW158094  10.452   3.493  10.271  0.3971 -0.9894  0.9407
82123SOL    HW258095  10.420   3.641  10.287 -0.2900 -0.8040 -1.7595
82124SOL     OW58096   3.030   2.733  13.242 -0.1285 -0.4714 -0.3071
82124SOL    HW158097   3.093   2.687  13.187 -0.9170 -1.0531 -0.7491
82124SOL    HW258098   3.007   2.811  13.191 -1.5528 -1.4707 -1.2738
82125SOL     OW58099   5.973  10.815   9.735 -0.1664  0.0246  0.5350
82125SOL    HW158100   5.892  10.779   9.699  0.6553 -0.3000 -1.0873
82125SOL    HW258101   5.953  10.831   9.827 -1.5605 -1.5691  0.5587
82126SOL     OW58102  12.656   3.622   4.674 -0.4339 -0.5493  0.3118
82126SOL    HW158103  12.656   3.581   4.588 -0.5192 -0.0623  0.0768
82126SOL    HW258104  12.647   3.716   4.656 -0.6805 -0.4659  0.8586
82127SOL     OW58105   2.401  10.258   3.871 -0.6036  0.0856 -0.1877
82127SOL    HW158106   2.418  10.182   3.816 -0.0633 -0.2272  0.4028
82127SOL    HW258107   2.332  10.229   3.931  0.8129 -0.5414  1.1989
82128SOL     OW58108   2.610  12.102   4.370  0.3824  0.2939 -0.6189
82128SOL    HW158109   2.526  12.144   4.355  0.4655  0.2985 -1.0674
82128SOL    HW258110   2.611  12.026   4.312  1.1611  0.9449 -1.4960
82129SOL     OW58111   4.301   1.811  10.746 -0.1559 -0.1824  0.6423
82129SOL    HW158112   4.357   1.867  10.800  0.6532 -0.6781  0.3300
82129SOL    HW258113   4.352   1.732  10.733 -0.5890 -0.3068 -0.3615
82130SOL     OW58114   2.256   1.853   6.111  0.0269 -0.3752  0.4693
82130SOL    HW158115   2.225   1.942   6.095  1.2641 -0.1955 -1.1862
82130SOL    HW258116   2.281   1.852   6.204 -2.3568  0.2133  1.1877
82131SOL     OW58117   2.844   4.500  13.129 -0.4721  0.4235 -0.2366
82131SOL    HW158118   2.905   4.564  13.094  0.0777 -0.0446 -0.1445
82131SOL    HW258119   2.827   4.528  13.219 -0.9663  0.9604 -0.4894
82132SOL     OW58120   0.362   6.023  13.279  0.5212  0.8718  0.1044
82132SOL    HW158121   0.330   6.107  13.312 -0.1541  1.0075 -0.8430
82132SOL    HW258122   0.284   5.976  13.251  0.7067 -0.8440  2.2297
82133SOL     OW58123   9.783   1.531   0.971 -0.4021 -0.0940 -0.0438
82133SOL    HW158124   9.693   1.521   0.941 -0.7535  0.7376  0.6899
82133SOL    HW258125   9.793   1.625   0.986 -0.0952 -0.4232  1.9872
82134SOL     OW58126   2.085   5.552  11.936 -0.1196 -0.4873  0.2415
82134SOL    HW158127   2.042   5.521  11.857  0.6735 -0.8394 -0.0701
82134SOL    HW258128   2.155   5.488  11.952  1.8418  1.3107 -0.6584
82135SOL     OW58129  10.379   0.067   8.230  0.4029  0.5815  0.6533
82135SOL    HW158130  10.446   0.069   8.162  1.4882 -0.2101  1.6634
82135SOL    HW258131  10.404   0.138   8.290  1.1289 -0.5516  1.7306
82136SOL     OW58132  10.426   4.204  10.123 -0.1800  0.9468  0.6342
82136SOL    HW158133  10.337   4.169  10.119 -0.2898  1.3035 -1.0642
82136SOL    HW258134  10.457   4.183  10.211 -1.0076 -1.4566  0.4096
82137SOL     OW58135   8.495   6.099  13.598  0.3838  0.2765  0.2907
82137SOL    HW158136   8.532   6.185  13.576 -0.2555  0.8750  1.5052
82137SOL    HW258137   8.416   6.093  13.545  0.9398  0.0054 -0.5299
82138SOL     OW58138  11.702   8.158  11.769  0.4020 -0.6624 -0.7474
82138SOL    HW158139  11.680   8.251  11.774  0.3668 -0.7105  0.0278
82138SOL    HW258140  11.618   8.114  11.756 -0.0226 -0.8376  2.1054
82139SOL     OW58141   8.786   9.191   6.193  0.1761 -0.0253 -0.2978
82139SOL    HW158142   8.767   9.181   6.286  2.8224 -1.6100  0.1696
82139SOL    HW258143   8.876   9.224   6.191  1.4574 -3.2389 -2.2356
82140SOL     OW58144  10.995   9.257   8.643  0.2872  0.0805  0.1886
82140SOL    HW158145  11.009   9.208   8.561  0.6532 -1.1235  0.9494
82140SOL    HW258146  10.902   9.278   8.642  0.5445  1.3933 -1.2301
82141SOL     OW58147   8.827  10.586  10.413  0.4615  0.1778 -0.1794
82141SOL    HW158148   8.900  10.646  10.398  0.3933  0.7469  1.6020
82141SOL    HW258149   8.750  10.635  10.385  0.5037  0.5448  0.3491
82142SOL     OW58150   3.174  11.372   2.650  0.4430 -0.0250  0.3555
82142SOL    HW158151   3.235  11.408   2.586 -0.4631  0.8367 -0.0513
82142SOL    HW258152   3.087  11.391   2.614 -0.0806 -1.1092  0.9819
82143SOL     OW58153   8.481  12.616   6.734  0.1702  0.1716  0.0239
82143SOL    HW158154   8.493  12.651   6.822 -0.4851  1.4807 -0.3824
82143SOL    HW258155   8.434  12.685   6.687  1.4138 -0.0584 -1.6439
82144SOL     OW58156   0.527  13.343   8.133 -0.1195  0.0824 -0.2842
82144SOL    HW158157   0.501  13.251   8.130  0.1244  0.0458 -1.5541
82144SOL    HW258158   0.481  13.384   8.059  1.8627  0.4167 -1.3853
82145SOL     OW58159  11.776   4.047   3.764  0.5552 -0.1288 -0.1794
82145SOL    HW158160  11.708   4.087   3.818 -0.5777 -2.9483  0.6482
82145SOL    HW258161  11.848   4.112   3.765 -0.1779  0.8459  3.0572
82146SOL     OW58162   8.854  10.702   5.047  0.0826  0.3429  0.6172
82146SOL    HW158163   8.768  10.710   5.008  0.0974  0.9522  0.6889
82146SOL    HW258164   8.839  10.661   5.132  0.1076 -1.4546 -0.1977
82147SOL     OW58165   8.246  12.382   9.943  0.1952 -0.2035  0.1128
82147SOL    HW158166   8.223  12.292   9.919 -1.3087  0.3139 -0.5327
82147SOL    HW258167   8.251  12.381  10.038 -0.9958 -0.7402  0.1922
82148SOL     OW58168   8.963  13.252   9.209  0.1745 -0.5631  0.0615
82148SOL    HW158169   8.968  13.158   9.190 -0.5945 -0.7272  0.6315
82148SOL    HW258170   8.895  13.259   9.275  0.3854  0.3808  0.1855
82149SOL     OW58171   1.933   6.785  11.934 -0.0273 -0.3772  0.3924
82149SOL    HW158172   2.009   6.833  11.903 -1.2212  0.2607 -1.7347
82149SOL    HW258173   1.966   6.733  12.007  2.1596  0.7573  0.2973
82150SOL     OW58174   3.102  10.847  10.111 -0.3977  0.6125 -0.4657
82150SOL    HW158175   3.167  10.822  10.046 -1.0578  0.0930 -0.9276
82150SOL    HW258176   3.053  10.919  10.070 -0.6831  0.4193 -0.4630
82151SOL     OW58177   4.734   5.561   9.499 -0.5288  0.2390  0.2224
82151SOL    HW158178   4.712   5.607   9.418  0.8888  3.4793  1.4801
82151SOL    HW258179   4.684   5.607   9.566  0.7121 -0.3086  1.5593
82152SOL     OW58180   1.540   3.670  10.243 -0.1709  0.5562  0.0575
82152SOL    HW158181   1.451   3.651  10.212  0.2158 -0.9441 -0.2438
82152SOL    HW258182   1.556   3.605  10.312  0.4835  1.1977  0.5266
82153SOL     OW58183  10.756   8.372  10.983  0.2740  0.5950  0.6451
82153SOL    HW158184  10.791   8.374  11.073  0.8468 -0.4406  0.4568
82153SOL    HW258185  10.829   8.341  10.930 -0.7147 -0.9740  0.1392
82154SOL     OW58186  11.032  12.339   8.993  0.0300 -0.0237  0.8484
82154SOL    HW158187  11.021  12.259   9.045  1.6358 -0.1712  1.0040
82154SOL    HW258188  10.976  12.404   9.036 -0.5521 -0.8099  1.2857
82155SOL     OW58189   1.035   9.418   0.545 -0.5604 -0.2718 -0.2511
82155SOL    HW158190   0.985   9.384   0.471 -0.2405  0.2740 -0.7281
82155SOL    HW258191   1.101   9.350   0.563 -0.6336 -0.4018 -0.4721
82156SOL     OW58192   8.652  12.303   2.910  0.9508 -0.3503 -0.0992
82156SOL    HW158193   8.609  12.257   2.838 -0.5731  0.4898  0.2367
82156SOL    HW258194   8.722  12.353   2.868  0.6378 -0.5492 -0.8695
82157SOL     OW58195   2.522  10.537   4.663 -0.4499 -0.8196 -0.1026
82157SOL    HW158196   2.477  10.490   4.593 -1.4001 -1.7732  1.0993
82157SOL    HW258197   2.537  10.471   4.731  0.3613  0.0931  0.6320
82158SOL     OW58198   8.026   9.987  13.273 -0.1066 -0.4888 -0.1343
82158SOL    HW158199   8.112  10.005  13.234  0.4749  0.1556  1.3366
82158SOL    HW258200   8.034   9.898  13.306 -0.6037 -1.0399 -1.4374
82159SOL     OW58201   7.339   5.087   8.018 -0.4940 -0.3938 -0.1438
82159SOL    HW158202   7.411   5.147   8.041 -1.1970  0.3389  0.2053
82159SOL    HW258203   7.383   5.011   7.979  0.4734  0.0147  0.1046
82160SOL     OW58204   2.455   0.449   2.033 -0.2057 -0.1284 -0.1994
82160SOL    HW158205   2.418   0.452   1.945  0.0820 -0.8281 -0.3564
82160SOL    HW258206   2.384   0.414   2.087 -0.1727 -0.3164 -0.2759
82161SOL     OW58207   0.235   8.942   7.990  0.0575 -0.6118  0.4449
82161SOL    HW158208   0.195   8.858   7.965  0.5728 -0.0732 -2.7028
82161SOL    HW258209   0.269   8.928   8.078 -1.3503 -3.1377  0.6888
82162SOL     OW58210  10.065  13.615   1.853 -0.1940 -0.0644  0.0652
82162SOL    HW158211  10.054  13.693   1.799 -0.2383 -0.3352 -0.3221
82162SOL    HW258212  10.140  13.569   1.816 -0.6625 -0.6213 -0.2250
82163SOL     OW58213   2.079   7.829   8.993  0.3203  0.0083 -0.1804
82163SOL    HW158214   2.086   7.779   9.075 -0.4179 -0.3371 -0.3246
82163SOL    HW258215   2.169   7.835   8.961  0.7288  0.7991  1.0413
82164SOL     OW58216   3.518  12.525   8.882 -0.3035  0.2828  0.1844
82164SOL    HW158217   3.478  12.612   8.883  0.0373  0.4649 -1.1501
82164SOL    HW258218   3.580  12.527   8.955  0.2066  1.4008 -0.2642
82165SOL     OW58219   6.051   1.292   5.294 -0.1930 -0.0645  0.2472
82165SOL    HW158220   5.998   1.324   5.221 -1.1803 -1.5178  0.3009
82165SOL    HW258221   6.007   1.326   5.372 -0.0197  0.1905  0.2378
82166SOL     OW58222   5.393   2.159   4.184  0.1929  0.7035  0.2341
82166SOL    HW158223   5.340   2.196   4.114 -1.1938  0.8893  1.3472
82166SOL    HW258224   5.363   2.069   4.192  1.4848  0.1757 -0.4615
82167SOL     OW58225   8.819   9.672   2.044  0.0604  0.3059 -0.3249
82167SOL    HW158226   8.777   9.612   1.983  2.2328 -0.6235 -1.0041
82167SOL    HW258227   8.753   9.739   2.061 -1.5722 -0.9330 -1.4835
82168SOL     OW58228   9.532   9.806  12.987  0.0381 -0.5621  0.4388
82168SOL    HW158229   9.550   9.712  12.988  0.0478 -0.6184  3.2477
82168SOL    HW258230   9.452   9.816  13.038 -0.6470  0.8661 -0.8663
82169SOL     OW58231   6.770   6.161   6.754  0.1560 -0.4994 -0.2520
82169SOL    HW158232   6.767   6.148   6.849 -1.2007  2.2757  0.1764
82169SOL    HW258233   6.856   6.199   6.737  0.2729 -0.6864 -0.0798
82170SOL     OW58234   6.554  11.332   2.496  0.2248 -0.0470  0.3072
82170SOL    HW158235   6.572  11.415   2.540 -0.3327  0.8505 -1.1275
82170SOL    HW258236   6.464  11.311   2.520 -0.7109  1.3365 -1.6962
82171SOL     OW58237  12.256   1.760   9.712 -0.1382 -0.1834 -0.0550
82171SOL    HW158238  12.217   1.677   9.738 -1.1289  0.2088 -0.2653
82171SOL    HW258239  12.344   1.737   9.683  0.0023 -1.0030  0.9658
82172SOL     OW58240   3.813   0.971   3.506  0.2638 -0.0577 -0.1237
82172SOL    HW158241   3.874   0.955   3.434  2.5614 -4.5499  2.4075
82172SOL    HW258242   3.860   1.030   3.565  1.3710 -1.7161  0.7373
82173SOL     OW58243   3.661   1.008   8.385  0.2409 -0.3984 -0.1392
82173SOL    HW158244   3.637   0.992   8.293 -0.9385  0.9732 -0.0881
82173SOL    HW258245   3.667   1.103   8.392  1.5798 -0.5415  0.9184
82174SOL     OW58246  12.174   3.798  12.740  0.1465 -0.0617  0.4802
82174SOL    HW158247  12.129   3.876  12.772  0.7885  0.2278  0.6990
82174SOL    HW258248  12.226   3.768  12.815  1.7946  0.7180 -0.3048
82175SOL     OW58249   9.151   4.524  11.497 -0.2629 -0.4486  0.1425
82175SOL    HW158250   9.205   4.523  11.576  0.4543  0.3574 -0.3276
82175SOL    HW258251   9.075   4.469  11.519  0.2934 -0.8438  1.1232
82176SOL     OW58252   4.367   8.323   6.864 -0.3077 -0.0814 -0.1335
82176SOL    HW158253   4.277   8.293   6.851 -0.0999 -0.4363 -0.7790
82176SOL    HW258254   4.407   8.319   6.777  0.2518  0.3535  0.0913
82177SOL     OW58255   7.680   9.939   1.530  0.3425  0.2845 -0.6786
82177SOL    HW158256   7.598   9.988   1.519 -1.0715 -1.9485 -0.7155
82177SOL    HW258257   7.716   9.931   1.442 -0.1972  0.0153 -0.8819
82178SOL     OW58258   6.807  12.156   5.019 -0.3817 -0.1156  0.2808
82178SOL    HW158259   6.827  12.159   5.112 -1.8274  1.8027  0.5890
82178SOL    HW258260   6.712  12.160   5.014 -0.3153  0.2534 -1.2881
82179SOL     OW58261   3.562   6.247   6.475 -0.6369  0.1451  0.4557
82179SOL    HW158262   3.634   6.196   6.513 -0.6976 -0.4581 -0.2222
82179SOL    HW258263   3.496   6.182   6.453 -0.3467  0.3934 -1.2433
82180SOL     OW58264   2.567   2.748  12.557  0.0223 -0.5799 -0.3505
82180SOL    HW158265   2.590   2.681  12.492 -1.2300  1.8672 -3.5820
82180SOL    HW258266   2.597   2.830  12.519 -1.0598  1.0643  2.0931
82181SOL     OW58267   9.772   6.679   6.056  0.0782  0.4290  0.0664
82181SOL    HW158268   9.740   6.755   6.009  1.7351 -0.8725 -3.4783
82181SOL    HW258269   9.861   6.702   6.082 -0.2973  0.5662  1.3244
82182SOL     OW58270   9.459   7.123   2.177 -0.0517  0.2048 -1.0248
82182SOL    HW158271   9.469   7.077   2.094  0.5262  1.8775 -1.9177
82182SOL    HW258272   9.537   7.178   2.184  1.1147 -1.5956  1.7973
82183SOL     OW58273   3.188   7.993   5.258  0.1992  0.3835 -0.5446
82183SOL    HW158274   3.228   8.011   5.173 -3.0357  3.2507 -1.6757
82183SOL    HW258275   3.099   8.028   5.251 -0.5207 -0.0547  3.7472
82184SOL     OW58276  12.947   8.537   9.976  0.2229 -0.0687 -0.5432
82184SOL    HW158277  12.921   8.504  10.062 -1.5835 -0.9274 -1.3616
82184SOL    HW258278  12.955   8.631   9.988 -0.7519 -0.0758  0.4097
82185SOL     OW58279  10.796   5.039   9.831  0.4327  0.5419 -0.6273
82185SOL    HW158280  10.731   5.019   9.898  0.3546 -1.5702 -1.2368
82185SOL    HW258281  10.879   5.005   9.866  0.2669 -1.2474 -1.7981
82186SOL     OW58282   5.379   3.203  10.050  0.3532  0.0181  0.0310
82186SOL    HW158283   5.397   3.169  10.137 -1.1393  0.2894  0.4831
82186SOL    HW258284   5.332   3.285  10.066 -0.7065 -0.3521 -1.0082
82187SOL     OW58285  10.600   7.693   0.527 -0.4118 -0.0141  0.0078
82187SOL    HW158286  10.562   7.778   0.505  0.4749  0.4601  0.2860
82187SOL    HW258287  10.618   7.653   0.442 -0.6619  0.1486 -0.1246
82188SOL     OW58288  12.658   9.908   2.729  0.1914  0.2342  0.7400
82188SOL    HW158289  12.654   9.814   2.707  0.5013  0.3609  0.1010
82188SOL    HW258290  12.621   9.952   2.652 -0.6976  0.6038  1.3737
82189SOL     OW58291   4.461  10.778  11.818 -0.4688 -0.3802 -0.3970
82189SOL    HW158292   4.553  10.768  11.795  0.0532 -0.6834  1.6069
82189SOL    HW258293   4.413  10.741  11.744  1.0214 -0.6286 -1.2728
82190SOL     OW58294   3.222   3.088   4.443  0.4475 -0.1235  0.0009
82190SOL    HW158295   3.149   3.117   4.497  1.0836  0.2672  0.6616
82190SOL    HW258296   3.207   3.131   4.358 -0.2316 -0.2709  0.0371
82191SOL     OW58297  12.889   9.323   5.547 -0.0197  0.1127  0.3209
82191SOL    HW158298  12.846   9.390   5.494  0.4158 -0.3002 -0.5858
82191SOL    HW258299  12.823   9.255   5.557  0.2750 -0.3528 -0.7483
82192SOL     OW58300  11.835   8.855   6.980 -0.7333  0.2908  0.6842
82192SOL    HW158301  11.852   8.761   6.974  1.5305  0.6373  0.7310
82192SOL    HW258302  11.794   8.867   7.066  1.1916 -0.4289  1.7745
82193SOL     OW58303   4.201   9.684  11.056  0.7936  0.2233  0.3280
82193SOL    HW158304   4.127   9.742  11.040  0.8634  0.5403  1.0950
82193SOL    HW258305   4.277   9.742  11.060  1.2535 -0.1937 -1.4144
82194SOL     OW58306   8.765   3.923   3.734 -0.1855  0.3465 -0.4877
82194SOL    HW158307   8.714   3.998   3.702 -0.7179  0.2991  0.2189
82194SOL    HW258308   8.702   3.871   3.785  0.5636  0.2644  0.3789
82195SOL     OW58309   4.523  13.494   2.679 -0.3883 -0.3422 -0.2330
82195SOL    HW158310   4.518  13.511   2.585  4.2552  0.0918 -0.6606
82195SOL    HW258311   4.527  13.581   2.719 -0.1024 -0.5018  0.0972
82196SOL     OW58312   8.077   6.225   6.456 -0.0466 -0.0390 -0.2495
82196SOL    HW158313   8.126   6.142   6.450 -1.0889 -0.7356  0.5303
82196SOL    HW258314   8.021   6.226   6.379  0.4280  0.2625 -0.5980
82197SOL     OW58315   6.529   8.850   7.656  0.1211  0.0185 -0.3162
82197SOL    HW158316   6.559   8.877   7.569  0.9092  0.5384  0.0995
82197SOL    HW258317   6.522   8.932   7.705 -0.4357 -0.2581  0.0742
82198SOL     OW58318   6.832   6.138  11.319  0.4005 -0.1765  0.0246
82198SOL    HW158319   6.905   6.198  11.330 -0.7297  1.3536 -0.5000
82198SOL    HW258320   6.823   6.127  11.225 -0.3292  0.0223  0.0651
82199SOL     OW58321   3.788  11.186   3.278 -0.2102  0.0091 -0.6347
82199SOL    HW158322   3.808  11.113   3.337 -1.0207 -0.3185 -0.7527
82199SOL    HW258323   3.769  11.144   3.194 -1.6403  0.2613 -0.4682
82200SOL     OW58324   1.709   9.258   6.824  0.6460  0.5578 -0.3198
82200SOL    HW158325   1.686   9.272   6.915 -0.1730  2.2095 -0.7473
82200SOL    HW258326   1.775   9.188   6.826 -0.3831 -0.4257  1.3884
82201SOL     OW58327  11.749   7.534  11.851 -0.6072 -0.8797 -0.0153
82201SOL    HW158328  11.733   7.488  11.768 -1.0189  0.2045 -0.5656
82201SOL    HW258329  11.843   7.528  11.863 -0.6916 -2.2195  0.1576
82202SOL     OW58330   8.654  10.403   4.598  0.1326  0.6740  0.1974
82202SOL    HW158331   8.730  10.440   4.643  0.8381  2.4186 -2.2439
82202SOL    HW258332   8.663  10.433   4.507 -2.4759 -0.6719 -0.5893
82203SOL     OW58333   2.745   8.904   1.799 -0.0388  0.7143  0.2536
82203SOL    HW158334   2.804   8.895   1.874  0.5919  0.7886 -0.2264
82203SOL    HW258335   2.665   8.860   1.826  0.5301 -0.1215  0.6010
82204SOL     OW58336   1.248   5.385  12.360 -0.0920  0.3492 -0.1390
82204SOL    HW158337   1.199   5.461  12.328  0.1443  0.3835 -0.4183
82204SOL    HW258338   1.281   5.342  12.281  0.4254  0.3881  0.0529
82205SOL     OW58339  13.357   7.454  10.171 -0.8263 -0.1375  0.4634
82205SOL    HW158340  13.452   7.443  10.170 -0.8321 -0.2450 -1.0452
82205SOL    HW258341  13.340   7.521  10.105 -1.7809  0.1031  0.9366
82206SOL     OW58342  11.384  12.597   9.164 -0.3048  0.1822  0.2927
82206SOL    HW158343  11.447  12.573   9.232 -1.4267 -0.9839  0.9545
82206SOL    HW258344  11.318  12.650   9.209 -1.1486 -0.7425  0.1621
82207SOL     OW58345  13.438  11.360   0.891  0.1693 -0.4367  0.0381
82207SOL    HW158346  13.505  11.295   0.871  0.3902 -0.1670 -0.1120
82207SOL    HW258347  13.359  11.309   0.905 -0.0616 -0.6355 -1.7703
82208SOL     OW58348  10.306   9.768   9.749 -0.5369 -0.4569 -0.4405
82208SOL    HW158349  10.239   9.707   9.718 -1.1757  0.0086  0.0117
82208SOL    HW258350  10.263   9.854   9.750 -0.4796 -0.3999  1.4630
82209SOL     OW58351   5.319   7.325   8.174 -0.5315 -0.2742  0.1361
82209SOL    HW158352   5.326   7.300   8.266 -2.8732 -2.0516 -0.0675
82209SOL    HW258353   5.240   7.380   8.171  0.5610  1.3466 -0.5820
82210SOL     OW58354  12.609   2.145  11.755  0.2102 -0.4864 -0.2739
82210SOL    HW158355  12.699   2.175  11.744 -0.4630  0.8916 -2.6761
82210SOL    HW258356  12.615   2.049  11.756  1.8118 -0.4339  1.5106
82211SOL     OW58357   1.839   2.647   6.785 -0.2774 -0.3019 -0.4353
82211SOL    HW158358   1.882   2.712   6.841 -0.0737 -1.0796  0.3386
82211SOL    HW258359   1.892   2.569   6.794 -1.7526 -1.2562  0.4383
82212SOL     OW58360   7.645  13.012   9.806 -0.7392  0.0011 -0.1371
82212SOL    HW158361   7.569  13.050   9.763 -1.2619 -1.0611 -0.1749
82212SOL    HW258362   7.708  12.999   9.735 -1.2742 -0.9482 -0.4498
82213SOL     OW58363   6.093   1.841   2.911 -0.4704 -0.2887 -0.3995
82213SOL    HW158364   6.173   1.793   2.929  0.2109  0.1113 -2.1178
82213SOL    HW258365   6.091   1.849   2.815 -3.0061 -1.0407 -0.4902
82214SOL     OW58366   9.050   7.141  12.056 -0.0153  0.6530  0.1289
82214SOL    HW158367   9.134   7.168  12.094  0.5803 -0.0956 -0.6097
82214SOL    HW258368   9.060   7.158  11.963  0.2098 -1.5861 -0.3094
82215SOL     OW58369  11.607  10.233   0.053 -0.2630  0.9612  0.2189
82215SOL    HW158370  11.531  10.265   0.004 -0.3515  0.3801 -0.0432
82215SOL    HW258371  11.595  10.266   0.142 -0.9051  0.7480  0.2154
82216SOL     OW58372   6.958   3.651   0.758 -0.5974 -0.0030 -0.3792
82216SOL    HW158373   6.979   3.625   0.847 -1.3983 -1.0582 -0.4754
82216SOL    HW258374   7.014   3.598   0.703 -0.9052 -0.1772 -0.5299
82217SOL     OW58375   0.069   7.298   2.893 -0.0179  0.2244 -0.5213
82217SOL    HW158376   0.085   7.207   2.919 -1.0576  0.0488 -0.4590
82217SOL    HW258377  -0.010   7.293   2.838  0.5833  0.9426 -1.4755
82218SOL     OW58378   7.121   2.366  11.226  0.0353  0.4419  0.2534
82218SOL    HW158379   7.150   2.329  11.143 -0.2979 -0.3545  0.4849
82218SOL    HW258380   7.153   2.306  11.293  0.8493  1.4101  0.7612
82219SOL     OW58381  13.678   4.328  11.943  0.0474 -0.2790 -0.0664
82219SOL    HW158382  13.678   4.405  12.000 -0.1653  0.0982 -0.5625
82219SOL    HW258383  13.619   4.266  11.986  0.6685 -0.4020  0.6362
82220SOL     OW58384   0.643   4.429  12.529  0.3385 -0.3445 -0.2538
82220SOL    HW158385   0.607   4.407  12.615  0.9076 -0.4705 -0.0438
82220SOL    HW258386   0.569   4.465  12.480 -0.1148 -0.7720  0.1072
82221SOL     OW58387  11.466   7.911  10.162 -0.2494  0.2539  0.2312
82221SOL    HW158388  11.429   7.996  10.187  0.3729  0.0851  1.8132
82221SOL    HW258389  11.414   7.847  10.209  1.6096 -0.0138  2.0465
82222SOL     OW58390   1.233   8.926   8.524  0.2652 -0.3948  0.0588
82222SOL    HW158391   1.287   8.858   8.565  1.5765  0.3440 -0.3596
82222SOL    HW258392   1.234   8.904   8.431 -1.2280 -1.0707  0.1779
82223SOL     OW58393   9.251  11.157   3.865  0.0080 -0.1825 -0.2419
82223SOL    HW158394   9.231  11.148   3.772 -0.0062  2.3841 -0.5544
82223SOL    HW258395   9.298  11.076   3.888 -0.1782 -0.9542 -2.3979
82224SOL     OW58396   2.732   9.295   5.151  0.1181 -0.9427 -0.6065
82224SOL    HW158397   2.757   9.362   5.215  0.5848 -1.6262 -0.0569
82224SOL    HW258398   2.775   9.215   5.182 -0.3236 -1.4699 -1.3224
82225SOL     OW58399   6.867   8.327  13.213 -0.0484 -0.0010  0.3679
82225SOL    HW158400   6.921   8.331  13.292 -2.3207 -2.1168  2.1917
82225SOL    HW258401   6.777   8.332  13.245 -1.0558 -0.6794 -2.1193
82226SOL     OW58402   9.294  10.421  12.903  0.9728 -0.0890 -0.2307
82226SOL    HW158403   9.357  10.368  12.952  0.1724 -1.9729 -1.0913
82226SOL    HW258404   9.271  10.493  12.961  0.8912 -1.6025  1.7142
82227SOL     OW58405  13.537   1.630   2.782 -0.1998 -0.1924  0.2375
82227SOL    HW158406  13.459   1.669   2.742 -0.0727  1.5716  1.6123
82227SOL    HW258407  13.596   1.616   2.708 -1.1626  0.0290 -0.6034
82228SOL     OW58408   6.276  12.549   1.071 -0.5200 -0.2283  0.1854
82228SOL    HW158409   6.338  12.490   1.027  1.0649 -1.1038  3.2986
82228SOL    HW258410   6.193  12.502   1.069 -0.4737 -0.3233 -1.5601
82229SOL     OW58411   4.974   1.175  10.114 -0.2359 -0.2571 -0.1991
82229SOL    HW158412   5.053   1.176  10.059 -1.1511 -0.9073 -1.5931
82229SOL    HW258413   4.985   1.249  10.173  1.3477 -0.2466 -0.4680
82230SOL     OW58414   4.295   7.237  11.266  0.1110 -0.5033  0.1391
82230SOL    HW158415   4.373   7.182  11.265  1.5179  1.3867 -0.0351
82230SOL    HW258416   4.291   7.274  11.178 -1.1997 -0.8485  0.0403
82231SOL     OW58417   2.324   3.338   9.767  0.1112  0.0046  0.4831
82231SOL    HW158418   2.390   3.385   9.718 -1.5641  1.4873 -0.4869
82231SOL    HW258419   2.275   3.289   9.701  1.0863 -2.2612  1.3465
82232SOL     OW58420   7.960  10.985  11.217  0.0070  0.3389 -0.5001
82232SOL    HW158421   8.006  10.990  11.301 -2.7793  0.9888  1.1304
82232SOL    HW258422   7.966  10.893  11.191 -1.6600 -0.6256  2.1048
82233SOL     OW58423  12.441   2.981   6.893 -0.3497 -0.2616 -0.0036
82233SOL    HW158424  12.426   3.000   6.801 -0.7444 -0.1722  0.0775
82233SOL    HW258425  12.533   3.002   6.907 -0.7631  1.6669  0.0993
82234SOL     OW58426   2.088   7.572   2.748 -0.1503 -0.0117 -0.2799
82234SOL    HW158427   2.158   7.589   2.685  1.9313 -0.4193  1.7689
82234SOL    HW258428   2.131   7.578   2.833 -2.6023 -0.4964  1.0811
82235SOL     OW58429   0.105  12.538   1.200 -0.0156  0.1054 -0.1716
82235SOL    HW158430   0.095  12.633   1.195 -0.2894  0.1235  0.5695
82235SOL    HW258431   0.016  12.504   1.188 -0.0755 -0.0052  0.5294
82236SOL     OW58432   4.243   4.550   4.590 -0.1913  0.4190  0.0729
82236SOL    HW158433   4.276   4.624   4.539  1.2438 -2.2139 -3.2133
82236SOL    HW258434   4.205   4.490   4.525 -2.1895 -1.3324  2.6527
82237SOL     OW58435   7.767   3.690   4.770  0.0813  0.4060 -0.4352
82237SOL    HW158436   7.672   3.696   4.769 -0.1121 -1.6192  0.7999
82237SOL    HW258437   7.791   3.700   4.862  0.8709 -0.9783 -0.4644
82238SOL     OW58438   2.744  11.755  10.007  0.2183 -0.3180 -0.1094
82238SOL    HW158439   2.676  11.720   9.949 -2.4694  0.3054  2.4485
82238SOL    HW258440   2.801  11.680  10.026 -0.5370 -1.2107 -1.2454
82239SOL     OW58441  13.653   8.966   1.463 -0.3625  0.4854 -0.1257
82239SOL    HW158442  13.609   8.906   1.522  0.6672  0.8985  1.1196
82239SOL    HW258443  13.732   8.994   1.511  0.1687  1.3513 -1.4241
82240SOL     OW58444  10.278   4.198   0.427 -0.1555 -0.0874  0.1567
82240SOL    HW158445  10.295   4.280   0.474 -0.2812  0.6242 -1.0013
82240SOL    HW258446  10.358   4.182   0.377 -0.0653 -0.7795  0.5089
82241SOL     OW58447   9.264  10.405  12.620  0.0320 -0.3499 -0.0094
82241SOL    HW158448   9.275  10.437  12.710  0.3227 -1.4941  0.3721
82241SOL    HW258449   9.289  10.313  12.624 -0.4129 -0.5341 -1.1709
82242SOL     OW58450   7.456   4.340  11.022 -0.3651  0.8286  0.2733
82242SOL    HW158451   7.457   4.277  10.950  0.2040  0.0257  0.9642
82242SOL    HW258452   7.426   4.421  10.982 -0.9337  0.1737 -0.6800
82243SOL     OW58453   1.715   8.613   1.236  0.3597  0.3224  0.2715
82243SOL    HW158454   1.771   8.604   1.159  0.0801 -1.0119  0.2007
82243SOL    HW258455   1.678   8.525   1.249  0.1969  0.5851  1.7631
82244SOL     OW58456   5.379  11.310  12.148 -0.2817  0.3615  0.0557
82244SOL    HW158457   5.435  11.232  12.140 -0.9109 -0.0092 -1.0288
82244SOL    HW258458   5.336  11.317  12.063 -0.0008  2.1079  0.0206
82245SOL     OW58459   6.413   9.977  13.058 -0.1051  0.0099 -0.3558
82245SOL    HW158460   6.455  10.034  13.123 -1.8976  1.6683 -0.5728
82245SOL    HW258461   6.424  10.023  12.975 -0.7215 -0.4416 -0.6957
82246SOL     OW58462   2.088  12.221   1.606 -0.0812  0.3355  1.1834
82246SOL    HW158463   1.996  12.197   1.600  0.1130 -0.2379  0.2900
82246SOL    HW258464   2.103  12.236   1.700 -0.9043 -0.2753  1.4236
82247SOL     OW58465   1.119   5.536   9.091 -0.5618  0.1667 -0.2393
82247SOL    HW158466   1.200   5.502   9.053 -1.6225 -0.5493 -2.0000
82247SOL    HW258467   1.087   5.464   9.146  0.1701  0.6095  0.8064
82248SOL     OW58468   6.850   2.614   1.413 -0.2457 -0.0782  0.4154
82248SOL    HW158469   6.925   2.567   1.450  1.8988 -1.9868 -5.2545
82248SOL    HW258470   6.886   2.700   1.391 -0.8290  0.2484  0.7253
82249SOL     OW58471   9.953   6.128   5.486  0.2128  0.0800  0.5459
82249SOL    HW158472  10.039   6.130   5.527 -0.0170 -1.3967  1.1731
82249SOL    HW258473   9.905   6.200   5.527  1.5841  1.9579 -0.9478
82250SOL     OW58474   4.017   8.600   9.541 -0.7411 -0.6986 -0.6084
82250SOL    HW158475   4.004   8.680   9.592 -0.0571 -0.8941 -0.1064
82250SOL    HW258476   3.929   8.569   9.521 -1.0187 -0.4340  0.1751
82251SOL     OW58477   9.492  12.412   8.255 -0.3159 -0.0510  0.1821
82251SOL    HW158478   9.464  12.478   8.319 -0.5432  1.8483 -1.7509
82251SOL    HW258479   9.421  12.347   8.255 -1.3070  0.9903  0.4021
82252SOL     OW58480   7.857   2.842   4.882 -0.0079 -0.5948  0.3222
82252SOL    HW158481   7.925   2.825   4.817 -0.8593 -0.4007 -0.6620
82252SOL    HW258482   7.799   2.905   4.839  0.0515  0.4776  1.7473
82253SOL     OW58483  13.338   5.008   5.255  0.0855  0.6280 -0.3371
82253SOL    HW158484  13.403   4.963   5.309 -0.7574  0.1329  0.2831
82253SOL    HW258485  13.333   5.096   5.291  0.4683  0.6963 -0.4451
82254SOL     OW58486   3.063   5.344  10.222  0.3374 -0.3801 -0.4252
82254SOL    HW158487   2.985   5.400  10.223  0.0562 -0.7222  1.7079
82254SOL    HW258488   3.033   5.262  10.183  0.4318  0.4703 -2.3894
82255SOL     OW58489   0.169   9.887   0.694 -0.6348 -0.1198  0.0565
82255SOL    HW158490   0.129   9.861   0.777  0.3381  0.1577  0.6342
82255SOL    HW258491   0.262   9.865   0.705 -0.4521  0.1673 -0.8578
82256SOL     OW58492   2.502   3.806   1.943  0.0417  0.2142  0.2734
82256SOL    HW158493   2.462   3.890   1.922 -0.2438  0.2985  1.1255
82256SOL    HW258494   2.433   3.757   1.987 -0.3187 -1.0873 -1.6200
82257SOL     OW58495   4.809   1.923  12.854  0.1548  0.3284 -0.5955
82257SOL    HW158496   4.845   1.931  12.766  0.2581  1.0349 -0.4926
82257SOL    HW258497   4.759   2.004  12.868 -0.6238 -0.1777 -0.3498
82258SOL     OW58498   6.845   5.480   7.922 -0.2992 -0.5563  0.6552
82258SOL    HW158499   6.768   5.529   7.891 -0.2095 -0.7252  0.1568
82258SOL    HW258500   6.808   5.402   7.964 -0.3881 -0.8242  0.0813
82259SOL     OW58501   8.905   1.248   3.517  0.1958 -0.4780 -0.0301
82259SOL    HW158502   8.957   1.168   3.531 -1.8362 -1.8415  0.1047
82259SOL    HW258503   8.865   1.236   3.431 -0.6833  0.0722  0.2928
82260SOL     OW58504   3.597  11.473   0.267 -0.1635  0.0278 -0.3814
82260SOL    HW158505   3.515  11.430   0.244 -0.3623  0.5945 -0.7551
82260SOL    HW258506   3.582  11.565   0.249  0.7353  0.0762 -1.0062
82261SOL     OW58507   3.145  11.379   2.354 -0.1265 -0.5752  0.5702
82261SOL    HW158508   3.144  11.370   2.259 -0.5927 -0.6199  0.5808
82261SOL    HW258509   3.157  11.290   2.387 -1.7900 -0.8079  0.5971
82262SOL     OW58510   0.410   5.344  13.150 -0.3098  0.0657 -0.2254
82262SOL    HW158511   0.452   5.260  13.133  0.2307  0.2633  0.1172
82262SOL    HW258512   0.391   5.342  13.244 -0.7430  0.1238 -0.3119
82263SOL     OW58513  10.080   3.152  12.626  0.4854 -0.5064  0.2840
82263SOL    HW158514  10.092   3.141  12.531  0.3716 -0.2962  0.2445
82263SOL    HW258515  10.157   3.109  12.664  0.2744 -1.0391  0.1218
82264SOL     OW58516   1.670   0.720   0.522  0.3753  0.2175 -0.2524
82264SOL    HW158517   1.696   0.632   0.549 -1.7862 -0.1348  0.9038
82264SOL    HW258518   1.667   0.716   0.426 -2.5871 -1.9583 -0.1800
82265SOL     OW58519   3.111   4.713   7.425  0.3429  0.1619 -0.1241
82265SOL    HW158520   3.041   4.756   7.474  1.5160  1.7530  0.1925
82265SOL    HW258521   3.145   4.646   7.485 -0.5150 -0.2576 -0.0843
82266SOL     OW58522  11.435  10.490   5.555 -0.2366 -0.5845 -0.2951
82266SOL    HW158523  11.396  10.502   5.468  0.6390  0.6528 -0.5489
82266SOL    HW258524  11.386  10.549   5.612 -0.6420 -1.2069  0.0148
82267SOL     OW58525   7.636  13.521  11.286 -0.1678  0.8000  0.1620
82267SOL    HW158526   7.664  13.575  11.360 -3.1419  1.8742  0.6542
82267SOL    HW258527   7.575  13.458  11.324 -0.5986  0.4082 -1.1324
82268SOL     OW58528   9.789  12.326   4.175 -0.3975  0.2411 -0.2404
82268SOL    HW158529   9.733  12.271   4.120  0.7062 -0.8953 -0.2727
82268SOL    HW258530   9.829  12.265   4.237 -2.6570  1.6224  2.8739
82269SOL     OW58531   1.018   4.911   9.254  0.0828 -0.1999  0.1360
82269SOL    HW158532   1.007   4.837   9.194  0.9998 -0.5727  0.4072
82269SOL    HW258533   1.042   4.871   9.338 -0.0779  0.3723  0.4644
82270SOL     OW58534   6.698   0.145   8.278 -0.5490  0.2418  0.0068
82270SOL    HW158535   6.603   0.150   8.292 -0.5456 -1.7544  1.0997
82270SOL    HW258536   6.707   0.107   8.190 -0.8479 -1.7098  0.7674
82271SOL     OW58537  13.229   5.835   2.622 -0.2808 -0.0579 -0.5685
82271SOL    HW158538  13.303   5.778   2.601  1.1498  0.2944  2.7382
82271SOL    HW258539  13.163   5.776   2.659 -0.3809 -0.0170 -0.6812
82272SOL     OW58540   1.965   7.264  11.966  0.3463 -0.7527  0.2195
82272SOL    HW158541   2.004   7.285  11.881 -1.2309  0.4709 -0.2377
82272SOL    HW258542   1.999   7.331  12.025  0.7239 -1.0653  0.3656
82273SOL     OW58543   9.308   2.512   2.916 -0.6822  0.0899 -0.0018
82273SOL    HW158544   9.349   2.448   2.974  0.5665  1.5643  0.8141
82273SOL    HW258545   9.363   2.512   2.838 -0.1184  0.8216  0.3849
82274SOL     OW58546  13.630  11.127   6.820 -0.3431  0.1145 -0.2291
82274SOL    HW158547  13.647  11.038   6.850 -1.3133  0.3175  0.9681
82274SOL    HW258548  13.661  11.183   6.891  1.3574  0.8243 -1.4475
82275SOL     OW58549   1.536  12.990  13.276 -0.2256 -0.4080  0.0787
82275SOL    HW158550   1.519  12.922  13.341 -0.8354  0.4438  0.8335
82275SOL    HW258551   1.622  13.024  13.298  0.3217 -1.2773 -0.6330
82276SOL     OW58552  10.314   4.558   8.779  0.1641  0.0683  0.7369
82276SOL    HW158553  10.392   4.607   8.804  0.1610 -0.5905  2.1509
82276SOL    HW258554  10.342   4.466   8.779 -0.6958 -0.2092  1.6254
82277SOL     OW58555   6.018  12.057   1.462 -0.0221 -0.0824 -0.2403
82277SOL    HW158556   5.934  12.076   1.419  0.1753 -0.3825 -0.7740
82277SOL    HW258557   6.011  11.965   1.487  0.3204 -0.2415 -0.7057
82278SOL     OW58558   3.858   0.906   4.743  0.0601  0.6139 -0.4256
82278SOL    HW158559   3.815   0.934   4.662 -2.4330 -1.4174  0.0690
82278SOL    HW258560   3.951   0.911   4.723 -0.3837  2.6824 -2.5010
82279SOL     OW58561   6.246   2.854  13.595 -0.1043  0.2761 -0.1434
82279SOL    HW158562   6.341   2.849  13.608 -0.0050  0.5756 -0.7366
82279SOL    HW258563   6.210   2.797  13.663  0.4079  1.5747  1.2788
82280SOL     OW58564   1.000   5.218   3.438  0.3143 -0.0155  0.1622
82280SOL    HW158565   0.967   5.128   3.446  1.1434 -0.1640  2.5215
82280SOL    HW258566   1.078   5.220   3.492  0.6697  1.9938 -0.3595
82281SOL     OW58567   5.653  11.751   5.254 -0.4610 -0.6609 -0.3936
82281SOL    HW158568   5.669  11.711   5.340  1.9690  1.1485  0.1115
82281SOL    HW258569   5.624  11.840   5.275  0.6469 -0.0358 -1.4117
82282SOL     OW58570   4.195   9.270  11.024 -0.0974  0.0419 -0.0218
82282SOL    HW158571   4.160   9.182  11.033 -1.2835  0.5168  0.1008
82282SOL    HW258572   4.262   9.276  11.092  0.7984 -1.1226 -0.7426
82283SOL     OW58573   1.013   2.536   4.906 -0.3641 -0.2941  0.3851
82283SOL    HW158574   0.994   2.444   4.887 -1.6091  0.2750 -1.4237
82283SOL    HW258575   1.037   2.537   4.999 -0.2364 -2.4320  0.4376
82284SOL     OW58576   7.802   0.402   3.617 -0.0631 -0.1431  0.4677
82284SOL    HW158577   7.824   0.444   3.700  2.3020 -1.9411  0.8710
82284SOL    HW258578   7.874   0.426   3.558  0.3397 -1.9764  0.1499
82285SOL     OW58579   7.969  13.200  12.461  0.3079 -0.1526 -0.3807
82285SOL    HW158580   8.035  13.156  12.514  0.6989  0.2537 -0.5196
82285SOL    HW258581   7.953  13.141  12.388  0.1766 -0.4614 -0.1023
82286SOL     OW58582   7.164   6.320   7.594 -0.2394 -0.3629  0.6035
82286SOL    HW158583   7.247   6.368   7.594 -1.0214  1.1066 -0.7813
82286SOL    HW258584   7.106   6.372   7.649 -0.8899 -0.0651 -0.3262
82287SOL     OW58585  11.292   0.523   9.194  0.0803  0.2125 -0.2186
82287SOL    HW158586  11.361   0.470   9.234 -1.3042 -0.5368  1.2875
82287SOL    HW258587  11.213   0.468   9.201 -1.0721  1.8151 -0.1009
82288SOL     OW58588   1.654  10.925   3.651  0.3994  0.4663 -0.5482
82288SOL    HW158589   1.629  11.008   3.609  3.3705  1.9309  0.2785
82288SOL    HW258590   1.716  10.951   3.719 -1.4605 -2.1390  2.4199
82289SOL     OW58591   5.214   1.342   9.638  0.7435  0.1452  0.2134
82289SOL    HW158592   5.180   1.431   9.636 -1.2553 -0.5690  0.1971
82289SOL    HW258593   5.246   1.326   9.549 -0.8074  0.1716 -0.3676
82290SOL     OW58594   1.458   3.924   4.307 -0.2682 -0.0691 -0.2875
82290SOL    HW158595   1.429   4.005   4.350 -1.5209 -0.0995 -1.0187
82290SOL    HW258596   1.508   3.953   4.231 -1.0736  0.0490 -0.7877
82291SOL     OW58597   2.552   9.287  10.625  0.3403  0.3801  0.1439
82291SOL    HW158598   2.508   9.210  10.662 -0.0420  0.2281 -0.6081
82291SOL    HW258599   2.631   9.297  10.678 -0.5976  0.6690  1.5404
82292SOL     OW58600   2.023  12.449  11.381  0.4545 -0.1918  0.1750
82292SOL    HW158601   2.016  12.522  11.442  0.4311 -0.0288 -0.0240
82292SOL    HW258602   1.932  12.430  11.356  0.5402  0.3679 -0.5556
82293SOL     OW58603   2.032   1.812  12.381 -0.4139  0.3613 -0.1857
82293SOL    HW158604   1.999   1.729  12.347 -1.1259  0.4108  0.3819
82293SOL    HW258605   1.956   1.868  12.386  0.2045  1.3481 -1.3871
82294SOL     OW58606  12.611   9.227   3.024 -0.0842  0.5261 -0.1065
82294SOL    HW158607  12.646   9.306   3.065  0.1240  0.2157  0.3198
82294SOL    HW258608  12.593   9.252   2.934 -1.7002  1.5917  0.4704
82295SOL     OW58609   0.892   3.620   0.347  0.3867  0.2199  0.3804
82295SOL    HW158610   0.925   3.664   0.426  0.9655 -1.9095  1.4063
82295SOL    HW258611   0.951   3.650   0.277  1.0404  0.7169  1.1221
82296SOL     OW58612  13.483   8.232   4.706  0.2473  0.6382  0.6341
82296SOL    HW158613  13.457   8.283   4.630  0.6626 -0.1680 -0.0771
82296SOL    HW258614  13.579   8.235   4.705  0.2653  0.2347  0.8374
82297SOL     OW58615   6.427   2.691  13.246  0.4389  0.5676  0.2021
82297SOL    HW158616   6.489   2.763  13.251  2.8534 -1.4559  1.3652
82297SOL    HW258617   6.481   2.612  13.235 -1.9250 -1.2693  0.7471
82298SOL     OW58618   6.376  12.490  11.230 -0.0446  0.5841 -0.0358
82298SOL    HW158619   6.400  12.418  11.289  0.1642  1.3280  0.7969
82298SOL    HW258620   6.392  12.454  11.142 -0.7044 -0.6586  0.3204
82299SOL     OW58621   0.290   2.190   7.481  0.6321  0.1261  0.4592
82299SOL    HW158622   0.207   2.165   7.521  0.1922  1.2853  0.2888
82299SOL    HW258623   0.271   2.195   7.387  0.6450  1.2799  0.5044
82300SOL     OW58624   1.243   4.566   8.036 -0.8414  0.2044 -0.3355
82300SOL    HW158625   1.310   4.580   8.103 -1.0033  0.5072 -0.2339
82300SOL    HW258626   1.265   4.628   7.967 -1.5109  0.9261  0.0790
82301SOL     OW58627   4.462   1.491   1.641  0.3596 -0.1329  0.3856
82301SOL    HW158628   4.471   1.431   1.567 -0.0730 -1.0946  1.0804
82301SOL    HW258629   4.368   1.488   1.663 -0.3650  3.3310 -1.5924
82302SOL     OW58630   6.242   3.439   0.186  0.4589 -0.8374 -0.1159
82302SOL    HW158631   6.335   3.455   0.170 -0.2967  0.9700 -4.1120
82302SOL    HW258632   6.210   3.399   0.105 -2.2006 -1.7245  1.2460
82303SOL     OW58633   9.958   0.914  12.218 -0.0738  0.2118 -0.2069
82303SOL    HW158634   9.915   0.997  12.242 -0.2804  0.3306 -0.9810
82303SOL    HW258635   9.942   0.904  12.125  0.2681 -0.5252 -0.1959
82304SOL     OW58636  13.721   6.788   1.357 -0.1138  0.1152  0.6896
82304SOL    HW158637  13.694   6.709   1.403 -1.3473  0.7074  1.0494
82304SOL    HW258638  13.748   6.848   1.427 -0.7971  0.5850  0.5609
82305SOL     OW58639  12.679   2.249   8.271  0.1956  0.4932 -0.0113
82305SOL    HW158640  12.587   2.245   8.244  0.0832  0.8066  0.3212
82305SOL    HW258641  12.679   2.308   8.347  0.3504 -1.2259  1.3739
82306SOL     OW58642   8.192   0.410  11.812  0.1000  0.3382  0.1904
82306SOL    HW158643   8.182   0.470  11.738  1.2542 -0.0101 -0.2654
82306SOL    HW258644   8.118   0.431  11.869 -1.5727 -0.2502 -1.6290
82307SOL     OW58645   4.216   3.843   9.428 -0.1345  0.2055  0.1096
82307SOL    HW158646   4.210   3.747   9.427  0.4955  0.1638 -0.7967
82307SOL    HW258647   4.165   3.869   9.504 -1.8081 -0.7518 -0.6188
82308SOL     OW58648  11.578   6.725  11.458 -0.5258 -1.1284  0.3724
82308SOL    HW158649  11.532   6.646  11.432  0.3518 -2.0656  1.5787
82308SOL    HW258650  11.665   6.716  11.420 -0.8079 -0.1177 -0.5603
82309SOL     OW58651   7.272   2.801  11.959  0.0736  0.6660 -0.2960
82309SOL    HW158652   7.260   2.771  12.049 -1.7471 -1.0530 -1.0373
82309SOL    HW258653   7.336   2.740  11.922 -1.6644 -0.7891 -1.0525
82310SOL     OW58654   0.845   1.228   8.338  0.1702 -0.3438  0.2939
82310SOL    HW158655   0.844   1.216   8.433  0.3650  1.6387  0.5960
82310SOL    HW258656   0.821   1.142   8.302  0.0639 -1.1182  2.1218
82311SOL     OW58657   4.923   5.995  10.077 -0.8504  0.1825  0.2303
82311SOL    HW158658   4.986   5.992  10.004 -2.0376  0.8403 -0.8558
82311SOL    HW258659   4.960   6.061  10.136 -0.1365  0.0336 -0.0328
82312SOL     OW58660  10.937  13.468   3.525  0.2281  0.0823 -0.6962
82312SOL    HW158661  10.848  13.488   3.556  0.0590 -0.5986 -0.7290
82312SOL    HW258662  10.951  13.377   3.550  1.1644  0.3736 -0.1495
82313SOL     OW58663   1.681   0.627  10.853  0.5955 -0.2377  0.6197
82313SOL    HW158664   1.661   0.606  10.944  1.3914 -0.2525  0.7996
82313SOL    HW258665   1.604   0.674  10.822 -0.4559 -1.7750  0.7567
82314SOL     OW58666   6.791  10.138   3.959  0.0965  0.2526 -0.1012
82314SOL    HW158667   6.712  10.161   4.007 -0.2880  0.1509 -0.6755
82314SOL    HW258668   6.760  10.108   3.873  0.5348 -2.7375  0.6662
82315SOL     OW58669   0.091   6.009  12.367 -0.4922  0.1045  0.7167
82315SOL    HW158670   0.161   5.995  12.431  0.1650  2.7558  0.7059
82315SOL    HW258671   0.128   6.070  12.304 -1.8783 -0.7100 -0.9781
82316SOL     OW58672  11.265   0.256   8.989 -0.1071  0.1269  0.1572
82316SOL    HW158673  11.173   0.235   8.978  0.0578 -0.1920 -0.7011
82316SOL    HW258674  11.265   0.345   9.026 -0.7510  0.7497 -1.2773
82317SOL     OW58675   8.063  11.206   4.445 -0.3172 -0.3408 -0.0443
82317SOL    HW158676   8.116  11.285   4.434 -0.2893 -0.5036 -1.1656
82317SOL    HW258677   8.121  11.135   4.418 -0.2825 -0.7894  1.1153
82318SOL     OW58678  10.685   6.595   1.213 -0.2033  0.3845  0.4424
82318SOL    HW158679  10.657   6.514   1.172  0.9968 -0.3433  1.0143
82318SOL    HW258680  10.739   6.638   1.146  1.3764 -0.5883  1.0246
82319SOL     OW58681   2.016   6.638   3.802 -0.6280  0.1982 -0.2571
82319SOL    HW158682   1.952   6.605   3.739 -0.2173  0.7455 -0.9820
82319SOL    HW258683   1.963   6.687   3.866 -0.8642  1.6160 -1.4756
82320SOL     OW58684  11.028   8.517  10.520  0.0800  0.1043 -0.3341
82320SOL    HW158685  11.079   8.436  10.514  0.4314  0.3746 -1.0040
82320SOL    HW258686  10.970   8.515  10.444  0.0548  0.4587 -0.3244
82321SOL     OW58687  10.340  12.826   1.128 -0.0734 -0.4328 -0.1232
82321SOL    HW158688  10.263  12.859   1.176  0.3889 -0.5908  0.7503
82321SOL    HW258689  10.385  12.906   1.099  1.1418 -0.1898  2.1454
82322SOL     OW58690  10.352  11.184   3.203 -0.4144  0.1719 -0.2124
82322SOL    HW158691  10.262  11.153   3.209 -1.0289  1.6652 -1.2030
82322SOL    HW258692  10.353  11.264   3.255  0.2526  0.3193 -0.4456
82323SOL     OW58693   6.618   9.879   6.415 -0.0231  0.2986 -0.1634
82323SOL    HW158694   6.553   9.881   6.345 -0.9984 -0.6346  0.6844
82323SOL    HW258695   6.592   9.806   6.471  1.0026  0.7206  0.9305
82324SOL     OW58696   5.806   2.196   7.782 -0.1794 -0.1762 -0.0011
82324SOL    HW158697   5.733   2.168   7.836  0.3170 -0.1008  0.7181
82324SOL    HW258698   5.853   2.260   7.835 -0.8960  1.5432 -1.3460
82325SOL     OW58699   3.811   5.338  11.761  0.1952  0.1279 -0.9113
82325SOL    HW158700   3.743   5.406  11.764  0.6933  0.6061  0.6056
82325SOL    HW258701   3.787   5.284  11.687 -2.6112 -0.5076  0.3139
82326SOL     OW58702   8.314   1.775   8.604  0.4824  0.1686 -0.1498
82326SOL    HW158703   8.361   1.819   8.533  0.2880  0.8786  0.1569
82326SOL    HW258704   8.324   1.682   8.585 -0.4121  0.3530 -1.6648
82327SOL     OW58705   6.288   0.547   9.479  0.4837 -0.3157 -0.1641
82327SOL    HW158706   6.377   0.519   9.459  1.3599  0.9140  1.7323
82327SOL    HW258707   6.256   0.482   9.542 -0.9835 -2.2085 -2.6862
82328SOL     OW58708   5.688  10.199   5.963  0.0968  0.2437 -0.1171
82328SOL    HW158709   5.665  10.127   5.904  0.8091  0.3959 -0.5890
82328SOL    HW258710   5.779  10.218   5.943 -0.8105  3.2771 -2.1713
82329SOL     OW58711   5.844   6.216   4.033  0.5766 -0.1576  0.1448
82329SOL    HW158712   5.938   6.202   4.039  0.2487 -3.4118 -0.5218
82329SOL    HW258713   5.811   6.198   4.121  0.2599 -3.0489 -0.4827
82330SOL     OW58714   3.009  12.590   0.087  0.2121  0.6987 -0.5020
82330SOL    HW158715   3.083  12.558   0.034 -0.4677  0.4831 -1.3374
82330SOL    HW258716   3.049  12.651   0.149  1.6185 -1.8089  1.2824
82331SOL     OW58717  12.701   7.556   3.796  0.3829  0.1700  0.6354
82331SOL    HW158718  12.607   7.564   3.811  0.1039 -0.7837 -0.4335
82331SOL    HW258719  12.742   7.590   3.876 -0.8955 -0.9551  1.8162
82332SOL     OW58720   6.056   7.466   8.790 -0.2317 -0.3760  0.3103
82332SOL    HW158721   5.968   7.430   8.793 -0.7799  0.7474 -1.1653
82332SOL    HW258722   6.097   7.422   8.715  0.2566 -0.4425  0.6113
82333SOL     OW58723   6.765   3.148  11.348  0.0342  0.6342  0.2262
82333SOL    HW158724   6.796   3.125  11.260  1.0160 -0.3894  0.8124
82333SOL    HW258725   6.776   3.067  11.399 -0.5873  1.1919  1.2761
82334SOL     OW58726   5.392  11.415   8.724  0.0602 -0.7367 -0.3755
82334SOL    HW158727   5.403  11.334   8.773  0.0628 -0.1925  0.5335
82334SOL    HW258728   5.481  11.452   8.718 -0.3096  0.6553  1.7766
82335SOL     OW58729   0.971   4.282   8.088  0.0130 -0.0253  0.1892
82335SOL    HW158730   0.985   4.331   8.169  2.8824  0.7949 -0.7203
82335SOL    HW258731   0.985   4.191   8.112  0.0720  0.1325  0.7559
82336SOL     OW58732   2.426   8.347   4.017 -0.0507  0.2433 -0.3284
82336SOL    HW158733   2.362   8.276   4.028 -1.6153  1.5443 -0.6277
82336SOL    HW258734   2.384   8.407   3.955  1.3669  1.2709 -0.3330
82337SOL     OW58735  12.522   5.469   7.467  0.2412  0.1082 -0.1597
82337SOL    HW158736  12.590   5.443   7.529 -1.2381 -1.1060  1.0329
82337SOL    HW258737  12.440   5.450   7.512 -0.9032  0.7504 -1.8748
82338SOL     OW58738   1.858   7.549   7.295 -0.0218  0.0439  0.3502
82338SOL    HW158739   1.930   7.495   7.327 -0.1492  0.1830  0.8731
82338SOL    HW258740   1.858   7.625   7.353  0.9192  1.2091 -1.0766
82339SOL     OW58741  10.735   2.741   8.887 -0.3464  0.6990 -0.0222
82339SOL    HW158742  10.778   2.680   8.948 -0.8433  1.3999  1.0692
82339SOL    HW258743  10.791   2.741   8.810  1.5131  1.3884  1.2495
82340SOL     OW58744   2.252  12.362  12.885  0.6023  0.2622  0.3701
82340SOL    HW158745   2.170  12.361  12.836  0.6420  0.8719  0.2802
82340SOL    HW258746   2.225  12.370  12.976  0.4154 -3.3930  0.7757
82341SOL     OW58747  10.363  12.243   6.596 -0.6909 -0.1590 -0.2267
82341SOL    HW158748  10.291  12.281   6.546 -2.8113  0.0578  2.7274
82341SOL    HW258749  10.369  12.298   6.675  1.2155 -1.5234  0.6570
82342SOL     OW58750   2.401   2.102   2.710  0.5709  0.3636  0.5242
82342SOL    HW158751   2.389   2.179   2.655  0.6879  0.1146  0.1436
82342SOL    HW258752   2.482   2.062   2.678  0.2863 -0.1517  0.4229
82343SOL     OW58753   3.908   9.977  13.166  0.1927 -0.0289 -0.0379
82343SOL    HW158754   3.885  10.062  13.128  0.1130 -0.5775 -1.2862
82343SOL    HW258755   3.872   9.979  13.254  0.6951  1.4534  0.1606
82344SOL     OW58756   4.311  10.784   6.982 -0.2183  0.1401 -0.5165
82344SOL    HW158757   4.389  10.734   6.957 -1.7482 -1.4575 -2.4378
82344SOL    HW258758   4.238  10.739   6.939 -2.2395  1.5949  1.1257
82345SOL     OW58759   6.550   2.386   2.099 -0.0264 -0.5718  0.0606
82345SOL    HW158760   6.489   2.362   2.169  1.2987 -0.3073  1.3372
82345SOL    HW258761   6.630   2.411   2.144  0.4969  0.7360 -1.5070
82346SOL     OW58762   0.847   7.855  10.280  0.0748  0.0058  0.1797
82346SOL    HW158763   0.879   7.860  10.370 -2.1098 -1.5717  1.1356
82346SOL    HW258764   0.783   7.925  10.273  0.4893  0.3469 -0.2836
82347SOL     OW58765   7.260  10.578   5.912  0.0332  0.3377 -0.1308
82347SOL    HW158766   7.240  10.602   6.003 -0.7829 -2.1997  0.4440
82347SOL    HW258767   7.304  10.655   5.876  0.4188  1.4135  2.4224
82348SOL     OW58768   1.100   1.577   8.018 -0.2889  0.2717  0.0073
82348SOL    HW158769   1.071   1.497   8.064 -1.6511  0.6130 -0.2022
82348SOL    HW258770   1.158   1.545   7.949  0.0943 -0.4316  0.6353
82349SOL     OW58771   2.255  10.690   8.176  0.2610 -0.0945  0.3300
82349SOL    HW158772   2.232  10.733   8.093  1.6910  0.6408  0.2641
82349SOL    HW258773   2.275  10.763   8.235 -0.0803 -0.6304  1.1057
82350SOL     OW58774   6.031  10.026   5.501 -0.6387  0.2489  0.0517
82350SOL    HW158775   5.966  10.005   5.567 -0.8298 -1.5755 -0.6618
82350SOL    HW258776   5.988  10.091   5.444 -1.5891 -0.4478 -0.0402
82351SOL     OW58777   2.570   1.920   5.520  0.5972 -0.8599 -0.3110
82351SOL    HW158778   2.628   1.955   5.453 -2.1870 -0.2388 -2.6198
82351SOL    HW258779   2.571   1.825   5.506  0.0984 -0.7383 -1.1973
82352SOL     OW58780   3.154   9.111   7.550 -0.4040  0.0746  0.4539
82352SOL    HW158781   3.123   9.192   7.590  0.2973  1.0409 -0.8722
82352SOL    HW258782   3.093   9.094   7.478 -0.4467 -0.4844  0.6163
82353SOL     OW58783  10.344   9.251  12.676  0.8975 -0.0206 -0.2162
82353SOL    HW158784  10.267   9.299  12.645 -0.1896 -0.7467  1.2414
82353SOL    HW258785  10.387   9.311  12.737  0.4491 -0.2787  0.3627
82354SOL     OW58786   3.771   1.748   1.549  0.2397  0.4507  0.5118
82354SOL    HW158787   3.820   1.708   1.621 -1.4905 -0.3135  1.3259
82354SOL    HW258788   3.758   1.839   1.575  3.5084  1.5101 -0.9878
82355SOL     OW58789   4.763   4.673   5.540  0.5919 -0.0611  0.6463
82355SOL    HW158790   4.683   4.620   5.530  1.2334 -1.1326  0.9702
82355SOL    HW258791   4.732   4.763   5.545 -0.5951 -0.4570  0.7109
82356SOL     OW58792   9.338  13.130   6.655  0.0038  0.2348  0.4200
82356SOL    HW158793   9.279  13.179   6.713  0.0115  1.5018 -0.5782
82356SOL    HW258794   9.307  13.040   6.659 -1.9793  0.8479 -0.0250
82357SOL     OW58795  10.346   3.791  10.472 -0.2648 -0.3190  0.2933
82357SOL    HW158796  10.430   3.830  10.447  0.0084 -0.9615  0.1941
82357SOL    HW258797  10.350   3.786  10.567  0.2200 -1.2266  0.2393
82358SOL     OW58798   4.782   7.364  10.975 -0.0286  0.2387 -0.3916
82358SOL    HW158799   4.817   7.282  10.939 -0.8297 -0.4755  0.4059
82358SOL    HW258800   4.841   7.432  10.942  0.4369 -0.6135 -1.3678
82359SOL     OW58801   3.145  12.044   8.181 -0.4134 -0.2628  0.1769
82359SOL    HW158802   3.155  12.137   8.204 -0.4805 -0.4649  1.0284
82359SOL    HW258803   3.229  12.005   8.205 -0.0200 -0.2536 -1.0877
82360SOL     OW58804   2.300  10.630   7.523  0.7580 -0.1321 -0.3737
82360SOL    HW158805   2.254  10.624   7.607 -0.6630  1.9893 -0.9277
82360SOL    HW258806   2.297  10.540   7.489 -3.2245 -0.2082 -0.4005
82361SOL     OW58807   9.831   1.317  12.452  0.1529  0.3277 -0.1323
82361SOL    HW158808   9.925   1.301  12.461 -0.1483 -1.5484  0.2591
82361SOL    HW258809   9.803   1.254  12.386 -1.2303 -1.1016  1.6842
82362SOL     OW58810   1.249  11.504   0.900  0.3353  0.1304  0.3746
82362SOL    HW158811   1.176  11.535   0.955  0.8580 -0.3224  1.3591
82362SOL    HW258812   1.304  11.454   0.961  1.2311  0.0906 -0.4598
82363SOL     OW58813   0.818  10.276  13.652 -0.0466  0.0454 -0.1218
82363SOL    HW158814   0.801  10.275  13.746  1.0139 -0.5161  0.0725
82363SOL    HW258815   0.737  10.311  13.614 -0.5771  0.0531  0.9701
82364SOL     OW58816   6.757   6.173  10.943 -0.2098  0.1709  0.3931
82364SOL    HW158817   6.739   6.089  10.900  1.2382 -0.3201  0.6844
82364SOL    HW258818   6.673   6.219  10.941 -1.2064 -1.5131  0.7475
82365SOL     OW58819   6.879  11.775  12.701  0.0714 -0.0992 -0.2798
82365SOL    HW158820   6.887  11.719  12.778  3.5873 -0.6115 -0.8609
82365SOL    HW258821   6.823  11.847  12.731 -0.0547 -1.1162  2.2207
82366SOL     OW58822   3.396  12.169   0.413 -0.2979 -0.0607 -0.1752
82366SOL    HW158823   3.355  12.205   0.492 -1.0983 -0.1781 -0.5280
82366SOL    HW258824   3.408  12.244   0.356 -0.6999 -0.1298 -0.3585
82367SOL     OW58825   3.273   7.120   9.635 -0.3213  0.0917 -0.5051
82367SOL    HW158826   3.328   7.194   9.660 -0.4262  0.0120 -0.0332
82367SOL    HW258827   3.199   7.123   9.697 -0.5595 -0.1328 -0.7768
82368SOL     OW58828   1.062   8.736   6.316  0.5600  0.8186  0.6370
82368SOL    HW158829   1.117   8.787   6.257  1.2756  0.0459  0.6232
82368SOL    HW258830   0.980   8.724   6.268  0.0491  2.6552  0.9771
82369SOL     OW58831   3.005   8.618   0.496  0.7417  0.5429  0.1159
82369SOL    HW158832   2.946   8.669   0.439 -1.9169 -1.8329  0.5229
82369SOL    HW258833   3.002   8.664   0.580  2.4376  2.4691 -0.8034
82370SOL     OW58834  11.394   7.523   2.245 -0.0023  0.0377  0.5547
82370SOL    HW158835  11.364   7.612   2.265  1.8069  0.8595 -0.1816
82370SOL    HW258836  11.483   7.519   2.280  0.0111 -1.4316  0.4145
82371SOL     OW58837   7.716  12.985   2.536 -0.2887 -0.0968 -0.1618
82371SOL    HW158838   7.779  12.928   2.493  0.1442  1.1217 -1.1898
82371SOL    HW258839   7.681  13.040   2.466 -1.4340  0.2250  0.6343
82372SOL     OW58840   3.335  12.603   3.036 -0.0111 -0.2605 -0.1201
82372SOL    HW158841   3.260  12.609   2.976 -0.7793  2.7084  0.9988
82372SOL    HW258842   3.411  12.628   2.982 -0.5751  1.5717 -0.1150
82373SOL     OW58843   5.576  12.253  12.702 -0.4299 -0.1480 -1.2090
82373SOL    HW158844   5.538  12.276  12.787 -0.8447  0.5902 -1.5817
82373SOL    HW258845   5.564  12.331  12.649  0.7093 -0.2632 -1.6552
82374SOL     OW58846   0.417   9.428   7.655  0.1343 -0.0869 -0.1035
82374SOL    HW158847   0.326   9.412   7.679  0.8180 -1.2195  1.8972
82374SOL    HW258848   0.429   9.522   7.668 -0.1330 -0.3093  2.0030
82375SOL     OW58849   5.389   9.696   9.788  0.6927 -0.5730  0.2265
82375SOL    HW158850   5.398   9.609   9.826  0.0868 -0.2574  1.1203
82375SOL    HW258851   5.296   9.703   9.765  1.0297 -0.7398 -1.3159
82376SOL     OW58852   4.003   8.209   9.671  0.0693 -0.2349 -0.5111
82376SOL    HW158853   3.940   8.214   9.599 -1.3008  3.4442  0.6940
82376SOL    HW258854   3.950   8.186   9.747  0.5503  0.7651  0.1454
82377SOL     OW58855   1.369   9.191  12.269 -0.4881 -0.2690 -0.1037
82377SOL    HW158856   1.324   9.125  12.217  1.2821 -2.4086  0.9120
82377SOL    HW258857   1.443   9.218  12.215  1.0802 -2.1464  0.9921
82378SOL     OW58858   1.305   1.896   9.987 -0.1636 -0.4353 -0.0909
82378SOL    HW158859   1.230   1.891   9.928  0.1121 -0.3381 -0.4570
82378SOL    HW258860   1.271   1.870  10.072 -1.0172  1.2931  0.1361
82379SOL     OW58861   3.901   9.814  10.556 -0.3498  0.6737  0.5806
82379SOL    HW158862   3.812   9.809  10.522 -0.4846  0.1238  0.9965
82379SOL    HW258863   3.891   9.850  10.644 -0.1919  0.3688  0.7262
82380SOL     OW58864  10.053  11.266   0.328 -0.5762 -0.3781 -0.5098
82380SOL    HW158865  10.127  11.294   0.383 -0.3794 -1.7902 -0.0139
82380SOL    HW258866  10.079  11.289   0.239  0.0810 -0.0947 -0.2498
82381SOL     OW58867   9.832   4.090  11.839 -0.2404  0.5363 -0.2384
82381SOL    HW158868   9.874   4.009  11.868  0.4883  0.9019 -0.2451
82381SOL    HW258869   9.878   4.159  11.888 -0.7756  0.9517 -0.3187
82382SOL     OW58870   9.155   7.883  13.493  0.1149  0.2342  0.0932
82382SOL    HW158871   9.113   7.964  13.467 -0.0406  0.1409  0.0479
82382SOL    HW258872   9.106   7.815  13.447 -0.3474  0.0478  0.8450
82383SOL     OW58873   4.684  12.692   7.657  0.4509 -0.7530  0.0574
82383SOL    HW158874   4.639  12.770   7.690  1.4687  0.1109 -0.5307
82383SOL    HW258875   4.744  12.668   7.728 -0.8117 -1.8466  0.8006
82384SOL     OW58876   9.945   6.780  11.533 -0.0814 -0.5242 -0.1126
82384SOL    HW158877  10.030   6.802  11.571  0.1954 -0.8078 -0.5618
82384SOL    HW258878   9.885   6.844  11.571  0.2086 -0.7351  0.7184
82385SOL     OW58879   1.155  10.256   8.308 -0.2894 -0.6219  0.2097
82385SOL    HW158880   1.196  10.244   8.394  0.3928  0.7665  0.0937
82385SOL    HW258881   1.073  10.300   8.327 -0.6438 -1.2681  0.2248
82386SOL     OW58882   1.779   5.064   0.027  0.2644 -0.1304 -0.7799
82386SOL    HW158883   1.850   5.118  -0.008  0.8475 -1.4850 -1.8071
82386SOL    HW258884   1.817   5.020   0.103  0.3111 -0.3187 -0.9109
82387SOL     OW58885   8.334  12.684  10.982 -0.2236 -0.0874  0.4527
82387SOL    HW158886   8.428  12.698  10.972 -0.0667 -1.2538  0.2084
82387SOL    HW258887   8.327  12.602  11.030 -1.1111  0.6249  1.6138
82388SOL     OW58888  12.991  13.454   9.567 -0.3898  0.1516  0.2106
82388SOL    HW158889  13.077  13.495   9.571 -0.7436  0.8284  1.6098
82388SOL    HW258890  12.972  13.429   9.658 -1.4649 -0.4240 -0.1518
82389SOL     OW58891   0.248   0.482  12.219 -0.3500  0.6722  0.6117
82389SOL    HW158892   0.168   0.429  12.212 -0.0264  0.4074 -1.6576
82389SOL    HW258893   0.244   0.543  12.145  2.0489 -0.0986 -0.2565
82390SOL     OW58894   2.450  13.249   2.889  0.0134  0.5204 -0.0080
82390SOL    HW158895   2.467  13.278   2.800 -0.0196 -1.0417 -0.5592
82390SOL    HW258896   2.431  13.155   2.881 -2.1618  0.7545  1.3598
82391SOL     OW58897  12.706   5.581   5.649 -0.2954 -0.7526 -0.0357
82391SOL    HW158898  12.791   5.608   5.614  0.0034 -0.7721  0.6631
82391SOL    HW258899  12.686   5.499   5.603 -0.0058 -0.6820 -0.2926
82392SOL     OW58900   5.138   1.676  12.402 -0.0681 -0.1722 -0.4826
82392SOL    HW158901   5.229   1.651  12.416 -0.1559  0.7439  2.1372
82392SOL    HW258902   5.141   1.769  12.379 -0.3417 -0.1532 -0.4489
82393SOL     OW58903   8.076   7.621  12.932 -1.4385  0.1329 -0.0229
82393SOL    HW158904   8.045   7.531  12.919  0.5781 -0.4795 -0.9448
82393SOL    HW258905   8.046   7.668  12.854  1.1116 -0.8521 -1.7492
82394SOL     OW58906   8.411   1.193   8.466  0.4109 -0.7692 -0.0552
82394SOL    HW158907   8.402   1.117   8.408 -2.0959 -0.9143  0.4286
82394SOL    HW258908   8.330   1.193   8.518  1.1240  1.2628  1.1457
82395SOL     OW58909   2.010   1.139   6.159  0.1289  0.0406 -0.3988
82395SOL    HW158910   2.006   1.060   6.213 -0.7458  0.1726 -0.2628
82395SOL    HW258911   1.991   1.109   6.070 -1.7821  0.3043 -0.1186
82396SOL     OW58912   3.432   9.590   2.412  0.0396 -0.6429 -0.2965
82396SOL    HW158913   3.489   9.642   2.355  0.1216 -2.1285 -1.6580
82396SOL    HW258914   3.481   9.509   2.428 -0.1437 -0.4200  1.6321
82397SOL     OW58915   9.886   2.497   9.446  0.3474 -0.3919  0.1298
82397SOL    HW158916   9.894   2.462   9.357  0.2653 -0.1626  0.0309
82397SOL    HW258917   9.861   2.589   9.433 -0.9643 -0.6865  0.3949
82398SOL     OW58918   4.132   1.616   3.013  0.2180 -0.2832 -0.1510
82398SOL    HW158919   4.074   1.573   2.950  0.0845 -1.7145  0.9059
82398SOL    HW258920   4.219   1.605   2.976  0.0165  0.1232 -0.7659
82399SOL     OW58921   6.848   1.090   1.974  0.0136  0.1385 -0.0918
82399SOL    HW158922   6.938   1.106   1.946 -0.0844  2.8580  0.9070
82399SOL    HW258923   6.813   1.031   1.907  1.3962  2.0755 -2.6944
82400SOL     OW58924   0.644   2.539   9.504 -0.0899  0.0063 -0.3514
82400SOL    HW158925   0.661   2.445   9.496 -1.0698 -0.1485 -0.9008
82400SOL    HW258926   0.550   2.544   9.524 -0.0717  0.8733 -0.4537
82401SOL     OW58927  11.341  12.958   6.914 -0.3096  0.4187  0.2293
82401SOL    HW158928  11.357  12.874   6.872  0.9772  1.4618 -1.4940
82401SOL    HW258929  11.246  12.960   6.929 -0.7451 -0.3391 -1.9996
82402SOL     OW58930   0.182   8.603   3.833 -0.1841  0.1733  0.0673
82402SOL    HW158931   0.162   8.627   3.923  1.6116  0.3883  0.4357
82402SOL    HW258932   0.248   8.534   3.841  0.1089  0.3053 -1.0854
82403SOL     OW58933  13.447   1.256  10.760 -0.0366 -0.4482 -0.0149
82403SOL    HW158934  13.354   1.277  10.762  0.1583  0.5431  2.1906
82403SOL    HW258935  13.456   1.180  10.818  0.6426  0.2310  0.8035
82404SOL     OW58936   8.043  10.546   4.482 -0.3155 -0.1121  0.0621
82404SOL    HW158937   8.066  10.628   4.526 -2.4433  1.0516 -0.8089
82404SOL    HW258938   8.124  10.519   4.438  0.7058  0.9671  1.1865
82405SOL     OW58939  12.613   5.666   0.385 -0.2425 -0.1151 -0.1508
82405SOL    HW158940  12.601   5.718   0.464  0.1002  2.0510 -1.4510
82405SOL    HW258941  12.679   5.714   0.334 -0.4231 -1.4550 -1.7390
82406SOL     OW58942  10.142   0.949  10.419  0.0383  0.1175  0.1263
82406SOL    HW158943  10.168   0.889  10.349  0.5188  0.2708  0.1697
82406SOL    HW258944  10.072   0.903  10.465 -0.5937  0.1972 -0.7261
82407SOL     OW58945   5.967   8.834   4.560 -0.0635 -0.3217  0.2918
82407SOL    HW158946   5.921   8.760   4.521  0.4539  0.4137 -1.8705
82407SOL    HW258947   6.046   8.797   4.598 -0.9576 -1.1732  1.3885
82408SOL     OW58948   3.430  11.312   9.234  0.4647  0.1513 -0.2608
82408SOL    HW158949   3.351  11.362   9.258  0.4681 -0.0476  0.1853
82408SOL    HW258950   3.502  11.361   9.274  0.5340  0.1505 -0.3851
82409SOL     OW58951   4.340   7.394   3.337  0.0778 -0.1657  0.3588
82409SOL    HW158952   4.377   7.306   3.343  0.5116  0.0065  0.2238
82409SOL    HW258953   4.409   7.447   3.297 -1.1765 -0.3775 -2.3359
82410SOL     OW58954   2.100  11.435   1.248 -0.3545  0.3230 -0.0751
82410SOL    HW158955   2.056  11.441   1.333 -1.5384  0.0692 -0.6435
82410SOL    HW258956   2.045  11.376   1.197  0.8240 -0.2306 -0.7363
82411SOL     OW58957   1.623   6.328   0.776 -0.0661  0.6629 -0.0415
82411SOL    HW158958   1.617   6.373   0.692 -0.2003  1.4921  0.3982
82411SOL    HW258959   1.644   6.237   0.754  0.3834  0.9792 -0.9407
82412SOL     OW58960  12.022  13.482   7.246  0.2990  0.4411  0.4818
82412SOL    HW158961  11.996  13.488   7.154  0.9306  0.6465  0.3139
82412SOL    HW258962  11.965  13.414   7.283  0.5773 -0.2045 -0.2495
82413SOL     OW58963   9.789   6.088   3.513 -0.2668  0.2032  0.1263
82413SOL    HW158964   9.699   6.107   3.486 -0.2357  1.5725  0.9151
82413SOL    HW258965   9.826   6.173   3.535  1.4809 -0.2481 -0.8911
82414SOL     OW58966   3.159   6.362  12.485 -0.2701  0.3615  0.2060
82414SOL    HW158967   3.116   6.301  12.426 -0.5790  0.1808  0.6090
82414SOL    HW258968   3.137   6.330  12.573 -0.9825  1.4138  0.4364
82415SOL     OW58969   2.799   1.095   9.750  0.2346  0.1130 -0.1826
82415SOL    HW158970   2.816   1.041   9.827  0.4772 -2.0154 -1.6514
82415SOL    HW258971   2.712   1.131   9.765 -0.9167 -2.5192 -0.1122
82416SOL     OW58972   5.886   6.780  11.815 -0.2252  0.1291 -0.2744
82416SOL    HW158973   5.812   6.720  11.810 -0.4362  0.3263  0.3626
82416SOL    HW258974   5.846   6.867  11.820  0.0470  0.2336  0.1256
82417SOL     OW58975  10.345   7.807   6.999 -0.3604  0.4571 -0.0710
82417SOL    HW158976  10.266   7.784   7.047 -0.4473 -0.0413 -0.4461
82417SOL    HW258977  10.314   7.833   6.912 -0.0204 -0.9518 -0.6337
82418SOL     OW58978   4.047  11.799   3.675 -0.4817 -0.6913 -0.1932
82418SOL    HW158979   4.018  11.779   3.586  1.9256  0.7784 -1.4337
82418SOL    HW258980   4.040  11.895   3.681  1.3522 -0.5467  0.3625
82419SOL     OW58981   1.344   5.945   0.423 -0.1855  0.3843 -0.2878
82419SOL    HW158982   1.358   5.914   0.513 -1.4448 -1.5123 -0.6915
82419SOL    HW258983   1.332   6.040   0.433  0.0267  0.2717  1.4974
82420SOL     OW58984  11.049   9.907   0.715  0.0961  0.1667  0.3184
82420SOL    HW158985  11.035   9.863   0.798 -3.2807  1.3715  0.5573
82420SOL    HW258986  11.101   9.985   0.737  1.5964 -0.9102  0.7479
82421SOL     OW58987   4.258   0.235   7.492 -0.2503  0.7343  0.4978
82421SOL    HW158988   4.303   0.217   7.574 -0.7484  0.4214  0.7111
82421SOL    HW258989   4.217   0.151   7.469 -2.7880  1.5599  1.5921
82422SOL     OW58990   6.956   0.239  11.946  0.6571 -0.2779  0.2829
82422SOL    HW158991   6.938   0.325  11.908 -0.9740 -0.4440  0.5995
82422SOL    HW258992   6.918   0.177  11.885 -1.1107 -0.5908  1.6155
82423SOL     OW58993  10.297  11.269  11.844 -0.3825  0.2709 -0.0505
82423SOL    HW158994  10.364  11.225  11.792 -0.5195 -0.8874  0.6982
82423SOL    HW258995  10.346  11.313  11.914 -0.1441  2.3588 -1.4541
82424SOL     OW58996   8.121  10.461   4.089  0.1266  0.4120 -0.3407
82424SOL    HW158997   8.161  10.441   4.174  0.2276 -1.0682 -0.7039
82424SOL    HW258998   8.101  10.375   4.051 -5.1607  0.8864  0.6148
82425SOL     OW58999  10.956  10.635  10.627  0.2444  0.4519  0.1254
82425SOL    HW159000  11.014  10.587  10.568 -0.7028  1.0352 -1.3488
82425SOL    HW259001  10.904  10.567  10.670  1.0827  0.0026  0.4327
82426NA      NA59002   3.056   3.568   1.594 -0.3045  0.0670  0.5925
82427NA      NA59003   4.649   4.948  13.429  0.3797 -0.5786  0.2227
82428NA      NA59004   2.173  12.197   1.381  0.1672 -0.5955 -0.5084
82429NA      NA59005   8.371   8.127   4.153  0.2691  0.0479  0.4397
82430NA      NA59006   4.401   7.007  13.104  0.2335 -0.5179  0.6388
82431NA      NA59007   0.619  11.293  12.555  0.0048  0.2250  0.1555
82432NA      NA59008   3.611  11.619  12.794 -0.4134 -0.7768  0.0071
82433NA      NA59009  12.739   7.815   2.993 -0.2870 -0.0679  0.0727
82434NA      NA59010   7.538  10.642   0.839 -0.1131  0.0562  0.0513
82435NA      NA59011   3.332   0.315   9.809 -0.2573 -0.1372  0.2769
82436NA      NA59012   6.338  12.520  13.416  0.1584 -0.1175 -0.4131
82437NA      NA59013   6.377   1.539   2.260  0.1946 -0.1117  0.8976
82438NA      NA59014  13.014   5.918   4.183  0.1910 -0.0572 -0.3393
82439NA      NA59015  12.842  10.746   0.739 -0.7358  0.2792  0.2767
82440NA      NA59016   7.509   1.405   4.983  0.1244  0.0110  0.1664
82441NA      NA59017   0.088   4.179   6.233 -0.0955  0.0313  0.4300
82442NA      NA59018  12.167   8.583   9.478 -0.1717  0.2985 -0.1687
82443NA      NA59019  10.088   7.159   6.379 -0.1604 -0.6229  0.3117
82444NA      NA59020  12.530   2.954   4.669 -0.0882  0.1910  0.2467
82445NA      NA59021   6.531   8.813   7.094  0.1031  0.0119 -0.3331
82446NA      NA59022   9.558  12.341   8.044  0.3137 -0.2076 -0.0670
82447NA      NA59023   6.375   4.654   6.572 -0.2632 -0.0463  0.1122
82448NA      NA59024   7.988   4.749   2.724 -0.2518  0.2052 -0.1253
82449NA      NA59025   0.414   3.572   1.924 -0.4300 -0.0791 -0.1037
82450NA      NA59026   6.454   5.677   1.682  0.2976  0.2502  0.5844
82451NA      NA59027   2.654   4.178   3.879  0.0889  0.1529  0.4216
82452NA      NA59028  11.019   4.613  11.622 -0.1473  0.0946  0.4807
82453NA      NA59029   1.526   6.785   8.795  0.5200 -0.0592  0.0286
82454NA      NA59030  11.780   3.550  10.069 -0.3905  0.3127  0.0713
82455NA      NA59031   4.750   0.297  11.145  0.3049  0.6536 -0.4276
82456NA      NA59032   8.331   5.329  13.535  0.3310 -0.2886  0.1495
82457NA      NA59033   8.772   7.266  13.345  0.2085  0.2260  0.3331
82458NA      NA59034  12.480  12.859   1.662  0.0831 -0.0236 -0.0278
82459NA      NA59035   1.780  12.777   8.573  0.2415  0.4846  0.1681
82460NA      NA59036   4.191   8.857  11.036 -0.2227 -0.0162 -0.3298
82461NA      NA59037  12.730   0.248  10.696 -0.0775  0.3019 -0.6153
82462NA      NA59038   0.600   1.968   5.785  0.5758  0.6051 -0.1449
82463NA      NA59039   7.177  10.330   4.139 -0.1396  0.0604 -0.0874
82464NA      NA59040  12.840   5.940  10.365 -0.3110 -0.6512  0.1599
82465NA      NA59041   3.439   6.679  12.421  0.6012 -0.3082  0.1694
82466NA      NA59042   8.792   2.219  11.471 -0.2309  0.2256  0.4049
82467NA      NA59043   7.149   1.707  10.294  0.0939  0.1255  0.1586
82468NA      NA59044   9.710  12.692   8.469 -0.3005 -0.0918  0.5907
82469NA      NA59045  10.643  12.300   2.962  0.5899  0.1471 -0.3067
82470NA      NA59046   3.382   5.631   4.998 -0.2057  0.3523  0.0418
82471NA      NA59047   1.976   3.991   1.377  0.1968 -0.2104  0.1514
82472NA      NA59048   1.978   8.228   8.625 -0.1019  0.2339 -0.4283
82473NA      NA59049   6.163   8.453   0.817 -0.3496  0.0175  0.3117
82474NA      NA59050  13.141  11.520   6.618 -0.1105  0.3605  0.1095
82475NA      NA59051   1.601   2.982   4.680  0.3184  0.3031 -0.2352
82476NA      NA59052   6.460   0.975  13.090 -0.3170  0.0248 -0.7590
82477NA      NA59053   2.562   2.989  13.287 -0.2208  0.4053 -0.7869
82478NA      NA59054   4.906   7.728   5.906  0.0866  0.0890 -0.2684
82479NA      NA59055   3.383  11.117   9.171 -0.2514  0.3140 -0.6137
82480NA      NA59056   6.665   2.904   2.612 -0.0761 -0.2760 -0.3637
82481NA      NA59057   3.735   6.930   9.140  0.0236  0.4699 -0.4268
82482NA      NA59058   4.388   9.586   0.818 -0.6035 -0.0965 -0.5850
82483NA      NA59059   0.140  13.511   5.565  0.0292 -0.3504  0.2074
82484NA      NA59060  11.316   5.198   0.034  0.6027 -0.2087  0.0088
82485NA      NA59061   3.647   6.140   8.519  0.0269 -0.0589  0.0077
82486NA      NA59062  13.573  12.742  10.545  0.2337 -0.5412 -0.0761
82487NA      NA59063   1.812   4.975   2.851  0.0347 -0.0219 -0.1286
82488NA      NA59064   6.489  11.302   6.023 -0.7402  0.2682 -0.0399
82489NA      NA59065   4.063   4.042  10.680  0.1565  0.1014  0.1245
82490NA      NA59066   0.733   6.298   3.692  0.3671  0.3911 -0.0672
82491NA      NA59067  10.288   4.384   1.677  1.0316 -0.3458  0.2326
82492NA      NA59068   5.192   2.102   3.260 -0.3932  0.1445  0.2574
82493NA      NA59069   2.483  12.166  12.115 -0.3309  0.0049 -0.1091
82494NA      NA59070   2.842   1.325   4.876 -0.1105 -0.0990  0.0111
82495NA      NA59071   8.779   0.067   0.584 -0.1911 -0.2054  0.0337
82496NA      NA59072   7.519   4.861   7.220  0.3414  0.0748 -0.5057
82497NA      NA59073   0.250   0.692   9.405 -0.0474 -0.6741 -0.4740
82498NA      NA59074   0.701   6.824   6.025  0.4396  0.8070 -0.0042
82499NA      NA59075   8.808   4.640   5.729 -0.1031 -0.0825  0.2843
82500NA      NA59076   3.912   4.768   8.860  0.2626 -0.0063 -0.0435
82501NA      NA59077   1.926  10.372   2.909  0.2714  0.1295 -0.6293
82502NA      NA59078   9.639   4.402  10.566 -0.2926  0.4840 -0.4024
82503NA      NA59079   6.018   5.570  12.623  0.2630  0.4788 -0.2452
82504NA      NA59080  13.187   1.235   2.412  0.0702  0.0152 -0.3436
82505NA      NA59081  12.677   8.318   8.503  0.2254  0.1370 -0.1085
82506NA      NA59082   7.019   2.489   6.712 -0.1106 -0.0759 -0.3431
82507NA      NA59083   0.932   9.855  10.852  0.1385  0.3251  0.2595
82508NA      NA59084   0.422  13.708  13.014  0.5790  0.2050  0.0635
82509NA      NA59085   5.626   1.959  11.025  0.1426 -0.2134 -0.5943
82510NA      NA59086   2.157   5.136   3.252  0.0231  0.2617 -0.1370
82511NA      NA59087  10.374   5.839   1.801 -0.6820  0.4438  0.2685
82512NA      NA59088  11.028   0.177   0.598 -0.0836  0.4575  0.1738
82513NA      NA59089  12.279   6.931   6.789 -0.0181  0.0317 -0.1105
82514NA      NA59090  10.642   0.847   7.436  0.3858 -0.1498  0.0860
82515NA      NA59091   3.888  11.298   0.634 -0.1923 -0.3286 -0.1351
82516NA      NA59092   6.978   0.349   9.747  0.0527  0.1985  0.6741
82517NA      NA59093  13.646   3.429   7.065  0.0241 -0.5658  0.1594
82518NA      NA59094  10.631   8.903   6.763  0.0356  0.1575 -0.3736
82519NA      NA59095   7.364   9.229   9.558 -0.0052 -0.1655  0.6537
82520NA      NA59096  13.641  12.814   0.405  0.1124 -0.2976  0.3594
82521NA      NA59097   1.831   0.548   6.918  0.8080 -0.2456 -0.0544
82522NA      NA59098  10.618  10.574   5.597 -0.6043 -0.5346  0.0489
82523NA      NA59099   0.738   0.305  13.384 -0.1370 -0.0749  0.2787
82524NA      NA59100  11.875   0.915   1.316  0.1495  0.2483 -0.3365
82525NA      NA59101  11.108   4.668  10.557  0.0560 -0.0636  0.3421
82526NA      NA59102   8.960   4.793  11.126  0.2424 -0.0760 -0.2054
82527NA      NA59103   5.251   7.834  10.647  0.3879 -0.6052  0.0381
82528NA      NA59104  10.949   6.908   4.990 -0.6853 -0.1254 -0.4305
82529NA      NA59105  13.226  10.417  13.472  0.1203  0.7654 -0.0284
82530NA      NA59106  11.303   5.446   7.796  0.2134  0.2311 -0.6504
82531NA      NA59107   7.459   1.126  11.417  0.2375 -0.3394 -0.2248
82532NA      NA59108   6.868   3.945   6.729  0.5660 -0.0252  0.1900
82533NA      NA59109   4.807  12.697   1.084  0.0894  0.0741  0.3647
82534NA      NA59110   2.066   4.139  11.582 -0.1965  0.0196 -0.3614
82535NA      NA59111  11.081  10.631  13.095  0.2455  0.0416  0.1519
82536NA      NA59112   3.511   2.254   1.074 -0.0683  0.3084  0.2381
82537NA      NA59113   0.203  11.670   6.448 -0.2556  0.4761  0.2320
82538NA      NA59114   9.236   0.353   6.466 -0.0079 -0.3798 -0.2059
82539NA      NA59115   1.635   0.710   1.261 -0.3633 -0.6254 -0.1849
82540NA      NA59116  13.125   0.828   7.329 -0.5746  0.2778 -0.0792
82541NA      NA59117   3.829   1.858   0.497  0.3171  0.2876  0.4360
82542NA      NA59118   1.368   9.053   3.377 -0.0053 -0.2588  0.3283
82543NA      NA59119  11.382   9.663   0.417 -0.1159  0.1404 -0.2397
82544NA      NA59120  12.642  12.062   2.372  0.0098  0.1744 -0.0505
82545NA      NA59121   5.702   2.051  12.052 -0.2649 -0.2461  0.2818
82546NA      NA59122   9.556   1.918   6.809  0.3908 -0.4960  0.1313
82547NA      NA59123   2.135  11.011   0.114 -0.0588 -0.2427 -0.2452
82548NA      NA59124  13.035   5.320   9.426  0.3168  0.3193  0.2432
82549NA      NA59125   5.950   8.484   7.934 -0.2514 -0.1038 -0.0460
82550NA      NA59126   0.741   8.470   7.492  0.0673  0.2692 -0.1061
82551NA      NA59127   5.234  10.301   0.258  0.0812  0.4727 -0.1653
82552NA      NA59128   2.420   2.250  10.501  0.8846  0.2570 -0.2095
82553NA      NA59129   3.187   9.049  13.604  0.0978  0.0971 -0.2714
82554NA      NA59130  12.048  13.659   7.345 -0.0729 -0.0094 -0.2328
82555NA      NA59131   7.959   1.068   6.941  0.1686  0.6574 -0.4032
82556NA      NA59132   8.505   7.327   1.652  0.3175  0.2552 -0.4602
82557NA      NA59133   7.273   0.199  10.944 -0.0725 -0.1492 -0.1628
82558NA      NA59134  12.519   7.227   1.893  0.1972  0.0164 -0.1046
82559NA      NA59135  12.259   5.252   8.739  0.2126  0.3111 -0.2757
82560NA      NA59136   7.501   9.618   3.559 -0.4817 -0.4976  0.4350
82561NA      NA59137  11.765   8.065   5.522  0.1074 -0.1431  0.3220
82562NA      NA59138   7.090   4.905   9.614  0.1490 -0.2915 -0.0365
82563NA      NA59139  11.625   9.744  12.439 -0.2201  0.1521  0.0474
82564NA      NA59140   3.756  11.300   5.765  0.2076 -0.2443  0.3026
82565NA      NA59141  13.460   4.514   5.827  0.0716 -0.3376  0.0048
82566NA      NA59142   7.582   7.682   9.905 -0.0418  0.1716  0.4403
82567NA      NA59143   8.723   7.546   7.331 -0.4585 -0.0262 -0.2686
82568NA      NA59144   7.052   8.742   2.341  0.2980 -0.3423  0.4436
82569NA      NA59145   6.780   6.081   7.521  0.3036  0.2096  0.1130
82570NA      NA59146  11.869  12.947   7.778  0.2741  0.4354 -0.1756
82571NA      NA59147   0.299   5.770   6.555 -0.4306  0.1427 -0.3115
82572NA      NA59148   6.449   4.057   5.289  0.0499  0.0838 -0.0143
82573NA      NA59149   7.809   3.096   7.353  0.4636 -0.4812  0.0072
82574NA      NA59150  11.860   4.718  11.733 -0.1478  0.1314 -0.1888
82575NA      NA59151   9.970   3.595   6.946  0.0547  0.3736 -0.2760
82576NA      NA59152   9.963   2.419   3.226  0.1604 -0.1303 -0.0557
82577NA      NA59153   9.359   6.055   2.311  0.3972  0.1135  0.2638
82578NA      NA59154   4.667   0.637   7.655 -0.1794  0.5445 -0.0552
82579NA      NA59155   5.149  12.175   8.258 -0.4321 -0.3951  0.1979
82580NA      NA59156   5.090   2.736   1.993 -0.1224  0.7108 -0.0962
82581NA      NA59157   1.826   4.451   2.362  0.4670  0.1459 -1.0310
82582NA      NA59158   4.714   9.004   0.493  0.1677 -0.4070  0.2004
82583NA      NA59159  13.147   8.882   0.965  0.3804 -0.4044  0.2186
82584NA      NA59160   2.702   7.768   2.351 -0.3057 -0.2637  0.2592
82585NA      NA59161   1.496   9.022   1.326 -0.1159  0.1058  0.1494
82586NA      NA59162  11.923  11.000   9.546 -0.2356 -0.2962  0.1453
82587NA      NA59163   5.799  13.340  12.161  0.2176  0.1902 -0.1823
82588NA      NA59164   4.126   8.318   2.542 -0.0013 -0.0981  0.7290
82589NA      NA59165   0.798   3.318   1.036 -0.7221  0.1394  0.4852
82590NA      NA59166   2.674   0.428  12.589 -0.2825 -0.1751 -0.4547
82591NA      NA59167   8.382   4.686  10.287  0.3477 -0.1171 -0.0090
82592NA      NA59168   3.416   3.005   3.285 -0.3586  0.2755  0.0627
82593NA      NA59169   7.468   5.969   1.513 -0.2368  0.1193  0.0395
82594NA      NA59170   4.610   8.645   8.821  0.4094 -0.2465 -0.3645
82595NA      NA59171   2.122  10.237   6.660 -0.0315 -0.0262  0.5779
82596NA      NA59172   3.047   6.571   9.668  0.0821  0.4348 -0.6730
82597NA      NA59173   2.541  12.783  10.461  0.0066 -0.0688 -0.7305
82598NA      NA59174   5.950   2.386   5.589 -0.0423  0.3039 -0.7492
82599NA      NA59175   1.400   0.119   4.187 -0.3472 -0.0565  0.3368
82600NA      NA59176   0.960   2.611   4.249  0.2529 -0.1834  0.5670
82601NA      NA59177  13.066   1.798  11.568 -0.0162 -0.0684  0.5035
82602NA      NA59178   4.117   4.799  10.726 -0.2017 -0.2587 -0.3647
82603NA      NA59179   1.173   9.188   5.374 -0.3174  0.9696 -0.0131
82604NA      NA59180  12.502   9.769   6.958 -0.0211 -0.1851  0.2593
82605NA      NA59181   8.261   6.759   6.840 -0.0534 -0.5023  0.2128
82606NA      NA59182  12.956  12.329   4.295 -0.0988  0.3279 -0.0040
82607NA      NA59183   3.230  11.686  12.346  0.7234  0.0667 -0.0975
82608NA      NA59184   9.263   3.270   6.660  0.6838 -0.0712  0.3261
82609NA      NA59185   1.830   9.891  10.495  0.4907  0.1547 -0.0656
82610NA      NA59186   4.553  11.409   6.350 -0.0714  0.5360  0.3753
82611NA      NA59187   8.823   3.998   9.466 -0.6460  0.6062  0.1609
82612NA      NA59188   3.654   1.550  10.728 -0.2944  0.1251  0.1788
82613NA      NA59189   8.947   4.533   0.205  0.0779  0.6857  0.3237
82614NA      NA59190   5.438   8.038   4.048 -0.6147  0.3031  0.1744
82615NA      NA59191   1.207   6.520   2.086  0.4301  0.3862  0.3094
82616NA      NA59192  10.751   7.601   1.861  0.3566 -0.2573 -0.2075
82617NA      NA59193   9.246   1.837   0.963 -0.0289  0.1420 -0.2627
82618NA      NA59194   4.239  13.286   3.678  0.1640  0.6658 -0.1159
82619NA      NA59195  12.061  11.986  12.409  0.1845 -0.4758  0.1000
82620NA      NA59196   1.324  11.024   8.118  0.2018  0.0520  0.4663
82621NA      NA59197  11.553   4.221   2.023  0.3694 -0.0652 -0.1159
82622NA      NA59198   1.046  13.044  12.902  0.2875 -0.0221  0.2010
82623NA      NA59199   3.500   0.509  10.606  0.2289 -0.1436  0.2619
82624NA      NA59200   0.585   4.402  13.587  0.3261  0.4049  0.3569
82625NA      NA59201  11.051   1.497   0.951  0.2218  0.6600 -0.0585
82626NA      NA59202   2.707   6.188   9.228 -0.1625  0.3105 -0.2470
82627NA      NA59203   6.634  12.732   8.597 -0.2418  0.0186  0.1059
82628NA      NA59204   7.540   4.157   8.714  0.1658  0.6397  0.3876
82629NA      NA59205  10.853   3.744   9.613 -0.2196  0.7153 -0.2425
82630NA      NA59206   4.819  11.685   4.746 -0.0331  0.1169  0.0807
82631NA      NA59207   7.834  11.817   1.537 -0.3462  0.4445  0.1163
82632NA      NA59208   5.922  10.811   9.269 -0.3788 -0.2866 -0.3777
82633NA      NA59209   7.384  10.198   7.221 -0.0183  0.1449  0.0124
82634NA      NA59210   1.460   6.358   4.566  0.1538 -0.1897 -0.2724
82635NA      NA59211   0.384   6.122   9.488  0.2923 -0.1364 -0.0402
82636NA      NA59212   4.214  10.386   4.319 -0.1515  0.3216  0.1795
82637NA      NA59213   5.375   6.038   6.824 -0.2040  0.1792  0.1929
82638NA      NA59214  10.468   8.644   2.761 -0.2470 -0.1082 -0.2066
82639NA      NA59215   9.353  13.264   8.710 -0.2587 -0.4309 -0.0806
82640NA      NA59216  11.807   4.822   1.405 -0.6453  0.2741 -0.1236
82641NA      NA59217   8.189   4.907   5.663 -0.4075  0.2165  0.9653
82642NA      NA59218   4.701  11.341   7.690  0.4103  0.0932 -0.0924
82643NA      NA59219   7.776   5.863  12.760 -0.2475  0.4066  0.1781
82644NA      NA59220   0.754  11.718  10.051 -0.2859  0.4581  0.4050
82645NA      NA59221   3.793   9.969   3.577 -0.5265 -0.6501  0.1500
82646NA      NA59222  13.185   0.239   6.807 -0.4107 -0.5257  0.0786
82647NA      NA59223   9.264   9.841   5.855  0.1797  0.2990  0.2211
82648NA      NA59224   2.760   5.302   6.286  0.0386 -0.4151 -0.0252
82649NA      NA59225   6.141   3.699  12.178 -0.0369  0.9071  0.1759
82650NA      NA59226   5.646   4.813  13.647  0.2501 -0.1704 -0.5342
82651NA      NA59227   9.126  10.682   8.080  0.2753  0.1375 -0.0035
82652NA      NA59228   0.266   5.672   9.750  0.1615  0.0207  0.1890
82653NA      NA59229   9.097  13.482   0.232  0.8621 -0.1995  0.1188
82654NA      NA59230   3.448   3.487   4.875 -0.0922 -0.2243 -0.0280
82655NA      NA59231  12.950   7.182   9.047  0.3037 -0.1826  0.0996
82656NA      NA59232   9.601   6.270  11.005  0.2010  0.0655 -0.1862
82657NA      NA59233   7.625  13.107   1.852  0.5140 -0.2224 -0.1719
82658NA      NA59234   1.602  12.842  11.300  0.0431 -0.3144 -0.2161
82659NA      NA59235   8.378   5.656   2.155  0.1687 -0.1213  0.1003
82660NA      NA59236   1.432   8.505   2.532  0.3061  0.2753 -0.2627
82661NA      NA59237   7.698  12.366   9.318 -0.6283 -0.1941  0.2465
82662NA      NA59238   8.182  11.933   8.131  0.3919  0.1789 -0.1081
82663NA      NA59239   5.676  12.353   6.603 -0.2410 -0.1213 -0.0513
82664NA      NA59240   9.680  11.619   4.431  0.2844  0.0780  0.2541
82665NA      NA59241  11.540  13.670   8.580 -0.3295 -0.4539  0.1006
82666CL      CL59242   7.281   6.472  13.099 -0.0918  0.2296  0.2025
82667CL      CL59243   2.264  11.915   9.595 -0.2052  0.4921 -0.3277
82668CL      CL59244   0.103  11.607  12.778 -0.5183 -0.1009 -0.1778
82669CL      CL59245   3.783  10.040   5.716  0.1546  0.1882 -0.0484
82670CL      CL59246   2.016  10.824   6.131  0.1063 -0.0152 -0.1591
82671CL      CL59247   2.613   7.500   7.186 -0.0328  0.4317 -0.3906
82672CL      CL59248   3.652   9.539   7.156  0.3354  0.0499  0.7631
82673CL      CL59249   8.367  12.076   8.168  0.1388  0.2352  0.2503
82674CL      CL59250  12.917   5.010   8.884  0.2205 -0.2100  0.3549
82675CL      CL59251  12.486   0.381   2.243  0.0732  0.0741  0.2382
82676CL      CL59252  11.161   3.307  10.646  0.1699 -0.0291 -0.1011
82677CL      CL59253   0.084  13.313   3.478 -0.2277  0.1711  0.3309
82678CL      CL59254   2.043   7.540   3.957  0.0094 -0.1434  0.0617
82679CL      CL59255  12.875   2.063   3.893  0.2108 -0.3435  0.5789
82680CL      CL59256   9.069   4.393   7.260  0.4853 -0.0618  0.0443
82681CL      CL59257   0.453   2.295  10.636 -0.3219  0.3270 -0.0038
82682CL      CL59258  11.507   0.899   8.993 -0.0107 -0.3473 -0.2010
82683CL      CL59259   5.970   2.104   2.513  0.3575 -0.5392  0.0458
82684CL      CL59260   8.884   3.259   0.480 -0.3022 -0.0223 -0.0910
82685CL      CL59261   3.797  10.014  13.453 -0.2174 -0.1125 -0.3657
82686CL      CL59262   3.494   5.997  12.717 -0.4192 -0.3378 -0.0046
82687CL      CL59263   7.601   1.130   4.594 -0.1120  0.0503 -0.0381
82688CL      CL59264   9.882   2.584  10.096  0.2192 -0.1362 -0.2884
82689CL      CL59265   7.298   9.317   7.271  0.1968 -0.3959  0.2465
82690CL      CL59266   3.098   1.061   8.773 -0.1073 -0.1162  0.1985
82691CL      CL59267   7.597   4.592   8.680 -0.0465  0.2205  0.5257
82692CL      CL59268   1.082   1.096   5.831 -0.3402  0.0376 -0.2399
82693CL      CL59269   0.498   8.690   6.469 -0.3082  0.0957 -0.2096
82694CL      CL59270   9.214   1.600   1.078  0.2758 -0.0461 -0.0876
82695CL      CL59271  10.712   6.413   4.003  0.2208 -0.2033  0.3811
82696CL      CL59272   5.414  13.075   0.226  0.1307 -0.1158 -0.4778
82697CL      CL59273   4.887   6.316   9.650  0.0774  0.1490  0.3001
82698CL      CL59274   3.827  11.908   6.439  0.1340 -0.1442  0.1860
82699CL      CL59275  13.034   1.262   8.559 -0.2419 -0.0202  0.0401
82700CL      CL59276   9.363   4.887   0.970 -0.1268 -0.0241 -0.2397
82701CL      CL59277  10.704  13.721   7.711  0.0526  0.1021  0.0660
82702CL      CL59278   1.088   2.918   9.286 -0.0718  0.1884  0.2360
82703CL      CL59279   3.920   2.862   6.611  0.0501 -0.2917  0.2337
82704CL      CL59280  13.062   5.607   6.816  0.2409  0.5767  0.2742
82705CL      CL59281   9.790   7.722   1.271 -0.2027 -0.1239 -0.0450
82706CL      CL59282   2.137   4.763   2.140  0.1436  0.0163  0.1344
82707CL      CL59283   9.051   0.832  13.304 -0.3130 -0.3816  0.3410
82708CL      CL59284   7.801   5.409   5.790  0.0697  0.1232  0.2321
82709CL      CL59285   7.619  11.138   3.223  0.0724 -0.2054  0.0152
82710CL      CL59286   5.863  10.761   9.040 -0.4186 -0.1206 -0.0690
82711CL      CL59287   9.891  13.558   4.371  0.3216 -0.0558  0.0314
82712CL      CL59288   8.933  13.649   0.658  0.0961 -0.1223  0.2773
82713CL      CL59289   8.254   8.457  12.340 -0.1109 -0.5076 -0.5313
82714CL      CL59290   0.685  11.496  12.700 -0.0826 -0.1478 -0.0238
82715CL      CL59291   0.015   4.972  12.109  0.1428 -0.1845 -0.0677
82716CL      CL59292  12.264  10.922   2.673  0.1181  0.1453 -0.2935
82717CL      CL59293  10.177   1.777  13.053 -0.4011  0.1548 -0.1767
82718CL      CL59294   8.463   4.082   3.785 -0.2248  0.2357 -0.0436
82719CL      CL59295   5.635  12.336   8.266  0.3486  0.0109  0.2366
82720CL      CL59296   1.329   8.399   5.616  0.0808 -0.1530  0.1040
82721CL      CL59297   5.475   7.601  10.995  0.1129 -0.3119  0.2098
82722CL      CL59298   4.381   3.580   1.058  0.2789 -0.2384 -0.2796
82723CL      CL59299   5.061   5.862   9.724 -0.1053 -0.1361  0.2473
82724CL      CL59300   3.605   8.467  13.631 -0.0651  0.3958  0.2666
82725CL      CL59301   1.094  11.415   2.558 -0.4304 -0.3589 -0.0597
82726CL      CL59302   2.122  10.177   4.007 -0.1756 -0.0604  0.1314
82727CL      CL59303   9.983  11.666   8.189 -0.0662  0.1028  0.0107
82728CL      CL59304  10.257   6.163  10.562 -0.2425 -0.2035  0.3947
82729CL      CL59305   3.223   9.241   3.756  0.1456  0.2435  0.4053
82730CL      CL59306   0.566   5.488   5.739 -0.1266 -0.2204 -0.2433
82731CL      CL59307   1.523   0.677  12.933  0.5319 -0.0920  0.5923
82732CL      CL59308   6.582  12.070   5.505 -0.0724  0.2164  0.0529
82733CL      CL59309   0.638   4.055   1.249  0.2744  0.3641  0.2222
82734CL      CL59310   8.925   1.457  10.663 -0.2488  0.0445  0.0128
82735CL      CL59311   2.931   6.086   9.183  0.0429  0.1326 -0.6465
82736CL      CL59312   0.424  10.357   7.488  0.3041 -0.1463  0.1877
82737CL      CL59313   2.055   2.824  12.238  0.1466  0.2345  0.3862
82738CL      CL59314   9.070   6.453   5.211 -0.1081 -0.0889  0.2678
82739CL      CL59315  12.377  11.256   8.789  0.0472 -0.6307 -0.1912
82740CL      CL59316  12.484  12.805   6.132  0.0317 -0.2714  0.2850
82741CL      CL59317  12.154   7.346   2.221 -0.0879  0.3447  0.2240
82742CL      CL59318  12.256  11.842   4.660 -0.0208 -0.0695  0.1582
82743CL      CL59319   6.364   1.118  11.961  0.1805  0.1171  0.1619
82744CL      CL59320   6.340   7.985   8.954 -0.3276 -0.1742 -0.0749
82745CL      CL59321   7.089  13.589   1.052 -0.2977  0.1559  0.2342
82746CL      CL59322   7.354   3.656  12.710  0.0139  0.2726  0.1233
82747CL      CL59323   0.936   7.801  10.572  0.3704 -0.8326 -0.3672
82748CL      CL59324   0.845   7.702   1.082 -0.1127 -0.2420 -0.1456
82749CL      CL59325  12.520   9.811   5.676  0.0150  0.2457 -0.2629
82750CL      CL59326   5.388   1.263  11.526  0.2037 -0.6141  0.0470
82751CL      CL59327   4.877   9.474   8.467 -0.2583 -0.1582  0.0759
82752CL      CL59328   3.232   2.057   0.267  0.0781 -0.3417 -0.3079
82753CL      CL59329   4.617   5.643   7.365  0.2073 -0.2556  0.0207
82754CL      CL59330   8.919   4.709   1.897 -0.1147 -0.0948 -0.1597
82755CL      CL59331   4.675   9.337   4.225 -0.0804 -0.1442  0.0185
82756CL      CL59332   4.002   9.099   9.726 -0.0988  0.0148  0.3299
82757CL      CL59333  11.962   9.633   2.555  0.3190 -0.3464 -0.1215
82758CL      CL59334   9.170   7.636  13.031  0.4654  0.3344 -0.0150
82759CL      CL59335   2.444   1.064  10.387  0.3894  0.2278 -0.4901
82760CL      CL59336   1.581   4.273  12.011  0.2315  0.1998  0.0759
82761CL      CL59337   4.493  10.893   2.017  0.1206 -0.2196  0.2837
82762CL      CL59338   9.307   7.727   8.841  0.5536  0.2842  0.4146
82763CL      CL59339  11.644   2.046   3.693 -0.5191  0.0268  0.1376
82764CL      CL59340   3.084  10.952  13.052  0.0738  0.2165 -0.1165
82765CL      CL59341   1.800  11.539  12.521 -0.6166 -0.1801  0.3111
82766CL      CL59342   2.617   4.184   1.746  0.1628  0.1020  0.0046
82767CL      CL59343   3.744  10.845   0.551 -0.4013  0.1761  0.2483
82768CL      CL59344  12.573   6.201   8.029  0.2772  0.0775  0.2299
82769CL      CL59345  10.577   8.161   9.743 -0.2798 -0.2678 -0.1703
82770CL      CL59346   4.458   8.665   6.220 -0.1384 -0.2433 -0.0576
82771CL      CL59347   8.698   7.299   7.329  0.2408  0.0615 -0.4753
82772CL      CL59348   3.906   8.509  13.183 -0.0842 -0.2210  0.0354
82773CL      CL59349   0.943   9.015  11.910  0.3015  0.2287  0.2833
82774CL      CL59350   5.598   2.401   1.285 -0.1773  0.4164 -0.5371
82775CL      CL59351   1.446   0.241  11.682 -0.4443  0.2425  0.4934
82776CL      CL59352   2.003  10.447  13.341  0.0642 -0.1325 -0.3261
82777CL      CL59353  13.657   5.936   4.881  0.1487 -0.3840 -0.4855
82778CL      CL59354  11.262   6.989   9.580  0.3073 -0.5035  0.0077
82779CL      CL59355  13.207   7.500   8.365 -0.1968 -0.0340  0.0866
82780CL      CL59356   3.977   1.549  11.134  0.3570  0.0464 -0.7295
82781CL      CL59357   7.116  10.793  10.198 -0.1499 -0.1661  0.3000
82782CL      CL59358   5.387   1.452   2.133  0.2370  0.1245 -0.4155
82783CL      CL59359   1.396  11.092  11.446  0.3666  0.5486  0.1558
82784CL      CL59360  11.115   4.663  10.108  0.1786 -0.2058  0.2317
82785CL      CL59361   5.270  12.231   6.436  0.3358 -0.1784  0.2710
82786CL      CL59362  12.228   2.488   8.174 -0.3544 -0.0122  0.4225
82787CL      CL59363   6.644  10.694   0.954 -0.2012 -0.4783 -0.0537
82788CL      CL59364   7.887  12.874   2.098  0.0639  0.0310  0.4161
82789CL      CL59365  10.610   0.641   1.001  0.3851  0.2355 -0.0443
82790CL      CL59366  11.595   4.394   1.297 -0.1030  0.3007 -0.1719
82791CL      CL59367   7.858   4.739  11.011  0.2476  0.3622 -0.1383
82792CL      CL59368   3.841   8.164   9.389 -0.1163 -0.0314 -0.1660
82793CL      CL59369  13.255  10.420   8.583 -0.0206  0.1445  0.2470
82794CL      CL59370   2.047   7.709  11.944 -0.2764 -0.0077 -0.3891
82795CL      CL59371   2.351   4.512   1.091  0.2421 -0.3551  0.1416
82796CL      CL59372   7.810   6.922   6.370 -0.2637  0.3622  0.1177
82797CL      CL59373   5.839   4.015  12.564  0.1741 -0.1620  0.2157
82798CL      CL59374   9.859  10.102   8.252  0.1405  0.1448  0.0368
82799CL      CL59375   2.082   8.247   2.601  0.1023  0.1026 -0.4093
82800CL      CL59376   1.217   2.936   0.408  0.2107 -0.0736  0.0596
82801CL      CL59377  12.382   7.552   3.816  0.1332  0.0852  0.5301
82802CL      CL59378   5.940   1.479  10.512 -0.2559 -0.4529  0.1915
82803CL      CL59379   9.612   4.163  10.514 -0.0381  0.3384  0.0566
82804CL      CL59380   2.381   1.578   4.982  0.1476 -0.8005 -0.1205
82805CL      CL59381   3.985   3.097   3.956 -0.3457  0.4106 -0.2480
82806CL      CL59382   7.063   3.565   1.051 -0.2551  0.3565 -0.4270
82807CL      CL59383   5.179   1.903   0.920  0.0711  0.5897  0.0028
82808CL      CL59384   6.845   4.958   8.386 -0.1401 -0.2387 -0.2330
82809CL      CL59385   4.143  10.637   5.236  0.1452 -0.0216 -0.5046
82810CL      CL59386  12.557   5.784   8.279 -0.0577  0.3672 -0.3315
82811CL      CL59387   7.831   2.153  10.509  0.1142  0.0126 -0.0680
82812CL      CL59388   2.529   0.031   6.778 -0.0401  0.0161  0.0756
82813CL      CL59389   3.163   1.686   1.299 -0.0118  0.2418 -0.1789
82814CL      CL59390  11.786   5.300  13.709 -0.3223  0.3151  0.4706
82815CL      CL59391   3.827   1.895   4.096 -0.2764  0.0429  0.2679
82816CL      CL59392  11.152   6.185  13.177 -0.1441  0.3181  0.0899
82817CL      CL59393   9.829  10.978   3.821 -0.0343 -0.1400 -0.3098
82818CL      CL59394   4.358  11.614   2.511 -0.0701  0.0695 -0.4486
82819CL      CL59395  12.813  10.868   0.539 -0.5031  0.1597  0.0993
82820CL      CL59396   7.306   9.679   2.408  0.0066 -0.0104  0.2678
82821CL      CL59397   9.499   3.372   6.662 -0.4840 -0.0956 -0.1904
82822CL      CL59398   8.149   5.538   1.309 -0.3800  0.2826 -0.0051
82823CL      CL59399   4.371  11.792   8.857  0.0416  0.2306  0.2310
82824CL      CL59400  13.706   7.241  10.847 -0.0690 -0.1894  0.2765
82825CL      CL59401   6.614  12.875   8.392  0.4763  0.3218  0.4031
82826CL      CL59402  13.505  11.092   0.575 -0.1310  0.2637  0.1032
82827CL      CL59403   2.749   6.424   9.192 -0.2747 -0.3670  0.0920
82828CL      CL59404  13.159   5.277   5.635  0.1952  0.1768 -0.3318
82829CL      CL59405  10.907   2.163   4.482  0.2571  0.1384 -0.1822
82830CL      CL59406   5.715   2.227   9.320  0.2315  0.4132  0.7577
82831CL      CL59407   4.764  10.819  12.350  0.3365 -0.2888 -0.2140
82832CL      CL59408   3.781   8.932   0.733  0.0289 -0.6128 -0.0717
82833CL      CL59409   1.158   5.449   4.390 -0.3512 -0.1062  0.0109
82834CL      CL59410   3.145   2.400   9.773  0.1495 -0.0266 -0.1858
82835CL      CL59411  12.982   0.060  13.581  0.4374  0.1722 -0.0280
82836CL      CL59412   5.836   8.224   8.803 -0.0671 -0.3155 -0.0925
82837CL      CL59413   2.678   0.315  13.012 -0.1746 -0.0585 -0.2980
82838CL      CL59414   0.262   4.674   7.135 -0.3825 -0.2616  0.3618
82839CL      CL59415   6.421   5.314   7.453 -0.2064 -0.2589  0.1126
82840CL      CL59416   6.763   2.070  10.941  0.0057 -0.3400  0.1797
82841CL      CL59417  13.559  10.490  12.027  0.1219 -0.1325  0.0610
82842CL      CL59418   2.522   0.771   5.080 -0.1586 -0.4286 -0.0687
82843CL      CL59419   7.236   8.833   9.288 -0.1315  0.1207 -0.2305
82844CL      CL59420   0.611  11.779   5.180  0.4372  0.0677  0.1757
82845CL      CL59421   2.853   5.187   5.502 -0.2731  0.1852  0.2573
82846CL      CL59422  13.338  13.506  11.073 -0.2221  0.3838 -0.0013
82847CL      CL59423   4.300   0.990   7.602 -0.1754 -0.2299  0.1469
82848CL      CL59424   2.741  11.923   1.557 -0.0458 -0.1854  0.5763
82849CL      CL59425  11.661   4.951   4.558 -0.1395 -0.1976 -0.0600
82850CL      CL59426   3.008   6.294   5.497 -0.2145  0.1034  0.1030
82851CL      CL59427   1.486   0.074   7.239 -0.5463 -0.1701  0.0608
82852CL      CL59428  13.632  12.366   7.896  0.1299 -0.2005  0.7339
82853CL      CL59429   2.592   4.253   6.268 -0.1999 -0.3530  0.3621
82854CL      CL59430  11.369   3.996  10.916  0.3019  0.0682 -0.1152
82855CL      CL59431  12.554   9.309  13.583  0.1771 -0.3467 -0.1449
82856CL      CL59432   7.218   1.679   7.354  0.0579  0.0942 -0.2124
82857CL      CL59433   8.543   5.898   1.009  0.2700 -0.1751 -0.0983
82858CL      CL59434   1.475   6.708   1.012  0.4492 -0.2433  0.3441
82859CL      CL59435   5.845   1.610  11.738  0.1630 -0.2662 -0.1203
82860CL      CL59436   3.872   8.784  12.074  0.2048 -0.2364 -0.1248
82861CL      CL59437  11.464  10.585   1.021  0.1436  0.0883  0.0984
82862CL      CL59438   8.383   7.413   5.674 -0.2578  0.2650  0.0193
82863CL      CL59439   1.234   6.382   8.917 -0.4982 -0.0942 -0.1676
82864CL      CL59440  10.627   2.416   7.273  0.3498  0.1725 -0.0121
82865CL      CL59441   3.354  12.187   8.535  0.0580 -0.1141  0.1618
82866CL      CL59442  11.942   7.598   5.041 -0.3523 -0.0144 -0.0974
82867CL      CL59443  12.004   8.961   9.741  0.2073  0.2434 -0.1251
82868CL      CL59444   0.660   6.058   3.016 -0.0712  0.0796 -0.3888
82869CL      CL59445   6.747   9.863   2.319  0.0175  0.1058  0.3426
82870CL      CL59446  11.403   8.875   3.801 -0.3599 -0.1104 -0.2534
82871CL      CL59447   0.226   6.180   2.614 -0.3917  0.2780  0.0184
82872CL      CL59448  11.017   3.543   1.501 -0.3003 -0.0666 -0.0251
82873CL      CL59449   8.399   3.754  10.323 -0.0831 -0.4061 -0.1586
82874CL      CL59450   9.976  12.209   7.331 -0.3634  0.1976  0.0782
82875CL      CL59451   5.989   2.889  12.706 -0.6572 -0.1377  0.1327
82876CL      CL59452   2.690  13.041   5.241  0.0036 -0.0156 -0.3909
82877CL      CL59453  12.210   4.116  10.769  0.0089 -0.1958 -0.3551
82878CL      CL59454   8.088   0.705   9.152 -0.3135  0.3380 -0.5704
82879CL      CL59455   6.950   3.434   6.627 -0.7208 -0.5642  0.3410
82880CL      CL59456   3.064   0.332  10.756 -0.1103 -0.0641 -0.2219
82881CL      CL59457   1.891   2.186  10.511  0.1436 -0.5005  0.3584
82882CL      CL59458   5.693  11.652   5.535  0.1712 -0.5521 -0.1643
82883CL      CL59459   9.667  12.870   7.467 -0.4163 -0.3584  0.0371
82884CL      CL59460   8.716   3.849   6.394 -0.1583 -0.1032  0.0114
82885CL      CL59461  12.326   0.940  11.274 -0.2451 -0.5188 -0.0980
82886CL      CL59462   1.685   4.250   3.337  0.1994  0.1804 -0.1889
82887CL      CL59463  11.680   0.743  11.583  0.2236 -0.2236 -0.0040
82888CL      CL59464   6.410  11.733   1.791 -0.2114 -0.4933 -0.4607
82889CL      CL59465   6.951  11.914   6.835  0.4340 -0.3306 -0.1187
82890CL      CL59466   8.775  12.672   2.814  0.3019  0.0050 -0.1709
82891CL      CL59467   4.186   4.386  10.401 -0.0396  0.2793  0.1532
82892CL      CL59468   8.697   0.242   0.729 -0.2471  0.3454 -0.3521
82893CL      CL59469   5.567  11.504   7.387  0.0088  0.0690 -0.0781
82894CL      CL59470  11.458   9.857  11.477  0.1436 -0.1862 -0.0133
82895CL      CL59471   4.946   7.621  10.887  0.1688 -0.0584  0.1551
82896CL      CL59472   1.491   3.592   6.154  0.0780  0.0677  0.1805
82897CL      CL59473  12.220   7.038  10.193  0.0529 -0.0864  0.3598
82898CL      CL59474   1.173   0.135   0.961  0.1561 -0.2424  0.0900
82899CL      CL59475   3.369  10.950   5.737 -0.3216  0.2705  0.3408
82900CL      CL59476   1.964   9.227   0.104  0.0625 -0.0809 -0.0761
82901CL      CL59477   0.095   6.008   5.922  0.0966 -0.0186 -0.0687
82902CL      CL59478  10.944  12.839   2.302 -0.5137 -0.1261 -0.6663
82903CL      CL59479  11.363  10.054  12.676 -0.0748  0.3000 -0.1438
82904CL      CL59480   5.322  13.084  12.159  0.1546  0.1006  0.1466
82905CL      CL59481   4.769  10.655   9.745  0.1250  0.0793 -0.0374
  13.74564  13.74564  13.74564
